
#(C) 2020 by FIZ Karlsruhe - Leibniz Institute for Information Infrastructure.  All rights reserved.
data_10479-ICSD
_database_code_ICSD 10479
_audit_creation_date 1980-01-01
_audit_update_record 2006-04-01
_chemical_name_common 'Dilithium tungstate - II'
_chemical_formula_structural 'Li2 (W O4)'
_chemical_formula_sum 'Li2 O4 W1'
_chemical_name_structure_type CdBi2O4
_exptl_crystal_density_diffrn 5.79
_citation_title
'The crystal structure of Li2 W O4 II: A structure related to spinel'
loop_
_citation_id
_citation_journal_full
_citation_year
_citation_journal_volume
_citation_page_first
_citation_page_last
_citation_journal_id_ASTM
primary 'Journal of Solid State Chemistry' 1979 30 129 135 JSSCBI
loop_
_citation_author_citation_id
_citation_author_name
primary 'Horiuchi, H.'
primary 'Morimoto, N.'
primary 'Yamaoka, S.'
_cell_length_a 11.954(2)
_cell_length_b 11.954(2)
_cell_length_c 8.410(1)
_cell_angle_alpha 90.
_cell_angle_beta 90.
_cell_angle_gamma 90.
_cell_volume 1201.77
_cell_formula_units_Z 16
_space_group_name_H-M_alt 'I 41/a m d Z'
_space_group_IT_number 141
loop_
_space_group_symop_id
_space_group_symop_operation_xyz
1 'y+1/4, x+3/4, -z+1/4'
2 'y+1/4, -x+3/4, -z+1/4'
3 'x, y+1/2, -z'
4 'x, -y, -z'
5 '-y+3/4, x+3/4, -z+1/4'
6 '-y+3/4, -x+3/4, -z+1/4'
7 '-x, y+1/2, -z'
8 '-x, -y, -z'
9 '-y+3/4, -x+1/4, z+3/4'
10 '-y+3/4, x+1/4, z+3/4'
11 '-x, -y+1/2, z'
12 '-x, y, z'
13 'y+1/4, -x+1/4, z+3/4'
14 'y+1/4, x+1/4, z+3/4'
15 'x, -y+1/2, z'
16 'x, y, z'
17 'y+3/4, x+1/4, -z+3/4'
18 'y+3/4, -x+1/4, -z+3/4'
19 'x+1/2, y, -z+1/2'
20 'x+1/2, -y+1/2, -z+1/2'
21 '-y+1/4, x+1/4, -z+3/4'
22 '-y+1/4, -x+1/4, -z+3/4'
23 '-x+1/2, y, -z+1/2'
24 '-x+1/2, -y+1/2, -z+1/2'
25 '-y+1/4, -x+3/4, z+1/4'
26 '-y+1/4, x+3/4, z+1/4'
27 '-x+1/2, -y, z+1/2'
28 '-x+1/2, y+1/2, z+1/2'
29 'y+3/4, -x+3/4, z+1/4'
30 'y+3/4, x+3/4, z+1/4'
31 'x+1/2, -y, z+1/2'
32 'x+1/2, y+1/2, z+1/2'
loop_
_atom_type_symbol
_atom_type_oxidation_number
W6+ 6
O2- -2
Li1+ 1
loop_
_atom_site_label
_atom_site_type_symbol
_atom_site_symmetry_multiplicity
_atom_site_Wyckoff_symbol
_atom_site_fract_x
_atom_site_fract_y
_atom_site_fract_z
_atom_site_B_iso_or_equiv
_atom_site_occupancy
W1 W6+ 16 h 0.36394(4) 0.25 -.02805(6) . 1.
O1 O2- 16 h 0 0.1273(9) 0.0175(12) . 1.
O2 O2- 16 h 0 0.1449(8) 0.4852(12) . 1.
O3 O2- 32 i 0.1150(6) 0.0223(5) 0.2542(10) . 1.
Li1 Li1+ 16 g 0.1300(18) 0.8800(18) 0.125 . 1.
Li2 Li1+ 16 f 0.374(6) 0 0 . 1.
#End of TTdata_10479-ICSD