
#(C) 2020 by FIZ Karlsruhe - Leibniz Institute for Information Infrastructure.  All rights reserved.
data_1384-ICSD
_database_code_ICSD 1384
_audit_creation_date 1980-01-01
_audit_update_record 2010-02-01
_chemical_name_common 'Lithium trioxofluorosulfate(VI)'
_chemical_formula_structural 'Li (S O3 F)'
_chemical_formula_sum 'F1 Li1 O3 S1'
_chemical_name_structure_type CrPS4
_exptl_crystal_density_diffrn 2.17
_citation_title 'The crystal structure of lithium fluorosulphate Li S O3 F'
loop_
_citation_id
_citation_journal_full
_citation_year
_citation_journal_volume
_citation_page_first
_citation_page_last
_citation_journal_id_ASTM
primary

;
Acta Crystallographica, Section B: Structural Crystallography and Crystal
Chemistry
; 1978 34 38 40 ACBCAR
loop_
_citation_author_citation_id
_citation_author_name
primary 'Zak, Z.'
primary 'Kosicka, M.'
_cell_length_a 8.54(2)
_cell_length_b 7.62(1)
_cell_length_c 4.98(2)
_cell_angle_alpha 90.
_cell_angle_beta 90.0(3)
_cell_angle_gamma 90.
_cell_volume 324.07
_cell_formula_units_Z 4
_space_group_name_H-M_alt 'C 1 2/m 1'
_space_group_IT_number 12
loop_
_space_group_symop_id
_space_group_symop_operation_xyz
1 '-x, y, -z'
2 '-x, -y, -z'
3 'x, -y, z'
4 'x, y, z'
5 '-x+1/2, y+1/2, -z'
6 '-x+1/2, -y+1/2, -z'
7 'x+1/2, -y+1/2, z'
8 'x+1/2, y+1/2, z'
loop_
_atom_type_symbol
_atom_type_oxidation_number
S6+ 6
F1- -1
O2- -2
Li1+ 1
loop_
_atom_site_label
_atom_site_type_symbol
_atom_site_symmetry_multiplicity
_atom_site_Wyckoff_symbol
_atom_site_fract_x
_atom_site_fract_y
_atom_site_fract_z
_atom_site_B_iso_or_equiv
_atom_site_occupancy
S1 S6+ 4 i 0.2913(2) 0 0.2715(4) . 1.
F1 F1- 4 i 0.2744(7) 0 0.5827(12) . 1.
O1 O2- 4 i 0.1310(6) 0 0.1722(13) . 1.
O2 O2- 8 j 0.3726(4) 0.1597(6) 0.2208(10) . 1.
Li1 Li1+ 4 g 0 0.1947(18) 0 . 1.
#End of TTdata_1384-ICSD