
#(C) 2020 by FIZ Karlsruhe - Leibniz Institute for Information Infrastructure.  All rights reserved.
data_14235-ICSD
_database_code_ICSD 14235
_audit_creation_date 1980-01-01
_audit_update_record 2015-08-01
_chemical_name_common 'Lithium aluminium catena-disilicate - II'
_chemical_formula_structural 'Li Al (Si2 O6)'
_chemical_formula_sum 'Al1 Li1 O6 Si2'
_chemical_name_structure_type LiAlSi2O6
_chemical_name_mineral Spodumene-II
_exptl_crystal_density_diffrn 2.38
_citation_title 'The crystal structure of beta spodumene, Li Al Si2 O6 II'
loop_
_citation_id
_citation_journal_full
_citation_year
_citation_journal_volume
_citation_page_first
_citation_page_last
_citation_journal_id_ASTM
primary 'Zeitschrift fuer Kristallographie' 1969 130 420 426 ZEKRDZ
loop_
_citation_author_citation_id
_citation_author_name
primary 'Clarke, P.T.'
primary 'Spink, J.M.'
_cell_length_a 7.534(5)
_cell_length_b 7.534(5)
_cell_length_c 9.158(9)
_cell_angle_alpha 90.
_cell_angle_beta 90.
_cell_angle_gamma 90.
_cell_volume 519.82
_cell_formula_units_Z 4
_space_group_name_H-M_alt 'P 43 21 2'
_space_group_IT_number 96
loop_
_space_group_symop_id
_space_group_symop_operation_xyz
1 'x+1/2, -y+1/2, -z+1/4'
2 '-x+1/2, y+1/2, -z+3/4'
3 '-y, -x, -z+1/2'
4 'y, x, -z'
5 'y+1/2, -x+1/2, z+1/4'
6 '-y+1/2, x+1/2, z+3/4'
7 '-x, -y, z+1/2'
8 'x, y, z'
loop_
_atom_type_symbol
_atom_type_oxidation_number
Si4+ 4
Al3+ 3
Si4+ 4
Al3+ 3
O2- -2
Li1+ 1
loop_
_atom_site_label
_atom_site_type_symbol
_atom_site_symmetry_multiplicity
_atom_site_Wyckoff_symbol
_atom_site_fract_x
_atom_site_fract_y
_atom_site_fract_z
_atom_site_B_iso_or_equiv
_atom_site_occupancy
Si1 Si4+ 8 b 0.3322(1) 0.1223(1) 0.2388(1) . 0.667
Al1 Al3+ 8 b 0.3322(1) 0.1223(1) 0.2388(1) . 0.333
Si2 Si4+ 4 a 0.4174(1) 0.4174(1) 0 . 0.667
Al2 Al3+ 4 a 0.4174(1) 0.4174(1) 0 . 0.333
O1 O2- 8 b 0.4426(4) 0.1216(4) 0.3947(3) . 1.
O2 O2- 8 b 0.1243(3) 0.1153(3) 0.3001(3) . 1.
O3 O2- 8 b 0.3654(4) 0.3048(4) 0.1468(3) . 1.
Li1 Li1+ 8 b 0.0826(24) 0.1982(25) 0.4944(17) . 0.5
loop_
_atom_site_aniso_label
_atom_site_aniso_type_symbol
_atom_site_aniso_U_11
_atom_site_aniso_U_22
_atom_site_aniso_U_33
_atom_site_aniso_U_12
_atom_site_aniso_U_13
_atom_site_aniso_U_23
Si1 Si4+ 0.0127(3) 0.0124(3) 0.0099(3) -.0004(3) 0.0003(2) 0.0001(2)
Al1 Al3+ 0.0127(3) 0.0124(3) 0.0099(3) -.0004(3) 0.0003(2) 0.0001(2)
Si2 Si4+ 0.0111(3) 0.0111(3) 0.0125(4) -.0007(3) 0.0003(2) -.0003(2)
Al2 Al3+ 0.0111(3) 0.0111(3) 0.0125(4) -.0007(3) 0.0003(2) -.0003(2)
O1 O2- 0.0322(12) 0.0343(13) 0.0266(12) -.0056(9) -.0162(9) 0.0014(10)
O2 O2- 0.0153(9) 0.0308(12) 0.0219(9) 0.0011(7) -.0005(7) -.0022(8)
O3 O2- 0.0483(16) 0.0329(14) 0.0339(15) -.0035(11) 0.0087(12) 0.0145(11)
Li1 Li1+ 0.0555(90) 0.081(11) 0.0227(76) -.0238(76) -.0059(62) -.0063(81)
#End of TTdata_14235-ICSD