
#(C) 2020 by FIZ Karlsruhe - Leibniz Institute for Information Infrastructure.  All rights reserved.
data_14360-ICSD
_database_code_ICSD 14360
_audit_creation_date 1986-10-02
_audit_update_record 2006-04-01
_chemical_name_common 'Dilithium tetrafluoroberyllate'
_chemical_formula_structural 'Li2 (Be F4)'
_chemical_formula_sum 'Be1 F4 Li2'
_chemical_name_structure_type Phenakite#Be2SiO4
_exptl_crystal_density_diffrn 2.17
_citation_title 'Refinement of the crystal structure of Li2 Be F4'
loop_
_citation_id
_citation_journal_full
_citation_year
_citation_journal_volume
_citation_page_first
_citation_page_last
_citation_journal_id_ASTM
primary 'Acta Crystallographica' 1966 20 135 138 ACCRA9
loop_
_citation_author_citation_id
_citation_author_name
primary 'Burns, J.H.'
primary 'Gordon, E.K.'
_cell_length_a 13.29(1)
_cell_length_b 13.29(1)
_cell_length_c 8.91(1)
_cell_angle_alpha 90.
_cell_angle_beta 90.
_cell_angle_gamma 120.
_cell_volume 1362.88
_cell_formula_units_Z 18
_space_group_name_H-M_alt 'R -3 H'
_space_group_IT_number 148
loop_
_space_group_symop_id
_space_group_symop_operation_xyz
1 'x-y, x, -z'
2 'y, -x+y, -z'
3 '-x, -y, -z'
4 '-x+y, -x, z'
5 '-y, x-y, z'
6 'x, y, z'
7 'x-y+2/3, x+1/3, -z+1/3'
8 'y+2/3, -x+y+1/3, -z+1/3'
9 '-x+2/3, -y+1/3, -z+1/3'
10 '-x+y+2/3, -x+1/3, z+1/3'
11 '-y+2/3, x-y+1/3, z+1/3'
12 'x+2/3, y+1/3, z+1/3'
13 'x-y+1/3, x+2/3, -z+2/3'
14 'y+1/3, -x+y+2/3, -z+2/3'
15 '-x+1/3, -y+2/3, -z+2/3'
16 '-x+y+1/3, -x+2/3, z+2/3'
17 '-y+1/3, x-y+2/3, z+2/3'
18 'x+1/3, y+2/3, z+2/3'
loop_
_atom_type_symbol
_atom_type_oxidation_number
Li1+ 1
Be2+ 2
F1- -1
loop_
_atom_site_label
_atom_site_type_symbol
_atom_site_symmetry_multiplicity
_atom_site_Wyckoff_symbol
_atom_site_fract_x
_atom_site_fract_y
_atom_site_fract_z
_atom_site_B_iso_or_equiv
_atom_site_occupancy
Li1 Li1+ 18 f -.02153(8) -.21540(8) 0.58160(11) . 1.
Li2 Li1+ 18 f -.01634(8) -.20734(8) -.0849(1) . 1.
Be1 Be2+ 18 f -.01546(5) -.21169(5) 0.24927(7) . 1.
F1 F1- 18 f 0.11055(3) -.10576(3) 0.25193(3) . 1.
F2 F1- 18 f -.00590(3) -.32318(2) 0.24859(4) . 1.
F3 F1- 18 f -.07496(3) -.20347(3) 0.10408(3) . 1.
F4 F1- 18 f -.08185(3) -.20918(3) 0.39227(3) . 1.
#End of TTdata_14360-ICSD