
#(C) 2020 by FIZ Karlsruhe - Leibniz Institute for Information Infrastructure.  All rights reserved.
data_15111-ICSD
_database_code_ICSD 15111
_audit_creation_date 1980-01-01
_audit_update_record 1988-01-18
_chemical_name_common 'Lithium europium oxide (1/3/4)'
_chemical_formula_structural 'Li Eu3 O4'
_chemical_formula_sum 'Eu3 Li1 O4'
_exptl_crystal_density_diffrn 7.54
_citation_title 'Die Kristallstruktur von Li Eu3 O4'
loop_
_citation_id
_citation_journal_full
_citation_year
_citation_journal_volume
_citation_page_first
_citation_page_last
_citation_journal_id_ASTM
primary 'Zeitschrift fuer Anorganische und Allgemeine Chemie (1950) (DE)' 1970
374 201 224 ZAACAB
loop_
_citation_author_citation_id
_citation_author_name
primary 'Baernighausen, H.'
_cell_length_a 11.565(2)
_cell_length_b 11.535(2)
_cell_length_c 3.480(1)
_cell_angle_alpha 90.
_cell_angle_beta 90.
_cell_angle_gamma 90.
_cell_volume 464.24
_cell_formula_units_Z 4
_space_group_name_H-M_alt 'P b n m'
_space_group_IT_number 62
loop_
_space_group_symop_id
_space_group_symop_operation_xyz
1 '-x+1/2, y+1/2, z'
2 'x, y, -z+1/2'
3 'x+1/2, -y+1/2, z+1/2'
4 '-x, -y, -z'
5 'x+1/2, -y+1/2, -z'
6 '-x, -y, z+1/2'
7 '-x+1/2, y+1/2, -z+1/2'
8 'x, y, z'
loop_
_atom_type_symbol
_atom_type_oxidation_number
Eu3+ 3
Eu2+ 2
Li1+ 1
O2- -2
loop_
_atom_site_label
_atom_site_type_symbol
_atom_site_symmetry_multiplicity
_atom_site_Wyckoff_symbol
_atom_site_fract_x
_atom_site_fract_y
_atom_site_fract_z
_atom_site_B_iso_or_equiv
_atom_site_occupancy
Eu1 Eu3+ 4 c 0.20426(4) 0.35862(4) 0.25 . 1.
Eu2 Eu2+ 4 c 0.61529(5) 0.40230(4) 0.25 . 1.
Eu3 Eu2+ 4 c 0.42543(4) 0.13562(4) 0.25 . 1.
Li1 Li1+ 4 c 0.9108(19) 0.1555(19) 0.25 0.55 1.
O1 O2- 4 c 0.0450(6) 0.2441(6) 0.25 0.31 1.
O2 O2- 4 c 0.3894(7) 0.4369(6) 0.25 0.39 1.
O3 O2- 4 c 0.6297(8) 0.0263(8) 0.25 0.89 1.
O4 O2- 4 c 0.7808(7) 0.2575(7) 0.25 0.51 1.
#End of TTdata_15111-ICSD