
#(C) 2020 by FIZ Karlsruhe - Leibniz Institute for Information Infrastructure.  All rights reserved.
data_16229-ICSD
_database_code_ICSD 16229
_audit_creation_date 1980-01-01
_chemical_name_common 'Pentalithium aluminium oxide - beta'
_chemical_formula_structural 'Li5 Al O4'
_chemical_formula_sum 'Al1 Li5 O4'
_chemical_name_structure_type Li5AlO4
_exptl_crystal_density_diffrn 2.23
_citation_title 'Zur Kristallstruktur von beta-Li5 Al O4'
loop_
_citation_id
_citation_journal_full
_citation_year
_citation_journal_volume
_citation_page_first
_citation_page_last
_citation_journal_id_ASTM
primary 'Zeitschrift fuer Anorganische und Allgemeine Chemie (1950) (DE)' 1971
381 149 160 ZAACAB
loop_
_citation_author_citation_id
_citation_author_name
primary 'Stewner, F.'
primary 'Hoppe, R.'
_cell_length_a 6.424(3)
_cell_length_b 6.305(3)
_cell_length_c 4.623(2)
_cell_angle_alpha 90.
_cell_angle_beta 90.
_cell_angle_gamma 90.
_cell_volume 187.25
_cell_formula_units_Z 2
_space_group_name_H-M_alt 'P m m n Z'
_space_group_IT_number 59
loop_
_space_group_symop_id
_space_group_symop_operation_xyz
1 'x+1/2, y+1/2, -z'
2 '-x, y+1/2, -z'
3 'x+1/2, -y, -z'
4 '-x, -y, -z'
5 '-x+1/2, -y+1/2, z'
6 'x, -y+1/2, z'
7 '-x+1/2, y, z'
8 'x, y, z'
loop_
_atom_type_symbol
_atom_type_oxidation_number
Al3+ 3
O2- -2
Li1+ 1
loop_
_atom_site_label
_atom_site_type_symbol
_atom_site_symmetry_multiplicity
_atom_site_Wyckoff_symbol
_atom_site_fract_x
_atom_site_fract_y
_atom_site_fract_z
_atom_site_B_iso_or_equiv
_atom_site_occupancy
Al1 Al3+ 2 a 0.25 0.25 0.230(2) -.25 1.
O1 O2- 4 e 0.25 0.0165(2) 0 0.7 1.
O2 O2- 4 f 0.0177(2) 0.25 0.416(2) 0.7 1.
Li1 Li1+ 8 g 0.065(2) 0.026(2) 0.764(7) 2. 1.
Li2 Li1+ 2 b 0.25 0.75 0.757(10) 1. 1.
#End of TTdata_16229-ICSD