
#(C) 2020 by FIZ Karlsruhe - Leibniz Institute for Information Infrastructure.  All rights reserved.
data_1726-ICSD
_database_code_ICSD 1726
_audit_creation_date 1980-01-01
_audit_update_record 2018-08-01
_chemical_name_common 'Trilithium hexafluorothorate'
_chemical_formula_structural 'Li3 (Th F7)'
_chemical_formula_sum 'F7 Li3 Th1'
_exptl_crystal_density_diffrn 5.14
_citation_title 'The crystal structure of Li3 Th F7'
loop_
_citation_id
_citation_journal_full
_citation_year
_citation_journal_volume
_citation_page_first
_citation_page_last
_citation_journal_id_ASTM
primary

;
Acta Crystallographica, Section B: Structural Crystallography and Crystal
Chemistry
; 1978 34 1776 1778 ACBCAR
loop_
_citation_author_citation_id
_citation_author_name
primary 'Cousson, A.'
primary 'Pages, M.'
primary 'Chevalier, R.'
_cell_length_a 6.206(2)
_cell_length_b 6.206(2)
_cell_length_c 12.940(5)
_cell_angle_alpha 90.
_cell_angle_beta 90.
_cell_angle_gamma 90.
_cell_volume 498.38
_cell_formula_units_Z 4
_space_group_name_H-M_alt 'P 4/n c c Z'
_space_group_IT_number 130
loop_
_space_group_symop_id
_space_group_symop_operation_xyz
1 'y+1/2, x+1/2, -z+1/2'
2 '-y, x+1/2, -z'
3 'y+1/2, -x, -z'
4 '-y, -x, -z+1/2'
5 'x+1/2, y+1/2, -z'
6 '-x, y+1/2, -z+1/2'
7 'x+1/2, -y, -z+1/2'
8 '-x, -y, -z'
9 '-y+1/2, -x+1/2, z+1/2'
10 'y, -x+1/2, z'
11 '-y+1/2, x, z'
12 'y, x, z+1/2'
13 '-x+1/2, -y+1/2, z'
14 'x, -y+1/2, z+1/2'
15 '-x+1/2, y, z+1/2'
16 'x, y, z'
loop_
_atom_type_symbol
_atom_type_oxidation_number
Th4+ 4
Li1+ 1
F1- -1
loop_
_atom_site_label
_atom_site_type_symbol
_atom_site_symmetry_multiplicity
_atom_site_Wyckoff_symbol
_atom_site_fract_x
_atom_site_fract_y
_atom_site_fract_z
_atom_site_B_iso_or_equiv
_atom_site_occupancy
Th1 Th4+ 4 c 0.25 0.25 0.1890(1) . 1.
Li1 Li1+ 4 b 0.25 0.75 0 7.2 1.
Li2 Li1+ 8 f 0.634(15) -0.634(15) 0.75 9.8 1.
F1 F1- 4 c 0.25 0.25 0.3732(16) . 1.
F2 F1- 16 g 0.1610(14) -.0366(15) 0.0775(7) . 1.
F3 F1- 8 f 0.0623(18) -.0623(18) 0.75 . 1.
#End of TTdata_1726-ICSD