
#(C) 2020 by FIZ Karlsruhe - Leibniz Institute for Information Infrastructure.  All rights reserved.
data_19002-ICSD
_database_code_ICSD 19002
_audit_creation_date 1980-01-01
_chemical_name_common 'Lithium vanadate'
_chemical_formula_structural 'Li3 V O4'
_chemical_formula_sum 'Li3 O4 V1'
_chemical_name_structure_type Enargite#Cu3AsS4
_exptl_crystal_density_diffrn 2.65
_citation_title

;
Refinement of the crystal structure of low temperature Li3 V O3 and analysis
of mean bond lengths in phosphates, arsenates, and vanadates
;
loop_
_citation_id
_citation_journal_full
_citation_year
_citation_journal_volume
_citation_page_first
_citation_page_last
_citation_journal_id_ASTM
primary 'Journal of Solid State Chemistry' 1973 6 538 549 JSSCBI
loop_
_citation_author_citation_id
_citation_author_name
primary 'Shannon, R.D.'
primary 'Calvo, C.'
_cell_length_a 6.3259(12)
_cell_length_b 5.4460(8)
_cell_length_c 4.9469(9)
_cell_angle_alpha 90.
_cell_angle_beta 90.
_cell_angle_gamma 90.
_cell_volume 170.42
_cell_formula_units_Z 2
_space_group_name_H-M_alt 'P m n 21'
_space_group_IT_number 31
loop_
_space_group_symop_id
_space_group_symop_operation_xyz
1 'x+1/2, -y, z+1/2'
2 '-x+1/2, -y, z+1/2'
3 '-x, y, z'
4 'x, y, z'
loop_
_atom_type_symbol
_atom_type_oxidation_number
Li1+ 1
V5+ 5
O2- -2
loop_
_atom_site_label
_atom_site_type_symbol
_atom_site_symmetry_multiplicity
_atom_site_Wyckoff_symbol
_atom_site_fract_x
_atom_site_fract_y
_atom_site_fract_z
_atom_site_B_iso_or_equiv
_atom_site_occupancy
Li1 Li1+ 4 b 0.2470(5) 0.3315(4) 0.9872(22) . 1.
Li2 Li1+ 2 a 0.5 0.8326(6) 0.9848(30) . 1.
V1 V5+ 2 a 0 0.82961(4) 0 . 1.
O1 O2- 4 b 0.2239(2) 0.6804(2) 0.891(2) . 1.
O2 O2- 2 a 0 0.1296(3) 0.8952(3) . 1.
O3 O2- 2 a 0.5 0.1736 0.8478(3) . 1.
loop_
_atom_site_aniso_label
_atom_site_aniso_type_symbol
_atom_site_aniso_U_11
_atom_site_aniso_U_22
_atom_site_aniso_U_33
_atom_site_aniso_U_12
_atom_site_aniso_U_13
_atom_site_aniso_U_23
Li1 Li1+ 0.0126(8) 0.0147(10) 0.0178(20) -.0006(6) -.0029(24) 0.0005(13)
O1 O2- 0.0081(2) 0.0109(4) 0.0119(3) 0.0013(2) 0.0010(3) -.0006(3)
#End of TTdata_19002-ICSD