
#(C) 2020 by FIZ Karlsruhe - Leibniz Institute for Information Infrastructure.  All rights reserved.
data_1972-ICSD
_database_code_ICSD 1972
_audit_creation_date 1980-01-01
_audit_update_record 2005-10-01
_chemical_name_common 'Dilithium chromate(VI)'
_chemical_formula_structural 'Li2 (Cr O4)'
_chemical_formula_sum 'Cr1 Li2 O4'
_chemical_name_structure_type Phenakite#Be2SiO4
_exptl_crystal_density_diffrn 2.43
_citation_title 'Refinement of the crystal structure of lithium chromate'
loop_
_citation_id
_citation_journal_full
_citation_year
_citation_journal_volume
_citation_page_first
_citation_page_last
_citation_journal_id_ASTM
primary

;
Acta Crystallographica, Section B: Structural Crystallography and Crystal
Chemistry
; 1975 31 2364 2365 ACBCAR
loop_
_citation_author_citation_id
_citation_author_name
primary 'Brown, I.D.'
primary 'Faggiani, R.'
_cell_length_a 14.005(10)
_cell_length_b 14.005(10)
_cell_length_c 9.405(5)
_cell_angle_alpha 90.
_cell_angle_beta 90.
_cell_angle_gamma 120.
_cell_volume 1597.55
_cell_formula_units_Z 18
_space_group_name_H-M_alt 'R -3 H'
_space_group_IT_number 148
loop_
_space_group_symop_id
_space_group_symop_operation_xyz
1 'x-y, x, -z'
2 'y, -x+y, -z'
3 '-x, -y, -z'
4 '-x+y, -x, z'
5 '-y, x-y, z'
6 'x, y, z'
7 'x-y+2/3, x+1/3, -z+1/3'
8 'y+2/3, -x+y+1/3, -z+1/3'
9 '-x+2/3, -y+1/3, -z+1/3'
10 '-x+y+2/3, -x+1/3, z+1/3'
11 '-y+2/3, x-y+1/3, z+1/3'
12 'x+2/3, y+1/3, z+1/3'
13 'x-y+1/3, x+2/3, -z+2/3'
14 'y+1/3, -x+y+2/3, -z+2/3'
15 '-x+1/3, -y+2/3, -z+2/3'
16 '-x+y+1/3, -x+2/3, z+2/3'
17 '-y+1/3, x-y+2/3, z+2/3'
18 'x+1/3, y+2/3, z+2/3'
loop_
_atom_type_symbol
_atom_type_oxidation_number
Cr6+ 6
O2- -2
Li1+ 1
loop_
_atom_site_label
_atom_site_type_symbol
_atom_site_symmetry_multiplicity
_atom_site_Wyckoff_symbol
_atom_site_fract_x
_atom_site_fract_y
_atom_site_fract_z
_atom_site_B_iso_or_equiv
_atom_site_occupancy
Cr1 Cr6+ 18 f 0.4563(1) 0.3164(1) 0.5868(1) . 1.
O1 O2- 18 f 0.5618(3) 0.4462(4) 0.5812(5) . 1.
O2 O2- 18 f 0.3424(4) 0.3276(4) 0.5856(5) . 1.
O3 O2- 18 f 0.4627(4) 0.2576(4) 0.7303(5) . 1.
O4 O2- 18 f 0.4573(4) 0.2511(4) 0.4405(5) . 1.
Li1 Li1+ 18 f 0.4581(12) 0.3149(12) 0.9196(12) . 1.
Li2 Li1+ 18 f 0.4541(11) 0.3135(10) 0.2522(10) . 1.
loop_
_atom_site_aniso_label
_atom_site_aniso_type_symbol
_atom_site_aniso_U_11
_atom_site_aniso_U_22
_atom_site_aniso_U_33
_atom_site_aniso_U_12
_atom_site_aniso_U_13
_atom_site_aniso_U_23
Cr1 Cr6+ 0.0080(6) 0.0058(6) 0.0033(4) 0.0041(5) -0.0005(4) 0.0001(4)
O1 O2- 0.012(2) 0.012(2) 0.013(2) 0.001(2) 0.001(2) 0.003(2)
O2 O2- 0.010(2) 0.013(2) 0.018(2) 0.007(2) 0.001(2) 0.000(2)
O3 O2- 0.022(3) 0.015(2) 0.009(2) 0.012(2) 0.003(2) 0.006(2)
O4 O2- 0.025(3) 0.018(2) 0.008(2) 0.014(2) 0.000(3) -0.002(2)
Li1 Li1+ 0.025(7) 0.018(7) 0.020(6) 0.010(6) 0.002(6) 0.008(5)
Li2 Li1+ 0.017(6) 0.015(6) 0.013(5) 0.002(5) -0.003(5) -0.004(4)
#End of TTdata_1972-ICSD