
#(C) 2020 by FIZ Karlsruhe - Leibniz Institute for Information Infrastructure.  All rights reserved.
data_20191-ICSD
_database_code_ICSD 20191
_audit_creation_date 1980-01-01
_audit_update_record 2012-02-01
_chemical_name_common 'Lithium cadmium borate'
_chemical_formula_structural 'Li Cd (B O3)'
_chemical_formula_sum 'B1 Cd1 Li1 O3'
_chemical_name_structure_type LiCdBO3
_exptl_crystal_density_diffrn 4.55
_citation_title 'The crystal structure of Li Cd B O3'
loop_
_citation_id
_citation_journal_full
_citation_year
_citation_journal_volume
_citation_page_first
_citation_page_last
_citation_journal_id_ASTM
primary 'Doklady Akademii Nauk SSSR' 1978 238 1340 1343 DANKAS
loop_
_citation_author_citation_id
_citation_author_name
primary 'Kazanskaya, E.V.'
primary 'Sandomirskii, P.A.'
primary 'Simonov, M.A.'
primary 'Belov, N.V.'
_cell_length_a 8.309(2)
_cell_length_b 8.309(2)
_cell_length_c 3.259(8)
_cell_angle_alpha 90.
_cell_angle_beta 90.
_cell_angle_gamma 120.
_cell_volume 194.86
_cell_formula_units_Z 3
_space_group_name_H-M_alt 'P -6'
_space_group_IT_number 174
loop_
_space_group_symop_id
_space_group_symop_operation_xyz
1 '-x+y, -x, -z'
2 '-y, x-y, -z'
3 'x, y, -z'
4 '-x+y, -x, z'
5 '-y, x-y, z'
6 'x, y, z'
loop_
_atom_type_symbol
_atom_type_oxidation_number
Cd2+ 2
B3+ 3
O2- -2
Li1+ 1
loop_
_atom_site_label
_atom_site_type_symbol
_atom_site_symmetry_multiplicity
_atom_site_Wyckoff_symbol
_atom_site_fract_x
_atom_site_fract_y
_atom_site_fract_z
_atom_site_B_iso_or_equiv
_atom_site_occupancy
Cd1 Cd2+ 3 j 0.3651(2) 0.3680(2) 0 0.53 1.
B1 B3+ 1 a 0 0 0 0.3 1.
B2 B3+ 1 f 0.6667 0.3333 0.5 0.1 1.
B3 B3+ 1 d 0.3333 0.6667 0.5 0.1 1.
O1 O2- 3 k 0.247(3) 0.475(3) 0.5 0.8 1.
O2 O2- 3 k 0.582(3) 0.438(3) 0.5 0.9 1.
O3 O2- 3 j 0.189(3) 0.060(3) 0 1.2 1.
Li1 Li1+ 3 k 0.004(7) 0.293(6) 0.5 1.5 1.
#End of TTdata_20191-ICSD