
#(C) 2020 by FIZ Karlsruhe - Leibniz Institute for Information Infrastructure.  All rights reserved.
data_20217-ICSD
_database_code_ICSD 20217
_audit_creation_date 1980-01-01
_audit_update_record 2012-02-01
_chemical_name_common 'Trilithium dipraseodymium tris(borate)'
_chemical_formula_structural 'Li3 Pr2 (B O3)3'
_chemical_formula_sum 'B3 Li3 O9 Pr2'
_chemical_name_structure_type Li3Pr2(BO3)3
_exptl_crystal_density_diffrn 4.53
_citation_title
'The crystal structure of lithium praseodymium orthoborate, 3 Li3 Pr2 (B O3)3'
loop_
_citation_id
_citation_journal_full
_citation_year
_citation_journal_volume
_citation_page_first
_citation_page_last
_citation_journal_id_ASTM
primary 'Zhurnal Strukturnoi Khimii' 1977 18 410 413 ZSTKAI
loop_
_citation_author_citation_id
_citation_author_name
primary 'Abdullaev, G.K.'
primary 'Mamedov, Kh.S.'
primary 'Amikaslanov, I.K.'
primary 'Magerramov, A.I.'
_cell_length_a 8.816(4)
_cell_length_b 14.127(8)
_cell_length_c 5.812(3)
_cell_angle_alpha 90.
_cell_angle_beta 103.72(4)
_cell_angle_gamma 90.
_cell_volume 703.19
_cell_formula_units_Z 4
_space_group_name_H-M_alt 'P 1 21/n 1'
_space_group_IT_number 14
loop_
_space_group_symop_id
_space_group_symop_operation_xyz
1 '-x+1/2, y+1/2, -z+1/2'
2 '-x, -y, -z'
3 'x+1/2, -y+1/2, z+1/2'
4 'x, y, z'
loop_
_atom_type_symbol
_atom_type_oxidation_number
Pr3+ 3
O2- -2
B3+ 3
Li1+ 1
loop_
_atom_site_label
_atom_site_type_symbol
_atom_site_symmetry_multiplicity
_atom_site_Wyckoff_symbol
_atom_site_fract_x
_atom_site_fract_y
_atom_site_fract_z
_atom_site_B_iso_or_equiv
_atom_site_occupancy
Pr1 Pr3+ 4 e 0.19121(1) 0.16463(1) 0.13265(2) -.14 1.
Pr2 Pr3+ 4 e 0.33900(1) 0.00262(1) 0.68797(2) -.14 1.
O1 O2- 4 e 0.3693(2) 0.1708(2) 0.8752(1) 0.35 1.
O2 O2- 4 e 0.5904(2) 0.0741(2) 0.9188(1) 0.25 1.
O3 O2- 4 e 0.6257(2) 0.2419(2) 0.9455(1) 0.16 1.
O4 O2- 4 e 0.4331(2) 0.0960(2) 0.3863(1) 0.31 1.
O5 O2- 4 e 0.4428(2) 0.2624(2) 0.3618(1) 0.36 1.
O6 O2- 4 e 0.6779(2) 0.1697(2) 0.4783(1) 0.55 1.
O7 O2- 4 e 0.1056(2) 0.0672(2) 0.7762(1) 0.29 1.
O8 O2- 4 e 0.1447(2) 0.0086(2) 0.2804(1) 0.18 1.
O9 O2- 4 e 0.4181(2) 0.3949(2) 0.7293(1) 0.38 1.
B1 B3+ 4 e 0.5327(3) 0.1642(3) 0.9064(1) -.05 1.
B2 B3+ 4 e 0.5223(3) 0.1755(3) 0.3963(1) -.17 1.
B3 B3+ 4 e 0.4842(3) 0.4826(3) 0.7425(1) -.21 1.
Li1 Li1+ 4 e 0.2695(4) 0.2906(4) 0.7271(2) 1.32 1.
Li2 Li1+ 4 e 0.4749(4) 0.3352(4) 0.0707(2) 1.06 1.
Li3 Li1+ 4 e 0.3012(4) 0.3876(4) 0.3701(2) 1.25 1.
#End of TTdata_20217-ICSD