
#(C) 2020 by FIZ Karlsruhe - Leibniz Institute for Information Infrastructure.  All rights reserved.
data_20434-ICSD
_database_code_ICSD 20434
_audit_creation_date 1982-12-31
_audit_update_record 2012-08-01
_chemical_name_common 'Lithium aluminoborate'
_chemical_formula_structural 'Li6 (Al2 (B O3)4)'
_chemical_formula_sum 'Al2 B4 Li6 O12'
_chemical_name_structure_type Li3AlB2O6
_exptl_crystal_density_diffrn 2.54
_citation_title

;
The refinement of the crystal structure of lithium aluminoborate Li6 (Al2 (B
O3)4)
;
loop_
_citation_id
_citation_journal_full
_citation_year
_citation_journal_volume
_citation_page_first
_citation_page_last
_citation_journal_id_ASTM
primary Kristallografiya 1982 27 381 383 KRISAJ
loop_
_citation_author_citation_id
_citation_author_name
primary 'Abdullaev, G.K.'
primary 'Mamedov, Kh.S.'
_cell_length_a 6.131(2)
_cell_length_b 4.819(1)
_cell_length_c 8.227(3)
_cell_angle_alpha 90.26(5)
_cell_angle_beta 117.03(5)
_cell_angle_gamma 89.87(5)
_cell_volume 216.52
_cell_formula_units_Z 1
_space_group_name_H-M_alt 'P -1'
_space_group_IT_number 2
loop_
_space_group_symop_id
_space_group_symop_operation_xyz
1 '-x, -y, -z'
2 'x, y, z'
loop_
_atom_type_symbol
_atom_type_oxidation_number
Al3+ 3
Li1+ 1
B3+ 3
O2- -2
loop_
_atom_site_label
_atom_site_type_symbol
_atom_site_symmetry_multiplicity
_atom_site_Wyckoff_symbol
_atom_site_fract_x
_atom_site_fract_y
_atom_site_fract_z
_atom_site_B_iso_or_equiv
_atom_site_occupancy
Al1 Al3+ 2 i 0.1794(1) 0.3818(1) 0.2188(1) . 1.
Li1 Li1+ 2 i 0.1368(4) 0.3052(4) 0.5617(4) . 1.
Li2 Li1+ 2 i 0.1306(4) 0.8715(4) 0.7251(4) . 1.
Li3 Li1+ 2 i 0.4822(4) 0.9944(4) 0.6947(4) . 1.
B1 B3+ 2 i 0.2297(3) 0.8321(3) 0.4035(3) . 1.
B2 B3+ 2 i 0.3049(3) 0.3544(3) 0.9547(3) . 1.
O1 O2- 2 i 0.3149(2) 0.1952(2) 0.0908(2) . 1.
O2 O2- 2 i 0.2173(2) 0.1162(2) 0.3951(2) . 1.
O3 O2- 2 i 0.2118(2) 0.6889(2) 0.5441(2) . 1.
O4 O2- 2 i 0.3138(2) 0.2197(2) 0.8079(2) . 1.
O5 O2- 2 i 0.1869(2) 0.6148(2) 0.9108(2) . 1.
O6 O2- 2 i 0.3622(2) 0.6972(2) 0.3277(2) . 1.
#End of TTdata_20434-ICSD