
#(C) 2020 by FIZ Karlsruhe - Leibniz Institute for Information Infrastructure.  All rights reserved.
data_20641-ICSD
_database_code_ICSD 20641
_audit_creation_date 1984-09-13
_audit_update_record 2012-08-01
_chemical_name_common 'Rubidium lithium molybdate'
_chemical_formula_structural 'Rb Li (Mo O4)'
_chemical_formula_sum 'Li1 Mo1 O4 Rb1'
_exptl_crystal_density_diffrn 3.21
_citation_title 'The crystal structure of new ferroelectric Rb Li Mo O4'
loop_
_citation_id
_citation_journal_full
_citation_year
_citation_journal_volume
_citation_page_first
_citation_page_last
_citation_journal_id_ASTM
primary 'Doklady Akademii Nauk SSSR' 1983 271 1388 1391 DANKAS
loop_
_citation_author_citation_id
_citation_author_name
primary 'Kruglik, A.I.'
primary 'Klevtsova, R.F.'
primary 'Aleksandrov, K.S.'
_cell_length_a 10.018(2)
_cell_length_b 11.272(2)
_cell_length_c 5.702(1)
_cell_angle_alpha 90.
_cell_angle_beta 90.
_cell_angle_gamma 125.80(3)
_cell_volume 522.23
_cell_formula_units_Z 4
_space_group_name_H-M_alt 'I 1 1 b'
_space_group_IT_number 9
loop_
_space_group_symop_id
_space_group_symop_operation_xyz
1 'x, y+1/2, -z'
2 'x, y, z'
3 'x+1/2, y, -z+1/2'
4 'x+1/2, y+1/2, z+1/2'
loop_
_atom_type_symbol
_atom_type_oxidation_number
Mo6+ 6
Rb1+ 1
O2- -2
Li1+ 1
loop_
_atom_site_label
_atom_site_type_symbol
_atom_site_symmetry_multiplicity
_atom_site_Wyckoff_symbol
_atom_site_fract_x
_atom_site_fract_y
_atom_site_fract_z
_atom_site_B_iso_or_equiv
_atom_site_occupancy
Mo1 Mo6+ 4 a 0.5 0.25 0.0006(6) . 1.
Rb1 Rb1+ 4 a 0.4969(6) 0.5009(6) 0.5244(2) . 1.
O1 O2- 4 a 0.665(2) 0.235(2) 0.039(3) . 1.
O2 O2- 4 a 0.569(2) 0.430(1) 0.066(2) . 1.
O3 O2- 4 a 0.346(2) 0.125(2) 0.195(2) . 1.
O4 O2- 4 a 0.426(2) 0.203(2) -.291(2) . 1.
Li1 Li1+ 4 a 0.757(5) 0.631(5) -.008(6) . 1.
#End of TTdata_20641-ICSD