
#(C) 2020 by FIZ Karlsruhe - Leibniz Institute for Information Infrastructure.  All rights reserved.
data_20835-ICSD
_database_code_ICSD 20835
_audit_creation_date 1985-03-06
_audit_update_record 2012-08-01
_chemical_name_common 'Lithium cadmium borate - HT'
_chemical_formula_structural 'Li Cd (B O3)'
_chemical_formula_sum 'B1 Cd1 Li1 O3'
_chemical_name_structure_type LiCdBO3
_exptl_crystal_density_diffrn 4.53
_citation_title 'The refined crystal structure of hexagonal Li Cd B O3'
loop_
_citation_id
_citation_journal_full
_citation_year
_citation_journal_volume
_citation_page_first
_citation_page_last
_citation_journal_id_ASTM
primary Kristallografiya 1980 25 1285 1286 KRISAJ
loop_
_citation_author_citation_id
_citation_author_name
primary 'Sokolova, E.V.'
primary 'Simonov, M.A.'
primary 'Belov, N.V.'
_cell_length_a 8.324(2)
_cell_length_b 8.324(2)
_cell_length_c 3.2638
_cell_angle_alpha 90.
_cell_angle_beta 90.
_cell_angle_gamma 120.
_cell_volume 195.85
_cell_formula_units_Z 3
_space_group_name_H-M_alt 'P -6'
_space_group_IT_number 174
loop_
_space_group_symop_id
_space_group_symop_operation_xyz
1 '-x+y, -x, -z'
2 '-y, x-y, -z'
3 'x, y, -z'
4 '-x+y, -x, z'
5 '-y, x-y, z'
6 'x, y, z'
loop_
_atom_type_symbol
_atom_type_oxidation_number
Cd2+ 2
B3+ 3
Li1+ 1
O2- -2
loop_
_atom_site_label
_atom_site_type_symbol
_atom_site_symmetry_multiplicity
_atom_site_Wyckoff_symbol
_atom_site_fract_x
_atom_site_fract_y
_atom_site_fract_z
_atom_site_B_iso_or_equiv
_atom_site_occupancy
Cd1 Cd2+ 3 j 0.3629(1) 0.3695(1) 0 . 1.
B1 B3+ 1 a 0 0 0 . 1.
B2 B3+ 1 f 0.6667 0.3333 0.5 . 1.
B3 B3+ 1 d 0.3333 0.6667 0.5 . 1.
Li1 Li1+ 3 k 0.008(5) 0.289(4) 0.5 . 1.
O1 O2- 3 k 0.248(1) 0.474(1) 0.5 . 1.
O2 O2- 3 k 0.576(1) 0.435(1) 0.5 . 1.
O3 O2- 3 j 0.189(1) 0.063(1) 0 . 1.
loop_
_atom_site_aniso_label
_atom_site_aniso_type_symbol
_atom_site_aniso_B_11
_atom_site_aniso_B_22
_atom_site_aniso_B_33
_atom_site_aniso_B_12
_atom_site_aniso_B_13
_atom_site_aniso_B_23
Cd1 Cd2+ 0.79(4) 0.67(3) 1.01(2) 0.36(3) 0 0
B1 B3+ 0.5(4) 0.5(4) 0.1(5) 0.2(4) 0 0
B2 B3+ 0.7(6) 0.7(6) 1.0(11) 0.3(6) 0 0
B3 B3+ 0.3(4) 0.3(4) 0.1(5) 0.2(4) 0 0
Li1 Li1+ 1.5(10) 0.5(9) 1.4(12) 0.3(9) 0 0
O1 O2- 0.6(3) 0.4(3) 1.1(3) 0.3(2) 0 0
O2 O2- 0.6(3) 0.8(3) 1.0(3) 0.3(2) 0 0
O3 O2- 0.6(3) 0.7(3) 0.8(3) 0.2(2) 0 0
#End of TTdata_20835-ICSD