
#(C) 2020 by FIZ Karlsruhe - Leibniz Institute for Information Infrastructure.  All rights reserved.
data_20851-ICSD
_database_code_ICSD 20851
_audit_creation_date 1985-03-06
_audit_update_record 2012-02-01
_chemical_name_common 'Potassium lithium sulfate(VI) - alpha'
_chemical_formula_structural 'K Li (S O4)'
_chemical_formula_sum 'K1 Li1 O4 S1'
_chemical_name_structure_type KLiSO4
_exptl_crystal_density_diffrn 2.39
_citation_title 'The crystal structure of the a phase of K Li S O4'
loop_
_citation_id
_citation_journal_full
_citation_year
_citation_journal_volume
_citation_page_first
_citation_page_last
_citation_journal_id_ASTM
primary Kristallografiya 1983 28 67 71 KRISAJ
loop_
_citation_author_citation_id
_citation_author_name
primary 'Sandomirskii, P.A.'
primary 'Meshalkin, S.S.'
primary 'Rozhdestvenskaya, I.V.'
_cell_length_a 5.142(1)
_cell_length_b 5.142(1)
_cell_length_c 8.632(1)
_cell_angle_alpha 90.
_cell_angle_beta 90.
_cell_angle_gamma 120.
_cell_volume 197.65
_cell_formula_units_Z 2
_space_group_name_H-M_alt 'P 63'
_space_group_IT_number 173
loop_
_space_group_symop_id
_space_group_symop_operation_xyz
1 'x-y, x, z+1/2'
2 'y, -x+y, z+1/2'
3 '-x, -y, z+1/2'
4 '-x+y, -x, z'
5 '-y, x-y, z'
6 'x, y, z'
loop_
_atom_type_symbol
_atom_type_oxidation_number
K1+ 1
Li1+ 1
S6+ 6
O2- -2
loop_
_atom_site_label
_atom_site_type_symbol
_atom_site_symmetry_multiplicity
_atom_site_Wyckoff_symbol
_atom_site_fract_x
_atom_site_fract_y
_atom_site_fract_z
_atom_site_B_iso_or_equiv
_atom_site_occupancy
K1 K1+ 2 a 0 0 0 . 1.
Li1 Li1+ 2 b 0.3333 0.6667 0.8211(2) . 1.
S1 S6+ 2 b 0.3333 0.6667 0.2051(2) . 1.
O1 O2- 2 b 0.3333 0.6667 0.0387(8) . 1.
O2 O2- 6 c 0.0591(6) 0.6561(6) 0.2601(6) . 1.
loop_
_atom_site_aniso_label
_atom_site_aniso_type_symbol
_atom_site_aniso_B_11
_atom_site_aniso_B_22
_atom_site_aniso_B_33
_atom_site_aniso_B_12
_atom_site_aniso_B_13
_atom_site_aniso_B_23
K1 K1+ 1.61(2) 1.61(2) 1.70(3) 0.8 0 0
Li1 Li1+ 1.52(3) 1.52 1.89(4) 0.76 0 0
S1 S6+ 0.84(2) 0.84 1.02(2) 0.42 0 0
O1 O2- 4.62(3) 4.62 1.2(1) 2.31 0 0
O2 O2- 1.02(7) 1.66(8) 4.1(1) 0.50(6) 0.9(1) -.3(1)
#End of TTdata_20851-ICSD