
#(C) 2020 by FIZ Karlsruhe - Leibniz Institute for Information Infrastructure.  All rights reserved.
data_2121-ICSD
_database_code_ICSD 2121
_audit_creation_date 1980-01-01
_audit_update_record 2012-02-01
_chemical_name_common 'Hexalithium holmium tris(borate)'
_chemical_formula_structural 'Li6 Ho (B O3)3'
_chemical_formula_sum 'B3 Ho1 Li6 O9'
_chemical_name_structure_type Li6HoB3O9
_exptl_crystal_density_diffrn 3.36
_citation_title

;
Synthesis and structural study of lithium and holmium double orthoborate
crystals
;
loop_
_citation_id
_citation_journal_full
_citation_year
_citation_journal_volume
_citation_page_first
_citation_page_last
_citation_journal_id_ASTM
primary 'Zhurnal Neorganicheskoi Khimii' 1977 22 3239 3242 ZNOKAQ
loop_
_citation_author_citation_id
_citation_author_name
primary 'Abdullaev, G.K.'
primary 'Mamedov, Kh.S.'
primary 'Rza-Zade, P.F.'
primary 'Guseinova, S.A.'
primary 'Dzhafarov, G.G.'
_cell_length_a 7.17(3)
_cell_length_b 6.64(2)
_cell_length_c 16.46(7)
_cell_angle_alpha 90.
_cell_angle_beta 90.
_cell_angle_gamma 105.0(5)
_cell_volume 756.94
_cell_formula_units_Z 4
_space_group_name_H-M_alt 'P 1 1 21/b'
_space_group_IT_number 14
loop_
_space_group_symop_id
_space_group_symop_operation_xyz
1 'x, y+1/2, -z+1/2'
2 '-x, -y, -z'
3 '-x, -y+1/2, z+1/2'
4 'x, y, z'
loop_
_atom_type_symbol
_atom_type_oxidation_number
Ho3+ 3
O2- -2
B3+ 3
Li1+ 1
loop_
_atom_site_label
_atom_site_type_symbol
_atom_site_symmetry_multiplicity
_atom_site_Wyckoff_symbol
_atom_site_fract_x
_atom_site_fract_y
_atom_site_fract_z
_atom_site_B_iso_or_equiv
_atom_site_occupancy
Ho1 Ho3+ 4 e 0.0826(1) 0.1482(1) 0.1887(1) 0.03(5) 1.
O1 O2- 4 e 0.278(2) 0.232(2) 0.068(1) 0.48(5) 1.
O2 O2- 4 e 0.423(2) 0.287(2) 0.199(1) 1.05(5) 1.
O3 O2- 4 e 0.603(2) 0.421(2) 0.078(1) 0.90(5) 1.
O4 O2- 4 e 0.147(2) 0.332(2) 0.316(1) 0.99(5) 1.
O5 O2- 4 e 0.014(2) 0.469(2) 0.171(1) 1.60(5) 1.
O6 O2- 4 e 0.089(2) 0.179(2) 0.446(1) 1.49(5) 1.
O7 O2- 4 e 0.465(2) 0.580(2) 0.589(1) 1.91(5) 1.
O8 O2- 4 e 0.265(2) 0.440(2) 0.702(1) 1.10(5) 1.
O9 O2- 4 e 0.124(2) 0.456(2) 0.574(1) 1.85(5) 1.
B1 B3+ 4 e 0.439(3) 0.298(3) 0.117(2) 0.92(5) 1.
B2 B3+ 4 e 0.088(3) 0.158(3) 0.364(2) 0.52(5) 1.
B3 B3+ 4 e 0.286(3) 0.513(3) 0.622(2) 0.71(5) 1.
Li1 Li1+ 4 e 0.075(4) 0.681(4) 0.503(3) 1.61(5) 1.
Li2 Li1+ 4 e 0.306(4) 0.449(4) 0.468(3) 2.83(5) 1.
Li3 Li1+ 4 e 0.714(4) 0.862(4) 0.291(3) 1.42(5) 1.
Li4 Li1+ 4 e 0.138(4) 0.112(4) 0.554(3) 2.68(5) 1.
Li5 Li1+ 4 e 0.404(4) 0.466(4) 0.295(3) 2.26(5) 1.
Li6 Li1+ 4 e 0.537(4) 0.164(4) 0.466(3) 1.84(5) 1.
#End of TTdata_2121-ICSD