
#(C) 2020 by FIZ Karlsruhe - Leibniz Institute for Information Infrastructure.  All rights reserved.
data_21418-ICSD
_database_code_ICSD 21418
_audit_creation_date 2019-08-01
_chemical_name_common 'Tetralithium orthosilicate'
_chemical_formula_structural 'Li4 Si O4'
_chemical_formula_sum 'Li4 O4 Si1'
_exptl_crystal_density_diffrn 2.4
_diffrn_ambient_temperature 298.
_citation_title

;
Evaluation of the formation and carbon dioxide capture by Li4SiO4 using in
situ synchrotron powder X-ray diffraction studies
;
loop_
_citation_id
_citation_journal_full
_citation_year
_citation_journal_volume
_citation_page_first
_citation_page_last
_citation_journal_id_ASTM
primary 'Physical Chemistry Chemical Physics' 2018 20 26570 26579 PPCPFQ
loop_
_citation_author_citation_id
_citation_author_name
primary 'Grasso, M.L.'
primary 'Blanco, M.V.'
primary 'Cova, F.'
primary 'Gonzalez, J.A.'
primary 'Arneodo Larochette, P.'
primary 'Gennari, F.C.'
_cell_length_a 11.5518(4)
_cell_length_b 6.0963(2)
_cell_length_c 16.7209(8)
_cell_angle_alpha 90.
_cell_angle_beta 99.075(4)
_cell_angle_gamma 90.
_cell_volume 1162.8
_cell_formula_units_Z 14
_space_group_name_H-M_alt 'P 1 21/m 1'
_space_group_IT_number 11
loop_
_space_group_symop_id
_space_group_symop_operation_xyz
1 'x, -y+1/2, z'
2 '-x, -y, -z'
3 '-x, y+1/2, -z'
4 'x, y, z'
loop_
_atom_type_symbol
_atom_type_oxidation_number
Si4+ 4
O2- -2
Li1+ 1
loop_
_atom_site_label
_atom_site_type_symbol
_atom_site_symmetry_multiplicity
_atom_site_Wyckoff_symbol
_atom_site_fract_x
_atom_site_fract_y
_atom_site_fract_z
_atom_site_U_iso_or_equiv
_atom_site_occupancy
Si1 Si4+ 2 e 0.1584 0.25 0.9944 0.01039 1.
Si2 Si4+ 2 e 0.746 0.25 0.8614 0.00937 1.
Si3 Si4+ 2 e 0.0228 0.25 0.2848 0.00469 1.
Si4 Si4+ 2 e 0.2997 0.25 0.7076 0.00418 1.
Si5 Si4+ 2 e 0.4594 0.25 0.4227 0.01051 1.
Si6 Si4+ 2 e 0.6059 0.25 0.1433 0.0038 1.
Si7 Si4+ 2 e 0.8855 0.25 0.572 0.00608 1.
O1 O2- 4 f 0.144 0.0265 0.9421 0.00671 1.
O2 O2- 4 f 0.286 0.5342 0.1956 0.01836 1.
O3 O2- 4 f 0.0006 0.0305 0.2285 0.01583 1.
O4 O2- 4 f 0.2815 0.0283 0.6516 0.00887 1.
O5 O2- 4 f 0.4332 0.0316 0.3656 0.01722 1.
O6 O2- 4 f 0.5731 0.033 0.0825 0.00481 1.
O7 O2- 4 f 0.153 0.5283 0.4811 0.00469 1.
O8 O2- 2 e 0.3002 0.25 0.0362 0.01165 1.
O9 O2- 2 e 0.8814 0.25 0.9023 0.0076 1.
O10 O2- 2 e 0.1648 0.25 0.3256 0.0057 1.
O11 O2- 2 e 0.4374 0.25 0.7553 0.01178 1.
O12 O2- 2 e 0.5918 0.25 0.4722 0.00899 1.
O13 O2- 2 e 0.7389 0.25 0.1857 0.01203 1.
O14 O2- 2 e 0.0255 0.25 0.6015 0.01102 1.
O15 O2- 2 e 0.0806 0.25 0.0659 0.00114 1.
O16 O2- 2 e 0.6564 0.25 0.9318 0.01115 1.
O17 O2- 2 e 0.9474 0.25 0.3614 0.01773 1.
O18 O2- 2 e 0.2158 0.25 0.7772 0.0152 1.
O19 O2- 2 e 0.3692 0.25 0.4886 0.01051 1.
O20 O2- 2 e 0.5082 0.25 0.2043 0.00925 1.
O21 O2- 2 e 0.8033 0.25 0.6439 0.00621 1.
Li1 Li1+ 4 f 0.1177 0.0072 0.5932 0.01115 1.
Li2 Li1+ 4 f 0.3123 0.5006 0.5448 0.01368 1.
Li3 Li1+ 4 f 0.8395 0.0112 0.173 0.01305 1.
Li4 Li1+ 4 f 0.0255 0.0019 0.1173 0.01596 1.
Li5 Li1+ 2 e 0.2278 0.25 0.1442 0.02862 1.
Li6 Li1+ 2 e 0.0824 0.25 0.4509 0.03268 1.
Li7 Li1+ 2 e 0.3679 0.25 0.8536 0.00253 1.
Li8 Li1+ 2 e 0.5305 0.25 0.5729 0.04243 1.
Li9 Li1+ 2 e 0.051 0.25 0.722 0.01545 1.
Li10 Li1+ 2 e 0.7728 0.25 0.3023 0.0114 1.
Li11 Li1+ 2 e 0.906 0.25 0.0206 0.01431 1.
Li12 Li1+ 4 f 0.6962 0.0369 0.0192 0.00418 1.
Li13 Li1+ 4 f 0.1691 0.5319 0.2721 0.01811 1.
Li14 Li1+ 4 f 0.5485 0.0298 0.2892 0.02128 1.
Li15 Li1+ 4 f 0.421 0.0278 0.1337 0.06067 1.
Li16 Li1+ 4 f 0.2627 0.0379 0.4023 0.02191 1.
Li17 Li1+ 2 e 0.3593 0.25 0.264 0.02926 1.
Li18 Li1+ 2 e 0.4918 0.25 0.9924 0.02913 1.
Li19 Li1+ 2 e 0.6299 0.25 0.7044 0.05071 1.
#End of TTdata_21418-ICSD