
#(C) 2020 by FIZ Karlsruhe - Leibniz Institute for Information Infrastructure.  All rights reserved.
data_21519-ICSD
_database_code_ICSD 21519
_audit_creation_date 2019-08-01
_chemical_name_common 'Lithium rubidium polyphosphate'
_chemical_formula_structural 'Li Rb (P O3)2'
_chemical_formula_sum 'Li1 O6 P2 Rb1'
_exptl_crystal_density_diffrn 2.9
_diffrn_ambient_temperature 296.
_citation_title

;
Two noncentrosymmetric polyphosphates featuring infinite one-dimensional
(PO3)inf chain, LiMP2O6 (M = Rb, Cs): Synthesis, structure and optical
properties
;
loop_
_citation_id
_citation_journal_full
_citation_year
_citation_journal_volume
_citation_page_first
_citation_page_last
_citation_journal_id_ASTM
primary 'Journal of Solid State Chemistry' 2018 266 150 154 JSSCBI
loop_
_citation_author_citation_id
_citation_author_name
primary 'Baiheti, Tuohetijiang'
primary 'Li, Hao'
primary 'Yang, Zhihua'
primary 'Han, Shujuan'
primary 'Wang, Ying'
primary 'Pan, Shilie'
_cell_length_a 18.517(4)
_cell_length_b 19.037(4)
_cell_length_c 13.011(3)
_cell_angle_alpha 90.
_cell_angle_beta 90.
_cell_angle_gamma 90.
_cell_volume 4586.48
_cell_formula_units_Z 32
_space_group_name_H-M_alt 'F d d 2'
_space_group_IT_number 43
loop_
_space_group_symop_id
_space_group_symop_operation_xyz
1 'x+1/4, -y+1/4, z+1/4'
2 '-x+1/4, y+1/4, z+1/4'
3 '-x, -y, z'
4 'x, y, z'
5 'x+1/4, -y+3/4, z+3/4'
6 '-x+1/4, y+3/4, z+3/4'
7 '-x, -y+1/2, z+1/2'
8 'x, y+1/2, z+1/2'
9 'x+3/4, -y+1/4, z+3/4'
10 '-x+3/4, y+1/4, z+3/4'
11 '-x+1/2, -y, z+1/2'
12 'x+1/2, y, z+1/2'
13 'x+3/4, -y+3/4, z+1/4'
14 '-x+3/4, y+3/4, z+1/4'
15 '-x+1/2, -y+1/2, z'
16 'x+1/2, y+1/2, z'
loop_
_atom_type_symbol
_atom_type_oxidation_number
Li1+ 1
Rb1+ 1
P5+ 5
O2- -2
loop_
_atom_site_label
_atom_site_type_symbol
_atom_site_symmetry_multiplicity
_atom_site_Wyckoff_symbol
_atom_site_fract_x
_atom_site_fract_y
_atom_site_fract_z
_atom_site_U_iso_or_equiv
_atom_site_occupancy
Li1 Li1+ 16 b 0.4789(6) 0.5910(6) 0.3926(9) 0.021(3) 1
Li2 Li1+ 16 b 0.3528(7) 0.7620(6) 0.6214(10) 0.022(3) 1
Rb1 Rb1+ 16 b 0.25251(4) 0.87847(3) 0.41811(6) 0.02930(18) 1
Rb2 Rb1+ 16 b 0.12797(4) 0.98172(4) 0.15481(6) 0.0348(2) 1
P1 P5+ 16 b 0.23749(10) 0.90528(9) -0.07161(14) 0.0178(4) 1
P2 P5+ 16 b 0.41824(9) 0.74731(9) 0.41893(15) 0.0164(3) 1
P3 P5+ 16 b 0.22924(10) 0.86364(9) 0.70895(14) 0.0183(4) 1
P4 P5+ 16 b 0.11958(9) 1.02709(9) 0.45352(13) 0.0146(4) 1
O1 O2- 16 b 0.3511(3) 0.7684(2) 0.4704(4) 0.0241(12) 1
O2 O2- 16 b 0.2274(3) 0.8567(3) 0.0144(4) 0.0363(13) 1
O3 O2- 16 b 0.2189(3) 0.8589(2) -0.1696(3) 0.0281(13) 1
O4 O2- 16 b 0.1992(2) 0.9724(2) -0.0751(4) 0.0290(12) 1
O5 O2- 16 b 0.1783(2) 1.0814(2) 0.4087(4) 0.0270(11) 1
O6 O2- 16 b 0.1086(3) 0.9711(2) 0.3763(4) 0.0242(11) 1
O7 O2- 16 b 0.1607(3) 0.9906(2) 0.5476(3) 0.0219(11) 1
O8 O2- 16 b 0.0578(2) 1.0688(2) 0.4890(3) 0.0250(11) 1
O9 O2- 16 b 0.2315(2) 0.9462(2) 0.6873(3) 0.0205(11) 1
O10 O2- 16 b 0.1649(3) 0.8315(2) 0.6623(4) 0.0394(14) 1
O11 O2- 16 b 0.3021(3) 0.8377(3) 0.6828(5) 0.0492(16) 1
O12 O2- 16 b 0.4517(3) 0.6790(2) 0.4418(4) 0.0328(13) 1
loop_
_atom_site_aniso_label
_atom_site_aniso_type_symbol
_atom_site_aniso_U_11
_atom_site_aniso_U_22
_atom_site_aniso_U_33
_atom_site_aniso_U_12
_atom_site_aniso_U_13
_atom_site_aniso_U_23
Li1 Li1+ 0.022(3) 0.021(3) 0.018(4) 0.001(3) 0.006(3) 0.003(3)
Li2 Li1+ 0.032(8) 0.019(6) 0.015(6) -0.002(5) 0.002(5) 0.004(5)
Rb1 Rb1+ 0.0343(4) 0.0243(4) 0.0294(4) 0.0037(3) -0.0084(3) -0.0045(4)
Rb2 Rb1+ 0.0319(4) 0.0386(5) 0.0338(5) -0.0090(3) -0.0007(4) 0.0037(4)
P1 P5+ 0.0231(10) 0.0165(8) 0.0137(9) -0.0032(7) -0.0043(8) 0.0005(7)
P2 P5+ 0.0225(8) 0.0132(7) 0.0135(8) 0.0021(7) -0.0016(9) -0.0009(7)
P3 P5+ 0.0220(9) 0.0190(9) 0.0141(9) 0.0043(7) -0.0018(7) -0.0050(7)
P4 P5+ 0.0152(9) 0.0146(8) 0.0140(9) 0.0002(7) -0.0013(7) -0.0007(7)
O1 O2- 0.030(3) 0.028(3) 0.015(3) 0.006(2) 0.006(2) 0.004(2)
O2 O2- 0.040(3) 0.049(3) 0.020(3) -0.019(3) -0.006(2) 0.012(2)
O3 O2- 0.051(4) 0.020(3) 0.014(2) -0.011(2) 0.000(2) 0.001(2)
O4 O2- 0.023(3) 0.023(2) 0.041(3) 0.004(2) -0.012(2) -0.008(3)
O5 O2- 0.019(3) 0.023(3) 0.039(3) -0.0053(18) -0.009(2) 0.012(3)
O6 O2- 0.030(3) 0.022(3) 0.020(3) -0.002(2) -0.004(2) -0.003(2)
O7 O2- 0.028(3) 0.025(3) 0.013(2) 0.007(2) 0.001(2) 0.004(2)
O8 O2- 0.021(3) 0.035(3) 0.019(3) 0.012(2) -0.001(2) -0.001(2)
O9 O2- 0.022(3) 0.022(2) 0.018(3) -0.0025(19) -0.0011(19) 0.0054(19)
O10 O2- 0.051(4) 0.025(3) 0.043(3) -0.001(2) -0.027(3) -0.006(3)
O11 O2- 0.035(3) 0.042(3) 0.071(5) 0.015(3) 0.015(3) -0.015(3)
O12 O2- 0.048(4) 0.022(3) 0.028(3) 0.012(2) 0.000(2) 0.004(2)
#End of TTdata_21519-ICSD