
#(C) 2020 by FIZ Karlsruhe - Leibniz Institute for Information Infrastructure.  All rights reserved.
data_21518-ICSD
_database_code_ICSD 21518
_audit_creation_date 2019-08-01
_chemical_name_common 'Lithium cesium polyphosphate'
_chemical_formula_structural 'Li Cs (P O3)2'
_chemical_formula_sum 'Cs1 Li1 O6 P2'
_exptl_crystal_density_diffrn 3.26
_diffrn_ambient_temperature 296.
_citation_title

;
Two noncentrosymmetric polyphosphates featuring infinite one-dimensional
(PO3)inf chain, LiMP2O6 (M = Rb, Cs): Synthesis, structure and optical
properties
;
loop_
_citation_id
_citation_journal_full
_citation_year
_citation_journal_volume
_citation_page_first
_citation_page_last
_citation_journal_id_ASTM
primary 'Journal of Solid State Chemistry' 2018 266 150 154 JSSCBI
loop_
_citation_author_citation_id
_citation_author_name
primary 'Baiheti, Tuohetijiang'
primary 'Li, Hao'
primary 'Yang, Zhihua'
primary 'Han, Shujuan'
primary 'Wang, Ying'
primary 'Pan, Shilie'
_cell_length_a 19.009(13)
_cell_length_b 19.402(13)
_cell_length_c 13.180(9)
_cell_angle_alpha 90.
_cell_angle_beta 90.
_cell_angle_gamma 90.
_cell_volume 4860.95
_cell_formula_units_Z 32
_space_group_name_H-M_alt 'F d d 2'
_space_group_IT_number 43
loop_
_space_group_symop_id
_space_group_symop_operation_xyz
1 'x+1/4, -y+1/4, z+1/4'
2 '-x+1/4, y+1/4, z+1/4'
3 '-x, -y, z'
4 'x, y, z'
5 'x+1/4, -y+3/4, z+3/4'
6 '-x+1/4, y+3/4, z+3/4'
7 '-x, -y+1/2, z+1/2'
8 'x, y+1/2, z+1/2'
9 'x+3/4, -y+1/4, z+3/4'
10 '-x+3/4, y+1/4, z+3/4'
11 '-x+1/2, -y, z+1/2'
12 'x+1/2, y, z+1/2'
13 'x+3/4, -y+3/4, z+1/4'
14 '-x+3/4, y+3/4, z+1/4'
15 '-x+1/2, -y+1/2, z'
16 'x+1/2, y+1/2, z'
loop_
_atom_type_symbol
_atom_type_oxidation_number
Cs1+ 1
Li1+ 1
P5+ 5
O2- -2
loop_
_atom_site_label
_atom_site_type_symbol
_atom_site_symmetry_multiplicity
_atom_site_Wyckoff_symbol
_atom_site_fract_x
_atom_site_fract_y
_atom_site_fract_z
_atom_site_U_iso_or_equiv
_atom_site_occupancy
Cs1 Cs1+ 16 b 0.49870(6) 0.37204(5) 0.52117(8) 0.0258(3) 1
Cs2 Cs1+ 16 b 0.87441(6) 0.48323(6) 0.53924(9) 0.0295(3) 1
Li1 Li1+ 16 b 0.7286(12) 0.3460(12) 0.553(2) 0.010(5) 1
Li2 Li1+ 16 b 0.8519(14) 0.7354(15) 0.575(2) 0.020(6) 1
P1 P5+ 16 b 0.7409(2) 0.59197(18) 0.2714(4) 0.0159(7) 1
P2 P5+ 16 b 0.7288(2) 0.6359(2) 0.4866(4) 0.0167(8) 1
P3 P5+ 16 b 0.66969(19) 0.4972(2) 0.5256(4) 0.0165(7) 1
P4 P5+ 16 b 0.61927(19) 0.4738(2) 0.7408(3) 0.0149(8) 1
O1 O2- 16 b 0.7385(7) 0.6405(7) 0.1864(12) 0.035(3) 1
O2 O2- 16 b 0.8194(6) 0.5695(6) 0.2999(10) 0.031(3) 1
O3 O2- 16 b 0.6966(6) 0.5298(5) 0.2740(11) 0.025(2) 1
O4 O2- 16 b 0.7249(6) 0.6392(6) 0.3647(9) 0.022(3) 1
O5 O2- 16 b 0.6649(6) 0.6707(5) 0.5260(10) 0.028(3) 1
O6 O2- 16 b 0.7286(6) 0.5550(5) 0.5116(10) 0.027(3) 1
O7 O2- 16 b 0.7999(6) 0.6618(5) 0.5214(12) 0.036(3) 1
O8 O2- 16 b 0.7054(6) 0.4316(5) 0.5029(10) 0.030(3) 1
O9 O2- 16 b 0.6034(6) 0.5161(5) 0.4704(9) 0.020(2) 1
O10 O2- 16 b 0.6596(6) 0.5056(6) 0.6477(9) 0.023(3) 1
O11 O2- 16 b 0.5633(5) 0.4261(6) 0.7102(8) 0.024(3) 1
O12 O2- 16 b 0.6007(6) 0.5314(6) 0.8070(9) 0.027(3) 1
loop_
_atom_site_aniso_label
_atom_site_aniso_type_symbol
_atom_site_aniso_U_11
_atom_site_aniso_U_22
_atom_site_aniso_U_33
_atom_site_aniso_U_12
_atom_site_aniso_U_13
_atom_site_aniso_U_23
Cs1 Cs1+ 0.0308(5) 0.0243(5) 0.0224(6) 0.0034(4) -0.0060(4) -0.0013(6)
Cs2 Cs1+ 0.0273(5) 0.0335(6) 0.0276(6) 0.0036(4) -0.0011(5) -0.0016(5)
Li1 Li1+ 0.011(6) 0.010(6) 0.011(6) 0.002(4) -0.006(5) -0.003(5)
Li2 Li1+ 0.021(7) 0.022(7) 0.018(7) 0.002(5) 0.002(5) 0.002(5)
P1 P5+ 0.0201(18) 0.0173(16) 0.0103(19) 0.0001(14) 0.0031(16) -0.0075(19)
P2 P5+ 0.0190(18) 0.022(2) 0.009(2) -0.0029(15) 0.0020(15) 0.0016(16)
P3 P5+ 0.0186(16) 0.0191(16) 0.0117(18) 0.0005(15) -0.0024(19) 0.0001(16)
P4 P5+ 0.0151(18) 0.0210(19) 0.009(2) 0.0019(15) 0.0007(15) 0.0035(16)
O1 O2- 0.045(8) 0.023(6) 0.035(9) 0.011(6) 0.013(7) 0.007(6)
O2 O2- 0.030(6) 0.045(7) 0.017(7) 0.007(6) 0.000(5) -0.017(6)
O3 O2- 0.023(5) 0.021(5) 0.030(7) 0.001(4) -0.004(5) -0.004(6)
O4 O2- 0.035(6) 0.019(6) 0.011(6) 0.011(5) -0.002(5) -0.003(5)
O5 O2- 0.032(6) 0.026(5) 0.026(7) 0.000(5) -0.004(6) 0.005(6)
O6 O2- 0.027(6) 0.021(5) 0.032(8) -0.002(4) 0.006(6) 0.009(5)
O7 O2- 0.030(6) 0.025(6) 0.054(10) -0.006(5) -0.008(7) -0.026(7)
O8 O2- 0.034(6) 0.018(5) 0.037(9) -0.004(5) -0.005(6) -0.003(5)
O9 O2- 0.021(4) 0.025(4) 0.016(4) -0.001(3) -0.007(3) -0.004(4)
O10 O2- 0.031(7) 0.029(6) 0.010(6) -0.007(5) 0.004(5) 0.003(5)
O11 O2- 0.022(6) 0.035(6) 0.014(6) -0.011(5) -0.002(4) -0.002(5)
O12 O2- 0.034(6) 0.033(6) 0.015(7) 0.012(5) 0.007(5) 0.002(5)
#End of TTdata_21518-ICSD