
#(C) 2020 by FIZ Karlsruhe - Leibniz Institute for Information Infrastructure.  All rights reserved.
data_22347-ICSD
_database_code_ICSD 22347
_audit_creation_date 1980-01-01
_audit_update_record 2009-02-01
_chemical_name_common 'Dilithium sulfate(VI) hydrate'
_chemical_formula_structural 'Li2 (S O4) (H2 O)'
_chemical_formula_sum 'H2 Li2 O5 S1'
_chemical_name_structure_type Li2SO4H2O
_exptl_crystal_density_diffrn 2.05
_citation_title
'Crystal structure of the monohydrate of lithium sulfate, Li2 S O4 H2 O'
loop_
_citation_id
_citation_journal_full
_citation_year
_citation_journal_volume
_citation_page_first
_citation_page_last
_citation_journal_id_ASTM
primary Kristallografiya 1965 10 914 915 KRISAJ
loop_
_citation_author_citation_id
_citation_author_name
primary 'Rannev, N.V.'
primary 'Datt, I.D.'
primary 'Tovbis, A.B.'
primary 'Ozerov, R.P.'
_cell_length_a 5.4518(5)
_cell_length_b 4.8707(4)
_cell_length_c 8.175(1)
_cell_angle_alpha 90.
_cell_angle_beta 107.33(5)
_cell_angle_gamma 90.
_cell_volume 207.23
_cell_formula_units_Z 2
_space_group_name_H-M_alt 'P 1 21 1'
_space_group_IT_number 4
loop_
_space_group_symop_id
_space_group_symop_operation_xyz
1 '-x, y+1/2, -z'
2 'x, y, z'
loop_
_atom_type_symbol
_atom_type_oxidation_number
O2- -2
S6+ 6
Li1+ 1
H1+ 1
loop_
_atom_site_label
_atom_site_type_symbol
_atom_site_symmetry_multiplicity
_atom_site_Wyckoff_symbol
_atom_site_fract_x
_atom_site_fract_y
_atom_site_fract_z
_atom_site_B_iso_or_equiv
_atom_site_occupancy
O1 O2- 2 a -.1033 0.3791 0.083 1.3 1.
O2 O2- 2 a -.4819 0.4383 0.1678 1.25 1.
O3 O2- 2 a -.0621 0.3872 0.3785 1.2 1.
O4 O2- 2 a -.1719 -.2032 0.2112 1.7 1.
O5 O2- 2 a 0.4105 0.0425 0.4033 2.1 1.
S1 S6+ 2 a -.1907 -.4999 0.2112 0.95 1.
Li1 Li1+ 2 a 0.0604 0.0372 0.3835 0.9 1.
Li2 Li1+ 2 a 0.1981 0.4961 0.0161 0.8 1.
H1 H1+ 2 a 0.4679 0.0923 0.3097 4.5 1.
H2 H1+ 2 a -.4921 -.1219 0.4518 6.7 1.
#End of TTdata_22347-ICSD