
#(C) 2020 by FIZ Karlsruhe - Leibniz Institute for Information Infrastructure.  All rights reserved.
data_2319-ICSD
_database_code_ICSD 2319
_audit_creation_date 1980-01-01
_audit_update_record 2012-08-01
_chemical_name_common 'Dilithium beryllium silicate - gamma'
_chemical_formula_structural 'Li2 Be Si O4'
_chemical_formula_sum 'Be1 Li2 O4 Si1'
_chemical_name_structure_type Li2BeSiO4(oS32)
_exptl_crystal_density_diffrn 2.63
_citation_title
'The crystal structure of high (gamma)- L Be Si O4 : a tetrahedral structure'
loop_
_citation_id
_citation_journal_full
_citation_year
_citation_journal_volume
_citation_page_first
_citation_page_last
_citation_journal_id_ASTM
primary

;
Acta Crystallographica, Section B: Structural Crystallography and Crystal
Chemistry
; 1974 30 2434 2437 ACBCAR
loop_
_citation_author_citation_id
_citation_author_name
primary 'Howie, R.A.'
primary 'West, A.R.'
_cell_length_a 6.853(9)
_cell_length_b 6.927(9)
_cell_length_c 6.125(8)
_cell_angle_alpha 90.
_cell_angle_beta 90.
_cell_angle_gamma 90.
_cell_volume 290.76
_cell_formula_units_Z 4
_space_group_name_H-M_alt 'C 2 2 21'
_space_group_IT_number 20
loop_
_space_group_symop_id
_space_group_symop_operation_xyz
1 '-x, y, -z+1/2'
2 '-x, -y, z+1/2'
3 'x, -y, -z'
4 'x, y, z'
5 '-x+1/2, y+1/2, -z+1/2'
6 '-x+1/2, -y+1/2, z+1/2'
7 'x+1/2, -y+1/2, -z'
8 'x+1/2, y+1/2, z'
loop_
_atom_type_symbol
_atom_type_oxidation_number
O2- -2
Si4+ 4
Li1+ 1
Be2+ 2
Li1+ 1
loop_
_atom_site_label
_atom_site_type_symbol
_atom_site_symmetry_multiplicity
_atom_site_Wyckoff_symbol
_atom_site_fract_x
_atom_site_fract_y
_atom_site_fract_z
_atom_site_B_iso_or_equiv
_atom_site_occupancy
O1 O2- 8 c -.0315(2) 0.3140(2) 0.0339(2) . 1.
O2 O2- 8 c 0.1877(2) 0.0356(2) 0.2192(2) . 1.
Si1 Si4+ 4 b 0 0.1805(1) 0.25 . 1.
Li1 Li1+ 4 a 0.1833(9) 0.5 0 1.05 1.
Be1 Be2+ 4 a 0.1813(5) 0.5 0.5 0.59 1.
Li2 Li1+ 4 b 0 0.7990(9) 0.25 1.47 1.
#End of TTdata_2319-ICSD