
#(C) 2020 by FIZ Karlsruhe - Leibniz Institute for Information Infrastructure.  All rights reserved.
data_24897-ICSD
_database_code_ICSD 24897
_audit_creation_date 1980-01-01
_audit_update_record 2006-04-01
_chemical_name_common 'Lithium aluminium catena-disilicate'
_chemical_formula_structural 'Li Al (Si2 O6)'
_chemical_formula_sum 'Al1 Li1 O6 Si2'
_chemical_name_structure_type Li2Al2SiO6
_exptl_crystal_density_diffrn 2.4
_citation_title
'The crystal structure of Li2 Al2 Si3 O10 (high-quartz solid solution)'
loop_
_citation_id
_citation_journal_full
_citation_year
_citation_journal_volume
_citation_page_first
_citation_page_last
_citation_journal_id_ASTM
primary 'Zeitschrift fuer Kristallographie' 1970 132 118 128 ZEKRDZ
loop_
_citation_author_citation_id
_citation_author_name
primary 'Li Chi-Tang'
_cell_length_a 5.217(1)
_cell_length_b 5.217(1)
_cell_length_c 5.464(2)
_cell_angle_alpha 90.
_cell_angle_beta 90.
_cell_angle_gamma 120.
_cell_volume 128.79
_cell_formula_units_Z 1
_space_group_name_H-M_alt 'P 62 2 2'
_space_group_IT_number 180
loop_
_space_group_symop_id
_space_group_symop_operation_xyz
1 'x, x-y, -z+1/3'
2 '-x+y, y, -z'
3 '-y, -x, -z+2/3'
4 '-x, -x+y, -z+1/3'
5 'x-y, -y, -z'
6 'y, x, -z+2/3'
7 'x-y, x, z+1/3'
8 'y, -x+y, z+2/3'
9 '-x, -y, z'
10 '-x+y, -x, z+1/3'
11 '-y, x-y, z+2/3'
12 'x, y, z'
loop_
_atom_type_symbol
_atom_type_oxidation_number
Li1+ 1
Al3+ 3
Si4+ 4
O2- -2
loop_
_atom_site_label
_atom_site_type_symbol
_atom_site_symmetry_multiplicity
_atom_site_Wyckoff_symbol
_atom_site_fract_x
_atom_site_fract_y
_atom_site_fract_z
_atom_site_B_iso_or_equiv
_atom_site_occupancy
Li1 Li1+ 3 a 0 0 0 . 0.333
Al1 Al3+ 3 c 0.5 0 0 . 0.333
Si1 Si4+ 3 c 0.5 0 0 . 0.667
O1 O2- 6 j 0.2057(6) 0.4114(12) 0.5 . 1.
#End of TTdata_24897-ICSD