
#(C) 2020 by FIZ Karlsruhe - Leibniz Institute for Information Infrastructure.  All rights reserved.
data_2512-ICSD
_database_code_ICSD 2512
_audit_creation_date 1980-01-01
_audit_update_record 2006-04-01
_chemical_name_common 'Dilithium sulfate(VI)'
_chemical_formula_structural 'Li2 (S O4)'
_chemical_formula_sum 'Li2 O4 S1'
_exptl_crystal_density_diffrn 2.23
_citation_title 'Lithium sulfate - a redetermination'
loop_
_citation_id
_citation_journal_full
_citation_year
_citation_journal_volume
_citation_page_first
_citation_page_last
_citation_journal_id_ASTM
primary

;
Acta Crystallographica, Section B: Structural Crystallography and Crystal
Chemistry
; 1973 29 360 361 ACBCAR
loop_
_citation_author_citation_id
_citation_author_name
primary 'Alcock, N.W.'
primary 'Evans, D.A.'
primary 'Jenkins, H.D.B.'
_cell_length_a 8.45(1)
_cell_length_b 4.95(1)
_cell_length_c 8.21(1)
_cell_angle_alpha 90.
_cell_angle_beta 107.5(2)
_cell_angle_gamma 90.
_cell_volume 327.51
_cell_formula_units_Z 4
_space_group_name_H-M_alt 'P 1 21/c 1'
_space_group_IT_number 14
loop_
_space_group_symop_id
_space_group_symop_operation_xyz
1 'x, -y+1/2, z+1/2'
2 '-x, -y, -z'
3 '-x, y+1/2, -z+1/2'
4 'x, y, z'
loop_
_atom_type_symbol
_atom_type_oxidation_number
Li1+ 1
S6+ 6
O2- -2
loop_
_atom_site_label
_atom_site_type_symbol
_atom_site_symmetry_multiplicity
_atom_site_Wyckoff_symbol
_atom_site_fract_x
_atom_site_fract_y
_atom_site_fract_z
_atom_site_B_iso_or_equiv
_atom_site_occupancy
Li1 Li1+ 4 e 0.3815(11) 0.5689(23) 0.1993(11) . 1.
Li2 Li1+ 4 e 0.1287(12) 0.5776(23) 0.4357(11) . 1.
S1 S6+ 4 e 0.2517(1) 0.0642(3) 0.3111(1) . 1.
O1 O2- 4 e 0.2291(4) -.0656(9) 0.4634(4) . 1.
O2 O2- 4 e 0.1049(4) 0.0065(9) 0.1634(4) . 1.
O3 O2- 4 e 0.3979(4) -.0509(9) 0.2750(4) . 1.
O4 O2- 4 e 0.2743(5) 0.3573(9) 0.3380(5) . 1.
loop_
_atom_site_aniso_label
_atom_site_aniso_type_symbol
_atom_site_aniso_U_11
_atom_site_aniso_U_22
_atom_site_aniso_U_33
_atom_site_aniso_U_12
_atom_site_aniso_U_13
_atom_site_aniso_U_23
Li1 Li1+ 0.0020(4) 0.0018(6) 0.0015(3) 0.0003(4) 0.0006(3) 0.0001(4)
Li2 Li1+ 0.0022(4) 0.0020(6) 0.0016(3) -.0004(4) 0.0007(3) -.0001(4)
S1 S6+ 0.00112(3) 0.00087 0.00067(3) -.00005(4) 0.00023(3) -.00001(4)
O1 O2- 0.0023(1) 0.0015(2) 0.0009(1) -.0006(1) -.0005(1) -.0002(1)
O2 O2- 0.0015(1) 0.0030(3) 0.0009(1) -.0001(1) 0.0000(1) -.0003(1)
O3 O2- 0.0015(1) 0.0020(2) 0.0020(1) 0.0000(1) 0.0007(1) -.0005(1)
O4 O2- 0.0025(2) 0.0008(2) 0.0015(1) 0.0003(1) 0.0009(1) 0.0000(1)
#End of TTdata_2512-ICSD