
#(C) 2020 by FIZ Karlsruhe - Leibniz Institute for Information Infrastructure.  All rights reserved.
data_26337-ICSD
_database_code_ICSD 26337
_audit_creation_date 1984-09-05
_audit_update_record 2006-04-01
_chemical_name_common 'Lithium rubidium sulfate(VI) - V'
_chemical_formula_structural 'Li Rb (S O4)'
_chemical_formula_sum 'Li1 O4 Rb1 S1'
_chemical_name_structure_type CsLiBeF4
_exptl_crystal_density_diffrn 2.98
_citation_title 'Room-temperature phase of lithium rubidium sulphate'
loop_
_citation_id
_citation_journal_full
_citation_year
_citation_journal_volume
_citation_page_first
_citation_page_last
_citation_journal_id_ASTM
primary

;
Acta Crystallographica, Section B: Structural Crystallography and Crystal
Chemistry
; 1980 36 3084 3085 ACBCAR
loop_
_citation_author_citation_id
_citation_author_name
primary 'Tanisaki, S.'
primary 'Mashiyama, H.'
primary 'Hasebe, K.'
primary 'Shiroishi, Y.'
primary 'Sawada, S.'
_cell_length_a 5.288(1)
_cell_length_b 9.105(1)
_cell_length_c 8.731(1)
_cell_angle_alpha 90.
_cell_angle_beta 90.
_cell_angle_gamma 90.09(2)
_cell_volume 420.37
_cell_formula_units_Z 4
_space_group_name_H-M_alt 'P 1 1 21/n'
_space_group_IT_number 14
loop_
_space_group_symop_id
_space_group_symop_operation_xyz
1 'x+1/2, y+1/2, -z+1/2'
2 '-x, -y, -z'
3 '-x+1/2, -y+1/2, z+1/2'
4 'x, y, z'
loop_
_atom_type_symbol
_atom_type_oxidation_number
Rb1+ 1
Li1+ 1
S6+ 6
O2- -2
loop_
_atom_site_label
_atom_site_type_symbol
_atom_site_symmetry_multiplicity
_atom_site_Wyckoff_symbol
_atom_site_fract_x
_atom_site_fract_y
_atom_site_fract_z
_atom_site_B_iso_or_equiv
_atom_site_occupancy
Rb1 Rb1+ 4 e 0.7355(1) 0.2225(1) 0.5043(1) . 1.
Li1 Li1+ 4 e 0.2434(20) 0.4103(11) 0.3242(10) . 1.
S1 S6+ 4 e 0.2466(2) 0.0778(1) 0.2064(1) . 1.
O1 O2- 4 e 0.2556(8) 0.0932(6) 0.0408(4) . 1.
O2 O2- 4 e 0.1491(7) 0.2132(4) 0.2739(5) . 1.
O3 O2- 4 e 0.5035(6) 0.0482(4) 0.2655(4) . 1.
O4 O2- 4 e 0.0794(7) -.0448(4) 0.2477(5) . 1.
#End of TTdata_26337-ICSD