
#(C) 2020 by FIZ Karlsruhe - Leibniz Institute for Information Infrastructure.  All rights reserved.
data_27212-ICSD
_database_code_ICSD 27212
_audit_creation_date 1982-12-31
_audit_update_record 2012-08-01
_chemical_name_common 'Disodium lithium yttrium closo-15-oxohexasilicate'
_chemical_formula_structural 'Na2 Li Y Si6 O15'
_chemical_formula_sum 'Li1 Na2 O15 Si6 Y1'
_chemical_name_structure_type Tuhualite#Zektzerite#Na2LiFe(Si2O5)3
_exptl_crystal_density_diffrn 2.76
_citation_title 'Structure of Lithium Sodium Yttrium Silicate Na2 Li Y Si6 O15'
loop_
_citation_id
_citation_journal_full
_citation_year
_citation_journal_volume
_citation_page_first
_citation_page_last
_citation_journal_id_ASTM
primary

;
Acta Crystallographica, Section B: Structural Crystallography and Crystal
Chemistry
; 1982 38 1405 1408 ACBCAR
loop_
_citation_author_citation_id
_citation_author_name
primary 'Gunawardane, R.P.'
primary 'Howie, R.A.'
primary 'Glasser, F.P.'
_cell_length_a 14.505(1)
_cell_length_b 17.596(1)
_cell_length_c 10.375(1)
_cell_angle_alpha 90.
_cell_angle_beta 90.
_cell_angle_gamma 90.
_cell_volume 2648.01
_cell_formula_units_Z 8
_space_group_name_H-M_alt 'C m c a'
_space_group_IT_number 64
loop_
_space_group_symop_id
_space_group_symop_operation_xyz
1 '-x, -y+1/2, z+1/2'
2 '-x, y+1/2, -z+1/2'
3 '-x, y, z'
4 '-x, -y, -z'
5 'x, y+1/2, -z+1/2'
6 'x, -y+1/2, z+1/2'
7 'x, -y, -z'
8 'x, y, z'
9 '-x+1/2, -y, z+1/2'
10 '-x+1/2, y, -z+1/2'
11 '-x+1/2, y+1/2, z'
12 '-x+1/2, -y+1/2, -z'
13 'x+1/2, y, -z+1/2'
14 'x+1/2, -y, z+1/2'
15 'x+1/2, -y+1/2, -z'
16 'x+1/2, y+1/2, z'
loop_
_atom_type_symbol
_atom_type_oxidation_number
Na1+ 1
Li1+ 1
Y3+ 3
Si4+ 4
O2- -2
loop_
_atom_site_label
_atom_site_type_symbol
_atom_site_symmetry_multiplicity
_atom_site_Wyckoff_symbol
_atom_site_fract_x
_atom_site_fract_y
_atom_site_fract_z
_atom_site_B_iso_or_equiv
_atom_site_occupancy
Na1 Na1+ 8 f 0 0.4198(6) 0.2602(15) . 1.
Na2 Na1+ 8 e 0.25 0.2184(4) 0.25 . 1.
Li1 Li1+ 8 d 0.2438(25) 0 0 1.15 1.
Y1 Y3+ 8 e 0.25 -.0877(1) 0.25 . 1.
Si1 Si4+ 16 g 0.3917(2) 0.1265(2) 0.0244(3) 0.1 1.
Si2 Si4+ 16 g 0.3896(2) 0.0790(2) 0.3148(3) 0.1 1.
Si3 Si4+ 16 g 0.3921(2) 0.1966(1) 0.5387(3) 0.1 1.
O1 O2- 16 g 0.3795(6) 0.2161(5) -.0058(9) 0.89 1.
O2 O2- 16 g 0.3323(6) 0.0764(4) -.0700(9) 0.53 1.
O3 O2- 16 g 0.3624(5) 0.1147(4) 0.1750(9) 0.5 1.
O4 O2- 16 g 0.3385(6) 0.0018(4) 0.3435(9) 0.51 1.
O5 O2- 16 g 0.3601(5) 0.1454(4) 0.4142(9) 0.43 1.
O6 O2- 16 g 0.3373(6) 0.1779(4) 0.6649(9) 0.9 1.
O7 O2- 8 f 0.5 0.1049(6) 0.0007(13) 0.71 1.
O8 O2- 8 f 0.5 0.0634(6) 0.3192(14) 0.71 1.
O9 O2- 8 f 0.5 0.1771(7) 0.5645(15) 1.08 1.
#End of TTdata_27212-ICSD