
#(C) 2020 by FIZ Karlsruhe - Leibniz Institute for Information Infrastructure.  All rights reserved.
data_27316-ICSD
_database_code_ICSD 27316
_audit_creation_date 1980-01-01
_audit_update_record 2006-04-01
_chemical_name_common 'Lithium tetrahydroxoborate'
_chemical_formula_structural 'Li (B (O H)4)'
_chemical_formula_sum 'H4 B1 Li1 O4'
_chemical_name_structure_type LiB(OH)4
_exptl_crystal_density_diffrn 1.83
_citation_title
'Lokalisierung der H-Atome in der Kristallstruktur des Li B (O H)4'
loop_
_citation_id
_citation_journal_full
_citation_year
_citation_journal_volume
_citation_page_first
_citation_page_last
_citation_journal_id_ASTM
primary 'Zeitschrift fuer Anorganische und Allgemeine Chemie (1950) (DE)' 1966
342 188 194 ZAACAB
loop_
_citation_author_citation_id
_citation_author_name
primary 'Hoehne, E.'
_cell_length_a 9.169(9)
_cell_length_b 7.958(8)
_cell_length_c 8.548(8)
_cell_angle_alpha 90.
_cell_angle_beta 90.
_cell_angle_gamma 90.
_cell_volume 623.72
_cell_formula_units_Z 8
_space_group_name_H-M_alt 'P b c a'
_space_group_IT_number 61
loop_
_space_group_symop_id
_space_group_symop_operation_xyz
1 'x+1/2, y, -z+1/2'
2 'x, -y+1/2, z+1/2'
3 '-x+1/2, y+1/2, z'
4 '-x, -y, -z'
5 '-x+1/2, -y, z+1/2'
6 '-x, y+1/2, -z+1/2'
7 'x+1/2, -y+1/2, -z'
8 'x, y, z'
loop_
_atom_type_symbol
_atom_type_oxidation_number
O2- -2
B3+ 3
Li1+ 1
H1+ 1
loop_
_atom_site_label
_atom_site_type_symbol
_atom_site_symmetry_multiplicity
_atom_site_Wyckoff_symbol
_atom_site_fract_x
_atom_site_fract_y
_atom_site_fract_z
_atom_site_B_iso_or_equiv
_atom_site_occupancy
O1 O2- 8 c 0.0753 0.0665 0.3099 1.1 1.
O2 O2- 8 c -.0468 0.205 0.0849 1.1 1.
O3 O2- 8 c 0.1889 0.076 0.0591 1.1 1.
O4 O2- 8 c 0.154 0.3353 0.2083 1.1 1.
B1 B3+ 8 c 0.0925 0.1708 0.1652 0.9 1.
Li1 Li1+ 8 c 0.1986 0.869 0.3752 1.7 1.
H1 H1+ 8 c 0.0246 0.16 0.386 2. 1.
H2 H1+ 8 c 0.0875 0.585 0.425 2. 1.
H3 H1+ 8 c 0.243 0.475 0.11 2. 1.
H4 H1+ 8 c 0.0806 0.42 0.225 2. 1.
#End of TTdata_27316-ICSD