
#(C) 2020 by FIZ Karlsruhe - Leibniz Institute for Information Infrastructure.  All rights reserved.
data_30718-ICSD
_database_code_ICSD 30718
_audit_creation_date 1984-12-31
_chemical_name_common 'Pentalithium iron(III) oxide'
_chemical_formula_structural 'Li5 Fe O4'
_chemical_formula_sum 'Fe1 Li5 O4'
_chemical_name_structure_type Li5GaO4(alpha)
_exptl_crystal_density_diffrn 2.64
_citation_title

;
Zur Kenntnis von Li5 Fe O4. Mit einer Notiz ueber Mischkristalle Na5 Fe1-x Gax
O4
;
loop_
_citation_id
_citation_journal_full
_citation_year
_citation_journal_volume
_citation_page_first
_citation_page_last
_citation_journal_id_ASTM
primary 'Zeitschrift fuer Anorganische und Allgemeine Chemie (1950) (DE)' 1984
513 141 150 ZAACAB
loop_
_citation_author_citation_id
_citation_author_name
primary 'Luge, R.'
primary 'Hoppe, R.'
_cell_length_a 9.218(1)
_cell_length_b 9.213(1)
_cell_length_c 9.159(1)
_cell_angle_alpha 90.
_cell_angle_beta 90.
_cell_angle_gamma 90.
_cell_volume 777.83
_cell_formula_units_Z 8
_space_group_name_H-M_alt 'P b c a'
_space_group_IT_number 61
loop_
_space_group_symop_id
_space_group_symop_operation_xyz
1 'x+1/2, y, -z+1/2'
2 'x, -y+1/2, z+1/2'
3 '-x+1/2, y+1/2, z'
4 '-x, -y, -z'
5 '-x+1/2, -y, z+1/2'
6 '-x, y+1/2, -z+1/2'
7 'x+1/2, -y+1/2, -z'
8 'x, y, z'
loop_
_atom_type_symbol
_atom_type_oxidation_number
Fe3+ 3
O2- -2
Li1+ 1
loop_
_atom_site_label
_atom_site_type_symbol
_atom_site_symmetry_multiplicity
_atom_site_Wyckoff_symbol
_atom_site_fract_x
_atom_site_fract_y
_atom_site_fract_z
_atom_site_U_iso_or_equiv
_atom_site_occupancy
Fe1 Fe3+ 8 c 0.1169(1) 0.1455(1) 0.1175(1) . 1.
O1 O2- 8 c 0.0045(6) 0.2507(5) 0.9854(5) . 1.
O2 O2- 8 c 0.2457(7) 0.2483(6) 0.2401(5) . 1.
O3 O2- 8 c 0.2431(5) 0.0320(6) 0.0006(6) . 1.
O4 O2- 8 c 0.0340(5) 0.0069(6) 0.2452(5) . 1.
Li1 Li1+ 8 c 0.8801(14) 0.3511(14) 0.1269(13) 0.0136(20) 1.
Li2 Li1+ 8 c 0.3939(13) 0.1122(11) 0.1422(12) 0.0066(25) 1.
Li3 Li1+ 8 c 0.1475(12) 0.8709(14) 0.1046(14) 0.0147(28) 1.
Li4 Li1+ 8 c 0.1195(16) 0.1103(12) 0.8366(13) 0.0151(27) 1.
Li5 Li1+ 8 c 0.3408(14) 0.8833(15) 0.8986(17) 0.0233(35) 1.
loop_
_atom_site_aniso_label
_atom_site_aniso_type_symbol
_atom_site_aniso_U_11
_atom_site_aniso_U_22
_atom_site_aniso_U_33
_atom_site_aniso_U_12
_atom_site_aniso_U_13
_atom_site_aniso_U_23
Fe1 Fe3+ 0.0060(3) 0.0057(4) 0.0054(4) 0.0002(5) 0.0000(5) 0.0010(6)
O1 O2- 0.0063(21) 0.0079(26) 0.0050(25) 0.0003(19) 0.000(2) 0.0011(22)
O2 O2- 0.0122(24) 0.0085(27) 0.0071(25) 0.0000(21) -.0005(22) -.0028(10)
O3 O2- 0.0072(22) 0.0097(26) 0.0159(28) -.0027(22) 0.0008(22) -.0013(23)
O4 O2- 0.0085(23) 0.0067(24) 0.0049(24) -.0032(21) 0.0006(19) 0.0013(20)
#End of TTdata_30718-ICSD