
#(C) 2020 by FIZ Karlsruhe - Leibniz Institute for Information Infrastructure.  All rights reserved.
data_30982-ICSD
_database_code_ICSD 30982
_audit_creation_date 1987-03-16
_audit_update_record 2007-08-01
_chemical_name_common 'Lithium alumosilicate'
_chemical_formula_structural 'Li (Al Si O4)'
_chemical_formula_sum 'Al1 Li1 O4 Si1'
_chemical_name_structure_type Phenakite#Be2SiO4
_chemical_name_mineral Eucryptite
_exptl_crystal_density_diffrn 2.66
_citation_title
'Crystal structures of natural and synthetic alpha eucryptite, Li Al Si O4'
loop_
_citation_id
_citation_journal_full
_citation_year
_citation_journal_volume
_citation_page_first
_citation_page_last
_citation_journal_id_ASTM
primary 'Zeitschrift fuer Kristallographie' 1985 172 147 151 ZEKRDZ
loop_
_citation_author_citation_id
_citation_author_name
primary 'Hesse, K.F.'
_cell_length_a 13.471(3)
_cell_length_b 13.471(3)
_cell_length_c 8.998(2)
_cell_angle_alpha 90.
_cell_angle_beta 90.
_cell_angle_gamma 120.
_cell_volume 1414.09
_cell_formula_units_Z 18
_space_group_name_H-M_alt 'R -3 H'
_space_group_IT_number 148
loop_
_space_group_symop_id
_space_group_symop_operation_xyz
1 'x-y, x, -z'
2 'y, -x+y, -z'
3 '-x, -y, -z'
4 '-x+y, -x, z'
5 '-y, x-y, z'
6 'x, y, z'
7 'x-y+2/3, x+1/3, -z+1/3'
8 'y+2/3, -x+y+1/3, -z+1/3'
9 '-x+2/3, -y+1/3, -z+1/3'
10 '-x+y+2/3, -x+1/3, z+1/3'
11 '-y+2/3, x-y+1/3, z+1/3'
12 'x+2/3, y+1/3, z+1/3'
13 'x-y+1/3, x+2/3, -z+2/3'
14 'y+1/3, -x+y+2/3, -z+2/3'
15 '-x+1/3, -y+2/3, -z+2/3'
16 '-x+y+1/3, -x+2/3, z+2/3'
17 '-y+1/3, x-y+2/3, z+2/3'
18 'x+1/3, y+2/3, z+2/3'
loop_
_atom_type_symbol
_atom_type_oxidation_number
Li1+ 1
Al3+ 3
Si4+ 4
Al3+ 3
Si4+ 4
O2- -2
loop_
_atom_site_label
_atom_site_type_symbol
_atom_site_symmetry_multiplicity
_atom_site_Wyckoff_symbol
_atom_site_fract_x
_atom_site_fract_y
_atom_site_fract_z
_atom_site_B_iso_or_equiv
_atom_site_occupancy
Li1 Li1+ 18 f 0.0198(4) 0.8125(4) 0.7513(6) . 1.
Al1 Al3+ 18 f 0.5302(1) 0.8807(1) 0.7495(1) . 0.5
Si1 Si4+ 18 f 0.5302(1) 0.8807(1) 0.7495(1) . 0.5
Al2 Al3+ 18 f 0.8753(1) 0.3444(1) 0.9160(1) . 0.5
Si2 Si4+ 18 f 0.8753(1) 0.3444(1) 0.9160(1) . 0.5
O1 O2- 18 f 0.7594(1) 0.2133(1) 0.8940(2) . 1.
O2 O2- 18 f 0.7325(1) 0.1990(1) 0.5844(2) . 1.
O3 O2- 18 f 0.1005(1) 0.8844(1) 0.9415(1) . 1.
O4 O2- 18 f 0.6590(1) 0.0026(1) 0.7496(1) . 1.
loop_
_atom_site_aniso_label
_atom_site_aniso_type_symbol
_atom_site_aniso_U_11
_atom_site_aniso_U_22
_atom_site_aniso_U_33
_atom_site_aniso_U_12
_atom_site_aniso_U_13
_atom_site_aniso_U_23
Li1 Li1+ 0.0153(21) 0.0107(20) 0.0206(22) 0.0024(17) -.0017(18) 0.0044(18)
Al1 Al3+ 0.0065(2) 0.0063(2) 0.0055(2) 0.0035(2) -.0001(2) 0.0000(2)
Si1 Si4+ 0.0065(2) 0.0063(2) 0.0055(2) 0.0035(2) -.0001(2) 0.0000(2)
Al2 Al3+ 0.0062(2) 0.0051(2) 0.0056(2) 0.0026(2) -.0003(2) 0.0000(2)
Si2 Si4+ 0.0062(2) 0.0051(2) 0.0056(2) 0.0026(2) -.0003(2) 0.0000(2)
O1 O2- 0.0129(7) 0.0069(6) 0.0058(6) 0.0043(6) 0.0022(5) 0.0010(5)
O2 O2- 0.0048(6) 0.0044(6) 0.0124(7) 0.0007(5) 0.0007(5) 0.0002(5)
O3 O2- 0.0077(6) 0.0081(6) 0.0062(6) 0.0029(5) -.0022(5) -.0015(5)
O4 O2- 0.0066(6) 0.0114(7) 0.0085(6) 0.0072(5) -.0009(5) -.0008(5)
#End of TTdata_30982-ICSD