
#(C) 2020 by FIZ Karlsruhe - Leibniz Institute for Information Infrastructure.  All rights reserved.
data_32594-ICSD
_database_code_ICSD 32594
_audit_creation_date 1980-01-01
_audit_update_record 1999-11-30
_chemical_name_common 'Lithium aluminium silicate (.9/1/1)'
_chemical_formula_structural 'Li0.9 Al Si O4'
_chemical_formula_sum 'Al1 Li0.9 O4 Si1'
_chemical_name_mineral Pseudo-eucryptite
_exptl_crystal_density_diffrn 2.35
_diffrn_ambient_temperature 802.
_citation_title

;
Temperature dependence of the crystal structure of the one-dimensional Li+
conductor beta eucryptite (Li Al Si O4)
;
loop_
_citation_id
_citation_journal_full
_citation_year
_citation_journal_volume
_citation_page_first
_citation_page_last
_citation_journal_id_ASTM
primary

;
Fast Ion Transport in Solids: Elektrodes and Elektrolytes, Proceedings of the
International Conference on Fast Ion Transport in Solids, Electrodes and
Electrolytes, 1979
; 1979 1979 499 502 43GQAH
loop_
_citation_author_citation_id
_citation_author_name
primary 'Guth, H.'
primary 'Heger, G.'
_cell_length_a 5.260(5)
_cell_length_b 5.260(5)
_cell_length_c 11.095(10)
_cell_angle_alpha 90.
_cell_angle_beta 90.
_cell_angle_gamma 120.
_cell_volume 265.85
_cell_formula_units_Z 3
_space_group_name_H-M_alt 'P 62 2 2'
_space_group_IT_number 180
loop_
_space_group_symop_id
_space_group_symop_operation_xyz
1 'x, x-y, -z+1/3'
2 '-x+y, y, -z'
3 '-y, -x, -z+2/3'
4 '-x, -x+y, -z+1/3'
5 'x-y, -y, -z'
6 'y, x, -z+2/3'
7 'x-y, x, z+1/3'
8 'y, -x+y, z+2/3'
9 '-x, -y, z'
10 '-x+y, -x, z+1/3'
11 '-y, x-y, z+2/3'
12 'x, y, z'
loop_
_atom_type_symbol
_atom_type_oxidation_number
Li1+ 1
Si4+ 4
Al3+ 3
O2- -2
loop_
_atom_site_label
_atom_site_type_symbol
_atom_site_symmetry_multiplicity
_atom_site_Wyckoff_symbol
_atom_site_fract_x
_atom_site_fract_y
_atom_site_fract_z
_atom_site_B_iso_or_equiv
_atom_site_occupancy
Li1 Li1+ 3 a 0 0 0 . 0.68(5)
Li2 Li1+ 3 b 0 0 0.5 . 0.22(3)
Si1 Si4+ 3 c 0.5 0 0 . 1.
Al1 Al3+ 3 d 0.5 0 0.5 . 1.
O1 O2- 12 k 0.2111(5) 0.4046(5) 0.2540(2) . 1.
loop_
_atom_site_aniso_label
_atom_site_aniso_type_symbol
_atom_site_aniso_U_11
_atom_site_aniso_U_22
_atom_site_aniso_U_33
_atom_site_aniso_U_12
_atom_site_aniso_U_13
_atom_site_aniso_U_23
Li1 Li1+ 0.038(8) 0.076(16) 0.010(2) 0 0 0
Li2 Li1+ 0.001(1) 0.002(2) 0.007(7) 0 0 0
Si1 Si4+ 0.016(2) 0.032(4) 0.030(2) 0.008(1) 0 0
Al1 Al3+ 0.016(2) 0.032(4) 0.020(2) 0.007(1) 0 0
O1 O2- 0.027(2) 0.033(2) 0.047(1) 0.014(1) 0.0128(9) 0.0069(9)
#End of TTdata_32594-ICSD