
#(C) 2020 by FIZ Karlsruhe - Leibniz Institute for Information Infrastructure.  All rights reserved.
data_33279-ICSD
_database_code_ICSD 33279
_audit_creation_date 1985-12-31
_chemical_name_common 'Disodium trilithium tetraoxoferrate(III)'
_chemical_formula_structural 'Na2 Li3 (Fe O4)'
_chemical_formula_sum 'Fe1 Li3 Na2 O4'
_chemical_name_structure_type Li3Na2GaO4
_exptl_crystal_density_diffrn 2.85
_citation_title 'Neue Oxoferrate(III) Na2 Li3 (Fe O4) und K2 Li3 (Fe O4)'
loop_
_citation_id
_citation_journal_full
_citation_year
_citation_journal_volume
_citation_page_first
_citation_page_last
_citation_journal_id_ASTM
primary 'Zeitschrift fuer Anorganische und Allgemeine Chemie (1950) (DE)' 1985
520 39 50 ZAACAB
loop_
_citation_author_citation_id
_citation_author_name
primary 'Luge, R.'
primary 'Hoppe, R.'
_cell_length_a 8.322(1)
_cell_length_b 7.960(1)
_cell_length_c 6.563(1)
_cell_angle_alpha 90.
_cell_angle_beta 90.
_cell_angle_gamma 90.
_cell_volume 434.75
_cell_formula_units_Z 4
_space_group_name_H-M_alt 'P n n m'
_space_group_IT_number 58
loop_
_space_group_symop_id
_space_group_symop_operation_xyz
1 'x+1/2, -y+1/2, z+1/2'
2 '-x+1/2, y+1/2, z+1/2'
3 'x, y, -z'
4 '-x, -y, -z'
5 '-x+1/2, y+1/2, -z+1/2'
6 'x+1/2, -y+1/2, -z+1/2'
7 '-x, -y, z'
8 'x, y, z'
loop_
_atom_type_symbol
_atom_type_oxidation_number
Fe3+ 3
Na1+ 1
O2- -2
Li1+ 1
loop_
_atom_site_label
_atom_site_type_symbol
_atom_site_symmetry_multiplicity
_atom_site_Wyckoff_symbol
_atom_site_fract_x
_atom_site_fract_y
_atom_site_fract_z
_atom_site_U_iso_or_equiv
_atom_site_occupancy
Fe1 Fe3+ 4 g 0.1236(2) 0.2254(2) 0 . 1.
Na1 Na1+ 4 g 0.2473(6) 0.7416(7) 0 . 1.
Na2 Na1+ 4 f 0 0.5 0.2603(7) . 1.
O1 O2- 4 g 0.2239(10) 0.4371(9) 0 . 1.
O2 O2- 8 h 0.0115(8) 0.1975(6) 0.2425(7) . 1.
O3 O2- 4 g 0.2782(9) 0.0495(10) 0 . 1.
Li1 Li1+ 8 h 0.6523(17) 0.5156(19) 0.2428(20) 0.0127(31) 1.
Li2 Li1+ 4 g 0.5826(21) 0.7302(29) 0 0.0122(44) 1.
loop_
_atom_site_aniso_label
_atom_site_aniso_type_symbol
_atom_site_aniso_U_11
_atom_site_aniso_U_22
_atom_site_aniso_U_33
_atom_site_aniso_U_12
_atom_site_aniso_U_13
_atom_site_aniso_U_23
Fe1 Fe3+ 0.0047(7) 0.0046(7) 0.0059(7) 0.0006(9) 0 0
Na1 Na1+ 0.0168(28) 0.0073(27) 0.0352(30) -.0011(23) 0 0
Na2 Na1+ 0.0078(25) 0.0131(26) 0.0180(26) 0.0021(24) 0 0
O1 O2- 0.0017(39) 0.0052(42) 0.0232(52) 0.0019(34) 0 0
O2 O2- 0.015(3) 0.0054(29) 0.0111(24) -.0031(27) 0.0034(23) 0.0017(25)
O3 O2- 0.0068(41) 0.0101(42) 0.0029(39) 0.0011(35) 0 0
#End of TTdata_33279-ICSD