
#(C) 2020 by FIZ Karlsruhe - Leibniz Institute for Information Infrastructure.  All rights reserved.
data_33761-ICSD
_database_code_ICSD 33761
_audit_creation_date 1991-07-10
_audit_update_record 2012-08-01
_chemical_name_common 'Dekasodium dilithium tetrakis(manganate(V))'
_chemical_formula_structural 'Na10 Li2 (Mn O4)4'
_chemical_formula_sum 'Li2 Mn4 Na10 O16'
_exptl_crystal_density_diffrn 2.88
_citation_title

;
Das erste Oxomanganat(V) mit Ketten aus Sechs- und Achtringen: Na10 (Li2 (Mn
O4)4)
;
loop_
_citation_id
_citation_journal_full
_citation_year
_citation_journal_volume
_citation_page_first
_citation_page_last
_citation_journal_id_ASTM
primary 'Zeitschrift fuer Anorganische und Allgemeine Chemie (1950) (DE)' 1990
590 7 17 ZAACAB
loop_
_citation_author_citation_id
_citation_author_name
primary 'Fischer, D.'
primary 'Hoppe, R.'
_cell_length_a 10.481(7)
_cell_length_b 15.184(9)
_cell_length_c 10.444(6)
_cell_angle_alpha 90.
_cell_angle_beta 90.
_cell_angle_gamma 90.
_cell_volume 1662.09
_cell_formula_units_Z 4
_space_group_name_H-M_alt 'P n m a'
_space_group_IT_number 62
loop_
_space_group_symop_id
_space_group_symop_operation_xyz
1 'x+1/2, y, -z+1/2'
2 'x, -y+1/2, z'
3 '-x+1/2, y+1/2, z+1/2'
4 '-x, -y, -z'
5 '-x+1/2, -y, z+1/2'
6 '-x, y+1/2, -z'
7 'x+1/2, -y+1/2, -z+1/2'
8 'x, y, z'
loop_
_atom_type_symbol
_atom_type_oxidation_number
Li1+ 1
Mn5+ 5
Na1+ 1
O2- -2
loop_
_atom_site_label
_atom_site_type_symbol
_atom_site_symmetry_multiplicity
_atom_site_Wyckoff_symbol
_atom_site_fract_x
_atom_site_fract_y
_atom_site_fract_z
_atom_site_B_iso_or_equiv
_atom_site_occupancy
Li1 Li1+ 8 d 0.0122(4) 0.1401(3) 0.0003(5) . 1.
Mn1 Mn5+ 4 c 0.0061(1) 0.25 0.7287(1) . 1.
Mn2 Mn5+ 8 d 0.7519 -.0005 -.0069 . 1.
Mn3 Mn5+ 4 c 0.5214(1) 0.25 0.2462(1) . 1.
Na1 Na1+ 8 d 0.4964(1) 0.0034(1) 0.2814(1) . 1.
Na2 Na1+ 8 d 0.0096(1) 0.1133(1) 0.5179(1) . 1.
Na3 Na1+ 8 d 0.7555(1) 0.3952(1) 0.2412(1) . 1.
Na4 Na1+ 4 c 0.2664(2) 0.25 0.0691(2) . 1.
Na5 Na1+ 8 d 0.7589(1) 0.3624(1) 0.7224(1) . 1.
Na6 Na1+ 4 c 0.2924(2) 0.25 0.4861(2) . 1.
O1 O2- 4 c 0.1800(3) 0.25 0.2895(3) . 1.
O2 O2- 8 d 0.6412(2) 0.5114(1) 0.1112(2) . 1.
O3 O2- 8 d 0.1769(2) 0.4652(1) 0.6399(2) . 1.
O4 O2- 4 c 0.5046(3) 0.25 0.4102(2) . 1.
O5 O2- 8 d 0.1802(2) 0.0997(2) 0.0397(2) . 1.
O6 O2- 8 d 0.0477(2) 0.6580(1) 0.6847(2) . 1.
O7 O2- 8 d 0.4897(2) 0.3434(1) 0.6841(2) . 1.
O8 O2- 4 c 0.3878(3) 0.25 0.8839(3) . 1.
O9 O2- 8 d 0.8641(2) 0.0717(1) 0.0474(2) . 1.
O10 O2- 4 c 0.6481(3) 0.25 0.8477(3) . 1.
loop_
_atom_site_aniso_label
_atom_site_aniso_type_symbol
_atom_site_aniso_U_11
_atom_site_aniso_U_22
_atom_site_aniso_U_33
_atom_site_aniso_U_12
_atom_site_aniso_U_13
_atom_site_aniso_U_23
Li1 Li1+ 0.0044(21) 0.0197(25) 0.0119(21) 0.0028(19) -.0038(20) -.0034(22)
Mn1 Mn5+ 0.0108(3) 0.0099(3) 0.0079(3) 0 -.0008(3) 0
Mn2 Mn5+ 0.0080(2) 0.0103(2) 0.0086(2) -.0003(1) 0.0001(2) -.0007(2)
Mn3 Mn5+ 0.0086(3) 0.0092(3) 0.0075(3) 0 0.0000(2) 0
Na1 Na1+ 0.0269(6) 0.0318(7) 0.0276(6) -.0010(5) 0.0044(6) -.0021(6)
Na2 Na1+ 0.0286(6) 0.0294(7) 0.0247(6) 0.0029(5) 0.0001(5) 0.0027(5)
Na3 Na1+ 0.0270(6) 0.0271(6) 0.0231(6) -.0007(5) -.0003(5) 0.0024(5)
Na4 Na1+ 0.028(1) 0.0281(11) 0.0237(9) 0 0.0039(8) 0
Na5 Na1+ 0.0292(7) 0.0225(6) 0.0352(7) 0.0017(5) 0.0088(6) 0.0013(5)
Na6 Na1+ 0.0213(10) 0.0801(18) 0.0326(11) 0 0.0036(9) 0
O1 O2- 0.0084(13) 0.0166(17) 0.0182(14) 0 -.0034(11) 0
O2 O2- 0.0123(10) 0.0244(13) 0.0129(9) 0.0048(9) 0.0037(8) 0.0004(10)
O3 O2- 0.0183(11) 0.0188(12) 0.0114(10) 0.0009(9) 0.0050(8) 0.0032(9)
O4 O2- 0.0140(14) 0.0096(14) 0.0102(12) 0 0.0000(12) 0
O5 O2- 0.0218(12) 0.0176(13) 0.0374(14) 0.0144(10) -.0116(10) -.0109(11)
O6 O2- 0.0235(12) 0.0219(13) 0.0142(11) 0.0073(10) -.0027(9) -.0072(9)
O7 O2- 0.0360(12) 0.0124(13) 0.0151(10) 0.0051(10) 0.0043(10) 0.0043(8)
O8 O2- 0.0189(16) 0.0198(18) 0.0113(15) 0 0.0061(12) 0
O9 O2- 0.0173(11) 0.0260(13) 0.0170(11) -.0138(10) 0.0002(9) -.0037(9)
O10 O2- 0.0131(15) 0.0236(20) 0.0271(18) 0 -.0059(13) 0
#End of TTdata_33761-ICSD