
#(C) 2020 by FIZ Karlsruhe - Leibniz Institute for Information Infrastructure.  All rights reserved.
data_35163-ICSD
_database_code_ICSD 35163
_audit_creation_date 1982-12-31
_chemical_name_common 'Dilithium dichromium iron(III) antimony(V) oxide'
_chemical_formula_structural 'Li2 Cr2 Fe Sb O8'
_chemical_formula_sum 'Cr2 Fe1 Li2 O8 Sb1'
_chemical_name_structure_type LiFeSnO4
_exptl_crystal_density_diffrn 4.94
_citation_title
'Hexagonal-spinel transitions in antimonates Li2 Cr(3-x) M(III)x Sb O8'
loop_
_citation_id
_citation_journal_full
_citation_year
_citation_journal_volume
_citation_page_first
_citation_page_last
_citation_journal_id_ASTM
primary 'Journal of Solid State Chemistry' 1982 44 282 289 JSSCBI
loop_
_citation_author_citation_id
_citation_author_name
primary 'Tarte, P.'
primary 'Cahay, R.'
primary 'Preudhomme, J.'
primary 'Hervieu, M.'
primary 'Choisnet, J.'
primary 'Raveau, B.'
_cell_length_a 5.867(2)
_cell_length_b 5.867(2)
_cell_length_c 9.542(5)
_cell_angle_alpha 90.
_cell_angle_beta 90.
_cell_angle_gamma 120.
_cell_volume 284.45
_cell_formula_units_Z 2
_space_group_name_H-M_alt 'P 63 m c'
_space_group_IT_number 186
loop_
_space_group_symop_id
_space_group_symop_operation_xyz
1 '-x, -x+y, z+1/2'
2 'x-y, -y, z+1/2'
3 'y, x, z+1/2'
4 'x-y, x, z+1/2'
5 'y, -x+y, z+1/2'
6 '-x, -y, z+1/2'
7 'x, x-y, z'
8 '-x+y, y, z'
9 '-y, -x, z'
10 '-x+y, -x, z'
11 '-y, x-y, z'
12 'x, y, z'
loop_
_atom_type_symbol
_atom_type_oxidation_number
Li1+ 1
Cr3+ 3
Fe3+ 3
Sb5+ 5
O2- -2
loop_
_atom_site_label
_atom_site_type_symbol
_atom_site_symmetry_multiplicity
_atom_site_Wyckoff_symbol
_atom_site_fract_x
_atom_site_fract_y
_atom_site_fract_z
_atom_site_B_iso_or_equiv
_atom_site_occupancy
Li1 Li1+ 2 b 0.3333 0.6667 -.097(6) 1. 1.
Li2 Li1+ 2 a 0 0 0.523(12) 1. 1.
Cr1 Cr3+ 6 c 0.1710(4) -.1710(4) 0.2118(6) 0.88 0.6667
Fe1 Fe3+ 6 c 0.1710(4) -.1710(4) 0.2118(6) 0.88 0.3333
Sb1 Sb5+ 2 b 0.3333 0.6667 0.4914(2) 0.57 1.
O1 O2- 2 a 0 0 0.310(3) 2.74 1.
O2 O2- 2 b 0.3333 0.6667 0.101(4) 0.1 1.
O3 O2- 6 c 0.475(1) -.475(1) 0.365(4) 2.73 1.
O4 O2- 6 c 0.171(2) -.171(2) 0.598(5) 1.23 1.
#End of TTdata_35163-ICSD