
#(C) 2020 by FIZ Karlsruhe - Leibniz Institute for Information Infrastructure.  All rights reserved.
data_35161-ICSD
_database_code_ICSD 35161
_audit_creation_date 1982-12-31
_chemical_name_common 'Dilithium dichromium aluminium antimony(V) oxide'
_chemical_formula_structural 'Li2 Cr2 Al Sb O8'
_chemical_formula_sum 'Al1 Cr2 Li2 O8 Sb1'
_chemical_name_structure_type LiFeSnO4
_exptl_crystal_density_diffrn 4.76
_citation_title
'Hexagonal-spinel transitions in antimonates Li2 Cr(3-x) M(III)x Sb O8'
loop_
_citation_id
_citation_journal_full
_citation_year
_citation_journal_volume
_citation_page_first
_citation_page_last
_citation_journal_id_ASTM
primary 'Journal of Solid State Chemistry' 1982 44 282 289 JSSCBI
loop_
_citation_author_citation_id
_citation_author_name
primary 'Tarte, P.'
primary 'Cahay, R.'
primary 'Preudhomme, J.'
primary 'Hervieu, M.'
primary 'Choisnet, J.'
primary 'Raveau, B.'
_cell_length_a 5.796(2)
_cell_length_b 5.796(2)
_cell_length_c 9.466(5)
_cell_angle_alpha 90.
_cell_angle_beta 90.
_cell_angle_gamma 120.
_cell_volume 275.39
_cell_formula_units_Z 2
_space_group_name_H-M_alt 'P 63 m c'
_space_group_IT_number 186
loop_
_space_group_symop_id
_space_group_symop_operation_xyz
1 '-x, -x+y, z+1/2'
2 'x-y, -y, z+1/2'
3 'y, x, z+1/2'
4 'x-y, x, z+1/2'
5 'y, -x+y, z+1/2'
6 '-x, -y, z+1/2'
7 'x, x-y, z'
8 '-x+y, y, z'
9 '-y, -x, z'
10 '-x+y, -x, z'
11 '-y, x-y, z'
12 'x, y, z'
loop_
_atom_type_symbol
_atom_type_oxidation_number
Li1+ 1
Cr3+ 3
Al3+ 3
Sb5+ 5
O2- -2
loop_
_atom_site_label
_atom_site_type_symbol
_atom_site_symmetry_multiplicity
_atom_site_Wyckoff_symbol
_atom_site_fract_x
_atom_site_fract_y
_atom_site_fract_z
_atom_site_B_iso_or_equiv
_atom_site_occupancy
Li1 Li1+ 2 b 0.3333 0.6667 -.116(10) 1. 1.
Li2 Li1+ 2 a 0 0 0.512(16) 1. 1.
Cr1 Cr3+ 6 c 0.1724(8) -.1724(8) 0.2151(8) 0.35 0.6667
Al1 Al3+ 6 c 0.1724(8) -.1724(8) 0.2151(8) 0.35 0.3333
Sb1 Sb5+ 2 b 0.3333 0.6667 0.4910(2) 0.15 1.
O1 O2- 2 a 0 0 0.302(5) 2.2 1.
O2 O2- 2 b 0.3333 0.6667 0.090(4) 1.2 1.
O3 O2- 6 c 0.482(1) -.482(1) 0.346(4) 1.95 1.
O4 O2- 6 c 0.165(3) -.165(3) 0.596(4) 0.7 1.
#End of TTdata_35161-ICSD