
#(C) 2020 by FIZ Karlsruhe - Leibniz Institute for Information Infrastructure.  All rights reserved.
data_35168-ICSD
_database_code_ICSD 35168
_audit_creation_date 1982-12-31
_audit_update_record 2015-02-01
_chemical_name_common 'Lithium tris(silicate) phosphate'
_chemical_formula_structural '(Li15 (Si O4)3 (P O4)).5'
_chemical_formula_sum 'Li7.5 O8 P0.5 Si1.5'
_chemical_name_structure_type Li15(SiO4)3PO4
_exptl_crystal_density_diffrn 2.38
_citation_title

;
The crystal structure of Li3.75 Si.75 P.25 O4 and ionic conductivity in
tetrahedral structures
;
loop_
_citation_id
_citation_journal_full
_citation_year
_citation_journal_volume
_citation_page_first
_citation_page_last
_citation_journal_id_ASTM
primary 'Journal of Solid State Chemistry' 1982 44 50 59 JSSCBI
loop_
_citation_author_citation_id
_citation_author_name
primary 'Baur, W.H.'
primary 'Ohta, T.'
_cell_length_a 5.1157(6)
_cell_length_b 6.1162(9)
_cell_length_c 5.3088(8)
_cell_angle_alpha 90.
_cell_angle_beta 90.40(1)
_cell_angle_gamma 90.
_cell_volume 166.1
_cell_formula_units_Z 1
_space_group_name_H-M_alt 'P 1 21/m 1'
_space_group_IT_number 11
loop_
_space_group_symop_id
_space_group_symop_operation_xyz
1 'x, -y+1/2, z'
2 '-x, -y, -z'
3 '-x, y+1/2, -z'
4 'x, y, z'
loop_
_atom_type_symbol
_atom_type_oxidation_number
Si4+ 4
P5+ 5
O2- -2
Li1+ 1
loop_
_atom_site_label
_atom_site_type_symbol
_atom_site_symmetry_multiplicity
_atom_site_Wyckoff_symbol
_atom_site_fract_x
_atom_site_fract_y
_atom_site_fract_z
_atom_site_B_iso_or_equiv
_atom_site_occupancy
Si1 Si4+ 2 e 0.6696(2) 0.25 0.3252(2) . 0.75
P1 P5+ 2 e 0.6696(2) 0.25 0.3252(2) . 0.25
O1 O2- 4 f 0.7763(3) 0.0334(3) 0.1863(3) . 1.
O2 O2- 2 e 0.3531(4) 0.25 0.3162(4) . 1.
O3 O2- 2 e 0.7705(4) 0.25 0.6143(4) . 1.
Li1 Li1+ 4 f 0.174(1) 0.003(1) 0.175(1) 1.0(2) 0.59(2)
Li2 Li1+ 2 e 0.396(6) 0.25 0.703(5) 1.5(2) 0.20(2)
Li3 Li1+ 2 e 0.179(2) 0.25 0.638(2) 2.1(4) 0.56(4)
Li4 Li1+ 4 f 0.398(2) 0.963(3) 0.148(3) 2.7(3) 0.44(3)
Li5 Li1+ 4 f 0.066(4) 0.051(5) 0.459(5) 2.0(3) 0.20(3)
Li6 Li1+ 2 e 0.031(6) 0.25 0.988(6) 1.5(2) 0.21(2)
#End of TTdata_35168-ICSD