
#(C) 2020 by FIZ Karlsruhe - Leibniz Institute for Information Infrastructure.  All rights reserved.
data_35162-ICSD
_database_code_ICSD 35162
_audit_creation_date 1982-12-31
_chemical_name_common 'Dilithium chromium dialuminium antimony(V) oxide'
_chemical_formula_structural 'Li2 Cr Al2 Sb O8'
_chemical_formula_sum 'Al2 Cr1 Li2 O8 Sb1'
_chemical_name_structure_type LiFeSnO4
_exptl_crystal_density_diffrn 4.64
_citation_title
'Hexagonal-spinel transitions in antimonates Li2 Cr(3-x) M(III)x Sb O8'
loop_
_citation_id
_citation_journal_full
_citation_year
_citation_journal_volume
_citation_page_first
_citation_page_last
_citation_journal_id_ASTM
primary 'Journal of Solid State Chemistry' 1982 44 282 289 JSSCBI
loop_
_citation_author_citation_id
_citation_author_name
primary 'Tarte, P.'
primary 'Cahay, R.'
primary 'Preudhomme, J.'
primary 'Hervieu, M.'
primary 'Choisnet, J.'
primary 'Raveau, B.'
_cell_length_a 5.703(2)
_cell_length_b 5.703(2)
_cell_length_c 9.392(5)
_cell_angle_alpha 90.
_cell_angle_beta 90.
_cell_angle_gamma 120.
_cell_volume 264.54
_cell_formula_units_Z 2
_space_group_name_H-M_alt 'P 63 m c'
_space_group_IT_number 186
loop_
_space_group_symop_id
_space_group_symop_operation_xyz
1 '-x, -x+y, z+1/2'
2 'x-y, -y, z+1/2'
3 'y, x, z+1/2'
4 'x-y, x, z+1/2'
5 'y, -x+y, z+1/2'
6 '-x, -y, z+1/2'
7 'x, x-y, z'
8 '-x+y, y, z'
9 '-y, -x, z'
10 '-x+y, -x, z'
11 '-y, x-y, z'
12 'x, y, z'
loop_
_atom_type_symbol
_atom_type_oxidation_number
Li1+ 1
Cr3+ 3
Al3+ 3
Sb5+ 5
O2- -2
loop_
_atom_site_label
_atom_site_type_symbol
_atom_site_symmetry_multiplicity
_atom_site_Wyckoff_symbol
_atom_site_fract_x
_atom_site_fract_y
_atom_site_fract_z
_atom_site_B_iso_or_equiv
_atom_site_occupancy
Li1 Li1+ 2 b 0.3333 0.6667 -.076(14) 1. 1.
Li2 Li1+ 2 a 0 0 0.555(13) 1. 1.
Cr1 Cr3+ 6 c 0.1660(4) -.1660(4) 0.2503(9) 0.1 0.3333
Al1 Al3+ 6 c 0.1660(4) -.1660(4) 0.2503(9) 0.1 0.6667
Sb1 Sb5+ 2 b 0.3333 0.6667 0.5202(1) 0.38 1.
O1 O2- 2 a 0 0 0.338(3) 2.94 1.
O2 O2- 2 b 0.3333 0.6667 0.165(3) 1.27 1.
O3 O2- 6 c 0.490(1) -.490(1) 0.389(3) 2.12 1.
O4 O2- 6 c 0.171(1) -.171(1) 0.652(7) 0.85 1.
#End of TTdata_35162-ICSD