
#(C) 2020 by FIZ Karlsruhe - Leibniz Institute for Information Infrastructure.  All rights reserved.
data_35290-ICSD
_database_code_ICSD 35290
_audit_creation_date 1983-12-31
_audit_update_record 2012-02-01
_chemical_name_common 'Dipotassium trilithium gallate'
_chemical_formula_structural 'K2 Li3 (Ga O4)'
_chemical_formula_sum 'Ga1 K2 Li3 O4'
_chemical_name_structure_type K2Li3GaO4
_exptl_crystal_density_diffrn 3.12
_citation_title
'Ein neues kationenreiches Oxogallat. Zur Kenntnis von K2 Li3 Ga O4'
loop_
_citation_id
_citation_journal_full
_citation_year
_citation_journal_volume
_citation_page_first
_citation_page_last
_citation_journal_id_ASTM
primary

;
Zeitschrift fuer Naturforschung, Teil B: Anorganische Chemie, Organische
Chemie
; 1983 38 130 138 ZNBAD2
loop_
_citation_author_citation_id
_citation_author_name
primary 'Koehler, J.'
primary 'Hoppe, R.'
_cell_length_a 5.536(2)
_cell_length_b 8.804(3)
_cell_length_c 10.931(4)
_cell_angle_alpha 90.
_cell_angle_beta 111.52(3)
_cell_angle_gamma 90.
_cell_volume 495.63
_cell_formula_units_Z 4
_space_group_name_H-M_alt 'P 1 21/c 1'
_space_group_IT_number 14
loop_
_space_group_symop_id
_space_group_symop_operation_xyz
1 'x, -y+1/2, z+1/2'
2 '-x, -y, -z'
3 '-x, y+1/2, -z+1/2'
4 'x, y, z'
loop_
_atom_type_symbol
_atom_type_oxidation_number
Li1+ 1
O2- -2
Ga3+ 3
K1+ 1
loop_
_atom_site_label
_atom_site_type_symbol
_atom_site_symmetry_multiplicity
_atom_site_Wyckoff_symbol
_atom_site_fract_x
_atom_site_fract_y
_atom_site_fract_z
_atom_site_B_iso_or_equiv
_atom_site_occupancy
Li1 Li1+ 4 e 0.6177(14) 0.7391(9) 0.2021(8) . 1.
Li2 Li1+ 4 e 0.9065(14) 0.9622(2) 0.2958(7) . 1.
Li3 Li1+ 4 e 0.3722(14) 0.5107(9) 0.0687(8) . 1.
O1 O2- 4 e 0.2509(6) 0.6781(4) 0.1417(3) . 1.
O2 O2- 4 e 0.7679(6) 0.8099(4) 0.3808(3) . 1.
O3 O2- 4 e 0.7833(6) 0.8904(4) 0.1139(3) . 1.
O4 O2- 4 e 0.7441(6) 0.9483(3) 0.6240(3) . 1.
Ga1 Ga3+ 4 e 0.8978(1) 0.7890(1) 0.5633 . 1.
K1 K1+ 4 e 0.7193(2) 0.2753(1) 0.6077(1) . 1.
K2 K1+ 4 e 0.7029(2) 0.4930(1) 0.3612(1) . 1.
loop_
_atom_site_aniso_label
_atom_site_aniso_type_symbol
_atom_site_aniso_U_11
_atom_site_aniso_U_22
_atom_site_aniso_U_33
_atom_site_aniso_U_12
_atom_site_aniso_U_13
_atom_site_aniso_U_23
Li1 Li1+ 0.0131(21) 0.0125(21) 0.0139(21) 0.0004(20) 0.0056(19) -.0006(20)
Li2 Li1+ 0.0201(21) 0.0128(21) 0.0071(20) -.0084(20) 0.0058(18) -.0037(19)
Li3 Li1+ 0.0118(21) 0.0141(21) 0.0125(21) -.0015(19) 0.0026(19) 0.0022(19)
O1 O2- 0.0072(12) 0.0113(12) 0.0076(12) -.0002(10) -.0001(10) -.0034(10)
O2 O2- 0.0136(13) 0.0104(12) 0.0011(1) -.0009(11) 0.0006(10) -.0006(10)
O3 O2- 0.0158(13) 0.0091(12) 0.0041(11) 0.0015(11) 0.003(1) -.0013(10)
O4 O2- 0.0072(12) 0.0071(12) 0.0067(12) -.0001(10) 0.001(1) -.0015(10)
Ga1 Ga3+ 0.0061(2) 0.0064(2) 0.0010(2) -.0001(2) -.0012(2) -.0001(1)
K1 K1+ 0.0162(5) 0.0178(5) 0.0094(4) -.0002(4) 0.0047(4) -.0021(4)
K2 K1+ 0.0173(5) 0.0102(4) 0.0107(4) 0.0006(4) 0.0033(4) 0.0016(3)
#End of TTdata_35290-ICSD