
#(C) 2020 by FIZ Karlsruhe - Leibniz Institute for Information Infrastructure.  All rights reserved.
data_36471-ICSD
_database_code_ICSD 36471
_audit_creation_date 1985-06-18
_audit_update_record 2012-08-01
_chemical_name_common 'Lithium potassium sulfate(VI)'
_chemical_formula_structural 'Li K (S O4)'
_chemical_formula_sum 'K1 Li1 O4 S1'
_chemical_name_structure_type KLiSO4
_exptl_crystal_density_diffrn 2.37
_diffrn_ambient_temperature 398.
_citation_title 'Crystal structure of K Li S O4 as a function of temperature'
loop_
_citation_id
_citation_journal_full
_citation_year
_citation_journal_volume
_citation_page_first
_citation_page_last
_citation_journal_id_ASTM
primary 'Acta Crystallographica, Section B: Structural Science' 1985 41 21 26
ASBSDK
loop_
_citation_author_citation_id
_citation_author_name
primary 'Schulz, H.'
primary 'Zucker, U.'
primary 'Frech, R.E.'
_cell_length_a 5.160(3)
_cell_length_b 5.160(3)
_cell_length_c 8.634(4)
_cell_angle_alpha 90.
_cell_angle_beta 90.
_cell_angle_gamma 120.
_cell_volume 199.09
_cell_formula_units_Z 2
_space_group_name_H-M_alt 'P 63'
_space_group_IT_number 173
loop_
_space_group_symop_id
_space_group_symop_operation_xyz
1 'x-y, x, z+1/2'
2 'y, -x+y, z+1/2'
3 '-x, -y, z+1/2'
4 '-x+y, -x, z'
5 '-y, x-y, z'
6 'x, y, z'
loop_
_atom_type_symbol
_atom_type_oxidation_number
K1+ 1
S6+ 6
O2- -2
Li1+ 1
loop_
_atom_site_label
_atom_site_type_symbol
_atom_site_symmetry_multiplicity
_atom_site_Wyckoff_symbol
_atom_site_fract_x
_atom_site_fract_y
_atom_site_fract_z
_atom_site_B_iso_or_equiv
_atom_site_occupancy
K1 K1+ 2 a 0 0 0 . 1.
S1 S6+ 2 b 0.3333 0.6667 0.20683(9) . 1.
O1 O2- 2 b 0.3333 0.6667 0.0398(9) . 1.
O2 O2- 6 c 0.3494(5) 0.9395(5) 0.2638(6) . 1.
Li1 Li1+ 2 b 0.6667 0.3333 0.3221(19) . 1.
#End of TTdata_36471-ICSD