
#(C) 2020 by FIZ Karlsruhe - Leibniz Institute for Information Infrastructure.  All rights reserved.
data_36532-ICSD
_database_code_ICSD 36532
_audit_creation_date 1992-08-20
_chemical_name_common 'Dicesium dilithium germanate'
_chemical_formula_structural 'Cs2 Li2 (Ge O4)'
_chemical_formula_sum 'Cs2 Ge1 Li2 O4'
_chemical_name_structure_type Na4SiO4#K4SnO4
_exptl_crystal_density_diffrn 4.59
_citation_title 'Ueber Cs2Li2(GeO4)'
loop_
_citation_id
_citation_journal_full
_citation_year
_citation_journal_volume
_citation_page_first
_citation_page_last
_citation_journal_id_ASTM
primary 'Zeitschrift fuer Anorganische und Allgemeine Chemie (1950) (DE)' 1991
605 43 50 ZAACAB
loop_
_citation_author_citation_id
_citation_author_name
primary 'Hofmann, J.'
primary 'Hoppe, R.'
_cell_length_a 9.687(4)
_cell_length_b 5.860(2)
_cell_length_c 5.713(2)
_cell_angle_alpha 92.71(4)
_cell_angle_beta 110.95(3)
_cell_angle_gamma 94.34(4)
_cell_volume 301.03
_cell_formula_units_Z 2
_space_group_name_H-M_alt 'P -1'
_space_group_IT_number 2
loop_
_space_group_symop_id
_space_group_symop_operation_xyz
1 '-x, -y, -z'
2 'x, y, z'
loop_
_atom_type_symbol
_atom_type_oxidation_number
Cs1+ 1
Ge4+ 4
Li1+ 1
O2- -2
loop_
_atom_site_label
_atom_site_type_symbol
_atom_site_symmetry_multiplicity
_atom_site_Wyckoff_symbol
_atom_site_fract_x
_atom_site_fract_y
_atom_site_fract_z
_atom_site_B_iso_or_equiv
_atom_site_occupancy
Cs1 Cs1+ 2 i 0.2805(1) 0.8498(1) 0.8075(1) . 1.
Cs2 Cs1+ 2 i 0.0170(1) 0.2715(1) 0.8050(1) . 1.
Ge1 Ge4+ 2 i 0.2900(1) 0.3178(1) 0.4347(2) . 1.
Li1 Li1+ 2 i 0.5777(15) 0.5861(25) 0.8769(29) . 1.
Li2 Li1+ 2 i 0.4359(16) 0.8153(22) 0.3814(27) . 1.
O1 O2- 2 i 0.3975(7) 0.3613(9) 0.7597(10) . 1.
O2 O2- 2 i 0.2885(6) 0.5684(9) 0.2743(11) . 1.
O3 O2- 2 i 0.3927(6) 0.1397(9) 0.3100(11) . 1.
O4 O2- 2 i 0.8905(7) 0.7971(10) 0.6199(12) . 1.
loop_
_atom_site_aniso_label
_atom_site_aniso_type_symbol
_atom_site_aniso_U_11
_atom_site_aniso_U_22
_atom_site_aniso_U_33
_atom_site_aniso_U_12
_atom_site_aniso_U_13
_atom_site_aniso_U_23
Cs1 Cs1+ 0.0322(3) 0.0144(2) 0.0180(3) 0.0037(2) 0.0059(2) 0.0032(2)
Cs2 Cs1+ 0.0220(3) 0.0194(3) 0.0167(3) 0.0031(2) 0.0052(2) -.0013(2)
Ge1 Ge4+ 0.0139(4) 0.0077(3) 0.0104(4) -.0011(3) 0.0044(3) 0.0023(3)
Li1 Li1+ 0.0081(65) 0.0248(73) 0.0238(83) -.0045(54) 0.0043(60) 0.0081(62)
Li2 Li1+ 0.0158(68) 0.0080(56) 0.0153(68) -.0023(49) -.0030(55) -.0046(49)
O1 O2- 0.0237(31) 0.0182(27) 0.0089(26) -.0046(23) 0.0054(23) 0.0003(21)
O2 O2- 0.0193(29) 0.0088(23) 0.0246(32) 0.0002(21) 0.0079(25) 0.0107(22)
O3 O2- 0.0221(30) 0.0135(25) 0.0138(28) 0.0014(22) 0.0063(24) 0.0023(21)
O4 O2- 0.0173(29) 0.0225(30) 0.0221(32) -.0092(24) 0.0072(25) -.0025(24)
#End of TTdata_36532-ICSD