
#(C) 2020 by FIZ Karlsruhe - Leibniz Institute for Information Infrastructure.  All rights reserved.
data_38324-ICSD
_database_code_ICSD 38324
_audit_creation_date 1984-12-31
_chemical_name_common 'Trilithium potassium germanate'
_chemical_formula_structural 'Li3 K Ge O4'
_chemical_formula_sum 'Ge1 K1 Li3 O4'
_chemical_name_structure_type CsNa3TiO4
_exptl_crystal_density_diffrn 3.14
_citation_title

;
Ueber Oxide des neuen Formeltyps A (T4 O4): Zur Kenntnis von K Li3 Ge O4, K
Li3 Si O4 und K Li3 Ti O4
;
loop_
_citation_id
_citation_journal_full
_citation_year
_citation_journal_volume
_citation_page_first
_citation_page_last
_citation_journal_id_ASTM
primary 'Zeitschrift fuer Anorganische und Allgemeine Chemie (1950) (DE)' 1984
509 7 22 ZAACAB
loop_
_citation_author_citation_id
_citation_author_name
primary 'Werthmann, R.'
primary 'Hoppe, R.'
_cell_length_a 10.278(2)
_cell_length_b 7.511(1)
_cell_length_c 5.849(1)
_cell_angle_alpha 100.327(18)
_cell_angle_beta 110.070(19)
_cell_angle_gamma 90.319(17)
_cell_volume 416.14
_cell_formula_units_Z 4
_space_group_name_H-M_alt 'P -1'
_space_group_IT_number 2
loop_
_space_group_symop_id
_space_group_symop_operation_xyz
1 '-x, -y, -z'
2 'x, y, z'
loop_
_atom_type_symbol
_atom_type_oxidation_number
Ge4+ 4
K1+ 1
Li1+ 1
O2- -2
loop_
_atom_site_label
_atom_site_type_symbol
_atom_site_symmetry_multiplicity
_atom_site_Wyckoff_symbol
_atom_site_fract_x
_atom_site_fract_y
_atom_site_fract_z
_atom_site_B_iso_or_equiv
_atom_site_occupancy
Ge1 Ge4+ 2 i 0.1488(1) 0.7933(2) 0.8137(3) . 1.
Ge2 Ge4+ 2 i 0.3653(1) 0.2898(2) 0.4244(3) . 1.
K1 K1+ 2 i 0.1281(3) 0.3577(4) 0.6739(7) . 1.
K2 K1+ 2 i 0.3853(3) 0.1163(4) 0.8868(6) . 1.
Li1 Li1+ 2 i 0.3964(25) 0.5608(36) 0.0967(60) . 1.
Li2 Li1+ 2 i 0.3705(26) 0.9223(33) 0.3384(60) . 1.
Li3 Li1+ 2 i 0.1040(25) 0.9454(34) 0.4153(56) . 1.
Li4 Li1+ 2 i 0.1230(24) 0.5492(31) 0.1862(49) . 1.
Li5 Li1+ 2 i 0.6452(24) 0.3268(31) 0.3451(49) . 1.
Li6 Li1+ 2 i 0.1107(27) 0.1742(33) 0.0908(49) . 1.
O1 O2- 2 i 0.2440(9) 0.1097(11) 0.3987(18) . 1.
O2 O2- 2 i 0.5084(9) 0.1759(12) 0.3903(18) . 1.
O3 O2- 2 i 0.2791(9) 0.3967(12) 0.1765(18) . 1.
O4 O2- 2 i 0.0897(9) 0.0117(12) 0.7867(19) . 1.
O5 O2- 2 i 0.6772(9) 0.2109(12) 0.9950(18) . 1.
O6 O2- 2 i 0.0363(9) 0.6623(12) 0.8982(18) . 1.
O7 O2- 2 i 0.8474(9) 0.2943(11) 0.4859(18) . 1.
O8 O2- 2 i 0.4058(9) 0.4327(13) 0.7141(19) . 1.
loop_
_atom_site_aniso_label
_atom_site_aniso_type_symbol
_atom_site_aniso_U_11
_atom_site_aniso_U_22
_atom_site_aniso_U_33
_atom_site_aniso_U_12
_atom_site_aniso_U_13
_atom_site_aniso_U_23
Ge1 Ge4+ 0.0204(8) 0.0154(8) 0.0285(9) 0.0005(6) 0.0128(7) 0.0057(6)
Ge2 Ge4+ 0.0202(8) 0.0162(8) 0.0285(9) -.0001(6) 0.0124(7) 0.0052(7)
K1 K1+ 0.0254(16) 0.0232(16) 0.0380(21) 0.0007(13) 0.0150(16) 0.0048(15)
K2 K1+ 0.0310(17) 0.0245(16) 0.0344(20) 0.0025(13) 0.0167(16) 0.0100(15)
Li1 Li1+ 0.021(13) 0.039(15) 0.069(22) 0.011(11) 0.021(14) 0.028(15)
Li2 Li1+ 0.031(14) 0.025(14) 0.065(21) 0.011(11) 0.025(15) 0.008(14)
Li3 Li1+ 0.024(13) 0.031(14) 0.058(20) 0.004(11) 0.023(14) 0.016(14)
Li4 Li1+ 0.029(13) 0.020(12) 0.035(15) 0.0003(97) 0.016(12) 0.008(11)
Li5 Li1+ 0.027(13) 0.020(12) 0.045(17) 0.0069(97) 0.023(13) 0.017(12)
Li6 Li1+ 0.041(15) 0.030(14) 0.033(16) 0.014(12) 0.020(13) 0.011(12)
O1 O2- 0.0241(51) 0.0167(46) 0.0316(61) -.0047(39) 0.0166(47) 0.0066(44)
O2 O2- 0.0203(48) 0.0210(49) 0.0322(61) 0.0042(19) 0.0130(46) 0.0107(45)
O3 O2- 0.0240(51) 0.0241(52) 0.0337(64) 0.0035(41) 0.0152(48) 0.0093(47)
O4 O2- 0.0229(52) 0.0192(49) 0.0382(66) 0.0031(40) 0.0132(49) 0.0083(47)
O5 O2- 0.0228(50) 0.0197(49) 0.0317(61) 0.0035(40) 0.0139(48) 0.0084(56)
O6 O2- 0.0228(50) 0.0245(52) 0.0351(64) 0.0033(41) 0.0193(49) 0.0101(47)
O7 O2- 0.0239(50) 0.0193(49) 0.0269(60) -.0019(40) 0.0107(47) 0.0063(44)
O8 O2- 0.0234(51) 0.0259(53) 0.0309(63) 0.0000(41) 0.0074(48) 0.0010(47)
#End of TTdata_38324-ICSD