
#(C) 2020 by FIZ Karlsruhe - Leibniz Institute for Information Infrastructure.  All rights reserved.
data_39403-ICSD
_database_code_ICSD 39403
_audit_creation_date 1992-01-20
_audit_update_record 2010-08-01
_chemical_name_common 'Rubidium lithium chromate(VI)'
_chemical_formula_structural 'Rb Li (Cr O4)'
_chemical_formula_sum 'Cr1 Li1 O4 Rb1'
_chemical_name_structure_type KLiSO4(P31C)
_exptl_crystal_density_diffrn 2.98
_citation_title
'Crystal structure of new pyroelectric Rb Li Cr O4 at room temperature.'
loop_
_citation_id
_citation_journal_full
_citation_year
_citation_journal_volume
_citation_page_first
_citation_page_last
_citation_journal_id_ASTM
primary Kristallografiya 1991 36 326 329 KRISAJ
loop_
_citation_author_citation_id
_citation_author_name
primary 'Makarova, I.I.'
primary 'Aleksandrov, K.S.'
primary 'Vasil'ev, A.D. (Vasilev, A.D.)'
primary 'Kruglik, A.I.'
primary 'Simonov, V.I.'
_cell_length_a 5.40212(9)
_cell_length_b 5.4021(9)
_cell_length_c 9.1753(11)
_cell_angle_alpha 90.
_cell_angle_beta 90.
_cell_angle_gamma 120.
_cell_volume 231.89
_cell_formula_units_Z 2
_space_group_name_H-M_alt 'P 3 1 c'
_space_group_IT_number 159
loop_
_space_group_symop_id
_space_group_symop_operation_xyz
1 '-x, -x+y, z+1/2'
2 'x-y, -y, z+1/2'
3 'y, x, z+1/2'
4 '-x+y, -x, z'
5 '-y, x-y, z'
6 'x, y, z'
loop_
_atom_type_symbol
_atom_type_oxidation_number
Rb1+ 1
Li1+ 1
Cr6+ 6
O2- -2
loop_
_atom_site_label
_atom_site_type_symbol
_atom_site_symmetry_multiplicity
_atom_site_Wyckoff_symbol
_atom_site_fract_x
_atom_site_fract_y
_atom_site_fract_z
_atom_site_B_iso_or_equiv
_atom_site_occupancy
Rb1 Rb1+ 2 a 0 0 0 1.850(8) 1.
Li1 Li1+ 2 b 0.3333 0.6667 0.1824(9) 2.6(2) 1.
Cr1 Cr6+ 2 b 0.3333 0.6667 0.7951(1) 1.010(8) 1.
O1 O2- 2 b 0.3333 0.6667 0.9731(4) 2.85(6) 1.
O2 O2- 6 c 0.3490(5) 0.3864(5) 0.7387(4) 2.34(4) 1.
#End of TTdata_39403-ICSD