
#(C) 2020 by FIZ Karlsruhe - Leibniz Institute for Information Infrastructure.  All rights reserved.
data_39563-ICSD
_database_code_ICSD 39563
_audit_creation_date 1993-08-22
_audit_update_record 2010-02-01
_chemical_name_common 'Lithium yttrium fluoride'
_chemical_formula_structural 'Li Y F4'
_chemical_formula_sum 'F4 Li1 Y1'
_chemical_name_structure_type Scheelite#CaWO4#NaAlH4
_exptl_crystal_density_diffrn 3.97
_citation_title 'Crystal structure of Li Y F4.'
loop_
_citation_id
_citation_journal_full
_citation_year
_citation_journal_volume
_citation_page_first
_citation_page_last
_citation_journal_id_ASTM
primary 'Zhurnal Neorganicheskoi Khimii' 1992 37 276 279 ZNOKAQ
loop_
_citation_author_citation_id
_citation_author_name
primary 'Goryunov, A.V.'
primary 'Popov, A.I.'
_cell_length_a 5.1710(5)
_cell_length_b 5.1710(5)
_cell_length_c 10.7484(5)
_cell_angle_alpha 90.
_cell_angle_beta 90.
_cell_angle_gamma 90.
_cell_volume 287.4
_cell_formula_units_Z 4
_space_group_name_H-M_alt 'I 41/a Z'
_space_group_IT_number 88
loop_
_space_group_symop_id
_space_group_symop_operation_xyz
1 '-y+3/4, x+3/4, -z+3/4'
2 'y+1/4, -x+3/4, -z+3/4'
3 'x, y+1/2, -z'
4 '-x, -y, -z'
5 'y+1/4, -x+1/4, z+1/4'
6 '-y+3/4, x+1/4, z+1/4'
7 '-x, -y+1/2, z'
8 'x, y, z'
9 '-y+1/4, x+1/4, -z+1/4'
10 'y+3/4, -x+1/4, -z+1/4'
11 'x+1/2, y, -z+1/2'
12 '-x+1/2, -y+1/2, -z+1/2'
13 'y+3/4, -x+3/4, z+3/4'
14 '-y+1/4, x+3/4, z+3/4'
15 '-x+1/2, -y, z+1/2'
16 'x+1/2, y+1/2, z+1/2'
loop_
_atom_type_symbol
_atom_type_oxidation_number
Li1+ 1
Y3+ 3
F1- -1
loop_
_atom_site_label
_atom_site_type_symbol
_atom_site_symmetry_multiplicity
_atom_site_Wyckoff_symbol
_atom_site_fract_x
_atom_site_fract_y
_atom_site_fract_z
_atom_site_B_iso_or_equiv
_atom_site_occupancy
Li1 Li1+ 4 a 0 0.25 0.125 . 1.
Y1 Y3+ 4 b 0.5 0.75 0.125 . 1.
F1 F1- 16 f 0.2815(1) 0.0854(1) 0.0437(1) . 1.
loop_
_atom_site_aniso_label
_atom_site_aniso_type_symbol
_atom_site_aniso_U_11
_atom_site_aniso_U_22
_atom_site_aniso_U_33
_atom_site_aniso_U_12
_atom_site_aniso_U_13
_atom_site_aniso_U_23
Li1 Li1+ 0.013(1) 0.013(1) 0.025(3) 0 0 0
Y1 Y3+ 0.0050(1) 0.0050(1) 0.0049(1) 0 0 0
F1 F1- 0.0119(4) 0.0120(4) 0.0122(4) 0.0037(3) 0.0036(3) 0.0032(3)
#End of TTdata_39563-ICSD