
#(C) 2020 by FIZ Karlsruhe - Leibniz Institute for Information Infrastructure.  All rights reserved.
data_39674-ICSD
_database_code_ICSD 39674
_audit_creation_date 1994-01-19
_audit_update_record 2010-08-01
_chemical_name_common 'Potassium lithium tantalum oxide (0.98/0.02/1/3)'
_chemical_formula_structural 'K0.979 Li0.021 Ta O3'
_chemical_formula_sum 'K0.979 Li0.021 O3 Ta1'
_chemical_name_structure_type (K,Li)TaO3
_exptl_crystal_density_diffrn 7.
_citation_title

;
Electron density and anharmonic thermal motion of atoms in perovskites K1-x
Lix Ta O3 (x=0,0.05,0.15).
;
loop_
_citation_id
_citation_journal_full
_citation_year
_citation_journal_volume
_citation_page_first
_citation_page_last
_citation_journal_id_ASTM
primary 'Zhurnal Neorganicheskoi Khimii' 1992 37 2406 2412 ZNOKAQ
loop_
_citation_author_citation_id
_citation_author_name
primary 'Zhurova, E.A.'
primary 'Zavodnik, V.E.'
primary 'Ivanov, S.A.'
primary 'Syrnikov, P.P.'
primary 'Tsirel'son, V.G. (Tsirelson, V.G.)'
_cell_length_a 3.9879(4)
_cell_length_b 3.9879(4)
_cell_length_c 3.9879(4)
_cell_angle_alpha 90.
_cell_angle_beta 90.
_cell_angle_gamma 90.
_cell_volume 63.42
_cell_formula_units_Z 1
_space_group_name_H-M_alt 'P m -3 m'
_space_group_IT_number 221
loop_
_space_group_symop_id
_space_group_symop_operation_xyz
1 'z, y, -x'
2 'y, x, -z'
3 'x, z, -y'
4 'z, x, -y'
5 'y, z, -x'
6 'x, y, -z'
7 'z, -y, x'
8 'y, -x, z'
9 'x, -z, y'
10 'z, -x, y'
11 'y, -z, x'
12 'x, -y, z'
13 '-z, y, x'
14 '-y, x, z'
15 '-x, z, y'
16 '-z, x, y'
17 '-y, z, x'
18 '-x, y, z'
19 '-z, -y, -x'
20 '-y, -x, -z'
21 '-x, -z, -y'
22 '-z, -x, -y'
23 '-y, -z, -x'
24 '-x, -y, -z'
25 '-z, -y, x'
26 '-y, -x, z'
27 '-x, -z, y'
28 '-z, -x, y'
29 '-y, -z, x'
30 '-x, -y, z'
31 '-z, y, -x'
32 '-y, x, -z'
33 '-x, z, -y'
34 '-z, x, -y'
35 '-y, z, -x'
36 '-x, y, -z'
37 'z, -y, -x'
38 'y, -x, -z'
39 'x, -z, -y'
40 'z, -x, -y'
41 'y, -z, -x'
42 'x, -y, -z'
43 'z, y, x'
44 'y, x, z'
45 'x, z, y'
46 'z, x, y'
47 'y, z, x'
48 'x, y, z'
loop_
_atom_type_symbol
_atom_type_oxidation_number
K1+ 1
Li1+ 1
Ta5+ 5
O2- -2
loop_
_atom_site_label
_atom_site_type_symbol
_atom_site_symmetry_multiplicity
_atom_site_Wyckoff_symbol
_atom_site_fract_x
_atom_site_fract_y
_atom_site_fract_z
_atom_site_B_iso_or_equiv
_atom_site_occupancy
K1 K1+ 1 b 0.5 0.5 0.5 0.0072(2) 0.979(3)
Li1 Li1+ 6 f 0.5 0.09(4) 0.5 0.006(2) 0.0035
Ta1 Ta5+ 1 a 0 0 0 0.0032(1) 1.
O1 O2- 3 d 0.5 0 0 . 1.
#End of TTdata_39674-ICSD