
#(C) 2020 by FIZ Karlsruhe - Leibniz Institute for Information Infrastructure.  All rights reserved.
data_39814-ICSD
_database_code_ICSD 39814
_audit_creation_date 1995-01-10
_chemical_name_common 'Lithium diphosphate'
_chemical_formula_structural 'Li4 (P2 O7)'
_chemical_formula_sum 'Li4 O7 P2'
_exptl_crystal_density_diffrn 2.35
_citation_title 'Crystal structure of Li4(P2O7)'
loop_
_citation_id
_citation_journal_full
_citation_year
_citation_journal_volume
_citation_page_first
_citation_page_last
_citation_journal_id_ASTM
primary Kristallografiya 1994 39 815 820 KRISAJ
loop_
_citation_author_citation_id
_citation_author_name
primary 'Yakubovich, O.V.'
primary 'Mel'nikov, O.K. (Melnikov, O.K.)'
_cell_length_a 5.190(2)
_cell_length_b 13.902(3)
_cell_length_c 7.901(3)
_cell_angle_alpha 90.
_cell_angle_beta 89.97(3)
_cell_angle_gamma 90.
_cell_volume 570.07
_cell_formula_units_Z 4
_space_group_name_H-M_alt 'P 1 21/n 1'
_space_group_IT_number 14
loop_
_space_group_symop_id
_space_group_symop_operation_xyz
1 '-x+1/2, y+1/2, -z+1/2'
2 '-x, -y, -z'
3 'x+1/2, -y+1/2, z+1/2'
4 'x, y, z'
loop_
_atom_type_symbol
_atom_type_oxidation_number
P5+ 5
Li1+ 1
O2- -2
loop_
_atom_site_label
_atom_site_type_symbol
_atom_site_symmetry_multiplicity
_atom_site_Wyckoff_symbol
_atom_site_fract_x
_atom_site_fract_y
_atom_site_fract_z
_atom_site_B_iso_or_equiv
_atom_site_occupancy
P1 P5+ 4 e 0.1815(1) 0.66682(6) 0.26125(9) 0.54(1) 1.
P2 P5+ 4 e 0.1718(1) 0.44867(6) 0.26308(9) 0.54(1) 1.
Li1 Li1+ 4 e 0.197(1) 0.8250(5) 0.5462(7) 1.2(1) 1.
Li2 Li1+ 4 e 0.198(1) 0.7831(5) 0.9463(7) 1.2(1) 1.
Li3 Li1+ 4 e 0.182(1) 0.0567(5) 0.5588(6) 0.9(1) 1.
Li4 Li1+ 4 e 0.171(1) 0.1069(6) 0.9277(9) 2.1(1) 1.
O1 O2- 4 e 0.2005(4) 0.9468(2) 0.4109(3) 0.91(4) 1.
O2 O2- 4 e 0.1826(4) 0.1709(2) 0.4086(3) 0.85(4) 1.
O3 O2- 4 e 0.1014(4) 0.3098(2) 0.7514(3) 1.07(5) 1.
O4 O2- 4 e 0.1146(4) 0.5697(2) 0.7461(3) 1.11(5) 1.
O5 O2- 4 e 0.1889(4) 0.8895(2) 0.1066(3) 1.06(5) 1.
O6 O2- 4 e 0.2106(4) 0.5579(2) 0.3341(3) 1.19(4) 1.
O7 O2- 4 e 0.3173(4) 0.7205(2) 0.4035(3) 0.85(4) 1.
#End of TTdata_39814-ICSD