
#(C) 2020 by FIZ Karlsruhe - Leibniz Institute for Information Infrastructure.  All rights reserved.
data_40156-ICSD
_database_code_ICSD 40156
_audit_creation_date 1999-11-30
_audit_update_record 2010-02-01
_chemical_name_common 'Lithium copper(I) oxide'
_chemical_formula_structural 'Li Cu O'
_chemical_formula_sum 'Cu1 Li1 O1'
_chemical_name_structure_type LiCuO
_exptl_crystal_density_diffrn 4.16
_citation_title

;
Zur Struktur der K Ag O-Verwandschaft. Neubestimmung an A Ag O= A4 (Ag4 O4)
(A= Na-Rb) mit einer Bemerkung zu Cs Cu O
;
loop_
_citation_id
_citation_journal_full
_citation_year
_citation_journal_volume
_citation_page_first
_citation_page_last
_citation_journal_id_ASTM
primary 'Zeitschrift fuer Anorganische und Allgemeine Chemie (1950) (DE)' 1990
585 75 81 ZAACAB
loop_
_citation_author_citation_id
_citation_author_name
primary 'Fischer, D.'
primary 'Carl, W.'
primary 'Glaum, H.'
primary 'Hoppe, R.'
_cell_length_a 8.514(1)
_cell_length_b 8.514(1)
_cell_length_c 3.809
_cell_angle_alpha 90.
_cell_angle_beta 90.
_cell_angle_gamma 90.
_cell_volume 276.11
_cell_formula_units_Z 8
_space_group_name_H-M_alt 'I 4/m m m'
_space_group_IT_number 139
loop_
_space_group_symop_id
_space_group_symop_operation_xyz
1 'y, x, -z'
2 '-y, -x, -z'
3 '-y, x, -z'
4 'y, -x, -z'
5 '-x, y, -z'
6 'x, -y, -z'
7 'x, y, -z'
8 '-x, -y, -z'
9 '-y, -x, z'
10 'y, x, z'
11 'y, -x, z'
12 '-y, x, z'
13 'x, -y, z'
14 '-x, y, z'
15 '-x, -y, z'
16 'x, y, z'
17 'y+1/2, x+1/2, -z+1/2'
18 '-y+1/2, -x+1/2, -z+1/2'
19 '-y+1/2, x+1/2, -z+1/2'
20 'y+1/2, -x+1/2, -z+1/2'
21 '-x+1/2, y+1/2, -z+1/2'
22 'x+1/2, -y+1/2, -z+1/2'
23 'x+1/2, y+1/2, -z+1/2'
24 '-x+1/2, -y+1/2, -z+1/2'
25 '-y+1/2, -x+1/2, z+1/2'
26 'y+1/2, x+1/2, z+1/2'
27 'y+1/2, -x+1/2, z+1/2'
28 '-y+1/2, x+1/2, z+1/2'
29 'x+1/2, -y+1/2, z+1/2'
30 '-x+1/2, y+1/2, z+1/2'
31 '-x+1/2, -y+1/2, z+1/2'
32 'x+1/2, y+1/2, z+1/2'
loop_
_atom_type_symbol
_atom_type_oxidation_number
Cu1+ 1
Li1+ 1
O2- -2
loop_
_atom_site_label
_atom_site_type_symbol
_atom_site_symmetry_multiplicity
_atom_site_Wyckoff_symbol
_atom_site_fract_x
_atom_site_fract_y
_atom_site_fract_z
_atom_site_B_iso_or_equiv
_atom_site_occupancy
Cu1 Cu1+ 8 h 0.1569(2) 0.1569(2) 0 . 1.
Li1 Li1+ 8 j 0.5 0.1376(48) 0 . 1.
O1 O2- 8 i 0.3071(10) 0 0 . 1.
loop_
_atom_site_aniso_label
_atom_site_aniso_type_symbol
_atom_site_aniso_U_11
_atom_site_aniso_U_22
_atom_site_aniso_U_33
_atom_site_aniso_U_12
_atom_site_aniso_U_13
_atom_site_aniso_U_23
Cu1 Cu1+ 0.0073(5) 0.0073(5) 0.0115(8) 0.0034(11) 0 0
Li1 Li1+ 0.049(26) 0.031(21) 0.0244(74) 0 0 0
O1 O2- 0.0066(58) 0.0075(51) 0.0074(44) 0 0 0
#End of TTdata_40156-ICSD