
#(C) 2020 by FIZ Karlsruhe - Leibniz Institute for Information Infrastructure.  All rights reserved.
data_40218-ICSD
_database_code_ICSD 40218
_audit_creation_date 1999-11-30
_chemical_name_common 'Rubidium lithium vanadate'
_chemical_formula_structural 'Rb2 (Li V O4)'
_chemical_formula_sum 'Li1 O4 Rb2 V1'
_chemical_name_structure_type Rb2LiAsO4
_exptl_crystal_density_diffrn 3.56
_citation_title
'Ueber "Lithovanadate": Zur Kenntnis von Rb2 (Li V O4)und Cs2 (Li V O4)'
loop_
_citation_id
_citation_journal_full
_citation_year
_citation_journal_volume
_citation_page_first
_citation_page_last
_citation_journal_id_ASTM
primary 'Zeitschrift fuer Anorganische und Allgemeine Chemie (1950) (DE)' 1989
571 113 126 ZAACAB
loop_
_citation_author_citation_id
_citation_author_name
primary 'Kissel, J.'
primary 'Hoppe, R.'
_cell_length_a 5.879(1)
_cell_length_b 11.701(1)
_cell_length_c 7.933(1)
_cell_angle_alpha 90.
_cell_angle_beta 90.
_cell_angle_gamma 90.
_cell_volume 545.71
_cell_formula_units_Z 4
_space_group_name_H-M_alt 'C m c 21'
_space_group_IT_number 36
loop_
_space_group_symop_id
_space_group_symop_operation_xyz
1 'x, -y, z+1/2'
2 '-x, -y, z+1/2'
3 '-x, y, z'
4 'x, y, z'
5 'x+1/2, -y+1/2, z+1/2'
6 '-x+1/2, -y+1/2, z+1/2'
7 '-x+1/2, y+1/2, z'
8 'x+1/2, y+1/2, z'
loop_
_atom_type_symbol
_atom_type_oxidation_number
V5+ 5
Rb1+ 1
Li1+ 1
O2- -2
loop_
_atom_site_label
_atom_site_type_symbol
_atom_site_symmetry_multiplicity
_atom_site_Wyckoff_symbol
_atom_site_fract_x
_atom_site_fract_y
_atom_site_fract_z
_atom_site_B_iso_or_equiv
_atom_site_occupancy
V1 V5+ 4 a 0 0.3095(2) 0.3894(3) . 1.
Rb1 Rb1+ 4 a 0 0.3950(1) 0.9488(1) . 1.
Rb2 Rb1+ 4 a 0 0.9383(2) 0.5932(2) . 1.
Li1 Li1+ 4 a 0 0.8011(20) 0.1716(28) . 1.
O1 O2- 4 a 0 0.1650(8) 0.4236(11) . 1.
O2 O2- 4 a 0 0.3660(8) 0.5887(14) . 1.
O3 O2- 8 b 0.7639(14) 0.3552(7) 0.2817(11) . 1.
loop_
_atom_site_aniso_label
_atom_site_aniso_type_symbol
_atom_site_aniso_U_11
_atom_site_aniso_U_22
_atom_site_aniso_U_33
_atom_site_aniso_U_12
_atom_site_aniso_U_13
_atom_site_aniso_U_23
V1 V5+ 0.0116(12) 0.0117(11) 0.0111(9) 0 0 0.0001(9)
Rb1 Rb1+ 0.0189(8) 0.0230(8) 0.0176(6) 0 0 -.0002(7)
Rb2 Rb1+ 0.0184(8) 0.0204(7) 0.0204(7) 0 0 0.0027(7)
Li1 Li1+ 0.0308(89) 0.0104(58) 0.0089(24) 0 0 -.0042(82)
O1 O2- 0.0396(69) 0.0156(52) 0.0066(54) 0 0 -.0062(37)
O2 O2- 0.0244(54) 0.0204(51) 0.0140(42) 0 0 -.0001(49)
O3 O2- 0.0130(31) 0.0385(54) 0.0281(35) 0.0029(33) -.0073(32) 0.0042(39)
#End of TTdata_40218-ICSD