
#(C) 2020 by FIZ Karlsruhe - Leibniz Institute for Information Infrastructure.  All rights reserved.
data_40219-ICSD
_database_code_ICSD 40219
_audit_creation_date 1999-11-30
_chemical_name_common 'Cesium lithium vanadate'
_chemical_formula_structural 'Cs2 (Li V O4)'
_chemical_formula_sum 'Cs2 Li1 O4 V1'
_chemical_name_structure_type Rb2LiAsO4
_exptl_crystal_density_diffrn 4.23
_citation_title
'Ueber "Lithovanadate": Zur Kenntnis von Rb2 (Li V O4)und Cs2 (Li V O4)'
loop_
_citation_id
_citation_journal_full
_citation_year
_citation_journal_volume
_citation_page_first
_citation_page_last
_citation_journal_id_ASTM
primary 'Zeitschrift fuer Anorganische und Allgemeine Chemie (1950) (DE)' 1989
571 113 126 ZAACAB
loop_
_citation_author_citation_id
_citation_author_name
primary 'Kissel, J.'
primary 'Hoppe, R.'
_cell_length_a 6.105(1)
_cell_length_b 12.226(3)
_cell_length_c 8.155(2)
_cell_angle_alpha 90.
_cell_angle_beta 90.
_cell_angle_gamma 90.
_cell_volume 608.69
_cell_formula_units_Z 4
_space_group_name_H-M_alt 'C m c 21'
_space_group_IT_number 36
loop_
_space_group_symop_id
_space_group_symop_operation_xyz
1 'x, -y, z+1/2'
2 '-x, -y, z+1/2'
3 '-x, y, z'
4 'x, y, z'
5 'x+1/2, -y+1/2, z+1/2'
6 '-x+1/2, -y+1/2, z+1/2'
7 '-x+1/2, y+1/2, z'
8 'x+1/2, y+1/2, z'
loop_
_atom_type_symbol
_atom_type_oxidation_number
V5+ 5
Cs1+ 1
Li1+ 1
O2- -2
loop_
_atom_site_label
_atom_site_type_symbol
_atom_site_symmetry_multiplicity
_atom_site_Wyckoff_symbol
_atom_site_fract_x
_atom_site_fract_y
_atom_site_fract_z
_atom_site_B_iso_or_equiv
_atom_site_occupancy
V1 V5+ 4 a 0 0.3020(2) 0.3941(4) . 1.
Cs1 Cs1+ 4 a 0 0.3936(1) 0.9511(1) . 1.
Cs2 Cs1+ 4 a 0 0.9317(1) 0.5926(2) . 1.
Li1 Li1+ 4 a 0 0.8011(25) 0.1809(42) . 1.
O1 O2- 4 a 0 0.1617(10) 0.4391(20) . 1.
O2 O2- 4 a 0 0.3626(10) 0.5868(19) . 1.
O3 O2- 8 b 0.7639(14) 0.3385(8) 0.2882(61) . 1.
loop_
_atom_site_aniso_label
_atom_site_aniso_type_symbol
_atom_site_aniso_U_11
_atom_site_aniso_U_22
_atom_site_aniso_U_33
_atom_site_aniso_U_12
_atom_site_aniso_U_13
_atom_site_aniso_U_23
V1 V5+ 0.0104(13) 0.0119(14) 0.0115(13) 0 0 0.0018(11)
Cs1 Cs1+ 0.0165(6) 0.0211(6) 0.0181(6) 0 0 -.0017(6)
Cs2 Cs1+ 0.0185(6) 0.0209(6) 0.0214(6) 0 0 0.0033(6)
Li1 Li1+ 0.0292(68) 0.0136(73) 0.0166(55) 0 0 -.0234(31)
O1 O2- 0.0296(77) 0.0188(63) 0.0304(90) 0 0 -.0225(72)
O2 O2- 0.0163(53) 0.0266(60) 0.0193(63) 0 0 -.0081(49)
O3 O2- 0.0130(31) 0.0385(54) 0.0281(35) 0.0029(33) -.0073(32) 0.0042(39)
#End of TTdata_40219-ICSD