
#(C) 2020 by FIZ Karlsruhe - Leibniz Institute for Information Infrastructure.  All rights reserved.
data_40269-ICSD
_database_code_ICSD 40269
_audit_creation_date 1999-11-30
_audit_update_record 2009-02-01
_chemical_name_common 'Rubidium lithium nickel silicate (5/1/1/2)'
_chemical_formula_structural 'Rb5 Li Ni Si2 O8'
_chemical_formula_sum 'Li1 Ni1 O8 Rb5 Si2'
_exptl_crystal_density_diffrn 3.78
_citation_title 'Ein neues Lithosilicat: Rb5 Li Ni Si2 O8 = Rb5 (Li Ni Si2 O8)'
loop_
_citation_id
_citation_journal_full
_citation_year
_citation_journal_volume
_citation_page_first
_citation_page_last
_citation_journal_id_ASTM
primary 'Zeitschrift fuer Anorganische und Allgemeine Chemie (1950) (DE)' 1989
569 31 42 ZAACAB
loop_
_citation_author_citation_id
_citation_author_name
primary 'Hoffmann, R.'
primary 'Hoppe, R.'
_cell_length_a 8.600(2)
_cell_length_b 10.262(2)
_cell_length_c 13.761(3)
_cell_angle_alpha 90.
_cell_angle_beta 101.28(2)
_cell_angle_gamma 90.
_cell_volume 1190.99
_cell_formula_units_Z 4
_space_group_name_H-M_alt 'C 1 2/c 1'
_space_group_IT_number 15
loop_
_space_group_symop_id
_space_group_symop_operation_xyz
1 'x, -y, z+1/2'
2 '-x, -y, -z'
3 '-x, y, -z+1/2'
4 'x, y, z'
5 'x+1/2, -y+1/2, z+1/2'
6 '-x+1/2, -y+1/2, -z'
7 '-x+1/2, y+1/2, -z+1/2'
8 'x+1/2, y+1/2, z'
loop_
_atom_type_symbol
_atom_type_oxidation_number
Rb1+ 1
Li1+ 1
Ni2+ 2
Si4+ 4
O2- -2
loop_
_atom_site_label
_atom_site_type_symbol
_atom_site_symmetry_multiplicity
_atom_site_Wyckoff_symbol
_atom_site_fract_x
_atom_site_fract_y
_atom_site_fract_z
_atom_site_B_iso_or_equiv
_atom_site_occupancy
Rb1 Rb1+ 4 e 0 0.3668(1) 0.25 . 1.
Rb2 Rb1+ 8 f 0.2246(1) 0.3168(1) 0.8497(1) . 1.
Rb3 Rb1+ 8 f 0.3960(1) 0.3528(1) 0.4270(1) . 1.
Li1 Li1+ 4 e 0 0.9610(17) 0.75 . 1.
Ni1 Ni2+ 4 b 0 0.5 0.5 . 1.
Si1 Si4+ 8 f 0.2519(2) 0.4694(2) 0.6300(1) . 1.
O1 O2- 8 f 0.8876(6) 0.8621(5) 0.6317(4) . 1.
O2 O2- 8 f 0.7840(6) 0.5557(5) 0.9736(4) . 1.
O3 O2- 8 f 0.0724(6) 0.5901(5) 0.1203(4) . 1.
O4 O2- 8 f 0.1972(6) 0.0558(5) 0.7721(4) . 1.
loop_
_atom_site_aniso_label
_atom_site_aniso_type_symbol
_atom_site_aniso_U_11
_atom_site_aniso_U_22
_atom_site_aniso_U_33
_atom_site_aniso_U_12
_atom_site_aniso_U_13
_atom_site_aniso_U_23
Rb1 Rb1+ 0.0124(4) 0.0150(4) 0.0284(5) 0 0.0060(4) 0
Rb2 Rb1+ 0.0218(4) 0.0174(4) 0.0180(3) 0.0012(2) 0.0056(3) -.0021(2)
Rb3 Rb1+ 0.0373(4) 0.0195(4) 0.0144(3) 0.0052(3) 0.0033(3) -.0001(3)
Li1 Li1+ 0.004(7) 0.019(8) 0.018(8) 0 -.007(6) 0
Ni1 Ni2+ 0.0083(5) 0.0127(5) 0.0075(5) -.0004(4) -.0038(4) 0.0019(4)
Si1 Si4+ 0.0083(7) 0.0114(8) 0.0071(7) 0.0003(6) -.0027(6) -.0009(6)
O1 O2- 0.019(2) 0.018(2) 0.015(2) 0.006(2) -.003(2) -.004(2)
O2 O2- 0.010(2) 0.023(3) 0.013(2) 0.001(3) -.005(2) -.006(2)
O3 O2- 0.012(2) 0.018(2) 0.013(2) 0.003(2) -.005(2) -.004(2)
O4 O2- 0.009(2) 0.021(2) 0.013(2) -.003(2) -.001(2) 0.003(2)
#End of TTdata_40269-ICSD