
#(C) 2020 by FIZ Karlsruhe - Leibniz Institute for Information Infrastructure.  All rights reserved.
data_40418-ICSD
_database_code_ICSD 40418
_audit_creation_date 1999-06-02
_audit_update_record 2005-10-01
_chemical_name_common 'Trilithium thorium fluoride'
_chemical_formula_structural 'Li3 Th F7'
_chemical_formula_sum 'F7 Li3 Th1'
_exptl_crystal_density_diffrn 5.15
_citation_title 'Crystaline Li3 Th F7: X-ray diffraction and NMR studies'
loop_
_citation_id
_citation_journal_full
_citation_year
_citation_journal_volume
_citation_page_first
_citation_page_last
_citation_journal_id_ASTM
primary 'Journal of Fluorine Chemistry' 1989 42 41 50 JFLCAR
loop_
_citation_author_citation_id
_citation_author_name
primary 'Pulcinelli, S.H.'
primary 'de Almeida Santos, R.H.'
primary 'Senegas, J.'
_cell_length_a 6.200(1)
_cell_length_b 6.200(1)
_cell_length_c 12.937(2)
_cell_angle_alpha 90.
_cell_angle_beta 90.
_cell_angle_gamma 90.
_cell_volume 497.3
_cell_formula_units_Z 4
_space_group_name_H-M_alt 'P 4/n c c Z'
_space_group_IT_number 130
loop_
_space_group_symop_id
_space_group_symop_operation_xyz
1 'y+1/2, x+1/2, -z+1/2'
2 '-y, x+1/2, -z'
3 'y+1/2, -x, -z'
4 '-y, -x, -z+1/2'
5 'x+1/2, y+1/2, -z'
6 '-x, y+1/2, -z+1/2'
7 'x+1/2, -y, -z+1/2'
8 '-x, -y, -z'
9 '-y+1/2, -x+1/2, z+1/2'
10 'y, -x+1/2, z'
11 '-y+1/2, x, z'
12 'y, x, z+1/2'
13 '-x+1/2, -y+1/2, z'
14 'x, -y+1/2, z+1/2'
15 '-x+1/2, y, z+1/2'
16 'x, y, z'
loop_
_atom_type_symbol
_atom_type_oxidation_number
Th4+ 4
F1- -1
Li1+ 1
loop_
_atom_site_label
_atom_site_type_symbol
_atom_site_symmetry_multiplicity
_atom_site_Wyckoff_symbol
_atom_site_fract_x
_atom_site_fract_y
_atom_site_fract_z
_atom_site_B_iso_or_equiv
_atom_site_occupancy
Th1 Th4+ 4 c 0.25 0.25 0.1889 . 1.
F1 F1- 4 c 0.25 0.25 0.3715(4) . 1.
F2 F1- 16 g 0.1620(6) -.0382(6) 0.0760(2) . 1.
F3 F1- 8 f 0.9347(3) 0.0651(7) 0.25 . 1.
Li1 Li1+ 16 g -.037(3) 0.175(3) 0.408(1) 5.3(3) 0.559(3)
Li2 Li1+ 8 f -.70(1) 0.70(1) 0.25 7.1(4) 0.382(6)
loop_
_atom_site_aniso_label
_atom_site_aniso_type_symbol
_atom_site_aniso_U_11
_atom_site_aniso_U_22
_atom_site_aniso_U_33
_atom_site_aniso_U_12
_atom_site_aniso_U_13
_atom_site_aniso_U_23
Th1 Th4+ 0.0069(1) 0.0069(1) 0.0047(1) 0 0 0
F1 F1- 0.018(2) 0.018(2) 0.011(2) 0 0 0
F2 F1- 0.019(1) 0.021(2) 0.010(1) -.004(1) 0.004(1) -.004(1)
F3 F1- 0.015(1) 0.015(1) 0.022(2) -.005(2) -.004(6) 0.004(6)
#End of TTdata_40418-ICSD