
#(C) 2020 by FIZ Karlsruhe - Leibniz Institute for Information Infrastructure.  All rights reserved.
data_40945-ICSD
_database_code_ICSD 40945
_audit_creation_date 2000-07-15
_audit_update_record 2009-02-01
_chemical_name_common 'Cesium lithium chromate - II'
_chemical_formula_structural 'Cs Li (Cr O4)'
_chemical_formula_sum 'Cr1 Cs1 Li1 O4'
_chemical_name_structure_type CsLiBeF4
_exptl_crystal_density_diffrn 3.46
_citation_title

;
X-ray structural and optical investigations of phase transition in the crystal
of Cs Li Cr O4
;
loop_
_citation_id
_citation_journal_full
_citation_year
_citation_journal_volume
_citation_page_first
_citation_page_last
_citation_journal_id_ASTM
primary Kristallografiya 1989 34 147 153 KRISAJ
loop_
_citation_author_citation_id
_citation_author_name
primary 'Aleksandrov, K.S.'
primary 'Mel'nikova, S.V. (Melnikova, S.V.)'
primary 'Kruglik, A.I.'
primary 'Tret'yak, S.M. (Tretyak, S.M.)'
primary 'Mitkevich, V.V.'
_cell_length_a 9.744(2)
_cell_length_b 5.636(1)
_cell_length_c 8.946(3)
_cell_angle_alpha 90.
_cell_angle_beta 90.
_cell_angle_gamma 90.45(2)
_cell_volume 491.27
_cell_formula_units_Z 4
_space_group_name_H-M_alt 'P 1 1 21/n'
_space_group_IT_number 14
loop_
_space_group_symop_id
_space_group_symop_operation_xyz
1 'x+1/2, y+1/2, -z+1/2'
2 '-x, -y, -z'
3 '-x+1/2, -y+1/2, z+1/2'
4 'x, y, z'
loop_
_atom_type_symbol
_atom_type_oxidation_number
Cs1+ 1
Cr6+ 6
Li1+ 1
O2- -2
loop_
_atom_site_label
_atom_site_type_symbol
_atom_site_symmetry_multiplicity
_atom_site_Wyckoff_symbol
_atom_site_fract_x
_atom_site_fract_y
_atom_site_fract_z
_atom_site_B_iso_or_equiv
_atom_site_occupancy
Cs1 Cs1+ 4 e 0.7794(1) 0.2349(1) 0.0022(1) 2.16(2) 1.
Cr1 Cr6+ 4 e 0.5749(1) 0.7597(1) 0.7906(1) 1.12(2) 1.
Li1 Li1+ 4 e 0.9118(8) 0.7636(14) 0.6848(8) 2.75(2) 1.
O1 O2- 4 e 0.5741(5) 0.7521(7) 0.9721(4) 3.23(2) 1.
O2 O2- 4 e 0.4609(3) 0.9542(6) 0.7342(4) 2.8(2) 1.
O3 O2- 4 e 0.7265(3) 0.8424(7) 0.7303(4) 3.23(2) 1.
O4 O2- 4 e 0.5332(4) 0.4976(5) 0.7235(4) 2.75(2) 1.
#End of TTdata_40945-ICSD