
#(C) 2020 by FIZ Karlsruhe - Leibniz Institute for Information Infrastructure.  All rights reserved.
data_4204-ICSD
_database_code_ICSD 4204
_audit_creation_date 1980-01-01
_chemical_name_common 'Lithium trisilver oxide'
_chemical_formula_structural 'Li Ag3 O2'
_chemical_formula_sum 'Ag3 Li1 O2'
_chemical_name_structure_type Na3AgO2
_exptl_crystal_density_diffrn 7.12
_citation_title 'Darstellunq und Kristallstruktur von Li Ag3 O2'
loop_
_citation_id
_citation_journal_full
_citation_year
_citation_journal_volume
_citation_page_first
_citation_page_last
_citation_journal_id_ASTM
primary

;
Zeitschrift fuer Naturforschung, Teil B: Anorganische Chemie, Organische
Chemie, Biochemie, Biophysik, Biologie
; 1975 30 854 858 ZENBAX
loop_
_citation_author_citation_id
_citation_author_name
primary 'Jansen, M.'
_cell_length_a 5.974(1)
_cell_length_b 9.945(5)
_cell_length_c 5.694(4)
_cell_angle_alpha 90.
_cell_angle_beta 90.
_cell_angle_gamma 90.
_cell_volume 338.29
_cell_formula_units_Z 4
_space_group_name_H-M_alt 'I b a m'
_space_group_IT_number 72
loop_
_space_group_symop_id
_space_group_symop_operation_xyz
1 '-x, y, z+1/2'
2 'x, -y, z+1/2'
3 'x, y, -z'
4 '-x, -y, -z'
5 'x, -y, -z+1/2'
6 '-x, y, -z+1/2'
7 '-x, -y, z'
8 'x, y, z'
9 '-x+1/2, y+1/2, z'
10 'x+1/2, -y+1/2, z'
11 'x+1/2, y+1/2, -z+1/2'
12 '-x+1/2, -y+1/2, -z+1/2'
13 'x+1/2, -y+1/2, -z'
14 '-x+1/2, y+1/2, -z'
15 '-x+1/2, -y+1/2, z+1/2'
16 'x+1/2, y+1/2, z+1/2'
loop_
_atom_type_symbol
_atom_type_oxidation_number
Li1+ 1
Ag1+ 1
O2- -2
loop_
_atom_site_label
_atom_site_type_symbol
_atom_site_symmetry_multiplicity
_atom_site_Wyckoff_symbol
_atom_site_fract_x
_atom_site_fract_y
_atom_site_fract_z
_atom_site_B_iso_or_equiv
_atom_site_occupancy
Li1 Li1+ 4 b 0.5 0 0.25 2.3 1.
Ag1 Ag1+ 4 c 0 0 0 1.41 1.
Ag2 Ag1+ 8 e 0.25 0.25 0.25 1.3 1.
O1 O2- 8 j 0.3268(11) 0.0945(8) 0 1.44 1.
#End of TTdata_4204-ICSD