
#(C) 2020 by FIZ Karlsruhe - Leibniz Institute for Information Infrastructure.  All rights reserved.
data_42499-ICSD
_database_code_ICSD 42499
_audit_creation_date 2000-07-15
_chemical_name_common 'Lithium alumosilicate - supercell, HT'
_chemical_formula_structural 'Li (Al Si O4)'
_chemical_formula_sum 'Al1 Li1 O4 Si1'
_chemical_name_mineral ''Pseudo-eucryptite high''
_exptl_crystal_density_diffrn 2.36
_diffrn_ambient_temperature 753.
_citation_title

;
Structural relations between the low- and high-temperature forms of
beta-eucryptite (Li Al Si O4) and low and high quartz. II
;
loop_
_citation_id
_citation_journal_full
_citation_year
_citation_journal_volume
_citation_page_first
_citation_page_last
_citation_journal_id_ASTM
primary

;
Acta Crystallographica, Section B: Structural Crystallography and Crystal
Chemistry
; 1972 28 2174 2177 ACBCAR
loop_
_citation_author_citation_id
_citation_author_name
primary 'Schulz, H.'
primary 'Tscherry, V.'
_cell_length_a 5.2410(5)
_cell_length_b 5.2410(5)
_cell_length_c 11.175(1)
_cell_angle_alpha 90.
_cell_angle_beta 90.
_cell_angle_gamma 120.
_cell_volume 265.83
_cell_formula_units_Z 3
_space_group_name_H-M_alt 'P 62 2 2'
_space_group_IT_number 180
loop_
_space_group_symop_id
_space_group_symop_operation_xyz
1 'x, x-y, -z+1/3'
2 '-x+y, y, -z'
3 '-y, -x, -z+2/3'
4 '-x, -x+y, -z+1/3'
5 'x-y, -y, -z'
6 'y, x, -z+2/3'
7 'x-y, x, z+1/3'
8 'y, -x+y, z+2/3'
9 '-x, -y, z'
10 '-x+y, -x, z+1/3'
11 '-y, x-y, z+2/3'
12 'x, y, z'
loop_
_atom_type_symbol
_atom_type_oxidation_number
Si4+ 4
Al3+ 3
O2- -2
Li1+ 1
loop_
_atom_site_label
_atom_site_type_symbol
_atom_site_symmetry_multiplicity
_atom_site_Wyckoff_symbol
_atom_site_fract_x
_atom_site_fract_y
_atom_site_fract_z
_atom_site_B_iso_or_equiv
_atom_site_occupancy
Si1 Si4+ 3 c 0.5 0 0 0.35(2) 1.
Al1 Al3+ 3 d 0.5 0 0.5 0.36(3) 1.
O1 O2- 12 k 0.194(1) 0.403(1) 0.255(1) 1.21(3) 1.
Li1 Li1+ 3 a 0 0 0 1.8(4) 0.5
Li2 Li1+ 3 b 0 0 0.5 1.4(4) 0.5
#End of TTdata_42499-ICSD