
#(C) 2020 by FIZ Karlsruhe - Leibniz Institute for Information Infrastructure.  All rights reserved.
data_48136-ICSD
_database_code_ICSD 48136
_audit_creation_date 1984-11-30
_audit_update_record 2009-08-01
_chemical_name_common 'Lithium potassium sulfate(VI)'
_chemical_formula_structural 'Li K (S O4)'
_chemical_formula_sum 'K1 Li1 O4 S1'
_chemical_name_structure_type KLiSO4
_exptl_crystal_density_diffrn 2.38
_diffrn_ambient_temperature 302.
_citation_title

;
Structure of lithium potassium sulphate, Li K S O4: A neutron diffraction
study
;
loop_
_citation_id
_citation_journal_full
_citation_year
_citation_journal_volume
_citation_page_first
_citation_page_last
_citation_journal_id_ASTM
primary 'Acta Crystallographica, Section C: Crystal Structure Communications'
1984 40 1648 1651 ACSCEE
loop_
_citation_author_citation_id
_citation_author_name
primary 'Bhakay-Tamhane, S.N.'
primary 'Sequeira, A.'
primary 'Chidambaram, R.'
_cell_length_a 5.146(1)
_cell_length_b 5.146(1)
_cell_length_c 8.636(2)
_cell_angle_alpha 90.
_cell_angle_beta 90.
_cell_angle_gamma 120.
_cell_volume 198.05
_cell_formula_units_Z 2
_space_group_name_H-M_alt 'P 63'
_space_group_IT_number 173
loop_
_space_group_symop_id
_space_group_symop_operation_xyz
1 'x-y, x, z+1/2'
2 'y, -x+y, z+1/2'
3 '-x, -y, z+1/2'
4 '-x+y, -x, z'
5 '-y, x-y, z'
6 'x, y, z'
loop_
_atom_type_symbol
_atom_type_oxidation_number
K1+ 1
S6+ 6
Li1+ 1
O2- -2
loop_
_atom_site_label
_atom_site_type_symbol
_atom_site_symmetry_multiplicity
_atom_site_Wyckoff_symbol
_atom_site_fract_x
_atom_site_fract_y
_atom_site_fract_z
_atom_site_U_iso_or_equiv
_atom_site_occupancy
K1 K1+ 2 a 0 0 0 0.143(3) 1.
S1 S6+ 2 b 0.3333 0.6667 0.7045(8) 0.108(5) 1.
Li1 Li1+ 2 b 0.3333 0.6667 0.3145(11) 0.139(6) 1.
O1 O2- 2 b 0.3333 0.6667 0.5358(7) 0.214(3) 1.
O2 O2- 6 c 0.3446(4) 0.4031(3) 0.7583(7) 0.171(2) 1.
#End of TTdata_48136-ICSD