
#(C) 2020 by FIZ Karlsruhe - Leibniz Institute for Information Infrastructure.  All rights reserved.
data_48177-ICSD
_database_code_ICSD 48177
_audit_creation_date 1985-06-13
_chemical_name_common 'Potassium dilithium borate'
_chemical_formula_structural 'K Li2 (B O3)'
_chemical_formula_sum 'B1 K1 Li2 O3'
_chemical_name_structure_type Li3BS3
_exptl_crystal_density_diffrn 2.24
_citation_title 'Neue Borate der Alkalimetalle K Li2 (B O3)'
loop_
_citation_id
_citation_journal_full
_citation_year
_citation_journal_volume
_citation_page_first
_citation_page_last
_citation_journal_id_ASTM
primary 'Zeitschrift fuer Anorganische und Allgemeine Chemie (1950) (DE)' 1985
521 7 14 ZAACAB
loop_
_citation_author_citation_id
_citation_author_name
primary 'Hoppe, R.'
primary 'Miessen, M.'
_cell_length_a 7.971(4)
_cell_length_b 6.432(3)
_cell_length_c 6.457(3)
_cell_angle_alpha 90.
_cell_angle_beta 90.
_cell_angle_gamma 90.
_cell_volume 331.05
_cell_formula_units_Z 4
_space_group_name_H-M_alt 'P n m a'
_space_group_IT_number 62
loop_
_space_group_symop_id
_space_group_symop_operation_xyz
1 'x+1/2, y, -z+1/2'
2 'x, -y+1/2, z'
3 '-x+1/2, y+1/2, z+1/2'
4 '-x, -y, -z'
5 '-x+1/2, -y, z+1/2'
6 '-x, y+1/2, -z'
7 'x+1/2, -y+1/2, -z+1/2'
8 'x, y, z'
loop_
_atom_type_symbol
_atom_type_oxidation_number
K1+ 1
Li1+ 1
B3+ 3
O2- -2
loop_
_atom_site_label
_atom_site_type_symbol
_atom_site_symmetry_multiplicity
_atom_site_Wyckoff_symbol
_atom_site_fract_x
_atom_site_fract_y
_atom_site_fract_z
_atom_site_B_iso_or_equiv
_atom_site_occupancy
K1 K1+ 4 c 0.4913(1) 0.75 0.1038(1) . 1.
Li1 Li1+ 8 d 0.8605(5) 0.5416(7) 0.9607(6) . 1.
B1 B3+ 4 c 0.6558(5) 0.75 0.6638(6) . 1.
O1 O2- 4 c 0.5384(3) 0.75 0.5070(4) . 1.
O2 O2- 8 d 0.7128(2) 0.9376(3) 0.7382(3) . 1.
loop_
_atom_site_aniso_label
_atom_site_aniso_type_symbol
_atom_site_aniso_U_11
_atom_site_aniso_U_22
_atom_site_aniso_U_33
_atom_site_aniso_U_12
_atom_site_aniso_U_13
_atom_site_aniso_U_23
K1 K1+ 0.0285(4) 0.0223(4) 0.0158(4) 0 0 -.0053(15)
Li1 Li1+ 0.0163(12) 0.0148(13) 0.0176(13) 0.0010(13) -.0031(12) 0.0000(12)
B1 B3+ 0.0072(12) 0.0168(12) 0.0090(12) 0 0 0.0090(15)
O1 O2- 0.0101(10) 0.012(1) 0.0103(10) 0 0 -.0061(15)
O2 O2- 0.0279(9) 0.0163(9) 0.0296(9) -.0073(9) -.0168(9) 0.0024(8)
#End of TTdata_48177-ICSD