
#(C) 2020 by FIZ Karlsruhe - Leibniz Institute for Information Infrastructure.  All rights reserved.
data_48209-ICSD
_database_code_ICSD 48209
_audit_creation_date 1986-12-03
_audit_update_record 2005-10-01
_chemical_name_common 'Hexalithium uranate - alpha'
_chemical_formula_structural 'Li6 (U O6)'
_chemical_formula_sum 'Li6 O6 U1'
_chemical_name_structure_type Li6TeO6
_exptl_crystal_density_diffrn 4.17
_citation_title

;
Neues ueber Oxouranate: Ueber alpha-Li6 U O6. Mit einer Bemerkung ueber
beta-Li6 U O6
;
loop_
_citation_id
_citation_journal_full
_citation_year
_citation_journal_volume
_citation_page_first
_citation_page_last
_citation_journal_id_ASTM
primary 'Zeitschrift fuer Anorganische und Allgemeine Chemie (1950) (DE)' 1985
528 129 137 ZAACAB
loop_
_citation_author_citation_id
_citation_author_name
primary 'Wolf, R.'
primary 'Hoppe, R.'
_cell_length_a 8.3807(5)
_cell_length_b 8.3807(5)
_cell_length_c 7.3834(7)
_cell_angle_alpha 90.
_cell_angle_beta 90.
_cell_angle_gamma 120.
_cell_volume 449.1
_cell_formula_units_Z 3
_space_group_name_H-M_alt 'R -3 H'
_space_group_IT_number 148
loop_
_space_group_symop_id
_space_group_symop_operation_xyz
1 'x-y, x, -z'
2 'y, -x+y, -z'
3 '-x, -y, -z'
4 '-x+y, -x, z'
5 '-y, x-y, z'
6 'x, y, z'
7 'x-y+2/3, x+1/3, -z+1/3'
8 'y+2/3, -x+y+1/3, -z+1/3'
9 '-x+2/3, -y+1/3, -z+1/3'
10 '-x+y+2/3, -x+1/3, z+1/3'
11 '-y+2/3, x-y+1/3, z+1/3'
12 'x+2/3, y+1/3, z+1/3'
13 'x-y+1/3, x+2/3, -z+2/3'
14 'y+1/3, -x+y+2/3, -z+2/3'
15 '-x+1/3, -y+2/3, -z+2/3'
16 '-x+y+1/3, -x+2/3, z+2/3'
17 '-y+1/3, x-y+2/3, z+2/3'
18 'x+1/3, y+2/3, z+2/3'
loop_
_atom_type_symbol
_atom_type_oxidation_number
U6+ 6
O2- -2
Li1+ 1
loop_
_atom_site_label
_atom_site_type_symbol
_atom_site_symmetry_multiplicity
_atom_site_Wyckoff_symbol
_atom_site_fract_x
_atom_site_fract_y
_atom_site_fract_z
_atom_site_B_iso_or_equiv
_atom_site_occupancy
U1 U6+ 3 a 0 0 0 . 1.
O1 O2- 18 f 0.1327(7) 0.8876(7) 0.1471(7) . 1.
Li1 Li1+ 18 f 0.9783(20) 0.3444(19) 0.9987(17) . 1.
loop_
_atom_site_aniso_label
_atom_site_aniso_type_symbol
_atom_site_aniso_U_11
_atom_site_aniso_U_22
_atom_site_aniso_U_33
_atom_site_aniso_U_12
_atom_site_aniso_U_13
_atom_site_aniso_U_23
U1 U6+ 0.0018(2) 0.0018(2) 0.0056(3) 0.0009(1) 0 0
O1 O2- 0.0123(20) 0.0106(19) 0.013(2) 0.0062(17) -.0014(16) 0.0013(16)
Li1 Li1+ 0.0233(52) 0.0198(51) 0.0079(43) 0.0143(43) 0.0046(40) 0.0018(40)
#End of TTdata_48209-ICSD