
#(C) 2020 by FIZ Karlsruhe - Leibniz Institute for Information Infrastructure.  All rights reserved.
data_4820-ICSD
_database_code_ICSD 4820
_audit_creation_date 2019-02-01
_chemical_name_common 'Hexalithium copper decaoxo-tetraborate - alpha(LT)'
_chemical_formula_structural 'Li6 Cu B4 O10'
_chemical_formula_sum 'B4 Cu1 Li6 O10'
_chemical_name_structure_type Li6CuB4O10
_exptl_crystal_density_diffrn 2.58
_diffrn_ambient_temperature 300.
_citation_title

;
Impact of structural polymorphism on ionic conductivity in lithium copper
pyroborate Li6CuB4O10
;
loop_
_citation_id
_citation_journal_full
_citation_year
_citation_journal_volume
_citation_page_first
_citation_page_last
_citation_journal_id_ASTM
primary 'Inorganic Chemistry' 2018 57 11646 11654 INOCAJ
loop_
_citation_author_citation_id
_citation_author_name
primary 'Strauss, Florian'
primary 'Rousse, Gwenaelle'
primary 'Alves Dalla Corte, Daniel'
primary 'Giacobbe, Carlotta'
primary 'Dominko, Robert'
primary 'Tarascon, Jean-Marie'
_cell_length_a 4.82299(6)
_cell_length_b 9.24126(12)
_cell_length_c 13.96993(16)
_cell_angle_alpha 104.33028(86)
_cell_angle_beta 96.21587(92)
_cell_angle_gamma 94.58115(102)
_cell_volume 596.04
_cell_formula_units_Z 3
_space_group_name_H-M_alt 'P -1'
_space_group_IT_number 2
loop_
_space_group_symop_id
_space_group_symop_operation_xyz
1 '-x, -y, -z'
2 'x, y, z'
loop_
_atom_type_symbol
_atom_type_oxidation_number
Cu2+ 2
B3+ 3
O2- -2
Li1+ 1
loop_
_atom_site_label
_atom_site_type_symbol
_atom_site_symmetry_multiplicity
_atom_site_Wyckoff_symbol
_atom_site_fract_x
_atom_site_fract_y
_atom_site_fract_z
_atom_site_B_iso_or_equiv
_atom_site_occupancy
Cu1 Cu2+ 1 a 0 0 0 0.13(7) 1.
Cu2 Cu2+ 2 i 0.2905(14) 0.3158(7) 0.6700(5) 0.13(7) 1.
B1 B3+ 2 i 0.0879(18) 0.4507(11) 0.3299(7) 0.30(4) 1.
B2 B3+ 2 i 0.1718(17) 0.6861(9) 0.4799(6) 0.30(4) 1.
B3 B3+ 2 i 0.2021(19) 0.6539(9) 0.1813(6) 0.30(4) 1.
B4 B3+ 2 i 0.2781(18) 0.8949(10) 0.3329(6) 0.30(4) 1.
B5 B3+ 2 i 0.4156(18) 0.7778(10) 0.9952(7) 0.30(4) 1.
B6 B3+ 2 i 0.4569(17) -0.0048(9) 0.1453(6) 0.30(4) 1.
O1 O2- 2 i 0.025(2) 0.5923(12) 0.0992(9) 0.77(3) 1.
O2 O2- 2 i 0.064(2) 0.2568(10) 0.5505(6) 0.77(3) 1.
O3 O2- 2 i 0.108(2) 0.7882(12) 0.2511(8) 0.77(3) 1.
O4 O2- 2 i 0.169(2) 0.8083(12) 0.9509(7) 0.77(3) 1.
O5 O2- 2 i 0.167(2) 0.0278(11) 0.3588(7) 0.77(3) 1.
O6 O2- 2 i 0.184(2) 0.5225(10) 0.6957(8) 0.77(3) 1.
O7 O2- 2 i 0.195(2) 0.0302(9) 0.1343(7) 0.77(3) 1.
O8 O2- 2 i 0.2187(18) 0.3445(9) 0.2795(7) 0.77(3) 1.
O9 O2- 2 i 0.242(2) 0.5475(12) 0.4211(8) 0.77(3) 1.
O10 O2- 2 i 0.341(2) 0.7534(13) 0.5608(8) 0.77(3) 1.
O11 O2- 2 i 0.352(2) 0.9309(12) 0.7712(9) 0.77(3) 1.
O12 O2- 2 i 0.437(2) 0.1149(12) 0.9174(9) 0.77(3) 1.
O13 O2- 2 i 0.469(2) 0.1305(12) 0.6275(8) 0.77(3) 1.
O14 O2- 2 i 0.468(2) 0.3519(11) 0.0398(8) 0.77(3) 1.
O15 O2- 2 i 0.459(2) 0.6141(11) 0.2061(8) 0.77(3) 1.
Li1 Li1+ 2 i -0.029(5) 0.791(3) 0.8375(17) 0.61(11) 1.
Li2 Li1+ 2 i 0.052(5) 0.376(3) 0.0309(17) 0.61(11) 1.
Li3 Li1+ 2 i 0.108(5) 0.094(2) 0.8121(15) 0.61(11) 1.
Li4 Li1+ 2 i 0.211(5) 0.936(2) 0.6281(16) 0.61(11) 1.
Li5 Li1+ 2 i 0.358(5) 0.138(2) 0.4770(17) 0.61(11) 1.
Li6 Li1+ 2 i 0.369(5) 0.434(2) 0.9118(15) 0.61(11) 1.
Li7 Li1+ 2 i 0.377(4) 0.162(2) 0.3008(15) 0.61(11) 1.
Li8 Li1+ 2 i 0.448(4) 0.566(2) 0.5926(16) 0.61(11) 1.
Li9 Li1+ 2 i 0.501(4) 0.400(2) 0.1929(16) 0.61(11) 1.
#End of TTdata_4820-ICSD