
#(C) 2020 by FIZ Karlsruhe - Leibniz Institute for Information Infrastructure.  All rights reserved.
data_49026-ICSD
_database_code_ICSD 49026
_audit_creation_date 1985-07-17
_audit_update_record 1985-07-26
_chemical_name_common 'Octalithium Terbium(IV) oxide'
_chemical_formula_structural 'Li8 Tb O6'
_chemical_formula_sum 'Li8 O6 Tb1'
_chemical_name_structure_type Li8IrO6
_exptl_crystal_density_diffrn 3.69
_citation_title
'Ueber Li8 Pr O6 und Li8 Tb O6 (mit einer Bemerkung ueber Li8 Ce O6)'
loop_
_citation_id
_citation_journal_full
_citation_year
_citation_journal_volume
_citation_page_first
_citation_page_last
_citation_journal_id_ASTM
primary 'Zeitschrift fuer Anorganische und Allgemeine Chemie (1950) (DE)' 1985
522 39 47 ZAACAB
loop_
_citation_author_citation_id
_citation_author_name
primary 'Wolf, R.'
primary 'Hoppe, R.'
_cell_length_a 5.5496(3)
_cell_length_b 5.5496(3)
_cell_length_c 15.7097(16)
_cell_angle_alpha 90.
_cell_angle_beta 90.
_cell_angle_gamma 120.
_cell_volume 419.01
_cell_formula_units_Z 3
_space_group_name_H-M_alt 'R -3 H'
_space_group_IT_number 148
loop_
_space_group_symop_id
_space_group_symop_operation_xyz
1 'x-y, x, -z'
2 'y, -x+y, -z'
3 '-x, -y, -z'
4 '-x+y, -x, z'
5 '-y, x-y, z'
6 'x, y, z'
7 'x-y+2/3, x+1/3, -z+1/3'
8 'y+2/3, -x+y+1/3, -z+1/3'
9 '-x+2/3, -y+1/3, -z+1/3'
10 '-x+y+2/3, -x+1/3, z+1/3'
11 '-y+2/3, x-y+1/3, z+1/3'
12 'x+2/3, y+1/3, z+1/3'
13 'x-y+1/3, x+2/3, -z+2/3'
14 'y+1/3, -x+y+2/3, -z+2/3'
15 '-x+1/3, -y+2/3, -z+2/3'
16 '-x+y+1/3, -x+2/3, z+2/3'
17 '-y+1/3, x-y+2/3, z+2/3'
18 'x+1/3, y+2/3, z+2/3'
loop_
_atom_type_symbol
_atom_type_oxidation_number
Tb4+ 4
Li1+ 1
O2- -2
loop_
_atom_site_label
_atom_site_type_symbol
_atom_site_symmetry_multiplicity
_atom_site_Wyckoff_symbol
_atom_site_fract_x
_atom_site_fract_y
_atom_site_fract_z
_atom_site_B_iso_or_equiv
_atom_site_occupancy
Tb1 Tb4+ 3 a 0 0 0 . 1.
Li1 Li1+ 18 f 0.6255(32) 0.6450(32) 0.8770(9) . 1.
Li2 Li1+ 6 c 0 0 0.3443(22) . 1.
O1 O2- 18 f 0.6765(13) 0.6514(13) 0.4158(4) . 1.
loop_
_atom_site_aniso_label
_atom_site_aniso_type_symbol
_atom_site_aniso_U_11
_atom_site_aniso_U_22
_atom_site_aniso_U_33
_atom_site_aniso_U_12
_atom_site_aniso_U_13
_atom_site_aniso_U_23
Tb1 Tb4+ 0.0024(3) 0.0024(3) 0.0076(4) 0.0012(2) 0 0
Li1 Li1+ 0.0105(56) 0.0099(56) 0.0132(50) 0.0018(48) -.0051(47) -.0049(46)
Li2 Li1+ 0.0220(76) 0.0220(76) 0.0249(97) 0.0110(38) 0 0
O1 O2- 0.0090(24) 0.0069(24) 0.0129(21) 0.0039(20) -.0023(20) -.0026(19)
#End of TTdata_49026-ICSD