
#(C) 2020 by FIZ Karlsruhe - Leibniz Institute for Information Infrastructure.  All rights reserved.
data_49022-ICSD
_database_code_ICSD 49022
_audit_creation_date 1985-07-17
_audit_update_record 2008-02-01
_chemical_name_common 'Potassium lithium zinc dioxide'
_chemical_formula_structural 'K Li Zn O2'
_chemical_formula_sum 'K1 Li1 O2 Zn1'
_chemical_name_structure_type KLiMnO2
_exptl_crystal_density_diffrn 3.69
_citation_title 'Zur Kenntnis von K Li Zn O2'
loop_
_citation_id
_citation_journal_full
_citation_year
_citation_journal_volume
_citation_page_first
_citation_page_last
_citation_journal_id_ASTM
primary 'Zeitschrift fuer Anorganische und Allgemeine Chemie (1950) (DE)' 1985
522 23 32 ZAACAB
loop_
_citation_author_citation_id
_citation_author_name
primary 'Baier, R.'
primary 'Hoppe, R.'
_cell_length_a 10.832(1)
_cell_length_b 3.3442(3)
_cell_length_c 8.237(1)
_cell_angle_alpha 90.
_cell_angle_beta 120.11(1)
_cell_angle_gamma 90.
_cell_volume 258.12
_cell_formula_units_Z 4
_space_group_name_H-M_alt 'C 1 2/m 1'
_space_group_IT_number 12
loop_
_space_group_symop_id
_space_group_symop_operation_xyz
1 '-x, y, -z'
2 '-x, -y, -z'
3 'x, -y, z'
4 'x, y, z'
5 '-x+1/2, y+1/2, -z'
6 '-x+1/2, -y+1/2, -z'
7 'x+1/2, -y+1/2, z'
8 'x+1/2, y+1/2, z'
loop_
_atom_type_symbol
_atom_type_oxidation_number
K1+ 1
Li1+ 1
Zn2+ 2
O2- -2
loop_
_atom_site_label
_atom_site_type_symbol
_atom_site_symmetry_multiplicity
_atom_site_Wyckoff_symbol
_atom_site_fract_x
_atom_site_fract_y
_atom_site_fract_z
_atom_site_B_iso_or_equiv
_atom_site_occupancy
K1 K1+ 4 i 0.1623(2) 0 0.6295(3) . 1.
Li1 Li1+ 4 i 0.3379(14) 0 0.0532(20) . 1.
Zn1 Zn2+ 4 i 0.0436(1) 0 0.1822(1) . 1.
O1 O2- 4 i 0.4603(6) 0 0.6924(8) . 1.
O2 O2- 4 i 0.8386(5) 0 0.9391(7) . 1.
loop_
_atom_site_aniso_label
_atom_site_aniso_type_symbol
_atom_site_aniso_U_11
_atom_site_aniso_U_22
_atom_site_aniso_U_33
_atom_site_aniso_U_12
_atom_site_aniso_U_13
_atom_site_aniso_U_23
K1 K1+ 0.0157(8) 0.0128(9) 0.0151(8) 0 0.0067(6) 0
Li1 Li1+ 0.0098(52) 0.0011(51) 0.0187(63) 0 0.0092(49) 0
Zn1 Zn2+ 0.0097(5) 0.0040(5) 0.0107(5) 0 0.0060(4) 0
O1 O2- 0.0162(24) 0.0036(22) 0.0105(22) 0 0.0077(20) 0
O2 O2- 0.0078(20) 0.0092(24) 0.0123(23) 0 0.0072(19) 0
#End of TTdata_49022-ICSD