
#(C) 2020 by FIZ Karlsruhe - Leibniz Institute for Information Infrastructure.  All rights reserved.
data_49021-ICSD
_database_code_ICSD 49021
_audit_creation_date 1985-07-17
_audit_update_record 2010-02-01
_chemical_name_common 'Potassium lithium manganate(II)'
_chemical_formula_structural 'K Li (Mn O2)'
_chemical_formula_sum 'K1 Li1 Mn1 O2'
_chemical_name_structure_type KLiMnO2
_exptl_crystal_density_diffrn 3.27
_citation_title 'Ein neues Oxomanganat(II): K Li Mn O2'
loop_
_citation_id
_citation_journal_full
_citation_year
_citation_journal_volume
_citation_page_first
_citation_page_last
_citation_journal_id_ASTM
primary 'Zeitschrift fuer Anorganische und Allgemeine Chemie (1950) (DE)' 1985
522 33 38 ZAACAB
loop_
_citation_author_citation_id
_citation_author_name
primary 'Hoppe, R.'
primary 'Seipp, E.'
_cell_length_a 11.085(6)
_cell_length_b 3.389(1)
_cell_length_c 8.357(5)
_cell_angle_alpha 90.
_cell_angle_beta 120.67(5)
_cell_angle_gamma 90.
_cell_volume 270.03
_cell_formula_units_Z 4
_space_group_name_H-M_alt 'C 1 2/m 1'
_space_group_IT_number 12
loop_
_space_group_symop_id
_space_group_symop_operation_xyz
1 '-x, y, -z'
2 '-x, -y, -z'
3 'x, -y, z'
4 'x, y, z'
5 '-x+1/2, y+1/2, -z'
6 '-x+1/2, -y+1/2, -z'
7 'x+1/2, -y+1/2, z'
8 'x+1/2, y+1/2, z'
loop_
_atom_type_symbol
_atom_type_oxidation_number
K1+ 1
Li1+ 1
Mn2+ 2
O2- -2
loop_
_atom_site_label
_atom_site_type_symbol
_atom_site_symmetry_multiplicity
_atom_site_Wyckoff_symbol
_atom_site_fract_x
_atom_site_fract_y
_atom_site_fract_z
_atom_site_B_iso_or_equiv
_atom_site_occupancy
K1 K1+ 4 i 0.1593(2) 0 0.6301(2) . 1.
Li1 Li1+ 4 i 0.3377(10) 0 0.0522(15) . 1.
Mn1 Mn2+ 4 i 0.0443(1) 0 0.1826(1) . 1.
O1 O2- 4 i 0.4633(5) 0 0.6903(6) . 1.
O2 O2- 4 i 0.8389(5) 0 0.9420(6) . 1.
loop_
_atom_site_aniso_label
_atom_site_aniso_type_symbol
_atom_site_aniso_U_11
_atom_site_aniso_U_22
_atom_site_aniso_U_33
_atom_site_aniso_U_12
_atom_site_aniso_U_13
_atom_site_aniso_U_23
K1 K1+ 0.0142(6) 0.0179(7) 0.0134(6) 0 0.0063(5) 0
Li1 Li1+ 0.0018(24) 0.0076(26) 0.0168(26) 0 0.0044(22) 0
Mn1 Mn2+ 0.0057(4) 0.0086(4) 0.0076(4) 0 0.0042(3) 0
O1 O2- 0.0131(17) 0.0098(18) 0.0107(16) 0 0.0086(14) 0
O2 O2- 0.0040(15) 0.0104(18) 0.0134(16) 0 0 0.0083(13)
#End of TTdata_49021-ICSD