
#(C) 2020 by FIZ Karlsruhe - Leibniz Institute for Information Infrastructure.  All rights reserved.
data_49755-ICSD
_database_code_ICSD 49755
_audit_creation_date 1986-04-14
_audit_update_record 2007-08-01
_chemical_name_common 'Lithium copper(I) oxide'
_chemical_formula_structural 'Li Cu O'
_chemical_formula_sum 'Cu1 Li1 O1'
_chemical_name_structure_type LiCuO(I4-2m)
_exptl_crystal_density_diffrn 4.16
_citation_title 'Zur Kenntnis der K4 (Ag4 O4) - Verwandtschaft'
loop_
_citation_id
_citation_journal_full
_citation_year
_citation_journal_volume
_citation_page_first
_citation_page_last
_citation_journal_id_ASTM
primary 'Zeitschrift fuer Anorganische und Allgemeine Chemie (1950) (DE)' 1985
524 7 16 ZAACAB
loop_
_citation_author_citation_id
_citation_author_name
primary 'Losert, W.'
primary 'Hoppe, R.'
_cell_length_a 8.514(1)
_cell_length_b 8.514(1)
_cell_length_c 3.809
_cell_angle_alpha 90.
_cell_angle_beta 90.
_cell_angle_gamma 90.
_cell_volume 276.11
_cell_formula_units_Z 8
_space_group_name_H-M_alt 'I -4 m 2'
_space_group_IT_number 119
loop_
_space_group_symop_id
_space_group_symop_operation_xyz
1 'y, x, -z'
2 '-y, -x, -z'
3 'y, -x, -z'
4 '-y, x, -z'
5 'x, -y, z'
6 '-x, y, z'
7 '-x, -y, z'
8 'x, y, z'
9 'y+1/2, x+1/2, -z+1/2'
10 '-y+1/2, -x+1/2, -z+1/2'
11 'y+1/2, -x+1/2, -z+1/2'
12 '-y+1/2, x+1/2, -z+1/2'
13 'x+1/2, -y+1/2, z+1/2'
14 '-x+1/2, y+1/2, z+1/2'
15 '-x+1/2, -y+1/2, z+1/2'
16 'x+1/2, y+1/2, z+1/2'
loop_
_atom_type_symbol
_atom_type_oxidation_number
Cu1+ 1
Li1+ 1
O2- -2
loop_
_atom_site_label
_atom_site_type_symbol
_atom_site_symmetry_multiplicity
_atom_site_Wyckoff_symbol
_atom_site_fract_x
_atom_site_fract_y
_atom_site_fract_z
_atom_site_B_iso_or_equiv
_atom_site_occupancy
Cu1 Cu1+ 8 h 0.3429(2) 0.8429(2) 0.25 . 1.
Li1 Li1+ 8 i 0.1408(21) 0 0.7926(56) 0.0201(78) 1.
O1 O2- 8 i 0.8059(12) 0 0.2503(28) . 1.
loop_
_atom_site_aniso_label
_atom_site_aniso_type_symbol
_atom_site_aniso_U_11
_atom_site_aniso_U_22
_atom_site_aniso_U_33
_atom_site_aniso_U_12
_atom_site_aniso_U_13
_atom_site_aniso_U_23
Cu1 Cu1+ 0.0079(8) 0.0079(8) 0.0122(11) 0.0038(9) -.0015(14) 0.0015(14)
O1 O2- 0.0176(36) 0.0118(33) 0.0033(22) 0 -.0054(38) 0
#End of TTdata_49755-ICSD