
#(C) 2020 by FIZ Karlsruhe - Leibniz Institute for Information Infrastructure.  All rights reserved.
data_50006-ICSD
_database_code_ICSD 50006
_audit_creation_date 1998-06-26
_chemical_name_common 'Lithium vanadium chloride (1.3/1.2/4)'
_chemical_formula_structural 'Li1.294 V1.206 Cl4'
_chemical_formula_sum 'Cl4 Li1.294 V1.206'
_chemical_name_structure_type Mo4GaS8(HT)
_exptl_crystal_density_diffrn 2.54
_citation_title

;
Lithium vanadium chlorides-phase transition, crystal structure of the mixed
valence compound Li1.3 V1.2 Cl4
;
loop_
_citation_id
_citation_journal_full
_citation_year
_citation_journal_volume
_citation_page_first
_citation_page_last
_citation_journal_id_ASTM
primary 'Materials Research Bulletin' 1997 32 1073 1078 MRBUAC
loop_
_citation_author_citation_id
_citation_author_name
primary 'Partik, M.'
primary 'Lutz, H.D.'
_cell_length_a 10.357(1)
_cell_length_b 10.357(1)
_cell_length_c 10.357(1)
_cell_angle_alpha 90.
_cell_angle_beta 90.
_cell_angle_gamma 90.
_cell_volume 1110.97
_cell_formula_units_Z 8
_space_group_name_H-M_alt 'F -4 3 m'
_space_group_IT_number 216
loop_
_space_group_symop_id
_space_group_symop_operation_xyz
1 '-z, -y, x'
2 '-y, -x, z'
3 '-x, -z, y'
4 '-z, -x, y'
5 '-y, -z, x'
6 '-x, -y, z'
7 '-z, y, -x'
8 '-y, x, -z'
9 '-x, z, -y'
10 '-z, x, -y'
11 '-y, z, -x'
12 '-x, y, -z'
13 'z, -y, -x'
14 'y, -x, -z'
15 'x, -z, -y'
16 'z, -x, -y'
17 'y, -z, -x'
18 'x, -y, -z'
19 'z, y, x'
20 'y, x, z'
21 'x, z, y'
22 'z, x, y'
23 'y, z, x'
24 'x, y, z'
25 '-z, -y+1/2, x+1/2'
26 '-y, -x+1/2, z+1/2'
27 '-x, -z+1/2, y+1/2'
28 '-z, -x+1/2, y+1/2'
29 '-y, -z+1/2, x+1/2'
30 '-x, -y+1/2, z+1/2'
31 '-z, y+1/2, -x+1/2'
32 '-y, x+1/2, -z+1/2'
33 '-x, z+1/2, -y+1/2'
34 '-z, x+1/2, -y+1/2'
35 '-y, z+1/2, -x+1/2'
36 '-x, y+1/2, -z+1/2'
37 'z, -y+1/2, -x+1/2'
38 'y, -x+1/2, -z+1/2'
39 'x, -z+1/2, -y+1/2'
40 'z, -x+1/2, -y+1/2'
41 'y, -z+1/2, -x+1/2'
42 'x, -y+1/2, -z+1/2'
43 'z, y+1/2, x+1/2'
44 'y, x+1/2, z+1/2'
45 'x, z+1/2, y+1/2'
46 'z, x+1/2, y+1/2'
47 'y, z+1/2, x+1/2'
48 'x, y+1/2, z+1/2'
49 '-z+1/2, -y, x+1/2'
50 '-y+1/2, -x, z+1/2'
51 '-x+1/2, -z, y+1/2'
52 '-z+1/2, -x, y+1/2'
53 '-y+1/2, -z, x+1/2'
54 '-x+1/2, -y, z+1/2'
55 '-z+1/2, y, -x+1/2'
56 '-y+1/2, x, -z+1/2'
57 '-x+1/2, z, -y+1/2'
58 '-z+1/2, x, -y+1/2'
59 '-y+1/2, z, -x+1/2'
60 '-x+1/2, y, -z+1/2'
61 'z+1/2, -y, -x+1/2'
62 'y+1/2, -x, -z+1/2'
63 'x+1/2, -z, -y+1/2'
64 'z+1/2, -x, -y+1/2'
65 'y+1/2, -z, -x+1/2'
66 'x+1/2, -y, -z+1/2'
67 'z+1/2, y, x+1/2'
68 'y+1/2, x, z+1/2'
69 'x+1/2, z, y+1/2'
70 'z+1/2, x, y+1/2'
71 'y+1/2, z, x+1/2'
72 'x+1/2, y, z+1/2'
73 '-z+1/2, -y+1/2, x'
74 '-y+1/2, -x+1/2, z'
75 '-x+1/2, -z+1/2, y'
76 '-z+1/2, -x+1/2, y'
77 '-y+1/2, -z+1/2, x'
78 '-x+1/2, -y+1/2, z'
79 '-z+1/2, y+1/2, -x'
80 '-y+1/2, x+1/2, -z'
81 '-x+1/2, z+1/2, -y'
82 '-z+1/2, x+1/2, -y'
83 '-y+1/2, z+1/2, -x'
84 '-x+1/2, y+1/2, -z'
85 'z+1/2, -y+1/2, -x'
86 'y+1/2, -x+1/2, -z'
87 'x+1/2, -z+1/2, -y'
88 'z+1/2, -x+1/2, -y'
89 'y+1/2, -z+1/2, -x'
90 'x+1/2, -y+1/2, -z'
91 'z+1/2, y+1/2, x'
92 'y+1/2, x+1/2, z'
93 'x+1/2, z+1/2, y'
94 'z+1/2, x+1/2, y'
95 'y+1/2, z+1/2, x'
96 'x+1/2, y+1/2, z'
loop_
_atom_type_symbol
_atom_type_oxidation_number
Li1+ 1
V2+ 2.25
Li1+ 1
Cl1- -1
loop_
_atom_site_label
_atom_site_type_symbol
_atom_site_symmetry_multiplicity
_atom_site_Wyckoff_symbol
_atom_site_fract_x
_atom_site_fract_y
_atom_site_fract_z
_atom_site_B_iso_or_equiv
_atom_site_occupancy
Li1 Li1+ 4 a 0 0 0 . 1.
V1 V2+ 16 e 0.6259(1) 0.6259(1) 0.6259(1) . 0.603(4)
Li2 Li1+ 16 e 0.6259(1) 0.6259(11) 0.6259(1) . 0.397(4)
Cl1 Cl1- 16 e 0.3822(1) 0.3822(1) 0.3822(1) . 1.
Cl2 Cl1- 16 e 0.8686(1) 0.8686(1) 0.8686(1) . 1.
loop_
_atom_site_aniso_label
_atom_site_aniso_type_symbol
_atom_site_aniso_U_11
_atom_site_aniso_U_22
_atom_site_aniso_U_33
_atom_site_aniso_U_12
_atom_site_aniso_U_13
_atom_site_aniso_U_23
Li1 Li1+ 0.018(3) 0.018(3) 0.018(3) 0 0 0
V1 V2+ 0.0134(2) 0.0134(2) 0.0134(2) -.0011(2) -.0011(2) -.0011(2)
Li2 Li1+ 0.0134(2) 0.0134(2) 0.0134(2) -.0011(2) -.0011(2) -.0011(2)
Cl1 Cl1- 0.0192(6) 0.0192(6) 0.0192(6) -.0019(7) -.0019(7) -.0019(7)
Cl2 Cl1- 0.0156(5) 0.0156(5) 0.0156(5) -.0002(7) -.0002(7) -.0002(7)
#End of TTdata_50006-ICSD