
#(C) 2020 by FIZ Karlsruhe - Leibniz Institute for Information Infrastructure.  All rights reserved.
data_50420-ICSD
_database_code_ICSD 50420
_audit_creation_date 1999-11-30
_audit_update_record 2003-04-01
_chemical_name_common 'Trilithium discandium tris(phosphate(V))'
_chemical_formula_structural 'Li3 Sc2 (P O4)3'
_chemical_formula_sum 'Li3 O12 P3 Sc2'
_chemical_name_structure_type Li3Fe2(PO4)3(P21/n)
_exptl_crystal_density_diffrn 2.75
_diffrn_ambient_temperature 298.
_citation_title

;
Structure refinement of lithium ion conductors Li3 Sc2 (P O4)3 and Li(3-2x)
(Sc(1-x) M(x))2 (P O4)3 (M = Ti, Zr) with x = 0.10 by neutron diffraction
;
loop_
_citation_id
_citation_journal_full
_citation_year
_citation_journal_volume
_citation_page_first
_citation_page_last
_citation_journal_id_ASTM
primary 'Solid State Ionics' 1998 113 89 96 SSIOD3
loop_
_citation_author_citation_id
_citation_author_name
primary 'Suzuki, T.'
primary 'Yoshida, K.'
primary 'Uematsu, K.'
primary 'Kodama, T.'
primary 'Toda, K.'
primary 'Ye, Z.-G.'
primary 'Ohashi, M.'
primary 'Sato, M.'
_cell_length_a 8.8483(4)
_cell_length_b 12.2737(5)
_cell_length_c 8.7959(4)
_cell_angle_alpha 90.
_cell_angle_beta 90.
_cell_angle_gamma 90.015(6)
_cell_volume 955.25
_cell_formula_units_Z 4
_space_group_name_H-M_alt 'P 1 1 21/n'
_space_group_IT_number 14
loop_
_space_group_symop_id
_space_group_symop_operation_xyz
1 'x+1/2, y+1/2, -z+1/2'
2 '-x, -y, -z'
3 '-x+1/2, -y+1/2, z+1/2'
4 'x, y, z'
loop_
_atom_type_symbol
_atom_type_oxidation_number
Li1+ 1
Sc3+ 3
P5+ 5
O2- -2
loop_
_atom_site_label
_atom_site_type_symbol
_atom_site_symmetry_multiplicity
_atom_site_Wyckoff_symbol
_atom_site_fract_x
_atom_site_fract_y
_atom_site_fract_z
_atom_site_B_iso_or_equiv
_atom_site_occupancy
Li1 Li1+ 4 e 0.288(3) 0.332(2) 0.276(4) 1.0(7) 1.
Li2 Li1+ 4 e 0.558(3) 0.218(3) 0.429(3) 1.1(6) 1.
Li3 Li1+ 4 e 0.913(6) 0.229(4) 0.298(6) 5.1(11) 1.
Sc1 Sc3+ 4 e 0.2468(9) 0.1072(6) 0.4566(7) 2.2(2) 1.
Sc2 Sc3+ 4 e 0.7513(9) 0.3933(6) 0.4644(8) 2.9(2) 1.
P1 P5+ 4 e 0.089(3) 0.144(2) 0.114(2) 4.6(5) 1.
P2 P5+ 4 e 0.613(2) 0.345(1) 0.099(1) 0.71(25) 1.
P3 P5+ 4 e 0.037(1) 0.489(2) 0.257(3) 2.2(2) 1.
O1 O2- 4 e 0.427(2) 0.333(1) 0.095(1) 1.1(3) 1.
O2 O2- 4 e 0.935(2) 0.164(1) 0.095(2) 2.7(3) 1.
O3 O2- 4 e 0.344(1) 0.262(1) 0.473(1) 0.88(23) 1.
O4 O2- 4 e 0.814(1) 0.220(1) 0.493(1) 1.5(3) 1.
O5 O2- 4 e 0.155(2) 0.039(1) 0.062(1) 1.6(3) 1.
O6 O2- 4 e 0.649(2) 0.461(1) 0.097(1) 1.6(3) 1.
O7 O2- 4 e 0.467(1) 0.0697(9) 0.360(1) 1.3(2) 1.
O8 O2- 4 e 0.925(1) 0.4051(9) 0.307(1) 1.1(2) 1.
O9 O2- 4 e 0.159(2) 0.427(1) 0.164(1) 2.1(3) 1.
O10 O2- 4 e 0.614(1) 0.063(1) 0.135(2) 3.1(3) 1.
O11 O2- 4 e 0.158(2) 0.192(1) 0.258(2) 2.6(3) 1.
O12 O2- 4 e 0.653(2) 0.312(1) 0.268(2) 1.8(3) 1.
#End of TTdata_50420-ICSD