
#(C) 2020 by FIZ Karlsruhe - Leibniz Institute for Information Infrastructure.  All rights reserved.
data_51631-ICSD
_database_code_ICSD 51631
_audit_creation_date 2003-10-01
_chemical_name_common 'Tetralithium hydrogen pentakis(phosphate(V))'
_chemical_formula_structural 'Li4 H (P O3)5'
_chemical_formula_sum 'H1 Li4 O15 P5'
_exptl_crystal_density_diffrn 2.71
_citation_title

;
Synthesis and crystal structures of lithium polyphosphates, Li P O3, Li4 H (P
O3)5, and Li Mn (P O3)3
;
loop_
_citation_id
_citation_journal_full
_citation_year
_citation_journal_volume
_citation_page_first
_citation_page_last
_citation_journal_id_ASTM
primary Kristallografiya 2001 46 1024 1029 KRISAJ
loop_
_citation_author_citation_id
_citation_author_name
primary 'Murashova, E.V.'
primary 'Chudinova, N.N.'
_cell_length_a 6.6434(8)
_cell_length_b 7.253(82)
_cell_length_c 11.399(3)
_cell_angle_alpha 72.60(2)
_cell_angle_beta 83.36(22)
_cell_angle_gamma 85.32(2)
_cell_volume 519.97
_cell_formula_units_Z 2
_space_group_name_H-M_alt 'P -1'
_space_group_IT_number 2
loop_
_space_group_symop_id
_space_group_symop_operation_xyz
1 '-x, -y, -z'
2 'x, y, z'
loop_
_atom_type_symbol
_atom_type_oxidation_number
P5+ 5
O2- -2
Li1+ 1
H1+ 1
loop_
_atom_site_label
_atom_site_type_symbol
_atom_site_symmetry_multiplicity
_atom_site_Wyckoff_symbol
_atom_site_fract_x
_atom_site_fract_y
_atom_site_fract_z
_atom_site_U_iso_or_equiv
_atom_site_occupancy
P1 P5+ 2 i 0.28979(6) 0.87563(6) 0.95103(4) 0.00721(10) 1.
P2 P5+ 2 i 0.07194(6) 0.65685(6) 0.82848(4) 0.00665(10) 1.
P3 P5+ 2 i 0.14250(6) 0.72131(6) 0.56137(4) 0.00679(10) 1.
P4 P5+ 2 i 0.39016(6) 0.97605(6) 0.35973(4) 0.00714(10) 1.
P5 P5+ 2 i 0.20270(6) 0.76137(6) 0.22529(4) 0.00704(10) 1.
O1 O2- 2 i 0.46199(18) 0.73138(19) 0.95362(12) 0.0126(2) 1.
O2 O2- 2 i 0.16727(18) 0.83777(17) 0.08478(11) 0.0107 1.
O3 O2- 2 i 0.11915(18) 0.83093(17) 0.87748(12) 0.0116(2) 1.
O4 O2- 2 i 0.3211(2) 0.08564(17) 0.90403(12) 0.0135(3) 1.
O5 O2- 2 i 0.07094(18) 0.77204(17) 0.68435(11) 0.0102(2) 1.
O6 O2- 2 i 0.23971(18) 0.50518(17) 0.84361(11) 0.0107(2) 1.
O7 O2- 2 i -.13782(19) 0.60381(18) 0.88000(12) 0.0128(2) 1.
O8 O2- 2 i 0.22013(18) 0.92178(17) 0.47568(11) 0.0108(2) 1.
O9 O2- 2 i 0.30418(18) 0.56532(17) 0.57153(11) 0.0104(2) 1.
O10 O2- 2 i -.05311(19) 0.69025(19) 0.51301(12) 0.0118(2) 1.
O11 O2- 2 i 0.56411(19) 0.83264(18) 0.38250(11) 0.0115(2) 1.
O12 O2- 2 i 0.42119(19) 0.18435(17) 0.33283(11) 0.0108(2) 1.
O13 O2- 2 i 0.26927(19) 0.95091(17) 0.25159(11) 0.0110(2) 1.
O14 O2- 2 i 0.36635(18) 0.60719(18) 0.25417(12) 0.0118(2) 1.
O15 O2- 2 i -.00401(19) 0.71555(19) 0.29045(11) 0.0129(2) 1.
Li1 Li1+ 2 i 0.7225(5) 0.7127(5) 0.0122(3) 0.0171(6) 1.
Li2 Li1+ 2 i 0.3817(5) 0.3621(5) 0.4457(3) 0.0228(7) 1.
Li3 Li1+ 2 i 0.6846(5) 0.6865(5) 0.2632(3) 0.0181(6) 1.
Li4 Li1+ 2 i 0.4266(5) 0.3977(5) 0.1757(3) 0.0184(7) 1.
H1 H1+ 2 i -0.049(4) 0.704(4) 0.441(3) 0.034(8) 1.
#End of TTdata_51631-ICSD