
#(C) 2020 by FIZ Karlsruhe - Leibniz Institute for Information Infrastructure.  All rights reserved.
data_54701-ICSD
_database_code_ICSD 54701
_audit_creation_date 2005-10-01
_chemical_name_common 'Lithium manganese(III) manganese(IV) oxide'
_chemical_formula_structural 'Li (Mn2 O4)'
_chemical_formula_sum 'Li1 Mn2 O4'
_chemical_name_structure_type LiMn2O4
_exptl_crystal_density_diffrn 4.3
_diffrn_ambient_temperature 10.
_citation_title

;
Temperature dependence of the order and distribution of Mn(3+) and Mn(4+)
cations in orthorhombic Li Mn2 O4
;
loop_
_citation_id
_citation_journal_full
_citation_year
_citation_journal_volume
_citation_page_first
_citation_page_last
_citation_journal_id_ASTM
primary 'Journal of Alloys and Compounds' 2004 382 112 118 JALCEU
loop_
_citation_author_citation_id
_citation_author_name
primary 'Piszora, P.'
_cell_length_a 24.76328(27)
_cell_length_b 24.80455(26)
_cell_length_c 8.19360(7)
_cell_angle_alpha 90.
_cell_angle_beta 90.
_cell_angle_gamma 90.
_cell_volume 5032.85
_cell_formula_units_Z 72
_space_group_name_H-M_alt 'F d d d Z'
_space_group_IT_number 70
loop_
_space_group_symop_id
_space_group_symop_operation_xyz
1 'x+3/4, y+3/4, -z'
2 'x+3/4, -y, z+3/4'
3 '-x, y+3/4, z+3/4'
4 '-x, -y, -z'
5 '-x+1/4, -y+1/4, z'
6 '-x+1/4, y, -z+1/4'
7 'x, -y+1/4, -z+1/4'
8 'x, y, z'
9 'x+3/4, y+1/4, -z+1/2'
10 'x+3/4, -y+1/2, z+1/4'
11 '-x, y+1/4, z+1/4'
12 '-x, -y+1/2, -z+1/2'
13 '-x+1/4, -y+3/4, z+1/2'
14 '-x+1/4, y+1/2, -z+3/4'
15 'x, -y+3/4, -z+3/4'
16 'x, y+1/2, z+1/2'
17 'x+1/4, y+3/4, -z+1/2'
18 'x+1/4, -y, z+1/4'
19 '-x+1/2, y+3/4, z+1/4'
20 '-x+1/2, -y, -z+1/2'
21 '-x+3/4, -y+1/4, z+1/2'
22 '-x+3/4, y, -z+3/4'
23 'x+1/2, -y+1/4, -z+3/4'
24 'x+1/2, y, z+1/2'
25 'x+1/4, y+1/4, -z'
26 'x+1/4, -y+1/2, z+3/4'
27 '-x+1/2, y+1/4, z+3/4'
28 '-x+1/2, -y+1/2, -z'
29 '-x+3/4, -y+3/4, z'
30 '-x+3/4, y+1/2, -z+1/4'
31 'x+1/2, -y+3/4, -z+1/4'
32 'x+1/2, y+1/2, z'
loop_
_atom_type_symbol
_atom_type_oxidation_number
Li1+ 1
Mn3+ 3.5
O2- -2
loop_
_atom_site_label
_atom_site_type_symbol
_atom_site_symmetry_multiplicity
_atom_site_Wyckoff_symbol
_atom_site_fract_x
_atom_site_fract_y
_atom_site_fract_z
_atom_site_U_iso_or_equiv
_atom_site_occupancy
Li1 Li1+ 8 a 0.125 0.125 0.125 0.0116(16) 1.
Li2 Li1+ 16 f 0.375 0.2108(36) 0.375 0.0116(16) 1.
Li3 Li1+ 16 e 0.2082(40) 0.375 0.375 0.0116(16) 1.
Li4 Li1+ 32 h 0.2856(29) 0.2952(34) 0.130(7) 0.0116(16) 1.
Mn1 Mn3+ 16 d 0.25 0.25 0.5 0.0039(10) 1.
Mn2 Mn3+ 32 h 0.0815(4) 0.0855(4) 0.4975(14) 0.0039(10) 1.
Mn3 Mn3+ 32 h 0.0849(4) 0.3307(5) 0.2522(13) 0.0039(10) 1.
Mn4 Mn3+ 32 h 0.25274(33) 0.16756(38) 0.2437(13) 0.0039(10) 1.
Mn5 Mn3+ 32 h 0.16622(35) 0.24484(33) 0.2472(13) 0.0039(10) 1.
O1 O2- 32 h 0.1746(14) 0.1687(16) 0.258(5) 0.0098(16) 1.
O2 O2- 32 h 0.0761(13) 0.0092(14) 0.499(5) 0.0098(16) 1.
O3 O2- 32 h 0.0782(15) 0.3301(12) 0.487(4) 0.0098(16) 1.
O4 O2- 32 h 0.2555(11) 0.1733(12) 0.470(5) 0.0098(16) 1.
O5 O2- 32 h 0.0052(13) 0.0076(13) 0.247(4) 0.0098(16) 1.
O6 O2- 32 h 0.2543(12) 0.0898(15) 0.235(4) 0.0098(16) 1.
O7 O2- 32 h 0.1638(12) 0.3234(15) 0.236(4) 0.0098(16) 1.
O8 O2- 32 h 0.0910(15) 0.2450(13) 0.230(4) 0.0098(16) 1.
O9 O2- 32 h 0.0856(14) 0.1619(15) 0.522(5) 0.0098(16) 1.
#End of TTdata_54701-ICSD