
#(C) 2020 by FIZ Karlsruhe - Leibniz Institute for Information Infrastructure.  All rights reserved.
data_55053-ICSD
_database_code_ICSD 55053
_audit_creation_date 2005-10-01
_chemical_name_common 'Lithium strontium hexafluoroaluminate - III'
_chemical_formula_structural 'Li Sr (Al F6)'
_chemical_formula_sum 'Al1 F6 Li1 Sr1'
_chemical_name_structure_type LiBaCrF6
_exptl_crystal_density_diffrn 3.81
_diffrn_ambient_pressure 2600000.
_citation_title 'Li Sr Al F6 with the (Li Ba Cr F6)-type structure'
loop_
_citation_id
_citation_journal_full
_citation_year
_citation_journal_volume
_citation_page_first
_citation_page_last
_citation_journal_id_ASTM
primary 'Journal of Physics: Condensed Matter' 2004 16 3005 3013 JCOMEL
loop_
_citation_author_citation_id
_citation_author_name
primary 'Grzechnik, A.'
primary 'Dmitriev, V.'
primary 'Weber, H.P.'
primary 'Gesland, J.Y.'
primary 'van Smaalen, S.'
_cell_length_a 5.1539(7)
_cell_length_b 9.798(2)
_cell_length_c 8.139(1)
_cell_angle_alpha 90.
_cell_angle_beta 90.31(2)
_cell_angle_gamma 90.
_cell_volume 411.
_cell_formula_units_Z 4
_space_group_name_H-M_alt 'P 1 21/c 1'
_space_group_IT_number 14
loop_
_space_group_symop_id
_space_group_symop_operation_xyz
1 'x, -y+1/2, z+1/2'
2 '-x, -y, -z'
3 '-x, y+1/2, -z+1/2'
4 'x, y, z'
loop_
_atom_type_symbol
_atom_type_oxidation_number
Li1+ 1
Sr2+ 2
Al3+ 3
F1- -1
loop_
_atom_site_label
_atom_site_type_symbol
_atom_site_symmetry_multiplicity
_atom_site_Wyckoff_symbol
_atom_site_fract_x
_atom_site_fract_y
_atom_site_fract_z
_atom_site_B_iso_or_equiv
_atom_site_occupancy
Li1 Li1+ 4 e 0.242(26) 0.589(16) 0.181(17) . 1.
Sr1 Sr2+ 4 e 0.3206(12) 0.1977(6) -0.0003(16) 0.016(4) 1.
Al1 Al3+ 4 e 0.2221(27) 0.9051(14) 0.2501(16) . 1.
F1 F1- 4 e 0.069(4) 0.0753(16) 0.2626(31) . 1.
F2 F1- 4 e 0.348(4) 0.9130(25) 0.4512(18) . 1.
F3 F1- 4 e 0.4917(34) 0.9854(20) 0.1633(22) . 1.
F4 F1- 4 e 0.095(4) 0.8712(26) 0.0422(17) . 1.
F5 F1- 4 e -0.0862(29) 0.8358(21) 0.3229(22) . 1.
F6 F1- 4 e 0.3792(34) 0.7374(16) 0.2378(34) . 1.
#End of TTdata_55053-ICSD