
#(C) 2020 by FIZ Karlsruhe - Leibniz Institute for Information Infrastructure.  All rights reserved.
data_59112-ICSD
_database_code_ICSD 59112
_audit_creation_date 1987-03-16
_audit_update_record 2012-08-01
_chemical_name_common 'Lithium indium telluride'
_chemical_formula_structural 'Li In Te2'
_chemical_formula_sum 'In1 Li1 Te2'
_chemical_name_structure_type Chalcopyrite#CuFeS2
_exptl_crystal_density_diffrn 4.91
_citation_title 'Die Kristallstruktur von Li In Te2'
loop_
_citation_id
_citation_journal_full
_citation_year
_citation_journal_volume
_citation_page_first
_citation_page_last
_citation_journal_id_ASTM
primary 'Zeitschrift fuer Anorganische und Allgemeine Chemie (1950) (DE)' 1986
532 150 156 ZAACAB
loop_
_citation_author_citation_id
_citation_author_name
primary 'Hoenle, W.'
primary 'Kuehn, G.'
primary 'Neumann, H.'
_cell_length_a 6.398(2)
_cell_length_b 6.398(2)
_cell_length_c 12.460(4)
_cell_angle_alpha 90.
_cell_angle_beta 90.
_cell_angle_gamma 90.
_cell_volume 510.04
_cell_formula_units_Z 4
_space_group_name_H-M_alt 'I -4 2 d'
_space_group_IT_number 122
loop_
_space_group_symop_id
_space_group_symop_operation_xyz
1 '-y, -x+1/2, z+1/4'
2 'y, -x, -z'
3 'y, x+1/2, z+1/4'
4 '-y, x, -z'
5 'x, -y+1/2, -z+1/4'
6 '-x, -y, z'
7 '-x, y+1/2, -z+1/4'
8 'x, y, z'
9 '-y+1/2, -x, z+3/4'
10 'y+1/2, -x+1/2, -z+1/2'
11 'y+1/2, x, z+3/4'
12 '-y+1/2, x+1/2, -z+1/2'
13 'x+1/2, -y, -z+3/4'
14 '-x+1/2, -y+1/2, z+1/2'
15 '-x+1/2, y, -z+3/4'
16 'x+1/2, y+1/2, z+1/2'
loop_
_atom_type_symbol
_atom_type_oxidation_number
Te2- -2
In3+ 3
Li1+ 1
loop_
_atom_site_label
_atom_site_type_symbol
_atom_site_symmetry_multiplicity
_atom_site_Wyckoff_symbol
_atom_site_fract_x
_atom_site_fract_y
_atom_site_fract_z
_atom_site_U_iso_or_equiv
_atom_site_occupancy
Te1 Te2- 8 d 0.2441(1) 0.25 0.125 0.0023 1.
In1 In3+ 4 b 0 0 0.5 0.0022 1.
Li1 Li1+ 4 a 0 0 0 0.0027 1.
loop_
_atom_site_aniso_label
_atom_site_aniso_type_symbol
_atom_site_aniso_U_11
_atom_site_aniso_U_22
_atom_site_aniso_U_33
_atom_site_aniso_U_12
_atom_site_aniso_U_13
_atom_site_aniso_U_23
Te1 Te2- 0.0027(1) 0.0018(1) 0.0024(1) 0 0 0.0004(1)
In1 In3+ 0.0023(1) 0.0023(1) 0.0021(1) 0 0 0
Li1 Li1+ 0.0028(8) 0.0028(8) 0.0024(12) 0 0 0
#End of TTdata_59112-ICSD