
#(C) 2020 by FIZ Karlsruhe - Leibniz Institute for Information Infrastructure.  All rights reserved.
data_59243-ICSD
_database_code_ICSD 59243
_audit_creation_date 1999-01-19
_audit_update_record 2013-08-01
_chemical_name_common 'Tetralithium diphosphate(V) - LT'
_chemical_formula_structural 'Li4 (P2 O7)'
_chemical_formula_sum 'Li4 O7 P2'
_chemical_name_structure_type Li4P2O7
_exptl_crystal_density_diffrn 2.35
_citation_title 'A new polymorph of Li4 P2 O7'
loop_
_citation_id
_citation_journal_full
_citation_year
_citation_journal_volume
_citation_page_first
_citation_page_last
_citation_journal_id_ASTM
primary 'Acta Crystallographica, Section C: Crystal Structure Communications'
1997 53 167 169 ACSCEE
loop_
_citation_author_citation_id
_citation_author_name
primary 'Daidouh, A.'
primary 'Veiga, M.L.'
primary 'Pico, C.'
primary 'Martinez-Ripoll, M.'
_cell_length_a 8.5613(4)
_cell_length_b 7.1100(3)
_cell_length_c 5.1851(1)
_cell_angle_alpha 111.441(2)
_cell_angle_beta 89.986(3)
_cell_angle_gamma 103.065(4)
_cell_volume 284.99
_cell_formula_units_Z 2
_space_group_name_H-M_alt 'P -1'
_space_group_IT_number 2
loop_
_space_group_symop_id
_space_group_symop_operation_xyz
1 '-x, -y, -z'
2 'x, y, z'
loop_
_atom_type_symbol
_atom_type_oxidation_number
P5+ 5
O2- -2
Li1+ 1
loop_
_atom_site_label
_atom_site_type_symbol
_atom_site_symmetry_multiplicity
_atom_site_Wyckoff_symbol
_atom_site_fract_x
_atom_site_fract_y
_atom_site_fract_z
_atom_site_B_iso_or_equiv
_atom_site_occupancy
P1 P5+ 2 i 0.84610(3) 0.22169(4) 0.43831(5) . 1.
P2 P5+ 2 i 0.63094(3) -.21404(4) 0.21355(5) . 1.
O1 O2- 2 i 0.6837(1) 0.03788(12) 0.3082(2) . 1.
O2 O2- 2 i 0.87523(11) 0.25929(15) 0.7411(2) . 1.
O3 O2- 2 i 0.79383(10) 0.39768(12) 0.3897(2) . 1.
O4 O2- 2 i 0.98189(10) 0.15070(13) 0.2699(2) . 1.
O5 O2- 2 i 0.62180(11) -.2606(2) 0.4757(2) . 1.
O6 O2- 2 i 0.47213(10) -.26965(14) 0.0469(2) . 1.
O7 O2- 2 i 0.76253(10) -.29714(13) 0.0411(2) . 1.
Li1 Li1+ 2 i 0.7914(3) 0.6731(4) 0.6444(5) . 1.
Li2 Li1+ 2 i 0.4520(4) 0.7551(6) 0.7016(7) . 1.
Li3 Li1+ 2 i 0.7543(3) 0.4118(4) 1.0161(5) . 1.
Li4 Li1+ 2 i 0.9882(3) 0.8541(4) 1.1100(5) . 1.
loop_
_atom_site_aniso_label
_atom_site_aniso_type_symbol
_atom_site_aniso_U_11
_atom_site_aniso_U_22
_atom_site_aniso_U_33
_atom_site_aniso_U_12
_atom_site_aniso_U_13
_atom_site_aniso_U_23
P1 P5+ 0.00666(10) 0.00635(9) 0.00574(10) 0.00268(7) 0.00063(7) 0.00179(7)
P2 P5+ 0.00552(9) 0.00728(10) 0.00634(10) 0.00164(7) 0.00060(7) 0.00309(7)
O1 O2- 0.0078(3) 0.0069(3) 0.0171(3) 0.0012(2) -.0001(2) 0.0023(2)
O2 O2- 0.0139(3) 0.0175(3) 0.0065(3) 0.0082(3) 0.0013(2) 0.0045(3)
O3 O2- 0.0124(3) 0.0073(3) 0.0104(3) 0.0040(2) -.0010(2) 0.0032(2)
O4 O2- 0.0081(3) 0.0099(3) 0.0094(3) 0.0029(2) 0.0030(2) 0.0022(2)
O5 O2- 0.0124(3) 0.0202(4) 0.0103(3) 0.0070(3) 0.0036(2) 0.0102(3)
O6 O2- 0.0069(3) 0.0146(3) 0.0118(3) 0.0009(2) -.0023(2) 0.0057(3)
O7 O2- 0.0083(3) 0.0095(3) 0.0102(3) 0.0033(2) 0.0036(2) 0.0032(2)
Li1 Li1+ 0.0126(9) 0.0131(9) 0.0122(9) 0.0041(7) 0.0004(7) 0.0038(7)
Li2 Li1+ 0.0149(11) 0.049(2) 0.0192(12) 0.0129(12) 0.0050(9) 0.0199(13)
Li3 Li1+ 0.0133(9) 0.0142(9) 0.0132(9) 0.0044(7) 0.0037(7) 0.0066(7)
Li4 Li1+ 0.0119(9) 0.0142(9) 0.0130(9) 0.0048(7) 0.0008(7) 0.0060(7)
#End of TTdata_59243-ICSD