
#(C) 2020 by FIZ Karlsruhe - Leibniz Institute for Information Infrastructure.  All rights reserved.
data_60069-ICSD
_database_code_ICSD 60069
_audit_creation_date 1986-04-15
_audit_update_record 2005-10-01
_chemical_name_common 'Lithium potassium bis(catena-phosphate(V))- HT'
_chemical_formula_structural 'Li K (P O3)2'
_chemical_formula_sum 'K1 Li1 O6 P2'
_exptl_crystal_density_diffrn 2.4
_citation_title

;
Structure de la forme de haute temperature du polyphosphate de lithium et de
potassium: Li K (P O3)2
;
loop_
_citation_id
_citation_journal_full
_citation_year
_citation_journal_volume
_citation_page_first
_citation_page_last
_citation_journal_id_ASTM
primary 'Acta Crystallographica, Section C: Crystal Structure Communications'
1985 41 1157 1159 ACSCEE
loop_
_citation_author_citation_id
_citation_author_name
primary 'El Horr, N.'
primary 'Bagieu, M.'
_cell_length_a 13.753(5)
_cell_length_b 13.818(5)
_cell_length_c 11.865(5)
_cell_angle_alpha 90.
_cell_angle_beta 90.34(5)
_cell_angle_gamma 90.
_cell_volume 2254.77
_cell_formula_units_Z 16
_space_group_name_H-M_alt 'C 1 2/c 1'
_space_group_IT_number 15
loop_
_space_group_symop_id
_space_group_symop_operation_xyz
1 'x, -y, z+1/2'
2 '-x, -y, -z'
3 '-x, y, -z+1/2'
4 'x, y, z'
5 'x+1/2, -y+1/2, z+1/2'
6 '-x+1/2, -y+1/2, -z'
7 '-x+1/2, y+1/2, -z+1/2'
8 'x+1/2, y+1/2, z'
loop_
_atom_type_symbol
_atom_type_oxidation_number
K1+ 1
P5+ 5
O2- -2
Li1+ 1
loop_
_atom_site_label
_atom_site_type_symbol
_atom_site_symmetry_multiplicity
_atom_site_Wyckoff_symbol
_atom_site_fract_x
_atom_site_fract_y
_atom_site_fract_z
_atom_site_B_iso_or_equiv
_atom_site_occupancy
K1 K1+ 8 f 0.12760(4) 0.12565(6) 0.46997(5) . 1.
K2 K1+ 8 f 0.15452(4) 0.37588(5) 0.04395(5) . 1.
P1 P5+ 4 e 0.5 0.97937(7) 0.25 . 1.
P2 P5+ 8 f 0.42080(4) 0.13089(5) 0.40081(5) . 1.
P3 P5+ 8 f 0.29169(4) 0.23948(5) 0.25151(5) . 1.
P4 P5+ 8 f 0.15071(4) 0.09642(5) 0.16347(5) . 1.
P5 P5+ 4 e 0.5 0.46530(6) 0.25 . 1.
O1 O2- 8 f 0.4968(1) 0.0508(1) 0.3575(1) . 1.
O2 O2- 8 f 0.3809(1) 0.1698(1) 0.2818(2) . 1.
O3 O2- 8 f 0.2000(1) 0.1681(1) 0.2540(2) . 1.
O4 O2- 8 f 0.0908(1) 0.0377(1) 0.2577(1) . 1.
O5 O2- 8 f 0.0935(1) 0.4266(1) 0.2587(2) . 1.
O6 O2- 8 f 0.3410(1) 0.0838(1) 0.4643(2) . 1.
O7 O2- 8 f 0.9796(1) 0.2937(1) 0.9583(2) . 1.
O8 O2- 8 f 0.3083(1) 0.2727(1) 0.1335(2) . 1.
O9 O2- 8 f 0.2754(1) 0.3092(1) 0.3440(2) . 1.
O10 O2- 8 f 0.2247(1) 0.0335(1) 0.1112(2) . 1.
O11 O2- 8 f 0.0843(2) 0.1514(2) 0.0888(2) . 1.
O12 O2- 8 f 0.4988(1) 0.4137(2) 0.3591(2) . 1.
Li1 Li1+ 8 f 0.1918(3) 0.4199(4) 0.3718(4) . 1.
Li2 Li1+ 8 f 0.4309(3) 0.3138(3) 0.0678(4) . 1.
#End of TTdata_60069-ICSD