
#(C) 2020 by FIZ Karlsruhe - Leibniz Institute for Information Infrastructure.  All rights reserved.
data_60838-ICSD
_database_code_ICSD 60838
_audit_creation_date 1988-02-22
_chemical_name_common 'Lithium indium selenide'
_chemical_formula_structural 'Li In Se2'
_chemical_formula_sum 'In1 Li1 Se2'
_chemical_name_structure_type NaFeO2(beta)
_exptl_crystal_density_diffrn 4.54
_citation_title 'Die Kristallstruktur von LiInSe2'
loop_
_citation_id
_citation_journal_full
_citation_year
_citation_journal_volume
_citation_page_first
_citation_page_last
_citation_journal_id_ASTM
primary 'Zeitschrift fuer Anorganische und Allgemeine Chemie (1950) (DE)' 1986
543 161 168 ZAACAB
loop_
_citation_author_citation_id
_citation_author_name
primary 'Hoenle, W.'
primary 'Kuehn, G.'
primary 'Neumann, H.'
_cell_length_a 7.183(2)
_cell_length_b 8.398(3)
_cell_length_c 6.781(2)
_cell_angle_alpha 90.
_cell_angle_beta 90.
_cell_angle_gamma 90.
_cell_volume 409.05
_cell_formula_units_Z 4
_space_group_name_H-M_alt 'P n a 21'
_space_group_IT_number 33
loop_
_space_group_symop_id
_space_group_symop_operation_xyz
1 'x+1/2, -y+1/2, z'
2 '-x+1/2, y+1/2, z+1/2'
3 '-x, -y, z+1/2'
4 'x, y, z'
loop_
_atom_type_symbol
_atom_type_oxidation_number
In3+ 3
Se2- -2
Li1+ 1
loop_
_atom_site_label
_atom_site_type_symbol
_atom_site_symmetry_multiplicity
_atom_site_Wyckoff_symbol
_atom_site_fract_x
_atom_site_fract_y
_atom_site_fract_z
_atom_site_B_iso_or_equiv
_atom_site_occupancy
In1 In3+ 4 a 0.0787(1) 0.1261(2) 0 . 1.
Se1 Se2- 4 a 0.0801(2) 0.1283(3) -.3800(4) . 1.
Se2 Se2- 4 a 0.4158(2) 0.1221(3) 0.1278(5) . 1.
Li1 Li1+ 4 a 0.089(4) 0.631(4) -.005(8) . 1.
loop_
_atom_site_aniso_label
_atom_site_aniso_type_symbol
_atom_site_aniso_U_11
_atom_site_aniso_U_22
_atom_site_aniso_U_33
_atom_site_aniso_U_12
_atom_site_aniso_U_13
_atom_site_aniso_U_23
In1 In3+ 0.0106(5) 0.0194(5) 0.0148(5) -.0001(4) -.0017(14) -.0072(13)
Se1 Se2- 0.0133(7) 0.0178(6) 0.0140(8) 0.0000(16) 0.0008(14) -.0002(18)
Se2 Se2- 0.0091(6) 0.0175(6) 0.0184(8) 0.0036(16) 0.0000(13) 0.0019(19)
Li1 Li1+ 0.0635(94) 0.020(8) 0.0089(80) 0.0057(96) -.0152(99) -.0052(98)
#End of TTdata_60838-ICSD