
#(C) 2020 by FIZ Karlsruhe - Leibniz Institute for Information Infrastructure.  All rights reserved.
data_61204-ICSD
_database_code_ICSD 61204
_audit_creation_date 1986-12-03
_chemical_name_common 'Tetrasodium pentalithium tris(borontrioxide)'
_chemical_formula_structural 'Na4 Li5 (B O3)3'
_chemical_formula_sum 'B3 Li5 Na4 O9'
_exptl_crystal_density_diffrn 2.4
_citation_title 'Quaternaere Monoborate der Alkalimetalle: Na4 Li5 (B O3)3'
loop_
_citation_id
_citation_journal_full
_citation_year
_citation_journal_volume
_citation_page_first
_citation_page_last
_citation_journal_id_ASTM
primary 'Zeitschrift fuer Anorganische und Allgemeine Chemie (1950) (DE)' 1986
536 101 113 ZAACAB
loop_
_citation_author_citation_id
_citation_author_name
primary 'Miessen, M.'
primary 'Hoppe, R.'
_cell_length_a 12.388(5)
_cell_length_b 7.296(3)
_cell_length_c 9.738(3)
_cell_angle_alpha 90.
_cell_angle_beta 107.29(4)
_cell_angle_gamma 90.
_cell_volume 840.38
_cell_formula_units_Z 4
_space_group_name_H-M_alt 'C 1 2/c 1'
_space_group_IT_number 15
loop_
_space_group_symop_id
_space_group_symop_operation_xyz
1 'x, -y, z+1/2'
2 '-x, -y, -z'
3 '-x, y, -z+1/2'
4 'x, y, z'
5 'x+1/2, -y+1/2, z+1/2'
6 '-x+1/2, -y+1/2, -z'
7 '-x+1/2, y+1/2, -z+1/2'
8 'x+1/2, y+1/2, z'
loop_
_atom_type_symbol
_atom_type_oxidation_number
Na1+ 1
Li1+ 1
B3+ 3
O2- -2
loop_
_atom_site_label
_atom_site_type_symbol
_atom_site_symmetry_multiplicity
_atom_site_Wyckoff_symbol
_atom_site_fract_x
_atom_site_fract_y
_atom_site_fract_z
_atom_site_B_iso_or_equiv
_atom_site_occupancy
Na1 Na1+ 8 f 0.2766(1) 0.0545(3) 0.7122(1) . 1.
Na2 Na1+ 8 f 0.1224(2) 0.2444(3) 0.0171(2) . 1.
Li1 Li1+ 8 f 0.0441 0.033(1) 0.6377(10) . 1.
Li2 Li1+ 4 e 0 0.723(2) 0.75 . 1.
Li3 Li1+ 8 f 0.5934(7) 0.1113(10) 0.0141(10) . 1.
B1 B3+ 8 f 0.1683(5) -.0837(8) 0.9041(6) 0.009(3) 1.
B2 B3+ 4 e 0 0.3956(12) 0.75 . 1.
O1 O2- 8 f 0.1461(3) -.1440(5) 0.7633(4) . 1.
O2 O2- 8 f 0.0879(3) -.1207(5) 0.9754(4) . 1.
O3 O2- 8 f 0.2619(3) 0.0133(5) 0.9692(4) . 1.
O4 O2- 8 f -.0271(3) 0.4937(4) 0.8548(4) . 1.
O5 O2- 4 e 0 0.2082(7) 0.75 . 1.
loop_
_atom_site_aniso_label
_atom_site_aniso_type_symbol
_atom_site_aniso_U_11
_atom_site_aniso_U_22
_atom_site_aniso_U_33
_atom_site_aniso_U_12
_atom_site_aniso_U_13
_atom_site_aniso_U_23
Na1 Na1+ 0.015(1) 0.015(1) 0.014(1) -.005(1) 0.004(1) 0.000(1)
Na2 Na1+ 0.022(1) 0.014(1) 0.015(1) -.008(1) 0.003(1) -.001(1)
Li1 Li1+ 0.008(4) 0.021(5) 0.012(5) 0.000(1) 0.008(4) 0.002(5)
Li2 Li1+ 0.006(5) 0.014(7) 0.021(8) 0 -.003(6) 0
Li3 Li1+ 0.018(6) 0.007(5) 0.022(6) -.009(4) 0.013(5) -.005(4)
B2 B3+ 0.010(5) 0.010(5) 0.006(5) 0 0.003(4) 0
O1 O2- 0.009(2) 0.009(2) 0.005(2) -.002(2) 0.001(2) -.001(2)
O2 O2- 0.011(2) 0.012(2) 0.012(2) -.001(2) 0.007(2) 0.001(2)
O3 O2- 0.010(2) 0.011(2) 0.012(2) 0.000(2) 0.002(2) -.002(2)
O4 O2- 0.015(2) 0.013(2) 0.003(2) 0.000(2) 0.003(2) 0.000(2)
O5 O2- 0.026(3) 0.007(3) 0.021(3) 0 0.015(3) 0
#End of TTdata_61204-ICSD