
#(C) 2020 by FIZ Karlsruhe - Leibniz Institute for Information Infrastructure.  All rights reserved.
data_61218-ICSD
_database_code_ICSD 61218
_audit_creation_date 1986-12-03
_audit_update_record 1999-11-30
_chemical_name_common 'Octalithium platinum hexaoxide'
_chemical_formula_structural 'Li8 Pt O6'
_chemical_formula_sum 'Li8 O6 Pt1'
_chemical_name_structure_type Li8IrO6
_exptl_crystal_density_diffrn 4.53
_citation_title
'Neue Vertreter der Li8 Sn O6-Familie: Li8 Ir O6, Li8 Pt O6 und Li8 Ce O6'
loop_
_citation_id
_citation_journal_full
_citation_year
_citation_journal_volume
_citation_page_first
_citation_page_last
_citation_journal_id_ASTM
primary 'Zeitschrift fuer Anorganische und Allgemeine Chemie (1950) (DE)' 1986
536 81 91 ZAACAB
loop_
_citation_author_citation_id
_citation_author_name
primary 'Kroeschell, P.'
primary 'Wolf, R.'
primary 'Hoppe, R.'
_cell_length_a 5.4146(2)
_cell_length_b 5.4146(2)
_cell_length_c 15.0143(14)
_cell_angle_alpha 90.
_cell_angle_beta 90.
_cell_angle_gamma 120.
_cell_volume 381.21
_cell_formula_units_Z 3
_space_group_name_H-M_alt 'R -3 H'
_space_group_IT_number 148
loop_
_space_group_symop_id
_space_group_symop_operation_xyz
1 'x-y, x, -z'
2 'y, -x+y, -z'
3 '-x, -y, -z'
4 '-x+y, -x, z'
5 '-y, x-y, z'
6 'x, y, z'
7 'x-y+2/3, x+1/3, -z+1/3'
8 'y+2/3, -x+y+1/3, -z+1/3'
9 '-x+2/3, -y+1/3, -z+1/3'
10 '-x+y+2/3, -x+1/3, z+1/3'
11 '-y+2/3, x-y+1/3, z+1/3'
12 'x+2/3, y+1/3, z+1/3'
13 'x-y+1/3, x+2/3, -z+2/3'
14 'y+1/3, -x+y+2/3, -z+2/3'
15 '-x+1/3, -y+2/3, -z+2/3'
16 '-x+y+1/3, -x+2/3, z+2/3'
17 '-y+1/3, x-y+2/3, z+2/3'
18 'x+1/3, y+2/3, z+2/3'
loop_
_atom_type_symbol
_atom_type_oxidation_number
Pt4+ 4
Li1+ 1
O2- -2
loop_
_atom_site_label
_atom_site_type_symbol
_atom_site_symmetry_multiplicity
_atom_site_Wyckoff_symbol
_atom_site_fract_x
_atom_site_fract_y
_atom_site_fract_z
_atom_site_B_iso_or_equiv
_atom_site_occupancy
Pt1 Pt4+ 3 a 0 0 0 . 1.
Li1 Li1+ 18 f 0.6306(25) 0.6473(26) 0.8816(8) . 1.
Li2 Li1+ 6 c 0 0 0.3443(16) . 1.
O1 O2- 18 f 0.6787(11) 0.6475(11) 0.4131(3) . 1.
loop_
_atom_site_aniso_label
_atom_site_aniso_type_symbol
_atom_site_aniso_U_11
_atom_site_aniso_U_22
_atom_site_aniso_U_33
_atom_site_aniso_U_12
_atom_site_aniso_U_13
_atom_site_aniso_U_23
Pt1 Pt4+ 0.0053(2) 0.0053(2) 0.0021(3) 0.00265 0 0
Li1 Li1+ 0.0078(44) 0.0077(44) 0.0137(43) -.0028(37) -.0016(39) 0.0052(40)
Li2 Li1+ 0.0353(67) 0.0353(67) 0.0022(68) 0.0177(34) 0 0
O1 O2- 0.0122(20) 0.0098(20) 0.0097(18) 0.0068(17) 0.0007(17) -.0016(17)
#End of TTdata_61218-ICSD