
#(C) 2020 by FIZ Karlsruhe - Leibniz Institute for Information Infrastructure.  All rights reserved.
data_6169-ICSD
_database_code_ICSD 6169
_audit_creation_date 1980-01-01
_audit_update_record 2010-02-01
_chemical_name_common 'Hexalithium dialuminium tetrakis(borate)'
_chemical_formula_structural 'Li6 Al2 (B O3)4'
_chemical_formula_sum 'Al2 B4 Li6 O12'
_chemical_name_structure_type Li3AlB2O6
_exptl_crystal_density_diffrn 2.56
_citation_title 'Crystal structure of lithium aluminoborate, Li6 (Al2 (B O3)4)'
loop_
_citation_id
_citation_journal_full
_citation_year
_citation_journal_volume
_citation_page_first
_citation_page_last
_citation_journal_id_ASTM
primary Kristallografiya 1974 19 165 167 KRISAJ
loop_
_citation_author_citation_id
_citation_author_name
primary 'Abdullaev, G.K.'
primary 'Mamedov, Kh.S.'
_cell_length_a 6.13(3)
_cell_length_b 4.82(2)
_cell_length_c 8.23(5)
_cell_angle_alpha 90.0(5)
_cell_angle_beta 118.0(5)
_cell_angle_gamma 90.0(5)
_cell_volume 214.71
_cell_formula_units_Z 1
_space_group_name_H-M_alt 'P -1'
_space_group_IT_number 2
loop_
_space_group_symop_id
_space_group_symop_operation_xyz
1 '-x, -y, -z'
2 'x, y, z'
loop_
_atom_type_symbol
_atom_type_oxidation_number
Al3+ 3
O2- -2
B3+ 3
Li1+ 1
loop_
_atom_site_label
_atom_site_type_symbol
_atom_site_symmetry_multiplicity
_atom_site_Wyckoff_symbol
_atom_site_fract_x
_atom_site_fract_y
_atom_site_fract_z
_atom_site_B_iso_or_equiv
_atom_site_occupancy
Al1 Al3+ 2 i 0.185 0.365 0.236 0.8(5) 1.
O1 O2- 2 i 0.315 0.195 0.091 0.8(5) 1.
O2 O2- 2 i 0.223 0.095 0.408 0.8(5) 1.
O3 O2- 2 i 0.207 0.68 0.542 0.8(5) 1.
O4 O2- 2 i 0.314 0.22 0.808 0.8(5) 1.
O5 O2- 2 i 0.187 0.615 0.911 0.8(5) 1.
O6 O2- 2 i 0.362 0.681 0.328 0.8(5) 1.
B1 B3+ 2 i 0.281 0.82 0.435 0.8(5) 1.
B2 B3+ 2 i 0.305 0.352 0.955 0.8(5) 1.
Li1 Li1+ 2 i 0.137 0.305 0.562 0.8(5) 1.
Li2 Li1+ 2 i 0.131 0.85 0.716 0.8(5) 1.
Li3 Li1+ 2 i 0.49 0.975 0.681 0.8(5) 1.
#End of TTdata_6169-ICSD