
#(C) 2020 by FIZ Karlsruhe - Leibniz Institute for Information Infrastructure.  All rights reserved.
data_61692-ICSD
_database_code_ICSD 61692
_audit_creation_date 1986-12-03
_audit_update_record 2010-08-01
_chemical_name_common 'Potassium hexalithium iridate(V)'
_chemical_formula_structural 'K Li6 (Ir O6)'
_chemical_formula_sum 'Ir1 K1 Li6 O6'
_chemical_name_structure_type KLi6IrO6
_exptl_crystal_density_diffrn 4.46
_citation_title 'Ein neues Oxoiridat(V): K Li6 (Ir O6)'
loop_
_citation_id
_citation_journal_full
_citation_year
_citation_journal_volume
_citation_page_first
_citation_page_last
_citation_journal_id_ASTM
primary 'Zeitschrift fuer Anorganische und Allgemeine Chemie (1950) (DE)' 1986
537 106 114 ZAACAB
loop_
_citation_author_citation_id
_citation_author_name
primary 'Kroeschell, P.'
primary 'Hoppe, R.'
_cell_length_a 8.1961(8)
_cell_length_b 8.1961(8)
_cell_length_c 7.0996(11)
_cell_angle_alpha 90.
_cell_angle_beta 90.
_cell_angle_gamma 120.
_cell_volume 413.03
_cell_formula_units_Z 3
_space_group_name_H-M_alt 'R -3 m H'
_space_group_IT_number 166
loop_
_space_group_symop_id
_space_group_symop_operation_xyz
1 'x-y, -y, -z'
2 '-x, -x+y, -z'
3 'y, x, -z'
4 'x-y, x, -z'
5 'y, -x+y, -z'
6 '-x, -y, -z'
7 '-x+y, y, z'
8 'x, x-y, z'
9 '-y, -x, z'
10 '-x+y, -x, z'
11 '-y, x-y, z'
12 'x, y, z'
13 'x-y+2/3, -y+1/3, -z+1/3'
14 '-x+2/3, -x+y+1/3, -z+1/3'
15 'y+2/3, x+1/3, -z+1/3'
16 'x-y+2/3, x+1/3, -z+1/3'
17 'y+2/3, -x+y+1/3, -z+1/3'
18 '-x+2/3, -y+1/3, -z+1/3'
19 '-x+y+2/3, y+1/3, z+1/3'
20 'x+2/3, x-y+1/3, z+1/3'
21 '-y+2/3, -x+1/3, z+1/3'
22 '-x+y+2/3, -x+1/3, z+1/3'
23 '-y+2/3, x-y+1/3, z+1/3'
24 'x+2/3, y+1/3, z+1/3'
25 'x-y+1/3, -y+2/3, -z+2/3'
26 '-x+1/3, -x+y+2/3, -z+2/3'
27 'y+1/3, x+2/3, -z+2/3'
28 'x-y+1/3, x+2/3, -z+2/3'
29 'y+1/3, -x+y+2/3, -z+2/3'
30 '-x+1/3, -y+2/3, -z+2/3'
31 '-x+y+1/3, y+2/3, z+2/3'
32 'x+1/3, x-y+2/3, z+2/3'
33 '-y+1/3, -x+2/3, z+2/3'
34 '-x+y+1/3, -x+2/3, z+2/3'
35 '-y+1/3, x-y+2/3, z+2/3'
36 'x+1/3, y+2/3, z+2/3'
loop_
_atom_type_symbol
_atom_type_oxidation_number
Ir5+ 5
K1+ 1
Li1+ 1
O2- -2
loop_
_atom_site_label
_atom_site_type_symbol
_atom_site_symmetry_multiplicity
_atom_site_Wyckoff_symbol
_atom_site_fract_x
_atom_site_fract_y
_atom_site_fract_z
_atom_site_B_iso_or_equiv
_atom_site_occupancy
Ir1 Ir5+ 3 a 0 0 0 . 1.
K1 K1+ 3 b 0 0 0.5 . 1.
Li1 Li1+ 18 f 0.3395(9) 0 0 . 1.
O1 O2- 18 h 0.1170(2) 0.8830(2) 0.1562(4) . 1.
loop_
_atom_site_aniso_label
_atom_site_aniso_type_symbol
_atom_site_aniso_U_11
_atom_site_aniso_U_22
_atom_site_aniso_U_33
_atom_site_aniso_U_12
_atom_site_aniso_U_13
_atom_site_aniso_U_23
Ir1 Ir5+ 0.0032(1) 0.0032(1) 0.0043(1) 0.0016(1) 0 0
K1 K1+ 0.0139(5) 0.0139(5) 0.0185(9) 0.0069(3) 0 0
Li1 Li1+ 0.0095(19) 0.0182(29) 0.0126(24) 0.0091(14) 0.0009(11) 0.0018(22)
O1 O2- 0.0083(7) 0.0083(7) 0.0078(9) 0.0037(8) -.0019(4) 0.0019(4)
#End of TTdata_61692-ICSD