
#(C) 2020 by FIZ Karlsruhe - Leibniz Institute for Information Infrastructure.  All rights reserved.
data_62024-ICSD
_database_code_ICSD 62024
_audit_creation_date 1988-02-22
_audit_update_record 2011-02-01
_chemical_name_common 'Lithium dihydrogenarsenate(V)'
_chemical_formula_structural 'Li (H2 As O4)'
_chemical_formula_sum 'H2 As1 Li1 O4'
_chemical_name_structure_type LiH2AsO4
_exptl_crystal_density_diffrn 2.71
_citation_title 'Absolute structure of Li H2 As O4'
loop_
_citation_id
_citation_journal_full
_citation_year
_citation_journal_volume
_citation_page_first
_citation_page_last
_citation_journal_id_ASTM
primary 'Acta Crystallographica, Section C: Crystal Structure Communications'
1987 43 1022 1025 ACSCEE
loop_
_citation_author_citation_id
_citation_author_name
primary 'Fanchon, E.'
primary 'Vicat, J.'
primary 'Duc Tran Qui'
primary 'Boudjada, A.'
_cell_length_a 6.416(2)
_cell_length_b 7.727(3)
_cell_length_c 7.298(2)
_cell_angle_alpha 90.
_cell_angle_beta 90.
_cell_angle_gamma 90.
_cell_volume 361.81
_cell_formula_units_Z 4
_space_group_name_H-M_alt 'P n a 21'
_space_group_IT_number 33
loop_
_space_group_symop_id
_space_group_symop_operation_xyz
1 'x+1/2, -y+1/2, z'
2 '-x+1/2, y+1/2, z+1/2'
3 '-x, -y, z+1/2'
4 'x, y, z'
loop_
_atom_type_symbol
_atom_type_oxidation_number
As5+ 5
O2- -2
Li1+ 1
H1+ 1
loop_
_atom_site_label
_atom_site_type_symbol
_atom_site_symmetry_multiplicity
_atom_site_Wyckoff_symbol
_atom_site_fract_x
_atom_site_fract_y
_atom_site_fract_z
_atom_site_B_iso_or_equiv
_atom_site_occupancy
As1 As5+ 4 a 0.30199(3) 0.42074(2) 0.17317 . 1.
O1 O2- 4 a 0.2796(3) 0.3141(2) 0.3676(2) . 1.
O2 O2- 4 a 0.4218(3) 0.6172(2) 0.1998(2) . 1.
O3 O2- 4 a 0.0612(3) 0.4887(2) 0.0956(3) . 1.
O4 O2- 4 a 0.4216(3) 0.3093(2) 0.0098(2) . 1.
Li1 Li1+ 4 a 0.4835(8) 0.7847(6) -.0001(6) . 1.
H1 H1+ 4 a -.009(10) 0.359(8) 0.034(8) . 1.
H2 H1+ 4 a 0.473(9) 0.632(7) 0.296(9) . 1.
loop_
_atom_site_aniso_label
_atom_site_aniso_type_symbol
_atom_site_aniso_U_11
_atom_site_aniso_U_22
_atom_site_aniso_U_33
_atom_site_aniso_U_12
_atom_site_aniso_U_13
_atom_site_aniso_U_23
As1 As5+ 0.0146(1) 0.0122(1) 0.0105(1) 0.0010(1) 0.0009(2) 0.0016(1)
O1 O2- 0.0173(8) 0.0218(8) 0.0139(6) 0.0019(6) 0.0021(6) 0.0064(6)
O2 O2- 0.0330(9) 0.0196(7) 0.0133(11) -.0091(6) -.0041(7) 0.0024(5)
O3 O2- 0.0186(8) 0.0161(7) 0.0284(9) 0.0011(6) -.0068(7) 0.0042(7)
O4 O2- 0.0293(9) 0.0195(8) 0.0160(7) 0.0063(7) 0.0077(7) 0.0018(6)
Li1 Li1+ 0.0186(20) 0.0225(21) 0.0131(16) -.0002(17) -.0018(15) 0.0002(14)
#End of TTdata_62024-ICSD