
#(C) 2020 by FIZ Karlsruhe - Leibniz Institute for Information Infrastructure.  All rights reserved.
data_62654-ICSD
_database_code_ICSD 62654
_audit_creation_date 1988-02-22
_audit_update_record 2008-08-01
_chemical_name_common 'Cesium lithium diamide'
_chemical_formula_structural 'Cs Li (N H2)2'
_chemical_formula_sum 'H4 Cs1 Li1 N2'
_exptl_crystal_density_diffrn 2.93
_citation_title

;
Verdrillte Tetraederketten (Li (N H2)4/2)(-) in der Struktur der hexagonalen
Modifikation von Caesiumlithiumamid, Cs Li (N H2)2
;
loop_
_citation_id
_citation_journal_full
_citation_year
_citation_journal_volume
_citation_page_first
_citation_page_last
_citation_journal_id_ASTM
primary 'Zeitschrift fuer Anorganische und Allgemeine Chemie (1950) (DE)' 1987
546 48 54 ZAACAB
loop_
_citation_author_citation_id
_citation_author_name
primary 'Harbrecht, B.'
primary 'Jacobs, H.'
_cell_length_a 6.331(1)
_cell_length_b 6.331(1)
_cell_length_c 8.410(1)
_cell_angle_alpha 90.
_cell_angle_beta 90.
_cell_angle_gamma 120.
_cell_volume 291.92
_cell_formula_units_Z 3
_space_group_name_H-M_alt 'P 62 2 2'
_space_group_IT_number 180
loop_
_space_group_symop_id
_space_group_symop_operation_xyz
1 'x, x-y, -z+1/3'
2 '-x+y, y, -z'
3 '-y, -x, -z+2/3'
4 '-x, -x+y, -z+1/3'
5 'x-y, -y, -z'
6 'y, x, -z+2/3'
7 'x-y, x, z+1/3'
8 'y, -x+y, z+2/3'
9 '-x, -y, z'
10 '-x+y, -x, z+1/3'
11 '-y, x-y, z+2/3'
12 'x, y, z'
loop_
_atom_type_symbol
_atom_type_oxidation_number
Cs1+ 1
N3- -3
Li1+ 1
H1+ 1
loop_
_atom_site_label
_atom_site_type_symbol
_atom_site_symmetry_multiplicity
_atom_site_Wyckoff_symbol
_atom_site_fract_x
_atom_site_fract_y
_atom_site_fract_z
_atom_site_B_iso_or_equiv
_atom_site_occupancy
Cs1 Cs1+ 3 d 0.5 0 0.5 2.29(1) 1.
N1 N3- 6 j 0.1440(8) 0.2880(16) 0.5 2.09(8) 1.
Li1 Li1+ 3 a 0 0 0 1.9(2) 1.
H1 H1+ 12 k 0.38(1) 0.29(1) 0.206(9) 8.(3) 1.
#End of TTdata_62654-ICSD