
#(C) 2020 by FIZ Karlsruhe - Leibniz Institute for Information Infrastructure.  All rights reserved.
data_62878-ICSD
_database_code_ICSD 62878
_audit_creation_date 1988-12-19
_audit_update_record 2012-08-01
_chemical_name_common 'Trilithium diindium tris(phosphate(V))'
_chemical_formula_structural 'Li3 In2 (P O4)3'
_chemical_formula_sum 'In2 Li3 O12 P3'
_chemical_name_structure_type Li3In2(PO4)3
_exptl_crystal_density_diffrn 3.72
_citation_title 'Crystal structure of Li3 In2 (P O4)3'
loop_
_citation_id
_citation_journal_full
_citation_year
_citation_journal_volume
_citation_page_first
_citation_page_last
_citation_journal_id_ASTM
primary Kristallografiya 1987 32 74 78 KRISAJ
loop_
_citation_author_citation_id
_citation_author_name
primary 'Genkina, E.A.'
primary 'Muradyan, L.A.'
primary 'Maksimov, B.A.'
primary 'Merinov, B.A.'
primary 'Sigarev, S.E.'
_cell_length_a 8.432(2)
_cell_length_b 8.432(2)
_cell_length_c 23.268(6)
_cell_angle_alpha 90.
_cell_angle_beta 90.
_cell_angle_gamma 120.
_cell_volume 1432.69
_cell_formula_units_Z 6
_space_group_name_H-M_alt 'R -3 H'
_space_group_IT_number 148
loop_
_space_group_symop_id
_space_group_symop_operation_xyz
1 'x-y, x, -z'
2 'y, -x+y, -z'
3 '-x, -y, -z'
4 '-x+y, -x, z'
5 '-y, x-y, z'
6 'x, y, z'
7 'x-y+2/3, x+1/3, -z+1/3'
8 'y+2/3, -x+y+1/3, -z+1/3'
9 '-x+2/3, -y+1/3, -z+1/3'
10 '-x+y+2/3, -x+1/3, z+1/3'
11 '-y+2/3, x-y+1/3, z+1/3'
12 'x+2/3, y+1/3, z+1/3'
13 'x-y+1/3, x+2/3, -z+2/3'
14 'y+1/3, -x+y+2/3, -z+2/3'
15 '-x+1/3, -y+2/3, -z+2/3'
16 '-x+y+1/3, -x+2/3, z+2/3'
17 '-y+1/3, x-y+2/3, z+2/3'
18 'x+1/3, y+2/3, z+2/3'
loop_
_atom_type_symbol
_atom_type_oxidation_number
In3+ 3
P5+ 5
O2- -2
Li1+ 1
loop_
_atom_site_label
_atom_site_type_symbol
_atom_site_symmetry_multiplicity
_atom_site_Wyckoff_symbol
_atom_site_fract_x
_atom_site_fract_y
_atom_site_fract_z
_atom_site_B_iso_or_equiv
_atom_site_occupancy
In1 In3+ 6 c 0 0 0.1460(1) 1.41 1.
In2 In3+ 6 c 0 0 0.6551(1) 2.06 1.
P1 P5+ 18 f 0.2947(3) -.0023(3) 0.2507(1) 1.26 1.
O1 O2- 18 f 0.205(1) -.0101(10) 0.1941(3) 3.24 1.
O2 O2- 18 f 0.7596(10) 0.9073(10) 0.7031(3) 2.6 1.
O3 O2- 18 f 0.2360(8) -.1981(8) 0.2691(3) 1.64 1.
O4 O2- 18 f 0.4960(8) 0.8907(8) 0.7562(3) 1.59 1.
Li1 Li1+ 18 f 0.355(3) 0.044(3) 0.380(1) 5.0(5) 1.
#End of TTdata_62878-ICSD