
#(C) 2020 by FIZ Karlsruhe - Leibniz Institute for Information Infrastructure.  All rights reserved.
data_63179-ICSD
_database_code_ICSD 63179
_audit_creation_date 1989-12-04
_audit_update_record 2006-04-01
_chemical_name_common 'Lithium cesium sulfate(VI)'
_chemical_formula_structural 'Li Cs (S O4)'
_chemical_formula_sum 'Cs1 Li1 O4 S1'
_chemical_name_structure_type CsLiSO4
_exptl_crystal_density_diffrn 3.47
_diffrn_ambient_temperature 253.
_citation_title

;
X-ray study of Li Cs S O4 in connection with its ferroelastic phase transition
;
loop_
_citation_id
_citation_journal_full
_citation_year
_citation_journal_volume
_citation_page_first
_citation_page_last
_citation_journal_id_ASTM
primary 'Journal of the Physical Society of Japan' 1988 57 4184 4190 JUPSAU
loop_
_citation_author_citation_id
_citation_author_name
primary 'Asahi, T.'
primary 'Hasebe, K.'
_cell_length_a 5.443(1)
_cell_length_b 9.441(1)
_cell_length_c 8.786(1)
_cell_angle_alpha 90.
_cell_angle_beta 90.
_cell_angle_gamma 90.
_cell_volume 451.49
_cell_formula_units_Z 4
_space_group_name_H-M_alt 'P m c n'
_space_group_IT_number 62
loop_
_space_group_symop_id
_space_group_symop_operation_xyz
1 'x, -y+1/2, z+1/2'
2 '-x+1/2, y, z'
3 'x+1/2, y+1/2, -z+1/2'
4 '-x, -y, -z'
5 '-x, y+1/2, -z+1/2'
6 'x+1/2, -y, -z'
7 '-x+1/2, -y+1/2, z+1/2'
8 'x, y, z'
loop_
_atom_type_symbol
_atom_type_oxidation_number
Cs1+ 1
S6+ 6
O2- -2
Li1+ 1
loop_
_atom_site_label
_atom_site_type_symbol
_atom_site_symmetry_multiplicity
_atom_site_Wyckoff_symbol
_atom_site_fract_x
_atom_site_fract_y
_atom_site_fract_z
_atom_site_U_iso_or_equiv
_atom_site_occupancy
Cs1 Cs1+ 4 c 0.75 0.2163(1) 0.4984(1) . 1.
S1 S6+ 4 c 0.25 0.0827(2) 0.2045(2) . 1.
O1 O2- 4 c 0.25 0.0851(8) 0.0399(6) . 1.
O2 O2- 4 c 0.25 0.2259(7) 0.2624(11) . 1.
O3 O2- 8 d 0.0326(8) 0.0098(6) 0.2615(5) . 1.
Li1 Li1+ 4 c 0.25 0.4160(16) 0.3285(17) 0.0228(25) 1.
loop_
_atom_site_aniso_label
_atom_site_aniso_type_symbol
_atom_site_aniso_U_11
_atom_site_aniso_U_22
_atom_site_aniso_U_33
_atom_site_aniso_U_12
_atom_site_aniso_U_13
_atom_site_aniso_U_23
Cs1 Cs1+ 0.0185(1) 0.0193(1) 0.0172(1) 0 0 0.0003(2)
S1 S6+ 0.0091(4) 0.0101(4) 0.0110(4) 0 0 -.0015(4)
O1 O2- 0.0252(26) 0.0508(38) 0.0119(17) 0 0 0.0081(24)
O2 O2- 0.1043(86) 0.0146(25) 0.0577(52) 0 0 -.0154(31)
O3 O2- 0.0184(18) 0.062(3) 0.0238(16) -.0196(21) -.0003(13) -.0058
#End of TTdata_63179-ICSD