
#(C) 2020 by FIZ Karlsruhe - Leibniz Institute for Information Infrastructure.  All rights reserved.
data_63183-ICSD
_database_code_ICSD 63183
_audit_creation_date 1989-12-04
_audit_update_record 2006-04-01
_chemical_name_common 'Lithium cesium sulfate(VI)'
_chemical_formula_structural 'Li Cs (S O4)'
_chemical_formula_sum 'Cs1 Li1 O4 S1'
_chemical_name_structure_type CsLiBeF4
_exptl_crystal_density_diffrn 3.47
_diffrn_ambient_temperature 173.
_citation_title

;
X-ray study of Li Cs S O4 in connection with its ferroelastic phase transition
;
loop_
_citation_id
_citation_journal_full
_citation_year
_citation_journal_volume
_citation_page_first
_citation_page_last
_citation_journal_id_ASTM
primary 'Journal of the Physical Society of Japan' 1988 57 4184 4190 JUPSAU
loop_
_citation_author_citation_id
_citation_author_name
primary 'Asahi, T.'
primary 'Hasebe, K.'
_cell_length_a 5.434(2)
_cell_length_b 9.410(3)
_cell_length_c 8.819(2)
_cell_angle_alpha 90.
_cell_angle_beta 90.
_cell_angle_gamma 90.25(2)
_cell_volume 450.95
_cell_formula_units_Z 4
_space_group_name_H-M_alt 'P 1 1 21/n'
_space_group_IT_number 14
loop_
_space_group_symop_id
_space_group_symop_operation_xyz
1 'x+1/2, y+1/2, -z+1/2'
2 '-x, -y, -z'
3 '-x+1/2, -y+1/2, z+1/2'
4 'x, y, z'
loop_
_atom_type_symbol
_atom_type_oxidation_number
Cs1+ 1
S6+ 6
O2- -2
Li1+ 1
loop_
_atom_site_label
_atom_site_type_symbol
_atom_site_symmetry_multiplicity
_atom_site_Wyckoff_symbol
_atom_site_fract_x
_atom_site_fract_y
_atom_site_fract_z
_atom_site_U_iso_or_equiv
_atom_site_occupancy
Cs1 Cs1+ 4 e 0.7556(1) 0.2178(1) 0.4989(1) . 1.
S1 S6+ 4 e 0.2534(7) 0.0821(1) 0.2039(1) . 1.
O1 O2- 4 e 0.2504(29) 0.0844(7) 0.0393(5) . 1.
O2 O2- 4 e 0.1987(15) 0.2249(7) 0.2625(10) . 1.
O3 O2- 4 e 0.0510(13) 0.9881(9) 0.2580(8) . 1.
O4 O2- 4 e 0.4876(15) 0.0347(9) 0.2628(9) . 1.
Li1 Li1+ 4 e 0.2291(50) 0.4154(18) 0.3321(18) 0.0252(36) 1.
loop_
_atom_site_aniso_label
_atom_site_aniso_type_symbol
_atom_site_aniso_U_11
_atom_site_aniso_U_22
_atom_site_aniso_U_33
_atom_site_aniso_U_12
_atom_site_aniso_U_13
_atom_site_aniso_U_23
Cs1 Cs1+ 0.0125(1) 0.0127(1) 0.0112(1) -.0010(3) 0.0003(4) 0.0003(1)
S1 S6+ 0.0062(4) 0.0067(4) 0.0073(4) -.0012(9) 0.0025(10) -.0006(4)
O1 O2- 0.0186(20) 0.037(3) 0.0054(13) 0.0075(52) -.0036(46) 0.0044
O2 O2- 0.0358(54) 0.0119(23) 0.0332(37) 0.0060(23) 0.0014(29) -.0065
O3 O2- 0.0167(24) 0.0258(31) 0.0162(25) -.0071(24) -.0072(20) 0.0094
O4 O2- 0.0191(26) 0.0305(35) 0.0163(27) 0.0064(26) -.0081(22) -.0038
#End of TTdata_63183-ICSD