
#(C) 2020 by FIZ Karlsruhe - Leibniz Institute for Information Infrastructure.  All rights reserved.
data_63415-ICSD
_database_code_ICSD 63415
_audit_creation_date 1990-12-27
_audit_update_record 2003-04-01
_chemical_name_common 'Cesium lithium chromate(VI)'
_chemical_formula_structural 'Cs Li (Cr O4)'
_chemical_formula_sum 'Cr1 Cs1 Li1 O4'
_chemical_name_structure_type CsLiBeF4
_exptl_crystal_density_diffrn 3.46
_citation_title

;
X-ray structural and optical investigations of phase transition in the crystal
of Cs Li Cr O4
;
loop_
_citation_id
_citation_journal_full
_citation_year
_citation_journal_volume
_citation_page_first
_citation_page_last
_citation_journal_id_ASTM
primary Kristallografiya 1989 34 147 153 KRISAJ
loop_
_citation_author_citation_id
_citation_author_name
primary 'Aleksandrov, K.S.'
primary 'Mel'nikova, S.V. (Melnikova, S.V.)'
primary 'Kruglik, A.I.'
primary 'Tret'yak, S.M. (Tretyak, S.M.)'
primary 'Mitkevich, V.V.'
_cell_length_a 9.744(2)
_cell_length_b 5.636(1)
_cell_length_c 8.956(3)
_cell_angle_alpha 90.
_cell_angle_beta 90.
_cell_angle_gamma 90.43(2)
_cell_volume 491.82
_cell_formula_units_Z 4
_space_group_name_H-M_alt 'P 1 1 21/n'
_space_group_IT_number 14
loop_
_space_group_symop_id
_space_group_symop_operation_xyz
1 'x+1/2, y+1/2, -z+1/2'
2 '-x, -y, -z'
3 '-x+1/2, -y+1/2, z+1/2'
4 'x, y, z'
loop_
_atom_type_symbol
_atom_type_oxidation_number
Cs1+ 1
Cr6+ 6
O2- -2
Li1+ 1
loop_
_atom_site_label
_atom_site_type_symbol
_atom_site_symmetry_multiplicity
_atom_site_Wyckoff_symbol
_atom_site_fract_x
_atom_site_fract_y
_atom_site_fract_z
_atom_site_U_iso_or_equiv
_atom_site_occupancy
Cs1 Cs1+ 4 e 0.2207(1) 0.2653(1) -.0021(1) 0.0176(3) 1.
Cr1 Cr6+ 4 e 0.0749(1) 0.7598(2) 0.7091(1) 0.0057(4) 1.
O1 O2- 4 e 0.0363(9) 0.4961(12) 0.7766(10) 0.026(4) 1.
O2 O2- 4 e 0.0738(11) 0.7340(17) 0.5291(9) 0.030(4) 1.
O3 O2- 4 e -.0418(8) 0.9505(14) 0.7651(10) 0.026(4) 1.
O4 O2- 4 e 0.2259(7) 0.8442(7) 0.7715(11) 0.030(4) 1.
Li1 Li1+ 4 e 0.091(5) 0.727(8) 0.320(3) 0.019(9) 1.
#End of TTdata_63415-ICSD