
#(C) 2020 by FIZ Karlsruhe - Leibniz Institute for Information Infrastructure.  All rights reserved.
data_63416-ICSD
_database_code_ICSD 63416
_audit_creation_date 1990-12-27
_audit_update_record 2006-04-01
_chemical_name_common 'Cesium lithium chromate'
_chemical_formula_structural 'Cs Li (Cr O4)'
_chemical_formula_sum 'Cr1 Cs1 Li1 O4'
_chemical_name_structure_type CsLiBeF4
_exptl_crystal_density_diffrn 3.48
_diffrn_ambient_temperature 175.
_citation_title

;
X-ray structural and optical investigations of phase transition in the crystal
of Cs Li Cr O4
;
loop_
_citation_id
_citation_journal_full
_citation_year
_citation_journal_volume
_citation_page_first
_citation_page_last
_citation_journal_id_ASTM
primary Kristallografiya 1989 34 147 153 KRISAJ
loop_
_citation_author_citation_id
_citation_author_name
primary 'Aleksandrov, K.S.'
primary 'Mel'nikova, S.V. (Melnikova, S.V.)'
primary 'Kruglik, A.I.'
primary 'Tret'yak, S.M. (Tretyak, S.M.)'
primary 'Mitkevich, V.V.'
_cell_length_a 9.693(2)
_cell_length_b 5.610(1)
_cell_length_c 8.978(3)
_cell_angle_alpha 90.
_cell_angle_beta 90.
_cell_angle_gamma 90.17(2)
_cell_volume 488.2
_cell_formula_units_Z 4
_space_group_name_H-M_alt 'P 1 1 21/n'
_space_group_IT_number 14
loop_
_space_group_symop_id
_space_group_symop_operation_xyz
1 'x+1/2, y+1/2, -z+1/2'
2 '-x, -y, -z'
3 '-x+1/2, -y+1/2, z+1/2'
4 'x, y, z'
loop_
_atom_type_symbol
_atom_type_oxidation_number
Cs1+ 1
Cr6+ 6
O2- -2
Li1+ 1
loop_
_atom_site_label
_atom_site_type_symbol
_atom_site_symmetry_multiplicity
_atom_site_Wyckoff_symbol
_atom_site_fract_x
_atom_site_fract_y
_atom_site_fract_z
_atom_site_U_iso_or_equiv
_atom_site_occupancy
Cs1 Cs1+ 4 e 0.2243(1) 0.2704(1) 0.0004(1) 0.0100(2) 1.
Cr1 Cr6+ 4 e 0.0723(1) 0.7592(2) 0.7096(1) 0.0037(4) 1.
O1 O2- 4 e 0.0382(8) 0.4922(11) 0.7762(7) 0.019(3) 1.
O2 O2- 4 e 0.0776(7) 0.7468(13) 0.5281(6) 0.015(3) 1.
O3 O2- 4 e -.0505(6) 0.9497(11) 0.7604(7) 0.014(3) 1.
O4 O2- 4 e 0.2231(6) 0.8526(12) 0.7714(7) 0.015(3) 1.
Li1 Li1+ 4 e 0.107(4) 0.730(6) 0.313(3) 0.017(9) 1.
#End of TTdata_63416-ICSD