
#(C) 2020 by FIZ Karlsruhe - Leibniz Institute for Information Infrastructure.  All rights reserved.
data_638-ICSD
_database_code_ICSD 638
_audit_creation_date 1984-09-04
_audit_update_record 2009-08-01
_chemical_name_common 'Lithium catena-phosphate(V)'
_chemical_formula_structural 'Li (P O3)'
_chemical_formula_sum 'Li1 O3 P1'
_exptl_crystal_density_diffrn 2.48
_citation_title 'Structure cristalline du polyphosphate de lithium, Li P O3'
loop_
_citation_id
_citation_journal_full
_citation_year
_citation_journal_volume
_citation_page_first
_citation_page_last
_citation_journal_id_ASTM
primary

;
Acta Crystallographica, Section B: Structural Crystallography and Crystal
Chemistry
; 1976 32 2960 2966 ACBCAR
loop_
_citation_author_citation_id
_citation_author_name
primary 'Guitel, J.C.'
primary 'Tordjman, I.'
_cell_length_a 16.4530(20)
_cell_length_b 5.405(1)
_cell_length_c 13.086(2)
_cell_angle_alpha 90.
_cell_angle_beta 98.99(2)
_cell_angle_gamma 90.
_cell_volume 1149.42
_cell_formula_units_Z 20
_space_group_name_H-M_alt 'P 1 n 1'
_space_group_IT_number 7
loop_
_space_group_symop_id
_space_group_symop_operation_xyz
1 'x+1/2, -y, z+1/2'
2 'x, y, z'
loop_
_atom_type_symbol
_atom_type_oxidation_number
P5+ 5
O2- -2
Li1+ 1
loop_
_atom_site_label
_atom_site_type_symbol
_atom_site_symmetry_multiplicity
_atom_site_Wyckoff_symbol
_atom_site_fract_x
_atom_site_fract_y
_atom_site_fract_z
_atom_site_B_iso_or_equiv
_atom_site_occupancy
P1 P5+ 2 a 0.5 0.8117(3) 0.5 . 1.
P2 P5+ 2 a 0.59249(15) 0.1526(4) 0.3871(2) . 1.
P3 P5+ 2 a 0.69745(16) 0.8092(4) 0.2959(2) . 1.
P4 P5+ 2 a 0.80915(15) 0.1719(4) 0.2179(2) . 1.
P5 P5+ 2 a 0.90816(15) 0.8398(4) 0.1150(2) . 1.
P6 P5+ 2 a 0.07331(15) 0.1581(4) 0.4086(2) . 1.
P7 P5+ 2 a 0.17433(16) 0.8247(4) 0.3102(2) . 1.
P8 P5+ 2 a 0.28662(16) 0.1884(4) 0.2316(2) . 1.
P9 P5+ 2 a 0.38988(15) 0.8475(4) 0.1381(2) . 1.
P10 P5+ 2 a 0.48161(5) 0.1899(4) 0.02197(8) . 1.
O1 O2- 2 a 0.5376(3) 0.9559(11) 0.4058(4) . 1.
O2 O2- 2 a 0.6420(4) 0.0514(11) 0.2994(5) . 1.
O3 O2- 2 a 0.7772(3) 0.9188(11) 0.2546(5) . 1.
O4 O2- 2 a 0.8948(4) 0.0786(12) 0.1861(4) . 1.
O5 O2- 2 a 0.4789(4) 0.0544(11) 0.5552(5) . 1.
O6 O2- 2 a 0.0904(4) 0.9228(11) 0.3419(4) . 1.
O7 O2- 2 a 0.2086(4) 0.0842(11) 0.2705(5) . 1.
O8 O2- 2 a 0.3433(4) 0.9473(10) 0.2284(5) . 1.
O9 O2- 2 a 0.4446(4) 0.0822(12) 0.1208(4) . 1.
O10 O2- 2 a 0.0024(4) 0.0649(10) 0.4677(4) . 1.
O11 O2- 2 a 0.4244(4) 0.6757(15) 0.4580(6) . 1.
O12 O2- 2 a 0.5665(4) 0.6880(15) 0.5713(6) . 1.
O13 O2- 2 a 0.5400(4) 0.3554(15) 0.3366(6) . 1.
O14 O2- 2 a 0.6517(4) 0.2027(13) 0.4834(5) . 1.
O15 O2- 2 a 0.6538(4) 0.6429(14) 0.2133(5) . 1.
O16 O2- 2 a 0.7227(4) 0.7169(14) 0.4033(5) . 1.
O17 O2- 2 a 0.7527(4) 0.2455(15) 0.1238(6) . 1.
O18 O2- 2 a 0.8294(4) 0.3495(15) 0.3014(6) . 1.
O19 O2- 2 a 0.8333(5) 0.7833(15) 0.0433(6) . 1.
O20 O2- 2 a 0.9456(5) 0.6418(16) 0.1834(6) . 1.
O21 O2- 2 a 0.0368(4) 0.3559(14) 0.3366(5) . 1.
O22 O2- 2 a 0.1507(4) 0.2112(14) 0.4845(5) . 1.
O23 O2- 2 a 0.1524(4) 0.6592(15) 0.2176(5) . 1.
O24 O2- 2 a 0.2277(5) 0.7359(15) 0.4054(6) . 1.
O25 O2- 2 a 0.2594(4) 0.2757(14) 0.1244(5) . 1.
O26 O2- 2 a 0.3277(4) 0.3601(15) 0.3072(6) . 1.
O27 O2- 2 a 0.3298(4) 0.7979(15) 0.0439(6) . 1.
O28 O2- 2 a 0.4456(4) 0.6511(15) 0.1853(5) . 1.
O29 O2- 2 a 0.4185(4) 0.3264(14) 0.9510(5) . 1.
O30 O2- 2 a 0.5575(4) 0.3243(14) 0.0795(5) . 1.
Li1 Li1+ 2 a 0.3174(9) 0.507(3) 0.4469(11) 1.11 1.
Li2 Li1+ 2 a 0.4339(9) 0.520(2) 0.3236(12) 1.06 1.
Li3 Li1+ 2 a 0.5497(10) 0.493(2) 0.2016(12) 1.29 1.
Li4 Li1+ 2 a 0.6651(10) 0.493(3) 0.0827(12) 1.61 1.
Li5 Li1+ 2 a 0.7429(13) 0.007(1) 0.0134(18) 1.24 1.
Li6 Li1+ 2 a 0.8184(10) 0.480(3) 0.4438(13) 1.3 1.
Li7 Li1+ 2 a 0.9332(9) 0.522(2) 0.3227(12) 0.71 1.
Li8 Li1+ 2 a 0.0506(11) 0.462(3) 0.2034(14) 1.71 1.
Li9 Li1+ 2 a 0.1679(10) 0.525(3) 0.0813(13) 1.49 1.
Li10 Li1+ 2 a 0.2460(6) 0.0397(7) 0.0081(9) 0.87 1.
#End of TTdata_638-ICSD