
#(C) 2020 by FIZ Karlsruhe - Leibniz Institute for Information Infrastructure.  All rights reserved.
data_64597-ICSD
_database_code_ICSD 64597
_audit_creation_date 1989-06-19
_audit_update_record 2007-04-01
_chemical_name_common 'Trilithium diiron(III) tris(phosphate(V)) - beta, HT'
_chemical_formula_structural 'Li3 Fe2 (P O4)3'
_chemical_formula_sum 'Fe2 Li3 O12 P3'
_chemical_name_structure_type Li3Fe2(PO4)3(P21/n)
_exptl_crystal_density_diffrn 3.09
_diffrn_ambient_temperature 513.
_citation_title

;
Atomic structure of the beta-phase of Li3 Sc2 (P O4)3 and Li3 Fe2 (P O4)3
crystals.
;
loop_
_citation_id
_citation_journal_full
_citation_year
_citation_journal_volume
_citation_page_first
_citation_page_last
_citation_journal_id_ASTM
primary 'Doklady Akademii Nauk SSSR' 1987 292 1376 1379 DANKAS
loop_
_citation_author_citation_id
_citation_author_name
primary 'Kondratyuk, I.P.'
primary 'Maksimov, B.A.'
primary 'Muradyan, L.A.'
_cell_length_a 8.588(1)
_cell_length_b 12.112(2)
_cell_length_c 8.638(1)
_cell_angle_alpha 90.
_cell_angle_beta 90.
_cell_angle_gamma 90.19(2)
_cell_volume 898.5
_cell_formula_units_Z 4
_space_group_name_H-M_alt 'P 1 1 21/n'
_space_group_IT_number 14
loop_
_space_group_symop_id
_space_group_symop_operation_xyz
1 'x+1/2, y+1/2, -z+1/2'
2 '-x, -y, -z'
3 '-x+1/2, -y+1/2, z+1/2'
4 'x, y, z'
loop_
_atom_type_symbol
_atom_type_oxidation_number
Fe3+ 3
P5+ 5
O2- -2
Li1+ 1
loop_
_atom_site_label
_atom_site_type_symbol
_atom_site_symmetry_multiplicity
_atom_site_Wyckoff_symbol
_atom_site_fract_x
_atom_site_fract_y
_atom_site_fract_z
_atom_site_B_iso_or_equiv
_atom_site_occupancy
Fe1 Fe3+ 4 e 0.2479(1) 0.1066(1) 0.4640(1) 1.17(5) 1.
Fe2 Fe3+ 4 e 0.7508(1) 0.3936(1) 0.4648(1) 1.29(5) 1.
P1 P5+ 4 e 0.1071(1) 0.1485(1) 0.1066(2) 1.04(5) 1.
P2 P5+ 4 e 0.6056(1) 0.3525(1) 0.1088(2) 1.00(5) 1.
P3 P5+ 4 e 0.0389(2) 0.4983(1) 0.2489(2) 1.05(4) 1.
O1 O2- 4 e 0.4314(3) 0.3326(2) 0.0907(3) 1.64(6) 1.
O2 O2- 4 e 0.9292(3) 0.1441(2) 0.1103(3) 2.26(8) 1.
O3 O2- 4 e 0.3435(4) 0.2653(3) 0.4843(3) 2.10(7) 1.
O4 O2- 4 e 0.8080(3) 0.2219(2) 0.4917(3) 2.04(7) 1.
O5 O2- 4 e 0.6455(3) 0.4723(3) 0.0775(3) 2.34(7) 1.
O6 O2- 4 e 0.1769(4) 0.0403(3) 0.0580(4) 3.06(8) 1.
O7 O2- 4 e 0.4457(3) 0.0697(3) 0.3639(4) 2.07(6) 1.
O8 O2- 4 e 0.9391(4) 0.4140(3) 0.3343(4) 2.65(7) 1.
O9 O2- 4 e 0.1651(4) 0.4322(3) 0.1653(4) 2.21(7) 1.
O10 O2- 4 e 0.6233(4) 0.0834(3) 0.1488(4) 2.38(7) 1.
O11 O2- 4 e 0.1643(4) 0.1823(3) 0.2671(3) 1.77(6) 1.
O12 O2- 4 e 0.6471(4) 0.3205(3) 0.2761(3) 1.86(6) 1.
Li1 Li1+ 4 e 0.300(2) 0.324(1) 0.278(2) 4.8(9) 1.
Li2 Li1+ 4 e 0.781(2) 0.176(2) 0.282(3) 8.5(9) 1.
Li3 Li1+ 4 e 0.577(3) 0.204(2) 0.426(3) 10.20(13) 1.
#End of TTdata_64597-ICSD