
#(C) 2020 by FIZ Karlsruhe - Leibniz Institute for Information Infrastructure.  All rights reserved.
data_64746-ICSD
_database_code_ICSD 64746
_audit_creation_date 1998-06-26
_audit_update_record 2006-04-01
_chemical_name_common 'Lithium tecto-alumosilicate'
_chemical_formula_structural 'Li (Al Si O4)'
_chemical_formula_sum 'Al1 Li1 O4 Si1'
_chemical_name_mineral Pseudo-eucryptite
_exptl_crystal_density_diffrn 2.36
_citation_title

;
Average and superstructure of beta-eucryptite (Li Al Si O4). Part II.
Superstructure
;
loop_
_citation_id
_citation_journal_full
_citation_year
_citation_journal_volume
_citation_page_first
_citation_page_last
_citation_journal_id_ASTM
primary 'Zeitschrift fuer Kristallographie' 1972 135 175 198 ZEKRDZ
loop_
_citation_author_citation_id
_citation_author_name
primary 'Tscherry, V.'
primary 'Schulz, H.'
primary 'Laves, F.'
_cell_length_a 10.4818(3)
_cell_length_b 10.4818(3)
_cell_length_c 11.1750(7)
_cell_angle_alpha 90.
_cell_angle_beta 90.
_cell_angle_gamma 120.
_cell_volume 1063.29
_cell_formula_units_Z 12
_space_group_name_H-M_alt 'P 64 2 2'
_space_group_IT_number 181
loop_
_space_group_symop_id
_space_group_symop_operation_xyz
1 'x, x-y, -z+2/3'
2 '-x+y, y, -z'
3 '-y, -x, -z+1/3'
4 '-x, -x+y, -z+2/3'
5 'x-y, -y, -z'
6 'y, x, -z+1/3'
7 'x-y, x, z+2/3'
8 'y, -x+y, z+1/3'
9 '-x, -y, z'
10 '-x+y, -x, z+2/3'
11 '-y, x-y, z+1/3'
12 'x, y, z'
loop_
_atom_type_symbol
_atom_type_oxidation_number
Si4+ 4
Al3+ 3
Si4+ 4
Al3+ 3
O2- -2
Li1+ 1
loop_
_atom_site_label
_atom_site_type_symbol
_atom_site_symmetry_multiplicity
_atom_site_Wyckoff_symbol
_atom_site_fract_x
_atom_site_fract_y
_atom_site_fract_z
_atom_site_B_iso_or_equiv
_atom_site_occupancy
Si1 Si4+ 6 g 0.2513(3) 0 0 0.7(1) 1.
Al1 Al3+ 6 h 0.2489(3) 0 0.5 1.1(1) 1.
Si2 Si4+ 6 i 0.2526(2) 0.5052(4) 0 0.7(1) 1.
Al2 Al3+ 6 j 0.2489(2) 0.4978(4) 0.5 1.2(1) 1.
O1 O2- 12 k 0.105(1) 0.203(1) 0.268(1) 1.1(1) 1.
O2 O2- 12 k 0.590(1) 0.702(1) 0.249(1) 1.0(1) 1.
O3 O2- 12 k 0.088(1) 0.696(1) 0.246(1) 0.7(1) 1.
O4 O2- 12 k 0.603(1) 0.205(1) 0.258(1) 1.2(1) 1.
Li1 Li1+ 3 a 0 0 0 0.0(2) 1.
Li2 Li1+ 3 c 0.5 0 0 -2.30(22) 0.5
Li3 Li1+ 6 f 0.5 0 0.167 5.00(22) 0.5
Li4 Li1+ 6 f 0.5 0 0.333 5.00(22) 0.5
Li5 Li1+ 3 d 0.5 0 0.5 -2.20(21) 0.5
#End of TTdata_64746-ICSD