
#(C) 2020 by FIZ Karlsruhe - Leibniz Institute for Information Infrastructure.  All rights reserved.
data_64911-ICSD
_database_code_ICSD 64911
_audit_creation_date 1998-06-26
_audit_update_record 2007-08-01
_chemical_name_common 'Lithium aluminium silicate (0.5/0.5/0.5)'
_chemical_formula_structural '(Li Al (Si O4))0.5'
_chemical_formula_sum 'Al0.5 Li0.5 O2 Si0.5'
_chemical_name_structure_type Li2Al2SiO6
_chemical_name_mineral Pseudo-eucryptite
_exptl_crystal_density_diffrn 2.36
_citation_title

;
Average and superstructure of beta-eucryptite (Li Al Si O4). Part I. Average
Structure
;
loop_
_citation_id
_citation_journal_full
_citation_year
_citation_journal_volume
_citation_page_first
_citation_page_last
_citation_journal_id_ASTM
primary 'Zeitschrift fuer Kristallographie' 1972 135 161 174 ZEKRDZ
loop_
_citation_author_citation_id
_citation_author_name
primary 'Tscherry, V.'
primary 'Schulz, H.'
primary 'Laves, F.'
_cell_length_a 5.2409(2)
_cell_length_b 5.2409(2)
_cell_length_c 5.5875(4)
_cell_angle_alpha 90.
_cell_angle_beta 90.
_cell_angle_gamma 120.
_cell_volume 132.91
_cell_formula_units_Z 3
_space_group_name_H-M_alt 'P 62 2 2'
_space_group_IT_number 180
loop_
_space_group_symop_id
_space_group_symop_operation_xyz
1 'x, x-y, -z+1/3'
2 '-x+y, y, -z'
3 '-y, -x, -z+2/3'
4 '-x, -x+y, -z+1/3'
5 'x-y, -y, -z'
6 'y, x, -z+2/3'
7 'x-y, x, z+1/3'
8 'y, -x+y, z+2/3'
9 '-x, -y, z'
10 '-x+y, -x, z+1/3'
11 '-y, x-y, z+2/3'
12 'x, y, z'
loop_
_atom_type_symbol
_atom_type_oxidation_number
Si4+ 4
Al3+ 3
O2- -2
Li1+ 1
loop_
_atom_site_label
_atom_site_type_symbol
_atom_site_symmetry_multiplicity
_atom_site_Wyckoff_symbol
_atom_site_fract_x
_atom_site_fract_y
_atom_site_fract_z
_atom_site_B_iso_or_equiv
_atom_site_occupancy
Si1 Si4+ 3 c 0.5 0 0 . 0.5
Al1 Al3+ 3 c 0.5 0 0 . 0.5
O1 O2- 6 j 0.2017(2) 0.4034 0.5 . 1.
Li1 Li1+ 3 a 0 0 0 . 0.5
#End of TTdata_64911-ICSD