
#(C) 2020 by FIZ Karlsruhe - Leibniz Institute for Information Infrastructure.  All rights reserved.
data_65150-ICSD
_database_code_ICSD 65150
_audit_creation_date 1989-12-04
_audit_update_record 2012-02-01
_chemical_name_common 'Cesium dilithium hydroxide'
_chemical_formula_structural 'Cs Li2 (O H)3'
_chemical_formula_sum 'H3 Cs1 Li2 O3'
_chemical_name_structure_type KLi2(OH)3
_exptl_crystal_density_diffrn 3.12
_citation_title

;
Neue ternaere Alkalimetallhydroxide, M Li2 (O H)3 mit M= K, Rb, Cs sowie ein
Caesiumdilithiumamid, Cs Li2 (N H2)3 - Strukturverwandtschaft zum Ba Ni O3 -
Typ und zu Li O H
;
loop_
_citation_id
_citation_journal_full
_citation_year
_citation_journal_volume
_citation_page_first
_citation_page_last
_citation_journal_id_ASTM
primary 'Zeitschrift fuer Anorganische und Allgemeine Chemie (1950) (DE)' 1987
555 43 56 ZAACAB
loop_
_citation_author_citation_id
_citation_author_name
primary 'Jacobs, H.'
primary 'Schardey, A.'
primary 'Harbrecht, B.'
_cell_length_a 6.519(2)
_cell_length_b 5.271(2)
_cell_length_c 6.401(2)
_cell_angle_alpha 90.
_cell_angle_beta 107.02(3)
_cell_angle_gamma 90.
_cell_volume 210.32
_cell_formula_units_Z 2
_space_group_name_H-M_alt 'P 1 21/m 1'
_space_group_IT_number 11
loop_
_space_group_symop_id
_space_group_symop_operation_xyz
1 'x, -y+1/2, z'
2 '-x, -y, -z'
3 '-x, y+1/2, -z'
4 'x, y, z'
loop_
_atom_type_symbol
_atom_type_oxidation_number
Cs1+ 1
Li1+ 1
O2- -2
H1+ 1
loop_
_atom_site_label
_atom_site_type_symbol
_atom_site_symmetry_multiplicity
_atom_site_Wyckoff_symbol
_atom_site_fract_x
_atom_site_fract_y
_atom_site_fract_z
_atom_site_B_iso_or_equiv
_atom_site_occupancy
Cs1 Cs1+ 2 e 0.15071(6) 0.25 0.26866(6) . 1.
Li1 Li1+ 4 f 0.653(1) -.003(1) 0.184(1) . 1.
O1 O2- 2 e 0.5943(6) 0.25 0.9308(6) . 1.
O2 O2- 2 e 0.1241(6) 0.25 0.7860(7) . 1.
O3 O2- 2 e 0.6782(7) 0.25 0.4077(7) . 1.
H1 H1+ 2 e 0.71(1) 0.25 0.87(1) 1.(2) 1.
H2 H1+ 2 e 0.04(1) 0.25 0.68(1) 1.(2) 1.
H3 H1+ 2 e 0.64(2) 0.25 0.49(2) 2.(2) 1.
loop_
_atom_site_aniso_label
_atom_site_aniso_type_symbol
_atom_site_aniso_U_11
_atom_site_aniso_U_22
_atom_site_aniso_U_33
_atom_site_aniso_U_12
_atom_site_aniso_U_13
_atom_site_aniso_U_23
Cs1 Cs1+ 0.0227(1) 0.0216(1) 0.0217(1) 0 0.0068(1) 0
Li1 Li1+ 0.021(3) 0.016(3) 0.024(3) -.003(2) 0.004(2) -.001(2)
O1 O2- 0.022(1) 0.020(7) 0.017(1) 0 0.005(1) 0
O2 O2- 0.019(2) 0.023(2) 0.022(2) 0 0.003(1) 0
O3 O2- 0.032(2) 0.025(2) 0.020(1) 0 0.009(1) 0
#End of TTdata_65150-ICSD