
#(C) 2020 by FIZ Karlsruhe - Leibniz Institute for Information Infrastructure.  All rights reserved.
data_65151-ICSD
_database_code_ICSD 65151
_audit_creation_date 1989-12-04
_chemical_name_common 'Cesium dilithium amide'
_chemical_formula_structural 'Cs Li2 (N H2)3'
_chemical_formula_sum 'H6 Cs1 Li2 N3'
_chemical_name_structure_type RbLi2(NH2)3
_exptl_crystal_density_diffrn 2.44
_citation_title

;
Neue ternaere Alkalimetallhydroxide, M Li2 (O H)3 mit M= K, Rb, Cs sowie ein
Caesiumdilithiumamid, Cs Li2 (N H2)3 - Strukturverwandtschaft zum Ba Ni O3 -
Typ und zu Li O H
;
loop_
_citation_id
_citation_journal_full
_citation_year
_citation_journal_volume
_citation_page_first
_citation_page_last
_citation_journal_id_ASTM
primary 'Zeitschrift fuer Anorganische und Allgemeine Chemie (1950) (DE)' 1987
555 43 56 ZAACAB
loop_
_citation_author_citation_id
_citation_author_name
primary 'Jacobs, H.'
primary 'Schardey, A.'
primary 'Harbrecht, B.'
_cell_length_a 8.726(4)
_cell_length_b 11.151(3)
_cell_length_c 5.445(1)
_cell_angle_alpha 90.
_cell_angle_beta 90.
_cell_angle_gamma 90.
_cell_volume 529.82
_cell_formula_units_Z 4
_space_group_name_H-M_alt 'C m c m'
_space_group_IT_number 63
loop_
_space_group_symop_id
_space_group_symop_operation_xyz
1 '-x, y, -z+1/2'
2 '-x, -y, z+1/2'
3 '-x, y, z'
4 '-x, -y, -z'
5 'x, -y, z+1/2'
6 'x, y, -z+1/2'
7 'x, -y, -z'
8 'x, y, z'
9 '-x+1/2, y+1/2, -z+1/2'
10 '-x+1/2, -y+1/2, z+1/2'
11 '-x+1/2, y+1/2, z'
12 '-x+1/2, -y+1/2, -z'
13 'x+1/2, -y+1/2, z+1/2'
14 'x+1/2, y+1/2, -z+1/2'
15 'x+1/2, -y+1/2, -z'
16 'x+1/2, y+1/2, z'
loop_
_atom_type_symbol
_atom_type_oxidation_number
Cs1+ 1
Li1+ 1
N3- -3
H1+ 1
loop_
_atom_site_label
_atom_site_type_symbol
_atom_site_symmetry_multiplicity
_atom_site_Wyckoff_symbol
_atom_site_fract_x
_atom_site_fract_y
_atom_site_fract_z
_atom_site_B_iso_or_equiv
_atom_site_occupancy
Cs1 Cs1+ 4 c 0 0.699940(5) 0.25 . 1.
Li1 Li1+ 8 e 0.1452(8) 0 0 . 1.
N1 N3- 4 c 0 0.0979(4) 0.25 . 1.
N2 N3- 8 g 0.2269(4) 0.4045(3) 0.25 . 1.
H1 H1+ 8 g 0.930(7) 0.134(5) 0.25 8.(2) 1.
H2 H1+ 8 g 0.135(8) 0.431(6) 0.25 10.(2) 1.
H3 H1+ 8 g 0.22 0.33 0.25 8.(2) 1.
loop_
_atom_site_aniso_label
_atom_site_aniso_type_symbol
_atom_site_aniso_U_11
_atom_site_aniso_U_22
_atom_site_aniso_U_33
_atom_site_aniso_U_12
_atom_site_aniso_U_13
_atom_site_aniso_U_23
Cs1 Cs1+ 0.0517(2) 0.0436(2) 0.0292(2) 0 0 0
Li1 Li1+ 0.028(3) 0.041(3) 0.022(3) 0 0 0.000(3)
N1 N3- 0.023(2) 0.025(2) 0.023(2) 0 0 0
N2 N3- 0.025(1) 0.037(2) 0.034(1) -.008(1) 0 0
#End of TTdata_65151-ICSD