
#(C) 2020 by FIZ Karlsruhe - Leibniz Institute for Information Infrastructure.  All rights reserved.
data_65176-ICSD
_database_code_ICSD 65176
_audit_creation_date 1989-12-04
_chemical_name_common 'Octalithium dioxide silicate'
_chemical_formula_structural 'Li8 O2 (Si O4)'
_chemical_formula_sum 'Li8 O6 Si1'
_chemical_name_structure_type Li8CoO6
_exptl_crystal_density_diffrn 2.2
_citation_title

;
Ein neues Oxogermanat: Li8 Ge O6 = Li8 O2 (Ge O4) (Mit einer Bemerkung ueber
Li8 Si O6 und Li4 Ge O4 )
;
loop_
_citation_id
_citation_journal_full
_citation_year
_citation_journal_volume
_citation_page_first
_citation_page_last
_citation_journal_id_ASTM
primary 'Zeitschrift fuer Anorganische und Allgemeine Chemie (1950) (DE)' 1987
555 118 128 ZAACAB
loop_
_citation_author_citation_id
_citation_author_name
primary 'Hofmann, R.'
primary 'Hoppe, R.'
_cell_length_a 5.4243(8)
_cell_length_b 5.4243(8)
_cell_length_c 10.626(2)
_cell_angle_alpha 90.
_cell_angle_beta 90.
_cell_angle_gamma 120.
_cell_volume 270.76
_cell_formula_units_Z 2
_space_group_name_H-M_alt 'P 63 c m'
_space_group_IT_number 185
loop_
_space_group_symop_id
_space_group_symop_operation_xyz
1 'x, x-y, z+1/2'
2 '-x+y, y, z+1/2'
3 '-y, -x, z+1/2'
4 'x-y, x, z+1/2'
5 'y, -x+y, z+1/2'
6 '-x, -y, z+1/2'
7 '-x, -x+y, z'
8 'x-y, -y, z'
9 'y, x, z'
10 '-x+y, -x, z'
11 '-y, x-y, z'
12 'x, y, z'
loop_
_atom_type_symbol
_atom_type_oxidation_number
Si4+ 4
Li1+ 1
O2- -2
loop_
_atom_site_label
_atom_site_type_symbol
_atom_site_symmetry_multiplicity
_atom_site_Wyckoff_symbol
_atom_site_fract_x
_atom_site_fract_y
_atom_site_fract_z
_atom_site_B_iso_or_equiv
_atom_site_occupancy
Si1 Si4+ 2 a 0 0 0 . 1.
Li1 Li1+ 4 b 0.3333 0.6667 0.4128(5) . 1.
Li2 Li1+ 6 c 0.3973(10) 0 0.6284(5) . 1.
Li3 Li1+ 6 c 0.3082(9) 0 0.2700(4) . 1.
O1 O2- 2 a 0 0 0.1566(2) . 1.
O2 O2- 4 b 0.3333 0.6667 0.2192(2) . 1.
O3 O2- 6 c 0.2869(3) 0 0.4535(2) . 1.
loop_
_atom_site_aniso_label
_atom_site_aniso_type_symbol
_atom_site_aniso_U_11
_atom_site_aniso_U_22
_atom_site_aniso_U_33
_atom_site_aniso_U_12
_atom_site_aniso_U_13
_atom_site_aniso_U_23
Si1 Si4+ 0.0044(3) 0.0044(3) 0.0053(5) 0.0022(2) 0 0
Li1 Li1+ 0.013(2) 0.013(2) 0.012(3) 0.0063(11) 0 0
Li2 Li1+ 0.013(2) 0.010(2) 0.013(2) 0.0050(11) -.0031(14) 0
Li3 Li1+ 0.0110(13) 0.015(2) 0.010(2) 0.0074(11) 0.0000(15) 0
O1 O2- 0.0077(11) 0.0077(11) 0.0034(15) 0.0039(5) 0 0
O2 O2- 0.0063(6) 0.0063(6) 0.0091(10) 0.0031(3) 0 0
O3 O2- 0.0059(5) 0.0078(7) 0.0076(7) 0.0039(4) 0.0016(7) 0
#End of TTdata_65176-ICSD