
#(C) 2020 by FIZ Karlsruhe - Leibniz Institute for Information Infrastructure.  All rights reserved.
data_65175-ICSD
_database_code_ICSD 65175
_audit_creation_date 1989-12-04
_chemical_name_common 'Octalithium dioxide germanate'
_chemical_formula_structural 'Li8 O2 (Ge O4)'
_chemical_formula_sum 'Ge1 Li8 O6'
_chemical_name_structure_type Li8CoO6
_exptl_crystal_density_diffrn 2.65
_citation_title

;
Ein neues Oxogermanat: Li8 Ge O6 = Li8 O2 (Ge O4) (Mit einer Bemerkung ueber
Li8 Si O6 und Li4 Ge O4 )
;
loop_
_citation_id
_citation_journal_full
_citation_year
_citation_journal_volume
_citation_page_first
_citation_page_last
_citation_journal_id_ASTM
primary 'Zeitschrift fuer Anorganische und Allgemeine Chemie (1950) (DE)' 1987
555 118 128 ZAACAB
loop_
_citation_author_citation_id
_citation_author_name
primary 'Hofmann, R.'
primary 'Hoppe, R.'
_cell_length_a 5.5009(8)
_cell_length_b 5.5009(8)
_cell_length_c 10.722(3)
_cell_angle_alpha 90.
_cell_angle_beta 90.
_cell_angle_gamma 120.
_cell_volume 280.98
_cell_formula_units_Z 2
_space_group_name_H-M_alt 'P 63 c m'
_space_group_IT_number 185
loop_
_space_group_symop_id
_space_group_symop_operation_xyz
1 'x, x-y, z+1/2'
2 '-x+y, y, z+1/2'
3 '-y, -x, z+1/2'
4 'x-y, x, z+1/2'
5 'y, -x+y, z+1/2'
6 '-x, -y, z+1/2'
7 '-x, -x+y, z'
8 'x-y, -y, z'
9 'y, x, z'
10 '-x+y, -x, z'
11 '-y, x-y, z'
12 'x, y, z'
loop_
_atom_type_symbol
_atom_type_oxidation_number
Ge4+ 4
Li1+ 1
O2- -2
loop_
_atom_site_label
_atom_site_type_symbol
_atom_site_symmetry_multiplicity
_atom_site_Wyckoff_symbol
_atom_site_fract_x
_atom_site_fract_y
_atom_site_fract_z
_atom_site_B_iso_or_equiv
_atom_site_occupancy
Ge1 Ge4+ 2 a 0 0 0 . 1.
Li1 Li1+ 4 b 0.3333 0.6667 0.4115(9) . 1.
Li2 Li1+ 6 c 0.3994(14) 0 0.6302(8) . 1.
Li3 Li1+ 6 c 0.312(1) 0 0.2705(6) . 1.
O1 O2- 2 a 0 0 0.1657(4) . 1.
O2 O2- 4 b 0.3333 0.6667 0.2183(3) . 1.
O3 O2- 6 c 0.3032(3) 0 0.4525(4) . 1.
loop_
_atom_site_aniso_label
_atom_site_aniso_type_symbol
_atom_site_aniso_U_11
_atom_site_aniso_U_22
_atom_site_aniso_U_33
_atom_site_aniso_U_12
_atom_site_aniso_U_13
_atom_site_aniso_U_23
Ge1 Ge4+ 0.0034(2) 0.0034(2) 0.0034(3) 0.0017(1) 0 0
Li1 Li1+ 0.010(3) 0.010(3) 0.021(5) 0.0050(13) 0 0
Li2 Li1+ 0.012(2) 0.011(3) 0.012(4) 0.006(2) 0.003(2) 0
Li3 Li1+ 0.009(2) 0.011(3) 0.011(4) 0.0053(13) 0.001(2) 0
O1 O2- 0.0094(14) 0.0094(14) 0.006(2) 0.0047(7) 0 0
O2 O2- 0.0066(8) 0.0066(8) 0.010(2) 0.0033(4) 0 0
O3 O2- 0.0041(7) 0.0067(10) 0.0063(8) 0.0033(5) 0.0012(9) 0
#End of TTdata_65175-ICSD