
#(C) 2020 by FIZ Karlsruhe - Leibniz Institute for Information Infrastructure.  All rights reserved.
data_65474-ICSD
_database_code_ICSD 65474
_audit_creation_date 1989-12-04
_audit_update_record 2012-08-01
_chemical_name_common
'Trilithium trisodium cyclo-hexaphosphate(V) dodecahydrate'
_chemical_formula_structural 'Li3 Na3 (P6 O18) (H2 O)12'
_chemical_formula_sum 'H24 Li3 Na3 O30 P6'
_exptl_crystal_density_diffrn 1.96
_citation_title

;
On the existence of two new mixed-alkali cyclohexaphosphates Li3 Na3 P6 O18
(H2 O)12 and Li3 K3 P6 O18 (H2 O)
;
loop_
_citation_id
_citation_journal_full
_citation_year
_citation_journal_volume
_citation_page_first
_citation_page_last
_citation_journal_id_ASTM
primary 'Zeitschrift fuer Anorganische und Allgemeine Chemie (1950) (DE)' 1989
574 225 234 ZAACAB
loop_
_citation_author_citation_id
_citation_author_name
primary 'Averbuch-Pouchot, M.T.'
_cell_length_a 10.474(8)
_cell_length_b 10.474(8)
_cell_length_c 41.680(50)
_cell_angle_alpha 90.
_cell_angle_beta 90.
_cell_angle_gamma 120.
_cell_volume 3959.89
_cell_formula_units_Z 6
_space_group_name_H-M_alt 'R -3 c H'
_space_group_IT_number 167
loop_
_space_group_symop_id
_space_group_symop_operation_xyz
1 'x-y, -y, -z+1/2'
2 '-x, -x+y, -z+1/2'
3 'y, x, -z+1/2'
4 'x-y, x, -z'
5 'y, -x+y, -z'
6 '-x, -y, -z'
7 '-x+y, y, z+1/2'
8 'x, x-y, z+1/2'
9 '-y, -x, z+1/2'
10 '-x+y, -x, z'
11 '-y, x-y, z'
12 'x, y, z'
13 'x-y+2/3, -y+1/3, -z+5/6'
14 '-x+2/3, -x+y+1/3, -z+5/6'
15 'y+2/3, x+1/3, -z+5/6'
16 'x-y+2/3, x+1/3, -z+1/3'
17 'y+2/3, -x+y+1/3, -z+1/3'
18 '-x+2/3, -y+1/3, -z+1/3'
19 '-x+y+2/3, y+1/3, z+5/6'
20 'x+2/3, x-y+1/3, z+5/6'
21 '-y+2/3, -x+1/3, z+5/6'
22 '-x+y+2/3, -x+1/3, z+1/3'
23 '-y+2/3, x-y+1/3, z+1/3'
24 'x+2/3, y+1/3, z+1/3'
25 'x-y+1/3, -y+2/3, -z+1/6'
26 '-x+1/3, -x+y+2/3, -z+1/6'
27 'y+1/3, x+2/3, -z+1/6'
28 'x-y+1/3, x+2/3, -z+2/3'
29 'y+1/3, -x+y+2/3, -z+2/3'
30 '-x+1/3, -y+2/3, -z+2/3'
31 '-x+y+1/3, y+2/3, z+1/6'
32 'x+1/3, x-y+2/3, z+1/6'
33 '-y+1/3, -x+2/3, z+1/6'
34 '-x+y+1/3, -x+2/3, z+2/3'
35 '-y+1/3, x-y+2/3, z+2/3'
36 'x+1/3, y+2/3, z+2/3'
loop_
_atom_type_symbol
_atom_type_oxidation_number
Na1+ 1
Li1+ 1
P5+ 5
O2- -2
H1+ 1
loop_
_atom_site_label
_atom_site_type_symbol
_atom_site_symmetry_multiplicity
_atom_site_Wyckoff_symbol
_atom_site_fract_x
_atom_site_fract_y
_atom_site_fract_z
_atom_site_B_iso_or_equiv
_atom_site_occupancy
Na1 Na1+ 12 c 0 0 0.13218(3) . 1.
Na2 Na1+ 6 a 0 0 0.25 . 1.
Li1 Li1+ 18 e 0.4979(5) 0 0.25 . 1.
P1 P5+ 36 f 0.81310(4) 0.10869(4) 0.48666(1) . 1.
O1 O2- 36 f 0.5640(1) 0.6287(1) 0.21224(3) . 1.
O2 O2- 36 f 0.4517(1) 0.1291(1) 0.34690(3) . 1.
O3 O2- 36 f 0.1330(2) 0.2177(2) 0.16463(3) . 1.
O4 O2- 36 f 0.3635(1) 0.8589(2) 0.07523(3) . 1.
O5 O2- 36 f 0.5624(2) 0.1212(2) 0.04933(2) . 1.
H1 H1+ 36 f 0.218(3) 0.736(3) 0.2420(7) 2.6(7) 1.
H2 H1+ 36 f 0.521(3) 0.585(3) 0.0673(6) 1.4(6) 1.
H3 H1+ 36 f 0.799(3) 0.278(3) 0.1320(6) 1.4(6) 1.
H4 H1+ 36 f 0.193(3) 0.958(3) 0.2892(7) 2.5(8) 1.
#End of TTdata_65474-ICSD