
#(C) 2020 by FIZ Karlsruhe - Leibniz Institute for Information Infrastructure.  All rights reserved.
data_65643-ICSD
_database_code_ICSD 65643
_audit_creation_date 1990-06-08
_chemical_name_common 'Lithium hemizinc germanate'
_chemical_formula_structural 'Li3 Zn.5 (Ge O4)'
_chemical_formula_sum 'Ge1 Li3 O4 Zn0.5'
_exptl_crystal_density_diffrn 3.59
_citation_title

;
A re-examination of the lisicon structure using highresolution powder neutron
diffraction: Evidence for defect clustering
;
loop_
_citation_id
_citation_journal_full
_citation_year
_citation_journal_volume
_citation_page_first
_citation_page_last
_citation_journal_id_ASTM
primary 'Acta Crystallographica, Section B: Structural Science' 1989 45 457 462
ASBSDK
loop_
_citation_author_citation_id
_citation_author_name
primary 'Abrahams, I.'
primary 'Bruce, P.G.'
primary 'David, W.I.F.'
primary 'West, A.R.'
_cell_length_a 10.8523(1)
_cell_length_b 6.27431(7)
_cell_length_c 5.15807(6)
_cell_angle_alpha 90.
_cell_angle_beta 90.
_cell_angle_gamma 90.
_cell_volume 351.22
_cell_formula_units_Z 4
_space_group_name_H-M_alt 'P n m a'
_space_group_IT_number 62
loop_
_space_group_symop_id
_space_group_symop_operation_xyz
1 'x+1/2, y, -z+1/2'
2 'x, -y+1/2, z'
3 '-x+1/2, y+1/2, z+1/2'
4 '-x, -y, -z'
5 '-x+1/2, -y, z+1/2'
6 '-x, y+1/2, -z'
7 'x+1/2, -y+1/2, -z+1/2'
8 'x, y, z'
loop_
_atom_type_symbol
_atom_type_oxidation_number
Ge4+ 4
O2- -2
Li1+ 1
Zn2+ 2
Li1+ 1
Zn2+ 2
Li1+ 1
loop_
_atom_site_label
_atom_site_type_symbol
_atom_site_symmetry_multiplicity
_atom_site_Wyckoff_symbol
_atom_site_fract_x
_atom_site_fract_y
_atom_site_fract_z
_atom_site_B_iso_or_equiv
_atom_site_occupancy
Ge1 Ge4+ 4 c 0.4133(6) 0.25 0.3335(2) . 1.
O1 O2- 8 d 0.3360(1) 0.0230(2) 0.2171(2) . 1.
O2 O2- 4 c 0.0875(2) 0.75 0.1714(3) . 1.
O3 O2- 4 c 0.0652(1) 0.25 0.2797(3) . 1.
Li1 Li1+ 4 c 0.4298(8) 0.75 0.183(2) 2.8(3) 0.905(6)
Zn1 Zn2+ 4 c 0.4298(8) 0.75 0.183(2) 2.8(3) 0.095(6)
Li2 Li1+ 8 d 0.141(2) -.039(4) 0.356(6) 2.7(4) 0.647(9)
Zn2 Zn2+ 8 d 0.141(2) -.039(4) 0.356(6) 2.7(4) 0.202(3)
Li3 Li1+ 8 d 0.167(2) 0.030(3) 0.212(5) 2.7(4) 0.156(9)
Li4 Li1+ 8 d 0.204(1) 0.206(3) -.009(3) 3.5(3) 0.210(4)
Li5 Li1+ 4 b 0 0 0.5 3.5(3) 0.081(9)
loop_
_atom_site_aniso_label
_atom_site_aniso_type_symbol
_atom_site_aniso_B_11
_atom_site_aniso_B_22
_atom_site_aniso_B_33
_atom_site_aniso_B_12
_atom_site_aniso_B_13
_atom_site_aniso_B_23
Ge1 Ge4+ 0.89(4) 1.17(5) 0.96(5) 0 0.05(5) 0
O1 O2- 0.88(4) 1.79(5) 1.54(5) -.21(4) 0.02(4) -.49(4)
O2 O2- 1.10(6) 1.11(6) 0.79(6) 0 0.15(6) 0
O3 O2- 0.60(6) 1.36(6) 1.42(7) 0 0.05(5) 0
#End of TTdata_65643-ICSD