
#(C) 2020 by FIZ Karlsruhe - Leibniz Institute for Information Infrastructure.  All rights reserved.
data_65978-ICSD
_database_code_ICSD 65978
_audit_creation_date 1990-12-27
_audit_update_record 2007-08-01
_chemical_name_common 'Tripotassium disodium lithotellurate(VI)'
_chemical_formula_structural 'K3 Na2 (Li Te O6)'
_chemical_formula_sum 'K3 Li1 Na2 O6 Te1'
_exptl_crystal_density_diffrn 3.5
_citation_title 'Das erste Quinquinaere Oxotellurate(VI): K3 Na2 Li Te O6'
loop_
_citation_id
_citation_journal_full
_citation_year
_citation_journal_volume
_citation_page_first
_citation_page_last
_citation_journal_id_ASTM
primary 'Zeitschrift fuer Anorganische und Allgemeine Chemie (1950) (DE)' 1990
586 125 135 ZAACAB
loop_
_citation_author_citation_id
_citation_author_name
primary 'Wisser, T.'
primary 'Hoppe, R.'
_cell_length_a 9.283(1)
_cell_length_b 11.874(2)
_cell_length_c 6.787(1)
_cell_angle_alpha 90.
_cell_angle_beta 93.8(1)
_cell_angle_gamma 90.
_cell_volume 746.46
_cell_formula_units_Z 4
_space_group_name_H-M_alt 'C 1 c 1'
_space_group_IT_number 9
loop_
_space_group_symop_id
_space_group_symop_operation_xyz
1 'x, -y, z+1/2'
2 'x, y, z'
3 'x+1/2, -y+1/2, z+1/2'
4 'x+1/2, y+1/2, z'
loop_
_atom_type_symbol
_atom_type_oxidation_number
Te6+ 6
K1+ 1
Na1+ 1
Li1+ 1
O2- -2
loop_
_atom_site_label
_atom_site_type_symbol
_atom_site_symmetry_multiplicity
_atom_site_Wyckoff_symbol
_atom_site_fract_x
_atom_site_fract_y
_atom_site_fract_z
_atom_site_B_iso_or_equiv
_atom_site_occupancy
Te1 Te6+ 4 a 0 0.2430(1) 0 . 1.
K1 K1+ 4 a 0.7573(1) 0.4606(1) 0.7539(1) . 1.
K2 K1+ 4 a 0.9392(1) 0.9526(1) 0.0744(1) . 1.
K3 K1+ 4 a 0.1084(1) 0.5092(1) 0.2401(2) . 1.
Na1 Na1+ 4 a 0.8548(2) 0.2841(2) 0.4047(2) . 1.
Na2 Na1+ 4 a 0.6581(2) 0.7314(2) 0.6024(2) . 1.
Li1 Li1+ 4 a 0.7484(8) 0.2221(4) 0.7503(9) . 1.
O1 O2- 4 a 0.5557(2) 0.6993(2) 0.2722(3) . 1.
O2 O2- 4 a 0.4442(2) 0.7894(2) 0.7277(3) . 1.
O3 O2- 4 a 0.6128(3) 0.3789(2) 0.4010(4) . 1.
O4 O2- 4 a 0.6735(2) 0.8374(2) 0.0032(4) . 1.
O5 O2- 4 a 0.8880(2) 0.6328(2) 0.5963(4) . 1.
O6 O2- 4 a 0.8262(2) 0.8525(2) 0.4860(4) . 1.
loop_
_atom_site_aniso_label
_atom_site_aniso_type_symbol
_atom_site_aniso_U_11
_atom_site_aniso_U_22
_atom_site_aniso_U_33
_atom_site_aniso_U_12
_atom_site_aniso_U_13
_atom_site_aniso_U_23
Te1 Te6+ 0.0035(1) 0.0064(1) 0.0052(1) 0.0004(1) -.0005(7) -.0001(1)
K1 K1+ 0.0122(2) 0.0118(2) 0.0171(2) 0.0006(2) 0.0017(2) -.0001(1)
K2 K1+ 0.0152(3) 0.0181(3) 0.0331(4) 0.0008(2) -.0028(3) 0.0075(3)
K3 K1+ 0.0130(4) 0.0309(4) 0.0418(5) 0.0054(3) -.0072(3) -.0136(4)
Na1 Na1+ 0.0113(6) 0.0234(8) 0.0102(6) 0.0004(6) 0.0003(4) 0.0026(6)
Na2 Na1+ 0.0103(6) 0.0221(7) 0.0162(7) 0.0005(5) 0.0024(5) 0.0031(6)
Li1 Li1+ 0.0136(19) 0.0144(22) 0.0127(19) 0.0017(28) -.0013(15) -.0009(28)
O1 O2- 0.0099(9) 0.0167(9) 0.0082(9) 0.0017(7) -.0010(7) 0.0021(7)
O2 O2- 0.0079(8) 0.0175(10) 0.0073(8) 0.0005(7) -.0010(6) 0.0005(7)
O3 O2- 0.0108(9) 0.0123(9) 0.0121(9) -.0024(7) 0.0024(7) 0.0015(7)
O4 O2- 0.0088(9) 0.0127(9) 0.0121(9) -.0021(7) -.0018(7) 0.0015(7)
O5 O2- 0.0092(9) 0.0129(9) 0.0121(9) -.0037(7) 0.0005(7) 0.0020(7)
O6 O2- 0.0095(8) 0.0139(9) 0.0149(10) 0.0017(28) 0.0000(7) -.0011(7)
#End of TTdata_65978-ICSD