
#(C) 2020 by FIZ Karlsruhe - Leibniz Institute for Information Infrastructure.  All rights reserved.
data_65976-ICSD
_database_code_ICSD 65976
_audit_creation_date 1990-12-27
_chemical_name_common 'Undecapotassium tetrakis(tetraoxomanganato(V))lithate'
_chemical_formula_structural 'K11 (Li (Mn O4)4)'
_chemical_formula_sum 'K11 Li1 Mn4 O16'
_exptl_crystal_density_diffrn 2.79
_citation_title 'Ein Oxomanganat(V) neuen Typs: K11 (Li (O Mn O3)4)'
loop_
_citation_id
_citation_journal_full
_citation_year
_citation_journal_volume
_citation_page_first
_citation_page_last
_citation_journal_id_ASTM
primary 'Zeitschrift fuer Anorganische und Allgemeine Chemie (1950) (DE)' 1990
586 106 114 ZAACAB
loop_
_citation_author_citation_id
_citation_author_name
primary 'Fischer, D.'
primary 'Hoppe, R.'
_cell_length_a 7.8718(7)
_cell_length_b 7.8718(7)
_cell_length_c 17.509(3)
_cell_angle_alpha 90.
_cell_angle_beta 90.
_cell_angle_gamma 90.
_cell_volume 1084.95
_cell_formula_units_Z 2
_space_group_name_H-M_alt 'I -4 2 m'
_space_group_IT_number 121
loop_
_space_group_symop_id
_space_group_symop_operation_xyz
1 '-y, -x, z'
2 'y, x, z'
3 'y, -x, -z'
4 '-y, x, -z'
5 'x, -y, -z'
6 '-x, y, -z'
7 '-x, -y, z'
8 'x, y, z'
9 '-y+1/2, -x+1/2, z+1/2'
10 'y+1/2, x+1/2, z+1/2'
11 'y+1/2, -x+1/2, -z+1/2'
12 '-y+1/2, x+1/2, -z+1/2'
13 'x+1/2, -y+1/2, -z+1/2'
14 '-x+1/2, y+1/2, -z+1/2'
15 '-x+1/2, -y+1/2, z+1/2'
16 'x+1/2, y+1/2, z+1/2'
loop_
_atom_type_symbol
_atom_type_oxidation_number
K1+ 1
Mn5+ 5
Li1+ 1
O2- -2
loop_
_atom_site_label
_atom_site_type_symbol
_atom_site_symmetry_multiplicity
_atom_site_Wyckoff_symbol
_atom_site_fract_x
_atom_site_fract_y
_atom_site_fract_z
_atom_site_B_iso_or_equiv
_atom_site_occupancy
K1 K1+ 4 d 0 0.5 0.75 . 1.
K2 K1+ 2 b 0 0 0.5 . 1.
K3 K1+ 4 e 0 0 0.2903(1) . 1.
K4 K1+ 8 i 0.1949(1) 0.8051(1) 0.8772(1) . 1.
K5 K1+ 4 c 0 0.5 0 . 1.
Mn1 Mn5+ 8 i 0.2553 0.2553 0.8767 . 1.
Li1 Li1+ 2 a 0 0 0 . 1.
O1 O2- 16 j 0.5339(2) 0.7799(2) 0.8857(1) . 1.
O2 O2- 8 i 0.6470(3) 0.6470(3) 0.4433(2) . 1.
O3 O2- 8 i 0.8021(4) 0.1979(4) 0.2118(2) . 1.
loop_
_atom_site_aniso_label
_atom_site_aniso_type_symbol
_atom_site_aniso_U_11
_atom_site_aniso_U_22
_atom_site_aniso_U_33
_atom_site_aniso_U_12
_atom_site_aniso_U_13
_atom_site_aniso_U_23
K1 K1+ 0.0230(4) 0.0230(4) 0.0239(6) 0 0 0
K2 K1+ 0.0229(4) 0.0229(4) 0.0218(7) 0 0 0
K3 K1+ 0.0194(3) 0.0194(3) 0.0212(4) -.0046(5) 0 0
K4 K1+ 0.0226(2) 0.0226(2) 0.0512(6) 0.0022(3) 0.0053(24) 0.0053(24)
K5 K1+ 0.0175(5) 0.0516(8) 0.0147(5) 0 0 0
Mn1 Mn5+ 0.0118(1) 0.0118(1) 0.0213(2) -.0014(1) -.0011(1) -.0011(1)
Li1 Li1+ 0.0229(38) 0.0229(38) 0.0278(64) 0 0 0
O1 O2- 0.0149(7) 0.0247(8) 0.0290(9) 0.0041(6) 0.0002(6) -.0077(7)
O2 O2- 0.0405(12) 0.0405(12) 0.0928(27) -.0007(15) 0.0343(13) 0.0343(13)
O3 O2- 0.0627(16) 0.0627(16) 0.0532(24) -.0155(26) 0.0208(40) 0.0208(40)
#End of TTdata_65976-ICSD