
#(C) 2020 by FIZ Karlsruhe - Leibniz Institute for Information Infrastructure.  All rights reserved.
data_66576-ICSD
_database_code_ICSD 66576
_audit_creation_date 1994-01-19
_chemical_name_common 'Lithium germanium vanadium oxide (3.5/.5/.5/4)'
_chemical_formula_structural 'Li3.5 (Ge.5 V.5) O4'
_chemical_formula_sum 'Ge0.5 Li3.5 O4 V0.5'
_exptl_crystal_density_diffrn 2.86
_diffrn_ambient_temperature 298.
_citation_title
'Defect clustering in the superionic conductor lithium germanium vanadate'
loop_
_citation_id
_citation_journal_full
_citation_year
_citation_journal_volume
_citation_page_first
_citation_page_last
_citation_journal_id_ASTM
primary 'Acta Crystallographica, Section B: Structural Science' 1991 47 696 701
ASBSDK
loop_
_citation_author_citation_id
_citation_author_name
primary 'Abrahams, I.'
primary 'Bruce, P.G.'
_cell_length_a 10.8714(2)
_cell_length_b 6.2606(1)
_cell_length_c 5.1258(1)
_cell_angle_alpha 90.
_cell_angle_beta 90.
_cell_angle_gamma 90.
_cell_volume 348.87
_cell_formula_units_Z 4
_space_group_name_H-M_alt 'P n m a'
_space_group_IT_number 62
loop_
_space_group_symop_id
_space_group_symop_operation_xyz
1 'x+1/2, y, -z+1/2'
2 'x, -y+1/2, z'
3 '-x+1/2, y+1/2, z+1/2'
4 '-x, -y, -z'
5 '-x+1/2, -y, z+1/2'
6 '-x, y+1/2, -z'
7 'x+1/2, -y+1/2, -z+1/2'
8 'x, y, z'
loop_
_atom_type_symbol
_atom_type_oxidation_number
Ge4+ 4
V5+ 5
O2- -2
Li1+ 1
loop_
_atom_site_label
_atom_site_type_symbol
_atom_site_symmetry_multiplicity
_atom_site_Wyckoff_symbol
_atom_site_fract_x
_atom_site_fract_y
_atom_site_fract_z
_atom_site_B_iso_or_equiv
_atom_site_occupancy
Ge1 Ge4+ 4 c 0.4124(2) 0.25 0.3367(4) . 0.5
V1 V5+ 4 c 0.4124(2) 0.25 0.3367(4) . 0.5
O1 O2- 8 d 0.3371(1) 0.0250(2) 0.2196(2) . 1.
O2 O2- 4 c 0.0869(2) 0.75 0.1725(3) . 1.
O3 O2- 4 c 0.0628(1) 0.25 0.2787(3) . 1.
Li1 Li1+ 4 c 0.4248(5) 0.75 0.174(1) . 1.
Li2 Li1+ 8 d 0.1659(4) -.0049(7) 0.330(2) 1.2(2) 0.76(3)
Li3 Li1+ 8 d 0.169(2) 0.022(3) 0.213(6) 2.2(4) 0.24(3)
Li4 Li1+ 4 c 0.218(3) 0.25 -.028(5) 4.4(4) 0.25(1)
Li5 Li1+ 8 d 0.026(3) 0.533(6) 0.447(6) 4.4(4) 0.126(6)
loop_
_atom_site_aniso_label
_atom_site_aniso_type_symbol
_atom_site_aniso_B_11
_atom_site_aniso_B_22
_atom_site_aniso_B_33
_atom_site_aniso_B_12
_atom_site_aniso_B_13
_atom_site_aniso_B_23
Ge1 Ge4+ 1.07(8) 0.93(9) 1.3(1) 0 -.42(9) 0
V1 V5+ 1.07(8) 0.93(9) 1.3(1) 0 -.42(9) 0
O1 O2- 0.71(4) 1.66(5) 1.74(5) -.28(3) 0.15(4) -.43(4)
O2 O2- 0.91(6) 1.33(6) 1.09(6) 0 -.07(6) 0
O3 O2- 0.38(6) 1.15(6) 1.49(7) 0 -.24(5) 0
Li1 Li1+ 2.1(2) 2.9(2) 5.6(3) 0 -1.2(2) 0
#End of TTdata_66576-ICSD