
#(C) 2020 by FIZ Karlsruhe - Leibniz Institute for Information Infrastructure.  All rights reserved.
data_67114-ICSD
_database_code_ICSD 67114
_audit_creation_date 1990-12-27
_chemical_name_common 'Lithium borouranate'
_chemical_formula_structural 'Li B U O5'
_chemical_formula_sum 'B1 Li1 O5 U1'
_exptl_crystal_density_diffrn 5.54
_citation_title 'Synthese et structure du borouranate de lithium LiBUO5'
loop_
_citation_id
_citation_journal_full
_citation_year
_citation_journal_volume
_citation_page_first
_citation_page_last
_citation_journal_id_ASTM
primary 'Acta Crystallographica, Section C: Crystal Structure Communications'
1990 46 372 374 ACSCEE
loop_
_citation_author_citation_id
_citation_author_name
primary 'Gasperin, M.'
_cell_length_a 5.767(2)
_cell_length_b 10.574(3)
_cell_length_c 6.835(2)
_cell_angle_alpha 90.
_cell_angle_beta 105.04(3)
_cell_angle_gamma 90.
_cell_volume 402.52
_cell_formula_units_Z 4
_space_group_name_H-M_alt 'P 1 21/c 1'
_space_group_IT_number 14
loop_
_space_group_symop_id
_space_group_symop_operation_xyz
1 'x, -y+1/2, z+1/2'
2 '-x, -y, -z'
3 '-x, y+1/2, -z+1/2'
4 'x, y, z'
loop_
_atom_type_symbol
_atom_type_oxidation_number
U6+ 6
O2- -2
B3+ 3
Li1+ 1
loop_
_atom_site_label
_atom_site_type_symbol
_atom_site_symmetry_multiplicity
_atom_site_Wyckoff_symbol
_atom_site_fract_x
_atom_site_fract_y
_atom_site_fract_z
_atom_site_B_iso_or_equiv
_atom_site_occupancy
U1 U6+ 4 e 0.0985(1) 0.0654(1) 0.2710(1) . 1.
O1 O2- 4 e 0.1519(34) 0.0847(17) 0.9532(27) . 1.
O2 O2- 4 e 0.8521(31) 0.1734(21) 0.2128(27) . 1.
O3 O2- 4 e 0.1373(35) 0.0895(18) 0.6114(29) . 1.
O4 O2- 4 e 0.6651(34) 0.0506(18) 0.6777(32) . 1.
O5 O2- 4 e 0.3506(31) 0.2427(18) 0.3302(30) . 1.
B1 B3+ 4 e 0.2167(50) 0.1441(31) 0.7976(44) 0.6(5) 1.
Li1 Li1+ 4 e 0.5583(84) 0.2320(51) 0.6242(75) 1.2(9) 1.
loop_
_atom_site_aniso_label
_atom_site_aniso_type_symbol
_atom_site_aniso_U_11
_atom_site_aniso_U_22
_atom_site_aniso_U_33
_atom_site_aniso_U_12
_atom_site_aniso_U_13
_atom_site_aniso_U_23
U1 U6+ 0.0061(2) 0.0005(1) 0.0062(2) -.0003(1) 0.0011(2) 0.0001(1)
O1 O2- 0.0133(63) 0.0001(18) 0.0001(42) -.0004(25) -.0096(42) -.0023(21)
O2 O2- 0.0057(57) 0.0022(22) 0.0102(52) -.0007(28) -.0015(47) 0.0043(27)
O3 O2- 0.0118(61) 0.001(2) 0.0039(45) 0.0015(27) 0.0001(43) 0.0042(23)
O4 O2- 0.0103(60) 0.0006(21) 0.0097(50) 0.0011(27) 0.0032(49) 0.0013(26)
O5 O2- 0.0037(53) 0.0004(19) 0.0113(52) 0.0029(23) 0.0024(25) 0.0021(25)
#End of TTdata_67114-ICSD