
#(C) 2020 by FIZ Karlsruhe - Leibniz Institute for Information Infrastructure.  All rights reserved.
data_67145-ICSD
_database_code_ICSD 67145
_audit_creation_date 1990-12-27
_audit_update_record 2012-08-01
_chemical_name_common 'Rubidium lithium dizinc oxide'
_chemical_formula_structural 'Rb Li Zn2 O3'
_chemical_formula_sum 'Li1 O3 Rb1 Zn2'
_chemical_name_structure_type Au4KSn2
_exptl_crystal_density_diffrn 4.92
_citation_title 'Zwei neue Rubidiumlithiumzincate: Rb Li Zn O2 und Rb Li Zn2 O3'
loop_
_citation_id
_citation_journal_full
_citation_year
_citation_journal_volume
_citation_page_first
_citation_page_last
_citation_journal_id_ASTM
primary 'Zeitschrift fuer Anorganische und Allgemeine Chemie (1950) (DE)' 1989
568 136 146 ZAACAB
loop_
_citation_author_citation_id
_citation_author_name
primary 'Baier, R.'
primary 'Hoppe, R.'
_cell_length_a 10.338(1)
_cell_length_b 10.338(1)
_cell_length_c 3.428(1)
_cell_angle_alpha 90.
_cell_angle_beta 90.
_cell_angle_gamma 90.
_cell_volume 366.36
_cell_formula_units_Z 4
_space_group_name_H-M_alt 'P 42/m n m'
_space_group_IT_number 136
loop_
_space_group_symop_id
_space_group_symop_operation_xyz
1 '-y+1/2, x+1/2, -z+1/2'
2 'y+1/2, -x+1/2, -z+1/2'
3 'y, x, -z'
4 '-y, -x, -z'
5 'y+1/2, -x+1/2, z+1/2'
6 '-y+1/2, x+1/2, z+1/2'
7 '-y, -x, z'
8 'y, x, z'
9 'x+1/2, -y+1/2, -z+1/2'
10 '-x+1/2, y+1/2, -z+1/2'
11 'x, y, -z'
12 '-x, -y, -z'
13 '-x+1/2, y+1/2, z+1/2'
14 'x+1/2, -y+1/2, z+1/2'
15 '-x, -y, z'
16 'x, y, z'
loop_
_atom_type_symbol
_atom_type_oxidation_number
Rb1+ 1
Zn2+ 2
Li1+ 1
O2- -2
loop_
_atom_site_label
_atom_site_type_symbol
_atom_site_symmetry_multiplicity
_atom_site_Wyckoff_symbol
_atom_site_fract_x
_atom_site_fract_y
_atom_site_fract_z
_atom_site_B_iso_or_equiv
_atom_site_occupancy
Rb1 Rb1+ 4 f 0.6087(1) 0.6087(1) 0 . 1.
Zn1 Zn2+ 8 i 0.6715(1) 0.9266(1) 0 . 1.
Li1 Li1+ 4 g 0.7028(20) 0.2972(20) 0 . 1.
O1 O2- 4 f 0.1404(7) 0.1404(7) 0 . 1.
O2 O2- 8 i 0.6544(7) 0.1135(6) 0 . 1.
loop_
_atom_site_aniso_label
_atom_site_aniso_type_symbol
_atom_site_aniso_U_11
_atom_site_aniso_U_22
_atom_site_aniso_U_33
_atom_site_aniso_U_12
_atom_site_aniso_U_13
_atom_site_aniso_U_23
Rb1 Rb1+ 0.0119(4) 0.0119(4) 0.0155(7) -.0017(5) 0 0
Zn1 Zn2+ 0.0100(6) 0.0066(5) 0.0087(5) -.0008(4) 0 0
Li1 Li1+ 0.018(6) 0.018(6) 0.006(7) 0.008(7) 0 0
O1 O2- 0.008(3) 0.008(3) 0.0144(4) 0.006(3) 0 0
O2 O2- 0.015(3) 0.007(3) 0.008(3) 0.001(3) 0 0
#End of TTdata_67145-ICSD