
#(C) 2020 by FIZ Karlsruhe - Leibniz Institute for Information Infrastructure.  All rights reserved.
data_67144-ICSD
_database_code_ICSD 67144
_audit_creation_date 1990-12-27
_chemical_name_common 'Rubidium lithium zinc oxide'
_chemical_formula_structural 'Rb Li Zn O2'
_chemical_formula_sum 'Li1 O2 Rb1 Zn1'
_chemical_name_structure_type Th2TeN2#Li0.5Bi1.5ClO2
_exptl_crystal_density_diffrn 4.41
_citation_title 'Zwei neue Rubidiumlithiumzincate: Rb Li Zn O2 und Rb Li Zn2 O3'
loop_
_citation_id
_citation_journal_full
_citation_year
_citation_journal_volume
_citation_page_first
_citation_page_last
_citation_journal_id_ASTM
primary 'Zeitschrift fuer Anorganische und Allgemeine Chemie (1950) (DE)' 1989
568 136 146 ZAACAB
loop_
_citation_author_citation_id
_citation_author_name
primary 'Baier, R.'
primary 'Hoppe, R.'
_cell_length_a 3.5184(4)
_cell_length_b 3.5184(4)
_cell_length_c 11.533(2)
_cell_angle_alpha 90.
_cell_angle_beta 90.
_cell_angle_gamma 90.
_cell_volume 142.77
_cell_formula_units_Z 2
_space_group_name_H-M_alt 'I 4/m m m'
_space_group_IT_number 139
loop_
_space_group_symop_id
_space_group_symop_operation_xyz
1 'y, x, -z'
2 '-y, -x, -z'
3 '-y, x, -z'
4 'y, -x, -z'
5 '-x, y, -z'
6 'x, -y, -z'
7 'x, y, -z'
8 '-x, -y, -z'
9 '-y, -x, z'
10 'y, x, z'
11 'y, -x, z'
12 '-y, x, z'
13 'x, -y, z'
14 '-x, y, z'
15 '-x, -y, z'
16 'x, y, z'
17 'y+1/2, x+1/2, -z+1/2'
18 '-y+1/2, -x+1/2, -z+1/2'
19 '-y+1/2, x+1/2, -z+1/2'
20 'y+1/2, -x+1/2, -z+1/2'
21 '-x+1/2, y+1/2, -z+1/2'
22 'x+1/2, -y+1/2, -z+1/2'
23 'x+1/2, y+1/2, -z+1/2'
24 '-x+1/2, -y+1/2, -z+1/2'
25 '-y+1/2, -x+1/2, z+1/2'
26 'y+1/2, x+1/2, z+1/2'
27 'y+1/2, -x+1/2, z+1/2'
28 '-y+1/2, x+1/2, z+1/2'
29 'x+1/2, -y+1/2, z+1/2'
30 '-x+1/2, y+1/2, z+1/2'
31 '-x+1/2, -y+1/2, z+1/2'
32 'x+1/2, y+1/2, z+1/2'
loop_
_atom_type_symbol
_atom_type_oxidation_number
Rb1+ 1
Zn2+ 2
Li1+ 1
O2- -2
loop_
_atom_site_label
_atom_site_type_symbol
_atom_site_symmetry_multiplicity
_atom_site_Wyckoff_symbol
_atom_site_fract_x
_atom_site_fract_y
_atom_site_fract_z
_atom_site_B_iso_or_equiv
_atom_site_occupancy
Rb1 Rb1+ 2 a 0 0 0 . 1.
Zn1 Zn2+ 4 d 0 0.5 0.25 . 0.529
Li1 Li1+ 4 d 0 0.5 0.25 . 0.471
O1 O2- 4 e 0 0 0.3320(6) . 1.
loop_
_atom_site_aniso_label
_atom_site_aniso_type_symbol
_atom_site_aniso_U_11
_atom_site_aniso_U_22
_atom_site_aniso_U_33
_atom_site_aniso_U_12
_atom_site_aniso_U_13
_atom_site_aniso_U_23
Rb1 Rb1+ 0.0303(5) 0.0303(5) 0.0236(7) 0 0 0
Zn1 Zn2+ 0.0105(6) 0.0105(6) 0.0165(10) 0 0 0
Li1 Li1+ 0.0105(6) 0.0105(6) 0.0165(10) 0 0 0
O1 O2- 0.012(1) 0.012(1) 0.014(2) 0 0 0
#End of TTdata_67144-ICSD