
#(C) 2020 by FIZ Karlsruhe - Leibniz Institute for Information Infrastructure.  All rights reserved.
data_67254-ICSD
_database_code_ICSD 67254
_audit_creation_date 1990-12-27
_chemical_name_common 'Rubidium lithium sulfide'
_chemical_formula_structural 'Rb Li S'
_chemical_formula_sum 'Li1 Rb1 S1'
_chemical_name_structure_type PbClF
_exptl_crystal_density_diffrn 2.91
_citation_title
'Zur Komplexchemie der Alkalimetalle: Kristallstruktur von RbLiS'
loop_
_citation_id
_citation_journal_full
_citation_year
_citation_journal_volume
_citation_page_first
_citation_page_last
_citation_journal_id_ASTM
primary 'Zeitschrift fuer Naturforschung, B: A Journal of Chemical Sciences'
1989 44 893 895 ZNBSEN
loop_
_citation_author_citation_id
_citation_author_name
primary 'Sabrowsky, H.'
primary 'Hippler, K.'
primary 'Hitzbleck, R.D.'
primary 'Sitta, S.'
primary 'Thimm, A.'
primary 'Vogt, P.'
primary 'Wortmann, R.'
_cell_length_a 4.424(3)
_cell_length_b 4.424(3)
_cell_length_c 7.255(2)
_cell_angle_alpha 90.
_cell_angle_beta 90.
_cell_angle_gamma 90.
_cell_volume 141.99
_cell_formula_units_Z 2
_space_group_name_H-M_alt 'P 4/n m m S'
_space_group_IT_number 129
loop_
_space_group_symop_id
_space_group_symop_operation_xyz
1 '-y+1/2, -x+1/2, z'
2 'y+1/2, x+1/2, z'
3 '-y, -x, -z'
4 'y, x, -z'
5 'y+1/2, -x+1/2, z'
6 '-y+1/2, x+1/2, z'
7 'y, -x, -z'
8 '-y, x, -z'
9 'x+1/2, -y+1/2, -z'
10 '-x+1/2, y+1/2, -z'
11 'x, -y, z'
12 '-x, y, z'
13 '-x+1/2, -y+1/2, -z'
14 'x+1/2, y+1/2, -z'
15 '-x, -y, z'
16 'x, y, z'
loop_
_atom_type_symbol
_atom_type_oxidation_number
Li1+ 1
Rb1+ 1
S2- -2
loop_
_atom_site_label
_atom_site_type_symbol
_atom_site_symmetry_multiplicity
_atom_site_Wyckoff_symbol
_atom_site_fract_x
_atom_site_fract_y
_atom_site_fract_z
_atom_site_B_iso_or_equiv
_atom_site_occupancy
Li1 Li1+ 2 a 0 0 0 . 1.
Rb1 Rb1+ 2 c 0 0.5 0.6576(2) . 1.
S1 S2- 2 c 0 0.5 0.1798(4) . 1.
loop_
_atom_site_aniso_label
_atom_site_aniso_type_symbol
_atom_site_aniso_U_11
_atom_site_aniso_U_22
_atom_site_aniso_U_33
_atom_site_aniso_U_12
_atom_site_aniso_U_13
_atom_site_aniso_U_23
Li1 Li1+ 0.0104(39) 0.0104(39) 0.0150(59) 0 0 0
Rb1 Rb1+ 0.0324(4) 0.0324(4) 0.0352(6) 0 0 0
S1 S2- 0.125 0.0245(8) 0.0245(8) 0.0301(13) 0 0
#End of TTdata_67254-ICSD