
#(C) 2020 by FIZ Karlsruhe - Leibniz Institute for Information Infrastructure.  All rights reserved.
data_67560-ICSD
_database_code_ICSD 67560
_audit_creation_date 1993-08-22
_audit_update_record 2008-08-01
_chemical_name_common 'Heptalithium tetranitridotantalate'
_chemical_formula_structural 'Li7 (Ta N4)'
_chemical_formula_sum 'Li7 N4 Ta1'
_chemical_name_structure_type Li7TaN4
_exptl_crystal_density_diffrn 4.
_citation_title
'Darstellung und Struktur des Lithiumnitridotantalats(V) Li7 Ta N4'
loop_
_citation_id
_citation_journal_full
_citation_year
_citation_journal_volume
_citation_page_first
_citation_page_last
_citation_journal_id_ASTM
primary 'Journal of Alloys and Compounds' 1992 190 113 116 JALCEU
loop_
_citation_author_citation_id
_citation_author_name
primary 'Wachsmann, C.'
primary 'Jakobs, H.'
_cell_length_a 9.825(2)
_cell_length_b 9.825(2)
_cell_length_c 9.825(2)
_cell_angle_alpha 90.
_cell_angle_beta 90.
_cell_angle_gamma 90.
_cell_volume 948.41
_cell_formula_units_Z 8
_space_group_name_H-M_alt 'P a -3'
_space_group_IT_number 205
loop_
_space_group_symop_id
_space_group_symop_operation_xyz
1 '-z+1/2, x+1/2, y'
2 'z+1/2, x, -y+1/2'
3 'z, -x+1/2, y+1/2'
4 '-z, -x, -y'
5 'y, -z+1/2, x+1/2'
6 '-y+1/2, z+1/2, x'
7 'y+1/2, z, -x+1/2'
8 '-y, -z, -x'
9 'x+1/2, y, -z+1/2'
10 'x, -y+1/2, z+1/2'
11 '-x+1/2, y+1/2, z'
12 '-x, -y, -z'
13 'z+1/2, -x+1/2, -y'
14 '-z+1/2, -x, y+1/2'
15 '-z, x+1/2, -y+1/2'
16 'z, x, y'
17 '-y, z+1/2, -x+1/2'
18 'y+1/2, -z+1/2, -x'
19 '-y+1/2, -z, x+1/2'
20 'y, z, x'
21 '-x+1/2, -y, z+1/2'
22 '-x, y+1/2, -z+1/2'
23 'x+1/2, -y+1/2, -z'
24 'x, y, z'
loop_
_atom_type_symbol
_atom_type_oxidation_number
Ta5+ 5
N3- -3
Li1+ 1
loop_
_atom_site_label
_atom_site_type_symbol
_atom_site_symmetry_multiplicity
_atom_site_Wyckoff_symbol
_atom_site_fract_x
_atom_site_fract_y
_atom_site_fract_z
_atom_site_B_iso_or_equiv
_atom_site_occupancy
Ta1 Ta5+ 8 c 0.12779(1) 0.12779(1) 0.12779(1) . 1.
N1 N3- 8 c 0.2426(3) 0.2426(3) 0.2426(3) . 1.
N2 N3- 24 d 0.5110(3) 0.2447(3) 0.4852(3) . 1.
Li1 Li1+ 8 c 0.3684(7) 0.3684(7) 0.3684(7) 1.0(1) 1.
Li2 Li1+ 24 d 0.1191(8) 0.4025(7) 0.1367(7) 0.90(7) 1.
Li3 Li1+ 24 d 0.3687(7) 0.3598(7) 0.1148(7) 0.91(8) 1.
loop_
_atom_site_aniso_label
_atom_site_aniso_type_symbol
_atom_site_aniso_U_11
_atom_site_aniso_U_22
_atom_site_aniso_U_33
_atom_site_aniso_U_12
_atom_site_aniso_U_13
_atom_site_aniso_U_23
Ta1 Ta5+ 0.00110(3) 0.00110(3) 0.00110(3) 0.00003(4) 0.00003(4) 0.00003(4)
N1 N3- 0.0044(9) 0.0044(9) 0.0044(9) -.0004(9) -.0004(9) -.0004(9)
N2 N3- 0.004(1) 0.006(1) 0.004(1) 0.0017(8) 0.002(1) -.0018(8)
#End of TTdata_67560-ICSD