
#(C) 2020 by FIZ Karlsruhe - Leibniz Institute for Information Infrastructure.  All rights reserved.
data_67702-ICSD
_database_code_ICSD 67702
_audit_creation_date 1994-01-19
_audit_update_record 2006-04-01
_chemical_name_common 'Lithium sodium sulfate(VI) - beta'
_chemical_formula_structural 'Li Na (S O4)'
_chemical_formula_sum 'Li1 Na1 O4 S1'
_chemical_name_structure_type LiNaSO4
_exptl_crystal_density_diffrn 2.55
_diffrn_ambient_temperature 6.
_citation_title

;
High resolution neutron diffraction study of the ionic conductor beta-Li Na S
O4
;
loop_
_citation_id
_citation_journal_full
_citation_year
_citation_journal_volume
_citation_page_first
_citation_page_last
_citation_journal_id_ASTM
primary 'Physica B: Condensed Matter (Amsterdam, Netherlands)' 1992 180 612 616
PHYBE3
loop_
_citation_author_citation_id
_citation_author_name
primary 'Graneli, B.'
primary 'Fischer, P.'
primary 'Roos, J.'
primary 'Brinkmann, D.'
primary 'Hewat, A.W.'
_cell_length_a 7.60199(5)
_cell_length_b 7.60199(5)
_cell_length_c 9.82832(9)
_cell_angle_alpha 90.
_cell_angle_beta 90.
_cell_angle_gamma 120.
_cell_volume 491.89
_cell_formula_units_Z 6
_space_group_name_H-M_alt 'P 3 1 c'
_space_group_IT_number 159
loop_
_space_group_symop_id
_space_group_symop_operation_xyz
1 '-x, -x+y, z+1/2'
2 'x-y, -y, z+1/2'
3 'y, x, z+1/2'
4 '-x+y, -x, z'
5 '-y, x-y, z'
6 'x, y, z'
loop_
_atom_type_symbol
_atom_type_oxidation_number
Li1+ 1
Na1+ 1
S6+ 6
O2- -2
loop_
_atom_site_label
_atom_site_type_symbol
_atom_site_symmetry_multiplicity
_atom_site_Wyckoff_symbol
_atom_site_fract_x
_atom_site_fract_y
_atom_site_fract_z
_atom_site_B_iso_or_equiv
_atom_site_occupancy
Li1 Li1+ 6 c 0.0386(9) 0.2447(9) 0.2628(8) 0.57(6) 1.
Na1 Na1+ 6 c 0.0269(5) 0.5468(4) 0.4896(7) 0.47(3) 1.
S1 S6+ 2 a 0 0 0 0.27(6) 1.
S2 S6+ 2 b 0.3333 0.6667 0.1975(8) 0.24(6) 1.
S3 S6+ 2 b 0.6667 0.3333 0.2636(7) 0.16(5) 1.
O1 O2- 2 a 0 0 0.1558(7) 0.35(3) 1.
O2 O2- 2 b 0.3333 0.6667 0.3452(7) 0.40(3) 1.
O3 O2- 2 b 0.6667 0.3333 0.1137(6) 0.36(3) 1.
O4 O2- 6 c 0.2108(3) 0.1129(3) -.0478(6) 0.37(2) 1.
O5 O2- 6 c 0.2299(4) 0.4553(3) 0.1443(6) 0.44(2) 1.
O6 O2- 6 c 0.4758(3) 0.1601(3) 0.3155(6) 0.45(2) 1.
#End of TTdata_67702-ICSD