
#(C) 2020 by FIZ Karlsruhe - Leibniz Institute for Information Infrastructure.  All rights reserved.
data_67703-ICSD
_database_code_ICSD 67703
_audit_creation_date 1994-01-19
_audit_update_record 2006-04-01
_chemical_name_common 'Lithium sodium sulfate(VI) - beta'
_chemical_formula_structural 'Li Na (S O4)'
_chemical_formula_sum 'Li1 Na1 O4 S1'
_chemical_name_structure_type LiNaSO4
_exptl_crystal_density_diffrn 2.52
_diffrn_ambient_temperature 300.
_citation_title

;
High resolution neutron diffraction study of the ionic conductor beta-Li Na S
O4
;
loop_
_citation_id
_citation_journal_full
_citation_year
_citation_journal_volume
_citation_page_first
_citation_page_last
_citation_journal_id_ASTM
primary 'Physica B: Condensed Matter (Amsterdam, Netherlands)' 1992 180 612 616
PHYBE3
loop_
_citation_author_citation_id
_citation_author_name
primary 'Graneli, B.'
primary 'Fischer, P.'
primary 'Roos, J.'
primary 'Brinkmann, D.'
primary 'Hewat, A.W.'
_cell_length_a 7.63071(5)
_cell_length_b 7.63071(5)
_cell_length_c 9.86196(9)
_cell_angle_alpha 90.
_cell_angle_beta 90.
_cell_angle_gamma 120.
_cell_volume 497.31
_cell_formula_units_Z 6
_space_group_name_H-M_alt 'P 3 1 c'
_space_group_IT_number 159
loop_
_space_group_symop_id
_space_group_symop_operation_xyz
1 '-x, -x+y, z+1/2'
2 'x-y, -y, z+1/2'
3 'y, x, z+1/2'
4 '-x+y, -x, z'
5 '-y, x-y, z'
6 'x, y, z'
loop_
_atom_type_symbol
_atom_type_oxidation_number
Li1+ 1
Na1+ 1
S6+ 6
O2- -2
loop_
_atom_site_label
_atom_site_type_symbol
_atom_site_symmetry_multiplicity
_atom_site_Wyckoff_symbol
_atom_site_fract_x
_atom_site_fract_y
_atom_site_fract_z
_atom_site_B_iso_or_equiv
_atom_site_occupancy
Li1 Li1+ 6 c 0.0413(17) 0.2436(15) 0.2636(14) . 1.
Na1 Na1+ 6 c 0.0257(9) 0.5454(12) 0.4884(14) . 1.
S1 S6+ 2 a 0 0 0 . 1.
S2 S6+ 2 b 0.3333 0.6667 0.1983(15) . 1.
S3 S6+ 2 b 0.6667 0.3333 0.2603(15) . 1.
O1 O2- 2 a 0 0 0.1541(13) . 1.
O2 O2- 2 b 0.3333 0.6667 0.3452(13) . 1.
O3 O2- 2 b 0.6667 0.3333 0.1124(12) . 1.
O4 O2- 6 c 0.2092(5) 0.1099(9) -.0491(12) . 1.
O5 O2- 6 c 0.2271(11) 0.4561(5) 0.1441(13) . 1.
O6 O2- 6 c 0.4725(8) 0.1660(7) 0.3123(13) . 1.
#End of TTdata_67703-ICSD