
#(C) 2020 by FIZ Karlsruhe - Leibniz Institute for Information Infrastructure.  All rights reserved.
data_67887-ICSD
_database_code_ICSD 67887
_audit_creation_date 1995-01-10
_chemical_name_common 'Potassium lithium telluride'
_chemical_formula_structural 'K Li Te'
_chemical_formula_sum 'K1 Li1 Te1'
_chemical_name_structure_type PbClF
_exptl_crystal_density_diffrn 3.21
_citation_title 'Die Kristallstruktur von KLiTe'
loop_
_citation_id
_citation_journal_full
_citation_year
_citation_journal_volume
_citation_page_first
_citation_page_last
_citation_journal_id_ASTM
primary 'Zeitschrift fuer Naturforschung, B: A Journal of Chemical Sciences'
1993 48 1835 1836 ZNBSEN
loop_
_citation_author_citation_id
_citation_author_name
primary 'Sabrowsky, H.'
primary 'Hitzbleck, R.D.'
primary 'Vogt, P.'
_cell_length_a 4.830(1)
_cell_length_b 4.830(1)
_cell_length_c 7.704(2)
_cell_angle_alpha 90.
_cell_angle_beta 90.
_cell_angle_gamma 90.
_cell_volume 179.73
_cell_formula_units_Z 2
_space_group_name_H-M_alt 'P 4/n m m Z'
_space_group_IT_number 129
loop_
_space_group_symop_id
_space_group_symop_operation_xyz
1 'y+1/2, x+1/2, -z'
2 '-y, x+1/2, -z'
3 'y+1/2, -x, -z'
4 '-y, -x, -z'
5 'x+1/2, y+1/2, -z'
6 '-x, y+1/2, -z'
7 'x+1/2, -y, -z'
8 '-x, -y, -z'
9 '-y+1/2, -x+1/2, z'
10 'y, -x+1/2, z'
11 '-y+1/2, x, z'
12 'y, x, z'
13 '-x+1/2, -y+1/2, z'
14 'x, -y+1/2, z'
15 '-x+1/2, y, z'
16 'x, y, z'
loop_
_atom_type_symbol
_atom_type_oxidation_number
K1+ 1
Li1+ 1
Te2- -2
loop_
_atom_site_label
_atom_site_type_symbol
_atom_site_symmetry_multiplicity
_atom_site_Wyckoff_symbol
_atom_site_fract_x
_atom_site_fract_y
_atom_site_fract_z
_atom_site_B_iso_or_equiv
_atom_site_occupancy
K1 K1+ 2 c 0.25 0.25 0.66387(15) . 1.
Li1 Li1+ 2 a 0.75 0.25 0 . 1.
Te1 Te2- 2 c 0.25 0.25 0.20000(3) . 1.
loop_
_atom_site_aniso_label
_atom_site_aniso_type_symbol
_atom_site_aniso_U_11
_atom_site_aniso_U_22
_atom_site_aniso_U_33
_atom_site_aniso_U_12
_atom_site_aniso_U_13
_atom_site_aniso_U_23
K1 K1+ 0.02395(28) 0.02395(28) 0.02909(44) 0 0 0
Li1 Li1+ 0.0245(23) 0.0245(23) 0.0291(43) 0 0 0
Te1 Te2- 0.01473(12) 0.01473(12) 0.02022(12) 0 0 0
#End of TTdata_67887-ICSD