
#(C) 2020 by FIZ Karlsruhe - Leibniz Institute for Information Infrastructure.  All rights reserved.
data_68523-ICSD
_database_code_ICSD 68523
_audit_creation_date 1991-07-10
_audit_update_record 2011-08-01
_chemical_name_common 'Trilithium iron(III) nitride'
_chemical_formula_structural 'Li3 Fe N2'
_chemical_formula_sum 'Fe1 Li3 N2'
_exptl_crystal_density_diffrn 3.09
_citation_title

;
Li3FeN2, a ternary nitride with 1-dimensional infinite (FeN(3-)4/2) chains:
Crystal structure and magnetic properties
;
loop_
_citation_id
_citation_journal_full
_citation_year
_citation_journal_volume
_citation_page_first
_citation_page_last
_citation_journal_id_ASTM
primary 'Journal of the Less-Common Metals' 1990 161 31 36 JCOMAH
loop_
_citation_author_citation_id
_citation_author_name
primary 'Gudat, A.'
primary 'Kniep, R.'
primary 'Rabenau, A.'
primary 'Bronger, W.'
primary 'Ruschewitz, U.'
_cell_length_a 4.872(1)
_cell_length_b 9.641(2)
_cell_length_c 4.792(1)
_cell_angle_alpha 90.
_cell_angle_beta 90.
_cell_angle_gamma 90.
_cell_volume 225.08
_cell_formula_units_Z 4
_space_group_name_H-M_alt 'I b a m'
_space_group_IT_number 72
loop_
_space_group_symop_id
_space_group_symop_operation_xyz
1 '-x, y, z+1/2'
2 'x, -y, z+1/2'
3 'x, y, -z'
4 '-x, -y, -z'
5 'x, -y, -z+1/2'
6 '-x, y, -z+1/2'
7 '-x, -y, z'
8 'x, y, z'
9 '-x+1/2, y+1/2, z'
10 'x+1/2, -y+1/2, z'
11 'x+1/2, y+1/2, -z+1/2'
12 '-x+1/2, -y+1/2, -z+1/2'
13 'x+1/2, -y+1/2, -z'
14 '-x+1/2, y+1/2, -z'
15 '-x+1/2, -y+1/2, z+1/2'
16 'x+1/2, y+1/2, z+1/2'
loop_
_atom_type_symbol
_atom_type_oxidation_number
Fe3+ 3
N3- -3
Li1+ 1
loop_
_atom_site_label
_atom_site_type_symbol
_atom_site_symmetry_multiplicity
_atom_site_Wyckoff_symbol
_atom_site_fract_x
_atom_site_fract_y
_atom_site_fract_z
_atom_site_U_iso_or_equiv
_atom_site_occupancy
Fe1 Fe3+ 4 a 0 0 0.25 0.0044(2) 1.
N1 N3- 8 j 0.2237(5) 0.8860(3) 0 0.0071(5) 1.
Li1 Li1+ 8 g 0 0.7411(6) 0.25 0.0159(10) 1.
Li2 Li1+ 4 b 0.5 0 0.25 0.0118(13) 1.
#End of TTdata_68523-ICSD