
#(C) 2020 by FIZ Karlsruhe - Leibniz Institute for Information Infrastructure.  All rights reserved.
data_68587-ICSD
_database_code_ICSD 68587
_audit_creation_date 1991-07-10
_audit_update_record 2015-02-01
_chemical_name_common 'Lithium aluminium tecto-silicate hydrate *'
_chemical_formula_structural 'Li1.86 Al2 (Si3.95 O12) (H2 O)2'
_chemical_formula_sum 'H4 Al2 Li1.86 O14 Si3.95'
_chemical_name_structure_type Bikitaite-1A-frame#Li2Al2Si4O12(H2O)2
_chemical_name_mineral ''Bikitaite 1A''
_exptl_crystal_density_diffrn 2.29
_diffrn_ambient_temperature 13.
_citation_title

;
One-dimensional water chain in the zeolite bikitaite: neutron diffraction
study at 13 and 295K
;
loop_
_citation_id
_citation_journal_full
_citation_year
_citation_journal_volume
_citation_page_first
_citation_page_last
_citation_journal_id_ASTM
primary Zeolites 1989 9 303 311 ZEOLD3
loop_
_citation_author_citation_id
_citation_author_name
primary 'Stahl, K.'
primary 'Kvick, A.'
primary 'Ghose, S.'
_cell_length_a 8.5971(9)
_cell_length_b 4.9395(4)
_cell_length_c 7.6121(7)
_cell_angle_alpha 89.850(7)
_cell_angle_beta 114.520(7)
_cell_angle_gamma 90.004(7)
_cell_volume 294.1
_cell_formula_units_Z 1
_space_group_name_H-M_alt 'P 1'
_space_group_IT_number 1
loop_
_space_group_symop_id
_space_group_symop_operation_xyz
1 'x, y, z'
loop_
_atom_type_symbol
_atom_type_oxidation_number
Si4+ 4
Al3+ 3
Si4+ 4
O2- -2
Li1+ 1
O2- -2
H1+ 1
O2- -2
H1+ 1
loop_
_atom_site_label
_atom_site_type_symbol
_atom_site_symmetry_multiplicity
_atom_site_Wyckoff_symbol
_atom_site_fract_x
_atom_site_fract_y
_atom_site_fract_z
_atom_site_B_iso_or_equiv
_atom_site_occupancy
Si1 Si4+ 1 a 0.1062(3) 0.8651(4) 0.0979(3) . 0.974(14)
Si2 Si4+ 1 a 0.1038 0.8006 0.5049 . 1.
Al1 Al3+ 1 a 0.3801(3) 0.8778(5) 0.9377(3) . 1.
Al2 Al3+ 1 a 0.8991(3) 0.3650(5) 0.9073(3) . 1.
Si3 Si4+ 1 a 0.8917(2) 0.2991(4) 0.4878(3) . 0.983(13)
Si4 Si4+ 1 a 0.6195(3) 0.3773(4) 0.0637(3) . 0.985(13)
O1 O2- 1 a 0.2646(2) 0.7397(4) 0.0569(3) . 1.
O2 O2- 1 a 0.0847(2) 0.1883(4) 0.0441(3) . 1.
O3 O2- 1 a 0.1591(2) 0.8250(4) 0.3277(3) . 1.
O4 O2- 1 a 0.0591(2) 0.4842(4) 0.5208(3) . 1.
O5 O2- 1 a 0.2594(2) 0.9007(4) 0.6946(3) . 1.
O6 O2- 1 a 0.4508(2) 0.1960(4) 0.0324(3) . 1.
O7 O2- 1 a 0.7314(2) 0.2426(4) 0.9562(3) . 1.
O8 O2- 1 a 0.9275(2) 0.7050(4) 0.9695(3) . 1.
O9 O2- 1 a 0.8410(2) 0.3246(4) 0.6658(3) . 1.
O10 O2- 1 a 0.9344(2) 0.9843(4) 0.4618(3) . 1.
O11 O2- 1 a 0.7339(2) 0.4016(4) 0.2970(3) . 1.
O12 O2- 1 a 0.5589(2) 0.6823(4) 0.9778(3) . 1.
Li1 Li1+ 1 a 0.3117(5) 0.3667(8) 0.1506(6) . 0.932(29)
Li2 Li1+ 1 a 0.6977(5) 0.8692(9) 0.8691(6) . 0.926(29)
O13 O2- 1 a 0.4084(3) 0.3260(4) 0.4392(3) . 1.
H1 H1+ 1 a 0.3194(5) 0.2991(9) 0.4825(6) . 1.
H2 H1+ 1 a 0.4837(5) 0.1717(7) 0.4895(5) . 1.
O14 O2- 1 a 0.5988(2) 0.8253(4) 0.5830(3) . 1.
H3 H1+ 1 a 0.6881(5) 0.8004(9) 0.5397(6) . 1.
H4 H1+ 1 a 0.5252(5) 0.6691(72) 0.5330(5) . 1.
#End of TTdata_68587-ICSD