
#(C) 2020 by FIZ Karlsruhe - Leibniz Institute for Information Infrastructure.  All rights reserved.
data_69017-ICSD
_database_code_ICSD 69017
_audit_creation_date 1992-01-20
_audit_update_record 2012-02-01
_chemical_name_common 'Heptalithium tetranitridophosphate(V)'
_chemical_formula_structural 'Li7 (P N4)'
_chemical_formula_sum 'Li7 N4 P1'
_chemical_name_structure_type Li7PN4
_exptl_crystal_density_diffrn 2.19
_citation_title

;
Synthesis and crystal structure of lithium phosphorus nitride Li7 P N4: the
first compound containing isolated P N4 tetrahedra
;
loop_
_citation_id
_citation_journal_full
_citation_year
_citation_journal_volume
_citation_page_first
_citation_page_last
_citation_journal_id_ASTM
primary 'Journal of Solid State Chemistry' 1990 87 101 106 JSSCBI
loop_
_citation_author_citation_id
_citation_author_name
primary 'Schnick, W.'
primary 'Luecke, J.'
_cell_length_a 9.3648(3)
_cell_length_b 9.3648(3)
_cell_length_c 9.3648(3)
_cell_angle_alpha 90.
_cell_angle_beta 90.
_cell_angle_gamma 90.
_cell_volume 821.29
_cell_formula_units_Z 8
_space_group_name_H-M_alt 'P -4 3 n'
_space_group_IT_number 218
loop_
_space_group_symop_id
_space_group_symop_operation_xyz
1 '-z+1/2, y+1/2, -x+1/2'
2 '-y+1/2, x+1/2, -z+1/2'
3 '-x+1/2, z+1/2, -y+1/2'
4 'z+1/2, -y+1/2, -x+1/2'
5 'y+1/2, -x+1/2, -z+1/2'
6 'x+1/2, -z+1/2, -y+1/2'
7 '-z+1/2, -y+1/2, x+1/2'
8 '-y+1/2, -x+1/2, z+1/2'
9 '-x+1/2, -z+1/2, y+1/2'
10 'z+1/2, y+1/2, x+1/2'
11 'y+1/2, x+1/2, z+1/2'
12 'x+1/2, z+1/2, y+1/2'
13 '-z, -x, y'
14 '-y, -z, x'
15 '-x, -y, z'
16 'z, -x, -y'
17 'y, -z, -x'
18 'x, -y, -z'
19 '-z, x, -y'
20 '-y, z, -x'
21 '-x, y, -z'
22 'z, x, y'
23 'y, z, x'
24 'x, y, z'
loop_
_atom_type_symbol
_atom_type_oxidation_number
Li1+ 1
P5+ 5
N3- -3
loop_
_atom_site_label
_atom_site_type_symbol
_atom_site_symmetry_multiplicity
_atom_site_Wyckoff_symbol
_atom_site_fract_x
_atom_site_fract_y
_atom_site_fract_z
_atom_site_U_iso_or_equiv
_atom_site_occupancy
Li1 Li1+ 6 b 0 0.5 0.5 0.0185(25) 1.
Li2 Li1+ 6 d 0.25 0 0.5 0.0185(25) 1.
Li3 Li1+ 8 e 0.2245(29) 0.2245(29) 0.2245(29) 0.0185(25) 1.
Li4 Li1+ 24 i 0.2493(43) 0.2386(44) -.0258(34) 0.0185(25) 1.
Li5 Li1+ 12 f 0.2576(77) 0 0 0.0185(25) 1.
P1 P5+ 6 c 0.5 0 0.25 0.0082(10) 1.
P2 P5+ 2 a 0 0 0 0.0082(10) 1.
N1 N3- 24 i 0.3532(8) 0.3844(8) 0.1012(13) 0.0125(17) 1.
N2 N3- 8 e 0.1040(14) 0.1040(14) 0.1040(14) 0.0125(17) 1.
#End of TTdata_69017-ICSD