
#(C) 2020 by FIZ Karlsruhe - Leibniz Institute for Information Infrastructure.  All rights reserved.
data_69050-ICSD
_database_code_ICSD 69050
_audit_creation_date 1992-01-20
_chemical_name_common 'Lithium gallium silicate (3.3/0.2/1)'
_chemical_formula_structural 'Li3.26 Ga0.2 (Si O4)'
_chemical_formula_sum 'Ga0.2 Li3.26 O4 Si1'
_chemical_name_structure_type Li15(SiO4)3PO4
_exptl_crystal_density_diffrn 2.58
_citation_title
'Crystal structure of the lithium ion conductor, Li3.4Ga0.4/2SiO4'
loop_
_citation_id
_citation_journal_full
_citation_year
_citation_journal_volume
_citation_page_first
_citation_page_last
_citation_journal_id_ASTM
primary 'Journal of Solid State Chemistry' 1990 88 564 570 JSSCBI
loop_
_citation_author_citation_id
_citation_author_name
primary 'Smith, R.I.'
primary 'West, A.R.'
_cell_length_a 5.1478(4)
_cell_length_b 6.1316(5)
_cell_length_c 5.2505(4)
_cell_angle_alpha 90.
_cell_angle_beta 89.7950(5)
_cell_angle_gamma 90.
_cell_volume 165.73
_cell_formula_units_Z 2
_space_group_name_H-M_alt 'P 1 21/m 1'
_space_group_IT_number 11
loop_
_space_group_symop_id
_space_group_symop_operation_xyz
1 'x, -y+1/2, z'
2 '-x, -y, -z'
3 '-x, y+1/2, -z'
4 'x, y, z'
loop_
_atom_type_symbol
_atom_type_oxidation_number
Si4+ 4
O2- -2
Ga3+ 3
Li1+ 1
loop_
_atom_site_label
_atom_site_type_symbol
_atom_site_symmetry_multiplicity
_atom_site_Wyckoff_symbol
_atom_site_fract_x
_atom_site_fract_y
_atom_site_fract_z
_atom_site_B_iso_or_equiv
_atom_site_occupancy
Si1 Si4+ 2 e 0.6695(3) 0.25 0.3271(3) . 1.
O1 O2- 4 f 0.7873(2) 0.0299(1) 0.1873(2) . 1.
O2 O2- 2 e 0.3518(3) 0.25 0.3029(3) . 1.
O3 O2- 2 e 0.7501(3) 0.25 0.6271(2) . 1.
Ga1 Ga3+ 4 f 0.178(1) 0.010(2) 0.166(2) 2.0(2) 0.1
Li1 Li1+ 4 f 0.178(1) 0.010(2) 0.166(2) 2.0(2) 0.66(1)
Li2 Li1+ 2 e 0.341(2) 0.25 0.685(2) 2.2(3) 0.47(2)
Li3 Li1+ 2 e 0.180(2) 0.25 0.638(2) 1.4(4) 0.39(2)
Li4 Li1+ 4 f 0.398(2) 0.962(2) 0.131(2) 2.0(2) 0.25(1)
Li5 Li1+ 4 f 0.059(3) 0.028(3) 0.444(3) 2.0(2) 0.16(1)
Li6 Li1+ 2 e 0.027(3) 0.25 0.980(3) 2.0(2) 0.26(1)
loop_
_atom_site_aniso_label
_atom_site_aniso_type_symbol
_atom_site_aniso_B_11
_atom_site_aniso_B_22
_atom_site_aniso_B_33
_atom_site_aniso_B_12
_atom_site_aniso_B_13
_atom_site_aniso_B_23
Si1 Si4+ 1.39(8) 1.01(6) 1.51(7) 0 -.98(6) 0
O1 O2- 1.94(4) 1.18(4) 1.83(4) -.01(3) -.01(3) -.20(3)
O2 O2- 1.27(6) 0.85(6) 2.59(7) 0 -.44(5) 0
O3 O2- 3.50(7) 0.68(5) 1.66(6) 0 -1.11(5) 0
#End of TTdata_69050-ICSD