
#(C) 2020 by FIZ Karlsruhe - Leibniz Institute for Information Infrastructure.  All rights reserved.
data_69133-ICSD
_database_code_ICSD 69133
_audit_creation_date 1992-01-20
_audit_update_record 2005-10-01
_chemical_name_common 'Lithium carbonate'
_chemical_formula_structural 'Li2 (C O3)'
_chemical_formula_sum 'C1 Li2 O3'
_chemical_name_structure_type Li2CO3
_chemical_name_mineral Zabuyelite
_exptl_crystal_density_diffrn 2.1
_citation_title 'The crystal structure of zabuyelite'
loop_
_citation_id
_citation_journal_full
_citation_year
_citation_journal_volume
_citation_page_first
_citation_page_last
_citation_journal_id_ASTM
primary 'Chinese Science Bulletin' 1990 35 489 492 CSBUEF
loop_
_citation_author_citation_id
_citation_author_name
primary 'Lin, Y.-Y.'
primary 'Zhang, H.-Q.'
primary 'Zheng, M.-P.'
_cell_length_a 8.361(1)
_cell_length_b 4.976(2)
_cell_length_c 6.193(3)
_cell_angle_alpha 90.
_cell_angle_beta 114.69(3)
_cell_angle_gamma 90.
_cell_volume 234.1
_cell_formula_units_Z 4
_space_group_name_H-M_alt 'C 1 2/c 1'
_space_group_IT_number 15
loop_
_space_group_symop_id
_space_group_symop_operation_xyz
1 'x, -y, z+1/2'
2 '-x, -y, -z'
3 '-x, y, -z+1/2'
4 'x, y, z'
5 'x+1/2, -y+1/2, z+1/2'
6 '-x+1/2, -y+1/2, -z'
7 '-x+1/2, y+1/2, -z+1/2'
8 'x+1/2, y+1/2, z'
loop_
_atom_type_symbol
_atom_type_oxidation_number
Li1+ 1
C4+ 4
O2- -2
loop_
_atom_site_label
_atom_site_type_symbol
_atom_site_symmetry_multiplicity
_atom_site_Wyckoff_symbol
_atom_site_fract_x
_atom_site_fract_y
_atom_site_fract_z
_atom_site_B_iso_or_equiv
_atom_site_occupancy
Li1 Li1+ 8 f 0.6958(5) 0.0533(7) 0.3335(6) . 1.
C1 C4+ 4 e 0 0.0671(4) 0.25 . 1.
O1 O2- 8 f 0.1464(2) 0.9363(3) 0.3128(2) . 1.
O2 O2- 4 e 0 0.3222(4) 0.25 . 1.
loop_
_atom_site_aniso_label
_atom_site_aniso_type_symbol
_atom_site_aniso_U_11
_atom_site_aniso_U_22
_atom_site_aniso_U_33
_atom_site_aniso_U_12
_atom_site_aniso_U_13
_atom_site_aniso_U_23
Li1 Li1+ 0.0130(14) 0.0140(15) 0.0242(15) -.0014(11) 0.0059(12) -.0017(12)
C1 C4+ 0.0079(7) 0.0100(8) 0.0126(8) 0 0.0028(6) 0
O1 O2- 0.0090(5) 0.0123(5) 0.0201(6) 0.0028(4) 0.0049(4) 0.0009(4)
O2 O2- 0.0114(7) 0.0084(7) 0.0351(11) 0 0.0067(7) 0
#End of TTdata_69133-ICSD