
#(C) 2020 by FIZ Karlsruhe - Leibniz Institute for Information Infrastructure.  All rights reserved.
data_69221-ICSD
_database_code_ICSD 69221
_audit_creation_date 1992-08-20
_audit_update_record 1999-01-19
_chemical_name_common 'Lithium tecto-alumodisilicate'
_chemical_formula_structural 'Li (Al Si2 O6)'
_chemical_formula_sum 'Al1 Li1 O6 Si2'
_chemical_name_structure_type Li2Al2SiO6
_chemical_name_mineral Virgilite
_exptl_crystal_density_diffrn 2.39
_citation_title

;
Synthesis and structure of beta-quartz type Na0.5H0.5AlSi2O6 as compared to
LiAlSi2O6
;
loop_
_citation_id
_citation_journal_full
_citation_year
_citation_journal_volume
_citation_page_first
_citation_page_last
_citation_journal_id_ASTM
primary 'Neues Jahrbuch fuer Mineralogie, Monatshefte' 1990 1990 493 503 NJMMAW
loop_
_citation_author_citation_id
_citation_author_name
primary 'Mueller, G.'
primary 'Paulus, H.'
primary 'Stiefel, J.'
_cell_length_a 5.226(3)
_cell_length_b 5.226(3)
_cell_length_c 5.465(3)
_cell_angle_alpha 90.
_cell_angle_beta 90.
_cell_angle_gamma 120.
_cell_volume 129.26
_cell_formula_units_Z 1
_space_group_name_H-M_alt 'P 62 2 2'
_space_group_IT_number 180
loop_
_space_group_symop_id
_space_group_symop_operation_xyz
1 'x, x-y, -z+1/3'
2 '-x+y, y, -z'
3 '-y, -x, -z+2/3'
4 '-x, -x+y, -z+1/3'
5 'x-y, -y, -z'
6 'y, x, -z+2/3'
7 'x-y, x, z+1/3'
8 'y, -x+y, z+2/3'
9 '-x, -y, z'
10 '-x+y, -x, z+1/3'
11 '-y, x-y, z+2/3'
12 'x, y, z'
loop_
_atom_type_symbol
_atom_type_oxidation_number
Si4+ 4
Al3+ 3
O2- -2
Li1+ 1
loop_
_atom_site_label
_atom_site_type_symbol
_atom_site_symmetry_multiplicity
_atom_site_Wyckoff_symbol
_atom_site_fract_x
_atom_site_fract_y
_atom_site_fract_z
_atom_site_B_iso_or_equiv
_atom_site_occupancy
Si1 Si4+ 3 c 0.5 0 0 . 0.667
Al1 Al3+ 3 c 0.5 0 0 . 0.333
O1 O2- 6 j 0.2030(1) 0.4060(2) 0.5 . 1.
Li1 Li1+ 3 a 0 0 0 . 0.333
loop_
_atom_site_aniso_label
_atom_site_aniso_type_symbol
_atom_site_aniso_U_11
_atom_site_aniso_U_22
_atom_site_aniso_U_33
_atom_site_aniso_U_12
_atom_site_aniso_U_13
_atom_site_aniso_U_23
Si1 Si4+ 0.0110(2) 0.0098(2) 0.0117(2) 0.0049(1) 0 0
Al1 Al3+ 0.0110(2) 0.0098(2) 0.0117(2) 0.0049(1) 0 0
O1 O2- 0.0270(4) 0.0279(5) 0.0338(5) 0.0140(2) 0.0130(4) 0
Li1 Li1+ 0.012(3) 0.021(6) 0.070(8) 0.011(3) 0 0
#End of TTdata_69221-ICSD