
#(C) 2020 by FIZ Karlsruhe - Leibniz Institute for Information Infrastructure.  All rights reserved.
data_69300-ICSD
_database_code_ICSD 69300
_audit_creation_date 1992-08-20
_chemical_name_common 'Dilithium disilicate'
_chemical_formula_structural 'Li2 (Si2 O5)'
_chemical_formula_sum 'Li2 O5 Si2'
_chemical_name_structure_type Li2Si2O5
_exptl_crystal_density_diffrn 2.5
_citation_title

;
Rietveld structure refinement of metastable lithium disilicate using
synchrotron X-ray powder diffraction data from the Daresbury SRS 8.3
diffractometer
;
loop_
_citation_id
_citation_journal_full
_citation_year
_citation_journal_volume
_citation_page_first
_citation_page_last
_citation_journal_id_ASTM
primary 'Powder Diffraction' 1990 5 137 143 PODIE2
loop_
_citation_author_citation_id
_citation_author_name
primary 'Smith, R.I.'
primary 'West, A.R.'
primary 'Abrahams, I.'
primary 'Bruce, P.G.'
_cell_length_a 5.6871(6)
_cell_length_b 4.7846(5)
_cell_length_c 14.645(1)
_cell_angle_alpha 90.
_cell_angle_beta 90.
_cell_angle_gamma 90.
_cell_volume 398.5
_cell_formula_units_Z 4
_space_group_name_H-M_alt 'P b c n'
_space_group_IT_number 60
loop_
_space_group_symop_id
_space_group_symop_operation_xyz
1 'x, -y, z+1/2'
2 '-x+1/2, y+1/2, z'
3 'x+1/2, y+1/2, -z+1/2'
4 '-x, -y, -z'
5 '-x, y, -z+1/2'
6 'x+1/2, -y+1/2, -z'
7 '-x+1/2, -y+1/2, z+1/2'
8 'x, y, z'
loop_
_atom_type_symbol
_atom_type_oxidation_number
Li1+ 1
Si4+ 4
O2- -2
loop_
_atom_site_label
_atom_site_type_symbol
_atom_site_symmetry_multiplicity
_atom_site_Wyckoff_symbol
_atom_site_fract_x
_atom_site_fract_y
_atom_site_fract_z
_atom_site_B_iso_or_equiv
_atom_site_occupancy
Li1 Li1+ 8 d 0.607(3) 0.324(3) 0.44767(7) 2.3(3) 1.
Si1 Si4+ 8 d 0.0930(3) 0.3087(5) 0.3512(1) 1.5(2) 1.
O1 O2- 4 c 0 0.239(1) 0.25 1.3(3) 1.
O2 O2- 8 d -.0779(9) 0.205(1) 0.4310(2) 1.3(2) 1.
O3 O2- 8 d 0.3452(7) 0.1299(9) 0.3609(2) 1.7(2) 1.
#End of TTdata_69300-ICSD