
#(C) 2020 by FIZ Karlsruhe - Leibniz Institute for Information Infrastructure.  All rights reserved.
data_69347-ICSD
_database_code_ICSD 69347
_audit_creation_date 1992-08-20
_audit_update_record 2011-02-01
_chemical_name_common 'Trilithium diiron(III) tris(phosphate(V)) - gamma'
_chemical_formula_structural 'Li3 Fe2 (P O4)3'
_chemical_formula_sum 'Fe2 Li3 O12 P3'
_chemical_name_structure_type Li3Fe2(PO4)3
_exptl_crystal_density_diffrn 3.08
_diffrn_ambient_temperature 573.
_citation_title

;
Superionic conductors Li3 M2 (P O4)3 (M= Fe, Sc, Cr): synthesis, structure and
electrophysical properties
;
loop_
_citation_id
_citation_journal_full
_citation_year
_citation_journal_volume
_citation_page_first
_citation_page_last
_citation_journal_id_ASTM
primary 'Solid State Ionics' 1990 38 31 52 SSIOD3
loop_
_citation_author_citation_id
_citation_author_name
primary 'Bykov, A.B.'
primary 'Chirkin, A.P.'
primary 'Dem'yanets, L.N. (Demyanets, L.N.)'
primary 'Doronin, S.N.'
primary 'Genkina, E.A.'
primary 'Ivanov Shits, A.K.'
primary 'Kondratyuk, I.P.'
primary 'Maksimov, B.A.'
primary 'Mel'nikov, O.K. (Melnikov, O.K.)'
primary 'Muradyan, L.N.'
primary 'Simonov, V.I.'
primary 'Timofeeva, V.A.'
_cell_length_a 8.592(2)
_cell_length_b 12.129(2)
_cell_length_c 8.637(1)
_cell_angle_alpha 90.
_cell_angle_beta 90.
_cell_angle_gamma 90.
_cell_volume 900.08
_cell_formula_units_Z 4
_space_group_name_H-M_alt 'P c a n'
_space_group_IT_number 60
loop_
_space_group_symop_id
_space_group_symop_operation_xyz
1 '-x, y, z+1/2'
2 'x+1/2, -y+1/2, z'
3 'x+1/2, y+1/2, -z+1/2'
4 '-x, -y, -z'
5 'x, -y, -z+1/2'
6 '-x+1/2, y+1/2, -z'
7 '-x+1/2, -y+1/2, z+1/2'
8 'x, y, z'
loop_
_atom_type_symbol
_atom_type_oxidation_number
Li1+ 1
Fe3+ 3
P5+ 5
O2- -2
loop_
_atom_site_label
_atom_site_type_symbol
_atom_site_symmetry_multiplicity
_atom_site_Wyckoff_symbol
_atom_site_fract_x
_atom_site_fract_y
_atom_site_fract_z
_atom_site_B_iso_or_equiv
_atom_site_occupancy
Li1 Li1+ 8 d 0.289(2) 0.324(1) 0.281(2) 4.2(4) 1.
Li2 Li1+ 8 d 0.075(4) 0.296(5) 0.413(4) 3.4(5) 0.25
Li3 Li1+ 8 d 0.451(5) 0.230(4) 0.304(5) 7.1(9) 0.25
Fe1 Fe3+ 8 d 0.2495(2) 0.1063(1) 0.4638(1) 2.05(6) 1.
P1 P5+ 8 d 0.1060(2) 0.1481(2) 0.1068(3) 1.76(6) 1.
P2 P5+ 4 c 0.0387(3) 0.5 0.25 1.86(6) 1.
O1 O2- 8 d 0.4289(5) 0.3421(4) 0.1011(6) 2.83(8) 1.
O2 O2- 8 d 0.3242(6) 0.2727(4) 0.4876(6) 3.27(8) 1.
O3 O2- 8 d 0.1592(6) 0.0347(4) 0.0660(7) 3.99(9) 1.
O4 O2- 8 d 0.4425(6) 0.0756(4) 0.3514(6) 3.35(8) 1.
O5 O2- 8 d 0.1448(7) 0.4235(4) 0.1607(6) 3.88(8) 1.
O6 O2- 8 d 0.1566(6) 0.1801(4) 0.2714(6) 2.48(8) 1.
#End of TTdata_69347-ICSD