
#(C) 2020 by FIZ Karlsruhe - Leibniz Institute for Information Infrastructure.  All rights reserved.
data_69491-ICSD
_database_code_ICSD 69491
_audit_creation_date 1992-08-20
_chemical_name_common 'Dicesium trilithium gallium oxide'
_chemical_formula_structural 'Cs2 Li3 Ga O4'
_chemical_formula_sum 'Cs2 Ga1 Li3 O4'
_exptl_crystal_density_diffrn 4.67
_citation_title 'Cs2(Li3GaO4):ein phyllo-litho-gallat?'
loop_
_citation_id
_citation_journal_full
_citation_year
_citation_journal_volume
_citation_page_first
_citation_page_last
_citation_journal_id_ASTM
primary 'Zeitschrift fuer Anorganische und Allgemeine Chemie (1950) (DE)' 1990
581 159 172 ZAACAB
loop_
_citation_author_citation_id
_citation_author_name
primary 'Mueller, H.P.'
primary 'Hoppe, R.'
_cell_length_a 5.004(3)
_cell_length_b 10.051(2)
_cell_length_c 11.885(3)
_cell_angle_alpha 90.
_cell_angle_beta 90.
_cell_angle_gamma 90.
_cell_volume 597.76
_cell_formula_units_Z 4
_space_group_name_H-M_alt 'I b a m'
_space_group_IT_number 72
loop_
_space_group_symop_id
_space_group_symop_operation_xyz
1 '-x, y, z+1/2'
2 'x, -y, z+1/2'
3 'x, y, -z'
4 '-x, -y, -z'
5 'x, -y, -z+1/2'
6 '-x, y, -z+1/2'
7 '-x, -y, z'
8 'x, y, z'
9 '-x+1/2, y+1/2, z'
10 'x+1/2, -y+1/2, z'
11 'x+1/2, y+1/2, -z+1/2'
12 '-x+1/2, -y+1/2, -z+1/2'
13 'x+1/2, -y+1/2, -z'
14 '-x+1/2, y+1/2, -z'
15 '-x+1/2, -y+1/2, z+1/2'
16 'x+1/2, y+1/2, z+1/2'
loop_
_atom_type_symbol
_atom_type_oxidation_number
Cs1+ 1
Li1+ 1
Ga3+ 3
O2- -2
loop_
_atom_site_label
_atom_site_type_symbol
_atom_site_symmetry_multiplicity
_atom_site_Wyckoff_symbol
_atom_site_fract_x
_atom_site_fract_y
_atom_site_fract_z
_atom_site_B_iso_or_equiv
_atom_site_occupancy
Cs1 Cs1+ 8 j 0.2380(1) 0.3720(1) 0 . 1.
Li1 Li1+ 8 g 0 0.2604(9) 0.25 . 1.
Li2 Li1+ 4 b 0 0.5 0.25 . 1.
Ga1 Ga3+ 4 a 0.5 0.5 0.25 . 1.
O1 O2- 16 k 0.2316(5) 0.1169(3) 0.1754(2) . 1.
loop_
_atom_site_aniso_label
_atom_site_aniso_type_symbol
_atom_site_aniso_U_11
_atom_site_aniso_U_22
_atom_site_aniso_U_33
_atom_site_aniso_U_12
_atom_site_aniso_U_13
_atom_site_aniso_U_23
Cs1 Cs1+ 0.0212(2) 0.0207(2) 0.0183(2) -.0008(2) 0 0
Li1 Li1+ 0.0161(42) 0.0165(44) 0.0145(44) 0 0.0015(56) 0
Li2 Li1+ 0.0225(75) 0.0162(65) 0.0271(81) 0 0 0
Ga1 Ga3+ 0.0069(3) 0.0068(3) 0.0107(4) 0 0 0
O1 O2- 0.0096(10) 0.0097(11) 0.0107(4) 0 0 0
#End of TTdata_69491-ICSD