
#(C) 2020 by FIZ Karlsruhe - Leibniz Institute for Information Infrastructure.  All rights reserved.
data_70045-ICSD
_database_code_ICSD 70045
_audit_creation_date 1996-10-14
_audit_update_record 1999-01-19
_chemical_name_common 'Lithium nickel manganese oxide (1/0.5/1.5/4)'
_chemical_formula_structural 'Li Ni0.5 Mn1.5 O4'
_chemical_formula_sum 'Li1 Mn1.5 Ni0.5 O4'
_chemical_name_structure_type Spinel#LiFe5O8
_chemical_name_mineral Spinel-(Li,Ni,Mn)
_exptl_crystal_density_diffrn 4.45
_diffrn_ambient_temperature 4.2
_citation_title

;
A neutron diffraction study of some spinel componds containing octahedral Ni
and Mn at a 1 : 3 ratio
;
loop_
_citation_id
_citation_journal_full
_citation_year
_citation_journal_volume
_citation_page_first
_citation_page_last
_citation_journal_id_ASTM
primary 'Materials Science Forum' 1991 79 785 790 MSFOEP
loop_
_citation_author_citation_id
_citation_author_name
primary 'Gryffroy, D.'
primary 'Vandenberghe, R.E.'
primary 'Legrand, E.'
_cell_length_a 8.170(3)
_cell_length_b 8.170(3)
_cell_length_c 8.170(3)
_cell_angle_alpha 90.
_cell_angle_beta 90.
_cell_angle_gamma 90.
_cell_volume 545.34
_cell_formula_units_Z 8
_space_group_name_H-M_alt 'P 43 3 2'
_space_group_IT_number 212
loop_
_space_group_symop_id
_space_group_symop_operation_xyz
1 'z+1/4, y+3/4, -x+3/4'
2 '-z+3/4, y+1/4, x+3/4'
3 'y+1/4, x+3/4, -z+3/4'
4 '-y+3/4, x+1/4, z+3/4'
5 'x+1/4, z+3/4, -y+3/4'
6 '-x+3/4, z+1/4, y+3/4'
7 'z+3/4, -y+3/4, x+1/4'
8 '-z+1/4, -y+1/4, -x+1/4'
9 'y+3/4, -x+3/4, z+1/4'
10 '-y+1/4, -x+1/4, -z+1/4'
11 'x+3/4, -z+3/4, y+1/4'
12 '-x+1/4, -z+1/4, -y+1/4'
13 '-y+1/2, -z, x+1/2'
14 '-y, z+1/2, -x+1/2'
15 'y+1/2, -z+1/2, -x'
16 'y, z, x'
17 'z+1/2, -x+1/2, -y'
18 '-z+1/2, -x, y+1/2'
19 '-z, x+1/2, -y+1/2'
20 'z, x, y'
21 '-x+1/2, -y, z+1/2'
22 '-x, y+1/2, -z+1/2'
23 'x+1/2, -y+1/2, -z'
24 'x, y, z'
loop_
_atom_type_symbol
_atom_type_oxidation_number
Li1+ 1
Ni2+ 2
Mn4+ 4
Ni2+ 2
O2- -2
loop_
_atom_site_label
_atom_site_type_symbol
_atom_site_symmetry_multiplicity
_atom_site_Wyckoff_symbol
_atom_site_fract_x
_atom_site_fract_y
_atom_site_fract_z
_atom_site_B_iso_or_equiv
_atom_site_occupancy
Li1 Li1+ 8 c 0.011(1) 0.011(1) 0.011(1) 0 1.
Ni1 Ni2+ 4 b 0.625 0.625 0.625 0 0.933(10)
Mn2 Mn4+ 4 b 0.625 0.625 0.625 0 0.068(10)
Mn1 Mn4+ 12 d 0.125 0.379(1) -.129(1) 0 0.978(10)
Ni2 Ni2+ 12 d 0.125 0.379(1) -.129(1) 0 0.022(10)
O1 O2- 8 c 0.3850(5) 0.3850(5) 0.3850(5) 0 1.
O2 O2- 24 e 0.146(1) -.142(1) 0.1268(5) 0 1.
#End of TTdata_70045-ICSD