
#(C) 2020 by FIZ Karlsruhe - Leibniz Institute for Information Infrastructure.  All rights reserved.
data_71277-ICSD
_database_code_ICSD 71277
_audit_creation_date 1993-01-06
_chemical_name_common 'Lithium titanium phosphate (2.7/2/3)'
_chemical_formula_structural 'Li2.72 Ti2 (P O4)3'
_chemical_formula_sum 'Li2.72 O12 P3 Ti2'
_exptl_crystal_density_diffrn 2.92
_diffrn_ambient_temperature 296.
_citation_title

;
Li3-xTi2(PO4)3(0<x<1): a new mixed valent titanium(III/IV) phosphate with a
NASICON-type structure
;
loop_
_citation_id
_citation_journal_full
_citation_year
_citation_journal_volume
_citation_page_first
_citation_page_last
_citation_journal_id_ASTM
primary 'Journal of Solid State Chemistry' 1991 90 377 381 JSSCBI
loop_
_citation_author_citation_id
_citation_author_name
primary 'Wang, S.-M.'
primary 'Hwu, S.-J.'
_cell_length_a 12.064(3)
_cell_length_b 8.663(3)
_cell_length_c 8.711(4)
_cell_angle_alpha 90.
_cell_angle_beta 90.
_cell_angle_gamma 90.
_cell_volume 910.39
_cell_formula_units_Z 4
_space_group_name_H-M_alt 'P b c n'
_space_group_IT_number 60
loop_
_space_group_symop_id
_space_group_symop_operation_xyz
1 'x, -y, z+1/2'
2 '-x+1/2, y+1/2, z'
3 'x+1/2, y+1/2, -z+1/2'
4 '-x, -y, -z'
5 '-x, y, -z+1/2'
6 'x+1/2, -y+1/2, -z'
7 '-x+1/2, -y+1/2, z+1/2'
8 'x, y, z'
loop_
_atom_type_symbol
_atom_type_oxidation_number
Ti3+ 3.14
P5+ 5
O2- -2
Li1+ 1
loop_
_atom_site_label
_atom_site_type_symbol
_atom_site_symmetry_multiplicity
_atom_site_Wyckoff_symbol
_atom_site_fract_x
_atom_site_fract_y
_atom_site_fract_z
_atom_site_B_iso_or_equiv
_atom_site_occupancy
Ti1 Ti3+ 8 d 0.39036(8) 0.2507(1) 0.0376(1) . 1.
P1 P5+ 4 c 0.5 0.5393(3) 0.25 . 1.
P2 P5+ 8 d 0.3507(1) 0.1046(2) 0.3946(2) . 1.
O1 O2- 8 d 0.4251(4) 0.3553(7) 0.8457(6) . 1.
O2 O2- 8 d 0.4230(4) 0.4439(6) 0.1515(6) . 1.
O3 O2- 8 d 0.5320(3) 0.1552(5) 0.0675(5) . 1.
O4 O2- 8 d 0.2287(4) 0.3276(6) 0.0151(5) . 1.
O5 O2- 8 d 0.3172(4) 0.1582(5) 0.2338(5) . 1.
O6 O2- 8 d 0.3407(4) 0.0697(5) -.0998(5) . 1.
Li1 Li1+ 8 d 0.180(2) 0.295(2) 0.225(2) 4.6(4) 1.
Li2 Li1+ 8 d 0.202(4) 0.078(5) 0.078(5) 4.(1) 0.36
loop_
_atom_site_aniso_label
_atom_site_aniso_type_symbol
_atom_site_aniso_U_11
_atom_site_aniso_U_22
_atom_site_aniso_U_33
_atom_site_aniso_U_12
_atom_site_aniso_U_13
_atom_site_aniso_U_23
Ti1 Ti3+ 0.0084(5) 0.0105(5) 0.0085(5) 0.0020(5) -.0004(4) 0.0001(6)
P1 P5+ 0.020(1) 0.011(1) 0.004(1) 0 0.003(1) 0
P2 P5+ 0.0060(6) 0.0096(7) 0.0085(7) 0.0005(6) 0.0013(6) -.0001(7)
O1 O2- 0.028(3) 0.039(3) 0.020(3) 0.003(2) 0.016(2) 0.018(3)
O2 O2- 0.031(3) 0.021(3) 0.033(3) 0.003(2) -.018(2) -.008(2)
O3 O2- 0.016(2) 0.018(3) 0.021(3) 0.004(2) 0.009(2) -.007(2)
O4 O2- 0.016(3) 0.036(3) 0.005(2) 0.013(2) -.002(2) 0.001(2)
O5 O2- 0.011(2) 0.020(3) 0.013(2) 0.001(2) -.001(2) 0.001(2)
O6 O2- 0.019(2) 0.007(2) 0.019(2) 0.002(2) -.003(2) -.002(2)
#End of TTdata_71277-ICSD