
#(C) 2020 by FIZ Karlsruhe - Leibniz Institute for Information Infrastructure.  All rights reserved.
data_71366-ICSD
_database_code_ICSD 71366
_audit_creation_date 1993-01-06
_audit_update_record 2012-02-01
_chemical_name_common 'Lithium potassium sulfate(VI)'
_chemical_formula_structural 'Li K (S O4)'
_chemical_formula_sum 'K1 Li1 O4 S1'
_chemical_name_structure_type KLiSO4(Cc)
_exptl_crystal_density_diffrn 2.39
_diffrn_ambient_temperature 182.
_citation_title

;
Neutron profile refinement study of the low-temperature structural phases of
Li K S O4
;
loop_
_citation_id
_citation_journal_full
_citation_year
_citation_journal_volume
_citation_page_first
_citation_page_last
_citation_journal_id_ASTM
primary 'Physica B: Condensed Matter (Amsterdam, Netherlands)' 1991 174 95 100
PHYBE3
loop_
_citation_author_citation_id
_citation_author_name
primary 'Rajagopal, H.'
primary 'Jaya, V.'
primary 'Sequeira, A.'
primary 'Chidambaram, R.'
_cell_length_a 5.101(2)
_cell_length_b 8.959(5)
_cell_length_c 8.653(3)
_cell_angle_alpha 90.
_cell_angle_beta 90.1(1)
_cell_angle_gamma 90.
_cell_volume 395.44
_cell_formula_units_Z 4
_space_group_name_H-M_alt 'C 1 c 1'
_space_group_IT_number 9
loop_
_space_group_symop_id
_space_group_symop_operation_xyz
1 'x, -y, z+1/2'
2 'x, y, z'
3 'x+1/2, -y+1/2, z+1/2'
4 'x+1/2, y+1/2, z'
loop_
_atom_type_symbol
_atom_type_oxidation_number
K1+ 1
Li1+ 1
S6+ 6
O2- -2
loop_
_atom_site_label
_atom_site_type_symbol
_atom_site_symmetry_multiplicity
_atom_site_Wyckoff_symbol
_atom_site_fract_x
_atom_site_fract_y
_atom_site_fract_z
_atom_site_B_iso_or_equiv
_atom_site_occupancy
K1 K1+ 4 a 0 0 0 0.1(3) 1.
Li1 Li1+ 4 a -.015(12) 0.325(4) 0.320(3) 0.1(3) 1.
S1 S6+ 4 a -.006(8) 0.365(2) 0.699(4) 0.1(3) 1.
O1 O2- 4 a 0.002(7) 0.340(2) 0.524(3) 0.77(4) 1.
O2 O2- 4 a 0.089(6) 0.221(1) 0.780(2) 0.77(4) 1.
O3 O2- 4 a 0.613(6) -.016(2) 0.752(3) 0.77(4) 1.
O4 O2- 4 a 0.184(5) 0.831(1) 0.738(3) 0.77(4) 1.
#End of TTdata_71366-ICSD