
#(C) 2020 by FIZ Karlsruhe - Leibniz Institute for Information Infrastructure.  All rights reserved.
data_71365-ICSD
_database_code_ICSD 71365
_audit_creation_date 1993-01-06
_audit_update_record 2006-04-01
_chemical_name_common 'Lithium potassium sulfate(VI)'
_chemical_formula_structural 'Li K (S O4)'
_chemical_formula_sum 'K1 Li1 O4 S1'
_chemical_name_structure_type KLiSO4(P31C)
_exptl_crystal_density_diffrn 2.38
_diffrn_ambient_temperature 205.
_citation_title

;
Neutron profile refinement study of the low-temperature structural phases of
Li K S O4
;
loop_
_citation_id
_citation_journal_full
_citation_year
_citation_journal_volume
_citation_page_first
_citation_page_last
_citation_journal_id_ASTM
primary 'Physica B: Condensed Matter (Amsterdam, Netherlands)' 1991 174 95 100
PHYBE3
loop_
_citation_author_citation_id
_citation_author_name
primary 'Rajagopal, H.'
primary 'Jaya, V.'
primary 'Sequeira, A.'
primary 'Chidambaram, R.'
_cell_length_a 5.139(3)
_cell_length_b 5.139(3)
_cell_length_c 8.677(3)
_cell_angle_alpha 90.
_cell_angle_beta 90.
_cell_angle_gamma 120.
_cell_volume 198.45
_cell_formula_units_Z 2
_space_group_name_H-M_alt 'P 3 1 c'
_space_group_IT_number 159
loop_
_space_group_symop_id
_space_group_symop_operation_xyz
1 '-x, -x+y, z+1/2'
2 'x-y, -y, z+1/2'
3 'y, x, z+1/2'
4 '-x+y, -x, z'
5 '-y, x-y, z'
6 'x, y, z'
loop_
_atom_type_symbol
_atom_type_oxidation_number
K1+ 1
Li1+ 1
S6+ 6
O2- -2
loop_
_atom_site_label
_atom_site_type_symbol
_atom_site_symmetry_multiplicity
_atom_site_Wyckoff_symbol
_atom_site_fract_x
_atom_site_fract_y
_atom_site_fract_z
_atom_site_B_iso_or_equiv
_atom_site_occupancy
K1 K1+ 2 a 0 0 0 0.2(4) 1.
Li1 Li1+ 2 b 0.3333 0.6667 0.3160(29) 0.2(4) 1.
S1 S6+ 2 b 0.3333 0.6667 0.7148(31) 0.2(4) 1.
O1 O2- 2 b 0.3333 0.6667 0.5139(26) 0.74(3) 1.
O2 O2- 6 c 0.3516(9) 0.4100(9) 0.7465(21) 0.74(3) 1.
#End of TTdata_71365-ICSD