
#(C) 2020 by FIZ Karlsruhe - Leibniz Institute for Information Infrastructure.  All rights reserved.
data_71421-ICSD
_database_code_ICSD 71421
_audit_creation_date 1993-01-06
_chemical_name_common 'Dilithium nickel oxide - 1T'
_chemical_formula_structural 'Li2 Ni O2'
_chemical_formula_sum 'Li2 Ni1 O2'
_chemical_name_structure_type La2O3
_exptl_crystal_density_diffrn 4.13
_citation_title 'Structure of 1T-Li2NiO2 from powder neutron diffraction'
loop_
_citation_id
_citation_journal_full
_citation_year
_citation_journal_volume
_citation_page_first
_citation_page_last
_citation_journal_id_ASTM
primary 'Solid State Ionics' 1991 46 243 247 SSIOD3
loop_
_citation_author_citation_id
_citation_author_name
primary 'Davidson, I.'
primary 'Greedan, J.E.'
primary 'von Sacken, U.'
primary 'Michal, C.A.'
primary 'Dahn, J.R.'
_cell_length_a 3.0954(9)
_cell_length_b 3.0954(9)
_cell_length_c 5.070(1)
_cell_angle_alpha 90.
_cell_angle_beta 90.
_cell_angle_gamma 120.
_cell_volume 42.07
_cell_formula_units_Z 1
_space_group_name_H-M_alt 'P -3 m 1'
_space_group_IT_number 164
loop_
_space_group_symop_id
_space_group_symop_operation_xyz
1 'x-y, -y, -z'
2 '-x, -x+y, -z'
3 'y, x, -z'
4 'x-y, x, -z'
5 'y, -x+y, -z'
6 '-x, -y, -z'
7 '-x+y, y, z'
8 'x, x-y, z'
9 '-y, -x, z'
10 '-x+y, -x, z'
11 '-y, x-y, z'
12 'x, y, z'
loop_
_atom_type_symbol
_atom_type_oxidation_number
Ni2+ 2
Li1+ 1
O2- -2
loop_
_atom_site_label
_atom_site_type_symbol
_atom_site_symmetry_multiplicity
_atom_site_Wyckoff_symbol
_atom_site_fract_x
_atom_site_fract_y
_atom_site_fract_z
_atom_site_B_iso_or_equiv
_atom_site_occupancy
Ni1 Ni2+ 1 a 0 0 0 1.0(1) 1.
Li1 Li1+ 2 d 0.3333 0.6667 0.649(2) 0.4(2) 1.
O1 O2- 2 d 0.3333 0.6667 0.2333(9) 0.4(1) 1.
#End of TTdata_71421-ICSD