
#(C) 2020 by FIZ Karlsruhe - Leibniz Institute for Information Infrastructure.  All rights reserved.
data_71547-ICSD
_database_code_ICSD 71547
_audit_creation_date 1993-01-06
_chemical_name_common 'Lithium niobium nitride'
_chemical_formula_structural 'Li7 Nb N4'
_chemical_formula_sum 'Li7 N4 Nb1'
_chemical_name_structure_type Li7TaN4
_exptl_crystal_density_diffrn 2.76
_diffrn_ambient_temperature 298.
_citation_title 'Structure of lithium niobium nitride'
loop_
_citation_id
_citation_journal_full
_citation_year
_citation_journal_volume
_citation_page_first
_citation_page_last
_citation_journal_id_ASTM
primary 'Acta Crystallographica, Section C: Crystal Structure Communications'
1992 48 610 612 ACSCEE
loop_
_citation_author_citation_id
_citation_author_name
primary 'Vennos, D.A.'
primary 'DiSalvo, F.J.'
_cell_length_a 9.829(1)
_cell_length_b 9.829(1)
_cell_length_c 9.829(1)
_cell_angle_alpha 90.
_cell_angle_beta 90.
_cell_angle_gamma 90.
_cell_volume 949.57
_cell_formula_units_Z 8
_space_group_name_H-M_alt 'P a -3'
_space_group_IT_number 205
loop_
_space_group_symop_id
_space_group_symop_operation_xyz
1 '-z+1/2, x+1/2, y'
2 'z+1/2, x, -y+1/2'
3 'z, -x+1/2, y+1/2'
4 '-z, -x, -y'
5 'y, -z+1/2, x+1/2'
6 '-y+1/2, z+1/2, x'
7 'y+1/2, z, -x+1/2'
8 '-y, -z, -x'
9 'x+1/2, y, -z+1/2'
10 'x, -y+1/2, z+1/2'
11 '-x+1/2, y+1/2, z'
12 '-x, -y, -z'
13 'z+1/2, -x+1/2, -y'
14 '-z+1/2, -x, y+1/2'
15 '-z, x+1/2, -y+1/2'
16 'z, x, y'
17 '-y, z+1/2, -x+1/2'
18 'y+1/2, -z+1/2, -x'
19 '-y+1/2, -z, x+1/2'
20 'y, z, x'
21 '-x+1/2, -y, z+1/2'
22 '-x, y+1/2, -z+1/2'
23 'x+1/2, -y+1/2, -z'
24 'x, y, z'
loop_
_atom_type_symbol
_atom_type_oxidation_number
Nb5+ 5
N3- -3
Li1+ 1
loop_
_atom_site_label
_atom_site_type_symbol
_atom_site_symmetry_multiplicity
_atom_site_Wyckoff_symbol
_atom_site_fract_x
_atom_site_fract_y
_atom_site_fract_z
_atom_site_B_iso_or_equiv
_atom_site_occupancy
Nb1 Nb5+ 8 c 0.3722(1) 0.3722(1) 0.3722(1) . 1.
N1 N3- 24 d 0.2561(4) 0.0143(5) -.0117(4) . 1.
N2 N3- 8 c 0.2589(4) 0.2589(4) 0.2589(4) . 1.
Li1 Li1+ 24 d 0.632(1) 0.1397(10) 0.1151(10) . 1.
Li2 Li1+ 24 d 0.1190(11) -.0988(10) 0.8652(11) . 1.
Li3 Li1+ 8 c 0.1321(9) 0.1321(9) 0.1321(9) . 1.
loop_
_atom_site_aniso_label
_atom_site_aniso_type_symbol
_atom_site_aniso_U_11
_atom_site_aniso_U_22
_atom_site_aniso_U_33
_atom_site_aniso_U_12
_atom_site_aniso_U_13
_atom_site_aniso_U_23
Nb1 Nb5+ 0.003(1) 0.003(1) 0.003(1) 0.000(1) 0 0
N1 N3- 0.005(2) 0.009(2) 0.009(2) 0.001(2) 0.001(2) 0.003(2)
N2 N3- 0.005(1) 0.005(1) 0.005(1) -.002(2) -.002(2) -.002(2)
Li1 Li1+ 0.016(5) 0.015(5) 0.018(5) 0.002(4) 0.002(4) 0.004(4)
Li2 Li1+ 0.018(5) 0.013(4) 0.020(5) 0.001(4) -.008(4) 0.014(4)
Li3 Li1+ 0.013(3) 0.013(3) 0.013(3) -.002(4) -.002(4) -.002(4)
#End of TTdata_71547-ICSD