
#(C) 2020 by FIZ Karlsruhe - Leibniz Institute for Information Infrastructure.  All rights reserved.
data_71696-ICSD
_database_code_ICSD 71696
_audit_creation_date 1993-08-22
_audit_update_record 2010-08-01
_chemical_name_common 'Hexadecalithium ditantalum octanitride oxide'
_chemical_formula_structural 'Li16 Ta2 N8 O'
_chemical_formula_sum 'Li16 N8 O1 Ta2'
_chemical_name_structure_type Li16Ta2N8O
_exptl_crystal_density_diffrn 3.79
_citation_title

;
Darstellung und Struktur eines neuen Nitridoxides mit Lithium und Tantal: Li6
Ta2 N8 O
;
loop_
_citation_id
_citation_journal_full
_citation_year
_citation_journal_volume
_citation_page_first
_citation_page_last
_citation_journal_id_ASTM
primary 'Journal of Alloys and Compounds' 1992 185 109 119 JALCEU
loop_
_citation_author_citation_id
_citation_author_name
primary 'Wachsmann, C.'
primary 'Brokamp, T.'
primary 'Jacobs, H.'
_cell_length_a 5.982(1)
_cell_length_b 5.982(1)
_cell_length_c 25.48(1)
_cell_angle_alpha 90.
_cell_angle_beta 90.
_cell_angle_gamma 120.
_cell_volume 789.63
_cell_formula_units_Z 3
_space_group_name_H-M_alt 'R -3 H'
_space_group_IT_number 148
loop_
_space_group_symop_id
_space_group_symop_operation_xyz
1 'x-y, x, -z'
2 'y, -x+y, -z'
3 '-x, -y, -z'
4 '-x+y, -x, z'
5 '-y, x-y, z'
6 'x, y, z'
7 'x-y+2/3, x+1/3, -z+1/3'
8 'y+2/3, -x+y+1/3, -z+1/3'
9 '-x+2/3, -y+1/3, -z+1/3'
10 '-x+y+2/3, -x+1/3, z+1/3'
11 '-y+2/3, x-y+1/3, z+1/3'
12 'x+2/3, y+1/3, z+1/3'
13 'x-y+1/3, x+2/3, -z+2/3'
14 'y+1/3, -x+y+2/3, -z+2/3'
15 '-x+1/3, -y+2/3, -z+2/3'
16 '-x+y+1/3, -x+2/3, z+2/3'
17 '-y+1/3, x-y+2/3, z+2/3'
18 'x+1/3, y+2/3, z+2/3'
loop_
_atom_type_symbol
_atom_type_oxidation_number
Ta5+ 5
N3- -3
O2- -2
Li1+ 1
loop_
_atom_site_label
_atom_site_type_symbol
_atom_site_symmetry_multiplicity
_atom_site_Wyckoff_symbol
_atom_site_fract_x
_atom_site_fract_y
_atom_site_fract_z
_atom_site_B_iso_or_equiv
_atom_site_occupancy
Ta1 Ta5+ 6 c 0 0 0.24924(4) 0.230(8) 1.
N1 N3- 18 f 0.308(2) 0.312(2) 0.2240(4) 0.5(1) 1.
N2 N3- 6 c 0 0 0.3254(7) 0.7(3) 1.
O1 O2- 3 a 0 0 0 0.8(3) 1.
Li1 Li1+ 18 f 0.350(4) 0.303(4) 0.4754(8) 0.8(3) 1.
Li2 Li1+ 18 f 0.043(5) 0.344(5) 0.0247(9) 1.4(4) 1.
Li3 Li1+ 6 c 0 0 0.077(2) 1.4(7) 1.
Li4 Li1+ 6 c 0 0 0.418(2) 0.9(6) 1.
#End of TTdata_71696-ICSD