
#(C) 2020 by FIZ Karlsruhe - Leibniz Institute for Information Infrastructure.  All rights reserved.
data_71875-ICSD
_database_code_ICSD 71875
_audit_creation_date 1993-08-22
_audit_update_record 2012-02-01
_chemical_name_common 'Lithium dibarium pentaborate'
_chemical_formula_structural 'Li Ba2 (B5 O10)'
_chemical_formula_sum 'B5 Ba2 Li1 O10'
_chemical_name_structure_type LiBa2B5O10
_exptl_crystal_density_diffrn 3.94
_diffrn_ambient_temperature 296.
_citation_title 'A new type of borate double salt: structure of Li Ba2 B5 O10'
loop_
_citation_id
_citation_journal_full
_citation_year
_citation_journal_volume
_citation_page_first
_citation_page_last
_citation_journal_id_ASTM
primary 'Acta Crystallographica, Section C: Crystal Structure Communications'
1992 48 1576 1578 ACSCEE
loop_
_citation_author_citation_id
_citation_author_name
primary 'Huang, Q.'
primary 'Lu, S.'
primary 'Dai, G.'
primary 'Liang, J.'
_cell_length_a 4.413(2)
_cell_length_b 14.585(9)
_cell_length_c 6.700(4)
_cell_angle_alpha 90.
_cell_angle_beta 104.30(4)
_cell_angle_gamma 90.
_cell_volume 417.87
_cell_formula_units_Z 2
_space_group_name_H-M_alt 'P 1 21/m 1'
_space_group_IT_number 11
loop_
_space_group_symop_id
_space_group_symop_operation_xyz
1 'x, -y+1/2, z'
2 '-x, -y, -z'
3 '-x, y+1/2, -z'
4 'x, y, z'
loop_
_atom_type_symbol
_atom_type_oxidation_number
Ba2+ 2
O2- -2
B3+ 3
Li1+ 1
loop_
_atom_site_label
_atom_site_type_symbol
_atom_site_symmetry_multiplicity
_atom_site_Wyckoff_symbol
_atom_site_fract_x
_atom_site_fract_y
_atom_site_fract_z
_atom_site_B_iso_or_equiv
_atom_site_occupancy
Ba1 Ba2+ 4 f 0.33625(5) 0.08851(2) 0.69725(4) . 1.
O1 O2- 4 f 0.7206(6) 0.0862(2) 0.1024(4) . 1.
O2 O2- 4 f 0.8312(7) -.0124(2) 0.6912(5) . 1.
O3 O2- 2 e 0.6201(9) 0.25 0.0819(6) . 1.
O4 O2- 4 f 0.6680(7) 0.1676(2) 0.4037(4) . 1.
O5 O2- 4 f 0.7800(6) 0.8549(2) 0.8950(4) . 1.
O6 O2- 2 e -.049(1) 0.25 0.6953(7) . 1.
B1 B3+ 4 f -.0479(9) -.0790(3) 0.8218(6) . 1.
B2 B3+ 2 e 0.769(1) 0.25 0.5014(9) . 1.
B3 B3+ 4 f 0.5592(9) 0.1635(3) 0.1772(6) . 1.
Li1 Li1+ 2 e -.013(2) 0.25 0.977(2) . 1.
loop_
_atom_site_aniso_label
_atom_site_aniso_type_symbol
_atom_site_aniso_U_11
_atom_site_aniso_U_22
_atom_site_aniso_U_33
_atom_site_aniso_U_12
_atom_site_aniso_U_13
_atom_site_aniso_U_23
Ba1 Ba2+ 0.00860(6) 0.00867(6) 0.00873(6) 0.0007(1) 0.00249(5) 0.0005(1)
O1 O2- 0.0073(9) 0.007(1) 0.012(1) -.002(1) 0.0019(8) -.004(1)
O2 O2- 0.010(1) 0.011(1) 0.0118(9) 0.002(1) 0.0029(8) 0.002(1)
O3 O2- 0.009(1) 0.006(2) 0.008(1) 0 0.004(1) 0
O4 O2- 0.017(1) 0.010(1) 0.006(1) -.002(1) 0.0009(9) 0.001(1)
O5 O2- 0.006(1) 0.009(1) 0.017(1) 0.000(1) 0.0042(8) 0.005(1)
O6 O2- 0.023(2) 0.018(2) 0.008(2) 0 -.001(2) 0
B1 B3+ 0.007(1) 0.009(2) 0.007(1) 0.000(1) 0.001(1) 0.000(1)
B2 B3+ 0.011(2) 0.016(3) 0.005(2) 0 0.003(2) 0
B3 B3+ 0.006(1) 0.006(2) 0.007(1) -.001(1) 0.001(1) 0.000(1)
Li1 Li1+ 0.011(4) 0.017(5) 0.010(4) 0 0.003(3) 0
#End of TTdata_71875-ICSD