
#(C) 2020 by FIZ Karlsruhe - Leibniz Institute for Information Infrastructure.  All rights reserved.
data_72-ICSD
_database_code_ICSD 72
_audit_creation_date 1980-01-01
_audit_update_record 2009-08-01
_chemical_name_common 'Rubidium dilithium heptafluorodiberyllate'
_chemical_formula_structural 'Rb Li2 (Be2 F7)'
_chemical_formula_sum 'Be2 F7 Li2 Rb1'
_exptl_crystal_density_diffrn 2.7
_citation_title 'Structure cristalline du pyrofluoroberyllate Rb Li2 Be2 F7'
loop_
_citation_id
_citation_journal_full
_citation_year
_citation_journal_volume
_citation_page_first
_citation_page_last
_citation_journal_id_ASTM
primary

;
Acta Crystallographica, Section B: Structural Crystallography and Crystal
Chemistry
; 1976 32 1356 1362 ACBCAR
loop_
_citation_author_citation_id
_citation_author_name
primary 'Vicat, J.'
primary 'Duc Tran Qui'
primary 'Aleonard, S.'
_cell_length_a 12.376(3)
_cell_length_b 4.948(1)
_cell_length_c 10.054(2)
_cell_angle_alpha 90.
_cell_angle_beta 90.25(2)
_cell_angle_gamma 90.
_cell_volume 615.67
_cell_formula_units_Z 4
_space_group_name_H-M_alt 'P 1 21/c 1'
_space_group_IT_number 14
loop_
_space_group_symop_id
_space_group_symop_operation_xyz
1 'x, -y+1/2, z+1/2'
2 '-x, -y, -z'
3 '-x, y+1/2, -z+1/2'
4 'x, y, z'
loop_
_atom_type_symbol
_atom_type_oxidation_number
Rb1+ 1
Li1+ 1
Be2+ 2
F1- -1
loop_
_atom_site_label
_atom_site_type_symbol
_atom_site_symmetry_multiplicity
_atom_site_Wyckoff_symbol
_atom_site_fract_x
_atom_site_fract_y
_atom_site_fract_z
_atom_site_B_iso_or_equiv
_atom_site_occupancy
Rb1 Rb1+ 4 e 0.2500(1) 0.7317(2) 0.1406(1) . 1.
Li1 Li1+ 4 e 0.5013(8) 0.2081(23) 0.1495(8) . 1.
Li2 Li1+ 4 e 0.0011(7) 0.7088(27) 0.3473(9) . 1.
Be1 Be2+ 4 e 0.3655(5) 0.2242(18) 0.3994(7) . 1.
Be2 Be2+ 4 e 0.1303(6) 0.2138(18) 0.4033(6) . 1.
F1 F1- 4 e 0.2480(3) 0.2988(7) 0.3509(3) . 1.
F2 F1- 4 e 0.3824(3) 0.3230(9) 0.5411(3) . 1.
F3 F1- 4 e 0.4453(3) 0.3717(7) 0.3037(4) . 1.
F4 F1- 4 e 0.3805(3) -.0798(8) 0.3889(4) . 1.
F5 F1- 4 e 0.1211(3) -.0941(8) 0.3886(4) . 1.
F6 F1- 4 e 0.0482(3) 0.3574(7) 0.3120(4) . 1.
F7 F1- 4 e 0.1197(3) 0.3032(8) 0.5471(3) . 1.
loop_
_atom_site_aniso_label
_atom_site_aniso_type_symbol
_atom_site_aniso_U_11
_atom_site_aniso_U_22
_atom_site_aniso_U_33
_atom_site_aniso_U_12
_atom_site_aniso_U_13
_atom_site_aniso_U_23
Rb1 Rb1+ 0.0341(3) 0.0247(3) 0.0248(2) 0.0009(4) 0.0017(2) -.0016(4)
Li1 Li1+ 0.0223(49) 0.0221(64) 0.0211(37) -.0031(47) 0.0039(32) -.0091(41)
Li2 Li1+ 0.0137(44) 0.0368(76) 0.0260(43) 0.0062(52) -.0039(32) -.0109(51)
Be1 Be2+ 0.0115(28) 0.0153(37) 0.0274(31) -.0018(33) 0.0069(23) 0.0043(36)
Be2 Be2+ 0.0168(32) 0.0221(41) 0.0169(27) -.0022(33) 0.0059(23) 0.0068(32)
F1 F1- 0.0169(13) 0.0262(20) 0.0242(14) 0.0033(19) 0.0016(11) 0.0020(16)
F2 F1- 0.0254(18) 0.0527(28) 0.0201(15) 0.0097(18) -.0017(15) -.0104(16)
F3 F1- 0.0317(19) 0.0233(18) 0.0317(18) -.0107(16) 0.0193(15) -.0067(15)
F4 F1- 0.0217(21) 0.0167(19) 0.0552(24) 0.0086(16) 0.0095(17) 0.0023(17)
F5 F1- 0.0251(22) 0.0175(19) 0.0429(22) -.0012(17) -.0054(16) -.0054(16)
F6 F1- 0.0265(19) 0.0211(17) 0.0308(18) -.0108(15) -.0116(15) 0.0077(14)
F7 F1- 0.0235(17) 0.0420(26) 0.0227(15) -.0048(18) 0.0068(12) -.0069(16)
#End of TTdata_72-ICSD