
#(C) 2020 by FIZ Karlsruhe - Leibniz Institute for Information Infrastructure.  All rights reserved.
data_72101-ICSD
_database_code_ICSD 72101
_audit_creation_date 1993-08-22
_audit_update_record 2006-04-01
_chemical_name_common 'Trilithium phyllo-gallogermanate'
_chemical_formula_structural 'Li3 (Ga Ge O5)'
_chemical_formula_sum 'Ga1 Ge1 Li3 O5'
_chemical_name_structure_type Li3AlGeO5
_exptl_crystal_density_diffrn 3.78
_citation_title

;
Crystal structure of Li3 A B O5 (A= Al, Ga; B= Si, Ge): a novel wurtzite
superstructure
;
loop_
_citation_id
_citation_journal_full
_citation_year
_citation_journal_volume
_citation_page_first
_citation_page_last
_citation_journal_id_ASTM
primary 'Journal of Solid State Chemistry' 1992 98 33 39 JSSCBI
loop_
_citation_author_citation_id
_citation_author_name
primary 'Skakle, J.M.S.'
primary 'Fletcher, J.G.'
primary 'Howie, R.A.'
primary 'Lee, C.-K.'
primary 'West, A.R.'
_cell_length_a 4.9283(2)
_cell_length_b 5.4656(3)
_cell_length_c 15.8617(8)
_cell_angle_alpha 90.
_cell_angle_beta 90.
_cell_angle_gamma 90.
_cell_volume 427.25
_cell_formula_units_Z 4
_space_group_name_H-M_alt 'P 21 n b'
_space_group_IT_number 33
loop_
_space_group_symop_id
_space_group_symop_operation_xyz
1 'x, y+1/2, -z+1/2'
2 'x+1/2, -y+1/2, z+1/2'
3 'x+1/2, -y, -z'
4 'x, y, z'
loop_
_atom_type_symbol
_atom_type_oxidation_number
Ga3+ 3
Ge4+ 4
O2- -2
Li1+ 1
loop_
_atom_site_label
_atom_site_type_symbol
_atom_site_symmetry_multiplicity
_atom_site_Wyckoff_symbol
_atom_site_fract_x
_atom_site_fract_y
_atom_site_fract_z
_atom_site_B_iso_or_equiv
_atom_site_occupancy
Ga1 Ga3+ 4 a 0.50(2) 0.331(2) 0.2009(7) 0.7 1.
Ge1 Ge4+ 4 a 0 0.161(2) 0.0963(6) 0.7 1.
O1 O2- 4 a 0.59(1) 0.66(1) 0.203(3) 1. 1.
O2 O2- 4 a 0.63(1) 0.185(8) 0.102(4) 1. 1.
O3 O2- 4 a 0.11(1) 0.307(8) 0.004(3) 1. 1.
O4 O2- 4 a 0.11(1) 0.852(9) 0.098(4) 1. 1.
O5 O2- 4 a 0.10(1) 0.31(1) 0.182(3) 1. 1.
Li1 Li1+ 4 a 0.99(7) 0.17(2) 0.307(8) 2. 1.
Li2 Li1+ 4 a 0.49(6) 0.33(2) 0.99(1) 2. 1.
Li3 Li1+ 4 a 0.50(9) 0.82(2) 0.095(8) 2. 1.
#End of TTdata_72101-ICSD