
#(C) 2020 by FIZ Karlsruhe - Leibniz Institute for Information Infrastructure.  All rights reserved.
data_72361-ICSD
_database_code_ICSD 72361
_audit_creation_date 1994-01-19
_chemical_name_common 'Dicesium lithium manganate(V)'
_chemical_formula_structural 'Cs2 Li (Mn O4)'
_chemical_formula_sum 'Cs2 Li1 Mn1 O4'
_chemical_name_structure_type Rb2LiAsO4
_exptl_crystal_density_diffrn 4.44
_citation_title
'Das erste "Litho-Manganat(V)" mit Schichtstruktur: Cs2(Li(MnO4))'
loop_
_citation_id
_citation_journal_full
_citation_year
_citation_journal_volume
_citation_page_first
_citation_page_last
_citation_journal_id_ASTM
primary 'Zeitschrift fuer Anorganische und Allgemeine Chemie (1950) (DE)' 1992
618 59 62 ZAACAB
loop_
_citation_author_citation_id
_citation_author_name
primary 'Fischer, D.'
primary 'Hoppe, R.'
_cell_length_a 5.9608(7)
_cell_length_b 12.026(1)
_cell_length_c 8.168(1)
_cell_angle_alpha 90.
_cell_angle_beta 90.
_cell_angle_gamma 90.
_cell_volume 585.52
_cell_formula_units_Z 4
_space_group_name_H-M_alt 'C m c 21'
_space_group_IT_number 36
loop_
_space_group_symop_id
_space_group_symop_operation_xyz
1 'x, -y, z+1/2'
2 '-x, -y, z+1/2'
3 '-x, y, z'
4 'x, y, z'
5 'x+1/2, -y+1/2, z+1/2'
6 '-x+1/2, -y+1/2, z+1/2'
7 '-x+1/2, y+1/2, z'
8 'x+1/2, y+1/2, z'
loop_
_atom_type_symbol
_atom_type_oxidation_number
Mn5+ 5
Cs1+ 1
Li1+ 1
O2- -2
loop_
_atom_site_label
_atom_site_type_symbol
_atom_site_symmetry_multiplicity
_atom_site_Wyckoff_symbol
_atom_site_fract_x
_atom_site_fract_y
_atom_site_fract_z
_atom_site_B_iso_or_equiv
_atom_site_occupancy
Mn1 Mn5+ 4 a 0 0.3037(2) 0.3914(3) . 1.
Cs1 Cs1+ 4 a 0 0.3936(1) 0.95 . 1.
Cs2 Cs1+ 4 a 0 0.9308(1) 0.5954(2) . 1.
Li1 Li1+ 4 a 0 0.7903(25) 0.1774(38) . 1.
O1 O2- 4 a 0 0.1636(8) 0.4368(16) . 1.
O2 O2- 4 a 0 0.3621(9) 0.5813(15) . 1.
O3 O2- 8 b 0.7653(12) 0.3399(7) 0.2878(12) . 1.
loop_
_atom_site_aniso_label
_atom_site_aniso_type_symbol
_atom_site_aniso_U_11
_atom_site_aniso_U_22
_atom_site_aniso_U_33
_atom_site_aniso_U_12
_atom_site_aniso_U_13
_atom_site_aniso_U_23
Mn1 Mn5+ 0.0091(9) 0.0202(11) 0.0125(10) 0 0 -.0019(9)
Cs1 Cs1+ 0.0148(4) 0.0264(5) 0.0197(5) 0 0 -.0023(5)
Cs2 Cs1+ 0.0157(4) 0.0260(5) 0.0211(5) 0 0 0.0029(5)
Li1 Li1+ 0.022(12) 0.032(17) 0.019(13) 0.008(12) 0 0
O1 O2- 0.0282(51) 0.0178(52) 0.0166(56) 0 0 -.0072(54)
O2 O2- 0.0205(45) 0.0283(53) 0.0132(49) 0 0 -.0019(52)
O3 O2- 0.0169(28) 0.0343(47) 0.0230(45) 0.0021(35) -.0061(28) 0.0012(33)
#End of TTdata_72361-ICSD