
#(C) 2020 by FIZ Karlsruhe - Leibniz Institute for Information Infrastructure.  All rights reserved.
data_72423-ICSD
_database_code_ICSD 72423
_audit_creation_date 1994-01-19
_audit_update_record 2006-04-01
_chemical_name_common 'Dilithium tetrafluoroberyllate'
_chemical_formula_structural 'Li2 (Be F4)'
_chemical_formula_sum 'Be1 F4 Li2'
_chemical_name_structure_type Phenakite#Be2SiO4
_exptl_crystal_density_diffrn 2.18
_diffrn_ambient_temperature 81.
_citation_title

;
Estimation of ionicity coefficients in Li2 Be F4 crystals by X-ray diffraction
;
loop_
_citation_id
_citation_journal_full
_citation_year
_citation_journal_volume
_citation_page_first
_citation_page_last
_citation_journal_id_ASTM
primary 'Acta Crystallographica, Section B: Structural Science' 1993 49 223 235
ASBSDK
loop_
_citation_author_citation_id
_citation_author_name
primary 'Seiler, P.'
_cell_length_a 13.281(2)
_cell_length_b 13.281(2)
_cell_length_c 8.888(1)
_cell_angle_alpha 90.
_cell_angle_beta 90.
_cell_angle_gamma 120.
_cell_volume 1357.68
_cell_formula_units_Z 18
_space_group_name_H-M_alt 'R -3 H'
_space_group_IT_number 148
loop_
_space_group_symop_id
_space_group_symop_operation_xyz
1 'x-y, x, -z'
2 'y, -x+y, -z'
3 '-x, -y, -z'
4 '-x+y, -x, z'
5 '-y, x-y, z'
6 'x, y, z'
7 'x-y+2/3, x+1/3, -z+1/3'
8 'y+2/3, -x+y+1/3, -z+1/3'
9 '-x+2/3, -y+1/3, -z+1/3'
10 '-x+y+2/3, -x+1/3, z+1/3'
11 '-y+2/3, x-y+1/3, z+1/3'
12 'x+2/3, y+1/3, z+1/3'
13 'x-y+1/3, x+2/3, -z+2/3'
14 'y+1/3, -x+y+2/3, -z+2/3'
15 '-x+1/3, -y+2/3, -z+2/3'
16 '-x+y+1/3, -x+2/3, z+2/3'
17 '-y+1/3, x-y+2/3, z+2/3'
18 'x+1/3, y+2/3, z+2/3'
loop_
_atom_type_symbol
_atom_type_oxidation_number
F1- -1
Be2+ 2
Li1+ 1
loop_
_atom_site_label
_atom_site_type_symbol
_atom_site_symmetry_multiplicity
_atom_site_Wyckoff_symbol
_atom_site_fract_x
_atom_site_fract_y
_atom_site_fract_z
_atom_site_B_iso_or_equiv
_atom_site_occupancy
F1 F1- 18 f 0.10541(1) 0.88942(1) 0.25185(1) . 1.
F2 F1- 18 f 0.32334(1) 0.00563(1) 0.24887(1) . 1.
F3 F1- 18 f 0.20410(1) 0.07550(1) 0.10393(1) . 1.
F4 F1- 18 f 0.20938(1) 0.08201(1) 0.39283(1) . 1.
Be1 Be2+ 18 f 0.21175(1) 0.01535(1) 0.24949(2) . 1.
Li1 Li1+ 18 f 0.21474(2) 0.02096(3) 0.58176(3) . 1.
Li2 Li1+ 18 f 0.20759(2) 0.01646(2) 0.91504(3) . 1.
loop_
_atom_site_aniso_label
_atom_site_aniso_type_symbol
_atom_site_aniso_U_11
_atom_site_aniso_U_22
_atom_site_aniso_U_33
_atom_site_aniso_U_12
_atom_site_aniso_U_13
_atom_site_aniso_U_23
F1 F1- 0.00581(1) 0.00542(1) 0.00615(1) 0.00116(1) -.00009(1) 0.00025(1)
F2 F1- 0.00518(1) 0.00609(1) 0.00775(2) 0.00306(1) -.00020(1) -.00025(1)
F3 F1- 0.00911(2) 0.00651(1) 0.00466(1) 0.00473(1) -.00007(1) 0.00054(1)
F4 F1- 0.00930(2) 0.00697(1) 0.00475(1) 0.00514(1) -.00025(1) -.00075(1)
Be1 Be2+ 0.00588(3) 0.00542(3) 0.00513(3) 0.00284(3) -.00010(3) -.00056(2)
Li1 Li1+ 0.00914(8) 0.00867(7) 0.00786(8) 0.00448(6) 0.00239(6) -.00010(6)
Li2 Li1+ 0.00889(8) 0.00841(7) 0.00794(8) 0.00438(6) 0.00005(6) 0.00015(6)
#End of TTdata_72423-ICSD