
#(C) 2020 by FIZ Karlsruhe - Leibniz Institute for Information Infrastructure.  All rights reserved.
data_8255-ICSD
_database_code_ICSD 8255
_audit_creation_date 1980-01-01
_audit_update_record 2011-02-01
_chemical_name_common 'Lithium hydrogenselenate(IV)'
_chemical_formula_structural 'Li (H Se O3)'
_chemical_formula_sum 'H1 Li1 O3 Se1'
_chemical_name_structure_type LiHSeO3
_exptl_crystal_density_diffrn 3.03
_citation_title 'Lithium hydrogenselenite'
loop_
_citation_id
_citation_journal_full
_citation_year
_citation_journal_volume
_citation_page_first
_citation_page_last
_citation_journal_id_ASTM
primary

;
Acta Crystallographica, Section B: Structural Crystallography and Crystal
Chemistry
; 1979 35 3011 3013 ACBCAR
loop_
_citation_author_citation_id
_citation_author_name
primary 'Chomnilpan, S.'
primary 'Liminga, R.'
_cell_length_a 5.0579(4)
_cell_length_b 11.1868(6)
_cell_length_c 5.2213(3)
_cell_angle_alpha 90.
_cell_angle_beta 90.
_cell_angle_gamma 90.
_cell_volume 295.43
_cell_formula_units_Z 4
_space_group_name_H-M_alt 'P 21 21 21'
_space_group_IT_number 19
loop_
_space_group_symop_id
_space_group_symop_operation_xyz
1 '-x, y+1/2, -z+1/2'
2 'x+1/2, -y+1/2, -z'
3 '-x+1/2, -y, z+1/2'
4 'x, y, z'
loop_
_atom_type_symbol
_atom_type_oxidation_number
Se4+ 4
O2- -2
Li1+ 1
H1+ 1
loop_
_atom_site_label
_atom_site_type_symbol
_atom_site_symmetry_multiplicity
_atom_site_Wyckoff_symbol
_atom_site_fract_x
_atom_site_fract_y
_atom_site_fract_z
_atom_site_B_iso_or_equiv
_atom_site_occupancy
Se1 Se4+ 4 a 0.13182(4) 0.14709(2) 0.26684(4) . 1.
O1 O2- 4 a 0.01453(32) 0.28331(13) 0.20826(34) . 1.
O2 O2- 4 a -.10507(42) 0.05713(15) 0.16447(33) . 1.
O3 O2- 4 a 0.07139(37) 0.13403(18) 0.60376(32) . 1.
Li1 Li1+ 4 a 0.25770(96) 0.41678(39) 0.1830(9) . 1.
H1 H1+ 4 a 0.210(15) 0.152(4) 0.662(13) 2.8 1.
#End of TTdata_8255-ICSD