
#(C) 2020 by FIZ Karlsruhe - Leibniz Institute for Information Infrastructure.  All rights reserved.
data_9082-ICSD
_database_code_ICSD 9082
_audit_creation_date 1980-01-01
_audit_update_record 2005-10-01
_chemical_name_common 'Pentalithium gallate - alpha, LT'
_chemical_formula_structural 'Li5 (Ga O4)'
_chemical_formula_sum 'Ga1 Li5 O4'
_chemical_name_structure_type Li5GaO4(alpha)
_exptl_crystal_density_diffrn 2.91
_citation_title 'Die Kristallstruktur von alpha-Li5 Ga O4'
loop_
_citation_id
_citation_journal_full
_citation_year
_citation_journal_volume
_citation_page_first
_citation_page_last
_citation_journal_id_ASTM
primary

;
Acta Crystallographica, Section B: Structural Crystallography and Crystal
Chemistry
; 1971 27 616 623 ACBCAR
loop_
_citation_author_citation_id
_citation_author_name
primary 'Stewner, F.'
primary 'Hoppe, R.'
_cell_length_a 9.173
_cell_length_b 9.094
_cell_length_c 9.202(3)
_cell_angle_alpha 90.
_cell_angle_beta 90.
_cell_angle_gamma 90.
_cell_volume 767.62
_cell_formula_units_Z 8
_space_group_name_H-M_alt 'P b c a'
_space_group_IT_number 61
loop_
_space_group_symop_id
_space_group_symop_operation_xyz
1 'x+1/2, y, -z+1/2'
2 'x, -y+1/2, z+1/2'
3 '-x+1/2, y+1/2, z'
4 '-x, -y, -z'
5 '-x+1/2, -y, z+1/2'
6 '-x, y+1/2, -z+1/2'
7 'x+1/2, -y+1/2, -z'
8 'x, y, z'
loop_
_atom_type_symbol
_atom_type_oxidation_number
Ga3+ 3
O2- -2
Li1+ 1
loop_
_atom_site_label
_atom_site_type_symbol
_atom_site_symmetry_multiplicity
_atom_site_Wyckoff_symbol
_atom_site_fract_x
_atom_site_fract_y
_atom_site_fract_z
_atom_site_B_iso_or_equiv
_atom_site_occupancy
Ga1 Ga3+ 8 c 0.1450(3) 0.1171(1) 0.1185(1) 0.08 1.
O1 O2- 8 c 0.250(2) -.012(1) 0.005(1) 0.2 1.
O2 O2- 8 c 0.038(2) 0.002(1) 0.243(1) 0.5 1.
O3 O2- 8 c 0.012(2) 0.242(1) 0.037(1) 0.1 1.
O4 O2- 8 c 0.246(2) 0.236(1) 0.244(1) 1.1 1.
Li1 Li1+ 8 c 0.093(7) 0.153(4) 0.409(4) 3.4 1.
Li2 Li1+ 8 c 0.131(8) 0.085(4) 0.661(4) 3.2 1.
Li3 Li1+ 8 c 0.356(7) 0.093(3) 0.347(3) 2.6 1.
Li4 Li1+ 8 c 0.398(5) 0.164(2) 0.609(3) 1.1 1.
Li5 Li1+ 8 c 0.364(4) 0.124(2) 0.883(2) 0.4 1.
#End of TTdata_9082-ICSD