
#(C) 2020 by FIZ Karlsruhe - Leibniz Institute for Information Infrastructure.  All rights reserved.
data_9430-ICSD
_database_code_ICSD 9430
_audit_creation_date 1980-01-01
_chemical_name_common 'Disodium lithium heptafluorodiberyllate'
_chemical_formula_structural 'Na2 Li Be2 F7'
_chemical_formula_sum 'Be2 F7 Li1 Na2'
_chemical_name_structure_type Melilite#Ca2MgSi2O7
_exptl_crystal_density_diffrn 2.43
_citation_title 'The crystal structure of Na2 Li Be2 F7'
loop_
_citation_id
_citation_journal_full
_citation_year
_citation_journal_volume
_citation_page_first
_citation_page_last
_citation_journal_id_ASTM
primary 'Materials Research Bulletin' 1972 7 641 646 MRBUAC
loop_
_citation_author_citation_id
_citation_author_name
primary 'Brunton, G.'
_cell_length_a 7.593(2)
_cell_length_b 7.593(2)
_cell_length_c 4.841(2)
_cell_angle_alpha 90.
_cell_angle_beta 90.
_cell_angle_gamma 90.
_cell_volume 279.1
_cell_formula_units_Z 2
_space_group_name_H-M_alt 'P -4 21 m'
_space_group_IT_number 113
loop_
_space_group_symop_id
_space_group_symop_operation_xyz
1 '-y+1/2, -x+1/2, z'
2 'y, -x, -z'
3 'y+1/2, x+1/2, z'
4 '-y, x, -z'
5 'x+1/2, -y+1/2, -z'
6 '-x, -y, z'
7 '-x+1/2, y+1/2, -z'
8 'x, y, z'
loop_
_atom_type_symbol
_atom_type_oxidation_number
Na1+ 1
Li1+ 1
Be2+ 2
F1- -1
loop_
_atom_site_label
_atom_site_type_symbol
_atom_site_symmetry_multiplicity
_atom_site_Wyckoff_symbol
_atom_site_fract_x
_atom_site_fract_y
_atom_site_fract_z
_atom_site_B_iso_or_equiv
_atom_site_occupancy
Na1 Na1+ 4 e 0.1669(2) 0.6669(2) 0.4927(4) . 1.
Li1 Li1+ 2 a 0 0 0 . 1.
Be1 Be2+ 4 e 0.3597(5) 0.8597(5) 0.0656(9) . 1.
F1 F1- 2 c 0 0.5 0.8282(7) . 1.
F2 F1- 4 e 0.3586(3) 0.8586(3) 0.7547(4) . 1.
F3 F1- 8 f 0.0828(3) 0.1870(3) 0.8014(4) . 1.
#End of TTdata_9430-ICSD