
#(C) 2020 by FIZ Karlsruhe - Leibniz Institute for Information Infrastructure.  All rights reserved.
data_9434-ICSD
_database_code_ICSD 9434
_audit_creation_date 1980-01-01
_audit_update_record 2010-02-01
_chemical_name_common 'Cesium lithium tetrafluoroberyllate'
_chemical_formula_structural 'Cs Li (Be F4)'
_chemical_formula_sum 'Be1 Cs1 F4 Li1'
_chemical_name_structure_type CsLiBeF4
_exptl_crystal_density_diffrn 3.41
_citation_title
'Tetrahedral-framework structures of (N H4) Li Be F4 and Cs Li Be F4'
loop_
_citation_id
_citation_journal_full
_citation_year
_citation_journal_volume
_citation_page_first
_citation_page_last
_citation_journal_id_ASTM
primary 'Materials Research Bulletin' 1972 7 1209 1218 MRBUAC
loop_
_citation_author_citation_id
_citation_author_name
primary 'Chung, S.J.'
primary 'Hahn, T.'
_cell_length_a 9.306(1)
_cell_length_b 5.383(1)
_cell_length_c 8.738(1)
_cell_angle_alpha 90.
_cell_angle_beta 90.
_cell_angle_gamma 89.75
_cell_volume 437.72
_cell_formula_units_Z 4
_space_group_name_H-M_alt 'P 1 1 21/n'
_space_group_IT_number 14
loop_
_space_group_symop_id
_space_group_symop_operation_xyz
1 'x+1/2, y+1/2, -z+1/2'
2 '-x, -y, -z'
3 '-x+1/2, -y+1/2, z+1/2'
4 'x, y, z'
loop_
_atom_type_symbol
_atom_type_oxidation_number
Cs1+ 1
Li1+ 1
Be2+ 2
F1- -1
loop_
_atom_site_label
_atom_site_type_symbol
_atom_site_symmetry_multiplicity
_atom_site_Wyckoff_symbol
_atom_site_fract_x
_atom_site_fract_y
_atom_site_fract_z
_atom_site_B_iso_or_equiv
_atom_site_occupancy
Cs1 Cs1+ 4 e 0.2237(1) 0.2531(1) 0.5020(1) 1.7 1.
Li1 Li1+ 4 e 0.4173(20) 0.7547(39) 0.3181(18) 1.1 1.
Be1 Be2+ 4 e 0.4170(14) 0.7453(25) 0.7019(13) 1.1 1.
F1 F1- 4 e 0.5830(9) 0.2482(14) 0.4737(6) 2.8 1.
F2 F1- 4 e 0.9601(6) 0.5031(10) 0.7356(7) 2.2 1.
F3 F1- 4 e 0.5278(6) 0.5495(12) 0.7591(8) 2.2 1.
F4 F1- 4 e 0.2667(6) 0.6728(15) 0.7586(8) 2.5 1.
#End of TTdata_9434-ICSD