
#(C) 2019 by FIZ Karlsruhe - Leibniz Institute for Information Infrastructure.  All rights reserved.
data_100219-ICSD
_database_code_ICSD 100219
_audit_creation_date 1980-12-31
_chemical_name_systematic 'Calcium sodium aluminium oxide (8.7/0.6/6/18)'
_chemical_formula_structural 'Ca8.688 Na0.625 (Al6 O18)'
_chemical_formula_sum 'Al6 Ca8.688 Na0.625 O18'
_exptl_crystal_density_diffrn 3.04
_publ_section_title

;
Crystal-chemical characterization of the (Ca O)3 * (Al2 O3) - (Na2 O)
solid-solution series
;
loop_
_citation_id
_citation_journal_full
_citation_year
_citation_journal_volume
_citation_page_first
_citation_page_last
_citation_journal_id_ASTM
primary 'Zeitschrift fuer Kristallographie' 1980 152 259 307 ZEKRDZ
loop_
_publ_author_name
'Takeuchi, Y.'
'Nishi, F.'
'Maki, I.'
_cell_length_a 15.248(2)
_cell_length_b 15.248(2)
_cell_length_c 15.248(2)
_cell_angle_alpha 90.
_cell_angle_beta 90.
_cell_angle_gamma 90.
_cell_volume 3545.18
_cell_formula_units_Z 8
_symmetry_space_group_name_H-M 'P 21 3'
_symmetry_Int_Tables_number 198
_refine_ls_R_factor_all 0.046
loop_
_symmetry_equiv_pos_site_id
_symmetry_equiv_pos_as_xyz
1 '-z+1/2, -x, y+1/2'
2 '-y+1/2, -z, x+1/2'
3 '-x+1/2, -y, z+1/2'
4 '-z, x+1/2, -y+1/2'
5 '-y, z+1/2, -x+1/2'
6 '-x, y+1/2, -z+1/2'
7 'z+1/2, -x+1/2, -y'
8 'y+1/2, -z+1/2, -x'
9 'x+1/2, -y+1/2, -z'
10 'z, x, y'
11 'y, z, x'
12 'x, y, z'
loop_
_atom_type_symbol
_atom_type_oxidation_number
Ca2+ 2
Na1+ 1
Ca2+ 2
Na1+ 1
Ca2+ 2
Na1+ 1
Ca2+ 2
Na1+ 1
Ca2+ 2
Na1+ 1
Al3+ 3
O2- -2
loop_
_atom_site_label
_atom_site_type_symbol
_atom_site_symmetry_multiplicity
_atom_site_Wyckoff_symbol
_atom_site_fract_x
_atom_site_fract_y
_atom_site_fract_z
_atom_site_B_iso_or_equiv
_atom_site_occupancy
_atom_site_attached_hydrogens
Ca1 Ca2+ 4 a 0.0000(2) 0.0000(2) 0.0000(2) 0.98 1. 0
Ca2 Ca2+ 4 a 0.5018(2) 0.5018(2) 0.5018(2) 0.59 1. 0
Ca3 Ca2+ 4 a 0.2630(1) 0.2630(1) 0.2630(1) 0.74(2) 0.91(2) 0
Na1 Na1+ 4 a 0.2630(1) 0.2630(1) 0.2630(1) 0.74(2) 0.09(2) 0
Ca4 Ca2+ 4 a -.2562(1) -.2562(1) -.2562(1) 0.69(2) 0.73(2) 0
Na2 Na1+ 4 a -.2562(1) -.2562(1) -.2562(1) 0.69(2) 0.27(2) 0
Ca5 Ca2+ 4 a 0.3814(2) 0.3814(2) 0.3814(2) 1.13(2) 0.97(2) 0
Na3 Na1+ 4 a 0.3814(2) 0.3814(2) 0.3814(2) 1.13(2) 0.03(2) 0
Ca6 Ca2+ 4 a -.3763(2) -.3763(2) -.3763(2) 0.89(2) 0.76(2) 0
Na4 Na1+ 4 a -.3763(2) -.3763(2) -.3763(2) 0.89(2) 0.24(2) 0
Ca7 Ca2+ 12 b 0.3720(6) 0.1400(5) 0.1361(6) 2.17(2) 0.5 0
Ca8 Ca2+ 12 b 0.3678(3) 0.1262(4) 0.1345(3) 0.77(2) 0.5 0
Ca9 Ca2+ 12 b 0.6232(4) 0.1376(3) 0.1180(3) 0.78(2) 0.5 0
Ca10 Ca2+ 12 b 0.6431(4) 0.1363(3) 0.1287(3) 0.99(2) 0.5 0
Ca11 Ca2+ 12 b 0.3821(2) 0.3863(2) 0.1213(2) 0.76(2) 1. 0
Ca12 Ca2+ 12 b -.3800(1) -.3881(2) -.1201(2) 0.62(2) 1. 0
Na5 Na1+ 4 a 0.121(1) 0.121(1) 0.121(1) 1.89(2) 0.31 0
Na6 Na1+ 4 a 0.875(2) 0.875(2) 0.875(2) 7.56(2) 0.31 0
Al1 Al3+ 12 b 0.2539(2) 0.0134(2) 0.0167(2) 0.46(2) 1. 0
Al2 Al3+ 12 b -.2534(2) -.0129(2) -.0232(2) 0.46(2) 1. 0
Al3 Al3+ 12 b 0.2434(3) 0.2371(2) 0.0053(3) 0.54(2) 1. 0
Al4 Al3+ 12 b -.2445(2) -.2377(2) -.0063(3) 0.43(2) 1. 0
O1 O2- 12 b 0.2630(5) 0.1264(5) 0.0029(6) 1.86(2) 1. 0
O2 O2- 12 b -.2658(7) -.1258(6) -.0230(7) 2.91(2) 1. 0
O3 O2- 12 b 0.4759(4) 0.1327(4) 0.2475(4) 0.89(2) 1. 0
O4 O2- 12 b -.4952(5) -.1310(5) -.2368(5) 1.54(2) 1. 0
O5 O2- 12 b 0.2729(5) 0.2765(5) 0.1082(5) 1.38(2) 1. 0
O6 O2- 12 b -.2629(6) -.2906(5) -.1058(5) 1.48(2) 1. 0
O7 O2- 12 b 0.2406(5) 0.4114(5) 0.3040(5) 1.26(2) 1. 0
O8 O2- 12 b -.2281(5) -.4062(4) -.2878(5) 1.23(2) 1. 0
O9 O2- 12 b 0.3502(5) -.0321(5) -.0274(6) 1.09(2) 1. 0
O10 O2- 12 b -.3505(6) 0.0233(6) 0.0234(6) 1.57(2) 1. 0
O11 O2- 12 b 0.1497(5) -.0173(6) -.0171(6) 1.02(2) 1. 0
O12 O2- 12 b -.1515(5) 0.0150(5) 0.0163(5) 0.59(2) 1. 0
#End of TTdata_100219-ICSD