
#(C) 2019 by FIZ Karlsruhe - Leibniz Institute for Information Infrastructure.  All rights reserved.
data_100237-ICSD
_database_code_ICSD 100237
_audit_creation_date 1980-12-31
_audit_update_record 2015-02-01
_chemical_name_systematic 'Calcium sodium tecto-alumosilicate *'
_chemical_formula_structural 'Ca0.68 Na0.30 (Al1.66 Si2.34 O8)'
_chemical_formula_sum 'Al1.66 Ca0.68 Na0.3 O8 Si2.34'
_chemical_name_structure_type Feldspar#-(TC)-Albite-NaAlSi3O8
_chemical_name_mineral Labradorite
_exptl_crystal_density_diffrn 2.73
_publ_section_title 'The average structure of An 62-66 labradorite'
loop_
_citation_id
_citation_journal_full
_citation_year
_citation_journal_volume
_citation_page_first
_citation_page_last
_citation_journal_id_ASTM
primary 'American Mineralogist' 1980 65 81 95 AMMIAY
loop_
_publ_author_name
'Wenk, H.R.'
'Joswig, W.'
'Tagai, T.'
'Korekawa, M.'
'Smith, B.K.'
_cell_length_a 8.152(4)
_cell_length_b 12.834(6)
_cell_length_c 7.079(4)
_cell_angle_alpha 93.49(2)
_cell_angle_beta 116.13(2)
_cell_angle_gamma 90.40(2)
_cell_volume 663.23
_cell_formula_units_Z 4
_symmetry_space_group_name_H-M 'C -1'
_symmetry_Int_Tables_number 2
_refine_ls_R_factor_all 0.05
loop_
_symmetry_equiv_pos_site_id
_symmetry_equiv_pos_as_xyz
1 '-x, -y, -z'
2 'x, y, z'
3 '-x+1/2, -y+1/2, -z'
4 'x+1/2, y+1/2, z'
loop_
_atom_type_symbol
_atom_type_oxidation_number
Ca2+ 2
Na1+ 1
Ca2+ 2
Na1+ 1
Si4+ 4
Al3+ 3
Si4+ 4
Al3+ 3
Si4+ 4
Al3+ 3
Si4+ 4
Al3+ 3
O2- -2
loop_
_atom_site_label
_atom_site_type_symbol
_atom_site_symmetry_multiplicity
_atom_site_Wyckoff_symbol
_atom_site_fract_x
_atom_site_fract_y
_atom_site_fract_z
_atom_site_B_iso_or_equiv
_atom_site_occupancy
_atom_site_attached_hydrogens
Ca1 Ca2+ 4 i 0.2665(4) 0.9835(6) 0.1692(8) . 0.31 0
Na1 Na1+ 4 i 0.2665(4) 0.9835(6) 0.1692(8) . 0.18 0
Ca2 Ca2+ 4 i 0.2701(3) 0.0304(2) 0.0956(5) . 0.37 0
Na2 Na1+ 4 i 0.2701(3) 0.0304(2) 0.0956(5) . 0.12 0
Si1 Si4+ 4 i 0.00546(14) 0.16279(8) 0.21484(15) . 0.585 0
Al1 Al3+ 4 i 0.00546(14) 0.16279(8) 0.21484(15) . 0.415 0
Si2 Si4+ 4 i 0.00267(14) 0.81695(8) 0.23107(15) . 0.585 0
Al2 Al3+ 4 i 0.00267(14) 0.81695(8) 0.23107(15) . 0.415 0
Si3 Si4+ 4 i 0.68370(13) 0.10883(8) 0.31609(15) . 0.585 0
Al3 Al3+ 4 i 0.68370(13) 0.10883(8) 0.31609(15) . 0.415 0
Si4 Si4+ 4 i 0.68035(14) 0.87876(8) 0.35693(15) . 0.585 0
Al4 Al3+ 4 i 0.68035(14) 0.87876(8) 0.35693(15) . 0.415 0
O1 O2- 4 i 0.0012(4) 0.1274(2) 0.9783(4) . 1. 0
O2 O2- 4 i 0.5777(3) 0.9918(2) 0.2765(2) . 1. 0
O3 O2- 4 i 0.8100(4) 0.1031(2) 0.1851(4) . 1. 0
O4 O2- 4 i 0.8140(4) 0.8539(2) 0.2410(5) . 1. 0
O5 O2- 4 i 0.0141(4) 0.2893(2) 0.2821(4) . 1. 0
O6 O2- 4 i 0.0110(4) 0.6864(2) 0.2108(4) . 1. 0
O7 O2- 4 i 0.1967(4) 0.1064(1) 0.3798(4) . 1. 0
O8 O2- 4 i 0.1903(4) 0.8662(2) 0.4315(4) . 1. 0
loop_
_atom_site_aniso_label
_atom_site_aniso_type_symbol
_atom_site_aniso_beta_11
_atom_site_aniso_beta_22
_atom_site_aniso_beta_33
_atom_site_aniso_beta_12
_atom_site_aniso_beta_13
_atom_site_aniso_beta_23
Ca1 Ca2+ 0.0043(4) 0.0079(5) 0.0113(10) -.0024(3) 0.0045(5) -.0062(6)
Na1 Na1+ 0.0043(4) 0.0079(5) 0.0113(10) -.0024(3) 0.0045(5) -.0062(6)
Ca2 Ca2+ 0.0035(3) 0.00267(15) 0.0070(5) 0.00104(14) 0.0013(3) -.0011(2)
Na2 Na1+ 0.0035(3) 0.00267(15) 0.0070(5) 0.00104(14) 0.0013(3) -.0011(2)
Si1 Si4+ 0.0052(3) 0.00249(9) 0.0040(3) -.00039(9) 0.00190(19) 0.00065(9)
Al1 Al3+ 0.0052(3) 0.00249(9) 0.0040(3) -.00039(9) 0.00190(19) 0.00065(9)
Si2 Si4+ 0.0052(3) 0.00236(9) 0.0035(3) 0.00126(8) 0.00184(18) 0.00032(9)
Al2 Al3+ 0.0052(3) 0.00236(9) 0.0035(3) 0.00126(8) 0.00184(18) 0.00032(9)
Si3 Si4+ 0.0024(3) 0.00123(10) 0.0024(4) 0.00055(8) 0.0007(2) -.00010(9)
Al3 Al3+ 0.0024(3) 0.00123(10) 0.0024(4) 0.00055(8) 0.0007(2) -.00010(9)
Si4 Si4+ 0.0039(3) 0.00191(9) 0.0046(4) 0.00034(8) 0.00136(19) 0.00095(10)
Al4 Al3+ 0.0039(3) 0.00191(9) 0.0046(4) 0.00034(8) 0.00136(19) 0.00095(10)
O1 O2- 0.0131(6) 0.004008(19) 0.0050(6) 0.0007(3) 0.0056(5) 0.0005(3)
O2 O2- 0.0068(5) 0.00275(16) 0.0063(6) 0.0002(2) 0.0025(4) 0.0006(2)
O3 O2- 0.0089(5) 0.00360(19) 0.0143(8) -.0007(3) 0.0058(5) -.0002(3)
O4 O2- 0.0087(6) 0.0039(2) 0.0234(10) 0.0008(3) 0.0065(6) -.0010(4)
O5 O2- 0.0076(5) 0.0045(2) 0.0102(7) -.0004(3) 0.0034(5) 0.0016(3)
O6 O2- 0.0084(5) 0.00403(19) 0.0070(6) 0.0019(2) 0.0004(5) -.0014(3)
O7 O2- 0.0089(5) 0.00328(19) 0.0060(6) 0.0000(2) 0.0004(4) 0.0001(3)
O8 O2- 0.0095(5) 0.0041(2) 0.0090(7) 0.0015(3) -.0004(5) -.0007(3)
#End of TTdata_100237-ICSD