
#(C) 2019 by FIZ Karlsruhe - Leibniz Institute for Information Infrastructure.  All rights reserved.
data_100222-ICSD
_database_code_ICSD 100222
_audit_creation_date 1980-12-31
_audit_update_record 2012-08-01
_chemical_name_systematic 'Calcium sodium aluminium silicon oxide *'
_chemical_formula_structural 'Ca7.902 Na1.73 (Al5.5 Si0.5 O18)'
_chemical_formula_sum 'Al5.5 Ca7.902 Na1.73 O18 Si0.5'
_chemical_name_structure_type Ca8+xNa1.5Al6O18
_exptl_crystal_density_diffrn 3.01
_publ_section_title

;
Crystal-chemical characterization of the (Ca O)3 * (Al2 O3) - (Na2 O)
solid-solution series
;
loop_
_citation_id
_citation_journal_full
_citation_year
_citation_journal_volume
_citation_page_first
_citation_page_last
_citation_journal_id_ASTM
primary 'Zeitschrift fuer Kristallographie' 1980 152 259 307 ZEKRDZ
loop_
_publ_author_name
'Takeuchi, Y.'
'Nishi, F.'
'Maki, I.'
_cell_length_a 10.844(2)
_cell_length_b 10.855(2)
_cell_length_c 15.122(4)
_cell_angle_alpha 90.
_cell_angle_beta 90.
_cell_angle_gamma 90.38(1)
_cell_volume 1780.
_cell_formula_units_Z 4
_symmetry_space_group_name_H-M 'P 1 1 21/a'
_symmetry_Int_Tables_number 14
_refine_ls_R_factor_all 0.046
loop_
_symmetry_equiv_pos_site_id
_symmetry_equiv_pos_as_xyz
1 'x+1/2, y, -z+1/2'
2 '-x, -y, -z'
3 '-x+1/2, -y, z+1/2'
4 'x, y, z'
loop_
_atom_type_symbol
_atom_type_oxidation_number
Ca2+ 2
Na1+ 1
Ca2+ 2
Na1+ 1
Al3+ 3
Si4+ 4
Al3+ 3
Si4+ 4
Al3+ 3
Si4+ 4
Al3+ 3
Si4+ 4
Al3+ 3
Si4+ 4
Al3+ 3
Si4+ 4
O2- -2
loop_
_atom_site_label
_atom_site_type_symbol
_atom_site_symmetry_multiplicity
_atom_site_Wyckoff_symbol
_atom_site_fract_x
_atom_site_fract_y
_atom_site_fract_z
_atom_site_B_iso_or_equiv
_atom_site_occupancy
_atom_site_attached_hydrogens
Ca1 Ca2+ 4 e 0.0005(4) 0.0040(4) 0.5208(2) 1.12(1) 0.5 0
Ca2 Ca2+ 4 e 0.0061(2) 0.0187(2) 0.2377(1) 0.73(1) 1. 0
Ca3 Ca2+ 4 e 0.0114(1) 0.2667(1) 0.1318(1) 0.75(1) 1. 0
Ca4 Ca2+ 4 e 0.2648(2) 0.2703(2) 0.2515(1) 1.08(1) 1. 0
Ca5 Ca2+ 4 e 0.2569(2) 0.2472(2) 0.4984(2) 0.99(6) 0.902(6) 0
Na1 Na1+ 4 e 0.2569(2) 0.2472(2) 0.4984(2) 0.99(6) 0.098(6) 0
Ca6 Ca2+ 4 e 0.5026(4) 0.4994(5) 0.4831(2) 1.04(6) 0.5 0
Ca7 Ca2+ 4 e 0.4899(2) 0.4857(2) -.2405(1) 0.74(6) 1. 0
Ca8 Ca2+ 4 e 0.5003(1) 0.2349(2) -.1333(1) 0.80(6) 1. 0
Ca9 Ca2+ 4 e 0.7428(2) 0.2317(2) -.2529(1) 0.82(6) 1. 0
Na2 Na1+ 4 e 0.7588(4) 0.2507(4) -.4995(3) 1.34(6) 1. 0
Na3 Na1+ 4 e -.003(2) -.017(1) -.006(1) 0.96(6) 0.316 0
Na4 Na1+ 4 e 0.502(2) 0.520(2) 0.0135(8) 4.13(6) 0.316 0
Al1 Al3+ 4 e 0.0006(2) -.2157(2) 0.1165(2) 0.58(6) 0.88 0
Si1 Si4+ 4 e 0.0006(2) -.2157(2) 0.1165(2) 0.58(6) 0.12 0
Al2 Al3+ 4 e 0.2429(2) -.0057(3) 0.1148(2) 0.79(6) 0.91 0
Si2 Si4+ 4 e 0.2429(2) -.0057(3) 0.1148(2) 0.79(6) 0.09 0
Al3 Al3+ 4 e 0.2360(2) 0.0063(2) -.1070(2) 0.52(6) 0.91 0
Si3 Si4+ 4 e 0.2360(2) 0.0063(2) -.1070(2) 0.52(6) 0.09 0
Al4 Al3+ 4 e 0.4949(2) 0.7145(2) -.1168(2) 0.58(6) 0.98 0
Si4 Si4+ 4 e 0.4949(2) 0.7145(2) -.1168(2) 0.58(6) 0.02 0
Al5 Al3+ 4 e 0.7336(2) 0.5038(2) -.1097(2) 0.59(6) 0.91 0
Si5 Si4+ 4 e 0.7336(2) 0.5038(2) -.1097(2) 0.59(6) 0.09 0
Al6 Al3+ 4 e 0.7445(2) 0.4952(2) 0.1113(2) 0.64(6) 0.91 0
Si6 Si4+ 4 e 0.7445(2) 0.4952(2) 0.1113(2) 0.64(6) 0.09 0
O1 O2- 4 e -.1270(6) -.1244(6) 0.1097(4) 1.68(6) 1. 0
O2 O2- 4 e 0.1249(6) -.1146(6) 0.1302(5) 1.87(6) 1. 0
O3 O2- 4 e 0.2866(5) -.0183(5) 0.0026(4) 1.22(6) 1. 0
O4 O2- 4 e -.0188(7) -.2878(7) 0.2176(5) 1.95(6) 1. 0
O5 O2- 4 e 0.0253(6) -.2946(6) 0.0184(4) 1.39(6) 1. 0
O6 O2- 4 e 0.3660(5) -.0690(6) 0.1686(4) 1.15(6) 1. 0
O7 O2- 4 e 0.1801(5) 0.1362(5) 0.1428(4) 1.32(6) 1. 0
O8 O2- 4 e 0.1634(5) -.1325(5) -.1371(4) 1.17(6) 1. 0
O9 O2- 4 e 0.3613(6) 0.0702(6) -.1609(4) 1.34(6) 1. 0
O10 O2- 4 e 0.3531(5) 0.6346(5) -.1163(4) 1.09(6) 1. 0
O11 O2- 4 e 0.6062(6) 0.5966(6) -.1255(4) 1.60(6) 1. 0
O12 O2- 4 e 0.7823(5) 0.5173(5) 0.0011(4) 1.22(6) 1. 0
O13 O2- 4 e 0.5059(7) 0.7856(6) -.2174(4) 1.75(6) 1. 0
O14 O2- 4 e 0.5023(6) 0.7929(5) -.0173(4) 1.34(6) 1. 0
O15 O2- 4 e 0.8510(6) 0.5737(5) -.1709(4) 1.17(6) 1. 0
O16 O2- 4 e 0.6863(5) 0.3536(5) -.1249(4) 1.07(6) 1. 0
O17 O2- 4 e 0.6665(5) 0.6244(5) 0.1475(4) 1.25(6) 1. 0
O18 O2- 4 e 0.8779(5) 0.4337(6) 0.1596(4) 1.27(6) 1. 0
#End of TTdata_100222-ICSD