
#(C) 2019 by FIZ Karlsruhe - Leibniz Institute for Information Infrastructure.  All rights reserved.
data_100338-ICSD
_database_code_ICSD 100338
_audit_creation_date 1980-12-31
_audit_update_record 1999-06-02
_chemical_name_systematic 'Sodium alumosilicate *'
_chemical_formula_structural 'Na0.986 Al1.005 Si2.995 O8'
_chemical_formula_sum 'Al1.005 Na0.986 O8 Si2.995'
_chemical_name_structure_type Feldspar#-(TC)-Albite-NaAlSi3O8
_chemical_name_mineral 'Albite low'
_exptl_crystal_density_diffrn 2.62
_publ_section_title 'Low albite: an X-Ray and neutron diffraction study'
loop_
_citation_id
_citation_journal_full
_citation_year
_citation_journal_volume
_citation_page_first
_citation_page_last
_citation_journal_id_ASTM
primary 'American Mineralogist' 1980 65 986 995 AMMIAY
loop_
_publ_author_name
'Harlow, G.E.'
'Brown, G.E.jr.'
_cell_length_a 8.141(2)
_cell_length_b 12.785(2)
_cell_length_c 7.158(2)
_cell_angle_alpha 94.19(2)
_cell_angle_beta 116.61(2)
_cell_angle_gamma 87.68(2)
_cell_volume 664.3
_cell_formula_units_Z 4
_symmetry_space_group_name_H-M 'C -1'
_symmetry_Int_Tables_number 2
_refine_ls_R_factor_all 0.024
loop_
_symmetry_equiv_pos_site_id
_symmetry_equiv_pos_as_xyz
1 '-x, -y, -z'
2 'x, y, z'
3 '-x+1/2, -y+1/2, -z'
4 'x+1/2, y+1/2, z'
loop_
_atom_type_symbol
_atom_type_oxidation_number
Al3+ 3
Si4+ 4
Al3+ 3
Si4+ 4
Na1+ 1
O2- -2
loop_
_atom_site_label
_atom_site_type_symbol
_atom_site_symmetry_multiplicity
_atom_site_Wyckoff_symbol
_atom_site_fract_x
_atom_site_fract_y
_atom_site_fract_z
_atom_site_B_iso_or_equiv
_atom_site_occupancy
_atom_site_attached_hydrogens
Al1 Al3+ 4 i 0.0090(1) 0.16862(6) 0.20806(11) . 0.97(2) 0
Si1 Si4+ 4 i 0.0090(1) 0.16862(6) 0.20806(11) . 0.03(2) 0
Si2 Si4+ 4 i 0.00386(8) 0.82062(5) 0.23728(9) . 0.965 0
Al2 Al3+ 4 i 0.00386(8) 0.82062(5) 0.23728(9) . 0.035 0
Si3 Si4+ 4 i 0.69209(80) 0.11036(5) 0.31508(9) . 1. 0
Si4 Si4+ 4 i 0.68152(8) 0.88195(5) 0.36078(9) . 1. 0
Na1 Na1+ 4 i 0.26849(13) 0.9887(1) 0.14672(18) . 0.986 0
O1 O2- 4 i 0.00490(7) 0.13115(4) 0.96638(7) . 1. 0
O2 O2- 4 i 0.59229(6) 0.99755(4) 0.28053(7) . 1. 0
O3 O2- 4 i 0.81231(7) 0.11013(4) 0.19056(8) . 1. 0
O4 O2- 4 i 0.82027(7) 0.85114(4) 0.25876(9) . 1. 0
O5 O2- 4 i 0.01342(6) 0.30252(4) 0.27026(8) . 1. 0
O6 O2- 4 i 0.02398(7) 0.69389(4) 0.22991(8) . 1. 0
O7 O2- 4 i 0.20770(7) 0.10901(4) 0.38910(7) . 1. 0
O8 O2- 4 i 0.18364(7) 0.86819(4) 0.43609(8) . 1. 0
loop_
_atom_site_aniso_label
_atom_site_aniso_type_symbol
_atom_site_aniso_beta_11
_atom_site_aniso_beta_22
_atom_site_aniso_beta_33
_atom_site_aniso_beta_12
_atom_site_aniso_beta_13
_atom_site_aniso_beta_23
Al1 Al3+ 0.00326(12) 0.00098(4) 0.00314(15) -.00029(5) 0.00163(11) 0.00010(6)
Si1 Si4+ 0.00326(12) 0.00098(4) 0.00314(15) -.00029(5) 0.00163(11) 0.00010(6)
Si2 Si4+ 0.00266(9) 0.00087(3) 0.00278(12) 0.00015(4) 0.00147(9) 0.00014(5)
Al2 Al3+ 0.00266(9) 0.00087(3) 0.00278(12) 0.00015(4) 0.00147(9) 0.00014(5)
Si3 Si4+ 0.00259(10) 0.00073(3) 0.00381(13) -.00012(4) 0.00143(9) 0.00019(5)
Si4 Si4+ 0.00228(9) 0.00079(3) 0.00380(13) 0.00005(4) 0.00138(9) 0.00025(5)
Na1 Na1+ 0.00580(15) 0.00591(8) 0.01548(25) -.00100(9) 0.00400(15) -.00515(1)
O1 O2- 0.00641(8) 0.00159(3) 0.00368(10) -.00011(4) 0.00304(7) 0.00037(4)
O2 O2- 0.00311(7) 0.00078(2) 0.00581(10) -.00005(3) 0.00165(7) 0.00043(4)
O3 O2- 0.00461(8) 0.00174(3) 0.00805(11) -.00092(4) 0.00419(8) -.00029(4)
O4 O2- 0.00542(8) 0.00233(3) 0.01076(12) 0.00089(4) 0.00582(8) 0.00040(5)
O5 O2- 0.00404(8) 0.00098(2) 0.00754(11) -.00057(3) 0.00237(8) -.00020(4)
O6 O2- 0.00421(8) 0.00092(2) 0.00701(10) 0.00039(3) 0.00167(7) 0.00033(4)
O7 O2- 0.00476(8) 0.00175(3) 0.00409(10) 0.00039(4) 0.00087(7) 0.00044(4)
O8 O2- 0.00542(8) 0.00180(3) 0.00431(10) -.00055(4) 0.00012(7) -.00015(4)
#End of TTdata_100338-ICSD