
#(C) 2019 by FIZ Karlsruhe - Leibniz Institute for Information Infrastructure.  All rights reserved.
data_100482-ICSD
_database_code_ICSD 100482
_audit_creation_date 1980-12-31
_audit_update_record 1998-06-26
_chemical_name_systematic 'Disodium magnesium carbonate'
_chemical_formula_structural 'Na2 Mg (C O3)2'
_chemical_formula_sum 'C2 Mg1 Na2 O6'
_chemical_name_structure_type Na2Mg(CO3)2
_chemical_name_mineral Eitelite
_exptl_crystal_density_diffrn 2.72
_publ_section_title

;
Crystal structure refinements of Buetschliite and Eitelite: a contribution to
the stereochemistry of trigonal carbonate minerals
;
loop_
_citation_id
_citation_journal_full
_citation_year
_citation_journal_volume
_citation_page_first
_citation_page_last
_citation_journal_id_ASTM
primary 'Neues Jahrbuch fuer Mineralogie, Monatshefte' 1980 1980 230 236 NJMMAW
loop_
_publ_author_name
'Knobloch, D.'
'Pertlik, F.'
'Zemann, J.'
_cell_length_a 4.946(2)
_cell_length_b 4.946(2)
_cell_length_c 16.422(4)
_cell_angle_alpha 90.
_cell_angle_beta 90.
_cell_angle_gamma 120.
_cell_volume 347.91
_cell_formula_units_Z 3
_symmetry_space_group_name_H-M 'R -3 H'
_symmetry_Int_Tables_number 148
_refine_ls_R_factor_all 0.045
loop_
_symmetry_equiv_pos_site_id
_symmetry_equiv_pos_as_xyz
1 'x-y, x, -z'
2 'y, -x+y, -z'
3 '-x, -y, -z'
4 '-x+y, -x, z'
5 '-y, x-y, z'
6 'x, y, z'
7 'x-y+2/3, x+1/3, -z+1/3'
8 'y+2/3, -x+y+1/3, -z+1/3'
9 '-x+2/3, -y+1/3, -z+1/3'
10 '-x+y+2/3, -x+1/3, z+1/3'
11 '-y+2/3, x-y+1/3, z+1/3'
12 'x+2/3, y+1/3, z+1/3'
13 'x-y+1/3, x+2/3, -z+2/3'
14 'y+1/3, -x+y+2/3, -z+2/3'
15 '-x+1/3, -y+2/3, -z+2/3'
16 '-x+y+1/3, -x+2/3, z+2/3'
17 '-y+1/3, x-y+2/3, z+2/3'
18 'x+1/3, y+2/3, z+2/3'
loop_
_atom_type_symbol
_atom_type_oxidation_number
Na1+ 1
Mg2+ 2
C4+ 4
O2- -2
loop_
_atom_site_label
_atom_site_type_symbol
_atom_site_symmetry_multiplicity
_atom_site_Wyckoff_symbol
_atom_site_fract_x
_atom_site_fract_y
_atom_site_fract_z
_atom_site_B_iso_or_equiv
_atom_site_occupancy
_atom_site_attached_hydrogens
Na1 Na1+ 6 c 0 0 0.20144(10) . 1. 0
Mg1 Mg2+ 3 a 0 0 0 . 1. 0
C1 C4+ 6 c 0 0 0.59049(19) . 1. 0
O1 O2- 18 f 0.21004(35) 0.91957(35) 0.58941(10) . 1. 0
loop_
_atom_site_aniso_label
_atom_site_aniso_type_symbol
_atom_site_aniso_beta_11
_atom_site_aniso_beta_22
_atom_site_aniso_beta_33
_atom_site_aniso_beta_12
_atom_site_aniso_beta_13
_atom_site_aniso_beta_23
Na1 Na1+ 0.0168(6) 0.0168(6) 0.0019(1) 0.0084(3) 0 0
Mg1 Mg2+ 0.0098(6) 0.0098(6) 0.0006(1) 0.0049(3) 0 0
C1 C4+ 0.0091(10) 0.0091(10) 0.0005(1) 0.0046(5) 0 0
O1 O2- 0.0145(8) 0.0187(8) 0.0013(1) 0.0108(6) 0.0007(2) 0.0012(2)
#End of TTdata_100482-ICSD