
#(C) 2019 by FIZ Karlsruhe - Leibniz Institute for Information Infrastructure.  All rights reserved.
data_100408-ICSD
_database_code_ICSD 100408
_audit_creation_date 1980-01-01
_audit_update_record 1999-01-19
_chemical_name_systematic 'Disodium magnesium aluminium fluoride'
_chemical_formula_structural 'Na2 Mg Al F7'
_chemical_formula_sum 'Al1 F7 Mg1 Na2'
_chemical_name_structure_type Ca2Sb2O7
_chemical_name_mineral Weberite
_exptl_crystal_density_diffrn 2.97
_publ_section_title 'Re-examination of the crystal structure of weberite'
loop_
_citation_id
_citation_journal_full
_citation_year
_citation_journal_volume
_citation_page_first
_citation_page_last
_citation_journal_id_ASTM
primary 'Tschermaks Mineralogische und Petrographische Mitteilungen' 1978 25 57
62 MPMTAG
loop_
_publ_author_name
'Giuseppetti, G.'
'Tadini, C.'
_cell_length_a 7.060(1)
_cell_length_b 10.000(1)
_cell_length_c 7.303(1)
_cell_angle_alpha 90.
_cell_angle_beta 90.
_cell_angle_gamma 90.
_cell_volume 515.59
_cell_formula_units_Z 4
_symmetry_space_group_name_H-M 'I m m a'
_symmetry_Int_Tables_number 74
_refine_ls_R_factor_all 0.036
loop_
_symmetry_equiv_pos_site_id
_symmetry_equiv_pos_as_xyz
1 '-x, y+1/2, -z'
2 '-x, -y+1/2, z'
3 '-x, y, z'
4 '-x, -y, -z'
5 'x, -y+1/2, z'
6 'x, y+1/2, -z'
7 'x, -y, -z'
8 'x, y, z'
9 '-x+1/2, y, -z+1/2'
10 '-x+1/2, -y, z+1/2'
11 '-x+1/2, y+1/2, z+1/2'
12 '-x+1/2, -y+1/2, -z+1/2'
13 'x+1/2, -y, z+1/2'
14 'x+1/2, y, -z+1/2'
15 'x+1/2, -y+1/2, -z+1/2'
16 'x+1/2, y+1/2, z+1/2'
loop_
_atom_type_symbol
_atom_type_oxidation_number
Na1+ 1
Mg2+ 2
Al3+ 3
F1- -1
loop_
_atom_site_label
_atom_site_type_symbol
_atom_site_symmetry_multiplicity
_atom_site_Wyckoff_symbol
_atom_site_fract_x
_atom_site_fract_y
_atom_site_fract_z
_atom_site_B_iso_or_equiv
_atom_site_occupancy
_atom_site_attached_hydrogens
Na1 Na1+ 4 a 0 0 0 . 1. 0
Na2 Na1+ 4 d 0.25 0.25 0.75 . 1. 0
Mg1 Mg2+ 4 c 0.25 0.25 0.25 . 1. 0
Al1 Al3+ 4 b 0 0 0.5 . 1. 0
F1 F1- 4 e 0 0.25 0.1362(3) . 1. 0
F2 F1- 8 h 0 0.4145(2) 0.7205(2) . 1. 0
F3 F1- 16 j 0.1836(2) 0.3873(1) 0.4301(2) . 1. 0
loop_
_atom_site_aniso_label
_atom_site_aniso_type_symbol
_atom_site_aniso_beta_11
_atom_site_aniso_beta_22
_atom_site_aniso_beta_33
_atom_site_aniso_beta_12
_atom_site_aniso_beta_13
_atom_site_aniso_beta_23
Na1 Na1+ 0.0077(4) 0.0069(2) 0.0041(3) 0 0 0.0027(2)
Na2 Na1+ 0.0055(4) 0.0036(2) 0.0197(6) 0 -.0018(4) 0
Mg1 Mg2+ 0.0017(2) 0.0013(1) 0.0023(2) 0 0.0004(2) 0
Al1 Al3+ 0.0015(2) 0.0009(1) 0.0013(2) 0 0 0.0005(1)
F1 F1- 0.0011(4) 0.0033(2) 0.0038(4) 0 0 0
F2 F1- 0.0059(3) 0.0026(2) 0.0022(3) 0 0 0.0002(2)
F3 F1- 0.0034(2) 0.0022(1) 0.0050(2) 0.0008(1) 0.0005(2) -.0016(1)
#End of TTdata_100408-ICSD