
#(C) 2019 by FIZ Karlsruhe - Leibniz Institute for Information Infrastructure.  All rights reserved.
data_100500-ICSD
_database_code_ICSD 100500
_audit_creation_date 1980-01-01
_audit_update_record 1999-06-02
_chemical_name_systematic 'Sodium tecto-alumotrisilicate'
_chemical_formula_structural 'Na Al Si3 O8'
_chemical_formula_sum 'Al1 Na1 O8 Si3'
_chemical_name_structure_type Feldspar#-(TC)-Albite-NaAlSi3O8
_chemical_name_mineral 'Albite high'
_exptl_crystal_density_diffrn 2.55
_cell_measurement_temperature 1023.
_publ_section_title

;
A high temperature structural study of high albite, monalbite, and the
analbite-monalbite phase transition
;
loop_
_citation_id
_citation_journal_full
_citation_year
_citation_journal_volume
_citation_page_first
_citation_page_last
_citation_journal_id_ASTM
primary 'American Mineralogist' 1979 64 409 423 AMMIAY
loop_
_publ_author_name
'Winter, J.K.'
'Okamura, F.P.'
'Ghose, S.'
_cell_length_a 8.234(1)
_cell_length_b 12.955(4)
_cell_length_c 7.143(2)
_cell_angle_alpha 92.00(2)
_cell_angle_beta 116.17(2)
_cell_angle_gamma 90.06(2)
_cell_volume 683.31
_cell_formula_units_Z 4
_symmetry_space_group_name_H-M 'C -1'
_symmetry_Int_Tables_number 2
_refine_ls_R_factor_all 0.042
loop_
_symmetry_equiv_pos_site_id
_symmetry_equiv_pos_as_xyz
1 '-x, -y, -z'
2 'x, y, z'
3 '-x+1/2, -y+1/2, -z'
4 'x+1/2, y+1/2, z'
loop_
_atom_type_symbol
_atom_type_oxidation_number
Na1+ 1
Si4+ 4
Al3+ 3
Si4+ 4
Al3+ 3
Si4+ 4
Al3+ 3
Si4+ 4
Al3+ 3
O2- -2
loop_
_atom_site_label
_atom_site_type_symbol
_atom_site_symmetry_multiplicity
_atom_site_Wyckoff_symbol
_atom_site_fract_x
_atom_site_fract_y
_atom_site_fract_z
_atom_site_B_iso_or_equiv
_atom_site_occupancy
_atom_site_attached_hydrogens
Na1 Na1+ 4 i 0.2774(3) 0.0024(3) 0.1378(5) . 1. 0
Si1 Si4+ 4 i 0.0087(1) 0.1718(1) 0.2191(1) . 0.75 0
Al1 Al3+ 4 i 0.0087(1) 0.1718(1) 0.2191(1) . 0.25 0
Si2 Si4+ 4 i 0.0065(1) 0.8173(1) 0.2266(1) . 0.75 0
Al2 Al3+ 4 i 0.0065(1) 0.8173(1) 0.2266(1) . 0.25 0
Si3 Si4+ 4 i 0.6941(1) 0.1121(1) 0.3316(1) . 0.75 0
Al3 Al3+ 4 i 0.6941(1) 0.1121(1) 0.3316(1) . 0.25 0
Si4 Si4+ 4 i 0.6920(1) 0.8804(1) 0.3491(1) . 0.75 0
Al4 Al3+ 4 i 0.6920(1) 0.8804(1) 0.3491(1) . 0.25 0
O1 O2- 4 i 0.0026(3) 0.1383(2) 0.9916(3) . 1. 0
O2 O2- 4 i 0.6013(3) 0.9949(1) 0.2823(3) . 1. 0
O3 O2- 4 i 0.8231(3) 0.1223(2) 0.2123(4) . 1. 0
O4 O2- 4 i 0.8225(3) 0.8546(2) 0.2373(4) . 1. 0
O5 O2- 4 i 0.0220(3) 0.2972(2) 0.2667(4) . 1. 0
O6 O2- 4 i 0.0233(3) 0.6909(2) 0.2365(4) . 1. 0
O7 O2- 4 i 0.1913(3) 0.1174(2) 0.3962(3) . 1. 0
O8 O2- 4 i 0.1885(3) 0.8710(2) 0.4160(3) . 1. 0
loop_
_atom_site_aniso_label
_atom_site_aniso_type_symbol
_atom_site_aniso_beta_11
_atom_site_aniso_beta_22
_atom_site_aniso_beta_33
_atom_site_aniso_beta_12
_atom_site_aniso_beta_13
_atom_site_aniso_beta_23
Na1 Na1+ 0.0189(4) 0.0240(4) 0.0642(11) 0.0011(3) 0.0085(6) -.0133(5)
Si1 Si4+ 0.0094(1) 0.0032(1) 0.0099(1) -.0007(1) 0.0044(1) 0.0002(1)
Al1 Al3+ 0.0094(1) 0.0032(1) 0.0099(1) -.0007(1) 0.0044(1) 0.0002(1)
Si2 Si4+ 0.0093(1) 0.0032(1) 0.0098(1) 0.0011(1) 0.0044(1) 0.0006(1)
Al2 Al3+ 0.0093(1) 0.0032(1) 0.0098(1) 0.0011(1) 0.0044(1) 0.0006(1)
Si3 Si4+ 0.0083(1) 0.0026(1) 0.0127(2) -.0002(1) 0.0037(1) 0.0004(1)
Al3 Al3+ 0.0083(1) 0.0026(1) 0.0127(1) -.0002(1) 0.0037(1) 0.0004(1)
Si4 Si4+ 0.0084(1) 0.0025(1) 0.0128(2) 0.0006(1) 0.0041(1) 0.0006(1)
Al4 Al3+ 0.0084(1) 0.0025(1) 0.0128(2) 0.0006(1) 0.0041(1) 0.0006(1)
O1 O2- 0.0232(6) 0.0059(2) 0.0149(5) 0.0004(2) 0.0110(5) 0.0010(2)
O2 O2- 0.0115(4) 0.0031(1) 0.0210(5) 0.0002(2) 0.0046(4) 0.0010(2)
O3 O2- 0.0157(5) 0.0068(2) 0.0280(7) -.0023(2) 0.0126(5) 0.0003(3)
O4 O2- 0.0166(5) 0.0079(2) 0.0299(8) 0.0029(2) 0.0143(5) 0.0003(3)
O5 O2- 0.0139(4) 0.0040(1) 0.0255(6) -.0011(2) 0.0075(4) -.0008(2)
O6 O2- 0.0139(4) 0.0039(1) 0.0239(6) 0.0016(2) 0.0050(4) 0.0011(2)
O7 O2- 0.0158(4) 0.0060(2) 0.0148(5) 0.0018(2) 0.0022(4) 0.0017(2)
O8 O2- 0.0160(5) 0.0063(2) 0.0153(5) -.0010(2) 0.0012(4) -.0007(2)
#End of TTdata_100500-ICSD