
#(C) 2019 by FIZ Karlsruhe - Leibniz Institute for Information Infrastructure.  All rights reserved.
data_100565-ICSD
_database_code_ICSD 100565
_audit_creation_date 1980-01-01
_audit_update_record 2019-02-01
_chemical_name_systematic
'Sodium calcium hexaoxohexahydroxopentaborate pentahydrate'
_chemical_formula_structural 'Na Ca (B5 O6 (O H)6) (H2 O)5'
_chemical_formula_sum 'H16 B5 Ca1 Na1 O17'
_chemical_name_structure_type NaCaB5O6(OH)6(H2O)5
_chemical_name_mineral Ulexite
_exptl_crystal_density_diffrn 1.95
_publ_section_title

;
Ulexite, Na Ca B5 O6 (O H)6 (H2 O)5: structure refinement, polyanion
configuration, hydrogen bonding and fiber optics
;
loop_
_citation_id
_citation_journal_full
_citation_year
_citation_journal_volume
_citation_page_first
_citation_page_last
_citation_journal_id_ASTM
primary 'American Mineralogist' 1978 63 160 171 AMMIAY
loop_
_publ_author_name
'Ghose, S.'
'Wan, C.'
'Clark, J.R.'
_cell_length_a 8.816(3)
_cell_length_b 12.870(7)
_cell_length_c 6.678(4)
_cell_angle_alpha 90.36(2)
_cell_angle_beta 109.05(2)
_cell_angle_gamma 104.98(4)
_cell_volume 688.45
_cell_formula_units_Z 2
_symmetry_space_group_name_H-M 'P -1'
_symmetry_Int_Tables_number 2
_refine_ls_R_factor_all 0.041
loop_
_symmetry_equiv_pos_site_id
_symmetry_equiv_pos_as_xyz
1 '-x, -y, -z'
2 'x, y, z'
loop_
_atom_type_symbol
_atom_type_oxidation_number
Ca2+ 2
Na1+ 1
B3+ 3
O2- -2
H1+ 1
loop_
_atom_site_label
_atom_site_type_symbol
_atom_site_symmetry_multiplicity
_atom_site_Wyckoff_symbol
_atom_site_fract_x
_atom_site_fract_y
_atom_site_fract_z
_atom_site_B_iso_or_equiv
_atom_site_occupancy
_atom_site_attached_hydrogens
Ca1 Ca2+ 2 i 0.1422(1) 0.0256(1) 0.3042(1) . 1. 0
Na1 Na1+ 2 i 0.4774(1) 0.5015(1) 0.2438(2) . 1. 0
B1 B3+ 2 i 0.0506(3) 0.2002(2) 0.6685(4) . 1. 0
B2 B3+ 2 i 0.3464(3) 0.2700(2) 0.8995(4) . 1. 0
B3 B3+ 2 i -.1891(3) 0.2240(2) 0.7821(4) . 1. 0
B4 B3+ 2 i 0.2344(3) 0.0737(2) 0.7824(4) . 1. 0
B5 B3+ 2 i -.1737(3) 0.2697(2) 0.4276(4) . 1. 0
O1 O2- 2 i 0.1985(2) 0.2890(1) 0.7929(3) . 1. 0
O2 O2- 2 i 0.1024(2) 0.1066(1) 0.6208(2) . 1. 0
O3 O2- 2 i -.0289(2) 0.2424(1) 0.4664(3) . 1. 0
O4 O2- 2 i -.0650(2) 0.1677(1) 0.7840(3) . 1. 0
O5 O2- 2 i 0.3701(2) 0.1692(1) 0.9112(3) . 1. 0
O6 O2- 2 i -.2591(2) 0.2602(2) 0.5667(3) . 1. 0
O7 O2- 2 i 0.2992(2) 0.0085(1) 0.6683(3) . 1. 0
O8 O2- 2 i -.1132(2) 0.3228(1) 0.9369(3) . 1. 0
O9 O2- 2 i 0.1580(2) 0.0068(1) 0.9265(3) . 1. 0
O10 O2- 2 i -.3183(3) 0.1469(2) 0.8361(3) . 1. 0
O11 O2- 2 i 0.4776(2) 0.3597(1) 0.0025(3) . 1. 0
O12 O2- 2 i -.2383(2) 0.3130(2) 0.2405(3) . 1. 0
O13 O2- 2 i 0.1462(2) 0.2106(2) 0.2240(3) . 1. 0
O14 O2- 2 i 0.4293(3) 0.1021(2) 0.3302(4) . 1. 0
O15 O2- 2 i 0.4707(3) 0.3586(2) 0.4870(4) . 1. 0
O16 O2- 2 i 0.1925(3) 0.4794(2) 0.1850(4) . 1. 0
O17 O2- 2 i 0.2252(3) 0.4765(2) 0.6107(4) . 1. 0
H1 H1+ 2 i 0.397(4) 0.022(3) 0.698(5) 0.025(9) 1. 0
H2 H1+ 2 i -.134(4) 0.373(3) 0.878(5) 0.03(1) 1. 0
H3 H1+ 2 i 0.193(4) -.045(3) 0.975(5) 0.029(9) 1. 0
H4 H1+ 2 i -.379(5) 0.169(3) 0.872(6) 0.03(1) 1. 0
H5 H1+ 2 i 0.555(5) 0.342(3) 0.078(6) 0.04(1) 1. 0
H6 H1+ 2 i -.189(5) 0.313(3) 0.147(6) 0.04(1) 1. 0
H7 H1+ 2 i 0.086(4) 0.230(3) 0.285(5) 0.024(9) 1. 0
H8 H1+ 2 i 0.092(7) 0.218(4) 0.088(9) 0.09(2) 1. 0
H9 H1+ 2 i 0.439(6) 0.127(4) 0.229(8) 0.07(2) 1. 0
H10 H1+ 2 i 0.513(5) 0.134(3) 0.418(6) 0.04(1) 1. 0
H11 H1+ 2 i 0.392(5) 0.316(3) 0.421(6) 0.04(1) 1. 0
H12 H1+ 2 i 0.555(5) 0.335(3) 0.513(6) 0.04(1) 1. 0
H13 H1+ 2 i 0.120(6) 0.431(4) 0.113(7) 0.06(1) 1. 0
H14 H1+ 2 i 0.192(5) 0.473(3) 0.294(6) 0.03(1) 1. 0
H15 H1+ 2 i 0.202(5) 0.422(4) 0.664(6) 0.05(1) 1. 0
H16 H1+ 2 i 0.191(5) 0.521(4) 0.662(6) 0.05(1) 1. 0
loop_
_atom_site_aniso_label
_atom_site_aniso_type_symbol
_atom_site_aniso_U_11
_atom_site_aniso_U_22
_atom_site_aniso_U_33
_atom_site_aniso_U_12
_atom_site_aniso_U_13
_atom_site_aniso_U_23
Ca1 Ca2+ 0.0115(2) 0.0103(2) 0.0125(2) 0.0020(2) 0.0017(2) -.0003(1)
Na1 Na1+ 0.0316(6) 0.0235(6) 0.0266(5) 0.0100(5) 0.0096(5) 0.0012(4)
B1 B3+ 0.012(1) 0.012(1) 0.015(1) 0.0056(9) 0.0016(9) 0.0009(9)
B2 B3+ 0.013(1) 0.013(1) 0.013(1) 0.004(1) 0.0027(9) 0.0007(9)
B3 B3+ 0.015(1) 0.015(1) 0.016(1) 0.007(1) 0.004(1) -.0009(9)
B4 B3+ 0.013(1) 0.011(1) 0.015(1) 0.0050(9) 0.0037(9) 0.0021(9)
B5 B3+ 0.015(1) 0.015(1) 0.013(1) 0.006(1) 0.0021(9) -.0005(9)
O1 O2- 0.0123(8) 0.0107(8) 0.0219(9) 0.0043(6) -.0005(7) -.0012(6)
O2 O2- 0.0111(7) 0.0121(7) 0.0118(7) 0.0057(6) 0.0011(6) -.0008(6)
O3 O2- 0.0138(8) 0.0180(8) 0.0141(8) 0.0087(7) 0.0039(6) 0.0044(6)
O4 O2- 0.0147(8) 0.0152(8) 0.0146(8) 0.0082(7) 0.0064(7) 0.0030(6)
O5 O2- 0.0123(8) 0.0114(8) 0.0170(8) 0.0036(6) 0.0025(6) 0.0007(6)
O6 O2- 0.0160(8) 0.028(1) 0.0122(8) 0.0134(8) 0.0031(7) 0.0011(7)
O7 O2- 0.0158(9) 0.0195(9) 0.0194(9) 0.0100(7) 0.0050(7) -.0008(7)
O8 O2- 0.0227(9) 0.0131(8) 0.0152(8) 0.0074(7) 0.0023(7) -.0009(7)
O9 O2- 0.0153(8) 0.0126(8) 0.0175(8) 0.0059(7) 0.0037(7) 0.0028(6)
O10 O2- 0.020(1) 0.0163(9) 0.039(1) 0.0046(8) 0.0167(9) -.0002(8)
O11 O2- 0.0136(8) 0.0124(8) 0.0211(9) 0.0033(7) -.0017(7) -.0004(7)
O12 O2- 0.024(1) 0.035(1) 0.0128(8) 0.0202(9) 0.0052(7) 0.0056(7)
O13 O2- 0.0205(9) 0.022(1) 0.0196(9) 0.0105(8) 0.0064(8) 0.0031(7)
O14 O2- 0.018(1) 0.029(1) 0.026(1) 0.0001(9) 0.0007(9) 0.0018(9)
O15 O2- 0.024(1) 0.022(1) 0.031(1) 0.0079(9) 0.0067(9) -.0028(9)
O16 O2- 0.028(1) 0.022(1) 0.034(1) 0.0040(9) 0.001(1) 0.000(1)
O17 O2- 0.040(1) 0.017(1) 0.041(1) 0.008(1) 0.013(1) 0.0054(9)
#End of TTdata_100565-ICSD