
#(C) 2019 by FIZ Karlsruhe - Leibniz Institute for Information Infrastructure.  All rights reserved.
data_100593-ICSD
_database_code_ICSD 100593
_audit_creation_date 1980-01-01
_audit_update_record 2006-04-01
_chemical_name_systematic 'Trisodium neodymium bis(phosphate(V))'
_chemical_formula_structural 'Na3 Nd (P O4)2'
_chemical_formula_sum 'Na3 Nd1 O8 P2'
_exptl_crystal_density_diffrn 3.93
_publ_section_title

;
The crystal structure of a new high - Nd - concentration laser material: Na3
Nd (P O4)2
;
loop_
_citation_id
_citation_journal_full
_citation_year
_citation_journal_volume
_citation_page_first
_citation_page_last
_citation_journal_id_ASTM
primary 'Materials Research Bulletin' 1978 13 439 444 MRBUAC
loop_
_publ_author_name
'Salmon, R.'
'Parent, C.'
'Vlasse, M.'
'le Flem, G.'
_cell_length_a 15.874(8)
_cell_length_b 13.952(8)
_cell_length_c 18.470(9)
_cell_angle_alpha 90.
_cell_angle_beta 90.
_cell_angle_gamma 90.
_cell_volume 4090.63
_cell_formula_units_Z 24
_symmetry_space_group_name_H-M 'P b c 21'
_symmetry_Int_Tables_number 29
_refine_ls_R_factor_all 0.06
loop_
_symmetry_equiv_pos_site_id
_symmetry_equiv_pos_as_xyz
1 '-x, y+1/2, z'
2 'x, -y+1/2, z+1/2'
3 '-x, -y, z+1/2'
4 'x, y, z'
loop_
_atom_type_symbol
_atom_type_oxidation_number
Na1+ 1
Nd3+ 3
P5+ 5
O2- -2
loop_
_atom_site_label
_atom_site_type_symbol
_atom_site_symmetry_multiplicity
_atom_site_Wyckoff_symbol
_atom_site_fract_x
_atom_site_fract_y
_atom_site_fract_z
_atom_site_B_iso_or_equiv
_atom_site_occupancy
_atom_site_attached_hydrogens
Na1 Na1+ 4 a 0.002(1) 0.397(1) 0.258(1) 0.7 1. 0
Na2 Na1+ 4 a 0.003(2) 0.296(1) 0.073(1) 0.9 1. 0
Na3 Na1+ 4 a 0.020(2) 0.548(2) 0.404(1) 1.9 1. 0
Na4 Na1+ 4 a 0.189(2) 0.363(2) 0.975(1) 1.8 1. 0
Na5 Na1+ 4 a 0.160(1) 0.450(1) 0.151(1) 0.7 1. 0
Na6 Na1+ 4 a 0.163(1) 0.274(1) 0.312(1) 0.3 1. 0
Na7 Na1+ 4 a 0.330(1) 0.380(1) 0.251(1) 0.6 1. 0
Na8 Na1+ 4 a 0.330(1) 0.511(1) 0.421(1) 0.4 1. 0
Na9 Na1+ 4 a 0.333(2) 0.297(2) 0.073(1) 1.5 1. 0
Na10 Na1+ 4 a 0.510(1) 0.367(1) 0.975(1) 0.3 1. 0
Na11 Na1+ 4 a 0.501(2) 0.446(2) 0.162(1) 1.3 1. 0
Na12 Na1+ 4 a 0.500(1) 0.304(1) 0.317(1) 0.7 1. 0
Na13 Na1+ 4 a 0.678(1) 0.379(2) 0.255(1) 1.3 1. 0
Na14 Na1+ 4 a 0.682(1) 0.513(1) 0.415(1) 0.3 1. 0
Na15 Na1+ 4 a 0.670(2) 0.295(2) 0.077(1) 1.3 1. 0
Na16 Na1+ 4 a 0.822(1) 0.364(1) 0.978(1) 0.5 1. 0
Na17 Na1+ 4 a 0.838(1) 0.447(1) 0.152(1) 0.7 1. 0
Na18 Na1+ 4 a 0.839(2) 0.272(2) 0.310(1) 1.3 1. 0
Nd1 Nd3+ 4 a 0.9934(2) 0.1389(2) 0.2171(1) 0.62 1. 0
Nd2 Nd3+ 4 a 0.1648(2) 0.1131(2) 0.9988(1) 0.78 1. 0
Nd3 Nd3+ 4 a 0.3347(3) 0.1377(2) 0.2257(1) 0.79 1. 0
Nd4 Nd3+ 4 a 0.5140(2) 0.1116(2) 0.0068(1) 0.63 1. 0
Nd5 Nd3+ 4 a 0.6400(2) 0.1288(2) 0.2339(2) 0.53 1. 0
Nd6 Nd3+ 4 a 0.8596(2) 0.1168(2) 0.9928(2) 0.43 1. 0
P1 P5+ 4 a 0.0074(9) 0.2840(8) 0.3995(6) 0.2 1. 0
P2 P5+ 4 a 0.9946(9) 0.5100(8) 0.0724(6) 0.2 1. 0
P3 P5+ 4 a 0.1703(9) 0.2250(9) 0.1467(7) 0.4 1. 0
P4 P5+ 4 a 0.1637(9) 0.0174(9) 0.3184(7) 0.5 1. 0
P5 P5+ 4 a 0.3474(9) 0.2669(9) 0.4087(7) 0.3 1. 0
P6 P5+ 4 a 0.3384(9) 0.0197(8) 0.0801(6) 0.2 1. 0
P7 P5+ 4 a 0.4961(9) 0.2348(9) 0.1503(7) 0.6 1. 0
P8 P5+ 4 a 0.4918(9) 0.0255(8) 0.3235(6) 0.3 1. 0
P9 P5+ 4 a 0.6706(9) 0.2651(9) 0.4081(7) 0.2 1. 0
P10 P5+ 4 a 0.6692(9) 0.0214(9) 0.0792(7) 0.3 1. 0
P11 P5+ 4 a 0.8227(9) 0.0176(9) 0.3219(7) 0.3 1. 0
P12 P5+ 4 a 0.8238(9) 0.2183(9) 0.1440(7) 0.3 1. 0
O1 O2- 4 a 0.968(3) 0.373(3) 0.412(2) 2. 1. 0
O2 O2- 4 a 0.945(2) 0.222(2) 0.449(2) 0.7 1. 0
O3 O2- 4 a 0.013(3) 0.256(3) 0.323(2) 2. 1. 0
O4 O2- 4 a 0.100(2) 0.269(2) 0.428(2) 0.3 1. 0
O5 O2- 4 a 0.005(2) 0.117(2) 0.059(1) 0.8 1. 0
O6 O2- 4 a 0.001(2) 0.994(2) 0.156(1) 0.3 1. 0
O7 O2- 4 a 0.090(2) 0.973(2) 0.036(2) 0.9 1. 0
O8 O2- 4 a 0.928(2) 0.961(3) 0.030(2) 1. 1. 0
O9 O2- 4 a 0.161(2) 0.120(2) 0.136(1) 0.6 1. 0
O10 O2- 4 a 0.176(3) 0.255(3) 0.065(2) 1.2 1. 0
O11 O2- 4 a 0.082(3) 0.262(3) 0.174(2) 1.2 1. 0
O12 O2- 4 a 0.240(3) 0.259(3) 0.197(2) 2. 1. 0
O13 O2- 4 a 0.158(2) 0.996(2) 0.397(2) 0.9 1. 0
O14 O2- 4 a 0.070(3) 0.045(3) 0.292(2) 1.8 1. 0
O15 O2- 4 a 0.192(3) 0.925(3) 0.279(2) 1.4 1. 0
O16 O2- 4 a 0.222(2) 0.096(2) 0.296(1) 0.3 1. 0
O17 O2- 4 a 0.319(2) 0.180(2) 0.453(2) 0.6 1. 0
O18 O2- 4 a 0.337(2) 0.260(2) 0.323(1) 0.3 1. 0
O19 O2- 4 a 0.432(3) 0.295(3) 0.426(2) 1.2 1. 0
O20 O2- 4 a 0.282(2) 0.362(3) 0.422(2) 1.4 1. 0
O21 O2- 4 a 0.339(2) 0.132(3) 0.079(2) 1.3 1. 0
O22 O2- 4 a 0.332(3) 0.982(2) 0.156(2) 0.3 1. 0
O23 O2- 4 a 0.417(2) 0.982(2) 0.042(2) 0.8 1. 0
O24 O2- 4 a 0.263(2) 0.982(2) 0.038(2) 0.3 1. 0
O25 O2- 4 a 0.492(2) 0.121(2) 0.158(1) 0.5 1. 0
O26 O2- 4 a 0.506(2) 0.273(2) 0.072(1) 0.3 1. 0
O27 O2- 4 a 0.572(2) 0.275(2) 0.191(1) 0.3 1. 0
O28 O2- 4 a 0.419(2) 0.284(2) 0.180(2) 0.6 1. 0
O29 O2- 4 a 0.505(2) 0.995(2) 0.405(1) 0.3 1. 0
O30 O2- 4 a 0.513(2) 0.137(2) 0.319(1) 0.3 1. 0
O31 O2- 4 a 0.555(3) 0.970(3) 0.271(2) 2. 1. 0
O32 O2- 4 a 0.402(3) 0.016(3) 0.301(2) 1.2 1. 0
O33 O2- 4 a 0.656(2) 0.175(2) 0.449(1) 0.3 1. 0
O34 O2- 4 a 0.669(2) 0.250(2) 0.323(1) 0.3 1. 0
O35 O2- 4 a 0.766(2) 0.294(2) 0.426(2) 0.6 1. 0
O36 O2- 4 a 0.621(3) 0.348(3) 0.423(2) 2. 1. 0
O37 O2- 4 a 0.638(3) 0.129(3) 0.080(2) 1.3 1. 0
O38 O2- 4 a 0.681(2) 0.987(2) 0.156(2) 0.4 1. 0
O39 O2- 4 a 0.750(2) 0.009(2) 0.035(2) 0.6 1. 0
O40 O2- 4 a 0.592(2) 0.982(2) 0.037(2) 0.7 1. 0
O41 O2- 4 a 0.843(2) 0.990(2) 0.402(2) 0.7 1. 0
O42 O2- 4 a 0.865(3) 0.935(3) 0.275(2) 2.1 1. 0
O43 O2- 4 a 0.735(2) 0.044(2) 0.309(2) 0.4 1. 0
O44 O2- 4 a 0.893(3) 0.097(3) 0.298(2) 2. 1. 0
O45 O2- 4 a 0.854(2) 0.116(3) 0.135(2) 0.9 1. 0
O46 O2- 4 a 0.807(3) 0.264(3) 0.067(2) 1.3 1. 0
O47 O2- 4 a 0.906(2) 0.283(2) 0.177(2) 0.7 1. 0
O48 O2- 4 a 0.751(2) 0.235(2) 0.195(2) 0.9 1. 0
#End of TTdata_100593-ICSD