
#(C) 2019 by FIZ Karlsruhe - Leibniz Institute for Information Infrastructure.  All rights reserved.
data_100557-ICSD
_database_code_ICSD 100557
_audit_creation_date 1980-01-01
_audit_update_record 2007-08-01
_chemical_name_systematic 'Potassium sodium tecto-alumotrisilicate *'
_chemical_formula_structural '(K0.65 Na0.35) (Al Si3 O8)'
_chemical_formula_sum 'Al1 K0.65 Na0.35 O8 Si3'
_chemical_name_structure_type Feldspar#-(MO,C12/m1)-KAlSi3O8
_chemical_name_mineral Sanidine
_exptl_crystal_density_diffrn 2.53
_publ_section_title

;
Crystal structure and composition of Sanidine and High Albite in
cryptoperthitic intergrowth
;
loop_
_citation_id
_citation_journal_full
_citation_year
_citation_journal_volume
_citation_page_first
_citation_page_last
_citation_journal_id_ASTM
primary 'American Mineralogist' 1978 63 1264 1273 AMMIAY
loop_
_publ_author_name
'Keefer, K.D.'
'Brown, G.E.'
_cell_length_a 8.558(1)
_cell_length_b 12.997(1)
_cell_length_c 7.179(1)
_cell_angle_alpha 90.
_cell_angle_beta 116.07(1)
_cell_angle_gamma 90.
_cell_volume 717.27
_cell_formula_units_Z 4
_symmetry_space_group_name_H-M 'C 1 2/m 1'
_symmetry_Int_Tables_number 12
_refine_ls_R_factor_all 0.029
loop_
_symmetry_equiv_pos_site_id
_symmetry_equiv_pos_as_xyz
1 '-x, y, -z'
2 '-x, -y, -z'
3 'x, -y, z'
4 'x, y, z'
5 '-x+1/2, y+1/2, -z'
6 '-x+1/2, -y+1/2, -z'
7 'x+1/2, -y+1/2, z'
8 'x+1/2, y+1/2, z'
loop_
_atom_type_symbol
_atom_type_oxidation_number
K1+ 1
Na1+ 1
Si4+ 4
Al3+ 3
Si4+ 4
Al3+ 3
O2- -2
loop_
_atom_site_label
_atom_site_type_symbol
_atom_site_symmetry_multiplicity
_atom_site_Wyckoff_symbol
_atom_site_fract_x
_atom_site_fract_y
_atom_site_fract_z
_atom_site_B_iso_or_equiv
_atom_site_occupancy
_atom_site_attached_hydrogens
K1 K1+ 4 i 0.2844(1) 0 0.1383(1) . 0.65(2) 0
Na1 Na1+ 4 i 0.2844(1) 0 0.1383(1) . 0.35(2) 0
Si1 Si4+ 8 j 0.0091(1) 0.1834(1) 0.2236(1) . 0.73 0
Al1 Al3+ 8 j 0.0091(1) 0.1834(1) 0.2236(1) . 0.27 0
Si2 Si4+ 8 j 0.7069(1) 0.1177(1) 0.3431(1) . 0.77 0
Al2 Al3+ 8 j 0.7069(1) 0.1177(1) 0.3431(1) . 0.23 0
O1 O2- 4 g 0 0.1443(2) 0 . 1. 0
O2 O2- 4 i 0.6308(3) 0 0.2832(3) . 1. 0
O3 O2- 8 j 0.8270(2) 0.1448(1) 0.2255(2) . 1. 0
O4 O2- 8 j 0.0327(2) 0.3092(1) 0.2568(2) . 1. 0
O5 O2- 8 j 0.1814(2) 0.1256(1) 0.4049(2) . 1. 0
loop_
_atom_site_aniso_label
_atom_site_aniso_type_symbol
_atom_site_aniso_beta_11
_atom_site_aniso_beta_22
_atom_site_aniso_beta_33
_atom_site_aniso_beta_12
_atom_site_aniso_beta_13
_atom_site_aniso_beta_23
K1 K1+ 0.0051(1) 0.0045(1) 0.0118(2) 0 0.0023(1) 0
Na1 Na1+ 0.0051(1) 0.0045(1) 0.0118(2) 0 0.0023(1) 0
Si1 Si4+ 0.0049(1) 0.0019(1) 0.0035(1) -.0004(1) 0.0022(1) -.0002(1)
Al1 Al3+ 0.0049(1) 0.0019(1) 0.0035(1) -.0004(1) 0.0022(1) -.0002(1)
Si2 Si4+ 0.0046(1) 0.0014(1) 0.0045(1) -.0001(1) 0.0020(1) 0.0000(1)
Al2 Al3+ 0.0046(1) 0.0014(1) 0.0045(1) -.0001(1) 0.0020(1) 0.0000(1)
O1 O2- 0.0104(3) 0.0031(1) 0.0076(4) 0 0.0050(3) 0
O2 O2- 0.0087(3) 0.0019(1) 0.0113(5) 0 0.0021(3) 0
O3 O2- 0.0078(2) 0.0044(1) 0.0120(3) -.0009(1) 0.0058(2) 0.0005(1)
O4 O2- 0.0071(2) 0.0025(1) 0.0098(3) -.0005(1) 0.0030(2) -.0006(1)
O5 O2- 0.0080(2) 0.0028(1) 0.0063(3) 0.0002(1) 0.0013(2) 0.0002(1)
#End of TTdata_100557-ICSD