
#(C) 2019 by FIZ Karlsruhe - Leibniz Institute for Information Infrastructure.  All rights reserved.
data_100868-ICSD
_database_code_ICSD 100868
_audit_creation_date 1981-12-31
_audit_update_record 2000-07-15
_chemical_name_systematic 'Sodium calcium alumosilicate *'
_chemical_formula_structural 'Na.685 Ca.347 Al1.46 Si2.54 O8'
_chemical_formula_sum 'Al1.46 Ca0.347 Na0.685 O8 Si2.54'
_chemical_name_structure_type Feldspar#-(TC)-Albite-NaAlSi3O8
_chemical_name_mineral Andesine
_exptl_crystal_density_diffrn 2.66
_publ_section_title
'Modulated structure of a plagioclase An52: Theory and structure determination'
loop_
_citation_id
_citation_journal_full
_citation_year
_citation_journal_volume
_citation_page_first
_citation_page_last
_citation_journal_id_ASTM
primary 'Zeitschrift fuer Kristallographie' 1981 157 233 250 ZEKRDZ
loop_
_publ_author_name
'Horst, W.'
'Tagai, T.'
'Korekawa, M.'
'Jagodzinski, H.'
_cell_length_a 8.178(1)
_cell_length_b 12.865(1)
_cell_length_c 7.109(1)
_cell_angle_alpha 93.53(1)
_cell_angle_beta 116.21(1)
_cell_angle_gamma 89.92(1)
_cell_volume 669.48
_cell_formula_units_Z 4
_symmetry_space_group_name_H-M 'C -1'
_symmetry_Int_Tables_number 2
_refine_ls_R_factor_all 0.08
loop_
_symmetry_equiv_pos_site_id
_symmetry_equiv_pos_as_xyz
1 '-x, -y, -z'
2 'x, y, z'
3 '-x+1/2, -y+1/2, -z'
4 'x+1/2, y+1/2, z'
loop_
_atom_type_symbol
_atom_type_oxidation_number
Ca2+ 2
Na1+ 1
Si4+ 4
Al3+ 3
Si4+ 4
Al3+ 3
Si4+ 4
Al3+ 3
Si4+ 4
Al3+ 3
O2- -2
loop_
_atom_site_label
_atom_site_type_symbol
_atom_site_symmetry_multiplicity
_atom_site_Wyckoff_symbol
_atom_site_fract_x
_atom_site_fract_y
_atom_site_fract_z
_atom_site_B_iso_or_equiv
_atom_site_occupancy
_atom_site_attached_hydrogens
Ca1 Ca2+ 4 i 0.2707(9) 0.9577(6) 0.1723(11) . 0.347 0
Na1 Na1+ 4 i 0.2884(5) 0.0321(3) 0.1025(6) . 0.685 0
Si1 Si4+ 4 i 0.0055(3) 0.1649(2) 0.2155(4) . 0.31 0
Al1 Al3+ 4 i 0.0055(3) 0.1649(2) 0.2155(5) . 0.69 0
Si2 Si4+ 4 i 0.6854(3) 0.1095(1) 0.3173(3) . 0.78 0
Al2 Al3+ 4 i 0.6854(3) 0.1095(1) 0.3173(3) . 0.22 0
Si3 Si4+ 4 i 0.0033(3) 0.8175(2) 0.2298(3) . 0.83 0
Al3 Al3+ 4 i 0.0033(3) 0.8175(2) 0.2298(3) . 0.17 0
Si4 Si4+ 4 i 0.6830(3) 0.8796(1) 0.3564(3) . 0.62 0
Al4 Al3+ 4 i 0.6830(3) 0.8796(1) 0.3564(3) . 0.38 0
O1 O2- 4 i 0.0034(8) 0.1297(4) 0.9756(7) . 1. 0
O2 O2- 4 i 0.5805(8) 0.9930(4) 0.2775(7) . 1. 0
O3 O2- 4 i 0.8099(9) 0.1065(5) 0.1900(9) . 1. 0
O4 O2- 4 i 0.8172(9) 0.8538(5) 0.2415(11) . 1. 0
O5 O2- 4 i 0.0153(11) 0.2931(7) 0.2796(11) . 1. 0
O6 O2- 4 i 0.015(1) 0.6895(6) 0.2148(9) . 1. 0
O7 O2- 4 i 0.2013(10) 0.1074(6) 0.3848(10) . 1. 0
O8 O2- 4 i 0.1895(8) 0.8675(6) 0.4293(10) . 1. 0
loop_
_atom_site_aniso_label
_atom_site_aniso_type_symbol
_atom_site_aniso_beta_11
_atom_site_aniso_beta_22
_atom_site_aniso_beta_33
_atom_site_aniso_beta_12
_atom_site_aniso_beta_13
_atom_site_aniso_beta_23
Ca1 Ca2+ 0.0075(12) 0.0068(5) 0.0128(16) -.0038(6) 0.0093(12) -.0040(7)
Na1 Na1+ 0.0053(6) 0.0066(3) 0.0122(8) 0.0004(3) 0.0015(6) -.0020(4)
Si1 Si4+ 0.0061(4) 0.0046(2) 0.0074(5) -.0015(2) 0.0019(4) 0.0013(2)
Al1 Al3+ 0.0061(4) 0.0046(2) 0.0074(5) -.0015(2) 0.0019(4) 0.0013(2)
Si2 Si4+ 0.0033(3) 0.0002(9) 0.0050(4) 0.0002(1) 0.0007(3) 0.0002(2)
Al2 Al3+ 0.0033(3) 0.0002(9) 0.0050(4) 0.0002(1) 0.0007(3) 0.0002(2)
Si3 Si4+ 0.0054(4) 0.0038(2) 0.0043(4) 0.0028(2) 0.0010(4) -.0001(2)
Al3 Al3+ 0.0054(4) 0.0038(2) 0.0043(4) 0.0028(2) 0.0010(4) -.0001(2)
Si4 Si4+ 0.0042(3) 0.0002(9) 0.0043(4) 0.0006(1) 0.0008(3) 0.0006(1)
Al4 Al3+ 0.0042(3) 0.0002(9) 0.0043(4) 0.0006(1) 0.0008(3) 0.0006(1)
O1 O2- 0.0110(11) 0.0019(3) 0.0054(11) -.0010(4) 0.0071(9) 0.0002(4)
O2 O2- 0.0130(11) 0.0009(3) 0.0051(17) 0.0016(4) 0.0059(9) 0.0015(4)
O3 O2- 0.0094(11) 0.0035(6) 0.0106(14) -.0017(5) 0.0044(10) -.0015(6)
O4 O2- 0.0113(12) 0.0032(4) 0.0205(17) 0.0023(5) 0.0097(13) -.0014(6)
O5 O2- 0.0169(17) 0.0074(6) 0.0147(17) -.0026(8) 0.0031(14) 0.0037(8)
O6 O2- 0.0178(16) 0.0093(6) 0.0033(12) 0.0084(8) 0.0037(11) -.0013(7)
O7 O2- 0.0138(14) 0.0055(5) 0.0108(15) -.0006(7) 0.0028(12) -.0005(7)
O8 O2- 0.0061(10) 0.0059(5) 0.0127(15) 0.0008(6) 0.0029(11) -.0003(7)
#End of TTdata_100868-ICSD