
#(C) 2019 by FIZ Karlsruhe - Leibniz Institute for Information Infrastructure.  All rights reserved.
data_10217-ICSD
_database_code_ICSD 10217
_audit_creation_date 1980-01-01
_chemical_name_systematic 'Sodium barium catena-silicate'
_chemical_formula_structural 'Na2 Ba Si2 O6'
_chemical_formula_sum 'Ba1 Na2 O6 Si2'
_exptl_crystal_density_diffrn 3.61
_publ_section_title 'Crystal structure of Na2 Ba Si2 O6'
loop_
_citation_id
_citation_journal_full
_citation_year
_citation_journal_volume
_citation_page_first
_citation_page_last
_citation_journal_id_ASTM
primary
'Journal of the Chemical Society, Dalton Transactions: Inorganic Chemistry ' 1973 1973 2397 2400 JCDTBI
loop_
_publ_author_name
'Gunawardane, R.P.'
'Cradwick, M.E.'
'Dent Glasser, L.S.'
_cell_length_a 11.440(5)
_cell_length_b 4.758(2)
_cell_length_c 5.670(2)
_cell_angle_alpha 90.
_cell_angle_beta 91.42(4)
_cell_angle_gamma 90.
_cell_volume 308.53
_cell_formula_units_Z 2
_symmetry_space_group_name_H-M 'P 1 21 1'
_symmetry_Int_Tables_number 4
_refine_ls_R_factor_all 0.06
loop_
_symmetry_equiv_pos_site_id
_symmetry_equiv_pos_as_xyz
1 '-x, y+1/2, -z'
2 'x, y, z'
loop_
_atom_type_symbol
_atom_type_oxidation_number
Ba2+ 2
Na1+ 1
Si4+ 4
O2- -2
loop_
_atom_site_label
_atom_site_type_symbol
_atom_site_symmetry_multiplicity
_atom_site_Wyckoff_symbol
_atom_site_fract_x
_atom_site_fract_y
_atom_site_fract_z
_atom_site_B_iso_or_equiv
_atom_site_occupancy
_atom_site_attached_hydrogens
Ba1 Ba2+ 2 a 0.09715(9) 0.25 0.2533(2) . 1. 0
Na1 Na1+ 2 a 0.4869(6) 0.247(5) 0.1863(12) 1. 1. 0
Na2 Na1+ 2 a 0.3221(6) 0.754(6) 0.2887(13) 1.4 1. 0
Si1 Si4+ 2 a 0.3447(5) 0.291(1) 0.6778(9) 0.8 1. 0
Si2 Si4+ 2 a 0.1933(5) 0.799(1) 0.7758(9) 0.8 1. 0
O1 O2- 2 a 0.3222(9) 0.243(7) 0.400(2) 0.6 1. 0
O2 O2- 2 a 0.4736(10) 0.260(8) 0.774(2) 0.8 1. 0
O3 O2- 2 a 0.1169(11) 0.754(9) 0.537(2) 1. 1. 0
O4 O2- 2 a 0.1226(11) 0.739(8) 0.009(2) 1. 1. 0
O5 O2- 2 a 0.2414(13) 0.127(4) 0.820(3) 0.9 1. 0
O6 O2- 2 a 0.3194(13) 0.635(4) 0.755(3) 1. 1. 0
loop_
_atom_site_aniso_label
_atom_site_aniso_type_symbol
_atom_site_aniso_beta_11
_atom_site_aniso_beta_22
_atom_site_aniso_beta_33
_atom_site_aniso_beta_12
_atom_site_aniso_beta_13
_atom_site_aniso_beta_23
Ba1 Ba2+ 0.00436(6) 0.04292(37) 0.02808(22) -.00210(69) -.00380(17) 0.00224(15)
#End of TTdata_10217-ICSD