
#(C) 2019 by FIZ Karlsruhe - Leibniz Institute for Information Infrastructure.  All rights reserved.
data_10221-ICSD
_database_code_ICSD 10221
_audit_creation_date 1980-01-01
_audit_update_record 1997-11-10
_chemical_name_systematic 'Sodium iron(III) catena-silicate'
_chemical_formula_structural 'Na Fe Si2 O6'
_chemical_formula_sum 'Fe1 Na1 O6 Si2'
_chemical_name_structure_type Pyroxene-CaMg(SiO3)2
_chemical_name_mineral Acmite
_exptl_crystal_density_diffrn 3.51
_cell_measurement_temperature 1073.
_publ_section_title

;
High-temperature crystal chemistry of acmite, diopside, Hedenbergite, jadeite,
spodumene, and ureyite
;
loop_
_citation_id
_citation_journal_full
_citation_year
_citation_journal_volume
_citation_page_first
_citation_page_last
_citation_journal_id_ASTM
primary 'American Mineralogist' 1973 58 594 618 AMMIAY
loop_
_publ_author_name
'Cameron, M.'
'Sueno, S.'
'Prewitt, C.T.'
'Papike, J.J.'
_cell_length_a 9.711(1)
_cell_length_b 8.876(1)
_cell_length_c 5.312(1)
_cell_angle_alpha 90.
_cell_angle_beta 107.29(1)
_cell_angle_gamma 90.
_cell_volume 437.18
_cell_formula_units_Z 4
_symmetry_space_group_name_H-M 'C 1 2/c 1'
_symmetry_Int_Tables_number 15
_refine_ls_R_factor_all 0.065
loop_
_symmetry_equiv_pos_site_id
_symmetry_equiv_pos_as_xyz
1 'x, -y, z+1/2'
2 '-x, -y, -z'
3 '-x, y, -z+1/2'
4 'x, y, z'
5 'x+1/2, -y+1/2, z+1/2'
6 '-x+1/2, -y+1/2, -z'
7 '-x+1/2, y+1/2, -z+1/2'
8 'x+1/2, y+1/2, z'
loop_
_atom_type_symbol
_atom_type_oxidation_number
O2- -2
Si4+ 4
Fe3+ 3
Na1+ 1
loop_
_atom_site_label
_atom_site_type_symbol
_atom_site_symmetry_multiplicity
_atom_site_Wyckoff_symbol
_atom_site_fract_x
_atom_site_fract_y
_atom_site_fract_z
_atom_site_B_iso_or_equiv
_atom_site_occupancy
_atom_site_attached_hydrogens
O1 O2- 8 f 0.1146(2) 0.0771(2) 0.1356(4) 1.48 1. 0
O2 O2- 8 f 0.3588(2) 0.2532(2) 0.2967(5) 2.03 1. 0
O3 O2- 8 f 0.3507(2) 0.0070(3) 0.0093(4) 1.82 1. 0
Si1 Si4+ 8 f 0.2902(1) 0.0888(1) 0.2327(1) 1.12 1. 0
Fe1 Fe3+ 4 e 0 0.8969(1) 0.25 1.3 1. 0
Na1 Na1+ 4 e 0 0.3002(3) 0.25 3.58 1. 0
#End of TTdata_10221-ICSD