
#(C) 2019 by FIZ Karlsruhe - Leibniz Institute for Information Infrastructure.  All rights reserved.
data_10240-ICSD
_database_code_ICSD 10240
_audit_creation_date 1980-01-01
_audit_update_record 1998-06-26
_chemical_name_systematic 'Sodium chromium catena-disilicate'
_chemical_formula_structural 'Na Cr (Si2 O6)'
_chemical_formula_sum 'Cr1 Na1 O6 Si2'
_chemical_name_structure_type Pyroxene-CaMg(SiO3)2
_chemical_name_mineral Kosmochlor
_exptl_crystal_density_diffrn 3.55
_cell_measurement_temperature 873.
_publ_section_title

;
High-temperature crystal chemistry of acmite, diopside, Hedenbergite, jadeite,
spodumene, and ureyite
;
loop_
_citation_id
_citation_journal_full
_citation_year
_citation_journal_volume
_citation_page_first
_citation_page_last
_citation_journal_id_ASTM
primary 'American Mineralogist' 1973 58 594 618 AMMIAY
loop_
_publ_author_name
'Cameron, M.'
'Sueno, S.'
'Prewitt, C.T.'
'Papike, J.J.'
_cell_length_a 9.612(1)
_cell_length_b 8.770(1)
_cell_length_c 5.279(1)
_cell_angle_alpha 90.
_cell_angle_beta 107.25(1)
_cell_angle_gamma 90.
_cell_volume 424.99
_cell_formula_units_Z 4
_symmetry_space_group_name_H-M 'C 1 2/c 1'
_symmetry_Int_Tables_number 15
_refine_ls_R_factor_all 0.099
loop_
_symmetry_equiv_pos_site_id
_symmetry_equiv_pos_as_xyz
1 'x, -y, z+1/2'
2 '-x, -y, -z'
3 '-x, y, -z+1/2'
4 'x, y, z'
5 'x+1/2, -y+1/2, z+1/2'
6 '-x+1/2, -y+1/2, -z'
7 '-x+1/2, y+1/2, -z+1/2'
8 'x+1/2, y+1/2, z'
loop_
_atom_type_symbol
_atom_type_oxidation_number
O2- -2
Si4+ 4
Cr3+ 3
Na1+ 1
loop_
_atom_site_label
_atom_site_type_symbol
_atom_site_symmetry_multiplicity
_atom_site_Wyckoff_symbol
_atom_site_fract_x
_atom_site_fract_y
_atom_site_fract_z
_atom_site_B_iso_or_equiv
_atom_site_occupancy
_atom_site_attached_hydrogens
O1 O2- 8 f 0.1140(4) 0.0782(4) 0.1362(7) 0.94(6) 1. 0
O2 O2- 8 f 0.3611(5) 0.2573(5) 0.3025(9) 1.44(7) 1. 0
O3 O2- 8 f 0.3519(4) 0.0094(5) 0.0074(8) 1.29(6) 1. 0
Si1 Si4+ 8 f 0.2921(2) 0.0912(2) 0.2324(3) 0.83(3) 1. 0
Cr1 Cr3+ 4 e 0 0.9066(1) 0.25 0.84(3) 1. 0
Na1 Na1+ 4 e 0 0.3010(4) 0.25 2.44(8) 1. 0
#End of TTdata_10240-ICSD