
#(C) 2019 by FIZ Karlsruhe - Leibniz Institute for Information Infrastructure.  All rights reserved.
data_10266-ICSD
_database_code_ICSD 10266
_audit_creation_date 1980-01-01
_audit_update_record 2007-08-01
_chemical_name_systematic 'Disodium pentaoxotetrahydroxotetraborate trihydrate'
_chemical_formula_structural 'Na2 (B4 O5 (O H)4) (H2 O)3'
_chemical_formula_sum 'H10 B4 Na2 O12'
_chemical_name_mineral Tincalconite
_exptl_crystal_density_diffrn 1.94
_publ_section_title 'The crystal structure of tincalconite'
loop_
_citation_id
_citation_journal_full
_citation_year
_citation_journal_volume
_citation_page_first
_citation_page_last
_citation_journal_id_ASTM
primary 'American Mineralogist' 1973 58 523 530 AMMIAY
loop_
_publ_author_name
'Giacovazzo, C.'
'Menchetti, S.'
'Scordari, F.'
_cell_length_a 11.09(3)
_cell_length_b 11.09(3)
_cell_length_c 21.070(40)
_cell_angle_alpha 90.
_cell_angle_beta 90.
_cell_angle_gamma 120.
_cell_volume 2244.18
_cell_formula_units_Z 9
_symmetry_space_group_name_H-M 'R 3 2 H'
_symmetry_Int_Tables_number 155
_refine_ls_R_factor_all 0.06
loop_
_symmetry_equiv_pos_site_id
_symmetry_equiv_pos_as_xyz
1 '-x, -x+y, -z'
2 'x-y, -y, -z'
3 'y, x, -z'
4 '-x+y, -x, z'
5 '-y, x-y, z'
6 'x, y, z'
7 '-x+2/3, -x+y+1/3, -z+1/3'
8 'x-y+2/3, -y+1/3, -z+1/3'
9 'y+2/3, x+1/3, -z+1/3'
10 '-x+y+2/3, -x+1/3, z+1/3'
11 '-y+2/3, x-y+1/3, z+1/3'
12 'x+2/3, y+1/3, z+1/3'
13 '-x+1/3, -x+y+2/3, -z+2/3'
14 'x-y+1/3, -y+2/3, -z+2/3'
15 'y+1/3, x+2/3, -z+2/3'
16 '-x+y+1/3, -x+2/3, z+2/3'
17 '-y+1/3, x-y+2/3, z+2/3'
18 'x+1/3, y+2/3, z+2/3'
loop_
_atom_type_symbol
_atom_type_oxidation_number
Na1+ 1
B3+ 3
O2- -2
H1+ 1
loop_
_atom_site_label
_atom_site_type_symbol
_atom_site_symmetry_multiplicity
_atom_site_Wyckoff_symbol
_atom_site_fract_x
_atom_site_fract_y
_atom_site_fract_z
_atom_site_B_iso_or_equiv
_atom_site_occupancy
_atom_site_attached_hydrogens
Na1 Na1+ 9 e 0 0.6695(5) 0.5 . 1. 0
Na2 Na1+ 3 b 0 0 0.5 . 1. 0
Na3 Na1+ 6 c 0 0 0.0928(5) . 1. 0
B1 B3+ 18 f 0.0926(11) 0.2676(12) 0.3825(7) . 1. 0
B2 B3+ 18 f 0.2385(12) 0.0585(12) 0.2882(9) . 1. 0
O1 O2- 9 d 0 0.5334(8) 0 . 1. 0
O2 O2- 18 f 0.0325(7) 0.2911(7) 0.2526(4) . 1. 0
O3 O2- 18 f 0.2129(7) 0.0421(7) 0.3503(5) . 1. 0
O4 O2- 18 f 0.1281(7) 0.1942(7) 0.4290(4) . 1. 0
O5 O2- 18 f 0.2630(12) 0.1794(8) 0.2577(5) . 1. 0
O6 O2- 18 f 0.0885(8) 0.2223(9) 0.1339(4) . 1. 0
O7 O2- 9 d 0 0.8620(28) 0 17. 1. 0
H1 H1+ 18 f 0.1581 0.1411 0.4015 3. 1. 0
H2 H1+ 18 f 0.2383 0.2367 0.2859 3. 1. 0
H3 H1+ 18 f 0.0684 0.2484 0.1766 3. 1. 0
H4 H1+ 18 f 0.0425 0.2743 0.1151 3. 1. 0
H5 H1+ 18 f 0.0515 0.8217 0.9747 3. 1. 0
loop_
_atom_site_aniso_label
_atom_site_aniso_type_symbol
_atom_site_aniso_beta_11
_atom_site_aniso_beta_22
_atom_site_aniso_beta_33
_atom_site_aniso_beta_12
_atom_site_aniso_beta_13
_atom_site_aniso_beta_23
Na1 Na1+ 0.0038(6) 0.0040(4) 0.0007(2) 0.0019 0.0001(3) 0.0001
Na2 Na1+ 0.0029(7) 0.0029 0.0012(5) 0.0014 0 0
Na3 Na1+ 0.0075(6) 0.0075 0.0021(4) 0.0038 0 0
B1 B3+ 0.0022(11) 0.0043(12) 0.0004(5) 0.0022(10) 0.0002(5) 0.0001(5)
B2 B3+ 0.0036(12) 0.0024(12) 0.0012(7) 0.0019(10) 0.0004(6) 0.0004(6)
O1 O2- 0.0004(9) 0.0013(7) 0.0007(4) 0.0002 -.0005(4) -.0003
O2 O2- 0.0031(7) 0.0014(7) 0.0010(3) 0.0000(6) -.0007(3) 0.0007(3)
O3 O2- 0.0043(8) 0.0019(7) 0.0006(4) 0.0015(6) 0.0003(4) 0.0002(3)
O4 O2- 0.0039(7) 0.0017(7) 0.0006(3) 0.0021(5) 0.0004(3) 0.0002(3)
O5 O2- 0.0170(16) 0.0054(9) 0.0017(4) 0.0086(11) 0.0030(6) 0.0021(4)
O6 O2- 0.0075(9) 0.0066(10) 0.0005(3) 0.0044(8) -.0009(4) -.0004(4)
#End of TTdata_10266-ICSD