
#(C) 2017 by FIZ Karlsruhe - Leibniz Institute for Information Infrastructure.  All rights reserved.
data_10281-ICSD
_database_code_ICSD 10281
_audit_creation_date 1980-01-01
_chemical_name_systematic 'Lithium difluorodioxotantalate'
_chemical_formula_structural 'Li Ta O2 F2'
_chemical_formula_sum 'F2 Li1 O2 Ta1'
_exptl_crystal_density_diffrn 5.54
_publ_section_title
'The crystal structure of lithium tantalum oxyfluoride Li Ta O2 F2'
loop_
_citation_id
_citation_journal_full
_citation_year
_citation_journal_volume
_citation_page_first
_citation_page_last
_citation_journal_id_ASTM
primary 'Materials Research Bulletin' 1973 8 117 126 MRBUAC
loop_
_publ_author_name
'Vlasse, M.'
'Chaminade, J.P.'
'Pouchard, M.'
_cell_length_a 3.903(3)
_cell_length_b 3.903(3)
_cell_length_c 25.380(8)
_cell_angle_alpha 90.
_cell_angle_beta 90.
_cell_angle_gamma 90.
_cell_volume 386.62
_cell_formula_units_Z 5
_symmetry_space_group_name_H-M 'I 4/m m m'
_symmetry_Int_Tables_number 139
_refine_ls_R_factor_all 0.056
loop_
_symmetry_equiv_pos_site_id
_symmetry_equiv_pos_as_xyz
1 'y, x, -z'
2 '-y, -x, -z'
3 '-y, x, -z'
4 'y, -x, -z'
5 '-x, y, -z'
6 'x, -y, -z'
7 'x, y, -z'
8 '-x, -y, -z'
9 '-y, -x, z'
10 'y, x, z'
11 'y, -x, z'
12 '-y, x, z'
13 'x, -y, z'
14 '-x, y, z'
15 '-x, -y, z'
16 'x, y, z'
17 'y+1/2, x+1/2, -z+1/2'
18 '-y+1/2, -x+1/2, -z+1/2'
19 '-y+1/2, x+1/2, -z+1/2'
20 'y+1/2, -x+1/2, -z+1/2'
21 '-x+1/2, y+1/2, -z+1/2'
22 'x+1/2, -y+1/2, -z+1/2'
23 'x+1/2, y+1/2, -z+1/2'
24 '-x+1/2, -y+1/2, -z+1/2'
25 '-y+1/2, -x+1/2, z+1/2'
26 'y+1/2, x+1/2, z+1/2'
27 'y+1/2, -x+1/2, z+1/2'
28 '-y+1/2, x+1/2, z+1/2'
29 'x+1/2, -y+1/2, z+1/2'
30 '-x+1/2, y+1/2, z+1/2'
31 '-x+1/2, -y+1/2, z+1/2'
32 'x+1/2, y+1/2, z+1/2'
loop_
_atom_type_symbol
_atom_type_oxidation_number
Ta5+ 5
Li1+ 1
O2- -2
F1- -1
O2- -2
F1- -1
O2- -2
F1- -1
O2- -2
F1- -1
loop_
_atom_site_label
_atom_site_type_symbol
_atom_site_symmetry_multiplicity
_atom_site_Wyckoff_symbol
_atom_site_fract_x
_atom_site_fract_y
_atom_site_fract_z
_atom_site_B_iso_or_equiv
_atom_site_occupancy
_atom_site_attached_hydrogens
Ta1 Ta5+ 2 a 0 0 0 . 1. 0
Ta2 Ta5+ 4 e 0 0 0.149 . 0.75 0
Li1 Li1+ 4 e 0 0 0.149 . 0.25 0
Li2 Li1+ 4 e 0 0 0.3180(15) 3. 1. 0
O1 O2- 4 c 0 0.5 0 . 0.5 0
F1 F1- 4 c 0 0.5 0 . 0.5 0
O2 O2- 4 e 0 0 0.0765(7) . 0.5 0
F2 F1- 4 e 0 0 0.0765(7) . 0.5 0
O3 O2- 4 e 0 0 0.2323(5) . 0.5 0
F3 F1- 4 e 0 0 0.2323(5) . 0.5 0
O4 O2- 8 g 0 0.5 0.1578(4) . 0.5 0
F4 F1- 8 g 0 0.5 0.1578(4) . 0.5 0
loop_
_atom_site_aniso_label
_atom_site_aniso_type_symbol
_atom_site_aniso_beta_11
_atom_site_aniso_beta_22
_atom_site_aniso_beta_33
_atom_site_aniso_beta_12
_atom_site_aniso_beta_13
_atom_site_aniso_beta_23
Ta1 Ta5+ 0.0251(4) 0.0251(4) 0.0004 0 0 0
Ta2 Ta5+ 0.0161(3) 0.0161(3) 0.0002 0 0 0
Li1 Li1+ 0.0161(3) 0.0161(3) 0.0002 0 0 0
O1 O2- 0.0349(81) 0.0272(80) 0.0007(1) 0 0 0
F1 F1- 0.0349(81) 0.0272(80) 0.0007(1) 0 0 0
O2 O2- 0.0440(79) 0.0440(79) 0.0013(3) 0 0 0
F2 F1- 0.0440(79) 0.0440(79) 0.0013(3) 0 0 0
O3 O2- 0.0182(35) 0.0182(35) 0.0007(1) 0 0 0
F3 F1- 0.0182(35) 0.0182(35) 0.0007(1) 0 0 0
O4 O2- 0.0222(43) 0.0228(44) 0.0009(1) 0 0 0
F4 F1- 0.0222(43) 0.0228(44) 0.0009(1) 0 0 0
#End of TTdata_10281-ICSD