
#(C) 2019 by FIZ Karlsruhe - Leibniz Institute for Information Infrastructure.  All rights reserved.
data_10370-ICSD
_database_code_ICSD 10370
_audit_creation_date 1980-01-01
_audit_update_record 2007-08-01
_chemical_name_systematic 'Tetrasodium diphosphate(V)'
_chemical_formula_structural 'Na4 (P2 O7)'
_chemical_formula_sum 'Na4 O7 P2'
_exptl_crystal_density_diffrn 2.6
_publ_section_title 'The structure of Na4 P2 O7 at 295 K'
loop_
_citation_id
_citation_journal_full
_citation_year
_citation_journal_volume
_citation_page_first
_citation_page_last
_citation_journal_id_ASTM
primary 'Canadian Journal of Chemistry' 1972 50 2519 2526 CJCHAG
loop_
_publ_author_name
'Leung, K.Y.'
'Calvo, C.'
_cell_length_a 9.367(5)
_cell_length_b 5.390(2)
_cell_length_c 13.480(8)
_cell_angle_alpha 90.
_cell_angle_beta 90.
_cell_angle_gamma 90.
_cell_volume 680.58
_cell_formula_units_Z 4
_symmetry_space_group_name_H-M 'P 21 21 21'
_symmetry_Int_Tables_number 19
_refine_ls_R_factor_all 0.022
loop_
_symmetry_equiv_pos_site_id
_symmetry_equiv_pos_as_xyz
1 '-x, y+1/2, -z+1/2'
2 'x+1/2, -y+1/2, -z'
3 '-x+1/2, -y, z+1/2'
4 'x, y, z'
loop_
_atom_type_symbol
_atom_type_oxidation_number
Na1+ 1
P5+ 5
O2- -2
loop_
_atom_site_label
_atom_site_type_symbol
_atom_site_symmetry_multiplicity
_atom_site_Wyckoff_symbol
_atom_site_fract_x
_atom_site_fract_y
_atom_site_fract_z
_atom_site_B_iso_or_equiv
_atom_site_occupancy
_atom_site_attached_hydrogens
Na1 Na1+ 4 a 0.7225(1) 0.4992(2) -.01678(7) . 1. 0
Na2 Na1+ 4 a 0.7419(1) 0.4848(2) 0.23603(7) . 1. 0
Na3 Na1+ 4 a 0.3721(1) 0.4961(2) 0.15454(7) . 1. 0
Na4 Na1+ 4 a 0.9154(1) -.0268(2) 0.16744(8) . 1. 0
P1 P5+ 4 a 0.55704(6) 0.0113(1) -.10609(4) . 1. 0
P2 P5+ 4 a 0.56380(6) -.0223(1) 0.11128(4) . 1. 0
O1 O2- 4 a 0.6102(2) 0.0971(3) 0.0040(1) . 1. 0
O2 O2- 4 a 0.5944(2) 0.2338(3) -.1693(1) . 1. 0
O3 O2- 4 a 0.6453(2) -.2131(3) -.1339(1) . 1. 0
O4 O2- 4 a 0.3990(2) -.0447(4) -.1019(1) . 1. 0
O5 O2- 4 a 0.6764(2) 0.0803(4) 0.1805(1) . 1. 0
O6 O2- 4 a 0.5705(2) -.3017(3) 0.1009(4) . 1. 0
O7 O2- 4 a 0.4154(2) 0.0744(4) 0.1333(1) . 1. 0
loop_
_atom_site_aniso_label
_atom_site_aniso_type_symbol
_atom_site_aniso_U_11
_atom_site_aniso_U_22
_atom_site_aniso_U_33
_atom_site_aniso_U_12
_atom_site_aniso_U_13
_atom_site_aniso_U_23
Na1 Na1+ 0.0146(4) 0.0144(4) 0.01591(4) 0.0009(5) -.0006(3) 0.0008(4)
Na2 Na1+ 0.0197(5) 0.0193(5) 0.0180(4) -.0034(5) 0.0059(4) -.0019(5)
Na3 Na1+ 0.0165(5) 0.0198(5) 0.0179(4) 0.0006(5) 0.0023(3) -.0020(5)
Na4 Na1+ 0.0161(5) 0.0161(5) 0.0210(4) -.0013(4) 0.0008(4) -.0006(4)
P1 P5+ 0.0088(2) 0.0091(2) 0.0082(2) -.0001(2) -.0001(2) 0.0001(2)
P2 P5+ 0.0090(2) 0.0100(2) 0.0083(2) -.0006(2) 0.0006(2) 0.0000(2)
O1 O2- 0.0152(8) 0.0140(7) 0.0081(6) -.0051(6) 0.0002(5) 0.0000(6)
O2 O2- 0.025(6) 0.0119(7) 0.0132(7) 0.0005(6) 0.0004(6) 0.0052(6)
O3 O2- 0.0179(9) 0.0119(7) 0.0140(7) 0.0055(7) 0.0019(6) -.0018(6)
O4 O2- 0.0087(8) 0.0275(10) 0.0152(7) -.0019(7) -.0006(5) -.0043(8)
O5 O2- 0.0122(8) 0.0241(9) 0.0115(7) -.0027(7) -.0035(5) -.0028(7)
O6 O2- 0.0205(9) 0.0093(7) 0.0206(8) -.0009(7) 0.0063(7) 0.0001(6)
O7 O2- 0.0110(8) 0.0191(8) 0.0149(7) 0.0018(6) 0.0032(5) -.0023(6)
#End of TTdata_10370-ICSD