
#(C) 2019 by FIZ Karlsruhe - Leibniz Institute for Information Infrastructure.  All rights reserved.
data_10417-ICSD
_database_code_ICSD 10417
_audit_creation_date 1980-01-01
_audit_update_record 1997-11-10
_chemical_name_systematic 'Sodium magnesium borate hydrate *'
_chemical_formula_structural 'Na2 Mg (B6 O8 (O H)4)2 (H2 O)4'
_chemical_formula_sum 'H16 B12 Mg1 Na2 O28'
_chemical_name_mineral Aristarainite
_exptl_crystal_density_diffrn 2.01
_publ_section_title

;
Aristarainite: Na2 Mg (B6 O8 (O H)4)2 (H2 O)4 : a sheet structure with chains
of hexaborate polyanions
;
loop_
_citation_id
_citation_journal_full
_citation_year
_citation_journal_volume
_citation_page_first
_citation_page_last
_citation_journal_id_ASTM
primary 'American Mineralogist' 1977 62 979 989 AMMIAY
loop_
_publ_author_name
'Ghose, S.'
'Wan, C.'
_cell_length_a 18.8862(42)
_cell_length_b 7.5208(15)
_cell_length_c 7.8152(8)
_cell_angle_alpha 90.
_cell_angle_beta 97.719(14)
_cell_angle_gamma 90.
_cell_volume 1100.01
_cell_formula_units_Z 2
_symmetry_space_group_name_H-M 'P 1 21/a 1'
_symmetry_Int_Tables_number 14
_refine_ls_R_factor_all 0.036
loop_
_symmetry_equiv_pos_site_id
_symmetry_equiv_pos_as_xyz
1 'x+1/2, -y+1/2, z'
2 '-x, -y, -z'
3 '-x+1/2, y+1/2, -z'
4 'x, y, z'
loop_
_atom_type_symbol
_atom_type_oxidation_number
Mg2+ 2
Na1+ 1
B3+ 3
O2- -2
H1+ 1
loop_
_atom_site_label
_atom_site_type_symbol
_atom_site_symmetry_multiplicity
_atom_site_Wyckoff_symbol
_atom_site_fract_x
_atom_site_fract_y
_atom_site_fract_z
_atom_site_B_iso_or_equiv
_atom_site_occupancy
_atom_site_attached_hydrogens
Mg1 Mg2+ 2 a 0 0 0 . 1. 0
Na1 Na1+ 4 e 0.15952(4) 0.3596(1) 0.2899 . 1. 0
B1 B3+ 4 e 0.4347(1) 0.3460(3) 0.3264(2) . 1. 0
B2 B3+ 4 e 0.38760(9) 0.1974(3) 0.0335(2) . 1. 0
B3 B3+ 4 e 0.30083(10) 0.4000(3) 0.1834(2) . 1. 0
B4 B3+ 4 e 0.47496(11) 0.0483(3) 0.2533(3) . 1. 0
B5 B3+ 4 e 0.25658(10) 0.1548(3) 0.9888(2) . 1. 0
B6 B3+ 4 e 0.33928(11) 0.4416(3) 0.4961(3) . 1. 0
O1 O2- 4 e 0.47237(6) 0.1790(2) 0.3709(1) . 1. 0
O2 O2- 4 e 0.48064(6) 0.4734(2) 0.2541(1) . 1. 0
O3 O2- 4 e 0.37300(5) 0.3084(1) 0.1864(1) . 1. 0
O4 O2- 4 e 0.40957(6) 0.4121(2) 0.4814(1) . 1. 0
O5 O2- 4 e 0.43580(6) 0.0515(2) 0.0943(1) . 1. 0
O6 O2- 4 e 0.42279(6) 0.3154(2) 0.9188(1) . 1. 0
O7 O2- 4 e 0.32265(6) 0.1240(2) 0.9421(1) . 1. 0
O8 O2- 4 e 0.24590(6) 0.2806(2) 0.1069(1) . 1. 0
O9 O2- 4 e 0.19713(6) 0.0630(2) 0.9168(2) . 1. 0
O10 O2- 4 e 0.28768(6) 0.4373(2) 0.3579(1) . 1. 0
O11 O2- 4 e 0.48078(8) 0.0953(2) 0.7071(2) . 1. 0
O12 O2- 4 e 0.31871(7) 0.4800(2) 0.6537(2) . 1. 0
O13 O2- 4 e 0.08086(6) 0.2036(2) 0.0388(1) . 1. 0
O14 O2- 4 e 0.16514(11) 0.3779(3) 0.5931(3) . 1. 0
H1 H1+ 4 e 0.489(1) 0.491(3) 0.667(3) 0.8(5) 1. 0
H2 H1+ 4 e 0.438(1) 0.238(3) 0.842(3) 1.2(5) 1. 0
H3 H1+ 4 e 0.476(1) 0.118(3) 0.599(3) 1.4(5) 1. 0
H4 H1+ 4 e 0.348(1) 0.444(3) 0.741(3) 1.4(5) 1. 0
H5 H1+ 4 e 0.073(1) 0.309(3) 0.983(3) 1.0(5) 1. 0
H6 H1+ 4 e 0.119(2) 0.161(4) -.007(3) 2.4(6) 1. 0
H7 H1+ 4 e 0.166(2) 0.502(5) 0.562(4) 3.2(8) 1. 0
H8 H1+ 4 e 0.184(4) 0.367(10) 0.715(10) 5.00(19) 0.5 0
H9 H1+ 4 e 0.117(4) 0.289(9) 0.585(7) 3.60(14) 0.5 0
loop_
_atom_site_aniso_label
_atom_site_aniso_type_symbol
_atom_site_aniso_beta_11
_atom_site_aniso_beta_22
_atom_site_aniso_beta_33
_atom_site_aniso_beta_12
_atom_site_aniso_beta_13
_atom_site_aniso_beta_23
Mg1 Mg2+ 0.00070(2) 0.00554(15) 0.00410(13) 0.00045(5) 0.00017(4) 0.00009(11)
Na1 Na1+ 0.00157(3) 0.02380(23) 0.01059(15) -.00167(6) -.00001(5) -.00302(15)
B1 B3+ 0.00066(5) 0.00528(35) 0.0035(3) 0.00006(11) -.0001(1) -.00027(27)
B2 B3+ 0.00065(5) 0.00470(35) 0.00421(29) 0.00000(11) 0.00028(10) -.00061(27)
B3 B3+ 0.00062(5) 0.00544(35) 0.00377(30) 0.00022(11) 0.00013(10) -.00041(26)
B4 B3+ 0.00117(6) 0.00659(38) 0.00523(34) 0.00067(12) 0.00092(11) 0.00065(29)
B5 B3+ 0.00078(5) 0.00429(33) 0.00448(30) -.00009(11) 0.00009(10) 0.00064(27)
B6 B3+ 0.00102(6) 0.00684(36) 0.00515(34) 0.00039(12) 0.00037(11) -.00020(29)
O1 O2- 0.00114(4) 0.00685(23) 0.00475(19) 0.00091(8) -.00034(7) -.00005(18)
O2 O2- 0.00094(3) 0.00852(24) 0.00385(20) -.00110(7) -.00001(7) -.00028(17)
O3 O2- 0.00060(3) 0.00486(21) 0.00354(18) 0.00015(7) -.00001(6) -.00030(17)
O4 O2- 0.00083(3) 0.00773(23) 0.00376(19) 0.00002(7) 0.00014(6) -.00092(17)
O5 O2- 0.00105(4) 0.00556(22) 0.00475(21) 0.00069(7) 0.00014(7) -.00031(17)
O6 O2- 0.00075(3) 0.00528(21) 0.00423(19) -.00025(7) 0.00042(6) -.00060(17)
O7 O2- 0.00066(3) 0.00723(23) 0.00552(20) -.00053(7) 0.00031(7) -.00208(17)
O8 O2- 0.00061(3) 0.00639(23) 0.00680(21) -.00031(7) 0.00033(7) -.00177(18)
O9 O2- 0.00057(3) 0.00617(23) 0.00783(22) -.00021(7) 0.00009(7) -.00208(18)
O10 O2- 0.00080(3) 0.01054(25) 0.00453(20) 0.00080(7) 0.00019(7) -.00114(19)
O11 O2- 0.00340(6) 0.01275(30) 0.00404(21) 0.00480(11) 0.00038(9) 0.00107(21)
O12 O2- 0.00137(4) 0.02170(36) 0.00438(23) 0.00226(10) 0.00034(8) -.00154(23)
O13 O2- 0.00087(3) 0.00671(23) 0.00790(22) 0.00008(7) 0.00041(7) 0.00061(19)
O14 O2- 0.00392(8) 0.03457(59) 0.02377(46) 0.00174(18) 0.00383(15) 0.00026(43)
#End of TTdata_10417-ICSD