
#(C) 2018 by FIZ Karlsruhe - Leibniz Institute for Information Infrastructure.  All rights reserved.
data_10479-ICSD
_database_code_ICSD 10479
_audit_creation_date 1980-01-01
_audit_update_record 2006-04-01
_chemical_name_systematic 'Dilithium tungstate - II'
_chemical_formula_structural 'Li2 (W O4)'
_chemical_formula_sum 'Li2 O4 W1'
_chemical_name_structure_type CdBi2O4
_exptl_crystal_density_diffrn 5.79
_publ_section_title
'The crystal structure of Li2 W O4 II: A structure related to spinel'
loop_
_citation_id
_citation_journal_full
_citation_year
_citation_journal_volume
_citation_page_first
_citation_page_last
_citation_journal_id_ASTM
primary 'Journal of Solid State Chemistry' 1979 30 129 135 JSSCBI
loop_
_publ_author_name
'Horiuchi, H.'
'Morimoto, N.'
'Yamaoka, S.'
_cell_length_a 11.954(2)
_cell_length_b 11.954(2)
_cell_length_c 8.410(1)
_cell_angle_alpha 90.
_cell_angle_beta 90.
_cell_angle_gamma 90.
_cell_volume 1201.77
_cell_formula_units_Z 16
_symmetry_space_group_name_H-M 'I 41/a m d Z'
_symmetry_Int_Tables_number 141
_refine_ls_R_factor_all 0.032
loop_
_symmetry_equiv_pos_site_id
_symmetry_equiv_pos_as_xyz
1 'y+1/4, x+3/4, -z+1/4'
2 'y+1/4, -x+3/4, -z+1/4'
3 'x, y+1/2, -z'
4 'x, -y, -z'
5 '-y+3/4, x+3/4, -z+1/4'
6 '-y+3/4, -x+3/4, -z+1/4'
7 '-x, y+1/2, -z'
8 '-x, -y, -z'
9 '-y+3/4, -x+1/4, z+3/4'
10 '-y+3/4, x+1/4, z+3/4'
11 '-x, -y+1/2, z'
12 '-x, y, z'
13 'y+1/4, -x+1/4, z+3/4'
14 'y+1/4, x+1/4, z+3/4'
15 'x, -y+1/2, z'
16 'x, y, z'
17 'y+3/4, x+1/4, -z+3/4'
18 'y+3/4, -x+1/4, -z+3/4'
19 'x+1/2, y, -z+1/2'
20 'x+1/2, -y+1/2, -z+1/2'
21 '-y+1/4, x+1/4, -z+3/4'
22 '-y+1/4, -x+1/4, -z+3/4'
23 '-x+1/2, y, -z+1/2'
24 '-x+1/2, -y+1/2, -z+1/2'
25 '-y+1/4, -x+3/4, z+1/4'
26 '-y+1/4, x+3/4, z+1/4'
27 '-x+1/2, -y, z+1/2'
28 '-x+1/2, y+1/2, z+1/2'
29 'y+3/4, -x+3/4, z+1/4'
30 'y+3/4, x+3/4, z+1/4'
31 'x+1/2, -y, z+1/2'
32 'x+1/2, y+1/2, z+1/2'
loop_
_atom_type_symbol
_atom_type_oxidation_number
W6+ 6
O2- -2
Li1+ 1
loop_
_atom_site_label
_atom_site_type_symbol
_atom_site_symmetry_multiplicity
_atom_site_Wyckoff_symbol
_atom_site_fract_x
_atom_site_fract_y
_atom_site_fract_z
_atom_site_B_iso_or_equiv
_atom_site_occupancy
_atom_site_attached_hydrogens
W1 W6+ 16 h 0.36394(4) 0.25 -.02805(6) . 1. 0
O1 O2- 16 h 0 0.1273(9) 0.0175(12) . 1. 0
O2 O2- 16 h 0 0.1449(8) 0.4852(12) . 1. 0
O3 O2- 32 i 0.1150(6) 0.0223(5) 0.2542(10) . 1. 0
Li1 Li1+ 16 g 0.1300(18) 0.8800(18) 0.125 . 1. 0
Li2 Li1+ 16 f 0.374(6) 0 0 . 1. 0
loop_
_atom_site_aniso_label
_atom_site_aniso_type_symbol
_atom_site_aniso_beta_11
_atom_site_aniso_beta_22
_atom_site_aniso_beta_33
_atom_site_aniso_beta_12
_atom_site_aniso_beta_13
_atom_site_aniso_beta_23
W1 W6+ 0.00063(3) 0.0008(6) 0.00175(6) 0 -.00016(3) 0
O1 O2- 0.0031(7) 0.0015(7) 0.0018(13) 0 0 0.0002(7)
O2 O2- 0.0004(5) 0.0006(6) 0.0030(12) 0 0 -.0009(7)
O3 O2- 0.0013(4) 0.0003(4) 0.0052(9) 0.0002(3) -.0006(6) -.0003(5)
Li1 Li1+ 0.0025(11) 0.0025 0.005(3) 0.0010(14) -.0004(10) 0.0004
Li2 Li1+ 0.013(5) 0.0009(17) 0.012(6) 0 0 -.0030(25)
#End of TTdata_10479-ICSD