
#(C) 2018 by FIZ Karlsruhe - Leibniz Institute for Information Infrastructure.  All rights reserved.
data_107724-ICSD
_database_code_ICSD 107724
_audit_creation_date 2009-02-01
_chemical_name_systematic 'Dilithium barium diphosphate(V)'
_chemical_formula_structural 'Li2 Ba (P2 O7)'
_chemical_formula_sum 'Ba1 Li2 O7 P2'
_chemical_name_structure_type Li2BaP2O7
_exptl_crystal_density_diffrn 3.61
_publ_section_title 'The crystal structure of Li2 Ba P2 O7'
loop_
_citation_id
_citation_journal_full
_citation_year
_citation_journal_volume
_citation_page_first
_citation_page_last
_citation_journal_id_ASTM
primary 'Private Communication' 2009 2009 1 2 PRICO6
loop_
_publ_author_name
'Kutoglu, A.'
'Nikolov, V.'
'Petrov, K.'
'Allmann, R.'
_cell_length_a 13.865(3)
_cell_length_b 12.163(2)
_cell_length_c 7.087(1)
_cell_angle_alpha 90.
_cell_angle_beta 90.70(1)
_cell_angle_gamma 90.
_cell_volume 1195.06
_cell_formula_units_Z 8
_symmetry_space_group_name_H-M 'A 1 2/a 1'
_symmetry_Int_Tables_number 15
_refine_ls_R_factor_all 0.0171
loop_
_symmetry_equiv_pos_site_id
_symmetry_equiv_pos_as_xyz
1 '-x+1/2, y, -z'
2 '-x, -y, -z'
3 'x+1/2, -y, z'
4 'x, y, z'
5 '-x+1/2, y+1/2, -z+1/2'
6 '-x, -y+1/2, -z+1/2'
7 'x+1/2, -y+1/2, z+1/2'
8 'x, y+1/2, z+1/2'
loop_
_atom_type_symbol
_atom_type_oxidation_number
Ba2+ 2
P5+ 5
O2- -2
Li1+ 1
loop_
_atom_site_label
_atom_site_type_symbol
_atom_site_symmetry_multiplicity
_atom_site_Wyckoff_symbol
_atom_site_fract_x
_atom_site_fract_y
_atom_site_fract_z
_atom_site_B_iso_or_equiv
_atom_site_occupancy
_atom_site_attached_hydrogens
Ba1 Ba2+ 8 f .12092(1) .02648(1) .18354(2) 0.83(1) 1. 0
P1 P5+ 8 f .11914(4) .10470(5) -.32276(8) 0.91(2) 1. 0
P2 P5+ 8 f .13481(4) .36975(5) .21983(8) 0.68(2) 1. 0
O1 O2- 8 f .2001(1) .1094(1) -.1717(2) 0.97(6) 1. 0
O2 O2- 8 f .0214(1) .1263(1) -.2412(2) 1.14(6) 1. 0
O3 O2- 8 f .1336(1) .1742(1) .5023(2) 1.18(6) 1. 0
O4 O2- 8 f .1216(1) -.0200(1) .5923(2) 0.98(6) 1. 0
O5 O2- 8 f .1145(1) .2736(1) .0898(2) 1.04(6) 1. 0
O6 O2- 8 f .2390(1) .3638(1) .2805(2) 1.29(6) 1. 0
O7 O2- 8 f .0643(1) .3871(1) .3788(2) 1.31(6) 1. 0
Li1 Li1+ 8 f .0080(3) .2646(3) .5323(5) 1.1(1) 1. 0
Li2 Li1+ 4 e .25 .2333(5) 0 1.3(2) 1. 0
Li3 Li1+ 4 e .25 .2340(4) 0 1.3(2) 1. 0
#End of TTdata_107724-ICSD