
#(C) 2019 by FIZ Karlsruhe - Leibniz Institute for Information Infrastructure.  All rights reserved.
data_108334-ICSD
_database_code_ICSD 108334
_audit_creation_date 2013-08-01
_chemical_name_systematic 'Sodium alumo-silicate (8.85/7.85/8.15/32)'
_chemical_formula_structural 'Na7.85 Al7.85 Si8.15 O32'
_chemical_formula_sum 'Al7.85 Na7.85 O32 Si8.15'
_chemical_name_mineral Trinepheline
_exptl_crystal_density_diffrn 2.62
_cell_measurement_temperature 373.
_publ_section_title
'On the high temperature behaviour of monoclinic trinepheline'
loop_
_citation_id
_citation_journal_full
_citation_year
_citation_journal_volume
_citation_page_first
_citation_page_last
_citation_journal_id_ASTM
primary

;
Neues Jahrbuch fuer Mineralogie, Geologie und Palaeontologie, Abhandlungen,
Abteilung A: Mineralogie, Petrographie
; 2012 189 197 206 NJGAAY
loop_
_publ_author_name
'Vulic, Pedrag'
'Kahlenberg, V.'
_cell_length_a 9.969(1)
_cell_length_b 9.969(1)
_cell_length_c 25.056(2)
_cell_angle_alpha 90.
_cell_angle_beta 90.
_cell_angle_gamma 120.
_cell_volume 2156.48
_cell_formula_units_Z 3
_symmetry_space_group_name_H-M 'P 61'
_symmetry_Int_Tables_number 169
_refine_ls_R_factor_all 0.064
loop_
_symmetry_equiv_pos_site_id
_symmetry_equiv_pos_as_xyz
1 'x-y, x, z+1/6'
2 'y, -x+y, z+5/6'
3 '-x, -y, z+1/2'
4 '-x+y, -x, z+2/3'
5 '-y, x-y, z+1/3'
6 'x, y, z'
loop_
_atom_type_symbol
_atom_type_oxidation_number
Na1+ 1
Si4+ 4
Al3+ 3
O2- -2
loop_
_atom_site_label
_atom_site_type_symbol
_atom_site_symmetry_multiplicity
_atom_site_Wyckoff_symbol
_atom_site_fract_x
_atom_site_fract_y
_atom_site_fract_z
_atom_site_B_iso_or_equiv
_atom_site_occupancy
_atom_site_attached_hydrogens
Na1 Na1+ 6 a 0.0369(15) 0.0512(15) 0.1713(7) .049(2) .308 0
Na2 Na1+ 6 a 0.0250(20) 0.0380(20) 0.8355(8) .062(4) .308 0
Na3 Na1+ 6 a 0.0242(16) 0.0372(15) 0.5045(7) .050(3) .308 0
Na4 Na1+ 6 a 0.4470(4) 0.4428(3) 0.1702(1) .029(1) 1. 0
Na5 Na1+ 6 a 0.4419(3) 0.4463(3) 0.8384(1) .026(1) 1. 0
Na6 Na1+ 6 a 0.4473(4) 0.4452(3) 0.5048(2) .031(1) 1. 0
Si1 Si4+ 6 a 0.3323(2) 0.6663(2) 0.2366(1) .014(1) .02 0
Si2 Si4+ 6 a 0.3329(3) 0.6639(2) 0.1054(1) .013(1) 1. 0
Si3 Si4+ 6 a 0.2393(2) 0.3298(2) 0.2764(1) .010(1) 1. 0
Si4 Si4+ 6 a 0.2371(2) 0.3324(2) 0.9437(1) .013(1) 1. 0
Si5 Si4+ 6 a 0.2385(2) 0.3307(2) 0.6097(1) .014(1) 1. 0
Si6 Si4+ 6 a 0.2338(3) 0.3265(2) 0.0681(1) .014(1) .02 0
Si7 Si4+ 6 a 0.2388(4) 0.3301(3) 0.7334(1) .014(1) .02 0
Si8 Si4+ 6 a 0.2416(2) 0.3330(2) 0.4003(1) .012(1) .02 0
Al1 Al3+ 6 a 0.3323(2) 0.6663(2) 0.2366(1) .014(1) .98 0
Al2 Al3+ 6 a 0.2338(3) 0.3265(2) 0.0681(1) .014(1) .98 0
Al3 Al3+ 6 a 0.2388(4) 0.3301(3) 0.7334(1) .014(1) .98 0
Al4 Al3+ 6 a 0.2416(2) 0.3330(2) 0.4003(1) .012(1) .98 0
O1 O2- 6 a 0.3260(16) 0.7049(16) 0.1704(6) .019(2) .333 0
O2 O2- 6 a 0.3687(19) 0.7050(20) 0.8383(7) .030(3) .333 0
O3 O2- 6 a 0.3596(17) 0.6906(17) 0.5014(7) .024(3) .333 0
O4 O2- 6 a 0.7122(6) 0.6913(7) 0.1702(2) .026(1) 1. 0
O5 O2- 6 a 0.7077(5) 0.6878(5) 0.8361(2) .023(1) 1. 0
O6 O2- 6 a 0.7181(5) 0.6974(6) 0.5044(2) .028(1) 1. 0
O7 O2- 6 a 0.3454(7) 0.5185(5) 0.0872(3) .036(2) 1. 0
O8 O2- 6 a 0.3479(7) 0.5266(5) 0.7487(3) .035(2) 1. 0
O9 O2- 6 a 0.3540(5) 0.5241(5) 0.4170(3) .025(1) 1. 0
O10 O2- 6 a 0.3459(6) 0.5053(5) 0.2579(3) .031(1) 1. 0
O11 O2- 6 a 0.3473(5) 0.5110(5) 0.9262(2) .026(1) 1. 0
O12 O2- 6 a 0.3452(5) 0.5056(5) 0.5906(2) .024(1) 1. 0
O13 O2- 6 a 0.2803(6) 0.2219(6) 0.1120(2) .024(1) 1. 0
O14 O2- 6 a 0.2866(6) 0.2311(6) 0.7786(2) .023(1) 1. 0
O15 O2- 6 a 0.2803(6) 0.2236(5) 0.4453(2) .016(1) 1. 0
O16 O2- 6 a 0.2674(6) 0.2222(6) 0.2354(2) .024(1) 1. 0
O17 O2- 6 a 0.2572(5) 0.2210(5) 0.9018(2) .019(1) 1. 0
O18 O2- 6 a 0.2604(7) 0.2194(6) 0.5679(2) .026(1) 1. 0
#End of TTdata_108334-ICSD