
#(C) 2019 by FIZ Karlsruhe - Leibniz Institute for Information Infrastructure.  All rights reserved.
data_108839-ICSD
_database_code_ICSD 108839
_audit_creation_date 2007-04-01
_audit_update_record 2012-02-01
_chemical_name_systematic 'Disodium hydrogenphosphate(V) heptahydrate'
_chemical_formula_structural 'Na2 (H P O4) (H2 O)7'
_chemical_formula_sum 'H15 Na2 O11 P1'
_chemical_name_structure_type Na2HPO4(H2O)7
_exptl_crystal_density_diffrn 1.69
_cell_measurement_temperature 297.
_publ_section_title
'Entropy and  crystal structure of hydrates of disodium hydrogen phosphate'
loop_
_citation_id
_citation_journal_full
_citation_year
_citation_journal_volume
_citation_page_first
_citation_page_last
_citation_journal_id_ASTM
primary 'Journal of Chemical Physics' 1990 94 7830 7834 JCPSA6
loop_
_publ_author_name
'Templeton, D.H.'
'Ruben, H.W.'
'Zalkin, A.'
_cell_length_a 10.432(6)
_cell_length_b 11.000(6)
_cell_length_c 9.252(6)
_cell_angle_alpha 90.
_cell_angle_beta 95.62(5)
_cell_angle_gamma 90.
_cell_volume 1056.58
_cell_formula_units_Z 4
_symmetry_space_group_name_H-M 'P 1 21/n 1'
_symmetry_Int_Tables_number 14
_refine_ls_R_factor_all 0.022
loop_
_symmetry_equiv_pos_site_id
_symmetry_equiv_pos_as_xyz
1 '-x+1/2, y+1/2, -z+1/2'
2 '-x, -y, -z'
3 'x+1/2, -y+1/2, z+1/2'
4 'x, y, z'
loop_
_atom_type_symbol
_atom_type_oxidation_number
P5+ 5
Na1+ 1
O2- -2
H1+ 1
loop_
_atom_site_label
_atom_site_type_symbol
_atom_site_symmetry_multiplicity
_atom_site_Wyckoff_symbol
_atom_site_fract_x
_atom_site_fract_y
_atom_site_fract_z
_atom_site_B_iso_or_equiv
_atom_site_occupancy
_atom_site_attached_hydrogens
P1 P5+ 4 e 0.39545(4) 0.23730(4) 0.10245(4) 1.4 1. 0
Na1 Na1+ 4 e 0.97556(8) 0.39618(7) 0.14094(9) 2.31 1. 0
Na2 Na1+ 4 e 0.97721(8) 0.10539(7) 0.13373(9) 2.16 1. 0
O1 O2- 4 e 0.3537(1) 0.2486(1) 0.2539(1) 2.1 1. 0
O2 O2- 4 e 0.5402(1) 0.2511(1) 0.0996(1) 2.03 1. 0
O3 O2- 4 e 0.3199(1) 0.3170(1) -.0084(2) 2.26 1. 0
O4 O2- 4 e 0.3620(2) 0.0984(1) 0.0631(2) 2.49 1. 0
O5 O2- 4 e 0.8517(2) 0.4771(2) -.0797(2) 2.83 1. 0
O6 O2- 4 e 0.0560(2) 0.2536(2) -.0227(2) 2.31 1. 0
O7 O2- 4 e 0.8116(1) 0.2493(2) 0.1932(2) 2.24 1. 0
O8 O2- 4 e 0.8710(2) 0.5109(2) 0.3060(2) 2.31 1. 0
O9 O2- 4 e 0.0938(2) 0.2500(2) 0.3028(2) 2.62 1. 0
O10 O2- 4 e 0.8623(2) 0.0359(2) -.0916(2) 2.41 1. 0
O11 O2- 4 e 0.8900(2) -.0046(2) 0.3195(2) 2.5 1. 0
H1 H1+ 4 e 0.368(3) 0.077(2) -.026(3) 3.3(7) 1. 0
H2 H1+ 4 e 0.833(2) 0.425(2) -.146(3) 2.8(7) 1. 0
H3 H1+ 4 e 0.783(3) 0.525(3) -.075(3) 4.2(8) 1. 0
H4 H1+ 4 e 0.007(3) 0.256(2) -.107(3) 3.1(6) 1. 0
H5 H1+ 4 e 0.139(3) 0.270(3) -.027(3) 4.2(7) 1. 0
H6 H1+ 4 e 0.733(3) 0.258(2) 0.157(3) 3.5(7) 1. 0
H7 H1+ 4 e 0.806(3) 0.235(3) 0.292(4) 6.4(9) 1. 0
H8 H1+ 4 e 0.895(3) 0.583(3) 0.334(3) 3.6(7) 1. 0
H9 H1+ 4 e 0.794(3) 0.514(2) 0.271(3) 2.3(6) 1. 0
H10 H1+ 4 e 0.173(3) 0.248(2) 0.293(3) 2.9(6) 1. 0
H11 H1+ 4 e 0.086(3) 0.251(2) 0.401(3) 3.6(6) 1. 0
H12 H1+ 4 e 0.851(3) 0.104(3) -.157(3) 5.1(8) 1. 0
H13 H1+ 4 e 0.794(3) -.003(2) -.093(3) 2.7(7) 1. 0
H14 H1+ 4 e 0.918(3) -.071(3) 0.354(3) 3.2(7) 1. 0
H15 H1+ 4 e 0.881(3) 0.050(3) 0.397(3) 3.8(7) 1. 0
#End of TTdata_108839-ICSD