
#(C) 2019 by FIZ Karlsruhe - Leibniz Institute for Information Infrastructure.  All rights reserved.
data_108838-ICSD
_database_code_ICSD 108838
_audit_creation_date 2007-04-01
_chemical_name_systematic 'Disodium hydrogenphosphate(V) hydrate'
_chemical_formula_structural 'Na2 (H P O4) (H2 O)'
_chemical_formula_sum 'H3 Na2 O5 P1'
_exptl_crystal_density_diffrn 2.37
_cell_measurement_temperature 296.
_publ_section_title
'Entropy and  crystal structure of hydrates of disodium hydrogen phosphate'
loop_
_citation_id
_citation_journal_full
_citation_year
_citation_journal_volume
_citation_page_first
_citation_page_last
_citation_journal_id_ASTM
primary 'Journal of Chemical Physics' 1990 94 7830 7834 JCPSA6
loop_
_publ_author_name
'Templeton, D.H.'
'Ruben, H.W.'
'Zalkin, A.'
_cell_length_a 5.565(1)
_cell_length_b 7.949(1)
_cell_length_c 5.735(1)
_cell_angle_alpha 103.83(1)
_cell_angle_beta 102.15(1)
_cell_angle_gamma 107.47(1)
_cell_volume 223.8
_cell_formula_units_Z 2
_symmetry_space_group_name_H-M 'P -1'
_symmetry_Int_Tables_number 2
_refine_ls_R_factor_all 0.02
loop_
_symmetry_equiv_pos_site_id
_symmetry_equiv_pos_as_xyz
1 '-x, -y, -z'
2 'x, y, z'
loop_
_atom_type_symbol
_atom_type_oxidation_number
P5+ 5
Na1+ 1
O2- -2
H1+ 1
loop_
_atom_site_label
_atom_site_type_symbol
_atom_site_symmetry_multiplicity
_atom_site_Wyckoff_symbol
_atom_site_fract_x
_atom_site_fract_y
_atom_site_fract_z
_atom_site_B_iso_or_equiv
_atom_site_occupancy
_atom_site_attached_hydrogens
P1 P5+ 2 i 0.13251(3) 0.29404(2) 0.08857(3) 0.76 1. 0
Na1 Na1+ 2 i 0.47910(6) 0.78254(4) 0.33178(5) 1.27 1. 0
Na2 Na1+ 2 i 0.26803(6) 0.56420(4) 0.72450(6) 1.6 1. 0
O1 O2- 2 i 0.1983(1) 0.47805(6) 0.28856(9) 1.32 1. 0
O2 O2- 2 i -.16261(9) 0.17455(6) 0.00837(8) 1.12 1. 0
O3 O2- 2 i 0.2331(1) 0.31152(7) -.13327(9) 1.44 1. 0
O4 O2- 2 i 0.2932(1) 0.19061(7) 0.2327(1) 1.37 1. 0
O5 O2- 2 i 0.2294(1) 0.90416(8) 0.5588(1) 1.48 1. 0
H1 H1+ 2 i 0.261(3) 0.097(2) 0.154(3) 2.5(3) 1. 0
H2 H1+ 2 i 0.186(2) 0.884(2) 0.694(3) 2.2(3) 1. 0
H3 H1+ 2 i 0.090(3) 0.854(2) 0.450(3) 2.6(3) 1. 0
#End of TTdata_108838-ICSD