
#(C) 2019 by FIZ Karlsruhe - Leibniz Institute for Information Infrastructure.  All rights reserved.
data_1289-ICSD
_database_code_ICSD 1289
_audit_creation_date 1980-01-01
_audit_update_record 2015-08-01
_chemical_name_systematic 'Disodium hydrogenphosphate(V) dihydrate'
_chemical_formula_structural 'Na2 (H P O4) (H2 O)2'
_chemical_formula_sum 'H5 Na2 O6 P1'
_chemical_name_structure_type Na2HPO4(H2O)2
_chemical_name_mineral Dorfmanite
_exptl_crystal_density_diffrn 2.05
_publ_section_title

;
The crystal structure of Na2 H P O4 (H2 O)2. Competition between coordination
and hydrogen bonds
;
loop_
_citation_id
_citation_journal_full
_citation_year
_citation_journal_volume
_citation_page_first
_citation_page_last
_citation_journal_id_ASTM
primary

;
Acta Crystallographica, Section B: Structural Crystallography and Crystal
Chemistry
; 1977 33 3449 3452 ACBCAR
loop_
_publ_author_name
'Catti, M.'
'Ferraris, G.'
'Franchini Angela, M.'
_cell_length_a 16.8720(90)
_cell_length_b 10.359(4)
_cell_length_c 6.599(3)
_cell_angle_alpha 90.
_cell_angle_beta 90.
_cell_angle_gamma 90.
_cell_volume 1153.35
_cell_formula_units_Z 8
_symmetry_space_group_name_H-M 'P b c a'
_symmetry_Int_Tables_number 61
_refine_ls_R_factor_all 0.036
loop_
_symmetry_equiv_pos_site_id
_symmetry_equiv_pos_as_xyz
1 'x+1/2, y, -z+1/2'
2 'x, -y+1/2, z+1/2'
3 '-x+1/2, y+1/2, z'
4 '-x, -y, -z'
5 '-x+1/2, -y, z+1/2'
6 '-x, y+1/2, -z+1/2'
7 'x+1/2, -y+1/2, -z'
8 'x, y, z'
loop_
_atom_type_symbol
_atom_type_oxidation_number
P5+ 5
Na1+ 1
O2- -2
H1+ 1
loop_
_atom_site_label
_atom_site_type_symbol
_atom_site_symmetry_multiplicity
_atom_site_Wyckoff_symbol
_atom_site_fract_x
_atom_site_fract_y
_atom_site_fract_z
_atom_site_B_iso_or_equiv
_atom_site_occupancy
_atom_site_attached_hydrogens
P1 P5+ 8 c 0.66256(3) 0.48293(5) 0.62163(9) . 1. 0
Na1 Na1+ 8 c 0.77105(6) 0.23198(10) 0.82964(15) . 1. 0
Na2 Na1+ 8 c 0.00021(6) 0.14973(10) 0.64229(16) . 1. 0
O1 O2- 8 c 0.6491(1) 0.5210(2) 0.8438(3) . 1. 0
O2 O2- 8 c 0.6937(1) 0.3463(2) 0.5998(3) . 1. 0
O3 O2- 8 c 0.5903(1) 0.5103(2) 0.4941(3) . 1. 0
O4 O2- 8 c 0.7320(1) 0.5792(2) 0.5489(3) . 1. 0
O5 O2- 8 c 0.5676(1) 0.1837(2) 0.5504(3) . 1. 0
O6 O2- 8 c 0.8958(1) 0.3206(2) 0.6820(3) . 1. 0
H1 H1+ 8 c 0.586(2) 0.115(3) 0.491(5) 0.1 1. 0
H2 H1+ 8 c 0.605(3) 0.230(5) 0.553(8) 2.5 1. 0
H3 H1+ 8 c 0.901(2) 0.381(4) 0.778(7) 1.6 1. 0
H4 H1+ 8 c 0.889(3) 0.373(4) 0.566(7) 1.7 1. 0
H5 H1+ 8 c 0.772(2) 0.536(4) 0.479(6) 1.3 1. 0
loop_
_atom_site_aniso_label
_atom_site_aniso_type_symbol
_atom_site_aniso_B_11
_atom_site_aniso_B_22
_atom_site_aniso_B_33
_atom_site_aniso_B_12
_atom_site_aniso_B_13
_atom_site_aniso_B_23
P1 P5+ 0.89(2) 0.76(2) 0.89(2) 0.00(1) 0.00(2) -.05(2)
Na1 Na1+ 1.87(3) 1.13(3) 1.26(3) 0.13(3) 0.25(3) 0.00(3)
Na2 Na1+ 1.67(3) 1.67(4) 1.81(4) -.12(3) -.16(4) -.37(4)
O1 O2- 2.02(7) 1.49(6) 1.15(6) 0.02(6) 0.17(5) -.23(5)
O2 O2- 1.54(6) 0.94(6) 1.71(6) 0.11(5) 0.14(5) -.02(5)
O3 O2- 1.42(7) 1.47(6) 1.81(7) 0.11(5) -.47(5) 0.04(5)
O4 O2- 1.43(7) 1.12(6) 1.77(6) -.13(5) 0.37(5) -.07(5)
O5 O2- 1.69(7) 1.95(7) 2.07(7) -.15(6) 0.29(6) -.23(6)
O6 O2- 2.33(8) 1.79(7) 2.01(7) 0.09(6) 0.19(7) -.03(6)
#End of TTdata_1289-ICSD