
#(C) 2019 by FIZ Karlsruhe - Leibniz Institute for Information Infrastructure.  All rights reserved.
data_1301-ICSD
_database_code_ICSD 1301
_audit_creation_date 1980-01-01
_audit_update_record 2012-02-01
_chemical_name_systematic 'Sodium chlorate(V)'
_chemical_formula_structural 'Na (Cl O3)'
_chemical_formula_sum 'Cl1 Na1 O3'
_chemical_name_structure_type NaClO3
_exptl_crystal_density_diffrn 2.49
_publ_section_title 'Remeasurement of optically active Na Cl O3 and Na Br O3'
loop_
_citation_id
_citation_journal_full
_citation_year
_citation_journal_volume
_citation_page_first
_citation_page_last
_citation_journal_id_ASTM
primary

;
Acta Crystallographica, Section B: Structural Crystallography and Crystal
Chemistry
; 1977 33 3601 3604 ACBCAR
loop_
_publ_author_name
'Abrahams, S.C.'
'Bernstein, J.L.'
_cell_length_a 6.57584(5)
_cell_length_b 6.57584(5)
_cell_length_c 6.57584(5)
_cell_angle_alpha 90.
_cell_angle_beta 90.
_cell_angle_gamma 90.
_cell_volume 284.35
_cell_formula_units_Z 4
_symmetry_space_group_name_H-M 'P 21 3'
_symmetry_Int_Tables_number 198
_refine_ls_R_factor_all 0.013
loop_
_symmetry_equiv_pos_site_id
_symmetry_equiv_pos_as_xyz
1 '-z+1/2, -x, y+1/2'
2 '-y+1/2, -z, x+1/2'
3 '-x+1/2, -y, z+1/2'
4 '-z, x+1/2, -y+1/2'
5 '-y, z+1/2, -x+1/2'
6 '-x, y+1/2, -z+1/2'
7 'z+1/2, -x+1/2, -y'
8 'y+1/2, -z+1/2, -x'
9 'x+1/2, -y+1/2, -z'
10 'z, x, y'
11 'y, z, x'
12 'x, y, z'
loop_
_atom_type_symbol
_atom_type_oxidation_number
Na1+ 1
Cl5+ 5
O2- -2
loop_
_atom_site_label
_atom_site_type_symbol
_atom_site_symmetry_multiplicity
_atom_site_Wyckoff_symbol
_atom_site_fract_x
_atom_site_fract_y
_atom_site_fract_z
_atom_site_B_iso_or_equiv
_atom_site_occupancy
_atom_site_attached_hydrogens
Na1 Na1+ 4 a 0.06869(13) 0.06869(13) 0.06869(13) . 1. 0
Cl1 Cl5+ 4 a 0.41822(5) 0.41822(5) 0.41822(5) . 1. 0
O1 O2- 12 b 0.30347(8) 0.59239(8) 0.50468(8) . 1. 0
loop_
_atom_site_aniso_label
_atom_site_aniso_type_symbol
_atom_site_aniso_beta_11
_atom_site_aniso_beta_22
_atom_site_aniso_beta_33
_atom_site_aniso_beta_12
_atom_site_aniso_beta_13
_atom_site_aniso_beta_23
Na1 Na1+ 0.01042(10) 0.01042(10) 0.01042(10) -.00172(22) -.00172(22) -.00172(22)
Cl1 Cl5+ 0.00679(3) 0.00679(3) 0.00679(3) -.00088(8) -.00088(8) -.00088(8)
O1 O2- 0.01143(8) 0.00926(7) 0.01477(9) 0.00399(13) 0.00287(13) -.00522(14)
#End of TTdata_1301-ICSD