
#(C) 2019 by FIZ Karlsruhe - Leibniz Institute for Information Infrastructure.  All rights reserved.
data_1302-ICSD
_database_code_ICSD 1302
_audit_creation_date 1980-01-01
_audit_update_record 2012-08-01
_chemical_name_systematic 'Sodium bromate(V)'
_chemical_formula_structural 'Na (Br O3)'
_chemical_formula_sum 'Br1 Na1 O3'
_chemical_name_structure_type NaClO3
_exptl_crystal_density_diffrn 3.32
_publ_section_title 'Remeasurement of optically active Na Cl O3 and Na Br O3'
loop_
_citation_id
_citation_journal_full
_citation_year
_citation_journal_volume
_citation_page_first
_citation_page_last
_citation_journal_id_ASTM
primary

;
Acta Crystallographica, Section B: Structural Crystallography and Crystal
Chemistry
; 1977 33 3601 3604 ACBCAR
loop_
_publ_author_name
'Abrahams, S.C.'
'Bernstein, J.L.'
_cell_length_a 6.70717(10)
_cell_length_b 6.70717(10)
_cell_length_c 6.70717(10)
_cell_angle_alpha 90.
_cell_angle_beta 90.
_cell_angle_gamma 90.
_cell_volume 301.73
_cell_formula_units_Z 4
_symmetry_space_group_name_H-M 'P 21 3'
_symmetry_Int_Tables_number 198
_refine_ls_R_factor_all 0.034
loop_
_symmetry_equiv_pos_site_id
_symmetry_equiv_pos_as_xyz
1 '-z+1/2, -x, y+1/2'
2 '-y+1/2, -z, x+1/2'
3 '-x+1/2, -y, z+1/2'
4 '-z, x+1/2, -y+1/2'
5 '-y, z+1/2, -x+1/2'
6 '-x, y+1/2, -z+1/2'
7 'z+1/2, -x+1/2, -y'
8 'y+1/2, -z+1/2, -x'
9 'x+1/2, -y+1/2, -z'
10 'z, x, y'
11 'y, z, x'
12 'x, y, z'
loop_
_atom_type_symbol
_atom_type_oxidation_number
Na1+ 1
Br5+ 5
O2- -2
loop_
_atom_site_label
_atom_site_type_symbol
_atom_site_symmetry_multiplicity
_atom_site_Wyckoff_symbol
_atom_site_fract_x
_atom_site_fract_y
_atom_site_fract_z
_atom_site_B_iso_or_equiv
_atom_site_occupancy
_atom_site_attached_hydrogens
Na1 Na1+ 4 a 0.0775(11) 0.0775(11) 0.0775(11) . 1. 0
Br1 Br5+ 4 a 0.4067(2) 0.4067(2) 0.4067(2) . 1. 0
O1 O2- 12 b 0.2882(7) 0.5964(7) 0.5085(6) . 1. 0
loop_
_atom_site_aniso_label
_atom_site_aniso_type_symbol
_atom_site_aniso_beta_11
_atom_site_aniso_beta_22
_atom_site_aniso_beta_33
_atom_site_aniso_beta_12
_atom_site_aniso_beta_13
_atom_site_aniso_beta_23
Na1 Na1+ 0.0111(9) 0.0111(9) 0.0111(9) -.0007(11) -.0007(11) -.0007(1)
Br1 Br5+ 0.0063(1) 0.0063(1) 0.0063(1) 0.0001(2) 0.0001(2) 0.0001(2)
O1 O2- 0.0104(6) 0.0106(6) 0.0121(6) 0.0046(5) -.0016(6) -.0062(5)
#End of TTdata_1302-ICSD