
#(C) 2018 by FIZ Karlsruhe - Leibniz Institute for Information Infrastructure.  All rights reserved.
data_1321-ICSD
_database_code_ICSD 1321
_audit_creation_date 1980-01-01
_audit_update_record 2010-02-01
_chemical_name_systematic 'Lithium chlorate(VII) trihydrate'
_chemical_formula_structural 'Li (Cl O4) (H2 O)3'
_chemical_formula_sum 'H6 Cl1 Li1 O7'
_chemical_name_structure_type LiClO4(H2O)3
_exptl_crystal_density_diffrn 1.89
_publ_section_title 'Refinement of pyroelectric lithium perchlorate trihydrate'
loop_
_citation_id
_citation_journal_full
_citation_year
_citation_journal_volume
_citation_page_first
_citation_page_last
_citation_journal_id_ASTM
primary

;
Acta Crystallographica, Section B: Structural Crystallography and Crystal
Chemistry
; 1977 33 3954 3957 ACBCAR
loop_
_publ_author_name
'Chomnilpan, S.'
'Liminga, R.'
'Tellgren, R.'
_cell_length_a 7.7192(4)
_cell_length_b 7.7192(4)
_cell_length_c 5.4531(5)
_cell_angle_alpha 90.
_cell_angle_beta 90.
_cell_angle_gamma 120.
_cell_volume 281.4
_cell_formula_units_Z 2
_symmetry_space_group_name_H-M 'P 63 m c'
_symmetry_Int_Tables_number 186
_refine_ls_R_factor_all 0.017
loop_
_symmetry_equiv_pos_site_id
_symmetry_equiv_pos_as_xyz
1 '-x, -x+y, z+1/2'
2 'x-y, -y, z+1/2'
3 'y, x, z+1/2'
4 'x-y, x, z+1/2'
5 'y, -x+y, z+1/2'
6 '-x, -y, z+1/2'
7 'x, x-y, z'
8 '-x+y, y, z'
9 '-y, -x, z'
10 '-x+y, -x, z'
11 '-y, x-y, z'
12 'x, y, z'
loop_
_atom_type_symbol
_atom_type_oxidation_number
Li1+ 1
Cl7+ 7
O2- -2
H1+ 1
loop_
_atom_site_label
_atom_site_type_symbol
_atom_site_symmetry_multiplicity
_atom_site_Wyckoff_symbol
_atom_site_fract_x
_atom_site_fract_y
_atom_site_fract_z
_atom_site_B_iso_or_equiv
_atom_site_occupancy
_atom_site_attached_hydrogens
Li1 Li1+ 2 a 0 0 0.2218(14) . 1. 0
Cl1 Cl7+ 2 b 0.3333 0.6667 0 . 1. 0
O1 O2- 2 b 0.3333 0.6667 0.2617(6) . 1. 0
O2 O2- 6 c 0.4346(1) -.4346(1) -.0894(4) . 1. 0
O3 O2- 6 c 0.1218(1) -.1218(1) 0.4726(2) . 1. 0
H1 H1+ 12 d 0.2290(22) 0.3106(32) 0.4774(48) 1.37 1. 0
loop_
_atom_site_aniso_label
_atom_site_aniso_type_symbol
_atom_site_aniso_beta_11
_atom_site_aniso_beta_22
_atom_site_aniso_beta_33
_atom_site_aniso_beta_12
_atom_site_aniso_beta_13
_atom_site_aniso_beta_23
Li1 Li1+ 0.0130(6) 0.0130(6) 0.0235(15) 0.0065(6) 0 0
Cl1 Cl7+ 0.0090(2) 0.0090(2) 0.0237(4) 0.0045(2) 0 0
O1 O2- 0.0217(5) 0.0217(5) 0.0211(15) 0.0109(5) 0 0
O2 O2- 0.0154(3) 0.0154(3) 0.0402(7) 0.0097(3) 0.0024(2) -.0024(2)
O3 O2- 0.0124(3) 0.0124(3) 0.0254(5) 0.0072(3) -.0001(2) 0.0001(2)
#End of TTdata_1321-ICSD