
#(C) 2018 by FIZ Karlsruhe - Leibniz Institute for Information Infrastructure.  All rights reserved.
data_14-ICSD
_database_code_ICSD 14
_audit_creation_date 1980-01-01
_audit_update_record 2011-08-01
_chemical_name_systematic 'Lithium neodymium cyclo-tetraphosphate(V)'
_chemical_formula_structural 'Li Nd (P4 O12)'
_chemical_formula_sum 'Li1 Nd1 O12 P4'
_chemical_name_structure_type LiYb(PO3)4
_exptl_crystal_density_diffrn 3.39
_publ_section_title
'An efficient laser material, lithium neodymium phosphate Li Nd P4 O12'
loop_
_citation_id
_citation_journal_full
_citation_year
_citation_journal_volume
_citation_page_first
_citation_page_last
_citation_journal_id_ASTM
primary

;
Acta Crystallographica, Section B: Structural Crystallography and Crystal
Chemistry
; 1976 32 266 268 ACBCAR
loop_
_publ_author_name
'Koizumi, H.'
_cell_length_a 9.844(2)
_cell_length_b 7.008(3)
_cell_length_c 13.25(2)
_cell_angle_alpha 90.
_cell_angle_beta 90.1(2)
_cell_angle_gamma 90.
_cell_volume 914.07
_cell_formula_units_Z 4
_symmetry_space_group_name_H-M 'I 1 2/c 1'
_symmetry_Int_Tables_number 15
_refine_ls_R_factor_all 0.035
loop_
_symmetry_equiv_pos_site_id
_symmetry_equiv_pos_as_xyz
1 '-x, y, -z+1/2'
2 '-x, -y, -z'
3 'x, -y, z+1/2'
4 'x, y, z'
5 '-x+1/2, y+1/2, -z'
6 '-x+1/2, -y+1/2, -z+1/2'
7 'x+1/2, -y+1/2, z'
8 'x+1/2, y+1/2, z+1/2'
loop_
_atom_type_symbol
_atom_type_oxidation_number
Nd3+ 3
P5+ 5
O2- -2
Li1+ 1
loop_
_atom_site_label
_atom_site_type_symbol
_atom_site_symmetry_multiplicity
_atom_site_Wyckoff_symbol
_atom_site_fract_x
_atom_site_fract_y
_atom_site_fract_z
_atom_site_B_iso_or_equiv
_atom_site_occupancy
_atom_site_attached_hydrogens
Nd1 Nd3+ 4 e 0.5 0.5501(1) 0.25 . 1. 0
P1 P5+ 8 f 0.2247(2) 0.3070(2) 0.3889(1) . 1. 0
P2 P5+ 8 f 0.3021(2) 0.9081(3) 0.3990(1) . 1. 0
O1 O2- 8 f 0.1193(5) 0.2551(6) 0.3153(3) . 1. 0
O2 O2- 8 f 0.3155(5) 0.4689(6) 0.3651(4) . 1. 0
O3 O2- 8 f 0.1554(4) 0.8642(6) 0.3806(3) . 1. 0
O4 O2- 8 f 0.4072(4) 0.8490(6) 0.3238(3) . 1. 0
O5 O2- 8 f 0.1488(4) 0.3364(7) 0.4937(3) . 1. 0
O6 O2- 8 f 0.3231(4) 0.1321(6) 0.4095(3) . 1. 0
Li1 Li1+ 4 e 0.5 0.0536(18) 0.25 0.98 1. 0
loop_
_atom_site_aniso_label
_atom_site_aniso_type_symbol
_atom_site_aniso_beta_11
_atom_site_aniso_beta_22
_atom_site_aniso_beta_33
_atom_site_aniso_beta_12
_atom_site_aniso_beta_13
_atom_site_aniso_beta_23
Nd1 Nd3+ 0.00231 0.00471 0.00086 0 0.00008 0
P1 P5+ 0.00261 0.00614 0.00091 0.00008 0.0002 0.00015
P2 P5+ 0.00287 0.00594 0.00091 -.00006 0.00007 0.00003
O1 O2- 0.00328 0.0063 0.00105 0.00121 0.00031 0.00026
O2 O2- 0.00448 0.00548 0.00188 -.00172 0.00049 0.00042
O3 O2- 0.00334 0.00627 0.00171 0.00026 -.00091 0.0002
O4 O2- 0.0037 0.00634 0.00176 0.00017 0.00104 0.00015
O5 O2- 0.00333 0.00985 0.00064 0.00023 -.00015 -.00036
O6 O2- 0.00329 0.00163 0.00208 0.00085 0.00001 -.00003
#End of TTdata_14-ICSD