
#(C) 2019 by FIZ Karlsruhe - Leibniz Institute for Information Infrastructure.  All rights reserved.
data_14159-ICSD
_database_code_ICSD 14159
_audit_creation_date 1980-12-31
_audit_update_record 1999-06-02
_chemical_name_systematic 'Disodium nickel oxide'
_chemical_formula_structural 'Na2 (Ni O2)'
_chemical_formula_sum 'Na2 Ni1 O2'
_chemical_name_structure_type Na2PtS2
_exptl_crystal_density_diffrn 3.83
_publ_section_title 'Ueber neue Oxoniccolate: Zur Kenntnis von Na2 (Ni O2) 2)'
loop_
_citation_id
_citation_journal_full
_citation_year
_citation_journal_volume
_citation_page_first
_citation_page_last
_citation_journal_id_ASTM
primary 'Zeitschrift fuer Anorganische und Allgemeine Chemie (1950) (DE)' 1980
462 71 79 ZAACAB
loop_
_publ_author_name
'Zentgraf, H.'
'Hoppe, R.'
_cell_length_a 2.82
_cell_length_b 10.14(1)
_cell_length_c 8.28(5)
_cell_angle_alpha 90.
_cell_angle_beta 90.
_cell_angle_gamma 90.
_cell_volume 236.76
_cell_formula_units_Z 4
_symmetry_space_group_name_H-M 'C m c 21'
_symmetry_Int_Tables_number 36
_refine_ls_R_factor_all 0.028
loop_
_symmetry_equiv_pos_site_id
_symmetry_equiv_pos_as_xyz
1 'x, -y, z+1/2'
2 '-x, -y, z+1/2'
3 '-x, y, z'
4 'x, y, z'
5 'x+1/2, -y+1/2, z+1/2'
6 '-x+1/2, -y+1/2, z+1/2'
7 '-x+1/2, y+1/2, z'
8 'x+1/2, y+1/2, z'
loop_
_atom_type_symbol
_atom_type_oxidation_number
Na1+ 1
Ni2+ 2
O2- -2
loop_
_atom_site_label
_atom_site_type_symbol
_atom_site_symmetry_multiplicity
_atom_site_Wyckoff_symbol
_atom_site_fract_x
_atom_site_fract_y
_atom_site_fract_z
_atom_site_B_iso_or_equiv
_atom_site_occupancy
_atom_site_attached_hydrogens
Na1 Na1+ 4 a 0 0.1479(3) 0.6694(3) . 1. 0
Na2 Na1+ 4 a 0 0.3944(3) 0.8474(4) . 1. 0
Ni1 Ni2+ 4 a 0 0.1219(1) 0 . 1. 0
O1 O2- 4 a 0 0.4799(4) 0.5901(6) . 1. 0
O2 O2- 4 a 0 0.2795(4) 0.4078(6) . 1. 0
loop_
_atom_site_aniso_label
_atom_site_aniso_type_symbol
_atom_site_aniso_U_11
_atom_site_aniso_U_22
_atom_site_aniso_U_33
_atom_site_aniso_U_12
_atom_site_aniso_U_13
_atom_site_aniso_U_23
Na1 Na1+ 0.0190(12) 0.0090(11) 0.0128(12) 0 0 -.0009(9)
Na2 Na1+ 0.0176(11) 0.0102(13) 0.0125(11) 0 0 0.0005(10)
Ni1 Ni2+ 0.0098(2) 0.0037(3) 0.0075(2) 0 0 0.0006(3)
O1 O2- 0.0120(16) 0.0095(19) 0.0108(17) 0 0 -.0018(14)
O2 O2- 0.0149(18) 0.0054(19) 0.0132(20) 0 0 -.0053(15)
#End of TTdata_14159-ICSD