
#(C) 2019 by FIZ Karlsruhe - Leibniz Institute for Information Infrastructure.  All rights reserved.
data_14161-ICSD
_database_code_ICSD 14161
_audit_creation_date 1980-12-31
_chemical_name_systematic 'Sodium tetraselenostannate 16-hydrate'
_chemical_formula_structural 'Na4 Sn Se4 (H2 O)16'
_chemical_formula_sum 'H32 Na4 O16 Se4 Sn1'
_exptl_crystal_density_diffrn 2.18
_publ_section_title

;
Selenostannate aus waessriger Loesung: Darstellung und Struktur von Na4 Sn Se4
(H2 O)16
;
loop_
_citation_id
_citation_journal_full
_citation_year
_citation_journal_volume
_citation_page_first
_citation_page_last
_citation_journal_id_ASTM
primary 'Zeitschrift fuer Anorganische und Allgemeine Chemie (1950) (DE)' 1980
462 143 151 ZAACAB
loop_
_publ_author_name
'Krebs, B.'
'Huerter, H.U.'
_cell_length_a 8.673(3)
_cell_length_b 16.563(4)
_cell_length_c 8.647(2)
_cell_angle_alpha 90.
_cell_angle_beta 92.10(2)
_cell_angle_gamma 90.
_cell_volume 1241.32
_cell_formula_units_Z 2
_symmetry_space_group_name_H-M 'P 1 21/m 1'
_symmetry_Int_Tables_number 11
_refine_ls_R_factor_all 0.049
loop_
_symmetry_equiv_pos_site_id
_symmetry_equiv_pos_as_xyz
1 'x, -y+1/2, z'
2 '-x, -y, -z'
3 '-x, y+1/2, -z'
4 'x, y, z'
loop_
_atom_type_symbol
_atom_type_oxidation_number
Sn4+ 4
Se2- -2
Na1+ 1
O2- -2
H1+ 1
loop_
_atom_site_label
_atom_site_type_symbol
_atom_site_symmetry_multiplicity
_atom_site_Wyckoff_symbol
_atom_site_fract_x
_atom_site_fract_y
_atom_site_fract_z
_atom_site_B_iso_or_equiv
_atom_site_occupancy
_atom_site_attached_hydrogens
Sn1 Sn4+ 2 e 0.06556(9) 0.25 0.63992(7) . 1. 0
Se1 Se2- 2 e 0.26455(16) 0.25 0.86065(12) . 1. 0
Se2 Se2- 2 e 0.80248(14) 0.25 0.75623(13) . 1. 0
Se3 Se2- 4 f 0.10006(10) 0.12878(5) 0.47172(8) . 1. 0
Na1 Na1+ 2 a 0 0 0 . 1. 0
Na2 Na1+ 2 b 0.5 0 0 . 1. 0
Na3 Na1+ 4 f 0.5341(5) 0.3623(2) 0.3191(4) . 1. 0
O1 O2- 2 e 0.3592(9) 0.25 0.2525(9) . 1. 0
O2 O2- 2 e 0.7141(10) 0.25 0.3599(8) . 1. 0
O3 O2- 4 f 0.2489(4) 0.0432(3) 0.9062(6) . 1. 0
O4 O2- 4 f 0.4161(6) 0.0117(3) 0.2602(6) . 1. 0
O5 O2- 4 f 0.4904(9) 0.1359(4) 0.5889(7) . 1. 0
O6 O2- 4 f 0.6038(8) 0.1353(4) 0.0454(7) . 1. 0
O7 O2- 4 f 0.7496(7) 0.0471(3) 0.3751(6) . 1. 0
O8 O2- 4 f 0.8872(6) 0.0503(3) 0.7644(6) . 1. 0
O9 O2- 4 f 0.9539(9) 0.1376(4) 0.0981(7) . 1. 0
H1 H1+ 2 e 0.26(1) 0.25 0.28(1) . 1. 0
H2 H1+ 2 e 0.38 0.25 0.12 . 1. 0
H3 H1+ 2 e 0.84 0.25 0.33 . 1. 0
H4 H1+ 2 e 0.69 0.25 0.44 . 1. 0
H5 H1+ 4 f 0.25 0.01(1) 0.81 . 1. 0
H6 H1+ 4 f 0.25 0.1 0.9 . 1. 0
H7 H1+ 4 f 0.31 0.01 0.26 . 1. 0
H8 H1+ 4 f 0.41 -.03 0.32 . 1. 0
H9 H1+ 4 f 0.57 0.16 0.68 . 1. 0
H10 H1+ 4 f 0.4 0.13 0.6 . 1. 0
H11 H1+ 4 f 0.58 0.17 -.01 . 1. 0
H12 H1+ 4 f 0.71 0.14 0.06 . 1. 0
H13 H1+ 4 f 0.82 0.02 0.41 . 1. 0
H14 H1+ 4 f 0.8 0.09 0.42 . 1. 0
H15 H1+ 4 f 0.97 0.06 0.75 . 1. 0
H16 H1+ 4 f 0.82 0.11 0.77 . 1. 0
H17 H1+ 4 f 0.03 0.17 0.04 . 1. 0
H18 H1+ 4 f 0.01 0.13 0.17 . 1. 0
loop_
_atom_site_aniso_label
_atom_site_aniso_type_symbol
_atom_site_aniso_B_11
_atom_site_aniso_B_22
_atom_site_aniso_B_33
_atom_site_aniso_B_12
_atom_site_aniso_B_13
_atom_site_aniso_B_23
Sn1 Sn4+ 2.67(3) 1.90(3) 1.70(2) 0 -.01(2) 0
Se1 Se2- 4.33(6) 2.69(4) 2.21(4) 0 -1.27(4) 0
Se2 Se2- 3.34(6) 2.40(4) 2.86(5) 0 -.95(4) 0
Se3 Se2- 3.95(4) 2.37(3) 2.43(3) -.01(3) 0.12(3) -.74(2)
Na1 Na1+ 4.2(2) 3.0(2) 2.5(2) -.2(2) -.4(2) 0.5(2)
Na2 Na1+ 3.8(2) 3.0(2) 2.3(2) 0.3(2) -.1(2) 0.3(2)
Na3 Na1+ 6.5(2) 2.7(1) 3.0(1) 0.4(1) -1. -.2(1)
O1 O2- 2.3(4) 6.1(5) 2.9(3) 0 0.3(3) 0
O2 O2- 4.0(4) 3.7(4) 4.1(4) 0 -.6(3) 0
O3 O2- 4.1(3) 2.7(2) 3.0(2) -.1(2) -.3(2) 0.1(2)
O4 O2- 2.8(2) 3.4(2) 3.3(2) -.2(2) 0.1(2) 0.1(2)
O5 O2- 6.9(4) 4.4(3) 4.2(3) 0.7(3) 1.1(3) 0.5(3)
O6 O2- 7.1(4) 3.8(3) 4.1(3) -.7(3) 1.1(3) 0.3(2)
O7 O2- 4.9(3) 3.1(2) 3.5(3) 0.2(2) -1.3(3) 0.0(2)
O8 O2- 2.6(2) 3.3(2) 3.1(2) -.5(2) 0.1(2) 0.2(2)
O9 O2- 7.5(4) 4.5(3) 3.2(3) -1.2(3) -.2(3) 0.5(2)
#End of TTdata_14161-ICSD