
#(C) 2019 by FIZ Karlsruhe - Leibniz Institute for Information Infrastructure.  All rights reserved.
data_14307-ICSD
_database_code_ICSD 14307
_audit_creation_date 1980-01-01
_audit_update_record 2003-04-01
_chemical_name_systematic 'Disodium tetrafluoroberyllate - gamma'
_chemical_formula_structural 'Na2 (Be F4)'
_chemical_formula_sum 'Be1 F4 Na2'
_exptl_crystal_density_diffrn 2.48
_publ_section_title
'The crystal structure of - gamma-sodium beryllium tetrafluoride, Na2 Be F4'
loop_
_citation_id
_citation_journal_full
_citation_year
_citation_journal_volume
_citation_page_first
_citation_page_last
_citation_journal_id_ASTM
primary

;
Acta Crystallographica, Section B: Structural Crystallography and Crystal
Chemistry
; 1973 29 2593 2598 ACBCAR
loop_
_publ_author_name
'Deganello, S.'
_cell_length_a 5.5590(9)
_cell_length_b 8.0703(5)
_cell_length_c 7.9098(5)
_cell_angle_alpha 90.
_cell_angle_beta 99.35(5)
_cell_angle_gamma 90.
_cell_volume 350.14
_cell_formula_units_Z 4
_symmetry_space_group_name_H-M 'P 1 21/n 1'
_symmetry_Int_Tables_number 14
_refine_ls_R_factor_all 0.054
loop_
_symmetry_equiv_pos_site_id
_symmetry_equiv_pos_as_xyz
1 '-x+1/2, y+1/2, -z+1/2'
2 '-x, -y, -z'
3 'x+1/2, -y+1/2, z+1/2'
4 'x, y, z'
loop_
_atom_type_symbol
_atom_type_oxidation_number
Na1+ 1
Be2+ 2
F1- -1
loop_
_atom_site_label
_atom_site_type_symbol
_atom_site_symmetry_multiplicity
_atom_site_Wyckoff_symbol
_atom_site_fract_x
_atom_site_fract_y
_atom_site_fract_z
_atom_site_B_iso_or_equiv
_atom_site_occupancy
_atom_site_attached_hydrogens
Na1 Na1+ 4 e -.2847(2) -.1565(1) -.3753(1) . 1. 0
Na2 Na1+ 4 e 0.2185(2) -.0136(1) -.1369(1) . 1. 0
Be1 Be2+ 4 e -.2926(6) -.3020(4) -.0386(4) . 1. 0
F1 F1- 4 e -.0834(3) -.1818(2) -.0686(2) . 1. 0
F2 F1- 4 e 0.4942(3) 0.1950(2) -.0200(2) . 1. 0
F3 F1- 4 e -.3847(3) -.3923(2) -.2070(2) . 1. 0
F4 F1- 4 e 0.1871(3) 0.4295(2) -.1002(2) . 1. 0
loop_
_atom_site_aniso_label
_atom_site_aniso_type_symbol
_atom_site_aniso_beta_11
_atom_site_aniso_beta_22
_atom_site_aniso_beta_33
_atom_site_aniso_beta_12
_atom_site_aniso_beta_13
_atom_site_aniso_beta_23
Na1 Na1+ 0.0106(3) 0.0061(2) 0.0072(2) 0 0.0018(2) -.0004(1)
Na2 Na1+ 0.0093(3) 0.0054(2) 0.0057(2) -.0004(2) 0.0012(2) 0
Be1 Be2+ 0.0077(8) 0.0043(4) 0.0053(5) -.0006(4) 0.0021(5) 0
F1 F1- 0.0093(5) 0.0057(2) 0.0069(2) -.0022(3) 0.0019(3) 0.0009(2)
F2 F1- 0.0106(5) 0.0064(3) 0.0094(3) 0.0013(3) 0.0032(3) 0
F3 F1- 0.0162(5) 0.0063(3) 0.0059(3) -.0024(3) -.0007(3) -.0008(2)
F4 F1- 0.0140(5) 0.0067(3) 0.0063(3) 0 0.0019(3) 0.0018(2)
#End of TTdata_14307-ICSD