
#(C) 2019 by FIZ Karlsruhe - Leibniz Institute for Information Infrastructure.  All rights reserved.
data_14301-ICSD
_database_code_ICSD 14301
_audit_creation_date 1980-01-01
_chemical_name_systematic 'Sodium hydrogenarsenate heptahydrate'
_chemical_formula_structural '(Na2 (H2 O)7) (H As O4)'
_chemical_formula_sum 'H15 As1 Na2 O11'
_chemical_name_structure_type Na2HPO4(H2O)7
_exptl_crystal_density_diffrn 1.88
_publ_section_title

;
On the Crystal Chemistry of Salt Hydrates. VI. The Crystal Structures of
Disodium Hydrogen Orthoarsenate Heptahydrate and of Disodium Hydrogen
Orthophosphate Heptahydrate.
;
loop_
_citation_id
_citation_journal_full
_citation_year
_citation_journal_volume
_citation_page_first
_citation_page_last
_citation_journal_id_ASTM
primary

;
Acta Crystallographica, Section B: Structural Crystallography and Crystal
Chemistry
; 1970 26 1584 1596 ACBCAR
loop_
_publ_author_name
'Baur, W.H.'
'Khan, A.A.'
_cell_length_a 9.401(4)
_cell_length_b 11.025(4)
_cell_length_c 10.674(4)
_cell_angle_alpha 90.
_cell_angle_beta 95.50(1)
_cell_angle_gamma 90.
_cell_volume 1101.22
_cell_formula_units_Z 4
_symmetry_space_group_name_H-M 'P 1 21/n 1'
_symmetry_Int_Tables_number 14
_refine_ls_R_factor_all 0.048
loop_
_symmetry_equiv_pos_site_id
_symmetry_equiv_pos_as_xyz
1 '-x+1/2, y+1/2, -z+1/2'
2 '-x, -y, -z'
3 'x+1/2, -y+1/2, z+1/2'
4 'x, y, z'
loop_
_atom_type_symbol
_atom_type_oxidation_number
As5+ 5
Na1+ 1
O2- -2
H1+ 1
loop_
_atom_site_label
_atom_site_type_symbol
_atom_site_symmetry_multiplicity
_atom_site_Wyckoff_symbol
_atom_site_fract_x
_atom_site_fract_y
_atom_site_fract_z
_atom_site_B_iso_or_equiv
_atom_site_occupancy
_atom_site_attached_hydrogens
As1 As5+ 4 e 0.1025(1) 0.2656(1) 0.8962(1) . 1. 0
Na1 Na1+ 4 e 0.1461(3) 0.1015(2) 0.4782(2) . 1. 0
Na2 Na1+ 4 e 0.6358(3) 0.1040(2) 0.9796(2) . 1. 0
O1 O2- 4 e 0.2657(6) 0.2542(3) 0.8517(5) . 1. 0
O2 O2- 4 e 0.0976(6) 0.2471(3) 0.0510(5) . 1. 0
O3 O2- 4 e 0.9831(4) 0.1788(3) 0.8137(3) . 1. 0
O4 O2- 4 e 0.5589(4) 0.0849(3) 0.3626(3) . 1. 0
O5 O2- 4 e 0.4813(7) 0.2550(3) 0.0559(5) . 1. 0
O6 O2- 4 e 0.8073(6) 0.2498(3) 0.0937(5) . 1. 0
O7 O2- 4 e 0.1959(6) 0.2498(3) 0.3153(5) . 1. 0
O8 O2- 4 e 0.9302(5) 0.0233(4) 0.3518(4) . 1. 0
O9 O2- 4 e 0.3017(5) 0.9844(3) 0.3654(4) . 1. 0
O10 O2- 4 e 0.4134(5) 0.0369(4) 0.8628(4) . 1. 0
O11 O2- 4 e 0.1814(5) 0.0061(4) 0.1125(4) . 1. 0
H1 H1+ 4 e 0.465 0.048 0.364 . 1. 0
H2 H1+ 4 e 0.386 0.258 0.013 . 1. 0
H3 H1+ 4 e 0.477 0.27 0.145 . 1. 0
H4 H1+ 4 e 0.808 0.248 0.185 . 1. 0
H5 H1+ 4 e 0.905 0.249 0.071 . 1. 0
H6 H1+ 4 e 0.132 0.236 0.239 . 1. 0
H7 H1+ 4 e 0.29 0.271 0.293 . 1. 0
H8 H1+ 4 e 0.87 0.091 0.324 . 1. 0
H9 H1+ 4 e 0.943 0.971 0.281 . 1. 0
H10 H1+ 4 e 0.329 0.905 0.398 . 1. 0
H11 H1+ 4 e 0.257 0.976 0.28 . 1. 0
H12 H1+ 4 e 0.357 0.11 0.847 . 1. 0
H13 H1+ 4 e 0.419 0.994 0.784 . 1. 0
H14 H1+ 4 e 0.177 0.088 0.078 . 1. 0
H15 H1+ 4 e 0.085 0.978 0.122 . 1. 0
loop_
_atom_site_aniso_label
_atom_site_aniso_type_symbol
_atom_site_aniso_B_11
_atom_site_aniso_B_22
_atom_site_aniso_B_33
_atom_site_aniso_B_12
_atom_site_aniso_B_13
_atom_site_aniso_B_23
As1 As5+ 1.4(1) 1.7(1) 1.5(1) 0.1(1) 0.1(1) 0.1(1)
Na1 Na1+ 2.8(2) 2.4(1) 3.1(1) -.1(1) 0.6(1) 0.0(1)
Na2 Na1+ 2.6(2) 2.4(1) 2.8(1) -.2(1) 0.4(1) 0.2(1)
O1 O2- 1.6(3) 2.6(2) 2.6(2) 0.1(1) -.5(2) -.3(1)
O2 O2- 2.3(3) 2.9(2) 1.6(2) -.1(1) -.4(2) 0.1(1)
O3 O2- 1.9(2) 2.7(2) 2.3(2) -.9(2) -.1(1) -.3(1)
O4 O2- 3.1(2) 2.1(2) 2.7(2) -.2(2) 0.6(1) -.6(2)
O5 O2- 2.3(3) 3.1(2) 2.9(3) 0.0(1) -.1(2) 0.1(1)
O6 O2- 2.6(4) 3.9(2) 2.2(2) 0.2(1) 0.3(2) -.1(1)
O7 O2- 2.5(3) 2.6(2) 1.6(2) 0.1(1) 1.0(2) 0.1(1)
O8 O2- 2.6(2) 3.3(2) 2.9(2) 0.7(2) 0.1(2) -.1(2)
O9 O2- 2.3(2) 1.8(2) 2.8(2) 0.1(2) 0.7(2) 0.1(1)
O10 O2- 3.5(3) 2.7(2) 2.7(2) 0.2(2) -.4(2) 0.2(1)
O11 O2- 2.4(2) 3.0(2) 3.0(2) 0.4(2) 0.8(2) 0.4(1)
#End of TTdata_14301-ICSD