
#(C) 2017 by FIZ Karlsruhe - Leibniz Institute for Information Infrastructure.  All rights reserved.
data_14326-ICSD
_database_code_ICSD 14326
_audit_creation_date 1986-10-02
_chemical_name_systematic 'Lithium uranium(IV) fluoride'
_chemical_formula_structural 'Li U F5'
_chemical_formula_sum 'F5 Li1 U1'
_exptl_crystal_density_diffrn 6.23
_publ_section_title 'The Crystal Structure of Li U F5'
loop_
_citation_id
_citation_journal_full
_citation_year
_citation_journal_volume
_citation_page_first
_citation_page_last
_citation_journal_id_ASTM
primary 'Acta Crystallographica (1,1948-23,1967)' 1966 21 814 817 ACCRA9
loop_
_publ_author_name
'Brunton, G.'
_cell_length_a 14.884
_cell_length_b 14.884
_cell_length_c 6.547
_cell_angle_alpha 90.
_cell_angle_beta 90.
_cell_angle_gamma 90.
_cell_volume 1450.38
_cell_formula_units_Z 16
_symmetry_space_group_name_H-M 'I 41/a Z'
_symmetry_Int_Tables_number 88
_refine_ls_R_factor_all 0.072
loop_
_symmetry_equiv_pos_site_id
_symmetry_equiv_pos_as_xyz
1 '-y+3/4, x+3/4, -z+3/4'
2 'y+1/4, -x+3/4, -z+3/4'
3 'x, y+1/2, -z'
4 '-x, -y, -z'
5 'y+1/4, -x+1/4, z+1/4'
6 '-y+3/4, x+1/4, z+1/4'
7 '-x, -y+1/2, z'
8 'x, y, z'
9 '-y+1/4, x+1/4, -z+1/4'
10 'y+3/4, -x+1/4, -z+1/4'
11 'x+1/2, y, -z+1/2'
12 '-x+1/2, -y+1/2, -z+1/2'
13 'y+3/4, -x+3/4, z+3/4'
14 '-y+1/4, x+3/4, z+3/4'
15 '-x+1/2, -y, z+1/2'
16 'x+1/2, y+1/2, z+1/2'
loop_
_atom_type_symbol
_atom_type_oxidation_number
U4+ 4
F1- -1
Li1+ 1
loop_
_atom_site_label
_atom_site_type_symbol
_atom_site_symmetry_multiplicity
_atom_site_Wyckoff_symbol
_atom_site_fract_x
_atom_site_fract_y
_atom_site_fract_z
_atom_site_B_iso_or_equiv
_atom_site_occupancy
_atom_site_attached_hydrogens
U1 U4+ 16 f 0.061760(4) 0.056490(4) 0.24620(1) . 1. 0
F1 F1- 16 f 0.0361(9) 0.0523(9) 0.873(3) 0.0017(2) 1. 0
F2 F1- 16 f 0.2098(9) 0.1754(9) 0.760(3) 0.0018(2) 1. 0
F3 F1- 16 f 0.1085(9) 0.1831(9) 0.075(2) 0.0013(2) 1. 0
F4 F1- 16 f 0.2048(10) 0.0918(10) 0.358(3) 0.0020(3) 1. 0
F5 F1- 16 f 0.0484(9) 0.1677(10) 0.479(3) 0.0018(2) 1. 0
Li1 Li1+ 16 f 0.068(30) 0.163(30) 0.773(8) 0.0015(8) 1. 0
loop_
_atom_site_aniso_label
_atom_site_aniso_type_symbol
_atom_site_aniso_beta_11
_atom_site_aniso_beta_22
_atom_site_aniso_beta_33
_atom_site_aniso_beta_12
_atom_site_aniso_beta_13
_atom_site_aniso_beta_23
U1 U4+ 0.000260(3) 0.00015(3) 0.0027(2) -.00004(2) -.00017(6) -.00006(5)
#End of TTdata_14326-ICSD