
#(C) 2019 by FIZ Karlsruhe - Leibniz Institute for Information Infrastructure.  All rights reserved.
data_1433-ICSD
_database_code_ICSD 1433
_audit_creation_date 1980-01-01
_audit_update_record 2007-04-01
_chemical_name_systematic 'Disodium hydrogenphosphate(V) dodecahydrate - beta'
_chemical_formula_structural 'Na2 (H P O4) (H2 O)12'
_chemical_formula_sum 'H25 Na2 O16 P1'
_exptl_crystal_density_diffrn 1.54
_publ_section_title

;
Disorder of (H P O4)2- and of hydrogen bonds in the structure of beta-Na2 H P
O4 (H2 O)12
;
loop_
_citation_id
_citation_journal_full
_citation_year
_citation_journal_volume
_citation_page_first
_citation_page_last
_citation_journal_id_ASTM
primary

;
Acta Crystallographica, Section B: Structural Crystallography and Crystal
Chemistry
; 1978 34 369 373 ACBCAR
loop_
_publ_author_name
'Catti, M.'
'Ferraris, G.'
'Ivaldi, G.'
_cell_length_a 15.718(5)
_cell_length_b 9.018(3)
_cell_length_c 12.769(3)
_cell_angle_alpha 90.
_cell_angle_beta 121.39(2)
_cell_angle_gamma 90.
_cell_volume 1545.04
_cell_formula_units_Z 4
_symmetry_space_group_name_H-M 'C 1 2/c 1'
_symmetry_Int_Tables_number 15
_refine_ls_R_factor_all 0.03
loop_
_symmetry_equiv_pos_site_id
_symmetry_equiv_pos_as_xyz
1 'x, -y, z+1/2'
2 '-x, -y, -z'
3 '-x, y, -z+1/2'
4 'x, y, z'
5 'x+1/2, -y+1/2, z+1/2'
6 '-x+1/2, -y+1/2, -z'
7 '-x+1/2, y+1/2, -z+1/2'
8 'x+1/2, y+1/2, z'
loop_
_atom_type_symbol
_atom_type_oxidation_number
P5+ 5
Na1+ 1
O2- -2
H1+ 1
loop_
_atom_site_label
_atom_site_type_symbol
_atom_site_symmetry_multiplicity
_atom_site_Wyckoff_symbol
_atom_site_fract_x
_atom_site_fract_y
_atom_site_fract_z
_atom_site_B_iso_or_equiv
_atom_site_occupancy
_atom_site_attached_hydrogens
P1 P5+ 4 e 0.5 0.54766(6) 0.25 . 1. 0
Na1 Na1+ 8 f 0.82878(6) 0.55886(9) 0.24214(7) . 1. 0
O1 O2- 8 f 0.5758(2) 0.4520(3) 0.3560(2) . 0.5 0
O2 O2- 8 f 0.4818(2) 0.4630(3) 0.1305(2) . 0.5 0
O3 O2- 8 f 0.4019(2) 0.5555(3) 0.2456(2) . 0.5 0
O4 O2- 8 f 0.5403(2) 0.6999(2) 0.2510(2) . 0.5 0
O5 O2- 8 f 0.6604(1) 0.4541(1) 0.0983(1) . 1. 0
O6 O2- 8 f 0.8868(1) 0.4424(1) 0.1195(1) . 1. 0
O7 O2- 8 f 0.7799(1) 0.7776(2) 0.1216(1) . 1. 0
O8 O2- 8 f 0.7762(1) 0.6569(2) 0.3778(1) . 1. 0
O9 O2- 8 f 0.8898(1) 0.3398(2) 0.3683(1) . 1. 0
O10 O2- 8 f 0.9898(1) 0.6660(2) 0.3776(1) . 1. 0
H1 H1+ 8 f 0.62 0.465 0.13 4. 1. 0
H2 H1+ 8 f 0.915 0.36 0.155 2.7 1. 0
H3 H1+ 8 f 0.825 0.855 0.145 4.7 1. 0
H4 H1+ 8 f 0.715 0.635 0.35 4.7 1. 0
H5 H1+ 8 f 0.91 0.27 0.335 4.3 1. 0
H6 H1+ 8 f 1.01 0.76 0.37 4.6 1. 0
H7 H1+ 8 f 0.42 0.49 0.05 2.5 0.5 0
H8 H1+ 8 f 0.625 0.485 0.015 2.5 0.5 0
H9 H1+ 8 f 0.675 0.355 0.105 3. 0.5 0
H10 H1+ 8 f 0.84 0.425 0.035 0.4 0.5 0
H11 H1+ 8 f 0.93 0.51 0.13 3.8 0.5 0
H12 H1+ 8 f 0.73 0.81 0.12 1.9 0.5 0
H13 H1+ 8 f 0.76 0.78 0.045 1.2 0.5 0
H14 H1+ 8 f 0.785 0.75 0.385 2.2 0.5 0
H15 H1+ 8 f 0.82 0.615 0.455 2.4 0.5 0
H16 H1+ 8 f 0.935 0.345 0.44 0.3 0.5 0
H17 H1+ 8 f 0.83 0.32 0.36 1.5 0.5 0
H18 H1+ 8 f 0.03 0.58 0.37 5.5 0.5 0
H19 H1+ 8 f 0.02 0.66 0.455 1. 0.5 0
loop_
_atom_site_aniso_label
_atom_site_aniso_type_symbol
_atom_site_aniso_B_11
_atom_site_aniso_B_22
_atom_site_aniso_B_33
_atom_site_aniso_B_12
_atom_site_aniso_B_13
_atom_site_aniso_B_23
P1 P5+ 1.48(2) 1.15(2) 1.82(2) 0 1.00(2) 0
Na1 Na1+ 3.71(3) 3.03(3) 2.49(3) 0.34(3) 1.52(3) 0.23(3)
O1 O2- 2.81(10) 2.88(11) 2.73(10) 0.93(9) 1.21(8) 0.32(8)
O2 O2- 3.24(11) 2.42(10) 2.7(1) 0.42(9) 1.54(9) -.33(8)
O3 O2- 2.05(9) 3.31(11) 3.84(11) 0.26(8) 1.90(8) 0.31(9)
O4 O2- 4.44(13) 1.72(9) 4.04(12) -1.08(8) 2.76(11) -.40(8)
O5 O2- 3.44(5) 3.23(6) 2.96(5) 0.52(5) 1.71(5) 0.22(5)
O6 O2- 5.32(7) 2.82(6) 3.32(6) -.58(5) 2.53(5) -.46(5)
O7 O2- 2.95(5) 3.97(6) 3.37(6) 0.07(5) 1.84(5) 0.68(5)
O8 O2- 5.81(8) 2.96(6) 3.37(6) -.25(6) 2.70(6) 0.11(5)
O9 O2- 3.18(6) 4.28(7) 3.15(6) 0.49(5) 1.76(5) 0.81(5)
O10 O2- 3.87(6) 3.39(6) 3.24(6) 0.15(6) 0.79(5) -.43(5)
#End of TTdata_1433-ICSD