
#(C) 2019 by FIZ Karlsruhe - Leibniz Institute for Information Infrastructure.  All rights reserved.
data_1492-ICSD
_database_code_ICSD 1492
_audit_creation_date 1980-01-01
_audit_update_record 2010-02-01
_chemical_name_systematic 'Disodium tellurate'
_chemical_formula_structural 'Na2 (Te O4)'
_chemical_formula_sum 'Na2 O4 Te1'
_exptl_crystal_density_diffrn 4.27
_publ_section_title

;
Etude structurale d'un nouveau tellurate alcalin:  Na2 Te O4 . Evolution de la
coordination du tellure(VI) et du cation quand on passe du cation lithium au
sodium
;
loop_
_citation_id
_citation_journal_full
_citation_year
_citation_journal_volume
_citation_page_first
_citation_page_last
_citation_journal_id_ASTM
primary 'Journal of Solid State Chemistry' 1977 22 385 391 JSSCBI
loop_
_publ_author_name
'Daniel, F.'
'Maurin, M.'
'Moret, J.'
'Philippot, E.'
_cell_length_a 10.632(5)
_cell_length_b 5.161(2)
_cell_length_c 13.837(11)
_cell_angle_alpha 90.
_cell_angle_beta 103.27(4)
_cell_angle_gamma 90.
_cell_volume 738.99
_cell_formula_units_Z 8
_symmetry_space_group_name_H-M 'P 1 21/c 1'
_symmetry_Int_Tables_number 14
_refine_ls_R_factor_all 0.039
loop_
_symmetry_equiv_pos_site_id
_symmetry_equiv_pos_as_xyz
1 'x, -y+1/2, z+1/2'
2 '-x, -y, -z'
3 '-x, y+1/2, -z+1/2'
4 'x, y, z'
loop_
_atom_type_symbol
_atom_type_oxidation_number
Te6+ 6
Na1+ 1
O2- -2
loop_
_atom_site_label
_atom_site_type_symbol
_atom_site_symmetry_multiplicity
_atom_site_Wyckoff_symbol
_atom_site_fract_x
_atom_site_fract_y
_atom_site_fract_z
_atom_site_B_iso_or_equiv
_atom_site_occupancy
_atom_site_attached_hydrogens
Te1 Te6+ 4 e 0.2231(1) 0.2775(5) 0.4226(1) . 1. 0
Te2 Te6+ 4 e 0.7097(1) 0.2757(6) 0.1831(1) . 1. 0
Na1 Na1+ 4 e 0.3580(8) 0.264(3) 0.1957(6) 0.6 1. 0
Na2 Na1+ 4 e 0.5667(6) 0.251(3) 0.4003(5) 1. 1. 0
Na3 Na1+ 4 e 0.0442(7) 0.118(1) 0.6840(5) 1.1 1. 0
Na4 Na1+ 4 e 0.8695(7) 0.249(2) 0.4648(5) 0.5 1. 0
O1 O2- 4 e 0.3699(11) 0.050(2) 0.8792(8) 0.6 1. 0
O2 O2- 4 e 0.2811(12) 0.084(3) 0.0481(9) 0.5 1. 0
O3 O2- 4 e 0.5589(13) 0.083(2) 0.7032(11) 0.7 1. 0
O4 O2- 4 e 0.7679(11) 0.144(2) 0.3086(9) 0.6 1. 0
O5 O2- 4 e 0.0658(11) 0.151(2) 0.4412(9) 0.7 1. 0
O6 O2- 4 e 0.6769(11) 0.048(2) 0.5497(8) 0.5 1. 0
O7 O2- 4 e 0.8601(11) 0.096(2) 0.1452(9) 0.4 1. 0
O8 O2- 4 e 0.1853(11) 0.094(2) 0.2878(9) 0.5 1. 0
loop_
_atom_site_aniso_label
_atom_site_aniso_type_symbol
_atom_site_aniso_U_11
_atom_site_aniso_U_22
_atom_site_aniso_U_33
_atom_site_aniso_U_12
_atom_site_aniso_U_13
_atom_site_aniso_U_23
Te1 Te6+ 0.0049(6) 0.0031(6) 0.0073(8) 0.001(1) 0.002(1) -.001(1)
Te2 Te6+ 0.0049(6) 0.0037(9) 0.0037(8) -.001(1) 0.003(1) 0.001(1)
#End of TTdata_1492-ICSD