
#(C) 2018 by FIZ Karlsruhe - Leibniz Institute for Information Infrastructure.  All rights reserved.
data_150239-ICSD
_database_code_ICSD 150239
_audit_creation_date 2006-04-01
_audit_update_record 2007-04-01
_chemical_name_systematic 'Lithium iron(III) manganese oxide (0.65/1.59/0.68/4)'
_chemical_formula_structural '(Li0.277 Fe0.723) ((Li0.369 Fe0.868 Mn0.684) O4)'
_chemical_formula_sum 'Fe1.591 Li0.646 Mn0.684 O4'
_chemical_name_structure_type Spinel-LiFe5O8
_exptl_crystal_density_diffrn 4.52
_publ_section_title

;
Computer modeling study of the lithium ion distribution in quaternary Li - Mn
- Fe - O spinels
;
loop_
_citation_id
_citation_journal_full
_citation_year
_citation_journal_volume
_citation_page_first
_citation_page_last
_citation_journal_id_ASTM
primary 'Journal of Solid State Chemistry' 2000 153 310 316 JSSCBI
loop_
_publ_author_name
'Woodley, S.M.'
'Catlow, C.R.A.'
'Piszora, P.'
'Stempin, K.'
'Wolska, E.'
_cell_length_a 8.30591(22)
_cell_length_b 8.30591(22)
_cell_length_c 8.30591(22)
_cell_angle_alpha 90.
_cell_angle_beta 90.
_cell_angle_gamma 90.
_cell_volume 573.01
_cell_formula_units_Z 8
_symmetry_space_group_name_H-M 'P 43 3 2'
_symmetry_Int_Tables_number 212
_refine_ls_R_factor_all 0.0354
loop_
_symmetry_equiv_pos_site_id
_symmetry_equiv_pos_as_xyz
1 'z+1/4, y+3/4, -x+3/4'
2 '-z+3/4, y+1/4, x+3/4'
3 'y+1/4, x+3/4, -z+3/4'
4 '-y+3/4, x+1/4, z+3/4'
5 'x+1/4, z+3/4, -y+3/4'
6 '-x+3/4, z+1/4, y+3/4'
7 'z+3/4, -y+3/4, x+1/4'
8 '-z+1/4, -y+1/4, -x+1/4'
9 'y+3/4, -x+3/4, z+1/4'
10 '-y+1/4, -x+1/4, -z+1/4'
11 'x+3/4, -z+3/4, y+1/4'
12 '-x+1/4, -z+1/4, -y+1/4'
13 '-y+1/2, -z, x+1/2'
14 '-y, z+1/2, -x+1/2'
15 'y+1/2, -z+1/2, -x'
16 'y, z, x'
17 'z+1/2, -x+1/2, -y'
18 '-z+1/2, -x, y+1/2'
19 '-z, x+1/2, -y+1/2'
20 'z, x, y'
21 '-x+1/2, -y, z+1/2'
22 '-x, y+1/2, -z+1/2'
23 'x+1/2, -y+1/2, -z'
24 'x, y, z'
loop_
_atom_type_symbol
_atom_type_oxidation_number
Li1+ 1
Fe3+ 3
Li1+ 1
Fe3+ 3
Mn3+ 3
Mn4+ 4
Li1+ 1
Fe3+ 3
Mn3+ 3
Mn4+ 4
O2- -2
loop_
_atom_site_label
_atom_site_type_symbol
_atom_site_symmetry_multiplicity
_atom_site_Wyckoff_symbol
_atom_site_fract_x
_atom_site_fract_y
_atom_site_fract_z
_atom_site_B_iso_or_equiv
_atom_site_occupancy
_atom_site_attached_hydrogens
Li1 Li1+ 8 c 0 0 0 1.97 0.277(5) 0
Fe1 Fe3+ 8 c 0 0 0 1.97 0.723(5) 0
Li2 Li1+ 4 b 0.625 0.625 0.625 1.97 0.222(9) 0
Fe2 Fe3+ 4 b 0.625 0.625 0.625 1.97 0.435(5) 0
Mn1 Mn3+ 4 b 0.625 0.625 0.625 1.97 0.117(7) 0
Mn2 Mn4+ 4 b 0.625 0.625 0.625 1.97 0.231(7) 0
Li3 Li1+ 12 d 0.125 0.375 0.875 1.97 0.172(1) 0
Fe3 Fe3+ 12 d 0.125 0.375 0.875 1.97 0.434(4) 0
Mn3 Mn3+ 12 d 0.125 0.375 0.875 1.97 0.113(2) 0
Mn4 Mn4+ 12 d 0.125 0.375 0.875 1.97 0.227(2) 0
O1 O2- 8 c 0.3865(5) 0.3865(5) 0.3865(5) 1.97 1. 0
O2 O2- 24 e 0.3865(5) 0.8865(5) 0.8865(5) 1.97 1. 0
#End of TTdata_150239-ICSD