
#(C) 2017 by FIZ Karlsruhe - Leibniz Institute for Information Infrastructure.  All rights reserved.
data_150441-ICSD
_database_code_ICSD 150441
_audit_creation_date 2006-04-01
_audit_update_record 2013-08-01
_chemical_name_systematic 'Lithium lanthanum osmium iodide (0.97/6.03/1/12)'
_chemical_formula_structural '(Li0.967 La0.033) (La6 I12 Os)'
_chemical_formula_sum 'I12 La6.033 Li0.967 Os1'
_chemical_name_structure_type NaLa6OsI12
_exptl_crystal_density_diffrn 5.14
_publ_section_title
'Li La6 I12 Os, a substitutional derivative of rhombohedral La (La6 I12 Os)'
loop_
_citation_id
_citation_journal_full
_citation_year
_citation_journal_volume
_citation_page_first
_citation_page_last
_citation_journal_id_ASTM
primary 'Journal of Solid State Chemistry' 2004 177 4465 4474 JSSCBI
loop_
_publ_author_name
'Jensen, E.A.'
'Corbett, J.D.'
_cell_length_a 16.147(5)
_cell_length_b 16.147(5)
_cell_length_c 10.972(4)
_cell_angle_alpha 90.
_cell_angle_beta 90.
_cell_angle_gamma 120.
_cell_volume 2477.42
_cell_formula_units_Z 3
_symmetry_space_group_name_H-M 'R -3 H'
_symmetry_Int_Tables_number 148
_refine_ls_R_factor_all 0.0429
loop_
_symmetry_equiv_pos_site_id
_symmetry_equiv_pos_as_xyz
1 'x-y, x, -z'
2 'y, -x+y, -z'
3 '-x, -y, -z'
4 '-x+y, -x, z'
5 '-y, x-y, z'
6 'x, y, z'
7 'x-y+2/3, x+1/3, -z+1/3'
8 'y+2/3, -x+y+1/3, -z+1/3'
9 '-x+2/3, -y+1/3, -z+1/3'
10 '-x+y+2/3, -x+1/3, z+1/3'
11 '-y+2/3, x-y+1/3, z+1/3'
12 'x+2/3, y+1/3, z+1/3'
13 'x-y+1/3, x+2/3, -z+2/3'
14 'y+1/3, -x+y+2/3, -z+2/3'
15 '-x+1/3, -y+2/3, -z+2/3'
16 '-x+y+1/3, -x+2/3, z+2/3'
17 '-y+1/3, x-y+2/3, z+2/3'
18 'x+1/3, y+2/3, z+2/3'
loop_
_atom_type_symbol
_atom_type_oxidation_number
La0+ 0
I0+ -0.089
Os0+ 0
Li1+ 1
La3+ 3
loop_
_atom_site_label
_atom_site_type_symbol
_atom_site_symmetry_multiplicity
_atom_site_Wyckoff_symbol
_atom_site_fract_x
_atom_site_fract_y
_atom_site_fract_z
_atom_site_B_iso_or_equiv
_atom_site_occupancy
_atom_site_attached_hydrogens
La1 La0+ 18 f 0.88381(6) 0.83818(6) 0.15261(8) 0.0230(2) 1. 0
I1 I0+ 18 f 0.28391(7) 0.7977(1) 0.3245(1) 0.0308(2) 1. 0
I2 I0+ 18 f 0.68821(7) 0.76503(8) -0.0019(1) 0.0375(3) 1. 0
Os1 Os0+ 3 a 0 0 0 0.0129(3) 1. 0
Li1 Li1+ 3 b 0 0 0.5 0.05(2) .967(1) 0
La2 La3+ 3 b 0 0 0.5 0.05(2) .033(1) 0
loop_
_atom_site_aniso_label
_atom_site_aniso_type_symbol
_atom_site_aniso_U_11
_atom_site_aniso_U_22
_atom_site_aniso_U_33
_atom_site_aniso_U_12
_atom_site_aniso_U_13
_atom_site_aniso_U_23
La1 La0+ 0.0228(5) 0.0228(4) 0.0242(4) 0.0117(4) -0.0048(4) -0.0050(4)
I1 I0+ 0.0292(5) 0.0329(5) 0.0270(5) 0.0130(4) -0.0036(5) 0.0090(5)
I2 I0+ 0.0206(4) 0.0372(6) 0.0402(7) 0.0036(4) -0.0078(5) 0.0130(6)
Os1 Os0+ 0.0130(4) 0.0130(4) 0.0129(7) 0.0065(2) 0. 0.
Li1 Li1+ 0.05(2) 0.05(2) 0.05(3) 0.025(10) 0. 0.
La2 La3+ 0.05(2) 0.05(2) 0.05(3) 0.025(10) 0. 0.
#End of TTdata_150441-ICSD