
#(C) 2019 by FIZ Karlsruhe - Leibniz Institute for Information Infrastructure.  All rights reserved.
data_150466-ICSD
_database_code_ICSD 150466
_audit_creation_date 2006-04-01
_audit_update_record 2009-02-01
_chemical_name_systematic 'Sodium chlorate(V) bromate(V) (1/0.75/0.26)'
_chemical_formula_structural 'Na ((Cl O3)0.745 (Br O3)0.255)'
_chemical_formula_sum 'Br0.255 Cl0.745 Na1 O3'
_chemical_name_structure_type Na(Cl,Br)O3
_exptl_crystal_density_diffrn 2.71
_publ_section_title
'Kinetic ordering of atoms in sodium chlorate-bromate solid solutions'
loop_
_citation_id
_citation_journal_full
_citation_year
_citation_journal_volume
_citation_page_first
_citation_page_last
_citation_journal_id_ASTM
primary 'Journal of Solid State Chemistry' 2004 177 4732 4742 JSSCBI
loop_
_publ_author_name
'Shtukenberg, A.G.'
'Rozhdestvenskaya, I.V.'
'Popov, D.Yu.'
'Punin, Yu.O.'
_cell_length_a 6.611(1)
_cell_length_b 6.610(1)
_cell_length_c 6.611(1)
_cell_angle_alpha 90.
_cell_angle_beta 90.06(1)
_cell_angle_gamma 90.
_cell_volume 288.89
_cell_formula_units_Z 4
_symmetry_space_group_name_H-M 'P 1 21 1'
_symmetry_Int_Tables_number 4
_refine_ls_R_factor_all 0.036
loop_
_symmetry_equiv_pos_site_id
_symmetry_equiv_pos_as_xyz
1 '-x, y+1/2, -z'
2 'x, y, z'
loop_
_atom_type_symbol
_atom_type_oxidation_number
Cl5+ 5
Br5+ 5
Cl5+ 5
Br5+ 5
Na1+ 1
O2- -2
loop_
_atom_site_label
_atom_site_type_symbol
_atom_site_symmetry_multiplicity
_atom_site_Wyckoff_symbol
_atom_site_fract_x
_atom_site_fract_y
_atom_site_fract_z
_atom_site_B_iso_or_equiv
_atom_site_occupancy
_atom_site_attached_hydrogens
Cl1 Cl5+ 2 a 0.58669(5) 0.9159 0.33656(5) 0.01597(8) 0.703(5) 0
Br1 Br5+ 2 a 0.58669(5) 0.9159 0.33656(5) 0.01597(8) 0.297(5) 0
Cl2 Cl5+ 2 a 0.08526(6) 0.58823(8) 0.16468(6) 0.01584(8) 0.784(5) 0
Br2 Br5+ 2 a 0.08526(6) 0.58823(8) 0.16468(6) 0.01584(8) 0.216(5) 0
Na1 Na1+ 2 a 0.4296(2) 0.9346(3) 0.8209(2) 0.0224(3) 1. 0
Na2 Na1+ 2 a 0.9299(2) 0.5755(3) 0.6799(2) 0.0228(3) 1. 0
O1 O2- 2 a 0.8007(3) 0.9124(4) 0.7447(3) 0.0255(5) 1. 0
O2 O2- 2 a 0.2999(3) 0.5991(4) 0.7547(3) 0.0247(5) 1. 0
O3 O2- 2 a 0.4955(4) 0.8053(4) 0.1563(3) 0.0250(5) 1. 0
O4 O2- 2 a 0.9946(4) 0.7040(4) 0.3431(3) 0.0247(5) 1. 0
O5 O2- 2 a 0.5938(3) 0.5107(4) 0.5500(3) 0.0249(5) 1. 0
O6 O2- 2 a 0.9064(3) 0.5009(4) 0.0502(4) 0.0248(5) 1. 0
#End of TTdata_150466-ICSD