
#(C) 2018 by FIZ Karlsruhe - Leibniz Institute for Information Infrastructure.  All rights reserved.
data_150411-ICSD
_database_code_ICSD 150411
_audit_creation_date 2006-04-01
_audit_update_record 2008-02-01
_chemical_name_systematic
'Strontium lithium niobium tungsten oxide (1/0.3/0.5/0.2/3)'
_chemical_formula_structural 'Sr (Li0.3 Nb0.5 W0.2) O3'
_chemical_formula_sum 'Li0.3 Nb0.5 O3 Sr1 W0.2'
_chemical_name_structure_type Ca4Nb2O9
_exptl_crystal_density_diffrn 5.75
_publ_section_title

;
Ordered perovskites in the (A(2+) (Li1/4 Nb3/4) O3) - (A(2+) (Li2/5 W3/5) O3)
(A(2+) = Sr, Ca) systems
;
loop_
_citation_id
_citation_journal_full
_citation_year
_citation_journal_volume
_citation_page_first
_citation_page_last
_citation_journal_id_ASTM
primary 'Journal of Solid State Chemistry' 2004 177 4305 4315 JSSCBI
loop_
_publ_author_name
'Wu Hui'
'Davies, P.K.'
_cell_length_a 9.7784(3)
_cell_length_b 5.6463(2)
_cell_length_c 16.9578(5)
_cell_angle_alpha 90.
_cell_angle_beta 125.091(2)
_cell_angle_gamma 90.
_cell_volume 766.09
_cell_formula_units_Z 12
_symmetry_space_group_name_H-M 'P 1 21/c 1'
_symmetry_Int_Tables_number 14
_refine_ls_R_factor_all 0.0415
loop_
_symmetry_equiv_pos_site_id
_symmetry_equiv_pos_as_xyz
1 'x, -y+1/2, z+1/2'
2 '-x, -y, -z'
3 '-x, y+1/2, -z+1/2'
4 'x, y, z'
loop_
_atom_type_symbol
_atom_type_oxidation_number
Sr2+ 2
Li1+ 1
Nb5+ 5
Li1+ 1
Nb5+ 5
W6+ 6
Li1+ 1
Nb5+ 5
W6+ 6
Li1+ 1
O2- -2
loop_
_atom_site_label
_atom_site_type_symbol
_atom_site_symmetry_multiplicity
_atom_site_Wyckoff_symbol
_atom_site_fract_x
_atom_site_fract_y
_atom_site_fract_z
_atom_site_B_iso_or_equiv
_atom_site_occupancy
_atom_site_attached_hydrogens
Sr1 Sr2+ 4 e 0.7411(1) 0.4893(2) 0.2465(1) 0.0112(4) 1. 0
Sr2 Sr2+ 4 e 0.2486(1) 0.5065(6) 0.0780(1) 0.0120(7) 1. 0
Sr3 Sr2+ 4 e 0.7496(1) 0.0173(1) 0.0890(5) 0.0080(1) 1. 0
Li1 Li1+ 2 a 0 0 0 0.0115(1) 0.724(5) 0
Nb1 Nb5+ 2 a 0 0 0 0.0115(1) 0.276(2) 0
Li2 Li1+ 2 d 0.5 0.5 0 0.0115(1) 0.724(5) 0
Nb2 Nb5+ 2 d 0.5 0.5 0 0.0115(1) 0.276(2) 0
Nb3 Nb5+ 4 e 0.0109(1) -0.0047(3) 0.3403(6) 0.0082(7) 0.612(2) 0
W1 W6+ 4 e 0.0109(1) -0.0047(3) 0.3403(6) 0.0082(7) 0.3 0
Li3 Li1+ 4 e 0.0109(1) -0.0047(3) 0.3403(6) 0.0082(7) 0.088(5) 0
Nb4 Nb5+ 4 e 0.4919 -0.0045(3) 0.1608(6) 0.0082(7) 0.612(2) 0
W2 W6+ 4 e 0.4919 -0.0045(3) 0.1608(6) 0.0082(7) 0.3 0
Li4 Li1+ 4 e 0.4919 -0.0045(3) 0.1608(6) 0.0082(7) 0.088(5) 0
O1 O2- 4 e -0.0262(1) 0.2355(2) 0.0821(6) 0.0132(3) 1. 0
O2 O2- 4 e 0.4739(1) 0.7161(2) 0.2283(6) 0.0111(8) 1. 0
O3 O2- 4 e -0.0089(1) 0.7576(2) 0.2413(5) 0.0105(9) 1. 0
O4 O2- 4 e 0.5199(1) 0.2687(2) 0.1012(5) 0.0114(1) 1. 0
O5 O2- 4 e 0.0313(1) 0.7628(2) 0.1046(6) 0.0116(3) 1. 0
O6 O2- 4 e 0.4710(1) 0.7847(2) 0.0644(6) 0.0093(1) 1. 0
O7 O2- 4 e 0.2520(2) 0.4508(2) 0.2461(8) 0.0108(9) 1. 0
O8 O2- 4 e 0.7521(1) 0.5442(2) 0.0800(7) 0.0106(2) 1. 0
O9 O2- 4 e 0.2560(2) 0.0403(2) 0.0893(7) 0.0108(8) 1. 0
#End of TTdata_150411-ICSD