
#(C) 2019 by FIZ Karlsruhe - Leibniz Institute for Information Infrastructure.  All rights reserved.
data_150427-ICSD
_database_code_ICSD 150427
_audit_creation_date 2006-04-01
_audit_update_record 2007-08-01
_chemical_name_systematic
'Calcium sodium titanium tantalum oxide (0.3/0.7/0.3/0.7/3)'
_chemical_formula_structural '(Ca0.3 Na0.7) ((Ti0.3 Ta0.7) O3)'
_chemical_formula_sum 'Ca0.3 Na0.7 O3 Ta0.7 Ti0.3'
_chemical_name_structure_type Perovskite-GdFeO3
_exptl_crystal_density_diffrn 6.19
_publ_section_title
'A structural study of the perovskite series Ca1-x Nax Ti1-x Tax O3'
loop_
_citation_id
_citation_journal_full
_citation_year
_citation_journal_volume
_citation_page_first
_citation_page_last
_citation_journal_id_ASTM
primary 'Journal of Solid State Chemistry' 2004 177 4420 4427 JSSCBI
loop_
_publ_author_name
'Mitchell, R.H.'
'Liferovich, R.P.'
_cell_length_a 5.45831(10)
_cell_length_b 5.50015(10)
_cell_length_c 7.75748(12)
_cell_angle_alpha 90.
_cell_angle_beta 90.
_cell_angle_gamma 90.
_cell_volume 232.89
_cell_formula_units_Z 4
_symmetry_space_group_name_H-M 'P b n m'
_symmetry_Int_Tables_number 62
_refine_ls_R_factor_all 0.0179
loop_
_symmetry_equiv_pos_site_id
_symmetry_equiv_pos_as_xyz
1 '-x+1/2, y+1/2, z'
2 'x, y, -z+1/2'
3 'x+1/2, -y+1/2, z+1/2'
4 '-x, -y, -z'
5 'x+1/2, -y+1/2, -z'
6 '-x, -y, z+1/2'
7 '-x+1/2, y+1/2, -z+1/2'
8 'x, y, z'
loop_
_atom_type_symbol
_atom_type_oxidation_number
Ca2+ 2
Na1+ 1
Ti4+ 4
Ta5+ 5
O2- -2
loop_
_atom_site_label
_atom_site_type_symbol
_atom_site_symmetry_multiplicity
_atom_site_Wyckoff_symbol
_atom_site_fract_x
_atom_site_fract_y
_atom_site_fract_z
_atom_site_B_iso_or_equiv
_atom_site_occupancy
_atom_site_attached_hydrogens
Ca1 Ca2+ 4 c 0.9958(24) 0.0220(17) 0.25 1.34(8) 0.3 0
Na1 Na1+ 4 c 0.9958(24) 0.0220(17) 0.25 1.34(8) 0.7 0
Ti1 Ti4+ 4 b 0 0.5 0 0.35(1) 0.3 0
Ta1 Ta5+ 4 b 0 0.5 0 0.35(1) 0.7 0
O1 O2- 4 c 0.0616(21) 0.4909(41) 0.25 0.24(11) 1. 0
O2 O2- 8 d 0.7268(20) 0.2941(16) 0.0387(11) 0.24(11) 1. 0
#End of TTdata_150427-ICSD