
#(C) 2019 by FIZ Karlsruhe - Leibniz Institute for Information Infrastructure.  All rights reserved.
data_15066-ICSD
_database_code_ICSD 15066
_audit_creation_date 1980-01-01
_audit_update_record 2014-08-01
_chemical_name_systematic 'Sodium hydrogensulfate(VI) hydrate'
_chemical_formula_structural 'Na (H S O4) (H2 O)'
_chemical_formula_sum 'H3 Na1 O5 S1'
_chemical_name_structure_type H3ONaSO4
_chemical_name_mineral Matteuccite
_exptl_crystal_density_diffrn 2.12
_publ_section_title 'The crystal structure of Na H S O4 H2 O'
loop_
_citation_id
_citation_journal_full
_citation_year
_citation_journal_volume
_citation_page_first
_citation_page_last
_citation_journal_id_ASTM
primary 'Acta Chemica Scandinavica ' 1971 25 3213 3219 ACSAA4
loop_
_publ_author_name
'Grimvall, S.'
_cell_length_a 7.799(5)
_cell_length_b 7.790(4)
_cell_length_c 8.230(4)
_cell_angle_alpha 90.
_cell_angle_beta 119.95(3)
_cell_angle_gamma 90.
_cell_volume 433.24
_cell_formula_units_Z 4
_symmetry_space_group_name_H-M 'C 1 c 1'
_symmetry_Int_Tables_number 9
_refine_ls_R_factor_all 0.074
loop_
_symmetry_equiv_pos_site_id
_symmetry_equiv_pos_as_xyz
1 'x, -y, z+1/2'
2 'x, y, z'
3 'x+1/2, -y+1/2, z+1/2'
4 'x+1/2, y+1/2, z'
loop_
_atom_type_symbol
_atom_type_oxidation_number
S6+ 6
Na1+ 1
O2- -2
H1+ 1
loop_
_atom_site_label
_atom_site_type_symbol
_atom_site_symmetry_multiplicity
_atom_site_Wyckoff_symbol
_atom_site_fract_x
_atom_site_fract_y
_atom_site_fract_z
_atom_site_B_iso_or_equiv
_atom_site_occupancy
_atom_site_attached_hydrogens
S1 S6+ 4 a 0 0.1290(3) 0.25 0.25 1. 0
Na1 Na1+ 4 a 0.2318(9) 0.2777(7) 0.0006(9) 0.47 1. 0
O1 O2- 4 a 0.0537(14) 0.2596(14) 0.1581(14) 0.63 1. 0
O2 O2- 4 a 0.7957(13) 0.0730(12) 0.1305(13) 0.2 1. 0
O3 O2- 4 a 0.9986(15) 0.2136(14) 0.4263(16) 0.64 1. 0
O4 O2- 4 a 0.1435(15) 0.9917(14) 0.3204(14) 0.66 1. 0
O5 O2- 4 a 0.4521(14) 0.0889(13) 0.2511(15) 0.83 1. 0
H1 H1+ 4 a 0.345 0.057 0.274 2. 1. 0
H2 H1+ 4 a 0.95 0.509 0.154 2. 1. 0
H3 H1+ 4 a 0.113 0.293 0.508 2. 1. 0
#End of TTdata_15066-ICSD