
#(C) 2019 by FIZ Karlsruhe - Leibniz Institute for Information Infrastructure.  All rights reserved.
data_150872-ICSD
_database_code_ICSD 150872
_audit_creation_date 2006-04-01
_audit_update_record 2012-02-01
_chemical_name_systematic 'Sodium gallium fluoride (5/3/14) - alpha'
_chemical_formula_structural 'Na5 Ga3 F14'
_chemical_formula_sum 'F14 Ga3 Na5'
_chemical_name_structure_type Na5Ga3F14
_chemical_name_mineral Unnamed
_exptl_crystal_density_diffrn 3.59
_publ_section_title
'Distorted chiolite crystal structures of alpha-(Na5 M3 F14) (M= Cr, Fe, Ga)'
loop_
_citation_id
_citation_journal_full
_citation_year
_citation_journal_volume
_citation_page_first
_citation_page_last
_citation_journal_id_ASTM
primary 'Powder Diffraction' 2003 18 128 134 PODIE2
loop_
_publ_author_name
'Le Bail, A.'
'Mercier, A.M.'
_cell_length_a 10.4052(1)
_cell_length_b 7.2251(1)
_cell_length_c 7.2689(1)
_cell_angle_alpha 90.
_cell_angle_beta 90.6640(4)
_cell_angle_gamma 90.
_cell_volume 546.43
_cell_formula_units_Z 2
_symmetry_space_group_name_H-M 'P 1 21/n 1'
_symmetry_Int_Tables_number 14
_refine_ls_R_factor_all 0.039
loop_
_symmetry_equiv_pos_site_id
_symmetry_equiv_pos_as_xyz
1 '-x+1/2, y+1/2, -z+1/2'
2 '-x, -y, -z'
3 'x+1/2, -y+1/2, z+1/2'
4 'x, y, z'
loop_
_atom_type_symbol
_atom_type_oxidation_number
Na1+ 1
Ga3+ 3
F1- -1
loop_
_atom_site_label
_atom_site_type_symbol
_atom_site_symmetry_multiplicity
_atom_site_Wyckoff_symbol
_atom_site_fract_x
_atom_site_fract_y
_atom_site_fract_z
_atom_site_B_iso_or_equiv
_atom_site_occupancy
_atom_site_attached_hydrogens
Na1 Na1+ 4 e 0.2514(4) 0.2032(5) 0.2624(6) 1.65(1) 1. 0
Na2 Na1+ 4 e 0.2598(4) 0.2676(5) 0.7763(6) 1.76(1) 1. 0
Na3 Na1+ 2 d 0.5 0 0 3.90(15) 1. 0
Ga1 Ga3+ 2 a 0 0 0 0.50(3) 1. 0
Ga2 Ga3+ 2 b 0 0 0.5 0.67(4) 1. 0
Ga3 Ga3+ 2 c 0.5 0 0.5 0.72(4) 1. 0
F1 F1- 4 e 0.9631(4) 0.2456(7) 0.9308(7) 1.21(10) 1. 0
F2 F1- 4 e 0.0009(5) 0.0720(6) 0.2481(8) 1.65(11) 1. 0
F3 F1- 4 e 0.1742(3) 0.0395(7) 0.9904(6) 2.20(13) 1. 0
F4 F1- 4 e 0.3851(4) 0.0116(7) 0.6904(6) 1.34(11) 1. 0
F5 F1- 4 e 0.1105(4) 0.8015(7) 0.4588(7) 1.30(13) 1. 0
F6 F1- 4 e 0.6285(4) 0.0601(6) 0.6719(6) 1.46(13) 1. 0
F7 F1- 4 e 0.3648(4) 0.6582(6) 0.9691(7) 1.92(15) 1. 0
#End of TTdata_150872-ICSD