
#(C) 2019 by FIZ Karlsruhe - Leibniz Institute for Information Infrastructure.  All rights reserved.
data_150825-ICSD
_database_code_ICSD 150825
_audit_creation_date 2006-04-01
_audit_update_record 2013-08-01
_chemical_name_systematic
'Disodium hexamagnesium dihydroxodocosaoxooctasilicate'
_chemical_formula_structural 'Na (Na Mg) Mg5 (Si8 O22 (O H)2)'
_chemical_formula_sum 'H2 Mg6 Na2 O24 Si8'
_chemical_name_structure_type Amphibole#-(MO,P121/m1)
_chemical_name_mineral 'Richterite (Ca-free)'
_exptl_crystal_density_diffrn 2.99
_publ_section_title

;
The P21/m - C2/m phase transition in synthetic amphibole Na Na Mg Mg5 Si8 O22
(O H)2: thermodynamic and crystal-chemical evaluation
;
loop_
_citation_id
_citation_journal_full
_citation_year
_citation_journal_volume
_citation_page_first
_citation_page_last
_citation_journal_id_ASTM
primary 'Physics and Chemistry of Minerals' 2003 30 570 581 PCMIDU
loop_
_publ_author_name
'Camara, F.'
'Oberti, R.'
'Iezzi, G.'
'della Ventura, G.'
_cell_length_a 9.685(1)
_cell_length_b 17.920(2)
_cell_length_c 5.268(1)
_cell_angle_alpha 90.
_cell_angle_beta 102.44(3)
_cell_angle_gamma 90.
_cell_volume 892.82
_cell_formula_units_Z 2
_symmetry_space_group_name_H-M 'P 1 21/m 1'
_symmetry_Int_Tables_number 11
_refine_ls_R_factor_all 0.04
loop_
_symmetry_equiv_pos_site_id
_symmetry_equiv_pos_as_xyz
1 'x, -y+1/2, z'
2 '-x, -y, -z'
3 '-x, y+1/2, -z'
4 'x, y, z'
loop_
_atom_type_symbol
_atom_type_oxidation_number
O2- -2
Si4+ 4
Mg2+ 2
Na1+ 1
H1+ 1
loop_
_atom_site_label
_atom_site_type_symbol
_atom_site_symmetry_multiplicity
_atom_site_Wyckoff_symbol
_atom_site_fract_x
_atom_site_fract_y
_atom_site_fract_z
_atom_site_B_iso_or_equiv
_atom_site_occupancy
_atom_site_attached_hydrogens
O1 O2- 4 f -0.1368(2) 0.3365(1) 0.1970(3) 0.59 1. 0
O2 O2- 4 f 0.3629(2) 0.8367(1) 0.2257(3) 0.58 1. 0
O3 O2- 4 f -0.1300(2) 0.4215(1) 0.7021(3) 0.72 1. 0
O4 O2- 4 f 0.3735(2) 0.9219(1) 0.7355(3) 0.77 1. 0
O5 O2- 2 e -0.1398(3) 0.25 0.6937(4) 0.68 1. 0
O6 O2- 2 e 0.3576(3) 0.75 0.7219(5) 0.71 1. 0
O7 O2- 4 f 0.1199(2) 0.4990(1) 0.7951(4) 1.08 1. 0
O8 O2- 4 f 0.6260(3) 0.9938(1) 0.7662(4) 1.86 1. 0
O9 O2- 4 f 0.0965(2) 0.3676(1) 0.0237(3) 0.95 1. 0
O10 O2- 4 f 0.6000(2) 0.8852(1) 0.0970(3) 0.9 1. 0
O11 O2- 4 f 0.0996(2) 0.3802(1) 0.5269(3) 1. 1. 0
O12 O2- 4 f 0.5928(2) 0.8578(1) 0.5969(3) 1.01 1. 0
O13 O2- 2 e 0.0922(3) 0.25 0.3006(5) 0.86 1. 0
O14 O2- 2 e 0.5896(3) 0.75 0.2607(5) 0.87 1. 0
Si1 Si4+ 4 f 0.0324(1) 0.3355(1) 0.2616(1) 0.5 1. 0
Si2 Si4+ 4 f 0.5320(1) 0.8344(1) 0.2951(1) 0.49 1. 0
Si3 Si4+ 4 f 0.0407(1) 0.4215(1) 0.7678(1) 0.52 1. 0
Si4 Si4+ 4 f 0.5441(1) 0.9195(1) 0.7991(1) 0.6 1. 0
Mg1 Mg2+ 4 f -0.2500(1) 0.3382(1) 0.4847(1) 0.64 1. 0
Mg2 Mg2+ 4 f -0.2501(1) 0.4295(1) 0.9838(2) 0.65 1. 0
Mg3 Mg2+ 2 e -0.2496(1) 0.25 0.9858(2) 0.61 1. 0
Mg4 Mg2+ 4 f -0.2468(2) 0.5065(1) 0.4812(3) 0.8 0.5 0
Na1 Na1+ 2 e 0.2658(3) 0.25 0.0456(7) 3.83 1. 0
Na2 Na1+ 4 f -0.2606(3) 0.5209(1) 0.4797(5) 1.46 0.5 0
H1 H1+ 2 e -0.056(7) 0.25 0.727(13) 3.86 1. 0
H2 H1+ 2 e 0.561(6) 0.25 0.246(13) 2.21 1. 0
loop_
_atom_site_aniso_label
_atom_site_aniso_type_symbol
_atom_site_aniso_beta_11
_atom_site_aniso_beta_22
_atom_site_aniso_beta_33
_atom_site_aniso_beta_12
_atom_site_aniso_beta_13
_atom_site_aniso_beta_23
O1 O2- 0.0019(2) 0.0005(1) 0.0048(5) -0.0001(1) 0.0007(2) -0.0002(1)
O2 O2- 0.0018(2) 0.0005(1) 0.0046(5) 0.0000(1) 0.0006(2) 0.0000(1)
O3 O2- 0.0018(2) 0.0007(1) 0.0062(5) -0.0001(1) 0.0010(2) -0.0005(1)
O4 O2- 0.0025(2) 0.0007(1) 0.0050(5) -0.0001(1) 0.0008(2) -0.0003(1)
O5 O2- 0.0022(2) 0.0005(1) 0.0058(7) 0. 0.0007(3) 0.
O6 O2- 0.0017(2) 0.0006(1) 0.0071(7) 0. 0.0009(3) 0.
O7 O2- 0.0042(2) 0.0005(1) 0.0093(6) -0.0006(1) -0.0007(2) -0.0002(1)
O8 O2- 0.0066(3) 0.0011(1) 0.0127(7) -0.0017(1) -0.0039(3) 0.0018(2)
O9 O2- 0.0024(2) 0.0010(1) 0.0074(5) 0.0001(1) 0.0013(2) 0.0012(1)
O10 O2- 0.0023(2) 0.0008(1) 0.0076(5) -0.0002(1) 0.0009(2) 0.0009(1)
O11 O2- 0.0023(2) 0.0010(1) 0.0082(5) 0.0003(1) 0.0000(2) -0.0017(1)
O12 O2- 0.0023(2) 0.0012(1) 0.0059(5) 0.0002(1) 0.0003(2) -0.0011(1)
O13 O2- 0.0024(2) 0.0004(1) 0.0116(8) 0. 0.0012(3) 0.
O14 O2- 0.0021(2) 0.0004(1) 0.0136(8) 0. 0.0019(3) 0.
Si1 Si4+ 0.0017(1) 0.0004(1) 0.0043(2) -0.0001(1) 0.0005(1) -0.0001(1)
Si2 Si4+ 0.0017(1) 0.0004(1) 0.0037(2) 0.0000(1) 0.0006(1) 0.0001(1)
Si3 Si4+ 0.0017(1) 0.0004(1) 0.0041(2) -0.0001(1) 0.0005(1) -0.0001(1)
Si4 Si4+ 0.0020(1) 0.0005(1) 0.0046(2) -0.0003(1) 0.0004(1) 0.0002(1)
Mg1 Mg2+ 0.0023(1) 0.0005(1) 0.0048(2) 0.0000(1) 0.0008(1) -0.0001(1)
Mg2 Mg2+ 0.0021(1) 0.0004(1) 0.0063(2) 0.0000(1) 0.0010(1) 0.0002(1)
Mg3 Mg2+ 0.0021(1) 0.0004(1) 0.0050(3) 0. 0.0004(1) 0.
Mg4 Mg2+ 0.0024(1) 0.0007(1) 0.0072(5) 0.0000(1) 0.0027(2) 0.0002(1)
Na1 Na1+ 0.0063(3) 0.0044(1) 0.0414(15) 0. 0.0130(6) 0.
#End of TTdata_150825-ICSD