
#(C) 2019 by FIZ Karlsruhe - Leibniz Institute for Information Infrastructure.  All rights reserved.
data_150827-ICSD
_database_code_ICSD 150827
_audit_creation_date 2006-04-01
_audit_update_record 2013-08-01
_chemical_name_systematic
'Disodium hexamagnesium dihydroxodocosaoxooctasilicate - HT'
_chemical_formula_structural 'Na (Na Mg) Mg5 (Si8 O22 (O H)2)'
_chemical_formula_sum 'H2 Mg6 Na2 O24 Si8'
_chemical_name_structure_type Amphibole#-(MO,C12/m1)
_chemical_name_mineral 'Richterite, Ca-free'
_exptl_crystal_density_diffrn 2.94
_cell_measurement_temperature 543.
_publ_section_title

;
The P21/m - C2/m phase transition in synthetic amphibole Na Na Mg Mg5 Si8 O22
(O H)2: thermodynamic and crystal-chemical evaluation
;
loop_
_citation_id
_citation_journal_full
_citation_year
_citation_journal_volume
_citation_page_first
_citation_page_last
_citation_journal_id_ASTM
primary 'Physics and Chemistry of Minerals' 2003 30 570 581 PCMIDU
loop_
_publ_author_name
'Camara, F.'
'Oberti, R.'
'Iezzi, G.'
'della Ventura, G.'
_cell_length_a 9.723(2)
_cell_length_b 18.027(3)
_cell_length_c 5.301(1)
_cell_angle_alpha 90.
_cell_angle_beta 102.26(1)
_cell_angle_gamma 90.
_cell_volume 907.95
_cell_formula_units_Z 2
_symmetry_space_group_name_H-M 'C 1 2/m 1'
_symmetry_Int_Tables_number 12
_refine_ls_R_factor_all 0.043
loop_
_symmetry_equiv_pos_site_id
_symmetry_equiv_pos_as_xyz
1 '-x, y, -z'
2 '-x, -y, -z'
3 'x, -y, z'
4 'x, y, z'
5 '-x+1/2, y+1/2, -z'
6 '-x+1/2, -y+1/2, -z'
7 'x+1/2, -y+1/2, z'
8 'x+1/2, y+1/2, z'
loop_
_atom_type_symbol
_atom_type_oxidation_number
O2- -2
Si4+ 4
Mg2+ 2
Na1+ 1
H1+ 1
loop_
_atom_site_label
_atom_site_type_symbol
_atom_site_symmetry_multiplicity
_atom_site_Wyckoff_symbol
_atom_site_fract_x
_atom_site_fract_y
_atom_site_fract_z
_atom_site_B_iso_or_equiv
_atom_site_occupancy
_atom_site_attached_hydrogens
O1 O2- 8 j 0.1126(6) 0.0863(3) 0.2117(13) 0.86 1. 0
O2 O2- 8 j 0.1221(7) 0.1718(3) 0.7191(13) 1.14 1. 0
O3 O2- 4 i 0.1088(9) 0 0.7058(20) 1.1 1. 0
O4 O2- 8 j 0.3714(8) 0.2469(3) 0.7798(19) 1.8 1. 0
O5 O2- 8 j 0.3467(8) 0.1266(4) 0.0588(13) 1.56 1. 0
O6 O2- 8 j 0.3456(7) 0.1191(4) 0.5591(12) 1.7 1. 0
O7 O2- 4 i 0.3393(11) 0 0.2782(22) 1.64 1. 0
Si1 Si4+ 8 j 0.2810(3) 0.0850(1) 0.2759(5) 0.65 1. 0
Si2 Si4+ 8 j 0.2924(3) 0.1707(1) 0.7833(6) 0.84 1. 0
Mg1 Mg2+ 4 h 0 0.0883(2) 0.5 0.85 1. 0
Mg2 Mg2+ 4 g 0 0.1795(2) 0 1.11 1. 0
Mg3 Mg2+ 2 a 0 0 0 0.87 1. 0
Mg4 Mg2+ 4 h 0 0.2620(4) 0.5 2.54 0.5 0
Na1 Na1+ 2 b 0 0.5 0 2.27 1. 0
Na2 Na1+ 4 i 0.0259(28) 0.5 0.0914(48) 2.76 0.5 0
H1 H1+ 4 i 0.195(10) 0 0.767(20) 0.01 1. 0
loop_
_atom_site_aniso_label
_atom_site_aniso_type_symbol
_atom_site_aniso_beta_11
_atom_site_aniso_beta_22
_atom_site_aniso_beta_33
_atom_site_aniso_beta_12
_atom_site_aniso_beta_13
_atom_site_aniso_beta_23
O1 O2- 0.0016(6) 0.0009(2) 0.0080(28) -0.0003(3) 0.0012(10) 0.0001(5)
O2 O2- 0.0041(7) 0.0011(2) 0.0055(26) -0.0004(3) 0.0019(12) 0.0001(5)
O3 O2- 0.0030(6) 0.0007(3) 0.0119(45) 0. 0.0014(17) 0.
O4 O2- 0.0052(9) 0.0011(2) 0.0162(38) -0.0012(3) -0.0019(14) 0.0004(6)
O5 O2- 0.0038(8) 0.0018(2) 0.0105(25) 0.0001(3) 0.0028(11) 0.0024(6)
O6 O2- 0.0032(8) 0.0024(2) 0.0058(2) 0.0006(3) -0.0007(11) -0.0029(6)
O7 O2- 0.0059(11) 0.0004(2) 0.0230(45) 0. 0.0049(18) 0.
Si1 Si4+ 0.0025(3) 0.0005(1) 0.0038(9) 0.0002(1) 0.0014(4) 0.0000(2)
Si2 Si4+ 0.0023(2) 0.0007(1) 0.0075(9) -0.0002(1) 0.0009(4) 0.0003(2)
Mg1 Mg2+ 0.0031(5) 0.0010(1) 0.0022(17) 0. 0.0020(7) 0.
Mg2 Mg2+ 0.0038(5) 0.0006(1) 0.0114(19) 0. 0.0022(8) 0.
Mg3 Mg2+ 0.0017(6) 0.0004(2) 0.0117(32) 0. -0.0013(12) 0.
Mg4 Mg2+ 0.0078(9) 0.0030(3) 0.0133(32) 0. 0.0085(13) 0.
Na1 Na1+ 0.0027(35) 0.0041(14) 0.0027(13) 0. -0.0022(51) 0.
Na2 Na1+ 0.0050(37) 0.0036(8) 0.0213(116) 0. 0.0071(54) 0.
#End of TTdata_150827-ICSD