
#(C) 2019 by FIZ Karlsruhe - Leibniz Institute for Information Infrastructure.  All rights reserved.
data_1511-ICSD
_database_code_ICSD 1511
_audit_creation_date 1980-01-01
_audit_update_record 2011-02-01
_chemical_name_systematic 'Disodium heptafluoroniccoloferrate(III)'
_chemical_formula_structural 'Na2 (Ni Fe F7)'
_chemical_formula_sum 'F7 Fe1 Na2 Ni1'
_chemical_name_structure_type Na2NiFeF7
_exptl_crystal_density_diffrn 3.5
_publ_section_title
'Die Verfeinerung der Weberitstruktur der Verbindung  Na2 Ni Fe F7'
loop_
_citation_id
_citation_journal_full
_citation_year
_citation_journal_volume
_citation_page_first
_citation_page_last
_citation_journal_id_ASTM
primary 'Journal of Solid State Chemistry' 1978 24 77 84 JSSCBI
loop_
_publ_author_name
'Haegele, R.'
'Verscharen, W.'
'Babel, D.'
'Dance, J.M.'
'Tressaud, A.'
_cell_length_a 7.245(1)
_cell_length_b 10.320(1)
_cell_length_c 7.458(1)
_cell_angle_alpha 90.
_cell_angle_beta 90.
_cell_angle_gamma 90.
_cell_volume 557.62
_cell_formula_units_Z 4
_symmetry_space_group_name_H-M 'I m m 2'
_symmetry_Int_Tables_number 44
_refine_ls_R_factor_all 0.029
loop_
_symmetry_equiv_pos_site_id
_symmetry_equiv_pos_as_xyz
1 'x, -y, z'
2 '-x, y, z'
3 '-x, -y, z'
4 'x, y, z'
5 'x+1/2, -y+1/2, z+1/2'
6 '-x+1/2, y+1/2, z+1/2'
7 '-x+1/2, -y+1/2, z+1/2'
8 'x+1/2, y+1/2, z+1/2'
loop_
_atom_type_symbol
_atom_type_oxidation_number
Ni2+ 2
Fe3+ 3
Na1+ 1
F1- -1
loop_
_atom_site_label
_atom_site_type_symbol
_atom_site_symmetry_multiplicity
_atom_site_Wyckoff_symbol
_atom_site_fract_x
_atom_site_fract_y
_atom_site_fract_z
_atom_site_B_iso_or_equiv
_atom_site_occupancy
_atom_site_attached_hydrogens
Ni1 Ni2+ 4 c 0.2504(3) 0 -.0028(3) . 1. 0
Fe1 Fe3+ 4 d 0 0.2510(3) 0.2471(3) . 1. 0
Na1 Na1+ 4 c 0.2445(12) 0 0.4895(20) . 1. 0
Na2 Na1+ 4 d 0 0.2479(15) 0.7541(11) . 1. 0
F1 F1- 2 a 0 0 0.8998(10) . 1. 0
F2 F1- 2 b 0 0.5 0.6054(10) . 1. 0
F3 F1- 4 d 0 0.1573(6) 0.4772(6) . 1. 0
F4 F1- 4 d 0 0.3352(6) 0.0174(6) 1.393 1. 0
F5 F1- 8 e 0.1980(6) 0.1329(5) 0.1816(5) . 1. 0
F6 F1- 8 e 0.3047(6) 0.1341(4) 0.8122(4) . 1. 0
loop_
_atom_site_aniso_label
_atom_site_aniso_type_symbol
_atom_site_aniso_B_11
_atom_site_aniso_B_22
_atom_site_aniso_B_33
_atom_site_aniso_B_12
_atom_site_aniso_B_13
_atom_site_aniso_B_23
Ni1 Ni2+ 0.411(22) 0.476(23) 0.613(23) 0 0.081(17) 0
Fe1 Fe3+ 0.372(24) 0.368(25) 0.413(25) 0 0 -.192(19)
Na1 Na1+ 1.51(11) 1.88(11) 4.50(16) 0 -0.63(11) 0
Na2 Na1+ 1.582(94) 3.73(15) 1.197(92) 0 0 -1.33(11)
F1 F1- 0.17(22) 3.11(42) 1.13(29) 0 0 0
F2 F1- 0.67(25) 1.91(36) 1.80(36) 0 0 0
F3 F1- 2.04(19) 1.78(19) 0.59(16) 0 0 0.36(14)
F5 F1- 1.26(15) 1.81(20) 2.97(27) 0.65(18) 0.34(20) -1.19(21)
F6 F1- 1.17(14) 0.94(15) 1.15(16) -0.18(15) 0.01(15) 0.69(15)
#End of TTdata_1511-ICSD