
#(C) 2019 by FIZ Karlsruhe - Leibniz Institute for Information Infrastructure.  All rights reserved.
data_151455-ICSD
_database_code_ICSD 151455
_audit_creation_date 2006-10-01
_chemical_name_systematic 'Disodium nickel bis(sulfate(VI)) tetrahydrate'
_chemical_formula_structural 'Na2 Ni (S O4)2 (H2 O)4'
_chemical_formula_sum 'H8 Na2 Ni1 O12 S2'
_chemical_name_structure_type Bloedite
_exptl_crystal_density_diffrn 2.48
_publ_section_title

;
Bloedite-type compounds Na2 Me (S O4)2 * 4(H2 O) (Me = Mg, Co, Ni, Zn):
crystal structures and hydrogen bonding systems
;
loop_
_citation_id
_citation_journal_full
_citation_year
_citation_journal_volume
_citation_page_first
_citation_page_last
_citation_journal_id_ASTM
primary 'Journal of Molecular Structure' 2004 706 57 63 JMOSB4
loop_
_publ_author_name
'Stoilova, D.'
'Wildner, M.'
_cell_length_a 11.042(1)
_cell_length_b 8.202(1)
_cell_length_c 5.537(1)
_cell_angle_alpha 90.
_cell_angle_beta 100.53(1)
_cell_angle_gamma 90.
_cell_volume 493.02
_cell_formula_units_Z 2
_symmetry_space_group_name_H-M 'P 1 21/a 1'
_symmetry_Int_Tables_number 14
_refine_ls_R_factor_all 0.0229
loop_
_symmetry_equiv_pos_site_id
_symmetry_equiv_pos_as_xyz
1 'x+1/2, -y+1/2, z'
2 '-x, -y, -z'
3 '-x+1/2, y+1/2, -z'
4 'x, y, z'
loop_
_atom_type_symbol
_atom_type_oxidation_number
Ni2+ 2
S6+ 6
Na1+ 1
O2- -2
H1+ 1
loop_
_atom_site_label
_atom_site_type_symbol
_atom_site_symmetry_multiplicity
_atom_site_Wyckoff_symbol
_atom_site_fract_x
_atom_site_fract_y
_atom_site_fract_z
_atom_site_B_iso_or_equiv
_atom_site_occupancy
_atom_site_attached_hydrogens
Ni1 Ni2+ 2 a 0 0 0 0.0110(1) 1. 0
S1 S6+ 4 e 0.13657(2) 0.28627(3) 0.37001(4) 0.0113(1) 1. 0
Na1 Na1+ 4 e 0.36180(4) 0.06907(6) 0.12863(9) 0.0203(3) 1. 0
O1 O2- 4 e 0.26769(7) 0.26828(10) 0.34978(16) 0.0205(2) 1. 0
O2 O2- 4 e 0.07935(7) 0.41433(10) 0.20501(16) 0.0210(2) 1. 0
O3 O2- 4 e 0.07160(8) 0.12938(10) 0.31450(14) 0.0200(2) 1. 0
O4 O2- 4 e 0.13119(8) 0.32745(10) 0.62904(14) 0.0211(2) 1. 0
O5 O2- 4 e 0.16058(7) 0.03640(11) 0.87459(14) 0.0159(1) 1. 0
O6 O2- 4 e 0.41941(8) 0.29018(10) 0.82822(14) 0.0171(1) 1. 0
H1 H1+ 4 e 0.173(2) -0.031(2) 0.791(4) 0.030(5) 1. 0
H2 H1+ 4 e 0.156(2) 0.111(3) 0.797(4) 0.044(6) 1. 0
H3 H1+ 4 e 0.370(2) 0.294(2) 0.713(4) 0.040(5) 1. 0
H4 H1+ 4 e 0.460(2) 0.232(3) 0.787(4) 0.042(6) 1. 0
#End of TTdata_151455-ICSD