
#(C) 2019 by FIZ Karlsruhe - Leibniz Institute for Information Infrastructure.  All rights reserved.
data_151453-ICSD
_database_code_ICSD 151453
_audit_creation_date 2006-10-01
_chemical_name_systematic 'Disodium magnesium bis(sulfate(VI)) tetrahydrate'
_chemical_formula_structural 'Na2 Mg (S O4)2 (H2 O)4'
_chemical_formula_sum 'H8 Mg1 Na2 O12 S2'
_chemical_name_structure_type Bloedite
_chemical_name_mineral Bloedite
_exptl_crystal_density_diffrn 2.22
_publ_section_title

;
Bloedite-type compounds Na2 Me (S O4)2 * 4(H2 O) (Me = Mg, Co, Ni, Zn):
crystal structures and hydrogen bonding systems
;
loop_
_citation_id
_citation_journal_full
_citation_year
_citation_journal_volume
_citation_page_first
_citation_page_last
_citation_journal_id_ASTM
primary 'Journal of Molecular Structure' 2004 706 57 63 JMOSB4
loop_
_publ_author_name
'Stoilova, D.'
'Wildner, M.'
_cell_length_a 11.135(1)
_cell_length_b 8.248(1)
_cell_length_c 5.542(1)
_cell_angle_alpha 90.
_cell_angle_beta 100.82(1)
_cell_angle_gamma 90.
_cell_volume 499.94
_cell_formula_units_Z 2
_symmetry_space_group_name_H-M 'P 1 21/a 1'
_symmetry_Int_Tables_number 14
_refine_ls_R_factor_all 0.0243
loop_
_symmetry_equiv_pos_site_id
_symmetry_equiv_pos_as_xyz
1 'x+1/2, -y+1/2, z'
2 '-x, -y, -z'
3 '-x+1/2, y+1/2, -z'
4 'x, y, z'
loop_
_atom_type_symbol
_atom_type_oxidation_number
Mg2+ 2
S6+ 6
Na1+ 1
O2- -2
H1+ 1
loop_
_atom_site_label
_atom_site_type_symbol
_atom_site_symmetry_multiplicity
_atom_site_Wyckoff_symbol
_atom_site_fract_x
_atom_site_fract_y
_atom_site_fract_z
_atom_site_B_iso_or_equiv
_atom_site_occupancy
_atom_site_attached_hydrogens
Mg1 Mg2+ 2 a 0 0 0 0.0120(1) 1. 0
S1 S6+ 4 e 0.13640(1) 0.29065(2) 0.36934(3) 0.0116(1) 1. 0
Na1 Na1+ 4 e 0.36172(3) 0.07029(5) 0.13068(6) 0.0210(1) 1. 0
O1 O2- 4 e 0.26639(5) 0.27135(8) 0.34799(12) 0.0209(1) 1. 0
O2 O2- 4 e 0.07997(5) 0.42123(8) 0.20875(11) 0.0223(1) 1. 0
O3 O2- 4 e 0.07044(6) 0.13711(8) 0.30598(10) 0.0207(1) 1. 0
O4 O2- 4 e 0.13237(6) 0.32833(8) 0.62944(10) 0.0214(1) 1. 0
O5 O2- 4 e 0.16023(5) 0.03765(8) 0.87244(10) 0.0165(1) 1. 0
O6 O2- 4 e 0.41913(5) 0.29077(7) 0.82229(11) 0.0186(1) 1. 0
H1 H1+ 4 e 0.178(1) -0.033(2) 0.784(3) 0.038(4) 1. 0
H2 H1+ 4 e 0.154(1) 0.115(2) 0.794(3) 0.036(4) 1. 0
H3 H1+ 4 e 0.361(1) 0.303(2) 0.686(3) 0.032(4) 1. 0
H4 H1+ 4 e 0.472(2) 0.227(2) 0.776(3) 0.053(5) 1. 0
#End of TTdata_151453-ICSD