
#(C) 2019 by FIZ Karlsruhe - Leibniz Institute for Information Infrastructure.  All rights reserved.
data_151483-ICSD
_database_code_ICSD 151483
_audit_creation_date 2006-10-01
_chemical_name_systematic
'Sodium manganese iron(III) phosphate(V) (1.5/1.5/1.5/3)'
_chemical_formula_structural 'Na1.5 Mn1.5 Fe1.5 (P O4)3'
_chemical_formula_sum 'Fe1.5 Mn1.5 Na1.5 O12 P3'
_chemical_name_structure_type Alluaudite
_chemical_name_mineral Unnamed_Alluaudite
_exptl_crystal_density_diffrn 3.63
_publ_section_title

;
The crystal chemistry of lithium in the alluaudite structure: a study of the
(Na1-x Lix)1.5 Mn1.5 Fe1.5 (P O4)3 solid solution (x = 0 to 1)
;
loop_
_citation_id
_citation_journal_full
_citation_year
_citation_journal_volume
_citation_page_first
_citation_page_last
_citation_journal_id_ASTM
primary 'Mineralogy and Petrology' 2004 81 205 217 MIPEE9
loop_
_publ_author_name
'Hatert, F.'
_cell_length_a 12.018(2)
_cell_length_b 12.591(2)
_cell_length_c 6.442(1)
_cell_angle_alpha 90.
_cell_angle_beta 114.27(1)
_cell_angle_gamma 90.
_cell_volume 888.64
_cell_formula_units_Z 4
_symmetry_space_group_name_H-M 'C 1 2/c 1'
_symmetry_Int_Tables_number 15
_refine_ls_R_factor_all 0.0137
loop_
_symmetry_equiv_pos_site_id
_symmetry_equiv_pos_as_xyz
1 'x, -y, z+1/2'
2 '-x, -y, -z'
3 '-x, y, -z+1/2'
4 'x, y, z'
5 'x+1/2, -y+1/2, z+1/2'
6 '-x+1/2, -y+1/2, -z'
7 '-x+1/2, y+1/2, -z+1/2'
8 'x+1/2, y+1/2, z'
loop_
_atom_type_symbol
_atom_type_oxidation_number
Na1+ 1
Mn2+ 2
Fe3+ 3
P5+ 5
O2- -2
loop_
_atom_site_label
_atom_site_type_symbol
_atom_site_symmetry_multiplicity
_atom_site_Wyckoff_symbol
_atom_site_fract_x
_atom_site_fract_y
_atom_site_fract_z
_atom_site_B_iso_or_equiv
_atom_site_occupancy
_atom_site_attached_hydrogens
Na1 Na1+ 4 e 0 -0.0097(9) 0.25 0.1(5) 0.494(8) 0
Na2 Na1+ 4 b 0.5 0 0 1.8(2) 1.032(8) 0
Mn1 Mn2+ 4 e 0 0.2665(3) 0.25 0.4(2) 0.974(8) 0
Mn2 Mn2+ 8 f 0.2803(2) 0.6553(2) 0.3654(4) 0.76(9) 0.246(8) 0
Fe1 Fe3+ 8 f 0.2803(2) 0.6553(2) 0.3654(4) 0.76(9) 0.75 0
P1 P5+ 4 e 0 -0.2823(4) 0.25 0.4(1) 1. 0
P2 P5+ 8 f 0.2383(3) -0.1065(3) 0.1298(6) 0.4(1) 1. 0
O1 O2- 8 f 0.4578(5) 0.7115(5) 0.535(1) 0.6(1) 1. 0
O2 O2- 8 f 0.1004(6) 0.6375(4) 0.2405(9) 0.6(1) 1. 0
O3 O2- 8 f 0.3286(5) 0.6635(5) 0.104(1) 0.6(1) 1. 0
O4 O2- 8 f 0.1257(5) 0.4004(4) 0.3222(8) 0.6(1) 1. 0
O5 O2- 8 f 0.2286(5) 0.8234(4) 0.324(1) 0.6(1) 1. 0
O6 O2- 8 f 0.3188(4) 0.5015(6) 0.3810(7) 0.6(1) 1. 0
#End of TTdata_151483-ICSD