
#(C) 2019 by FIZ Karlsruhe - Leibniz Institute for Information Infrastructure.  All rights reserved.
data_151588-ICSD
_database_code_ICSD 151588
_audit_creation_date 2006-10-01
_chemical_name_systematic
'Sodium trimanganese(III) dimangano(III)dimanganate(IV) - LT'
_chemical_formula_structural '(Na Mn3) (Mn4 O12)'
_chemical_formula_sum 'Mn7 Na1 O12'
_chemical_name_structure_type PrMn7O12
_exptl_crystal_density_diffrn 5.12
_cell_measurement_temperature 150.
_publ_section_title

;
Charge, orbital and spin ordering phenomena in the mixed valence manganite (Na
Mn(3+)3) (Mn(3+)2 Mn(4+)2) O12
;
loop_
_citation_id
_citation_journal_full
_citation_year
_citation_journal_volume
_citation_page_first
_citation_page_last
_citation_journal_id_ASTM
primary 'Nature Materials' 2004 3 48 52 NMAACR
loop_
_publ_author_name
'Prodi, A.'
'Gilioli, E.'
'Gauzzi, A.'
'Licci, F.'
'Marezio, M.'
'Bolzoni, F.'
'Huang, Q.'
'Santoro, A.'
'Lynn, J.W.'
_cell_length_a 7.3527(6)
_cell_length_b 7.1986(5)
_cell_length_c 7.3493(6)
_cell_angle_alpha 90.
_cell_angle_beta 90.558(3)
_cell_angle_gamma 90.
_cell_volume 388.97
_cell_formula_units_Z 2
_symmetry_space_group_name_H-M 'I 1 2/m 1'
_symmetry_Int_Tables_number 12
_refine_ls_R_factor_all 0.0487
loop_
_symmetry_equiv_pos_site_id
_symmetry_equiv_pos_as_xyz
1 'x, -y, z'
2 '-x, -y, -z'
3 '-x, y, -z'
4 'x, y, z'
5 'x+1/2, -y+1/2, z+1/2'
6 '-x+1/2, -y+1/2, -z+1/2'
7 '-x+1/2, y+1/2, -z+1/2'
8 'x+1/2, y+1/2, z+1/2'
loop_
_atom_type_symbol
_atom_type_oxidation_number
Na1+ 1
Mn3+ 3
Mn4+ 4
O2- -2
loop_
_atom_site_label
_atom_site_type_symbol
_atom_site_symmetry_multiplicity
_atom_site_Wyckoff_symbol
_atom_site_fract_x
_atom_site_fract_y
_atom_site_fract_z
_atom_site_B_iso_or_equiv
_atom_site_occupancy
_atom_site_attached_hydrogens
Na1 Na1+ 2 a 0 0 0 0.7(1) 1. 0
Mn1 Mn3+ 2 b 0 0.5 0 0.7(1) 1. 0
Mn2 Mn3+ 2 c 0.5 0 0 0.7(1) 1. 0
Mn3 Mn3+ 2 d 0.5 0.5 0 0.7(1) 1. 0
Mn4 Mn3+ 4 e 0.25 0.25 0.25 0.1(1) 1. 0
Mn5 Mn4+ 4 f 0.25 0.25 0.75 0.1(1) 1. 0
O1 O2- 8 j -0.0104(7) 0.3097(8) 0.1804(8) 0.45(3) 1. 0
O2 O2- 4 i 0.1857(9) 0 0.318(1) 0.45(3) 1. 0
O3 O2- 4 i 0.1754(9) 0 -0.3128(9) 0.45(3) 1. 0
O4 O2- 8 j 0.3160(6) 0.1846(7) -0.0068(7) 0.45(3) 1. 0
#End of TTdata_151588-ICSD