
#(C) 2019 by FIZ Karlsruhe - Leibniz Institute for Information Infrastructure.  All rights reserved.
data_151972-ICSD
_database_code_ICSD 151972
_audit_creation_date 2006-10-01
_audit_update_record 2007-08-01
_chemical_name_systematic 'Disodium molybdate(VI) - delta'
_chemical_formula_structural 'Na2 (Mo O4)'
_chemical_formula_sum 'Mo1 Na2 O4'
_chemical_name_structure_type K2SO4(alpha)
_exptl_crystal_density_diffrn 3.05
_publ_section_title

;
Study of the (Na2 O) - (Mo O3) system. Na6 Mo11 O36 - a new oxide with
anatase-related structure and the crystal structures of Na2 Mo O4
;
loop_
_citation_id
_citation_journal_full
_citation_year
_citation_journal_volume
_citation_page_first
_citation_page_last
_citation_journal_id_ASTM
primary 'Zeitschrift fuer Anorganische und Allgemeine Chemie (1950) (DE)' 2004
630 1336 1341 ZAACAB
loop_
_publ_author_name
'Bramnik, K.G.'
'Ehrenberg, H.'
_cell_length_a 5.8899(8)
_cell_length_b 5.8899(8)
_cell_length_c 7.475(1)
_cell_angle_alpha 90.
_cell_angle_beta 90.
_cell_angle_gamma 120.
_cell_volume 224.57
_cell_formula_units_Z 2
_symmetry_space_group_name_H-M 'P 63/m m c'
_symmetry_Int_Tables_number 194
_refine_ls_R_factor_all 0.072
loop_
_symmetry_equiv_pos_site_id
_symmetry_equiv_pos_as_xyz
1 'x, x-y, -z+1/2'
2 '-x+y, y, -z+1/2'
3 '-y, -x, -z+1/2'
4 '-x+y, -x, -z+1/2'
5 '-y, x-y, -z+1/2'
6 'x, y, -z+1/2'
7 '-x, -x+y, z+1/2'
8 'x-y, -y, z+1/2'
9 'y, x, z+1/2'
10 'x-y, x, z+1/2'
11 'y, -x+y, z+1/2'
12 '-x, -y, z+1/2'
13 '-x, -x+y, -z'
14 'x-y, -y, -z'
15 'y, x, -z'
16 'x-y, x, -z'
17 'y, -x+y, -z'
18 '-x, -y, -z'
19 'x, x-y, z'
20 '-x+y, y, z'
21 '-y, -x, z'
22 '-x+y, -x, z'
23 '-y, x-y, z'
24 'x, y, z'
loop_
_atom_type_symbol
_atom_type_oxidation_number
Na1+ 1
Mo6+ 6
O2- -2
loop_
_atom_site_label
_atom_site_type_symbol
_atom_site_symmetry_multiplicity
_atom_site_Wyckoff_symbol
_atom_site_fract_x
_atom_site_fract_y
_atom_site_fract_z
_atom_site_B_iso_or_equiv
_atom_site_occupancy
_atom_site_attached_hydrogens
Na1 Na1+ 2 a 0 0 0 10.2(5) 1. 0
Na2 Na1+ 2 d 0.3333 0.6667 0.75 10.2(5) 1. 0
Mo1 Mo6+ 2 c 0.3333 0.6667 0.25 10.2(5) 1. 0
O1 O2- 12 k 0.29(1) 0.58(2) 0.448(6) 10.2(5) 0.333 0
O2 O2- 6 h 0.171(6) 0.342(6) 0.25 10.2(5) 0.667 0
#End of TTdata_151972-ICSD