
#(C) 2019 by FIZ Karlsruhe - Leibniz Institute for Information Infrastructure.  All rights reserved.
data_151909-ICSD
_database_code_ICSD 151909
_audit_creation_date 2006-10-01
_chemical_name_systematic 'Sodium cobalt oxide (0.74/1/2)'
_chemical_formula_structural 'Na0.74 (Co O2)'
_chemical_formula_sum 'Co1 Na0.74 O2'
_chemical_name_structure_type NaCo2O4
_exptl_crystal_density_diffrn 4.74
_cell_measurement_temperature 298.
_publ_section_title

;
Structure and electron density analysis of Na0.74 Co O2 by single-crystal
X-ray diffraction
;
loop_
_citation_id
_citation_journal_full
_citation_year
_citation_journal_volume
_citation_page_first
_citation_page_last
_citation_journal_id_ASTM
primary 'Solid State Ionics' 2004 172 505 508 SSIOD3
loop_
_publ_author_name
'Takahashi, Y.'
'Akimoto, J.'
'Kijima, N.'
'Gotoh, Y.'
_cell_length_a 2.8434(11)
_cell_length_b 2.8434(11)
_cell_length_c 10.8118(19)
_cell_angle_alpha 90.
_cell_angle_beta 90.
_cell_angle_gamma 120.
_cell_volume 75.7
_cell_formula_units_Z 2
_symmetry_space_group_name_H-M 'P 63/m m c'
_symmetry_Int_Tables_number 194
_refine_ls_R_factor_all 0.021
loop_
_symmetry_equiv_pos_site_id
_symmetry_equiv_pos_as_xyz
1 'x, x-y, -z+1/2'
2 '-x+y, y, -z+1/2'
3 '-y, -x, -z+1/2'
4 '-x+y, -x, -z+1/2'
5 '-y, x-y, -z+1/2'
6 'x, y, -z+1/2'
7 '-x, -x+y, z+1/2'
8 'x-y, -y, z+1/2'
9 'y, x, z+1/2'
10 'x-y, x, z+1/2'
11 'y, -x+y, z+1/2'
12 '-x, -y, z+1/2'
13 '-x, -x+y, -z'
14 'x-y, -y, -z'
15 'y, x, -z'
16 'x-y, x, -z'
17 'y, -x+y, -z'
18 '-x, -y, -z'
19 'x, x-y, z'
20 '-x+y, y, z'
21 '-y, -x, z'
22 '-x+y, -x, z'
23 '-y, x-y, z'
24 'x, y, z'
loop_
_atom_type_symbol
_atom_type_oxidation_number
Na1+ 1
Co3+ 3.26
O2- -2
loop_
_atom_site_label
_atom_site_type_symbol
_atom_site_symmetry_multiplicity
_atom_site_Wyckoff_symbol
_atom_site_fract_x
_atom_site_fract_y
_atom_site_fract_z
_atom_site_B_iso_or_equiv
_atom_site_occupancy
_atom_site_attached_hydrogens
Na1 Na1+ 2 b 0 0 0.25 0.020(3) 0.213(8) 0
Na2 Na1+ 2 d 0.6667 0.3333 0.25 0.016(3) 0.529(8) 0
Co1 Co3+ 2 a 0 0 0.5 0.00387(7) 1. 0
O1 O2- 4 f 0.3333 0.6667 0.09152(9) 0.0055(2) 1. 0
loop_
_atom_site_aniso_label
_atom_site_aniso_type_symbol
_atom_site_aniso_U_11
_atom_site_aniso_U_22
_atom_site_aniso_U_33
_atom_site_aniso_U_12
_atom_site_aniso_U_13
_atom_site_aniso_U_23
Na1 Na1+ 0.026(2) 0.026(2) 0.007(1) 0.013(2) 0. 0.
Na2 Na1+ 0.020(2) 0.020(2) 0.0070(6) 0.010(1) 0. 0.
Co1 Co3+ 0.00298(6) 0.00298(6) 0.00562(6) 0.00149(3) 0. 0.
O1 O2- 0.0044(2) 0.0044(2) 0.0077(2) 0.0022(1) 0. 0.
#End of TTdata_151909-ICSD