
#(C) 2019 by FIZ Karlsruhe - Leibniz Institute for Information Infrastructure.  All rights reserved.
data_151938-ICSD
_database_code_ICSD 151938
_audit_creation_date 2006-10-01
_chemical_name_systematic 'Tetrabarium manganese(IV) manganese(V) sodium oxide'
_chemical_formula_structural 'Ba4 Mn2 Na O9'
_chemical_formula_sum 'Ba4 Mn2 Na1 O9'
_chemical_name_structure_type Sr4Mn2CoO9
_exptl_crystal_density_diffrn 5.77
_publ_section_title
'Crystal structure of the mixed Mn(4+)/Mn(5+) 2H-perovskite-type Ba4 Mn2 Na O9'
loop_
_citation_id
_citation_journal_full
_citation_year
_citation_journal_volume
_citation_page_first
_citation_page_last
_citation_journal_id_ASTM
primary 'Solid State Sciences' 2004 6 931 938 SSSCFJ
loop_
_publ_author_name
'Quarez, E.'
'Roussel, P.'
'Perez, O.'
'Leligny, H.'
'Bendraoua, A.'
'Mentre, O.'
_cell_length_a 10.0060(4)
_cell_length_b 10.0060(4)
_cell_length_c 8.2290(8)
_cell_angle_alpha 90.
_cell_angle_beta 90.
_cell_angle_gamma 120.
_cell_volume 713.51
_cell_formula_units_Z 3
_symmetry_space_group_name_H-M 'P 3 2 1'
_symmetry_Int_Tables_number 150
_refine_ls_R_factor_all 0.0321
loop_
_symmetry_equiv_pos_site_id
_symmetry_equiv_pos_as_xyz
1 'x-y, -y, -z'
2 '-x, -x+y, -z'
3 'y, x, -z'
4 '-x+y, -x, z'
5 '-y, x-y, z'
6 'x, y, z'
loop_
_atom_type_symbol
_atom_type_oxidation_number
Ba2+ 2
Mn4+ 4.5
Na1+ 1
O2- -2
loop_
_atom_site_label
_atom_site_type_symbol
_atom_site_symmetry_multiplicity
_atom_site_Wyckoff_symbol
_atom_site_fract_x
_atom_site_fract_y
_atom_site_fract_z
_atom_site_B_iso_or_equiv
_atom_site_occupancy
_atom_site_attached_hydrogens
Ba1 Ba2+ 3 e 0.3265(7) 0 0 0.025(2) 1. 0
Ba2 Ba2+ 3 f 0.3510(7) 0 0.5 0.014(2) 1. 0
Ba3 Ba2+ 6 g 0.3146(4) 0.3372(4) 0.2542(6) 0.0105(9) 1. 0
Mn1 Mn4+ 2 d 0.3333 0.6667 0.399(2) 0.016(3) 1. 0
Mn2 Mn4+ 2 d 0.3333 0.6667 0.076(2) 0.007(2) 1. 0
Mn3 Mn4+ 2 c 0 0 0.846(2) 0.013(3) 1. 0
Na1 Na1+ 2 d 0.3333 0.6667 0.725(3) 0.007(6) 1. 0
Na2 Na1+ 1 b 0 0 0.5 0.01(1) 1. 0
O1 O2- 6 g 0.185(3) 0.524(3) 0.225(3) 0.017(6) 1. 0
O2 O2- 6 g 0.503(2) 0.320(2) 0.479(3) 0.001(4) 1. 0
O3 O2- 6 g 0.825(2) 0.492(2) 0.043(3) 0.011(4) 1. 0
O4 O2- 6 g 0.161(6) 0.010(6) 0.277(8) 0.09(2) 1. 0
O5 O2- 3 e 0.850(4) 0 0 0.011(8) 1. 0
loop_
_atom_site_aniso_label
_atom_site_aniso_type_symbol
_atom_site_aniso_U_11
_atom_site_aniso_U_22
_atom_site_aniso_U_33
_atom_site_aniso_U_12
_atom_site_aniso_U_13
_atom_site_aniso_U_23
Ba1 Ba2+ 0.024(2) 0.042(3) 0.014(2) 0.021(2) 0.0025(9) 0.005(2)
Ba2 Ba2+ 0.014(2) 0.013(2) 0.014(2) 0.007(1) -0.0052(7) -0.010(2)
Ba3 Ba2+ 0.009(1) 0.008(1) 0.014(2) 0.005(1) 0.0057(2) 0.0024(8)
Mn1 Mn4+ 0.008(2) 0.008(2) 0.032(8) 0.004(1) 0. 0.
Mn2 Mn4+ 0.009(2) 0.009(2) 0.003(3) 0.005(1) 0. 0.
Mn3 Mn4+ 0.009(4) 0.009(4) 0.019(7) 0.005(2) 0. 0.
#End of TTdata_151938-ICSD