
#(C) 2018 by FIZ Karlsruhe - Leibniz Institute for Information Infrastructure.  All rights reserved.
data_152078-ICSD
_database_code_ICSD 152078
_audit_creation_date 2006-10-01
_chemical_name_systematic 'Lithium scandium catena-disilicate - LT'
_chemical_formula_structural 'Li Sc (Si2 O6)'
_chemical_formula_sum 'Li1 O6 Sc1 Si2'
_chemical_name_structure_type Pyroxene-MgSiO3-LT
_chemical_name_mineral Clinopyroxene
_exptl_crystal_density_diffrn 3.07
_cell_measurement_temperature 230.
_publ_section_title

;
Structural changes upon the temperature dependent C2/c - P21/c phase
transition in Li Me(3+) Si2 O6 clinopyroxenes, Me = Cr, Ga, Fe, V, Sc and In
;
loop_
_citation_id
_citation_journal_full
_citation_year
_citation_journal_volume
_citation_page_first
_citation_page_last
_citation_journal_id_ASTM
primary 'Zeitschrift fuer Kristallographie (1979-2010)' 2004 219 585 605 ZEKRDZ
loop_
_publ_author_name
'Redhammer, G.J.'
'Roth, G.'
_cell_length_a 9.811(3)
_cell_length_b 8.952(3)
_cell_length_c 5.359(2)
_cell_angle_alpha 90.
_cell_angle_beta 110.42(3)
_cell_angle_gamma 90.
_cell_volume 441.09
_cell_formula_units_Z 4
_symmetry_space_group_name_H-M 'P 1 21/c 1'
_symmetry_Int_Tables_number 14
_refine_ls_R_factor_all 0.0255
loop_
_symmetry_equiv_pos_site_id
_symmetry_equiv_pos_as_xyz
1 'x, -y+1/2, z+1/2'
2 '-x, -y, -z'
3 '-x, y+1/2, -z+1/2'
4 'x, y, z'
loop_
_atom_type_symbol
_atom_type_oxidation_number
Li1+ 1
Sc3+ 3
Si4+ 4
O2- -2
loop_
_atom_site_label
_atom_site_type_symbol
_atom_site_symmetry_multiplicity
_atom_site_Wyckoff_symbol
_atom_site_fract_x
_atom_site_fract_y
_atom_site_fract_z
_atom_site_B_iso_or_equiv
_atom_site_occupancy
_atom_site_attached_hydrogens
Li1 Li1+ 4 e 0.2502(11) 0.0050(3) 0.2473(15) 0.0136(8) 1. 0
Sc1 Sc3+ 4 e 0.2501(1) 0.6451(1) 0.2469(1) 0.0020(1) 1. 0
Si1 Si4+ 4 e 0.0491(1) 0.3366(1) 0.2807(2) 0.0029(2) 1. 0
Si2 Si4+ 4 e 0.5491(1) 0.8368(1) 0.2749(2) 0.0017(2) 1. 0
O1 O2- 4 e 0.6038(3) 0.7382(2) 0.5478(4) 0.0060(5) 1. 0
O2 O2- 4 e 0.1052(3) 0.2486(2) 0.5650(4) 0.0066(5) 1. 0
O3 O2- 4 e 0.6220(3) -0.0017(2) 0.3506(4) 0.0059(5) 1. 0
O4 O2- 4 e 0.1200(3) 0.4996(2) 0.3406(4) 0.0062(5) 1. 0
O5 O2- 4 e 0.3705(3) 0.8336(2) 0.1551(4) 0.0035(5) 1. 0
O6 O2- 4 e 0.8710(2) 0.3332(2) 0.1615(4) 0.0027(5) 1. 0
#End of TTdata_152078-ICSD