
#(C) 2018 by FIZ Karlsruhe - Leibniz Institute for Information Infrastructure.  All rights reserved.
data_152076-ICSD
_database_code_ICSD 152076
_audit_creation_date 2006-10-01
_chemical_name_systematic 'Lithium scandium catena-disilicate - LT'
_chemical_formula_structural 'Li Sc (Si2 O6)'
_chemical_formula_sum 'Li1 O6 Sc1 Si2'
_chemical_name_structure_type Pyroxene-MgSiO3-LT
_chemical_name_mineral Clinopyroxene
_exptl_crystal_density_diffrn 3.08
_cell_measurement_temperature 150.
_publ_section_title

;
Structural changes upon the temperature dependent C2/c - P21/c phase
transition in Li Me(3+) Si2 O6 clinopyroxenes, Me = Cr, Ga, Fe, V, Sc and In
;
loop_
_citation_id
_citation_journal_full
_citation_year
_citation_journal_volume
_citation_page_first
_citation_page_last
_citation_journal_id_ASTM
primary 'Zeitschrift fuer Kristallographie (1979-2010)' 2004 219 585 605 ZEKRDZ
loop_
_publ_author_name
'Redhammer, G.J.'
'Roth, G.'
_cell_length_a 9.796(3)
_cell_length_b 8.956(3)
_cell_length_c 5.356(1)
_cell_angle_alpha 90.
_cell_angle_beta 110.42(3)
_cell_angle_gamma 90.
_cell_volume 440.37
_cell_formula_units_Z 4
_symmetry_space_group_name_H-M 'P 1 21/c 1'
_symmetry_Int_Tables_number 14
_refine_ls_R_factor_all 0.0238
loop_
_symmetry_equiv_pos_site_id
_symmetry_equiv_pos_as_xyz
1 'x, -y+1/2, z+1/2'
2 '-x, -y, -z'
3 '-x, y+1/2, -z+1/2'
4 'x, y, z'
loop_
_atom_type_symbol
_atom_type_oxidation_number
Li1+ 1
Sc3+ 3
Si4+ 4
O2- -2
loop_
_atom_site_label
_atom_site_type_symbol
_atom_site_symmetry_multiplicity
_atom_site_Wyckoff_symbol
_atom_site_fract_x
_atom_site_fract_y
_atom_site_fract_z
_atom_site_B_iso_or_equiv
_atom_site_occupancy
_atom_site_attached_hydrogens
Li1 Li1+ 4 e 0.2482(4) 0.0037(3) 0.2415(7) 0.0092(7) 1. 0
Sc1 Sc3+ 4 e 0.2504(1) 0.6450(1) 0.2423(1) 0.0017(1) 1. 0
Si1 Si4+ 4 e 0.0497(1) 0.3365(1) 0.2850(1) 0.0018(1) 1. 0
Si2 Si4+ 4 e 0.5495(1) 0.8365(1) 0.2700(1) 0.0017(1) 1. 0
O1 O2- 4 e 0.6032(1) 0.7298(1) 0.5344(3) 0.0044(3) 1. 0
O2 O2- 4 e 0.1070(2) 0.2546(1) 0.5754(3) 0.0049(3) 1. 0
O3 O2- 4 e 0.6238(2) -0.0036(1) 0.3596(3) 0.0051(3) 1. 0
O4 O2- 4 e 0.1195(2) 0.5000(1) 0.3357(3) 0.0045(3) 1. 0
O5 O2- 4 e 0.3709(2) 0.8342(1) 0.1508(3) 0.0028(3) 1. 0
O6 O2- 4 e 0.8712(2) 0.3320(1) 0.1652(3) 0.0027(3) 1. 0
#End of TTdata_152076-ICSD