
#(C) 2018 by FIZ Karlsruhe - Leibniz Institute for Information Infrastructure.  All rights reserved.
data_152073-ICSD
_database_code_ICSD 152073
_audit_creation_date 2006-10-01
_chemical_name_systematic 'Lithium vanadium(III) catena-disilicate - LT'
_chemical_formula_structural 'Li V (Si2 O6)'
_chemical_formula_sum 'Li1 O6 Si2 V1'
_chemical_name_structure_type Pyroxene-MgSiO3-LT
_chemical_name_mineral Clinopyroxene
_exptl_crystal_density_diffrn 3.42
_cell_measurement_temperature 100.
_publ_section_title

;
Structural changes upon the temperature dependent C2/c - P21/c phase
transition in Li Me(3+) Si2 O6 clinopyroxenes, Me = Cr, Ga, Fe, V, Sc and In
;
loop_
_citation_id
_citation_journal_full
_citation_year
_citation_journal_volume
_citation_page_first
_citation_page_last
_citation_journal_id_ASTM
primary 'Zeitschrift fuer Kristallographie (1979-2010)' 2004 219 585 605 ZEKRDZ
loop_
_publ_author_name
'Redhammer, G.J.'
'Roth, G.'
_cell_length_a 9.580(3)
_cell_length_b 8.624(3)
_cell_length_c 5.251(1)
_cell_angle_alpha 90.
_cell_angle_beta 109.95(3)
_cell_angle_gamma 90.
_cell_volume 407.79
_cell_formula_units_Z 4
_symmetry_space_group_name_H-M 'P 1 21/c 1'
_symmetry_Int_Tables_number 14
_refine_ls_R_factor_all 0.0354
loop_
_symmetry_equiv_pos_site_id
_symmetry_equiv_pos_as_xyz
1 'x, -y+1/2, z+1/2'
2 '-x, -y, -z'
3 '-x, y+1/2, -z+1/2'
4 'x, y, z'
loop_
_atom_type_symbol
_atom_type_oxidation_number
Li1+ 1
V3+ 3
Si4+ 4
O2- -2
loop_
_atom_site_label
_atom_site_type_symbol
_atom_site_symmetry_multiplicity
_atom_site_Wyckoff_symbol
_atom_site_fract_x
_atom_site_fract_y
_atom_site_fract_z
_atom_site_B_iso_or_equiv
_atom_site_occupancy
_atom_site_attached_hydrogens
Li1 Li1+ 4 e 0.2497(15) 0.0151(7) 0.2376(21) 0.004(1) 1. 0
V1 V3+ 4 e 0.2503(1) 0.6558(1) 0.2355(2) 0.0006(2) 1. 0
Si1 Si4+ 4 e 0.0485(2) 0.3402(2) 0.2790(2) 0.0004(3) 1. 0
Si2 Si4+ 4 e 0.5486(2) 0.8404(2) 0.2563(2) 0.0009(3) 1. 0
O1 O2- 4 e 0.6052(4) 0.7266(4) 0.5173(6) 0.0026(7) 1. 0
O2 O2- 4 e 0.1082(4) 0.2662(4) 0.5819(7) 0.0026(7) 1. 0
O3 O2- 4 e 0.6228(4) 0.0064(4) 0.3527(7) 0.0024(9) 1. 0
O4 O2- 4 e 0.1187(4) 0.5101(4) 0.3147(7) 0.0037(9) 1. 0
O5 O2- 4 e 0.3682(4) 0.8357(5) 0.1424(7) 0.0019(8) 1. 0
O6 O2- 4 e 0.8683(4) 0.3345(5) 0.1682(7) 0.0018(7) 1. 0
#End of TTdata_152073-ICSD