
#(C) 2018 by FIZ Karlsruhe - Leibniz Institute for Information Infrastructure.  All rights reserved.
data_152077-ICSD
_database_code_ICSD 152077
_audit_creation_date 2006-10-01
_chemical_name_systematic 'Lithium scandium catena-disilicate - LT'
_chemical_formula_structural 'Li Sc (Si2 O6)'
_chemical_formula_sum 'Li1 O6 Sc1 Si2'
_chemical_name_structure_type Pyroxene-MgSiO3-LT
_chemical_name_mineral Clinopyroxene
_exptl_crystal_density_diffrn 3.07
_cell_measurement_temperature 200.
_publ_section_title

;
Structural changes upon the temperature dependent C2/c - P21/c phase
transition in Li Me(3+) Si2 O6 clinopyroxenes, Me = Cr, Ga, Fe, V, Sc and In
;
loop_
_citation_id
_citation_journal_full
_citation_year
_citation_journal_volume
_citation_page_first
_citation_page_last
_citation_journal_id_ASTM
primary 'Zeitschrift fuer Kristallographie (1979-2010)' 2004 219 585 605 ZEKRDZ
loop_
_publ_author_name
'Redhammer, G.J.'
'Roth, G.'
_cell_length_a 9.805(3)
_cell_length_b 8.954(3)
_cell_length_c 5.359(2)
_cell_angle_alpha 90.
_cell_angle_beta 110.43(3)
_cell_angle_gamma 90.
_cell_volume 440.89
_cell_formula_units_Z 4
_symmetry_space_group_name_H-M 'P 1 21/c 1'
_symmetry_Int_Tables_number 14
_refine_ls_R_factor_all 0.0259
loop_
_symmetry_equiv_pos_site_id
_symmetry_equiv_pos_as_xyz
1 'x, -y+1/2, z+1/2'
2 '-x, -y, -z'
3 '-x, y+1/2, -z+1/2'
4 'x, y, z'
loop_
_atom_type_symbol
_atom_type_oxidation_number
Li1+ 1
Sc3+ 3
Si4+ 4
O2- -2
loop_
_atom_site_label
_atom_site_type_symbol
_atom_site_symmetry_multiplicity
_atom_site_Wyckoff_symbol
_atom_site_fract_x
_atom_site_fract_y
_atom_site_fract_z
_atom_site_B_iso_or_equiv
_atom_site_occupancy
_atom_site_attached_hydrogens
Li1 Li1+ 4 e 0.2486(6) 0.0040(3) 0.2444(8) 0.0131(8) 1. 0
Sc1 Sc3+ 4 e 0.2503(1) 0.6450(1) 0.2443(1) 0.0021(1) 1. 0
Si1 Si4+ 4 e 0.0494(1) 0.3366(1) 0.2831(1) 0.0021(2) 1. 0
Si2 Si4+ 4 e 0.5493(1) 0.8365(1) 0.2720(1) 0.0022(2) 1. 0
O1 O2- 4 e 0.6032(2) 0.7335(1) 0.5404(3) 0.0055(3) 1. 0
O2 O2- 4 e 0.1063(2) 0.2523(1) 0.5712(3) 0.0062(4) 1. 0
O3 O2- 4 e 0.6227(2) -0.0027(1) 0.3553(3) 0.0057(3) 1. 0
O4 O2- 4 e 0.1197(2) 0.4999(1) 0.3377(3) 0.0059(3) 1. 0
O5 O2- 4 e 0.3708(2) 0.8341(1) 0.1525(3) 0.0037(3) 1. 0
O6 O2- 4 e 0.8712(2) 0.3325(2) 0.1640(3) 0.0033(3) 1. 0
#End of TTdata_152077-ICSD