
#(C) 2018 by FIZ Karlsruhe - Leibniz Institute for Information Infrastructure.  All rights reserved.
data_152069-ICSD
_database_code_ICSD 152069
_audit_creation_date 2006-10-01
_chemical_name_systematic 'Lithium chromium catena-disilicate - LT'
_chemical_formula_structural 'Li Cr (Si2 O6)'
_chemical_formula_sum 'Cr1 Li1 O6 Si2'
_chemical_name_structure_type Pyroxene-MgSiO3-LT
_chemical_name_mineral Clinopyroxene
_exptl_crystal_density_diffrn 3.48
_cell_measurement_temperature 100.
_publ_section_title

;
Structural changes upon the temperature dependent C2/c - P21/c phase
transition in Li Me(3+) Si2 O6 clinopyroxenes, Me = Cr, Ga, Fe, V, Sc and In
;
loop_
_citation_id
_citation_journal_full
_citation_year
_citation_journal_volume
_citation_page_first
_citation_page_last
_citation_journal_id_ASTM
primary 'Zeitschrift fuer Kristallographie (1979-2010)' 2004 219 585 605 ZEKRDZ
loop_
_publ_author_name
'Redhammer, G.J.'
'Roth, G.'
_cell_length_a 9.530(3)
_cell_length_b 8.586(2)
_cell_length_c 5.238(1)
_cell_angle_alpha 90.
_cell_angle_beta 109.87(3)
_cell_angle_gamma 90.
_cell_volume 403.08
_cell_formula_units_Z 4
_symmetry_space_group_name_H-M 'P 1 21/c 1'
_symmetry_Int_Tables_number 14
_refine_ls_R_factor_all 0.0255
loop_
_symmetry_equiv_pos_site_id
_symmetry_equiv_pos_as_xyz
1 'x, -y+1/2, z+1/2'
2 '-x, -y, -z'
3 '-x, y+1/2, -z+1/2'
4 'x, y, z'
loop_
_atom_type_symbol
_atom_type_oxidation_number
Li1+ 1
Cr3+ 3
Si4+ 4
O2- -2
loop_
_atom_site_label
_atom_site_type_symbol
_atom_site_symmetry_multiplicity
_atom_site_Wyckoff_symbol
_atom_site_fract_x
_atom_site_fract_y
_atom_site_fract_z
_atom_site_B_iso_or_equiv
_atom_site_occupancy
_atom_site_attached_hydrogens
Li1 Li1+ 4 e 0.2498(3) 0.0117(4) 0.2336(6) 0.0076(7) 1. 0
Cr1 Cr3+ 4 e 0.2502(1) 0.6578(1) 0.2319(1) 0.0007(1) 1. 0
Si1 Si4+ 4 e 0.0496(1) 0.3410(1) 0.2760(1) 0.0014(1) 1. 0
Si2 Si4+ 4 e 0.5512(1) 0.8403(1) 0.2472(1) 0.0012(1) 1. 0
O1 O2- 4 e 0.6069(1) 0.7186(1) 0.5013(2) 0.0033(3) 1. 0
O2 O2- 4 e 0.1102(1) 0.2700(1) 0.5838(3) 0.0033(3) 1. 0
O3 O2- 4 e 0.6238(1) 0.0054(1) 0.3560(3) 0.0036(3) 1. 0
O4 O2- 4 e 0.1165(1) 0.5124(1) 0.3070(3) 0.0036(3) 1. 0
O5 O2- 4 e 0.3670(1) 0.8341(1) 0.1297(3) 0.0025(3) 1. 0
O6 O2- 4 e 0.8661(1) 0.3330(1) 0.1639(3) 0.0022(3) 1. 0
#End of TTdata_152069-ICSD