
#(C) 2017 by FIZ Karlsruhe - Leibniz Institute for Information Infrastructure.  All rights reserved.
data_152167-ICSD
_database_code_ICSD 152167
_audit_creation_date 2006-10-01
_chemical_name_systematic
'Lithium tetrarubidium heptadecafluorotrizirconate - hydrofluoric acid (1/2)'
_chemical_formula_structural '(Li Rb4 (Zr3 F17)) (H F)2'
_chemical_formula_sum 'H2 F19 Li1 Rb4 Zr3'
_exptl_crystal_density_diffrn 3.71
_publ_section_title

;
Structure and ion mobility in M M'4 A3 F17 * 2(H F) (M= Li, Na; M'= N H4, Rb,
Cs; A = Zr, Hf) compounds
;
loop_
_citation_id
_citation_journal_full
_citation_year
_citation_journal_volume
_citation_page_first
_citation_page_last
_citation_journal_id_ASTM
primary 'Zhurnal Neorganicheskoi Khimii' 2004 49 293 303 ZNOKAQ
loop_
_publ_author_name
'Tkachenko, I.A.'
'Gerasimenko, A.V.'
'Kavun, V.Ya.'
'Antokhina, T.F.'
'Davidovich, R.L.'
'Sergienko, V.I.'
_cell_length_a 11.403(2)
_cell_length_b 13.061(2)
_cell_length_c 12.630(2)
_cell_angle_alpha 90.
_cell_angle_beta 110.145(3)
_cell_angle_gamma 90.
_cell_volume 1765.97
_cell_formula_units_Z 4
_symmetry_space_group_name_H-M 'P 1 21/n 1'
_symmetry_Int_Tables_number 14
_refine_ls_R_factor_all 0.0422
loop_
_symmetry_equiv_pos_site_id
_symmetry_equiv_pos_as_xyz
1 '-x+1/2, y+1/2, -z+1/2'
2 '-x, -y, -z'
3 'x+1/2, -y+1/2, z+1/2'
4 'x, y, z'
loop_
_atom_type_symbol
_atom_type_oxidation_number
Zr4+ 4
F1- -1
Rb1+ 1
Li1+ 1
H1+ 1
loop_
_atom_site_label
_atom_site_type_symbol
_atom_site_symmetry_multiplicity
_atom_site_Wyckoff_symbol
_atom_site_fract_x
_atom_site_fract_y
_atom_site_fract_z
_atom_site_B_iso_or_equiv
_atom_site_occupancy
_atom_site_attached_hydrogens
Zr1 Zr4+ 4 e 0.72653(3) 0.87439(4) 0.74956(3) 0.01231(8) 1. 0
Zr2 Zr4+ 4 e 0.41331(3) 0.87368(4) 0.76005(3) 0.01195(8) 1. 0
Zr3 Zr4+ 4 e 0.08787(3) 0.87411(4) 0.73773(3) 0.01293(8) 1. 0
F1 F1- 4 e 0.8973(2) 0.8735(3) 0.7144(2) 0.0374(7) 1. 0
F2 F1- 4 e 0.8249(2) 0.9796(2) 0.8609(2) 0.0317(8) 1. 0
F3 F1- 4 e 0.6846(2) 0.9799(2) 0.6257(2) 0.0290(8) 1. 0
F4 F1- 4 e 0.8221(2) 0.7701(2) 0.8643(2) 0.0300(8) 1. 0
F5 F1- 4 e 0.6841(2) 0.7733(2) 0.6210(2) 0.0269(8) 1. 0
F6 F1- 4 e 0.5828(2) 0.7831(2) 0.7735(2) 0.0254(7) 1. 0
F7 F1- 4 e 0.5851(2) 0.9638(2) 0.7794(2) 0.0234(7) 1. 0
F8 F1- 4 e 0.2177(2) 0.8752(3) 0.6517(2) 0.0255(6) 1. 0
F9 F1- 4 e 0.2754(2) 0.8693(3) 0.8450(2) 0.0252(6) 1. 0
F10 F1- 4 e 0.5091(2) 0.8649(3) 0.9298(2) 0.0420(9) 1. 0
F11 F1- 4 e 0.4191(2) 0.8745(3) 0.6039(2) 0.0301(7) 1. 0
F12 F1- 4 e 0.3684(2) 0.0211(2) 0.7634(3) 0.0376(8) 1. 0
F13 F1- 4 e 0.3648(2) 0.7274(2) 0.7506(3) 0.0364(8) 1. 0
F14 F1- 4 e 0.0836(2) 0.8659(3) 0.8934(2) 0.0394(9) 1. 0
F15 F1- 4 e -0.0123(2) 0.8757(4) 0.5656(2) 0.053(1) 1. 0
F16 F1- 4 e 0.0853(2) 0.0265(2) 0.7369(3) 0.0359(9) 1. 0
F17 F1- 4 e 0.0846(2) 0.7229(2) 0.7281(3) 0.0347(9) 1. 0
F18 F1- 4 e 0.2127(2) 0.6135(4) 0.5592(3) 0.073(1) 1. 0
F19 F1- 4 e 0.2888(2) 0.6288(4) 0.9265(2) 0.055(1) 1. 0
Rb1 Rb1+ 4 e 0.52954(3) 0.37018(5) 0.42670(3) 0.0259(1) 1. 0
Rb2 Rb1+ 4 e 0.84638(4) 0.63290(5) 0.57196(3) 0.0276(1) 1. 0
Rb3 Rb1+ 4 e 0.53174(3) 0.87952(5) 0.41594(3) 0.0253(1) 1. 0
Rb4 Rb1+ 4 e 0.64946(4) 0.61545(5) 0.92324(4) 0.0283(1) 1. 0
Li1 Li1+ 4 e 0.2509(6) 0.6315(12) 0.7497(7) 0.036(2) 1. 0
H1 H1+ 4 e 0.139(5) 0.613(5) 0.507(5) 0.08 1. 0
H2 H1+ 4 e 0.359(5) 0.605(5) 0.975(5) 0.07 1. 0
#End of TTdata_152167-ICSD