
#(C) 2019 by FIZ Karlsruhe - Leibniz Institute for Information Infrastructure.  All rights reserved.
data_152236-ICSD
_database_code_ICSD 152236
_audit_creation_date 2006-10-01
_chemical_name_systematic 'Sodium gallium silicon oxide (12.4/12.4/47.6/120)'
_chemical_formula_structural 'Na12.4 (Ga12.4 Si47.6 O120)'
_chemical_formula_sum 'Ga12.4 Na12.4 O120 Si47.6'
_chemical_name_mineral 'Zeolite TNU-7'
_exptl_crystal_density_diffrn 2.06
_publ_section_title

;
TNU-7: A large-pore gallosilicate zeolite constructed of strictly alternating
MOR and MAZ layers
;
loop_
_citation_id
_citation_journal_full
_citation_year
_citation_journal_volume
_citation_page_first
_citation_page_last
_citation_journal_id_ASTM
primary 'Chemistry of Materials' 2005 17 1272 1274 CMATEX
loop_
_publ_author_name
'Warrender, S.J.'
'Wright, P.A.'
'Zhou Wuzong'
'Lightfoot, P.'
'Camblor, M.A.'
'Shin Chaeho'
'Kim Dong Ja'
'Hong Suk Bong'
_cell_length_a 7.5789(4)
_cell_length_b 18.089(1)
_cell_length_c 25.853(2)
_cell_angle_alpha 90.
_cell_angle_beta 90.
_cell_angle_gamma 90.
_cell_volume 3544.31
_cell_formula_units_Z 1
_symmetry_space_group_name_H-M 'P m m n Z'
_symmetry_Int_Tables_number 59
_refine_ls_R_factor_all 0.023
loop_
_symmetry_equiv_pos_site_id
_symmetry_equiv_pos_as_xyz
1 'x+1/2, y+1/2, -z'
2 '-x, y+1/2, -z'
3 'x+1/2, -y, -z'
4 '-x, -y, -z'
5 '-x+1/2, -y+1/2, z'
6 'x, -y+1/2, z'
7 '-x+1/2, y, z'
8 'x, y, z'
loop_
_atom_type_symbol
_atom_type_oxidation_number
Ga3+ 3
Si4+ 4
Ga3+ 3
Si4+ 4
Ga3+ 3
Si4+ 4
Ga3+ 3
Si4+ 4
Ga3+ 3
Si4+ 4
Ga3+ 3
Si4+ 4
Ga3+ 3
Si4+ 4
Ga3+ 3
Si4+ 4
Ga3+ 3
Si4+ 4
Ga3+ 3
Si4+ 4
O2- -2
Na1+ 1
loop_
_atom_site_label
_atom_site_type_symbol
_atom_site_symmetry_multiplicity
_atom_site_Wyckoff_symbol
_atom_site_fract_x
_atom_site_fract_y
_atom_site_fract_z
_atom_site_B_iso_or_equiv
_atom_site_occupancy
_atom_site_attached_hydrogens
Ga1 Ga3+ 4 e 0.75 0.1666(7) -0.0016(6) 0.0200(8) 0.2067 0
Si1 Si4+ 4 e 0.75 0.1666(7) -0.0016(6) 0.0200(8) 0.7933 0
Ga2 Ga3+ 4 e 0.75 0.0774(9) 0.1062(6) 0.0200(8) 0.2067 0
Si2 Si4+ 4 e 0.75 0.0774(9) 0.1062(6) 0.0200(8) 0.7933 0
Ga3 Ga3+ 4 e 0.75 0.1585(4) 0.2092(6) 0.0200(8) 0.2067 0
Si3 Si4+ 4 e 0.75 0.1585(4) 0.2092(6) 0.0200(8) 0.7933 0
Ga4 Ga3+ 8 g 0.034(1) 0.1631(5) -0.0884(4) 0.0200(8) 0.2067 0
Si4 Si4+ 8 g 0.034(1) 0.1631(5) -0.0884(4) 0.0200(8) 0.7933 0
Ga5 Ga3+ 8 g 0.040(1) -0.0223(6) 0.1452(5) 0.0200(8) 0.2067 0
Si5 Si4+ 8 g 0.040(1) -0.0223(6) 0.1452(5) 0.0200(8) 0.7933 0
Ga6 Ga3+ 8 g 0.041(1) 0.0569(5) 0.2510(5) 0.0200(8) 0.2067 0
Si6 Si4+ 8 g 0.041(1) 0.0569(5) 0.2510(5) 0.0200(8) 0.7933 0
Ga7 Ga3+ 4 e 0.25 0.1619(6) 0.3936(6) 0.0200(8) 0.2067 0
Si7 Si4+ 4 e 0.25 0.1619(6) 0.3936(6) 0.0200(8) 0.7933 0
Ga8 Ga3+ 4 e 0.25 0.1632(6) 0.5168(5) 0.0200(8) 0.2067 0
Si8 Si4+ 4 e 0.25 0.1632(6) 0.5168(5) 0.0200(8) 0.7933 0
Ga9 Ga3+ 8 g -0.046(1) 0.0512(6) 0.3603(5) 0.0200(8) 0.2067 0
Si9 Si4+ 8 g -0.046(1) 0.0512(6) 0.3603(5) 0.0200(8) 0.7933 0
Ga10 Ga3+ 8 g 0.051(1) -0.0550(5) 0.4527(4) 0.0200(8) 0.2067 0
Si10 Si4+ 8 g 0.051(1) -0.0550(5) 0.4527(4) 0.0200(8) 0.7933 0
O1 O2- 2 b 0.75 0.25 0.022(1) 0.033(3) 1. 0
O2 O2- 4 e 0.75 0.110(1) 0.0472(7) 0.033(3) 1. 0
O3 O2- 4 e 0.75 0.147(1) 0.1464(6) 0.033(3) 1. 0
O4 O2- 2 b 0.75 0.25 0.210(2) 0.033(3) 1. 0
O5 O2- 8 g -0.078(2) 0.141(1) -0.0356(6) 0.033(3) 1. 0
O6 O2- 8 g -0.065(2) 0.0308(9) 0.1049(7) 0.033(3) 1. 0
O7 O2- 8 g -0.074(2) 0.1324(8) 0.2415(8) 0.033(3) 1. 0
O8 O2- 4 f -0.019(4) 0.25 -0.103(1) 0.033(3) 1. 0
O9 O2- 8 g -0.017(3) 0.0004(1) 0.2044(5) 0.033(3) 1. 0
O10 O2- 4 e 0.25 0.156(2) -0.078(1) 0.033(3) 1. 0
O11 O2- 4 e 0.25 -0.009(2) 0.131(1) 0.033(3) 1. 0
O12 O2- 4 e 0.25 0.081(2) 0.253(1) 0.033(3) 1. 0
O13 O2- 8 g -0.011(3) 0.1122(7) -0.1400(6) 0.033(3) 1. 0
O14 O2- 8 g -0.020(3) 0.012(1) 0.3033(5) 0.033(3) 1. 0
O15 O2- 2 a 0.25 0.25 0.381(2) 0.033(3) 1. 0
O16 O2- 2 a 0.25 0.25 0.532(1) 0.033(3) 1. 0
O17 O2- 4 e 0.25 0.149(2) 0.4554(5) 0.033(3) 1. 0
O18 O2- 8 g 0.072(2) 0.1266(8) 0.3669(7) 0.033(3) 1. 0
O19 O2- 8 g 0.077(2) 0.1286(8) 0.5464(7) 0.033(3) 1. 0
O20 O2- 8 g 0.039(3) -0.013(1) 0.3965(6) 0.033(3) 1. 0
O21 O2- 4 d 0 0 0.5 0.033(3) 1. 0
O22 O2- 4 e 0.75 0.071(2) 0.376(1) 0.033(3) 1. 0
O23 O2- 4 e 0.75 0.088(1) 0.532(1) 0.033(3) 1. 0
Na1 Na1+ 4 c 0 0 0 0.02 0.563 0
Na2 Na1+ 4 e 0.25 0.068(3) 0.755(2) 0.02 0.563 0
Na3 Na1+ 4 e 0.25 0.072(6) 0.040(5) 0.02 0.563 0
Na4 Na1+ 2 a 0.25 0.25 0.284(7) 0.02 0.563 0
Na5 Na1+ 2 b 0.25 0.75 0.707(6) 0.02 0.563 0
Na6 Na1+ 4 f 0.036(7) 0.25 0.306(2) 0.02 0.563 0
Na7 Na1+ 2 b 0.25 0.75 0.467(2) 0.02 0.563 0
#End of TTdata_152236-ICSD