
#(C) 2019 by FIZ Karlsruhe - Leibniz Institute for Information Infrastructure.  All rights reserved.
data_152271-ICSD
_database_code_ICSD 152271
_audit_creation_date 2006-10-01
_chemical_name_systematic 'Sodium cobalt oxide (0.42/1/2) - anhydrous AH-phase'
_chemical_formula_structural 'Na0.42 Co O2'
_chemical_formula_sum 'Co1 Na0.42 O2'
_chemical_name_structure_type NaxCoO2(mS7)
_exptl_crystal_density_diffrn 4.35
_publ_section_title
'Characterization of sodium cobalt oxides related to P3-phase superconductor'
loop_
_citation_id
_citation_journal_full
_citation_year
_citation_journal_volume
_citation_page_first
_citation_page_last
_citation_journal_id_ASTM
primary 'Chemistry of Materials' 2005 17 2034 2040 CMATEX
loop_
_publ_author_name
'Takada, K.'
'Osada, M.'
'Izumi, F.'
'Sakurai, H.'
'Takayama Muromachi, E.'
'Sasaki, T.'
_cell_length_a 4.8700(5)
_cell_length_b 2.8101(3)
_cell_length_c 5.8265(6)
_cell_angle_alpha 90.
_cell_angle_beta 105.586(4)
_cell_angle_gamma 90.
_cell_volume 76.8
_cell_formula_units_Z 2
_symmetry_space_group_name_H-M 'C 1 2/m 1'
_symmetry_Int_Tables_number 12
_refine_ls_R_factor_all 0.0246
loop_
_symmetry_equiv_pos_site_id
_symmetry_equiv_pos_as_xyz
1 '-x, y, -z'
2 '-x, -y, -z'
3 'x, -y, z'
4 'x, y, z'
5 '-x+1/2, y+1/2, -z'
6 '-x+1/2, -y+1/2, -z'
7 'x+1/2, -y+1/2, z'
8 'x+1/2, y+1/2, z'
loop_
_atom_type_symbol
_atom_type_oxidation_number
Co3+ 3.58
O2- -2
Na1+ 1
loop_
_atom_site_label
_atom_site_type_symbol
_atom_site_symmetry_multiplicity
_atom_site_Wyckoff_symbol
_atom_site_fract_x
_atom_site_fract_y
_atom_site_fract_z
_atom_site_B_iso_or_equiv
_atom_site_occupancy
_atom_site_attached_hydrogens
Co1 Co3+ 2 a 0 0 0 0.0034(3) 1. 0
O1 O2- 4 i 0.3879(5) 0 0.1703(3) 0.0078(5) 1. 0
Na1 Na1+ 8 j 0.8113(18) 0.088(4) 0.4911(11) 0.010(3) 0.106 0
#End of TTdata_152271-ICSD