
#(C) 2019 by FIZ Karlsruhe - Leibniz Institute for Information Infrastructure.  All rights reserved.
data_152239-ICSD
_database_code_ICSD 152239
_audit_creation_date 2006-10-01
_chemical_name_systematic 'Lanthanum sodium dititanate (1.17/0.48/1)'
_chemical_formula_structural 'La1.17 Na0.48 (Ti2 O6)'
_chemical_formula_sum 'La1.17 Na0.48 O6 Ti2'
_exptl_crystal_density_diffrn 5.21
_publ_section_title

;
Structural modifications induced by composition in the La1.33-x Na3x Ti2 O6
perovskites: a neutron diffraction study
;
loop_
_citation_id
_citation_journal_full
_citation_year
_citation_journal_volume
_citation_page_first
_citation_page_last
_citation_journal_id_ASTM
primary 'Chemistry of Materials' 2005 17 1391 1397 CMATEX
loop_
_publ_author_name
'Ruiz, A.I.'
'Lopez, M.L.'
'Pico, C.'
'Veiga, M.L.'
_cell_length_a 5.4766(2)
_cell_length_b 5.4763(4)
_cell_length_c 7.7624(5)
_cell_angle_alpha 90.
_cell_angle_beta 90.
_cell_angle_gamma 90.
_cell_volume 232.81
_cell_formula_units_Z 2
_symmetry_space_group_name_H-M 'P b m m'
_symmetry_Int_Tables_number 51
_refine_ls_R_factor_all 0.0458
loop_
_symmetry_equiv_pos_site_id
_symmetry_equiv_pos_as_xyz
1 'x, -y+1/2, -z'
2 '-x, y+1/2, -z'
3 'x, y, -z'
4 '-x, -y, -z'
5 '-x, y+1/2, z'
6 'x, -y+1/2, z'
7 '-x, -y, z'
8 'x, y, z'
loop_
_atom_type_symbol
_atom_type_oxidation_number
La3+ 3
Na1+ 1
La3+ 3
Na1+ 1
Ti4+ 4
O2- -2
loop_
_atom_site_label
_atom_site_type_symbol
_atom_site_symmetry_multiplicity
_atom_site_Wyckoff_symbol
_atom_site_fract_x
_atom_site_fract_y
_atom_site_fract_z
_atom_site_B_iso_or_equiv
_atom_site_occupancy
_atom_site_attached_hydrogens
La1 La3+ 2 e 0.7453(5) 0.25 0 0.39(6) 0.83(4) 0
Na1 Na1+ 2 e 0.7453(5) 0.25 0 0.39(6) 0.12(1) 0
La2 La3+ 2 f 0.7614(8) 0.25 0.5 1.16(5) 0.34(2) 0
Na2 Na1+ 2 f 0.7614(8) 0.25 0.5 1.16(5) 0.36(1) 0
Ti1 Ti4+ 4 k 0.2560(1) 0.25 0.2574(4) 0.39(4) 1. 0
O1 O2- 2 e 0.2102(1) 0.25 0 0.92(1) 1. 0
O2 O2- 2 f 0.2863(4) 0.25 0.5 1.47(5) 1. 0
O3 O2- 4 g 0 0 0.7446(5) 0.88(1) 1. 0
O4 O2- 4 h 0.5 0 0.7747(5) 0.87(5) 1. 0
#End of TTdata_152239-ICSD