
#(C) 2019 by FIZ Karlsruhe - Leibniz Institute for Information Infrastructure.  All rights reserved.
data_15284-ICSD
_database_code_ICSD 15284
_audit_creation_date 1980-01-01
_audit_update_record 1997-11-10
_chemical_name_systematic 'Sodium iron titanium silicate *'
_chemical_formula_structural 'Na2 Fe5.16 Ti1.1 Si5.74 O20'
_chemical_formula_sum 'Fe5.16 Na2 O20 Si5.74 Ti1.1'
_chemical_name_structure_type Aenigmatite-Na2TiFe5Si6O20
_chemical_name_mineral Aenigmatite
_exptl_crystal_density_diffrn 3.87
_publ_section_title 'The crystal structure of aenigmatite'
loop_
_citation_id
_citation_journal_full
_citation_year
_citation_journal_volume
_citation_page_first
_citation_page_last
_citation_journal_id_ASTM
primary 'American Mineralogist' 1971 56 427 445 AMMIAY
loop_
_publ_author_name
'Cannillo, E.'
'Mazzi, F.'
'Fang, J.H.'
'Robinson, P.D.'
'Ohya, Y.'
_cell_length_a 10.406(13)
_cell_length_b 10.813(14)
_cell_length_c 8.926(6)
_cell_angle_alpha 104.93(15)
_cell_angle_beta 96.87(18)
_cell_angle_gamma 125.32(10)
_cell_volume 744.46
_cell_formula_units_Z 2
_symmetry_space_group_name_H-M 'P -1'
_symmetry_Int_Tables_number 2
_refine_ls_R_factor_all 0.072
loop_
_symmetry_equiv_pos_site_id
_symmetry_equiv_pos_as_xyz
1 '-x, -y, -z'
2 'x, y, z'
loop_
_atom_type_symbol
_atom_type_oxidation_number
Fe2+ 2
Ti4+ 4
Fe2+ 2
Ti4+ 4
Fe2+ 2
Ti4+ 4
Fe2+ 2
Ti4+ 4
Fe2+ 2
Ti4+ 4
Fe2+ 2
Ti4+ 4
Na1+ 1
Si4+ 4
Fe3+ 3
Si4+ 4
Fe3+ 3
Si4+ 4
Fe3+ 3
Si4+ 4
Fe3+ 3
O2- -2
loop_
_atom_site_label
_atom_site_type_symbol
_atom_site_symmetry_multiplicity
_atom_site_Wyckoff_symbol
_atom_site_fract_x
_atom_site_fract_y
_atom_site_fract_z
_atom_site_B_iso_or_equiv
_atom_site_occupancy
_atom_site_attached_hydrogens
Fe1 Fe2+ 1 b 0 0 0.5 . 0.89 0
Ti1 Ti4+ 1 b 0 0 0.5 . 0.11 0
Fe2 Fe2+ 1 c 0 0.5 0 . 0.87 0
Ti2 Ti4+ 1 c 0 0.5 0 . 0.13 0
Fe3 Fe2+ 2 i 0.3214(3) 0.8528(3) 0.1779(3) . 0.95 0
Ti3 Ti4+ 2 i 0.3214(3) 0.8528(3) 0.1779(3) . 0.05 0
Fe4 Fe2+ 2 i 0.7655(3) 0.8199(3) 0.1511(3) . 0.76 0
Ti4 Ti4+ 2 i 0.7655(3) 0.8199(3) 0.1511(3) . 0.24 0
Fe5 Fe2+ 2 i 0.0961(4) 0.9392(3) 0.0530(3) . 0.9 0
Ti5 Ti4+ 2 i 0.0961(4) 0.9392(3) 0.0530(3) . 0.1 0
Fe6 Fe2+ 2 i 0.5959(3) 0.9432(3) 0.0661(3) . 1. 0
Fe7 Fe2+ 2 i 0.9970(4) 0.7434(4) 0.2577(3) . 0.41 0
Ti6 Ti4+ 2 i 0.9970(4) 0.7434(4) 0.2577(3) . 0.59 0
Na1 Na1+ 2 i 0.2089(8) 0.6298(8) 0.3893(7) . 1. 0
Na2 Na1+ 2 i 0.6607(8) 0.6117(9) 0.3741(8) . 1. 0
Si1 Si4+ 2 i 0.4768(5) 0.2345(5) 0.3313(5) . 1. 0
Si2 Si4+ 2 i 0.9864(5) 0.2363(5) 0.3466(5) . 1. 0
Si3 Si4+ 2 i 0.7921(5) 0.3435(5) 0.2416(4) . 0.9 0
Fe8 Fe3+ 2 i 0.7921(5) 0.3435(5) 0.2416(4) . 0.1 0
Si4 Si4+ 2 i 0.2772(5) 0.3382(5) 0.2252(5) . 0.95 0
Fe9 Fe3+ 2 i 0.2772(5) 0.3382(5) 0.2252(5) . 0.05 0
Si5 Si4+ 2 i 0.6487(5) 0.9448(5) 0.4447(5) . 0.94 0
Fe10 Fe3+ 2 i 0.6487(5) 0.9448(5) 0.4447(5) . 0.06 0
Si6 Si4+ 2 i 0.3528(5) 0.5588(5) 0.0501(5) . 0.95 0
Fe11 Fe3+ 2 i 0.3528(5) 0.5588(5) 0.0501(5) . 0.05 0
O1 O2- 2 i 0.3542(14) 0.0641(14) 0.1621(13) 0.64 1. 0
O2 O2- 2 i 0.8611(14) 0.0666(13) 0.1807(12) 0.43 1. 0
O3 O2- 2 i 0.5540(15) 0.9534(15) 0.2958(13) 0.75 1. 0
O4 O2- 2 i 0.0151(15) 0.9258(15) 0.2670(13) 0.83 1. 0
O5 O2- 2 i 0.2353(15) 0.8747(14) 0.3933(13) 0.65 1. 0
O6 O2- 2 i 0.7541(15) 0.8843(14) 0.3902(13) 0.63 1. 0
O7 O2- 2 i 0.4929(15) 0.1948(15) 0.4973(13) 0.75 1. 0
O8 O2- 2 i 0.9575(14) 0.7755(14) 0.4871(12) 0.58 1. 0
O9 O2- 2 i 0.8996(15) 0.3230(14) 0.3735(13) 0.76 1. 0
O10 O2- 2 i 0.4034(15) 0.3364(15) 0.3529(13) 0.93 1. 0
O11 O2- 2 i 0.6653(14) 0.1744(14) 0.0709(12) 0.57 1. 0
O12 O2- 2 i 0.1570(14) 0.1688(14) 0.0612(12) 0.57 1. 0
O13 O2- 2 i 0.5233(15) 0.7108(14) 0.0393(12) 0.56 1. 0
O14 O2- 2 i 0.0673(13) 0.7340(13) 0.0757(12) 0.37 1. 0
O15 O2- 2 i 0.2417(15) 0.6060(16) 0.1120(13) 0.89 1. 0
O16 O2- 2 i 0.7510(14) 0.6018(15) 0.1275(13) 0.64 1. 0
O17 O2- 2 i 0.4002(14) 0.5015(14) 0.1883(12) 0.52 1. 0
O18 O2- 2 i 0.9363(16) 0.5147(16) 0.2264(14) 1.09 1. 0
O19 O2- 2 i 0.1648(14) 0.3649(14) 0.3183(12) 0.62 1. 0
O20 O2- 2 i 0.6731(15) 0.3626(15) 0.3366(13) 0.99 1. 0
loop_
_atom_site_aniso_label
_atom_site_aniso_type_symbol
_atom_site_aniso_beta_11
_atom_site_aniso_beta_22
_atom_site_aniso_beta_33
_atom_site_aniso_beta_12
_atom_site_aniso_beta_13
_atom_site_aniso_beta_23
Fe1 Fe2+ 0.0018(6) 0.0029(6) 0.0040(5) 0.0013(5) 0.0013(4) 0.0017(5)
Ti1 Ti4+ 0.0018(6) 0.0029(6) 0.0040(5) 0.0013(5) 0.0013(4) 0.0017(5)
Fe2 Fe2+ 0.0017(6) 0.0024(6) 0.0044(5) 0.0011(5) 0.0017(5) 0.0018(5)
Ti2 Ti4+ 0.0017(6) 0.0024(6) 0.0044(5) 0.0011(5) 0.0017(5) 0.0018(5)
Fe3 Fe2+ 0.0024(5) 0.0030(4) 0.0047(4) 0.0013(4) 0.0013(3) 0.0017(3)
Ti3 Ti4+ 0.0024(5) 0.0030(4) 0.0047(4) 0.0013(4) 0.0013(3) 0.0017(3)
Fe4 Fe2+ 0.0029(5) 0.0302(4) 0.0047(4) 0.0017(4) 0.0018(3) 0.0020(3)
Ti4 Ti4+ 0.0029(5) 0.0302(4) 0.0047(4) 0.0017(4) 0.0018(3) 0.0020(3)
Fe5 Fe2+ 0.0035(5) 0.0034(4) 0.0053(4) 0.0019(4) 0.0021(3) 0.0028(3)
Ti5 Ti4+ 0.0035(5) 0.0034(4) 0.0053(4) 0.0019(4) 0.0021(3) 0.0028(3)
Fe6 Fe2+ 0.0030(4) 0.0034(4) 0.0044(4) 0.0017(4) 0.0019(3) 0.0022(3)
Fe7 Fe2+ 0.0022(5) 0.0024(4) 0.0038(4) 0.0012(4) 0.0018(3) 0.0018(3)
Ti6 Ti4+ 0.0022(5) 0.0024(4) 0.0038(4) 0.0012(4) 0.0018(3) 0.0018(3)
Na1 Na1+ 0.0022(11) 0.0025(10) 0.0036(9) 0.0022(9) 0.0017(8) 0.0014(8)
Na2 Na1+ 0.0015(13) 0.0033(11) 0.006(1) 0.0007(10) 0.0012(9) 0.0024(9)
Si1 Si4+ 0.0010(7) 0.0011(6) 0.0021(6) 0.0003(6) 0.0008(5) 0.0007(5)
Si2 Si4+ 0.0008(7) 0.0007(6) 0.0031(6) 0.0004(6) 0.0011(5) 0.0011(5)
Si3 Si4+ 0.0011(7) 0.0010(6) 0.0023(5) 0.0004(5) 0.0008(5) 0.0010(5)
Fe8 Fe3+ 0.0011(7) 0.0010(6) 0.0023(5) 0.0004(5) 0.0008(5) 0.0010(5)
Si4 Si4+ 0.0017(8) 0.0018(7) 0.0031(6) 0.0008(6) 0.0009(6) 0.0012(5)
Fe9 Fe3+ 0.0017(8) 0.0018(7) 0.0031(6) 0.0008(6) 0.0009(6) 0.0012(5)
Si5 Si4+ 0.0019(7) 0.0024(6) 0.0024(6) 0.0016(6) 0.0015(5) 0.0015(5)
Fe10 Fe3+ 0.0019(7) 0.0024(6) 0.0024(6) 0.0016(6) 0.0015(5) 0.0015(5)
Si6 Si4+ 0.0023(7) 0.0014(6) 0.0032(6) 0.0013(6) 0.0019(5) 0.0015(5)
Fe11 Fe3+ 0.0023(7) 0.0014(6) 0.0032(6) 0.0013(6) 0.0019(5) 0.0015(5)
#End of TTdata_15284-ICSD