
#(C) 2019 by FIZ Karlsruhe - Leibniz Institute for Information Infrastructure.  All rights reserved.
data_153074-ICSD
_database_code_ICSD 153074
_audit_creation_date 2006-10-01
_audit_update_record 2015-02-01
_chemical_name_systematic 'Sodium calcium dialumodiborate (1/0.5/1)'
_chemical_formula_structural 'Na Ca0.5 (Al2 B2 O7)'
_chemical_formula_sum 'Al2 B2 Ca0.5 Na1 O7'
_chemical_name_structure_type NaCa.5Al2B2O7
_exptl_crystal_density_diffrn 2.48
_publ_section_title
'Preparation and structure of Na Sr0.5 Al2 B2 O7 and Na Ca0.5 Al2 B2 O7'
loop_
_citation_id
_citation_journal_full
_citation_year
_citation_journal_volume
_citation_page_first
_citation_page_last
_citation_journal_id_ASTM
primary 'Journal of Solid State Chemistry' 2005 178 1513 1517 JSSCBI
loop_
_publ_author_name
'Gao Jianhua'
'Li, R.-K.'
_cell_length_a 4.81292(10)
_cell_length_b 4.81292(10)
_cell_length_c 15.4056(4)
_cell_angle_alpha 90.
_cell_angle_beta 90.
_cell_angle_gamma 120.
_cell_volume 309.05
_cell_formula_units_Z 2
_symmetry_space_group_name_H-M 'P 63/m'
_symmetry_Int_Tables_number 176
_refine_ls_R_factor_all 0.0504
loop_
_symmetry_equiv_pos_site_id
_symmetry_equiv_pos_as_xyz
1 '-x+y, -x, -z+1/2'
2 '-y, x-y, -z+1/2'
3 'x, y, -z+1/2'
4 'x-y, x, -z'
5 'y, -x+y, -z'
6 '-x, -y, -z'
7 'x-y, x, z+1/2'
8 'y, -x+y, z+1/2'
9 '-x, -y, z+1/2'
10 '-x+y, -x, z'
11 '-y, x-y, z'
12 'x, y, z'
loop_
_atom_type_symbol
_atom_type_oxidation_number
Ca2+ 2
Na1+ 1
Ca2+ 2
Al3+ 3
B3+ 3
O2- -2
loop_
_atom_site_label
_atom_site_type_symbol
_atom_site_symmetry_multiplicity
_atom_site_Wyckoff_symbol
_atom_site_fract_x
_atom_site_fract_y
_atom_site_fract_z
_atom_site_B_iso_or_equiv
_atom_site_occupancy
_atom_site_attached_hydrogens
Ca1 Ca2+ 2 b 0 0 0 0.0213(12) 0.461(6) 0
Na1 Na1+ 2 b 0 0 0 0.0213(12) 0.539(6) 0
Na2 Na1+ 2 a 0 0 0.25 0.0213(12) 0.461(6) 0
Ca2 Ca2+ 2 a 0 0 0.25 0.0213(12) 0.039(6) 0
Al1 Al3+ 4 f 0.3333 0.6667 0.6413(2) 0.0135(9) 1. 0
B1 B3+ 4 f 0.3333 0.6667 0.1011(7) 0.031(4) 1. 0
O1 O2- 12 i 0.9711(7) 0.5995(6) 0.8993(2) 0.0179(11) 1. 0
O2 O2- 2 d 0.6667 0.3333 0.25 0.073 1. 0
loop_
_atom_site_aniso_label
_atom_site_aniso_type_symbol
_atom_site_aniso_U_11
_atom_site_aniso_U_22
_atom_site_aniso_U_33
_atom_site_aniso_U_12
_atom_site_aniso_U_13
_atom_site_aniso_U_23
O2 O2- 0.107(7) 0.107(7) 0.004(8) 0.054(3) 0. 0.
#End of TTdata_153074-ICSD