
#(C) 2019 by FIZ Karlsruhe - Leibniz Institute for Information Infrastructure.  All rights reserved.
data_153037-ICSD
_database_code_ICSD 153037
_audit_creation_date 2006-10-01
_chemical_name_systematic 'Trisodium dicuproantimonate'
_chemical_formula_structural 'Na3 (Cu2 Sb O6)'
_chemical_formula_sum 'Cu2 Na3 O6 Sb1'
_chemical_name_structure_type Li5ReO6
_exptl_crystal_density_diffrn 5.09
_publ_section_title

;
Subsolidus phase relations in (Na2 O) - (Cu O) - (Sb2 On) system and crystal
structure of new sodium copper antimonate Na3 Cu2 Sb O6
;
loop_
_citation_id
_citation_journal_full
_citation_year
_citation_journal_volume
_citation_page_first
_citation_page_last
_citation_journal_id_ASTM
primary 'Journal of Solid State Chemistry' 2005 178 1165 1170 JSSCBI
loop_
_publ_author_name
'Smirnova, O.A.'
'Nalbandyan, V.B.'
'Petrenko, A.A.'
'Avdeev, M.'
_cell_length_a 5.6759(1)
_cell_length_b 8.8659(1)
_cell_length_c 5.8379(1)
_cell_angle_alpha 90.
_cell_angle_beta 113.289(1)
_cell_angle_gamma 90.
_cell_volume 269.84
_cell_formula_units_Z 2
_symmetry_space_group_name_H-M 'C 1 2/m 1'
_symmetry_Int_Tables_number 12
_refine_ls_R_factor_all 0.0151
loop_
_symmetry_equiv_pos_site_id
_symmetry_equiv_pos_as_xyz
1 '-x, y, -z'
2 '-x, -y, -z'
3 'x, -y, z'
4 'x, y, z'
5 '-x+1/2, y+1/2, -z'
6 '-x+1/2, -y+1/2, -z'
7 'x+1/2, -y+1/2, z'
8 'x+1/2, y+1/2, z'
loop_
_atom_type_symbol
_atom_type_oxidation_number
Cu2+ 2
Sb5+ 5
O2- -2
Na1+ 1
loop_
_atom_site_label
_atom_site_type_symbol
_atom_site_symmetry_multiplicity
_atom_site_Wyckoff_symbol
_atom_site_fract_x
_atom_site_fract_y
_atom_site_fract_z
_atom_site_B_iso_or_equiv
_atom_site_occupancy
_atom_site_attached_hydrogens
Cu1 Cu2+ 4 g 0 0.6667(1) 0 0.0054(3) 1. 0
Sb1 Sb5+ 2 a 0 0 0 0.0028(3) 1. 0
O1 O2- 8 j 0.2931(4) 0.3340(3) 0.7750(4) 0.0045(6) 1. 0
O2 O2- 4 i 0.2404(7) 0.5 0.1774(8) 0.0045(6) 1. 0
Na1 Na1+ 2 d 0 0.5 0.5 . 1. 0
Na2 Na1+ 4 h 0.5 0.3280(3) 0.5 . 1. 0
loop_
_atom_site_aniso_label
_atom_site_aniso_type_symbol
_atom_site_aniso_U_11
_atom_site_aniso_U_22
_atom_site_aniso_U_33
_atom_site_aniso_U_12
_atom_site_aniso_U_13
_atom_site_aniso_U_23
Na1 Na1+ 0.011(1) 0.010(1) 0.004(1) 0. 0. 0.
Na2 Na1+ 0.011(1) 0.010(1) 0.004(1) 0. 0. 0.
#End of TTdata_153037-ICSD