
#(C) 2019 by FIZ Karlsruhe - Leibniz Institute for Information Infrastructure.  All rights reserved.
data_153075-ICSD
_database_code_ICSD 153075
_audit_creation_date 2006-10-01
_chemical_name_systematic 'Sodium strontium dialumodiborate (1/0.5/1)'
_chemical_formula_structural 'Na Sr0.5 (Al2 B2 O7)'
_chemical_formula_sum 'Al2 B2 Na1 O7 Sr0.5'
_chemical_name_structure_type NaCa.5Al2B2O7
_exptl_crystal_density_diffrn 2.64
_publ_section_title
'Preparation and structure of Na Sr0.5 Al2 B2 O7 and Na Ca0.5 Al2 B2 O7'
loop_
_citation_id
_citation_journal_full
_citation_year
_citation_journal_volume
_citation_page_first
_citation_page_last
_citation_journal_id_ASTM
primary 'Journal of Solid State Chemistry' 2005 178 1513 1517 JSSCBI
loop_
_publ_author_name
'Gao Jianhua'
'Li, R.-K.'
_cell_length_a 4.85640(8)
_cell_length_b 4.85640(8)
_cell_length_c 15.6635(4)
_cell_angle_alpha 90.
_cell_angle_beta 90.
_cell_angle_gamma 120.
_cell_volume 319.93
_cell_formula_units_Z 2
_symmetry_space_group_name_H-M 'P 63/m'
_symmetry_Int_Tables_number 176
_refine_ls_R_factor_all 0.043
loop_
_symmetry_equiv_pos_site_id
_symmetry_equiv_pos_as_xyz
1 '-x+y, -x, -z+1/2'
2 '-y, x-y, -z+1/2'
3 'x, y, -z+1/2'
4 'x-y, x, -z'
5 'y, -x+y, -z'
6 '-x, -y, -z'
7 'x-y, x, z+1/2'
8 'y, -x+y, z+1/2'
9 '-x, -y, z+1/2'
10 '-x+y, -x, z'
11 '-y, x-y, z'
12 'x, y, z'
loop_
_atom_type_symbol
_atom_type_oxidation_number
Sr2+ 2
Na1+ 1
Sr2+ 2
Al3+ 3
B3+ 3
O2- -2
loop_
_atom_site_label
_atom_site_type_symbol
_atom_site_symmetry_multiplicity
_atom_site_Wyckoff_symbol
_atom_site_fract_x
_atom_site_fract_y
_atom_site_fract_z
_atom_site_B_iso_or_equiv
_atom_site_occupancy
_atom_site_attached_hydrogens
Sr1 Sr2+ 2 b 0 0 0 0.0200(6) 0.492(1) 0
Na1 Na1+ 2 b 0 0 0 0.0200(6) 0.508(1) 0
Na2 Na1+ 2 a 0 0 0.25 0.0200(6) 0.492(1) 0
Sr2 Sr2+ 2 a 0 0 0.25 0.0200(6) 0.008(1) 0
Al1 Al3+ 4 f 0.3333 0.6667 0.6433(2) 0.0134(7) 1. 0
B1 B3+ 4 f 0.3333 0.6667 0.1038(6) 0.033(3) 1. 0
O1 O2- 12 i 0.9744(5) 0.5927(4) 0.8971(2) 0.0187(8) 1. 0
O2 O2- 2 d 0.6667 0.3333 0.25 0.085 1. 0
loop_
_atom_site_aniso_label
_atom_site_aniso_type_symbol
_atom_site_aniso_U_11
_atom_site_aniso_U_22
_atom_site_aniso_U_33
_atom_site_aniso_U_12
_atom_site_aniso_U_13
_atom_site_aniso_U_23
O2 O2- 0.120(5) 0.120(5) 0.016(8) 0.060(3) 0. 0.
#End of TTdata_153075-ICSD