
#(C) 2019 by FIZ Karlsruhe - Leibniz Institute for Information Infrastructure.  All rights reserved.
data_153319-ICSD
_database_code_ICSD 153319
_audit_creation_date 2006-10-01
_chemical_name_systematic 'Sodium zirconium nitride fluoride (0.3/1/1/1.3)'
_chemical_formula_structural 'Na0.3 Zr N F1.3'
_chemical_formula_sum 'F1.3 N1 Na0.3 Zr1'
_exptl_crystal_density_diffrn 4.3
_publ_section_title

;
A0.3 Zr N F1.3 phases (A= Na, K) with layered (Zr N Cl)-type structures
prepared by anion metathesis
;
loop_
_citation_id
_citation_journal_full
_citation_year
_citation_journal_volume
_citation_page_first
_citation_page_last
_citation_journal_id_ASTM
primary 'Chemistry of Materials' 2005 17 5291 5296 CMATEX
loop_
_publ_author_name
'Stoltz, C.'
'Ramesha, K.'
'Piccoli, P.'
'Toby, B.H.'
'Eichhorn, B.W.'
_cell_length_a 3.654(1)
_cell_length_b 3.654(1)
_cell_length_c 18.266(8)
_cell_angle_alpha 90.
_cell_angle_beta 90.
_cell_angle_gamma 120.
_cell_volume 211.21
_cell_formula_units_Z 4
_symmetry_space_group_name_H-M 'P 63/m m c'
_symmetry_Int_Tables_number 194
_refine_ls_R_factor_all 0.0795
loop_
_symmetry_equiv_pos_site_id
_symmetry_equiv_pos_as_xyz
1 'x, x-y, -z+1/2'
2 '-x+y, y, -z+1/2'
3 '-y, -x, -z+1/2'
4 '-x+y, -x, -z+1/2'
5 '-y, x-y, -z+1/2'
6 'x, y, -z+1/2'
7 '-x, -x+y, z+1/2'
8 'x-y, -y, z+1/2'
9 'y, x, z+1/2'
10 'x-y, x, z+1/2'
11 'y, -x+y, z+1/2'
12 '-x, -y, z+1/2'
13 '-x, -x+y, -z'
14 'x-y, -y, -z'
15 'y, x, -z'
16 'x-y, x, -z'
17 'y, -x+y, -z'
18 '-x, -y, -z'
19 'x, x-y, z'
20 '-x+y, y, z'
21 '-y, -x, z'
22 '-x+y, -x, z'
23 '-y, x-y, z'
24 'x, y, z'
loop_
_atom_type_symbol
_atom_type_oxidation_number
Na1+ 1
Zr4+ 4
N3- -3
F1- -1
loop_
_atom_site_label
_atom_site_type_symbol
_atom_site_symmetry_multiplicity
_atom_site_Wyckoff_symbol
_atom_site_fract_x
_atom_site_fract_y
_atom_site_fract_z
_atom_site_B_iso_or_equiv
_atom_site_occupancy
_atom_site_attached_hydrogens
Na1 Na1+ 4 f 0.3333 0.6667 0.703(4) 0.001(1) 0.3 0
Zr1 Zr4+ 4 f 0.3333 0.6667 0.435(1) 0.036(4) 1. 0
N1 N3- 4 f 0.3333 0.6667 0.9384(7) 0.020(2) 1. 0
F1 F1- 4 e 0 0 0.3729(9) 0.064(4) 1. 0
F2 F1- 2 d 0.6667 0.3333 0.25 0.005(1) 0.6 0
#End of TTdata_153319-ICSD