
#(C) 2019 by FIZ Karlsruhe - Leibniz Institute for Information Infrastructure.  All rights reserved.
data_153372-ICSD
_database_code_ICSD 153372
_audit_creation_date 2006-10-01
_chemical_name_systematic 'Sodium niccolate(III)'
_chemical_formula_structural 'Na Ni O2'
_chemical_formula_sum 'Na1 Ni1 O2'
_chemical_name_structure_type NaNiO2(mS8)
_exptl_crystal_density_diffrn 4.8
_cell_measurement_temperature 4.
_publ_section_title
'Magnetic structure of the spin-(1/2) layer compound Na Ni O2'
loop_
_citation_id
_citation_journal_full
_citation_year
_citation_journal_volume
_citation_page_first
_citation_page_last
_citation_journal_id_ASTM
primary 'European Physical Journal B: condensed Matter and Complex Systems' 2005
43 159 162 EPJBFY
loop_
_publ_author_name
'Darie, C.'
'Bordet, P.'
'de Brion, S.'
'Holzapfel, M.'
'Isnard, O.'
'Lecchi, A.'
'Lorenzo, J.E.'
'Suard, E.'
_cell_length_a 5.30811(3)
_cell_length_b 2.84193(1)
_cell_length_c 5.56671(3)
_cell_angle_alpha 90.
_cell_angle_beta 110.4504(3)
_cell_angle_gamma 90.
_cell_volume 78.68
_cell_formula_units_Z 2
_symmetry_space_group_name_H-M 'C 1 2/m 1'
_symmetry_Int_Tables_number 12
_refine_ls_R_factor_all 0.0208
loop_
_symmetry_equiv_pos_site_id
_symmetry_equiv_pos_as_xyz
1 '-x, y, -z'
2 '-x, -y, -z'
3 'x, -y, z'
4 'x, y, z'
5 '-x+1/2, y+1/2, -z'
6 '-x+1/2, -y+1/2, -z'
7 'x+1/2, -y+1/2, z'
8 'x+1/2, y+1/2, z'
loop_
_atom_type_symbol
_atom_type_oxidation_number
Na1+ 1
Ni3+ 3
O2- -2
loop_
_atom_site_label
_atom_site_type_symbol
_atom_site_symmetry_multiplicity
_atom_site_Wyckoff_symbol
_atom_site_fract_x
_atom_site_fract_y
_atom_site_fract_z
_atom_site_B_iso_or_equiv
_atom_site_occupancy
_atom_site_attached_hydrogens
Na1 Na1+ 2 d 0 0.5 0.5 . 1. 0
Ni1 Ni3+ 2 a 0 0 0 . 1. 0
O1 O2- 4 i 0.2836(2) 0 0.8040(2) . 1. 0
loop_
_atom_site_aniso_label
_atom_site_aniso_type_symbol
_atom_site_aniso_U_11
_atom_site_aniso_U_22
_atom_site_aniso_U_33
_atom_site_aniso_U_12
_atom_site_aniso_U_13
_atom_site_aniso_U_23
Na1 Na1+ 0.013(1) 0.0039(8) 0.004(1) 0. 0.005(1) 0.
Ni1 Ni3+ 0.0021(4) 0.0037(5) 0.0039(4) 0. -0.0004(4) 0.
O1 O2- 0.0084(6) 0.0045(6) 0.0037(5) 0. 0.0022(5) 0.
#End of TTdata_153372-ICSD