
#(C) 2019 by FIZ Karlsruhe - Leibniz Institute for Information Infrastructure.  All rights reserved.
data_153440-ICSD
_database_code_ICSD 153440
_audit_creation_date 2006-10-01
_audit_update_record 2015-02-01
_chemical_name_systematic 'Disodium cerium(IV) oxide'
_chemical_formula_structural 'Na2 Ce O3'
_chemical_formula_sum 'Ce1 Na2 O3'
_chemical_name_structure_type Li2SnO3
_exptl_crystal_density_diffrn 4.46
_publ_section_title

;
Structure and magnetic properties of the two-dimensional antiferromagnet Na2
Tb O3
;
loop_
_citation_id
_citation_journal_full
_citation_year
_citation_journal_volume
_citation_page_first
_citation_page_last
_citation_journal_id_ASTM
primary 'Journal of Physics: Condensed Matter' 2005 17 4393 4401 JCOMEL
loop_
_publ_author_name
'Doi, Y.'
'Ninomiya, K.'
'Hinatsu, Y.'
'Ohoyama, K.'
_cell_length_a 6.068(9)
_cell_length_b 10.383(1)
_cell_length_c 11.793(2)
_cell_angle_alpha 90.
_cell_angle_beta 110.17(1)
_cell_angle_gamma 90.
_cell_volume 697.44
_cell_formula_units_Z 8
_symmetry_space_group_name_H-M 'C 1 2/c 1'
_symmetry_Int_Tables_number 15
_refine_ls_R_factor_all 0.0398
loop_
_symmetry_equiv_pos_site_id
_symmetry_equiv_pos_as_xyz
1 'x, -y, z+1/2'
2 '-x, -y, -z'
3 '-x, y, -z+1/2'
4 'x, y, z'
5 'x+1/2, -y+1/2, z+1/2'
6 '-x+1/2, -y+1/2, -z'
7 '-x+1/2, y+1/2, -z+1/2'
8 'x+1/2, y+1/2, z'
loop_
_atom_type_symbol
_atom_type_oxidation_number
Na1+ 1
Ce4+ 4
Na1+ 1
Ce4+ 4
O2- -2
loop_
_atom_site_label
_atom_site_type_symbol
_atom_site_symmetry_multiplicity
_atom_site_Wyckoff_symbol
_atom_site_fract_x
_atom_site_fract_y
_atom_site_fract_z
_atom_site_B_iso_or_equiv
_atom_site_occupancy
_atom_site_attached_hydrogens
Na1 Na1+ 4 a 0 0 0 0.27(4) 1. 0
Na2 Na1+ 8 f -0.041(2) 0.326(1) -0.006(1) 0.27(4) 1. 0
Na3 Na1+ 4 e 0 0.8369(9) 0.25 0.27(4) 0.65(1) 0
Ce1 Ce4+ 4 e 0 0.8369(9) 0.25 0.27(4) 0.35(1) 0
Na4 Na1+ 4 e 0 0.1750(6) 0.25 0.27(4) 0.35(1) 0
Ce2 Ce4+ 4 e 0 0.1750(6) 0.25 0.27(4) 0.65(1) 0
Ce3 Ce4+ 4 e 0 0.5008(5) 0.25 0.27(4) 1. 0
O1 O2- 8 f 0.232(3) 0.503(3) 0.141(2) 1.0(1) 1. 0
O2 O2- 8 f 0.267(4) 0.135(2) 0.152(2) 1.0(1) 1. 0
O3 O2- 8 f 0.284(4) 0.857(3) 0.130(2) 1.0(1) 1. 0
#End of TTdata_153440-ICSD