
#(C) 2019 by FIZ Karlsruhe - Leibniz Institute for Information Infrastructure.  All rights reserved.
data_15346-ICSD
_database_code_ICSD 15346
_audit_creation_date 1980-01-01
_audit_update_record 2012-02-01
_chemical_name_systematic 'Sodium pentaaluminium dititanium oxide'
_chemical_formula_structural 'Na Ti2 Al5 O12'
_chemical_formula_sum 'Al5 Na1 O12 Ti2'
_chemical_name_structure_type NaTi2Al5O12
_exptl_crystal_density_diffrn 3.6
_publ_section_title 'The crystal structure of Na Ti2 Al5 O12'
loop_
_citation_id
_citation_journal_full
_citation_year
_citation_journal_volume
_citation_page_first
_citation_page_last
_citation_journal_id_ASTM
primary 'Acta Crystallographica' 1967 23 754 758 ACCRA9
loop_
_publ_author_name
'Mumme, W.G.'
'Wadsley, A.D.'
_cell_length_a 9.080(5)
_cell_length_b 15.519(5)
_cell_length_c 2.919(2)
_cell_angle_alpha 90.
_cell_angle_beta 90.
_cell_angle_gamma 90.
_cell_volume 411.32
_cell_formula_units_Z 2
_symmetry_space_group_name_H-M 'P b a m'
_symmetry_Int_Tables_number 55
_refine_ls_R_factor_all 0.097
loop_
_symmetry_equiv_pos_site_id
_symmetry_equiv_pos_as_xyz
1 'x+1/2, -y+1/2, z'
2 '-x+1/2, y+1/2, z'
3 'x, y, -z'
4 '-x, -y, -z'
5 '-x+1/2, y+1/2, -z'
6 'x+1/2, -y+1/2, -z'
7 '-x, -y, z'
8 'x, y, z'
loop_
_atom_type_symbol
_atom_type_oxidation_number
Na1+ 1
Al3+ 3
Ti4+ 4
O2- -2
loop_
_atom_site_label
_atom_site_type_symbol
_atom_site_symmetry_multiplicity
_atom_site_Wyckoff_symbol
_atom_site_fract_x
_atom_site_fract_y
_atom_site_fract_z
_atom_site_B_iso_or_equiv
_atom_site_occupancy
_atom_site_attached_hydrogens
Na1 Na1+ 2 d 0 0.5 0.5 . 1. 0
Al1 Al3+ 2 a 0 0 0 . 1. 0
Al2 Al3+ 4 g 0.0098(9) 0.2999(5) 0 . 1. 0
Al3 Al3+ 4 h 0.3069(9) 0.3553(7) 0.5 . 1. 0
Ti1 Ti4+ 4 h 0.2294(6) 0.1449(4) 0.5 . 1. 0
O1 O2- 4 h 0.1050(19) 0.0513(13) 0.5 . 1. 0
O2 O2- 4 g 0.3638(20) 0.1108(14) 0 . 1. 0
O3 O2- 4 g 0.1319(22) 0.2059(14) 0 . 1. 0
O4 O2- 4 h 0.3902(24) 0.2481(14) 0.5 . 1. 0
O5 O2- 4 h 0.1100(22) 0.3534(16) 0.5 . 1. 0
O6 O2- 4 g 0.3662(21) 0.4072(14) 0 . 1. 0
loop_
_atom_site_aniso_label
_atom_site_aniso_type_symbol
_atom_site_aniso_U_11
_atom_site_aniso_U_22
_atom_site_aniso_U_33
_atom_site_aniso_U_12
_atom_site_aniso_U_13
_atom_site_aniso_U_23
Na1 Na1+ 0.052(20) 0.038(23) 0.129(25) -0.001(13) 0 0
Al1 Al3+ 0.005(5) 0.012(5) 0.003(9) -.0025(45) 0 0
Al2 Al3+ 0.011(5) 0.016(6) 0.017(9) -.003(5) 0 0
Al3 Al3+ 0.005(8) 0.004(7) 0.024(13) 0.002(6) 0 0
Ti1 Ti4+ 0.016(3) 0.019(4) 0.020(6) -.0025(35) 0 0
O1 O2- 0.007(12) 0.009(14) 0.025(20) -0.006(11) 0 0
O2 O2- 0.012(13) 0.016(14) 0.025(19) -.005(12) 0 0
O3 O2- 0.019(14) 0.027(17) 0.008(23) -.018(12) 0 0
O4 O2- 0.016(14) 0.014(16) 0.035(24) -0.005(10) 0 0
O5 O2- 0.027(15) 0.026(18) 0.032(24) 0.003(15) 0 0
O6 O2- 0.016(14) 0.027(16) 0.025(21) 0.001(13) 0 0
#End of TTdata_15346-ICSD