
#(C) 2019 by FIZ Karlsruhe - Leibniz Institute for Information Infrastructure.  All rights reserved.
data_153927-ICSD
_database_code_ICSD 153927
_audit_creation_date 2007-04-01
_chemical_name_systematic
'Sodium lanthanum erbium molybdate(VI) (0.59/0.08/0.33/1)'
_chemical_formula_structural '(Na0.588 La0.08 Er0.332) (Mo O4)'
_chemical_formula_sum 'Er0.332 La0.08 Mo1 Na0.588 O4'
_chemical_name_structure_type Scheelite-CaWO4
_exptl_crystal_density_diffrn 4.76
_publ_section_title

;
X-ray diffraction study of the structure and defect system of nominally pure
and Er(3+)- and Ce(3+)-activated (Na0.5 La0.5) Mo O4 crystals
;
loop_
_citation_id
_citation_journal_full
_citation_year
_citation_journal_volume
_citation_page_first
_citation_page_last
_citation_journal_id_ASTM
primary 'Neorganicheskie Materialy' 2005 41 1133 1145 NMATEI
loop_
_publ_author_name
'Kuz'micheva, G.M. (Kuzmicheva, G.M.)'
'Zharikov, E.V.'
'Subbotin, K.A.'
'Lis, D.A.'
'Rybakov, V.B.'
_cell_length_a 5.3415(9)
_cell_length_b 5.3415(9)
_cell_length_c 11.737(1)
_cell_angle_alpha 90.
_cell_angle_beta 90.
_cell_angle_gamma 90.
_cell_volume 334.88
_cell_formula_units_Z 4
_symmetry_space_group_name_H-M 'I 41/a Z'
_symmetry_Int_Tables_number 88
_refine_ls_R_factor_all 0.0807
loop_
_symmetry_equiv_pos_site_id
_symmetry_equiv_pos_as_xyz
1 '-y+3/4, x+3/4, -z+3/4'
2 'y+1/4, -x+3/4, -z+3/4'
3 'x, y+1/2, -z'
4 '-x, -y, -z'
5 'y+1/4, -x+1/4, z+1/4'
6 '-y+3/4, x+1/4, z+1/4'
7 '-x, -y+1/2, z'
8 'x, y, z'
9 '-y+1/4, x+1/4, -z+1/4'
10 'y+3/4, -x+1/4, -z+1/4'
11 'x+1/2, y, -z+1/2'
12 '-x+1/2, -y+1/2, -z+1/2'
13 'y+3/4, -x+3/4, z+3/4'
14 '-y+1/4, x+3/4, z+3/4'
15 '-x+1/2, -y, z+1/2'
16 'x+1/2, y+1/2, z+1/2'
loop_
_atom_type_symbol
_atom_type_oxidation_number
Na1+ 1
La3+ 3.43
Er3+ 3.43
Mo6+ 6
O2- -2
loop_
_atom_site_label
_atom_site_type_symbol
_atom_site_symmetry_multiplicity
_atom_site_Wyckoff_symbol
_atom_site_fract_x
_atom_site_fract_y
_atom_site_fract_z
_atom_site_B_iso_or_equiv
_atom_site_occupancy
_atom_site_attached_hydrogens
Na1 Na1+ 4 a 0 0.75 0.875 0.0017(4) 0.588(16) 0
La1 La3+ 4 a 0 0.75 0.875 0.0017(4) 0.08(4) 0
Er1 Er3+ 4 a 0 0.75 0.875 0.0017(4) 0.332(36) 0
Mo1 Mo6+ 4 b 0.5 0.75 0.125 0.0017(3) 1. 0
O1 O2- 16 f 0.859(2) 0.490(2) 0.0430(8) 0.0075(9) 0.492(7) 0
O2 O2- 16 f 0.643(2) 0.511(2) 0.0427(8) 0.0075(9) 0.508(7) 0
loop_
_atom_site_aniso_label
_atom_site_aniso_type_symbol
_atom_site_aniso_U_11
_atom_site_aniso_U_22
_atom_site_aniso_U_33
_atom_site_aniso_U_12
_atom_site_aniso_U_13
_atom_site_aniso_U_23
Na1 Na1+ 0.0016(4) 0.0016(4) 0.0019(5) 0. 0. 0.
La1 La3+ 0.0016(4) 0.0016(4) 0.0019(5) 0. 0. 0.
Er1 Er3+ 0.0016(4) 0.0016(4) 0.0019(5) 0. 0. 0.
Mo1 Mo6+ 0.0014(3) 0.0014(3) 0.0022(4) 0. 0. 0.
O1 O2- 0.00049(3) 0.0049(18) 0.0106(23) 0.0003(16) 0.0023(18) 0.0069(18)
O2 O2- 0.00049(3) 0.0049(18) 0.0106(23) 0.0003(16) 0.0023(18) 0.0069(18)
#End of TTdata_153927-ICSD