
#(C) 2019 by FIZ Karlsruhe - Leibniz Institute for Information Infrastructure.  All rights reserved.
data_153906-ICSD
_database_code_ICSD 153906
_audit_creation_date 2007-04-01
_chemical_name_systematic
'Calcium sodium phosphate(V) carbonate (8.8/1.2/4.8/2.2)'
_chemical_formula_structural 'Ca8.8 Na1.2 ((P O4)4.8 (C O3)1.2) (C O3)'
_chemical_formula_sum 'C2.2 Ca8.8 Na1.2 O25.8 P4.8'
_chemical_name_mineral Carbonate-apatite
_exptl_crystal_density_diffrn 3.04
_publ_section_title
'Single crystal growth and structure analysis of AB-type carbonate apatite'
loop_
_citation_id
_citation_journal_full
_citation_year
_citation_journal_volume
_citation_page_first
_citation_page_last
_citation_journal_id_ASTM
primary 'Key Engineering Materials' 2005 288 525 528 KEMAEY
loop_
_publ_author_name
'Suetsugu, Y.'
'Ikoma, T.'
'Kikuchi, M.'
'Tanaka, J.'
_cell_length_a 9.379(2)
_cell_length_b 9.379(2)
_cell_length_c 6.935(1)
_cell_angle_alpha 90.
_cell_angle_beta 90.
_cell_angle_gamma 120.
_cell_volume 528.31
_cell_formula_units_Z 1
_symmetry_space_group_name_H-M 'P -6'
_symmetry_Int_Tables_number 174
_refine_ls_R_factor_all 0.047
loop_
_symmetry_equiv_pos_site_id
_symmetry_equiv_pos_as_xyz
1 '-x+y, -x, -z'
2 '-y, x-y, -z'
3 'x, y, -z'
4 '-x+y, -x, z'
5 '-y, x-y, z'
6 'x, y, z'
loop_
_atom_type_symbol
_atom_type_oxidation_number
Ca2+ 2
Na1+ 1
P5+ 5
O2- -2
C4+ 4
O2- -2
C4+ 4
O2- -2
loop_
_atom_site_label
_atom_site_type_symbol
_atom_site_symmetry_multiplicity
_atom_site_Wyckoff_symbol
_atom_site_fract_x
_atom_site_fract_y
_atom_site_fract_z
_atom_site_B_iso_or_equiv
_atom_site_occupancy
_atom_site_attached_hydrogens
Ca1 Ca2+ 2 i 0.6667 0.3333 0.2488(4) 1.63(8) 0.884(10) 0
Ca2 Ca2+ 2 h 0.3333 0.6667 0.2502(5) 1.27(6) 0.836(12) 0
Ca3 Ca2+ 3 j 0.7504(4) 0.7380(3) 0 1.56(6) 0.959(6) 0
Ca4 Ca2+ 3 k 0.2495(5) 0.2618(5) 0.5 1.30(6) 0.826(12) 0
Na1 Na1+ 2 i 0.6667 0.3333 0.2185(44) 1.63(8) 0.116(10) 0
Na2 Na1+ 2 h 0.3333 0.6667 0.2382(48) 1.27(6) 0.164(12) 0
Na3 Na1+ 3 j 0.6833(85) 0.7301(79) 0 1.56(6) 0.041(6) 0
Na4 Na1+ 3 k 0.2413(40) 0.2657(45) 0.5 1.30(6) 0.174(12) 0
P1 P5+ 3 j 0.3662(4) 0.3950(4) 0 0.47(7) 0.700(4) 0
P2 P5+ 3 k 0.6297(1) 0.6013(4) 0.5 1.17(8) 0.900(4) 0
O1 O2- 3 j 0.4783(13) 0.3249(12) 0 0.80(27) 0.700(4) 0
O2 O2- 3 k 0.5173(11) 0.6783(11) 0.5 1.68(29) 0.900(4) 0
O3 O2- 3 j 0.4666(15) 0.5881(13) 0 1.89(37) 0.700(4) 0
O4 O2- 3 k 0.5349(11) 0.4176(12) 0.5 2.67(33) 0.900(4) 0
O5 O2- 6 l 0.2628(10) 0.3520(10) 0.1781(7) 2.03(24) 0.700(4) 0
O6 O2- 6 l 0.7483(9) 0.6657(11) 0.3191(7) 3.48(24) 0.900(4) 0
C1 C4+ 2 g 0 0 0.2686(14) 12.54(258) 0.5 0
O7 O2- 2 g 0 0 0.0832(12) 0.76(13) 0.5 0
O8 O2- 6 l 0.0836(42) 0.0500(48) 0.3620(19) 18.95(374) 0.167 0
O9 O2- 6 l 0.0597(36) 0.0762(35) 0.3593(20) 14.52(269) 0.167 0
C2 C4+ 6 l 0.3890(16) 0.3958(14) 0.0548(26) 1.21(87) 0.150(2) 0
C3 C4+ 6 l 0.6095(14) 0.5985(43) 0.5852(36) 1.51(267) 0.050(2) 0
O10 O2- 6 l 0.4868(19) 0.3395(49) 0.0321(11) 0.96(65) 0.150(2) 0
O11 O2- 6 l 0.5618(52) 0.7011(45) 0.5407(46) 2.11(270) 0.050(2) 0
O12 O2- 6 l 0.1431(21) 0.5502(14) 0.0321(11) 1.13(55) 0.150(2) 0
O13 O2- 6 l 0.5174(51) 0.4453(45) 0.5407(46) 5.32(46) 0.050(2) 0
O14 O2- 6 l 0.2475(46) 0.3043(20) 0.1323(20) 1.72(69) 0.150(2) 0
O15 O2- 6 l 0.7305(43) 0.6427(51) 0.7026(48) 0.52(131) 0.050(2) 0
#End of TTdata_153906-ICSD