
#(C) 2019 by FIZ Karlsruhe - Leibniz Institute for Information Infrastructure.  All rights reserved.
data_154070-ICSD
_database_code_ICSD 154070
_audit_creation_date 2007-04-01
_chemical_name_systematic 'Sodium aluminium tin phosphate(V) (1.17/0.15/1.85/3)'
_chemical_formula_structural 'Na1.168 (Al0.148 Sn0.852) Sn (P O4)3'
_chemical_formula_sum 'Al0.148 Na1.168 O12 P3 Sn1.852'
_chemical_name_structure_type Na1+x(Mg,In)2(SO4)3
_exptl_crystal_density_diffrn 3.78
_publ_section_title

;
Nominal vs. actual stoichiometries in Al-doped NASICONs: a study of the Na1.4
Al0.4 M1.6 (P O4)3 (M= Ge, Sn, Ti, Hf, Zr) family
;
loop_
_citation_id
_citation_journal_full
_citation_year
_citation_journal_volume
_citation_page_first
_citation_page_last
_citation_journal_id_ASTM
primary 'Solid State Ionics' 2005 176 1613 1625 SSIOD3
loop_
_publ_author_name
'Maldonado-Manso, P.'
'Aranda, M.A.G.'
'Bruque, S.'
'Sanz, J.'
'Losilla, E.R.'
_cell_length_a 8.5346(1)
_cell_length_b 8.5346(1)
_cell_length_c 22.3847(4)
_cell_angle_alpha 90.
_cell_angle_beta 90.
_cell_angle_gamma 120.
_cell_volume 1412.04
_cell_formula_units_Z 6
_symmetry_space_group_name_H-M 'R -3 H'
_symmetry_Int_Tables_number 148
_refine_ls_R_factor_all 0.009
loop_
_symmetry_equiv_pos_site_id
_symmetry_equiv_pos_as_xyz
1 'x-y, x, -z'
2 'y, -x+y, -z'
3 '-x, -y, -z'
4 '-x+y, -x, z'
5 '-y, x-y, z'
6 'x, y, z'
7 'x-y+2/3, x+1/3, -z+1/3'
8 'y+2/3, -x+y+1/3, -z+1/3'
9 '-x+2/3, -y+1/3, -z+1/3'
10 '-x+y+2/3, -x+1/3, z+1/3'
11 '-y+2/3, x-y+1/3, z+1/3'
12 'x+2/3, y+1/3, z+1/3'
13 'x-y+1/3, x+2/3, -z+2/3'
14 'y+1/3, -x+y+2/3, -z+2/3'
15 '-x+1/3, -y+2/3, -z+2/3'
16 '-x+y+1/3, -x+2/3, z+2/3'
17 '-y+1/3, x-y+2/3, z+2/3'
18 'x+1/3, y+2/3, z+2/3'
loop_
_atom_type_symbol
_atom_type_oxidation_number
Na1+ 1
Sn4+ 4
Al3+ 3
Sn4+ 4
P5+ 5
O2- -2
loop_
_atom_site_label
_atom_site_type_symbol
_atom_site_symmetry_multiplicity
_atom_site_Wyckoff_symbol
_atom_site_fract_x
_atom_site_fract_y
_atom_site_fract_z
_atom_site_B_iso_or_equiv
_atom_site_occupancy
_atom_site_attached_hydrogens
Na1 Na1+ 3 a 0 0 0 0.067(9) 1. 0
Na2 Na1+ 3 b 0 0 0.5 0.019(5) 1. 0
Na3 Na1+ 18 f 0.65 0 0.25 0.03 0.056(6) 0
Sn1 Sn4+ 6 c 0 0 0.1479(1) 0.004(1) 1. 0
Al1 Al3+ 6 c 0 0 0.6451(2) 0.002(1) 0.148(9) 0
Sn2 Sn4+ 6 c 0 0 0.6451(2) 0.002(1) 0.852(9) 0
P1 P5+ 18 f 0.2910(5) 0.0024(9) 0.2516(4) 0.0087(8) 1. 0
O1 O2- 18 f 0.194(1) -0.0128(7) 0.1934(3) 0.025(2) 1. 0
O2 O2- 18 f 0.0466(8) 0.830(1) 0.6957(3) 0.021(2) 1. 0
O3 O2- 18 f 0.1756(6) 0.1826(6) 0.0869(2) 0.002(1) 1. 0
O4 O2- 18 f 0.8504(6) 0.7946(7) 0.5903(2) 0.010(1) 1. 0
#End of TTdata_154070-ICSD