
#(C) 2019 by FIZ Karlsruhe - Leibniz Institute for Information Infrastructure.  All rights reserved.
data_154075-ICSD
_database_code_ICSD 154075
_audit_creation_date 2007-04-01
_chemical_name_systematic 'Sodium cerium diphosphate(V)'
_chemical_formula_structural 'Na Ce (P2 O7)'
_chemical_formula_sum 'Ce1 Na1 O7 P2'
_chemical_name_structure_type Sr2P2O7
_exptl_crystal_density_diffrn 3.88
_publ_section_title 'Structure and ionic conductivity of Na Ce P2 O7'
loop_
_citation_id
_citation_journal_full
_citation_year
_citation_journal_volume
_citation_page_first
_citation_page_last
_citation_journal_id_ASTM
primary 'Solid State Ionics' 2005 176 1949 1953 SSIOD3
loop_
_publ_author_name
'Horchani-Naifer, K.'
'Ferid, M.'
_cell_length_a 8.6224(4)
_cell_length_b 5.2823(3)
_cell_length_c 12.6796(6)
_cell_angle_alpha 90.
_cell_angle_beta 90.
_cell_angle_gamma 90.
_cell_volume 577.51
_cell_formula_units_Z 4
_symmetry_space_group_name_H-M 'P n m a'
_symmetry_Int_Tables_number 62
_refine_ls_R_factor_all 0.0323
loop_
_symmetry_equiv_pos_site_id
_symmetry_equiv_pos_as_xyz
1 'x+1/2, y, -z+1/2'
2 'x, -y+1/2, z'
3 '-x+1/2, y+1/2, z+1/2'
4 '-x, -y, -z'
5 '-x+1/2, -y, z+1/2'
6 '-x, y+1/2, -z'
7 'x+1/2, -y+1/2, -z+1/2'
8 'x, y, z'
loop_
_atom_type_symbol
_atom_type_oxidation_number
Ce3+ 3
Na1+ 1
P5+ 5
O2- -2
loop_
_atom_site_label
_atom_site_type_symbol
_atom_site_symmetry_multiplicity
_atom_site_Wyckoff_symbol
_atom_site_fract_x
_atom_site_fract_y
_atom_site_fract_z
_atom_site_B_iso_or_equiv
_atom_site_occupancy
_atom_site_attached_hydrogens
Ce1 Ce3+ 4 c -0.18604(4) 0.75 0.76429(3) 0.0152(2) 1. 0
Na1 Na1+ 4 c -0.3807(3) 0.25 0.5788(2) 0.0280(7) 1. 0
P1 P5+ 4 c 0.0137(2) 0.25 0.6817(1) 0.0157(4) 1. 0
P2 P5+ 4 c -0.2366(2) 0.25 0.9669(1) 0.0160(4) 1. 0
O1 O2- 4 c -0.1607(5) 0.25 0.6766(5) 0.027(1) 1. 0
O2 O2- 8 d 0.0687(3) 0.4912(8) 0.7354(2) 0.0177(8) 1. 0
O3 O2- 4 c 0.0827(5) 0.25 0.5644(4) 0.019(1) 1. 0
O4 O2- 4 c -0.2647(6) 0.75 0.5847(4) 0.024(1) 1. 0
O5 O2- 8 d -0.1632(4) 0.0147(8) 0.9209(3) 0.0247(8) 1. 0
loop_
_atom_site_aniso_label
_atom_site_aniso_type_symbol
_atom_site_aniso_U_11
_atom_site_aniso_U_22
_atom_site_aniso_U_33
_atom_site_aniso_U_12
_atom_site_aniso_U_13
_atom_site_aniso_U_23
Ce1 Ce3+ 0.0135(3) 0.0174(3) 0.0147(3) 0. -0.0001(1) 0.
Na1 Na1+ 0.022(1) 0.038(2) 0.023(1) 0. -0.002(1) 0.
P1 P5+ 0.0139(7) 0.0170(9) 0.0162(8) 0. -0.0002(6) 0.
P2 P5+ 0.0166(7) 0.0179(9) 0.0137(9) 0. -0.0003(7) 0.
O1 O2- 0.013(2) 0.045(4) 0.022(3) 0. -0.001(2) 0.
O2 O2- 0.016(2) 0.017(2) 0.020(2) 0.001(1) 0.002(1) -0.001(1)
O3 O2- 0.018(2) 0.022(3) 0.016(2) 0. 0.002(1) 0.
O4 O2- 0.025(2) 0.032(3) 0.015(2) 0. 0.003(2) 0.
O5 O2- 0.026(2) 0.027(2) 0.020(2) 0.009(1) -0.004(1) -0.006(2)
#End of TTdata_154075-ICSD