
#(C) 2019 by FIZ Karlsruhe - Leibniz Institute for Information Infrastructure.  All rights reserved.
data_154045-ICSD
_database_code_ICSD 154045
_audit_creation_date 2007-04-01
_chemical_name_systematic
'Sodium bismuth barium trioxotitanate (0.48/0.47/0.05/1)'
_chemical_formula_structural '(Na0.475 Bi0.475 Ba0.05) (Ti O3)'
_chemical_formula_sum 'Ba0.05 Bi0.475 Na0.475 O3 Ti1'
_chemical_name_structure_type LiNbO3
_exptl_crystal_density_diffrn 5.99
_publ_section_title

;
Structure and dielectric properties of (Na0.50 Bi0.50)1-x Bax Ti O3: 0 <= x <=
0.10
;
loop_
_citation_id
_citation_journal_full
_citation_year
_citation_journal_volume
_citation_page_first
_citation_page_last
_citation_journal_id_ASTM
primary 'Solid State Communications' 2005 135 394 399 SSCOA4
loop_
_publ_author_name
'Ranjan, R.'
'Dviwedi, A.'
_cell_length_a 5.5015(1)
_cell_length_b 5.5015(1)
_cell_length_c 13.5111(8)
_cell_angle_alpha 90.
_cell_angle_beta 90.
_cell_angle_gamma 120.
_cell_volume 354.15
_cell_formula_units_Z 6
_symmetry_space_group_name_H-M 'R 3 c H'
_symmetry_Int_Tables_number 161
_refine_ls_R_factor_all 0.0417
loop_
_symmetry_equiv_pos_site_id
_symmetry_equiv_pos_as_xyz
1 '-x+y, y, z+1/2'
2 'x, x-y, z+1/2'
3 '-y, -x, z+1/2'
4 '-x+y, -x, z'
5 '-y, x-y, z'
6 'x, y, z'
7 '-x+y+2/3, y+1/3, z+5/6'
8 'x+2/3, x-y+1/3, z+5/6'
9 '-y+2/3, -x+1/3, z+5/6'
10 '-x+y+2/3, -x+1/3, z+1/3'
11 '-y+2/3, x-y+1/3, z+1/3'
12 'x+2/3, y+1/3, z+1/3'
13 '-x+y+1/3, y+2/3, z+1/6'
14 'x+1/3, x-y+2/3, z+1/6'
15 '-y+1/3, -x+2/3, z+1/6'
16 '-x+y+1/3, -x+2/3, z+2/3'
17 '-y+1/3, x-y+2/3, z+2/3'
18 'x+1/3, y+2/3, z+2/3'
loop_
_atom_type_symbol
_atom_type_oxidation_number
Na1+ 1
Bi3+ 3
Ba2+ 2
Ti4+ 4
O2- -2
loop_
_atom_site_label
_atom_site_type_symbol
_atom_site_symmetry_multiplicity
_atom_site_Wyckoff_symbol
_atom_site_fract_x
_atom_site_fract_y
_atom_site_fract_z
_atom_site_B_iso_or_equiv
_atom_site_occupancy
_atom_site_attached_hydrogens
Na1 Na1+ 6 a 0 0 0.271(1) 3.2(2) 0.475 0
Bi1 Bi3+ 6 a 0 0 0.271(1) 3.2(2) 0.475 0
Ba1 Ba2+ 6 a 0 0 0.271(1) 3.2(2) 0.05 0
Ti1 Ti4+ 6 a 0 0 0.012(2) 1.5(3) 1. 0
O1 O2- 18 b 0.139(2) 0.333(1) 0.0833 1.5(4) 1. 0
#End of TTdata_154045-ICSD