
#(C) 2019 by FIZ Karlsruhe - Leibniz Institute for Information Infrastructure.  All rights reserved.
data_154189-ICSD
_database_code_ICSD 154189
_audit_creation_date 2007-04-01
_chemical_name_systematic 'Sodium manganese oxide (0.95/7.05/12)'
_chemical_formula_structural '(Na0.95 Mn0.05) (Mn7 O12)'
_chemical_formula_sum 'Mn7.05 Na0.95 O12'
_chemical_name_structure_type NaMn7O12
_exptl_crystal_density_diffrn 5.11
_publ_section_title
'P-T phase diagram and single crystal structure refinement of Na Mn7 O12'
loop_
_citation_id
_citation_journal_full
_citation_year
_citation_journal_volume
_citation_page_first
_citation_page_last
_citation_journal_id_ASTM
primary 'Solid State Sciences' 2005 7 746 752 SSSCFJ
loop_
_publ_author_name
'Gilioli, E.'
'Calestani, G.'
'Licci, F.'
'Gauzzi, A.'
'Bolzoni, F.'
'Prodi, A.'
'Marezio, M.'
_cell_length_a 7.312(2)
_cell_length_b 7.312(2)
_cell_length_c 7.312(2)
_cell_angle_alpha 90.
_cell_angle_beta 90.
_cell_angle_gamma 90.
_cell_volume 390.94
_cell_formula_units_Z 2
_symmetry_space_group_name_H-M 'I m -3'
_symmetry_Int_Tables_number 204
_refine_ls_R_factor_all 0.0464
loop_
_symmetry_equiv_pos_site_id
_symmetry_equiv_pos_as_xyz
1 '-z, x, y'
2 'z, x, -y'
3 'z, -x, y'
4 '-z, -x, -y'
5 'y, -z, x'
6 '-y, z, x'
7 'y, z, -x'
8 '-y, -z, -x'
9 'x, y, -z'
10 'x, -y, z'
11 '-x, y, z'
12 '-x, -y, -z'
13 'z, -x, -y'
14 '-z, -x, y'
15 '-z, x, -y'
16 'z, x, y'
17 '-y, z, -x'
18 'y, -z, -x'
19 '-y, -z, x'
20 'y, z, x'
21 '-x, -y, z'
22 '-x, y, -z'
23 'x, -y, -z'
24 'x, y, z'
25 '-z+1/2, x+1/2, y+1/2'
26 'z+1/2, x+1/2, -y+1/2'
27 'z+1/2, -x+1/2, y+1/2'
28 '-z+1/2, -x+1/2, -y+1/2'
29 'y+1/2, -z+1/2, x+1/2'
30 '-y+1/2, z+1/2, x+1/2'
31 'y+1/2, z+1/2, -x+1/2'
32 '-y+1/2, -z+1/2, -x+1/2'
33 'x+1/2, y+1/2, -z+1/2'
34 'x+1/2, -y+1/2, z+1/2'
35 '-x+1/2, y+1/2, z+1/2'
36 '-x+1/2, -y+1/2, -z+1/2'
37 'z+1/2, -x+1/2, -y+1/2'
38 '-z+1/2, -x+1/2, y+1/2'
39 '-z+1/2, x+1/2, -y+1/2'
40 'z+1/2, x+1/2, y+1/2'
41 '-y+1/2, z+1/2, -x+1/2'
42 'y+1/2, -z+1/2, -x+1/2'
43 '-y+1/2, -z+1/2, x+1/2'
44 'y+1/2, z+1/2, x+1/2'
45 '-x+1/2, -y+1/2, z+1/2'
46 '-x+1/2, y+1/2, -z+1/2'
47 'x+1/2, -y+1/2, -z+1/2'
48 'x+1/2, y+1/2, z+1/2'
loop_
_atom_type_symbol
_atom_type_oxidation_number
Mn3+ 3.27
O2- -2
Na1+ 1
Mn3+ 3.27
loop_
_atom_site_label
_atom_site_type_symbol
_atom_site_symmetry_multiplicity
_atom_site_Wyckoff_symbol
_atom_site_fract_x
_atom_site_fract_y
_atom_site_fract_z
_atom_site_B_iso_or_equiv
_atom_site_occupancy
_atom_site_attached_hydrogens
Mn1 Mn3+ 8 c 0.25 0.25 0.25 . 1. 0
Mn2 Mn3+ 6 b 0 0.5 0.5 . 1. 0
O1 O2- 24 g 0.8128(2) 0.3171(2) 0.5 . 1. 0
Na1 Na1+ 2 a 0 0 0 . 0.952(9) 0
Mn3 Mn3+ 2 a 0 0 0 . 0.048(9) 0
loop_
_atom_site_aniso_label
_atom_site_aniso_type_symbol
_atom_site_aniso_U_11
_atom_site_aniso_U_22
_atom_site_aniso_U_33
_atom_site_aniso_U_12
_atom_site_aniso_U_13
_atom_site_aniso_U_23
Mn1 Mn3+ 0.0024(2) 0.0024(2) 0.0024(2) 0.0003(1) 0.0003(1) 0.0003(1)
Mn2 Mn3+ 0.0028(4) 0.0026(4) 0.0115(4) 0. 0. 0.
O1 O2- 0.0131(9) 0.0131(9) 0.0125(9) -0.0044(8) 0. 0.
Na1 Na1+ 0.0034(11) 0.0034(11) 0.0034(11) 0. 0. 0.
Mn3 Mn3+ 0.0034(11) 0.0034(11) 0.0034(11) 0. 0. 0.
#End of TTdata_154189-ICSD