
#(C) 2019 by FIZ Karlsruhe - Leibniz Institute for Information Infrastructure.  All rights reserved.
data_154126-ICSD
_database_code_ICSD 154126
_audit_creation_date 2007-04-01
_chemical_name_systematic 'Disodium dicupropentasilicate trihydrate'
_chemical_formula_structural 'Na2 (Cu2 Si5 O13) (H2 O)3'
_chemical_formula_sum 'H6 Cu2 Na2 O16 Si5'
_exptl_crystal_density_diffrn 2.79
_cell_measurement_temperature 243.
_publ_section_title

;
Hydrothermal synthesis and structures of the open-framework copper silicates
Na2 (Cu2 Si4 O11) (H2 O)2 (CuSH-2Na), Na2 (Cu Si3 O8) (CuSH-3Na), Cs2 Na4 (Cu2
Si12 O27 (O H)2) (O H)2 (CuSH-4NaCs) and Na2 (Cu2 Si5 O13) (H2 O)3 (CuSH-6Na)
;
loop_
_citation_id
_citation_journal_full
_citation_year
_citation_journal_volume
_citation_page_first
_citation_page_last
_citation_journal_id_ASTM
primary 'Solid State Sciences' 2005 7 1415 1422 SSSCFJ
loop_
_publ_author_name
'Wang Xiqu'
'Liu Lumei'
'Wang Lingbao'
'Jacobson, A.J.'
_cell_length_a 11.161(1)
_cell_length_b 5.2135(6)
_cell_length_c 11.813(1)
_cell_angle_alpha 90.
_cell_angle_beta 95.3(1)
_cell_angle_gamma 90.
_cell_volume 684.43
_cell_formula_units_Z 2
_symmetry_space_group_name_H-M 'P 1 2/n 1'
_symmetry_Int_Tables_number 13
_refine_ls_R_factor_all 0.0247
loop_
_symmetry_equiv_pos_site_id
_symmetry_equiv_pos_as_xyz
1 'x+1/2, -y, z+1/2'
2 '-x+1/2, y, -z+1/2'
3 '-x, -y, -z'
4 'x, y, z'
loop_
_atom_type_symbol
_atom_type_oxidation_number
Na1+ 1
Cu2+ 2
Si4+ 4
O2- -2
H1+ 1
loop_
_atom_site_label
_atom_site_type_symbol
_atom_site_symmetry_multiplicity
_atom_site_Wyckoff_symbol
_atom_site_fract_x
_atom_site_fract_y
_atom_site_fract_z
_atom_site_B_iso_or_equiv
_atom_site_occupancy
_atom_site_attached_hydrogens
Na1 Na1+ 4 g 0.7351(1) -0.2771(2) 0.5643(1) 0.018(1) 1. 0
Cu1 Cu2+ 4 g 0.5736(1) 0.2424(1) 0.5195(1) 0.008(1) 1. 0
Si1 Si4+ 4 g 0.6163(1) -0.4542(1) 0.2896(1) 0.006(1) 1. 0
Si2 Si4+ 4 g 0.5201(1) -0.0558(1) 0.7330(1) 0.006(1) 1. 0
Si3 Si4+ 2 e 0.75 -0.8027(2) 0.75 0.007(1) 1. 0
O1 O2- 4 g 0.6081(2) 0.5294(4) 0.4228(2) 0.010(1) 1. 0
O2 O2- 4 g 0.4653(2) 0.0748(3) 0.4006(2) 0.008(1) 1. 0
O3 O2- 2 f 0.75 -0.4868(5) 0.25 0.013(1) 1. 0
O4 O2- 4 g 0.6834(2) 0.3556(4) 0.6471(2) 0.010(1) 1. 0
O5 O2- 4 g 0.0355(2) -0.3205(4) 0.7205(2) 0.008(1) 1. 0
O6 O2- 4 g 0.8482(2) -0.0057(4) 0.6990(2) 0.009(1) 1. 0
O7 O2- 4 g 0.5689(2) -0.1773(4) 0.2365(2) 0.009(1) 1. 0
O8 O2- 4 g 0.7825(2) 0.0328(5) 0.4372(2) 0.030(1) 1. 0
O9 O2- 4 g 0.9194(4) -0.5124(11) 0.5098(4) 0.028(1) 0.5 0
H1 H1+ 4 g 0.818(3) -0.013(8) 0.381(2) 0.045 1. 0
H2 H1+ 4 g 0.823(3) 0.154(6) 0.468(3) 0.045 1. 0
H3 H1+ 4 g 0.955(5) -0.514(17) 0.575(2) 0.041 0.5 0
H4 H1+ 4 g 0.972(4) -0.534(19) 0.465(4) 0.041 0.5 0
#End of TTdata_154126-ICSD