
#(C) 2019 by FIZ Karlsruhe - Leibniz Institute for Information Infrastructure.  All rights reserved.
data_154114-ICSD
_database_code_ICSD 154114
_audit_creation_date 2007-04-01
_chemical_name_systematic 'Hexasodium phyllo-octasilicate'
_chemical_formula_structural 'Na6 (Si8 O19)'
_chemical_formula_sum 'Na6 O19 Si8'
_exptl_crystal_density_diffrn 2.5
_publ_section_title

;
Structuraal studies on Na6 Si8 O19 - a monophyllosilicate with a new type of
layered silicate anion
;
loop_
_citation_id
_citation_journal_full
_citation_year
_citation_journal_volume
_citation_page_first
_citation_page_last
_citation_journal_id_ASTM
primary 'Solid State Sciences' 2005 7 1390 1396 SSSCFJ
loop_
_publ_author_name
'Krueger, H.'
'Kahlenberg, V.'
'Kaindl, R.'
_cell_length_a 4.9038(5)
_cell_length_b 23.481(3)
_cell_length_c 15.392(2)
_cell_angle_alpha 90.
_cell_angle_beta 90.14(1)
_cell_angle_gamma 90.
_cell_volume 1772.32
_cell_formula_units_Z 4
_symmetry_space_group_name_H-M 'P 1 21/c 1'
_symmetry_Int_Tables_number 14
_refine_ls_R_factor_all 0.064
loop_
_symmetry_equiv_pos_site_id
_symmetry_equiv_pos_as_xyz
1 'x, -y+1/2, z+1/2'
2 '-x, -y, -z'
3 '-x, y+1/2, -z+1/2'
4 'x, y, z'
loop_
_atom_type_symbol
_atom_type_oxidation_number
Si4+ 4
Na1+ 1
O2- -2
loop_
_atom_site_label
_atom_site_type_symbol
_atom_site_symmetry_multiplicity
_atom_site_Wyckoff_symbol
_atom_site_fract_x
_atom_site_fract_y
_atom_site_fract_z
_atom_site_B_iso_or_equiv
_atom_site_occupancy
_atom_site_attached_hydrogens
Si1 Si4+ 4 e 0.2017(4) 0.1941(1) 0.6383(1) 0.016(1) 1. 0
Si2 Si4+ 4 e 0.8047(4) 0.1356(1) 0.9113(1) 0.016(1) 1. 0
Si3 Si4+ 4 e 0.7909(4) 0.9933(1) 0.6437(1) 0.016(1) 1. 0
Si4 Si4+ 4 e 0.1973(4) 0.8414(1) 0.6773(1) 0.016(1) 1. 0
Si5 Si4+ 4 e 0.3004(4) 0.0661(1) 0.6740(1) 0.015(1) 1. 0
Si6 Si4+ 4 e 0.3025(4) 0.0618(1) 0.8796(1) 0.015(1) 1. 0
Si7 Si4+ 4 e 0.7039(4) 0.2161(1) 0.7522(1) 0.015(1) 1. 0
Si8 Si4+ 4 e 0.6975(4) 0.8949(1) 0.7661(1) 0.016(1) 1. 0
Na1 Na1+ 4 e 0.7351(6) 0.8612(1) 0.5428(2) 0.024(1) 1. 0
Na2 Na1+ 4 e 0.2641(6) 0.1802(1) 0.0320(2) 0.023(1) 1. 0
Na3 Na1+ 4 e 0.2376(6) 0.9003(1) 0.8949(2) 0.024(1) 1. 0
Na4 Na1+ 4 e 0.2597(6) 0.9497(1) 0.5274(2) 0.024(1) 1. 0
Na5 Na1+ 4 e 0.7396(6) 0.2706(1) 0.0074(2) 0.026(1) 1. 0
Na6 Na1+ 4 e 0.7655(6) 0.9832(1) 0.9271(2) 0.024(1) 1. 0
O1 O2- 4 e 0.6097(10) 0.0523(2) 0.6448(3) 0.021(1) 1. 0
O2 O2- 4 e 0.8905(9) 0.2114(2) 0.6661(3) 0.021(1) 1. 0
O3 O2- 4 e 0.1074(10) 0.0145(2) 0.6402(3) 0.022(1) 1. 0
O4 O2- 4 e 0.7334(10) 0.9579(2) 0.5588(3) 0.022(1) 1. 0
O5 O2- 4 e 0.2712(11) 0.0710(2) 0.7762(3) 0.025(1) 1. 0
O6 O2- 4 e 0.2126(10) 0.1246(2) 0.6273(3) 0.022(1) 1. 0
O7 O2- 4 e 0.2714(10) 0.2782(2) 0.0476(3) 0.020(1) 1. 0
O8 O2- 4 e 0.1160(9) 0.1120(2) 0.9238(3) 0.019(1) 1. 0
O9 O2- 4 e 0.8808(10) 0.8545(2) 0.7021(3) 0.022(1) 1. 0
O10 O2- 4 e 0.3921(10) 0.2117(2) 0.7202(3) 0.024(1) 1. 0
O11 O2- 4 e 0.7388(10) 0.9608(2) 0.7350(3) 0.023(1) 1. 0
O12 O2- 4 e 0.3784(10) 0.8780(2) 0.7472(3) 0.024(1) 1. 0
O13 O2- 4 e 0.7574(10) 0.8909(2) 0.8672(3) 0.021(1) 1. 0
O14 O2- 4 e 0.6170(9) 0.0774(2) 0.9067(3) 0.021(1) 1. 0
O15 O2- 4 e 0.7363(10) 0.1738(2) 0.9928(3) 0.021(1) 1. 0
O16 O2- 4 e 0.2511(10) 0.8548(2) 0.5787(3) 0.020(1) 1. 0
O17 O2- 4 e 0.2387(10) 0.0003(2) 0.9162(3) 0.021(1) 1. 0
O18 O2- 4 e 0.7768(11) 0.1650(2) 0.8167(3) 0.026(1) 1. 0
O19 O2- 4 e 0.2504(11) 0.7743(2) 0.6968(3) 0.028(1) 1. 0
loop_
_atom_site_aniso_label
_atom_site_aniso_type_symbol
_atom_site_aniso_U_11
_atom_site_aniso_U_22
_atom_site_aniso_U_33
_atom_site_aniso_U_12
_atom_site_aniso_U_13
_atom_site_aniso_U_23
Si1 Si4+ 0.015(1) 0.012(1) 0.022(1) 0.001(1) 0.000(1) 0.001(1)
Si2 Si4+ 0.016(1) 0.012(1) 0.021(1) 0.001(1) -0.001(1) 0.000(1)
Si3 Si4+ 0.014(1) 0.010(1) 0.022(1) 0.001(1) 0.000(1) 0.001(1)
Si4 Si4+ 0.016(1) 0.010(1) 0.021(1) 0.000(1) 0.000(1) 0.000(1)
Si5 Si4+ 0.015(1) 0.010(1) 0.021(1) 0.001(1) 0.001(1) 0.001(1)
Si6 Si4+ 0.015(1) 0.011(1) 0.020(1) -0.001(1) -0.001(1) 0.000(1)
Si7 Si4+ 0.014(1) 0.010(1) 0.022(1) 0.001(1) 0.000(1) -0.001(1)
Si8 Si4+ 0.015(1) 0.013(1) 0.019(1) 0.000(1) 0.000(1) -0.001(1)
Na1 Na1+ 0.024(1) 0.020(1) 0.028(2) 0.001(1) -0.002(1) -0.002(1)
Na2 Na1+ 0.024(1) 0.014(1) 0.030(1) 0.000(1) -0.003(1) 0.000(1)
Na3 Na1+ 0.022(1) 0.020(1) 0.031(2) 0.001(1) 0.000(1) 0.000(1)
Na4 Na1+ 0.024(1) 0.020(1) 0.028(1) 0.000(1) -0.001(1) 0.002(1)
Na5 Na1+ 0.026(1) 0.015(1) 0.036(2) -0.001(1) 0.002(1) -0.001(1)
Na6 Na1+ 0.020(1) 0.015(1) 0.035(2) 0.001(1) -0.002(1) -0.001(1)
O1 O2- 0.017(2) 0.016(2) 0.031(3) -0.001(2) 0.001(2) 0.002(2)
O2 O2- 0.015(2) 0.024(2) 0.023(2) -0.001(2) -0.001(2) 0.003(2)
O3 O2- 0.016(2) 0.017(2) 0.032(3) -0.001(2) 0.000(2) 0.000(2)
O4 O2- 0.022(2) 0.018(2) 0.026(2) -0.003(2) 0.003(2) -0.004(2)
O5 O2- 0.030(3) 0.024(3) 0.022(2) -0.001(2) 0.002(2) -0.002(2)
O6 O2- 0.025(2) 0.013(2) 0.026(2) 0.002(2) -0.003(2) 0.003(2)
O7 O2- 0.022(2) 0.016(2) 0.022(2) 0.001(2) 0.004(2) -0.001(2)
O8 O2- 0.016(2) 0.016(2) 0.026(2) 0.000(2) 0.001(2) -0.005(2)
O9 O2- 0.018(2) 0.016(2) 0.031(3) -0.002(2) -0.001(2) -0.004(2)
O10 O2- 0.017(2) 0.028(3) 0.025(2) -0.002(2) 0.000(2) -0.006(2)
O11 O2- 0.023(3) 0.019(2) 0.027(3) 0.000(2) 0.003(2) 0.003(2)
O12 O2- 0.016(2) 0.033(3) 0.024(2) -0.002(2) 0.001(2) -0.007(2)
O13 O2- 0.021(2) 0.016(2) 0.026(2) -0.001(2) -0.002(2) -0.001(2)
O14 O2- 0.017(2) 0.015(2) 0.030(3) 0.000(2) -0.002(2) 0.001(2)
O15 O2- 0.022(2) 0.016(2) 0.025(2) 0.003(2) 0.003(2) -0.003(2)
O16 O2- 0.023(2) 0.011(2) 0.026(2) 0.004(2) 0.000(2) -0.002(2)
O17 O2- 0.021(2) 0.012(2) 0.030(3) -0.003(2) -0.002(2) 0.000(2)
O18 O2- 0.028(3) 0.023(3) 0.027(3) 0.002(2) -0.001(2) 0.004(2)
O19 O2- 0.028(3) 0.021(3) 0.035(3) 0.002(2) -0.001(2) 0.006(2)
#End of TTdata_154114-ICSD