
#(C) 2019 by FIZ Karlsruhe - Leibniz Institute for Information Infrastructure.  All rights reserved.
data_154123-ICSD
_database_code_ICSD 154123
_audit_creation_date 2007-04-01
_audit_update_record 2008-02-01
_chemical_name_systematic 'Disodium dicuprotetrasilicate dihydrate'
_chemical_formula_structural 'Na2 (Cu2 Si4 O11) (H2 O)2'
_chemical_formula_sum 'H4 Cu2 Na2 O13 Si4'
_exptl_crystal_density_diffrn 3.04
_publ_section_title

;
Hydrothermal synthesis and structures of the open-framework copper silicates
Na2 (Cu2 Si4 O11) (H2 O)2 (CuSH-2Na), Na2 (Cu Si3 O8) (CuSH-3Na), Cs2 Na4 (Cu2
Si12 O27 (O H)2) (O H)2 (CuSH-4NaCs) and Na2 (Cu2 Si5 O13) (H2 O)3 (CuSH-6Na)
;
loop_
_citation_id
_citation_journal_full
_citation_year
_citation_journal_volume
_citation_page_first
_citation_page_last
_citation_journal_id_ASTM
primary 'Solid State Sciences' 2005 7 1415 1422 SSSCFJ
loop_
_publ_author_name
'Wang Xiqu'
'Liu Lumei'
'Wang Lingbao'
'Jacobson, A.J.'
_cell_length_a 5.2254(7)
_cell_length_b 6.4126(8)
_cell_length_c 8.516(1)
_cell_angle_alpha 101.1(1)
_cell_angle_beta 94.3(1)
_cell_angle_gamma 102.5(1)
_cell_volume 271.35
_cell_formula_units_Z 1
_symmetry_space_group_name_H-M 'P -1'
_symmetry_Int_Tables_number 2
_refine_ls_R_factor_all 0.0334
loop_
_symmetry_equiv_pos_site_id
_symmetry_equiv_pos_as_xyz
1 '-x, -y, -z'
2 'x, y, z'
loop_
_atom_type_symbol
_atom_type_oxidation_number
Na1+ 1
Cu2+ 2
Si4+ 4
O2- -2
H1+ 1
loop_
_atom_site_label
_atom_site_type_symbol
_atom_site_symmetry_multiplicity
_atom_site_Wyckoff_symbol
_atom_site_fract_x
_atom_site_fract_y
_atom_site_fract_z
_atom_site_B_iso_or_equiv
_atom_site_occupancy
_atom_site_attached_hydrogens
Na1 Na1+ 2 i 0.3614(3) 0.3640(3) 0.2024(2) 0.016(1) 1. 0
Cu1 Cu2+ 2 i -0.2044(1) 0.1128(1) 0.0683(1) 0.009(1) 1. 0
Si1 Si4+ 2 i 0.5370(2) 0.1199(2) -0.3119(1) 0.008(1) 1. 0
Si2 Si4+ 2 i 0.1170(2) 0.3376(2) -0.1686(1) 0.007(1) 1. 0
O1 O2- 2 i 0.1088(6) 0.1725(5) -0.0454(3) 0.009(1) 1. 0
O2 O2- 2 i -0.4970(6) 0.0420(5) 0.1915(4) 0.013(1) 1. 0
O3 O2- 1 f 0.5 0 0.5 0.016(1) 1. 0
O4 O2- 2 i 0.2307(6) -0.4120(5) -0.0916(4) 0.012(1) 1. 0
O5 O2- 2 i -0.3213(6) -0.2720(5) 0.3009(3) 0.010(1) 1. 0
O6 O2- 2 i 0.8264(6) 0.2903(5) -0.2753(4) 0.011(1) 1. 0
O7 O2- 2 i 0.0760(8) 0.2688(7) 0.3890(4) 0.032(1) 1. 0
H1 H1+ 2 i 0.129(10) 0.231(9) 0.471(4) 0.032(17) 1. 0
H2 H1+ 2 i -0.054(9) 0.320(11) 0.406(7) 0.080(30) 1. 0
#End of TTdata_154123-ICSD