
#(C) 2019 by FIZ Karlsruhe - Leibniz Institute for Information Infrastructure.  All rights reserved.
data_154338-ICSD
_database_code_ICSD 154338
_audit_creation_date 2007-04-01
_audit_update_record 2013-02-01
_chemical_name_systematic 'Sodium bismuth titanate (0.5/0.5/1) - HP'
_chemical_formula_structural '(Na0.5 Bi0.5) (Ti O3)'
_chemical_formula_sum 'Bi0.5 Na0.5 O3 Ti1'
_chemical_name_structure_type Perovskite-GdFeO3
_exptl_crystal_density_diffrn 6.48
_cell_measurement_pressure 9700000.
_publ_section_title
'The high-pressure structural phase transitions of sodium bismuth titanate'
loop_
_citation_id
_citation_journal_full
_citation_year
_citation_journal_volume
_citation_page_first
_citation_page_last
_citation_journal_id_ASTM
primary 'Zeitschrift fuer Kristallographie' 2005 220 717 725 ZEKRDZ
loop_
_publ_author_name
'Thomas, P.A.'
'Kreisel, J.'
'Glazer, A.M.'
'Bouvier, P.'
'Jiang Quangzhong'
'Smith, R.'
_cell_length_a 5.365(1)
_cell_length_b 7.581(1)
_cell_length_c 5.336(1)
_cell_angle_alpha 90.
_cell_angle_beta 90.
_cell_angle_gamma 90.
_cell_volume 217.03
_cell_formula_units_Z 4
_symmetry_space_group_name_H-M 'P n m a'
_symmetry_Int_Tables_number 62
_refine_ls_R_factor_all 0.042
loop_
_symmetry_equiv_pos_site_id
_symmetry_equiv_pos_as_xyz
1 'x+1/2, y, -z+1/2'
2 'x, -y+1/2, z'
3 '-x+1/2, y+1/2, z+1/2'
4 '-x, -y, -z'
5 '-x+1/2, -y, z+1/2'
6 '-x, y+1/2, -z'
7 'x+1/2, -y+1/2, -z+1/2'
8 'x, y, z'
loop_
_atom_type_symbol
_atom_type_oxidation_number
Bi3+ 3
Na1+ 1
Ti4+ 4
O2- -2
loop_
_atom_site_label
_atom_site_type_symbol
_atom_site_symmetry_multiplicity
_atom_site_Wyckoff_symbol
_atom_site_fract_x
_atom_site_fract_y
_atom_site_fract_z
_atom_site_B_iso_or_equiv
_atom_site_occupancy
_atom_site_attached_hydrogens
Bi1 Bi3+ 4 c 0.028(1) 0.25 0.008(2) 0.018(1) 0.5 0
Na1 Na1+ 4 c 0.028(1) 0.25 0.008(2) 0.018(1) 0.5 0
Ti1 Ti4+ 4 b 0.5 0 0 0.015(1) 1. 0
O1 O2- 4 c -0.009(2) 0.25 0.424(4) 0.001(1) 1. 0
O2 O2- 8 d 0.7173(8) -0.0353(5) 0.2860(8) 0.0060(6) 1. 0
#End of TTdata_154338-ICSD