
#(C) 2019 by FIZ Karlsruhe - Leibniz Institute for Information Infrastructure.  All rights reserved.
data_154707-ICSD
_database_code_ICSD 154707
_audit_creation_date 2007-04-01
_chemical_name_systematic 'Disodium terbium(IV) oxide'
_chemical_formula_structural 'Na2 Tb O3'
_chemical_formula_sum 'Na2 O3 Tb1'
_chemical_name_structure_type Li2SnO3
_exptl_crystal_density_diffrn 5.29
_publ_section_title

;
Crystal structures and magnetic properties of alkali-metal lanthanide oxides
A2 Ln O3 (A = Li, Na; Ln = Ce, Pr, Tb)
;
loop_
_citation_id
_citation_journal_full
_citation_year
_citation_journal_volume
_citation_page_first
_citation_page_last
_citation_journal_id_ASTM
primary 'Journal of Alloys and Compounds' 2006 418 155 160 JALCEU
loop_
_publ_author_name
'Hinatsu, Y.'
'Doi, Y.'
_cell_length_a 5.7793(3)
_cell_length_b 9.9913(5)
_cell_length_c 11.1616(6)
_cell_angle_alpha 90.
_cell_angle_beta 99.60(1)
_cell_angle_gamma 90.
_cell_volume 635.48
_cell_formula_units_Z 8
_symmetry_space_group_name_H-M 'C 1 2/c 1'
_symmetry_Int_Tables_number 15
_refine_ls_R_factor_all 0.0603
loop_
_symmetry_equiv_pos_site_id
_symmetry_equiv_pos_as_xyz
1 'x, -y, z+1/2'
2 '-x, -y, -z'
3 '-x, y, -z+1/2'
4 'x, y, z'
5 'x+1/2, -y+1/2, z+1/2'
6 '-x+1/2, -y+1/2, -z'
7 '-x+1/2, y+1/2, -z+1/2'
8 'x+1/2, y+1/2, z'
loop_
_atom_type_symbol
_atom_type_oxidation_number
Na1+ 1
Tb4+ 4
Na1+ 1
Tb4+ 4
O2- -2
loop_
_atom_site_label
_atom_site_type_symbol
_atom_site_symmetry_multiplicity
_atom_site_Wyckoff_symbol
_atom_site_fract_x
_atom_site_fract_y
_atom_site_fract_z
_atom_site_B_iso_or_equiv
_atom_site_occupancy
_atom_site_attached_hydrogens
Na1 Na1+ 4 d 0.25 0.25 0.5 0.30(3) 1. 0
Na2 Na1+ 8 f 0.260(4) 0.413(1) -0.001(2) 0.30(3) 1. 0
Na3 Na1+ 4 e 0 0.749(7) 0.25 0.30(3) 0.81(1) 0
Tb1 Tb4+ 4 e 0 0.749(7) 0.25 0.30(3) 0.19(1) 0
Na4 Na1+ 4 e 0 0.417(3) 0.25 0.30(3) 0.19(1) 0
Tb2 Tb4+ 4 e 0 0.417(3) 0.25 0.30(3) 0.81(1) 0
Tb3 Tb4+ 4 e 0 0.084(3) 0.25 0.30(3) 1. 0
O1 O2- 8 f 0.163(4) 0.571(4) 0.147(2) 1. 1. 0
O2 O2- 8 f 0.106(2) 0.243(4) 0.143(2) 1. 1. 0
O3 O2- 8 f 0.118(4) 0.934(4) 0.129(2) 1. 1. 0
#End of TTdata_154707-ICSD