
#(C) 2018 by FIZ Karlsruhe - Leibniz Institute for Information Infrastructure.  All rights reserved.
data_15515-ICSD
_database_code_ICSD 15515
_audit_creation_date 1981-12-31
_chemical_name_systematic 'Indium lithium vanadate (.6/1.2/1)'
_chemical_formula_structural 'In0.6 Li1.2 V O4'
_chemical_formula_sum 'In0.6 Li1.2 O4 V1'
_exptl_crystal_density_diffrn 3.97
_publ_section_title 'Structure cristalline du vanadate mixte In0.6 Li1.2 V O4'
loop_
_citation_id
_citation_journal_full
_citation_year
_citation_journal_volume
_citation_page_first
_citation_page_last
_citation_journal_id_ASTM
primary 'Journal of Solid State Chemistry' 1981 38 386 393 JSSCBI
loop_
_publ_author_name
'Touboul, M.'
'Toledano, P.'
_cell_length_a 5.763(1)
_cell_length_b 8.742(2)
_cell_length_c 6.385(3)
_cell_angle_alpha 90.
_cell_angle_beta 90.
_cell_angle_gamma 90.
_cell_volume 321.68
_cell_formula_units_Z 4
_symmetry_space_group_name_H-M 'C m c m'
_symmetry_Int_Tables_number 63
_refine_ls_R_factor_all 0.019
loop_
_symmetry_equiv_pos_site_id
_symmetry_equiv_pos_as_xyz
1 '-x, y, -z+1/2'
2 '-x, -y, z+1/2'
3 '-x, y, z'
4 '-x, -y, -z'
5 'x, -y, z+1/2'
6 'x, y, -z+1/2'
7 'x, -y, -z'
8 'x, y, z'
9 '-x+1/2, y+1/2, -z+1/2'
10 '-x+1/2, -y+1/2, z+1/2'
11 '-x+1/2, y+1/2, z'
12 '-x+1/2, -y+1/2, -z'
13 'x+1/2, -y+1/2, z+1/2'
14 'x+1/2, y+1/2, -z+1/2'
15 'x+1/2, -y+1/2, -z'
16 'x+1/2, y+1/2, z'
loop_
_atom_type_symbol
_atom_type_oxidation_number
In3+ 3
V5+ 5
O2- -2
Li1+ 1
loop_
_atom_site_label
_atom_site_type_symbol
_atom_site_symmetry_multiplicity
_atom_site_Wyckoff_symbol
_atom_site_fract_x
_atom_site_fract_y
_atom_site_fract_z
_atom_site_B_iso_or_equiv
_atom_site_occupancy
_atom_site_attached_hydrogens
In1 In3+ 4 a 0 0 0 . 0.6 0
V1 V5+ 4 c 0 0.35738(4) 0.25 . 1. 0
O1 O2- 8 g 0.2441(2) 0.4792(1) 0.25 . 1. 0
O2 O2- 8 f 0 0.2466(1) 0.0348(2) . 1. 0
Li1 Li1+ 4 a 0 0 0 . 0.27(1) 0
Li2 Li1+ 4 c 0.5 0.165(1) 0.25 . 0.93(1) 0
loop_
_atom_site_aniso_label
_atom_site_aniso_type_symbol
_atom_site_aniso_beta_11
_atom_site_aniso_beta_22
_atom_site_aniso_beta_33
_atom_site_aniso_beta_12
_atom_site_aniso_beta_13
_atom_site_aniso_beta_23
In1 In3+ 0.00390(5) 0.00162(2) 0.00420(4) 0 0 -.00003(2)
V1 V5+ 0.00375(6) 0.00165(3) 0.00358(5) 0 0 0
O1 O2- 0.0066(2) 0.0032(1) 0.0047(2) -.0014(1) 0 0
O2 O2- 0.0077(2) 0.0029(1) 0.0069(2) 0 0 -.0011(1)
Li1 Li1+ 0.0168(59) 0.0018(14) 0.0005(23) 0 0 -.0009(13)
Li2 Li1+ 0.0230(25) 0.0064(8) 0.0087(14) 0 0 0
#End of TTdata_15515-ICSD