
#(C) 2019 by FIZ Karlsruhe - Leibniz Institute for Information Infrastructure.  All rights reserved.
data_155589-ICSD
_database_code_ICSD 155589
_audit_creation_date 2007-08-01
_chemical_name_systematic 'Lead bismuth sodium phosphate(V) (4.81/1.6/3.59/6)'
_chemical_formula_structural '(Pb4.806 Na1.188) (Bi1.596 Na2.404) (P O4)6'
_chemical_formula_sum 'Bi1.596 Na3.592 O24 P6 Pb4.806'
_chemical_name_structure_type Er3Pb1.5(SiO4)3
_exptl_crystal_density_diffrn 5.7
_publ_section_title

;
Ionic conductivity and phase transition in Pb4.8 Bi1.6 Na3.6 (P O4)6, an
apatite-type compound
;
loop_
_citation_id
_citation_journal_full
_citation_year
_citation_journal_volume
_citation_page_first
_citation_page_last
_citation_journal_id_ASTM
primary 'Solid State Ionics' 2006 177 1413 1420 SSIOD3
loop_
_publ_author_name
'Hamdi, B.'
'El Feki, H.'
'Ben Salah, A.'
'Salles, P.'
'Baules, P.'
'Savariault, J.M.'
_cell_length_a 9.6545(11)
_cell_length_b 9.6545(11)
_cell_length_c 7.1457(5)
_cell_angle_alpha 90.
_cell_angle_beta 90.
_cell_angle_gamma 120.
_cell_volume 576.81
_cell_formula_units_Z 1
_symmetry_space_group_name_H-M 'P 63/m'
_symmetry_Int_Tables_number 176
_refine_ls_R_factor_all 0.034
loop_
_symmetry_equiv_pos_site_id
_symmetry_equiv_pos_as_xyz
1 '-x+y, -x, -z+1/2'
2 '-y, x-y, -z+1/2'
3 'x, y, -z+1/2'
4 'x-y, x, -z'
5 'y, -x+y, -z'
6 '-x, -y, -z'
7 'x-y, x, z+1/2'
8 'y, -x+y, z+1/2'
9 '-x, -y, z+1/2'
10 '-x+y, -x, z'
11 '-y, x-y, z'
12 'x, y, z'
loop_
_atom_type_symbol
_atom_type_oxidation_number
Pb2+ 2
Na1+ 1
Bi3+ 3
Na1+ 1
P5+ 5
O2- -2
loop_
_atom_site_label
_atom_site_type_symbol
_atom_site_symmetry_multiplicity
_atom_site_Wyckoff_symbol
_atom_site_fract_x
_atom_site_fract_y
_atom_site_fract_z
_atom_site_B_iso_or_equiv
_atom_site_occupancy
_atom_site_attached_hydrogens
Pb1 Pb2+ 6 h 0.75172(8) 0.00044(8) 0.25 0.0225(4) 0.801(3) 0
Na1 Na1+ 6 h 0.75172(8) 0.00044(8) 0.25 0.0225(4) 0.198(3) 0
Bi1 Bi3+ 4 f 0.3333 0.6667 0.5093(5) 0.0181(6) 0.399(2) 0
Na2 Na1+ 4 f 0.3333 0.6667 0.5093(5) 0.0181(6) 0.601(3) 0
P1 P5+ 6 h 0.6014(5) 0.6247(5) 0.25 0.0191(9) 1. 0
O1 O2- 6 h 0.6712(16) 0.5147(11) 0.25 0.028(3) 1. 0
O2 O2- 6 h 0.4178(14) 0.5236(15) 0.25 0.054(5) 1. 0
O3 O2- 12 i 0.6577(15) 0.7381(11) 0.4239(15) 0.044(3) 1. 0
loop_
_atom_site_aniso_label
_atom_site_aniso_type_symbol
_atom_site_aniso_U_11
_atom_site_aniso_U_22
_atom_site_aniso_U_33
_atom_site_aniso_U_12
_atom_site_aniso_U_13
_atom_site_aniso_U_23
Pb1 Pb2+ 0.0187(5) 0.0156(5) 0.0284(6) 0.0050(4) 0. 0.
Na1 Na1+ 0.0187(5) 0.0156(5) 0.0284(6) 0.0050(4) 0. 0.
Bi1 Bi3+ 0.0190(7) 0.0190(7) 0.0163(10) 0.0095(4) 0. 0.
Na2 Na1+ 0.0190(7) 0.0190(7) 0.0163(10) 0.0095(4) 0. 0.
P1 P5+ 0.020(2) 0.024(2) 0.0169(19) 0.0143(18) 0. 0.
O1 O2- 0.047(7) 0.034(6) 0.019(6) 0.033(6) 0. 0.
O2 O2- 0.019(6) 0.040(8) 0.093(16) 0.008(6) 0. 0.
O3 O2- 0.078(7) 0.035(5) 0.029(6) 0.035(5) -0.001(6) 0.005(4)
#End of TTdata_155589-ICSD