
#(C) 2019 by FIZ Karlsruhe - Leibniz Institute for Information Infrastructure.  All rights reserved.
data_156345-ICSD
_database_code_ICSD 156345
_audit_creation_date 2007-08-01
_chemical_name_systematic
'Sodium neodymium strontium titanate (0.45/0.45/0.1/1)'
_chemical_formula_structural '((Na0.5 Nd0.5)0.9 Sr0.1) (Ti O3)'
_chemical_formula_sum 'Na0.45 Nd0.45 O3 Sr0.1 Ti1'
_chemical_name_structure_type Perovskite-GdFeO3
_exptl_crystal_density_diffrn 5.22
_publ_section_title

;
Phases in the system (Na1/2 Nd1/2 Ti O3) - (Sr Ti O3): a powder neutron
diffraction study
;
loop_
_citation_id
_citation_journal_full
_citation_year
_citation_journal_volume
_citation_page_first
_citation_page_last
_citation_journal_id_ASTM
primary 'Journal of Physics: Condensed Matter' 2006 18 9679 9690 JCOMEL
loop_
_publ_author_name
'Ranjan, R.'
'Agrawal, A.'
'Senyshyn, A.'
'Boysen, H.'
_cell_length_a 5.4511(2)
_cell_length_b 5.4534(2)
_cell_length_c 7.7049(3)
_cell_angle_alpha 90.
_cell_angle_beta 90.
_cell_angle_gamma 90.
_cell_volume 229.04
_cell_formula_units_Z 4
_symmetry_space_group_name_H-M 'P b n m'
_symmetry_Int_Tables_number 62
_refine_ls_R_factor_all 0.0313
loop_
_symmetry_equiv_pos_site_id
_symmetry_equiv_pos_as_xyz
1 '-x+1/2, y+1/2, z'
2 'x, y, -z+1/2'
3 'x+1/2, -y+1/2, z+1/2'
4 '-x, -y, -z'
5 'x+1/2, -y+1/2, -z'
6 '-x, -y, z+1/2'
7 '-x+1/2, y+1/2, -z+1/2'
8 'x, y, z'
loop_
_atom_type_symbol
_atom_type_oxidation_number
Na1+ 1
Nd3+ 3
Sr2+ 2
Ti4+ 4
O2- -2
loop_
_atom_site_label
_atom_site_type_symbol
_atom_site_symmetry_multiplicity
_atom_site_Wyckoff_symbol
_atom_site_fract_x
_atom_site_fract_y
_atom_site_fract_z
_atom_site_B_iso_or_equiv
_atom_site_occupancy
_atom_site_attached_hydrogens
Na1 Na1+ 4 c -0.003(2) 0.5058(8) 0.25 0.80(3) 0.45 0
Nd1 Nd3+ 4 c -0.003(2) 0.5058(8) 0.25 0.80(3) 0.45 0
Sr1 Sr2+ 4 c -0.003(2) 0.5058(8) 0.25 0.80(3) 0.1 0
Ti1 Ti4+ 4 a 0 0 0 0.62(4) 1. 0
O1 O2- 4 c -0.0555(8) -0.003(1) 0.25 0.71(5) 1. 0
O2 O2- 8 d 0.2291(5) 0.2716(4) 0.0305(3) 1.08(4) 1. 0
#End of TTdata_156345-ICSD