
#(C) 2019 by FIZ Karlsruhe - Leibniz Institute for Information Infrastructure.  All rights reserved.
data_156348-ICSD
_database_code_ICSD 156348
_audit_creation_date 2007-08-01
_chemical_name_systematic 'Sodium neodymium strontium titanate (0.3/0.3/0.4/1)'
_chemical_formula_structural '((Na0.5 Nd0.5)0.6 Sr0.4) (Ti O3)'
_chemical_formula_sum 'Na0.3 Nd0.3 O3 Sr0.4 Ti1'
_chemical_name_structure_type Perovskite-BaPbO3
_exptl_crystal_density_diffrn 5.18
_publ_section_title

;
Phases in the system (Na1/2 Nd1/2 Ti O3) - (Sr Ti O3): a powder neutron
diffraction study
;
loop_
_citation_id
_citation_journal_full
_citation_year
_citation_journal_volume
_citation_page_first
_citation_page_last
_citation_journal_id_ASTM
primary 'Journal of Physics: Condensed Matter' 2006 18 9679 9690 JCOMEL
loop_
_publ_author_name
'Ranjan, R.'
'Agrawal, A.'
'Senyshyn, A.'
'Boysen, H.'
_cell_length_a 5.4846(3)
_cell_length_b 5.4778(2)
_cell_length_c 7.7340(3)
_cell_angle_alpha 90.
_cell_angle_beta 90.
_cell_angle_gamma 90.
_cell_volume 232.36
_cell_formula_units_Z 4
_symmetry_space_group_name_H-M 'I b m m'
_symmetry_Int_Tables_number 74
_refine_ls_R_factor_all 0.0318
loop_
_symmetry_equiv_pos_site_id
_symmetry_equiv_pos_as_xyz
1 '-x, -y, z+1/2'
2 'x, -y, -z+1/2'
3 'x, -y, z'
4 '-x, -y, -z'
5 'x, y, -z+1/2'
6 '-x, y, z+1/2'
7 '-x, y, -z'
8 'x, y, z'
9 '-x+1/2, -y+1/2, z'
10 'x+1/2, -y+1/2, -z'
11 'x+1/2, -y+1/2, z+1/2'
12 '-x+1/2, -y+1/2, -z+1/2'
13 'x+1/2, y+1/2, -z'
14 '-x+1/2, y+1/2, z'
15 '-x+1/2, y+1/2, -z+1/2'
16 'x+1/2, y+1/2, z+1/2'
loop_
_atom_type_symbol
_atom_type_oxidation_number
Na1+ 1
Nd3+ 3
Sr2+ 2
Ti4+ 4
O2- -2
loop_
_atom_site_label
_atom_site_type_symbol
_atom_site_symmetry_multiplicity
_atom_site_Wyckoff_symbol
_atom_site_fract_x
_atom_site_fract_y
_atom_site_fract_z
_atom_site_B_iso_or_equiv
_atom_site_occupancy
_atom_site_attached_hydrogens
Na1 Na1+ 4 e -0.004(1) 0.5 0.25 0.67(2) 0.3 0
Nd1 Nd3+ 4 e -0.004(1) 0.5 0.25 0.67(2) 0.3 0
Sr1 Sr2+ 4 e -0.004(1) 0.5 0.25 0.67(2) 0.4 0
Ti1 Ti4+ 4 a 0 0 0 0.36(4) 1. 0
O1 O2- 4 e -0.0391(5) 0 0.25 0.96(6) 1. 0
O2 O2- 8 g 0.25 0.25 0.0242(3) 1.02(3) 1. 0
#End of TTdata_156348-ICSD