
#(C) 2019 by FIZ Karlsruhe - Leibniz Institute for Information Infrastructure.  All rights reserved.
data_156445-ICSD
_database_code_ICSD 156445
_audit_creation_date 2007-08-01
_chemical_name_systematic 'Sodium lanthanum cerium molybdate (0.58/0.36/0.06/1)'
_chemical_formula_structural '(Na0.584 (La0.356 Ce0.060)) (Mo O4)'
_chemical_formula_sum 'Ce0.06 La0.356 Mo1 Na0.584 O4'
_chemical_name_structure_type Scheelite-CaWO4
_exptl_crystal_density_diffrn 4.61
_publ_section_title
'Unusual structural properties of (Na0.5 La0.5) (Mo O4): Er, Ce crystals'
loop_
_citation_id
_citation_journal_full
_citation_year
_citation_journal_volume
_citation_page_first
_citation_page_last
_citation_journal_id_ASTM
primary 'Neorganicheskie Materialy' 2006 42 349 356 NMATEI
loop_
_publ_author_name
'Kuz'micheva, G.M. (Kuzmicheva, G.M.)'
'Rybakov, V.B.'
'Zharikov, E.V.'
'Lis, D.A.'
'Subbotin, K.A.'
_cell_length_a 5.3348(9)
_cell_length_b 5.3348(9)
_cell_length_c 11.714(4)
_cell_angle_alpha 90.
_cell_angle_beta 90.
_cell_angle_gamma 90.
_cell_volume 333.38
_cell_formula_units_Z 4
_symmetry_space_group_name_H-M 'I 41/a Z'
_symmetry_Int_Tables_number 88
_refine_ls_R_factor_all 0.094
loop_
_symmetry_equiv_pos_site_id
_symmetry_equiv_pos_as_xyz
1 '-y+3/4, x+3/4, -z+3/4'
2 'y+1/4, -x+3/4, -z+3/4'
3 'x, y+1/2, -z'
4 '-x, -y, -z'
5 'y+1/4, -x+1/4, z+1/4'
6 '-y+3/4, x+1/4, z+1/4'
7 '-x, -y+1/2, z'
8 'x, y, z'
9 '-y+1/4, x+1/4, -z+1/4'
10 'y+3/4, -x+1/4, -z+1/4'
11 'x+1/2, y, -z+1/2'
12 '-x+1/2, -y+1/2, -z+1/2'
13 'y+3/4, -x+3/4, z+3/4'
14 '-y+1/4, x+3/4, z+3/4'
15 '-x+1/2, -y, z+1/2'
16 'x+1/2, y+1/2, z+1/2'
loop_
_atom_type_symbol
_atom_type_oxidation_number
Na1+ 1
La3+ 3.4
Ce3+ 3.4
Mo6+ 6
O2- -2
loop_
_atom_site_label
_atom_site_type_symbol
_atom_site_symmetry_multiplicity
_atom_site_Wyckoff_symbol
_atom_site_fract_x
_atom_site_fract_y
_atom_site_fract_z
_atom_site_B_iso_or_equiv
_atom_site_occupancy
_atom_site_attached_hydrogens
Na1 Na1+ 4 a 0 0.75 0.875 0.00688(3) 0.584(4) 0
La1 La3+ 4 a 0 0.75 0.875 0.00688(3) 0.356(4) 0
Ce1 Ce3+ 4 a 0 0.75 0.875 0.00688(3) 0.060(4) 0
Mo1 Mo6+ 4 b 0.5 0.75 0.125 0.01295(3) 1. 0
O1 O2- 16 f 0.8575(4) 0.5001(4) 0.0410(2) 0.0231(4) 0.47(3) 0
O2 O2- 16 f 0.6440(3) 0.5242(4) 0.0414(1) 0.0160(3) 0.53(3) 0
loop_
_atom_site_aniso_label
_atom_site_aniso_type_symbol
_atom_site_aniso_U_11
_atom_site_aniso_U_22
_atom_site_aniso_U_33
_atom_site_aniso_U_12
_atom_site_aniso_U_13
_atom_site_aniso_U_23
Na1 Na1+ 0.00545(3) 0.00545(3) 0.00975(5) 0. 0. 0.
La1 La3+ 0.00545(3) 0.00545(3) 0.00975(5) 0. 0. 0.
Ce1 Ce3+ 0.00545(3) 0.00545(3) 0.00975(5) 0. 0. 0.
Mo1 Mo6+ 0.01392(3) 0.01392(3) 0.01102(5) 0. 0. 0.
O1 O2- 0.0352(9) 0.0141(6) 0.0200(6) 0.0059(6) 0.0023(7) 0.0043(6)
O2 O2- 0.0070(4) 0.0208(6) 0.0202(6) 0.0005(5) 0.0028(5) -0.0033(5)
#End of TTdata_156445-ICSD