
#(C) 2019 by FIZ Karlsruhe - Leibniz Institute for Information Infrastructure.  All rights reserved.
data_156553-ICSD
_database_code_ICSD 156553
_audit_creation_date 2007-08-01
_chemical_name_systematic 'Sodium calcium iron catena-disilicate (0.6/0.4/1/1)'
_chemical_formula_structural '(Na0.604 Ca0.396) Fe (Si2 O6)'
_chemical_formula_sum 'Ca0.396 Fe1 Na0.604 O6 Si2'
_chemical_name_structure_type Pyroxene-CaMg(SiO3)2
_chemical_name_mineral Unnamed_Clinopyroxene
_exptl_crystal_density_diffrn 3.61
_cell_measurement_temperature 298.
_publ_section_title

;
Single crystal X-ray diffraction and temperature dependent (57)Fe Moessbauer
spectroscopy on the hedenbergite - aegirine (Ca, Na) (Fe(2+), Fe(3+)) Si2 O6
solid solution
;
loop_
_citation_id
_citation_journal_full
_citation_year
_citation_journal_volume
_citation_page_first
_citation_page_last
_citation_journal_id_ASTM
primary 'American Mineralogist' 2006 91 1271 1292 AMMIAY
loop_
_publ_author_name
'Redhammer, G.J.'
'Amthauer, G.'
'Roth, G.'
'Tippelt, G.'
'Lottermoser, W.'
_cell_length_a 9.7176(8)
_cell_length_b 8.8792(8)
_cell_length_c 5.2828(6)
_cell_angle_alpha 90
_cell_angle_beta 106.530(6)
_cell_angle_gamma 90
_cell_volume 436.99
_cell_formula_units_Z 4
_symmetry_space_group_name_H-M 'C 1 2/c 1'
_symmetry_Int_Tables_number 15
_refine_ls_R_factor_all 0.0184
loop_
_symmetry_equiv_pos_site_id
_symmetry_equiv_pos_as_xyz
1 'x, -y, z+1/2'
2 '-x, -y, -z'
3 '-x, y, -z+1/2'
4 'x, y, z'
5 'x+1/2, -y+1/2, z+1/2'
6 '-x+1/2, -y+1/2, -z'
7 '-x+1/2, y+1/2, -z+1/2'
8 'x+1/2, y+1/2, z'
loop_
_atom_type_symbol
_atom_type_oxidation_number
Na1+ 1
Ca2+ 2
Fe3+ 3
Fe2+ 2
Si4+ 4
O2- -2
loop_
_atom_site_label
_atom_site_type_symbol
_atom_site_symmetry_multiplicity
_atom_site_Wyckoff_symbol
_atom_site_fract_x
_atom_site_fract_y
_atom_site_fract_z
_atom_site_B_iso_or_equiv
_atom_site_occupancy
_atom_site_attached_hydrogens
Na1 Na1+ 4 e 0. 0.3011 0.25 0.0122 0.604(6) 0
Ca1 Ca2+ 4 e 0. 0.3011 0.25 0.0122 0.396(6) 0
Fe1 Fe3+ 4 e 0. 0.9016 0.25 0.0064 0.604(6) 0
Fe2 Fe2+ 4 e 0. 0.9016 0.25 0.0064 0.396(6) 0
Si1 Si4+ 8 f 0.2892 0.0908 0.2335 0.0042 1. 0
O1 O2- 8 f 0.1154 0.0815 0.142 0.0087 1. 0
O2 O2- 8 f 0.3592 0.2531 0.3093 0.0107 1. 0
O3 O2- 8 f 0.3513 0.0126 0.005 0.0089 1. 0
#End of TTdata_156553-ICSD