
#(C) 2019 by FIZ Karlsruhe - Leibniz Institute for Information Infrastructure.  All rights reserved.
data_156770-ICSD
_database_code_ICSD 156770
_audit_creation_date 2008-02-01
_audit_update_record 2013-02-01
_chemical_name_systematic
'Strontium sodium ferro(III)molybdate(V) (1.97/0.03/1)'
_chemical_formula_structural '(Sr1.97 Na0.03) (Fe Mo O6)'
_chemical_formula_sum 'Fe1 Mo1 Na0.03 O6 Sr1.97'
_chemical_name_structure_type Sr2NiWO6
_exptl_crystal_density_diffrn 5.7
_publ_section_title
'Hole doping effects in (Sr2-x Nax) Fe Mo O6 double perovskite'
loop_
_citation_id
_citation_journal_full
_citation_year
_citation_journal_volume
_citation_page_first
_citation_page_last
_citation_journal_id_ASTM
primary 'Applied Physics A: Materials Science & Processing' 2006 84 459 463
APAMFC
loop_
_publ_author_name
'Zhang, Q.'
'Rao, G.-H.'
'Xiao, Y.-G.'
'Liu, G.-Y.'
'Zhang, Y.'
'Liang, J.-K.'
_cell_length_a 5.5707(1)
_cell_length_b 5.5707(1)
_cell_length_c 7.8993(1)
_cell_angle_alpha 90.
_cell_angle_beta 90.
_cell_angle_gamma 90.
_cell_volume 245.14
_cell_formula_units_Z 2
_symmetry_space_group_name_H-M 'I 4/m'
_symmetry_Int_Tables_number 87
_refine_ls_R_factor_all 0.0566
loop_
_symmetry_equiv_pos_site_id
_symmetry_equiv_pos_as_xyz
1 '-y, x, -z'
2 'y, -x, -z'
3 'x, y, -z'
4 '-x, -y, -z'
5 'y, -x, z'
6 '-y, x, z'
7 '-x, -y, z'
8 'x, y, z'
9 '-y+1/2, x+1/2, -z+1/2'
10 'y+1/2, -x+1/2, -z+1/2'
11 'x+1/2, y+1/2, -z+1/2'
12 '-x+1/2, -y+1/2, -z+1/2'
13 'y+1/2, -x+1/2, z+1/2'
14 '-y+1/2, x+1/2, z+1/2'
15 '-x+1/2, -y+1/2, z+1/2'
16 'x+1/2, y+1/2, z+1/2'
loop_
_atom_type_symbol
_atom_type_oxidation_number
Sr2+ 2
Na1+ 1
Fe3+ 3
Mo5+ 5
Fe3+ 3
O2- -2
loop_
_atom_site_label
_atom_site_type_symbol
_atom_site_symmetry_multiplicity
_atom_site_Wyckoff_symbol
_atom_site_fract_x
_atom_site_fract_y
_atom_site_fract_z
_atom_site_B_iso_or_equiv
_atom_site_occupancy
_atom_site_attached_hydrogens
Sr1 Sr2+ 4 d 0.5 0 0.25 0.21(1) 0.985 0
Na1 Na1+ 4 d 0.5 0 0.25 0.21(1) 0.015 0
Fe1 Fe3+ 2 a 0 0 0 0.39(1) 0.8659 0
Mo1 Mo5+ 2 a 0 0 0 0.39(1) 0.1341 0
Mo2 Mo5+ 2 b 0 0 0.5 0.15(1) 0.8659 0
Fe2 Fe3+ 2 b 0 0 0.5 0.15(1) 0.1341 0
O1 O2- 8 h 0.2785(5) 0.2299(4) 0 0.10(4) 1. 0
O2 O2- 4 e 0 0 0.2544(5) 1.58(10) 1. 0
#End of TTdata_156770-ICSD