
#(C) 2019 by FIZ Karlsruhe - Leibniz Institute for Information Infrastructure.  All rights reserved.
data_157318-ICSD
_database_code_ICSD 157318
_audit_creation_date 2008-02-01
_audit_update_record 2010-02-01
_chemical_name_systematic 'Disodium ruthenate(VI)'
_chemical_formula_structural 'Na2 (Ru O4)'
_chemical_formula_sum 'Na2 O4 Ru1'
_chemical_name_structure_type Na2RuO4
_exptl_crystal_density_diffrn 3.97
_cell_measurement_temperature 1.5
_publ_section_title
'Neutron diffraction study of the mamgnetic structure of Na2 Ru O4'
loop_
_citation_id
_citation_journal_full
_citation_year
_citation_journal_volume
_citation_page_first
_citation_page_last
_citation_journal_id_ASTM
primary 'European Physical Journal B: condensed Matter and Complex Systems' 2006
52 371 376 EPJBFY
loop_
_publ_author_name
'Mogare, K.M.'
'Sheptyakov, D.V.'
'Bircher, R.'
'Guedel, H.U.'
'Jansen, M.'
_cell_length_a 10.65122(8)
_cell_length_b 7.01135(4)
_cell_length_c 10.82996(8)
_cell_angle_alpha 90.
_cell_angle_beta 119.1978(4)
_cell_angle_gamma 90.
_cell_volume 706.01
_cell_formula_units_Z 8
_symmetry_space_group_name_H-M 'P 1 21/c 1'
_symmetry_Int_Tables_number 14
_refine_ls_R_factor_all 0.0456
loop_
_symmetry_equiv_pos_site_id
_symmetry_equiv_pos_as_xyz
1 'x, -y+1/2, z+1/2'
2 '-x, -y, -z'
3 '-x, y+1/2, -z+1/2'
4 'x, y, z'
loop_
_atom_type_symbol
_atom_type_oxidation_number
Ru6+ 6
Na1+ 1
O2- -2
loop_
_atom_site_label
_atom_site_type_symbol
_atom_site_symmetry_multiplicity
_atom_site_Wyckoff_symbol
_atom_site_fract_x
_atom_site_fract_y
_atom_site_fract_z
_atom_site_B_iso_or_equiv
_atom_site_occupancy
_atom_site_attached_hydrogens
Ru1 Ru6+ 4 e 0.5004(4) 0.2417(4) 0.2511(5) 0.12(3) 1. 0
Ru2 Ru6+ 4 e -0.0002(4) 0.2294(4) 0.2476(5) 0.12(3) 1. 0
Na1 Na1+ 4 e 0.3008(8) 0.4573(9) 0.4104(8) 0.46(4) 1. 0
Na2 Na1+ 4 e 0.3505(8) 0.5717(9) 0.9153(8) 0.46(4) 1. 0
Na3 Na1+ 4 e 0.1893(7) 0.5103(13) 0.0885(7) 0.46(4) 1. 0
Na4 Na1+ 4 e 0.1520(7) 0.0003(11) 0.0993(6) 0.46(4) 1. 0
O1 O2- 4 e 0.1642(4) 0.1422(6) 0.3860(4) 0.22(2) 1. 0
O2 O2- 4 e 0.4818(5) 0.6432(6) 0.3904(4) 0.22(2) 1. 0
O3 O2- 4 e 0.3273(5) 0.2502(5) 0.2384(5) 0.22(2) 1. 0
O4 O2- 4 e 0.0069(5) 0.3193(7) 0.1001(4) 0.22(2) 1. 0
O5 O2- 4 e 0.1648(4) 0.7234(7) 0.2472(6) 0.22(2) 1. 0
O6 O2- 4 e 0.3420(5) 0.6821(7) 0.5953(4) 0.22(2) 1. 0
O7 O2- 4 e 0.4679(4) 0.0108(6) 0.6533(4) 0.22(2) 1. 0
O8 O2- 4 e 0.0484(5) 0.4773(5) 0.3512(4) 0.22(2) 1. 0
#End of TTdata_157318-ICSD