
#(C) 2019 by FIZ Karlsruhe - Leibniz Institute for Information Infrastructure.  All rights reserved.
data_157341-ICSD
_database_code_ICSD 157341
_audit_creation_date 2008-02-01
_chemical_name_systematic 'Sodium uranium(IV) molybdate (0.67/0.33/1)'
_chemical_formula_structural '(Na0.67 U0.33) (Mo O4)'
_chemical_formula_sum 'Mo1 Na0.67 O4 U0.33'
_chemical_name_structure_type Scheelite-CaWO4
_exptl_crystal_density_diffrn 5.34
_publ_section_title
'Structural and thermal studies on Na2 U (Mo O4)3 and Na4 U (Mo O4)4'
loop_
_citation_id
_citation_journal_full
_citation_year
_citation_journal_volume
_citation_page_first
_citation_page_last
_citation_journal_id_ASTM
primary 'Journal of Alloys and Compounds' 2007 440 145 149 JALCEU
loop_
_publ_author_name
'Dahale, N.D.'
'Keskar, M.'
'Kulkarni, N.K.'
'Singh Mudher, K.D.'
_cell_length_a 5.2457(2)
_cell_length_b 5.2457(2)
_cell_length_c 11.4686(4)
_cell_angle_alpha 90.
_cell_angle_beta 90.
_cell_angle_gamma 90.
_cell_volume 315.59
_cell_formula_units_Z 4
_symmetry_space_group_name_H-M 'I 41/a Z'
_symmetry_Int_Tables_number 88
_refine_ls_R_factor_all 0.053
loop_
_symmetry_equiv_pos_site_id
_symmetry_equiv_pos_as_xyz
1 '-y+3/4, x+3/4, -z+3/4'
2 'y+1/4, -x+3/4, -z+3/4'
3 'x, y+1/2, -z'
4 '-x, -y, -z'
5 'y+1/4, -x+1/4, z+1/4'
6 '-y+3/4, x+1/4, z+1/4'
7 '-x, -y+1/2, z'
8 'x, y, z'
9 '-y+1/4, x+1/4, -z+1/4'
10 'y+3/4, -x+1/4, -z+1/4'
11 'x+1/2, y, -z+1/2'
12 '-x+1/2, -y+1/2, -z+1/2'
13 'y+3/4, -x+3/4, z+3/4'
14 '-y+1/4, x+3/4, z+3/4'
15 '-x+1/2, -y, z+1/2'
16 'x+1/2, y+1/2, z+1/2'
loop_
_atom_type_symbol
_atom_type_oxidation_number
Na1+ 1
U4+ 4
Mo6+ 6
O2- -2
loop_
_atom_site_label
_atom_site_type_symbol
_atom_site_symmetry_multiplicity
_atom_site_Wyckoff_symbol
_atom_site_fract_x
_atom_site_fract_y
_atom_site_fract_z
_atom_site_B_iso_or_equiv
_atom_site_occupancy
_atom_site_attached_hydrogens
Na1 Na1+ 4 b 0 0.25 0.625 1.5(1) 0.67 0
U1 U4+ 4 b 0 0.25 0.625 1.5(1) 0.33 0
Mo1 Mo6+ 4 a 0 0.25 0.125 1.7(1) 1. 0
O1 O2- 16 f 0.1511(9) 0.0085(11) 0.2072(5) 0.7(2) 1. 0
#End of TTdata_157341-ICSD