
#(C) 2019 by FIZ Karlsruhe - Leibniz Institute for Information Infrastructure.  All rights reserved.
data_157704-ICSD
_database_code_ICSD 157704
_audit_creation_date 2008-02-01
_chemical_name_systematic 'Potassium sodium alumosilicate (0.57/3.24/4)'
_chemical_formula_structural 'K0.57 Na3.24 (Al Si O4)4'
_chemical_formula_sum 'Al4 K0.57 Na3.24 O16 Si4'
_chemical_name_structure_type KNa3Al4(SiO4)4
_chemical_name_mineral Nepheline
_exptl_crystal_density_diffrn 2.63
_publ_section_title

;
Elastic behavior and pressure-induced structural evolution of nepheline:
implications for the nature of the modulated superstructure
;
loop_
_citation_id
_citation_journal_full
_citation_year
_citation_journal_volume
_citation_page_first
_citation_page_last
_citation_journal_id_ASTM
primary 'American Mineralogist' 2007 92 1446 1455 AMMIAY
loop_
_publ_author_name
'Gatta, G.D.'
'Angel, R.J.'
_cell_length_a 9.9910(3)
_cell_length_b 9.9910(3)
_cell_length_c 8.3702(2)
_cell_angle_alpha 90.
_cell_angle_beta 90.
_cell_angle_gamma 120.
_cell_volume 723.58
_cell_formula_units_Z 2
_symmetry_space_group_name_H-M 'P 63'
_symmetry_Int_Tables_number 173
_refine_ls_R_factor_all 0.0581
loop_
_symmetry_equiv_pos_site_id
_symmetry_equiv_pos_as_xyz
1 'x-y, x, z+1/2'
2 'y, -x+y, z+1/2'
3 '-x, -y, z+1/2'
4 '-x+y, -x, z'
5 '-y, x-y, z'
6 'x, y, z'
loop_
_atom_type_symbol
_atom_type_oxidation_number
K1+ 1
Na1+ 1
Al3+ 3
Si4+ 4
Al3+ 3
O2- -2
loop_
_atom_site_label
_atom_site_type_symbol
_atom_site_symmetry_multiplicity
_atom_site_Wyckoff_symbol
_atom_site_fract_x
_atom_site_fract_y
_atom_site_fract_z
_atom_site_B_iso_or_equiv
_atom_site_occupancy
_atom_site_attached_hydrogens
K1 K1+ 2 a 0 0 0.0051(28) 0.032(17) 0.57 0
Na1 Na1+ 2 a 0 0 0.0051(28) 0.032(17) 0.24 0
Na2 Na1+ 6 c 0.55384(60) 0.99711(67) 0.5071(17) 0.0239(13) 1. 0
Al1 Al3+ 2 b 0.6667 0.3333 0.7028(12) 0.0069(18) 1. 0
Si1 Si4+ 2 b 0.6667 0.3333 0.3144(14) 0.0173(23) 1. 0
Si2 Si4+ 6 c 0.90486(69) 0.66596(71) 0.82172(40) 0.0112(10) 1. 0
Al2 Al3+ 6 c 0.90743(76) 0.66818(84) 0.19535(49) 0.0128(13) 1. 0
O1 O2- 6 c 0.6565(46) 0.2857(26) 0.5022(18) 0.0234(59) 0.333 0
O2 O2- 6 c 0.9740(11) 0.6844(11) 0.0021(14) 0.0244(19) 1. 0
O3 O2- 6 c 0.8220(18) 0.4743(13) 0.2304(18) 0.0373(40) 1. 0
O4 O2- 6 c 0.8393(13) 0.4905(12) 0.7526(14) 0.0198(28) 1. 0
O5 O2- 6 c 0.7705(13) 0.7130(13) 0.8226(13) 0.0108(22) 1. 0
O6 O2- 6 c 0.7787(17) 0.7369(17) 0.2016(17) 0.0274(39) 1. 0
#End of TTdata_157704-ICSD