
#(C) 2019 by FIZ Karlsruhe - Leibniz Institute for Information Infrastructure.  All rights reserved.
data_157730-ICSD
_database_code_ICSD 157730
_audit_creation_date 2008-02-01
_chemical_name_systematic 'Sodium aluminium catena-disilicate'
_chemical_formula_structural 'Na Al (Si2 O6)'
_chemical_formula_sum 'Al1 Na1 O6 Si2'
_chemical_name_structure_type Pyroxene-CaMg(SiO3)2
_chemical_name_mineral Jadeite
_exptl_crystal_density_diffrn 3.34
_publ_section_title

;
The crystal structure of pyroxenes along the jadeite - hedenbergite and
jadeite - aegirine joins
;
loop_
_citation_id
_citation_journal_full
_citation_year
_citation_journal_volume
_citation_page_first
_citation_page_last
_citation_journal_id_ASTM
primary 'American Mineralogist' 2007 92 1492 1501 AMMIAY
loop_
_publ_author_name
'Nestola, F.'
'Tribaudino, M.'
'Boffa Ballaran, T.'
'Liebske, C.'
'Bruno, M.'
_cell_length_a 9.4278(3)
_cell_length_b 8.5651(4)
_cell_length_c 5.2262(2)
_cell_angle_alpha 90.
_cell_angle_beta 107.624(2)
_cell_angle_gamma 90.
_cell_volume 402.21
_cell_formula_units_Z 4
_symmetry_space_group_name_H-M 'C 1 2/c 1'
_symmetry_Int_Tables_number 15
_refine_ls_R_factor_all 0.032
loop_
_symmetry_equiv_pos_site_id
_symmetry_equiv_pos_as_xyz
1 'x, -y, z+1/2'
2 '-x, -y, -z'
3 '-x, y, -z+1/2'
4 'x, y, z'
5 'x+1/2, -y+1/2, z+1/2'
6 '-x+1/2, -y+1/2, -z'
7 '-x+1/2, y+1/2, -z+1/2'
8 'x+1/2, y+1/2, z'
loop_
_atom_type_symbol
_atom_type_oxidation_number
Na1+ 1
Al3+ 3
Si4+ 4
O2- -2
loop_
_atom_site_label
_atom_site_type_symbol
_atom_site_symmetry_multiplicity
_atom_site_Wyckoff_symbol
_atom_site_fract_x
_atom_site_fract_y
_atom_site_fract_z
_atom_site_B_iso_or_equiv
_atom_site_occupancy
_atom_site_attached_hydrogens
Na1 Na1+ 4 e 0 0.3002(1) 0.25 0.0108(2) 1. 0
Al1 Al3+ 4 e 0 0.90604(7) 0.25 0.0043(1) 1. 0
Si1 Si4+ 8 f 0.29072(4) 0.09342(4) 0.22822(8) 0.00383(9) 1. 0
O1 O2- 8 f 0.1092(1) 0.0760(1) 0.1284(2) 0.0049(2) 1. 0
O2 O2- 8 f 0.3610(1) 0.2634(1) 0.2935(2) 0.0070(2) 1. 0
O3 O2- 8 f 0.3536(1) 0.0071(1) 0.0067(2) 0.0065(2) 1. 0
loop_
_atom_site_aniso_label
_atom_site_aniso_type_symbol
_atom_site_aniso_U_11
_atom_site_aniso_U_22
_atom_site_aniso_U_33
_atom_site_aniso_U_12
_atom_site_aniso_U_13
_atom_site_aniso_U_23
Na1 Na1+ 0.0146(4) 0.0075(3) 0.0090(3) 0. -0.0006(3) 0.
Al1 Al3+ 0.0048(2) 0.0044(2) 0.0042(2) 0. 0.0012(2) 0.
Si1 Si4+ 0.0039(2) 0.0040(2) 0.0041(2) -0.0003(1) 0.0010(1) -0.0004(1)
O1 O2- 0.0043(3) 0.0053(3) 0.0054(3) -0.0004(3) 0.0009(3) -0.0003(3)
O2 O2- 0.0076(4) 0.0052(3) 0.0084(4) -0.0020(3) 0.0022(3) -0.0004(3)
O3 O2- 0.0059(4) 0.0083(4) 0.0059(3) 0.0006(3) 0.0013(3) -0.0025(3)
#End of TTdata_157730-ICSD