
#(C) 2019 by FIZ Karlsruhe - Leibniz Institute for Information Infrastructure.  All rights reserved.
data_157705-ICSD
_database_code_ICSD 157705
_audit_creation_date 2008-02-01
_chemical_name_systematic 'Potassium sodium alumosilicate (0.57/3.24/4)'
_chemical_formula_structural 'K0.57 Na3.24 (Al Si O4)4'
_chemical_formula_sum 'Al4 K0.57 Na3.24 O16 Si4'
_chemical_name_structure_type KNa3Al4(SiO4)4
_chemical_name_mineral Nepheline
_exptl_crystal_density_diffrn 2.73
_cell_measurement_pressure 1967000.
_publ_section_title

;
Elastic behavior and pressure-induced structural evolution of nepheline:
implications for the nature of the modulated superstructure
;
loop_
_citation_id
_citation_journal_full
_citation_year
_citation_journal_volume
_citation_page_first
_citation_page_last
_citation_journal_id_ASTM
primary 'American Mineralogist' 2007 92 1446 1455 AMMIAY
loop_
_publ_author_name
'Gatta, G.D.'
'Angel, R.J.'
_cell_length_a 9.8499(2)
_cell_length_b 9.8499(2)
_cell_length_c 8.2838(2)
_cell_angle_alpha 90.
_cell_angle_beta 90.
_cell_angle_gamma 120.
_cell_volume 696.02
_cell_formula_units_Z 2
_symmetry_space_group_name_H-M 'P 63'
_symmetry_Int_Tables_number 173
_refine_ls_R_factor_all 0.0488
loop_
_symmetry_equiv_pos_site_id
_symmetry_equiv_pos_as_xyz
1 'x-y, x, z+1/2'
2 'y, -x+y, z+1/2'
3 '-x, -y, z+1/2'
4 '-x+y, -x, z'
5 '-y, x-y, z'
6 'x, y, z'
loop_
_atom_type_symbol
_atom_type_oxidation_number
K1+ 1
Na1+ 1
Al3+ 3
Si4+ 4
Al3+ 3
O2- -2
loop_
_atom_site_label
_atom_site_type_symbol
_atom_site_symmetry_multiplicity
_atom_site_Wyckoff_symbol
_atom_site_fract_x
_atom_site_fract_y
_atom_site_fract_z
_atom_site_B_iso_or_equiv
_atom_site_occupancy
_atom_site_attached_hydrogens
K1 K1+ 2 a 0 0 0.0029(18) 0.0268(10) 0.57 0
Na1 Na1+ 2 a 0 0 0.0029(18) 0.0268(10) 0.24 0
Na2 Na1+ 6 c 0.55578(41) 0.99782(43) 0.5066(14) 0.0217(8) 1. 0
Al1 Al3+ 2 b 0.6667 0.3333 0.7049(11) 0.0096(16) 1. 0
Si1 Si4+ 2 b 0.6667 0.3333 0.3107(10) 0.0113(16) 1. 0
Si2 Si4+ 6 c 0.91197(47) 0.66799(47) 0.82507(31) 0.0092(8) 1. 0
Al2 Al3+ 6 c 0.91316(55) 0.67064(55) 0.19626(37) 0.0114(10) 1. 0
O1 O2- 6 c 0.6621(39) 0.2962(22) 0.5011(17) 0.0238(48) 0.333 0
O2 O2- 6 c 0.98771(68) 0.69126(68) 0.0055(13) 0.0205(12) 1. 0
O3 O2- 6 c 0.8293(11) 0.47474(90) 0.2310(12) 0.0222(21) 1. 0
O4 O2- 6 c 0.8432(11) 0.48988(94) 0.7551(12) 0.0244(25) 1. 0
O5 O2- 6 c 0.77506(98) 0.71427(98) 0.8302(11) 0.0138(19) 1. 0
O6 O2- 6 c 0.7815(11) 0.7375(12) 0.1941(12) 0.0212(26) 1. 0
#End of TTdata_157705-ICSD