
#(C) 2019 by FIZ Karlsruhe - Leibniz Institute for Information Infrastructure.  All rights reserved.
data_157867-ICSD
_database_code_ICSD 157867
_audit_creation_date 2008-02-01
_audit_update_record 2019-02-01
_chemical_name_systematic 'Sodium tecto-alumosilicate *'
_chemical_formula_structural 'Na5.5 (Al8.4 Si27.6 O72)'
_chemical_formula_sum 'Al8.4 Na5.5 O72 Si27.6'
_chemical_name_structure_type Mazzite-frame
_chemical_name_mineral 'Zeolite omega'
_exptl_crystal_density_diffrn 1.75
_cell_measurement_temperature 998.
_publ_section_title

;
Reversible channel deformation of zeolite omega during template degradation
highlighted by in situ time-resolved synchrotron powder diffraction
;
loop_
_citation_id
_citation_journal_full
_citation_year
_citation_journal_volume
_citation_page_first
_citation_page_last
_citation_journal_id_ASTM
primary 'Microporous and Mesoporous Materials' 2007 104 257 268 MIMMFJ
loop_
_publ_author_name
'Martucci, A.'
'Guzman-Castillo, M.L.'
'di Renzo, F.'
'Fajula, F.'
'Alberti, A.'
_cell_length_a 18.087(3)
_cell_length_b 18.087(3)
_cell_length_c 7.619(1)
_cell_angle_alpha 90.
_cell_angle_beta 90.
_cell_angle_gamma 120.
_cell_volume 2158.55
_cell_formula_units_Z 1
_symmetry_space_group_name_H-M 'P 63/m m c'
_symmetry_Int_Tables_number 194
_refine_ls_R_factor_all 0.034
loop_
_symmetry_equiv_pos_site_id
_symmetry_equiv_pos_as_xyz
1 'x, x-y, -z+1/2'
2 '-x+y, y, -z+1/2'
3 '-y, -x, -z+1/2'
4 '-x+y, -x, -z+1/2'
5 '-y, x-y, -z+1/2'
6 'x, y, -z+1/2'
7 '-x, -x+y, z+1/2'
8 'x-y, -y, z+1/2'
9 'y, x, z+1/2'
10 'x-y, x, z+1/2'
11 'y, -x+y, z+1/2'
12 '-x, -y, z+1/2'
13 '-x, -x+y, -z'
14 'x-y, -y, -z'
15 'y, x, -z'
16 'x-y, x, -z'
17 'y, -x+y, -z'
18 '-x, -y, -z'
19 'x, x-y, z'
20 '-x+y, y, z'
21 '-y, -x, z'
22 '-x+y, -x, z'
23 '-y, x-y, z'
24 'x, y, z'
loop_
_atom_type_symbol
_atom_type_oxidation_number
Si4+ 4
Al3+ 3
Si4+ 4
Al3+ 3
O2- -2
Na1+ 1
loop_
_atom_site_label
_atom_site_type_symbol
_atom_site_symmetry_multiplicity
_atom_site_Wyckoff_symbol
_atom_site_fract_x
_atom_site_fract_y
_atom_site_fract_z
_atom_site_B_iso_or_equiv
_atom_site_occupancy
_atom_site_attached_hydrogens
Si1 Si4+ 12 j 0.1553(4) 0.4877(4) 0.25 0.049(4) 0.7667 0
Al1 Al3+ 12 j 0.1553(4) 0.4877(4) 0.25 0.049(4) 0.2333 0
Si2 Si4+ 24 l 0.3559(4) 0.0976(4) 0.0439(6) 0.046(4) 0.7667 0
Al2 Al3+ 24 l 0.3559(4) 0.0976(4) 0.0439(6) 0.046(4) 0.2333 0
O1 O2- 6 h 0.2564(12) 0.5128(24) 0.25 0.098(5) 1. 0
O2 O2- 6 h 0.4109(8) 0.8218(16) 0.25 0.098(5) 1. 0
O3 O2- 12 j 0.3849(14) 0.1000(16) 0.25 0.098(5) 1. 0
O4 O2- 24 l 0.4387(6) 0.1073(8) -0.0668(14) 0.098(5) 1. 0
O5 O2- 12 k 0.1504(4) 0.3008(7) 0.0055(34) 0.098(5) 1. 0
O6 O2- 12 i 0.2783(14) 0 0 0.098(5) 1. 0
Na1 Na1+ 6 g 0.5 0 0 0.17(8) 0.61(3) 0
Na2 Na1+ 6 h 0.1089(4) 0.2178(8) 0.25 0.17(8) 0.32(6) 0
#End of TTdata_157867-ICSD