
#(C) 2019 by FIZ Karlsruhe - Leibniz Institute for Information Infrastructure.  All rights reserved.
data_158183-ICSD
_database_code_ICSD 158183
_audit_creation_date 2008-02-01
_chemical_name_systematic 'Disodium calcium phosphate(V) fluoride'
_chemical_formula_structural 'Na2 Ca (P O4) F'
_chemical_formula_sum 'Ca1 F1 Na2 O4 P1'
_chemical_name_mineral Nacaphite
_exptl_crystal_density_diffrn 2.88
_publ_section_title
'The crystal structure of nacaphite, Na2 Ca (P O4) F: a re-investigation'
loop_
_citation_id
_citation_journal_full
_citation_year
_citation_journal_volume
_citation_page_first
_citation_page_last
_citation_journal_id_ASTM
primary 'Canadian Mineralogist' 2007 45 915 920 CAMIA6
loop_
_publ_author_name
'Krivovichev, S.V.'
'Yakovenchuk, V.N.'
'Ivanyuk, G.Yu.'
'Pakhomovskii, Ya.A.'
'Armbruster, T.'
'Selivanova, E.A.'
_cell_length_a 13.3185(14)
_cell_length_b 7.0964(8)
_cell_length_c 10.6490(11)
_cell_angle_alpha 90.
_cell_angle_beta 113.5260(10)
_cell_angle_gamma 90.
_cell_volume 922.81
_cell_formula_units_Z 8
_symmetry_space_group_name_H-M 'P 1 21/c 1'
_symmetry_Int_Tables_number 14
_refine_ls_R_factor_all 0.034
loop_
_symmetry_equiv_pos_site_id
_symmetry_equiv_pos_as_xyz
1 'x, -y+1/2, z+1/2'
2 '-x, -y, -z'
3 '-x, y+1/2, -z+1/2'
4 'x, y, z'
loop_
_atom_type_symbol
_atom_type_oxidation_number
Ca2+ 2
Na1+ 1
P5+ 5
O2- -2
F1- -1
loop_
_atom_site_label
_atom_site_type_symbol
_atom_site_symmetry_multiplicity
_atom_site_Wyckoff_symbol
_atom_site_fract_x
_atom_site_fract_y
_atom_site_fract_z
_atom_site_B_iso_or_equiv
_atom_site_occupancy
_atom_site_attached_hydrogens
Ca1 Ca2+ 4 e -0.33098(7) 0.0120(1) -0.30111(8) 0.0129(2) 1. 0
Ca2 Ca2+ 4 e -0.17252(7) 0.4948(1) -0.45051(8) 0.0154(2) 1. 0
Na1 Na1+ 4 e -0.33061(14) 0.4821(2) -0.26287(16) 0.0190(4) 1. 0
Na2 Na1+ 4 e -0.41221(13) 0.2283(2) -0.08763(16) 0.0190(4) 1. 0
Na3 Na1+ 4 e -0.08990(13) 0.2536(2) -0.17631(16) 0.0191(4) 1. 0
Na4 Na1+ 4 e -0.16432(13) 0.0242(2) -0.45586(17) 0.0207(4) 1. 0
P1 P5+ 4 e -0.41350(9) 0.74075(15) -0.05929(10) 0.0116(3) 1. 0
P2 P5+ 4 e -0.08406(9) 0.75538(15) -0.14455(10) 0.0119(3) 1. 0
O1 O2- 4 e -0.3551(2) 0.5515(4) -0.0487(3) 0.0189(7) 1. 0
O2 O2- 4 e -0.5311(2) 0.7324(4) -0.1673(3) 0.0195(7) 1. 0
O3 O2- 4 e -0.3505(2) 0.9003(4) -0.0954(3) 0.0189(7) 1. 0
O4 O2- 4 e -0.4136(2) 0.7758(4) 0.0842(3) 0.0171(7) 1. 0
O5 O2- 4 e -0.0843(2) 0.7512(4) 0.0008(3) 0.0209(7) 1. 0
O6 O2- 4 e 0.0346(2) 0.7676(4) -0.1320(3) 0.0197(7) 1. 0
O7 O2- 4 e -0.1471(2) 0.9318(4) -0.2184(3) 0.0238(8) 1. 0
O8 O2- 4 e -0.1404(2) 0.5782(4) -0.2235(3) 0.0216(7) 1. 0
F1 F1- 4 e -0.26280(19) 0.2691(3) -0.3790(2) 0.0189(6) 1. 0
F2 F1- 4 e -0.24193(19) 0.2271(3) -0.1201(2) 0.0173(6) 1. 0
loop_
_atom_site_aniso_label
_atom_site_aniso_type_symbol
_atom_site_aniso_U_11
_atom_site_aniso_U_22
_atom_site_aniso_U_33
_atom_site_aniso_U_12
_atom_site_aniso_U_13
_atom_site_aniso_U_23
Ca1 Ca2+ 0.0133(4) 0.0127(5) 0.0127(4) -0.0002(3) 0.0054(3) -0.0006(3)
Ca2 Ca2+ 0.0151(5) 0.0138(5) 0.0162(4) -0.0005(4) 0.0049(3) -0.0004(3)
Na1 Na1+ 0.0210(9) 0.0168(9) 0.0200(8) 0.0016(8) 0.0090(7) 0.0010(7)
Na2 Na1+ 0.0168(10) 0.0209(10) 0.0196(9) 0.0010(7) 0.0076(7) -0.0036(7)
Na3 Na1+ 0.0168(10) 0.0205(11) 0.0204(9) 0.0000(7) 0.0079(7) 0.0025(7)
Na4 Na1+ 0.0161(9) 0.0159(9) 0.0314(9) -0.0013(8) 0.0110(8) 0.0013(8)
P1 P5+ 0.0110(6) 0.0117(6) 0.0124(5) -0.0002(4) 0.0049(4) 0.0012(4)
P2 P5+ 0.0116(6) 0.0121(6) 0.0123(5) -0.0005(4) 0.0051(4) -0.0006(4)
O1 O2- 0.020(2) 0.016(2) 0.022(2) 0.002(1) 0.009(1) -0.005(1)
O2 O2- 0.015(2) 0.020(2) 0.021(2) -0.003(1) 0.005(1) 0.000(1)
O3 O2- 0.019(2) 0.020(2) 0.018(2) -0.004(1) 0.007(1) 0.003(1)
O4 O2- 0.019(2) 0.018(2) 0.015(1) 0.004(1) 0.007(1) 0.002(1)
O5 O2- 0.023(2) 0.027(2) 0.015(1) -0.002(1) 0.010(1) -0.001(1)
O6 O2- 0.015(2) 0.021(2) 0.024(2) 0.001(1) 0.009(1) 0.001(1)
O7 O2- 0.016(2) 0.021(2) 0.034(2) 0.004(1) 0.009(1) 0.008(1)
O8 O2- 0.020(2) 0.020(2) 0.024(2) -0.003(1) 0.007(1) -0.007(1)
F1 F1- 0.020(1) 0.022(1) 0.017(1) -0.002(1) 0.009(1) 0.003(1)
F2 F1- 0.020(1) 0.015(1) 0.016(1) -0.0002(10) 0.007(1) -0.002(1)
#End of TTdata_158183-ICSD