
#(C) 2019 by FIZ Karlsruhe - Leibniz Institute for Information Infrastructure.  All rights reserved.
data_158118-ICSD
_database_code_ICSD 158118
_audit_creation_date 2008-02-01
_chemical_name_systematic 'Sodium neodymium bis(sulfate(VI)) hydrate'
_chemical_formula_structural 'Na Nd (S O4)2 (H2 O)'
_chemical_formula_sum 'H2 Na1 Nd1 O9 S2'
_chemical_name_structure_type CeNa(SO4)2H2O
_exptl_crystal_density_diffrn 3.48
_cell_measurement_temperature 296.
_publ_section_title
'Synthesis, structure and catalytic properties of rare-earth ternary sulfates'
loop_
_citation_id
_citation_journal_full
_citation_year
_citation_journal_volume
_citation_page_first
_citation_page_last
_citation_journal_id_ASTM
primary 'Journal of Materials Chemistry' 2005 17 2701 2706 JMACEP
loop_
_publ_author_name
'Perles, J.'
'Fortes-Revilla, C.'
'Gutierrez Puebla, E.'
'Iglesias, M.'
'Monge, M.A.'
'Ruiz Valero, C.'
'Snejko, N.'
_cell_length_a 6.968(2)
_cell_length_b 6.968(2)
_cell_length_c 12.856(6)
_cell_angle_alpha 90.
_cell_angle_beta 90.
_cell_angle_gamma 120.
_cell_volume 540.57
_cell_formula_units_Z 3
_symmetry_space_group_name_H-M 'P 31 2 1'
_symmetry_Int_Tables_number 152
_refine_ls_R_factor_all 0.0313
loop_
_symmetry_equiv_pos_site_id
_symmetry_equiv_pos_as_xyz
1 'x-y, -y, -z+2/3'
2 '-x, -x+y, -z+1/3'
3 'y, x, -z'
4 '-x+y, -x, z+2/3'
5 '-y, x-y, z+1/3'
6 'x, y, z'
loop_
_atom_type_symbol
_atom_type_oxidation_number
Nd3+ 3
O2- -2
S6+ 6
O2- -2
Na1+ 1
H1+ 1
loop_
_atom_site_label
_atom_site_type_symbol
_atom_site_symmetry_multiplicity
_atom_site_Wyckoff_symbol
_atom_site_fract_x
_atom_site_fract_y
_atom_site_fract_z
_atom_site_B_iso_or_equiv
_atom_site_occupancy
_atom_site_attached_hydrogens
Nd1 Nd3+ 3 a 0.56586(7) 0.56586(7) 0 0.00792(12) 1. 0
O1 O2- 6 c 0.4922(7) 0.3592(7) 0.8280(2) 0.0142(9) 1. 0
O2 O2- 6 c 0.6120(6) 0.7397(6) 0.8222(3) 0.0168(9) 1. 0
O3 O2- 6 c 0.4111(6) 0.1660(6) 1.0284(3) 0.0145(9) 1. 0
O4 O2- 6 c 0.4954(7) 0.8772(8) 1.0156(3) 0.0146(10) 1. 0
S1 S6+ 6 c 0.5585(2) 0.5458(2) 0.75580(7) 0.0089(2) 1. 0
O5 O2- 3 a 0.9234(12) 0.9234(12) 0 0.049(3) 1. 0
Na1 Na1+ 3 b 0 0.4691(5) 0.1667 0.0203(7) 1. 0
H1 H1+ 6 c 1.019(11) 0.924(15) 1.046(5) 0.04(2) 1. 0
loop_
_atom_site_aniso_label
_atom_site_aniso_type_symbol
_atom_site_aniso_U_11
_atom_site_aniso_U_22
_atom_site_aniso_U_33
_atom_site_aniso_U_12
_atom_site_aniso_U_13
_atom_site_aniso_U_23
Nd1 Nd3+ 0.00920(18) 0.00920(18) 0.00588(14) 0.0050(3) -0.00018(10) 0.00018(10)
O1 O2- 0.022(3) 0.0106(19) 0.0094(15) 0.0074(19) 0.0003(16) -0.0004(13)
O2 O2- 0.024(2) 0.016(2) 0.0133(14) 0.012(2) -0.0020(14) -0.0069(15)
O3 O2- 0.019(2) 0.014(2) 0.0152(16) 0.0122(17) -0.0022(14) 0.0054(14)
O4 O2- 0.020(3) 0.014(3) 0.0122(14) 0.010(2) 0.0062(17) -0.0013(17)
S1 S6+ 0.0100(6) 0.0118(6) 0.0064(4) 0.0064(6) 0.0005(5) 0.0001(4)
O5 O2- 0.015(3) 0.015(3) 0.111(8) 0.002(4) -0.013(3) 0.013(3)
Na1 Na1+ 0.015(2) 0.0254(15) 0.0169(12) 0.0077(11) 0.0004(15) 0.0002(7)
#End of TTdata_158118-ICSD