
#(C) 2019 by FIZ Karlsruhe - Leibniz Institute for Information Infrastructure.  All rights reserved.
data_158478-ICSD
_database_code_ICSD 158478
_audit_creation_date 2008-02-01
_chemical_name_systematic 'Sodium nickel antimony(V) oxide (0.8/0.6/0.4/2)'
_chemical_formula_structural 'Na0.8 Ni0.6 Sb0.4 O2'
_chemical_formula_sum 'Na0.8 Ni0.6 O2 Sb0.4'
_chemical_name_structure_type Delafossite-NaFeO2
_exptl_crystal_density_diffrn 5.06
_cell_measurement_temperature 298.
_publ_section_title

;
Crystal structure, local studium environments and ion dynamics in Na0.8 Ni0.6
Sb0.4 O2, a new mixed antimonate
;
loop_
_citation_id
_citation_journal_full
_citation_year
_citation_journal_volume
_citation_page_first
_citation_page_last
_citation_journal_id_ASTM
primary 'Solid State Ionics' 2007 178 1360 1365 SSIOD3
loop_
_publ_author_name
'Smirnova, O.A.'
'Rocha, J.'
'Nalbandyan, V.B.'
'Kharton, V.V.'
'Marques, F.M.B.'
_cell_length_a 3.0496(1)
_cell_length_b 3.0496(1)
_cell_length_c 16.4060(4)
_cell_angle_alpha 90.
_cell_angle_beta 90.
_cell_angle_gamma 120.
_cell_volume 132.14
_cell_formula_units_Z 3
_symmetry_space_group_name_H-M 'R -3 m H'
_symmetry_Int_Tables_number 166
_refine_ls_R_factor_all 0.0657
loop_
_symmetry_equiv_pos_site_id
_symmetry_equiv_pos_as_xyz
1 'x-y, -y, -z'
2 '-x, -x+y, -z'
3 'y, x, -z'
4 'x-y, x, -z'
5 'y, -x+y, -z'
6 '-x, -y, -z'
7 '-x+y, y, z'
8 'x, x-y, z'
9 '-y, -x, z'
10 '-x+y, -x, z'
11 '-y, x-y, z'
12 'x, y, z'
13 'x-y+2/3, -y+1/3, -z+1/3'
14 '-x+2/3, -x+y+1/3, -z+1/3'
15 'y+2/3, x+1/3, -z+1/3'
16 'x-y+2/3, x+1/3, -z+1/3'
17 'y+2/3, -x+y+1/3, -z+1/3'
18 '-x+2/3, -y+1/3, -z+1/3'
19 '-x+y+2/3, y+1/3, z+1/3'
20 'x+2/3, x-y+1/3, z+1/3'
21 '-y+2/3, -x+1/3, z+1/3'
22 '-x+y+2/3, -x+1/3, z+1/3'
23 '-y+2/3, x-y+1/3, z+1/3'
24 'x+2/3, y+1/3, z+1/3'
25 'x-y+1/3, -y+2/3, -z+2/3'
26 '-x+1/3, -x+y+2/3, -z+2/3'
27 'y+1/3, x+2/3, -z+2/3'
28 'x-y+1/3, x+2/3, -z+2/3'
29 'y+1/3, -x+y+2/3, -z+2/3'
30 '-x+1/3, -y+2/3, -z+2/3'
31 '-x+y+1/3, y+2/3, z+2/3'
32 'x+1/3, x-y+2/3, z+2/3'
33 '-y+1/3, -x+2/3, z+2/3'
34 '-x+y+1/3, -x+2/3, z+2/3'
35 '-y+1/3, x-y+2/3, z+2/3'
36 'x+1/3, y+2/3, z+2/3'
loop_
_atom_type_symbol
_atom_type_oxidation_number
Na1+ 1
Ni2+ 2
Sb5+ 5
O2- -2
loop_
_atom_site_label
_atom_site_type_symbol
_atom_site_symmetry_multiplicity
_atom_site_Wyckoff_symbol
_atom_site_fract_x
_atom_site_fract_y
_atom_site_fract_z
_atom_site_B_iso_or_equiv
_atom_site_occupancy
_atom_site_attached_hydrogens
Na1 Na1+ 3 b 0 0 0.5 0.039(1) 0.8 0
Ni1 Ni2+ 3 a 0 0 0 0.0162(4) 0.6 0
Sb1 Sb5+ 3 a 0 0 0 0.0162(4) 0.4 0
O1 O2- 6 c 0 0 0.2671(2) 0.023(1) 1. 0
#End of TTdata_158478-ICSD