
#(C) 2019 by FIZ Karlsruhe - Leibniz Institute for Information Infrastructure.  All rights reserved.
data_159098-ICSD
_database_code_ICSD 159098
_audit_creation_date 2008-08-01
_chemical_name_systematic 'Sodium neodymium manganese tungstate'
_chemical_formula_structural 'Na Nd Mn (W O6)'
_chemical_formula_sum 'Mn1 Na1 Nd1 O6 W1'
_chemical_name_structure_type Ca3UO6
_exptl_crystal_density_diffrn 6.78
_cell_measurement_temperature 298.
_publ_section_title

;
Synthesis and characterization of new A A' B W O6 perovskites exhibiting
simultaneous ordering of A-site and B-site cations
;
loop_
_citation_id
_citation_journal_full
_citation_year
_citation_journal_volume
_citation_page_first
_citation_page_last
_citation_journal_id_ASTM
primary 'Chemistry of Materials' 2007 19 6451 6458 CMATEX
loop_
_publ_author_name
'King, G.'
'Thimmaiah, S.'
'Dwivedi, A.'
'Woodward, P.M.'
_cell_length_a 5.5081(2)
_cell_length_b 5.5930(2)
_cell_length_c 7.9833(2)
_cell_angle_alpha 90.
_cell_angle_beta 90.36(0)
_cell_angle_gamma 90.
_cell_volume 245.94
_cell_formula_units_Z 2
_symmetry_space_group_name_H-M 'P 1 21 1'
_symmetry_Int_Tables_number 4
_refine_ls_R_factor_all 0.0629
loop_
_symmetry_equiv_pos_site_id
_symmetry_equiv_pos_as_xyz
1 '-x, y+1/2, -z'
2 'x, y, z'
loop_
_atom_type_symbol
_atom_type_oxidation_number
Na1+ 1
Nd3+ 3
Mn2+ 2
W6+ 6
O2- -2
loop_
_atom_site_label
_atom_site_type_symbol
_atom_site_symmetry_multiplicity
_atom_site_Wyckoff_symbol
_atom_site_fract_x
_atom_site_fract_y
_atom_site_fract_z
_atom_site_B_iso_or_equiv
_atom_site_occupancy
_atom_site_attached_hydrogens
Na1 Na1+ 2 a 0.2426(26) 0.2192(17) 0.0010(19) 0.0161(31) 1. 0
Nd1 Nd3+ 2 a 0.2577(9) 0.2907(9) 0.5012(7) 0.0060(8) 1. 0
Mn1 Mn2+ 2 a 0.7533(25) 0.2422(26) 0.2412(15) 0.0039(14) 1. 0
W1 W6+ 2 a 0.7553(14) 0.2365(14) 0.7642(9) 0.0016(11) 1. 0
O1 O2- 2 a 0.5531(11) 0.5077(10) 0.6907(8) 0.0048(13) 1. 0
O2 O2- 2 a 0.5254(12) 0.5439(12) 0.3078(8) 0.0045(14) 1. 0
O3 O2- 2 a -0.0420(13) -0.0796(13) 0.2226(9) 0.0082(15) 1. 0
O4 O2- 2 a -0.0753(14) -0.0491(14) 0.7840(10) 0.0131(19) 1. 0
O5 O2- 2 a 0.8414(12) 0.2170(12) 0.5105(8) 0.0073(13) 1. 0
O6 O2- 2 a 0.6700(11) 0.2641(13) -0.0167(9) 0.0086(15) 1. 0
#End of TTdata_159098-ICSD