
#(C) 2019 by FIZ Karlsruhe - Leibniz Institute for Information Infrastructure.  All rights reserved.
data_159114-ICSD
_database_code_ICSD 159114
_audit_creation_date 2008-08-01
_chemical_name_systematic 'Sodium dicobalt bis(selenate(VI)) hydroxide hydrate'
_chemical_formula_structural 'Na Co2 (Se O4)2 ((H2 O) (O H))'
_chemical_formula_sum 'H3 Co2 Na1 O10 Se2'
_chemical_name_structure_type NaCu2OH(SO4)2H2O
_chemical_name_mineral Unnamed_Natrochalcite
_exptl_crystal_density_diffrn 3.93
_cell_measurement_temperature 293.
_publ_section_title

;
Crystal chemistry of synthetic Co- and Ni-analogues of natrochalcite - the
shortest known hydrogen bonds among mineral-type compounds. Part I:
single-crystal X-ray structures
;
loop_
_citation_id
_citation_journal_full
_citation_year
_citation_journal_volume
_citation_page_first
_citation_page_last
_citation_journal_id_ASTM
primary 'European Journal of Mineralogy' 2007 19 805 816 EJMIER
loop_
_publ_author_name
'Krickl, R.'
'Wildner, M.'
_cell_length_a 8.939(2)
_cell_length_b 6.382(2)
_cell_length_c 7.554(2)
_cell_angle_alpha 90.
_cell_angle_beta 115.09(1)
_cell_angle_gamma 90.
_cell_volume 390.28
_cell_formula_units_Z 2
_symmetry_space_group_name_H-M 'C 1 2/m 1'
_symmetry_Int_Tables_number 12
_refine_ls_R_factor_all 0.0234
loop_
_symmetry_equiv_pos_site_id
_symmetry_equiv_pos_as_xyz
1 '-x, y, -z'
2 '-x, -y, -z'
3 'x, -y, z'
4 'x, y, z'
5 '-x+1/2, y+1/2, -z'
6 '-x+1/2, -y+1/2, -z'
7 'x+1/2, -y+1/2, z'
8 'x+1/2, y+1/2, z'
loop_
_atom_type_symbol
_atom_type_oxidation_number
Na1+ 1
Co2+ 2
Se6+ 6
O2- -2
H1+ 1
loop_
_atom_site_label
_atom_site_type_symbol
_atom_site_symmetry_multiplicity
_atom_site_Wyckoff_symbol
_atom_site_fract_x
_atom_site_fract_y
_atom_site_fract_z
_atom_site_B_iso_or_equiv
_atom_site_occupancy
_atom_site_attached_hydrogens
Na1 Na1+ 2 d 0 0.5 0.5 0.0242(3) 1. 0
Co1 Co2+ 4 e 0.25 0.25 0 0.0111(1) 1. 0
Se1 Se6+ 4 i 0.08896(2) 0 0.29501(3) 0.0098(1) 1. 0
O1 O2- 4 i 0.18607(21) 0 0.14883(24) 0.0143(3) 1. 0
O2 O2- 4 i 0.23093(23) 0 0.51570(24) 0.0191(3) 1. 0
O3 O2- 8 j -0.02689(13) 0.21186(19) 0.24960(17) 0.0141(2) 1. 0
O4 O2- 4 i 0.15206(19) 0.5 0.08207(22) 0.0119(2) 1. 0
H1 H1+ 4 i 0.059(7) 0.5 0.039(10) 0.006(14) 0.5 0
H2 H1+ 4 i 0.189(6) 0.5 0.200(8) 0.036(12) 1. 0
loop_
_atom_site_aniso_label
_atom_site_aniso_type_symbol
_atom_site_aniso_U_11
_atom_site_aniso_U_22
_atom_site_aniso_U_33
_atom_site_aniso_U_12
_atom_site_aniso_U_13
_atom_site_aniso_U_23
Na1 Na1+ 0.0201(7) 0.0300(8) 0.0242(7) 0. 0.0109(6) 0.
Co1 Co2+ 0.0105(1) 0.0107(1) 0.0119(1) 0.0001(1) 0.0046(1) -0.0001(1)
Se1 Se6+ 0.0087(1) 0.0112(1) 0.0090(1) 0. 0.0033(1) 0.
O1 O2- 0.0175(7) 0.0136(6) 0.0176(6) 0. 0.0130(5) 0.
O2 O2- 0.0177(7) 0.0241(8) 0.0103(6) 0. 0.0008(5) 0.
O3 O2- 0.0119(4) 0.0123(4) 0.0162(4) 0.0029(3) 0.0040(3) -0.0004(4)
O4 O2- 0.0104(6) 0.0133(6) 0.0126(6) 0. 0.0054(5) 0.
#End of TTdata_159114-ICSD