
#(C) 2019 by FIZ Karlsruhe - Leibniz Institute for Information Infrastructure.  All rights reserved.
data_159110-ICSD
_database_code_ICSD 159110
_audit_creation_date 2008-08-01
_chemical_name_systematic 'Sodium dinickel bis(sulfate(VI)) hydroxide hydrate'
_chemical_formula_structural 'Na Ni2 (S O4)2 ((H2 O) (O H))'
_chemical_formula_sum 'H3 Na1 Ni2 O10 S2'
_chemical_name_structure_type NaCu2OH(SO4)2H2O
_chemical_name_mineral Unnamed_Natrochalcite
_exptl_crystal_density_diffrn 3.44
_cell_measurement_temperature 293.
_publ_section_title

;
Crystal chemistry of synthetic Co- and Ni-analogues of natrochalcite - the
shortest known hydrogen bonds among mineral-type compounds. Part I:
single-crystal X-ray structures
;
loop_
_citation_id
_citation_journal_full
_citation_year
_citation_journal_volume
_citation_page_first
_citation_page_last
_citation_journal_id_ASTM
primary 'European Journal of Mineralogy' 2007 19 805 816 EJMIER
loop_
_publ_author_name
'Krickl, R.'
'Wildner, M.'
_cell_length_a 8.605(1)
_cell_length_b 6.185(1)
_cell_length_c 7.336(1)
_cell_angle_alpha 90.
_cell_angle_beta 114.78(1)
_cell_angle_gamma 90.
_cell_volume 354.49
_cell_formula_units_Z 2
_symmetry_space_group_name_H-M 'C 1 2/m 1'
_symmetry_Int_Tables_number 12
_refine_ls_R_factor_all 0.0205
loop_
_symmetry_equiv_pos_site_id
_symmetry_equiv_pos_as_xyz
1 '-x, y, -z'
2 '-x, -y, -z'
3 'x, -y, z'
4 'x, y, z'
5 '-x+1/2, y+1/2, -z'
6 '-x+1/2, -y+1/2, -z'
7 'x+1/2, -y+1/2, z'
8 'x+1/2, y+1/2, z'
loop_
_atom_type_symbol
_atom_type_oxidation_number
Na1+ 1
Ni2+ 2
S6+ 6
O2- -2
H1+ 1
loop_
_atom_site_label
_atom_site_type_symbol
_atom_site_symmetry_multiplicity
_atom_site_Wyckoff_symbol
_atom_site_fract_x
_atom_site_fract_y
_atom_site_fract_z
_atom_site_B_iso_or_equiv
_atom_site_occupancy
_atom_site_attached_hydrogens
Na1 Na1+ 2 d 0 0.5 0.5 0.0247(2) 1. 0
Ni1 Ni2+ 4 e 0.25 0.25 0 0.0079(1) 1. 0
S1 S6+ 4 i 0.09180(4) 0 0.29111(5) 0.0070(1) 1. 0
O1 O2- 4 i 0.18889(14) 0 0.15953(18) 0.0107(2) 1. 0
O2 O2- 4 i 0.21735(15) 0 0.49802(17) 0.0138(2) 1. 0
O3 O2- 8 j -0.01593(9) 0.19671(13) 0.24532(12) 0.0103(1) 1. 0
O4 O2- 4 i 0.15451(13) 0.5 0.08712(17) 0.0087(2) 1. 0
H1 H1+ 4 i 0.060(7) 0.5 0.034(10) 0.017(14) 0.5 0
H2 H1+ 4 i 0.188(6) 0.5 0.195(7) 0.048(12) 1. 0
loop_
_atom_site_aniso_label
_atom_site_aniso_type_symbol
_atom_site_aniso_U_11
_atom_site_aniso_U_22
_atom_site_aniso_U_33
_atom_site_aniso_U_12
_atom_site_aniso_U_13
_atom_site_aniso_U_23
Na1 Na1+ 0.0149(4) 0.0372(7) 0.0224(5) 0. 0.0081(4) 0.
Ni1 Ni2+ 0.0072(1) 0.0067(1) 0.0099(1) 0.0002(1) 0.0037(1) -0.0002(1)
S1 S6+ 0.0059(1) 0.0077(1) 0.0071(1) 0. 0.0025(1) 0.
O1 O2- 0.0126(4) 0.0096(4) 0.0143(4) 0. 0.0099(3) 0.
O2 O2- 0.0115(4) 0.0177(5) 0.0078(4) 0. -0.0001(3) 0.
O3 O2- 0.0083(2) 0.0087(3) 0.0127(3) 0.0019(2) 0.0032(2) -0.0001(2)
O4 O2- 0.0076(3) 0.0082(4) 0.0110(4) 0. 0.0046(3) 0.
#End of TTdata_159110-ICSD