
#(C) 2019 by FIZ Karlsruhe - Leibniz Institute for Information Infrastructure.  All rights reserved.
data_159206-ICSD
_database_code_ICSD 159206
_audit_creation_date 2008-08-01
_chemical_name_systematic 'Dilanthanum sodium tantalate'
_chemical_formula_structural 'La2 Na (Ta O6)'
_chemical_formula_sum 'La2 Na1 O6 Ta1'
_chemical_name_structure_type Perovskite-Na3AlF6
_exptl_crystal_density_diffrn 6.92
_cell_measurement_temperature 294.
_publ_section_title

;
Crystal growth of La2 Na Ta O6: a new monoclinically distorted double
perovskite
;
loop_
_citation_id
_citation_journal_full
_citation_year
_citation_journal_volume
_citation_page_first
_citation_page_last
_citation_journal_id_ASTM
primary 'Journal of Crystal Growth' 2008 310 240 244 JCRGAE
loop_
_publ_author_name
'Roof, I.P.'
'Smith, M.D.'
'zur Loye, H.C.'
_cell_length_a 5.6904(2)
_cell_length_b 5.9824(2)
_cell_length_c 8.1423(2)
_cell_angle_alpha 90.
_cell_angle_beta 90.8650(10)
_cell_angle_gamma 90.
_cell_volume 277.15
_cell_formula_units_Z 2
_symmetry_space_group_name_H-M 'P 1 21/n 1'
_symmetry_Int_Tables_number 14
_refine_ls_R_factor_all 0.0236
loop_
_symmetry_equiv_pos_site_id
_symmetry_equiv_pos_as_xyz
1 '-x+1/2, y+1/2, -z+1/2'
2 '-x, -y, -z'
3 'x+1/2, -y+1/2, z+1/2'
4 'x, y, z'
loop_
_atom_type_symbol
_atom_type_oxidation_number
La3+ 3
Na1+ 1
Ta5+ 5
O2- -2
loop_
_atom_site_label
_atom_site_type_symbol
_atom_site_symmetry_multiplicity
_atom_site_Wyckoff_symbol
_atom_site_fract_x
_atom_site_fract_y
_atom_site_fract_z
_atom_site_B_iso_or_equiv
_atom_site_occupancy
_atom_site_attached_hydrogens
La1 La3+ 4 e 0.4845(1) 0.0599(1) 0.2537(1) 0.009(1) 1. 0
Na1 Na1+ 2 a 0 0 0 0.010(1) 1. 0
Ta1 Ta5+ 2 b 0.5 0.5 0 0.007(1) 1. 0
O1 O2- 4 e 0.2143(5) 0.3259(5) 0.0507(3) 0.011(1) 1. 0
O2 O2- 4 e 0.6139(5) 0.4489(5) 0.2288(3) 0.011(1) 1. 0
O3 O2- 4 e 0.3323(5) 0.7786(5) 0.0672(3) 0.011(1) 1. 0
#End of TTdata_159206-ICSD