
#(C) 2019 by FIZ Karlsruhe - Leibniz Institute for Information Infrastructure.  All rights reserved.
data_159385-ICSD
_database_code_ICSD 159385
_audit_creation_date 2008-08-01
_chemical_name_systematic 'Sodium bismuth tetrakis(phosphate(V))'
_chemical_formula_structural 'Na Bi (P O3)4'
_chemical_formula_sum 'Bi1 Na1 O12 P4'
_chemical_name_structure_type KCe(PO3)4
_exptl_crystal_density_diffrn 3.94
_cell_measurement_temperature 293.
_publ_section_title

;
Synthese et characterisation physicochimique du tetraphosphate de sodium
bismuth Na Bi (P O3)4
;
loop_
_citation_id
_citation_journal_full
_citation_year
_citation_journal_volume
_citation_page_first
_citation_page_last
_citation_journal_id_ASTM
primary 'Annales de Chimie (Cachan, France)' 2007 32 45 54 ANCPAC
loop_
_publ_author_name
'Belam, W.'
'Ben Nasr, C.'
'Sanz, J.'
_cell_length_a 7.180(1)
_cell_length_b 13.077(1)
_cell_length_c 9.840(1)
_cell_angle_alpha 90.
_cell_angle_beta 90.44(1)
_cell_angle_gamma 90.
_cell_volume 923.88
_cell_formula_units_Z 4
_symmetry_space_group_name_H-M 'P 1 21/n 1'
_symmetry_Int_Tables_number 14
_refine_ls_R_factor_all 0.018
loop_
_symmetry_equiv_pos_site_id
_symmetry_equiv_pos_as_xyz
1 '-x+1/2, y+1/2, -z+1/2'
2 '-x, -y, -z'
3 'x+1/2, -y+1/2, z+1/2'
4 'x, y, z'
loop_
_atom_type_symbol
_atom_type_oxidation_number
Na1+ 1
Bi3+ 3
P5+ 5
O2- -2
loop_
_atom_site_label
_atom_site_type_symbol
_atom_site_symmetry_multiplicity
_atom_site_Wyckoff_symbol
_atom_site_fract_x
_atom_site_fract_y
_atom_site_fract_z
_atom_site_B_iso_or_equiv
_atom_site_occupancy
_atom_site_attached_hydrogens
Na1 Na1+ 4 e -0.5007(2) 0.7782(1) 0.5653(2) 0.022(1) 1. 0
Bi1 Bi3+ 4 e 0.0125(1) 0.7824(1) 0.4770(1) 0.009(1) 1. 0
P1 P5+ 4 e -0.6213(1) 0.8853(1) 0.2643(1) 0.007(1) 1. 0
P2 P5+ 4 e -0.2519(1) 0.8998(1) 0.7424(1) 0.007(1) 1. 0
P3 P5+ 4 e -0.1458(1) 0.1288(1) 0.1953(1) 0.007(1) 1. 0
P4 P5+ 4 e -0.2296(1) 0.9111(1) 0.1972(1) 0.008(1) 1. 0
O1 O2- 4 e -0.6365(3) 0.8099(2) 0.1524(2) 0.013(1) 1. 0
O2 O2- 4 e 0.0721(3) 0.1244(2) 0.1692(2) 0.010(1) 1. 0
O3 O2- 4 e -0.7152(3) 0.9862(2) 0.2096(2) 0.013(1) 1. 0
O4 O2- 4 e -0.2154(3) 0.8944(2) 0.5936(2) 0.012(1) 1. 0
O5 O2- 4 e -0.4107(3) 0.9193(2) 0.2885(2) 0.012(1) 1. 0
O6 O2- 4 e -0.6934(3) 0.8554(2) 0.3992(2) 0.012(1) 1. 0
O7 O2- 4 e -0.0686(3) 0.8930(2) 0.2898(3) 0.017(1) 1. 0
O8 O2- 4 e -0.1839(3) 0.1334(2) 0.3429(2) 0.013(1) 1. 0
O9 O2- 4 e -0.4089(3) 0.8357(2) 0.7920(2) 0.013(1) 1. 0
O10 O2- 4 e -0.2140(3) 0.2124(2) 0.1054(2) 0.012(1) 1. 0
O11 O2- 4 e -0.2569(3) 0.8401(2) 0.0818(2) 0.014(1) 1. 0
O12 O2- 4 e -0.2169(3) 0.0233(2) 0.1334(2) 0.012(1) 1. 0
#End of TTdata_159385-ICSD