
#(C) 2019 by FIZ Karlsruhe - Leibniz Institute for Information Infrastructure.  All rights reserved.
data_159430-ICSD
_database_code_ICSD 159430
_audit_creation_date 2008-08-01
_chemical_name_systematic 'Disodium calcium trilead pentacarbonate'
_chemical_formula_structural 'Na2 Ca Pb3 (C O3)5'
_chemical_formula_sum 'C5 Ca1 Na2 O15 Pb3'
_chemical_name_structure_type Na3(CaSrLa)(CO3)5
_chemical_name_mineral Sanromanite
_exptl_crystal_density_diffrn 5.2
_publ_section_title

;
Sanromanite, Na2 Ca Pb3 (C O3)5, from the Santa Rosa mine, Atacama desert,
Chile, a new mineral of the burbankite group
;
loop_
_citation_id
_citation_journal_full
_citation_year
_citation_journal_volume
_citation_page_first
_citation_page_last
_citation_journal_id_ASTM
primary 'Neues Jahrbuch fuer Mineralogie, Abhandlungen' 2007 183 117 121 NJMIAK
loop_
_publ_author_name
'Schlueter, J.'
'Malcherek, T.'
'Pohl, D.'
_cell_length_a 10.5702(3)
_cell_length_b 10.5702(3)
_cell_length_c 6.6509(3)
_cell_angle_alpha 90.
_cell_angle_beta 90.
_cell_angle_gamma 120.
_cell_volume 643.54
_cell_formula_units_Z 2
_symmetry_space_group_name_H-M 'P 63 m c'
_symmetry_Int_Tables_number 186
_refine_ls_R_factor_all 0.027
loop_
_symmetry_equiv_pos_site_id
_symmetry_equiv_pos_as_xyz
1 '-x, -x+y, z+1/2'
2 'x-y, -y, z+1/2'
3 'y, x, z+1/2'
4 'x-y, x, z+1/2'
5 'y, -x+y, z+1/2'
6 '-x, -y, z+1/2'
7 'x, x-y, z'
8 '-x+y, y, z'
9 '-y, -x, z'
10 '-x+y, -x, z'
11 '-y, x-y, z'
12 'x, y, z'
loop_
_atom_type_symbol
_atom_type_oxidation_number
C4+ 4
O2- -2
Na1+ 1
Ca2+ 2
Pb2+ 2
loop_
_atom_site_label
_atom_site_type_symbol
_atom_site_symmetry_multiplicity
_atom_site_Wyckoff_symbol
_atom_site_fract_x
_atom_site_fract_y
_atom_site_fract_z
_atom_site_B_iso_or_equiv
_atom_site_occupancy
_atom_site_attached_hydrogens
C1 C4+ 6 c 0.7944(4) -0.7944(4) 0.5496(12) 0.011(2) 1. 0
C2 C4+ 2 b 0.3333 0.6667 0.495(5) 0.013(2) 1. 0
C3 C4+ 2 a 0 0 0.846(2) 0.010(2) 1. 0
O1 O2- 12 d 0.3848(5) 0.0868(5) 0.6406(9) 0.020(2) 1. 0
O2 O2- 6 c 0.9304(5) -0.9304(5) 0.3502(14) 0.022(2) 1. 0
O3 O2- 6 c 0.4033(3) -0.4033(3) 0.5071(16) 0.018(2) 1. 0
O4 O2- 6 c 0.7722(4) -0.7722(4) 0.3734(11) 0.019(2) 1. 0
Na1 Na1+ 6 c 0.52324(15) -0.52324(15) 0.3199(5) 0.0152(7) 0.667 0
Ca1 Ca2+ 6 c 0.52324(15) -0.52324(15) 0.3199(5) 0.0152(7) 0.333 0
Pb1 Pb2+ 6 c 0.84317(2) -0.84317(2) 0 0.0198(1) 1. 0
loop_
_atom_site_aniso_label
_atom_site_aniso_type_symbol
_atom_site_aniso_U_11
_atom_site_aniso_U_22
_atom_site_aniso_U_33
_atom_site_aniso_U_12
_atom_site_aniso_U_13
_atom_site_aniso_U_23
C1 C4+ 0.009(2) 0.009(2) 0.014(3) 0.005(2) 0.000(1) -0.000(1)
C2 C4+ 0.017(2) 0.017(2) 0.005(3) 0.0085(10) 0. 0.
C3 C4+ 0.008(2) 0.008(2) 0.015(5) 0.004(1) 0. 0.
O1 O2- 0.021(2) 0.014(2) 0.022(2) 0.007(2) -0.007(2) 0.005(2)
O2 O2- 0.014(2) 0.014(2) 0.039(4) 0.008(2) 0.002(1) -0.002(1)
O3 O2- 0.020(2) 0.020(2) 0.016(3) 0.013(2) -0.002(2) 0.002(2)
O4 O2- 0.025(2) 0.025(2) 0.012(2) 0.017(3) -0.002(1) 0.002(1)
Na1 Na1+ 0.0112(6) 0.0112(6) 0.022(1) 0.0046(8) 0.0003(5) -0.0003(5)
Ca1 Ca2+ 0.0112(6) 0.0112(6) 0.022(1) 0.0046(8) 0.0003(5) -0.0003(5)
Pb1 Pb2+ 0.0183(1) 0.0183(1) 0.0223(2) 0.0087(1) 0.0002(1) -0.0002(1)
#End of TTdata_159430-ICSD