
#(C) 2019 by FIZ Karlsruhe - Leibniz Institute for Information Infrastructure.  All rights reserved.
data_15946-ICSD
_database_code_ICSD 15946
_audit_creation_date 1980-01-01
_audit_update_record 2006-04-01
_chemical_name_systematic 'Sodium iron iron(III) oxide - alpha'
_chemical_formula_structural 'Na Fe2 O3'
_chemical_formula_sum 'Fe2 Na1 O3'
_exptl_crystal_density_diffrn 4.86
_publ_section_title
'Preparation et proprietes d'un oxyde de sodium-fer(II, III): Na Fe2 O3'
loop_
_citation_id
_citation_journal_full
_citation_year
_citation_journal_volume
_citation_page_first
_citation_page_last
_citation_journal_id_ASTM
primary 'Journal of Solid State Chemistry' 1976 18 293 297 JSSCBI
loop_
_publ_author_name
'El Balkhi, A.M.'
'Zanne, M.'
'Gleitzer, C.'
'Courtois, A.'
_cell_length_a 3.047(1)
_cell_length_b 3.047
_cell_length_c 31.04(2)
_cell_angle_alpha 90.
_cell_angle_beta 90.
_cell_angle_gamma 120.
_cell_volume 249.57
_cell_formula_units_Z 4
_symmetry_space_group_name_H-M 'R -3 m H'
_symmetry_Int_Tables_number 166
loop_
_symmetry_equiv_pos_site_id
_symmetry_equiv_pos_as_xyz
1 'x-y, -y, -z'
2 '-x, -x+y, -z'
3 'y, x, -z'
4 'x-y, x, -z'
5 'y, -x+y, -z'
6 '-x, -y, -z'
7 '-x+y, y, z'
8 'x, x-y, z'
9 '-y, -x, z'
10 '-x+y, -x, z'
11 '-y, x-y, z'
12 'x, y, z'
13 'x-y+2/3, -y+1/3, -z+1/3'
14 '-x+2/3, -x+y+1/3, -z+1/3'
15 'y+2/3, x+1/3, -z+1/3'
16 'x-y+2/3, x+1/3, -z+1/3'
17 'y+2/3, -x+y+1/3, -z+1/3'
18 '-x+2/3, -y+1/3, -z+1/3'
19 '-x+y+2/3, y+1/3, z+1/3'
20 'x+2/3, x-y+1/3, z+1/3'
21 '-y+2/3, -x+1/3, z+1/3'
22 '-x+y+2/3, -x+1/3, z+1/3'
23 '-y+2/3, x-y+1/3, z+1/3'
24 'x+2/3, y+1/3, z+1/3'
25 'x-y+1/3, -y+2/3, -z+2/3'
26 '-x+1/3, -x+y+2/3, -z+2/3'
27 'y+1/3, x+2/3, -z+2/3'
28 'x-y+1/3, x+2/3, -z+2/3'
29 'y+1/3, -x+y+2/3, -z+2/3'
30 '-x+1/3, -y+2/3, -z+2/3'
31 '-x+y+1/3, y+2/3, z+2/3'
32 'x+1/3, x-y+2/3, z+2/3'
33 '-y+1/3, -x+2/3, z+2/3'
34 '-x+y+1/3, -x+2/3, z+2/3'
35 '-y+1/3, x-y+2/3, z+2/3'
36 'x+1/3, y+2/3, z+2/3'
loop_
_atom_type_symbol
_atom_type_oxidation_number
Fe2+ 2.5
Na1+ 1
O2- -2
loop_
_atom_site_label
_atom_site_type_symbol
_atom_site_symmetry_multiplicity
_atom_site_Wyckoff_symbol
_atom_site_fract_x
_atom_site_fract_y
_atom_site_fract_z
_atom_site_B_iso_or_equiv
_atom_site_occupancy
_atom_site_attached_hydrogens
Fe1 Fe2+ 6 c 0 0 0.381(1) 0.4 1. 0
Fe2 Fe2+ 6 c 0 0 0.119(2) 0.4 0.333 0
Na1 Na1+ 6 c 0 0 0.119(2) 0.4 0.667 0
O1 O2- 3 a 0 0 0 0.4 1. 0
O2 O2- 3 b 0 0 0.5 0.4 1. 0
O3 O2- 6 c 0 0 0.235(3) 0.4 1. 0
#End of TTdata_15946-ICSD