
#(C) 2019 by FIZ Karlsruhe - Leibniz Institute for Information Infrastructure.  All rights reserved.
data_159755-ICSD
_database_code_ICSD 159755
_audit_creation_date 2008-08-01
_chemical_name_systematic
'Calcium sodium iron titanium oxide (0.4/0.6/1.4/0.6/4)'
_chemical_formula_structural '(Ca0.4 Na0.6) ((Fe1.4 Ti0.6) O4)'
_chemical_formula_sum 'Ca0.4 Fe1.4 Na0.6 O4 Ti0.6'
_chemical_name_structure_type CaV2O4
_exptl_crystal_density_diffrn 4.54
_cell_measurement_temperature 293.
_publ_section_title

;
Structural and magnetic properties of the (Ca1-x Nax) (Fe2-x Tix) O4 solid
solution (0<= x<= 1)
;
loop_
_citation_id
_citation_journal_full
_citation_year
_citation_journal_volume
_citation_page_first
_citation_page_last
_citation_journal_id_ASTM
primary 'Journal of Alloys and Compounds' 2008 452 234 240 JALCEU
loop_
_publ_author_name
'Zouari, S.'
'Ranno, L.'
'Cheikhrouhou, A.'
'Isnard, O.'
'Wolfers, P.'
'Bordet, P.'
'Strobel, P.'
_cell_length_a 9.1930(5)
_cell_length_b 2.9758(2)
_cell_length_c 10.7428(6)
_cell_angle_alpha 90.
_cell_angle_beta 90.
_cell_angle_gamma 90.
_cell_volume 293.89
_cell_formula_units_Z 4
_symmetry_space_group_name_H-M 'P n m a'
_symmetry_Int_Tables_number 62
_refine_ls_R_factor_all 0.0663
loop_
_symmetry_equiv_pos_site_id
_symmetry_equiv_pos_as_xyz
1 'x+1/2, y, -z+1/2'
2 'x, -y+1/2, z'
3 '-x+1/2, y+1/2, z+1/2'
4 '-x, -y, -z'
5 '-x+1/2, -y, z+1/2'
6 '-x, y+1/2, -z'
7 'x+1/2, -y+1/2, -z+1/2'
8 'x, y, z'
loop_
_atom_type_symbol
_atom_type_oxidation_number
Ca2+ 2
Na1+ 1
Fe3+ 3
Ti4+ 4
Fe3+ 3
Ti4+ 4
O2- -2
loop_
_atom_site_label
_atom_site_type_symbol
_atom_site_symmetry_multiplicity
_atom_site_Wyckoff_symbol
_atom_site_fract_x
_atom_site_fract_y
_atom_site_fract_z
_atom_site_B_iso_or_equiv
_atom_site_occupancy
_atom_site_attached_hydrogens
Ca1 Ca2+ 4 c 0.2427(9) 0.25 0.3458(8) 1.37(20) 0.4 0
Na1 Na1+ 4 c 0.2427(9) 0.25 0.3458(8) 1.37(20) 0.6 0
Fe1 Fe3+ 4 c 0.0840(6) 0.25 0.6050(4) 1.46(15) 0.7 0
Ti1 Ti4+ 4 c 0.0840(6) 0.25 0.6050(4) 1.46(15) 0.3 0
Fe2 Fe3+ 4 c 0.0648(5) 0.25 0.1103(4) 0.89(13) 0.7 0
Ti2 Ti4+ 4 c 0.0648(5) 0.25 0.1103(4) 0.89(13) 0.3 0
O1 O2- 4 c 0.2881(16) 0.25 0.6557(14) 1. 1. 0
O2 O2- 4 c 0.3832(15) 0.25 0.9775(15) 1. 1. 0
O3 O2- 4 c 0.4776(17) 0.25 0.2196(14) 1. 1. 0
O4 O2- 4 c 0.0813(16) 0.25 0.9236(13) 1. 1. 0
#End of TTdata_159755-ICSD