
#(C) 2019 by FIZ Karlsruhe - Leibniz Institute for Information Infrastructure.  All rights reserved.
data_159764-ICSD
_database_code_ICSD 159764
_audit_creation_date 2008-08-01
_chemical_name_systematic
'Praseodymium sodium potassium manganese oxide (0.9/0.04/0.06/1/3)'
_chemical_formula_structural '(Pr0.9 (Na0.4 K0.6)0.1) (Mn O3)'
_chemical_formula_sum 'K0.06 Mn1 Na0.04 O3 Pr0.9'
_chemical_name_structure_type Perovskite-GdFeO3
_exptl_crystal_density_diffrn 6.68
_cell_measurement_temperature 293.
_publ_section_title

;
Effect of mixed alkali-element substitution on structural and magnetic
properties of praseodymium manganites Pr0.9 (Na1-x Kx)0.1 Mn O3
;
loop_
_citation_id
_citation_journal_full
_citation_year
_citation_journal_volume
_citation_page_first
_citation_page_last
_citation_journal_id_ASTM
primary 'Journal of Alloys and Compounds' 2008 452 249 253 JALCEU
loop_
_publ_author_name
'Zouari, S.'
'Ranno, L.'
'Cheikhrouhou, A.'
'Strobel, P.'
_cell_length_a 5.4623(3)
_cell_length_b 5.4899(3)
_cell_length_c 7.7235(3)
_cell_angle_alpha 90.
_cell_angle_beta 90.
_cell_angle_gamma 90.
_cell_volume 231.61
_cell_formula_units_Z 4
_symmetry_space_group_name_H-M 'P b n m'
_symmetry_Int_Tables_number 62
_refine_ls_R_factor_all 0.0445
loop_
_symmetry_equiv_pos_site_id
_symmetry_equiv_pos_as_xyz
1 '-x+1/2, y+1/2, z'
2 'x, y, -z+1/2'
3 'x+1/2, -y+1/2, z+1/2'
4 '-x, -y, -z'
5 'x+1/2, -y+1/2, -z'
6 '-x, -y, z+1/2'
7 '-x+1/2, y+1/2, -z+1/2'
8 'x, y, z'
loop_
_atom_type_symbol
_atom_type_oxidation_number
Pr3+ 3
Na1+ 1
K1+ 1
Mn3+ 3.2
O2- -2
loop_
_atom_site_label
_atom_site_type_symbol
_atom_site_symmetry_multiplicity
_atom_site_Wyckoff_symbol
_atom_site_fract_x
_atom_site_fract_y
_atom_site_fract_z
_atom_site_B_iso_or_equiv
_atom_site_occupancy
_atom_site_attached_hydrogens
Pr1 Pr3+ 4 c 0.994(1) 0.032(3) 0.25 0.52(4) 0.9 0
Na1 Na1+ 4 c 0.994(1) 0.032(3) 0.25 0.52(4) 0.04 0
K1 K1+ 4 c 0.994(1) 0.032(3) 0.25 0.52(4) 0.06 0
Mn1 Mn3+ 4 b 0.5 0 0 0.41(5) 1. 0
O1 O2- 4 c 0.079(5) 0.485(3) 0.25 1. 1. 0
O2 O2- 8 d 0.721(4) 0.292(3) 0.036(3) 1. 1. 0
#End of TTdata_159764-ICSD