
#(C) 2019 by FIZ Karlsruhe - Leibniz Institute for Information Infrastructure.  All rights reserved.
data_159756-ICSD
_database_code_ICSD 159756
_audit_creation_date 2008-08-01
_chemical_name_systematic
'Calcium sodium iron titanium oxide (0.2/0.8/1.2/0.8/4)'
_chemical_formula_structural '(Ca0.2 Na0.8) ((Fe1.2 Ti0.8) O4)'
_chemical_formula_sum 'Ca0.2 Fe1.2 Na0.8 O4 Ti0.8'
_chemical_name_structure_type CaV2O4
_exptl_crystal_density_diffrn 4.44
_cell_measurement_temperature 293.
_publ_section_title

;
Structural and magnetic properties of the (Ca1-x Nax) (Fe2-x Tix) O4 solid
solution (0<= x<= 1)
;
loop_
_citation_id
_citation_journal_full
_citation_year
_citation_journal_volume
_citation_page_first
_citation_page_last
_citation_journal_id_ASTM
primary 'Journal of Alloys and Compounds' 2008 452 234 240 JALCEU
loop_
_publ_author_name
'Zouari, S.'
'Ranno, L.'
'Cheikhrouhou, A.'
'Isnard, O.'
'Wolfers, P.'
'Bordet, P.'
'Strobel, P.'
_cell_length_a 9.1852(4)
_cell_length_b 2.9678(2)
_cell_length_c 10.7453(4)
_cell_angle_alpha 90.
_cell_angle_beta 90.
_cell_angle_gamma 90.
_cell_volume 292.92
_cell_formula_units_Z 4
_symmetry_space_group_name_H-M 'P n m a'
_symmetry_Int_Tables_number 62
_refine_ls_R_factor_all 0.0448
loop_
_symmetry_equiv_pos_site_id
_symmetry_equiv_pos_as_xyz
1 'x+1/2, y, -z+1/2'
2 'x, -y+1/2, z'
3 '-x+1/2, y+1/2, z+1/2'
4 '-x, -y, -z'
5 '-x+1/2, -y, z+1/2'
6 '-x, y+1/2, -z'
7 'x+1/2, -y+1/2, -z+1/2'
8 'x, y, z'
loop_
_atom_type_symbol
_atom_type_oxidation_number
Ca2+ 2
Na1+ 1
Fe3+ 3
Ti4+ 4
Fe3+ 3
Ti4+ 4
O2- -2
loop_
_atom_site_label
_atom_site_type_symbol
_atom_site_symmetry_multiplicity
_atom_site_Wyckoff_symbol
_atom_site_fract_x
_atom_site_fract_y
_atom_site_fract_z
_atom_site_B_iso_or_equiv
_atom_site_occupancy
_atom_site_attached_hydrogens
Ca1 Ca2+ 4 c 0.2431(7) 0.25 0.3450(6) 1.78(18) 0.2 0
Na1 Na1+ 4 c 0.2431(7) 0.25 0.3450(6) 1.78(18) 0.8 0
Fe1 Fe3+ 4 c 0.0851(4) 0.25 0.6046(3) 1.25(11) 0.6 0
Ti1 Ti4+ 4 c 0.0851(4) 0.25 0.6046(3) 1.25(11) 0.4 0
Fe2 Fe3+ 4 c 0.0634(4) 0.25 0.1111(3) 0.83(11) 0.6 0
Ti2 Ti4+ 4 c 0.0634(4) 0.25 0.1111(3) 0.83(11) 0.4 0
O1 O2- 4 c 0.2922(12) 0.25 0.6529(11) 1. 1. 0
O2 O2- 4 c 0.3848(11) 0.25 0.9807(12) 1. 1. 0
O3 O2- 4 c 0.4758(14) 0.25 0.2171(12) 1. 1. 0
O4 O2- 4 c 0.0781(13) 0.25 0.9252(10) 1. 1. 0
#End of TTdata_159756-ICSD