
#(C) 2019 by FIZ Karlsruhe - Leibniz Institute for Information Infrastructure.  All rights reserved.
data_160178-ICSD
_database_code_ICSD 160178
_audit_creation_date 2008-08-01
_chemical_name_systematic 'Sodium tetrastrontium triantimony(V) oxide'
_chemical_formula_structural 'Na Sr4 Sb3 O12'
_chemical_formula_sum 'Na1 O12 Sb3 Sr4'
_chemical_name_structure_type Sr(Na,Sb)O3
_exptl_crystal_density_diffrn 5.82
_cell_measurement_temperature 293.
_publ_section_title

;
Composition- and temperature-dependent phase transitions in 1:3 ordered
perovskites Ba4-x Srx Na Sb3 O12
;
loop_
_citation_id
_citation_journal_full
_citation_year
_citation_journal_volume
_citation_page_first
_citation_page_last
_citation_journal_id_ASTM
primary 'Journal of Solid State Chemistry' 2007 180 3082 3092 JSSCBI
loop_
_publ_author_name
'Zhou Qing Di'
'Kennedy, B.J.'
'Elcombe, M.M.'
'Withers, R.L.'
_cell_length_a 8.0960(2)
_cell_length_b 8.0926(2)
_cell_length_c 8.1003(1)
_cell_angle_alpha 90.
_cell_angle_beta 90.016(2)
_cell_angle_gamma 90.
_cell_volume 530.71
_cell_formula_units_Z 2
_symmetry_space_group_name_H-M 'P 1 21/n 1'
_symmetry_Int_Tables_number 14
_refine_ls_R_factor_all 0.0437
loop_
_symmetry_equiv_pos_site_id
_symmetry_equiv_pos_as_xyz
1 '-x+1/2, y+1/2, -z+1/2'
2 '-x, -y, -z'
3 'x+1/2, -y+1/2, z+1/2'
4 'x, y, z'
loop_
_atom_type_symbol
_atom_type_oxidation_number
Sr2+ 2
Na1+ 1
Sb5+ 5
O2- -2
loop_
_atom_site_label
_atom_site_type_symbol
_atom_site_symmetry_multiplicity
_atom_site_Wyckoff_symbol
_atom_site_fract_x
_atom_site_fract_y
_atom_site_fract_z
_atom_site_B_iso_or_equiv
_atom_site_occupancy
_atom_site_attached_hydrogens
Sr1 Sr2+ 4 e 0.258(3) 0.257(5) 0.242(2) 0.95(8) 1. 0
Sr2 Sr2+ 4 e 0.260(3) 0.257(3) 0.728(3) 0.95(8) 1. 0
Na1 Na1+ 2 a 0 0 0 0.7(6) 1. 0
Sb1 Sb5+ 2 b 0 0 0.5 0.6(1) 1. 0
Sb2 Sb5+ 2 c 0.5 0 0.5 0.6(1) 1. 0
Sb3 Sb5+ 2 d 0.5 0 0 0.6(1) 1. 0
O1 O2- 4 e 0.263(5) -0.031(3) 0.019(3) 1.4(3) 1. 0
O2 O2- 4 e -0.039(3) -0.025(3) 0.271(4) 1.2(5) 1. 0
O3 O2- 4 e 0.028(4) 0.263(4) 0.037(4) 1.7(4) 1. 0
O4 O2- 4 e 0.531(4) 0.023(5) 0.267(5) 2.4(5) 1. 0
O5 O2- 4 e 0.455(3) 0.258(5) -0.021(3) 0.9(3) 1. 0
O6 O2- 4 e 0.249(3) 0.038(2) 0.469(3) 1.0(2) 1. 0
#End of TTdata_160178-ICSD