
#(C) 2019 by FIZ Karlsruhe - Leibniz Institute for Information Infrastructure.  All rights reserved.
data_160174-ICSD
_database_code_ICSD 160174
_audit_creation_date 2008-08-01
_chemical_name_systematic 'Sodium tribarium strontium triantimony(V) oxide'
_chemical_formula_structural 'Na Ba3 Sr Sb3 O12'
_chemical_formula_sum 'Ba3 Na1 O12 Sb3 Sr1'
_exptl_crystal_density_diffrn 6.4
_cell_measurement_temperature 293.
_publ_section_title

;
Composition- and temperature-dependent phase transitions in 1:3 ordered
perovskites Ba4-x Srx Na Sb3 O12
;
loop_
_citation_id
_citation_journal_full
_citation_year
_citation_journal_volume
_citation_page_first
_citation_page_last
_citation_journal_id_ASTM
primary 'Journal of Solid State Chemistry' 2007 180 3082 3092 JSSCBI
loop_
_publ_author_name
'Zhou Qing Di'
'Kennedy, B.J.'
'Elcombe, M.M.'
'Withers, R.L.'
_cell_length_a 8.2415(3)
_cell_length_b 8.2415(3)
_cell_length_c 8.248(1)
_cell_angle_alpha 90.
_cell_angle_beta 90.
_cell_angle_gamma 90.
_cell_volume 560.22
_cell_formula_units_Z 2
_symmetry_space_group_name_H-M 'P 4/m n c'
_symmetry_Int_Tables_number 128
_refine_ls_R_factor_all 0.0589
loop_
_symmetry_equiv_pos_site_id
_symmetry_equiv_pos_as_xyz
1 'y+1/2, x+1/2, -z+1/2'
2 '-y+1/2, -x+1/2, -z+1/2'
3 '-y, x, -z'
4 'y, -x, -z'
5 'x+1/2, -y+1/2, -z+1/2'
6 '-x+1/2, y+1/2, -z+1/2'
7 'x, y, -z'
8 '-x, -y, -z'
9 '-y+1/2, -x+1/2, z+1/2'
10 'y+1/2, x+1/2, z+1/2'
11 'y, -x, z'
12 '-y, x, z'
13 '-x+1/2, y+1/2, z+1/2'
14 'x+1/2, -y+1/2, z+1/2'
15 '-x, -y, z'
16 'x, y, z'
loop_
_atom_type_symbol
_atom_type_oxidation_number
Ba2+ 2
Sr2+ 2
Na1+ 1
Sb5+ 5
O2- -2
loop_
_atom_site_label
_atom_site_type_symbol
_atom_site_symmetry_multiplicity
_atom_site_Wyckoff_symbol
_atom_site_fract_x
_atom_site_fract_y
_atom_site_fract_z
_atom_site_B_iso_or_equiv
_atom_site_occupancy
_atom_site_attached_hydrogens
Ba1 Ba2+ 8 g 0.2516(5) 0.7516(5) 0.25 0.88(3) 0.75 0
Sr1 Sr2+ 8 g 0.2516(5) 0.7516(5) 0.25 0.88(3) 0.25 0
Na1 Na1+ 2 a 0 0 0 0.9(3) 1. 0
Sb1 Sb5+ 2 b 0 0 0.5 0.47(5) 1. 0
Sb2 Sb5+ 4 c 0 0.5 0 0.47(5) 1. 0
O1 O2- 4 d 0 0.5 0.25 0.3(3) 1. 0
O2 O2- 4 e 0 0 0.278(2) 2.6(6) 1. 0
O3 O2- 8 h 0.267(1) 0.0046(8) 0 0.5(2) 1. 0
O4 O2- 8 h 0.249(3) 0.512(1) 0 1.8(2) 1. 0
#End of TTdata_160174-ICSD