
#(C) 2019 by FIZ Karlsruhe - Leibniz Institute for Information Infrastructure.  All rights reserved.
data_160409-ICSD
_database_code_ICSD 160409
_audit_creation_date 2008-08-01
_audit_update_record 2015-08-01
_chemical_name_systematic 'Sodium triiron(III) bis(sulfate(VI)) hexahydroxide'
_chemical_formula_structural 'Na Fe3 (S O4)2 (O H)6'
_chemical_formula_sum 'H6 Fe3 Na1 O14 S2'
_chemical_name_structure_type KAl3(SO4)2(OH)6
_chemical_name_mineral Natrojarosite
_exptl_crystal_density_diffrn 3.14
_publ_section_title

;
Crystal chemistry of the natrojarosite-jarosite and natrojarosite - hydronium
jarosite solid-solution series: a synthetic study with full Fe occupancy
;
loop_
_citation_id
_citation_journal_full
_citation_year
_citation_journal_volume
_citation_page_first
_citation_page_last
_citation_journal_id_ASTM
primary 'American Mineralogist' 2008 93 853 862 AMMIAY
loop_
_publ_author_name
'Basciano, L.C.'
'Peterson, R.C.'
_cell_length_a 7.31525(6)
_cell_length_b 7.31525(6)
_cell_length_c 16.5868(2)
_cell_angle_alpha 90.
_cell_angle_beta 90.
_cell_angle_gamma 120.
_cell_volume 768.69
_cell_formula_units_Z 3
_symmetry_space_group_name_H-M 'R -3 m H'
_symmetry_Int_Tables_number 166
_refine_ls_R_factor_all 0.045
loop_
_symmetry_equiv_pos_site_id
_symmetry_equiv_pos_as_xyz
1 'x-y, -y, -z'
2 '-x, -x+y, -z'
3 'y, x, -z'
4 'x-y, x, -z'
5 'y, -x+y, -z'
6 '-x, -y, -z'
7 '-x+y, y, z'
8 'x, x-y, z'
9 '-y, -x, z'
10 '-x+y, -x, z'
11 '-y, x-y, z'
12 'x, y, z'
13 'x-y+2/3, -y+1/3, -z+1/3'
14 '-x+2/3, -x+y+1/3, -z+1/3'
15 'y+2/3, x+1/3, -z+1/3'
16 'x-y+2/3, x+1/3, -z+1/3'
17 'y+2/3, -x+y+1/3, -z+1/3'
18 '-x+2/3, -y+1/3, -z+1/3'
19 '-x+y+2/3, y+1/3, z+1/3'
20 'x+2/3, x-y+1/3, z+1/3'
21 '-y+2/3, -x+1/3, z+1/3'
22 '-x+y+2/3, -x+1/3, z+1/3'
23 '-y+2/3, x-y+1/3, z+1/3'
24 'x+2/3, y+1/3, z+1/3'
25 'x-y+1/3, -y+2/3, -z+2/3'
26 '-x+1/3, -x+y+2/3, -z+2/3'
27 'y+1/3, x+2/3, -z+2/3'
28 'x-y+1/3, x+2/3, -z+2/3'
29 'y+1/3, -x+y+2/3, -z+2/3'
30 '-x+1/3, -y+2/3, -z+2/3'
31 '-x+y+1/3, y+2/3, z+2/3'
32 'x+1/3, x-y+2/3, z+2/3'
33 '-y+1/3, -x+2/3, z+2/3'
34 '-x+y+1/3, -x+2/3, z+2/3'
35 '-y+1/3, x-y+2/3, z+2/3'
36 'x+1/3, y+2/3, z+2/3'
loop_
_atom_type_symbol
_atom_type_oxidation_number
Na1+ 1
Fe3+ 3
S6+ 6
O2- -2
H1+ 1
loop_
_atom_site_label
_atom_site_type_symbol
_atom_site_symmetry_multiplicity
_atom_site_Wyckoff_symbol
_atom_site_fract_x
_atom_site_fract_y
_atom_site_fract_z
_atom_site_B_iso_or_equiv
_atom_site_occupancy
_atom_site_attached_hydrogens
Na1 Na1+ 3 a 0 0 0 3.0(1) 1. 0
Fe1 Fe3+ 9 d 0.16667 -0.16667 -0.16667 1.09(4) 1. 0
S1 S6+ 6 c 0 0 0.3123(1) 0.91(6) 1. 0
O1 O2- 6 c 0 0 0.4020(2) 0.8(1) 1. 0
O2 O2- 18 h 0.2220(2) -0.2220(2) -0.0505(1) 0.85(8) 1. 0
O3 O2- 18 h 0.1252(1) -0.1252(1) 0.13018(9) 0.33(8) 1. 0
H1 H1+ 18 h 0.1583(9) -0.1583(9) 0.1697(9) 2. 1. 0
#End of TTdata_160409-ICSD