
#(C) 2019 by FIZ Karlsruhe - Leibniz Institute for Information Infrastructure.  All rights reserved.
data_160539-ICSD
_database_code_ICSD 160539
_audit_creation_date 2008-08-01
_chemical_name_systematic 'Sodium zinc tungstate (7.2/2.4/6)'
_chemical_formula_structural 'Na7.2 Zn2.4 (W O4)6'
_chemical_formula_sum 'Na7.2 O24 W6 Zn2.4'
_chemical_name_structure_type K4MnMo3O12
_exptl_crystal_density_diffrn 5.25
_publ_section_title

;
The ternary system (Na2 O) - (Zn O) - (W O3): compounds and phase
relationships
;
loop_
_citation_id
_citation_journal_full
_citation_year
_citation_journal_volume
_citation_page_first
_citation_page_last
_citation_journal_id_ASTM
primary 'Journal of Alloys and Compounds' 2008 458 138 143 JALCEU
loop_
_publ_author_name
'Yan Fengbo'
'Chen Dagui'
'Li Wei'
'Lin Zhang'
'Zhao Zhenguo'
'Xue Liping'
'Huang Feng'
'Liang Jing Kui'
_cell_length_a 7.237(5)
_cell_length_b 9.172(6)
_cell_length_c 9.339(6)
_cell_angle_alpha 94.920(4)
_cell_angle_beta 105.772(9)
_cell_angle_gamma 103.531(8)
_cell_volume 572.57
_cell_formula_units_Z 1
_symmetry_space_group_name_H-M 'P -1'
_symmetry_Int_Tables_number 2
_refine_ls_R_factor_all 0.0345
loop_
_symmetry_equiv_pos_site_id
_symmetry_equiv_pos_as_xyz
1 '-x, -y, -z'
2 'x, y, z'
loop_
_atom_type_symbol
_atom_type_oxidation_number
W6+ 6
Zn2+ 2
Na1+ 1
Zn2+ 2
Na1+ 1
O2- -2
loop_
_atom_site_label
_atom_site_type_symbol
_atom_site_symmetry_multiplicity
_atom_site_Wyckoff_symbol
_atom_site_fract_x
_atom_site_fract_y
_atom_site_fract_z
_atom_site_B_iso_or_equiv
_atom_site_occupancy
_atom_site_attached_hydrogens
W1 W6+ 2 i 0.1144(1) 0.6227(1) 0.3269(1) 0.005(1) 1. 0
W2 W6+ 2 i 0.2494(1) 0.1941(1) 0.2685(1) 0.006(1) 1. 0
W3 W6+ 2 i 0.3777(1) 0.1552(1) -0.1063(1) 0.005(1) 1. 0
Zn1 Zn2+ 2 i 0.1226(2) 0.8575(1) 0.0466(1) 0.008(1) 1. 0
Na1 Na1+ 2 i -0.3768(5) 0.5559(4) 0.3724(4) 0.018(1) 0.6 0
Zn2 Zn2+ 2 i -0.3768(5) 0.5559(4) 0.3724(4) 0.018(1) 0.2 0
Na2 Na1+ 2 i -0.2376(6) 0.2336(5) 0.2775(4) 0.010(1) 1. 0
Na3 Na1+ 1 b 0 0 0.5 0.020(1) 1. 0
Na4 Na1+ 1 f 0.5 0 0.5 0.045(2) 1. 0
Na5 Na1+ 2 i 0.2597(7) 0.4986(7) 0.0080(8) 0.053(2) 1. 0
O1 O2- 2 i -0.1093(11) 0.4968(8) 0.3255(9) 0.016(2) 1. 0
O2 O2- 2 i 0.1647(12) 0.7892(8) 0.4560(8) 0.018(2) 1. 0
O3 O2- 2 i 0.0885(12) 0.6593(8) 0.1354(7) 0.013(2) 1. 0
O4 O2- 2 i 0.3069(11) 0.5345(9) 0.3805(9) 0.018(2) 1. 0
O5 O2- 2 i 0.2688(13) 0.2195(9) 0.4602(8) 0.022(2) 1. 0
O6 O2- 2 i 0.4636(10) 0.3101(8) 0.2388(8) 0.013(2) 1. 0
O7 O2- 2 i 0.0230(10) 0.2356(8) 0.1705(7) 0.011(2) 1. 0
O8 O2- 2 i 0.2502(11) 0.9987(8) 0.2402(8) 0.015(2) 1. 0
O9 O2- 2 i 0.1775(10) 0.1031(8) -0.0259(8) 0.011(2) 1. 0
O10 O2- 2 i 0.4039(12) 0.3447(9) -0.1358(9) 0.018(2) 1. 0
O11 O2- 2 i 0.3075(11) 0.0403(8) -0.2819(8) 0.014(2) 1. 0
O12 O2- 2 i 0.6175(11) 0.1498(9) 0.0056(8) 0.015(2) 1. 0
#End of TTdata_160539-ICSD