
#(C) 2019 by FIZ Karlsruhe - Leibniz Institute for Information Infrastructure.  All rights reserved.
data_160817-ICSD
_database_code_ICSD 160817
_audit_creation_date 2009-02-01
_chemical_name_systematic 'Disodium diberyllohexasilicate hydrate'
_chemical_formula_structural 'Na2 (Be2 Si6 O15) (H2 O)'
_chemical_formula_sum 'H2 Be2 Na2 O16 Si6'
_chemical_name_mineral Epididymite
_exptl_crystal_density_diffrn 2.56
_cell_measurement_temperature 293.
_publ_section_title

;
New insights into the crystal chemistry of epididymite and eudidymite from
Malosa, Malawi: a single-crystal neutron diffraction study
;
loop_
_citation_id
_citation_journal_full
_citation_year
_citation_journal_volume
_citation_page_first
_citation_page_last
_citation_journal_id_ASTM
primary 'American Mineralogist' 2008 93 1158 1165 AMMIAY
loop_
_publ_author_name
'Gatta, G.D.'
'Rotiroti, N.'
'McIntyre, G.J.'
'Guastoni, A.'
'Nestola, F.'
_cell_length_a 12.7334(4)
_cell_length_b 13.6298(5)
_cell_length_c 7.3467(3)
_cell_angle_alpha 90.
_cell_angle_beta 90.
_cell_angle_gamma 90.
_cell_volume 1275.05
_cell_formula_units_Z 4
_symmetry_space_group_name_H-M 'P n m a'
_symmetry_Int_Tables_number 62
_refine_ls_R_factor_all 0.0317
loop_
_symmetry_equiv_pos_site_id
_symmetry_equiv_pos_as_xyz
1 'x+1/2, y, -z+1/2'
2 'x, -y+1/2, z'
3 '-x+1/2, y+1/2, z+1/2'
4 '-x, -y, -z'
5 '-x+1/2, -y, z+1/2'
6 '-x, y+1/2, -z'
7 'x+1/2, -y+1/2, -z+1/2'
8 'x, y, z'
loop_
_atom_type_symbol
_atom_type_oxidation_number
Na1+ 1
Be2+ 2
Si4+ 4
O2- -2
H1+ 1
loop_
_atom_site_label
_atom_site_type_symbol
_atom_site_symmetry_multiplicity
_atom_site_Wyckoff_symbol
_atom_site_fract_x
_atom_site_fract_y
_atom_site_fract_z
_atom_site_B_iso_or_equiv
_atom_site_occupancy
_atom_site_attached_hydrogens
Na1 Na1+ 8 d 0.10285(12) 0.06934(10) 0.50192(16) 0.0266(2) 1. 0
Be1 Be2+ 8 d 0.49472(3) -0.00042(3) 0.34273(5) 0.0067(1) 1. 0
Si1 Si4+ 8 d 0.15908(5) 0.1378(5) 0.01543(9) 0.0051(1) 1. 0
Si2 Si4+ 8 d 0.3426(6) 0.13635(5) 0.73115(9) 0.0054(1) 1. 0
Si3 Si4+ 8 d 0.33173(6) 0.13741(5) 0.30525(10) 0.0059(1) 1. 0
O1 O2- 4 c 0.12005(7) 0.25 0.00001(13) 0.0139(1) 1. 0
O2 O2- 8 d 0.21704(4) 0.1224(5) 0.21004(8) 0.0118(1) 1. 0
O3 O2- 8 d 0.06068(4) 0.06612(4) 0.00658(7) 0.0072(1) 1. 0
O4 O2- 8 d 0.23777(5) 0.11405(5) 0.84938(9) 0.0148(1) 1. 0
O5 O2- 8 d 0.43489(4) 0.06457(4) 0.78946(7) 0.0090(1) 1. 0
O6 O2- 4 c 0.37761(7) 0.25 0.76529(12) 0.0120(1) 1. 0
O7 O2- 8 d 0.30497(5) 0.12340(5) 0.52074(7) 0.0106(1) 1. 0
O8 O2- 4 c 0.37000(7) 0.25 0.26883(12) 0.0115(1) 1. 0
O9 O2- 8 d 0.41552(4) 0.06300(4) 0.22624(7) 0.0095(1) 1. 0
O10 O2- 4 c 0.05713(9) 0.25 0.48974(18) 0.0288(2) 1. 0
H1 H1+ 4 c 0.00647(21) 0.25 0.58561(43) 0.0515(7) 1. 0
H2 H1+ 4 c 0.01340(27) 0.25 0.38386(45) 0.0586(8) 1. 0
loop_
_atom_site_aniso_label
_atom_site_aniso_type_symbol
_atom_site_aniso_U_11
_atom_site_aniso_U_22
_atom_site_aniso_U_33
_atom_site_aniso_U_12
_atom_site_aniso_U_13
_atom_site_aniso_U_23
Na1 Na1+ 0.0377(6) 0.0220(5) 0.0201(5) -0.0074(5) 0.0053(5) -0.0015(4)
Be1 Be2+ 0.0068(1) 0.0068(1) 0.0065(1) 0.0005(1) 0.0002(1) 0.0001(1)
Si1 Si4+ 0.0040(3) 0.0049(3) 0.0062(3) -0.0008(2) 0.0001(2) -0.0002(2)
Si2 Si4+ 0.0051(3) 0.0054(3) 0.0059(3) 0.0006(2) 0.0012(2) -0.0007(2)
Si3 Si4+ 0.0065(3) 0.0055(3) 0.0058(3) 0.0010(2) -0.0017(2) -0.0002(2)
O1 O2- 0.0136(3) 0.0039(3) 0.0241(4) 0. -0.0031(3) 0.
O2 O2- 0.0084(2) 0.0162(3) 0.0109(2) -0.0014(2) -0.0049(2) 0.0005(2)
O3 O2- 0.0068(2) 0.0077(2) 0.0071(2) -0.0034(2) -0.0002(2) -0.0003(2)
O4 O2- 0.0108(2) 0.0186(3) 0.0151(2) -0.0026(2) 0.0078(2) -0.0021(2)
O5 O2- 0.0100(2) 0.0093(2) 0.0076(2) 0.0042(2) 0.0004(2) -0.0006(2)
O6 O2- 0.0133(3) 0.0054(3) 0.0173(4) 0. -0.0032(3) 0.
O7 O2- 0.0120(2) 0.0131(2) 0.0068(2) 0.0019(2) -0.0009(2) -0.0002(2)
O8 O2- 0.0124(3) 0.0056(3) 0.0164(3) 0. 0.0022(3) 0.
O9 O2- 0.0113(2) 0.0094(2) 0.0077(2) 0.0045(2) -0.0013(2) -0.0006(2)
O10 O2- 0.0215(5) 0.0316(6) 0.0333(6) 0. 0.0060(5) 0.
H1 H1+ 0.044(1) 0.051(2) 0.059(2) 0. 0.024(1) 0.
H2 H1+ 0.060(2) 0.060(2) 0.055(2) 0. -0.015(1) 0.
#End of TTdata_160817-ICSD