
#(C) 2019 by FIZ Karlsruhe - Leibniz Institute for Information Infrastructure.  All rights reserved.
data_160802-ICSD
_database_code_ICSD 160802
_audit_creation_date 2009-02-01
_chemical_name_systematic 'Sodium aluminium catena-disilicate'
_chemical_formula_structural 'Na Al (Si2 O6)'
_chemical_formula_sum 'Al1 Na1 O6 Si2'
_chemical_name_structure_type Pyroxene-CaMg(SiO3)2
_chemical_name_mineral Jadeite
_exptl_crystal_density_diffrn 3.53
_cell_measurement_pressure 8310000.
_publ_section_title
'The effect of the hedenbergite substitution on the compressibility of jadeite'
loop_
_citation_id
_citation_journal_full
_citation_year
_citation_journal_volume
_citation_page_first
_citation_page_last
_citation_journal_id_ASTM
primary 'American Mineralogist' 2008 93 1005 1013 AMMIAY
loop_
_publ_author_name
'Nestola, F.'
'Boffa Ballaran, T.'
'Liebske, C.'
'Thompson, R.'
'Downs, R.T.'
_cell_length_a 9.2409(3)
_cell_length_b 8.4065(6)
_cell_length_c 5.1226(2)
_cell_angle_alpha 90.
_cell_angle_beta 106.9
_cell_angle_gamma 90.
_cell_volume 380.76
_cell_formula_units_Z 4
_symmetry_space_group_name_H-M 'C 1 2/c 1'
_symmetry_Int_Tables_number 15
loop_
_symmetry_equiv_pos_site_id
_symmetry_equiv_pos_as_xyz
1 'x, -y, z+1/2'
2 '-x, -y, -z'
3 '-x, y, -z+1/2'
4 'x, y, z'
5 'x+1/2, -y+1/2, z+1/2'
6 '-x+1/2, -y+1/2, -z'
7 '-x+1/2, y+1/2, -z+1/2'
8 'x+1/2, y+1/2, z'
loop_
_atom_type_symbol
_atom_type_oxidation_number
Na1+ 1
Al3+ 3
Si4+ 4
O2- -2
loop_
_atom_site_label
_atom_site_type_symbol
_atom_site_symmetry_multiplicity
_atom_site_Wyckoff_symbol
_atom_site_fract_x
_atom_site_fract_y
_atom_site_fract_z
_atom_site_B_iso_or_equiv
_atom_site_occupancy
_atom_site_attached_hydrogens
Na1 Na1+ 4 e 0 0.3041(5) 0.25 0.0091(9) 1. 0
Al1 Al3+ 4 e 0 0.9082(4) 0.25 0.0053(6) 1. 0
Si1 Si4+ 8 f 0.2908(3) 0.0949(2) 0.2294(3) 0.0055(5) 1. 0
O1 O2- 8 f 0.1093(6) 0.0784(6) 0.1309(8) 0.0046(9) 1. 0
O2 O2- 8 f 0.3596(7) 0.2674(6) 0.3027(9) 0.008(1) 1. 0
O3 O2- 8 f 0.3566(7) 0.0146(6) 0.0009(9) 0.007(1) 1. 0
#End of TTdata_160802-ICSD