
#(C) 2019 by FIZ Karlsruhe - Leibniz Institute for Information Infrastructure.  All rights reserved.
data_160999-ICSD
_database_code_ICSD 160999
_audit_creation_date 2009-02-01
_chemical_name_systematic
'Sodium cobalt aluminium silicon oxide  (15.68/37.54/92/100/384)'
_chemical_formula_structural 'Na15.68 Co37.536 (Al92 Si100 O384)'
_chemical_formula_sum 'Al92 Co37.536 Na15.68 O384 Si100'
_chemical_name_structure_type Faujasite-Fd3--frame
_chemical_name_mineral 'Zeolite X (Co-exchanged, dehyd.)'
_exptl_crystal_density_diffrn 1.56
_cell_measurement_temperature 293.
_publ_section_title

;
Single crystal structure of fully dehydrated partially Co(2+)-exchanged
zeolite X: comparison with partially dehydrated partially Co(2+)-exchanged
zeolites X
;
loop_
_citation_id
_citation_journal_full
_citation_year
_citation_journal_volume
_citation_page_first
_citation_page_last
_citation_journal_id_ASTM
primary 'Microporous and Mesoporous Materials' 2008 114 155 165 MIMMFJ
loop_
_publ_author_name
'Borissenko, E.'
'Porcher, F.'
'Bouche, A.'
'Lecomte, C.'
'Souhassou, M.'
_cell_length_a 24.597(2)
_cell_length_b 24.597(2)
_cell_length_c 24.597(2)
_cell_angle_alpha 90.
_cell_angle_beta 90.
_cell_angle_gamma 90.
_cell_volume 14881.49
_cell_formula_units_Z 1
_symmetry_space_group_name_H-M 'F d -3 Z'
_symmetry_Int_Tables_number 203
_refine_ls_R_factor_all 0.066
loop_
_symmetry_equiv_pos_site_id
_symmetry_equiv_pos_as_xyz
1 '-z, x+3/4, y+3/4'
2 'z+3/4, x+3/4, -y'
3 'z+3/4, -x, y+3/4'
4 '-z, -x, -y'
5 'y+3/4, -z, x+3/4'
6 '-y, z+3/4, x+3/4'
7 'y+3/4, z+3/4, -x'
8 '-y, -z, -x'
9 'x+3/4, y+3/4, -z'
10 'x+3/4, -y, z+3/4'
11 '-x, y+3/4, z+3/4'
12 '-x, -y, -z'
13 'z, -x+1/4, -y+1/4'
14 '-z+1/4, -x+1/4, y'
15 '-z+1/4, x, -y+1/4'
16 'z, x, y'
17 '-y+1/4, z, -x+1/4'
18 'y, -z+1/4, -x+1/4'
19 '-y+1/4, -z+1/4, x'
20 'y, z, x'
21 '-x+1/4, -y+1/4, z'
22 '-x+1/4, y, -z+1/4'
23 'x, -y+1/4, -z+1/4'
24 'x, y, z'
25 '-z, x+1/4, y+1/4'
26 'z+3/4, x+1/4, -y+1/2'
27 'z+3/4, -x+1/2, y+1/4'
28 '-z, -x+1/2, -y+1/2'
29 'y+3/4, -z+1/2, x+1/4'
30 '-y, z+1/4, x+1/4'
31 'y+3/4, z+1/4, -x+1/2'
32 '-y, -z+1/2, -x+1/2'
33 'x+3/4, y+1/4, -z+1/2'
34 'x+3/4, -y+1/2, z+1/4'
35 '-x, y+1/4, z+1/4'
36 '-x, -y+1/2, -z+1/2'
37 'z, -x+3/4, -y+3/4'
38 '-z+1/4, -x+3/4, y+1/2'
39 '-z+1/4, x+1/2, -y+3/4'
40 'z, x+1/2, y+1/2'
41 '-y+1/4, z+1/2, -x+3/4'
42 'y, -z+3/4, -x+3/4'
43 '-y+1/4, -z+3/4, x+1/2'
44 'y, z+1/2, x+1/2'
45 '-x+1/4, -y+3/4, z+1/2'
46 '-x+1/4, y+1/2, -z+3/4'
47 'x, -y+3/4, -z+3/4'
48 'x, y+1/2, z+1/2'
49 '-z+1/2, x+3/4, y+1/4'
50 'z+1/4, x+3/4, -y+1/2'
51 'z+1/4, -x, y+1/4'
52 '-z+1/2, -x, -y+1/2'
53 'y+1/4, -z, x+1/4'
54 '-y+1/2, z+3/4, x+1/4'
55 'y+1/4, z+3/4, -x+1/2'
56 '-y+1/2, -z, -x+1/2'
57 'x+1/4, y+3/4, -z+1/2'
58 'x+1/4, -y, z+1/4'
59 '-x+1/2, y+3/4, z+1/4'
60 '-x+1/2, -y, -z+1/2'
61 'z+1/2, -x+1/4, -y+3/4'
62 '-z+3/4, -x+1/4, y+1/2'
63 '-z+3/4, x, -y+3/4'
64 'z+1/2, x, y+1/2'
65 '-y+3/4, z, -x+3/4'
66 'y+1/2, -z+1/4, -x+3/4'
67 '-y+3/4, -z+1/4, x+1/2'
68 'y+1/2, z, x+1/2'
69 '-x+3/4, -y+1/4, z+1/2'
70 '-x+3/4, y, -z+3/4'
71 'x+1/2, -y+1/4, -z+3/4'
72 'x+1/2, y, z+1/2'
73 '-z+1/2, x+1/4, y+3/4'
74 'z+1/4, x+1/4, -y'
75 'z+1/4, -x+1/2, y+3/4'
76 '-z+1/2, -x+1/2, -y'
77 'y+1/4, -z+1/2, x+3/4'
78 '-y+1/2, z+1/4, x+3/4'
79 'y+1/4, z+1/4, -x'
80 '-y+1/2, -z+1/2, -x'
81 'x+1/4, y+1/4, -z'
82 'x+1/4, -y+1/2, z+3/4'
83 '-x+1/2, y+1/4, z+3/4'
84 '-x+1/2, -y+1/2, -z'
85 'z+1/2, -x+3/4, -y+1/4'
86 '-z+3/4, -x+3/4, y'
87 '-z+3/4, x+1/2, -y+1/4'
88 'z+1/2, x+1/2, y'
89 '-y+3/4, z+1/2, -x+1/4'
90 'y+1/2, -z+3/4, -x+1/4'
91 '-y+3/4, -z+3/4, x'
92 'y+1/2, z+1/2, x'
93 '-x+3/4, -y+3/4, z'
94 '-x+3/4, y+1/2, -z+1/4'
95 'x+1/2, -y+3/4, -z+1/4'
96 'x+1/2, y+1/2, z'
loop_
_atom_type_symbol
_atom_type_oxidation_number
Al3+ 3
Si4+ 4
Al3+ 3
Si4+ 4
O2- -2
Co2+ 2
Na1+ 1
Co2+ 2
loop_
_atom_site_label
_atom_site_type_symbol
_atom_site_symmetry_multiplicity
_atom_site_Wyckoff_symbol
_atom_site_fract_x
_atom_site_fract_y
_atom_site_fract_z
_atom_site_B_iso_or_equiv
_atom_site_occupancy
_atom_site_attached_hydrogens
Al1 Al3+ 96 g -0.05396(5) 0.12073(5) 0.03795(5) . 0.4792 0
Si1 Si4+ 96 g -0.05396(5) 0.12073(5) 0.03795(5) . 0.5208 0
Al2 Al3+ 96 g -0.05200(5) 0.03333(5) 0.12244(5) . 0.4792 0
Si2 Si4+ 96 g -0.05200(5) 0.03333(5) 0.12244(5) . 0.5208 0
O1 O2- 96 g -0.1046(1) -0.0028(1) 0.1113(1) . 1. 0
O2 O2- 96 g -0.0017(1) -0.0019(1) 0.1489(1) . 1. 0
O3 O2- 96 g -0.0302(1) 0.0569(1) 0.0625(1) . 1. 0
O4 O2- 96 g -0.0652(1) 0.0814(1) 0.1641(1) . 1. 0
Co1 Co2+ 16 c 0 0 0 . 0.942(6) 0
Co2 Co2+ 32 e 0.2182(1) 0.2182(1) 0.2182(1) . 0.657(9) 0
Na1 Na1+ 32 e 0.2380(5) 0.2380(5) 0.2380(5) 0.029(5) 0.25(2) 0
Na2 Na1+ 48 f -0.147(1) 0.125 0.125 0.11(1) 0.16(1) 0
Co3 Co2+ 32 e 0.0608(7) 0.0608(7) 0.0608(7) 0.06(1) 0.045(3) 0
loop_
_atom_site_aniso_label
_atom_site_aniso_type_symbol
_atom_site_aniso_U_11
_atom_site_aniso_U_22
_atom_site_aniso_U_33
_atom_site_aniso_U_12
_atom_site_aniso_U_13
_atom_site_aniso_U_23
Al1 Al3+ 0.0304(7) 0.0212(7) 0.0251(7) -0.0002(6) -0.0037(5) -0.0043(6)
Si1 Si4+ 0.0304(7) 0.0212(7) 0.0251(7) -0.0002(6) -0.0037(5) -0.0043(6)
Al2 Al3+ 0.0297(7) 0.0275(7) 0.0215(6) -0.0038(5) 0.0002(5) -0.0028(6)
Si2 Si4+ 0.0297(7) 0.0275(7) 0.0215(6) -0.0038(5) 0.0002(5) -0.0028(6)
O1 O2- 0.045(2) 0.067(2) 0.044(2) -0.027(2) 0.012(2) -0.024(2)
O2 O2- 0.050(2) 0.050(2) 0.025(2) 0.011(2) 0.004(2) 0.007(2)
O3 O2- 0.038(2) 0.028(2) 0.027(2) 0.006(1) 0.003(1) -0.002(1)
O4 O2- 0.066(2) 0.035(2) 0.037(2) -0.011(2) 0.010(2) -0.011(2)
Co1 Co2+ 0.0276(5) 0.0276(5) 0.0276(5) 0.0037(4) 0.0037(4) 0.0037(4)
Co2 Co2+ 0.049(1) 0.049(1) 0.049(1) 0.011(1) 0.011(1) 0.011(1)
#End of TTdata_160999-ICSD