
#(C) 2018 by FIZ Karlsruhe - Leibniz Institute for Information Infrastructure.  All rights reserved.
data_161335-ICSD
_database_code_ICSD 161335
_audit_creation_date 2009-02-01
_audit_update_record 2013-08-01
_chemical_name_systematic 'Trilithium divanadium(III) tris(phosphate(V))'
_chemical_formula_structural 'Li3 V2 (P O4)3'
_chemical_formula_sum 'Li3 O12 P3 V2'
_chemical_name_structure_type Li3Fe2(PO4)3(P21/n)
_exptl_crystal_density_diffrn 3.04
_publ_section_title

;
Structural transformation of Li V O P O4 to Li3 V2 (P O4)3 with enhanced
capacity
;
loop_
_citation_id
_citation_journal_full
_citation_year
_citation_journal_volume
_citation_page_first
_citation_page_last
_citation_journal_id_ASTM
primary 'Journal of Physical Chemistry B' 2008 112 11250 11257 JPCBFK
loop_
_publ_author_name
'Kuo, H.T.'
'Bagkar, N.C.'
'Liu, R.-S.'
'Shen, C.H.'
'Shy, D.S.'
'Xing, X.K.'
'Lee, J.-F.'
'Chen, J.-M.'
_cell_length_a 8.6075(3)
_cell_length_b 12.0449(5)
_cell_length_c 8.5993(3)
_cell_angle_alpha 90.
_cell_angle_beta 90.
_cell_angle_gamma 90.509
_cell_volume 891.51
_cell_formula_units_Z 4
_symmetry_space_group_name_H-M 'P 1 1 21/n'
_symmetry_Int_Tables_number 14
_refine_ls_R_factor_all 0.049
loop_
_symmetry_equiv_pos_site_id
_symmetry_equiv_pos_as_xyz
1 'x+1/2, y+1/2, -z+1/2'
2 '-x, -y, -z'
3 '-x+1/2, -y+1/2, z+1/2'
4 'x, y, z'
loop_
_atom_type_symbol
_atom_type_oxidation_number
V3+ 3
P5+ 5
O2- -2
Li1+ 1
loop_
_atom_site_label
_atom_site_type_symbol
_atom_site_symmetry_multiplicity
_atom_site_Wyckoff_symbol
_atom_site_fract_x
_atom_site_fract_y
_atom_site_fract_z
_atom_site_B_iso_or_equiv
_atom_site_occupancy
_atom_site_attached_hydrogens
V1 V3+ 4 e 0.2570(9) 0.1096(6) 0.4607(7) 0.036(1) 1. 0
V2 V3+ 4 e 0.7552(9) 0.3919(5) 0.4725(7) 0.016(1) 1. 0
P1 P5+ 4 e 0.1003(13) 0.1464(9) 0.1099(13) 0.027(3) 1. 0
P2 P5+ 4 e 0.6044(13) 0.3512(9) 0.1122(14) 0.027(2) 1. 0
P3 P5+ 4 e 0.0275(13) 0.4916(10) 0.2379(16) 0.035(2) 1. 0
O1 O2- 4 e 0.4219(32) 0.3268(19) 0.0743(33) 0.060(8) 1. 0
O2 O2- 4 e 0.9295(28) 0.1465(19) 0.1143(29) 0.029(6) 1. 0
O3 O2- 4 e 0.3379(30) 0.2759(16) 0.4839(30) 0.035(6) 1. 0
O4 O2- 4 e 0.8158(24) 0.2267(17) 0.4932(30) 0.031(7) 1. 0
O5 O2- 4 e 0.6391(30) 0.4805(19) 0.0657(29) 0.048(7) 1. 0
O6 O2- 4 e 0.1744(25) 0.0449(17) 0.0580(29) 0.032(7) 1. 0
O7 O2- 4 e 0.4502(23) 0.0595(15) 0.3424(25) 0.011(5) 1. 0
O8 O2- 4 e 0.9194(27) 0.4089(18) 0.3362(28) 0.031(6) 1. 0
O9 O2- 4 e 0.1815(25) 0.4288(17) 0.1665(25) 0.020(7) 1. 0
O10 O2- 4 e 0.6207(31) 0.0759(19) 0.1513(35) 0.054(8) 1. 0
O11 O2- 4 e 0.1500(31) 0.1976(21) 0.2556(34) 0.051(9) 1. 0
O12 O2- 4 e 0.6431(26) 0.3243(19) 0.2847(31) 0.028(7) 1. 0
Li1 Li1+ 4 e 0.2598(75) 0.3323(50) 0.3075(68) 0.017(0) 1. 0
Li2 Li1+ 4 e 0.9412(70) 0.2554(47) 0.2835(68) 0.017(0) 1. 0
Li3 Li1+ 4 e 0.5488(63) 0.2021(43) 0.3813(73) 0.017(0) 1. 0
#End of TTdata_161335-ICSD