
#(C) 2018 by FIZ Karlsruhe - Leibniz Institute for Information Infrastructure.  All rights reserved.
data_161494-ICSD
_database_code_ICSD 161494
_audit_creation_date 2009-02-01
_audit_update_record 2013-08-01
_chemical_name_systematic 'Lithium tecto-alumosilicate hydrate'
_chemical_formula_structural 'Li (Al Si O4) (H2 O)'
_chemical_formula_sum 'H2 Al1 Li1 O5 Si1'
_chemical_name_structure_type Zeolite-ABW-frame
_chemical_name_mineral 'Zeolite Li-ABW'
_exptl_crystal_density_diffrn 2.27
_publ_section_title

;
High pressure deformation mechanism of Li-ABW: synchrotron XRPD study and ab
initio molecular dynamics simulations
;
loop_
_citation_id
_citation_journal_full
_citation_year
_citation_journal_volume
_citation_page_first
_citation_page_last
_citation_journal_id_ASTM
primary 'Microporous and Mesoporous Materials' 2008 115 267 280 MIMMFJ
loop_
_publ_author_name
'Fois, E.'
'Gamba, A.'
'Medici, C.'
'Tabacchi, G.'
'Quartieri, S.'
'Mazzucato, E.'
'Arletti, R.'
'Vezzalini, G.'
'Dmitriev, V.'
_cell_length_a 10.313(2)
_cell_length_b 8.186(2)
_cell_length_c 4.9951(8)
_cell_angle_alpha 90.
_cell_angle_beta 90.
_cell_angle_gamma 90.
_cell_volume 421.7
_cell_formula_units_Z 4
_symmetry_space_group_name_H-M 'P n a 21'
_symmetry_Int_Tables_number 33
loop_
_symmetry_equiv_pos_site_id
_symmetry_equiv_pos_as_xyz
1 'x+1/2, -y+1/2, z'
2 '-x+1/2, y+1/2, z+1/2'
3 '-x, -y, z+1/2'
4 'x, y, z'
loop_
_atom_type_symbol
_atom_type_oxidation_number
Li1+ 1
Al3+ 3
Si4+ 4
O2- -2
H1+ 1
loop_
_atom_site_label
_atom_site_type_symbol
_atom_site_symmetry_multiplicity
_atom_site_Wyckoff_symbol
_atom_site_fract_x
_atom_site_fract_y
_atom_site_fract_z
_atom_site_B_iso_or_equiv
_atom_site_occupancy
_atom_site_attached_hydrogens
Li1 Li1+ 4 a 0.1654 0.6543 0.2473 1.799 1. 0
Al1 Al3+ 4 a 0.1627 0.0341 0.2499 0.411 1. 0
Si1 Si4+ 4 a 0.3621 0.3572 0.2484 0.39 1. 0
O1 O2- 4 a 0.0154 0.1675 0.1886 1.002 1. 0
O2 O2- 4 a 0.2892 0.1945 0.1332 0.938 1. 0
O3 O2- 4 a 0.1916 0.0215 0.5949 0.9 1. 0
O4 O2- 4 a 0.1714 -.123 0.0682 0.763 1. 0
O5 O2- 4 a 0.518 0.0879 0.2231 3.494 1. 0
H1 H1+ 4 a 0.5566 0.1656 0.8599 10.745 1. 0
H2 H1+ 4 a 0.5566 0.0547 0.6456 12.962 1. 0
#End of TTdata_161494-ICSD