
#(C) 2018 by FIZ Karlsruhe - Leibniz Institute for Information Infrastructure.  All rights reserved.
data_161498-ICSD
_database_code_ICSD 161498
_audit_creation_date 2009-02-01
_chemical_name_systematic 'Lithium aluminium diarsenate(V)'
_chemical_formula_structural 'Li Al (As2 O7)'
_chemical_formula_sum 'Al1 As2 Li1 O7'
_chemical_name_structure_type LiFeAs2O7
_exptl_crystal_density_diffrn 4.15
_cell_measurement_temperature 293.
_publ_section_title

;
Gittinsite-type M(1+)-M(3+)-diarsenates (M(1+)= Li, Na; M(3+)= Al, Sc, Ga):
insights into an unexpected isotypy and crystal chemistry of diarsenates
;
loop_
_citation_id
_citation_journal_full
_citation_year
_citation_journal_volume
_citation_page_first
_citation_page_last
_citation_journal_id_ASTM
primary 'Mineralogical Magazine' 2007 71 249 263 MNLMBB
loop_
_publ_author_name
'Schwendtner, K.'
'Kolitsch, U.'
_cell_length_a 6.583(1)
_cell_length_b 8.007(2)
_cell_length_c 4.635(1)
_cell_angle_alpha 90.
_cell_angle_beta 104.13(3)
_cell_angle_gamma 90.
_cell_volume 236.92
_cell_formula_units_Z 2
_symmetry_space_group_name_H-M 'C 1 2 1'
_symmetry_Int_Tables_number 5
_refine_ls_R_factor_all 0.0152
loop_
_symmetry_equiv_pos_site_id
_symmetry_equiv_pos_as_xyz
1 '-x, y, -z'
2 'x, y, z'
3 '-x+1/2, y+1/2, -z'
4 'x+1/2, y+1/2, z'
loop_
_atom_type_symbol
_atom_type_oxidation_number
Li1+ 1
Al3+ 3
As5+ 5
O2- -2
loop_
_atom_site_label
_atom_site_type_symbol
_atom_site_symmetry_multiplicity
_atom_site_Wyckoff_symbol
_atom_site_fract_x
_atom_site_fract_y
_atom_site_fract_z
_atom_site_B_iso_or_equiv
_atom_site_occupancy
_atom_site_attached_hydrogens
Li1 Li1+ 2 b 0 0.7536(13) 0.5 0.034(3) 1. 0
Al1 Al3+ 2 b 0 0.37783(15) 0.5 0.0054(2) 1. 0
As1 As5+ 4 c 0.21474(3) 0.03645(4) 0.90646(4) 0.00452(8) 1. 0
O1 O2- 2 a 0 0.9453(3) 0 0.0097(5) 1. 0
O2 O2- 4 c 0.3936(3) 0.0556(3) 0.2307(4) 0.0065(4) 1. 0
O3 O2- 4 c 0.1515(3) 0.2226(2) 0.7606(4) 0.0110(4) 1. 0
O4 O2- 4 c 0.2547(3) 0.8944(2) 0.6620(4) 0.0076(3) 1. 0
loop_
_atom_site_aniso_label
_atom_site_aniso_type_symbol
_atom_site_aniso_U_11
_atom_site_aniso_U_22
_atom_site_aniso_U_33
_atom_site_aniso_U_12
_atom_site_aniso_U_13
_atom_site_aniso_U_23
Li1 Li1+ 0.030(5) 0.018(5) 0.048(7) 0. -0.004(4) 0.
Al1 Al3+ 0.0056(5) 0.0061(6) 0.0044(5) 0. 0.0010(4) 0.
As1 As5+ 0.00484(10) 0.00437(11) 0.00414(10) 0.00018(12) 0.00069(6) 0.00008(11)
O1 O2- 0.0053(10) 0.0091(12) 0.0164(12) 0. 0.0060(9) 0.
O2 O2- 0.0072(6) 0.0060(13) 0.0039(6) 0.0013(7) -0.0034(5) 0.0001(7)
O3 O2- 0.0138(9) 0.0065(9) 0.0103(9) 0.0021(6) -0.0016(7) 0.0037(6)
O4 O2- 0.0082(7) 0.0085(8) 0.0072(7) -0.0011(6) 0.0038(6) -0.0027(6)
#End of TTdata_161498-ICSD