
#(C) 2018 by FIZ Karlsruhe - Leibniz Institute for Information Infrastructure.  All rights reserved.
data_161773-ICSD
_database_code_ICSD 161773
_audit_creation_date 2009-02-01
_chemical_name_systematic 'Lithium magnesium ruthenate(V) (3.06/1.94/1)'
_chemical_formula_structural '(Li3.06 Mg1.94) (Ru O6)'
_chemical_formula_sum 'Li3.06 Mg1.94 O6 Ru1'
_chemical_name_structure_type Li3Ni2TaO6
_exptl_crystal_density_diffrn 4.04
_cell_measurement_temperature 293.
_publ_section_title

;
Long-range antiferromagnetic ordering in the novel magnetically frustrated
rock salt oxide system: Li3 Mg2 Ru O6
;
loop_
_citation_id
_citation_journal_full
_citation_year
_citation_journal_volume
_citation_page_first
_citation_page_last
_citation_journal_id_ASTM
primary 'Chemistry of Materials' 2008 20 5714 5720 CMATEX
loop_
_publ_author_name
'Derakhshan, S.'
'Greedan, J.E.'
'Katsumata, T.'
'Cranswick, L.M.D.'
_cell_length_a 5.87589(18)
_cell_length_b 8.42064(11)
_cell_length_c 17.6455(5)
_cell_angle_alpha 90.
_cell_angle_beta 90.
_cell_angle_gamma 90.
_cell_volume 873.08
_cell_formula_units_Z 8
_symmetry_space_group_name_H-M 'F d d d Z'
_symmetry_Int_Tables_number 70
_refine_ls_R_factor_all 0.0306
loop_
_symmetry_equiv_pos_site_id
_symmetry_equiv_pos_as_xyz
1 'x+3/4, y+3/4, -z'
2 'x+3/4, -y, z+3/4'
3 '-x, y+3/4, z+3/4'
4 '-x, -y, -z'
5 '-x+1/4, -y+1/4, z'
6 '-x+1/4, y, -z+1/4'
7 'x, -y+1/4, -z+1/4'
8 'x, y, z'
9 'x+3/4, y+1/4, -z+1/2'
10 'x+3/4, -y+1/2, z+1/4'
11 '-x, y+1/4, z+1/4'
12 '-x, -y+1/2, -z+1/2'
13 '-x+1/4, -y+3/4, z+1/2'
14 '-x+1/4, y+1/2, -z+3/4'
15 'x, -y+3/4, -z+3/4'
16 'x, y+1/2, z+1/2'
17 'x+1/4, y+3/4, -z+1/2'
18 'x+1/4, -y, z+1/4'
19 '-x+1/2, y+3/4, z+1/4'
20 '-x+1/2, -y, -z+1/2'
21 '-x+3/4, -y+1/4, z+1/2'
22 '-x+3/4, y, -z+3/4'
23 'x+1/2, -y+1/4, -z+3/4'
24 'x+1/2, y, z+1/2'
25 'x+1/4, y+1/4, -z'
26 'x+1/4, -y+1/2, z+3/4'
27 '-x+1/2, y+1/4, z+3/4'
28 '-x+1/2, -y+1/2, -z'
29 '-x+3/4, -y+3/4, z'
30 '-x+3/4, y+1/2, -z+1/4'
31 'x+1/2, -y+3/4, -z+1/4'
32 'x+1/2, y+1/2, z'
loop_
_atom_type_symbol
_atom_type_oxidation_number
Ru5+ 5.06
Li1+ 1
Mg2+ 2
Li1+ 1
Mg2+ 2
Li1+ 1
Mg2+ 2
O2- -2
loop_
_atom_site_label
_atom_site_type_symbol
_atom_site_symmetry_multiplicity
_atom_site_Wyckoff_symbol
_atom_site_fract_x
_atom_site_fract_y
_atom_site_fract_z
_atom_site_B_iso_or_equiv
_atom_site_occupancy
_atom_site_attached_hydrogens
Ru1 Ru5+ 8 a 0.125 0.125 0.125 0.0070(11) 1. 0
Li1 Li1+ 16 g 0.125 0.125 0.2939(4) 0.0052(18) 0.331(5) 0
Mg1 Mg2+ 16 g 0.125 0.125 0.2939(4) 0.0052(18) 0.669(5) 0
Li2 Li1+ 16 g 0.125 0.625 0.299(4) 0.015 0.780(5) 0
Mg2 Mg2+ 16 g 0.125 0.625 0.299(4) 0.015 0.220(5) 0
Li3 Li1+ 8 b 0.125 0.625 0.125 0.015 0.837(7) 0
Mg3 Mg2+ 8 b 0.125 0.625 0.125 0.015 0.163(7) 0
O1 O2- 16 f 0.125 0.3576(4) 0.125 0.0073(11) 1. 0
O2 O2- 32 h 0.11140(29) 0.37468(29) 0.29613(18) 0.0069(6) 1. 0
#End of TTdata_161773-ICSD