
#(C) 2019 by FIZ Karlsruhe - Leibniz Institute for Information Infrastructure.  All rights reserved.
data_161733-ICSD
_database_code_ICSD 161733
_audit_creation_date 2009-02-01
_chemical_name_systematic 'Disodium iron(III) titanium tris(phosphate(V))'
_chemical_formula_structural 'Na2 Fe Ti (P O4)3'
_chemical_formula_sum 'Fe1 Na2 O12 P3 Ti1'
_chemical_name_structure_type Na2TiFe(PO4)3
_exptl_crystal_density_diffrn 3.11
_cell_measurement_temperature 293.
_publ_section_title
'Synthesis and crystal structure of phosphates A2 Fe Ti (P O4)3 (A= Na, Rb)'
loop_
_citation_id
_citation_journal_full
_citation_year
_citation_journal_volume
_citation_page_first
_citation_page_last
_citation_journal_id_ASTM
primary 'Zhurnal Neorganicheskoi Khimii' 2008 53 45 52 ZNOKAQ
loop_
_publ_author_name
'Asabina, E.A.'
'Pet'kov, V.I. (Petkov, V.I.)'
'Gobechiya, E.R.'
'Kabalov, Yu.K.'
'Pokholok, K.V.'
'Kurazhkovskaya, V.S.'
_cell_length_a 8.6015(1)
_cell_length_b 8.6015(1)
_cell_length_c 21.718(1)
_cell_angle_alpha 90.
_cell_angle_beta 90.
_cell_angle_gamma 120.
_cell_volume 1391.55
_cell_formula_units_Z 6
_symmetry_space_group_name_H-M 'R -3 c H'
_symmetry_Int_Tables_number 167
_refine_ls_R_factor_all 0.0207
loop_
_symmetry_equiv_pos_site_id
_symmetry_equiv_pos_as_xyz
1 'x-y, -y, -z+1/2'
2 '-x, -x+y, -z+1/2'
3 'y, x, -z+1/2'
4 'x-y, x, -z'
5 'y, -x+y, -z'
6 '-x, -y, -z'
7 '-x+y, y, z+1/2'
8 'x, x-y, z+1/2'
9 '-y, -x, z+1/2'
10 '-x+y, -x, z'
11 '-y, x-y, z'
12 'x, y, z'
13 'x-y+2/3, -y+1/3, -z+5/6'
14 '-x+2/3, -x+y+1/3, -z+5/6'
15 'y+2/3, x+1/3, -z+5/6'
16 'x-y+2/3, x+1/3, -z+1/3'
17 'y+2/3, -x+y+1/3, -z+1/3'
18 '-x+2/3, -y+1/3, -z+1/3'
19 '-x+y+2/3, y+1/3, z+5/6'
20 'x+2/3, x-y+1/3, z+5/6'
21 '-y+2/3, -x+1/3, z+5/6'
22 '-x+y+2/3, -x+1/3, z+1/3'
23 '-y+2/3, x-y+1/3, z+1/3'
24 'x+2/3, y+1/3, z+1/3'
25 'x-y+1/3, -y+2/3, -z+1/6'
26 '-x+1/3, -x+y+2/3, -z+1/6'
27 'y+1/3, x+2/3, -z+1/6'
28 'x-y+1/3, x+2/3, -z+2/3'
29 'y+1/3, -x+y+2/3, -z+2/3'
30 '-x+1/3, -y+2/3, -z+2/3'
31 '-x+y+1/3, y+2/3, z+1/6'
32 'x+1/3, x-y+2/3, z+1/6'
33 '-y+1/3, -x+2/3, z+1/6'
34 '-x+y+1/3, -x+2/3, z+2/3'
35 '-y+1/3, x-y+2/3, z+2/3'
36 'x+1/3, y+2/3, z+2/3'
loop_
_atom_type_symbol
_atom_type_oxidation_number
Na1+ 1
Fe3+ 3
Ti4+ 4
P5+ 5
O2- -2
loop_
_atom_site_label
_atom_site_type_symbol
_atom_site_symmetry_multiplicity
_atom_site_Wyckoff_symbol
_atom_site_fract_x
_atom_site_fract_y
_atom_site_fract_z
_atom_site_B_iso_or_equiv
_atom_site_occupancy
_atom_site_attached_hydrogens
Na1 Na1+ 6 b 0 0 0 2.8(3) 1. 0
Na2 Na1+ 18 e 0.639(2) 0 0.25 1.8(6) 0.336(8) 0
Fe1 Fe3+ 12 c 0 0 0.1472(2) 0.51(8) 0.51(3) 0
Ti1 Ti4+ 12 c 0 0 0.1472(2) 0.51(8) 0.51(3) 0
P1 P5+ 18 e 0.2903(3) 0 0.25 0.4(1) 1. 0
O1 O2- 36 f 0.1770(6) -0.0282(6) 0.1917(2) 0.6(2) 1. 0
O2 O2- 36 f 0.1933(6) 0.1677(5) 0.0843(3) 0.6(1) 1. 0
#End of TTdata_161733-ICSD