
#(C) 2019 by FIZ Karlsruhe - Leibniz Institute for Information Infrastructure.  All rights reserved.
data_161876-ICSD
_database_code_ICSD 161876
_audit_creation_date 2009-02-01
_audit_update_record 2015-02-01
_chemical_name_systematic

;
Sodium aluminium silicon oxide sulfate(V) trisulfide
(7.7/5.1/6.9/24/0.88/0.76)
;
_chemical_formula_structural 'Na7.7 ((Al5.1 Si6.9) O24) (S O4)0.88 (S3)0.76'
_chemical_formula_sum 'Al5.1 Na7.7 O27.52 S3.16 Si6.9'
_chemical_name_structure_type Na1-x(Al,Si)12O24(SO4)1-y(S3)1-z
_exptl_crystal_density_diffrn 2.32
_publ_section_title 'Cluster ordering in synthetic ultramarine pigments'
loop_
_citation_id
_citation_journal_full
_citation_year
_citation_journal_volume
_citation_page_first
_citation_page_last
_citation_journal_id_ASTM
primary 'Microporous and Mesoporous Materials' 2008 116 344 351 MIMMFJ
loop_
_publ_author_name
'Climent-Pascual, E.'
'Saez-Puche, R.'
'Gomez-Herrero, A.'
'Romero de Paz, J.'
_cell_length_a 9.09281(10)
_cell_length_b 9.09281(10)
_cell_length_c 9.09281(10)
_cell_angle_alpha 90.
_cell_angle_beta 90.
_cell_angle_gamma 90.
_cell_volume 751.79
_cell_formula_units_Z 1
_symmetry_space_group_name_H-M 'P 2 3'
_symmetry_Int_Tables_number 195
_refine_ls_R_factor_all 0.0442
loop_
_symmetry_equiv_pos_site_id
_symmetry_equiv_pos_as_xyz
1 '-z, -x, y'
2 '-y, -z, x'
3 '-x, -y, z'
4 '-z, x, -y'
5 '-y, z, -x'
6 '-x, y, -z'
7 'z, -x, -y'
8 'y, -z, -x'
9 'x, -y, -z'
10 'z, x, y'
11 'y, z, x'
12 'x, y, z'
loop_
_atom_type_symbol
_atom_type_oxidation_number
Si4+ 4
Al3+ 3
Si4+ 4
Al3+ 3
O2- -2
Na1+ 1
S6+ 6
O2- -2
S6+ 6
O2- -2
S0+ -0.333
loop_
_atom_site_label
_atom_site_type_symbol
_atom_site_symmetry_multiplicity
_atom_site_Wyckoff_symbol
_atom_site_fract_x
_atom_site_fract_y
_atom_site_fract_z
_atom_site_B_iso_or_equiv
_atom_site_occupancy
_atom_site_attached_hydrogens
Si1 Si4+ 6 g 0.5 0.2485(4) 0 2.13(3) 0.567 0
Al1 Al3+ 6 g 0.5 0.2485(4) 0 2.13(3) 0.433 0
Si2 Si4+ 6 h 0.5 0 0.2485(4) 2.13(3) 0.567 0
Al2 Al3+ 6 h 0.5 0 0.2485(4) 2.13(3) 0.433 0
O1 O2- 12 j 0.3575(6) 0.3592(6) -0.0105(12) 2.13(3) 1. 0
O2 O2- 12 j 0.147(3) 0.137(3) 0.544(3) 2.13(3) 0.29(2) 0
O3 O2- 12 j 0.1651(6) 0.1546(6) 0.4766(15) 2.13(3) 0.71(2) 0
Na1 Na1+ 4 e 0.7697(18) 0.7697(18) 0.7697(18) 2.13(3) 0.63(3) 0
Na2 Na1+ 4 e 0.324(3) 0.324(3) 0.324(3) 2.13(3) 0.35(3) 0
Na3 Na1+ 4 e 0.270(2) 0.270(2) 0.270(2) 2.13(3) 0.55(3) 0
Na4 Na1+ 4 e 0.821(3) 0.821(3) 0.821(3) 2.13(3) 0.40(3) 0
S1 S6+ 1 a 0 0 0 2.13(3) 0.384(12) 0
O4 O2- 4 e 0.8987(4) 0.8987(4) 0.8987(4) 2.13(3) 0.38(7) 0
S2 S6+ 1 b 0.5 0.5 0.5 2.13(3) 0.492(12) 0
O5 O2- 4 e 0.3992(4) 0.3992(4) 0.3992(4) 2.13(3) 0.49(7) 0
S3 S0+ 6 i 0.3311(14) 0.5 0.5 2.13(3) 0.244(6) 0
S4 S0+ 6 f 0.126(2) 0 0 2.13(3) 0.136(6) 0
#End of TTdata_161876-ICSD