
#(C) 2019 by FIZ Karlsruhe - Leibniz Institute for Information Infrastructure.  All rights reserved.
data_161995-ICSD
_database_code_ICSD 161995
_audit_creation_date 2009-02-01
_chemical_name_systematic 'Sodium tripotassium octaborate'
_chemical_formula_structural '(Na0.25 K0.75)4 (B8 O14)'
_chemical_formula_sum 'B8 K3 Na1 O14'
_chemical_name_structure_type K2B4O7
_exptl_crystal_density_diffrn 2.41
_cell_measurement_temperature 773.
_publ_section_title

;
Thermal "order-disorder" behaviour in (Na1-x Kx)4 B8 O14 solid solutions
investigated by X-ray powder diffraction
;
loop_
_citation_id
_citation_journal_full
_citation_year
_citation_journal_volume
_citation_page_first
_citation_page_last
_citation_journal_id_ASTM
primary 'Crystal Research and Technology' 2008 43 1150 1160 CRTEDF
loop_
_publ_author_name
'Georgievskaya, M.'
'Albert, B.'
'Bubnova, R.'
'Cordier, G.'
'Baehtz, C.'
'Filatov, S.'
_cell_length_a 6.473(2)
_cell_length_b 9.644(2)
_cell_length_c 10.408(3)
_cell_angle_alpha 88.90(3)
_cell_angle_beta 102.47(3)
_cell_angle_gamma 101.57(2)
_cell_volume 621.31
_cell_formula_units_Z 2
_symmetry_space_group_name_H-M 'P -1'
_symmetry_Int_Tables_number 2
_refine_ls_R_factor_all 0.024
loop_
_symmetry_equiv_pos_site_id
_symmetry_equiv_pos_as_xyz
1 '-x, -y, -z'
2 'x, y, z'
loop_
_atom_type_symbol
_atom_type_oxidation_number
O2- -2
B3+ 3
K1+ 1
Na1+ 1
K1+ 1
Na1+ 1
K1+ 1
Na1+ 1
K1+ 1
Na1+ 1
loop_
_atom_site_label
_atom_site_type_symbol
_atom_site_symmetry_multiplicity
_atom_site_Wyckoff_symbol
_atom_site_fract_x
_atom_site_fract_y
_atom_site_fract_z
_atom_site_B_iso_or_equiv
_atom_site_occupancy
_atom_site_attached_hydrogens
O1 O2- 2 i 0.0109(11) 0.1976(11) 0.9647(5) 1.4(4) 1. 0
O2 O2- 2 i 0.7989(13) 0.1030(9) 0.1416(6) 1.4(4) 1. 0
O3 O2- 2 i 0.8114(14) 0.3343(9) 0.0920(8) 1.4(4) 1. 0
O4 O2- 2 i 0.1493(9) 0.2600(10) 0.1895(5) 1.4(4) 1. 0
O5 O2- 2 i 0.9568(11) 0.1730(8) 0.3624(6) 1.4(4) 1. 0
O6 O2- 2 i 0.3114(8) 0.3213(8) 0.4140(6) 1.4(4) 1. 0
O7 O2- 2 i 0.0233(13) 0.4294(8) 0.3034(8) 1.4(4) 1. 0
O8 O2- 2 i 0.3237(14) 0.0261(6) 0.6793(8) 1.4(4) 1. 0
O9 O2- 2 i 0.6640(7) 0.1316(10) 0.8303(7) 1.4(4) 1. 0
O10 O2- 2 i 0.3464(13) 0.2399(9) 0.8047(8) 1.4(4) 1. 0
O11 O2- 2 i 0.2273(15) 0.4442(7) 0.8249(8) 1.4(4) 1. 0
O12 O2- 2 i 0.5037(12) 0.2248(10) 0.6179(7) 1.4(4) 1. 0
O13 O2- 2 i 0.1989(15) 0.3505(10) 0.6040(7) 1.4(4) 1. 0
O14 O2- 2 i 0.9501(11) 0.2389(12) 0.7299(7) 1.4(4) 1. 0
B1 B3+ 2 i 0.9421(9) 0.2237(7) 0.0880(6) 1.4(4) 1. 0
B2 B3+ 2 i 0.1044(10) 0.2941(6) 0.3170(6) 1.4(4) 1. 0
B3 B3+ 2 i 0.4655(10) 0.1565(6) 0.7403(6) 1.4(4) 1. 0
B4 B3+ 2 i 0.1753(9) 0.3146(6) 0.7406(6) 1.4(4) 1. 0
B5 B3+ 2 i 0.7994(26) 0.0868(15) 0.2737(5) 1.4(4) 1. 0
B6 B3+ 2 i 0.8580(27) 0.4364(13) 0.1937(11) 1.4(4) 1. 0
B7 B3+ 2 i 0.8746(11) 0.1963(24) 0.8413(6) 1.4(4) 1. 0
B8 B3+ 2 i 0.3445(23) 0.2950(20) 0.5485(7) 1.4(4) 1. 0
K1 K1+ 2 i 0.3742(9) 0.1160(6) 0.0408(6) 3.05(8) 0.61(2) 0
Na1 Na1+ 2 i 0.3742(9) 0.1160(6) 0.0408(6) 3.05(8) 0.39(2) 0
K2 K1+ 2 i 0.3377(7) 0.5119(5) 0.1312(5) 3.44(8) 0.92(2) 0
Na2 Na1+ 2 i 0.3377(7) 0.5119(5) 0.1312(5) 3.44(8) 0.08(2) 0
K3 K1+ 2 i 0.7801(8) 0.3727(6) 0.5013(5) 2.99(9) 0.54(2) 0
Na3 Na1+ 2 i 0.7801(8) 0.3727(6) 0.5013(5) 2.99(9) 0.46(2) 0
K4 K1+ 2 i 0.2428(7) 0.9880(5) 0.4093(5) 3.15(8) 0.93(2) 0
Na4 Na1+ 2 i 0.2428(7) 0.9880(5) 0.4093(5) 3.15(8) 0.07(2) 0
#End of TTdata_161995-ICSD