
#(C) 2018 by FIZ Karlsruhe - Leibniz Institute for Information Infrastructure.  All rights reserved.
data_162095-ICSD
_database_code_ICSD 162095
_audit_creation_date 2009-08-01
_chemical_name_systematic 'Lithium iron arsenide (0.99/1/0.98)'
_chemical_formula_structural 'Li0.99 Fe As0.977'
_chemical_formula_sum 'As0.977 Fe1 Li0.99'
_chemical_name_structure_type PbClF
_exptl_crystal_density_diffrn 4.98
_cell_measurement_temperature 295.
_publ_section_title 'Structure and superconductivity of Li Fe As'
loop_
_citation_id
_citation_journal_full
_citation_year
_citation_journal_volume
_citation_page_first
_citation_page_last
_citation_journal_id_ASTM
primary 'Chemical Communications (Cambridge, United Kingdom)' 2008 2008 5918
5920 CHCOFS
loop_
_publ_author_name
'Pitcher, M.J.'
'Parker, D.R.'
'Adamson, P.'
'Herkelrath, S.J.C.'
'Boothroyd, A.T.'
'Ibberson, R.M.'
'Brunelli, M.'
'Clarke, S.J.'
_cell_length_a 3.7773(7)
_cell_length_b 3.7773(7)
_cell_length_c 6.3565(1)
_cell_angle_alpha 90.
_cell_angle_beta 90.
_cell_angle_gamma 90.
_cell_volume 90.69
_cell_formula_units_Z 2
_symmetry_space_group_name_H-M 'P 4/n m m Z'
_symmetry_Int_Tables_number 129
_refine_ls_R_factor_all 0.0264
loop_
_symmetry_equiv_pos_site_id
_symmetry_equiv_pos_as_xyz
1 'y+1/2, x+1/2, -z'
2 '-y, x+1/2, -z'
3 'y+1/2, -x, -z'
4 '-y, -x, -z'
5 'x+1/2, y+1/2, -z'
6 '-x, y+1/2, -z'
7 'x+1/2, -y, -z'
8 '-x, -y, -z'
9 '-y+1/2, -x+1/2, z'
10 'y, -x+1/2, z'
11 '-y+1/2, x, z'
12 'y, x, z'
13 '-x+1/2, -y+1/2, z'
14 'x, -y+1/2, z'
15 '-x+1/2, y, z'
16 'x, y, z'
loop_
_atom_type_symbol
_atom_type_oxidation_number
Fe2+ 2
Li1+ 1
As3- -3
loop_
_atom_site_label
_atom_site_type_symbol
_atom_site_symmetry_multiplicity
_atom_site_Wyckoff_symbol
_atom_site_fract_x
_atom_site_fract_y
_atom_site_fract_z
_atom_site_B_iso_or_equiv
_atom_site_occupancy
_atom_site_attached_hydrogens
Fe1 Fe2+ 2 a 0.75 0.25 0 0.0065(2) 1. 0
Li1 Li1+ 2 c 0.25 0.25 0.6551(4) 0.0177(9) 0.99(1) 0
As1 As3- 2 c 0.25 0.25 0.23654(9) 0.0065(2) 0.977(3) 0
loop_
_atom_site_aniso_label
_atom_site_aniso_type_symbol
_atom_site_aniso_U_11
_atom_site_aniso_U_22
_atom_site_aniso_U_33
_atom_site_aniso_U_12
_atom_site_aniso_U_13
_atom_site_aniso_U_23
Fe1 Fe2+ 0.0066(1) 0.0066(1) 0.0064(2) 0. 0. 0.
Li1 Li1+ 0.0213(8) 0.0213(8) 0.011(1) 0. 0. 0.
As1 As3- 0.0063(2) 0.0063(2) 0.0070(3) 0. 0. 0.
#End of TTdata_162095-ICSD