
#(C) 2019 by FIZ Karlsruhe - Leibniz Institute for Information Infrastructure.  All rights reserved.
data_1622-ICSD
_database_code_ICSD 1622
_audit_creation_date 1980-01-01
_audit_update_record 2010-02-01
_chemical_name_systematic 'Disodium catena-germanate'
_chemical_formula_structural 'Na2 (Ge O3)'
_chemical_formula_sum 'Ge1 Na2 O3'
_chemical_name_structure_type Na2SiO3
_exptl_crystal_density_diffrn 3.33
_publ_section_title 'A reinvestigation of sodium metagermanate'
loop_
_citation_id
_citation_journal_full
_citation_year
_citation_journal_volume
_citation_page_first
_citation_page_last
_citation_journal_id_ASTM
primary

;
Acta Crystallographica, Section B: Structural Crystallography and Crystal
Chemistry
; 1978 34 1333 1334 ACBCAR
loop_
_publ_author_name
'Cruickshank, D.W.J.'
'Kalman, A.'
'Stephens, J.S.'
_cell_length_a 10.845(3)
_cell_length_b 6.224(3)
_cell_length_c 4.918(1)
_cell_angle_alpha 90.
_cell_angle_beta 90.
_cell_angle_gamma 90.
_cell_volume 331.96
_cell_formula_units_Z 4
_symmetry_space_group_name_H-M 'C m c 21'
_symmetry_Int_Tables_number 36
_refine_ls_R_factor_all 0.0264
loop_
_symmetry_equiv_pos_site_id
_symmetry_equiv_pos_as_xyz
1 'x, -y, z+1/2'
2 '-x, -y, z+1/2'
3 '-x, y, z'
4 'x, y, z'
5 'x+1/2, -y+1/2, z+1/2'
6 '-x+1/2, -y+1/2, z+1/2'
7 '-x+1/2, y+1/2, z'
8 'x+1/2, y+1/2, z'
loop_
_atom_type_symbol
_atom_type_oxidation_number
Na1+ 1
Ge4+ 4
O2- -2
loop_
_atom_site_label
_atom_site_type_symbol
_atom_site_symmetry_multiplicity
_atom_site_Wyckoff_symbol
_atom_site_fract_x
_atom_site_fract_y
_atom_site_fract_z
_atom_site_B_iso_or_equiv
_atom_site_occupancy
_atom_site_attached_hydrogens
Na1 Na1+ 8 b 0.16760(8) 0.33982(12) 0 . 1. 0
Ge1 Ge4+ 4 a 0 0.16296(3) 0.53641(30) . 1. 0
O1 O2- 8 b 0.13596(14) 0.29444(23) 0.47603(43) . 1. 0
O2 O2- 4 a 0 0.10277(30) 0.89613(52) . 1. 0
loop_
_atom_site_aniso_label
_atom_site_aniso_type_symbol
_atom_site_aniso_U_11
_atom_site_aniso_U_22
_atom_site_aniso_U_33
_atom_site_aniso_U_12
_atom_site_aniso_U_13
_atom_site_aniso_U_23
Na1 Na1+ 0.0121(3) 0.0129(3) 0.0118(9) 0.0000(4) -.0002(4) -.0004(8)
Ge1 Ge4+ 0.0068(1) 0.0049(1) 0.0054(1) 0 0 0.0002(2)
O1 O2- 0.0091(5) 0.0112(5) 0.0132(6) -.0027(8) 0.0000(8) 0.0015(8)
O2 O2- 0.0169(8) 0.0059(6) 0.0063(6) 0 0 0.0014(10)
#End of TTdata_1622-ICSD