
#(C) 2019 by FIZ Karlsruhe - Leibniz Institute for Information Infrastructure.  All rights reserved.
data_162491-ICSD
_database_code_ICSD 162491
_audit_creation_date 2009-08-01
_chemical_name_systematic 'Octasodium tecto-hexaalumohexasilicate dichloride'
_chemical_formula_structural 'Na8 (Al6 Si6 O24) Cl2'
_chemical_formula_sum 'Al6 Cl2 Na8 O24 Si6'
_chemical_name_structure_type Sodalite-frame
_chemical_name_mineral Sodalite
_exptl_crystal_density_diffrn 2.3
_publ_section_title

;
State-of-the-art high-resolution powder X-ray diffraction (HRPXRD) illustrated
with Rietveld structure refinement of quartz, sodalite, tremolite and meionite
;
loop_
_citation_id
_citation_journal_full
_citation_year
_citation_journal_volume
_citation_page_first
_citation_page_last
_citation_journal_id_ASTM
primary 'Canadian Mineralogist' 2008 46 1501 1509 CAMIA6
loop_
_publ_author_name
'Antao, S.M.'
'Hassan, I.'
'Wang Jun'
'Lee, L.P.'
'Toby, B.H.'
_cell_length_a 8.880679(3)
_cell_length_b 8.880679(3)
_cell_length_c 8.880679(3)
_cell_angle_alpha 90.
_cell_angle_beta 90.
_cell_angle_gamma 90.
_cell_volume 700.39
_cell_formula_units_Z 1
_symmetry_space_group_name_H-M 'P -4 3 n'
_symmetry_Int_Tables_number 218
_refine_ls_R_factor_all 0.0371
loop_
_symmetry_equiv_pos_site_id
_symmetry_equiv_pos_as_xyz
1 '-z+1/2, y+1/2, -x+1/2'
2 '-y+1/2, x+1/2, -z+1/2'
3 '-x+1/2, z+1/2, -y+1/2'
4 'z+1/2, -y+1/2, -x+1/2'
5 'y+1/2, -x+1/2, -z+1/2'
6 'x+1/2, -z+1/2, -y+1/2'
7 '-z+1/2, -y+1/2, x+1/2'
8 '-y+1/2, -x+1/2, z+1/2'
9 '-x+1/2, -z+1/2, y+1/2'
10 'z+1/2, y+1/2, x+1/2'
11 'y+1/2, x+1/2, z+1/2'
12 'x+1/2, z+1/2, y+1/2'
13 '-z, -x, y'
14 '-y, -z, x'
15 '-x, -y, z'
16 'z, -x, -y'
17 'y, -z, -x'
18 'x, -y, -z'
19 '-z, x, -y'
20 '-y, z, -x'
21 '-x, y, -z'
22 'z, x, y'
23 'y, z, x'
24 'x, y, z'
loop_
_atom_type_symbol
_atom_type_oxidation_number
Al3+ 3
Si4+ 4
O2- -2
Na1+ 1
Cl1- -1
loop_
_atom_site_label
_atom_site_type_symbol
_atom_site_symmetry_multiplicity
_atom_site_Wyckoff_symbol
_atom_site_fract_x
_atom_site_fract_y
_atom_site_fract_z
_atom_site_B_iso_or_equiv
_atom_site_occupancy
_atom_site_attached_hydrogens
Al1 Al3+ 6 d 0.25 0 0.5 0.0049 1. 0
Si1 Si4+ 6 c 0.25 0.5 0 0.0048 1. 0
O1 O2- 24 i 0.13780(3) 0.14915(3) 0.43910(3) 0.0106 1. 0
Na1 Na1+ 8 e 0.17772(2) 0.17772(2) 0.17772(2) 0.0181 1. 0
Cl1 Cl1- 2 a 0 0 0 0.0247 1. 0
loop_
_atom_site_aniso_label
_atom_site_aniso_type_symbol
_atom_site_aniso_U_11
_atom_site_aniso_U_22
_atom_site_aniso_U_33
_atom_site_aniso_U_12
_atom_site_aniso_U_13
_atom_site_aniso_U_23
Al1 Al3+ 0.0050(3) 0.0049(2) 0.0049(2) 0. 0. 0.
Si1 Si4+ 0.0035(2) 0.0054(1) 0.0054(1) 0. 0. 0.
O1 O2- 0.0172(3) 0.0063(3) 0.0082(2) 0.0012(1) -0.0034(2) 0.0051(2)
Na1 Na1+ 0.01807(7) 0.01807(7) 0.01807(7) 0.00135(9) 0.00135(9) 0.00135(9)
Cl1 Cl1- 0.02466(7) 0.02466(7) 0.02466(7) 0. 0. 0.
#End of TTdata_162491-ICSD