
#(C) 2019 by FIZ Karlsruhe - Leibniz Institute for Information Infrastructure.  All rights reserved.
data_162547-ICSD
_database_code_ICSD 162547
_audit_creation_date 2009-08-01
_chemical_name_systematic 'Sodium aluminium catena-disilicate'
_chemical_formula_structural 'Na Al (Si2 O6)'
_chemical_formula_sum 'Al1 Na1 O6 Si2'
_chemical_name_structure_type Pyroxene-CaMg(SiO3)2
_chemical_name_mineral Jadeite
_exptl_crystal_density_diffrn 3.34
_cell_measurement_temperature 203.6
_publ_section_title

;
Powder neutron-diffraction studies of clinopyroxenes. I. the crystal structure
and thermoelastic properties of jadeite between 1.5 and 270 K
;
loop_
_citation_id
_citation_journal_full
_citation_year
_citation_journal_volume
_citation_page_first
_citation_page_last
_citation_journal_id_ASTM
primary 'Canadian Mineralogist' 2008 46 1593 1622 CAMIA6
loop_
_publ_author_name
'Knight, K.S.'
'Price, G.D.'
_cell_length_a 9.42012(9)
_cell_length_b 8.56099(4)
_cell_length_c 5.22221(20)
_cell_angle_alpha 90.
_cell_angle_beta 107.5709(7)
_cell_angle_gamma 90.
_cell_volume 401.5
_cell_formula_units_Z 4
_symmetry_space_group_name_H-M 'C 1 2/c 1'
_symmetry_Int_Tables_number 15
loop_
_symmetry_equiv_pos_site_id
_symmetry_equiv_pos_as_xyz
1 'x, -y, z+1/2'
2 '-x, -y, -z'
3 '-x, y, -z+1/2'
4 'x, y, z'
5 'x+1/2, -y+1/2, z+1/2'
6 '-x+1/2, -y+1/2, -z'
7 '-x+1/2, y+1/2, -z+1/2'
8 'x+1/2, y+1/2, z'
loop_
_atom_type_symbol
_atom_type_oxidation_number
Na1+ 1
Al3+ 3
Si4+ 4
O2- -2
loop_
_atom_site_label
_atom_site_type_symbol
_atom_site_symmetry_multiplicity
_atom_site_Wyckoff_symbol
_atom_site_fract_x
_atom_site_fract_y
_atom_site_fract_z
_atom_site_B_iso_or_equiv
_atom_site_occupancy
_atom_site_attached_hydrogens
Na1 Na1+ 4 e 0 0.3012(1) 0.25 0.0087(2) 1. 0
Al1 Al3+ 4 e 0 0.9067(1) 0.25 0.0028(1) 1. 0
Si1 Si4+ 8 f 0.29093(6) 0.09338(6) 0.2279(1) 0.00206(7) 1. 0
O1 O2- 8 f 0.10913(4) 0.07591(5) 0.12817(8) 0.00414(6) 1. 0
O2 O2- 8 f 0.36077(5) 0.26320(4) 0.29312(9) 0.00463(6) 1. 0
O3 O2- 8 f 0.35379(5) 0.00750(4) 0.00621(9) 0.00428(6) 1. 0
#End of TTdata_162547-ICSD