
#(C) 2018 by FIZ Karlsruhe - Leibniz Institute for Information Infrastructure.  All rights reserved.
data_162806-ICSD
_database_code_ICSD 162806
_audit_creation_date 2009-08-01
_chemical_name_systematic 'Lithium pentaferrate(III)'
_chemical_formula_structural 'Li (Fe5 O8)'
_chemical_formula_sum 'Fe5 Li1 O8'
_chemical_name_structure_type Spinel-LiFe5O8
_exptl_crystal_density_diffrn 4.75
_cell_measurement_temperature 296.
_publ_section_title 'Refinement of Li Fe5 O8 crystal structure'
loop_
_citation_id
_citation_journal_full
_citation_year
_citation_journal_volume
_citation_page_first
_citation_page_last
_citation_journal_id_ASTM
primary 'Zhurnal Strukturnoi Khimii (Issue-No. from 1981)' 2008 49 985 988
ZSTKAI
loop_
_publ_author_name
'Smolentsev, A.I.'
'Meshalkin, A.B.'
'Podberezskaya, N.V.'
'Kaplun, A.B.'
_cell_length_a 8.3339(1)
_cell_length_b 8.3339(1)
_cell_length_c 8.3339(1)
_cell_angle_alpha 90.
_cell_angle_beta 90.
_cell_angle_gamma 90.
_cell_volume 578.82
_cell_formula_units_Z 4
_symmetry_space_group_name_H-M 'P 43 3 2'
_symmetry_Int_Tables_number 212
_refine_ls_R_factor_all 0.0175
loop_
_symmetry_equiv_pos_site_id
_symmetry_equiv_pos_as_xyz
1 'z+1/4, y+3/4, -x+3/4'
2 '-z+3/4, y+1/4, x+3/4'
3 'y+1/4, x+3/4, -z+3/4'
4 '-y+3/4, x+1/4, z+3/4'
5 'x+1/4, z+3/4, -y+3/4'
6 '-x+3/4, z+1/4, y+3/4'
7 'z+3/4, -y+3/4, x+1/4'
8 '-z+1/4, -y+1/4, -x+1/4'
9 'y+3/4, -x+3/4, z+1/4'
10 '-y+1/4, -x+1/4, -z+1/4'
11 'x+3/4, -z+3/4, y+1/4'
12 '-x+1/4, -z+1/4, -y+1/4'
13 '-y+1/2, -z, x+1/2'
14 '-y, z+1/2, -x+1/2'
15 'y+1/2, -z+1/2, -x'
16 'y, z, x'
17 'z+1/2, -x+1/2, -y'
18 '-z+1/2, -x, y+1/2'
19 '-z, x+1/2, -y+1/2'
20 'z, x, y'
21 '-x+1/2, -y, z+1/2'
22 '-x, y+1/2, -z+1/2'
23 'x+1/2, -y+1/2, -z'
24 'x, y, z'
loop_
_atom_type_symbol
_atom_type_oxidation_number
Li1+ 1
Fe3+ 3
O2- -2
loop_
_atom_site_label
_atom_site_type_symbol
_atom_site_symmetry_multiplicity
_atom_site_Wyckoff_symbol
_atom_site_fract_x
_atom_site_fract_y
_atom_site_fract_z
_atom_site_B_iso_or_equiv
_atom_site_occupancy
_atom_site_attached_hydrogens
Li1 Li1+ 4 b 0.625 0.625 0.625 0.007(1) 1. 0
Fe1 Fe3+ 12 d 0.125 0.3676(1) -0.1176(1) 0.004(1) 1. 0
Fe2 Fe3+ 8 c -0.0022(1) -0.0022(1) -0.0022(1) 0.004(1) 1. 0
O1 O2- 8 c 0.3848(1) 0.3848(1) 0.3848(1) 0.004(1) 1. 0
O2 O2- 24 e 0.1169(1) 0.1278(1) 0.3839(1) 0.005(1) 1. 0
#End of TTdata_162806-ICSD