
#(C) 2018 by FIZ Karlsruhe - Leibniz Institute for Information Infrastructure.  All rights reserved.
data_163689-ICSD
_database_code_ICSD 163689
_audit_creation_date 2009-08-01
_chemical_name_systematic
'Dilithium dodecahydro-closo-dodecaborate tetrahydrate'
_chemical_formula_structural 'Li2 (B12 H12) (H2 O)4'
_chemical_formula_sum 'H20 B12 Li2 O4'
_exptl_crystal_density_diffrn 1.18
_cell_measurement_temperature 293.
_publ_section_title

;
Crystal structure, neutron vibrational spectroscopy, and DFT calculations of
Li2 B12 H12 * 4(H2 O)
;
loop_
_citation_id
_citation_journal_full
_citation_year
_citation_journal_volume
_citation_page_first
_citation_page_last
_citation_journal_id_ASTM
primary 'Inorganica Chimica Acta' 2009 362 3155 3158 ICHAA3
loop_
_publ_author_name
'Yousufuddin, M.'
'Her Jae-Hyuk'
'Zhou Wei'
'Jalisatgi, S.S.'
'Udovic, T.J.'
_cell_length_a 10.7889(3)
_cell_length_b 9.2487(3)
_cell_length_c 7.2845(2)
_cell_angle_alpha 90.
_cell_angle_beta 61.667(2)
_cell_angle_gamma 90.
_cell_volume 639.8
_cell_formula_units_Z 2
_symmetry_space_group_name_H-M 'C 1 2/m 1'
_symmetry_Int_Tables_number 12
_refine_ls_R_factor_all 0.019
loop_
_symmetry_equiv_pos_site_id
_symmetry_equiv_pos_as_xyz
1 '-x, y, -z'
2 '-x, -y, -z'
3 'x, -y, z'
4 'x, y, z'
5 '-x+1/2, y+1/2, -z'
6 '-x+1/2, -y+1/2, -z'
7 'x+1/2, -y+1/2, z'
8 'x+1/2, y+1/2, z'
loop_
_atom_type_symbol
_atom_type_oxidation_number
Li1+ 1
B0+ 0.833
O2- -2
H1+ 1
H1- -1
loop_
_atom_site_label
_atom_site_type_symbol
_atom_site_symmetry_multiplicity
_atom_site_Wyckoff_symbol
_atom_site_fract_x
_atom_site_fract_y
_atom_site_fract_z
_atom_site_B_iso_or_equiv
_atom_site_occupancy
_atom_site_attached_hydrogens
Li1 Li1+ 4 i 0.6452 0. 0.4628 3.9(5) 1. 0
B1 B0+ 8 j 0.1047 0.0972 -0.2193 2.5(1) 1. 0
B2 B0+ 8 j 0.0691 0.1572 0.0358 2.5(1) 1. 0
B3 B0+ 4 i -0.1765 0. 0.0777 2.5(1) 1. 0
B4 B0+ 4 i 0.0471 0. 0.1934 2.5(1) 1. 0
O1 O2- 4 h 0.5 0.1535 0.5 3.4(2) 1. 0
O2 O2- 4 i 0.6268 0. 0.7476 5.4(2) 1. 0
H1 H1+ 8 j 0.4295 0.217 0.5982 2.5(1) 1. 0
H2 H1+ 8 j 0.643 0.0819 0.814 2.5(1) 1. 0
H3 H1- 8 j 0.1766 0.164 -0.3701 2.5(1) 1. 0
H4 H1- 8 j 0.1166 0.2654 0.0603 2.5(1) 1. 0
H5 H1- 4 i -0.2979 0. 0.1311 2.5(1) 1. 0
H6 H1- 4 i 0.0795 0. 0.3264 2.5(1) 1. 0
#End of TTdata_163689-ICSD