
#(C) 2019 by FIZ Karlsruhe - Leibniz Institute for Information Infrastructure.  All rights reserved.
data_163897-ICSD
_database_code_ICSD 163897
_audit_creation_date 2009-08-01
_chemical_name_systematic
'Sodium magnesium aluminium silicon catena-disilicate (0.97/0.27/0.55/0.21/1)'
_chemical_formula_structural '(Mg0.24 Al0.55 Si0.21) (Na0.97 Mg0.03) (Si2 O6)'
_chemical_formula_sum 'Al0.55 Mg0.27 Na0.97 O6 Si2.21'
_chemical_name_structure_type Pyroxene-CaMg(SiO3)2
_chemical_name_mineral Unnamed_Clinopyroxene
_exptl_crystal_density_diffrn 3.31
_publ_section_title

;
X-ray diffraction and Raman spectroscopic study of clinopyroxenes with
six-coordinated Si in the Na (Mg0.5 Si0.5) Si2 O6 - Na Al Si2 O6 system
;
loop_
_citation_id
_citation_journal_full
_citation_year
_citation_journal_volume
_citation_page_first
_citation_page_last
_citation_journal_id_ASTM
primary 'American Mineralogist' 2009 94 942 949 AMMIAY
loop_
_publ_author_name
'Yang He Xiong'
'Konzett, J.'
'Frost, D.J.'
'Downs, R.T.'
_cell_length_a 9.4429(5)
_cell_length_b 8.5946(4)
_cell_length_c 5.2437(3)
_cell_angle_alpha 90.
_cell_angle_beta 107.741(3)
_cell_angle_gamma 90.
_cell_volume 405.33
_cell_formula_units_Z 4
_symmetry_space_group_name_H-M 'C 1 2/c 1'
_symmetry_Int_Tables_number 15
_refine_ls_R_factor_all 0.021
loop_
_symmetry_equiv_pos_site_id
_symmetry_equiv_pos_as_xyz
1 'x, -y, z+1/2'
2 '-x, -y, -z'
3 '-x, y, -z+1/2'
4 'x, y, z'
5 'x+1/2, -y+1/2, z+1/2'
6 '-x+1/2, -y+1/2, -z'
7 '-x+1/2, y+1/2, -z+1/2'
8 'x+1/2, y+1/2, z'
loop_
_atom_type_symbol
_atom_type_oxidation_number
Na1+ 1
Mg2+ 2
Al3+ 3
Si4+ 4
O2- -2
loop_
_atom_site_label
_atom_site_type_symbol
_atom_site_symmetry_multiplicity
_atom_site_Wyckoff_symbol
_atom_site_fract_x
_atom_site_fract_y
_atom_site_fract_z
_atom_site_B_iso_or_equiv
_atom_site_occupancy
_atom_site_attached_hydrogens
Na1 Na1+ 4 e 0 0.2994(1) 0.25 0.0140(2) 0.97 0
Mg1 Mg2+ 4 e 0 0.2994(1) 0.25 0.0140(2) 0.03 0
Mg2 Mg2+ 4 e 0 0.9051(1) 0.25 0.0052(3) 0.24 0
Al1 Al3+ 4 e 0 0.9051(1) 0.25 0.0052(3) 0.55 0
Si1 Si4+ 4 e 0 0.9051(1) 0.25 0.0052(3) 0.21 0
Si2 Si4+ 8 f 0.2905(1) 0.0928(1) 0.2296(1) 0.0064(1) 1. 0
O1 O2- 8 f 0.1094(1) 0.0765(1) 0.1291(2) 0.0135(3) 1. 0
O2 O2- 8 f 0.3608(1) 0.2625(1) 0.2962(2) 0.0123(2) 1. 0
O3 O2- 8 f 0.3534(1) 0.0076(1) 0.0078(2) 0.0103(2) 1. 0
loop_
_atom_site_aniso_label
_atom_site_aniso_type_symbol
_atom_site_aniso_U_11
_atom_site_aniso_U_22
_atom_site_aniso_U_33
_atom_site_aniso_U_12
_atom_site_aniso_U_13
_atom_site_aniso_U_23
Na1 Na1+ 0.0178(4) 0.0097(4) 0.0110(4) 0. -0.0008(3) 0.
Mg1 Mg2+ 0.0178(4) 0.0097(4) 0.0110(4) 0. -0.0008(3) 0.
Mg2 Mg2+ 0.0049(3) 0.0056(3) 0.0048(3) 0. 0.0012(2) 0.
Al1 Al3+ 0.0049(3) 0.0056(3) 0.0048(3) 0. 0.0012(2) 0.
Si1 Si4+ 0.0049(3) 0.0056(3) 0.0048(3) 0. 0.0012(2) 0.
Si2 Si4+ 0.0056(2) 0.0077(2) 0.0059(2) -0.0001(1) 0.0016(1) -0.0008(1)
O1 O2- 0.0058(3) 0.0171(4) 0.0169(4) 0.0007(3) 0.0023(3) -0.0065(3)
O2 O2- 0.0165(4) 0.0089(3) 0.0114(4) -0.0017(3) 0.0039(3) -0.0008(3)
O3 O2- 0.0095(3) 0.0143(4) 0.0072(3) 0.0021(3) 0.0026(3) -0.0019(3)
#End of TTdata_163897-ICSD