
#(C) 2019 by FIZ Karlsruhe - Leibniz Institute for Information Infrastructure.  All rights reserved.
data_163888-ICSD
_database_code_ICSD 163888
_audit_creation_date 2009-08-01
_audit_update_record 2015-08-01
_chemical_name_systematic 'Disodium magnesium bis(sulfate(VI)) pentahydrate'
_chemical_formula_structural 'Na2 Mg (S O4)2 (H2 O)5'
_chemical_formula_sum 'H10 Mg1 Na2 O13 S2'
_chemical_name_mineral Konyaite
_exptl_crystal_density_diffrn 2.12
_cell_measurement_temperature 180.
_publ_section_title

;
The crystal structure and hydrogen bonding of synthetic konyaite, Na2 Mg (S
O4)2 * 5(H2 O)
;
loop_
_citation_id
_citation_journal_full
_citation_year
_citation_journal_volume
_citation_page_first
_citation_page_last
_citation_journal_id_ASTM
primary 'American Mineralogist' 2009 94 1005 1011 AMMIAY
loop_
_publ_author_name
'Leduc, E.M.S.'
'Peterson, R.C.'
'Wang Ruiyao'
_cell_length_a 5.7690(8)
_cell_length_b 23.951(3)
_cell_length_c 8.0460(11)
_cell_angle_alpha 90.
_cell_angle_beta 95.425(2)
_cell_angle_gamma 90.
_cell_volume 1106.76
_cell_formula_units_Z 4
_symmetry_space_group_name_H-M 'P 1 21/c 1'
_symmetry_Int_Tables_number 14
_refine_ls_R_factor_all 0.0331
loop_
_symmetry_equiv_pos_site_id
_symmetry_equiv_pos_as_xyz
1 'x, -y+1/2, z+1/2'
2 '-x, -y, -z'
3 '-x, y+1/2, -z+1/2'
4 'x, y, z'
loop_
_atom_type_symbol
_atom_type_oxidation_number
Mg2+ 2
Na1+ 1
S6+ 6
O2- -2
H1+ 1
loop_
_atom_site_label
_atom_site_type_symbol
_atom_site_symmetry_multiplicity
_atom_site_Wyckoff_symbol
_atom_site_fract_x
_atom_site_fract_y
_atom_site_fract_z
_atom_site_B_iso_or_equiv
_atom_site_occupancy
_atom_site_attached_hydrogens
Mg1 Mg2+ 4 e 0.5349(1) 0.6408(1) 0.8182(1) 0.010(1) 1. 0
Na1 Na1+ 4 e 0.2203(2) 0.5495(1) 0.5513(1) 0.016(1) 1. 0
Na2 Na1+ 4 e 0.1837(2) 0.4453(1) 0.8445(1) 0.017(1) 1. 0
S1 S6+ 4 e 0.2878(1) 0.4911(1) 0.2009(1) 0.009(1) 1. 0
S2 S6+ 4 e 0.0047(1) 0.6677(1) 0.3255(1) 0.011(1) 1. 0
O1 O2- 4 e -0.0458(2) 0.6177(1) 0.4224(2) 0.017(1) 1. 0
O2 O2- 4 e 0.0538(3) 0.6495(1) 0.1567(2) 0.018(1) 1. 0
O3 O2- 4 e -0.1972(3) 0.7055(1) 0.3113(2) 0.016(1) 1. 0
O4 O2- 4 e 0.2114(2) 0.6969(1) 0.4066(2) 0.016(1) 1. 0
O5 O2- 4 e 0.1067(3) 0.4956(1) 0.3174(2) 0.016(1) 1. 0
O6 O2- 4 e 0.2264(3) 0.5270(1) 0.0562(2) 0.017(1) 1. 0
O7 O2- 4 e 0.2935(2) 0.4325(1) 0.1386(2) 0.013(1) 1. 0
O8 O2- 4 e 0.5153(2) 0.5067(1) 0.2860(2) 0.016(1) 1. 0
O9 O2- 4 e 0.2162(3) 0.6019(1) 0.8060(2) 0.013(1) 1. 0
O10 O2- 4 e 0.5383(3) 0.6245(1) 0.5616(2) 0.015(1) 1. 0
O11 O2- 4 e 0.8470(3) 0.6825(1) 0.8560(2) 0.014(1) 1. 0
O12 O2- 4 e 0.5039(3) 0.6514(1) 0.0720(2) 0.021(1) 1. 0
O13 O2- 4 e 0.3687(3) 0.7133(1) 0.7400(2) 0.017(1) 1. 0
H1 H1+ 4 e 0.107(5) 0.622(1) 0.802(3) 0.028(8) 1. 0
H2 H1+ 4 e 0.207(5) 0.582(1) 0.872(4) 0.033(9) 1. 0
H3 H1+ 4 e 0.471(6) 0.648(1) 0.503(4) 0.04(1) 1. 0
H4 H1+ 4 e 0.669(5) 0.622(1) 0.524(4) 0.033(8) 1. 0
H5 H1+ 4 e 0.909(5) 0.680(1) 0.944(4) 0.016(7) 1. 0
H6 H1+ 4 e 0.839(5) 0.718(1) 0.844(4) 0.042(9) 1. 0
H7 H1+ 4 e 0.574(5) 0.675(1) 0.138(4) 0.031(8) 1. 0
H8 H1+ 4 e 0.374(5) 0.650(1) 0.106(4) 0.031(8) 1. 0
H9 H1+ 4 e 0.324(5) 0.739(1) 0.792(4) 0.024(8) 1. 0
H10 H1+ 4 e 0.301(6) 0.715(2) 0.651(5) 0.06(1) 1. 0
loop_
_atom_site_aniso_label
_atom_site_aniso_type_symbol
_atom_site_aniso_U_11
_atom_site_aniso_U_22
_atom_site_aniso_U_33
_atom_site_aniso_U_12
_atom_site_aniso_U_13
_atom_site_aniso_U_23
Mg1 Mg2+ 0.010(1) 0.010(1) 0.010(1) 0.000(1) 0.000(1) 0.000(1)
Na1 Na1+ 0.019(1) 0.015(1) 0.014(1) -0.001(1) -0.004(1) -0.001(1)
Na2 Na1+ 0.020(1) 0.016(1) 0.014(1) -0.001(1) 0.000(1) 0.001(1)
S1 S6+ 0.010(1) 0.010(1) 0.009(1) 0.000(1) 0.000(1) 0.000(1)
S2 S6+ 0.010(1) 0.010(1) 0.011(1) 0.000(1) 0.000(1) 0.001(1)
O1 O2- 0.015(1) 0.014(1) 0.024(1) 0.000(1) 0.004(1) 0.006(1)
O2 O2- 0.016(1) 0.027(1) 0.012(1) 0.003(1) 0.000(1) -0.003(1)
O3 O2- 0.015(1) 0.013(1) 0.021(1) 0.004(1) -0.002(1) -0.002(1)
O4 O2- 0.016(1) 0.016(1) 0.016(1) -0.005(1) -0.005(1) 0.002(1)
O5 O2- 0.015(1) 0.017(1) 0.015(1) -0.002(1) 0.004(1) -0.004(1)
O6 O2- 0.021(1) 0.014(1) 0.015(1) 0.000(1) -0.002(1) 0.005(1)
O7 O2- 0.015(1) 0.011(1) 0.014(1) 0.002(1) -0.001(1) -0.001(1)
O8 O2- 0.013(1) 0.016(1) 0.017(1) -0.002(1) -0.003(1) -0.001(1)
O9 O2- 0.011(1) 0.013(1) 0.014(1) 0.001(1) 0.002(1) 0.003(1)
O10 O2- 0.014(1) 0.018(1) 0.012(1) 0.003(1) 0.003(1) 0.002(1)
O11 O2- 0.014(1) 0.013(1) 0.015(1) -0.002(1) -0.002(1) 0.002(1)
O12 O2- 0.014(1) 0.034(1) 0.015(1) -0.009(1) 0.005(1) -0.010(1)
O13 O2- 0.021(1) 0.013(1) 0.016(1) 0.006(1) -0.002(1) -0.002(1)
#End of TTdata_163888-ICSD