
#(C) 2019 by FIZ Karlsruhe - Leibniz Institute for Information Infrastructure.  All rights reserved.
data_164019-ICSD
_database_code_ICSD 164019
_audit_creation_date 2009-08-01
_chemical_name_systematic 'Sodium digermanium tris(phosphate(V))'
_chemical_formula_structural 'Na Ge2 (P O4)3'
_chemical_formula_sum 'Ge2 Na1 O12 P3'
_chemical_name_structure_type NaGeTi(PO4)3
_exptl_crystal_density_diffrn 3.68
_cell_measurement_temperature 294.
_publ_section_title

;
Structure determination, electronic and optical properties of Na Ge2 P3 O12
and Cs2 Ge P4 O13
;
loop_
_citation_id
_citation_journal_full
_citation_year
_citation_journal_volume
_citation_page_first
_citation_page_last
_citation_journal_id_ASTM
primary 'Journal of Molecular Structure' 2009 922 127 134 JMOSB4
loop_
_publ_author_name
'Zhao Dan'
'Xie Zhi'
'Hu Jianming'
'Zhang Hao'
'Zhang Wei Long'
'Yang Song Lin'
'Cheng Wen Dan'
_cell_length_a 8.109(2)
_cell_length_b 8.109(2)
_cell_length_c 21.536(8)
_cell_angle_alpha 90.
_cell_angle_beta 90.
_cell_angle_gamma 120.
_cell_volume 1226.39
_cell_formula_units_Z 6
_symmetry_space_group_name_H-M 'R -3 H'
_symmetry_Int_Tables_number 148
_refine_ls_R_factor_all 0.0166
loop_
_symmetry_equiv_pos_site_id
_symmetry_equiv_pos_as_xyz
1 'x-y, x, -z'
2 'y, -x+y, -z'
3 '-x, -y, -z'
4 '-x+y, -x, z'
5 '-y, x-y, z'
6 'x, y, z'
7 'x-y+2/3, x+1/3, -z+1/3'
8 'y+2/3, -x+y+1/3, -z+1/3'
9 '-x+2/3, -y+1/3, -z+1/3'
10 '-x+y+2/3, -x+1/3, z+1/3'
11 '-y+2/3, x-y+1/3, z+1/3'
12 'x+2/3, y+1/3, z+1/3'
13 'x-y+1/3, x+2/3, -z+2/3'
14 'y+1/3, -x+y+2/3, -z+2/3'
15 '-x+1/3, -y+2/3, -z+2/3'
16 '-x+y+1/3, -x+2/3, z+2/3'
17 '-y+1/3, x-y+2/3, z+2/3'
18 'x+1/3, y+2/3, z+2/3'
loop_
_atom_type_symbol
_atom_type_oxidation_number
Na1+ 1
Ge4+ 4
P5+ 5
O2- -2
loop_
_atom_site_label
_atom_site_type_symbol
_atom_site_symmetry_multiplicity
_atom_site_Wyckoff_symbol
_atom_site_fract_x
_atom_site_fract_y
_atom_site_fract_z
_atom_site_B_iso_or_equiv
_atom_site_occupancy
_atom_site_attached_hydrogens
Na1 Na1+ 3 a 0 0 0 0.0194(7) 1. 0
Na2 Na1+ 3 b 0.3333 0.6667 0.1667 0.0304(8) 1. 0
Ge1 Ge4+ 6 c 0.3333 0.6667 0.01894(2) 0.00392(16) 1. 0
Ge2 Ge4+ 6 c 0 0 0.14397(2) 0.00411(16) 1. 0
P1 P5+ 18 f 0.38084(10) 0.33230(11) 0.08280(3) 0.00350(17) 1. 0
O1 O2- 18 f 0.4046(3) 0.5298(3) 0.07239(7) 0.0068(4) 1. 0
O2 O2- 18 f 0.1694(3) 0.1851(3) 0.08868(7) 0.0062(4) 1. 0
O3 O2- 18 f 0.4514(3) 0.2628(3) 0.02860(8) 0.0082(5) 1. 0
O4 O2- 18 f 0.4828(3) 0.3476(3) 0.14347(7) 0.0090(4) 1. 0
#End of TTdata_164019-ICSD