
#(C) 2019 by FIZ Karlsruhe - Leibniz Institute for Information Infrastructure.  All rights reserved.
data_16432-ICSD
_database_code_ICSD 16432
_audit_creation_date 1980-12-31
_audit_update_record 2009-08-01
_chemical_name_systematic 'Disodium sulfate(VI) - telluric acid (1/1)'
_chemical_formula_structural '(Na2 (S O4)) (Te (O H)6)'
_chemical_formula_sum 'H6 Na2 O10 S1 Te1'
_exptl_crystal_density_diffrn 2.87
_publ_section_title 'Structure of sodium sulfate tellurate'
loop_
_citation_id
_citation_journal_full
_citation_year
_citation_journal_volume
_citation_page_first
_citation_page_last
_citation_journal_id_ASTM
primary

;
Acta Crystallographica, Section B: Structural Crystallography and Crystal
Chemistry
; 1980 36 2741 2743 ACBCAR
loop_
_publ_author_name
'Zilber, R.'
'Tordjman, I.'
'Guitel, J.C.'
_cell_length_a 5.459(5)
_cell_length_b 10.306(7)
_cell_length_c 15.349(10)
_cell_angle_alpha 90.
_cell_angle_beta 94.73(5)
_cell_angle_gamma 90.
_cell_volume 860.6
_cell_formula_units_Z 4
_symmetry_space_group_name_H-M 'C 1 c 1'
_symmetry_Int_Tables_number 9
_refine_ls_R_factor_all 0.027
loop_
_symmetry_equiv_pos_site_id
_symmetry_equiv_pos_as_xyz
1 'x, -y, z+1/2'
2 'x, y, z'
3 'x+1/2, -y+1/2, z+1/2'
4 'x+1/2, y+1/2, z'
loop_
_atom_type_symbol
_atom_type_oxidation_number
Te6+ 6
S6+ 6
Na1+ 1
O2- -2
H1+ 1
loop_
_atom_site_label
_atom_site_type_symbol
_atom_site_symmetry_multiplicity
_atom_site_Wyckoff_symbol
_atom_site_fract_x
_atom_site_fract_y
_atom_site_fract_z
_atom_site_B_iso_or_equiv
_atom_site_occupancy
_atom_site_attached_hydrogens
Te1 Te6+ 4 a 0 0.0077(2) 0 . 1. 0
S1 S6+ 4 a 0.3873(3) 0.2457(1) 0.74837(9) . 1. 0
Na1 Na1+ 4 a 0.3405(5) 0.2455(3) 0.1216(2) . 1. 0
Na2 Na1+ 4 a 0.4589(6) 0.0747(3) 0.3104(2) . 1. 0
O1 O2- 4 a 0.2092(9) 0.3250(5) 0.6937(3) . 1. 0
O2 O2- 4 a 0.6353(8) 0.3005(6) 0.7460(3) . 1. 0
O3 O2- 4 a 0.3799(10) 0.1116(5) 0.7175(3) . 1. 0
O4 O2- 4 a 0.3063(9) 0.2509(5) 0.8392(3) . 1. 0
O5 O2- 4 a 0.1764(9) 0.4877(7) 0.4422(3) . 1. 0
O6 O2- 4 a 0.8235(6) 0.4861(4) 0.5613(2) . 1. 0
O7 O2- 4 a 0.4942(9) 0.3072(4) 0.5194(3) . 1. 0
O8 O2- 4 a 0.3631(8) 0.5318(4) 0.6088(3) . 1. 0
O9 O2- 4 a 0.6386(8) 0.4736(4) 0.3927(3) . 1. 0
O10 O2- 4 a 0.5383(8) 0.6770(4) 0.4890(2) . 1. 0
H1 H1+ 4 a 0.54 -.01 0.485 . 1. 0
H2 H1+ 4 a 0.84 0.47 0.12 . 1. 0
H3 H1+ 4 a 0.32 0.26 0.51 . 1. 0
H4 H1+ 4 a 0.35 0.036 0.62 . 1. 0
H5 H1+ 4 a 0.2 0.12 0.87 . 1. 0
H6 H1+ 4 a 0.44 0.29 0.93 . 1. 0
loop_
_atom_site_aniso_label
_atom_site_aniso_type_symbol
_atom_site_aniso_beta_11
_atom_site_aniso_beta_22
_atom_site_aniso_beta_33
_atom_site_aniso_beta_12
_atom_site_aniso_beta_13
_atom_site_aniso_beta_23
Te1 Te6+ 0.00433(4) 0.00178(1) 0.00068(1) 0.0001(1) 0.0005(3) -.00009(4)
S1 S6+ 0.0073(3) 0.00246(8) 0.00072(3) -.0009(3) 0.0007(3) -.00001(9)
Na1 Na1+ 0.0127(7) 0.0034(2) 0.00137(8) -.0020(6) 0.0001(4) 0.0006(2)
Na2 Na1+ 0.0132(7) 0.0047(2) 0.00140(8) -.0010(7) 0.0000(4) 0.0011(2)
O1 O2- 0.0098(11) 0.0041(3) 0.0015(1) 0.0008(10) -.0005(7) 0.0018(4)
O2 O2- 0.0081(11) 0.0052(4) 0.0022(2) -.0037(11) 0.0017(7) -.0010(5)
O3 O2- 0.0204(15) 0.0031(3) 0.0014(1) 0.0006(12) 0.0005(8) -.0013(4)
O4 O2- 0.0159(12) 0.0041(3) 0.0008(1) -.0036(11) 0.0024(6) -.0005(3)
O5 O2- 0.0099(11) 0.0100(6) 0.0016(1) -.0025(14) -.0031(7) 0.0009(5)
O6 O2- 0.0033(7) 0.0020(2) 0.0009(1) -.0003(7) 0.0004(4) -.0002(3)
O7 O2- 0.0102(10) 0.0024(2) 0.0019(2) 0.000(1) -.0006(8) 0.0005(3)
O8 O2- 0.011(1) 0.0034(3) 0.0010(1) 0.0005(9) 0.0024(5) 0.0000(3)
O9 O2- 0.0124(10) 0.0032(3) 0.0011(1) -.0006(10) 0.0032(6) -.0001(3)
O10 O2- 0.0119(11) 0.0025(2) 0.0008(1) -.0010(8) 0.0002(5) 0.0003(3)
#End of TTdata_16432-ICSD