
#(C) 2019 by FIZ Karlsruhe - Leibniz Institute for Information Infrastructure.  All rights reserved.
data_164476-ICSD
_database_code_ICSD 164476
_audit_creation_date 2010-02-01
_chemical_name_systematic 'Sodium dioxocobaltate (0.74/1) - H1'
_chemical_formula_structural 'Na0.74 (Co O2)'
_chemical_formula_sum 'Co1 Na0.74 O2'
_chemical_name_structure_type NaxCoO2
_exptl_crystal_density_diffrn 4.73
_cell_measurement_temperature 325.
_publ_section_title
'Characterization of the structural transition in Na0.75 Co O2'
loop_
_citation_id
_citation_journal_full
_citation_year
_citation_journal_volume
_citation_page_first
_citation_page_last
_citation_journal_id_ASTM
primary 'Journal of Physics: Condensed Matter' 2005 17 1831 1840 JCOMEL
loop_
_publ_author_name
'Huang, Q.'
'Lynn, J.W.'
'Toby, B.H.'
'Foo, M.L.'
'Cava, R.J.'
_cell_length_a 2.8389(1)
_cell_length_b 2.8389(1)
_cell_length_c 10.8619(5)
_cell_angle_alpha 90.
_cell_angle_beta 90.
_cell_angle_gamma 120.
_cell_volume 75.81
_cell_formula_units_Z 2
_symmetry_space_group_name_H-M 'P 63/m m c'
_symmetry_Int_Tables_number 194
_refine_ls_R_factor_all 0.0593
loop_
_symmetry_equiv_pos_site_id
_symmetry_equiv_pos_as_xyz
1 'x, x-y, -z+1/2'
2 '-x+y, y, -z+1/2'
3 '-y, -x, -z+1/2'
4 '-x+y, -x, -z+1/2'
5 '-y, x-y, -z+1/2'
6 'x, y, -z+1/2'
7 '-x, -x+y, z+1/2'
8 'x-y, -y, z+1/2'
9 'y, x, z+1/2'
10 'x-y, x, z+1/2'
11 'y, -x+y, z+1/2'
12 '-x, -y, z+1/2'
13 '-x, -x+y, -z'
14 'x-y, -y, -z'
15 'y, x, -z'
16 'x-y, x, -z'
17 'y, -x+y, -z'
18 '-x, -y, -z'
19 'x, x-y, z'
20 '-x+y, y, z'
21 '-y, -x, z'
22 '-x+y, -x, z'
23 '-y, x-y, z'
24 'x, y, z'
loop_
_atom_type_symbol
_atom_type_oxidation_number
Co3+ 3.26
Na1+ 1
O2- -2
loop_
_atom_site_label
_atom_site_type_symbol
_atom_site_symmetry_multiplicity
_atom_site_Wyckoff_symbol
_atom_site_fract_x
_atom_site_fract_y
_atom_site_fract_z
_atom_site_B_iso_or_equiv
_atom_site_occupancy
_atom_site_attached_hydrogens
Co1 Co3+ 2 a 0 0 0 0.26(4) 1. 0
Na1 Na1+ 2 b 0 0 0.25 1.3(2) 0.166(19) 0
Na2 Na1+ 6 h 0.566(6) 0.283(3) 0.25 1.3(2) 0.191(8) 0
O1 O2- 4 f 0.3333 0.6667 0.0906(2) 0.61(3) 1. 0
#End of TTdata_164476-ICSD