
#(C) 2019 by FIZ Karlsruhe - Leibniz Institute for Information Infrastructure.  All rights reserved.
data_164626-ICSD
_database_code_ICSD 164626
_audit_creation_date 2010-02-01
_chemical_name_systematic 'Sodium gadolinium tungsten oxide  (0.48/0.52/0.99/4)'
_chemical_formula_structural '(Na0.476 Gd0.524) (W0.992 O4)'
_chemical_formula_sum 'Gd0.524 Na0.476 O4 W0.992'
_chemical_name_structure_type Scheelite-CaWO4
_exptl_crystal_density_diffrn 7.3
_publ_section_title

;
Structural features of phases (Na0.5 R0.5) M O4 and (Na0.5 R0.5) M O4: R' (R=
Gd,La; R'= Er, Tm, Yb; M= W, Mo) of the scheelite family
;
loop_
_citation_id
_citation_journal_full
_citation_year
_citation_journal_volume
_citation_page_first
_citation_page_last
_citation_journal_id_ASTM
primary 'Zhurnal Neorganicheskoi Khimii' 2009 54 918 927 ZNOKAQ
loop_
_publ_author_name
'Kuzmicheva, G.M.'
'Eremin, A.V.'
'Rybakov, V.B.'
'Subbotin, K.A.'
'Zharikov, E.V.'
_cell_length_a 5.225(2)
_cell_length_b 5.225(2)
_cell_length_c 11.326(6)
_cell_angle_alpha 90.
_cell_angle_beta 90.
_cell_angle_gamma 90.
_cell_volume 309.21
_cell_formula_units_Z 4
_symmetry_space_group_name_H-M 'I 41/a Z'
_symmetry_Int_Tables_number 88
_refine_ls_R_factor_all 0.0945
loop_
_symmetry_equiv_pos_site_id
_symmetry_equiv_pos_as_xyz
1 '-y+3/4, x+3/4, -z+3/4'
2 'y+1/4, -x+3/4, -z+3/4'
3 'x, y+1/2, -z'
4 '-x, -y, -z'
5 'y+1/4, -x+1/4, z+1/4'
6 '-y+3/4, x+1/4, z+1/4'
7 '-x, -y+1/2, z'
8 'x, y, z'
9 '-y+1/4, x+1/4, -z+1/4'
10 'y+3/4, -x+1/4, -z+1/4'
11 'x+1/2, y, -z+1/2'
12 '-x+1/2, -y+1/2, -z+1/2'
13 'y+3/4, -x+3/4, z+3/4'
14 '-y+1/4, x+3/4, z+3/4'
15 '-x+1/2, -y, z+1/2'
16 'x+1/2, y+1/2, z+1/2'
loop_
_atom_type_symbol
_atom_type_oxidation_number
Na1+ 1
Gd3+ 3
W6+ 6
O2- -2
loop_
_atom_site_label
_atom_site_type_symbol
_atom_site_symmetry_multiplicity
_atom_site_Wyckoff_symbol
_atom_site_fract_x
_atom_site_fract_y
_atom_site_fract_z
_atom_site_B_iso_or_equiv
_atom_site_occupancy
_atom_site_attached_hydrogens
Na1 Na1+ 4 b 0.5 0.75 0.125 0.00467(5) 0.476(4) 0
Gd1 Gd3+ 4 b 0.5 0.75 0.125 0.00467(5) 0.524(4) 0
W1 W6+ 4 a 0 0.25 0.125 0.00387(2) 0.992(4) 0
O1 O2- 16 f 0.2429(1) 0.5969(2) -0.0383(1) 0.01213(23) 1.000(4) 0
#End of TTdata_164626-ICSD