
#(C) 2019 by FIZ Karlsruhe - Leibniz Institute for Information Infrastructure.  All rights reserved.
data_164727-ICSD
_database_code_ICSD 164727
_audit_creation_date 2010-02-01
_chemical_name_systematic 'Disodium octalead hexakis(phosphate(V))'
_chemical_formula_structural 'Na2 Pb8 (P O4)6'
_chemical_formula_sum 'Na2 O24 P6 Pb8'
_chemical_name_structure_type Er3Pb1.5(SiO4)3
_exptl_crystal_density_diffrn 6.42
_cell_measurement_temperature 298.
_publ_section_title
'Crystal structure and spectroscopic studies of Na2 Pb8 (P O4)6'
loop_
_citation_id
_citation_journal_full
_citation_year
_citation_journal_volume
_citation_page_first
_citation_page_last
_citation_journal_id_ASTM
primary 'Journal of the Ceramic Society of Japan' 2008 116 904 908 JCSJEW
loop_
_publ_author_name
'Toumi, M.'
'Mhiri, T.'
_cell_length_a 9.721(4)
_cell_length_b 9.721(4)
_cell_length_c 7.186(5)
_cell_angle_alpha 90.
_cell_angle_beta 90.
_cell_angle_gamma 120.
_cell_volume 588.08
_cell_formula_units_Z 1
_symmetry_space_group_name_H-M 'P 63/m'
_symmetry_Int_Tables_number 176
_refine_ls_R_factor_all 0.057
loop_
_symmetry_equiv_pos_site_id
_symmetry_equiv_pos_as_xyz
1 '-x+y, -x, -z+1/2'
2 '-y, x-y, -z+1/2'
3 'x, y, -z+1/2'
4 'x-y, x, -z'
5 'y, -x+y, -z'
6 '-x, -y, -z'
7 'x-y, x, z+1/2'
8 'y, -x+y, z+1/2'
9 '-x, -y, z+1/2'
10 '-x+y, -x, z'
11 '-y, x-y, z'
12 'x, y, z'
loop_
_atom_type_symbol
_atom_type_oxidation_number
Pb2+ 2
Na1+ 1
Pb2+ 2
Na1+ 1
P5+ 5
O2- -2
loop_
_atom_site_label
_atom_site_type_symbol
_atom_site_symmetry_multiplicity
_atom_site_Wyckoff_symbol
_atom_site_fract_x
_atom_site_fract_y
_atom_site_fract_z
_atom_site_B_iso_or_equiv
_atom_site_occupancy
_atom_site_attached_hydrogens
Pb1 Pb2+ 4 f 0.6667 0.3333 0.5104(3) 1.152(3) 0.510(5) 0
Na1 Na1+ 4 f 0.6667 0.3333 0.5104(3) 1.152(3) 0.489(11) 0
Pb2 Pb2+ 6 h 0.25640(10) 0.25798(10) 0.25 1.264(4) 0.993(4) 0
Na2 Na1+ 6 h 0.25640(10) 0.25798(10) 0.25 1.264(4) 0.007(4) 0
P1 P5+ 6 h 0.3790(6) 0.3989(6) 0.75 0.67(1) 1. 0
O1 O2- 6 h 0.482(2) 0.32(2) 0.75 1.2(2) 1. 0
O2 O2- 6 h 0.479(2) 0.581(2) 0.75 2.2(3) 1. 0
O3 O2- 12 i 0.270(1) 0.348(1) 0.579(2) 1.7(2) 1. 0
#End of TTdata_164727-ICSD