
#(C) 2019 by FIZ Karlsruhe - Leibniz Institute for Information Infrastructure.  All rights reserved.
data_165109-ICSD
_database_code_ICSD 165109
_audit_creation_date 2010-02-01
_chemical_name_systematic 'Disodium diniobium tris(diphosphate(V))'
_chemical_formula_structural 'Na2 Nb2 (P2 O7)3'
_chemical_formula_sum 'Na2 Nb2 O21 P6'
_chemical_name_structure_type Na2Ta2(P2O7)3
_exptl_crystal_density_diffrn 2.82
_publ_section_title

;
Synthesis and crystal structures of mixed diphosphates Na2 M2 (P2 O7)3 (M= Ta,
Nb)
;
loop_
_citation_id
_citation_journal_full
_citation_year
_citation_journal_volume
_citation_page_first
_citation_page_last
_citation_journal_id_ASTM
primary 'Zhurnal Neorganicheskoi Khimii' 1994 39 1587 1590 ZNOKAQ
loop_
_publ_author_name
'Murashova, E.V.'
'Chudinova, N.N.'
_cell_length_a 9.024(2)
_cell_length_b 9.024(2)
_cell_length_c 12.589(5)
_cell_angle_alpha 90.
_cell_angle_beta 90.
_cell_angle_gamma 120.
_cell_volume 887.81
_cell_formula_units_Z 2
_symmetry_space_group_name_H-M 'P 63/m'
_symmetry_Int_Tables_number 176
_refine_ls_R_factor_all 0.034
loop_
_symmetry_equiv_pos_site_id
_symmetry_equiv_pos_as_xyz
1 '-x+y, -x, -z+1/2'
2 '-y, x-y, -z+1/2'
3 'x, y, -z+1/2'
4 'x-y, x, -z'
5 'y, -x+y, -z'
6 '-x, -y, -z'
7 'x-y, x, z+1/2'
8 'y, -x+y, z+1/2'
9 '-x, -y, z+1/2'
10 '-x+y, -x, z'
11 '-y, x-y, z'
12 'x, y, z'
loop_
_atom_type_symbol
_atom_type_oxidation_number
Nb5+ 5
Na1+ 1
P5+ 5
O2- -2
loop_
_atom_site_label
_atom_site_type_symbol
_atom_site_symmetry_multiplicity
_atom_site_Wyckoff_symbol
_atom_site_fract_x
_atom_site_fract_y
_atom_site_fract_z
_atom_site_B_iso_or_equiv
_atom_site_occupancy
_atom_site_attached_hydrogens
Nb1 Nb5+ 4 f 0.3333 0.6667 0.02626(4) 0.556(7) 1. 0
Na1 Na1+ 2 b 0 0 0 1.18(6) 1. 0
Na2 Na1+ 2 a 0 0 0.25 1.06(6) 1. 0
P1 P5+ 12 i 0.3611(1) 0.0227(1) 0.1346(1) 0.63(2) 1. 0
O1 O2- 6 h 0.4435(4) 0.0635(4) 0.25 0.87(8) 1. 0
O2 O2- 12 i 0.3226(3) -0.1621(3) 0.1131(2) 1.03(6) 1. 0
O3 O2- 12 i 0.5127(3) 0.1432(3) 0.0651(2) 1.05(6) 1. 0
O4 O2- 12 i 0.2115(3) 0.0434(3) 0.1262(2) 1.24(6) 1. 0
#End of TTdata_165109-ICSD