
#(C) 2018 by FIZ Karlsruhe - Leibniz Institute for Information Infrastructure.  All rights reserved.
data_165259-ICSD
_database_code_ICSD 165259
_audit_creation_date 2010-02-01
_audit_update_record 2011-02-01
_chemical_name_systematic 'Lithium gold sulfide'
_chemical_formula_structural 'Li Au S'
_chemical_formula_sum 'Au1 Li1 S1'
_exptl_crystal_density_diffrn 6.92
_cell_measurement_temperature 296.
_publ_section_title

;
Flux synthesis of Li Au S and Na Au S: "chicken-wire-like" layer formation by
interweaving of (Au S)n(n-) threads. Comparison with alpha-(Hg S) and A au S
(A = K, Rb)
;
loop_
_citation_id
_citation_journal_full
_citation_year
_citation_journal_volume
_citation_page_first
_citation_page_last
_citation_journal_id_ASTM
primary 'Inorganic Chemistry' 1998 37 5583 5587 INOCAJ
loop_
_publ_author_name
'Axtell, E.A.'
'Liao Ju Hsiou'
'Kanatzidis, M.G.'
_cell_length_a 8.994(2)
_cell_length_b 8.956(2)
_cell_length_c 7.201(3)
_cell_angle_alpha 90.
_cell_angle_beta 128.68(1)
_cell_angle_gamma 90.
_cell_volume 452.81
_cell_formula_units_Z 8
_symmetry_space_group_name_H-M 'C 1 2/c 1'
_symmetry_Int_Tables_number 15
_refine_ls_R_factor_all 0.026
loop_
_symmetry_equiv_pos_site_id
_symmetry_equiv_pos_as_xyz
1 'x, -y, z+1/2'
2 '-x, -y, -z'
3 '-x, y, -z+1/2'
4 'x, y, z'
5 'x+1/2, -y+1/2, z+1/2'
6 '-x+1/2, -y+1/2, -z'
7 '-x+1/2, y+1/2, -z+1/2'
8 'x+1/2, y+1/2, z'
loop_
_atom_type_symbol
_atom_type_oxidation_number
Au1+ 1
S2- -2
Li1+ 1
loop_
_atom_site_label
_atom_site_type_symbol
_atom_site_symmetry_multiplicity
_atom_site_Wyckoff_symbol
_atom_site_fract_x
_atom_site_fract_y
_atom_site_fract_z
_atom_site_B_iso_or_equiv
_atom_site_occupancy
_atom_site_attached_hydrogens
Au1 Au1+ 4 a 0 0 0 1.32(3) 1. 0
Au2 Au1+ 4 d 0.25 0.25 0.5 1.31(3) 1. 0
S1 S2- 8 f 0.2864(6) 0.1252(5) 0.2500(6) 1.2(1) 1. 0
Li1 Li1+ 8 f 0.149(5) 0.377(1) 0.043(5) 2.3(9) 1. 0
loop_
_atom_site_aniso_label
_atom_site_aniso_type_symbol
_atom_site_aniso_U_11
_atom_site_aniso_U_22
_atom_site_aniso_U_33
_atom_site_aniso_U_12
_atom_site_aniso_U_13
_atom_site_aniso_U_23
Au1 Au1+ 0.0137(4) 0.0148(4) 0.0181(4) -0.0003(3) 0.0082(3) -0.0015(3)
Au2 Au1+ 0.0217(4) 0.0144(4) 0.0184(4) -0.0017(3) 0.0149(3) -0.0015(3)
S1 S2- 0.014(1) 0.018(2) 0.016(2) -0.001(1) 0.010(1) -0.001(1)
Li1 Li1+ 0.01(1) 0.02(1) 0.02(1) 0.00(1) -0.00(1) -0.00(1)
#End of TTdata_165259-ICSD