
#(C) 2018 by FIZ Karlsruhe - Leibniz Institute for Information Infrastructure.  All rights reserved.
data_165328-ICSD
_database_code_ICSD 165328
_audit_creation_date 2010-02-01
_audit_update_record 2013-02-01
_chemical_name_systematic 'Gallium lithium aluminium oxide (1.54/0.3/10.7/17)'
_chemical_formula_structural 'Ga1.54 (Li0.3 Al10.7) O17'
_chemical_formula_sum 'Al10.7 Ga1.54 Li0.3 O17'
_chemical_name_structure_type Na1.7Al11O17
_exptl_crystal_density_diffrn 3.59
_cell_measurement_temperature 11.
_publ_section_title

;
Crystal chemistry of gallium(I) in oxides: Ga(+)-beta''-Alumina and Ga Zr2 (P
O4)3
;
loop_
_citation_id
_citation_journal_full
_citation_year
_citation_journal_volume
_citation_page_first
_citation_page_last
_citation_journal_id_ASTM
primary 'Inorganic Chemistry' 1997 36 1602 1607 INOCAJ
loop_
_publ_author_name
'Wilkinson, A.P.'
_cell_length_a 5.5900(1)
_cell_length_b 5.5900(1)
_cell_length_c 34.3805(9)
_cell_angle_alpha 90.
_cell_angle_beta 90.
_cell_angle_gamma 120.
_cell_volume 930.39
_cell_formula_units_Z 3
_symmetry_space_group_name_H-M 'R -3 m H'
_symmetry_Int_Tables_number 166
_refine_ls_R_factor_all 0.0423
loop_
_symmetry_equiv_pos_site_id
_symmetry_equiv_pos_as_xyz
1 'x-y, -y, -z'
2 '-x, -x+y, -z'
3 'y, x, -z'
4 'x-y, x, -z'
5 'y, -x+y, -z'
6 '-x, -y, -z'
7 '-x+y, y, z'
8 'x, x-y, z'
9 '-y, -x, z'
10 '-x+y, -x, z'
11 '-y, x-y, z'
12 'x, y, z'
13 'x-y+2/3, -y+1/3, -z+1/3'
14 '-x+2/3, -x+y+1/3, -z+1/3'
15 'y+2/3, x+1/3, -z+1/3'
16 'x-y+2/3, x+1/3, -z+1/3'
17 'y+2/3, -x+y+1/3, -z+1/3'
18 '-x+2/3, -y+1/3, -z+1/3'
19 '-x+y+2/3, y+1/3, z+1/3'
20 'x+2/3, x-y+1/3, z+1/3'
21 '-y+2/3, -x+1/3, z+1/3'
22 '-x+y+2/3, -x+1/3, z+1/3'
23 '-y+2/3, x-y+1/3, z+1/3'
24 'x+2/3, y+1/3, z+1/3'
25 'x-y+1/3, -y+2/3, -z+2/3'
26 '-x+1/3, -x+y+2/3, -z+2/3'
27 'y+1/3, x+2/3, -z+2/3'
28 'x-y+1/3, x+2/3, -z+2/3'
29 'y+1/3, -x+y+2/3, -z+2/3'
30 '-x+1/3, -y+2/3, -z+2/3'
31 '-x+y+1/3, y+2/3, z+2/3'
32 'x+1/3, x-y+2/3, z+2/3'
33 '-y+1/3, -x+2/3, z+2/3'
34 '-x+y+1/3, -x+2/3, z+2/3'
35 '-y+1/3, x-y+2/3, z+2/3'
36 'x+1/3, y+2/3, z+2/3'
loop_
_atom_type_symbol
_atom_type_oxidation_number
Ga1+ 1
Al3+ 3
Li1+ 1
Al3+ 3
O2- -2
loop_
_atom_site_label
_atom_site_type_symbol
_atom_site_symmetry_multiplicity
_atom_site_Wyckoff_symbol
_atom_site_fract_x
_atom_site_fract_y
_atom_site_fract_z
_atom_site_B_iso_or_equiv
_atom_site_occupancy
_atom_site_attached_hydrogens
Ga1 Ga1+ 6 c 0 0 -0.1845(1) . 0.77(1) 0
Al1 Al3+ 3 a 0 0 0 0.004(2) 1. 0
Al2 Al3+ 6 c 0 0 0.3494(2) 0.003(1) 0.85 0
Li1 Li1+ 6 c 0 0 0.3494(2) 0.003(1) 0.15 0
Al3 Al3+ 18 h 0.333(1) 0.1664(5) 0.06916(9) 0.0041(6) 1. 0
Al4 Al3+ 6 c 0 0 0.4508(2) 0.007(1) 1. 0
O1 O2- 18 h 0.1566(3) 0.3133(5) 0.03309(6) 0.0033(4) 1. 0
O2 O2- 6 c 0 0 0.2955(1) . 1. 0
O3 O2- 6 c 0 0 0.0930(1) 0.0029(9) 1. 0
O4 O2- 18 h 0.1631(3) 0.3263(6) 0.23612(6) 0.0035(4) 1. 0
O5 O2- 3 b 0 0 0.5 . 1. 0
loop_
_atom_site_aniso_label
_atom_site_aniso_type_symbol
_atom_site_aniso_U_11
_atom_site_aniso_U_22
_atom_site_aniso_U_33
_atom_site_aniso_U_12
_atom_site_aniso_U_13
_atom_site_aniso_U_23
Ga1 Ga1+ 0.001(1) 0.001(1) 0.016(2) 0.000(1) 0. 0.
O2 O2- 0.002(1) 0.002(1) 0.023(3) 0.001(1) 0. 0.
O5 O2- 0.008(2) 0.008(2) 0.006(3) 0.004(1) 0. 0.
#End of TTdata_165328-ICSD