
#(C) 2019 by FIZ Karlsruhe - Leibniz Institute for Information Infrastructure.  All rights reserved.
data_165621-ICSD
_database_code_ICSD 165621
_audit_creation_date 2010-02-01
_chemical_name_systematic 'Trichromium(II) disilicate - sodium bromide (1/0.25)'
_chemical_formula_structural '(Cr3 (Si2 O7)) (Na Br)0.25'
_chemical_formula_sum 'Br0.25 Cr3 Na0.25 O7 Si2'
_chemical_name_structure_type CrSi2O7(NaCl)0.25
_exptl_crystal_density_diffrn 3.4
_cell_measurement_temperature 293.
_publ_section_title

;
Cr3 Si2 O7 * (1/4)(M X) (M X= Na Cl, Na Br, K Cl, K Br): a cage structure
built from (Cr(II) O4) and (Si2 O7) units
;
loop_
_citation_id
_citation_journal_full
_citation_year
_citation_journal_volume
_citation_page_first
_citation_page_last
_citation_journal_id_ASTM
primary 'Inorganic Chemistry' 1997 36 4883 4887 INOCAJ
loop_
_publ_author_name
'Schmidt, A.'
'Glaum, R.'
_cell_length_a 10.2596(7)
_cell_length_b 10.2596(7)
_cell_length_c 12.969(3)
_cell_angle_alpha 90.
_cell_angle_beta 90.
_cell_angle_gamma 90.
_cell_volume 1365.11
_cell_formula_units_Z 8
_symmetry_space_group_name_H-M 'I 4/m m m'
_symmetry_Int_Tables_number 139
_refine_ls_R_factor_all 0.0247
loop_
_symmetry_equiv_pos_site_id
_symmetry_equiv_pos_as_xyz
1 'y, x, -z'
2 '-y, -x, -z'
3 '-y, x, -z'
4 'y, -x, -z'
5 '-x, y, -z'
6 'x, -y, -z'
7 'x, y, -z'
8 '-x, -y, -z'
9 '-y, -x, z'
10 'y, x, z'
11 'y, -x, z'
12 '-y, x, z'
13 'x, -y, z'
14 '-x, y, z'
15 '-x, -y, z'
16 'x, y, z'
17 'y+1/2, x+1/2, -z+1/2'
18 '-y+1/2, -x+1/2, -z+1/2'
19 '-y+1/2, x+1/2, -z+1/2'
20 'y+1/2, -x+1/2, -z+1/2'
21 '-x+1/2, y+1/2, -z+1/2'
22 'x+1/2, -y+1/2, -z+1/2'
23 'x+1/2, y+1/2, -z+1/2'
24 '-x+1/2, -y+1/2, -z+1/2'
25 '-y+1/2, -x+1/2, z+1/2'
26 'y+1/2, x+1/2, z+1/2'
27 'y+1/2, -x+1/2, z+1/2'
28 '-y+1/2, x+1/2, z+1/2'
29 'x+1/2, -y+1/2, z+1/2'
30 '-x+1/2, y+1/2, z+1/2'
31 '-x+1/2, -y+1/2, z+1/2'
32 'x+1/2, y+1/2, z+1/2'
loop_
_atom_type_symbol
_atom_type_oxidation_number
Cr2+ 2
Si4+ 4
O2- -2
Br1- -1
Na1+ 1
loop_
_atom_site_label
_atom_site_type_symbol
_atom_site_symmetry_multiplicity
_atom_site_Wyckoff_symbol
_atom_site_fract_x
_atom_site_fract_y
_atom_site_fract_z
_atom_site_B_iso_or_equiv
_atom_site_occupancy
_atom_site_attached_hydrogens
Cr1 Cr2+ 8 j 0.32576(8) 0. 0.5 0.0096(2) 1 0
Cr2 Cr2+ 16 n 0.22948(5) 0. 0.28555(4) 0.00821(15) 1 0
Si1 Si4+ 16 m 0.21704(5) 0.21704(5) 0.11165(6) 0.0054(2) 1 0
O1 O2- 8 h 0.1627(2) 0.1627(2) 0. 0.0081(6) 1 0
O2 O2- 16 m 0.14219(15) 0.14219(15) 0.2035(2) 0.0072(4) 1 0
O3 O2- 32 o 0.3139(2) 0.12790(15) 0.38287(11) 0.0101(3) 1 0
Br1 Br1- 4 e 0. 0. 0.4757(2) 0.0365(8) 0.5 0
Na1 Na1+ 4 e 0. 0. 0.0388(7) 0.035(2) 0.5 0
loop_
_atom_site_aniso_label
_atom_site_aniso_type_symbol
_atom_site_aniso_U_11
_atom_site_aniso_U_22
_atom_site_aniso_U_33
_atom_site_aniso_U_12
_atom_site_aniso_U_13
_atom_site_aniso_U_23
Cr1 Cr2+ 0.0186(4) 0.0054(3) 0.0047(3) 0. 0. 0.
Cr2 Cr2+ 0.0129(3) 0.0054(2) 0.0063(2) 0. -0.0031(2) 0.
Si1 Si4+ 0.0062(2) 0.0062(2) 0.0039(3) -0.0010(3) 0.0005(2) 0.0005(2)
O1 O2- 0.0098(8) 0.0098(8) 0.0046(12) -0.0026(11) 0. 0.
O2 O2- 0.0078(6) 0.0078(6) 0.0060(8) 0.0013(7) 0.0019(5) 0.0019(5)
O3 O2- 0.0163(7) 0.0064(7) 0.0074(6) -0.0005(5) -0.0031(6) 0.0006(5)
Br1 Br1- 0.0229(4) 0.0229(4) 0.064(2) 0. 0. 0.
Na1 Na1+ 0.0103(15) 0.0103(15) 0.083(7) 0. 0. 0.
#End of TTdata_165621-ICSD