
#(C) 2019 by FIZ Karlsruhe - Leibniz Institute for Information Infrastructure.  All rights reserved.
data_165965-ICSD
_database_code_ICSD 165965
_audit_creation_date 2010-08-01
_chemical_name_systematic 'Disodium sulfate(VI) decakis(dideuteriohydrate)'
_chemical_formula_structural 'Na2 (S O4) (D2 O)10'
_chemical_formula_sum 'D20 Na2 O14 S1'
_chemical_name_mineral 'Mirabilite (deuterated)'
_exptl_crystal_density_diffrn 1.56
_cell_measurement_temperature 300.
_publ_section_title

;
The thermal expansion and crystal structure of mirabilite (Na2 S O4 * 10(D2
O)) from 4.2 to 300 K, determined by time-of-flight neutron powder diffraction
;
loop_
_citation_id
_citation_journal_full
_citation_year
_citation_journal_volume
_citation_page_first
_citation_page_last
_citation_journal_id_ASTM
primary 'Physics and Chemistry of Minerals' 2009 36 29 46 PCMIDU
loop_
_publ_author_name
'Brand, H.E.A.'
'Fortes, A.D.'
'Wood, I.G.'
'Knight, K.S.'
'Vocadlo, L.'
_cell_length_a 11.51473(7)
_cell_length_b 10.36496(6)
_cell_length_c 12.84653(7)
_cell_angle_alpha 90.
_cell_angle_beta 107.7545(1)
_cell_angle_gamma 90.
_cell_volume 1460.2
_cell_formula_units_Z 4
_symmetry_space_group_name_H-M 'P 1 21/c 1'
_symmetry_Int_Tables_number 14
_refine_ls_R_factor_all 0.025
loop_
_symmetry_equiv_pos_site_id
_symmetry_equiv_pos_as_xyz
1 'x, -y+1/2, z+1/2'
2 '-x, -y, -z'
3 '-x, y+1/2, -z+1/2'
4 'x, y, z'
loop_
_atom_type_symbol
_atom_type_oxidation_number
S6+ 6
Na1+ 1
O2- -2
D1+ 1
loop_
_atom_site_label
_atom_site_type_symbol
_atom_site_symmetry_multiplicity
_atom_site_Wyckoff_symbol
_atom_site_fract_x
_atom_site_fract_y
_atom_site_fract_z
_atom_site_B_iso_or_equiv
_atom_site_occupancy
_atom_site_attached_hydrogens
S1 S6+ 4 e 0.2481(3) 0.3594(3) 0.2592(3) 0.02177(0) 1. 0
Na1 Na1+ 4 e 0.2559(8) 0.7457(9) 0.0180(7) 0.0454(21) 1. 0
Na2 Na1+ 4 e 0.2470(7) 0.6135(7) 0.7620(7) 0.0454(21) 1. 0
O1 O2- 4 e 0.2634(4) 0.2863(4) 0.3610(3) 0.0534(12) 1. 0
O2 O2- 4 e 0.1413(3) 0.3100(4) 0.1729(6) 0.0534(12) 1. 0
O3 O2- 4 e 0.3580(3) 0.3444(4) 0.2243(3) 0.0534(12) 1. 0
O4 O2- 4 e 0.2304(4) 0.4966(6) 0.2788(3) 0.0534(12) 1. 0
O5 O2- 4 e 0.1221(5) 0.4553(5) 0.6383(5) 0.0416(7) 1. 0
O6 O2- 4 e 0.3673(5) 0.4569(5) 0.8793(5) 0.0416(7) 1. 0
O7 O2- 4 e 0.0997(4) 0.3485(5) 0.9454(4) 0.0398(13) 1. 0
O8 O2- 4 e 0.3978(4) 0.3473(4) 0.5826(4) 0.0398(13) 1. 0
O9 O2- 4 e 0.1152(4) 0.6108(5) 0.8816(4) 0.0416(7) 1. 0
O10 O2- 4 e 0.3854(4) 0.6083(5) 0.6510(4) 0.0416(7) 1. 0
O11 O2- 4 e 0.1466(5) 0.7148(5) 0.1478(4) 0.0416(7) 1. 0
O12 O2- 4 e 0.3561(4) 0.7163(5) 0.3796(5) 0.0416(7) 1. 0
O13 O2- 4 e 0.1253(5) 0.5703(5) 0.4407(4) 0.0416(7) 1. 0
O14 O2- 4 e 0.3807(5) 0.5585(4) 0.0797(4) 0.0416(7) 1. 0
D1 D1+ 4 e 0.1444(4) 0.3635(5) 0.6521(4) 0.0634(8) 1. 0
D2 D1+ 4 e 0.1394(7) 0.4756(6) 0.5688(5) 0.0488(9) 0.494(6) 0
D3 D1+ 4 e 0.0315(5) 0.4548(9) 0.6102(1) 0.0488(9) 0.506(6) 0
D4 D1+ 4 e 0.3366(4) 0.1327(5) 0.3715(4) 0.0634(8) 1. 0
D5 D1+ 4 e 0.4555(5) 0.4479(7) 0.8865(7) 0.0488(9) 0.494(6) 0
D6 D1+ 4 e 0.362(1) 0.4849(10) 0.9518(7) 0.0488(9) 0.506(6) 0
D7 D1+ 4 e 0.1225(4) 0.3330(5) 0.0255(4) 0.0634(8) 1. 0
D8 D1+ 4 e 0.1551(4) 0.2916(5) 0.9204(3) 0.0634(8) 1. 0
D9 D1+ 4 e 0.3487(4) 0.3297(5) 0.5056(3) 0.0634(8) 1. 0
D10 D1+ 4 e 0.3702(4) 0.2812(5) 0.6257(3) 0.0634(8) 1. 0
D11 D1+ 4 e 0.1115(4) 0.5206(4) 0.9058(4) 0.0545(9) 1. 0
D12 D1+ 4 e 0.0286(4) 0.6380(4) 0.8541(4) 0.0634(8) 1. 0
D13 D1+ 4 e 0.3888(4) 0.5195(5) 0.6239(4) 0.0545(9) 1. 0
D14 D1+ 4 e 0.4721(4) 0.6299(4) 0.6895(4) 0.0634(8) 1. 0
D15 D1+ 4 e 0.0577(4) 0.7045(5) 0.1113(4) 0.0545(9) 1. 0
D16 D1+ 4 e 0.1717(4) 0.6313(5) 0.1858(4) 0.0634(8) 1. 0
D17 D1+ 4 e 0.3237(4) 0.6321(5) 0.3470(4) 0.0634(8) 1. 0
D18 D1+ 4 e 0.4457(4) 0.7047(5) 0.4035(4) 0.0545(9) 1. 0
D19 D1+ 4 e 0.1651(4) 0.5288(5) 0.3908(4) 0.0634(8) 1. 0
D20 D1+ 4 e 0.0369(4) 0.5562(7) 0.4047(6) 0.0488(9) 0.494(6) 0
D21 D1+ 4 e 0.146(1) 0.514(1) 0.5062(6) 0.0488(9) 0.506(6) 0
D22 D1+ 4 e 0.3656(4) 0.4939(5) 0.1312(3) 0.0634(8) 1. 0
D23 D1+ 4 e 0.3687(7) 0.5097(7) 0.0105(4) 0.0488(9) 0.494(6) 0
D24 D1+ 4 e 0.4707(6) 0.5692(12) 0.1041(9) 0.0488(9) 0.348(5) 0
#End of TTdata_165965-ICSD