
#(C) 2019 by FIZ Karlsruhe - Leibniz Institute for Information Infrastructure.  All rights reserved.
data_165962-ICSD
_database_code_ICSD 165962
_audit_creation_date 2010-08-01
_audit_update_record 2012-02-01
_chemical_name_systematic 'Disodium sulfate(VI) decakis(dideuteriohydrate)'
_chemical_formula_structural 'Na2 (S O4) (D2 O)10'
_chemical_formula_sum 'D20 Na2 O14 S1'
_chemical_name_structure_type Na2SO4(H2O)10
_chemical_name_mineral 'Mirabilite (deuterated)'
_exptl_crystal_density_diffrn 1.58
_cell_measurement_temperature 4.2
_publ_section_title

;
The thermal expansion and crystal structure of mirabilite (Na2 S O4 * 10(D2
O)) from 4.2 to 300 K, determined by time-of-flight neutron powder diffraction
;
loop_
_citation_id
_citation_journal_full
_citation_year
_citation_journal_volume
_citation_page_first
_citation_page_last
_citation_journal_id_ASTM
primary 'Physics and Chemistry of Minerals' 2009 36 29 46 PCMIDU
loop_
_publ_author_name
'Brand, H.E.A.'
'Fortes, A.D.'
'Wood, I.G.'
'Knight, K.S.'
'Vocadlo, L.'
_cell_length_a 11.44214(4)
_cell_length_b 10.34276(4)
_cell_length_c 12.75468(6)
_cell_angle_alpha 90.
_cell_angle_beta 107.847(1)
_cell_angle_gamma 90.
_cell_volume 1436.79
_cell_formula_units_Z 4
_symmetry_space_group_name_H-M 'P 1 21/c 1'
_symmetry_Int_Tables_number 14
_refine_ls_R_factor_all 0.025
loop_
_symmetry_equiv_pos_site_id
_symmetry_equiv_pos_as_xyz
1 'x, -y+1/2, z+1/2'
2 '-x, -y, -z'
3 '-x, y+1/2, -z+1/2'
4 'x, y, z'
loop_
_atom_type_symbol
_atom_type_oxidation_number
S6+ 6
Na1+ 1
O2- -2
D1+ 1
loop_
_atom_site_label
_atom_site_type_symbol
_atom_site_symmetry_multiplicity
_atom_site_Wyckoff_symbol
_atom_site_fract_x
_atom_site_fract_y
_atom_site_fract_z
_atom_site_B_iso_or_equiv
_atom_site_occupancy
_atom_site_attached_hydrogens
S1 S6+ 4 e 0.2484(3) 0.3600(3) 0.2594(3) 0.00503(0) 1. 0
Na1 Na1+ 4 e 0.2575(7) 0.7463(8) 0.0178(6) 0.0108(10) 1. 0
Na2 Na1+ 4 e 0.2462(7) 0.6135(7) 0.7604(6) 0.0108(10) 1. 0
O1 O2- 4 e 0.2652(3) 0.2868(4) 0.3614(2) 0.0089(6) 1. 0
O2 O2- 4 e 0.1418(3) 0.3094(3) 0.1731(3) 0.0089(6) 1. 0
O3 O2- 4 e 0.3586(3) 0.3473(3) 0.2240(3) 0.0089(6) 1. 0
O4 O2- 4 e 0.2293(3) 0.4972(2) 0.2790(3) 0.0089(6) 1. 0
O5 O2- 4 e 0.1227(4) 0.4558(4) 0.6396(4) 0.0116(4) 1. 0
O6 O2- 4 e 0.3678(4) 0.4557(4) 0.8800(4) 0.0116(4) 1. 0
O7 O2- 4 e 0.1002(4) 0.3497(4) 0.9464(3) 0.0097(7) 1. 0
O8 O2- 4 e 0.3967(3) 0.3469(4) 0.5826(3) 0.0097(7) 1. 0
O9 O2- 4 e 0.1148(3) 0.6109(4) 0.8809(4) 0.0116(4) 1. 0
O10 O2- 4 e 0.3849(3) 0.6074(4) 0.6514(4) 0.0116(4) 1. 0
O11 O2- 4 e 0.1451(4) 0.7154(4) 0.1471(4) 0.0116(4) 1. 0
O12 O2- 4 e 0.3563(4) 0.7171(4) 0.3814(4) 0.0116(4) 1. 0
O13 O2- 4 e 0.1277(4) 0.5689(5) 0.4429(3) 0.0116(4) 1. 0
O14 O2- 4 e 0.3815(4) 0.5587(4) 0.0805(4) 0.0116(4) 1. 0
D1 D1+ 4 e 0.1432(4) 0.3634(4) 0.6517(3) 0.0289(4) 1. 0
D2 D1+ 4 e 0.1378(5) 0.4768(5) 0.5692(4) 0.0194(5) 0.693(4) 0
D3 D1+ 4 e 0.0322(5) 0.4570(8) 0.6079(11) 0.0194(5) 0.307(4) 0
D4 D1+ 4 e 0.3339(4) 0.1326(4) 0.3704(4) 0.0284(4) 1. 0
D5 D1+ 4 e 0.4554(4) 0.4437(5) 0.8856(5) 0.0194(5) 0.693(4) 0
D6 D1+ 4 e 0.362(1) 0.4833(9) 0.9526(6) 0.0194(5) 0.307(4) 0
D7 D1+ 4 e 0.1243(4) 0.3339(4) 0.0264(3) 0.0284(4) 1. 0
D8 D1+ 4 e 0.1542(4) 0.2934(4) 0.9196(3) 0.0284(4) 1. 0
D9 D1+ 4 e 0.3486(4) 0.3311(4) 0.5052(3) 0.0284(4) 1. 0
D10 D1+ 4 e 0.3693(4) 0.2800(5) 0.6249(3) 0.0284(4) 1. 0
D11 D1+ 4 e 0.1115(4) 0.5209(4) 0.9052(4) 0.0229(6) 1. 0
D12 D1+ 4 e 0.0287(3) 0.6389(4) 0.8546(3) 0.0284(4) 1. 0
D13 D1+ 4 e 0.3889(4) 0.5186(4) 0.6250(4) 0.0229(6) 1. 0
D14 D1+ 4 e 0.4713(3) 0.6305(4) 0.6892(3) 0.0284(4) 1. 0
D15 D1+ 4 e 0.0560(4) 0.7047(5) 0.1112(4) 0.0229(6) 1. 0
D16 D1+ 4 e 0.1708(3) 0.6316(5) 0.1846(3) 0.0284(4) 1. 0
D17 D1+ 4 e 0.3231(3) 0.6339(5) 0.3466(4) 0.0229(6) 1. 0
D18 D1+ 4 e 0.4460(3) 0.7043(5) 0.4032(4) 0.0284(4) 1. 0
D19 D1+ 4 e 0.1663(3) 0.5297(5) 0.3912(4) 0.0284(4) 1. 0
D20 D1+ 4 e 0.0387(4) 0.5581(6) 0.4063(5) 0.0194(5) 0.693(4) 0
D21 D1+ 4 e 0.147(1) 0.509(1) 0.5062(6) 0.0194(5) 0.307(4) 0
D22 D1+ 4 e 0.3668(4) 0.4930(4) 0.1309(3) 0.0284(4) 1. 0
D23 D1+ 4 e 0.3701(5) 0.5117(6) 0.0103(3) 0.0194(5) 0.693(4) 0
D24 D1+ 4 e 0.4715(5) 0.572(1) 0.1060(10) 0.0194(5) 0.307(4) 0
#End of TTdata_165962-ICSD