
#(C) 2019 by FIZ Karlsruhe - Leibniz Institute for Information Infrastructure.  All rights reserved.
data_165964-ICSD
_database_code_ICSD 165964
_audit_creation_date 2010-08-01
_chemical_name_systematic 'Disodium sulfate(VI) decakis(dideuteriohydrate)'
_chemical_formula_structural 'Na2 (S O4) (D2 O)10'
_chemical_formula_sum 'D20 Na2 O14 S1'
_chemical_name_structure_type Na2SO4(H2O)10
_chemical_name_mineral 'Mirabilite (deuterated)'
_exptl_crystal_density_diffrn 1.58
_cell_measurement_temperature 150.
_publ_section_title

;
The thermal expansion and crystal structure of mirabilite (Na2 S O4 * 10(D2
O)) from 4.2 to 300 K, determined by time-of-flight neutron powder diffraction
;
loop_
_citation_id
_citation_journal_full
_citation_year
_citation_journal_volume
_citation_page_first
_citation_page_last
_citation_journal_id_ASTM
primary 'Physics and Chemistry of Minerals' 2009 36 29 46 PCMIDU
loop_
_publ_author_name
'Brand, H.E.A.'
'Fortes, A.D.'
'Wood, I.G.'
'Knight, K.S.'
'Vocadlo, L.'
_cell_length_a 11.46417(5)
_cell_length_b 10.34689(5)
_cell_length_c 12.77201(6)
_cell_angle_alpha 90.
_cell_angle_beta 107.826(1)
_cell_angle_gamma 90.
_cell_volume 1442.26
_cell_formula_units_Z 4
_symmetry_space_group_name_H-M 'P 1 21/c 1'
_symmetry_Int_Tables_number 14
_refine_ls_R_factor_all 0.025
loop_
_symmetry_equiv_pos_site_id
_symmetry_equiv_pos_as_xyz
1 'x, -y+1/2, z+1/2'
2 '-x, -y, -z'
3 '-x, y+1/2, -z+1/2'
4 'x, y, z'
loop_
_atom_type_symbol
_atom_type_oxidation_number
S6+ 6
Na1+ 1
O2- -2
D1+ 1
loop_
_atom_site_label
_atom_site_type_symbol
_atom_site_symmetry_multiplicity
_atom_site_Wyckoff_symbol
_atom_site_fract_x
_atom_site_fract_y
_atom_site_fract_z
_atom_site_B_iso_or_equiv
_atom_site_occupancy
_atom_site_attached_hydrogens
S1 S6+ 4 e 0.2480(3) 0.3591(3) 0.2593(3) 0.01908(0) 1. 0
Na1 Na1+ 4 e 0.2560(8) 0.7458(9) 0.0176(7) 0.0187(12) 1. 0
Na2 Na1+ 4 e 0.2468(8) 0.6134(7) 0.7618(7) 0.0187(12) 1. 0
O1 O2- 4 e 0.2635(4) 0.2859(4) 0.3611(3) 0.0228(7) 1. 0
O2 O2- 4 e 0.1410(3) 0.3097(4) 0.1731(3) 0.0228(7) 1. 0
O3 O2- 4 e 0.3577(3) 0.3442(4) 0.2242(3) 0.0228(7) 1. 0
O4 O2- 4 e 0.2303(4) 0.4963(3) 0.2790(3) 0.0228(7) 1. 0
O5 O2- 4 e 0.1220(5) 0.4550(5) 0.6382(5) 0.0245(4) 1. 0
O6 O2- 4 e 0.3669(5) 0.4569(5) 0.8792(5) 0.0245(4) 1. 0
O7 O2- 4 e 0.0998(4) 0.3485(5) 0.9453(4) 0.0186(8) 1. 0
O8 O2- 4 e 0.3979(4) 0.3472(4) 0.5826(4) 0.0186(8) 1. 0
O9 O2- 4 e 0.1151(4) 0.6110(5) 0.8817(4) 0.0245(4) 1. 0
O10 O2- 4 e 0.3852(4) 0.6083(5) 0.6508(4) 0.0245(4) 1. 0
O11 O2- 4 e 0.1465(5) 0.7150(5) 0.1478(4) 0.0245(4) 1. 0
O12 O2- 4 e 0.3561(4) 0.7163(5) 0.3797(5) 0.0245(4) 1. 0
O13 O2- 4 e 0.1253(5) 0.5699(5) 0.4409(4) 0.0245(4) 1. 0
O14 O2- 4 e 0.3807(5) 0.5582(4) 0.0793(4) 0.0245(4) 1. 0
D1 D1+ 4 e 0.1446(5) 0.3634(5) 0.6521(4) 0.0549(5) 1. 0
D2 D1+ 4 e 0.1396(8) 0.4755(7) 0.5689(6) 0.0392(9) 0.652(5) 0
D3 D1+ 4 e 0.0314(5) 0.4544(10) 0.6109(13) 0.0392(9) 0.348(5) 0
D4 D1+ 4 e 0.3364(5) 0.1328(5) 0.3716(5) 0.0549(5) 1. 0
D5 D1+ 4 e 0.4552(5) 0.4482(7) 0.8867(7) 0.0392(9) 0.652(5) 0
D6 D1+ 4 e 0.3621(15) 0.4848(10) 0.9520(8) 0.0392(9) 0.348(5) 0
D7 D1+ 4 e 0.1226(4) 0.3329(5) 0.0255(4) 0.0549(5) 1. 0
D8 D1+ 4 e 0.1553(4) 0.2917(5) 0.9204(3) 0.0549(5) 1. 0
D9 D1+ 4 e 0.3487(4) 0.3293(5) 0.5057(3) 0.0549(5) 1. 0
D10 D1+ 4 e 0.3702(4) 0.2814(5) 0.6259(3) 0.0549(5) 1. 0
D11 D1+ 4 e 0.1119(4) 0.5210(4) 0.9065(4) 0.0347(4) 1. 0
D12 D1+ 4 e 0.0284(4) 0.6377(4) 0.8539(4) 0.0549(5) 1. 0
D13 D1+ 4 e 0.3886(4) 0.5193(5) 0.6240(4) 0.0347(4) 1. 0
D14 D1+ 4 e 0.4719(4) 0.6299(4) 0.6893(4) 0.0549(5) 1. 0
D15 D1+ 4 e 0.0576(4) 0.7047(5) 0.1114(4) 0.0347(4) 1. 0
D16 D1+ 4 e 0.1718(4) 0.6312(5) 0.1854(4) 0.0549(5) 1. 0
D17 D1+ 4 e 0.3239(4) 0.6321(5) 0.3469(4) 0.0347(4) 1. 0
D18 D1+ 4 e 0.4458(4) 0.7048(5) 0.4034(4) 0.0549(5) 1. 0
D19 D1+ 4 e 0.1650(4) 0.5288(5) 0.3909(4) 0.0549(5) 1. 0
D20 D1+ 4 e 0.0369(4) 0.5563(7) 0.4046(6) 0.0392(9) 0.652(5) 0
D21 D1+ 4 e 0.1463(11) 0.5131(11) 0.5063(6) 0.0392(9) 0.348(5) 0
D22 D1+ 4 e 0.3655(4) 0.4941(5) 0.1310(3) 0.0549(5) 1. 0
D23 D1+ 4 e 0.3685(7) 0.5090(7) 0.0102(4) 0.0392(9) 0.652(5) 0
D24 D1+ 4 e 0.4707(6) 0.5696(12) 0.1042(9) 0.0392(9) 0.348(5) 0
#End of TTdata_165964-ICSD