
#(C) 2019 by FIZ Karlsruhe - Leibniz Institute for Information Infrastructure.  All rights reserved.
data_165919-ICSD
_database_code_ICSD 165919
_audit_creation_date 2010-08-01
_chemical_name_systematic 'Barium sodium niobate titanate (0.16/0.84/0.84/0.16)'
_chemical_formula_structural '(Ba0.16 Na0.84) (Nb O3)0.84 (Ti O3)0.16'
_chemical_formula_sum 'Ba0.16 Na0.84 Nb0.84 O3 Ti0.16'
_chemical_name_structure_type Perovskite-NaBi(TiO3)2
_exptl_crystal_density_diffrn 4.72
_cell_measurement_temperature 293.
_publ_section_title

;
Crystal growth and dielectric characterization of crystals derived from the
solid-solution Ba1-x Nax Ti1-x Nbx O3 (BTNN)
;
loop_
_citation_id
_citation_journal_full
_citation_year
_citation_journal_volume
_citation_page_first
_citation_page_last
_citation_journal_id_ASTM
primary 'Materials Research Bulletin' 2009 44 2240 2245 MRBUAC
loop_
_publ_author_name
'Gacem, L.'
'Ouadjaout, D.'
'Chaminade, J.P.'
'Maglione, M.'
'von der Muehll, R.'
'Pechev, S.'
_cell_length_a 5.5845(3)
_cell_length_b 5.5845(3)
_cell_length_c 3.9453(2)
_cell_angle_alpha 90.
_cell_angle_beta 90.
_cell_angle_gamma 90.
_cell_volume 123.04
_cell_formula_units_Z 2
_symmetry_space_group_name_H-M 'P 4 b m'
_symmetry_Int_Tables_number 100
_refine_ls_R_factor_all 0.0284
loop_
_symmetry_equiv_pos_site_id
_symmetry_equiv_pos_as_xyz
1 '-y+1/2, -x+1/2, z'
2 'y+1/2, x+1/2, z'
3 'y, -x, z'
4 '-y, x, z'
5 '-x+1/2, y+1/2, z'
6 'x+1/2, -y+1/2, z'
7 '-x, -y, z'
8 'x, y, z'
loop_
_atom_type_symbol
_atom_type_oxidation_number
Na1+ 1
Ba2+ 2
Nb5+ 5
Ti4+ 4
O2- -2
loop_
_atom_site_label
_atom_site_type_symbol
_atom_site_symmetry_multiplicity
_atom_site_Wyckoff_symbol
_atom_site_fract_x
_atom_site_fract_y
_atom_site_fract_z
_atom_site_B_iso_or_equiv
_atom_site_occupancy
_atom_site_attached_hydrogens
Na1 Na1+ 2 b 0.5 0 0.4840(50) 0.016(1) 0.84 0
Ba1 Ba2+ 2 b 0.5 0 0.4840(50) 0.016(1) 0.16 0
Nb1 Nb5+ 2 a 0 0 0 0.013(1) 0.84 0
Ti1 Ti4+ 2 a 0 0 0 0.013(1) 0.16 0
O1 O2- 4 c 0.2623(7) 0.2377(7) -0.0170(100) 0.027(3) 1. 0
O2 O2- 2 a 0 0 -0.5110(120) 0.034(2) 1. 0
loop_
_atom_site_aniso_label
_atom_site_aniso_type_symbol
_atom_site_aniso_U_11
_atom_site_aniso_U_22
_atom_site_aniso_U_33
_atom_site_aniso_U_12
_atom_site_aniso_U_13
_atom_site_aniso_U_23
Na1 Na1+ 0.018(1) 0.018(1) 0.011(3) 0.001(1) 0. 0.
Ba1 Ba2+ 0.018(1) 0.018(1) 0.011(3) 0.001(1) 0. 0.
Nb1 Nb5+ 0.013(1) 0.013(1) 0.014(1) 0. 0. 0.
Ti1 Ti4+ 0.013(1) 0.013(1) 0.014(1) 0. 0. 0.
O1 O2- 0.028(2) 0.028(2) 0.027(9) -0.011(2) 0.006(6) -0.006(6)
O2 O2- 0.048(3) 0.048(3) 0.006(3) 0. 0. 0.
#End of TTdata_165919-ICSD