
#(C) 2019 by FIZ Karlsruhe - Leibniz Institute for Information Infrastructure.  All rights reserved.
data_16598-ICSD
_database_code_ICSD 16598
_audit_creation_date 1986-10-03
_audit_update_record 2015-02-01
_chemical_name_systematic 'Disodium hexafluorosilicate'
_chemical_formula_structural 'Na2 (Si F6)'
_chemical_formula_sum 'F6 Na2 Si1'
_chemical_name_structure_type Na2SiF6
_chemical_name_mineral Malladrite
_exptl_crystal_density_diffrn 2.74
_publ_section_title 'The crystal structure of sodium fluorosilicate'
loop_
_citation_id
_citation_journal_full
_citation_year
_citation_journal_volume
_citation_page_first
_citation_page_last
_citation_journal_id_ASTM
primary 'Acta Crystallographica' 1964 17 1408 1412 ACCRA9
loop_
_publ_author_name
'Zalkin, A.'
'Forrester, J.D.'
'Templeton, D.H.'
_cell_length_a 8.859(2)
_cell_length_b 8.859(2)
_cell_length_c 5.038(2)
_cell_angle_alpha 90.
_cell_angle_beta 90.
_cell_angle_gamma 120.
_cell_volume 342.42
_cell_formula_units_Z 3
_symmetry_space_group_name_H-M 'P 3 2 1'
_symmetry_Int_Tables_number 150
_refine_ls_R_factor_all 0.085
loop_
_symmetry_equiv_pos_site_id
_symmetry_equiv_pos_as_xyz
1 'x-y, -y, -z'
2 '-x, -x+y, -z'
3 'y, x, -z'
4 '-x+y, -x, z'
5 '-y, x-y, z'
6 'x, y, z'
loop_
_atom_type_symbol
_atom_type_oxidation_number
Si4+ 4
Na1+ 1
F1- -1
loop_
_atom_site_label
_atom_site_type_symbol
_atom_site_symmetry_multiplicity
_atom_site_Wyckoff_symbol
_atom_site_fract_x
_atom_site_fract_y
_atom_site_fract_z
_atom_site_B_iso_or_equiv
_atom_site_occupancy
_atom_site_attached_hydrogens
Si1 Si4+ 1 a 0 0 0 . 1. 0
Si2 Si4+ 2 d 0.3333 0.6667 0.5062(12) . 1. 0
Na1 Na1+ 3 e 0.379(1) 0.379(1) 0 . 1. 0
Na2 Na1+ 3 f 0.7143(9) 0.7143(9) 0.5 . 1. 0
F1 F1- 6 g 0.0870(18) -.092(2) 0.8099(14) . 1. 0
F2 F1- 6 g 0.4442(12) -.401(1) 0.7007(14) . 1. 0
F3 F1- 6 g 0.2299(15) -.260(2) 0.3098(14) . 1. 0
loop_
_atom_site_aniso_label
_atom_site_aniso_type_symbol
_atom_site_aniso_B_11
_atom_site_aniso_B_22
_atom_site_aniso_B_33
_atom_site_aniso_B_12
_atom_site_aniso_B_13
_atom_site_aniso_B_23
Si1 Si4+ 1.3(2) 1.3(2) 1.9(4) 0.6 0 0
Si2 Si4+ 1.1(1) 1.1(1) 1.3(2) 0.5 0 0
Na1 Na1+ 2.4(3) 2.4(3) 1.3(3) 0.9(3) 0.1(2) -.1
Na2 Na1+ 1.6(2) 1.6(2) 2.5(4) 0.7(3) -.1(2) 0.1
F1 F1- 3.6(5) 2.7(5) 3.1(3) 2.1(3) 0.9(5) -.4(5)
F2 F1- 1.6(4) 1.9(4) 2.3(3) 1.2(4) 0.5(3) 1.3(3)
F3 F1- 1.9(4) 2.5(4) 2.3(3) 1.3(3) -.4(4) -.2(4)
#End of TTdata_16598-ICSD