
#(C) 2019 by FIZ Karlsruhe - Leibniz Institute for Information Infrastructure.  All rights reserved.
data_1663-ICSD
_database_code_ICSD 1663
_audit_creation_date 1980-01-01
_audit_update_record 2010-02-01
_chemical_name_systematic 'Disodium heptafluoroferro(III)manganate(II)'
_chemical_formula_structural 'Na2 (Fe Mn F7)'
_chemical_formula_sum 'F7 Fe1 Mn1 Na2'
_chemical_name_structure_type Mn2Sb2O7
_exptl_crystal_density_diffrn 3.26
_publ_section_title

;
Roentgen- und Neutronen-Strukturbestimmung des Na2 Mn Fe F7-Typs: eine
trigonale Weberit-Variante
;
loop_
_citation_id
_citation_journal_full
_citation_year
_citation_journal_volume
_citation_page_first
_citation_page_last
_citation_journal_id_ASTM
primary 'Journal of Solid State Chemistry' 1978 24 405 421 JSSCBI
loop_
_publ_author_name
'Verscharen, W.'
'Babel, D.'
_cell_length_a 7.488(2)
_cell_length_b 7.488(2)
_cell_length_c 18.257(6)
_cell_angle_alpha 90.
_cell_angle_beta 90.
_cell_angle_gamma 120.
_cell_volume 886.53
_cell_formula_units_Z 6
_symmetry_space_group_name_H-M 'P 31 2 1'
_symmetry_Int_Tables_number 152
_refine_ls_R_factor_all 0.031
loop_
_symmetry_equiv_pos_site_id
_symmetry_equiv_pos_as_xyz
1 'x-y, -y, -z+2/3'
2 '-x, -x+y, -z+1/3'
3 'y, x, -z'
4 '-x+y, -x, z+2/3'
5 '-y, x-y, z+1/3'
6 'x, y, z'
loop_
_atom_type_symbol
_atom_type_oxidation_number
Fe3+ 3
Mn2+ 2
Na1+ 1
F1- -1
loop_
_atom_site_label
_atom_site_type_symbol
_atom_site_symmetry_multiplicity
_atom_site_Wyckoff_symbol
_atom_site_fract_x
_atom_site_fract_y
_atom_site_fract_z
_atom_site_B_iso_or_equiv
_atom_site_occupancy
_atom_site_attached_hydrogens
Fe1 Fe3+ 3 a 0.3159(3) 0 0.3333 . 1. 0
Fe2 Fe3+ 3 b 0.3377(2) 0 0.8333 . 1. 0
Mn1 Mn2+ 6 c 0.4889(25) 0.8326(25) 0.1717(4) . 1. 0
Na1 Na1+ 6 c 0.4983(18) 0.8686(15) 0.6687(3) . 1. 0
Na2 Na1+ 3 a 0.8530(24) 0 0.3333 . 1. 0
Na3 Na1+ 6 c 0.8646(29) 0.0416(22) 0.8367(14) . 0.5 0
F1 F1- 6 c 0.7613(5) 0.1953(9) 0.6043(2) . 1. 0
F2 F1- 6 c 0.7936(11) 0.9367(5) 0.9462(2) . 1. 0
F3 F1- 6 c 0.5570(11) 0.4253(5) 0.0539(2) . 1. 0
F4 F1- 6 c 0.8069(5) 0.4292(5) 0.1895(2) . 1. 0
F5 F1- 6 c 0.0691(4) 0.3740(5) 0.2707(1) . 1. 0
F6 F1- 6 c 0.1934(5) 0.2453(5) 0.1437(2) . 1. 0
F7 F1- 6 c 0.0508(5) 0.4298(4) 0.8741(1) . 1. 0
loop_
_atom_site_aniso_label
_atom_site_aniso_type_symbol
_atom_site_aniso_B_11
_atom_site_aniso_B_22
_atom_site_aniso_B_33
_atom_site_aniso_B_12
_atom_site_aniso_B_13
_atom_site_aniso_B_23
Fe1 Fe3+ 2.02(6) 1.53(8) 0.77(5) 0.77(4) 0.05(4) 0.10(7)
Fe2 Fe3+ 1.10(5) 0.93(7) 2.03(6) 0.47(2) 0.12(4) 0.25(7)
Mn1 Mn2+ 1.42(32) 1.18(27) 1.36(26) 0.59(21) 0.16(22) 0.12(23)
Na1 Na1+ 3.81(22) 4.02(45) 4.17(19) 2.25(27) 0.45(18) -.9(2)
Na2 Na1+ 2.97(40) 4.90(68) 4.43(49) 2.45(34) 0.28(23) 0.55(46)
Na3 Na1+ 5.74(86) 4.060(11) 2.49(61) 2.08(81) 2.43(78) 1.37(78)
F1 F1- 3.04(12) 3.38(19) 2.09(11) 0.94(17) -1.31(9) -.58(14)
F2 F1- 5.62(27) 3.43(14) 2.13(9) 3.25(20) 0.63(15) 0.92(10)
F3 F1- 5.29(27) 3.69(14) 2.45(13) 2.48(22) 0.76(17) 1.19(10)
F4 F1- 1.71(13) 3.17(14) 4.18(13) 1.71(12) -.25(10) -.55(12)
F5 F1- 2.71(11) 3.20(13) 2.37(8) 1.83(11) -.91(8) -1.06(9)
F6 F1- 1.72(12) 2.92(13) 3.95(12) 1.50(11) -.17(10) -.33(11)
F7 F1- 1.74(11) 3.10(12) 3.57(11) 1.46(10) 0.37(10) 0.67(9)
#End of TTdata_1663-ICSD