
#(C) 2019 by FIZ Karlsruhe - Leibniz Institute for Information Infrastructure.  All rights reserved.
data_1664-ICSD
_database_code_ICSD 1664
_audit_creation_date 1980-01-01
_audit_update_record 2010-02-01
_chemical_name_systematic 'Disodium heptafluoroferro(III)manganate(II)'
_chemical_formula_structural 'Na2 (Fe Mn F7)'
_chemical_formula_sum 'F7 Fe1 Mn1 Na2'
_chemical_name_structure_type Mn2Sb2O7
_exptl_crystal_density_diffrn 3.26
_publ_section_title

;
Roentgen- und Neutronen-Strukturbestimmung des Na2 Mn Fe F7-Typs: eine
trigonale Weberit-Variante
;
loop_
_citation_id
_citation_journal_full
_citation_year
_citation_journal_volume
_citation_page_first
_citation_page_last
_citation_journal_id_ASTM
primary 'Journal of Solid State Chemistry' 1978 24 405 421 JSSCBI
loop_
_publ_author_name
'Verscharen, W.'
'Babel, D.'
_cell_length_a 7.488(2)
_cell_length_b 7.488(2)
_cell_length_c 18.257(6)
_cell_angle_alpha 90.
_cell_angle_beta 90.
_cell_angle_gamma 120.
_cell_volume 886.53
_cell_formula_units_Z 6
_symmetry_space_group_name_H-M 'P 31 2 1'
_symmetry_Int_Tables_number 152
_refine_ls_R_factor_all 0.032
loop_
_symmetry_equiv_pos_site_id
_symmetry_equiv_pos_as_xyz
1 'x-y, -y, -z+2/3'
2 '-x, -x+y, -z+1/3'
3 'y, x, -z'
4 '-x+y, -x, z+2/3'
5 '-y, x-y, z+1/3'
6 'x, y, z'
loop_
_atom_type_symbol
_atom_type_oxidation_number
Fe3+ 3
Mn2+ 2
Na1+ 1
F1- -1
loop_
_atom_site_label
_atom_site_type_symbol
_atom_site_symmetry_multiplicity
_atom_site_Wyckoff_symbol
_atom_site_fract_x
_atom_site_fract_y
_atom_site_fract_z
_atom_site_B_iso_or_equiv
_atom_site_occupancy
_atom_site_attached_hydrogens
Fe1 Fe3+ 3 a 0.3164(1) 0 0.3333 . 1. 0
Fe2 Fe3+ 3 b 0.3362(1) 0 0.8333 . 1. 0
Mn1 Mn2+ 6 c 0.4975(1) 0.8365(1) 0.1701(1) . 1. 0
Na1 Na1+ 6 c 0.5011(5) 0.8683(5) 0.6684(2) . 1. 0
Na2 Na1+ 3 a 0.8488(8) 0 0.3333 . 1. 0
Na3 Na1+ 6 c 0.8587(9) 0.0374(8) 0.8371(7) . 0.5 0
F1 F1- 6 c 0.7614(5) 0.1989(8) 0.6039(2) . 1. 0
F2 F1- 6 c 0.7963(8) 0.9378(5) 0.9466(3) . 1. 0
F3 F1- 6 c 0.5590(8) 0.4234(5) 0.0538(2) . 1. 0
F4 F1- 6 c 0.8077(5) 0.4295(5) 0.1899(2) . 1. 0
F5 F1- 6 c 0.0683(4) 0.3716(5) 0.2709(2) . 1. 0
F6 F1- 6 c 0.1928(5) 0.2433(5) 0.1433(2) . 1. 0
F7 F1- 6 c 0.0490(4) 0.4294(5) 0.8756(2) . 1. 0
loop_
_atom_site_aniso_label
_atom_site_aniso_type_symbol
_atom_site_aniso_B_11
_atom_site_aniso_B_22
_atom_site_aniso_B_33
_atom_site_aniso_B_12
_atom_site_aniso_B_13
_atom_site_aniso_B_23
Fe1 Fe3+ 1.71(4) 1.27(3) 0.82(6) 0.64(2) 0.02(1) 0.05(3)
Fe2 Fe3+ 0.91(2) 0.63(2) 1.77(6) 0.31(1) 0.08(1) 0.15(2)
Mn1 Mn2+ 0.88(2) 0.78(2) 1.07(4) 0.38(1) -.03(2) -.11(2)
Na1 Na1+ 2.96(11) 3.08(18) 3.91(17) 1.75(13) 0.37(10) -.71(11)
Na2 Na1+ 4.37(26) 5.04(27) 6.40(37) 2.52(13) 0.39(10) 0.78(20)
Na3 Na1+ 4.29(28) 2.96(29) 1.90(26) 1.87(27) 0.74(31) 0.85(34)
F1 F1- 2.74(15) 3.96(24) 2.05(23) 1.08(19) -1.39(15) -.35(22)
F2 F1- 4.32(26) 3.24(17) 2.20(23) 2.39(20) 0.74(23) 1.12(16)
F3 F1- 4.79(28) 3.39(18) 2.27(23) 2.40(22) 0.94(25) 1.41(16)
F4 F1- 1.68(13) 3.09(16) 3.76(24) 1.71(13) -.36(14) -.44(15)
F5 F1- 2.33(12) 2.79(15) 2.12(20) 1.57(12) -.82(13) -.98(14)
F6 F1- 1.54(13) 2.84(15) 3.96(24) 1.55(12) -.16(14) -.51(15)
F7 F1- 1.43(11) 3.22(15) 4.63(24) 1.61(12) 0.04(15) 0.35(15)
#End of TTdata_1664-ICSD