
#(C) 2019 by FIZ Karlsruhe - Leibniz Institute for Information Infrastructure.  All rights reserved.
data_166585-ICSD
_database_code_ICSD 166585
_audit_creation_date 2010-08-01
_chemical_name_systematic 'Trisodium iron octaphosphate(V)'
_chemical_formula_structural 'Na3 Fe (P8 O23)'
_chemical_formula_sum 'Fe1 Na3 O23 P8'
_chemical_name_structure_type Na3AlP8O23
_exptl_crystal_density_diffrn 2.91
_publ_section_title
'Double ultraphosphate of iron and sodium Na3 Fe P8 O23 with a new anion form'
loop_
_citation_id
_citation_journal_full
_citation_year
_citation_journal_volume
_citation_page_first
_citation_page_last
_citation_journal_id_ASTM
primary 'Doklady Akademii Nauk SSSR' 1989 306 635 638 DANKAS
loop_
_publ_author_name
'Chudinova, N.N.'
'Palkina, K.K.'
'Karmanovskaya, N.B.'
'Maximova, S.I.'
'Chibiskova, N.T.'
_cell_length_a 11.915(7)
_cell_length_b 11.915(7)
_cell_length_c 11.915(7)
_cell_angle_alpha 90.
_cell_angle_beta 90.
_cell_angle_gamma 90.
_cell_volume 1691.54
_cell_formula_units_Z 4
_symmetry_space_group_name_H-M 'P 41 3 2'
_symmetry_Int_Tables_number 213
_refine_ls_R_factor_all 0.027
loop_
_symmetry_equiv_pos_site_id
_symmetry_equiv_pos_as_xyz
1 '-z+1/4, y+3/4, x+1/4'
2 'z+1/4, -y+1/4, x+3/4'
3 'z+3/4, y+1/4, -x+1/4'
4 '-z+3/4, -y+3/4, -x+3/4'
5 'y+3/4, x+1/4, -z+1/4'
6 '-y+1/4, x+3/4, z+1/4'
7 'y+1/4, -x+1/4, z+3/4'
8 '-y+3/4, -x+3/4, -z+3/4'
9 'x+1/4, -z+1/4, y+3/4'
10 'x+3/4, z+1/4, -y+1/4'
11 '-x+1/4, z+3/4, y+1/4'
12 '-x+3/4, -z+3/4, -y+3/4'
13 'z+1/2, -x+1/2, -y'
14 '-z+1/2, -x, y+1/2'
15 '-z, x+1/2, -y+1/2'
16 'z, x, y'
17 '-y, z+1/2, -x+1/2'
18 'y+1/2, -z+1/2, -x'
19 '-y+1/2, -z, x+1/2'
20 'y, z, x'
21 '-x+1/2, -y, z+1/2'
22 '-x, y+1/2, -z+1/2'
23 'x+1/2, -y+1/2, -z'
24 'x, y, z'
loop_
_atom_type_symbol
_atom_type_oxidation_number
Fe3+ 3
Na1+ 1
P5+ 5
O2- -2
loop_
_atom_site_label
_atom_site_type_symbol
_atom_site_symmetry_multiplicity
_atom_site_Wyckoff_symbol
_atom_site_fract_x
_atom_site_fract_y
_atom_site_fract_z
_atom_site_B_iso_or_equiv
_atom_site_occupancy
_atom_site_attached_hydrogens
Fe1 Fe3+ 4 a 0.375 0.375 0.375 0.84(2) 1. 0
Na1 Na1+ 12 d 0.125 0.0430(1) 0.2930(0) 1.20(6) 1. 0
P1 P5+ 24 e 0.1417(1) 0.1454(1) 0.5687(1) 0.64(6) 1. 0
P2 P5+ 8 c 0.0190(1) 0.0190(1) 0.0190(1) 0.55(0) 1. 0
O1 O2- 24 e 0.0408(2) 0.1199(3) 0.6372(2) 0.11(11) 1. 0
O2 O2- 24 e 0.4240(2) 0.0069(2) 0.4046(2) 0.86(10) 1. 0
O3 O2- 12 d 0.125 0.2669(2) 0.5169(0) 1.35(10) 1. 0
O4 O2- 24 e 0.3128(2) 0.0681(2) 0.2367(2) 0.98(11) 1. 0
O5 O2- 8 c 0.0899(2) 0.0899(2) 0.0899(2) 1.01(10) 1. 0
#End of TTdata_166585-ICSD