
#(C) 2019 by FIZ Karlsruhe - Leibniz Institute for Information Infrastructure.  All rights reserved.
data_166532-ICSD
_database_code_ICSD 166532
_audit_creation_date 2010-08-01
_chemical_name_systematic 'Disodium pentathiodisilicate'
_chemical_formula_structural 'Na2 (Si2 S5)'
_chemical_formula_sum 'Na2 S5 Si2'
_chemical_name_structure_type Na4Ge4S10
_exptl_crystal_density_diffrn 2.09
_publ_section_title
'Structure cristalline du thiosilicate de sodium Na4 Si4 S10'
loop_
_citation_id
_citation_journal_full
_citation_year
_citation_journal_volume
_citation_page_first
_citation_page_last
_citation_journal_id_ASTM
primary

;
Comptes Rendus des Seances de l'Academie des Sciences, Serie C: Sciences
Chimiques
; 1972 274 1054 1056 CHDCAQ
loop_
_publ_author_name
'Cade, A.'
'Ribes, M.'
'Philippot, E.'
'Maurin, M.'
_cell_length_a 12.681(8)
_cell_length_b 12.720(4)
_cell_length_c 10.346(5)
_cell_angle_alpha 90.
_cell_angle_beta 90.
_cell_angle_gamma 90.
_cell_volume 1668.83
_cell_formula_units_Z 8
_symmetry_space_group_name_H-M 'C m c m'
_symmetry_Int_Tables_number 63
_refine_ls_R_factor_all 0.092
loop_
_symmetry_equiv_pos_site_id
_symmetry_equiv_pos_as_xyz
1 '-x, y, -z+1/2'
2 '-x, -y, z+1/2'
3 '-x, y, z'
4 '-x, -y, -z'
5 'x, -y, z+1/2'
6 'x, y, -z+1/2'
7 'x, -y, -z'
8 'x, y, z'
9 '-x+1/2, y+1/2, -z+1/2'
10 '-x+1/2, -y+1/2, z+1/2'
11 '-x+1/2, y+1/2, z'
12 '-x+1/2, -y+1/2, -z'
13 'x+1/2, -y+1/2, z+1/2'
14 'x+1/2, y+1/2, -z+1/2'
15 'x+1/2, -y+1/2, -z'
16 'x+1/2, y+1/2, z'
loop_
_atom_type_symbol
_atom_type_oxidation_number
Si4+ 4
S2- -2
Na1+ 1
loop_
_atom_site_label
_atom_site_type_symbol
_atom_site_symmetry_multiplicity
_atom_site_Wyckoff_symbol
_atom_site_fract_x
_atom_site_fract_y
_atom_site_fract_z
_atom_site_B_iso_or_equiv
_atom_site_occupancy
_atom_site_attached_hydrogens
Si1 Si4+ 8 f 0 0.2522(4) 0.0832(8) 1.74(14) 1. 0
Si2 Si4+ 8 g 0.1346(4) 0.4475(4) 0.25 1.61(14) 1. 0
S1 S2- 4 c 0 0.5477(6) 0.25 1.20(20) 1. 0
S2 S2- 16 h 0.1390(3) 0.3492(3) 0.0796(5) 2.20(9) 1. 0
S3 S2- 4 c 0 0.1541(4) 0.25 2.04(20) 1. 0
S4 S2- 8 f 0 0.1579(4) -0.0772(8) 2.21(13) 1. 0
S5 S2- 8 g 0.2655(5) 0.5387(4) 0.25 2.21(15) 1. 0
Na1 Na1+ 8 e 0.1528(7) 0 0 2.83(25) 1. 0
Na2 Na1+ 8 g 0.3375(8) 0.2451(9) 0.25 4.41(34) 1. 0
#End of TTdata_166532-ICSD