
#(C) 2019 by FIZ Karlsruhe - Leibniz Institute for Information Infrastructure.  All rights reserved.
data_166645-ICSD
_database_code_ICSD 166645
_audit_creation_date 2010-08-01
_chemical_name_systematic 'Sodium cobalt iron oxide (0.63/0.97/0.03/2)'
_chemical_formula_structural 'Na0.628 ((Co0.97 Fe0.03) O2)'
_chemical_formula_sum 'Co0.97 Fe0.03 Na0.628 O2'
_chemical_name_structure_type NaxCoO2
_exptl_crystal_density_diffrn 4.6
_publ_section_title
'Substitution effects on the structural and magnetic behaviour of Na0.63 Co O2'
loop_
_citation_id
_citation_journal_full
_citation_year
_citation_journal_volume
_citation_page_first
_citation_page_last
_citation_journal_id_ASTM
primary 'Dalton Transactions' 2010 39 1089 1094 DTARAF
loop_
_publ_author_name
'Zhou Tong'
'Zhang Dou'
'Button, T.W.'
'Berry, F.J.'
'Greaves, C.'
_cell_length_a 2.83269(3)
_cell_length_b 2.83269(3)
_cell_length_c 10.9419(2)
_cell_angle_alpha 90.
_cell_angle_beta 90.
_cell_angle_gamma 120.
_cell_volume 76.04
_cell_formula_units_Z 2
_symmetry_space_group_name_H-M 'P 63/m m c'
_symmetry_Int_Tables_number 194
loop_
_symmetry_equiv_pos_site_id
_symmetry_equiv_pos_as_xyz
1 'x, x-y, -z+1/2'
2 '-x+y, y, -z+1/2'
3 '-y, -x, -z+1/2'
4 '-x+y, -x, -z+1/2'
5 '-y, x-y, -z+1/2'
6 'x, y, -z+1/2'
7 '-x, -x+y, z+1/2'
8 'x-y, -y, z+1/2'
9 'y, x, z+1/2'
10 'x-y, x, z+1/2'
11 'y, -x+y, z+1/2'
12 '-x, -y, z+1/2'
13 '-x, -x+y, -z'
14 'x-y, -y, -z'
15 'y, x, -z'
16 'x-y, x, -z'
17 'y, -x+y, -z'
18 '-x, -y, -z'
19 'x, x-y, z'
20 '-x+y, y, z'
21 '-y, -x, z'
22 '-x+y, -x, z'
23 '-y, x-y, z'
24 'x, y, z'
loop_
_atom_type_symbol
_atom_type_oxidation_number
Na1+ 1
Co3+ 3.37
Fe3+ 3.37
O2- -2
loop_
_atom_site_label
_atom_site_type_symbol
_atom_site_symmetry_multiplicity
_atom_site_Wyckoff_symbol
_atom_site_fract_x
_atom_site_fract_y
_atom_site_fract_z
_atom_site_B_iso_or_equiv
_atom_site_occupancy
_atom_site_attached_hydrogens
Na1 Na1+ 6 h 0.958(4) 0.916(8) 0.25 0.007(2) 0.066(1) 0
Na2 Na1+ 6 h 0.723(2) 0.446(4) 0.25 0.007(2) 0.143(2) 0
Co1 Co3+ 2 a 0 0 0 0.0056(3) 0.97 0
Fe1 Fe3+ 2 a 0 0 0 0.0056(3) 0.03 0
O1 O2- 4 f 0.3333 0.6667 0.08992(6) 0.0060(2) 1. 0
#End of TTdata_166645-ICSD