
#(C) 2019 by FIZ Karlsruhe - Leibniz Institute for Information Infrastructure.  All rights reserved.
data_166768-ICSD
_database_code_ICSD 166768
_audit_creation_date 2010-08-01
_chemical_name_systematic 'Sodium iron(III) bis(sulfate(VI))'
_chemical_formula_structural 'Na Fe (S O4)2'
_chemical_formula_sum 'Fe1 Na1 O8 S2'
_chemical_name_structure_type KFe(SO4)2
_chemical_name_mineral Eldfellite
_exptl_crystal_density_diffrn 3.06
_publ_section_title

;
Eldfellite, Na Fe (S O4)2, a new fumarolic mineral from Eldfell volcano,
Iceland
;
loop_
_citation_id
_citation_journal_full
_citation_year
_citation_journal_volume
_citation_page_first
_citation_page_last
_citation_journal_id_ASTM
primary 'Mineralogical Magazine' 2009 73 51 57 MNLMBB
loop_
_publ_author_name
'Balic Zunic, T.'
'Garavelli, A.'
'Acquafredda, P.'
'Leonardsen, E.'
'Jakobsson, S.P.'
_cell_length_a 8.043(4)
_cell_length_b 5.139(2)
_cell_length_c 7.115(4)
_cell_angle_alpha 90.
_cell_angle_beta 92.13(2)
_cell_angle_gamma 90.
_cell_volume 293.88
_cell_formula_units_Z 2
_symmetry_space_group_name_H-M 'C 1 2/m 1'
_symmetry_Int_Tables_number 12
_refine_ls_R_factor_all 0.1
loop_
_symmetry_equiv_pos_site_id
_symmetry_equiv_pos_as_xyz
1 '-x, y, -z'
2 '-x, -y, -z'
3 'x, -y, z'
4 'x, y, z'
5 '-x+1/2, y+1/2, -z'
6 '-x+1/2, -y+1/2, -z'
7 'x+1/2, -y+1/2, z'
8 'x+1/2, y+1/2, z'
loop_
_atom_type_symbol
_atom_type_oxidation_number
Na1+ 1
Fe3+ 3
S6+ 6
O2- -2
loop_
_atom_site_label
_atom_site_type_symbol
_atom_site_symmetry_multiplicity
_atom_site_Wyckoff_symbol
_atom_site_fract_x
_atom_site_fract_y
_atom_site_fract_z
_atom_site_B_iso_or_equiv
_atom_site_occupancy
_atom_site_attached_hydrogens
Na1 Na1+ 2 c 0 0 0.5 1.5 1. 0
Fe1 Fe3+ 2 a 0 0 0 0.6 1. 0
S1 S6+ 4 i 0.370(4) 0 0.212(4) 0.6 1. 0
O1 O2- 4 i 0.237(7) 0 0.063(8) 1.5 1. 0
O2 O2- 4 i 0.285(7) 0 0.375(7) 1.5 1. 0
O3 O2- 8 j 0.457(6) 0.237(7) 0.221(4) 1.5 1. 0
#End of TTdata_166768-ICSD