
#(C) 2019 by FIZ Karlsruhe - Leibniz Institute for Information Infrastructure.  All rights reserved.
data_166951-ICSD
_database_code_ICSD 166951
_audit_creation_date 2010-08-01
_chemical_name_systematic 'Disodium tetraniobate'
_chemical_formula_structural 'Na2 (Nb4 O11)'
_chemical_formula_sum 'Na2 Nb4 O11'
_chemical_name_structure_type K3Ta2Se2(Se2)3AsSe3
_exptl_crystal_density_diffrn 4.81
_cell_measurement_temperature 293.
_publ_section_title
'A new family of ferroelectric materials: Me2 Nb4 O11 (Me= Na, Ag)'
loop_
_citation_id
_citation_journal_full
_citation_year
_citation_journal_volume
_citation_page_first
_citation_page_last
_citation_journal_id_ASTM
primary 'Journal of Materials Chemistry' 2010 20 2082 2084 JMACEP
loop_
_publ_author_name
'Maso, N.'
'West, A.R.'
_cell_length_a 10.84273(13)
_cell_length_b 6.16644(6)
_cell_length_c 12.75239(14)
_cell_angle_alpha 90.
_cell_angle_beta 106.1765(10)
_cell_angle_gamma 90.
_cell_volume 818.88
_cell_formula_units_Z 4
_symmetry_space_group_name_H-M 'C 1 c 1'
_symmetry_Int_Tables_number 9
_refine_ls_R_factor_all 0.068
loop_
_symmetry_equiv_pos_site_id
_symmetry_equiv_pos_as_xyz
1 'x, -y, z+1/2'
2 'x, y, z'
3 'x+1/2, -y+1/2, z+1/2'
4 'x+1/2, y+1/2, z'
loop_
_atom_type_symbol
_atom_type_oxidation_number
Nb5+ 5
Na1+ 1
O2- -2
loop_
_atom_site_label
_atom_site_type_symbol
_atom_site_symmetry_multiplicity
_atom_site_Wyckoff_symbol
_atom_site_fract_x
_atom_site_fract_y
_atom_site_fract_z
_atom_site_B_iso_or_equiv
_atom_site_occupancy
_atom_site_attached_hydrogens
Nb1 Nb5+ 4 a 0.1788(10) 0.5711(5) 0.2470(12) 0.0154(7) 1. 0
Nb2 Nb5+ 4 a 0.81804(19) 0.5710(5) 0.24772(25) 0.0134(7) 1. 0
Nb3 Nb5+ 4 a 0.0022(4) 0.11812(35) 0.25482(32) 0.0163(6) 1. 0
Nb4 Nb5+ 4 a 0.25885(32) 0.2606(10) 0.5015(4) 0.0171(6) 1. 0
Na1 Na1+ 4 a 0.0911(4) 0.2455(25) 1.0029(4) 0.0119(16) 1. 0
Na2 Na1+ 4 a 0.9235(4) 0.2531(26) 0.5082(4) 0.0119(16) 1. 0
O1 O2- 4 a 0.2340(4) 0.5371(30) 0.4043(4) 0.0016(10) 1. 0
O2 O2- 4 a 0.7670(4) 0.4951(28) 0.0929(4) 0.0016(10) 1. 0
O3 O2- 4 a 0.1528(4) 0.5908(32) 0.0829(4) 0.0016(10) 1. 0
O4 O2- 4 a 0.8433(4) 0.6013(31) 0.4049(5) 0.0016(10) 1. 0
O5 O2- 4 a 0.0834(4) 0.1467(32) 0.4159(4) 0.0016(10) 1. 0
O6 O2- 4 a 0.9201(4) 0.1308(31) 0.0965(4) 0.0016(10) 1. 0
O7 O2- 4 a 0.1185(4) 0.8580(31) 0.2511(5) 0.0016(10) 1. 0
O8 O2- 4 a 0.8745(4) 0.8875(31) 0.2494(4) 0.0016(10) 1. 0
O9 O2- 4 a 0.1614(4) 0.2451(32) 0.2134(4) 0.0016(10) 1. 0
O10 O2- 4 a 0.8457(4) 0.2558(32) 0.2819(4) 0.0016(10) 1. 0
O11 O2- 4 a 0.0018(4) 0.4957(19) 0.2461(5) 0.0016(10) 1. 0
#End of TTdata_166951-ICSD