
#(C) 2019 by FIZ Karlsruhe - Leibniz Institute for Information Infrastructure.  All rights reserved.
data_166998-ICSD
_database_code_ICSD 166998
_audit_creation_date 2010-08-01
_chemical_name_systematic 'Sodium barium scandium disilicate'
_chemical_formula_structural 'Na Ba Sc (Si2 O7)'
_chemical_formula_sum 'Ba1 Na1 O7 Sc1 Si2'
_exptl_crystal_density_diffrn 3.87
_cell_measurement_temperature 293.
_publ_section_title
'The crystal structures of three new complex silicates of scandium'
loop_
_citation_id
_citation_journal_full
_citation_year
_citation_journal_volume
_citation_page_first
_citation_page_last
_citation_journal_id_ASTM
primary 'Canadian Mineralogist' 2010 48 51 68 CAMIA6
loop_
_publ_author_name
'Wierzbicka Wieczorek, M.'
'Kolitsch, U.'
'Tillmanns, E.'
_cell_length_a 6.845(1)
_cell_length_b 5.626(1)
_cell_length_c 8.819(2)
_cell_angle_alpha 90.
_cell_angle_beta 109.33(3)
_cell_angle_gamma 90.
_cell_volume 320.47
_cell_formula_units_Z 2
_symmetry_space_group_name_H-M 'P 1 21/m 1'
_symmetry_Int_Tables_number 11
_refine_ls_R_factor_all 0.0182
loop_
_symmetry_equiv_pos_site_id
_symmetry_equiv_pos_as_xyz
1 'x, -y+1/2, z'
2 '-x, -y, -z'
3 '-x, y+1/2, -z'
4 'x, y, z'
loop_
_atom_type_symbol
_atom_type_oxidation_number
Ba2+ 2
Na1+ 1
Sc3+ 3
Si4+ 4
O2- -2
loop_
_atom_site_label
_atom_site_type_symbol
_atom_site_symmetry_multiplicity
_atom_site_Wyckoff_symbol
_atom_site_fract_x
_atom_site_fract_y
_atom_site_fract_z
_atom_site_B_iso_or_equiv
_atom_site_occupancy
_atom_site_attached_hydrogens
Ba1 Ba2+ 2 e 0.70493(2) 0.75 0.536059(18) 0.00812(5) 1. 0
Na1 Na1+ 2 e 0.2663(2) 0.25 0.99385(18) 0.0302(3) 1. 0
Sc1 Sc3+ 2 e 0.70065(7) 0.25 0.26630(5) 0.00465(8) 1. 0
Si1 Si4+ 2 e 0.94741(1) 0.25 0.68026(8) 0.00502(12) 1. 0
Si2 Si4+ 2 e 0.63905(1) 0.25 0.84265(8) 0.00498(12) 1. 0
O1 O2- 4 f 0.0806(2) 0.4860(3) 0.68648(17) 0.0150(3) 1. 0
O2 O2- 2 e 0.7386(3) 0.25 0.5235(2) 0.0068(3) 1. 0
O3 O2- 2 e 0.8824(3) 0.25 0.8456(2) 0.0106(3) 1. 0
O4 O2- 2 e 0.6361(3) 0.25 0.0234(2) 0.0110(3) 1. 0
O5 O2- 4 f 0.5330(2) 0.0097(2) 0.74776(15) 0.0108(2) 1. 0
loop_
_atom_site_aniso_label
_atom_site_aniso_type_symbol
_atom_site_aniso_U_11
_atom_site_aniso_U_22
_atom_site_aniso_U_33
_atom_site_aniso_U_12
_atom_site_aniso_U_13
_atom_site_aniso_U_23
Ba1 Ba2+ 0.00791(7) 0.00683(7) 0.00910(7) 0. 0.00210(5) 0.
Na1 Na1+ 0.0169(6) 0.0464(9) 0.0211(7) 0. -0.0020(5) 0.
Sc1 Sc3+ 0.00506(17) 0.00420(18) 0.00463(17) 0. 0.00155(14) 0.
Si1 Si4+ 0.0046(3) 0.0048(3) 0.0056(3) 0. 0.0016(2) 0.
Si2 Si4+ 0.0051(3) 0.0050(3) 0.0049(3) 0. 0.0017(2) 0.
O1 O2- 0.0146(6) 0.0153(7) 0.0131(6) -0.0094(5) 0.0021(5) 0.0007(5)
O2 O2- 0.0063(7) 0.0077(8) 0.0058(7) 0. 0.0015(6) 0.
O3 O2- 0.0073(8) 0.0183(9) 0.0064(8) 0. 0.0027(6) 0.
O4 O2- 0.0130(8) 0.0155(9) 0.0055(7) 0. 0.0044(7) 0.
O5 O2- 0.0143(6) 0.0089(6) 0.0094(6) -0.0054(5) 0.0044(5) -0.0028(5)
#End of TTdata_166998-ICSD