
#(C) 2017 by FIZ Karlsruhe - Leibniz Institute for Information Infrastructure.  All rights reserved.
data_167073-ICSD
_database_code_ICSD 167073
_audit_creation_date 2010-08-01
_chemical_name_systematic 'Lithium magnesium hexafluorovanadate(III) - beta'
_chemical_formula_structural 'Li Mn (V F6)'
_chemical_formula_sum 'F6 Li1 Mn1 V1'
_chemical_name_structure_type LiFe2F6
_exptl_crystal_density_diffrn 3.57
_publ_section_title

;
Na2 Si F6 and ordered trirutile-types : crystal and magnetic structure of
alpha- and beta- Li Mn V F6
;
loop_
_citation_id
_citation_journal_full
_citation_year
_citation_journal_volume
_citation_page_first
_citation_page_last
_citation_journal_id_ASTM
primary 'European Journal of Solid State Inorganic Chemistry' 1988 25 359 374
EJSCE5
loop_
_publ_author_name
'Courbion, G.'
'Jacoboni, C.'
'Wolfers, P.'
_cell_length_a 4.735(1)
_cell_length_b 4.735(1)
_cell_length_c 9.410(2)
_cell_angle_alpha 90.
_cell_angle_beta 90.
_cell_angle_gamma 90.
_cell_volume 210.97
_cell_formula_units_Z 2
_symmetry_space_group_name_H-M 'P 42 n m'
_symmetry_Int_Tables_number 102
_refine_ls_R_factor_all 0.0229
loop_
_symmetry_equiv_pos_site_id
_symmetry_equiv_pos_as_xyz
1 '-y+1/2, x+1/2, z+1/2'
2 'y+1/2, -x+1/2, z+1/2'
3 '-y, -x, z'
4 'y, x, z'
5 '-x+1/2, y+1/2, z+1/2'
6 'x+1/2, -y+1/2, z+1/2'
7 '-x, -y, z'
8 'x, y, z'
loop_
_atom_type_symbol
_atom_type_oxidation_number
Mn2+ 2
Li1+ 1
V3+ 3
F1- -1
loop_
_atom_site_label
_atom_site_type_symbol
_atom_site_symmetry_multiplicity
_atom_site_Wyckoff_symbol
_atom_site_fract_x
_atom_site_fract_y
_atom_site_fract_z
_atom_site_B_iso_or_equiv
_atom_site_occupancy
_atom_site_attached_hydrogens
Mn1 Mn2+ 2 a 0 0 0 0.73 1. 0
Li1 Li1+ 2 a 0 0 0.3373(37) 0.59 1. 0
V1 V3+ 2 a 0 0 0.6654(1) 0.63 1. 0
F1 F1- 4 c 0.3105(3) 0.3105(3) 0.0090(5) 1.1 1. 0
F2 F1- 4 c 0.3062(3) 0.3062(3) 0.3208(4) 0.98 1. 0
F3 F1- 4 c 0.7123(2) 0.7123(2) 0.6669(5) 1.06 1. 0
loop_
_atom_site_aniso_label
_atom_site_aniso_type_symbol
_atom_site_aniso_U_11
_atom_site_aniso_U_22
_atom_site_aniso_U_33
_atom_site_aniso_U_12
_atom_site_aniso_U_13
_atom_site_aniso_U_23
Mn1 Mn2+ 0.0103(3) 0.0103(3) 0.0070(4) -0.0029 0. 0.
Li1 Li1+ 0.0097(1) 0.0097(11) 0.0030(28) 0.0092(30) 0. 0.
V1 V3+ 0.0080(3) 0.0080(3) 0.0081(5) -0.0002(1) 0. 0.
F1 F1- 0.0161(4) 0.0161(4) 0.0096(11) -0.0066(6) -0.0003(4) -0.0003(4)
F2 F1- 0.0130(3) 0.0130(3) 0.0114(13) -0.0038(4) 0.0014(4) 0.0014(4)
F3 F1- 0.0135(4) 0.0135(4) 0.0133(5) -0.0046(5) -0.0001(6) -0.0001(6)
#End of TTdata_167073-ICSD