
#(C) 2019 by FIZ Karlsruhe - Leibniz Institute for Information Infrastructure.  All rights reserved.
data_167003-ICSD
_database_code_ICSD 167003
_audit_creation_date 2010-08-01
_chemical_name_systematic 'Potassium sodium alumosilicate (1.56/6/8)'
_chemical_formula_structural 'K1.56 Na6 (Al Si O4)8'
_chemical_formula_sum 'Al8 K1.56 Na6 O32 Si8'
_chemical_name_structure_type KNa3Al4(SiO4)4
_chemical_name_mineral Nepheline
_exptl_crystal_density_diffrn 2.64
_publ_section_title

;
Nepheline: structure of three samples from the Bancroft area, Ontario,
obtained using synchrotron high-resolution powder X-ray diffraction
;
loop_
_citation_id
_citation_journal_full
_citation_year
_citation_journal_volume
_citation_page_first
_citation_page_last
_citation_journal_id_ASTM
primary 'Canadian Mineralogist' 2010 48 69 80 CAMIA6
loop_
_publ_author_name
'Antao, S.M.'
'Hassan, I.'
_cell_length_a 9.99567(1)
_cell_length_b 9.99567(1)
_cell_length_c 8.37873(1)
_cell_angle_alpha 90.
_cell_angle_beta 90.
_cell_angle_gamma 120.
_cell_volume 724.99
_cell_formula_units_Z 1
_symmetry_space_group_name_H-M 'P 63'
_symmetry_Int_Tables_number 173
_refine_ls_R_factor_all 0.0804
loop_
_symmetry_equiv_pos_site_id
_symmetry_equiv_pos_as_xyz
1 'x-y, x, z+1/2'
2 'y, -x+y, z+1/2'
3 '-x, -y, z+1/2'
4 '-x+y, -x, z'
5 '-y, x-y, z'
6 'x, y, z'
loop_
_atom_type_symbol
_atom_type_oxidation_number
Al3+ 3
Si4+ 4
Al3+ 3
K1+ 1
Na1+ 1
O2- -2
loop_
_atom_site_label
_atom_site_type_symbol
_atom_site_symmetry_multiplicity
_atom_site_Wyckoff_symbol
_atom_site_fract_x
_atom_site_fract_y
_atom_site_fract_z
_atom_site_B_iso_or_equiv
_atom_site_occupancy
_atom_site_attached_hydrogens
Al1 Al3+ 2 b 0.6667 0.3333 0.8035(4) 0.0096(2) 1. 0
Si1 Si4+ 2 b 0.6667 0.3333 0.1934(3) 0.0096(2) 1. 0
Si2 Si4+ 6 c 0.3305(2) 0.0929(2) 0.6842(2) 0.00880(8) 1. 0
Al2 Al3+ 6 c 0.3369(2) 0.0948(2) 0.3105(2) 0.00880(8) 1. 0
K1 K1+ 2 a 0 0 0.9992(4) 0.0209(4) 0.778(2) 0
Na1 Na1+ 6 c 0.44381(8) 0.9973(1) 0.9987(4) 0.0259(2) 1. 0
O1 O2- 6 c 0.7125(6) 0.3452(11) 0.0063(14) 0.022(1) 0.3333 0
O2 O2- 6 c 0.3166(1) 0.0280(1) 0.4996(6) 0.0234(2) 1. 0
O3 O2- 6 c 0.5138(3) 0.1672(3) 0.7198(3) 0.0234(2) 1. 0
O4 O2- 6 c 0.5195(3) 0.1734(3) 0.2347(3) 0.0234(2) 1. 0
O5 O2- 6 c 0.2663(4) 0.2236(4) 0.3008(3) 0.0234(2) 1. 0
O6 O2- 6 c 0.2834(4) 0.2252(4) 0.6828(4) 0.0234(2) 1. 0
#End of TTdata_167003-ICSD