
#(C) 2019 by FIZ Karlsruhe - Leibniz Institute for Information Infrastructure.  All rights reserved.
data_167618-ICSD
_database_code_ICSD 167618
_audit_creation_date 2011-02-01
_chemical_name_systematic 'Disodium dialuminium trisilicate - alpha1'
_chemical_formula_structural 'Na2 Al2 (Si3 O10)'
_chemical_formula_sum 'Al2 Na2 O10 Si3'
_chemical_name_mineral 'Natrolite (dehydrated)'
_exptl_crystal_density_diffrn 2.59
_cell_measurement_temperature 673.
_publ_section_title 'X-ray diffraction study of the zeolite natrolite'
loop_
_citation_id
_citation_journal_full
_citation_year
_citation_journal_volume
_citation_page_first
_citation_page_last
_citation_journal_id_ASTM
primary 'European Journal of Mineralogy' 2010 22 271 284 EJMIER
loop_
_publ_author_name
'Wang Hsiu Wen'
'Bish, D.L.'
_cell_length_a 16.177(1)
_cell_length_b 16.943(1)
_cell_length_c 6.4370(4)
_cell_angle_alpha 90.
_cell_angle_beta 90.
_cell_angle_gamma 89.685(2)
_cell_volume 1764.27
_cell_formula_units_Z 8
_symmetry_space_group_name_H-M 'F 1 1 2'
_symmetry_Int_Tables_number 5
_refine_ls_R_factor_all 0.0483
loop_
_symmetry_equiv_pos_site_id
_symmetry_equiv_pos_as_xyz
1 '-x, -y, z'
2 'x, y, z'
3 '-x, -y+1/2, z+1/2'
4 'x, y+1/2, z+1/2'
5 '-x+1/2, -y, z+1/2'
6 'x+1/2, y, z+1/2'
7 '-x+1/2, -y+1/2, z'
8 'x+1/2, y+1/2, z'
loop_
_atom_type_symbol
_atom_type_oxidation_number
Si4+ 4
Al3+ 3
O2- -2
Na1+ 1
loop_
_atom_site_label
_atom_site_type_symbol
_atom_site_symmetry_multiplicity
_atom_site_Wyckoff_symbol
_atom_site_fract_x
_atom_site_fract_y
_atom_site_fract_z
_atom_site_B_iso_or_equiv
_atom_site_occupancy
_atom_site_attached_hydrogens
Si1 Si4+ 4 a 0 0 0 0.016(2) 1. 0
Si2 Si4+ 4 b 0.25 0.25 0.25 0.016(2) 1. 0
Si3 Si4+ 8 c 0.1341(3) 0.2357(3) 0.616(1) 0.016(2) 1. 0
Si4 Si4+ 8 c 0.1128(3) -0.0215(3) 0.367(1) 0.016(2) 1. 0
Al1 Al3+ 8 c 0.0231(3) 0.1089(2) 0.613(1) 0.016(2) 1. 0
Al2 Al3+ 8 c 0.2669(3) 0.1403(2) 0.863(1) 0.016(2) 1. 0
O1 O2- 8 c 0.0402(3) 0.0691(3) 0.859(1) 0.035(3) 1. 0
O2 O2- 8 c 0.2357(4) 0.1722(2) 0.109(1) 0.035(3) 1. 0
O3 O2- 8 c 0.0374(3) 0.2108(2) 0.610(1) 0.035(3) 1. 0
O4 O2- 8 c 0.2114(3) -0.0393(3) 0.361(1) 0.035(3) 1. 0
O5 O2- 8 c 0.0922(4) 0.0682(3) 0.434(1) 0.035(3) 1. 0
O6 O2- 8 c 0.1473(4) 0.3055(4) 0.786(1) 0.035(3) 1. 0
O7 O2- 8 c 0.0764(3) -0.0824(3) 0.541(1) 0.035(3) 1. 0
O8 O2- 8 c 0.1869(4) 0.1587(3) 0.686(1) 0.035(3) 1. 0
O9 O2- 8 c 0.0722(3) -0.0389(4) 0.142(1) 0.035(3) 1. 0
O10 O2- 8 c 0.1683(2) 0.2635(4) 0.392(1) 0.035(3) 1. 0
Na1 Na1+ 8 c 0.0781(5) 0.1975(3) 0.116(2) 0.037(3) 0.49(2) 0
Na2 Na1+ 8 c 0.0543(5) 0.1826(3) 0.119(2) 0.037(3) 0.51(2) 0
Na3 Na1+ 8 c 0.3220(4) 0.0464(4) 0.423(3) 0.037(3) 0.27(1) 0
Na4 Na1+ 8 c 0.2892(4) 0.0812(4) 0.373(3) 0.037(3) 0.73(1) 0
#End of TTdata_167618-ICSD