
#(C) 2019 by FIZ Karlsruhe - Leibniz Institute for Information Infrastructure.  All rights reserved.
data_167752-ICSD
_database_code_ICSD 167752
_audit_creation_date 2011-02-01
_chemical_name_systematic
'Tetrasodium hexahydroxohexatungstoniccolate 16-hydrate'
_chemical_formula_structural 'Na4 (Ni (O H)6 W6 O18) (H2 O)16'
_chemical_formula_sum 'H38 Na4 Ni1 O40 W6'
_exptl_crystal_density_diffrn 3.51
_cell_measurement_temperature 293.
_publ_section_title

;
Phase formation in the Ni(2+) - (W O4)(2-) - H(+) - (H2 O) system (Z=1.00).
Crystal structure and properties of sodium heteropolyhexatungsten
nickelate(2+) Na4 (Ni (O H)6 W6 O18) * 16(H2 O)
;
loop_
_citation_id
_citation_journal_full
_citation_year
_citation_journal_volume
_citation_page_first
_citation_page_last
_citation_journal_id_ASTM
primary 'Zhurnal Strukturnoi Khimii' 2009 50 311 319 ZSTKAI
loop_
_publ_author_name
'Rozantsev, G.M.'
'Radio, S.V.'
'Gumerova, N.I.'
'Baumer, V.N.'
'Shishkin, O.B.'
_cell_length_a 8.0089(11)
_cell_length_b 10.5758(14)
_cell_length_c 12.1987(16)
_cell_angle_alpha 69.268(13)
_cell_angle_beta 71.069(12)
_cell_angle_gamma 83.816(11)
_cell_volume 914.03
_cell_formula_units_Z 1
_symmetry_space_group_name_H-M 'P -1'
_symmetry_Int_Tables_number 2
_refine_ls_R_factor_all 0.0277
loop_
_symmetry_equiv_pos_site_id
_symmetry_equiv_pos_as_xyz
1 '-x, -y, -z'
2 'x, y, z'
loop_
_atom_type_symbol
_atom_type_oxidation_number
W6+ 6
Ni2+ 2
Na1+ 1
O2- -2
H1+ 1
loop_
_atom_site_label
_atom_site_type_symbol
_atom_site_symmetry_multiplicity
_atom_site_Wyckoff_symbol
_atom_site_fract_x
_atom_site_fract_y
_atom_site_fract_z
_atom_site_B_iso_or_equiv
_atom_site_occupancy
_atom_site_attached_hydrogens
W1 W6+ 2 i 0.1511(1) 0.7345(1) 0.7235(1) 0.015(1) 1. 0
W2 W6+ 2 i 0.2968(1) 0.7248(1) 0.9515(1) 0.013(1) 1. 0
W3 W6+ 2 i 0.1318(1) 0.4993(1) 0.2317(1) 0.013(1) 1. 0
Ni1 Ni2+ 1 c 0 0.5 0 0.010(1) 1. 0
Na1 Na1+ 2 i 0.2148(1) 0.1375(1) 0.5884(1) 0.028(1) 1. 0
Na2 Na1+ 2 i 0.3923(1) 0.1280(1) 0.8211(1) 0.027(1) 1. 0
O1 O2- 2 i 0.1072(1) 0.5113(1) 0.8216(1) 0.014(1) 1. 0
O2 O2- 2 i 0.0392(1) 0.7054(1) 0.9244(1) 0.013(1) 1. 0
O3 O2- 2 i 0.2312(1) 0.5047(1) 0.0366(1) 0.012(1) 1. 0
O4 O2- 2 i 0.3437(1) 0.7076(1) 0.7932(1) 0.017(1) 1. 0
O5 O2- 2 i 0.1515(1) 0.6871(1) 0.1235(1) 0.016(1) 1. 0
O6 O2- 2 i 0.0822(1) 0.3108(1) 0.2675(1) 0.017(1) 1. 0
O7 O2- 2 i 0.2761(1) 0.7112(1) 0.5856(1) 0.027(1) 1. 0
O8 O2- 2 i 0.1245(1) 0.9071(1) 0.6837(1) 0.029(1) 1. 0
O9 O2- 2 i 0.2833(1) 0.8985(1) 0.9155(1) 0.025(1) 1. 0
O10 O2- 2 i 0.5064(1) 0.6873(1) 0.9683(1) 0.022(1) 1. 0
O11 O2- 2 i 0.3391(1) 0.4775(1) 0.2512(1) 0.024(1) 1. 0
O12 O2- 2 i -0.0024(1) 0.5284(1) 0.3646(1) 0.024(1) 1. 0
O13 O2- 2 i 0.3341(1) 0.1566(1) 0.3736(1) 0.029(1) 1. 0
O14 O2- 2 i -0.0682(1) 0.2457(1) 0.5779(1) 0.034(1) 1. 0
O15 O2- 2 i 0.1097(1) 0.1381(1) 0.7959(1) 0.027(1) 1. 0
O16 O2- 2 i 0.5001(1) 0.0939(1) 0.6235(1) 0.031(1) 1. 0
O17 O2- 2 i 0.3294(1) 0.3745(1) 0.5242(1) 0.045(1) 1. 0
O18 O2- 2 i 0.2599(1) 0.1459(1) 0.0249(1) 0.028(1) 1. 0
O19 O2- 2 i 0.6945(1) 0.1149(1) 0.8150(1) 0.031(1) 1. 0
O20 O2- 2 i 0.4023(1) 0.3711(1) 0.7385(1) 0.031(1) 1. 0
H1 H1+ 2 i 0.1870(1) 0.4665(1) 0.7859(1) 0.017 1. 0
H2 H1+ 2 i -0.0454(1) 0.7529(1) 0.9518(1) 0.016 1. 0
H3 H1+ 2 i 0.3079(1) 0.4479(1) 0.0167(1) 0.015 1. 0
H4 H1+ 2 i 0.2531(1) 0.1813(1) 0.3396(1) 0.034 1. 0
H5 H1+ 2 i 0.4126(1) 0.2183(1) 0.3341(1) 0.034 1. 0
H6 H1+ 2 i -0.1435(1) 0.2969(1) 0.5478(1) 0.041 1. 0
H7 H1+ 2 i -0.1274(1) 0.1971(1) 0.6498(1) 0.041 1. 0
H8 H1+ 2 i 0.0019(1) 0.1150(1) 0.8196(1) 0.033 1. 0
H9 H1+ 2 i 0.1097(1) 0.2241(1) 0.7693(1) 0.033 1. 0
H10 H1+ 2 i 0.5715(1) 0.1572(1) 0.5719(1) 0.038 1. 0
H11 H1+ 2 i 0.5557(1) 0.0263(1) 0.6072(1) 0.038 1. 0
H12 H1+ 2 i 0.3433(1) 0.3928(1) 0.4481(1) 0.054 1. 0
H13 H1+ 2 i 0.2284(1) 0.4056(1) 0.5525(1) 0.054 1. 0
H14 H1+ 2 i 0.3270(1) 0.1961(1) 0.0339(1) 0.033 1. 0
H15 H1+ 2 i 0.3069(1) 0.0682(1) 0.0406(1) 0.033 1. 0
H16 H1+ 2 i 0.7355(1) 0.1670(1) 0.8397(1) 0.037 1. 0
H17 H1+ 2 i 0.7653(1) 0.0487(1) 0.8178(1) 0.037 1. 0
H18 H1+ 2 i 0.4808(1) 0.4193(1) 0.7383(1) 0.038 1. 0
H19 H1+ 2 i 0.4182(1) 0.3834(1) 0.6631(1) 0.038 1. 0
#End of TTdata_167752-ICSD