
#(C) 2019 by FIZ Karlsruhe - Leibniz Institute for Information Infrastructure.  All rights reserved.
data_167728-ICSD
_database_code_ICSD 167728
_audit_creation_date 2011-02-01
_chemical_name_systematic 'Sodium cesium zirconium phosphate (0.9/0.1/2/3)'
_chemical_formula_structural '(Na0.9 Cs0.1) Zr2 (P O4)3'
_chemical_formula_sum 'Cs0.1 Na0.9 O12 P3 Zr2'
_chemical_name_structure_type NaZr2(PO4)3
_exptl_crystal_density_diffrn 3.27
_cell_measurement_temperature 293.
_publ_section_title

;
Crystallographic evaluation of sodium zirconium phosphate as a host structure
for immobilization of cesium
;
loop_
_citation_id
_citation_journal_full
_citation_year
_citation_journal_volume
_citation_page_first
_citation_page_last
_citation_journal_id_ASTM
primary 'Journal of Materials Science' 2010 45 533 545 JMTSAS
loop_
_publ_author_name
'Chourasia, R.'
'Bohre, A.'
'Ambastha, R.D.'
'Shrivastava, O.P.'
'Wattal, P.K.'
_cell_length_a 8.80623(10)
_cell_length_b 8.80623(10)
_cell_length_c 22.7551(4)
_cell_angle_alpha 90.
_cell_angle_beta 90.
_cell_angle_gamma 120.
_cell_volume 1528.23
_cell_formula_units_Z 6
_symmetry_space_group_name_H-M 'R -3 c H'
_symmetry_Int_Tables_number 167
_refine_ls_R_factor_all 0.0673
loop_
_symmetry_equiv_pos_site_id
_symmetry_equiv_pos_as_xyz
1 'x-y, -y, -z+1/2'
2 '-x, -x+y, -z+1/2'
3 'y, x, -z+1/2'
4 'x-y, x, -z'
5 'y, -x+y, -z'
6 '-x, -y, -z'
7 '-x+y, y, z+1/2'
8 'x, x-y, z+1/2'
9 '-y, -x, z+1/2'
10 '-x+y, -x, z'
11 '-y, x-y, z'
12 'x, y, z'
13 'x-y+2/3, -y+1/3, -z+5/6'
14 '-x+2/3, -x+y+1/3, -z+5/6'
15 'y+2/3, x+1/3, -z+5/6'
16 'x-y+2/3, x+1/3, -z+1/3'
17 'y+2/3, -x+y+1/3, -z+1/3'
18 '-x+2/3, -y+1/3, -z+1/3'
19 '-x+y+2/3, y+1/3, z+5/6'
20 'x+2/3, x-y+1/3, z+5/6'
21 '-y+2/3, -x+1/3, z+5/6'
22 '-x+y+2/3, -x+1/3, z+1/3'
23 '-y+2/3, x-y+1/3, z+1/3'
24 'x+2/3, y+1/3, z+1/3'
25 'x-y+1/3, -y+2/3, -z+1/6'
26 '-x+1/3, -x+y+2/3, -z+1/6'
27 'y+1/3, x+2/3, -z+1/6'
28 'x-y+1/3, x+2/3, -z+2/3'
29 'y+1/3, -x+y+2/3, -z+2/3'
30 '-x+1/3, -y+2/3, -z+2/3'
31 '-x+y+1/3, y+2/3, z+1/6'
32 'x+1/3, x-y+2/3, z+1/6'
33 '-y+1/3, -x+2/3, z+1/6'
34 '-x+y+1/3, -x+2/3, z+2/3'
35 '-y+1/3, x-y+2/3, z+2/3'
36 'x+1/3, y+2/3, z+2/3'
loop_
_atom_type_symbol
_atom_type_oxidation_number
Na1+ 1
Cs1+ 1
Zr4+ 4
P5+ 5
O2- -2
loop_
_atom_site_label
_atom_site_type_symbol
_atom_site_symmetry_multiplicity
_atom_site_Wyckoff_symbol
_atom_site_fract_x
_atom_site_fract_y
_atom_site_fract_z
_atom_site_B_iso_or_equiv
_atom_site_occupancy
_atom_site_attached_hydrogens
Na1 Na1+ 6 b 0 0 0 0.18355 0.9 0
Cs1 Cs1+ 6 b 0 0 0 0.18355 0.1 0
Zr1 Zr4+ 12 c 0 0 0.14577 0.05387 1. 0
P1 P5+ 18 e 0.29175 0 0.25 0.0517 1. 0
O1 O2- 36 f 0.17594 -0.02524 0.19628 0.05803 1. 0
O2 O2- 36 f 0.1925 0.1742 0.08889 0.05803 1. 0
#End of TTdata_167728-ICSD