
#(C) 2019 by FIZ Karlsruhe - Leibniz Institute for Information Infrastructure.  All rights reserved.
data_168054-ICSD
_database_code_ICSD 168054
_audit_creation_date 2011-02-01
_chemical_name_systematic
'Calcium sodium aluminium magnesium fluoride (1/3/1/3/14)'
_chemical_formula_structural 'Ca Na3 Al Mg3 F14'
_chemical_formula_sum 'Al1 Ca1 F14 Mg3 Na3'
_chemical_name_structure_type Pyrochlore-BaTa4O10(OH)2(H2O)2
_chemical_name_mineral Coulsellite
_exptl_crystal_density_diffrn 3.03
_cell_measurement_temperature 293.
_publ_section_title

;
Coulsellite, Ca Na3 Al Mg3 F14 , a rhombohedral pyrochlore with 1:3 ordering
in both A and B sites, from the Cleveland mine, Tasmania, Australia
;
loop_
_citation_id
_citation_journal_full
_citation_year
_citation_journal_volume
_citation_page_first
_citation_page_last
_citation_journal_id_ASTM
primary 'American Mineralogist' 2010 95 736 740 AMMIAY
loop_
_publ_author_name
'Mumme, W.G.'
'Grey, I.E.'
'Birch, W.D.'
'Pring, A.'
'Bougerol, C.'
'Wilson, N.C.'
_cell_length_a 7.1756(1)
_cell_length_b 7.1756(1)
_cell_length_c 7.1756(1)
_cell_angle_alpha 59.867(1)
_cell_angle_beta 59.867(1)
_cell_angle_gamma 59.867(1)
_cell_volume 260.46
_cell_formula_units_Z 1
_symmetry_space_group_name_H-M 'R -3 m R'
_symmetry_Int_Tables_number 166
_refine_ls_R_factor_all 0.027
loop_
_symmetry_equiv_pos_site_id
_symmetry_equiv_pos_as_xyz
1 '-z, -y, -x'
2 '-z, -x, -y'
3 '-x, -z, -y'
4 '-y, -z, -x'
5 '-y, -x, -z'
6 '-x, -y, -z'
7 'z, y, x'
8 'z, x, y'
9 'x, z, y'
10 'y, z, x'
11 'y, x, z'
12 'x, y, z'
loop_
_atom_type_symbol
_atom_type_oxidation_number
Ca2+ 2
Na1+ 1
Al3+ 3
Mg2+ 2
F1- -1
loop_
_atom_site_label
_atom_site_type_symbol
_atom_site_symmetry_multiplicity
_atom_site_Wyckoff_symbol
_atom_site_fract_x
_atom_site_fract_y
_atom_site_fract_z
_atom_site_B_iso_or_equiv
_atom_site_occupancy
_atom_site_attached_hydrogens
Ca1 Ca2+ 1 a 0 0 0 0.0129(4) 1. 0
Na1 Na1+ 3 d 0.5 0 0 0.0194(11) 1. 0
Al1 Al3+ 1 b 0.5 0.5 0.5 0.0068(6) 1. 0
Mg1 Mg2+ 3 e 0.5 0.5 0 0.0067(6) 1. 0
F1 F1- 6 h 0.1710(2) 0.1710(2) 0.5778(4) 0.0118(7) 1. 0
F2 F1- 6 h 0.4371(2) 0.4371(2) 0.8007(3) 0.0124(8) 1. 0
F3 F1- 2 c 0.1246(2) 0.1246(2) 0.1246(2) 0.0117(9) 1. 0
loop_
_atom_site_aniso_label
_atom_site_aniso_type_symbol
_atom_site_aniso_U_11
_atom_site_aniso_U_22
_atom_site_aniso_U_33
_atom_site_aniso_U_12
_atom_site_aniso_U_13
_atom_site_aniso_U_23
Ca1 Ca2+ 0.0137(4) 0.0137(4) 0.0137(4) -0.0051(3) -0.0051(3) -0.0051(3)
Na1 Na1+ 0.0098(9) 0.0251(9) 0.0251(9) -0.0039(7) -0.0039(7) -0.0134(10)
Al1 Al3+ 0.0071(5) 0.0071(5) 0.0071(5) -0.0026(4) -0.0026(4) -0.0026(4)
Mg1 Mg2+ 0.0068(5) 0.0068(5) 0.0056(6) -0.0023(5) -0.0017(4) -0.0017(4)
F1 F1- 0.0094(6) 0.0094(6) 0.0145(8) -0.0006(6) -0.0045(5) -0.0045(5)
F2 F1- 0.0154(6) 0.0154(6) 0.0086(8) -0.0055(7) -0.0045(4) -0.0045(4)
F3 F1- 0.0116(8) 0.0116(8) 0.0116(8) -0.0038(7) -0.0038(7) -0.0038(7)
#End of TTdata_168054-ICSD