
#(C) 2019 by FIZ Karlsruhe - Leibniz Institute for Information Infrastructure.  All rights reserved.
data_168032-ICSD
_database_code_ICSD 168032
_audit_creation_date 2011-02-01
_audit_update_record 2019-02-01
_chemical_name_systematic 'Sodium manganese iron phosphate (1.72/1/1.97/3)'
_chemical_formula_structural 'Na1.72 Mn Fe1.97 (P O4)3'
_chemical_formula_sum 'Fe1.97 Mn1 Na1.72 O12 P3'
_chemical_name_structure_type Alluaudite
_chemical_name_mineral Unnamed_Alluaudite
_exptl_crystal_density_diffrn 3.7
_publ_section_title

;
An X-ray Rietveld and infrared spectral study of the Na2 (Mn1-x Mx(2+)) Fe(2+)
Fe(3+) (P O4)3 (x= 0 to 1 and M(2+)= Mg, Cd) alluaudite-type solid solutions
;
loop_
_citation_id
_citation_journal_full
_citation_year
_citation_journal_volume
_citation_page_first
_citation_page_last
_citation_journal_id_ASTM
primary 'American Mineralogist' 2010 95 844 852 AMMIAY
loop_
_publ_author_name
'Rondeux, M.'
'Hatert, F.'
_cell_length_a 11.894(4)
_cell_length_b 12.536(3)
_cell_length_c 6.471(2)
_cell_angle_alpha 90.
_cell_angle_beta 114.49(2)
_cell_angle_gamma 90.
_cell_volume 878.04
_cell_formula_units_Z 4
_symmetry_space_group_name_H-M 'C 1 2/c 1'
_symmetry_Int_Tables_number 15
_refine_ls_R_factor_all 0.0146
loop_
_symmetry_equiv_pos_site_id
_symmetry_equiv_pos_as_xyz
1 'x, -y, z+1/2'
2 '-x, -y, -z'
3 '-x, y, -z+1/2'
4 'x, y, z'
5 'x+1/2, -y+1/2, z+1/2'
6 '-x+1/2, -y+1/2, -z'
7 '-x+1/2, y+1/2, -z+1/2'
8 'x+1/2, y+1/2, z'
loop_
_atom_type_symbol
_atom_type_oxidation_number
Na1+ 1
Mn2+ 2
Fe2+ 2.68
P5+ 5
O2- -2
loop_
_atom_site_label
_atom_site_type_symbol
_atom_site_symmetry_multiplicity
_atom_site_Wyckoff_symbol
_atom_site_fract_x
_atom_site_fract_y
_atom_site_fract_z
_atom_site_B_iso_or_equiv
_atom_site_occupancy
_atom_site_attached_hydrogens
Na1 Na1+ 4 e 0 -0.0113(7) 0.25 1. 0.758(12) 0
Na2 Na1+ 4 b 0.5 0 0 1. 0.962(12) 0
Mn1 Mn2+ 4 e 0 0.2690(3) 0.25 1. 1. 0
Fe1 Fe2+ 8 f 0.2795(3) 0.6573(2) 0.3641(5) 1. 0.984(5) 0
P1 P5+ 4 e 0 -0.2846(5) 0.25 1. 1. 0
P2 P5+ 8 f 0.2370(4) -0.1106(3) 0.1238(9) 1. 1. 0
O1 O2- 8 f 0.4584(7) 0.7139(6) 0.538(1) 1.1(1) 1. 0
O2 O2- 8 f 0.1027(8) 0.6433(5) 0.239(1) 1.1(1) 1. 0
O3 O2- 8 f 0.3365(7) 0.6703(5) 0.110(1) 1.1(1) 1. 0
O4 O2- 8 f 0.1270(7) 0.3992(5) 0.328(1) 1.1(1) 1. 0
O5 O2- 8 f 0.2283(6) 0.8256(6) 0.326(1) 1.1(1) 1. 0
O6 O2- 8 f 0.3235(6) 0.4947(7) 0.384(1) 1.1(1) 1. 0
#End of TTdata_168032-ICSD