
#(C) 2019 by FIZ Karlsruhe - Leibniz Institute for Information Infrastructure.  All rights reserved.
data_168128-ICSD
_database_code_ICSD 168128
_audit_creation_date 2011-02-01
_chemical_name_systematic 'Disodium carbonate - gamma'
_chemical_formula_structural 'Na2 (C O3)'
_chemical_formula_sum 'C1 Na2 O3'
_chemical_name_structure_type Na2CO3(HT)
_chemical_name_mineral Natrite
_exptl_crystal_density_diffrn 2.64
_cell_measurement_temperature 120.
_publ_section_title

;
The incommensurately modulated structures of natural natrite at 120  and 293 K
from synchrotron X-ray data
;
loop_
_citation_id
_citation_journal_full
_citation_year
_citation_journal_volume
_citation_page_first
_citation_page_last
_citation_journal_id_ASTM
primary 'American Mineralogist' 2010 95 574 581 AMMIAY
loop_
_publ_author_name
'Arakcheeva, A.'
'Bindi, L.'
'Pattison, P.'
'Meisser, N.'
'Chapuis, G.'
'Pekov, I.'
_cell_length_a 8.825(2)
_cell_length_b 5.194(3)
_cell_length_c 5.953(2)
_cell_angle_alpha 90.
_cell_angle_beta 101.83(3)
_cell_angle_gamma 90.
_cell_volume 267.07
_cell_formula_units_Z 4
_symmetry_space_group_name_H-M 'C 1 2/m 1'
_symmetry_Int_Tables_number 12
_refine_ls_R_factor_all 0.0511
loop_
_symmetry_equiv_pos_site_id
_symmetry_equiv_pos_as_xyz
1 '-x, y, -z'
2 '-x, -y, -z'
3 'x, -y, z'
4 'x, y, z'
5 '-x+1/2, y+1/2, -z'
6 '-x+1/2, -y+1/2, -z'
7 'x+1/2, -y+1/2, z'
8 'x+1/2, y+1/2, z'
loop_
_atom_type_symbol
_atom_type_oxidation_number
Na1+ 1
C4+ 4
O2- -2
loop_
_atom_site_label
_atom_site_type_symbol
_atom_site_symmetry_multiplicity
_atom_site_Wyckoff_symbol
_atom_site_fract_x
_atom_site_fract_y
_atom_site_fract_z
_atom_site_B_iso_or_equiv
_atom_site_occupancy
_atom_site_attached_hydrogens
Na1 Na1+ 2 a 0 0 0 0.0117(3) 0.976(4) 0
Na2 Na1+ 2 c 0 0 0.5 0.0117(8) 0.987(4) 0
Na3 Na1+ 4 i 0.17101(6) 0.5 0.74766(10) 0.0155(2) 0.977(3) 0
C1 C4+ 4 i 0.16446(13) 0.5 0.2492(2) 0.0103(3) 1. 0
O1 O2- 8 j 0.10211(9) 0.29314(14) 0.28695(13) 0.0186(3) 1. 0
O2 O2- 4 i 0.28945(11) 0.5 0.17451(17) 0.0159(3) 1. 0
#End of TTdata_168128-ICSD