
#(C) 2019 by FIZ Karlsruhe - Leibniz Institute for Information Infrastructure.  All rights reserved.
data_168129-ICSD
_database_code_ICSD 168129
_audit_creation_date 2011-02-01
_chemical_name_systematic 'Disodium carbonate - gamma'
_chemical_formula_structural 'Na2 (C O3)'
_chemical_formula_sum 'C1 Na2 O3'
_chemical_name_structure_type Na2CO3(HT)
_chemical_name_mineral Natrite
_exptl_crystal_density_diffrn 2.57
_cell_measurement_temperature 293.
_publ_section_title

;
The incommensurately modulated structures of natural natrite at 120  and 293 K
from synchrotron X-ray data
;
loop_
_citation_id
_citation_journal_full
_citation_year
_citation_journal_volume
_citation_page_first
_citation_page_last
_citation_journal_id_ASTM
primary 'American Mineralogist' 2010 95 574 581 AMMIAY
loop_
_publ_author_name
'Arakcheeva, A.'
'Bindi, L.'
'Pattison, P.'
'Meisser, N.'
'Chapuis, G.'
'Pekov, I.'
_cell_length_a 8.851(2)
_cell_length_b 5.24(2)
_cell_length_c 6.021(2)
_cell_angle_alpha 90.
_cell_angle_beta 101.08(2)
_cell_angle_gamma 90.
_cell_volume 274.04
_cell_formula_units_Z 4
_symmetry_space_group_name_H-M 'C 1 2/m 1'
_symmetry_Int_Tables_number 12
_refine_ls_R_factor_all 0.0522
loop_
_symmetry_equiv_pos_site_id
_symmetry_equiv_pos_as_xyz
1 '-x, y, -z'
2 '-x, -y, -z'
3 'x, -y, z'
4 'x, y, z'
5 '-x+1/2, y+1/2, -z'
6 '-x+1/2, -y+1/2, -z'
7 'x+1/2, -y+1/2, z'
8 'x+1/2, y+1/2, z'
loop_
_atom_type_symbol
_atom_type_oxidation_number
Na1+ 1
C4+ 4
O2- -2
loop_
_atom_site_label
_atom_site_type_symbol
_atom_site_symmetry_multiplicity
_atom_site_Wyckoff_symbol
_atom_site_fract_x
_atom_site_fract_y
_atom_site_fract_z
_atom_site_B_iso_or_equiv
_atom_site_occupancy
_atom_site_attached_hydrogens
Na1 Na1+ 2 a 0 0 0 0.0191(4) 0.977(1) 0
Na2 Na1+ 2 c 0 0 0.5 0.0197(3) 0.987(1) 0
Na3 Na1+ 4 i 0.17036(9) 0.5 0.74816(13) 0.0271(3) 0.977(1) 0
C1 C4+ 4 i 0.16441(17) 0.5 0.2492(2) 0.0145(4) 1. 0
O1 O2- 8 j 0.10178(10) 0.29423(19) 0.28557(15) 0.0310(4) 1. 0
O2 O2- 4 i 0.28986(14) 0.5 0.1776(2) 0.0271(6) 1. 0
#End of TTdata_168129-ICSD