
#(C) 2019 by FIZ Karlsruhe - Leibniz Institute for Information Infrastructure.  All rights reserved.
data_168393-ICSD
_database_code_ICSD 168393
_audit_creation_date 2011-02-01
_audit_update_record 2013-02-01
_chemical_name_systematic 'Disodium pentasilver triiron tetrakis(pyrophosphate)'
_chemical_formula_structural 'Ag5 Na2 Fe3 (P2 O7)4'
_chemical_formula_sum 'Ag5 Fe3 Na2 O28 P8'
_exptl_crystal_density_diffrn 4.33
_cell_measurement_temperature 100.
_publ_section_title

;
Crystal structures and sodium/silver distributions within the ionic conductors
Na5 Ag2 Fe3 (As2 O7)4 and Na2 Ag5 Fe3 (P2 O7)4
;
loop_
_citation_id
_citation_journal_full
_citation_year
_citation_journal_volume
_citation_page_first
_citation_page_last
_citation_journal_id_ASTM
primary 'New Journal of Chemistry' 2010 34 287 293 NJCHE5
loop_
_publ_author_name
'Quarez, E.'
'Mentre, O.'
'Djellab, K.'
'Masquelier, C.'
_cell_length_a 28.551(5)
_cell_length_b 8.3631(15)
_cell_length_c 30.064(6)
_cell_angle_alpha 90
_cell_angle_beta 111.890(3)
_cell_angle_gamma 90
_cell_volume 6660.97
_cell_formula_units_Z 12
_symmetry_space_group_name_H-M 'C 1 2/c 1'
_symmetry_Int_Tables_number 15
_refine_ls_R_factor_all 0.0545
loop_
_symmetry_equiv_pos_site_id
_symmetry_equiv_pos_as_xyz
1 'x, -y, z+1/2'
2 '-x, -y, -z'
3 '-x, y, -z+1/2'
4 'x, y, z'
5 'x+1/2, -y+1/2, z+1/2'
6 '-x+1/2, -y+1/2, -z'
7 '-x+1/2, y+1/2, -z+1/2'
8 'x+1/2, y+1/2, z'
loop_
_atom_type_symbol
_atom_type_oxidation_number
Ag1+ 1
Na1+ 1
Ag1+ 1
Na1+ 1
Ag1+ 1
Na1+ 1
Ag1+ 1
Na1+ 1
Ag1+ 1
Na1+ 1
Ag1+ 1
Na1+ 1
Ag1+ 1
Fe3+ 3
P5+ 5
O2- -2
loop_
_atom_site_label
_atom_site_type_symbol
_atom_site_symmetry_multiplicity
_atom_site_Wyckoff_symbol
_atom_site_fract_x
_atom_site_fract_y
_atom_site_fract_z
_atom_site_B_iso_or_equiv
_atom_site_occupancy
_atom_site_attached_hydrogens
Ag1 Ag1+ 8 f 0.1520(2) 0.6362(8) 0.4440(2) 0.009(2) 0.176(12) 0
Na1 Na1+ 8 f 0.1520(2) 0.6362(8) 0.4440(2) 0.009(2) 0.824(12) 0
Ag2 Ag1+ 8 f 0.4853(2) 0.6365(8) 0.4444(2) 0.012(2) 0.185(13) 0
Na2 Na1+ 8 f 0.4853(2) 0.6365(8) 0.4444(2) 0.012(2) 0.815(13) 0
Ag3 Ag1+ 8 f 0.8154(2) 0.6431(8) 0.4400(2) 0.003(2) 0.135(12) 0
Na3 Na1+ 8 f 0.8154(2) 0.6431(8) 0.4400(2) 0.003(2) 0.865(12) 0
Ag4 Ag1+ 8 f 0.53912(9) 0.5932(3) 0.35571(9) 0.0130(10) 0.953(13) 0
Na4 Na1+ 8 f 0.53912(9) 0.5932(3) 0.35571(9) 0.0130(10) 0.047(13) 0
Ag5 Ag1+ 8 f 0.20915(9) 0.5823(3) 0.35691(9) 0.0112(9) 0.939(13) 0
Na5 Na1+ 8 f 0.20915(9) 0.5823(3) 0.35691(9) 0.0112(9) 0.061(13) 0
Ag6 Ag1+ 8 f 0.86724(10) 0.6026(3) 0.35486(10) 0.0131(10) 0.888(13) 0
Na6 Na1+ 8 f 0.86724(10) 0.6026(3) 0.35486(10) 0.0131(10) 0.112(13) 0
Na7 Na1+ 4 e 0.5 0.248(3) 0.25 0.0029 0.553(12) 0
Ag7 Ag1+ 8 f 0.5305(3) 0.1863(11) 0.3200(4) 0.078(4) 0.447(12) 0
Ag8 Ag1+ 8 f 0.19925(19) 0.1927(7) 0.3169(2) 0.0245(13) 0.882(10) 0
Ag9 Ag1+ 8 f 0.86149(10) 0.1774(4) 0.32540(13) 0.0283(12) 0.849(10) 0
Ag10 Ag1+ 8 f 0.12893(10) 0.8503(4) 0.34844(10) 0.0111(10) 0.782(10) 0
Ag11 Ag1+ 8 f 0.7030(4) 0.3714(17) 0.1497(4) 0.094(6) 0.439(15) 0
Ag12 Ag1+ 8 f 0.46596(10) 0.8869(5) 0.35233(11) 0.0241(10) 0.826(10) 0
Fe1 Fe3+ 4 e 0 0.3486(7) 0.25 0.0058(12) 1 0
Fe2 Fe3+ 8 f 0.33292(16) 0.3432(4) 0.25113(16) 0.0068(9) 1 0
Fe3 Fe3+ 8 f 0.16786(14) 0.2236(5) 0.43645(15) 0.0055(8) 1 0
Fe4 Fe3+ 8 f 0.50103(14) 0.2259(5) 0.43688(15) 0.0065(13) 1 0
Fe5 Fe3+ 8 f 0.83467(14) 0.2235(5) 0.43723(15) 0.0049(13) 1 0
P1 P5+ 8 f 0.0983(3) 0.5227(9) 0.2465(3) 0.0039(15) 1 0
P2 P5+ 8 f 0.4308(3) 0.5271(9) 0.2474(3) 0.0071(16) 1 0
P3 P5+ 8 f 0.7655(3) 0.5192(9) 0.2464(3) 0.0062(15) 1 0
P4 P5+ 8 f 0.1044(3) 0.3993(10) 0.3370(3) 0.0080(15) 1 0
P5 P5+ 8 f 0.4374(2) 0.3987(10) 0.3378(3) 0.0061(16) 1 0
P6 P5+ 8 f 0.7694(2) 0.3945(9) 0.3359(3) 0.0046(14) 1 0
P7 P5+ 8 f 0.9006(2) 0.9111(9) 0.4441(3) 0.0046(16) 1 0
P8 P5+ 8 f 0.2339(3) 0.9121(9) 0.4435(3) 0.0036(15) 1 0
P9 P5+ 8 f 0.5675(3) 0.9148(9) 0.4438(3) 0.0066(15) 1 0
P10 P5+ 8 f 0.2333(3) 0.0403(9) 0.5337(3) 0.0050(15) 1 0
P11 P5+ 8 f 0.5671(3) 0.0388(8) 0.5348(3) 0.0047(15) 1 0
P12 P5+ 8 f 0.8997(3) 0.0398(9) 0.5342(3) 0.0059(15) 1 0
O1 O2- 8 f 0.1099(6) 0.455(2) 0.2044(6) 0.004(4) 1 0
O2 O2- 8 f 0.4420(7) 0.454(2) 0.2063(7) 0.011(4) 1 0
O3 O2- 8 f 0.7771(6) 0.449(2) 0.2066(7) 0.004(4) 1 0
O4 O2- 8 f 0.1249(7) 0.681(2) 0.2651(7) 0.009(4) 1 0
O5 O2- 8 f 0.4579(7) 0.685(2) 0.2657(7) 0.011(4) 1 0
O6 O2- 8 f 0.7909(6) 0.680(2) 0.2660(7) 0.008(4) 1 0
O7 O2- 8 f 0.0435(7) 0.528(2) 0.2378(8) 0.010(4) 1 0
O8 O2- 8 f 0.3743(7) 0.532(2) 0.2391(7) 0.008(4) 1 0
O9 O2- 8 f 0.7077(7) 0.527(2) 0.2355(8) 0.008(4) 1 0
O10 O2- 8 f 0.1208(6) 0.401(2) 0.2898(7) 0.005(4) 1 0
O11 O2- 8 f 0.4537(6) 0.402(2) 0.2917(7) 0.008(4) 1 0
O12 O2- 8 f 0.7869(6) 0.392(2) 0.2910(7) 0.011(4) 1 0
O13 O2- 8 f 0.0480(6) 0.358(2) 0.3178(6) 0.005(4) 1 0
O14 O2- 8 f 0.3810(7) 0.355(3) 0.3180(7) 0.013(4) 1 0
O15 O2- 8 f 0.7132(6) 0.350(2) 0.3169(6) 0.005(4) 1 0
O16 O2- 8 f 0.1181(6) 0.556(2) 0.3602(7) 0.008(4) 1 0
O17 O2- 8 f 0.4467(7) 0.562(2) 0.3594(7) 0.010(4) 1 0
O18 O2- 8 f 0.7787(7) 0.558(2) 0.3596(7) 0.014(5) 1 0
O19 O2- 8 f 0.1349(6) 0.259(2) 0.3654(7) 0.003(4) 1 0
O20 O2- 8 f 0.4677(7) 0.260(2) 0.3679(7) 0.009(4) 1 0
O21 O2- 8 f 0.8009(7) 0.259(2) 0.3660(8) 0.013(5) 1 0
O22 O2- 8 f 0.2183(6) 0.086(2) 0.4253(7) 0.009(4) 1 0
O23 O2- 8 f 0.5518(6) 0.082(2) 0.4266(7) 0.006(4) 1 0
O24 O2- 8 f 0.8861(6) 0.081(2) 0.4258(7) 0.005(4) 1 0
O25 O2- 8 f 0.2889(5) 0.885(2) 0.4523(6) 0.001(3) 1 0
O26 O2- 8 f 0.6226(6) 0.882(2) 0.4515(7) 0.006(4) 1 0
O27 O2- 8 f 0.9566(6) 0.878(2) 0.4541(7) 0.010(4) 1 0
O28 O2- 8 f 0.2000(7) 0.784(2) 0.4145(7) 0.010(4) 1 0
O29 O2- 8 f 0.5306(7) 0.790(2) 0.4140(7) 0.008(4) 1 0
O30 O2- 8 f 0.8665(7) 0.786(2) 0.4151(7) 0.012(4) 1 0
O31 O2- 8 f 0.2316(6) 0.910(2) 0.4961(6) 0.003(4) 1 0
O32 O2- 8 f 0.5654(6) 0.901(2) 0.4970(7) 0.007(4) 1 0
O33 O2- 8 f 0.8959(6) 0.904(2) 0.4961(6) 0.002(4) 1 0
O34 O2- 8 f 0.2006(6) 0.178(2) 0.5071(7) 0.010(4) 1 0
O35 O2- 8 f 0.5350(6) 0.182(2) 0.5079(6) 0.006(4) 1 0
O36 O2- 8 f 0.8689(6) 0.178(2) 0.5077(6) 0.005(4) 1 0
O37 O2- 8 f 0.2887(6) 0.087(2) 0.5589(7) 0.004(4) 1 0
O38 O2- 8 f 0.6218(7) 0.081(2) 0.5602(7) 0.011(5) 1 0
O39 O2- 8 f 0.9552(7) 0.086(2) 0.5607(7) 0.010(5) 1 0
O40 O2- 8 f 0.2122(7) 0.960(2) 0.5682(7) 0.004(4) 1 0
O41 O2- 8 f 0.5462(7) 0.961(2) 0.5702(8) 0.009(4) 1 0
O42 O2- 8 f 0.8803(6) 0.961(2) 0.5690(7) 0.001 1 0
loop_
_atom_site_aniso_label
_atom_site_aniso_type_symbol
_atom_site_aniso_U_11
_atom_site_aniso_U_22
_atom_site_aniso_U_33
_atom_site_aniso_U_12
_atom_site_aniso_U_13
_atom_site_aniso_U_23
Ag2 Ag1+ 0.014(3) 0.011(4) 0.015(4) -0.012(2) 0.010(3) -0.009(2)
Na2 Na1+ 0.014(3) 0.011(4) 0.015(4) -0.012(2) 0.010(3) -0.009(2)
Ag4 Ag1+ 0.0153(12) 0.0159(16) 0.0086(16) -0.0090(11) 0.0054(11) -0.0044(11)
Na4 Na1+ 0.0153(12) 0.0159(16) 0.0086(16) -0.0090(11) 0.0054(11) -0.0044(11)
Ag5 Ag1+ 0.0166(13) 0.0137(14) 0.0036(15) -0.0074(10) 0.0040(10) -0.0017(10)
Na5 Na1+ 0.0166(13) 0.0137(14) 0.0036(15) -0.0074(10) 0.0040(10) -0.0017(10)
Ag6 Ag1+ 0.0205(15) 0.0140(14) 0.0062(15) -0.0119(11) 0.0065(11) -0.0042(11)
Na6 Na1+ 0.0205(15) 0.0140(14) 0.0062(15) -0.0119(11) 0.0065(11) -0.0042(11)
Ag7 Ag1+ 0.049(5) 0.045(6) 0.093(8) 0.019(4) -0.027(5) -0.031(5)
Ag8 Ag1+ 0.0088(13) 0.0115(17) 0.044(2) 0.0031(11) -0.0004(13) -0.0114(16)
Ag9 Ag1+ 0.0064(14) 0.0225(19) 0.043(2) 0.0078(13) -0.0065(13) -0.0248(16)
Ag10 Ag1+ 0.0082(13) 0.0202(16) 0.0038(15) 0.0070(11) 0.0009(10) 0.0062(12)
Ag11 Ag1+ 0.086(9) 0.108(12) 0.070(8) -0.013(7) 0.009(6) -0.023(8)
Ag12 Ag1+ 0.0119(12) 0.052(2) 0.0054(13) 0.0197(14) -0.000776 0.0086(14)
Fe2 Fe3+ 0.0052(13) 0.0082(14) 0.0053(14) -0.0005(19) -0.0001(10) 0.000(2)
Fe4 Fe3+ 0.0051(17) 0.0067(19) 0.008(2) -0.0015(14) 0.0028(16) 0.0017(16)
Fe5 Fe3+ 0.0068(18) 0.0058(18) 0.002(2) 0.0010(15) 0.0012(15) -0.0009(15)
#End of TTdata_168393-ICSD