
#(C) 2019 by FIZ Karlsruhe - Leibniz Institute for Information Infrastructure.  All rights reserved.
data_168390-ICSD
_database_code_ICSD 168390
_audit_creation_date 2011-02-01
_chemical_name_systematic 'Disilver pentasodium triiron tetrakis(diarsenate)'
_chemical_formula_structural 'Ag2 Na5 Fe3 (As2 O7)4'
_chemical_formula_sum 'Ag2 As8 Fe3 Na5 O28'
_exptl_crystal_density_diffrn 4.21
_cell_measurement_temperature 100.
_publ_section_title

;
Crystal structures and sodium/silver distributions within the ionic conductors
Na5 Ag2 Fe3 (As2 O7)4 and Na2 Ag5 Fe3 (P2 O7)4
;
loop_
_citation_id
_citation_journal_full
_citation_year
_citation_journal_volume
_citation_page_first
_citation_page_last
_citation_journal_id_ASTM
primary 'New Journal of Chemistry' 2010 34 287 293 NJCHE5
loop_
_publ_author_name
'Quarez, E.'
'Mentre, O.'
'Djellab, K.'
'Masquelier, C.'
_cell_length_a 9.973(2)
_cell_length_b 8.549(2)
_cell_length_c 28.664(6)
_cell_angle_alpha 90
_cell_angle_beta 94.152(3)
_cell_angle_gamma 90
_cell_volume 2437.46
_cell_formula_units_Z 4
_symmetry_space_group_name_H-M 'C 1 2/c 1'
_symmetry_Int_Tables_number 15
_refine_ls_R_factor_all 0.0264
loop_
_symmetry_equiv_pos_site_id
_symmetry_equiv_pos_as_xyz
1 'x, -y, z+1/2'
2 '-x, -y, -z'
3 '-x, y, -z+1/2'
4 'x, y, z'
5 'x+1/2, -y+1/2, z+1/2'
6 '-x+1/2, -y+1/2, -z'
7 '-x+1/2, y+1/2, -z+1/2'
8 'x+1/2, y+1/2, z'
loop_
_atom_type_symbol
_atom_type_oxidation_number
As5+ 5
Fe3+ 3
Na1+ 1
Ag1+ 1
Na1+ 1
Ag1+ 1
O2- -2
loop_
_atom_site_label
_atom_site_type_symbol
_atom_site_symmetry_multiplicity
_atom_site_Wyckoff_symbol
_atom_site_fract_x
_atom_site_fract_y
_atom_site_fract_z
_atom_site_B_iso_or_equiv
_atom_site_occupancy
_atom_site_attached_hydrogens
As1 As5+ 8 f 0.29749(5) 0.30836(6) 0.247944(16) 0.00476(13) 1 0
As2 As5+ 8 f 0.21964(5) 0.16991(6) 0.340063(16) 0.00539(13) 1 0
As3 As5+ 8 f 0.51040(5) 0.66559(6) 0.442967(16) 0.00433(13) 1 0
As4 As5+ 8 f 0.41246(5) 0.79491(6) 0.536064(16) 0.00426(12) 1 0
Fe1 Fe3+ 4 e 0 0.13383(12) 0.25 0.0045(2) 1 0
Fe2 Fe3+ 8 f 0.31647(7) 0.97809(8) 0.43630(2) 0.00451(18) 1 0
Na1 Na1+ 8 f 0.28125(19) 0.3816(2) 0.44791(6) 0.0042(5) 1 0
Na2 Na1+ 8 f 0.52188(9) 0.36060(11) 0.35517(3) 0.0116(3) 0.684(3) 0
Ag1 Ag1+ 8 f 0.52188(9) 0.36060(11) 0.35517(3) 0.0116(3) 0.316(3) 0
Na3 Na1+ 4 e 0 0.5287(4) 0.25 0.0185(10) 1 0
Na4 Na1+ 8 f 0.28496(6) 0.61499(7) 0.34851(2) 0.01685(19) 0.316(3) 0
Ag2 Ag1+ 8 f 0.28496(6) 0.61499(7) 0.34851(2) 0.01685(19) 0.684(3) 0
O1 O2- 8 f 0.3735(3) 0.2291(4) 0.20417(12) 0.0082(9) 1 0
O2 O2- 8 f 0.3617(3) 0.4774(4) 0.26834(12) 0.0084(10) 1 0
O3 O2- 8 f 0.1296(3) 0.3130(4) 0.23945(12) 0.0078(9) 1 0
O4 O2- 8 f 0.3293(3) 0.1730(4) 0.29420(12) 0.0082(9) 1 0
O5 O2- 8 f 0.0643(3) 0.1281(4) 0.31659(12) 0.0087(10) 1 0
O6 O2- 8 f 0.2386(4) 0.3403(4) 0.36570(13) 0.0126(10) 1 0
O7 O2- 8 f 0.2703(4) 0.0085(4) 0.36889(13) 0.0102(10) 1 0
O8 O2- 8 f 0.4764(4) 0.8492(4) 0.42664(12) 0.0080(9) 1 0
O9 O2- 8 f 0.6756(3) 0.6384(4) 0.45405(12) 0.0081(9) 1 0
O10 O2- 8 f 0.4343(3) 0.5308(4) 0.40954(12) 0.0066(9) 1 0
O11 O2- 8 f 0.4431(4) 0.6438(4) 0.49760(12) 0.0072(9) 1 0
O12 O2- 8 f 0.3401(3) 0.9434(4) 0.50623(12) 0.0065(9) 1 0
O13 O2- 8 f 0.5617(3) 0.8339(4) 0.56307(12) 0.0079(9) 1 0
O14 O2- 8 f 0.3110(3) 0.7127(4) 0.57290(12) 0.0071(9) 1 0
loop_
_atom_site_aniso_label
_atom_site_aniso_type_symbol
_atom_site_aniso_U_11
_atom_site_aniso_U_22
_atom_site_aniso_U_33
_atom_site_aniso_U_12
_atom_site_aniso_U_13
_atom_site_aniso_U_23
As1 As5+ 0.0050(2) 0.0048(2) 0.0045(2) -0.00079(17) 0.00000(16) 0.00059(17)
As2 As5+ 0.0065(2) 0.0059(2) 0.0036(2) -0.00111(18) -0.00091(17) 0.00041(17)
As3 As5+ 0.0048(2) 0.0043(2) 0.0040(2) -0.00014(17) 0.00017(16) -0.00024(17)
As4 As5+ 0.0049(2) 0.0042(2) 0.0035(2) 0.00011(17) -0.00008(16) 0.00037(17)
Fe1 Fe3+ 0.0051(4) 0.0046(4) 0.0036(4) 0 -0.0003(3) 0
Fe2 Fe3+ 0.0051(3) 0.0044(3) 0.0039(3) 0.0000(2) -0.0007(2) 0.0008(2)
Na1 Na1+ 0.0045(9) 0.0030(8) 0.0053(8) -0.0012(7) 0.0020(7) -0.0017(7)
Na2 Na1+ 0.0148(5) 0.0121(5) 0.0084(5) 0.0006(3) 0.0037(3) -0.0019(3)
Ag1 Ag1+ 0.0148(5) 0.0121(5) 0.0084(5) 0.0006(3) 0.0037(3) -0.0019(3)
Na3 Na1+ 0.0139(15) 0.0074(15) 0.0346(19) 0 0.0051(14) 0
Na4 Na1+ 0.0218(3) 0.0168(3) 0.0109(3) 0.0043(2) -0.0063(2) 0.0042(2)
Ag2 Ag1+ 0.0218(3) 0.0168(3) 0.0109(3) 0.0043(2) -0.0063(2) 0.0042(2)
O1 O2- 0.0089(16) 0.0076(17) 0.0081(16) 0.0005(13) 0.0014(13) -0.0026(13)
O2 O2- 0.0076(16) 0.0067(16) 0.0111(16) -0.0037(13) 0.0024(13) -0.0027(14)
O3 O2- 0.0036(15) 0.0094(17) 0.0106(16) -0.0008(13) 0.0007(12) 0.0029(14)
O4 O2- 0.0064(16) 0.0121(17) 0.0060(15) 0.0008(13) 0.0006(12) 0.0022(13)
O5 O2- 0.0068(16) 0.0141(18) 0.0048(15) -0.0028(14) -0.0012(12) -0.0016(14)
O6 O2- 0.0181(19) 0.0081(17) 0.0109(17) -0.0021(15) -0.0026(14) -0.0026(14)
O7 O2- 0.0153(18) 0.0055(16) 0.0092(16) 0.0000(14) -0.0035(14) 0.0037(14)
O8 O2- 0.0089(16) 0.0059(16) 0.0090(16) 0.0003(13) 0.0006(13) 0.0016(13)
O9 O2- 0.0046(15) 0.0069(16) 0.0127(17) -0.0002(13) 0.0002(13) 0.0010(14)
O10 O2- 0.0083(16) 0.0047(16) 0.0065(15) -0.0035(13) -0.0007(12) -0.0017(13)
O11 O2- 0.0108(16) 0.0059(16) 0.0053(15) 0.0013(13) 0.0031(13) 0.0003(13)
O12 O2- 0.0068(15) 0.0056(16) 0.0067(15) 0.0033(13) -0.0012(12) 0.0013(13)
O13 O2- 0.0063(16) 0.0085(17) 0.0083(16) -0.0011(13) -0.0043(12) 0.0018(14)
O14 O2- 0.0080(16) 0.0077(16) 0.0060(15) -0.0008(13) 0.0033(12) 0.0001(13)
#End of TTdata_168390-ICSD