
#(C) 2019 by FIZ Karlsruhe - Leibniz Institute for Information Infrastructure.  All rights reserved.
data_168749-ICSD
_database_code_ICSD 168749
_audit_creation_date 2011-02-01
_chemical_name_systematic
'Sodium sulfur aluminium silicon oxide (81/67/81/111/384)'
_chemical_formula_structural 'Na81 S67 (Al81 Si111 O384)'
_chemical_formula_sum 'Al81 Na81 O384 S67 Si111'
_chemical_name_structure_type Faujasite-frame
_chemical_name_mineral 'Zeolite X (Na-exchanged,S-vapour adsorbed)'
_exptl_crystal_density_diffrn 1.66
_publ_section_title 'Structure of sulfur complexes in zeolite NaX(S)'
loop_
_citation_id
_citation_journal_full
_citation_year
_citation_journal_volume
_citation_page_first
_citation_page_last
_citation_journal_id_ASTM
primary 'Glass Physics and Chemistry' 2008 34 742 748 GPHCEE
loop_
_publ_author_name
'Lapshin, A.E.'
'Vasil'eva, E.A. (Vasileva, E.A.)'
_cell_length_a 24.930(5)
_cell_length_b 24.930(5)
_cell_length_c 24.930(5)
_cell_angle_alpha 90.
_cell_angle_beta 90.
_cell_angle_gamma 90.
_cell_volume 15494.12
_cell_formula_units_Z 1
_symmetry_space_group_name_H-M 'F d -3 m Z'
_symmetry_Int_Tables_number 227
_refine_ls_R_factor_all 0.081
loop_
_symmetry_equiv_pos_site_id
_symmetry_equiv_pos_as_xyz
1 '-z, y+3/4, x+3/4'
2 'z+3/4, -y, x+3/4'
3 'z+3/4, y+3/4, -x'
4 '-z, -y, -x'
5 'y+3/4, x+3/4, -z'
6 '-y, x+3/4, z+3/4'
7 'y+3/4, -x, z+3/4'
8 '-y, -x, -z'
9 'x+3/4, -z, y+3/4'
10 'x+3/4, z+3/4, -y'
11 '-x, z+3/4, y+3/4'
12 '-x, -z, -y'
13 '-z, x+3/4, y+3/4'
14 'z+3/4, x+3/4, -y'
15 'z+3/4, -x, y+3/4'
16 '-z, -x, -y'
17 'y+3/4, -z, x+3/4'
18 '-y, z+3/4, x+3/4'
19 'y+3/4, z+3/4, -x'
20 '-y, -z, -x'
21 'x+3/4, y+3/4, -z'
22 'x+3/4, -y, z+3/4'
23 '-x, y+3/4, z+3/4'
24 '-x, -y, -z'
25 'z, -y+1/4, -x+1/4'
26 '-z+1/4, y, -x+1/4'
27 '-z+1/4, -y+1/4, x'
28 'z, y, x'
29 '-y+1/4, -x+1/4, z'
30 'y, -x+1/4, -z+1/4'
31 '-y+1/4, x, -z+1/4'
32 'y, x, z'
33 '-x+1/4, z, -y+1/4'
34 '-x+1/4, -z+1/4, y'
35 'x, -z+1/4, -y+1/4'
36 'x, z, y'
37 'z, -x+1/4, -y+1/4'
38 '-z+1/4, -x+1/4, y'
39 '-z+1/4, x, -y+1/4'
40 'z, x, y'
41 '-y+1/4, z, -x+1/4'
42 'y, -z+1/4, -x+1/4'
43 '-y+1/4, -z+1/4, x'
44 'y, z, x'
45 '-x+1/4, -y+1/4, z'
46 '-x+1/4, y, -z+1/4'
47 'x, -y+1/4, -z+1/4'
48 'x, y, z'
49 '-z, y+1/4, x+1/4'
50 'z+3/4, -y+1/2, x+1/4'
51 'z+3/4, y+1/4, -x+1/2'
52 '-z, -y+1/2, -x+1/2'
53 'y+3/4, x+1/4, -z+1/2'
54 '-y, x+1/4, z+1/4'
55 'y+3/4, -x+1/2, z+1/4'
56 '-y, -x+1/2, -z+1/2'
57 'x+3/4, -z+1/2, y+1/4'
58 'x+3/4, z+1/4, -y+1/2'
59 '-x, z+1/4, y+1/4'
60 '-x, -z+1/2, -y+1/2'
61 '-z, x+1/4, y+1/4'
62 'z+3/4, x+1/4, -y+1/2'
63 'z+3/4, -x+1/2, y+1/4'
64 '-z, -x+1/2, -y+1/2'
65 'y+3/4, -z+1/2, x+1/4'
66 '-y, z+1/4, x+1/4'
67 'y+3/4, z+1/4, -x+1/2'
68 '-y, -z+1/2, -x+1/2'
69 'x+3/4, y+1/4, -z+1/2'
70 'x+3/4, -y+1/2, z+1/4'
71 '-x, y+1/4, z+1/4'
72 '-x, -y+1/2, -z+1/2'
73 'z, -y+3/4, -x+3/4'
74 '-z+1/4, y+1/2, -x+3/4'
75 '-z+1/4, -y+3/4, x+1/2'
76 'z, y+1/2, x+1/2'
77 '-y+1/4, -x+3/4, z+1/2'
78 'y, -x+3/4, -z+3/4'
79 '-y+1/4, x+1/2, -z+3/4'
80 'y, x+1/2, z+1/2'
81 '-x+1/4, z+1/2, -y+3/4'
82 '-x+1/4, -z+3/4, y+1/2'
83 'x, -z+3/4, -y+3/4'
84 'x, z+1/2, y+1/2'
85 'z, -x+3/4, -y+3/4'
86 '-z+1/4, -x+3/4, y+1/2'
87 '-z+1/4, x+1/2, -y+3/4'
88 'z, x+1/2, y+1/2'
89 '-y+1/4, z+1/2, -x+3/4'
90 'y, -z+3/4, -x+3/4'
91 '-y+1/4, -z+3/4, x+1/2'
92 'y, z+1/2, x+1/2'
93 '-x+1/4, -y+3/4, z+1/2'
94 '-x+1/4, y+1/2, -z+3/4'
95 'x, -y+3/4, -z+3/4'
96 'x, y+1/2, z+1/2'
97 '-z+1/2, y+3/4, x+1/4'
98 'z+1/4, -y, x+1/4'
99 'z+1/4, y+3/4, -x+1/2'
100 '-z+1/2, -y, -x+1/2'
101 'y+1/4, x+3/4, -z+1/2'
102 '-y+1/2, x+3/4, z+1/4'
103 'y+1/4, -x, z+1/4'
104 '-y+1/2, -x, -z+1/2'
105 'x+1/4, -z, y+1/4'
106 'x+1/4, z+3/4, -y+1/2'
107 '-x+1/2, z+3/4, y+1/4'
108 '-x+1/2, -z, -y+1/2'
109 '-z+1/2, x+3/4, y+1/4'
110 'z+1/4, x+3/4, -y+1/2'
111 'z+1/4, -x, y+1/4'
112 '-z+1/2, -x, -y+1/2'
113 'y+1/4, -z, x+1/4'
114 '-y+1/2, z+3/4, x+1/4'
115 'y+1/4, z+3/4, -x+1/2'
116 '-y+1/2, -z, -x+1/2'
117 'x+1/4, y+3/4, -z+1/2'
118 'x+1/4, -y, z+1/4'
119 '-x+1/2, y+3/4, z+1/4'
120 '-x+1/2, -y, -z+1/2'
121 'z+1/2, -y+1/4, -x+3/4'
122 '-z+3/4, y, -x+3/4'
123 '-z+3/4, -y+1/4, x+1/2'
124 'z+1/2, y, x+1/2'
125 '-y+3/4, -x+1/4, z+1/2'
126 'y+1/2, -x+1/4, -z+3/4'
127 '-y+3/4, x, -z+3/4'
128 'y+1/2, x, z+1/2'
129 '-x+3/4, z, -y+3/4'
130 '-x+3/4, -z+1/4, y+1/2'
131 'x+1/2, -z+1/4, -y+3/4'
132 'x+1/2, z, y+1/2'
133 'z+1/2, -x+1/4, -y+3/4'
134 '-z+3/4, -x+1/4, y+1/2'
135 '-z+3/4, x, -y+3/4'
136 'z+1/2, x, y+1/2'
137 '-y+3/4, z, -x+3/4'
138 'y+1/2, -z+1/4, -x+3/4'
139 '-y+3/4, -z+1/4, x+1/2'
140 'y+1/2, z, x+1/2'
141 '-x+3/4, -y+1/4, z+1/2'
142 '-x+3/4, y, -z+3/4'
143 'x+1/2, -y+1/4, -z+3/4'
144 'x+1/2, y, z+1/2'
145 '-z+1/2, y+1/4, x+3/4'
146 'z+1/4, -y+1/2, x+3/4'
147 'z+1/4, y+1/4, -x'
148 '-z+1/2, -y+1/2, -x'
149 'y+1/4, x+1/4, -z'
150 '-y+1/2, x+1/4, z+3/4'
151 'y+1/4, -x+1/2, z+3/4'
152 '-y+1/2, -x+1/2, -z'
153 'x+1/4, -z+1/2, y+3/4'
154 'x+1/4, z+1/4, -y'
155 '-x+1/2, z+1/4, y+3/4'
156 '-x+1/2, -z+1/2, -y'
157 '-z+1/2, x+1/4, y+3/4'
158 'z+1/4, x+1/4, -y'
159 'z+1/4, -x+1/2, y+3/4'
160 '-z+1/2, -x+1/2, -y'
161 'y+1/4, -z+1/2, x+3/4'
162 '-y+1/2, z+1/4, x+3/4'
163 'y+1/4, z+1/4, -x'
164 '-y+1/2, -z+1/2, -x'
165 'x+1/4, y+1/4, -z'
166 'x+1/4, -y+1/2, z+3/4'
167 '-x+1/2, y+1/4, z+3/4'
168 '-x+1/2, -y+1/2, -z'
169 'z+1/2, -y+3/4, -x+1/4'
170 '-z+3/4, y+1/2, -x+1/4'
171 '-z+3/4, -y+3/4, x'
172 'z+1/2, y+1/2, x'
173 '-y+3/4, -x+3/4, z'
174 'y+1/2, -x+3/4, -z+1/4'
175 '-y+3/4, x+1/2, -z+1/4'
176 'y+1/2, x+1/2, z'
177 '-x+3/4, z+1/2, -y+1/4'
178 '-x+3/4, -z+3/4, y'
179 'x+1/2, -z+3/4, -y+1/4'
180 'x+1/2, z+1/2, y'
181 'z+1/2, -x+3/4, -y+1/4'
182 '-z+3/4, -x+3/4, y'
183 '-z+3/4, x+1/2, -y+1/4'
184 'z+1/2, x+1/2, y'
185 '-y+3/4, z+1/2, -x+1/4'
186 'y+1/2, -z+3/4, -x+1/4'
187 '-y+3/4, -z+3/4, x'
188 'y+1/2, z+1/2, x'
189 '-x+3/4, -y+3/4, z'
190 '-x+3/4, y+1/2, -z+1/4'
191 'x+1/2, -y+3/4, -z+1/4'
192 'x+1/2, y+1/2, z'
loop_
_atom_type_symbol
_atom_type_oxidation_number
Si4+ 4
Al3+ 3
O2- -2
Na1+ 1
S0+ 0
loop_
_atom_site_label
_atom_site_type_symbol
_atom_site_symmetry_multiplicity
_atom_site_Wyckoff_symbol
_atom_site_fract_x
_atom_site_fract_y
_atom_site_fract_z
_atom_site_B_iso_or_equiv
_atom_site_occupancy
_atom_site_attached_hydrogens
Si1 Si4+ 192 i 0.9470(2) 0.1240(3) 0.0358(3) 0.013(1) 0.5781 0
Al1 Al3+ 192 i 0.9470(2) 0.1240(3) 0.0358(3) 0.013(1) 0.4219 0
O1 O2- 96 h 0.8927(7) 0 0.1073(7) 0.029(9) 1. 0
O2 O2- 96 g 0.9960(7) 0.9960(7) 0.1446(9) 0.018(7) 1. 0
O3 O2- 96 g 0.0719(7) 0.0719(7) 0.9677(10) 0.017(16) 1. 0
O4 O2- 96 g 0.0721(8) 0.0721(8) 0.3236(11) 0.0292(7) 1. 0
Na1 Na1+ 16 c 0 0 0 0.02(1) 0.313(63) 0
Na2 Na1+ 32 e 0.0594 0.0594 0.0594 0.05(1) 0.375(63) 0
Na3 Na1+ 32 e 0.0765(16) 0.0765(16) 0.0765(16) 0.03(1) 0.438(63) 0
Na4 Na1+ 32 e 0.2394(7) 0.2394(7) 0.2394(7) 0.04(1) 0.938(63) 0
Na5 Na1+ 96 g 0.387(4) 0.008(4) 0.008(4) 0.06(1) 0.208(31) 0
S1 S0+ 32 e 0.165(2) 0.165(2) 0.165(2) 0.07(1) 0.344(31) 0
S2 S0+ 32 e 0.292(9) 0.292(9) 0.292(9) 0.06(1) 0.062(63) 0
S3 S0+ 96 g 0.275(6) 0.372(11) 0.275(6) 0.06(1) 0.063(21) 0
S4 S0+ 96 g 0.317(4) 0.433(4) 0.221(6) 0.06(1) 0.115(21) 0
S5 S0+ 96 g 0.373(17) 0.377(17) 0.177(4) 0.05(1) 0.094(21) 0
S6 S0+ 96 g 0.393(4) 0.393(4) 0.212(7) 0.05(1) 0.083(21) 0
S7 S0+ 192 i 0.442(4) 0.355(4) 0.213(3) 0.05(1) 0.104(10) 0
#End of TTdata_168749-ICSD