
#(C) 2019 by FIZ Karlsruhe - Leibniz Institute for Information Infrastructure.  All rights reserved.
data_169056-ICSD
_database_code_ICSD 169056
_audit_creation_date 2011-02-01
_chemical_name_systematic
'Tetrasodium tetrakis(dioxohydroxosilicate) heptahydrate'
_chemical_formula_structural 'Na4 (Si4 O8 (O H)4) (H2 O)7'
_chemical_formula_sum 'H18 Na4 O19 Si4'
_chemical_name_mineral Yegorovite
_exptl_crystal_density_diffrn 1.98
_publ_section_title
'Crystal structure of yegorovite Na4 (Si4 O8 (O H)4) * 7(H2 O)'
loop_
_citation_id
_citation_journal_full
_citation_year
_citation_journal_volume
_citation_page_first
_citation_page_last
_citation_journal_id_ASTM
primary 'Doklady Earth Sciences' 2009 427 814 818 DESOAP
loop_
_publ_author_name
'Zubkova, N.V.'
'Pekov, I.V.'
'Pushcharovskii, D.Yu.'
'Kazantsev, S.S.'
_cell_length_a 9.8744(4)
_cell_length_b 12.3981(5)
_cell_length_c 14.8973(7)
_cell_angle_alpha 90.
_cell_angle_beta 104.675(5)
_cell_angle_gamma 90.
_cell_volume 1764.29
_cell_formula_units_Z 4
_symmetry_space_group_name_H-M 'P 1 21/c 1'
_symmetry_Int_Tables_number 14
_refine_ls_R_factor_all 0.0745
loop_
_symmetry_equiv_pos_site_id
_symmetry_equiv_pos_as_xyz
1 'x, -y+1/2, z+1/2'
2 '-x, -y, -z'
3 '-x, y+1/2, -z+1/2'
4 'x, y, z'
loop_
_atom_type_symbol
_atom_type_oxidation_number
Si4+ 4
Na1+ 1
O2- -2
H1+ 1
O2- -2
H1+ 1
O2- -2
H1+ 1
O2- -2
H1+ 1
O2- -2
H1+ 1
O2- -2
H1+ 1
O2- -2
H1+ 1
O2- -2
H1+ 1
O2- -2
H1+ 1
O2- -2
H1+ 1
O2- -2
H1+ 1
loop_
_atom_site_label
_atom_site_type_symbol
_atom_site_symmetry_multiplicity
_atom_site_Wyckoff_symbol
_atom_site_fract_x
_atom_site_fract_y
_atom_site_fract_z
_atom_site_B_iso_or_equiv
_atom_site_occupancy
_atom_site_attached_hydrogens
Si1 Si4+ 4 e 0.59375(15) 0.82135(13) 0.22737(12) 0.0138(4) 1. 0
Si2 Si4+ 4 e 0.85409(15) 0.68222(13) 0.23240(11) 0.0125(4) 1. 0
Si3 Si4+ 4 e 0.34122(16) 0.67253(13) 0.23305(12) 0.0138(4) 1. 0
Si4 Si4+ 4 e 0.10049(16) 0.83149(13) 0.23761(13) 0.0152(4) 1. 0
Na1 Na1+ 4 e 0.0532(3) 0.6184(2) 0.06992(18) 0.0275(6) 1. 0
Na2 Na1+ 4 e 0.7635(3) 0.8608(1) 0.05829(19) 0.0286(7) 1. 0
Na3 Na1+ 4 e 0.3045(3) 0.8923(2) 0.07159(19) 0.0311(7) 1. 0
Na4 Na1+ 4 e 0.4902(2) 0.6251(2) 0.05502(18) 0.0298(7) 1. 0
O1 O2- 4 e 0.0665(5) 0.4265(4) 0.0859(4) 0.0279(12) 1. 0
H1 H1+ 4 e 0.033(6) 0.412(5) 0.125(4) 0.005 1. 0
H2 H1+ 4 e 0.134(4) 0.463(5) 0.106(5) 0.04(2) 1. 0
O2 O2- 4 e 0.6751(5) 0.6900(4) 0.0002(4) 0.0282(11) 1. 0
H3 H1+ 4 e 0.673(6) 0.675(5) -0.056(5) 0.03(2) 1. 0
H4 H1+ 4 e 0.690(12) 0.640(7) 0.046(6) 0.15(5) 1. 0
O3 O2- 4 e 0.9783(5) 0.7937(4) 0.0089(4) 0.0388(13) 1. 0
H5 H1+ 4 e 0.027(7) 0.851(6) 0.045(5) 0.05(2) 1. 0
H6 H1+ 4 e 0.958(6) 0.809(5) -0.059(5) 0.034(19) 1. 0
O4 O2- 4 e 0.3337(6) 0.7544(4) -0.0283(3) 0.0365(12) 1. 0
H7 H1+ 4 e 0.252(9) 0.724(8) -0.062(6) 0.08(3) 1. 0
H8 H1+ 4 e 0.389(9) 0.783(8) -0.064(6) 0.10(4) 1. 0
O5 O2- 4 e 0.3959(4) 0.6184(3) 0.3321(3) 0.0195(10) 1. 0
O6 O2- 4 e 0.9024(4) 0.6274(3) 0.3312(3) 0.0165(9) 1. 0
O7 O2- 4 e 0.1549(4) 0.8839(3) 0.3376(3) 0.0223(10) 1. 0
O8 O2- 4 e 0.6507(4) 0.8788(3) 0.3248(3) 0.0249(11) 1. 0
O9 O2- 4 e 0.8697(4) 0.6008(3) 0.1481(3) 0.0170(10) 1. 0
H9 H1+ 4 e 0.867(5) 0.540(4) 0.157(4) 0.003(15) 1. 0
O10 O2- 4 e 0.9385(4) 0.7913(3) 0.2161(3) 0.0199(10) 1. 0
O11 O2- 4 e 0.4369(4) 0.7711(3) 0.2109(3) 0.0218(11) 1. 0
O12 O2- 4 e 0.5796(5) 0.9035(4) 0.1385(3) 0.0234(10) 1. 0
H10 H1+ 4 e 0.629(8) 0.947(6) 0.170(6) 0.10(4) 1. 0
O13 O2- 4 e 0.6876(3) 0.7188(3) 0.2082(3) 0.0181(10) 1. 0
O14 O2- 4 e 0.1833(4) 0.7219(3) 0.2185(3) 0.0185(10) 1. 0
O15 O2- 4 e 0.8270(5) 0.0419(4) 0.0922(3) 0.0290(12) 1. 0
H11 H1+ 4 e 0.908(5) 0.073(4) 0.120(4) 0.005(14) 1. 0
H12 H1+ 4 e 0.746(5) 0.058(7) 0.107(6) 0.08(3) 1. 0
O16 O2- 4 e 0.3241(5) 0.5891(4) 0.1458(3) 0.0201(10) 1. 0
H13 H1+ 4 e 0.346(6) 0.5312(16) 0.148(4) 0.018(19) 1. 0
O17 O2- 4 e 0.1186(5) 0.9136(4) 0.1562(3) 0.0210(10) 1. 0
H14 H1+ 4 e 0.123(10) 0.971(3) 0.172(6) 0.09(4) 1. 0
O18 O2- 4 e 0.5769(5) 0.4585(4) 0.1060(4) 0.0303(12) 1. 0
H15 H1+ 4 e 0.658(2) 0.452(6) 0.110(5) 0.04(2) 1. 0
H16 H1+ 4 e 0.535(6) 0.428(2) 0.137(4) 0.018(19) 1. 0
O19 O2- 4 e 0.3282(6) 0.0756(4) 0.0944(3) 0.0254(12) 1. 0
H17 H1+ 4 e 0.405(7) 0.095(5) 0.123(5) 0.03(2) 1. 0
H18 H1+ 4 e 0.261(10) 0.117(8) 0.117(7) 0.10(4) 1. 0
#End of TTdata_169056-ICSD