
#(C) 2019 by FIZ Karlsruhe - Leibniz Institute for Information Infrastructure.  All rights reserved.
data_16901-ICSD
_database_code_ICSD 16901
_audit_creation_date 1984-09-04
_audit_update_record 2012-02-01
_chemical_name_systematic 'Calcium disodium bis(sulfate(VI))'
_chemical_formula_structural 'Ca Na2 (S O4)2'
_chemical_formula_sum 'Ca1 Na2 O8 S2'
_chemical_name_structure_type Na2Ca(SO4)2
_chemical_name_mineral Glauberite
_exptl_crystal_density_diffrn 2.78
_publ_section_title 'Refinement of the crystal structure of a glauberite'
loop_
_citation_id
_citation_journal_full
_citation_year
_citation_journal_volume
_citation_page_first
_citation_page_last
_citation_journal_id_ASTM
primary 'American Mineralogist' 1967 52 1272 1277 AMMIAY
loop_
_publ_author_name
'Araki, T.'
'Zoltai, T.'
_cell_length_a 10.129(2)
_cell_length_b 8.306(2)
_cell_length_c 8.533(2)
_cell_angle_alpha 90.
_cell_angle_beta 112.19(1)
_cell_angle_gamma 90.
_cell_volume 664.72
_cell_formula_units_Z 4
_symmetry_space_group_name_H-M 'C 1 2/c 1'
_symmetry_Int_Tables_number 15
_refine_ls_R_factor_all 0.064
loop_
_symmetry_equiv_pos_site_id
_symmetry_equiv_pos_as_xyz
1 'x, -y, z+1/2'
2 '-x, -y, -z'
3 '-x, y, -z+1/2'
4 'x, y, z'
5 'x+1/2, -y+1/2, z+1/2'
6 '-x+1/2, -y+1/2, -z'
7 '-x+1/2, y+1/2, -z+1/2'
8 'x+1/2, y+1/2, z'
loop_
_atom_type_symbol
_atom_type_oxidation_number
Ca2+ 2
Na1+ 1
S6+ 6
O2- -2
loop_
_atom_site_label
_atom_site_type_symbol
_atom_site_symmetry_multiplicity
_atom_site_Wyckoff_symbol
_atom_site_fract_x
_atom_site_fract_y
_atom_site_fract_z
_atom_site_B_iso_or_equiv
_atom_site_occupancy
_atom_site_attached_hydrogens
Ca1 Ca2+ 4 e 0.5 0.4356(1) 0.25 . 1. 0
Na1 Na1+ 8 f 0.1371(2) 0.4445(3) 0.4394(3) . 1. 0
S1 S6+ 8 f 0.1856(1) 0.2143(1) 0.1888(1) . 1. 0
O1 O2- 8 f 0.1252(4) 0.0894(3) 0.0583(4) . 1. 0
O2 O2- 8 f 0.1616(4) 0.1633(4) 0.3399(4) . 1. 0
O3 O2- 8 f 0.3400(4) 0.2294(4) 0.2303(5) . 1. 0
O4 O2- 8 f 0.1134(4) 0.3697(3) 0.1325(5) . 1. 0
loop_
_atom_site_aniso_label
_atom_site_aniso_type_symbol
_atom_site_aniso_beta_11
_atom_site_aniso_beta_22
_atom_site_aniso_beta_33
_atom_site_aniso_beta_12
_atom_site_aniso_beta_13
_atom_site_aniso_beta_23
Ca1 Ca2+ 0.00080(15) 0.00053(12) 0.00181(20) 0 -.00005(7) 0
Na1 Na1+ 0.00332(25) 0.00675(26) 0.00490(35) 0.00016(12) 0.00028(12) -.00178(14)
S1 S6+ 0.00087(12) 0.00071(10) 0.00110(16) -.000262(6) 0.00023(6) -.00007(6)
O1 O2- 0.00417(44) 0.00198(37) 0.00377(55) -.00062(14) 0.00024(20) -.00033(19)
O2 O2- 0.00457(43) 0.00335(34) 0.00227(53) -.00028(17) 0.00129(21) 0.00038(20)
O3 O2- 0.00403(43) 0.00423(38) 0.00808(67) -.00089(20) 0.00186(23) 0.00040(24)
O4 O2- 0.00316(41) 0.00120(31) 0.00532(60) 0.00067(16) 0.00067(21) 0.00094(20)
#End of TTdata_16901-ICSD