
#(C) 2019 by FIZ Karlsruhe - Leibniz Institute for Information Infrastructure.  All rights reserved.
data_169117-ICSD
_database_code_ICSD 169117
_audit_creation_date 2011-02-01
_chemical_name_systematic 'Disodium dititanosilicate'
_chemical_formula_structural 'Na2 (Ti2 O3 (Si O4))'
_chemical_formula_sum 'Na2 O7 Si1 Ti2'
_chemical_name_mineral 'Sitinakite (dehydrated)'
_exptl_crystal_density_diffrn 2.76
_cell_measurement_temperature 573.
_publ_section_title

;
Structure and phase transformations in the titanosilicate sitinakite. The
importance of water
;
loop_
_citation_id
_citation_journal_full
_citation_year
_citation_journal_volume
_citation_page_first
_citation_page_last
_citation_journal_id_ASTM
primary 'Chemistry of Materials' 2010 22 4222 4231 CMATEX
loop_
_publ_author_name
'Thorogood, G.J.'
'Kennedy, B.J.'
'Griffith, C.S.'
'Elcombe, M.M.'
'Avdeev, M.'
'Hanna, J.V.'
'Thorogood, S.K.'
'Luca, V.'
_cell_length_a 10.6772(3)
_cell_length_b 10.6772(3)
_cell_length_c 11.8850(4)
_cell_angle_alpha 90.
_cell_angle_beta 90.
_cell_angle_gamma 90.
_cell_volume 1354.92
_cell_formula_units_Z 8
_symmetry_space_group_name_H-M 'P 42/m b c'
_symmetry_Int_Tables_number 135
loop_
_symmetry_equiv_pos_site_id
_symmetry_equiv_pos_as_xyz
1 '-y+1/2, -x+1/2, z+1/2'
2 '-x+1/2, y+1/2, z'
3 'y, -x, z+1/2'
4 '-x, -y, z'
5 '-y+1/2, -x+1/2, -z+1/2'
6 '-x+1/2, y+1/2, -z'
7 'y, -x, -z+1/2'
8 '-x, -y, -z'
9 'y+1/2, x+1/2, -z+1/2'
10 'x+1/2, -y+1/2, -z'
11 '-y, x, -z+1/2'
12 'x, y, -z'
13 'y+1/2, x+1/2, z+1/2'
14 'x+1/2, -y+1/2, z'
15 '-y, x, z+1/2'
16 'x, y, z'
loop_
_atom_type_symbol
_atom_type_oxidation_number
Ti4+ 4
Si4+ 4
O2- -2
Na1+ 1
loop_
_atom_site_label
_atom_site_type_symbol
_atom_site_symmetry_multiplicity
_atom_site_Wyckoff_symbol
_atom_site_fract_x
_atom_site_fract_y
_atom_site_fract_z
_atom_site_B_iso_or_equiv
_atom_site_occupancy
_atom_site_attached_hydrogens
Ti1 Ti4+ 16 i 0.8599(3) 0.0329(2) 0.1560(2) 0.71(6) 1. 0
Si1 Si4+ 16 i 0.311(1) 0.198(2) 0.25 1.5(2) 0.5 0
O1 O2- 8 h 0.853(1) 0.0162(9) 0 0.6(3) 1. 0
O2 O2- 16 i 0.7127(9) 0.9350(9) 0.1828(7) 1.8(2) 1. 0
O3 O2- 16 i 0.8859(7) 0.0276(8) 0.3320(6) 1.6(2) 1. 0
O4 O2- 16 i 0.7870(7) 0.1983(7) 0.1582(9) 1.9(2) 1. 0
Na1 Na1+ 8 h 0.717(1) -0.199(1) 0 2.6(3) 0.364 0
Na2 Na1+ 8 h 0.648(1) 0.258(1) 0 1.3(4) 0.364 0
Na3 Na1+ 16 i 0.585(2) 0.121(2) 0.189(1) 1.5(5) 0.364 0
Na4 Na1+ 8 h 0.475(3) 0.917(3) 0 3.(1) 0.364 0
Na5 Na1+ 4 d 0.5 0 0.25 6.(2) 0.364 0
#End of TTdata_169117-ICSD