
#(C) 2019 by FIZ Karlsruhe - Leibniz Institute for Information Infrastructure.  All rights reserved.
data_169118-ICSD
_database_code_ICSD 169118
_audit_creation_date 2011-02-01
_chemical_name_systematic 'Sodium iron phosphate'
_chemical_formula_structural 'Na Fe (P O4)'
_chemical_formula_sum 'Fe1 Na1 O4 P1'
_chemical_name_structure_type Olivine-Mg2SiO4
_exptl_crystal_density_diffrn 3.61
_cell_measurement_temperature 296.
_publ_section_title
'Structure and stability of sodium intercalated phases in olivine Fe P O4'
loop_
_citation_id
_citation_journal_full
_citation_year
_citation_journal_volume
_citation_page_first
_citation_page_last
_citation_journal_id_ASTM
primary 'Chemistry of Materials' 2010 22 4126 4128 CMATEX
loop_
_publ_author_name
'Moreau, P.'
'Guyomard, D.'
'Gaubicher, J.'
'Boucher, F.'
_cell_length_a 10.4063(6)
_cell_length_b 6.2187(3)
_cell_length_c 4.9469(3)
_cell_angle_alpha 90
_cell_angle_beta 90
_cell_angle_gamma 90
_cell_volume 320.13
_cell_formula_units_Z 4
_symmetry_space_group_name_H-M 'P n m a'
_symmetry_Int_Tables_number 62
_refine_ls_R_factor_all 0.0163
loop_
_symmetry_equiv_pos_site_id
_symmetry_equiv_pos_as_xyz
1 'x+1/2, y, -z+1/2'
2 'x, -y+1/2, z'
3 '-x+1/2, y+1/2, z+1/2'
4 '-x, -y, -z'
5 '-x+1/2, -y, z+1/2'
6 '-x, y+1/2, -z'
7 'x+1/2, -y+1/2, -z+1/2'
8 'x, y, z'
loop_
_atom_type_symbol
_atom_type_oxidation_number
Na1+ 1
Fe2+ 2
P5+ 5
O2- -2
loop_
_atom_site_label
_atom_site_type_symbol
_atom_site_symmetry_multiplicity
_atom_site_Wyckoff_symbol
_atom_site_fract_x
_atom_site_fract_y
_atom_site_fract_z
_atom_site_B_iso_or_equiv
_atom_site_occupancy
_atom_site_attached_hydrogens
Na1 Na1+ 4 a 0 0 0 0.029(4) 1.003(12) 0
Fe1 Fe2+ 4 c 0.2870(2) 0.75 0.9863(8) 0.0159(16) 1 0
P1 P5+ 4 c 0.1083(4) 0.75 0.4426(10) 0.012(2) 1 0
O1 O2- 4 c 0.1140(11) 0.75 0.7524(19) 0.012(2) 1 0
O2 O2- 4 c 0.4685(11) 0.75 0.1611(19) 0.012(2) 1 0
O3 O2- 8 d 0.1755(9) 0.9446(12) 0.3118(12) 0.012(2) 1 0
loop_
_atom_site_aniso_label
_atom_site_aniso_type_symbol
_atom_site_aniso_U_11
_atom_site_aniso_U_22
_atom_site_aniso_U_33
_atom_site_aniso_U_12
_atom_site_aniso_U_13
_atom_site_aniso_U_23
Na1 Na1+ 0.039(9) 0.029(6) 0.019(7) 0.015(4) -0.002(9) -0.002(7)
#End of TTdata_169118-ICSD