
#(C) 2019 by FIZ Karlsruhe - Leibniz Institute for Information Infrastructure.  All rights reserved.
data_169116-ICSD
_database_code_ICSD 169116
_audit_creation_date 2011-02-01
_chemical_name_systematic 'Disodium dititanosilicate bis(dideuteriohydrate)'
_chemical_formula_structural 'Na2 (Ti2 O3 (Si O4)) (D2 O)2'
_chemical_formula_sum 'D4 Na2 O9 Si1 Ti2'
_chemical_name_mineral Sitinakite
_exptl_crystal_density_diffrn 2.93
_cell_measurement_temperature 298.
_publ_section_title

;
Structure and phase transformations in the titanosilicate sitinakite. The
importance of water
;
loop_
_citation_id
_citation_journal_full
_citation_year
_citation_journal_volume
_citation_page_first
_citation_page_last
_citation_journal_id_ASTM
primary 'Chemistry of Materials' 2010 22 4222 4231 CMATEX
loop_
_publ_author_name
'Thorogood, G.J.'
'Kennedy, B.J.'
'Griffith, C.S.'
'Elcombe, M.M.'
'Avdeev, M.'
'Hanna, J.V.'
'Thorogood, S.K.'
'Luca, V.'
_cell_length_a 7.8099(7)
_cell_length_b 7.8099(7)
_cell_length_c 11.956(1)
_cell_angle_alpha 90.
_cell_angle_beta 90.
_cell_angle_gamma 90.
_cell_volume 729.25
_cell_formula_units_Z 4
_symmetry_space_group_name_H-M 'P 42/m c m'
_symmetry_Int_Tables_number 132
loop_
_symmetry_equiv_pos_site_id
_symmetry_equiv_pos_as_xyz
1 '-y, x, -z+1/2'
2 'y, -x, -z+1/2'
3 '-y, -x, -z'
4 'y, x, -z'
5 '-y, x, z+1/2'
6 'y, -x, z+1/2'
7 '-y, -x, z'
8 'y, x, z'
9 'x, -y, -z+1/2'
10 '-x, y, -z+1/2'
11 '-x, -y, -z'
12 'x, y, -z'
13 'x, -y, z+1/2'
14 '-x, y, z+1/2'
15 '-x, -y, z'
16 'x, y, z'
loop_
_atom_type_symbol
_atom_type_oxidation_number
Ti4+ 4
Si4+ 4
Na1+ 1
O2- -2
D1+ 1
loop_
_atom_site_label
_atom_site_type_symbol
_atom_site_symmetry_multiplicity
_atom_site_Wyckoff_symbol
_atom_site_fract_x
_atom_site_fract_y
_atom_site_fract_z
_atom_site_B_iso_or_equiv
_atom_site_occupancy
_atom_site_attached_hydrogens
Ti1 Ti4+ 8 o 0.147(2) 0.147(2) 0.160(2) 1.7(4) 1. 0
Si1 Si4+ 4 e 0 0.5 0.25 2.6(6) 1. 0
Na1 Na1+ 4 f 0 0.5 0.5 7.(1) 0.5 0
Na2 Na1+ 4 i 0.27(1) 0.27(1) 0 3.(3) 1. 0
Na3 Na1+ 4 h 0.5 0.5 0.38(1) 3.(3) 0.5 0
O1 O2- 16 p 0.127(1) 0.384(1) 0.1710(6) 0.9(8) 1. 0
O2 O2- 8 o 0.109(1) 0.109(1) 0.327(1) 0.9(8) 1. 0
O3 O2- 4 i 0.147(1) 0.147(1) 0 0.9(8) 1. 0
O4 O2- 4 j 0.294(2) 0.294(2) 0.5 9.(2) 1. 0
O5 O2- 8 o 0.439(4) 0.439(4) 0.333(5) 3.(2) 0.5 0
D1 D1+ 8 o 0.217(2) 0.217(2) 0.445(2) 6.2(6) 1. 0
D2 D1+ 8 o 0.439(3) 0.439(3) 0.124(4) 6.(1) 1. 0
#End of TTdata_169116-ICSD