
#(C) 2018 by FIZ Karlsruhe - Leibniz Institute for Information Infrastructure.  All rights reserved.
data_169476-ICSD
_database_code_ICSD 169476
_audit_creation_date 2011-08-01
_chemical_name_systematic 'Lithium iron digermanate'
_chemical_formula_structural 'Li Fe (Ge2 O6)'
_chemical_formula_sum 'Fe1 Ge2 Li1 O6'
_chemical_name_structure_type Pyroxene-MgSiO3-LT
_exptl_crystal_density_diffrn 4.53
_cell_measurement_temperature 473.
_publ_section_title

;
Thermal expansion and high-temperature P21/c - C2/c phase transition in
clinopyroxene-type Li Fe Ge2 O6 and comparison to Na Fe (Si, Ge)2 O6
;
loop_
_citation_id
_citation_journal_full
_citation_year
_citation_journal_volume
_citation_page_first
_citation_page_last
_citation_journal_id_ASTM
primary 'Physics and Chemistry of Minerals' 2010 37 685 704 PCMIDU
loop_
_publ_author_name
'Redhammer, G.J.'
'Camara, F.'
'Alvaro, M.'
'Nestola, F.'
'Tippelt, G.'
'Prinz, S.'
'Simons, J.'
'Roth, G.'
'Amthauer, G.'
_cell_length_a 9.8981(8)
_cell_length_b 8.8190(8)
_cell_length_c 5.3915(5)
_cell_angle_alpha 90.
_cell_angle_beta 108.853(4)
_cell_angle_gamma 90.
_cell_volume 445.38
_cell_formula_units_Z 4
_symmetry_space_group_name_H-M 'P 1 21/c 1'
_symmetry_Int_Tables_number 14
_refine_ls_R_factor_all 0.0223
loop_
_symmetry_equiv_pos_site_id
_symmetry_equiv_pos_as_xyz
1 'x, -y+1/2, z+1/2'
2 '-x, -y, -z'
3 '-x, y+1/2, -z+1/2'
4 'x, y, z'
loop_
_atom_type_symbol
_atom_type_oxidation_number
Li1+ 1
Fe3+ 3
Ge4+ 4
O2- -2
loop_
_atom_site_label
_atom_site_type_symbol
_atom_site_symmetry_multiplicity
_atom_site_Wyckoff_symbol
_atom_site_fract_x
_atom_site_fract_y
_atom_site_fract_z
_atom_site_B_iso_or_equiv
_atom_site_occupancy
_atom_site_attached_hydrogens
Li1 Li1+ 4 e 0.2597(15) 0.4859(15) 0.7237(21) 0.0193(26) 1. 0
Fe1 Fe3+ 4 e 0.2505(1) 0.6502(1) 0.2156(2) 0.0048(3) 1. 0
Ge1 Ge4+ 4 e 0.04544(7) 0.34204(9) 0.2777(1) 0.0051(3) 1. 0
Ge2 Ge4+ 4 e 0.55147(7) 0.84004(9) 0.23073(9) 0.0050(3) 1. 0
O1 O2- 4 e -0.1412(5) 0.3311(6) 0.1728(7) 0.0070(9) 1. 0
O2 O2- 4 e 0.1142(5) 0.5205(5) 0.2863(8) 0.0134(11) 1. 0
O3 O2- 4 e 0.1155(5) 0.2885(6) 0.6092(8) 0.0115(11) 1. 0
O4 O2- 4 e 0.3645(5) 0.8327(6) 0.1072(7) 0.0075(9) 1. 0
O5 O2- 4 e 0.6272(5) 0.0042(6) 0.3801(7) 0.0080(9) 1. 0
O6 O2- 4 e 0.6135(5) 0.6932(6) 0.4621(8) 0.0086(11) 1. 0
#End of TTdata_169476-ICSD