
#(C) 2018 by FIZ Karlsruhe - Leibniz Institute for Information Infrastructure.  All rights reserved.
data_169799-ICSD
_database_code_ICSD 169799
_audit_creation_date 2011-08-01
_chemical_name_systematic 'Lithium zinc pyrophosphate (2.2/0.8/1) - alpha'
_chemical_formula_structural 'Li2.2 Zn0.8 (P2 O7)'
_chemical_formula_sum 'Li2.2 O7 P2 Zn0.8'
_exptl_crystal_density_diffrn 2.83
_publ_section_title

;
Synthesis and crystal structure of the low temperature modification of Li12
Zn4 (P2 O7)5
;
loop_
_citation_id
_citation_journal_full
_citation_year
_citation_journal_volume
_citation_page_first
_citation_page_last
_citation_journal_id_ASTM
primary 'Glass Physics and Chemistry' 2010 36 75 79 GPHCEE
loop_
_publ_author_name
'Lapshin, A.E.'
'Petrova, M.A.'
_cell_length_a 5.130(1)
_cell_length_b 13.454(1)
_cell_length_c 8.205(1)
_cell_angle_alpha 90.
_cell_angle_beta 90.36(1)
_cell_angle_gamma 90.
_cell_volume 566.29
_cell_formula_units_Z 4
_symmetry_space_group_name_H-M 'P 1 21/n 1'
_symmetry_Int_Tables_number 14
_refine_ls_R_factor_all 0.0306
loop_
_symmetry_equiv_pos_site_id
_symmetry_equiv_pos_as_xyz
1 '-x+1/2, y+1/2, -z+1/2'
2 '-x, -y, -z'
3 'x+1/2, -y+1/2, z+1/2'
4 'x, y, z'
loop_
_atom_type_symbol
_atom_type_oxidation_number
P5+ 5
Li1+ 1
Zn2+ 2
Li1+ 1
Zn2+ 2
Li1+ 1
O2- -2
loop_
_atom_site_label
_atom_site_type_symbol
_atom_site_symmetry_multiplicity
_atom_site_Wyckoff_symbol
_atom_site_fract_x
_atom_site_fract_y
_atom_site_fract_z
_atom_site_B_iso_or_equiv
_atom_site_occupancy
_atom_site_attached_hydrogens
P1 P5+ 4 e 0.171(3) 0.688(7) 0.226(2) 0.0147(2) 1. 0
P2 P5+ 4 e 0.130(3) 0.4710(8) 0.248(2) 0.0147(2) 1. 0
Li1 Li1+ 4 e 0.298(13) 0.793(5) 0.531(1) 0.0357(3) 1. 0
Zn1 Zn2+ 4 e 0.113(4) 0.117(2) 0.589(3) 0.0287(2) 0.24 0
Li2 Li1+ 4 e 0.113(4) 0.117(2) 0.589(3) 0.0287(2) 0.76 0
Zn2 Zn2+ 4 e 0.118(2) 0.1027(6) 0.940(1) 0.0194(2) 0.56 0
Li3 Li1+ 4 e 0.118(2) 0.1027(6) 0.940(1) 0.0194(2) 0.44 0
O1 O2- 4 e 0.467(4) 0.729(2) 0.704(3) 0.0227(3) 1. 0
O2 O2- 4 e -0.329(4) 0.322(2) 0.917(3) 0.0227(3) 1. 0
O3 O2- 4 e 0.334(4) 0.701(2) 0.385(3) 0.0227(3) 1. 0
O4 O2- 4 e 0.026(4) 0.583(2) 0.239(3) 0.0227(3) 1. 0
O5 O2- 4 e 0.107(5) 0.578(2) 0.722(3) 0.0227(3) 1. 0
O6 O2- 4 e 0.190(5) 0.956(2) 0.392(4) 0.0227(3) 1. 0
O7 O2- 4 e 0.212(5) 0.961(2) 0.087(4) 0.0227(3) 1. 0
#End of TTdata_169799-ICSD