
#(C) 2018 by FIZ Karlsruhe - Leibniz Institute for Information Infrastructure.  All rights reserved.
data_170039-ICSD
_database_code_ICSD 170039
_audit_creation_date 2005-10-01
_chemical_name_systematic 'Lithium dioxomolybdenum arsenate oxide'
_chemical_formula_structural 'Li (Mo O2)2 O (As O4)'
_chemical_formula_sum 'As1 Li1 Mo2 O9'
_exptl_crystal_density_diffrn 3.76
_cell_measurement_temperature 298.
_publ_section_title 'Li (Mo O2)2 O (As O4)'
loop_
_citation_id
_citation_journal_full
_citation_year
_citation_journal_volume
_citation_page_first
_citation_page_last
_citation_journal_id_ASTM
primary 'Acta Crystallographica, Section C: Crystal Structure Communications'
2005 61 i57 i58 ACSCEE
loop_
_publ_author_name
'Hajji, M.'
'Zid, M.F.'
'Jouini, T.'
_cell_length_a 5.4350(10)
_cell_length_b 7.599(2)
_cell_length_c 8.938(2)
_cell_angle_alpha 90.
_cell_angle_beta 90.
_cell_angle_gamma 90.
_cell_volume 369.14
_cell_formula_units_Z 2
_symmetry_space_group_name_H-M 'P m m n Z'
_symmetry_Int_Tables_number 59
_refine_ls_R_factor_all 0.023
loop_
_symmetry_equiv_pos_site_id
_symmetry_equiv_pos_as_xyz
1 'x+1/2, y+1/2, -z'
2 '-x, y+1/2, -z'
3 'x+1/2, -y, -z'
4 '-x, -y, -z'
5 '-x+1/2, -y+1/2, z'
6 'x, -y+1/2, z'
7 '-x+1/2, y, z'
8 'x, y, z'
loop_
_atom_type_symbol
_atom_type_oxidation_number
As5+ 5
Mo6+ 6
Li1+ 1
O2- -2
loop_
_atom_site_label
_atom_site_type_symbol
_atom_site_symmetry_multiplicity
_atom_site_Wyckoff_symbol
_atom_site_fract_x
_atom_site_fract_y
_atom_site_fract_z
_atom_site_B_iso_or_equiv
_atom_site_occupancy
_atom_site_attached_hydrogens
As1 As5+ 2 a 0.25 0.25 0.04333(7) 0.0059(2) 1 0
Mo1 Mo6+ 4 e 0.25 0.54103(5) -0.26020(4) 0.0094(2) 1 0
Li1 Li1+ 2 b 0.25 0.75 -0.6040(10) 0.018(3) 1 0
O1 O2- 4 e 0.25 0.4368(5) -0.0586(4) 0.0183(9) 1 0
O2 O2- 2 b 0.25 0.75 -0.3850(5) 0.0130(10) 1 0
O3 O2- 4 f -0.0084(7) 0.25 0.1469(4) 0.0134(8) 1 0
O4 O2- 8 g 0.0061(7) 0.4318(4) -0.3326(4) 0.0328(9) 1 0
loop_
_atom_site_aniso_label
_atom_site_aniso_type_symbol
_atom_site_aniso_U_11
_atom_site_aniso_U_22
_atom_site_aniso_U_33
_atom_site_aniso_U_12
_atom_site_aniso_U_13
_atom_site_aniso_U_23
As1 As5+ 0.0067(4) 0.0032(4) 0.0079(3) 0. 0. 0.
Mo1 Mo6+ 0.0141(3) 0.0028(3) 0.0114(3) 0. 0. -0.00020(10)
Li1 Li1+ 0.019(7) 0.016(6) 0.019(6) 0. 0. 0.
O1 O2- 0.025(2) 0.011(2) 0.018(2) 0. 0. 0.008(2)
O2 O2- 0.020(3) 0.009(2) 0.008(2) 0. 0. 0.
O3 O2- 0.010(2) 0.008(2) 0.023(2) 0. 0.0080(10) 0.
O4 O2- 0.045(2) 0.0130(10) 0.041(2) -0.012(2) -0.024(2) 0.0030(10)
#End of TTdata_170039-ICSD