
#(C) 2019 by FIZ Karlsruhe - Leibniz Institute for Information Infrastructure.  All rights reserved.
data_170139-ICSD
_database_code_ICSD 170139
_audit_creation_date 2006-04-01
_chemical_name_systematic 'Disodium zinc sulfate'
_chemical_formula_structural 'Na2 Zn (S O4)2'
_chemical_formula_sum 'Na2 O8 S2 Zn1'
_exptl_crystal_density_diffrn 2.99
_cell_measurement_temperature 295.
_publ_section_title

;
The reaction between Zn O and molten Na2 S2 O7 or K2 S2 O7 forming Na2 Zn (S
O4)2 or K2 Zn (S O4)2, studied by Raman spectroscopy and x-ray diffraction
;
loop_
_citation_id
_citation_journal_full
_citation_year
_citation_journal_volume
_citation_page_first
_citation_page_last
_citation_journal_id_ASTM
primary 'Inorganic Chemistry' 2005 44 3485 3493 INOCAJ
loop_
_publ_author_name
'Berg, R.W.'
'Thorup, N.'
_cell_length_a 8.648(3)
_cell_length_b 10.323(3)
_cell_length_c 15.103(5)
_cell_angle_alpha 90.
_cell_angle_beta 90.879(6)
_cell_angle_gamma 90.
_cell_volume 1348.14
_cell_formula_units_Z 8
_symmetry_space_group_name_H-M 'P 1 2/n 1'
_symmetry_Int_Tables_number 13
_refine_ls_R_factor_all 0.0758
loop_
_symmetry_equiv_pos_site_id
_symmetry_equiv_pos_as_xyz
1 'x+1/2, -y, z+1/2'
2 '-x+1/2, y, -z+1/2'
3 '-x, -y, -z'
4 'x, y, z'
loop_
_atom_type_symbol
_atom_type_oxidation_number
Zn2+ 2
S6+ 6
Na1+ 1
O2- -2
loop_
_atom_site_label
_atom_site_type_symbol
_atom_site_symmetry_multiplicity
_atom_site_Wyckoff_symbol
_atom_site_fract_x
_atom_site_fract_y
_atom_site_fract_z
_atom_site_B_iso_or_equiv
_atom_site_occupancy
_atom_site_attached_hydrogens
Zn1 Zn2+ 4 g 0.58357(6) 0.61983(5) 0.12303(3) 0.01704(16) 1 0
Zn2 Zn2+ 4 g 1.07368(6) 0.87539(5) 0.12374(3) 0.01721(17) 1 0
S1 S6+ 4 g 0.92734(13) 0.60864(11) 0.15714(7) 0.0139(3) 1 0
S2 S6+ 4 g 0.92296(13) 1.12960(11) 0.09012(7) 0.0160(3) 1 0
S3 S6+ 4 g 0.43586(13) 0.88941(11) 0.15759(7) 0.0141(3) 1 0
S4 S6+ 4 g 0.43670(13) 0.37216(11) 0.09497(7) 0.0156(3) 1 0
Na1 Na1+ 2 e 0.25 0.1589(3) 0.25 0.0301(7) 1 0
Na2 Na1+ 4 g 0.8023(2) 0.39753(18) -0.01361(12) 0.0252(5) 1 0
Na3 Na1+ 2 e 1.25 0.5798(3) 0.25 0.0286(7) 1 0
Na4 Na1+ 4 g 0.3021(2) 0.10596(19) 0.01832(13) 0.0306(5) 1 0
Na5 Na1+ 2 f 0.75 1.0048(3) 0.25 0.0357(8) 1 0
Na6 Na1+ 2 f 0.75 0.3458(3) 0.25 0.0491(10) 1 0
O1 O2- 4 g 0.7947(4) 0.6968(3) 0.1471(2) 0.0216(8) 1 0
O2 O2- 4 g 0.5726(4) 0.5452(3) 0.2555(2) 0.0201(8) 1 0
O3 O2- 4 g 0.9287(4) 0.5127(3) 0.0885(2) 0.0293(9) 1 0
O4 O2- 4 g 1.0698(3) 0.6873(3) 0.1523(2) 0.0162(7) 1 0
O5 O2- 4 g 0.8991(4) 0.9850(3) 0.0856(2) 0.0198(7) 1 0
O6 O2- 4 g 0.8280(4) 1.1802(3) 0.1595(2) 0.0230(8) 1 0
O7 O2- 4 g 1.0851(4) 1.1552(3) 0.1054(2) 0.0261(8) 1 0
O8 O2- 4 g 1.1289(4) 0.8177(3) -0.0035(2) 0.0274(9) 1 0
O9 O2- 4 g 0.4154(4) 0.7475(3) 0.1486(2) 0.0206(8) 1 0
O10 O2- 4 g 1.2830(4) 0.9494(3) 0.1473(2) 0.0291(9) 1 0
O11 O2- 4 g 0.5382(4) 0.9405(3) 0.0933(2) 0.0327(9) 1 0
O12 O2- 4 g 1.0037(4) 0.9209(3) 0.2541(2) 0.0296(9) 1 0
O13 O2- 4 g 0.6010(4) 0.6799(3) -0.0067(2) 0.0248(8) 1 0
O14 O2- 4 g 0.5967(4) 0.4268(3) 0.0929(2) 0.0230(8) 1 0
O15 O2- 4 g 0.3350(4) 0.4800(3) 0.1158(2) 0.0269(9) 1 0
O16 O2- 4 g 0.4268(4) 0.2705(3) 0.1591(2) 0.0284(9) 1 0
loop_
_atom_site_aniso_label
_atom_site_aniso_type_symbol
_atom_site_aniso_U_11
_atom_site_aniso_U_22
_atom_site_aniso_U_33
_atom_site_aniso_U_12
_atom_site_aniso_U_13
_atom_site_aniso_U_23
Zn1 Zn2+ 0.0170(3) 0.0164(3) 0.0177(3) 0.0012(2) 0.0006(2) -0.0030(2)
Zn2 Zn2+ 0.0181(3) 0.0156(3) 0.0179(3) 0.0021(2) -0.0006(2) 0.0009(2)
S1 S6+ 0.0136(6) 0.0163(7) 0.0117(6) -0.0026(5) 0.0009(5) 0.0002(5)
S2 S6+ 0.0189(7) 0.0159(7) 0.0134(6) 0.0047(5) 0.0029(5) 0.0004(5)
S3 S6+ 0.0138(6) 0.0148(6) 0.0140(6) 0.0007(5) 0.0033(5) 0.0012(5)
S4 S6+ 0.0211(7) 0.0130(6) 0.0126(6) -0.0011(5) 0.0006(5) 0.0004(5)
Na1 Na1+ 0.0393(18) 0.0290(17) 0.0223(16) 0. 0.0126(14) 0.
Na2 Na1+ 0.0317(12) 0.0243(12) 0.0196(10) 0.0086(9) 0.0000(9) -0.0032(8)
Na3 Na1+ 0.0258(16) 0.0406(19) 0.0194(15) 0. -0.0008(13) 0.
Na4 Na1+ 0.0348(12) 0.0275(12) 0.0299(11) -0.0067(9) 0.0168(10) -0.0057(9)
Na5 Na1+ 0.0245(17) 0.0322(19) 0.051(2) 0. 0.0145(15) 0.
Na6 Na1+ 0.091(3) 0.0189(18) 0.0379(19) 0. 0.0305(19) 0.
O1 O2- 0.0161(18) 0.025(2) 0.0241(19) 0.0028(14) -0.0013(15) 0.0063(15)
O2 O2- 0.026(2) 0.0184(19) 0.0159(17) -0.0014(14) 0.0057(15) -0.0048(13)
O3 O2- 0.037(2) 0.029(2) 0.0213(19) -0.0044(17) 0.0019(17) -0.0110(15)
O4 O2- 0.0128(17) 0.0137(18) 0.0221(17) -0.0018(13) 0.0038(14) 0.0027(14)
O5 O2- 0.0235(18) 0.0153(18) 0.0206(18) 0.0035(14) 0.0011(15) 0.0009(14)
O6 O2- 0.028(2) 0.025(2) 0.0170(17) 0.0076(15) 0.0071(15) -0.0036(15)
O7 O2- 0.0203(19) 0.028(2) 0.030(2) -0.0011(15) 0.0040(16) 0.0000(16)
O8 O2- 0.041(2) 0.027(2) 0.0143(18) 0.0164(16) 0.0019(17) 0.0022(15)
O9 O2- 0.021(2) 0.0147(19) 0.0256(18) 0.0000(14) 0.0035(15) 0.0023(14)
O10 O2- 0.024(2) 0.021(2) 0.043(2) 0.0043(15) -0.0070(17) -0.0004(16)
O11 O2- 0.038(2) 0.026(2) 0.035(2) -0.0072(17) 0.0239(18) -0.0019(17)
O12 O2- 0.040(2) 0.033(2) 0.0162(18) 0.0135(18) -0.0068(17) 0.0001(16)
O13 O2- 0.038(2) 0.022(2) 0.0144(18) -0.0075(16) -0.0003(16) -0.0046(14)
O14 O2- 0.0214(19) 0.0220(19) 0.0256(19) -0.0060(15) 0.0061(15) -0.0070(15)
O15 O2- 0.029(2) 0.026(2) 0.025(2) 0.0099(16) -0.0033(16) -0.0054(15)
O16 O2- 0.038(2) 0.023(2) 0.025(2) -0.0008(17) 0.0065(18) 0.0093(16)
#End of TTdata_170139-ICSD