
#(C) 2019 by FIZ Karlsruhe - Leibniz Institute for Information Infrastructure.  All rights reserved.
data_170622-ICSD
_database_code_ICSD 170622
_audit_creation_date 2006-04-01
_chemical_name_systematic
'Calcium sodium aluminium boron oxide (0.05/1.90/2/2/7)'
_chemical_formula_structural 'Ca0.05 Na1.90 Al2 B2 O7'
_chemical_formula_sum 'Al2 B2 Ca0.05 Na1.9 O7'
_exptl_crystal_density_diffrn 2.52
_publ_section_title
'Ca(1-x) Na(2x) Al2 B2 O7: a structure with tunable density of Na(+) vacancies'
loop_
_citation_id
_citation_journal_full
_citation_year
_citation_journal_volume
_citation_page_first
_citation_page_last
_citation_journal_id_ASTM
primary 'Inorganic Chemistry' 2005 44 4421 4426 INOCAJ
loop_
_publ_author_name
'He, M.'
'Okudera, H.'
'Simon, A.'
_cell_length_a 4.8138(7)
_cell_length_b 4.8138(7)
_cell_length_c 15.301(3)
_cell_angle_alpha 90.
_cell_angle_beta 90.
_cell_angle_gamma 120.
_cell_volume 307.06
_cell_formula_units_Z 2
_symmetry_space_group_name_H-M 'P 63/m'
_symmetry_Int_Tables_number 176
_refine_ls_R_factor_all 0.0497
loop_
_symmetry_equiv_pos_site_id
_symmetry_equiv_pos_as_xyz
1 '-x+y, -x, -z+1/2'
2 '-y, x-y, -z+1/2'
3 'x, y, -z+1/2'
4 'x-y, x, -z'
5 'y, -x+y, -z'
6 '-x, -y, -z'
7 'x-y, x, z+1/2'
8 'y, -x+y, z+1/2'
9 '-x, -y, z+1/2'
10 '-x+y, -x, z'
11 '-y, x-y, z'
12 'x, y, z'
loop_
_atom_type_symbol
_atom_type_oxidation_number
Ca2+ 2
Na1+ 1
Al3+ 3
B3+ 3
O2- -2
Na1+ 1
loop_
_atom_site_label
_atom_site_type_symbol
_atom_site_symmetry_multiplicity
_atom_site_Wyckoff_symbol
_atom_site_fract_x
_atom_site_fract_y
_atom_site_fract_z
_atom_site_B_iso_or_equiv
_atom_site_occupancy
_atom_site_attached_hydrogens
Ca1 Ca2+ 2 b 0. 0. 0.5 0.0179(12) 0.051(13) 0
Na1 Na1+ 2 b 0. 0. 0.5 0.0179(12) 0.953(18) 0
Al1 Al3+ 4 f 0.3333 0.6667 0.35972(11) 0.0139(5) 1 0
B1 B3+ 4 f 0.6667 0.3333 0.3954(5) 0.0221(15) 1 0
O1 O2- 12 i 0.4043(16) 0.3701(16) 0.4113(8) 0.016(2) 0.48(3) 0
O2 O2- 12 i 0.3932(14) 0.3521(15) 0.3812(7) 0.014(2) 0.52(3) 0
O3 O2- 6 h 0.34(2) 0.589(17) 0.25 0.034(7) 0.33 0
Na2 Na1+ 2 a 0. 0. 0.25 0.0413(17) 0.953(18) 0
loop_
_atom_site_aniso_label
_atom_site_aniso_type_symbol
_atom_site_aniso_U_11
_atom_site_aniso_U_22
_atom_site_aniso_U_33
_atom_site_aniso_U_12
_atom_site_aniso_U_13
_atom_site_aniso_U_23
Ca1 Ca2+ 0.0162(13) 0.0162(13) 0.0214(17) 0.0081(7) 0. 0.
Na1 Na1+ 0.0162(13) 0.0162(13) 0.0214(17) 0.0081(7) 0. 0.
Al1 Al3+ 0.0124(6) 0.0124(6) 0.0170(8) 0.0062(3) 0. 0.
B1 B3+ 0.013(2) 0.013(2) 0.041(4) 0.0064(10) 0. 0.
O3 O2- 0.036(8) 0.05(4) 0.022(4) 0.02(3) 0. 0.
Na2 Na1+ 0.038(2) 0.038(2) 0.048(3) 0.0190(10) 0. 0.
#End of TTdata_170622-ICSD