
#(C) 2019 by FIZ Karlsruhe - Leibniz Institute for Information Infrastructure.  All rights reserved.
data_170637-ICSD
_database_code_ICSD 170637
_audit_creation_date 2006-04-01
_chemical_name_systematic 'Disodium dicopper tellurate'
_chemical_formula_structural 'Na2 Cu2 Te O6'
_chemical_formula_sum 'Cu2 Na2 O6 Te1'
_exptl_crystal_density_diffrn 4.9
_cell_measurement_temperature 200.
_publ_section_title

;
Synthesis, structure, and magnetic properties of the layered copper(II) oxide
Na2 Cu2 Te O6
;
loop_
_citation_id
_citation_journal_full
_citation_year
_citation_journal_volume
_citation_page_first
_citation_page_last
_citation_journal_id_ASTM
primary 'Inorganic Chemistry' 2005 44 5042 5046 INOCAJ
loop_
_publ_author_name
'Xu, J.'
'Assoud, A.'
'Soheilnia, N.'
'Derakhshan, S.'
'Cuthbert, H.L.'
'Greedan, J.E.'
'Whangbo Myunghwan'
'Kleinke, H.'
_cell_length_a 5.7059(6)
_cell_length_b 8.6751(9)
_cell_length_c 5.9380(6)
_cell_angle_alpha 90.
_cell_angle_beta 113.740(2)
_cell_angle_gamma 90.
_cell_volume 269.06
_cell_formula_units_Z 2
_symmetry_space_group_name_H-M 'C 1 2/m 1'
_symmetry_Int_Tables_number 12
_refine_ls_R_factor_all 0.0314
loop_
_symmetry_equiv_pos_site_id
_symmetry_equiv_pos_as_xyz
1 '-x, y, -z'
2 '-x, -y, -z'
3 'x, -y, z'
4 'x, y, z'
5 '-x+1/2, y+1/2, -z'
6 '-x+1/2, -y+1/2, -z'
7 'x+1/2, -y+1/2, z'
8 'x+1/2, y+1/2, z'
loop_
_atom_type_symbol
_atom_type_oxidation_number
Te6+ 6
Cu2+ 2
Na1+ 1
O2- -2
loop_
_atom_site_label
_atom_site_type_symbol
_atom_site_symmetry_multiplicity
_atom_site_Wyckoff_symbol
_atom_site_fract_x
_atom_site_fract_y
_atom_site_fract_z
_atom_site_B_iso_or_equiv
_atom_site_occupancy
_atom_site_attached_hydrogens
Te1 Te6+ 2 a 0. 0. 0. 0.00490(14) 1 0
Cu1 Cu2+ 4 g 0. 0.66475(4) 0. 0.00694(16) 1 0
Na1 Na1+ 4 h 0. 0.18392(17) 0.5 0.0111(3) 1 0
O1 O2- 8 j 0.1936(5) 0.16320(15) 0.2121(5) 0.0076(4) 1 0
O2 O2- 4 i 0.7574(5) 0. 0.1640(5) 0.0078(4) 1 0
loop_
_atom_site_aniso_label
_atom_site_aniso_type_symbol
_atom_site_aniso_U_11
_atom_site_aniso_U_22
_atom_site_aniso_U_33
_atom_site_aniso_U_12
_atom_site_aniso_U_13
_atom_site_aniso_U_23
Te1 Te6+ 0.0034(2) 0.00384(19) 0.0078(2) 0. 0.00265(13) 0.
Cu1 Cu2+ 0.0052(3) 0.0039(3) 0.0109(3) 0. 0.0024(2) 0.
Na1 Na1+ 0.0086(8) 0.0131(7) 0.0116(8) 0. 0.0040(7) 0.
O1 O2- 0.0060(10) 0.0051(8) 0.0098(9) -0.0012(4) 0.0013(7) -0.0011(4)
O2 O2- 0.0054(11) 0.0059(9) 0.0123(11) 0. 0.0037(9) 0.
#End of TTdata_170637-ICSD