
#(C) 2018 by FIZ Karlsruhe - Leibniz Institute for Information Infrastructure.  All rights reserved.
data_170783-ICSD
_database_code_ICSD 170783
_audit_creation_date 2006-04-01
_chemical_name_systematic 'Sodium lithium decavanadate eicosahydrate'
_chemical_formula_structural 'Na5.22 Li0.78 (V10 O28) (H2 O)20'
_chemical_formula_sum 'H40 Li0.78 Na5.22 O48 V10'
_exptl_crystal_density_diffrn 2.26
_cell_measurement_temperature 298.
_publ_section_title

;
Sel mixte de lithium et de sodium eicosahydrate, Na5.22 Li0.78 [V10 O28].20H2
O
;
loop_
_citation_id
_citation_journal_full
_citation_year
_citation_journal_volume
_citation_page_first
_citation_page_last
_citation_journal_id_ASTM
primary 'Acta Crystallographica, Section E: Structure Reports Online' 2005 61
i177 i179 ACSEBH
loop_
_publ_author_name
'Ksiksi, R.'
'Graia, M.'
'Jouini, T.'
_cell_length_a 12.524(3)
_cell_length_b 13.027(2)
_cell_length_c 13.008(4)
_cell_angle_alpha 90.
_cell_angle_beta 90.47(2)
_cell_angle_gamma 90.
_cell_volume 2122.19
_cell_formula_units_Z 2
_symmetry_space_group_name_H-M 'P 1 21/n 1'
_symmetry_Int_Tables_number 14
_refine_ls_R_factor_all 0.0385
loop_
_symmetry_equiv_pos_site_id
_symmetry_equiv_pos_as_xyz
1 '-x+1/2, y+1/2, -z+1/2'
2 '-x, -y, -z'
3 'x+1/2, -y+1/2, z+1/2'
4 'x, y, z'
loop_
_atom_type_symbol
_atom_type_oxidation_number
V5+ 5
Na1+ 1
Li1+ 1
O2- -2
H1+ 1
O2- -2
H1+ 1
O2- -2
H1+ 1
O2- -2
H1+ 1
O2- -2
H1+ 1
O2- -2
H1+ 1
O2- -2
H1+ 1
O2- -2
H1+ 1
O2- -2
H1+ 1
O2- -2
H1+ 1
loop_
_atom_site_label
_atom_site_type_symbol
_atom_site_symmetry_multiplicity
_atom_site_Wyckoff_symbol
_atom_site_fract_x
_atom_site_fract_y
_atom_site_fract_z
_atom_site_B_iso_or_equiv
_atom_site_occupancy
_atom_site_attached_hydrogens
V1 V5+ 4 e 0.42158(4) -0.15258(3) 0.11976(3) 0.02156(11) 1 0
V2 V5+ 4 e 0.24441(4) -0.09386(3) -0.04134(3) 0.02134(11) 1 0
V3 V5+ 4 e 0.34029(4) 0.12493(3) -0.06665(3) 0.02080(11) 1 0
V4 V5+ 4 e 0.48281(3) -0.07326(3) -0.10242(3) 0.01661(10) 1 0
V5 V5+ 4 e 0.27781(4) 0.04097(3) 0.14956(3) 0.02403(12) 1 0
Na1 Na1+ 4 e -0.09394(10) 0.97751(9) 0.40411(8) 0.0384(3) 1 0
Na2 Na1+ 4 e 0.13868(10) 0.49883(9) -0.02474(8) 0.0367(3) 1 0
Na3 Na1+ 4 e -0.0247(8) 0.8932(9) 0.1668(9) 0.094(7) 0.39 0
Na4 Na1+ 4 e 0.0203(13) 0.9012(18) 0.1602(15) 0.044(3) 0.22 0
Li1 Li1+ 4 e -0.073(2) 0.895(3) 0.1684(18) 0.031(5) 0.39 0
O1 O2- 4 e 0.04934(17) 0.24791(14) 0.31273(15) 0.0350(5) 1 0
O2 O2- 4 e -0.14802(16) 0.15588(14) 0.09819(14) 0.0306(4) 1 0
O3 O2- 4 e -0.18835(17) 0.27526(13) 0.36428(14) 0.0325(5) 1 0
O4 O2- 4 e 0.20654(17) 0.08346(16) 0.24300(14) 0.0372(5) 1 0
O5 O2- 4 e 0.16346(15) 0.42218(14) 0.29324(12) 0.0261(4) 1 0
O6 O2- 4 e -0.36765(15) 0.12961(12) 0.14265(12) 0.0228(4) 1 0
O7 O2- 4 e 0.27039(15) 0.15004(13) 0.05364(13) 0.0252(4) 1 0
O8 O2- 4 e 0.42154(15) 0.10633(13) 0.18879(12) 0.0242(4) 1 0
O9 O2- 4 e 0.18295(15) -0.03462(13) 0.07053(12) 0.0243(4) 1 0
O10 O2- 4 e -0.24414(15) -0.03021(13) 0.11475(12) 0.0232(4) 1 0
O11 O2- 4 e 0.19109(15) 0.30391(12) 0.46088(13) 0.0240(4) 1 0
O12 O2- 4 e 0.47894(14) 0.17232(12) -0.00127(12) 0.0199(4) 1 0
O13 O2- 4 e -0.04601(14) 0.43836(12) 0.34418(11) 0.0195(4) 1 0
O14 O2- 4 e 0.39605(14) -0.01129(11) 0.02231(11) 0.0173(3) 1 0
O15 O2- 4 e -0.2487(2) 0.06819(16) 0.34070(15) 0.0358(5) 1 0
H1 H1+ 4 e -0.229(3) 0.125(2) 0.347(3) 0.054 1 0
H2 H1+ 4 e -0.284(3) 0.058(3) 0.291(2) 0.054 1 0
O16 O2- 4 e 0.2069(2) 0.09306(15) 0.46539(15) 0.0342(5) 1 0
H3 H1+ 4 e 0.205(3) 0.081(3) 0.404(2) 0.051 1 0
H4 H1+ 4 e 0.214(3) 0.151(2) 0.471(3) 0.051 1 0
O17 O2- 4 e -0.0163(3) 0.4075(2) -0.08858(18) 0.0558(7) 1 0
H5 H1+ 4 e -0.037(3) 0.411(3) -0.146(2) 0.067 1 0
H6 H1+ 4 e -0.003(4) 0.358(3) -0.063(3) 0.084 1 0
O18 O2- 4 e 0.44029(19) 0.38890(16) 0.03191(18) 0.0377(5) 1 0
H7 H1+ 4 e 0.386(3) 0.388(3) 0.060(3) 0.057 1 0
H8 H1+ 4 e 0.457(3) 0.333(2) 0.016(3) 0.057 1 0
O19 O2- 4 e -0.3678(2) 0.33742(19) 0.2150(2) 0.0597(8) 1 0
H9 H1+ 4 e -0.380(4) 0.280(3) 0.201(3) 0.09 1 0
H10 H1+ 4 e -0.302(3) 0.345(4) 0.203(4) 0.09 1 0
O20 O2- 4 e -0.0168(2) 0.0391(2) 0.2444(2) 0.0514(6) 1 0
H11 H1+ 4 e -0.063(3) 0.076(3) 0.221(3) 0.077 1 0
H12 H1+ 4 e 0.034(3) 0.070(3) 0.256(3) 0.077 1 0
O21 O2- 4 e 0.166(3) 0.366(3) 0.076(2) 0.081(11) 0.16 0
O22 O2- 4 e 0.2153(4) 0.3674(4) 0.0904(4) 0.0390(10) 0.84 0
H13 H1+ 4 e 0.213(4) 0.309(2) 0.076(3) 0.058 1 0
H14 H1+ 4 e 0.192(3) 0.378(3) 0.144(2) 0.058 1 0
O23 O2- 4 e 0.0466(2) 0.1736(4) -0.0232(3) 0.0902(12) 1 0
H15 H1+ 4 e 0.101(3) 0.163(5) 0.009(4) 0.135 1 0
H16 H1+ 4 e -0.008(3) 0.168(5) 0.015(4) 0.135 1 0
O24 O2- 4 e 0.3829(3) 0.2984(3) 0.2874(3) 0.1007(13) 1 0
H17 H1+ 4 e 0.375(5) 0.239(3) 0.261(5) 0.151 1 0
H18 H1+ 4 e 0.333(5) 0.328(4) 0.257(5) 0.151 1 0
O25 O2- 4 e -0.1075(3) 0.37171(18) 0.14504(19) 0.0683(10) 1 0
H19 H1+ 4 e -0.077(4) 0.392(4) 0.192(3) 0.103 1 0
H20 H1+ 4 e -0.117(4) 0.313(3) 0.139(4) 0.103 1 0
loop_
_atom_site_aniso_label
_atom_site_aniso_type_symbol
_atom_site_aniso_U_11
_atom_site_aniso_U_22
_atom_site_aniso_U_33
_atom_site_aniso_U_12
_atom_site_aniso_U_13
_atom_site_aniso_U_23
V1 V5+ 0.0225(3) 0.0191(2) 0.02305(19) -0.00247(19) 0.00100(18) 0.00619(15)
V2 V5+ 0.0200(2) 0.0211(2) 0.0229(2) -0.00341(19) -0.00110(17) -0.00186(15)
V3 V5+ 0.0206(2) 0.01646(19) 0.0253(2) 0.00233(18) -0.00162(18) 0.00252(15)
V4 V5+ 0.0192(2) 0.01552(18) 0.01508(17) -0.00011(17) 0.00041(16) -0.00257(13)
V5 V5+ 0.0214(3) 0.0289(2) 0.0219(2) -0.0006(2) 0.00551(18) -0.00574(16)
Na1 Na1+ 0.0408(8) 0.0377(6) 0.0366(6) 0.0040(6) -0.0003(5) 0.0038(5)
Na2 Na1+ 0.0358(7) 0.0419(6) 0.0324(5) -0.0031(6) -0.0014(5) -0.0018(5)
Na3 Na1+ 0.161(19) 0.047(5) 0.073(5) 0.020(12) 0.044(10) -0.010(4)
Na4 Na1+ 0.035(5) 0.044(5) 0.053(6) 0.002(4) 0.014(5) 0.000(4)
Li1 Li1+ 0.019(9) 0.055(12) 0.019(7) 0.022(8) 0.003(6) 0.003(7)
O1 O2- 0.0352(12) 0.0285(9) 0.0414(10) 0.0026(9) -0.0032(9) -0.0171(8)
O2 O2- 0.0279(11) 0.0280(9) 0.0357(9) -0.0063(9) -0.0052(9) -0.0034(8)
O3 O2- 0.0329(12) 0.0228(9) 0.0419(10) -0.0041(9) -0.0085(9) -0.0079(8)
O4 O2- 0.0299(12) 0.0506(12) 0.0312(9) 0.0016(11) 0.0087(9) -0.0124(9)
O5 O2- 0.0255(10) 0.0319(9) 0.0209(8) 0.0034(9) 0.0039(8) -0.0037(7)
O6 O2- 0.0241(10) 0.0217(8) 0.0225(8) -0.0011(8) -0.0015(7) -0.0043(6)
O7 O2- 0.0228(10) 0.0225(8) 0.0303(9) 0.0035(8) 0.0024(8) -0.0040(7)
O8 O2- 0.0252(10) 0.0261(9) 0.0212(8) 0.0009(8) 0.0021(7) -0.0071(7)
O9 O2- 0.0197(10) 0.0270(9) 0.0264(8) -0.0008(8) 0.0039(8) -0.0012(7)
O10 O2- 0.0215(10) 0.0220(8) 0.0261(8) -0.0001(8) -0.0044(8) 0.0000(7)
O11 O2- 0.0236(10) 0.0182(8) 0.0300(9) 0.0030(8) -0.0014(8) -0.0029(7)
O12 O2- 0.0219(10) 0.0142(7) 0.0235(8) 0.0011(7) -0.0006(7) -0.0015(6)
O13 O2- 0.0233(10) 0.0194(8) 0.0158(7) 0.0002(8) -0.0011(7) -0.0031(6)
O14 O2- 0.0196(9) 0.0152(7) 0.0170(7) 0.0001(7) 0.0016(7) -0.0004(6)
O15 O2- 0.0466(15) 0.0302(10) 0.0305(10) -0.0080(11) -0.0085(10) 0.0042(8)
O16 O2- 0.0501(14) 0.0241(9) 0.0285(9) 0.0039(10) -0.0011(10) 0.0011(8)
O17 O2- 0.0565(18) 0.0734(18) 0.0376(12) -0.0191(16) 0.0048(13) -0.0139(12)
O18 O2- 0.0358(14) 0.0264(10) 0.0509(13) -0.0004(10) 0.0038(10) -0.0068(9)
O19 O2- 0.0607(19) 0.0311(12) 0.0867(19) 0.0030(14) -0.0370(17) -0.0084(12)
O20 O2- 0.0326(14) 0.0581(16) 0.0634(15) -0.0123(12) -0.0059(13) 0.0192(12)
O21 O2- 0.11(3) 0.10(2) 0.030(11) 0.05(2) 0.009(17) 0.011(11)
O22 O2- 0.057(3) 0.0326(16) 0.0275(18) 0.0027(19) 0.0065(19) -0.0017(13)
O23 O2- 0.0348(17) 0.136(3) 0.100(3) 0.010(2) 0.0187(17) 0.039(2)
O24 O2- 0.086(3) 0.077(2) 0.139(3) 0.020(2) 0.010(2) -0.064(2)
O25 O2- 0.124(3) 0.0354(12) 0.0446(13) 0.0017(17) -0.0364(16) -0.0016(11)
#End of TTdata_170783-ICSD