
#(C) 2019 by FIZ Karlsruhe - Leibniz Institute for Information Infrastructure.  All rights reserved.
data_170786-ICSD
_database_code_ICSD 170786
_audit_creation_date 2006-04-01
_chemical_name_systematic 'Potassium sodium phyllosilicate (1.33/0.67/2/5)'
_chemical_formula_structural 'K1.33 Na0.67 Si2 O5'
_chemical_formula_sum 'K1.33 Na0.67 O5 Si2'
_exptl_crystal_density_diffrn 2.55
_cell_measurement_temperature 150.
_publ_section_title 'Potassium sodium phyllosilicate, K1.33 Na0.67 Si2 O5'
loop_
_citation_id
_citation_journal_full
_citation_year
_citation_journal_volume
_citation_page_first
_citation_page_last
_citation_journal_id_ASTM
primary 'Acta Crystallographica, Section E: Structure Reports Online' 2005 61
i188 i190 ACSEBH
loop_
_publ_author_name
'Spek, A.L.'
'de Jong, B.H.W.S.'
_cell_length_a 19.6816(15)
_cell_length_b 7.2656(6)
_cell_length_c 12.5710(15)
_cell_angle_alpha 90
_cell_angle_beta 117.820(10)
_cell_angle_gamma 90
_cell_volume 1589.86
_cell_formula_units_Z 12
_symmetry_space_group_name_H-M 'C 1 2/c 1'
_symmetry_Int_Tables_number 15
_refine_ls_R_factor_all 0.0633
loop_
_symmetry_equiv_pos_site_id
_symmetry_equiv_pos_as_xyz
1 'x, -y, z+1/2'
2 '-x, -y, -z'
3 '-x, y, -z+1/2'
4 'x, y, z'
5 'x+1/2, -y+1/2, z+1/2'
6 '-x+1/2, -y+1/2, -z'
7 '-x+1/2, y+1/2, -z+1/2'
8 'x+1/2, y+1/2, z'
loop_
_atom_type_symbol
_atom_type_oxidation_number
Si4+ 4
O2- -2
K1+ 1
Na1+ 1
loop_
_atom_site_label
_atom_site_type_symbol
_atom_site_symmetry_multiplicity
_atom_site_Wyckoff_symbol
_atom_site_fract_x
_atom_site_fract_y
_atom_site_fract_z
_atom_site_B_iso_or_equiv
_atom_site_occupancy
_atom_site_attached_hydrogens
Si1 Si4+ 8 f 0.15093(8) 0.3950(2) 0.00188(12) 0.0083(4) 1. 0
Si2 Si4+ 8 f 0.06654(8) 0.7460(2) -0.11486(12) 0.0085(4) 1. 0
Si3 Si4+ 8 f 0.32560(8) 0.4508(2) 0.11444(14) 0.0131(4) 1. 0
O1 O2- 8 f 0.1430(2) 0.3936(6) 0.1196(3) 0.0219(12) 1. 0
O2 O2- 8 f 0.2340(2) 0.4647(5) 0.0170(3) 0.0162(12) 1. 0
O3 O2- 8 f 0.1349(2) 0.1899(6) -0.0584(4) 0.0181(12) 1. 0
O4 O2- 8 f 0.0870(2) 0.5250(5) -0.1061(3) 0.0114(10) 1. 0
O5 O2- 8 f 0.0425(3) 0.8137(6) -0.0203(4) 0.0303(14) 1. 0
O6 O2- 8 f 0.1441(2) 0.8450(6) -0.1007(5) 0.0338(16) 1. 0
O7 O2- 4 e 0. 0.7746(8) -0.25 0.0305(17) 1. 0
O8 O2- 8 f 0.3418(2) 0.4068(7) 0.2448(3) 0.0311(14) 1. 0
K1 K1+ 8 f 0.06258(9) 0.6274(2) 0.16520(13) 0.0293(5) 1. 0
K2 K1+ 8 f 0.25138(8) 0.3240(2) 0.33695(11) 0.0246(4) 1. 0
Na1 Na1+ 8 f 0.08060(13) 0.0864(3) 0.09417(19) 0.0209(7) 1. 0
loop_
_atom_site_aniso_label
_atom_site_aniso_type_symbol
_atom_site_aniso_U_11
_atom_site_aniso_U_22
_atom_site_aniso_U_33
_atom_site_aniso_U_12
_atom_site_aniso_U_13
_atom_site_aniso_U_23
Si1 Si4+ 0.0097(7) 0.0067(7) 0.0070(7) -0.0008(6) 0.0027(6) 0.0011(6)
Si2 Si4+ 0.0094(7) 0.0073(7) 0.0051(7) -0.0010(6) 0.0003(6) 0.0002(6)
Si3 Si4+ 0.0097(8) 0.0075(7) 0.0180(8) -0.0008(6) 0.0030(6) -0.0026(6)
O1 O2- 0.026(2) 0.027(2) 0.015(2) 0.005(2) 0.0116(18) 0.0052(18)
O2 O2- 0.014(2) 0.012(2) 0.020(2) -0.0015(17) 0.0057(17) 0.0082(17)
O3 O2- 0.016(2) 0.011(2) 0.028(2) -0.0030(17) 0.0109(18) -0.0073(18)
O4 O2- 0.0137(19) 0.0085(18) 0.0078(17) -0.0016(16) 0.0014(15) 0.0005(15)
O5 O2- 0.060(3) 0.023(2) 0.022(2) 0.017(2) 0.031(2) 0.009(2)
O6 O2- 0.017(2) 0.010(2) 0.074(4) -0.0042(18) 0.021(2) -0.009(2)
O7 O2- 0.039(3) 0.012(3) 0.012(3) 0. -0.012(2) 0.
O8 O2- 0.018(2) 0.056(3) 0.011(2) -0.007(2) -0.0003(18) -0.008(2)
K1 K1+ 0.0291(8) 0.0260(8) 0.0241(8) -0.0036(6) 0.0052(6) 0.0052(6)
K2 K1+ 0.0325(8) 0.0325(8) 0.0125(6) 0.0087(6) 0.0136(6) 0.0084(6)
Na1 Na1+ 0.0224(13) 0.0163(12) 0.0138(11) -0.0039(10) 0.0000(9) 0.0042(9)
#End of TTdata_170786-ICSD