
#(C) 2019 by FIZ Karlsruhe - Leibniz Institute for Information Infrastructure.  All rights reserved.
data_170706-ICSD
_database_code_ICSD 170706
_audit_creation_date 2006-04-01
_chemical_name_systematic 'Sodium tetracalcium trivanadiun dodecaoxide'
_chemical_formula_structural 'Na Ca4 (V O4)3'
_chemical_formula_sum 'Ca4 Na1 O12 V3'
_chemical_name_structure_type Ca5(PO4)2SiO4
_exptl_crystal_density_diffrn 3.12
_cell_measurement_temperature 295.
_publ_section_title 'Sodium calcium orthovanadate, Na Ca4 (V O4)3'
loop_
_citation_id
_citation_journal_full
_citation_year
_citation_journal_volume
_citation_page_first
_citation_page_last
_citation_journal_id_ASTM
primary 'Acta Crystallographica, Section C: Crystal Structure Communications'
2005 61 i79 i80 ACSCEE
loop_
_publ_author_name
'Yahia, H.B.'
'Gaudin, E.'
'Darriet, J.'
_cell_length_a 6.7703(10)
_cell_length_b 16.0954(11)
_cell_length_c 10.3136(5)
_cell_angle_alpha 90
_cell_angle_beta 90
_cell_angle_gamma 90
_cell_volume 1123.88
_cell_formula_units_Z 4
_symmetry_space_group_name_H-M 'P n m a'
_symmetry_Int_Tables_number 62
_refine_ls_R_factor_all 0.0543
loop_
_symmetry_equiv_pos_site_id
_symmetry_equiv_pos_as_xyz
1 'x+1/2, y, -z+1/2'
2 'x, -y+1/2, z'
3 '-x+1/2, y+1/2, z+1/2'
4 '-x, -y, -z'
5 '-x+1/2, -y, z+1/2'
6 '-x, y+1/2, -z'
7 'x+1/2, -y+1/2, -z+1/2'
8 'x, y, z'
loop_
_atom_type_symbol
_atom_type_oxidation_number
Ca2+ 2
Na1+ 1
Ca2+ 2
Na1+ 1
Ca2+ 2
Na1+ 1
V5+ 5
O2- -2
loop_
_atom_site_label
_atom_site_type_symbol
_atom_site_symmetry_multiplicity
_atom_site_Wyckoff_symbol
_atom_site_fract_x
_atom_site_fract_y
_atom_site_fract_z
_atom_site_B_iso_or_equiv
_atom_site_occupancy
_atom_site_attached_hydrogens
Ca1 Ca2+ 8 d 0.37639(7) 0.09230(3) 0.06696(4) 0.01321(15) 0.765(7) 0
Na1 Na1+ 8 d 0.37639(7) 0.09230(3) 0.06696(4) 0.01321(15) 0.235(7) 0
Ca2 Ca2+ 4 c 0.04490(11) 0.25 0.17790(8) 0.0215(3) 0.878(12) 0
Na2 Na1+ 4 c 0.04490(11) 0.25 0.17790(8) 0.0215(3) 0.122(12) 0
Ca3 Ca2+ 8 d 0.31152(8) 0.10699(3) 0.67177(4) 0.01493(15) 0.796(9) 0
Na3 Na1+ 8 d 0.31152(8) 0.10699(3) 0.67177(4) 0.01493(15) 0.204(9) 0
V1 V5+ 8 d 0.35932(5) 0.07258(2) 0.37321(3) 0.00824(8) 1 0
V2 V5+ 4 c 0.02550(8) 0.25 0.57421(4) 0.01112(12) 1 0
O1 O2- 4 c 0.2740(4) 0.25 0.5762(3) 0.0254(7) 1 0
O2 O2- 8 d 0.1881(2) 0.04082(9) 0.48481(13) 0.0117(3) 1 0
O3 O2- 8 d 0.2689(3) 0.15011(10) 0.27731(15) 0.0161(4) 1 0
O4 O2- 8 d 0.5435(2) 0.11710(11) 0.46136(16) 0.0175(4) 1 0
O5 O2- 8 d 0.4327(3) -0.00606(11) 0.27284(16) 0.0196(4) 1 0
O6 O2- 8 d -0.0449(3) 0.15894(10) 0.64634(15) 0.0194(4) 1 0
O7 O2- 4 c -0.0736(4) 0.25 0.4219(2) 0.0206(6) 1 0
loop_
_atom_site_aniso_label
_atom_site_aniso_type_symbol
_atom_site_aniso_U_11
_atom_site_aniso_U_22
_atom_site_aniso_U_33
_atom_site_aniso_U_12
_atom_site_aniso_U_13
_atom_site_aniso_U_23
Ca1 Ca2+ 0.0120(3) 0.0123(3) 0.0154(3) 0.00096(15) 0.00299(15) -0.00030(16)
Na1 Na1+ 0.0120(3) 0.0123(3) 0.0154(3) 0.00096(15) 0.00299(15) -0.00030(16)
Ca2 Ca2+ 0.0170(4) 0.0091(4) 0.0384(5) 0 -0.0023(3) 0
Na2 Na1+ 0.0170(4) 0.0091(4) 0.0384(5) 0 -0.0023(3) 0
Ca3 Ca2+ 0.0180(3) 0.0148(3) 0.0120(2) 0.00291(17) -0.00509(16) -0.00288(16)
Na3 Na1+ 0.0180(3) 0.0148(3) 0.0120(2) 0.00291(17) -0.00509(16) -0.00288(16)
V1 V5+ 0.00819(14) 0.00900(14) 0.00753(13) 0.00096(11) 0.00128(10) 0.00059(10)
V2 V5+ 0.0151(2) 0.00757(19) 0.0107(2) 0 -0.00102(16) 0
O1 O2- 0.0170(12) 0.0165(10) 0.0426(15) 0 -0.0024(10) 0
O2 O2- 0.0100(6) 0.0147(6) 0.0104(6) -0.0017(5) 0.0018(5) 0.0011(5)
O3 O2- 0.0210(8) 0.0134(6) 0.0138(6) 0.0048(6) -0.0024(6) 0.0019(5)
O4 O2- 0.0104(7) 0.0224(8) 0.0196(7) -0.0002(6) -0.0021(5) -0.0033(6)
O5 O2- 0.0241(8) 0.0190(7) 0.0157(7) 0.0066(7) 0.0043(6) -0.0035(6)
O6 O2- 0.0312(10) 0.0117(7) 0.0153(6) -0.0007(6) 0.0061(6) 0.0037(5)
O7 O2- 0.0329(14) 0.0155(10) 0.0133(9) 0 -0.0041(9) 0
#End of TTdata_170706-ICSD