
#(C) 2019 by FIZ Karlsruhe - Leibniz Institute for Information Infrastructure.  All rights reserved.
data_170750-ICSD
_database_code_ICSD 170750
_audit_creation_date 2006-04-01
_audit_update_record 2019-02-01
_chemical_name_systematic 'Disodium tetrapotassium decavanadate(V) decahydrate'
_chemical_formula_structural 'Na2 K4 (V10 O28) (H2 O)10'
_chemical_formula_sum 'H20 K4 Na2 O38 V10'
_chemical_name_structure_type K2NaV5O14(H2O)5
_exptl_crystal_density_diffrn 2.68
_publ_section_title 'Disodium tetrapotassium decavanadate(V) decahydrate'
loop_
_citation_id
_citation_journal_full
_citation_year
_citation_journal_volume
_citation_page_first
_citation_page_last
_citation_journal_id_ASTM
primary 'Acta Crystallographica, Section C: Crystal Structure Communications'
2000 56 e75 e76 ACSCEE
loop_
_publ_author_name
'Matias, P.M.'
'Pessoa, J.C.'
'Duarte, M.T.'
'Madeira, C.'
_cell_length_a 8.5893(6)
_cell_length_b 10.3543(6)
_cell_length_c 10.9893(6)
_cell_angle_alpha 69.194(5)
_cell_angle_beta 87.122(5)
_cell_angle_gamma 66.172(5)
_cell_volume 830.75
_cell_formula_units_Z 1
_symmetry_space_group_name_H-M 'P -1'
_symmetry_Int_Tables_number 2
_refine_ls_R_factor_all 0.033
loop_
_symmetry_equiv_pos_site_id
_symmetry_equiv_pos_as_xyz
1 '-x, -y, -z'
2 'x, y, z'
loop_
_atom_type_symbol
_atom_type_oxidation_number
V5+ 5
O2- -2
K1+ 1
Na1+ 1
O2- -2
H1+ 1
loop_
_atom_site_label
_atom_site_type_symbol
_atom_site_symmetry_multiplicity
_atom_site_Wyckoff_symbol
_atom_site_fract_x
_atom_site_fract_y
_atom_site_fract_z
_atom_site_B_iso_or_equiv
_atom_site_occupancy
_atom_site_attached_hydrogens
V1 V5+ 2 i .81086(4) .99951(4) .52006(3) .01349(7) 1 0
V2 V5+ 2 i 1.12315(4) .71476(4) .49940(3) .01603(8) 1 0
V3 V5+ 2 i .97440(5) .70792(4) .76604(3) .01836(8) 1 0
V4 V5+ 2 i .97047(4) 1.00558(4) .25469(3) .01601(8) 1 0
V5 V5+ 2 i 1.32986(4) .71094(4) .72355(4) .01809(8) 1 0
O1 O2- 2 i 1.1596(2) .61295(18) .41017(16) .0236(3) 1 0
O2 O2- 2 i .8942(2) .6027(2) .86523(17) .0292(4) 1 0
O3 O2- 2 i 1.0054(2) .90210(18) .16651(15) .0231(3) 1 0
O4 O2- 2 i 1.5240(2) .61032(19) .79070(17) .0271(3) 1 0
O5 O2- 2 i .93052(17) 1.12532(15) .39354(13) .0140(3) 1 0
O6 O2- 2 i .89665(17) .88038(15) .41290(14) .0148(3) 1 0
O7 O2- 2 i .81796(17) 1.11693(15) .61964(14) .0146(3) 1 0
O8 O2- 2 i .76500(18) .86770(16) .64264(14) .0176(3) 1 0
O9 O2- 2 i .62465(18) 1.12507(17) .42806(15) .0180(3) 1 0
O10 O2- 2 i 1.01890(19) .62951(16) .63169(15) .0192(3) 1 0
O11 O2- 2 i 1.32989(18) .63232(16) .59548(15) .0189(3) 1 0
O12 O2- 2 i 1.05651(19) 1.14232(17) .16503(14) .0191(3) 1 0
O13 O2- 2 i 1.20537(19) .61595(17) .82557(15) .0203(3) 1 0
O14 O2- 2 i .74827(18) 1.13821(16) .20181(14) .0185(3) 1 0
K1 K1+ 2 i 1.31538(7) .28838(6) .50606(6) .03117(12) 1 0
K2 K1+ 2 i 1.76536(12) .31748(9) .92721(7) .0624(3) 1 0
Na1 Na1+ 2 i .57073(12) .83232(11) .13120(9) .0267(2) 1 0
O15 O2- 2 i 1.2960(2) 1.0124(2) .01396(18) .0302(4) 1 0
O16 O2- 2 i .4705(2) 1.0180(2) .7446(2) .0368(4) 1 0
O17 O2- 2 i 1.1602(3) .3170(2) .7440(2) .0429(5) 1 0
O18 O2- 2 i 1.4305(3) .3230(2) .9773(2) .0427(5) 1 0
O19 O2- 2 i .5293(3) 1.3148(2) .7010(3) .0511(6) 1 0
H1 H1+ 2 i 1.229(4) 1.053(4) .064(3) .047(10) 1 0
H2 H1+ 2 i 1.230(4) 1.012(5) -.042(3) .067(13) 1 0
H3 H1+ 2 i .564(3) .965(3) .719(3) .039(9) 1 0
H4 H1+ 2 i .406(4) .968(4) .753(4) .047(10) 1 0
H5 H1+ 2 i 1.103(4) .416(2) .718(4) .058(11) 1 0
H6 H1+ 2 i 1.089(4) .276(4) .749(4) .067(13) 1 0
H7 H1+ 2 i 1.347(4) .414(3) .939(4) .066(13) 1 0
H8 H1+ 2 i 1.415(6) .289(5) 1.059(2) .081(15) 1 0
H9 H1+ 2 i .615(3) 1.265(3) .667(3) .049(10) 1 0
H10 H1+ 2 i .494(4) 1.413(2) .660(3) .054(11) 1 0
loop_
_atom_site_aniso_label
_atom_site_aniso_type_symbol
_atom_site_aniso_U_11
_atom_site_aniso_U_22
_atom_site_aniso_U_33
_atom_site_aniso_U_12
_atom_site_aniso_U_13
_atom_site_aniso_U_23
V1 V5+ .01202(14) .01221(14) .01500(15) -.00463(11) .00070(11) -.00394(11)
V2 V5+ .01828(16) .01105(14) .01692(16) -.00441(12) .00011(12) -.00478(12)
V3 V5+ .01893(16) .01500(15) .01711(16) -.00706(13) .00116(12) -.00126(12)
V4 V5+ .01863(16) .01432(15) .01333(15) -.00507(12) -.00040(12) -.00486(12)
V5 V5+ .01524(15) .01448(15) .01869(16) -.00318(12) -.00345(12) -.00231(12)
O1 O2- .0261(8) .0181(7) .0278(8) -.0067(6) .0014(6) -.0123(6)
O2 O2- .0318(9) .0267(8) .0257(8) -.0158(7) .0056(7) -.0019(7)
O3 O2- .0277(8) .0241(8) .0201(7) -.0099(6) .0023(6) -.0117(6)
O4 O2- .0204(7) .0228(8) .0298(9) -.0028(6) -.0067(6) -.0064(7)
O5 O2- .0133(6) .0118(6) .0145(6) -.0036(5) .0003(5) -.0036(5)
O6 O2- .0144(6) .0130(6) .0168(6) -.0054(5) .0005(5) -.0053(5)
O7 O2- .0141(6) .0130(6) .0152(6) -.0040(5) .0011(5) -.0054(5)
O8 O2- .0166(6) .0164(6) .0183(7) -.0074(5) .0019(5) -.0040(5)
O9 O2- .0141(6) .0178(7) .0197(7) -.0052(5) -.0003(5) -.0054(5)
O10 O2- .0215(7) .0132(6) .0212(7) -.0073(5) .0004(5) -.0040(5)
O11 O2- .0169(6) .0130(6) .0219(7) -.0020(5) -.0010(5) -.0054(5)
O12 O2- .0216(7) .0183(7) .0152(6) -.0077(6) .0024(5) -.0043(5)
O13 O2- .0211(7) .0151(6) .0179(7) -.0055(6) -.0021(5) -.0003(5)
O14 O2- .0181(7) .0175(7) .0168(7) -.0054(5) -.0030(5) -.0045(5)
K1 K1+ .0296(3) .0270(2) .0378(3) -.0107(2) .0032(2) -.0141(2)
K2 K1+ .0668(5) .0434(4) .0374(4) .0147(3) -.0052(3) -.0130(3)
Na1 Na1+ .0298(5) .0238(4) .0265(5) -.0123(4) .0018(4) -.0075(4)
O15 O2- .0250(8) .0381(10) .0239(8) -.0100(7) .0032(7) -.0110(7)
O16 O2- .0299(9) .0437(11) .0559(13) -.0211(9) .0183(9) -.0347(10)
O17 O2- .0377(11) .0196(8) .0636(14) -.0086(8) -.0177(10) -.0072(9)
O18 O2- .0594(14) .0279(10) .0266(10) -.0045(9) -.0088(9) -.0082(8)
O19 O2- .0537(13) .0235(9) .0639(15) -.0127(9) .0389(12) -.0106(10)
#End of TTdata_170750-ICSD