
#(C) 2018 by FIZ Karlsruhe - Leibniz Institute for Information Infrastructure.  All rights reserved.
data_170712-ICSD
_database_code_ICSD 170712
_audit_creation_date 2006-04-01
_chemical_name_systematic
Poly(octa-mue-aqua-ocataqua-mue-decavanadato-hexalithium)
_chemical_formula_structural '(Li6 (H2 O)16 V10 O28)'
_chemical_formula_sum 'H32 Li6 O44 V10'
_exptl_crystal_density_diffrn 2.55
_cell_measurement_temperature 273.
_publ_section_title
'Hexalithium hexadecahydrate decavanadate, [Li6 (H2 O)16 V10 O28]n'
loop_
_citation_id
_citation_journal_full
_citation_year
_citation_journal_volume
_citation_page_first
_citation_page_last
_citation_journal_id_ASTM
primary 'Acta Crystallographica, Section C: Crystal Structure Communications'
2005 61 i67 i68 ACSCEE
loop_
_publ_author_name
'Xie, A.-L.'
'Ma, C.-A.'
_cell_length_a 17.6164(2)
_cell_length_b 10.31890(10)
_cell_length_c 9.2348(3)
_cell_angle_alpha 90
_cell_angle_beta 90
_cell_angle_gamma 90
_cell_volume 1678.72
_cell_formula_units_Z 2
_symmetry_space_group_name_H-M 'P n n m'
_symmetry_Int_Tables_number 58
_refine_ls_R_factor_all 0.021
loop_
_symmetry_equiv_pos_site_id
_symmetry_equiv_pos_as_xyz
1 'x+1/2, -y+1/2, z+1/2'
2 '-x+1/2, y+1/2, z+1/2'
3 'x, y, -z'
4 '-x, -y, -z'
5 '-x+1/2, y+1/2, -z+1/2'
6 'x+1/2, -y+1/2, -z+1/2'
7 '-x, -y, z'
8 'x, y, z'
loop_
_atom_type_symbol
_atom_type_oxidation_number
V5+ 5
O2- -2
Li1+ 1
H1+ 1
loop_
_atom_site_label
_atom_site_type_symbol
_atom_site_symmetry_multiplicity
_atom_site_Wyckoff_symbol
_atom_site_fract_x
_atom_site_fract_y
_atom_site_fract_z
_atom_site_B_iso_or_equiv
_atom_site_occupancy
_atom_site_attached_hydrogens
V1 V5+ 8 h 0.64709(2) 0.66201(3) 0.66489(4) 0.01410(10) 1. 0
V2 V5+ 4 g 0.64143(2) 0.40100(4) 0.5 0.01120(10) 1. 0
V3 V5+ 4 e 0.5 0.5 0.67800(5) 0.01010(10) 1. 0
V4 V5+ 4 g 0.49439(2) 0.23635(4) 0.5 0.01270(10) 1. 0
O1 O2- 4 g 0.69770(10) 0.7148(2) 0.5 0.0163(5) 1. 0
O2 O2- 8 h 0.57373(7) 0.79320(10) 0.64630(10) 0.0153(3) 1. 0
O3 O2- 8 h 0.69740(8) 0.71530(10) 0.7960(2) 0.0226(4) 1. 0
O4 O2- 8 h 0.68548(8) 0.49270(10) 0.64550(10) 0.0151(3) 1. 0
O5 O2- 4 g 0.56450(10) 0.57040(10) 0.5 0.0113(4) 1. 0
O6 O2- 4 g 0.68760(10) 0.2667(2) 0.5 0.0175(5) 1. 0
O7 O2- 8 h 0.55641(7) 0.34830(10) 0.63430(10) 0.0114(3) 1. 0
O8 O2- 8 h 0.43484(7) 0.42950(10) 0.78750(10) 0.0152(3) 1. 0
O9 O2- 4 g 0.54690(10) 0.1105(2) 0.5 0.0204(5) 1. 0
O10 O2- 8 h 0.68872(9) 1.00260(10) 0.6689(2) 0.0232(4) 1. 0
O11 O2- 4 g 0.83360(10) 0.9689(2) 0.500000(10) 0.0230(5) 1. 0
O12 O2- 8 h 0.86619(8) 0.70620(10) 0.65730(10) 0.0213(4) 1. 0
O13 O2- 4 g 1.02070(10) 0.7409(2) 0.500000(10) 0.0313(6) 1. 0
O14 O2- 4 g 0.85570(10) 0.4521(2) 0.500000(10) 0.0340(7) 1. 0
O15 O2- 4 f 1.000000(10) 0.500000(10) 0.6672(2) 0.0251(6) 1. 0
Li1 Li1+ 4 g 0.7345(3) 1.0895(5) 0.5 0.0290(10) 1. 0
Li2 Li1+ 4 g 0.8057(3) 0.7794(5) 0.5 0.0240(10) 1. 0
Li3 Li1+ 4 g 0.9343(3) 0.6014(5) 0.5 0.0290(10) 1. 0
H1 H1+ 8 h 0.6581 0.9471 0.6524 0.028 1. 0
H2 H1+ 8 h 0.7289 0.9781 0.7234 0.029 1. 0
H3 H1+ 8 h 0.8574 0.9938 0.5761 0.028 1. 0
H4 H1+ 8 h 0.8479 0.6501 0.7116 0.026 1. 0
H5 H1+ 8 h 0.8863 0.7583 0.7124 0.026 1. 0
H6 H1+ 8 h 1.0375 0.7961 0.576 0.039 1. 0
H7 H1+ 4 g 0.8067 0.4489 0.5 0.041 1. 0
H8 H1+ 4 g 0.8846 0.3895 0.5 0.041 1. 0
H9 H1+ 8 h 1.024 0.56 0.7283 0.031 1. 0
loop_
_atom_site_aniso_label
_atom_site_aniso_type_symbol
_atom_site_aniso_U_11
_atom_site_aniso_U_22
_atom_site_aniso_U_33
_atom_site_aniso_U_12
_atom_site_aniso_U_13
_atom_site_aniso_U_23
V1 V5+ 0.0120(2) 0.0153(2) 0.0150(2) -0.00240(10) -0.00190(10) -0.00200(10)
V2 V5+ 0.0083(2) 0.0110(3) 0.0144(3) 0.00080(10) 0. 0.
V3 V5+ 0.0097(2) 0.0114(2) 0.0092(2) -0.00020(10) 0. 0.
V4 V5+ 0.0112(2) 0.0096(2) 0.0173(3) -0.0004(2) 0. 0.
O1 O2- 0.0116(9) 0.0142(9) 0.0230(10) -0.0020(7) 0. 0.
O2 O2- 0.0133(6) 0.0134(6) 0.0192(7) -0.0017(5) -0.0005(5) -0.0038(5)
O3 O2- 0.0178(7) 0.0260(7) 0.0239(8) -0.0032(6) -0.0055(6) -0.0068(7)
O4 O2- 0.0120(6) 0.0147(6) 0.0186(7) 0.0002(5) -0.0035(5) -0.0001(5)
O5 O2- 0.0097(8) 0.0110(8) 0.0132(9) 0.0004(7) 0. 0.
O6 O2- 0.0150(10) 0.0150(10) 0.0220(10) 0.0038(8) 0. 0.
O7 O2- 0.0107(6) 0.0115(6) 0.0121(6) 0.0003(5) -0.0008(5) 0.0017(5)
O8 O2- 0.0147(6) 0.0183(6) 0.0127(6) -0.0007(5) 0.0024(5) 0.0007(5)
O9 O2- 0.0170(10) 0.0133(9) 0.0310(10) 0.0008(7) 0. 0.
O10 O2- 0.0226(7) 0.0224(8) 0.0246(9) -0.0036(6) -0.0026(6) -0.0008(6)
O11 O2- 0.0240(10) 0.0250(10) 0.0200(10) -0.0021(9) 0. 0.
O12 O2- 0.0247(7) 0.0222(7) 0.0170(7) -0.0072(6) -0.0008(6) -0.0005(6)
O13 O2- 0.0420(10) 0.0260(10) 0.0260(10) -0.0140(10) 0. 0.
O14 O2- 0.0290(10) 0.0330(10) 0.040(2) -0.0060(10) 0. 0.
O15 O2- 0.0270(10) 0.0270(10) 0.0220(10) -0.0026(9) 0. 0.
Li1 Li1+ 0.033(3) 0.024(3) 0.029(3) 0.007(2) 0. 0.
Li2 Li1+ 0.023(3) 0.024(2) 0.023(2) -0.005(2) 0. 0.
Li3 Li1+ 0.029(3) 0.029(3) 0.029(3) -0.002(2) 0. 0.
#End of TTdata_170712-ICSD