
#(C) 2019 by FIZ Karlsruhe - Leibniz Institute for Information Infrastructure.  All rights reserved.
data_171005-ICSD
_database_code_ICSD 171005
_audit_creation_date 2006-04-01
_chemical_name_systematic 'Nonasodium tetrasulfate bromide dihydrogenperoxide'
_chemical_formula_structural 'Na9 (S O4)4 Br (H2 O2)2'
_chemical_formula_sum 'H4 Br1 Na9 O20 S4'
_exptl_crystal_density_diffrn 2.63
_cell_measurement_temperature 150.
_publ_section_title

;
Structures of Na9 [S O4] X.2H2 O2, where X = Cl  or Br, in which the halide
anions orchestrate extented orientation sequences of H2 O2 solvate molecules
;
loop_
_citation_id
_citation_journal_full
_citation_year
_citation_journal_volume
_citation_page_first
_citation_page_last
_citation_journal_id_ASTM
primary 'Acta Crystallographica, Section B: Structural Science' 2005 61 663 668
ASBSDK
loop_
_publ_author_name
'Pritchard, R.G.'
'Begum, Z.'
'Lau, Y.F.'
'Austin, M.'
_cell_length_a 14.9126(5)
_cell_length_b 14.9126(5)
_cell_length_c 8.4052(2)
_cell_angle_alpha 90.
_cell_angle_beta 90.
_cell_angle_gamma 90.
_cell_volume 1869.2
_cell_formula_units_Z 4
_symmetry_space_group_name_H-M 'P 4/n Z'
_symmetry_Int_Tables_number 85
_refine_ls_R_factor_all 0.0634
loop_
_symmetry_equiv_pos_site_id
_symmetry_equiv_pos_as_xyz
1 '-y, x+1/2, -z'
2 'y+1/2, -x, -z'
3 'x+1/2, y+1/2, -z'
4 '-x, -y, -z'
5 'y, -x+1/2, z'
6 '-y+1/2, x, z'
7 '-x+1/2, -y+1/2, z'
8 'x, y, z'
loop_
_atom_type_symbol
_atom_type_oxidation_number
Br1- -1
Na1+ 1
O2- -2
O1- -1
O2- -2
O1- -1
S6+ 6
H1+ 1
loop_
_atom_site_label
_atom_site_type_symbol
_atom_site_symmetry_multiplicity
_atom_site_Wyckoff_symbol
_atom_site_fract_x
_atom_site_fract_y
_atom_site_fract_z
_atom_site_B_iso_or_equiv
_atom_site_occupancy
_atom_site_attached_hydrogens
Br1 Br1- 2 a 0.75 0.25 0 0.01417(12) 1 0
Br2 Br1- 2 c 0.25 0.25 0.48695(5) 0.01273(12) 1 0
Na1 Na1+ 8 g 0.64723(7) 0.37337(6) 0.81685(12) 0.0146(2) 1 0
Na2 Na1+ 2 b 0.75 0.25 0.5 0.0163(4) 1 0
Na3 Na1+ 8 g 0.62673(7) 0.39174(7) 0.20464(12) 0.0163(2) 1 0
Na4 Na1+ 8 g 0.35448(6) 0.37461(7) 0.68522(11) 0.0142(2) 1 0
Na5 Na1+ 2 c 0.25 0.25 1.0196(2) 0.0161(4) 1 0
Na6 Na1+ 8 g 0.37149(7) 0.38946(7) 1.29937(12) 0.0163(2) 1 0
O1 O2- 8 g 0.48432(12) 0.18355(12) 0.50326(18) 0.0144(4) 1 0
O2 O2- 8 g 0.59709(11) 0.26609(11) 0.3582(2) 0.0149(3) 1 0
O3 O2- 8 g 0.48255(12) 0.34608(11) 0.50464(18) 0.0140(4) 1 0
O4 O2- 8 g 0.59943(11) 0.26410(11) 0.6435(2) 0.0142(3) 1 0
O5 O1- 8 g 0.54143(12) 0.47531(12) 0.7030(2) 0.0166(4) 1 0
O6 O2- 8 g 0.51614(12) 0.18381(12) 1.00036(18) 0.0150(4) 1 0
O7 O2- 8 g 0.40253(11) 0.26427(11) 1.1447(2) 0.0149(3) 1 0
O8 O2- 8 g 0.51716(12) 0.34647(12) 1.00146(17) 0.0146(4) 1 0
O9 O2- 8 g 0.40122(11) 0.26533(11) 0.8598(2) 0.0140(3) 1 0
O10 O1- 8 g 0.46047(12) 0.47460(12) 0.8003(2) 0.0167(4) 1 0
S1 S6+ 8 g 0.54035(4) 0.26441(4) 0.50241(6) 0.01007(13) 1 0
S2 S6+ 8 g 0.45972(4) 0.26436(4) 1.00141(6) 0.01007(13) 1 0
H1 H1+ 8 g 0.527(2) 0.440(2) 0.628(4) 0.032(9) 1 0
H2 H1+ 8 g 0.477(3) 0.443(3) 0.881(5) 0.055(12) 1 0
loop_
_atom_site_aniso_label
_atom_site_aniso_type_symbol
_atom_site_aniso_U_11
_atom_site_aniso_U_22
_atom_site_aniso_U_33
_atom_site_aniso_U_12
_atom_site_aniso_U_13
_atom_site_aniso_U_23
Br1 Br1- 0.01358(15) 0.01358(15) 0.0153(2) 0 0 0
Br2 Br1- 0.01265(14) 0.01265(14) 0.0129(2) 0 0 0
Na1 Na1+ 0.0153(5) 0.0151(5) 0.0134(5) -0.0012(4) 0.0002(4) -0.0014(4)
Na2 Na1+ 0.0133(6) 0.0133(6) 0.0223(11) 0 0 0
Na3 Na1+ 0.0161(5) 0.0160(5) 0.0167(5) -0.0020(4) -0.0017(4) 0.0030(4)
Na4 Na1+ 0.0141(5) 0.0144(5) 0.0140(5) 0.0002(4) 0.0000(4) 0.0022(4)
Na5 Na1+ 0.0139(6) 0.0139(6) 0.0204(10) 0 0 0
Na6 Na1+ 0.0164(5) 0.0167(5) 0.0158(5) 0.0013(4) -0.0013(4) -0.0035(4)
O1 O2- 0.0137(8) 0.0151(8) 0.0145(9) -0.0051(6) 0.0018(6) 0.0000(6)
O2 O2- 0.0157(8) 0.0147(8) 0.0145(8) -0.0013(7) 0.0036(7) 0.0017(7)
O3 O2- 0.0136(8) 0.0131(8) 0.0152(9) 0.0041(6) -0.0009(6) -0.0008(6)
O4 O2- 0.0158(8) 0.0140(8) 0.0130(8) 0.0015(7) -0.0035(7) -0.0001(6)
O5 O1- 0.0141(8) 0.0181(9) 0.0175(9) -0.0010(7) 0.0032(7) -0.0009(7)
O6 O2- 0.0144(8) 0.0155(8) 0.0151(9) 0.0043(6) -0.0019(6) -0.0015(6)
O7 O2- 0.0149(8) 0.0164(8) 0.0135(8) -0.0003(7) 0.0020(7) -0.0016(7)
O8 O2- 0.0152(8) 0.0143(8) 0.0142(9) -0.0034(6) -0.0016(6) 0.0020(6)
O9 O2- 0.0136(8) 0.0151(8) 0.0133(8) -0.0003(6) -0.0039(6) 0.0008(6)
O10 O1- 0.0150(8) 0.0181(9) 0.0169(9) 0.0005(7) 0.0028(7) 0.0022(7)
S1 S6+ 0.0105(2) 0.0102(2) 0.0095(3) 0.00005(19) -0.00022(19) -0.00019(19)
S2 S6+ 0.0101(2) 0.0104(2) 0.0097(3) -0.00001(19) -0.00067(19) -0.00026(19)
#End of TTdata_171005-ICSD