
#(C) 2019 by FIZ Karlsruhe - Leibniz Institute for Information Infrastructure.  All rights reserved.
data_171091-ICSD
_database_code_ICSD 171091
_audit_creation_date 2006-04-01
_chemical_name_systematic 'Sodium tecto-alumotrisilicate'
_chemical_formula_structural 'Na Al Si3 O8'
_chemical_formula_sum 'Al1 Na1 O8 Si3'
_chemical_name_structure_type Feldspar#-(TC)-Albite-NaAlSi3O8
_chemical_name_mineral Albite
_exptl_crystal_density_diffrn 2.98
_cell_measurement_pressure 8411000.
_publ_section_title 'Compression of albite, Na Al Si3 O8'
loop_
_citation_id
_citation_journal_full
_citation_year
_citation_journal_volume
_citation_page_first
_citation_page_last
_citation_journal_id_ASTM
primary 'American Mineralogist' 2005 90 1115 1120 AMMIAY
loop_
_publ_author_name
'Benusa, M.D.'
'Angel, R.J.'
'Ross, N.L.'
_cell_length_a 7.5713(5)
_cell_length_b 12.5170(3)
_cell_length_c 6.9697(5)
_cell_angle_alpha 93.797(5)
_cell_angle_beta 117.448(5)
_cell_angle_gamma 87.508(4)
_cell_volume 584.81
_cell_formula_units_Z 4
_symmetry_space_group_name_H-M 'C -1'
_symmetry_Int_Tables_number 2
loop_
_symmetry_equiv_pos_site_id
_symmetry_equiv_pos_as_xyz
1 '-x, -y, -z'
2 'x, y, z'
3 '-x+1/2, -y+1/2, -z'
4 'x+1/2, y+1/2, z'
loop_
_atom_type_symbol
_atom_type_oxidation_number
Na1+ 1
Al3+ 3
Si4+ 4
O2- -2
loop_
_atom_site_label
_atom_site_type_symbol
_atom_site_symmetry_multiplicity
_atom_site_Wyckoff_symbol
_atom_site_fract_x
_atom_site_fract_y
_atom_site_fract_z
_atom_site_B_iso_or_equiv
_atom_site_occupancy
_atom_site_attached_hydrogens
Na1 Na1+ 4 i 0.2419 0.9924 0.1592 0.02609 1. 0
Al1 Al3+ 4 i -0.0102 0.16866 0.1994 0.00671 1. 0
Si1 Si4+ 4 i -0.0185 0.82205 0.2325 0.00608 1. 0
Si2 Si4+ 4 i 0.6853 0.10184 0.3109 0.00545 1. 0
Si3 Si4+ 4 i 0.6446 0.8751 0.3493 0.00595 1. 0
O1 O2- 4 i 0.0137 0.1305 0.971 0.01305 1. 0
O2 O2- 4 i 0.5636 0.9968 0.293 0.00722 1. 0
O3 O2- 4 i 0.7927 0.0899 0.162 0.01127 1. 0
O4 O2- 4 i 0.7637 0.8399 0.212 0.01203 1. 0
O5 O2- 4 i -0.0438 0.3017 0.266 0.00823 1. 0
O6 O2- 4 i 0.0297 0.6969 0.255 0.01229 1. 0
O7 O2- 4 i 0.2133 0.1229 0.397 0.01684 1. 0
O8 O2- 4 i 0.1475 0.886 0.44 0.02039 1. 0
loop_
_atom_site_aniso_label
_atom_site_aniso_type_symbol
_atom_site_aniso_U_11
_atom_site_aniso_U_22
_atom_site_aniso_U_33
_atom_site_aniso_U_12
_atom_site_aniso_U_13
_atom_site_aniso_U_23
Na1 Na1+ 0.01395 0.02212 0.04368 0.0034 0.01577 -0.00469
#End of TTdata_171091-ICSD