
#(C) 2019 by FIZ Karlsruhe - Leibniz Institute for Information Infrastructure.  All rights reserved.
data_171094-ICSD
_database_code_ICSD 171094
_audit_creation_date 2006-04-01
_audit_update_record 2008-08-01
_chemical_name_systematic 'Calcium sodium magnesium silicate'
_chemical_formula_structural 'Ca.36 Na.56 Mg.81 Si2.27 O6'
_chemical_formula_sum 'Ca0.36 Mg0.81 Na0.56 O6 Si2.27'
_chemical_name_structure_type Pyroxene-CaMg(SiO3)2
_chemical_name_mineral Clinopyroxene
_exptl_crystal_density_diffrn 3.26
_publ_section_title

;
Crystal chemistry of a high-pressure C2/c clinopyroxene with six-coordinated
silicon
;
loop_
_citation_id
_citation_journal_full
_citation_year
_citation_journal_volume
_citation_page_first
_citation_page_last
_citation_journal_id_ASTM
primary 'American Mineralogist' 2005 90 123 1226 AMMIAY
loop_
_publ_author_name
'Yang, H.'
'Konzett, J.'
_cell_length_a 9.5792(13)
_cell_length_b 8.7588(12)
_cell_length_c 5.2610(6)
_cell_angle_alpha 90
_cell_angle_beta 107.199(3)
_cell_angle_gamma 90
_cell_volume 421.67
_cell_formula_units_Z 4
_symmetry_space_group_name_H-M 'C 1 2/c 1'
_symmetry_Int_Tables_number 15
_refine_ls_R_factor_all 0.033
loop_
_symmetry_equiv_pos_site_id
_symmetry_equiv_pos_as_xyz
1 'x, -y, z+1/2'
2 '-x, -y, -z'
3 '-x, y, -z+1/2'
4 'x, y, z'
5 'x+1/2, -y+1/2, z+1/2'
6 '-x+1/2, -y+1/2, -z'
7 '-x+1/2, y+1/2, -z+1/2'
8 'x+1/2, y+1/2, z'
loop_
_atom_type_symbol
_atom_type_oxidation_number
Ca2+ 2
Na1+ 1
Mg2+ 2
Si4+ 4
O2- -2
loop_
_atom_site_label
_atom_site_type_symbol
_atom_site_symmetry_multiplicity
_atom_site_Wyckoff_symbol
_atom_site_fract_x
_atom_site_fract_y
_atom_site_fract_z
_atom_site_B_iso_or_equiv
_atom_site_occupancy
_atom_site_attached_hydrogens
Ca1 Ca2+ 4 e 0. 0.2989(1) 0.25 0.0154(5) 0.36 0
Na1 Na1+ 4 e 0. 0.2989(1) 0.25 0.0154(5) 0.56 0
Mg1 Mg2+ 4 e 0. 0.2989(1) 0.25 0.0154(5) 0.08 0
Mg2 Mg2+ 4 e 0. 0.9052(1) 0.25 0.0092(6) 0.73 0
Si1 Si4+ 4 e 0. 0.9052(1) 0.25 0.0092(6) 0.27 0
Si2 Si4+ 8 f 0.2887(1) 0.0925(1) 0.2316(1) 0.0091(2) 1. 0
O1 O2- 8 f 0.1123(2) 0.0820(2) 0.1352(4) 0.02135 1. 0
O2 O2- 8 f 0.3608(2) 0.2560(2) 0.3108(4) 0.01824 1. 0
O3 O2- 8 f 0.3517(2) 0.0132(2) 0.0038(3) 0.0129(4) 1. 0
loop_
_atom_site_aniso_label
_atom_site_aniso_type_symbol
_atom_site_aniso_U_11
_atom_site_aniso_U_22
_atom_site_aniso_U_33
_atom_site_aniso_U_12
_atom_site_aniso_U_13
_atom_site_aniso_U_23
Ca1 Ca2+ 0.0199(7) 0.0118(6) 0.0110(6) 0. -0.0008(4) 0.
Na1 Na1+ 0.0199(7) 0.0118(6) 0.0110(6) 0. -0.0008(4) 0.
Mg1 Mg2+ 0.0199(7) 0.0118(6) 0.0110(6) 0. -0.0008(4) 0.
Mg2 Mg2+ 0.0095(8) 0.0092(8) 0.0083(8) 0. 0.0017(5) 0.
Si1 Si4+ 0.0095(8) 0.0092(8) 0.0083(8) 0. 0.0017(5) 0.
Si2 Si4+ 0.0095(8) 0.0092(8) 0.0083(8) 0. 0.0017(5) 0.
O1 O2- 0.0109(10) 0.0309(12) 0.0221(11) 0.0048(7) 0.0048(8) -0.0084(8)
O2 O2- 0.0281(11) 0.0114(9) 0.0145(9) -0.0011(7) 0.0055(8) -0.0012(7)
O3 O2- 0.0129(9) 0.0177(10) 0.0089(8) 0.0007(7) 0.0044(7) -0.0041(7)
#End of TTdata_171094-ICSD