
#(C) 2019 by FIZ Karlsruhe - Leibniz Institute for Information Infrastructure.  All rights reserved.
data_171134-ICSD
_database_code_ICSD 171134
_audit_creation_date 2006-10-01
_chemical_name_systematic
'Sodium manganese aluminium phosphate (1.50/2.48/0.85/3)'
_chemical_formula_structural 'Na1.50 Mn2.48 Al0.85 (P O4)3'
_chemical_formula_sum 'Al0.85 Mn2.48 Na1.5 O12 P3'
_chemical_name_structure_type Alluaudite
_chemical_name_mineral Alluaudite
_exptl_crystal_density_diffrn 3.61
_publ_section_title
'Na1.50 Mn2.48 Al0.85 (P O4)3, a new synthetic alluaudite-type compound'
loop_
_citation_id
_citation_journal_full
_citation_year
_citation_journal_volume
_citation_page_first
_citation_page_last
_citation_journal_id_ASTM
primary 'Acta Crystallographica, Section C: Crystal Structure Communications'
2006 62 i1 i2 ACSCEE
loop_
_publ_author_name
'Hatert, F.'
_cell_length_a 11.9816(10)
_cell_length_b 12.5387(13)
_cell_length_c 6.4407(10)
_cell_angle_alpha 90.
_cell_angle_beta 114.621(8)
_cell_angle_gamma 90.
_cell_volume 879.64
_cell_formula_units_Z 4
_symmetry_space_group_name_H-M 'C 1 2/c 1'
_symmetry_Int_Tables_number 15
_refine_ls_R_factor_all 0.0403
loop_
_symmetry_equiv_pos_site_id
_symmetry_equiv_pos_as_xyz
1 'x, -y, z+1/2'
2 '-x, -y, -z'
3 '-x, y, -z+1/2'
4 'x, y, z'
5 'x+1/2, -y+1/2, z+1/2'
6 '-x+1/2, -y+1/2, -z'
7 '-x+1/2, y+1/2, -z+1/2'
8 'x+1/2, y+1/2, z'
loop_
_atom_type_symbol
_atom_type_oxidation_number
Na1+ 1
Mn2+ 2
Na1+ 1
Mn2+ 2
Al3+ 3
P5+ 5
O2- -2
loop_
_atom_site_label
_atom_site_type_symbol
_atom_site_symmetry_multiplicity
_atom_site_Wyckoff_symbol
_atom_site_fract_x
_atom_site_fract_y
_atom_site_fract_z
_atom_site_B_iso_or_equiv
_atom_site_occupancy
_atom_site_attached_hydrogens
Na1 Na1+ 4 b 0.5 0. 0. 0.0268(5) 0.619(8) 0
Mn1 Mn2+ 4 b 0.5 0. 0. 0.0268(5) 0.381(7) 0
Na2 Na1+ 4 e 0. -0.0207(2) 0.25 0.0329(9) 0.891(10) 0
Mn2 Mn2+ 4 e 0. 0.26627(6) 0.25 0.0144(3) 0.908(4) 0
Mn3 Mn2+ 8 f 0.27572(5) 0.65456(5) 0.35763(10) 0.0137(2) 0.573(6) 0
Al1 Al3+ 8 f 0.27572(5) 0.65456(5) 0.35763(10) 0.0137(2) 0.427(6) 0
P1 P5+ 4 e 0. -0.28457(9) 0.25 0.0158(3) 1 0
P2 P5+ 8 f 0.23711(7) -0.10611(7) 0.13087(13) 0.0154(2) 1 0
O1 O2- 8 f 0.4524(2) 0.71353(19) 0.5356(4) 0.0183(5) 1 0
O2 O2- 8 f 0.0959(3) 0.6397(2) 0.2321(5) 0.0422(9) 1 0
O3 O2- 8 f 0.3317(3) 0.6633(2) 0.0992(4) 0.0290(7) 1 0
O4 O2- 8 f 0.1268(2) 0.4078(2) 0.3175(5) 0.0266(6) 1 0
O5 O2- 8 f 0.2279(2) 0.8255(2) 0.3217(4) 0.0282(6) 1 0
O6 O2- 8 f 0.3272(3) 0.5010(2) 0.3849(5) 0.0291(6) 1 0
loop_
_atom_site_aniso_label
_atom_site_aniso_type_symbol
_atom_site_aniso_U_11
_atom_site_aniso_U_22
_atom_site_aniso_U_33
_atom_site_aniso_U_12
_atom_site_aniso_U_13
_atom_site_aniso_U_23
Na1 Na1+ 0.0365(9) 0.0114(7) 0.0133(7) 0.0006(5) -0.0087(5) 0.0001(4)
Mn1 Mn2+ 0.0365(9) 0.0114(7) 0.0133(7) 0.0006(5) -0.0087(5) 0.0001(4)
Na2 Na1+ 0.0203(13) 0.0427(17) 0.0256(14) 0. -0.0004(10) 0.
Mn2 Mn2+ 0.0138(4) 0.0111(4) 0.0198(4) 0. 0.0085(3) 0.
Mn3 Mn2+ 0.0114(3) 0.0172(3) 0.0119(3) 0.0032(2) 0.0043(2) -0.0002(2)
Al1 Al3+ 0.0114(3) 0.0172(3) 0.0119(3) 0.0032(2) 0.0043(2) -0.0002(2)
P1 P5+ 0.0201(6) 0.0129(5) 0.0087(5) 0. 0.0005(4) 0.
P2 P5+ 0.0124(4) 0.0194(4) 0.0104(4) 0.0005(3) 0.0007(3) -0.0044(3)
O1 O2- 0.0181(11) 0.0202(12) 0.0129(10) 0.0059(10) 0.0028(9) -0.0034(9)
O2 O2- 0.051(2) 0.0318(16) 0.0305(16) 0.0162(14) 0.0036(15) -0.0178(13)
O3 O2- 0.0380(16) 0.0233(14) 0.0157(12) -0.0103(12) 0.0011(11) -0.0062(10)
O4 O2- 0.0155(12) 0.0193(12) 0.0413(16) 0.0034(10) 0.0083(11) 0.0074(11)
O5 O2- 0.0226(13) 0.0408(16) 0.0183(13) 0.0028(12) 0.0056(10) 0.0036(11)
O6 O2- 0.0230(14) 0.0337(15) 0.0218(13) -0.0123(12) 0.0006(10) 0.0083(11)
#End of TTdata_171134-ICSD