
#(C) 2019 by FIZ Karlsruhe - Leibniz Institute for Information Infrastructure.  All rights reserved.
data_171192-ICSD
_database_code_ICSD 171192
_audit_creation_date 2006-10-01
_chemical_name_systematic
'Sodium aqua-mue3-hydroxo-di-mue4-phosphato-diferrate(III)) hydrate'
_chemical_formula_structural 'Na Fe2 (O H) (P O4)2 (H2 O)2'
_chemical_formula_sum 'H5 Fe2 Na1 O11 P2'
_chemical_name_structure_type Leucophosphite
_exptl_crystal_density_diffrn 2.77
_cell_measurement_temperature 295.
_publ_section_title 'Sodium diiron(III) diphosphate hydroxide dihydrate'
loop_
_citation_id
_citation_journal_full
_citation_year
_citation_journal_volume
_citation_page_first
_citation_page_last
_citation_journal_id_ASTM
primary 'Acta Crystallographica, Section E: Structure Reports Online' 2005 61
i268 i269 ACSEBH
loop_
_publ_author_name
'Gao, S.'
'Ng, S.W.'
_cell_length_a 9.766(2)
_cell_length_b 9.692(2)
_cell_length_c 9.811(2)
_cell_angle_alpha 90.
_cell_angle_beta 102.53(2)
_cell_angle_gamma 90.
_cell_volume 906.51
_cell_formula_units_Z 4
_symmetry_space_group_name_H-M 'P 1 21/n 1'
_symmetry_Int_Tables_number 14
_refine_ls_R_factor_all 0.024
loop_
_symmetry_equiv_pos_site_id
_symmetry_equiv_pos_as_xyz
1 '-x+1/2, y+1/2, -z+1/2'
2 '-x, -y, -z'
3 'x+1/2, -y+1/2, z+1/2'
4 'x, y, z'
loop_
_atom_type_symbol
_atom_type_oxidation_number
Fe3+ 3
P5+ 5
Na1+ 1
O2- -2
H1+ 1
loop_
_atom_site_label
_atom_site_type_symbol
_atom_site_symmetry_multiplicity
_atom_site_Wyckoff_symbol
_atom_site_fract_x
_atom_site_fract_y
_atom_site_fract_z
_atom_site_B_iso_or_equiv
_atom_site_occupancy
_atom_site_attached_hydrogens
Fe1 Fe3+ 4 e 0.61052(3) 0.04829(4) 0.63047(4) 0.00710(10) 1 0
Fe2 Fe3+ 4 e 0.59902(3) 0.27125(4) 0.31173(4) 0.00690(10) 1 0
P1 P5+ 4 e 0.79049(6) 0.31958(6) 0.63035(6) 0.00700(10) 1 0
P2 P5+ 4 e 0.79314(6) 0.46961(6) 0.14665(6) 0.00700(10) 1 0
Na1 Na1+ 4 e 1.01760(10) 0.19600(10) 0.39950(10) 0.0205(3) 1 0
O1 O2- 4 e 0.6982(2) 0.2224(2) 0.6948(2) 0.0125(4) 1 0
O2 O2- 4 e 0.7361(2) 0.3348(2) 0.4733(2) 0.0116(4) 1 0
O3 O2- 4 e 0.9420(2) 0.2694(2) 0.6570(2) 0.0130(4) 1 0
O4 O2- 4 e 0.7833(2) 0.4635(2) 0.6973(2) 0.0102(3) 1 0
O5 O2- 4 e 0.6800(2) 0.3763(2) 0.1797(2) 0.0120(4) 1 0
O6 O2- 4 e 0.9402(2) 0.4069(2) 0.1988(2) 0.0101(4) 1 0
O7 O2- 4 e 0.7613(2) 0.4880(2) -0.0138(2) 0.0100(3) 1 0
O8 O2- 4 e 0.7858(2) 0.6115(2) 0.2158(2) 0.0112(4) 1 0
O9 O2- 4 e 0.4985(2) 0.1420(2) 0.4395(2) 0.0079(3) 1 0
O10 O2- 4 e 0.4904(2) 0.4498(2) 0.3457(3) 0.0226(5) 1 0
O11 O2- 4 e 0.3137(3) 0.3500(2) 0.5347(3) 0.0287(5) 1 0
H1 H1+ 4 e 0.449 0.209 0.454 0.07 1 0
H2 H1+ 4 e 0.405 0.471 0.32 0.03 1 0
H3 H1+ 4 e 0.537 0.518 0.386 0.05 1 0
H4 H1+ 4 e 0.267 0.398 0.469 0.05 1 0
H5 H1+ 4 e 0.282 0.358 0.608 0.04 1 0
loop_
_atom_site_aniso_label
_atom_site_aniso_type_symbol
_atom_site_aniso_U_11
_atom_site_aniso_U_22
_atom_site_aniso_U_33
_atom_site_aniso_U_12
_atom_site_aniso_U_13
_atom_site_aniso_U_23
Fe1 Fe3+ 0.0070(2) 0.0081(2) 0.0060(2) -0.00030(10) 0.00110(10) -0.00020(10)
Fe2 Fe3+ 0.0064(2) 0.0075(2) 0.0067(2) -0.00050(10) 0.00090(10) 0.00030(10)
P1 P5+ 0.0069(3) 0.0066(3) 0.0067(3) 0.0003(2) -0.0002(2) -0.0006(2)
P2 P5+ 0.0069(3) 0.0070(3) 0.0074(3) -0.0011(2) 0.0021(2) 0.0004(2)
Na1 Na1+ 0.0192(6) 0.0293(6) 0.0125(5) 0.0067(5) 0.0023(4) 0.0085(5)
O1 O2- 0.0165(9) 0.0094(8) 0.0116(9) -0.0054(7) 0.0034(7) -0.0014(7)
O2 O2- 0.0132(9) 0.0122(9) 0.0080(8) -0.0023(7) -0.0009(7) -0.0006(7)
O3 O2- 0.0091(8) 0.0171(9) 0.0113(9) 0.0053(7) -0.0010(7) -0.0019(7)
O4 O2- 0.0105(8) 0.0076(8) 0.0106(8) 0.0006(6) -0.0015(7) -0.0025(7)
O5 O2- 0.0117(8) 0.0138(9) 0.0112(8) -0.0043(7) 0.0041(7) 0.0016(7)
O6 O2- 0.0080(8) 0.0129(9) 0.0098(8) 0.0014(7) 0.0029(6) 0.0022(7)
O7 O2- 0.0096(8) 0.0133(9) 0.0072(8) -0.0014(7) 0.0019(6) 0.0014(7)
O8 O2- 0.0136(9) 0.0089(8) 0.0127(9) -0.0011(7) 0.0066(7) -0.0016(7)
O9 O2- 0.0084(8) 0.0080(8) 0.0078(8) 0.0008(6) 0.0026(6) 0.0000(6)
O10 O2- 0.0110(10) 0.0210(10) 0.0340(10) 0.0040(10) 0.0010(10) -0.0120(10)
O11 O2- 0.0440(10) 0.0200(10) 0.0270(10) 0.0080(10) 0.0180(10) 0.0090(10)
#End of TTdata_171192-ICSD