
#(C) 2019 by FIZ Karlsruhe - Leibniz Institute for Information Infrastructure.  All rights reserved.
data_171329-ICSD
_database_code_ICSD 171329
_audit_creation_date 2006-10-01
_chemical_name_systematic 'Sodium diiron(II) phosphate hydrogenphosphate'
_chemical_formula_structural 'Na Fe2 (P O4) (H P O4)'
_chemical_formula_sum 'H1 Fe2 Na1 O8 P2'
_chemical_name_structure_type RbZn2H(PO4)2
_exptl_crystal_density_diffrn 2.99
_publ_section_title

;
Synthesis and characterization of new open-framework iron(II) phosphate with
1D tube and double layer structure, Na Fe2 (P O4)(H P O4)
;
loop_
_citation_id
_citation_journal_full
_citation_year
_citation_journal_volume
_citation_page_first
_citation_page_last
_citation_journal_id_ASTM
primary 'Crystal Growth & Design' 2006 6 632 635 CGDEFU
loop_
_publ_author_name
'Zhao, Z.-F.'
'Zhou, B.-B.'
'Su, Z.-H.'
'Zhang, X.'
'Li, G.-H.'
_cell_length_a 5.1200(10)
_cell_length_b 8.6232(17)
_cell_length_c 8.7958(18)
_cell_angle_alpha 96.93(3)
_cell_angle_beta 100.45(3)
_cell_angle_gamma 105.75(3)
_cell_volume 361.59
_cell_formula_units_Z 2
_symmetry_space_group_name_H-M 'P -1'
_symmetry_Int_Tables_number 2
_refine_ls_R_factor_all 0.0393
loop_
_symmetry_equiv_pos_site_id
_symmetry_equiv_pos_as_xyz
1 '-x, -y, -z'
2 'x, y, z'
loop_
_atom_type_symbol
_atom_type_oxidation_number
Fe2+ 2
P5+ 5
Na1+ 1
O2- -2
H1+ 1
loop_
_atom_site_label
_atom_site_type_symbol
_atom_site_symmetry_multiplicity
_atom_site_Wyckoff_symbol
_atom_site_fract_x
_atom_site_fract_y
_atom_site_fract_z
_atom_site_B_iso_or_equiv
_atom_site_occupancy
_atom_site_attached_hydrogens
Fe1 Fe2+ 2 i 0.22131(11) 0.11202(7) 0.25961(6) 0.0075(2) 1 0
Fe2 Fe2+ 2 i -0.33047(11) 0.38259(7) 0.10692(6) 0.0074(2) 1 0
P1 P5+ 2 i -0.1609(2) 0.24432(15) 0.41852(14) 0.0172(3) 1 0
P2 P5+ 2 i 0.0912(2) 0.25033(14) -0.06028(14) 0.0165(3) 1 0
Na1 Na1+ 2 i 1.4092(5) 0.1865(3) -0.3114(3) 0.0282(5) 1 0
O1 O2- 2 i 0.1055(7) 0.1957(5) 0.4456(4) 0.0237(7) 1 0
O2 O2- 2 i 0.2723(7) 0.2595(4) 0.1065(4) 0.0215(7) 1 0
O3 O2- 2 i 0.5864(7) 0.0953(4) 0.3487(4) 0.0241(8) 1 0
O4 O2- 2 i -0.0573(7) -0.0887(4) 0.1640(4) 0.0245(8) 1 0
O5 O2- 2 i -0.1405(8) 0.3796(4) 0.3201(4) 0.0253(8) 1 0
O6 O2- 2 i -0.1890(8) 0.2738(5) -0.0497(4) 0.0260(8) 1 0
O7 O2- 2 i -0.2749(8) 0.6155(4) 0.1272(4) 0.0235(7) 1 0
O8 O2- 2 i -0.2058(8) 0.3152(5) 0.5824(4) 0.0242(8) 1 0
H1 H1+ 2 i -0.1685 0.2589 0.647 0.08 1 0
loop_
_atom_site_aniso_label
_atom_site_aniso_type_symbol
_atom_site_aniso_U_11
_atom_site_aniso_U_22
_atom_site_aniso_U_33
_atom_site_aniso_U_12
_atom_site_aniso_U_13
_atom_site_aniso_U_23
Fe1 Fe2+ 0.0060(3) 0.0070(3) 0.0082(3) 0.0006(2) 0.0008(2) 0.0011(2)
Fe2 Fe2+ 0.0071(3) 0.0065(3) 0.0084(3) 0.0011(2) 0.0023(2) 0.0016(2)
P1 P5+ 0.0163(6) 0.0179(6) 0.0165(6) 0.0048(4) 0.0023(4) 0.0022(4)
P2 P5+ 0.0161(6) 0.0161(6) 0.0165(6) 0.0044(4) 0.0032(4) 0.0024(4)
Na1 Na1+ 0.0294(11) 0.0296(11) 0.0277(11) 0.0094(9) 0.0106(9) 0.0057(9)
O1 O2- 0.0225(18) 0.0289(18) 0.0201(17) 0.0092(15) 0.0045(14) 0.0030(14)
O2 O2- 0.0183(17) 0.0221(17) 0.0225(17) 0.0037(13) 0.0034(13) 0.0056(14)
O3 O2- 0.0209(17) 0.0215(17) 0.0285(19) 0.0070(14) 0.0020(14) 0.0023(14)
O4 O2- 0.0223(18) 0.0212(17) 0.0277(19) 0.0038(14) 0.0070(14) -0.0001(14)
O5 O2- 0.0293(19) 0.0210(17) 0.0216(18) 0.0041(15) 0.0010(14) 0.0042(14)
O6 O2- 0.0243(18) 0.032(2) 0.0207(17) 0.0097(16) 0.0026(14) 0.0002(15)
O7 O2- 0.0270(19) 0.0201(17) 0.0227(18) 0.0058(14) 0.0071(14) 0.0022(14)
O8 O2- 0.0252(18) 0.0270(18) 0.0196(17) 0.0069(15) 0.0046(14) 0.0035(14)
#End of TTdata_171329-ICSD