
#(C) 2019 by FIZ Karlsruhe - Leibniz Institute for Information Infrastructure.  All rights reserved.
data_171631-ICSD
_database_code_ICSD 171631
_audit_creation_date 2006-10-01
_chemical_name_systematic 'Sodium copper germanate silicate *'
_chemical_formula_structural 'Na2 Cu3 Ge3.13 Si0.87 O12'
_chemical_formula_sum 'Cu3 Ge3.13 Na2 O12 Si0.87'
_chemical_name_structure_type Na2Cu3(GeO3)4
_exptl_crystal_density_diffrn 4.51
_cell_measurement_temperature 298.
_publ_section_title

;
New cuprates featuring ladderlike periodic arrays of [Cu3 O8](10-) trimeric
magnetic nanostructure
;
loop_
_citation_id
_citation_journal_full
_citation_year
_citation_journal_volume
_citation_page_first
_citation_page_last
_citation_journal_id_ASTM
primary 'Inorganic Chemistry' 2006 45 3478 3480 INOCAJ
loop_
_publ_author_name
'Mo, X.'
'Etheredge, K.M.S.'
'Hwu, S.-J.'
'Huang, Q.'
_cell_length_a 6.1719(12)
_cell_length_b 7.6784(15)
_cell_length_c 5.4198(11)
_cell_angle_alpha 102.22(3)
_cell_angle_beta 93.26(3)
_cell_angle_gamma 87.84(3)
_cell_volume 250.53
_cell_formula_units_Z 1
_symmetry_space_group_name_H-M 'P -1'
_symmetry_Int_Tables_number 2
_refine_ls_R_factor_all 0.0266
loop_
_symmetry_equiv_pos_site_id
_symmetry_equiv_pos_as_xyz
1 '-x, -y, -z'
2 'x, y, z'
loop_
_atom_type_symbol
_atom_type_oxidation_number
Ge4+ 4
Si4+ 4
Ge4+ 4
Si4+ 4
Cu2+ 2
Na1+ 1
O2- -2
loop_
_atom_site_label
_atom_site_type_symbol
_atom_site_symmetry_multiplicity
_atom_site_Wyckoff_symbol
_atom_site_fract_x
_atom_site_fract_y
_atom_site_fract_z
_atom_site_B_iso_or_equiv
_atom_site_occupancy
_atom_site_attached_hydrogens
Ge1 Ge4+ 2 i 0.22129(8) 0.37097(6) 0.30640(9) 0.0059(2) 0.697(5) 0
Si1 Si4+ 2 i 0.22129(8) 0.37097(6) 0.30640(9) 0.0059(2) 0.303(5) 0
Ge2 Ge4+ 2 i 0.39748(7) 0.18236(6) 0.75831(8) 0.0065(2) 0.872(5) 0
Si2 Si4+ 2 i 0.39748(7) 0.18236(6) 0.75831(8) 0.0065(2) 0.128(5) 0
Cu1 Cu2+ 1 a 0. 0. 0. 0.0088(2) 1 0
Cu2 Cu2+ 2 i 0.15793(8) 0.82047(6) 0.49010(9) 0.0071(2) 1 0
Na1 Na1+ 2 i 0.2451(3) 0.5905(2) 0.9055(3) 0.0143(4) 1 0
O1 O2- 2 i 0.0111(5) 0.2268(4) 0.2343(5) 0.0077(6) 1 0
O2 O2- 2 i 0.4006(5) 0.3168(4) 0.0663(5) 0.0120(6) 1 0
O3 O2- 2 i 0.3615(5) 0.3498(4) 0.5802(5) 0.0114(6) 1 0
O4 O2- 2 i 0.1713(5) 0.0535(4) 0.7296(5) 0.0104(6) 1 0
O5 O2- 2 i 0.6534(5) 0.0956(4) 0.7300(6) 0.0138(6) 1 0
O6 O2- 2 i 0.1261(5) 0.5781(4) 0.3022(5) 0.0121(6) 1 0
loop_
_atom_site_aniso_label
_atom_site_aniso_type_symbol
_atom_site_aniso_U_11
_atom_site_aniso_U_22
_atom_site_aniso_U_33
_atom_site_aniso_U_12
_atom_site_aniso_U_13
_atom_site_aniso_U_23
Ge1 Ge4+ 0.0078(3) 0.0048(3) 0.0049(3) -0.0013(2) 0.0011(2) 0.0002(2)
Si1 Si4+ 0.0078(3) 0.0048(3) 0.0049(3) -0.0013(2) 0.0011(2) 0.0002(2)
Ge2 Ge4+ 0.0070(3) 0.0060(3) 0.0068(3) -0.00162(18) 0.00264(19) 0.00096(18)
Si2 Si4+ 0.0070(3) 0.0060(3) 0.0068(3) -0.00162(18) 0.00264(19) 0.00096(18)
Cu1 Cu2+ 0.0153(4) 0.0051(4) 0.0058(4) -0.0036(3) 0.0060(3) -0.0017(3)
Cu2 Cu2+ 0.0103(3) 0.0051(3) 0.0057(3) -0.00133(19) 0.0038(2) -0.00044(19)
Na1 Na1+ 0.0131(8) 0.0165(8) 0.0149(9) 0.0015(6) 0.0023(6) 0.0068(7)
O1 O2- 0.0102(14) 0.0050(12) 0.0074(13) -0.0024(10) 0.0040(11) -0.0010(10)
O2 O2- 0.0148(15) 0.0107(14) 0.0095(14) -0.0046(11) 0.0042(11) -0.0020(11)
O3 O2- 0.0147(15) 0.0108(13) 0.0097(14) 0.0002(11) 0.0007(11) 0.0042(10)
O4 O2- 0.0155(16) 0.0072(13) 0.0082(14) -0.0046(11) 0.0055(12) -0.0008(10)
O5 O2- 0.0135(15) 0.0153(14) 0.0147(15) 0.0014(12) 0.0065(12) 0.0068(12)
O6 O2- 0.0182(15) 0.0066(13) 0.0099(14) -0.0019(11) 0.0045(12) -0.0034(10)
#End of TTdata_171631-ICSD