
#(C) 2019 by FIZ Karlsruhe - Leibniz Institute for Information Infrastructure.  All rights reserved.
data_171746-ICSD
_database_code_ICSD 171746
_audit_creation_date 2006-10-01
_audit_update_record 2014-08-01
_chemical_name_systematic 'Sodium neptunyl sulfate dihydrate'
_chemical_formula_structural 'Na (Np O2) (S O4) (H2 O)'
_chemical_formula_sum 'H2 Na1 Np1 O7 S1'
_chemical_name_structure_type NaNpO2SO4H2O
_exptl_crystal_density_diffrn 4.54
_publ_section_title

;
The crystal structures and magnetic properties of Na K3 (Np O2)4 (S O4)4 (H2
O)2 and Na Np O2 SO4 H2O: Cation-cation interactions in a neptunyl sulfate
framework
;
loop_
_citation_id
_citation_journal_full
_citation_year
_citation_journal_volume
_citation_page_first
_citation_page_last
_citation_journal_id_ASTM
primary 'Chemistry of Materials' 2006 18 1643 1649 CMATEX
loop_
_publ_author_name
'Forbes, T.Z.'
'Burns, P.C.'
'Soderholm, L.'
'Skanthakumar, S.'
_cell_length_a 18.3638(13)
_cell_length_b 5.6424(4)
_cell_length_c 23.5512(17)
_cell_angle_alpha 90.
_cell_angle_beta 103.366(2)
_cell_angle_gamma 90.
_cell_volume 2374.18
_cell_formula_units_Z 16
_symmetry_space_group_name_H-M 'C 1 2/c 1'
_symmetry_Int_Tables_number 15
_refine_ls_R_factor_all 0.0623
loop_
_symmetry_equiv_pos_site_id
_symmetry_equiv_pos_as_xyz
1 'x, -y, z+1/2'
2 '-x, -y, -z'
3 '-x, y, -z+1/2'
4 'x, y, z'
5 'x+1/2, -y+1/2, z+1/2'
6 '-x+1/2, -y+1/2, -z'
7 '-x+1/2, y+1/2, -z+1/2'
8 'x+1/2, y+1/2, z'
loop_
_atom_type_symbol
_atom_type_oxidation_number
Np5+ 5
Na1+ 1
S6+ 6
O2- -2
H1+ 1
loop_
_atom_site_label
_atom_site_type_symbol
_atom_site_symmetry_multiplicity
_atom_site_Wyckoff_symbol
_atom_site_fract_x
_atom_site_fract_y
_atom_site_fract_z
_atom_site_B_iso_or_equiv
_atom_site_occupancy
_atom_site_attached_hydrogens
Np1 Np5+ 8 f 0.038872(12) 1.00299(4) 0.136767(9) 0.00905(5) 1 0
Np2 Np5+ 8 f 0.199485(12) 0.51784(4) 0.190876(9) 0.00947(5) 1 0
Na1 Na1+ 4 b 0. 0.5 0. 0.072(2) 1 0
Na2 Na1+ 4 e 0. 0.3694(7) 0.25 0.0195(8) 1 0
Na3 Na1+ 8 f -0.21316(17) 0.7613(5) 0.07448(12) 0.0235(6) 1 0
S1 S6+ 8 f -0.10387(8) 0.9611(3) -0.00142(6) 0.0121(3) 1 0
S2 S6+ 8 f 0.10613(9) 0.8161(3) 0.28607(7) 0.0100(3) 1 0
O1 O2- 8 f 0.0835(2) 1.0115(8) 0.24447(17) 0.0152(8) 1 0
O2 O2- 8 f 0.0686(3) 0.1471(8) 0.04558(19) 0.0155(9) 1 0
O3 O2- 8 f -0.0503(2) 0.7743(8) 0.1795(2) 0.0144(9) 1 0
O4 O2- 8 f 0.3208(2) 0.3736(8) 0.17435(19) 0.0158(9) 1 0
O5 O2- 8 f 0.2210(3) 0.6111(8) 0.0913(2) 0.0186(10) 1 0
O6 O2- 8 f 0.1536(3) 0.2415(7) 0.16036(19) 0.0140(9) 1 0
O7 O2- 8 f -0.0129(3) 0.2701(8) 0.1455(2) 0.0169(10) 1 0
O8 O2- 8 f -0.0640(3) 0.8708(8) 0.05639(19) 0.0182(10) 1 0
O9 O2- 8 f 0.0932(3) 0.7311(7) 0.13247(19) 0.0141(9) 1 0
O10 O2- 8 f 0.2456(3) 0.7960(8) 0.22187(19) 0.0149(9) 1 0
O11 O2- 8 f 0.1130(2) 0.5929(8) 0.25412(19) 0.0151(9) 1 0
O12 O2- 8 f -0.0992(3) 0.2224(8) -0.0034(2) 0.0195(10) 1 0
O13 O2- 8 f -0.1822(3) 0.8907(9) -0.0114(2) 0.0239(11) 1 0
O14 O2- 8 f -0.1600(3) 0.3916(10) 0.0886(2) 0.0279(12) 1 0
H1 H1+ 8 f -0.142(5) 0.342(15) 0.056(3) 0.05 1 0
H2 H1+ 8 f 0.262(3) 0.713(13) 0.090(4) 0.05 1 0
H3 H1+ 8 f -0.120(4) 0.353(16) 0.121(3) 0.05 1 0
H4 H1+ 8 f 0.182(4) 0.710(13) 0.071(3) 0.05 1 0
loop_
_atom_site_aniso_label
_atom_site_aniso_type_symbol
_atom_site_aniso_U_11
_atom_site_aniso_U_22
_atom_site_aniso_U_33
_atom_site_aniso_U_12
_atom_site_aniso_U_13
_atom_site_aniso_U_23
Np1 Np5+ 0.00783(10) 0.01062(10) 0.00855(10) 0.00067(9) 0.00160(8) 0.00042(9)
Np2 Np5+ 0.00813(10) 0.01016(10) 0.01002(10) 0.00043(9) 0.00192(8) -0.00016(9)
Na1 Na1+ 0.023(3) 0.020(3) 0.174(7) 0.002(2) 0.023(3) 0.031(3)
Na2 Na1+ 0.018(2) 0.0199(19) 0.020(2) 0. 0.0048(17) 0.
Na3 Na1+ 0.0291(17) 0.0241(15) 0.0164(14) 0.0014(13) 0.0032(13) -0.0023(11)
S1 S6+ 0.0091(6) 0.0168(7) 0.0104(6) -0.0012(6) 0.0024(5) 0.0008(5)
S2 S6+ 0.0080(7) 0.0133(6) 0.0089(6) -0.0011(5) 0.0026(5) -0.0004(5)
O1 O2- 0.013(2) 0.020(2) 0.0121(19) -0.0020(19) 0.0016(16) 0.0038(18)
O2 O2- 0.014(2) 0.020(2) 0.012(2) 0.0005(18) 0.0040(18) 0.0006(18)
O3 O2- 0.011(2) 0.018(2) 0.017(2) -0.0035(17) 0.0064(18) -0.0042(17)
O4 O2- 0.008(2) 0.025(2) 0.012(2) 0.0019(18) -0.0020(18) 0.0021(18)
O5 O2- 0.016(2) 0.023(2) 0.016(2) 0.0069(19) 0.002(2) 0.0086(19)
O6 O2- 0.014(2) 0.013(2) 0.014(2) -0.0033(17) -0.0003(18) 0.0001(16)
O7 O2- 0.016(2) 0.015(2) 0.019(2) 0.0039(18) 0.003(2) -0.0008(18)
O8 O2- 0.020(3) 0.022(2) 0.011(2) -0.004(2) 0.0004(19) 0.0018(18)
O9 O2- 0.016(2) 0.014(2) 0.012(2) 0.0051(17) 0.0027(18) 0.0014(16)
O10 O2- 0.014(2) 0.017(2) 0.012(2) -0.0023(18) 0.0003(18) -0.0021(17)
O11 O2- 0.012(2) 0.018(2) 0.017(2) -0.0021(17) 0.0072(19) -0.0064(17)
O12 O2- 0.019(3) 0.019(2) 0.020(3) 0.0042(19) 0.004(2) 0.0051(19)
O13 O2- 0.010(2) 0.035(3) 0.028(3) -0.004(2) 0.007(2) 0.001(2)
O14 O2- 0.016(3) 0.030(3) 0.033(3) 0.006(2) -0.005(2) -0.002(2)
#End of TTdata_171746-ICSD