
#(C) 2019 by FIZ Karlsruhe - Leibniz Institute for Information Infrastructure.  All rights reserved.
data_171918-ICSD
_database_code_ICSD 171918
_audit_creation_date 2007-04-01
_chemical_name_systematic 'Sodium manganese iron phosphate  (1.74/1/1.96/3)'
_chemical_formula_structural 'Na1.738 Mn Fe1.964 (P O4)3'
_chemical_formula_sum 'Fe1.964 Mn1 Na1.738 O12 P3'
_chemical_name_structure_type Alluaudite
_chemical_name_mineral Alluaudite
_exptl_crystal_density_diffrn 3.68
_publ_section_title

;
Crystal chemistry of the hydrothermally synthesized Na2 (Mn(1-x) Fe(2+)(x))2
Fe(3+) (P O4)3 alluaudite-type solid solution
;
loop_
_citation_id
_citation_journal_full
_citation_year
_citation_journal_volume
_citation_page_first
_citation_page_last
_citation_journal_id_ASTM
primary 'American Mineralogist' 2005 90 653 662 AMMIAY
loop_
_publ_author_name
'Hatert, F.'
'Rebbough, L.'
'Hermann, R.P.'
'Fransolet, A.M.'
'Long, G.-J.'
'Grandjean, F.'
_cell_length_a 11.944(2)
_cell_length_b 12.560(2)
_cell_length_c 6.480(1)
_cell_angle_alpha 90
_cell_angle_beta 114.52(1)
_cell_angle_gamma 90
_cell_volume 884.44
_cell_formula_units_Z 4
_symmetry_space_group_name_H-M 'C 1 2/c 1'
_symmetry_Int_Tables_number 15
_refine_ls_R_factor_all 0.0214
loop_
_symmetry_equiv_pos_site_id
_symmetry_equiv_pos_as_xyz
1 'x, -y, z+1/2'
2 '-x, -y, -z'
3 '-x, y, -z+1/2'
4 'x, y, z'
5 'x+1/2, -y+1/2, z+1/2'
6 '-x+1/2, -y+1/2, -z'
7 '-x+1/2, y+1/2, -z+1/2'
8 'x+1/2, y+1/2, z'
loop_
_atom_type_symbol
_atom_type_oxidation_number
Na1+ 1
Mn2+ 2
Fe2+ 2.68
P5+ 5
O2- -2
loop_
_atom_site_label
_atom_site_type_symbol
_atom_site_symmetry_multiplicity
_atom_site_Wyckoff_symbol
_atom_site_fract_x
_atom_site_fract_y
_atom_site_fract_z
_atom_site_B_iso_or_equiv
_atom_site_occupancy
_atom_site_attached_hydrogens
Na1 Na1+ 4 e 0. -0.0113(7) 0.25 0.0152 0.760(5) 0
Na2 Na1+ 4 b 0.5 0. 0. 0.02026 0.978(5) 0
Mn1 Mn2+ 4 e 0. 0.2690(3) 0.25 0.01267 1. 0
Fe1 Fe2+ 8 f 0.2795(3) 0.6573(2) 0.3641(5) 0.01267 0.982(7) 0
P1 P5+ 4 e 0. -0.2846(5) 0.25 0.01267 1. 0
P2 P5+ 8 f 0.2370(4) -0.1106(3) 0.1238(9) 0.01267 1. 0
O1 O2- 8 f 0.4584(7) 0.7139(6) 0.538(1) 0.01393 1. 0
O2 O2- 8 f 0.1027(8) 0.6433(5) 0.239(1) 0.01393 1. 0
O3 O2- 8 f 0.3365(7) 0.6703(5) 0.110(1) 0.01393 1. 0
O4 O2- 8 f 0.1270(7) 0.3992(5) 0.328(1) 0.01393 1. 0
O5 O2- 8 f 0.2283(6) 0.8256(6) 0.326(1) 0.01393 1. 0
O6 O2- 8 f 0.3235(6) 0.4947(7) 0.384(1) 0.01393 1. 0
#End of TTdata_171918-ICSD