
#(C) 2019 by FIZ Karlsruhe - Leibniz Institute for Information Infrastructure.  All rights reserved.
data_172056-ICSD
_database_code_ICSD 172056
_audit_creation_date 2007-04-01
_chemical_name_systematic 'Trisodium titanium(III) nitride tris(phosphate)'
_chemical_formula_structural 'Na3 Ti N (P O3)3'
_chemical_formula_sum 'N1 Na3 O9 P3 Ti1'
_chemical_name_structure_type Na3AlN(PO3)3
_exptl_crystal_density_diffrn 2.85
_cell_measurement_temperature 298.
_publ_section_title 'The mixed-metal nitridophosphate Na3 Ti N( P O3)3'
loop_
_citation_id
_citation_journal_full
_citation_year
_citation_journal_volume
_citation_page_first
_citation_page_last
_citation_journal_id_ASTM
primary 'Acta Crystallographica, Section E: Structure Reports Online' 2006 62
i32 i34 ACSEBH
loop_
_publ_author_name
'Zatovsky, I.V.'
'Vorobjova, T.V.'
'Domasevitch, K.V.'
'Ogorodnyk, I.V.'
'Slobodyanik, N.S.'
_cell_length_a 9.4984(10)
_cell_length_b 9.4984(10)
_cell_length_c 9.4984(10)
_cell_angle_alpha 90
_cell_angle_beta 90
_cell_angle_gamma 90
_cell_volume 856.94
_cell_formula_units_Z 4
_symmetry_space_group_name_H-M 'P 21 3'
_symmetry_Int_Tables_number 198
_refine_ls_R_factor_all 0.032
loop_
_symmetry_equiv_pos_site_id
_symmetry_equiv_pos_as_xyz
1 '-z+1/2, -x, y+1/2'
2 '-y+1/2, -z, x+1/2'
3 '-x+1/2, -y, z+1/2'
4 '-z, x+1/2, -y+1/2'
5 '-y, z+1/2, -x+1/2'
6 '-x, y+1/2, -z+1/2'
7 'z+1/2, -x+1/2, -y'
8 'y+1/2, -z+1/2, -x'
9 'x+1/2, -y+1/2, -z'
10 'z, x, y'
11 'y, z, x'
12 'x, y, z'
loop_
_atom_type_symbol
_atom_type_oxidation_number
Na1+ 1
Ti3+ 3
P5+ 5
N3- -3
O2- -2
loop_
_atom_site_label
_atom_site_type_symbol
_atom_site_symmetry_multiplicity
_atom_site_Wyckoff_symbol
_atom_site_fract_x
_atom_site_fract_y
_atom_site_fract_z
_atom_site_B_iso_or_equiv
_atom_site_occupancy
_atom_site_attached_hydrogens
Na1 Na1+ 4 a -0.2614(3) 0.7386(3) 0.7386(3) 0.0255(9) 1 0
Na2 Na1+ 4 a 0.1423(2) 0.6423(2) 0.8577(2) 0.0181(8) 1 0
Na3 Na1+ 4 a -0.0518(3) 0.9482(3) 0.9482(3) 0.0290(11) 1 0
Ti1 Ti3+ 4 a 0.33070(9) 0.83070(9) 0.66930(9) 0.0109(3) 1 0
P1 P5+ 12 b 0.00415(13) 0.83568(14) 0.58270(13) 0.0092(3) 1 0
N1 N3- 4 a 0.0515(4) 0.9485(4) 0.4485(4) 0.0087(14) 1 0
O1 O2- 12 b -0.0986(4) 0.7293(4) 0.5200(4) 0.0154(8) 1 0
O2 O2- 12 b 0.1372(4) 0.7568(4) 0.6237(4) 0.0124(8) 1 0
O3 O2- 12 b -0.0615(4) 0.9181(4) 0.7002(4) 0.0170(9) 1 0
loop_
_atom_site_aniso_label
_atom_site_aniso_type_symbol
_atom_site_aniso_U_11
_atom_site_aniso_U_22
_atom_site_aniso_U_33
_atom_site_aniso_U_12
_atom_site_aniso_U_13
_atom_site_aniso_U_23
Na1 Na1+ 0.0255(9) 0.0255(9) 0.0255(9) 0.0050(11) 0.0050(11) 0.0050(11)
Na2 Na1+ 0.0181(8) 0.0181(8) 0.0181(8) -0.0031(8) 0.0031(8) 0.0031(8)
Na3 Na1+ 0.0290(11) 0.0290(11) 0.0290(11) -0.0026(10) -0.0026(10) -0.0026(10)
Ti1 Ti3+ 0.0109(3) 0.0109(3) 0.0109(3) 0.0002(4) -0.0002(4) -0.0002(4)
P1 P5+ 0.0096(5) 0.0105(6) 0.0076(6) -0.0004(5) 0.0006(5) 0.0005(6)
N1 N3- 0.0087(14) 0.0087(14) 0.0087(14) -0.0031(15) -0.0031(15) 0.0031(15)
O1 O2- 0.0168(17) 0.0179(18) 0.0114(17) -0.0051(17) -0.0003(15) 0.0016(15)
O2 O2- 0.0124(18) 0.0094(16) 0.0155(18) -0.0009(13) -0.0012(14) 0.0010(14)
O3 O2- 0.0225(19) 0.0162(18) 0.0123(18) 0.0050(18) 0.0054(15) -0.0012(16)
#End of TTdata_172056-ICSD