
#(C) 2018 by FIZ Karlsruhe - Leibniz Institute for Information Infrastructure.  All rights reserved.
data_172041-ICSD
_database_code_ICSD 172041
_audit_creation_date 2007-04-01
_chemical_name_systematic 'Dipraseodymium barium lithium ruthenium oxide'
_chemical_formula_structural 'La2 Ba Li Ru O7'
_chemical_formula_sum 'Ba1 La2 Li1 O7 Ru1'
_chemical_name_structure_type BaLiPr2RuO7
_exptl_crystal_density_diffrn 6.47
_publ_section_title 'Structural chemistry of Ln2 Ba Li Ru O7 (Ln = La, Pr)'
loop_
_citation_id
_citation_journal_full
_citation_year
_citation_journal_volume
_citation_page_first
_citation_page_last
_citation_journal_id_ASTM
primary 'Solid State Sciences' 2006 8 280 288 SSSCFJ
loop_
_publ_author_name
'Battle, P.D.'
'Grey, C.P.'
'Rodgers, J.A.'
'Sloan, J.'
_cell_length_a 5.5957(1)
_cell_length_b 5.5894(2)
_cell_length_c 20.8326(4)
_cell_angle_alpha 90
_cell_angle_beta 89.984(4)
_cell_angle_gamma 90
_cell_volume 651.57
_cell_formula_units_Z 4
_symmetry_space_group_name_H-M 'B 1 21 1'
_symmetry_Int_Tables_number 4
_refine_ls_R_factor_all 0.0433
loop_
_symmetry_equiv_pos_site_id
_symmetry_equiv_pos_as_xyz
1 '-x, -y+1/2, -z'
2 'x, y, z'
3 '-x+1/2, -y+1/2, -z+1/2'
4 'x+1/2, y, z+1/2'
loop_
_atom_type_symbol
_atom_type_oxidation_number
La3+ 3
Ba2+ 2
La3+ 3
Ba2+ 2
La3+ 3
Li1+ 1
Ru5+ 5
Li1+ 1
Ru5+ 5
O2- -2
loop_
_atom_site_label
_atom_site_type_symbol
_atom_site_symmetry_multiplicity
_atom_site_Wyckoff_symbol
_atom_site_fract_x
_atom_site_fract_y
_atom_site_fract_z
_atom_site_B_iso_or_equiv
_atom_site_occupancy
_atom_site_attached_hydrogens
La1 La3+ 4 a 0.743(1) 0.75 0.0006(4) 0.0095(9) .07(1) 0
Ba1 Ba2+ 4 a 0.743(1) 0.75 0.0006(4) 0.0095(9) .93(1) 0
La2 La3+ 4 a 0.733(1) 0.761(4) 0.1810(2) .006(1) .93(1) 0
Ba2 Ba2+ 4 a 0.733(1) 0.761(4) 0.1810(2) .006(1) .07(1) 0
La3 La3+ 4 a 0.252(1) 0.251(4) 0.1810(2) .010(1) 1 0
Li1 Li1+ 4 a 0.22(2) 0.74(4) 0.077(3) .007(1) .809(5) 0
Ru1 Ru5+ 4 a 0.22(2) 0.74(4) 0.077(3) .007(1) .191(5) 0
Li2 Li1+ 4 a 0.747(2) 0.258(6) 0.0989(2) .007(1) .190(5) 0
Ru2 Ru5+ 4 a 0.747(2) 0.258(6) 0.0989(2) .007(1) .810(5) 0
O1 O2- 4 a 0.233(1) 0.747(4) -0.0090(2) .010(4) 1. 0
O2 O2- 4 a 0.503(3) 0.499(5) 0.1023(6) .010(4) 1. 0
O3 O2- 4 a -0.003(3) 0.500(4) 0.1078(6) .010(4) 1. 0
O4 O2- 4 a 0.717(2) 0.251(5) 0.2038(3) .010(4) 1. 0
O5 O2- 4 a -0.005(3) 0.009(4) 0.1108(6) .010(4) 1. 0
O6 O2- 4 a 0.295(2) 0.716(4) 0.2058(4) .010(4) 1. 0
O7 O2- 4 a 0.506(3) 0.003(4) 0.0996(6) .010(4) 1. 0
#End of TTdata_172041-ICSD