
#(C) 2019 by FIZ Karlsruhe - Leibniz Institute for Information Infrastructure.  All rights reserved.
data_172057-ICSD
_database_code_ICSD 172057
_audit_creation_date 2007-04-01
_chemical_name_systematic 'Sodium cesium molybdenum sulfide (2.54/1.14/9/11)'
_chemical_formula_structural 'Na2.54 Cs1.14 Mo9 S11'
_chemical_formula_sum 'Cs1.14 Mo9 Na2.54 S11'
_exptl_crystal_density_diffrn 4.8
_publ_section_title

;
Na2.54 Cs1.14 Mo9 S11, a quaternary reduced molybdenum sulfide containing Mo9
clusters
;
loop_
_citation_id
_citation_journal_full
_citation_year
_citation_journal_volume
_citation_page_first
_citation_page_last
_citation_journal_id_ASTM
primary 'Acta Crystallographica, Section E: Structure Reports Online' 2006 62
i35 i37 ACSEBH
loop_
_publ_author_name
'Salloum, D.'
'Gougeon, P.'
'Potel, M.'
_cell_length_a 9.8888(2)
_cell_length_b 9.8888(2)
_cell_length_c 11.6398(3)
_cell_angle_alpha 90.
_cell_angle_beta 90.
_cell_angle_gamma 120.
_cell_volume 985.74
_cell_formula_units_Z 2
_symmetry_space_group_name_H-M 'P 63/m'
_symmetry_Int_Tables_number 176
_refine_ls_R_factor_all 0.0498
loop_
_symmetry_equiv_pos_site_id
_symmetry_equiv_pos_as_xyz
1 '-x+y, -x, -z+1/2'
2 '-y, x-y, -z+1/2'
3 'x, y, -z+1/2'
4 'x-y, x, -z'
5 'y, -x+y, -z'
6 '-x, -y, -z'
7 'x-y, x, z+1/2'
8 'y, -x+y, z+1/2'
9 '-x, -y, z+1/2'
10 '-x+y, -x, z'
11 '-y, x-y, z'
12 'x, y, z'
loop_
_atom_type_symbol
_atom_type_oxidation_number
Mo2+ 2.04
S2- -2
Na1+ 1
Cs1+ 1
loop_
_atom_site_label
_atom_site_type_symbol
_atom_site_symmetry_multiplicity
_atom_site_Wyckoff_symbol
_atom_site_fract_x
_atom_site_fract_y
_atom_site_fract_z
_atom_site_B_iso_or_equiv
_atom_site_occupancy
_atom_site_attached_hydrogens
Mo1 Mo2+ 12 i 0.51974(3) 0.34462(3) -0.06086(2) 0.00738(6) 1 0
Mo2 Mo2+ 6 h 0.50528(4) 0.18070(4) -0.25 0.00721(7) 1 0
S1 S2- 12 i 0.36432(9) 0.05329(9) -0.06686(7) 0.00963(12) 1 0
S2 S2- 6 h 0.65178(13) 0.03935(13) -0.25 0.01112(18) 1 0
S3 S2- 4 f 0.6667 0.3333 0.10097(11) 0.0120(2) 1 0
Na1 Na1+ 6 h 0.4276(3) 0.2611(3) 0.25 0.0180(7) 0.845(11) 0
Cs1 Cs1+ 2 b 0. 0. 0. 0.085(4) 0.57(3) 0
Cs2 Cs1+ 4 e 0. 0. -0.109(7) 0.32(3) 0.284(18) 0
loop_
_atom_site_aniso_label
_atom_site_aniso_type_symbol
_atom_site_aniso_U_11
_atom_site_aniso_U_22
_atom_site_aniso_U_33
_atom_site_aniso_U_12
_atom_site_aniso_U_13
_atom_site_aniso_U_23
Mo1 Mo2+ 0.00844(10) 0.00828(10) 0.00544(9) 0.00419(8) 0.00035(7) -0.00009(7)
Mo2 Mo2+ 0.00816(13) 0.00810(13) 0.00512(12) 0.00388(11) 0. 0.
S1 S2- 0.0103(3) 0.0090(3) 0.0086(3) 0.0041(2) 0.0012(2) 0.0016(2)
S2 S2- 0.0141(4) 0.0101(4) 0.0105(4) 0.0070(4) 0. 0.
S3 S2- 0.0147(3) 0.0147(3) 0.0065(5) 0.00737(16) 0. 0.
Na1 Na1+ 0.0221(14) 0.0177(13) 0.0196(13) 0.0140(11) 0. 0.
Cs1 Cs1+ 0.0129(10) 0.0129(10) 0.230(9) 0.0065(5) 0. 0.
Cs2 Cs1+ 0.048(2) 0.048(2) 0.87(10) 0.0241(11) 0. 0.
#End of TTdata_172057-ICSD