
#(C) 2019 by FIZ Karlsruhe - Leibniz Institute for Information Infrastructure.  All rights reserved.
data_172205-ICSD
_database_code_ICSD 172205
_audit_creation_date 2007-04-01
_chemical_name_systematic 'Praseodymium sodium rhodium oxide (2.45/1.55/1/6)'
_chemical_formula_structural 'Pr2.45 Na1.55 Rh O6'
_chemical_formula_sum 'Na1.55 O6 Pr2.45 Rh1'
_chemical_name_structure_type K4CdCl6
_exptl_crystal_density_diffrn 6.7
_cell_measurement_temperature 150.
_publ_section_title

;
Single-crystal structure of the 2H-related perovskites (A(3-x) Na(x)) Na B O6
(A = La, Pr, Nd; B = Rh, Pt)
;
loop_
_citation_id
_citation_journal_full
_citation_year
_citation_journal_volume
_citation_page_first
_citation_page_last
_citation_journal_id_ASTM
primary 'Inorganic Chemistry' 2006 45 4391 4395 INOCAJ
loop_
_publ_author_name
'Macquart, R.B.'
'Gemmill, W.R.'
'Davis, M.J.'
'Smith, M.D.'
'zur Loye, H.C.'
_cell_length_a 9.3534(2)
_cell_length_b 9.3534(2)
_cell_length_c 11.3386(5)
_cell_angle_alpha 90.
_cell_angle_beta 90.
_cell_angle_gamma 120.
_cell_volume 859.07
_cell_formula_units_Z 6
_symmetry_space_group_name_H-M 'R -3 c H'
_symmetry_Int_Tables_number 167
_refine_ls_R_factor_all 0.0322
loop_
_symmetry_equiv_pos_site_id
_symmetry_equiv_pos_as_xyz
1 'x-y, -y, -z+1/2'
2 '-x, -x+y, -z+1/2'
3 'y, x, -z+1/2'
4 'x-y, x, -z'
5 'y, -x+y, -z'
6 '-x, -y, -z'
7 '-x+y, y, z+1/2'
8 'x, x-y, z+1/2'
9 '-y, -x, z+1/2'
10 '-x+y, -x, z'
11 '-y, x-y, z'
12 'x, y, z'
13 'x-y+2/3, -y+1/3, -z+5/6'
14 '-x+2/3, -x+y+1/3, -z+5/6'
15 'y+2/3, x+1/3, -z+5/6'
16 'x-y+2/3, x+1/3, -z+1/3'
17 'y+2/3, -x+y+1/3, -z+1/3'
18 '-x+2/3, -y+1/3, -z+1/3'
19 '-x+y+2/3, y+1/3, z+5/6'
20 'x+2/3, x-y+1/3, z+5/6'
21 '-y+2/3, -x+1/3, z+5/6'
22 '-x+y+2/3, -x+1/3, z+1/3'
23 '-y+2/3, x-y+1/3, z+1/3'
24 'x+2/3, y+1/3, z+1/3'
25 'x-y+1/3, -y+2/3, -z+1/6'
26 '-x+1/3, -x+y+2/3, -z+1/6'
27 'y+1/3, x+2/3, -z+1/6'
28 'x-y+1/3, x+2/3, -z+2/3'
29 'y+1/3, -x+y+2/3, -z+2/3'
30 '-x+1/3, -y+2/3, -z+2/3'
31 '-x+y+1/3, y+2/3, z+1/6'
32 'x+1/3, x-y+2/3, z+1/6'
33 '-y+1/3, -x+2/3, z+1/6'
34 '-x+y+1/3, -x+2/3, z+2/3'
35 '-y+1/3, x-y+2/3, z+2/3'
36 'x+1/3, y+2/3, z+2/3'
loop_
_atom_type_symbol
_atom_type_oxidation_number
Pr3+ 3
Na1+ 1
Rh3+ 3
Na1+ 1
O2- -2
loop_
_atom_site_label
_atom_site_type_symbol
_atom_site_symmetry_multiplicity
_atom_site_Wyckoff_symbol
_atom_site_fract_x
_atom_site_fract_y
_atom_site_fract_z
_atom_site_B_iso_or_equiv
_atom_site_occupancy
_atom_site_attached_hydrogens
Pr1 Pr3+ 18 e 0. 0.36348(4) 0.25 0.00656(13) 0.816(5) 0
Na1 Na1+ 18 e 0. 0.36348(4) 0.25 0.00656(13) 0.184(5) 0
Rh1 Rh3+ 6 b 0. 0. 0. 0.0040(2) 1 0
Na2 Na1+ 6 a 0. 0. 0.25 0.0086(8) 1 0
O1 O2- 36 f 0.1934(4) 0.0299(4) 0.1044(3) 0.0088(6) 1 0
loop_
_atom_site_aniso_label
_atom_site_aniso_type_symbol
_atom_site_aniso_U_11
_atom_site_aniso_U_22
_atom_site_aniso_U_33
_atom_site_aniso_U_12
_atom_site_aniso_U_13
_atom_site_aniso_U_23
Pr1 Pr3+ 0.00631(19) 0.00756(16) 0.00541(17) 0.00315(9) -0.00044(12) -0.00022(6)
Na1 Na1+ 0.00631(19) 0.00756(16) 0.00541(17) 0.00315(9) -0.00044(12) -0.00022(6)
Rh1 Rh3+ 0.0038(2) 0.0038(2) 0.0042(3) 0.00191(12) 0. 0.
Na2 Na1+ 0.0095(12) 0.0095(12) 0.0067(17) 0.0047(6) 0. 0.
O1 O2- 0.0070(13) 0.0111(14) 0.0085(12) 0.0046(12) -0.0014(10) 0.0000(10)
#End of TTdata_172205-ICSD