
#(C) 2019 by FIZ Karlsruhe - Leibniz Institute for Information Infrastructure.  All rights reserved.
data_172420-ICSD
_database_code_ICSD 172420
_audit_creation_date 2007-04-01
_chemical_name_systematic 'Sodium strontium borate'
_chemical_formula_structural 'Na Sr B O3'
_chemical_formula_sum 'B1 Na1 O3 Sr1'
_chemical_name_structure_type RbHgSbSe3
_exptl_crystal_density_diffrn 3.84
_publ_section_title
'AB initio structure determination of novel borate Na Sr B O3'
loop_
_citation_id
_citation_journal_full
_citation_year
_citation_journal_volume
_citation_page_first
_citation_page_last
_citation_journal_id_ASTM
primary 'Journal of Solid State Chemistry' 2006 179 1219 1224 JSSCBI
loop_
_publ_author_name
'Wu, L.'
'Chen, X.-L.'
'Zhang, Y.'
'Kong, Y.-F.'
'Xu, J.-J.'
'Xu, Y.-P.'
_cell_length_a 5.32446(7)
_cell_length_b 9.22684(1)
_cell_length_c 6.06683(8)
_cell_angle_alpha 90
_cell_angle_beta 100.589(1)
_cell_angle_gamma 90
_cell_volume 292.98
_cell_formula_units_Z 4
_symmetry_space_group_name_H-M 'P 1 21/c 1'
_symmetry_Int_Tables_number 14
_refine_ls_R_factor_all 0.0775
loop_
_symmetry_equiv_pos_site_id
_symmetry_equiv_pos_as_xyz
1 'x, -y+1/2, z+1/2'
2 '-x, -y, -z'
3 '-x, y+1/2, -z+1/2'
4 'x, y, z'
loop_
_atom_type_symbol
_atom_type_oxidation_number
Sr2+ 2
Na1+ 1
O2- -2
B3+ 3
loop_
_atom_site_label
_atom_site_type_symbol
_atom_site_symmetry_multiplicity
_atom_site_Wyckoff_symbol
_atom_site_fract_x
_atom_site_fract_y
_atom_site_fract_z
_atom_site_B_iso_or_equiv
_atom_site_occupancy
_atom_site_attached_hydrogens
Sr1 Sr2+ 4 e 0.2422(1) 0.4136(1) 0.2186(1) .0033(1) 1. 0
Na1 Na1+ 4 e 0.2554(7) 0.7573(3) 0.0309(4) .0109(2) 1. 0
O1 O2- 4 e -0.0390(5) 0.6395(3) 0.2263(3) .0142(5) 1. 0
O2 O2- 4 e -0.4274(5) 0.6484(3) 0.3631(3) .0086(5) 1. 0
O3 O2- 4 e 0.2677(5) 0.9413(2) 0.3177(3) .0097(4) 1. 0
B1 B3+ 4 e -0.2615(7) 0.5861(3) 0.2652(4) .0076(6) 1. 0
#End of TTdata_172420-ICSD