
#(C) 2019 by FIZ Karlsruhe - Leibniz Institute for Information Infrastructure.  All rights reserved.
data_172575-ICSD
_database_code_ICSD 172575
_audit_creation_date 2007-04-01
_chemical_name_systematic 'Sodium tecto-gallosilicate'
_chemical_formula_structural 'Na7.26 (Ga8.9 Si27.1 O72)'
_chemical_formula_sum 'Ga8.9 Na7.26 O72 Si27.1'
_chemical_name_structure_type Mazzite-frame
_chemical_name_mineral 'Zeolite MAZ (Na-,Ga-exchanged)'
_exptl_crystal_density_diffrn 2.01
_publ_section_title
'Structural chemical zoning in the boundary phase zeolite TNU-7 (EON)'
loop_
_citation_id
_citation_journal_full
_citation_year
_citation_journal_volume
_citation_page_first
_citation_page_last
_citation_journal_id_ASTM
primary 'Chemistry of Materials' 2006 18 3023 3033 CMATEX
loop_
_publ_author_name
'Han, B.'
'Chin, C.-H.'
'Warrender, S.J.'
'Lightfoot, P.'
'Wright, P.A.'
'Camblor, M.A.'
'Hong, S.B.'
_cell_length_a 18.314(2)
_cell_length_b 18.314(2)
_cell_length_c 7.6854(1)
_cell_angle_alpha 90.
_cell_angle_beta 90.
_cell_angle_gamma 120.
_cell_volume 2232.36
_cell_formula_units_Z 1
_symmetry_space_group_name_H-M 'P 63/m m c'
_symmetry_Int_Tables_number 194
_refine_ls_R_factor_all 0.074
loop_
_symmetry_equiv_pos_site_id
_symmetry_equiv_pos_as_xyz
1 'x, x-y, -z+1/2'
2 '-x+y, y, -z+1/2'
3 '-y, -x, -z+1/2'
4 '-x+y, -x, -z+1/2'
5 '-y, x-y, -z+1/2'
6 'x, y, -z+1/2'
7 '-x, -x+y, z+1/2'
8 'x-y, -y, z+1/2'
9 'y, x, z+1/2'
10 'x-y, x, z+1/2'
11 'y, -x+y, z+1/2'
12 '-x, -y, z+1/2'
13 '-x, -x+y, -z'
14 'x-y, -y, -z'
15 'y, x, -z'
16 'x-y, x, -z'
17 'y, -x+y, -z'
18 '-x, -y, -z'
19 'x, x-y, z'
20 '-x+y, y, z'
21 '-y, -x, z'
22 '-x+y, -x, z'
23 '-y, x-y, z'
24 'x, y, z'
loop_
_atom_type_symbol
_atom_type_oxidation_number
Na1+ 1
Si4+ 4
Ga3+ 3
Si4+ 4
Ga3+ 3
O2- -2
loop_
_atom_site_label
_atom_site_type_symbol
_atom_site_symmetry_multiplicity
_atom_site_Wyckoff_symbol
_atom_site_fract_x
_atom_site_fract_y
_atom_site_fract_z
_atom_site_B_iso_or_equiv
_atom_site_occupancy
_atom_site_attached_hydrogens
Na1 Na1+ 6 g 0.5 0 0 . .37(1) 0
Na2 Na1+ 6 h 0.2393(8) 0.1196(4) 0.25 . .84(1) 0
Si1 Si4+ 12 j 0.4865(3) 0.1537(2) 0.25 .0343(6) .7528 0
Ga1 Ga3+ 12 j 0.4865(3) 0.1537(2) 0.25 .0343(6) .2472 0
Si2 Si4+ 24 l 0.0937(2) 0.3553(2) 0.0451(3) .0343(6) .7528 0
Ga2 Ga3+ 24 l 0.0937(2) 0.3553(2) 0.0451(3) .0343(6) .2472 0
O1 O2- 6 h 0.7468(2) 1.4936(4) 0.25 .067(3) 1. 0
O2 O2- 6 h 0.5799(3) 1.1598(7) 0.25 .067(3) 1. 0
O3 O2- 12 j 0.0926(7) 0.3767(6) 0.25 .067(3) 1. 0
O4 O2- 24 l 0.1005(3) 0.4332(3) 0.9229(6) .067(3) 1. 0
O5 O2- 12 k 0.159(1) 0.318(1) 1.006(1) .067(3) 1. 0
O6 O2- 12 i 0.2771(2) 0 0 .067(3) 1. 0
#End of TTdata_172575-ICSD