
#(C) 2019 by FIZ Karlsruhe - Leibniz Institute for Information Infrastructure.  All rights reserved.
data_172520-ICSD
_database_code_ICSD 172520
_audit_creation_date 2007-04-01
_chemical_name_systematic 'Sodium ytterbium carbonate difluoride'
_chemical_formula_structural 'Na Yb (C O3) F2'
_chemical_formula_sum 'C1 F2 Na1 O3 Yb1'
_exptl_crystal_density_diffrn 4.97
_cell_measurement_temperature 298.
_publ_section_title 'Sodium ytterbium carbonate difluoride, Na Yb (C O3) F2'
loop_
_citation_id
_citation_journal_full
_citation_year
_citation_journal_volume
_citation_page_first
_citation_page_last
_citation_journal_id_ASTM
primary 'Acta Crystallographica, Section E: Structure Reports Online' 2006 62
i133 i134 ACSEBH
loop_
_publ_author_name
'Ben Ali, A.'
'Leblanc, M.'
'Maisonneuve, V.'
_cell_length_a 6.2430(10)
_cell_length_b 6.892(2)
_cell_length_c 9.127(2)
_cell_angle_alpha 90.
_cell_angle_beta 90.
_cell_angle_gamma 90.
_cell_volume 392.71
_cell_formula_units_Z 4
_symmetry_space_group_name_H-M 'P n m a'
_symmetry_Int_Tables_number 62
_refine_ls_R_factor_all 0.0389
loop_
_symmetry_equiv_pos_site_id
_symmetry_equiv_pos_as_xyz
1 'x+1/2, y, -z+1/2'
2 'x, -y+1/2, z'
3 '-x+1/2, y+1/2, z+1/2'
4 '-x, -y, -z'
5 '-x+1/2, -y, z+1/2'
6 '-x, y+1/2, -z'
7 'x+1/2, -y+1/2, -z+1/2'
8 'x, y, z'
loop_
_atom_type_symbol
_atom_type_oxidation_number
Na1+ 1
Yb3+ 3
C4+ 4
O2- -2
F1- -1
loop_
_atom_site_label
_atom_site_type_symbol
_atom_site_symmetry_multiplicity
_atom_site_Wyckoff_symbol
_atom_site_fract_x
_atom_site_fract_y
_atom_site_fract_z
_atom_site_B_iso_or_equiv
_atom_site_occupancy
_atom_site_attached_hydrogens
Na1 Na1+ 4 c 0.1691(7) 0.25 0.2173(5) 0.0208(11) 1 0
Yb1 Yb3+ 4 c 0.01201(5) 0.25 0.57782(4) 0.00582(15) 1 0
C1 C4+ 4 c 0.4582(15) 0.25 0.5622(11) 0.0093(17) 1 0
O1 O2- 4 c 0.3673(11) 0.25 0.6888(7) 0.0106(14) 1 0
O2 O2- 4 c 0.6586(12) 0.25 0.5451(9) 0.022(2) 1 0
O3 O2- 4 c 0.3346(11) 0.25 0.4501(8) 0.0174(18) 1 0
F1 F1- 8 d -0.0432(7) 0.4407(7) 0.3710(5) 0.0138(8) 1 0
loop_
_atom_site_aniso_label
_atom_site_aniso_type_symbol
_atom_site_aniso_U_11
_atom_site_aniso_U_22
_atom_site_aniso_U_33
_atom_site_aniso_U_12
_atom_site_aniso_U_13
_atom_site_aniso_U_23
Na1 Na1+ 0.0145(19) 0.035(3) 0.013(2) 0. 0.0026(16) 0.
Yb1 Yb3+ 0.0063(2) 0.0045(2) 0.0066(2) 0. 0.00015(13) 0.
C1 C4+ 0.005(3) 0.009(5) 0.014(4) 0. 0.004(3) 0.
O1 O2- 0.012(3) 0.016(4) 0.004(3) 0. 0.001(2) 0.
O2 O2- 0.008(3) 0.046(6) 0.013(4) 0. 0.000(3) 0.
O3 O2- 0.009(3) 0.035(5) 0.008(3) 0. -0.001(2) 0.
F1 F1- 0.0196(19) 0.009(2) 0.0134(18) -0.0014(18) -0.0016(16) -0.0003(16)
#End of TTdata_172520-ICSD