
#(C) 2019 by FIZ Karlsruhe - Leibniz Institute for Information Infrastructure.  All rights reserved.
data_172805-ICSD
_database_code_ICSD 172805
_audit_creation_date 2007-08-01
_chemical_name_systematic 'Sodium copper iron phosphate (0.5/1.33/2/3)'
_chemical_formula_structural 'Na0.5 Cu1.335 Fe2 (P O4)3'
_chemical_formula_sum 'Cu1.335 Fe2 Na0.5 O12 P3'
_chemical_name_structure_type Ag2Mn2(MoO4)3
_exptl_crystal_density_diffrn 3.96
_publ_section_title

;
Crystal structure, magnetic susceptibility and Moessbauer spectroscopy of the
mixed-valence iron phosphate Na1/2 Cu4/3 Fe2 (P O4)3
;
loop_
_citation_id
_citation_journal_full
_citation_year
_citation_journal_volume
_citation_page_first
_citation_page_last
_citation_journal_id_ASTM
primary 'Journal of Solid State Chemistry' 2006 179 1808 1813 JSSCBI
loop_
_publ_author_name
'Hidouri, M.'
'Lajmi, B.'
'Wattiaux, A.'
'Fournes, L.'
'Darriet, B.'
'Amara, M.B.'
_cell_length_a 6.2882(1)
_cell_length_b 8.0459(1)
_cell_length_c 9.3255(1)
_cell_angle_alpha 105.881(1)
_cell_angle_beta 107.202(1)
_cell_angle_gamma 101.467(1)
_cell_volume 412.93
_cell_formula_units_Z 2
_symmetry_space_group_name_H-M 'P -1'
_symmetry_Int_Tables_number 2
_refine_ls_R_factor_all 0.0325
loop_
_symmetry_equiv_pos_site_id
_symmetry_equiv_pos_as_xyz
1 '-x, -y, -z'
2 'x, y, z'
loop_
_atom_type_symbol
_atom_type_oxidation_number
Na1+ 1
Cu2+ 2
Fe2+ 2.915
Cu2+ 2
Fe2+ 2.915
P5+ 5
O2- -2
P5+ 5
O2- -2
P5+ 5
O2- -2
loop_
_atom_site_label
_atom_site_type_symbol
_atom_site_symmetry_multiplicity
_atom_site_Wyckoff_symbol
_atom_site_fract_x
_atom_site_fract_y
_atom_site_fract_z
_atom_site_B_iso_or_equiv
_atom_site_occupancy
_atom_site_attached_hydrogens
Na1 Na1+ 1 g 0. 0.5 0.5 0.0844(19) 1 0
Cu1 Cu2+ 1 h 0.5 0.5 0.5 0.0199(2) 0.67 0
Fe1 Fe2+ 2 i 0.54455(8) 0.21839(6) 0.02752(5) 0.00600(13) 1 0
Cu2 Cu2+ 2 i 0.76579(7) 0.30333(6) 0.77876(6) 0.01176(13) 1 0
Fe2 Fe2+ 2 i 0.11922(8) 0.04865(6) 0.38454(5) 0.00625(13) 1 0
P1 P5+ 2 i 0.09583(14) 0.27144(11) 0.12895(10) 0.00536(17) 1 0
O1 O2- 2 i -0.1437(4) 0.2455(4) 0.0043(3) 0.0100(5) 1 0
O2 O2- 2 i 0.2505(4) 0.2186(4) 0.0381(3) 0.0118(5) 1 0
O3 O2- 2 i 0.0630(5) 0.1512(4) 0.2269(3) 0.0127(5) 1 0
O4 O2- 2 i 0.2061(5) 0.4679(3) 0.2493(3) 0.0126(5) 1 0
P2 P5+ 2 i 0.60080(14) 0.09219(11) 0.33278(10) 0.00578(17) 1 0
O5 O2- 2 i 0.3797(4) -0.0308(3) 0.3377(3) 0.0075(4) 1 0
O6 O2- 2 i 0.5738(4) 0.0485(3) 0.1539(3) 0.0078(4) 1 0
O7 O2- 2 i 0.8122(4) 0.0320(3) 0.4144(3) 0.0088(4) 1 0
O8 O2- 2 i 0.6360(5) 0.2868(4) 0.4202(3) 0.0150(5) 1 0
P3 P5+ 2 i 0.26823(14) 0.34926(11) 0.73453(10) 0.00555(17) 1 0
O9 O2- 2 i 0.4805(4) 0.3053(3) 0.8374(3) 0.0083(4) 1 0
O10 O2- 2 i 0.0363(4) 0.2367(3) 0.7341(3) 0.0091(4) 1 0
O11 O2- 2 i 0.2619(4) 0.2990(3) 0.5604(3) 0.0098(4) 1 0
O12 O2- 2 i 0.2943(4) 0.5478(3) 0.7998(3) 0.0107(5) 1 0
loop_
_atom_site_aniso_label
_atom_site_aniso_type_symbol
_atom_site_aniso_U_11
_atom_site_aniso_U_22
_atom_site_aniso_U_33
_atom_site_aniso_U_12
_atom_site_aniso_U_13
_atom_site_aniso_U_23
Na1 Na1+ 0.035(2) 0.057(3) 0.144(5) -0.0007(19) -0.004(3) 0.061(3)
Cu1 Cu2+ 0.0252(5) 0.0152(5) 0.0237(5) 0.0075(4) 0.0135(4) 0.0075(4)
Fe1 Fe2+ 0.0045(2) 0.0060(2) 0.0076(2) 0.00115(16) 0.00305(16) 0.00208(17)
Cu2 Cu2+ 0.0100(2) 0.0096(2) 0.0214(2) 0.00427(16) 0.01101(17) 0.00736(17)
Fe2 Fe2+ 0.0049(2) 0.0070(2) 0.0077(2) 0.00116(17) 0.00345(17) 0.00301(17)
P1 P5+ 0.0037(3) 0.0055(3) 0.0069(3) 0.0008(3) 0.0025(3) 0.0021(3)
O1 O2- 0.0047(10) 0.0143(12) 0.0118(11) 0.0036(9) 0.0032(8) 0.0051(9)
O2 O2- 0.0069(10) 0.0167(12) 0.0137(11) 0.0049(9) 0.0060(9) 0.0049(10)
O3 O2- 0.0126(11) 0.0139(12) 0.0138(12) 0.0022(9) 0.0048(9) 0.0097(10)
O4 O2- 0.0130(11) 0.0054(10) 0.0156(12) -0.0005(9) 0.0056(9) -0.0001(9)
P2 P5+ 0.0042(3) 0.0060(4) 0.0063(4) -0.0002(3) 0.0023(3) 0.0018(3)
O5 O2- 0.0051(9) 0.0067(10) 0.0106(11) 0.0003(8) 0.0044(8) 0.0024(8)
O6 O2- 0.0089(10) 0.0081(10) 0.0067(10) 0.0016(8) 0.0035(8) 0.0031(8)
O7 O2- 0.0037(10) 0.0145(12) 0.0090(10) 0.0010(8) 0.0025(8) 0.0063(9)
O8 O2- 0.0199(13) 0.0084(11) 0.0133(12) -0.0004(10) 0.0069(10) 0.0013(9)
P3 P5+ 0.0031(3) 0.0058(4) 0.0067(3) 0.0003(3) 0.0019(3) 0.0013(3)
O9 O2- 0.0054(10) 0.0107(11) 0.0096(10) 0.0024(8) 0.0031(8) 0.0044(9)
O10 O2- 0.0048(10) 0.0098(11) 0.0119(11) 0.0006(8) 0.0044(8) 0.0026(9)
O11 O2- 0.0111(11) 0.0098(11) 0.0075(10) 0.0015(9) 0.0041(9) 0.0019(9)
O12 O2- 0.0100(11) 0.0071(10) 0.0118(11) 0.0010(9) 0.0031(9) 0.0006(9)
#End of TTdata_172805-ICSD