
#(C) 2018 by FIZ Karlsruhe - Leibniz Institute for Information Infrastructure.  All rights reserved.
data_173682-ICSD
_database_code_ICSD 173682
_audit_creation_date 2009-08-01
_audit_update_record 2013-02-01
_chemical_name_systematic 'Neodymium lithium iron oxide (18/8/5/39)'
_chemical_formula_structural 'Nd18 Li8 Fe5 O39'
_chemical_formula_sum 'Fe5 Li8 Nd18 O39'
_chemical_name_structure_type Nd18Li8Fe5O39
_exptl_crystal_density_diffrn 6.88
_cell_measurement_temperature 293.
_publ_section_title

;
Structural chemistry and magnetic properties of Nd18 Li8 Fe5 O39 and Nd18 Li8
Co5 O39: the interplay of cation and spin ordering
;
loop_
_citation_id
_citation_journal_full
_citation_year
_citation_journal_volume
_citation_page_first
_citation_page_last
_citation_journal_id_ASTM
primary 'Inorganic Chemistry' 2008 47 11212 11222 INOCAJ
loop_
_publ_author_name
'Dutton, S.E.'
'Battle, P.D.'
'Grandjean, F.'
'Long, G.-J.'
'Oh-Ishi, K.'
_cell_length_a 11.97159(9)
_cell_length_b 11.97159(9)
_cell_length_c 11.97159(9)
_cell_angle_alpha 90.
_cell_angle_beta 90.
_cell_angle_gamma 90.
_cell_volume 1715.76
_cell_formula_units_Z 2
_symmetry_space_group_name_H-M 'P m -3 n'
_symmetry_Int_Tables_number 223
_refine_ls_R_factor_all 0.041
loop_
_symmetry_equiv_pos_site_id
_symmetry_equiv_pos_as_xyz
1 'z+1/2, -y+1/2, x+1/2'
2 'y+1/2, -x+1/2, z+1/2'
3 'x+1/2, -z+1/2, y+1/2'
4 '-z+1/2, y+1/2, -x+1/2'
5 '-y+1/2, x+1/2, -z+1/2'
6 '-x+1/2, z+1/2, -y+1/2'
7 'z+1/2, y+1/2, -x+1/2'
8 'y+1/2, x+1/2, -z+1/2'
9 'x+1/2, z+1/2, -y+1/2'
10 '-z+1/2, -y+1/2, x+1/2'
11 '-y+1/2, -x+1/2, z+1/2'
12 '-x+1/2, -z+1/2, y+1/2'
13 '-z+1/2, y+1/2, x+1/2'
14 '-y+1/2, x+1/2, z+1/2'
15 '-x+1/2, z+1/2, y+1/2'
16 'z+1/2, -y+1/2, -x+1/2'
17 'y+1/2, -x+1/2, -z+1/2'
18 'x+1/2, -z+1/2, -y+1/2'
19 '-z+1/2, -y+1/2, -x+1/2'
20 '-y+1/2, -x+1/2, -z+1/2'
21 '-x+1/2, -z+1/2, -y+1/2'
22 'z+1/2, y+1/2, x+1/2'
23 'y+1/2, x+1/2, z+1/2'
24 'x+1/2, z+1/2, y+1/2'
25 'z, x, -y'
26 'y, z, -x'
27 'x, y, -z'
28 '-z, -x, y'
29 '-y, -z, x'
30 '-x, -y, z'
31 'z, -x, y'
32 'y, -z, x'
33 'x, -y, z'
34 '-z, x, -y'
35 '-y, z, -x'
36 '-x, y, -z'
37 '-z, x, y'
38 '-y, z, x'
39 '-x, y, z'
40 'z, -x, -y'
41 'y, -z, -x'
42 'x, -y, -z'
43 '-z, -x, -y'
44 '-y, -z, -x'
45 '-x, -y, -z'
46 'z, x, y'
47 'y, z, x'
48 'x, y, z'
loop_
_atom_type_symbol
_atom_type_oxidation_number
Nd3+ 3
Fe4+ 4
Fe3+ 3
Li1+ 1
Fe3+ 3
O2- -2
loop_
_atom_site_label
_atom_site_type_symbol
_atom_site_symmetry_multiplicity
_atom_site_Wyckoff_symbol
_atom_site_fract_x
_atom_site_fract_y
_atom_site_fract_z
_atom_site_B_iso_or_equiv
_atom_site_occupancy
_atom_site_attached_hydrogens
Nd1 Nd3+ 24 k 0 0.3076(3) 0.3054(3) 0.32(4) 1. 0
Nd2 Nd3+ 12 f 0.3486(3) 0 0 0.10(5) 1. 0
Fe1 Fe4+ 2 a 0 0 0 0.19(11) 1. 0
Fe2 Fe3+ 8 e 0.25 0.25 0.25 1.13(9) 0.85(1) 0
Li1 Li1+ 8 e 0.25 0.25 0.25 1.13(9) 0.15(1) 0
Li2 Li1+ 16 i 0.3683(9) 0.3683(9) 0.3683(9) 0.1(4) .926(5) 0
Fe3 Fe3+ 16 i 0.3683(9) 0.3683(9) 0.3683(9) 0.1(4) 0.074(5) 0
O1 O2- 48 l 0.8651(3) 0.8606(3) 0.6931(2) 0.68(4) 1. 0
O2 O2- 6 d 0.25 0.5 0 0.59(12) 1. 0
O3 O2- 12 g 0.6322(5) 0 0.5 0.50(9) 1. 0
O4 O2- 48 l 0.1531(7) 0.015(2) 0.019(2) 2.6(3) 0.25 0
#End of TTdata_173682-ICSD