
#(C) 2019 by FIZ Karlsruhe - Leibniz Institute for Information Infrastructure.  All rights reserved.
data_173624-ICSD
_database_code_ICSD 173624
_audit_creation_date 2009-02-01
_audit_update_record 2011-02-01
_chemical_name_systematic 'Sodium bismuthate(III)'
_chemical_formula_structural 'Na Bi O2'
_chemical_formula_sum 'Bi1 Na1 O2'
_chemical_name_structure_type NaBiO2
_exptl_crystal_density_diffrn 7.02
_publ_section_title

;
Structural changes within and between the two isotypic series A Bi O2 (A = Na,
K, Rb, Cs) and A Sb O2 (A = K, Rb, Cs)
;
loop_
_citation_id
_citation_journal_full
_citation_year
_citation_journal_volume
_citation_page_first
_citation_page_last
_citation_journal_id_ASTM
primary 'Zeitschrift fuer Kristallographie' 2008 223 431 440 ZEKRDZ
loop_
_publ_author_name
'Keller, E.'
'Roehr, C.'
_cell_length_a 7.3917(14)
_cell_length_b 7.2554(13)
_cell_length_c 5.8823(11)
_cell_angle_alpha 90
_cell_angle_beta 127.694(12)
_cell_angle_gamma 90
_cell_volume 249.62
_cell_formula_units_Z 4
_symmetry_space_group_name_H-M 'C 1 2/c 1'
_symmetry_Int_Tables_number 15
_refine_ls_R_factor_all 0.0371
loop_
_symmetry_equiv_pos_site_id
_symmetry_equiv_pos_as_xyz
1 'x, -y, z+1/2'
2 '-x, -y, -z'
3 '-x, y, -z+1/2'
4 'x, y, z'
5 'x+1/2, -y+1/2, z+1/2'
6 '-x+1/2, -y+1/2, -z'
7 '-x+1/2, y+1/2, -z+1/2'
8 'x+1/2, y+1/2, z'
loop_
_atom_type_symbol
_atom_type_oxidation_number
Bi3+ 3
Na1+ 1
O2- -2
loop_
_atom_site_label
_atom_site_type_symbol
_atom_site_symmetry_multiplicity
_atom_site_Wyckoff_symbol
_atom_site_fract_x
_atom_site_fract_y
_atom_site_fract_z
_atom_site_B_iso_or_equiv
_atom_site_occupancy
_atom_site_attached_hydrogens
Bi1 Bi3+ 4 e 0 0.1166(1) 0.25 0.010(1) 1. 0
Na1 Na1+ 4 e 0 0.6255(10) 0.25 0.019(2) 1. 0
O1 O2- 8 f 0.2898(14) 0.4253(14) 0.2508(18) 0.016(2) 1. 0
loop_
_atom_site_aniso_label
_atom_site_aniso_type_symbol
_atom_site_aniso_U_11
_atom_site_aniso_U_22
_atom_site_aniso_U_33
_atom_site_aniso_U_12
_atom_site_aniso_U_13
_atom_site_aniso_U_23
Na1 Na1+ 0.018(4) 0.020(5) 0.015(5) 0 0.009(4) 0
O1 O2- 0.019(4) 0.019(4) 0.012(4) -0.007(4) 0.010(3) -0.002(3)
#End of TTdata_173624-ICSD