
#(C) 2019 by FIZ Karlsruhe - Leibniz Institute for Information Infrastructure.  All rights reserved.
data_173777-ICSD
_database_code_ICSD 173777
_audit_creation_date 2009-08-01
_audit_update_record 2011-02-01
_chemical_name_systematic 'Potassium sodium europium tantalate(V)'
_chemical_formula_structural 'K (Na Eu Ta O5)'
_chemical_formula_sum 'Eu1 K1 Na1 O5 Ta1'
_chemical_name_structure_type BaLaMn2O5(tP18)
_exptl_crystal_density_diffrn 5.93
_cell_measurement_temperature 294.
_publ_section_title
'Eu K Na Ta O5: crystal growth, structure and photoluminescence property'
loop_
_citation_id
_citation_journal_full
_citation_year
_citation_journal_volume
_citation_page_first
_citation_page_last
_citation_journal_id_ASTM
primary 'Journal of the American Chemical Society' 2009 131 4202 4203 JACSAT
loop_
_publ_author_name
'Roof, I.P.'
'Smith, M.D.'
'Park, S.'
'zur Loye, H.C.'
_cell_length_a 5.6878(2)
_cell_length_b 5.6878(2)
_cell_length_c 8.2258(2)
_cell_angle_alpha 90.
_cell_angle_beta 90.
_cell_angle_gamma 90.
_cell_volume 266.11
_cell_formula_units_Z 2
_symmetry_space_group_name_H-M 'P 4/n m m Z'
_symmetry_Int_Tables_number 129
_refine_ls_R_factor_all 0.018
loop_
_symmetry_equiv_pos_site_id
_symmetry_equiv_pos_as_xyz
1 'y+1/2, x+1/2, -z'
2 '-y, x+1/2, -z'
3 'y+1/2, -x, -z'
4 '-y, -x, -z'
5 'x+1/2, y+1/2, -z'
6 '-x, y+1/2, -z'
7 'x+1/2, -y, -z'
8 '-x, -y, -z'
9 '-y+1/2, -x+1/2, z'
10 'y, -x+1/2, z'
11 '-y+1/2, x, z'
12 'y, x, z'
13 '-x+1/2, -y+1/2, z'
14 'x, -y+1/2, z'
15 '-x+1/2, y, z'
16 'x, y, z'
loop_
_atom_type_symbol
_atom_type_oxidation_number
Ta5+ 5
Eu3+ 3
K1+ 1
Na1+ 1
O2- -2
loop_
_atom_site_label
_atom_site_type_symbol
_atom_site_symmetry_multiplicity
_atom_site_Wyckoff_symbol
_atom_site_fract_x
_atom_site_fract_y
_atom_site_fract_z
_atom_site_B_iso_or_equiv
_atom_site_occupancy
_atom_site_attached_hydrogens
Ta1 Ta5+ 2 c 0.25 0.25 0.26047(3) 0.00765(7) 1 0
Eu1 Eu3+ 2 b 0.75 0.25 0.5 0.00868(7) 1 0
K1 K1+ 2 a 0.75 0.25 0. 0.0252(4) 1 0
Na1 Na1+ 2 c 0.25 0.25 0.7598(3) 0.0104(5) 1 0
O1 O2- 8 j 0.0186(3) 0.0186(3) 0.3314(3) 0.0124(4) 1 0
O2 O2- 2 c 0.25 0.25 0.0369(6) 0.0160(8) 1 0
loop_
_atom_site_aniso_label
_atom_site_aniso_type_symbol
_atom_site_aniso_U_11
_atom_site_aniso_U_22
_atom_site_aniso_U_33
_atom_site_aniso_U_12
_atom_site_aniso_U_13
_atom_site_aniso_U_23
Ta1 Ta5+ 0.00802(8) 0.00802(8) 0.00692(11) 0. 0. 0.
Eu1 Eu3+ 0.00828(8) 0.00828(8) 0.00949(14) 0. 0. 0.
K1 K1+ 0.0183(4) 0.0183(4) 0.0389(11) 0. 0. 0.
Na1 Na1+ 0.0095(7) 0.0095(7) 0.0123(12) 0. 0. 0.
O1 O2- 0.0102(5) 0.0102(5) 0.0166(10) -0.0010(6) 0.0001(5) 0.0001(5)
O2 O2- 0.0193(12) 0.0193(12) 0.0092(19) 0. 0. 0.
#End of TTdata_173777-ICSD