
#(C) 2018 by FIZ Karlsruhe - Leibniz Institute for Information Infrastructure.  All rights reserved.
data_173881-ICSD
_database_code_ICSD 173881
_audit_creation_date 2009-08-01
_audit_update_record 2013-02-01
_chemical_name_systematic 'Dilithium tris(uranyl) bis(phosphate(V)) oxide'
_chemical_formula_structural 'Li2 (U O2)3 (P O4)2 O'
_chemical_formula_sum 'Li2 O15 P2 U3'
_chemical_name_structure_type Li2O3P2O15
_exptl_crystal_density_diffrn 5.4
_cell_measurement_temperature 293.
_publ_section_title

;
Channels occupany and distortion in new lithium uranyl phosphates with
three-dimensional open-frameworks
;
loop_
_citation_id
_citation_journal_full
_citation_year
_citation_journal_volume
_citation_page_first
_citation_page_last
_citation_journal_id_ASTM
primary 'Journal of Solid State Chemistry' 2009 182 1377 1386 JSSCBI
loop_
_publ_author_name
'Renard, C.'
'Obbade, S.'
'Abraham, F.'
_cell_length_a 7.1109(2)
_cell_length_b 7.1109(2)
_cell_length_c 25.0407(8)
_cell_angle_alpha 90.
_cell_angle_beta 90.
_cell_angle_gamma 90.
_cell_volume 1266.18
_cell_formula_units_Z 4
_symmetry_space_group_name_H-M 'I 41/a m d Z'
_symmetry_Int_Tables_number 141
_refine_ls_R_factor_all 0.0344
loop_
_symmetry_equiv_pos_site_id
_symmetry_equiv_pos_as_xyz
1 'y+1/4, x+3/4, -z+1/4'
2 'y+1/4, -x+3/4, -z+1/4'
3 'x, y+1/2, -z'
4 'x, -y, -z'
5 '-y+3/4, x+3/4, -z+1/4'
6 '-y+3/4, -x+3/4, -z+1/4'
7 '-x, y+1/2, -z'
8 '-x, -y, -z'
9 '-y+3/4, -x+1/4, z+3/4'
10 '-y+3/4, x+1/4, z+3/4'
11 '-x, -y+1/2, z'
12 '-x, y, z'
13 'y+1/4, -x+1/4, z+3/4'
14 'y+1/4, x+1/4, z+3/4'
15 'x, -y+1/2, z'
16 'x, y, z'
17 'y+3/4, x+1/4, -z+3/4'
18 'y+3/4, -x+1/4, -z+3/4'
19 'x+1/2, y, -z+1/2'
20 'x+1/2, -y+1/2, -z+1/2'
21 '-y+1/4, x+1/4, -z+3/4'
22 '-y+1/4, -x+1/4, -z+3/4'
23 '-x+1/2, y, -z+1/2'
24 '-x+1/2, -y+1/2, -z+1/2'
25 '-y+1/4, -x+3/4, z+1/4'
26 '-y+1/4, x+3/4, z+1/4'
27 '-x+1/2, -y, z+1/2'
28 '-x+1/2, y+1/2, z+1/2'
29 'y+3/4, -x+3/4, z+1/4'
30 'y+3/4, x+3/4, z+1/4'
31 'x+1/2, -y, z+1/2'
32 'x+1/2, y+1/2, z+1/2'
loop_
_atom_type_symbol
_atom_type_oxidation_number
U6+ 6
P5+ 5
O2- -2
Li1+ 1
loop_
_atom_site_label
_atom_site_type_symbol
_atom_site_symmetry_multiplicity
_atom_site_Wyckoff_symbol
_atom_site_fract_x
_atom_site_fract_y
_atom_site_fract_z
_atom_site_B_iso_or_equiv
_atom_site_occupancy
_atom_site_attached_hydrogens
U1 U6+ 4 b 0 0.25 0.375 0.0121(2) 1. 0
U2 U6+ 8 e 0.5 0.75 0.29129(2) 0.0104(2) 1. 0
P1 P5+ 8 e 0 0.75 0.3374(2) 0.0104(9) 1. 0
O1 O2- 16 h 0 0.922(1) 0.3731(2) 0.015(2) 1. 0
O2 O2- 16 h 0.8326(9) 0.75 0.2985(2) 0.014(2) 1. 0
O3 O2- 8 e 0 0.25 0.3054(4) 0.019(3) 1. 0
O4 O2- 16 h 0.5 0.4981(9) 0.2871(2) 0.021(2) 1. 0
O5 O2- 4 a 0.5 0.75 0.375 0.037(6) 1. 0
Li1 Li1+ 8 e 0.5 0.25 0.307(2) 0.039(8) 1. 0
loop_
_atom_site_aniso_label
_atom_site_aniso_type_symbol
_atom_site_aniso_U_11
_atom_site_aniso_U_22
_atom_site_aniso_U_33
_atom_site_aniso_U_12
_atom_site_aniso_U_13
_atom_site_aniso_U_23
U1 U6+ 0.0111(3) 0.0111(3) 0.0140(5) 0 0 0
U2 U6+ 0.0101(3) 0.0136(3) 0.0076(4) 0 0 0
P1 P5+ 0.010(2) 0.012(2) 0.009(2) 0 0 0
O1 O2- 0.018(4) 0.013(3) 0.014(3) 0 0 -0.002(2)
O2 O2- 0.009(3) 0.026(4) 0.006(3) 0 -0.005(2) 0
O3 O2- 0.042(6) 0.019(5) 0.001(4) 0 0 0
O4 O2- 0.033(4) 0.012(4) 0.018(3) 0 0 0.011(3)
O5 O2- 0.020(5) 0.020(5) 0.07(4) 0 0 0
#End of TTdata_173881-ICSD