
#(C) 2018 by FIZ Karlsruhe - Leibniz Institute for Information Infrastructure.  All rights reserved.
data_174131-ICSD
_database_code_ICSD 174131
_audit_creation_date 2010-02-01
_chemical_name_systematic
'Trilithium heptakis(uranyl) pentakis(arsenate(V) oxide)'
_chemical_formula_structural 'Li3 ((U O2)7 (As O4)5 O)'
_chemical_formula_sum 'As5 Li3 O35 U7'
_exptl_crystal_density_diffrn 5.71
_publ_section_title

;
Crystal chemistry of anhydrous Li uranyl phosphates and arsenates. II. Tubular
fragments and cation-cation interactions in the 3D framework structures of Li6
[(U O2)12 (P O4)8 (P4 O13)], Li5 [(U O2)13 (As O4)9 (As2 O7)], Li [(U O2)4 (As
O4)3] and Li3 [(U O2)7 (As O4)5 O]
;
loop_
_citation_id
_citation_journal_full
_citation_year
_citation_journal_volume
_citation_page_first
_citation_page_last
_citation_journal_id_ASTM
primary 'Journal of Solid State Chemistry' 2009 182 2977 2984 JSSCBI
loop_
_publ_author_name
'Alekseev, E.V.'
'Krivovichev, S.V.'
'Depmeier, W.'
_cell_length_a 7.2160(5)
_cell_length_b 7.2160(5)
_cell_length_c 14.6540(7)
_cell_angle_alpha 90.
_cell_angle_beta 90.
_cell_angle_gamma 90.
_cell_volume 763.04
_cell_formula_units_Z 1
_symmetry_space_group_name_H-M 'P -4'
_symmetry_Int_Tables_number 81
_refine_ls_R_factor_all 0.0415
loop_
_symmetry_equiv_pos_site_id
_symmetry_equiv_pos_as_xyz
1 '-y, x, -z'
2 'y, -x, -z'
3 '-x, -y, z'
4 'x, y, z'
loop_
_atom_type_symbol
_atom_type_oxidation_number
U6+ 6
As5+ 5
O2- -2
Li1+ 1
loop_
_atom_site_label
_atom_site_type_symbol
_atom_site_symmetry_multiplicity
_atom_site_Wyckoff_symbol
_atom_site_fract_x
_atom_site_fract_y
_atom_site_fract_z
_atom_site_B_iso_or_equiv
_atom_site_occupancy
_atom_site_attached_hydrogens
U1 U6+ 2 g 0.5 0 0.43103(3) 0.0135(1) 1. 0
U2 U6+ 1 a 0 0 0 0.0207(2) 1. 0
U3 U6+ 2 g 0 0.5 0.27861(4) 0.0201(1) 1. 0
U4 U6+ 2 f 0.5 0.5 0.14372(3) 0.0147(1) 1. 0
As1 As5+ 2 f 0.5 0.5 0.36977(9) 0.0139(3) 1. 0
As2 As5+ 2 g 0 0.5 0.05558(9) 0.0157(3) 1. 0
As3 As5+ 1 b 0 0 0.5 0.0264(5) 1. 0
O1 O2- 1 c 0.5 0.5 0 0.032(4) 1. 0
O2 O2- 2 g 0.5 0 0.5576(9) 0.038(4) 1. 0
O3 O2- 4 h 0.500(1) 0.693(1) 0.4314(6) 0.025(2) 1. 0
O4 O2- 4 h 0.002(1) 0.6874(1) -0.0102(6) 0.022(2) 1. 0
O5 O2- 2 e 0 0 0.1211(9) 0.038(4) 1. 0
O6 O2- 4 h -0.001(2) -0.193(1) 0.5690(9) 0.040(3) 1. 0
O7 O2- 4 h -0.177(1) 0.498(1) 0.1348(5) 0.026(2) 1. 0
O8 O2- 4 h 0.681(1) 0.499(1) 0.2939(6) 0.027(2) 1. 0
O9 O2- 4 h -0.000(1) 0.744(1) 0.2807(6) 0.028(2) 1. 0
O10 O2- 4 h 0.500(1) 0.749(1) 0.1499(6) 0.024(2) 1. 0
O11 O2- 2 g 0.5 0 0.3081(8) 0.030(3) 1. 0
Li1 Li1+ 2 e 0 0 0.293(2) 0.007(5) 0.75 0
Li2 Li1+ 2 g 0.5 0 0.139(2) 0.009(6) 0.75 0
#End of TTdata_174131-ICSD