
#(C) 2018 by FIZ Karlsruhe - Leibniz Institute for Information Infrastructure.  All rights reserved.
data_174238-ICSD
_database_code_ICSD 174238
_audit_creation_date 2010-08-01
_chemical_name_systematic 'Trilithium vanadate hexahydrate'
_chemical_formula_structural 'Li3 V O4 (H2 O)6'
_chemical_formula_sum 'H12 Li3 O10 V1'
_exptl_crystal_density_diffrn 1.74
_publ_section_title

;
Strukturchemie, elektronische Strukturen und spektroskopische Eigenschaften
der Alkalimetallthiooxovanadate(V) A3 V S(x) O(4-x)
;
loop_
_citation_id
_citation_journal_full
_citation_year
_citation_journal_volume
_citation_page_first
_citation_page_last
_citation_journal_id_ASTM
primary 'Dissertation Universitaet Freiburg/Breisgau' 2008 2008 1 132 DIFREZ
loop_
_publ_author_name
'Schnabel, S.'
_cell_length_a 9.629(2)
_cell_length_b 9.629(2)
_cell_length_c 8.692(2)
_cell_angle_alpha 90.
_cell_angle_beta 90.
_cell_angle_gamma 120.
_cell_volume 697.93
_cell_formula_units_Z 3
_symmetry_space_group_name_H-M 'R 3 H'
_symmetry_Int_Tables_number 146
_refine_ls_R_factor_all 0.0261
loop_
_symmetry_equiv_pos_site_id
_symmetry_equiv_pos_as_xyz
1 '-x+y, -x, z'
2 '-y, x-y, z'
3 'x, y, z'
4 '-x+y+2/3, -x+1/3, z+1/3'
5 '-y+2/3, x-y+1/3, z+1/3'
6 'x+2/3, y+1/3, z+1/3'
7 '-x+y+1/3, -x+2/3, z+2/3'
8 '-y+1/3, x-y+2/3, z+2/3'
9 'x+1/3, y+2/3, z+2/3'
loop_
_atom_type_symbol
_atom_type_oxidation_number
V5+ 5
O2- -2
Li1+ 1
H1+ 1
loop_
_atom_site_label
_atom_site_type_symbol
_atom_site_symmetry_multiplicity
_atom_site_Wyckoff_symbol
_atom_site_fract_x
_atom_site_fract_y
_atom_site_fract_z
_atom_site_B_iso_or_equiv
_atom_site_occupancy
_atom_site_attached_hydrogens
V1 V5+ 3 a 0 0 0.34003(1) 0.0121(2) 1. 0
O1 O2- 9 b 0.1813(2) 0.0343(2) 0.4077(2) 0.0200(3) 1. 0
O2 O2- 3 a 0 0 0.1434(2) 0.0215(4) 1. 0
O3 O2- 9 b 0.4980(2) 0.1297(2) 0.0454(2) 0.0206(3) 1. 0
O4 O2- 9 b 0.2388(2) 0.2492(2) 0.0000(2) 0.0208(3) 1. 0
Li1 Li1+ 9 b 0.4426(5) 0.2956(4) 0.1094(4) 0.0240(6) 1. 0
H1 H1+ 9 b 0.497(4) 0.132(4) -0.049(4) 0.0290(40) 1. 0
H2 H1+ 9 b 0.447(4) 0.046(5) 0.059(4) 0.0290(40) 1. 0
H3 H1+ 9 b 0.170(4) 0.170(5) 0.032(5) 0.0290(40) 1. 0
H4 H1+ 9 b 0.229(4) 0.325(5) 0.028(4) 0.0290(40) 1. 0
loop_
_atom_site_aniso_label
_atom_site_aniso_type_symbol
_atom_site_aniso_U_11
_atom_site_aniso_U_22
_atom_site_aniso_U_33
_atom_site_aniso_U_12
_atom_site_aniso_U_13
_atom_site_aniso_U_23
V1 V5+ 0.0127(2) 0.0127(2) 0.0110(2) 0.00634(9) 0 0
O1 O2- 0.0179(6) 0.0251(7) 0.0232(5) 0.0110(5) -0.0040(5) -0.0002(5)
O2 O2- 0.0250(7) 0.0250(7) 0.0145(8) 0.0125(3) 0 0
O3 O2- 0.0223(8) 0.0180(7) 0.0197(7) 0.0086(6) 0.0004(4) 0.0019(5)
O4 O2- 0.0220(7) 0.0188(7) 0.0205(7) 0.0095(6) 0.0019(5) 0.0009(5)
Li1 Li1+ 0.0252(15) 0.0250(17) 0.0223(13) 0.0129(13) 0.0005(12) -0.0007(12)
#End of TTdata_174238-ICSD