
#(C) 2019 by FIZ Karlsruhe - Leibniz Institute for Information Infrastructure.  All rights reserved.
data_174237-ICSD
_database_code_ICSD 174237
_audit_creation_date 2010-08-01
_chemical_name_systematic 'Trisodium dithiodioxovanadate'
_chemical_formula_structural 'Na3 V S2 O2'
_chemical_formula_sum 'Na3 O2 S2 V1'
_exptl_crystal_density_diffrn 2.36
_publ_section_title

;
Strukturchemie, elektronische Strukturen und spektroskopische Eigenschaften
der Alkalimetallthiooxovanadate(V) A3 V S(x) O(4-x)
;
loop_
_citation_id
_citation_journal_full
_citation_year
_citation_journal_volume
_citation_page_first
_citation_page_last
_citation_journal_id_ASTM
primary 'Dissertation Universitaet Freiburg/Breisgau' 2008 2008 1 132 DMY012
loop_
_publ_author_name
'Schnabel, S.'
_cell_length_a 5.927(1)
_cell_length_b 17.667(4)
_cell_length_c 11.627(2)
_cell_angle_alpha 90.
_cell_angle_beta 90.
_cell_angle_gamma 90.
_cell_volume 1217.49
_cell_formula_units_Z 8
_symmetry_space_group_name_H-M 'P b c a'
_symmetry_Int_Tables_number 61
_refine_ls_R_factor_all 0.0467
loop_
_symmetry_equiv_pos_site_id
_symmetry_equiv_pos_as_xyz
1 'x+1/2, y, -z+1/2'
2 'x, -y+1/2, z+1/2'
3 '-x+1/2, y+1/2, z'
4 '-x, -y, -z'
5 '-x+1/2, -y, z+1/2'
6 '-x, y+1/2, -z+1/2'
7 'x+1/2, -y+1/2, -z'
8 'x, y, z'
loop_
_atom_type_symbol
_atom_type_oxidation_number
Na1+ 1
V5+ 5
S2- -2
O2- -2
loop_
_atom_site_label
_atom_site_type_symbol
_atom_site_symmetry_multiplicity
_atom_site_Wyckoff_symbol
_atom_site_fract_x
_atom_site_fract_y
_atom_site_fract_z
_atom_site_B_iso_or_equiv
_atom_site_occupancy
_atom_site_attached_hydrogens
Na1 Na1+ 8 c 0.2109(2) 0.23852(6) 0.12257(9) 0.0235(3) 1. 0
Na2 Na1+ 8 c 0.3568(2) 0.04786(6) 0.1697(1) 0.0265(3) 1. 0
Na3 Na1+ 8 c 0.2392(2) 0.39860(7) 0.37132(9) 0.0253(3) 1. 0
V1 V5+ 8 c 0.33282(7) 0.11188(2) 0.44188(4) 0.0142(1) 1. 0
S1 S2- 8 c 0.2290(1) 0.39763(4) 0.12390(5) 0.0194(2) 1. 0
S2 S2- 8 c 0.2022(1) 0.21798(4) 0.37124(6) 0.0211(2) 1. 0
O1 O2- 8 c 0.2403(3) 0.0382(1) 0.3626(2) 0.0209(4) 1. 0
O2 O2- 8 c 0.1146(3) 0.1159(1) 0.0321(2) 0.0187(4) 1. 0
loop_
_atom_site_aniso_label
_atom_site_aniso_type_symbol
_atom_site_aniso_U_11
_atom_site_aniso_U_22
_atom_site_aniso_U_33
_atom_site_aniso_U_12
_atom_site_aniso_U_13
_atom_site_aniso_U_23
Na1 Na1+ 0.0251(7) 0.0215(6) 0.0240(7) -0.0028(5) -0.0011(5) -0.0008(5)
Na2 Na1+ 0.0231(6) 0.0308(6) 0.0255(6) 0.0047(5) 0.0010(5) 0.0057(5)
Na3 Na1+ 0.0230(6) 0.0358(7) 0.0171(6) -0.0009(5) 0.0026(5) 0.0024(5)
V1 V5+ 0.0121(2) 0.0189(2) 0.0115(2) -0.0004(2) 0.0002(2) -0.0011(2)
S1 S2- 0.0205(4) 0.0236(3) 0.0140(3) 0.0010(3) 0.0038(3) -0.0016(3)
S2 S2- 0.0201(4) 0.0263(4) 0.0171(4) 0.0047(3) -0.0008(3) 0.0043(3)
O1 O2- 0.0207(10) 0.0228(10) 0.0194(10) -0.0023(8) -0.0026(8) -0.0051(8)
O2 O2- 0.0149(10) 0.0229(10) 0.0184(10) -0.0004(8) -0.0023(7) -0.0018(8)
#End of TTdata_174237-ICSD