
#(C) 2019 by FIZ Karlsruhe - Leibniz Institute for Information Infrastructure.  All rights reserved.
data_174350-ICSD
_database_code_ICSD 174350
_audit_creation_date 2010-08-01
_chemical_name_systematic 'Sodium erbium bis(molybdate)'
_chemical_formula_structural 'Na Er (Mo O4)2'
_chemical_formula_sum 'Er1 Mo2 Na1 O8'
_chemical_name_structure_type Scheelite-CaWO4
_chemical_name_mineral Scheelite
_exptl_crystal_density_diffrn 5.59
_cell_measurement_temperature 173.
_publ_section_title 'Scheelite-type Na Er (Mo O4)2'
loop_
_citation_id
_citation_journal_full
_citation_year
_citation_journal_volume
_citation_page_first
_citation_page_last
_citation_journal_id_ASTM
primary 'Acta Crystallographica, Section E: Structure Reports Online' 2010 66
i36 i36 ACSEBH
loop_
_publ_author_name
'Zhao Dan'
'Li Feifei'
'Cheng Wen Dan'
'Zhang Hao'
_cell_length_a 5.1816(8)
_cell_length_b 5.1816(8)
_cell_length_c 11.288(3)
_cell_angle_alpha 90.
_cell_angle_beta 90.
_cell_angle_gamma 90.
_cell_volume 303.07
_cell_formula_units_Z 2
_symmetry_space_group_name_H-M 'I 41/a Z'
_symmetry_Int_Tables_number 88
_refine_ls_R_factor_all 0.0323
loop_
_symmetry_equiv_pos_site_id
_symmetry_equiv_pos_as_xyz
1 '-y+3/4, x+3/4, -z+3/4'
2 'y+1/4, -x+3/4, -z+3/4'
3 'x, y+1/2, -z'
4 '-x, -y, -z'
5 'y+1/4, -x+1/4, z+1/4'
6 '-y+3/4, x+1/4, z+1/4'
7 '-x, -y+1/2, z'
8 'x, y, z'
9 '-y+1/4, x+1/4, -z+1/4'
10 'y+3/4, -x+1/4, -z+1/4'
11 'x+1/2, y, -z+1/2'
12 '-x+1/2, -y+1/2, -z+1/2'
13 'y+3/4, -x+3/4, z+3/4'
14 '-y+1/4, x+3/4, z+3/4'
15 '-x+1/2, -y, z+1/2'
16 'x+1/2, y+1/2, z+1/2'
loop_
_atom_type_symbol
_atom_type_oxidation_number
Er3+ 3
Na1+ 1
Mo6+ 6
O2- -2
loop_
_atom_site_label
_atom_site_type_symbol
_atom_site_symmetry_multiplicity
_atom_site_Wyckoff_symbol
_atom_site_fract_x
_atom_site_fract_y
_atom_site_fract_z
_atom_site_B_iso_or_equiv
_atom_site_occupancy
_atom_site_attached_hydrogens
Er1 Er3+ 4 a 0. 0.25 0.125 0.0081(5) 0.5 0
Na1 Na1+ 4 a 0. 0.25 0.125 0.0081(5) 0.5 0
Mo1 Mo6+ 4 b 0.5 0.75 0.125 0.0086(5) 1 0
O1 O2- 16 f 0.2568(6) 0.5968(6) 0.0397(3) 0.0204(12) 1 0
loop_
_atom_site_aniso_label
_atom_site_aniso_type_symbol
_atom_site_aniso_U_11
_atom_site_aniso_U_22
_atom_site_aniso_U_33
_atom_site_aniso_U_12
_atom_site_aniso_U_13
_atom_site_aniso_U_23
Er1 Er3+ 0.0070(6) 0.0070(6) 0.0102(8) 0. 0. 0.
Na1 Na1+ 0.0070(6) 0.0070(6) 0.0102(8) 0. 0. 0.
Mo1 Mo6+ 0.0067(6) 0.0067(6) 0.0124(8) 0. 0. 0.
O1 O2- 0.025(2) 0.017(2) 0.019(2) 0.0012(15) -0.0045(14) -0.0007(17)
#End of TTdata_174350-ICSD