
#(C) 2019 by FIZ Karlsruhe - Leibniz Institute for Information Infrastructure.  All rights reserved.
data_174390-ICSD
_database_code_ICSD 174390
_audit_creation_date 2011-02-01
_audit_update_record 2013-02-01
_chemical_name_systematic 'Sodium lanthanum dizirconium hexaoxide'
_chemical_formula_structural 'Na La Zr2 O6'
_chemical_formula_sum 'La1 Na1 O6 Zr2'
_exptl_crystal_density_diffrn 5.43
_publ_section_title

;
Investigations into structure and properties of ordered perovskites, layered
perovskites, and defect pyrochlores
;
loop_
_citation_id
_citation_journal_full
_citation_year
_citation_journal_volume
_citation_page_first
_citation_page_last
_citation_journal_id_ASTM
primary 'Dissertation Ohio State University' 2006 2006 1 161 THOSUY
loop_
_publ_author_name
'Knapp, M.C.'
_cell_length_a 5.7742(2)
_cell_length_b 8.1426(2)
_cell_length_c 5.7246(1)
_cell_angle_alpha 90.
_cell_angle_beta 90.
_cell_angle_gamma 90.
_cell_volume 269.15
_cell_formula_units_Z 2
_symmetry_space_group_name_H-M 'I m m a'
_symmetry_Int_Tables_number 74
_refine_ls_R_factor_all 0.081
loop_
_symmetry_equiv_pos_site_id
_symmetry_equiv_pos_as_xyz
1 '-x, y+1/2, -z'
2 '-x, -y+1/2, z'
3 '-x, y, z'
4 '-x, -y, -z'
5 'x, -y+1/2, z'
6 'x, y+1/2, -z'
7 'x, -y, -z'
8 'x, y, z'
9 '-x+1/2, y, -z+1/2'
10 '-x+1/2, -y, z+1/2'
11 '-x+1/2, y+1/2, z+1/2'
12 '-x+1/2, -y+1/2, -z+1/2'
13 'x+1/2, -y, z+1/2'
14 'x+1/2, y, -z+1/2'
15 'x+1/2, -y+1/2, -z+1/2'
16 'x+1/2, y+1/2, z+1/2'
loop_
_atom_type_symbol
_atom_type_oxidation_number
Na1+ 1
La3+ 3
Zr4+ 4
O2- -2
loop_
_atom_site_label
_atom_site_type_symbol
_atom_site_symmetry_multiplicity
_atom_site_Wyckoff_symbol
_atom_site_fract_x
_atom_site_fract_y
_atom_site_fract_z
_atom_site_B_iso_or_equiv
_atom_site_occupancy
_atom_site_attached_hydrogens
Na1 Na1+ 4 e 0 0.25 0.4924(9) 0.0104(3) 0.5 0
La1 La3+ 4 e 0 0.25 0.4924(9) 0.0104(3) 0.5 0
Zr1 Zr4+ 4 a 0 0 0 0.0064(4) 1. 0
O1 O2- 4 e 0 0.25 0.9551(6) 0.0070(5) 1. 0
O2 O2- 8 g 0.25 0.4762(3) 0.25 . 1. 0
O3 O2- 16 j 0.568(1) 0.000(2) 0.247(1) 0.008(2) 0 0
loop_
_atom_site_aniso_label
_atom_site_aniso_type_symbol
_atom_site_aniso_U_11
_atom_site_aniso_U_22
_atom_site_aniso_U_33
_atom_site_aniso_U_12
_atom_site_aniso_U_13
_atom_site_aniso_U_23
O2 O2- 0.014(1) -0.0041(9) 0.0086(7) 0 0 0
#End of TTdata_174390-ICSD