
#(C) 2019 by FIZ Karlsruhe - Leibniz Institute for Information Infrastructure.  All rights reserved.
data_174389-ICSD
_database_code_ICSD 174389
_audit_creation_date 2011-02-01
_audit_update_record 2013-08-01
_chemical_name_systematic 'Sodium lanthanum scandium antimony hexaoxide'
_chemical_formula_structural 'Na La Sc Sb O6'
_chemical_formula_sum 'La1 Na1 O6 Sb1 Sc1'
_chemical_name_structure_type Perovskite-Ba2LaRuO6
_exptl_crystal_density_diffrn 5.64
_publ_section_title

;
Investigations into structure and properties of ordered perovskites, layered
perovskites, and defect pyrochlores
;
loop_
_citation_id
_citation_journal_full
_citation_year
_citation_journal_volume
_citation_page_first
_citation_page_last
_citation_journal_id_ASTM
primary 'Dissertation Ohio State University' 2006 2006 1 161 THOSUY
loop_
_publ_author_name
'Knapp, M.C.'
_cell_length_a 5.5635(2)
_cell_length_b 5.6405(2)
_cell_length_c 7.9701(4)
_cell_angle_alpha 90
_cell_angle_beta 90.036(6)
_cell_angle_gamma 90
_cell_volume 250.11
_cell_formula_units_Z 2
_symmetry_space_group_name_H-M 'P 1 21/n 1'
_symmetry_Int_Tables_number 14
_refine_ls_R_factor_all 0.092
loop_
_symmetry_equiv_pos_site_id
_symmetry_equiv_pos_as_xyz
1 '-x+1/2, y+1/2, -z+1/2'
2 '-x, -y, -z'
3 'x+1/2, -y+1/2, z+1/2'
4 'x, y, z'
loop_
_atom_type_symbol
_atom_type_oxidation_number
Na1+ 1
La3+ 3
Sc3+ 3
Sb5+ 5
O2- -2
loop_
_atom_site_label
_atom_site_type_symbol
_atom_site_symmetry_multiplicity
_atom_site_Wyckoff_symbol
_atom_site_fract_x
_atom_site_fract_y
_atom_site_fract_z
_atom_site_B_iso_or_equiv
_atom_site_occupancy
_atom_site_attached_hydrogens
Na1 Na1+ 4 e 0.500(3) 0.504(1) 0.250(2) 0.0147(6) 0.5 0
La1 La3+ 4 e 0.500(3) 0.504(1) 0.250(2) 0.0147(6) 0.5 0
Sc1 Sc3+ 2 c 0 0.5 0 0.018(1) 1. 0
Sb1 Sb5+ 2 d 0.5 0 0 0.010(1) 1. 0
O1 O2- 4 e 0.259(2) 0.245(2) 0.042(1) 0.020(2) 1. 0
O2 O2- 4 e 0.231(2) -.245(2) 0.037(1) 0.014(2) 1. 0
O3 O2- 4 e 0.568(1) 0.000(2) 0.247(1) 0.010(2) 1. 0
#End of TTdata_174389-ICSD