
#(C) 2019 by FIZ Karlsruhe - Leibniz Institute for Information Infrastructure.  All rights reserved.
data_174387-ICSD
_database_code_ICSD 174387
_audit_creation_date 2011-02-01
_chemical_name_systematic 'Sodium lanthanum scandium niobium hexaoxide'
_chemical_formula_structural 'Na La Sc Nb O6'
_chemical_formula_sum 'La1 Na1 Nb1 O6 Sc1'
_chemical_name_structure_type NaLaMgWO6(mS40)
_exptl_crystal_density_diffrn 5.14
_publ_section_title

;
Investigations into structure and properties of ordered perovskites, layered
perovskites, and defect pyrochlores
;
loop_
_citation_id
_citation_journal_full
_citation_year
_citation_journal_volume
_citation_page_first
_citation_page_last
_citation_journal_id_ASTM
primary 'Dissertation Ohio State University' 2006 2006 1 161 THOSUY
loop_
_publ_author_name
'Knapp, M.C.'
_cell_length_a 7.9820(6)
_cell_length_b 7.9816(7)
_cell_length_c 8.0253(4)
_cell_angle_alpha 90
_cell_angle_beta 90.01(1)
_cell_angle_gamma 90
_cell_volume 511.28
_cell_formula_units_Z 4
_symmetry_space_group_name_H-M 'C 1 2/m 1'
_symmetry_Int_Tables_number 12
_refine_ls_R_factor_all 0.0842
loop_
_symmetry_equiv_pos_site_id
_symmetry_equiv_pos_as_xyz
1 '-x, y, -z'
2 '-x, -y, -z'
3 'x, -y, z'
4 'x, y, z'
5 '-x+1/2, y+1/2, -z'
6 '-x+1/2, -y+1/2, -z'
7 'x+1/2, -y+1/2, z'
8 'x+1/2, y+1/2, z'
loop_
_atom_type_symbol
_atom_type_oxidation_number
Na1+ 1
La3+ 3
Na1+ 1
Sc3+ 3
Nb5+ 5
O2- -2
loop_
_atom_site_label
_atom_site_type_symbol
_atom_site_symmetry_multiplicity
_atom_site_Wyckoff_symbol
_atom_site_fract_x
_atom_site_fract_y
_atom_site_fract_z
_atom_site_B_iso_or_equiv
_atom_site_occupancy
_atom_site_attached_hydrogens
Na1 Na1+ 4 g 0 0.277(2) 0 0.0050(8) 0.81(2) 0
La1 La3+ 4 g 0 0.277(2) 0 0.0050(8) 0.19(2) 0
La2 La3+ 4 h 0 0.2601(8) 0.5 0.0050(8) 0.81(2) 0
Na3 Na1+ 4 h 0 0.2601(8) 0.5 0.0050(8) 0.19(2) 0
Sc1 Sc3+ 4 i 0.7489(9) 0 0.7540(9) 0.0099(6) 1. 0
Nb1 Nb5+ 4 i 0.751(1) 0 0.248(1) 0.0099(6) 1. 0
O1 O2- 4 i 0.8051(6) 0 0.015(1) -0.015(1) 1. 0
O2 O2- 4 i 0.706(2) 0 0.496(3) 0.042(3) 1. 0
O3 O2- 4 i 0.006(2) 0 0.696(1) . 1. 0
O4 O2- 4 i 0.481(3) 0 0.773(3) 0.057(5) 1. 0
O5 O2- 8 j 0.771(3) 0.243(1) 0.742(2) . 1. 0
loop_
_atom_site_aniso_label
_atom_site_aniso_type_symbol
_atom_site_aniso_U_11
_atom_site_aniso_U_22
_atom_site_aniso_U_33
_atom_site_aniso_U_12
_atom_site_aniso_U_13
_atom_site_aniso_U_23
O3 O2- -0.04(2) 0.19(1) -0.017(2) 0 0 0
O5 O2- 0.12(1) 0.008(3) 0.11(1) 0 0 0
#End of TTdata_174387-ICSD