
#(C) 2019 by FIZ Karlsruhe - Leibniz Institute for Information Infrastructure.  All rights reserved.
data_174306-ICSD
_database_code_ICSD 174306
_audit_creation_date 2010-08-01
_chemical_name_systematic 'Tetrasodium potassium oxoferrate(III)'
_chemical_formula_structural 'Na4 K Fe O4'
_chemical_formula_sum 'Fe1 K1 Na4 O4'
_chemical_name_structure_type Na5FeO4
_exptl_crystal_density_diffrn 2.86
_publ_section_title
'Neue Oxoferrate der Alkalimetalle. Synthesen und Kristallchemie'
loop_
_citation_id
_citation_journal_full
_citation_year
_citation_journal_volume
_citation_page_first
_citation_page_last
_citation_journal_id_ASTM
primary 'Dissertation Albert-Ludwigs-Universitaet Freiburg' 2006 2006 1 203
DIUFRJ
loop_
_publ_author_name
'Frisch, G.'
_cell_length_a 10.440(1)
_cell_length_b 5.9816(4)
_cell_length_c 18.667(1)
_cell_angle_alpha 90.
_cell_angle_beta 90.
_cell_angle_gamma 90.
_cell_volume 1165.72
_cell_formula_units_Z 8
_symmetry_space_group_name_H-M 'P b c a'
_symmetry_Int_Tables_number 61
_refine_ls_R_factor_all 0.078
loop_
_symmetry_equiv_pos_site_id
_symmetry_equiv_pos_as_xyz
1 'x+1/2, y, -z+1/2'
2 'x, -y+1/2, z+1/2'
3 '-x+1/2, y+1/2, z'
4 '-x, -y, -z'
5 '-x+1/2, -y, z+1/2'
6 '-x, y+1/2, -z+1/2'
7 'x+1/2, -y+1/2, -z'
8 'x, y, z'
loop_
_atom_type_symbol
_atom_type_oxidation_number
K1+ 1
Na1+ 1
Fe3+ 3
O2- -2
loop_
_atom_site_label
_atom_site_type_symbol
_atom_site_symmetry_multiplicity
_atom_site_Wyckoff_symbol
_atom_site_fract_x
_atom_site_fract_y
_atom_site_fract_z
_atom_site_B_iso_or_equiv
_atom_site_occupancy
_atom_site_attached_hydrogens
K1 K1+ 8 c 0.3430(2) 0.0904(3) 0.00343(9) 0.0350(4) 1. 0
Na1 Na1+ 8 c 0.3034(3) 0.1005(5) 0.3573(2) 0.0253(6) 1. 0
Na2 Na1+ 8 c 0.1746(2) 0.4169(4) 0.1768(1) 0.0243(6) 1. 0
Na3 Na1+ 8 c 0.4223(3) 0.4248(5) 0.2489(2) 0.0287(6) 1. 0
Na4 Na1+ 8 c 0.0578(3) 0.0957(4) 0.0665(1) 0.0243(6) 1. 0
Fe1 Fe3+ 8 c 0.03782(9) 0.1967(2) 0.3725(5) 0.0206(3) 1. 0
O1 O2- 8 c 0.4600(4) 0.3818(7) 0.3757(2) 0.0209(9) 1. 0
O2 O2- 8 c 0.1180(5) 0.3283(8) 0.4514(2) 0.0242(9) 1. 0
O3 O2- 8 c 0.1288(4) 0.2860(8) 0.2899(2) 0.0218(9) 1. 0
O4 O2- 8 c 0.3661(4) 0.2923(8) 0.1345(2) 0.0232(9) 1. 0
loop_
_atom_site_aniso_label
_atom_site_aniso_type_symbol
_atom_site_aniso_U_11
_atom_site_aniso_U_22
_atom_site_aniso_U_33
_atom_site_aniso_U_12
_atom_site_aniso_U_13
_atom_site_aniso_U_23
K1 K1+ 0.0334(8) 0.0353(9) 0.0362(8) 0.0046(7) -0.0019(6) -0.0061(7)
Na1 Na1+ 0.0220(10) 0.0180(12) 0.0359(14) 0.0025(10) -0.0026(10) -0.0028(11)
Na2 Na1+ 0.0208(10) 0.0214(12) 0.0307(13) 0.0039(10) 0.0017(10) 0.0046(11)
Na3 Na1+ 0.0314(10) 0.0260(14) 0.0289(13) 0.0071(10) -0.0045(11) -0.0080(12)
Na4 Na1+ 0.0304(10) 0.0158(11) 0.0266(12) 0.0011(10) 0.0048(10) 0.0007(10)
Fe1 Fe3+ 0.0205(5) 0.0161(5) 0.0252(5) -0.0001(4) -0.0009(3) -0.0005(4)
O1 O2- 0.0220(20) 0.0141(10) 0.0270(20) 0.0005(20) -0.0015(20) 0.0020(20)
O2 O2- 0.0280(20) 0.0210(20) 0.0240(20) -0.0008(20) 0.0016(20) -0.0016(20)
O3 O2- 0.0240(20) 0.0180(20) 0.0230(20) -0.0012(20) -0.0014(20) 0.0006(20)
#End of TTdata_174306-ICSD