
#(C) 2019 by FIZ Karlsruhe - Leibniz Institute for Information Infrastructure.  All rights reserved.
data_174349-ICSD
_database_code_ICSD 174349
_audit_creation_date 2010-08-01
_audit_update_record 2019-02-01
_chemical_name_systematic 'Hexasodium heptamolybdate tetradecahydrate'
_chemical_formula_structural 'Na6 (Mo7 O24) (H2 O)14'
_chemical_formula_sum 'H28 Mo7 Na6 O38'
_chemical_name_structure_type Na6Mo7O24(H2O)14
_exptl_crystal_density_diffrn 2.81
_cell_measurement_temperature 296.
_publ_section_title
'Redetermination of hexasodium heptamolybdate(VI) 14-hydrate'
loop_
_citation_id
_citation_journal_full
_citation_year
_citation_journal_volume
_citation_page_first
_citation_page_last
_citation_journal_id_ASTM
primary 'Acta Crystallographica, Section E: Structure Reports Online' 2010 66
i34 i35 ACSEBH
loop_
_publ_author_name
'Hao Lujiang'
'Chen Jiangkui'
'Zhang Xiaofei'
_cell_length_a 21.1304(2)
_cell_length_b 10.37330(10)
_cell_length_c 15.6094(2)
_cell_angle_alpha 90.
_cell_angle_beta 90.
_cell_angle_gamma 90.
_cell_volume 3421.46
_cell_formula_units_Z 4
_symmetry_space_group_name_H-M 'P c a 21'
_symmetry_Int_Tables_number 29
_refine_ls_R_factor_all 0.017
loop_
_symmetry_equiv_pos_site_id
_symmetry_equiv_pos_as_xyz
1 'x+1/2, -y, z'
2 '-x+1/2, y, z+1/2'
3 '-x, -y, z+1/2'
4 'x, y, z'
loop_
_atom_type_symbol
_atom_type_oxidation_number
Mo6+ 6
Na1+ 1
O2- -2
H1+ 1
loop_
_atom_site_label
_atom_site_type_symbol
_atom_site_symmetry_multiplicity
_atom_site_Wyckoff_symbol
_atom_site_fract_x
_atom_site_fract_y
_atom_site_fract_z
_atom_site_B_iso_or_equiv
_atom_site_occupancy
_atom_site_attached_hydrogens
Mo1 Mo6+ 4 a 0.441554(16) 0.17102(3) 0.95800(3) 0.01241(9) 1 0
Mo2 Mo6+ 4 a 0.519892(17) 0.17010(4) 0.76582(3) 0.01523(10) 1 0
Mo3 Mo6+ 4 a 0.364901(18) 0.18576(4) 0.76633(3) 0.01518(10) 1 0
Mo4 Mo6+ 4 a 0.528881(18) 0.44744(4) 0.95766(3) 0.01502(9) 1 0
Mo5 Mo6+ 4 a 0.374213(18) 0.47162(4) 0.95430(3) 0.01652(10) 1 0
Mo6 Mo6+ 4 a 0.603656(18) 0.18041(4) 0.93595(3) 0.01647(10) 1 0
Mo7 Mo6+ 4 a 0.282633(18) 0.22516(4) 0.93663(3) 0.01714(10) 1 0
Na1 Na1+ 4 a 0.64293(9) 0.6312(2) 0.78932(12) 0.0257(4) 1 0
Na2 Na1+ 4 a 0.27899(10) -0.0513(2) 0.60777(14) 0.0311(5) 1 0
Na3 Na1+ 4 a 0.38753(11) -0.0891(3) 1.10058(16) 0.0458(7) 1 0
Na4 Na1+ 4 a 0.48165(9) 0.66440(19) 0.79018(13) 0.0260(5) 1 0
Na5 Na1+ 4 a 0.30429(10) 0.5433(2) 0.71744(16) 0.0364(6) 1 0
Na6 Na1+ 4 a 0.44153(9) 0.0751(2) 0.57623(13) 0.0262(5) 1 0
O1 O2- 4 a 0.31809(17) 0.3039(4) 0.7229(2) 0.0243(8) 1 0
O2 O2- 4 a 0.36309(17) 0.0599(3) 0.6943(2) 0.0241(8) 1 0
O3 O2- 4 a 0.44497(14) 0.2636(3) 0.7335(2) 0.0175(7) 1 0
O4 O2- 4 a 0.43894(15) 0.0915(3) 0.8473(2) 0.0155(7) 1 0
O5 O2- 4 a 0.51294(17) 0.0389(3) 0.6968(2) 0.0233(8) 1 0
O6 O2- 4 a 0.57476(17) 0.2655(4) 0.7163(2) 0.0253(8) 1 0
O7 O2- 4 a 0.57567(17) 0.0718(3) 0.8441(2) 0.0206(7) 1 0
O8 O2- 4 a 0.66719(17) 0.2509(4) 0.8854(3) 0.0301(9) 1 0
O9 O2- 4 a 0.63533(17) 0.0697(3) 1.0055(2) 0.0255(8) 1 0
O10 O2- 4 a 0.52100(14) 0.2723(3) 0.8833(2) 0.0150(7) 1 0
O11 O2- 4 a 0.50591(16) 0.0893(3) 1.0023(2) 0.0210(7) 1 0
O12 O2- 4 a 0.58294(17) 0.3174(3) 1.0138(2) 0.0194(7) 1 0
O13 O2- 4 a 0.58341(16) 0.5165(4) 0.8912(2) 0.0266(8) 1 0
O14 O2- 4 a 0.52789(18) 0.5444(3) 1.0477(2) 0.0259(8) 1 0
O15 O2- 4 a 0.44765(14) 0.3318(3) 1.0129(2) 0.0153(7) 1 0
O16 O2- 4 a 0.45439(14) 0.5087(3) 0.9006(2) 0.0184(7) 1 0
O17 O2- 4 a 0.37682(17) 0.1012(3) 1.0071(2) 0.0238(8) 1 0
O18 O2- 4 a 0.37170(14) 0.2913(3) 0.8856(2) 0.0156(7) 1 0
O19 O2- 4 a 0.22488(17) 0.3105(4) 0.8851(2) 0.0299(9) 1 0
O20 O2- 4 a 0.24370(17) 0.1265(4) 1.0080(2) 0.0269(8) 1 0
O21 O2- 4 a 0.30435(16) 0.1066(3) 0.8458(2) 0.0183(7) 1 0
O22 O2- 4 a 0.32638(17) 0.5509(4) 0.8837(2) 0.0290(9) 1 0
O23 O2- 4 a 0.31128(15) 0.3577(3) 1.0128(2) 0.0195(7) 1 0
O24 O2- 4 a 0.37878(19) 0.5698(4) 1.0429(3) 0.0307(9) 1 0
O25 O2- 4 a 0.3174(2) -0.0027(5) 1.1998(3) 0.0462(11) 1 0
O26 O2- 4 a 0.2972(3) -0.1913(5) 1.0428(3) 0.0478(12) 1 0
O27 O2- 4 a 0.4691(2) -0.1981(4) 1.0305(2) 0.0296(9) 1 0
O28 O2- 4 a 0.3203(2) -0.2267(4) 0.6941(3) 0.0352(9) 1 0
O29 O2- 4 a 0.2912(3) 0.5327(7) 0.5640(4) 0.086(2) 1 0
O30 O2- 4 a 0.41466(18) 0.5240(4) 0.7083(2) 0.0288(8) 1 0
O31 O2- 4 a 0.4549(2) 0.7974(4) 0.6737(3) 0.0344(10) 1 0
O32 O2- 4 a 0.4210(2) 0.8248(4) 0.8668(3) 0.0302(9) 1 0
O33 O2- 4 a 0.5612(2) 0.5692(5) 0.6945(3) 0.0376(10) 1 0
O34 O2- 4 a 0.5724(2) 0.7960(4) 0.8444(3) 0.0366(10) 1 0
O35 O2- 4 a 0.69267(19) 0.7408(4) 0.6777(2) 0.0323(9) 1 0
O36 O2- 4 a 0.6942(2) 0.4283(4) 0.7449(3) 0.0491(12) 1 0
O37 O2- 4 a 0.38065(18) 0.2485(3) 0.5149(3) 0.0421(10) 1 0
O38 O2- 4 a 0.71393(19) 0.1461(4) 0.3624(3) 0.0348(10) 1 0
H1 H1+ 4 a 0.316(3) 0.0761(6) 1.196(4) 0.08 1 0
H2 H1+ 4 a 0.326(3) -0.029(5) 1.2479(15) 0.08 1 0
H3 H1+ 4 a 0.295(3) -0.167(5) 0.9929(12) 0.08 1 0
H4 H1+ 4 a 0.299(4) -0.2700(9) 1.049(3) 0.08 1 0
H5 H1+ 4 a 0.478(3) -0.170(4) 0.982(2) 0.08 1 0
H6 H1+ 4 a 0.467(4) -0.2784(7) 1.034(4) 0.08 1 0
H7 H1+ 4 a 0.306(2) -0.208(6) 0.7412(14) 0.08 1 0
H8 H1+ 4 a 0.3579(12) -0.209(8) 0.688(4) 0.08 1 0
H9 H1+ 4 a 0.287(3) 0.4546(11) 0.559(4) 0.08 1 0
H10 H1+ 4 a 0.318(3) 0.565(5) 0.532(4) 0.08 1 0
H11 H1+ 4 a 0.428(2) 0.537(5) 0.6599(12) 0.08 1 0
H12 H1+ 4 a 0.427(2) 0.456(3) 0.730(3) 0.08 1 0
H13 H1+ 4 a 0.455(3) 0.768(5) 0.6248(14) 0.08 1 0
H14 H1+ 4 a 0.477(3) 0.862(5) 0.680(4) 0.08 1 0
H15 H1+ 4 a 0.3839(8) 0.803(5) 0.861(5) 0.08 1 0
H16 H1+ 4 a 0.430(3) 0.895(4) 0.845(6) 0.08 1 0
H17 H1+ 4 a 0.562(4) 0.4902(5) 0.693(4) 0.08 1 0
H18 H1+ 4 a 0.559(3) 0.603(5) 0.6473(17) 0.08 1 0
H19 H1+ 4 a 0.584(3) 0.784(6) 0.8939(13) 0.08 1 0
H20 H1+ 4 a 0.564(3) 0.8712(15) 0.832(4) 0.08 1 0
H21 H1+ 4 a 0.7309(5) 0.731(7) 0.683(4) 0.08 1 0
H22 H1+ 4 a 0.679(3) 0.726(9) 0.629(2) 0.08 1 0
H23 H1+ 4 a 0.687(3) 0.376(4) 0.783(3) 0.08 1 0
H24 H1+ 4 a 0.684(4) 0.405(6) 0.6968(18) 0.08 1 0
H25 H1+ 4 a 0.374(3) 0.172(2) 0.526(5) 0.08 1 0
H26 H1+ 4 a 0.413(2) 0.278(5) 0.535(5) 0.08 1 0
H27 H1+ 4 a 0.716(3) 0.0671(5) 0.361(6) 0.08 1 0
H28 H1+ 4 a 0.7484(13) 0.182(5) 0.361(6) 0.08 1 0
loop_
_atom_site_aniso_label
_atom_site_aniso_type_symbol
_atom_site_aniso_U_11
_atom_site_aniso_U_22
_atom_site_aniso_U_33
_atom_site_aniso_U_12
_atom_site_aniso_U_13
_atom_site_aniso_U_23
Mo1 Mo6+ 0.0120(2) 0.01206(19) 0.0131(2) -0.00056(13) -0.00043(16) 0.00097(16)
Mo2 Mo6+ 0.0147(2) 0.0172(2) 0.01380(19) -0.00019(14) 0.00116(17) -0.00129(16)
Mo3 Mo6+ 0.0143(2) 0.0164(2) 0.01480(19) -0.00104(15) -0.00192(17) -0.00082(16)
Mo4 Mo6+ 0.01592(19) 0.01323(19) 0.01592(19) -0.00242(14) -0.00039(17)
0.00063(16)
Mo5 Mo6+ 0.01692(19) 0.01323(19) 0.0194(2) 0.00094(14) 0.00030(17) -0.00124(16)
Mo6 Mo6+ 0.01212(19) 0.0185(2) 0.0187(2) 0.00150(14) -0.00171(16) 0.00215(16)
Mo7 Mo6+ 0.01230(19) 0.0199(2) 0.0192(2) -0.00179(15) 0.00169(16) 0.00027(17)
Na1 Na1+ 0.0219(10) 0.0308(11) 0.0244(11) -0.0043(8) 0.0011(8) 0.0013(9)
Na2 Na1+ 0.0243(11) 0.0370(13) 0.0321(11) 0.0014(9) 0.0002(9) 0.0022(10)
Na3 Na1+ 0.0321(13) 0.0686(19) 0.0366(13) 0.0158(12) 0.0011(10) 0.0072(13)
Na4 Na1+ 0.0311(12) 0.0249(11) 0.0219(10) -0.0007(8) 0.0007(8) 0.0024(8)
Na5 Na1+ 0.0246(12) 0.0302(13) 0.0543(15) 0.0009(9) 0.0001(10) 0.0007(11)
Na6 Na1+ 0.0241(11) 0.0284(12) 0.0260(11) 0.0030(8) -0.0005(8) -0.0041(9)
O1 O2- 0.0218(19) 0.025(2) 0.027(2) 0.0010(15) -0.0034(15) 0.0026(15)
O2 O2- 0.0251(19) 0.0249(19) 0.0223(19) -0.0018(15) -0.0007(15) -0.0037(15)
O3 O2- 0.0144(17) 0.0182(18) 0.0198(18) -0.0009(13) 0.0017(12) 0.0042(14)
O4 O2- 0.0175(18) 0.0149(17) 0.0140(17) -0.0016(13) 0.0002(12) -0.0010(13)
O5 O2- 0.026(2) 0.022(2) 0.0210(18) 0.0011(14) -0.0012(15) -0.0060(15)
O6 O2- 0.0202(18) 0.029(2) 0.026(2) -0.0086(15) 0.0028(15) 0.0000(15)
O7 O2- 0.0232(19) 0.0191(18) 0.0196(18) 0.0089(15) -0.0032(14) -0.0017(14)
O8 O2- 0.0200(19) 0.032(2) 0.038(2) -0.0013(16) 0.0051(17) 0.0019(17)
O9 O2- 0.0207(19) 0.027(2) 0.0284(19) 0.0035(15) -0.0036(15) 0.0043(16)
O10 O2- 0.0129(17) 0.0169(18) 0.0152(16) -0.0006(12) -0.0004(13) -0.0015(13)
O11 O2- 0.0217(18) 0.0199(18) 0.0215(17) 0.0038(14) -0.0044(15) 0.0019(14)
O12 O2- 0.0197(17) 0.0209(18) 0.0178(18) 0.0015(13) -0.0056(15) 0.0011(14)
O13 O2- 0.025(2) 0.028(2) 0.027(2) -0.0051(15) 0.0063(15) 0.0025(16)
O14 O2- 0.034(2) 0.022(2) 0.0216(19) 0.0002(15) -0.0038(16) -0.0059(15)
O15 O2- 0.0169(17) 0.0159(17) 0.0131(17) -0.0004(12) 0.0025(13) -0.0002(13)
O16 O2- 0.0196(17) 0.0150(17) 0.0205(17) -0.0006(13) -0.0024(13) 0.0029(14)
O17 O2- 0.0273(19) 0.0213(18) 0.0229(18) -0.0062(14) 0.0036(15) 0.0020(14)
O18 O2- 0.0124(16) 0.0198(17) 0.0146(17) -0.0009(13) 0.0017(13) 0.0010(14)
O19 O2- 0.0235(19) 0.034(2) 0.032(2) 0.0050(16) -0.0054(17) -0.0014(17)
O20 O2- 0.0202(19) 0.031(2) 0.0292(19) -0.0080(16) 0.0041(15) 0.0039(17)
O21 O2- 0.0182(18) 0.0191(18) 0.0176(17) -0.0076(14) -0.0002(14) -0.0005(13)
O22 O2- 0.025(2) 0.027(2) 0.035(2) 0.0029(16) -0.0056(17) 0.0051(17)
O23 O2- 0.0197(17) 0.0194(17) 0.0192(17) -0.0010(14) 0.0058(14) -0.0020(14)
O24 O2- 0.039(2) 0.0199(19) 0.033(2) -0.0003(16) 0.0012(18) -0.0086(16)
O25 O2- 0.051(3) 0.042(3) 0.046(3) -0.001(2) 0.006(2) -0.003(2)
O26 O2- 0.066(3) 0.040(3) 0.038(3) 0.014(2) -0.004(2) -0.006(2)
O27 O2- 0.032(2) 0.027(2) 0.030(2) -0.0028(17) -0.0004(18) 0.0008(16)
O28 O2- 0.036(2) 0.030(2) 0.039(2) 0.0001(18) -0.0006(19) -0.0010(19)
O29 O2- 0.096(5) 0.107(5) 0.054(3) -0.064(4) -0.009(3) 0.002(3)
O30 O2- 0.029(2) 0.025(2) 0.032(2) -0.0035(16) 0.0051(17) 0.0035(16)
O31 O2- 0.053(3) 0.025(2) 0.025(2) -0.0062(19) 0.0011(18) 0.0016(17)
O32 O2- 0.034(2) 0.026(2) 0.031(2) -0.0006(17) 0.0015(19) -0.0023(16)
O33 O2- 0.030(2) 0.047(3) 0.036(2) 0.002(2) -0.0058(18) -0.015(2)
O34 O2- 0.046(3) 0.023(2) 0.041(3) 0.0031(19) -0.004(2) -0.0026(18)
O35 O2- 0.024(2) 0.046(3) 0.026(2) -0.0014(18) -0.0036(16) 0.0077(18)
O36 O2- 0.034(2) 0.041(3) 0.073(3) 0.0010(19) 0.013(2) 0.006(2)
O37 O2- 0.035(2) 0.041(3) 0.051(3) -0.0027(19) -0.008(2) 0.010(2)
O38 O2- 0.026(2) 0.031(2) 0.047(2) -0.0036(18) -0.0036(19) -0.005(2)
#End of TTdata_174349-ICSD