
#(C) 2019 by FIZ Karlsruhe - Leibniz Institute for Information Infrastructure.  All rights reserved.
data_18005-ICSD
_database_code_ICSD 18005
_audit_creation_date 1986-10-02
_audit_update_record 2012-08-01
_chemical_name_systematic 'Sodium neodymium fluoride (1.5/1.5/6)'
_chemical_formula_structural '(Na Nd F4)1.5'
_chemical_formula_sum 'F6 Na1.5 Nd1.5'
_chemical_name_structure_type NaNdF4
_exptl_crystal_density_diffrn 5.07
_publ_section_title

;
Crystal structure of hexagonal sodium neodymium fluoride and related compounds
;
loop_
_citation_id
_citation_journal_full
_citation_year
_citation_journal_volume
_citation_page_first
_citation_page_last
_citation_journal_id_ASTM
primary 'Inorganic Chemistry' 1965 4 881 886 INOCAJ
loop_
_publ_author_name
'Burns, J.H.'
_cell_length_a 6.100(3)
_cell_length_b 6.100(3)
_cell_length_c 3.711(3)
_cell_angle_alpha 90.
_cell_angle_beta 90.
_cell_angle_gamma 120.
_cell_volume 119.59
_cell_formula_units_Z 1
_symmetry_space_group_name_H-M 'P -6'
_symmetry_Int_Tables_number 174
_refine_ls_R_factor_all 0.019
loop_
_symmetry_equiv_pos_site_id
_symmetry_equiv_pos_as_xyz
1 '-x+y, -x, -z'
2 '-y, x-y, -z'
3 'x, y, -z'
4 '-x+y, -x, z'
5 '-y, x-y, z'
6 'x, y, z'
loop_
_atom_type_symbol
_atom_type_oxidation_number
Nd3+ 3
Na1+ 1
F1- -1
loop_
_atom_site_label
_atom_site_type_symbol
_atom_site_symmetry_multiplicity
_atom_site_Wyckoff_symbol
_atom_site_fract_x
_atom_site_fract_y
_atom_site_fract_z
_atom_site_B_iso_or_equiv
_atom_site_occupancy
_atom_site_attached_hydrogens
Nd1 Nd3+ 1 a 0 0 0 . 1. 0
Nd2 Nd3+ 1 f 0.6667 0.3333 0.5 . 0.5 0
Na1 Na1+ 1 f 0.6667 0.3333 0.5 . 0.5 0
Na2 Na1+ 2 h 0.3333 0.6667 0.656(3) . 0.5 0
F1 F1- 3 j 0.6337(7) 0.0429(7) 0 . 1. 0
F2 F1- 3 k 0.7339(5) 0.7549(5) 0.5 . 1. 0
loop_
_atom_site_aniso_label
_atom_site_aniso_type_symbol
_atom_site_aniso_beta_11
_atom_site_aniso_beta_22
_atom_site_aniso_beta_33
_atom_site_aniso_beta_12
_atom_site_aniso_beta_13
_atom_site_aniso_beta_23
Nd1 Nd3+ 0.00433(3) 0.00433(3) 0.00411(7) 0.00216(3) 0 0
Nd2 Nd3+ 0.00390(5) 0.00390(5) 0.0120(2) 0.00195(5) 0 0
Na1 Na1+ 0.00390(5) 0.00390(5) 0.0120(2) 0.00195(5) 0 0
Na2 Na1+ 0.0135(8) 0.0135(8) 0.050(5) 0.0068(8) 0 0
F1 F1- 0.0073(6) 0.0109(7) 0.059(3) 0.0059(3) 0 0
F2 F1- 0.0092(5) 0.0063(5) 0.0123(8) 0.0023(4) 0 0
#End of TTdata_18005-ICSD