
#(C) 2017 by FIZ Karlsruhe - Leibniz Institute for Information Infrastructure.  All rights reserved.
data_18019-ICSD
_database_code_ICSD 18019
_audit_creation_date 1986-09-30
_audit_update_record 2012-02-01
_chemical_name_systematic 'Rubidium lithium fluoride'
_chemical_formula_structural 'Rb Li F2'
_chemical_formula_sum 'F2 Li1 Rb1'
_chemical_name_structure_type RbLiF2
_exptl_crystal_density_diffrn 3.4
_publ_section_title

;
Crystal structures of rubidium lithium fluoride, Rb Li F2, and cesium lithium
fluoride, Cs Li F2
;
loop_
_citation_id
_citation_journal_full
_citation_year
_citation_journal_volume
_citation_page_first
_citation_page_last
_citation_journal_id_ASTM
primary 'Inorganic Chemistry' 1965 4 1510 1512 INOCAJ
loop_
_publ_author_name
'Burns, J.H.'
'Busing, W.R.'
_cell_length_a 5.83(1)
_cell_length_b 11.16(2)
_cell_length_c 7.86(2)
_cell_angle_alpha 90.
_cell_angle_beta 94.91(8)
_cell_angle_gamma 90.
_cell_volume 509.52
_cell_formula_units_Z 8
_symmetry_space_group_name_H-M 'C 1 2/c 1'
_symmetry_Int_Tables_number 15
_refine_ls_R_factor_all 0.079
loop_
_symmetry_equiv_pos_site_id
_symmetry_equiv_pos_as_xyz
1 'x, -y, z+1/2'
2 '-x, -y, -z'
3 '-x, y, -z+1/2'
4 'x, y, z'
5 'x+1/2, -y+1/2, z+1/2'
6 '-x+1/2, -y+1/2, -z'
7 '-x+1/2, y+1/2, -z+1/2'
8 'x+1/2, y+1/2, z'
loop_
_atom_type_symbol
_atom_type_oxidation_number
Rb1+ 1
Li1+ 1
F1- -1
loop_
_atom_site_label
_atom_site_type_symbol
_atom_site_symmetry_multiplicity
_atom_site_Wyckoff_symbol
_atom_site_fract_x
_atom_site_fract_y
_atom_site_fract_z
_atom_site_B_iso_or_equiv
_atom_site_occupancy
_atom_site_attached_hydrogens
Rb1 Rb1+ 8 f 0.2649(5) 0.4105(3) 0.0713(5) 1.73 1. 0
Li1 Li1+ 8 f 0.215(9) 0.191(6) 0.351(8) 2.5 1. 0
F1 F1- 8 f 0.219 0.362(2) 0.416(3) 1.4 1. 0
F2 F1- 4 e 0 0.116(2) 0.25 1.8 1. 0
F3 F1- 4 e 0 0.682(2) 0.25 2.1 1. 0
#End of TTdata_18019-ICSD