
#(C) 2018 by FIZ Karlsruhe - Leibniz Institute for Information Infrastructure.  All rights reserved.
data_180289-ICSD
_database_code_ICSD 180289
_audit_creation_date 2011-08-01
_chemical_name_systematic 'Dilithium barium silicate'
_chemical_formula_structural 'Li2 Ba (Si O4)'
_chemical_formula_sum 'Ba1 Li2 O4 Si1'
_exptl_crystal_density_diffrn 4.02
_publ_section_title

;
Electron density distribution and crystal structure of lithium barium
silicate, Li2 Ba Si O4
;
loop_
_citation_id
_citation_journal_full
_citation_year
_citation_journal_volume
_citation_page_first
_citation_page_last
_citation_journal_id_ASTM
primary 'Powder Diffraction' 2010 25 336 341 PODIE2
loop_
_publ_author_name
'Kudo, T.'
'Hirano, Y.'
'Momma, K.'
'Fukuda, K.'
_cell_length_a 8.10408(2)
_cell_length_b 8.10408(2)
_cell_length_c 10.60829(4)
_cell_angle_alpha 90.
_cell_angle_beta 90.
_cell_angle_gamma 120.
_cell_volume 603.37
_cell_formula_units_Z 6
_symmetry_space_group_name_H-M 'P 63 c m'
_symmetry_Int_Tables_number 185
_refine_ls_R_factor_all 0.0098
loop_
_symmetry_equiv_pos_site_id
_symmetry_equiv_pos_as_xyz
1 'x, x-y, z+1/2'
2 '-x+y, y, z+1/2'
3 '-y, -x, z+1/2'
4 'x-y, x, z+1/2'
5 'y, -x+y, z+1/2'
6 '-x, -y, z+1/2'
7 '-x, -x+y, z'
8 'x-y, -y, z'
9 'y, x, z'
10 '-x+y, -x, z'
11 '-y, x-y, z'
12 'x, y, z'
loop_
_atom_type_symbol
_atom_type_oxidation_number
Li1+ 1
Ba2+ 2
Si4+ 4
O2- -2
loop_
_atom_site_label
_atom_site_type_symbol
_atom_site_symmetry_multiplicity
_atom_site_Wyckoff_symbol
_atom_site_fract_x
_atom_site_fract_y
_atom_site_fract_z
_atom_site_B_iso_or_equiv
_atom_site_occupancy
_atom_site_attached_hydrogens
Li1 Li1+ 6 c 0.2248(31) 0 0.3915(25) 0.029 1. 0
Li2 Li1+ 6 c 0.2730(29) 0 0.0223(24) 0.024 1. 0
Ba1 Ba2+ 6 c 0.57150(7) 0 0.2384(7) 0.019 1. 0
Si1 Si4+ 2 a 0 0 0.1540(6) 0.014 1. 0
Si2 Si4+ 4 b 0.3333 0.6667 0.4838(10) 0.014 1. 0
O1 O2- 2 a 0 0 0 0.009 1. 0
O2 O2- 4 b 0.3333 0.6667 0.1366(4) 0.014 1. 0
O3 O2- 6 c 0.1900(7) 0 0.2034(8) 0.021 1. 0
O4 O2- 12 d 0.2243(6) 0.4477(5) 0.4339(8) 0.018 1. 0
loop_
_atom_site_aniso_label
_atom_site_aniso_type_symbol
_atom_site_aniso_U_11
_atom_site_aniso_U_22
_atom_site_aniso_U_33
_atom_site_aniso_U_12
_atom_site_aniso_U_13
_atom_site_aniso_U_23
Li1 Li1+ 0.018(11) 0.025(14) 0.045(19) 0.012(7) 0.013(11) 0.
Li2 Li1+ 0.029(11) 0.014(13) 0.024(16) 0.007(7) 0.015(10) 0.
Ba1 Ba2+ 0.0217(6) 0.0139(6) 0.0199(6) 0.0069(3) -0.0060(8) 0.
Si1 Si4+ 0.0136(22) 0.0136(22) 0.0160(35) 0.0068(11) 0. 0.
Si2 Si4+ 0.0109(12) 0.0109(12) 0.0186(23) 0.0055(6) 0. 0.
O1 O2- 0.0097(33) 0.0097(33) 0.0090(72) 0.0049(16) 0. 0.
O2 O2- 0.0112(31) 0.0112(31) 0.0186(54) 0.0056(16) 0. 0.
O3 O2- 0.0228(32) 0.0285(41) 0.0130(71) 0.0142(21) 0.0095(29) 0.
O4 O2- 0.0107(35) 0.0218(31) 0.0238(34) 0.0096(27) 0.0094(25) 0.0104(23)
#End of TTdata_180289-ICSD