
#(C) 2019 by FIZ Karlsruhe - Leibniz Institute for Information Infrastructure.  All rights reserved.
data_180329-ICSD
_database_code_ICSD 180329
_audit_creation_date 2011-08-01
_chemical_name_systematic 'Sodium aluminotrisilicate'
_chemical_formula_structural 'Na ((Al Si3) O8)'
_chemical_formula_sum 'Al1 Na1 O8 Si3'
_chemical_name_structure_type Feldspar#-(TC)-Albite-NaAlSi3O8
_chemical_name_mineral Analbite
_exptl_crystal_density_diffrn 2.75
_cell_measurement_pressure 3200000.
_publ_section_title
'High-pressure structural evolution and equation of state of analbite'
loop_
_citation_id
_citation_journal_full
_citation_year
_citation_journal_volume
_citation_page_first
_citation_page_last
_citation_journal_id_ASTM
primary 'American Mineralogist' 2011 96 383 392 AMMIAY
loop_
_publ_author_name
'Curetti, N.'
'Sochalsky-Kolbus, L.M.'
'Angel, R.J.'
'Benna, P.'
'Nestola, F.'
'Bruno, E.'
_cell_length_a 7.9499(15)
_cell_length_b 12.7297(7)
_cell_length_c 7.019(2)
_cell_angle_alpha 93.740(10)
_cell_angle_beta 116.55(2)
_cell_angle_gamma 90.510(10)
_cell_volume 633.48
_cell_formula_units_Z 4
_symmetry_space_group_name_H-M 'C -1'
_symmetry_Int_Tables_number 2
_refine_ls_R_factor_all 0.0719
loop_
_symmetry_equiv_pos_site_id
_symmetry_equiv_pos_as_xyz
1 '-x, -y, -z'
2 'x, y, z'
3 '-x+1/2, -y+1/2, -z'
4 'x+1/2, y+1/2, z'
loop_
_atom_type_symbol
_atom_type_oxidation_number
Na1+ 1
Al3+ 3
Si4+ 4
Al3+ 3
Si4+ 4
Al3+ 3
Si4+ 4
Al3+ 3
Si4+ 4
O2- -2
loop_
_atom_site_label
_atom_site_type_symbol
_atom_site_symmetry_multiplicity
_atom_site_Wyckoff_symbol
_atom_site_fract_x
_atom_site_fract_y
_atom_site_fract_z
_atom_site_B_iso_or_equiv
_atom_site_occupancy
_atom_site_attached_hydrogens
Na1 Na1+ 4 i 0.2670(15) 0.0095(7) 0.134(4) 0.097(15) 1. 0
Al1 Al3+ 4 i 0.0056(6) 0.1609(2) 0.2105(13) 0.011(1) 0.25 0
Si1 Si4+ 4 i 0.0056(6) 0.1609(2) 0.2105(13) 0.011(1) 0.75 0
Al2 Al3+ 4 i 0.0018(6) 0.8147(2) 0.2282(13) 0.016(1) 0.25 0
Si2 Si4+ 4 i 0.0018(6) 0.8147(2) 0.2282(13) 0.016(1) 0.75 0
Al3 Al3+ 4 i 0.6843(7) 0.1051(2) 0.3161(15) 0.014(1) 0.25 0
Si3 Si4+ 4 i 0.6843(7) 0.1051(2) 0.3161(15) 0.014(1) 0.75 0
Al4 Al3+ 4 i 0.6722(7) 0.8754(2) 0.3500(16) 0.014(1) 0.25 0
Si4 Si4+ 4 i 0.6722(7) 0.8754(2) 0.3500(16) 0.014(1) 0.75 0
O1 O2- 4 i 0.0047(13) 0.1323(5) 0.980(2) 0.023(2) 1. 0
O2 O2- 4 i 0.5744(15) 0.9885(5) 0.272(3) 0.016(1) 1. 0
O3 O2- 4 i 0.8162(15) 0.0979(5) 0.190(3) 0.020(2) 1. 0
O4 O2- 4 i 0.8107(17) 0.8448(6) 0.246(4) 0.024(2) 1. 0
O5 O2- 4 i 0.0010(15) 0.2871(5) 0.278(3) 0.022(2) 1. 0
O6 O2- 4 i 0.0144(17) 0.6855(6) 0.207(4) 0.027(2) 1. 0
O7 O2- 4 i 0.2027(14) 0.1119(5) 0.387(3) 0.021(2) 1. 0
O8 O2- 4 i 0.1886(13) 0.8679(6) 0.425(2) 0.023(2) 1. 0
#End of TTdata_180329-ICSD