
#(C) 2019 by FIZ Karlsruhe - Leibniz Institute for Information Infrastructure.  All rights reserved.
data_180330-ICSD
_database_code_ICSD 180330
_audit_creation_date 2011-08-01
_chemical_name_systematic 'Sodium aluminotrisilicate'
_chemical_formula_structural 'Na ((Al Si3) O8)'
_chemical_formula_sum 'Al1 Na1 O8 Si3'
_chemical_name_structure_type Feldspar#-(TC)-Albite-NaAlSi3O8
_chemical_name_mineral Analbite
_exptl_crystal_density_diffrn 2.84
_cell_measurement_pressure 5500000.
_publ_section_title
'High-pressure structural evolution and equation of state of analbite'
loop_
_citation_id
_citation_journal_full
_citation_year
_citation_journal_volume
_citation_page_first
_citation_page_last
_citation_journal_id_ASTM
primary 'American Mineralogist' 2011 96 383 392 AMMIAY
loop_
_publ_author_name
'Curetti, N.'
'Sochalsky-Kolbus, L.M.'
'Angel, R.J.'
'Benna, P.'
'Nestola, F.'
'Bruno, E.'
_cell_length_a 7.8171(14)
_cell_length_b 12.660(7)
_cell_length_c 6.9517(19)
_cell_angle_alpha 93.80(5)
_cell_angle_beta 116.50(2)
_cell_angle_gamma 90.86(4)
_cell_volume 613.57
_cell_formula_units_Z 4
_symmetry_space_group_name_H-M 'C -1'
_symmetry_Int_Tables_number 2
_refine_ls_R_factor_all 0.0802
loop_
_symmetry_equiv_pos_site_id
_symmetry_equiv_pos_as_xyz
1 '-x, -y, -z'
2 'x, y, z'
3 '-x+1/2, -y+1/2, -z'
4 'x+1/2, y+1/2, z'
loop_
_atom_type_symbol
_atom_type_oxidation_number
Na1+ 1
Al3+ 3
Si4+ 4
Al3+ 3
Si4+ 4
Al3+ 3
Si4+ 4
Al3+ 3
Si4+ 4
O2- -2
loop_
_atom_site_label
_atom_site_type_symbol
_atom_site_symmetry_multiplicity
_atom_site_Wyckoff_symbol
_atom_site_fract_x
_atom_site_fract_y
_atom_site_fract_z
_atom_site_B_iso_or_equiv
_atom_site_occupancy
_atom_site_attached_hydrogens
Na1 Na1+ 4 i 0.2602(13) 0.011(3) 0.1330(19) 0.13(3) 1. 0
Al1 Al3+ 4 i 0.0058(6) 0.1595(12) 0.2129(7) 0.015(1) 0.25 0
Si1 Si4+ 4 i 0.0058(6) 0.1595(12) 0.2129(7) 0.015(1) 0.75 0
Al2 Al3+ 4 i 0.0011(6) 0.8149(12) 0.2293(7) 0.016(1) 0.25 0
Si2 Si4+ 4 i 0.0011(6) 0.8149(12) 0.2293(7) 0.016(1) 0.75 0
Al3 Al3+ 4 i 0.6814(6) 0.1038(11) 0.3133(7) 0.017(1) 0.25 0
Si3 Si4+ 4 i 0.6814(6) 0.1038(11) 0.3133(7) 0.017(1) 0.75 0
Al4 Al3+ 4 i 0.6653(6) 0.8753(11) 0.3525(7) 0.016(1) 0.25 0
Si4 Si4+ 4 i 0.6653(6) 0.8753(11) 0.3525(7) 0.016(1) 0.75 0
O1 O2- 4 i 0.0053(17) 0.132(3) 0.9793(18) 0.029(3) 1. 0
O2 O2- 4 i 0.5653(15) 0.9866(14) 0.2741(18) 0.022(2) 1. 0
O3 O2- 4 i 0.8170(14) 0.092(3) 0.1928(19) 0.026(3) 1. 0
O4 O2- 4 i 0.8017(17) 0.841(3) 0.239(2) 0.026(3) 1. 0
O5 O2- 4 i -0.0088(15) 0.2857(15) 0.2734(18) 0.023(3) 1. 0
O6 O2- 4 i 0.0105(16) 0.6861(16) 0.2017(19) 0.027(3) 1. 0
O7 O2- 4 i 0.2071(14) 0.110(3) 0.3873(16) 0.023(3) 1. 0
O8 O2- 4 i 0.1925(16) 0.867(3) 0.4321(17) 0.029(3) 1. 0
#End of TTdata_180330-ICSD