
#(C) 2019 by FIZ Karlsruhe - Leibniz Institute for Information Infrastructure.  All rights reserved.
data_180307-ICSD
_database_code_ICSD 180307
_audit_creation_date 2011-08-01
_chemical_name_systematic 'Sodium iron digermanate'
_chemical_formula_structural 'Na Fe (Ge2 O6)'
_chemical_formula_sum 'Fe1 Ge2 Na1 O6'
_chemical_name_structure_type Pyroxene-CaMg(SiO3)2
_exptl_crystal_density_diffrn 4.54
_cell_measurement_temperature 110.
_publ_section_title

;
Nuclear and incommensurate magnetic structure of Na Fe Ge2 O6 between 5 K and
298 K and new data on multiferroic Na Fe Si2 O6
;
loop_
_citation_id
_citation_journal_full
_citation_year
_citation_journal_volume
_citation_page_first
_citation_page_last
_citation_journal_id_ASTM
primary 'Physics and Chemistry of Minerals' 2011 38 139 157 PCMIDU
loop_
_publ_author_name
'Redhammer, G.J.'
'Senyshyn, A.'
'Meven, M.'
'Roth, G.'
'Prinz, S.'
'Pachler, A.'
'Tippelt, G.'
'Pietzonka, C.'
'Treutmann, W.'
'Hoelzel, M.'
'Pedersen, B.'
'Amthauer, G.'
_cell_length_a 9.9960(8)
_cell_length_b 8.9185(7)
_cell_length_c 5.5132(4)
_cell_angle_alpha 90.
_cell_angle_beta 107.539(1)
_cell_angle_gamma 90.
_cell_volume 468.65
_cell_formula_units_Z 4
_symmetry_space_group_name_H-M 'C 1 2/c 1'
_symmetry_Int_Tables_number 15
_refine_ls_R_factor_all 0.0201
loop_
_symmetry_equiv_pos_site_id
_symmetry_equiv_pos_as_xyz
1 'x, -y, z+1/2'
2 '-x, -y, -z'
3 '-x, y, -z+1/2'
4 'x, y, z'
5 'x+1/2, -y+1/2, z+1/2'
6 '-x+1/2, -y+1/2, -z'
7 '-x+1/2, y+1/2, -z+1/2'
8 'x+1/2, y+1/2, z'
loop_
_atom_type_symbol
_atom_type_oxidation_number
Na1+ 1
Fe3+ 3
Ge4+ 4
O2- -2
loop_
_atom_site_label
_atom_site_type_symbol
_atom_site_symmetry_multiplicity
_atom_site_Wyckoff_symbol
_atom_site_fract_x
_atom_site_fract_y
_atom_site_fract_z
_atom_site_B_iso_or_equiv
_atom_site_occupancy
_atom_site_attached_hydrogens
Na1 Na1+ 4 e 0 0.3008(2) 0.25 0.0071(5) 1. 0
Fe1 Fe3+ 4 e 0 0.90386(5) 0.25 0.0026(2) 1. 0
Ge1 Ge4+ 8 f 0.28808(3) 0.09398(3) 0.22957(6) 0.0030(2) 1. 0
O1 O2- 8 f 0.1052(2) 0.0810(2) 0.1308(2) 0.0044(4) 1. 0
O2 O2- 8 f 0.3571(2) 0.2720(2) 0.3005(3) 0.0067(3) 1. 0
O3 O2- 8 f 0.3616(2) 0.0072(2) 0.0145(2) 0.0055(4) 1. 0
loop_
_atom_site_aniso_label
_atom_site_aniso_type_symbol
_atom_site_aniso_U_11
_atom_site_aniso_U_22
_atom_site_aniso_U_33
_atom_site_aniso_U_12
_atom_site_aniso_U_13
_atom_site_aniso_U_23
Na1 Na1+ 0.0074(7) 0.0056(6) 0.0078(6) 0. 0.0016(6) 0.
Fe1 Fe3+ 0.0016(3) 0.0025(3) 0.0039(3) 0. 0.0013(2) 0.
Ge1 Ge4+ 0.0022(2) 0.0028(3) 0.0043(3) -0.0002(6) 0.0014(2) -0.0001(6)
O1 O2- 0.0028(7) 0.0042(7) 0.0060(7) -0.0008(7) 0.0010(6) -0.0005(6)
O2 O2- 0.0075(7) 0.0049(6) 0.0086(7) -0.0028(6) 0.0036(7) -0.0014(7)
O3 O2- 0.0039(7) 0.0068(7) 0.0060(7) 0.0002(7) 0.0018(6) -0.0023(6)
#End of TTdata_180307-ICSD