
#(C) 2019 by FIZ Karlsruhe - Leibniz Institute for Information Infrastructure.  All rights reserved.
data_180326-ICSD
_database_code_ICSD 180326
_audit_creation_date 2011-08-01
_chemical_name_systematic 'Sodium aluminotrisilicate'
_chemical_formula_structural 'Na ((Al Si3) O8)'
_chemical_formula_sum 'Al1 Na1 O8 Si3'
_chemical_name_structure_type Feldspar#-(TC)-Albite-NaAlSi3O8
_chemical_name_mineral Analbite
_exptl_crystal_density_diffrn 2.61
_publ_section_title
'High-pressure structural evolution and equation of state of analbite'
loop_
_citation_id
_citation_journal_full
_citation_year
_citation_journal_volume
_citation_page_first
_citation_page_last
_citation_journal_id_ASTM
primary 'American Mineralogist' 2011 96 383 392 AMMIAY
loop_
_publ_author_name
'Curetti, N.'
'Sochalsky-Kolbus, L.M.'
'Angel, R.J.'
'Benna, P.'
'Nestola, F.'
'Bruno, E.'
_cell_length_a 8.1554(7)
_cell_length_b 12.8736(7)
_cell_length_c 7.1086(4)
_cell_angle_alpha 93.469(4)
_cell_angle_beta 116.436(8)
_cell_angle_gamma 90.289(5)
_cell_volume 666.63
_cell_formula_units_Z 4
_symmetry_space_group_name_H-M 'C -1'
_symmetry_Int_Tables_number 2
_refine_ls_R_factor_all 0.0407
loop_
_symmetry_equiv_pos_site_id
_symmetry_equiv_pos_as_xyz
1 '-x, -y, -z'
2 'x, y, z'
3 '-x+1/2, -y+1/2, -z'
4 'x+1/2, y+1/2, z'
loop_
_atom_type_symbol
_atom_type_oxidation_number
Na1+ 1
Al3+ 3
Si4+ 4
Al3+ 3
Si4+ 4
Al3+ 3
Si4+ 4
Al3+ 3
Si4+ 4
O2- -2
loop_
_atom_site_label
_atom_site_type_symbol
_atom_site_symmetry_multiplicity
_atom_site_Wyckoff_symbol
_atom_site_fract_x
_atom_site_fract_y
_atom_site_fract_z
_atom_site_B_iso_or_equiv
_atom_site_occupancy
_atom_site_attached_hydrogens
Na1 Na1+ 4 i 0.2738(2) 0.0078(2) 0.1327(4) 0.0961(11) 1. 0
Al1 Al3+ 4 i 0.0090(1) 0.1650(1) 0.2147(1) 0.0096(2) 0.25 0
Si1 Si4+ 4 i 0.0090(1) 0.1650(1) 0.2147(1) 0.0096(2) 0.75 0
Al2 Al3+ 4 i 0.0047(1) 0.8146(1) 0.2287(1) 0.0139(2) 0.25 0
Si2 Si4+ 4 i 0.0047(1) 0.8146(1) 0.2287(1) 0.0139(2) 0.75 0
Al3 Al3+ 4 i 0.6904(1) 0.1080(1) 0.3205(1) 0.0140(2) 0.25 0
Si3 Si4+ 4 i 0.6904(1) 0.1080(1) 0.3205(1) 0.0140(2) 0.75 0
Al4 Al3+ 4 i 0.6849(1) 0.8776(1) 0.3535(1) 0.0137(2) 0.25 0
Si4 Si4+ 4 i 0.6849(1) 0.8776(1) 0.3535(1) 0.0137(2) 0.75 0
O1 O2- 4 i 0.0052(3) 0.1347(2) 0.9845(3) 0.0226(4) 1. 0
O2 O2- 4 i 0.5913(2) 0.9906(1) 0.2781(3) 0.0186(4) 1. 0
O3 O2- 4 i 0.8213(3) 0.1083(2) 0.1990(3) 0.0230(4) 1. 0
O4 O2- 4 i 0.8183(3) 0.8472(2) 0.2451(3) 0.0255(4) 1. 0
O5 O2- 4 i 0.0159(2) 0.2905(2) 0.2769(3) 0.0207(4) 1. 0
O6 O2- 4 i 0.0210(3) 0.6872(2) 0.2181(3) 0.0217(4) 1. 0
O7 O2- 4 i 0.1956(2) 0.1122(1) 0.3876(3) 0.0204(4) 1. 0
O8 O2- 4 i 0.1887(3) 0.8674(2) 0.4262(3) 0.0226(4) 1. 0
#End of TTdata_180326-ICSD