
#(C) 2019 by FIZ Karlsruhe - Leibniz Institute for Information Infrastructure.  All rights reserved.
data_180585-ICSD
_database_code_ICSD 180585
_audit_creation_date 2011-08-01
_audit_update_record 2013-08-01
_chemical_name_systematic 'Disodium magnesium tetrakis(amidoborane)'
_chemical_formula_structural 'Na2 Mg (N H2 B H3)4'
_chemical_formula_sum 'H20 B4 Mg1 N4 Na2'
_exptl_crystal_density_diffrn 1.12
_cell_measurement_temperature 298.
_publ_section_title
'Sodium magnesium amidoborane: the first mixed-metal amidoborane'
loop_
_citation_id
_citation_journal_full
_citation_year
_citation_journal_volume
_citation_page_first
_citation_page_last
_citation_journal_id_ASTM
primary 'Chemical Communications (Cambridge, United Kingdom)' 2011 47 4102 4104
CHCOFS
loop_
_publ_author_name
'Wu, Hui'
'Zhou, Wei'
'Pinkerton, F.E.'
'Meyer, M.S.'
'Yao, Qing Rong'
'Gadipelli, S.'
'Udovic, T.J.'
'Yildirim, T.'
'Rush, J.J.'
_cell_length_a 9.4114(7)
_cell_length_b 9.4114
_cell_length_c 12.7128(12)
_cell_angle_alpha 90.
_cell_angle_beta 90.
_cell_angle_gamma 90.
_cell_volume 1126.03
_cell_formula_units_Z 4
_symmetry_space_group_name_H-M 'I 41/a Z'
_symmetry_Int_Tables_number 88
_refine_ls_R_factor_all 0.0704
loop_
_symmetry_equiv_pos_site_id
_symmetry_equiv_pos_as_xyz
1 '-y+3/4, x+3/4, -z+3/4'
2 'y+1/4, -x+3/4, -z+3/4'
3 'x, y+1/2, -z'
4 '-x, -y, -z'
5 'y+1/4, -x+1/4, z+1/4'
6 '-y+3/4, x+1/4, z+1/4'
7 '-x, -y+1/2, z'
8 'x, y, z'
9 '-y+1/4, x+1/4, -z+1/4'
10 'y+3/4, -x+1/4, -z+1/4'
11 'x+1/2, y, -z+1/2'
12 '-x+1/2, -y+1/2, -z+1/2'
13 'y+3/4, -x+3/4, z+3/4'
14 '-y+1/4, x+3/4, z+3/4'
15 '-x+1/2, -y, z+1/2'
16 'x+1/2, y+1/2, z+1/2'
loop_
_atom_type_symbol
_atom_type_oxidation_number
B3- -3
N3- -3
H1+ 1
Mg2+ 2
Na1+ 1
loop_
_atom_site_label
_atom_site_type_symbol
_atom_site_symmetry_multiplicity
_atom_site_Wyckoff_symbol
_atom_site_fract_x
_atom_site_fract_y
_atom_site_fract_z
_atom_site_B_iso_or_equiv
_atom_site_occupancy
_atom_site_attached_hydrogens
B1 B3- 16 f 0.5360(7) 0.5049(4) 0.2351(3) 0.02884 1. 0
N1 N3- 16 f 0.6204(7) 0.3769(4) 0.2821(3) 0.01871 1. 0
H1 H1+ 16 f 0.49198 0.58431 0.30544 0.076 1. 0
H2 H1+ 16 f 0.4335 0.45882 0.18488 0.076 1. 0
H3 H1+ 16 f 0.60983 0.57778 0.17553 0.076 1. 0
H4 H1+ 16 f 0.7066 0.41217 0.3245 0.076 1. 0
H5 H1+ 16 f 0.65406 0.31526 0.22017 0.076 1. 0
Mg1 Mg2+ 4 a 0.5 0.25 0.375 0.02682 1. 0
Na1 Na1+ 8 d 0.5 0. 0. 0.03471 1. 0
#End of TTdata_180585-ICSD