
#(C) 2018 by FIZ Karlsruhe - Leibniz Institute for Information Infrastructure.  All rights reserved.
data_180965-ICSD
_database_code_ICSD 180965
_audit_creation_date 2011-08-01
_chemical_name_systematic 'Strontium lithium manganese oxide (4/1/2/9)'
_chemical_formula_structural 'Sr4 Li0.89 Mn2.11 O9'
_chemical_formula_sum 'Li0.89 Mn2.11 O9 Sr4'
_chemical_name_structure_type Sr4Mn2CoO9
_exptl_crystal_density_diffrn 4.95
_cell_measurement_temperature 293.
_publ_section_title

;
Microwave synthesis, structure and magnetic properties of
quasi-one-dimensional complex oxide Sr4 Li Mn2 O9
;
loop_
_citation_id
_citation_journal_full
_citation_year
_citation_journal_volume
_citation_page_first
_citation_page_last
_citation_journal_id_ASTM
primary 'Journal of Alloys and Compounds' 2011 509 6158 6162 JALCEU
loop_
_publ_author_name
'Bazuev, G.V.'
'Tyutyunnik, A.P.'
'Berger, I.F.'
'Nikolaenko, I.V.'
'Golovkin, B.G.'
_cell_length_a 9.5721(7)
_cell_length_b 9.5721(7)
_cell_length_c 7.8264(5)
_cell_angle_alpha 90.
_cell_angle_beta 90.
_cell_angle_gamma 120.
_cell_volume 621.02
_cell_formula_units_Z 3
_symmetry_space_group_name_H-M 'P 3 2 1'
_symmetry_Int_Tables_number 150
_refine_ls_R_factor_all 0.0219
loop_
_symmetry_equiv_pos_site_id
_symmetry_equiv_pos_as_xyz
1 'x-y, -y, -z'
2 '-x, -x+y, -z'
3 'y, x, -z'
4 '-x+y, -x, z'
5 '-y, x-y, z'
6 'x, y, z'
loop_
_atom_type_symbol
_atom_type_oxidation_number
Sr2+ 2
Li1+ 1
Mn4+ 4.318
Li1+ 1
Mn4+ 4.318
Li1+ 1
Mn4+ 4.318
Li1+ 1
O2- -2
loop_
_atom_site_label
_atom_site_type_symbol
_atom_site_symmetry_multiplicity
_atom_site_Wyckoff_symbol
_atom_site_fract_x
_atom_site_fract_y
_atom_site_fract_z
_atom_site_B_iso_or_equiv
_atom_site_occupancy
_atom_site_attached_hydrogens
Sr1 Sr2+ 6 g 0.025(2) 0.691(1) 0.244(1) 0.021(1) 1. 0
Sr2 Sr2+ 3 f 0.324(2) 0 0.5 0.021(1) 1. 0
Sr3 Sr2+ 3 e 0.359(2) 0 0 0.021(1) 1. 0
Li1 Li1+ 1 a 0 0 0 0.021(1) 1. 0
Mn1 Mn4+ 2 c 0 0 0.326(3) 0.021(1) 1. 0
Mn2 Mn4+ 2 d 0.3333 0.6667 0.106(5) 0.021(1) 0.86(3) 0
Li2 Li1+ 2 d 0.3333 0.6667 0.106(5) 0.021(1) 0.14(3) 0
Mn3 Mn4+ 2 d 0.3333 0.6667 0.422(5) 0.021(1) 0.80(4) 0
Li3 Li1+ 2 d 0.3333 0.6667 0.422(5) 0.021(1) 0.20(4) 0
Mn4 Mn4+ 2 d 0.3333 0.6667 0.793(4) 0.021(1) 0.50(2) 0
Li4 Li1+ 2 d 0.3333 0.6667 0.793(4) 0.021(1) 0.50(2) 0
O1 O2- 6 g 0.813(5) 0.495(5) 0.028(4) 0.021(1) 1. 0
O2 O2- 6 g 0.165(4) 0.014(4) 0.188(3) 0.021(1) 1. 0
O3 O2- 6 g 0.170(4) 0.518(6) 0.271(4) 0.021(1) 1. 0
O4 O2- 6 g 0.678(4) 0.187(4) 0.452(4) 0.021(1) 1. 0
O5 O2- 3 f 0.844(7) 0 0.5 0.021(1) 1. 0
#End of TTdata_180965-ICSD