
#(C) 2019 by FIZ Karlsruhe - Leibniz Institute for Information Infrastructure.  All rights reserved.
data_180968-ICSD
_database_code_ICSD 180968
_audit_creation_date 2011-08-01
_chemical_name_systematic 'Sodium zirconium silicon oxide (2/1/6/15)'
_chemical_formula_structural 'Na2 Zr Si6 O15'
_chemical_formula_sum 'Na2 O15 Si6 Zr1'
_chemical_name_mineral 'Elpidite (anhydrous)'
_exptl_crystal_density_diffrn 2.47
_publ_section_title

;
Dehydration-induced structural transformations of the microporous
zirconosilicate elpidite
;
loop_
_citation_id
_citation_journal_full
_citation_year
_citation_journal_volume
_citation_page_first
_citation_page_last
_citation_journal_id_ASTM
primary 'Neorganicheskie Materialy' 2011 47 575 581 NMATEI
loop_
_publ_author_name
'Zubkova, N.V.'
'Ksenofontov, D.A.'
'Kabalov, Yu.K.'
'Chukanov, N.V.'
'Nedelko, V.V.'
'Pekov, I.V.'
'Pushcharovsky, D.Yu.'
_cell_length_a 14.0899(1)
_cell_length_b 14.4983(1)
_cell_length_c 14.3490(1)
_cell_angle_alpha 90.
_cell_angle_beta 90.
_cell_angle_gamma 90.
_cell_volume 2931.21
_cell_formula_units_Z 8
_symmetry_space_group_name_H-M 'C m c e'
_symmetry_Int_Tables_number 64
_refine_ls_R_factor_all 0.0361
loop_
_symmetry_equiv_pos_site_id
_symmetry_equiv_pos_as_xyz
1 '-x, -y+1/2, z+1/2'
2 '-x, y+1/2, -z+1/2'
3 '-x, y, z'
4 '-x, -y, -z'
5 'x, y+1/2, -z+1/2'
6 'x, -y+1/2, z+1/2'
7 'x, -y, -z'
8 'x, y, z'
9 '-x+1/2, -y, z+1/2'
10 '-x+1/2, y, -z+1/2'
11 '-x+1/2, y+1/2, z'
12 '-x+1/2, -y+1/2, -z'
13 'x+1/2, y, -z+1/2'
14 'x+1/2, -y, z+1/2'
15 'x+1/2, -y+1/2, -z'
16 'x+1/2, y+1/2, z'
loop_
_atom_type_symbol
_atom_type_oxidation_number
Zr4+ 4
Si4+ 4
Na1+ 1
O2- -2
loop_
_atom_site_label
_atom_site_type_symbol
_atom_site_symmetry_multiplicity
_atom_site_Wyckoff_symbol
_atom_site_fract_x
_atom_site_fract_y
_atom_site_fract_z
_atom_site_B_iso_or_equiv
_atom_site_occupancy
_atom_site_attached_hydrogens
Zr1 Zr4+ 8 c 0.25 0.25 0.5 1.98(12) 1. 0
Si1 Si4+ 16 g 0.3906(9) 0.0979(9) 0.3761(11) 1.7(3) 1. 0
Si2 Si4+ 16 g 0.3884(9) 0.3814(9) 0.6609(9) 2.0(3) 1. 0
Si3 Si4+ 16 g 0.2352(8) 0.0470(2) 0.6420(9) 2.0(3) 1. 0
Na1 Na1+ 8 f 0.5 0.219(5) 0.542(4) 3.6(8) 0.5 0
Na2 Na1+ 8 f 0 0.245(5) 0.485(5) 2.0(6) 0.5 0
Na3 Na1+ 8 e 0.25 0.238(2) 0.75 3.2(2) 1. 0
O1 O2- 16 g 0.1652(14) 0.1945(16) 0.3952(19) 2.7(8) 1. 0
O2 O2- 16 g 0.1400(14) 0.0151(16) 0.3653(14) 1.2(6) 1. 0
O3 O2- 8 e 0.25 0.078(2) 0.75 2.9(9) 1. 0
O4 O2- 16 g 0.2191(14) 0.1370(16) 0.5849(14) 2.0(7) 1. 0
O5 O2- 8 f 0 0.129(2) 0.361(2) 1.7(9) 1. 0
O6 O2- 16 g 0.3267(14) -0.0091(19) 0.6071(16) 2.2(7) 1. 0
O7 O2- 16 g 0.3701(14) 0.3622(14) 0.7732(19) 2.3(7) 1. 0
O8 O2- 16 g 0.3696(14) 0.1770(16) 0.4500(17) 1.9(7) 1. 0
O9 O2- 8 f 0.5 0.068(2) 0.384(2) 2.0(9) 1. 0
#End of TTdata_180968-ICSD