
#(C) 2019 by FIZ Karlsruhe - Leibniz Institute for Information Infrastructure.  All rights reserved.
data_18139-ICSD
_database_code_ICSD 18139
_audit_creation_date 1980-01-01
_audit_update_record 1988-03-28
_chemical_name_systematic 'Sodium cyclo-triphosphate'
_chemical_formula_structural 'Na3 P3 O9'
_chemical_formula_sum 'Na3 O9 P3'
_exptl_crystal_density_diffrn 2.52
_publ_section_title

;
The structures of anhydrous sodium trimetaphosphate Na3 P3 O9 and the
monohydrate Na3 P3 O9 (H2 O)
;
loop_
_citation_id
_citation_journal_full
_citation_year
_citation_journal_volume
_citation_page_first
_citation_page_last
_citation_journal_id_ASTM
primary 'Acta Crystallographica' 1965 18 226 232 ACCRA9
loop_
_publ_author_name
'Ondik, H.M.'
_cell_length_a 7.928(2)
_cell_length_b 13.214(3)
_cell_length_c 7.708(2)
_cell_angle_alpha 90.
_cell_angle_beta 90.
_cell_angle_gamma 90.
_cell_volume 807.49
_cell_formula_units_Z 4
_symmetry_space_group_name_H-M 'P m c n'
_symmetry_Int_Tables_number 62
_refine_ls_R_factor_all 0.058
loop_
_symmetry_equiv_pos_site_id
_symmetry_equiv_pos_as_xyz
1 'x, -y+1/2, z+1/2'
2 '-x+1/2, y, z'
3 'x+1/2, y+1/2, -z+1/2'
4 '-x, -y, -z'
5 '-x, y+1/2, -z+1/2'
6 'x+1/2, -y, -z'
7 '-x+1/2, -y+1/2, z+1/2'
8 'x, y, z'
loop_
_atom_type_symbol
_atom_type_oxidation_number
P5+ 5
Na1+ 1
O2- -2
loop_
_atom_site_label
_atom_site_type_symbol
_atom_site_symmetry_multiplicity
_atom_site_Wyckoff_symbol
_atom_site_fract_x
_atom_site_fract_y
_atom_site_fract_z
_atom_site_B_iso_or_equiv
_atom_site_occupancy
_atom_site_attached_hydrogens
P1 P5+ 4 c 0.25 0.0381(1) -.0232(2) 0.85 1. 0
P2 P5+ 8 d 0.0676(2) 0.1713(1) 0.7466(1) 0.93 1. 0
Na1 Na1+ 4 c 0.75 0.2241(2) 0.0356(4) 1.94 1. 0
Na2 Na1+ 8 d 0.4946(3) 0.0735(2) 0.3177(3) 1.73 1. 0
O1 O2- 4 c 0.25 0.0270(4) 0.1685(7) 1.43 1. 0
O2 O2- 4 c 0.75 0.0527(4) 0.1387(7) 1.43 1. 0
O3 O2- 4 c 0.25 0.2233(4) 0.7261(6) 1.15 1. 0
O4 O2- 8 d 0.0926(5) 0.1094(2) 0.9272(4) 1.16 1. 0
O5 O2- 8 d 0.0365(5) 0.0986(3) 0.6048(5) 1.83 1. 0
O6 O2- 8 d -.0573(5) 0.2522(3) 0.7815(4) 1.47 1. 0
#End of TTdata_18139-ICSD