
#(C) 2019 by FIZ Karlsruhe - Leibniz Institute for Information Infrastructure.  All rights reserved.
data_181981-ICSD
_database_code_ICSD 181981
_audit_creation_date 2012-02-01
_chemical_name_systematic 'Disodium dizinc hexaoxotellurate'
_chemical_formula_structural 'Na1.95 Zn2 (Te O6)'
_chemical_formula_sum 'Na1.95 O6 Te1 Zn2'
_exptl_crystal_density_diffrn 4.86
_cell_measurement_temperature 293.
_publ_section_title
'A new family of fast sodium ion conductors: Na2 M2 Te O6 (M = Ni, Co, Zn, Mg)'
loop_
_citation_id
_citation_journal_full
_citation_year
_citation_journal_volume
_citation_page_first
_citation_page_last
_citation_journal_id_ASTM
primary 'Chemistry of Materials' 2011 23 1174 1181 CMATEX
loop_
_publ_author_name
'Evstigneeva, M.A.'
'Nalbandyan, V.B.'
'Petrenko, A.A.'
'Medvedev, B.S.'
'Kataev, A.A.'
_cell_length_a 5.2796(2)
_cell_length_b 5.2796(2)
_cell_length_c 11.2941(4)
_cell_angle_alpha 90.
_cell_angle_beta 90.
_cell_angle_gamma 120.
_cell_volume 272.64
_cell_formula_units_Z 2
_symmetry_space_group_name_H-M 'P 63 2 2'
_symmetry_Int_Tables_number 182
_refine_ls_R_factor_all 0.0603
loop_
_symmetry_equiv_pos_site_id
_symmetry_equiv_pos_as_xyz
1 'x, x-y, -z+1/2'
2 '-x+y, y, -z+1/2'
3 '-y, -x, -z+1/2'
4 'x-y, x, z+1/2'
5 'y, -x+y, z+1/2'
6 '-x, -y, z+1/2'
7 '-x, -x+y, -z'
8 'x-y, -y, -z'
9 'y, x, -z'
10 '-x+y, -x, z'
11 '-y, x-y, z'
12 'x, y, z'
loop_
_atom_type_symbol
_atom_type_oxidation_number
Te6+ 6
Zn2+ 2
O2- -2
Na1+ 1
loop_
_atom_site_label
_atom_site_type_symbol
_atom_site_symmetry_multiplicity
_atom_site_Wyckoff_symbol
_atom_site_fract_x
_atom_site_fract_y
_atom_site_fract_z
_atom_site_B_iso_or_equiv
_atom_site_occupancy
_atom_site_attached_hydrogens
Te1 Te6+ 2 c 0.3333 0.6667 0.25 0.0067(5) 1. 0
Zn1 Zn2+ 2 b 0. 0. 0.25 0.0001(1) 1. 0
Zn2 Zn2+ 2 d 0.3333 0.6667 0.75 0.010(5) 1. 0
O1 O2- 12 i 0.3594(10) 0.3312(11) 0.6501(6) 0.0001(1) 1. 0
Na1 Na1+ 6 g 0.6615(11) 0. 0. 0.0001(1) 0.280(7) 0
Na2 Na1+ 2 a 0. 0. 0. 0.0001(1) 0.043(5) 0
Na3 Na1+ 4 f 0.3333 0.6667 0.5111(9) 0.0029(9) 0.535(9) 0
#End of TTdata_181981-ICSD