
#(C) 2019 by FIZ Karlsruhe - Leibniz Institute for Information Infrastructure.  All rights reserved.
data_182074-ICSD
_database_code_ICSD 182074
_audit_creation_date 2012-02-01
_chemical_name_systematic
'Sodium magnesium aluminium silicon oxide (1.04/1.88/4.64/1.32/12)'
_chemical_formula_structural 'Na1.04 Mg1.88 (Al4.62 Si1.32 O12)'
_chemical_formula_sum 'Al4.62 Mg1.88 Na1.04 O12 Si1.32'
_chemical_name_structure_type CaMg2Al6O12
_exptl_crystal_density_diffrn 3.85
_publ_section_title

;
Structure refinement of high-pressure hexagonal aluminous phases K1.00 Mg2.00
Al4.80 Si1.15 O12 and Na1.04 Mg1.88 Al4.64 Si1.32 O12
;
loop_
_citation_id
_citation_journal_full
_citation_year
_citation_journal_volume
_citation_page_first
_citation_page_last
_citation_journal_id_ASTM
primary 'American Mineralogist' 2011 96 1248 1253 AMMIAY
loop_
_publ_author_name
'Kojitani, H.'
'Iwabuchi, T.'
'Kobayashi, M.'
'Miura, H.'
'Akaogi, M.'
_cell_length_a 8.7274(2)
_cell_length_b 8.7274(2)
_cell_length_c 2.7663(1)
_cell_angle_alpha 90.
_cell_angle_beta 90.
_cell_angle_gamma 120.
_cell_volume 182.47
_cell_formula_units_Z 1
_symmetry_space_group_name_H-M 'P 63/m'
_symmetry_Int_Tables_number 176
_refine_ls_R_factor_all 0.0225
loop_
_symmetry_equiv_pos_site_id
_symmetry_equiv_pos_as_xyz
1 '-x+y, -x, -z+1/2'
2 '-y, x-y, -z+1/2'
3 'x, y, -z+1/2'
4 'x-y, x, -z'
5 'y, -x+y, -z'
6 '-x, -y, -z'
7 'x-y, x, z+1/2'
8 'y, -x+y, z+1/2'
9 '-x, -y, z+1/2'
10 '-x+y, -x, z'
11 '-y, x-y, z'
12 'x, y, z'
loop_
_atom_type_symbol
_atom_type_oxidation_number
Na1+ 1
Mg2+ 2
Na1+ 1
Al3+ 3
Si4+ 4
O2- -2
loop_
_atom_site_label
_atom_site_type_symbol
_atom_site_symmetry_multiplicity
_atom_site_Wyckoff_symbol
_atom_site_fract_x
_atom_site_fract_y
_atom_site_fract_z
_atom_site_B_iso_or_equiv
_atom_site_occupancy
_atom_site_attached_hydrogens
Na1 Na1+ 2 a 0 0 0.25 3.30(29) 0.46 0
Mg1 Mg2+ 2 d 0.6667 0.3333 0.25 1.66(10) 0.94 0
Na2 Na1+ 2 d 0.6667 0.3333 0.25 1.66(10) 0.06 0
Al1 Al3+ 6 h 0.9892(2) 0.3408(3) 0.25 0.32(7) 0.77 0
Si1 Si4+ 6 h 0.9892(2) 0.3408(3) 0.25 0.32(7) 0.22 0
O1 O2- 6 h 0.1224(5) 0.5925(6) 0.25 1. 1. 0
O2 O2- 6 h 0.3116(4) 0.2045(4) 0.25 1. 1. 0
#End of TTdata_182074-ICSD