
#(C) 2019 by FIZ Karlsruhe - Leibniz Institute for Information Infrastructure.  All rights reserved.
data_182283-ICSD
_database_code_ICSD 182283
_audit_creation_date 2012-02-01
_audit_update_record 2013-08-01
_chemical_name_systematic 'Disodium tricalcium hexasilicate'
_chemical_formula_structural 'Na2 Ca3 (Si6 O16)'
_chemical_formula_sum 'Ca3 Na2 O16 Si6'
_chemical_name_mineral Devitrite
_exptl_crystal_density_diffrn 2.73
_cell_measurement_temperature 298.
_publ_section_title

;
Devitrite (Na2 Ca3 Si6 O16) - structural, spectroscopic and computational
investigations on a crystalline impurity phase in industrial soda-lime glasses
;
loop_
_citation_id
_citation_journal_full
_citation_year
_citation_journal_volume
_citation_page_first
_citation_page_last
_citation_journal_id_ASTM
primary 'Mineralogy and Petrology' 2010 100 1 9 MIPEE9
loop_
_publ_author_name
'Kahlenberg, V.'
'Girtler, D.'
'Arroyabe, E.'
'Kaindl, R.'
'Toebbens, D.M.'
_cell_length_a 7.2291(8)
_cell_length_b 10.1728(12)
_cell_length_c 10.6727(12)
_cell_angle_alpha 95.669(9)
_cell_angle_beta 109.792(10)
_cell_angle_gamma 99.156(9)
_cell_volume 719.19
_cell_formula_units_Z 2
_symmetry_space_group_name_H-M 'P -1'
_symmetry_Int_Tables_number 2
_refine_ls_R_factor_all 0.0308
loop_
_symmetry_equiv_pos_site_id
_symmetry_equiv_pos_as_xyz
1 '-x, -y, -z'
2 'x, y, z'
loop_
_atom_type_symbol
_atom_type_oxidation_number
Ca2+ 2
Si4+ 4
Na1+ 1
O2- -2
loop_
_atom_site_label
_atom_site_type_symbol
_atom_site_symmetry_multiplicity
_atom_site_Wyckoff_symbol
_atom_site_fract_x
_atom_site_fract_y
_atom_site_fract_z
_atom_site_B_iso_or_equiv
_atom_site_occupancy
_atom_site_attached_hydrogens
Ca1 Ca2+ 2 i 0.9653(1) 0.1240(1) 0.1202(1) 0.009(1) 1. 0
Ca2 Ca2+ 2 i 0.4636(1) 0.1340(1) 0.1120(1) 0.007(1) 1. 0
Ca3 Ca2+ 2 i 0.9051(1) 0.1528(1) 0.4862(1) 0.010(1) 1. 0
Si1 Si4+ 2 i 0.6152(1) 0.3995(1) 0.3610(1) 0.007(1) 1. 0
Si2 Si4+ 2 i 0.1878(1) 0.4024(1) 0.3731(1) 0.006(1) 1. 0
Si3 Si4+ 2 i 0.6814(1) 0.8728(1) 0.2314(1) 0.005(1) 1. 0
Si4 Si4+ 2 i 0.7503(1) 0.1330(1) 0.7691(1) 0.005(1) 1. 0
Si5 Si4+ 2 i 0.1516(1) 0.3134(1) 0.9246(1) 0.006(1) 1. 0
Si6 Si4+ 2 i 0.7986(1) 0.4158(1) 0.1494(1) 0.005(1) 1. 0
Na1 Na1+ 2 i 0.3969(2) 0.1354(1) 0.4798(2) 0.013(1) 1. 0
Na2 Na1+ 2 i 0.6463(3) 0.4192(2) 0.8257(2) 0.027(1) 1. 0
O1 O2- 2 i 0.1151(3) 0.2459(2) 0.3710(3) 0.015(1) 1. 0
O2 O2- 2 i 0.2065(3) 0.2505(2) 0.0586(2) 0.008(1) 1. 0
O3 O2- 2 i 0.8037(3) 0.0240(2) 0.8689(3) 0.010(1) 1. 0
O4 O2- 2 i 0.6176(3) 0.2436(22) 0.3599(3) 0.014(1) 1. 0
O5 O2- 2 i 0.6755(3) 0.9775(2) 0.1270(3) 0.009(1) 1. 0
O6 O2- 2 i 0.7352(3) 0.2633(2) 0.0810(2) 0.009(1) 1. 0
O7 O2- 2 i 0.9123(3) 0.2768(2) 0.8363(3) 0.011(1) 1. 0
O8 O2- 2 i 0.4007(3) 0.4392(2) 0.3497(3) 0.010(1) 1. 0
O9 O2- 2 i 0.7278(3) 0.0877(2) 0.6173(3) 0.013(1) 1. 0
O10 O2- 2 i 0.7850(4) 0.4997(3) 0.4903(3) 0.021(1) 1. 0
O11 O2- 2 i 0.5411(3) 0.1816(2) 0.7633(3) 0.011(1) 1. 0
O12 O2- 2 i 0.0310(3) 0.4567(2) 0.2511(3) 0.013(1) 1. 0
O13 O2- 2 i 0.1726(3) 0.0678(2) 0.6177(3) 0.012(1) 1. 0
O14 O2- 2 i 0.2183(3) 0.4787(2) 0.9577(2) 0.006(1) 1. 0
O15 O2- 2 i 0.6497(3) 0.4501(2) 0.2293(3) 0.010(1) 1. 0
O16 O2- 2 i 0.2666(4) 0.2658(2) 0.8254(3) 0.015(1) 1. 0
loop_
_atom_site_aniso_label
_atom_site_aniso_type_symbol
_atom_site_aniso_U_11
_atom_site_aniso_U_22
_atom_site_aniso_U_33
_atom_site_aniso_U_12
_atom_site_aniso_U_13
_atom_site_aniso_U_23
Ca1 Ca2+ 0.009(1) 0.007(1) 0.012(1) 0.001(1) 0.005(1) 0.002(1)
Ca2 Ca2+ 0.006(1) 0.006(1) 0.009(1) 0.001(1) 0.002(1) 0.002(1)
Ca3 Ca2+ 0.010(1) 0.011(1) 0.010(1) 0.002(1) 0.004(1) 0.004(1)
Si1 Si4+ 0.006(1) 0.009(1) 0.004(1) 0.001(1) 0.002(1) 0.001(1)
Si2 Si4+ 0.005(1) 0.008(1) 0.005(1) 0.000(1) 0.001(1) 0.001(1)
Si3 Si4+ 0.006(1) 0.005(1) 0.005(1) 0.002(1) 0.002(1) 0.002(1)
Si4 Si4+ 0.005(1) 0.005(1) 0.005(1) 0.001(1) 0.001(1) 0.002(1)
Si5 Si4+ 0.006(1) 0.004(1) 0.006(1) 0.000(1) 0.001(1) 0.001(1)
Si6 Si4+ 0.007(1) 0.005(1) 0.004(1) 0.001(1) 0.002(1) 0.001(1)
Na1 Na1+ 0.014(1) 0.009(1) 0.015(1) 0.003(1) 0.005(1) 0.003(1)
Na2 Na1+ 0.047(1) 0.018(1) 0.009(1) 0.010(1) 0.001(1) 0.000(1)
O1 O2- 0.011(1) 0.011(1) 0.022(2) 0.001(1) 0.006(1) 0.008(1)
O2 O2- 0.010(1) 0.007(1) 0.007(2) 0.000(1) 0.003(1) 0.003(1)
O3 O2- 0.009(1) 0.009(1) 0.010(2) 0.002(1) 0.003(1) 0.004(1)
O4 O2- 0.018(1) 0.012(1) 0.016(2) 0.007(1) 0.009(1) 0.007(1)
O5 O2- 0.010(1) 0.008(1) 0.011(2) 0.002(1) 0.004(1) 0.005(1)
O6 O2- 0.010(1) 0.006(1) 0.008(1) 0.001(1) 0.003(1) 0.001(1)
O7 O2- 0.008(1) 0.007(1) 0.011(2) 0.001(1) -0.004(1) 0.003(1)
O8 O2- 0.009(1) 0.013(1) 0.009(2) 0.004(1) 0.002(1) 0.002(1)
O9 O2- 0.017(1) 0.011(1) 0.010(2) 0.000(1) 0.006(1) 0.001(1)
O10 O2- 0.012(1) 0.033(2) 0.011(2) -0.001(1) 0.004(1) -0.013(1)
O11 O2- 0.007(1) 0.013(1) 0.013(2) 0.002(1) 0.003(1) 0.005(1)
O12 O2- 0.008(1) 0.013(1) 0.013(2) 0.000(1) -0.003(1) 0.006(1)
O13 O2- 0.012(1) 0.011(1) 0.006(1) 0.001(1) -0.003(1) 0.000(1)
O14 O2- 0.009(1) 0.005(1) 0.003(1) 0.000(1) 0.000(1) 0.001(1)
O15 O2- 0.013(1) 0.012(1) 0.009(2) 0.003(1) 0.007(1) 0.004(1)
O16 O2- 0.022(1) 0.011(1) 0.019(2) 0.006(1) 0.015(1) 0.005(1)
#End of TTdata_182283-ICSD