
#(C) 2019 by FIZ Karlsruhe - Leibniz Institute for Information Infrastructure.  All rights reserved.
data_182553-ICSD
_database_code_ICSD 182553
_audit_creation_date 2012-02-01
_chemical_name_systematic
'Sodium potassium strontium decaoxopentaborate (2.18/0.82/1/1)'
_chemical_formula_structural 'Na2.18 K0.82 Sr (B5 O10)'
_chemical_formula_sum 'B5 K0.82 Na2.18 O10 Sr1'
_chemical_name_structure_type Na3SrB5O10
_exptl_crystal_density_diffrn 2.77
_cell_measurement_temperature 290.
_publ_section_title

;
Synthesis, spectrum properties and crystal structure of a new pentaborate,
Na2.18 K0.82 Sr B5 O10
;
loop_
_citation_id
_citation_journal_full
_citation_year
_citation_journal_volume
_citation_page_first
_citation_page_last
_citation_journal_id_ASTM
primary 'Journal of Chemical Crystallography' 2011 41 816 822 JCCYEV
loop_
_publ_author_name
'Chen, Xue An'
'Yang, Chun Yan'
'Chu, Zhi Peng'
'Chang, Xi Nan'
'Zang, He Gui'
'Xiao, Wei Qiang'
_cell_length_a 7.3900(15)
_cell_length_b 7.6490(15)
_cell_length_c 9.773(2)
_cell_angle_alpha 79.31(2)
_cell_angle_beta 70.85(2)
_cell_angle_gamma 62.09(1)
_cell_volume 460.82
_cell_formula_units_Z 2
_symmetry_space_group_name_H-M 'P -1'
_symmetry_Int_Tables_number 2
_refine_ls_R_factor_all 0.0304
loop_
_symmetry_equiv_pos_site_id
_symmetry_equiv_pos_as_xyz
1 '-x, -y, -z'
2 'x, y, z'
loop_
_atom_type_symbol
_atom_type_oxidation_number
K1+ 1
Na1+ 1
Sr2+ 2
B3+ 3
O2- -2
loop_
_atom_site_label
_atom_site_type_symbol
_atom_site_symmetry_multiplicity
_atom_site_Wyckoff_symbol
_atom_site_fract_x
_atom_site_fract_y
_atom_site_fract_z
_atom_site_B_iso_or_equiv
_atom_site_occupancy
_atom_site_attached_hydrogens
K1 K1+ 2 i 0.98073(12) 0.24982(13) 0.44013(8) 0.0243(3) 0.82 0
Na1 Na1+ 2 i 0.98073(12) 0.24982(13) 0.44013(8) 0.0243(3) 0.18 0
Na2 Na1+ 2 i 0.20257(19) 0.51669(19) 0.88758(13) 0.0196(2) 1. 0
Na3 Na1+ 2 i 0.1551(2) 0.00095(19) 0.83852(13) 0.0194(3) 1. 0
Sr1 Sr2+ 2 i 0.34676(4) 0.43481(3) 0.21869(2) 0.01142(10) 1. 0
B1 B3+ 2 i 0.7693(5) -0.1515(4) 0.8667(3) 0.0118(5) 1. 0
B2 B3+ 2 i 0.6858(5) 0.1830(4) 0.9155(3) 0.0118(5) 1. 0
B3 B3+ 2 i 0.5544(5) 0.1371(4) 0.7207(3) 0.0138(5) 1. 0
B4 B3+ 2 i 0.2246(5) 0.2867(5) 0.6332(3) 0.0154(5) 1. 0
B5 B3+ 2 i 0.5734(5) 0.2458(5) 0.4585(3) 0.0152(5) 1. 0
O1 O2- 2 i 0.8543(3) -0.3441(3) 0.8935(2) 0.0155(4) 1. 0
O2 O2- 2 i 0.6431(4) -0.0713(3) 0.7719(3) 0.0218(5) 1. 0
O3 O2- 2 i 0.8054(3) -0.0227(3) 0.9275(2) 0.0160(4) 1. 0
O4 O2- 2 i 0.5765(3) 0.2595(3) 0.8109(2) 0.0144(4) 1. 0
O5 O2- 2 i 0.6896(3) 0.2985(3) 0.9992(2) 0.0145(4) 1. 0
O6 O2- 2 i 0.3283(3) 0.2068(3) 0.7398(2) 0.0187(4) 1. 0
O7 O2- 2 i 0.6696(3) 0.1546(3) 0.5687(2) 0.0175(4) 1. 0
O8 O2- 2 i 0.3482(3) 0.3182(3) 0.4934(2) 0.0201(4) 1. 0
O9 O2- 2 i 0.0223(4) 0.3310(4) 0.6587(3) 0.0275(5) 1. 0
O10 O2- 2 i 0.6788(4) 0.2676(3) 0.3227(2) 0.0208(4) 1. 0
#End of TTdata_182553-ICSD