
#(C) 2018 by FIZ Karlsruhe - Leibniz Institute for Information Infrastructure.  All rights reserved.
data_182897-ICSD
_database_code_ICSD 182897
_audit_creation_date 2012-08-01
_chemical_name_systematic 'Lithium dieuropium tetracyanamidoaluminate'
_chemical_formula_structural 'Li Eu2 (Al (C N2)4)'
_chemical_formula_sum 'C4 Al1 Eu2 Li1 N8'
_exptl_crystal_density_diffrn 3.67
_cell_measurement_temperature 293.
_publ_section_title
'Solid state synthesis of homoleptic tetracyanamidoaluminates'
loop_
_citation_id
_citation_journal_full
_citation_year
_citation_journal_volume
_citation_page_first
_citation_page_last
_citation_journal_id_ASTM
primary 'Dalton Transactions' 2011 40 9921 9924 DTARAF
loop_
_publ_author_name
'Unverfehrt, L.'
'Kalmutzki, M.'
'Stroebele, M.'
'Meyer, H.J.'
_cell_length_a 7.224(2)
_cell_length_b 19.804(4)
_cell_length_c 7.226(2)
_cell_angle_alpha 90.
_cell_angle_beta 119.47(3)
_cell_angle_gamma 90.
_cell_volume 900.02
_cell_formula_units_Z 4
_symmetry_space_group_name_H-M 'C 1 2/c 1'
_symmetry_Int_Tables_number 15
_refine_ls_R_factor_all 0.022
loop_
_symmetry_equiv_pos_site_id
_symmetry_equiv_pos_as_xyz
1 'x, -y, z+1/2'
2 '-x, -y, -z'
3 '-x, y, -z+1/2'
4 'x, y, z'
5 'x+1/2, -y+1/2, z+1/2'
6 '-x+1/2, -y+1/2, -z'
7 '-x+1/2, y+1/2, -z+1/2'
8 'x+1/2, y+1/2, z'
loop_
_atom_type_symbol
_atom_type_oxidation_number
Li1+ 1
Al3+ 3
Eu2+ 2
N1- -1
C0+ 0
N1- -1
C0+ 0
N1- -1
loop_
_atom_site_label
_atom_site_type_symbol
_atom_site_symmetry_multiplicity
_atom_site_Wyckoff_symbol
_atom_site_fract_x
_atom_site_fract_y
_atom_site_fract_z
_atom_site_B_iso_or_equiv
_atom_site_occupancy
_atom_site_attached_hydrogens
Li1 Li1+ 4 e -0.5 0.369(1) 0.75 0.021(4) 1. 0
Al1 Al3+ 4 e 0 0.3670(2) 0.25 0.007(1) 1. 0
Eu1 Eu2+ 4 e 0 0.3733(1) 0.75 0.019(1) 1. 0
Eu2 Eu2+ 4 e 0.5 0.3743(1) 0.25 0.018(1) 1. 0
N1 N1- 8 f 0.1199(9) 0.3147(3) 0.1294(9) 0.012(1) 1. 0
C1 C0+ 8 f 0.1250(8) 0.2508(4) 0.1239(8) 0.010(1) 1. 0
N2 N1- 8 f 0.3663(9) 0.3087(3) 0.8855(9) 0.013(1) 1. 0
N3 N1- 8 f -0.747(1) 0.4620(2) -0.007(1) 0.019(1) 1. 0
C2 C0+ 8 f -0.766(1) 0.5219(3) 0.022(1) 0.014(1) 1. 0
N4 N1- 8 f -0.7820(9) 0.4148(3) 0.4654(9) 0.019(1) 1. 0
#End of TTdata_182897-ICSD