
#(C) 2019 by FIZ Karlsruhe - Leibniz Institute for Information Infrastructure.  All rights reserved.
data_182946-ICSD
_database_code_ICSD 182946
_audit_creation_date 2012-08-01
_audit_update_record 2015-02-01
_chemical_name_systematic 'Octanatrium cerium hexasilicate'
_chemical_formula_structural 'Na8 Ce (Si O3)6'
_chemical_formula_sum 'Ce1 Na8 O18 Si6'
_chemical_name_structure_type Na8Ce(SiO3)6
_exptl_crystal_density_diffrn 3.12
_cell_measurement_temperature 296.
_publ_section_title

;
Na8 Ce Si6 O18 and its Ti-doped analogue Na8 Ce0.73 Ti0.27 Si6 O18 with
interesting photovoltaic properties
;
loop_
_citation_id
_citation_journal_full
_citation_year
_citation_journal_volume
_citation_page_first
_citation_page_last
_citation_journal_id_ASTM
primary 'Chemistry of Materials' 2011 23 2842 2847 CMATEX
loop_
_publ_author_name
'Wang, Xi'
'Li, Ji Yang'
'Han, Yi De'
'Li, Yi'
'Yu, Ji Hong'
'Xu, Ru Ren'
_cell_length_a 10.442(3)
_cell_length_b 10.442(3)
_cell_length_c 13.216(8)
_cell_angle_alpha 90.
_cell_angle_beta 90.
_cell_angle_gamma 120.
_cell_volume 1247.95
_cell_formula_units_Z 3
_symmetry_space_group_name_H-M 'R -3 m H'
_symmetry_Int_Tables_number 166
_refine_ls_R_factor_all 0.0895
loop_
_symmetry_equiv_pos_site_id
_symmetry_equiv_pos_as_xyz
1 'x-y, -y, -z'
2 '-x, -x+y, -z'
3 'y, x, -z'
4 'x-y, x, -z'
5 'y, -x+y, -z'
6 '-x, -y, -z'
7 '-x+y, y, z'
8 'x, x-y, z'
9 '-y, -x, z'
10 '-x+y, -x, z'
11 '-y, x-y, z'
12 'x, y, z'
13 'x-y+2/3, -y+1/3, -z+1/3'
14 '-x+2/3, -x+y+1/3, -z+1/3'
15 'y+2/3, x+1/3, -z+1/3'
16 'x-y+2/3, x+1/3, -z+1/3'
17 'y+2/3, -x+y+1/3, -z+1/3'
18 '-x+2/3, -y+1/3, -z+1/3'
19 '-x+y+2/3, y+1/3, z+1/3'
20 'x+2/3, x-y+1/3, z+1/3'
21 '-y+2/3, -x+1/3, z+1/3'
22 '-x+y+2/3, -x+1/3, z+1/3'
23 '-y+2/3, x-y+1/3, z+1/3'
24 'x+2/3, y+1/3, z+1/3'
25 'x-y+1/3, -y+2/3, -z+2/3'
26 '-x+1/3, -x+y+2/3, -z+2/3'
27 'y+1/3, x+2/3, -z+2/3'
28 'x-y+1/3, x+2/3, -z+2/3'
29 'y+1/3, -x+y+2/3, -z+2/3'
30 '-x+1/3, -y+2/3, -z+2/3'
31 '-x+y+1/3, y+2/3, z+2/3'
32 'x+1/3, x-y+2/3, z+2/3'
33 '-y+1/3, -x+2/3, z+2/3'
34 '-x+y+1/3, -x+2/3, z+2/3'
35 '-y+1/3, x-y+2/3, z+2/3'
36 'x+1/3, y+2/3, z+2/3'
loop_
_atom_type_symbol
_atom_type_oxidation_number
Ce4+ 4
Si4+ 4
O2- -2
Na1+ 1
loop_
_atom_site_label
_atom_site_type_symbol
_atom_site_symmetry_multiplicity
_atom_site_Wyckoff_symbol
_atom_site_fract_x
_atom_site_fract_y
_atom_site_fract_z
_atom_site_B_iso_or_equiv
_atom_site_occupancy
_atom_site_attached_hydrogens
Ce1 Ce4+ 3 b 0.3333 0.6667 0.1667 0.0114(7) 1 0
Si1 Si4+ 18 h 0.1489(3) 0.2978(6) 0.0692(4) 0.0176(12) 1 0
O1 O2- 18 h 0.2383(10) 0.4765(19) 0.0581(13) 0.041(4) 1 0
O2 O2- 18 h 0.1098(11) 0.220(2) 0.1753(12) 0.053(5) 1 0
O3 O2- 18 f 0.2502(19) 0.2502(19) 0. 0.062(6) 1 0
Na1 Na1+ 9 e 0.5 0.5 0. 0.027(3) 1 0
Na2 Na1+ 9 d 0.3333 0.1667 0.1667 0.027(3) 1 0
Na3 Na1+ 6 c 0. 0. 0.2367(12) 0.022(3) 1 0
loop_
_atom_site_aniso_label
_atom_site_aniso_type_symbol
_atom_site_aniso_U_11
_atom_site_aniso_U_22
_atom_site_aniso_U_33
_atom_site_aniso_U_12
_atom_site_aniso_U_13
_atom_site_aniso_U_23
Ce1 Ce4+ 0.0126(8) 0.0126(8) 0.0091(11) 0.0063(4) 0. 0.
Si1 Si4+ 0.0159(18) 0.012(2) 0.024(3) 0.0059(11) 0.0014(9) 0.0027(18)
O1 O2- 0.045(8) 0.031(9) 0.042(9) 0.015(4) -0.004(4) -0.007(8)
O2 O2- 0.078(11) 0.048(12) 0.022(7) 0.024(6) -0.003(4) -0.005(8)
O3 O2- 0.043(7) 0.043(7) 0.079(14) 0.004(9) 0.019(6) -0.019(6)
Na1 Na1+ 0.028(4) 0.028(4) 0.028(6) 0.015(5) 0.000(3) 0.000(3)
Na2 Na1+ 0.033(7) 0.030(4) 0.021(5) 0.016(3) -0.014(5) -0.007(2)
Na3 Na1+ 0.014(4) 0.014(4) 0.038(8) 0.0072(19) 0. 0.
#End of TTdata_182946-ICSD