
#(C) 2019 by FIZ Karlsruhe - Leibniz Institute for Information Infrastructure.  All rights reserved.
data_183234-ICSD
_database_code_ICSD 183234
_audit_creation_date 2012-08-01
_chemical_name_systematic 'Sodium lanthanum tricarbonate fluoride'
_chemical_formula_structural 'Na La2 (C O3)2 (C O3) F'
_chemical_formula_sum 'C3 F1 La2 Na1 O9'
_chemical_name_structure_type NaCe(CO3)3F
_chemical_name_mineral Arisite-(La)
_exptl_crystal_density_diffrn 4.23
_publ_section_title

;
Arisite-(La), a new REE-fluorocarbonate mineral from the Aris phonolite
(Namibia), with descriptions of the crystal structures of arisite-(La) and
arisite-(Ce)
;
loop_
_citation_id
_citation_journal_full
_citation_year
_citation_journal_volume
_citation_page_first
_citation_page_last
_citation_journal_id_ASTM
primary 'Mineralogical Magazine' 2010 74 257 268 MNLMBB
loop_
_publ_author_name
'Piilonen, P.C.'
'McDonald, A.M.'
'Grice, J.D.'
'Cooper, M.A.'
'Kolitsch, U.'
'Rowe, R.'
'Gault, R.A.'
'Poirier, G.'
_cell_length_a 5.1131(7)
_cell_length_b 5.1131(7)
_cell_length_c 8.6759(17)
_cell_angle_alpha 90.
_cell_angle_beta 90.
_cell_angle_gamma 120.
_cell_volume 196.43
_cell_formula_units_Z 1
_symmetry_space_group_name_H-M 'P -6 m 2'
_symmetry_Int_Tables_number 187
_refine_ls_R_factor_all 0.0209
loop_
_symmetry_equiv_pos_site_id
_symmetry_equiv_pos_as_xyz
1 'x, x-y, -z'
2 '-x+y, y, -z'
3 '-y, -x, -z'
4 'x, x-y, z'
5 '-x+y, y, z'
6 '-y, -x, z'
7 '-x+y, -x, -z'
8 '-y, x-y, -z'
9 'x, y, -z'
10 '-x+y, -x, z'
11 '-y, x-y, z'
12 'x, y, z'
loop_
_atom_type_symbol
_atom_type_oxidation_number
Na1+ 1
La3+ 3
C4+ 4
O2- -2
F1- -1
loop_
_atom_site_label
_atom_site_type_symbol
_atom_site_symmetry_multiplicity
_atom_site_Wyckoff_symbol
_atom_site_fract_x
_atom_site_fract_y
_atom_site_fract_z
_atom_site_B_iso_or_equiv
_atom_site_occupancy
_atom_site_attached_hydrogens
Na1 Na1+ 1 a 0 0 0 0.014(1) 1. 0
La1 La3+ 2 i 0.6667 0.3333 0.72574(5) 0.011(1) 1. 0
C1 C4+ 2 h 0.3333 0.6667 0.804(1) 0.012(2) 1. 0
C2 C4+ 1 b 0 0 0.5 0.044(10) 1. 0
O1 O2- 6 n 0.627(3) 0.814(1) 0.8013(5) 0.019(2) 1. 0
O2 O2- 3 k 0.847(1) 0.153(1) 0.5 0.025(2) 1. 0
F1 F1- 1 e 0.6667 0.3333 0 0.032(2) 1. 0
#End of TTdata_183234-ICSD