
#(C) 2018 by FIZ Karlsruhe - Leibniz Institute for Information Infrastructure.  All rights reserved.
data_183434-ICSD
_database_code_ICSD 183434
_audit_creation_date 2012-08-01
_chemical_name_systematic 'Hexalithium pentarubidium undecaborate'
_chemical_formula_structural 'Li6 Rb5 (B11 O22)'
_chemical_formula_sum 'B11 Li6 O22 Rb5'
_exptl_crystal_density_diffrn 2.87
_cell_measurement_temperature 153.
_publ_section_title

;
A new lithium rubidium borate Li6 Rb5 B11 O22 with isolated B11 O22 building
blocks
;
loop_
_citation_id
_citation_journal_full
_citation_year
_citation_journal_volume
_citation_page_first
_citation_page_last
_citation_journal_id_ASTM
primary 'Crystal Growth & Design' 2011 2011 3912 3916 CGDEFU
loop_
_publ_author_name
'Yang, Yun'
'Pan, Shi Lie'
'Han, Jian'
'Hou, Xue Ling'
'Zhou, Zhong Xiang'
'Zhao, Wen Wu'
'Chen, Zhao Hui'
'Zhang, Min'
_cell_length_a 11.6252(5)
_cell_length_b 7.1010(3)
_cell_length_c 13.7442(5)
_cell_angle_alpha 90.
_cell_angle_beta 106.871(3)
_cell_angle_gamma 90.
_cell_volume 1085.76
_cell_formula_units_Z 2
_symmetry_space_group_name_H-M 'C 1 2 1'
_symmetry_Int_Tables_number 5
_refine_ls_R_factor_all 0.0326
loop_
_symmetry_equiv_pos_site_id
_symmetry_equiv_pos_as_xyz
1 '-x, y, -z'
2 'x, y, z'
3 '-x+1/2, y+1/2, -z'
4 'x+1/2, y+1/2, z'
loop_
_atom_type_symbol
_atom_type_oxidation_number
Rb1+ 1
O2- -2
B3+ 3
Li1+ 1
loop_
_atom_site_label
_atom_site_type_symbol
_atom_site_symmetry_multiplicity
_atom_site_Wyckoff_symbol
_atom_site_fract_x
_atom_site_fract_y
_atom_site_fract_z
_atom_site_B_iso_or_equiv
_atom_site_occupancy
_atom_site_attached_hydrogens
Rb1 Rb1+ 4 c 0.67579(5) 0.62653(8) 0.78706(4) 0.01311(16) 1 0
Rb2 Rb1+ 4 c 0.29658(5) 0.83007(9) 0.58862(4) 0.01497(16) 1 0
Rb3 Rb1+ 2 a 1. 0.97994(13) 1. 0.0149(2) 1 0
O1 O2- 4 c 0.3600(3) 0.7973(6) 0.8409(3) 0.0087(9) 1 0
O2 O2- 4 c 0.6184(3) 0.1955(6) 0.8587(3) 0.0072(9) 1 0
O3 O2- 4 c 0.2362(4) 0.4603(7) 0.6836(3) 0.0112(9) 1 0
O4 O2- 4 c 0.5629(3) 0.8959(6) 0.9139(3) 0.0086(9) 1 0
O5 O2- 4 c 0.4502(4) 1.0153(7) 0.7547(3) 0.0149(10) 1 0
O6 O2- 2 b 0.5 0.8191(9) 0.5 0.0081(11) 1 0
O7 O2- 4 c 0.3694(3) 0.3567(7) 0.5939(3) 0.0119(9) 1 0
O8 O2- 4 c 0.5457(4) 0.5278(6) 0.5894(3) 0.0110(9) 1 0
O9 O2- 4 c 0.9302(3) 0.8456(7) 0.7750(3) 0.0122(9) 1 0
O10 O2- 4 c 1.0642(3) 0.7342(6) 0.6813(3) 0.0079(9) 1 0
O11 O2- 2 b 0.5 0.2303(8) 0.5 0.0071(12) 1 0
O12 O2- 4 c 0.7505(4) 0.0395(6) 0.9989(3) 0.0092(9) 1 0
B1 B3+ 4 c 0.4520(6) 0.8994(10) 0.8354(5) 0.0096(13) 1 0
B2 B3+ 4 c 0.4942(5) 0.3360(11) 0.5901(4) 0.0058(11) 1 0
B3 B3+ 4 c 1.0134(6) 0.6967(10) 0.7655(4) 0.0072(13) 1 0
B4 B3+ 4 c 0.3427(6) 0.3912(10) 0.6832(5) 0.0113(15) 1 0
B5 B3+ 2 b 0.5 0.6340(17) 0.5 0.0095(17) 1 0
B6 B3+ 4 c 0.6471(6) 0.0434(10) 0.9269(5) 0.0060(12) 1 0
Li1 Li1+ 4 c 0.0799(9) 0.5025(18) 0.5963(7) 0.014(2) 1 0
Li2 Li1+ 4 c 0.2266(9) 0.6554(16) 0.7673(7) 0.012(2) 1 0
Li3 Li1+ 4 c 0.7077(9) -0.2050(18) 1.0458(7) 0.017(3) 1 0
loop_
_atom_site_aniso_label
_atom_site_aniso_type_symbol
_atom_site_aniso_U_11
_atom_site_aniso_U_22
_atom_site_aniso_U_33
_atom_site_aniso_U_12
_atom_site_aniso_U_13
_atom_site_aniso_U_23
Rb1 Rb1+ 0.0171(3) 0.0126(4) 0.0084(2) 0.0024(3) 0.0018(2) -0.0007(2)
Rb2 Rb1+ 0.0117(3) 0.0229(4) 0.0088(3) -0.0022(3) 0.0007(2) -0.0002(3)
Rb3 Rb1+ 0.0093(4) 0.0181(5) 0.0177(4) 0. 0.0046(3) 0.
O1 O2- 0.0067(19) 0.007(3) 0.0111(19) -0.0047(18) 0.0011(16) -0.0031(17)
O2 O2- 0.0056(19) 0.008(2) 0.0075(18) 0.0010(17) 0.0011(16) -0.0018(16)
O3 O2- 0.0088(18) 0.011(2) 0.0132(18) 0.0030(17) 0.0019(15) -0.0038(17)
O4 O2- 0.0045(18) 0.011(3) 0.0070(18) -0.0004(17) -0.0030(16) 0.0043(16)
O5 O2- 0.015(2) 0.019(3) 0.0089(18) -0.006(2) 0.0000(17) -0.0001(19)
O6 O2- 0.009(3) 0.005(3) 0.006(2) 0. -0.004(2) 0.
O7 O2- 0.0065(19) 0.020(3) 0.0083(18) 0.004(2) 0.0008(15) 0.0009(19)
O8 O2- 0.017(2) 0.008(3) 0.0049(18) -0.0024(19) -0.0005(17) -0.0009(17)
O9 O2- 0.0088(19) 0.020(3) 0.0064(18) 0.008(2) 0.0001(15) 0.000(2)
O10 O2- 0.006(2) 0.009(2) 0.0088(18) 0.0045(17) 0.0023(16) 0.0000(16)
O11 O2- 0.012(3) 0.002(3) 0.007(2) 0. 0.003(2) 0.
O12 O2- 0.0099(19) 0.009(2) 0.0066(17) -0.0038(18) -0.0012(15) 0.0010(16)
B3 B3+ 0.008(3) 0.010(4) 0.003(3) 0.001(3) 0.001(2) 0.000(2)
B4 B3+ 0.011(3) 0.012(4) 0.012(3) -0.001(3) 0.004(3) -0.001(3)
Li2 Li1+ 0.013(5) 0.016(7) 0.005(4) -0.006(5) 0.002(4) -0.005(4)
Li3 Li1+ 0.014(5) 0.022(8) 0.015(5) -0.006(5) 0.002(4) -0.002(5)
#End of TTdata_183434-ICSD