
#(C) 2018 by FIZ Karlsruhe - Leibniz Institute for Information Infrastructure.  All rights reserved.
data_183602-ICSD
_database_code_ICSD 183602
_audit_creation_date 2012-08-01
_chemical_name_systematic 'Lithium cobalt pyrophosphate (1.855/1/1)'
_chemical_formula_structural 'Li1.855 Co (P2 O7)'
_chemical_formula_sum 'Co1 Li1.855 O7 P2'
_chemical_name_structure_type Li2-xFeP2O7
_exptl_crystal_density_diffrn 3.22
_publ_section_title

;
Neutron and X-ray diffraction study of pyrophosphate-based Li2-x M P2 O7 (M =
Fe,Co) for lithium rechargeable battery electrodes
;
loop_
_citation_id
_citation_journal_full
_citation_year
_citation_journal_volume
_citation_page_first
_citation_page_last
_citation_journal_id_ASTM
primary 'Chemistry of Materials' 2011 23 3930 3937 CMATEX
loop_
_publ_author_name
'Kim, Hyung Sub'
'Lee, Seong Su'
'Park, Young Uk'
'Kim, Haeg Yeom'
'Kim, Jong Soon'
'Jeon, Seok Woo'
'Kang, Ki Suk'
_cell_length_a 10.9574(3)
_cell_length_b 9.6921(3)
_cell_length_c 9.7611(3)
_cell_angle_alpha 90.
_cell_angle_beta 101.776(2)
_cell_angle_gamma 90.
_cell_volume 1014.81
_cell_formula_units_Z 8
_symmetry_space_group_name_H-M 'P 1 21/c 1'
_symmetry_Int_Tables_number 14
_refine_ls_R_factor_all 0.0148
loop_
_symmetry_equiv_pos_site_id
_symmetry_equiv_pos_as_xyz
1 'x, -y+1/2, z+1/2'
2 '-x, -y, -z'
3 '-x, y+1/2, -z+1/2'
4 'x, y, z'
loop_
_atom_type_symbol
_atom_type_oxidation_number
Co2+ 2.145
Li1+ 1
Co2+ 2.145
P5+ 5
O2- -2
Li1+ 1
loop_
_atom_site_label
_atom_site_type_symbol
_atom_site_symmetry_multiplicity
_atom_site_Wyckoff_symbol
_atom_site_fract_x
_atom_site_fract_y
_atom_site_fract_z
_atom_site_B_iso_or_equiv
_atom_site_occupancy
_atom_site_attached_hydrogens
Co1 Co2+ 4 e 0.6737(11) 0.5704(14) 0.6977(12) 1.3(2) 1. 0
Co2 Co2+ 4 e 0.823(2) 0.285(2) 0.756(3) 1.3(2) 0.71(1) 0
Li1 Li1+ 4 e 0.823(2) 0.285(2) 0.756(3) 1.3(2) 0.15(2) 0
Co3 Co2+ 4 e 0.051(6) 0.096(8) 0.665(8) 1.3(2) 0.29(3) 0
P1 P5+ 4 e 0.5776(6) 0.6504(6) 0.3761(6) 0.55(5) 1. 0
P2 P5+ 4 e 0.2433(5) 0.5702(6) 0.5636(6) 0.55(5) 1. 0
P3 P5+ 4 e 0.8877(5) 0.7945(6) 0.6176(6) 0.55(5) 1. 0
P4 P5+ 4 e 0.7582(5) 0.0466(6) 0.5200(6) 0.55(5) 1. 0
O1 O2- 4 e 0.8552(5) 0.1373(5) 0.6132(6) 0.97(3) 1. 0
O2 O2- 4 e 0.7857(5) 0.0327(5) 0.3750(6) 0.97(3) 1. 0
O3 O2- 4 e 0.3754(5) 0.5841(6) 0.9808(6) 0.97(3) 1. 0
O4 O2- 4 e 0.1056(4) 0.5685(6) 0.5706(6) 0.97(3) 1. 0
O5 O2- 4 e 0.6900(5) 0.3210(5) 0.3368(5) 0.97(3) 1. 0
O6 O2- 4 e 0.7353(5) 0.4126(5) 0.5856(5) 0.97(3) 1. 0
O7 O2- 4 e 0.0777(5) 0.2771(5) 0.0238(6) 0.97(3) 1. 0
O8 O2- 4 e 0.4148(5) 0.2907(5) 0.1859(6) 0.97(3) 1. 0
O9 O2- 4 e 0.8451(5) 0.6656(5) 0.6786(5) 0.97(3) 1. 0
O10 O2- 4 e -0.0032(5) 0.8641(5) 0.7165(6) 0.97(3) 1. 0
O11 O2- 4 e 0.4811(5) 0.9349(6) 0.7757(5) 0.97(3) 1. 0
O12 O2- 4 e 0.5569(5) 0.6373(5) 0.5271(6) 0.97(3) 1. 0
O13 O2- 4 e 0.2916(5) 0.0768(5) 0.1169(5) 0.97(3) 1. 0
O14 O2- 4 e 0.2289(4) 0.1046(5) 0.4046(5) 0.97(3) 1. 0
Li2 Li1+ 4 e 0.444(2) 0.7336(19) 0.1144(19) 2.6(2) 1. 0
Li3 Li1+ 4 e 0.9728(17) 0.6167(18) 0.416(2) 2.6(2) 1. 0
Li4 Li1+ 4 e 0.4544(18) 0.568(2) 0.820(2) 2.6(2) 0.91(3) 0
Li5 Li1+ 4 e 0.051(6) 0.096(8) 0.665(8) 1.3(2) 0.65(2) 0
#End of TTdata_183602-ICSD