
#(C) 2018 by FIZ Karlsruhe - Leibniz Institute for Information Infrastructure.  All rights reserved.
data_183656-ICSD
_database_code_ICSD 183656
_audit_creation_date 2012-08-01
_chemical_name_systematic 'Lithium tetrabarium pentagallium dodecaselenide'
_chemical_formula_structural 'Li Ba4 Ga5 Se12'
_chemical_formula_sum 'Ba4 Ga5 Li1 Se12'
_exptl_crystal_density_diffrn 5.11
_cell_measurement_temperature 93.
_publ_section_title

;
Ba2 Ag In S4 and Ba4 M Ga5 Se12 (M = Ag, Li): syntheses, structures and
optical properties
;
loop_
_citation_id
_citation_journal_full
_citation_year
_citation_journal_volume
_citation_page_first
_citation_page_last
_citation_journal_id_ASTM
primary 'Dalton Transactions' 2012 41 2272 2276 DTARAF
loop_
_publ_author_name
'Yin, Wen Long'
'Feng, Kai'
'Mei, Da Jiang'
'Yao, Ji Yong'
'Fu, Pei Zhen'
'Wu, Yi Cheng'
_cell_length_a 13.5906(19)
_cell_length_b 13.5906(19)
_cell_length_c 6.5148(13)
_cell_angle_alpha 90.
_cell_angle_beta 90.
_cell_angle_gamma 90.
_cell_volume 1203.31
_cell_formula_units_Z 2
_symmetry_space_group_name_H-M 'P -4 21 c'
_symmetry_Int_Tables_number 114
_refine_ls_R_factor_all 0.0332
loop_
_symmetry_equiv_pos_site_id
_symmetry_equiv_pos_as_xyz
1 'y+1/2, x+1/2, z+1/2'
2 'y, -x, -z'
3 '-y+1/2, -x+1/2, z+1/2'
4 '-y, x, -z'
5 'x+1/2, -y+1/2, -z+1/2'
6 '-x, -y, z'
7 '-x+1/2, y+1/2, -z+1/2'
8 'x, y, z'
loop_
_atom_type_symbol
_atom_type_oxidation_number
Ba2+ 2
Li1+ 1
Ga3+ 3
Se2- -2
loop_
_atom_site_label
_atom_site_type_symbol
_atom_site_symmetry_multiplicity
_atom_site_Wyckoff_symbol
_atom_site_fract_x
_atom_site_fract_y
_atom_site_fract_z
_atom_site_B_iso_or_equiv
_atom_site_occupancy
_atom_site_attached_hydrogens
Ba1 Ba2+ 8 e 0.29970(4) 0.02236(3) 0.45216(8) 0.01302(11) 1 0
Li1 Li1+ 2 b 0. 0. 0.5 0.056(13) 1 0
Ga1 Ga3+ 8 e 0.14161(6) 0.24344(6) 0.05297(14) 0.00443(16) 1 0
Ga2 Ga3+ 2 a 0. 0. 0. 0.0063(3) 1 0
Se1 Se2- 8 e 0.01227(5) 0.35951(5) 0.04553(12) 0.00585(14) 1 0
Se2 Se2- 8 e 0.29188(5) 0.30396(6) 0.20967(12) 0.00608(15) 1 0
Se3 Se2- 8 e 0.08964(6) 0.10000(5) 0.23915(12) 0.00898(16) 1 0
loop_
_atom_site_aniso_label
_atom_site_aniso_type_symbol
_atom_site_aniso_U_11
_atom_site_aniso_U_22
_atom_site_aniso_U_33
_atom_site_aniso_U_12
_atom_site_aniso_U_13
_atom_site_aniso_U_23
Ba1 Ba2+ 0.0206(2) 0.0084(2) 0.0100(2) -0.00066(18) -0.0033(2) -0.00328(18)
Li1 Li1+ 0.08(2) 0.08(2) 0.011(19) 0. 0. 0.
Ga1 Ga3+ 0.0046(3) 0.0050(3) 0.0036(4) 0.0001(3) 0.0002(3) -0.0002(3)
Ga2 Ga3+ 0.0054(4) 0.0054(4) 0.0082(8) 0. 0. 0.
Se1 Se2- 0.0059(3) 0.0057(3) 0.0061(3) 0.0014(3) -0.0004(3) -0.0002(3)
Se2 Se2- 0.0038(3) 0.0107(3) 0.0037(3) -0.0002(3) 0.0001(3) -0.0025(3)
Se3 Se2- 0.0122(4) 0.0062(3) 0.0086(4) -0.0052(3) -0.0035(3) 0.0032(3)
#End of TTdata_183656-ICSD