
#(C) 2018 by FIZ Karlsruhe - Leibniz Institute for Information Infrastructure.  All rights reserved.
data_183830-ICSD
_database_code_ICSD 183830
_audit_creation_date 2012-08-01
_audit_update_record 2013-08-01
_chemical_name_systematic
'Lithium iron manganese tetraoxosilicate (2/0.83/0.17/1) - gamma s'
_chemical_formula_structural 'Li2 Fe0.83 Mn0.17 (Si O4)'
_chemical_formula_sum 'Fe0.83 Li2 Mn0.17 O4 Si1'
_chemical_name_structure_type Li2(Fe,Mn)SiO4
_exptl_crystal_density_diffrn 3.19
_cell_measurement_temperature 298.
_publ_section_title
'Polymorphism in Li2 (Fe, Mn) Si O4 : a combined diffraction and NMR study'
loop_
_citation_id
_citation_journal_full
_citation_year
_citation_journal_volume
_citation_page_first
_citation_page_last
_citation_journal_id_ASTM
primary 'Journal of Materials Chemistry' 2011 21 17823 17831 JMACEP
loop_
_publ_author_name
'Sirisopanaporn, C.'
'Dominko, R.'
'Masquelier, C.'
'Armstrong, A.R.'
'Mali, G.'
'Bruce, P.G.'
_cell_length_a 8.2449(3)
_cell_length_b 5.0180(1)
_cell_length_c 8.2455(3)
_cell_angle_alpha 90.
_cell_angle_beta 99.194(2)
_cell_angle_gamma 90.
_cell_volume 336.76
_cell_formula_units_Z 4
_symmetry_space_group_name_H-M 'P 1 21/n 1'
_symmetry_Int_Tables_number 14
_refine_ls_R_factor_all 0.0135
loop_
_symmetry_equiv_pos_site_id
_symmetry_equiv_pos_as_xyz
1 '-x+1/2, y+1/2, -z+1/2'
2 '-x, -y, -z'
3 'x+1/2, -y+1/2, z+1/2'
4 'x, y, z'
loop_
_atom_type_symbol
_atom_type_oxidation_number
Li1+ 1
Fe2+ 2
Mn2+ 2
Si4+ 4
O2- -2
loop_
_atom_site_label
_atom_site_type_symbol
_atom_site_symmetry_multiplicity
_atom_site_Wyckoff_symbol
_atom_site_fract_x
_atom_site_fract_y
_atom_site_fract_z
_atom_site_B_iso_or_equiv
_atom_site_occupancy
_atom_site_attached_hydrogens
Li1 Li1+ 4 e 0.6631(11) 0.785(2) 0.6664(9) 0.74(14) 1. 0
Li2 Li1+ 4 e 0.5830(9) 0.195(2) 0.0847(10) 0.83(14) 1. 0
Fe1 Fe2+ 4 e 0.2917(2) 0.7996(4) 0.5422(2) 0.49(2) 0.827(5) 0
Mn1 Mn2+ 4 e 0.2917(2) 0.7996(4) 0.5422(2) 0.49(2) 0.173(5) 0
Si1 Si4+ 4 e 0.0401(3) 0.8074(5) 0.7902(4) 0.31(2) 1. 0
O1 O2- 4 e 0.8629(3) 0.6942(5) 0.8213(3) 0.41(2) 1. 0
O2 O2- 4 e 0.4217(3) 0.2054(5) 0.8866(3) 0.48(3) 1. 0
O3 O2- 4 e 0.6883(3) 0.7827(4) 0.4358(3) 0.45(2) 1. 0
O4 O2- 4 e 0.9663(3) 0.8638(4) 0.2147(3) 0.48(2) 1. 0
#End of TTdata_183830-ICSD