
#(C) 2019 by FIZ Karlsruhe - Leibniz Institute for Information Infrastructure.  All rights reserved.
data_184622-ICSD
_database_code_ICSD 184622
_audit_creation_date 2012-08-01
_chemical_name_systematic
'Pentasodium copper(II) aqua copper(I) tetrasulfate(IV) hexahydrate'
_chemical_formula_structural 'Na5 (Cu (H2 O)) (Cu (S O3)4) (H2 O)6'
_chemical_formula_sum 'H14 Cu2 Na5 O19 S4'
_exptl_crystal_density_diffrn 2.4
_cell_measurement_temperature 130.
_publ_section_title
'3d-metal derivatives of the (Cu(I) (S O3)4)(7-) ion: structure and magnetism'
loop_
_citation_id
_citation_journal_full
_citation_year
_citation_journal_volume
_citation_page_first
_citation_page_last
_citation_journal_id_ASTM
primary 'Dalton Transactions' 2012 41 4091 4099 DTARAF
loop_
_publ_author_name
'Abrahams, B.F.'
'Abrahams, C.T.'
'Haywood, M.G.'
'Hudson, T.A.'
'Moubaraki, B.'
'Murray, K.S.'
'Robson, R.'
_cell_length_a 15.3366(6)
_cell_length_b 9.4848(3)
_cell_length_c 13.7078(5)
_cell_angle_alpha 90.
_cell_angle_beta 106.926(4)
_cell_angle_gamma 90.
_cell_volume 1907.62
_cell_formula_units_Z 4
_symmetry_space_group_name_H-M 'P 1 21/c 1'
_symmetry_Int_Tables_number 14
_refine_ls_R_factor_all 0.0474
loop_
_symmetry_equiv_pos_site_id
_symmetry_equiv_pos_as_xyz
1 'x, -y+1/2, z+1/2'
2 '-x, -y, -z'
3 '-x, y+1/2, -z+1/2'
4 'x, y, z'
loop_
_atom_type_symbol
_atom_type_oxidation_number
Cu1+ 1
Cu2+ 2
S4+ 4
O2- -2
S4+ 4
O2- -2
S4+ 4
O2- -2
S4+ 4
O2- -2
Na1+ 1
O2- -2
H1+ 1
O2- -2
H1+ 1
O2- -2
H1+ 1
O2- -2
H1+ 1
O2- -2
H1+ 1
O2- -2
H1+ 1
O2- -2
H1+ 1
loop_
_atom_site_label
_atom_site_type_symbol
_atom_site_symmetry_multiplicity
_atom_site_Wyckoff_symbol
_atom_site_fract_x
_atom_site_fract_y
_atom_site_fract_z
_atom_site_B_iso_or_equiv
_atom_site_occupancy
_atom_site_attached_hydrogens
Cu1 Cu1+ 4 e 0.33219(4) 0.05807(6) 0.19391(4) 0.00747(16) 1 0
Cu2 Cu2+ 4 e 0.47103(4) 0.75045(6) 0.49166(4) 0.00747(15) 1 0
S1 S4+ 4 e 0.41823(8) 0.03979(13) 0.08331(9) 0.0058(3) 1 0
O1 O2- 4 e 0.3676(2) 0.0794(3) -0.0226(2) 0.0103(7) 1 0
O2 O2- 4 e 0.4503(2) -0.1110(3) 0.0856(2) 0.0076(7) 1 0
O3 O2- 4 e 0.5067(2) 0.1272(3) 0.1129(2) 0.0080(7) 1 0
S2 S4+ 4 e 0.41630(8) 0.04075(12) 0.36196(9) 0.0059(3) 1 0
O4 O2- 4 e 0.5058(2) 0.1257(3) 0.3897(2) 0.0078(7) 1 0
O5 O2- 4 e 0.4465(2) -0.1104(3) 0.3827(2) 0.0063(7) 1 0
O6 O2- 4 e 0.3661(2) 0.0856(4) 0.4340(2) 0.0102(8) 1 0
S3 S4+ 4 e 0.25408(8) -0.15165(13) 0.17344(9) 0.0073(3) 1 0
O7 O2- 4 e 0.2004(2) -0.1593(4) 0.2501(2) 0.0117(8) 1 0
O8 O2- 4 e 0.1862(2) -0.1703(4) 0.0692(2) 0.0119(8) 1 0
O9 O2- 4 e 0.3149(2) -0.2791(4) 0.1911(2) 0.0095(7) 1 0
S4 S4+ 4 e 0.28806(8) 0.28857(13) 0.17948(9) 0.0066(3) 1 0
O10 O2- 4 e 0.2336(2) 0.3389(4) 0.2485(2) 0.0089(7) 1 0
O11 O2- 4 e 0.2370(2) 0.3358(4) 0.0729(2) 0.0094(7) 1 0
O12 O2- 4 e 0.3748(2) 0.3728(4) 0.2096(2) 0.0098(7) 1 0
Na1 Na1+ 4 e 0.47848(12) -0.2236(2) 0.24390(13) 0.0079(4) 1 0
Na2 Na1+ 4 e 0.33827(13) 0.5387(2) 0.32367(14) 0.0115(4) 1 0
Na3 Na1+ 4 e 0.24648(13) 0.2553(2) 0.41730(14) 0.0103(4) 1 0
Na4 Na1+ 4 e 0.34446(13) -0.4636(2) 0.07191(14) 0.0118(4) 1 0
Na5 Na1+ 4 e 0.00847(13) 0.0457(2) 0.38438(14) 0.0136(4) 1 0
O13 O2- 4 e 0.3005(3) 0.7613(4) 0.4456(3) 0.0190(9) 1 0
H1 H1+ 4 e 0.264(3) 0.735(6) 0.476(4) 0.028 1 0
H2 H1+ 4 e 0.268(3) 0.796(6) 0.393(2) 0.028 1 0
O14 O2- 4 e 0.1102(2) -0.0460(4) 0.5343(3) 0.0146(8) 1 0
H3 H1+ 4 e 0.151(3) 0.014(4) 0.548(4) 0.022 1 0
H4 H1+ 4 e 0.128(4) -0.127(2) 0.535(4) 0.022 1 0
O15 O2- 4 e -0.0768(3) 0.1475(4) 0.2279(3) 0.0153(8) 1 0
H5 H1+ 4 e -0.042(3) 0.194(5) 0.204(4) 0.023 1 0
H6 H1+ 4 e -0.107(3) 0.213(4) 0.240(4) 0.023 1 0
O16 O2- 4 e 0.1334(2) 0.0833(4) 0.3188(3) 0.0135(8) 1 0
H7 H1+ 4 e 0.161(3) 0.015(4) 0.308(4) 0.02 1 0
H8 H1+ 4 e 0.115(4) 0.130(5) 0.266(2) 0.02 1 0
O17 O2- 4 e 0.0101(3) 0.2809(4) 0.4592(3) 0.0177(8) 1 0
H9 H1+ 4 e 0.043(3) 0.340(5) 0.445(4) 0.027 1 0
H10 H1+ 4 e -0.0426(16) 0.308(6) 0.434(4) 0.027 1 0
O18 O2- 4 e -0.0499(3) -0.1960(4) 0.3396(3) 0.0169(8) 1 0
H11 H1+ 4 e -0.041(4) -0.219(6) 0.3994(16) 0.025 1 0
H12 H1+ 4 e -0.1052(9) -0.184(6) 0.323(4) 0.025 1 0
O19 O2- 4 e 0.1427(3) 0.4496(4) 0.4243(3) 0.0156(8) 1 0
H13 H1+ 4 e 0.158(4) 0.489(5) 0.480(2) 0.023 1 0
H14 H1+ 4 e 0.122(4) 0.493(6) 0.370(4) 0.023 1 0
loop_
_atom_site_aniso_label
_atom_site_aniso_type_symbol
_atom_site_aniso_U_11
_atom_site_aniso_U_22
_atom_site_aniso_U_33
_atom_site_aniso_U_12
_atom_site_aniso_U_13
_atom_site_aniso_U_23
Cu1 Cu1+ 0.0107(3) 0.0050(3) 0.0074(3) -0.0002(2) 0.0035(2) 0.0003(3)
Cu2 Cu2+ 0.0138(3) 0.0038(3) 0.0056(3) 0.0000(2) 0.0041(2) 0.0003(3)
S1 S4+ 0.0093(6) 0.0030(6) 0.0058(5) 0.0005(5) 0.0033(5) -0.0001(5)
O1 O2- 0.0143(18) 0.0089(19) 0.0082(17) 0.0026(15) 0.0041(15) 0.0014(15)
O2 O2- 0.0163(19) 0.0014(17) 0.0069(17) 0.0031(14) 0.0061(15) 0.0017(14)
O3 O2- 0.0105(17) 0.0069(18) 0.0077(17) -0.0032(14) 0.0046(14) -0.0016(15)
S2 S4+ 0.0093(6) 0.0021(6) 0.0064(6) 0.0005(5) 0.0027(5) 0.0005(5)
O4 O2- 0.0107(17) 0.0070(18) 0.0059(16) -0.0024(14) 0.0028(14) -0.0006(15)
O5 O2- 0.0083(10) 0.0040(10) 0.0064(10) 0.0004(8) 0.0017(8) 0.0008(8)
O6 O2- 0.0120(18) 0.0109(19) 0.0080(17) 0.0047(15) 0.0032(14) -0.0003(15)
S3 S4+ 0.0096(6) 0.0050(6) 0.0071(6) -0.0001(5) 0.0023(5) -0.0005(5)
O7 O2- 0.0126(18) 0.0121(19) 0.0138(18) -0.0004(15) 0.0091(15) 0.0005(16)
O8 O2- 0.0133(18) 0.0092(19) 0.0111(17) 0.0007(15) 0.0001(15) 0.0008(16)
O9 O2- 0.0113(18) 0.0070(18) 0.0095(17) -0.0008(14) 0.0017(14) 0.0021(15)
S4 S4+ 0.0083(6) 0.0057(6) 0.0064(6) 0.0006(5) 0.0029(5) 0.0008(5)
O10 O2- 0.0087(17) 0.0127(19) 0.0066(16) -0.0014(15) 0.0045(14) -0.0037(15)
O11 O2- 0.0105(17) 0.0109(19) 0.0049(16) 0.0005(15) -0.0007(14) -0.0025(15)
O12 O2- 0.0114(18) 0.0091(19) 0.0091(17) -0.0008(15) 0.0034(14) -0.0023(15)
Na1 Na1+ 0.0110(10) 0.0067(10) 0.0068(9) 0.0005(8) 0.0038(8) 0.0001(8)
Na2 Na1+ 0.0151(10) 0.0096(11) 0.0088(9) -0.0034(9) 0.0018(8) -0.0002(8)
Na3 Na1+ 0.0134(10) 0.0092(11) 0.0092(9) 0.0005(8) 0.0046(8) 0.0019(8)
Na4 Na1+ 0.0167(10) 0.0100(11) 0.0102(10) -0.0026(9) 0.0060(8) 0.0002(8)
Na5 Na1+ 0.0135(10) 0.0120(11) 0.0153(10) 0.0003(9) 0.0042(8) 0.0001(9)
O13 O2- 0.017(2) 0.024(2) 0.015(2) -0.0004(18) 0.0035(16) 0.0131(18)
O14 O2- 0.0125(19) 0.010(2) 0.0197(19) -0.0032(16) 0.0017(16) -0.0019(19)
O15 O2- 0.017(2) 0.013(2) 0.017(2) 0.0051(17) 0.0083(16) 0.0015(17)
O16 O2- 0.016(2) 0.010(2) 0.0156(19) 0.0031(16) 0.0068(16) 0.0005(17)
O17 O2- 0.015(2) 0.015(2) 0.023(2) -0.0036(17) 0.0042(17) 0.0022(18)
O18 O2- 0.017(2) 0.019(2) 0.0142(19) 0.0023(18) 0.0043(17) 0.0002(18)
O19 O2- 0.021(2) 0.016(2) 0.0099(19) 0.0014(17) 0.0041(17) -0.0010(17)
#End of TTdata_184622-ICSD