
#(C) 2019 by FIZ Karlsruhe - Leibniz Institute for Information Infrastructure.  All rights reserved.
data_185337-ICSD
_database_code_ICSD 185337
_audit_creation_date 2013-02-01
_chemical_name_systematic 'Sodium copper oxide (5/3/6)'
_chemical_formula_structural 'Na5 Cu3 O6'
_chemical_formula_sum 'Cu3 Na5 O6'
_exptl_crystal_density_diffrn 3.64
_cell_measurement_temperature 293.
_publ_section_title

;
Spin exchange dominated by charge fluctuations of the Wigner lattice in the
chain cuprate Na5 Cu3 O6
;
loop_
_citation_id
_citation_journal_full
_citation_year
_citation_journal_volume
_citation_page_first
_citation_page_last
_citation_journal_id_ASTM
primary 'Physical Review B: Condensed Matter and Materials Physics' 2011 84
035113-1 035113-10 PRBMDO
loop_
_publ_author_name
'Ali, N.Z.'
'Sirker, J.'
'Nuss, J.'
'Horsch, P.'
'Jansen, M.'
_cell_length_a 5.706(2)
_cell_length_b 16.795(5)
_cell_length_c 8.113(3)
_cell_angle_alpha 90.
_cell_angle_beta 109.326(4)
_cell_angle_gamma 90.
_cell_volume 733.68
_cell_formula_units_Z 4
_symmetry_space_group_name_H-M 'P 1 21/n 1'
_symmetry_Int_Tables_number 14
_refine_ls_R_factor_all 0.065
loop_
_symmetry_equiv_pos_site_id
_symmetry_equiv_pos_as_xyz
1 '-x+1/2, y+1/2, -z+1/2'
2 '-x, -y, -z'
3 'x+1/2, -y+1/2, z+1/2'
4 'x, y, z'
loop_
_atom_type_symbol
_atom_type_oxidation_number
Cu2+ 2
Cu3+ 3
Na1+ 1
O2- -2
loop_
_atom_site_label
_atom_site_type_symbol
_atom_site_symmetry_multiplicity
_atom_site_Wyckoff_symbol
_atom_site_fract_x
_atom_site_fract_y
_atom_site_fract_z
_atom_site_B_iso_or_equiv
_atom_site_occupancy
_atom_site_attached_hydrogens
Cu1 Cu2+ 4 e 0.2366(1) 0.04412(3) 0.76471(7) 0.0117(2) 1. 0
Cu2 Cu2+ 4 e 0.2380(1) -0.12180(3) 0.75447(7) 0.0129(2) 1. 0
Cu3 Cu3+ 4 e 0.2477(1) 0.21046(3) 0.75715(7) 0.0119(2) 1. 0
Na1 Na1+ 4 e -0.2284(4) 0.0466(1) 0.8780(3) 0.0185(4) 1. 0
Na2 Na1+ 4 e -0.2272(4) -0.1331(1) 0.8807(3) 0.0155(4) 1. 0
Na3 Na1+ 4 e -0.2833(5) -0.2695(2) 0.5997(4) 0.0427(9) 1. 0
Na4 Na1+ 4 e -0.2866(5) -0.0537(3) 0.5591(3) 0.049(1) 1. 0
Na5 Na1+ 4 e 0.214(1) 0.3582(4) 0.0574(6) 0.0253(9) 0.5 0
Na6 Na1+ 4 e 0.719(1) 0.1862(4) 0.6055(8) 0.030(1) 0.5 0
O1 O2- 4 e 0.4223(7) -0.0384(2) 0.6959(5) 0.0164(6) 1. 0
O2 O2- 4 e 0.0545(7) 0.1322(2) 0.8177(4) 0.0119(5) 1. 0
O3 O2- 4 e 0.4351(7) 0.1271(2) 0.7106(6) 0.0172(7) 1. 0
O4 O2- 4 e 0.0450(7) -0.0416(2) 0.8131(5) 0.0155(6) 1. 0
O5 O2- 4 e 0.0656(7) 0.2958(3) 0.7951(6) 0.0240(8) 1. 0
O6 O2- 4 e 0.0572(7) -0.2112(2) 0.8003(5) 0.0218(7) 1. 0
#End of TTdata_185337-ICSD