
#(C) 2018 by FIZ Karlsruhe - Leibniz Institute for Information Infrastructure.  All rights reserved.
data_186040-ICSD
_database_code_ICSD 186040
_audit_creation_date 2013-02-01
_chemical_name_systematic 'Lithium lutetium barium molybdate (2.8/3.2/2/8)'
_chemical_formula_structural 'Li2.80 Lu3.20 Ba2 (Mo O4)8'
_chemical_formula_sum 'Ba2 Li2.8 Lu3.2 Mo8 O32'
_chemical_name_structure_type Li3Ba2Tm3(MoO4)8
_exptl_crystal_density_diffrn 5.73
_cell_measurement_temperature 298.
_publ_section_title

;
Crystal growth and physical characterization of monoclinic Li3 Lu3 Ba2 (Mo
O4)8. A spectrally broadened disordered crystal for ultrafast mode-locked
lasers
;
loop_
_citation_id
_citation_journal_full
_citation_year
_citation_journal_volume
_citation_page_first
_citation_page_last
_citation_journal_id_ASTM
primary 'Crystal Growth & Design' 2012 12 3878 3887 CGDEFU
loop_
_publ_author_name
'Han Xiumei'
'Calderon-Villajos, R.'
'Esteban-Betegon, F.'
'Cascales, C.'
'Zaldo, C.'
'Jezowski, A.'
'Stachowiak, P.'
_cell_length_a 5.1605(6)
_cell_length_b 12.5717(16)
_cell_length_c 19.055(2)
_cell_angle_alpha 90.
_cell_angle_beta 91.559(2)
_cell_angle_gamma 90.
_cell_volume 1235.76
_cell_formula_units_Z 2
_symmetry_space_group_name_H-M 'C 1 2/c 1'
_symmetry_Int_Tables_number 15
_refine_ls_R_factor_all 0.0472
loop_
_symmetry_equiv_pos_site_id
_symmetry_equiv_pos_as_xyz
1 'x, -y, z+1/2'
2 '-x, -y, -z'
3 '-x, y, -z+1/2'
4 'x, y, z'
5 'x+1/2, -y+1/2, z+1/2'
6 '-x+1/2, -y+1/2, -z'
7 '-x+1/2, y+1/2, -z+1/2'
8 'x+1/2, y+1/2, z'
loop_
_atom_type_symbol
_atom_type_oxidation_number
Lu3+ 3
Li1+ 1
Ba2+ 2
Li1+ 1
Mo6+ 6
O2- -2
loop_
_atom_site_label
_atom_site_type_symbol
_atom_site_symmetry_multiplicity
_atom_site_Wyckoff_symbol
_atom_site_fract_x
_atom_site_fract_y
_atom_site_fract_z
_atom_site_B_iso_or_equiv
_atom_site_occupancy
_atom_site_attached_hydrogens
Lu1 Lu3+ 8 f 0.0031(1) 0.1476(1) 0.4689(1) 0.007(1) 0.800(3) 0
Li1 Li1+ 8 f 0.0031(1) 0.1476(1) 0.4689(1) 0.007(1) 0.200(3) 0
Ba1 Ba2+ 4 e 0 0.0301(1) 0.25 0.011(1) 1. 0
Li2 Li1+ 4 e 0.5 0.1820(30) 0.75 0.043(10) 1. 0
Mo1 Mo6+ 8 f 0.5120(2) 0.0596(1) 0.5912(1) 0.007(1) 1. 0
Mo2 Mo6+ 8 f 0.5000(2) 0.2398(1) 0.3521(1) 0.008(1) 1. 0
O1 O2- 8 f 0.2428(14) 0.0174(6) 0.5352(4) 0.016(2) 1. 0
O2 O2- 8 f 0.7348(15) -0.0472(6) 0.6040(4) 0.014(1) 1. 0
O3 O2- 8 f 0.2755(15) 0.1998(6) 0.2877(4) 0.015(2) 1. 0
O4 O2- 8 f 0.7580(13) 0.1477(5) 0.3662(4) 0.012(1) 1. 0
O5 O2- 8 f 0.3284(19) 0.2609(8) 0.4331(5) 0.014(2) 1. 0
O6 O2- 8 f 0.6393(15) 0.3570(6) 0.3224(4) 0.012(1) 1. 0
O7 O2- 8 f 0.3771(14) 0.0841(6) 0.6717(4) 0.013(1) 1. 0
O8 O2- 8 f 0.6638(14) 0.1697(6) 0.5452(4) 0.012(1) 1. 0
#End of TTdata_186040-ICSD