
#(C) 2019 by FIZ Karlsruhe - Leibniz Institute for Information Infrastructure.  All rights reserved.
data_186318-ICSD
_database_code_ICSD 186318
_audit_creation_date 2013-02-01
_chemical_name_systematic 'Sodium potassium niobate (0.5/0.5/1)'
_chemical_formula_structural '(K0.50 Na0.50) (Nb O3)'
_chemical_formula_sum 'K0.5 Na0.5 Nb1 O3'
_chemical_name_structure_type Perovskite-PbTiO3
_exptl_crystal_density_diffrn 4.49
_cell_measurement_temperature 469.
_publ_section_title
'Structural evolution of Na0.5 K0.5 Nb O3 at high temperatures'
loop_
_citation_id
_citation_journal_full
_citation_year
_citation_journal_volume
_citation_page_first
_citation_page_last
_citation_journal_id_ASTM
primary 'Journal of Solid State Chemistry' 2010 183 2731 2738 JSSCBI
loop_
_publ_author_name
'Ishizawa, N.'
'Wang Jun'
'Sakakura, T.'
'Inagaki, Y.'
'Kakimoto, K.'
_cell_length_a 3.9765(2)
_cell_length_b 3.9765(2)
_cell_length_c 4.0188(2)
_cell_angle_alpha 90.
_cell_angle_beta 90.
_cell_angle_gamma 90.
_cell_volume 63.55
_cell_formula_units_Z 1
_symmetry_space_group_name_H-M 'P 4 m m'
_symmetry_Int_Tables_number 99
_refine_ls_R_factor_all 0.0209
loop_
_symmetry_equiv_pos_site_id
_symmetry_equiv_pos_as_xyz
1 'y, -x, z'
2 '-y, x, z'
3 '-y, -x, z'
4 'y, x, z'
5 'x, -y, z'
6 '-x, y, z'
7 '-x, -y, z'
8 'x, y, z'
loop_
_atom_type_symbol
_atom_type_oxidation_number
O2- -2
Nb5+ 5
K1+ 1
Na1+ 1
loop_
_atom_site_label
_atom_site_type_symbol
_atom_site_symmetry_multiplicity
_atom_site_Wyckoff_symbol
_atom_site_fract_x
_atom_site_fract_y
_atom_site_fract_z
_atom_site_B_iso_or_equiv
_atom_site_occupancy
_atom_site_attached_hydrogens
O1 O2- 1 b 0.5 0.5 0.005(8) 0.0282(16) 1 0
O2 O2- 2 c 0.5 0. 0.4638(17) 0.0171(12) 1 0
Nb1 Nb5+ 1 b 0.5 0.5 0.5 0.01129(8) 1 0
K1 K1+ 1 a 0. 0. -0.0199(13) 0.0157(3) 0.5 0
Na1 Na1+ 1 a 0. 0. -0.0199(13) 0.0157(3) 0.5 0
loop_
_atom_site_aniso_label
_atom_site_aniso_type_symbol
_atom_site_aniso_U_11
_atom_site_aniso_U_22
_atom_site_aniso_U_33
_atom_site_aniso_U_12
_atom_site_aniso_U_13
_atom_site_aniso_U_23
O1 O2- 0.0246(17) 0.0246(17) 0.035(4) 0. 0. 0.
O2 O2- 0.023(2) 0.0122(9) 0.016(4) 0. 0. 0.
#End of TTdata_186318-ICSD