
#(C) 2018 by FIZ Karlsruhe - Leibniz Institute for Information Infrastructure.  All rights reserved.
data_186450-ICSD
_database_code_ICSD 186450
_audit_creation_date 2013-08-01
_chemical_name_systematic 'Lithium cerium molybdate (0.5/0.5/1)'
_chemical_formula_structural '(Li0.5 Ce0.5) (Mo O4)'
_chemical_formula_sum 'Ce0.5 Li0.5 Mo1 O4'
_chemical_name_structure_type Scheelite-CaWO4
_exptl_crystal_density_diffrn 4.76
_cell_measurement_temperature 293.
_publ_section_title

;
Synthesis, structure and ionic conductivity in scheelite type Li0.5 Ce0.5-x
Lnx Mo O4  (x = 0 and 0.25, Ln = Pr, Sm)
;
loop_
_citation_id
_citation_journal_full
_citation_year
_citation_journal_volume
_citation_page_first
_citation_page_last
_citation_journal_id_ASTM
primary 'Journal of Chemical Sciences (Berlin, Germany)' 2011 123 5 13 JCSBB5
loop_
_publ_author_name
'Saha, Dipankar'
'Madras, Giridhar'
'Bhattacharyya, Aninda J.'
'Guru Row, Tayur N.'
_cell_length_a 5.2943(3)
_cell_length_b 5.2943(3)
_cell_length_c 11.6254(10)
_cell_angle_alpha 90.
_cell_angle_beta 90.
_cell_angle_gamma 90.
_cell_volume 325.86
_cell_formula_units_Z 4
_symmetry_space_group_name_H-M 'I 41/a Z'
_symmetry_Int_Tables_number 88
_refine_ls_R_factor_all 0.026
loop_
_symmetry_equiv_pos_site_id
_symmetry_equiv_pos_as_xyz
1 '-y+3/4, x+3/4, -z+3/4'
2 'y+1/4, -x+3/4, -z+3/4'
3 'x, y+1/2, -z'
4 '-x, -y, -z'
5 'y+1/4, -x+1/4, z+1/4'
6 '-y+3/4, x+1/4, z+1/4'
7 '-x, -y+1/2, z'
8 'x, y, z'
9 '-y+1/4, x+1/4, -z+1/4'
10 'y+3/4, -x+1/4, -z+1/4'
11 'x+1/2, y, -z+1/2'
12 '-x+1/2, -y+1/2, -z+1/2'
13 'y+3/4, -x+3/4, z+3/4'
14 '-y+1/4, x+3/4, z+3/4'
15 '-x+1/2, -y, z+1/2'
16 'x+1/2, y+1/2, z+1/2'
loop_
_atom_type_symbol
_atom_type_oxidation_number
Mo6+ 6
O2- -2
Li1+ 1
Ce3+ 3
loop_
_atom_site_label
_atom_site_type_symbol
_atom_site_symmetry_multiplicity
_atom_site_Wyckoff_symbol
_atom_site_fract_x
_atom_site_fract_y
_atom_site_fract_z
_atom_site_B_iso_or_equiv
_atom_site_occupancy
_atom_site_attached_hydrogens
Mo1 Mo6+ 4 a 0 0.25 0.125 . 1. 0
O1 O2- 16 f 0.2409(5) 0.3943(5) 0.0415(3) . 1. 0
Li1 Li1+ 4 b 0 0.25 0.625 . 0.5 0
Ce1 Ce3+ 4 b 0 0.25 0.625 . 0.5 0
loop_
_atom_site_aniso_label
_atom_site_aniso_type_symbol
_atom_site_aniso_U_11
_atom_site_aniso_U_22
_atom_site_aniso_U_33
_atom_site_aniso_U_12
_atom_site_aniso_U_13
_atom_site_aniso_U_23
Mo1 Mo6+ 0.0093(3) 0.0093(3) 0.0156(4) 0. 0. 0.
O1 O2- 0.0192(13) 0.0128(12) 0.0193(11) -0.0033(10) 0.0050(10) 0.0004(11)
Li1 Li1+ 0.0074(3) 0.0074(3) 0.0074(4) 0. 0. 0.
Ce1 Ce3+ 0.0074(3) 0.0074(3) 0.0074(4) 0. 0. 0.
#End of TTdata_186450-ICSD