
#(C) 2018 by FIZ Karlsruhe - Leibniz Institute for Information Infrastructure.  All rights reserved.
data_186498-ICSD
_database_code_ICSD 186498
_audit_creation_date 2013-08-01
_chemical_name_systematic 'Dilithium iron silicate'
_chemical_formula_structural 'Li2 Fe (Si O4)'
_chemical_formula_sum 'Fe1 Li2 O4 Si1'
_chemical_name_structure_type Li2(Fe,Mn)SiO4
_exptl_crystal_density_diffrn 3.13
_publ_section_title

;
Structural Analysis during Charge-Discharge Process of Li2 Fe Si O4
Synthesized by Molten Carbonate Flux Method
;
loop_
_citation_id
_citation_journal_full
_citation_year
_citation_journal_volume
_citation_page_first
_citation_page_last
_citation_journal_id_ASTM
primary 'Journal of the Electrochemical Society' 2012 159 A525 A531 JESOAN
loop_
_publ_author_name
'Kojima, Akira'
'Kojima, Toshikatsu'
'Sakai, Tetsuo'
_cell_length_a 8.3089(2)
_cell_length_b 5.0378(1)
_cell_length_c 8.276(1)
_cell_angle_alpha 90.
_cell_angle_beta 98.01(1)
_cell_angle_gamma 90.
_cell_volume 343.04
_cell_formula_units_Z 4
_symmetry_space_group_name_H-M 'P 1 21/n 1'
_symmetry_Int_Tables_number 14
_refine_ls_R_factor_all 0.021
loop_
_symmetry_equiv_pos_site_id
_symmetry_equiv_pos_as_xyz
1 '-x+1/2, y+1/2, -z+1/2'
2 '-x, -y, -z'
3 'x+1/2, -y+1/2, z+1/2'
4 'x, y, z'
loop_
_atom_type_symbol
_atom_type_oxidation_number
Fe2+ 2
Li1+ 1
Fe2+ 2
Li1+ 1
Si4+ 4
O2- -2
loop_
_atom_site_label
_atom_site_type_symbol
_atom_site_symmetry_multiplicity
_atom_site_Wyckoff_symbol
_atom_site_fract_x
_atom_site_fract_y
_atom_site_fract_z
_atom_site_B_iso_or_equiv
_atom_site_occupancy
_atom_site_attached_hydrogens
Fe1 Fe2+ 4 e 0.6600(9) 0.784(1) 0.675(1) 0.80(6) 0.528(4) 0
Li1 Li1+ 4 e 0.6600(9) 0.784(1) 0.675(1) 0.80(6) 0.472(4) 0
Fe2 Fe2+ 4 e 0.5957(9) 0.167(1) 0.1063(9) 0.52(5) 0.472(4) 0
Li2 Li1+ 4 e 0.5957(9) 0.167(1) 0.1063(9) 0.52(5) 0.528(4) 0
Li3 Li1+ 4 e 0.286(5) 0.797(6) 0.544(5) 1. 1. 0
Si1 Si4+ 4 e 0.0342(9) 0.814(1) 0.801(1) 0.20(4) 1. 0
O1 O2- 4 e 0.861(1) 0.694(2) 0.822(1) 0.2(2) 1. 0
O2 O2- 4 e 0.425(2) 0.220(2) 0.879(2) 0.2(2) 1. 0
O3 O2- 4 e 0.675(2) 0.793(3) 0.432(2) 0.2(2) 1. 0
O4 O2- 4 e 0.953(2) 0.868(2) 0.219(2) 0.2(2) 1. 0
#End of TTdata_186498-ICSD