
#(C) 2019 by FIZ Karlsruhe - Leibniz Institute for Information Infrastructure.  All rights reserved.
data_186744-ICSD
_database_code_ICSD 186744
_audit_creation_date 2013-08-01
_chemical_name_systematic 'Sodium europium molybdate (0.015/0.662/1)'
_chemical_formula_structural '(Na0.015 Eu0.662) (Mo O4)'
_chemical_formula_sum 'Eu0.662 Mo1 Na0.015 O4'
_chemical_name_structure_type Eu2.7(MoO4)4
_exptl_crystal_density_diffrn 5.52
_cell_measurement_temperature 293.
_publ_section_title

;
The luminescence of Nax Eu3+(2-x)/3 MoO4 scheelites depends on the number of
Eu-clusters occurring in their incommensurately modulated structure
;
loop_
_citation_id
_citation_journal_full
_citation_year
_citation_journal_volume
_citation_page_first
_citation_page_last
_citation_journal_id_ASTM
primary 'Chemical Science' 2012 3 384 390 CSHCCN
loop_
_publ_author_name
'Arakcheeva, Alla'
'Logvinovich, Dmitry'
'Chapuis, Gervais'
'Morozov, Vladimir'
'Eliseeva, Svetlana V.'
'Buenzli, Jean-Claude G.'
'Pattison, Philip'
_cell_length_a 5.228(3)
_cell_length_b 5.230(3)
_cell_length_c 11.486(4)
_cell_angle_alpha 90
_cell_angle_beta 90
_cell_angle_gamma 90.98(4)
_cell_volume 314.01
_cell_formula_units_Z 4
_symmetry_space_group_name_H-M 'I 1 1 2/b'
_symmetry_Int_Tables_number 15
_refine_ls_R_factor_all 0.0283
loop_
_symmetry_equiv_pos_site_id
_symmetry_equiv_pos_as_xyz
1 '-x, -y+1/2, z'
2 'x, y+1/2, -z'
3 '-x, -y, -z'
4 'x, y, z'
5 '-x+1/2, -y, z+1/2'
6 'x+1/2, y, -z+1/2'
7 '-x+1/2, -y+1/2, -z+1/2'
8 'x+1/2, y+1/2, z+1/2'
loop_
_atom_type_symbol
_atom_type_oxidation_number
Eu3+ 3
Na1+ 1
Eu3+ 3
Mo6+ 6
O2- -2
Na1+ 1
Eu3+ 3
loop_
_atom_site_label
_atom_site_type_symbol
_atom_site_symmetry_multiplicity
_atom_site_Wyckoff_symbol
_atom_site_fract_x
_atom_site_fract_y
_atom_site_fract_z
_atom_site_B_iso_or_equiv
_atom_site_occupancy
_atom_site_attached_hydrogens
Eu1 Eu3+ 4 e 0.5 0.25 0.867(14) 0.0076(7) 0.6436(5) 0
Na1 Na1+ 4 e 0.5 0.25 0.867(14) 0.0076(7) 0.0075(1) 0
Eu2 Eu3+ 4 e 0.5 0.25 0.867(14) 0.0076(7) 0.009(1) 0
Mo1 Mo6+ 4 e 0.5 0.25 0.379(4) 0.0146(8) 1 0
O1 O2- 8 f 0.384(16) -0.008(13) 0.284(6) 0.0069(19) 1 0
O2 O2- 8 f 0.78(2) 0.42(2) 0.033(7) 0.0069(19) 1 0
Na2 Na1+ 4 e 0.5 0.25 0.867(14) 0.0076(7) 0.0075(1) 0
Eu3 Eu3+ 4 e 0.5 0.25 0.867(14) 0.0076(7) 0.009(1) 0
#End of TTdata_186744-ICSD