
#(C) 2019 by FIZ Karlsruhe - Leibniz Institute for Information Infrastructure.  All rights reserved.
data_186743-ICSD
_database_code_ICSD 186743
_audit_creation_date 2013-08-01
_chemical_name_systematic 'Europium sodium molybdate (0.5/0.5/1)'
_chemical_formula_structural '(Eu0.5 Na0.5) (Mo O4)'
_chemical_formula_sum 'Eu0.5 Mo1 Na0.5 O4'
_chemical_name_structure_type YNbO4(mS24)
_exptl_crystal_density_diffrn 5.22
_cell_measurement_temperature 293.
_publ_section_title

;
The luminescence of Nax Eu3+(2-x)/3 MoO4 scheelites depends on the number of
Eu-clusters occurring in their incommensurately modulated structure
;
loop_
_citation_id
_citation_journal_full
_citation_year
_citation_journal_volume
_citation_page_first
_citation_page_last
_citation_journal_id_ASTM
primary 'Chemical Science' 2012 3 384 390 CSHCCN
loop_
_publ_author_name
'Arakcheeva, Alla'
'Logvinovich, Dmitry'
'Chapuis, Gervais'
'Morozov, Vladimir'
'Eliseeva, Svetlana V.'
'Buenzli, Jean-Claude G.'
'Pattison, Philip'
_cell_length_a 5.2421(1)
_cell_length_b 5.2385(1)
_cell_length_c 11.4543(2)
_cell_angle_alpha 90
_cell_angle_beta 90
_cell_angle_gamma 89.949(3)
_cell_volume 314.54
_cell_formula_units_Z 4
_symmetry_space_group_name_H-M 'I 1 1 2/b'
_symmetry_Int_Tables_number 15
_refine_ls_R_factor_all 0.0232
loop_
_symmetry_equiv_pos_site_id
_symmetry_equiv_pos_as_xyz
1 '-x, -y+1/2, z'
2 'x, y+1/2, -z'
3 '-x, -y, -z'
4 'x, y, z'
5 '-x+1/2, -y, z+1/2'
6 'x+1/2, y, -z+1/2'
7 '-x+1/2, -y+1/2, -z+1/2'
8 'x+1/2, y+1/2, z+1/2'
loop_
_atom_type_symbol
_atom_type_oxidation_number
Eu3+ 3
Na1+ 1
Mo6+ 6
O2- -2
loop_
_atom_site_label
_atom_site_type_symbol
_atom_site_symmetry_multiplicity
_atom_site_Wyckoff_symbol
_atom_site_fract_x
_atom_site_fract_y
_atom_site_fract_z
_atom_site_B_iso_or_equiv
_atom_site_occupancy
_atom_site_attached_hydrogens
Eu1 Eu3+ 4 e 0.5 0.25 0.8758(4) 0.0077(5) 0.5 0
Na1 Na1+ 4 e 0.5 0.25 0.8758(4) 0.0077(5) 0.5 0
Mo1 Mo6+ 4 e 0.5 0.25 0.3738(4) 0.0097(5) 1 0
O1 O2- 8 f 0.3731(10) 0.0159(16) 0.2810(7) 0.0017(8) 1 0
O2 O2- 8 f 0.7493(19) 0.4340(12) 0.0478(6) 0.0017(8) 1 0
#End of TTdata_186743-ICSD