
#(C) 2019 by FIZ Karlsruhe - Leibniz Institute for Information Infrastructure.  All rights reserved.
data_187130-ICSD
_database_code_ICSD 187130
_audit_creation_date 2013-08-01
_chemical_name_systematic 'Disodium iridate(IV)'
_chemical_formula_structural 'Na2 (Ir O3)'
_chemical_formula_sum 'Ir1 Na2 O3'
_chemical_name_structure_type Li5ReO6
_exptl_crystal_density_diffrn 7.05
_cell_measurement_temperature 300.
_publ_section_title
'Spin waves and revised crystal structure of honeycomb iridate Na2 Ir O3'
loop_
_citation_id
_citation_journal_full
_citation_year
_citation_journal_volume
_citation_page_first
_citation_page_last
_citation_journal_id_ASTM
primary 'Physical Review Letters' 2012 108 127204-1 127204-5 PRLTAO
loop_
_publ_author_name
'Choi, S.K.'
'Coldea, R.'
'Kolmogorov, A.N.'
'Lancaster, T.'
'Mazin, I.I.'
'Blundell, S.J.'
'Radaelli, P.G.'
'Singh, Yogesh'
'Gegenwart, P.'
'Choi, K.R.'
'Cheong, S.W.'
'Baker, P.J.'
'Stock, C.'
'Taylor, J.'
_cell_length_a 5.427(1)
_cell_length_b 9.395(1)
_cell_length_c 5.614(1)
_cell_angle_alpha 90.
_cell_angle_beta 109.037(18)
_cell_angle_gamma 90.
_cell_volume 270.58
_cell_formula_units_Z 4
_symmetry_space_group_name_H-M 'C 1 2/m 1'
_symmetry_Int_Tables_number 12
_refine_ls_R_factor_all 0.0584
loop_
_symmetry_equiv_pos_site_id
_symmetry_equiv_pos_as_xyz
1 '-x, y, -z'
2 '-x, -y, -z'
3 'x, -y, z'
4 'x, y, z'
5 '-x+1/2, y+1/2, -z'
6 '-x+1/2, -y+1/2, -z'
7 'x+1/2, -y+1/2, z'
8 'x+1/2, y+1/2, z'
loop_
_atom_type_symbol
_atom_type_oxidation_number
Ir4+ 4
Na1+ 1
O2- -2
loop_
_atom_site_label
_atom_site_type_symbol
_atom_site_symmetry_multiplicity
_atom_site_Wyckoff_symbol
_atom_site_fract_x
_atom_site_fract_y
_atom_site_fract_z
_atom_site_B_iso_or_equiv
_atom_site_occupancy
_atom_site_attached_hydrogens
Ir1 Ir4+ 4 g 0.5 0.167(1) 0 0.001(1) 1. 0
Na1 Na1+ 2 a 0 0 0 0.001(6) 1. 0
Na2 Na1+ 2 d 0.5 0 0.5 0.009(7) 1. 0
Na3 Na1+ 4 h 0.5 0.340(2) 0.5 0.009(6) 1. 0
O1 O2- 8 j 0.748(6) 0.178(2) 0.789(6) 0.001(6) 1. 0
O2 O2- 4 i 0.711(7) 0 0.204(7) 0.001(7) 1. 0
#End of TTdata_187130-ICSD