
#(C) 2019 by FIZ Karlsruhe - Leibniz Institute for Information Infrastructure.  All rights reserved.
data_187540-ICSD
_database_code_ICSD 187540
_audit_creation_date 2013-08-01
_chemical_name_systematic 'Disodium iridium trioxide'
_chemical_formula_structural 'Na2 Ir O3'
_chemical_formula_sum 'Ir1 Na2 O3'
_chemical_name_structure_type Li5ReO6
_exptl_crystal_density_diffrn 7.42
_cell_measurement_temperature 125.
_publ_section_title

;
Direct evidence of a zigzag spin-chain structure in the honeycomb lattice: a
neutron and X - ray diffraction investigation of single-crystal Na2 Ir O3
;
loop_
_citation_id
_citation_journal_full
_citation_year
_citation_journal_volume
_citation_page_first
_citation_page_last
_citation_journal_id_ASTM
primary 'Physical Review B: Condensed Matter and Materials Physics' 2012 85
180403-1 180403-4 PRBMDO
loop_
_publ_author_name
'Ye, Feng'
'Chi, Songxue'
'Cao, Huibo'
'Chakoumakos, Bryan C.'
'Fernandez-Beca, Jaime A.'
'Custelcean, Radu'
'Qi, T.F.'
'Korneta, O.B.'
'Cao, G.'
_cell_length_a 5.319(1)
_cell_length_b 9.215(2)
_cell_length_c 5.536(1)
_cell_angle_alpha 90.
_cell_angle_beta 108.67(1)
_cell_angle_gamma 90.
_cell_volume 257.07
_cell_formula_units_Z 4
_symmetry_space_group_name_H-M 'C 1 2/m 1'
_symmetry_Int_Tables_number 12
_refine_ls_R_factor_all 0.0687
loop_
_symmetry_equiv_pos_site_id
_symmetry_equiv_pos_as_xyz
1 '-x, y, -z'
2 '-x, -y, -z'
3 'x, -y, z'
4 'x, y, z'
5 '-x+1/2, y+1/2, -z'
6 '-x+1/2, -y+1/2, -z'
7 'x+1/2, -y+1/2, z'
8 'x+1/2, y+1/2, z'
loop_
_atom_type_symbol
_atom_type_oxidation_number
Ir4+ 4
Na1+ 1
Ir4+ 4
Na1+ 1
O2- -2
loop_
_atom_site_label
_atom_site_type_symbol
_atom_site_symmetry_multiplicity
_atom_site_Wyckoff_symbol
_atom_site_fract_x
_atom_site_fract_y
_atom_site_fract_z
_atom_site_B_iso_or_equiv
_atom_site_occupancy
_atom_site_attached_hydrogens
Ir1 Ir4+ 4 g 0 0.3332(1) 0 0.006(1) 0.823(6) 0
Na1 Na1+ 4 g 0 0.3332(1) 0 0.006(1) 0.177(6) 0
Na2 Na1+ 2 a 0 0 0 0.014(2) 0.646(9) 0
Ir2 Ir4+ 2 a 0 0 0 0.014(2) 0.354(9) 0
Na3 Na1+ 4 h 0 0.8363 0.5 0.003(2) 1. 0
Na4 Na1+ 2 d 0 0.5 0.5 0.004(2) 1. 0
O1 O2- 8 j 0.259(3) 0.3294(7) 0.792(3) 0.001(3) 1. 0
O2 O2- 4 i 0.270(3) 0 0.792(3) 0.001(3) 1. 0
#End of TTdata_187540-ICSD