
#(C) 2019 by FIZ Karlsruhe - Leibniz Institute for Information Infrastructure.  All rights reserved.
data_187633-ICSD
_database_code_ICSD 187633
_audit_creation_date 2013-08-01
_chemical_name_systematic 'Sodium bismuth calcium titanate (0.45/0.45/0.1/1)'
_chemical_formula_structural '((Na0.5 Bi0.5)0.9 Ca0.1) (Ti O3)'
_chemical_formula_sum 'Bi0.45 Ca0.1 Na0.45 O3 Ti1'
_chemical_name_structure_type Pb(Ti,Zr)O3
_exptl_crystal_density_diffrn 5.83
_cell_measurement_temperature 293.
_publ_section_title

;
Complex structural phase transitions in slightly Ca modified Na0.5 Bi0.5 Ti O3
;
loop_
_citation_id
_citation_journal_full
_citation_year
_citation_journal_volume
_citation_page_first
_citation_page_last
_citation_journal_id_ASTM
primary 'Journal of Physics: Condensed Matter' 2012 24 455902-1 455902-10 JCOMEL
loop_
_publ_author_name
'Garg, Rohini'
'Senyshyn, Anatoliy'
'Ranjan, Rajeev'
_cell_length_a 9.49152(108)
_cell_length_b 5.46996(49)
_cell_length_c 5.49032(42)
_cell_angle_alpha 90.
_cell_angle_beta 125.2746(91)
_cell_angle_gamma 90.
_cell_volume 232.71
_cell_formula_units_Z 4
_symmetry_space_group_name_H-M 'C 1 c 1'
_symmetry_Int_Tables_number 9
_refine_ls_R_factor_all 0.0582
loop_
_symmetry_equiv_pos_site_id
_symmetry_equiv_pos_as_xyz
1 'x, -y, z+1/2'
2 'x, y, z'
3 'x+1/2, -y+1/2, z+1/2'
4 'x+1/2, y+1/2, z'
loop_
_atom_type_symbol
_atom_type_oxidation_number
Na1+ 1
Bi3+ 3
Ca2+ 2
Ti4+ 4
O2- -2
loop_
_atom_site_label
_atom_site_type_symbol
_atom_site_symmetry_multiplicity
_atom_site_Wyckoff_symbol
_atom_site_fract_x
_atom_site_fract_y
_atom_site_fract_z
_atom_site_B_iso_or_equiv
_atom_site_occupancy
_atom_site_attached_hydrogens
Na1 Na1+ 4 a 0 0.25 0 . 0.45 0
Bi1 Bi3+ 4 a 0 0.25 0 . 0.45 0
Ca1 Ca2+ 4 a 0 0.25 0 . 0.1 0
Ti1 Ti4+ 4 a 0.26009 0.24408 0.77142 1.497 1. 0
O1 O2- 4 a 0.00668 0.19986 0.51723 . 1. 0
O2 O2- 4 a 0.23144 0.50396 -0.00663 . 1. 0
O3 O2- 4 a 0.27817 -0.01117 0.04272 . 1. 0
loop_
_atom_site_aniso_label
_atom_site_aniso_type_symbol
_atom_site_aniso_beta_11
_atom_site_aniso_beta_22
_atom_site_aniso_beta_33
_atom_site_aniso_beta_12
_atom_site_aniso_beta_13
_atom_site_aniso_beta_23
Na1 Na1+ 0.0048 0.043 0.0294 0.0055 0. 0.
Bi1 Bi3+ 0.0048 0.043 0.0294 0.0055 0. 0.
Ca1 Ca2+ 0.0048 0.043 0.0294 0.0055 0. 0.
O1 O2- 0.0063 0.0044 0.0541 -0.0072 0.0182 -0.0141
O2 O2- 0.0144 0.0406 0.0905 0.0106 0.0151 -0.0403
O3 O2- 0.034 0.0593 0.0468 0.0059 0.0466 0.0242
#End of TTdata_187633-ICSD