
#(C) 2019 by FIZ Karlsruhe - Leibniz Institute for Information Infrastructure.  All rights reserved.
data_187630-ICSD
_database_code_ICSD 187630
_audit_creation_date 2013-08-01
_chemical_name_systematic 'Sodium bismuth calcium titanate (0.47/0.47/0.06/1)'
_chemical_formula_structural '((Na0.5 Bi0.5)0.94 Ca0.06) (Ti O3)'
_chemical_formula_sum 'Bi0.47 Ca0.06 Na0.47 O3 Ti1'
_chemical_name_structure_type Pb(Ti,Zr)O3
_exptl_crystal_density_diffrn 5.9
_cell_measurement_temperature 293.
_publ_section_title

;
Complex structural phase transitions in slightly Ca modified Na0.5 Bi0.5 Ti O3
;
loop_
_citation_id
_citation_journal_full
_citation_year
_citation_journal_volume
_citation_page_first
_citation_page_last
_citation_journal_id_ASTM
primary 'Journal of Physics: Condensed Matter' 2012 24 455902-1 455902-10 JCOMEL
loop_
_publ_author_name
'Garg, Rohini'
'Senyshyn, Anatoliy'
'Ranjan, Rajeev'
_cell_length_a 9.5000(5)
_cell_length_b 5.4740(2)
_cell_length_c 5.5025(3)
_cell_angle_alpha 90.
_cell_angle_beta 125.286(4)
_cell_angle_gamma 90.
_cell_volume 233.58
_cell_formula_units_Z 4
_symmetry_space_group_name_H-M 'C 1 c 1'
_symmetry_Int_Tables_number 9
loop_
_symmetry_equiv_pos_site_id
_symmetry_equiv_pos_as_xyz
1 'x, -y, z+1/2'
2 'x, y, z'
3 'x+1/2, -y+1/2, z+1/2'
4 'x+1/2, y+1/2, z'
loop_
_atom_type_symbol
_atom_type_oxidation_number
Na1+ 1
Bi3+ 3
Ca2+ 2
Ti4+ 4
O2- -2
loop_
_atom_site_label
_atom_site_type_symbol
_atom_site_symmetry_multiplicity
_atom_site_Wyckoff_symbol
_atom_site_fract_x
_atom_site_fract_y
_atom_site_fract_z
_atom_site_B_iso_or_equiv
_atom_site_occupancy
_atom_site_attached_hydrogens
Na1 Na1+ 4 a 0 0.25 0 . 0.47 0
Bi1 Bi3+ 4 a 0 0.25 0 . 0.47 0
Ca1 Ca2+ 4 a 0 0.25 0 . 0.06 0
Ti1 Ti4+ 4 a 0.2523(6) 0.2416(19) 0.7383(13) 0.91(6) 1. 0
O1 O2- 4 a 0.0024(9) 0.1994(8) 0.4988(17) . 1. 0
O2 O2- 4 a 0.2291(7) 0.4967(8) -0.0087(3) . 1. 0
O3 O2- 4 a 0.2768(7) -0.0018(4) 0.0384(5) . 1. 0
loop_
_atom_site_aniso_label
_atom_site_aniso_type_symbol
_atom_site_aniso_beta_11
_atom_site_aniso_beta_22
_atom_site_aniso_beta_33
_atom_site_aniso_beta_12
_atom_site_aniso_beta_13
_atom_site_aniso_beta_23
Na1 Na1+ 0.0069(2) 0.0167(21) 0.0520(27) -0.0007(5) 0. 0.
Bi1 Bi3+ 0.0069(2) 0.0167(21) 0.0520(27) -0.0007(5) 0. 0.
Ca1 Ca2+ 0.0069(2) 0.0167(21) 0.0520(27) -0.0007(5) 0. 0.
O1 O2- 0.0024(1) 0.0044(2) 0.0357(7) 0.0012(4) 0.0062(3) -0.0015(2)
O2 O2- 0.0048(7) 0.0248(24) 0.0782(37) 0.0031(5) 0.0118(6) -0.0369(9)
O3 O2- 0.0083(6) 0.0326(17) 0.0235(29) 0.0013(21) 0.0061(16) 0.0183(24)
#End of TTdata_187630-ICSD