
#(C) 2019 by FIZ Karlsruhe - Leibniz Institute for Information Infrastructure.  All rights reserved.
data_187634-ICSD
_database_code_ICSD 187634
_audit_creation_date 2013-08-01
_chemical_name_systematic 'Sodium bismuth calcium titanate (0.45/0.45/0.1/1)'
_chemical_formula_structural '((Na0.5 Bi0.5)0.9 Ca0.1) (Ti O3)'
_chemical_formula_sum 'Bi0.45 Ca0.1 Na0.45 O3 Ti1'
_chemical_name_structure_type Perovskite-NaNbO3(tP10)
_exptl_crystal_density_diffrn 5.71
_cell_measurement_temperature 823.
_publ_section_title

;
Complex structural phase transitions in slightly Ca modified Na0.5 Bi0.5 Ti O3
;
loop_
_citation_id
_citation_journal_full
_citation_year
_citation_journal_volume
_citation_page_first
_citation_page_last
_citation_journal_id_ASTM
primary 'Journal of Physics: Condensed Matter' 2012 24 455902-1 455902-10 JCOMEL
loop_
_publ_author_name
'Garg, Rohini'
'Senyshyn, Anatoliy'
'Ranjan, Rajeev'
_cell_length_a 5.51756(12)
_cell_length_b 5.51756(12)
_cell_length_c 3.90593(12)
_cell_angle_alpha 90.
_cell_angle_beta 90.
_cell_angle_gamma 90.
_cell_volume 118.91
_cell_formula_units_Z 2
_symmetry_space_group_name_H-M 'P 4/m b m'
_symmetry_Int_Tables_number 127
_refine_ls_R_factor_all 0.0309
loop_
_symmetry_equiv_pos_site_id
_symmetry_equiv_pos_as_xyz
1 'y+1/2, x+1/2, -z'
2 '-y+1/2, -x+1/2, -z'
3 '-y, x, -z'
4 'y, -x, -z'
5 'x+1/2, -y+1/2, -z'
6 '-x+1/2, y+1/2, -z'
7 'x, y, -z'
8 '-x, -y, -z'
9 '-y+1/2, -x+1/2, z'
10 'y+1/2, x+1/2, z'
11 'y, -x, z'
12 '-y, x, z'
13 '-x+1/2, y+1/2, z'
14 'x+1/2, -y+1/2, z'
15 '-x, -y, z'
16 'x, y, z'
loop_
_atom_type_symbol
_atom_type_oxidation_number
Na1+ 1
Bi3+ 3
Ca2+ 2
Ti4+ 4
O2- -2
loop_
_atom_site_label
_atom_site_type_symbol
_atom_site_symmetry_multiplicity
_atom_site_Wyckoff_symbol
_atom_site_fract_x
_atom_site_fract_y
_atom_site_fract_z
_atom_site_B_iso_or_equiv
_atom_site_occupancy
_atom_site_attached_hydrogens
Na1 Na1+ 2 c 0 0.5 0.5 . 0.45 0
Bi1 Bi3+ 2 c 0 0.5 0.5 . 0.45 0
Ca1 Ca2+ 2 c 0 0.5 0.5 . 0.1 0
Ti1 Ti4+ 2 a 0 0 0 . 1. 0
O1 O2- 2 b 0 0 0.5 . 1. 0
O2 O2- 4 g 0.26822(19) 0.23179(19) 0 . 1. 0
loop_
_atom_site_aniso_label
_atom_site_aniso_type_symbol
_atom_site_aniso_beta_11
_atom_site_aniso_beta_22
_atom_site_aniso_beta_33
_atom_site_aniso_beta_12
_atom_site_aniso_beta_13
_atom_site_aniso_beta_23
Na1 Na1+ 0.0437(12) 0.0437(12) 0.0916(51) -0.0023(7) 0. 0.
Bi1 Bi3+ 0.0437(12) 0.0437(12) 0.0916(51) -0.0023(7) 0. 0.
Ca1 Ca2+ 0.0437(12) 0.0437(12) 0.0916(51) -0.0023(7) 0. 0.
Ti1 Ti4+ 0.0107(10) 0.0107(10) 0.0409(46) 0. 0. 0.
O1 O2- 0.0429(5) 0.0429(5) 0.0115(20) 0. 0. 0.
O2 O2- 0.0179(4) 0.0179(4) 0.0945(27) 0.0096(6) 0. 0.
#End of TTdata_187634-ICSD