
#(C) 2017 by FIZ Karlsruhe - Leibniz Institute for Information Infrastructure.  All rights reserved.
data_187751-ICSD
_database_code_ICSD 187751
_audit_creation_date 2013-08-01
_chemical_name_systematic 'Lithium potassium yttrium pentafluoride'
_chemical_formula_structural 'Li K Y F5'
_chemical_formula_sum 'F5 K1 Li1 Y1'
_exptl_crystal_density_diffrn 3.41
_cell_measurement_temperature 293.
_publ_section_title

;
Crystal structure of lithium potassium yttrium pentafluoride Li K Y F5
prepared from high-temperature melt, F10 K2 Li2 Y2
;
loop_
_citation_id
_citation_journal_full
_citation_year
_citation_journal_volume
_citation_page_first
_citation_page_last
_citation_journal_id_ASTM
primary 'Zeitschrift fuer Kristallographie - New Crystal Structures' 2012 227
433 434 ZKNSFT
loop_
_publ_author_name
'Sugiyama, K.'
'Furuya, Y.'
'Yoshikawa, A.'
_cell_length_a 6.3683(4)
_cell_length_b 23.8883(12)
_cell_length_c 6.4310(4)
_cell_angle_alpha 90.
_cell_angle_beta 113.545(2)
_cell_angle_gamma 90.
_cell_volume 896.88
_cell_formula_units_Z 8
_symmetry_space_group_name_H-M 'P 1 21/c 1'
_symmetry_Int_Tables_number 14
_refine_ls_R_factor_all 0.0312
loop_
_symmetry_equiv_pos_site_id
_symmetry_equiv_pos_as_xyz
1 'x, -y+1/2, z+1/2'
2 '-x, -y, -z'
3 '-x, y+1/2, -z+1/2'
4 'x, y, z'
loop_
_atom_type_symbol
_atom_type_oxidation_number
Li1+ 1
Y3+ 3
K1+ 1
F1- -1
loop_
_atom_site_label
_atom_site_type_symbol
_atom_site_symmetry_multiplicity
_atom_site_Wyckoff_symbol
_atom_site_fract_x
_atom_site_fract_y
_atom_site_fract_z
_atom_site_B_iso_or_equiv
_atom_site_occupancy
_atom_site_attached_hydrogens
Li1 Li1+ 4 e 0.6574(11) 0.2494(3) 0.0362(11) 0.0222(12) 1 0
Li2 Li1+ 4 e 0.2209(11) -0.0019(3) -0.4497(12) 0.0222(13) 1 0
Y1 Y3+ 4 e 0.53373(5) 0.125810(12) -0.31648(5) 0.01109(10) 1 0
Y2 Y3+ 4 e -0.10151(5) 0.125942(12) -0.68041(5) 0.01105(10) 1 0
K1 K1+ 4 e 0.16838(13) 0.20100(3) -0.03326(14) 0.02020(17) 1 0
K2 K1+ 4 e 0.25510(14) 0.04922(3) 0.04065(14) 0.02145(17) 1 0
F1 F1- 4 e 0.8811(3) 0.11232(8) -0.0465(4) 0.0179(4) 1 0
F2 F1- 4 e 0.4948(4) 0.22108(8) -0.2689(4) 0.0182(4) 1 0
F3 F1- 4 e 0.5470(3) 0.13686(9) 0.0495(4) 0.0204(4) 1 0
F4 F1- 4 e 0.4673(4) 0.03692(8) -0.2556(4) 0.0203(4) 1 0
F5 F1- 4 e 0.6854(3) 0.07296(8) -0.5313(4) 0.0190(4) 1 0
F6 F1- 4 e 0.2631(3) 0.13147(8) -0.6704(3) 0.0177(4) 1 0
F7 F1- 4 e 0.1677(4) 0.12398(8) -0.3265(4) 0.0189(4) 1 0
F8 F1- 4 e -0.0177(3) 0.03204(8) -0.6908(4) 0.0179(4) 1 0
F9 F1- 4 e -0.0776(3) 0.21352(8) -0.7794(4) 0.0199(4) 1 0
F10 F1- 4 e -0.2550(3) 0.17720(8) -0.4696(3) 0.0183(4) 1 0
loop_
_atom_site_aniso_label
_atom_site_aniso_type_symbol
_atom_site_aniso_U_11
_atom_site_aniso_U_22
_atom_site_aniso_U_33
_atom_site_aniso_U_12
_atom_site_aniso_U_13
_atom_site_aniso_U_23
Li1 Li1+ 0.025(3) 0.019(3) 0.023(3) 0.001(2) 0.009(3) -0.001(2)
Li2 Li1+ 0.023(3) 0.019(3) 0.023(3) -0.002(2) 0.008(3) -0.001(2)
Y1 Y3+ 0.01010(15) 0.01203(16) 0.01103(16) -0.00017(10) 0.00412(11) -0.00016(10)
Y2 Y3+ 0.01020(15) 0.01173(16) 0.01123(16) 0.00040(10) 0.00430(11) 0.00018(10)
K1 K1+ 0.0215(4) 0.0193(4) 0.0225(4) 0.0009(3) 0.0116(3) 0.0015(3)
K2 K1+ 0.0219(4) 0.0219(4) 0.0239(4) 0.0027(3) 0.0126(3) 0.0004(3)
F1 F1- 0.0119(9) 0.0271(10) 0.0138(9) 0.0027(8) 0.0042(8) 0.0000(8)
F2 F1- 0.0201(10) 0.0139(9) 0.0202(10) 0.0017(7) 0.0077(9) 0.0000(8)
F3 F1- 0.0115(9) 0.0359(12) 0.0129(9) 0.0027(8) 0.0038(8) -0.0014(8)
F4 F1- 0.0195(10) 0.0146(9) 0.0273(12) -0.0028(8) 0.0100(9) 0.0016(8)
F5 F1- 0.0235(10) 0.0136(9) 0.0268(11) 0.0000(7) 0.0172(9) -0.0007(8)
F6 F1- 0.0118(9) 0.0279(11) 0.0139(9) -0.0001(7) 0.0056(8) 0.0003(8)
F7 F1- 0.0125(9) 0.0305(11) 0.0137(10) 0.0003(7) 0.0050(8) -0.0016(8)
F8 F1- 0.0185(9) 0.0150(9) 0.0217(11) 0.0038(7) 0.0098(9) 0.0015(8)
F9 F1- 0.0184(10) 0.0164(10) 0.0252(11) 0.0017(7) 0.0089(9) 0.0029(8)
F10 F1- 0.0236(10) 0.0127(9) 0.0242(11) -0.0009(7) 0.0154(9) -0.0023(8)
#End of TTdata_187751-ICSD