
#(C) 2019 by FIZ Karlsruhe - Leibniz Institute for Information Infrastructure.  All rights reserved.
data_187731-ICSD
_database_code_ICSD 187731
_audit_creation_date 2013-08-01
_chemical_name_systematic
'Lithium sodium aluminium silicon oxide (86/6/92/100/384)'
_chemical_formula_structural '(Li87 Na5) (Si100 Al92 O384)'
_chemical_formula_sum 'Al92 Li87 Na5 O384 Si100'
_chemical_name_structure_type Faujasite-Fd3--frame
_chemical_name_mineral 'Zeolite X (Li-exchanged, dehydrated)'
_exptl_crystal_density_diffrn 1.34
_cell_measurement_temperature 100.
_publ_section_title

;
Single-crystal structures of Li(+)-exchanged zeolite X (FAU, Si/Al = 1.09)
from aqueous solution depends on ion-exchange temperatures at 293 and 333 K
;
loop_
_citation_id
_citation_journal_full
_citation_year
_citation_journal_volume
_citation_page_first
_citation_page_last
_citation_journal_id_ASTM
primary 'Bulletin of the Korean Chemical Society' 2012 33 3303 3310 BKCSDE
loop_
_publ_author_name
'Kim, Hu Sik'
'Ko, Seong Oon'
'Lim, Woo Taik'
_cell_length_a 24.7128(4)
_cell_length_b 24.7128(4)
_cell_length_c 24.7128(4)
_cell_angle_alpha 90.
_cell_angle_beta 90.
_cell_angle_gamma 90.
_cell_volume 15092.66
_cell_formula_units_Z 1
_symmetry_space_group_name_H-M 'F d -3 Z'
_symmetry_Int_Tables_number 203
_refine_ls_R_factor_all 0.0735
loop_
_symmetry_equiv_pos_site_id
_symmetry_equiv_pos_as_xyz
1 '-z, x+3/4, y+3/4'
2 'z+3/4, x+3/4, -y'
3 'z+3/4, -x, y+3/4'
4 '-z, -x, -y'
5 'y+3/4, -z, x+3/4'
6 '-y, z+3/4, x+3/4'
7 'y+3/4, z+3/4, -x'
8 '-y, -z, -x'
9 'x+3/4, y+3/4, -z'
10 'x+3/4, -y, z+3/4'
11 '-x, y+3/4, z+3/4'
12 '-x, -y, -z'
13 'z, -x+1/4, -y+1/4'
14 '-z+1/4, -x+1/4, y'
15 '-z+1/4, x, -y+1/4'
16 'z, x, y'
17 '-y+1/4, z, -x+1/4'
18 'y, -z+1/4, -x+1/4'
19 '-y+1/4, -z+1/4, x'
20 'y, z, x'
21 '-x+1/4, -y+1/4, z'
22 '-x+1/4, y, -z+1/4'
23 'x, -y+1/4, -z+1/4'
24 'x, y, z'
25 '-z, x+1/4, y+1/4'
26 'z+3/4, x+1/4, -y+1/2'
27 'z+3/4, -x+1/2, y+1/4'
28 '-z, -x+1/2, -y+1/2'
29 'y+3/4, -z+1/2, x+1/4'
30 '-y, z+1/4, x+1/4'
31 'y+3/4, z+1/4, -x+1/2'
32 '-y, -z+1/2, -x+1/2'
33 'x+3/4, y+1/4, -z+1/2'
34 'x+3/4, -y+1/2, z+1/4'
35 '-x, y+1/4, z+1/4'
36 '-x, -y+1/2, -z+1/2'
37 'z, -x+3/4, -y+3/4'
38 '-z+1/4, -x+3/4, y+1/2'
39 '-z+1/4, x+1/2, -y+3/4'
40 'z, x+1/2, y+1/2'
41 '-y+1/4, z+1/2, -x+3/4'
42 'y, -z+3/4, -x+3/4'
43 '-y+1/4, -z+3/4, x+1/2'
44 'y, z+1/2, x+1/2'
45 '-x+1/4, -y+3/4, z+1/2'
46 '-x+1/4, y+1/2, -z+3/4'
47 'x, -y+3/4, -z+3/4'
48 'x, y+1/2, z+1/2'
49 '-z+1/2, x+3/4, y+1/4'
50 'z+1/4, x+3/4, -y+1/2'
51 'z+1/4, -x, y+1/4'
52 '-z+1/2, -x, -y+1/2'
53 'y+1/4, -z, x+1/4'
54 '-y+1/2, z+3/4, x+1/4'
55 'y+1/4, z+3/4, -x+1/2'
56 '-y+1/2, -z, -x+1/2'
57 'x+1/4, y+3/4, -z+1/2'
58 'x+1/4, -y, z+1/4'
59 '-x+1/2, y+3/4, z+1/4'
60 '-x+1/2, -y, -z+1/2'
61 'z+1/2, -x+1/4, -y+3/4'
62 '-z+3/4, -x+1/4, y+1/2'
63 '-z+3/4, x, -y+3/4'
64 'z+1/2, x, y+1/2'
65 '-y+3/4, z, -x+3/4'
66 'y+1/2, -z+1/4, -x+3/4'
67 '-y+3/4, -z+1/4, x+1/2'
68 'y+1/2, z, x+1/2'
69 '-x+3/4, -y+1/4, z+1/2'
70 '-x+3/4, y, -z+3/4'
71 'x+1/2, -y+1/4, -z+3/4'
72 'x+1/2, y, z+1/2'
73 '-z+1/2, x+1/4, y+3/4'
74 'z+1/4, x+1/4, -y'
75 'z+1/4, -x+1/2, y+3/4'
76 '-z+1/2, -x+1/2, -y'
77 'y+1/4, -z+1/2, x+3/4'
78 '-y+1/2, z+1/4, x+3/4'
79 'y+1/4, z+1/4, -x'
80 '-y+1/2, -z+1/2, -x'
81 'x+1/4, y+1/4, -z'
82 'x+1/4, -y+1/2, z+3/4'
83 '-x+1/2, y+1/4, z+3/4'
84 '-x+1/2, -y+1/2, -z'
85 'z+1/2, -x+3/4, -y+1/4'
86 '-z+3/4, -x+3/4, y'
87 '-z+3/4, x+1/2, -y+1/4'
88 'z+1/2, x+1/2, y'
89 '-y+3/4, z+1/2, -x+1/4'
90 'y+1/2, -z+3/4, -x+1/4'
91 '-y+3/4, -z+3/4, x'
92 'y+1/2, z+1/2, x'
93 '-x+3/4, -y+3/4, z'
94 '-x+3/4, y+1/2, -z+1/4'
95 'x+1/2, -y+3/4, -z+1/4'
96 'x+1/2, y+1/2, z'
loop_
_atom_type_symbol
_atom_type_oxidation_number
Si4+ 4
Al3+ 3
Si4+ 4
O2- -2
Li1+ 1
Na1+ 1
Li1+ 1
Na1+ 1
loop_
_atom_site_label
_atom_site_type_symbol
_atom_site_symmetry_multiplicity
_atom_site_Wyckoff_symbol
_atom_site_fract_x
_atom_site_fract_y
_atom_site_fract_z
_atom_site_B_iso_or_equiv
_atom_site_occupancy
_atom_site_attached_hydrogens
Si1 Si4+ 96 g -0.0507(1) 0.1234(1) 0.0377(1) . 1. 0
Al1 Al3+ 96 g -0.0492(1) 0.0364(1) 0.1247(1) . 0.9583 0
Si2 Si4+ 96 g -0.0492(1) 0.0364(1) 0.1247(1) . 0.0417 0
O1 O2- 96 g -0.0979(2) -0.0004(2) 0.1028(2) . 1. 0
O2 O2- 96 g -0.0001(2) 0.0014(2) 0.1525(2) . 1. 0
O3 O2- 96 g -0.0701(2) -0.0742(2) 0.0215(2) . 1. 0
O4 O2- 96 g -0.0734(2) 0.0772(2) 0.1695(2) . 1. 0
Li1 Li1+ 32 e 0.0468(5) 0.0468(5) 0.0468(5) . 1. 0
Li2 Li1+ 32 e 0.2239(5) 0.2239(5) 0.2239(5) . 0.9375 0
Na1 Na1+ 32 e 0.2471(23) 0.2471(23) 0.2471(23) 0.03 0.0625 0
Li3 Li1+ 96 g 0.382(40) 0.905(41) 0.3953(27) . 0.2604 0
Na2 Na1+ 96 g 0.1032(36) 0.1486(37) 0.3920(36) 0.03 0.0313 0
loop_
_atom_site_aniso_label
_atom_site_aniso_type_symbol
_atom_site_aniso_U_11
_atom_site_aniso_U_22
_atom_site_aniso_U_33
_atom_site_aniso_U_12
_atom_site_aniso_U_13
_atom_site_aniso_U_23
Si1 Si4+ 0.0308(12) 0.0282(12) 0.0283(12) -0.0015(8) -0.0004(8) -0.0015(8)
Al1 Al3+ 0.0210(12) 0.0196(11) 0.0194(11) -0.0003(7) -0.0008(7) -0.0016(7)
Si2 Si4+ 0.0210(12) 0.0196(11) 0.0194(11) -0.0003(7) -0.0008(7) -0.0016(7)
O1 O2- 0.0325(27) 0.0377(29) 0.0319(27) -0.0054(22) -0.0055(22) -0.0026(22)
O2 O2- 0.0248(24) 0.0264(24) 0.0322(27) 0.0030(19) -0.0010(20) -0.0001(20)
O3 O2- 0.0299(26) 0.0311(26) 0.0312(27) 0.0057(20) 0.0028(21) 0.0025(20)
O4 O2- 0.0307(27) 0.0298(26) 0.0283(26) 0.0005(20) 0.0013(20) -0.0076(21)
Li1 Li1+ 0.0280(43) 0.0280(43) 0.0280(43) 0.0100(52) 0.0100(52) 0.0100(52)
Li2 Li1+ 0.0302(46) 0.0302(46) 0.0302(46) -0.0031(58) -0.0031(58) -0.0031(58)
Li3 Li1+ 0.0278(400) 0.1147(766) 0.1286(828) 0.0128(390) 0.0281(421) 0.0383(598)
#End of TTdata_187731-ICSD