
#(C) 2019 by FIZ Karlsruhe - Leibniz Institute for Information Infrastructure.  All rights reserved.
data_187790-ICSD
_database_code_ICSD 187790
_audit_creation_date 2013-08-01
_chemical_name_systematic 'Disodium manganese pyrophosphate'
_chemical_formula_structural 'Na2 Mn (P2 O7)'
_chemical_formula_sum 'Mn1 Na2 O7 P2'
_chemical_name_structure_type Na2CoP2O7(aP48)
_exptl_crystal_density_diffrn 3.05
_publ_section_title

;
A new polymorph of Na2 Mn P2 O7 as a 3.6 V cathode material for sodium-ion
batteries
;
loop_
_citation_id
_citation_journal_full
_citation_year
_citation_journal_volume
_citation_page_first
_citation_page_last
_citation_journal_id_ASTM
primary
'Journal of Materials Chemistry A: Materials for Energy and Sustainability' 2013 1 4194 4197 JMCAET
loop_
_publ_author_name
'Prabeer Barpanda'
'Tian Ye'
'Maxim Avdeev'
'Sai-Cheong Chung'
'Atsuo Yamada'
_cell_length_a 9.922(3)
_cell_length_b 11.083(4)
_cell_length_c 12.473(2)
_cell_angle_alpha 148.39(1)
_cell_angle_beta 121.94(5)
_cell_angle_gamma 68.42(3)
_cell_volume 599.41
_cell_formula_units_Z 4
_symmetry_space_group_name_H-M 'P 1'
_symmetry_Int_Tables_number 1
_refine_ls_R_factor_all 0.0848
loop_
_symmetry_equiv_pos_site_id
_symmetry_equiv_pos_as_xyz
1 'x, y, z'
loop_
_atom_type_symbol
_atom_type_oxidation_number
Mn2+ 2
P5+ 5
Na1+ 1
O2- -2
loop_
_atom_site_label
_atom_site_type_symbol
_atom_site_symmetry_multiplicity
_atom_site_Wyckoff_symbol
_atom_site_fract_x
_atom_site_fract_y
_atom_site_fract_z
_atom_site_B_iso_or_equiv
_atom_site_occupancy
_atom_site_attached_hydrogens
Mn1 Mn2+ 1 a 0.4932 0.4294 0.1581 1. 1. 0
Mn2 Mn2+ 1 a 0.9002 0.8627 0.6438 1. 1. 0
Mn3 Mn2+ 1 a 0.4989 0.6015 0.865 1. 1. 0
Mn4 Mn2+ 1 a 0.1115 0.1906 0.4002 1. 1. 0
P1 P5+ 1 a 0.174 0.338 0.121 1. 1. 0
P2 P5+ 1 a 0.706 0.731 0.27 1. 1. 0
P3 P5+ 1 a 0.193 0.531 0.49 1. 1. 0
P4 P5+ 1 a 0.449 0.004 0.316 1. 1. 0
P5 P5+ 1 a 0.838 0.689 0.907 1. 1. 0
P6 P5+ 1 a 0.2894 0.251 0.701 1. 1. 0
P7 P5+ 1 a 0.8 0.466 0.505 1. 1. 0
P8 P5+ 1 a 0.546 -0.019 0.662 1. 1. 0
Na1 Na1+ 1 a 0.847 0.116 0.454 1. 1. 0
Na2 Na1+ 1 a 0.142 0.912 0.578 1. 1. 0
Na3 Na1+ 1 a 0.855 0.141 0.049 1. 1. 0
Na4 Na1+ 1 a 0.154 0.784 0.926 1. 1. 0
Na5 Na1+ 1 a 0.174 0.683 0.149 1. 1. 0
Na6 Na1+ 1 a 0.814 0.333 0.857 1. 1. 0
Na7 Na1+ 1 a 0.534 -0.007 -0.02 1. 1. 0
Na8 Na1+ 1 a 0.483 0.272 0.317 1. 1. 0
O1 O2- 1 a 0.265 0.441 0.345 1. 1. 0
O2 O2- 1 a 0.321 0.641 0.703 1. 1. 0
O3 O2- 1 a 0.086 0.294 0.302 1. 1. 0
O4 O2- 1 a 0.096 0.722 0.573 1. 1. 0
O5 O2- 1 a 0.3 0.195 0.016 1. 1. 0
O6 O2- 1 a 0.065 0.488 0.13 1. 1. 0
O7 O2- 1 a 0.03 0.157 -0.036 1. 1. 0
O8 O2- 1 a 0.536 0.819 0.277 1. 1. 0
O9 O2- 1 a 0.729 0.57 0.254 1. 1. 0
O10 O2- 1 a 0.854 0.953 0.502 1. 1. 0
O11 O2- 1 a 0.68 0.6 0.05 1. 1. 0
O12 O2- 1 a 0.482 0.971 0.184 1. 1. 0
O13 O2- 1 a 0.27 0.949 0.238 1. 1. 0
O14 O2- 1 a 0.542 0.262 0.56 1. 1. 0
O15 O2- 1 a 0.742 0.559 0.665 1. 1. 0
O16 O2- 1 a 0.668 0.363 0.304 1. 1. 0
O17 O2- 1 a 0.923 0.315 0.491 1. 1. 0
O18 O2- 1 a 0.884 0.67 0.624 1. 1. 0
O19 O2- 1 a 0.711 0.781 0.999 1. 1. 0
O20 O2- 1 a 0.875 0.472 0.82 1. 1. 0
O21 O2- 1 a 0.936 0.913 0.057 1. 1. 0
O22 O2- 1 a 0.456 0.149 0.681 1. 1. 0
O23 O2- 1 a 0.149 0.022 0.462 1. 1. 0
O24 O2- 1 a 0.263 0.373 0.886 1. 1. 0
O25 O2- 1 a 0.31 0.424 0.749 1. 1. 0
O26 O2- 1 a 0.725 0.057 0.759 1. 1. 0
O27 O2- 1 a 0.518 0.069 0.829 1. 1. 0
O28 O2- 1 a 0.439 0.737 0.426 1. 1. 0
#End of TTdata_187790-ICSD