
#(C) 2019 by FIZ Karlsruhe - Leibniz Institute for Information Infrastructure.  All rights reserved.
data_187782-ICSD
_database_code_ICSD 187782
_audit_creation_date 2013-08-01
_chemical_name_systematic 'Decaaqua disodium tetraoxonium decavanadate'
_chemical_formula_structural '((Na2 (H2 O)10) (H3 O)4) (V10 O28)'
_chemical_formula_sum 'H32 Na2 O42 V10'
_chemical_name_structure_type Na2V10O26(H2O)16
_chemical_name_mineral Schindlerite
_exptl_crystal_density_diffrn 2.45
_cell_measurement_temperature 298.
_publ_section_title

;
Wernerbaurite, ((Ca (H2 O)7)2 (H2 O)2 (H3 O)2) (V10 O28), and Schindlerite,
((Na2 (H2 O)10) (H3 O)4) (V10 O28), the first hydronium-bearing decavanadate
minerals
;
loop_
_citation_id
_citation_journal_full
_citation_year
_citation_journal_volume
_citation_page_first
_citation_page_last
_citation_journal_id_ASTM
primary 'Canadian Mineralogist' 2013 51 297 312 CAMIA6
loop_
_publ_author_name
'Kampf, A.R.'
Hughes,J.M.
'Marty, J.'
'Nash, B.'
_cell_length_a 8.5143(3)
_cell_length_b 10.4283(5)
_cell_length_c 11.2827(8)
_cell_angle_alpha 68.595(5)
_cell_angle_beta 87.253(6)
_cell_angle_gamma 67.112(5)
_cell_volume 854.08
_cell_formula_units_Z 1
_symmetry_space_group_name_H-M 'P -1'
_symmetry_Int_Tables_number 2
_refine_ls_R_factor_all 0.0399
loop_
_symmetry_equiv_pos_site_id
_symmetry_equiv_pos_as_xyz
1 '-x, -y, -z'
2 'x, y, z'
loop_
_atom_type_symbol
_atom_type_oxidation_number
V5+ 5
Na1+ 1
O2- -2
H1+ 1
O2- -2
H1+ 1
O2- -2
H1+ 1
O2- -2
H1+ 1
O2- -2
H1+ 1
O2- -2
H1+ 1
O2- -2
H1+ 1
loop_
_atom_site_label
_atom_site_type_symbol
_atom_site_symmetry_multiplicity
_atom_site_Wyckoff_symbol
_atom_site_fract_x
_atom_site_fract_y
_atom_site_fract_z
_atom_site_B_iso_or_equiv
_atom_site_occupancy
_atom_site_attached_hydrogens
V1 V5+ 2 i 0.37680(7) 0.78287(6) 0.49749(5) 0.02084(15) 1. 0
V2 V5+ 2 i 0.69006(6) 0.50277(6) 0.48023(5) 0.01792(15) 1. 0
V3 V5+ 2 i 0.17151(7) 0.78389(6) 0.27788(5) 0.02334(16) 1. 0
V4 V5+ 2 i 0.52664(7) 0.49551(6) 0.73981(5) 0.02051(15) 1. 0
V5 V5+ 2 i 0.52942(7) 0.79132(6) 0.23773(5) 0.02263(16) 1. 0
Na1 Na1+ 2 i 0.93135(17) 0.66757(15) 0.87252(13) 0.0347(3) 1. 0
O1 O2- 2 i 0.4327(2) 0.6243(2) 0.39448(18) 0.0187(5) 1. 0
O2 O2- 2 i 0.6031(3) 0.6202(2) 0.58407(19) 0.0202(5) 1. 0
O3 O2- 2 i 0.3162(3) 0.6153(2) 0.61469(19) 0.0205(5) 1. 0
O4 O2- 2 i 0.4829(3) 0.8691(2) 0.3673(2) 0.0227(5) 1. 0
O5 O2- 2 i 0.7387(3) 0.6331(2) 0.3597(2) 0.0224(5) 1. 0
O6 O2- 2 i 0.1704(3) 0.8642(2) 0.4016(2) 0.0245(5) 1. 0
O7 O2- 2 i 0.2983(3) 0.8805(2) 0.1776(2) 0.0247(5) 1. 0
O8 O2- 2 i 0.4388(3) 0.3586(2) 0.82799(19) 0.0230(5) 1. 0
O9 O2- 2 i 0.8743(3) 0.3789(2) 0.5742(2) 0.0226(5) 1. 0
O10 O2- 2 i 0.7492(3) 0.3655(2) 0.79312(19) 0.0232(5) 1. 0
O11 O2- 2 i 0.6103(3) 0.8963(3) 0.1390(2) 0.0324(6) 1. 0
O12 O2- 2 i 0.3420(3) 0.8821(3) 0.5846(2) 0.0293(5) 1. 0
O13 O2- 2 i 0.9783(3) 0.8818(3) 0.2096(2) 0.0329(6) 1. 0
O14 O2- 2 i 0.4922(3) 0.5973(3) 0.8251(2) 0.0288(5) 1. 0
O15 O2- 2 i 0.9785(4) 0.5105(4) 0.7591(3) 0.0512(8) 1. 0
H1 H1+ 2 i 0.069(3) 0.467(4) 0.724(4) 0.061 1. 0
H2 H1+ 2 i 0.908(4) 0.462(4) 0.765(4) 0.061 1. 0
O16 O2- 2 i 0.0302(4) 0.8184(3) 0.7038(3) 0.0509(8) 1. 0
H3 H1+ 2 i 0.988(5) 0.916(2) 0.661(4) 0.061 1. 0
H4 H1+ 2 i 0.128(3) 0.772(4) 0.679(4) 0.061 1. 0
O17 O2- 2 i 0.2084(3) 0.4852(3) 0.9867(2) 0.0369(6) 1. 0
H5 H1+ 2 i 0.279(4) 0.480(4) 0.047(3) 0.044 1. 0
H6 H1+ 2 i 0.282(4) 0.441(4) 0.939(3) 0.044 1. 0
O18 O2- 2 i 0.6565(4) 0.8178(3) 0.7518(3) 0.0489(7) 1. 0
H7 H1+ 2 i 0.589(5) 0.786(4) 0.724(4) 0.059 1. 0
H8 H1+ 2 i 0.624(5) 0.915(2) 0.712(4) 0.059 1. 0
O19 O2- 2 i 0.9309(4) 0.8282(3) 0.9737(2) 0.0445(7) 1. 0
H9 H1+ 2 i 0.927(5) 0.801(4) 0.0549(17) 0.053 1. 0
H10 H1+ 2 i 0.856(4) 0.921(3) 0.930(3) 0.053 1. 0
O20 O2- 2 i 0.888208(3) 0.7906(2) 0.5098(2) 0.0208(5) 1. 0
H11 H1+ 2 i 0.767(3) 0.8864(18) 0.467(3) 0.025 1. 0
H12 H1+ 2 i 0.783(4) 0.736(3) 0.500(3) 0.025 1. 0
H13 H1+ 2 i 0.905(3) 0.771(3) 0.558(3) 0.025 1. 0
O21 O2- 2 i 0.2842(4) 0.8239(4) 0.9296(3) 0.0594(9) 1. 0
H14 H1+ 2 i 0.330(4) 0.780(5) 0.014(2) 0.071 1. 0
H15 H1+ 2 i 0.352(4) 0.760(4) 0.892(3) 0.071 1. 0
H16 H1+ 2 i 0.178(3) 0.824(5) 0.928(4) 0.071 1. 0
#End of TTdata_187782-ICSD