
#(C) 2018 by FIZ Karlsruhe - Leibniz Institute for Information Infrastructure.  All rights reserved.
data_187706-ICSD
_database_code_ICSD 187706
_audit_creation_date 2013-08-01
_chemical_name_systematic 'Trilithium dibarium triyttrium octamolybdate'
_chemical_formula_structural 'Li3 Ba2 Y3 (Mo O4)8'
_chemical_formula_sum 'Ba2 Li3 Mo8 O32 Y3'
_chemical_name_structure_type Li3Ba2Tm3(MoO4)8
_exptl_crystal_density_diffrn 4.85
_cell_measurement_temperature 293.
_publ_section_title

;
Structure, thermal and spectroscopic properties of Tm(3+)-doped Li3 Ba2 Y3 (Mo
O4)8 crystal as a promising candidate for 2 mum lasers
;
loop_
_citation_id
_citation_journal_full
_citation_year
_citation_journal_volume
_citation_page_first
_citation_page_last
_citation_journal_id_ASTM
primary CrystEngComm 2013 15 168 174 CRECF4
loop_
_publ_author_name
'Song, Mingjun'
'Zhou, Weiwei'
'Wu, Mingyan'
'Wang, Guofu'
_cell_length_a 5.2052(6)
_cell_length_b 12.6763(17)
_cell_length_c 19.107(3)
_cell_angle_alpha 90.
_cell_angle_beta 91.293(12)
_cell_angle_gamma 90.
_cell_volume 1260.41
_cell_formula_units_Z 2
_symmetry_space_group_name_H-M 'C 1 2/c 1'
_symmetry_Int_Tables_number 15
_refine_ls_R_factor_all 0.0425
loop_
_symmetry_equiv_pos_site_id
_symmetry_equiv_pos_as_xyz
1 'x, -y, z+1/2'
2 '-x, -y, -z'
3 '-x, y, -z+1/2'
4 'x, y, z'
5 'x+1/2, -y+1/2, z+1/2'
6 '-x+1/2, -y+1/2, -z'
7 '-x+1/2, y+1/2, -z+1/2'
8 'x+1/2, y+1/2, z'
loop_
_atom_type_symbol
_atom_type_oxidation_number
Y3+ 3
Li1+ 1
Ba2+ 2
Mo6+ 6
O2- -2
loop_
_atom_site_label
_atom_site_type_symbol
_atom_site_symmetry_multiplicity
_atom_site_Wyckoff_symbol
_atom_site_fract_x
_atom_site_fract_y
_atom_site_fract_z
_atom_site_B_iso_or_equiv
_atom_site_occupancy
_atom_site_attached_hydrogens
Y1 Y3+ 8 f 1.00230(17) 0.14745(7) -0.03159(5) 0.0039(3) 0.75 0
Li1 Li1+ 8 f 1.00230(17) 0.14745(7) -0.03159(5) 0.0039(3) 0.25 0
Li2 Li1+ 4 e 0.5 0.185(3) 0.25 0.051(9) 1 0
Ba1 Ba2+ 4 e 0.5 0.47047(5) 0.25 0.0087(3) 1 0
Mo1 Mo6+ 8 f 0.99949(12) 0.26079(5) 0.14950(4) 0.0050(3) 1 0
Mo2 Mo6+ 8 f 0.51029(12) 0.05952(5) 0.09194(4) 0.0052(3) 1 0
O1 O2- 8 f 1.2279(11) 0.3016(5) 0.2129(3) 0.0122(13) 1 0
O2 O2- 8 f 0.8585(11) 0.1457(5) 0.1793(3) 0.0112(13) 1 0
O3 O2- 8 f 0.7470(11) 0.3528(4) 0.1356(3) 0.0094(12) 1 0
O4 O2- 8 f 1.1682(11) 0.2402(5) 0.0688(3) 0.0092(12) 1 0
O5 O2- 8 f 0.3772(11) 0.0853(5) 0.1730(3) 0.0135(13) 1 0
O6 O2- 8 f 0.6580(11) 0.1687(5) 0.0464(3) 0.0102(12) 1 0
O7 O2- 8 f 0.2473(12) 0.0179(5) 0.0364(3) 0.0112(13) 1 0
O8 O2- 8 f 0.7335(11) -0.0443(5) 0.1049(3) 0.0102(13) 1 0
loop_
_atom_site_aniso_label
_atom_site_aniso_type_symbol
_atom_site_aniso_U_11
_atom_site_aniso_U_22
_atom_site_aniso_U_33
_atom_site_aniso_U_12
_atom_site_aniso_U_13
_atom_site_aniso_U_23
Y1 Y3+ 0.0064(5) 0.0023(6) 0.0030(6) -0.0001(4) 0.0018(4) 0.0000(4)
Li1 Li1+ 0.0064(5) 0.0023(6) 0.0030(6) -0.0001(4) 0.0018(4) 0.0000(4)
Li2 Li1+ 0.07(2) 0.034(17) 0.04(2) 0. -0.024(18) 0.
Ba1 Ba2+ 0.0126(4) 0.0033(4) 0.0103(5) 0. 0.0014(3) 0.
Mo1 Mo6+ 0.0068(4) 0.0040(4) 0.0043(5) 0.0002(2) 0.0019(3) 0.0005(2)
Mo2 Mo6+ 0.0067(4) 0.0048(4) 0.0042(5) 0.0000(2) 0.0018(3) 0.0012(2)
O1 O2- 0.016(3) 0.007(3) 0.013(3) -0.006(2) 0.001(2) 0.000(2)
O2 O2- 0.015(3) 0.013(3) 0.006(3) -0.002(2) 0.000(2) 0.006(2)
O3 O2- 0.013(3) 0.004(3) 0.012(3) 0.001(2) 0.005(2) -0.001(2)
O4 O2- 0.013(3) 0.011(3) 0.005(3) -0.002(2) 0.004(2) -0.002(2)
O5 O2- 0.010(3) 0.018(3) 0.013(3) -0.003(2) 0.006(2) -0.001(3)
O6 O2- 0.013(3) 0.009(3) 0.008(3) 0.000(2) 0.002(2) 0.000(2)
O7 O2- 0.014(3) 0.008(3) 0.012(3) -0.001(2) 0.005(2) 0.000(2)
O8 O2- 0.011(3) 0.007(3) 0.013(3) 0.002(2) 0.003(2) -0.001(2)
#End of TTdata_187706-ICSD