
#(C) 2019 by FIZ Karlsruhe - Leibniz Institute for Information Infrastructure.  All rights reserved.
data_188087-ICSD
_database_code_ICSD 188087
_audit_creation_date 2014-02-01
_chemical_name_systematic 'Sodium trialuminium diphosphate tetrahydroxide'
_chemical_formula_structural 'Na Al3 (P O4)2 (O H)4'
_chemical_formula_sum 'H4 Al3 Na1 O12 P2'
_chemical_name_structure_type NaAl3(PO4)2(OH)4
_chemical_name_mineral Brazilianite
_exptl_crystal_density_diffrn 2.99
_cell_measurement_temperature 293.
_publ_section_title

;
Neutron diffraction in gemology: Single-crystal diffraction study of
brazilianite, Na Al3 (P O4)2 (O H)4
;
loop_
_citation_id
_citation_journal_full
_citation_year
_citation_journal_volume
_citation_page_first
_citation_page_last
_citation_journal_id_ASTM
primary 'American Mineralogist' 2013 98 1624 1630 AMMIAY
loop_
_publ_author_name
'Diego Gatta, G.'
'Vignola, P.'
'Meven, M.'
'Rinaldi, R.'
_cell_length_a 11.2448(5)
_cell_length_b 10.1539(6)
_cell_length_c 7.1031(3)
_cell_angle_alpha 90.
_cell_angle_beta 97.351(4)
_cell_angle_gamma 90.
_cell_volume 804.36
_cell_formula_units_Z 4
_symmetry_space_group_name_H-M 'P 1 21/n 1'
_symmetry_Int_Tables_number 14
_refine_ls_R_factor_all 0.0325
loop_
_symmetry_equiv_pos_site_id
_symmetry_equiv_pos_as_xyz
1 '-x+1/2, y+1/2, -z+1/2'
2 '-x, -y, -z'
3 'x+1/2, -y+1/2, z+1/2'
4 'x, y, z'
loop_
_atom_type_symbol
_atom_type_oxidation_number
Na1+ 1
Al3+ 3
P5+ 5
O2- -2
H1+ 1
loop_
_atom_site_label
_atom_site_type_symbol
_atom_site_symmetry_multiplicity
_atom_site_Wyckoff_symbol
_atom_site_fract_x
_atom_site_fract_y
_atom_site_fract_z
_atom_site_B_iso_or_equiv
_atom_site_occupancy
_atom_site_attached_hydrogens
Na1 Na1+ 4 e 0.30332(7) 0.07508(6) 0.03476(9) 0.02390(16) 1 0
Al1 Al3+ 4 e 0.04325(4) 0.22069(4) 0.56161(5) 0.00580(9) 1 0
Al2 Al3+ 4 e 0.26290(3) 0.06750(4) 0.50805(5) 0.00569(9) 1 0
Al3 Al3+ 4 e 0.45940(4) 0.25420(4) 0.43268(5) 0.00545(9) 1 0
P1 P5+ 4 e 0.18049(3) 0.31231(4) 0.23748(4) 0.00506(7) 1 0
P2 P5+ 4 e 0.31236(3) 0.32791(4) 0.75393(4) 0.00478(7) 1 0
O1 O2- 4 e 0.10330(8) 0.07984(9) 0.44944(12) 0.00670(19) 1 0
O2 O2- 4 e 0.42379(8) 0.10107(9) 0.56258(12) 0.0073(2) 1 0
O3 O2- 4 e 0.00300(8) 0.34973(9) 0.72421(12) 0.00724(19) 1 0
O4 O2- 4 e 0.49748(8) 0.38585(9) 0.26989(12) 0.0074(2) 1 0
O5 O2- 4 e 0.11484(8) 0.23907(10) 0.06731(13) 0.0088(2) 1 0
O6 O2- 4 e 0.28766(8) 0.22135(9) 0.31813(12) 0.0071(2) 1 0
O7 O2- 4 e 0.22619(8) 0.21329(9) 0.68151(12) 0.00693(19) 1 0
O8 O2- 4 e 0.38755(8) 0.28025(10) 0.93465(12) 0.0080(2) 1 0
O9 O2- 4 e 0.09990(8) 0.34050(9) 0.39257(12) 0.0077(2) 1 0
O10 O2- 4 e 0.39145(8) 0.36733(10) 0.60223(12) 0.0077(2) 1 0
O11 O2- 4 e 0.22579(8) 0.44660(9) 0.18273(12) 0.0088(2) 1 0
O12 O2- 4 e 0.23569(8) 0.44836(9) 0.79031(12) 0.0075(2) 1 0
H1 H1+ 4 e 0.0656 0.0133 0.3628 0.058(7) 1 0
H2 H1+ 4 e 0.4638 0.1018 0.694 0.047(12) 0.5 0
H3 H1+ 4 e 0.0706 0.4079 0.7572 0.052(6) 1 0
H4 H1+ 4 e 0.0486 0.0455 0.8297 0.078(8) 1 0
H5 H1+ 4 e 0.4766 0.0298 0.5344 0.068(15) 0.5 0
loop_
_atom_site_aniso_label
_atom_site_aniso_type_symbol
_atom_site_aniso_U_11
_atom_site_aniso_U_22
_atom_site_aniso_U_33
_atom_site_aniso_U_12
_atom_site_aniso_U_13
_atom_site_aniso_U_23
Na1 Na1+ 0.0403(4) 0.0155(4) 0.0166(3) -0.0053(3) 0.0065(3) 0.0006(3)
Al1 Al3+ 0.00634(19) 0.0066(2) 0.00464(16) 0.00015(16) 0.00146(14) -0.00028(16)
Al2 Al3+ 0.00522(19) 0.0058(2) 0.00615(16) 0.00004(15) 0.00105(14) -0.00047(16)
Al3 Al3+ 0.00583(19) 0.0061(2) 0.00468(16) 0.00007(16) 0.00151(14) 0.00055(16)
P1 P5+ 0.00493(15) 0.00573(19) 0.00450(13) 0.00020(13) 0.00055(12) 0.00071(13)
P2 P5+ 0.00500(15) 0.00500(19) 0.00437(13) -0.00041(13) 0.00070(11) -0.00053(13)
O1 O2- 0.0059(4) 0.0067(5) 0.0074(4) -0.0003(4) 0.0003(3) -0.0020(4)
O2 O2- 0.0068(4) 0.0078(5) 0.0073(4) -0.0006(4) 0.0004(3) 0.0003(4)
O3 O2- 0.0082(4) 0.0069(5) 0.0070(4) -0.0012(4) 0.0023(3) -0.0014(4)
O4 O2- 0.0090(4) 0.0072(5) 0.0059(4) -0.0004(4) 0.0012(3) 0.0004(4)
O5 O2- 0.0073(5) 0.0106(5) 0.0079(4) -0.0001(4) -0.0009(3) -0.0018(4)
O6 O2- 0.0068(4) 0.0075(5) 0.0070(4) 0.0001(4) 0.0007(3) 0.0007(4)
O7 O2- 0.0075(4) 0.0064(5) 0.0069(4) -0.0010(4) 0.0013(3) -0.0017(4)
O8 O2- 0.0067(4) 0.0107(5) 0.0064(4) 0.0000(4) -0.0002(3) 0.0013(4)
O9 O2- 0.0081(4) 0.0077(5) 0.0080(4) 0.0011(4) 0.0037(3) 0.0007(4)
O10 O2- 0.0092(5) 0.0075(5) 0.0071(4) -0.0016(4) 0.0037(3) -0.0005(4)
O11 O2- 0.0105(5) 0.0080(5) 0.0080(4) -0.0012(4) 0.0017(3) 0.0014(4)
O12 O2- 0.0071(4) 0.0072(5) 0.0081(4) 0.0010(4) 0.0003(3) -0.0007(4)
#End of TTdata_188087-ICSD