
#(C) 2019 by FIZ Karlsruhe - Leibniz Institute for Information Infrastructure.  All rights reserved.
data_188580-ICSD
_database_code_ICSD 188580
_audit_creation_date 2014-02-01
_chemical_name_systematic 'Cadmium sodium dirhodate (0.77/0.23/1)'
_chemical_formula_structural '(Cd0.77 Na0.23) (Rh2 O4)'
_chemical_formula_sum 'Cd0.77 Na0.23 O4 Rh2'
_chemical_name_structure_type CaV2O4
_exptl_crystal_density_diffrn 7.99
_publ_section_title
'Metal-insulator transition in Na-doped post-spinel Cd Rh2 O4'
loop_
_citation_id
_citation_journal_full
_citation_year
_citation_journal_volume
_citation_page_first
_citation_page_last
_citation_journal_id_ASTM
primary 'Journal of Alloys and Compounds' 2013 563 119 123 JALCEU
loop_
_publ_author_name
'Wang, Xia'
'Guo, Yanfeng'
'Sun, Ying'
'Yamaura, Kazunari'
_cell_length_a 9.0832(1)
_cell_length_b 3.04669(4)
_cell_length_c 10.7589(1)
_cell_angle_alpha 90.
_cell_angle_beta 90.
_cell_angle_gamma 90.
_cell_volume 297.74
_cell_formula_units_Z 4
_symmetry_space_group_name_H-M 'P n m a'
_symmetry_Int_Tables_number 62
_refine_ls_R_factor_all 0.0128
loop_
_symmetry_equiv_pos_site_id
_symmetry_equiv_pos_as_xyz
1 'x+1/2, y, -z+1/2'
2 'x, -y+1/2, z'
3 '-x+1/2, y+1/2, z+1/2'
4 '-x, -y, -z'
5 '-x+1/2, -y, z+1/2'
6 '-x, y+1/2, -z'
7 'x+1/2, -y+1/2, -z+1/2'
8 'x, y, z'
loop_
_atom_type_symbol
_atom_type_oxidation_number
Cd2+ 2
Na1+ 1
Rh3+ 3.12
O2- -2
loop_
_atom_site_label
_atom_site_type_symbol
_atom_site_symmetry_multiplicity
_atom_site_Wyckoff_symbol
_atom_site_fract_x
_atom_site_fract_y
_atom_site_fract_z
_atom_site_B_iso_or_equiv
_atom_site_occupancy
_atom_site_attached_hydrogens
Cd1 Cd2+ 4 c 0.7638(1) 0.25 0.6611(1) 0.63(4) 0.769(3) 0
Na1 Na1+ 4 c 0.7638(1) 0.25 0.6611(1) 0.63(4) 0.231(3) 0
Rh1 Rh3+ 4 c 0.4091(1) 0.25 0.09939(9) 0.27(3) 1. 0
Rh2 Rh3+ 4 c 0.4461(1) 0.25 0.61665(9) 0.427(30) 1. 0
O1 O2- 4 c 0.1928(8) 0.25 0.1690(7) 0.1 1. 0
O2 O2- 4 c 0.1189(8) 0.25 0.4698(7) 0.1 1. 0
O3 O2- 4 c 0.5408(9) 0.25 0.7880(7) 0.1 1. 0
O4 O2- 4 c 0.4093(8) 0.25 0.4335(6) 0.1 1. 0
#End of TTdata_188580-ICSD