
#(C) 2019 by FIZ Karlsruhe - Leibniz Institute for Information Infrastructure.  All rights reserved.
data_188675-ICSD
_database_code_ICSD 188675
_audit_creation_date 2014-02-01
_chemical_name_systematic 'Sodium potassium molybdenum sulfide (2.9/1/12/14)'
_chemical_formula_structural 'Na2.9 K Mo12 S14'
_chemical_formula_sum 'K1 Mo12 Na2.9 S14'
_exptl_crystal_density_diffrn 4.58
_cell_measurement_temperature 100.
_publ_section_title

;
Na2.9 K Mo12 S14: a novel quaternary reduced molybdenum sulfide containing
Mo12 clusters with a channel structure
;
loop_
_citation_id
_citation_journal_full
_citation_year
_citation_journal_volume
_citation_page_first
_citation_page_last
_citation_journal_id_ASTM
primary 'Acta Crystallographica, Section E: Structure Reports Online' 2013 69
i38 i38 ACSEBH
loop_
_publ_author_name
'Patrick Gougeon'
'Philippe Gall'
'Diala Salloum'
_cell_length_a 9.36640(10)
_cell_length_b 9.36640(10)
_cell_length_c 16.2981(2)
_cell_angle_alpha 90.
_cell_angle_beta 90.
_cell_angle_gamma 120.
_cell_volume 1238.26
_cell_formula_units_Z 2
_symmetry_space_group_name_H-M 'P -3 1 c'
_symmetry_Int_Tables_number 163
_refine_ls_R_factor_all 0.0273
loop_
_symmetry_equiv_pos_site_id
_symmetry_equiv_pos_as_xyz
1 '-x+y, y, -z+1/2'
2 'x, x-y, -z+1/2'
3 '-y, -x, -z+1/2'
4 'x-y, x, -z'
5 'y, -x+y, -z'
6 '-x, -y, -z'
7 'x-y, -y, z+1/2'
8 '-x, -x+y, z+1/2'
9 'y, x, z+1/2'
10 '-x+y, -x, z'
11 '-y, x-y, z'
12 'x, y, z'
loop_
_atom_type_symbol
_atom_type_oxidation_number
Mo2+ 2
S2- -2
K1+ 1
Na1+ 1
loop_
_atom_site_label
_atom_site_type_symbol
_atom_site_symmetry_multiplicity
_atom_site_Wyckoff_symbol
_atom_site_fract_x
_atom_site_fract_y
_atom_site_fract_z
_atom_site_B_iso_or_equiv
_atom_site_occupancy
_atom_site_attached_hydrogens
Mo1 Mo2+ 12 i 0.50983(3) 0.16646(3) 0.043656(15) 0.00973(6) 1 0
Mo2 Mo2+ 12 i 0.66853(3) 0.16929(3) 0.183610(15) 0.00826(5) 1 0
S1 S2- 12 i 0.68780(10) 0.04088(9) 0.05564(4) 0.01069(11) 1 0
S2 S2- 12 i 0.36482(9) 0.02520(9) 0.17966(4) 0.01064(11) 1 0
S3 S2- 4 f 0.6667 0.3333 -0.06924(8) 0.0129(2) 1 0
K1 K1+ 2 c 0.6667 0.3333 -0.25 0.0195(3) 1 0
Na1 Na1+ 4 e 0. 0. 0.1936(13) 0.36(4) 0.71(5) 0
Na2 Na1+ 4 e 0. 0. 0.099(3) 0.40(4) 0.74(4) 0
loop_
_atom_site_aniso_label
_atom_site_aniso_type_symbol
_atom_site_aniso_U_11
_atom_site_aniso_U_22
_atom_site_aniso_U_33
_atom_site_aniso_U_12
_atom_site_aniso_U_13
_atom_site_aniso_U_23
Mo1 Mo2+ 0.01224(10) 0.01354(11) 0.00434(9) 0.00714(8) -0.00045(7) 0.00041(7)
Mo2 Mo2+ 0.01081(9) 0.01033(10) 0.00371(9) 0.00535(8) -0.00034(6) -0.00060(7)
S1 S2- 0.0143(3) 0.0125(3) 0.0063(2) 0.0074(2) -0.0003(2) -0.00134(19)
S2 S2- 0.0121(2) 0.0118(2) 0.0064(2) 0.0047(2) -0.0014(2) -0.0007(2)
S3 S2- 0.0172(3) 0.0172(3) 0.0044(4) 0.00859(16) 0. 0.
K1 K1+ 0.0264(5) 0.0264(5) 0.0058(6) 0.0132(3) 0. 0.
Na1 Na1+ 0.47(6) 0.47(6) 0.12(2) 0.24(3) 0. 0.
Na2 Na1+ 0.045(4) 0.045(4) 1.12(12) 0.023(2) 0. 0.
#End of TTdata_188675-ICSD