
#(C) 2018 by FIZ Karlsruhe - Leibniz Institute for Information Infrastructure.  All rights reserved.
data_188663-ICSD
_database_code_ICSD 188663
_audit_creation_date 2014-02-01
_chemical_name_systematic 'Dilithium hexahydroxostannate(IV) dihydrate'
_chemical_formula_structural 'Li2 (Sn (O H)6) (H2 O)2'
_chemical_formula_sum 'H10 Li2 O8 Sn1'
_exptl_crystal_density_diffrn 2.66
_cell_measurement_temperature 100.
_publ_section_title

;
Dilithium hexahydroxidostannate(IV) dihydrate, a second monoclinic
modification with a layer structure
;
loop_
_citation_id
_citation_journal_full
_citation_year
_citation_journal_volume
_citation_page_first
_citation_page_last
_citation_journal_id_ASTM
primary 'Acta Crystallographica, Section E: Structure Reports Online' 2013 69
i25 i25 ACSEBH
loop_
_publ_author_name
'Shouassi Kamaha'
'Hans Reuter'
_cell_length_a 6.1028(2)
_cell_length_b 10.4708(3)
_cell_length_c 6.0003(2)
_cell_angle_alpha 90.
_cell_angle_beta 118.2490(10)
_cell_angle_gamma 90.
_cell_volume 337.76
_cell_formula_units_Z 2
_symmetry_space_group_name_H-M 'P 1 21/c 1'
_symmetry_Int_Tables_number 14
_refine_ls_R_factor_all 0.013
loop_
_symmetry_equiv_pos_site_id
_symmetry_equiv_pos_as_xyz
1 'x, -y+1/2, z+1/2'
2 '-x, -y, -z'
3 '-x, y+1/2, -z+1/2'
4 'x, y, z'
loop_
_atom_type_symbol
_atom_type_oxidation_number
Sn4+ 4
O2- -2
H1+ 1
O2- -2
H1+ 1
O2- -2
H1+ 1
Li1+ 1
O2- -2
H1+ 1
loop_
_atom_site_label
_atom_site_type_symbol
_atom_site_symmetry_multiplicity
_atom_site_Wyckoff_symbol
_atom_site_fract_x
_atom_site_fract_y
_atom_site_fract_z
_atom_site_B_iso_or_equiv
_atom_site_occupancy
_atom_site_attached_hydrogens
Sn1 Sn4+ 2 b 0.5 0.5 0.5 0.00669(7) 1 0
O1 O2- 4 e 0.5924(2) 0.61350(11) 0.2773(2) 0.0092(2) 1 0
H1 H1+ 4 e 0.4344 0.6208 0.1278 0.045(4) 1 0
O2 O2- 4 e 0.2930(2) 0.38228(11) 0.1944(2) 0.0092(2) 1 0
H2 H1+ 4 e 0.3438 0.2947 0.2061 0.045(4) 1 0
O3 O2- 4 e 0.1780(2) 0.60408(11) 0.3926(2) 0.0088(2) 1 0
H3 H1+ 4 e 0.1965 0.693 0.3659 0.045(4) 1 0
Li1 Li1+ 4 e 0.8284(5) 0.5657(3) 0.1561(6) 0.0123(5) 1 0
O4 O2- 4 e 0.8497(2) 0.37229(11) 0.1795(2) 0.0101(2) 1 0
H4 H1+ 4 e 0.8643 0.3771 0.3458 0.045(4) 1 0
H5 H1+ 4 e 1.0175 0.3651 0.2071 0.045(4) 1 0
loop_
_atom_site_aniso_label
_atom_site_aniso_type_symbol
_atom_site_aniso_U_11
_atom_site_aniso_U_22
_atom_site_aniso_U_33
_atom_site_aniso_U_12
_atom_site_aniso_U_13
_atom_site_aniso_U_23
Sn1 Sn4+ 0.00660(8) 0.00674(9) 0.00670(9) 0.00001(4) 0.00314(6) 0.00009(5)
O1 O2- 0.0091(5) 0.0103(5) 0.0081(5) -0.0009(4) 0.0039(4) 0.0007(4)
O2 O2- 0.0096(5) 0.0088(5) 0.0084(5) 0.0005(4) 0.0035(4) -0.0003(4)
O3 O2- 0.0085(5) 0.0075(5) 0.0107(5) 0.0006(4) 0.0047(4) 0.0006(4)
Li1 Li1+ 0.0136(12) 0.0121(13) 0.0117(13) -0.0001(10) 0.0063(11) -0.0006(10)
O4 O2- 0.0094(5) 0.0116(5) 0.0096(5) -0.0002(4) 0.0048(4) -0.0004(4)
#End of TTdata_188663-ICSD