
#(C) 2019 by FIZ Karlsruhe - Leibniz Institute for Information Infrastructure.  All rights reserved.
data_188690-ICSD
_database_code_ICSD 188690
_audit_creation_date 2014-02-01
_chemical_name_systematic 'Heptasodium trialuminium tetrakis(diarsenate)'
_chemical_formula_structural 'Na7 Al3 (As2 O7)4'
_chemical_formula_sum 'Al3 As8 Na7 O28'
_exptl_crystal_density_diffrn 3.61
_cell_measurement_temperature 298.
_publ_section_title 'Na7 Al3 (As2 O7)4'
loop_
_citation_id
_citation_journal_full
_citation_year
_citation_journal_volume
_citation_page_first
_citation_page_last
_citation_journal_id_ASTM
primary 'Acta Crystallographica, Section E: Structure Reports Online' 2013 69
i53 i53 ACSEBH
loop_
_publ_author_name
'Noura Fakhar Bourguiba'
'Ahmed Driss'
_cell_length_a 9.8000(10)
_cell_length_b 8.4680(10)
_cell_length_c 28.637(2)
_cell_angle_alpha 90.
_cell_angle_beta 94.140(10)
_cell_angle_gamma 90.
_cell_volume 2370.28
_cell_formula_units_Z 4
_symmetry_space_group_name_H-M 'C 1 2/c 1'
_symmetry_Int_Tables_number 15
_refine_ls_R_factor_all 0.0336
loop_
_symmetry_equiv_pos_site_id
_symmetry_equiv_pos_as_xyz
1 'x, -y, z+1/2'
2 '-x, -y, -z'
3 '-x, y, -z+1/2'
4 'x, y, z'
5 'x+1/2, -y+1/2, z+1/2'
6 '-x+1/2, -y+1/2, -z'
7 '-x+1/2, y+1/2, -z+1/2'
8 'x+1/2, y+1/2, z'
loop_
_atom_type_symbol
_atom_type_oxidation_number
Al3+ 3
As5+ 5
O2- -2
Na1+ 1
loop_
_atom_site_label
_atom_site_type_symbol
_atom_site_symmetry_multiplicity
_atom_site_Wyckoff_symbol
_atom_site_fract_x
_atom_site_fract_y
_atom_site_fract_z
_atom_site_B_iso_or_equiv
_atom_site_occupancy
_atom_site_attached_hydrogens
Al1 Al3+ 4 e 0. 0.1057(3) 0.25 0.0082(4) 1 0
Al2 Al3+ 8 f 0.31736(15) -0.02622(18) 0.43636(5) 0.0069(3) 1 0
As1 As5+ 8 f 0.30056(5) 0.28137(6) 0.246216(18) 0.00898(15) 1 0
As2 As5+ 8 f 0.21753(5) 0.15080(6) 0.338657(18) 0.00927(15) 1 0
As3 As5+ 8 f 0.58680(5) 0.20071(6) 0.464306(18) 0.00733(14) 1 0
As4 As5+ 8 f 0.48861(5) 0.34009(6) 0.557696(18) 0.00774(14) 1 0
O1 O2- 8 f 0.3645(4) 0.4537(5) 0.26651(14) 0.0149(8) 1 0
O2 O2- 8 f 0.3734(4) 0.2071(5) 0.20087(13) 0.0149(8) 1 0
O3 O2- 8 f 0.1281(4) 0.2823(5) 0.23865(14) 0.0148(8) 1 0
O4 O2- 8 f 0.3327(4) 0.1491(4) 0.29386(13) 0.0119(8) 1 0
O5 O2- 8 f 0.4404(4) 0.1537(5) 0.43395(15) 0.0170(9) 1 0
O6 O2- 8 f 0.6943(4) 0.2857(5) 0.42888(14) 0.0145(8) 1 0
O7 O2- 8 f 0.6569(4) 0.0529(4) 0.49622(13) 0.0120(8) 1 0
O8 O2- 8 f 0.5686(4) 0.4760(5) 0.59037(13) 0.0148(8) 1 0
O9 O2- 8 f 0.3192(4) 0.3690(5) 0.54893(14) 0.0142(8) 1 0
O10 O2- 8 f 0.5262(4) 0.1554(4) 0.57538(14) 0.0133(8) 1 0
O11 O2- 8 f 0.5459(4) 0.3542(4) 0.50101(13) 0.0139(8) 1 0
O12 O2- 8 f 0.0599(4) 0.1063(5) 0.31482(14) 0.0162(8) 1 0
O13 O2- 8 f 0.2283(5) 0.3289(5) 0.36098(15) 0.0210(9) 1 0
O14 O2- 8 f 0.2752(4) -0.0052(5) 0.37014(13) 0.0162(8) 1 0
Na1 Na1+ 8 f -0.2221(3) -0.1225(3) 0.44633(9) 0.0249(6) 1 0
Na2 Na1+ 8 f 0.5268(10) -0.0466(12) 0.3075(4) 0.017(2) 0.24 0
Na3 Na1+ 4 e 0.5 0.0010(13) 0.25 0.013(2) 0.28 0
Na4 Na1+ 8 f 0.5094(8) -0.0556(10) 0.3269(3) 0.0236(18) 0.32 0
Na5 Na1+ 8 f 0.0283(5) -0.1551(6) 0.35860(17) 0.0186(11) 0.58 0
Na6 Na1+ 8 f -0.0112(8) -0.1372(9) 0.3504(3) 0.0118(16) 0.33 0
Na7 Na1+ 8 f -0.233(2) 0.100(3) 0.3543(7) 0.016(4) 0.13 0
Na8 Na1+ 8 f -0.1483(11) 0.2292(14) 0.3505(3) 0.024(2) 0.27 0
Na9 Na1+ 8 f -0.1939(9) 0.0862(10) 0.3420(3) 0.0220(17) 0.35 0
Na10 Na1+ 8 f -0.184(2) 0.175(3) 0.3538(7) 0.025(4) 0.14 0
loop_
_atom_site_aniso_label
_atom_site_aniso_type_symbol
_atom_site_aniso_U_11
_atom_site_aniso_U_22
_atom_site_aniso_U_33
_atom_site_aniso_U_12
_atom_site_aniso_U_13
_atom_site_aniso_U_23
Al1 Al3+ 0.0067(9) 0.0083(10) 0.0094(10) 0. 0.0000(8) 0.
Al2 Al3+ 0.0071(7) 0.0064(7) 0.0072(7) 0.0000(6) -0.0004(5) 0.0007(6)
As1 As5+ 0.0065(2) 0.0108(3) 0.0096(3) -0.00147(19) 0.00072(18) 0.00172(19)
As2 As5+ 0.0100(3) 0.0103(3) 0.0074(3) -0.0014(2) 0.00003(18) 0.0014(2)
As3 As5+ 0.0066(2) 0.0081(3) 0.0074(3) 0.00032(19) 0.00102(18) 0.00067(19)
As4 As5+ 0.0076(2) 0.0075(3) 0.0083(3) -0.00002(19) 0.00122(18) -0.00046(18)
O1 O2- 0.0154(19) 0.0102(19) 0.019(2) -0.0034(16) 0.0032(15) -0.0008(16)
O2 O2- 0.0134(18) 0.017(2) 0.0151(19) -0.0001(16) 0.0077(14) -0.0027(16)
O3 O2- 0.0036(16) 0.016(2) 0.025(2) -0.0003(15) 0.0023(14) 0.0049(17)
O4 O2- 0.0077(16) 0.0145(19) 0.0136(18) 0.0026(15) 0.0024(14) 0.0037(15)
O5 O2- 0.0125(18) 0.0120(19) 0.025(2) -0.0018(15) -0.0103(16) -0.0004(16)
O6 O2- 0.0127(18) 0.017(2) 0.0149(19) 0.0003(16) 0.0066(14) 0.0055(16)
O7 O2- 0.0139(18) 0.0114(19) 0.0103(18) 0.0063(15) -0.0011(14) 0.0018(15)
O8 O2- 0.0169(19) 0.0147(19) 0.013(2) -0.0044(16) 0.0005(15) -0.0055(15)
O9 O2- 0.0089(17) 0.0145(19) 0.019(2) 0.0014(15) 0.0009(15) 0.0017(16)
O10 O2- 0.0145(18) 0.0076(18) 0.018(2) 0.0010(15) 0.0025(15) 0.0047(15)
O11 O2- 0.025(2) 0.0084(18) 0.0088(18) 0.0017(16) 0.0077(15) 0.0018(15)
O12 O2- 0.0063(16) 0.024(2) 0.018(2) -0.0019(16) -0.0012(14) 0.0011(17)
O13 O2- 0.035(2) 0.0112(19) 0.017(2) -0.0013(18) 0.0032(17) -0.0012(17)
O14 O2- 0.022(2) 0.0135(19) 0.013(2) -0.0012(16) -0.0021(15) 0.0030(16)
Na1 Na1+ 0.0255(13) 0.0141(12) 0.0370(15) -0.0030(10) 0.0148(11) -0.0035(11)
#End of TTdata_188690-ICSD