
#(C) 2019 by FIZ Karlsruhe - Leibniz Institute for Information Infrastructure.  All rights reserved.
data_188767-ICSD
_database_code_ICSD 188767
_audit_creation_date 2014-02-01
_chemical_name_systematic 'Sodium aluminium disulfate hexahydrate'
_chemical_formula_structural 'Na Al (S O4)2 (H2 O)6'
_chemical_formula_sum 'H12 Al1 Na1 O14 S2'
_chemical_name_mineral Tamarugite
_exptl_crystal_density_diffrn 2.05
_cell_measurement_temperature 295.
_publ_section_title 'Redetermination of tamarugite, Na Al (S O4)2  * 6(H2 O)'
loop_
_citation_id
_citation_journal_full
_citation_year
_citation_journal_volume
_citation_page_first
_citation_page_last
_citation_journal_id_ASTM
primary 'Acta Crystallographica, Section E: Structure Reports Online' 2013 69
i63 i64 ACSEBH
loop_
_publ_author_name
'Kurt Mereiter'
_cell_length_a 7.3847(3)
_cell_length_b 25.2814(15)
_cell_length_c 6.1097(3)
_cell_angle_alpha 90.
_cell_angle_beta 94.85(2)
_cell_angle_gamma 90.
_cell_volume 1136.57
_cell_formula_units_Z 4
_symmetry_space_group_name_H-M 'P 1 21/a 1'
_symmetry_Int_Tables_number 14
_refine_ls_R_factor_all 0.025
loop_
_symmetry_equiv_pos_site_id
_symmetry_equiv_pos_as_xyz
1 'x+1/2, -y+1/2, z'
2 '-x, -y, -z'
3 '-x+1/2, y+1/2, -z'
4 'x, y, z'
loop_
_atom_type_symbol
_atom_type_oxidation_number
Na1+ 1
Al3+ 3
S6+ 6
O2- -2
H1+ 1
O2- -2
H1+ 1
O2- -2
H1+ 1
O2- -2
H1+ 1
O2- -2
H1+ 1
O2- -2
H1+ 1
loop_
_atom_site_label
_atom_site_type_symbol
_atom_site_symmetry_multiplicity
_atom_site_Wyckoff_symbol
_atom_site_fract_x
_atom_site_fract_y
_atom_site_fract_z
_atom_site_B_iso_or_equiv
_atom_site_occupancy
_atom_site_attached_hydrogens
Na1 Na1+ 4 e 0.61674(8) 0.05252(2) 0.19574(9) 0.02332(13) 1 0
Al1 Al3+ 4 e 0.14270(5) 0.145043(15) 0.67813(6) 0.01380(9) 1 0
S1 S6+ 4 e 0.64309(4) 0.183070(12) 0.20951(5) 0.01517(8) 1 0
S2 S6+ 4 e 0.70759(4) 0.020635(12) 0.75101(5) 0.01550(8) 1 0
O1 O2- 4 e 0.56130(13) 0.22057(4) 0.04440(16) 0.0243(2) 1 0
O2 O2- 4 e 0.81572(14) 0.16235(5) 0.13994(16) 0.0289(2) 1 0
O3 O2- 4 e 0.51612(15) 0.13940(4) 0.23679(18) 0.0278(2) 1 0
O4 O2- 4 e 0.68102(15) 0.21088(4) 0.42206(16) 0.0265(2) 1 0
O5 O2- 4 e 0.70649(14) -0.03788(4) 0.73854(17) 0.0236(2) 1 0
O6 O2- 4 e 0.75440(14) 0.04265(4) 0.53995(15) 0.0264(2) 1 0
O7 O2- 4 e 0.52218(13) 0.03764(4) 0.79589(16) 0.0223(2) 1 0
O8 O2- 4 e 0.83689(14) 0.03868(4) 0.93065(16) 0.0253(2) 1 0
O9 O2- 4 e 0.12417(13) 0.18649(4) 0.41967(15) 0.01999(19) 1 0
H1 H1+ 4 e 0.041 0.1799 0.3314 0.036(5) 1 0
H2 H1+ 4 e 0.1394 0.2178 0.4205 0.060(7) 1 0
O10 O2- 4 e 0.06021(14) 0.08844(4) 0.49795(18) 0.0246(2) 1 0
H3 H1+ 4 e 0.1292 0.0712 0.4331 0.040(6) 1 0
H4 H1+ 4 e -0.0271 0.0706 0.5143 0.048(6) 1 0
O11 O2- 4 e 0.38482(13) 0.12715(4) 0.63708(16) 0.01946(19) 1 0
H5 H1+ 4 e 0.4237 0.0992 0.6801 0.042(6) 1 0
H6 H1+ 4 e 0.4225 0.1328 0.5204 0.040(6) 1 0
O12 O2- 4 e -0.09652(13) 0.16350(4) 0.73114(15) 0.0214(2) 1 0
H7 H1+ 4 e -0.1675 0.1793 0.6492 0.045(6) 1 0
H8 H1+ 4 e -0.1363 0.1624 0.8489 0.047(6) 1 0
O13 O2- 4 e 0.23469(14) 0.20302(4) 0.84445(17) 0.0256(2) 1 0
H9 H1+ 4 e 0.3364 0.2044 0.9006 0.046(6) 1 0
H10 H1+ 4 e 0.1744 0.2237 0.9058 0.047(6) 1 0
O14 O2- 4 e 0.13788(16) 0.09989(5) 0.92728(18) 0.0325(3) 1 0
H11 H1+ 4 e 0.2199 0.0995 1.0216 0.073(8) 1 0
H12 H1+ 4 e 0.0685 0.0768 0.9525 0.18(2) 1 0
loop_
_atom_site_aniso_label
_atom_site_aniso_type_symbol
_atom_site_aniso_U_11
_atom_site_aniso_U_22
_atom_site_aniso_U_33
_atom_site_aniso_U_12
_atom_site_aniso_U_13
_atom_site_aniso_U_23
Na1 Na1+ 0.0259(3) 0.0258(3) 0.0184(3) 0.0010(2) 0.0027(2) -0.0016(2)
Al1 Al3+ 0.01271(17) 0.01541(17) 0.01329(17) 0.00230(13) 0.00115(12) 0.00043(13)
S1 S6+ 0.01638(14) 0.01529(14) 0.01387(14) 0.00107(10) 0.00146(10) 0.00165(10)
S2 S6+ 0.01550(14) 0.01615(14) 0.01499(14) 0.00061(11) 0.00212(10) 0.00103(10)
O1 O2- 0.0220(5) 0.0237(5) 0.0256(5) -0.0051(4) -0.0067(4) 0.0106(4)
O2 O2- 0.0211(5) 0.0454(7) 0.0203(5) 0.0096(4) 0.0034(4) -0.0031(4)
O3 O2- 0.0329(6) 0.0194(5) 0.0319(5) -0.0057(4) 0.0081(4) 0.0045(4)
O4 O2- 0.0352(6) 0.0237(5) 0.0193(5) 0.0096(4) -0.0046(4) -0.0045(4)
O5 O2- 0.0261(5) 0.0171(4) 0.0283(5) 0.0034(4) 0.0063(4) -0.0015(4)
O6 O2- 0.0256(5) 0.0366(6) 0.0171(5) -0.0108(4) 0.0021(4) 0.0051(4)
O7 O2- 0.0183(4) 0.0212(5) 0.0278(5) 0.0055(4) 0.0044(4) 0.0043(4)
O8 O2- 0.0227(5) 0.0335(6) 0.0192(5) -0.0048(4) -0.0018(4) -0.0011(4)
O9 O2- 0.0221(5) 0.0184(5) 0.0188(5) -0.0015(4) -0.0020(4) 0.0039(3)
O10 O2- 0.0216(5) 0.0194(5) 0.0344(6) -0.0046(4) 0.0113(4) -0.0084(4)
O11 O2- 0.0171(4) 0.0198(5) 0.0222(5) 0.0050(3) 0.0056(4) 0.0032(4)
O12 O2- 0.0164(4) 0.0321(5) 0.0160(4) 0.0080(4) 0.0024(3) 0.0024(4)
O13 O2- 0.0164(5) 0.0289(5) 0.0305(5) 0.0057(4) -0.0050(4) -0.0138(4)
O14 O2- 0.0282(6) 0.0436(7) 0.0260(5) 0.0095(5) 0.0041(4) 0.0168(5)
#End of TTdata_188767-ICSD