
#(C) 2019 by FIZ Karlsruhe - Leibniz Institute for Information Infrastructure.  All rights reserved.
data_188938-ICSD
_database_code_ICSD 188938
_audit_creation_date 2014-02-01
_chemical_name_systematic 'Disodium heptacadmium octaborate'
_chemical_formula_structural 'Na2 Cd7 (B8 O20)'
_chemical_formula_sum 'B8 Cd7 Na2 O20'
_exptl_crystal_density_diffrn 4.83
_cell_measurement_temperature 296.
_publ_section_title
'Na2 Cd7 B8 O20: a new noncentrosymmetric compound with special (B3 O7) units'
loop_
_citation_id
_citation_journal_full
_citation_year
_citation_journal_volume
_citation_page_first
_citation_page_last
_citation_journal_id_ASTM
primary CrystEngComm 2013 15 3412 3416 CRECF4
loop_
_publ_author_name
'Zhou, Lin'
'Pan, Shilie'
'Dong, Xiaoyu'
'Yu, Hongwei'
'Wu, Hongping'
'Zhang, Fangfang'
'Zhou, Zhongxiang'
_cell_length_a 51.5597(7)
_cell_length_b 58.6920(8)
_cell_length_c 3.381
_cell_angle_alpha 90.
_cell_angle_beta 90.
_cell_angle_gamma 90.
_cell_volume 10231.39
_cell_formula_units_Z 24
_symmetry_space_group_name_H-M 'F d d 2'
_symmetry_Int_Tables_number 43
_refine_ls_R_factor_all 0.0412
loop_
_symmetry_equiv_pos_site_id
_symmetry_equiv_pos_as_xyz
1 'x+1/4, -y+1/4, z+1/4'
2 '-x+1/4, y+1/4, z+1/4'
3 '-x, -y, z'
4 'x, y, z'
5 'x+1/4, -y+3/4, z+3/4'
6 '-x+1/4, y+3/4, z+3/4'
7 '-x, -y+1/2, z+1/2'
8 'x, y+1/2, z+1/2'
9 'x+3/4, -y+1/4, z+3/4'
10 '-x+3/4, y+1/4, z+3/4'
11 '-x+1/2, -y, z+1/2'
12 'x+1/2, y, z+1/2'
13 'x+3/4, -y+3/4, z+1/4'
14 '-x+3/4, y+3/4, z+1/4'
15 '-x+1/2, -y+1/2, z'
16 'x+1/2, y+1/2, z'
loop_
_atom_type_symbol
_atom_type_oxidation_number
Na1+ 1
Cd2+ 2
Na1+ 1
Cd2+ 2
O2- -2
B3+ 3
loop_
_atom_site_label
_atom_site_type_symbol
_atom_site_symmetry_multiplicity
_atom_site_Wyckoff_symbol
_atom_site_fract_x
_atom_site_fract_y
_atom_site_fract_z
_atom_site_B_iso_or_equiv
_atom_site_occupancy
_atom_site_attached_hydrogens
Na1 Na1+ 16 b 0.19945(2) 0.14333(2) -0.3227(4) 0.0134(3) 0.276(3) 0
Na2 Na1+ 16 b 0.15091(3) 0.17879(2) -0.1220(4) 0.0065(4) 0.456(5) 0
Na3 Na1+ 16 b 0.27337(2) 0.02467(2) 0.9857(4) 0.0066(4) 0.393(5) 0
Na4 Na1+ 16 b 0.18792(2) 0.21872(2) 0.3573(4) 0.0070(4) 0.375(5) 0
Cd1 Cd2+ 16 b 0.19945(2) 0.14333(2) -0.3227(4) 0.0134(3) 0.724(3) 0
Cd2 Cd2+ 16 b 0.15091(3) 0.17879(2) -0.1220(4) 0.0065(4) 0.544(5) 0
Cd3 Cd2+ 16 b 0.27337(2) 0.02467(2) 0.9857(4) 0.0066(4) 0.607(5) 0
Cd4 Cd2+ 16 b 0.18792(2) 0.21872(2) 0.3573(4) 0.0070(4) 0.625(5) 0
Na5 Na1+ 8 a 0. 0. 0.330(8) 0.123(7) 1 0
Na6 Na1+ 16 b 0.3326(3) 0.0068(3) 0.454(7) 0.142(6) 1 0
Cd5 Cd2+ 16 b 0.179825(19) 0.091832(17) 0.0954(3) 0.0165(2) 1 0
Cd6 Cd2+ 16 b 0.120230(19) 0.100430(16) -0.2734(3) 0.0140(2) 1 0
Cd7 Cd2+ 16 b 0.070936(18) 0.059006(16) 0.1654(3) 0.0121(2) 1 0
Cd8 Cd2+ 16 b 0.10810(2) 0.017095(16) 0.6554(3) 0.0158(2) 1 0
Cd9 Cd2+ 16 b 0.092360(18) 0.149290(16) -0.7660(3) 0.0121(2) 1 0
Cd10 Cd2+ 16 b 0.012429(18) 0.093368(16) 0.0944(3) 0.0120(2) 1 0
Cd11 Cd2+ 16 b 0.03232(2) 0.143285(18) -0.3712(3) 0.0202(2) 1 0
Cd12 Cd2+ 16 b 0.234880(18) 0.062984(16) 0.5194(3) 0.0122(2) 1 0
O1 O2- 16 b 0.23114(15) 0.03595(15) 0.984(3) 0.0104(19) 1 0
O2 O2- 16 b 0.08063(17) 0.08487(15) -0.348(3) 0.016(2) 1 0
O3 O2- 16 b 0.27739(17) 0.05197(15) 1.473(3) 0.015(2) 1 0
O4 O2- 16 b 0.07864(19) 0.12508(15) -0.273(3) 0.015(2) 1 0
O5 O2- 16 b 0.18970(17) 0.06600(15) 0.576(3) 0.014(2) 1 0
O6 O2- 16 b 0.14708(17) 0.20553(15) 0.399(3) 0.017(2) 1 0
O7 O2- 16 b 0.06849(17) 0.03187(15) 0.672(3) 0.0137(19) 1 0
O8 O2- 16 b 0.11198(16) 0.04428(15) 0.162(3) 0.0124(18) 1 0
O9 O2- 16 b 0.19631(17) 0.19178(16) -0.144(3) 0.018(2) 1 0
O10 O2- 16 b 0.12672(17) 0.12803(15) -0.758(3) 0.016(2) 1 0
O11 O2- 16 b 0.11929(19) -0.00572(16) 1.145(3) 0.017(2) 1 0
O12 O2- 16 b 0.13843(16) 0.07752(14) 0.175(3) 0.0109(18) 1 0
O13 O2- 16 b 0.2378(2) 0.08767(16) 0.033(3) 0.027(3) 1 0
O14 O2- 16 b 0.16283(19) 0.15379(16) 0.352(3) 0.018(2) 1 0
O15 O2- 16 b 0.2851(2) 0.00238(15) 0.497(3) 0.020(2) 1 0
O16 O2- 16 b 0.21031(18) 0.11944(17) 0.174(3) 0.020(2) 1 0
O17 O2- 16 b 0.18876(17) 0.02629(15) 0.736(3) 0.016(2) 1 0
O18 O2- 16 b 0.31823(18) 0.05033(16) 1.179(4) 0.019(2) 1 0
O19 O2- 16 b 0.04012(18) 0.10458(16) -0.419(3) 0.015(2) 1 0
O20 O2- 16 b 0.05247(17) 0.16373(15) -0.829(3) 0.017(2) 1 0
O21 O2- 16 b 0.02777(19) 0.05875(16) 0.059(3) 0.019(2) 1 0
O22 O2- 16 b 0.16342(18) 0.11599(15) -0.400(3) 0.0142(19) 1 0
O23 O2- 16 b 0.1953(2) 0.24287(15) -0.141(3) 0.021(2) 1 0
O24 O2- 16 b 0.10441(17) 0.21569(15) 0.648(3) 0.017(2) 1 0
O25 O2- 16 b 0.23208(17) 0.16600(15) -0.157(3) 0.015(2) 1 0
O26 O2- 16 b 0.23748(19) 0.20557(16) 0.030(4) 0.027(3) 1 0
O27 O2- 16 b 0.10504(18) 0.17530(15) -1.231(3) 0.0132(19) 1 0
O28 O2- 16 b 0.15270(18) 0.04193(15) 0.447(3) 0.018(2) 1 0
O29 O2- 16 b 0.02388(17) 0.02097(15) 0.779(3) 0.016(2) 1 0
O30 O2- 16 b 0.00451(17) 0.13008(15) 0.119(3) 0.0146(19) 1 0
B1 B3+ 16 b 0.0495(3) 0.0151(2) 0.688(5) 0.013(3) 1 0
B2 B3+ 16 b 0.1283(3) 0.2215(2) 0.469(5) 0.010(3) 1 0
B3 B3+ 16 b 0.1341(3) 0.0553(2) 0.261(4) 0.010(3) 1 0
B4 B3+ 16 b 0.2984(3) 0.0635(2) 1.377(5) 0.012(3) 1 0
B5 B3+ 16 b 0.1777(3) 0.0457(2) 0.589(5) 0.011(3) 1 0
B6 B3+ 16 b 0.1509(3) 0.1328(2) -0.606(5) 0.011(3) 1 0
B7 B3+ 16 b 0.3433(3) 0.0544(2) 1.030(4) 0.008(3) 1 0
B8 B3+ 16 b 0.2126(3) 0.0200(3) 0.916(5) 0.014(3) 1 0
B9 B3+ 16 b 0.2218(3) 0.1870(2) -0.093(5) 0.009(3) 1 0
B10 B3+ 16 b 0.0662(3) 0.1049(2) -0.353(5) 0.010(3) 1 0
B11 B3+ 16 b 0.2335(3) 0.1093(2) 0.194(5) 0.009(3) 1 0
B12 B3+ 16 b 0.0148(3) 0.0431(2) -0.138(5) 0.012(3) 1 0
loop_
_atom_site_aniso_label
_atom_site_aniso_type_symbol
_atom_site_aniso_U_11
_atom_site_aniso_U_22
_atom_site_aniso_U_33
_atom_site_aniso_U_12
_atom_site_aniso_U_13
_atom_site_aniso_U_23
Na1 Na1+ 0.0112(6) 0.0126(6) 0.0164(7) -0.0038(4) -0.0081(5) 0.0022(5)
Na2 Na1+ 0.0105(7) 0.0032(7) 0.0057(7) 0.0011(5) -0.0005(6) 0.0005(5)
Na3 Na1+ 0.0102(7) 0.0044(6) 0.0051(7) 0.0034(5) -0.0003(5) -0.0021(5)
Na4 Na1+ 0.0116(7) 0.0032(6) 0.0062(6) -0.0010(4) 0.0005(5) 0.0000(5)
Cd1 Cd2+ 0.0112(6) 0.0126(6) 0.0164(7) -0.0038(4) -0.0081(5) 0.0022(5)
Cd2 Cd2+ 0.0105(7) 0.0032(7) 0.0057(7) 0.0011(5) -0.0005(6) 0.0005(5)
Cd3 Cd2+ 0.0102(7) 0.0044(6) 0.0051(7) 0.0034(5) -0.0003(5) -0.0021(5)
Cd4 Cd2+ 0.0116(7) 0.0032(6) 0.0062(6) -0.0010(4) 0.0005(5) 0.0000(5)
Na5 Na1+ 0.123(7) 0.123(7) 0.122(7) -0.0012(10) 0. 0.
Na6 Na1+ 0.142(6) 0.142(6) 0.143(6) -0.0003(10) -0.0001(10) -0.0006(10)
Cd5 Cd2+ 0.0192(5) 0.0143(4) 0.0159(5) -0.0006(4) -0.0006(4) 0.0001(4)
Cd6 Cd2+ 0.0146(4) 0.0144(4) 0.0130(5) -0.0011(4) -0.0011(4) 0.0016(4)
Cd7 Cd2+ 0.0125(4) 0.0110(4) 0.0129(5) 0.0003(3) -0.0014(4) -0.0004(4)
Cd8 Cd2+ 0.0207(5) 0.0133(4) 0.0135(5) 0.0042(4) -0.0005(4) 0.0001(4)
Cd9 Cd2+ 0.0126(4) 0.0110(4) 0.0126(5) 0.0015(3) -0.0006(4) 0.0021(4)
Cd10 Cd2+ 0.0137(4) 0.0097(4) 0.0126(5) 0.0000(3) -0.0009(4) 0.0001(4)
Cd11 Cd2+ 0.0224(5) 0.0196(5) 0.0185(5) -0.0019(4) 0.0013(5) 0.0006(4)
Cd12 Cd2+ 0.0130(4) 0.0119(4) 0.0116(5) 0.0003(3) 0.0006(4) 0.0009(4)
O1 O2- 0.003(4) 0.012(4) 0.016(5) -0.001(3) -0.001(4) 0.004(4)
O2 O2- 0.015(4) 0.011(4) 0.021(5) -0.004(3) 0.000(4) 0.006(4)
O3 O2- 0.014(4) 0.011(4) 0.020(5) 0.003(3) 0.004(4) -0.007(4)
O4 O2- 0.028(5) 0.012(4) 0.006(4) -0.003(4) -0.002(4) 0.003(4)
O5 O2- 0.011(4) 0.016(5) 0.015(5) 0.001(3) -0.002(4) 0.000(4)
O6 O2- 0.014(4) 0.014(4) 0.022(6) 0.002(3) 0.005(5) 0.004(4)
O7 O2- 0.011(4) 0.014(4) 0.016(5) 0.005(3) 0.004(4) 0.000(4)
O8 O2- 0.010(4) 0.010(4) 0.017(5) -0.003(3) -0.002(4) -0.003(4)
O9 O2- 0.011(4) 0.019(5) 0.023(6) 0.000(4) -0.007(4) 0.002(4)
O10 O2- 0.008(4) 0.015(5) 0.026(6) 0.002(3) -0.005(4) -0.005(4)
O11 O2- 0.025(5) 0.016(5) 0.011(5) 0.007(4) -0.001(5) 0.003(4)
O12 O2- 0.011(2) 0.010(2) 0.011(2) -0.0002(10) 0.0001(10) 0.0003(10)
O13 O2- 0.058(7) 0.007(4) 0.016(5) -0.006(5) -0.006(6) 0.002(4)
O14 O2- 0.022(5) 0.013(5) 0.019(5) -0.004(4) -0.011(5) 0.009(4)
O15 O2- 0.037(6) 0.007(4) 0.016(5) 0.008(4) 0.010(5) 0.004(4)
O16 O2- 0.011(4) 0.030(6) 0.019(5) -0.004(4) 0.000(4) 0.000(5)
O17 O2- 0.015(4) 0.010(4) 0.023(6) 0.003(4) -0.013(4) 0.004(4)
O18 O2- 0.016(5) 0.017(5) 0.024(6) -0.003(4) 0.012(5) -0.005(5)
O19 O2- 0.015(5) 0.022(5) 0.007(5) -0.001(4) -0.007(4) -0.003(4)
O20 O2- 0.011(4) 0.013(4) 0.026(6) 0.000(3) 0.004(4) 0.007(4)
O21 O2- 0.018(5) 0.018(5) 0.022(6) 0.000(4) -0.008(4) -0.008(4)
O22 O2- 0.019(5) 0.010(4) 0.014(5) 0.004(4) -0.002(4) 0.005(4)
O23 O2- 0.040(6) 0.009(4) 0.012(5) -0.005(4) -0.008(5) -0.005(4)
O24 O2- 0.014(4) 0.009(4) 0.026(6) -0.001(3) -0.001(5) 0.002(4)
O25 O2- 0.015(4) 0.012(4) 0.018(5) 0.000(3) -0.002(4) -0.003(4)
O26 O2- 0.013(5) 0.012(5) 0.057(9) -0.003(4) -0.017(5) 0.000(5)
O27 O2- 0.020(5) 0.010(4) 0.010(5) -0.007(4) 0.003(4) 0.001(4)
O28 O2- 0.017(5) 0.008(4) 0.029(6) -0.006(3) -0.001(5) 0.004(4)
O29 O2- 0.010(4) 0.011(4) 0.026(6) -0.001(3) 0.001(4) 0.001(4)
O30 O2- 0.015(4) 0.011(4) 0.018(5) 0.005(3) -0.005(4) 0.006(4)
B1 B3+ 0.013(3) 0.013(3) 0.013(3) 0.0000(10) -0.0002(10) 0.0000(10)
B2 B3+ 0.010(3) 0.010(3) 0.010(3) -0.0001(10) 0.0003(10) 0.0000(10)
B3 B3+ 0.010(3) 0.010(3) 0.010(3) -0.0001(10) 0.0000(10) -0.0001(10)
B4 B3+ 0.012(3) 0.012(3) 0.012(3) 0.0002(10) -0.0002(10) 0.0001(10)
B5 B3+ 0.011(3) 0.011(3) 0.011(3) 0.0000(10) 0.0003(10) -0.0002(10)
B6 B3+ 0.011(3) 0.011(3) 0.011(3) -0.0002(10) 0.0000(10) -0.0002(10)
B7 B3+ 0.009(3) 0.008(3) 0.009(3) 0.0001(10) -0.0003(10) 0.0000(10)
B8 B3+ 0.014(3) 0.014(3) 0.014(3) 0.0000(10) 0.0000(10) 0.0000(10)
B9 B3+ 0.009(3) 0.009(3) 0.009(3) 0.0000(10) 0.0002(10) -0.0002(10)
B10 B3+ 0.011(3) 0.010(3) 0.010(3) -0.0001(10) 0.0000(10) 0.0000(10)
B11 B3+ 0.009(3) 0.009(3) 0.009(3) 0.0001(10) 0.0000(10) -0.0001(10)
B12 B3+ 0.012(3) 0.012(3) 0.013(3) 0.0005(10) -0.0002(10) -0.0001(10)
#End of TTdata_188938-ICSD