
#(C) 2019 by FIZ Karlsruhe - Leibniz Institute for Information Infrastructure.  All rights reserved.
data_189200-ICSD
_database_code_ICSD 189200
_audit_creation_date 2014-02-01
_chemical_name_systematic
'Sodium bismuth niobium scandium oxide (0.45/2.55/1.95/0.05/9)'
_chemical_formula_structural '(Na0.45 Bi2.55) (Nb1.95 Sc0.05 O9)'
_chemical_formula_sum 'Bi2.55 Na0.45 Nb1.95 O9 Sc0.05'
_chemical_name_structure_type TiNbBi3O9
_exptl_crystal_density_diffrn 7.71
_cell_measurement_temperature 293.
_publ_section_title

;
Crystal structure and enhanced piezoelectric properties of scandium and
Bismuth-excess modified Aurivillius oxides, Na0.5-x Bi2.5+x Nb2-x Scx O9
;
loop_
_citation_id
_citation_journal_full
_citation_year
_citation_journal_volume
_citation_page_first
_citation_page_last
_citation_journal_id_ASTM
primary 'European Journal of Inorganic Chemistry' 2013 2013 5622 5630 EJICFO
loop_
_publ_author_name
'Long, Changbai'
'Fan, Huiqing'
'Li, Mengmeng'
'Li, Qiang'
_cell_length_a 5.49853(9)
_cell_length_b 5.45976(9)
_cell_length_c 24.98351(29)
_cell_angle_alpha 90.
_cell_angle_beta 90.
_cell_angle_gamma 90.
_cell_volume 750.02
_cell_formula_units_Z 4
_symmetry_space_group_name_H-M 'A 21 a m'
_symmetry_Int_Tables_number 36
_refine_ls_R_factor_all 0.0627
loop_
_symmetry_equiv_pos_site_id
_symmetry_equiv_pos_as_xyz
1 'x+1/2, -y, z'
2 'x+1/2, -y, -z'
3 'x, y, -z'
4 'x, y, z'
5 'x+1/2, -y+1/2, z+1/2'
6 'x+1/2, -y+1/2, -z+1/2'
7 'x, y+1/2, -z+1/2'
8 'x, y+1/2, z+1/2'
loop_
_atom_type_symbol
_atom_type_oxidation_number
Bi3+ 3
Na1+ 1
Bi3+ 3
Na1+ 1
Nb5+ 5
Sc3+ 3
O2- -2
loop_
_atom_site_label
_atom_site_type_symbol
_atom_site_symmetry_multiplicity
_atom_site_Wyckoff_symbol
_atom_site_fract_x
_atom_site_fract_y
_atom_site_fract_z
_atom_site_B_iso_or_equiv
_atom_site_occupancy
_atom_site_attached_hydrogens
Bi1 Bi3+ 4 a 0 0.2327(7) 0 0.0035(4) 0.5521(19) 0
Na1 Na1+ 4 a 0 0.2327(7) 0 0.0035(4) 0.4479(19) 0
Bi2 Bi3+ 8 b 0.5026(5) 0.72941(24) 0.199483(35) 0.01535(15) 0.9990(10) 0
Na2 Na1+ 8 b 0.5026(5) 0.72941(24) 0.199483(35) 0.01535(15) 0.0010(10) 0
Nb1 Nb5+ 8 b 0.4617(5) 0.7441(7) 0.41475(6) 0.06(4) 0.975 0
Sc1 Sc3+ 8 b 0.4617(5) 0.7441(7) 0.41475(6) 0.06(4) 0.025 0
O1 O2- 4 a 0.411(4) 0.198(6) 0 0.0215(23) 1. 0
O2 O2- 8 b 0.468(4) 0.7838(35) 0.3401(4) 0.0215(23) 1. 0
O3 O2- 8 b 0.735(6) -0.017(8) 0.2468(9) 0.0215(23) 1. 0
O4 O2- 8 b 0.6343(34) 0.9571(32) 0.0855(5) 0.0215(23) 1. 0
O5 O2- 8 b 0.722(6) 0.958(4) 0.5737(5) 0.0215(23) 1. 0
#End of TTdata_189200-ICSD