
#(C) 2018 by FIZ Karlsruhe - Leibniz Institute for Information Infrastructure.  All rights reserved.
data_189656-ICSD
_database_code_ICSD 189656
_audit_creation_date 2014-02-01
_chemical_name_systematic 'Dilithium dinickel tellurate'
_chemical_formula_structural 'Li2 Ni2 (Te O6)'
_chemical_formula_sum 'Li2 Ni2 O6 Te1'
_exptl_crystal_density_diffrn 5.26
_cell_measurement_temperature 298.
_publ_section_title

;
Formation of honeycomb ordered monoclinic Li2 M2 TeO6 (M = Cu, Ni) and
disordered orthorhombic Li2 Ni2 Te O6 oxides
;
loop_
_citation_id
_citation_journal_full
_citation_year
_citation_journal_volume
_citation_page_first
_citation_page_last
_citation_journal_id_ASTM
primary 'Dalton Transactions' 2013 42 14992 14998 DTARAF
loop_
_publ_author_name
'Vinod Kumar'
'Akanksha Gupta'
'S. Uma'
_cell_length_a 5.8921(7)
_cell_length_b 8.599(1)
_cell_length_c 17.691(2)
_cell_angle_alpha 90.
_cell_angle_beta 90.
_cell_angle_gamma 90.
_cell_volume 896.34
_cell_formula_units_Z 8
_symmetry_space_group_name_H-M 'F d d d Z'
_symmetry_Int_Tables_number 70
loop_
_symmetry_equiv_pos_site_id
_symmetry_equiv_pos_as_xyz
1 'x+3/4, y+3/4, -z'
2 'x+3/4, -y, z+3/4'
3 '-x, y+3/4, z+3/4'
4 '-x, -y, -z'
5 '-x+1/4, -y+1/4, z'
6 '-x+1/4, y, -z+1/4'
7 'x, -y+1/4, -z+1/4'
8 'x, y, z'
9 'x+3/4, y+1/4, -z+1/2'
10 'x+3/4, -y+1/2, z+1/4'
11 '-x, y+1/4, z+1/4'
12 '-x, -y+1/2, -z+1/2'
13 '-x+1/4, -y+3/4, z+1/2'
14 '-x+1/4, y+1/2, -z+3/4'
15 'x, -y+3/4, -z+3/4'
16 'x, y+1/2, z+1/2'
17 'x+1/4, y+3/4, -z+1/2'
18 'x+1/4, -y, z+1/4'
19 '-x+1/2, y+3/4, z+1/4'
20 '-x+1/2, -y, -z+1/2'
21 '-x+3/4, -y+1/4, z+1/2'
22 '-x+3/4, y, -z+3/4'
23 'x+1/2, -y+1/4, -z+3/4'
24 'x+1/2, y, z+1/2'
25 'x+1/4, y+1/4, -z'
26 'x+1/4, -y+1/2, z+3/4'
27 '-x+1/2, y+1/4, z+3/4'
28 '-x+1/2, -y+1/2, -z'
29 '-x+3/4, -y+3/4, z'
30 '-x+3/4, y+1/2, -z+1/4'
31 'x+1/2, -y+3/4, -z+1/4'
32 'x+1/2, y+1/2, z'
loop_
_atom_type_symbol
_atom_type_oxidation_number
Te6+ 6
Li1+ 1
Ni2+ 2
Li1+ 1
Ni2+ 2
Li1+ 1
Ni2+ 2
O2- -2
loop_
_atom_site_label
_atom_site_type_symbol
_atom_site_symmetry_multiplicity
_atom_site_Wyckoff_symbol
_atom_site_fract_x
_atom_site_fract_y
_atom_site_fract_z
_atom_site_B_iso_or_equiv
_atom_site_occupancy
_atom_site_attached_hydrogens
Te1 Te6+ 8 a 0.125 0.125 0.125 0.015 1. 0
Li1 Li1+ 16 g 0.125 0.125 0.2938(3) 0.015 0.35 0
Ni1 Ni2+ 16 g 0.125 0.125 0.2938(3) 0.015 0.65 0
Li2 Li1+ 16 g 0.125 0.625 0.2868(7) 0.015 0.5 0
Ni2 Ni2+ 16 g 0.125 0.625 0.2868(7) 0.015 0.25 0
Li3 Li1+ 8 b 0.125 0.625 0.125 0.015 0.3 0
Ni3 Ni2+ 8 b 0.125 0.625 0.125 0.015 0.2 0
O1 O2- 16 f 0.125 0.355(2) 0.125 0.015 1. 0
O2 O2- 32 h 0.096(2) 0.344(1) 0.2945(6) 0.015 1. 0
#End of TTdata_189656-ICSD