
#(C) 2019 by FIZ Karlsruhe - Leibniz Institute for Information Infrastructure.  All rights reserved.
data_189845-ICSD
_database_code_ICSD 189845
_audit_creation_date 2014-02-01
_chemical_name_systematic 'Nonasodium scandium hexamolybdate'
_chemical_formula_structural 'Na9 Sc (Mo O4)6'
_chemical_formula_sum 'Mo6 Na9 O24 Sc1'
_exptl_crystal_density_diffrn 3.22
_cell_measurement_temperature 295.
_publ_section_title
'The double molybdate Na9 Sc (Mo O4)6 refined from powder XRD data'
loop_
_citation_id
_citation_journal_full
_citation_year
_citation_journal_volume
_citation_page_first
_citation_page_last
_citation_journal_id_ASTM
primary 'Acta Crystallographica, Section C: Crystal Structure Communications'
2013 69 1301 1303 ACSCEE
loop_
_publ_author_name
'Savina, Aleksandra A.'
'Morozov, Vladimir A.'
'Basovich, Olga M.'
'Khaikina, Elena G.'
'Lazoryak, Bogdan I.'
_cell_length_a 15.0087(3)
_cell_length_b 15.0087
_cell_length_c 19.1943(4)
_cell_angle_alpha 90.
_cell_angle_beta 90.
_cell_angle_gamma 120.
_cell_volume 3744.46
_cell_formula_units_Z 6
_symmetry_space_group_name_H-M 'R -3 H'
_symmetry_Int_Tables_number 148
_refine_ls_R_factor_all 0.036
loop_
_symmetry_equiv_pos_site_id
_symmetry_equiv_pos_as_xyz
1 'x-y, x, -z'
2 'y, -x+y, -z'
3 '-x, -y, -z'
4 '-x+y, -x, z'
5 '-y, x-y, z'
6 'x, y, z'
7 'x-y+2/3, x+1/3, -z+1/3'
8 'y+2/3, -x+y+1/3, -z+1/3'
9 '-x+2/3, -y+1/3, -z+1/3'
10 '-x+y+2/3, -x+1/3, z+1/3'
11 '-y+2/3, x-y+1/3, z+1/3'
12 'x+2/3, y+1/3, z+1/3'
13 'x-y+1/3, x+2/3, -z+2/3'
14 'y+1/3, -x+y+2/3, -z+2/3'
15 '-x+1/3, -y+2/3, -z+2/3'
16 '-x+y+1/3, -x+2/3, z+2/3'
17 '-y+1/3, x-y+2/3, z+2/3'
18 'x+1/3, y+2/3, z+2/3'
loop_
_atom_type_symbol
_atom_type_oxidation_number
Sc3+ 3
Na1+ 1
Mo6+ 6
O2- -2
loop_
_atom_site_label
_atom_site_type_symbol
_atom_site_symmetry_multiplicity
_atom_site_Wyckoff_symbol
_atom_site_fract_x
_atom_site_fract_y
_atom_site_fract_z
_atom_site_B_iso_or_equiv
_atom_site_occupancy
_atom_site_attached_hydrogens
Sc1 Sc3+ 6 c 0 0 0.2600(5) 0.0146(19) 1. 0
Na1 Na1+ 18 f 0.0055(11) 0.2270(7) 0.2568(8) 0.040(3) 1. 0
Na2 Na1+ 18 f 0.0130(8) 0.2304(8) 0.0486(6) 0.039(4) 1. 0
Na3 Na1+ 18 f 0.0164(7) 0.2428(8) 0.4469(6) 0.032(3) 1. 0
Mo1 Mo6+ 18 f 0.5269(2) 0.8610(2) 0.02720(10) 0.0205(7) 1. 0
Mo2 Mo6+ 18 f 0.5144(2) 0.6476(2) 0.52480(10) 0.0331(9) 1. 0
O1 O2- 18 f 0.5738(16) 0.7833(16) 0.0354(9) 0.042(3) 1. 0
O2 O2- 18 f 0.5030(11) 0.8880(12) 0.1099(9) 0.032(4) 1. 0
O3 O2- 18 f 0.6082(16) 0.9696(17) -0.0121(11) 0.042(5) 1. 0
O4 O2- 18 f 0.4062(14) 0.8060(14) -0.0180(8) 0.028(3) 1. 0
O5 O2- 18 f 0.5855(15) 0.7828(15) 0.5247(8) 0.042(3) 1. 0
O6 O2- 18 f 0.4693(12) 0.5950(12) 0.6092(9) 0.042(5) 1. 0
O7 O2- 18 f 0.6058(15) 0.6161(11) 0.4968(11) 0.032(4) 1. 0
O8 O2- 18 f 0.4021(13) 0.6027(12) 0.4681(8) 0.028(3) 1. 0
#End of TTdata_189845-ICSD