
#(C) 2019 by FIZ Karlsruhe - Leibniz Institute for Information Infrastructure.  All rights reserved.
data_1898-ICSD
_database_code_ICSD 1898
_audit_creation_date 1980-01-01
_audit_update_record 2010-02-01
_chemical_name_systematic 'Sodium vanado(IV)vanadate - alpha, LT'
_chemical_formula_structural 'Na (V2 O5)'
_chemical_formula_sum 'Na1 O5 V2'
_chemical_name_structure_type NaV2O5
_exptl_crystal_density_diffrn 3.47
_publ_section_title
'Affinement de la structure cristalline du bronze Na V2 O5 alpha''
loop_
_citation_id
_citation_journal_full
_citation_year
_citation_journal_volume
_citation_page_first
_citation_page_last
_citation_journal_id_ASTM
primary

;
Acta Crystallographica, Section B: Structural Crystallography and Crystal
Chemistry
; 1975 31 1481 1482 ACBCAR
loop_
_publ_author_name
'Carpy, A.'
'Galy, J.'
_cell_length_a 11.318(5)
_cell_length_b 3.611(2)
_cell_length_c 4.797(3)
_cell_angle_alpha 90.
_cell_angle_beta 90.
_cell_angle_gamma 90.
_cell_volume 196.05
_cell_formula_units_Z 2
_symmetry_space_group_name_H-M 'P 21 m n'
_symmetry_Int_Tables_number 31
_refine_ls_R_factor_all 0.079
loop_
_symmetry_equiv_pos_site_id
_symmetry_equiv_pos_as_xyz
1 'x+1/2, y+1/2, -z'
2 'x+1/2, -y+1/2, -z'
3 'x, -y, z'
4 'x, y, z'
loop_
_atom_type_symbol
_atom_type_oxidation_number
V4+ 4
V5+ 5
O2- -2
Na1+ 1
loop_
_atom_site_label
_atom_site_type_symbol
_atom_site_symmetry_multiplicity
_atom_site_Wyckoff_symbol
_atom_site_fract_x
_atom_site_fract_y
_atom_site_fract_z
_atom_site_B_iso_or_equiv
_atom_site_occupancy
_atom_site_attached_hydrogens
V1 V4+ 2 a 0.1610(2) 0 0.1184(5) 0.69 1. 0
V2 V5+ 2 a 0.8566(2) 0 0.0967(6) 1.13 1. 0
O1 O2- 2 a 0.1429(9) 0 0.4594(18) 1.85 1. 0
O2 O2- 2 a 0.3251(8) 0 -.0276(19) 1.5 1. 0
O3 O2- 2 a 0.0046(19) 0 -.0182(15) 1.53 1. 0
O4 O2- 2 a 0.6838(6) 0 0.0324(15) 0.09 1. 0
O5 O2- 2 a 0.8777(9) 0 0.4125(22) 2.49 1. 0
Na1 Na1+ 2 a 0.5198(8) 0 0.3652(12) 3.23 1. 0
#End of TTdata_1898-ICSD