
#(C) 2019 by FIZ Karlsruhe - Leibniz Institute for Information Infrastructure.  All rights reserved.
data_190536-ICSD
_database_code_ICSD 190536
_audit_creation_date 2014-08-01
_chemical_name_systematic 'Sodium iron sulfate chloride (21.48/0.52/10/3)'
_chemical_formula_structural 'Na21.48 Fe0.52 (S O4)10 Cl3'
_chemical_formula_sum 'Cl3 Fe0.52 Na21.48 O40 S10'
_chemical_name_mineral D'Ansite-(Fe)
_exptl_crystal_density_diffrn 2.64
_publ_section_title

;
D'ansite-(Mn), Na21 Mn(2+) (S O4)10 Cl3 and d'ansite-(Fe), Na21 Fe(2+) (S
O4)10 Cl3, two new minerals from volcanic fumaroles
;
loop_
_citation_id
_citation_journal_full
_citation_year
_citation_journal_volume
_citation_page_first
_citation_page_last
_citation_journal_id_ASTM
primary 'Mineralogical Magazine' 2012 76 2773 2783 MNLMBB
loop_
_publ_author_name
'Demartin, F.'
'Campostrini, I.'
'Castellano, C.'
'Gramaccioli, C.M.'
'Russo, M.'
_cell_length_a 15.882(3)
_cell_length_b 15.882(3)
_cell_length_c 15.882(3)
_cell_angle_alpha 90.
_cell_angle_beta 90.
_cell_angle_gamma 90.
_cell_volume 4006.04
_cell_formula_units_Z 4
_symmetry_space_group_name_H-M 'I -4 3 d'
_symmetry_Int_Tables_number 220
_refine_ls_R_factor_all 0.0336
loop_
_symmetry_equiv_pos_site_id
_symmetry_equiv_pos_as_xyz
1 '-y+1/4, -x+3/4, z+3/4'
2 'y+3/4, -x+1/4, -z+3/4'
3 '-y+3/4, x+3/4, -z+1/4'
4 'y+1/4, x+1/4, z+1/4'
5 'z+1/2, -x+1/2, -y'
6 '-z+1/2, -x, y+1/2'
7 '-z, x+1/2, -y+1/2'
8 'z, x, y'
9 'z+3/4, -y+1/4, -x+3/4'
10 '-z+3/4, y+3/4, -x+1/4'
11 '-z+1/4, -y+3/4, x+3/4'
12 'z+1/4, y+1/4, x+1/4'
13 '-y, z+1/2, -x+1/2'
14 'y+1/2, -z+1/2, -x'
15 '-y+1/2, -z, x+1/2'
16 'y, z, x'
17 '-x+3/4, z+3/4, -y+1/4'
18 '-x+1/4, -z+3/4, y+3/4'
19 'x+3/4, -z+1/4, -y+3/4'
20 'x+1/4, z+1/4, y+1/4'
21 '-x+1/2, -y, z+1/2'
22 '-x, y+1/2, -z+1/2'
23 'x+1/2, -y+1/2, -z'
24 'x, y, z'
25 '-y+3/4, -x+1/4, z+1/4'
26 'y+1/4, -x+3/4, -z+1/4'
27 '-y+1/4, x+1/4, -z+3/4'
28 'y+3/4, x+3/4, z+3/4'
29 'z, -x, -y+1/2'
30 '-z, -x+1/2, y'
31 '-z+1/2, x, -y'
32 'z+1/2, x+1/2, y+1/2'
33 'z+1/4, -y+3/4, -x+1/4'
34 '-z+1/4, y+1/4, -x+3/4'
35 '-z+3/4, -y+1/4, x+1/4'
36 'z+3/4, y+3/4, x+3/4'
37 '-y+1/2, z, -x'
38 'y, -z, -x+1/2'
39 '-y, -z+1/2, x'
40 'y+1/2, z+1/2, x+1/2'
41 '-x+1/4, z+1/4, -y+3/4'
42 '-x+3/4, -z+1/4, y+1/4'
43 'x+1/4, -z+3/4, -y+1/4'
44 'x+3/4, z+3/4, y+3/4'
45 '-x, -y+1/2, z'
46 '-x+1/2, y, -z'
47 'x, -y, -z+1/2'
48 'x+1/2, y+1/2, z+1/2'
loop_
_atom_type_symbol
_atom_type_oxidation_number
Na1+ 1
Fe3+ 3
S6+ 6
O2- -2
Cl1- -1
loop_
_atom_site_label
_atom_site_type_symbol
_atom_site_symmetry_multiplicity
_atom_site_Wyckoff_symbol
_atom_site_fract_x
_atom_site_fract_y
_atom_site_fract_z
_atom_site_B_iso_or_equiv
_atom_site_occupancy
_atom_site_attached_hydrogens
Na1 Na1+ 48 e 0.88098(4) 0.37440(4) 0.84834(3) 0.0243(2) 1. 0
Na2 Na1+ 24 d 0 0.25 0.04293(5) 0.0689(4) 1. 0
Na3 Na1+ 16 c 0.08027(4) 0.58027(4) 0.91973(4) 0.0454(3) 0.870(1) 0
Fe1 Fe3+ 16 c 0.08027(4) 0.58027(4) 0.91973(4) 0.0454(3) 0.130(1) 0
S1 S6+ 24 d 0.01852(3) 0.5 0.75 0.0171(1) 1. 0
S2 S6+ 16 c 0.96103(3) 0.46103(3) 0.03897(3) 0.0164(1) 1. 0
O1 O2- 48 e -0.03390(6) 0.42636(6) 0.73325(6) 0.0274(3) 1. 0
O2 O2- 48 e 0.07233(6) 0.51656(6) 0.67692(7) 0.0372(4) 1. 0
O3 O2- 48 e 0.91376(8) 0.47536(7) -0.03641(7) 0.0596(4) 1. 0
O4 O2- 16 c 0.90884(8) 0.40884(8) 0.09116(8) 0.1002(9) 1. 0
Cl1 Cl1- 12 b 0 0.25 0.875 0.0208(2) 1. 0
loop_
_atom_site_aniso_label
_atom_site_aniso_type_symbol
_atom_site_aniso_U_11
_atom_site_aniso_U_22
_atom_site_aniso_U_33
_atom_site_aniso_U_12
_atom_site_aniso_U_13
_atom_site_aniso_U_23
Na1 Na1+ 0.0236(3) 0.0239(3) 0.0252(3) 0.0014(3) 0.0017(3) 0.0024(3)
Na2 Na1+ 0.152(1) 0.0371(6) 0.0180(5) -0.0320(7) 0. 0.
Na3 Na1+ 0.0454(3) 0.0454(3) 0.0454(3) 0.0027(3) -0.0027(3) -0.0027(3)
Fe1 Fe3+ 0.0454(3) 0.0454(3) 0.0454(3) 0.0027(3) -0.0027(3) -0.0027(3)
S1 S6+ 0.0102(2) 0.0240(3) 0.0172(3) 0. 0. 0.0034(3)
S2 S6+ 0.0164(1) 0.0164(1) 0.0164(1) 0.0018(2) -0.0018(2) -0.0018(2)
O1 O2- 0.0194(5) 0.0323(6) 0.0305(6) -0.0101(6) 0.0027(5) 0.0005(5)
O2 O2- 0.0355(6) 0.0312(7) 0.0449(7) 0.0076(6) 0.0243(6) 0.0132(6)
O3 O2- 0.0887(9) 0.0642(8) 0.0259(6) 0.0365(7) -0.0257(7) -0.0094(6)
O4 O2- 0.1002(9) 0.1002(9) 0.1002(9) -0.0308(8) 0.0308(8) 0.0308(8)
Cl1 Cl1- 0.0244(2) 0.0244(2) 0.0136(4) 0. 0. 0.
#End of TTdata_190536-ICSD