
#(C) 2018 by FIZ Karlsruhe - Leibniz Institute for Information Infrastructure.  All rights reserved.
data_191315-ICSD
_database_code_ICSD 191315
_audit_creation_date 2014-08-01
_chemical_name_systematic
'Lithium nickel cobalt manganese oxide (0.59/0.5/0.2/0.3/2)'
_chemical_formula_structural '(Li0.53 Ni0.063) (Li0.063 Ni0.44 Co0.2 Mn0.3) O2'
_chemical_formula_sum 'Co0.2 Li0.593 Mn0.3 Ni0.503 O2'
_chemical_name_structure_type Delafossite-NaCrS2
_exptl_crystal_density_diffrn 4.67
_publ_section_title

;
Understanding structural changes in NMC Li-ion cells by in situ neutron
diffraction
;
loop_
_citation_id
_citation_journal_full
_citation_year
_citation_journal_volume
_citation_page_first
_citation_page_last
_citation_journal_id_ASTM
primary 'Journal of Power Sources' 2014 255 197 203 JPSODZ
loop_
_publ_author_name
'Dolotko, O.'
'Senyshyn, A.'
'Muehlbauer, M.J.'
'Nikolowski, K.'
'Ehrenberg, H.'
_cell_length_a 2.82543(5)
_cell_length_b 2.82543(5)
_cell_length_c 14.50188(69)
_cell_angle_alpha 90.
_cell_angle_beta 90.
_cell_angle_gamma 120.
_cell_volume 100.26
_cell_formula_units_Z 3
_symmetry_space_group_name_H-M 'R -3 m H'
_symmetry_Int_Tables_number 166
_refine_ls_R_factor_all 0.0105
loop_
_symmetry_equiv_pos_site_id
_symmetry_equiv_pos_as_xyz
1 'x-y, -y, -z'
2 '-x, -x+y, -z'
3 'y, x, -z'
4 'x-y, x, -z'
5 'y, -x+y, -z'
6 '-x, -y, -z'
7 '-x+y, y, z'
8 'x, x-y, z'
9 '-y, -x, z'
10 '-x+y, -x, z'
11 '-y, x-y, z'
12 'x, y, z'
13 'x-y+2/3, -y+1/3, -z+1/3'
14 '-x+2/3, -x+y+1/3, -z+1/3'
15 'y+2/3, x+1/3, -z+1/3'
16 'x-y+2/3, x+1/3, -z+1/3'
17 'y+2/3, -x+y+1/3, -z+1/3'
18 '-x+2/3, -y+1/3, -z+1/3'
19 '-x+y+2/3, y+1/3, z+1/3'
20 'x+2/3, x-y+1/3, z+1/3'
21 '-y+2/3, -x+1/3, z+1/3'
22 '-x+y+2/3, -x+1/3, z+1/3'
23 '-y+2/3, x-y+1/3, z+1/3'
24 'x+2/3, y+1/3, z+1/3'
25 'x-y+1/3, -y+2/3, -z+2/3'
26 '-x+1/3, -x+y+2/3, -z+2/3'
27 'y+1/3, x+2/3, -z+2/3'
28 'x-y+1/3, x+2/3, -z+2/3'
29 'y+1/3, -x+y+2/3, -z+2/3'
30 '-x+1/3, -y+2/3, -z+2/3'
31 '-x+y+1/3, y+2/3, z+2/3'
32 'x+1/3, x-y+2/3, z+2/3'
33 '-y+1/3, -x+2/3, z+2/3'
34 '-x+y+1/3, -x+2/3, z+2/3'
35 '-y+1/3, x-y+2/3, z+2/3'
36 'x+1/3, y+2/3, z+2/3'
loop_
_atom_type_symbol
_atom_type_oxidation_number
O2- -2
Li1+ 1
Ni2+ 2
Li1+ 1
Ni3+ 3.5
Co3+ 3.5
Mn3+ 3.5
loop_
_atom_site_label
_atom_site_type_symbol
_atom_site_symmetry_multiplicity
_atom_site_Wyckoff_symbol
_atom_site_fract_x
_atom_site_fract_y
_atom_site_fract_z
_atom_site_B_iso_or_equiv
_atom_site_occupancy
_atom_site_attached_hydrogens
O1 O2- 6 c 0. 0. 0.2346(3) 1.07(6) 1. 0
Li1 Li1+ 3 a 0. 0. 0. 1.07(6) 0.53(4) 0
Ni1 Ni2+ 3 a 0. 0. 0. 1.07(6) 0.063(8) 0
Li2 Li1+ 3 b 0. 0. 0.5 1.07(6) 0.063(8) 0
Ni2 Ni3+ 3 b 0. 0. 0.5 1.07(6) 0.437(8) 0
Co1 Co3+ 3 b 0. 0. 0.5 1.07(6) 0.2 0
Mn1 Mn3+ 3 b 0. 0. 0.5 1.07(6) 0.3 0
#End of TTdata_191315-ICSD