
#(C) 2019 by FIZ Karlsruhe - Leibniz Institute for Information Infrastructure.  All rights reserved.
data_191321-ICSD
_database_code_ICSD 191321
_audit_creation_date 2014-08-01
_chemical_name_systematic 'Sodium uranium fluoride (1/6/25)'
_chemical_formula_structural 'Na U6 F25'
_chemical_formula_sum 'F25 Na1 U6'
_exptl_crystal_density_diffrn 6.7
_cell_measurement_temperature 293.
_publ_section_title

;
Crystal structures of tetravalent uranium fluorides obtained in the presence
of hydrazine from uranyl source
;
loop_
_citation_id
_citation_journal_full
_citation_year
_citation_journal_volume
_citation_page_first
_citation_page_last
_citation_journal_id_ASTM
primary 'Journal of Fluorine Chemistry' 2014 159 1 7 JFLCAR
loop_
_publ_author_name
'Olchowka, Jakub'
'Volkringer, Christophe'
'Henry, Natacha'
'Loiseau, Thierry'
_cell_length_a 8.1578(3)
_cell_length_b 8.1578(3)
_cell_length_c 16.5560(14)
_cell_angle_alpha 90
_cell_angle_beta 90
_cell_angle_gamma 120
_cell_volume 954.18
_cell_formula_units_Z 2
_symmetry_space_group_name_H-M 'P 63/m m c'
_symmetry_Int_Tables_number 194
_refine_ls_R_factor_all 0.0356
loop_
_symmetry_equiv_pos_site_id
_symmetry_equiv_pos_as_xyz
1 'x, x-y, -z+1/2'
2 '-x+y, y, -z+1/2'
3 '-y, -x, -z+1/2'
4 '-x+y, -x, -z+1/2'
5 '-y, x-y, -z+1/2'
6 'x, y, -z+1/2'
7 '-x, -x+y, z+1/2'
8 'x-y, -y, z+1/2'
9 'y, x, z+1/2'
10 'x-y, x, z+1/2'
11 'y, -x+y, z+1/2'
12 '-x, -y, z+1/2'
13 '-x, -x+y, -z'
14 'x-y, -y, -z'
15 'y, x, -z'
16 'x-y, x, -z'
17 'y, -x+y, -z'
18 '-x, -y, -z'
19 'x, x-y, z'
20 '-x+y, y, z'
21 '-y, -x, z'
22 '-x+y, -x, z'
23 '-y, x-y, z'
24 'x, y, z'
loop_
_atom_type_symbol
_atom_type_oxidation_number
U4+ 4
F1- -1
Na1+ 1
loop_
_atom_site_label
_atom_site_type_symbol
_atom_site_symmetry_multiplicity
_atom_site_Wyckoff_symbol
_atom_site_fract_x
_atom_site_fract_y
_atom_site_fract_z
_atom_site_B_iso_or_equiv
_atom_site_occupancy
_atom_site_attached_hydrogens
U1 U4+ 12 k 0.33080(6) 0.16540(3) 0.11251(3) 0.0072(3) 1 0
F1 F1- 6 h 0.2953(15) 0.1477(8) 0.25 0.017(3) 1 0
F2 F1- 12 k 0.5356(5) 0.4644(5) 0.1595(5) 0.0173(17) 1 0
F3 F1- 12 k 0.1554(5) 0.3108(11) 0.1489(7) 0.025(3) 1 0
F4 F1- 12 i 0.3263(7) 0 0 0.0101(17) 1 0
F5 F1- 4 e 0 0 0.0793(9) 0.028(3) 1 0
F6 F1- 4 f 0.666667 0.333333 0.0581(10) 0.024(4) 1 0
Na1 Na1+ 12 k 0.386(18) 0.693(9) 0.277(4) 0.14(5) 0.1667 0
loop_
_atom_site_aniso_label
_atom_site_aniso_type_symbol
_atom_site_aniso_U_11
_atom_site_aniso_U_22
_atom_site_aniso_U_33
_atom_site_aniso_U_12
_atom_site_aniso_U_13
_atom_site_aniso_U_23
U1 U4+ 0.0100(4) 0.0074(4) 0.0050(4) 0.0050(2) -0.00164(17) -0.00082(8)
#End of TTdata_191321-ICSD