
#(C) 2019 by FIZ Karlsruhe - Leibniz Institute for Information Infrastructure.  All rights reserved.
data_192012-ICSD
_database_code_ICSD 192012
_audit_creation_date 2015-02-01
_chemical_name_systematic 'Bismuth sodium potassium titanate (0.5/0.35/0.15/1)'
_chemical_formula_structural '(Bi0.5 Na0.35 K0.15) (Ti O3)'
_chemical_formula_sum 'Bi0.5 K0.15 Na0.35 O3 Ti1'
_chemical_name_structure_type Perovskite-NaBi(TiO3)2
_exptl_crystal_density_diffrn 5.94
_cell_measurement_temperature 293.
_publ_section_title

;
Structure and temperature-dependent phase transitions of lead-free Bi1/2 Na1/2
Ti O3 - Bi1/2 K1/2 Ti O3 - K0.5 Na0.5 Nb O3 piezoceramics
;
loop_
_citation_id
_citation_journal_full
_citation_year
_citation_journal_volume
_citation_page_first
_citation_page_last
_citation_journal_id_ASTM
primary 'Journal of Materials Research' 2012 27 2466 2478 JMREEE
loop_
_publ_author_name
'Anton, Eva-Maria'
'Schmitt, Ljubomira Ana'
'Hinterstein, Manuel'
'Trodahl, Joe'
'Kowalski, Ben'
'Jo, Wook'
'Kleebe, Hans-Joachim'
'Roedel, Juergen'
'Jones, Jacob L.'
_cell_length_a 5.5450(5)
_cell_length_b 5.5450(5)
_cell_length_c 3.8999(5)
_cell_angle_alpha 90.
_cell_angle_beta 90.
_cell_angle_gamma 90.
_cell_volume 119.91
_cell_formula_units_Z 2
_symmetry_space_group_name_H-M 'P 4 b m'
_symmetry_Int_Tables_number 100
_refine_ls_R_factor_all 0.049
loop_
_symmetry_equiv_pos_site_id
_symmetry_equiv_pos_as_xyz
1 '-y+1/2, -x+1/2, z'
2 'y+1/2, x+1/2, z'
3 'y, -x, z'
4 '-y, x, z'
5 '-x+1/2, y+1/2, z'
6 'x+1/2, -y+1/2, z'
7 '-x, -y, z'
8 'x, y, z'
loop_
_atom_type_symbol
_atom_type_oxidation_number
O2- -2
Bi3+ 3
Na1+ 1
K1+ 1
Ti4+ 4
loop_
_atom_site_label
_atom_site_type_symbol
_atom_site_symmetry_multiplicity
_atom_site_Wyckoff_symbol
_atom_site_fract_x
_atom_site_fract_y
_atom_site_fract_z
_atom_site_B_iso_or_equiv
_atom_site_occupancy
_atom_site_attached_hydrogens
O1 O2- 4 c 0.2432(12) 0.2568(12) 0.070(3) 0.0267(18) 1. 0
O2 O2- 2 a 0. 0. 0.526(6) 0.069(5) 1. 0
Bi1 Bi3+ 2 b 0. 0.5 0.585(5) 0.042(3) 0.5 0
Na1 Na1+ 2 b 0. 0.5 0.585(5) 0.042(3) 0.35 0
K1 K1+ 2 b 0. 0.5 0.585(5) 0.042(3) 0.15 0
Ti1 Ti4+ 2 a 0. 0. 0. -0.0024(15) 1. 0
#End of TTdata_192012-ICSD