
#(C) 2019 by FIZ Karlsruhe - Leibniz Institute for Information Infrastructure.  All rights reserved.
data_192003-ICSD
_database_code_ICSD 192003
_audit_creation_date 2015-02-01
_chemical_name_systematic 'Bismuth sodium potassium titanate (0.5/0.45/0.05/1)'
_chemical_formula_structural '(Bi0.5 Na0.45 K0.05) (Ti O3)'
_chemical_formula_sum 'Bi0.5 K0.05 Na0.45 O3 Ti1'
_chemical_name_structure_type LiNbO3
_exptl_crystal_density_diffrn 5.98
_cell_measurement_temperature 293.
_publ_section_title

;
Structure and temperature-dependent phase transitions of lead-free Bi1/2 Na1/2
Ti O3 - Bi1/2 K1/2 Ti O3 - K0.5 Na0.5 Nb O3 piezoceramics
;
loop_
_citation_id
_citation_journal_full
_citation_year
_citation_journal_volume
_citation_page_first
_citation_page_last
_citation_journal_id_ASTM
primary 'Journal of Materials Research' 2012 27 2466 2478 JMREEE
loop_
_publ_author_name
'Anton, Eva-Maria'
'Schmitt, Ljubomira Ana'
'Hinterstein, Manuel'
'Trodahl, Joe'
'Kowalski, Ben'
'Jo, Wook'
'Kleebe, Hans-Joachim'
'Roedel, Juergen'
'Jones, Jacob L.'
_cell_length_a 5.4948(3)
_cell_length_b 5.4948(3)
_cell_length_c 13.5620(10)
_cell_angle_alpha 90.
_cell_angle_beta 90.
_cell_angle_gamma 120.
_cell_volume 354.62
_cell_formula_units_Z 6
_symmetry_space_group_name_H-M 'R 3 c H'
_symmetry_Int_Tables_number 161
_refine_ls_R_factor_all 0.038
loop_
_symmetry_equiv_pos_site_id
_symmetry_equiv_pos_as_xyz
1 '-x+y, y, z+1/2'
2 'x, x-y, z+1/2'
3 '-y, -x, z+1/2'
4 '-x+y, -x, z'
5 '-y, x-y, z'
6 'x, y, z'
7 '-x+y+2/3, y+1/3, z+5/6'
8 'x+2/3, x-y+1/3, z+5/6'
9 '-y+2/3, -x+1/3, z+5/6'
10 '-x+y+2/3, -x+1/3, z+1/3'
11 '-y+2/3, x-y+1/3, z+1/3'
12 'x+2/3, y+1/3, z+1/3'
13 '-x+y+1/3, y+2/3, z+1/6'
14 'x+1/3, x-y+2/3, z+1/6'
15 '-y+1/3, -x+2/3, z+1/6'
16 '-x+y+1/3, -x+2/3, z+2/3'
17 '-y+1/3, x-y+2/3, z+2/3'
18 'x+1/3, y+2/3, z+2/3'
loop_
_atom_type_symbol
_atom_type_oxidation_number
O2- -2
Bi3+ 3
Na1+ 1
K1+ 1
Ti4+ 4
loop_
_atom_site_label
_atom_site_type_symbol
_atom_site_symmetry_multiplicity
_atom_site_Wyckoff_symbol
_atom_site_fract_x
_atom_site_fract_y
_atom_site_fract_z
_atom_site_B_iso_or_equiv
_atom_site_occupancy
_atom_site_attached_hydrogens
O1 O2- 18 b 0.1202(8) 0.3346(9) 0.08333 0.0123(7) 1. 0
Bi1 Bi3+ 6 a 0. 0. 0.2759(5) 0.029(2) 0.49994 0
Na1 Na1+ 6 a 0. 0. 0.2759(5) 0.029(2) 0.44991 0
K1 K1+ 6 a 0. 0. 0.2759(5) 0.029(2) 0.05003 0
Ti1 Ti4+ 6 a 0. 0. 0.0106(6) -0.0022(15) 0.99988 0
#End of TTdata_192003-ICSD