
#(C) 2019 by FIZ Karlsruhe - Leibniz Institute for Information Infrastructure.  All rights reserved.
data_192011-ICSD
_database_code_ICSD 192011
_audit_creation_date 2015-02-01
_chemical_name_systematic
'Bismuth sodium potassium titanate (0.5/0.375/0.125/1)'
_chemical_formula_structural '(Bi0.5 Na0.375 K0.125) (Ti O3)'
_chemical_formula_sum 'Bi0.5 K0.125 Na0.375 O3 Ti1'
_chemical_name_structure_type Perovskite-CaTiO3
_exptl_crystal_density_diffrn 6.
_cell_measurement_temperature 293.
_publ_section_title

;
Structure and temperature-dependent phase transitions of lead-free Bi1/2 Na1/2
Ti O3 - Bi1/2 K1/2 Ti O3 - K0.5 Na0.5 Nb O3 piezoceramics
;
loop_
_citation_id
_citation_journal_full
_citation_year
_citation_journal_volume
_citation_page_first
_citation_page_last
_citation_journal_id_ASTM
primary 'Journal of Materials Research' 2012 27 2466 2478 JMREEE
loop_
_publ_author_name
'Anton, Eva-Maria'
'Schmitt, Ljubomira Ana'
'Hinterstein, Manuel'
'Trodahl, Joe'
'Kowalski, Ben'
'Jo, Wook'
'Kleebe, Hans-Joachim'
'Roedel, Juergen'
'Jones, Jacob L.'
_cell_length_a 3.8984(4)
_cell_length_b 3.8984(4)
_cell_length_c 3.8984(4)
_cell_angle_alpha 90.
_cell_angle_beta 90.
_cell_angle_gamma 90.
_cell_volume 59.25
_cell_formula_units_Z 1
_symmetry_space_group_name_H-M 'P m -3 m'
_symmetry_Int_Tables_number 221
_refine_ls_R_factor_all 0.047
loop_
_symmetry_equiv_pos_site_id
_symmetry_equiv_pos_as_xyz
1 'z, y, -x'
2 'y, x, -z'
3 'x, z, -y'
4 'z, x, -y'
5 'y, z, -x'
6 'x, y, -z'
7 'z, -y, x'
8 'y, -x, z'
9 'x, -z, y'
10 'z, -x, y'
11 'y, -z, x'
12 'x, -y, z'
13 '-z, y, x'
14 '-y, x, z'
15 '-x, z, y'
16 '-z, x, y'
17 '-y, z, x'
18 '-x, y, z'
19 '-z, -y, -x'
20 '-y, -x, -z'
21 '-x, -z, -y'
22 '-z, -x, -y'
23 '-y, -z, -x'
24 '-x, -y, -z'
25 '-z, -y, x'
26 '-y, -x, z'
27 '-x, -z, y'
28 '-z, -x, y'
29 '-y, -z, x'
30 '-x, -y, z'
31 '-z, y, -x'
32 '-y, x, -z'
33 '-x, z, -y'
34 '-z, x, -y'
35 '-y, z, -x'
36 '-x, y, -z'
37 'z, -y, -x'
38 'y, -x, -z'
39 'x, -z, -y'
40 'z, -x, -y'
41 'y, -z, -x'
42 'x, -y, -z'
43 'z, y, x'
44 'y, x, z'
45 'x, z, y'
46 'z, x, y'
47 'y, z, x'
48 'x, y, z'
loop_
_atom_type_symbol
_atom_type_oxidation_number
O2- -2
Bi3+ 3
Na1+ 1
K1+ 1
Ti4+ 4
loop_
_atom_site_label
_atom_site_type_symbol
_atom_site_symmetry_multiplicity
_atom_site_Wyckoff_symbol
_atom_site_fract_x
_atom_site_fract_y
_atom_site_fract_z
_atom_site_B_iso_or_equiv
_atom_site_occupancy
_atom_site_attached_hydrogens
O1 O2- 3 c 0.5 0.5 0. 0.028(3) 1. 0
Bi1 Bi3+ 1 a 0. 0. 0. 0.035(5) 0.50016 0
Na1 Na1+ 1 a 0. 0. 0. 0.035(5) 0.37488 0
K1 K1+ 1 a 0. 0. 0. 0.035(5) 0.1248 0
Ti1 Ti4+ 1 b 0.5 0.5 0.5 0.010(4) 0.99984 0
#End of TTdata_192011-ICSD