
#(C) 2019 by FIZ Karlsruhe - Leibniz Institute for Information Infrastructure.  All rights reserved.
data_192163-ICSD
_database_code_ICSD 192163
_audit_creation_date 2015-02-01
_chemical_name_systematic 'Sodium tetrastrontium trilanthanum hexaborate'
_chemical_formula_structural 'Na Sr4 La3 (B O3)6'
_chemical_formula_sum 'B6 La3 Na1 O18 Sr4'
_chemical_name_structure_type Sr6HoSc(BO3)6
_exptl_crystal_density_diffrn 4.57
_cell_measurement_temperature 298.
_publ_section_title 'A new type of orthoborates: A Sr4 La3 (B O3)6 (A = Li, Na)'
loop_
_citation_id
_citation_journal_full
_citation_year
_citation_journal_volume
_citation_page_first
_citation_page_last
_citation_journal_id_ASTM
primary 'Solid State Sciences' 2014 29 75 78 SSSCFJ
loop_
_publ_author_name
'Zeng, Q.D.'
'Li, R.K.'
_cell_length_a 12.4049(13)
_cell_length_b 12.4049(13)
_cell_length_c 9.348(2)
_cell_angle_alpha 90.
_cell_angle_beta 90.
_cell_angle_gamma 120.
_cell_volume 1245.76
_cell_formula_units_Z 3
_symmetry_space_group_name_H-M 'R -3 H'
_symmetry_Int_Tables_number 148
_refine_ls_R_factor_all 0.0228
loop_
_symmetry_equiv_pos_site_id
_symmetry_equiv_pos_as_xyz
1 'x-y, x, -z'
2 'y, -x+y, -z'
3 '-x, -y, -z'
4 '-x+y, -x, z'
5 '-y, x-y, z'
6 'x, y, z'
7 'x-y+2/3, x+1/3, -z+1/3'
8 'y+2/3, -x+y+1/3, -z+1/3'
9 '-x+2/3, -y+1/3, -z+1/3'
10 '-x+y+2/3, -x+1/3, z+1/3'
11 '-y+2/3, x-y+1/3, z+1/3'
12 'x+2/3, y+1/3, z+1/3'
13 'x-y+1/3, x+2/3, -z+2/3'
14 'y+1/3, -x+y+2/3, -z+2/3'
15 '-x+1/3, -y+2/3, -z+2/3'
16 '-x+y+1/3, -x+2/3, z+2/3'
17 '-y+1/3, x-y+2/3, z+2/3'
18 'x+1/3, y+2/3, z+2/3'
loop_
_atom_type_symbol
_atom_type_oxidation_number
La3+ 3
Sr2+ 2
La3+ 3
Sr2+ 2
Na1+ 1
O2- -2
B3+ 3
loop_
_atom_site_label
_atom_site_type_symbol
_atom_site_symmetry_multiplicity
_atom_site_Wyckoff_symbol
_atom_site_fract_x
_atom_site_fract_y
_atom_site_fract_z
_atom_site_B_iso_or_equiv
_atom_site_occupancy
_atom_site_attached_hydrogens
La1 La3+ 18 f 0.80335(2) 0.08321(3) 0.36030(3) 0.0090(2) 0.475(1) 0
Sr1 Sr2+ 18 f 0.80335(2) 0.08321(3) 0.36030(3) 0.0090(2) 0.525(1) 0
La2 La3+ 3 a 0 0 0 0.0080(3) 0.148(6) 0
Sr2 Sr2+ 3 a 0 0 0 0.0080(3) 0.852(6) 0
Na1 Na1+ 3 b 0 0 0.5 0.0139(8) 1. 0
O1 O2- 18 f 0.5324(2) 0.1502(2) 0.1762(3) 0.0118(6) 1. 0
O2 O2- 18 f 0.9420(3) -0.1886(3) 0.6117(3) 0.0156(6) 1. 0
O3 O2- 18 f 0.6773(3) 0.0779(3) 0.1460(3) 0.0204(7) 1. 0
B1 B3+ 18 f 0.6067(4) 0.1240(4) 0.0897(5) 0.0088(9) 1. 0
#End of TTdata_192163-ICSD