
#(C) 2019 by FIZ Karlsruhe - Leibniz Institute for Information Infrastructure.  All rights reserved.
data_192191-ICSD
_database_code_ICSD 192191
_audit_creation_date 2015-02-01
_chemical_name_systematic 'Sodium potassium aluminosilicate (3/0.57/4)'
_chemical_formula_structural 'Na3 K0.57 (Al Si O4)4'
_chemical_formula_sum 'Al4 K0.57 Na3 O16 Si4'
_chemical_name_structure_type KNa3Al4(SiO4)4
_chemical_name_mineral Nepheline
_exptl_crystal_density_diffrn 2.61
_cell_measurement_temperature 293.
_publ_section_title

;
Nephelines from the Somma-Vesuvius volcanic complex (Southern Italy):
crystal-chemical, structural and genetic investigations
;
loop_
_citation_id
_citation_journal_full
_citation_year
_citation_journal_volume
_citation_page_first
_citation_page_last
_citation_journal_id_ASTM
primary 'Mineralogy and Petrology' 2014 108 71 90 MIPEE9
loop_
_publ_author_name
'Balassone, Giuseppina'
'Kahlenberg, Volker'
'Altomare, Angela'
'Mormone, Angela'
'Rizzi, Rosanna'
'Saviano, Michele'
'Mondillo, Nicola'
_cell_length_a 9.988756(16)
_cell_length_b 9.988756(16)
_cell_length_c 8.37153(3)
_cell_angle_alpha 90.
_cell_angle_beta 90.
_cell_angle_gamma 120.
_cell_volume 723.37
_cell_formula_units_Z 2
_symmetry_space_group_name_H-M 'P 63'
_symmetry_Int_Tables_number 173
_refine_ls_R_factor_all 0.0422
loop_
_symmetry_equiv_pos_site_id
_symmetry_equiv_pos_as_xyz
1 'x-y, x, z+1/2'
2 'y, -x+y, z+1/2'
3 '-x, -y, z+1/2'
4 '-x+y, -x, z'
5 '-y, x-y, z'
6 'x, y, z'
loop_
_atom_type_symbol
_atom_type_oxidation_number
Al3+ 3
Si4+ 4
K1+ 1
Na1+ 1
O2- -2
loop_
_atom_site_label
_atom_site_type_symbol
_atom_site_symmetry_multiplicity
_atom_site_Wyckoff_symbol
_atom_site_fract_x
_atom_site_fract_y
_atom_site_fract_z
_atom_site_B_iso_or_equiv
_atom_site_occupancy
_atom_site_attached_hydrogens
Al1 Al3+ 2 b 0.3333 0.6667 0.5123 0.008(3) 1. 0
Al2 Al3+ 6 c 0.3321 0.0967 0.5063 0.0036(11) 1. 0
Si1 Si4+ 2 b 0.6667 0.3333 0.6248(7) 0.008(2) 1. 0
Si2 Si4+ 6 c 0.2417(4) 0.3326(5) 0.6334(12) 0.0081(11) 1. 0
K1 K1+ 2 a 0. 0. 0.8117 0.0229(16) 0.570(4) 0
Na1 Na1+ 6 c 0.0033(3) 0.4458(3) 0.8124(15) 0.0156(6) 1. 0
O1 O2- 6 c 0.2651(9) 0.2251(9) 0.5014(16) 0.016(3) 1. 0
O2 O2- 6 c 0.5187(9) 0.1717(10) 0.5343(12) 0.036(2) 1. 0
O3 O2- 6 c 0.0590(9) 0.2872(9) 0.6267(15) 0.012(3) 1. 0
O4 O2- 6 c 0.2886(4) 0.3169(4) 0.8139(19) 0.0188(10) 1. 0
O5 O2- 6 c 0.3549(10) 0.5141(7) 0.5545(14) 0.0094(18) 1. 0
O6 O2- 6 c 0.6236(15) 0.2813(11) 0.806(3) 0.000(3) 0.3333 0
#End of TTdata_192191-ICSD