
#(C) 2019 by FIZ Karlsruhe - Leibniz Institute for Information Infrastructure.  All rights reserved.
data_192113-ICSD
_database_code_ICSD 192113
_audit_creation_date 2015-02-01
_chemical_name_systematic
'Sodium gadolinium lanthanum molybdate (0.5/0.25/0.25/1)'
_chemical_formula_structural '(Na0.5 Gd0.25 La0.25) (Mo O4)'
_chemical_formula_sum 'Gd0.25 La0.25 Mo1 Na0.5 O4'
_chemical_name_structure_type Scheelite-CaWO4
_exptl_crystal_density_diffrn 5.02
_cell_measurement_temperature 293.
_publ_section_title

;
Structure-property relationship for complex-substituted molybdates and
tungstates of the scheelite family
;
loop_
_citation_id
_citation_journal_full
_citation_year
_citation_journal_volume
_citation_page_first
_citation_page_last
_citation_journal_id_ASTM
primary 'Crystallography Reports' 2014 59 22 29 CYSTE3
loop_
_publ_author_name
'Kuz'micheva, G.M.'
'Zagorul'ko, E.A.'
'Bolotina, N.B.'
'Rybakov, V.B.'
'Zharikov, E.V.'
'Lis, D.A.'
'Subbotin, K.A.'
_cell_length_a 5.2872(3)
_cell_length_b 5.2872(3)
_cell_length_c 11.6079(17)
_cell_angle_alpha 90.
_cell_angle_beta 90.
_cell_angle_gamma 90.
_cell_volume 324.49
_cell_formula_units_Z 4
_symmetry_space_group_name_H-M 'I 41/a S'
_symmetry_Int_Tables_number 88
_refine_ls_R_factor_all 0.0457
loop_
_symmetry_equiv_pos_site_id
_symmetry_equiv_pos_as_xyz
1 'y, -x+1/2, z+1/4'
2 '-y, x+1/2, z+1/4'
3 'y, -x, -z'
4 '-y, x, -z'
5 '-x, -y+1/2, -z+1/4'
6 'x, y+1/2, -z+1/4'
7 '-x, -y, z'
8 'x, y, z'
9 'y+1/2, -x, z+3/4'
10 '-y+1/2, x, z+3/4'
11 'y+1/2, -x+1/2, -z+1/2'
12 '-y+1/2, x+1/2, -z+1/2'
13 '-x+1/2, -y, -z+3/4'
14 'x+1/2, y, -z+3/4'
15 '-x+1/2, -y+1/2, z+1/2'
16 'x+1/2, y+1/2, z+1/2'
loop_
_atom_type_symbol
_atom_type_oxidation_number
Na1+ 1
Gd3+ 3
La3+ 3
Mo6+ 6
O2- -2
loop_
_atom_site_label
_atom_site_type_symbol
_atom_site_symmetry_multiplicity
_atom_site_Wyckoff_symbol
_atom_site_fract_x
_atom_site_fract_y
_atom_site_fract_z
_atom_site_B_iso_or_equiv
_atom_site_occupancy
_atom_site_attached_hydrogens
Na1 Na1+ 4 b 0 0 0.5 0.006731(4) 0.4992(4) 0
Gd1 Gd3+ 4 b 0 0 0.5 0.006731(4) 0.2500(4) 0
La1 La3+ 4 b 0 0 0.5 0.006731(4) 0.2512(4) 0
Mo1 Mo6+ 4 a 0 0 0 0.008684(9) 1.0000(4) 0
O1 O2- 16 f 0.2413(6) 0.1511(6) 0.0861(8) 0.016577(12) 1.00(8) 0
#End of TTdata_192113-ICSD