
#(C) 2019 by FIZ Karlsruhe - Leibniz Institute for Information Infrastructure.  All rights reserved.
data_192202-ICSD
_database_code_ICSD 192202
_audit_creation_date 2015-02-01
_chemical_name_systematic 'Sodium potassium aluminosilicate (3/0.73/4)'
_chemical_formula_structural 'Na3 K0.73 (Al Si O4)4'
_chemical_formula_sum 'Al4 K0.73 Na3 O16 Si4'
_chemical_name_structure_type KNa3Al4(SiO4)4
_chemical_name_mineral Nepheline
_exptl_crystal_density_diffrn 2.64
_cell_measurement_temperature 298.
_publ_section_title

;
Nephelines from the Somma-Vesuvius volcanic complex (Southern Italy):
crystal-chemical, structural and genetic investigations
;
loop_
_citation_id
_citation_journal_full
_citation_year
_citation_journal_volume
_citation_page_first
_citation_page_last
_citation_journal_id_ASTM
primary 'Mineralogy and Petrology' 2014 108 71 90 MIPEE9
loop_
_publ_author_name
'Balassone, Giuseppina'
'Kahlenberg, Volker'
'Altomare, Angela'
'Mormone, Angela'
'Rizzi, Rosanna'
'Saviano, Michele'
'Mondillo, Nicola'
_cell_length_a 9.9900(6)
_cell_length_b 9.9900(6)
_cell_length_c 8.3668(6)
_cell_angle_alpha 90
_cell_angle_beta 90
_cell_angle_gamma 120
_cell_volume 723.13
_cell_formula_units_Z 2
_symmetry_space_group_name_H-M 'P 63'
_symmetry_Int_Tables_number 173
_refine_ls_R_factor_all 0.033
loop_
_symmetry_equiv_pos_site_id
_symmetry_equiv_pos_as_xyz
1 'x-y, x, z+1/2'
2 'y, -x+y, z+1/2'
3 '-x, -y, z+1/2'
4 '-x+y, -x, z'
5 '-y, x-y, z'
6 'x, y, z'
loop_
_atom_type_symbol
_atom_type_oxidation_number
K1+ 1
Na1+ 1
Al3+ 3
Si4+ 4
Al3+ 3
O2- -2
loop_
_atom_site_label
_atom_site_type_symbol
_atom_site_symmetry_multiplicity
_atom_site_Wyckoff_symbol
_atom_site_fract_x
_atom_site_fract_y
_atom_site_fract_z
_atom_site_B_iso_or_equiv
_atom_site_occupancy
_atom_site_attached_hydrogens
K1 K1+ 2 a 0 0 0.5088(4) 0.0214(3) 0.729(4) 0
Na1 Na1+ 6 c 0.44595(8) 0.44316(8) 0.5152(3) 0.01903(15) 1 0
Al1 Al3+ 2 b 0.3333 0.6667 0.70837(19) 0.0092(3) 1 0
Si1 Si4+ 2 b 0.3333 0.6667 0.31930(16) 0.0096(2) 1 0
Si2 Si4+ 6 c 0.24081(8) 0.33435(8) 0.82918(7) 0.00867(14) 1 0
Al2 Al3+ 6 c 0.23940(9) 0.33205(9) 0.20250(8) 0.00865(18) 1 0
O1 O2- 6 c 0.2929(10) 0.662(2) 0.5085(10) 0.0279(12) 0.33 0
O2 O2- 6 c 0.70928(15) 0.68303(18) 0.5094(4) 0.0222(3) 1 0
O3 O2- 6 c 0.3506(3) 0.5246(3) 0.2578(5) 0.0299(6) 1 0
O4 O2- 6 c 0.3487(3) 0.5098(3) 0.7710(5) 0.0256(5) 1 0
O5 O2- 6 c 0.2870(2) 0.2265(3) 0.3315(3) 0.0132(4) 1 0
O6 O2- 6 c 0.2673(2) 0.2241(3) 0.7091(3) 0.0160(4) 1 0
loop_
_atom_site_aniso_label
_atom_site_aniso_type_symbol
_atom_site_aniso_U_11
_atom_site_aniso_U_22
_atom_site_aniso_U_33
_atom_site_aniso_U_12
_atom_site_aniso_U_13
_atom_site_aniso_U_23
K1 K1+ 0.0172(3) 0.0172(3) 0.0297(6) 0.00860(15) 0 0
Na1 Na1+ 0.0202(3) 0.0150(3) 0.0156(3) 0.0041(3) 0.0002(7) -0.0006(7)
Al1 Al3+ 0.0081(3) 0.0081(3) 0.0115(7) 0.00406(17) 0 0
Si1 Si4+ 0.0100(3) 0.0100(3) 0.0089(6) 0.00498(15) 0 0
Si2 Si4+ 0.0077(3) 0.0083(3) 0.0108(4) 0.0045(2) -0.0003(3) 0.0001(3)
Al2 Al3+ 0.0075(3) 0.0084(3) 0.0111(4) 0.0047(3) 0.0003(4) 0.0006(4)
O1 O2- 0.031(5) 0.040(2) 0.0117(17) 0.017(6) -0.001(4) 0.003(7)
O2 O2- 0.0164(5) 0.0434(8) 0.0125(6) 0.0192(6) 0.0014(10) 0.0009(13)
O3 O2- 0.0104(9) 0.0079(8) 0.0716(18) 0.0047(8) -0.0030(10) -0.0084(10)
O4 O2- 0.0125(9) 0.0080(8) 0.0580(15) 0.0065(7) 0.0077(10) 0.0066(9)
O5 O2- 0.0177(8) 0.0117(7) 0.0141(9) 0.0103(6) -0.0009(7) 0.0003(8)
O6 O2- 0.0201(9) 0.0175(9) 0.0167(10) 0.0140(8) -0.0025(8) -0.0037(8)
#End of TTdata_192202-ICSD