
#(C) 2019 by FIZ Karlsruhe - Leibniz Institute for Information Infrastructure.  All rights reserved.
data_192212-ICSD
_database_code_ICSD 192212
_audit_creation_date 2015-02-01
_chemical_name_systematic 'Sodium magnesium molybdate (1.51/2.245/3)'
_chemical_formula_structural 'Na1.51 Mg2.245 (Mo O4)3'
_chemical_formula_sum 'Mg2.245 Mo3 Na1.51 O12'
_exptl_crystal_density_diffrn 3.52
_publ_section_title

;
Homogeneity regions of double molybdates in the Na2 Mo O4  -Mg Mo O4 system
and structures of triclinic Na1.51 Mg2.245 (Mo O4)3 and Na1.66 Mn2.17(Mo O4)3
;
loop_
_citation_id
_citation_journal_full
_citation_year
_citation_journal_volume
_citation_page_first
_citation_page_last
_citation_journal_id_ASTM
primary 'Journal of Structural Chemistry' 2013 54 917 925 JSTCAM
loop_
_publ_author_name
'Solodovnikov, S.F.'
'Solodovnikova, Z.A.'
'Gudkova, I.A.'
'Zolotova, E.S.'
'Yudin, V.N.'
_cell_length_a 6.9577(1)
_cell_length_b 8.6330(2)
_cell_length_c 10.2571(2)
_cell_angle_alpha 106.933(1)
_cell_angle_beta 104.864(1)
_cell_angle_gamma 103.453(1)
_cell_volume 537.27
_cell_formula_units_Z 2
_symmetry_space_group_name_H-M 'P -1'
_symmetry_Int_Tables_number 2
_refine_ls_R_factor_all 0.0188
loop_
_symmetry_equiv_pos_site_id
_symmetry_equiv_pos_as_xyz
1 '-x, -y, -z'
2 'x, y, z'
loop_
_atom_type_symbol
_atom_type_oxidation_number
Mo6+ 6
Mg2+ 2
Na1+ 1
O2- -2
loop_
_atom_site_label
_atom_site_type_symbol
_atom_site_symmetry_multiplicity
_atom_site_Wyckoff_symbol
_atom_site_fract_x
_atom_site_fract_y
_atom_site_fract_z
_atom_site_B_iso_or_equiv
_atom_site_occupancy
_atom_site_attached_hydrogens
Mo1 Mo6+ 2 i 0.38298(3) -0.09383(3) 0.66632(2) 0.01156(7) 1. 0
Mo2 Mo6+ 2 i 0.28553(3) 0.33562(3) 0.74005(2) 0.01222(7) 1. 0
Mo3 Mo6+ 2 i 0.09511(3) 0.25888(3) 0.13018(2) 0.01489(8) 1. 0
Mg1 Mg2+ 2 i 0.5414(1) 0.1993(1) 0.0169(1) 0.0128(2) 1. 0
Mg2 Mg2+ 2 i 0.1234(1) 0.0444(1) 0.3960(1) 0.0136(2) 1. 0
Mg3 Mg2+ 2 i 0.2132(2) -0.2910(2) 0.1971(1) 0.0239(3) 0.245(3) 0
Na1 Na1+ 2 i 0.2132(2) -0.2910(2) 0.1971(1) 0.0239(3) 0.755(3) 0
Na2 Na1+ 2 i 0.471(2) 0.495(3) 0.483(2) 0.033(2) 0.5 0
Na3 Na1+ 2 i 0.034(1) -0.5439(9) 0.4443(8) 0.052(2) 0.255(3) 0
O1 O2- 2 i 0.3221(4) -0.3101(3) 0.5769(2) 0.0264(5) 1. 0
O2 O2- 2 i 0.4196(3) -0.0578(2) 0.8524(2) 0.0139(3) 1. 0
O3 O2- 2 i 0.1712(3) -0.0307(3) 0.5790(2) 0.0155(4) 1. 0
O4 O2- 2 i 0.6209(3) 0.0092(3) 0.6487(2) 0.0198(4) 1. 0
O5 O2- 2 i 0.0350(3) 0.2230(3) 0.7342(2) 0.0201(4) 1. 0
O6 O2- 2 i 0.3345(3) 0.5531(3) 0.8277(2) 0.0237(4) 1. 0
O7 O2- 2 i 0.4806(3) 0.2688(3) 0.8383(2) 0.0198(4) 1. 0
O8 O2- 2 i 0.2824(3) 0.2948(3) 0.5599(2) 0.0191(4) 1. 0
O9 O2- 2 i -0.1531(3) 0.2352(3) 0.0072(2) 0.0216(4) 1. 0
O10 O2- 2 i 0.2509(3) 0.1945(3) 0.0366(3) 0.0320(5) 1. 0
O11 O2- 2 i 0.0663(4) 0.1496(4) 0.2478(3) 0.0363(6) 1. 0
O12 O2- 2 i 0.2292(5) 0.4734(4) 0.2401(3) 0.0554(9) 1. 0
#End of TTdata_192212-ICSD