
#(C) 2019 by FIZ Karlsruhe - Leibniz Institute for Information Infrastructure.  All rights reserved.
data_192370-ICSD
_database_code_ICSD 192370
_audit_creation_date 2015-02-01
_chemical_name_systematic
'Sodium magnesium aluminium silicon oxide (1.07/1.58/4.91/1.26/12)'
_chemical_formula_structural
'Na0.82 (Na0.125 Mg0.79 Al0.085)2 (Al0.79 Si0.21)6 O12'
_chemical_formula_sum 'Al4.91 Mg1.58 Na1.07 O12 Si1.26'
_chemical_name_structure_type CaMg2Al6O12
_exptl_crystal_density_diffrn 3.85
_cell_measurement_temperature 293.
_publ_section_title

;
Hexagonal Na0.41 (Na0.125 Mg0.79 Al0.085)2  (Al0.79 Si0.21)6 O12 (NAL phase):
Crystal structure refinement and elasticity
;
loop_
_citation_id
_citation_journal_full
_citation_year
_citation_journal_volume
_citation_page_first
_citation_page_last
_citation_journal_id_ASTM
primary 'American Mineralogist' 2014 99 1562 1569 AMMIAY
loop_
_publ_author_name
'Pamato, Martha G.'
'Kurnosov, Alexander'
'Ballaran, Tiziana Boffa'
'Trots, Dmytro M.'
'Caracas, Razvan'
'Frost, Daniel J.'
_cell_length_a 8.7225(4)
_cell_length_b 8.7225(4)
_cell_length_c 2.7664(2)
_cell_angle_alpha 90.
_cell_angle_beta 90.
_cell_angle_gamma 120.
_cell_volume 182.28
_cell_formula_units_Z 1
_symmetry_space_group_name_H-M 'P 63/m'
_symmetry_Int_Tables_number 176
_refine_ls_R_factor_all 0.0285
loop_
_symmetry_equiv_pos_site_id
_symmetry_equiv_pos_as_xyz
1 '-x+y, -x, -z+1/2'
2 '-y, x-y, -z+1/2'
3 'x, y, -z+1/2'
4 'x-y, x, -z'
5 'y, -x+y, -z'
6 '-x, -y, -z'
7 'x-y, x, z+1/2'
8 'y, -x+y, z+1/2'
9 '-x, -y, z+1/2'
10 '-x+y, -x, z'
11 '-y, x-y, z'
12 'x, y, z'
loop_
_atom_type_symbol
_atom_type_oxidation_number
Al3+ 3
Si4+ 4
Mg2+ 2
Al3+ 3
Na1+ 1
O2- -2
loop_
_atom_site_label
_atom_site_type_symbol
_atom_site_symmetry_multiplicity
_atom_site_Wyckoff_symbol
_atom_site_fract_x
_atom_site_fract_y
_atom_site_fract_z
_atom_site_B_iso_or_equiv
_atom_site_occupancy
_atom_site_attached_hydrogens
Al1 Al3+ 6 h 0.98946(8) 0.34353(9) 0.25 0.00559(16) 0.79 0
Si1 Si4+ 6 h 0.98946(8) 0.34353(9) 0.25 0.00559(16) 0.21 0
Mg1 Mg2+ 2 d 0.6667 0.3333 0.25 0.0093(3) 0.79 0
Al2 Al3+ 2 d 0.6667 0.3333 0.25 0.0093(3) 0.09 0
Na1 Na1+ 2 d 0.6667 0.3333 0.25 0.0093(3) 0.12 0
Na2 Na1+ 2 a 0. 0. 0.25 0.089(7) 0.41 0
O1 O2- 6 h 0.1283(2) 0.5989(2) 0.25 0.0090(3) 1 0
O2 O2- 6 h 0.3124(2) 0.2023(2) 0.25 0.0089(3) 1 0
loop_
_atom_site_aniso_label
_atom_site_aniso_type_symbol
_atom_site_aniso_U_11
_atom_site_aniso_U_22
_atom_site_aniso_U_33
_atom_site_aniso_U_12
_atom_site_aniso_U_13
_atom_site_aniso_U_23
Al1 Al3+ 0.0058(2) 0.0057(3) 0.0053(3) 0.0029(2) 0. 0.
Si1 Si4+ 0.0058(2) 0.0057(3) 0.0053(3) 0.0029(2) 0. 0.
Mg1 Mg2+ 0.0093(4) 0.0093(4) 0.0094(6) 0.00466(18) 0. 0.
Al2 Al3+ 0.0093(4) 0.0093(4) 0.0094(6) 0.00466(18) 0. 0.
Na1 Na1+ 0.0093(4) 0.0093(4) 0.0094(6) 0.00466(18) 0. 0.
Na2 Na1+ 0.0070(10) 0.0070(10) 0.25(2) 0.0035(5) 0. 0.
O1 O2- 0.0069(6) 0.0070(6) 0.0125(7) 0.0029(5) 0. 0.
O2 O2- 0.0089(6) 0.0088(6) 0.0100(7) 0.0053(5) 0. 0.
#End of TTdata_192370-ICSD