
#(C) 2019 by FIZ Karlsruhe - Leibniz Institute for Information Infrastructure.  All rights reserved.
data_192402-ICSD
_database_code_ICSD 192402
_audit_creation_date 2015-02-01
_chemical_name_systematic 'Sodium niobate'
_chemical_formula_structural 'Na (Nb O3)'
_chemical_formula_sum 'Na1 Nb1 O3'
_chemical_name_structure_type Perovskite-GdFeO3
_chemical_name_mineral Lueshite
_exptl_crystal_density_diffrn 4.59
_publ_section_title 'Observations on the crystal structures of lueshite'
loop_
_citation_id
_citation_journal_full
_citation_year
_citation_journal_volume
_citation_page_first
_citation_page_last
_citation_journal_id_ASTM
primary 'Physics and Chemistry of Minerals' 2014 41 393 401 PCMIDU
loop_
_publ_author_name
'Mitchell, Roger H.'
'Burns, Peter C.'
'Knight, Kevin S.'
'Howard, Christopher J.'
'Chakhmouradian, Anton R.'
_cell_length_a 5.5(5)
_cell_length_b 5.5275(5)
_cell_length_c 7.8059(7)
_cell_angle_alpha 90.
_cell_angle_beta 90.
_cell_angle_gamma 90.
_cell_volume 237.31
_cell_formula_units_Z 4
_symmetry_space_group_name_H-M 'P b n m'
_symmetry_Int_Tables_number 62
_refine_ls_R_factor_all 0.0359
loop_
_symmetry_equiv_pos_site_id
_symmetry_equiv_pos_as_xyz
1 '-x+1/2, y+1/2, z'
2 'x, y, -z+1/2'
3 'x+1/2, -y+1/2, z+1/2'
4 '-x, -y, -z'
5 'x+1/2, -y+1/2, -z'
6 '-x, -y, z+1/2'
7 '-x+1/2, y+1/2, -z+1/2'
8 'x, y, z'
loop_
_atom_type_symbol
_atom_type_oxidation_number
Nb5+ 5
Na1+ 1
O2- -2
loop_
_atom_site_label
_atom_site_type_symbol
_atom_site_symmetry_multiplicity
_atom_site_Wyckoff_symbol
_atom_site_fract_x
_atom_site_fract_y
_atom_site_fract_z
_atom_site_B_iso_or_equiv
_atom_site_occupancy
_atom_site_attached_hydrogens
Nb1 Nb5+ 4 b 0 0.5 0 0.0113(3) 1. 0
Na1 Na1+ 4 c 0.9956(3) 0.0069(3) 0.25 0.0250(14) 1. 0
O1 O2- 4 c 0.0533(10) 0.4945(6) 0.25 0.0174(11) 1. 0
O2 O2- 8 d 0.7182(7) 0.2831(7) 0.0216(4) 0.0184(8) 1. 0
loop_
_atom_site_aniso_label
_atom_site_aniso_type_symbol
_atom_site_aniso_U_11
_atom_site_aniso_U_22
_atom_site_aniso_U_33
_atom_site_aniso_U_12
_atom_site_aniso_U_13
_atom_site_aniso_U_23
Nb1 Nb5+ 0.0077(10) 0.0157(14) 0.0106(3) 0.0038(2) -0.0001(1) 0.0001(1)
Na1 Na1+ 0.0121(27) 0.0409(49) 0.0221(18) -0.0052(6) 0. 0.
O1 O2- 0.0154(20) 0.0192(28) 0.0176(24) -0.0019(16) 0. 0.
O2 O2- 0.0135(21) 0.0154(25) 0.0262(15) 0.0021(13) 0.0026(12) -0.0016(12)
#End of TTdata_192402-ICSD