
#(C) 2018 by FIZ Karlsruhe - Leibniz Institute for Information Infrastructure.  All rights reserved.
data_192495-ICSD
_database_code_ICSD 192495
_audit_creation_date 2015-02-01
_chemical_name_systematic 'Lithium deuterium strontium ditantalate'
_chemical_formula_structural 'Li D Sr (Ta2 O7)'
_chemical_formula_sum 'D1 Li1 O7 Sr1 Ta2'
_chemical_name_structure_type Li2SrTa2O7
_exptl_crystal_density_diffrn 6.54
_cell_measurement_temperature 523.
_publ_section_title

;
Thermal structural characterization of the acentric layered perovskite Li H Sr
Ta2 O7: X-ray and neutron diffraction, SHG and Raman experiments
;
loop_
_citation_id
_citation_journal_full
_citation_year
_citation_journal_volume
_citation_page_first
_citation_page_last
_citation_journal_id_ASTM
primary 'Dalton Transactions' 2014 43 14841 14850 DTARAF
loop_
_publ_author_name
'Galven, Cyrille'
'Mounier, Denis'
'Pagnier, Thierry'
'Suard, Emmanuelle'
'Le Berre, Francoise'
'Crosnier-Lopez, Marie-Pierre'
_cell_length_a 3.9292(1)
_cell_length_b 3.9292(1)
_cell_length_c 18.7716(3)
_cell_angle_alpha 90.
_cell_angle_beta 90.
_cell_angle_gamma 90.
_cell_volume 289.81
_cell_formula_units_Z 2
_symmetry_space_group_name_H-M 'I 4/m m m'
_symmetry_Int_Tables_number 139
_refine_ls_R_factor_all 0.02
loop_
_symmetry_equiv_pos_site_id
_symmetry_equiv_pos_as_xyz
1 'y, x, -z'
2 '-y, -x, -z'
3 '-y, x, -z'
4 'y, -x, -z'
5 '-x, y, -z'
6 'x, -y, -z'
7 'x, y, -z'
8 '-x, -y, -z'
9 '-y, -x, z'
10 'y, x, z'
11 'y, -x, z'
12 '-y, x, z'
13 'x, -y, z'
14 '-x, y, z'
15 '-x, -y, z'
16 'x, y, z'
17 'y+1/2, x+1/2, -z+1/2'
18 '-y+1/2, -x+1/2, -z+1/2'
19 '-y+1/2, x+1/2, -z+1/2'
20 'y+1/2, -x+1/2, -z+1/2'
21 '-x+1/2, y+1/2, -z+1/2'
22 'x+1/2, -y+1/2, -z+1/2'
23 'x+1/2, y+1/2, -z+1/2'
24 '-x+1/2, -y+1/2, -z+1/2'
25 '-y+1/2, -x+1/2, z+1/2'
26 'y+1/2, x+1/2, z+1/2'
27 'y+1/2, -x+1/2, z+1/2'
28 '-y+1/2, x+1/2, z+1/2'
29 'x+1/2, -y+1/2, z+1/2'
30 '-x+1/2, y+1/2, z+1/2'
31 '-x+1/2, -y+1/2, z+1/2'
32 'x+1/2, y+1/2, z+1/2'
loop_
_atom_type_symbol
_atom_type_oxidation_number
Ta5+ 5
Sr2+ 2
O2- -2
Li1+ 1
D1+ 1
loop_
_atom_site_label
_atom_site_type_symbol
_atom_site_symmetry_multiplicity
_atom_site_Wyckoff_symbol
_atom_site_fract_x
_atom_site_fract_y
_atom_site_fract_z
_atom_site_B_iso_or_equiv
_atom_site_occupancy
_atom_site_attached_hydrogens
Ta1 Ta5+ 4 e 0 0 0.3873(1) 1.19 1. 0
Sr1 Sr2+ 2 a 0 0 0 1.63 1. 0
O1 O2- 2 b 0 0 0.5 2.36 1. 0
O2 O2- 4 e 0 0 0.2862(1) 2.58 1. 0
O3 O2- 8 g 0 0.5 0.1022(1) 2.07 1. 0
Li1 Li1+ 4 d 0 0.5 0.25 3.01 0.5 0
D1 D1+ 16 m 0.649(1) 0.649(1) 0.2422(5) 6.59 0.125 0
loop_
_atom_site_aniso_label
_atom_site_aniso_type_symbol
_atom_site_aniso_beta_11
_atom_site_aniso_beta_22
_atom_site_aniso_beta_33
_atom_site_aniso_beta_12
_atom_site_aniso_beta_13
_atom_site_aniso_beta_23
Ta1 Ta5+ 0.0152(4) 0.0152(4) 0.0012(1) 0. 0. 0.
Sr1 Sr2+ 0.0223(6) 0.0223(6) 0.0015(1) 0. 0. 0.
O1 O2- 0.0339(7) 0.0339(7) 0.0021(1) 0. 0. 0.
O2 O2- 0.0476(7) 0.0476(7) 0.0013(1) 0. 0. 0.
O3 O2- 0.0142(6) 0.0301(6) 0.0025(1) 0. 0. 0.
Li1 Li1+ 0.0459(36) 0.0459(36) 0.0024(4) 0. 0. 0.
D1 D1+ 0.0966(40) 0.0966(40) 0.0055(4) -0.0116(40) -0.0045(9) -0.0045(9)
#End of TTdata_192495-ICSD