
#(C) 2019 by FIZ Karlsruhe - Leibniz Institute for Information Infrastructure.  All rights reserved.
data_192420-ICSD
_database_code_ICSD 192420
_audit_creation_date 2015-02-01
_chemical_name_systematic 'Sodium chromium hexaoxodisilicate'
_chemical_formula_structural 'Na Cr (Si2 O6)'
_chemical_formula_sum 'Cr1 Na1 O6 Si2'
_chemical_name_structure_type Pyroxene-CaMg(SiO3)2
_chemical_name_mineral Kosmochlor
_exptl_crystal_density_diffrn 4.31
_cell_measurement_pressure 31300000.
_publ_section_title

;
High-pressure single-crystal X-ray diffraction study of jadeite and kosmochlor
;
loop_
_citation_id
_citation_journal_full
_citation_year
_citation_journal_volume
_citation_page_first
_citation_page_last
_citation_journal_id_ASTM
primary 'Physics and Chemistry of Minerals' 2014 41 695 707 PCMIDU
loop_
_publ_author_name
'Posner, Esther S.'
'Dera, Przemyslaw'
'Downs, Robert T.'
'Lazarz, John D.'
'Irmen, Peyton'
_cell_length_a 9.084(3)
_cell_length_b 8.077(3)
_cell_length_c 4.9544(6)
_cell_angle_alpha 90.
_cell_angle_beta 105.70(1)
_cell_angle_gamma 90.
_cell_volume 349.95
_cell_formula_units_Z 4
_symmetry_space_group_name_H-M 'C 1 2/c 1'
_symmetry_Int_Tables_number 15
_refine_ls_R_factor_all 0.0436
loop_
_symmetry_equiv_pos_site_id
_symmetry_equiv_pos_as_xyz
1 'x, -y, z+1/2'
2 '-x, -y, -z'
3 '-x, y, -z+1/2'
4 'x, y, z'
5 'x+1/2, -y+1/2, z+1/2'
6 '-x+1/2, -y+1/2, -z'
7 '-x+1/2, y+1/2, -z+1/2'
8 'x+1/2, y+1/2, z'
loop_
_atom_type_symbol
_atom_type_oxidation_number
Na1+ 1
Cr3+ 3
Si4+ 4
O2- -2
loop_
_atom_site_label
_atom_site_type_symbol
_atom_site_symmetry_multiplicity
_atom_site_Wyckoff_symbol
_atom_site_fract_x
_atom_site_fract_y
_atom_site_fract_z
_atom_site_B_iso_or_equiv
_atom_site_occupancy
_atom_site_attached_hydrogens
Na1 Na1+ 4 e 0 0.3128(7) 0.25 0.011(2) 1. 0
Cr1 Cr3+ 4 e 0 0.0876(2) 0.75 0.005(1) 1. 0
Si1 Si4+ 8 f 0.2940(2) 0.0973(3) 0.2412(3) 0.006(1) 1. 0
O1 O2- 8 f 0.1120(7) 0.0903(7) 0.1380(9) 0.009(1) 1. 0
O2 O2- 8 f 0.3578(1) 0.2710(8) 0.3417(9) 0.010(1) 1. 0
O3 O2- 8 f 0.1368(5) 0.4653(8) 0.0057(8) 0.008(1) 1. 0
loop_
_atom_site_aniso_label
_atom_site_aniso_type_symbol
_atom_site_aniso_U_11
_atom_site_aniso_U_22
_atom_site_aniso_U_33
_atom_site_aniso_U_12
_atom_site_aniso_U_13
_atom_site_aniso_U_23
Na1 Na1+ 0.007(3) 0.016(5) 0.009(2) 0. 0.000(2) 0.
Cr1 Cr3+ 0.007(1) 0.006(2) 0.003(1) 0. 0.002(1) 0.
Si1 Si4+ 0.006(2) 0.009(2) 0.004(1) 0.002(1) 0.001(1) 0.000(1)
#End of TTdata_192420-ICSD