
#(C) 2019 by FIZ Karlsruhe - Leibniz Institute for Information Infrastructure.  All rights reserved.
data_192562-ICSD
_database_code_ICSD 192562
_audit_creation_date 2015-02-01
_chemical_name_systematic 'Sodium barium borate'
_chemical_formula_structural 'Na Ba (B O3)'
_chemical_formula_sum 'B1 Ba1 Na1 O3'
_chemical_name_structure_type Na2CO3(HT)
_exptl_crystal_density_diffrn 4.46
_publ_section_title

;
Coprecipitation synthesis, structure and photoluminescence properties of
Eu(3+)-doped sodium barium borate
;
loop_
_citation_id
_citation_journal_full
_citation_year
_citation_journal_volume
_citation_page_first
_citation_page_last
_citation_journal_id_ASTM
primary 'Journal of Alloys and Compounds' 2014 617 946 951 JALCEU
loop_
_publ_author_name
'Qiao, Xuebin'
'Cheng, Yu'
'Qin, Lin'
'Qin, Chuanxiang'
'Cai, Peiqing'
'Kim, Sun Il'
'Seo, Hyo Jin'
_cell_length_a 9.5787(12)
_cell_length_b 5.5696(7)
_cell_length_c 6.1923(7)
_cell_angle_alpha 90.
_cell_angle_beta 98.87(1)
_cell_angle_gamma 90.
_cell_volume 326.41
_cell_formula_units_Z 4
_symmetry_space_group_name_H-M 'C 1 2/m 1'
_symmetry_Int_Tables_number 12
_refine_ls_R_factor_all 0.0035
loop_
_symmetry_equiv_pos_site_id
_symmetry_equiv_pos_as_xyz
1 '-x, y, -z'
2 '-x, -y, -z'
3 'x, -y, z'
4 'x, y, z'
5 '-x+1/2, y+1/2, -z'
6 '-x+1/2, -y+1/2, -z'
7 'x+1/2, -y+1/2, z'
8 'x+1/2, y+1/2, z'
loop_
_atom_type_symbol
_atom_type_oxidation_number
Ba2+ 2
Na1+ 1
O2- -2
B3+ 3
loop_
_atom_site_label
_atom_site_type_symbol
_atom_site_symmetry_multiplicity
_atom_site_Wyckoff_symbol
_atom_site_fract_x
_atom_site_fract_y
_atom_site_fract_z
_atom_site_B_iso_or_equiv
_atom_site_occupancy
_atom_site_attached_hydrogens
Ba1 Ba2+ 4 i 0.6689(5) 0 0.7446(7) 0.0600(25) 1. 0
Na1 Na1+ 2 a 0 0 0 0.163(22) 1. 0
Na2 Na1+ 2 c 0 0 0.5 0.082(17) 1. 0
O1 O2- 4 i 0.79727 0 0.1781 0.025 1. 0
O2 O2- 8 j 0.60235 0.2131 0.2911 0.025 1. 0
B1 B3+ 4 i 0.652(4) 0 0.307(6) -0.039(14) 1. 0
#End of TTdata_192562-ICSD