
#(C) 2019 by FIZ Karlsruhe - Leibniz Institute for Information Infrastructure.  All rights reserved.
data_192634-ICSD
_database_code_ICSD 192634
_audit_creation_date 2015-02-01
_chemical_name_systematic
'Sodium aluminium chromium pyrophosphate (1/0.5/0.5/1)'
_chemical_formula_structural 'Na (Al0.5 Cr0.5) (P2 O7)'
_chemical_formula_sum 'Al0.5 Cr0.5 Na1 O7 P2'
_chemical_name_structure_type Mg2P2O7
_exptl_crystal_density_diffrn 3.19
_publ_section_title

;
Structural relaxation around Cr(3+) at the Na (Al1-x Crx) P2 O7 octahedral
site: an XRPD and EAS study
;
loop_
_citation_id
_citation_journal_full
_citation_year
_citation_journal_volume
_citation_page_first
_citation_page_last
_citation_journal_id_ASTM
primary 'Zeitschrift fuer Kristallographie - Crystalline Materials' 2014 229 687
697 ZKCMAJ
loop_
_publ_author_name
'Ardit, Matteo'
'Dondi, Michele'
'Zanelli, Chiara'
'Cruciani, Giuseppe'
_cell_length_a 7.2423(1)
_cell_length_b 7.7747(2)
_cell_length_c 9.3963(2)
_cell_angle_alpha 90.
_cell_angle_beta 111.72(1)
_cell_angle_gamma 90.
_cell_volume 491.51
_cell_formula_units_Z 4
_symmetry_space_group_name_H-M 'P 1 21/c 1'
_symmetry_Int_Tables_number 14
_refine_ls_R_factor_all 0.0222
loop_
_symmetry_equiv_pos_site_id
_symmetry_equiv_pos_as_xyz
1 'x, -y+1/2, z+1/2'
2 '-x, -y, -z'
3 '-x, y+1/2, -z+1/2'
4 'x, y, z'
loop_
_atom_type_symbol
_atom_type_oxidation_number
P5+ 5
Al3+ 3
Cr3+ 3
Na1+ 1
O2- -2
loop_
_atom_site_label
_atom_site_type_symbol
_atom_site_symmetry_multiplicity
_atom_site_Wyckoff_symbol
_atom_site_fract_x
_atom_site_fract_y
_atom_site_fract_z
_atom_site_B_iso_or_equiv
_atom_site_occupancy
_atom_site_attached_hydrogens
P1 P5+ 4 e 0.3324(3) 0.2110(3) 0.5458(2) 0.0039 1. 0
P2 P5+ 4 e 0.9216(3) 0.2583(3) 0.5477(3) 0.0067 1. 0
Al1 Al3+ 4 e 0.7402(3) 0.4951(3) 0.2534(2) 0.0025 0.5 0
Cr1 Cr3+ 4 e 0.7402(3) 0.4951(3) 0.2534(2) 0.0025 0.5 0
Na1 Na1+ 4 e 0.2920(4) 0.9788(4) 0.7958(3) 0.0168 1. 0
O1 O2- 4 e 0.1200(3) 0.1597(4) 0.5542(5) 0.0359 1. 0
O2 O2- 4 e 0.4711(5) 0.0826(4) 0.6529(4) 0.0225 1. 0
O3 O2- 4 e 0.8070(4) 0.1334(4) 0.6116(4) 0.007 1. 0
O4 O2- 4 e -0.0076(6) 0.4133(4) 0.6479(4) 0.0065 1. 0
O5 O2- 4 e 0.3639(5) 0.3983(3) 0.5978(4) 0.0133 1. 0
O6 O2- 4 e 0.8035(5) 0.2916(5) 0.3799(3) 0.0078 1. 0
O7 O2- 4 e 0.3103(5) 0.1957(5) 0.3798(3) 0.0105 1. 0
#End of TTdata_192634-ICSD