
#(C) 2019 by FIZ Karlsruhe - Leibniz Institute for Information Infrastructure.  All rights reserved.
data_192636-ICSD
_database_code_ICSD 192636
_audit_creation_date 2015-02-01
_chemical_name_systematic 'Sodium chromium pyrophosphate'
_chemical_formula_structural 'Na Cr (P2 O7)'
_chemical_formula_sum 'Cr1 Na1 O7 P2'
_chemical_name_structure_type Mg2P2O7
_exptl_crystal_density_diffrn 3.29
_publ_section_title

;
Structural relaxation around Cr(3+) at the Na (Al1-x Crx) P2 O7 octahedral
site: an XRPD and EAS study
;
loop_
_citation_id
_citation_journal_full
_citation_year
_citation_journal_volume
_citation_page_first
_citation_page_last
_citation_journal_id_ASTM
primary 'Zeitschrift fuer Kristallographie - Crystalline Materials' 2014 229 687
697 ZKCMAJ
loop_
_publ_author_name
'Ardit, Matteo'
'Dondi, Michele'
'Zanelli, Chiara'
'Cruciani, Giuseppe'
_cell_length_a 7.2827(1)
_cell_length_b 7.8308(1)
_cell_length_c 9.4733(1)
_cell_angle_alpha 90.
_cell_angle_beta 111.72(1)
_cell_angle_gamma 90.
_cell_volume 501.9
_cell_formula_units_Z 4
_symmetry_space_group_name_H-M 'P 1 21/c 1'
_symmetry_Int_Tables_number 14
_refine_ls_R_factor_all 0.0272
loop_
_symmetry_equiv_pos_site_id
_symmetry_equiv_pos_as_xyz
1 'x, -y+1/2, z+1/2'
2 '-x, -y, -z'
3 '-x, y+1/2, -z+1/2'
4 'x, y, z'
loop_
_atom_type_symbol
_atom_type_oxidation_number
P5+ 5
Cr3+ 3
Na1+ 1
O2- -2
loop_
_atom_site_label
_atom_site_type_symbol
_atom_site_symmetry_multiplicity
_atom_site_Wyckoff_symbol
_atom_site_fract_x
_atom_site_fract_y
_atom_site_fract_z
_atom_site_B_iso_or_equiv
_atom_site_occupancy
_atom_site_attached_hydrogens
P1 P5+ 4 e 0.3263(2) 0.2117(2) 0.5437(2) 0.004 1. 0
P2 P5+ 4 e 0.9243(2) 0.2564(2) 0.5452(2) 0.0026 1. 0
Cr1 Cr3+ 4 e 0.7403(1) 0.4939(1) 0.2527(1) 0.0011 1. 0
Na1 Na1+ 4 e 0.2913(3) 0.9783(3) 0.7965(2) 0.0156 1. 0
O1 O2- 4 e 0.1197(2) 0.1535(2) 0.5551(3) 0.0045 1. 0
O2 O2- 4 e 0.4671(4) 0.0863(3) 0.6504(3) 0.0252 1. 0
O3 O2- 4 e 0.8095(3) 0.1368(3) 0.6114(3) 0.0024 1. 0
O4 O2- 4 e -0.0133(4) 0.4134(3) 0.6420(3) 0.0029 1. 0
O5 O2- 4 e 0.3627(4) 0.3966(2) 0.5982(3) 0.0056 1. 0
O6 O2- 4 e 0.8056(3) 0.2870(4) 0.3783(2) 0.0134 1. 0
O7 O2- 4 e 0.3154(3) 0.2003(4) 0.3815(2) 0.005 1. 0
#End of TTdata_192636-ICSD