
#(C) 2019 by FIZ Karlsruhe - Leibniz Institute for Information Infrastructure.  All rights reserved.
data_193087-ICSD
_database_code_ICSD 193087
_audit_creation_date 2015-02-01
_chemical_name_systematic 'Sodium magnesium trifluoride'
_chemical_formula_structural 'Na Mg F3'
_chemical_formula_sum 'F3 Mg1 Na1'
_chemical_name_structure_type Perovskite-GdFeO3
_chemical_name_mineral Neighborite
_exptl_crystal_density_diffrn 2.87
_cell_measurement_temperature 1033.
_publ_section_title

;
High-temperature structural phase transitions in neighborite: a
high-resolution neutron powder diffraction investigation
;
loop_
_citation_id
_citation_journal_full
_citation_year
_citation_journal_volume
_citation_page_first
_citation_page_last
_citation_journal_id_ASTM
primary 'Physics and Chemistry of Minerals' 2015 42 45 52 PCMIDU
loop_
_publ_author_name
'Knight, Kevin S.'
'Price, G.D.'
'Stuart, John A.'
'Wood, Ian G.'
_cell_length_a 5.53822(3)
_cell_length_b 5.55272(3)
_cell_length_c 7.85132(4)
_cell_angle_alpha 90.
_cell_angle_beta 90.
_cell_angle_gamma 90.
_cell_volume 241.44
_cell_formula_units_Z 4
_symmetry_space_group_name_H-M 'P b n m'
_symmetry_Int_Tables_number 62
_refine_ls_R_factor_all 0.049
loop_
_symmetry_equiv_pos_site_id
_symmetry_equiv_pos_as_xyz
1 '-x+1/2, y+1/2, z'
2 'x, y, -z+1/2'
3 'x+1/2, -y+1/2, z+1/2'
4 '-x, -y, -z'
5 'x+1/2, -y+1/2, -z'
6 '-x, -y, z+1/2'
7 '-x+1/2, y+1/2, -z+1/2'
8 'x, y, z'
loop_
_atom_type_symbol
_atom_type_oxidation_number
Na1+ 1
Mg2+ 2
F1- -1
loop_
_atom_site_label
_atom_site_type_symbol
_atom_site_symmetry_multiplicity
_atom_site_Wyckoff_symbol
_atom_site_fract_x
_atom_site_fract_y
_atom_site_fract_z
_atom_site_B_iso_or_equiv
_atom_site_occupancy
_atom_site_attached_hydrogens
Na1 Na1+ 4 c -0.0034(11) 0.5098(25) 0.25 0.0745(10) 1. 0
Mg1 Mg2+ 4 a 0 0 0 0.0186(4) 1. 0
F1 F1- 4 c 0.0439(6) -0.0048(14) 0.25 0.07(1) 1. 0
F2 F1- 8 d 0.2836(4) 0.2169(4) -0.0221(4) . 1. 0
loop_
_atom_site_aniso_label
_atom_site_aniso_type_symbol
_atom_site_aniso_U_11
_atom_site_aniso_U_22
_atom_site_aniso_U_33
_atom_site_aniso_U_12
_atom_site_aniso_U_13
_atom_site_aniso_U_23
F1 F1- 0.0829(25) 0.0799(34) 0.0105(16) 0.0024(33) 0. 0.
F2 F1- 0.0433(12) 0.0431(13) 0.1005(21) -0.0275(12) 0. 0.
#End of TTdata_193087-ICSD