
#(C) 2018 by FIZ Karlsruhe - Leibniz Institute for Information Infrastructure.  All rights reserved.
data_193038-ICSD
_database_code_ICSD 193038
_audit_creation_date 2015-02-01
_chemical_name_systematic
'Lithium titanium(III) aluminium phosphate (3/1.8/0.2/3)'
_chemical_formula_structural 'Li3 (Ti1.78 Al0.22) (P O4)3'
_chemical_formula_sum 'Al0.22 Li3 O12 P3 Ti1.78'
_exptl_crystal_density_diffrn 2.87
_cell_measurement_temperature 200.
_publ_section_title

;
Local structure and lithium mobility in intercalated Li3 Alx Ti2-x (P O4)3
NASICON type materials: a combined neutron diffraction and NMR study
;
loop_
_citation_id
_citation_journal_full
_citation_year
_citation_journal_volume
_citation_page_first
_citation_page_last
_citation_journal_id_ASTM
primary 'Physical Chemistry Chemical Physics' 2014 16 18397 18405 PPCPFQ
loop_
_publ_author_name
'Arbi, K.'
'Hoelzel, M.'
'Kuhn, A.'
'Garcia-Alvarado, F.'
'Sanz, J.'
_cell_length_a 8.35203(10)
_cell_length_b 8.35203(10)
_cell_length_c 22.77614(38)
_cell_angle_alpha 90.
_cell_angle_beta 90.
_cell_angle_gamma 120.
_cell_volume 1375.91
_cell_formula_units_Z 6
_symmetry_space_group_name_H-M 'R -3 H'
_symmetry_Int_Tables_number 148
_refine_ls_R_factor_all 0.033
loop_
_symmetry_equiv_pos_site_id
_symmetry_equiv_pos_as_xyz
1 'x-y, x, -z'
2 'y, -x+y, -z'
3 '-x, -y, -z'
4 '-x+y, -x, z'
5 '-y, x-y, z'
6 'x, y, z'
7 'x-y+2/3, x+1/3, -z+1/3'
8 'y+2/3, -x+y+1/3, -z+1/3'
9 '-x+2/3, -y+1/3, -z+1/3'
10 '-x+y+2/3, -x+1/3, z+1/3'
11 '-y+2/3, x-y+1/3, z+1/3'
12 'x+2/3, y+1/3, z+1/3'
13 'x-y+1/3, x+2/3, -z+2/3'
14 'y+1/3, -x+y+2/3, -z+2/3'
15 '-x+1/3, -y+2/3, -z+2/3'
16 '-x+y+1/3, -x+2/3, z+2/3'
17 '-y+1/3, x-y+2/3, z+2/3'
18 'x+1/3, y+2/3, z+2/3'
loop_
_atom_type_symbol
_atom_type_oxidation_number
Li1+ 1
Ti3+ 3
Al3+ 3
Ti3+ 3
Al3+ 3
P5+ 5
O2- -2
loop_
_atom_site_label
_atom_site_type_symbol
_atom_site_symmetry_multiplicity
_atom_site_Wyckoff_symbol
_atom_site_fract_x
_atom_site_fract_y
_atom_site_fract_z
_atom_site_B_iso_or_equiv
_atom_site_occupancy
_atom_site_attached_hydrogens
Li1 Li1+ 18 f 0.0306(12) 0.3110(12) 0.0449(4) 0.88 0.7 0
Li2 Li1+ 18 f 0.0518(26) 0.3744(27) 0.1183(9) 0.88 0.293 0
Ti1 Ti3+ 6 c 0 0 0.1435(3) 0.29 0.87 0
Al1 Al3+ 6 c 0 0 0.1435(3) 0.29 0.13 0
Ti2 Ti3+ 6 c 0 0 0.3475(3) 0.29 0.91 0
Al2 Al3+ 6 c 0 0 0.3475(3) 0.29 0.09 0
P1 P5+ 18 f 0.2902(3) -0.0016(3) 0.2505(1) 0.53 1. 0
O1 O2- 18 f 0.1667(3) 0.2155(3) 0.0899(1) 1.11 1. 0
O2 O2- 18 f 0.1358(3) 0.2293(3) 0.3985(1) 1.01 1. 0
O3 O2- 18 f 0.1943(3) 0.9918(3) 0.1933(1) 1.75 1. 0
O4 O2- 18 f 0.9114(3) 0.1456(3) 0.2995(1) 1.33 1. 0
#End of TTdata_193038-ICSD