
#(C) 2019 by FIZ Karlsruhe - Leibniz Institute for Information Infrastructure.  All rights reserved.
data_193202-ICSD
_database_code_ICSD 193202
_audit_creation_date 2015-08-01
_chemical_name_systematic 'Sodium dicobalt triarsenate'
_chemical_formula_structural 'Na Co2 (As3 O10)'
_chemical_formula_sum 'As3 Co2 Na1 O10'
_exptl_crystal_density_diffrn 4.38
_cell_measurement_temperature 298.
_publ_section_title

;
Synthesis, structural and electrical properties of a new cobalt arsenate Na
Co2 As3 O10
;
loop_
_citation_id
_citation_journal_full
_citation_year
_citation_journal_volume
_citation_page_first
_citation_page_last
_citation_journal_id_ASTM
primary 'Journal of Solid State Chemistry' 2015 221 132 139 JSSCBI
loop_
_publ_author_name
'Smida, Y. Ben'
'Marzouki, R.'
'Guesmi, A.'
'Georges, S.'
'Zid, M.F.'
_cell_length_a 6.800(3)
_cell_length_b 7.8168(10)
_cell_length_c 8.718(2)
_cell_angle_alpha 108.032(10)
_cell_angle_beta 108.48(3)
_cell_angle_gamma 100.11(2)
_cell_volume 398.21
_cell_formula_units_Z 2
_symmetry_space_group_name_H-M 'P -1'
_symmetry_Int_Tables_number 2
_refine_ls_R_factor_all 0.0216
loop_
_symmetry_equiv_pos_site_id
_symmetry_equiv_pos_as_xyz
1 '-x, -y, -z'
2 'x, y, z'
loop_
_atom_type_symbol
_atom_type_oxidation_number
As5+ 5
Co2+ 2
O2- -2
Na1+ 1
loop_
_atom_site_label
_atom_site_type_symbol
_atom_site_symmetry_multiplicity
_atom_site_Wyckoff_symbol
_atom_site_fract_x
_atom_site_fract_y
_atom_site_fract_z
_atom_site_B_iso_or_equiv
_atom_site_occupancy
_atom_site_attached_hydrogens
As1 As5+ 2 i 0.01338(7) 0.37457(5) 0.79074(5) 0.00309(12) 1 0
As2 As5+ 2 i 0.45644(7) 0.25502(5) 0.16988(5) 0.00331(11) 1 0
As3 As5+ 2 i 0.76509(7) 0.07417(5) 0.38060(5) 0.00390(12) 1 0
Co1 Co2+ 2 i 0.10725(9) 0.83054(7) 0.93684(7) 0.00514(14) 1 0
Co2 Co2+ 2 i 0.45051(9) 0.65025(7) 0.13961(7) 0.00520(14) 1 0
O1 O2- 2 i 0.8441(5) 0.2903(4) 0.8722(4) 0.0074(6) 1 0
O2 O2- 2 i 0.5689(5) 0.1989(4) 0.0232(4) 0.0057(6) 1 0
O3 O2- 2 i 0.2701(5) 0.3989(4) 0.9127(4) 0.0067(6) 1 0
O4 O2- 2 i 0.6242(5) 0.8770(4) 0.3741(4) 0.0078(6) 1 0
O5 O2- 2 i 0.6015(5) 0.2178(4) 0.3589(4) 0.0090(6) 1 0
O6 O2- 2 i 0.4849(5) 0.4807(4) 0.2758(4) 0.0072(6) 1 0
O7 O2- 2 i 0.9763(5) 0.5603(4) 0.7455(4) 0.0088(6) 1 0
O8 O2- 2 i 0.9069(5) 0.0739(4) 0.2593(4) 0.0086(6) 1 0
O9 O2- 2 i 0.2042(5) 0.1141(4) 1.1057(4) 0.0065(6) 1 0
O10 O2- 2 i 0.9650(5) 0.1998(4) 0.5896(4) 0.0092(6) 1 0
Na1 Na1+ 2 i 0.7447(3) 0.6935(3) 0.5497(3) 0.0225(5) 1 0
loop_
_atom_site_aniso_label
_atom_site_aniso_type_symbol
_atom_site_aniso_U_11
_atom_site_aniso_U_22
_atom_site_aniso_U_33
_atom_site_aniso_U_12
_atom_site_aniso_U_13
_atom_site_aniso_U_23
As1 As5+ 0.0033(2) 0.00323(19) 0.0018(2) 0.00044(15) 0.00058(16) 0.00053(14)
As2 As5+ 0.0034(2) 0.00310(19) 0.0031(2) 0.00056(15) 0.00139(16) 0.00097(15)
As3 As5+ 0.0049(2) 0.00365(19) 0.0021(2) 0.00080(15) 0.00060(16) 0.00087(15)
Co1 Co2+ 0.0058(3) 0.0045(3) 0.0043(3) 0.0014(2) 0.0012(2) 0.0016(2)
Co2 Co2+ 0.0058(3) 0.0044(3) 0.0043(3) 0.0012(2) 0.0010(2) 0.0016(2)
O1 O2- 0.0057(15) 0.0112(14) 0.0094(15) 0.0034(12) 0.0050(13) 0.0068(12)
O2 O2- 0.0057(14) 0.0066(13) 0.0054(14) 0.0012(11) 0.0033(12) 0.0023(11)
O3 O2- 0.0056(15) 0.0071(13) 0.0058(14) 0.0017(11) 0.0022(12) 0.0009(11)
O4 O2- 0.0092(16) 0.0043(13) 0.0081(14) -0.0011(11) 0.0033(13) 0.0020(11)
O5 O2- 0.0131(16) 0.0137(14) 0.0048(14) 0.0096(13) 0.0032(13) 0.0067(12)
O6 O2- 0.0104(15) 0.0030(13) 0.0061(14) 0.0014(11) 0.0023(12) 0.0006(11)
O7 O2- 0.0116(16) 0.0040(13) 0.0086(15) 0.0022(12) 0.0019(13) 0.0020(11)
O8 O2- 0.0106(16) 0.0120(14) 0.0074(15) 0.0048(12) 0.0058(13) 0.0060(12)
O9 O2- 0.0045(14) 0.0058(13) 0.0083(14) -0.0002(11) 0.0032(12) 0.0020(11)
O10 O2- 0.0091(15) 0.0092(14) 0.0023(14) 0.0047(12) -0.0030(12) -0.0023(11)
Na1 Na1+ 0.0171(11) 0.0297(11) 0.0099(9) -0.0031(9) 0.0005(8) 0.0043(8)
#End of TTdata_193202-ICSD