
#(C) 2018 by FIZ Karlsruhe - Leibniz Institute for Information Infrastructure.  All rights reserved.
data_193642-ICSD
_database_code_ICSD 193642
_audit_creation_date 2015-08-01
_chemical_name_systematic 'Lithium iron manganese phosphate (1/0.53/0.47/1)'
_chemical_formula_structural 'Li0.96 (Fe0.53 Mn0.47) (P O4)'
_chemical_formula_sum 'Fe0.53 Li0.96 Mn0.47 O4 P1'
_chemical_name_structure_type Olivine-Mg2SiO4
_exptl_crystal_density_diffrn 3.52
_cell_measurement_temperature 293.
_publ_section_title

;
Crystallographic structure of Li Fe1-x Mnx P O4 solid solutions studied by
neutron powder diffraction
;
loop_
_citation_id
_citation_journal_full
_citation_year
_citation_journal_volume
_citation_page_first
_citation_page_last
_citation_journal_id_ASTM
primary 'Powder Diffraction' 2014 29 248 253 PODIE2
loop_
_publ_author_name
'Li, X.Y.'
'Zhang, B.'
'Zhang, Z.G.'
'He, L.H.'
'Li, H.'
'Huang, X.J.'
'Wang, F.W.'
_cell_length_a 10.380(2)
_cell_length_b 6.0492(5)
_cell_length_c 4.7201(4)
_cell_angle_alpha 90.
_cell_angle_beta 90.
_cell_angle_gamma 90.
_cell_volume 296.38
_cell_formula_units_Z 4
_symmetry_space_group_name_H-M 'P n m a'
_symmetry_Int_Tables_number 62
_refine_ls_R_factor_all 0.0149
loop_
_symmetry_equiv_pos_site_id
_symmetry_equiv_pos_as_xyz
1 'x+1/2, y, -z+1/2'
2 'x, -y+1/2, z'
3 '-x+1/2, y+1/2, z+1/2'
4 '-x, -y, -z'
5 '-x+1/2, -y, z+1/2'
6 '-x, y+1/2, -z'
7 'x+1/2, -y+1/2, -z+1/2'
8 'x, y, z'
loop_
_atom_type_symbol
_atom_type_oxidation_number
Li1+ 1
Fe2+ 2.04
Mn2+ 2.04
P5+ 5
O2- -2
loop_
_atom_site_label
_atom_site_type_symbol
_atom_site_symmetry_multiplicity
_atom_site_Wyckoff_symbol
_atom_site_fract_x
_atom_site_fract_y
_atom_site_fract_z
_atom_site_B_iso_or_equiv
_atom_site_occupancy
_atom_site_attached_hydrogens
Li1 Li1+ 4 a 0 0 0 2.6(6) 0.96(5) 0
Fe1 Fe2+ 4 c 0.2827(6) 0.25 0.971(2) 1.0(2) 0.528(4) 0
Mn2 Mn2+ 4 c 0.2827(6) 0.25 0.971(2) 1.0(2) 0.472(4) 0
P1 P5+ 4 c 0.0942(5) 0.25 0.413(2) 1.3(1) 1. 0
O1 O2- 4 c 0.0962(6) 0.25 0.737(2) 1.5(2) 1. 0
O2 O2- 4 c 0.4560(5) 0.25 0.205(2) 1.2(1) 1. 0
O3 O2- 8 d 0.1643(4) 0.0478(6) 0.2787(9) 1.4(1) 1. 0
#End of TTdata_193642-ICSD