
#(C) 2019 by FIZ Karlsruhe - Leibniz Institute for Information Infrastructure.  All rights reserved.
data_193715-ICSD
_database_code_ICSD 193715
_audit_creation_date 2015-08-01
_chemical_name_systematic 'Sodium niobium trioxide'
_chemical_formula_structural 'Na Nb O3'
_chemical_formula_sum 'Na1 Nb1 O3'
_chemical_name_structure_type Ilmenite-TiFeO3
_chemical_name_mineral Pauloabibite
_exptl_crystal_density_diffrn 4.25
_cell_measurement_temperature 293.
_publ_section_title

;
Pauloabibite, trigonal Na Nb O3, isostructural with ilmenite, from the
Jacupiranga carbonatite, Cajati, Sao Paulo, Brazil
;
loop_
_citation_id
_citation_journal_full
_citation_year
_citation_journal_volume
_citation_page_first
_citation_page_last
_citation_journal_id_ASTM
primary 'American Mineralogist' 2015 100 442 446 AMMIAY
loop_
_publ_author_name
'Menezes Filho, Luiz A.D.'
'Atencio, Daniel'
'Andrade, Marcelo B.'
'Downs, Robert T.'
'Chaves, Mario L.S.C.'
'Romano, Antonio W.'
'Scholz, Ricardo'
'Persiano, Aba I.C.'
_cell_length_a 5.3287(5)
_cell_length_b 5.3287(5)
_cell_length_c 15.6197(17)
_cell_angle_alpha 90.
_cell_angle_beta 90.
_cell_angle_gamma 120.
_cell_volume 384.1
_cell_formula_units_Z 6
_symmetry_space_group_name_H-M 'R -3 H'
_symmetry_Int_Tables_number 148
_refine_ls_R_factor_all 0.0285
loop_
_symmetry_equiv_pos_site_id
_symmetry_equiv_pos_as_xyz
1 'x-y, x, -z'
2 'y, -x+y, -z'
3 '-x, -y, -z'
4 '-x+y, -x, z'
5 '-y, x-y, z'
6 'x, y, z'
7 'x-y+2/3, x+1/3, -z+1/3'
8 'y+2/3, -x+y+1/3, -z+1/3'
9 '-x+2/3, -y+1/3, -z+1/3'
10 '-x+y+2/3, -x+1/3, z+1/3'
11 '-y+2/3, x-y+1/3, z+1/3'
12 'x+2/3, y+1/3, z+1/3'
13 'x-y+1/3, x+2/3, -z+2/3'
14 'y+1/3, -x+y+2/3, -z+2/3'
15 '-x+1/3, -y+2/3, -z+2/3'
16 '-x+y+1/3, -x+2/3, z+2/3'
17 '-y+1/3, x-y+2/3, z+2/3'
18 'x+1/3, y+2/3, z+2/3'
loop_
_atom_type_symbol
_atom_type_oxidation_number
Nb5+ 5
Na1+ 1
O2- -2
loop_
_atom_site_label
_atom_site_type_symbol
_atom_site_symmetry_multiplicity
_atom_site_Wyckoff_symbol
_atom_site_fract_x
_atom_site_fract_y
_atom_site_fract_z
_atom_site_B_iso_or_equiv
_atom_site_occupancy
_atom_site_attached_hydrogens
Nb1 Nb5+ 6 c 0. 0. 0.14867(3) 0.00680(17) 1. 0
Na1 Na1+ 6 c 0. 0. 0.35846(17) 0.0136(5) 1. 0
O1 O2- 18 f 0.3239(5) 0.0532(6) 0.23828(16) 0.0095(5) 1. 0
loop_
_atom_site_aniso_label
_atom_site_aniso_type_symbol
_atom_site_aniso_U_11
_atom_site_aniso_U_22
_atom_site_aniso_U_33
_atom_site_aniso_U_12
_atom_site_aniso_U_13
_atom_site_aniso_U_23
Nb1 Nb5+ 0.00644(19) 0.00644(19) 0.0075(3) 0.00322(10) 0. 0.
Na1 Na1+ 0.0147(8) 0.0147(8) 0.0113(12) 0.0073(4) 0. 0.
O1 O2- 0.0089(12) 0.0099(12) 0.0098(11) 0.0047(10) -0.0002(9) 0.0014(9)
#End of TTdata_193715-ICSD