
#(C) 2019 by FIZ Karlsruhe - Leibniz Institute for Information Infrastructure.  All rights reserved.
data_193801-ICSD
_database_code_ICSD 193801
_audit_creation_date 2015-08-01
_chemical_name_systematic
'Sodium vanadium phosphate fluoride oxide (3/2/2/1.46/1.54)'
_chemical_formula_structural 'Na3 V2 (P O4)2 F (F0.46 O1.54)'
_chemical_formula_sum 'F1.46 Na3 O9.54 P2 V2'
_exptl_crystal_density_diffrn 3.16
_publ_section_title
'Electrochemical Na extraction/insertion of Na3 V2 O2x (P O4)2 F3-2x'
loop_
_citation_id
_citation_journal_full
_citation_year
_citation_journal_volume
_citation_page_first
_citation_page_last
_citation_journal_id_ASTM
primary 'Chemistry of Materials' 2013 25 4917 4925 CMATEX
loop_
_publ_author_name
'Serras, Paula'
'Palomares, Veronica'
'Alonso, Javier'
'Sharma, Neeraj'
'Lopez del Amo, Juan Miguel'
'Kubiak, Pierre'
'Fdez-Gubieda, Maria Luisa'
'Rojo, Teofilo'
_cell_length_a 9.030(3)
_cell_length_b 9.030(3)
_cell_length_c 10.644(7)
_cell_angle_alpha 90.
_cell_angle_beta 90.
_cell_angle_gamma 90.
_cell_volume 867.92
_cell_formula_units_Z 4
_symmetry_space_group_name_H-M 'P 42/m n m'
_symmetry_Int_Tables_number 136
loop_
_symmetry_equiv_pos_site_id
_symmetry_equiv_pos_as_xyz
1 '-y+1/2, x+1/2, -z+1/2'
2 'y+1/2, -x+1/2, -z+1/2'
3 'y, x, -z'
4 '-y, -x, -z'
5 'y+1/2, -x+1/2, z+1/2'
6 '-y+1/2, x+1/2, z+1/2'
7 '-y, -x, z'
8 'y, x, z'
9 'x+1/2, -y+1/2, -z+1/2'
10 '-x+1/2, y+1/2, -z+1/2'
11 'x, y, -z'
12 '-x, -y, -z'
13 '-x+1/2, y+1/2, z+1/2'
14 'x+1/2, -y+1/2, z+1/2'
15 '-x, -y, z'
16 'x, y, z'
loop_
_atom_type_symbol
_atom_type_oxidation_number
Na1+ 1
V3+ 3.75
P5+ 5
O2- -2
F1- -1
O2- -2
loop_
_atom_site_label
_atom_site_type_symbol
_atom_site_symmetry_multiplicity
_atom_site_Wyckoff_symbol
_atom_site_fract_x
_atom_site_fract_y
_atom_site_fract_z
_atom_site_B_iso_or_equiv
_atom_site_occupancy
_atom_site_attached_hydrogens
Na1 Na1+ 8 i 0.5249(8) 0.2185(9) 0 0.0450(32) 0.973(11) 0
Na2 Na1+ 8 i 0.7659(13) 0.0127(11) 0 0.0143(29) 0.547(9) 0
V1 V3+ 8 j 0.24776(23) 0.24776(23) 0.19503(10) 0.0055(2) 1. 0
P1 P5+ 4 d 0 0.5 0.25 0.0069(28) 1. 0
P2 P5+ 4 e 0 0 0.2556(7) 0.0072(28) 1. 0
O1 O2- 16 k 0.0925(7) 0.3980(8) 0.1597(10) 0.0076(27) 1. 0
O2 O2- 8 j 0.0946(8) 0.0946(8) 0.1644(16) 0.0060(40) 1. 0
O3 O2- 8 j 0.4003(8) 0.4003(8) 0.1723(16) 0.0130(40) 1. 0
F1 F1- 4 f 0.2489(8) 0.2489(8) 0 0.0138(10) 1. 0
F2 F1- 8 j 0.2504(7) 0.2504(7) 0.35865(33) 0.0357(10) 0.23 0
O4 O2- 8 j 0.2504(7) 0.2504(7) 0.35865(33) 0.0357(10) 0.77 0
#End of TTdata_193801-ICSD