
#(C) 2018 by FIZ Karlsruhe - Leibniz Institute for Information Infrastructure.  All rights reserved.
data_193800-ICSD
_database_code_ICSD 193800
_audit_creation_date 2015-08-01
_chemical_name_systematic 'Lithium iron phosphate'
_chemical_formula_structural 'Li Fe (P O4)'
_chemical_formula_sum 'Fe1 Li1 O4 P1'
_chemical_name_structure_type Olivine-Mg2SiO4
_exptl_crystal_density_diffrn 3.6
_cell_measurement_temperature 293.
_publ_section_title

;
Reciprocal salt flux growth of Li Fe P O4 single crystals with controlled
defect concentrations
;
loop_
_citation_id
_citation_journal_full
_citation_year
_citation_journal_volume
_citation_page_first
_citation_page_last
_citation_journal_id_ASTM
primary 'Chemistry of Materials' 2013 25 4574 4584 CMATEX
loop_
_publ_author_name
'Janssen, Yuri'
'Santhanagopalan, Dhamodaran'
'Qian, Danna'
'Chi, Miaofang'
'Wang, Xiaoping'
'Hoffmann, Christina'
'Meng, Ying Shirley'
'Khalifah, Peter G.'
_cell_length_a 10.3165(10)
_cell_length_b 6.0095(21)
_cell_length_c 4.6988(7)
_cell_angle_alpha 90
_cell_angle_beta 90
_cell_angle_gamma 90
_cell_volume 291.31
_cell_formula_units_Z 4
_symmetry_space_group_name_H-M 'P n m a'
_symmetry_Int_Tables_number 62
_refine_ls_R_factor_all 0.046
loop_
_symmetry_equiv_pos_site_id
_symmetry_equiv_pos_as_xyz
1 'x+1/2, y, -z+1/2'
2 'x, -y+1/2, z'
3 '-x+1/2, y+1/2, z+1/2'
4 '-x, -y, -z'
5 '-x+1/2, -y, z+1/2'
6 '-x, y+1/2, -z'
7 'x+1/2, -y+1/2, -z+1/2'
8 'x, y, z'
loop_
_atom_type_symbol
_atom_type_oxidation_number
Li1+ 1
Fe2+ 2
P5+ 5
O2- -2
loop_
_atom_site_label
_atom_site_type_symbol
_atom_site_symmetry_multiplicity
_atom_site_Wyckoff_symbol
_atom_site_fract_x
_atom_site_fract_y
_atom_site_fract_z
_atom_site_B_iso_or_equiv
_atom_site_occupancy
_atom_site_attached_hydrogens
Li1 Li1+ 4 a 0 0 0 0.0171(6) 1 0
Fe1 Fe2+ 4 c 0.28218(4) 0.25 0.97465(8) 0.00598(7) 1 0
P1 P5+ 4 c 0.09478(6) 0.25 0.41869(13) 0.00494(11) 1 0
O1 O2- 4 c 0.09706(7) 0.25 0.74240(13) 0.00792(11) 1 0
O2 O2- 4 c 0.45717(7) 0.25 0.20580(13) 0.00791(11) 1 0
O3 O2- 8 d 0.16557(5) 0.04653(8) 0.28462(9) 0.00810(9) 1 0
loop_
_atom_site_aniso_label
_atom_site_aniso_type_symbol
_atom_site_aniso_U_11
_atom_site_aniso_U_22
_atom_site_aniso_U_33
_atom_site_aniso_U_12
_atom_site_aniso_U_13
_atom_site_aniso_U_23
Li1 Li1+ 0.0193(11) 0.0151(9) 0.0170(9) -0.0035(8) -0.0010(7) -0.0021(9)
Fe1 Fe2+ 0.00549(12) 0.00558(12) 0.00686(11) 0 0.00030(7) 0
P1 P5+ 0.00468(20) 0.00586(18) 0.00429(17) 0 0.00022(12) 0
O1 O2- 0.00893(22) 0.01033(22) 0.00450(17) 0 -0.00033(12) 0
O2 O2- 0.00551(19) 0.01096(23) 0.00726(17) 0 0.00031(11) 0
O3 O2- 0.00967(18) 0.00695(15) 0.00766(13) 0.00243(12) 0.00102(9) 0.00018(11)
#End of TTdata_193800-ICSD