
#(C) 2019 by FIZ Karlsruhe - Leibniz Institute for Information Infrastructure.  All rights reserved.
data_193802-ICSD
_database_code_ICSD 193802
_audit_creation_date 2015-08-01
_chemical_name_systematic 'Sodium vanadium phosphate fluoride (2.26/2/2/3)'
_chemical_formula_structural 'Na2.26 V2 (P O4)2 F3'
_chemical_formula_sum 'F3 Na2.26 O8 P2 V2'
_exptl_crystal_density_diffrn 3.11
_publ_section_title
'Electrochemical Na extraction/insertion of Na3 V2 O2x (P O4)2 F3-2x'
loop_
_citation_id
_citation_journal_full
_citation_year
_citation_journal_volume
_citation_page_first
_citation_page_last
_citation_journal_id_ASTM
primary 'Chemistry of Materials' 2013 25 4917 4925 CMATEX
loop_
_publ_author_name
'Serras, Paula'
'Palomares, Veronica'
'Alonso, Javier'
'Sharma, Neeraj'
'Lopez del Amo, Juan Miguel'
'Kubiak, Pierre'
'Fdez-Gubieda, Maria Luisa'
'Rojo, Teofilo'
_cell_length_a 8.92220(8)
_cell_length_b 8.92220(8)
_cell_length_c 10.74862(19)
_cell_angle_alpha 90.
_cell_angle_beta 90.
_cell_angle_gamma 90.
_cell_volume 855.65
_cell_formula_units_Z 4
_symmetry_space_group_name_H-M 'P 42/m n m'
_symmetry_Int_Tables_number 136
loop_
_symmetry_equiv_pos_site_id
_symmetry_equiv_pos_as_xyz
1 '-y+1/2, x+1/2, -z+1/2'
2 'y+1/2, -x+1/2, -z+1/2'
3 'y, x, -z'
4 '-y, -x, -z'
5 'y+1/2, -x+1/2, z+1/2'
6 '-y+1/2, x+1/2, z+1/2'
7 '-y, -x, z'
8 'y, x, z'
9 'x+1/2, -y+1/2, -z+1/2'
10 '-x+1/2, y+1/2, -z+1/2'
11 'x, y, -z'
12 '-x, -y, -z'
13 '-x+1/2, y+1/2, z+1/2'
14 'x+1/2, -y+1/2, z+1/2'
15 '-x, -y, z'
16 'x, y, z'
loop_
_atom_type_symbol
_atom_type_oxidation_number
Na1+ 1
V3+ 3.37
P5+ 5
O2- -2
F1- -1
loop_
_atom_site_label
_atom_site_type_symbol
_atom_site_symmetry_multiplicity
_atom_site_Wyckoff_symbol
_atom_site_fract_x
_atom_site_fract_y
_atom_site_fract_z
_atom_site_B_iso_or_equiv
_atom_site_occupancy
_atom_site_attached_hydrogens
Na1 Na1+ 8 i 0.5243(23) 0.2674(32) 0 0.0020(40) 0.491(19) 0
Na2 Na1+ 8 i 0.7956(20) 0.0554(20) 0 0.0020(40) 0.640(20) 0
V1 V3+ 8 j 0.2478(7) 0.2478(7) 0.18610(27) 0.0115(11) 1. 0
P1 P5+ 4 d 0 0.5 0.25 0.0246(17) 1. 0
P2 P5+ 4 e 0 0 0.2600(19) 0.0246(17) 1. 0
O1 O2- 16 k 0.1181(13) 0.4161(11) 0.1722(13) 0.0062(21) 1. 0
O2 O2- 8 j 0.0965(16) 0.0965(16) 0.1490(19) 0.0062(21) 1. 0
O3 O2- 8 j 0.3934(16) 0.3934(16) 0.1611(18) 0.0062(21) 1. 0
F1 F1- 4 f 0.2500(32) 0.2500(32) 0 0.0445(26) 1. 0
F2 F1- 8 j 0.2398(20) 0.2398(20) 0.3468(9) 0.0445(26) 1. 0
#End of TTdata_193802-ICSD