
#(C) 2018 by FIZ Karlsruhe - Leibniz Institute for Information Infrastructure.  All rights reserved.
data_193963-ICSD
_database_code_ICSD 193963
_audit_creation_date 2015-08-01
_chemical_name_systematic 'Dilithium nickel disulfate'
_chemical_formula_structural 'Li2 Ni (S O4)2'
_chemical_formula_sum 'Li2 Ni1 O8 S2'
_exptl_crystal_density_diffrn 3.16
_cell_measurement_temperature 35.
_publ_section_title

;
Magnetic structure and properties of orthorhombic Li2 Ni (S O4)2: a possible
magnetoelectric material
;
loop_
_citation_id
_citation_journal_full
_citation_year
_citation_journal_volume
_citation_page_first
_citation_page_last
_citation_journal_id_ASTM
primary 'Physical Review, Serie 3. B - Condensed Matter (18,1978-)' 2014 89
104419-1 104419-9 PRBMDO
loop_
_publ_author_name
'Reynaud, Marine'
'Rodriguez-Carvajal, Juan'
'Chotard, Jean-Noel'
'Tarascon, Jean-Marie'
'Rousse, Gwenaelle'
_cell_length_a 9.1236(6)
_cell_length_b 9.0096(4)
_cell_length_c 13.5593(10)
_cell_angle_alpha 90.
_cell_angle_beta 90.
_cell_angle_gamma 90.
_cell_volume 1114.57
_cell_formula_units_Z 8
_symmetry_space_group_name_H-M 'P b c a'
_symmetry_Int_Tables_number 61
_refine_ls_R_factor_all 0.0193
loop_
_symmetry_equiv_pos_site_id
_symmetry_equiv_pos_as_xyz
1 'x+1/2, y, -z+1/2'
2 'x, -y+1/2, z+1/2'
3 '-x+1/2, y+1/2, z'
4 '-x, -y, -z'
5 '-x+1/2, -y, z+1/2'
6 '-x, y+1/2, -z+1/2'
7 'x+1/2, -y+1/2, -z'
8 'x, y, z'
loop_
_atom_type_symbol
_atom_type_oxidation_number
Ni2+ 2
Li1+ 1
S6+ 6
O2- -2
S6+ 6
O2- -2
loop_
_atom_site_label
_atom_site_type_symbol
_atom_site_symmetry_multiplicity
_atom_site_Wyckoff_symbol
_atom_site_fract_x
_atom_site_fract_y
_atom_site_fract_z
_atom_site_B_iso_or_equiv
_atom_site_occupancy
_atom_site_attached_hydrogens
Ni1 Ni2+ 8 c 0.8615(11) 0.6029(11) 0.3780(7) 0.13(17) 1. 0
Li1 Li1+ 8 c 0.467(6) 0.719(5) 0.375(5) 0.6(9) 1. 0
Li2 Li1+ 8 c 0.724(6) 0.540(6) 0.626(4) 0.4(9) 1. 0
S1 S6+ 8 c 0.660(4) 0.812(4) 0.508(3) 0.1(3) 1. 0
O1 O2- 8 c 0.5010(18) 0.8000(15) 0.5233(12) 0.3(4) 1. 0
O2 O2- 8 c 0.7040(16) 0.9690(17) 0.4940(13) 0.5(4) 1. 0
O3 O2- 8 c 0.6882(17) 0.7284(18) 0.4169(12) 0.2(3) 1. 0
O4 O2- 8 c 0.7426(17) 0.756(2) 0.5946(13) 0.3(3) 1. 0
S2 S6+ 8 c 0.576(4) 0.431(4) 0.274(3) 0.1(3) 1. 0
O5 O2- 8 c 0.4824(18) 0.4965(18) 0.3476(13) 0.3(3) 1. 0
O6 O2- 8 c 0.524(2) 0.4639(16) 0.1713(12) 0.2(3) 1. 0
O7 O2- 8 c 0.5736(17) 0.2647(18) 0.2779(13) 0.3(3) 1. 0
O8 O2- 8 c 0.7279(19) 0.488(2) 0.2793(12) 0.3(3) 1. 0
#End of TTdata_193963-ICSD