
#(C) 2019 by FIZ Karlsruhe - Leibniz Institute for Information Infrastructure.  All rights reserved.
data_193926-ICSD
_database_code_ICSD 193926
_audit_creation_date 2015-08-01
_chemical_name_systematic
'Pentapotassium trisodium octacopper tetraoxide octasulfate'
_chemical_formula_structural 'K5 Na3 Cu8 O4 (S O4)8'
_chemical_formula_sum 'Cu8 K5 Na3 O36 S8'
_chemical_name_mineral Parawulffite
_exptl_crystal_density_diffrn 3.27
_cell_measurement_temperature 293.
_publ_section_title

;
Wulffite, K3 Na Cu4 O2 (S O4)4, and parawulffite, K5 Na3 Cu8 O4 (SO4)8, two
new minerals from fumarole sublimates of the Tolbachik volcano, Kamchatka,
Russia
;
loop_
_citation_id
_citation_journal_full
_citation_year
_citation_journal_volume
_citation_page_first
_citation_page_last
_citation_journal_id_ASTM
primary 'Canadian Mineralogist' 2014 52 699 716 CAMIA6
loop_
_publ_author_name
'Pekov, Igor V.'
'Zubkova, Natalia V.'
'Yapaskurt, Vasiliy O.'
'Belakovskiy, Dmitry I.'
'Chukanov, Nikita V.'
'Lykova, Inna S.'
'Savelyev, Dmitry P.'
'Sidorov, Evgeny G.'
'Pushcharovsky, Dmitry Yu.'
_cell_length_a 13.9043(10)
_cell_length_b 4.9765(3)
_cell_length_c 23.5855(17)
_cell_angle_alpha 90.
_cell_angle_beta 90.209(6)
_cell_angle_gamma 90.
_cell_volume 1631.98
_cell_formula_units_Z 2
_symmetry_space_group_name_H-M 'P 1 2/c 1'
_symmetry_Int_Tables_number 13
_refine_ls_R_factor_all 0.0721
loop_
_symmetry_equiv_pos_site_id
_symmetry_equiv_pos_as_xyz
1 'x, -y, z+1/2'
2 '-x, -y, -z'
3 '-x, y, -z+1/2'
4 'x, y, z'
loop_
_atom_type_symbol
_atom_type_oxidation_number
Cu2+ 2
S6+ 6
K1+ 1
Na1+ 1
O2- -2
loop_
_atom_site_label
_atom_site_type_symbol
_atom_site_symmetry_multiplicity
_atom_site_Wyckoff_symbol
_atom_site_fract_x
_atom_site_fract_y
_atom_site_fract_z
_atom_site_B_iso_or_equiv
_atom_site_occupancy
_atom_site_attached_hydrogens
Cu1 Cu2+ 4 g 0.2150(2) 0.2281(5) 0.41922(11) 0.0161(7) 1. 0
Cu2 Cu2+ 4 g 0.28352(19) 0.2730(5) 0.30366(11) 0.0104(6) 1. 0
Cu3 Cu2+ 4 g 0.35119(19) 0.7236(5) 0.38614(11) 0.0114(6) 1. 0
Cu4 Cu2+ 4 g 0.15409(18) 0.7840(5) 0.34538(11) 0.0099(6) 1. 0
S1 S6+ 4 g 0.2528(4) 0.7670(10) 0.2232(2) 0.0114(11) 1. 0
S2 S6+ 4 g 0.2272(4) 0.7429(10) 0.4983(2) 0.0132(11) 1. 0
S3 S6+ 4 g 0.4862(4) 0.2384(10) 0.3760(2) 0.0108(11) 1. 0
S4 S6+ 4 g 0.0134(4) 0.3017(10) 0.3544(2) 0.0105(11) 1. 0
K1 K1+ 2 f 0.5 0.7941(15) 0.25 0.025(3) 1. 0
K2 K1+ 4 g 0.3875(5) 0.2565(13) 0.5463(3) 0.066(4) 1. 0
K3 K1+ 4 g 0.9256(6) 0.7842(11) 0.4356(4) 0.085(4) 1. 0
Na1 Na1+ 4 g 0.7445(6) 0.7423(15) 0.8508(4) 0.016(2) 1. 0
Na2 Na1+ 2 e 0 0.857(3) 0.25 0.029(3) 1. 0
O1 O2- 4 g 0.2520(10) 0.737(3) 0.1629(6) 0.014(3) 1. 0
O2 O2- 4 g 0.2956(9) 0.036(3) 0.2353(6) 0.011(3) 1. 0
O3 O2- 4 g 0.3174(10) 0.565(3) 0.2492(7) 0.017(3) 1. 0
O4 O2- 4 g 0.1581(10) 0.739(3) 0.2493(6) 0.014(3) 1. 0
O5 O2- 4 g 0.1623(10) 0.901(3) 0.4625(6) 0.013(3) 1. 0
O6 O2- 4 g 0.3257(11) 0.804(3) 0.4829(7) 0.023(4) 1. 0
O7 O2- 4 g 0.2100(10) 0.813(3) 0.5577(6) 0.014(3) 1. 0
O8 O2- 4 g 0.2094(10) 0.449(3) 0.4895(6) 0.014(3) 1. 0
O9 O2- 4 g 0.4567(11) 0.292(3) 0.3189(6) 0.019(4) 1. 0
O10 O2- 4 g 0.0351(11) 0.271(3) 0.4163(6) 0.018(4) 1. 0
O11 O2- 4 g 0.9152(12) 0.232(4) 0.3408(7) 0.030(4) 1. 0
O12 O2- 4 g 0.5852(11) 0.282(3) 0.3868(7) 0.020(4) 1. 0
O13 O2- 4 g 0.4298(11) 0.401(3) 0.4161(7) 0.020(4) 1. 0
O14 O2- 4 g 0.2650(9) 0.000(3) 0.3592(6) 0.009(3) 1. 0
O15 O2- 4 g 0.2413(9) 0.503(3) 0.3667(5) 0.002(3) 1. 0
O16 O2- 4 g 0.4683(10) 0.943(3) 0.3910(6) 0.014(3) 1. 0
O17 O2- 4 g 0.0302(10) 0.584(3) 0.3367(6) 0.010(3) 1. 0
O18 O2- 4 g 0.0815(11) 0.121(3) 0.3223(7) 0.019(4) 1. 0
#End of TTdata_193926-ICSD