
#(C) 2019 by FIZ Karlsruhe - Leibniz Institute for Information Infrastructure.  All rights reserved.
data_194077-ICSD
_database_code_ICSD 194077
_audit_creation_date 2015-08-01
_chemical_name_systematic 'Disodium iron phosphate fluoride'
_chemical_formula_structural 'Na2 Fe (P O4) F'
_chemical_formula_sum 'F1 Fe1 Na2 O4 P1'
_chemical_name_structure_type Na2MgPO4F
_exptl_crystal_density_diffrn 3.39
_cell_measurement_temperature 1.5
_publ_section_title

;
Magnetic structure and properties of the rechargeable battery insertion
compound Na2 Fe P O4 F
;
loop_
_citation_id
_citation_journal_full
_citation_year
_citation_journal_volume
_citation_page_first
_citation_page_last
_citation_journal_id_ASTM
primary 'Inorganic Chemistry' 2014 53 682 684 INOCAJ
loop_
_publ_author_name
'Avdeev, Maxim'
'Ling, Chris D.'
'Tan, Thiam Teck'
'Li, Sean'
'Oyama, Gosuke'
'Yamada, Atsuo'
'Barpanda, Prabeer'
_cell_length_a 5.20551(15)
_cell_length_b 13.8180(4)
_cell_length_c 11.7541(3)
_cell_angle_alpha 90.
_cell_angle_beta 90.
_cell_angle_gamma 90.
_cell_volume 845.47
_cell_formula_units_Z 8
_symmetry_space_group_name_H-M 'P b c n'
_symmetry_Int_Tables_number 60
_refine_ls_R_factor_all 0.0489
loop_
_symmetry_equiv_pos_site_id
_symmetry_equiv_pos_as_xyz
1 'x, -y, z+1/2'
2 '-x+1/2, y+1/2, z'
3 'x+1/2, y+1/2, -z+1/2'
4 '-x, -y, -z'
5 '-x, y, -z+1/2'
6 'x+1/2, -y+1/2, -z'
7 '-x+1/2, -y+1/2, z+1/2'
8 'x, y, z'
loop_
_atom_type_symbol
_atom_type_oxidation_number
Fe2+ 2
P5+ 5
Na1+ 1
F1- -1
O2- -2
loop_
_atom_site_label
_atom_site_type_symbol
_atom_site_symmetry_multiplicity
_atom_site_Wyckoff_symbol
_atom_site_fract_x
_atom_site_fract_y
_atom_site_fract_z
_atom_site_B_iso_or_equiv
_atom_site_occupancy
_atom_site_attached_hydrogens
Fe1 Fe2+ 8 d 0.2390(11) 0.0128(3) 0.3265(4) 0.32 1. 0
P1 P5+ 8 d 0.2102(12) 0.3849(5) 0.0845(6) 0.32 1. 0
Na1 Na1+ 8 d 0.224(2) 0.2504(6) 0.3254(9) 0.32 1. 0
Na2 Na1+ 8 d 0.261(3) 0.1243(9) 0.0807(6) 0.32 1. 0
F1 F1- 4 c 0 0.1246(8) 0.25 0.32 1. 0
F2 F1- 4 c 0.5 0.0997(7) 0.25 0.32 1. 0
O1 O2- 8 d 0.2477(14) 0.3862(4) -0.0431(4) 0.32 1. 0
O2 O2- 8 d 0.2710(14) 0.2804(4) 0.1370(4) 0.32 1. 0
O3 O2- 8 d -0.075(10) 0.3935(5) 0.1004(5) 0.32 1. 0
O4 O2- 8 d 0.3425(10) 0.4674(5) 0.1502(6) 0.32 1. 0
#End of TTdata_194077-ICSD