
#(C) 2019 by FIZ Karlsruhe - Leibniz Institute for Information Infrastructure.  All rights reserved.
data_194233-ICSD
_database_code_ICSD 194233
_audit_creation_date 2015-08-01
_chemical_name_systematic 'Tetrasodium zinc hexauranium(IV) triacontafluoride'
_chemical_formula_structural 'Na4 Zn U6 F30'
_chemical_formula_sum 'F30 Na4 U6 Zn1'
_exptl_crystal_density_diffrn 6.49
_cell_measurement_temperature 100.
_publ_section_title

;
Application of a mild hydrothermal approach containing an in situ reduction
step to the growth of single crystals of the quaternary U(IV)-containing
fluorides Na4 M U6 F30 (M = Mn(2+), Co(2+), Ni(2+), Cu(2+), and Zn)2+))
crystal growth, structures, and magnetic properties
;
loop_
_citation_id
_citation_journal_full
_citation_year
_citation_journal_volume
_citation_page_first
_citation_page_last
_citation_journal_id_ASTM
primary 'Journal of the American Chemical Society' 2014 136 3955 3963 JACSAT
loop_
_publ_author_name
'Yeon, Jeongho'
'Smith, Mark D.'
'Tapp, Joshua'
'Moeller, Angela'
'zur Loye, Hans-Conrad'
_cell_length_a 9.8783(7)
_cell_length_b 9.8783(7)
_cell_length_c 13.0455(18)
_cell_angle_alpha 90.
_cell_angle_beta 90.
_cell_angle_gamma 120.
_cell_volume 1102.44
_cell_formula_units_Z 2
_symmetry_space_group_name_H-M 'P -3 1 c'
_symmetry_Int_Tables_number 163
_refine_ls_R_factor_all 0.0361
loop_
_symmetry_equiv_pos_site_id
_symmetry_equiv_pos_as_xyz
1 '-x+y, y, -z+1/2'
2 'x, x-y, -z+1/2'
3 '-y, -x, -z+1/2'
4 'x-y, x, -z'
5 'y, -x+y, -z'
6 '-x, -y, -z'
7 'x-y, -y, z+1/2'
8 '-x, -x+y, z+1/2'
9 'y, x, z+1/2'
10 '-x+y, -x, z'
11 '-y, x-y, z'
12 'x, y, z'
loop_
_atom_type_symbol
_atom_type_oxidation_number
U4+ 4
Zn2+ 2
Na1+ 1
F1- -1
loop_
_atom_site_label
_atom_site_type_symbol
_atom_site_symmetry_multiplicity
_atom_site_Wyckoff_symbol
_atom_site_fract_x
_atom_site_fract_y
_atom_site_fract_z
_atom_site_B_iso_or_equiv
_atom_site_occupancy
_atom_site_attached_hydrogens
U1 U4+ 12 i 0.39830(3) 0.32314(3) 0.39833(2) 0.00716(8) 1 0
Zn1 Zn2+ 2 a 0. 0. 0.25 0.0136(4) 1 0
Na1 Na1+ 4 f 0.3333 0.6667 0.3401(4) 0.0100(9) 1 0
Na2 Na1+ 2 b 0. 0. 0.5 0.0185(16) 1 0
Na3 Na1+ 12 i 0.040(3) 0.338(3) 0.2882(18) 0.026(5) 0.1667 0
F1 F1- 12 i 0.3053(5) 0.4372(5) 0.2837(3) 0.0120(8) 1 0
F2 F1- 12 i 0.1907(5) 0.3109(5) 0.4805(3) 0.0104(8) 1 0
F3 F1- 12 i 0.5317(5) 0.4129(5) 0.5518(3) 0.0107(8) 1 0
F4 F1- 12 i 0.1882(5) 0.1058(5) 0.3400(3) 0.0128(8) 1 0
F5 F1- 12 i 0.5110(5) 0.1692(5) 0.3629(4) 0.0135(8) 1 0
loop_
_atom_site_aniso_label
_atom_site_aniso_type_symbol
_atom_site_aniso_U_11
_atom_site_aniso_U_22
_atom_site_aniso_U_33
_atom_site_aniso_U_12
_atom_site_aniso_U_13
_atom_site_aniso_U_23
U1 U4+ 0.00704(12) 0.00802(12) 0.00656(12) 0.00386(9) -0.00001(8) 0.00051(8)
Zn1 Zn2+ 0.0143(6) 0.0143(6) 0.0121(9) 0.0072(3) 0. 0.
Na1 Na1+ 0.0090(14) 0.0090(14) 0.012(2) 0.0045(7) 0. 0.
Na2 Na1+ 0.021(2) 0.021(2) 0.014(4) 0.0104(12) 0. 0.
F1 F1- 0.020(2) 0.013(2) 0.0069(18) 0.0113(18) -0.0017(16) -0.0008(15)
F2 F1- 0.0102(18) 0.0112(19) 0.0112(19) 0.0063(15) 0.0009(15) 0.0007(15)
F3 F1- 0.013(2) 0.0104(19) 0.0089(18) 0.0062(16) -0.0039(16) 0.0006(15)
F4 F1- 0.0105(19) 0.0091(19) 0.015(2) 0.0022(16) -0.0047(16) -0.0006(16)
F5 F1- 0.015(2) 0.018(2) 0.013(2) 0.0122(18) -0.0022(16) 0.0007(17)
#End of TTdata_194233-ICSD