
#(C) 2019 by FIZ Karlsruhe - Leibniz Institute for Information Infrastructure.  All rights reserved.
data_194297-ICSD
_database_code_ICSD 194297
_audit_creation_date 2015-08-01
_chemical_name_systematic
'Potassium-0.93 sodium-0.07 octaoxo-aluminotrisilicate'
_chemical_formula_structural '(K0.93 Na0.07) ((Al Si3) O8)'
_chemical_formula_sum 'Al1 K0.93 Na0.07 O8 Si3'
_chemical_name_structure_type Feldspar#-(MO,C12/m1)-KAlSi3O8
_chemical_name_mineral Orthoclase
_exptl_crystal_density_diffrn 2.56
_cell_measurement_temperature 293.
_publ_section_title

;
Structural controls on the anisotropy of tetrahedral frameworks: the example
of monoclinic feldspars
;
loop_
_citation_id
_citation_journal_full
_citation_year
_citation_journal_volume
_citation_page_first
_citation_page_last
_citation_journal_id_ASTM
primary 'European Journal of Mineralogy' 2013 25 597 614 EJMIER
loop_
_publ_author_name
'Angel, Ross J.'
'Ross, Nancy L.'
'Zhao, Jing'
'Sochalski-Kolbus, Lindsay'
'Kruger, Hannes'
'Schmidt, Burkhard C.'
_cell_length_a 8.5739(6)
_cell_length_b 12.9874(5)
_cell_length_c 7.2018(5)
_cell_angle_alpha 90.
_cell_angle_beta 116.042(4)
_cell_angle_gamma 90.
_cell_volume 720.52
_cell_formula_units_Z 4
_symmetry_space_group_name_H-M 'C 1 2/m 1'
_symmetry_Int_Tables_number 12
_refine_ls_R_factor_all 0.0312
loop_
_symmetry_equiv_pos_site_id
_symmetry_equiv_pos_as_xyz
1 '-x, y, -z'
2 '-x, -y, -z'
3 'x, -y, z'
4 'x, y, z'
5 '-x+1/2, y+1/2, -z'
6 '-x+1/2, -y+1/2, -z'
7 'x+1/2, -y+1/2, z'
8 'x+1/2, y+1/2, z'
loop_
_atom_type_symbol
_atom_type_oxidation_number
Na1+ 1
K1+ 1
Si4+ 4
Al3+ 3
O2- -2
loop_
_atom_site_label
_atom_site_type_symbol
_atom_site_symmetry_multiplicity
_atom_site_Wyckoff_symbol
_atom_site_fract_x
_atom_site_fract_y
_atom_site_fract_z
_atom_site_B_iso_or_equiv
_atom_site_occupancy
_atom_site_attached_hydrogens
Na1 Na1+ 4 i 0.28499(10) 0. 0.13858(13) 0.0297(2) 0.07 0
K1 K1+ 4 i 0.28499(10) 0. 0.13858(13) 0.0297(2) 0.93 0
Si1 Si4+ 8 j 0.00935(8) 0.18481(5) 0.22391(9) 0.01251(16) 0.62 0
Si2 Si4+ 8 j 0.70914(7) 0.11767(4) 0.34453(9) 0.01182(16) 0.88 0
Al1 Al3+ 8 j 0.00935(8) 0.18481(5) 0.22391(9) 0.01251(16) 0.38 0
Al2 Al3+ 8 j 0.70914(7) 0.11767(4) 0.34453(9) 0.01182(16) 0.12 0
O1 O2- 4 g 0. 0.14607(18) 0. 0.0214(5) 1 0
O2 O2- 4 i 0.6378(3) 0. 0.2849(4) 0.0209(5) 1 0
O3 O2- 8 j 0.8268(2) 0.14672(14) 0.2278(3) 0.0256(4) 1 0
O4 O2- 8 j 0.0352(2) 0.31136(12) 0.2592(2) 0.0196(4) 1 0
O5 O2- 8 j 0.1809(2) 0.12605(12) 0.4067(2) 0.0204(4) 1 0
loop_
_atom_site_aniso_label
_atom_site_aniso_type_symbol
_atom_site_aniso_U_11
_atom_site_aniso_U_22
_atom_site_aniso_U_33
_atom_site_aniso_U_12
_atom_site_aniso_U_13
_atom_site_aniso_U_23
Na1 Na1+ 0.0206(4) 0.0359(5) 0.0292(5) 0. 0.0078(3) 0.
K1 K1+ 0.0206(4) 0.0359(5) 0.0292(5) 0. 0.0078(3) 0.
Si1 Si4+ 0.0128(3) 0.0133(3) 0.0115(3) -0.0024(2) 0.0054(2) -0.0012(2)
Si2 Si4+ 0.0121(3) 0.0104(3) 0.0121(3) 0.0001(2) 0.0045(2) 0.0002(2)
Al1 Al3+ 0.0128(3) 0.0133(3) 0.0115(3) -0.0024(2) 0.0054(2) -0.0012(2)
Al2 Al3+ 0.0121(3) 0.0104(3) 0.0121(3) 0.0001(2) 0.0045(2) 0.0002(2)
O1 O2- 0.0239(12) 0.0206(11) 0.0201(12) 0. 0.0099(10) 0.
O2 O2- 0.0209(12) 0.0137(10) 0.0208(12) 0. 0.0023(9) 0.
O3 O2- 0.0227(9) 0.0315(9) 0.0270(9) -0.0018(7) 0.0149(7) 0.0018(7)
O4 O2- 0.0174(8) 0.0174(8) 0.0220(9) -0.0016(6) 0.0070(7) -0.0030(6)
O5 O2- 0.0211(8) 0.0210(8) 0.0144(8) 0.0018(7) 0.0035(7) 0.0011(6)
#End of TTdata_194297-ICSD