
#(C) 2018 by FIZ Karlsruhe - Leibniz Institute for Information Infrastructure.  All rights reserved.
data_194284-ICSD
_database_code_ICSD 194284
_audit_creation_date 2015-08-01
_chemical_name_systematic 'Lithium aluminium decaoxotetrasilicate'
_chemical_formula_structural 'Li Al (Si4 O10)'
_chemical_formula_sum 'Al1 Li1 O10 Si4'
_chemical_name_mineral Petalite
_exptl_crystal_density_diffrn 2.4
_cell_measurement_temperature 295.
_publ_section_title
'Petalite under pressure: Elastic behavior and phase stability'
loop_
_citation_id
_citation_journal_full
_citation_year
_citation_journal_volume
_citation_page_first
_citation_page_last
_citation_journal_id_ASTM
primary 'American Mineralogist' 2015 100 714 721 AMMIAY
loop_
_publ_author_name
'Ross, Nancy L.'
'Zhao, Jing'
'Slebodnick, Carla'
'Spencer, Elinor C.'
'Chakoumakos, Bryan C.'
_cell_length_a 11.22955(14)
_cell_length_b 5.1396(3)
_cell_length_c 11.7514(5)
_cell_angle_alpha 90.
_cell_angle_beta 141.3120(14)
_cell_angle_gamma 90.
_cell_volume 423.95
_cell_formula_units_Z 2
_symmetry_space_group_name_H-M 'P 1 2/c 1'
_symmetry_Int_Tables_number 13
_refine_ls_R_factor_all 0.0484
loop_
_symmetry_equiv_pos_site_id
_symmetry_equiv_pos_as_xyz
1 'x, -y, z+1/2'
2 '-x, -y, -z'
3 '-x, y, -z+1/2'
4 'x, y, z'
loop_
_atom_type_symbol
_atom_type_oxidation_number
Si4+ 4
Al3+ 3
O2- -2
Li1+ 1
loop_
_atom_site_label
_atom_site_type_symbol
_atom_site_symmetry_multiplicity
_atom_site_Wyckoff_symbol
_atom_site_fract_x
_atom_site_fract_y
_atom_site_fract_z
_atom_site_B_iso_or_equiv
_atom_site_occupancy
_atom_site_attached_hydrogens
Si1 Si4+ 4 g 0.7887(5) 0.0125(3) 0.7912(2) 0.0088(3) 1 0
Si2 Si4+ 4 g 0.7900(5) 0.5097(3) 0.6422(2) 0.0091(3) 1 0
Al1 Al3+ 2 f 0.5 0.2560(4) 0.25 0.0095(5) 1 0
O1 O2- 4 g 0.6324(11) -0.0365(7) 0.7722(5) 0.0162(9) 1 0
O2 O2- 4 g 0.7686(11) -0.1989(7) 0.6760(6) 0.0145(9) 1 0
O3 O2- 2 a 1. 0. 1. 0.0264(16) 1 0
O4 O2- 4 g 0.7539(12) 0.3020(7) 0.7144(6) 0.0160(9) 1 0
O5 O2- 2 e 1. 0.4641(12) 0.75 0.0251(15) 1 0
O6 O2- 4 g 0.6365(12) 0.4764(7) 0.4280(5) 0.0114(8) 1 0
Li1 Li1+ 2 f 0.5 0.758(3) 0.25 0.015(3) 1 0
#End of TTdata_194284-ICSD