
#(C) 2019 by FIZ Karlsruhe - Leibniz Institute for Information Infrastructure.  All rights reserved.
data_194231-ICSD
_database_code_ICSD 194231
_audit_creation_date 2015-08-01
_chemical_name_systematic 'Tetrasodium nickel uranium(IV) triacontafluoride'
_chemical_formula_structural 'Na4 Ni U6 F30'
_chemical_formula_sum 'F30 Na4 Ni1 U6'
_exptl_crystal_density_diffrn 6.51
_cell_measurement_temperature 100.
_publ_section_title

;
Application of a mild hydrothermal approach containing an in situ reduction
step to the growth of single crystals of the quaternary U(IV)-containing
fluorides Na4 M U6 F30 (M = Mn(2+), Co(2+), Ni(2+), Cu(2+), and Zn)2+))
crystal growth, structures, and magnetic properties
;
loop_
_citation_id
_citation_journal_full
_citation_year
_citation_journal_volume
_citation_page_first
_citation_page_last
_citation_journal_id_ASTM
primary 'Journal of the American Chemical Society' 2014 136 3955 3963 JACSAT
loop_
_publ_author_name
'Yeon, Jeongho'
'Smith, Mark D.'
'Tapp, Joshua'
'Moeller, Angela'
'zur Loye, Hans-Conrad'
_cell_length_a 9.8623(6)
_cell_length_b 9.8623(6)
_cell_length_c 13.0147(16)
_cell_angle_alpha 90.
_cell_angle_beta 90.
_cell_angle_gamma 120.
_cell_volume 1096.28
_cell_formula_units_Z 2
_symmetry_space_group_name_H-M 'P -3 c 1'
_symmetry_Int_Tables_number 165
_refine_ls_R_factor_all 0.0367
loop_
_symmetry_equiv_pos_site_id
_symmetry_equiv_pos_as_xyz
1 'x-y, -y, -z+1/2'
2 '-x, -x+y, -z+1/2'
3 'y, x, -z+1/2'
4 'x-y, x, -z'
5 'y, -x+y, -z'
6 '-x, -y, -z'
7 '-x+y, y, z+1/2'
8 'x, x-y, z+1/2'
9 '-y, -x, z+1/2'
10 '-x+y, -x, z'
11 '-y, x-y, z'
12 'x, y, z'
loop_
_atom_type_symbol
_atom_type_oxidation_number
U4+ 4
Ni2+ 2
Na1+ 1
F1- -1
loop_
_atom_site_label
_atom_site_type_symbol
_atom_site_symmetry_multiplicity
_atom_site_Wyckoff_symbol
_atom_site_fract_x
_atom_site_fract_y
_atom_site_fract_z
_atom_site_B_iso_or_equiv
_atom_site_occupancy
_atom_site_attached_hydrogens
U1 U4+ 12 g 0.39793(3) 0.32269(3) 0.39837(2) 0.00750(10) 1 0
Ni1 Ni2+ 2 a 0. 0. 0.25 0.0094(4) 1 0
Na1 Na1+ 4 d 0.3333 0.6667 0.3408(4) 0.0103(10) 1 0
Na2 Na1+ 2 b 0. 0. 0.5 0.024(2) 1 0
Na3 Na1+ 12 g 0.034(3) 0.336(3) 0.284(2) 0.025(5) 0.16667 0
F1 F1- 12 g 0.3052(7) 0.4374(6) 0.2836(4) 0.0138(9) 1 0
F2 F1- 12 g 0.1888(6) 0.3096(6) 0.4795(4) 0.0109(8) 1 0
F3 F1- 12 g 0.5322(6) 0.4136(6) 0.5520(4) 0.0116(9) 1 0
F4 F1- 12 g 0.1884(6) 0.1040(6) 0.3392(4) 0.0132(9) 1 0
F5 F1- 12 g 0.5106(6) 0.1687(6) 0.3625(4) 0.0147(9) 1 0
loop_
_atom_site_aniso_label
_atom_site_aniso_type_symbol
_atom_site_aniso_U_11
_atom_site_aniso_U_22
_atom_site_aniso_U_33
_atom_site_aniso_U_12
_atom_site_aniso_U_13
_atom_site_aniso_U_23
U1 U4+ 0.00816(14) 0.00946(14) 0.00519(14) 0.00464(10) 0.00028(8) 0.00083(8)
Ni1 Ni2+ 0.0105(6) 0.0105(6) 0.0071(9) 0.0053(3) 0. 0.
Na1 Na1+ 0.0096(15) 0.0096(15) 0.012(2) 0.0048(7) 0. 0.
Na2 Na1+ 0.026(3) 0.026(3) 0.019(4) 0.0132(15) 0. 0.
F1 F1- 0.025(3) 0.018(2) 0.0049(19) 0.016(2) -0.0020(18) -0.0010(17)
F2 F1- 0.010(2) 0.013(2) 0.0106(19) 0.0069(17) 0.0046(16) 0.0016(17)
F3 F1- 0.015(2) 0.012(2) 0.0097(19) 0.0078(18) -0.0032(18) 0.0014(17)
F4 F1- 0.009(2) 0.013(2) 0.015(2) 0.0038(18) -0.0047(17) -0.0015(18)
F5 F1- 0.015(2) 0.020(2) 0.013(2) 0.012(2) 0.0007(18) 0.0021(19)
#End of TTdata_194231-ICSD