
#(C) 2018 by FIZ Karlsruhe - Leibniz Institute for Information Infrastructure.  All rights reserved.
data_194361-ICSD
_database_code_ICSD 194361
_audit_creation_date 2015-08-01
_chemical_name_systematic 'Iron hendecalithium enneaicosaoxo-hendecaniobate(IV)'
_chemical_formula_structural 'Fe Li11 (Nb11 O29)'
_chemical_formula_sum 'Fe1 Li11 Nb11 O29'
_exptl_crystal_density_diffrn 4.47
_publ_section_title

;
Neutron diffraction and electrochemical study of Fe Nb11 O29 / Li11 Fe Nb11
O29 for lithium battery anode applications
;
loop_
_citation_id
_citation_journal_full
_citation_year
_citation_journal_volume
_citation_page_first
_citation_page_last
_citation_journal_id_ASTM
primary 'Chemistry of Materials' 2014 26 2203 2209 CMATEX
loop_
_publ_author_name
'Pinus, Ilya'
'Catti, Michele'
'Ruffo, Riccardo'
'Salamone, Matteo M.'
'Mari, Claudio M.'
_cell_length_a 28.4036(4)
_cell_length_b 4.08447(8)
_cell_length_c 20.70671(19)
_cell_angle_alpha 90.
_cell_angle_beta 90.
_cell_angle_gamma 90.
_cell_volume 2402.27
_cell_formula_units_Z 4
_symmetry_space_group_name_H-M 'A m m a'
_symmetry_Int_Tables_number 63
_refine_ls_R_factor_all 0.0315
loop_
_symmetry_equiv_pos_site_id
_symmetry_equiv_pos_as_xyz
1 '-x+1/2, -y, z'
2 'x+1/2, -y, -z'
3 'x, -y, z'
4 '-x, -y, -z'
5 'x+1/2, y, -z'
6 '-x+1/2, y, z'
7 '-x, y, -z'
8 'x, y, z'
9 '-x+1/2, -y+1/2, z+1/2'
10 'x+1/2, -y+1/2, -z+1/2'
11 'x, -y+1/2, z+1/2'
12 '-x, -y+1/2, -z+1/2'
13 'x+1/2, y+1/2, -z+1/2'
14 '-x+1/2, y+1/2, z+1/2'
15 '-x, y+1/2, -z+1/2'
16 'x, y+1/2, z+1/2'
loop_
_atom_type_symbol
_atom_type_oxidation_number
Nb4+ 4
O2- -2
Fe3+ 3
Li1+ 1
loop_
_atom_site_label
_atom_site_type_symbol
_atom_site_symmetry_multiplicity
_atom_site_Wyckoff_symbol
_atom_site_fract_x
_atom_site_fract_y
_atom_site_fract_z
_atom_site_B_iso_or_equiv
_atom_site_occupancy
_atom_site_attached_hydrogens
Nb1 Nb4+ 8 f 0.03842(34) 0. 0.0495(4) 0.0041(15) 0.917 0
Nb2 Nb4+ 8 f 0.0421(5) 0. 0.6591(7) 0.042(4) 0.917 0
Nb3 Nb4+ 8 f 0.0346(6) 0. 0.8577(7) 0.046(4) 0.917 0
Nb4 Nb4+ 8 f 0.1754(7) 0. 0.0408(6) 0.053(4) 0.917 0
Nb5 Nb4+ 8 f 0.1779(4) 0. 0.66252(34) 0.0046(15) 0.917 0
Nb6 Nb4+ 8 f 0.1817(5) 0. 0.8555(7) 0.0277(25) 0.917 0
O1 O2- 4 c 0.25 0. 0.0540(7) 0.001 1. 0
O2 O2- 4 c 0.25 0. 0.6467(9) 0.0114(31) 1. 0
O3 O2- 4 c 0.25 0. 0.8449(13) 0.042(7) 1. 0
O4 O2- 8 f 0.0382(4) 0. 0.5463(5) 0.0027(20) 1. 0
O5 O2- 8 f 0.0360(5) 0. 0.1460(6) 0.0137(26) 1. 0
O6 O2- 8 f 0.0350(5) 0. 0.7537(6) 0.0114(23) 1. 0
O7 O2- 8 f 0.0391(5) 0. 0.3478(7) 0.0198(33) 1. 0
O8 O2- 8 f 0.0364(5) 0. 0.9512(6) 0.0079(25) 1. 0
O9 O2- 8 f 0.1099(4) 0. 0.0426(5) 0.0022(20) 1. 0
O10 O2- 8 f 0.1116(5) 0. 0.6587(7) 0.0255(30) 1. 0
O11 O2- 8 f 0.1087(6) 0. 0.8477(8) 0.0282(32) 1. 0
O12 O2- 8 f 0.1810(6) 0. 0.5489(7) 0.0177(28) 1. 0
O13 O2- 8 f 0.1810(5) 0. 0.1496(7) 0.0162(27) 1. 0
O14 O2- 8 f 0.1819(8) 0. 0.7503(8) 0.038(4) 1. 0
O15 O2- 8 f 0.1794(6) 0. 0.3571(6) 0.0203(28) 1. 0
O16 O2- 8 f 0.1838(6) 0. 0.9485(6) 0.0200(32) 1. 0
Fe1 Fe3+ 8 f 0.03842(34) 0. 0.0495(4) 0.0041(15) 0.083 0
Fe2 Fe3+ 8 f 0.0421(5) 0. 0.6591(7) 0.042(4) 0.083 0
Fe3 Fe3+ 8 f 0.0346(6) 0. 0.8577(7) 0.046(4) 0.083 0
Fe4 Fe3+ 8 f 0.1754(7) 0. 0.0408(6) 0.053(4) 0.083 0
Fe5 Fe3+ 8 f 0.1779(4) 0. 0.66252(34) 0.0046(15) 0.083 0
Fe6 Fe3+ 8 f 0.1817(5) 0. 0.8555(7) 0.0277(25) 0.083 0
Li1 Li1+ 8 f 0.1190(12) 0. 0.3254(15) 0.016(7) 1. 0
Li2 Li1+ 4 c 0.25 0.5 0.4366(20) 0.007(9) 1. 0
Li3 Li1+ 4 c 0.25 0. 0.353(4) 0.025(14) 1. 0
Li4 Li1+ 8 f 0.0549(9) 0. 0.4331(11) 0.001 1. 0
Li5 Li1+ 4 c 0.25 0.5 0.040(7) 0.10(4) 1. 0
Li6 Li1+ 8 f 0.0227(24) 0. 0.239(4) 0.082(23) 1. 0
Li7 Li1+ 8 f 0.1199(12) 0. 0.1490(20) 0.020(8) 1. 0
#End of TTdata_194361-ICSD