
#(C) 2019 by FIZ Karlsruhe - Leibniz Institute for Information Infrastructure.  All rights reserved.
data_194373-ICSD
_database_code_ICSD 194373
_audit_creation_date 2015-08-01
_chemical_name_systematic
'Sodium-1.8 divanadium(III/IV) bis(orthophosphate) trifluoride'
_chemical_formula_structural 'Na1.8 V2 (P O4)2 F3'
_chemical_formula_sum 'F3 Na1.8 O8 P2 V2'
_exptl_crystal_density_diffrn 3.04
_publ_section_title

;
Local structure and dynamics in the Na ion battery positive electrode material
Na3 V2 (P O4)2 F3
;
loop_
_citation_id
_citation_journal_full
_citation_year
_citation_journal_volume
_citation_page_first
_citation_page_last
_citation_journal_id_ASTM
primary 'Chemistry of Materials' 2014 26 2513 2521 CMATEX
loop_
_publ_author_name
'Liu, Zigeng'
'Hu, Yan-Yan'
'Dunstan, Matthew T.'
'Huo, Hua'
'Hao, Xiaogang'
'Zou, Huan'
'Zhong, Guiming'
'Yang, Yong'
'Grey, Clare P.'
_cell_length_a 8.8351(6)
_cell_length_b 8.8351(6)
_cell_length_c 10.9200(10)
_cell_angle_alpha 90.
_cell_angle_beta 90.
_cell_angle_gamma 90.
_cell_volume 852.4
_cell_formula_units_Z 4
_symmetry_space_group_name_H-M 'P 42/m n m'
_symmetry_Int_Tables_number 136
_refine_ls_R_factor_all 0.0238
loop_
_symmetry_equiv_pos_site_id
_symmetry_equiv_pos_as_xyz
1 '-y+1/2, x+1/2, -z+1/2'
2 'y+1/2, -x+1/2, -z+1/2'
3 'y, x, -z'
4 '-y, -x, -z'
5 'y+1/2, -x+1/2, z+1/2'
6 '-y+1/2, x+1/2, z+1/2'
7 '-y, -x, z'
8 'y, x, z'
9 'x+1/2, -y+1/2, -z+1/2'
10 '-x+1/2, y+1/2, -z+1/2'
11 'x, y, -z'
12 '-x, -y, -z'
13 '-x+1/2, y+1/2, z+1/2'
14 'x+1/2, -y+1/2, z+1/2'
15 '-x, -y, z'
16 'x, y, z'
loop_
_atom_type_symbol
_atom_type_oxidation_number
Na1+ 1
V3+ 3.6
P5+ 5
O2- -2
F1- -1
loop_
_atom_site_label
_atom_site_type_symbol
_atom_site_symmetry_multiplicity
_atom_site_Wyckoff_symbol
_atom_site_fract_x
_atom_site_fract_y
_atom_site_fract_z
_atom_site_B_iso_or_equiv
_atom_site_occupancy
_atom_site_attached_hydrogens
Na1 Na1+ 8 i 0.509 0.234 0 0.03766 0.225(19) 0
Na2 Na1+ 8 i 0.792 0.046 0 0.03766 0.676(20) 0
V1 V3+ 8 j 0.2449(13) 0.2449(13) 0.1839(8) 0.0381 1. 0
P1 P5+ 4 d 0 0.5 0.25 0.10696 1. 0
P2 P5+ 4 e 0 0 0.269(4) 0.10696 1. 0
O1 O2- 16 k 0.095(4) 0.412(4) 0.1427(22) 0.01 1. 0
O2 O2- 8 j 0.069(3) 0.069(3) 0.1815(28) 0.01 1. 0
O3 O2- 8 j 0.399(4) 0.399(4) 0.145(3) 0.01 1. 0
F1 F1- 4 f 0.244(5) 0.244(5) 0 0.02502 1. 0
F2 F1- 8 j 0.241(4) 0.241(4) 0.3716(10) 0.02502 1. 0
#End of TTdata_194373-ICSD