
#(C) 2019 by FIZ Karlsruhe - Leibniz Institute for Information Infrastructure.  All rights reserved.
data_194300-ICSD
_database_code_ICSD 194300
_audit_creation_date 2015-08-01
_chemical_name_systematic
'Potassium-0.92 sodium-0.08 octaoxo-aluminotrisilicate'
_chemical_formula_structural '(K0.92 Na0.08) ((Si3 Al) O8)'
_chemical_formula_sum 'Al1 K0.92 Na0.08 O8 Si3'
_chemical_name_structure_type Feldspar#-(MO,C12/m1)-KAlSi3O8
_chemical_name_mineral Orthoclase
_exptl_crystal_density_diffrn 2.55
_cell_measurement_temperature 293.
_publ_section_title

;
Structural controls on the anisotropy of tetrahedral frameworks: the example
of monoclinic feldspars
;
loop_
_citation_id
_citation_journal_full
_citation_year
_citation_journal_volume
_citation_page_first
_citation_page_last
_citation_journal_id_ASTM
primary 'European Journal of Mineralogy' 2013 25 597 614 EJMIER
loop_
_publ_author_name
'Angel, Ross J.'
'Ross, Nancy L.'
'Zhao, Jing'
'Sochalski-Kolbus, Lindsay'
'Kruger, Hannes'
'Schmidt, Burkhard C.'
_cell_length_a 8.5752(11)
_cell_length_b 12.9860(16)
_cell_length_c 7.2013(9)
_cell_angle_alpha 90
_cell_angle_beta 116.023(9)
_cell_angle_gamma 90
_cell_volume 720.61
_cell_formula_units_Z 4
_symmetry_space_group_name_H-M 'C 1 2/m 1'
_symmetry_Int_Tables_number 12
_refine_ls_R_factor_all 0.0271
loop_
_symmetry_equiv_pos_site_id
_symmetry_equiv_pos_as_xyz
1 '-x, y, -z'
2 '-x, -y, -z'
3 'x, -y, z'
4 'x, y, z'
5 '-x+1/2, y+1/2, -z'
6 '-x+1/2, -y+1/2, -z'
7 'x+1/2, -y+1/2, z'
8 'x+1/2, y+1/2, z'
loop_
_atom_type_symbol
_atom_type_oxidation_number
K1+ 1
Na1+ 1
Si4+ 4
Al3+ 3
O2- -2
loop_
_atom_site_label
_atom_site_type_symbol
_atom_site_symmetry_multiplicity
_atom_site_Wyckoff_symbol
_atom_site_fract_x
_atom_site_fract_y
_atom_site_fract_z
_atom_site_B_iso_or_equiv
_atom_site_occupancy
_atom_site_attached_hydrogens
K1 K1+ 4 i 0.28485(8) 0 0.13820(10) 0.0321(2) 0.92 0
Na1 Na1+ 4 i 0.28485(8) 0 0.13820(10) 0.0321(2) 0.08 0
Si1 Si4+ 8 j 0.00927(6) 0.18479(4) 0.22406(6) 0.01464(17) 0.62 0
Si2 Si4+ 8 j 0.70902(6) 0.11769(4) 0.34450(6) 0.01482(17) 0.88 0
Al1 Al3+ 8 j 0.00927(6) 0.18479(4) 0.22406(6) 0.01464(17) 0.38 0
Al2 Al3+ 8 j 0.70902(6) 0.11769(4) 0.34450(6) 0.01482(17) 0.12 0
O1 O2- 4 g 0 0.14606(16) 0 0.0248(4) 1 0
O2 O2- 4 i 0.6380(3) 0 0.2854(3) 0.0252(4) 1 0
O3 O2- 8 j 0.82683(19) 0.14641(12) 0.2278(2) 0.0289(3) 1 0
O4 O2- 8 j 0.03505(17) 0.31152(10) 0.2593(2) 0.0228(3) 1 0
O5 O2- 8 j 0.18076(17) 0.12584(11) 0.40681(18) 0.0237(3) 1 0
loop_
_atom_site_aniso_label
_atom_site_aniso_type_symbol
_atom_site_aniso_U_11
_atom_site_aniso_U_22
_atom_site_aniso_U_33
_atom_site_aniso_U_12
_atom_site_aniso_U_13
_atom_site_aniso_U_23
K1 K1+ 0.0229(3) 0.0381(4) 0.0323(3) 0 0.0093(2) 0
Na1 Na1+ 0.0229(3) 0.0381(4) 0.0323(3) 0 0.0093(2) 0
Si1 Si4+ 0.0160(2) 0.0151(3) 0.0137(2) -0.00226(16) 0.00729(17) -0.00138(15)
Si2 Si4+ 0.0155(2) 0.0136(3) 0.0153(2) -0.00001(15) 0.00667(17) 0.00042(14)
Al1 Al3+ 0.0160(2) 0.0151(3) 0.0137(2) -0.00226(16) 0.00729(17) -0.00138(15)
Al2 Al3+ 0.0155(2) 0.0136(3) 0.0153(2) -0.00001(15) 0.00667(17) 0.00042(14)
O1 O2- 0.0283(9) 0.0228(10) 0.0246(8) 0 0.0127(7) 0
O2 O2- 0.0259(9) 0.0164(9) 0.0265(9) 0 0.0052(7) 0
O3 O2- 0.0265(7) 0.0353(8) 0.0304(7) -0.0020(6) 0.0174(5) 0.0025(6)
O4 O2- 0.0205(6) 0.0217(7) 0.0247(6) -0.0024(5) 0.0085(5) -0.0028(5)
O5 O2- 0.0249(7) 0.0243(7) 0.0170(6) 0.0011(5) 0.0046(5) 0.0011(4)
#End of TTdata_194300-ICSD