
#(C) 2019 by FIZ Karlsruhe - Leibniz Institute for Information Infrastructure.  All rights reserved.
data_194408-ICSD
_database_code_ICSD 194408
_audit_creation_date 2015-08-01
_chemical_name_systematic 'Sodium dititanium tris(phosphate)'
_chemical_formula_structural 'Na Ti2 (P O4)3'
_chemical_formula_sum 'Na1 O12 P3 Ti2'
_chemical_name_structure_type NaZr2(PO4)3
_exptl_crystal_density_diffrn 2.95
_cell_measurement_temperature 473.
_publ_section_title

;
Ionic conduction in cubic Na3 Ti P3 O9 N, a secondary Na-ion battery cathode
with extremely low volume change
;
loop_
_citation_id
_citation_journal_full
_citation_year
_citation_journal_volume
_citation_page_first
_citation_page_last
_citation_journal_id_ASTM
primary 'Chemistry of Materials' 2014 26 3295 3305 CMATEX
loop_
_publ_author_name
'Liu, Jue'
'Chang, Donghee'
'Whitfield, Pamela'
'Janssen, Yuri'
'Yu, Xiqian'
'Zhou, Yongning'
'Bai, Jianming'
'Ko, Jonathan'
'Nam, Kyung-Wan'
'Wu, Lijun'
'Zhu, Yimei'
'Feygenson, Mikhail'
'Amatucci, Glenn'
'Van der Ven, Anton'
'Yang, Xiao-Qing'
'Khalifah, Peter'
_cell_length_a 8.4736(3)
_cell_length_b 8.4736(3)
_cell_length_c 21.9502(10)
_cell_angle_alpha 90.
_cell_angle_beta 90.
_cell_angle_gamma 120.
_cell_volume 1364.91
_cell_formula_units_Z 6
_symmetry_space_group_name_H-M 'R -3 c H'
_symmetry_Int_Tables_number 167
loop_
_symmetry_equiv_pos_site_id
_symmetry_equiv_pos_as_xyz
1 'x-y, -y, -z+1/2'
2 '-x, -x+y, -z+1/2'
3 'y, x, -z+1/2'
4 'x-y, x, -z'
5 'y, -x+y, -z'
6 '-x, -y, -z'
7 '-x+y, y, z+1/2'
8 'x, x-y, z+1/2'
9 '-y, -x, z+1/2'
10 '-x+y, -x, z'
11 '-y, x-y, z'
12 'x, y, z'
13 'x-y+2/3, -y+1/3, -z+5/6'
14 '-x+2/3, -x+y+1/3, -z+5/6'
15 'y+2/3, x+1/3, -z+5/6'
16 'x-y+2/3, x+1/3, -z+1/3'
17 'y+2/3, -x+y+1/3, -z+1/3'
18 '-x+2/3, -y+1/3, -z+1/3'
19 '-x+y+2/3, y+1/3, z+5/6'
20 'x+2/3, x-y+1/3, z+5/6'
21 '-y+2/3, -x+1/3, z+5/6'
22 '-x+y+2/3, -x+1/3, z+1/3'
23 '-y+2/3, x-y+1/3, z+1/3'
24 'x+2/3, y+1/3, z+1/3'
25 'x-y+1/3, -y+2/3, -z+1/6'
26 '-x+1/3, -x+y+2/3, -z+1/6'
27 'y+1/3, x+2/3, -z+1/6'
28 'x-y+1/3, x+2/3, -z+2/3'
29 'y+1/3, -x+y+2/3, -z+2/3'
30 '-x+1/3, -y+2/3, -z+2/3'
31 '-x+y+1/3, y+2/3, z+1/6'
32 'x+1/3, x-y+2/3, z+1/6'
33 '-y+1/3, -x+2/3, z+1/6'
34 '-x+y+1/3, -x+2/3, z+2/3'
35 '-y+1/3, x-y+2/3, z+2/3'
36 'x+1/3, y+2/3, z+2/3'
loop_
_atom_type_symbol
_atom_type_oxidation_number
Na1+ 1
Ti4+ 4
P5+ 5
O2- -2
loop_
_atom_site_label
_atom_site_type_symbol
_atom_site_symmetry_multiplicity
_atom_site_Wyckoff_symbol
_atom_site_fract_x
_atom_site_fract_y
_atom_site_fract_z
_atom_site_B_iso_or_equiv
_atom_site_occupancy
_atom_site_attached_hydrogens
Na1 Na1+ 6 b 0 0 0 4.35(14) 1. 0
Ti1 Ti4+ 12 c 0 0 0.1459(1) 0.91(4) 1. 0
P1 P5+ 18 e 0.2857(2) 0 0.25 1.15(5) 1. 0
O1 O2- 36 f 0.0307(4) 0.2000(4) 0.1926(1) 1.62(8) 1. 0
O2 O2- 36 f 0.1934(3) 0.1653(3) 0.0900(1) 1.08(7) 1. 0
#End of TTdata_194408-ICSD