
#(C) 2019 by FIZ Karlsruhe - Leibniz Institute for Information Infrastructure.  All rights reserved.
data_194403-ICSD
_database_code_ICSD 194403
_audit_creation_date 2015-08-01
_chemical_name_systematic 'Trisodium titanium(III) nitridoenneaoxo-triphosphate'
_chemical_formula_structural 'Na2.97 Ti (P3 O9 N)'
_chemical_formula_sum 'N1 Na2.97 O9 P3 Ti1'
_exptl_crystal_density_diffrn 2.83
_cell_measurement_temperature 300.
_publ_section_title

;
Ionic conduction in cubic Na3 Ti P3 O9 N, a secondary Na-ion battery cathode
with extremely low volume change
;
loop_
_citation_id
_citation_journal_full
_citation_year
_citation_journal_volume
_citation_page_first
_citation_page_last
_citation_journal_id_ASTM
primary 'Chemistry of Materials' 2014 26 3295 3305 CMATEX
loop_
_publ_author_name
'Liu, Jue'
'Chang, Donghee'
'Whitfield, Pamela'
'Janssen, Yuri'
'Yu, Xiqian'
'Zhou, Yongning'
'Bai, Jianming'
'Ko, Jonathan'
'Nam, Kyung-Wan'
'Wu, Lijun'
'Zhu, Yimei'
'Feygenson, Mikhail'
'Amatucci, Glenn'
'Van der Ven, Anton'
'Yang, Xiao-Qing'
'Khalifah, Peter'
_cell_length_a 9.5180(2)
_cell_length_b 9.5180(2)
_cell_length_c 9.5180(2)
_cell_angle_alpha 90.
_cell_angle_beta 90.
_cell_angle_gamma 90.
_cell_volume 862.26
_cell_formula_units_Z 4
_symmetry_space_group_name_H-M 'P 21 3'
_symmetry_Int_Tables_number 198
_refine_ls_R_factor_all 0.0215
loop_
_symmetry_equiv_pos_site_id
_symmetry_equiv_pos_as_xyz
1 '-z+1/2, -x, y+1/2'
2 '-y+1/2, -z, x+1/2'
3 '-x+1/2, -y, z+1/2'
4 '-z, x+1/2, -y+1/2'
5 '-y, z+1/2, -x+1/2'
6 '-x, y+1/2, -z+1/2'
7 'z+1/2, -x+1/2, -y'
8 'y+1/2, -z+1/2, -x'
9 'x+1/2, -y+1/2, -z'
10 'z, x, y'
11 'y, z, x'
12 'x, y, z'
loop_
_atom_type_symbol
_atom_type_oxidation_number
Na1+ 1
Ti3+ 3
P5+ 5
O2- -2
N3- -3
loop_
_atom_site_label
_atom_site_type_symbol
_atom_site_symmetry_multiplicity
_atom_site_Wyckoff_symbol
_atom_site_fract_x
_atom_site_fract_y
_atom_site_fract_z
_atom_site_B_iso_or_equiv
_atom_site_occupancy
_atom_site_attached_hydrogens
Na1 Na1+ 4 a 0.01129(34) 0.01129(34) 0.01129(34) 2.49 0.966(37) 0
Na2 Na1+ 4 a 0.39430(27) 0.39430(27) 0.39430(27) 1.49 1. 0
Na3 Na1+ 4 a 0.80249(36) 0.80249(36) 0.80249(36) 2.99 1. 0
Ti1 Ti3+ 4 a 0.58186(25) 0.58186(25) 0.58186(25) 0.95 1. 0
P1 P5+ 12 b 0.08461(16) 0.24474(15) 0.33282(18) 0.74 1. 0
O1 O2- 12 b 0.02187(14) 0.84785(14) 0.23148(13) 1.12 1. 0
O2 O2- 12 b 0.00640(15) 0.11152(14) 0.37448(14) 1.26 1. 0
O3 O2- 12 b 0.16837(15) 0.30919(18) 0.45015(14) 1.43 1. 0
N1 N3- 4 a 0.19905(9) 0.19905(9) 0.19905(9) 0.79 1. 0
loop_
_atom_site_aniso_label
_atom_site_aniso_type_symbol
_atom_site_aniso_U_11
_atom_site_aniso_U_22
_atom_site_aniso_U_33
_atom_site_aniso_U_12
_atom_site_aniso_U_13
_atom_site_aniso_U_23
Na1 Na1+ 0.0348(24) 0.0348(24) 0.0348(24) 0.0210(29) 0.0210(29) 0.0210(29)
Na2 Na1+ 0.0209(16) 0.0209(16) 0.0209(16) 0. 0. 0.
Na3 Na1+ 0.0459(25) 0.0459(25) 0.0459(25) 0.0247(35) 0.0247(35) 0.0247(35)
Ti1 Ti3+ 0.0013(12) 0.0131(12) 0.0131(12) 0.0045(13) 0.0045(13) 0.0045(13)
P1 P5+ 0.0136(12) 0.0064(11) 0.0095(12) 0.0024(8) 0.0007(7) -0.0007(7)
O1 O2- 0.0158(12) 0.0140(13) 0.0153(12) -0.0102(8) 0.0012(8) -0.0034(8)
O2 O2- 0.0153(12) 0.0120(12) 0.0157(13) -0.0015(7) 0.0014(8) 0.0028(7)
O3 O2- 0.0207(14) 0.0280(15) 0.0110(11) -0.0050(9) -0.0011(8) -0.0045(9)
N1 N3- 0.0107(8) 0.0107(8) 0.0107(8) -0.0008(4) -0.0008(4) -0.0008(4)
#End of TTdata_194403-ICSD