
#(C) 2018 by FIZ Karlsruhe - Leibniz Institute for Information Infrastructure.  All rights reserved.
data_194492-ICSD
_database_code_ICSD 194492
_audit_creation_date 2015-08-01
_chemical_name_systematic 'Lithium ammonium sulfate'
_chemical_formula_structural 'Li (N H4) (S O4)'
_chemical_formula_sum 'H4 Li1 N1 O4 S1'
_exptl_crystal_density_diffrn 1.84
_cell_measurement_temperature 300.
_publ_section_title

;
Polymorphism and polytypism of alpha - Li N H4 S O4 crystals. Monte Carlo
modeling based on X-ray diffuse scattering
;
loop_
_citation_id
_citation_journal_full
_citation_year
_citation_journal_volume
_citation_page_first
_citation_page_last
_citation_journal_id_ASTM
primary 'Crystal Growth & Design' 2014 14 5784 5793 CGDEFU
loop_
_publ_author_name
'Komornicka, Dorota'
'Wolcyrz, Marek'
'Pietraszko, Adam'
_cell_length_a 10.193(2)
_cell_length_b 4.9967(10)
_cell_length_c 17.127(3)
_cell_angle_alpha 90.
_cell_angle_beta 90.
_cell_angle_gamma 90.
_cell_volume 872.3
_cell_formula_units_Z 8
_symmetry_space_group_name_H-M 'P c a 21'
_symmetry_Int_Tables_number 29
_refine_ls_R_factor_all 0.0334
loop_
_symmetry_equiv_pos_site_id
_symmetry_equiv_pos_as_xyz
1 'x+1/2, -y, z'
2 '-x+1/2, y, z+1/2'
3 '-x, -y, z+1/2'
4 'x, y, z'
loop_
_atom_type_symbol
_atom_type_oxidation_number
S6+ 6
O2- -2
N3- -3
Li1+ 1
H1+ 1
loop_
_atom_site_label
_atom_site_type_symbol
_atom_site_symmetry_multiplicity
_atom_site_Wyckoff_symbol
_atom_site_fract_x
_atom_site_fract_y
_atom_site_fract_z
_atom_site_B_iso_or_equiv
_atom_site_occupancy
_atom_site_attached_hydrogens
S1 S6+ 4 a 0.52304(2) 0.96249(4) -0.09741(2) 0.01620(5) 1 0
S2 S6+ 4 a 0.72564(2) 0.53785(5) 0.09909(2) 0.01637(5) 1 0
O1 O2- 4 a 0.51510(8) 0.66770(15) -0.08823(6) 0.0315(2) 1 0
O2 O2- 4 a 0.44544(7) 0.08852(16) -0.03418(5) 0.0257(2) 1 0
O3 O2- 4 a 0.46914(9) 0.0356(2) -0.17285(5) 0.0382(3) 1 0
O4 O2- 4 a 0.66042(8) 0.04369(17) -0.09092(5) 0.0300(2) 1 0
O5 O2- 4 a 0.73275(8) 0.83309(15) 0.09029(6) 0.0333(2) 1 0
O6 O2- 4 a 0.30240(8) 0.58841(16) 0.03588(5) 0.0265(2) 1 0
O7 O2- 4 a 0.28091(9) 0.5329(2) 0.17538(5) 0.0385(3) 1 0
O8 O2- 4 a 0.58791(7) 0.45622(17) 0.09394(5) 0.0296(2) 1 0
N1 N3- 4 a 0.46834(9) 0.9800(2) 0.16990(6) 0.0254(2) 1 0
N2 N3- 4 a 0.26954(10) 0.4767(2) -0.16439(6) 0.0310(3) 1 0
Li1 Li1+ 4 a 0.27294(19) 0.9538(4) 0.00012(12) 0.0270(5) 1 0
Li2 Li1+ 4 a 0.47411(18) 0.4579(4) 0.00279(11) 0.0242(5) 1 0
H1 H1+ 4 a 0.4763 0.9924 0.2251 0.05 1 0
H2 H1+ 4 a 0.3925 0.0578 0.1484 0.05 1 0
H3 H1+ 4 a 0.5266 0.089 0.1428 0.05 1 0
H4 H1+ 4 a 0.4883 0.7989 0.1573 0.05 1 0
H5 H1+ 4 a 0.2595 0.4865 -0.2191 0.05 1 0
H6 H1+ 4 a 0.3463 0.567 -0.1482 0.05 1 0
H7 H1+ 4 a 0.2571 0.3038 -0.1448 0.05 1 0
H8 H1+ 4 a 0.7112 0.4007 -0.1395 0.05 1 0
loop_
_atom_site_aniso_label
_atom_site_aniso_type_symbol
_atom_site_aniso_U_11
_atom_site_aniso_U_22
_atom_site_aniso_U_33
_atom_site_aniso_U_12
_atom_site_aniso_U_13
_atom_site_aniso_U_23
S1 S6+ 0.01497(9) 0.01629(8) 0.01733(10) 0.00129(9) 0.00118(9) -0.00078(10)
S2 S6+ 0.01574(9) 0.01679(8) 0.01657(9) -0.00192(8) 0.00130(9) -0.00030(10)
O1 O2- 0.0385(4) 0.0177(3) 0.0383(4) -0.0025(3) 0.0106(4) 0.0013(4)
O2 O2- 0.0228(3) 0.0227(4) 0.0316(4) -0.0018(3) 0.0082(3) -0.0058(3)
O3 O2- 0.0379(5) 0.0534(6) 0.0234(4) 0.0100(5) -0.0054(4) 0.0015(4)
O4 O2- 0.0187(3) 0.0359(4) 0.0353(4) -0.0068(3) 0.0018(3) -0.0024(4)
O5 O2- 0.0416(4) 0.0176(3) 0.0406(4) -0.0019(3) 0.0128(4) -0.0036(4)
O6 O2- 0.0246(3) 0.0239(4) 0.0310(4) 0.0030(3) 0.0088(3) 0.0081(3)
O7 O2- 0.0374(4) 0.0549(6) 0.0233(4) -0.0149(4) -0.0032(4) -0.0042(4)
O8 O2- 0.0191(3) 0.0375(4) 0.0324(4) -0.0050(3) 0.0022(3) 0.0017(4)
N1 N3- 0.0209(4) 0.0300(5) 0.0253(4) -0.0050(4) 0.0004(4) 0.0034(4)
N2 N3- 0.0291(5) 0.0314(5) 0.0324(5) -0.0084(4) -0.0015(4) 0.0026(4)
Li1 Li1+ 0.0247(9) 0.0267(9) 0.0296(9) 0.0002(8) 0.0021(8) 0.0046(8)
Li2 Li1+ 0.0206(8) 0.0258(9) 0.0260(9) 0.0018(8) 0.0009(7) 0.0014(8)
#End of TTdata_194492-ICSD