
#(C) 2018 by FIZ Karlsruhe - Leibniz Institute for Information Infrastructure.  All rights reserved.
data_194493-ICSD
_database_code_ICSD 194493
_audit_creation_date 2015-08-01
_chemical_name_systematic 'Lithium ammonium sulfate'
_chemical_formula_structural 'Li (N H4) (S O4)'
_chemical_formula_sum 'H4 Li1 N1 O4 S1'
_exptl_crystal_density_diffrn 1.83
_cell_measurement_temperature 383.
_publ_section_title

;
Polymorphism and polytypism of alpha - Li N H4 S O4 crystals. Monte Carlo
modeling based on X-ray diffuse scattering
;
loop_
_citation_id
_citation_journal_full
_citation_year
_citation_journal_volume
_citation_page_first
_citation_page_last
_citation_journal_id_ASTM
primary 'Crystal Growth & Design' 2014 14 5784 5793 CGDEFU
loop_
_publ_author_name
'Komornicka, Dorota'
'Wolcyrz, Marek'
'Pietraszko, Adam'
_cell_length_a 10.210(2)
_cell_length_b 5.0080(10)
_cell_length_c 17.153(3)
_cell_angle_alpha 90.
_cell_angle_beta 90.
_cell_angle_gamma 90.
_cell_volume 877.06
_cell_formula_units_Z 8
_symmetry_space_group_name_H-M 'P c a 21'
_symmetry_Int_Tables_number 29
_refine_ls_R_factor_all 0.0353
loop_
_symmetry_equiv_pos_site_id
_symmetry_equiv_pos_as_xyz
1 'x+1/2, -y, z'
2 '-x+1/2, y, z+1/2'
3 '-x, -y, z+1/2'
4 'x, y, z'
loop_
_atom_type_symbol
_atom_type_oxidation_number
S6+ 6
O2- -2
N3- -3
Li1+ 1
H1+ 1
loop_
_atom_site_label
_atom_site_type_symbol
_atom_site_symmetry_multiplicity
_atom_site_Wyckoff_symbol
_atom_site_fract_x
_atom_site_fract_y
_atom_site_fract_z
_atom_site_B_iso_or_equiv
_atom_site_occupancy
_atom_site_attached_hydrogens
S1 S6+ 4 a 0.273128(19) 0.96462(4) -0.097485(10) 0.02005(4) 1 0
S2 S6+ 4 a 0.476572(18) 0.53485(4) 0.099107(9) 0.01943(4) 1 0
O1 O2- 4 a 0.26614(7) 0.67072(12) -0.08819(5) 0.03951(19) 1 0
O2 O2- 4 a 0.19670(6) 0.09183(13) -0.03474(4) 0.03160(17) 1 0
O3 O2- 4 a 0.22063(7) 0.03590(17) -0.17280(5) 0.0486(2) 1 0
O4 O2- 4 a 0.41060(6) 0.04533(14) -0.09023(5) 0.03682(19) 1 0
O5 O2- 4 a 0.48581(7) 0.82797(12) 0.09044(5) 0.03865(19) 1 0
O6 O2- 4 a 0.05555(6) 0.59156(13) 0.03675(4) 0.03121(17) 1 0
O7 O2- 4 a 0.03018(8) 0.53700(19) 0.17534(4) 0.0468(2) 1 0
O8 O2- 4 a 0.33953(6) 0.45458(14) 0.09363(5) 0.03663(18) 1 0
N1 N3- 4 a 0.21934(8) 0.97786(18) 0.16981(5) 0.0339(2) 1 0
N2 N3- 4 a 0.01861(8) 0.48000(18) -0.16426(5) 0.0353(2) 1 0
Li1 Li1+ 4 a 0.02162(17) 0.9564(3) 0.00096(10) 0.0331(4) 1 0
Li2 Li1+ 4 a 0.22268(13) 0.4587(3) 0.00291(10) 0.0269(4) 1 0
H1 H1+ 4 a 0.2263 0.9924 0.2251 0.05 1 0
H2 H1+ 4 a 0.1425 0.0578 0.1484 0.05 1 0
H3 H1+ 4 a 0.2766 0.089 0.1428 0.05 1 0
H4 H1+ 4 a 0.2383 0.7989 0.1573 0.05 1 0
H5 H1+ 4 a 0.0095 0.4865 -0.2191 0.05 1 0
H6 H1+ 4 a 0.0963 0.567 -0.1482 0.05 1 0
H7 H1+ 4 a 0.0071 0.3038 -0.1448 0.05 1 0
H8 H1+ 4 a 0.4612 0.4007 -0.1395 0.05 1 0
loop_
_atom_site_aniso_label
_atom_site_aniso_type_symbol
_atom_site_aniso_U_11
_atom_site_aniso_U_22
_atom_site_aniso_U_33
_atom_site_aniso_U_12
_atom_site_aniso_U_13
_atom_site_aniso_U_23
S1 S6+ 0.01922(7) 0.02007(7) 0.02086(8) -0.00364(7) 0.00166(7) -0.00169(8)
S2 S6+ 0.01844(7) 0.01989(7) 0.01994(8) 0.00282(7) 0.00134(7) 0.00060(9)
O1 O2- 0.0490(3) 0.0214(3) 0.0482(4) -0.0019(3) 0.0144(3) -0.0035(3)
O2 O2- 0.0295(3) 0.0284(3) 0.0369(3) -0.0036(3) 0.0110(3) -0.0077(3)
O3 O2- 0.0501(4) 0.0684(5) 0.0272(4) 0.0166(4) -0.0061(3) 0.0020(4)
O4 O2- 0.0207(3) 0.0464(3) 0.0433(4) -0.0049(3) 0.0031(3) -0.0044(3)
O5 O2- 0.0481(3) 0.0205(3) 0.0473(4) -0.0040(3) 0.0127(3) -0.0012(3)
O6 O2- 0.0273(3) 0.0281(3) 0.0382(4) 0.0029(3) 0.0104(3) 0.0089(3)
O7 O2- 0.0474(4) 0.0655(5) 0.0276(4) -0.0129(4) -0.0057(3) -0.0048(3)
O8 O2- 0.0245(3) 0.0451(3) 0.0403(4) -0.0105(3) 0.0000(3) 0.0046(4)
N1 N3- 0.0299(4) 0.0414(4) 0.0305(4) -0.0059(3) -0.0003(3) 0.0049(3)
N2 N3- 0.0341(4) 0.0357(4) 0.0361(4) -0.0074(3) -0.0001(4) 0.0039(4)
Li1 Li1+ 0.0387(8) 0.0271(7) 0.0334(8) -0.0093(7) 0.0066(7) 0.0036(7)
Li2 Li1+ 0.0168(6) 0.0321(7) 0.0317(8) -0.0086(6) 0.0007(6) 0.0012(7)
#End of TTdata_194493-ICSD