
#(C) 2019 by FIZ Karlsruhe - Leibniz Institute for Information Infrastructure.  All rights reserved.
data_194406-ICSD
_database_code_ICSD 194406
_audit_creation_date 2015-08-01
_chemical_name_systematic
'Sodium-2.1 titanium(III/IV) nitridoenneaoxo-triphosphate'
_chemical_formula_structural 'Na2.08 Ti (P3 O9 N)'
_chemical_formula_sum 'N1 Na2.08 O9 P3 Ti1'
_exptl_crystal_density_diffrn 2.68
_cell_measurement_temperature 300.
_publ_section_title

;
Ionic conduction in cubic Na3 Ti P3 O9 N, a secondary Na-ion battery cathode
with extremely low volume change
;
loop_
_citation_id
_citation_journal_full
_citation_year
_citation_journal_volume
_citation_page_first
_citation_page_last
_citation_journal_id_ASTM
primary 'Chemistry of Materials' 2014 26 3295 3305 CMATEX
loop_
_publ_author_name
'Liu, Jue'
'Chang, Donghee'
'Whitfield, Pamela'
'Janssen, Yuri'
'Yu, Xiqian'
'Zhou, Yongning'
'Bai, Jianming'
'Ko, Jonathan'
'Nam, Kyung-Wan'
'Wu, Lijun'
'Zhu, Yimei'
'Feygenson, Mikhail'
'Amatucci, Glenn'
'Van der Ven, Anton'
'Yang, Xiao-Qing'
'Khalifah, Peter'
_cell_length_a 9.5092(2)
_cell_length_b 9.5092(2)
_cell_length_c 9.5092(2)
_cell_angle_alpha 90.
_cell_angle_beta 90.
_cell_angle_gamma 90.
_cell_volume 859.87
_cell_formula_units_Z 4
_symmetry_space_group_name_H-M 'P 21 3'
_symmetry_Int_Tables_number 198
_refine_ls_R_factor_all 0.0159
loop_
_symmetry_equiv_pos_site_id
_symmetry_equiv_pos_as_xyz
1 '-z+1/2, -x, y+1/2'
2 '-y+1/2, -z, x+1/2'
3 '-x+1/2, -y, z+1/2'
4 '-z, x+1/2, -y+1/2'
5 '-y, z+1/2, -x+1/2'
6 '-x, y+1/2, -z+1/2'
7 'z+1/2, -x+1/2, -y'
8 'y+1/2, -z+1/2, -x'
9 'x+1/2, -y+1/2, -z'
10 'z, x, y'
11 'y, z, x'
12 'x, y, z'
loop_
_atom_type_symbol
_atom_type_oxidation_number
Na1+ 1
Ti3+ 3.9
P5+ 5
O2- -2
N3- -3
loop_
_atom_site_label
_atom_site_type_symbol
_atom_site_symmetry_multiplicity
_atom_site_Wyckoff_symbol
_atom_site_fract_x
_atom_site_fract_y
_atom_site_fract_z
_atom_site_B_iso_or_equiv
_atom_site_occupancy
_atom_site_attached_hydrogens
Na1 Na1+ 4 a 0.0064(27) 0.0064(27) 0.0064(27) 2.17(98) 0.085(4) 0
Na2 Na1+ 4 a 0.39123(20) 0.39123(20) 0.39123(20) 1.1 1. 0
Na3 Na1+ 4 a 0.81376(23) 0.81376(23) 0.81376(23) 2.33 1. 0
Ti1 Ti3+ 4 a 0.58474(21) 0.58474(21) 0.58474(21) 0.95 1. 0
P1 P5+ 12 b 0.08461(14) 0.23983(12) 0.32989(14) 0.62 1. 0
O1 O2- 12 b 0.02576(11) 0.83577(12) 0.23872(10) 0.94 1. 0
O2 O2- 12 b 0.00893(12) 0.10335(11) 0.37382(11) 0.89 1. 0
O3 O2- 12 b 0.16634(12) 0.30500(13) 0.44710(11) 1.4 1. 0
N1 N3- 4 a 0.19616(7) 0.19616(7) 0.19616(7) 0.72 1. 0
loop_
_atom_site_aniso_label
_atom_site_aniso_type_symbol
_atom_site_aniso_U_11
_atom_site_aniso_U_22
_atom_site_aniso_U_33
_atom_site_aniso_U_12
_atom_site_aniso_U_13
_atom_site_aniso_U_23
Na2 Na1+ 0.0139(11) 0.0139(11) 0.0139(11) 0. 0. 0.
Na3 Na1+ 0.0296(13) 0.0296(13) 0.0296(13) 0.0053(19) 0.0053(19) 0.0053(19)
Ti1 Ti3+ 0.0140(10) 0.0140(10) 0.0140(10) 0.0013(11) 0.0013(11) 0.0013(11)
P1 P5+ 0.0104(9) 0.0063(8) 0.0069(8) -0.0008(4) -0.0002(5) -0.0021(6)
O1 O2- 0.0127(8) 0.0134(1) 0.0095(8) -0.0061(5) -0.0002(6) -0.0022(7)
O2 O2- 0.0112(8) 0.1096(9) 0.0118(8) -0.0053(4) 0.0016(7) 0.0005(6)
O3 O2- 0.0194(11) 0.0229(10) 0.0109(8) -0.0067(6) -0.0039(7) -0.0035(7)
N1 N3- 0.0090(4) 0.0090(4) 0.0090(4) 0.0011(4) 0.0011(4) 0.0011(4)
#End of TTdata_194406-ICSD