
#(C) 2019 by FIZ Karlsruhe - Leibniz Institute for Information Infrastructure.  All rights reserved.
data_194604-ICSD
_database_code_ICSD 194604
_audit_creation_date 2015-08-01
_chemical_name_systematic
'Trisodium divanadium(IV) dioxide bis(orthophosphate) fluoride'
_chemical_formula_structural 'Na3 V2 O2 (P O4)2 F'
_chemical_formula_sum 'F1 Na3 O10 P2 V2'
_exptl_crystal_density_diffrn 3.16
_publ_section_title

;
Sodium distribution and reaction mechanisms of a Na3 V2 O2 (P O4)2 F electrode
during use in a sodium-ion battery
;
loop_
_citation_id
_citation_journal_full
_citation_year
_citation_journal_volume
_citation_page_first
_citation_page_last
_citation_journal_id_ASTM
primary 'Chemistry of Materials' 2014 26 3391 3402 CMATEX
loop_
_publ_author_name
'Sharma, Neeraj'
'Serras, Paula'
'Palomares, Veronica'
'Brand, Helen E.A.'
'Alonso, Javier'
'Kubiak, Pierre'
'Fdez-Gubieda, M. Luisa'
'Rojo, Teofilo'
_cell_length_a 9.0319(5)
_cell_length_b 9.0319(5)
_cell_length_c 10.6252(6)
_cell_angle_alpha 90.
_cell_angle_beta 90.
_cell_angle_gamma 90.
_cell_volume 866.75
_cell_formula_units_Z 4
_symmetry_space_group_name_H-M 'P 42/m n m'
_symmetry_Int_Tables_number 136
_refine_ls_R_factor_all 0.0324
loop_
_symmetry_equiv_pos_site_id
_symmetry_equiv_pos_as_xyz
1 '-y+1/2, x+1/2, -z+1/2'
2 'y+1/2, -x+1/2, -z+1/2'
3 'y, x, -z'
4 '-y, -x, -z'
5 'y+1/2, -x+1/2, z+1/2'
6 '-y+1/2, x+1/2, z+1/2'
7 '-y, -x, z'
8 'y, x, z'
9 'x+1/2, -y+1/2, -z+1/2'
10 '-x+1/2, y+1/2, -z+1/2'
11 'x, y, -z'
12 '-x, -y, -z'
13 '-x+1/2, y+1/2, z+1/2'
14 'x+1/2, -y+1/2, z+1/2'
15 '-x, -y, z'
16 'x, y, z'
loop_
_atom_type_symbol
_atom_type_oxidation_number
Na1+ 1
V4+ 4
P5+ 5
O2- -2
F1- -1
O2- -2
loop_
_atom_site_label
_atom_site_type_symbol
_atom_site_symmetry_multiplicity
_atom_site_Wyckoff_symbol
_atom_site_fract_x
_atom_site_fract_y
_atom_site_fract_z
_atom_site_B_iso_or_equiv
_atom_site_occupancy
_atom_site_attached_hydrogens
Na1 Na1+ 8 i 0.5108(8) 0.2430(12) 0 0.0258 0.86(1) 0
Na2 Na1+ 8 i 0.7955(9) 0.0262(13) 0 0.0333 0.67(1) 0
V1 V4+ 8 j 0.2508(4) 0.2508(4) 0.19976(10) 0.0061(2) 1. 0
P1 P5+ 4 d 0 0.5 0.25 0.0013(11) 1. 0
P2 P5+ 4 e 0 0 0.2616(6) 0.0130(15) 1. 0
O1 O2- 16 k 0.0953(9) 0.4030(9) 0.1721(5) 0.0086(17) 1. 0
O2 O2- 8 j 0.0959(8) 0.0959(8) 0.1610(11) 0.0010(30) 1. 0
O3 O2- 8 j 0.4039(8) 0.4039(8) 0.1493(11) 0.0111(31) 1. 0
F1 F1- 4 f 0.2489(12) 0.2489(12) 0 0.0158(12) 1. 0
O4 O2- 8 j 0.2510(14) 0.2510(14) 0.3508(4) 0.0510(13) 1. 0
#End of TTdata_194604-ICSD