
#(C) 2019 by FIZ Karlsruhe - Leibniz Institute for Information Infrastructure.  All rights reserved.
data_194732-ICSD
_database_code_ICSD 194732
_audit_creation_date 2015-08-01
_chemical_name_systematic
'Sodium manganese iron carbonate oxide (0.60/0.44/0.44/0.08/1.76)'
_chemical_formula_structural 'Na0.60 (Mn0.44 Fe0.44) (C O3)0.08 O1.76'
_chemical_formula_sum 'C0.08 Fe0.44 Mn0.44 Na0.6 O2'
_exptl_crystal_density_diffrn 3.8
_publ_section_title

;
Uptake of C O2 in layered P2-Na0.67 Mn0.5 Fe0.5 O2: insertion of carbonate
anions
;
loop_
_citation_id
_citation_journal_full
_citation_year
_citation_journal_volume
_citation_page_first
_citation_page_last
_citation_journal_id_ASTM
primary 'Chemistry of Materials' 2015 27 2515 2524 CMATEX
loop_
_publ_author_name
'Duffort, Victor'
'Talaie, Elahe'
'Black, Robert'
'Nazar, Linda F.'
_cell_length_a 2.9185(1)
_cell_length_b 2.9185(1)
_cell_length_c 11.3005(6)
_cell_angle_alpha 90.
_cell_angle_beta 90.
_cell_angle_gamma 120.
_cell_volume 83.36
_cell_formula_units_Z 2
_symmetry_space_group_name_H-M 'P 63/m m c'
_symmetry_Int_Tables_number 194
_refine_ls_R_factor_all 0.0446
loop_
_symmetry_equiv_pos_site_id
_symmetry_equiv_pos_as_xyz
1 'x, x-y, -z+1/2'
2 '-x+y, y, -z+1/2'
3 '-y, -x, -z+1/2'
4 '-x+y, -x, -z+1/2'
5 '-y, x-y, -z+1/2'
6 'x, y, -z+1/2'
7 '-x, -x+y, z+1/2'
8 'x-y, -y, z+1/2'
9 'y, x, z+1/2'
10 'x-y, x, z+1/2'
11 'y, -x+y, z+1/2'
12 '-x, -y, z+1/2'
13 '-x, -x+y, -z'
14 'x-y, -y, -z'
15 'y, x, -z'
16 'x-y, x, -z'
17 'y, -x+y, -z'
18 '-x, -y, -z'
19 'x, x-y, z'
20 '-x+y, y, z'
21 '-y, -x, z'
22 '-x+y, -x, z'
23 '-y, x-y, z'
24 'x, y, z'
loop_
_atom_type_symbol
_atom_type_oxidation_number
Na1+ 1
Fe3+ 3.46
Mn3+ 3.46
C4+ 4
O2- -2
loop_
_atom_site_label
_atom_site_type_symbol
_atom_site_symmetry_multiplicity
_atom_site_Wyckoff_symbol
_atom_site_fract_x
_atom_site_fract_y
_atom_site_fract_z
_atom_site_B_iso_or_equiv
_atom_site_occupancy
_atom_site_attached_hydrogens
Na1 Na1+ 6 h 0.630(4) 0.370(4) 0.25 0.017(5) 0.093(3) 0
Na2 Na1+ 4 e 0 0 0.232(2) 0.034(3) 0.160(5) 0
Fe1 Fe3+ 2 a 0 0 0 0.0060(4) 0.445 0
Mn1 Mn3+ 2 a 0 0 0 0.0060(4) 0.445 0
C1 C4+ 4 f 0.3333 0.6667 0.9892(2) 0.004(2) 0.04 0
O1 O2- 4 f 0.3333 0.6667 0.0904(2) 0.0103(3) 1. 0
#End of TTdata_194732-ICSD