
#(C) 2019 by FIZ Karlsruhe - Leibniz Institute for Information Infrastructure.  All rights reserved.
data_194846-ICSD
_database_code_ICSD 194846
_audit_creation_date 2015-08-01
_chemical_name_systematic 'Sodium tetrafluorooxovanadate hydrate'
_chemical_formula_structural 'Na (V O F4) (H2 O)'
_chemical_formula_sum 'H2 F4 Na1 O2 V1'
_exptl_crystal_density_diffrn 2.7
_cell_measurement_temperature 100.
_publ_section_title

;
Syntheses of two vanadium oxide-fluoride materials that differ in phase
matchability
;
loop_
_citation_id
_citation_journal_full
_citation_year
_citation_journal_volume
_citation_page_first
_citation_page_last
_citation_journal_id_ASTM
primary 'Inorganic Chemistry' 2015 54 765 772 INOCAJ
loop_
_publ_author_name
'Donakowski, Martin D.'
'Gautier, Romain'
'Lu, Hongcheng'
'Tran, T. Thao'
'Cantwell, Jacqueline R.'
'Halasyamani, P. Shiv'
'Poeppelmeier, Kenneth R.'
_cell_length_a 9.9595(4)
_cell_length_b 9.4423(3)
_cell_length_c 4.8186(2)
_cell_angle_alpha 90
_cell_angle_beta 90
_cell_angle_gamma 90
_cell_volume 453.14
_cell_formula_units_Z 4
_symmetry_space_group_name_H-M 'P n a 21'
_symmetry_Int_Tables_number 33
_refine_ls_R_factor_all 0.0117
loop_
_symmetry_equiv_pos_site_id
_symmetry_equiv_pos_as_xyz
1 'x+1/2, -y+1/2, z'
2 '-x+1/2, y+1/2, z+1/2'
3 '-x, -y, z+1/2'
4 'x, y, z'
loop_
_atom_type_symbol
_atom_type_oxidation_number
V5+ 5
Na1+ 1
F1- -1
O2- -2
H1+ 1
O2- -2
loop_
_atom_site_label
_atom_site_type_symbol
_atom_site_symmetry_multiplicity
_atom_site_Wyckoff_symbol
_atom_site_fract_x
_atom_site_fract_y
_atom_site_fract_z
_atom_site_B_iso_or_equiv
_atom_site_occupancy
_atom_site_attached_hydrogens
V1 V5+ 4 a 0.89345(2) 0.21876(2) 0.71894(7) 0.00643(6) 1 0
Na1 Na1+ 4 a 0.87179(6) 0.58941(5) 0.68950(17) 0.00892(12) 1 0
F1 F1- 4 a 0.98097(9) 0.75546(10) 0.9476(2) 0.01178(18) 1 0
F2 F1- 4 a 0.95690(9) 0.38583(10) 0.8796(2) 0.01137(18) 1 0
F3 F1- 4 a 0.75617(9) 0.74770(10) 0.43155(19) 0.01144(17) 1 0
F4 F1- 4 a 0.70082(9) 0.59986(9) 1.0000(2) 0.01100(18) 1 0
O1 O2- 4 a 0.72395(11) 0.88996(12) 0.9519(2) 0.0099(2) 1 0
H1 H1+ 4 a 0.797(3) 0.874(3) 0.976(5) 0.027(7) 1 0
H2 H1+ 4 a 0.719(2) 0.882(2) 0.792(6) 0.029(7) 1 0
O2 O2- 4 a 0.46912(11) 0.39217(11) 0.9046(2) 0.0111(2) 1 0
loop_
_atom_site_aniso_label
_atom_site_aniso_type_symbol
_atom_site_aniso_U_11
_atom_site_aniso_U_22
_atom_site_aniso_U_33
_atom_site_aniso_U_12
_atom_site_aniso_U_13
_atom_site_aniso_U_23
V1 V5+ 0.00665(9) 0.00654(9) 0.00611(9) -0.00034(7) -0.00045(10) 0.00014(10)
Na1 Na1+ 0.0087(2) 0.0086(2) 0.0094(3) 0.00024(18) 0.0005(2) 0.0002(2)
F1 F1- 0.0094(4) 0.0147(4) 0.0112(4) -0.0006(3) -0.0027(3) -0.0018(3)
F2 F1- 0.0130(4) 0.0077(4) 0.0134(4) -0.0005(3) -0.0053(4) -0.0007(3)
F3 F1- 0.0105(4) 0.0132(4) 0.0106(4) -0.0011(3) -0.0036(3) 0.0015(3)
F4 F1- 0.0114(4) 0.0096(4) 0.0120(4) 0.0019(3) 0.0038(3) -0.0008(3)
O1 O2- 0.0096(5) 0.0114(5) 0.0089(5) 0.0003(4) 0.0011(4) 0.0006(4)
O2 O2- 0.0122(5) 0.0098(5) 0.0114(5) -0.0010(4) -0.0022(4) -0.0016(4)
#End of TTdata_194846-ICSD