
#(C) 2019 by FIZ Karlsruhe - Leibniz Institute for Information Infrastructure.  All rights reserved.
data_194858-ICSD
_database_code_ICSD 194858
_audit_creation_date 2015-08-01
_chemical_name_systematic 'Sodium barium europium cyclo-nonaoxotriphosphate'
_chemical_formula_structural 'Na Ba Eu (Si3 O9)'
_chemical_formula_sum 'Ba1 Eu1 Na1 O9 Si3'
_chemical_name_structure_type NaBaNdSi3O9
_exptl_crystal_density_diffrn 4.42
_cell_measurement_temperature 293.
_publ_section_title

;
Hydrothermal growth of lanthanide borosilicates: a useful approach to new
acentric crystals including a derivative of cappelenite
;
loop_
_citation_id
_citation_journal_full
_citation_year
_citation_journal_volume
_citation_page_first
_citation_page_last
_citation_journal_id_ASTM
primary 'Inorganic Chemistry' 2015 54 905 913 INOCAJ
loop_
_publ_author_name
'Heyward, Carla C.'
'McMillen, Colin D.'
'Kolis, Joseph W.'
_cell_length_a 5.6373(11)
_cell_length_b 11.483(2)
_cell_length_c 12.535(3)
_cell_angle_alpha 90.
_cell_angle_beta 90.
_cell_angle_gamma 90.
_cell_volume 811.42
_cell_formula_units_Z 4
_symmetry_space_group_name_H-M 'P 21 21 21'
_symmetry_Int_Tables_number 19
_refine_ls_R_factor_all 0.032
loop_
_symmetry_equiv_pos_site_id
_symmetry_equiv_pos_as_xyz
1 '-x, y+1/2, -z+1/2'
2 'x+1/2, -y+1/2, -z'
3 '-x+1/2, -y, z+1/2'
4 'x, y, z'
loop_
_atom_type_symbol
_atom_type_oxidation_number
Eu3+ 3
Ba2+ 2
Si4+ 4
Na1+ 1
O2- -2
loop_
_atom_site_label
_atom_site_type_symbol
_atom_site_symmetry_multiplicity
_atom_site_Wyckoff_symbol
_atom_site_fract_x
_atom_site_fract_y
_atom_site_fract_z
_atom_site_B_iso_or_equiv
_atom_site_occupancy
_atom_site_attached_hydrogens
Eu1 Eu3+ 4 a 0.88680(12) 0.47049(5) 0.13775(4) 0.01212(15) 1 0
Ba1 Ba2+ 4 a 0.89651(15) 0.11752(6) 0.08239(6) 0.01394(17) 1 0
Si1 Si4+ 4 a 1.4001(7) 0.3040(3) 0.1857(2) 0.0106(6) 1 0
Si2 Si4+ 4 a 0.4029(6) 0.6520(2) 0.1429(3) 0.0107(6) 1 0
Si3 Si4+ 4 a 0.8960(7) 0.5866(2) -0.1240(2) 0.0117(6) 1 0
Na1 Na1+ 4 a 0.9252(10) 0.7867(4) 0.1058(4) 0.0227(13) 1 0
O1 O2- 4 a 1.6272(17) 0.3134(6) 0.1113(6) 0.0128(18) 1 0
O2 O2- 4 a 1.1549(16) 0.3150(7) 0.1224(7) 0.016(2) 1 0
O3 O2- 4 a 0.1383(16) 0.6238(6) 0.1836(6) 0.0151(17) 1 0
O4 O2- 4 a 0.3911(16) 0.7769(6) 0.0745(6) 0.0099(15) 1 0
O5 O2- 4 a 0.6475(15) 0.5593(6) -0.1799(6) 0.0126(18) 1 0
O6 O2- 4 a 1.0983(18) 0.5959(6) -0.2181(6) 0.0162(18) 1 0
O7 O2- 4 a 0.5875(17) 0.6807(7) 0.2432(7) 0.0182(19) 1 0
O8 O2- 4 a 0.5383(14) 0.5606(7) 0.0696(7) 0.018(2) 1 0
O9 O2- 4 a 0.9911(15) 0.4963(7) -0.0380(6) 0.0165(19) 1 0
loop_
_atom_site_aniso_label
_atom_site_aniso_type_symbol
_atom_site_aniso_U_11
_atom_site_aniso_U_22
_atom_site_aniso_U_33
_atom_site_aniso_U_12
_atom_site_aniso_U_13
_atom_site_aniso_U_23
Eu1 Eu3+ 0.0119(3) 0.0127(3) 0.0117(3) -0.0012(3) 0.0003(3) -0.0003(2)
Ba1 Ba2+ 0.0138(4) 0.0124(3) 0.0156(3) 0.0002(3) -0.0013(4) -0.0001(3)
Si1 Si4+ 0.0081(14) 0.0129(14) 0.0107(14) 0.0005(16) -0.0009(16) 0.0012(11)
Si2 Si4+ 0.0094(14) 0.0106(13) 0.0121(14) 0.0008(14) 0.0025(16) -0.0013(12)
Si3 Si4+ 0.0099(15) 0.0127(14) 0.0125(15) 0.0025(15) 0.0011(16) 0.0007(11)
Na1 Na1+ 0.020(3) 0.026(2) 0.023(3) -0.005(2) 0.000(2) -0.0092(19)
O1 O2- 0.011(4) 0.018(4) 0.009(4) -0.006(4) 0.003(4) 0.003(3)
O2 O2- 0.014(5) 0.019(4) 0.015(5) 0.000(4) -0.004(4) -0.001(3)
O3 O2- 0.013(4) 0.012(4) 0.020(4) -0.003(4) 0.002(4) 0.004(3)
O4 O2- 0.011(2) 0.009(2) 0.009(2) -0.0032(18) -0.0004(19) -0.0016(17)
O5 O2- 0.013(5) 0.007(4) 0.018(4) 0.002(4) 0.003(4) 0.000(3)
O6 O2- 0.019(4) 0.016(4) 0.013(4) 0.011(4) 0.003(4) -0.001(3)
O7 O2- 0.017(5) 0.014(4) 0.023(4) 0.003(4) -0.008(4) -0.006(3)
O8 O2- 0.020(5) 0.021(5) 0.014(4) 0.001(4) 0.005(4) -0.008(3)
O9 O2- 0.017(4) 0.022(5) 0.011(4) 0.005(4) 0.002(3) 0.002(3)
#End of TTdata_194858-ICSD