
#(C) 2018 by FIZ Karlsruhe - Leibniz Institute for Information Infrastructure.  All rights reserved.
data_194812-ICSD
_database_code_ICSD 194812
_audit_creation_date 2015-08-01
_chemical_name_systematic 'Lithium chromium hexaoxodigermanate'
_chemical_formula_structural 'Li Cr (Ge2 O6)'
_chemical_formula_sum 'Cr1 Ge2 Li1 O6'
_chemical_name_structure_type Pyroxene-CaMg(SiO3)2
_exptl_crystal_density_diffrn 4.4
_cell_measurement_temperature 1173.
_publ_section_title

;
Structural and magnetic phase transitions in the synthetic clinopyroxene Li Cr
Ge2 O6: a neutron diffraction study between 0.5 and 1473 K
;
loop_
_citation_id
_citation_journal_full
_citation_year
_citation_journal_volume
_citation_page_first
_citation_page_last
_citation_journal_id_ASTM
primary 'Physics and Chemistry of Minerals' 2015 42 491 507 PCMIDU
loop_
_publ_author_name
'Redhammer, Guenther J.'
'Senyshyn, Anatoliy'
'Tippelt, Gerold'
'Prinz, Sebastian'
'Roth, Georg'
_cell_length_a 10.0109(2)
_cell_length_b 8.7497(1)
_cell_length_c 5.4992(1)
_cell_angle_alpha 90.
_cell_angle_beta 110.008(11)
_cell_angle_gamma 90.
_cell_volume 452.62
_cell_formula_units_Z 4
_symmetry_space_group_name_H-M 'C 1 2/c 1'
_symmetry_Int_Tables_number 15
_refine_ls_R_factor_all 0.0188
loop_
_symmetry_equiv_pos_site_id
_symmetry_equiv_pos_as_xyz
1 'x, -y, z+1/2'
2 '-x, -y, -z'
3 '-x, y, -z+1/2'
4 'x, y, z'
5 'x+1/2, -y+1/2, z+1/2'
6 '-x+1/2, -y+1/2, -z'
7 '-x+1/2, y+1/2, -z+1/2'
8 'x+1/2, y+1/2, z'
loop_
_atom_type_symbol
_atom_type_oxidation_number
Li1+ 1
Cr3+ 3
Ge4+ 4
O2- -2
loop_
_atom_site_label
_atom_site_type_symbol
_atom_site_symmetry_multiplicity
_atom_site_Wyckoff_symbol
_atom_site_fract_x
_atom_site_fract_y
_atom_site_fract_z
_atom_site_B_iso_or_equiv
_atom_site_occupancy
_atom_site_attached_hydrogens
Li1 Li1+ 4 e 0 0.2806(11) 0.25 6.56(44) 1. 0
Cr1 Cr3+ 4 e 0 0.9126(3) 0.25 1.22(7) 1. 0
Ge1 Ge4+ 8 f 0.29350(8) 0.09579(11) 0.24489(13) 1.47(3) 1. 0
O1 O2- 8 f 0.10706(11) 0.08481(16) 0.13801(19) 1.59(3) 1. 0
O2 O2- 8 f 0.36178(16) 0.27493(15) 0.2987(3) 3.57(5) 1. 0
O3 O2- 8 f 0.36326(14) -0.01482(17) 0.0550(2) 3.32(5) 1. 0
#End of TTdata_194812-ICSD