
#(C) 2019 by FIZ Karlsruhe - Leibniz Institute for Information Infrastructure.  All rights reserved.
data_195118-ICSD
_database_code_ICSD 195118
_audit_creation_date 2015-08-01
_chemical_name_systematic 'Potassium-2.87 sodium-0.13 decaoxohexaborate bromide'
_chemical_formula_structural '(K2.87 Na0.126) (B6 O10) Br'
_chemical_formula_sum 'B6 Br1 K2.87 Na0.126 O10'
_chemical_name_structure_type K3B6O10Br
_exptl_crystal_density_diffrn 2.7
_cell_measurement_temperature 296.
_publ_section_title

;
Noncentrosymmetric versus centrosymmetric: influence of the Na(+) substitution
on structural transition and second-harmonic generation property
;
loop_
_citation_id
_citation_journal_full
_citation_year
_citation_journal_volume
_citation_page_first
_citation_page_last
_citation_journal_id_ASTM
primary 'Crystal Growth & Design' 2014 14 1794 1801 CGDEFU
loop_
_publ_author_name
'Han, Shujuan'
'Wang, Ying'
'Pan, Shilie'
'Dong, Xiaoyu'
'Wu, Hongping'
'Han, Jian'
'Yang, Yun'
'Yu, Hongwei'
'Bai, Chunyan'
_cell_length_a 10.071(3)
_cell_length_b 10.071(3)
_cell_length_c 8.824(4)
_cell_angle_alpha 90.
_cell_angle_beta 90.
_cell_angle_gamma 120.
_cell_volume 775.07
_cell_formula_units_Z 3
_symmetry_space_group_name_H-M 'R 3 m H'
_symmetry_Int_Tables_number 160
_refine_ls_R_factor_all 0.0424
loop_
_symmetry_equiv_pos_site_id
_symmetry_equiv_pos_as_xyz
1 '-x+y, y, z'
2 'x, x-y, z'
3 '-y, -x, z'
4 '-x+y, -x, z'
5 '-y, x-y, z'
6 'x, y, z'
7 '-x+y+2/3, y+1/3, z+1/3'
8 'x+2/3, x-y+1/3, z+1/3'
9 '-y+2/3, -x+1/3, z+1/3'
10 '-x+y+2/3, -x+1/3, z+1/3'
11 '-y+2/3, x-y+1/3, z+1/3'
12 'x+2/3, y+1/3, z+1/3'
13 '-x+y+1/3, y+2/3, z+2/3'
14 'x+1/3, x-y+2/3, z+2/3'
15 '-y+1/3, -x+2/3, z+2/3'
16 '-x+y+1/3, -x+2/3, z+2/3'
17 '-y+1/3, x-y+2/3, z+2/3'
18 'x+1/3, y+2/3, z+2/3'
loop_
_atom_type_symbol
_atom_type_oxidation_number
Na1+ 1
K1+ 1
B3+ 3
O2- -2
Br1- -1
loop_
_atom_site_label
_atom_site_type_symbol
_atom_site_symmetry_multiplicity
_atom_site_Wyckoff_symbol
_atom_site_fract_x
_atom_site_fract_y
_atom_site_fract_z
_atom_site_B_iso_or_equiv
_atom_site_occupancy
_atom_site_attached_hydrogens
Na1 Na1+ 9 b 0.84690(9) 0.69380(19) 0.30111(17) 0.0177(6) 0.042(19) 0
K1 K1+ 9 b 0.84690(9) 0.69380(19) 0.30111(17) 0.0177(6) 0.958(19) 0
B1 B3+ 9 b 0.6324 0.8162 0.4124 0.01 1 0
B2 B3+ 9 b 0.4208(4) 0.5792(4) 0.2977(8) 0.0063(14) 1 0
O1 O2- 3 a 0.3333 0.6667 0.3037(8) 0.0049(14) 1 0
O2 O2- 18 c 0.5669(4) 0.6663(4) 0.3764(4) 0.0119(8) 1 0
O3 O2- 9 b 0.7773(6) 0.8887(3) 0.4741(5) 0.0121(10) 1 0
Br1 Br1- 3 a 1. 1. 0.08127(14) 0.0256(4) 1 0
loop_
_atom_site_aniso_label
_atom_site_aniso_type_symbol
_atom_site_aniso_U_11
_atom_site_aniso_U_22
_atom_site_aniso_U_33
_atom_site_aniso_U_12
_atom_site_aniso_U_13
_atom_site_aniso_U_23
Na1 Na1+ 0.0145(7) 0.0211(9) 0.0197(8) 0.0106(5) -0.0019(3) -0.0038(6)
K1 K1+ 0.0145(7) 0.0211(9) 0.0197(8) 0.0106(5) -0.0019(3) -0.0038(6)
B1 B3+ 0.007 0.013 0.006 0.004 -0.001 -0.001
B2 B3+ 0.003(2) 0.003(2) 0.013(3) 0.001(3) 0.0009(12) -0.0009(12)
O1 O2- 0.002(2) 0.002(2) 0.010(3) 0.0012(11) 0. 0.
O2 O2- 0.0084(17) 0.0087(17) 0.0196(16) 0.0050(14) -0.0053(12) -0.0022(13)
O3 O2- 0.007(2) 0.0154(18) 0.011(2) 0.0033(11) -0.0013(17) -0.0007(8)
Br1 Br1- 0.0236(6) 0.0236(6) 0.0296(7) 0.0118(3) 0. 0.
#End of TTdata_195118-ICSD