
#(C) 2019 by FIZ Karlsruhe - Leibniz Institute for Information Infrastructure.  All rights reserved.
data_195170-ICSD
_database_code_ICSD 195170
_audit_creation_date 2016-02-01
_chemical_name_systematic
'Disodium cobalt-1.945 iron-1.035 tris(orthophosphate)'
_chemical_formula_structural 'Na2 (Co1.945 Fe1.035) (P O4)3'
_chemical_formula_sum 'Co1.945 Fe1.035 Na2 O12 P3'
_chemical_name_structure_type Alluaudite
_exptl_crystal_density_diffrn 3.88
_cell_measurement_temperature 290.
_publ_section_title

;
Alluaudite Na2 Co2 Fe (P O4)3 as an electroactive material for sodium ion
batteries
;
loop_
_citation_id
_citation_journal_full
_citation_year
_citation_journal_volume
_citation_page_first
_citation_page_last
_citation_journal_id_ASTM
primary 'Dalton Transactions' 2015 44 7881 7886 DTARAF
loop_
_publ_author_name
'Essehli, R.'
'Belharouak, I.'
'Ben Yahia, H.'
'Maher, K.'
'Abouimrane, A.'
'Orayech, B.'
'Calder, S.'
'Zhou, X.L.'
'Zhou, Z.'
'Sun, Y-K.'
_cell_length_a 11.7599(3)
_cell_length_b 12.4522(3)
_cell_length_c 6.44063(16)
_cell_angle_alpha 90
_cell_angle_beta 113.913(2)
_cell_angle_gamma 90
_cell_volume 862.18
_cell_formula_units_Z 4
_symmetry_space_group_name_H-M 'C 1 2/c 1'
_symmetry_Int_Tables_number 15
_refine_ls_R_factor_all 0.0103
loop_
_symmetry_equiv_pos_site_id
_symmetry_equiv_pos_as_xyz
1 'x, -y, z+1/2'
2 '-x, -y, -z'
3 '-x, y, -z+1/2'
4 'x, y, z'
5 'x+1/2, -y+1/2, z+1/2'
6 '-x+1/2, -y+1/2, -z'
7 '-x+1/2, y+1/2, -z+1/2'
8 'x+1/2, y+1/2, z'
loop_
_atom_type_symbol
_atom_type_oxidation_number
Na1+ 1
Co2+ 2
Fe3+ 3
Co2+ 2
Fe3+ 3
P5+ 5
O2- -2
loop_
_atom_site_label
_atom_site_type_symbol
_atom_site_symmetry_multiplicity
_atom_site_Wyckoff_symbol
_atom_site_fract_x
_atom_site_fract_y
_atom_site_fract_z
_atom_site_B_iso_or_equiv
_atom_site_occupancy
_atom_site_attached_hydrogens
Na1 Na1+ 4 b 0 0.5 0.5 0.051(2) 1 0
Na2 Na1+ 4 e 0.5 0.4872(8) 0.25 0.051(2) 1 0
Co1 Co2+ 4 e 0 0.2723(9) 0.25 0.031(7) 0.993(10) 0
Fe1 Fe3+ 4 e 0 0.2723(9) 0.25 0.031(7) 0.007(10) 0
Co2 Co2+ 8 f 0.7816(3) 0.1566(2) 0.3682(6) 0.0030(18) 0.476(8) 0
Fe2 Fe3+ 8 f 0.7816(3) 0.1566(2) 0.3682(6) 0.0030(18) 0.524(8) 0
P1 P5+ 8 f 0.7646(3) 0.1101(3) 0.8780(7) 0.0127(14) 1 0
P2 P5+ 4 e 0 0.2936(5) 0.75 0.0127(14) 1 0
O1 O2- 8 f 0.8383(3) 0.1670(2) 0.1086(6) 0.0145(9) 1 0
O2 O2- 8 f 0.0412(3) 0.2197(3) 0.9668(7) 0.0145(9) 1 0
O3 O2- 8 f 0.7778(3) 0.1778(2) 0.6852(5) 0.0145(9) 1 0
O4 O2- 8 f 0.8252(2) 0.0011(4) 0.3868(5) 0.0145(9) 1 0
O5 O2- 8 f 0.6028(3) 0.1343(2) 0.2511(5) 0.0145(9) 1 0
O6 O2- 8 f 0.8740(3) 0.3981(3) 0.1734(6) 0.0145(9) 1 0
#End of TTdata_195170-ICSD