
#(C) 2019 by FIZ Karlsruhe - Leibniz Institute for Information Infrastructure.  All rights reserved.
data_1954-ICSD
_database_code_ICSD 1954
_audit_creation_date 1980-01-01
_audit_update_record 2006-04-01
_chemical_name_systematic 'Sodium chlorate(III) trihydrate'
_chemical_formula_structural 'Na (Cl O2) (H2 O)3'
_chemical_formula_sum 'H6 Cl1 Na1 O5'
_chemical_name_structure_type NaClO2(H2O)3
_exptl_crystal_density_diffrn 1.72
_publ_section_title 'Sodium chlorite trihydrate'
loop_
_citation_id
_citation_journal_full
_citation_year
_citation_journal_volume
_citation_page_first
_citation_page_last
_citation_journal_id_ASTM
primary

;
Acta Crystallographica, Section B: Structural Crystallography and Crystal
Chemistry
; 1975 31 2146 2149 ACBCAR
loop_
_publ_author_name
'Tarimci, C.'
'Schempp, E.'
_cell_length_a 5.492(1)
_cell_length_b 6.412(1)
_cell_length_c 8.832(1)
_cell_angle_alpha 72.06(5)
_cell_angle_beta 87.73(5)
_cell_angle_gamma 70.88(5)
_cell_volume 278.92
_cell_formula_units_Z 2
_symmetry_space_group_name_H-M 'P -1'
_symmetry_Int_Tables_number 2
_refine_ls_R_factor_all 0.08
loop_
_symmetry_equiv_pos_site_id
_symmetry_equiv_pos_as_xyz
1 '-x, -y, -z'
2 'x, y, z'
loop_
_atom_type_symbol
_atom_type_oxidation_number
Cl3+ 3
Na1+ 1
O2- -2
H1+ 1
loop_
_atom_site_label
_atom_site_type_symbol
_atom_site_symmetry_multiplicity
_atom_site_Wyckoff_symbol
_atom_site_fract_x
_atom_site_fract_y
_atom_site_fract_z
_atom_site_B_iso_or_equiv
_atom_site_occupancy
_atom_site_attached_hydrogens
Cl1 Cl3+ 2 i 0.0944(1) 0.1839(1) 0.1318(1) . 1. 0
Na1 Na1+ 2 i 0.2637(1) 0.4586(1) 0.3956(1) . 1. 0
O1 O2- 2 i 0.8124(2) 0.1766(2) 0.1329(1) . 1. 0
O2 O2- 2 i 0.1710(2) 0.1858(2) 0.2991(1) . 1. 0
O3 O2- 2 i 0.8259(2) -.2798(2) 0.3242(1) . 1. 0
O4 O2- 2 i 0.4810(2) 0.5981(2) 0.1654(1) . 1. 0
O5 O2- 2 i 0.2987(2) -.2524(2) 0.5091(1) . 1. 0
H1 H1+ 2 i 0.182(4) 0.141(4) 0.723(2) 4.6 1. 0
H2 H1+ 2 i 0.273(4) 0.301(3) 0.734(2) 4.3 1. 0
H3 H1+ 2 i 0.434(4) 0.540(3) 0.844(2) 3.9 1. 0
H4 H1+ 2 i 0.412(4) 0.663(4) 0.092(3) 4.4 1. 0
H5 H1+ 2 i 0.274(4) 0.869(4) 0.452(2) 3.7 1. 0
H6 H1+ 2 i 0.191(4) 0.770(3) 0.573(2) 4. 1. 0
loop_
_atom_site_aniso_label
_atom_site_aniso_type_symbol
_atom_site_aniso_U_11
_atom_site_aniso_U_22
_atom_site_aniso_U_33
_atom_site_aniso_U_12
_atom_site_aniso_U_13
_atom_site_aniso_U_23
Cl1 Cl3+ 0.0286(1) 0.0257(1) 0.0091(1) -.0076(1) 0.0020(1) -.0043(1)
Na1 Na1+ 0.0199(2) 0.0180(1) 0.0100(1) -.0062(1) -.0007(1) -.0045(1)
O1 O2- 0.0306(4) 0.0228(3) 0.0134(2) -.0074(3) -.0043(2) -.0017(2)
O2 O2- 0.0491(6) 0.0213(3) 0.0131(2) -.0137(3) -.0067(2) -.0040(2)
O3 O2- 0.0256(4) 0.0177(3) 0.0120(1) -.0077(3) -.0039(2) -.0023(2)
O4 O2- 0.0292(4) 0.0223(3) 0.0091(1) -.0063(3) -.0030(2) -.0038(2)
O5 O2- 0.0242(3) 0.0163(3) 0.0102(1) -.0030(2) -.0003(2) -.0033(2)
#End of TTdata_1954-ICSD