
#(C) 2018 by FIZ Karlsruhe - Leibniz Institute for Information Infrastructure.  All rights reserved.
data_195497-ICSD
_database_code_ICSD 195497
_audit_creation_date 2016-02-01
_chemical_name_systematic 'Lithium iron tellurium oxide (3.75/1.75/0.5/6)'
_chemical_formula_structural 'Li3.75 Fe1.75 Te0.5 O6'
_chemical_formula_sum 'Fe1.75 Li3.75 O6 Te0.5'
_chemical_name_structure_type Na5ReO6
_exptl_crystal_density_diffrn 4.28
_cell_measurement_temperature 293.
_publ_section_title

;
Interesting cationic (Li(+)/Fe(3+)/Te(6+)) variations in new rocksalt ordered
structures
;
loop_
_citation_id
_citation_journal_full
_citation_year
_citation_journal_volume
_citation_page_first
_citation_page_last
_citation_journal_id_ASTM
primary 'Journal of Chemical Sciences (Berlin, Germany)' 2015 127 225 233 JCSBB5
loop_
_publ_author_name
'Gupta, Akanksha'
'Kumar, Vinod'
'Uma, S.'
_cell_length_a 5.1686(2)
_cell_length_b 8.8362(1)
_cell_length_c 5.1508(1)
_cell_angle_alpha 90.
_cell_angle_beta 110.610(3)
_cell_angle_gamma 90.
_cell_volume 220.19
_cell_formula_units_Z 2
_symmetry_space_group_name_H-M 'C 1 2/m 1'
_symmetry_Int_Tables_number 12
_refine_ls_R_factor_all 0.0213
loop_
_symmetry_equiv_pos_site_id
_symmetry_equiv_pos_as_xyz
1 '-x, y, -z'
2 '-x, -y, -z'
3 'x, -y, z'
4 'x, y, z'
5 '-x+1/2, y+1/2, -z'
6 '-x+1/2, -y+1/2, -z'
7 'x+1/2, -y+1/2, z'
8 'x+1/2, y+1/2, z'
loop_
_atom_type_symbol
_atom_type_oxidation_number
Te6+ 6
Fe3+ 3
Li1+ 1
Fe3+ 3
Li1+ 1
Fe3+ 3
O2- -2
loop_
_atom_site_label
_atom_site_type_symbol
_atom_site_symmetry_multiplicity
_atom_site_Wyckoff_symbol
_atom_site_fract_x
_atom_site_fract_y
_atom_site_fract_z
_atom_site_B_iso_or_equiv
_atom_site_occupancy
_atom_site_attached_hydrogens
Te1 Te6+ 2 a 0 0 0 0.030(1) 0.49(1) 0
Fe1 Fe3+ 2 a 0 0 0 0.030(1) 0.51(1) 0
Li1 Li1+ 4 h 0 0.1877(27) 0.5 0.011(6) 1. 0
Li2 Li1+ 2 d 0.5 0 0.5 0.020(4) 0.778(4) 0
Fe2 Fe3+ 2 d 0.5 0 0.5 0.020(4) 0.222(4) 0
Li3 Li1+ 4 g 0 0.3255(4) 0 0.032(1) 0.498(5) 0
Fe3 Fe3+ 4 g 0 0.3255(4) 0 0.032(1) 0.498(5) 0
O1 O2- 4 i 0.2290(17) 0 0.7699(20) 0.019(2) 1. 0
O2 O2- 8 j 0.2260(11) 0.1639(3) 0.2143(10) 0.023(2) 1. 0
#End of TTdata_195497-ICSD