
#(C) 2019 by FIZ Karlsruhe - Leibniz Institute for Information Infrastructure.  All rights reserved.
data_195421-ICSD
_database_code_ICSD 195421
_audit_creation_date 2016-02-01
_chemical_name_systematic 'Disodium calcium phosphate fluoride'
_chemical_formula_structural 'Na2 Ca (P O4) F'
_chemical_formula_sum 'Ca1 F1 Na2 O4 P1'
_chemical_name_structure_type Ca2NaFSiO4
_chemical_name_mineral 'Nacaphite - HT (heated at 400 C)'
_exptl_crystal_density_diffrn 2.8
_cell_measurement_temperature 673.
_publ_section_title
'High-temperature order-disorder phase transition in nacaphite, Na2 Ca P O4 F'
loop_
_citation_id
_citation_journal_full
_citation_year
_citation_journal_volume
_citation_page_first
_citation_page_last
_citation_journal_id_ASTM
primary 'Physics and Chemistry of Minerals' 2015 42 671 676 PCMIDU
loop_
_publ_author_name
'Avdontceva, Margarita S.'
'Krzhizhanovskaya, Maria G.'
'Krivovichev, Sergey V.'
'Yakovenchuk, Viktor N.'
_cell_length_a 5.4123(1)
_cell_length_b 7.1196(1)
_cell_length_c 12.3171(1)
_cell_angle_alpha 90.
_cell_angle_beta 90.
_cell_angle_gamma 90.
_cell_volume 474.62
_cell_formula_units_Z 4
_symmetry_space_group_name_H-M 'P n m a'
_symmetry_Int_Tables_number 62
_refine_ls_R_factor_all 0.0247
loop_
_symmetry_equiv_pos_site_id
_symmetry_equiv_pos_as_xyz
1 'x+1/2, y, -z+1/2'
2 'x, -y+1/2, z'
3 '-x+1/2, y+1/2, z+1/2'
4 '-x, -y, -z'
5 '-x+1/2, -y, z+1/2'
6 '-x, y+1/2, -z'
7 'x+1/2, -y+1/2, -z+1/2'
8 'x, y, z'
loop_
_atom_type_symbol
_atom_type_oxidation_number
Na1+ 1
Ca2+ 2
Na1+ 1
P5+ 5
F1- -1
O2- -2
loop_
_atom_site_label
_atom_site_type_symbol
_atom_site_symmetry_multiplicity
_atom_site_Wyckoff_symbol
_atom_site_fract_x
_atom_site_fract_y
_atom_site_fract_z
_atom_site_B_iso_or_equiv
_atom_site_occupancy
_atom_site_attached_hydrogens
Na1 Na1+ 8 d 0.238(1) 0.513(1) 0.169(1) 5.2(2) 0.5 0
Ca1 Ca2+ 8 d 0.238(1) 0.513(1) 0.169(1) 5.2(2) 0.5 0
Na2 Na1+ 4 c 0.761(2) 0.75 0.089(1) 2.3(2) 1. 0
P1 P5+ 4 c 0.711(1) 0.25 0.079(1) 3.0(1) 1. 0
F1 F1- 4 c 0.009(4) 0.75 0.262(1) 1.3(2) 1. 0
O1 O2- 4 c 0.412(2) 0.25 0.082(1) 6.0(3) 1. 0
O2 O2- 8 d 0.794(2) 0.071(1) 0.149(1) 4.6(3) 1. 0
O3 O2- 4 c 0.787(3) 0.25 0.961(1) 1.6(5) 1. 0
#End of TTdata_195421-ICSD