
#(C) 2018 by FIZ Karlsruhe - Leibniz Institute for Information Infrastructure.  All rights reserved.
data_195495-ICSD
_database_code_ICSD 195495
_audit_creation_date 2016-02-01
_chemical_name_systematic 'Lithium-4.5 iron-0.5 hexaoxotellurate'
_chemical_formula_structural 'Li4.5 Fe0.5 (Te O6)'
_chemical_formula_sum 'Fe0.5 Li4.5 O6 Te1'
_chemical_name_structure_type Na5ReO6
_exptl_crystal_density_diffrn 4.28
_cell_measurement_temperature 293.
_publ_section_title

;
Interesting cationic (Li(+)/Fe(3+)/Te(6+)) variations in new rocksalt ordered
structures
;
loop_
_citation_id
_citation_journal_full
_citation_year
_citation_journal_volume
_citation_page_first
_citation_page_last
_citation_journal_id_ASTM
primary 'Journal of Chemical Sciences (Berlin, Germany)' 2015 127 225 233 JCSBB5
loop_
_publ_author_name
'Gupta, Akanksha'
'Kumar, Vinod'
'Uma, S.'
_cell_length_a 5.1413(4)
_cell_length_b 8.8424(5)
_cell_length_c 5.1468(4)
_cell_angle_alpha 90.
_cell_angle_beta 110.395(8)
_cell_angle_gamma 90.
_cell_volume 219.31
_cell_formula_units_Z 2
_symmetry_space_group_name_H-M 'C 1 2/m 1'
_symmetry_Int_Tables_number 12
_refine_ls_R_factor_all 0.0279
loop_
_symmetry_equiv_pos_site_id
_symmetry_equiv_pos_as_xyz
1 '-x, y, -z'
2 '-x, -y, -z'
3 'x, -y, z'
4 'x, y, z'
5 '-x+1/2, y+1/2, -z'
6 '-x+1/2, -y+1/2, -z'
7 'x+1/2, -y+1/2, z'
8 'x+1/2, y+1/2, z'
loop_
_atom_type_symbol
_atom_type_oxidation_number
Te6+ 6
Li1+ 1
Fe3+ 3
Li1+ 1
Fe3+ 3
O2- -2
loop_
_atom_site_label
_atom_site_type_symbol
_atom_site_symmetry_multiplicity
_atom_site_Wyckoff_symbol
_atom_site_fract_x
_atom_site_fract_y
_atom_site_fract_z
_atom_site_B_iso_or_equiv
_atom_site_occupancy
_atom_site_attached_hydrogens
Te1 Te6+ 2 a 0 0 0 0.0064(1) 1. 0
Li1 Li1+ 4 h 0 0.1729(10) 0.5 0.017(1) 1. 0
Li2 Li1+ 2 d 0.5 0 0.5 0.014(1) 0.97 0
Fe1 Fe3+ 2 d 0.5 0 0.5 0.014(1) 0.03 0
Li3 Li1+ 4 g 0 0.3341(2) 0 0.0062(4) 0.76 0
Fe2 Fe3+ 4 g 0 0.3341(2) 0 0.0062(4) 0.24 0
O1 O2- 4 i 0.2303(7) 0 0.7772(7) 0.0105(7) 1. 0
O2 O2- 8 j 0.2314(5) 0.1544(3) 0.2326(5) 0.0104(5) 1. 0
loop_
_atom_site_aniso_label
_atom_site_aniso_type_symbol
_atom_site_aniso_U_11
_atom_site_aniso_U_22
_atom_site_aniso_U_33
_atom_site_aniso_U_12
_atom_site_aniso_U_13
_atom_site_aniso_U_23
Te1 Te6+ 0.0062(2) 0.0052(2) 0.0062(2) 0. -0.00015(4) 0.
Li1 Li1+ 0.020(5) 0.020(5) 0.018(4) 0. 0.013(4) 0.
Li2 Li1+ 0.013(4) 0.011(4) 0.014(4) 0. -0.005(3) 0.
Fe1 Fe3+ 0.013(4) 0.011(4) 0.014(4) 0. -0.005(3) 0.
Li3 Li1+ 0.0063(10) 0.0036(10) 0.0091(10) 0. -0.0003(8) 0.
Fe2 Fe3+ 0.0063(10) 0.0036(10) 0.0091(10) 0. -0.0003(8) 0.
#End of TTdata_195495-ICSD