
#(C) 2019 by FIZ Karlsruhe - Leibniz Institute for Information Infrastructure.  All rights reserved.
data_195670-ICSD
_database_code_ICSD 195670
_audit_creation_date 2016-02-01
_chemical_name_systematic
'Sodium-2.77 potassium-1.52 iron-2.57 tetrakis(tetraoxoarsenate)'
_chemical_formula_structural 'Na2.77 K1.52 Fe2.57 (As O4)4'
_chemical_formula_sum 'As4 Fe2.57 K1.52 Na2.77 O16'
_exptl_crystal_density_diffrn 3.67
_publ_section_title

;
Synthesis, crystal structure and electrical properties of a new iron arsenate
Na2.77 K1.52 Fe2.57 (As O4)4
;
loop_
_citation_id
_citation_journal_full
_citation_year
_citation_journal_volume
_citation_page_first
_citation_page_last
_citation_journal_id_ASTM
primary 'Journal of Alloys and Compounds' 2015 651 616 622 JALCEU
loop_
_publ_author_name
'Ouerfelli, Najoua'
'Ben Smida, Youssef'
'Zid, Mohamed Faouzi'
_cell_length_a 10.854(4)
_cell_length_b 20.985(8)
_cell_length_c 6.536(2)
_cell_angle_alpha 90.
_cell_angle_beta 90.
_cell_angle_gamma 90.
_cell_volume 1488.71
_cell_formula_units_Z 4
_symmetry_space_group_name_H-M 'C m c e'
_symmetry_Int_Tables_number 64
_refine_ls_R_factor_all 0.043
loop_
_symmetry_equiv_pos_site_id
_symmetry_equiv_pos_as_xyz
1 '-x, -y+1/2, z+1/2'
2 '-x, y+1/2, -z+1/2'
3 '-x, y, z'
4 '-x, -y, -z'
5 'x, y+1/2, -z+1/2'
6 'x, -y+1/2, z+1/2'
7 'x, -y, -z'
8 'x, y, z'
9 '-x+1/2, -y, z+1/2'
10 '-x+1/2, y, -z+1/2'
11 '-x+1/2, y+1/2, z'
12 '-x+1/2, -y+1/2, -z'
13 'x+1/2, y, -z+1/2'
14 'x+1/2, -y, z+1/2'
15 'x+1/2, -y+1/2, -z'
16 'x+1/2, y+1/2, z'
loop_
_atom_type_symbol
_atom_type_oxidation_number
As5+ 5
Fe3+ 3
O2- -2
Na1+ 1
K1+ 1
loop_
_atom_site_label
_atom_site_type_symbol
_atom_site_symmetry_multiplicity
_atom_site_Wyckoff_symbol
_atom_site_fract_x
_atom_site_fract_y
_atom_site_fract_z
_atom_site_B_iso_or_equiv
_atom_site_occupancy
_atom_site_attached_hydrogens
As1 As5+ 8 f 0 0.15537(4) 0.06542(12) 0.0131(3) 1. 0
As2 As5+ 8 e 0.25 -0.04501(4) 0.25 0.0105(3) 1. 0
Fe1 Fe3+ 4 a 0 0 0 0.0080(4) 0.79 0
Fe2 Fe3+ 8 e 0.25 0.09220(6) 0.25 0.0097(3) 0.89 0
O1 O2- 8 f 0 0.2176(3) -0.0895(11) 0.0294(15) 1. 0
O2 O2- 8 f 0 0.0878(3) -0.0755(8) 0.0158(11) 1. 0
O3 O2- 16 g 0.1237(4) 0.15448(19) 0.2246(6) 0.0186(9) 1. 0
O4 O2- 16 g 0.2119(4) -0.09030(17) 0.4482(5) 0.0152(8) 1. 0
O5 O2- 16 g 0.1378(3) 0.01189(17) 0.2058(5) 0.0120(7) 1. 0
Na1 Na1+ 8 f 0 0.1633(4) -0.4357(10) 0.0419(15) 0.733(7) 0
Na2 Na1+ 16 g -0.0774(18) 0.1801(9) -0.423(2) 0.0419(15) 0.206(8) 0
Na3 Na1+ 8 f 0 0.059(2) 0.508(6) 0.0419(15) 0.115(11) 0
Na4 Na1+ 8 f 0 0.129(2) -0.443(6) 0.0419(15) 0.127(14) 0
K1 K1+ 16 g 0.2266(10) 0.2719(4) 0.132(3) 0.077(5) 0.311(13) 0
K2 K1+ 8 e 0.25 0.2731(19) 0.25 0.077(5) 0.14(2) 0
#End of TTdata_195670-ICSD