
#(C) 2019 by FIZ Karlsruhe - Leibniz Institute for Information Infrastructure.  All rights reserved.
data_195935-ICSD
_database_code_ICSD 195935
_audit_creation_date 2016-02-01
_chemical_name_systematic 'Sodium scandium hexaoxodigermanate'
_chemical_formula_structural 'Na Sc (Ge2 O6)'
_chemical_formula_sum 'Ge2 Na1 O6 Sc1'
_chemical_name_structure_type Pyroxene-CaMg(SiO3)2
_exptl_crystal_density_diffrn 4.15
_cell_measurement_temperature 293.
_publ_section_title
'Pyroxene-type compounds Na M(3+) Ge2 O6, with M = Ga, Mn, Sc and In'
loop_
_citation_id
_citation_journal_full
_citation_year
_citation_journal_volume
_citation_page_first
_citation_page_last
_citation_journal_id_ASTM
primary 'Acta Crystallographica, Section C: Structural Chemistry' 2014 70 852
857 ACSCGG
loop_
_publ_author_name
'Redhammer, Guenther J.'
'Tippelt, Gerold'
_cell_length_a 10.1705(7)
_cell_length_b 9.1545(7)
_cell_length_c 5.5715(4)
_cell_angle_alpha 90
_cell_angle_beta 107.3051(7)
_cell_angle_gamma 90
_cell_volume 495.25
_cell_formula_units_Z 4
_symmetry_space_group_name_H-M 'C 1 2/c 1'
_symmetry_Int_Tables_number 15
_refine_ls_R_factor_all 0.0143
loop_
_symmetry_equiv_pos_site_id
_symmetry_equiv_pos_as_xyz
1 'x, -y, z+1/2'
2 '-x, -y, -z'
3 '-x, y, -z+1/2'
4 'x, y, z'
5 'x+1/2, -y+1/2, z+1/2'
6 '-x+1/2, -y+1/2, -z'
7 '-x+1/2, y+1/2, -z+1/2'
8 'x+1/2, y+1/2, z'
loop_
_atom_type_symbol
_atom_type_oxidation_number
Na1+ 1
Sc3+ 3
Ge4+ 4
O2- -2
loop_
_atom_site_label
_atom_site_type_symbol
_atom_site_symmetry_multiplicity
_atom_site_Wyckoff_symbol
_atom_site_fract_x
_atom_site_fract_y
_atom_site_fract_z
_atom_site_B_iso_or_equiv
_atom_site_occupancy
_atom_site_attached_hydrogens
Na1 Na1+ 4 e 0 0.30340(12) 0.25 0.0164(2) 1 0
Sc1 Sc3+ 4 e 0 0.90134(4) 0.25 0.00433(11) 1 0
Ge1 Ge4+ 8 f 0.28988(2) 0.09154(2) 0.24018(3) 0.00447(10) 1 0
O1 O2- 8 f 0.35888(13) 0.26275(13) 0.3104(2) 0.0099(2) 1 0
O2 O2- 8 f 0.11062(13) 0.07983(12) 0.1369(2) 0.0056(2) 1 0
O3 O2- 8 f 0.35954(12) 0.00987(15) 0.0190(2) 0.0097(3) 1 0
loop_
_atom_site_aniso_label
_atom_site_aniso_type_symbol
_atom_site_aniso_U_11
_atom_site_aniso_U_22
_atom_site_aniso_U_33
_atom_site_aniso_U_12
_atom_site_aniso_U_13
_atom_site_aniso_U_23
Na1 Na1+ 0.0203(6) 0.0122(5) 0.0123(5) 0 -0.0021(4) 0
Sc1 Sc3+ 0.0044(2) 0.0041(2) 0.0044(2) 0 0.00121(16) 0
Ge1 Ge4+ 0.00404(13) 0.00478(13) 0.00464(13) -0.00096(5) 0.00137(8) -0.00026(5)
O1 O2- 0.0113(6) 0.0064(5) 0.0127(6) -0.0048(4) 0.0048(5) -0.0022(4)
O2 O2- 0.0035(5) 0.0066(5) 0.0058(6) -0.0010(4) 0.0001(4) 0.0002(4)
O3 O2- 0.0073(6) 0.0141(6) 0.0075(5) -0.0001(4) 0.0020(4) -0.0049(4)
#End of TTdata_195935-ICSD