
#(C) 2019 by FIZ Karlsruhe - Leibniz Institute for Information Infrastructure.  All rights reserved.
data_195934-ICSD
_database_code_ICSD 195934
_audit_creation_date 2016-02-01
_chemical_name_systematic 'Sodium indium hexaoxodigermanate'
_chemical_formula_structural 'Na In (Ge2 O6)'
_chemical_formula_sum 'Ge2 In1 Na1 O6'
_chemical_name_structure_type Pyroxene-CaMg(SiO3)2
_exptl_crystal_density_diffrn 5.02
_cell_measurement_temperature 293.
_publ_section_title
'Pyroxene-type compounds Na M(3+) Ge2 O6, with M = Ga, Mn, Sc and In'
loop_
_citation_id
_citation_journal_full
_citation_year
_citation_journal_volume
_citation_page_first
_citation_page_last
_citation_journal_id_ASTM
primary 'Acta Crystallographica, Section C: Structural Chemistry' 2014 70 852
857 ACSCGG
loop_
_publ_author_name
'Redhammer, Guenther J.'
'Tippelt, Gerold'
_cell_length_a 10.2215(7)
_cell_length_b 9.1814(6)
_cell_length_c 5.5931(4)
_cell_angle_alpha 90
_cell_angle_beta 107.1333(7)
_cell_angle_gamma 90
_cell_volume 501.6
_cell_formula_units_Z 4
_symmetry_space_group_name_H-M 'C 1 2/c 1'
_symmetry_Int_Tables_number 15
_refine_ls_R_factor_all 0.0119
loop_
_symmetry_equiv_pos_site_id
_symmetry_equiv_pos_as_xyz
1 'x, -y, z+1/2'
2 '-x, -y, -z'
3 '-x, y, -z+1/2'
4 'x, y, z'
5 'x+1/2, -y+1/2, z+1/2'
6 '-x+1/2, -y+1/2, -z'
7 '-x+1/2, y+1/2, -z+1/2'
8 'x+1/2, y+1/2, z'
loop_
_atom_type_symbol
_atom_type_oxidation_number
Na1+ 1
In3+ 3
Ge4+ 4
O2- -2
loop_
_atom_site_label
_atom_site_type_symbol
_atom_site_symmetry_multiplicity
_atom_site_Wyckoff_symbol
_atom_site_fract_x
_atom_site_fract_y
_atom_site_fract_z
_atom_site_B_iso_or_equiv
_atom_site_occupancy
_atom_site_attached_hydrogens
Na1 Na1+ 4 e 0 0.30410(12) 0.25 0.0174(2) 1 0
In1 In3+ 4 e 0 0.89946(2) 0.25 0.00576(8) 1 0
Ge1 Ge4+ 8 f 0.29111(2) 0.09083(2) 0.24432(4) 0.00570(8) 1 0
O1 O2- 8 f 0.35674(13) 0.26117(14) 0.3295(2) 0.0112(3) 1 0
O2 O2- 8 f 0.11216(13) 0.08163(13) 0.1420(2) 0.0075(3) 1 0
O3 O2- 8 f 0.35909(12) 0.01841(17) 0.0138(2) 0.0107(3) 1 0
loop_
_atom_site_aniso_label
_atom_site_aniso_type_symbol
_atom_site_aniso_U_11
_atom_site_aniso_U_22
_atom_site_aniso_U_33
_atom_site_aniso_U_12
_atom_site_aniso_U_13
_atom_site_aniso_U_23
Na1 Na1+ 0.0218(6) 0.0135(5) 0.0125(5) 0 -0.0020(4) 0
In1 In3+ 0.00537(12) 0.00618(11) 0.00548(12) 0 0.00121(8) 0
Ge1 Ge4+ 0.00481(12) 0.00645(12) 0.00549(12) -0.00085(5) 0.00099(8) -0.00023(5)
O1 O2- 0.0131(6) 0.0088(6) 0.0131(6) -0.0052(5) 0.0061(5) -0.0023(5)
O2 O2- 0.0050(6) 0.0094(6) 0.0069(6) -0.0017(4) -0.0001(5) -0.0003(4)
O3 O2- 0.0085(6) 0.0151(7) 0.0082(7) -0.0006(4) 0.0023(5) -0.0042(4)
#End of TTdata_195934-ICSD