
#(C) 2019 by FIZ Karlsruhe - Leibniz Institute for Information Infrastructure.  All rights reserved.
data_195974-ICSD
_database_code_ICSD 195974
_audit_creation_date 2016-02-01
_chemical_name_systematic 'Disodium tetrabarium undecaoxoditungstate'
_chemical_formula_structural 'Na2 Ba4 (W2 O11)'
_chemical_formula_sum 'Ba4 Na2 O11 W2'
_exptl_crystal_density_diffrn 7.02
_publ_section_title

;
Synthesis, structure and red-emitting luminescence properties of
Eu3+-activated perovskite-related tungstate Ba4 Na2 W2 O11
;
loop_
_citation_id
_citation_journal_full
_citation_year
_citation_journal_volume
_citation_page_first
_citation_page_last
_citation_journal_id_ASTM
primary 'Journal of Alloys and Compounds' 2016 656 189 195 JALCEU
loop_
_publ_author_name
'Qiao, Xuebin'
'Qi, Shuyun'
'Lu, Yuting'
'Pu, Yinfu'
'Huang, Yanlin'
'Wang, Xigang'
_cell_length_a 5.6118(2)
_cell_length_b 5.7284(9)
_cell_length_c 8.3855(1)
_cell_angle_alpha 90.
_cell_angle_beta 90.
_cell_angle_gamma 90.
_cell_volume 269.57
_cell_formula_units_Z 1
_symmetry_space_group_name_H-M 'P m m m'
_symmetry_Int_Tables_number 47
_refine_ls_R_factor_all 0.035
loop_
_symmetry_equiv_pos_site_id
_symmetry_equiv_pos_as_xyz
1 'x, -y, z'
2 '-x, y, z'
3 'x, y, -z'
4 '-x, -y, -z'
5 '-x, y, -z'
6 'x, -y, -z'
7 '-x, -y, z'
8 'x, y, z'
loop_
_atom_type_symbol
_atom_type_oxidation_number
W6+ 6
Ba2+ 2
Na1+ 1
O2- -2
loop_
_atom_site_label
_atom_site_type_symbol
_atom_site_symmetry_multiplicity
_atom_site_Wyckoff_symbol
_atom_site_fract_x
_atom_site_fract_y
_atom_site_fract_z
_atom_site_B_iso_or_equiv
_atom_site_occupancy
_atom_site_attached_hydrogens
W1 W6+ 1 f 0.5 0.5 0 0.0012(1) 1. 0
W2 W6+ 1 c 0 0 0.5 0.0023(5) 1. 0
Ba1 Ba2+ 2 s 0.5 0 0.7276(8) 0.0146 1. 0
Ba2 Ba2+ 2 r 0 0.5 0.7213(5) 0.0253(2) 1. 0
Na1 Na1+ 1 a 0 0 0 0.0835(63) 1. 0
Na2 Na1+ 1 h 0.5 0.5 0.5 0.0947(21) 1. 0
O1 O2- 4 z 0.7215(62) 0.7588(22) 0.5 0.0003 0.9166 0
O2 O2- 2 t 0.5 0.5 0.2256(45) 0.0003 0.9166 0
O3 O2- 2 q 0 0 0.7288(65) 0.0003 0.9166 0
O32 O2- 4 y 0.7254(51) 0.7185(36) 0 0.0003 0.9166 0
#End of TTdata_195974-ICSD