
#(C) 2019 by FIZ Karlsruhe - Leibniz Institute for Information Infrastructure.  All rights reserved.
data_195933-ICSD
_database_code_ICSD 195933
_audit_creation_date 2016-02-01
_chemical_name_systematic 'Sodium gallium hexaoxodigermanate'
_chemical_formula_structural 'Na Ga Ge2 O6'
_chemical_formula_sum 'Ga1 Ge2 Na1 O6'
_chemical_name_structure_type Pyroxene-CaMg(SiO3)2
_exptl_crystal_density_diffrn 4.84
_cell_measurement_temperature 293.
_publ_section_title
'Pyroxene-type compounds Na M(3+) Ge2 O6, with M = Ga, Mn, Sc and In'
loop_
_citation_id
_citation_journal_full
_citation_year
_citation_journal_volume
_citation_page_first
_citation_page_last
_citation_journal_id_ASTM
primary 'Acta Crystallographica, Section C: Structural Chemistry' 2014 70 852
857 ACSCGG
loop_
_publ_author_name
'Redhammer, Guenther J.'
'Tippelt, Gerold'
_cell_length_a 9.9279(9)
_cell_length_b 8.8550(8)
_cell_length_c 5.4680(6)
_cell_angle_alpha 90
_cell_angle_beta 107.5419(11)
_cell_angle_gamma 90
_cell_volume 458.34
_cell_formula_units_Z 4
_symmetry_space_group_name_H-M 'C 1 2/c 1'
_symmetry_Int_Tables_number 15
_refine_ls_R_factor_all 0.0285
loop_
_symmetry_equiv_pos_site_id
_symmetry_equiv_pos_as_xyz
1 'x, -y, z+1/2'
2 '-x, -y, -z'
3 '-x, y, -z+1/2'
4 'x, y, z'
5 'x+1/2, -y+1/2, z+1/2'
6 '-x+1/2, -y+1/2, -z'
7 '-x+1/2, y+1/2, -z+1/2'
8 'x+1/2, y+1/2, z'
loop_
_atom_type_symbol
_atom_type_oxidation_number
Na1+ 1
Ga3+ 3
Ge4+ 4
O2- -2
loop_
_atom_site_label
_atom_site_type_symbol
_atom_site_symmetry_multiplicity
_atom_site_Wyckoff_symbol
_atom_site_fract_x
_atom_site_fract_y
_atom_site_fract_z
_atom_site_B_iso_or_equiv
_atom_site_occupancy
_atom_site_attached_hydrogens
Na1 Na1+ 4 e 0 0.3016(4) 0.25 0.0150(8) 1 0
Ga1 Ga3+ 4 e 0 0.90672(11) 0.25 0.0061(2) 1 0
Ge1 Ge4+ 8 f 0.28868(6) 0.09561(7) 0.22575(12) 0.00600(19) 1 0
O1 O2- 8 f 0.3580(4) 0.2737(5) 0.3025(8) 0.0105(9) 1 0
O2 O2- 8 f 0.1039(4) 0.0798(5) 0.1262(8) 0.0062(9) 1 0
O3 O2- 8 f 0.3617(4) 0.0098(5) 0.0076(8) 0.0089(9) 1 0
loop_
_atom_site_aniso_label
_atom_site_aniso_type_symbol
_atom_site_aniso_U_11
_atom_site_aniso_U_22
_atom_site_aniso_U_33
_atom_site_aniso_U_12
_atom_site_aniso_U_13
_atom_site_aniso_U_23
Na1 Na1+ 0.018(2) 0.011(2) 0.0131(19) 0 0.0000(16) 0
Ga1 Ga3+ 0.0061(5) 0.0063(5) 0.0060(5) 0 0.0019(4) 0
Ge1 Ge4+ 0.0052(3) 0.0067(3) 0.0063(3) -0.0003(3) 0.0020(2) 0.0000(3)
O1 O2- 0.011(2) 0.008(2) 0.012(2) -0.0050(19) 0.0030(18) -0.0009(18)
O2 O2- 0.007(2) 0.007(2) 0.005(2) -0.0013(18) 0.0025(17) 0.0000(18)
O3 O2- 0.005(2) 0.015(2) 0.006(2) 0.0003(19) 0.0002(16) -0.004(2)
#End of TTdata_195933-ICSD