
#(C) 2019 by FIZ Karlsruhe - Leibniz Institute for Information Infrastructure.  All rights reserved.
data_195914-ICSD
_database_code_ICSD 195914
_audit_creation_date 2016-02-01
_chemical_name_systematic
'Tetrazinc tetrasodium dodecakis(tetraoxoaluminosilicate)'
_chemical_formula_structural '(Zn4 Na4) (Si12 Al12 O48)'
_chemical_formula_sum 'Al12 Na4 O48 Si12 Zn4'
_chemical_name_structure_type Zeolite-A-frame
_chemical_name_mineral 'Zeolite A (Na-,Zn-exchanged, dehydrated)'
_exptl_crystal_density_diffrn 1.65
_cell_measurement_temperature 100.
_publ_section_title

;
Single-crystal structures of Zn(2+)-exchanged zeolite A: dependence on Zn(2+)
concentration of aqueous solution during exchange
;
loop_
_citation_id
_citation_journal_full
_citation_year
_citation_journal_volume
_citation_page_first
_citation_page_last
_citation_journal_id_ASTM
primary 'Journal of Porous Materials' 2015 22 387 394 JPMAFX
loop_
_publ_author_name
'Kim, Hu Sik'
'Lee, Ha Young'
'Kim, Young Hun'
'Choi, Sang June'
'Lim, Woo Taik'
_cell_length_a 12.1520(1)
_cell_length_b 12.1520(1)
_cell_length_c 12.1520(1)
_cell_angle_alpha 90.
_cell_angle_beta 90.
_cell_angle_gamma 90.
_cell_volume 1794.5
_cell_formula_units_Z 1
_symmetry_space_group_name_H-M 'P m -3 m'
_symmetry_Int_Tables_number 221
_refine_ls_R_factor_all 0.0678
loop_
_symmetry_equiv_pos_site_id
_symmetry_equiv_pos_as_xyz
1 'z, y, -x'
2 'y, x, -z'
3 'x, z, -y'
4 'z, x, -y'
5 'y, z, -x'
6 'x, y, -z'
7 'z, -y, x'
8 'y, -x, z'
9 'x, -z, y'
10 'z, -x, y'
11 'y, -z, x'
12 'x, -y, z'
13 '-z, y, x'
14 '-y, x, z'
15 '-x, z, y'
16 '-z, x, y'
17 '-y, z, x'
18 '-x, y, z'
19 '-z, -y, -x'
20 '-y, -x, -z'
21 '-x, -z, -y'
22 '-z, -x, -y'
23 '-y, -z, -x'
24 '-x, -y, -z'
25 '-z, -y, x'
26 '-y, -x, z'
27 '-x, -z, y'
28 '-z, -x, y'
29 '-y, -z, x'
30 '-x, -y, z'
31 '-z, y, -x'
32 '-y, x, -z'
33 '-x, z, -y'
34 '-z, x, -y'
35 '-y, z, -x'
36 '-x, y, -z'
37 'z, -y, -x'
38 'y, -x, -z'
39 'x, -z, -y'
40 'z, -x, -y'
41 'y, -z, -x'
42 'x, -y, -z'
43 'z, y, x'
44 'y, x, z'
45 'x, z, y'
46 'z, x, y'
47 'y, z, x'
48 'x, y, z'
loop_
_atom_type_symbol
_atom_type_oxidation_number
Si4+ 4
Al3+ 3
O2- -2
Na1+ 1
Zn2+ 2
loop_
_atom_site_label
_atom_site_type_symbol
_atom_site_symmetry_multiplicity
_atom_site_Wyckoff_symbol
_atom_site_fract_x
_atom_site_fract_y
_atom_site_fract_z
_atom_site_B_iso_or_equiv
_atom_site_occupancy
_atom_site_attached_hydrogens
Si1 Si4+ 24 k 0 0.1821(1) 0.3664(1) . 0.5 0
Al1 Al3+ 24 k 0 0.1821(1) 0.3664(1) . 0.5 0
O1 O2- 12 h 0 0.1948(5) 0.5 . 1. 0
O2 O2- 12 i 0 0.2993(3) 0.2993(3) . 1. 0
O3 O2- 24 m 0.1132(3) 0.1132(3) 0.3204(4) . 1. 0
Na1 Na1+ 8 g 0.2117(4) 0.2117(4) 0.2117(4) 0.0172(18) 0.5 0
Zn1 Zn2+ 8 g 0.1524(8) 0.1524(8) 0.1524(8) 0.0605(32) 0.125 0
Zn2 Zn2+ 8 g 0.1922(2) 0.1922(2) 0.1922(2) 0.0159(7) 0.375 0
loop_
_atom_site_aniso_label
_atom_site_aniso_type_symbol
_atom_site_aniso_U_11
_atom_site_aniso_U_22
_atom_site_aniso_U_33
_atom_site_aniso_U_12
_atom_site_aniso_U_13
_atom_site_aniso_U_23
Si1 Si4+ 0.0253(8) 0.0243(7) 0.0232(7) 0. 0. 0.0005(5)
Al1 Al3+ 0.0253(8) 0.0243(7) 0.0232(7) 0. 0. 0.0005(5)
O1 O2- 0.0583(39) 0.0358(31) 0.0294(29) 0. 0. 0.
O2 O2- 0.0525(36) 0.0256(16) 0.0256(16) 0. 0. 0.0024(2)
O3 O2- 0.0569(19) 0.0569(19) 0.0358(22) 0.0318(23) -0.0131(15) -0.0131(15)
#End of TTdata_195914-ICSD