
#(C) 2017 by FIZ Karlsruhe - Leibniz Institute for Information Infrastructure.  All rights reserved.
data_196137-ICSD
_database_code_ICSD 196137
_audit_creation_date 2016-02-01
_chemical_name_systematic 'Lithium tetradeuteridoborate bromide (1/0.62/0.38)'
_chemical_formula_structural 'Li (B D4)0.62 Br0.38'
_chemical_formula_sum 'D2.48 B0.62 Br0.38 Li1'
_exptl_crystal_density_diffrn 1.59
_cell_measurement_temperature 293.
_publ_section_title

;
Phase behavior in the Li B H4 - Li Br system and structure of the
anion-stabilized fast ionic, high temperature phase
;
loop_
_citation_id
_citation_journal_full
_citation_year
_citation_journal_volume
_citation_page_first
_citation_page_last
_citation_journal_id_ASTM
primary 'Chemistry of Materials' 2015 27 7780 7787 CMATEX
loop_
_publ_author_name
'Cascallana-Matias, Irene'
'Keen, David A.'
'Cussen, Edmund J.'
'Gregory, Duncan H.'
_cell_length_a 4.19622(7)
_cell_length_b 4.19622(7)
_cell_length_c 6.7070(2)
_cell_angle_alpha 90.
_cell_angle_beta 90.
_cell_angle_gamma 120.
_cell_volume 102.28
_cell_formula_units_Z 2
_symmetry_space_group_name_H-M 'P 63 m c'
_symmetry_Int_Tables_number 186
_refine_ls_R_factor_all 0.0883
loop_
_symmetry_equiv_pos_site_id
_symmetry_equiv_pos_as_xyz
1 '-x, -x+y, z+1/2'
2 'x-y, -y, z+1/2'
3 'y, x, z+1/2'
4 'x-y, x, z+1/2'
5 'y, -x+y, z+1/2'
6 '-x, -y, z+1/2'
7 'x, x-y, z'
8 '-x+y, y, z'
9 '-y, -x, z'
10 '-x+y, -x, z'
11 '-y, x-y, z'
12 'x, y, z'
loop_
_atom_type_symbol
_atom_type_oxidation_number
Li1+ 1
B3+ 3
Br1- -1
D1- -1
loop_
_atom_site_label
_atom_site_type_symbol
_atom_site_symmetry_multiplicity
_atom_site_Wyckoff_symbol
_atom_site_fract_x
_atom_site_fract_y
_atom_site_fract_z
_atom_site_B_iso_or_equiv
_atom_site_occupancy
_atom_site_attached_hydrogens
Li1 Li1+ 2 b 0.6667 0.3333 0.626(8) 0.044(2) 0.19(1) 0
Li2 Li1+ 2 b 0.6667 0.3333 0.802 0.044(2) 0.81(1) 0
B1 B3+ 2 b 0.6667 0.3333 0.226(2) 0.0158(6) 0.617 0
Br1 Br1- 2 b 0.66667 0.3333 0.180(2) 0.0158(6) 0.383 0
D1 D1- 2 b 0.6667 0.3333 0.029(3) 0.075(2) 0.481(2) 0
D2 D1- 6 c 0.8195(5) 0.1805(6) 0.268(2) 0.075(2) 0.481(1) 0
D3 D1- 6 c 0.541(2) 0.082(3) 0.088(3) 0.075(2) 0.136(2) 0
D4 D1- 2 b 0.6667 0.3333 0.398(6) 0.075(2) 0.136(2) 0
#End of TTdata_196137-ICSD