
#(C) 2019 by FIZ Karlsruhe - Leibniz Institute for Information Infrastructure.  All rights reserved.
data_196287-ICSD
_database_code_ICSD 196287
_audit_creation_date 2016-02-01
_chemical_name_systematic 'Potassium-0.96 sodium-0.04 octaoxoaluminotrisilicate'
_chemical_formula_structural '(K0.96 Na0.04) ((Al Si3) O8)'
_chemical_formula_sum 'Al1 K0.96 Na0.04 O8 Si3'
_chemical_name_structure_type Feldspar#-(TC)-Albite-NaAlSi3O8
_chemical_name_mineral 'Microcline (maximum)'
_exptl_crystal_density_diffrn 2.55
_publ_section_title 'Rietveld structure refinement of microcline'
loop_
_citation_id
_citation_journal_full
_citation_year
_citation_journal_volume
_citation_page_first
_citation_page_last
_citation_journal_id_ASTM
primary 'European Journal of Mineralogy' 2015 27 501 510 EJMIER
loop_
_publ_author_name
'Liu, Shanke'
_cell_length_a 8.5919(8)
_cell_length_b 12.9685(13)
_cell_length_c 7.2238(7)
_cell_angle_alpha 90.569(3)
_cell_angle_beta 115.968(2)
_cell_angle_gamma 87.898(4)
_cell_volume 723.14
_cell_formula_units_Z 4
_symmetry_space_group_name_H-M 'C -1'
_symmetry_Int_Tables_number 2
_refine_ls_R_factor_all 0.0409
loop_
_symmetry_equiv_pos_site_id
_symmetry_equiv_pos_as_xyz
1 '-x, -y, -z'
2 'x, y, z'
3 '-x+1/2, -y+1/2, -z'
4 'x+1/2, y+1/2, z'
loop_
_atom_type_symbol
_atom_type_oxidation_number
K1+ 1
Na1+ 1
Si4+ 4
Al3+ 3
Si4+ 4
Al3+ 3
Si4+ 4
Al3+ 3
Si4+ 4
Al3+ 3
O2- -2
loop_
_atom_site_label
_atom_site_type_symbol
_atom_site_symmetry_multiplicity
_atom_site_Wyckoff_symbol
_atom_site_fract_x
_atom_site_fract_y
_atom_site_fract_z
_atom_site_B_iso_or_equiv
_atom_site_occupancy
_atom_site_attached_hydrogens
K1 K1+ 4 i 0.2852(4) 0.99697(26) 0.14367(9) 0.0419(5) 0.96 0
Na1 Na1+ 4 i 0.2852(4) 0.99697(26) 0.14367(9) 0.0419(5) 0.04 0
Si1 Si4+ 4 i 0.0101(4) 0.18705(26) 0.21745(9) 0.0164(5) 0.09 0
Al1 Al3+ 4 i 0.0101(4) 0.18705(26) 0.21745(9) 0.0164(5) 0.91 0
Si2 Si4+ 4 i 0.0096(4) 0.81945(26) 0.23156(9) 0.0159(5) 0.95 0
Al2 Al3+ 4 i 0.0096(4) 0.81945(26) 0.23156(9) 0.0159(5) 0.05 0
Si3 Si4+ 4 i 0.7102(4) 0.11993(26) 0.34034(9) 0.0154(5) 0.98 0
Al3 Al3+ 4 i 0.7102(4) 0.11993(26) 0.34034(9) 0.0154(5) 0.02 0
Si4 Si4+ 4 i 0.7052(4) 0.88527(26) 0.34997(9) 0.0156(5) 0.98 0
Al4 Al3+ 4 i 0.7052(4) 0.88527(26) 0.34997(9) 0.0156(5) 0.02 0
O1 O2- 4 i 0.0009(4) 0.14437(26) 0.98334(9) 0.0125(5) 1. 0
O2 O2- 4 i 0.6350(4) 0.00487(26) 0.28564(9) 0.0105(5) 1. 0
O3 O2- 4 i 0.8214(4) 0.14657(26) 0.21964(9) 0.0201(5) 1. 0
O4 O2- 4 i 0.8313(4) 0.85737(26) 0.23904(9) 0.0157(5) 1. 0
O5 O2- 4 i 0.0346(4) 0.31867(26) 0.25174(9) 0.0119(5) 1. 0
O6 O2- 4 i 0.0376(4) 0.69517(26) 0.26844(9) 0.0113(5) 1. 0
O7 O2- 4 i 0.1905(4) 0.12327(26) 0.40444(9) 0.0130(5) 1. 0
O8 O2- 4 i 0.1768(4) 0.87437(26) 0.41074(9) 0.0111(5) 1. 0
#End of TTdata_196287-ICSD