
#(C) 2019 by FIZ Karlsruhe - Leibniz Institute for Information Infrastructure.  All rights reserved.
data_196274-ICSD
_database_code_ICSD 196274
_audit_creation_date 2016-02-01
_chemical_name_systematic 'Sodium-0.92 (magnesium-0.8 manganese-0.2) dioxide'
_chemical_formula_structural 'Na0.92 (Mn0.8 Mg0.2) O2'
_chemical_formula_sum 'Mg0.2 Mn0.8 Na0.92 O2'
_exptl_crystal_density_diffrn 4.02
_publ_section_title

;
Rate dependent performance related to crystal structure evolution of Na0.67
Mn0.8 Mg0.2 O2 in a sodium-ion battery
;
loop_
_citation_id
_citation_journal_full
_citation_year
_citation_journal_volume
_citation_page_first
_citation_page_last
_citation_journal_id_ASTM
primary 'Chemistry of Materials' 2015 27 6976 6986 CMATEX
loop_
_publ_author_name
'Sharma, Neeraj'
'Tapia-Ruiz, Nuria'
'Singh, Gurpreet'
'Armstrong, A. Robert'
'Pramudita, James C.'
'Brand, Helen E.A.'
'Billaud, Juliette'
'Bruce, Peter G.'
'Rojo, Teofilo'
_cell_length_a 2.8944(6)
_cell_length_b 5.3928(10)
_cell_length_c 10.801(3)
_cell_angle_alpha 90.
_cell_angle_beta 90.
_cell_angle_gamma 90.
_cell_volume 168.59
_cell_formula_units_Z 4
_symmetry_space_group_name_H-M 'C m c m'
_symmetry_Int_Tables_number 63
_refine_ls_R_factor_all 0.0369
loop_
_symmetry_equiv_pos_site_id
_symmetry_equiv_pos_as_xyz
1 '-x, y, -z+1/2'
2 '-x, -y, z+1/2'
3 '-x, y, z'
4 '-x, -y, -z'
5 'x, -y, z+1/2'
6 'x, y, -z+1/2'
7 'x, -y, -z'
8 'x, y, z'
9 '-x+1/2, y+1/2, -z+1/2'
10 '-x+1/2, -y+1/2, z+1/2'
11 '-x+1/2, y+1/2, z'
12 '-x+1/2, -y+1/2, -z'
13 'x+1/2, -y+1/2, z+1/2'
14 'x+1/2, y+1/2, -z+1/2'
15 'x+1/2, -y+1/2, -z'
16 'x+1/2, y+1/2, z'
loop_
_atom_type_symbol
_atom_type_oxidation_number
Na1+ 1
Mn3+ 3.35
Mg2+ 2
O2- -2
loop_
_atom_site_label
_atom_site_type_symbol
_atom_site_symmetry_multiplicity
_atom_site_Wyckoff_symbol
_atom_site_fract_x
_atom_site_fract_y
_atom_site_fract_z
_atom_site_B_iso_or_equiv
_atom_site_occupancy
_atom_site_attached_hydrogens
Na1 Na1+ 4 c 0 0.310(2) 0.25 0.015 0.86(1) 0
Na2 Na1+ 4 c 0 0 0.25 0.015 0.055(8) 0
Mn1 Mn3+ 4 a 0 0 0 0.006 0.8 0
Mg1 Mg2+ 4 a 0 0 0 0.006 0.2 0
O1 O2- 8 f 0 0.655(2) 0.0907(10) 0.008 1. 0
#End of TTdata_196274-ICSD