
#(C) 2019 by FIZ Karlsruhe - Leibniz Institute for Information Infrastructure.  All rights reserved.
data_200237-ICSD
_database_code_ICSD 200237
_audit_creation_date 1980-01-01
_audit_update_record 2013-02-01
_chemical_name_systematic 'Sodium cadmium silicate *'
_chemical_formula_structural 'Na2 Cd3 (Si3 O10)'
_chemical_formula_sum 'Cd3 Na2 O10 Si3'
_chemical_name_structure_type Na2Cd3Si3O10
_exptl_crystal_density_diffrn 4.56
_publ_section_title
'Improved crystal structure of Na, Cd-triorthosilicate Na2 Cd3 (Si3 O10)'
loop_
_citation_id
_citation_journal_full
_citation_year
_citation_journal_volume
_citation_page_first
_citation_page_last
_citation_journal_id_ASTM
primary 'Doklady Akademii Nauk SSSR' 1977 236 866 868 DANKAS
loop_
_publ_author_name
'Simonov, M.A.'
'Egorov Tismenko, Yu.K.'
'Belov, N.V.'
_cell_length_a 16.426(6)
_cell_length_b 5.086(1)
_cell_length_c 10.958(3)
_cell_angle_alpha 90.
_cell_angle_beta 94.20(2)
_cell_angle_gamma 90.
_cell_volume 913.
_cell_formula_units_Z 4
_symmetry_space_group_name_H-M 'C 1 2/c 1'
_symmetry_Int_Tables_number 15
_refine_ls_R_factor_all 0.046
loop_
_symmetry_equiv_pos_site_id
_symmetry_equiv_pos_as_xyz
1 'x, -y, z+1/2'
2 '-x, -y, -z'
3 '-x, y, -z+1/2'
4 'x, y, z'
5 'x+1/2, -y+1/2, z+1/2'
6 '-x+1/2, -y+1/2, -z'
7 '-x+1/2, y+1/2, -z+1/2'
8 'x+1/2, y+1/2, z'
loop_
_atom_type_symbol
_atom_type_oxidation_number
Cd2+ 2
Si4+ 4
Na1+ 1
O2- -2
loop_
_atom_site_label
_atom_site_type_symbol
_atom_site_symmetry_multiplicity
_atom_site_Wyckoff_symbol
_atom_site_fract_x
_atom_site_fract_y
_atom_site_fract_z
_atom_site_B_iso_or_equiv
_atom_site_occupancy
_atom_site_attached_hydrogens
Cd1 Cd2+ 4 c 0.25 0.25 0 . 1. 0
Cd2 Cd2+ 8 f 0.34141(3) 0.7166(1) 0.79295(5) . 1. 0
Si1 Si4+ 4 e 0 0.8177(4) 0.75 . 1. 0
Si2 Si4+ 8 f 0.15168(9) 0.6915(3) 0.9007(1) . 1. 0
Na1 Na1+ 8 f 0.0461(2) 0.2398(5) 0.9692(2) . 1. 0
O1 O2- 8 f 0.3507(2) 0.9423(8) 0.9657(4) . 1. 0
O2 O2- 8 f 0.4528(2) 0.4867(8) 0.8459(4) . 1. 0
O3 O2- 8 f 0.0626(2) 0.6087(8) 0.8275(4) . 1. 0
O4 O2- 8 f 0.2212(2) 0.5328(8) 0.8313(4) . 1. 0
O5 O2- 8 f 0.1588(2) 0.0073(8) 0.8975(4) . 1. 0
loop_
_atom_site_aniso_label
_atom_site_aniso_type_symbol
_atom_site_aniso_B_11
_atom_site_aniso_B_22
_atom_site_aniso_B_33
_atom_site_aniso_B_12
_atom_site_aniso_B_13
_atom_site_aniso_B_23
Cd1 Cd2+ 1.12(2) 0.75(2) 1.41(2) 0.06(1) -.52(2) -.02(1)
Cd2 Cd2+ 0.59(1) 0.70(1) 0.57(1) 0.08(1) -.03(1) -.04(1)
Si1 Si4+ 0.18(5) 0.20(5) 0.29(5) 0 -.16(4) 0
Si2 Si4+ 0.20(4) 0.10(4) 0.34(4) -.01(3) -.06(3) 0.00(3)
Na1 Na1+ 0.81(8) 0.60(7) 1.00(8) -.19(6) 0.11(6) -.01(6)
O1 O2- 0.7(1) 0.5(1) 0.4(1) -.02(9) 0.06(9) 0.01(8)
O2 O2- 0.6(1) 0.6(1) 0.5(1) 0.05(9) 0.02(9) -.14(9)
O3 O2- 0.5(1) 0.4(1) 0.9(1) -.07(9) -.44(9) -.20(9)
O4 O2- 0.4(1) 0.4(1) 0.7(1) -.06(8) 0.17(9) -.07(9)
O5 O2- 0.5(1) 0.2(1) 0.7(1) -.09(8) -.05(9) -.02(8)
#End of TTdata_200237-ICSD