
#(C) 2019 by FIZ Karlsruhe - Leibniz Institute for Information Infrastructure.  All rights reserved.
data_200289-ICSD
_database_code_ICSD 200289
_audit_creation_date 1980-01-01
_audit_update_record 2003-10-01
_chemical_name_systematic 'Sodium neodymium bis(sulfate(VI))'
_chemical_formula_structural 'Na Nd (S O4)2'
_chemical_formula_sum 'Na1 Nd1 O8 S2'
_chemical_name_structure_type KPr(SO4)2
_exptl_crystal_density_diffrn 3.82
_publ_section_title
'Structure cristalline de sulfates doubles de sodium et de terres rares'
loop_
_citation_id
_citation_journal_full
_citation_year
_citation_journal_volume
_citation_page_first
_citation_page_last
_citation_journal_id_ASTM
primary 'Journal of the Less-Common Metals' 1978 58 101 105 JCOMAH
loop_
_publ_author_name
'Sirotinkin, S.P.'
'Chizhov, S.M.'
'Pokrovskii, A.N.'
'Kovba, L.M.'
_cell_length_a 6.950(3)
_cell_length_b 6.343(3)
_cell_length_c 7.215(4)
_cell_angle_alpha 96.30(2)
_cell_angle_beta 98.95(2)
_cell_angle_gamma 90.93(2)
_cell_volume 312.12
_cell_formula_units_Z 2
_symmetry_space_group_name_H-M 'P -1'
_symmetry_Int_Tables_number 2
_refine_ls_R_factor_all 0.055
loop_
_symmetry_equiv_pos_site_id
_symmetry_equiv_pos_as_xyz
1 '-x, -y, -z'
2 'x, y, z'
loop_
_atom_type_symbol
_atom_type_oxidation_number
Nd3+ 3
S6+ 6
Na1+ 1
O2- -2
loop_
_atom_site_label
_atom_site_type_symbol
_atom_site_symmetry_multiplicity
_atom_site_Wyckoff_symbol
_atom_site_fract_x
_atom_site_fract_y
_atom_site_fract_z
_atom_site_B_iso_or_equiv
_atom_site_occupancy
_atom_site_attached_hydrogens
Nd1 Nd3+ 2 i 0.1951(4) 0.3621(4) 0.2047(3) 0.435(2) 1. 0
S1 S6+ 2 i 0.2871(8) 0.4419(7) 0.7144(6) 0.65(2) 1. 0
S2 S6+ 2 i 0.1820(8) 0.8709(8) 0.2148(8) 0.74(2) 1. 0
Na1 Na1+ 2 i 0.3078(12) 0.9277(14) 0.7174(12) 1.73(2) 1. 0
O1 O2- 2 i 0.0287(15) 0.0104(16) 0.2463(15) 1.44(2) 1. 0
O2 O2- 2 i 0.1053(12) 0.6965(12) 0.0524(13) 1.30(2) 1. 0
O3 O2- 2 i 0.2952(15) 0.3123(14) 0.8810(14) 1.32(2) 1. 0
O4 O2- 2 i 0.1084(11) 0.5616(12) 0.6890(12) 1.08(2) 1. 0
O5 O2- 2 i 0.3386(16) -.0010(15) 0.1588(15) 1.26(2) 1. 0
O6 O2- 2 i 0.2617(16) 0.7579(15) 0.3746(16) 1.53(2) 1. 0
O7 O2- 2 i 0.2943(14) 0.2938(13) 0.5396(14) 1.37(2) 1. 0
O8 O2- 2 i 0.4559(17) 0.5936(16) 0.7470(17) 1.33(2) 1. 0
#End of TTdata_200289-ICSD