
#(C) 2019 by FIZ Karlsruhe - Leibniz Institute for Information Infrastructure.  All rights reserved.
data_200225-ICSD
_database_code_ICSD 200225
_audit_creation_date 1980-01-01
_audit_update_record 2008-02-01
_chemical_name_systematic 'Bis(trifluoroantimonysodium) oxalate'
_chemical_formula_structural '(Na (Sb F3))2 (C2 O4)'
_chemical_formula_sum 'C2 F6 Na2 O4 Sb2'
_exptl_crystal_density_diffrn 3.69
_publ_section_title

;
Interaction paire electronique libre-liaison pi dans un systeme non
symetrique. Structure cristalline de Na2 C2 O4 (Sb F3)2
;
loop_
_citation_id
_citation_journal_full
_citation_year
_citation_journal_volume
_citation_page_first
_citation_page_last
_citation_journal_id_ASTM
primary 'Annales de Chimie (Cachan, France)' 1978 1978 124 124 ANCPAC
loop_
_publ_author_name
'Escande, P.'
'Tichit, D.'
'Ducourant, M.B.'
'Fourcade, R.'
'Mascherpa, G.'
_cell_length_a 17.213(7)
_cell_length_b 6.342(3)
_cell_length_c 8.168(4)
_cell_angle_alpha 90.
_cell_angle_beta 97.70(3)
_cell_angle_gamma 90.
_cell_volume 883.62
_cell_formula_units_Z 4
_symmetry_space_group_name_H-M 'C 1 c 1'
_symmetry_Int_Tables_number 9
_refine_ls_R_factor_all 0.039
loop_
_symmetry_equiv_pos_site_id
_symmetry_equiv_pos_as_xyz
1 'x, -y, z+1/2'
2 'x, y, z'
3 'x+1/2, -y+1/2, z+1/2'
4 'x+1/2, y+1/2, z'
loop_
_atom_type_symbol
_atom_type_oxidation_number
Sb3+ 3
Na1+ 1
F1- -1
O2- -2
C3+ 3
loop_
_atom_site_label
_atom_site_type_symbol
_atom_site_symmetry_multiplicity
_atom_site_Wyckoff_symbol
_atom_site_fract_x
_atom_site_fract_y
_atom_site_fract_z
_atom_site_B_iso_or_equiv
_atom_site_occupancy
_atom_site_attached_hydrogens
Sb1 Sb3+ 4 a 0 0.1172(8) 0 0.9 1. 0
Sb2 Sb3+ 4 a 0.2119(1) 0.1297(8) 0.2775(2) 0.94 1. 0
Na1 Na1+ 4 a 0.389(2) 0.112(4) 0.064(3) 2.5 1. 0
Na2 Na1+ 4 a 0.312(1) 0.612(3) 0.212(3) 0.9 1. 0
F1 F1- 4 a 0.410(2) 0.763(5) 0.074(3) 0.7 1. 0
F2 F1- 4 a 0.294(2) 0.917(6) 0.350(4) 1.2 1. 0
F3 F1- 4 a 0.242(2) 0.801(6) 0.008(3) 2.1 1. 0
F4 F1- 4 a 0.297(2) 0.723(7) 0.681(4) 2.7 1. 0
F5 F1- 4 a 0.409(2) 0.586(6) 0.453(4) 1.6 1. 0
F6 F1- 4 a 0.473(2) 0.320(6) 0.270(4) 1.6 1. 0
O1 O2- 4 a 0.023(1) 0.482(4) 0.005(3) 1. 1. 0
O2 O2- 4 a 0.181(2) 0.481(4) 0.293(3) 1. 1. 0
O3 O2- 4 a 0.141(2) 0.237(8) 0.906(5) 1.3 1. 0
O4 O2- 4 a 0.081(2) 0.236(2) 0.400(5) 1.2 1. 0
C1 C3+ 4 a 0.076(2) 0.428(5) 0.427(4) 2.4 1. 0
C2 C3+ 4 a 0.143(2) 0.425(6) 0.878(4) 0.5 1. 0
#End of TTdata_200225-ICSD