
#(C) 2019 by FIZ Karlsruhe - Leibniz Institute for Information Infrastructure.  All rights reserved.
data_200405-ICSD
_database_code_ICSD 200405
_audit_creation_date 1980-01-01
_audit_update_record 2006-04-01
_chemical_name_systematic 'Sodium chlorate(VII)'
_chemical_formula_structural 'Na (Cl O4)'
_chemical_formula_sum 'Cl1 Na1 O4'
_chemical_name_structure_type CaSO4
_exptl_crystal_density_diffrn 2.5
_publ_section_title 'Crystal structure of sodium perchlorate'
loop_
_citation_id
_citation_journal_full
_citation_year
_citation_journal_volume
_citation_page_first
_citation_page_last
_citation_journal_id_ASTM
primary 'Zeitschrift fuer Kristallographie' 1978 147 307 317 ZEKRDZ
loop_
_publ_author_name
'Wartchow, R.'
'Berthold, H.J.'
_cell_length_a 7.085(1)
_cell_length_b 6.526(1)
_cell_length_c 7.048(1)
_cell_angle_alpha 90.
_cell_angle_beta 90.
_cell_angle_gamma 90.
_cell_volume 325.88
_cell_formula_units_Z 4
_symmetry_space_group_name_H-M 'C m c m'
_symmetry_Int_Tables_number 63
_refine_ls_R_factor_all 0.04
loop_
_symmetry_equiv_pos_site_id
_symmetry_equiv_pos_as_xyz
1 '-x, y, -z+1/2'
2 '-x, -y, z+1/2'
3 '-x, y, z'
4 '-x, -y, -z'
5 'x, -y, z+1/2'
6 'x, y, -z+1/2'
7 'x, -y, -z'
8 'x, y, z'
9 '-x+1/2, y+1/2, -z+1/2'
10 '-x+1/2, -y+1/2, z+1/2'
11 '-x+1/2, y+1/2, z'
12 '-x+1/2, -y+1/2, -z'
13 'x+1/2, -y+1/2, z+1/2'
14 'x+1/2, y+1/2, -z+1/2'
15 'x+1/2, -y+1/2, -z'
16 'x+1/2, y+1/2, z'
loop_
_atom_type_symbol
_atom_type_oxidation_number
Na1+ 1
Cl7+ 7
O2- -2
loop_
_atom_site_label
_atom_site_type_symbol
_atom_site_symmetry_multiplicity
_atom_site_Wyckoff_symbol
_atom_site_fract_x
_atom_site_fract_y
_atom_site_fract_z
_atom_site_B_iso_or_equiv
_atom_site_occupancy
_atom_site_attached_hydrogens
Na1 Na1+ 4 c 0 0.6637(2) 0.25 . 1. 0
Cl1 Cl7+ 4 c 0 0.1683(1) 0.25 . 1. 0
O1 O2- 8 f 0 0.2989(3) 0.0867(3) . 1. 0
O2 O2- 8 g 0.1638(3) 0.0384(3) 0.25 . 1. 0
loop_
_atom_site_aniso_label
_atom_site_aniso_type_symbol
_atom_site_aniso_U_11
_atom_site_aniso_U_22
_atom_site_aniso_U_33
_atom_site_aniso_U_12
_atom_site_aniso_U_13
_atom_site_aniso_U_23
Na1 Na1+ 0.0346(8) 0.0286(8) 0.0233(8) 0 0 0
Cl1 Cl7+ 0.0179(3) 0.0164(3) 0.0172(3) 0 0 0
O1 O2- 0.0492(7) 0.0321(7) 0.0195(7) 0 0 0.0078(14)
O2 O2- 0.0273(7) 0.0356(7) 0.0497(7) 0 0 0.0140(14)
#End of TTdata_200405-ICSD