
#(C) 2019 by FIZ Karlsruhe - Leibniz Institute for Information Infrastructure.  All rights reserved.
data_200510-ICSD
_database_code_ICSD 200510
_audit_creation_date 1980-01-01
_chemical_name_systematic 'Trisodium dimagnesium pentaphosphate'
_chemical_formula_structural 'Na3 Mg2 P5 O16'
_chemical_formula_sum 'Mg2 Na3 O16 P5'
_exptl_crystal_density_diffrn 2.66
_publ_section_title
'A new type of phosphate radical P5 O16 in the Na3 Mg2 P5 O16 crystal'
loop_
_citation_id
_citation_journal_full
_citation_year
_citation_journal_volume
_citation_page_first
_citation_page_last
_citation_journal_id_ASTM
primary Kristallografiya 1978 23 1264 1266 KRISAJ
loop_
_publ_author_name
'Smolin, Yu.I.'
'Shepelev, Yu.F.'
'Domanskii, A.I.'
'Majling, J.'
_cell_length_a 18.617(5)
_cell_length_b 6.844(3)
_cell_length_c 5.174(3)
_cell_angle_alpha 90.
_cell_angle_beta 90.15
_cell_angle_gamma 90.
_cell_volume 659.24
_cell_formula_units_Z 2
_symmetry_space_group_name_H-M 'P 1 2/a 1'
_symmetry_Int_Tables_number 13
_refine_ls_R_factor_all 0.029
loop_
_symmetry_equiv_pos_site_id
_symmetry_equiv_pos_as_xyz
1 'x+1/2, -y, z'
2 '-x, -y, -z'
3 '-x+1/2, y, -z'
4 'x, y, z'
loop_
_atom_type_symbol
_atom_type_oxidation_number
P5+ 5
Mg2+ 2
Na1+ 1
O2- -2
loop_
_atom_site_label
_atom_site_type_symbol
_atom_site_symmetry_multiplicity
_atom_site_Wyckoff_symbol
_atom_site_fract_x
_atom_site_fract_y
_atom_site_fract_z
_atom_site_B_iso_or_equiv
_atom_site_occupancy
_atom_site_attached_hydrogens
P1 P5+ 2 e 0.25 0.74089(7) 0 . 1. 0
P2 P5+ 4 g 0.63030(1) 0.47452(5) 0.75776 . 1. 0
P3 P5+ 4 g 0.08297(1) 0.12230(5) 0.7729(1) . 1. 0
Mg1 Mg2+ 4 g 0.09190(2) 0.82208(8) 0.2688(1) . 1. 0
Na1 Na1+ 2 f 0.25 0.0379(2) 0.5 . 1. 0
Na2 Na1+ 4 g 0.03188(4) 0.3525(1) 0.2527(2) . 1. 0
O1 O2- 4 g 0.19852(6) 0.8518(2) 0.1617(3) . 1. 0
O2 O2- 4 g 0.21042(6) 0.5961(2) 0.8081(3) . 1. 0
O3 O2- 4 g 0.08118(6) 0.6012(2) 0.9629(3) . 1. 0
O4 O2- 4 g 0.10946(7) 0.5687(2) 0.4853(3) . 1. 0
O5 O2- 4 g 0.14365(6) 0.2989(2) 0.7864(3) . 1. 0
O6 O2- 4 g 0.01638(5) 0.2180(2) 0.6609(3) . 1. 0
O7 O2- 4 g 0.07390(6) 0.0627(2) 0.0498(3) . 1. 0
O8 O2- 4 g 0.11867(7) 0.9763(2) 0.5985(3) . 1. 0
loop_
_atom_site_aniso_label
_atom_site_aniso_type_symbol
_atom_site_aniso_beta_11
_atom_site_aniso_beta_22
_atom_site_aniso_beta_33
_atom_site_aniso_beta_12
_atom_site_aniso_beta_13
_atom_site_aniso_beta_23
P1 P5+ 0.00027 0.00266 0.00639 0 0.00015 0
P2 P5+ 0.00038 0.00259 0.00581 -.0003 -.00016 0.00051
P3 P5+ 0.00037 0.00238 0.00601 -.00008 0.00003 -.00062
Mg1 Mg2+ 0.00045 0.00338 0.00768 -.00001 0.00006 -.00083
Na1 Na1+ 0.00127 0.01175 0.01898 0 -.00154 0
Na2 Na1+ 0.00101 0.00728 0.0118 -.00012 -.00052 0.00011
O1 O2- 0.00044 0.00484 0.01234 -.00055 0.00062 0.00307
O2 O2- 0.00047 0.00657 0.01269 -.0013 0.00033 -.00736
O3 O2- 0.00054 0.00581 0.01017 -.0003 0.00069 -.00212
O4 O2- 0.00101 0.00415 0.00859 0.00032 -.0015 -.00173
O5 O2- 0.00058 0.00293 0.01515 0.00053 -.0016 -.00335
O6 O2- 0.00042 0.00556 0.01173 -.00028 -.00027 -.00326
O7 O2- 0.00077 0.00461 0.00804 0.00069 0.0004 0.00203
O8 O2- 0.00083 0.00539 0.01154 0.00072 0.00008 -.00628
#End of TTdata_200510-ICSD