
#(C) 2019 by FIZ Karlsruhe - Leibniz Institute for Information Infrastructure.  All rights reserved.
data_200573-ICSD
_database_code_ICSD 200573
_audit_creation_date 1980-01-01
_chemical_name_systematic 'Sodium catena-tetrafluoroantimonate(III)'
_chemical_formula_structural 'Na Sb F4'
_chemical_formula_sum 'F4 Na1 Sb1'
_chemical_name_structure_type NdTaO4
_exptl_crystal_density_diffrn 3.84
_publ_section_title

;
Redetermination de la structure cristalline du tetrafluoro- antimonate III de
sodium Na Sb F4 - interaction liaison fluor-paire electronique libre
;
loop_
_citation_id
_citation_journal_full
_citation_year
_citation_journal_volume
_citation_page_first
_citation_page_last
_citation_journal_id_ASTM
primary 'Journal of Fluorine Chemistry' 1978 12 237 247 JFLCAR
loop_
_publ_author_name
'Habibi, N.'
'Bonnet, B.'
'Ducourant, M.B.'
_cell_length_a 8.068(4)
_cell_length_b 5.530(2)
_cell_length_c 8.570(2)
_cell_angle_alpha 90.
_cell_angle_beta 94.15(3)
_cell_angle_gamma 90.
_cell_volume 381.36
_cell_formula_units_Z 4
_symmetry_space_group_name_H-M 'P 1 21/c 1'
_symmetry_Int_Tables_number 14
_refine_ls_R_factor_all 0.052
loop_
_symmetry_equiv_pos_site_id
_symmetry_equiv_pos_as_xyz
1 'x, -y+1/2, z+1/2'
2 '-x, -y, -z'
3 '-x, y+1/2, -z+1/2'
4 'x, y, z'
loop_
_atom_type_symbol
_atom_type_oxidation_number
Sb3+ 3
Na1+ 1
F1- -1
loop_
_atom_site_label
_atom_site_type_symbol
_atom_site_symmetry_multiplicity
_atom_site_Wyckoff_symbol
_atom_site_fract_x
_atom_site_fract_y
_atom_site_fract_z
_atom_site_B_iso_or_equiv
_atom_site_occupancy
_atom_site_attached_hydrogens
Sb1 Sb3+ 4 e 0.1698(1) 0.7879(1) 0.1415(1) . 1. 0
Na1 Na1+ 4 e 0.3690(7) 0.2962(1) 0.3420(7) . 1. 0
F1 F1- 4 e 0.618(1) 0.112(1) 0.333(1) . 1. 0
F2 F1- 4 e 0.776(1) 0.070(1) 0.654(1) . 1. 0
F3 F1- 4 e 0.326(1) 0.064(2) 0.086(1) . 1. 0
F4 F1- 4 e 0.109(1) 0.004(2) 0.779(1) . 1. 0
loop_
_atom_site_aniso_label
_atom_site_aniso_type_symbol
_atom_site_aniso_U_11
_atom_site_aniso_U_22
_atom_site_aniso_U_33
_atom_site_aniso_U_12
_atom_site_aniso_U_13
_atom_site_aniso_U_23
Sb1 Sb3+ 0.0052 0.0159 0.0135 -.0012 0.0031 0.0015
Na1 Na1+ 0.0068 0.0245 0.0261 0.011 0.0119 -.0012
F1 F1- 0.0024 0.0046 0.0042 0.0072 0.0078 0.0068
F2 F1- 0.0022 0.0041 0.004 0.0067 0.0074 0.0064
F3 F1- 0.0027 0.005 0.0048 0.0081 0.0088 0.0196
F4 F1- 0.0082 0.0226 0.036 0.0133 0.0127 -.0228
#End of TTdata_200573-ICSD