
#(C) 2019 by FIZ Karlsruhe - Leibniz Institute for Information Infrastructure.  All rights reserved.
data_20065-ICSD
_database_code_ICSD 20065
_audit_creation_date 1980-01-01
_audit_update_record 2012-08-01
_chemical_name_systematic 'Sodium iron zinc phosphate (1/0.5/0.5/1)'
_chemical_formula_structural 'Na (Fe.5 Zn.5) (P O4)'
_chemical_formula_sum 'Fe0.5 Na1 O4 P1 Zn0.5'
_chemical_name_structure_type Olivine-Mg2SiO4
_exptl_crystal_density_diffrn 3.83
_publ_section_title 'The crystal structure of Na (Fe,Zn) (P O4)'
loop_
_citation_id
_citation_journal_full
_citation_year
_citation_journal_volume
_citation_page_first
_citation_page_last
_citation_journal_id_ASTM
primary 'Doklady Akademii Nauk SSSR' 1974 216 1034 1036 DANKAS
loop_
_publ_author_name
'Kabalov, Yu.K.'
'Simonov, M.A.'
'Belov, N.B.'
_cell_length_a 8.972(5)
_cell_length_b 6.854(3)
_cell_length_c 5.031(1)
_cell_angle_alpha 90.
_cell_angle_beta 90.
_cell_angle_gamma 90.
_cell_volume 309.38
_cell_formula_units_Z 4
_symmetry_space_group_name_H-M 'P n m a'
_symmetry_Int_Tables_number 62
_refine_ls_R_factor_all 0.087
loop_
_symmetry_equiv_pos_site_id
_symmetry_equiv_pos_as_xyz
1 'x+1/2, y, -z+1/2'
2 'x, -y+1/2, z'
3 '-x+1/2, y+1/2, z+1/2'
4 '-x, -y, -z'
5 '-x+1/2, -y, z+1/2'
6 '-x, y+1/2, -z'
7 'x+1/2, -y+1/2, -z+1/2'
8 'x, y, z'
loop_
_atom_type_symbol
_atom_type_oxidation_number
Fe2+ 2
Zn2+ 2
P5+ 5
O2- -2
Na1+ 1
loop_
_atom_site_label
_atom_site_type_symbol
_atom_site_symmetry_multiplicity
_atom_site_Wyckoff_symbol
_atom_site_fract_x
_atom_site_fract_y
_atom_site_fract_z
_atom_site_B_iso_or_equiv
_atom_site_occupancy
_atom_site_attached_hydrogens
Fe1 Fe2+ 4 a 0 0 0 0.32 0.5 0
Zn1 Zn2+ 4 a 0 0 0 0.32 0.5 0
P1 P5+ 4 c 0.177 0.25 0.461 0.1 1. 0
O1 O2- 8 d 0.121 0.071 0.315 0.41 1. 0
O2 O2- 4 c 0.114 0.25 0.75 0.31 1. 0
O3 O2- 4 c 0.345 0.25 0.457 0.21 1. 0
Na1 Na1+ 4 c 0.352 0.25 0.969 0.45 1. 0
#End of TTdata_20065-ICSD