
#(C) 2019 by FIZ Karlsruhe - Leibniz Institute for Information Infrastructure.  All rights reserved.
data_200602-ICSD
_database_code_ICSD 200602
_audit_creation_date 1980-01-01
_audit_update_record 2015-02-01
_chemical_name_systematic
'Hexasodium manganese titanium hexakis(catena-silicate)'
_chemical_formula_structural 'Na6 Mn (Ti (Si O3)6)'
_chemical_formula_sum 'Mn1 Na6 O18 Si6 Ti1'
_chemical_name_structure_type Combeite(HT)
_chemical_name_mineral Kazakovite
_exptl_crystal_density_diffrn 2.97
_publ_section_title 'Crystal structure of kazakovite Na6 Mn (Ti (Si6 O18))'
loop_
_citation_id
_citation_journal_full
_citation_year
_citation_journal_volume
_citation_page_first
_citation_page_last
_citation_journal_id_ASTM
primary 'Doklady Akademii Nauk SSSR' 1979 245 106 109 DANKAS
loop_
_publ_author_name
'Voronkov, A.A.'
'Pudovkina, Z.V.'
'Blinov, V.A.'
'Ilyukhin, V.V.'
'Pyatenko, Yu.A.'
_cell_length_a 7.310(3)
_cell_length_b 7.310(3)
_cell_length_c 7.310(3)
_cell_angle_alpha 88.11(2)
_cell_angle_beta 88.11(2)
_cell_angle_gamma 88.11(2)
_cell_volume 389.99
_cell_formula_units_Z 1
_symmetry_space_group_name_H-M 'R -3 m R'
_symmetry_Int_Tables_number 166
_refine_ls_R_factor_all 0.054
loop_
_symmetry_equiv_pos_site_id
_symmetry_equiv_pos_as_xyz
1 '-z, -y, -x'
2 '-z, -x, -y'
3 '-x, -z, -y'
4 '-y, -z, -x'
5 '-y, -x, -z'
6 '-x, -y, -z'
7 'z, y, x'
8 'z, x, y'
9 'x, z, y'
10 'y, z, x'
11 'y, x, z'
12 'x, y, z'
loop_
_atom_type_symbol
_atom_type_oxidation_number
Ti4+ 4
Si4+ 4
Mn2+ 2
Na1+ 1
O2- -2
loop_
_atom_site_label
_atom_site_type_symbol
_atom_site_symmetry_multiplicity
_atom_site_Wyckoff_symbol
_atom_site_fract_x
_atom_site_fract_y
_atom_site_fract_z
_atom_site_B_iso_or_equiv
_atom_site_occupancy
_atom_site_attached_hydrogens
Ti1 Ti4+ 1 a 0 0 0 0.22(2) 1. 0
Si1 Si4+ 6 h 0.2791(1) 0.2791(1) 0.7348(2) 0.78(2) 1. 0
Mn1 Mn2+ 2 c 0.2438(3) 0.2438(3) 0.2438(3) 1.60(2) 0.5 0
Na1 Na1+ 3 d 0 0 0.5 1.59(2) 1. 0
Na2 Na1+ 3 e 0.5 0.5 0 2.08(2) 1. 0
O1 O2- 6 h 0.2133(5) 0.2133(5) 0.5472(8) 1.98(2) 1. 0
O2 O2- 6 h 0.1843(5) 0.1843(5) 0.9149(7) 1.46(2) 1. 0
O3 O2- 6 g 0.2416(5) 0.7584(5) 0.5 1.83(2) 1. 0
#End of TTdata_200602-ICSD