
#(C) 2019 by FIZ Karlsruhe - Leibniz Institute for Information Infrastructure.  All rights reserved.
data_200791-ICSD
_database_code_ICSD 200791
_audit_creation_date 1980-12-31
_chemical_name_systematic 'Trisodium discandium phosphate'
_chemical_formula_structural 'Na3 Sc2 (P O4)3'
_chemical_formula_sum 'Na3 O12 P3 Sc2'
_chemical_name_structure_type 'Nasicon high'
_exptl_crystal_density_diffrn 2.87
_publ_section_title 'Crystal structure of Na3 Sc2 (P O4)3 at 60 deg C'
loop_
_citation_id
_citation_journal_full
_citation_year
_citation_journal_volume
_citation_page_first
_citation_page_last
_citation_journal_id_ASTM
primary 'Doklady Akademii Nauk SSSR' 1980 250 861 864 DANKAS
loop_
_publ_author_name
'Lazoryak, B.I.'
'Kalinin, V.B.'
'Stefanovich, S.Yu.'
'Efremov, V.A.'
_cell_length_a 8.927(3)
_cell_length_b 8.927(3)
_cell_length_c 22.34(4)
_cell_angle_alpha 90.
_cell_angle_beta 90.
_cell_angle_gamma 120.
_cell_volume 1541.79
_cell_formula_units_Z 6
_symmetry_space_group_name_H-M 'R -3 c H'
_symmetry_Int_Tables_number 167
_refine_ls_R_factor_all 0.082
loop_
_symmetry_equiv_pos_site_id
_symmetry_equiv_pos_as_xyz
1 'x-y, -y, -z+1/2'
2 '-x, -x+y, -z+1/2'
3 'y, x, -z+1/2'
4 'x-y, x, -z'
5 'y, -x+y, -z'
6 '-x, -y, -z'
7 '-x+y, y, z+1/2'
8 'x, x-y, z+1/2'
9 '-y, -x, z+1/2'
10 '-x+y, -x, z'
11 '-y, x-y, z'
12 'x, y, z'
13 'x-y+2/3, -y+1/3, -z+5/6'
14 '-x+2/3, -x+y+1/3, -z+5/6'
15 'y+2/3, x+1/3, -z+5/6'
16 'x-y+2/3, x+1/3, -z+1/3'
17 'y+2/3, -x+y+1/3, -z+1/3'
18 '-x+2/3, -y+1/3, -z+1/3'
19 '-x+y+2/3, y+1/3, z+5/6'
20 'x+2/3, x-y+1/3, z+5/6'
21 '-y+2/3, -x+1/3, z+5/6'
22 '-x+y+2/3, -x+1/3, z+1/3'
23 '-y+2/3, x-y+1/3, z+1/3'
24 'x+2/3, y+1/3, z+1/3'
25 'x-y+1/3, -y+2/3, -z+1/6'
26 '-x+1/3, -x+y+2/3, -z+1/6'
27 'y+1/3, x+2/3, -z+1/6'
28 'x-y+1/3, x+2/3, -z+2/3'
29 'y+1/3, -x+y+2/3, -z+2/3'
30 '-x+1/3, -y+2/3, -z+2/3'
31 '-x+y+1/3, y+2/3, z+1/6'
32 'x+1/3, x-y+2/3, z+1/6'
33 '-y+1/3, -x+2/3, z+1/6'
34 '-x+y+1/3, -x+2/3, z+2/3'
35 '-y+1/3, x-y+2/3, z+2/3'
36 'x+1/3, y+2/3, z+2/3'
loop_
_atom_type_symbol
_atom_type_oxidation_number
Sc3+ 3
P5+ 5
O2- -2
Na1+ 1
loop_
_atom_site_label
_atom_site_type_symbol
_atom_site_symmetry_multiplicity
_atom_site_Wyckoff_symbol
_atom_site_fract_x
_atom_site_fract_y
_atom_site_fract_z
_atom_site_B_iso_or_equiv
_atom_site_occupancy
_atom_site_attached_hydrogens
Sc1 Sc3+ 12 c 0 0 0.1488(1) 0.63 1. 0
P1 P5+ 18 e 0.2947(2) 0 0.25 0.79 1. 0
O1 O2- 36 f 0.1847(3) -.0250(3) 0.1947(1) 2.4 1. 0
O2 O2- 36 f 0.4741(2) 0.1600(2) 0.2442(1) 1.3 1. 0
Na1 Na1+ 6 b 0 0 0 8.7 1. 0
Na2 Na1+ 18 e 0.3631(20) 0.3631(20) 0.25 3.2 0.667 0
#End of TTdata_200791-ICSD