
#(C) 2018 by FIZ Karlsruhe - Leibniz Institute for Information Infrastructure.  All rights reserved.
data_200891-ICSD
_database_code_ICSD 200891
_audit_creation_date 1981-12-31
_audit_update_record 2002-04-01
_chemical_name_systematic 'Lithium catena-borate'
_chemical_formula_structural 'Li (B O2)'
_chemical_formula_sum 'B1 Li1 O2'
_chemical_name_structure_type LiBO2
_exptl_crystal_density_diffrn 2.22
_publ_section_title 'Charge density distribution in Li B O2'
loop_
_citation_id
_citation_journal_full
_citation_year
_citation_journal_volume
_citation_page_first
_citation_page_last
_citation_journal_id_ASTM
primary 'Journal of the Less-Common Metals' 1981 82 255 267 JCOMAH
loop_
_publ_author_name
'Will, G.'
'Kirfel, A.'
'Josten, B.'
_cell_length_a 5.845(1)
_cell_length_b 4.353(1)
_cell_length_c 6.454(1)
_cell_angle_alpha 90.
_cell_angle_beta 115.09(1)
_cell_angle_gamma 90.
_cell_volume 148.72
_cell_formula_units_Z 4
_symmetry_space_group_name_H-M 'P 1 21/c 1'
_symmetry_Int_Tables_number 14
_refine_ls_R_factor_all 0.036
loop_
_symmetry_equiv_pos_site_id
_symmetry_equiv_pos_as_xyz
1 'x, -y+1/2, z+1/2'
2 '-x, -y, -z'
3 '-x, y+1/2, -z+1/2'
4 'x, y, z'
loop_
_atom_type_symbol
_atom_type_oxidation_number
Li1+ 1
B3+ 3
O2- -2
loop_
_atom_site_label
_atom_site_type_symbol
_atom_site_symmetry_multiplicity
_atom_site_Wyckoff_symbol
_atom_site_fract_x
_atom_site_fract_y
_atom_site_fract_z
_atom_site_B_iso_or_equiv
_atom_site_occupancy
_atom_site_attached_hydrogens
Li1 Li1+ 4 e 0.4331(3) 0.2145(3) 0.3441(2) . 1. 0
B1 B3+ 4 e 0.1244(1) 0.6754(2) 0.2724(1) . 1. 0
O1 O2- 4 e 0.0845(1) 0.3554(1) 0.2591(1) . 1. 0
O2 O2- 4 e 0.3546(1) 0.7745(1) 0.3170(1) . 1. 0
loop_
_atom_site_aniso_label
_atom_site_aniso_type_symbol
_atom_site_aniso_U_11
_atom_site_aniso_U_22
_atom_site_aniso_U_33
_atom_site_aniso_U_12
_atom_site_aniso_U_13
_atom_site_aniso_U_23
Li1 Li1+ 0.0119(5) 0.0153(6) 0.0191(6) 0.0005(4) 0.0072(5) 0.0001(5)
B1 B3+ 0.0090(2) 0.0065(2) 0.0138(2) -0.0001(2) 0.0051(2) -0.0001(2)
O1 O2- 0.0091(2) 0.0054(1) 0.0266(2) -0.0004(1) 0.0081(2) -0.0001(2)
O2 O2- 0.0081(2) 0.0093(1) 0.0152(2) -0.0015(1) 0.0055(1) -0.0009(1)
#End of TTdata_200891-ICSD