
#(C) 2019 by FIZ Karlsruhe - Leibniz Institute for Information Infrastructure.  All rights reserved.
data_200936-ICSD
_database_code_ICSD 200936
_audit_creation_date 1980-12-31
_audit_update_record 2013-02-01
_chemical_name_systematic 'Sodium zinc manganese boron oxide (2/2/1/4.7/11)'
_chemical_formula_structural 'Na2 Zn2 Mn B4.68 O11'
_chemical_formula_sum 'B4.68 Mn1 Na2 O11 Zn2'
_exptl_crystal_density_diffrn 3.64
_publ_section_title 'The crystal structure of Na2 Zn2 Mn B4.67 O11'
loop_
_citation_id
_citation_journal_full
_citation_year
_citation_journal_volume
_citation_page_first
_citation_page_last
_citation_journal_id_ASTM
primary Kristallografiya 1980 25 944 949 KRISAJ
loop_
_publ_author_name
'Bondareva, O.S.'
'Malinovskii, Yu.A.'
'Belov, N.V.'
_cell_length_a 4.972(1)
_cell_length_b 8.613(2)
_cell_length_c 19.513(7)
_cell_angle_alpha 90.
_cell_angle_beta 90.02(2)
_cell_angle_gamma 90.
_cell_volume 835.62
_cell_formula_units_Z 4
_symmetry_space_group_name_H-M 'C 1 c 1'
_symmetry_Int_Tables_number 9
_refine_ls_R_factor_all 0.084
loop_
_symmetry_equiv_pos_site_id
_symmetry_equiv_pos_as_xyz
1 'x, -y, z+1/2'
2 'x, y, z'
3 'x+1/2, -y+1/2, z+1/2'
4 'x+1/2, y+1/2, z'
loop_
_atom_type_symbol
_atom_type_oxidation_number
Zn2+ 2
Mn2+ 2
Na1+ 1
O2- -2
B3+ 3
loop_
_atom_site_label
_atom_site_type_symbol
_atom_site_symmetry_multiplicity
_atom_site_Wyckoff_symbol
_atom_site_fract_x
_atom_site_fract_y
_atom_site_fract_z
_atom_site_B_iso_or_equiv
_atom_site_occupancy
_atom_site_attached_hydrogens
Zn1 Zn2+ 4 a -.004(1) 0.3337(5) 0.1581(4) 0.43(6) 1. 0
Zn2 Zn2+ 4 a 0.496(1) 0.1671(5) 0.3441(4) 0.51(6) 1. 0
Mn1 Mn2+ 4 a 0 -.0015(9) 0.25 0.32(2) 1. 0
Na1 Na1+ 4 a -.009(2) 0.006(1) 0.0893(7) 0.7(2) 1. 0
Na2 Na1+ 4 a -.011(3) 0.008(1) 0.4129(8) 1.3(2) 1. 0
O1 O2- 4 a 0.039(3) 0.309(1) 0.0588(8) 2.0(2) 1. 0
O2 O2- 4 a 0.528(3) 0.145(2) 0.4441(8) 1.9(2) 1. 0
O3 O2- 4 a 0.117(3) 0.189(2) 0.3162(7) 0.3(2) 1. 0
O4 O2- 4 a 0.379(3) 0.316(2) 0.1756(8) 0.7(2) 1. 0
O5 O2- 4 a 0.159(3) 0.466(2) 0.3267(7) 0.4(2) 1. 0
O6 O2- 4 a 0.342(3) 0.037(2) 0.1864(7) 0.4(2) 1. 0
O7 O2- 4 a 0.774(3) 0.154(2) 0.1792(8) 0.1(2) 1. 0
O8 O2- 4 a 0.719(5) 0.349(3) 0.3173(1) 1.8(4) 1. 0
O9 O2- 4 a 0.085(3) 0.184(2) 0.5009(8) 2.0(2) 1. 0
O10 O2- 4 a 0.187(3) 0.447(2) 0.5012(8) 2.0(2) 1. 0
O11 O2- 4 a 0.237(4) 0.128(2) 0.0009(9) 2.3(3) 1. 0
B1 B3+ 4 a -.001(5) 0.332(3) 0.316(1) 0.4(4) 1. 0
B2 B3+ 4 a 0.497(4) 0.167(3) 0.177(1) 0.2(2) 1. 0
B3 B3+ 4 a 0.008(8) 0.336(2) 0.503(2) 0.3(2) 0.67 0
B4 B3+ 4 a 0.375(7) 0.129(4) 0.501(2) 0.3(4) 0.67 0
B5 B3+ 4 a 0.493(1) 0.244(3) 0.508(2) 1.9(6) 0.67 0
B6 B3+ 4 a 0.615 0.127 0.5 . 0.67 0
#End of TTdata_200936-ICSD