
#(C) 2019 by FIZ Karlsruhe - Leibniz Institute for Information Infrastructure.  All rights reserved.
data_200960-ICSD
_database_code_ICSD 200960
_audit_creation_date 1980-12-31
_audit_update_record 2013-02-01
_chemical_name_systematic 'Disodium sulfate(VI) antimony(III) trifluoride'
_chemical_formula_structural 'Na2 S O4 Sb F3'
_chemical_formula_sum 'F3 Na2 O4 S1 Sb1'
_exptl_crystal_density_diffrn 3.57
_publ_section_title

;
Sur un complexe bidendate ponte entre le sulfate de sodium et le trifluorure
d'antimoine
;
loop_
_citation_id
_citation_journal_full
_citation_year
_citation_journal_volume
_citation_page_first
_citation_page_last
_citation_journal_id_ASTM
primary 'Revue de Chimie Minerale' 1980 17 88 95 RVCMA8
loop_
_publ_author_name
'Bonnet, B.'
'Ducourant, M.B.'
'Fourcade, R.'
'Mascherpa, G.'
_cell_length_a 15.110(7)
_cell_length_b 7.155(4)
_cell_length_c 11.050(6)
_cell_angle_alpha 90.
_cell_angle_beta 90.
_cell_angle_gamma 90.
_cell_volume 1194.64
_cell_formula_units_Z 8
_symmetry_space_group_name_H-M 'C m c a'
_symmetry_Int_Tables_number 64
_refine_ls_R_factor_all 0.058
loop_
_symmetry_equiv_pos_site_id
_symmetry_equiv_pos_as_xyz
1 '-x, -y+1/2, z+1/2'
2 '-x, y+1/2, -z+1/2'
3 '-x, y, z'
4 '-x, -y, -z'
5 'x, y+1/2, -z+1/2'
6 'x, -y+1/2, z+1/2'
7 'x, -y, -z'
8 'x, y, z'
9 '-x+1/2, -y, z+1/2'
10 '-x+1/2, y, -z+1/2'
11 '-x+1/2, y+1/2, z'
12 '-x+1/2, -y+1/2, -z'
13 'x+1/2, y, -z+1/2'
14 'x+1/2, -y, z+1/2'
15 'x+1/2, -y+1/2, -z'
16 'x+1/2, y+1/2, z'
loop_
_atom_type_symbol
_atom_type_oxidation_number
Sb3+ 3
S6+ 6
Na1+ 1
F1- -1
O2- -2
loop_
_atom_site_label
_atom_site_type_symbol
_atom_site_symmetry_multiplicity
_atom_site_Wyckoff_symbol
_atom_site_fract_x
_atom_site_fract_y
_atom_site_fract_z
_atom_site_B_iso_or_equiv
_atom_site_occupancy
_atom_site_attached_hydrogens
Sb1 Sb3+ 8 f 0 0.11075(9) 0.16367(4) . 1. 0
S1 S6+ 8 d 0.1834(1) 0 0 . 1. 0
Na1 Na1+ 8 d 0.3823(2) 0 0 . 1. 0
Na2 Na1+ 8 e 0.25 0.2196(6) 0.25 . 1. 0
F1 F1- 8 f 0 0.1272(9) 0.6159(6) . 1. 0
F2 F1- 16 g 0.4099(2) 0.1876(8) 0.2199(4) . 1. 0
O1 O2- 16 g 0.1263(3) 0.6619(9) 0.4764(4) . 1. 0
O2 O2- 16 g 0.2391(3) 0.4663(7) 0.3932(4) . 1. 0
loop_
_atom_site_aniso_label
_atom_site_aniso_type_symbol
_atom_site_aniso_U_11
_atom_site_aniso_U_22
_atom_site_aniso_U_33
_atom_site_aniso_U_12
_atom_site_aniso_U_13
_atom_site_aniso_U_23
Sb1 Sb3+ 0.002 0.0099 0.0046 0 0 -.0017
S1 S6+ 0.0012 0.0093 0.001 0 0 0.0001
Na1 Na1+ 0.0023 0.0233 0.0384 0 0 0.016
Na2 Na1+ 0.0057 0.0125 0.0068 0 0.0018 0
F1 F1- 0.0031 0.0044 0.0235 0 0 0.0044
F2 F1- 0.0034 0.0288 0.0124 0.0039 -.0034 0.0039
O1 O2- 0.0031 0.0104 0.013 0.0034 -.0039 0.0001
O2 O2- 0.0042 0.0067 0.0037 -.001 0.0037 -.0022
#End of TTdata_200960-ICSD