
#(C) 2019 by FIZ Karlsruhe - Leibniz Institute for Information Infrastructure.  All rights reserved.
data_200928-ICSD
_database_code_ICSD 200928
_audit_creation_date 1980-12-31
_chemical_name_systematic 'Pentasodium terbium molybdate'
_chemical_formula_structural 'Na5 Tb (Mo O4)4'
_chemical_formula_sum 'Mo4 Na5 O16 Tb1'
_chemical_name_structure_type Na5Lu(WO4)4
_exptl_crystal_density_diffrn 4.07
_publ_section_title
'Structure of Na5 Tb (Mo O4)4, Na5 Lu (Mo O4)4, and Na5 Lu (W O4)4'
loop_
_citation_id
_citation_journal_full
_citation_year
_citation_journal_volume
_citation_page_first
_citation_page_last
_citation_journal_id_ASTM
primary Kristallografiya 1980 25 254 261 KRISAJ
loop_
_publ_author_name
'Efremov, V.A.'
'Berezina, T.A.'
'Averina, I.M.'
'Trunov, V.K.'
_cell_length_a 11.409(6)
_cell_length_b 11.409(6)
_cell_length_c 11.453(7)
_cell_angle_alpha 90.
_cell_angle_beta 90.
_cell_angle_gamma 90.
_cell_volume 1490.78
_cell_formula_units_Z 4
_symmetry_space_group_name_H-M 'I 41/a Z'
_symmetry_Int_Tables_number 88
_refine_ls_R_factor_all 0.032
loop_
_symmetry_equiv_pos_site_id
_symmetry_equiv_pos_as_xyz
1 '-y+3/4, x+3/4, -z+3/4'
2 'y+1/4, -x+3/4, -z+3/4'
3 'x, y+1/2, -z'
4 '-x, -y, -z'
5 'y+1/4, -x+1/4, z+1/4'
6 '-y+3/4, x+1/4, z+1/4'
7 '-x, -y+1/2, z'
8 'x, y, z'
9 '-y+1/4, x+1/4, -z+1/4'
10 'y+3/4, -x+1/4, -z+1/4'
11 'x+1/2, y, -z+1/2'
12 '-x+1/2, -y+1/2, -z+1/2'
13 'y+3/4, -x+3/4, z+3/4'
14 '-y+1/4, x+3/4, z+3/4'
15 '-x+1/2, -y, z+1/2'
16 'x+1/2, y+1/2, z+1/2'
loop_
_atom_type_symbol
_atom_type_oxidation_number
Mo6+ 6
Tb3+ 3
Na1+ 1
O2- -2
loop_
_atom_site_label
_atom_site_type_symbol
_atom_site_symmetry_multiplicity
_atom_site_Wyckoff_symbol
_atom_site_fract_x
_atom_site_fract_y
_atom_site_fract_z
_atom_site_B_iso_or_equiv
_atom_site_occupancy
_atom_site_attached_hydrogens
Mo1 Mo6+ 16 f 0.1807(1) 0.34419(10) 0.38818(10) 0.58 1. 0
Tb1 Tb3+ 4 a 0 0.25 0.125 0.47 1. 0
Na1 Na1+ 4 b 0 0.25 0.625 1.92 1. 0
Na2 Na1+ 16 f 0.1208(5) 0.0462(5) 0.3439(5) 1.18 1. 0
O1 O2- 16 f 0.1742(9) 0.4637(9) 0.4800(9) 1.31 1. 0
O2 O2- 16 f 0.1491(9) 0.2191(9) 0.4742(9) 1.29 1. 0
O3 O2- 16 f 0.0609(8) 0.3617(8) 0.2894(8) 0.86 1. 0
O4 O2- 16 f 0.3193(8) 0.3350(9) 0.3139(8) 0.9 1. 0
#End of TTdata_200928-ICSD