
#(C) 2018 by FIZ Karlsruhe - Leibniz Institute for Information Infrastructure.  All rights reserved.
data_200926-ICSD
_database_code_ICSD 200926
_audit_creation_date 1980-12-31
_audit_update_record 2005-10-01
_chemical_name_systematic 'Lithium indium bis(molybdate) - alpha, HT'
_chemical_formula_structural 'Li In (Mo O4)2'
_chemical_formula_sum 'In1 Li1 Mo2 O8'
_exptl_crystal_density_diffrn 4.15
_publ_section_title 'Crystal structure of high-temperature alpha-Li In (Mo O4)2'
loop_
_citation_id
_citation_journal_full
_citation_year
_citation_journal_volume
_citation_page_first
_citation_page_last
_citation_journal_id_ASTM
primary Kristallografiya 1980 25 165 168 KRISAJ
loop_
_publ_author_name
'Velikodnyi, Yu.A.'
'Efremova, V.A.'
'Trunov, V.K.'
_cell_length_a 7.137(1)
_cell_length_b 7.952(1)
_cell_length_c 12.843(2)
_cell_angle_alpha 90.
_cell_angle_beta 104.11(2)
_cell_angle_gamma 90.
_cell_volume 706.89
_cell_formula_units_Z 4
_symmetry_space_group_name_H-M 'P 1 21/c 1'
_symmetry_Int_Tables_number 14
_refine_ls_R_factor_all 0.023
loop_
_symmetry_equiv_pos_site_id
_symmetry_equiv_pos_as_xyz
1 'x, -y+1/2, z+1/2'
2 '-x, -y, -z'
3 '-x, y+1/2, -z+1/2'
4 'x, y, z'
loop_
_atom_type_symbol
_atom_type_oxidation_number
In3+ 3
Li1+ 1
Mo6+ 6
O2- -2
loop_
_atom_site_label
_atom_site_type_symbol
_atom_site_symmetry_multiplicity
_atom_site_Wyckoff_symbol
_atom_site_fract_x
_atom_site_fract_y
_atom_site_fract_z
_atom_site_B_iso_or_equiv
_atom_site_occupancy
_atom_site_attached_hydrogens
In1 In3+ 4 e 0.61999(8) 0.16038(8) 0.46815(4) 0.534(6) 1. 0
Li1 Li1+ 4 e 0.9605(14) 0.3441(26) 0.6418(14) 1.7(4) 1. 0
Mo1 Mo6+ 4 e 0.09508(12) 0.21016(12) 0.42387(6) 0.790(18) 1. 0
Mo2 Mo6+ 4 e 0.48311(12) 0.41131(10) 0.67307(6) 0.611(16) 1. 0
O1 O2- 4 e -.0094(10) 0.1370(12) 0.2987(6) 1.88(22) 1. 0
O2 O2- 4 e 0.1299(10) 0.4208(10) 0.4100(6) 1.98(24) 1. 0
O3 O2- 4 e -.0761(8) 0.1837(10) 0.5059(4) 0.99(18) 1. 0
O4 O2- 4 e 0.3274(8) 0.0944(8) 0.4692(4) 0.72(16) 1. 0
O5 O2- 4 e 0.2568(10) 0.3216(10) 0.6476(6) 1.57(20) 1. 0
O6 O2- 4 e 0.4587(10) 0.6095(8) 0.6111(5) 1.58(20) 1. 0
O7 O2- 4 e 0.5776(10) 0.4396(10) 0.8118(6) 1.26(20) 1. 0
O8 O2- 4 e 0.6417(10) 0.2799(8) 0.6191(4) 0.91(16) 1. 0
#End of TTdata_200926-ICSD