
#(C) 2019 by FIZ Karlsruhe - Leibniz Institute for Information Infrastructure.  All rights reserved.
data_201065-ICSD
_database_code_ICSD 201065
_audit_creation_date 1982-12-31
_chemical_name_systematic 'Disodium sulfide nonakis(dideuteriohydrate)'
_chemical_formula_structural 'Na2 S (D2 O)9'
_chemical_formula_sum 'D18 Na2 O9 S1'
_chemical_name_structure_type Na2S(H2O)9
_exptl_crystal_density_diffrn 1.54
_cell_measurement_temperature 295.
_publ_section_title

;
Hydrogen bonds in Na2 S (D2 O)9: Neutron diffraction, x-ray diffraction and
vibrational spectroscopic studies
;
loop_
_citation_id
_citation_journal_full
_citation_year
_citation_journal_volume
_citation_page_first
_citation_page_last
_citation_journal_id_ASTM
primary 'Inorganica Chimica Acta' 1982 57 237 246 ICHAA3
loop_
_publ_author_name
'Preisinger, A.'
'Mereiter, K.'
'Baumgartner, O.'
'Heger, G.'
'Mikenda, W.'
'Steidl, H.'
_cell_length_a 9.337(1)
_cell_length_b 9.337(1)
_cell_length_c 12.783(2)
_cell_angle_alpha 90.
_cell_angle_beta 90.
_cell_angle_gamma 90.
_cell_volume 1114.42
_cell_formula_units_Z 4
_symmetry_space_group_name_H-M 'P 43 2 2'
_symmetry_Int_Tables_number 95
_refine_ls_R_factor_all 0.025
loop_
_symmetry_equiv_pos_site_id
_symmetry_equiv_pos_as_xyz
1 '-y, -x, -z+3/4'
2 'y, x, -z+1/4'
3 'x, -y, -z+1/2'
4 '-x, y, -z'
5 'y, -x, z+1/4'
6 '-y, x, z+3/4'
7 '-x, -y, z+1/2'
8 'x, y, z'
loop_
_atom_type_symbol
_atom_type_oxidation_number
Na1+ 1
S2- -2
O2- -2
D1+ 1
loop_
_atom_site_label
_atom_site_type_symbol
_atom_site_symmetry_multiplicity
_atom_site_Wyckoff_symbol
_atom_site_fract_x
_atom_site_fract_y
_atom_site_fract_z
_atom_site_B_iso_or_equiv
_atom_site_occupancy
_atom_site_attached_hydrogens
Na1 Na1+ 4 b 0.5 0.30661(9) 0 . 1. 0
Na2 Na1+ 4 a 0.14697(10) 0 0.75 . 1. 0
S1 S2- 4 b 0.5 0.18840(6) 0.5 . 1. 0
O1 O2- 4 c 0.4987(1) 0.4987(1) 0.125 . 1. 0
O2 O2- 8 d 0.1876(1) 0.9905(1) 0.5504(1) . 1. 0
O3 O2- 8 d 0.4657(1) 0.1177(1) 0.1240(1) . 1. 0
O4 O2- 8 d 0.3302(1) 0.1817(1) 0.7294(1) . 1. 0
O5 O2- 8 d 0.2995(1) 0.2378(1) 0.2818(1) . 1. 0
D1 D1+ 8 d 0.4973 0.5855 0.0848 0.055 1. 0
D2 D1+ 8 d 0.1999 0.8916 0.5319 0.055 1. 0
D3 D1+ 8 d 0.2726 0.0412 0.5302 0.055 1. 0
D4 D1+ 8 d 0.4713 0.0248 0.0922 0.055 1. 0
D5 D1+ 8 d 0.5455 0.1275 0.1709 0.055 1. 0
D6 D1+ 8 d 0.3034 0.2796 0.7414 0.055 1. 0
D7 D1+ 8 d 0.3788 0.1768 0.6633 0.055 1. 0
D8 D1+ 8 d 0.3438 0.1857 0.2258 0.055 1. 0
D9 D1+ 8 d 0.358 0.227 0.3451 0.055 1. 0
loop_
_atom_site_aniso_label
_atom_site_aniso_type_symbol
_atom_site_aniso_U_11
_atom_site_aniso_U_22
_atom_site_aniso_U_33
_atom_site_aniso_U_12
_atom_site_aniso_U_13
_atom_site_aniso_U_23
Na1 Na1+ 0.0346(5) 0.0245(4) 0.0304(6) 0 -.0015(5) 0
Na2 Na1+ 0.0288(6) 0.0271(5) 0.0436(7) 0 0 0.0051(6)
S1 S2- 0.0239(3) 0.0208(3) 0.0243(4) 0 0.0022(3) 0
O1 O2- 0.0294(5) 0.0294(5) 0.0282(7) 0.0012(12) -.0004(6) 0.0004(6)
O2 O2- 0.0382(7) 0.0282(7) 0.0575(9) 0.0058(8) -.0023(8) -.0060(8)
O3 O2- 0.0366(8) 0.0316(7) 0.0302(9) 0.0016(6) -.0030(7) -.0026(7)
O4 O2- 0.0334(7) 0.0273(7) 0.0316(8) 0.0007(6) -.0012(7) 0.0039(7)
O5 O2- 0.0279(7) 0.0398(8) 0.0401(10) 0.0035(6) 0.0000(7) -.0032(7)
#End of TTdata_201065-ICSD