
#(C) 2019 by FIZ Karlsruhe - Leibniz Institute for Information Infrastructure.  All rights reserved.
data_2014-ICSD
_database_code_ICSD 2014
_audit_creation_date 1980-01-01
_audit_update_record 2012-02-01
_chemical_name_systematic 'Sodium dihydrogenphosphate(V)'
_chemical_formula_structural 'Na (H2 P O4)'
_chemical_formula_sum 'H2 Na1 O4 P1'
_chemical_name_structure_type NaH2PO4
_exptl_crystal_density_diffrn 2.37
_publ_section_title

;
Hydrogen bonding in the cristalline state. Na H2 P O4, a crystal structure
with a short asymmetrical hydrogen bond
;
loop_
_citation_id
_citation_journal_full
_citation_year
_citation_journal_volume
_citation_page_first
_citation_page_last
_citation_journal_id_ASTM
primary

;
Acta Crystallographica, Section B: Structural Crystallography and Crystal
Chemistry
; 1974 30 1 6 ACBCAR
loop_
_publ_author_name
'Catti, M.'
'Ferraris, G.'
_cell_length_a 6.808(2)
_cell_length_b 13.491(3)
_cell_length_c 7.331(2)
_cell_angle_alpha 90.
_cell_angle_beta 92.88(3)
_cell_angle_gamma 90.
_cell_volume 672.48
_cell_formula_units_Z 8
_symmetry_space_group_name_H-M 'P 1 21/c 1'
_symmetry_Int_Tables_number 14
_refine_ls_R_factor_all 0.028
loop_
_symmetry_equiv_pos_site_id
_symmetry_equiv_pos_as_xyz
1 'x, -y+1/2, z+1/2'
2 '-x, -y, -z'
3 '-x, y+1/2, -z+1/2'
4 'x, y, z'
loop_
_atom_type_symbol
_atom_type_oxidation_number
P5+ 5
Na1+ 1
O2- -2
H1+ 1
loop_
_atom_site_label
_atom_site_type_symbol
_atom_site_symmetry_multiplicity
_atom_site_Wyckoff_symbol
_atom_site_fract_x
_atom_site_fract_y
_atom_site_fract_z
_atom_site_B_iso_or_equiv
_atom_site_occupancy
_atom_site_attached_hydrogens
P1 P5+ 4 e 0.33026(5) 0.36906(3) 0.85743(5) . 1. 0
P2 P5+ 4 e 0.82695(6) 0.36970(3) 0.51330(5) . 1. 0
Na1 Na1+ 4 e 0.8593(1) 0.40131(5) 0.0017(1) . 1. 0
Na2 Na1+ 4 e 0.3511(1) 0.39544(6) 0.2694(1) . 1. 0
O1 O2- 4 e 0.2483(2) 0.2772(1) 0.7669(2) . 1. 0
O2 O2- 4 e 0.5227(2) 0.3398(1) 0.9776(2) . 1. 0
O3 O2- 4 e 0.2013(2) 0.4274(1) 0.9767(2) . 1. 0
O4 O2- 4 e 0.4076(2) 0.4429(1) 0.7097(2) . 1. 0
O5 O2- 4 e 0.9216(2) 0.2695(1) 0.5790(2) . 1. 0
O6 O2- 4 e 0.8534(2) 0.4473(1) 0.6622(2) . 1. 0
O7 O2- 4 e 0.9315(2) 0.4027(1) 0.3396(2) . 1. 0
O8 O2- 4 e 0.6124(2) 0.3466(1) 0.4673(2) . 1. 0
H1 H1+ 4 e 0.537(5) 0.281(3) 0.970(4) 1.5 1. 0
H2 H1+ 4 e 0.486(4) 0.411(2) 0.641(4) 0.9 1. 0
H3 H1+ 4 e 0.032(6) 0.274(3) 0.635(5) 1.7 1. 0
H4 H1+ 4 e 0.979(5) 0.452(3) 0.351(5) 1.1 1. 0
loop_
_atom_site_aniso_label
_atom_site_aniso_type_symbol
_atom_site_aniso_B_11
_atom_site_aniso_B_22
_atom_site_aniso_B_33
_atom_site_aniso_B_12
_atom_site_aniso_B_13
_atom_site_aniso_B_23
P1 P5+ 0.91(1) 0.90(1) 1.20(1) -.15(1) -.07(1) 0.02(1)
P2 P5+ 1.12(2) 0.83(1) 1.17(1) 0.27(1) -.16(1) -.04(1)
Na1 Na1+ 1.41(3) 1.30(2) 2.32(3) 0.07(2) -.06(2) -.05(2)
Na2 Na1+ 2.69(3) 2.18(3) 1.77(3) -.56(2) -.73(2) 0.10(2)
O1 O2- 1.53(5) 1.38(4) 2.00(5) -.15(4) -.52(4) 0.42(4)
O2 O2- 1.22(4) 0.99(4) 2.17(5) -.19(3) -.56(3) 0.02(4)
O3 O2- 1.24(4) 1.33(4) 1.48(4) -.26(3) 0.08(3) 0.14(3)
O4 O2- 2.25(5) 1.52(5) 1.99(5) -.49(4) 0.72(4) -.55(4)
O5 O2- 1.58(5) 1.16(4) 2.29(5) 0.13(4) -.67(4) -.31(4)
O6 O2- 1.71(5) 1.62(5) 1.30(4) 0.64(4) 0.18(3) 0.37(3)
O7 O2- 2.34(5) 1.10(4) 1.46(4) 0.43(4) 0.54(4) 0.25(3)
O8 O2- 1.24(4) 1.16(4) 1.66(4) 0.23(3) -.30(3) -.07(3)
#End of TTdata_2014-ICSD