
#(C) 2019 by FIZ Karlsruhe - Leibniz Institute for Information Infrastructure.  All rights reserved.
data_201597-ICSD
_database_code_ICSD 201597
_audit_creation_date 1985-07-17
_audit_update_record 2013-02-01
_chemical_name_systematic 'Sodium uranyl diphosphate'
_chemical_formula_structural 'Na2 U O2 P2 O7'
_chemical_formula_sum 'Na2 O9 P2 U1'
_exptl_crystal_density_diffrn 4.33
_publ_section_title

;
The synthesis and structure of crystals of sodium uranyl pyrophosphate Na2 U
O2 P2 O7
;
loop_
_citation_id
_citation_journal_full
_citation_year
_citation_journal_volume
_citation_page_first
_citation_page_last
_citation_journal_id_ASTM
primary 'Zhurnal Neorganicheskoi Khimii' 1984 29 1533 1537 ZNOKAQ
loop_
_publ_author_name
'Linde, S.A.'
'Gorbunova, Yu.E.'
'Lavrov, A.V.'
'Pobedina, A.B.'
_cell_length_a 13.259(2)
_cell_length_b 8.127(2)
_cell_length_c 6.973(1)
_cell_angle_alpha 90.
_cell_angle_beta 90.
_cell_angle_gamma 90.
_cell_volume 751.38
_cell_formula_units_Z 4
_symmetry_space_group_name_H-M 'P n a 21'
_symmetry_Int_Tables_number 33
_refine_ls_R_factor_all 0.033
loop_
_symmetry_equiv_pos_site_id
_symmetry_equiv_pos_as_xyz
1 'x+1/2, -y+1/2, z'
2 '-x+1/2, y+1/2, z+1/2'
3 '-x, -y, z+1/2'
4 'x, y, z'
loop_
_atom_type_symbol
_atom_type_oxidation_number
U6+ 6
Na1+ 1
P5+ 5
O2- -2
loop_
_atom_site_label
_atom_site_type_symbol
_atom_site_symmetry_multiplicity
_atom_site_Wyckoff_symbol
_atom_site_fract_x
_atom_site_fract_y
_atom_site_fract_z
_atom_site_B_iso_or_equiv
_atom_site_occupancy
_atom_site_attached_hydrogens
U1 U6+ 4 a 0.20124(3) 0.2488(1) 0.25 . 1. 0
Na1 Na1+ 4 a 0.3391(5) 0.2300(9) 0.770(4) . 1. 0
Na2 Na1+ 4 a 0.019(1) -.015(3) -.004(4) . 1. 0
P1 P5+ 4 a 0.6004(3) 0.2125(5) 0.749(2) . 1. 0
P2 P5+ 4 a 0.4241(4) 0.1523(6) 0.244(2) . 1. 0
O1 O2- 4 a 0.7275(8) 0.039(1) 0.269(4) 0.8(2) 1. 0
O2 O2- 4 a 0.1559(8) 0.032(1) 0.274(3) 0.9(2) 1. 0
O3 O2- 4 a 0.0228(7) 0.253(2) 0.270(3) 0.9(2) 1. 0
O4 O2- 4 a 0.6693(9) 0.226(2) 0.924(2) 0.5(2) 1. 0
O5 O2- 4 a 0.5437(8) 0.036(1) 0.770(4) 0.8(2) 1. 0
O6 O2- 4 a 0.356(1) 0.182(2) 0.078(3) 2.2(3) 1. 0
O7 O2- 4 a 0.0143(8) 0.167(1) 0.741(4) 0.7(2) 1. 0
O8 O2- 4 a 0.3598(8) 0.196(1) 0.425(2) 0.1(2) 1. 0
O9 O2- 4 a 0.658(1) 0.221(2) 0.568(2) 1.7(3) 1. 0
loop_
_atom_site_aniso_label
_atom_site_aniso_type_symbol
_atom_site_aniso_B_11
_atom_site_aniso_B_22
_atom_site_aniso_B_33
_atom_site_aniso_B_12
_atom_site_aniso_B_13
_atom_site_aniso_B_23
U1 U6+ 0.36(1) 0.28(1) 0.47(1) 0.02(3) 0.15(7) -.10(9)
Na1 Na1+ 1.5(2) 1.1(3) 0.5(4) -.5(2) 0.6(5) -.5(5)
Na2 Na1+ 5.90(11) 1.9(7) 1.4(5) -.7(7) 0.7(7) 0.8(5)
P1 P5+ 0.7(1) 0.4(2) 0.5(2) -.1(1) -0.5(3) -.1(3)
P2 P5+ 0.3(1) 0.2(1) 0.4(2) 0.05(9) 0.3(3) 0.1(3)
#End of TTdata_201597-ICSD