
#(C) 2018 by FIZ Karlsruhe - Leibniz Institute for Information Infrastructure.  All rights reserved.
data_201530-ICSD
_database_code_ICSD 201530
_audit_creation_date 1985-07-17
_audit_update_record 1985-07-27
_chemical_name_systematic 'Dilithium sulfate monohydrate'
_chemical_formula_structural 'Li2 S O4 (H2 O)'
_chemical_formula_sum 'H2 Li2 O5 S1'
_chemical_name_structure_type Li2SO4H2O
_exptl_crystal_density_diffrn 2.05
_cell_measurement_temperature 293.
_publ_section_title

;
Neutron diffraction structural study of pyroelectric Li2 S O4*H2 O at 293,80,
and 20 K
;
loop_
_citation_id
_citation_journal_full
_citation_year
_citation_journal_volume
_citation_page_first
_citation_page_last
_citation_journal_id_ASTM
primary 'Journal of Chemical Physics' 1984 80 423 430 JCPSA6
loop_
_publ_author_name
'Lundgren, J.O.'
'Kvick, A.'
'Karppinen, M.'
'Liminga, R.'
'Abrahams, S.C.'
_cell_length_a 5.450(3)
_cell_length_b 4.872(3)
_cell_length_c 8.164(4)
_cell_angle_alpha 90.
_cell_angle_beta 107.31(3)
_cell_angle_gamma 90.
_cell_volume 206.96
_cell_formula_units_Z 2
_symmetry_space_group_name_H-M 'P 1 21 1'
_symmetry_Int_Tables_number 4
_refine_ls_R_factor_all 0.022
loop_
_symmetry_equiv_pos_site_id
_symmetry_equiv_pos_as_xyz
1 '-x, y+1/2, -z'
2 'x, y, z'
loop_
_atom_type_symbol
_atom_type_oxidation_number
Li1+ 1
S6+ 6
O2- -2
H1+ 1
loop_
_atom_site_label
_atom_site_type_symbol
_atom_site_symmetry_multiplicity
_atom_site_Wyckoff_symbol
_atom_site_fract_x
_atom_site_fract_y
_atom_site_fract_z
_atom_site_B_iso_or_equiv
_atom_site_occupancy
_atom_site_attached_hydrogens
Li1 Li1+ 2 a 0.30383(23) 0.49536(34) 0.99414(15) . 1. 0
Li2 Li1+ 2 a 0.56188(24) 0.48807(36) 0.39535(16) . 1. 0
S1 S6+ 2 a 0.29398(14) 0 0.20840(9) . 1. 0
O1 O2- 2 a 0.02212(8) 0.06875(21) 0.16964(6) . 1. 0
O2 O2- 2 a 0.43483(8) 0.11148(21) 0.37829(5) . 1. 0
O3 O2- 2 a 0.39987(8) 0.12203(21) 0.07868(5) . 1. 0
O4 O2- 2 a 0.32983(9) 0.69954(19) 0.21036(5) . 1. 0
O5 O2- 2 a 0.91086(14) 0.4769(5) 0.39486(21) . 1. 0
H1 H1+ 2 a 0.96561(34) 0.3969(11) 0.30815(20) . 1. 0
H2 H1+ 2 a -.00028(41) 0.63493(65) 0.42811(55) . 1. 0
loop_
_atom_site_aniso_label
_atom_site_aniso_type_symbol
_atom_site_aniso_U_11
_atom_site_aniso_U_22
_atom_site_aniso_U_33
_atom_site_aniso_U_12
_atom_site_aniso_U_13
_atom_site_aniso_U_23
Li1 Li1+ 0.01850(47) 0.01726(55) 0.01732(45) 0.00048(44) 0.00495(38) 0.00167(45)
Li2 Li1+ 0.02012(48) 0.01759(60) 0.01690(44) 0.00031(44) 0.00254(37) 0.00031(45)
S1 S6+ 0.01145(28) 0.00993(32) 0.01034(28) 0.00022(25) 0.00211(22) 0.00021(25)
O1 O2- 0.01264(15) 0.02777(28) 0.02126(17) 0.00268(16) 0.00199(13) -.00377(17)
O2 O2- 0.02068(16) 0.01555(18) 0.01186(14) -.00294(17) 0.00124(12) -.00144(15)
O3 O2- 0.02323(18) 0.01634(20) 0.01754(16) 0.00321(17) 0.01076(14) 0.00446(16)
O4 O2- 0.02656(21) 0.01052(18) 0.01528(17) 0.00106(16) 0.00321(14) 0.00022(14)
O5 O2- 0.02520(25) 0.04272(41) 0.04706(35) -.00295(25) 0.01783(25) -.0109(3)
H1 H1+ 0.05113(72) 0.1163(22) 0.05408(72) 0.01688(94) 0.02845(63) -.01057(97)
H2 H1+ 0.04917(79) 0.0644(12) 0.1295(22) -.02236(91) 0.0273(10) -.00945
#End of TTdata_201530-ICSD