
#(C) 2019 by FIZ Karlsruhe - Leibniz Institute for Information Infrastructure.  All rights reserved.
data_201649-ICSD
_database_code_ICSD 201649
_audit_creation_date 1985-07-17
_audit_update_record 2015-02-01
_chemical_name_systematic 'Sodium tecto-alumotrisilicate'
_chemical_formula_structural 'Na Al0.91 Si3 O8'
_chemical_formula_sum 'Al0.91 Na1 O8 Si3'
_chemical_name_structure_type Feldspar#-(TC)-Albite-NaAlSi3O8
_chemical_name_mineral 'Albite low'
_exptl_crystal_density_diffrn 2.6
_publ_section_title 'Analysis of P1-, I1-, and C1- plagioclase structures'
loop_
_citation_id
_citation_journal_full
_citation_year
_citation_journal_volume
_citation_page_first
_citation_page_last
_citation_journal_id_ASTM
primary 'Bulletin de Mineralogie' 1984 107 467 487 BULMD9
loop_
_publ_author_name
'Wenk, H.R.'
'Kroll, H.'
_cell_length_a 8.1354(7)
_cell_length_b 12.7852(7)
_cell_length_c 7.1582(7)
_cell_angle_alpha 94.274(6)
_cell_angle_beta 116.600(5)
_cell_angle_gamma 87.685(6)
_cell_volume 663.87
_cell_formula_units_Z 4
_symmetry_space_group_name_H-M 'C -1'
_symmetry_Int_Tables_number 2
_refine_ls_R_factor_all 0.0266
loop_
_symmetry_equiv_pos_site_id
_symmetry_equiv_pos_as_xyz
1 '-x, -y, -z'
2 'x, y, z'
3 '-x+1/2, -y+1/2, -z'
4 'x+1/2, y+1/2, z'
loop_
_atom_type_symbol
_atom_type_oxidation_number
Na1+ 1
Si4+ 4
Al3+ 3
Si4+ 4
Al3+ 3
Si4+ 4
O2- -2
loop_
_atom_site_label
_atom_site_type_symbol
_atom_site_symmetry_multiplicity
_atom_site_Wyckoff_symbol
_atom_site_fract_x
_atom_site_fract_y
_atom_site_fract_z
_atom_site_B_iso_or_equiv
_atom_site_occupancy
_atom_site_attached_hydrogens
Na1 Na1+ 4 i 0.2670(2) 0.9879(2) 0.1460(3) . 0.621(7) 0
Na2 Na1+ 4 i 0.282(2) 0.014(2) 0.142(4) . 0.359(1) 0
Si1 Si4+ 4 i 0.00885(6) 0.16843(3) 0.20810(6) . 0.1(1) 0
Al1 Al3+ 4 i 0.00885(6) 0.16843(3) 0.20810(6) . 0.86(11) 0
Si2 Si4+ 4 i 0.00383(5) 0.82064(3) 0.23733(5) . 0.93(10) 0
Al2 Al3+ 4 i 0.00383(5) 0.82064(3) 0.23733(5) . 0.05(11) 0
Si3 Si4+ 4 i 0.69168(5) 0.11027(3) 0.31478(6) . 1. 0
Si4 Si4+ 4 i 0.68139(5) 0.88194(3) 0.36077(6) . 0.97(10) 0
O1 O2- 4 i 0.00445(14) 0.13086(8) -.03341(15) . 1. 0
O2 O2- 4 i 0.59170(13) 0.99748(8) 0.28022(15) . 1. 0
O3 O2- 4 i 0.81223(14) 0.11008(9) 0.18994(17) . 1. 0
O4 O2- 4 i 0.82038(15) 0.85108(9) 0.25869(19) . 1. 0
O5 O2- 4 i 0.01304(14) 0.30236(8) 0.27027(16) . 1. 0
O6 O2- 4 i 0.02383(14) 0.69372(8) 0.22945(16) . 1. 0
O7 O2- 4 i 0.20750(14) 0.10874(9) 0.38895(15) . 1. 0
O8 O2- 4 i 0.18396(15) 0.86805(9) 0.43611(16) . 1. 0
loop_
_atom_site_aniso_label
_atom_site_aniso_type_symbol
_atom_site_aniso_beta_11
_atom_site_aniso_beta_22
_atom_site_aniso_beta_33
_atom_site_aniso_beta_12
_atom_site_aniso_beta_13
_atom_site_aniso_beta_23
Na1 Na1+ 0.0026(7) 0.0048(5) 0.0141(7) -.0011(2) 0.0033(5) -.0046(4)
Na2 Na1+ 0.0007(10) 0.0104(12) 0.0190(21) 0.0027(7) 0.0050(8) 0.0100(13)
Si1 Si4+ 0.0024(1) 0.0007(1) 0.0025(1) -.0002(1) 0.0012(1) 0.00002(3)
Al1 Al3+ 0.0024(1) 0.0007(1) 0.0025(1) -.0002(1) 0.0012(1) 0.00002(3)
Si2 Si4+ 0.0021(1) 0.00007(1) 0.0020(1) 0.0002(1) 0.0010(1) 0.00009(2)
Al2 Al3+ 0.0021(1) 0.00007(1) 0.0020(1) 0.0002(1) 0.0010(1) 0.00009(2)
Si3 Si4+ 0.0019(5) 0.0006(1) 0.0032(1) -.00005(2) 0.0009(1) 0.00001(2)
Si4 Si4+ 0.0018(1) 0.0006(1) 0.0031(1) 0.0001(1) 0.0010(1) 0.0001(2)
O1 O2- 0.0064(2) 0.0016(1) 0.0041(2) -.00009(7) 0.0031(1) 0.0002(1)
O2 O2- 0.0032(1) 0.0009(1) 0.0062(2) 0.00002(6) 0.0016(1) 0.0003(1)
O3 O2- 0.0048(1) 0.0018(1) 0.0083(2) -.0009(1) 0.0042(1) -.0005(1)
O4 O2- 0.0052(2) 0.0023(1) 0.0110(2) 0.0010(1) 0.0056(2) 0.0004(1)
O5 O2- 0.0044(1) 0.0011(1) 0.0076(2) -.0005(1) 0.0025(1) -.0004(1)
O6 O2- 0.0041(1) 0.0010(1) 0.0075(2) 0.0004(1) 0.0018(1) 0.0002(1)
O7 O2- 0.0050(1) 0.0017(1) 0.0042(2) 0.0005(1) 0.0008(1) 0.0003(1)
O8 O2- 0.0057(2) 0.0018(1) 0.0045(2) -.0005(1) 0.0002(1) -.0004(1)
#End of TTdata_201649-ICSD