
#(C) 2019 by FIZ Karlsruhe - Leibniz Institute for Information Infrastructure.  All rights reserved.
data_201644-ICSD
_database_code_ICSD 201644
_audit_creation_date 1985-07-17
_audit_update_record 1999-06-02
_chemical_name_systematic 'Calcium sodium tecto-alumosilicate *'
_chemical_formula_structural '(Ca.94 Na.06) Al2 Si2 O8'
_chemical_formula_sum 'Al2 Ca0.94 Na0.06 O8 Si2'
_chemical_name_structure_type Feldspar#-(TC,P1-,i52)-Anorthite
_chemical_name_mineral Anorthite
_exptl_crystal_density_diffrn 2.75
_publ_section_title 'Analysis of P1-, I1-, and C1- plagioclase structures'
loop_
_citation_id
_citation_journal_full
_citation_year
_citation_journal_volume
_citation_page_first
_citation_page_last
_citation_journal_id_ASTM
primary 'Bulletin de Mineralogie' 1984 107 467 487 BULMD9
loop_
_publ_author_name
'Wenk, H.R.'
'Kroll, H.'
_cell_length_a 8.1784(7)
_cell_length_b 12.8736(8)
_cell_length_c 14.1766(12)
_cell_angle_alpha 93.187(5)
_cell_angle_beta 115.938(5)
_cell_angle_gamma 91.142(5)
_cell_volume 1338.53
_cell_formula_units_Z 8
_symmetry_space_group_name_H-M 'P -1'
_symmetry_Int_Tables_number 2
_refine_ls_R_factor_all 0.0285
loop_
_symmetry_equiv_pos_site_id
_symmetry_equiv_pos_as_xyz
1 '-x, -y, -z'
2 'x, y, z'
loop_
_atom_type_symbol
_atom_type_oxidation_number
Ca2+ 2
Na1+ 1
Ca2+ 2
Na1+ 1
Ca2+ 2
Na1+ 1
Ca2+ 2
Na1+ 1
Si4+ 4
Al3+ 3
Si4+ 4
Al3+ 3
Si4+ 4
Al3+ 3
O2- -2
Ca2+ 2
Na1+ 1
Ca2+ 2
Na1+ 1
Ca2+ 2
Na1+ 1
Ca2+ 2
Na1+ 1
Si4+ 4
Al3+ 3
Si4+ 4
Al3+ 3
Si4+ 4
Al3+ 3
O2- -2
loop_
_atom_site_label
_atom_site_type_symbol
_atom_site_symmetry_multiplicity
_atom_site_Wyckoff_symbol
_atom_site_fract_x
_atom_site_fract_y
_atom_site_fract_z
_atom_site_B_iso_or_equiv
_atom_site_occupancy
_atom_site_attached_hydrogens
Ca1 Ca2+ 2 i 0.26569(14) 0.98400(9) 0.08788(9) . 0.66 0
Na1 Na1+ 2 i 0.26569(14) 0.98400(9) 0.08788(9) . 0.04 0
Ca2 Ca2+ 2 i 0.2729(5) 0.0275(4) 0.0513(3) . 0.24 0
Na2 Na1+ 2 i 0.2729(5) 0.0275(4) 0.0513(3) . 0.02 0
Ca3 Ca2+ 2 i 0.2666(20) 0.0177(12) 0.5644(11) . 0.17 0
Na3 Na1+ 2 i 0.2666(20) 0.0177(12) 0.5644(11) . 0.01 0
Ca4 Ca2+ 2 i 0.2681(4) 0.0308(2) 0.5435(2) . 0.76 0
Na4 Na1+ 2 i 0.2681(4) 0.0308(2) 0.5435(2) . 0.05 0
Si1 Si4+ 2 i 0.00842(12) 0.15890(6) 0.10407(7) . 1. 0
Al1 Al3+ 2 i 0.00517(12) 0.16241(7) 0.61142(7) . 1. 0
Al2 Al3+ 2 i 0.00571(12) 0.18476(7) 0.88166(7) . 1. 0
Si2 Si4+ 2 i 0.99407(12) 0.18369(6) 0.38675(7) . 1. 0
Al3 Al3+ 2 i 0.68558(12) 0.11272(7) 0.15344(7) . 1. 0
Si3 Si4+ 2 i 0.68007(12) 0.10455(6) 0.66269(7) . 1. 0
Si4 Si4+ 2 i 0.32489(12) 0.11724(6) 0.81420(7) . 1. 0
Al4 Al3+ 2 i 0.31815(13) 0.12677(7) 0.32619(7) . 1. 0
O1 O2- 2 i 0.0211(3) 0.1252(2) 0.9945(2) . 1. 0
O2 O2- 2 i 0.9840(3) 0.1256(2) 0.4847(2) . 1. 0
O3 O2- 2 i 0.5759(3) 0.9908(2) 0.1423(2) . 1. 0
O4 O2- 2 i 0.5723(3) 0.9904(2) 0.6377(2) . 1. 0
O5 O2- 2 i 0.8162(3) 0.1012(2) 0.0834(2) . 1. 0
O6 O2- 2 i 0.8086(3) 0.0982(2) 0.6022(2) . 1. 0
O7 O2- 2 i 0.8151(3) 0.8544(2) 0.1392(2) . 1. 0
O8 O2- 2 i 0.8139(3) 0.8535(2) 0.6067(2) . 1. 0
O9 O2- 2 i 0.0135(3) 0.2795(2) 0.1356(2) . 1. 0
O10 O2- 2 i 0.0180(3) 0.2923(2) 0.6476(2) . 1. 0
O11 O2- 2 i 0.0029(3) 0.6807(2) 0.1059(2) . 1. 0
O12 O2- 2 i 0.0081(3) 0.6905(2) 0.6006(2) . 1. 0
O13 O2- 2 i 0.1843(3) 0.1060(2) 0.1904(2) . 1. 0
O14 O2- 2 i 0.2118(3) 0.1029(2) 0.6858(2) . 1. 0
O15 O2- 2 i 0.2022(3) 0.8721(2) 0.2128(2) . 1. 0
O16 O2- 2 i 0.1757(3) 0.8583(2) 0.7169(2) . 1. 0
Ca5 Ca2+ 2 i 0.7681(6) 0.4887(4) 0.5855(4) . 0.21 0
Na5 Na1+ 2 i 0.7681(6) 0.4887(4) 0.5855(4) . 0.01 0
Ca6 Ca2+ 2 i 0.77371(12) 0.53570(7) 0.54206(8) . 0.7 0
Na6 Na1+ 2 i 0.77371(12) 0.53570(7) 0.54206(8) . 0.04 0
Ca7 Ca2+ 2 i 0.7640(3) 0.5024(2) 0.0769(2) . 0.55 0
Na7 Na1+ 2 i 0.7640(3) 0.5024(2) 0.0769(2) . 0.03 0
Ca8 Ca2+ 2 i 0.7668(5) 0.5288(3) 0.0495(3) . 0.39 0
Na8 Na1+ 2 i 0.7668(5) 0.5288(3) 0.0495(3) . 0.02 0
Si5 Si4+ 2 i 0.49310(11) 0.34295(6) 0.39578(7) . 1. 0
Al5 Al3+ 2 i 0.50020(12) 0.33428(7) 0.88771(7) . 1. 0
Al6 Al3+ 2 i 0.50480(13) 0.31479(7) 0.62032(7) . 1. 0
Si6 Si4+ 2 i 0.50473(12) 0.31902(6) 0.11093(7) . 1. 0
Al7 Al3+ 2 i 0.81026(13) 0.38828(7) 0.33611(7) . 1. 0
Si7 Si4+ 2 i 0.82683(12) 0.39354(6) 0.84725(7) . 1. 0
Si8 Si4+ 2 i 0.17694(12) 0.38026(6) 0.67660(7) . 1. 0
Al8 Al3+ 2 i 0.18471(13) 0.37660(7) 0.17968(7) . 1. 0
O17 O2- 2 i 0.4949(3) 0.6248(2) 0.4882(2) . 1. 0
O18 O2- 2 i 0.5086(3) 0.6251(2) 0.9935(2) . 1. 0
O19 O2- 2 i 0.0743(3) 0.4888(2) 0.6368(2) . 1. 0
O20 O2- 2 i 0.0721(3) 0.4918(2) 0.1378(2) . 1. 0
O21 O2- 2 i 0.3272(3) 0.5977(2) 0.5994(2) . 1. 0
O22 O2- 2 i 0.2905(3) 0.6027(2) 0.0849(2) . 1. 0
O23 O2- 2 i 0.3016(3) 0.3563(2) 0.6166(2) . 1. 0
O24 O2- 2 i 0.3330(3) 0.3573(2) 0.1256(2) . 1. 0
O25 O2- 2 i 0.5107(3) 0.7781(2) 0.6357(2) . 1. 0
O26 O2- 2 i 0.5108(3) 0.7963(2) 0.1499(2) . 1. 0
O27 O2- 2 i 0.5131(3) 0.1797(2) 0.6093(2) . 1. 0
O28 O2- 2 i 0.5071(3) 0.1942(2) 0.0986(2) . 1. 0
O29 O2- 2 i 0.6961(3) 0.6071(2) 0.6820(2) . 1. 0
O30 O2- 2 i 0.6949(3) 0.6037(2) 0.1947(2) . 1. 0
O31 O2- 2 i 0.6929(3) 0.3646(2) 0.7271(2) . 1. 0
O32 O2- 2 i 0.6952(3) 0.3670(2) 0.2030(2) . 1. 0
loop_
_atom_site_aniso_label
_atom_site_aniso_type_symbol
_atom_site_aniso_beta_11
_atom_site_aniso_beta_22
_atom_site_aniso_beta_33
_atom_site_aniso_beta_12
_atom_site_aniso_beta_13
_atom_site_aniso_beta_23
Ca1 Ca2+ 0.00110(15) 0.00214(7) 0.00083(7) -.00063(7) 0.00044(8) -.00075(5)
Na1 Na1+ 0.00110(15) 0.00214(7) 0.00083(7) -.00063(7) 0.00044(8) -.00075(5)
Ca2 Ca2+ 0.0053(7) 0.0076(3) 0.00403(31) 0.0026(4) -.00030(41) -.00359(21)
Na2 Na1+ 0.0053(7) 0.0076(3) 0.00403(31) 0.0026(4) -.00030(41) -.00359(21)
Ca3 Ca2+ 0.0018(2) 0.00078(6) 0.00069(9) 0.00050(8) 0.00022(12) -.00018(6)
Na3 Na1+ 0.0018(2) 0.00078(6) 0.00069(9) 0.00050(8) 0.00022(12) -.00018(6)
Ca4 Ca2+ 0.0039(1) 0.0123(1) 0.0045(9) 0.0028(1) -.00111(8) -.00466(7)
Na4 Na1+ 0.0039(1) 0.0123(1) 0.0045(9) 0.0028(1) -.00111(8) -.00466(7)
Si1 Si4+ 0.0024(2) 0.00089(5) 0.00074(5) -.00010(7) 0.00064(8) 0.00008(4)
Al1 Al3+ 0.0022(2) 0.00072(5) 0.00071(6) -.00015(7) 0.00066(8) 0.00007(4)
Al2 Al3+ 0.0023(2) 0.0088(6) 0.00067(6) 0.00042(7) 0.00060(8) 0.00008(4)
Si2 Si4+ 0.0024(2) 0.00086(5) 0.00070(5) 0.00045(7) 0.00050(8) 0.00015(4)
Al3 Al3+ 0.0019(2) 0.00066(5) 0.00085(6) 0.0000(7) 0.00041(8) 0.00012(4)
Si3 Si4+ 0.0021(2) 0.00063(5) 0.00106(6) 0.0000(6) 0.00067(8) 0.00002(4)
Si4 Si4+ 0.0023(2) 0.00061(5) 0.00119(5) 0.00017(6) 0.00066(7) 0.00010(4)
Al4 Al3+ 0.0024(2) 0.00064(2) 0.00100(6) 0.00023(7) 0.00079(8) 0.00019(4)
O1 O2- 0.0062(4) 0.0016(1) 0.0011(1) -.0004(2) 0.0016(2) 0.0002(1)
O2 O2- 0.0066(4) 0.0014(1) 0.0013(1) 0.0003(2) 0.0019(2) 0.0002(1)
O3 O2- 0.0030(4) 0.0010(1) 0.0013(2) 0.0002(2) 0.0004(2) 0.0003(1)
O4 O2- 0.0028(4) 0.0009(1) 0.0015(2) 0.0002(2) 0.0006(2) 0.0002(1)
O5 O2- 0.0038(4) 0.0013(1) 0.0023(2) -.0008(2) 0.0018(2) -.0002(1)
O6 O2- 0.0055(4) 0.0013(1) 0.0025(2) -.0006(2) 0.0025(2) -.0004(1)
O7 O2- 0.0062(4) 0.0020(2) 0.0041(2) 0.0006(2) 0.0035(2) -.0002(1)
O8 O2- 0.0051(4) 0.0016(1) 0.0022(1) 0.0011(2) 0.0021(2) 0.0005(1)
O9 O2- 0.0055(4) 0.0010(1) 0.0020(2) -.0003(2) 0.0016(2) -.0002(1)
O10 O2- 0.0050(4) 0.0011(1) 0.0020(2) -.0004(2) 0.0016(2) -.00005(11)
O11 O2- 0.0032(4) 0.0013(1) 0.0018(2) 0.0008(2) 0.0007(2) 0.00004(11)
O12 O2- 0.0045(4) 0.0013(1) 0.0013(1) 0.0008(2) 0.0007(2) 0.0002(1)
O13 O2- 0.0051(4) 0.0016(1) 0.0013(1) 0.0006(2) 0.0006(2) 0.0002(1)
O14 O2- 0.0051(4) 0.0013(1) 0.0016(1) 0.0004(2) 0.0003(2) 0.0024(1)
O15 O2- 0.0042(4) 0.0016(1) 0.0018(2) 0.0004(2) 0.0002(2) -.0003(1)
O16 O2- 0.0059(5) 0.0020(2) 0.0019(2) -.00005(19) -.0003(2) -.0001(1)
Ca5 Ca2+ 0.00123(14) 0.00092(6) 0.00082(6) 0.00065(6) 0.00004(7) -.00024(4)
Na5 Na1+ 0.00123(14) 0.00092(6) 0.00082(6) 0.00065(6) 0.00004(7) -.00024(4)
Ca6 Ca2+ 0.0090(9) 0.0011(5) 0.00422(32) 0.00002(51) 0.0026(5) -.00341(31)
Na6 Na1+ 0.0090(9) 0.0011(5) 0.00422(32) 0.00002(51) 0.0026(5) -.00341(31)
Ca7 Ca2+ 0.0035(4) 0.00209(19) 0.00201(20) 0.0012(2) 0.0004(2) -.0003(1)
Na7 Na1+ 0.0035(4) 0.00209(19) 0.00201(20) 0.0012(2) 0.0004(2) -.0003(1)
Ca8 Ca2+ 0.0015(2) 0.0019(1) 0.0013(1) 0.0004(1) 0.0003(2) -.0007(9)
Na8 Na1+ 0.0015(2) 0.0019(1) 0.0013(1) 0.0004(1) 0.0003(2) -.0007(9)
Si5 Si4+ 0.0022(2) 0.00074(5) 0.00080(5) -.00009(6) 0.00066(8) 0.00007(4)
Al5 Al3+ 0.0022(2) 0.00066(5) 0.00682(60) -.00010(7) 0.00046(8) 0.00007(4)
Al6 Al3+ 0.0028(2) 0.00057(6) 0.00076(6) 0.00031(7) 0.00062(9) 0.00006(4)
Si6 Si4+ 0.0026(2) 0.00087(5) 0.00062(5) 0.00052(7) 0.00051(7) 0.00006(4)
Al7 Al3+ 0.0020(2) 0.00050(5) 0.00122(6) 0.00002(7) 0.00044(8) 0.00002(4)
Si7 Si4+ 0.0024(2) 0.00057(5) 0.00142(6) 0.00007(6) 0.00062(8) 0.00006(4)
Si8 Si4+ 0.0023(2) 0.00069(5) 0.00121(5) 0.00035(6) 0.00055(8) 0.00024(4)
Al8 Al3+ 0.0020(2) 0.00076(2) 0.00106(6) 0.00022(7) 0.00061(8) 0.00018(4)
O17 O2- 0.0083(5) 0.0016(1) 0.0010(1) 0.0009(2) 0.0020(2) 0.0003(1)
O18 O2- 0.0096(5) 0.0017(2) 0.0014(1) 0.0006(2) 0.0027(2) 0.0003(1)
O19 O2- 0.0032(4) 0.0008(1) 0.0002(2) 0.0002(2) 0.0008(2) 0.0004(1)
O20 O2- 0.0023(4) 0.0009(1) 0.0018(2) 0.00001(17) 0.0006(2) 0.0003(1)
O21 O2- 0.0048(4) 0.0012(1) 0.0028(2) -.0006(2) 0.0025(2) -.0003(1)
O22 O2- 0.0048(4) 0.0012(1) 0.0036(2) -.0003(2) 0.0031(2) -.0001(1)
O23 O2- 0.0052(4) 0.0019(1) 0.0037(2) 0.0004(2) 0.0030(2) -.0001(1)
O24 O2- 0.0079(5) 0.0025(1) 0.0052(2) 0.0007(2) 0.0053(3) 0.0001(1)
O25 O2- 0.0043(4) 0.0011(1) 0.0024(2) -.0003(2) 0.0018(2) -.0001(1)
O26 O2- 0.0045(4) 0.0011(1) 0.0020(2) -.0007(2) 0.0015(2) -.00038(11)
O27 O2- 0.0035(4) 0.0011(1) 0.0014(2) 0.0003(2) 0.0004(2) 0.0000(11)
O28 O2- 0.0050(4) 0.0013(1) 0.0016(2) 0.0008(2) 0.0006(2) 0.00002(11)
O29 O2- 0.0044(4) 0.0016(1) 0.0014(2) 0.0007(2) -.00001(21) 0.0001(1)
O30 O2- 0.0044(4) 0.0013(1) 0.0018(2) 0.0006(2) -.0002(2) 0.00007(11)
O31 O2- 0.0066(5) 0.0018(2) 0.0025(2) 0.0002(2) -.0005(2) 0.0005(1)
O32 O2- 0.0052(5) 0.0022(2) 0.0025(2) 0.0008(2) -.0013(2) -.0008(1)
#End of TTdata_201644-ICSD