
#(C) 2019 by FIZ Karlsruhe - Leibniz Institute for Information Infrastructure.  All rights reserved.
data_201646-ICSD
_database_code_ICSD 201646
_audit_creation_date 1985-07-17
_audit_update_record 1997-11-10
_chemical_name_systematic 'Calcium sodium alumosilicate *'
_chemical_formula_structural 'Ca.94 Na.06 Al2 Si2 O8'
_chemical_formula_sum 'Al2 Ca0.94 Na0.06 O8 Si2'
_chemical_name_structure_type Feldspar#-(TC,I1-,i28)-Bytownite
_chemical_name_mineral Anorthite
_exptl_crystal_density_diffrn 2.75
_publ_section_title 'Analysis of P1-, I1-, and C1- plagioclase structures'
loop_
_citation_id
_citation_journal_full
_citation_year
_citation_journal_volume
_citation_page_first
_citation_page_last
_citation_journal_id_ASTM
primary 'Bulletin de Mineralogie' 1984 107 467 487 BULMD9
loop_
_publ_author_name
'Wenk, H.R.'
'Kroll, H.'
_cell_length_a 8.1826(12)
_cell_length_b 12.8727(7)
_cell_length_c 14.1794(9)
_cell_angle_alpha 93.222(6)
_cell_angle_beta 115.871(7)
_cell_angle_gamma 91.159(5)
_cell_volume 1340.07
_cell_formula_units_Z 8
_symmetry_space_group_name_H-M 'I -1'
_symmetry_Int_Tables_number 2
_refine_ls_R_factor_all 0.029
loop_
_symmetry_equiv_pos_site_id
_symmetry_equiv_pos_as_xyz
1 '-x, -y, -z'
2 'x, y, z'
3 '-x+1/2, -y+1/2, -z+1/2'
4 'x+1/2, y+1/2, z+1/2'
loop_
_atom_type_symbol
_atom_type_oxidation_number
Ca2+ 2
Na1+ 1
Ca2+ 2
Na1+ 1
Ca2+ 2
Na1+ 1
Ca2+ 2
Na1+ 1
Si4+ 4
Al3+ 3
Si4+ 4
Al3+ 3
Si4+ 4
Al3+ 3
O2- -2
loop_
_atom_site_label
_atom_site_type_symbol
_atom_site_symmetry_multiplicity
_atom_site_Wyckoff_symbol
_atom_site_fract_x
_atom_site_fract_y
_atom_site_fract_z
_atom_site_B_iso_or_equiv
_atom_site_occupancy
_atom_site_attached_hydrogens
Ca1 Ca2+ 4 i 0.2663(11) 0.9850(12) 0.0863(9) . 0.38 0
Na1 Na1+ 4 i 0.2663(11) 0.9850(12) 0.0863(9) . 0.02 0
Ca2 Ca2+ 4 i 0.2745(8) 0.0353(6) 0.0438(6) . 0.54 0
Na2 Na1+ 4 i 0.2745(8) 0.0353(6) 0.0438(6) . 0.03 0
Ca3 Ca2+ 4 i 0.268(4) 0.015(4) 0.564(4) . 0.55 0
Na3 Na1+ 4 i 0.268(4) 0.015(4) 0.564(4) . 0.03 0
Ca4 Ca2+ 4 i 0.267(6) 0.032(4) 0.542(4) . 0.39 0
Na4 Na1+ 4 i 0.267(6) 0.032(4) 0.542(4) . 0.02 0
Si1 Si4+ 4 i 0.0072(5) 0.1581(3) 0.1044(3) . 1. 0
Al1 Al3+ 4 i 0.0033(7) 0.1638(3) 0.6119(4) . 1. 0
Al2 Al3+ 4 i 0.9997(7) 0.8148(3) 0.1195(4) . 1. 0
Si2 Si4+ 4 i 0.0046(5) 0.8173(3) 0.6119(3) . 1. 0
Al3 Al3+ 4 i 0.6877(6) 0.1125(3) 0.1594(3) . 1. 0
Si3 Si4+ 4 i 0.6770(6) 0.1057(3) 0.6574(3) . 1. 0
Si4 Si4+ 4 i 0.6759(6) 0.8815(3) 0.1810(3) . 1. 0
Al4 Al3+ 4 i 0.6834(7) 0.8751(3) 0.6774(4) . 1. 0
O1 O2- 4 i 0.0068(13) 0.1254(7) 0.9912(6) . 1. 0
O2 O2- 4 i 0.9984(13) 0.1263(7) 0.4894(7) . 1. 0
O3 O2- 4 i 0.5753(11) 0.9894(6) 0.1393(6) . 1. 0
O4 O2- 4 i 0.5728(10) 0.9908(6) 0.6380(7) . 1. 0
O5 O2- 4 i 0.8220(13) 0.0996(6) 0.0921(8) . 1. 0
O6 O2- 4 i 0.7990(14) 0.1016(6) 0.5926(8) . 1. 0
O7 O2- 4 i 0.8073(14) 0.8561(7) 0.1255(8) . 1. 0
O8 O2- 4 i 0.8223(13) 0.8555(6) 0.6165(8) . 1. 0
O9 O2- 4 i 0.0129(14) 0.2798(7) 0.1367(7) . 1. 0
O10 O2- 4 i 0.0165(12) 0.2932(6) 0.6495(7) . 1. 0
O11 O2- 4 i 0.0073(15) 0.6801(7) 0.1076(8) . 1. 0
O12 O2- 4 i 0.0069(13) 0.6916(7) 0.5995(8) . 1. 0
O13 O2- 4 i 0.1915(14) 0.1063(6) 0.1856(7) . 1. 0
O14 O2- 4 i 0.2023(16) 0.1033(7) 0.6925(8) . 1. 0
O15 O2- 4 i 0.1969(14) 0.8679(7) 0.2205(7) . 1. 0
O16 O2- 4 i 0.1855(14) 0.8618(7) 0.7096(7) . 1. 0
loop_
_atom_site_aniso_label
_atom_site_aniso_type_symbol
_atom_site_aniso_beta_11
_atom_site_aniso_beta_22
_atom_site_aniso_beta_33
_atom_site_aniso_beta_12
_atom_site_aniso_beta_13
_atom_site_aniso_beta_23
Ca1 Ca2+ 0.00222(51) 0.00521(34) 0.0020(2) -.0011(3) 0.0012(3) -.0020(2)
Na1 Na1+ 0.00222(51) 0.00521(34) 0.0020(2) -.0011(3) 0.0012(3) -.0020(2)
Ca2 Ca2+ 0.0025(4) 0.0017(2) 0.0015(2) 0.0007(2) 0.0004(2) -.0004(1)
Na2 Na1+ 0.0025(4) 0.0017(2) 0.0015(2) 0.0007(2) 0.0004(2) -.0004(1)
Ca3 Ca2+ 0.0035(4) 0.0076(3) 0.0054(4) 0.0014(4) -.0003(4) -.0052(2)
Na3 Na1+ 0.0035(4) 0.0076(3) 0.0054(4) 0.0014(4) -.0003(4) -.0052(2)
Ca4 Ca2+ 0.0015(2) 0.0019(1) 0.0013(1) 0.0014(3) -.00004(35) 0.0014(3)
Na4 Na1+ 0.0015(2) 0.0019(1) 0.0013(1) 0.0014(3) -.00004(35) 0.0014(3)
Si1 Si4+ 0.0020(3) 0.00113(8) 0.00087(9) -.00018(11) 0.0005(1) 0.00020(6)
Al1 Al3+ 0.0030(4) 0.0009(9) 0.00075(10) -.00006(13) 0.0008(2) 0.0001(1)
Al2 Al3+ 0.0032(4) 0.00108(9) 0.0007(1) 0.0005(1) 0.0008(2) 0.0002(1)
Si2 Si4+ 0.0024(3) 0.00104(8) 0.00077(9) 0.0006(1) 0.0005(2) 0.0004(1)
Al3 Al3+ 0.0017(3) 0.0010(1) 0.0014(1) 0.00022 0.0004(2) 0.0001(1)
Si3 Si4+ 0.0025(3) 0.00076(8) 0.00168(9) 0.00003(12) 0.0007(1) 0.00000(7)
Si4 Si4+ 0.0022(3) 0.0008(1) 0.0015(1) 0.0004(1) 0.0004(1) 0.0002(1)
Al4 Al3+ 0.0023(3) 0.00100(9) 0.0011(1) 0.0002(1) 0.0007(2) 0.00031(7)
O1 O2- 0.0084(10) 0.0024(2) 0.0011(2) 0.0004(4) 0.0018(4) 0.0001(2)
O2 O2- 0.0101(11) 0.0015(2) 0.0013(3) 0.0008(4) 0.0024(4) 0.0004(2)
O3 O2- 0.0025(9) 0.0010(2) 0.0017(3) -.0001(3) 0.0004(4) 0.0002(2)
O4 O2- 0.0032(9) 0.0013(2) 0.0016(3) 0.0003(3) 0.0008(4) 0.0004(2)
O5 O2- 0.0044(8) 0.0018(2) 0.0036(3) -.0003(3) 0.0003(4) -.0002(2)
O6 O2- 0.0065(8) 0.0013(2) 0.0039(3) -.0009(3) 0.0036(4) -.0005(2)
O7 O2- 0.0065(10) 0.0018(2) 0.0063(4) -.0003(4) 0.0046(5) -.0008(2)
O8 O2- 0.0069(9) 0.0025(2) 0.0049(3) 0.0017(4) 0.0043(5) 0.0004(2)
O9 O2- 0.0050(8) 0.0016(2) 0.0020(2) -.0006(3) 0.0015(4) -.0002(2)
O10 O2- 0.0055(8) 0.0013(2) 0.0022(2) 0.00004(31) 0.0016(4) 0.0002(2)
O11 O2- 0.0055(8) 0.0013(2) 0.0018(2) 0.0012(3) 0.0010(4) 0.0002(2)
O12 O2- 0.0034(7) 0.0016(2) 0.0013(2) 0.0005(3) 0.0005(3) -.00007(18)
O13 O2- 0.0041(8) 0.0021(2) 0.0018(3) 0.0010(4) -.00014(38) 0.0001(2)
O14 O2- 0.0056(9) 0.0019(2) 0.0018(3) 0.0004(4) -.0009(4) 0.00014(21)
O15 O2- 0.0056(9) 0.0018(3) 0.0032(3) 0.0004(4) -.0014(4) -.0010(2)
O16 O2- 0.0066(9) 0.0028(3) 0.0030(3) 0.0007(4) -.0021(4) -.0011(2)
#End of TTdata_201646-ICSD