
#(C) 2019 by FIZ Karlsruhe - Leibniz Institute for Information Infrastructure.  All rights reserved.
data_201954-ICSD
_database_code_ICSD 201954
_audit_creation_date 1988-12-19
_audit_update_record 1998-06-29
_chemical_name_systematic 'Sodium zirconium phosphate (1.3/1.832/3) - 295K'
_chemical_formula_structural 'Na Zr1.88 (P O4)3'
_chemical_formula_sum 'Na1 O12 P3 Zr1.88'
_chemical_name_mineral Nasicon
_exptl_crystal_density_diffrn 3.11
_publ_section_title

;
NASICON solid electrolytes. Part II - X-ray diffraction experiments on
sodium-zirconium-phosphate single crystals at 295K and at 993K
;
loop_
_citation_id
_citation_journal_full
_citation_year
_citation_journal_volume
_citation_page_first
_citation_page_last
_citation_journal_id_ASTM
primary 'Materials Research Bulletin' 1986 21 23 31 MRBUAC
loop_
_publ_author_name
'Kohler, H.'
'Schulz, H.'
_cell_length_a 8.813(3)
_cell_length_b 8.813(3)
_cell_length_c 22.800(10)
_cell_angle_alpha 90.
_cell_angle_beta 90.
_cell_angle_gamma 120.
_cell_volume 1533.6
_cell_formula_units_Z 6
_symmetry_space_group_name_H-M 'R -3 c H'
_symmetry_Int_Tables_number 167
_refine_ls_R_factor_all 0.016
loop_
_symmetry_equiv_pos_site_id
_symmetry_equiv_pos_as_xyz
1 'x-y, -y, -z+1/2'
2 '-x, -x+y, -z+1/2'
3 'y, x, -z+1/2'
4 'x-y, x, -z'
5 'y, -x+y, -z'
6 '-x, -y, -z'
7 '-x+y, y, z+1/2'
8 'x, x-y, z+1/2'
9 '-y, -x, z+1/2'
10 '-x+y, -x, z'
11 '-y, x-y, z'
12 'x, y, z'
13 'x-y+2/3, -y+1/3, -z+5/6'
14 '-x+2/3, -x+y+1/3, -z+5/6'
15 'y+2/3, x+1/3, -z+5/6'
16 'x-y+2/3, x+1/3, -z+1/3'
17 'y+2/3, -x+y+1/3, -z+1/3'
18 '-x+2/3, -y+1/3, -z+1/3'
19 '-x+y+2/3, y+1/3, z+5/6'
20 'x+2/3, x-y+1/3, z+5/6'
21 '-y+2/3, -x+1/3, z+5/6'
22 '-x+y+2/3, -x+1/3, z+1/3'
23 '-y+2/3, x-y+1/3, z+1/3'
24 'x+2/3, y+1/3, z+1/3'
25 'x-y+1/3, -y+2/3, -z+1/6'
26 '-x+1/3, -x+y+2/3, -z+1/6'
27 'y+1/3, x+2/3, -z+1/6'
28 'x-y+1/3, x+2/3, -z+2/3'
29 'y+1/3, -x+y+2/3, -z+2/3'
30 '-x+1/3, -y+2/3, -z+2/3'
31 '-x+y+1/3, y+2/3, z+1/6'
32 'x+1/3, x-y+2/3, z+1/6'
33 '-y+1/3, -x+2/3, z+1/6'
34 '-x+y+1/3, -x+2/3, z+2/3'
35 '-y+1/3, x-y+2/3, z+2/3'
36 'x+1/3, y+2/3, z+2/3'
loop_
_atom_type_symbol
_atom_type_oxidation_number
Na1+ 1
Zr4+ 4
P5+ 5
O2- -2
Zr4+ 4
loop_
_atom_site_label
_atom_site_type_symbol
_atom_site_symmetry_multiplicity
_atom_site_Wyckoff_symbol
_atom_site_fract_x
_atom_site_fract_y
_atom_site_fract_z
_atom_site_B_iso_or_equiv
_atom_site_occupancy
_atom_site_attached_hydrogens
Na1 Na1+ 6 b 0 0 0 . 1. 0
Zr1 Zr4+ 12 c 0 0 0.14566(1) . 0.913 0
P1 P5+ 18 e 0.29169(5) 0 0.25 . 1. 0
O1 O2- 36 f 0.1939(1) 0.1701(1) 0.08752(7) . 1. 0
O2 O2- 36 f 0.1847(2) -.0166(2) 0.19489(5) . 1. 0
Zr2 Zr4+ 36 f 0.057(3) 0.096(2) 0.151(1) 2. 0.0055(6) 0
Zr3 Zr4+ 36 f 0.097(8) 0.038(7) 0.139(2) 1.7 0.0042(6) 0
loop_
_atom_site_aniso_label
_atom_site_aniso_type_symbol
_atom_site_aniso_beta_11
_atom_site_aniso_beta_22
_atom_site_aniso_beta_33
_atom_site_aniso_beta_12
_atom_site_aniso_beta_13
_atom_site_aniso_beta_23
Na1 Na1+ 0.0167(4) 0.0167 0.00031(3) 0.00835 0 0
Zr1 Zr4+ 0.00238(3) 0.00238 0.000214(3) 0.00119 0 0
P1 P5+ 0.00131(5) 0.00162(6) 0.000170(6) 0.00081 0.000095 0.00019(2)
O1 O2- 0.0031(3) 0.0033(1) 0.00041(1) 0.0007(2) 0.00022(4) 0.00026(4)
O2 O2- 0.0045(2) 0.0056(2) 0.00052(2) 0.0028(1) -.00056(7) 0.00022(5)
#End of TTdata_201954-ICSD