
#(C) 2019 by FIZ Karlsruhe - Leibniz Institute for Information Infrastructure.  All rights reserved.
data_202237-ICSD
_database_code_ICSD 202237
_audit_creation_date 1988-12-19
_chemical_name_systematic 'Cesium trisodium tetraoxoplumbate(IV)'
_chemical_formula_structural 'Cs Na3 Pb O4'
_chemical_formula_sum 'Cs1 Na3 O4 Pb1'
_chemical_name_structure_type CsNa3TiO4
_exptl_crystal_density_diffrn 4.82
_publ_section_title 'Ein neues Oxoplumbat(IV): Cs Na3 Pb O4'
loop_
_citation_id
_citation_journal_full
_citation_year
_citation_journal_volume
_citation_page_first
_citation_page_last
_citation_journal_id_ASTM
primary 'Revue de Chimie Minerale' 1987 24 96 115 RVCMA8
loop_
_publ_author_name
'Stoll, H.'
'Hoppe, R.'
_cell_length_a 11.9864(8)
_cell_length_b 8.7215(5)
_cell_length_c 6.7593(5)
_cell_angle_alpha 100.73(1)
_cell_angle_beta 109.31(1)
_cell_angle_gamma 91.45(1)
_cell_volume 652.32
_cell_formula_units_Z 4
_symmetry_space_group_name_H-M 'P -1'
_symmetry_Int_Tables_number 2
_refine_ls_R_factor_all 0.0888
loop_
_symmetry_equiv_pos_site_id
_symmetry_equiv_pos_as_xyz
1 '-x, -y, -z'
2 'x, y, z'
loop_
_atom_type_symbol
_atom_type_oxidation_number
Pb4+ 4
Cs1+ 1
Na1+ 1
O2- -2
loop_
_atom_site_label
_atom_site_type_symbol
_atom_site_symmetry_multiplicity
_atom_site_Wyckoff_symbol
_atom_site_fract_x
_atom_site_fract_y
_atom_site_fract_z
_atom_site_B_iso_or_equiv
_atom_site_occupancy
_atom_site_attached_hydrogens
Pb1 Pb4+ 2 i 0.3516(1) 0.7083(1) 0.1793(1) . 1. 0
Pb2 Pb4+ 2 i 0.1331(1) 0.2060(1) 0.5718(1) . 1. 0
Cs1 Cs1+ 2 i 0.1194(1) 0.3828(1) 0.1134(2) . 1. 0
Cs2 Cs1+ 2 i 0.3743(1) 0.1424(1) 0.3331(2) . 1. 0
Na1 Na1+ 2 i 0.3758(7) 0.9564(8) 0.8053(12) . 1. 0
Na2 Na1+ 2 i 0.1049(6) 0.9465(9) 0.9189(13) . 1. 0
Na3 Na1+ 2 i 0.1271(7) 0.5701(8) 0.6678(12) . 1. 0
Na4 Na1+ 2 i 0.3971(7) 0.5572(9) 0.5876(13) . 1. 0
Na5 Na1+ 2 i 0.1464(6) 0.8231(8) 0.3441(13) . 1. 0
Na6 Na1+ 2 i 0.3872(6) 0.3292(8) 0.9054(12) . 1. 0
O1 O2- 2 i 0.3495(9) 0.7993(13) 0.4869(17) . 1. 0
O2 O2- 2 i 0.0055(10) 0.6686(13) 0.387(2) . 1. 0
O3 O2- 2 i 0.2543(10) 0.3871(13) 0.5885(19) . 1. 0
O4 O2- 2 i 0.4101(9) 0.4919(12) 0.2188(18) . 1. 0
O5 O2- 2 i 0.0949(10) 0.0645(15) 0.2719(20) . 1. 0
O6 O2- 2 i 0.1771(10) 0.7131(13) 0.0078(20) . 1. 0
O7 O2- 2 i 0.2251(10) 0.1106(14) 0.8281(18) . 1. 0
O8 O2- 2 i 0.4648(11) 0.8399(15) 0.0885(21) . 1. 0
loop_
_atom_site_aniso_label
_atom_site_aniso_type_symbol
_atom_site_aniso_U_11
_atom_site_aniso_U_22
_atom_site_aniso_U_33
_atom_site_aniso_U_12
_atom_site_aniso_U_13
_atom_site_aniso_U_23
Pb1 Pb4+ 0.0090(3) 0.0104(3) 0.0107(3) 0.0010(2) 0.0028(2) 0.0018(2)
Pb2 Pb4+ 0.0076(3) 0.0115(3) 0.0112(3) 0.0004(2) 0.0024(2) 0.0020(2)
Cs1 Cs1+ 0.0239(2) 0.0222(6) 0.0199(6) 0.0028(5) 0.0056(5) 0.0074(5)
Cs2 Cs1+ 0.0147(5) 0.0213(6) 0.0269(6) 0.0021(4) 0.0059(5) 0.0003(5)
Na1 Na1+ 0.0231(28) 0.0171(27) 0.0163(27) 0.0055(24) 0.0065(24) 0.0022(24)
Na2 Na1+ 0.0066(24) 0.0288(29) 0.0294(31) 0.0028(23) 0.0017(24) 0.0100(27)
Na3 Na1+ 0.0247(28) 0.0103(25) 0.0147(27) 0.0030(23) 0.0058(24) -.0041(23)
Na4 Na1+ 0.0164(27) 0.0276(29) 0.0259(30) 0.0007(25) 0.0074(25) 0.0085(26)
Na5 Na1+ 0.0220(27) 0.0152(26) 0.031(3) 0.0070(23) 0.0155(24) 0.0163(24)
Na6 Na1+ 0.0184(27) 0.0206(27) 0.0207(28) 0.0047(24) 0.0028(24) 0.0103(24)
O1 O2- 0.0060(31) 0.0247(35) 0.0071(32) 0.0027(30) 0.0002(28) -.0076(31)
O2 O2- 0.0109(33) 0.0140(33) 0.0279(36) 0.0094(30) -.0019(32) 0.0055(33)
O3 O2- 0.0103(32) 0.0131(33) 0.0276(36) 0.0097(29) -.0006(30) 0.0134(31)
O4 O2- 0.0072(31) 0.0106(32) 0.0196(35) 0.0081(28) 0.0006(30) 0.0056(31)
O5 O2- 0.0094(33) 0.0293(36) 0.0227(36) 0.0017(32) 0.0019(32) -.0039(34)
O6 O2- 0.0145(34) 0.0118(33) 0.0329(37) 0.0049(31) 0.0046(33) 0.0071(33)
O7 O2- 0.0184(34) 0.0230(35) 0.0137(33) 0.0056(31) 0.0109(30) 0.0074(31)
O8 O2- 0.0130(34) 0.0302(37) 0.0367(38) 0.0032(33) 0.0130(32) 0.0120(35)
#End of TTdata_202237-ICSD