
#(C) 2019 by FIZ Karlsruhe - Leibniz Institute for Information Infrastructure.  All rights reserved.
data_202327-ICSD
_database_code_ICSD 202327
_audit_creation_date 1988-12-19
_chemical_name_systematic 'Potassium pentasodium hexaoxotellurate'
_chemical_formula_structural 'K Na5 Te O6'
_chemical_formula_sum 'K1 Na5 O6 Te1'
_exptl_crystal_density_diffrn 2.97
_publ_section_title 'Neue Oxotellurate(VI): K Na5 (Te O6)'
loop_
_citation_id
_citation_journal_full
_citation_year
_citation_journal_volume
_citation_page_first
_citation_page_last
_citation_journal_id_ASTM
primary 'Journal of the Less-Common Metals' 1987 132 93 105 JCOMAH
loop_
_publ_author_name
'Untenecker, H.'
'Hoppe, R.'
_cell_length_a 6.568(1)
_cell_length_b 6.568(1)
_cell_length_c 11.310(3)
_cell_angle_alpha 90.
_cell_angle_beta 90.
_cell_angle_gamma 120.
_cell_volume 422.53
_cell_formula_units_Z 2
_symmetry_space_group_name_H-M 'P 63/m m c'
_symmetry_Int_Tables_number 194
_refine_ls_R_factor_all 0.087
loop_
_symmetry_equiv_pos_site_id
_symmetry_equiv_pos_as_xyz
1 'x, x-y, -z+1/2'
2 '-x+y, y, -z+1/2'
3 '-y, -x, -z+1/2'
4 '-x+y, -x, -z+1/2'
5 '-y, x-y, -z+1/2'
6 'x, y, -z+1/2'
7 '-x, -x+y, z+1/2'
8 'x-y, -y, z+1/2'
9 'y, x, z+1/2'
10 'x-y, x, z+1/2'
11 'y, -x+y, z+1/2'
12 '-x, -y, z+1/2'
13 '-x, -x+y, -z'
14 'x-y, -y, -z'
15 'y, x, -z'
16 'x-y, x, -z'
17 'y, -x+y, -z'
18 '-x, -y, -z'
19 'x, x-y, z'
20 '-x+y, y, z'
21 '-y, -x, z'
22 '-x+y, -x, z'
23 '-y, x-y, z'
24 'x, y, z'
loop_
_atom_type_symbol
_atom_type_oxidation_number
Te6+ 6
K1+ 1
Na1+ 1
O2- -2
loop_
_atom_site_label
_atom_site_type_symbol
_atom_site_symmetry_multiplicity
_atom_site_Wyckoff_symbol
_atom_site_fract_x
_atom_site_fract_y
_atom_site_fract_z
_atom_site_B_iso_or_equiv
_atom_site_occupancy
_atom_site_attached_hydrogens
Te1 Te6+ 2 a 0 0 0 . 1. 0
K1 K1+ 2 d 0.3333 0.6667 0.75 . 1. 0
Na1 Na1+ 6 g 0.5 0 0 . 0.67 0
Na2 Na1+ 6 h 0.1452(5) 0.8548(5) 0.25 . 1. 0
O1 O2- 12 k 0.1392(6) 0.8608(6) 0.5989(5) . 1. 0
loop_
_atom_site_aniso_label
_atom_site_aniso_type_symbol
_atom_site_aniso_U_11
_atom_site_aniso_U_22
_atom_site_aniso_U_33
_atom_site_aniso_U_12
_atom_site_aniso_U_13
_atom_site_aniso_U_23
Te1 Te6+ 0.0104(3) 0.0104(3) 0.0087(5) 0.0052(2) 0 0
K1 K1+ 0.0186(14) 0.0186(14) 0.0271(23) 0.0093(7) 0 0
Na1 Na1+ 0.0131(19) 0.0390(33) 0.0485(35) 0.0195(16) -.0124(20) -.0247(40)
Na2 Na1+ 0.0222(23) 0.0253(34) 0.0144(22) 0.0126(17) 0 0
O1 O2- 0.0140(23) 0.0295(37) 0.0135(27) 0.0148(19) -.0017(17) -.0034(35)
#End of TTdata_202327-ICSD