
#(C) 2019 by FIZ Karlsruhe - Leibniz Institute for Information Infrastructure.  All rights reserved.
data_202679-ICSD
_database_code_ICSD 202679
_audit_creation_date 1989-06-19
_audit_update_record 1990-05-24
_chemical_name_systematic 'Sodium iodate'
_chemical_formula_structural 'Na I O3'
_chemical_formula_sum 'I1 Na1 O3'
_chemical_name_structure_type Perovskite-GdFeO3
_exptl_crystal_density_diffrn 4.4
_cell_measurement_temperature 293.
_publ_section_title 'The Crystal Structure of Na I O3 at 293K'
loop_
_citation_id
_citation_journal_full
_citation_year
_citation_journal_volume
_citation_page_first
_citation_page_last
_citation_journal_id_ASTM
primary 'Journal of Solid State Chemistry' 1988 77 112 116 JSSCBI
loop_
_publ_author_name
'Svensson, C.'
'Stahl, K.'
_cell_length_a 5.7500(3)
_cell_length_b 6.3953(3)
_cell_length_c 8.1280(4)
_cell_angle_alpha 90.
_cell_angle_beta 90.
_cell_angle_gamma 90.
_cell_volume 298.89
_cell_formula_units_Z 4
_symmetry_space_group_name_H-M 'P b n m'
_symmetry_Int_Tables_number 62
_refine_ls_R_factor_all 0.018
loop_
_symmetry_equiv_pos_site_id
_symmetry_equiv_pos_as_xyz
1 '-x+1/2, y+1/2, z'
2 'x, y, -z+1/2'
3 'x+1/2, -y+1/2, z+1/2'
4 '-x, -y, -z'
5 'x+1/2, -y+1/2, -z'
6 '-x, -y, z+1/2'
7 '-x+1/2, y+1/2, -z+1/2'
8 'x, y, z'
loop_
_atom_type_symbol
_atom_type_oxidation_number
Na1+ 1
I5+ 5
O2- -2
loop_
_atom_site_label
_atom_site_type_symbol
_atom_site_symmetry_multiplicity
_atom_site_Wyckoff_symbol
_atom_site_fract_x
_atom_site_fract_y
_atom_site_fract_z
_atom_site_B_iso_or_equiv
_atom_site_occupancy
_atom_site_attached_hydrogens
Na1 Na1+ 4 b 0.5 0 0 . 1. 0
I1 I5+ 4 c 0.01137(1) 0.01360(1) 0.25 . 1. 0
O1 O2- 4 c -.28739(13) 0.0985(11) 0.25 . 1. 0
O2 O2- 8 d 0.13664(11) 0.16501(11) 0.08384(8) . 1. 0
loop_
_atom_site_aniso_label
_atom_site_aniso_type_symbol
_atom_site_aniso_beta_11
_atom_site_aniso_beta_22
_atom_site_aniso_beta_33
_atom_site_aniso_beta_12
_atom_site_aniso_beta_13
_atom_site_aniso_beta_23
Na1 Na1+ 0.00930(19) 0.00893(16) 0.00534(10) -.00033(7) 0.00049(5) -.00029(6)
I1 I5+ 0.00560(2) 0.00452(2) 0.00445(1) 0.00023(1) 0 0
O1 O2- 0.00640(16) 0.00884(16) 0.00527(9) 0.00171(11) 0 0
O2 O2- 0.01080(15) 0.00888(13) 0.00596(8) 0.00032(9) 0.00226(8) 0.00191(8)
#End of TTdata_202679-ICSD