
#(C) 2019 by FIZ Karlsruhe - Leibniz Institute for Information Infrastructure.  All rights reserved.
data_20272-ICSD
_database_code_ICSD 20272
_audit_creation_date 1984-09-04
_audit_update_record 1993-07-05
_chemical_name_systematic '15-sodium triyttrium cyclo-dodecasilicate'
_chemical_formula_structural 'Na15 Y3 (Si12 O36)'
_chemical_formula_sum 'Na15 O36 Si12 Y3'
_chemical_name_structure_type Na15Y3Si12O36
_exptl_crystal_density_diffrn 2.83
_cell_measurement_temperature 573.
_publ_section_title
'The high temperature X-ray analysis of the monocrystals Na5 Y Si4 O12'
loop_
_citation_id
_citation_journal_full
_citation_year
_citation_journal_volume
_citation_page_first
_citation_page_last
_citation_journal_id_ASTM
primary 'Doklady Akademii Nauk SSSR' 1981 261 623 627 DANKAS
loop_
_publ_author_name
'Maksimov, B.A.'
'Belov, N.V.'
_cell_length_a 22.109(9)
_cell_length_b 22.109(9)
_cell_length_c 12.692(5)
_cell_angle_alpha 90.
_cell_angle_beta 90.
_cell_angle_gamma 120.
_cell_volume 5372.78
_cell_formula_units_Z 6
_symmetry_space_group_name_H-M 'R -3 c H'
_symmetry_Int_Tables_number 167
_refine_ls_R_factor_all 0.038
loop_
_symmetry_equiv_pos_site_id
_symmetry_equiv_pos_as_xyz
1 'x-y, -y, -z+1/2'
2 '-x, -x+y, -z+1/2'
3 'y, x, -z+1/2'
4 'x-y, x, -z'
5 'y, -x+y, -z'
6 '-x, -y, -z'
7 '-x+y, y, z+1/2'
8 'x, x-y, z+1/2'
9 '-y, -x, z+1/2'
10 '-x+y, -x, z'
11 '-y, x-y, z'
12 'x, y, z'
13 'x-y+2/3, -y+1/3, -z+5/6'
14 '-x+2/3, -x+y+1/3, -z+5/6'
15 'y+2/3, x+1/3, -z+5/6'
16 'x-y+2/3, x+1/3, -z+1/3'
17 'y+2/3, -x+y+1/3, -z+1/3'
18 '-x+2/3, -y+1/3, -z+1/3'
19 '-x+y+2/3, y+1/3, z+5/6'
20 'x+2/3, x-y+1/3, z+5/6'
21 '-y+2/3, -x+1/3, z+5/6'
22 '-x+y+2/3, -x+1/3, z+1/3'
23 '-y+2/3, x-y+1/3, z+1/3'
24 'x+2/3, y+1/3, z+1/3'
25 'x-y+1/3, -y+2/3, -z+1/6'
26 '-x+1/3, -x+y+2/3, -z+1/6'
27 'y+1/3, x+2/3, -z+1/6'
28 'x-y+1/3, x+2/3, -z+2/3'
29 'y+1/3, -x+y+2/3, -z+2/3'
30 '-x+1/3, -y+2/3, -z+2/3'
31 '-x+y+1/3, y+2/3, z+1/6'
32 'x+1/3, x-y+2/3, z+1/6'
33 '-y+1/3, -x+2/3, z+1/6'
34 '-x+y+1/3, -x+2/3, z+2/3'
35 '-y+1/3, x-y+2/3, z+2/3'
36 'x+1/3, y+2/3, z+2/3'
loop_
_atom_type_symbol
_atom_type_oxidation_number
Y3+ 3
Si4+ 4
O2- -2
Na1+ 1
loop_
_atom_site_label
_atom_site_type_symbol
_atom_site_symmetry_multiplicity
_atom_site_Wyckoff_symbol
_atom_site_fract_x
_atom_site_fract_y
_atom_site_fract_z
_atom_site_B_iso_or_equiv
_atom_site_occupancy
_atom_site_attached_hydrogens
Y1 Y3+ 18 e 0 0.75059(4) 0.75 1.21 1. 0
Si1 Si4+ 36 f 0.9016(1) 0.5547(1) 0.3558(2) 1.34 1. 0
Si2 Si4+ 36 f 0.5778(1) 0.1511(1) 0.7101(1) 1.37 1. 0
O1 O2- 36 f 0.9036(3) 0.5957(3) 0.2580(4) 2.11 1. 0
O2 O2- 36 f 0.0716(3) 0.2075(3) 0.0130(4) 2.17 1. 0
O3 O2- 36 f 0.2334(3) 0.6149(3) 0.2961(4) 2.68 1. 0
O4 O2- 36 f 0.9116(3) 0.2726(3) 0.2478(4) 1.9 1. 0
O5 O2- 36 f 0.8863(3) 0.4698(4) 0.1110(4) 2. 1. 0
O6 O2- 36 f 0.8781(3) 0.3671(3) 0.2221(4) 1.95 1. 0
Na1 Na1+ 36 f 0.0751(2) 0.1402(2) 0.8605(3) 3.11 1. 0
Na2 Na1+ 6 b 0 0 0 1.81 1. 0
Na3 Na1+ 6 a 0 0 0.25 2.54 1. 0
Na4 Na1+ 18 e 0.2752(3) 0 0.75 5.49 1. 0
Na5 Na1+ 36 f 0.336(1) 0.188(1) 0.280(1) 6.45 0.3333 0
Na6 Na1+ 36 f 0.328(1) 0.156(1) 0.136(1) 4.41 0.3333 0
#End of TTdata_20272-ICSD