
#(C) 2019 by FIZ Karlsruhe - Leibniz Institute for Information Infrastructure.  All rights reserved.
data_202752-ICSD
_database_code_ICSD 202752
_audit_creation_date 1989-12-04
_chemical_name_systematic 'Sodium titanium(III) diphosphate - beta'
_chemical_formula_structural 'Na Ti P2 O7'
_chemical_formula_sum 'Na1 O7 P2 Ti1'
_chemical_name_structure_type Mg2P2O7
_exptl_crystal_density_diffrn 3.07
_publ_section_title

;
Two forms of sodium titanium(III) diphosphate: alpha-Na Ti P2 O7 closely
related to beta-Cristobalite and beta-Na Ti P2 O7 isotypic with Na Fe P2 O7
;
loop_
_citation_id
_citation_journal_full
_citation_year
_citation_journal_volume
_citation_page_first
_citation_page_last
_citation_journal_id_ASTM
primary 'Journal of Solid State Chemistry' 1988 77 299 305 JSSCBI
loop_
_publ_author_name
'Leclaire, A.'
'Benmoussa, A.'
'Borel, M.M.'
'Grandin, A.'
'Raveau, B.'
_cell_length_a 7.394(1)
_cell_length_b 7.936(3)
_cell_length_c 9.726(3)
_cell_angle_alpha 90.
_cell_angle_beta 111.85(2)
_cell_angle_gamma 90.
_cell_volume 529.71
_cell_formula_units_Z 4
_symmetry_space_group_name_H-M 'P 1 21/c 1'
_symmetry_Int_Tables_number 14
_refine_ls_R_factor_all 0.044
loop_
_symmetry_equiv_pos_site_id
_symmetry_equiv_pos_as_xyz
1 'x, -y+1/2, z+1/2'
2 '-x, -y, -z'
3 '-x, y+1/2, -z+1/2'
4 'x, y, z'
loop_
_atom_type_symbol
_atom_type_oxidation_number
Ti3+ 3
P5+ 5
Na1+ 1
O2- -2
loop_
_atom_site_label
_atom_site_type_symbol
_atom_site_symmetry_multiplicity
_atom_site_Wyckoff_symbol
_atom_site_fract_x
_atom_site_fract_y
_atom_site_fract_z
_atom_site_B_iso_or_equiv
_atom_site_occupancy
_atom_site_attached_hydrogens
Ti1 Ti3+ 4 e 0.26076(9) 0.00861(8) 0.24891(7) . 1. 0
P1 P5+ 4 e 0.0719(1) 0.2547(1) 0.4556(1) . 1. 0
P2 P5+ 4 e -.3269(1) 0.2127(1) 0.4547(1) . 1. 0
Na1 Na1+ 4 e 0.2841(3) 0.4788(3) 0.2918(3) . 1. 0
O1 O2- 4 e 0.5355(4) 0.0863(4) 0.3529(3) . 1. 0
O2 O2- 4 e 0.3063(4) -.2014(4) 0.3849(3) . 1. 0
O3 O2- 4 e 0.1755(4) 0.1357(4) 0.3917(3) . 1. 0
O4 O2- 4 e -.0130(4) -.0838(4) 0.1343(3) . 1. 0
O5 O2- 4 e 0.1854(4) 0.2159(4) 0.1192(3) . 1. 0
O6 O2- 4 e 0.3685(4) -.1084(4) 0.1024(3) . 1. 0
O7 O2- 4 e -.1249(4) 0.1566(4) 0.4405(3) . 1. 0
loop_
_atom_site_aniso_label
_atom_site_aniso_type_symbol
_atom_site_aniso_beta_11
_atom_site_aniso_beta_22
_atom_site_aniso_beta_33
_atom_site_aniso_beta_12
_atom_site_aniso_beta_13
_atom_site_aniso_beta_23
Ti1 Ti3+ 0.00220(8) 0.00199(7) 0.00086(4) 0.0000(2) 0.00125(9) 0.0000(1)
P1 P5+ 0.0022(1) 0.0018(1) 0.00098(7) 0.0001(2) 0.0013(2) -.0002(2)
P2 P5+ 0.0022(1) 0.0022(1) 0.00098(7) -.0005(2) 0.0012(2) 0.0002(2)
Na1 Na1+ 0.0080(4) 0.0101(4) 0.0062(2) 0.0016(6) 0.0087(5) 0.0065(5)
O1 O2- 0.0032(4) 0.0035(4) 0.0021(3) -.0021(6) 0.0011(5) -.0024(5)
O2 O2- 0.0057(5) 0.0034(4) 0.0013(2) -.0002(7) 0.0022(5) 0.0007(5)
O3 O2- 0.0055(5) 0.0044(4) 0.0026(3) 0.0028(7) 0.0045(6) -.0009(5)
O4 O2- 0.0036(4) 0.0029(4) 0.0021(2) -.0008(6) 0.0019(5) -.0018(5)
O5 O2- 0.0053(5) 0.0034(4) 0.0016(2) -.0004(7) 0.0007(5) 0.0011(5)
O6 O2- 0.0039(4) 0.0032(4) 0.0020(3) -.0018(6) 0.0024(5) -.0028(5)
O7 O2- 0.0027(4) 0.0027(4) 0.0029(3) 0.0007(6) 0.0029(6) 0.0003(5)
#End of TTdata_202752-ICSD