
#(C) 2018 by FIZ Karlsruhe - Leibniz Institute for Information Infrastructure.  All rights reserved.
data_202863-ICSD
_database_code_ICSD 202863
_audit_creation_date 1990-06-08
_chemical_name_systematic 'Dibarium lithium pentaborate'
_chemical_formula_structural 'Ba2 Li B5 O10'
_chemical_formula_sum 'B5 Ba2 Li1 O10'
_chemical_name_structure_type LiBa2B5O10
_exptl_crystal_density_diffrn 3.94
_publ_section_title 'The Pentaborate Ba2 Li B5 O10'
loop_
_citation_id
_citation_journal_full
_citation_year
_citation_journal_volume
_citation_page_first
_citation_page_last
_citation_journal_id_ASTM
primary 'Materials Research Bulletin' 1989 24 725 731 MRBUAC
loop_
_publ_author_name
'Smith, R.W.'
'Keszler, D.A.'
_cell_length_a 4.414(1)
_cell_length_b 14.576(2)
_cell_length_c 6.697(2)
_cell_angle_alpha 90.
_cell_angle_beta 104.26(2)
_cell_angle_gamma 90.
_cell_volume 417.6
_cell_formula_units_Z 2
_symmetry_space_group_name_H-M 'P 1 21/m 1'
_symmetry_Int_Tables_number 11
_refine_ls_R_factor_all 0.021
loop_
_symmetry_equiv_pos_site_id
_symmetry_equiv_pos_as_xyz
1 'x, -y+1/2, z'
2 '-x, -y, -z'
3 '-x, y+1/2, -z'
4 'x, y, z'
loop_
_atom_type_symbol
_atom_type_oxidation_number
Ba2+ 2
Li1+ 1
B3+ 3
O2- -2
loop_
_atom_site_label
_atom_site_type_symbol
_atom_site_symmetry_multiplicity
_atom_site_Wyckoff_symbol
_atom_site_fract_x
_atom_site_fract_y
_atom_site_fract_z
_atom_site_B_iso_or_equiv
_atom_site_occupancy
_atom_site_attached_hydrogens
Ba1 Ba2+ 4 f 0.33616(3) 0.411510(9) 0.19724(2) . 1. 0
Li1 Li1+ 2 e 0.991(1) 0.25 0.477(1) . 1. 0
B1 B3+ 2 e 0.7688(9) 0.25 0.0029(6) . 1. 0
B2 B3+ 4 f 0.0492(6) 0.0794(2) 0.6782(4) . 1. 0
B3 B3+ 4 f 0.5562(5) 0.3363(2) 0.6750(4) . 1. 0
O1 O2- 2 e 0.6195(6) 0.25 0.5825(4) . 1. 0
O2 O2- 2 e 0.9506(8) 0.25 0.1941(4) . 1. 0
O3 O2- 4 f 0.1700(4) 0.4871(1) 0.8099(2) . 1. 0
O4 O2- 4 f 0.2192(4) 0.3549(1) 0.6056(3) . 1. 0
O5 O2- 4 f 0.6670(5) 0.3322(1) 0.9029(3) . 1. 0
O6 O2- 4 f 0.7225(4) 0.0867(1) 0.6020(3) . 1. 0
loop_
_atom_site_aniso_label
_atom_site_aniso_type_symbol
_atom_site_aniso_U_11
_atom_site_aniso_U_22
_atom_site_aniso_U_33
_atom_site_aniso_U_12
_atom_site_aniso_U_13
_atom_site_aniso_U_23
Ba1 Ba2+ 0.00952(7) 0.00963(7) 0.00949(7) -.00069(3) 0.00240(3) -.00030(3)
Li1 Li1+ 0.010(2) 0.006(2) 0.012(2) 0 0.004(2) 0
B1 B3+ 0.013(1) 0.008(1) 0.010(1) 0 0.003(1) 0
B2 B3+ 0.0097(8) 0.0082(8) 0.0086(8) -.0003(6) 0.0020(6) -.0010(6)
B3 B3+ 0.0072(7) 0.0068(7) 0.0093(8) -.0011(6) 0.0025(6) -.0006(6)
O1 O2- 0.0114(8) 0.0055(8) 0.0088(8) 0 0.0034(6) 0
O2 O2- 0.023(1) 0.020(1) 0.009(1) 0 -.0041(9) 0
O3 O2- 0.0108(7) 0.0074(6) 0.0138(7) -.0014(4) 0.0023(5) -.0043(5)
O4 O2- 0.0077(5) 0.0080(6) 0.0144(6) 0.0000(4) 0.0028(5) -.0035(5)
O5 O2- 0.0181(7) 0.0072(6) 0.0082(6) 0.0014(5) 0.0007(5) -.0009(5)
O6 O2- 0.0064(6) 0.0089(6) 0.0127(7) -.0013(4) 0.0017(5) -.0012(5)
#End of TTdata_202863-ICSD