
#(C) 2019 by FIZ Karlsruhe - Leibniz Institute for Information Infrastructure.  All rights reserved.
data_202870-ICSD
_database_code_ICSD 202870
_audit_creation_date 1990-06-08
_chemical_name_systematic 'Disodium nickel iron(III) fluoride'
_chemical_formula_structural 'Na2 Ni Fe F7'
_chemical_formula_sum 'F7 Fe1 Na2 Ni1'
_chemical_name_structure_type Ca2Sb2O7
_exptl_crystal_density_diffrn 3.51
_cell_measurement_temperature 300.
_publ_section_title

;
Ordered Magnetic Frustration VII. Na2 Ni Fe F7: Reexamination of Its Crystal
Structure in the True Space Group after Corrections from Renninger Effect and
Refinement of Its Frustrated Magnetic Structure at 4.2 and 55 K
;
loop_
_citation_id
_citation_journal_full
_citation_year
_citation_journal_volume
_citation_page_first
_citation_page_last
_citation_journal_id_ASTM
primary 'Journal of Solid State Chemistry' 1989 78 66 77 JSSCBI
loop_
_publ_author_name
'Laligant, Y.'
'Calage, Y.'
'Heger, G.'
'Pannetier, J.'
'Ferey, G.'
_cell_length_a 7.2338(3)
_cell_length_b 10.3050(3)
_cell_length_c 7.4529(3)
_cell_angle_alpha 90.
_cell_angle_beta 90.
_cell_angle_gamma 90.
_cell_volume 555.57
_cell_formula_units_Z 4
_symmetry_space_group_name_H-M 'I m m a'
_symmetry_Int_Tables_number 74
_refine_ls_R_factor_all 0.025
loop_
_symmetry_equiv_pos_site_id
_symmetry_equiv_pos_as_xyz
1 '-x, y+1/2, -z'
2 '-x, -y+1/2, z'
3 '-x, y, z'
4 '-x, -y, -z'
5 'x, -y+1/2, z'
6 'x, y+1/2, -z'
7 'x, -y, -z'
8 'x, y, z'
9 '-x+1/2, y, -z+1/2'
10 '-x+1/2, -y, z+1/2'
11 '-x+1/2, y+1/2, z+1/2'
12 '-x+1/2, -y+1/2, -z+1/2'
13 'x+1/2, -y, z+1/2'
14 'x+1/2, y, -z+1/2'
15 'x+1/2, -y+1/2, -z+1/2'
16 'x+1/2, y+1/2, z+1/2'
loop_
_atom_type_symbol
_atom_type_oxidation_number
Na1+ 1
Ni2+ 2
Fe3+ 3
F1- -1
loop_
_atom_site_label
_atom_site_type_symbol
_atom_site_symmetry_multiplicity
_atom_site_Wyckoff_symbol
_atom_site_fract_x
_atom_site_fract_y
_atom_site_fract_z
_atom_site_B_iso_or_equiv
_atom_site_occupancy
_atom_site_attached_hydrogens
Na1 Na1+ 4 a 0 0 0 . 1. 0
Na2 Na1+ 4 d 0.25 0.25 0.75 . 1. 0
Ni1 Ni2+ 4 c 0.25 0.25 0.25 . 1. 0
Fe1 Fe3+ 4 b 0 0 0.5 . 1. 0
F1 F1- 4 e 0 0.25 0.1473(2) . 1. 0
F2 F1- 8 h 0 0.4109(1) 0.7299(1) . 1. 0
F3 F1- 16 j 0.1960(1) 0.3840(1) 0.4348(1) . 1. 0
loop_
_atom_site_aniso_label
_atom_site_aniso_type_symbol
_atom_site_aniso_U_11
_atom_site_aniso_U_22
_atom_site_aniso_U_33
_atom_site_aniso_U_12
_atom_site_aniso_U_13
_atom_site_aniso_U_23
Na1 Na1+ 0.0236(6) 0.0568(11) 0.0190(5) 0 0 0.0189(5)
Na2 Na1+ 0.0223(7) 0.0230(7) 0.0667(14) 0 -.0036(5) 0
Ni1 Ni2+ 0.0068(1) 0.0066(1) 0.0082(1) 0 0.0011(1) 0
Fe1 Fe3+ 0.0090(1) 0.0084(1) 0.0083(1) 0 0 0.0025(1)
F1 F1- 0.0074(3) 0.0286(6) 0.0177(4) 0 0 0
F2 F1- 0.0229(4) 0.0207(4) 0.0109(2) 0 0 0.0016(1)
F3 F1- 0.0162(2) 0.0188(2) 0.0290(2) 0.0051(1) 0.0011(1) -.0108(2)
#End of TTdata_202870-ICSD