
#(C) 2019 by FIZ Karlsruhe - Leibniz Institute for Information Infrastructure.  All rights reserved.
data_202861-ICSD
_database_code_ICSD 202861
_audit_creation_date 1990-06-08
_audit_update_record 2013-02-01
_chemical_name_systematic 'Trisodium pentahydrogen cyclo-tetraarsenate'
_chemical_formula_structural 'Na3 H5 As4 O14'
_chemical_formula_sum 'H5 As4 Na3 O14'
_exptl_crystal_density_diffrn 3.55
_publ_section_title 'Structure cristalline de Na3 H5 As4 O14'
loop_
_citation_id
_citation_journal_full
_citation_year
_citation_journal_volume
_citation_page_first
_citation_page_last
_citation_journal_id_ASTM
primary 'Journal of Solid State Chemistry' 1989 78 130 135 JSSCBI
loop_
_publ_author_name
'Driss, A.'
'Jouini, T.'
_cell_length_a 10.038(1)
_cell_length_b 11.692(2)
_cell_length_c 9.533(1)
_cell_angle_alpha 90.
_cell_angle_beta 90.
_cell_angle_gamma 90.
_cell_volume 1118.83
_cell_formula_units_Z 4
_symmetry_space_group_name_H-M 'P n n a'
_symmetry_Int_Tables_number 52
_refine_ls_R_factor_all 0.048
loop_
_symmetry_equiv_pos_site_id
_symmetry_equiv_pos_as_xyz
1 'x+1/2, -y+1/2, z+1/2'
2 '-x, y+1/2, z+1/2'
3 'x+1/2, y, -z'
4 '-x, -y, -z'
5 '-x+1/2, y+1/2, -z+1/2'
6 'x, -y+1/2, -z+1/2'
7 '-x+1/2, -y, z'
8 'x, y, z'
loop_
_atom_type_symbol
_atom_type_oxidation_number
As5+ 5
Na1+ 1
O2- -2
H1+ 1
loop_
_atom_site_label
_atom_site_type_symbol
_atom_site_symmetry_multiplicity
_atom_site_Wyckoff_symbol
_atom_site_fract_x
_atom_site_fract_y
_atom_site_fract_z
_atom_site_B_iso_or_equiv
_atom_site_occupancy
_atom_site_attached_hydrogens
As1 As5+ 8 e 0.5343(1) 0.3914(1) 0.5455(1) . 1. 0
As2 As5+ 8 e 0.5411(1) 0.4311(1) 0.2228(1) . 1. 0
Na1 Na1+ 4 d 0.2964(6) 0.25 0.75 . 1. 0
Na2 Na1+ 8 e 0.6727(4) 0.1360(4) 0.6288(4) . 1. 0
O1 O2- 8 e 0.4515(7) 0.2592(6) 0.5685(7) . 1. 0
O2 O2- 8 e 0.6834(6) 0.3358(6) 0.6178(8) . 1. 0
O3 O2- 8 e 0.3933(6) 0.4651(5) 0.4665(7) . 1. 0
O4 O2- 8 e 0.5912(6) 0.3516(5) 0.3638(6) . 1. 0
O5 O2- 8 e 0.4710(6) 0.4277(5) 0.7259(6) . 1. 0
O6 O2- 8 e 0.4026(6) 0.3920(6) 0.1454(7) . 1. 0
O7 O2- 8 e 0.6720(6) 0.4198(6) 0.1129(7) . 1. 0
H1 H1+ 8 e 0.42(1) 0.24(1) 0.50(1) 1.(3) 1. 0
H2 H1+ 8 e 0.75(1) 0.37(1) 0.60(1) 0.1(3) 1. 0
H3 H1+ 8 e 0.68(2) 0.50(2) 0.04(2) . 0.5 0
loop_
_atom_site_aniso_label
_atom_site_aniso_type_symbol
_atom_site_aniso_beta_11
_atom_site_aniso_beta_22
_atom_site_aniso_beta_33
_atom_site_aniso_beta_12
_atom_site_aniso_beta_13
_atom_site_aniso_beta_23
As1 As5+ 0.0025(1) 0.0017(1) 0.0034(1) 0.0000(1) 0.0002(1) 0.0002(1)
As2 As5+ 0.0028(1) 0.0020(1) 0.0034(1) 0.0001(1) 0.0002(1) 0.0000(1)
Na1 Na1+ 0.0044(6) 0.0042(5) 0.0061(8) 0 0 0.0009(5)
Na2 Na1+ 0.0051(4) 0.0034(4) 0.0044(5) -.0001(3) 0.0007(4) -.0004(3)
O1 O2- 0.0030(6) 0.0024(5) 0.004(1) -.0011(6) -.0004(7) 0.0005(5)
O2 O2- 0.0006(6) 0.0026(6) 0.0071(9) 0.0001(5) -.0002(7) 0.0004(6)
O3 O2- 0.0022(6) 0.0016(5) 0.0046(8) -.0004(5) -.0004(6) 0.0006(5)
O4 O2- 0.0038(6) 0.0023(5) 0.0015(7) 0.0011(5) -.0009(6) 0.0008(5)
O5 O2- 0.0035(6) 0.0020(4) 0.0049(7) 0.0005(6) 0.0012(7) 0.0009(5)
O6 O2- 0.0041(7) 0.0036(6) 0.0052(9) 0.0005(6) -.0004(7) -.0016(6)
O7 O2- 0.0027(6) 0.0036(6) 0.0047(8) 0.0001(6) 0.0009(7) -.0002(6)
#End of TTdata_202861-ICSD