
#(C) 2018 by FIZ Karlsruhe - Leibniz Institute for Information Infrastructure.  All rights reserved.
data_202930-ICSD
_database_code_ICSD 202930
_audit_creation_date 1990-06-08
_chemical_name_systematic 'Lithium bismuth dipalladium oxide'
_chemical_formula_structural 'Li Bi Pd2 O4'
_chemical_formula_sum 'Bi1 Li1 O4 Pd2'
_exptl_crystal_density_diffrn 7.87
_publ_section_title

;
Complex Palladium Oxides. V. Crystal Structure of Li Bi Pd2 O4: An Example of
Three Different Fourfold Coordinations of Cations
;
loop_
_citation_id
_citation_journal_full
_citation_year
_citation_journal_volume
_citation_page_first
_citation_page_last
_citation_journal_id_ASTM
primary 'Journal of Solid State Chemistry' 1989 81 58 64 JSSCBI
loop_
_publ_author_name
'Laligant, Y.'
'Le Bail, A.'
'Ferey, G.'
_cell_length_a 6.9109(2)
_cell_length_b 6.9109(2)
_cell_length_c 4.3557(2)
_cell_angle_alpha 90.
_cell_angle_beta 90.
_cell_angle_gamma 90.
_cell_volume 208.03
_cell_formula_units_Z 2
_symmetry_space_group_name_H-M 'P 4/n m m Z'
_symmetry_Int_Tables_number 129
_refine_ls_R_factor_all 0.0412
loop_
_symmetry_equiv_pos_site_id
_symmetry_equiv_pos_as_xyz
1 'y+1/2, x+1/2, -z'
2 '-y, x+1/2, -z'
3 'y+1/2, -x, -z'
4 '-y, -x, -z'
5 'x+1/2, y+1/2, -z'
6 '-x, y+1/2, -z'
7 'x+1/2, -y, -z'
8 '-x, -y, -z'
9 '-y+1/2, -x+1/2, z'
10 'y, -x+1/2, z'
11 '-y+1/2, x, z'
12 'y, x, z'
13 '-x+1/2, -y+1/2, z'
14 'x, -y+1/2, z'
15 '-x+1/2, y, z'
16 'x, y, z'
loop_
_atom_type_symbol
_atom_type_oxidation_number
Bi3+ 3
Pd2+ 2
O2- -2
Li1+ 1
loop_
_atom_site_label
_atom_site_type_symbol
_atom_site_symmetry_multiplicity
_atom_site_Wyckoff_symbol
_atom_site_fract_x
_atom_site_fract_y
_atom_site_fract_z
_atom_site_B_iso_or_equiv
_atom_site_occupancy
_atom_site_attached_hydrogens
Bi1 Bi3+ 2 c 0.25 0.25 0.4956(5) . 1. 0
Pd1 Pd2+ 4 d 0 0 0 . 1. 0
O1 O2- 8 i 0.25 0.9778(7) 0.235(2) 1.4(1) 1. 0
Li1 Li1+ 2 b 0.75 0.25 0.5 2.0(1) 1. 0
loop_
_atom_site_aniso_label
_atom_site_aniso_type_symbol
_atom_site_aniso_beta_11
_atom_site_aniso_beta_22
_atom_site_aniso_beta_33
_atom_site_aniso_beta_12
_atom_site_aniso_beta_13
_atom_site_aniso_beta_23
Bi1 Bi3+ 0.00209(14) 0.00209(14) 0.00656(55) 0 0 0
Pd1 Pd2+ 0.00281(25) 0.00281(25) 0.00759(90) -.00002(17) -.0009(7) -.0009(7)
#End of TTdata_202930-ICSD