
#(C) 2019 by FIZ Karlsruhe - Leibniz Institute for Information Infrastructure.  All rights reserved.
data_202906-ICSD
_database_code_ICSD 202906
_audit_creation_date 1990-06-08
_chemical_name_systematic 'Sodium tetraoxodititanate'
_chemical_formula_structural 'Na (Ti2 O4)'
_chemical_formula_sum 'Na1 O4 Ti2'
_chemical_name_structure_type CaV2O4
_exptl_crystal_density_diffrn 4.12
_publ_section_title

;
Synthesis and Crystal Structure of Na Ti2 O4: A New Mixed-Valence Sodium
Titanate
;
loop_
_citation_id
_citation_journal_full
_citation_year
_citation_journal_volume
_citation_page_first
_citation_page_last
_citation_journal_id_ASTM
primary 'Journal of Solid State Chemistry' 1989 79 212 217 JSSCBI
loop_
_publ_author_name
'Akimoto, J.'
'Takei, H.'
_cell_length_a 9.2615(10)
_cell_length_b 10.7537(7)
_cell_length_c 2.9556(3)
_cell_angle_alpha 90.
_cell_angle_beta 90.
_cell_angle_gamma 90.
_cell_volume 294.36
_cell_formula_units_Z 4
_symmetry_space_group_name_H-M 'P n a m'
_symmetry_Int_Tables_number 62
_refine_ls_R_factor_all 0.029
loop_
_symmetry_equiv_pos_site_id
_symmetry_equiv_pos_as_xyz
1 'x+1/2, -y+1/2, z'
2 'x, y, -z+1/2'
3 '-x+1/2, y+1/2, z+1/2'
4 '-x, -y, -z'
5 '-x+1/2, y+1/2, -z'
6 '-x, -y, z+1/2'
7 'x+1/2, -y+1/2, -z+1/2'
8 'x, y, z'
loop_
_atom_type_symbol
_atom_type_oxidation_number
Na1+ 1
Ti3+ 3.5
O2- -2
loop_
_atom_site_label
_atom_site_type_symbol
_atom_site_symmetry_multiplicity
_atom_site_Wyckoff_symbol
_atom_site_fract_x
_atom_site_fract_y
_atom_site_fract_z
_atom_site_B_iso_or_equiv
_atom_site_occupancy
_atom_site_attached_hydrogens
Na1 Na1+ 4 c 0.24363(12) 0.34683(11) 0.75 . 1. 0
Ti1 Ti3+ 4 c 0.06624(4) 0.10964(4) 0.75 . 1. 0
Ti2 Ti3+ 4 c 0.08209(4) 0.60455(4) 0.75 . 1. 0
O1 O2- 4 c 0.2884(2) 0.6512(2) 0.75 . 1. 0
O2 O2- 4 c 0.3875(2) 0.9803(2) 0.75 . 1. 0
O3 O2- 4 c 0.4795(2) 0.2177(2) 0.75 . 1. 0
O4 O2- 4 c 0.0801(2) 0.9304(2) 0.75 . 1. 0
loop_
_atom_site_aniso_label
_atom_site_aniso_type_symbol
_atom_site_aniso_beta_11
_atom_site_aniso_beta_22
_atom_site_aniso_beta_33
_atom_site_aniso_beta_12
_atom_site_aniso_beta_13
_atom_site_aniso_beta_23
Na1 Na1+ 0.00198(10) 0.00181(8) 0.00226(11) -.00004(7) 0 0
Ti1 Ti3+ 0.00102(3) 0.00076(2) 0.0141(3) -.00013(2) 0 0
Ti2 Ti3+ 0.00113(3) 0.00067(2) 0.00117(3) -.00002(2) 0 0
O1 O2- 0.00108(2) 0.00144(10) 0.00159(14) -.00014(9) 0 0
O2 O2- 0.00107(12) 0.00079(9) 0.00131(13) 0.00003(8) 0 0
O3 O2- 0.00173(13) 0.00064(8) 0.00142(13) -.00030(9) 0 0
O4 O2- 0.00165(13) 0.00081(9) 0.00132(13) 0.00021(9) 0 0
#End of TTdata_202906-ICSD