
#(C) 2018 by FIZ Karlsruhe - Leibniz Institute for Information Infrastructure.  All rights reserved.
data_203030-ICSD
_database_code_ICSD 203030
_audit_creation_date 1990-12-27
_chemical_name_systematic 'Pentalithium antimony(V) oxide'
_chemical_formula_structural 'Li5 Sb O5'
_chemical_formula_sum 'Li5 O5 Sb1'
_exptl_crystal_density_diffrn 3.7
_publ_section_title
'The Structures of Li5 Bi O5 and Li5 Sb O5 From Powder Neutron Diffraction'
loop_
_citation_id
_citation_journal_full
_citation_year
_citation_journal_volume
_citation_page_first
_citation_page_last
_citation_journal_id_ASTM
primary 'Materials Research Bulletin' 1989 24 973 980 MRBUAC
loop_
_publ_author_name
'Greaves, C.'
'Katib, S.M.A.'
_cell_length_a 9.724(2)
_cell_length_b 3.984(1)
_cell_length_c 5.792(1)
_cell_angle_alpha 90.
_cell_angle_beta 109.04(2)
_cell_angle_gamma 90.
_cell_volume 212.11
_cell_formula_units_Z 2
_symmetry_space_group_name_H-M 'C 1 2/m 1'
_symmetry_Int_Tables_number 12
_refine_ls_R_factor_all 0.033
loop_
_symmetry_equiv_pos_site_id
_symmetry_equiv_pos_as_xyz
1 '-x, y, -z'
2 '-x, -y, -z'
3 'x, -y, z'
4 'x, y, z'
5 '-x+1/2, y+1/2, -z'
6 '-x+1/2, -y+1/2, -z'
7 'x+1/2, -y+1/2, z'
8 'x+1/2, y+1/2, z'
loop_
_atom_type_symbol
_atom_type_oxidation_number
Sb5+ 5
Li1+ 1
O2- -2
loop_
_atom_site_label
_atom_site_type_symbol
_atom_site_symmetry_multiplicity
_atom_site_Wyckoff_symbol
_atom_site_fract_x
_atom_site_fract_y
_atom_site_fract_z
_atom_site_B_iso_or_equiv
_atom_site_occupancy
_atom_site_attached_hydrogens
Sb1 Sb5+ 2 a 0 0 0 0.83(5) 1. 0
Li1 Li1+ 2 c 0 0 0.5 1.14(5) 1. 0
Li2 Li1+ 4 i 0.307(1) 0 0.147(2) 1.14(5) 1. 0
Li3 Li1+ 4 i 0.286(1) 0 0.654(1) 1.14(5) 1. 0
O1 O2- 2 b 0.5 0 0 1.00(3) 1. 0
O2 O2- 4 i 0.1576(3) 0 0.3140(5) 1.00(3) 1. 0
O3 O2- 4 i 0.1426(4) 0 0.8264(6) 1.00(3) 1. 0
#End of TTdata_203030-ICSD