
#(C) 2019 by FIZ Karlsruhe - Leibniz Institute for Information Infrastructure.  All rights reserved.
data_20426-ICSD
_database_code_ICSD 20426
_audit_creation_date 1982-12-31
_chemical_name_systematic 'Pentasodium terbium tungstate'
_chemical_formula_structural 'Na5 Tb (W O4)4'
_chemical_formula_sum 'Na5 O16 Tb1 W4'
_chemical_name_structure_type Na5Lu(WO4)4
_exptl_crystal_density_diffrn 5.61
_publ_section_title

;
Fine changes in the structure of Scheelite-like Na5 Tr (E O4)4 with a
variation in their elemental composition
;
loop_
_citation_id
_citation_journal_full
_citation_year
_citation_journal_volume
_citation_page_first
_citation_page_last
_citation_journal_id_ASTM
primary Kristallografiya 1982 27 134 139 KRISAJ
loop_
_publ_author_name
'Efremov, V.A.'
'Trunov, V.K.'
'Berezina, T.A.'
_cell_length_a 11.468(2)
_cell_length_b 11.468(2)
_cell_length_c 11.385(4)
_cell_angle_alpha 90.
_cell_angle_beta 90.
_cell_angle_gamma 90.
_cell_volume 1497.3
_cell_formula_units_Z 4
_symmetry_space_group_name_H-M 'I 41/a Z'
_symmetry_Int_Tables_number 88
_refine_ls_R_factor_all 0.041
loop_
_symmetry_equiv_pos_site_id
_symmetry_equiv_pos_as_xyz
1 '-y+3/4, x+3/4, -z+3/4'
2 'y+1/4, -x+3/4, -z+3/4'
3 'x, y+1/2, -z'
4 '-x, -y, -z'
5 'y+1/4, -x+1/4, z+1/4'
6 '-y+3/4, x+1/4, z+1/4'
7 '-x, -y+1/2, z'
8 'x, y, z'
9 '-y+1/4, x+1/4, -z+1/4'
10 'y+3/4, -x+1/4, -z+1/4'
11 'x+1/2, y, -z+1/2'
12 '-x+1/2, -y+1/2, -z+1/2'
13 'y+3/4, -x+3/4, z+3/4'
14 '-y+1/4, x+3/4, z+3/4'
15 '-x+1/2, -y, z+1/2'
16 'x+1/2, y+1/2, z+1/2'
loop_
_atom_type_symbol
_atom_type_oxidation_number
W6+ 6
Tb3+ 3
Na1+ 1
O2- -2
loop_
_atom_site_label
_atom_site_type_symbol
_atom_site_symmetry_multiplicity
_atom_site_Wyckoff_symbol
_atom_site_fract_x
_atom_site_fract_y
_atom_site_fract_z
_atom_site_B_iso_or_equiv
_atom_site_occupancy
_atom_site_attached_hydrogens
W1 W6+ 16 f 0.18231(9) 0.34352(9) 0.38649(9) 0.69 1. 0
Tb1 Tb3+ 4 a 0 0.25 0.125 0.61 1. 0
Na1 Na1+ 4 b 0 0.25 0.625 1.63 1. 0
Na2 Na1+ 16 f 0.1196(10) 0.0463(10) 0.3441(10) 1.23 1. 0
O1 O2- 16 f 0.1802(19) 0.4642(18) 0.4799(17) 1.28 1. 0
O2 O2- 16 f 0.1504(18) 0.2200(17) 0.4749(16) 1.19 1. 0
O3 O2- 16 f 0.0614(18) 0.3625(20) 0.2879(16) 1.17 1. 0
O4 O2- 16 f 0.3206(19) 0.3316(20) 0.3094(17) 1.16 1. 0
#End of TTdata_20426-ICSD