
#(C) 2018 by FIZ Karlsruhe - Leibniz Institute for Information Infrastructure.  All rights reserved.
data_20558-ICSD
_database_code_ICSD 20558
_audit_creation_date 1982-12-31
_chemical_name_systematic 'Sodium lithium catena-vanadate (.7/1.3/2)'
_chemical_formula_structural 'Na.66 Li1.34 V2 O6'
_chemical_formula_sum 'Li1.34 Na0.66 O6 V2'
_chemical_name_structure_type NaKV2O6
_exptl_crystal_density_diffrn 2.97
_publ_section_title
'The crystal structure of vanadium pyroxenes Nax Li(2-x) V2 O6'
loop_
_citation_id
_citation_journal_full
_citation_year
_citation_journal_volume
_citation_page_first
_citation_page_last
_citation_journal_id_ASTM
primary Kristallografiya 1982 27 1094 1097 KRISAJ
loop_
_publ_author_name
'Bubnova, R.S.'
'Filatov, S.K.'
'Rozhdestvenskaya, I.V.'
'Gronin, V.S.'
'Zonn, Z.N.'
_cell_length_a 10.146(1)
_cell_length_b 8.869(1)
_cell_length_c 5.854(1)
_cell_angle_alpha 90.
_cell_angle_beta 109.48(1)
_cell_angle_gamma 90.
_cell_volume 496.62
_cell_formula_units_Z 4
_symmetry_space_group_name_H-M 'C 1 2/c 1'
_symmetry_Int_Tables_number 15
_refine_ls_R_factor_all 0.036
loop_
_symmetry_equiv_pos_site_id
_symmetry_equiv_pos_as_xyz
1 'x, -y, z+1/2'
2 '-x, -y, -z'
3 '-x, y, -z+1/2'
4 'x, y, z'
5 'x+1/2, -y+1/2, z+1/2'
6 '-x+1/2, -y+1/2, -z'
7 '-x+1/2, y+1/2, -z+1/2'
8 'x+1/2, y+1/2, z'
loop_
_atom_type_symbol
_atom_type_oxidation_number
V5+ 5
Na1+ 1
Li1+ 1
O2- -2
loop_
_atom_site_label
_atom_site_type_symbol
_atom_site_symmetry_multiplicity
_atom_site_Wyckoff_symbol
_atom_site_fract_x
_atom_site_fract_y
_atom_site_fract_z
_atom_site_B_iso_or_equiv
_atom_site_occupancy
_atom_site_attached_hydrogens
V1 V5+ 8 f 0.2891(1) 0.0928(1) 0.2521(1) . 1. 0
Na1 Na1+ 4 e 0.5 0.2081(3) 0.75 . 0.67(3) 0
Li1 Li1+ 4 e 0.5 0.4168(9) 0.25 . 1. 0
Li2 Li1+ 4 e 0.5 0.2081(9) 0.75 . 0.33(2) 0
O1 O2- 8 f 0.1164(2) 0.0976(3) 0.1526(4) . 1. 0
O2 O2- 8 f 0.3525(2) 0.2634(3) 0.2917(4) . 1. 0
O3 O2- 8 f 0.3562(2) -.0060(3) 0.0461(4) . 1. 0
loop_
_atom_site_aniso_label
_atom_site_aniso_type_symbol
_atom_site_aniso_B_11
_atom_site_aniso_B_22
_atom_site_aniso_B_33
_atom_site_aniso_B_12
_atom_site_aniso_B_13
_atom_site_aniso_B_23
V1 V5+ 0.88 2.5 0.78 -.11 0.25 -.04
Na1 Na1+ 2.1 2.36 2.38 0 0.09 0
Li1 Li1+ 1.94 2.65 2.38 0 0.83 0
Li2 Li1+ 2.1 2.36 2.38 0 0.09 0
O1 O2- 1.07 3.28 1.52 -.06 0.27 0.38
O2 O2- 2.27 2.99 2.1 -.73 0.71 -.23
O3 O2- 1.29 4.17 1.33 -.05 0.38 -.79
#End of TTdata_20558-ICSD