
#(C) 2019 by FIZ Karlsruhe - Leibniz Institute for Information Infrastructure.  All rights reserved.
data_20643-ICSD
_database_code_ICSD 20643
_audit_creation_date 1983-12-31
_audit_update_record 2019-02-01
_chemical_name_systematic
'Sodium tribarium trineodymium heptaoxo-disilicate tridecaoxo-tetrasilicate'
_chemical_formula_structural 'Na Ba3 Nd3 (Si2 O7) (Si4 O13)'
_chemical_formula_sum 'Ba3 Na1 Nd3 O20 Si6'
_chemical_name_structure_type NaBa3Nd3(Si2O7)(Si4O13)
_exptl_crystal_density_diffrn 4.5
_publ_section_title

;
A new insular silicate radical (Si4 O13) in the structure Na Ba3 Nd3 (Si2 O7)
(Si4 O13)
;
loop_
_citation_id
_citation_journal_full
_citation_year
_citation_journal_volume
_citation_page_first
_citation_page_last
_citation_journal_id_ASTM
primary 'Doklady Akademii Nauk SSSR' 1983 272 865 869 DANKAS
loop_
_publ_author_name
'Malinovskii, Yu.A.'
'Baturin, S.V.'
'Bondareva, O.S.'
_cell_length_a 5.590(2)
_cell_length_b 24.136(6)
_cell_length_c 14.830(4)
_cell_angle_alpha 90.
_cell_angle_beta 90.
_cell_angle_gamma 90.
_cell_volume 2000.87
_cell_formula_units_Z 4
_symmetry_space_group_name_H-M 'C 2 c m'
_symmetry_Int_Tables_number 40
_refine_ls_R_factor_all 0.041
loop_
_symmetry_equiv_pos_site_id
_symmetry_equiv_pos_as_xyz
1 'x, -y, z+1/2'
2 'x, y, -z+1/2'
3 'x, -y, -z'
4 'x, y, z'
5 'x+1/2, -y+1/2, z+1/2'
6 'x+1/2, y+1/2, -z+1/2'
7 'x+1/2, -y+1/2, -z'
8 'x+1/2, y+1/2, z'
loop_
_atom_type_symbol
_atom_type_oxidation_number
Nd3+ 3
Ba2+ 2
Si4+ 4
O2- -2
Na1+ 1
loop_
_atom_site_label
_atom_site_type_symbol
_atom_site_symmetry_multiplicity
_atom_site_Wyckoff_symbol
_atom_site_fract_x
_atom_site_fract_y
_atom_site_fract_z
_atom_site_B_iso_or_equiv
_atom_site_occupancy
_atom_site_attached_hydrogens
Nd1 Nd3+ 4 a 0 0 0.5 1.04(2) 1. 0
Nd2 Nd3+ 8 c 0.5044(3) 0.11146(3) 0.46863(6) 1.05(2) 1. 0
Ba1 Ba2+ 4 b 0.0716(4) 0.08199(5) 0.25 1.22(2) 1. 0
Ba2 Ba2+ 8 c 0.0722(3) 0.24324(4) 0.38628(7) 1.27(2) 1. 0
Si1 Si4+ 4 b 0.036(1) 0.319(3) 0.75 1.05(8) 1. 0
Si2 Si4+ 4 b 0.097(1) 0.1898(3) 0.75 1.05(8) 1. 0
Si3 Si4+ 8 c 0.058(1) 0.5005(2) 0.3587(3) 1.01(5) 1. 0
Si4 Si4+ 8 c 0.038(1) 0.1529(2) 0.5577(3) 1.07(6) 1. 0
O1 O2- 8 c 0.899(3) 0.3424(6) 0.6629(9) 1.9(2) 1. 0
O2 O2- 8 c 0.259(3) 0.4514(5) 0.6196(9) 1.5(2) 1. 0
O3 O2- 4 b 0.322(4) 0.3236(7) 0.75 1.2(2) 1. 0
O4 O2- 4 b 0.379(4) 0.1902(8) 0.75 1.5(3) 1. 0
O5 O2- 8 c 0.116(3) 0.0916(6) 0.5325(9) 1.9(2) 1. 0
O6 O2- 8 c 0.964(3) 0.1577(5) 0.6659(8) 1.7(2) 1. 0
O7 O2- 4 b 0.042(3) 0.4855(6) 0.25 1.2(2) 1. 0
O8 O2- 8 c 0.140(3) 0.4462(6) 0.4151(9) 1.8(2) 1. 0
O9 O2- 8 c 0.267(3) 0.1902(5) 0.5335(8) 1.2(2) 1. 0
O10 O2- 8 c 0.307(3) 0.3256(6) 0.4961(9) 1.7(3) 1. 0
O11 O2- 4 b 0.466(4) 0.2495(8) 0.25 1.9(3) 1. 0
O12 O2- 8 c 0.802(3) 0.4728(5) 0.6110(8) 1.4(2) 1. 0
Na1 Na1+ 4 b 0.145(2) 0.3890(4) 0.25 2.13(8) 1. 0
#End of TTdata_20643-ICSD