
#(C) 2019 by FIZ Karlsruhe - Leibniz Institute for Information Infrastructure.  All rights reserved.
data_20774-ICSD
_database_code_ICSD 20774
_audit_creation_date 1984-11-20
_audit_update_record 2019-02-01
_chemical_name_systematic 'Trisodium yttrium catena-silicate'
_chemical_formula_structural 'Na3 Y Si3 O9'
_chemical_formula_sum 'Na3 O9 Si3 Y1'
_chemical_name_structure_type Na3YSi3O9
_exptl_crystal_density_diffrn 2.96
_publ_section_title
'The crystal structure of rare-earth Na, Y-metasilicate Na3 Y Si3 O9'
loop_
_citation_id
_citation_journal_full
_citation_year
_citation_journal_volume
_citation_page_first
_citation_page_last
_citation_journal_id_ASTM
primary 'Doklady Akademii Nauk SSSR' 1980 252 875 879 DANKAS
loop_
_publ_author_name
'Maksimov, B.A.'
'Kalinin, V.P.'
'Merinov, B.V.'
'Ilyukhin, V.V.'
'Belov, N.V.'
_cell_length_a 15.033(1)
_cell_length_b 15.142(1)
_cell_length_c 15.213(1)
_cell_angle_alpha 90.
_cell_angle_beta 90.
_cell_angle_gamma 90.
_cell_volume 3462.93
_cell_formula_units_Z 16
_symmetry_space_group_name_H-M 'P 21 21 21'
_symmetry_Int_Tables_number 19
_refine_ls_R_factor_all 0.068
loop_
_symmetry_equiv_pos_site_id
_symmetry_equiv_pos_as_xyz
1 '-x, y+1/2, -z+1/2'
2 'x+1/2, -y+1/2, -z'
3 '-x+1/2, -y, z+1/2'
4 'x, y, z'
loop_
_atom_type_symbol
_atom_type_oxidation_number
Y3+ 3
Si4+ 4
Na1+ 1
O2- -2
loop_
_atom_site_label
_atom_site_type_symbol
_atom_site_symmetry_multiplicity
_atom_site_Wyckoff_symbol
_atom_site_fract_x
_atom_site_fract_y
_atom_site_fract_z
_atom_site_B_iso_or_equiv
_atom_site_occupancy
_atom_site_attached_hydrogens
Y1 Y3+ 4 a 0.3784(2) 0.3750(2) 0.3671(2) 1.0(4) 1. 0
Y2 Y3+ 4 a 0.1285(2) 0.1293(2) 0.1139(2) 1.06(4) 1. 0
Y3 Y3+ 4 a 0.3791(2) 0.1124(2) 0.8585(2) 1.00(4) 1. 0
Y4 Y3+ 4 a 0.1350(2) 0.3852(2) 0.6206(2) 0.86(4) 1. 0
Si1 Si4+ 4 a 0.4666(5) 0.4685(5) 0.7545(5) 0.7(1) 1. 0
Si2 Si4+ 4 a 0.4786(5) 0.2464(5) 0.0225(5) 0.8(1) 1. 0
Si3 Si4+ 4 a 0.2299(5) 0.4728(4) 0.0123(4) 0.8(1) 1. 0
Si4 Si4+ 4 a 0.0217(4) 0.0310(4) 0.7784(4) 0.9(1) 1. 0
Si5 Si4+ 4 a 0.4945(5) 0.2714(5) 0.7231(4) 0.8(1) 1. 0
Si6 Si4+ 4 a 0.2234(5) 0.4727(4) 0.2208(5) 0.9(1) 1. 0
Si7 Si4+ 4 a 0.2849(5) 0.0034(5) 0.2222(5) 0.8(1) 1. 0
Si8 Si4+ 4 a 0.2783(5) 0.2751(5) 0.9921(5) 0.8(1) 1. 0
Si9 Si4+ 4 a 0.4883(5) 0.2500(5) 0.5220(5) 1.2(1) 1. 0
Si10 Si4+ 4 a 0.2283(5) 0.0204(5) 0.5229(5) 1.1(1) 1. 0
Si11 Si4+ 4 a 0.0126(5) 0.2395(5) 0.7763(5) 1.1(1) 1. 0
Si12 Si4+ 4 a 0.2836(6) 0.2336(5) 0.5158(5) 1.0(1) 1. 0
Na1 Na1+ 4 a 0.1509(7) 0.3694(7) 0.3881(8) 1.4(4) 1. 0
Na2 Na1+ 4 a 0.1190(7) 0.1680(7) 0.6301(8) 2.1(6) 1. 0
Na3 Na1+ 4 a 0.3935(6) 0.0936(7) 0.6363(7) 1.9(3) 1. 0
Na4 Na1+ 4 a 0.4438(8) 0.4468(8) 0.9972(8) 1.6(6) 1. 0
Na5 Na1+ 4 a 0.1619(7) 0.1227(8) 0.8977(7) 1.7(8) 1. 0
Na6 Na1+ 4 a 0.1205(7) 0.4014(6) 0.8488(6) 1.0(7) 1. 0
Na7 Na1+ 4 a 0.1524(8) 0.1242(9) 0.3537(8) 2.0(7) 1. 0
Na8 Na1+ 4 a 0.0036(9) 0.0090(9) 0.4963(9) 2.8(8) 1. 0
Na9 Na1+ 4 a 0.0978(9) 0.3449(8) 0.1278(9) 2.5(9) 1. 0
Na10 Na1+ 4 a 0.2944(8) 0.2467(8) 0.2020(9) 2.3(9) 1. 0
Na11 Na1+ 4 a 0.4119(9) 0.1261(9) 0.3828(9) 3.6(8) 1. 0
Na12 Na1+ 4 a 0.2889(9) 0.2913(9) 0.7493(9) 2.2(8) 1. 0
O1 O2- 4 a 0.356(1) 0.487(1) 0.460(2) 1.9(9) 1. 0
O2 O2- 4 a 0.091(1) 0.291(1) 0.729(1) 0.7(8) 1. 0
O3 O2- 4 a 0.424(1) 0.256(1) 0.276(1) 1.9(9) 1. 0
O4 O2- 4 a 0.478(1) 0.163(1) 0.957(1) 0.8(9) 1. 0
O5 O2- 4 a 0.389(1) 0.214(1) 0.537(1) 1.5(9) 1. 0
O6 O2- 4 a 0.273(1) 0.073(1) 0.764(1) 1.8(8) 1. 0
O7 O2- 4 a 0.241(1) 0.376(1) 0.965(1) 0.8(7) 1. 0
O8 O2- 4 a 0.282(1) 0.218(1) 0.902(1) 1.(18) 1. 0
O9 O2- 4 a 0.042(1) 0.331(1) 0.520(1) 2.(16) 1. 0
O10 O2- 4 a 0.378(1) 0.013(1) 0.278(1) 1.(17) 1. 0
O11 O2- 4 a 0.079(1) 0.218(1) 0.217(1) 1.(16) 1. 0
O12 O2- 4 a 0.184(1) 0.028(1) 0.622(1) 1.4(9) 1. 0
O13 O2- 4 a 0.029(1) 0.231(1) 0.379(1) 1.(11) 1. 0
O14 O2- 4 a 0.201(1) 0.451(1) 0.115(1) 1.(9) 1. 0
O15 O2- 4 a 0.476(1) 0.004(2) 0.823(1) 2.(19) 1. 0
O16 O2- 4 a 0.379(1) 0.291(1) 0.031(1) 1.(14) 1. 0
O17 O2- 4 a 0.478(1) 0.475(1) 0.315(1) 1.(13) 1. 0
O18 O2- 4 a 0.223(1) 0.436(2) 0.726(1) 0.9(9) 1. 0
O19 O2- 4 a 0.242(1) 0.135(1) 0.496(1) 1.(17) 1. 0
O20 O2- 4 a 0.001(1) 0.284(1) 0.873(1) 0.9(8) 1. 0
O21 O2- 4 a 0.436(1) 0.364(1) 0.735(1) 1.(16) 1. 0
O22 O2- 4 a 0.492(1) 0.341(1) 0.463(2) 1.(17) 1. 0
O23 O2- 4 a 0.182(1) 0.472(1) 0.509(1) 0.6(3) 1. 0
O24 O2- 4 a 0.022(1) 0.030(1) 0.153(1) 1.(13) 1. 0
O25 O2- 4 a 0.176(1) 0.017(1) 0.028(1) 1.(16) 1. 0
O26 O2- 4 a 0.045(1) 0.138(1) 0.796(1) 1.(12) 1. 0
O27 O2- 4 a 0.232(1) 0.094(1) 0.221(1) 1.(15) 1. 0
O28 O2- 4 a 0.124(1) 0.477(1) 0.269(1) 0.8(6) 1. 0
O29 O2- 4 a 0.023(1) 0.484(1) 0.638(1) 1.(11) 1. 0
O30 O2- 4 a 0.431(1) 0.193(1) 0.745(1) 1.(16) 1. 0
O31 O2- 4 a 0.043(1) 0.175(1) 1.005(1) 1.(16) 1. 0
O32 O2- 4 a 0.220(1) 0.238(1) 0.069(1) 1.(11) 1. 0
O33 O2- 4 a 0.270(1) 0.392(1) 0.267(1) 1.(16) 1. 0
O34 O2- 4 a 0.278(1) 0.287(2) 0.427(1) 0.6(4) 1. 0
O35 O2- 4 a 0.339(1) 0.006(1) 0.953(1) 0.3(3) 1. 0
O36 O2- 4 a 0.232(1) 0.274(1) 0.594(1) 1.(14) 1. 0
#End of TTdata_20774-ICSD