
#(C) 2019 by FIZ Karlsruhe - Leibniz Institute for Information Infrastructure.  All rights reserved.
data_20830-ICSD
_database_code_ICSD 20830
_audit_creation_date 1985-03-06
_audit_update_record 2012-08-01
_chemical_name_systematic 'Disodium pentamagnesium molybdate'
_chemical_formula_structural 'Na2 Mg5 (Mo O4)6'
_chemical_formula_sum 'Mg5 Mo6 Na2 O24'
_chemical_name_structure_type Fe7(PO4)6
_exptl_crystal_density_diffrn 3.5
_publ_section_title

;
An X-ray structural investigation of double molybdates Na2 R5 (Mo O4)6, where
R = Mg, Co, Zn
;
loop_
_citation_id
_citation_journal_full
_citation_year
_citation_journal_volume
_citation_page_first
_citation_page_last
_citation_journal_id_ASTM
primary Kristallografiya 1980 25 1148 1154 KRISAJ
loop_
_publ_author_name
'Klevtsova, R.F.'
'Kim, V.G.'
'Klevtsov, P.N.'
_cell_length_a 10.575(5)
_cell_length_b 8.617(4)
_cell_length_c 6.951(3)
_cell_angle_alpha 103.42(4)
_cell_angle_beta 102.67(4)
_cell_angle_gamma 112.37(3)
_cell_volume 535.38
_cell_formula_units_Z 1
_symmetry_space_group_name_H-M 'P -1'
_symmetry_Int_Tables_number 2
_refine_ls_R_factor_all 0.051
loop_
_symmetry_equiv_pos_site_id
_symmetry_equiv_pos_as_xyz
1 '-x, -y, -z'
2 'x, y, z'
loop_
_atom_type_symbol
_atom_type_oxidation_number
Mo6+ 6
Mg2+ 2
Na1+ 1
O2- -2
loop_
_atom_site_label
_atom_site_type_symbol
_atom_site_symmetry_multiplicity
_atom_site_Wyckoff_symbol
_atom_site_fract_x
_atom_site_fract_y
_atom_site_fract_z
_atom_site_B_iso_or_equiv
_atom_site_occupancy
_atom_site_attached_hydrogens
Mo1 Mo6+ 2 i 0.1662 0.2602 0.2832(1) . 1. 0
Mo2 Mo6+ 2 i 0.2399 0.9044 0.4546(1) . 1. 0
Mo3 Mo6+ 2 i 0.3702 0.6294 -.0347(1) . 1. 0
Mg1 Mg2+ 2 i 0.1043(2) 0.1487(2) 0.7273(3) . 1. 0
Mg2 Mg2+ 2 i 0.4829(2) 0.6829(2) 0.5246(3) . 1. 0
Mg3 Mg2+ 2 i 0.3028(3) 0.0120(3) 0.0165(3) . 0.5 0
Na1 Na1+ 2 i 0.3028(3) 0.0120(3) 0.0165(3) . 0.5 0
Na2 Na1+ 1 c 0 0.5 0 3.13 1. 0
O1 O2- 2 i 0.3522(4) 0.4106(5) 0.4328(5) 1.1 1. 0
O2 O2- 2 i 0.1485(4) 0.1392(5) 0.0283(6) 1.4 1. 0
O3 O2- 2 i 0.0769(5) 0.3877(6) 0.2548(7) 2.1 1. 0
O4 O2- 2 i 0.0790(4) 0.1091(5) 0.4083(6) 1.1 1. 0
O5 O2- 2 i 0.0600(4) 0.7656(5) 0.2770(6) 1.4 1. 0
O6 O2- 2 i 0.3265(5) 0.7733(6) 0.4918(6) 1.7 1. 0
O7 O2- 2 i 0.2341(4) 0.0112(5) 0.6994(6) 1.5 1. 0
O8 O2- 2 i 0.3389(4) 0.0700(5) 0.3584(6) 1.5 1. 0
O9 O2- 2 i 0.4654(5) 0.6537(6) 0.2170(7) 1.8 1. 0
O10 O2- 2 i 0.4934(5) 0.7291(6) -.1607(6) 1.6 1. 0
O11 O2- 2 i 0.2533(6) 0.4046(7) -.1810(8) 2.6 1. 0
O12 O2- 2 i 0.2591(8) 0.7306(10) -.0099(12) 4. 1. 0
loop_
_atom_site_aniso_label
_atom_site_aniso_type_symbol
_atom_site_aniso_B_11
_atom_site_aniso_B_22
_atom_site_aniso_B_33
_atom_site_aniso_B_12
_atom_site_aniso_B_13
_atom_site_aniso_B_23
Mo1 Mo6+ 0.23 0.38 0.7 0.06 0.13 0.22
Mo2 Mo6+ 0.25 0.38 0.84 0.09 0.19 0.2
Mo3 Mo6+ 0.26 0.62 0.74 0.11 0.15 0.21
Mg1 Mg2+ 0.16 0.34 0.68 0 0.11 0.18
Mg2 Mg2+ 0.19 0.24 0.63 -.03 0.08 0.16
Mg3 Mg2+ 0.59 1.24 1.08 0.37 0.27 0.62
Na1 Na1+ 0.59 1.24 1.08 0.37 0.27 0.62
#End of TTdata_20830-ICSD