
#(C) 2019 by FIZ Karlsruhe - Leibniz Institute for Information Infrastructure.  All rights reserved.
data_20922-ICSD
_database_code_ICSD 20922
_audit_creation_date 1985-07-16
_audit_update_record 2012-08-01
_chemical_name_systematic '15-sodium tridysprosium cyclo-dodecasilicate'
_chemical_formula_structural 'Na15.6 Dy3 (Si12 O36)'
_chemical_formula_sum 'Dy3 Na15.6 O36 Si12'
_exptl_crystal_density_diffrn 3.28
_cell_measurement_temperature 300.
_publ_section_title
'Conductivity chanals in the solid electrolytes Na5 Dy Si4 O12'
loop_
_citation_id
_citation_journal_full
_citation_year
_citation_journal_volume
_citation_page_first
_citation_page_last
_citation_journal_id_ASTM
primary 'Khimicheskaya Fizika' 1983 1983 1603 1610 KHFID9
loop_
_publ_author_name
'Ponomarev, V.I.'
'Filipenko, O.S.'
'Chekhlov, A.N.'
'Avtomyan, L.O.'
_cell_length_a 22.096(5)
_cell_length_b 22.096(5)
_cell_length_c 12.619(4)
_cell_angle_alpha 90.
_cell_angle_beta 90.
_cell_angle_gamma 120.
_cell_volume 5335.6
_cell_formula_units_Z 6
_symmetry_space_group_name_H-M 'R -3 c H'
_symmetry_Int_Tables_number 167
_refine_ls_R_factor_all 0.0346
loop_
_symmetry_equiv_pos_site_id
_symmetry_equiv_pos_as_xyz
1 'x-y, -y, -z+1/2'
2 '-x, -x+y, -z+1/2'
3 'y, x, -z+1/2'
4 'x-y, x, -z'
5 'y, -x+y, -z'
6 '-x, -y, -z'
7 '-x+y, y, z+1/2'
8 'x, x-y, z+1/2'
9 '-y, -x, z+1/2'
10 '-x+y, -x, z'
11 '-y, x-y, z'
12 'x, y, z'
13 'x-y+2/3, -y+1/3, -z+5/6'
14 '-x+2/3, -x+y+1/3, -z+5/6'
15 'y+2/3, x+1/3, -z+5/6'
16 'x-y+2/3, x+1/3, -z+1/3'
17 'y+2/3, -x+y+1/3, -z+1/3'
18 '-x+2/3, -y+1/3, -z+1/3'
19 '-x+y+2/3, y+1/3, z+5/6'
20 'x+2/3, x-y+1/3, z+5/6'
21 '-y+2/3, -x+1/3, z+5/6'
22 '-x+y+2/3, -x+1/3, z+1/3'
23 '-y+2/3, x-y+1/3, z+1/3'
24 'x+2/3, y+1/3, z+1/3'
25 'x-y+1/3, -y+2/3, -z+1/6'
26 '-x+1/3, -x+y+2/3, -z+1/6'
27 'y+1/3, x+2/3, -z+1/6'
28 'x-y+1/3, x+2/3, -z+2/3'
29 'y+1/3, -x+y+2/3, -z+2/3'
30 '-x+1/3, -y+2/3, -z+2/3'
31 '-x+y+1/3, y+2/3, z+1/6'
32 'x+1/3, x-y+2/3, z+1/6'
33 '-y+1/3, -x+2/3, z+1/6'
34 '-x+y+1/3, -x+2/3, z+2/3'
35 '-y+1/3, x-y+2/3, z+2/3'
36 'x+1/3, y+2/3, z+2/3'
loop_
_atom_type_symbol
_atom_type_oxidation_number
Dy3+ 3
Si4+ 4
O2- -2
Na1+ 1
loop_
_atom_site_label
_atom_site_type_symbol
_atom_site_symmetry_multiplicity
_atom_site_Wyckoff_symbol
_atom_site_fract_x
_atom_site_fract_y
_atom_site_fract_z
_atom_site_B_iso_or_equiv
_atom_site_occupancy
_atom_site_attached_hydrogens
Dy1 Dy3+ 18 e 0.24974(1) 0 0.25 0.6 1. 0
Si1 Si4+ 36 f 0.23545(6) 0.21526(6) 0.02549(10) 0.76 1. 0
Si2 Si4+ 36 f 0.09361(6) 0.18123(6) 0.12333(9) 0.67 1. 0
O1 O2- 36 f 0.2623(2) 0.0229(2) 0.0725(3) 1.4 1. 0
O2 O2- 36 f 0.0737(2) 0.2072(2) 0.0118(3) 1.5 1. 0
O3 O2- 36 f 0.0504(2) 0.0981(2) 0.1302(3) 1.4 1. 0
O4 O2- 36 f 0.3056(2) 0.2420(2) 0.0916(3) 1.3 1. 0
O5 O2- 36 f 0.0835(2) 0.2196(2) 0.2249(3) 1. 1. 0
O6 O2- 36 f 0.1786(2) 0.2099(2) 0.1145(3) 1.4 1. 0
Na1 Na1+ 6 b 0 0 0 1.4 0.179 0
Na2 Na1+ 6 a 0 0 0.25 1.2 0.159 0
Na3 Na1+ 36 f 0.1387(1) 0.0676(1) 0.1399(2) 1.4 0.979 0
Na4 Na1+ 18 e 0.2745(2) 0.2745(2) 0.25 4. 0.455 0
Na5 Na1+ 36 f 0.3322(5) 0.1430(5) 0.0566(18) 4.1 0.79 0
Na6 Na1+ 36 f 0.3277(7) 0.1560(7) 0.1362(24) 4.2 0.554 0
#End of TTdata_20922-ICSD