
#(C) 2019 by FIZ Karlsruhe - Leibniz Institute for Information Infrastructure.  All rights reserved.
data_21482-ICSD
_database_code_ICSD 21482
_audit_creation_date 2019-08-01
_chemical_name_systematic 'Disodium gadolinium carbonate trifluoride'
_chemical_formula_structural 'Na2 Gd (C O3) F3'
_chemical_formula_sum 'C1 F3 Gd1 Na2 O3'
_chemical_name_structure_type Na2YCO3F3
_exptl_crystal_density_diffrn 4.25
_cell_measurement_temperature 293.
_publ_section_title

;
Three alkaline-rare earth cations carbonates with large birefringence in the
deep UV range
;
loop_
_citation_id
_citation_journal_full
_citation_year
_citation_journal_volume
_citation_page_first
_citation_page_last
_citation_journal_id_ASTM
primary 'Journal of Alloys and Compounds' 2018 742 587 593 JALCEU
loop_
_publ_author_name
'Cao, Liling'
'Peng, Guang'
'Yan, Tao'
'Luo, Min'
'Lin, Chensheng'
'Ye, Ning'
_cell_length_a 6.571(6)
_cell_length_b 10.768(8)
_cell_length_c 14.134(12)
_cell_angle_alpha 90.
_cell_angle_beta 90.
_cell_angle_gamma 90.
_cell_volume 1000.07
_cell_formula_units_Z 8
_symmetry_space_group_name_H-M 'P b c a'
_symmetry_Int_Tables_number 61
_refine_ls_R_factor_all 0.0266
loop_
_symmetry_equiv_pos_site_id
_symmetry_equiv_pos_as_xyz
1 'x+1/2, y, -z+1/2'
2 'x, -y+1/2, z+1/2'
3 '-x+1/2, y+1/2, z'
4 '-x, -y, -z'
5 '-x+1/2, -y, z+1/2'
6 '-x, y+1/2, -z+1/2'
7 'x+1/2, -y+1/2, -z'
8 'x, y, z'
loop_
_atom_type_symbol
_atom_type_oxidation_number
Gd3+ 3
Na1+ 1
O2- -2
F1- -1
O2- -2
F1- -1
C4+ 4
loop_
_atom_site_label
_atom_site_type_symbol
_atom_site_symmetry_multiplicity
_atom_site_Wyckoff_symbol
_atom_site_fract_x
_atom_site_fract_y
_atom_site_fract_z
_atom_site_B_iso_or_equiv
_atom_site_occupancy
_atom_site_attached_hydrogens
Gd1 Gd3+ 8 c -0.00574(4) 0.816619(19) 0.014340(16) 0.00759(11) 1 0
Na1 Na1+ 8 c 0.0529(4) 0.49077(15) 0.10729(13) 0.0187(5) 1 0
Na2 Na1+ 8 c 0.2418(3) 0.72165(19) 0.25586(11) 0.0173(5) 1 0
O1 O2- 8 c 0.0055(5) 0.5638(3) 0.2583(2) 0.0151(10) 1 0
F1 F1- 8 c -0.1489(5) 0.3760(2) 0.01974(18) 0.0143(7) 1 0
O2 O2- 8 c -0.0699(6) 0.5142(2) 0.4083(2) 0.0118(8) 1 0
O3 O2- 8 c 0.0553(6) 0.3699(3) 0.3134(2) 0.0178(9) 1 0
F2 F1- 8 c -0.2083(5) 0.6620(2) 0.08113(18) 0.0139(7) 1 0
F3 F1- 8 c 0.3013(5) 0.7810(2) 0.10300(17) 0.0134(7) 1 0
C1 C4+ 8 c -0.0002(8) 0.4848(4) 0.3230(3) 0.0107(11) 1 0
loop_
_atom_site_aniso_label
_atom_site_aniso_type_symbol
_atom_site_aniso_U_11
_atom_site_aniso_U_22
_atom_site_aniso_U_33
_atom_site_aniso_U_12
_atom_site_aniso_U_13
_atom_site_aniso_U_23
Gd1 Gd3+ 0.0059(2) 0.00729(16) 0.00955(17) -0.00021(9) 0.00007(9) -0.00012(7)
Na1 Na1+ 0.0203(16) 0.0190(9) 0.0169(9) -0.0022(9) -0.0012(9) -0.0032(8)
Na2 Na1+ 0.0166(17) 0.0180(8) 0.0172(10) -0.0061(8) -0.0011(9) -0.0012(7)
O1 O2- 0.019(3) 0.0115(16) 0.0144(18) -0.0016(14) -0.0005(13) 0.0049(15)
F1 F1- 0.009(2) 0.0119(12) 0.0218(15) -0.0013(13) -0.0019(12) -0.0022(10)
O2 O2- 0.015(3) 0.0103(14) 0.0101(15) -0.0011(15) 0.0023(14) -0.0013(12)
O3 O2- 0.024(3) 0.0133(15) 0.0163(18) 0.0101(17) 0.0064(16) -0.0020(13)
F2 F1- 0.013(2) 0.0134(12) 0.0158(15) 0.0002(12) -0.0036(12) 0.0052(10)
F3 F1- 0.014(2) 0.0155(12) 0.0105(12) 0.0041(13) -0.0011(11) -0.0013(10)
C1 C4+ 0.007(3) 0.011(2) 0.013(2) -0.0032(19) -0.0004(17) -0.0005(18)
#End of TTdata_21482-ICSD