
#(C) 2019 by FIZ Karlsruhe - Leibniz Institute for Information Infrastructure.  All rights reserved.
data_21803-ICSD
_database_code_ICSD 21803
_audit_creation_date 2019-08-01
_chemical_name_systematic
'Disodium tricopper(II) tetrakis(hydrogenarsenate(V)) dihydrate'
_chemical_formula_structural 'Na2 Cu3 (H As O4)4 (H2 O)2'
_chemical_formula_sum 'H8 As4 Cu3 Na2 O18'
_exptl_crystal_density_diffrn 3.49
_cell_measurement_temperature 293.
_publ_section_title

;
A new copper(II) arsenate, Na2Cu3(AsO3OH)4.4H2O containing discrete
[Cu3O12]18- units: Synthesis, crystal structure and magnetic properties
;
loop_
_citation_id
_citation_journal_full
_citation_year
_citation_journal_volume
_citation_page_first
_citation_page_last
_citation_journal_id_ASTM
primary 'Journal of Solid State Chemistry' 2018 265 55 63 JSSCBI
loop_
_publ_author_name
'Dordevic, Tamara'
'Karanovic, Ljiljana'
'Jaglicic, Zvonko'
_cell_length_a 8.7089(17)
_cell_length_b 9.7452(19)
_cell_length_c 9.3353(19)
_cell_angle_alpha 90
_cell_angle_beta 92.63(3)
_cell_angle_gamma 90
_cell_volume 791.45
_cell_formula_units_Z 2
_symmetry_space_group_name_H-M 'P 1 21/c 1'
_symmetry_Int_Tables_number 14
_refine_ls_R_factor_all 0.0278
loop_
_symmetry_equiv_pos_site_id
_symmetry_equiv_pos_as_xyz
1 'x, -y+1/2, z+1/2'
2 '-x, -y, -z'
3 '-x, y+1/2, -z+1/2'
4 'x, y, z'
loop_
_atom_type_symbol
_atom_type_oxidation_number
As5+ 5
Cu2+ 2
Na1+ 1
O2- -2
H1+ 1
loop_
_atom_site_label
_atom_site_type_symbol
_atom_site_symmetry_multiplicity
_atom_site_Wyckoff_symbol
_atom_site_fract_x
_atom_site_fract_y
_atom_site_fract_z
_atom_site_B_iso_or_equiv
_atom_site_occupancy
_atom_site_attached_hydrogens
As1 As5+ 4 e 0.11230(3) 0.69750(3) 0.10404(3) 0.01250(7) 1 0
As2 As5+ 4 e -0.28883(3) 0.68782(3) 0.52750(3) 0.01350(7) 1 0
Cu1 Cu2+ 4 e -0.10071(3) 0.85580(3) 0.31938(3) 0.01440(7) 1 0
Cu2 Cu2+ 2 a 0. 1. 0. 0.01636(10) 1 0
Na1 Na1+ 4 e 0.22233(13) 0.49604(13) -0.19676(12) 0.0246(2) 1 0
O1 O2- 4 e 0.0613(2) 0.57662(19) 0.2157(2) 0.0187(4) 1 0
O2 O2- 4 e 0.0969(2) 0.6653(2) -0.0715(2) 0.0180(4) 1 0
O3 O2- 4 e 0.0200(2) 0.84728(18) 0.14023(19) 0.0140(3) 1 0
O4 O2- 4 e 0.3055(2) 0.7322(2) 0.1423(2) 0.0235(4) 1 0
O5 O2- 4 e -0.2196(2) 0.84374(19) 0.4908(2) 0.0171(4) 1 0
O6 O2- 4 e -0.2942(2) 0.6723(2) 0.7059(2) 0.0184(4) 1 0
O7 O2- 4 e -0.2022(2) 0.5601(2) 0.4418(2) 0.0194(4) 1 0
O8 O2- 4 e -0.4791(2) 0.6761(2) 0.4668(2) 0.0225(4) 1 0
O9 O2- 4 e 0.4908(3) 0.4801(3) -0.2230(3) 0.0308(5) 1 0
H1 H1+ 4 e 0.549(4) 0.546(3) -0.241(5) 0.053(13) 1 0
H2 H1+ 4 e 0.546(4) 0.431(3) -0.167(4) 0.040(11) 1 0
H3 H1+ 4 e -0.464(5) 0.625(4) 0.400(4) 0.064(15) 1 0
H4 H1+ 4 e 0.332(6) 0.773(5) 0.071(4) 0.075(18) 1 0
loop_
_atom_site_aniso_label
_atom_site_aniso_type_symbol
_atom_site_aniso_U_11
_atom_site_aniso_U_22
_atom_site_aniso_U_33
_atom_site_aniso_U_12
_atom_site_aniso_U_13
_atom_site_aniso_U_23
As1 As5+ 0.01381(12) 0.01202(12) 0.01177(11) 0.00048(8) 0.00160(8) 0.00025(8)
As2 As5+ 0.01290(12) 0.01587(12) 0.01187(12) 0.00080(8) 0.00206(8) -0.00101(9)
Cu1 Cu2+ 0.01578(15) 0.01648(15) 0.01104(14) -0.00101(11) 0.00180(10)
0.00067(11)
Cu2 Cu2+ 0.0145(2) 0.0156(2) 0.0188(2) -0.00241(15) -0.00126(15) 0.00604(16)
Na1 Na1+ 0.0247(6) 0.0305(6) 0.0189(5) 0.0049(5) 0.0036(4) -0.0018(5)
O1 O2- 0.0272(10) 0.0121(8) 0.0174(9) 0.0000(7) 0.0070(7) 0.0041(7)
O2 O2- 0.0185(9) 0.0230(9) 0.0126(8) 0.0013(7) 0.0022(7) -0.0032(7)
O3 O2- 0.0171(8) 0.0120(8) 0.0132(8) 0.0022(6) 0.0040(6) 0.0016(6)
O4 O2- 0.0141(9) 0.0326(11) 0.0236(10) -0.0024(8) -0.0011(7) 0.0055(9)
O5 O2- 0.0200(9) 0.0163(8) 0.0153(8) -0.0014(7) 0.0048(7) -0.0009(7)
O6 O2- 0.0168(9) 0.0269(10) 0.0116(8) 0.0003(7) 0.0024(7) 0.0018(7)
O7 O2- 0.0167(9) 0.0216(9) 0.0199(9) 0.0055(7) -0.0005(7) -0.0081(7)
O8 O2- 0.0111(9) 0.0339(11) 0.0224(10) 0.0021(7) -0.0010(7) -0.0060(9)
O9 O2- 0.0259(11) 0.0300(12) 0.0361(13) -0.0032(9) -0.0043(9) 0.0059(10)
#End of TTdata_21803-ICSD