
#(C) 2019 by FIZ Karlsruhe - Leibniz Institute for Information Infrastructure.  All rights reserved.
data_2198-ICSD
_database_code_ICSD 2198
_audit_creation_date 1980-01-01
_audit_update_record 1985-04-12
_chemical_name_systematic 'Sodium potassium catena-vanadate (.9/.1/1)'
_chemical_formula_structural 'Na0.88 K0.13 V O3'
_chemical_formula_sum 'K0.13 Na0.88 O3 V1'
_chemical_name_structure_type NaKV2O6
_exptl_crystal_density_diffrn 2.93
_publ_section_title

;
Crystallographic studies on cation substitution in the system (Na, K) (V, P)
O3
;
loop_
_citation_id
_citation_journal_full
_citation_year
_citation_journal_volume
_citation_page_first
_citation_page_last
_citation_journal_id_ASTM
primary 'Journal of Solid State Chemistry' 1978 25 285 294 JSSCBI
loop_
_publ_author_name
'Idler, K.L.'
'Calvo, C.'
'Ng, H.N.'
_cell_length_a 10.533(2)
_cell_length_b 9.580(2)
_cell_length_c 5.850(1)
_cell_angle_alpha 90.
_cell_angle_beta 107.56(1)
_cell_angle_gamma 90.
_cell_volume 562.79
_cell_formula_units_Z 8
_symmetry_space_group_name_H-M 'C 1 2/c 1'
_symmetry_Int_Tables_number 15
_refine_ls_R_factor_all 0.049
loop_
_symmetry_equiv_pos_site_id
_symmetry_equiv_pos_as_xyz
1 'x, -y, z+1/2'
2 '-x, -y, -z'
3 '-x, y, -z+1/2'
4 'x, y, z'
5 'x+1/2, -y+1/2, z+1/2'
6 '-x+1/2, -y+1/2, -z'
7 '-x+1/2, y+1/2, -z+1/2'
8 'x+1/2, y+1/2, z'
loop_
_atom_type_symbol
_atom_type_oxidation_number
V5+ 5
Na1+ 1
K1+ 1
O2- -2
loop_
_atom_site_label
_atom_site_type_symbol
_atom_site_symmetry_multiplicity
_atom_site_Wyckoff_symbol
_atom_site_fract_x
_atom_site_fract_y
_atom_site_fract_z
_atom_site_B_iso_or_equiv
_atom_site_occupancy
_atom_site_attached_hydrogens
V1 V5+ 8 f 0.29110(7) 0.08893(8) 0.2528(1) . 1. 0
Na1 Na1+ 4 e 0 0.9104(3) 0.25 . 1. 0
Na2 Na1+ 4 e 0 0.2980(4) 0.25 . 0.75(3) 0
K1 K1+ 4 e 0 0.2980(4) 0.25 . 0.25 0
O1 O2- 8 f 0.1280(3) 0.0984(4) 0.1643(6) . 1. 0
O2 O2- 8 f 0.3533(4) 0.2448(4) 0.3165(7) . 1. 0
O3 O2- 8 f 0.3508(3) 0.0108(4) 0.0248(6) . 1. 0
loop_
_atom_site_aniso_label
_atom_site_aniso_type_symbol
_atom_site_aniso_U_11
_atom_site_aniso_U_22
_atom_site_aniso_U_33
_atom_site_aniso_U_12
_atom_site_aniso_U_13
_atom_site_aniso_U_23
V1 V5+ 0.0129(4) 0.0194(5) 0.0135(4) -.0015(4) 0.0041(3) -.0003(3)
Na1 Na1+ 0.0174(12) 0.0232(14) 0.0196(12) 0 0.0029(9) 0
Na2 Na1+ 0.0275(14) 0.0228(14) 0.0235(14) 0 -.0090(9) 0
K1 K1+ 0.0275(14) 0.028(14) 0.0235(14) 0 -.0090(9) 0
O1 O2- 0.0136(14) 0.0303(18) 0.0207(16) 0.0002(13) 0.0038(12) 0.0022(13)
O2 O2- 0.0268(17) 0.0288(19) 0.0307(19) -.0085(15) 0.0076(15) -.0021(15)
O3 O2- 0.0209(16) 0.0344(19) 0.0209(16) -.0022(14) 0.0064(13) -.0064(14)
#End of TTdata_2198-ICSD