
#(C) 2019 by FIZ Karlsruhe - Leibniz Institute for Information Infrastructure.  All rights reserved.
data_22211-ICSD
_database_code_ICSD 22211
_audit_creation_date 1980-01-01
_audit_update_record 1985-05-08
_chemical_name_systematic 'Sodium scandium tin(IV) oxide'
_chemical_formula_structural 'Na Sc Sn O4'
_chemical_formula_sum 'Na1 O4 Sc1 Sn1'
_chemical_name_structure_type CaV2O4
_exptl_crystal_density_diffrn 5.01
_publ_section_title
'Crystal chemistry of sodium scandium titanate, Na Sc Ti O4, and its isomorphs'
loop_
_citation_id
_citation_journal_full
_citation_year
_citation_journal_volume
_citation_page_first
_citation_page_last
_citation_journal_id_ASTM
primary 'Inorganic Chemistry' 1968 7 112 118 INOCAJ
loop_
_publ_author_name
'Reid, A.F.'
'Wadsley, A.D.'
'Sienko, M.J.'
_cell_length_a 9.466(3)
_cell_length_b 3.139(2)
_cell_length_c 11.177(4)
_cell_angle_alpha 90.
_cell_angle_beta 90.
_cell_angle_gamma 90.
_cell_volume 332.11
_cell_formula_units_Z 4
_symmetry_space_group_name_H-M 'P n m a'
_symmetry_Int_Tables_number 62
_refine_ls_R_factor_all 0.096
loop_
_symmetry_equiv_pos_site_id
_symmetry_equiv_pos_as_xyz
1 'x+1/2, y, -z+1/2'
2 'x, -y+1/2, z'
3 '-x+1/2, y+1/2, z+1/2'
4 '-x, -y, -z'
5 '-x+1/2, -y, z+1/2'
6 '-x, y+1/2, -z'
7 'x+1/2, -y+1/2, -z+1/2'
8 'x, y, z'
loop_
_atom_type_symbol
_atom_type_oxidation_number
Na1+ 1
Sc3+ 3
Sn4+ 4
O2- -2
loop_
_atom_site_label
_atom_site_type_symbol
_atom_site_symmetry_multiplicity
_atom_site_Wyckoff_symbol
_atom_site_fract_x
_atom_site_fract_y
_atom_site_fract_z
_atom_site_B_iso_or_equiv
_atom_site_occupancy
_atom_site_attached_hydrogens
Na1 Na1+ 4 c 0.2437(10) 0.25 0.3477(8) 0.023 1. 0
Sc1 Sc3+ 4 c 0.0669(5) 0.25 0.1106(4) 0.015 0.5 0
Sc2 Sc3+ 4 c 0.0798(4) 0.25 0.6057(3) 0.009 0.5 0
Sn1 Sn4+ 4 c 0.0669(5) 0.25 0.1106(4) 0.015 0.5 0
Sn2 Sn4+ 4 c 0.0798(4) 0.25 0.6057(3) 0.009 0.5 0
O1 O2- 4 c 0.2899(18) 0.25 0.6508(14) 0.021 1. 0
O2 O2- 4 c 0.3862(18) 0.25 -.0161(14) 0.015 1. 0
O3 O2- 4 c 0.4789(16) 0.25 0.2156(13) 0.043 1. 0
O4 O2- 4 c 0.0744(15) 0.25 -.0729(13) 0.016 1. 0
#End of TTdata_22211-ICSD