
#(C) 2019 by FIZ Karlsruhe - Leibniz Institute for Information Infrastructure.  All rights reserved.
data_22503-ICSD
_database_code_ICSD 22503
_audit_creation_date 1988-05-17
_chemical_name_systematic 'Sodium scandium germanate *'
_chemical_formula_structural 'Na Sc Ge2 O6'
_chemical_formula_sum 'Ge2 Na1 O6 Sc1'
_chemical_name_structure_type Pyroxene-CaMg(SiO3)2
_exptl_crystal_density_diffrn 4.15
_publ_section_title 'The Crystal Structure of Na, Sc-Germanate, Na Sc Ge2 O6.'
loop_
_citation_id
_citation_journal_full
_citation_year
_citation_journal_volume
_citation_page_first
_citation_page_last
_citation_journal_id_ASTM
primary 'Zhurnal Strukturnoi Khimii' 1985 26 157 159 ZSTKAI
loop_
_publ_author_name
'Genkina, E.A.'
'Maximov, B.A.'
'Timofeeva, V.A.'
'Bykov, A.B.'
_cell_length_a 10.162(2)
_cell_length_b 9.154(1)
_cell_length_c 5.571(1)
_cell_angle_alpha 90.
_cell_angle_beta 107.26(2)
_cell_angle_gamma 90.
_cell_volume 494.89
_cell_formula_units_Z 4
_symmetry_space_group_name_H-M 'C 1 2/c 1'
_symmetry_Int_Tables_number 15
_refine_ls_R_factor_all 0.047
loop_
_symmetry_equiv_pos_site_id
_symmetry_equiv_pos_as_xyz
1 'x, -y, z+1/2'
2 '-x, -y, -z'
3 '-x, y, -z+1/2'
4 'x, y, z'
5 'x+1/2, -y+1/2, z+1/2'
6 '-x+1/2, -y+1/2, -z'
7 '-x+1/2, y+1/2, -z+1/2'
8 'x+1/2, y+1/2, z'
loop_
_atom_type_symbol
_atom_type_oxidation_number
Na1+ 1
Sc3+ 3
Ge4+ 4
O2- -2
loop_
_atom_site_label
_atom_site_type_symbol
_atom_site_symmetry_multiplicity
_atom_site_Wyckoff_symbol
_atom_site_fract_x
_atom_site_fract_y
_atom_site_fract_z
_atom_site_B_iso_or_equiv
_atom_site_occupancy
_atom_site_attached_hydrogens
Na1 Na1+ 4 e 0 0.6962(4) 0.25 1.65(5) 1. 0
Sc1 Sc3+ 4 e 0 0.0986(1) 0.25 0.65(1) 1. 0
Ge1 Ge4+ 8 f 0.21011(5) 0.40846(5) 0.25983(9) 0.694(8) 1. 0
O1 O2- 8 f 0.3895(3) 0.4204(3) 0.3638(6) 0.75(3) 1. 0
O2 O2- 8 f 0.1414(3) 0.2370(4) 0.1881(7) 1.11(4) 1. 0
O3 O2- 8 f 0.1404(3) 0.4895(4) 0.4803(7) 1.09(4) 1. 0
#End of TTdata_22503-ICSD