
#(C) 2019 by FIZ Karlsruhe - Leibniz Institute for Information Infrastructure.  All rights reserved.
data_23012-ICSD
_database_code_ICSD 23012
_audit_creation_date 1980-01-01
_audit_update_record 2014-08-01
_chemical_name_systematic 'Disodium beryllium bis(germanate)'
_chemical_formula_structural 'Na2 Be (Ge O3)2'
_chemical_formula_sum 'Be1 Ge2 Na2 O6'
_chemical_name_structure_type Na2Be(GeO3)2
_exptl_crystal_density_diffrn 3.58
_publ_section_title
'Crystal structure of the chkalovite Ge-analogue Na2 Be (Ge2 O6)'
loop_
_citation_id
_citation_journal_full
_citation_year
_citation_journal_volume
_citation_page_first
_citation_page_last
_citation_journal_id_ASTM
primary 'Doklady Akademii Nauk SSSR' 1976 227 348 351 DANKAS
loop_
_publ_author_name
'Egorov Tismenko, Yu.K.'
'Simonov, M.A.'
'Belov, N.V.'
_cell_length_a 21.554(5)
_cell_length_b 7.084(2)
_cell_length_c 21.598(6)
_cell_angle_alpha 90.
_cell_angle_beta 90.
_cell_angle_gamma 90.
_cell_volume 3297.77
_cell_formula_units_Z 24
_symmetry_space_group_name_H-M 'F d d 2'
_symmetry_Int_Tables_number 43
_refine_ls_R_factor_all 0.062
loop_
_symmetry_equiv_pos_site_id
_symmetry_equiv_pos_as_xyz
1 'x+1/4, -y+1/4, z+1/4'
2 '-x+1/4, y+1/4, z+1/4'
3 '-x, -y, z'
4 'x, y, z'
5 'x+1/4, -y+3/4, z+3/4'
6 '-x+1/4, y+3/4, z+3/4'
7 '-x, -y+1/2, z+1/2'
8 'x, y+1/2, z+1/2'
9 'x+3/4, -y+1/4, z+3/4'
10 '-x+3/4, y+1/4, z+3/4'
11 '-x+1/2, -y, z+1/2'
12 'x+1/2, y, z+1/2'
13 'x+3/4, -y+3/4, z+1/4'
14 '-x+3/4, y+3/4, z+1/4'
15 '-x+1/2, -y+1/2, z'
16 'x+1/2, y+1/2, z'
loop_
_atom_type_symbol
_atom_type_oxidation_number
Na1+ 1
Be2+ 2
Ge4+ 4
O2- -2
loop_
_atom_site_label
_atom_site_type_symbol
_atom_site_symmetry_multiplicity
_atom_site_Wyckoff_symbol
_atom_site_fract_x
_atom_site_fract_y
_atom_site_fract_z
_atom_site_B_iso_or_equiv
_atom_site_occupancy
_atom_site_attached_hydrogens
Na1 Na1+ 8 a 0 0 0.5072(6) . 1. 0
Na2 Na1+ 8 a 0 0 0.1390(5) . 1. 0
Na3 Na1+ 16 b 0.1720(4) 0.009(2) 0.0269(4) . 1. 0
Na4 Na1+ 16 b 0.1577(3) 0.014(1) 0.6637(4) . 1. 0
Be1 Be2+ 16 b 0.170(1) 0.016(5) 0.820(1) 0.73 1. 0
Be2 Be2+ 8 a 0 0 0.368(2) 0.6 1. 0
Ge1 Ge4+ 8 a 0 0 0 . 1. 0
Ge2 Ge4+ 8 a 0 0.5 0.1552(1) . 1. 0
Ge3 Ge4+ 16 b 0.1489(1) 0.0132(3) 0.1725(1) . 1. 0
Ge4 Ge4+ 16 b 0.1846(1) 0.5064(3) 0.0130(1) . 1. 0
O1 O2- 16 b 0.0100(6) 0.195(2) 0.7063(6) . 1. 0
O2 O2- 16 b 0.1090(6) 0.082(2) 0.1090(6) . 1. 0
O3 O2- 16 b 0.1863(6) 0.216(2) 0.1998(7) . 1. 0
O4 O2- 16 b 0.1540(6) 0.218(2) 0.4809(6) . 1. 0
O5 O2- 16 b 0.2276(6) 0.063(2) 0.5762(6) . 1. 0
O6 O2- 16 b 0.1848(6) 0.199(2) 0.8651(6) . 1. 0
O7 O2- 16 b 0.1183(6) 0.073(2) 0.7679(6) . 1. 0
O8 O2- 16 b 0.0158(6) 0.200(2) 0.0421(6) . 1. 0
O9 O2- 16 b 0.0526(6) 0.070(2) 0.4133(6) . 1. 0
loop_
_atom_site_aniso_label
_atom_site_aniso_type_symbol
_atom_site_aniso_B_11
_atom_site_aniso_B_22
_atom_site_aniso_B_33
_atom_site_aniso_B_12
_atom_site_aniso_B_13
_atom_site_aniso_B_23
Na1 Na1+ 2.83(53) 0.91(47) 0.55(41) 0.15(50) 0 0
Na2 Na1+ 0.93(35) 1.32(48) 0.77(35) -.42(40) 0 0
Na3 Na1+ 1.02(24) 0.91(35) 1.03(28) 0.06(27) 0.31(21) -.37(28)
Na4 Na1+ 0.83(22) 0.77(33) 0.83(31) -.54(23) 0.09(21) 0.16(27)
Ge1 Ge4+ 0.23(7) 0.18(7) 0.43(8) -.11(8) 0 0
Ge2 Ge4+ 0.25(7) 0.24(8) 0.20(7) 0.04(8) 0 0
Ge3 Ge4+ 0.30(5) 0.14(5) 0.28(5) 0.00(5) -.02(4) 0.04(5)
Ge4 Ge4+ 0.34(4) 0.21(5) 0.19(4) -.08(6) 0.01(4) -.02(5)
O1 O2- 0.55(43) 0.96(46) 1.01(41) 0.37(32) -.35(34) -.52(36)
O2 O2- 0.52(38) 0.48(41) 1.17(45) 0.06(31) -.66(36) 0.18(36)
O3 O2- 0.83(42) 0.64(47) 1.46(49) 0.10(33) -.95(39) -.34(39)
O4 O2- 1.72(51) 0.14(37) 0.30(36) -.07(32) -.62(37) 0.20(29)
O5 O2- 1.04(41) 0.43(39) 0.1(3) -.30(31) -.07(35) -.18(31)
O6 O2- 0.45(36) 0.50(37) 0.85(41) -.07(30) -.32(34) -.24(33)
O7 O2- 0.91(40) 0.34(37) 0.39(35) 0.14(31) -.32(33) -.16(31)
O8 O2- 0.80(39) 0.44(37) 0.76(39) -.27(31) -.20(32) -.04(32)
O9 O2- 1.02(41) 0.36(39) 0.54(40) -.52(31) -.54(33) 0.02(32)
#End of TTdata_23012-ICSD