
#(C) 2019 by FIZ Karlsruhe - Leibniz Institute for Information Infrastructure.  All rights reserved.
data_230722-ICSD
_database_code_ICSD 230722
_audit_creation_date 2019-08-01
_chemical_name_systematic 'Dicesium sodium trivanadium(III) dodecafluoride'
_chemical_formula_structural 'Cs2 Na V3 F12'
_chemical_formula_sum 'Cs2 F12 Na1 V3'
_exptl_crystal_density_diffrn 3.9
_cell_measurement_temperature 120.
_publ_section_title

;
Ising-like anisotropy stabilized 1/3 and 2/3 magnetization plateaus in the V3+
kagome lattice antiferromagnets Cs2KV3F12, Cs2NaV3F12, and Rb2NaV3F12
;
loop_
_citation_id
_citation_journal_full
_citation_year
_citation_journal_volume
_citation_page_first
_citation_page_last
_citation_journal_id_ASTM
primary 'Physical Review B' 2017 95 134436-1 134436-10 PRBHB7
loop_
_publ_author_name
'Goto, Masato'
'Ueda, Hiroaki'
'Michioka, Chishiro'
'Matsuo, Akira'
'Kindo, Koichi'
'Sugawara, Kento'
'Kobayashi, Shintaro'
'Katayama, Naoyuki'
'Sawa, Hiroshi'
'Yoshimura, Kazuyoshi'
_cell_length_a 12.789(3)
_cell_length_b 7.433(3)
_cell_length_c 7.385(3)
_cell_angle_alpha 90.
_cell_angle_beta 125.67(2)
_cell_angle_gamma 90.
_cell_volume 570.32
_cell_formula_units_Z 2
_symmetry_space_group_name_H-M 'P 1 21/m 1'
_symmetry_Int_Tables_number 11
_refine_ls_R_factor_all 0.0221
loop_
_symmetry_equiv_pos_site_id
_symmetry_equiv_pos_as_xyz
1 'x, -y+1/2, z'
2 '-x, -y, -z'
3 '-x, y+1/2, -z'
4 'x, y, z'
loop_
_atom_type_symbol
_atom_type_oxidation_number
Cs1+ 1
Na1+ 1
V3+ 3
F1- -1
loop_
_atom_site_label
_atom_site_type_symbol
_atom_site_symmetry_multiplicity
_atom_site_Wyckoff_symbol
_atom_site_fract_x
_atom_site_fract_y
_atom_site_fract_z
_atom_site_B_iso_or_equiv
_atom_site_occupancy
_atom_site_attached_hydrogens
Cs1 Cs1+ 2 e 0.61684(6) 0.75 0.622868(10) 0.01125(1) 1. 0
Cs2 Cs1+ 2 e 0.136454(6) 0.25 0.619063(8) 0.01008(1) 1. 0
Na1 Na1+ 2 e 0.74383(3) 0.25 0.52852(6) 0.00623(4) 1. 0
V1 V3+ 2 a 0 0 0 0.00432(2) 1. 0
V2 V3+ 2 b 0.5 0 0 0.00409(2) 1. 0
V3 V3+ 2 e 0.773577(10) 0.25 0.066635(16) 0.00422(2) 1. 0
F1 F1- 2 e 0.01072(6) 0.25 0.93003(9) 0.01056(8) 1. 0
F2 F1- 4 f 0.57587(4) 0.44888(5) 0.30202(5) 0.00978(5) 1. 0
F3 F1- 4 f 0.10416(4) 0.93481(4) 0.89085(6) 0.00865(4) 1. 0
F4 F1- 4 f 0.15077(3) 0.02636(6) 0.28987(5) 0.01037(5) 1. 0
F5 F1- 2 e 0.55957(5) 0.75 0.08458(9) 0.00815(6) 1. 0
F6 F1- 4 f 0.33725(4) 0.55377(5) 0.95803(7) 0.01024(5) 1. 0
F7 F1- 2 e 0.14540(6) 0.75 0.62296(8) 0.01239(9) 1. 0
F8 F1- 2 e 0.31698(6) 0.75 0.24263(9) 0.01160(8) 1. 0
#End of TTdata_230722-ICSD