
#(C) 2019 by FIZ Karlsruhe - Leibniz Institute for Information Infrastructure.  All rights reserved.
data_230723-ICSD
_database_code_ICSD 230723
_audit_creation_date 2019-08-01
_chemical_name_systematic 'Dirubidium sodium trivanadium(III) dodecafluoride'
_chemical_formula_structural 'Rb2 Na V3 F12'
_chemical_formula_sum 'F12 Na1 Rb2 V3'
_exptl_crystal_density_diffrn 3.53
_cell_measurement_temperature 120.
_publ_section_title

;
Ising-like anisotropy stabilized 1/3 and 2/3 magnetization plateaus in the V3+
kagome lattice antiferromagnets Cs2KV3F12, Cs2NaV3F12, and Rb2NaV3F12
;
loop_
_citation_id
_citation_journal_full
_citation_year
_citation_journal_volume
_citation_page_first
_citation_page_last
_citation_journal_id_ASTM
primary 'Physical Review B' 2017 95 134436-1 134436-10 PRBHB7
loop_
_publ_author_name
'Goto, Masato'
'Ueda, Hiroaki'
'Michioka, Chishiro'
'Matsuo, Akira'
'Kindo, Koichi'
'Sugawara, Kento'
'Kobayashi, Shintaro'
'Katayama, Naoyuki'
'Sawa, Hiroshi'
'Yoshimura, Kazuyoshi'
_cell_length_a 12.578(6)
_cell_length_b 7.414(3)
_cell_length_c 7.1922(12)
_cell_angle_alpha 90.
_cell_angle_beta 126.256(12)
_cell_angle_gamma 90.
_cell_volume 540.84
_cell_formula_units_Z 2
_symmetry_space_group_name_H-M 'P 1 21/m 1'
_symmetry_Int_Tables_number 11
_refine_ls_R_factor_all 0.015
loop_
_symmetry_equiv_pos_site_id
_symmetry_equiv_pos_as_xyz
1 'x, -y+1/2, z'
2 '-x, -y, -z'
3 '-x, y+1/2, -z'
4 'x, y, z'
loop_
_atom_type_symbol
_atom_type_oxidation_number
Rb1+ 1
Na1+ 1
V3+ 3
F1- -1
loop_
_atom_site_label
_atom_site_type_symbol
_atom_site_symmetry_multiplicity
_atom_site_Wyckoff_symbol
_atom_site_fract_x
_atom_site_fract_y
_atom_site_fract_z
_atom_site_B_iso_or_equiv
_atom_site_occupancy
_atom_site_attached_hydrogens
Rb1 Rb1+ 2 e 0.605635(10) 0.75 0.59046(2) 0.00963(3) 1. 0
Rb2 Rb1+ 2 e 0.140822(11) 0.25 0.60978(3) 0.01135(4) 1. 0
Na1 Na1+ 2 e 0.74051(5) 0.25 0.53689(11) 0.00767(11) 1. 0
V1 V3+ 2 a 0 0 0 0.00424(5) 1. 0
V2 V3+ 2 b 0.5 0 0 0.00384(4) 1. 0
V3 V3+ 2 e 0.748781(16) 0.25 0.09882(4) 0.00422(5) 1. 0
F1 F1- 2 e 0.99403(8) 0.25 0.91088(16) 0.00896(16) 1. 0
F2 F1- 4 f 0.55549(5) 0.44362(6) 0.29924(12) 0.00940(12) 1. 0
F3 F1- 4 f 0.09471(5) 0.93824(5) 0.86650(11) 0.00846(12) 1. 0
F4 F1- 4 f 0.16141(5) 0.03875(6) 0.29051(11) 0.00928(12) 1. 0
F5 F1- 2 e 0.56064(7) 0.75 0.10585(15) 0.00749(16) 1. 0
F6 F1- 4 f 0.32385(5) 0.55385(6) 0.91007(12) 0.01025(12) 1. 0
F7 F1- 2 e 0.12436(8) 0.75 0.58060(18) 0.01267(18) 1. 0
F8 F1- 2 e 0.31655(7) 0.75 0.22132(17) 0.01035(17) 1. 0
#End of TTdata_230723-ICSD