
#(C) 2019 by FIZ Karlsruhe - Leibniz Institute for Information Infrastructure.  All rights reserved.
data_230850-ICSD
_database_code_ICSD 230850
_audit_creation_date 2019-08-01
_chemical_name_systematic 'Sodium iron(II) triphosphate(V)'
_chemical_formula_structural 'Na Fe (P O3)3'
_chemical_formula_sum 'Fe1 Na1 O9 P3'
_chemical_name_structure_type NaCd(PO3)3
_exptl_crystal_density_diffrn 2.84
_cell_measurement_temperature 300.
_publ_section_title

;
Enabling the electrochemical activity in sodium iron metaphosphate
[NaFe(PO3)3] sodium battery insertion material: structural and electrochemical
insights
;
loop_
_citation_id
_citation_journal_full
_citation_year
_citation_journal_volume
_citation_page_first
_citation_page_last
_citation_journal_id_ASTM
primary 'Inorganic Chemistry' 2017 56 5918 5929 INOCAJ
loop_
_publ_author_name
'Gond, Ritambhara'
'Meena, Sher Singh'
'Yusuf, S.M.'
'Shukla, Vivekanand'
'Jena, Naresh K.'
'Ahuja, Rajeev'
'Okada, Shigeto'
'Barpanda, Prabeer'
_cell_length_a 14.3278(15)
_cell_length_b 14.3513(15)
_cell_length_c 14.3621(22)
_cell_angle_alpha 90.
_cell_angle_beta 90.
_cell_angle_gamma 90.
_cell_volume 2953.17
_cell_formula_units_Z 16
_symmetry_space_group_name_H-M 'P 21 21 21'
_symmetry_Int_Tables_number 19
_refine_ls_R_factor_all 0.0206
loop_
_symmetry_equiv_pos_site_id
_symmetry_equiv_pos_as_xyz
1 '-x, y+1/2, -z+1/2'
2 'x+1/2, -y+1/2, -z'
3 '-x+1/2, -y, z+1/2'
4 'x, y, z'
loop_
_atom_type_symbol
_atom_type_oxidation_number
Fe2+ 2
Na1+ 1
P5+ 5
O2- -2
loop_
_atom_site_label
_atom_site_type_symbol
_atom_site_symmetry_multiplicity
_atom_site_Wyckoff_symbol
_atom_site_fract_x
_atom_site_fract_y
_atom_site_fract_z
_atom_site_B_iso_or_equiv
_atom_site_occupancy
_atom_site_attached_hydrogens
Fe1 Fe2+ 4 a 0.875(6) 0.374(6) 0.119(7) 0.01(0) 1. 0
Fe2 Fe2+ 4 a 0.374(8) 0.624(9) 0.122(4) 0.03(5) 1. 0
Fe3 Fe2+ 4 a 0.374(7) 0.372(0) 0.376(0) 0.04(9) 1. 0
Fe4 Fe2+ 4 a 0.131(2) 0.106(4) 0.140(3) 0.05(3) 1. 0
Na1 Na1+ 4 a 0.005(0) 0.001(0) -0.017(0) 0.09(0) 1. 0
Na2 Na1+ 4 a 0.503(0) -0.006(0) -0.001(0) 0.09(0) 1. 0
Na3 Na1+ 4 a 0.754(0) 0.252(0) 0.248(0) 0.02(9) 1. 0
Na4 Na1+ 4 a 0.247(0) 0.259(0) 0.254(0) 0.02(7) 1. 0
P1 P5+ 4 a 0.527(3) 0.521(7) 0.264(5) 0.01(9) 1. 0
P2 P5+ 4 a 0.725(8) 0.501(0) 0.221(7) 0.01(1) 1. 0
P3 P5+ 4 a 0.745(6) 0.522(7) 0.020(7) 0.00(4) 1. 0
P4 P5+ 4 a 0.7229 0.723(4) -0.019(6) 0.00(3) 1. 0
P5 P5+ 4 a 0.526(0) 0.740(1) -0.027(3) 0.00(8) 1. 0
P6 P5+ 4 a 0.497(1) 0.769(0) 0.774(3) 0.03(2) 1. 0
P7 P5+ 4 a 0.527(0) 0.985(0) 0.763(0) 0.06(6) 1. 0
P8 P5+ 4 a 0.722(4) 0.989(9) 0.727(6) 0.02(5) 1. 0
P9 P5+ 4 a 0.738(0) 0.977(7) 0.523(4) 0.00(9) 1. 0
P10 P5+ 4 a 0.770(9) 0.773(9) 0.508(1) 0.00(3) 1. 0
P11 P5+ 4 a 0.967(5) 0.755(0) 0.523(9) 0.00(8) 1. 0
P12 P5+ 4 a 0.013(0) 0.7774(2) 0.727(3) 0.01(6) 1. 0
O1 O2- 4 a 0.523(9) 0.382(1) 0.421(5) 0.01(3) 1. 0
O2 O2- 4 a 0.631(0) 0.479(0) 0.262(0) 0.29(7) 1. 0
O3 O2- 4 a 0.553(0) 0.626(0) 0.304(0) 0.80(0) 1. 0
O4 O2- 4 a 0.527(0) 0.512(3) 0.142(6) 0.02(8) 1. 0
O5 O2- 4 a 0.700(9) 0.597(5) -0.031(9) 0.80(0) 1. 0
O6 O2- 4 a 0.775(0) 0.410(0) 0.218(0) 0.73(6) 1. 0
O7 O2- 4 a 0.755(0) 0.532(5) 0.290(0) 0.00(8) 1. 0
O8 O2- 4 a 0.785(4) 0.624(2) 0.059(1) 0.39(1) 1. 0
O9 O2- 4 a 0.866(3) 0.507(3) -0.006(5) 0.19(7) 1. 0
O10 O2- 4 a 0.689(2) 0.527(5) -0.052(1) 0.16(1) 1. 0
O11 O2- 4 a 0.761(6) 0.739(1) -0.087(5) 0.33(4) 1. 0
O12 O2- 4 a 0.723(0) 0.767(0) 0.081(0) 0.09(0) 1. 0
O13 O2- 4 a 0.573(2) 0.644(6) -0.130(4) 0.00(3) 1. 0
O14 O2- 4 a 0.443(3) 0.7764(4) 0.907(0) 0.12(5) 1. 0
O15 O2- 4 a 0.542(5) 0.661(0) 0.023(7) 0.70(4) 1. 0
O16 O2- 4 a 0.539(8) 0.816(4) -0.001(8) 0.00(4) 1. 0
O17 O2- 4 a 0.564(7) 0.920(3) 0.845(3) 0.69(7) 1. 0
O18 O2- 4 a 0.414(0) 0.776(0) 0.721(0) 0.09(0) 1. 0
O19 O2- 4 a 0.600(1) 0.799(6) 0.652(8) 0.02(5) 1. 0
O20 O2- 4 a 0.477(0) 0.976(0) 0.676(0) 0.00(9) 1. 0
O21 O2- 4 a 0.481(0) 0.026(0) 0.836(0) 0.03(3) 1. 0
O22 O2- 4 a 0.620(0) 0.013(0) 0.753(0) 0.06(8) 1. 0
O23 O2- 4 a 0.692(7) 0.085(2) 0.680(8) 0.01(6) 1. 0
O24 O2- 4 a 0.757(0) 0.929(0) 0.785(0) 0.02(0) 1. 0
O25 O2- 4 a 0.701(0) 0.950(0) 0.625(0) 0.01(8) 1. 0
O26 O2- 4 a 0.655(0) 0.022(0) 0.481(0) 0.00(4) 1. 0
O27 O2- 4 a 0.831(0) 0.013(0) 0.534(0) 0.00(9) 1. 0
O28 O2- 4 a 0.737(0) 0.874(0) 0.477(0) 0.09(0) 1. 0
O29 O2- 4 a 0.866(0) 0.788(0) 0.555(0) 0.00(9) 1. 0
O30 O2- 4 a 0.776(0) 0.720(0) 0.422(0) 0.00(5) 1. 0
O31 O2- 4 a 0.709(0) 0.743(0) 0.587(0) 0.00(9) 1. 0
O32 O2- 4 a 0.961(0) 0.662(0) 0.477(0) 0.09(0) 1. 0
O33 O2- 4 a 0.020(0) 0.838(0) 0.493(0) 0.02(9) 1. 0
O34 O2- 4 a 0.006(0) 0.722(0) 0.627(0) 0.09(0) 1. 0
O35 O2- 4 a 0.925(0) 0.776(0) 0.770(0) 0.00(6) 1. 0
O36 O2- 4 a 0.088(0) 0.726(0) 0.776(0) 0.09(0) 1. 0
#End of TTdata_230850-ICSD