
#(C) 2018 by FIZ Karlsruhe - Leibniz Institute for Information Infrastructure.  All rights reserved.
data_23109-ICSD
_database_code_ICSD 23109
_audit_creation_date 1980-12-31
_chemical_name_systematic 'Lithium nitrate trihydrate'
_chemical_formula_structural 'Li N O3 (H2 O)3'
_chemical_formula_sum 'H6 Li1 N1 O6'
_chemical_name_structure_type LiNO3(H2O)3
_exptl_crystal_density_diffrn 1.61
_cell_measurement_temperature 120.
_publ_section_title

;
Hydrogen Bond Studies. CXXXVIII. Neutron Diffraction Studies of Li N O3 (H2
O)3 at 120 and 295 K
;
loop_
_citation_id
_citation_journal_full
_citation_year
_citation_journal_volume
_citation_page_first
_citation_page_last
_citation_journal_id_ASTM
primary

;
Acta Crystallographica, Section B: Structural Crystallography and Crystal
Chemistry
; 1980 36 1032 1040 ACBCAR
loop_
_publ_author_name
'Hermansson, K.'
'Thomas, J.O.'
'Olovsson, I.'
_cell_length_a 6.713(7)
_cell_length_b 12.669(4)
_cell_length_c 5.968(5)
_cell_angle_alpha 90.
_cell_angle_beta 90.
_cell_angle_gamma 90.
_cell_volume 507.56
_cell_formula_units_Z 4
_symmetry_space_group_name_H-M 'C m c m'
_symmetry_Int_Tables_number 63
_refine_ls_R_factor_all 0.021
loop_
_symmetry_equiv_pos_site_id
_symmetry_equiv_pos_as_xyz
1 '-x, y, -z+1/2'
2 '-x, -y, z+1/2'
3 '-x, y, z'
4 '-x, -y, -z'
5 'x, -y, z+1/2'
6 'x, y, -z+1/2'
7 'x, -y, -z'
8 'x, y, z'
9 '-x+1/2, y+1/2, -z+1/2'
10 '-x+1/2, -y+1/2, z+1/2'
11 '-x+1/2, y+1/2, z'
12 '-x+1/2, -y+1/2, -z'
13 'x+1/2, -y+1/2, z+1/2'
14 'x+1/2, y+1/2, -z+1/2'
15 'x+1/2, -y+1/2, -z'
16 'x+1/2, y+1/2, z'
loop_
_atom_type_symbol
_atom_type_oxidation_number
Li1+ 1
N5+ 5
O2- -2
H1+ 1
loop_
_atom_site_label
_atom_site_type_symbol
_atom_site_symmetry_multiplicity
_atom_site_Wyckoff_symbol
_atom_site_fract_x
_atom_site_fract_y
_atom_site_fract_z
_atom_site_B_iso_or_equiv
_atom_site_occupancy
_atom_site_attached_hydrogens
Li1 Li1+ 4 a 0 0 0 . 1. 0
N1 N5+ 4 c 0 0.21656(3) 0.25 . 1. 0
O1 O2- 8 f 0 0.16920(4) 0.06829(9) . 1. 0
O2 O2- 4 c 0 0.31603(5) 0.25 . 1. 0
O3 O2- 8 g 0.28885(7) 0.47916(4) 0.25 . 1. 0
O4 O2- 4 c 0 0.64055(6) 0.25 . 1. 0
H1 H1+ 8 g 0.21347(17) 0.41467(7) 0.25 . 1. 0
H2 H1+ 8 g 0.30804(15) 0.03582(7) 0.25 . 1. 0
H3 H1+ 8 f 0 0.68587(10) 0.12146(22) . 1. 0
loop_
_atom_site_aniso_label
_atom_site_aniso_type_symbol
_atom_site_aniso_U_11
_atom_site_aniso_U_22
_atom_site_aniso_U_33
_atom_site_aniso_U_12
_atom_site_aniso_U_13
_atom_site_aniso_U_23
Li1 Li1+ 0.0157(8) 0.0175(8) 0.0139(8) 0 0 0.0000(7)
N1 N5+ 0.0127(2) 0.0077(1) 0.0165(2) 0 0 0
O1 O2- 0.0273(3) 0.0138(2) 0.0128(2) 0 0 0.0005(2)
O2 O2- 0.0171(3) 0.0075(2) 0.0376(5) 0 0 0
O3 O2- 0.0125(2) 0.0118(2) 0.0116(2) -.0016(2) 0 0
O4 O2- 0.0182(3) 0.0165(3) 0.0157(3) 0 0 0
H1 H1+ 0.0319(5) 0.0213(4) 0.0396(6) -.0090(4) 0 0
H2 H1+ 0.0246(4) 0.0233(4) 0.0331(5) -.0046(3) 0 0
H3 H1+ 0.0395(6) 0.0443(6) 0.0326(6) 0 0 0.0149(5)
#End of TTdata_23109-ICSD