
#(C) 2019 by FIZ Karlsruhe - Leibniz Institute for Information Infrastructure.  All rights reserved.
data_2313-ICSD
_database_code_ICSD 2313
_audit_creation_date 1980-01-01
_audit_update_record 2012-08-01
_chemical_name_systematic 'Sodium chloride dihydrate'
_chemical_formula_structural 'Na Cl (H2 O)2'
_chemical_formula_sum 'H4 Cl1 Na1 O2'
_chemical_name_structure_type NaCl(H2O)2
_chemical_name_mineral Hydrohalite
_exptl_crystal_density_diffrn 1.65
_cell_measurement_temperature 105.
_publ_section_title 'The crystal structure of sodium chloride dihydrate'
loop_
_citation_id
_citation_journal_full
_citation_year
_citation_journal_volume
_citation_page_first
_citation_page_last
_citation_journal_id_ASTM
primary

;
Acta Crystallographica, Section B: Structural Crystallography and Crystal
Chemistry
; 1974 30 2363 2371 ACBCAR
loop_
_publ_author_name
'Klewe, B.'
'Pedersen, B.'
_cell_length_a 6.3313(5)
_cell_length_b 10.1178(9)
_cell_length_c 6.5029(6)
_cell_angle_alpha 90.
_cell_angle_beta 114.407(7)
_cell_angle_gamma 90.
_cell_volume 379.34
_cell_formula_units_Z 4
_symmetry_space_group_name_H-M 'P 1 21/c 1'
_symmetry_Int_Tables_number 14
_refine_ls_R_factor_all 0.0193
loop_
_symmetry_equiv_pos_site_id
_symmetry_equiv_pos_as_xyz
1 'x, -y+1/2, z+1/2'
2 '-x, -y, -z'
3 '-x, y+1/2, -z+1/2'
4 'x, y, z'
loop_
_atom_type_symbol
_atom_type_oxidation_number
Na1+ 1
Cl1- -1
O2- -2
H1+ 1
loop_
_atom_site_label
_atom_site_type_symbol
_atom_site_symmetry_multiplicity
_atom_site_Wyckoff_symbol
_atom_site_fract_x
_atom_site_fract_y
_atom_site_fract_z
_atom_site_B_iso_or_equiv
_atom_site_occupancy
_atom_site_attached_hydrogens
Na1 Na1+ 4 e 0.02374(4) 0.17002(2) 0.45503(2) . 1. 0
Cl1 Cl1- 4 e 0.29210(2) 0.12190(1) 0.21354(2) . 1. 0
O1 O2- 4 e 0.78600(6) 0.32053(4) 0.17284(7) . 1. 0
O2 O2- 4 e 0.22780(6) 0.49146(4) 0.23202(6) . 1. 0
H1 H1+ 4 e 0.784(2) 0.393(1) 0.220(2) 1.3(2) 1. 0
H2 H1+ 4 e 0.651(2) 0.296(1) 0.075(2) 2.5(2) 1. 0
H3 H1+ 4 e 0.361(2) 0.520(1) 0.251(2) 1.9(2) 1. 0
H4 H1+ 4 e 0.262(2) 0.464(1) 0.361(2) 3.6(3) 1. 0
loop_
_atom_site_aniso_label
_atom_site_aniso_type_symbol
_atom_site_aniso_beta_11
_atom_site_aniso_beta_22
_atom_site_aniso_beta_33
_atom_site_aniso_beta_12
_atom_site_aniso_beta_13
_atom_site_aniso_beta_23
Na1 Na1+ 0.00858(2) 0.00221(1) 0.00692(4) -.00015(2) 0.00002(2) 0.00358(4)
Cl1 Cl1- 0.00792(2) 0.00255(1) 0.00671(2) 0.00116(1) 0.00031(1) 0.00350(2)
O1 O2- 0.00831(7) 0.00259(2) 0.00913(7) 0.00033(3) 0.00017(4) 0.00305(7)
O2 O2- 0.00815(7) 0.00304(2) 0.00688(6) -.00056(4) 0.00055(3) 0.00356(6)
#End of TTdata_2313-ICSD