
#(C) 2019 by FIZ Karlsruhe - Leibniz Institute for Information Infrastructure.  All rights reserved.
data_23238-ICSD
_database_code_ICSD 23238
_audit_creation_date 1980-01-01
_audit_update_record 2007-04-01
_chemical_name_systematic 'Sodium difluorodioxoniobate'
_chemical_formula_structural 'Na (Nb F2 O2)'
_chemical_formula_sum 'F2 Na1 Nb1 O2'
_chemical_name_structure_type NdTaO4
_exptl_crystal_density_diffrn 3.79
_publ_section_title 'The srystal structure of Na Nb O2 F2'
loop_
_citation_id
_citation_journal_full
_citation_year
_citation_journal_volume
_citation_page_first
_citation_page_last
_citation_journal_id_ASTM
primary

;
Acta Crystallographica, Section B: Structural Crystallography and Crystal
Chemistry
; 1969 25 847 850 ACBCAR
loop_
_publ_author_name
'Andersson, S.'
'Galy, J.'
_cell_length_a 8.063(2)
_cell_length_b 5.405(2)
_cell_length_c 7.626(2)
_cell_angle_alpha 90.
_cell_angle_beta 101.70(5)
_cell_angle_gamma 90.
_cell_volume 325.44
_cell_formula_units_Z 4
_symmetry_space_group_name_H-M 'P 1 21/c 1'
_symmetry_Int_Tables_number 14
_refine_ls_R_factor_all 0.085
loop_
_symmetry_equiv_pos_site_id
_symmetry_equiv_pos_as_xyz
1 'x, -y+1/2, z+1/2'
2 '-x, -y, -z'
3 '-x, y+1/2, -z+1/2'
4 'x, y, z'
loop_
_atom_type_symbol
_atom_type_oxidation_number
Na1+ 1
Nb5+ 5
O2- -2
F1- -1
loop_
_atom_site_label
_atom_site_type_symbol
_atom_site_symmetry_multiplicity
_atom_site_Wyckoff_symbol
_atom_site_fract_x
_atom_site_fract_y
_atom_site_fract_z
_atom_site_B_iso_or_equiv
_atom_site_occupancy
_atom_site_attached_hydrogens
Na1 Na1+ 4 e 0.3685(11) 0.7750(25) 0.1187(12) 2.42 1. 0
Nb1 Nb5+ 4 e 0.1554(2) 0.2655(5) 0.3176(2) 1.1 1. 0
O1 O2- 4 e 0.1721(17) 0.1561(39) 0.0545(19) 1.34 1. 0
O2 O2- 4 e 0.0351(18) 0.5546(38) 0.2084(19) 1.24 1. 0
F1 F1- 4 e 0.3760(15) 0.4513(33) 0.3142(16) 1.86 1. 0
F2 F1- 4 e 0.3166(16) 0.9827(34) 0.3793(18) 2.16 1. 0
#End of TTdata_23238-ICSD