
#(C) 2019 by FIZ Karlsruhe - Leibniz Institute for Information Infrastructure.  All rights reserved.
data_23311-ICSD
_database_code_ICSD 23311
_audit_creation_date 1980-12-31
_chemical_name_systematic 'Sodium chlorate(VII) hydrate'
_chemical_formula_structural 'Na Cl O4 (H2 O)'
_chemical_formula_sum 'H2 Cl1 Na1 O5'
_chemical_name_structure_type NaClO4(H2O)
_exptl_crystal_density_diffrn 2.1
_publ_section_title 'Deformation Refinement of Sodium Perchlorate Monohydrate'
loop_
_citation_id
_citation_journal_full
_citation_year
_citation_journal_volume
_citation_page_first
_citation_page_last
_citation_journal_id_ASTM
primary

;
Acta Crystallographica, Section B: Structural Crystallography and Crystal
Chemistry
; 1980 36 1774 1781 ACBCAR
loop_
_publ_author_name
'Lundgren, J.O.'
_cell_length_a 15.5422(13)
_cell_length_b 5.5399(5)
_cell_length_c 11.0455(11)
_cell_angle_alpha 90.
_cell_angle_beta 110.666(8)
_cell_angle_gamma 90.
_cell_volume 889.85
_cell_formula_units_Z 8
_symmetry_space_group_name_H-M 'C 1 2/c 1'
_symmetry_Int_Tables_number 15
_refine_ls_R_factor_all 0.0192
loop_
_symmetry_equiv_pos_site_id
_symmetry_equiv_pos_as_xyz
1 'x, -y, z+1/2'
2 '-x, -y, -z'
3 '-x, y, -z+1/2'
4 'x, y, z'
5 'x+1/2, -y+1/2, z+1/2'
6 '-x+1/2, -y+1/2, -z'
7 '-x+1/2, y+1/2, -z+1/2'
8 'x+1/2, y+1/2, z'
loop_
_atom_type_symbol
_atom_type_oxidation_number
Na1+ 1
Cl7+ 7
O2- -2
H1+ 1
loop_
_atom_site_label
_atom_site_type_symbol
_atom_site_symmetry_multiplicity
_atom_site_Wyckoff_symbol
_atom_site_fract_x
_atom_site_fract_y
_atom_site_fract_z
_atom_site_B_iso_or_equiv
_atom_site_occupancy
_atom_site_attached_hydrogens
Na1 Na1+ 4 d 0.25 0.25 0.5 . 1. 0
Na2 Na1+ 4 e 0 0.46620(9) 0.25 . 1. 0
Cl1 Cl7+ 8 f 0.12538(4) -.02268(3) 0.19330(3) . 1. 0
O1 O2- 8 f 0.16688(21) -.01688(42) 0.33245(20) . 1. 0
O2 O2- 8 f 0.19451(24) -.01095(50) 0.13505(37) . 1. 0
O3 O2- 8 f 0.06626(26) 0.18312(57) 0.15005(30) . 1. 0
O4 O2- 8 f 0.07576(19) -.24655(45) 0.15713(21) . 1. 0
O5 O2- 8 f 0.37485(5) 0.02449(30) 0.05058(12) . 1. 0
H1 H1+ 8 f 0.32917 0.03269 -.01963 . 1. 0
H2 H1+ 8 f 0.35617 0.18245 0.06118 . 1. 0
loop_
_atom_site_aniso_label
_atom_site_aniso_type_symbol
_atom_site_aniso_U_11
_atom_site_aniso_U_22
_atom_site_aniso_U_33
_atom_site_aniso_U_12
_atom_site_aniso_U_13
_atom_site_aniso_U_23
Na1 Na1+ 0.03435(29) 0.03294(28) 0.03256(27) -.00081(18) 0.00848(19) -.00166(17)
Na2 Na1+ 0.03778(30) 0.03684(30) 0.03470(28) 0 0.01314(21) 0
Cl1 Cl7+ 0.03703(17) 0.02613(17) 0.02839(16) -.00182(8) 0.01565(10) -.00345(7)
O1 O2- 0.07526(98) 0.04702(67) 0.03004(60) -.01271(60) 0.00552(58) -.00724(43)
O2 O2- 0.07159(95) 0.05523(79) 0.0870(12) -.01369(68) 0.06047(98) -.01829(71)
O3 O2- 0.0827(12) 0.05410(87) 0.05993(83) 0.03443(87) 0.03177(80) 0.01233(67)
O4 O2- 0.06527(85) 0.04619(72) 0.04052(55) -.02720(65) 0.02043(56) -.01042(47)
O5 O2- 0.04339(49) 0.04577(51) 0.03674(41) -.01034(33) 0.00824(39) 0.00486(37)
H1 H1+ 0.08614 0.2532 0.05319 -.05971 0.02718 0.02671
H2 H1+ 0.08689 0.0472 0.1415 -.00151 -.01766 0.02059
#End of TTdata_23311-ICSD