
#(C) 2019 by FIZ Karlsruhe - Leibniz Institute for Information Infrastructure.  All rights reserved.
data_236403-ICSD
_database_code_ICSD 236403
_audit_creation_date 2014-02-01
_chemical_name_systematic 'Disodium lithium iron(III) tellurate(VI)'
_chemical_formula_structural 'Na2 Li Fe Te O6'
_chemical_formula_sum 'Fe1 Li1 Na2 O6 Te1'
_exptl_crystal_density_diffrn 4.2
_publ_section_title

;
Heterovalent substitutions in Na2 M2 Te O6 family: Crystal structure, fast
sodium ion conduction and phase transition of Na2 Li Fe Te O6
;
loop_
_citation_id
_citation_journal_full
_citation_year
_citation_journal_volume
_citation_page_first
_citation_page_last
_citation_journal_id_ASTM
primary 'Solid State Ionics' 2013 233 7 11 SSIOD3
loop_
_publ_author_name
'Nalbandyan, V.B.'
'Petrenko, A.A.'
'Evstigneeva, M.A.'
_cell_length_a 5.2109(2)
_cell_length_b 8.9791(3)
_cell_length_c 11.2389(3)
_cell_angle_alpha 90.
_cell_angle_beta 90.
_cell_angle_gamma 90.
_cell_volume 525.86
_cell_formula_units_Z 4
_symmetry_space_group_name_H-M 'P 21 21 21'
_symmetry_Int_Tables_number 19
_refine_ls_R_factor_all 0.0559
loop_
_symmetry_equiv_pos_site_id
_symmetry_equiv_pos_as_xyz
1 '-x, y+1/2, -z+1/2'
2 'x+1/2, -y+1/2, -z'
3 '-x+1/2, -y, z+1/2'
4 'x, y, z'
loop_
_atom_type_symbol
_atom_type_oxidation_number
Fe3+ 3
Li1+ 1
Na1+ 1
O2- -2
Te6+ 6
loop_
_atom_site_label
_atom_site_type_symbol
_atom_site_symmetry_multiplicity
_atom_site_Wyckoff_symbol
_atom_site_fract_x
_atom_site_fract_y
_atom_site_fract_z
_atom_site_B_iso_or_equiv
_atom_site_occupancy
_atom_site_attached_hydrogens
Fe1 Fe3+ 4 a 0.2610(5) -0.0026(3) 0.2530(7) 0.0024(9) 1. 0
Li1 Li1+ 4 a 0.2734(17) 0.3446(12) 0.2360(19) 0.0058(9) 1. 0
Na1 Na1+ 4 a 0.3601(9) 0.4269(7) -0.0343(4) 0.0055(8) 0.022(3) 0
Na2 Na1+ 4 a 0.3933(4) 0.1457(5) 0.0077(4) 0.0042(2) 0.958(7) 0
Na3 Na1+ 4 a 0.2700(11) 0.8477(5) 0.0560(9) 0.0071(8) 0.074(5) 0
Na4 Na1+ 4 a 0.1818(9) 0.0651(6) -0.0959(5) 0.0041(5) 0.038(4) 0
Na5 Na1+ 4 a 0.2726(6) 0.6739(2) -0.0091(5) 0.0043(9) 0.901(8) 0
Na6 Na1+ 4 a 0.7577(8) 0.1510(6) -0.0214(5) 0.0120(9) 0.019(3) 0
O1 O2- 4 a 0.5903(4) 0.6501(4) 0.1544(2) 0.0064(3) 1. 0
O2 O2- 4 a -0.0596(6) 0.6607(5) 0.3367(5) 0.0029(9) 1. 0
O3 O2- 4 a 0.0883(4) 0.8380(8) 0.1607(4) 0.0017(4) 1. 0
O4 O2- 4 a 0.0959(5) 0.5027(2) 0.1582(4) 0.0031(6) 1. 0
O5 O2- 4 a 0.4218(2) 0.5122(7) 0.3455(5) 0.0048(4) 1. 0
O6 O2- 4 a 0.4172(8) 0.8300(3) 0.3401(7) 0.0015(6) 1. 0
Te1 Te6+ 4 a 0.2453(2) 0.6640(1) 0.2514(3) 0.0013(8) 1. 0
#End of TTdata_236403-ICSD