
#(C) 2019 by FIZ Karlsruhe - Leibniz Institute for Information Infrastructure.  All rights reserved.
data_236879-ICSD
_database_code_ICSD 236879
_audit_creation_date 2014-08-01
_chemical_name_systematic 'Strontium sodium silicon oxide (0.63/0.37/1/2.83)'
_chemical_formula_structural '(Sr0.63 Na0.37) Si O2.78'
_chemical_formula_sum 'Na0.37 O2.78 Si1 Sr0.63'
_exptl_crystal_density_diffrn 3.03
_cell_measurement_temperature 473.
_publ_section_title

;
Structural investigation of the oxide-ion electrolyte with SrMO3 (M = Si/Ge)
structure
;
loop_
_citation_id
_citation_journal_full
_citation_year
_citation_journal_volume
_citation_page_first
_citation_page_last
_citation_journal_id_ASTM
primary
'Journal of Materials Chemistry A: Materials for Energy and Sustainability' 2014 2 4355 4360 JMCAET
loop_
_publ_author_name
'Martinez-Coronado, R.'
'Singh, Preetam'
'Alonso-Alonso, J.'
'Goodenough, John B.'
_cell_length_a 12.3474(7)
_cell_length_b 7.1570(4)
_cell_length_c 10.8909(6)
_cell_angle_alpha 90
_cell_angle_beta 111.558(4)
_cell_angle_gamma 90
_cell_volume 895.11
_cell_formula_units_Z 12
_symmetry_space_group_name_H-M 'C 1 2/c 1'
_symmetry_Int_Tables_number 15
_refine_ls_R_factor_all 0.0261
loop_
_symmetry_equiv_pos_site_id
_symmetry_equiv_pos_as_xyz
1 'x, -y, z+1/2'
2 '-x, -y, -z'
3 '-x, y, -z+1/2'
4 'x, y, z'
5 'x+1/2, -y+1/2, z+1/2'
6 '-x+1/2, -y+1/2, -z'
7 '-x+1/2, y+1/2, -z+1/2'
8 'x+1/2, y+1/2, z'
loop_
_atom_type_symbol
_atom_type_oxidation_number
Sr2+ 2
Na1+ 1
Sr2+ 2
Na1+ 1
Si4+ 4
O2- -2
loop_
_atom_site_label
_atom_site_type_symbol
_atom_site_symmetry_multiplicity
_atom_site_Wyckoff_symbol
_atom_site_fract_x
_atom_site_fract_y
_atom_site_fract_z
_atom_site_B_iso_or_equiv
_atom_site_occupancy
_atom_site_attached_hydrogens
Sr1 Sr2+ 8 f 0.0879(6) 0.2397(9) 0.4997(4) 1.03(2) 0.66 0
Na1 Na1+ 8 f 0.0879(6) 0.2397(9) 0.4997(4) 1.03(2) 0.34 0
Sr2 Sr2+ 4 c 0.25 0.25 0 1.01(4) 0.56 0
Na2 Na1+ 4 c 0.25 0.25 0 1.01(4) 0.44 0
Si1 Si4+ 8 f 0.1235(5) 0.4573(2) 0.2458(3) 2.39(2) 1. 0
Si2 Si4+ 4 e 0 0.8371(3) 0.25 2.14(3) 1. 0
O1 O2- 8 f 0.1302(5) 0.4081(2) 0.1062(5) 1.17(2) 0.94 0
O2 O2- 8 f 0.2217(5) 0.4082(3) 0.3854(5) 1.63(4) 0.93 0
O3 O2- 8 f 0.1094(6) 0.6893(8) 0.2514(6) 1.63(5) 0.92 0
O4 O2- 8 f 0.0487(6) 0.9351(3) 0.3901(6) 1.58(2) 0.93 0
O5 O2- 4 e 0 0.3678(4) 0.25 0.69(3) 0.9 0
#End of TTdata_236879-ICSD