
#(C) 2019 by FIZ Karlsruhe - Leibniz Institute for Information Infrastructure.  All rights reserved.
data_236876-ICSD
_database_code_ICSD 236876
_audit_creation_date 2014-08-01
_chemical_name_systematic
'Strontium sodium silicon germanium oxide (0.8/0.2/0.55/0.45/2.6)'
_chemical_formula_structural '(Sr0.8 Na0.2) (Si0.55 Ge0.45) O2.92'
_chemical_formula_sum 'Ge0.45 Na0.2 O2.92 Si0.55 Sr0.8'
_exptl_crystal_density_diffrn 3.69
_publ_section_title

;
Structural investigation of the oxide-ion electrolyte with SrMO3 (M = Si/Ge)
structure
;
loop_
_citation_id
_citation_journal_full
_citation_year
_citation_journal_volume
_citation_page_first
_citation_page_last
_citation_journal_id_ASTM
primary
'Journal of Materials Chemistry A: Materials for Energy and Sustainability' 2014 2 4355 4360 JMCAET
loop_
_publ_author_name
'Martinez-Coronado, R.'
'Singh, Preetam'
'Alonso-Alonso, J.'
'Goodenough, John B.'
_cell_length_a 12.40848(6)
_cell_length_b 7.18653(3)
_cell_length_c 11.01876(5)
_cell_angle_alpha 90
_cell_angle_beta 111.4645(2)
_cell_angle_gamma 90
_cell_volume 914.44
_cell_formula_units_Z 12
_symmetry_space_group_name_H-M 'C 1 2/c 1'
_symmetry_Int_Tables_number 15
_refine_ls_R_factor_all 0.0193
loop_
_symmetry_equiv_pos_site_id
_symmetry_equiv_pos_as_xyz
1 'x, -y, z+1/2'
2 '-x, -y, -z'
3 '-x, y, -z+1/2'
4 'x, y, z'
5 'x+1/2, -y+1/2, z+1/2'
6 '-x+1/2, -y+1/2, -z'
7 '-x+1/2, y+1/2, -z+1/2'
8 'x+1/2, y+1/2, z'
loop_
_atom_type_symbol
_atom_type_oxidation_number
Sr2+ 2
Na1+ 1
Sr2+ 2
Na1+ 1
Si4+ 4
Ge4+ 4
Si4+ 4
Ge4+ 4
O2- -2
loop_
_atom_site_label
_atom_site_type_symbol
_atom_site_symmetry_multiplicity
_atom_site_Wyckoff_symbol
_atom_site_fract_x
_atom_site_fract_y
_atom_site_fract_z
_atom_site_B_iso_or_equiv
_atom_site_occupancy
_atom_site_attached_hydrogens
Sr1 Sr2+ 8 f 0.08335(5) 0.24310(7) 0.49521(8) 0.423(3) 0.82 0
Na1 Na1+ 8 f 0.08335(5) 0.24310(7) 0.49521(8) 0.423(3) 0.18 0
Sr2 Sr2+ 4 c 0.25 0.25 0 0.21(3) 0.77 0
Na2 Na1+ 4 c 0.25 0.25 0 0.21(3) 0.23 0
Si1 Si4+ 8 f 0.1265(4) 0.4556(8) 0.2467(3) 1.16(3) 0.66 0
Ge1 Ge4+ 8 f 0.1265(4) 0.4556(8) 0.2467(3) 1.16(3) 0.34 0
Si2 Si4+ 4 e 0 0.8389(9) 0.25 0.47(4) 0.33 0
Ge2 Ge4+ 4 e 0 0.8389(9) 0.25 0.47(4) 0.67 0
O1 O2- 8 f 0.1303(7) 0.4100(4) 0.1040(5) 0.87(2) 1. 0
O2 O2- 8 f 0.2284(7) 0.4055(5) 0.3921(6) 0.63(3) 1. 0
O3 O2- 8 f 0.1112(8) 0.6897(8) 0.2503(6) 0.32(3) 0.93 0
O4 O2- 8 f 0.0491(6) 0.9351(4) 0.3969(3) 0.76(3) 0.97 0
O5 O2- 4 e 0 0.3600(4) 0.25 0.37(2) 0.95 0
#End of TTdata_236876-ICSD