
#(C) 2019 by FIZ Karlsruhe - Leibniz Institute for Information Infrastructure.  All rights reserved.
data_237075-ICSD
_database_code_ICSD 237075
_audit_creation_date 2015-02-01
_chemical_name_systematic 'Dihydronium sodium trialuminium dodecafluoride'
_chemical_formula_structural '(H3 O)2 Na Al3 F12'
_chemical_formula_sum 'H6 Al3 F12 Na1 O2'
_exptl_crystal_density_diffrn 2.53
_cell_measurement_temperature 120.
_publ_section_title

;
(H3 O)2 Na Al3 F12, isostructural with (A)2 Na Al3 F12 (A = K(+), Rb(+),
Cs(+)) fluorides having HTB-type sheets
;
loop_
_citation_id
_citation_journal_full
_citation_year
_citation_journal_volume
_citation_page_first
_citation_page_last
_citation_journal_id_ASTM
primary 'Acta Crystallographica, Section C: Structural Chemistry' 2014 70 512
516 ACSCGG
loop_
_publ_author_name
'Jouffret, Laurent'
'Lhoste, Jerome'
'Hemon-Ribaud, Annie'
'Leblanc, Marc'
'Maisonneuve, Vincent'
_cell_length_a 7.0869(2)
_cell_length_b 6.9749(2)
_cell_length_c 9.8196(3)
_cell_angle_alpha 90.
_cell_angle_beta 91.3930(10)
_cell_angle_gamma 90.
_cell_volume 485.24
_cell_formula_units_Z 2
_symmetry_space_group_name_H-M 'P 1 21/m 1'
_symmetry_Int_Tables_number 11
_refine_ls_R_factor_all 0.0281
loop_
_symmetry_equiv_pos_site_id
_symmetry_equiv_pos_as_xyz
1 'x, -y+1/2, z'
2 '-x, -y, -z'
3 '-x, y+1/2, -z'
4 'x, y, z'
loop_
_atom_type_symbol
_atom_type_oxidation_number
Al3+ 3
F1- -1
O2- -2
H1+ 1
O2- -2
H1+ 1
Na1+ 1
loop_
_atom_site_label
_atom_site_type_symbol
_atom_site_symmetry_multiplicity
_atom_site_Wyckoff_symbol
_atom_site_fract_x
_atom_site_fract_y
_atom_site_fract_z
_atom_site_B_iso_or_equiv
_atom_site_occupancy
_atom_site_attached_hydrogens
Al1 Al3+ 2 d 0.5 0. 0.5 0.00368(13) 1 0
Al2 Al3+ 2 a 0. 0.5 0. 0.00356(13) 1 0
Al3 Al3+ 2 e 0.20623(7) 0.25 0.27395(5) 0.00394(13) 1 0
F1 F1- 2 e 0.57569(16) 0.25 0.50820(12) 0.0087(2) 1 0
F2 F1- 2 e -0.00979(16) 0.25 0.36125(12) 0.0111(2) 1 0
F3 F1- 2 e -0.01648(16) 0.75 0.05539(11) 0.0071(2) 1 0
F4 F1- 2 e 0.41009(17) 0.25 0.17982(12) 0.0111(2) 1 0
F5 F1- 4 f 0.36266(12) 0.03081(13) 0.64495(8) 0.00953(17) 1 0
F6 F1- 4 f 0.29629(11) 0.06482(11) 0.39041(8) 0.00725(16) 1 0
F7 F1- 4 f -0.22512(11) 0.45634(12) 0.06434(9) 0.01010(17) 1 0
F8 F1- 4 f 0.10568(12) 0.44061(12) 0.16570(8) 0.00960(17) 1 0
O1 O2- 2 e 0.0295(3) 0.25 0.63603(18) 0.0216(4) 1 0
H1 H1+ 2 e -0.005(4) 0.25 0.5354(17) 0.025(4) 1 0
H2 H1+ 4 f 0.136(5) 0.162(5) 0.666(3) 0.025(4) 0.5 0
H3 H1+ 4 f -0.037(5) 0.340(5) 0.698(3) 0.025(4) 0.5 0
O2 O2- 2 e 0.4927(3) 0.25 0.8865(2) 0.0239(4) 1 0
H4 H1+ 4 f 0.393(4) 0.152(6) 0.919(4) 0.025(4) 0.5 0
H5 H1+ 2 e 0.614(3) 0.25 0.944(3) 0.025(4) 1 0
H6 H1+ 4 f 0.497(6) 0.318(6) 0.794(3) 0.025(4) 0.5 0
Na1 Na1+ 2 e 0.71352(11) 0.25 0.24193(8) 0.00535(15) 1 0
loop_
_atom_site_aniso_label
_atom_site_aniso_type_symbol
_atom_site_aniso_U_11
_atom_site_aniso_U_22
_atom_site_aniso_U_33
_atom_site_aniso_U_12
_atom_site_aniso_U_13
_atom_site_aniso_U_23
Al1 Al3+ 0.0049(2) 0.0025(3) 0.0036(2) 0.00017(16) -0.00103(17) 0.00019(16)
Al2 Al3+ 0.0047(2) 0.0025(3) 0.0034(2) -0.00001(16) -0.00093(17) 0.00027(16)
Al3 Al3+ 0.0045(2) 0.0036(2) 0.0037(2) 0 -0.00152(18) 0
F1 F1- 0.0095(5) 0.0029(5) 0.0136(5) 0 -0.0040(4) 0
F2 F1- 0.0060(5) 0.0183(6) 0.0089(5) 0 0.0004(4) 0
F3 F1- 0.0120(5) 0.0032(5) 0.0059(5) 0 -0.0007(4) 0
F4 F1- 0.0087(5) 0.0167(6) 0.0079(5) 0 0.0011(4) 0
F5 F1- 0.0112(4) 0.0108(4) 0.0067(3) 0.0028(3) 0.0023(3) 0.0010(3)
F6 F1- 0.0083(3) 0.0055(3) 0.0077(3) 0.0001(3) -0.0040(3) 0.0018(3)
F7 F1- 0.0080(4) 0.0075(4) 0.0150(4) -0.0002(3) 0.0034(3) 0.0011(3)
F8 F1- 0.0159(4) 0.0060(4) 0.0066(3) 0.0021(3) -0.0058(3) 0.0007(3)
O1 O2- 0.0211(8) 0.0261(9) 0.0177(8) 0 0.0016(6) 0
O2 O2- 0.0254(9) 0.0251(9) 0.0210(8) 0 -0.0037(7) 0
Na1 Na1+ 0.0048(3) 0.0056(3) 0.0057(3) 0 0.0000(2) 0
#End of TTdata_237075-ICSD