
#(C) 2019 by FIZ Karlsruhe - Leibniz Institute for Information Infrastructure.  All rights reserved.
data_237260-ICSD
_database_code_ICSD 237260
_audit_creation_date 2015-02-01
_chemical_name_systematic
'Europium sodium scandium silicon oxide (0.02/0.98/1/2/6)'
_chemical_formula_structural 'Eu0.02 Na0.98 Sc Si2 O6'
_chemical_formula_sum 'Eu0.02 Na0.98 O6 Sc1 Si2'
_chemical_name_structure_type Pyroxene-CaMg(SiO3)2
_exptl_crystal_density_diffrn 3.24
_cell_measurement_temperature 300.
_publ_section_title

;
Structural and luminescence properties of yellow-emitting Na Sc Si2 O6:Eu2+
phosphors: Eu2+ Site preference analysis and generation of red emission by
codoping Mn2+ for white-light-emitting diode applications
;
loop_
_citation_id
_citation_journal_full
_citation_year
_citation_journal_volume
_citation_page_first
_citation_page_last
_citation_journal_id_ASTM
primary 'Journal of Physical Chemistry C' 2013 117 20847 20854 JPCCCK
loop_
_publ_author_name
'Xia, Zhiguo'
'Zhang, Yuanyuan'
'Molokeev, Maxim S.'
'Atuchin, Victor V.'
_cell_length_a 9.83355(36)
_cell_length_b 9.07414(34)
_cell_length_c 5.34456(19)
_cell_angle_alpha 90
_cell_angle_beta 107.0207(20)
_cell_angle_gamma 90
_cell_volume 456.01
_cell_formula_units_Z 4
_symmetry_space_group_name_H-M 'C 1 2/c 1'
_symmetry_Int_Tables_number 15
_refine_ls_R_factor_all 0.0396
loop_
_symmetry_equiv_pos_site_id
_symmetry_equiv_pos_as_xyz
1 'x, -y, z+1/2'
2 '-x, -y, -z'
3 '-x, y, -z+1/2'
4 'x, y, z'
5 'x+1/2, -y+1/2, z+1/2'
6 '-x+1/2, -y+1/2, -z'
7 '-x+1/2, y+1/2, -z+1/2'
8 'x+1/2, y+1/2, z'
loop_
_atom_type_symbol
_atom_type_oxidation_number
Na1+ 1
Eu3+ 3
Sc3+ 3
Si4+ 4
O2- -2
loop_
_atom_site_label
_atom_site_type_symbol
_atom_site_symmetry_multiplicity
_atom_site_Wyckoff_symbol
_atom_site_fract_x
_atom_site_fract_y
_atom_site_fract_z
_atom_site_B_iso_or_equiv
_atom_site_occupancy
_atom_site_attached_hydrogens
Na1 Na1+ 4 e 0 0.30543(59) 0.25 2.77(25) 0.9799(31) 0
Eu1 Eu3+ 4 e 0 0.30543(59) 0.25 2.77(25) 0.0201(31) 0
Sc1 Sc3+ 4 e 0 0.89471(33) 0.25 1.42(25) 1.0000(54) 0
Si1 Si4+ 8 f 0.29152(28) 0.08576(35) 0.24347(53) 2.16(20) 1 0
O1 O2- 8 f 0.11363(51) 0.08386(77) 0.14083(92) 1.26(21) 1 0
O2 O2- 8 f 0.35752(54) 0.25167(62) 0.3039(10) 1.26(21) 1 0
O3 O2- 8 f 0.35542(76) 0.00539(49) 0.0212(15) 1.26(21) 1 0
#End of TTdata_237260-ICSD