
#(C) 2017 by FIZ Karlsruhe - Leibniz Institute for Information Infrastructure.  All rights reserved.
data_23748-ICSD
_database_code_ICSD 23748
_audit_creation_date 1986-10-10
_chemical_name_systematic 'Lithium chloride hydrate'
_chemical_formula_structural 'Li Cl (H2 O)'
_chemical_formula_sum 'H2 Cl1 Li1 O1'
_exptl_crystal_density_diffrn 1.76
_publ_section_title

;
Roentgenographische und kernmagnetische Breitlinienresonanz-Untersuchung der
Lithiumhalogenid - monohydrate
;
loop_
_citation_id
_citation_journal_full
_citation_year
_citation_journal_volume
_citation_page_first
_citation_page_last
_citation_journal_id_ASTM
primary 'Chemische Berichte' 1969 102 632 642 CHBEAM
loop_
_publ_author_name
'Weiss, E.'
'Hensel, H.G.'
'Kuehr, H.'
_cell_length_a 7.669(4)
_cell_length_b 7.669(4)
_cell_length_c 7.742(4)
_cell_angle_alpha 90.
_cell_angle_beta 90.
_cell_angle_gamma 90.
_cell_volume 455.33
_cell_formula_units_Z 8
_symmetry_space_group_name_H-M 'P 42/n m c S'
_symmetry_Int_Tables_number 137
_refine_ls_R_factor_all 0.12
loop_
_symmetry_equiv_pos_site_id
_symmetry_equiv_pos_as_xyz
1 '-y+1/2, -x+1/2, z+1/2'
2 'y+1/2, x+1/2, z+1/2'
3 '-y, -x, -z'
4 'y, x, -z'
5 'y+1/2, -x+1/2, z+1/2'
6 '-y+1/2, x+1/2, z+1/2'
7 'y, -x, -z'
8 '-y, x, -z'
9 'x+1/2, -y+1/2, -z+1/2'
10 '-x+1/2, y+1/2, -z+1/2'
11 'x, -y, z'
12 '-x, y, z'
13 '-x+1/2, -y+1/2, -z+1/2'
14 'x+1/2, y+1/2, -z+1/2'
15 '-x, -y, z'
16 'x, y, z'
loop_
_atom_type_symbol
_atom_type_oxidation_number
Li1+ 1
Cl1- -1
O2- -2
H1+ 1
loop_
_atom_site_label
_atom_site_type_symbol
_atom_site_symmetry_multiplicity
_atom_site_Wyckoff_symbol
_atom_site_fract_x
_atom_site_fract_y
_atom_site_fract_z
_atom_site_B_iso_or_equiv
_atom_site_occupancy
_atom_site_attached_hydrogens
Li1 Li1+ 8 e 0.25 0.25 0.25 3.95 0.333 0
Li2 Li1+ 8 g 0 0.26 0.483 3.95 0.333 0
Li3 Li1+ 8 g 0 0.241 0.984 3.95 0.333 0
Cl1 Cl1- 4 d 0 0.5 0.215 3.95 1. 0
Cl2 Cl1- 4 c 0 0 0.231 3.95 1. 0
O1 O2- 8 f 0.254 0.254 0 3.95 1. 0
#End of TTdata_23748-ICSD