
#(C) 2019 by FIZ Karlsruhe - Leibniz Institute for Information Infrastructure.  All rights reserved.
data_237455-ICSD
_database_code_ICSD 237455
_audit_creation_date 2015-02-01
_chemical_name_systematic 'Silver digermanium pentasodium heptasulfide'
_chemical_formula_structural 'Ag Ge2 Na5 S7'
_chemical_formula_sum 'Ag1 Ge2 Na5 S7'
_chemical_name_structure_type Na6Ge2Se7
_exptl_crystal_density_diffrn 2.91
_cell_measurement_temperature 296.
_publ_section_title

;
Mild solvothermal syntheses of thioargentates A-Ag-S (A = K, Rb, Cs) and
A-Ag-Ge-S (A = Na, Rb): Crucial role of excess sulfur
;
loop_
_citation_id
_citation_journal_full
_citation_year
_citation_journal_volume
_citation_page_first
_citation_page_last
_citation_journal_id_ASTM
primary 'Inorganic Chemistry' 2013 52 12367 12371 INOCAJ
loop_
_publ_author_name
'Zhang, Chi'
'Wang, Kai-Ni'
'Ji, Min'
'An, Yong-Lin'
_cell_length_a 9.1456(18)
_cell_length_b 10.2611(19)
_cell_length_c 14.863(3)
_cell_angle_alpha 90.
_cell_angle_beta 104.315(2)
_cell_angle_gamma 90.
_cell_volume 1351.49
_cell_formula_units_Z 4
_symmetry_space_group_name_H-M 'C 1 2/c 1'
_symmetry_Int_Tables_number 15
_refine_ls_R_factor_all 0.027
loop_
_symmetry_equiv_pos_site_id
_symmetry_equiv_pos_as_xyz
1 'x, -y, z+1/2'
2 '-x, -y, -z'
3 '-x, y, -z+1/2'
4 'x, y, z'
5 'x+1/2, -y+1/2, z+1/2'
6 '-x+1/2, -y+1/2, -z'
7 '-x+1/2, y+1/2, -z+1/2'
8 'x+1/2, y+1/2, z'
loop_
_atom_type_symbol
_atom_type_oxidation_number
Ge4+ 4
Ag1+ 1
S2- -2
Na1+ 1
loop_
_atom_site_label
_atom_site_type_symbol
_atom_site_symmetry_multiplicity
_atom_site_Wyckoff_symbol
_atom_site_fract_x
_atom_site_fract_y
_atom_site_fract_z
_atom_site_B_iso_or_equiv
_atom_site_occupancy
_atom_site_attached_hydrogens
Ge1 Ge4+ 8 f 0.15813(5) 0.07795(5) 0.35894(3) 0.01423(19) 1 0
Ag1 Ag1+ 4 e 0. 0.41382(7) 0.25 0.0482(3) 1 0
S1 S2- 8 f 0.19538(14) -0.06546(11) 0.47244(8) 0.0184(3) 1 0
S2 S2- 8 f 0.06056(14) 0.26103(11) 0.39246(8) 0.0201(3) 1 0
S3 S2- 8 f 0.36730(13) 0.11440(12) 0.31579(8) 0.0206(3) 1 0
S4 S2- 4 e 0. -0.04119(18) 0.25 0.0291(4) 1 0
Na1 Na1+ 8 f 0.1200(2) 0.1434(2) 0.58134(15) 0.0295(5) 1 0
Na2 Na1+ 4 b 0. 0.5 0.5 0.0290(7) 1 0
Na3 Na1+ 8 f 0.2610(3) 0.2226(2) 0.14020(15) 0.0348(5) 1 0
loop_
_atom_site_aniso_label
_atom_site_aniso_type_symbol
_atom_site_aniso_U_11
_atom_site_aniso_U_22
_atom_site_aniso_U_33
_atom_site_aniso_U_12
_atom_site_aniso_U_13
_atom_site_aniso_U_23
Ge1 Ge4+ 0.0161(3) 0.0112(3) 0.0165(3) 0.00142(17) 0.0061(2) 0.00157(18)
Ag1 Ag1+ 0.0802(6) 0.0288(4) 0.0353(4) 0. 0.0136(4) 0.
S1 S2- 0.0210(6) 0.0154(6) 0.0197(6) 0.0015(4) 0.0069(5) 0.0050(5)
S2 S2- 0.0252(6) 0.0151(6) 0.0207(6) 0.0061(5) 0.0069(5) -0.0007(5)
S3 S2- 0.0205(6) 0.0203(6) 0.0248(6) 0.0018(5) 0.0127(5) 0.0033(5)
S4 S2- 0.0356(11) 0.0186(9) 0.0254(9) 0. -0.0070(8) 0.
Na1 Na1+ 0.0295(11) 0.0267(12) 0.0346(12) -0.0050(9) 0.0119(9) -0.0072(9)
Na2 Na1+ 0.0194(14) 0.0344(17) 0.0315(16) -0.0002(12) 0.0029(12) 0.0035(13)
Na3 Na1+ 0.0448(14) 0.0333(12) 0.0252(11) -0.0052(10) 0.0065(10) 0.0073(9)
#End of TTdata_237455-ICSD