
#(C) 2018 by FIZ Karlsruhe - Leibniz Institute for Information Infrastructure.  All rights reserved.
data_237527-ICSD
_database_code_ICSD 237527
_audit_creation_date 2015-02-01
_chemical_name_systematic 'Lithium copper boron oxide (9/7/14/32)'
_chemical_formula_structural 'Li8 Cu7 B14 O32'
_chemical_formula_sum 'B14 Cu7 Li8 O32'
_exptl_crystal_density_diffrn 3.22
_cell_measurement_temperature 296.
_publ_section_title

;
New lithium copper borates with B O3 triangles: Li6 Cu B4 O10, Li3 Cu B3 O7,
Li8 Cu7 B14 O32, and Li2 Cu9 B12 O28
;
loop_
_citation_id
_citation_journal_full
_citation_year
_citation_journal_volume
_citation_page_first
_citation_page_last
_citation_journal_id_ASTM
primary 'Inorganic Chemistry' 2013 52 13974 13983 INOCAJ
loop_
_publ_author_name
'Kuratieva, N.V.'
'Banki, M.'
'Tsirlin, A.A.'
'Eckert, J.'
'Ehrenberg, H.'
'Mikhailova, D.'
_cell_length_a 25.447(10)
_cell_length_b 3.3185(13)
_cell_length_c 14.200(6)
_cell_angle_alpha 90.
_cell_angle_beta 90.
_cell_angle_gamma 90.
_cell_volume 1199.13
_cell_formula_units_Z 2
_symmetry_space_group_name_H-M 'P c a 21'
_symmetry_Int_Tables_number 29
_refine_ls_R_factor_all 0.0476
loop_
_symmetry_equiv_pos_site_id
_symmetry_equiv_pos_as_xyz
1 'x+1/2, -y, z'
2 '-x+1/2, y, z+1/2'
3 '-x, -y, z+1/2'
4 'x, y, z'
loop_
_atom_type_symbol
_atom_type_oxidation_number
Cu2+ 2
O2- -2
B3+ 3
Li1+ 1
loop_
_atom_site_label
_atom_site_type_symbol
_atom_site_symmetry_multiplicity
_atom_site_Wyckoff_symbol
_atom_site_fract_x
_atom_site_fract_y
_atom_site_fract_z
_atom_site_B_iso_or_equiv
_atom_site_occupancy
_atom_site_attached_hydrogens
Cu1 Cu2+ 4 a 0.73679(3) 0.8430(3) 0.62577(6) 0.0096(2) 1. 0
Cu2 Cu2+ 4 a 0.62581(3) 0.1245(3) 0.67060(6) 0.0111(2) 1. 0
Cu3 Cu2+ 4 a 0.52238(8) 0.4819(6) 0.68543(15) 0.0299(5) 0.5 0
Cu4 Cu2+ 4 a 0.93707(3) 0.0010(3) 0.52044(7) 0.00929(18) 1. 0
O1 O2- 4 a 0.59029(19) 0.4727(15) 0.7556(3) 0.0122(11) 1. 0
O2 O2- 4 a 0.69632(18) 0.1507(17) 0.7269(3) 0.0121(11) 1. 0
O3 O2- 4 a 0.74089(17) 0.5216(15) 0.0174(4) 0.0137(10) 1. 0
O4 O2- 4 a 0.83470(18) 0.8258(15) 0.0788(4) 0.0123(11) 1. 0
O5 O2- 4 a 0.94019(19) 0.0872(16) 0.1070(3) 0.0154(12) 1. 0
O6 O2- 4 a 0.57632(19) 0.6132(16) 0.9185(3) 0.0144(11) 1. 0
O7 O2- 4 a 0.6608(2) 0.4365(15) 0.8681(3) 0.0124(12) 1. 0
O8 O2- 4 a 0.7501(2) 0.2981(16) 0.8559(3) 0.0146(8) 1. 0
O9 O2- 4 a 0.82057(18) 0.5736(16) 0.9248(3) 0.0118(11) 1. 0
O10 O2- 4 a 0.90311(19) 0.8106(16) 0.9641(3) 0.0146(8) 1. 0
O11 O2- 4 a 0.99128(18) 0.9634(14) 0.9673(3) 0.0080(10) 1. 0
O12 O2- 4 a 0.80348(19) 0.8743(17) 0.6907(4) 0.0170(7) 1. 0
O13 O2- 4 a 0.86284(19) 0.9836(14) 0.5611(4) 0.0114(11) 1. 0
O14 O2- 4 a 0.95534(19) 0.3796(16) 0.6197(4) 0.0148(11) 1. 0
O15 O2- 4 a 0.8833(2) 0.1643(17) 0.7227(4) 0.0170(7) 1. 0
O16 O2- 4 a 0.9642(2) 0.4135(16) 0.7815(4) 0.0170(7) 1. 0
B1 B3+ 4 a 0.6063(3) 0.511(3) 0.8462(6) 0.0083(16) 1. 0
B2 B3+ 4 a 0.7016(3) 0.291(2) 0.8139(6) 0.0083(16) 1. 0
B3 B3+ 4 a 0.7673(3) 0.472(3) 0.9400(6) 0.0083(16) 1. 0
B4 B3+ 4 a 0.8523(3) 0.742(2) 0.9926(6) 0.0099(12) 1. 0
B5 B3+ 4 a 0.9464(3) 0.961(2) 0.0158(7) 0.0099(12) 1. 0
B6 B3+ 4 a 0.8496(3) 0.002(2) 0.6532(5) 0.0096(12) 1. 0
B7 B3+ 4 a 0.9354(3) 0.322(2) 0.7064(5) 0.0096(12) 1. 0
Li1 Li1+ 4 a 0.9347(10) 0.925(7) 0.8425(17) 0.013(2) 1. 0
Li2 Li1+ 4 a 0.8160(5) 0.399(4) 0.7809(9) 0.020(3) 1. 0
Li3 Li1+ 4 a 0.8369(4) 0.491(4) 0.5046(8) 0.013(2) 1. 0
Li4 Li1+ 4 a 0.5031(6) 0.548(4) 0.8906(9) 0.017(3) 1. 0
#End of TTdata_237527-ICSD