
#(C) 2018 by FIZ Karlsruhe - Leibniz Institute for Information Infrastructure.  All rights reserved.
data_237525-ICSD
_database_code_ICSD 237525
_audit_creation_date 2015-02-01
_chemical_name_systematic 'Dilithium nonacopper dodecaborate'
_chemical_formula_structural 'Li2 Cu9 B12 O28'
_chemical_formula_sum 'B12 Cu9 Li2 O28'
_exptl_crystal_density_diffrn 3.73
_cell_measurement_temperature 296.
_publ_section_title

;
New lithium copper borates with B O3 triangles: Li6 Cu B4 O10, Li3 Cu B3 O7,
Li8 Cu7 B14 O32, and Li2 Cu9 B12 O28
;
loop_
_citation_id
_citation_journal_full
_citation_year
_citation_journal_volume
_citation_page_first
_citation_page_last
_citation_journal_id_ASTM
primary 'Inorganic Chemistry' 2013 52 13974 13983 INOCAJ
loop_
_publ_author_name
'Kuratieva, N.V.'
'Banki, M.'
'Tsirlin, A.A.'
'Eckert, J.'
'Ehrenberg, H.'
'Mikhailova, D.'
_cell_length_a 3.2984(8)
_cell_length_b 9.857(3)
_cell_length_c 16.152(4)
_cell_angle_alpha 94.333(5)
_cell_angle_beta 95.383(5)
_cell_angle_gamma 96.494(5)
_cell_volume 517.49
_cell_formula_units_Z 1
_symmetry_space_group_name_H-M 'P -1'
_symmetry_Int_Tables_number 2
_refine_ls_R_factor_all 0.0471
loop_
_symmetry_equiv_pos_site_id
_symmetry_equiv_pos_as_xyz
1 '-x, -y, -z'
2 'x, y, z'
loop_
_atom_type_symbol
_atom_type_oxidation_number
Cu2+ 2
O2- -2
B3+ 3
Li1+ 1
loop_
_atom_site_label
_atom_site_type_symbol
_atom_site_symmetry_multiplicity
_atom_site_Wyckoff_symbol
_atom_site_fract_x
_atom_site_fract_y
_atom_site_fract_z
_atom_site_B_iso_or_equiv
_atom_site_occupancy
_atom_site_attached_hydrogens
Cu1 Cu2+ 1 a 0 0 0 0.0067(2) 1. 0
Cu2 Cu2+ 2 i 0.7248(2) 0.15979(8) 0.14551(4) 0.0134(2) 1. 0
Cu3 Cu2+ 2 i 0.0696(3) 0.99938(8) 0.32944(5) 0.0170(2) 1. 0
Cu4 Cu2+ 1 d 0.5 0 0 0.0080(2) 1. 0
Cu5 Cu2+ 2 i 0.2625(4) 0.45863(12) 0.06966(7) 0.0174(3) 0.66 0
Cu6 Cu2+ 2 i 0.2301(3) 0.68480(9) 0.22459(5) 0.0150(2) 0.84 0
O1 O2- 2 i 0.3589(13) 0.3034(4) 0.1487(2) 0.0106(5) 1. 0
O2 O2- 2 i 0.5107(16) 0.5392(4) 0.1798(3) 0.0166(9) 1. 0
O3 O2- 2 i 0.6995(13) 0.3929(4) 0.2827(2) 0.0106(5) 1. 0
O4 O2- 2 i 0.8152(13) 0.1544(4) 0.2763(2) 0.0098(8) 1. 0
O5 O2- 2 i 0.9650(13) 0.3189(4) 0.4007(2) 0.0103(8) 1. 0
O6 O2- 2 i 0.1713(13) 0.1074(4) 0.4357(2) 0.0099(8) 1. 0
O7 O2- 2 i 0.2974(13) 0.3043(4) 0.5339(2) 0.0106(5) 1. 0
O8 O2- 2 i 0.5612(13) 0.1164(4) 0.6027(2) 0.0086(8) 1. 0
O9 O2- 2 i 0.6794(13) 0.3529(4) 0.6613(2) 0.0088(8) 1. 0
O10 O2- 2 i 0.26654(12) 0.6134(4) 0.0029(2) 0.0078(7) 1. 0
O11 O2- 2 i 0.3220(12) 0.8513(4) 0.9825(2) 0.0070(7) 1. 0
O12 O2- 2 i 0.1703(13) 0.7719(4) 0.1142(2) 0.0096(8) 1. 0
O13 O2- 2 i 0.0409(13) 0.0076(4) 0.1223(2) 0.0090(8) 1. 0
O14 O2- 2 i 0.9947(13) 0.8636(4) 0.2371(2) 0.0101(8) 1. 0
B1 B3+ 2 i 0.5155(19) 0.4111(6) 0.2038(4) 0.0071(11) 1. 0
B2 B3+ 2 i 0.8257(18) 0.2774(6) 0.3166(4) 0.0070(11) 1. 0
B3 B3+ 2 i 0.1474(19) 0.2400(6) 0.4567(4) 0.0070(11) 1. 0
B4 B3+ 2 i 0.5251(19) 0.2528(6) 0.6024(4) 0.0064(11) 1. 0
B5 B3+ 2 i 0.2582(18) 0.7437(6) 0.0303(4) 0.0057(11) 1. 0
B6 B3+ 2 i 0.0643(19) 0.8888(6) 0.1582(4) 0.0070(11) 1. 0
Li1 Li1+ 2 i 0.816(4) 0.5410(12) 0.3699(8) 0.021(2) 1. 0
#End of TTdata_237525-ICSD