
#(C) 2019 by FIZ Karlsruhe - Leibniz Institute for Information Infrastructure.  All rights reserved.
data_237688-ICSD
_database_code_ICSD 237688
_audit_creation_date 2015-02-01
_chemical_name_systematic 'Sodium bis(fluorosulfonyl)amides'
_chemical_formula_structural 'Na (N (S O2 F)2)'
_chemical_formula_sum 'F2 N1 Na1 O4 S2'
_exptl_crystal_density_diffrn 2.31
_cell_measurement_temperature 298.
_publ_section_title

;
Polymorphism of alkali bis(fluorosulfonyl)amides (M [N (S O2 F)2], M = Na, K,
and Cs)
;
loop_
_citation_id
_citation_journal_full
_citation_year
_citation_journal_volume
_citation_page_first
_citation_page_last
_citation_journal_id_ASTM
primary 'Inorganic Chemistry' 2013 52 568 576 INOCAJ
loop_
_publ_author_name
'Matsumoto, Kazuhiko'
'Oka, Takaaki'
'Nohira, Toshiyuki'
'Hagiwara, Rika'
_cell_length_a 9.2834(12)
_cell_length_b 11.9861(11)
_cell_length_c 10.6184(12)
_cell_angle_alpha 90.
_cell_angle_beta 98.413(4)
_cell_angle_gamma 90.
_cell_volume 1168.81
_cell_formula_units_Z 8
_symmetry_space_group_name_H-M 'P 1 21/n 1'
_symmetry_Int_Tables_number 14
_refine_ls_R_factor_all 0.0536
loop_
_symmetry_equiv_pos_site_id
_symmetry_equiv_pos_as_xyz
1 '-x+1/2, y+1/2, -z+1/2'
2 '-x, -y, -z'
3 'x+1/2, -y+1/2, z+1/2'
4 'x, y, z'
loop_
_atom_type_symbol
_atom_type_oxidation_number
S6+ 6
Na1+ 1
F1- -1
O2- -2
N3- -3
O2- -2
F1- -1
O2- -2
loop_
_atom_site_label
_atom_site_type_symbol
_atom_site_symmetry_multiplicity
_atom_site_Wyckoff_symbol
_atom_site_fract_x
_atom_site_fract_y
_atom_site_fract_z
_atom_site_B_iso_or_equiv
_atom_site_occupancy
_atom_site_attached_hydrogens
S1 S6+ 4 e 0.12447(11) -0.36650(7) 0.67134(9) 0.0348(3) 1 0
S2 S6+ 4 e 0.14862(11) -0.14185(8) 1.03227(9) 0.0361(3) 1 0
S3 S6+ 4 e 0.19829(12) -0.34999(8) 1.13857(10) 0.0405(3) 1 0
S4 S6+ 4 e 0.13664(11) -0.18133(7) 0.52373(9) 0.0338(3) 1 0
Na1 Na1+ 4 e 0.03567(18) 0.01055(12) 0.74555(14) 0.0378(4) 1 0
Na2 Na1+ 4 e 0.39301(19) -0.17256(13) 0.83046(16) 0.0433(4) 1 0
F1 F1- 4 e 0.0287(3) -0.3114(2) 0.7617(2) 0.0526(7) 1 0
F2 F1- 4 e 0.1201(5) -0.4373(3) 1.0491(4) 0.1009(14) 1 0
F3 F1- 4 e 0.2812(3) -0.1996(3) 0.4718(3) 0.0605(7) 1 0
O1 O2- 4 e 0.2695(3) -0.3468(2) 0.7324(3) 0.0448(7) 1 0
O2 O2- 4 e 0.1777(4) -0.1177(2) 0.6366(3) 0.0462(7) 1 0
O3 O2- 4 e 0.0423(4) -0.1334(3) 0.4224(3) 0.0545(8) 1 0
O4 O2- 4 e 0.1008(4) -0.3249(3) 1.2238(4) 0.0682(11) 1 0
O5 O2- 4 e 0.3316(4) -0.3996(3) 1.1854(4) 0.0752(12) 1 0
O6 O2- 4 e 0.0739(4) -0.4774(2) 0.6561(3) 0.0554(9) 1 0
N1 N3- 4 e 0.0807(4) -0.3026(2) 0.5430(3) 0.0361(7) 1 0
N2 N3- 4 e 0.2235(4) -0.2572(3) 1.0419(4) 0.0490(9) 1 0
O7 O2- 4 e 0.1714(4) -0.0947(3) 0.9149(3) 0.0603(9) 1 0
O8 O2- 4 e 0.0215(5) -0.1263(4) 1.0860(5) 0.0537(16) 0.705(8) 0
F4 F1- 4 e 0.2594(6) -0.0710(4) 1.1261(5) 0.0748(17) 0.705(8) 0
F5 F1- 4 e -0.0130(6) -0.1704(9) 0.9782(10) 0.063(4) 0.295(8) 0
O9 O2- 4 e 0.1381(18) -0.0817(9) 1.1415(7) 0.061(5) 0.295(8) 0
loop_
_atom_site_aniso_label
_atom_site_aniso_type_symbol
_atom_site_aniso_U_11
_atom_site_aniso_U_22
_atom_site_aniso_U_33
_atom_site_aniso_U_12
_atom_site_aniso_U_13
_atom_site_aniso_U_23
S1 S6+ 0.0388(5) 0.0292(5) 0.0341(5) 0.0037(3) -0.0024(4) 0.0027(3)
S2 S6+ 0.0385(6) 0.0371(5) 0.0339(5) 0.0039(4) 0.0091(4) 0.0035(3)
S3 S6+ 0.0417(6) 0.0330(5) 0.0461(6) 0.0020(4) 0.0034(4) 0.0030(4)
S4 S6+ 0.0386(5) 0.0336(5) 0.0276(5) 0.0011(3) -0.0004(4) 0.0024(3)
Na1 Na1+ 0.0468(10) 0.0313(7) 0.0333(8) -0.0006(6) -0.0014(7) 0.0009(6)
Na2 Na1+ 0.0432(9) 0.0385(8) 0.0466(10) 0.0034(7) 0.0014(7) -0.0035(6)
F1 F1- 0.0566(17) 0.0607(16) 0.0420(14) 0.0071(12) 0.0121(12) -0.0006(11)
F2 F1- 0.113(3) 0.071(2) 0.111(3) -0.035(2) -0.007(3) -0.029(2)
F3 F1- 0.0457(16) 0.0784(19) 0.0604(18) -0.0051(13) 0.0175(14) -0.0054(14)
O1 O2- 0.0400(17) 0.0424(15) 0.0469(17) 0.0060(12) -0.0106(13) 0.0037(12)
O2 O2- 0.064(2) 0.0343(14) 0.0383(16) -0.0075(13) 0.0006(14) -0.0045(11)
O3 O2- 0.063(2) 0.0537(18) 0.0422(17) 0.0057(15) -0.0078(15) 0.0178(13)
O4 O2- 0.077(3) 0.065(2) 0.071(2) 0.0085(18) 0.040(2) 0.0228(18)
O5 O2- 0.058(2) 0.067(2) 0.098(3) 0.0219(18) 0.005(2) 0.034(2)
O6 O2- 0.065(2) 0.0320(15) 0.066(2) -0.0041(13) -0.0008(17) 0.0046(13)
N1 N3- 0.0430(19) 0.0320(16) 0.0295(16) -0.0016(13) -0.0068(13) 0.0001(11)
N2 N3- 0.058(2) 0.048(2) 0.046(2) 0.0188(17) 0.0247(18) 0.0107(15)
O7 O2- 0.082(3) 0.062(2) 0.0384(18) 0.0108(18) 0.0147(17) 0.0190(14)
O8 O2- 0.049(3) 0.049(3) 0.067(4) 0.015(2) 0.023(3) 0.004(2)
F4 F1- 0.068(4) 0.082(3) 0.070(3) -0.014(2) -0.002(3) -0.032(2)
F5 F1- 0.036(5) 0.079(7) 0.073(8) 0.002(4) 0.002(5) 0.009(5)
O9 O2- 0.097(13) 0.051(6) 0.039(6) 0.014(7) 0.023(7) -0.007(5)
#End of TTdata_237688-ICSD