
#(C) 2019 by FIZ Karlsruhe - Leibniz Institute for Information Infrastructure.  All rights reserved.
data_237690-ICSD
_database_code_ICSD 237690
_audit_creation_date 2015-02-01
_chemical_name_systematic 'Sodium bis(dioxofluorosulfonato)amide'
_chemical_formula_structural 'Na (N (S O2 F)2)'
_chemical_formula_sum 'F2 N1 Na1 O4 S2'
_exptl_crystal_density_diffrn 2.33
_cell_measurement_temperature 298.
_publ_section_title

;
Polymorphism of alkali bis(fluorosulfonyl)amides (M [N (S O2 F)2], M = Na, K,
and Cs)
;
loop_
_citation_id
_citation_journal_full
_citation_year
_citation_journal_volume
_citation_page_first
_citation_page_last
_citation_journal_id_ASTM
primary 'Inorganic Chemistry' 2013 52 568 576 INOCAJ
loop_
_publ_author_name
'Matsumoto, Kazuhiko'
'Oka, Takaaki'
'Nohira, Toshiyuki'
'Hagiwara, Rika'
_cell_length_a 9.8999(18)
_cell_length_b 9.135(2)
_cell_length_c 7.3737(17)
_cell_angle_alpha 90.
_cell_angle_beta 119.544(13)
_cell_angle_gamma 90.
_cell_volume 580.13
_cell_formula_units_Z 4
_symmetry_space_group_name_H-M 'P 1 21/n 1'
_symmetry_Int_Tables_number 14
_refine_ls_R_factor_all 0.0298
loop_
_symmetry_equiv_pos_site_id
_symmetry_equiv_pos_as_xyz
1 '-x+1/2, y+1/2, -z+1/2'
2 '-x, -y, -z'
3 'x+1/2, -y+1/2, z+1/2'
4 'x, y, z'
loop_
_atom_type_symbol
_atom_type_oxidation_number
S6+ 6
F1- -1
O2- -2
N3- -3
Na1+ 1
loop_
_atom_site_label
_atom_site_type_symbol
_atom_site_symmetry_multiplicity
_atom_site_Wyckoff_symbol
_atom_site_fract_x
_atom_site_fract_y
_atom_site_fract_z
_atom_site_B_iso_or_equiv
_atom_site_occupancy
_atom_site_attached_hydrogens
S1 S6+ 4 e 0.11023(5) 0.77632(4) -0.02388(6) 0.03100(15) 1 0
S2 S6+ 4 e 0.22988(5) 0.78158(4) -0.29299(6) 0.03111(15) 1 0
F1 F1- 4 e -0.02713(13) 0.88146(13) -0.15122(18) 0.0485(3) 1 0
F2 F1- 4 e 0.11542(14) 0.89959(14) -0.43740(19) 0.0546(3) 1 0
O1 O2- 4 e 0.22876(15) 0.86718(15) 0.1246(2) 0.0432(3) 1 0
O2 O2- 4 e 0.36341(14) 0.86378(14) -0.15197(19) 0.0380(3) 1 0
O3 O2- 4 e 0.04753(16) 0.66382(16) 0.0456(2) 0.0469(3) 1 0
O4 O2- 4 e 0.24439(16) 0.67996(16) -0.4275(2) 0.0481(3) 1 0
N1 N3- 4 e 0.13911(18) 0.70521(15) -0.1949(2) 0.0340(3) 1 0
Na1 Na1+ 4 e 0.43474(7) 1.01512(7) 0.18796(10) 0.0358(2) 1 0
loop_
_atom_site_aniso_label
_atom_site_aniso_type_symbol
_atom_site_aniso_U_11
_atom_site_aniso_U_22
_atom_site_aniso_U_33
_atom_site_aniso_U_12
_atom_site_aniso_U_13
_atom_site_aniso_U_23
S1 S6+ 0.0301(2) 0.0290(2) 0.0319(2) -0.00294(13) 0.01368(18) -0.00071(13)
S2 S6+ 0.0301(2) 0.0297(2) 0.0308(2) -0.00209(13) 0.01290(18) -0.00161(13)
F1 F1- 0.0430(6) 0.0426(6) 0.0548(7) 0.0118(5) 0.0203(5) 0.0017(5)
F2 F1- 0.0478(6) 0.0511(7) 0.0515(7) 0.0091(5) 0.0142(6) 0.0193(5)
O1 O2- 0.0429(7) 0.0466(7) 0.0379(6) -0.0135(6) 0.0183(6) -0.0115(6)
O2 O2- 0.0337(6) 0.0388(7) 0.0398(6) -0.0087(5) 0.0168(5) -0.0059(5)
O3 O2- 0.0493(7) 0.0456(8) 0.0488(7) -0.0107(6) 0.0265(6) 0.0050(6)
O4 O2- 0.0533(8) 0.0506(8) 0.0477(7) -0.0104(6) 0.0306(7) -0.0166(6)
N1 N3- 0.0367(7) 0.0284(7) 0.0389(7) -0.0064(5) 0.0200(6) -0.0068(5)
Na1 Na1+ 0.0363(4) 0.0342(4) 0.0378(4) -0.0030(3) 0.0189(3) -0.0011(3)
#End of TTdata_237690-ICSD