
#(C) 2019 by FIZ Karlsruhe - Leibniz Institute for Information Infrastructure.  All rights reserved.
data_237747-ICSD
_database_code_ICSD 237747
_audit_creation_date 2015-02-01
_chemical_name_systematic 'Sodium manganese digermanate'
_chemical_formula_structural 'Na Mn Ge2 O6'
_chemical_formula_sum 'Ge2 Mn1 Na1 O6'
_chemical_name_structure_type Pyroxene-CaMg(SiO3)2
_exptl_crystal_density_diffrn 4.57
_cell_measurement_temperature 25.
_publ_section_title

;
Crystal and magnetic structures and physical properties of a new pyroxene Na
Mn Ge2 O6 synthesized under high pressure
;
loop_
_citation_id
_citation_journal_full
_citation_year
_citation_journal_volume
_citation_page_first
_citation_page_last
_citation_journal_id_ASTM
primary 'Journal of the American Chemical Society' 2013 135 2776 2786 JACSAT
loop_
_publ_author_name
'Cheng, Jinguang'
'Tian, Wei'
'Zhou, Jianshi'
'Lynch, Vincent M.'
'Steinfink, Hugo'
'Manthiram, Arumugam'
'May, Andrew F.'
'Garlea, Vasile O.'
'Neuefeind, Joerg C.'
'Yan, Jiaqiang'
_cell_length_a 9.851(1)
_cell_length_b 8.757(1)
_cell_length_c 5.583(1)
_cell_angle_alpha 90
_cell_angle_beta 105.51(1)
_cell_angle_gamma 90
_cell_volume 464.08
_cell_formula_units_Z 4
_symmetry_space_group_name_H-M 'C 1 2/c 1'
_symmetry_Int_Tables_number 15
loop_
_symmetry_equiv_pos_site_id
_symmetry_equiv_pos_as_xyz
1 'x, -y, z+1/2'
2 '-x, -y, -z'
3 '-x, y, -z+1/2'
4 'x, y, z'
5 'x+1/2, -y+1/2, z+1/2'
6 '-x+1/2, -y+1/2, -z'
7 '-x+1/2, y+1/2, -z+1/2'
8 'x+1/2, y+1/2, z'
loop_
_atom_type_symbol
_atom_type_oxidation_number
Na1+ 1
Mn3+ 3
Ge4+ 4
O2- -2
loop_
_atom_site_label
_atom_site_type_symbol
_atom_site_symmetry_multiplicity
_atom_site_Wyckoff_symbol
_atom_site_fract_x
_atom_site_fract_y
_atom_site_fract_z
_atom_site_B_iso_or_equiv
_atom_site_occupancy
_atom_site_attached_hydrogens
Na1 Na1+ 4 e 0.5 -0.29881(149) 0.25 0.002 1. 0
Mn1 Mn3+ 4 e 0.5 0.08767(151) 0.25 0.002 1. 0
Ge1 Ge4+ 8 f 0.29181(46) -0.59051(45) 0.24285(80) 0.005 1. 0
O1 O2- 8 f 0.60786(55) -0.08043(67) 0.15225(96) 0.00113(161) 1. 0
O2 O2- 8 f 0.36161(51) -0.51214(76) 0.01442(118) 0.00256(150) 1. 0
O3 O2- 8 f 0.63625(54) 0.22434(55) 0.19007(101) 0.00148(155) 1. 0
#End of TTdata_237747-ICSD