
#(C) 2019 by FIZ Karlsruhe - Leibniz Institute for Information Infrastructure.  All rights reserved.
data_237796-ICSD
_database_code_ICSD 237796
_audit_creation_date 2015-08-01
_chemical_name_systematic 'Trisodium copper(II) carbonophosphate'
_chemical_formula_structural 'Na3 Cu (P O4) (C O3)'
_chemical_formula_sum 'C1 Cu1 Na3 O7 P1'
_exptl_crystal_density_diffrn 3.19
_cell_measurement_temperature 300.
_publ_section_title

;
Synthesis, computed stability, and crystal structure of a new family of
inorganic compounds: Carbonophosphates
;
loop_
_citation_id
_citation_journal_full
_citation_year
_citation_journal_volume
_citation_page_first
_citation_page_last
_citation_journal_id_ASTM
primary 'Journal of the American Chemical Society' 2012 134 19619 19627 JACSAT
loop_
_publ_author_name
'Chen, Hailong'
'Hautier, Geoffroy'
'Ceder, Gerbrand'
_cell_length_a 9.0079(8)
_cell_length_b 6.43969(20)
_cell_length_c 5.16525(18)
_cell_angle_alpha 90.
_cell_angle_beta 88.942(6)
_cell_angle_gamma 90.
_cell_volume 299.57
_cell_formula_units_Z 2
_symmetry_space_group_name_H-M 'P 1 21/m 1'
_symmetry_Int_Tables_number 11
loop_
_symmetry_equiv_pos_site_id
_symmetry_equiv_pos_as_xyz
1 'x, -y+1/2, z'
2 '-x, -y, -z'
3 '-x, y+1/2, -z'
4 'x, y, z'
loop_
_atom_type_symbol
_atom_type_oxidation_number
Cu2+ 2
P5+ 5
Na1+ 1
C4+ 4
O2- -2
loop_
_atom_site_label
_atom_site_type_symbol
_atom_site_symmetry_multiplicity
_atom_site_Wyckoff_symbol
_atom_site_fract_x
_atom_site_fract_y
_atom_site_fract_z
_atom_site_B_iso_or_equiv
_atom_site_occupancy
_atom_site_attached_hydrogens
Cu1 Cu2+ 2 e 0.3508(7) 0.75 0.7592(11) 0.0334(20) 1. 0
P1 P5+ 2 e 0.4104(14) 0.25 0.7298(24) 0.05819 1. 0
Na1 Na1+ 4 f 0.7370(7) 1.0097(8) 0.7608(17) 0.0220(24) 1. 0
Na2 Na1+ 2 e 0.0594(17) 0.25 0.7623(30) 0.06655 1. 0
C1 C4+ 2 e -0.011(6) 0.75 0.827(10) 0.06113 1. 0
O1 O2- 2 e 0.1195(30) 0.75 0.885(4) 0.059(10) 1. 0
O2 O2- 2 e 0.1029(22) 0.75 0.4659(33) 0.06105 1. 0
O3 O2- 2 e 0.8780(27) 0.75 0.759(5) 0.07658 1. 0
O4 O2- 4 f 0.2706 0.45656 0.79778 0.080(5) 1. 0
O5 O2- 2 e 0.5660(18) 0.25 0.8141(32) 0.01919 1. 0
O6 O2- 2 e 0.55093 0.75 0.61711 0.03438 1. 0
#End of TTdata_237796-ICSD