
#(C) 2019 by FIZ Karlsruhe - Leibniz Institute for Information Infrastructure.  All rights reserved.
data_237797-ICSD
_database_code_ICSD 237797
_audit_creation_date 2015-08-01
_chemical_name_systematic 'Trisodium cobalt(II) carbonophosphate'
_chemical_formula_structural 'Na3 Co (P O4) (C O3)'
_chemical_formula_sum 'C1 Co1 Na3 O7 P1'
_exptl_crystal_density_diffrn 3.1
_cell_measurement_temperature 300.
_publ_section_title

;
Synthesis, computed stability, and crystal structure of a new family of
inorganic compounds: Carbonophosphates
;
loop_
_citation_id
_citation_journal_full
_citation_year
_citation_journal_volume
_citation_page_first
_citation_page_last
_citation_journal_id_ASTM
primary 'Journal of the American Chemical Society' 2012 134 19619 19627 JACSAT
loop_
_publ_author_name
'Chen, Hailong'
'Hautier, Geoffroy'
'Ceder, Gerbrand'
_cell_length_a 8.89282(22)
_cell_length_b 6.61758(9)
_cell_length_c 5.14560(7)
_cell_angle_alpha 90.
_cell_angle_beta 89.4853(17)
_cell_angle_gamma 90.
_cell_volume 302.8
_cell_formula_units_Z 2
_symmetry_space_group_name_H-M 'P 1 21/m 1'
_symmetry_Int_Tables_number 11
loop_
_symmetry_equiv_pos_site_id
_symmetry_equiv_pos_as_xyz
1 'x, -y+1/2, z'
2 '-x, -y, -z'
3 '-x, y+1/2, -z'
4 'x, y, z'
loop_
_atom_type_symbol
_atom_type_oxidation_number
Co2+ 2
P5+ 5
Na1+ 1
C4+ 4
O2- -2
loop_
_atom_site_label
_atom_site_type_symbol
_atom_site_symmetry_multiplicity
_atom_site_Wyckoff_symbol
_atom_site_fract_x
_atom_site_fract_y
_atom_site_fract_z
_atom_site_B_iso_or_equiv
_atom_site_occupancy
_atom_site_attached_hydrogens
Co1 Co2+ 2 e 0.35631(27) 0.75 0.7788(4) 0.0059(6) 1. 0
P1 P5+ 2 e 0.4128(4) 0.25 0.7036(7) 0.0061(10) 1. 0
Na1 Na1+ 4 f 0.73266(31) 0.9928(4) 0.7497(7) 0.0269(10) 1. 0
Na2 Na1+ 2 e 0.0818(5) 0.25 0.7686(10) 0.0122(14) 1. 0
C1 C4+ 2 e 0.0771(15) 0.75 0.7176(28) 0.0076 1. 0
O1 O2- 2 e 0.1243(9) 0.75 0.9509(15) 0.00452 1. 0
O2 O2- 2 e 0.1315(11) 0.75 0.5102(19) 0.0291(28) 1. 0
O3 O2- 2 e 0.9381(9) 0.75 0.7345(20) 0.043(4) 1. 0
O4 O2- 4 f 0.3182(5) 0.4394(6) 0.7766(11) 0.0269(17) 1. 0
O5 O2- 2 e 0.5643(8) 0.25 0.8291(15) 0.0053 1. 0
O6 O2- 2 e 0.5519(8) 0.75 0.6142(14) 0.036(4) 1. 0
#End of TTdata_237797-ICSD