
#(C) 2019 by FIZ Karlsruhe - Leibniz Institute for Information Infrastructure.  All rights reserved.
data_237852-ICSD
_database_code_ICSD 237852
_audit_creation_date 2015-08-01
_chemical_name_systematic 'Sodium iron(II) ortho-phosphate'
_chemical_formula_structural 'Na Fe (P O4)'
_chemical_formula_sum 'Fe1 Na1 O4 P1'
_chemical_name_structure_type Olivine-Mg2SiO4
_exptl_crystal_density_diffrn 3.71
_publ_section_title
'Na2 Fe P2 O7: A safe cathode for rechargeable sodium-ion batteries'
loop_
_citation_id
_citation_journal_full
_citation_year
_citation_journal_volume
_citation_page_first
_citation_page_last
_citation_journal_id_ASTM
primary 'Chemistry of Materials' 2013 25 3480 3487 CMATEX
loop_
_publ_author_name
'Barpanda, Prabeer'
'Liu, Guandong'
'Ling, Chris D.'
'Tamaru, Mao'
'Avdeev, Maxim'
'Chung, Sai-Cheong'
'Yamada, Yuki'
'Yamada, Atsuo'
_cell_length_a 8.9903(8)
_cell_length_b 6.8681(6)
_cell_length_c 5.0441(5)
_cell_angle_alpha 90.
_cell_angle_beta 90.
_cell_angle_gamma 90.
_cell_volume 311.45
_cell_formula_units_Z 4
_symmetry_space_group_name_H-M 'P n m a'
_symmetry_Int_Tables_number 62
_refine_ls_R_factor_all 0.0414
loop_
_symmetry_equiv_pos_site_id
_symmetry_equiv_pos_as_xyz
1 'x+1/2, y, -z+1/2'
2 'x, -y+1/2, z'
3 '-x+1/2, y+1/2, z+1/2'
4 '-x, -y, -z'
5 '-x+1/2, -y, z+1/2'
6 '-x, y+1/2, -z'
7 'x+1/2, -y+1/2, -z+1/2'
8 'x, y, z'
loop_
_atom_type_symbol
_atom_type_oxidation_number
Fe2+ 2
P5+ 5
Na1+ 1
O2- -2
loop_
_atom_site_label
_atom_site_type_symbol
_atom_site_symmetry_multiplicity
_atom_site_Wyckoff_symbol
_atom_site_fract_x
_atom_site_fract_y
_atom_site_fract_z
_atom_site_B_iso_or_equiv
_atom_site_occupancy
_atom_site_attached_hydrogens
Fe1 Fe2+ 4 a 0.5 0.5 0.5 0.025 1. 0
P1 P5+ 4 c 0.3242 0.25 0.0357 0.025 1. 0
Na1 Na1+ 4 c 0.6504 0.25 -0.0296 0.025 1. 0
O1 O2- 8 d 0.3786 0.4317 0.1819 0.025 1. 0
O2 O2- 4 c 0.3838 0.25 0.75 0.025 1. 0
O3 O2- 4 c 0.1516 0.25 0.05 0.025 1. 0
#End of TTdata_237852-ICSD