
#(C) 2019 by FIZ Karlsruhe - Leibniz Institute for Information Infrastructure.  All rights reserved.
data_237916-ICSD
_database_code_ICSD 237916
_audit_creation_date 2015-08-01
_chemical_name_systematic 'Octasodium dilutetium hexacarbonate difluoride'
_chemical_formula_structural 'Na8 Lu2 (C O3)6 F2'
_chemical_formula_sum 'C6 F2 Lu2 Na8 O18'
_exptl_crystal_density_diffrn 3.56
_cell_measurement_temperature 293.
_publ_section_title

;
Na8 Lu2 (C O3)6 F2 and Na3 Lu (C O3)2 F2: Rare earth fluoride carbonates as
deep-U V nonlinear optical material
;
loop_
_citation_id
_citation_journal_full
_citation_year
_citation_journal_volume
_citation_page_first
_citation_page_last
_citation_journal_id_ASTM
primary 'Chemistry of Materials' 2013 25 3147 3153 CMATEX
loop_
_publ_author_name
'Luo, Min'
'Ye, Ning'
'Zou, Guohong'
'Lin, Chensheng'
'Cheng, Wendan'
_cell_length_a 8.007(3)
_cell_length_b 15.910(5)
_cell_length_c 13.916(5)
_cell_angle_alpha 90.
_cell_angle_beta 101.318(4)
_cell_angle_gamma 90.
_cell_volume 1738.3
_cell_formula_units_Z 4
_symmetry_space_group_name_H-M 'C 1 c 1'
_symmetry_Int_Tables_number 9
_refine_ls_R_factor_all 0.019
loop_
_symmetry_equiv_pos_site_id
_symmetry_equiv_pos_as_xyz
1 'x, -y, z+1/2'
2 'x, y, z'
3 'x+1/2, -y+1/2, z+1/2'
4 'x+1/2, y+1/2, z'
loop_
_atom_type_symbol
_atom_type_oxidation_number
Lu3+ 3
F1- -1
O2- -2
C4+ 4
Na1+ 1
loop_
_atom_site_label
_atom_site_type_symbol
_atom_site_symmetry_multiplicity
_atom_site_Wyckoff_symbol
_atom_site_fract_x
_atom_site_fract_y
_atom_site_fract_z
_atom_site_B_iso_or_equiv
_atom_site_occupancy
_atom_site_attached_hydrogens
Lu1 Lu3+ 4 a 0.33700(3) 0.795392(15) 0.15993(2) 0.00986(6) 1 0
Lu2 Lu3+ 4 a 0.59354(2) 0.980325(14) 0.051023(16) 0.00805(6) 1 0
F1 F1- 4 a 0.7701(5) 0.9999(2) -0.0442(3) 0.0134(8) 1 0
F2 F1- 4 a 0.7588(5) 0.9971(2) 0.1909(3) 0.0126(8) 1 0
O1 O2- 4 a 0.3979(6) 0.9984(3) 0.1432(4) 0.0179(10) 1 0
O2 O2- 4 a 0.3894(6) 0.9878(3) -0.0833(3) 0.0147(10) 1 0
O3 O2- 4 a 0.1765(6) 0.9114(3) 0.1266(3) 0.0157(10) 1 0
O4 O2- 4 a 0.4883(5) 0.8387(3) 0.0468(3) 0.0116(9) 1 0
O5 O2- 4 a 0.5168(5) 0.8584(3) 0.2835(3) 0.0124(9) 1 0
O6 O2- 4 a 0.1359(6) 1.0487(3) 0.1216(4) 0.0194(11) 1 0
O7 O2- 4 a 0.1260(5) 0.7547(3) 0.0090(3) 0.0143(9) 1 0
O8 O2- 4 a 0.6528(6) 0.7323(3) 0.0103(3) 0.0141(10) 1 0
O9 O2- 4 a -0.2352(5) 0.8565(3) 0.0659(3) 0.0127(10) 1 0
O10 O2- 4 a 0.6142(5) 0.7425(2) 0.2281(3) 0.0132(9) 1 0
O11 O2- 4 a 0.5518(6) 0.8511(3) -0.1944(3) 0.0187(11) 1 0
O12 O2- 4 a 0.3155(5) 0.6667(2) 0.0909(3) 0.0103(9) 1 0
O13 O2- 4 a 0.1357(6) 0.9285(3) -0.1283(3) 0.0176(10) 1 0
O14 O2- 4 a 0.5920(6) 0.7414(3) -0.2878(3) 0.0188(10) 1 0
O15 O2- 4 a 0.1588(6) 1.0674(3) -0.1320(3) 0.0172(10) 1 0
O16 O2- 4 a 0.0510(5) 0.6219(2) 0.0348(3) 0.0151(10) 1 0
O17 O2- 4 a 0.7914(5) 0.8230(3) 0.3347(3) 0.0150(10) 1 0
O18 O2- 4 a 0.8135(6) 0.7989(3) -0.1924(3) 0.0201(10) 1 0
C1 C4+ 4 a 0.2336(8) 0.9880(4) 0.1303(5) 0.0112(13) 1 0
C2 C4+ 4 a 0.6462(8) 0.8090(4) 0.2843(4) 0.0105(13) 1 0
C3 C4+ 4 a 0.1618(8) 0.6807(4) 0.0434(4) 0.0108(13) 1 0
C4 C4+ 4 a 0.2241(8) 0.9955(4) -0.1140(4) 0.0073(12) 1 0
C5 C4+ 4 a 0.6499(8) 0.7990(4) -0.2229(5) 0.0115(12) 1 0
C6 C4+ 4 a 0.6403(8) 0.8053(4) 0.0418(5) 0.0124(13) 1 0
Na1 Na1+ 4 a 0.5874(5) 1.0012(3) 0.3055(2) 0.0066(5) 1 0
Na2 Na1+ 4 a 0.3293(4) 0.8190(2) -0.1117(2) 0.0181(6) 1 0
Na3 Na1+ 4 a 0.3507(3) 0.8246(2) 0.41002(19) 0.0164(6) 1 0
Na4 Na1+ 4 a 0.4659(4) 0.60858(15) -0.0277(2) 0.0150(5) 1 0
Na5 Na1+ 4 a 0.4628(3) 0.59833(16) 0.22618(18) 0.0135(6) 1 0
Na6 Na1+ 4 a -0.0445(3) 0.88711(16) 0.22427(19) 0.0141(6) 1 0
Na7 Na1+ 4 a -0.0443(4) 0.87870(16) -0.0332(2) 0.0180(6) 1 0
Na8 Na1+ 4 a 0.3372(4) 1.16559(15) 0.1498(2) 0.0180(6) 1 0
loop_
_atom_site_aniso_label
_atom_site_aniso_type_symbol
_atom_site_aniso_U_11
_atom_site_aniso_U_22
_atom_site_aniso_U_33
_atom_site_aniso_U_12
_atom_site_aniso_U_13
_atom_site_aniso_U_23
Lu1 Lu3+ 0.00672(13) 0.01103(13) 0.01157(12) -0.00024(11) 0.00114(10)
-0.00185(11)
Lu2 Lu3+ 0.00616(13) 0.00807(12) 0.00954(12) -0.00001(12) 0.00055(9) 0.00080(11)
F1 F1- 0.009(2) 0.015(2) 0.016(2) 0.0000(15) 0.0042(15) 0.0015(15)
F2 F1- 0.009(2) 0.015(2) 0.0125(19) 0.0017(15) -0.0021(15) 0.0002(15)
O1 O2- 0.011(3) 0.022(3) 0.021(3) 0.000(2) 0.004(2) -0.001(2)
O2 O2- 0.004(2) 0.022(3) 0.016(2) -0.0027(19) -0.0047(18) 0.0013(19)
O3 O2- 0.017(3) 0.010(2) 0.021(2) -0.0030(19) 0.004(2) -0.0017(18)
O4 O2- 0.005(2) 0.014(2) 0.015(2) 0.0006(17) 0.0016(18) -0.0009(18)
O5 O2- 0.011(2) 0.009(2) 0.017(2) -0.0001(17) 0.0027(18) 0.0002(17)
O6 O2- 0.016(3) 0.008(2) 0.034(3) 0.0068(19) 0.004(2) 0.000(2)
O7 O2- 0.015(2) 0.007(2) 0.019(2) 0.0035(18) -0.0001(18) 0.0010(18)
O8 O2- 0.017(3) 0.004(2) 0.022(2) 0.0002(18) 0.0071(19) -0.0043(18)
O9 O2- 0.007(2) 0.011(2) 0.022(3) -0.0017(17) 0.0053(19) -0.0037(18)
O10 O2- 0.016(2) 0.008(2) 0.015(2) 0.0017(18) 0.0015(18) -0.0023(17)
O11 O2- 0.018(3) 0.014(2) 0.026(3) 0.002(2) 0.010(2) 0.000(2)
O12 O2- 0.008(2) 0.010(2) 0.011(2) 0.0039(17) -0.0015(17) -0.0002(17)
O13 O2- 0.017(3) 0.018(2) 0.016(2) -0.0080(19) -0.0008(19) -0.0005(18)
O14 O2- 0.022(3) 0.016(2) 0.021(2) -0.0065(19) 0.010(2) -0.0102(19)
O15 O2- 0.016(3) 0.010(2) 0.025(3) 0.0047(19) 0.003(2) 0.0033(19)
O16 O2- 0.013(3) 0.005(2) 0.025(3) 0.0020(17) -0.0006(19) 0.0014(18)
O17 O2- 0.007(2) 0.017(2) 0.019(2) -0.0041(18) -0.0028(19) -0.0035(18)
O18 O2- 0.011(3) 0.028(3) 0.021(2) 0.0023(19) 0.0019(19) 0.011(2)
C1 C4+ 0.009(3) 0.011(3) 0.015(3) 0.000(2) 0.004(3) -0.001(3)
C2 C4+ 0.011(3) 0.010(3) 0.011(3) 0.000(3) 0.005(3) 0.005(2)
C3 C4+ 0.010(3) 0.012(3) 0.011(3) 0.000(2) 0.003(2) -0.003(2)
C4 C4+ 0.006(3) 0.007(3) 0.009(3) 0.001(2) 0.003(2) 0.001(2)
C5 C4+ 0.010(3) 0.010(3) 0.017(3) 0.004(2) 0.008(3) 0.010(2)
C6 C4+ 0.007(3) 0.015(3) 0.016(3) 0.003(2) 0.004(3) 0.009(3)
Na1 Na1+ 0.0089(12) 0.0060(11) 0.0054(10) -0.0014(8) 0.0023(9) -0.0019(8)
Na2 Na1+ 0.0162(16) 0.0201(14) 0.0170(15) -0.0008(13) 0.0009(12) -0.0044(12)
Na3 Na1+ 0.0137(16) 0.0202(15) 0.0143(14) 0.0001(14) 0.0006(12) -0.0024(13)
Na4 Na1+ 0.0121(13) 0.0134(13) 0.0201(14) 0.0016(10) 0.0044(11) -0.0002(11)
Na5 Na1+ 0.0098(14) 0.0161(14) 0.0133(13) 0.0027(10) -0.0012(10) -0.0013(10)
Na6 Na1+ 0.0098(14) 0.0144(13) 0.0180(14) 0.0007(10) 0.0026(11) -0.0005(10)
Na7 Na1+ 0.0140(15) 0.0180(14) 0.0243(15) 0.0017(11) 0.0092(12) 0.0045(12)
Na8 Na1+ 0.0147(14) 0.0178(13) 0.0202(15) 0.0007(13) -0.0002(11) -0.0014(12)
#End of TTdata_237916-ICSD