
#(C) 2019 by FIZ Karlsruhe - Leibniz Institute for Information Infrastructure.  All rights reserved.
data_237987-ICSD
_database_code_ICSD 237987
_audit_creation_date 2015-08-01
_chemical_name_systematic 'Sodium yttrium tetrakis(iodate(V))'
_chemical_formula_structural 'Na Y (I O3)4'
_chemical_formula_sum 'I4 Na1 O12 Y1'
_chemical_name_structure_type NaY(IO3)4
_exptl_crystal_density_diffrn 4.97
_cell_measurement_temperature 293.
_publ_section_title

;
Optical properties of Nd(3+) and Yb(3+)-doped Ag M (I O3)4 metal iodates:
transparent host matrices for mid-IR lasers and nonlinear materials
;
loop_
_citation_id
_citation_journal_full
_citation_year
_citation_journal_volume
_citation_page_first
_citation_page_last
_citation_journal_id_ASTM
primary

;
Journal of Materials Chemistry C: Materials for Optical and Electronic Devices
; 2014 2 2715 2723 JMCCCX
loop_
_publ_author_name
'Phanon, Delphine'
'Suffren, Yan'
'Taouti, Mohamed B.'
'Benbertal, Djamal'
'Brenier, Alain'
'Gautier-Luneau, Isabelle'
_cell_length_a 31.159(3)
_cell_length_b 5.553(1)
_cell_length_c 12.537(2)
_cell_angle_alpha 90
_cell_angle_beta 91.12(2)
_cell_angle_gamma 90
_cell_volume 2168.81
_cell_formula_units_Z 8
_symmetry_space_group_name_H-M 'C 1 c 1'
_symmetry_Int_Tables_number 9
_refine_ls_R_factor_all 0.0369
loop_
_symmetry_equiv_pos_site_id
_symmetry_equiv_pos_as_xyz
1 'x, -y, z+1/2'
2 'x, y, z'
3 'x+1/2, -y+1/2, z+1/2'
4 'x+1/2, y+1/2, z'
loop_
_atom_type_symbol
_atom_type_oxidation_number
Na1+ 1
Y3+ 3
I5+ 5
O2- -2
loop_
_atom_site_label
_atom_site_type_symbol
_atom_site_symmetry_multiplicity
_atom_site_Wyckoff_symbol
_atom_site_fract_x
_atom_site_fract_y
_atom_site_fract_z
_atom_site_B_iso_or_equiv
_atom_site_occupancy
_atom_site_attached_hydrogens
Na1 Na1+ 4 a 0.6350(2) 0.2215(11) 0.7896(6) 0.0235(14) 1 0
Na2 Na1+ 4 a 0.5595(2) 0.2733(13) 0.3814(5) 0.0235(14) 1 0
Y1 Y3+ 4 a 0.51856(4) 0.2862(2) 0.67492(10) 0.0084(3) 1 0
Y2 Y3+ 4 a 0.72364(4) 0.6920(2) 0.68095(10) 0.0082(3) 1 0
I1 I5+ 4 a 0.44240(3) 0.7570(2) 0.76656(7) 0.00854(19) 1 0
I2 I5+ 4 a 0.40310(3) 0.31487(17) 0.53970(8) 0.0105(2) 1 0
I3 I5+ 4 a 0.49896(3) 0.80237(17) 0.47019(7) 0.0085(2) 1 0
I4 I5+ 4 a 0.60324(3) 0.75694(14) 0.63633(7) 0.00889(16) 1 0
I5 I5+ 4 a 0.66178(3) 0.30062(15) 0.47629(7) 0.01150(18) 1 0
I6 I5+ 4 a 0.80073(3) 0.23675(19) 0.58358(7) 0.00895(19) 1 0
I7 I5+ 4 a 0.84013(3) 0.67476(17) 0.81271(8) 0.0102(2) 1 0
I8 I5+ 4 a 0.74184(3) 0.20432(17) 0.88723(7) 0.0091(2) 1 0
O1 O2- 4 a 0.4896(3) 0.5723(19) 0.7956(10) 0.013(2) 1 0
O2 O2- 4 a 0.4451(4) 0.940(2) 0.8853(10) 0.018(3) 1 0
O3 O2- 4 a 0.4676(4) 0.961(2) 0.6752(11) 0.020(3) 1 0
O4 O2- 4 a 0.4514(4) 0.4379(19) 0.6024(11) 0.014(2) 1 0
O5 O2- 4 a 0.3658(4) 0.474(2) 0.6215(12) 0.026(3) 1 0
O6 O2- 4 a 0.4017(4) 0.4967(19) 0.4231(10) 0.014(2) 1 0
O7 O2- 4 a 0.5341(4) 0.5920(19) 0.5441(10) 0.017(3) 1 0
O8 O2- 4 a 0.5219(3) 1.0796(18) 0.5183(9) 0.009(2) 1 0
O9 O2- 4 a 0.5293(3) 0.821(2) 0.3505(9) 0.018(3) 1 0
O10 O2- 4 a 0.5818(3) 0.5159(17) 0.7192(8) 0.010(2) 1 0
O11 O2- 4 a 0.5744(3) 0.9951(17) 0.6996(9) 0.018(2) 1 0
O12 O2- 4 a 0.6525(3) 0.8214(16) 0.7092(8) 0.0140(19) 1 0
O13 O2- 4 a 0.6667(3) 0.3907(19) 0.6158(9) 0.019(2) 1 0
O14 O2- 4 a 0.6242(3) 0.0554(18) 0.4825(9) 0.020(2) 1 0
O15 O2- 4 a 0.6231(5) 0.5194(15) 0.4293(14) 0.020(2) 1 0
O16 O2- 4 a 0.7562(4) 0.437(2) 0.5567(10) 0.020(3) 1 0
O17 O2- 4 a 0.7969(4) 0.0637(19) 0.4596(10) 0.012(2) 1 0
O18 O2- 4 a 0.7739(4) 0.030(2) 0.6727(10) 0.018(3) 1 0
O19 O2- 4 a 0.7893(4) 0.563(2) 0.7583(10) 0.016(3) 1 0
O20 O2- 4 a 0.8747(4) 0.5064(19) 0.7294(10) 0.015(2) 1 0
O21 O2- 4 a 0.8428(4) 0.496(2) 0.9334(10) 0.022(3) 1 0
O22 O2- 4 a 0.7070(3) 0.4168(19) 0.8185(10) 0.012(2) 1 0
O23 O2- 4 a 0.7193(4) -0.065(2) 0.8282(10) 0.014(3) 1 0
O24 O2- 4 a 0.7109(3) 0.1724(18) 1.0077(9) 0.012(2) 1 0
loop_
_atom_site_aniso_label
_atom_site_aniso_type_symbol
_atom_site_aniso_U_11
_atom_site_aniso_U_22
_atom_site_aniso_U_33
_atom_site_aniso_U_12
_atom_site_aniso_U_13
_atom_site_aniso_U_23
Na1 Na1+ 0.021(3) 0.018(3) 0.031(4) 0.000(2) -0.007(3) -0.007(3)
Na2 Na1+ 0.016(3) 0.038(4) 0.016(3) 0.003(3) -0.001(3) 0.009(3)
Y1 Y3+ 0.0085(6) 0.0084(6) 0.0083(7) -0.0011(5) 0.0010(5) 0.0001(5)
Y2 Y3+ 0.0071(6) 0.0098(6) 0.0078(7) 0.0020(5) 0.0002(5) -0.0002(5)
I1 I5+ 0.0074(4) 0.0084(4) 0.0098(5) 0.0011(4) 0.0009(3) -0.0013(4)
I2 I5+ 0.0087(5) 0.0122(5) 0.0106(5) -0.0002(4) 0.0003(4) -0.0001(4)
I3 I5+ 0.0087(4) 0.0086(5) 0.0082(5) -0.0009(4) -0.0007(4) 0.0008(4)
I4 I5+ 0.0076(3) 0.0084(4) 0.0107(4) -0.0001(3) 0.0010(3) -0.0014(3)
I5 I5+ 0.0112(4) 0.0116(4) 0.0118(4) 0.0001(4) 0.0029(3) -0.0006(4)
I6 I5+ 0.0076(4) 0.0092(4) 0.0101(5) -0.0006(4) 0.0012(3) -0.0003(4)
I7 I5+ 0.0082(4) 0.0118(5) 0.0106(5) -0.0005(4) -0.0006(4) -0.0009(4)
I8 I5+ 0.0081(5) 0.0085(5) 0.0108(5) -0.0010(4) 0.0008(4) 0.0019(4)
O2 O2- 0.023(6) 0.023(6) 0.007(6) -0.005(5) 0.004(5) -0.009(5)
O3 O2- 0.022(6) 0.015(6) 0.022(8) -0.007(5) 0.001(5) 0.003(5)
O4 O2- 0.010(4) 0.015(5) 0.018(6) 0.001(4) -0.006(4) -0.006(5)
O7 O2- 0.019(6) 0.013(5) 0.018(7) 0.003(5) 0.003(5) 0.009(5)
O8 O2- 0.008(5) 0.007(5) 0.013(6) -0.005(4) 0.001(5) 0.000(4)
O11 O2- 0.022(5) 0.009(5) 0.023(6) 0.006(4) 0.001(4) -0.007(4)
O12 O2- 0.011(4) 0.010(4) 0.021(5) 0.005(4) -0.002(4) -0.005(4)
O14 O2- 0.023(5) 0.013(5) 0.023(6) -0.001(4) -0.004(5) 0.006(4)
O15 O2- 0.016(4) 0.016(4) 0.028(6) -0.001(6) -0.004(4) -0.007(6)
O16 O2- 0.007(4) 0.025(6) 0.028(7) 0.009(4) -0.001(4) -0.009(5)
O17 O2- 0.007(5) 0.012(5) 0.018(7) 0.004(4) 0.003(5) 0.000(5)
O18 O2- 0.024(6) 0.014(6) 0.016(7) 0.000(5) 0.001(5) 0.008(5)
O21 O2- 0.030(6) 0.023(6) 0.012(6) 0.003(5) -0.001(4) 0.005(4)
O22 O2- 0.004(5) 0.012(5) 0.021(7) 0.000(4) 0.003(5) 0.003(5)
O23 O2- 0.016(6) 0.022(6) 0.006(6) -0.007(5) 0.002(5) -0.002(5)
#End of TTdata_237987-ICSD