
#(C) 2019 by FIZ Karlsruhe - Leibniz Institute for Information Infrastructure.  All rights reserved.
data_238142-ICSD
_database_code_ICSD 238142
_audit_creation_date 2015-08-01
_chemical_name_systematic 'Cesium pentasodium pentacalcium octacarbonate'
_chemical_formula_structural 'Cs Na5 Ca5 (C O3)8'
_chemical_formula_sum 'C8 Ca5 Cs1 Na5 O24'
_exptl_crystal_density_diffrn 2.76
_cell_measurement_temperature 293.
_publ_section_title

;
Na4 La2 (C O3)5 and Cs Na5 Ca5 (C O3)8: two new carbonates as UV nonlinear
optical materials
;
loop_
_citation_id
_citation_journal_full
_citation_year
_citation_journal_volume
_citation_page_first
_citation_page_last
_citation_journal_id_ASTM
primary 'Inorganic Chemistry' 2014 53 8098 8104 INOCAJ
loop_
_publ_author_name
'Luo, Min'
'Wang, GenXiang'
'Lin, Chensheng'
'Ye, Ning'
'Zhou, Yuqiao'
'Cheng, Wendan'
_cell_length_a 10.0845(5)
_cell_length_b 10.0845(5)
_cell_length_c 12.7055(12)
_cell_angle_alpha 90.
_cell_angle_beta 90.
_cell_angle_gamma 120.
_cell_volume 1119.
_cell_formula_units_Z 2
_symmetry_space_group_name_H-M 'P 63 m c'
_symmetry_Int_Tables_number 186
_refine_ls_R_factor_all 0.0386
loop_
_symmetry_equiv_pos_site_id
_symmetry_equiv_pos_as_xyz
1 '-x, -x+y, z+1/2'
2 'x-y, -y, z+1/2'
3 'y, x, z+1/2'
4 'x-y, x, z+1/2'
5 'y, -x+y, z+1/2'
6 '-x, -y, z+1/2'
7 'x, x-y, z'
8 '-x+y, y, z'
9 '-y, -x, z'
10 '-x+y, -x, z'
11 '-y, x-y, z'
12 'x, y, z'
loop_
_atom_type_symbol
_atom_type_oxidation_number
Cs1+ 1
Ca2+ 2
Na1+ 1
Ca2+ 2
Na1+ 1
C4+ 4
O2- -2
loop_
_atom_site_label
_atom_site_type_symbol
_atom_site_symmetry_multiplicity
_atom_site_Wyckoff_symbol
_atom_site_fract_x
_atom_site_fract_y
_atom_site_fract_z
_atom_site_B_iso_or_equiv
_atom_site_occupancy
_atom_site_attached_hydrogens
Cs1 Cs1+ 2 b 0.3333 0.6667 0.32815(7) 0.0243(2) 1 0
Ca1 Ca2+ 2 a 1. 1. 0.49492(19) 0.0117(5) 1 0
Ca2 Ca2+ 6 c 0.50505(10) 0.49495(10) 0.06018(13) 0.0156(3) 1 0
Na1 Na1+ 6 c 1.14536(18) 0.85464(18) 0.1714(2) 0.0206(7) 1 0
Ca3 Ca2+ 6 c 1.3681(3) 1.18405(13) 0.38451(16) 0.0161(5) 0.33 0
Na2 Na1+ 6 c 1.3681(3) 1.18405(13) 0.38451(16) 0.0161(5) 0.67 0
C1 C4+ 6 c 1.1664(4) 1.3329(9) 0.5196(6) 0.0133(14) 1 0
C2 C4+ 2 b 0.3333 0.6667 0.0685(10) 0.012(3) 1 0
C3 C4+ 2 a 1. 1. 0.2705(10) 0.010(2) 1 0
C4 C4+ 6 c 0.9637(8) 0.4819(4) 0.2853(6) 0.0161(15) 1 0
O1 O2- 2 a 1. 1. 0.1729(9) 0.024(2) 1 0
O2 O2- 6 c 1.2386(3) 1.4772(6) 0.5265(4) 0.0216(11) 1 0
O3 O2- 12 d 1.2388(4) 1.2582(4) 0.5152(3) 0.0186(8) 1 0
O4 O2- 6 c 0.2604(3) 0.5208(6) 0.0697(4) 0.0207(11) 1 0
O5 O2- 6 c 0.9209(6) 0.4605(3) 0.3823(4) 0.0208(13) 1 0
O6 O2- 12 d 0.9842(5) 0.3825(5) 0.2381(4) 0.0296(9) 1 0
O7 O2- 12 d 0.8950(12) 0.8931(12) 0.3247(11) 0.031(2) 0.33 0
loop_
_atom_site_aniso_label
_atom_site_aniso_type_symbol
_atom_site_aniso_U_11
_atom_site_aniso_U_22
_atom_site_aniso_U_33
_atom_site_aniso_U_12
_atom_site_aniso_U_13
_atom_site_aniso_U_23
Cs1 Cs1+ 0.0256(3) 0.0256(3) 0.0218(4) 0.01278(14) 0. 0.
Ca1 Ca2+ 0.0131(8) 0.0131(8) 0.0088(13) 0.0065(4) 0. 0.
Ca2 Ca2+ 0.0160(5) 0.0160(5) 0.0140(7) 0.0074(5) 0.0009(3) -0.0009(3)
Na1 Na1+ 0.0209(12) 0.0209(12) 0.0244(15) 0.0137(13) 0.0001(6) -0.0001(6)
Ca3 Ca2+ 0.0156(10) 0.0140(7) 0.0191(12) 0.0078(5) 0.0026(8) 0.0013(4)
Na2 Na1+ 0.0156(10) 0.0140(7) 0.0191(12) 0.0078(5) 0.0026(8) 0.0013(4)
C1 C4+ 0.012(2) 0.007(3) 0.020(3) 0.0035(16) 0.0032(13) 0.006(3)
C2 C4+ 0.010(3) 0.010(3) 0.016(6) 0.0050(17) 0. 0.
C3 C4+ 0.011(3) 0.011(3) 0.008(5) 0.0055(17) 0. 0.
C4 C4+ 0.008(3) 0.021(3) 0.015(3) 0.0039(16) 0.000(3) -0.0002(13)
#End of TTdata_238142-ICSD