
#(C) 2019 by FIZ Karlsruhe - Leibniz Institute for Information Infrastructure.  All rights reserved.
data_238497-ICSD
_database_code_ICSD 238497
_audit_creation_date 2016-02-01
_chemical_name_systematic 'Sodium scandium bis(selenate(IV))'
_chemical_formula_structural 'Na Sc (Se O3)2'
_chemical_formula_sum 'Na1 O6 Sc1 Se2'
_chemical_name_structure_type KFe(SeO3)2
_exptl_crystal_density_diffrn 3.75
_cell_measurement_temperature 298.
_publ_section_title

;
Modulation of framework and centricity: cation size effect in new quaternary
selenites, A Sc (Se O3)2 (A = Na, K, Rb, and Cs)
;
loop_
_citation_id
_citation_journal_full
_citation_year
_citation_journal_volume
_citation_page_first
_citation_page_last
_citation_journal_id_ASTM
primary 'Inorganic Chemistry' 2015 54 5032 5038 INOCAJ
loop_
_publ_author_name
'Song, Seung Yoon'
'Ok, Kang Min'
_cell_length_a 12.8073(4)
_cell_length_b 5.4649(2)
_cell_length_c 8.1408(3)
_cell_angle_alpha 90
_cell_angle_beta 90
_cell_angle_gamma 90
_cell_volume 569.77
_cell_formula_units_Z 4
_symmetry_space_group_name_H-M 'P n m a'
_symmetry_Int_Tables_number 62
_refine_ls_R_factor_all 0.0259
loop_
_symmetry_equiv_pos_site_id
_symmetry_equiv_pos_as_xyz
1 'x+1/2, y, -z+1/2'
2 'x, -y+1/2, z'
3 '-x+1/2, y+1/2, z+1/2'
4 '-x, -y, -z'
5 '-x+1/2, -y, z+1/2'
6 '-x, y+1/2, -z'
7 'x+1/2, -y+1/2, -z+1/2'
8 'x, y, z'
loop_
_atom_type_symbol
_atom_type_oxidation_number
Se4+ 4
Sc3+ 3
Na1+ 1
O2- -2
loop_
_atom_site_label
_atom_site_type_symbol
_atom_site_symmetry_multiplicity
_atom_site_Wyckoff_symbol
_atom_site_fract_x
_atom_site_fract_y
_atom_site_fract_z
_atom_site_B_iso_or_equiv
_atom_site_occupancy
_atom_site_attached_hydrogens
Se1 Se4+ 4 c 0.29239(4) -0.25 0.49480(7) 0.01723(15) 1 0
Se2 Se4+ 4 c 0.06884(4) -0.25 0.78183(6) 0.01540(15) 1 0
Sc1 Sc3+ 4 c 0.40014(7) 0.25 0.69992(12) 0.0132(2) 1 0
Na1 Na1+ 4 c 0.11386(18) 0.25 0.5119(3) 0.0337(6) 1 0
O1 O2- 8 d 0.28977(19) -0.0089(5) 0.6233(3) 0.0336(8) 1 0
O2 O2- 4 c 0.1662(3) -0.25 0.4359(4) 0.0280(10) 1 0
O3 O2- 8 d 0.00289(18) -0.0123(4) 0.6993(3) 0.0210(6) 1 0
O4 O2- 4 c 0.0249(3) -0.25 0.9762(4) 0.0196(8) 1 0
loop_
_atom_site_aniso_label
_atom_site_aniso_type_symbol
_atom_site_aniso_U_11
_atom_site_aniso_U_22
_atom_site_aniso_U_33
_atom_site_aniso_U_12
_atom_site_aniso_U_13
_atom_site_aniso_U_23
Se1 Se4+ 0.0138(3) 0.0186(3) 0.0193(3) 0 -0.0011(2) 0
Se2 Se4+ 0.0149(3) 0.0136(3) 0.0177(3) 0 -0.0012(2) 0
Sc1 Sc3+ 0.0149(5) 0.0114(5) 0.0134(5) 0 0.0006(4) 0
Na1 Na1+ 0.0393(14) 0.0361(13) 0.0258(13) 0 0.0019(11) 0
O1 O2- 0.0242(16) 0.0288(17) 0.0477(19) -0.0098(13) 0.0048(15) -0.0192(14)
O2 O2- 0.0100(18) 0.055(3) 0.019(2) 0 -0.0067(17) 0
O3 O2- 0.0272(14) 0.0194(14) 0.0165(13) 0.0107(12) 0.0008(12) 0.0006(12)
O4 O2- 0.027(2) 0.0210(19) 0.0111(19) 0 -0.0025(16) 0
#End of TTdata_238497-ICSD