
#(C) 2019 by FIZ Karlsruhe - Leibniz Institute for Information Infrastructure.  All rights reserved.
data_238515-ICSD
_database_code_ICSD 238515
_audit_creation_date 2016-02-01
_chemical_name_systematic
'Trisodium divanadium(III) bis(orthophosphate) trifluoride'
_chemical_formula_structural 'Na3 V2 (P O4)2 F3'
_chemical_formula_sum 'F3 Na3 O8 P2 V2'
_exptl_crystal_density_diffrn 3.16
_cell_measurement_temperature 293.
_publ_section_title

;
Comprehensive investigation of the Na3 V2 (P O4)2 F3- Na V2 (P O4)2 F3 system
by operando high resolution synchrotron X-ray diffraction
;
loop_
_citation_id
_citation_journal_full
_citation_year
_citation_journal_volume
_citation_page_first
_citation_page_last
_citation_journal_id_ASTM
primary 'Chemistry of Materials' 2015 27 3009 3020 CMATEX
loop_
_publ_author_name
'Bianchini, M.'
'Fauth, F.'
'Brisset, N.'
'Weill, F.'
'Suard, E.'
'Masquelier, C.'
'Croguennec, L.'
_cell_length_a 9.02847(3)
_cell_length_b 9.04444(3)
_cell_length_c 10.74666(6)
_cell_angle_alpha 90.
_cell_angle_beta 90.
_cell_angle_gamma 90.
_cell_volume 877.55
_cell_formula_units_Z 4
_symmetry_space_group_name_H-M 'A m a m'
_symmetry_Int_Tables_number 63
_refine_ls_R_factor_all 0.0445
loop_
_symmetry_equiv_pos_site_id
_symmetry_equiv_pos_as_xyz
1 '-x+1/2, y, -z'
2 'x+1/2, -y, -z'
3 'x, y, -z'
4 '-x, -y, -z'
5 'x+1/2, -y, z'
6 '-x+1/2, y, z'
7 '-x, -y, z'
8 'x, y, z'
9 '-x+1/2, y+1/2, -z+1/2'
10 'x+1/2, -y+1/2, -z+1/2'
11 'x, y+1/2, -z+1/2'
12 '-x, -y+1/2, -z+1/2'
13 'x+1/2, -y+1/2, z+1/2'
14 '-x+1/2, y+1/2, z+1/2'
15 '-x, -y+1/2, z+1/2'
16 'x, y+1/2, z+1/2'
loop_
_atom_type_symbol
_atom_type_oxidation_number
V3+ 3
P5+ 5
O2- -2
F1- -1
Na1+ 1
loop_
_atom_site_label
_atom_site_type_symbol
_atom_site_symmetry_multiplicity
_atom_site_Wyckoff_symbol
_atom_site_fract_x
_atom_site_fract_y
_atom_site_fract_z
_atom_site_B_iso_or_equiv
_atom_site_occupancy
_atom_site_attached_hydrogens
V1 V3+ 8 g 0.25 0.2529(9) 0.1848(3) 1.36(8) 1. 0
P1 P5+ 8 e 0 0 0.244(1) 1.6(1) 1. 0
O1 O2- 16 h 0.096(1) 0.097(1) 0.159(1) 1.2(1) 1. 0
O2 O2- 16 h 0.091(1) 0.404(1) 0.164(1) 1.2(1) 1. 0
F1 F1- 4 c 0.25 0.253(2) 0 1.4(1) 1. 0
F2 F1- 8 g 0.25 0.756(2) 0.1349(6) 1.4(1) 1. 0
Na1 Na1+ 4 c 0.75 0.024(2) 0 3.8 1. 0
Na2 Na1+ 8 f 0.538(2) 0.289(2) 0 3.8 0.8(1) 0
Na3 Na1+ 8 f 0.623(5) 0.393(6) 0 3.8 0.2(1) 0
#End of TTdata_238515-ICSD