
#(C) 2019 by FIZ Karlsruhe - Leibniz Institute for Information Infrastructure.  All rights reserved.
data_238526-ICSD
_database_code_ICSD 238526
_audit_creation_date 2016-02-01
_chemical_name_systematic 'Tetrasodium neptunium(VI) pentaoxide'
_chemical_formula_structural 'Na4 Np O5'
_chemical_formula_sum 'Na4 Np1 O5'
_chemical_name_structure_type Na4UO5
_exptl_crystal_density_diffrn 5.18
_cell_measurement_temperature 298.
_publ_section_title

;
X-ray diffraction, Moessbauer spectroscopy, magnetic susceptibility, and
specific heat investigations of Na4 Np O5 and Na5 Np O6
;
loop_
_citation_id
_citation_journal_full
_citation_year
_citation_journal_volume
_citation_page_first
_citation_page_last
_citation_journal_id_ASTM
primary 'Inorganic Chemistry' 2015 54 4556 4564 INOCAJ
loop_
_publ_author_name
'Smith, Anna L.'
'Hen, Amir'
'Raison, Philippe E.'
'Colineau, Eric'
'Griveau, Jean-Christophe'
'Magnani, Nicola'
'Sanchez, Jean-Pierre'
'Konings, Rudy J.M.'
'Caciuffo, Roberto'
'Cheetham, Anthony K.'
_cell_length_a 7.53534(8)
_cell_length_b 7.53534(8)
_cell_length_c 4.61590(6)
_cell_angle_alpha 90.
_cell_angle_beta 90.
_cell_angle_gamma 90.
_cell_volume 262.09
_cell_formula_units_Z 2
_symmetry_space_group_name_H-M 'I 4/m'
_symmetry_Int_Tables_number 87
_refine_ls_R_factor_all 0.06
loop_
_symmetry_equiv_pos_site_id
_symmetry_equiv_pos_as_xyz
1 '-y, x, -z'
2 'y, -x, -z'
3 'x, y, -z'
4 '-x, -y, -z'
5 'y, -x, z'
6 '-y, x, z'
7 '-x, -y, z'
8 'x, y, z'
9 '-y+1/2, x+1/2, -z+1/2'
10 'y+1/2, -x+1/2, -z+1/2'
11 'x+1/2, y+1/2, -z+1/2'
12 '-x+1/2, -y+1/2, -z+1/2'
13 'y+1/2, -x+1/2, z+1/2'
14 '-y+1/2, x+1/2, z+1/2'
15 '-x+1/2, -y+1/2, z+1/2'
16 'x+1/2, y+1/2, z+1/2'
loop_
_atom_type_symbol
_atom_type_oxidation_number
Np6+ 6
Na1+ 1
O2- -2
loop_
_atom_site_label
_atom_site_type_symbol
_atom_site_symmetry_multiplicity
_atom_site_Wyckoff_symbol
_atom_site_fract_x
_atom_site_fract_y
_atom_site_fract_z
_atom_site_B_iso_or_equiv
_atom_site_occupancy
_atom_site_attached_hydrogens
Np1 Np6+ 2 a 0. 0. 0. 0.00311 1. 0
Na1 Na1+ 8 h 0.19805 0.40318 0. 0.01073 1. 0
O1 O2- 2 b 0. 0. 0.5 0.03154 1. 0
O2 O2- 8 h 0.25931 0.08289 0. 0.02381 1. 0
#End of TTdata_238526-ICSD