
#(C) 2019 by FIZ Karlsruhe - Leibniz Institute for Information Infrastructure.  All rights reserved.
data_238525-ICSD
_database_code_ICSD 238525
_audit_creation_date 2016-02-01
_chemical_name_systematic 'Pentasodium neptunium(VII) hexaoxide'
_chemical_formula_structural 'Na5 Np O6'
_chemical_formula_sum 'Na5 Np1 O6'
_chemical_name_structure_type Li5ReO6
_exptl_crystal_density_diffrn 4.74
_cell_measurement_temperature 298.
_publ_section_title

;
X-ray diffraction, Moessbauer spectroscopy, magnetic susceptibility, and
specific heat investigations of Na4 Np O5 and Na5 Np O6
;
loop_
_citation_id
_citation_journal_full
_citation_year
_citation_journal_volume
_citation_page_first
_citation_page_last
_citation_journal_id_ASTM
primary 'Inorganic Chemistry' 2015 54 4556 4564 INOCAJ
loop_
_publ_author_name
'Smith, Anna L.'
'Hen, Amir'
'Raison, Philippe E.'
'Colineau, Eric'
'Griveau, Jean-Christophe'
'Magnani, Nicola'
'Sanchez, Jean-Pierre'
'Konings, Rudy J.M.'
'Caciuffo, Roberto'
'Cheetham, Anthony K.'
_cell_length_a 5.82924(6)
_cell_length_b 9.99620(11)
_cell_length_c 5.75771(6)
_cell_angle_alpha 90.
_cell_angle_beta 110.7292(5)
_cell_angle_gamma 90.
_cell_volume 313.78
_cell_formula_units_Z 2
_symmetry_space_group_name_H-M 'C 1 2/m 1'
_symmetry_Int_Tables_number 12
_refine_ls_R_factor_all 0.0494
loop_
_symmetry_equiv_pos_site_id
_symmetry_equiv_pos_as_xyz
1 '-x, y, -z'
2 '-x, -y, -z'
3 'x, -y, z'
4 'x, y, z'
5 '-x+1/2, y+1/2, -z'
6 '-x+1/2, -y+1/2, -z'
7 'x+1/2, -y+1/2, z'
8 'x+1/2, y+1/2, z'
loop_
_atom_type_symbol
_atom_type_oxidation_number
Np7+ 7
Na1+ 1
O2- -2
loop_
_atom_site_label
_atom_site_type_symbol
_atom_site_symmetry_multiplicity
_atom_site_Wyckoff_symbol
_atom_site_fract_x
_atom_site_fract_y
_atom_site_fract_z
_atom_site_B_iso_or_equiv
_atom_site_occupancy
_atom_site_attached_hydrogens
Np1 Np7+ 2 a 0. 0. 0. 0.0083 1. 0
Na1 Na1+ 4 g 0. 0.66445 0. 0.00365 1. 0
Na2 Na1+ 2 d 0. 0.5 0.5 0.00365 1. 0
Na3 Na1+ 4 h 0.5 0.33044 0.5 0.00365 1. 0
O1 O2- 8 j 0.27132 0.3542 0.78402 0.0199(14) 1. 0
O2 O2- 4 i 0.26669 0.5 0.20236 0.0199(14) 1. 0
#End of TTdata_238525-ICSD