
#(C) 2019 by FIZ Karlsruhe - Leibniz Institute for Information Infrastructure.  All rights reserved.
data_238701-ICSD
_database_code_ICSD 238701
_audit_creation_date 2016-02-01
_chemical_name_systematic 'Trisodium molybdenum tetraoxide fluoride'
_chemical_formula_structural 'Na3 Mo O4 F'
_chemical_formula_sum 'F1 Mo1 Na3 O4'
_chemical_name_structure_type Ca2NaFSiO4
_exptl_crystal_density_diffrn 3.04
_publ_section_title

;
Structure, stability, and photoluminescence in the anti-perovskites Na3 W1-x
Mox O4 F (0<=x<=1)
;
loop_
_citation_id
_citation_journal_full
_citation_year
_citation_journal_volume
_citation_page_first
_citation_page_last
_citation_journal_id_ASTM
primary 'Journal of Solid State Chemistry' 2015 230 279 286 JSSCBI
loop_
_publ_author_name
'Sullivan, Eirin'
'Avdeev, Maxim'
'Blom, Douglas A.'
'Gahrs, Casey J.'
'Green, Robert L.'
'Hamaker, Christopher G.'
'Vogt, Thomas'
_cell_length_a 5.5930(2)
_cell_length_b 7.5158(3)
_cell_length_c 12.8777(4)
_cell_angle_alpha 90.
_cell_angle_beta 90.
_cell_angle_gamma 90.
_cell_volume 541.33
_cell_formula_units_Z 4
_symmetry_space_group_name_H-M 'P n m a'
_symmetry_Int_Tables_number 62
_refine_ls_R_factor_all 0.04
loop_
_symmetry_equiv_pos_site_id
_symmetry_equiv_pos_as_xyz
1 'x+1/2, y, -z+1/2'
2 'x, -y+1/2, z'
3 '-x+1/2, y+1/2, z+1/2'
4 '-x, -y, -z'
5 '-x+1/2, -y, z+1/2'
6 '-x, y+1/2, -z'
7 'x+1/2, -y+1/2, -z+1/2'
8 'x, y, z'
loop_
_atom_type_symbol
_atom_type_oxidation_number
Na1+ 1
F1- -1
Mo6+ 6
O2- -2
loop_
_atom_site_label
_atom_site_type_symbol
_atom_site_symmetry_multiplicity
_atom_site_Wyckoff_symbol
_atom_site_fract_x
_atom_site_fract_y
_atom_site_fract_z
_atom_site_B_iso_or_equiv
_atom_site_occupancy
_atom_site_attached_hydrogens
Na1 Na1+ 4 c 0.219(2) 0.25 0.8936(5) 0.0181(9) 1. 0
Na2 Na1+ 8 d 0.230(1) 0.5413(7) 0.1803(4) 0.0181(9) 1. 0
F1 F1- 4 c 0.0064(9) 0.25 0.7326(3) 0.0164(9) 1. 0
Mo1 Mo6+ 4 c 0.2107(7) 0.25 0.4145(3) 0.0102(8) 1. 0
O1 O2- 4 c 0.3927(8) 0.25 0.0781(5) 0.0274(6) 1. 0
O2 O2- 4 c 0.323(1) 0.25 0.5447(4) 0.0174(6) 1. 0
O3 O2- 8 d 0.3105(8) 0.0604(4) 0.3496(3) 0.0274(6) 1. 0
#End of TTdata_238701-ICSD