
#(C) 2018 by FIZ Karlsruhe - Leibniz Institute for Information Infrastructure.  All rights reserved.
data_238946-ICSD
_database_code_ICSD 238946
_audit_creation_date 2016-02-01
_chemical_name_systematic 'Lithium copper nickel oxide (2/0.68/0.32/2)'
_chemical_formula_structural 'Li2 Cu0.68 Ni0.32 O2'
_chemical_formula_sum 'Cu0.68 Li2 Ni0.32 O2'
_chemical_name_structure_type Li2CuO2
_exptl_crystal_density_diffrn 3.72
_publ_section_title

;
Synthesis, structure, and electrochemical performance of high capacity Li2
Cu0.5 Ni0.5 O2 cathodes
;
loop_
_citation_id
_citation_journal_full
_citation_year
_citation_journal_volume
_citation_page_first
_citation_page_last
_citation_journal_id_ASTM
primary 'Chemistry of Materials' 2015 27 6746 6754 CMATEX
loop_
_publ_author_name
'Ruther, Rose E.'
'Zhou, Hui'
'Dhital, Chetan'
'Saravanan, Kuppan'
'Kercher, Andrew K.'
'Chen, Guoying'
'Huq, Ashfia'
'Delnick, Frank M.'
'Nanda, Jagjit'
_cell_length_a 3.69194(5)
_cell_length_b 2.827424(32)
_cell_length_c 9.23840(12)
_cell_angle_alpha 90.
_cell_angle_beta 90.
_cell_angle_gamma 90.
_cell_volume 96.43
_cell_formula_units_Z 2
_symmetry_space_group_name_H-M 'I m m m'
_symmetry_Int_Tables_number 71
_refine_ls_R_factor_all 0.0473
loop_
_symmetry_equiv_pos_site_id
_symmetry_equiv_pos_as_xyz
1 'x, y, -z'
2 'x, -y, z'
3 '-x, y, z'
4 '-x, -y, -z'
5 '-x, -y, z'
6 '-x, y, -z'
7 'x, -y, -z'
8 'x, y, z'
9 'x+1/2, y+1/2, -z+1/2'
10 'x+1/2, -y+1/2, z+1/2'
11 '-x+1/2, y+1/2, z+1/2'
12 '-x+1/2, -y+1/2, -z+1/2'
13 '-x+1/2, -y+1/2, z+1/2'
14 '-x+1/2, y+1/2, -z+1/2'
15 'x+1/2, -y+1/2, -z+1/2'
16 'x+1/2, y+1/2, z+1/2'
loop_
_atom_type_symbol
_atom_type_oxidation_number
Li1+ 1
Cu2+ 2
Ni2+ 2
O2- -2
loop_
_atom_site_label
_atom_site_type_symbol
_atom_site_symmetry_multiplicity
_atom_site_Wyckoff_symbol
_atom_site_fract_x
_atom_site_fract_y
_atom_site_fract_z
_atom_site_B_iso_or_equiv
_atom_site_occupancy
_atom_site_attached_hydrogens
Li1 Li1+ 4 j 0.5 0 0.2913(2) . 1. 0
Cu1 Cu2+ 2 b 0 0.5 0.5 . 0.676 0
Ni1 Ni2+ 2 b 0 0.5 0.5 . 0.324 0
O1 O2- 4 i 0 0 0.3587(8) . 1. 0
loop_
_atom_site_aniso_label
_atom_site_aniso_type_symbol
_atom_site_aniso_U_11
_atom_site_aniso_U_22
_atom_site_aniso_U_33
_atom_site_aniso_U_12
_atom_site_aniso_U_13
_atom_site_aniso_U_23
Li1 Li1+ 0.0024(7) 0.0062(7) 0.0063(8) 0. 0. 0.
Cu1 Cu2+ 0.0078(3) 0.0028(3) 0.0048(3) 0. 0. 0.
Ni1 Ni2+ 0.0078(3) 0.0028(3) 0.0048(3) 0. 0. 0.
O1 O2- 0.0081(4) 0.0078(4) 0.0070(4) 0. 0. 0.
#End of TTdata_238946-ICSD