
#(C) 2019 by FIZ Karlsruhe - Leibniz Institute for Information Infrastructure.  All rights reserved.
data_239095-ICSD
_database_code_ICSD 239095
_audit_creation_date 2016-08-01
_chemical_name_systematic
'Disodium tetraniobium heptaoxo tetrakis(selenate(IV))'
_chemical_formula_structural 'Na2 Nb4 O7 (Se O3)4'
_chemical_formula_sum 'Na2 Nb4 O19 Se4'
_exptl_crystal_density_diffrn 4.17
_cell_measurement_temperature 293.
_publ_section_title
'Explorations of new SHG materials in the alkali-metal-Nb5+-selenite system'
loop_
_citation_id
_citation_journal_full
_citation_year
_citation_journal_volume
_citation_page_first
_citation_page_last
_citation_journal_id_ASTM
primary 'Inorganic Chemistry' 2015 54 10978 10984 INOCAJ
loop_
_publ_author_name
'Cao, Xue-Li'
'Hu, Chun-Li'
'Kong, Fang'
'Mao, Jiang-Gao'
_cell_length_a 3.9394(4)
_cell_length_b 10.1314(14)
_cell_length_c 10.8820(14)
_cell_angle_alpha 106.084(5)
_cell_angle_beta 90.080(4)
_cell_angle_gamma 97.753(7)
_cell_volume 413.15
_cell_formula_units_Z 1
_symmetry_space_group_name_H-M 'P -1'
_symmetry_Int_Tables_number 2
_refine_ls_R_factor_all 0.0304
loop_
_symmetry_equiv_pos_site_id
_symmetry_equiv_pos_as_xyz
1 '-x, -y, -z'
2 'x, y, z'
loop_
_atom_type_symbol
_atom_type_oxidation_number
Na1+ 1
Nb5+ 5
Se4+ 4
O2- -2
loop_
_atom_site_label
_atom_site_type_symbol
_atom_site_symmetry_multiplicity
_atom_site_Wyckoff_symbol
_atom_site_fract_x
_atom_site_fract_y
_atom_site_fract_z
_atom_site_B_iso_or_equiv
_atom_site_occupancy
_atom_site_attached_hydrogens
Na1 Na1+ 2 i 0.2196(6) 0.0611(2) 0.1388(2) 0.0237(5) 1 0
Nb1 Nb5+ 2 i 0.66574(11) 0.81315(4) 0.29578(4) 0.00606(11) 1 0
Nb2 Nb5+ 2 i 0.42678(11) 0.44528(4) 0.31836(4) 0.00604(12) 1 0
Se1 Se4+ 2 i 0.65400(12) 0.17530(5) 0.41622(5) 0.00850(12) 1 0
Se2 Se4+ 2 i 0.71212(13) 0.28394(5) 0.01316(5) 0.01091(13) 1 0
O1 O2- 2 i 0.3520(9) 0.1215(4) 0.5102(3) 0.0114(8) 1 0
O2 O2- 2 i 0.6876(9) 0.0253(3) 0.3029(3) 0.0114(8) 1 0
O3 O2- 2 i 0.3957(9) 0.2383(3) 0.3284(3) 0.0111(8) 1 0
O4 O2- 2 i 0.4374(9) 0.3535(4) 0.1258(3) 0.0150(8) 1 0
O5 O2- 2 i 0.3956(9) 0.2246(4) -0.1102(3) 0.0155(8) 1 0
O6 O2- 2 i 0.7582(10) 0.1361(4) 0.0416(4) 0.0173(8) 1 0
O7 O2- 2 i 0.1214(8) 0.8247(4) 0.2946(4) 0.0135(8) 1 0
O8 O2- 2 i 0.5426(9) 0.6287(4) 0.3005(4) 0.0165(8) 1 0
O9 O2- 1 h 0.5 0.5 0.5 0.0158(12) 1 0
O10 O2- 2 i -0.0304(9) 0.4291(4) 0.3086(4) 0.0149(8) 1 0
loop_
_atom_site_aniso_label
_atom_site_aniso_type_symbol
_atom_site_aniso_U_11
_atom_site_aniso_U_22
_atom_site_aniso_U_33
_atom_site_aniso_U_12
_atom_site_aniso_U_13
_atom_site_aniso_U_23
Na1 Na1+ 0.0261(13) 0.0227(12) 0.0178(13) 0.0043(10) -0.0042(10) -0.0020(10)
Nb1 Nb5+ 0.0056(2) 0.0064(2) 0.0069(2) 0.00143(16) 0.00084(17) 0.00260(17)
Nb2 Nb5+ 0.0058(2) 0.0057(2) 0.0067(2) 0.00118(16) 0.00017(17) 0.00165(17)
Se1 Se4+ 0.0096(2) 0.0071(2) 0.0086(3) 0.00174(19) 0.00042(19) 0.00174(19)
Se2 Se4+ 0.0100(3) 0.0110(3) 0.0119(3) 0.0016(2) 0.0010(2) 0.0034(2)
O1 O2- 0.0129(18) 0.0145(19) 0.0064(19) 0.0002(15) -0.0013(15) 0.0031(15)
O2 O2- 0.0192(19) 0.0067(17) 0.0083(19) 0.0034(15) 0.0057(15) 0.0012(14)
O3 O2- 0.0144(18) 0.0067(17) 0.0117(19) 0.0028(14) -0.0013(15) 0.0010(14)
O4 O2- 0.022(2) 0.0159(19) 0.008(2) 0.0077(16) 0.0009(16) 0.0011(15)
O5 O2- 0.0168(19) 0.021(2) 0.0069(19) 0.0040(16) 0.0006(15) 0.0004(16)
O6 O2- 0.0188(19) 0.0111(19) 0.022(2) 0.0048(16) 0.0015(17) 0.0037(16)
O7 O2- 0.0074(17) 0.0164(19) 0.016(2) 0.0019(15) 0.0017(15) 0.0031(16)
O8 O2- 0.0192(19) 0.0090(18) 0.021(2) 0.0020(15) 0.0023(17) 0.0035(16)
O9 O2- 0.022(3) 0.016(3) 0.005(3) -0.001(2) 0.002(2) -0.001(2)
O10 O2- 0.0084(17) 0.017(2) 0.020(2) 0.0014(15) -0.0017(16) 0.0067(16)
#End of TTdata_239095-ICSD