
#(C) 2019 by FIZ Karlsruhe - Leibniz Institute for Information Infrastructure.  All rights reserved.
data_239002-ICSD
_database_code_ICSD 239002
_audit_creation_date 2016-02-01
_chemical_name_systematic 'Sodium calcium borate'
_chemical_formula_structural 'Na Ca B O3'
_chemical_formula_sum 'B1 Ca1 Na1 O3'
_exptl_crystal_density_diffrn 2.83
_cell_measurement_temperature 296.
_publ_section_title

;
Effect of cation substitution on structural transition: synthesis,
characterization and theoretical studies of Na Ca4 B3 O9, Na Ca B O3, Na Sr B
O3 and Li4 Ca B2 O6
;
loop_
_citation_id
_citation_journal_full
_citation_year
_citation_journal_volume
_citation_page_first
_citation_page_last
_citation_journal_id_ASTM
primary 'Physical Chemistry Chemical Physics' 2015 17 26359 26368 PPCPFQ
loop_
_publ_author_name
'Yang, Yun'
'Su, Xin'
'Pan, Shilie'
'Yang, Zhihua'
_cell_length_a 10.190(2)
_cell_length_b 16.078(4)
_cell_length_c 3.4894(8)
_cell_angle_alpha 90.
_cell_angle_beta 90.
_cell_angle_gamma 90.
_cell_volume 571.68
_cell_formula_units_Z 8
_symmetry_space_group_name_H-M 'P m m n Z'
_symmetry_Int_Tables_number 59
_refine_ls_R_factor_all 0.0212
loop_
_symmetry_equiv_pos_site_id
_symmetry_equiv_pos_as_xyz
1 'x+1/2, y+1/2, -z'
2 '-x, y+1/2, -z'
3 'x+1/2, -y, -z'
4 '-x, -y, -z'
5 '-x+1/2, -y+1/2, z'
6 'x, -y+1/2, z'
7 '-x+1/2, y, z'
8 'x, y, z'
loop_
_atom_type_symbol
_atom_type_oxidation_number
Ca2+ 2
Na1+ 1
B3+ 3
O2- -2
loop_
_atom_site_label
_atom_site_type_symbol
_atom_site_symmetry_multiplicity
_atom_site_Wyckoff_symbol
_atom_site_fract_x
_atom_site_fract_y
_atom_site_fract_z
_atom_site_B_iso_or_equiv
_atom_site_occupancy
_atom_site_attached_hydrogens
Ca1 Ca2+ 2 a 0.75 0.75 0.4664(2) 0.0117(2) 1 0
Ca2 Ca2+ 8 g 0.53367(4) 0.59846(2) 0.76204(11) 0.01059(16) 0.75 0
Na1 Na1+ 4 e 0.25 0.58290(7) 1.2076(3) 0.0157(3) 1 0
Na2 Na1+ 2 b 0.25 0.75 1.6213(5) 0.0187(4) 1 0
Na3 Na1+ 8 g 0.53367(4) 0.59846(2) 0.76204(11) 0.01059(16) 0.25 0
B1 B3+ 4 e 0.75 0.53989(17) 0.3206(7) 0.0094(5) 1 0
B2 B3+ 4 f 0.4737(3) 0.75 1.1585(8) 0.0112(5) 1 0
O1 O2- 8 g 0.36801(12) 0.49728(8) 0.7643(3) 0.0154(3) 1 0
O2 O2- 8 g 0.41656(14) 0.67495(8) 1.2513(4) 0.0185(3) 1 0
O3 O2- 4 f 0.59137(16) 0.75 -0.0387(5) 0.0137(4) 1 0
O4 O2- 4 e 0.75 0.61214(10) 0.5274(5) 0.0131(4) 1 0
loop_
_atom_site_aniso_label
_atom_site_aniso_type_symbol
_atom_site_aniso_U_11
_atom_site_aniso_U_22
_atom_site_aniso_U_33
_atom_site_aniso_U_12
_atom_site_aniso_U_13
_atom_site_aniso_U_23
Ca1 Ca2+ 0.0128(4) 0.0103(3) 0.0119(4) 0. 0. 0.
Ca2 Ca2+ 0.0089(2) 0.0104(2) 0.0125(2) -0.00047(14) 0.00069(14) 0.00001(14)
Na1 Na1+ 0.0163(5) 0.0124(5) 0.0185(5) 0. 0. -0.0014(4)
Na2 Na1+ 0.0154(7) 0.0201(8) 0.0205(8) 0. 0. 0.
Na3 Na1+ 0.0089(2) 0.0104(2) 0.0125(2) -0.00047(14) 0.00069(14) 0.00001(14)
B1 B3+ 0.0101(12) 0.0106(13) 0.0074(12) 0. 0. 0.0031(9)
B2 B3+ 0.0102(13) 0.0132(13) 0.0101(12) 0. -0.0015(10) 0.
O1 O2- 0.0113(7) 0.0162(7) 0.0186(7) -0.0039(5) 0.0012(5) -0.0032(5)
O2 O2- 0.0196(7) 0.0135(7) 0.0226(7) -0.0048(5) 0.0076(5) -0.0032(5)
O3 O2- 0.0097(8) 0.0197(9) 0.0117(9) 0. 0.0010(7) 0.
O4 O2- 0.0107(8) 0.0088(8) 0.0198(10) 0. 0. -0.0011(7)
#End of TTdata_239002-ICSD