
#(C) 2019 by FIZ Karlsruhe - Leibniz Institute for Information Infrastructure.  All rights reserved.
data_239247-ICSD
_database_code_ICSD 239247
_audit_creation_date 2016-08-01
_chemical_name_systematic 'Sodium tris(aqua) pentaborate dihydroxide'
_chemical_formula_structural 'Na (H2 O)3 B5 O8 (O H)2'
_chemical_formula_sum 'H8 B5 Na1 O13'
_exptl_crystal_density_diffrn 1.7
_cell_measurement_temperature 296.
_publ_section_title

;
Syntheses and crystal structures of two new sodium borates [Na2 (H2 O)3][B5 O8
(O H)2] and Na [en H2] [B7 O10 (O H)4]
;
loop_
_citation_id
_citation_journal_full
_citation_year
_citation_journal_volume
_citation_page_first
_citation_page_last
_citation_journal_id_ASTM
primary 'Zeitschrift fuer Naturforschung, B: A Journal of Chemical Sciences'
2016 71 15 21 ZNBSEN
loop_
_publ_author_name
'Wang, Yan-Jing'
'Jia, Ai-Quan'
'Chen, Xing-Shun'
'Shi, Hua-Tian'
'Zhang, Qian-Feng'
_cell_length_a 11.1178(13)
_cell_length_b 16.4419(19)
_cell_length_c 13.572(2)
_cell_angle_alpha 90.
_cell_angle_beta 112.8960(10)
_cell_angle_gamma 90.
_cell_volume 2285.46
_cell_formula_units_Z 8
_symmetry_space_group_name_H-M 'C 1 2/c 1'
_symmetry_Int_Tables_number 15
_refine_ls_R_factor_all 0.0319
loop_
_symmetry_equiv_pos_site_id
_symmetry_equiv_pos_as_xyz
1 'x, -y, z+1/2'
2 '-x, -y, -z'
3 '-x, y, -z+1/2'
4 'x, y, z'
5 'x+1/2, -y+1/2, z+1/2'
6 '-x+1/2, -y+1/2, -z'
7 '-x+1/2, y+1/2, -z+1/2'
8 'x+1/2, y+1/2, z'
loop_
_atom_type_symbol
_atom_type_oxidation_number
Na1+ 1
B3+ 3.4
O2- -2
H1+ 1
O2- -2
H1+ 1
O2- -2
H1+ 1
loop_
_atom_site_label
_atom_site_type_symbol
_atom_site_symmetry_multiplicity
_atom_site_Wyckoff_symbol
_atom_site_fract_x
_atom_site_fract_y
_atom_site_fract_z
_atom_site_B_iso_or_equiv
_atom_site_occupancy
_atom_site_attached_hydrogens
Na1 Na1+ 4 e 1. 0.12249(5) 0.75 0.0539(3) 1 0
Na2 Na1+ 4 e 0.5 -0.15306(4) 0.25 0.02979(17) 1 0
B1 B3+ 8 f 0.75036(12) 0.08336(8) 0.32376(10) 0.0251(2) 1 0
B2 B3+ 8 f 0.86349(13) 0.06885(8) 0.52031(10) 0.0291(3) 1 0
B3 B3+ 8 f 0.67965(13) 0.15640(8) 0.45254(11) 0.0282(3) 1 0
B4 B3+ 8 f 0.74363(13) 0.11290(7) 0.14316(10) 0.0266(3) 1 0
B5 B3+ 8 f 0.61077(13) 0.00575(7) 0.16495(10) 0.0252(2) 1 0
O1 O2- 8 f 0.85913(8) 0.05493(5) 0.42031(6) 0.0302(2) 1 0
O2 O2- 8 f 0.67179(9) 0.14399(5) 0.35166(7) 0.0309(2) 1 0
O3 O2- 8 f 0.80270(8) 0.12176(5) 0.25045(6) 0.02766(19) 1 0
O4 O2- 8 f 0.67119(9) 0.01271(5) 0.27206(6) 0.0300(2) 1 0
O5 O2- 8 f 0.95818(10) 0.03700(6) 0.60941(7) 0.0413(2) 1 0
O6 O2- 8 f 0.77369(9) 0.11746(5) 0.53863(7) 0.0346(2) 1 0
O7 O2- 8 f 0.59657(10) 0.20730(6) 0.47442(7) 0.0385(2) 1 0
H1 H1+ 8 f 0.5387 0.2221 0.4183 0.058 1 0
O8 O2- 8 f 0.78079(10) 0.15492(6) 0.07343(7) 0.0390(2) 1 0
H2 H1+ 8 f 0.8491 0.1792 0.1065 0.058 1 0
O9 O2- 8 f 0.63875(9) 0.05961(5) 0.09766(6) 0.0307(2) 1 0
O10 O2- 8 f 0.52554(9) -0.05667(5) 0.12466(7) 0.0338(2) 1 0
O11 O2- 8 f 0.89944(10) 0.22769(6) 0.80145(8) 0.0372(2) 1 0
O12 O2- 8 f 0.27242(9) -0.14217(6) 0.14133(8) 0.0335(2) 1 0
O13 O2- 8 f 0.51510(9) -0.26100(6) 0.13885(8) 0.0327(2) 1 0
H3 H1+ 8 f 0.869(2) 0.2674(15) 0.749(2) 0.077(7) 1 0
H4 H1+ 8 f 0.838(2) 0.2084(12) 0.8198(17) 0.059(6) 1 0
H5 H1+ 8 f 0.2757(19) -0.0923(14) 0.1589(16) 0.053(5) 1 0
H6 H1+ 8 f 0.257(2) -0.1467(13) 0.074(2) 0.065(6) 1 0
H7 H1+ 8 f 0.536(2) -0.2449(13) 0.0913(17) 0.060(6) 1 0
H8 H1+ 8 f 0.575(2) -0.2971(12) 0.1736(17) 0.056(5) 1 0
loop_
_atom_site_aniso_label
_atom_site_aniso_type_symbol
_atom_site_aniso_U_11
_atom_site_aniso_U_22
_atom_site_aniso_U_33
_atom_site_aniso_U_12
_atom_site_aniso_U_13
_atom_site_aniso_U_23
Na1 Na1+ 0.1050(8) 0.0319(4) 0.0386(5) 0. 0.0429(5) 0.
Na2 Na1+ 0.0312(3) 0.0314(3) 0.0264(3) 0. 0.0108(3) 0.
B1 B3+ 0.0301(6) 0.0267(6) 0.0165(5) -0.0016(4) 0.0069(5) -0.0013(4)
B2 B3+ 0.0342(7) 0.0308(6) 0.0189(6) -0.0011(5) 0.0065(5) -0.0006(5)
B3 B3+ 0.0347(7) 0.0280(6) 0.0235(6) -0.0014(5) 0.0130(5) -0.0003(5)
B4 B3+ 0.0318(6) 0.0261(6) 0.0211(6) -0.0031(4) 0.0093(5) -0.0010(4)
B5 B3+ 0.0293(6) 0.0249(6) 0.0205(6) -0.0025(4) 0.0086(5) -0.0001(4)
O1 O2- 0.0338(4) 0.0362(4) 0.0172(4) 0.0058(3) 0.0060(3) -0.0009(3)
O2 O2- 0.0366(5) 0.0348(4) 0.0203(4) 0.0068(3) 0.0099(3) 0.0011(3)
O3 O2- 0.0323(4) 0.0308(4) 0.0192(4) -0.0080(3) 0.0091(3) -0.0024(3)
O4 O2- 0.0400(5) 0.0288(4) 0.0188(4) -0.0088(3) 0.0089(3) 0.0011(3)
O5 O2- 0.0479(5) 0.0515(6) 0.0172(4) 0.0144(4) 0.0048(4) 0.0002(4)
O6 O2- 0.0452(5) 0.0396(5) 0.0195(4) 0.0077(4) 0.0131(4) 0.0016(3)
O7 O2- 0.0446(5) 0.0448(5) 0.0292(5) 0.0104(4) 0.0179(4) 0.0010(4)
O8 O2- 0.0484(6) 0.0459(5) 0.0227(4) -0.0192(4) 0.0139(4) -0.0016(4)
O9 O2- 0.0382(5) 0.0325(4) 0.0170(4) -0.0105(3) 0.0060(3) 0.0002(3)
O10 O2- 0.0412(5) 0.0348(4) 0.0242(4) -0.0140(3) 0.0114(4) -0.0020(3)
O11 O2- 0.0387(5) 0.0391(5) 0.0355(5) -0.0019(4) 0.0163(4) 0.0043(4)
O12 O2- 0.0371(5) 0.0336(5) 0.0287(5) -0.0049(3) 0.0117(4) -0.0032(4)
O13 O2- 0.0373(5) 0.0341(4) 0.0286(5) 0.0053(4) 0.0150(4) 0.0041(4)
#End of TTdata_239247-ICSD