
#(C) 2019 by FIZ Karlsruhe - Leibniz Institute for Information Infrastructure.  All rights reserved.
data_239319-ICSD
_database_code_ICSD 239319
_audit_creation_date 2016-08-01
_chemical_name_systematic 'Sodium nickel trifluoride'
_chemical_formula_structural 'Na Ni F3'
_chemical_formula_sum 'F3 Na1 Ni1'
_chemical_name_structure_type Pyroxene-CaIrO3
_exptl_crystal_density_diffrn 4.09
_cell_measurement_temperature 293.
_publ_section_title

;
Time-of-flight neutron powder diffraction with milligram samples: the crystal
structures of Na Co F3 and Na Ni F3 post-perovskites
;
loop_
_citation_id
_citation_journal_full
_citation_year
_citation_journal_volume
_citation_page_first
_citation_page_last
_citation_journal_id_ASTM
primary 'Journal of Applied Crystallography' 2014 47 1939 1947 JACGAR
loop_
_publ_author_name
'Lindsay-Scott, Alex'
'Dobson, David'
'Nestola, Fabrizio'
'Alvaro, Matteo'
'Casati, Nicola'
'Liebske, Christian'
'Knight, Kevin S.'
'Smith, Ronald I.'
'Wood, Ian G.'
_cell_length_a 3.0294(4)
_cell_length_b 10.0534(12)
_cell_length_c 7.3938(7)
_cell_angle_alpha 90.
_cell_angle_beta 90.
_cell_angle_gamma 90.
_cell_volume 225.18
_cell_formula_units_Z 4
_symmetry_space_group_name_H-M 'C m c m'
_symmetry_Int_Tables_number 63
_refine_ls_R_factor_all 0.0665
loop_
_symmetry_equiv_pos_site_id
_symmetry_equiv_pos_as_xyz
1 '-x, y, -z+1/2'
2 '-x, -y, z+1/2'
3 '-x, y, z'
4 '-x, -y, -z'
5 'x, -y, z+1/2'
6 'x, y, -z+1/2'
7 'x, -y, -z'
8 'x, y, z'
9 '-x+1/2, y+1/2, -z+1/2'
10 '-x+1/2, -y+1/2, z+1/2'
11 '-x+1/2, y+1/2, z'
12 '-x+1/2, -y+1/2, -z'
13 'x+1/2, -y+1/2, z+1/2'
14 'x+1/2, y+1/2, -z+1/2'
15 'x+1/2, -y+1/2, -z'
16 'x+1/2, y+1/2, z'
loop_
_atom_type_symbol
_atom_type_oxidation_number
Ni2+ 2
Na1+ 1
F1- -1
loop_
_atom_site_label
_atom_site_type_symbol
_atom_site_symmetry_multiplicity
_atom_site_Wyckoff_symbol
_atom_site_fract_x
_atom_site_fract_y
_atom_site_fract_z
_atom_site_B_iso_or_equiv
_atom_site_occupancy
_atom_site_attached_hydrogens
Ni1 Ni2+ 4 a 0. 0. 0. 0.0115(2) 1 0
Na1 Na1+ 4 c 0. 0.2540(3) 0.25 0.0199(5) 1 0
F1 F1- 4 c 0. 0.9276(5) 0.25 0.0172(7) 1 0
F2 F1- 8 f 0. 0.6273(3) 0.0576(4) 0.0146(4) 1 0
loop_
_atom_site_aniso_label
_atom_site_aniso_type_symbol
_atom_site_aniso_U_11
_atom_site_aniso_U_22
_atom_site_aniso_U_33
_atom_site_aniso_U_12
_atom_site_aniso_U_13
_atom_site_aniso_U_23
Ni1 Ni2+ 0.0069(2) 0.0137(3) 0.0138(3) 0. 0. 0.0003(2)
Na1 Na1+ 0.0110(9) 0.0196(13) 0.0290(13) 0. 0. 0.
F1 F1- 0.0119(11) 0.025(2) 0.0142(12) 0. 0. 0.
F2 F1- 0.0098(7) 0.0150(10) 0.0191(10) 0. 0. 0.0008(8)
#End of TTdata_239319-ICSD