
#(C) 2019 by FIZ Karlsruhe - Leibniz Institute for Information Infrastructure.  All rights reserved.
data_239306-ICSD
_database_code_ICSD 239306
_audit_creation_date 2016-08-01
_chemical_name_systematic 'Sodium manganese titanium oxide (2.24/2.25/2.25/9)'
_chemical_formula_structural 'Na2.24 Mn2.25 Ti2.25 O9'
_chemical_formula_sum 'Mn2.25 Na2.24 O9 Ti2.25'
_exptl_crystal_density_diffrn 4.01
_publ_section_title

;
Li Mn Ti O4 with the Na0.44 Mn O2 structure as a positive electrode for
lithium-ion batteries
;
loop_
_citation_id
_citation_journal_full
_citation_year
_citation_journal_volume
_citation_page_first
_citation_page_last
_citation_journal_id_ASTM
primary 'Journal of the Electrochemical Society' 2016 163 A396 A400 JESOAN
loop_
_publ_author_name
'Amigues, A.M.'
'Glass, H.F.J.'
'Dutton, S.E.'
_cell_length_a 9.2449(4)
_cell_length_b 26.4657(8)
_cell_length_c 2.89240(8)
_cell_angle_alpha 90.
_cell_angle_beta 90.
_cell_angle_gamma 90.
_cell_volume 707.69
_cell_formula_units_Z 4
_symmetry_space_group_name_H-M 'P b a m'
_symmetry_Int_Tables_number 55
_refine_ls_R_factor_all 0.084
loop_
_symmetry_equiv_pos_site_id
_symmetry_equiv_pos_as_xyz
1 'x+1/2, -y+1/2, z'
2 '-x+1/2, y+1/2, z'
3 'x, y, -z'
4 '-x, -y, -z'
5 '-x+1/2, y+1/2, -z'
6 'x+1/2, -y+1/2, -z'
7 '-x, -y, z'
8 'x, y, z'
loop_
_atom_type_symbol
_atom_type_oxidation_number
Na1+ 1
Mn3+ 3.5
Ti3+ 3.5
Mn3+ 3.5
Ti3+ 3.5
Mn3+ 3.5
Ti3+ 3.5
Mn3+ 3.5
O2- -2
loop_
_atom_site_label
_atom_site_type_symbol
_atom_site_symmetry_multiplicity
_atom_site_Wyckoff_symbol
_atom_site_fract_x
_atom_site_fract_y
_atom_site_fract_z
_atom_site_B_iso_or_equiv
_atom_site_occupancy
_atom_site_attached_hydrogens
Na1 Na1+ 4 g 0.205(2) 0.2047(6) 0 . 1. 0
Na2 Na1+ 4 h 0.215(3) 0.424(3) 0.5 . 0.62 0
Na3 Na1+ 4 g 0.128(2) 0.004(8) 0 1.9(4) 0.62 0
Mn1 Mn3+ 2 c 0 0.5 0 0. 0.1 0
Ti1 Ti3+ 2 c 0 0.5 0 0. 0.9 0
Mn2 Mn3+ 4 h 0.3565(11) 0.3045(4) 0.5 0.6(2) 0.1 0
Ti2 Ti3+ 4 h 0.3565(11) 0.3045(4) 0.5 0.6(2) 0.9 0
Mn3 Mn3+ 4 g 0.0145(13) 0.1096(4) 0 0.9(2) 0.1 0
Ti3 Ti3+ 4 g 0.0145(13) 0.1096(4) 0 0.9(2) 0.9 0
Mn4 Mn3+ 4 g 0.0350(11) 0.3046(4) 0 0.9(2) 1. 0
Mn5 Mn3+ 4 h 0.3630(12) 0.0889(5) 0.5 1.0(2) 1. 0
O1 O2- 4 h 0.3632(7) 0.0064(2) 0.5 0.9(2) 1. 0
O2 O2- 4 g 0.2241(7) 0.0935(2) 0 0.51(10) 1. 0
O3 O2- 4 h 0.0462(6) 0.1602(3) 0.5 0.54(11) 1. 0
O4 O2- 4 h 0.4212(6) 0.1624(3) 0.5 1.16(14) 1. 0
O5 O2- 4 h 0.1575(8) 0.2840(3) 0.5 1.14(14) 1. 0
O6 O2- 4 g 0.4096(7) 0.2618(2) 0 0.70(11) 1. 0
O7 O2- 4 g 0.320(7) 0.3547(3) 0 0.76(11) 1. 0
O8 O2- 4 g 0.5000(7) 0.0738(3) 0 0.91(13) 1. 0
O9 O2- 4 h 0.4700(7) 0.4352(3) 0.5 1.33(14) 1. 0
loop_
_atom_site_aniso_label
_atom_site_aniso_type_symbol
_atom_site_aniso_B_11
_atom_site_aniso_B_22
_atom_site_aniso_B_33
_atom_site_aniso_B_12
_atom_site_aniso_B_13
_atom_site_aniso_B_23
Na1 Na1+ 0.007(2) 0.0015(3) 0.15(2) 0. 0. 0.
Na2 Na1+ -0.004(2) 0.016(2) 0.258(63) 0. 0. 0.
#End of TTdata_239306-ICSD