
#(C) 2019 by FIZ Karlsruhe - Leibniz Institute for Information Infrastructure.  All rights reserved.
data_239392-ICSD
_database_code_ICSD 239392
_audit_creation_date 2016-08-01
_chemical_name_systematic 'Sodium vanadate - beta phase'
_chemical_formula_structural 'Na0.33 V2 O5'
_chemical_formula_sum 'Na0.33 O5 V2'
_chemical_name_structure_type NaxV2O5
_exptl_crystal_density_diffrn 3.79
_cell_measurement_pressure 4.8
_publ_section_title

;
Pressure-induced non-superconducting phase of beta-Na0.33 V2 O5 and the
mechanism of high-pressure phase transitions in beta-Na0.33 V2 O5 and
beta-Li0.33 V2 O5 at room temperature
;
loop_
_citation_id
_citation_journal_full
_citation_year
_citation_journal_volume
_citation_page_first
_citation_page_last
_citation_journal_id_ASTM
primary 'Journal of Physics: Condensed Matter' 2016 28 035401-1 035401-9 JCOMEL
loop_
_publ_author_name
'Grzechnik, A.'
'Ueda, Y.'
'Yamauchi, T.'
'Hanfland, M.'
'Hering, P.'
'Potapkin, V.'
'Friese, K.'
_cell_length_a 14.877(4)
_cell_length_b 3.6014(2)
_cell_length_c 9.880(2)
_cell_angle_alpha 90
_cell_angle_beta 109.90(2)
_cell_angle_gamma 90
_cell_volume 497.74
_cell_formula_units_Z 6
_symmetry_space_group_name_H-M 'C 1 2/m 1'
_symmetry_Int_Tables_number 12
_refine_ls_R_factor_all 0.0347
loop_
_symmetry_equiv_pos_site_id
_symmetry_equiv_pos_as_xyz
1 '-x, y, -z'
2 '-x, -y, -z'
3 'x, -y, z'
4 'x, y, z'
5 '-x+1/2, y+1/2, -z'
6 '-x+1/2, -y+1/2, -z'
7 'x+1/2, -y+1/2, z'
8 'x+1/2, y+1/2, z'
loop_
_atom_type_symbol
_atom_type_oxidation_number
V4+ 4.83
O2- -2
Na1+ 1
loop_
_atom_site_label
_atom_site_type_symbol
_atom_site_symmetry_multiplicity
_atom_site_Wyckoff_symbol
_atom_site_fract_x
_atom_site_fract_y
_atom_site_fract_z
_atom_site_B_iso_or_equiv
_atom_site_occupancy
_atom_site_attached_hydrogens
V1 V4+ 4 i 0.3418(4) 0 0.1006(5) 0.0045(4) 1. 0
V2 V4+ 4 i 0.1174(4) 0 0.1240(4) 0.0052(4) 1. 0
V3 V4+ 4 i 0.2901(3) 0 0.4134(4) 0.0047(4) 1. 0
O1 O2- 2 a 0 0 0 0.014(3) 1. 0
O2 O2- 4 i 0.8188(14) 0 0.0570(15) 0.0070(12) 1. 0
O3 O2- 4 i 0.6347(13) 0 0.0834(14) 0.0051(11) 1. 0
O4 O2- 4 i 0.4470(15) 0 0.2229(18) 0.0127(16) 1. 0
O5 O2- 4 i 0.2683(13) 0 0.2254(14) 0.0060(12) 1. 0
O6 O2- 4 i 0.1087(13) 0 0.2821(14) 0.0097(13) 1. 0
O7 O2- 4 i 0.2433(12) 0 0.5770(13) 0.0048(11) 1. 0
O8 O2- 4 i 0.4029(15) 0 0.4764(16) 0.0162(15) 1. 0
Na1 Na1+ 4 i -0.0016(16) 0 0.4065(18) 0.0204(18) 0.5 0
#End of TTdata_239392-ICSD