
#(C) 2019 by FIZ Karlsruhe - Leibniz Institute for Information Infrastructure.  All rights reserved.
data_239569-ICSD
_database_code_ICSD 239569
_audit_creation_date 2016-08-01
_chemical_name_systematic 'Disodium dimanganese(II) iron(III) trivanadate(V)'
_chemical_formula_structural 'Na2 Mn2 Fe (V O4)3'
_chemical_formula_sum 'Fe1 Mn2 Na2 O12 V3'
_chemical_name_structure_type Alluaudite
_exptl_crystal_density_diffrn 3.74
_cell_measurement_temperature 293.
_publ_section_title

;
Synthesis, crystal structure, and properties of the alluaudite - type
vanadates Ag2-x Nax Mn2 Fe (V O4)3
;
loop_
_citation_id
_citation_journal_full
_citation_year
_citation_journal_volume
_citation_page_first
_citation_page_last
_citation_journal_id_ASTM
primary 'Inorganic Chemistry' 2016 55 4643 4649 INOCAJ
loop_
_publ_author_name
'Ben Yahia, Hamdi'
'Shikano, Masahiro'
'Tabuchi, Mitsuharu'
'Belharouak, Ilias'
_cell_length_a 12.0067(19)
_cell_length_b 12.9563(18)
_cell_length_c 6.8446(11)
_cell_angle_alpha 90
_cell_angle_beta 111.793(3)
_cell_angle_gamma 90
_cell_volume 988.66
_cell_formula_units_Z 4
_symmetry_space_group_name_H-M 'C 1 2/c 1'
_symmetry_Int_Tables_number 15
_refine_ls_R_factor_all 0.028
loop_
_symmetry_equiv_pos_site_id
_symmetry_equiv_pos_as_xyz
1 'x, -y, z+1/2'
2 '-x, -y, -z'
3 '-x, y, -z+1/2'
4 'x, y, z'
5 'x+1/2, -y+1/2, z+1/2'
6 '-x+1/2, -y+1/2, -z'
7 '-x+1/2, y+1/2, -z+1/2'
8 'x+1/2, y+1/2, z'
loop_
_atom_type_symbol
_atom_type_oxidation_number
Na1+ 1
Mn2+ 2
Fe3+ 3
V5+ 5
O2- -2
loop_
_atom_site_label
_atom_site_type_symbol
_atom_site_symmetry_multiplicity
_atom_site_Wyckoff_symbol
_atom_site_fract_x
_atom_site_fract_y
_atom_site_fract_z
_atom_site_B_iso_or_equiv
_atom_site_occupancy
_atom_site_attached_hydrogens
Na1 Na1+ 4 b 0.5 0 0 0.0158(6) 1 0
Na2 Na1+ 4 e 0.5 0.4938(2) 0.25 0.0497(11) 1 0
Mn1 Mn2+ 4 e 0 0.26739(6) 0.25 0.0133(2) 1 0
Mn2 Mn2+ 8 f 0.21167(4) 0.15837(4) 0.12426(7) 0.01237(17) 0.5 0
Fe1 Fe3+ 8 f 0.21167(4) 0.15837(4) 0.12426(7) 0.01237(17) 0.5 0
V1 V5+ 4 e 0 0.29125(6) 0.75 0.0127(3) 1 0
V2 V5+ 8 f 0.73062(5) 0.38889(4) 0.12144(8) 0.01186(19) 1 0
O1 O2- 8 f 0.6616(2) 0.50647(18) 0.1010(4) 0.0208(9) 1 0
O2 O2- 8 f 0.1614(2) 0.17165(18) 0.3810(3) 0.0170(8) 1 0
O3 O2- 8 f 0.7172(2) 0.31800(18) 0.3258(3) 0.0187(8) 1 0
O4 O2- 8 f 0.8786(2) 0.40257(19) 0.1754(4) 0.0222(9) 1 0
O5 O2- 8 f 0.0397(2) 0.21951(19) 0.9801(3) 0.0157(8) 1 0
O6 O2- 8 f 0.1104(2) 0.3746(2) 0.7564(4) 0.0249(9) 1 0
loop_
_atom_site_aniso_label
_atom_site_aniso_type_symbol
_atom_site_aniso_U_11
_atom_site_aniso_U_22
_atom_site_aniso_U_33
_atom_site_aniso_U_12
_atom_site_aniso_U_13
_atom_site_aniso_U_23
Na1 Na1+ 0.0269(11) 0.0061(9) 0.0067(8) -0.0029(7) -0.0027(7) -0.0015(6)
Na2 Na1+ 0.0273(14) 0.083(2) 0.0344(13) 0 0.0057(11) 0
Mn1 Mn2+ 0.0124(3) 0.0159(4) 0.0136(3) 0 0.0069(3) 0
Mn2 Mn2+ 0.0138(3) 0.0144(3) 0.0102(2) -0.00092(18) 0.00597(19) 0.00032(17)
Fe1 Fe3+ 0.0138(3) 0.0144(3) 0.0102(2) -0.00092(18) 0.00597(19) 0.00032(17)
V1 V5+ 0.0161(4) 0.0120(4) 0.0088(3) 0 0.0034(3) 0
V2 V5+ 0.0117(3) 0.0147(3) 0.0095(3) -0.0001(2) 0.0043(2) -0.0012(2)
O1 O2- 0.0190(13) 0.0231(14) 0.0210(12) 0.0018(10) 0.0082(10) -0.0040(10)
O2 O2- 0.0207(12) 0.0179(13) 0.0126(11) 0.0051(10) 0.0066(9) 0.0010(9)
O3 O2- 0.0214(12) 0.0220(14) 0.0137(11) -0.0004(10) 0.0079(10) -0.0005(9)
O4 O2- 0.0140(12) 0.0189(14) 0.0343(13) -0.0006(10) 0.0095(10) -0.0033(11)
O5 O2- 0.0129(11) 0.0230(13) 0.0118(10) 0.0002(10) 0.0053(9) 0.0030(9)
O6 O2- 0.0262(13) 0.0193(14) 0.0254(13) -0.0055(11) 0.0053(11) 0.0037(10)
#End of TTdata_239569-ICSD