
#(C) 2019 by FIZ Karlsruhe - Leibniz Institute for Information Infrastructure.  All rights reserved.
data_239688-ICSD
_database_code_ICSD 239688
_audit_creation_date 2016-08-01
_chemical_name_systematic 'Sodium nickel chromium(III) tris(phosphate)'
_chemical_formula_structural 'Na Ni Cr2 (P O4)3'
_chemical_formula_sum 'Cr2 Na1 Ni1 O12 P3'
_exptl_crystal_density_diffrn 3.64
_cell_measurement_temperature 295.
_publ_section_title

;
Neutron diffraction studies of the Na-ion battery electrode materials Na Co
Cr2 (P O4)3, Na Ni Cr2 (P O4)3, and Na2 Ni2 Cr (P O4)3
;
loop_
_citation_id
_citation_journal_full
_citation_year
_citation_journal_volume
_citation_page_first
_citation_page_last
_citation_journal_id_ASTM
primary 'Journal of Solid State Chemistry' 2016 238 103 108 JSSCBI
loop_
_publ_author_name
'Yahia, H. Ben'
'Essehli, R.'
'Avdeev, M.'
'Park, J.B.'
'Sun, Y.K.'
'Al-Maadeed, M.A.'
'Belharouak, I.'
_cell_length_a 10.39875(27)
_cell_length_b 12.9858(6)
_cell_length_c 6.36341(28)
_cell_angle_alpha 90.
_cell_angle_beta 90.
_cell_angle_gamma 90.
_cell_volume 859.29
_cell_formula_units_Z 4
_symmetry_space_group_name_H-M 'I m m a'
_symmetry_Int_Tables_number 74
_refine_ls_R_factor_all 0.0336
loop_
_symmetry_equiv_pos_site_id
_symmetry_equiv_pos_as_xyz
1 '-x, y+1/2, -z'
2 '-x, -y+1/2, z'
3 '-x, y, z'
4 '-x, -y, -z'
5 'x, -y+1/2, z'
6 'x, y+1/2, -z'
7 'x, -y, -z'
8 'x, y, z'
9 '-x+1/2, y, -z+1/2'
10 '-x+1/2, -y, z+1/2'
11 '-x+1/2, y+1/2, z+1/2'
12 '-x+1/2, -y+1/2, -z+1/2'
13 'x+1/2, -y, z+1/2'
14 'x+1/2, y, -z+1/2'
15 'x+1/2, -y+1/2, -z+1/2'
16 'x+1/2, y+1/2, z+1/2'
loop_
_atom_type_symbol
_atom_type_oxidation_number
Na1+ 1
Ni2+ 2
Cr3+ 3
P5+ 5
O2- -2
Ni2+ 2
Na1+ 1
loop_
_atom_site_label
_atom_site_type_symbol
_atom_site_symmetry_multiplicity
_atom_site_Wyckoff_symbol
_atom_site_fract_x
_atom_site_fract_y
_atom_site_fract_z
_atom_site_B_iso_or_equiv
_atom_site_occupancy
_atom_site_attached_hydrogens
Na1 Na1+ 4 e 0. 0.75 0.6026(22) 0.052(4) 0.921(16) 0
Ni1 Ni2+ 8 g 0.25 0.63430(30) 0.25 0.0053(11) 0.3885(34) 0
Cr1 Cr3+ 8 g 0.25 0.63430(30) 0.25 0.0053(11) 0.6115(34) 0
Cr2 Cr3+ 4 a 0.5 0.5 0.5 0.0053(11) 0.777(7) 0
P1 P5+ 8 g 0.25 0.4293(4) 0.25 0.0074(7) 1. 0
P2 P5+ 4 e 0. 0.75 0.0844(13) 0.0074(7) 1. 0
O1 O2- 16 j 0.28196(17) 0.36198(24) 0.0593(4) 0.0074(7) 1. 0
O2 O2- 16 j 0.13923(25) 0.50820(21) 0.2093(5) 0.0074(7) 1. 0
O3 O2- 8 h 0. 0.65333(33) 0.9470(7) 0.0074(7) 1. 0
O4 O2- 8 i 0.1208(4) 0.75 0.2306(8) 0.0074(7) 1. 0
Ni2 Ni2+ 4 a 0.5 0.5 0.5 0.0053(11) 0.223(7) 0
Na2 Na1+ 4 b 0. 0.5 0.5 0.052(4) 0.079(16) 0
#End of TTdata_239688-ICSD