
#(C) 2018 by FIZ Karlsruhe - Leibniz Institute for Information Infrastructure.  All rights reserved.
data_239795-ICSD
_database_code_ICSD 239795
_audit_creation_date 2016-08-01
_chemical_name_systematic 'Lithium scandium selenate(IV)'
_chemical_formula_structural 'Li3 Sc2.67  (Se O3)5.33'
_chemical_formula_sum 'Li3 O15.99 Sc2.67 Se5.33'
_exptl_crystal_density_diffrn 3.58
_cell_measurement_temperature 298.
_publ_section_title

;
Li Sc (Se O3)2.x H2 O (0 <= x <= 1): new selenites revealing water
molecule-driven extremely high temperature single-crystal-to-single-crystal
transformations
;
loop_
_citation_id
_citation_journal_full
_citation_year
_citation_journal_volume
_citation_page_first
_citation_page_last
_citation_journal_id_ASTM
primary 'Crystal Growth & Design' 2016 16 3076 3080 CGDEFU
loop_
_publ_author_name
'Song, Seung Yoon'
'Ok, Kang Min'
_cell_length_a 12.0342(2)
_cell_length_b 12.0342(2)
_cell_length_c 54.4707(19)
_cell_angle_alpha 90
_cell_angle_beta 90
_cell_angle_gamma 120
_cell_volume 6831.68
_cell_formula_units_Z 18
_symmetry_space_group_name_H-M 'R -3 H'
_symmetry_Int_Tables_number 148
_refine_ls_R_factor_all 0.0392
loop_
_symmetry_equiv_pos_site_id
_symmetry_equiv_pos_as_xyz
1 'x-y, x, -z'
2 'y, -x+y, -z'
3 '-x, -y, -z'
4 '-x+y, -x, z'
5 '-y, x-y, z'
6 'x, y, z'
7 'x-y+2/3, x+1/3, -z+1/3'
8 'y+2/3, -x+y+1/3, -z+1/3'
9 '-x+2/3, -y+1/3, -z+1/3'
10 '-x+y+2/3, -x+1/3, z+1/3'
11 '-y+2/3, x-y+1/3, z+1/3'
12 'x+2/3, y+1/3, z+1/3'
13 'x-y+1/3, x+2/3, -z+2/3'
14 'y+1/3, -x+y+2/3, -z+2/3'
15 '-x+1/3, -y+2/3, -z+2/3'
16 '-x+y+1/3, -x+2/3, z+2/3'
17 '-y+1/3, x-y+2/3, z+2/3'
18 'x+1/3, y+2/3, z+2/3'
loop_
_atom_type_symbol
_atom_type_oxidation_number
Se4+ 4
Sc3+ 3
O2- -2
Li1+ 1
loop_
_atom_site_label
_atom_site_type_symbol
_atom_site_symmetry_multiplicity
_atom_site_Wyckoff_symbol
_atom_site_fract_x
_atom_site_fract_y
_atom_site_fract_z
_atom_site_B_iso_or_equiv
_atom_site_occupancy
_atom_site_attached_hydrogens
Se1 Se4+ 6 c 0.3333 0.6667 0.08341(3) 0.0114(3) 1 0
Se2 Se4+ 18 f 0.45566(8) 1.03152(8) 0.06521(2) 0.0125(2) 1 0
Se3 Se4+ 6 c 0 1 0.07568(3) 0.0181(4) 1 0
Se4 Se4+ 18 f -0.06236(7) 0.70771(7) 0.03051(2) 0.01093(19) 1 0
Se5 Se4+ 6 c 0 1 0.15132(2) 0.0123(3) 1 0
Se6 Se4+ 18 f 0.28038(7) 0.88861(8) 0.14012(2) 0.0126(2) 1 0
Se7 Se4+ 18 f -0.12670(8) 0.63770(8) 0.10662(2) 0.0144(2) 1 0
Se8 Se4+ 6 c 0.6667 1.3333 0.01144(3) 0.0161(4) 1 0
Sc1 Sc3+ 3 a 0 1 0 0.0098(9) 1 0
Sc2 Sc3+ 9 e 0.5 1 0 0.0142(5) 1 0
Sc3 Sc3+ 6 c 0.6667 1.3333 0.08588(5) 0.0115(6) 1 0
Sc4 Sc3+ 9 d 0.3333 1.1667 0.1667 0.0112(5) 1 0
Sc5 Sc3+ 3 b 0.3333 0.6667 0.1667 0.0123(9) 1 0
Sc6 Sc3+ 18 f 0.15953(14) 0.82863(15) 0.07942(3) 0.0119(3) 1 0
O1 O2- 18 f -0.0850(5) 0.8300(4) 0.02072(9) 0.0143(13) 1 0
O2 O2- 18 f 0.4985(5) 1.0016(5) 0.03754(9) 0.0223(14) 1 0
O3 O2- 18 f 0.5637(5) 1.1955(5) -0.00304(10) 0.0220(14) 1 0
O4 O2- 18 f -0.0375(4) 0.6537(4) 0.00332(9) 0.0120(13) 1 0
O5 O2- 18 f 0.5237(5) 1.1921(5) 0.06460(9) 0.0209(14) 1 0
O6 O2- 18 f -0.2014(5) 0.4749(4) 0.11011(9) 0.0160(14) 1 0
O7 O2- 18 f -0.0653(5) 0.6782(5) 0.13510(9) 0.0185(14) 1 0
O8 O2- 18 f 0.3818(5) 1.0492(4) 0.14551(9) 0.0127(13) 1 0
O9 O2- 18 f 0.1349(4) 1.0250(4) 0.16611(9) 0.0160(13) 1 0
O10 O2- 18 f 0.3803(5) 0.8315(5) 0.14550(9) 0.0171(13) 1 0
O11 O2- 18 f 0.0619(5) 0.9180(5) 0.08952(10) 0.0274(15) 1 0
O12 O2- 18 f 0.2770(5) 0.8879(5) 0.10951(9) 0.0217(14) 1 0
O13 O2- 18 f 0.0019(5) 0.6613(5) 0.09039(9) 0.0207(14) 1 0
O14 O2- 18 f 0.2522(5) 0.7279(5) 0.06844(9) 0.0168(14) 1 0
O15 O2- 18 f 0.3003(4) 0.9893(4) 0.05914(9) 0.0126(13) 1 0
O16 O2- 18 f 0.0894(4) 0.7925(5) 0.04142(8) 0.0161(13) 1 0
Li1 Li1+ 18 f -0.0483(13) 0.7304(13) -0.0271(3) 0.020(4) 1 0
Li2 Li1+ 18 f 0.5673(15) 1.1285(16) 0.1389(3) 0.044(5) 1 0
Li3 Li1+ 18 f 0.179(3) 0.670(3) 0.0368(5) 0.059(9) 1 0
loop_
_atom_site_aniso_label
_atom_site_aniso_type_symbol
_atom_site_aniso_U_11
_atom_site_aniso_U_22
_atom_site_aniso_U_33
_atom_site_aniso_U_12
_atom_site_aniso_U_13
_atom_site_aniso_U_23
Se1 Se4+ 0.0102(5) 0.0102(5) 0.0137(8) 0.0051(2) 0 0
Se2 Se4+ 0.0103(5) 0.0136(5) 0.0112(4) 0.0041(4) -0.0012(4) -0.0002(4)
Se3 Se4+ 0.0185(6) 0.0185(6) 0.0172(9) 0.0092(3) 0 0
Se4 Se4+ 0.0103(5) 0.0096(5) 0.0119(4) 0.0042(4) -0.0002(4) 0.0014(4)
Se5 Se4+ 0.0122(5) 0.0122(5) 0.0126(8) 0.0061(3) 0 0
Se6 Se4+ 0.0121(5) 0.0112(5) 0.0139(5) 0.0053(4) 0.0003(4) -0.0003(4)
Se7 Se4+ 0.0143(5) 0.0130(5) 0.0145(4) 0.0059(4) 0.0008(4) 0.0000(4)
Se8 Se4+ 0.0172(5) 0.0172(5) 0.0139(8) 0.0086(3) 0 0
Sc1 Sc3+ 0.0087(13) 0.0087(13) 0.012(2) 0.0043(7) 0 0
Sc2 Sc3+ 0.0092(13) 0.0183(14) 0.0132(12) 0.0055(11) 0.0027(10) 0.0001(10)
Sc3 Sc3+ 0.0101(9) 0.0101(9) 0.0141(15) 0.0051(4) 0 0
Sc4 Sc3+ 0.0112(13) 0.0116(13) 0.0110(12) 0.0059(11) -0.0005(10) -0.0020(9)
Sc5 Sc3+ 0.0123(14) 0.0123(14) 0.012(2) 0.0061(7) 0 0
Sc6 Sc3+ 0.0104(8) 0.0140(9) 0.0124(8) 0.0069(7) 0.0006(7) 0.0003(7)
O1 O2- 0.018(3) 0.007(3) 0.021(3) 0.008(3) 0.001(3) -0.001(2)
O2 O2- 0.026(4) 0.039(4) 0.007(3) 0.020(3) 0.002(3) -0.008(3)
O3 O2- 0.010(3) 0.008(3) 0.037(4) -0.003(3) -0.010(3) 0.001(3)
O4 O2- 0.017(3) 0.012(3) 0.014(3) 0.012(3) -0.003(2) 0.000(2)
O5 O2- 0.017(3) 0.012(3) 0.023(4) -0.001(3) -0.005(3) -0.007(3)
O6 O2- 0.021(3) 0.008(3) 0.010(3) 0.001(3) -0.005(3) 0.002(2)
O7 O2- 0.017(3) 0.019(3) 0.011(3) 0.004(3) 0.000(2) -0.007(2)
O8 O2- 0.017(3) 0.005(3) 0.018(3) 0.007(3) -0.001(2) -0.004(2)
O9 O2- 0.008(3) 0.010(3) 0.027(3) 0.001(3) -0.003(3) 0.007(3)
O10 O2- 0.015(3) 0.016(3) 0.025(3) 0.012(3) 0.007(3) 0.010(3)
O11 O2- 0.033(4) 0.034(4) 0.031(4) 0.029(3) 0.002(3) 0.003(3)
O12 O2- 0.022(4) 0.029(4) 0.013(3) 0.013(3) -0.009(3) -0.009(3)
O13 O2- 0.018(3) 0.014(3) 0.024(4) 0.004(3) 0.016(3) 0.001(3)
O14 O2- 0.020(3) 0.019(3) 0.020(3) 0.016(3) -0.003(3) -0.001(3)
O15 O2- 0.004(3) 0.010(3) 0.023(3) 0.003(3) -0.006(2) 0.003(2)
O16 O2- 0.012(3) 0.019(3) 0.009(3) 0.001(3) -0.007(2) -0.004(3)
Li1 Li1+ 0.014(8) 0.016(8) 0.025(9) 0.004(7) -0.014(7) -0.014(7)
Li2 Li1+ 0.031(11) 0.047(12) 0.037(11) 0.006(9) -0.011(9) -0.005(9)
Li3 Li1+ 0.06(2) 0.05(2) 0.033(17) 0.002(17) 0.012(15) -0.001(14)
#End of TTdata_239795-ICSD