
#(C) 2019 by FIZ Karlsruhe - Leibniz Institute for Information Infrastructure.  All rights reserved.
data_239891-ICSD
_database_code_ICSD 239891
_audit_creation_date 2016-08-01
_chemical_name_systematic 'Sodium samarium molybdate(VI)'
_chemical_formula_structural '(Na0.49 Sm0.51) Mo O4'
_chemical_formula_sum 'Mo1 Na0.49 O4 Sm0.51'
_chemical_name_structure_type Scheelite-CaWO4
_exptl_crystal_density_diffrn 5.19
_cell_measurement_temperature 296.
_publ_section_title

;
Single crystal growth and characterization of Nax Ln1-x Mo O4, Ln=La, Ce, Pr,
Nd, Sm, and Eu (x=0.397-0.499)
;
loop_
_citation_id
_citation_journal_full
_citation_year
_citation_journal_volume
_citation_page_first
_citation_page_last
_citation_journal_id_ASTM
primary 'Journal of Solid State Chemistry' 2016 240 76 81 JSSCBI
loop_
_publ_author_name
'Cortese, Anthony J.'
'Abeysinghe, Dileka'
'Smith, Mark D.'
'zur Loye, Hans-Conrad'
_cell_length_a 5.2560(2)
_cell_length_b 5.2560(2)
_cell_length_c 11.4921(6)
_cell_angle_alpha 90
_cell_angle_beta 90
_cell_angle_gamma 90
_cell_volume 317.47
_cell_formula_units_Z 4
_symmetry_space_group_name_H-M 'I 41/a Z'
_symmetry_Int_Tables_number 88
_refine_ls_R_factor_all 0.0252
loop_
_symmetry_equiv_pos_site_id
_symmetry_equiv_pos_as_xyz
1 '-y+3/4, x+3/4, -z+3/4'
2 'y+1/4, -x+3/4, -z+3/4'
3 'x, y+1/2, -z'
4 '-x, -y, -z'
5 'y+1/4, -x+1/4, z+1/4'
6 '-y+3/4, x+1/4, z+1/4'
7 '-x, -y+1/2, z'
8 'x, y, z'
9 '-y+1/4, x+1/4, -z+1/4'
10 'y+3/4, -x+1/4, -z+1/4'
11 'x+1/2, y, -z+1/2'
12 '-x+1/2, -y+1/2, -z+1/2'
13 'y+3/4, -x+3/4, z+3/4'
14 '-y+1/4, x+3/4, z+3/4'
15 '-x+1/2, -y, z+1/2'
16 'x+1/2, y+1/2, z+1/2'
loop_
_atom_type_symbol
_atom_type_oxidation_number
Sm3+ 3
Na1+ 1
Mo6+ 6
O2- -2
loop_
_atom_site_label
_atom_site_type_symbol
_atom_site_symmetry_multiplicity
_atom_site_Wyckoff_symbol
_atom_site_fract_x
_atom_site_fract_y
_atom_site_fract_z
_atom_site_B_iso_or_equiv
_atom_site_occupancy
_atom_site_attached_hydrogens
Sm1 Sm3+ 4 b 0. 0.25 0.625 0.0118(2) 0.5092(17) 0
Na1 Na1+ 4 b 0. 0.25 0.625 0.0118(2) 0.4908(17) 0
Mo1 Mo6+ 4 a 0. 0.25 0.125 0.01211(18) 1 0
O1 O2- 16 f 0.2418(3) 0.1025(3) 0.04103(14) 0.0192(4) 1 0
loop_
_atom_site_aniso_label
_atom_site_aniso_type_symbol
_atom_site_aniso_U_11
_atom_site_aniso_U_22
_atom_site_aniso_U_33
_atom_site_aniso_U_12
_atom_site_aniso_U_13
_atom_site_aniso_U_23
Sm1 Sm3+ 0.0123(2) 0.0123(2) 0.0109(3) 0. 0. 0.
Na1 Na1+ 0.0123(2) 0.0123(2) 0.0109(3) 0. 0. 0.
Mo1 Mo6+ 0.0112(2) 0.0112(2) 0.0140(3) 0. 0. 0.
O1 O2- 0.0210(8) 0.0166(7) 0.0199(7) 0.0013(6) 0.0042(6) 0.0006(6)
#End of TTdata_239891-ICSD