
#(C) 2019 by FIZ Karlsruhe - Leibniz Institute for Information Infrastructure.  All rights reserved.
data_239880-ICSD
_database_code_ICSD 239880
_audit_creation_date 2016-08-01
_chemical_name_systematic 'Disodium zirconium hexasilicate trihydrate'
_chemical_formula_structural 'Na2 Zr Si6 O15 (H2 O)3'
_chemical_formula_sum 'H6 Na2 O18 Si6 Zr1'
_chemical_name_structure_type Na2ZrSi6O15(H2O)3
_exptl_crystal_density_diffrn 2.61
_cell_measurement_temperature 296.
_publ_section_title

;
Dehydration and thermal stability of elpidite: An in-situ single crystal X-ray
diffraction study
;
loop_
_citation_id
_citation_journal_full
_citation_year
_citation_journal_volume
_citation_page_first
_citation_page_last
_citation_journal_id_ASTM
primary 'Microporous and Mesoporous Materials' 2016 227 81 87 MIMMFJ
loop_
_publ_author_name
'Cametti, Georgia'
'Armbruster, Thomas'
'Nagashima, Mariko'
_cell_length_a 7.11340(10)
_cell_length_b 14.6796(2)
_cell_length_c 14.6030(2)
_cell_angle_alpha 90
_cell_angle_beta 90
_cell_angle_gamma 90
_cell_volume 1524.87
_cell_formula_units_Z 4
_symmetry_space_group_name_H-M 'P b c m'
_symmetry_Int_Tables_number 57
_refine_ls_R_factor_all 0.0213
loop_
_symmetry_equiv_pos_site_id
_symmetry_equiv_pos_as_xyz
1 'x, -y+1/2, z+1/2'
2 '-x, y+1/2, z'
3 'x, y, -z+1/2'
4 '-x, -y, -z'
5 '-x, y+1/2, -z+1/2'
6 'x, -y+1/2, -z'
7 '-x, -y, z+1/2'
8 'x, y, z'
loop_
_atom_type_symbol
_atom_type_oxidation_number
Zr4+ 4
Si4+ 4
Na1+ 1
O2- -2
H1+ 1
loop_
_atom_site_label
_atom_site_type_symbol
_atom_site_symmetry_multiplicity
_atom_site_Wyckoff_symbol
_atom_site_fract_x
_atom_site_fract_y
_atom_site_fract_z
_atom_site_B_iso_or_equiv
_atom_site_occupancy
_atom_site_attached_hydrogens
Zr1 Zr4+ 4 c 0.49573(2) 0.25 0.5 0.00523(4) 1 0
Si1 Si4+ 8 e 0.77225(4) 0.38590(2) 0.64609(2) 0.00674(6) 1 0
Si2 Si4+ 8 e 0.50745(4) 0.04736(2) 0.64172(2) 0.00663(6) 1 0
Si3 Si4+ 8 e 0.21882(4) 0.39203(2) 0.64415(2) 0.00636(6) 1 0
Na1 Na1+ 4 d 0.44215(16) 0.23161(7) 0.75 0.0314(2) 1 0
Na2 Na1+ 4 c -0.00391(10) 0.25 0.5 0.01914(16) 1 0
O1 O2- 8 e 0.99494(10) 0.40404(7) 0.63926(6) 0.01313(15) 1 0
O2 O2- 4 d 0.71808(17) 0.35497(9) 0.75 0.0134(2) 1 0
O3 O2- 8 e 0.70783(12) 0.30904(6) 0.57702(6) 0.01284(15) 1 0
O4 O2- 8 e 0.67641(12) 0.48410(6) 0.62544(6) 0.01494(16) 1 0
O5 O2- 4 d 0.52514(18) 0.07121(9) 0.75 0.0141(2) 1 0
O6 O2- 8 e 0.49088(12) 0.14058(6) 0.58839(6) 0.01275(15) 1 0
O7 O2- 8 e 0.30597(12) 0.49005(6) 0.61206(6) 0.01174(15) 1 0
O8 O2- 4 d 0.28443(16) 0.37626(9) 0.75 0.0110(2) 1 0
O9 O2- 8 e 0.29068(12) 0.30992(6) 0.58265(6) 0.01221(15) 1 0
O10 O2- 8 e 0.00936(15) 0.11326(9) 0.58038(9) 0.0280(2) 1 0
O11 O2- 4 d 0.1234(3) 0.18975(16) 0.75 0.0450(5) 1 0
H1 H1+ 8 e -0.089(3) 0.0734(14) 0.5782(16) 0.05 1 0
H2 H1+ 8 e 0.058(3) 0.1686(16) 0.8001(13) 0.05 1 0
H3 H1+ 8 e 0.112(3) 0.0775(15) 0.5805(16) 0.05 1 0
loop_
_atom_site_aniso_label
_atom_site_aniso_type_symbol
_atom_site_aniso_U_11
_atom_site_aniso_U_22
_atom_site_aniso_U_33
_atom_site_aniso_U_12
_atom_site_aniso_U_13
_atom_site_aniso_U_23
Zr1 Zr4+ 0.00640(6) 0.00423(6) 0.00507(6) 0. 0. -0.00002(4)
Si1 Si4+ 0.00534(11) 0.00725(13) 0.00763(12) 0.00024(9) -0.00046(9) -0.00133(9)
Si2 Si4+ 0.00763(12) 0.00512(12) 0.00713(11) 0.00008(9) 0.00013(9) 0.00112(9)
Si3 Si4+ 0.00525(11) 0.00687(13) 0.00697(12) -0.00020(9) 0.00039(8) -0.00101(9)
Na1 Na1+ 0.0383(5) 0.0145(4) 0.0414(6) 0.0073(4) 0. 0.
Na2 Na1+ 0.0167(4) 0.0173(4) 0.0234(4) 0. 0. -0.0006(3)
O1 O2- 0.0055(3) 0.0173(4) 0.0166(4) -0.0007(3) -0.0005(3) -0.0011(3)
O2 O2- 0.0139(5) 0.0184(6) 0.0080(5) -0.0033(4) 0. 0.
O3 O2- 0.0126(3) 0.0133(4) 0.0127(3) -0.0023(3) -0.0031(3) -0.0049(3)
O4 O2- 0.0118(4) 0.0115(4) 0.0214(4) 0.0054(3) 0.0003(3) 0.0011(3)
O5 O2- 0.0217(6) 0.0130(6) 0.0076(4) 0.0017(4) 0. 0.
O6 O2- 0.0170(4) 0.0078(4) 0.0135(3) 0.0010(3) 0.0007(3) 0.0049(3)
O7 O2- 0.0115(3) 0.0099(4) 0.0138(4) -0.0036(3) -0.0015(3) 0.0022(3)
O8 O2- 0.0114(5) 0.0144(5) 0.0073(4) 0.0012(4) 0. 0.
O9 O2- 0.0128(3) 0.0106(4) 0.0132(3) 0.0021(3) 0.0035(3) -0.0036(3)
O10 O2- 0.0229(5) 0.0240(6) 0.0370(6) -0.0038(4) -0.0040(4) 0.0096(5)
O11 O2- 0.0543(13) 0.0476(12) 0.0330(10) -0.0204(10) 0. 0.
#End of TTdata_239880-ICSD