
#(C) 2019 by FIZ Karlsruhe - Leibniz Institute for Information Infrastructure.  All rights reserved.
data_239822-ICSD
_database_code_ICSD 239822
_audit_creation_date 2016-08-01
_chemical_name_systematic 'Disodium di(cobalt/iron) cobalt tris(orthovanadate)'
_chemical_formula_structural 'Na2 (Co0.5 Fe0.5)2 Co (V O4)3'
_chemical_formula_sum 'Co2 Fe1 Na2 O12 V3'
_chemical_name_structure_type Alluaudite
_exptl_crystal_density_diffrn 3.93
_cell_measurement_temperature 296.
_publ_section_title

;
The alluaudite - type crystal structures of Na2 (Fe/Co)2 Co (V O4)3 and Ag2
(Fe/Co)2 Co (V O4)3
;
loop_
_citation_id
_citation_journal_full
_citation_year
_citation_journal_volume
_citation_page_first
_citation_page_last
_citation_journal_id_ASTM
primary 'Acta Crystallographica, Section E: Crystallographic Communications'
2016 72 1017 1020 ACSECI
loop_
_publ_author_name
'Hadouchi, Mohammed'
'Assani, Abderrazzak'
'Saadi, Mohamed'
'El Ammari, Lahcen'
_cell_length_a 11.7258(2)
_cell_length_b 12.7819(2)
_cell_length_c 6.82640(10)
_cell_angle_alpha 90
_cell_angle_beta 111.0690(10)
_cell_angle_gamma 90
_cell_volume 954.72
_cell_formula_units_Z 4
_symmetry_space_group_name_H-M 'C 1 2/c 1'
_symmetry_Int_Tables_number 15
_refine_ls_R_factor_all 0.0217
loop_
_symmetry_equiv_pos_site_id
_symmetry_equiv_pos_as_xyz
1 'x, -y, z+1/2'
2 '-x, -y, -z'
3 '-x, y, -z+1/2'
4 'x, y, z'
5 'x+1/2, -y+1/2, z+1/2'
6 '-x+1/2, -y+1/2, -z'
7 '-x+1/2, y+1/2, -z+1/2'
8 'x+1/2, y+1/2, z'
loop_
_atom_type_symbol
_atom_type_oxidation_number
Fe3+ 3
Co2+ 2
V5+ 5
Na1+ 1
O2- -2
loop_
_atom_site_label
_atom_site_type_symbol
_atom_site_symmetry_multiplicity
_atom_site_Wyckoff_symbol
_atom_site_fract_x
_atom_site_fract_y
_atom_site_fract_z
_atom_site_B_iso_or_equiv
_atom_site_occupancy
_atom_site_attached_hydrogens
Fe1 Fe3+ 8 f 0.79142(2) 0.66131(2) 0.88043(4) 0.00595(6) 0.5 0
Co1 Co2+ 8 f 0.79142(2) 0.66131(2) 0.88043(4) 0.00595(6) 0.5 0
Co2 Co2+ 4 e 0.5 0.73184(3) 0.25 0.00727(7) 1 0
V1 V5+ 8 f 0.77138(3) 0.61298(2) 0.38340(4) 0.00555(6) 1 0
V2 V5+ 4 e 0.5 0.70722(3) 0.75 0.00629(8) 1 0
Na1 Na1+ 4 a 0.5 0.5 0.5 0.0123(2) 1 0
Na2 Na1+ 4 e 1. 0.50245(14) 0.75 0.0257(3) 1 0
O1 O2- 8 f 0.84286(13) 0.67273(11) 0.6264(2) 0.0102(2) 1 0
O2 O2- 8 f 0.62045(12) 0.60248(11) 0.3329(2) 0.0116(2) 1 0
O3 O2- 8 f 0.78619(13) 0.68309(11) 0.1758(2) 0.0113(2) 1 0
O4 O2- 8 f 0.61413(13) 0.62261(11) 0.7671(2) 0.0120(2) 1 0
O5 O2- 8 f 0.53637(12) 0.77735(11) 0.9853(2) 0.0104(2) 1 0
O6 O2- 8 f 0.84074(13) 0.49296(11) 0.4032(2) 0.0108(2) 1 0
loop_
_atom_site_aniso_label
_atom_site_aniso_type_symbol
_atom_site_aniso_U_11
_atom_site_aniso_U_22
_atom_site_aniso_U_33
_atom_site_aniso_U_12
_atom_site_aniso_U_13
_atom_site_aniso_U_23
Fe1 Fe3+ 0.00562(10) 0.00715(11) 0.00541(10) -0.00056(7) 0.00237(7) -0.00051(7)
Co1 Co2+ 0.00562(10) 0.00715(11) 0.00541(10) -0.00056(7) 0.00237(7) -0.00051(7)
Co2 Co2+ 0.00669(14) 0.00821(15) 0.00752(13) 0. 0.00330(11) 0.
V1 V5+ 0.00559(12) 0.00635(12) 0.00449(11) -0.00001(9) 0.00155(9) -0.00011(8)
V2 V5+ 0.00700(17) 0.00647(17) 0.00459(15) 0. 0.00113(12) 0.
Na1 Na1+ 0.0208(6) 0.0070(5) 0.0074(4) -0.0057(4) 0.0030(4) -0.0015(3)
Na2 Na1+ 0.0097(5) 0.0565(10) 0.0105(5) 0. 0.0031(4) 0.
O1 O2- 0.0115(6) 0.0116(6) 0.0074(5) -0.0037(5) 0.0031(4) -0.0016(4)
O2 O2- 0.0077(5) 0.0107(6) 0.0158(6) -0.0008(4) 0.0035(5) 0.0004(5)
O3 O2- 0.0138(6) 0.0126(6) 0.0080(5) -0.0004(5) 0.0043(4) 0.0006(4)
O4 O2- 0.0092(6) 0.0098(6) 0.0148(6) 0.0012(4) 0.0015(5) -0.0019(5)
O5 O2- 0.0075(5) 0.0156(6) 0.0082(5) -0.0017(5) 0.0028(4) -0.0025(4)
O6 O2- 0.0102(6) 0.0092(6) 0.0129(6) 0.0002(4) 0.0042(5) -0.0015(4)
#End of TTdata_239822-ICSD