
#(C) 2018 by FIZ Karlsruhe - Leibniz Institute for Information Infrastructure.  All rights reserved.
data_2403-ICSD
_database_code_ICSD 2403
_audit_creation_date 1980-01-01
_audit_update_record 2012-08-01
_chemical_name_systematic 'Tetralithium tellurate'
_chemical_formula_structural 'Li4 (Te O5)'
_chemical_formula_sum 'Li4 O5 Te1'
_chemical_name_structure_type Li4TeO5
_exptl_crystal_density_diffrn 4.24
_publ_section_title

;
Structure cristalline d'une oxotellurate, Li4 Te(VI) O5, a groupement
anionique individualise: (Te2(VI) O10)(8-)
;
loop_
_citation_id
_citation_journal_full
_citation_year
_citation_journal_volume
_citation_page_first
_citation_page_last
_citation_journal_id_ASTM
primary

;
Acta Crystallographica, Section B: Structural Crystallography and Crystal
Chemistry
; 1978 34 3156 3160 ACBCAR
loop_
_publ_author_name
'Moret, J.'
'Daniel, F.'
'Loeksmanto, W.'
'Maurin, M.'
'Philippot, E.'
_cell_length_a 5.186(1)
_cell_length_b 7.765(1)
_cell_length_c 5.120(1)
_cell_angle_alpha 101.96(1)
_cell_angle_beta 101.89(1)
_cell_angle_gamma 107.58(1)
_cell_volume 184.13
_cell_formula_units_Z 2
_symmetry_space_group_name_H-M 'P -1'
_symmetry_Int_Tables_number 2
_refine_ls_R_factor_all 0.02
loop_
_symmetry_equiv_pos_site_id
_symmetry_equiv_pos_as_xyz
1 '-x, -y, -z'
2 'x, y, z'
loop_
_atom_type_symbol
_atom_type_oxidation_number
Te6+ 6
O2- -2
Li1+ 1
loop_
_atom_site_label
_atom_site_type_symbol
_atom_site_symmetry_multiplicity
_atom_site_Wyckoff_symbol
_atom_site_fract_x
_atom_site_fract_y
_atom_site_fract_z
_atom_site_B_iso_or_equiv
_atom_site_occupancy
_atom_site_attached_hydrogens
Te1 Te6+ 2 i 0.2090(1) 0.2112(1) 0.1084(1) . 1. 0
O1 O2- 2 i 0.5575(9) 0.3283(7) 0.0503(9) . 1. 0
O2 O2- 2 i 0.8314(9) 0.0439(6) 0.1299(9) . 1. 0
O3 O2- 2 i 0.993(1) 0.7509(7) 0.216(1) . 1. 0
O4 O2- 2 i 0.1798(10) 0.4255(7) 0.3336(10) . 1. 0
O5 O2- 2 i 0.3911(10) 0.1534(7) 0.4218(10) . 1. 0
Li1 Li1+ 1 c 0 0.5 0 . 1. 0
Li2 Li1+ 1 b 0 0 0.5 . 1. 0
Li3 Li1+ 2 i 0.396(3) 0.890(2) 0.228(2) . 1. 0
Li4 Li1+ 2 i 0.611(3) 0.603(2) 0.294(3) . 1. 0
Li5 Li1+ 2 i 0.801(3) 0.314 0.425(3) . 1. 0
loop_
_atom_site_aniso_label
_atom_site_aniso_type_symbol
_atom_site_aniso_U_11
_atom_site_aniso_U_22
_atom_site_aniso_U_33
_atom_site_aniso_U_12
_atom_site_aniso_U_13
_atom_site_aniso_U_23
Te1 Te6+ 0.0055(1) 0.0030(1) 0.0033(1) 0.0007(1) 0.0010(1) 0.0008(1)
O1 O2- 0.005(2) 0.004(1) 0.004(1) -.001(2) 0.001(1) 0.000(1)
O2 O2- 0.008(2) 0.002(1) 0.004(1) 0.001(1) 0.003(1) -.001(1)
O3 O2- 0.012(2) 0.004(2) 0.003(2) 0.003(2) 0.002(2) 0.003(2)
O4 O2- 0.013(2) 0.002(2) 0.005(3) 0.003(2) 0.003(2) 0.001(1)
O5 O2- 0.007(2) 0.007(2) 0.003(2) 0.002(2) -.001(2) 0.002(2)
Li1 Li1+ 0.055(13) 0.029(9) 0.012(8) 0.035(10) 0.000(8) 0.002(2)
Li2 Li1+ 0.017(9) 0.009(5) 0.017(7) 0.008(5) 0.007(5) 0.010(6)
Li3 Li1+ 0.012(5) 0.012(4) 0.008(6) 0.005(4) -.001(5) 0.001(5)
Li4 Li1+ 0.022(5) 0.005(4) 0.005(5) -.002(4) 0.003(4) 0.002(4)
Li5 Li1+ 0.017(5) 0.020(6) 0.013(6) 0.009(5) 0.005(5) 0.005(5)
#End of TTdata_2403-ICSD