
#(C) 2019 by FIZ Karlsruhe - Leibniz Institute for Information Infrastructure.  All rights reserved.
data_240683-ICSD
_database_code_ICSD 240683
_audit_creation_date 2007-08-01
_chemical_name_systematic 'Sodium tris(zinc hydroxide) bis(sulfate(IV))'
_chemical_formula_structural 'Na (Zn (O H))3 (S O3)2'
_chemical_formula_sum 'H3 Na1 O9 S2 Zn3'
_exptl_crystal_density_diffrn 3.62
_publ_section_title
'Sodium Zinc Hydroxide Sulfite with a Novel Zn3 O H Geometry'
loop_
_citation_id
_citation_journal_full
_citation_year
_citation_journal_volume
_citation_page_first
_citation_page_last
_citation_journal_id_ASTM
primary 'Inorganic Chemistry' 2006 45 10410 10412 INOCAJ
loop_
_publ_author_name
'Nguyen Dan-Tam'
'Bu Xianhui'
_cell_length_a 5.84940(10)
_cell_length_b 5.84940(10)
_cell_length_c 13.3086(2)
_cell_angle_alpha 90.
_cell_angle_beta 90.
_cell_angle_gamma 120.
_cell_volume 394.35
_cell_formula_units_Z 2
_symmetry_space_group_name_H-M 'P -3 c 1'
_symmetry_Int_Tables_number 165
_refine_ls_R_factor_all 0.0219
loop_
_symmetry_equiv_pos_site_id
_symmetry_equiv_pos_as_xyz
1 'x-y, -y, -z+1/2'
2 '-x, -x+y, -z+1/2'
3 'y, x, -z+1/2'
4 'x-y, x, -z'
5 'y, -x+y, -z'
6 '-x, -y, -z'
7 '-x+y, y, z+1/2'
8 'x, x-y, z+1/2'
9 '-y, -x, z+1/2'
10 '-x+y, -x, z'
11 '-y, x-y, z'
12 'x, y, z'
loop_
_atom_type_symbol
_atom_type_oxidation_number
Zn2+ 2
O2- -2
S4+ 4
O2- -2
Na1+ 1
H1+ 1
loop_
_atom_site_label
_atom_site_type_symbol
_atom_site_symmetry_multiplicity
_atom_site_Wyckoff_symbol
_atom_site_fract_x
_atom_site_fract_y
_atom_site_fract_z
_atom_site_B_iso_or_equiv
_atom_site_occupancy
_atom_site_attached_hydrogens
Zn1 Zn2+ 6 f 1. 0.34416(2) 0.75 0.00986(4) 1 0
O1 O2- 2 a 1. 0. 0.75 0.0118(2) 1 0
O2 O2- 4 d 0.6667 0.3333 0.70158(7) 0.00781(13) 1 0
S1 S4+ 4 d 0.6667 0.3333 0.94189(2) 0.00720(5) 1 0
O3 O2- 12 g 0.84551(12) 0.23947(12) 0.89559(4) 0.01087(9) 1 0
Na1 Na1+ 2 b 1. 0. 0.5 0.0188(2) 1 0
H1 H1+ 4 c 1. 0. 0.6843(8) 0.034(17) 0.5 0
H2 H1+ 4 d 0.6667 0.3333 0.6369(7) 0.026(7) 1 0
loop_
_atom_site_aniso_label
_atom_site_aniso_type_symbol
_atom_site_aniso_U_11
_atom_site_aniso_U_22
_atom_site_aniso_U_33
_atom_site_aniso_U_12
_atom_site_aniso_U_13
_atom_site_aniso_U_23
Zn1 Zn2+ 0.00580(5) 0.00628(4) 0.01736(7) 0.00290(2) 0.00041(4) 0.00020(2)
O1 O2- 0.0073(3) 0.0073(3) 0.0208(6) 0.00366(13) 0. 0.
O2 O2- 0.00763(18) 0.00763(18) 0.0082(3) 0.00381(9) 0. 0.
S1 S4+ 0.00745(7) 0.00745(7) 0.00671(10) 0.00373(3) 0. 0.
O3 O2- 0.0117(2) 0.0136(2) 0.0109(2) 0.00908(17) 0.00172(17) 0.00142(18)
Na1 Na1+ 0.00925(19) 0.00925(19) 0.0378(6) 0.00463(10) 0. 0.
#End of TTdata_240683-ICSD