
#(C) 2019 by FIZ Karlsruhe - Leibniz Institute for Information Infrastructure.  All rights reserved.
data_240924-ICSD
_database_code_ICSD 240924
_audit_creation_date 2008-08-01
_audit_update_record 2010-08-01
_chemical_name_systematic 'Sodium dimagnesium trivanadate'
_chemical_formula_structural 'Na Mg2 (V3 O10)'
_chemical_formula_sum 'Mg2 Na1 O10 V3'
_chemical_name_structure_type NaMg2V3O10
_exptl_crystal_density_diffrn 3.17
_cell_measurement_temperature 293.
_publ_section_title 'A new sodium dimagnesium trivanadate, Na Mg2 V3 O10'
loop_
_citation_id
_citation_journal_full
_citation_year
_citation_journal_volume
_citation_page_first
_citation_page_last
_citation_journal_id_ASTM
primary 'Acta Crystallographica, Section E: Structure Reports Online' 2008 64
i21 i21 ACSEBH
loop_
_publ_author_name
'Ayed, B.'
'Haddad, A.'
_cell_length_a 6.73690(10)
_cell_length_b 6.75530(10)
_cell_length_c 9.62220(10)
_cell_angle_alpha 104.3250(10)
_cell_angle_beta 100.6040(10)
_cell_angle_gamma 101.6960(10)
_cell_volume 402.63
_cell_formula_units_Z 2
_symmetry_space_group_name_H-M 'P -1'
_symmetry_Int_Tables_number 2
_refine_ls_R_factor_all 0.0329
loop_
_symmetry_equiv_pos_site_id
_symmetry_equiv_pos_as_xyz
1 '-x, -y, -z'
2 'x, y, z'
loop_
_atom_type_symbol
_atom_type_oxidation_number
V5+ 5
Mg2+ 2
Na1+ 1
O2- -2
loop_
_atom_site_label
_atom_site_type_symbol
_atom_site_symmetry_multiplicity
_atom_site_Wyckoff_symbol
_atom_site_fract_x
_atom_site_fract_y
_atom_site_fract_z
_atom_site_B_iso_or_equiv
_atom_site_occupancy
_atom_site_attached_hydrogens
V1 V5+ 2 i 0.11192(10) 0.04819(10) 0.30906(7) 0.00700(18) 1 0
V2 V5+ 2 i 0.23427(10) -0.33675(10) -0.04757(7) 0.00795(18) 1 0
V3 V5+ 2 i -0.22756(10) -0.42610(10) 0.38667(7) 0.00858(19) 1 0
Mg1 Mg2+ 2 i -0.20718(18) -0.18407(18) -0.01815(13) 0.0043(3) 1 0
Mg2 Mg2+ 2 i -0.76019(19) -0.4331(2) 0.29306(14) 0.0098(3) 1 0
Na1 Na1+ 2 i 0.6408(4) 0.0239(3) 0.3640(3) 0.0416(6) 1 0
O1 O2- 2 i 0.0677(4) 0.1930(5) 0.4803(3) 0.0156(6) 1 0
O2 O2- 2 i 0.2277(4) 0.2383(4) 0.2402(3) 0.0118(6) 1 0
O3 O2- 2 i -0.2797(5) -0.6006(5) 0.4778(3) 0.0172(6) 1 0
O4 O2- 2 i -0.1271(4) -0.0914(5) 0.2063(3) 0.0143(6) 1 0
O5 O2- 2 i 0.0972(4) -0.4778(4) -0.2430(3) 0.0118(6) 1 0
O6 O2- 2 i 0.2690(5) -0.1090(5) 0.3424(3) 0.0163(6) 1 0
O7 O2- 2 i 0.2151(4) -0.5009(4) 0.0627(3) 0.0130(6) 1 0
O8 O2- 2 i -0.4437(4) -0.3693(5) 0.3187(3) 0.0159(6) 1 0
O9 O2- 2 i 0.4808(5) -0.2374(5) -0.0409(3) 0.0188(7) 1 0
O10 O2- 2 i 0.1292(4) -0.1322(4) 0.0086(3) 0.0116(5) 1 0
loop_
_atom_site_aniso_label
_atom_site_aniso_type_symbol
_atom_site_aniso_U_11
_atom_site_aniso_U_22
_atom_site_aniso_U_33
_atom_site_aniso_U_12
_atom_site_aniso_U_13
_atom_site_aniso_U_23
V1 V5+ 0.0082(3) 0.0063(3) 0.0071(3) 0.0016(2) 0.0016(2) 0.0034(2)
V2 V5+ 0.0112(3) 0.0072(3) 0.0066(3) 0.0036(2) 0.0021(2) 0.0032(2)
V3 V5+ 0.0110(3) 0.0083(3) 0.0078(3) 0.0031(2) 0.0034(2) 0.0033(2)
Mg1 Mg2+ 0.0063(6) 0.0029(5) 0.0037(6) 0.0009(4) 0.0012(4) 0.0014(4)
Mg2 Mg2+ 0.0104(7) 0.0096(6) 0.0093(6) 0.0022(5) 0.0016(5) 0.0033(5)
Na1 Na1+ 0.0371(13) 0.0245(11) 0.0622(16) 0.0043(9) 0.0221(11) 0.0066(11)
O1 O2- 0.0171(15) 0.0156(14) 0.0122(14) 0.0003(11) 0.0059(11) 0.0020(11)
O2 O2- 0.0143(14) 0.0099(13) 0.0114(13) 0.0023(10) 0.0029(11) 0.0045(11)
O3 O2- 0.0259(16) 0.0128(14) 0.0188(15) 0.0092(12) 0.0101(13) 0.0087(12)
O4 O2- 0.0123(14) 0.0150(14) 0.0136(14) -0.0011(11) 0.0024(11) 0.0053(11)
O5 O2- 0.0140(14) 0.0133(14) 0.0101(13) 0.0054(11) 0.0050(11) 0.0043(11)
O6 O2- 0.0184(15) 0.0149(14) 0.0198(15) 0.0075(11) 0.0059(12) 0.0092(12)
O7 O2- 0.0150(14) 0.0129(14) 0.0124(13) 0.0059(11) 0.0014(11) 0.0057(11)
O8 O2- 0.0124(14) 0.0175(14) 0.0190(15) 0.0051(11) 0.0034(11) 0.0069(12)
O9 O2- 0.0173(16) 0.0167(15) 0.0241(17) 0.0046(12) 0.0073(13) 0.0074(13)
O10 O2- 0.0127(13) 0.0097(13) 0.0142(13) 0.0038(10) 0.0041(11) 0.0054(11)
#End of TTdata_240924-ICSD