
#(C) 2019 by FIZ Karlsruhe - Leibniz Institute for Information Infrastructure.  All rights reserved.
data_240930-ICSD
_database_code_ICSD 240930
_audit_creation_date 2008-08-01
_chemical_name_systematic 'Disodium dicopper(II) undecaoxide tetrasilicate'
_chemical_formula_structural 'Na2 Cu2 (Si4 O11)'
_chemical_formula_sum 'Cu2 Na2 O11 Si4'
_exptl_crystal_density_diffrn 2.96
_cell_measurement_temperature 298.
_publ_section_title

;
The dehydrated copper silicate Na2 [Cu2 Si4 O11]: a three-dimensional
microporous framework with a linear Si-O-Si linkage
;
loop_
_citation_id
_citation_journal_full
_citation_year
_citation_journal_volume
_citation_page_first
_citation_page_last
_citation_journal_id_ASTM
primary 'Acta Crystallographica, Section E: Structure Reports Online' 2008 64
i13 i14 ACSEBH
loop_
_publ_author_name
'Cunha Silva, L.'
'Brandao, P.'
'Rocha, J.'
'Almeida Paz, F.A.'
_cell_length_a 5.190(2)
_cell_length_b 6.299(3)
_cell_length_c 8.196(4)
_cell_angle_alpha 96.390(7)
_cell_angle_beta 97.281(7)
_cell_angle_gamma 100.461(7)
_cell_volume 258.87
_cell_formula_units_Z 1
_symmetry_space_group_name_H-M 'P -1'
_symmetry_Int_Tables_number 2
_refine_ls_R_factor_all 0.0421
loop_
_symmetry_equiv_pos_site_id
_symmetry_equiv_pos_as_xyz
1 '-x, -y, -z'
2 'x, y, z'
loop_
_atom_type_symbol
_atom_type_oxidation_number
Cu2+ 2
Na1+ 1
Si4+ 4
O2- -2
loop_
_atom_site_label
_atom_site_type_symbol
_atom_site_symmetry_multiplicity
_atom_site_Wyckoff_symbol
_atom_site_fract_x
_atom_site_fract_y
_atom_site_fract_z
_atom_site_B_iso_or_equiv
_atom_site_occupancy
_atom_site_attached_hydrogens
Cu1 Cu2+ 2 i 0.70666(10) -0.10891(9) 0.93472(8) 0.0096(3) 1 0
Na1 Na1+ 2 i 0.8700(4) 0.3540(3) 1.1990(3) 0.0235(6) 1 0
Si1 Si4+ 2 i 1.0175(2) 0.1358(2) 0.67930(18) 0.0087(4) 1 0
Si2 Si4+ 2 i 0.5954(3) 0.3456(2) 0.80969(18) 0.0089(4) 1 0
O1 O2- 1 b 1. 0. 0.5 0.0217(13) 1 0
O2 O2- 2 i 1.0064(7) -0.0190(6) 0.8196(5) 0.0127(8) 1 0
O3 O2- 2 i 0.7804(6) 0.2736(6) 0.6719(5) 0.0126(8) 1 0
O4 O2- 2 i 0.2923(6) 0.3209(5) 0.7137(5) 0.0144(8) 1 0
O5 O2- 2 i 0.7200(7) 0.5899(6) 0.8873(5) 0.0170(9) 1 0
O6 O2- 2 i 0.5974(6) 0.1760(5) 0.9452(5) 0.0107(8) 1 0
loop_
_atom_site_aniso_label
_atom_site_aniso_type_symbol
_atom_site_aniso_U_11
_atom_site_aniso_U_22
_atom_site_aniso_U_33
_atom_site_aniso_U_12
_atom_site_aniso_U_13
_atom_site_aniso_U_23
Cu1 Cu2+ 0.0054(4) 0.0083(4) 0.0159(4) 0.0011(2) 0.0051(2) 0.0018(2)
Na1 Na1+ 0.0137(11) 0.0161(12) 0.0396(16) 0.0021(9) 0.0072(10) -0.0030(10)
Si1 Si4+ 0.0048(7) 0.0096(7) 0.0124(8) 0.0018(5) 0.0034(5) 0.0009(5)
Si2 Si4+ 0.0040(6) 0.0078(7) 0.0155(8) 0.0013(5) 0.0042(5) 0.0018(5)
O1 O2- 0.020(3) 0.024(3) 0.021(3) 0.006(2) 0.007(2) -0.006(2)
O2 O2- 0.0078(17) 0.0137(18) 0.018(2) 0.0033(13) 0.0040(14) 0.0045(14)
O3 O2- 0.0057(16) 0.0169(19) 0.018(2) 0.0068(14) 0.0049(14) 0.0018(14)
O4 O2- 0.0063(16) 0.0140(18) 0.023(2) 0.0017(14) 0.0014(14) 0.0061(15)
O5 O2- 0.0145(18) 0.0100(18) 0.028(2) 0.0000(14) 0.0129(16) 0.0016(15)
O6 O2- 0.0082(16) 0.0111(17) 0.016(2) 0.0039(13) 0.0061(14) 0.0050(14)
#End of TTdata_240930-ICSD