
#(C) 2019 by FIZ Karlsruhe - Leibniz Institute for Information Infrastructure.  All rights reserved.
data_241138-ICSD
_database_code_ICSD 241138
_audit_creation_date 2008-08-01
_chemical_name_systematic 'Trisodium gallium bis(phosphate(V))'
_chemical_formula_structural 'Na3 Ga (P O4)2'
_chemical_formula_sum 'Ga1 Na3 O8 P2'
_exptl_crystal_density_diffrn 3.19
_cell_measurement_temperature 293.
_publ_section_title 'K3 Ga2 (P O4)3 and Na3 Ga (P O4)2'
loop_
_citation_id
_citation_journal_full
_citation_year
_citation_journal_volume
_citation_page_first
_citation_page_last
_citation_journal_id_ASTM
primary 'Acta Crystallographica, Section C: Crystal Structure Communications'
2008 64 i5 i8 ACSCEE
loop_
_publ_author_name
'Beaurain, M.'
'Astier, R.'
'van der Lee, A.'
'Armand, P.'
_cell_length_a 8.8595(3)
_cell_length_b 8.8773(3)
_cell_length_c 9.1972(3)
_cell_angle_alpha 88.970(3)
_cell_angle_beta 70.982(3)
_cell_angle_gamma 87.949(3)
_cell_volume 683.41
_cell_formula_units_Z 4
_symmetry_space_group_name_H-M 'P -1'
_symmetry_Int_Tables_number 2
_refine_ls_R_factor_all 0.0425
loop_
_symmetry_equiv_pos_site_id
_symmetry_equiv_pos_as_xyz
1 '-x, -y, -z'
2 'x, y, z'
loop_
_atom_type_symbol
_atom_type_oxidation_number
P5+ 5
Na1+ 1
Ga3+ 3
O2- -2
loop_
_atom_site_label
_atom_site_type_symbol
_atom_site_symmetry_multiplicity
_atom_site_Wyckoff_symbol
_atom_site_fract_x
_atom_site_fract_y
_atom_site_fract_z
_atom_site_B_iso_or_equiv
_atom_site_occupancy
_atom_site_attached_hydrogens
P1 P5+ 2 i 0.03084(12) 0.09021(12) 0.28901(12) 0.0098 1. 0
P2 P5+ 2 i 0.27862(13) 0.58821(11) 0.01685(12) 0.0086 1. 0
P3 P5+ 2 i 0.53414(13) 0.92663(11) 0.26700(12) 0.0083 1. 0
P4 P5+ 2 i 0.71514(12) 0.58554(11) 0.45404(12) 0.0074 1. 0
Na1 Na1+ 2 i 0.6480(2) 0.2403(2) 0.3250(3) 0.0227 1. 0
Na2 Na1+ 2 i 0.3468(3) 0.2494(2) 0.1318(3) 0.0281 1. 0
Na3 Na1+ 2 i 0.9500(2) 0.4186(2) 0.1820(2) 0.0179 1. 0
Na4 Na1+ 2 i 0.9210(3) 0.8266(3) 0.1086(3) 0.0326 1. 0
Na5 Na1+ 2 i 0.1012(2) 0.6971(2) 0.4142(2) 0.0215 1. 0
Na6 Na1+ 2 i 0.3055(2) 0.9074(2) 0.0695(2) 0.0197 1. 0
Ga1 Ga3+ 2 i 0.48246(6) 0.58319(5) 0.24474(6) 0.0151 1. 0
Ga2 Ga3+ 2 i 0.74886(6) 0.92008(5) 0.48941(6) 0.0109 1. 0
O1 O2- 2 i -0.0390(4) -0.0657(3) 0.3563(4) 0.0149 1. 0
O2 O2- 2 i -0.0964(4) 0.2128(3) 0.3468(4) 0.0138 1. 0
O3 O2- 2 i 0.0960(4) 0.0772(4) 0.1165(4) 0.024 1. 0
O4 O2- 2 i 0.1756(4) 0.1188(5) 0.3420(4) 0.0274 1. 0
O5 O2- 2 i 0.2096(4) 0.4335(4) 0.0419(4) 0.0194 1. 0
O6 O2- 2 i 0.3155(4) 0.6488(4) 0.1577(4) 0.0212 1. 0
O7 O2- 2 i 0.1723(4) 0.7055(4) -0.0273(4) 0.0191 1. 0
O8 O2- 2 i 0.4448(4) 0.5810(3) -0.1156(4) 0.0115 1. 0
O9 O2- 2 i 0.3843(4) 0.9157(3) 0.4119(4) 0.0175 1. 0
O10 O2- 2 i 0.5097(4) 1.0435(4) 0.1573(4) 0.0271 1. 0
O11 O2- 2 i 0.5637(5) 0.7718(4) 0.1911(4) 0.0259 1. 0
O12 O2- 2 i 0.6828(4) 0.9619(4) 0.3077(4) 0.0238 1. 0
O13 O2- 2 i 0.6360(4) 0.7371(3) 0.5265(4) 0.0195 1. 0
O14 O2- 2 i 0.6325(5) 0.5215(5) 0.3472(5) 0.0305 1. 0
O15 O2- 2 i 0.6911(5) 0.4724(4) 0.5855(4) 0.0316 1. 0
O16 O2- 2 i 0.8876(5) 0.6046(5) 0.3677(5) 0.0369 1. 0
loop_
_atom_site_aniso_label
_atom_site_aniso_type_symbol
_atom_site_aniso_U_11
_atom_site_aniso_U_22
_atom_site_aniso_U_33
_atom_site_aniso_U_12
_atom_site_aniso_U_13
_atom_site_aniso_U_23
P1 P5+ 0.0062(5) 0.0149(5) 0.0074(5) 0.0020(4) -0.0012(4) 0.0013(4)
P2 P5+ 0.0076(4) 0.0089(4) 0.0103(5) 0.0019(3) -0.0042(4) -0.0038(4)
P3 P5+ 0.0101(5) 0.0063(4) 0.0081(5) 0.0020(3) -0.0025(4) 0.0001(3)
P4 P5+ 0.0089(5) 0.0059(4) 0.0083(5) -0.0014(3) -0.0038(4) -0.0016(3)
Na1 Na1+ 0.0144(9) 0.0139(9) 0.0397(13) -0.0002(7) -0.0091(9) 0.0039(8)
Na2 Na1+ 0.0145(9) 0.0167(10) 0.0484(15) -0.0023(7) -0.0046(10) 0.0147(9)
Na3 Na1+ 0.0147(9) 0.0197(9) 0.0165(9) -0.0030(7) -0.0008(8) -0.0022(7)
Na4 Na1+ 0.0309(12) 0.0505(14) 0.0149(10) 0.0232(11) -0.0074(9) -0.0060(10)
Na5 Na1+ 0.0158(9) 0.0289(10) 0.0220(10) 0.0075(8) -0.0097(8) -0.0104(8)
Na6 Na1+ 0.0169(9) 0.0140(8) 0.0251(11) 0.0007(7) -0.0026(8) -0.0017(7)
Ga1 Ga3+ 0.0190(3) 0.0133(2) 0.0132(3) 0.00296(18) -0.0059(2) -0.00136(18)
Ga2 Ga3+ 0.0094(2) 0.0098(2) 0.0130(2) 0.00012(15) -0.00310(18) -0.00068(16)
O1 O2- 0.0127(15) 0.0101(13) 0.0185(16) -0.0008(11) -0.0003(13) -0.0014(12)
O2 O2- 0.0111(14) 0.0153(14) 0.0145(15) 0.0014(11) -0.0036(12) -0.0060(12)
O3 O2- 0.0243(19) 0.036(2) 0.0077(15) 0.0160(15) -0.0013(14) 0.0003(14)
O4 O2- 0.0129(16) 0.049(2) 0.026(2) -0.0162(15) -0.0140(15) 0.0245(17)
O5 O2- 0.0150(16) 0.0119(15) 0.0273(19) -0.0037(12) -0.0007(14) -0.0027(13)
O6 O2- 0.0172(16) 0.0330(19) 0.0153(16) 0.0136(14) -0.0089(14) -0.0122(14)
O7 O2- 0.0203(17) 0.0182(16) 0.0239(18) 0.0109(13) -0.0149(15) -0.0089(13)
O8 O2- 0.0091(13) 0.0092(13) 0.0143(15) -0.0009(10) -0.0009(12) -0.0060(11)
O9 O2- 0.0190(16) 0.0106(14) 0.0161(16) 0.0044(12) 0.0031(13) 0.0025(12)
O10 O2- 0.0202(18) 0.0259(18) 0.026(2) 0.0097(14) 0.0037(15) 0.0187(15)
O11 O2- 0.035(2) 0.0139(15) 0.0188(18) -0.0107(14) 0.0071(16) -0.0102(13)
O12 O2- 0.0243(18) 0.039(2) 0.0144(17) -0.0195(16) -0.0130(15) 0.0020(14)
O13 O2- 0.0193(16) 0.0078(13) 0.0230(18) -0.0029(12) 0.0051(14) -0.0060(12)
O14 O2- 0.040(2) 0.033(2) 0.029(2) 0.0124(18) -0.0265(19) -0.0161(17)
O15 O2- 0.037(2) 0.0233(18) 0.0217(19) 0.0158(16) 0.0061(17) 0.0116(15)
O16 O2- 0.0129(17) 0.041(2) 0.046(3) -0.0075(16) 0.0070(17) -0.027(2)
#End of TTdata_241138-ICSD