
#(C) 2019 by FIZ Karlsruhe - Leibniz Institute for Information Infrastructure.  All rights reserved.
data_241331-ICSD
_database_code_ICSD 241331
_audit_creation_date 2017-08-01
_chemical_name_systematic 'Sodium nonaholmium hexakis(orthosilicate) dioxide'
_chemical_formula_structural 'Na Ho9 (Si O4)6 O2'
_chemical_formula_sum 'Ho9 Na1 O26 Si6'
_chemical_name_structure_type Apatite#-(HE,P63/m)
_exptl_crystal_density_diffrn 6.8
_publ_section_title

;
Synthesis, structure refinement, and electrical conductivity of sodium holmium
double silicates
;
loop_
_citation_id
_citation_journal_full
_citation_year
_citation_journal_volume
_citation_page_first
_citation_page_last
_citation_journal_id_ASTM
primary 'Inorganic Materials' 2015 51 384 388 INOMAF
loop_
_publ_author_name
'Get'man, E.I.'
'Pasechnik, L.V.'
'Korotina, D.V.'
'Borisova, E.V.'
'Ignatov, A.V.'
'Chebyshev, K.A.'
_cell_length_a 9.335(5)
_cell_length_b 9.335(5)
_cell_length_c 6.764(3)
_cell_angle_alpha 90.
_cell_angle_beta 90.
_cell_angle_gamma 120.
_cell_volume 510.46
_cell_formula_units_Z 1
_symmetry_space_group_name_H-M 'P 63/m'
_symmetry_Int_Tables_number 176
_refine_ls_R_factor_all 0.0538
loop_
_symmetry_equiv_pos_site_id
_symmetry_equiv_pos_as_xyz
1 '-x+y, -x, -z+1/2'
2 '-y, x-y, -z+1/2'
3 'x, y, -z+1/2'
4 'x-y, x, -z'
5 'y, -x+y, -z'
6 '-x, -y, -z'
7 'x-y, x, z+1/2'
8 'y, -x+y, z+1/2'
9 '-x, -y, z+1/2'
10 '-x+y, -x, z'
11 '-y, x-y, z'
12 'x, y, z'
loop_
_atom_type_symbol
_atom_type_oxidation_number
Ho3+ 3
Na1+ 1
Ho3+ 3
Na1+ 1
Si4+ 4
O2- -2
loop_
_atom_site_label
_atom_site_type_symbol
_atom_site_symmetry_multiplicity
_atom_site_Wyckoff_symbol
_atom_site_fract_x
_atom_site_fract_y
_atom_site_fract_z
_atom_site_B_iso_or_equiv
_atom_site_occupancy
_atom_site_attached_hydrogens
Ho1 Ho3+ 4 f 0.6667 0.3333 0.002(2) 1.11468 0.759(5) 0
Na1 Na1+ 4 f 0.6667 0.3333 0.002(2) 1.11468 0.241(5) 0
Ho2 Ho3+ 6 h 0.2328(6) -0.0052(10) 0.25 0.198 0.994(3) 0
Na2 Na1+ 6 h 0.2328(6) -0.0052(10) 0.25 0.198 0.005(3) 0
Si1 Si4+ 6 h 0.392(2) 0.366(3) 0.25 1.005 1. 0
O1 O2- 6 h 0.339(4) 0.523(4) 0.25 1.693 1. 0
O2 O2- 6 h 0.598(5) 0.471(4) 0.25 1.693 1. 0
O3 O2- 12 i 0.316(3) 0.230(2) 0.061(3) 1.693 1. 0
O4 O2- 2 a 0 0 0.25 1.693 1. 0
#End of TTdata_241331-ICSD