
#(C) 2019 by FIZ Karlsruhe - Leibniz Institute for Information Infrastructure.  All rights reserved.
data_241315-ICSD
_database_code_ICSD 241315
_audit_creation_date 2017-08-01
_chemical_name_systematic 'Trisodium phosphorus trisulfide selenide'
_chemical_formula_structural 'Na3 P S3 Se'
_chemical_formula_sum 'Na3 P1 S3 Se1'
_chemical_name_structure_type Na3(PS4)
_exptl_crystal_density_diffrn 2.57
_publ_section_title
'Structural and Na-ion conduction characteristics of Na3 P Sx Se4-x'
loop_
_citation_id
_citation_journal_full
_citation_year
_citation_journal_volume
_citation_page_first
_citation_page_last
_citation_journal_id_ASTM
primary
'Journal of Materials Chemistry A: Materials for Energy and Sustainability' 2016 4 9044 9053 JMCAET
loop_
_publ_author_name
'Bo, Shou-Hang'
'Wang, Yan'
'Ceder, Gerbrand'
_cell_length_a 7.06428(4)
_cell_length_b 7.06428(4)
_cell_length_c 7.13193(6)
_cell_angle_alpha 90.
_cell_angle_beta 90.
_cell_angle_gamma 90.
_cell_volume 355.91
_cell_formula_units_Z 2
_symmetry_space_group_name_H-M 'P -4 21 c'
_symmetry_Int_Tables_number 114
_refine_ls_R_factor_all 0.0861
loop_
_symmetry_equiv_pos_site_id
_symmetry_equiv_pos_as_xyz
1 'y+1/2, x+1/2, z+1/2'
2 'y, -x, -z'
3 '-y+1/2, -x+1/2, z+1/2'
4 '-y, x, -z'
5 'x+1/2, -y+1/2, -z+1/2'
6 '-x, -y, z'
7 '-x+1/2, y+1/2, -z+1/2'
8 'x, y, z'
loop_
_atom_type_symbol
_atom_type_oxidation_number
Na1+ 1
P5+ 5
S2- -2
Se2- -2
loop_
_atom_site_label
_atom_site_type_symbol
_atom_site_symmetry_multiplicity
_atom_site_Wyckoff_symbol
_atom_site_fract_x
_atom_site_fract_y
_atom_site_fract_z
_atom_site_B_iso_or_equiv
_atom_site_occupancy
_atom_site_attached_hydrogens
Na1 Na1+ 4 d 0 0.5 0.0507(3) 5.07(6) 1. 0
Na2 Na1+ 2 b 0 0 0.5 5.3(1) 1. 0
P1 P5+ 2 a 0 0 0 1.43(3) 1. 0
S1 S2- 8 e 0.1851(1) 0.1607(1) 0.1689(1) 4.96(5) 0.75 0
Se1 Se2- 8 e 0.1851(1) 0.1607(1) 0.1689(1) 4.96(5) 0.25 0
#End of TTdata_241315-ICSD