
#(C) 2019 by FIZ Karlsruhe - Leibniz Institute for Information Infrastructure.  All rights reserved.
data_241547-ICSD
_database_code_ICSD 241547
_audit_creation_date 2017-08-01
_chemical_name_systematic 'Pentasodium hexaoxoplutonate(VII)'
_chemical_formula_structural 'Na5 Pu O6'
_chemical_formula_sum 'Na5 O6 Pu1'
_chemical_name_structure_type Li5ReO6
_exptl_crystal_density_diffrn 4.84
_publ_section_title

;
Synthesis and crystal structure investigations of ternary oxides in the
Na-Pu-O system
;
loop_
_citation_id
_citation_journal_full
_citation_year
_citation_journal_volume
_citation_page_first
_citation_page_last
_citation_journal_id_ASTM
primary 'Journal of Nuclear Materials' 2015 457 54 62 JNUMAM
loop_
_publ_author_name
'Bykov, D.M.'
'Raison, P.E.'
'Konings, R.J.M.'
'Apostolidis, C.'
'Orlova, M.'
_cell_length_a 5.81568(781)
_cell_length_b 9.97999(1129)
_cell_length_c 5.74659(772)
_cell_angle_alpha 90
_cell_angle_beta 110.7630(601)
_cell_angle_gamma 90
_cell_volume 311.88
_cell_formula_units_Z 2
_symmetry_space_group_name_H-M 'C 1 2/m 1'
_symmetry_Int_Tables_number 12
_refine_ls_R_factor_all 0.0256
loop_
_symmetry_equiv_pos_site_id
_symmetry_equiv_pos_as_xyz
1 '-x, y, -z'
2 '-x, -y, -z'
3 'x, -y, z'
4 'x, y, z'
5 '-x+1/2, y+1/2, -z'
6 '-x+1/2, -y+1/2, -z'
7 'x+1/2, -y+1/2, z'
8 'x+1/2, y+1/2, z'
loop_
_atom_type_symbol
_atom_type_oxidation_number
Na1+ 1
Pu7+ 7
O2- -2
loop_
_atom_site_label
_atom_site_type_symbol
_atom_site_symmetry_multiplicity
_atom_site_Wyckoff_symbol
_atom_site_fract_x
_atom_site_fract_y
_atom_site_fract_z
_atom_site_B_iso_or_equiv
_atom_site_occupancy
_atom_site_attached_hydrogens
Na1 Na1+ 4 g 0 0.66992 0 0.5 1. 0
Na2 Na1+ 2 d 0 0.5 0.5 0.5 1. 0
Na3 Na1+ 4 h 0.5 0.32503 0.5 0.5 1. 0
Pu1 Pu7+ 2 a 0 0 0 0.376 1. 0
O1 O2- 8 j 0.28012 0.34291 0.75182 2.508 1. 0
O2 O2- 4 i 0.30126 0.5 0.23885 2.508 1. 0
#End of TTdata_241547-ICSD