
#(C) 2019 by FIZ Karlsruhe - Leibniz Institute for Information Infrastructure.  All rights reserved.
data_241672-ICSD
_database_code_ICSD 241672
_audit_creation_date 2017-08-01
_chemical_name_systematic 'Potassium sodium pentafluorooxoniobate(V)'
_chemical_formula_structural 'K Na (Nb O F5)'
_chemical_formula_sum 'F5 K1 Na1 Nb1 O1'
_chemical_name_structure_type KNaSnF6
_exptl_crystal_density_diffrn 3.2
_cell_measurement_temperature 15.
_publ_section_title
'Reconstructive transitions from rotations of rigid heteroanionic polyhedra'
loop_
_citation_id
_citation_journal_full
_citation_year
_citation_journal_volume
_citation_page_first
_citation_page_last
_citation_journal_id_ASTM
primary 'Journal of the American Chemical Society' 2016 138 11882 11889 JACSAT
loop_
_publ_author_name
'Holland, Michael'
'Charles, Nenian'
'Rondinelli, James M.'
'Poeppelmeier, Kenneth R.'
_cell_length_a 11.68570(10)
_cell_length_b 5.87820(10)
_cell_length_c 8.04210(10)
_cell_angle_alpha 90.
_cell_angle_beta 90.
_cell_angle_gamma 90.
_cell_volume 552.41
_cell_formula_units_Z 4
_symmetry_space_group_name_H-M 'P n a 21'
_symmetry_Int_Tables_number 33
_refine_ls_R_factor_all 0.034
loop_
_symmetry_equiv_pos_site_id
_symmetry_equiv_pos_as_xyz
1 'x+1/2, -y+1/2, z'
2 '-x+1/2, y+1/2, z+1/2'
3 '-x, -y, z+1/2'
4 'x, y, z'
loop_
_atom_type_symbol
_atom_type_oxidation_number
Nb5+ 5
F1- -1
K1+ 1
Na1+ 1
F1- -1
O2- -2
loop_
_atom_site_label
_atom_site_type_symbol
_atom_site_symmetry_multiplicity
_atom_site_Wyckoff_symbol
_atom_site_fract_x
_atom_site_fract_y
_atom_site_fract_z
_atom_site_B_iso_or_equiv
_atom_site_occupancy
_atom_site_attached_hydrogens
Nb1 Nb5+ 4 a 0.84648(8) 0.0431(2) 0.58097(18) 0.0054(4) 1 0
F1 F1- 4 a 0.8695(7) 0.152(2) 0.8066(12) 0.009(2) 1 0
F2 F1- 4 a 0.7897(8) 0.343(2) 0.5123(11) 0.014(2) 1 0
F3 F1- 4 a 0.9490(7) -0.218(2) 0.6210(10) 0.014(2) 1 0
F4 F1- 4 a 1.0030(7) 0.215(2) 0.5450(10) 0.012(2) 1 0
K1 K1+ 4 a 0.9632(3) 0.5342(7) 0.3247(4) 0.0106(8) 1 0
Na1 Na1+ 4 a 0.8618(4) 0.0501(12) 0.0752(14) 0.0110(12) 1 0
F5 F1- 4 a 0.8590(8) -0.041(2) 0.3494(13) 0.012(2) 1 0
O1 O2- 4 a 0.7169(8) -0.091(2) 0.6211(12) 0.009(2) 1 0
#End of TTdata_241672-ICSD