
#(C) 2019 by FIZ Karlsruhe - Leibniz Institute for Information Infrastructure.  All rights reserved.
data_241671-ICSD
_database_code_ICSD 241671
_audit_creation_date 2017-08-01
_chemical_name_systematic 'Potassium sodium pentafluorooxoniobate(V)'
_chemical_formula_structural 'K Na (Nb O F5)'
_chemical_formula_sum 'F5 K1 Na1 Nb1 O1'
_chemical_name_structure_type KNaSnF6
_exptl_crystal_density_diffrn 3.16
_cell_measurement_temperature 15.
_publ_section_title
'Reconstructive transitions from rotations of rigid heteroanionic polyhedra'
loop_
_citation_id
_citation_journal_full
_citation_year
_citation_journal_volume
_citation_page_first
_citation_page_last
_citation_journal_id_ASTM
primary 'Journal of the American Chemical Society' 2016 138 11882 11889 JACSAT
loop_
_publ_author_name
'Holland, Michael'
'Charles, Nenian'
'Rondinelli, James M.'
'Poeppelmeier, Kenneth R.'
_cell_length_a 11.77440(10)
_cell_length_b 5.88440(10)
_cell_length_c 8.06790(10)
_cell_angle_alpha 90.
_cell_angle_beta 90.
_cell_angle_gamma 90.
_cell_volume 558.98
_cell_formula_units_Z 4
_symmetry_space_group_name_H-M 'P n a 21'
_symmetry_Int_Tables_number 33
_refine_ls_R_factor_all 0.0463
loop_
_symmetry_equiv_pos_site_id
_symmetry_equiv_pos_as_xyz
1 'x+1/2, -y+1/2, z'
2 '-x+1/2, y+1/2, z+1/2'
3 '-x, -y, z+1/2'
4 'x, y, z'
loop_
_atom_type_symbol
_atom_type_oxidation_number
Nb5+ 5
F1- -1
K1+ 1
Na1+ 1
F1- -1
O2- -2
loop_
_atom_site_label
_atom_site_type_symbol
_atom_site_symmetry_multiplicity
_atom_site_Wyckoff_symbol
_atom_site_fract_x
_atom_site_fract_y
_atom_site_fract_z
_atom_site_B_iso_or_equiv
_atom_site_occupancy
_atom_site_attached_hydrogens
Nb1 Nb5+ 4 a -0.84737(13) -0.0430(3) -0.5814(4) 0.0072(5) 1 0
F1 F1- 4 a -0.8710(11) -0.152(4) -0.814(2) 0.017(3) 1 0
F2 F1- 4 a -0.7894(11) -0.335(3) -0.5184(15) 0.008(3) 1 0
F3 F1- 4 a -0.9518(9) 0.212(3) -0.6214(13) 0.004(3) 1 0
F4 F1- 4 a -1.0031(10) -0.212(3) -0.5497(16) 0.015(4) 1 0
K1 K1+ 4 a -0.9615(4) -0.5326(11) -0.3221(6) 0.0111(11) 1 0
Na1 Na1+ 4 a -0.8629(7) -0.050(2) -0.075(2) 0.0143(19) 1 0
F5 F1- 4 a -0.8607(14) 0.048(4) -0.349(2) 0.025(5) 1 0
O1 O2- 4 a -0.7196(14) 0.093(4) -0.629(2) 0.018(4) 1 0
#End of TTdata_241671-ICSD