
#(C) 2019 by FIZ Karlsruhe - Leibniz Institute for Information Infrastructure.  All rights reserved.
data_242156-ICSD
_database_code_ICSD 242156
_audit_creation_date 2017-08-01
_chemical_name_systematic 'Sodium silicate (6.37/36)'
_chemical_formula_structural 'Na6.37 Si36 O76.26'
_chemical_formula_sum 'Na6.37 O76.26 Si36'
_exptl_crystal_density_diffrn 2.01
_cell_measurement_temperature 423.
_publ_section_title

;
Thermal stability of barrerite and Na-exchanged barrerite: An in situ single
crystal X-ray diffraction study under dry conditions
;
loop_
_citation_id
_citation_journal_full
_citation_year
_citation_journal_volume
_citation_page_first
_citation_page_last
_citation_journal_id_ASTM
primary 'Microporous and Mesoporous Materials' 2016 236 71 78 MIMMFJ
loop_
_publ_author_name
'Cametti, Georgia'
'Armbruster, Thomas'
'Nagashima, Mariko'
_cell_length_a 13.6703(2)
_cell_length_b 17.2196(3)
_cell_length_c 16.7145(3)
_cell_angle_alpha 90
_cell_angle_beta 90.2750(10)
_cell_angle_gamma 90
_cell_volume 3934.49
_cell_formula_units_Z 2
_symmetry_space_group_name_H-M 'A 1 2/m 1'
_symmetry_Int_Tables_number 12
_refine_ls_R_factor_all 0.0441
loop_
_symmetry_equiv_pos_site_id
_symmetry_equiv_pos_as_xyz
1 'x, -y, z'
2 '-x, -y, -z'
3 '-x, y, -z'
4 'x, y, z'
5 'x, -y+1/2, z+1/2'
6 '-x, -y+1/2, -z+1/2'
7 '-x, y+1/2, -z+1/2'
8 'x, y+1/2, z+1/2'
loop_
_atom_type_symbol
_atom_type_oxidation_number
Si4+ 4
O2- -2
Na1+ 1
O2- -2
loop_
_atom_site_label
_atom_site_type_symbol
_atom_site_symmetry_multiplicity
_atom_site_Wyckoff_symbol
_atom_site_fract_x
_atom_site_fract_y
_atom_site_fract_z
_atom_site_B_iso_or_equiv
_atom_site_occupancy
_atom_site_attached_hydrogens
Si1 Si4+ 8 j -0.36604(6) -0.14630(4) -0.36357(4) 0.02264(14) 1 0
Si2 Si4+ 8 j 0.13706(6) -0.27405(5) -0.38550(5) 0.02491(19) 0.945(2) 0
Si3 Si4+ 8 j 0.141(2) -0.3137(15) -0.4447(16) 0.066(7) 0.055(2) 0
Si4 Si4+ 8 j -0.35948(6) -0.30873(4) -0.28317(5) 0.02312(18) 0.920(2) 0
Si5 Si4+ 8 j -0.3532(10) -0.3317(8) -0.3492(8) 0.045(3) 0.080(2) 0
Si6 Si4+ 8 j -0.63984(7) -0.27422(5) -0.38663(5) 0.0265(2) 0.920(2) 0
Si7 Si4+ 8 j -0.6440(13) -0.3118(9) -0.4473(10) 0.056(4) 0.080(2) 0
Si8 Si4+ 8 j -0.14184(6) -0.30886(4) -0.28377(5) 0.02310(18) 0.945(2) 0
Si9 Si4+ 8 j -0.146(2) -0.3372(16) -0.3523(17) 0.067(7) 0.055(2) 0
Si10 Si4+ 8 j -0.13659(6) -0.14606(4) -0.36453(4) 0.02332(14) 1 0
Si11 Si4+ 8 j -0.54611(6) -0.40966(4) -0.30126(5) 0.02470(15) 1 0
Si12 Si4+ 8 j 0.04489(6) -0.41014(4) -0.30058(5) 0.02411(15) 1 0
Si13 Si4+ 4 h -0.5 -0.18054(6) -0.5 0.02209(19) 1 0
Si14 Si4+ 4 g 0. -0.17822(6) -0.5 0.02179(19) 1 0
O1 O2- 8 j -0.451(2) -0.3639(16) -0.4732(17) 0.035(6) 0.080(2) 0
O2 O2- 8 j -0.061(3) -0.356(2) -0.471(2) 0.029(7) 0.055(2) 0
O3 O2- 8 j 0.0731(2) -0.23357(18) -0.4531(2) 0.0623(8) 1 0
O4 O2- 8 j -0.44230(16) -0.12314(12) -0.43721(14) 0.0344(5) 1 0
O5 O2- 8 j -0.5776(2) -0.23475(18) -0.45813(19) 0.0614(8) 1 0
O6 O2- 8 j -0.06206(17) -0.12154(12) -0.44073(14) 0.0344(4) 1 0
O7 O2- 8 j 0.1263(3) -0.22539(19) -0.30372(17) 0.0639(8) 1 0
O8 O2- 8 j -0.37360(16) -0.23994(12) -0.34877(13) 0.0329(4) 1 0
O9 O2- 8 j 0.0996(2) -0.36218(15) -0.37177(16) 0.0521(7) 1 0
O10 O2- 8 j -0.39581(19) -0.09661(13) -0.28369(14) 0.0400(5) 1 0
O11 O2- 8 j -0.3750(3) -0.27615(19) -0.19568(17) 0.0623(8) 1 0
O12 O2- 8 j -0.12733(17) -0.24128(12) -0.34990(13) 0.0341(4) 1 0
O13 O2- 8 j -0.6044(3) -0.36469(16) -0.37297(17) 0.0576(7) 1 0
O14 O2- 8 j -0.10628(18) -0.09508(13) -0.28341(13) 0.0386(5) 1 0
O15 O2- 8 j 0.2462(2) -0.27806(18) -0.42059(19) 0.0617(7) 1 0
O16 O2- 8 j -0.25308(17) -0.12149(12) -0.38436(12) 0.0338(4) 1 0
O17 O2- 8 j -0.06763(18) -0.37995(16) -0.2954(2) 0.0571(7) 1 0
O18 O2- 8 j -0.43468(19) -0.37855(16) -0.2977(2) 0.0605(8) 1 0
O19 O2- 4 i 0.0423(3) -0.5 -0.3303(2) 0.0404(7) 1 0
O20 O2- 4 i -0.5436(3) -0.5 -0.3275(2) 0.0450(9) 1 0
O21 O2- 8 j -0.25068(17) -0.34607(12) -0.29625(14) 0.0390(5) 1 0
Na1 Na1+ 4 i -0.2490(2) 0. -0.28778(16) 0.0454(8) 0.811(8) 0
Na2 Na1+ 4 i 0.0140(4) 0. -0.4882(3) 0.0430(15) 0.437(7) 0
Na3 Na1+ 4 i -0.487(4) 0. -0.500(6) 0.078(8) 0.372(7) 0
Na4 Na1+ 8 j 0.2513(11) -0.2700(12) -0.5455(6) 0.034(4) 0.126(12) 0
Na5 Na1+ 4 i -0.315(3) -0.5 -0.322(3) 0.105(14) 0.147(19) 0
Na6 Na1+ 4 i -0.339(3) -0.5 -0.368(3) 0.1 0.116(12) 0
Na7 Na1+ 4 g 0. -0.375(2) -0.5 0.1 0.119(8) 0
Na8 Na1+ 4 h -0.5 -0.3779(14) -0.5 0.077(9) 0.138(12) 0
Na9 Na1+ 8 j 0.2636(17) -0.2981(12) -0.5530(8) 0.029(6) 0.106(16) 0
Na10 Na1+ 4 i -0.155(3) -0.5 -0.378(3) 0.14(2) 0.16(2) 0
Na11 Na1+ 4 i 0.121(3) -0.5 -0.457(3) 0.087(19) 0.082(13) 0
Na12 Na1+ 4 i -0.621(3) -0.5 -0.454(2) 0.027(18) 0.043(16) 0
Na13 Na1+ 8 j 0.224(4) -0.304(2) -0.5522(17) 0.047(11) 0.061(14) 0
Na14 Na1+ 4 i 0.181(2) -0.5 -0.674(2) 0.104(13) 0.17(2) 0
O22 O2- 4 i -0.348(6) -0.5 -0.522(4) 0.16 0.22(3) 0
O23 O2- 4 i -0.554(3) -0.5 -0.509(3) 0.16 0.253(17) 0
O24 O2- 8 j 0.218(3) -0.566(2) -0.537(2) 0.16 0.180(11) 0
O25 O2- 8 j -0.362(3) -0.412(2) -0.475(3) 0.16 0.174(11) 0
O26 O2- 8 j 0.072(4) -0.540(2) -0.512(3) 0.2 0.192(12) 0
O27 O2- 4 i 0.252(4) -0.5 -0.397(2) 0.2 0.299(17) 0
loop_
_atom_site_aniso_label
_atom_site_aniso_type_symbol
_atom_site_aniso_U_11
_atom_site_aniso_U_22
_atom_site_aniso_U_33
_atom_site_aniso_U_12
_atom_site_aniso_U_13
_atom_site_aniso_U_23
Si1 Si4+ 0.0195(3) 0.0253(3) 0.0232(3) 0.0016(2) -0.0024(2) -0.0003(2)
Si2 Si4+ 0.0192(3) 0.0287(4) 0.0268(4) -0.0004(3) -0.0011(3) 0.0058(3)
Si4 Si4+ 0.0171(3) 0.0244(4) 0.0279(4) -0.0018(3) -0.0003(3) 0.0010(3)
Si6 Si4+ 0.0205(4) 0.0314(4) 0.0277(4) 0.0006(3) 0.0021(3) 0.0064(3)
Si8 Si4+ 0.0179(3) 0.0230(3) 0.0284(4) 0.0017(3) 0.0009(3) 0.0009(3)
Si10 Si4+ 0.0207(3) 0.0245(3) 0.0247(3) 0.0000(2) 0.0022(2) 0.0000(2)
Si11 Si4+ 0.0243(3) 0.0193(3) 0.0306(3) -0.0018(2) 0.0022(3) 0.0002(2)
Si12 Si4+ 0.0237(3) 0.0190(3) 0.0296(3) 0.0018(2) -0.0016(3) 0.0005(2)
Si13 Si4+ 0.0166(4) 0.0226(4) 0.0270(4) 0. 0.0012(3) 0.
Si14 Si4+ 0.0169(4) 0.0211(4) 0.0274(5) 0. -0.0018(3) 0.
O3 O2- 0.0527(17) 0.0698(19) 0.0642(18) 0.0296(15) -0.0077(13) 0.0204(15)
O4 O2- 0.0324(11) 0.0281(9) 0.0426(11) -0.0001(8) -0.0141(9) 0.0003(8)
O5 O2- 0.0567(18) 0.0684(18) 0.0592(17) -0.0316(15) 0.0077(14) 0.0150(14)
O6 O2- 0.0354(11) 0.0249(9) 0.0431(11) 0.0020(8) 0.0116(9) 0.0008(8)
O7 O2- 0.080(2) 0.074(2) 0.0373(14) -0.0161(17) 0.0026(14) -0.0137(13)
O8 O2- 0.0319(10) 0.0292(9) 0.0376(11) 0.0015(8) -0.0039(8) 0.0063(8)
O9 O2- 0.071(2) 0.0381(13) 0.0471(14) -0.0107(12) 0.0078(13) 0.0078(10)
O10 O2- 0.0455(13) 0.0398(12) 0.0348(11) 0.0026(10) 0.0054(9) -0.0089(9)
O11 O2- 0.069(2) 0.082(2) 0.0368(13) 0.0143(16) 0.0021(13) -0.0108(13)
O12 O2- 0.0347(11) 0.0300(10) 0.0378(11) -0.0010(8) 0.0077(9) 0.0065(8)
O13 O2- 0.079(2) 0.0434(14) 0.0507(15) 0.0116(13) -0.0087(14) 0.0090(11)
O14 O2- 0.0449(13) 0.0366(11) 0.0341(11) 0.0002(9) -0.0051(9) -0.0071(8)
O15 O2- 0.0219(10) 0.091(2) 0.0726(18) 0.0026(14) 0.0031(12) 0.0061(15)
O16 O2- 0.0238(9) 0.0398(10) 0.0377(10) 0.0002(9) 0.0007(8) 0.0048(8)
O17 O2- 0.0284(12) 0.0470(14) 0.096(2) 0.0142(11) -0.0004(13) 0.0086(14)
O18 O2- 0.0302(13) 0.0489(15) 0.102(2) -0.0155(11) 0.0011(14) 0.0025(15)
O19 O2- 0.062(2) 0.0219(13) 0.0376(16) 0. -0.0118(15) 0.
O20 O2- 0.069(3) 0.0231(13) 0.0427(17) 0. 0.0194(17) 0.
O21 O2- 0.0229(9) 0.0362(10) 0.0578(13) 0.0000(9) 0.0001(10) 0.0087(9)
Na1 Na1+ 0.0357(13) 0.0318(11) 0.0688(17) 0. -0.0007(12) 0.
Na3 Na1+ 0.09(3) 0.019(2) 0.123(6) 0. -0.07(2) 0.
#End of TTdata_242156-ICSD