
#(C) 2019 by FIZ Karlsruhe - Leibniz Institute for Information Infrastructure.  All rights reserved.
data_242157-ICSD
_database_code_ICSD 242157
_audit_creation_date 2017-08-01
_chemical_name_systematic 'Sodium silicate (6.4/36)'
_chemical_formula_structural 'Na6.4 Si36 O72'
_chemical_formula_sum 'Na6.4 O72 Si36'
_exptl_crystal_density_diffrn 2.05
_cell_measurement_temperature 623.
_publ_section_title

;
Thermal stability of barrerite and Na-exchanged barrerite: An in situ single
crystal X-ray diffraction study under dry conditions
;
loop_
_citation_id
_citation_journal_full
_citation_year
_citation_journal_volume
_citation_page_first
_citation_page_last
_citation_journal_id_ASTM
primary 'Microporous and Mesoporous Materials' 2016 236 71 78 MIMMFJ
loop_
_publ_author_name
'Cametti, Georgia'
'Armbruster, Thomas'
'Nagashima, Mariko'
_cell_length_a 13.6132(10)
_cell_length_b 17.1442(13)
_cell_length_c 16.0105(13)
_cell_angle_alpha 90
_cell_angle_beta 90.229(5)
_cell_angle_gamma 90
_cell_volume 3736.61
_cell_formula_units_Z 2
_symmetry_space_group_name_H-M 'A 1 2/m 1'
_symmetry_Int_Tables_number 12
_refine_ls_R_factor_all 0.0588
loop_
_symmetry_equiv_pos_site_id
_symmetry_equiv_pos_as_xyz
1 'x, -y, z'
2 '-x, -y, -z'
3 '-x, y, -z'
4 'x, y, z'
5 'x, -y+1/2, z+1/2'
6 '-x, -y+1/2, -z+1/2'
7 '-x, y+1/2, -z+1/2'
8 'x, y+1/2, z+1/2'
loop_
_atom_type_symbol
_atom_type_oxidation_number
Si4+ 4
O2- -2
Na1+ 1
loop_
_atom_site_label
_atom_site_type_symbol
_atom_site_symmetry_multiplicity
_atom_site_Wyckoff_symbol
_atom_site_fract_x
_atom_site_fract_y
_atom_site_fract_z
_atom_site_B_iso_or_equiv
_atom_site_occupancy
_atom_site_attached_hydrogens
Si1 Si4+ 8 j -0.36369(7) -0.14047(6) -0.36104(7) 0.0277(2) 1 0
Si2 Si4+ 8 j 0.14802(13) -0.27726(10) -0.39061(10) 0.0314(4) 0.654(3) 0
Si3 Si4+ 8 j 0.1335(2) -0.31348(18) -0.4591(2) 0.0309(7) 0.346(3) 0
Si4 Si4+ 8 j -0.3479(2) -0.30380(18) -0.2878(2) 0.0280(8) 0.327(3) 0
Si5 Si4+ 8 j -0.35599(11) -0.32701(9) -0.35043(10) 0.0283(4) 0.673(3) 0
Si6 Si4+ 8 j -0.6553(3) -0.2776(2) -0.3871(2) 0.0345(8) 0.327(3) 0
Si7 Si4+ 8 j -0.63958(12) -0.31307(10) -0.45956(10) 0.0316(4) 0.673(3) 0
Si8 Si4+ 8 j -0.15147(11) -0.30527(9) -0.28409(10) 0.0259(4) 0.654(3) 0
Si9 Si4+ 8 j -0.1450(2) -0.32837(17) -0.3523(2) 0.0290(7) 0.346(3) 0
Si10 Si4+ 8 j -0.13782(7) -0.14073(6) -0.36181(7) 0.0276(2) 1 0
Si11 Si4+ 8 j -0.54108(8) -0.41032(6) -0.30684(7) 0.0302(2) 1 0
Si12 Si4+ 8 j 0.03865(8) -0.41038(6) -0.30500(7) 0.0291(2) 1 0
Si13 Si4+ 4 h -0.5 -0.17757(8) -0.5 0.0331(3) 1 0
Si14 Si4+ 4 g 0. -0.17517(8) -0.5 0.0308(3) 1 0
O1 O2- 8 j -0.3717(4) -0.3555(3) -0.4461(3) 0.0460(11) 0.673(3) 0
O2 O2- 8 j -0.1232(7) -0.3546(5) -0.4496(5) 0.040(2) 0.346(3) 0
O3 O2- 8 j 0.0749(3) -0.2285(3) -0.4500(3) 0.0713(12) 1 0
O4 O2- 8 j -0.4422(2) -0.11829(17) -0.4358(2) 0.0469(8) 1 0
O5 O2- 8 j -0.5768(3) -0.2296(2) -0.4518(3) 0.0607(10) 1 0
O6 O2- 8 j -0.0610(2) -0.11617(16) -0.4389(2) 0.0435(7) 1 0
O7 O2- 8 j 0.1725(6) -0.2295(4) -0.3065(4) 0.078(2) 0.654(3) 0
O8 O2- 8 j -0.3703(2) -0.23335(17) -0.3428(2) 0.0448(7) 1 0
O9 O2- 8 j 0.0943(4) -0.3645(3) -0.3797(3) 0.0773(14) 1 0
O10 O2- 8 j -0.3905(3) -0.0907(2) -0.2762(2) 0.0545(9) 1 0
O11 O2- 8 j -0.370(2) -0.2867(19) -0.186(2) 0.035(3) 0.094(7) 0
O12 O2- 8 j -0.3176(11) -0.2690(7) -0.1968(8) 0.035(3) 0.230(7) 0
O13 O2- 8 j -0.1290(2) -0.23516(17) -0.3448(2) 0.0431(7) 1 0
O14 O2- 8 j -0.5995(4) -0.3730(3) -0.3852(3) 0.0913(17) 1 0
O15 O2- 8 j -0.1099(3) -0.0889(2) -0.2771(2) 0.0502(8) 1 0
O16 O2- 8 j 0.2458(3) -0.2924(3) -0.4411(3) 0.0707(11) 1 0
O17 O2- 8 j -0.2528(2) -0.11301(17) -0.38385(17) 0.0381(6) 1 0
O18 O2- 8 j -0.0662(3) -0.3701(2) -0.2854(3) 0.0623(11) 1 0
O19 O2- 8 j -0.4380(3) -0.3662(2) -0.2889(2) 0.0567(9) 1 0
O20 O2- 4 i 0.0220(4) -0.5 -0.3366(3) 0.0530(13) 1 0
O21 O2- 4 i -0.5210(5) -0.5 -0.3328(4) 0.0632(17) 1 0
O22 O2- 8 j -0.2505(3) -0.35197(18) -0.3174(2) 0.0524(8) 1 0
Na1 Na1+ 4 i -0.2490(2) 0. -0.27525(19) 0.0478(6) 0.9736 0
Na2 Na1+ 4 i -0.180(3) -0.5 -0.307(2) 0.095(14) 0.148(16) 0
Na3 Na1+ 4 i -0.318(5) -0.5 -0.309(4) 0.12(3) 0.101(17) 0
Na4 Na1+ 4 i -0.4834(6) 0. -0.5164(5) 0.052(3) 0.358(10) 0
Na5 Na1+ 4 g 0. -0.474(2) -0.5 0.24(2) 0.32(2) 0
Na6 Na1+ 4 h -0.5 -0.5323(16) -0.5 0.085(12) 0.18(2) 0
Na7 Na1+ 8 j -0.3458(17) -0.3328(13) -0.1618(14) 0.096(9) 0.162(12) 0
Na8 Na1+ 4 g 0. -0.359(4) -0.5 0.13(4) 0.092(19) 0
Na9 Na1+ 2 b 0. 0. -0.5 0.032(4) 0.36(4) 0
Na10 Na1+ 4 i -0.5586(18) -0.5 -0.5112(11) 0.088(8) 0.28(2) 0
Na11 Na1+ 4 i -0.0289(12) 0. -0.5257(11) 0.044(5) 0.26(2) 0
loop_
_atom_site_aniso_label
_atom_site_aniso_type_symbol
_atom_site_aniso_U_11
_atom_site_aniso_U_22
_atom_site_aniso_U_33
_atom_site_aniso_U_12
_atom_site_aniso_U_13
_atom_site_aniso_U_23
Si1 Si4+ 0.0202(4) 0.0279(4) 0.0349(5) -0.0010(3) -0.0028(4) -0.0041(4)
Si2 Si4+ 0.0307(8) 0.0334(8) 0.0300(8) 0.0027(6) 0.0062(6) 0.0036(6)
Si4 Si4+ 0.0250(15) 0.0270(14) 0.0321(17) -0.0019(11) 0.0040(12) -0.0013(11)
Si5 Si4+ 0.0220(7) 0.0307(7) 0.0321(8) -0.0046(5) -0.0018(6) 0.0028(6)
Si6 Si4+ 0.0320(17) 0.0368(17) 0.0346(18) -0.0025(13) -0.0074(14) 0.0005(13)
Si7 Si4+ 0.0263(7) 0.0388(8) 0.0296(8) -0.0038(6) -0.0008(6) 0.0016(6)
Si8 Si4+ 0.0233(7) 0.0257(7) 0.0289(8) 0.0021(5) -0.0015(6) 0.0001(5)
Si9 Si4+ 0.0238(14) 0.0276(13) 0.0358(16) 0.0040(11) 0.0017(12) 0.0016(11)
Si10 Si4+ 0.0217(4) 0.0273(4) 0.0337(5) 0.0003(4) 0.0009(4) -0.0020(4)
Si11 Si4+ 0.0299(5) 0.0248(4) 0.0360(5) -0.0015(4) 0.0040(4) 0.0017(4)
Si12 Si4+ 0.0282(5) 0.0239(4) 0.0350(5) 0.0006(4) -0.0045(4) 0.0008(4)
Si13 Si4+ 0.0246(7) 0.0242(6) 0.0503(9) 0. -0.0136(6) 0.
Si14 Si4+ 0.0232(7) 0.0246(6) 0.0446(8) 0. 0.0063(6) 0.
O1 O2- 0.053(3) 0.052(3) 0.033(2) 0.002(2) 0.004(2) 0.002(2)
O2 O2- 0.046(5) 0.043(5) 0.032(4) -0.002(4) -0.006(4) 0.002(3)
O3 O2- 0.062(3) 0.074(3) 0.077(3) 0.035(2) -0.003(2) 0.016(2)
O4 O2- 0.0400(17) 0.0316(14) 0.069(2) 0.0009(12) -0.0266(16) -0.0044(14)
O5 O2- 0.059(2) 0.059(2) 0.065(2) -0.0260(18) 0.0015(19) 0.0032(18)
O6 O2- 0.0406(17) 0.0287(13) 0.061(2) -0.0002(12) 0.0203(15) -0.0002(13)
O7 O2- 0.127(7) 0.072(4) 0.033(3) -0.020(4) 0.021(3) -0.020(3)
O8 O2- 0.0429(17) 0.0335(15) 0.058(2) 0.0006(12) -0.0044(15) 0.0044(13)
O9 O2- 0.088(3) 0.063(3) 0.081(3) -0.006(2) 0.026(3) 0.027(2)
O10 O2- 0.060(2) 0.0447(18) 0.059(2) -0.0121(16) 0.0212(18) -0.0179(15)
O13 O2- 0.0442(18) 0.0323(14) 0.0528(19) 0.0006(12) 0.0070(15) 0.0055(13)
O14 O2- 0.091(4) 0.095(4) 0.088(3) -0.011(3) -0.040(3) 0.045(3)
O15 O2- 0.0477(19) 0.0480(18) 0.055(2) 0.0110(14) -0.0213(16) -0.0167(15)
O16 O2- 0.0371(18) 0.097(3) 0.078(3) 0.005(2) 0.006(2) -0.019(2)
O17 O2- 0.0291(13) 0.0474(15) 0.0378(14) -0.0035(13) -0.0039(13) 0.0058(11)
O18 O2- 0.0410(19) 0.061(2) 0.085(3) 0.0217(17) 0.0013(19) 0.017(2)
O19 O2- 0.044(2) 0.062(2) 0.064(2) -0.0247(17) 0.0028(17) 0.0088(18)
O20 O2- 0.077(4) 0.033(2) 0.048(3) 0. -0.029(3) 0.
O21 O2- 0.090(4) 0.032(2) 0.067(3) 0. 0.041(3) 0.
O22 O2- 0.0337(15) 0.0417(15) 0.082(2) -0.0004(14) -0.0043(18) 0.0064(15)
Na1 Na1+ 0.0291(11) 0.0334(11) 0.0808(19) 0. -0.0002(14) 0.
#End of TTdata_242157-ICSD