
#(C) 2019 by FIZ Karlsruhe - Leibniz Institute for Information Infrastructure.  All rights reserved.
data_242244-ICSD
_database_code_ICSD 242244
_audit_creation_date 2017-08-01
_chemical_name_systematic 'Sodium sulfate-water (1/10)'
_chemical_formula_structural 'Na2 S O4 (H2 O)10'
_chemical_formula_sum 'H20 Na2 O14 S1'
_chemical_name_structure_type Na2SO4(H2O)10
_exptl_crystal_density_diffrn 1.48
_cell_measurement_temperature 250.
_publ_section_title

;
Similarities and peculiarities between the crystal structures of the hydrates
of sodium sulfate and selenate
;
loop_
_citation_id
_citation_journal_full
_citation_year
_citation_journal_volume
_citation_page_first
_citation_page_last
_citation_journal_id_ASTM
primary

;
Acta Crystallographica, Section B: Structural Science, Crystal Engineering and
Materials
; 2014 70 714 722 ACSBDA
loop_
_publ_author_name
'Kamburov, Stoyan'
'Schmidt, Horst'
'Voigt, Wolfgang'
'Balarew, Christo'
_cell_length_a 11.467(2)
_cell_length_b 10.3455(12)
_cell_length_c 12.795(2)
_cell_angle_alpha 90
_cell_angle_beta 107.805(15)
_cell_angle_gamma 90
_cell_volume 1445.19
_cell_formula_units_Z 4
_symmetry_space_group_name_H-M 'P 1 21/c 1'
_symmetry_Int_Tables_number 14
_refine_ls_R_factor_all 0.0244
loop_
_symmetry_equiv_pos_site_id
_symmetry_equiv_pos_as_xyz
1 'x, -y+1/2, z+1/2'
2 '-x, -y, -z'
3 '-x, y+1/2, -z+1/2'
4 'x, y, z'
loop_
_atom_type_symbol
_atom_type_oxidation_number
Na1+ 1
S6+ 6
O2- -2
H1+ 1
loop_
_atom_site_label
_atom_site_type_symbol
_atom_site_symmetry_multiplicity
_atom_site_Wyckoff_symbol
_atom_site_fract_x
_atom_site_fract_y
_atom_site_fract_z
_atom_site_B_iso_or_equiv
_atom_site_occupancy
_atom_site_attached_hydrogens
Na1 Na1+ 4 e 0.24416(4) 0.75357(4) -0.01647(4) 0.02840(13) 1 0
Na2 Na1+ 4 e 0.25493(4) 0.88689(4) 0.23914(4) 0.02661(12) 1 0
S1 S6+ 4 e 0.25056(2) 0.14019(2) 0.74135(2) 0.02026(9) 1 0
O1 O2- 4 e 0.11249(9) 0.60955(10) -0.15066(8) 0.0318(2) 1 0
O2 O2- 4 e 0.35382(9) 0.78731(9) -0.14485(8) 0.0293(2) 1 0
O3 O2- 4 e 0.36785(11) 0.56190(10) 0.05530(9) 0.0370(2) 1 0
O4 O2- 4 e 0.11939(11) 0.94226(11) -0.08276(9) 0.0385(2) 1 0
O5 O2- 4 e 0.14467(9) 0.71575(9) 0.12011(8) 0.0296(2) 1 0
O6 O2- 4 e 0.38589(9) 0.88979(10) 0.12104(8) 0.0316(2) 1 0
O7 O2- 4 e 0.13296(11) 1.04628(10) 0.11975(8) 0.0340(2) 1 0
O8 O2- 4 e 0.37671(12) 1.04447(10) 0.36061(9) 0.0348(2) 1 0
O9 O2- 4 e 0.60116(9) 0.84812(10) 0.94565(10) 0.0353(2) 1 0
O10 O2- 4 e 0.89687(10) 0.65267(10) 0.08112(10) 0.0356(2) 1 0
O11 O2- 4 e 0.35703(8) 0.19000(8) 0.82784(7) 0.0324(2) 1 0
O12 O2- 4 e 0.27034(12) 0.00311(11) 0.72349(10) 0.0370(3) 0.85 0
O13 O2- 4 e 0.2221(5) 0.0024(5) 0.7558(5) 0.0208(12) 0.15 0
O14 O2- 4 e 0.14162(11) 0.15529(14) 0.77600(11) 0.0364(3) 0.85 0
O15 O2- 4 e 0.1380(6) 0.2190(6) 0.7448(6) 0.0258(14) 0.15 0
O16 O2- 4 e 0.23706(14) 0.21065(13) 0.63879(12) 0.0325(3) 0.85 0
O17 O2- 4 e 0.2674(8) 0.1601(7) 0.6324(7) 0.0280(16) 0.15 0
H1 H1+ 4 e 0.1077(13) 0.5351(17) -0.1297(13) 0.044(5) 1 0
H2 H1+ 4 e 0.0409(16) 0.6332(14) -0.1826(13) 0.044(5) 1 0
H3 H1+ 4 e 0.3336(15) 0.8570(16) -0.1715(14) 0.046(5) 1 0
H4 H1+ 4 e 0.4228(17) 0.7964(16) -0.1180(14) 0.050(5) 1 0
H5 H1+ 4 e 0.3427(16) 0.5278(18) 0.0916(15) 0.052(6) 1 0
H6 H1+ 4 e 0.435(3) 0.560(3) 0.077(2) 0.145(13) 1 0
H7 H1+ 4 e 0.1340(17) 0.9907(19) -0.1228(16) 0.065(6) 1 0
H8 H1+ 4 e 0.058(3) 0.936(3) -0.100(2) 0.129(12) 1 0
H9 H1+ 4 e 0.1701(15) 0.6442(17) 0.1482(15) 0.050(5) 1 0
H10 H1+ 4 e 0.0741(17) 0.7072(16) 0.1038(14) 0.050(5) 1 0
H11 H1+ 4 e 0.4529(16) 0.8645(15) 0.1419(13) 0.043(5) 1 0
H12 H1+ 4 e 0.3913(14) 0.9659(18) 0.0983(13) 0.053(5) 1 0
H13 H1+ 4 e 0.1539(16) 1.1176(18) 0.1298(14) 0.051(5) 1 0
H14 H1+ 4 e 0.073(3) 1.057(3) 0.118(2) 0.022(8) 0.5 0
H15 H1+ 4 e 0.133(3) 1.008(4) 0.024(3) 0.077(11) 0.5 0
H16 H1+ 4 e 0.436(3) 1.050(3) 0.372(3) 0.033(11) 0.5 0
H17 H1+ 4 e 0.3614(14) 1.1233(17) 0.3500(13) 0.044(5) 1 0
H18 H1+ 4 e 0.356(3) 1.018(3) 0.436(3) 0.068(11) 0.5 0
H19 H1+ 4 e 0.6413(16) 0.7959(17) 0.9194(14) 0.055(5) 1 0
H20 H1+ 4 e 0.6129(16) 0.8376(17) 1.0014(15) 0.049(6) 1 0
H21 H1+ 4 e 0.8743(15) 0.7103(18) 0.1193(15) 0.058(5) 1 0
H22 H1+ 4 e 0.8617(16) 0.6647(17) 0.0288(16) 0.047(6) 1 0
loop_
_atom_site_aniso_label
_atom_site_aniso_type_symbol
_atom_site_aniso_U_11
_atom_site_aniso_U_22
_atom_site_aniso_U_33
_atom_site_aniso_U_12
_atom_site_aniso_U_13
_atom_site_aniso_U_23
Na1 Na1+ 0.0301(3) 0.0298(3) 0.0268(3) -0.00172(19) 0.0109(2) -0.0022(2)
Na2 Na1+ 0.0291(3) 0.0253(2) 0.0254(3) 0.00016(19) 0.0082(2) 0.00041(18)
S1 S6+ 0.02278(15) 0.01809(14) 0.01982(16) -0.00057(11) 0.00638(11) -0.00014(10)
O1 O2- 0.0260(5) 0.0331(5) 0.0343(5) -0.0023(4) 0.0060(4) 0.0015(4)
O2 O2- 0.0264(5) 0.0290(5) 0.0301(5) -0.0020(4) 0.0051(4) 0.0030(4)
O3 O2- 0.0340(6) 0.0412(6) 0.0385(6) 0.0035(4) 0.0152(5) 0.0071(5)
O4 O2- 0.0342(6) 0.0417(6) 0.0426(6) 0.0031(5) 0.0164(5) 0.0103(5)
O5 O2- 0.0254(5) 0.0304(5) 0.0326(5) -0.0015(4) 0.0083(4) 0.0020(4)
O6 O2- 0.0255(5) 0.0329(5) 0.0366(6) 0.0002(4) 0.0098(4) 0.0006(4)
O7 O2- 0.0301(6) 0.0289(5) 0.0403(6) -0.0019(4) 0.0067(4) 0.0004(4)
O8 O2- 0.0338(6) 0.0283(6) 0.0384(6) -0.0003(4) 0.0049(5) 0.0003(4)
O9 O2- 0.0322(5) 0.0428(6) 0.0311(6) 0.0042(4) 0.0100(5) 0.0020(5)
O10 O2- 0.0332(5) 0.0403(6) 0.0313(6) 0.0030(4) 0.0068(5) -0.0001(5)
O11 O2- 0.0286(4) 0.0347(5) 0.0293(5) -0.0023(4) 0.0019(4) -0.0041(4)
O12 O2- 0.0513(8) 0.0202(5) 0.0384(7) 0.0018(5) 0.0123(6) -0.0006(5)
O13 O2- 0.034(3) 0.015(3) 0.021(3) -0.005(2) 0.020(3) -0.002(2)
O14 O2- 0.0284(6) 0.0465(8) 0.0369(8) -0.0010(6) 0.0139(5) -0.0040(6)
O15 O2- 0.023(3) 0.020(3) 0.036(4) 0.010(3) 0.010(3) 0.004(3)
O16 O2- 0.0407(8) 0.0314(8) 0.0254(7) 0.0001(6) 0.0102(6) 0.0060(6)
O17 O2- 0.037(4) 0.027(4) 0.023(3) 0.003(3) 0.013(3) -0.001(3)
#End of TTdata_242244-ICSD