
#(C) 2019 by FIZ Karlsruhe - Leibniz Institute for Information Infrastructure.  All rights reserved.
data_242243-ICSD
_database_code_ICSD 242243
_audit_creation_date 2017-08-01
_chemical_name_systematic 'Sodium sulfate decahydrate'
_chemical_formula_structural 'Na2 S O4 (H2 O)10'
_chemical_formula_sum 'H20 Na2 O14 S1'
_chemical_name_structure_type Na2SO4(H2O)10
_exptl_crystal_density_diffrn 1.48
_cell_measurement_temperature 120.
_publ_section_title

;
Similarities and peculiarities between the crystal structures of the hydrates
of sodium sulfate and selenate
;
loop_
_citation_id
_citation_journal_full
_citation_year
_citation_journal_volume
_citation_page_first
_citation_page_last
_citation_journal_id_ASTM
primary

;
Acta Crystallographica, Section B: Structural Science, Crystal Engineering and
Materials
; 2014 70 714 722 ACSBDA
loop_
_publ_author_name
'Kamburov, Stoyan'
'Schmidt, Horst'
'Voigt, Wolfgang'
'Balarew, Christo'
_cell_length_a 11.470(2)
_cell_length_b 10.3515(12)
_cell_length_c 12.759(2)
_cell_angle_alpha 90.
_cell_angle_beta 107.815(15)
_cell_angle_gamma 90.
_cell_volume 1442.25
_cell_formula_units_Z 4
_symmetry_space_group_name_H-M 'P 1 21/c 1'
_symmetry_Int_Tables_number 14
_refine_ls_R_factor_all 0.0282
loop_
_symmetry_equiv_pos_site_id
_symmetry_equiv_pos_as_xyz
1 'x, -y+1/2, z+1/2'
2 '-x, -y, -z'
3 '-x, y+1/2, -z+1/2'
4 'x, y, z'
loop_
_atom_type_symbol
_atom_type_oxidation_number
S6+ 6
Na1+ 1
O2- -2
H1+ 1
loop_
_atom_site_label
_atom_site_type_symbol
_atom_site_symmetry_multiplicity
_atom_site_Wyckoff_symbol
_atom_site_fract_x
_atom_site_fract_y
_atom_site_fract_z
_atom_site_B_iso_or_equiv
_atom_site_occupancy
_atom_site_attached_hydrogens
S1 S6+ 4 e 0.74847(2) 0.63907(2) 0.75853(2) 0.00790(7) 1 0
Na1 Na1+ 4 e 0.24380(3) 0.75456(4) -0.01838(3) 0.01176(10) 1 0
Na2 Na1+ 4 e 0.25537(3) 0.88729(4) 0.23846(3) 0.01132(10) 1 0
O1 O2- 4 e 0.11388(7) 0.60787(7) -0.15079(6) 0.01386(14) 1 0
O2 O2- 4 e 0.35429(7) 0.78653(7) -0.14593(6) 0.01278(14) 1 0
O3 O2- 4 e 0.11844(7) 0.94304(8) -0.08351(7) 0.01664(15) 1 0
O4 O2- 4 e 0.36884(7) 0.56458(7) 0.05541(6) 0.01573(15) 1 0
O5 O2- 4 e 0.14374(6) 0.71693(7) 0.11880(6) 0.01315(14) 1 0
O6 O2- 4 e 0.38493(7) 0.89065(7) 0.11985(6) 0.01378(14) 1 0
O7 O2- 4 e 0.13273(7) 1.04630(7) 0.11977(6) 0.01487(15) 1 0
O8 O2- 4 e 0.37653(7) 1.04462(7) 0.36125(6) 0.01537(15) 1 0
O9 O2- 4 e 0.60148(7) 0.84796(8) 0.94609(6) 0.01558(15) 1 0
O10 O2- 4 e 0.76428(7) 0.71185(7) 0.86187(5) 0.01399(14) 1 0
O11 O2- 4 e 0.72859(7) 0.50165(7) 0.77807(6) 0.01537(15) 1 0
O12 O2- 4 e 0.64134(6) 0.69033(7) 0.67169(5) 0.01296(14) 1 0
O13 O2- 4 e 0.85903(6) 0.65299(7) 0.72295(6) 0.01451(15) 1 0
O14 O2- 4 e 0.89589(7) 0.65373(7) 0.08166(6) 0.01542(15) 1 0
H1 H1+ 4 e 0.0412(16) 0.6308(15) -0.1784(14) 0.024(4) 1 0
H2 H1+ 4 e 0.1113(14) 0.5288(17) -0.1298(13) 0.025(4) 1 0
H3 H1+ 4 e 0.3337(14) 0.8551(15) -0.1742(13) 0.016(3) 1 0
H4 H1+ 4 e 0.4254(18) 0.7955(18) -0.1197(15) 0.036(5) 1 0
H5 H1+ 4 e 0.1311(18) 0.994(2) -0.1234(18) 0.046(5) 1 0
H6 H1+ 4 e 0.128(3) 0.974(3) -0.021(3) 0.095(9) 1 0
H7 H1+ 4 e 0.3394(18) 0.5304(19) 0.0953(17) 0.043(5) 1 0
H8 H1+ 4 e 0.436(3) 0.559(3) 0.075(3) 0.108(11) 1 0
H9 H1+ 4 e 0.1689(15) 0.6481(16) 0.1485(14) 0.022(4) 1 0
H10 H1+ 4 e 0.0704(17) 0.7056(16) 0.1020(14) 0.028(4) 1 0
H11 H1+ 4 e 0.3923(14) 0.9687(18) 0.1026(13) 0.028(4) 1 0
H12 H1+ 4 e 0.4553(16) 0.8617(15) 0.1447(14) 0.023(4) 1 0
H13 H1+ 4 e 0.066(3) 1.055(3) 0.112(3) 0.116(12) 1 0
H14 H1+ 4 e 0.1626(17) 1.1247(18) 0.1270(15) 0.033(4) 1 0
H15 H1+ 4 e 0.3607(15) 1.1274(17) 0.3469(14) 0.028(4) 1 0
H16 H1+ 4 e 0.364(3) 1.023(3) 0.418(3) 0.113(11) 1 0
H17 H1+ 4 e 0.6453(15) 0.7976(16) 0.9223(14) 0.025(4) 1 0
H18 H1+ 4 e 0.6182(19) 0.836(2) 1.0070(18) 0.048(6) 1 0
H19 H1+ 4 e 0.8728(15) 0.7114(17) 0.1198(14) 0.030(4) 1 0
H20 H1+ 4 e 0.8565(16) 0.6694(17) 0.0194(16) 0.033(4) 1 0
loop_
_atom_site_aniso_label
_atom_site_aniso_type_symbol
_atom_site_aniso_U_11
_atom_site_aniso_U_22
_atom_site_aniso_U_33
_atom_site_aniso_U_12
_atom_site_aniso_U_13
_atom_site_aniso_U_23
S1 S6+ 0.00917(11) 0.00747(11) 0.00655(11) 0.00007(6) 0.00164(8) -0.00012(6)
Na1 Na1+ 0.01328(18) 0.01242(19) 0.00947(18) -0.00044(14) 0.00330(13)
-0.00052(13)
Na2 Na1+ 0.01297(19) 0.01106(19) 0.00955(18) 0.00027(13) 0.00288(14) 0.00005(13)
O1 O2- 0.0116(3) 0.0147(3) 0.0139(3) -0.0007(3) 0.0018(2) 0.0007(3)
O2 O2- 0.0119(3) 0.0124(3) 0.0124(3) -0.0010(2) 0.0012(2) 0.0017(2)
O3 O2- 0.0175(3) 0.0167(4) 0.0171(3) 0.0014(3) 0.0072(3) 0.0038(3)
O4 O2- 0.0146(3) 0.0182(4) 0.0155(3) 0.0013(3) 0.0062(3) 0.0022(3)
O5 O2- 0.0118(3) 0.0130(3) 0.0139(3) -0.0004(2) 0.0028(2) 0.0012(2)
O6 O2- 0.0119(3) 0.0141(3) 0.0148(3) 0.0003(2) 0.0033(3) 0.0002(3)
O7 O2- 0.0137(3) 0.0133(3) 0.0162(3) -0.0013(3) 0.0025(3) 0.0007(2)
O8 O2- 0.0167(3) 0.0134(3) 0.0140(3) 0.0001(3) 0.0018(3) 0.0003(2)
O9 O2- 0.0142(3) 0.0194(4) 0.0129(3) 0.0020(3) 0.0037(3) 0.0009(3)
O10 O2- 0.0186(3) 0.0134(3) 0.0095(3) -0.0005(3) 0.0036(2) -0.0032(2)
O11 O2- 0.0223(3) 0.0084(3) 0.0152(3) -0.0014(3) 0.0054(3) 0.0004(2)
O12 O2- 0.0113(3) 0.0145(3) 0.0103(3) 0.0010(2) -0.0009(2) 0.0021(2)
O13 O2- 0.0117(3) 0.0186(3) 0.0142(3) 0.0005(2) 0.0053(3) 0.0014(3)
O14 O2- 0.0158(3) 0.0169(3) 0.0123(3) 0.0012(3) 0.0025(3) -0.0002(3)
#End of TTdata_242243-ICSD