
#(C) 2019 by FIZ Karlsruhe - Leibniz Institute for Information Infrastructure.  All rights reserved.
data_242275-ICSD
_database_code_ICSD 242275
_audit_creation_date 2017-08-01
_chemical_name_systematic 'Disodium trizinc tetrakis(selenate(IV))'
_chemical_formula_structural 'Na2 Zn3 (Se O3)4'
_chemical_formula_sum 'Na2 O12 Se4 Zn3'
_exptl_crystal_density_diffrn 4.19
_cell_measurement_temperature 293.
_publ_section_title

;
Variable dimensionality and framework found in a series of quaternary zinc
selenites, A2Zn3(SeO3)4.xH2O (A = Na, Rb, and Cs; 0<=x<=1) and
Cs2Zn2(SeO3)3.2H2O
;
loop_
_citation_id
_citation_journal_full
_citation_year
_citation_journal_volume
_citation_page_first
_citation_page_last
_citation_journal_id_ASTM
primary 'Journal of Solid State Chemistry' 2017 245 1 9 JSSCBI
loop_
_publ_author_name
'Lue, Minfeng'
'Jo, Hongil'
'Oh, Seung-Jin'
'Ok, Kang Min'
_cell_length_a 12.1410(6)
_cell_length_b 6.7307(2)
_cell_length_c 14.5517(5)
_cell_angle_alpha 90
_cell_angle_beta 90.174(4)
_cell_angle_gamma 90
_cell_volume 1189.12
_cell_formula_units_Z 4
_symmetry_space_group_name_H-M 'C 1 2/c 1'
_symmetry_Int_Tables_number 15
_refine_ls_R_factor_all 0.0238
loop_
_symmetry_equiv_pos_site_id
_symmetry_equiv_pos_as_xyz
1 'x, -y, z+1/2'
2 '-x, -y, -z'
3 '-x, y, -z+1/2'
4 'x, y, z'
5 'x+1/2, -y+1/2, z+1/2'
6 '-x+1/2, -y+1/2, -z'
7 '-x+1/2, y+1/2, -z+1/2'
8 'x+1/2, y+1/2, z'
loop_
_atom_type_symbol
_atom_type_oxidation_number
Na1+ 1
Zn2+ 2
Se4+ 4
O2- -2
loop_
_atom_site_label
_atom_site_type_symbol
_atom_site_symmetry_multiplicity
_atom_site_Wyckoff_symbol
_atom_site_fract_x
_atom_site_fract_y
_atom_site_fract_z
_atom_site_B_iso_or_equiv
_atom_site_occupancy
_atom_site_attached_hydrogens
Na1 Na1+ 8 f 0.87263(14) 0.3655(2) 0.03697(12) 0.0239(5) 1 0
Zn1 Zn2+ 4 e 0.5 -0.22009(10) 0.25 0.0175(2) 1 0
Zn2 Zn2+ 8 f 0.50498(4) 0.31727(7) 0.36775(3) 0.01901(15) 1 0
Se1 Se4+ 8 f 0.68212(3) 0.10610(6) 0.23147(3) 0.01590(12) 1 0
Se2 Se4+ 8 f 0.63916(3) 0.32963(6) 0.56807(3) 0.01499(12) 1 0
O1 O2- 8 f 0.6694(2) 0.5513(4) 0.5275(2) 0.0268(7) 1 0
O2 O2- 8 f 0.6312(2) -0.0825(4) 0.29710(19) 0.0183(6) 1 0
O3 O2- 8 f 0.6000(2) 0.0855(4) 0.1373(2) 0.0231(7) 1 0
O4 O2- 8 f 0.6248(2) 0.3113(4) 0.2776(2) 0.0237(7) 1 0
O5 O2- 8 f 0.5703(2) 0.2133(4) 0.4828(2) 0.0202(6) 1 0
O6 O2- 8 f 0.4714(2) 0.6070(4) 0.36027(20) 0.0182(6) 1 0
loop_
_atom_site_aniso_label
_atom_site_aniso_type_symbol
_atom_site_aniso_U_11
_atom_site_aniso_U_22
_atom_site_aniso_U_33
_atom_site_aniso_U_12
_atom_site_aniso_U_13
_atom_site_aniso_U_23
Na1 Na1+ 0.0261(9) 0.0227(9) 0.0230(10) 0.0002(7) 0.0029(8) -0.0030(8)
Zn1 Zn2+ 0.0178(3) 0.0205(4) 0.0142(4) 0 -0.0002(3) 0
Zn2 Zn2+ 0.0248(3) 0.0146(2) 0.0176(3) -0.0005(2) 0.0014(2) 0.0012(2)
Se1 Se4+ 0.0140(2) 0.0145(2) 0.0192(2) -0.00012(16) 0.00134(16) 0.00065(17)
Se2 Se4+ 0.0143(2) 0.0149(2) 0.0157(2) 0.00090(16) -0.00022(16) 0.00052(16)
#End of TTdata_242275-ICSD