
#(C) 2019 by FIZ Karlsruhe - Leibniz Institute for Information Infrastructure.  All rights reserved.
data_242242-ICSD
_database_code_ICSD 242242
_audit_creation_date 2017-08-01
_chemical_name_systematic 'Sodium sulfate(VI) heptahydrate'
_chemical_formula_structural 'Na2 S O4 (H2 O)7'
_chemical_formula_sum 'H14 Na2 O11 S1'
_exptl_crystal_density_diffrn 1.56
_cell_measurement_temperature 120.
_publ_section_title

;
Similarities and peculiarities between the crystal structures of the hydrates
of sodium sulfate and selenate
;
loop_
_citation_id
_citation_journal_full
_citation_year
_citation_journal_volume
_citation_page_first
_citation_page_last
_citation_journal_id_ASTM
primary

;
Acta Crystallographica, Section B: Structural Science, Crystal Engineering and
Materials
; 2014 70 714 722 ACSBDA
loop_
_publ_author_name
'Kamburov, Stoyan'
'Schmidt, Horst'
'Voigt, Wolfgang'
'Balarew, Christo'
_cell_length_a 14.3249(15)
_cell_length_b 14.3249(15)
_cell_length_c 22.202(4)
_cell_angle_alpha 90.
_cell_angle_beta 90.
_cell_angle_gamma 90.
_cell_volume 4555.91
_cell_formula_units_Z 16
_symmetry_space_group_name_H-M 'P 41 21 2'
_symmetry_Int_Tables_number 92
_refine_ls_R_factor_all 0.028
loop_
_symmetry_equiv_pos_site_id
_symmetry_equiv_pos_as_xyz
1 'x+1/2, -y+1/2, -z+3/4'
2 '-x+1/2, y+1/2, -z+1/4'
3 '-y, -x, -z+1/2'
4 'y, x, -z'
5 'y+1/2, -x+1/2, z+3/4'
6 '-y+1/2, x+1/2, z+1/4'
7 '-x, -y, z+1/2'
8 'x, y, z'
loop_
_atom_type_symbol
_atom_type_oxidation_number
Na1+ 1
S6+ 6
O2- -2
H1+ 1
O2- -2
H1+ 1
O2- -2
H1+ 1
O2- -2
H1+ 1
O2- -2
H1+ 1
O2- -2
H1+ 1
O2- -2
H1+ 1
O2- -2
H1+ 1
O2- -2
H1+ 1
O2- -2
H1+ 1
O2- -2
H1+ 1
O2- -2
H1+ 1
O2- -2
H1+ 1
O2- -2
H1+ 1
O2- -2
H1+ 1
O2- -2
loop_
_atom_site_label
_atom_site_type_symbol
_atom_site_symmetry_multiplicity
_atom_site_Wyckoff_symbol
_atom_site_fract_x
_atom_site_fract_y
_atom_site_fract_z
_atom_site_B_iso_or_equiv
_atom_site_occupancy
_atom_site_attached_hydrogens
Na1 Na1+ 8 b 0.61239(11) 0.62755(10) 0.11347(9) 0.0113(3) 1 0
Na2 Na1+ 8 b 0.86243(11) 0.62747(10) 0.13653(9) 0.0110(3) 1 0
Na3 Na1+ 8 b 1.11223(11) 0.62209(10) 0.11353(9) 0.0112(3) 1 0
Na4 Na1+ 8 b 1.36229(11) 0.62337(10) 0.13648(10) 0.0112(3) 1 0
S1 S6+ 4 a 0.37372(7) 0.37372(7) 1. 0.0068(3) 1 0
S2 S6+ 4 a 0.87743(7) 0.87743(7) 0. 0.0052(3) 1 0
S3 S6+ 8 b 0.37736(6) 0.87374(7) -0.00020(8) 0.00575(13) 1 0
O1 O2- 8 b 0.9621(2) 0.87792(16) 0.03787(15) 0.0122(6) 1 0
O2 O2- 8 b 0.7929(2) 0.87552(16) 0.03841(15) 0.0116(6) 1 0
O3 O2- 8 b 0.7385(2) 0.7428(2) 0.12626(12) 0.0130(5) 1 0
H1 H1+ 8 b 0.749(2) 0.776(2) 0.0967(10) 0.016 1 0
H2 H1+ 8 b 0.738(3) 0.773(2) 0.1568(10) 0.016 1 0
O4 O2- 8 b 0.9906(2) 0.73588(19) 0.12342(14) 0.0108(5) 1 0
H3 H1+ 8 b 1.015(2) 0.761(2) 0.1515(12) 0.013 1 0
H4 H1+ 8 b 0.976(2) 0.777(2) 0.1001(12) 0.013 1 0
O5 O2- 8 b 0.84084(17) 0.62624(15) 0.02527(12) 0.0142(5) 1 0
H5 H1+ 8 b 0.868(2) 0.5822(17) 0.0107(19) 0.017 1 0
H6 H1+ 8 b 0.856(2) 0.6728(17) 0.0066(17) 0.017 1 0
O6 O2- 4 a 0.64416(18) 0.64416(18) 0. 0.0168(7) 1 0
H7 H1+ 8 b 0.6967(17) 0.645(2) 0.0096(18) 0.02 1 0
O7 O2- 8 b 0.9846(2) 0.5125(2) 0.12435(16) 0.0141(6) 1 0
H8 H1+ 8 b 0.994(2) 0.477(2) 0.1533(11) 0.017 1 0
H9 H1+ 8 b 0.991(3) 0.481(2) 0.0936(10) 0.017 1 0
O8 O2- 8 b 0.4886(2) 0.5129(2) 0.12318(14) 0.0142(5) 1 0
H10 H1+ 8 b 0.502(3) 0.472(2) 0.1479(13) 0.017 1 0
H11 H1+ 8 b 0.491(3) 0.485(2) 0.0901(10) 0.017 1 0
O9 O2- 8 b 0.7382(2) 0.5172(2) 0.12578(11) 0.0095(5) 1 0
H12 H1+ 8 b 0.754(3) 0.492(2) 0.0951(11) 0.011 1 0
H13 H1+ 8 b 0.721(2) 0.479(2) 0.1499(11) 0.011 1 0
O10 O2- 8 b 0.89422(16) 0.64399(16) 0.25008(14) 0.0149(5) 1 0
H14 H1+ 8 b 0.9453(17) 0.6291(18) 0.244(2) 0.018 1 0
H15 H1+ 8 b 0.8817(19) 0.6962(17) 0.2396(16) 0.018 1 0
O11 O2- 8 b 0.4861(2) 0.7361(2) 0.12468(14) 0.0113(5) 1 0
H16 H1+ 8 b 0.469(2) 0.775(2) 0.1015(12) 0.014 1 0
H17 H1+ 8 b 0.517(2) 0.761(2) 0.1490(13) 0.014 1 0
O12 O2- 4 a 1.39358(19) 0.60642(19) 0.25 0.0183(7) 1 0
H18 H1+ 8 b 1.4488(17) 0.609(2) 0.2395(18) 0.022 1 0
O13 O2- 8 b 1.09071(16) 0.62254(16) 0.22498(11) 0.0140(5) 1 0
H19 H1+ 8 b 1.101(2) 0.576(2) 0.2476(18) 0.017 1 0
H20 H1+ 8 b 1.120(2) 0.665(2) 0.248(2) 0.017 1 0
O14 O2- 8 b 0.58986(16) 0.62724(16) 0.22466(12) 0.0150(5) 1 0
H21 H1+ 8 b 0.600(2) 0.5792(17) 0.2462(15) 0.018 1 0
H22 H1+ 8 b 0.618(2) 0.6679(18) 0.2445(19) 0.018 1 0
O15 O2- 8 b 1.2366(2) 0.7329(2) 0.12545(12) 0.0146(6) 1 0
H23 H1+ 8 b 1.233(3) 0.763(2) 0.1564(10) 0.018 1 0
H24 H1+ 8 b 1.244(2) 0.765(2) 0.0959(10) 0.018 1 0
O16 O2- 8 b 1.34020(17) 0.62341(16) 0.02522(12) 0.0155(5) 1 0
H25 H1+ 8 b 1.354(2) 0.6708(17) 0.0060(17) 0.019 1 0
H26 H1+ 8 b 1.368(2) 0.5805(18) 0.009(2) 0.019 1 0
O17 O2- 8 b 1.2396(2) 0.5106(2) 0.12675(11) 0.0108(6) 1 0
H27 H1+ 8 b 1.222(2) 0.471(2) 0.1501(11) 0.013 1 0
H28 H1+ 8 b 1.257(3) 0.487(2) 0.0974(11) 0.013 1 0
O18 O2- 8 b 0.2922(2) 0.86527(18) 0.03800(14) 0.0098(5) 1 0
O19 O2- 8 b 0.38331(17) 0.7888(2) -0.03822(14) 0.0096(6) 1 0
O20 O2- 8 b 0.4615(2) 0.88116(17) 0.03838(15) 0.0112(6) 1 0
O21 O2- 8 b 0.37158(17) 0.9581(2) -0.03852(15) 0.0116(6) 1 0
O22 O2- 8 b 0.37269(15) 0.2887(2) 0.96110(14) 0.0091(6) 1 0
O23 O2- 8 b 0.4588(2) 0.37422(16) 1.03840(14) 0.0108(6) 1 0
loop_
_atom_site_aniso_label
_atom_site_aniso_type_symbol
_atom_site_aniso_U_11
_atom_site_aniso_U_22
_atom_site_aniso_U_33
_atom_site_aniso_U_12
_atom_site_aniso_U_13
_atom_site_aniso_U_23
Na1 Na1+ 0.0111(7) 0.0106(7) 0.0123(7) 0.0024(4) 0.0012(6) -0.0001(5)
Na2 Na1+ 0.0102(7) 0.0094(7) 0.0136(8) -0.0011(4) -0.0008(6) -0.0004(5)
Na3 Na1+ 0.0110(7) 0.0109(7) 0.0117(7) 0.0026(4) 0.0013(6) -0.0002(5)
Na4 Na1+ 0.0102(7) 0.0105(7) 0.0130(7) -0.0009(4) -0.0005(6) -0.0001(5)
S1 S6+ 0.0073(4) 0.0073(4) 0.0058(7) 0.0023(3) 0.0002(3) -0.0002(3)
S2 S6+ 0.0054(4) 0.0054(4) 0.0048(6) -0.0003(3) 0.0000(3) 0.0000(3)
S3 S6+ 0.0029(4) 0.0091(5) 0.0053(2) 0.0009(3) 0.0000(3) 0.0002(3)
O1 O2- 0.0102(13) 0.0145(14) 0.0118(15) -0.0018(8) -0.0034(12) 0.0002(9)
O2 O2- 0.0092(13) 0.0137(14) 0.0120(15) -0.0013(8) 0.0052(13) -0.0007(8)
O3 O2- 0.0198(13) 0.0081(12) 0.0111(10) 0.0015(9) 0.0030(10) -0.0031(9)
O4 O2- 0.0124(13) 0.0068(10) 0.0132(9) 0.0000(9) -0.0049(10) -0.0002(9)
O5 O2- 0.0221(13) 0.0093(11) 0.0112(12) -0.0007(10) 0.0024(9) -0.0016(8)
O6 O2- 0.0184(9) 0.0184(9) 0.0137(15) -0.0012(13) -0.0005(13) 0.0005(13)
O7 O2- 0.0140(14) 0.0127(13) 0.0156(10) -0.0005(8) -0.0044(11) -0.0004(10)
O8 O2- 0.0131(13) 0.0119(13) 0.0174(10) -0.0022(9) -0.0027(10) -0.0020(11)
O9 O2- 0.0188(12) 0.0042(11) 0.0054(9) -0.0003(9) 0.0059(10) 0.0000(8)
O10 O2- 0.0155(10) 0.0125(10) 0.0166(11) 0.0023(6) 0.0013(12) 0.0001(12)
O11 O2- 0.0121(13) 0.0068(10) 0.0148(9) 0.0010(8) -0.0051(10) -0.0004(9)
O12 O2- 0.0187(9) 0.0187(9) 0.0174(16) -0.0021(13) -0.0019(13) -0.0019(13)
O13 O2- 0.0198(13) 0.0100(11) 0.0124(12) 0.0020(10) -0.0027(9) -0.0020(8)
O14 O2- 0.0204(13) 0.0094(11) 0.0153(13) 0.0000(10) -0.0027(9) -0.0019(8)
O15 O2- 0.0183(12) 0.0145(13) 0.0111(11) -0.0025(10) 0.0025(11) -0.0022(10)
O16 O2- 0.0221(13) 0.0105(12) 0.0140(12) -0.0015(10) 0.0041(9) -0.0028(8)
O17 O2- 0.0181(13) 0.0084(12) 0.0058(9) 0.0050(9) 0.0049(10) 0.0005(9)
O18 O2- 0.0071(11) 0.0117(10) 0.0106(13) 0.0014(8) 0.0041(10) 0.0025(9)
O19 O2- 0.0104(11) 0.0092(12) 0.0093(13) 0.0000(8) -0.0006(9) -0.0050(10)
O20 O2- 0.0098(12) 0.0120(12) 0.0118(14) -0.0018(8) -0.0037(11) -0.0019(9)
O21 O2- 0.0150(14) 0.0100(13) 0.0096(14) -0.0016(8) 0.0014(9) 0.0039(11)
O22 O2- 0.0120(13) 0.0074(12) 0.0079(13) 0.0033(7) -0.0027(8) -0.0048(12)
O23 O2- 0.0097(13) 0.0132(13) 0.0096(14) -0.0010(8) -0.0036(12) -0.0032(8)
#End of TTdata_242242-ICSD