
#(C) 2019 by FIZ Karlsruhe - Leibniz Institute for Information Infrastructure.  All rights reserved.
data_24312-ICSD
_database_code_ICSD 24312
_audit_creation_date 1980-01-01
_audit_update_record 2011-02-01
_chemical_name_systematic 'Disodium dimolybdate'
_chemical_formula_structural 'Na2 (Mo2 O7)'
_chemical_formula_sum 'Mo2 Na2 O7'
_chemical_name_structure_type Na2Mo2O7
_exptl_crystal_density_diffrn 3.73
_publ_section_title
'A refinement of the crystal structure of disodium dimolybdate'
loop_
_citation_id
_citation_journal_full
_citation_year
_citation_journal_volume
_citation_page_first
_citation_page_last
_citation_journal_id_ASTM
primary 'Acta Chemica Scandinavica ' 1967 21 499 504 ACSAA4
loop_
_publ_author_name
'Seleborg, M.'
_cell_length_a 7.164(6)
_cell_length_b 11.837(4)
_cell_length_c 14.713(2)
_cell_angle_alpha 90.
_cell_angle_beta 90.
_cell_angle_gamma 90.
_cell_volume 1247.67
_cell_formula_units_Z 8
_symmetry_space_group_name_H-M 'C m c a'
_symmetry_Int_Tables_number 64
_refine_ls_R_factor_all 0.1
loop_
_symmetry_equiv_pos_site_id
_symmetry_equiv_pos_as_xyz
1 '-x, -y+1/2, z+1/2'
2 '-x, y+1/2, -z+1/2'
3 '-x, y, z'
4 '-x, -y, -z'
5 'x, y+1/2, -z+1/2'
6 'x, -y+1/2, z+1/2'
7 'x, -y, -z'
8 'x, y, z'
9 '-x+1/2, -y, z+1/2'
10 '-x+1/2, y, -z+1/2'
11 '-x+1/2, y+1/2, z'
12 '-x+1/2, -y+1/2, -z'
13 'x+1/2, y, -z+1/2'
14 'x+1/2, -y, z+1/2'
15 'x+1/2, -y+1/2, -z'
16 'x+1/2, y+1/2, z'
loop_
_atom_type_symbol
_atom_type_oxidation_number
Na1+ 1
Mo6+ 6
O2- -2
loop_
_atom_site_label
_atom_site_type_symbol
_atom_site_symmetry_multiplicity
_atom_site_Wyckoff_symbol
_atom_site_fract_x
_atom_site_fract_y
_atom_site_fract_z
_atom_site_B_iso_or_equiv
_atom_site_occupancy
_atom_site_attached_hydrogens
Na1 Na1+ 8 f 0 0.3175(14) 0.3436(11) 1.93 1. 0
Na2 Na1+ 8 d 0.2492(35) 0 0 1.38 1. 0
Mo1 Mo6+ 8 e 0.25 0.0818(2) 0.25 0.581 1. 0
Mo2 Mo6+ 8 f 0 0.2463(2) 0.0846(2) 0.719 1. 0
O1 O2- 16 g 0.2000(32) 0.2301(15) 0.1556(12) 1.37 1. 0
O2 O2- 16 g 0.1950(31) 0.4944(15) 0.3363(13) 1.41 1. 0
O3 O2- 8 f 0 0.3582(25) 0.5003(19) 1.66 1. 0
O4 O2- 8 f 0 0.1209(20) 0.2793(16) 0.67 1. 0
O5 O2- 8 f 0 0.3753(24) 0.0326(19) 1.51 1. 0
#End of TTdata_24312-ICSD