
#(C) 2018 by FIZ Karlsruhe - Leibniz Institute for Information Infrastructure.  All rights reserved.
data_243529-ICSD
_database_code_ICSD 243529
_audit_creation_date 2017-08-01
_chemical_name_systematic 'Trilithium gallium bis(orthoborate)'
_chemical_formula_structural 'Li3 Ga (B O3)2'
_chemical_formula_sum 'B2 Ga1 Li3 O6'
_chemical_name_structure_type Li3AlB2O6
_exptl_crystal_density_diffrn 2.96
_cell_measurement_temperature 293.
_publ_section_title 'Crystal structure of Li3Ga(BO3)2'
loop_
_citation_id
_citation_journal_full
_citation_year
_citation_journal_volume
_citation_page_first
_citation_page_last
_citation_journal_id_ASTM
primary 'Acta Crystallographica, Section E: Structure Reports Online' 2017 73
456 458 ACSEBH
loop_
_publ_author_name
'Smith, Robert W.'
'Holman, Darien'
'Villa, Eric M.'
_cell_length_a 4.8731(3)
_cell_length_b 6.2429(4)
_cell_length_c 8.0130(5)
_cell_angle_alpha 73.346(6)
_cell_angle_beta 89.701(5)
_cell_angle_gamma 89.698(5)
_cell_volume 233.54
_cell_formula_units_Z 2
_symmetry_space_group_name_H-M 'P -1'
_symmetry_Int_Tables_number 2
_refine_ls_R_factor_all 0.0279
loop_
_symmetry_equiv_pos_site_id
_symmetry_equiv_pos_as_xyz
1 '-x, -y, -z'
2 'x, y, z'
loop_
_atom_type_symbol
_atom_type_oxidation_number
Ga3+ 3
B3+ 3
O2- -2
Li1+ 1
loop_
_atom_site_label
_atom_site_type_symbol
_atom_site_symmetry_multiplicity
_atom_site_Wyckoff_symbol
_atom_site_fract_x
_atom_site_fract_y
_atom_site_fract_z
_atom_site_B_iso_or_equiv
_atom_site_occupancy
_atom_site_attached_hydrogens
Ga1 Ga3+ 2 i 0.65937(6) 0.22951(4) 0.60906(4) 0.00968(10) 1 0
B1 B3+ 2 i 0.1691(6) 0.0135(5) 0.7454(4) 0.0088(5) 1 0
B2 B3+ 2 i 0.6631(6) 0.5014(5) 0.2489(4) 0.0094(5) 1 0
O1 O2- 2 i 0.3037(4) 0.1391(3) 0.5958(2) 0.0116(4) 1 0
O2 O2- 2 i -0.1202(4) -0.0028(3) 0.7317(2) 0.0101(4) 1 0
O3 O2- 2 i 0.2978(4) -0.0830(3) 0.8955(2) 0.0109(4) 1 0
O4 O2- 2 i 0.7953(4) 0.3547(3) 0.3900(2) 0.0117(4) 1 0
O5 O2- 2 i 0.3833(4) 0.5529(3) 0.2727(2) 0.0100(4) 1 0
O6 O2- 2 i 0.7921(4) 0.5853(3) 0.0967(2) 0.0120(4) 1 0
Li1 Li1+ 2 i 0.1828(10) -0.3717(8) 1.0414(6) 0.0154(10) 1 0
Li2 Li1+ 2 i 1.1645(10) 0.2738(8) 0.3670(6) 0.0143(9) 1 0
Li3 Li1+ 2 i 0.6839(10) 0.8785(8) -0.0399(6) 0.0159(10) 1 0
loop_
_atom_site_aniso_label
_atom_site_aniso_type_symbol
_atom_site_aniso_U_11
_atom_site_aniso_U_22
_atom_site_aniso_U_33
_atom_site_aniso_U_12
_atom_site_aniso_U_13
_atom_site_aniso_U_23
Ga1 Ga3+ 0.00877(15) 0.01034(15) 0.00789(15) -0.00023(10) 0.00130(10)
0.00064(10)
B1 B3+ 0.0103(13) 0.0052(11) 0.0106(12) 0.0008(9) 0.0021(10) -0.0018(10)
B2 B3+ 0.0091(13) 0.0088(12) 0.0095(12) -0.0013(10) 0.0002(10) -0.0013(10)
O1 O2- 0.0098(9) 0.0134(9) 0.0090(8) -0.0028(7) 0.0011(7) 0.0012(7)
O2 O2- 0.0068(8) 0.0105(8) 0.0098(8) 0.0013(6) 0.0002(7) 0.0020(7)
O3 O2- 0.0107(9) 0.0104(8) 0.0094(8) -0.0007(7) -0.0018(7) 0.0008(7)
O4 O2- 0.0110(9) 0.0138(9) 0.0066(8) 0.0017(7) 0.0012(7) 0.0030(7)
O5 O2- 0.0088(9) 0.0102(8) 0.0104(8) 0.0008(7) 0.0013(7) -0.0017(7)
O6 O2- 0.0136(9) 0.0114(9) 0.0088(8) -0.0001(7) 0.0029(7) 0.0005(7)
Li1 Li1+ 0.019(2) 0.013(2) 0.013(2) -0.0038(18) 0.0013(18) -0.0023(18)
Li2 Li1+ 0.012(2) 0.014(2) 0.013(2) -0.0009(17) 0.0008(17) 0.0009(17)
Li3 Li1+ 0.013(2) 0.017(2) 0.015(2) -0.0014(18) 0.0000(18) -0.0016(18)
#End of TTdata_243529-ICSD