
#(C) 2018 by FIZ Karlsruhe - Leibniz Institute for Information Infrastructure.  All rights reserved.
data_243554-ICSD
_database_code_ICSD 243554
_audit_creation_date 2017-08-01
_chemical_name_systematic
'Copper lithium zinc tin sulfide (0.525/1.475/1/1/4) - - CZTS'
_chemical_formula_structural '(Cu0.525 Li1.475) Zn Sn S4'
_chemical_formula_sum 'Cu0.525 Li1.475 S4 Sn1 Zn1'
_exptl_crystal_density_diffrn 3.54
_cell_measurement_temperature 293.
_publ_section_title

;
Substitution of Li for Cu in Cu2ZnSnS4: toward wide band gap absorbers with
low cation disorder for thin film solar cells
;
loop_
_citation_id
_citation_journal_full
_citation_year
_citation_journal_volume
_citation_page_first
_citation_page_last
_citation_journal_id_ASTM
primary 'Inorganic Chemistry' 2017 56 2712 2721 INOCAJ
loop_
_publ_author_name
'Lafond, A.'
'Guillot-Deudon, C.'
'Vidal, J.'
'Paris, M.'
'La, C.'
'Jobic, S.'
_cell_length_a 6.34820(10)
_cell_length_b 6.69140(10)
_cell_length_c 7.8628(2)
_cell_angle_alpha 90
_cell_angle_beta 90.01
_cell_angle_gamma 90
_cell_volume 333.99
_cell_formula_units_Z 2
_symmetry_space_group_name_H-M 'P 1 n 1'
_symmetry_Int_Tables_number 7
_refine_ls_R_factor_all 0.0276
loop_
_symmetry_equiv_pos_site_id
_symmetry_equiv_pos_as_xyz
1 'x+1/2, -y, z+1/2'
2 'x, y, z'
loop_
_atom_type_symbol
_atom_type_oxidation_number
Li1+ 1
Cu1+ 1
Li1+ 1
Cu1+ 1
Zn2+ 2
Sn4+ 4
S2- -2
loop_
_atom_site_label
_atom_site_type_symbol
_atom_site_symmetry_multiplicity
_atom_site_Wyckoff_symbol
_atom_site_fract_x
_atom_site_fract_y
_atom_site_fract_z
_atom_site_B_iso_or_equiv
_atom_site_occupancy
_atom_site_attached_hydrogens
Li1 Li1+ 2 a 0.619(3) 0.1608(7) 0.574(4) 0.018(3) 0.794(4) 0
Cu1 Cu1+ 2 a 0.619(3) 0.1608(7) 0.574(4) 0.018(3) 0.206(4) 0
Li2 Li1+ 2 a 0.1209(19) 0.3344(10) 0.8186(19) 0.022(2) 0.682(5) 0
Cu2 Cu1+ 2 a 0.1209(19) 0.3344(10) 0.8186(19) 0.022(2) 0.318(5) 0
Zn1 Zn2+ 2 a 0.1118(8) 0.3281(3) 0.3148(10) 0.0148(5) 1 0
Sn1 Sn4+ 2 a 0.6113(7) 0.17139(9) 0.0623(10) 0.01221(11) 1 0
S1 S2- 2 a 0.9900(6) 0.1767(3) 0.0662(14) 0.0137(5) 1 0
S2 S2- 2 a 0.9888(6) 0.1665(3) 0.5610(14) 0.0138(5) 1 0
S3 S2- 2 a 0.4899(12) 0.3403(6) 0.8149(11) 0.0149(8) 1 0
S4 S2- 2 a 0.4819(11) 0.3306(6) 0.3150(12) 0.0130(8) 1 0
loop_
_atom_site_aniso_label
_atom_site_aniso_type_symbol
_atom_site_aniso_U_11
_atom_site_aniso_U_22
_atom_site_aniso_U_33
_atom_site_aniso_U_12
_atom_site_aniso_U_13
_atom_site_aniso_U_23
Li1 Li1+ 0.019(3) 0.0197(15) 0.015(7) 0.006(3) -0.003(5) -0.004(3)
Cu1 Cu1+ 0.019(3) 0.0197(15) 0.015(7) 0.006(3) -0.003(5) -0.004(3)
Li2 Li1+ 0.017(4) 0.026(3) 0.023(4) 0.002(2) -0.001(3) 0.003(2)
Cu2 Cu1+ 0.017(4) 0.026(3) 0.023(4) 0.002(2) -0.001(3) 0.003(2)
Zn1 Zn2+ 0.0150(10) 0.0131(6) 0.0164(7) 0.0001(7) 0.0025(14) -0.0008(7)
Sn1 Sn4+ 0.0111(2) 0.01155(17) 0.01400(17) -0.0001(4) 0.0011(6) -0.0002(6)
S1 S2- 0.0119(7) 0.0160(7) 0.0131(11) -0.0012(7) -0.0003(18) -0.0032(17)
S2 S2- 0.0126(8) 0.0113(7) 0.0174(9) 0.0021(7) 0.003(2) 0.000(2)
S3 S2- 0.0174(17) 0.0120(11) 0.0153(15) -0.0009(11) -0.0025(18) 0.0020(14)
S4 S2- 0.0084(15) 0.0152(14) 0.0154(15) -0.0003(11) 0.0007(15) -0.0008(15)
#End of TTdata_243554-ICSD