
#(C) 2019 by FIZ Karlsruhe - Leibniz Institute for Information Infrastructure.  All rights reserved.
data_243558-ICSD
_database_code_ICSD 243558
_audit_creation_date 2017-08-01
_chemical_name_systematic 'Tetrasodium dithorium tritellurate(VI)'
_chemical_formula_structural 'Na4 Th2 Te3 O15'
_chemical_formula_sum 'Na4 O15 Te3 Th2'
_exptl_crystal_density_diffrn 6.12
_cell_measurement_temperature 293.
_publ_section_title
'Thorium chemistry in oxo-tellurium system under extreme conditions'
loop_
_citation_id
_citation_journal_full
_citation_year
_citation_journal_volume
_citation_page_first
_citation_page_last
_citation_journal_id_ASTM
primary 'Inorganic Chemistry' 2017 56 2926 2935 INOCAJ
loop_
_publ_author_name
'Xiao, Bin'
'Kegler, Philip'
'Bosbach, Dirk'
'Alekseev, Evgeny V.'
_cell_length_a 9.9109(3)
_cell_length_b 9.9109(3)
_cell_length_c 45.1306(11)
_cell_angle_alpha 90.
_cell_angle_beta 90.
_cell_angle_gamma 120.
_cell_volume 3839.08
_cell_formula_units_Z 12
_symmetry_space_group_name_H-M 'R -3 c H'
_symmetry_Int_Tables_number 167
_refine_ls_R_factor_all 0.0248
loop_
_symmetry_equiv_pos_site_id
_symmetry_equiv_pos_as_xyz
1 'x-y, -y, -z+1/2'
2 '-x, -x+y, -z+1/2'
3 'y, x, -z+1/2'
4 'x-y, x, -z'
5 'y, -x+y, -z'
6 '-x, -y, -z'
7 '-x+y, y, z+1/2'
8 'x, x-y, z+1/2'
9 '-y, -x, z+1/2'
10 '-x+y, -x, z'
11 '-y, x-y, z'
12 'x, y, z'
13 'x-y+2/3, -y+1/3, -z+5/6'
14 '-x+2/3, -x+y+1/3, -z+5/6'
15 'y+2/3, x+1/3, -z+5/6'
16 'x-y+2/3, x+1/3, -z+1/3'
17 'y+2/3, -x+y+1/3, -z+1/3'
18 '-x+2/3, -y+1/3, -z+1/3'
19 '-x+y+2/3, y+1/3, z+5/6'
20 'x+2/3, x-y+1/3, z+5/6'
21 '-y+2/3, -x+1/3, z+5/6'
22 '-x+y+2/3, -x+1/3, z+1/3'
23 '-y+2/3, x-y+1/3, z+1/3'
24 'x+2/3, y+1/3, z+1/3'
25 'x-y+1/3, -y+2/3, -z+1/6'
26 '-x+1/3, -x+y+2/3, -z+1/6'
27 'y+1/3, x+2/3, -z+1/6'
28 'x-y+1/3, x+2/3, -z+2/3'
29 'y+1/3, -x+y+2/3, -z+2/3'
30 '-x+1/3, -y+2/3, -z+2/3'
31 '-x+y+1/3, y+2/3, z+1/6'
32 'x+1/3, x-y+2/3, z+1/6'
33 '-y+1/3, -x+2/3, z+1/6'
34 '-x+y+1/3, -x+2/3, z+2/3'
35 '-y+1/3, x-y+2/3, z+2/3'
36 'x+1/3, y+2/3, z+2/3'
loop_
_atom_type_symbol
_atom_type_oxidation_number
Th4+ 4
Te6+ 6
O2- -2
Na1+ 1
loop_
_atom_site_label
_atom_site_type_symbol
_atom_site_symmetry_multiplicity
_atom_site_Wyckoff_symbol
_atom_site_fract_x
_atom_site_fract_y
_atom_site_fract_z
_atom_site_B_iso_or_equiv
_atom_site_occupancy
_atom_site_attached_hydrogens
Th1 Th4+ 12 c 0. 0. -0.076215(14) 0.0079(2) 1 0
Th2 Th4+ 12 c 0. 0. -0.158209(14) 0.0064(2) 1 0
Te1 Te6+ 36 f -0.01121(7) -0.35259(7) -0.048240(13) 0.0044(2) 1 0
O1 O2- 18 e 0.1175(10) -0.3333 -0.0833 0.009(2) 1 0
O2 O2- 36 f -0.1404(9) -0.5749(8) -0.05304(15) 0.0072(14) 1 0
O3 O2- 36 f 0.0809(9) -0.1327(8) -0.04540(16) 0.0112(15) 1 0
O4 O2- 18 e -0.1344(10) -0.3333 -0.0833 0.009(2) 1 0
O5 O2- 36 f -0.1497(8) -0.3823(8) -0.01744(15) 0.0103(14) 1 0
O6 O2- 36 f 0.1357(8) -0.3759(8) -0.02590(15) 0.0112(15) 1 0
Na1 Na1+ 36 f 0.0192(5) 0.3444(5) -0.02852(12) 0.0208(11) 1 0
Na2 Na1+ 12 c 0.3333 -0.3333 -0.0707(4) 0.091(6) 1 0
loop_
_atom_site_aniso_label
_atom_site_aniso_type_symbol
_atom_site_aniso_U_11
_atom_site_aniso_U_22
_atom_site_aniso_U_33
_atom_site_aniso_U_12
_atom_site_aniso_U_13
_atom_site_aniso_U_23
Th1 Th4+ 0.0086(3) 0.0086(3) 0.0065(4) 0.00429(14) 0. 0.
Th2 Th4+ 0.0062(3) 0.0062(3) 0.0067(4) 0.00311(14) 0. 0.
Te1 Te6+ 0.0041(3) 0.0043(3) 0.0042(4) 0.0018(3) -0.0001(2) 0.0008(2)
O1 O2- 0.008(3) 0.018(5) 0.005(4) 0.009(3) 0.0011(19) 0.002(4)
O2 O2- 0.008(3) 0.005(3) 0.008(3) 0.003(3) 0.000(3) 0.001(3)
O3 O2- 0.014(4) 0.007(3) 0.011(3) 0.004(3) -0.004(3) 0.003(3)
O4 O2- 0.008(3) 0.014(5) 0.007(5) 0.007(3) 0.001(2) 0.001(4)
O5 O2- 0.012(4) 0.008(3) 0.010(3) 0.005(3) 0.005(3) 0.000(3)
O6 O2- 0.0109(17) 0.0112(17) 0.0113(17) 0.0055(11) -0.0010(10) 0.0001(10)
Na1 Na1+ 0.016(2) 0.016(2) 0.033(3) 0.010(2) -0.008(2) -0.0090(19)
Na2 Na1+ 0.085(7) 0.085(7) 0.102(14) 0.043(4) 0. 0.
#End of TTdata_243558-ICSD