
#(C) 2019 by FIZ Karlsruhe - Leibniz Institute for Information Infrastructure.  All rights reserved.
data_243641-ICSD
_database_code_ICSD 243641
_audit_creation_date 2017-08-01
_chemical_name_systematic 'Trisodium ditin(II) hexafluoride chloride'
_chemical_formula_structural 'Na3 Sn2 F6 Cl'
_chemical_formula_sum 'Cl1 F6 Na3 Sn2'
_exptl_crystal_density_diffrn 3.66
_cell_measurement_temperature 296.
_publ_section_title

;
An alkaline tin(II) halide compound Na3Sn2F6Cl: Synthesis, structure, and
characterization
;
loop_
_citation_id
_citation_journal_full
_citation_year
_citation_journal_volume
_citation_page_first
_citation_page_last
_citation_journal_id_ASTM
primary 'Journal of Solid State Chemistry' 2017 248 104 108 JSSCBI
loop_
_publ_author_name
'Gong, Pifu'
'Luo, Siyang'
'Huang, Qian'
'Yang, Yi'
'Jiang, Xingxing'
'Liang, Fei'
'Chen, Chuangtian'
'Lin, Zheshuai'
_cell_length_a 5.7407(3)
_cell_length_b 5.7407(3)
_cell_length_c 43.503(3)
_cell_angle_alpha 90
_cell_angle_beta 90
_cell_angle_gamma 120
_cell_volume 1241.59
_cell_formula_units_Z 6
_symmetry_space_group_name_H-M 'R -3 c H'
_symmetry_Int_Tables_number 167
_refine_ls_R_factor_all 0.0454
loop_
_symmetry_equiv_pos_site_id
_symmetry_equiv_pos_as_xyz
1 'x-y, -y, -z+1/2'
2 '-x, -x+y, -z+1/2'
3 'y, x, -z+1/2'
4 'x-y, x, -z'
5 'y, -x+y, -z'
6 '-x, -y, -z'
7 '-x+y, y, z+1/2'
8 'x, x-y, z+1/2'
9 '-y, -x, z+1/2'
10 '-x+y, -x, z'
11 '-y, x-y, z'
12 'x, y, z'
13 'x-y+2/3, -y+1/3, -z+5/6'
14 '-x+2/3, -x+y+1/3, -z+5/6'
15 'y+2/3, x+1/3, -z+5/6'
16 'x-y+2/3, x+1/3, -z+1/3'
17 'y+2/3, -x+y+1/3, -z+1/3'
18 '-x+2/3, -y+1/3, -z+1/3'
19 '-x+y+2/3, y+1/3, z+5/6'
20 'x+2/3, x-y+1/3, z+5/6'
21 '-y+2/3, -x+1/3, z+5/6'
22 '-x+y+2/3, -x+1/3, z+1/3'
23 '-y+2/3, x-y+1/3, z+1/3'
24 'x+2/3, y+1/3, z+1/3'
25 'x-y+1/3, -y+2/3, -z+1/6'
26 '-x+1/3, -x+y+2/3, -z+1/6'
27 'y+1/3, x+2/3, -z+1/6'
28 'x-y+1/3, x+2/3, -z+2/3'
29 'y+1/3, -x+y+2/3, -z+2/3'
30 '-x+1/3, -y+2/3, -z+2/3'
31 '-x+y+1/3, y+2/3, z+1/6'
32 'x+1/3, x-y+2/3, z+1/6'
33 '-y+1/3, -x+2/3, z+1/6'
34 '-x+y+1/3, -x+2/3, z+2/3'
35 '-y+1/3, x-y+2/3, z+2/3'
36 'x+1/3, y+2/3, z+2/3'
loop_
_atom_type_symbol
_atom_type_oxidation_number
Sn2+ 2
Cl1- -1
Na1+ 1
F1- -1
loop_
_atom_site_label
_atom_site_type_symbol
_atom_site_symmetry_multiplicity
_atom_site_Wyckoff_symbol
_atom_site_fract_x
_atom_site_fract_y
_atom_site_fract_z
_atom_site_B_iso_or_equiv
_atom_site_occupancy
_atom_site_attached_hydrogens
Sn1 Sn2+ 12 c 0.3333 0.6667 0.55811(2) 0.0158(5) 1 0
Cl1 Cl1- 6 a 0.6667 0.3333 0.5833 0.0339(13) 1 0
Na1 Na1+ 6 b 0. 0. 0.5 0.0169(15) 1 0
Na2 Na1+ 12 c 0.6667 0.3333 0.51845(13) 0.0224(13) 1 0
F1 F1- 36 f 0.2879(6) 0.3757(6) 0.52689(7) 0.0209(8) 1 0
loop_
_atom_site_aniso_label
_atom_site_aniso_type_symbol
_atom_site_aniso_U_11
_atom_site_aniso_U_22
_atom_site_aniso_U_33
_atom_site_aniso_U_12
_atom_site_aniso_U_13
_atom_site_aniso_U_23
Sn1 Sn2+ 0.0179(6) 0.0179(6) 0.0117(7) 0.0089(3) 0. 0.
Cl1 Cl1- 0.0416(19) 0.0416(19) 0.018(3) 0.0208(10) 0. 0.
Na1 Na1+ 0.014(2) 0.014(2) 0.022(4) 0.0072(10) 0. 0.
Na2 Na1+ 0.0245(19) 0.0245(19) 0.018(3) 0.0122(9) 0. 0.
F1 F1- 0.0231(18) 0.0164(16) 0.0241(17) 0.0105(13) -0.0045(13) -0.0060(12)
#End of TTdata_243641-ICSD