
#(C) 2019 by FIZ Karlsruhe - Leibniz Institute for Information Infrastructure.  All rights reserved.
data_24368-ICSD
_database_code_ICSD 24368
_audit_creation_date 1981-12-31
_chemical_name_systematic 'Sodium dithiodihydroxogermanate pentahydrate'
_chemical_formula_structural 'Na2 Ge S2 (O H)2 (H2 O)5'
_chemical_formula_sum 'H12 Ge1 Na2 O7 S2'
_exptl_crystal_density_diffrn 1.94
_publ_section_title

;
Thio-hydroxoanionen des Germaniums: Darstellung, Struktur und Eigenschaften
von Na2 Ge S2 (O H)2 (H2 O)5
;
loop_
_citation_id
_citation_journal_full
_citation_year
_citation_journal_volume
_citation_page_first
_citation_page_last
_citation_journal_id_ASTM
primary

;
Zeitschrift fuer Naturforschung, Teil B: Anorganische Chemie, Organische
Chemie
; 1981 36 1400 1406 ZNBAD2
loop_
_publ_author_name
'Krebs, B.'
'Wallstab, H.J.'
_cell_length_a 10.752(2)
_cell_length_b 13.787(2)
_cell_length_c 14.150(2)
_cell_angle_alpha 90.
_cell_angle_beta 90.
_cell_angle_gamma 90.
_cell_volume 2097.57
_cell_formula_units_Z 8
_symmetry_space_group_name_H-M 'P b c n'
_symmetry_Int_Tables_number 60
_refine_ls_R_factor_all 0.032
loop_
_symmetry_equiv_pos_site_id
_symmetry_equiv_pos_as_xyz
1 'x, -y, z+1/2'
2 '-x+1/2, y+1/2, z'
3 'x+1/2, y+1/2, -z+1/2'
4 '-x, -y, -z'
5 '-x, y, -z+1/2'
6 'x+1/2, -y+1/2, -z'
7 '-x+1/2, -y+1/2, z+1/2'
8 'x, y, z'
loop_
_atom_type_symbol
_atom_type_oxidation_number
Ge4+ 4
S2- -2
O2- -2
Na1+ 1
H1+ 1
loop_
_atom_site_label
_atom_site_type_symbol
_atom_site_symmetry_multiplicity
_atom_site_Wyckoff_symbol
_atom_site_fract_x
_atom_site_fract_y
_atom_site_fract_z
_atom_site_B_iso_or_equiv
_atom_site_occupancy
_atom_site_attached_hydrogens
Ge1 Ge4+ 8 d 0.18623(3) 0.35393(2) 0.35488(2) . 1. 0
S1 S2- 8 d 0.20932(9) 0.29461(7) 0.21545(6) . 1. 0
S2 S2- 8 d 0.22205(9) 0.26823(7) 0.47840(7) . 1. 0
O1 O2- 8 d 0.03593(23) 0.41244(18) 0.36251(18) . 1. 0
O2 O2- 8 d 0.27841(25) 0.46308(20) 0.37008(20) . 1. 0
O3 O2- 8 d 0.47480(33) 0.14531(21) 0.39808(23) . 1. 0
O4 O2- 8 d 0.48623(33) 0.38333(21) 0.51508(23) . 1. 0
O5 O2- 8 d 0.20997(30) 0.57400(25) 0.21628(25) . 1. 0
O6 O2- 8 d 0.24604(49) 0.52712(30) 0.55165(32) . 1. 0
O7 O2- 4 c 0.5 0.36882(33) 0.25 . 1. 0
O8 O2- 4 c 0 0.10755(31) 0.25 . 1. 0
Na1 Na1+ 4 b 0 0.5 0 . 1. 0
Na2 Na1+ 8 d 0.50233(15) 0.48426(11) 0.37666(11) . 1. 0
Na3 Na1+ 4 c 0 0.55191(16) 0.25 . 1. 0
H1 H1+ 8 d -.017(4) 0.375(3) 0.348(3) 2. 1. 0
H2 H1+ 8 d 0.254(4) 0.495(3) 0.324(3) 2.5 1. 0
H3 H1+ 8 d 0.543(6) 0.181(5) 0.427(4) 9. 1. 0
H4 H1+ 8 d 0.418(5) 0.173(4) 0.417(4) 4.1 1. 0
H5 H1+ 8 d 0.543(5) 0.343(3) 0.522(3) 4.1 1. 0
H6 H1+ 8 d 0.422(5) 0.349(3) 0.514(3) 3.5 1. 0
H7 H1+ 8 d 0.221(4) 0.553(3) 0.173(3) 1.7 1. 0
H8 H1+ 8 d 0.222(6) 0.637(4) 0.211(3) 3.9 1. 0
H9 H1+ 8 d 0.253(6) 0.573(5) 0.563(5) 6.9 1. 0
H10 H1+ 8 d 0.258(5) 0.519(4) 0.491(4) 5.7 1. 0
H11 H1+ 8 d 0.436(5) 0.335(4) 0.241(4) 7.3 1. 0
H12 H1+ 8 d 0.058(4) 0.149(3) 0.242(4) 4.1 1. 0
loop_
_atom_site_aniso_label
_atom_site_aniso_type_symbol
_atom_site_aniso_B_11
_atom_site_aniso_B_22
_atom_site_aniso_B_33
_atom_site_aniso_B_12
_atom_site_aniso_B_13
_atom_site_aniso_B_23
Ge1 Ge4+ 1.19(1) 1.57(1) 1.55(1) 0.07(1) -.05(1) -.02(1)
S1 S2- 2.19(4) 2.08(3) 1.69(3) 0.52(2) 0.05(3) -.31(3)
S2 S2- 1.96(4) 2.17(4) 2.18(4) -.04(3) -.16(3) 0.70(3)
O1 O2- 1.47(9) 2.01(9) 2.13(11) 0.16(8) -.13(9) -.46(9)
O2 O2- 1.91(11) 1.81(10) 2.31(9) -.28(8) -.53(9) 0.34(9)
O3 O2- 2.86(14) 2.93(13) 3.58(14) 0.46(11) -.04(12) -.98(12)
O4 O2- 2.44(13) 2.28(11) 4.19(15) 0.02(9) -.94(12) 0.00(11)
O5 O2- 2.93(14) 2.73(14) 3.05(9) -.58(11) -.39(12) 0.57(12)
O6 O2- 2.32(14) 2.69(14) 3.99(9) -.27(11) -.89(12) -.43(12)
O7 O2- 2.34(19) 3.07(19) 4.42(23) 0 1.02(18) 0
O8 O2- 2.17(18) 2.84(18) 3.93(21) 0 0.36(16) 0
Na1 Na1+ 4.38(12) 3.03(9) 2.08(9) -.26(9) 0.61(9) -.71(8)
Na2 Na1+ 2.76(6) 3.12(7) 2.89(7) -.47(6) -.16(5) -.04(5)
Na3 Na1+ 2.18(9) 2.66(9) 2.52(9) 0 -.06(7) 0
#End of TTdata_24368-ICSD