
#(C) 2019 by FIZ Karlsruhe - Leibniz Institute for Information Infrastructure.  All rights reserved.
data_243718-ICSD
_database_code_ICSD 243718
_audit_creation_date 2017-08-01
_chemical_name_systematic 'Disodium dodecaboride dodecafluoride'
_chemical_formula_structural 'Na2 (B12 F12)'
_chemical_formula_sum 'B12 F12 Na2'
_exptl_crystal_density_diffrn 2.19
_cell_measurement_temperature 5.
_publ_section_title

;
Comparison of the coordination of B12F122-, B12Cl122-, and B12H122- to Na+ in
the solid state: crystal structures and thermal behavior of Na2(B12F12),
Na2(H2O)4(B12F12), Na2(B12Cl12), and Na2(H2O)6(B12Cl12)
;
loop_
_citation_id
_citation_journal_full
_citation_year
_citation_journal_volume
_citation_page_first
_citation_page_last
_citation_journal_id_ASTM
primary 'Inorganic Chemistry' 2017 56 4369 4379 INOCAJ
loop_
_publ_author_name
'Bukovsky, Eric V.'
'Peryshkov, Dmitry V.'
'Wu, Hui'
'Zhou, Wei'
'Tang, Wan Si'
'Jones, W. Matthew'
'Stavila, Vitalie'
'Udovic, Terrence J.'
'Strauss, Steven H.'
_cell_length_a 12.0118
_cell_length_b 12.0118
_cell_length_c 7.3347(15)
_cell_angle_alpha 90.
_cell_angle_beta 90.
_cell_angle_gamma 120.
_cell_volume 916.49
_cell_formula_units_Z 3
_symmetry_space_group_name_H-M 'P -3'
_symmetry_Int_Tables_number 147
_refine_ls_R_factor_all 0.0317
loop_
_symmetry_equiv_pos_site_id
_symmetry_equiv_pos_as_xyz
1 'x-y, x, -z'
2 'y, -x+y, -z'
3 '-x, -y, -z'
4 '-x+y, -x, z'
5 '-y, x-y, z'
6 'x, y, z'
loop_
_atom_type_symbol
_atom_type_oxidation_number
B0+ 0.833
F1- -1
Na1+ 1
loop_
_atom_site_label
_atom_site_type_symbol
_atom_site_symmetry_multiplicity
_atom_site_Wyckoff_symbol
_atom_site_fract_x
_atom_site_fract_y
_atom_site_fract_z
_atom_site_B_iso_or_equiv
_atom_site_occupancy
_atom_site_attached_hydrogens
B1 B0+ 6 g 0.1406(10) 0.0164(8) 0.4557(13) 0.001 1. 0
B2 B0+ 6 g 0.0814(10) 0.0906(22) 0.3137(23) 0.001 1. 0
B3 B0+ 6 g 0.3446(7) 0.5880(5) 0.0019(11) 0.001 1. 0
B4 B0+ 6 g 0.2013(8) 0.5193(16) 0.1376(12) 0.001 1. 0
B5 B0+ 6 g 0.25190(32) 0.5759(6) 0.3623(12) 0.001 1. 0
B6 B0+ 6 g 0.3463(5) 0.5321(8) 0.2246(12) 0.001 1. 0
F1 F1- 6 g 0.2677(13) 0.0520(18) 0.427(4) 0.00465 1. 0
F2 F1- 6 g 0.1534(16) 0.1808(25) 0.1787(30) 0.00365 1. 0
F3 F1- 6 g 0.3539(26) 0.5269(14) -0.1555(19) 0.00365 1. 0
F4 F1- 6 g 0.3679(25) 0.4306(15) 0.257(4) 0.00365 1. 0
F5 F1- 6 g 0.1099(20) 0.3949(16) 0.0865(23) 0.00365 1. 0
F6 F1- 6 g 0.1903(25) 0.5088(20) 0.5187(21) 0.00365 1. 0
Na1 Na1+ 6 g 0.3759(18) 0.2446(11) 0.2374(22) 0.02907 1. 0
#End of TTdata_243718-ICSD