
#(C) 2019 by FIZ Karlsruhe - Leibniz Institute for Information Infrastructure.  All rights reserved.
data_243721-ICSD
_database_code_ICSD 243721
_audit_creation_date 2017-08-01
_chemical_name_systematic 'Disodium dodecaboride dodecafluoride tetrahydrate'
_chemical_formula_structural 'Na2 (B12 F12) (H2 O)4'
_chemical_formula_sum 'H8 B12 F12 Na2 O4'
_exptl_crystal_density_diffrn 2.
_cell_measurement_temperature 120.
_publ_section_title

;
Comparison of the coordination of B12F122-, B12Cl122-, and B12H122- to Na+ in
the solid state: crystal structures and thermal behavior of Na2(B12F12),
Na2(H2O)4(B12F12), Na2(B12Cl12), and Na2(H2O)6(B12Cl12)
;
loop_
_citation_id
_citation_journal_full
_citation_year
_citation_journal_volume
_citation_page_first
_citation_page_last
_citation_journal_id_ASTM
primary 'Inorganic Chemistry' 2017 56 4369 4379 INOCAJ
loop_
_publ_author_name
'Bukovsky, Eric V.'
'Peryshkov, Dmitry V.'
'Wu, Hui'
'Zhou, Wei'
'Tang, Wan Si'
'Jones, W. Matthew'
'Stavila, Vitalie'
'Udovic, Terrence J.'
'Strauss, Steven H.'
_cell_length_a 10.6491(10)
_cell_length_b 10.8501(10)
_cell_length_c 13.8432(11)
_cell_angle_alpha 96.813(3)
_cell_angle_beta 96.479(3)
_cell_angle_gamma 91.347(4)
_cell_volume 1576.95
_cell_formula_units_Z 4
_symmetry_space_group_name_H-M 'P -1'
_symmetry_Int_Tables_number 2
_refine_ls_R_factor_all 0.0664
loop_
_symmetry_equiv_pos_site_id
_symmetry_equiv_pos_as_xyz
1 '-x, -y, -z'
2 'x, y, z'
loop_
_atom_type_symbol
_atom_type_oxidation_number
F1- -1
B0+ 0.833
F1- -1
B0+ 0.833
O2- -2
H1+ 1
O2- -2
H1+ 1
O2- -2
H1+ 1
O2- -2
H1+ 1
O2- -2
H1+ 1
O2- -2
H1+ 1
O2- -2
H1+ 1
O2- -2
H1+ 1
Na1+ 1
loop_
_atom_site_label
_atom_site_type_symbol
_atom_site_symmetry_multiplicity
_atom_site_Wyckoff_symbol
_atom_site_fract_x
_atom_site_fract_y
_atom_site_fract_z
_atom_site_B_iso_or_equiv
_atom_site_occupancy
_atom_site_attached_hydrogens
F1 F1- 2 i 0.1387(2) 0.6347(2) 0.16420(17) 0.0152(6) 1 0
F2 F1- 2 i 0.4300(3) 0.5852(3) 0.25997(19) 0.0191(6) 1 0
F3 F1- 2 i 0.3598(3) 0.8645(2) 0.20652(18) 0.0166(6) 1 0
F4 F1- 2 i 0.0673(3) 0.9119(3) 0.26004(19) 0.0182(6) 1 0
F5 F1- 2 i 0.0654(3) 0.9065(2) 0.48784(18) 0.0176(6) 1 0
F6 F1- 2 i 0.1379(3) 0.6311(3) 0.54074(18) 0.0182(6) 1 0
F7 F1- 2 i 0.3600(3) 0.8643(3) 0.58175(18) 0.0170(6) 1 0
F8 F1- 2 i 0.4279(3) 0.5852(3) 0.48883(19) 0.0213(7) 1 0
F9 F1- 2 i 0.1931(3) 0.4658(2) 0.34199(19) 0.0179(6) 1 0
F10 F1- 2 i -0.0346(2) 0.6714(3) 0.34266(19) 0.0173(6) 1 0
F11 F1- 2 i 0.5320(3) 0.8271(3) 0.40629(19) 0.0193(7) 1 0
F12 F1- 2 i 0.3087(3) 1.0299(2) 0.40493(19) 0.0181(6) 1 0
B1 B0+ 2 i 0.1890(5) 0.6871(5) 0.2565(4) 0.0135(12) 1 0
B2 B0+ 2 i 0.3490(5) 0.6597(5) 0.3087(4) 0.0144(12) 1 0
B3 B0+ 2 i 0.3076(5) 0.8111(5) 0.2788(4) 0.0138(12) 1 0
B4 B0+ 2 i 0.1498(5) 0.8378(5) 0.3091(4) 0.0119(11) 1 0
B5 B0+ 2 i 0.1504(5) 0.8359(5) 0.4385(4) 0.0129(11) 1 0
B6 B0+ 2 i 0.1886(5) 0.6849(5) 0.4677(4) 0.0123(11) 1 0
B7 B0+ 2 i 0.3072(5) 0.8108(5) 0.4908(4) 0.0131(12) 1 0
B8 B0+ 2 i 0.3469(5) 0.6597(5) 0.4382(4) 0.0147(12) 1 0
B9 B0+ 2 i 0.2150(5) 0.5934(5) 0.3550(4) 0.0135(12) 1 0
B10 B0+ 2 i 0.0929(5) 0.7042(5) 0.3556(4) 0.0122(11) 1 0
B11 B0+ 2 i 0.4047(5) 0.7923(5) 0.3913(4) 0.0119(11) 1 0
B12 B0+ 2 i 0.2831(5) 0.9023(5) 0.3911(4) 0.0131(12) 1 0
F13 F1- 2 i 0.6349(3) 0.3520(2) 0.31165(18) 0.0160(6) 1 0
F14 F1- 2 i 0.5594(3) 0.0727(3) 0.19989(18) 0.0191(7) 1 0
F15 F1- 2 i 0.5691(3) 0.0842(3) -0.03170(18) 0.0190(7) 1 0
F16 F1- 2 i 0.8624(3) 0.1433(2) -0.06342(18) 0.0164(6) 1 0
F17 F1- 2 i 0.9385(3) 0.4260(3) 0.05124(19) 0.0182(6) 1 0
F18 F1- 2 i 0.9284(3) 0.4152(3) 0.27677(18) 0.0197(7) 1 0
F19 F1- 2 i 1.0289(2) 0.1829(3) 0.14687(18) 0.0169(6) 1 0
F20 F1- 2 i 0.8477(3) 0.1314(2) 0.30935(18) 0.0163(6) 1 0
F21 F1- 2 i 0.8004(3) -0.0316(2) 0.09620(19) 0.0195(7) 1 0
F22 F1- 2 i 0.6970(3) 0.5294(2) 0.15035(19) 0.0179(6) 1 0
F23 F1- 2 i 0.4680(2) 0.3143(3) 0.09823(19) 0.0172(6) 1 0
F24 F1- 2 i 0.6468(3) 0.3671(2) -0.06089(18) 0.0156(6) 1 0
B13 B0+ 2 i 0.6870(5) 0.3033(5) 0.2288(4) 0.0132(12) 1 0
B14 B0+ 2 i 0.6441(5) 0.1498(5) 0.1661(4) 0.0138(12) 1 0
B15 B0+ 2 i 0.6511(5) 0.1563(5) 0.0368(4) 0.0126(11) 1 0
B16 B0+ 2 i 0.8103(5) 0.1935(5) 0.0188(4) 0.0139(12) 1 0
B17 B0+ 2 i 0.8517(5) 0.3458(5) 0.0811(4) 0.0135(12) 1 0
B18 B0+ 2 i 0.8460(5) 0.3396(5) 0.2096(4) 0.0141(12) 1 0
B19 B0+ 2 i 0.9014(5) 0.2120(5) 0.1361(4) 0.0149(12) 1 0
B20 B0+ 2 i 0.8020(5) 0.1847(5) 0.2280(4) 0.0143(12) 1 0
B21 B0+ 2 i 0.7770(5) 0.0952(5) 0.1091(4) 0.0136(12) 1 0
B22 B0+ 2 i 0.7190(5) 0.4028(5) 0.1379(4) 0.0129(12) 1 0
B23 B0+ 2 i 0.5952(5) 0.2864(5) 0.1111(4) 0.0142(12) 1 0
B24 B0+ 2 i 0.6962(5) 0.3135(5) 0.0203(4) 0.0115(11) 1 0
O1 O2- 2 i 0.3991(3) 0.2321(3) -0.1458(2) 0.0215(8) 1 0
H1 H1+ 2 i 0.4528(13) 0.2820(12) -0.1360(3) 0.032 1 0
H2 H1+ 2 i 0.4250(7) 0.1691(15) -0.1636(5) 0.032 1 0
O2 O2- 2 i 0.7238(4) 0.5996(3) 0.3913(2) 0.0240(9) 1 0
H3 H1+ 2 i 0.6602(15) 0.5634(9) 0.3807(3) 0.036 1 0
H4 H1+ 2 i 0.7762(12) 0.5569(11) 0.4075(4) 0.036 1 0
O3 O2- 2 i 0.9010(3) 0.7638(3) 0.6144(2) 0.0220(8) 1 0
H5 H1+ 2 i 0.9430(10) 0.8240(14) 0.6244(3) 0.033 1 0
H6 H1+ 2 i 0.9406(10) 0.7081(13) 0.5978(4) 0.033 1 0
O4 O2- 2 i 0.2776(3) 0.1039(3) 0.1369(2) 0.0200(8) 1 0
H7 H1+ 2 i 0.2288(11) 0.0492(13) 0.1269(3) 0.03 1 0
H8 H1+ 2 i 0.3431(15) 0.0810(6) 0.1544(5) 0.03 1 0
O5 O2- 2 i 0.2212(3) 0.3907(3) 0.1091(2) 0.0210(8) 1 0
H9 H1+ 2 i 0.1563(15) 0.4160(7) 0.0920(5) 0.032 1 0
H10 H1+ 2 i 0.2717(12) 0.4443(13) 0.1199(3) 0.032 1 0
O6 O2- 2 i 0.6061(3) 0.7342(4) 0.6371(3) 0.0279(9) 1 0
H11 H1+ 2 i 0.5614(11) 0.7856(12) 0.6528(4) 0.042 1 0
H12 H1+ 2 i 0.5694(9) 0.6713(15) 0.6258(4) 0.042 1 0
O7 O2- 2 i 0.1066(3) 0.2685(3) -0.1168(2) 0.0221(9) 1 0
H13 H1+ 2 i 0.0756(8) 0.3293(14) -0.0997(5) 0.033 1 0
H14 H1+ 2 i 0.0564(12) 0.2151(12) -0.1280(3) 0.033 1 0
O8 O2- 2 i 0.7881(4) 0.8907(3) 0.3755(2) 0.0246(9) 1 0
H15 H1+ 2 i 0.7435(10) 0.9416(12) 0.3610(4) 0.037 1 0
H16 H1+ 2 i 0.8559(16) 0.9177(7) 0.3885(4) 0.037 1 0
Na1 Na1+ 2 i 0.71697(19) 0.78227(18) 0.50287(13) 0.0182(5) 1 0
Na2 Na1+ 2 i 0.77324(19) 0.71164(18) 0.25417(13) 0.0185(5) 1 0
Na3 Na1+ 2 i 0.21301(19) 0.27202(18) 0.24641(13) 0.0177(5) 1 0
Na4 Na1+ 2 i 0.28115(19) 0.22263(19) -0.00355(13) 0.0188(5) 1 0
loop_
_atom_site_aniso_label
_atom_site_aniso_type_symbol
_atom_site_aniso_U_11
_atom_site_aniso_U_22
_atom_site_aniso_U_33
_atom_site_aniso_U_12
_atom_site_aniso_U_13
_atom_site_aniso_U_23
F1 F1- 0.0193(16) 0.0136(15) 0.0109(13) 0.0054(12) -0.0008(11) -0.0045(10)
F2 F1- 0.0187(16) 0.0210(16) 0.0180(14) 0.0153(13) 0.0044(11) -0.0007(11)
F3 F1- 0.0169(16) 0.0196(16) 0.0135(14) 0.0033(12) 0.0012(11) 0.0031(11)
F4 F1- 0.0174(16) 0.0192(16) 0.0180(14) 0.0128(13) -0.0020(11) 0.0047(11)
F5 F1- 0.0167(16) 0.0189(16) 0.0169(14) 0.0103(12) 0.0021(11) -0.0018(11)
F6 F1- 0.0197(16) 0.0230(16) 0.0126(13) 0.0046(13) 0.0035(11) 0.0036(11)
F7 F1- 0.0183(16) 0.0210(16) 0.0100(13) 0.0041(12) -0.0038(10) -0.0004(10)
F8 F1- 0.0234(17) 0.0233(17) 0.0175(14) 0.0159(13) -0.0012(12) 0.0036(11)
F9 F1- 0.0222(17) 0.0118(15) 0.0190(14) 0.0043(12) 0.0014(11) -0.0005(11)
F10 F1- 0.0106(15) 0.0204(16) 0.0196(14) 0.0031(12) -0.0028(11) 0.0013(11)
F11 F1- 0.0140(16) 0.0239(17) 0.0190(15) 0.0027(13) -0.0012(11) 0.0011(12)
F12 F1- 0.0223(17) 0.0111(15) 0.0201(15) 0.0021(12) 0.0014(12) -0.0008(11)
B1 B0+ 0.013(3) 0.015(3) 0.012(3) 0.005(2) 0.000(2) 0.000(2)
B2 B0+ 0.019(3) 0.012(3) 0.013(3) 0.009(2) 0.003(2) -0.001(2)
B3 B0+ 0.017(3) 0.016(3) 0.009(2) 0.005(2) 0.002(2) 0.001(2)
B4 B0+ 0.015(3) 0.009(3) 0.012(2) 0.007(2) 0.000(2) 0.002(2)
B5 B0+ 0.010(3) 0.018(3) 0.011(3) 0.007(2) -0.001(2) 0.003(2)
B6 B0+ 0.009(3) 0.015(3) 0.011(2) 0.007(2) -0.005(2) -0.001(2)
B7 B0+ 0.015(3) 0.013(3) 0.010(2) 0.008(2) 0.000(2) -0.003(2)
B8 B0+ 0.017(3) 0.013(3) 0.014(3) 0.006(2) -0.003(2) 0.004(2)
B9 B0+ 0.012(3) 0.016(3) 0.012(3) 0.004(2) 0.000(2) 0.002(2)
B10 B0+ 0.010(3) 0.015(3) 0.010(2) 0.001(2) -0.0018(19) -0.001(2)
B11 B0+ 0.012(3) 0.012(3) 0.012(3) 0.008(2) 0.001(2) 0.003(2)
B12 B0+ 0.011(3) 0.015(3) 0.012(3) 0.004(2) -0.002(2) 0.001(2)
F13 F1- 0.0170(16) 0.0181(16) 0.0122(13) 0.0062(12) 0.0027(11) -0.0027(10)
F14 F1- 0.0197(17) 0.0221(17) 0.0147(14) -0.0049(13) -0.0001(11) 0.0021(11)
F15 F1- 0.0202(17) 0.0213(16) 0.0143(14) -0.0044(13) -0.0005(11) 0.0005(11)
F16 F1- 0.0187(16) 0.0194(16) 0.0109(13) 0.0070(12) 0.0036(11) -0.0021(10)
F17 F1- 0.0171(16) 0.0202(16) 0.0168(14) -0.0016(12) -0.0012(11) 0.0042(11)
F18 F1- 0.0220(17) 0.0228(17) 0.0118(14) -0.0050(13) -0.0047(11) -0.0006(11)
F19 F1- 0.0091(15) 0.0244(17) 0.0167(14) 0.0094(12) -0.0001(11) 0.0007(11)
F20 F1- 0.0187(16) 0.0174(16) 0.0124(13) 0.0049(12) -0.0031(11) 0.0039(11)
F21 F1- 0.0256(18) 0.0143(16) 0.0179(14) 0.0071(13) -0.0007(12) 0.0004(11)
F22 F1- 0.0211(17) 0.0132(15) 0.0186(14) 0.0060(12) -0.0005(11) 0.0003(11)
F23 F1- 0.0102(15) 0.0219(16) 0.0191(14) 0.0065(12) -0.0009(11) 0.0019(11)
F24 F1- 0.0160(16) 0.0193(16) 0.0119(13) 0.0078(12) -0.0027(10) 0.0065(10)
B13 B0+ 0.013(3) 0.015(3) 0.012(3) 0.004(2) 0.003(2) -0.001(2)
B14 B0+ 0.015(3) 0.016(3) 0.008(2) 0.006(2) -0.002(2) -0.005(2)
B15 B0+ 0.012(3) 0.015(3) 0.010(2) 0.003(2) -0.001(2) 0.000(2)
B16 B0+ 0.012(3) 0.018(3) 0.011(2) 0.004(2) 0.000(2) -0.001(2)
B17 B0+ 0.013(3) 0.015(3) 0.011(3) 0.002(2) 0.001(2) -0.003(2)
B18 B0+ 0.020(3) 0.011(3) 0.010(3) -0.001(2) -0.001(2) -0.001(2)
B19 B0+ 0.016(3) 0.020(3) 0.008(2) 0.004(2) 0.002(2) 0.000(2)
B20 B0+ 0.016(3) 0.015(3) 0.011(2) 0.002(2) 0.000(2) -0.001(2)
B21 B0+ 0.016(3) 0.013(3) 0.012(3) 0.006(2) 0.004(2) 0.000(2)
B22 B0+ 0.014(3) 0.012(3) 0.012(3) 0.005(2) 0.003(2) -0.002(2)
B23 B0+ 0.012(3) 0.017(3) 0.011(2) 0.000(2) -0.005(2) -0.001(2)
B24 B0+ 0.010(3) 0.014(3) 0.011(2) 0.004(2) 0.0000(19) 0.001(2)
O1 O2- 0.016(2) 0.023(2) 0.0241(19) 0.0076(16) 0.0016(15) -0.0026(15)
O2 O2- 0.025(2) 0.020(2) 0.0247(19) -0.0014(17) 0.0033(15) -0.0034(15)
O3 O2- 0.020(2) 0.021(2) 0.0242(19) 0.0022(16) -0.0018(15) 0.0033(15)
O4 O2- 0.018(2) 0.018(2) 0.0227(18) 0.0062(16) -0.0019(14) -0.0019(14)
O5 O2- 0.020(2) 0.018(2) 0.0239(19) 0.0059(16) 0.0024(15) -0.0012(14)
O6 O2- 0.016(2) 0.033(2) 0.036(2) 0.0033(18) -0.0024(16) 0.0159(17)
O7 O2- 0.017(2) 0.022(2) 0.0260(19) 0.0041(16) -0.0027(15) 0.0056(15)
O8 O2- 0.029(2) 0.020(2) 0.0243(19) 0.0001(17) 0.0045(16) -0.0022(15)
Na1 Na1+ 0.0186(12) 0.0205(12) 0.0137(10) 0.0081(9) -0.0020(8) -0.0027(8)
Na2 Na1+ 0.0215(13) 0.0206(12) 0.0120(9) 0.0078(9) -0.0022(8) -0.0008(8)
Na3 Na1+ 0.0196(12) 0.0193(12) 0.0131(10) 0.0062(9) -0.0009(8) -0.0003(8)
Na4 Na1+ 0.0190(12) 0.0210(12) 0.0149(10) 0.0078(9) -0.0017(8) -0.0017(8)
#End of TTdata_243721-ICSD