
#(C) 2019 by FIZ Karlsruhe - Leibniz Institute for Information Infrastructure.  All rights reserved.
data_243838-ICSD
_database_code_ICSD 243838
_audit_creation_date 2017-08-01
_chemical_name_systematic 'Sodium bismuth cadmium titanate(IV)'
_chemical_formula_structural '((Na Bi)0.5 Ti O3)0.7 (Cd Ti O3)0.3'
_chemical_formula_sum 'Bi0.35 Cd0.3 Na0.35 O3 Ti1'
_exptl_crystal_density_diffrn 6.11
_publ_section_title

;
Novel octahedral tilt system a+b+c+ in (1 - x)Na0.5Bi0.5TiO3-xCdTiO3 solid
solutions
;
loop_
_citation_id
_citation_journal_full
_citation_year
_citation_journal_volume
_citation_page_first
_citation_page_last
_citation_journal_id_ASTM
primary 'Journal of Materials Science' 2017 52 7149 7157 JMTSAS
loop_
_publ_author_name
'Ignatans, R.'
'Dunce, M.'
'Birks, E.'
'Sternberg, A.'
_cell_length_a 7.711396(24)
_cell_length_b 7.711396(24)
_cell_length_c 7.711396(24)
_cell_angle_alpha 90.
_cell_angle_beta 90.
_cell_angle_gamma 90.
_cell_volume 458.56
_cell_formula_units_Z 8
_symmetry_space_group_name_H-M 'I m -3'
_symmetry_Int_Tables_number 204
_refine_ls_R_factor_all 0.0152
loop_
_symmetry_equiv_pos_site_id
_symmetry_equiv_pos_as_xyz
1 '-z, x, y'
2 'z, x, -y'
3 'z, -x, y'
4 '-z, -x, -y'
5 'y, -z, x'
6 '-y, z, x'
7 'y, z, -x'
8 '-y, -z, -x'
9 'x, y, -z'
10 'x, -y, z'
11 '-x, y, z'
12 '-x, -y, -z'
13 'z, -x, -y'
14 '-z, -x, y'
15 '-z, x, -y'
16 'z, x, y'
17 '-y, z, -x'
18 'y, -z, -x'
19 '-y, -z, x'
20 'y, z, x'
21 '-x, -y, z'
22 '-x, y, -z'
23 'x, -y, -z'
24 'x, y, z'
25 '-z+1/2, x+1/2, y+1/2'
26 'z+1/2, x+1/2, -y+1/2'
27 'z+1/2, -x+1/2, y+1/2'
28 '-z+1/2, -x+1/2, -y+1/2'
29 'y+1/2, -z+1/2, x+1/2'
30 '-y+1/2, z+1/2, x+1/2'
31 'y+1/2, z+1/2, -x+1/2'
32 '-y+1/2, -z+1/2, -x+1/2'
33 'x+1/2, y+1/2, -z+1/2'
34 'x+1/2, -y+1/2, z+1/2'
35 '-x+1/2, y+1/2, z+1/2'
36 '-x+1/2, -y+1/2, -z+1/2'
37 'z+1/2, -x+1/2, -y+1/2'
38 '-z+1/2, -x+1/2, y+1/2'
39 '-z+1/2, x+1/2, -y+1/2'
40 'z+1/2, x+1/2, y+1/2'
41 '-y+1/2, z+1/2, -x+1/2'
42 'y+1/2, -z+1/2, -x+1/2'
43 '-y+1/2, -z+1/2, x+1/2'
44 'y+1/2, z+1/2, x+1/2'
45 '-x+1/2, -y+1/2, z+1/2'
46 '-x+1/2, y+1/2, -z+1/2'
47 'x+1/2, -y+1/2, -z+1/2'
48 'x+1/2, y+1/2, z+1/2'
loop_
_atom_type_symbol
_atom_type_oxidation_number
Na1+ 1
Bi3+ 3
Cd2+ 2
Na1+ 1
Bi3+ 3
Cd2+ 2
Ti4+ 4
O2- -2
loop_
_atom_site_label
_atom_site_type_symbol
_atom_site_symmetry_multiplicity
_atom_site_Wyckoff_symbol
_atom_site_fract_x
_atom_site_fract_y
_atom_site_fract_z
_atom_site_B_iso_or_equiv
_atom_site_occupancy
_atom_site_attached_hydrogens
Na1 Na1+ 2 a 0 0 0 3.126(19) 0.35 0
Bi1 Bi3+ 2 a 0 0 0 3.126(19) 0.35 0
Cd1 Cd2+ 2 a 0 0 0 3.126(19) 0.3 0
Na2 Na1+ 6 b 0 0.5 0.5 3.126(19) 0.35 0
Bi2 Bi3+ 6 b 0 0.5 0.5 3.126(19) 0.35 0
Cd2 Cd2+ 6 b 0 0.5 0.5 3.126(19) 0.3 0
Ti1 Ti4+ 8 c 0.25 0.25 0.25 0.628(19) 1. 0
O1 O2- 24 g 0 0.20724(51) 0.26955(68) 1.834(68) 1. 0
#End of TTdata_243838-ICSD