
#(C) 2019 by FIZ Karlsruhe - Leibniz Institute for Information Infrastructure.  All rights reserved.
data_243887-ICSD
_database_code_ICSD 243887
_audit_creation_date 2018-02-01
_chemical_name_systematic 'Dodecabarium sodium tetrafluoride heptaborate'
_chemical_formula_structural 'Ba12 Na F4 (B O3)7'
_chemical_formula_sum 'B7 Ba12 F4 Na1 O21'
_exptl_crystal_density_diffrn 5.19
_cell_measurement_temperature 293.
_publ_section_title

;
Growth and optical properties of LixNa1-xBa12(BO3)7F4 fluoride borates with
''antizeolite'' structure
;
loop_
_citation_id
_citation_journal_full
_citation_year
_citation_journal_volume
_citation_page_first
_citation_page_last
_citation_journal_id_ASTM
primary 'Inorganic Chemistry' 2017 56 5411 5419 INOCAJ
loop_
_publ_author_name
'Bekker, Tatyana B.'
'Rashchenko, Sergey V.'
'Solntsev, Vladimir P.'
'Yelisseyev, Alexander P.'
'Kragzhda, Alexander A.'
'Bakakin, Vladimir V.'
'Seryotkin, Yuriy V.'
'Kokh, Alexander E.'
'Kokh, Konstantin A.'
'Kuznetsov, Artem B.'
_cell_length_a 13.59612(13)
_cell_length_b 13.59612(13)
_cell_length_c 14.9394(3)
_cell_angle_alpha 90
_cell_angle_beta 90
_cell_angle_gamma 90
_cell_volume 2761.6
_cell_formula_units_Z 4
_symmetry_space_group_name_H-M 'P 42 b c'
_symmetry_Int_Tables_number 106
_refine_ls_R_factor_all 0.0669
loop_
_symmetry_equiv_pos_site_id
_symmetry_equiv_pos_as_xyz
1 '-y+1/2, -x+1/2, z+1/2'
2 'y, -x, z+1/2'
3 '-x+1/2, y+1/2, z'
4 '-x, -y, z'
5 'y+1/2, x+1/2, z+1/2'
6 '-y, x, z+1/2'
7 'x+1/2, -y+1/2, z'
8 'x, y, z'
loop_
_atom_type_symbol
_atom_type_oxidation_number
Ba2+ 2
B3+ 3
O2- -2
B3+ 3
O2- -2
B3+ 3
O2- -2
B3+ 3
O2- -2
Na1+ 1
F1- -1
loop_
_atom_site_label
_atom_site_type_symbol
_atom_site_symmetry_multiplicity
_atom_site_Wyckoff_symbol
_atom_site_fract_x
_atom_site_fract_y
_atom_site_fract_z
_atom_site_B_iso_or_equiv
_atom_site_occupancy
_atom_site_attached_hydrogens
Ba1 Ba2+ 8 c 0.29652(11) 0.06591(12) 0.44903(9) 0.0155(3) 1 0
Ba2 Ba2+ 8 c 0.57563(12) 0.20422(13) 0.45072(10) 0.0170(3) 1 0
Ba3 Ba2+ 4 a 0. 0. 0.4497(2) 0.0272(7) 1 0
Ba4 Ba2+ 8 c 0.29618(12) 0.06609(11) 0.18312(9) 0.0144(3) 1 0
Ba5 Ba2+ 8 c 0.29534(11) -0.07504(12) 0.68093(10) 0.0151(3) 1 0
Ba6 Ba2+ 8 c 0.17082(7) -0.17862(6) 0.3169(2) 0.01285(19) 1 0
Ba7 Ba2+ 4 a 0. 0. 0.18390(17) 0.0135(4) 1 0
B1 B3+ 8 c 0.1659(15) 0.1578(14) 0.6035(15) 0.001(3) 1 0
O1 O2- 8 c 0.2496(15) 0.1143(16) 0.6390(13) 0.017(4) 1 0
O2 O2- 8 c 0.122(2) 0.114(2) 0.526(2) 0.035(6) 1 0
O3 O2- 8 c 0.6228(16) 0.2706(15) 0.6521(14) 0.023(4) 1 0
B2 B3+ 8 c 0.1227(11) 0.1194(11) 0.313(2) 0.008(3) 1 0
O4 O2- 8 c 0.5241(9) 0.3545(9) 0.3216(16) 0.018(3) 1 0
O5 O2- 8 c 0.1455(8) 0.0205(8) 0.3214(14) 0.011(2) 1 0
O6 O2- 8 c 0.1947(9) 0.1893(9) 0.319(2) 0.017(2) 1 0
B3 B3+ 8 c 0.350(3) 0.332(3) 0.532(3) 0.029(8) 1 0
O7 O2- 8 c 0.389(2) 0.2485(19) 0.4989(17) 0.030(5) 1 0
O8 O2- 8 c 0.2397(15) -0.1225(16) 0.4929(13) 0.024(4) 1 0
O9 O2- 8 c -0.1224(12) 0.1274(12) 0.6083(13) 0.006(3) 1 0
B4 B3+ 4 b 0.5 0. 0.576(2) 0.014(5) 1 0
O10 O2- 4 b 0.5 0. 0.4664(18) 0.034(6) 1 0
O11 O2- 8 c 0.4563(19) -0.0778(19) 0.5998(18) 0.052(6) 1 0
Na1 Na1+ 4 b 0.5 0. 0.321(2) 0.023(2) 1 0
F1 F1- 8 c 0.4242(9) 0.1412(8) 0.3187(18) 0.025(2) 1 0
F2 F1- 8 c 0.3552(7) -0.0777(8) 0.3170(16) 0.020(2) 1 0
loop_
_atom_site_aniso_label
_atom_site_aniso_type_symbol
_atom_site_aniso_U_11
_atom_site_aniso_U_22
_atom_site_aniso_U_33
_atom_site_aniso_U_12
_atom_site_aniso_U_13
_atom_site_aniso_U_23
Ba1 Ba2+ 0.0100(6) 0.0174(7) 0.0192(8) -0.0047(4) -0.0070(6) 0.0042(7)
Ba2 Ba2+ 0.0123(6) 0.0214(7) 0.0174(8) -0.0025(5) 0.0028(7) -0.0031(6)
Ba3 Ba2+ 0.0402(14) 0.0234(11) 0.0182(15) -0.0230(11) 0. 0.
Ba4 Ba2+ 0.0221(7) 0.0120(6) 0.0090(6) 0.0050(5) -0.0043(6) 0.0030(6)
Ba5 Ba2+ 0.0106(6) 0.0186(7) 0.0161(7) 0.0057(5) 0.0022(6) 0.0000(7)
Ba6 Ba2+ 0.0114(4) 0.0115(4) 0.0157(4) 0.0022(3) -0.0010(7) -0.0023(8)
Ba7 Ba2+ 0.0091(7) 0.0202(9) 0.0110(10) 0.0031(7) 0. 0.
O1 O2- 0.017(7) 0.014(7) 0.020(8) -0.001(5) -0.007(6) 0.003(5)
O2 O2- 0.035(12) 0.031(11) 0.039(11) 0.003(9) -0.013(9) -0.006(9)
O10 O2- 0.055(18) 0.017(11) 0.030(13) -0.005(11) 0. 0.
Na1 Na1+ 0.013(4) 0.021(5) 0.035(7) 0.009(4) 0. 0.
F1 F1- 0.029(6) 0.019(5) 0.028(6) 0.005(4) 0.005(9) -0.004(10)
F2 F1- 0.017(5) 0.022(5) 0.019(5) 0.002(4) 0.005(8) -0.009(8)
#End of TTdata_243887-ICSD