
#(C) 2019 by FIZ Karlsruhe - Leibniz Institute for Information Infrastructure.  All rights reserved.
data_243964-ICSD
_database_code_ICSD 243964
_audit_creation_date 2018-02-01
_chemical_name_systematic 'Sodium tetraoxidotechnetate(VII)'
_chemical_formula_structural 'Na Tc O4'
_chemical_formula_sum 'Na1 O4 Tc1'
_chemical_name_structure_type Scheelite-CaWO4
_exptl_crystal_density_diffrn 3.67
_cell_measurement_temperature 296.
_publ_section_title

;
Redetermination of the crystal structure of NaTcO4 at 100 and 296 K based on
single-crystal X-ray data
;
loop_
_citation_id
_citation_journal_full
_citation_year
_citation_journal_volume
_citation_page_first
_citation_page_last
_citation_journal_id_ASTM
primary 'Acta Crystallographica, Section E: Crystallographic Communications'
2017 73 1037 1040 ACSECI
loop_
_publ_author_name
'German, Konstantin E.'
'Grigoriev, Mikhail S.'
'Garashchenko, Bogdan L.'
'Kopytin, Alexander V.'
'Tyupina, Ekaterina A.'
_cell_length_a 5.33250(10)
_cell_length_b 5.33250(10)
_cell_length_c 11.8503(3)
_cell_angle_alpha 90
_cell_angle_beta 90
_cell_angle_gamma 90
_cell_volume 336.96
_cell_formula_units_Z 4
_symmetry_space_group_name_H-M 'I 41/a Z'
_symmetry_Int_Tables_number 88
_refine_ls_R_factor_all 0.0081
loop_
_symmetry_equiv_pos_site_id
_symmetry_equiv_pos_as_xyz
1 '-y+3/4, x+3/4, -z+3/4'
2 'y+1/4, -x+3/4, -z+3/4'
3 'x, y+1/2, -z'
4 '-x, -y, -z'
5 'y+1/4, -x+1/4, z+1/4'
6 '-y+3/4, x+1/4, z+1/4'
7 '-x, -y+1/2, z'
8 'x, y, z'
9 '-y+1/4, x+1/4, -z+1/4'
10 'y+3/4, -x+1/4, -z+1/4'
11 'x+1/2, y, -z+1/2'
12 '-x+1/2, -y+1/2, -z+1/2'
13 'y+3/4, -x+3/4, z+3/4'
14 '-y+1/4, x+3/4, z+3/4'
15 '-x+1/2, -y, z+1/2'
16 'x+1/2, y+1/2, z+1/2'
loop_
_atom_type_symbol
_atom_type_oxidation_number
Tc7+ 7
Na1+ 1
O2- -2
loop_
_atom_site_label
_atom_site_type_symbol
_atom_site_symmetry_multiplicity
_atom_site_Wyckoff_symbol
_atom_site_fract_x
_atom_site_fract_y
_atom_site_fract_z
_atom_site_B_iso_or_equiv
_atom_site_occupancy
_atom_site_attached_hydrogens
Tc1 Tc7+ 4 b 0.5 0.75 0.125 0.01434(6) 1 0
Na1 Na1+ 4 a 0. 0.25 0.125 0.02546(16) 1 0
O1 O2- 16 f 0.73494(12) 0.62442(11) 0.04342(6) 0.02225(12) 1 0
loop_
_atom_site_aniso_label
_atom_site_aniso_type_symbol
_atom_site_aniso_U_11
_atom_site_aniso_U_22
_atom_site_aniso_U_33
_atom_site_aniso_U_12
_atom_site_aniso_U_13
_atom_site_aniso_U_23
Tc1 Tc7+ 0.01355(6) 0.01355(6) 0.01591(7) 0. 0. 0.
Na1 Na1+ 0.0261(2) 0.0261(2) 0.0242(4) 0. 0. 0.
O1 O2- 0.0200(2) 0.0225(2) 0.0242(3) 0.0005(2) 0.0050(2) -0.0030(2)
#End of TTdata_243964-ICSD