
#(C) 2019 by FIZ Karlsruhe - Leibniz Institute for Information Infrastructure.  All rights reserved.
data_24399-ICSD
_database_code_ICSD 24399
_audit_creation_date 1981-12-31
_chemical_name_systematic
'Trisodium hydrogendifluoride pentafluoroperoxoniobate'
_chemical_formula_structural 'Na3 H F2 Nb F5 O2'
_chemical_formula_sum 'H1 F7 Na3 Nb1 O2'
_exptl_crystal_density_diffrn 3.08
_publ_section_title

;
The Crystal Structure of Trisodium Pentafluoroperoxoniobate(V)
Hydrogendifluoride, Na3 (H F2) (Nb F5 (O2))
;
loop_
_citation_id
_citation_journal_full
_citation_year
_citation_journal_volume
_citation_page_first
_citation_page_last
_citation_journal_id_ASTM
primary 'Acta Chemica Scandinavica, Series A: Physical and Inorganic Chemistry'
1981 35 389 394 ACAPCT
loop_
_publ_author_name
'Stomberg, R.'
_cell_length_a 6.703(1)
_cell_length_b 14.982(4)
_cell_length_c 14.092(5)
_cell_angle_alpha 90.
_cell_angle_beta 90.
_cell_angle_gamma 90.
_cell_volume 1415.18
_cell_formula_units_Z 8
_symmetry_space_group_name_H-M 'P b c n'
_symmetry_Int_Tables_number 60
_refine_ls_R_factor_all 0.022
loop_
_symmetry_equiv_pos_site_id
_symmetry_equiv_pos_as_xyz
1 'x, -y, z+1/2'
2 '-x+1/2, y+1/2, z'
3 'x+1/2, y+1/2, -z+1/2'
4 '-x, -y, -z'
5 '-x, y, -z+1/2'
6 'x+1/2, -y+1/2, -z'
7 '-x+1/2, -y+1/2, z+1/2'
8 'x, y, z'
loop_
_atom_type_symbol
_atom_type_oxidation_number
Nb5+ 5
Na1+ 1
F1- -1
O1- -1
H1+ 1
loop_
_atom_site_label
_atom_site_type_symbol
_atom_site_symmetry_multiplicity
_atom_site_Wyckoff_symbol
_atom_site_fract_x
_atom_site_fract_y
_atom_site_fract_z
_atom_site_B_iso_or_equiv
_atom_site_occupancy
_atom_site_attached_hydrogens
Nb1 Nb5+ 8 d 0.25206(4) 0.13146(2) 0.10392(2) 0.009 1. 0
Na1 Na1+ 8 d 0.1976(2) 0.2652(1) 0.3426(1) 0.02 1. 0
Na2 Na1+ 8 d 0.2624(2) 0.3728(1) 0.0665(1) 0.028 1. 0
Na3 Na1+ 8 d 0.2800(2) 0.5020(1) 0.3611(1) 0.021 1. 0
F1 F1- 8 d 0.1756(3) 0.2352(1) 0.1840(1) 0.023 1. 0
F2 F1- 8 d 0.2107(3) 0.0271(1) 0.0205(1) 0.023 1. 0
F3 F1- 8 d 0.2109(3) 0.0536(2) 0.2090(1) 0.027 1. 0
F4 F1- 8 d 0.2399(3) 0.2161(1) 0.0003(1) 0.024 1. 0
F5 F1- 8 d -.0478(3) 0.1316(1) 0.0901(2) 0.02 1. 0
F6 F1- 8 d 0.4683(4) 0.3770(1) 0.3296(1) 0.023 1. 0
F7 F1- 8 d 0.0239(3) 0.4015(1) 0.3305(1) 0.026 1. 0
O1 O1- 8 d 0.5253(4) 0.0993(2) 0.0739(2) 0.023 1. 0
O2 O1- 8 d 0.5105(4) 0.1730(2) 0.1437(2) 0.024 1. 0
H1 H1+ 4 c 0.5 0.380(8) 0.25 0.114 1. 0
H2 H1+ 4 c 0 0.401(7) 0.25 0.0507 1. 0
#End of TTdata_24399-ICSD