
#(C) 2018 by FIZ Karlsruhe - Leibniz Institute for Information Infrastructure.  All rights reserved.
data_243924-ICSD
_database_code_ICSD 243924
_audit_creation_date 2018-02-01
_chemical_name_systematic 'Lithium niobium ruthenium oxide (3/0.65/0.35/4)'
_chemical_formula_structural 'Li3 (Nb0.65 Ru0.35) O4'
_chemical_formula_sum 'Li3 Nb0.65 O4 Ru0.35'
_chemical_name_structure_type Li3TaO4
_exptl_crystal_density_diffrn 4.04
_publ_section_title

;
The Li3RuyNb1-yO4 (0 <= Y <= 1) system: structural diversity and Li insertion
and extraction capabilities
;
loop_
_citation_id
_citation_journal_full
_citation_year
_citation_journal_volume
_citation_page_first
_citation_page_last
_citation_journal_id_ASTM
primary 'Chemistry of Materials' 2017 29 5331 5343 CMATEX
loop_
_publ_author_name
'Jacquet, Quentin'
'Perez, Arnaud'
'Batuk, Dmitry'
'Tendeloo, Gustaaf van'
'Rousse, Gwenaelle'
'Tarascon, Jean-Marie'
_cell_length_a 8.4251(1)
_cell_length_b 8.4282(1)
_cell_length_c 9.34351(11)
_cell_angle_alpha 90
_cell_angle_beta 116.5024(8)
_cell_angle_gamma 90
_cell_volume 593.74
_cell_formula_units_Z 8
_symmetry_space_group_name_H-M 'C 1 2/c 1'
_symmetry_Int_Tables_number 15
loop_
_symmetry_equiv_pos_site_id
_symmetry_equiv_pos_as_xyz
1 'x, -y, z+1/2'
2 '-x, -y, -z'
3 '-x, y, -z+1/2'
4 'x, y, z'
5 'x+1/2, -y+1/2, z+1/2'
6 '-x+1/2, -y+1/2, -z'
7 '-x+1/2, y+1/2, -z+1/2'
8 'x+1/2, y+1/2, z'
loop_
_atom_type_symbol
_atom_type_oxidation_number
O2- -2
Nb5+ 5
Ru6+ 6
Li1+ 1
Nb5+ 5
Ru6+ 6
Li1+ 1
O2- -2
loop_
_atom_site_label
_atom_site_type_symbol
_atom_site_symmetry_multiplicity
_atom_site_Wyckoff_symbol
_atom_site_fract_x
_atom_site_fract_y
_atom_site_fract_z
_atom_site_B_iso_or_equiv
_atom_site_occupancy
_atom_site_attached_hydrogens
O1 O2- 8 f 0.94602 -0.11442 0.88948 0.00341 1. 0
Nb1 Nb5+ 8 f 0.07786 -0.13835 0.12469 0.00269 0.5968 0
Ru1 Ru6+ 8 f 0.07786 -0.13835 0.12469 0.00269 0.3214 0
Li1 Li1+ 8 f 0.07786 -0.13835 0.12469 0.01267 0.0818 0
Li2 Li1+ 8 f 0.3214 -0.12016 0.62667 0.0139 1. 0
Li3 Li1+ 8 f 0.54829 -0.1224 0.1264 0.0139 0.9182 0
Nb2 Nb5+ 8 f 0.54829 -0.1224 0.1264 0.0139 0.0532 0
Ru2 Ru6+ 8 f 0.54829 -0.1224 0.1264 0.0139 0.0287 0
Li4 Li1+ 8 f 0.81648 -0.12445 0.63138 0.0139 1. 0
O2 O2- 8 f 0.17228 -0.12361 0.36069 0.00916 1. 0
O3 O2- 8 f 0.43826 -0.14146 0.88459 0.01377 1. 0
O4 O2- 8 f 0.69588 -0.12734 0.37219 0.00423 1. 0
#End of TTdata_243924-ICSD