
#(C) 2019 by FIZ Karlsruhe - Leibniz Institute for Information Infrastructure.  All rights reserved.
data_244004-ICSD
_database_code_ICSD 244004
_audit_creation_date 2018-02-01
_chemical_name_systematic 'Sodium lanthanum tetrakis(iodate)'
_chemical_formula_structural 'Na La (I O3)4'
_chemical_formula_sum 'I4 La1 Na1 O12'
_chemical_name_structure_type NaY(IO3)4
_exptl_crystal_density_diffrn 4.94
_cell_measurement_temperature 100.
_publ_section_title

;
Photoconversion mechanisms and the origin of second-harmonic generation in
metal iodates with wide transparency, NaLn(IO3)4 (Ln = La, Ce, Sm, and Eu) and
NaLa(IO3)4:Ln3+ (Ln = Sm and Eu)
;
loop_
_citation_id
_citation_journal_full
_citation_year
_citation_journal_volume
_citation_page_first
_citation_page_last
_citation_journal_id_ASTM
primary 'Inorganic Chemistry' 2017 56 6973 6981 INOCAJ
loop_
_publ_author_name
'Oh, Seung-Jin'
'Kim, Hyung-Gu'
'Jo, Hongil'
'Lim, Tae Gil'
'Yoo, Jae Soo'
'Ok, Kang Min'
_cell_length_a 31.656(6)
_cell_length_b 5.6710(11)
_cell_length_c 12.906(3)
_cell_angle_alpha 90
_cell_angle_beta 90.54(3)
_cell_angle_gamma 90
_cell_volume 2316.79
_cell_formula_units_Z 8
_symmetry_space_group_name_H-M 'C 1 c 1'
_symmetry_Int_Tables_number 9
_refine_ls_R_factor_all 0.03
loop_
_symmetry_equiv_pos_site_id
_symmetry_equiv_pos_as_xyz
1 'x, -y, z+1/2'
2 'x, y, z'
3 'x+1/2, -y+1/2, z+1/2'
4 'x+1/2, y+1/2, z'
loop_
_atom_type_symbol
_atom_type_oxidation_number
La3+ 3
I5+ 5
Na1+ 1
O2- -2
loop_
_atom_site_label
_atom_site_type_symbol
_atom_site_symmetry_multiplicity
_atom_site_Wyckoff_symbol
_atom_site_fract_x
_atom_site_fract_y
_atom_site_fract_z
_atom_site_B_iso_or_equiv
_atom_site_occupancy
_atom_site_attached_hydrogens
La1 La3+ 4 a -0.12808(2) -0.19374(11) 0.96808(4) 0.00361(14) 1 0
La2 La3+ 4 a 0.08042(2) 0.20602(12) 0.96811(4) 0.00351(14) 1 0
I1 I5+ 4 a -0.14454(2) -0.29619(12) 1.26034(5) 0.00420(15) 1 0
I2 I5+ 4 a -0.20469(2) 0.26401(13) 1.07155(5) 0.00438(14) 1 0
I3 I5+ 4 a -0.24495(2) -0.17545(13) 0.83587(5) 0.00478(15) 1 0
I4 I5+ 4 a -0.06287(2) -0.19600(12) 0.67022(5) 0.00502(14) 1 0
I5 I5+ 4 a 0.09859(2) 0.30454(12) 0.67401(5) 0.00413(15) 1 0
I6 I5+ 4 a 0.15611(2) -0.26442(13) 0.87285(5) 0.00407(14) 1 0
I7 I5+ 4 a 0.19574(2) 0.18997(13) 1.10362(5) 0.00491(15) 1 0
I8 I5+ 4 a -0.00661(2) -0.26520(12) 1.00696(6) 0.00400(14) 1 0
Na1 Na1+ 4 a -0.03773(16) 0.2651(9) 0.8594(5) 0.0121(10) 1 0
Na2 Na1+ 4 a 0.03774(17) 0.7733(10) 0.7623(4) 0.0137(10) 1 0
O1 O2- 4 a -0.1136(2) -0.3272(15) 1.1440(6) 0.0052(14) 1 0
O2 O2- 4 a -0.1237(2) -0.5608(16) 1.3168(6) 0.0080(14) 1 0
O3 O2- 4 a -0.1622(2) 0.0580(15) 1.1001(6) 0.0076(14) 1 0
O4 O2- 4 a -0.2004(2) 0.4428(16) 1.1884(6) 0.0078(15) 1 0
O5 O2- 4 a -0.1762(2) 0.4488(16) 0.9806(6) 0.0089(15) 1 0
O6 O2- 4 a -0.1959(2) -0.0586(15) 0.8903(6) 0.0077(14) 1 0
O7 O2- 4 a -0.2802(2) -0.0127(16) 0.9181(6) 0.0092(15) 1 0
O8 O2- 4 a -0.2474(2) -0.0061(16) 0.7182(6) 0.0090(15) 1 0
O9 O2- 4 a -0.0676(2) -0.1004(16) 0.5358(6) 0.0084(14) 1 0
O10 O2- 4 a -0.0264(2) -0.4378(16) 0.6611(6) 0.0113(15) 1 0
O11 O2- 4 a -0.0253(3) 0.0160(14) 0.7160(7) 0.0084(12) 1 0
O12 O2- 4 a 0.0783(2) 0.5864(16) 0.6299(6) 0.0085(14) 1 0
O13 O2- 4 a 0.0666(3) 0.3129(15) 0.7895(6) 0.0066(15) 1 0
O14 O2- 4 a 0.1100(2) -0.0818(15) 0.8422(6) 0.0067(14) 1 0
O15 O2- 4 a 0.1528(2) -0.4608(16) 0.7631(6) 0.0083(14) 1 0
O16 O2- 4 a 0.1308(2) -0.4461(16) 0.9689(6) 0.0082(14) 1 0
O17 O2- 4 a 0.1489(2) 0.0619(15) 1.0395(7) 0.0085(14) 1 0
O18 O2- 4 a 0.2353(2) 0.0425(16) 1.0253(6) 0.0094(15) 1 0
O19 O2- 4 a 0.1959(2) 0.0156(16) 1.2188(6) 0.0095(15) 1 0
O20 O2- 4 a -0.0547(2) -0.3351(15) 0.9352(6) 0.0068(14) 1 0
O21 O2- 4 a 0.0140(2) -0.0290(16) 0.9236(6) 0.0082(14) 1 0
O22 O2- 4 a 0.0229(2) -0.5046(16) 0.9467(6) 0.0094(14) 1 0
O23 O2- 4 a -0.1094(2) 0.0936(16) 0.8292(6) 0.0086(14) 1 0
O24 O2- 4 a 0.0638(2) -0.1106(16) 1.0996(6) 0.0065(14) 1 0
loop_
_atom_site_aniso_label
_atom_site_aniso_type_symbol
_atom_site_aniso_U_11
_atom_site_aniso_U_22
_atom_site_aniso_U_33
_atom_site_aniso_U_12
_atom_site_aniso_U_13
_atom_site_aniso_U_23
La1 La3+ 0.0014(3) 0.0042(3) 0.0051(3) 0.00013(18) -0.0011(2) 0.0000(2)
La2 La3+ 0.0019(3) 0.0032(3) 0.0054(3) 0.00031(18) -0.0012(2) -0.00008(19)
I1 I5+ 0.0019(3) 0.0039(3) 0.0067(3) 0.0004(2) -0.0009(2) -0.0006(2)
I2 I5+ 0.0016(3) 0.0043(3) 0.0072(3) 0.0000(2) -0.0009(2) -0.0005(2)
I3 I5+ 0.0021(3) 0.0053(3) 0.0069(3) -0.0001(2) -0.0011(2) -0.0001(2)
I4 I5+ 0.0031(3) 0.0047(3) 0.0073(3) 0.0004(2) 0.0001(2) 0.0008(2)
I5 I5+ 0.0024(3) 0.0040(3) 0.0060(3) 0.0002(2) -0.0014(2) -0.0010(2)
I6 I5+ 0.0014(3) 0.0033(3) 0.0075(3) 0.0000(2) -0.0007(2) -0.0010(2)
I7 I5+ 0.0023(3) 0.0055(3) 0.0070(3) 0.0001(2) -0.0013(2) 0.0000(2)
I8 I5+ 0.0013(2) 0.0035(3) 0.0072(3) -0.0002(2) -0.0005(2) -0.0007(2)
Na1 Na1+ 0.007(2) 0.011(3) 0.018(3) -0.0001(17) -0.0032(19) -0.006(2)
Na2 Na1+ 0.010(2) 0.020(3) 0.012(2) 0.0023(19) 0.0004(19) -0.0054(19)
#End of TTdata_244004-ICSD