
#(C) 2019 by FIZ Karlsruhe - Leibniz Institute for Information Infrastructure.  All rights reserved.
data_244015-ICSD
_database_code_ICSD 244015
_audit_creation_date 2018-02-01
_chemical_name_systematic 'Sodium enneaborate'
_chemical_formula_structural 'Na2 (B8 O11 (O H)4) B (O H)3 (H2 O)2'
_chemical_formula_sum 'H11 B9 Na2 O20'
_exptl_crystal_density_diffrn 1.92
_cell_measurement_temperature 100.
_publ_section_title
'Structure and properties of sodium enneaborate, Na2[B8O11(OH)4].B(OH)3.2H2O'
loop_
_citation_id
_citation_journal_full
_citation_year
_citation_journal_volume
_citation_page_first
_citation_page_last
_citation_journal_id_ASTM
primary 'Inorganic Chemistry' 2017 56 7175 7181 INOCAJ
loop_
_publ_author_name
'Neiner, Doinita'
'Sevryugina, Yulia V.'
'Harrower, Larry S.'
'Schubert, David M.'
_cell_length_a 10.2130(8)
_cell_length_b 12.9401(10)
_cell_length_c 12.4573(10)
_cell_angle_alpha 90
_cell_angle_beta 93.070(2)
_cell_angle_gamma 90
_cell_volume 1643.95
_cell_formula_units_Z 4
_symmetry_space_group_name_H-M 'P 1 21/n 1'
_symmetry_Int_Tables_number 14
_refine_ls_R_factor_all 0.0283
loop_
_symmetry_equiv_pos_site_id
_symmetry_equiv_pos_as_xyz
1 '-x+1/2, y+1/2, -z+1/2'
2 '-x, -y, -z'
3 'x+1/2, -y+1/2, z+1/2'
4 'x, y, z'
loop_
_atom_type_symbol
_atom_type_oxidation_number
B3+ 3
Na1+ 1
O2- -2
H1+ 1
O2- -2
H1+ 1
O2- -2
H1+ 1
O2- -2
H1+ 1
O2- -2
H1+ 1
O2- -2
H1+ 1
O2- -2
H1+ 1
O2- -2
H1+ 1
O2- -2
H1+ 1
loop_
_atom_site_label
_atom_site_type_symbol
_atom_site_symmetry_multiplicity
_atom_site_Wyckoff_symbol
_atom_site_fract_x
_atom_site_fract_y
_atom_site_fract_z
_atom_site_B_iso_or_equiv
_atom_site_occupancy
_atom_site_attached_hydrogens
B1 B3+ 4 e 1.01855(10) 0.36667(8) 0.41030(9) 0.01143(19) 1 0
B2 B3+ 4 e 1.33314(9) 0.26923(8) 0.26255(8) 0.00851(17) 1 0
B3 B3+ 4 e 1.23438(9) 0.10254(8) 0.23932(8) 0.00819(18) 1 0
B4 B3+ 4 e 1.02551(9) 0.61525(8) 0.22152(8) 0.00804(17) 1 0
B5 B3+ 4 e 0.82648(10) 0.58948(8) 0.10565(8) 0.01001(18) 1 0
B6 B3+ 4 e 0.69250(10) 0.09672(8) 0.20428(8) 0.00959(18) 1 0
B7 B3+ 4 e 1.07645(9) -0.05471(7) 0.22173(8) 0.00771(17) 1 0
B8 B3+ 4 e 0.87696(10) -0.11381(8) 0.11703(8) 0.00917(18) 1 0
B9 B3+ 4 e 0.87533(9) -0.11359(8) 0.30782(8) 0.00914(18) 1 0
Na1 Na1+ 4 e 1.10839(4) 0.39302(3) 0.15604(3) 0.01214(9) 1 0
Na2 Na1+ 4 e 0.99002(4) 0.12469(3) 0.07916(3) 0.01195(9) 1 0
O1 O2- 4 e 0.97061(7) 0.34617(6) 0.30757(6) 0.01336(14) 1 0
H1 H1+ 4 e 0.8878(16) 0.3437(12) 0.3027(13) 0.026(4) 1 0
O2 O2- 4 e 1.22377(6) 0.20989(5) 0.23443(5) 0.01038(13) 1 0
O3 O2- 4 e 1.31111(6) 0.37352(5) 0.26777(5) 0.00801(12) 1 0
O4 O2- 4 e 1.14742(6) 0.55668(5) 0.23770(5) 0.00882(13) 1 0
O5 O2- 4 e 0.95920(6) 0.58153(5) 0.11900(5) 0.00996(13) 1 0
O6 O2- 4 e 1.23074(7) 0.40973(6) -0.00369(5) 0.01340(14) 1 0
H2 H1+ 4 e 1.3103(18) 0.4053(14) -0.0061(14) 0.036(4) 1 0
O7 O2- 4 e 0.94262(7) 0.30227(5) 0.05413(6) 0.01208(13) 1 0
H3 H1+ 4 e 0.9550(15) 0.3290(12) -0.0049(14) 0.025(4) 1 0
H4 H1+ 4 e 0.8632(17) 0.3184(13) 0.0685(13) 0.031(4) 1 0
O8 O2- 4 e 0.77401(6) 0.09528(6) 0.12136(6) 0.01220(14) 1 0
H5 H1+ 4 e 0.7346(18) 0.0987(14) 0.0642(15) 0.036(4) 1 0
O9 O2- 4 e 0.99954(6) -0.07288(5) 0.11995(5) 0.00819(12) 1 0
O10 O2- 4 e 1.12021(6) 0.05163(5) 0.21989(5) 0.00881(13) 1 0
O11 O2- 4 e 1.17721(7) 0.13851(6) -0.01838(6) 0.01363(14) 1 0
H6 H1+ 4 e 1.2567(18) 0.1495(13) -0.0156(13) 0.031(4) 1 0
O12 O2- 4 e 1.14822(7) 0.38840(6) 0.43006(6) 0.01417(14) 1 0
H7 H1+ 4 e 1.1910(17) 0.3886(13) 0.3765(14) 0.032(4) 1 0
O13 O2- 4 e 0.93882(7) 0.36108(6) 0.49446(6) 0.01581(15) 1 0
H8 H1+ 4 e 0.9801(18) 0.3755(13) 0.5569(15) 0.038(5) 1 0
O14 O2- 4 e 1.45151(6) 0.22639(5) 0.28475(6) 0.01099(13) 1 0
O15 O2- 4 e 0.55956(6) 0.09562(5) 0.18787(5) 0.00957(13) 1 0
O16 O2- 4 e 0.75109(6) 0.09770(6) 0.30707(5) 0.01157(13) 1 0
O17 O2- 4 e 0.80883(6) -0.13161(5) 0.20920(5) 0.00948(13) 1 0
O18 O2- 4 e 0.99556(6) -0.06911(5) 0.31489(5) 0.00834(12) 1 0
O19 O2- 4 e 0.81260(7) -0.14136(6) 0.39741(6) 0.01304(14) 1 0
H9 H1+ 4 e 0.8657(17) -0.1333(13) 0.4521(14) 0.033(4) 1 0
O20 O2- 4 e 1.00633(7) 0.10991(6) 0.43673(6) 0.01466(14) 1 0
H10 H1+ 4 e 1.0078(17) 0.0524(15) 0.3996(14) 0.039(5) 1 0
H11 H1+ 4 e 0.9909(18) 0.1556(14) 0.3878(15) 0.039(5) 1 0
loop_
_atom_site_aniso_label
_atom_site_aniso_type_symbol
_atom_site_aniso_U_11
_atom_site_aniso_U_22
_atom_site_aniso_U_33
_atom_site_aniso_U_12
_atom_site_aniso_U_13
_atom_site_aniso_U_23
B1 B3+ 0.0099(4) 0.0126(5) 0.0118(5) 0.0010(3) 0.0004(4) -0.0005(4)
B2 B3+ 0.0084(4) 0.0088(4) 0.0084(4) -0.0009(3) 0.0009(3) 0.0001(3)
B3 B3+ 0.0077(4) 0.0087(4) 0.0082(4) 0.0000(3) 0.0008(3) -0.0001(3)
B4 B3+ 0.0055(4) 0.0082(4) 0.0103(4) -0.0003(3) -0.0004(3) -0.0002(3)
B5 B3+ 0.0086(4) 0.0107(4) 0.0107(4) -0.0020(3) 0.0004(3) -0.0001(3)
B6 B3+ 0.0081(4) 0.0098(4) 0.0109(4) 0.0011(3) 0.0001(3) 0.0009(3)
B7 B3+ 0.0057(4) 0.0076(4) 0.0098(4) -0.0002(3) 0.0002(3) -0.0002(3)
B8 B3+ 0.0077(4) 0.0093(4) 0.0106(4) 0.0007(3) 0.0006(3) -0.0003(3)
B9 B3+ 0.0073(4) 0.0087(4) 0.0114(4) 0.0003(3) 0.0004(3) -0.0001(3)
Na1 Na1+ 0.01051(18) 0.01421(19) 0.01162(18) -0.00208(14) -0.00021(14)
-0.00190(14)
Na2 Na1+ 0.00827(17) 0.01420(18) 0.01347(18) 0.00123(13) 0.00146(14) 0.00286(14)
O1 O2- 0.0083(3) 0.0206(4) 0.0112(3) -0.0006(3) 0.0001(2) -0.0024(3)
O2 O2- 0.0070(3) 0.0076(3) 0.0163(3) -0.0004(2) -0.0019(2) -0.0001(2)
O3 O2- 0.0059(3) 0.0073(3) 0.0108(3) -0.0005(2) 0.0001(2) -0.0002(2)
O4 O2- 0.0063(3) 0.0078(3) 0.0123(3) 0.0002(2) 0.0000(2) -0.0003(2)
O5 O2- 0.0073(3) 0.0139(3) 0.0087(3) -0.0013(2) 0.0004(2) -0.0013(2)
O6 O2- 0.0086(3) 0.0214(4) 0.0100(3) -0.0019(3) -0.0008(2) 0.0009(3)
O7 O2- 0.0094(3) 0.0151(3) 0.0118(3) 0.0008(2) 0.0015(2) 0.0016(3)
O8 O2- 0.0076(3) 0.0194(3) 0.0097(3) 0.0011(2) 0.0009(2) 0.0022(3)
O9 O2- 0.0063(3) 0.0096(3) 0.0087(3) -0.0006(2) -0.0002(2) 0.0003(2)
O10 O2- 0.0067(3) 0.0070(3) 0.0126(3) -0.0005(2) -0.0006(2) 0.0004(2)
O11 O2- 0.0070(3) 0.0232(4) 0.0107(3) -0.0038(3) 0.0006(2) -0.0030(3)
O12 O2- 0.0089(3) 0.0243(4) 0.0094(3) -0.0023(3) 0.0018(2) -0.0018(3)
O13 O2- 0.0084(3) 0.0288(4) 0.0102(3) -0.0019(3) 0.0003(2) -0.0015(3)
O14 O2- 0.0067(3) 0.0075(3) 0.0185(3) -0.0005(2) -0.0015(2) -0.0007(2)
O15 O2- 0.0064(3) 0.0134(3) 0.0089(3) 0.0003(2) 0.0003(2) 0.0002(2)
O16 O2- 0.0067(3) 0.0182(3) 0.0098(3) 0.0001(2) 0.0003(2) 0.0002(2)
O17 O2- 0.0069(3) 0.0124(3) 0.0092(3) -0.0018(2) 0.0006(2) 0.0000(2)
O18 O2- 0.0066(3) 0.0095(3) 0.0090(3) -0.0011(2) 0.0010(2) -0.0006(2)
O19 O2- 0.0096(3) 0.0201(3) 0.0095(3) -0.0050(2) 0.0004(2) 0.0005(3)
O20 O2- 0.0157(3) 0.0155(3) 0.0125(3) 0.0006(3) -0.0028(3) -0.0037(3)
#End of TTdata_244015-ICSD