
#(C) 2019 by FIZ Karlsruhe - Leibniz Institute for Information Infrastructure.  All rights reserved.
data_244007-ICSD
_database_code_ICSD 244007
_audit_creation_date 2018-02-01
_chemical_name_systematic 'Sodium europium tetrakis(iodate)'
_chemical_formula_structural 'Na Eu (I O3)4'
_chemical_formula_sum 'Eu1 I4 Na1 O12'
_chemical_name_structure_type NaY(IO3)4
_exptl_crystal_density_diffrn 5.21
_cell_measurement_temperature 298.
_publ_section_title

;
Photoconversion mechanisms and the origin of second-harmonic generation in
metal iodates with wide transparency, NaLn(IO3)4 (Ln = La, Ce, Sm, and Eu) and
NaLa(IO3)4:Ln3+ (Ln = Sm and Eu)
;
loop_
_citation_id
_citation_journal_full
_citation_year
_citation_journal_volume
_citation_page_first
_citation_page_last
_citation_journal_id_ASTM
primary 'Inorganic Chemistry' 2017 56 6973 6981 INOCAJ
loop_
_publ_author_name
'Oh, Seung-Jin'
'Kim, Hyung-Gu'
'Jo, Hongil'
'Lim, Tae Gil'
'Yoo, Jae Soo'
'Ok, Kang Min'
_cell_length_a 31.376(3)
_cell_length_b 5.6082(4)
_cell_length_c 12.6829(10)
_cell_angle_alpha 90
_cell_angle_beta 90.981(6)
_cell_angle_gamma 90
_cell_volume 2231.39
_cell_formula_units_Z 8
_symmetry_space_group_name_H-M 'C 1 c 1'
_symmetry_Int_Tables_number 9
_refine_ls_R_factor_all 0.0469
loop_
_symmetry_equiv_pos_site_id
_symmetry_equiv_pos_as_xyz
1 'x, -y, z+1/2'
2 'x, y, z'
3 'x+1/2, -y+1/2, z+1/2'
4 'x+1/2, y+1/2, z'
loop_
_atom_type_symbol
_atom_type_oxidation_number
Eu3+ 3
I5+ 5
Na1+ 1
O2- -2
loop_
_atom_site_label
_atom_site_type_symbol
_atom_site_symmetry_multiplicity
_atom_site_Wyckoff_symbol
_atom_site_fract_x
_atom_site_fract_y
_atom_site_fract_z
_atom_site_B_iso_or_equiv
_atom_site_occupancy
_atom_site_attached_hydrogens
Eu1 Eu3+ 4 a -0.12693(3) -0.19245(16) 0.96595(6) 0.0102(2) 1 0
Eu2 Eu3+ 4 a 0.07928(3) 0.21158(15) 0.97036(6) 0.0094(2) 1 0
I1 I5+ 4 a -0.14461(4) -0.29635(18) 1.25963(8) 0.0104(3) 1 0
I2 I5+ 4 a -0.20385(4) 0.2646(2) 1.06482(9) 0.0112(3) 1 0
I3 I5+ 4 a -0.24345(4) -0.1740(2) 0.83389(8) 0.0123(3) 1 0
I4 I5+ 4 a -0.06397(4) -0.19795(19) 0.66948(8) 0.0126(3) 1 0
I5 I5+ 4 a 0.09845(4) 0.30216(19) 0.67533(8) 0.0102(2) 1 0
I6 I5+ 4 a 0.15530(4) -0.2595(2) 0.87759(9) 0.0106(2) 1 0
I7 I5+ 4 a 0.19466(4) 0.1854(2) 1.10593(8) 0.0126(3) 1 0
I8 I5+ 4 a -0.00596(4) -0.26029(18) 1.00855(9) 0.0105(2) 1 0
Na1 Na1+ 4 a -0.0382(3) 0.2733(16) 0.8549(9) 0.027(2) 1 0
Na2 Na1+ 4 a 0.0375(3) 0.7791(17) 0.7646(8) 0.028(2) 1 0
O1 O2- 4 a -0.1142(4) -0.328(2) 1.1410(9) 0.015(3) 1 0
O2 O2- 4 a -0.1219(5) -0.563(3) 1.3188(10) 0.022(3) 1 0
O3 O2- 4 a -0.1599(5) 0.060(3) 1.0914(11) 0.022(3) 1 0
O4 O2- 4 a -0.2006(4) 0.434(3) 1.1838(10) 0.019(3) 1 0
O5 O2- 4 a -0.1763(5) 0.464(3) 0.9768(10) 0.025(3) 1 0
O6 O2- 4 a -0.1928(4) -0.055(3) 0.8884(11) 0.020(3) 1 0
O7 O2- 4 a -0.2793(5) -0.006(4) 0.9152(12) 0.029(4) 1 0
O8 O2- 4 a -0.2471(5) -0.003(3) 0.7128(11) 0.023(3) 1 0
O9 O2- 4 a -0.0676(5) -0.103(3) 0.5334(9) 0.024(3) 1 0
O10 O2- 4 a -0.0257(4) -0.442(3) 0.6633(11) 0.022(3) 1 0
O11 O2- 4 a -0.0257(5) 0.018(2) 0.7165(13) 0.021(2) 1 0
O12 O2- 4 a 0.0755(4) 0.577(2) 0.6285(9) 0.013(2) 1 0
O13 O2- 4 a 0.0671(5) 0.316(3) 0.7947(10) 0.020(3) 1 0
O14 O2- 4 a 0.1089(4) -0.077(3) 0.8491(10) 0.018(3) 1 0
O15 O2- 4 a 0.1510(4) -0.449(3) 0.7604(10) 0.019(3) 1 0
O16 O2- 4 a 0.1299(4) -0.455(2) 0.9724(9) 0.016(2) 1 0
O17 O2- 4 a 0.1469(5) 0.066(2) 1.0445(11) 0.020(3) 1 0
O18 O2- 4 a 0.2302(4) 0.030(3) 1.0229(11) 0.026(3) 1 0
O19 O2- 4 a 0.1937(4) 0.001(3) 1.2224(11) 0.022(3) 1 0
O20 O2- 4 a -0.0542(4) -0.329(2) 0.9330(11) 0.019(3) 1 0
O21 O2- 4 a 0.0156(4) -0.018(2) 0.9273(9) 0.013(2) 1 0
O22 O2- 4 a 0.0237(4) -0.497(3) 0.9466(10) 0.019(3) 1 0
O23 O2- 4 a -0.1091(4) 0.086(2) 0.8274(10) 0.014(2) 1 0
O24 O2- 4 a 0.0645(4) -0.094(2) 1.1015(8) 0.013(2) 1 0
loop_
_atom_site_aniso_label
_atom_site_aniso_type_symbol
_atom_site_aniso_U_11
_atom_site_aniso_U_22
_atom_site_aniso_U_33
_atom_site_aniso_U_12
_atom_site_aniso_U_13
_atom_site_aniso_U_23
Eu1 Eu3+ 0.0092(4) 0.0141(4) 0.0072(4) 0.0015(3) -0.0009(3) 0.0001(3)
Eu2 Eu3+ 0.0095(5) 0.0116(4) 0.0072(4) 0.0006(3) -0.0014(3) 0.0000(3)
I1 I5+ 0.0098(6) 0.0121(5) 0.0093(5) 0.0009(4) -0.0009(4) -0.0015(4)
I2 I5+ 0.0107(6) 0.0127(5) 0.0103(5) 0.0003(4) -0.0003(4) -0.0009(4)
I3 I5+ 0.0097(5) 0.0171(5) 0.0099(5) 0.0004(4) -0.0017(4) -0.0005(4)
I4 I5+ 0.0117(6) 0.0153(5) 0.0107(5) 0.0006(4) 0.0022(4) 0.0014(4)
I5 I5+ 0.0097(5) 0.0126(5) 0.0083(5) 0.0002(4) -0.0013(4) -0.0015(3)
I6 I5+ 0.0082(6) 0.0129(5) 0.0107(5) -0.0001(4) -0.0006(4) -0.0007(4)
I7 I5+ 0.0112(6) 0.0163(6) 0.0103(5) -0.0004(4) -0.0015(4) -0.0005(4)
I8 I5+ 0.0083(5) 0.0125(5) 0.0106(5) -0.0008(4) -0.0002(4) -0.0015(4)
Na1 Na1+ 0.020(5) 0.024(4) 0.037(6) 0.001(3) -0.008(4) -0.007(4)
Na2 Na1+ 0.013(5) 0.041(5) 0.029(5) 0.006(3) 0.002(4) -0.010(3)
O1 O2- 0.018(7) 0.023(6) 0.004(5) 0.007(5) 0.001(4) 0.003(4)
O2 O2- 0.037(8) 0.020(7) 0.010(5) 0.009(6) 0.005(5) 0.010(5)
O3 O2- 0.021(7) 0.027(8) 0.017(6) 0.003(6) 0.003(5) -0.002(6)
O4 O2- 0.018(7) 0.021(7) 0.018(6) -0.002(5) -0.002(5) -0.010(5)
O5 O2- 0.035(8) 0.022(7) 0.017(6) -0.012(6) 0.004(5) 0.001(5)
O6 O2- 0.014(6) 0.022(7) 0.024(7) 0.001(6) -0.009(5) 0.002(6)
O7 O2- 0.023(7) 0.045(10) 0.019(7) 0.009(7) 0.002(5) -0.007(6)
O8 O2- 0.023(7) 0.032(8) 0.016(6) 0.005(6) -0.001(5) 0.007(6)
O9 O2- 0.036(8) 0.031(7) 0.004(5) 0.001(7) 0.001(5) 0.002(5)
O10 O2- 0.021(7) 0.019(7) 0.028(7) 0.010(6) 0.000(5) -0.010(5)
O11 O2- 0.014(5) 0.022(6) 0.025(5) -0.001(6) -0.006(4) -0.010(6)
O12 O2- 0.014(6) 0.013(5) 0.012(5) 0.005(5) 0.005(4) 0.006(4)
O13 O2- 0.027(8) 0.025(7) 0.008(6) -0.002(5) 0.001(5) 0.005(5)
O14 O2- 0.015(6) 0.019(7) 0.019(6) 0.011(5) -0.008(5) -0.011(5)
O15 O2- 0.014(6) 0.022(7) 0.021(6) -0.001(5) 0.005(5) -0.011(5)
O16 O2- 0.015(6) 0.020(6) 0.013(5) -0.007(5) 0.007(4) 0.002(5)
O17 O2- 0.027(7) 0.011(6) 0.020(6) 0.004(6) -0.006(5) 0.003(5)
O18 O2- 0.010(6) 0.048(10) 0.019(6) 0.013(6) -0.002(5) 0.004(6)
O19 O2- 0.018(7) 0.020(7) 0.026(7) 0.000(6) -0.006(5) 0.007(6)
O20 O2- 0.014(7) 0.020(6) 0.022(6) -0.002(5) 0.003(5) -0.007(5)
O21 O2- 0.014(6) 0.016(6) 0.010(5) -0.006(5) 0.000(4) 0.004(4)
O22 O2- 0.010(5) 0.028(7) 0.025(6) 0.005(5) 0.000(4) -0.010(5)
O23 O2- 0.004(5) 0.021(6) 0.018(6) -0.003(5) -0.001(4) 0.003(5)
O24 O2- 0.010(6) 0.020(6) 0.009(5) 0.001(5) 0.002(4) 0.008(5)
#End of TTdata_244007-ICSD