
#(C) 2019 by FIZ Karlsruhe - Leibniz Institute for Information Infrastructure.  All rights reserved.
data_24419-ICSD
_database_code_ICSD 24419
_audit_creation_date 1981-12-31
_audit_update_record 2004-10-01
_chemical_name_systematic 'Trisodium neodymium bis(borate)'
_chemical_formula_structural 'Na3 Nd (B O3)2'
_chemical_formula_sum 'B2 Na3 Nd1 O6'
_chemical_name_structure_type Na3Y(BO3)2
_exptl_crystal_density_diffrn 3.68
_publ_section_title

;
The crystal chemistry of the new rare-earth sodium borates Na3 Ln (B O2)3 (Ln
= La, Nd)
;
loop_
_citation_id
_citation_journal_full
_citation_year
_citation_journal_volume
_citation_page_first
_citation_page_last
_citation_journal_id_ASTM
primary 'Journal of Solid State Chemistry' 1981 39 288 293 JSSCBI
loop_
_publ_author_name
'Mascetti, J.'
'Classe, M.'
'Fouassier, C.'
_cell_length_a 6.618(5)
_cell_length_b 8.810(5)
_cell_length_c 12.113(5)
_cell_angle_alpha 90.
_cell_angle_beta 122.27
_cell_angle_gamma 90.
_cell_volume 597.16
_cell_formula_units_Z 4
_symmetry_space_group_name_H-M 'P 1 21/c 1'
_symmetry_Int_Tables_number 14
_refine_ls_R_factor_all 0.04
loop_
_symmetry_equiv_pos_site_id
_symmetry_equiv_pos_as_xyz
1 'x, -y+1/2, z+1/2'
2 '-x, -y, -z'
3 '-x, y+1/2, -z+1/2'
4 'x, y, z'
loop_
_atom_type_symbol
_atom_type_oxidation_number
Nd3+ 3
Na1+ 1
B3+ 3
O2- -2
loop_
_atom_site_label
_atom_site_type_symbol
_atom_site_symmetry_multiplicity
_atom_site_Wyckoff_symbol
_atom_site_fract_x
_atom_site_fract_y
_atom_site_fract_z
_atom_site_B_iso_or_equiv
_atom_site_occupancy
_atom_site_attached_hydrogens
Nd1 Nd3+ 4 e 0.01416(3) 0.11353(2) 0.35406(1) . 1. 0
Na1 Na1+ 4 e 0.4179(4) 0.8107(3) 0.3969(2) . 1. 0
Na2 Na1+ 4 e 0.1818(4) 0.2369(3) 0.1572(2) . 1. 0
Na3 Na1+ 4 e 0.387(1) 0.9378(4) 0.1068(3) . 1. 0
B1 B3+ 4 e 0.1295(8) 0.4325(5) 0.3743(4) . 1. 0
B2 B3+ 4 e 0.4180(6) 0.5986(5) 0.1389(3) . 1. 0
O1 O2- 4 e 0.1751(8) 0.3467(4) 0.4805(3) . 1. 0
O2 O2- 4 e 0.0110(6) 0.3639(3) 0.2515(3) . 1. 0
O3 O2- 4 e 0.1984(6) 0.5801(4) 0.3834(3) . 1. 0
O4 O2- 4 e 0.3775(6) 0.7105(4) 0.2048(3) . 1. 0
O5 O2- 4 e 0.2503(5) 0.4815(4) 0.0838(3) . 1. 0
O6 O2- 4 e 0.3847(6) 0.1015(5) 0.3687(4) . 1. 0
loop_
_atom_site_aniso_label
_atom_site_aniso_type_symbol
_atom_site_aniso_U_11
_atom_site_aniso_U_22
_atom_site_aniso_U_33
_atom_site_aniso_U_12
_atom_site_aniso_U_13
_atom_site_aniso_U_23
Nd1 Nd3+ 0.00449(3) 0.00546(5) 0.00480(3) 0.00029(5) 0.00285(3) 0.00047(5)
Na1 Na1+ 0.01169(67) 0.01564(87) 0.01080(63) -.00259(59) 0.00545(55) -.00317(57)
Na2 Na1+ 0.01804(83) 0.01505(87) 0.01036(63) 0.00458(66) 0.00961(63) 0.00165(57)
Na3 Na1+ 0.09910(368) 0.02196(148) 0.01200(101) 0.01812(191) 0.01705(167)
0.00487(97)
B1 B3+ 0.01272(126) 0.00690(143) 0.00737(105) -.00092(104) 0.00537(99)
0.00078(94)
B2 B3+ 0.00531(88) 0.00836(153) 0.00655(93) -.00065(84) 0.00326(77) -.00051(87)
O1 O2- 0.03349(185) 0.01098(120) 0.00753(79) -.00571(125) 0.00956(102)
0.00024(81)
O2 O2- 0.01569(98) 0.00798(99) 0.00784(65) -.00043(70) 0.00638(68) -.00027(58)
O3 O2- 0.03382(200) 0.01018(122) 0.00828(91) -.00936(124) 0.00592(112)
0.00022(81)
O4 O2- 0.01122(92) 0.01575(133) 0.01806(112) -.00431(84) 0.01016(89) -.00930(95)
O5 O2- 0.00856(77) 0.01199(113) 0.01259(89) -.0031(7) 0.00636(71) -.00406(76)
O6 O2- 0.00968(89) 0.02339(173) 0.02232(142) 0.00539(101) 0.01165(101)
0.01003(128)
#End of TTdata_24419-ICSD