
#(C) 2019 by FIZ Karlsruhe - Leibniz Institute for Information Infrastructure.  All rights reserved.
data_244134-ICSD
_database_code_ICSD 244134
_audit_creation_date 2018-02-01
_chemical_name_systematic 'Tetrasodium rubidium diborotriphosphate'
_chemical_formula_structural 'Na4 Rb B2 P3 O13'
_chemical_formula_sum 'B2 Na4 O13 P3 Rb1'
_exptl_crystal_density_diffrn 2.75
_cell_measurement_temperature 293.
_publ_section_title

;
Low-temperature-flux syntheses of ultraviolet-transparent borophosphates
Na4MB2P3O13 (M = Rb, Cs) exhibiting a second-harmonic generation response
;
loop_
_citation_id
_citation_journal_full
_citation_year
_citation_journal_volume
_citation_page_first
_citation_page_last
_citation_journal_id_ASTM
primary 'Dalton Transactions' 2017 46 12605 12611 DTARAF
loop_
_publ_author_name
'Wu, Chao'
'Li, Longhua'
'Yang, Gang'
'Song, Junling'
'Yan, Bing'
'Humphrey, Marc G.'
'Zhang, Long'
'Shao, Jianda'
'Zhang, Chi'
_cell_length_a 24.0348(9)
_cell_length_b 6.7464(2)
_cell_length_c 14.9206(6)
_cell_angle_alpha 90.
_cell_angle_beta 90.
_cell_angle_gamma 90.
_cell_volume 2419.35
_cell_formula_units_Z 8
_symmetry_space_group_name_H-M 'P n a 21'
_symmetry_Int_Tables_number 33
_refine_ls_R_factor_all 0.0432
loop_
_symmetry_equiv_pos_site_id
_symmetry_equiv_pos_as_xyz
1 'x+1/2, -y+1/2, z'
2 '-x+1/2, y+1/2, z+1/2'
3 '-x, -y, z+1/2'
4 'x, y, z'
loop_
_atom_type_symbol
_atom_type_oxidation_number
P5+ 5
O2- -2
B3+ 3
P5+ 5
O2- -2
B3+ 3
Rb1+ 1
Na1+ 1
loop_
_atom_site_label
_atom_site_type_symbol
_atom_site_symmetry_multiplicity
_atom_site_Wyckoff_symbol
_atom_site_fract_x
_atom_site_fract_y
_atom_site_fract_z
_atom_site_B_iso_or_equiv
_atom_site_occupancy
_atom_site_attached_hydrogens
P1 P5+ 4 a -0.82341(10) -0.7257(2) 0.37929(15) 0.0071(5) 1 0
P2 P5+ 4 a -0.77972(10) -0.7249(3) 0.62551(16) 0.0101(5) 1 0
P3 P5+ 4 a -0.67740(9) -0.2059(2) 0.48967(14) 0.0049(4) 1 0
O1 O2- 4 a -0.79629(19) -0.5212(7) 0.4039(3) 0.0085(10) 1 0
O2 O2- 4 a -0.6350(2) -0.2973(7) 0.4293(4) 0.0136(11) 1 0
O3 O2- 4 a -0.7353(3) -0.6901(10) 0.6944(6) 0.0335(16) 1 0
O4 O2- 4 a -0.8348(3) -0.7284(8) 0.2816(5) 0.0168(15) 1 0
O5 O2- 4 a -0.6621(3) -0.2090(8) 0.5890(5) 0.0186(15) 1 0
O6 O2- 4 a -0.7133(2) -0.6520(7) 0.4714(4) 0.0093(10) 1 0
O7 O2- 4 a -0.7606(2) -0.8946(7) 0.5609(4) 0.0159(12) 1 0
O8 O2- 4 a -0.7367(2) -0.3022(7) 0.4746(4) 0.0124(10) 1 0
O9 O2- 4 a -0.68715(19) 0.0123(6) 0.4566(3) 0.0085(9) 1 0
O10 O2- 4 a -0.7866(2) -0.5325(7) 0.5668(3) 0.0136(11) 1 0
O11 O2- 4 a -0.8728(3) -0.7615(7) 0.4387(4) 0.0128(13) 1 0
O12 O2- 4 a -0.7760(2) -0.8816(7) 0.3995(3) 0.0094(10) 1 0
O13 O2- 4 a -0.8362(3) -0.7815(8) 0.6602(4) 0.0256(15) 1 0
B1 B3+ 4 a -0.7549(3) -0.5047(10) 0.4788(5) 0.0083(14) 1 0
B2 B3+ 4 a -0.7334(3) -0.8500(11) 0.4729(6) 0.0097(16) 1 0
P4 P5+ 4 a -0.52839(10) -0.7408(3) 0.59881(16) 0.0098(5) 1 0
P5 P5+ 4 a -0.57403(10) -0.7346(2) 0.84506(15) 0.0060(5) 1 0
P6 P5+ 4 a -0.42740(10) -1.2586(2) 0.73544(15) 0.0066(4) 1 0
O14 O2- 4 a -0.5845(3) -0.6835(9) 0.5639(4) 0.0260(14) 1 0
O15 O2- 4 a -0.5468(2) -0.9391(7) 0.8207(3) 0.0094(10) 1 0
O16 O2- 4 a -0.5857(3) -0.7287(7) 0.9447(5) 0.0163(16) 1 0
O17 O2- 4 a -0.46291(19) -0.8129(6) 0.7562(3) 0.0073(10) 1 0
O18 O2- 4 a -0.5356(2) -0.9312(6) 0.6591(3) 0.0104(10) 1 0
O19 O2- 4 a -0.4855(2) -1.1624(7) 0.7548(3) 0.0107(10) 1 0
O20 O2- 4 a -0.5088(2) -0.5701(7) 0.6635(4) 0.0167(12) 1 0
O21 O2- 4 a -0.3832(2) -1.1712(7) 0.7944(4) 0.0152(11) 1 0
O22 O2- 4 a -0.6230(2) -0.7010(7) 0.7850(4) 0.0103(11) 1 0
O23 O2- 4 a -0.5260(2) -0.5796(7) 0.8236(4) 0.0122(11) 1 0
O24 O2- 4 a -0.43691(18) -1.4759(6) 0.7702(3) 0.0077(9) 1 0
O25 O2- 4 a -0.4837(3) -0.7790(9) 0.5300(6) 0.0321(17) 1 0
O26 O2- 4 a -0.4146(3) -1.2516(7) 0.6385(5) 0.0141(14) 1 0
B3 B3+ 4 a -0.5046(3) -0.9585(10) 0.7472(6) 0.0094(15) 1 0
B4 B3+ 4 a -0.4825(3) -0.6126(10) 0.7523(6) 0.0082(15) 1 0
Rb1 Rb1+ 4 a -0.72264(4) -0.71653(13) 0.20235(8) 0.0300(3) 1 0
Rb2 Rb1+ 4 a -0.52750(5) -1.24614(12) 0.52271(9) 0.0306(3) 1 0
Na1 Na1+ 4 a -0.79004(14) -1.1999(4) 0.3448(2) 0.0128(7) 1 0
Na2 Na1+ 4 a -0.62402(12) -0.6513(4) 0.4268(2) 0.0160(6) 1 0
Na3 Na1+ 4 a -0.86045(15) -1.4617(5) 0.1829(3) 0.0250(8) 1 0
Na4 Na1+ 4 a -0.85516(17) -0.9849(5) 0.1726(3) 0.0251(8) 1 0
Na5 Na1+ 4 a -0.60847(15) -0.9986(4) 0.0394(3) 0.0217(8) 1 0
Na6 Na1+ 4 a -0.96032(16) -0.7598(4) 0.3804(3) 0.0132(7) 1 0
Na7 Na1+ 4 a -0.60571(17) -1.4739(5) 0.0529(3) 0.0283(9) 1 0
Na8 Na1+ 4 a -0.62700(12) -1.1719(4) 0.2910(2) 0.0148(6) 1 0
loop_
_atom_site_aniso_label
_atom_site_aniso_type_symbol
_atom_site_aniso_U_11
_atom_site_aniso_U_22
_atom_site_aniso_U_33
_atom_site_aniso_U_12
_atom_site_aniso_U_13
_atom_site_aniso_U_23
P1 P5+ 0.0069(12) 0.0060(8) 0.0085(12) 0.0004(6) -0.0012(9) 0.0005(6)
P2 P5+ 0.0130(12) 0.0099(9) 0.0076(12) -0.0013(7) -0.0002(9) 0.0000(7)
P3 P5+ 0.0039(9) 0.0054(7) 0.0053(9) -0.0003(6) 0.0003(8) 0.0000(6)
O1 O2- 0.008(2) 0.005(2) 0.012(3) -0.0018(17) -0.005(2) 0.0026(18)
O2 O2- 0.0135(14) 0.0138(13) 0.0135(14) 0.0017(9) 0.0025(9) 0.0012(9)
O3 O2- 0.044(4) 0.037(3) 0.020(4) -0.012(3) -0.020(4) 0.003(3)
O4 O2- 0.020(4) 0.022(3) 0.008(3) -0.002(2) 0.000(3) -0.003(2)
O5 O2- 0.035(4) 0.011(3) 0.009(3) -0.001(2) -0.011(3) -0.002(2)
O6 O2- 0.006(2) 0.005(2) 0.018(3) -0.0012(18) 0.000(2) 0.0020(19)
O7 O2- 0.025(3) 0.008(2) 0.015(3) 0.003(2) 0.013(2) 0.0019(19)
O8 O2- 0.0111(13) 0.0111(13) 0.0151(13) -0.0009(9) -0.0015(9) 0.0005(9)
O9 O2- 0.0084(12) 0.0071(12) 0.0099(12) 0.0009(9) 0.0006(9) 0.0012(9)
O10 O2- 0.021(3) 0.010(2) 0.010(3) 0.0037(19) 0.003(2) 0.0011(18)
O11 O2- 0.012(3) 0.014(2) 0.012(3) -0.0028(19) 0.001(2) 0.0011(19)
O12 O2- 0.0091(13) 0.0085(12) 0.0105(13) 0.0011(9) -0.0007(9) -0.0008(9)
O13 O2- 0.029(4) 0.024(3) 0.023(3) -0.007(3) 0.020(3) -0.009(2)
B1 B3+ 0.008(4) 0.005(3) 0.012(4) 0.005(3) 0.003(3) 0.002(3)
B2 B3+ 0.007(4) 0.007(3) 0.015(4) 0.001(3) 0.003(3) 0.000(3)
P4 P5+ 0.0145(13) 0.0089(9) 0.0062(12) 0.0002(6) -0.0014(9) 0.0009(6)
P5 P5+ 0.0061(12) 0.0055(8) 0.0065(11) 0.0007(6) 0.0006(9) 0.0006(6)
P6 P5+ 0.0067(10) 0.0048(7) 0.0083(10) 0.0000(6) 0.0001(8) 0.0002(6)
O14 O2- 0.026(4) 0.022(3) 0.030(4) 0.003(3) -0.014(3) 0.001(3)
O15 O2- 0.010(2) 0.004(2) 0.014(3) 0.0001(18) 0.002(2) -0.0003(17)
O16 O2- 0.024(4) 0.017(3) 0.007(3) 0.004(2) 0.009(3) -0.002(2)
O17 O2- 0.004(2) 0.003(2) 0.016(3) 0.0011(17) 0.000(2) 0.0017(18)
O18 O2- 0.017(3) 0.005(2) 0.010(2) -0.0060(18) -0.004(2) 0.0005(16)
O19 O2- 0.0098(12) 0.0098(12) 0.0126(13) 0.0006(9) 0.0015(9) -0.0002(9)
O20 O2- 0.027(3) 0.005(2) 0.019(3) -0.005(2) -0.012(3) 0.0055(18)
O21 O2- 0.017(3) 0.009(2) 0.019(3) -0.007(2) -0.012(2) 0.002(2)
O22 O2- 0.004(3) 0.012(2) 0.015(3) 0.000(2) -0.002(2) 0.000(2)
O23 O2- 0.008(2) 0.004(2) 0.025(3) 0.0001(17) 0.006(2) -0.0043(19)
O24 O2- 0.0075(12) 0.0069(12) 0.0088(12) -0.0004(9) -0.0012(9) 0.0016(9)
O25 O2- 0.035(4) 0.037(3) 0.025(4) 0.005(3) 0.020(3) 0.005(3)
O26 O2- 0.026(4) 0.010(3) 0.006(3) 0.0003(19) 0.008(3) -0.0011(18)
B3 B3+ 0.008(4) 0.006(3) 0.015(4) 0.000(3) 0.001(3) 0.001(3)
B4 B3+ 0.008(4) 0.004(3) 0.013(4) 0.001(3) -0.003(3) -0.001(3)
Rb1 Rb1+ 0.0247(6) 0.0259(4) 0.0393(7) 0.0018(3) 0.0018(5) 0.0009(4)
Rb2 Rb1+ 0.0258(6) 0.0264(4) 0.0397(7) -0.0006(3) 0.0009(5) -0.0041(4)
Na1 Na1+ 0.0139(17) 0.0110(13) 0.0136(17) 0.0003(12) -0.0052(14) 0.0010(12)
Na2 Na1+ 0.0119(15) 0.0199(15) 0.0163(15) 0.0047(12) 0.0003(12) -0.0038(12)
Na3 Na1+ 0.0308(19) 0.0216(14) 0.023(2) 0.0118(13) -0.0062(16) -0.0104(15)
Na4 Na1+ 0.040(2) 0.0168(15) 0.0181(19) -0.0114(14) -0.0047(16) 0.0085(12)
Na5 Na1+ 0.0284(18) 0.0167(14) 0.0201(19) -0.0104(12) 0.0041(15) -0.0074(13)
Na6 Na1+ 0.0154(17) 0.0101(13) 0.0141(17) -0.0020(10) -0.0052(14) 0.0012(10)
Na7 Na1+ 0.044(2) 0.0202(16) 0.020(2) 0.0149(15) 0.0070(17) 0.0074(13)
Na8 Na1+ 0.0120(14) 0.0197(15) 0.0128(15) -0.0040(12) -0.0009(11) 0.0027(11)
#End of TTdata_244134-ICSD