
#(C) 2019 by FIZ Karlsruhe - Leibniz Institute for Information Infrastructure.  All rights reserved.
data_244133-ICSD
_database_code_ICSD 244133
_audit_creation_date 2018-02-01
_chemical_name_systematic 'Tetrasodium cesium diborotriphosphate'
_chemical_formula_structural 'Na4 Cs B2 P3 O13'
_chemical_formula_sum 'B2 Cs1 Na4 O13 P3'
_exptl_crystal_density_diffrn 2.97
_cell_measurement_temperature 293.
_publ_section_title

;
Low-temperature-flux syntheses of ultraviolet-transparent borophosphates
Na4MB2P3O13 (M = Rb, Cs) exhibiting a second-harmonic generation response
;
loop_
_citation_id
_citation_journal_full
_citation_year
_citation_journal_volume
_citation_page_first
_citation_page_last
_citation_journal_id_ASTM
primary 'Dalton Transactions' 2017 46 12605 12611 DTARAF
loop_
_publ_author_name
'Wu, Chao'
'Li, Longhua'
'Yang, Gang'
'Song, Junling'
'Yan, Bing'
'Humphrey, Marc G.'
'Zhang, Long'
'Shao, Jianda'
'Zhang, Chi'
_cell_length_a 24.5034(9)
_cell_length_b 6.7673(2)
_cell_length_c 14.7803(5)
_cell_angle_alpha 90.
_cell_angle_beta 90.
_cell_angle_gamma 90.
_cell_volume 2450.89
_cell_formula_units_Z 8
_symmetry_space_group_name_H-M 'P n a 21'
_symmetry_Int_Tables_number 33
_refine_ls_R_factor_all 0.0282
loop_
_symmetry_equiv_pos_site_id
_symmetry_equiv_pos_as_xyz
1 'x+1/2, -y+1/2, z'
2 '-x+1/2, y+1/2, z+1/2'
3 '-x, -y, z+1/2'
4 'x, y, z'
loop_
_atom_type_symbol
_atom_type_oxidation_number
P5+ 5
O2- -2
B3+ 3
P5+ 5
O2- -2
B3+ 3
Cs1+ 1
Na1+ 1
loop_
_atom_site_label
_atom_site_type_symbol
_atom_site_symmetry_multiplicity
_atom_site_Wyckoff_symbol
_atom_site_fract_x
_atom_site_fract_y
_atom_site_fract_z
_atom_site_B_iso_or_equiv
_atom_site_occupancy
_atom_site_attached_hydrogens
P1 P5+ 4 a -0.78140(8) -0.7231(2) 0.27336(13) 0.0121(4) 1 0
P2 P5+ 4 a -0.82696(8) -0.72625(19) 0.02830(13) 0.0077(4) 1 0
P3 P5+ 4 a -0.68233(7) -1.20610(19) 0.13424(12) 0.0092(3) 1 0
O1 O2- 4 a -0.6653(2) -1.2099(6) 0.2304(4) 0.0170(12) 1 0
O2 O2- 4 a -0.79896(15) -0.5225(5) 0.0500(3) 0.0090(8) 1 0
O3 O2- 4 a -0.71716(14) -0.6520(5) 0.1152(3) 0.0085(8) 1 0
O4 O2- 4 a -0.78020(14) -0.8824(5) 0.0475(3) 0.0094(8) 1 0
O5 O2- 4 a -0.7383(2) -0.6862(7) 0.3444(4) 0.0355(14) 1 0
O6 O2- 4 a -0.8406(2) -0.7306(6) -0.0705(4) 0.0160(12) 1 0
O7 O2- 4 a -0.76234(16) -0.8919(5) 0.2086(3) 0.0145(9) 1 0
O8 O2- 4 a -0.64228(15) -1.3007(5) 0.0717(3) 0.0139(9) 1 0
O9 O2- 4 a -0.74029(15) -1.3022(5) 0.1210(3) 0.0120(8) 1 0
O10 O2- 4 a -0.69249(14) -0.9890(5) 0.1010(3) 0.0115(8) 1 0
O11 O2- 4 a -0.78820(15) -0.5339(5) 0.2134(3) 0.0121(8) 1 0
O12 O2- 4 a -0.8369(2) -0.7763(6) 0.3085(4) 0.0247(12) 1 0
O13 O2- 4 a -0.8736(2) -0.7571(5) 0.0927(4) 0.0126(10) 1 0
B1 B3+ 4 a -0.7366(2) -0.8507(9) 0.1185(4) 0.0080(12) 1 0
B2 B3+ 4 a -0.7580(3) -0.5053(8) 0.1255(4) 0.0099(12) 1 0
P4 P5+ 4 a -0.52960(8) -0.73340(19) 0.24824(14) 0.0124(4) 1 0
P5 P5+ 4 a -0.57718(8) -0.73205(19) 0.49338(14) 0.0089(4) 1 0
P6 P5+ 4 a -0.43200(8) -0.25415(18) 0.38909(13) 0.0111(4) 1 0
O14 O2- 4 a -0.4866(2) -0.7688(6) 0.1796(4) 0.0286(13) 1 0
O15 O2- 4 a -0.5849(2) -0.6777(6) 0.2123(3) 0.0266(11) 1 0
O16 O2- 4 a -0.53770(14) -0.9233(5) 0.3094(3) 0.0098(8) 1 0
O17 O2- 4 a -0.51095(17) -0.5644(5) 0.3140(3) 0.0166(9) 1 0
O18 O2- 4 a -0.62431(18) -0.7024(5) 0.4301(3) 0.0106(9) 1 0
O19 O2- 4 a -0.5918(2) -0.7246(5) 0.5916(4) 0.0174(12) 1 0
O20 O2- 4 a -0.53070(14) -0.5764(5) 0.4747(3) 0.0114(8) 1 0
O21 O2- 4 a -0.54940(15) -0.9354(5) 0.4720(3) 0.0088(8) 1 0
O22 O2- 4 a -0.4165(2) -0.2499(5) 0.2916(4) 0.0149(12) 1 0
O23 O2- 4 a -0.44212(14) -0.4701(5) 0.4240(2) 0.0092(7) 1 0
O24 O2- 4 a -0.48917(14) -0.1562(5) 0.4031(3) 0.0109(7) 1 0
O25 O2- 4 a -0.39054(16) -0.1648(6) 0.4508(3) 0.0162(9) 1 0
O26 O2- 4 a -0.46644(14) -0.8059(5) 0.4084(3) 0.0092(8) 1 0
B3 B3+ 4 a -0.4867(3) -0.6062(8) 0.4035(4) 0.0091(12) 1 0
B4 B3+ 4 a -0.5076(2) -0.9508(8) 0.3975(4) 0.0074(11) 1 0
Cs1 Cs1+ 4 a -0.779993(18) -1.21037(5) 0.36211(2) 0.02011(10) 1 0
Cs2 Cs1+ 4 a -0.529711(18) -1.23628(5) 0.15879(3) 0.02040(11) 1 0
Na1 Na1+ 4 a -0.70853(11) -0.6991(3) 0.49212(19) 0.0146(5) 1 0
Na2 Na1+ 4 a -0.63840(12) -0.9663(4) 0.3295(2) 0.0297(7) 1 0
Na3 Na1+ 4 a -0.61020(12) -0.9917(4) 0.6903(2) 0.0271(7) 1 0
Na4 Na1+ 4 a -0.62758(9) -0.6536(4) 0.07823(15) 0.0189(5) 1 0
Na5 Na1+ 4 a -0.89655(13) -0.9737(4) 0.2050(2) 0.0312(7) 1 0
Na6 Na1+ 4 a -0.64481(14) -1.4809(4) 0.3196(2) 0.0325(7) 1 0
Na7 Na1+ 4 a -0.87682(9) -0.6753(3) 0.43700(15) 0.0166(5) 1 0
Na8 Na1+ 4 a -0.54166(11) -1.2579(3) 0.5292(2) 0.0144(6) 1 0
loop_
_atom_site_aniso_label
_atom_site_aniso_type_symbol
_atom_site_aniso_U_11
_atom_site_aniso_U_22
_atom_site_aniso_U_33
_atom_site_aniso_U_12
_atom_site_aniso_U_13
_atom_site_aniso_U_23
P1 P5+ 0.0163(11) 0.0128(7) 0.0074(11) 0.0007(5) 0.0018(8) 0.0002(5)
P2 P5+ 0.0073(10) 0.0078(6) 0.0080(10) -0.0003(5) -0.0013(8) -0.0008(5)
P3 P5+ 0.0078(8) 0.0087(6) 0.0111(9) -0.0001(5) 0.0007(7) -0.0007(5)
O1 O2- 0.023(3) 0.0142(19) 0.014(3) -0.0024(18) -0.007(2) 0.0028(17)
O2 O2- 0.0076(19) 0.0050(15) 0.014(2) -0.0010(13) -0.0039(16) 0.0022(14)
O3 O2- 0.0028(19) 0.0065(16) 0.016(2) -0.0003(14) -0.0027(15) 0.0018(15)
O4 O2- 0.0053(19) 0.0068(16) 0.0161(19) 0.0016(13) -0.0033(16) -0.0010(14)
O5 O2- 0.055(4) 0.033(2) 0.018(3) -0.006(2) -0.024(3) -0.002(2)
O6 O2- 0.021(3) 0.020(2) 0.007(3) -0.0003(16) -0.007(3) -0.0012(16)
O7 O2- 0.019(2) 0.0098(17) 0.014(2) 0.0013(15) 0.0073(18) 0.0046(15)
O8 O2- 0.013(2) 0.0116(18) 0.017(2) 0.0062(15) 0.0055(17) 0.0012(16)
O9 O2- 0.0076(18) 0.0044(16) 0.024(2) -0.0028(13) -0.0046(16) -0.0017(15)
O10 O2- 0.0061(18) 0.0092(16) 0.0193(19) 0.0010(13) 0.0030(15) 0.0022(15)
O11 O2- 0.019(2) 0.0084(17) 0.0086(18) 0.0035(14) 0.0054(17) 0.0021(14)
O12 O2- 0.028(3) 0.021(2) 0.025(3) -0.0012(18) 0.018(2) -0.0034(19)
O13 O2- 0.010(2) 0.0104(18) 0.017(3) -0.0005(13) 0.003(2) 0.0022(15)
B1 B3+ 0.003(3) 0.010(3) 0.011(3) 0.002(2) -0.003(2) -0.001(2)
B2 B3+ 0.0084(18) 0.0089(18) 0.0122(19) 0.0022(15) -0.0014(16) 0.0009(15)
P4 P5+ 0.0190(11) 0.0101(7) 0.0081(11) -0.0011(5) 0.0003(8) 0.0010(5)
P5 P5+ 0.0103(10) 0.0071(6) 0.0093(11) 0.0003(5) 0.0004(8) 0.0013(5)
P6 P5+ 0.0130(9) 0.0098(6) 0.0106(9) -0.0004(5) 0.0010(7) 0.0001(5)
O14 O2- 0.040(3) 0.028(2) 0.017(3) -0.0023(18) 0.017(2) 0.0025(18)
O15 O2- 0.027(3) 0.020(2) 0.032(3) 0.004(2) -0.017(2) 0.001(2)
O16 O2- 0.012(2) 0.0098(16) 0.0081(18) -0.0023(14) -0.0016(17) 0.0012(14)
O17 O2- 0.026(2) 0.0106(18) 0.013(2) -0.0041(16) -0.0119(19) 0.0029(15)
O18 O2- 0.008(2) 0.0111(18) 0.012(2) 0.0004(15) -0.0017(19) 0.0000(17)
O19 O2- 0.021(3) 0.017(2) 0.014(3) 0.0032(17) 0.004(3) -0.0015(16)
O20 O2- 0.009(2) 0.0074(17) 0.017(2) -0.0006(13) 0.0023(17) -0.0022(14)
O21 O2- 0.0087(19) 0.0059(16) 0.0118(19) 0.0005(13) 0.0044(16) -0.0010(13)
O22 O2- 0.023(3) 0.012(2) 0.010(3) 0.0009(15) 0.008(2) 0.0016(15)
O23 O2- 0.0076(18) 0.0048(15) 0.0151(18) -0.0009(13) -0.0052(15) 0.0027(14)
O24 O2- 0.0089(18) 0.0045(15) 0.0193(19) -0.0015(14) 0.0029(16) 0.0006(15)
O25 O2- 0.021(2) 0.0085(17) 0.019(2) -0.0066(16) -0.0066(18) 0.0042(17)
O26 O2- 0.007(2) 0.0027(16) 0.018(2) -0.0009(13) -0.0009(16) 0.0004(15)
B3 B3+ 0.0079(19) 0.0083(17) 0.0110(19) 0.0021(15) -0.0006(16) 0.0021(15)
B4 B3+ 0.004(3) 0.006(3) 0.013(3) 0.003(2) 0.002(2) 0.002(2)
Cs1 Cs1+ 0.0170(2) 0.01842(15) 0.0249(2) -0.00079(15) -0.0028(2) 0.00282(18)
Cs2 Cs1+ 0.0171(2) 0.01887(16) 0.0253(3) -0.00164(14) 0.0034(2) -0.00406(17)
Na1 Na1+ 0.0186(14) 0.0109(10) 0.0141(14) 0.0010(9) 0.0050(12) 0.0019(10)
Na2 Na1+ 0.0371(16) 0.0305(13) 0.0217(15) -0.0189(11) 0.0089(13) -0.0110(11)
Na3 Na1+ 0.0385(17) 0.0251(12) 0.0177(15) -0.0169(11) 0.0060(13) -0.0097(10)
Na4 Na1+ 0.0143(12) 0.0278(12) 0.0146(12) 0.0084(10) -0.0031(9) -0.0058(10)
Na5 Na1+ 0.0495(19) 0.0219(12) 0.0223(15) -0.0156(12) -0.0048(14) 0.0078(11)
Na6 Na1+ 0.056(2) 0.0224(12) 0.0188(15) 0.0164(12) 0.0076(14) 0.0053(11)
Na7 Na1+ 0.0133(11) 0.0237(12) 0.0127(11) 0.0045(10) 0.0001(9) 0.0040(9)
Na8 Na1+ 0.0181(14) 0.0099(10) 0.0152(14) -0.0002(8) 0.0047(12) 0.0003(9)
#End of TTdata_244133-ICSD