
#(C) 2019 by FIZ Karlsruhe - Leibniz Institute for Information Infrastructure.  All rights reserved.
data_244244-ICSD
_database_code_ICSD 244244
_audit_creation_date 2018-02-01
_chemical_name_systematic 'Magnesium disodium bis(selenate(VI)) dihydrate'
_chemical_formula_structural 'Na2 Mg (Se O4)2 (H2 O)2'
_chemical_formula_sum 'H4 Mg1 Na2 O10 Se2'
_chemical_name_structure_type Fairfieldite-Ca2Mn(PO4)2
_exptl_crystal_density_diffrn 3.13
_cell_measurement_temperature 200.
_publ_section_title

;
Crystal structures of sodium magnesium selenate decahydrate,
Na2Mg(SeO4)2.10H2O, a new selenate salt, and sodium magnesium selenate
dihydrate, Na2Mg(SeO4)2.2H2O
;
loop_
_citation_id
_citation_journal_full
_citation_year
_citation_journal_volume
_citation_page_first
_citation_page_last
_citation_journal_id_ASTM
primary 'Acta Crystallographica, Section C: Structural Chemistry' 2017 73 582
587 ACSCGG
loop_
_publ_author_name
'Kamburov, Stoyan'
'Schmidt, Horst'
'Voigt, Wolfgang'
'Balarew, Christo'
_cell_length_a 5.556(4)
_cell_length_b 5.923(4)
_cell_length_c 7.224(5)
_cell_angle_alpha 108.36(6)
_cell_angle_beta 99.07(5)
_cell_angle_gamma 106.63(6)
_cell_volume 208.01
_cell_formula_units_Z 1
_symmetry_space_group_name_H-M 'P -1'
_symmetry_Int_Tables_number 2
_refine_ls_R_factor_all 0.0321
loop_
_symmetry_equiv_pos_site_id
_symmetry_equiv_pos_as_xyz
1 '-x, -y, -z'
2 'x, y, z'
loop_
_atom_type_symbol
_atom_type_oxidation_number
Se6+ 6
Mg2+ 2
O2- -2
Na1+ 1
H1+ 1
loop_
_atom_site_label
_atom_site_type_symbol
_atom_site_symmetry_multiplicity
_atom_site_Wyckoff_symbol
_atom_site_fract_x
_atom_site_fract_y
_atom_site_fract_z
_atom_site_B_iso_or_equiv
_atom_site_occupancy
_atom_site_attached_hydrogens
Se1 Se6+ 2 i 0.33844(11) 0.16724(12) 0.25986(9) 0.0128(2) 1 0
Mg1 Mg2+ 1 g 0. 0.5 0.5 0.0138(6) 1 0
O1 O2- 2 i -0.0653(9) 0.5420(10) 0.2307(7) 0.0160(9) 1 0
O2 O2- 2 i 0.2829(8) -0.1330(8) 0.1244(7) 0.0176(9) 1 0
O3 O2- 2 i 0.1053(8) 0.1752(9) 0.3768(7) 0.0183(9) 1 0
O4 O2- 2 i 0.3541(8) 0.3371(9) 0.1210(7) 0.0182(9) 1 0
O5 O2- 2 i 0.6138(8) 0.2620(9) 0.4357(7) 0.0189(9) 1 0
Na1 Na1+ 2 i 0.6657(5) 0.7902(5) 0.2476(4) 0.0234(6) 1 0
H1 H1+ 2 i 0.06(2) 0.63(2) 0.210(15) 0.04(3) 1 0
H2 H1+ 2 i -0.125(16) 0.412(18) 0.133(14) 0.03(2) 1 0
loop_
_atom_site_aniso_label
_atom_site_aniso_type_symbol
_atom_site_aniso_U_11
_atom_site_aniso_U_22
_atom_site_aniso_U_33
_atom_site_aniso_U_12
_atom_site_aniso_U_13
_atom_site_aniso_U_23
Se1 Se6+ 0.0094(3) 0.0159(3) 0.0131(3) 0.0045(2) 0.0032(2) 0.0054(2)
Mg1 Mg2+ 0.0115(13) 0.0181(15) 0.0120(14) 0.0052(11) 0.0026(11) 0.0063(12)
O1 O2- 0.013(2) 0.017(2) 0.013(2) 0.0016(18) 0.0009(18) 0.004(2)
O2 O2- 0.018(2) 0.017(2) 0.016(2) 0.0076(18) 0.0060(17) 0.0026(19)
O3 O2- 0.015(2) 0.020(2) 0.024(2) 0.0087(18) 0.0101(18) 0.008(2)
O4 O2- 0.017(2) 0.025(2) 0.019(2) 0.0090(19) 0.0056(18) 0.014(2)
O5 O2- 0.0113(19) 0.022(2) 0.021(2) 0.0026(17) 0.0007(17) 0.010(2)
Na1 Na1+ 0.0193(12) 0.0256(14) 0.0284(15) 0.0111(11) 0.0055(11) 0.0120(12)
#End of TTdata_244244-ICSD