
#(C) 2019 by FIZ Karlsruhe - Leibniz Institute for Information Infrastructure.  All rights reserved.
data_244253-ICSD
_database_code_ICSD 244253
_audit_creation_date 2018-02-01
_chemical_name_systematic 'Trisodium zinc magnesium pentaborate'
_chemical_formula_structural 'Na3 Zn0.845 Mg0.155 B5 O10'
_chemical_formula_sum 'B5 Mg0.155 Na3 O10 Zn0.845'
_chemical_name_structure_type Na3MgB5O10
_exptl_crystal_density_diffrn 2.6
_cell_measurement_temperature 293.
_publ_section_title

;
Crystal structures of the solid solutions Na3Zn0.912Cd0.088B5O10 and
Na3Zn0.845Mg0.155B5O10
;
loop_
_citation_id
_citation_journal_full
_citation_year
_citation_journal_volume
_citation_page_first
_citation_page_last
_citation_journal_id_ASTM
primary 'Acta Crystallographica, Section E: Crystallographic Communications'
2017 73 1774 1778 ACSECI
loop_
_publ_author_name
'Chen, Xue-An'
'Zhang, Ya-Hua'
'Chang, Xin-An'
'Xiao, Wei-Qiang'
_cell_length_a 7.8931(12)
_cell_length_b 12.2555(12)
_cell_length_c 18.0874(11)
_cell_angle_alpha 90
_cell_angle_beta 90
_cell_angle_gamma 90
_cell_volume 1749.66
_cell_formula_units_Z 8
_symmetry_space_group_name_H-M 'P b c a'
_symmetry_Int_Tables_number 61
_refine_ls_R_factor_all 0.0441
loop_
_symmetry_equiv_pos_site_id
_symmetry_equiv_pos_as_xyz
1 'x+1/2, y, -z+1/2'
2 'x, -y+1/2, z+1/2'
3 '-x+1/2, y+1/2, z'
4 '-x, -y, -z'
5 '-x+1/2, -y, z+1/2'
6 '-x, y+1/2, -z+1/2'
7 'x+1/2, -y+1/2, -z'
8 'x, y, z'
loop_
_atom_type_symbol
_atom_type_oxidation_number
Na1+ 1
Zn2+ 2
Mg2+ 2
B3+ 3
O2- -2
loop_
_atom_site_label
_atom_site_type_symbol
_atom_site_symmetry_multiplicity
_atom_site_Wyckoff_symbol
_atom_site_fract_x
_atom_site_fract_y
_atom_site_fract_z
_atom_site_B_iso_or_equiv
_atom_site_occupancy
_atom_site_attached_hydrogens
Na1 Na1+ 8 c 0.8316(2) 0.41813(15) 0.07839(9) 0.0239(4) 1 0
Na2 Na1+ 8 c 0.6897(2) 0.65191(14) 0.25456(9) 0.0206(4) 1 0
Na3 Na1+ 8 c 0.7931(2) 0.42713(14) 0.42996(9) 0.0200(4) 1 0
Zn1 Zn2+ 8 c 0.42299(6) 0.67666(4) 0.09703(3) 0.01104(14) 0.845(5) 0
Mg1 Mg2+ 8 c 0.42299(6) 0.67666(4) 0.09703(3) 0.01104(14) 0.155(5) 0
B1 B3+ 8 c 0.4227(6) 0.1568(3) 0.0748(2) 0.0130(8) 1 0
B2 B3+ 8 c 0.7313(6) 0.1729(4) 0.0738(2) 0.0152(9) 1 0
B3 B3+ 8 c 0.5641(6) 0.2867(4) 0.1632(2) 0.0125(8) 1 0
B4 B3+ 8 c 0.5572(5) 0.3497(4) 0.2970(2) 0.0128(8) 1 0
B5 B3+ 8 c 0.4890(6) 0.4793(4) 0.1982(2) 0.0159(9) 1 0
O1 O2- 8 c 0.2775(3) 0.1191(2) 0.04430(15) 0.0143(6) 1 0
O2 O2- 8 c 0.4175(3) 0.2267(2) 0.13508(15) 0.0159(6) 1 0
O3 O2- 8 c 0.5784(4) 0.1245(2) 0.04716(15) 0.0174(6) 1 0
O4 O2- 8 c 0.7209(4) 0.2457(2) 0.13007(15) 0.0180(6) 1 0
O5 O2- 8 c 0.8743(4) 0.1431(3) 0.04167(16) 0.0209(7) 1 0
O6 O2- 8 c 0.5735(4) 0.2706(2) 0.24378(14) 0.0158(6) 1 0
O7 O2- 8 c 0.5439(4) 0.4035(2) 0.14602(14) 0.0168(6) 1 0
O8 O2- 8 c 0.5099(5) 0.4543(2) 0.27360(15) 0.0283(8) 1 0
O9 O2- 8 c 0.5753(3) 0.3304(2) 0.36922(13) 0.0140(5) 1 0
O10 O2- 8 c 0.4240(4) 0.5735(2) 0.17972(16) 0.0247(7) 1 0
loop_
_atom_site_aniso_label
_atom_site_aniso_type_symbol
_atom_site_aniso_U_11
_atom_site_aniso_U_22
_atom_site_aniso_U_33
_atom_site_aniso_U_12
_atom_site_aniso_U_13
_atom_site_aniso_U_23
Na1 Na1+ 0.0291(10) 0.0218(9) 0.0206(9) -0.0003(8) -0.0034(7) 0.0017(7)
Na2 Na1+ 0.0211(9) 0.0221(8) 0.0186(8) -0.0020(7) 0.0004(7) -0.0022(7)
Na3 Na1+ 0.0235(9) 0.0211(9) 0.0154(7) 0.0011(8) -0.0026(7) 0.0019(6)
Zn1 Zn2+ 0.0112(2) 0.0106(2) 0.0112(2) -0.0005(2) 0.0001(2) -0.00064(19)
Mg1 Mg2+ 0.0112(2) 0.0106(2) 0.0112(2) -0.0005(2) 0.0001(2) -0.00064(19)
B1 B3+ 0.0127(18) 0.015(2) 0.0114(17) 0.0013(18) 0.0066(17) -0.0031(14)
B2 B3+ 0.019(2) 0.012(2) 0.0146(18) 0.0023(18) 0.0120(17) -0.0025(17)
B3 B3+ 0.017(2) 0.0116(17) 0.0086(17) 0.0032(17) -0.0014(17) 0.0005(14)
B4 B3+ 0.0098(19) 0.0127(19) 0.016(2) 0.0025(16) -0.0006(16) -0.0045(15)
B5 B3+ 0.024(2) 0.012(2) 0.011(2) 0.0034(18) -0.0028(18) -0.0025(16)
O1 O2- 0.0121(13) 0.0150(14) 0.0159(13) -0.0008(11) 0.0042(11) -0.0058(11)
O2 O2- 0.0134(13) 0.0197(14) 0.0147(13) -0.0020(12) -0.0010(12) -0.0088(11)
O3 O2- 0.0114(12) 0.0239(15) 0.0170(13) 0.0023(13) 0.0021(12) -0.0112(11)
O4 O2- 0.0150(14) 0.0187(14) 0.0204(14) -0.0008(12) -0.0003(12) -0.0088(12)
O5 O2- 0.0128(13) 0.0301(16) 0.0197(15) 0.0046(12) 0.0005(12) -0.0089(13)
O6 O2- 0.0278(15) 0.0098(12) 0.0100(12) 0.0043(12) -0.0002(12) -0.0011(10)
O7 O2- 0.0285(17) 0.0107(13) 0.0112(12) 0.0022(11) -0.0014(11) -0.0003(10)
O8 O2- 0.058(2) 0.0135(14) 0.0133(14) 0.0107(15) -0.0080(15) -0.0036(12)
O9 O2- 0.0204(13) 0.0116(13) 0.0101(12) -0.0002(12) -0.0023(11) 0.0004(10)
O10 O2- 0.0411(19) 0.0148(13) 0.0181(14) 0.0109(15) 0.0040(15) 0.0050(11)
#End of TTdata_244253-ICSD