
#(C) 2019 by FIZ Karlsruhe - Leibniz Institute for Information Infrastructure.  All rights reserved.
data_244491-ICSD
_database_code_ICSD 244491
_audit_creation_date 2018-08-01
_chemical_name_systematic 'Sodium magnesium tetrakis(diphosphate)'
_chemical_formula_structural 'Na7 Mg4.5 (P2 O7)4'
_chemical_formula_sum 'Mg4.5 Na7 O28 P8'
_exptl_crystal_density_diffrn 2.82
_cell_measurement_temperature 296.
_publ_section_title

;
Structure comparison and optical properties of Na7Mg4.5(P2O7)4: a sodium
magnesium phosphate with isolated P2O7 units
;
loop_
_citation_id
_citation_journal_full
_citation_year
_citation_journal_volume
_citation_page_first
_citation_page_last
_citation_journal_id_ASTM
primary 'New Journal of Chemistry' 2017 41 3399 3404 NJCHE5
loop_
_publ_author_name
'Ma, Ruru'
'Yang, Yun'
'Pan, Shilie'
'Sun, Yanzhou'
'Yang, Zhihua'
_cell_length_a 6.3932(7)
_cell_length_b 9.4219(10)
_cell_length_c 10.9116(11)
_cell_angle_alpha 64.711(7)
_cell_angle_beta 80.374(8)
_cell_angle_gamma 73.543(7)
_cell_volume 569.12
_cell_formula_units_Z 1
_symmetry_space_group_name_H-M 'P -1'
_symmetry_Int_Tables_number 2
_refine_ls_R_factor_all 0.0426
loop_
_symmetry_equiv_pos_site_id
_symmetry_equiv_pos_as_xyz
1 '-x, -y, -z'
2 'x, y, z'
loop_
_atom_type_symbol
_atom_type_oxidation_number
Mg2+ 2
Na1+ 1
P5+ 5
O2- -2
loop_
_atom_site_label
_atom_site_type_symbol
_atom_site_symmetry_multiplicity
_atom_site_Wyckoff_symbol
_atom_site_fract_x
_atom_site_fract_y
_atom_site_fract_z
_atom_site_B_iso_or_equiv
_atom_site_occupancy
_atom_site_attached_hydrogens
Mg1 Mg2+ 1 a 1. 1. 0. 0.078(3) 0.5 0
Mg2 Mg2+ 2 i 0.85707(19) 0.73772(14) 0.26350(12) 0.0120(3) 1 0
Mg3 Mg2+ 2 i 0.7722(2) 0.39116(14) 0.21543(12) 0.0124(3) 1 0
Na1 Na1+ 2 i 0.4697(2) 0.21076(18) 0.47507(16) 0.0214(4) 1 0
Na2 Na1+ 2 i 0.9227(3) 0.9843(2) -0.33796(19) 0.0413(5) 1 0
Na3 Na1+ 2 i 0.2791(4) 0.5411(3) 0.1124(3) 0.0648(8) 1 0
Na4 Na1+ 2 i 0.2733(14) 0.9416(5) 0.0411(5) 0.110(3) 0.5 0
P1 P5+ 2 i 0.37876(15) 0.63970(11) 0.31610(9) 0.0121(2) 1 0
P2 P5+ 2 i 0.79236(16) 0.72863(11) -0.03722(9) 0.0127(2) 1 0
P3 P5+ 2 i 0.92291(15) 0.34346(11) 0.45372(9) 0.0115(2) 1 0
P4 P5+ 2 i 0.57015(16) 0.10503(12) 0.21606(10) 0.0162(3) 1 0
O1 O2- 2 i 0.2761(4) 0.5781(3) 0.4685(2) 0.0165(6) 1 0
O2 O2- 2 i 0.9427(4) 0.4812(3) 0.3150(2) 0.0128(5) 1 0
O3 O2- 2 i 0.7179(4) 0.5740(3) 0.0357(3) 0.0204(6) 1 0
O4 O2- 2 i 0.4825(4) 0.4854(3) 0.2958(3) 0.0198(6) 1 0
O5 O2- 2 i 0.1881(4) 0.7432(3) 0.2259(3) 0.0185(6) 1 0
O6 O2- 2 i 0.9422(4) 0.7286(3) -0.1587(3) 0.0210(6) 1 0
O7 O2- 2 i 0.8518(4) 0.2144(3) 0.4318(3) 0.0181(6) 1 0
O8 O2- 2 i 0.7788(4) -0.0129(3) 0.2008(3) 0.0174(6) 1 0
O9 O2- 2 i 0.5364(4) 0.7355(3) 0.3083(3) 0.0243(7) 1 0
O10 O2- 2 i 0.8791(4) 0.7753(3) 0.0570(3) 0.0199(6) 1 0
O11 O2- 2 i 0.4195(4) 0.1259(3) 0.0992(3) 0.0181(6) 1 0
O12 O2- 2 i 1.1156(4) 0.2768(3) 0.5398(3) 0.0178(6) 1 0
O13 O2- 2 i 0.6035(5) 0.2706(3) 0.1759(4) 0.0346(8) 1 0
O14 O2- 2 i 0.4456(5) 0.0458(4) 0.3502(3) 0.0405(9) 1 0
loop_
_atom_site_aniso_label
_atom_site_aniso_type_symbol
_atom_site_aniso_U_11
_atom_site_aniso_U_22
_atom_site_aniso_U_33
_atom_site_aniso_U_12
_atom_site_aniso_U_13
_atom_site_aniso_U_23
Mg1 Mg2+ 0.151(8) 0.061(4) 0.054(4) -0.081(5) 0.067(5) -0.043(4)
Mg2 Mg2+ 0.0109(6) 0.0127(6) 0.0117(6) -0.0023(5) -0.0026(5) -0.0039(5)
Mg3 Mg2+ 0.0119(7) 0.0132(6) 0.0119(6) -0.0017(5) -0.0018(5) -0.0053(5)
Na1 Na1+ 0.0131(8) 0.0229(8) 0.0237(9) -0.0034(7) 0.0023(7) -0.0069(7)
Na2 Na1+ 0.0433(12) 0.0266(10) 0.0341(11) -0.0035(9) -0.0026(9) 0.0034(8)
Na3 Na1+ 0.0488(14) 0.0901(17) 0.0853(18) 0.0214(12) -0.0366(13) -0.0748(16)
Na4 Na1+ 0.244(9) 0.018(2) 0.037(3) -0.028(4) 0.059(4) -0.009(2)
P1 P5+ 0.0098(5) 0.0135(5) 0.0115(5) -0.0021(4) -0.0019(4) -0.0037(4)
P2 P5+ 0.0138(5) 0.0119(5) 0.0108(5) -0.0005(4) -0.0029(4) -0.0038(4)
P3 P5+ 0.0105(5) 0.0116(5) 0.0108(5) -0.0012(4) -0.0021(4) -0.0033(4)
P4 P5+ 0.0135(5) 0.0188(5) 0.0153(5) 0.0011(4) -0.0042(4) -0.0079(4)
O1 O2- 0.0152(14) 0.0179(13) 0.0107(13) 0.0014(11) 0.0001(11) -0.0041(11)
O2 O2- 0.0126(13) 0.0135(12) 0.0094(12) -0.0051(10) 0.0007(10) -0.0011(10)
O3 O2- 0.0279(16) 0.0147(13) 0.0156(14) -0.0071(12) -0.0048(12) -0.0007(11)
O4 O2- 0.0143(14) 0.0263(15) 0.0255(15) -0.0021(12) -0.0011(12) -0.0183(13)
O5 O2- 0.0093(13) 0.0249(14) 0.0134(14) -0.0025(11) -0.0033(11) -0.0003(12)
O6 O2- 0.0186(15) 0.0226(14) 0.0139(14) 0.0030(12) 0.0006(12) -0.0054(12)
O7 O2- 0.0209(15) 0.0170(13) 0.0171(14) -0.0069(11) -0.0019(12) -0.0055(12)
O8 O2- 0.0144(14) 0.0128(13) 0.0215(15) 0.0001(11) -0.0040(11) -0.0047(11)
O9 O2- 0.0149(15) 0.0173(14) 0.0387(18) -0.0061(12) -0.0039(13) -0.0070(13)
O10 O2- 0.0239(16) 0.0244(14) 0.0139(14) -0.0081(12) -0.0041(12) -0.0075(12)
O11 O2- 0.0161(14) 0.0157(13) 0.0219(14) 0.0027(11) -0.0071(12) -0.0088(12)
O12 O2- 0.0127(14) 0.0224(14) 0.0153(14) 0.0014(11) -0.0058(11) -0.0066(12)
O13 O2- 0.0248(17) 0.0219(15) 0.068(2) 0.0049(13) -0.0234(16) -0.0275(17)
O14 O2- 0.0255(18) 0.060(2) 0.0175(16) 0.0078(16) 0.0003(14) -0.0103(16)
#End of TTdata_244491-ICSD