
#(C) 2019 by FIZ Karlsruhe - Leibniz Institute for Information Infrastructure.  All rights reserved.
data_245063-ICSD
_database_code_ICSD 245063
_audit_creation_date 2007-04-01
_chemical_name_systematic 'Trisodium discandium tris(orthoborate)'
_chemical_formula_structural 'Na3 Sc2 (B O3)3'
_chemical_formula_sum 'B3 Na3 O9 Sc2'
_exptl_crystal_density_diffrn 2.61
_publ_section_title 'Na3 Sc2 (B O3)3'
loop_
_citation_id
_citation_journal_full
_citation_year
_citation_journal_volume
_citation_page_first
_citation_page_last
_citation_journal_id_ASTM
primary 'Acta Crystallographica, Section E: Structure Reports Online' 2006 62
i266 i268 ACSEBH
loop_
_publ_author_name
'Zhang Yang'
'Ye Ning'
'Keszler, D.A.'
_cell_length_a 8.6128(6)
_cell_length_b 8.6128(6)
_cell_length_c 19.897(2)
_cell_angle_alpha 90.
_cell_angle_beta 90.
_cell_angle_gamma 120.
_cell_volume 1278.22
_cell_formula_units_Z 6
_symmetry_space_group_name_H-M 'R -3 c H'
_symmetry_Int_Tables_number 167
_refine_ls_R_factor_all 0.0189
loop_
_symmetry_equiv_pos_site_id
_symmetry_equiv_pos_as_xyz
1 'x-y, -y, -z+1/2'
2 '-x, -x+y, -z+1/2'
3 'y, x, -z+1/2'
4 'x-y, x, -z'
5 'y, -x+y, -z'
6 '-x, -y, -z'
7 '-x+y, y, z+1/2'
8 'x, x-y, z+1/2'
9 '-y, -x, z+1/2'
10 '-x+y, -x, z'
11 '-y, x-y, z'
12 'x, y, z'
13 'x-y+2/3, -y+1/3, -z+5/6'
14 '-x+2/3, -x+y+1/3, -z+5/6'
15 'y+2/3, x+1/3, -z+5/6'
16 'x-y+2/3, x+1/3, -z+1/3'
17 'y+2/3, -x+y+1/3, -z+1/3'
18 '-x+2/3, -y+1/3, -z+1/3'
19 '-x+y+2/3, y+1/3, z+5/6'
20 'x+2/3, x-y+1/3, z+5/6'
21 '-y+2/3, -x+1/3, z+5/6'
22 '-x+y+2/3, -x+1/3, z+1/3'
23 '-y+2/3, x-y+1/3, z+1/3'
24 'x+2/3, y+1/3, z+1/3'
25 'x-y+1/3, -y+2/3, -z+1/6'
26 '-x+1/3, -x+y+2/3, -z+1/6'
27 'y+1/3, x+2/3, -z+1/6'
28 'x-y+1/3, x+2/3, -z+2/3'
29 'y+1/3, -x+y+2/3, -z+2/3'
30 '-x+1/3, -y+2/3, -z+2/3'
31 '-x+y+1/3, y+2/3, z+1/6'
32 'x+1/3, x-y+2/3, z+1/6'
33 '-y+1/3, -x+2/3, z+1/6'
34 '-x+y+1/3, -x+2/3, z+2/3'
35 '-y+1/3, x-y+2/3, z+2/3'
36 'x+1/3, y+2/3, z+2/3'
loop_
_atom_type_symbol
_atom_type_oxidation_number
Sc3+ 3
Na1+ 1
O2- -2
B3+ 3
loop_
_atom_site_label
_atom_site_type_symbol
_atom_site_symmetry_multiplicity
_atom_site_Wyckoff_symbol
_atom_site_fract_x
_atom_site_fract_y
_atom_site_fract_z
_atom_site_B_iso_or_equiv
_atom_site_occupancy
_atom_site_attached_hydrogens
Sc1 Sc3+ 12 c 0.6667 0.3333 0.00543(2) 0.0053(2) 1 0
Na1 Na1+ 18 e 1.00211(11) 0.3333 0.0833 0.0220(3) 1 0
O1 O2- 36 f 0.69320(16) 0.55068(16) -0.04304(6) 0.0178(3) 1 0
O2 O2- 18 e 0.6667 0.15509(17) 0.0833 0.0102(4) 1 0
B1 B3+ 18 e 0.6667 -0.0054(3) 0.0833 0.0072(4) 1 0
loop_
_atom_site_aniso_label
_atom_site_aniso_type_symbol
_atom_site_aniso_U_11
_atom_site_aniso_U_22
_atom_site_aniso_U_33
_atom_site_aniso_U_12
_atom_site_aniso_U_13
_atom_site_aniso_U_23
Sc1 Sc3+ 0.0057(2) 0.0057(2) 0.0045(3) 0.00284(12) 0 0
Na1 Na1+ 0.0132(4) 0.0231(5) 0.0330(6) 0.0115(3) 0.0030(2) 0.0059(4)
O1 O2- 0.0161(6) 0.0189(6) 0.0221(7) 0.0115(5) 0.0060(4) 0.0128(5)
O2 O2- 0.0157(8) 0.0091(5) 0.0081(7) 0.0078(4) -0.0009(5) -0.0004(3)
B1 B3+ 0.0069(10) 0.0076(8) 0.0069(9) 0.0034(5) 0.0003(7) 0.0001(4)
#End of TTdata_245063-ICSD