
#(C) 2019 by FIZ Karlsruhe - Leibniz Institute for Information Infrastructure.  All rights reserved.
data_245089-ICSD
_database_code_ICSD 245089
_audit_creation_date 2007-08-01
_chemical_name_systematic 'Deuterium sodium lanthanium titanate deuteriohydrate'
_chemical_formula_structural 'D0.34 Na0.66 La Ti O4 (D2 O)0.59'
_chemical_formula_sum 'D1.52 La1 Na0.66 O4.59 Ti1'
_exptl_crystal_density_diffrn 4.68
_publ_section_title
'Neutron diffraction sudy on protonated and hydrated layered perovskite'
loop_
_citation_id
_citation_journal_full
_citation_year
_citation_journal_volume
_citation_page_first
_citation_page_last
_citation_journal_id_ASTM
primary 'Journal of Solid State Chemistry' 2006 179 3308 3313 JSSCBI
loop_
_publ_author_name
'Nishimoto, S.'
'Matsuda, M.'
'Harjo, S.'
'Hoshikawa, A.'
'Ishigaki, T.'
'Kamiyama, T.'
'Miyake, M.'
_cell_length_a 3.7549(1)
_cell_length_b 3.7549(1)
_cell_length_c 28.024(1)
_cell_angle_alpha 90.
_cell_angle_beta 90.
_cell_angle_gamma 90.
_cell_volume 395.12
_cell_formula_units_Z 4
_symmetry_space_group_name_H-M 'I 4/m m m'
_symmetry_Int_Tables_number 139
_refine_ls_R_factor_all 0.0523
loop_
_symmetry_equiv_pos_site_id
_symmetry_equiv_pos_as_xyz
1 'y, x, -z'
2 '-y, -x, -z'
3 '-y, x, -z'
4 'y, -x, -z'
5 '-x, y, -z'
6 'x, -y, -z'
7 'x, y, -z'
8 '-x, -y, -z'
9 '-y, -x, z'
10 'y, x, z'
11 'y, -x, z'
12 '-y, x, z'
13 'x, -y, z'
14 '-x, y, z'
15 '-x, -y, z'
16 'x, y, z'
17 'y+1/2, x+1/2, -z+1/2'
18 '-y+1/2, -x+1/2, -z+1/2'
19 '-y+1/2, x+1/2, -z+1/2'
20 'y+1/2, -x+1/2, -z+1/2'
21 '-x+1/2, y+1/2, -z+1/2'
22 'x+1/2, -y+1/2, -z+1/2'
23 'x+1/2, y+1/2, -z+1/2'
24 '-x+1/2, -y+1/2, -z+1/2'
25 '-y+1/2, -x+1/2, z+1/2'
26 'y+1/2, x+1/2, z+1/2'
27 'y+1/2, -x+1/2, z+1/2'
28 '-y+1/2, x+1/2, z+1/2'
29 'x+1/2, -y+1/2, z+1/2'
30 '-x+1/2, y+1/2, z+1/2'
31 '-x+1/2, -y+1/2, z+1/2'
32 'x+1/2, y+1/2, z+1/2'
loop_
_atom_type_symbol
_atom_type_oxidation_number
D1+ 1
Na1+ 1
La3+ 3
Ti4+ 4
O2- -2
loop_
_atom_site_label
_atom_site_type_symbol
_atom_site_symmetry_multiplicity
_atom_site_Wyckoff_symbol
_atom_site_fract_x
_atom_site_fract_y
_atom_site_fract_z
_atom_site_B_iso_or_equiv
_atom_site_occupancy
_atom_site_attached_hydrogens
D1 D1+ 4 e 0 0 0.4772(9) 0.035(5) 0.355(10) 0
D2 D1+ 32 o 0.250(5) 0.242(6) 0.4705(5) 0.064(4) 0.155(5) 0
Na1 Na1+ 4 e 0 0 0.4018(5) 0.044(4) 0.645 0
La1 La3+ 4 e 0 0 0.3020(1) 0.016(1) 1. 0
Ti1 Ti4+ 4 e 0 0 0.1231(4) 0.007(2) 1. 0
O1 O2- 4 e 0 0 0.0577(3) 0.012(2) 1. 0
O2 O2- 8 g 0 0.5 0.1379(2) 0.014(1) 1. 0
O3 O2- 4 e 0 0 0.2171(3) 0.011(2) 1. 0
O4 O2- 8 j 0.249(4) 0.5 0 0.041(4) 0.31 0
#End of TTdata_245089-ICSD