
#(C) 2019 by FIZ Karlsruhe - Leibniz Institute for Information Infrastructure.  All rights reserved.
data_245132-ICSD
_database_code_ICSD 245132
_audit_creation_date 2007-08-01
_chemical_name_systematic 'Sodium yttrium dicarbonate difluoride'
_chemical_formula_structural 'Na (Na2 Y) (C O3)2 F2'
_chemical_formula_sum 'C2 F2 Na3 O6 Y1'
_exptl_crystal_density_diffrn 3.04
_cell_measurement_temperature 298.
_publ_section_title
'Phase stability regions in the Na2 CO3 - YF3 - H2 O system at 190 C'
loop_
_citation_id
_citation_journal_full
_citation_year
_citation_journal_volume
_citation_page_first
_citation_page_last
_citation_journal_id_ASTM
primary 'Solid State Sciences' 2006 8 1322 1329 SSSCFJ
loop_
_publ_author_name
'Ali, A.B.'
'Kodjikian, S.'
'Maisonneuve, V.'
'Leblanc, M.'
_cell_length_a 7.047(6)
_cell_length_b 14.840(3)
_cell_length_c 7.192(3)
_cell_angle_alpha 90.
_cell_angle_beta 113.32(5)
_cell_angle_gamma 90.
_cell_volume 690.68
_cell_formula_units_Z 4
_symmetry_space_group_name_H-M 'P 1 21/n 1'
_symmetry_Int_Tables_number 14
_refine_ls_R_factor_all 0.076
loop_
_symmetry_equiv_pos_site_id
_symmetry_equiv_pos_as_xyz
1 '-x+1/2, y+1/2, -z+1/2'
2 '-x, -y, -z'
3 'x+1/2, -y+1/2, z+1/2'
4 'x, y, z'
loop_
_atom_type_symbol
_atom_type_oxidation_number
Y3+ 3
Na1+ 1
Y3+ 3
Na1+ 1
C4+ 4
F1- -1
O2- -2
loop_
_atom_site_label
_atom_site_type_symbol
_atom_site_symmetry_multiplicity
_atom_site_Wyckoff_symbol
_atom_site_fract_x
_atom_site_fract_y
_atom_site_fract_z
_atom_site_B_iso_or_equiv
_atom_site_occupancy
_atom_site_attached_hydrogens
Y1 Y3+ 4 e 0.7514(7) 0.71338(7) 0.6256(7) 0.62(3) 0.824(4) 0
Na1 Na1+ 4 e 0.7514(7) 0.71338(7) 0.6256(7) 0.62(3) 0.176(4) 0
Y2 Y3+ 4 e 0.750(2) 0.6971(3) 0.123(2) 2.9(1) 0.176(4) 0
Na2 Na1+ 4 e 0.750(2) 0.6971(3) 0.123(2) 2.9(1) 0.824(4) 0
Na3 Na1+ 4 e 0.509(1) 0.5055(6) 0.2558(9) 1.7(4) 1. 0
Na4 Na1+ 2 c 0.5 0 0.5 1.8(4) 1. 0
Na5 Na1+ 2 d 0.5 0 0 1.1(3) 1. 0
C1 C4+ 4 e 0.254(4) 0.6352(7) 0.369(4) 1.1(2) 1. 0
C2 C4+ 4 e 0.754(4) 0.3681(6) 0.113(3) 0.7(2) 1. 0
F1 F1- 4 e 0.777(1) 0.6152(5) 0.4160(9) 0.9(1) 1. 0
F2 F1- 4 e 0.738(3) 0.6105(6) 0.852(3) 3.7(3) 1. 0
O1 O2- 4 e 0.111(2) 0.6928(8) 0.790(2) 2.5(2) 1. 0
O2 O2- 4 e 0.766(3) 0.4496(7) 0.140(3) 3.6(3) 1. 0
O3 O2- 4 e 0.284(2) 0.5564(7) 0.426(1) 1.2(2) 1. 0
O4 O2- 4 e 0.888(2) 0.7999(7) 0.952(2) 1.7(2) 1. 0
O5 O2- 4 e 0.095(1) 0.6613(9) 0.213(2) 2.0(2) 1. 0
O6 O2- 4 e 0.405(2) 0.6572(9) 0.042(2) 2.5(2) 1. 0
#End of TTdata_245132-ICSD