
#(C) 2019 by FIZ Karlsruhe - Leibniz Institute for Information Infrastructure.  All rights reserved.
data_245130-ICSD
_database_code_ICSD 245130
_audit_creation_date 2007-08-01
_audit_update_record 2010-08-01
_chemical_name_systematic 'Disodium yttrium carbonate trifluoride'
_chemical_formula_structural 'Na2 Y (C O3) F3'
_chemical_formula_sum 'C1 F3 Na2 O3 Y1'
_chemical_name_structure_type Na2YCO3F3
_exptl_crystal_density_diffrn 3.45
_cell_measurement_temperature 298.
_publ_section_title
'Phase stability regions in the Na2 CO3 - YF3 - H2 O system at 190 C'
loop_
_citation_id
_citation_journal_full
_citation_year
_citation_journal_volume
_citation_page_first
_citation_page_last
_citation_journal_id_ASTM
primary 'Solid State Sciences' 2006 8 1322 1329 SSSCFJ
loop_
_publ_author_name
'Ali, A.B.'
'Kodjikian, S.'
'Maisonneuve, V.'
'Leblanc, M.'
_cell_length_a 6.455(1)
_cell_length_b 10.668(2)
_cell_length_c 14.083(2)
_cell_angle_alpha 90.
_cell_angle_beta 90.
_cell_angle_gamma 90.
_cell_volume 969.78
_cell_formula_units_Z 8
_symmetry_space_group_name_H-M 'P b c a'
_symmetry_Int_Tables_number 61
_refine_ls_R_factor_all 0.044
loop_
_symmetry_equiv_pos_site_id
_symmetry_equiv_pos_as_xyz
1 'x+1/2, y, -z+1/2'
2 'x, -y+1/2, z+1/2'
3 '-x+1/2, y+1/2, z'
4 '-x, -y, -z'
5 '-x+1/2, -y, z+1/2'
6 '-x, y+1/2, -z+1/2'
7 'x+1/2, -y+1/2, -z'
8 'x, y, z'
loop_
_atom_type_symbol
_atom_type_oxidation_number
Y3+ 3
Na1+ 1
C4+ 4
O2- -2
F1- -1
loop_
_atom_site_label
_atom_site_type_symbol
_atom_site_symmetry_multiplicity
_atom_site_Wyckoff_symbol
_atom_site_fract_x
_atom_site_fract_y
_atom_site_fract_z
_atom_site_B_iso_or_equiv
_atom_site_occupancy
_atom_site_attached_hydrogens
Y1 Y3+ 8 c 0.9942(1) 0.18367(5) 0.01389(4) 0.58(1) 1. 0
Na1 Na1+ 8 c 0.2348(6) 0.2779(3) 0.2561(3) 1.23(5) 1. 0
Na2 Na1+ 8 c -0.0509(5) 0.0075(3) 0.3928(2) 1.34(6) 1. 0
C1 C4+ 8 c -0.005(1) 0.5166(5) 0.3256(5) 0.74(9) 1. 0
O1 O2- 8 c -0.001(1) 0.4377(4) 0.2587(3) 1.10(7) 1. 0
O2 O2- 8 c 0.4465(8) 0.1318(5) 0.3148(4) 1.10(9) 1. 0
O3 O2- 8 c -0.0678(8) 0.4878(5) 0.4104(4) 0.91(8) 1. 0
F1 F1- 8 c 0.3005(6) 0.2210(4) 0.1018(3) 1.01(7) 1. 0
F2 F1- 8 c 0.2912(7) 0.3389(4) 0.4210(3) 1.05(7) 1. 0
F3 F1- 8 c 0.1508(6) 0.1261(4) 0.4792(3) 0.94(7) 1. 0
#End of TTdata_245130-ICSD