
#(C) 2019 by FIZ Karlsruhe - Leibniz Institute for Information Infrastructure.  All rights reserved.
data_245207-ICSD
_database_code_ICSD 245207
_audit_creation_date 2007-08-01
_chemical_name_systematic
'Sodium calcium potassium alumosilicate sulfate sulfide chloride *'
_chemical_formula_structural 'Na8 (Al Si O4)6 (S O4)1.5 S1.05'
_chemical_formula_sum 'Al6 Na8 O30 S2.55 Si6'
_chemical_name_mineral Lazurite
_exptl_crystal_density_diffrn 2.38
_publ_section_title
'Average structure of incommensurately modulated monoclinic lazurite'
loop_
_citation_id
_citation_journal_full
_citation_year
_citation_journal_volume
_citation_page_first
_citation_page_last
_citation_journal_id_ASTM
primary Kristallografiya 2006 51 630 636 KRISAJ
loop_
_publ_author_name
'Bolotina, N.B.'
'Rastsvetaeva, R.K.'
'Sapozhnikov, A.N.'
_cell_length_a 9.069(1)
_cell_length_b 12.868(1)
_cell_length_c 12.872(1)
_cell_angle_alpha 90
_cell_angle_beta 90
_cell_angle_gamma 90.19(1)
_cell_volume 1502.15
_cell_formula_units_Z 2
_symmetry_space_group_name_H-M 'P 1 1 a'
_symmetry_Int_Tables_number 7
_refine_ls_R_factor_all 0.069
loop_
_symmetry_equiv_pos_site_id
_symmetry_equiv_pos_as_xyz
1 'x+1/2, y, -z'
2 'x, y, z'
loop_
_atom_type_symbol
_atom_type_oxidation_number
Al3+ 3
Si4+ 4
Al3+ 3
Si4+ 4
O2- -2
Na1+ 1
S6+ 6
O2- -2
S6+ 6
O2- -2
S1+ 1
loop_
_atom_site_label
_atom_site_type_symbol
_atom_site_symmetry_multiplicity
_atom_site_Wyckoff_symbol
_atom_site_fract_x
_atom_site_fract_y
_atom_site_fract_z
_atom_site_B_iso_or_equiv
_atom_site_occupancy
_atom_site_attached_hydrogens
Al1 Al3+ 2 a 0.2500(1) 0.2500(1) 0.5003(1) 2.2(1) 1 0
Al2 Al3+ 2 a 0.2877(3) -0.2495(1) 0.0015(1) 2.9(1) 1 0
Al3 Al3+ 2 a 0.5302(2) -0.1250(1) -0.6246(1) 2.5(1) 1 0
Al4 Al3+ 2 a 0.5136(3) -0.6262(1) -0.1256(1) 2.6(1) 1 0
Si1 Si4+ 2 a 0.2381(2) 0.2487(1) 0.0014(1) 2.5(1) 1 0
Si2 Si4+ 2 a -0.2213(2) 0.7497(1) 0.5003(1) 2.0(1) 1 0
Si3 Si4+ 2 a -0.4623(2) 0.6229(1) -0.1249(1) 2.3(1) 1 0
Si4 Si4+ 2 a -0.5004(2) 0.1238(1) 0.3743(1) 1.8(1) 1 0
Al5 Al3+ 2 a 0.5101(3) 0.1242(1) 0.1249(1) 3.2(1) 0.5 0
Al6 Al3+ 2 a 0.5037(2) 0.3744(1) 0.6262(1) 2.0(1) 0.5 0
Al7 Al3+ 2 a 0.5242(2) 0.6261(1) 0.6254(1) 2.7(1) 0.5 0
Al8 Al3+ 2 a -0.4612(3) -0.1255(1) 0.1258(1) 2.6(1) 0.5 0
Si5 Si4+ 2 a 0.5101(3) 0.1242(1) 0.1249(1) 3.2(1) 0.5 0
Si6 Si4+ 2 a 0.5037(2) 0.3744(1) 0.6262(1) 2.0(1) 0.5 0
Si7 Si4+ 2 a 0.5242(2) 0.6261(1) 0.6254(1) 2.7(1) 0.5 0
Si8 Si4+ 2 a -0.4612(3) -0.1255(1) 0.1258(1) 2.6(1) 0.5 0
O1 O2- 2 a 0.3730(7) 0.1536(5) 0.4410(5) 5.2(3) 1 0
O2 O2- 2 a -0.3146(5) 0.3007(4) 0.9082(4) 3.2(3) 1 0
O3 O2- 2 a 0.3856(7) -0.1962(5) 0.0944(5) 4.3(2) 1 0
O4 O2- 2 a 0.347(1) 0.3167(5) 0.9216(7) 7.0(2) 1 0
O5 O2- 2 a -0.3573(6) 0.1645(5) 0.4266(5) 4.8(3) 1 0
O6 O2- 2 a -0.2972(7) -0.1802(4) 0.0849(5) 4.1(3) 1 0
O7 O2- 2 a -0.6315(6) -0.2051(5) 0.4055(4) 3.5(2) 1 0
O8 O2- 2 a 0.6660(7) -0.6911(5) -0.4079(4) 4.3(3) 1 0
O9 O2- 2 a -0.6247(6) 0.1547(3) 0.0482(4) 3.1(3) 1 0
O10 O2- 2 a 0.697(1) -0.1795(6) 0.4293(7) 6.6(3) 1 0
O11 O2- 2 a -0.5956(7) 0.6630(5) 0.9316(6) 5.0(2) 1 0
O12 O2- 2 a 0.6573(8) 0.1748(5) 0.0743(6) 5.8(3) 1 0
O13 O2- 2 a -0.6554(7) 0.3176(4) 0.5869(5) 4.4(2) 1 0
O14 O2- 2 a -0.0008(6) 0.3496(4) 0.2538(2) 1.9(3) 1 0
O15 O2- 2 a -0.0105(6) 0.1493(4) 0.7465(3) 2.7(2) 1 0
O16 O2- 2 a 0.0500(7) -0.3510(5) 0.2455(3) 3.0(3) 1 0
O17 O2- 2 a 0.0589(5) 0.8482(4) 0.7542(3) 2.0(3) 1 0
O18 O2- 2 a 0.0670(9) 0.0059(4) 0.6002(4) 4.6(3) 1 0
O19 O2- 2 a 0.0730(7) 0.4999(3) 0.1016(4) 3.1(3) 1 0
O20 O2- 2 a 0.0797(7) -0.0011(4) -0.1025(4) 3.3(2) 1 0
O21 O2- 2 a 0.064(1) 0.4949(4) 0.3998(5) 5.0(3) 1 0
O22 O2- 2 a 0.6693(7) 0.6563(4) -0.0608(5) 4.8(2) 1 0
O23 O2- 2 a 0.6683(7) 0.6592(4) 0.5518(5) 3.9(3) 1 0
O24 O2- 2 a 0.3859(9) 0.6713(6) 0.5709(6) 6.5(2) 1 0
Na1 Na1+ 2 a 0.7164(6) 0.3089(5) 0.2504(3) 6.5(1) 0.65(1) 0
Na2 Na1+ 2 a 0.7437(7) 0.2432(5) 0.2506(3) 3.5(2) 0.35(2) 0
Na3 Na1+ 2 a 0.3266(7) 0.6910(7) 0.2516(4) 4.0(4) 0.57(4) 0
Na4 Na1+ 2 a 0.3189(7) 0.7481(4) 0.2511(3) 2.3(2) 0.43(2) 0
Na5 Na1+ 2 a 0.2807(9) 0.4980(3) 0.0008(5) 3.6(2) 0.44(4) 0
Na6 Na1+ 2 a 0.1875(7) 0.5044(4) -0.0609(5) 4.0(2) 0.56(1) 0
Na7 Na1+ 2 a 0.7571(6) 0.5012(3) 0.4932(4) 2.9(1) 0.50(1) 0
Na8 Na1+ 2 a 0.6872(7) 0.5015(4) 0.4362(4) 3.9(2) 0.50(2) 0
Na9 Na1+ 2 a 0.8312(9) 0.8190(6) 0.2487(5) 1.1(6) 0.29(3) 0
Na10 Na1+ 2 a 0.780(1) 0.7317(6) 0.2476(3) 6.9(1) 0.71(1) 0
Na11 Na1+ 2 a 0.2389(5) 0.2490(5) 0.2492(3) 3.4(1) 0.57(2) 0
Na12 Na1+ 2 a 0.219(1) 0.1822(8) 0.2507(8) 4.9(5) 0.43(3) 0
Na13 Na1+ 2 a 0.3344(9) 0.0053(6) -0.0483(7) 3.9(5) 0.35(3) 0
Na14 Na1+ 2 a 0.2682(1) -0.0055(8) 0.018(1) 6.9(5) 0.33(3) 0
Na15 Na1+ 2 a 0.182(1) 0.9998(7) 0.0623(8) 3.2(3) 0.32(3) 0
Na16 Na1+ 2 a 0.2548(9) 0.0023(7) 0.501(1) 3.7(3) 0.32(3) 0
Na17 Na1+ 2 a 0.346(1) 0.0093(8) 0.551(1) 7.7(4) 0.38(2) 0
Na18 Na1+ 2 a 0.1927(1) 0.0018(6) 0.5509(7) 2.5(3) 0.30(1) 0
S1 S6+ 2 a -0.0144(6) 0.0260(5) 0.2542(4) . 0.6 0
O25 O2- 2 a -0.023(2) -0.054(1) 0.166(1) . 0.4 0
O26 O2- 2 a -0.033(2) -0.034(1) 0.348(1) . 0.4 0
O27 O2- 2 a -0.132(2) 0.097(1) 0.248(1) . 0.4 0
O28 O2- 2 a 0.122(2) 0.076(1) 0.266(1) . 0.4 0
O29 O2- 2 a 0.097 0.037 0.159 . 0.2 0
O30 O2- 2 a 0.116(6) 0.009(5) 0.346(3) . 0.2 0
O31 O2- 2 a -0.097 -0.092 0.25 . 0.2 0
O32 O2- 2 a 0.184 -0.112 0.236 . 0.2 0
S2 S6+ 2 a 0.524(1) 0.503(1) 0.226(1) . 0.9 0
O33 O2- 2 a 0.401(3) 0.498(1) 0.358(2) . 0.45 0
O34 O2- 2 a 0.431(3) 0.511(2) 0.136(2) . 0.45 0
O35 O2- 2 a 0.618(1) 0.609(1) 0.236(1) . 0.45 0
O36 O2- 2 a 0.613(1) 0.424(1) 0.260(1) . 0.45 0
O37 O2- 2 a 0.399 0.576 0.249 . 0.45 0
O38 O2- 2 a 0.378(4) 0.394(3) 0.226(4) . 0.45 0
O39 O2- 2 a 0.589(1) 0.483(1) 0.140(1) . 0.45 0
O40 O2- 2 a 0.667(2) 0.493(2) 0.318(2) . 0.45 0
S3 S1+ 2 a 0.002 0.049 0.134 . 0.07 0
S4 S1+ 2 a 0.006 0.047 0.357 . 0.07 0
S5 S1+ 2 a 0.014 -0.045 0.139 . 0.07 0
S6 S1+ 2 a 0.012 -0.062 0.355 . 0.07 0
S7 S1+ 2 a -0.167 0.019 0.215 . 0.07 0
S8 S1+ 2 a -0.096 0.112 0.378 . 0.07 0
S9 S1+ 2 a 0.248 0.08 0.258 . 0.07 0
S10 S1+ 2 a 0.179 -0.196 0.236 . 0.07 0
S11 S1+ 2 a 0.173 -0.112 0.393 . 0.07 0
S12 S1+ 2 a 0.056 -0.118 0.295 . 0.07 0
S13 S1+ 2 a -0.097 -0.147 0.148 . 0.07 0
S14 S1+ 2 a -0.1 -0.153 0.35 . 0.07 0
S15 S1+ 2 a 0.138 0.154 0.157 . 0.07 0
S16 S1+ 2 a 0.134 0.154 0.342 . 0.07 0
S17 S1+ 2 a -0.139 -0.178 0.243 . 0.07 0
#End of TTdata_245207-ICSD