
#(C) 2018 by FIZ Karlsruhe - Leibniz Institute for Information Infrastructure.  All rights reserved.
data_245536-ICSD
_database_code_ICSD 245536
_audit_creation_date 2008-02-01
_audit_update_record 2013-02-01
_chemical_name_systematic 'Dilithium manganotetraoxosilicate - HT'
_chemical_formula_structural 'Li2 Mn Si O4'
_chemical_formula_sum 'Li2 Mn1 O4 Si1'
_chemical_name_structure_type Li2ZnSiO4
_exptl_crystal_density_diffrn 3.05
_publ_section_title

;
Crystal structure, phase transition and electrochemical properties of
monoclinic Li Mn Si O4
;
loop_
_citation_id
_citation_journal_full
_citation_year
_citation_journal_volume
_citation_page_first
_citation_page_last
_citation_journal_id_ASTM
primary 'Journal of Solid State Chemistry' 2007 180 1045 1050 JSSCBI
loop_
_publ_author_name
'Politaev, V.V.'
'Petrenko, A.A.'
'Nalbandyan, V.B.'
'Medvedev, B.S.'
'Shvetsova, E.S.'
_cell_length_a 6.336(1)
_cell_length_b 10.9146(2)
_cell_length_c 5.0730(1)
_cell_angle_alpha 90
_cell_angle_beta 90.987(1)
_cell_angle_gamma 90
_cell_volume 350.77
_cell_formula_units_Z 4
_symmetry_space_group_name_H-M 'P 1 21/n 1'
_symmetry_Int_Tables_number 14
_refine_ls_R_factor_all 0.0464
loop_
_symmetry_equiv_pos_site_id
_symmetry_equiv_pos_as_xyz
1 '-x+1/2, y+1/2, -z+1/2'
2 '-x, -y, -z'
3 'x+1/2, -y+1/2, z+1/2'
4 'x, y, z'
loop_
_atom_type_symbol
_atom_type_oxidation_number
Mn2+ 2
Li1+ 1
Si4+ 4
Li1+ 1
Mn2+ 2
O2- -2
loop_
_atom_site_label
_atom_site_type_symbol
_atom_site_symmetry_multiplicity
_atom_site_Wyckoff_symbol
_atom_site_fract_x
_atom_site_fract_y
_atom_site_fract_z
_atom_site_B_iso_or_equiv
_atom_site_occupancy
_atom_site_attached_hydrogens
Mn1 Mn2+ 4 e 0.5050(2) 0.1659(1) 0.3019(2) 0.00109(15) 0.938 0
Li1 Li1+ 4 e 0.5050(2) 0.1659(1) 0.3019(2) 0.00109(15) 0.062 0
Si1 Si4+ 4 e 0.2538(3) 0.4137(2) 0.3123(4) 0.0082(3) 1. 0
Li2 Li1+ 4 e 0.009(2) 0.1601(9) 0.300(2) 0.00105 1. 0
Li3 Li1+ 4 e 0.2344(18) 0.0770(9) 0.7127(19) 0.046(4) 0.966 0
Mn2 Mn2+ 4 e 0.2344(18) 0.0770(9) 0.7127(19) 0.046(4) 0.034 0
O1 O2- 4 e 0.2589(6) 0.4116(3) 0.6371(7) 0.063(4) 1. 0
O2 O2- 4 e 0.2516(6) 0.5556(3) 0.1959(7) 0.00105 1. 0
O3 O2- 4 e 0.0392(5) 0.3389(3) 0.2125(6) 0.00110(13) 1. 0
O4 O2- 4 e 0.4647(7) 0.3435(3) 0.1981(7) 0.0064(13) 1. 0
#End of TTdata_245536-ICSD