
#(C) 2019 by FIZ Karlsruhe - Leibniz Institute for Information Infrastructure.  All rights reserved.
data_245519-ICSD
_database_code_ICSD 245519
_audit_creation_date 2008-02-01
_chemical_name_systematic 'Hemisodium hemilanthanum trioxotitanate(IV)'
_chemical_formula_structural '(Na La)0.5 Ti O3'
_chemical_formula_sum 'La0.5 Na0.5 O3 Ti1'
_chemical_name_structure_type Perovskite-LaAlO3
_exptl_crystal_density_diffrn 5.05
_publ_section_title 'Crystal structures of Na1/2 Ln1/2 Ti O3 (Ln: La, Eu, Tb)'
loop_
_citation_id
_citation_journal_full
_citation_year
_citation_journal_volume
_citation_page_first
_citation_page_last
_citation_journal_id_ASTM
primary 'Journal of Solid State Chemistry' 2007 180 995 1001 JSSCBI
loop_
_publ_author_name
'Ranjan, R.'
'Senyshyn, A.'
'Boysen, H.'
'Baehtz, C.'
'Frey, F.'
_cell_length_a 5.48099(6)
_cell_length_b 5.48099(6)
_cell_length_c 13.4092(3)
_cell_angle_alpha 90.
_cell_angle_beta 90.
_cell_angle_gamma 120.
_cell_volume 348.86
_cell_formula_units_Z 6
_symmetry_space_group_name_H-M 'R -3 c H'
_symmetry_Int_Tables_number 167
loop_
_symmetry_equiv_pos_site_id
_symmetry_equiv_pos_as_xyz
1 'x-y, -y, -z+1/2'
2 '-x, -x+y, -z+1/2'
3 'y, x, -z+1/2'
4 'x-y, x, -z'
5 'y, -x+y, -z'
6 '-x, -y, -z'
7 '-x+y, y, z+1/2'
8 'x, x-y, z+1/2'
9 '-y, -x, z+1/2'
10 '-x+y, -x, z'
11 '-y, x-y, z'
12 'x, y, z'
13 'x-y+2/3, -y+1/3, -z+5/6'
14 '-x+2/3, -x+y+1/3, -z+5/6'
15 'y+2/3, x+1/3, -z+5/6'
16 'x-y+2/3, x+1/3, -z+1/3'
17 'y+2/3, -x+y+1/3, -z+1/3'
18 '-x+2/3, -y+1/3, -z+1/3'
19 '-x+y+2/3, y+1/3, z+5/6'
20 'x+2/3, x-y+1/3, z+5/6'
21 '-y+2/3, -x+1/3, z+5/6'
22 '-x+y+2/3, -x+1/3, z+1/3'
23 '-y+2/3, x-y+1/3, z+1/3'
24 'x+2/3, y+1/3, z+1/3'
25 'x-y+1/3, -y+2/3, -z+1/6'
26 '-x+1/3, -x+y+2/3, -z+1/6'
27 'y+1/3, x+2/3, -z+1/6'
28 'x-y+1/3, x+2/3, -z+2/3'
29 'y+1/3, -x+y+2/3, -z+2/3'
30 '-x+1/3, -y+2/3, -z+2/3'
31 '-x+y+1/3, y+2/3, z+1/6'
32 'x+1/3, x-y+2/3, z+1/6'
33 '-y+1/3, -x+2/3, z+1/6'
34 '-x+y+1/3, -x+2/3, z+2/3'
35 '-y+1/3, x-y+2/3, z+2/3'
36 'x+1/3, y+2/3, z+2/3'
loop_
_atom_type_symbol
_atom_type_oxidation_number
Na1+ 1
La3+ 3
Ti4+ 4
O2- -2
loop_
_atom_site_label
_atom_site_type_symbol
_atom_site_symmetry_multiplicity
_atom_site_Wyckoff_symbol
_atom_site_fract_x
_atom_site_fract_y
_atom_site_fract_z
_atom_site_B_iso_or_equiv
_atom_site_occupancy
_atom_site_attached_hydrogens
Na1 Na1+ 6 a 0 0 0.25 . 0.5 0
La1 La3+ 6 a 0 0 0.25 . 0.5 0
Ti1 Ti4+ 6 b 0 0 0 . 1. 0
O1 O2- 18 e 0.1272(6) 0.335(1) 0.0833 . 1. 0
loop_
_atom_site_aniso_label
_atom_site_aniso_type_symbol
_atom_site_aniso_U_11
_atom_site_aniso_U_22
_atom_site_aniso_U_33
_atom_site_aniso_U_12
_atom_site_aniso_U_13
_atom_site_aniso_U_23
Na1 Na1+ 0.007(1) 0.007(1) 0.0016(2) 0.0035(5) 0. 0.
La1 La3+ 0.007(1) 0.007(1) 0.0016(2) 0.0035(5) 0. 0.
Ti1 Ti4+ 0.004(1) 0.004(1) 0.002(2) 0.002(7) 0. 0.
O1 O2- 0.0010(5) 0.0043(5) 0.0016(1) -0.0075(4) 0. 0.
#End of TTdata_245519-ICSD