
#(C) 2019 by FIZ Karlsruhe - Leibniz Institute for Information Infrastructure.  All rights reserved.
data_245530-ICSD
_database_code_ICSD 245530
_audit_creation_date 2008-02-01
_audit_update_record 2013-08-01
_chemical_name_systematic 'Sodium titanate *'
_chemical_formula_structural 'Na0.799 Ti2 O4'
_chemical_formula_sum 'Na0.799 O4 Ti2'
_chemical_name_structure_type CaV2O4
_exptl_crystal_density_diffrn 4.03
_cell_measurement_temperature 300.
_publ_section_title

;
Single-crystal synthesis, structure analysis, and physical properties of the
calcium ferrite-type Na(x) Ti2 O4 with 0.558 < x < 1
;
loop_
_citation_id
_citation_journal_full
_citation_year
_citation_journal_volume
_citation_page_first
_citation_page_last
_citation_journal_id_ASTM
primary 'Journal of Solid State Chemistry' 2007 180 1020 1027 JSSCBI
loop_
_publ_author_name
'Takahashi, Y.'
'Kataoka, K.'
'Ohshima, K.I.'
'Kijima, N.'
'Awaka, J.'
'Kawaguchi, K.'
'Akimoto, J.'
_cell_length_a 9.2467(12)
_cell_length_b 10.7481(11)
_cell_length_c 2.9535(8)
_cell_angle_alpha 90.
_cell_angle_beta 90.
_cell_angle_gamma 90.
_cell_volume 293.53
_cell_formula_units_Z 4
_symmetry_space_group_name_H-M 'P n a m'
_symmetry_Int_Tables_number 62
_refine_ls_R_factor_all 0.0519
loop_
_symmetry_equiv_pos_site_id
_symmetry_equiv_pos_as_xyz
1 'x+1/2, -y+1/2, z'
2 'x, y, -z+1/2'
3 '-x+1/2, y+1/2, z+1/2'
4 '-x, -y, -z'
5 '-x+1/2, y+1/2, -z'
6 '-x, -y, z+1/2'
7 'x+1/2, -y+1/2, -z+1/2'
8 'x, y, z'
loop_
_atom_type_symbol
_atom_type_oxidation_number
Na1+ 1
Ti3+ 3.6
O2- -2
loop_
_atom_site_label
_atom_site_type_symbol
_atom_site_symmetry_multiplicity
_atom_site_Wyckoff_symbol
_atom_site_fract_x
_atom_site_fract_y
_atom_site_fract_z
_atom_site_B_iso_or_equiv
_atom_site_occupancy
_atom_site_attached_hydrogens
Na1 Na1+ 4 c 0.2435(2) 0.34664(19) 0.25 0.0117(9) 0.799 0
Ti1 Ti3+ 4 c 0.06468(7) 0.11120(6) 0.25 0.0086(2) 1. 0
Ti2 Ti3+ 4 c 0.08256(7) 0.60384(6) 0.25 0.0074(2) 1. 0
O1 O2- 4 c 0.2904(3) 0.6484(2) 0.25 0.0088(9) 1. 0
O2 O2- 4 c 0.3879(3) 0.9809(2) 0.25 0.0075(9) 1. 0
O3 O2- 4 c 0.4783(3) 0.2171(2) 0.25 0.0086(9) 1. 0
O4 O2- 4 c 0.0783(3) 0.9296(2) 0.25 0.0082(9) 1. 0
#End of TTdata_245530-ICSD