
#(C) 2019 by FIZ Karlsruhe - Leibniz Institute for Information Infrastructure.  All rights reserved.
data_245521-ICSD
_database_code_ICSD 245521
_audit_creation_date 2008-02-01
_audit_update_record 2013-02-01
_chemical_name_systematic 'Hemisodium hemieuropium trioxotitanate(IV)'
_chemical_formula_structural '(Na Eu)0.5 Ti O3'
_chemical_formula_sum 'Eu0.5 Na0.5 O3 Ti1'
_chemical_name_structure_type Perovskite-GdFeO3
_exptl_crystal_density_diffrn 5.42
_publ_section_title 'Crystal structures of Na1/2 Ln1/2 Ti O3 (Ln: La, Eu, Tb)'
loop_
_citation_id
_citation_journal_full
_citation_year
_citation_journal_volume
_citation_page_first
_citation_page_last
_citation_journal_id_ASTM
primary 'Journal of Solid State Chemistry' 2007 180 995 1001 JSSCBI
loop_
_publ_author_name
'Ranjan, R.'
'Senyshyn, A.'
'Boysen, H.'
'Baehtz, C.'
'Frey, F.'
_cell_length_a 5.39338(8)
_cell_length_b 5.43903(8)
_cell_length_c 7.6625(1)
_cell_angle_alpha 90.
_cell_angle_beta 90.
_cell_angle_gamma 90.
_cell_volume 224.78
_cell_formula_units_Z 4
_symmetry_space_group_name_H-M 'P b n m'
_symmetry_Int_Tables_number 62
loop_
_symmetry_equiv_pos_site_id
_symmetry_equiv_pos_as_xyz
1 '-x+1/2, y+1/2, z'
2 'x, y, -z+1/2'
3 'x+1/2, -y+1/2, z+1/2'
4 '-x, -y, -z'
5 'x+1/2, -y+1/2, -z'
6 '-x, -y, z+1/2'
7 '-x+1/2, y+1/2, -z+1/2'
8 'x, y, z'
loop_
_atom_type_symbol
_atom_type_oxidation_number
Na1+ 1
Eu3+ 3
Ti4+ 4
O2- -2
loop_
_atom_site_label
_atom_site_type_symbol
_atom_site_symmetry_multiplicity
_atom_site_Wyckoff_symbol
_atom_site_fract_x
_atom_site_fract_y
_atom_site_fract_z
_atom_site_B_iso_or_equiv
_atom_site_occupancy
_atom_site_attached_hydrogens
Na1 Na1+ 4 c 0.0065(2) 0.5317(1) 0.25 . 0.5 0
Eu1 Eu3+ 4 c 0.0065(2) 0.5317(1) 0.25 . 0.5 0
Ti1 Ti4+ 4 a 0 0 0 . 1. 0
O1 O2- 4 c -0.071(1) -0.0147(9) 0.25 . 1. 0
O2 O2- 8 d 0.2148(9) 0.2883(9) 0.0361(5) . 1. 0
loop_
_atom_site_aniso_label
_atom_site_aniso_type_symbol
_atom_site_aniso_U_11
_atom_site_aniso_U_22
_atom_site_aniso_U_33
_atom_site_aniso_U_12
_atom_site_aniso_U_13
_atom_site_aniso_U_23
Na1 Na1+ 0.0010(3) 0.0024(3) 0.0041(2) -0.0001(5) 0. 0.
Eu1 Eu3+ 0.0010(3) 0.0024(3) 0.0041(2) -0.0001(5) 0. 0.
Ti1 Ti4+ 0.0035(6) 0.0011(7) 0.0018(3) -0.0002(13) -0.0009(8) -0.0012(3)
O1 O2- 0.003(1) 0.003(1) 0.003(1) 0. 0. 0.
O2 O2- 0.003(1) 0.003(1) 0.003(1) 0. 0. 0.
#End of TTdata_245521-ICSD