
#(C) 2019 by FIZ Karlsruhe - Leibniz Institute for Information Infrastructure.  All rights reserved.
data_245882-ICSD
_database_code_ICSD 245882
_audit_creation_date 2009-02-01
_chemical_name_systematic 'Sodium iron zinc phosphate(V) (1.44/1.55/1.45/3)'
_chemical_formula_structural 'Na1.44 Fe1.55 Zn1.45 (P O4)3'
_chemical_formula_sum 'Fe1.55 Na1.44 O12 P3 Zn1.45'
_chemical_name_structure_type Alluaudite
_chemical_name_mineral 'Alluaudite, Zn-bearing'
_exptl_crystal_density_diffrn 3.86
_publ_section_title

;
Crystal chemistry of the divalent cation in alluaudite-type phosphates: A
structural and infrared study of the Na1.5 (Mn(1-x) M(x))1.5 Fe1.5 (P O4)3
solid solutions (x = 0 to 1, M = Cd(2+), Zn(2+))
;
loop_
_citation_id
_citation_journal_full
_citation_year
_citation_journal_volume
_citation_page_first
_citation_page_last
_citation_journal_id_ASTM
primary 'Journal of Solid State Chemistry' 2008 181 1258 1272 JSSCBI
loop_
_publ_author_name
'Hatert, F.'
_cell_length_a 11.737(1)
_cell_length_b 12.503(2)
_cell_length_c 6.386(1)
_cell_angle_alpha 90
_cell_angle_beta 113.54(1)
_cell_angle_gamma 90
_cell_volume 859.14
_cell_formula_units_Z 4
_symmetry_space_group_name_H-M 'C 1 2/c 1'
_symmetry_Int_Tables_number 15
_refine_ls_R_factor_all 0.0351
loop_
_symmetry_equiv_pos_site_id
_symmetry_equiv_pos_as_xyz
1 'x, -y, z+1/2'
2 '-x, -y, -z'
3 '-x, y, -z+1/2'
4 'x, y, z'
5 'x+1/2, -y+1/2, z+1/2'
6 '-x+1/2, -y+1/2, -z'
7 '-x+1/2, y+1/2, -z+1/2'
8 'x+1/2, y+1/2, z'
loop_
_atom_type_symbol
_atom_type_oxidation_number
Na1+ 1
Zn2+ 2
Fe3+ 3
Zn2+ 2
P5+ 5
O2- -2
loop_
_atom_site_label
_atom_site_type_symbol
_atom_site_symmetry_multiplicity
_atom_site_Wyckoff_symbol
_atom_site_fract_x
_atom_site_fract_y
_atom_site_fract_z
_atom_site_B_iso_or_equiv
_atom_site_occupancy
_atom_site_attached_hydrogens
Na1 Na1+ 4 e 0 -0.004(1) 0.25 1. 0.464(6) 0
Na2 Na1+ 4 b 0.5 0 0 1.6(3) 0.98(1) 0
Zn1 Zn2+ 4 e 0 0.2675(2) 0.25 2.0(1) 1. 0
Fe1 Fe3+ 8 f 0.2826(2) 0.6531(2) 0.3733(5) 0.62(7) 0.776 0
Zn2 Zn2+ 8 f 0.2826(2) 0.6531(2) 0.3733(5) 0.62(7) 0.224 0
P1 P5+ 4 e 0 -0.2919(5) 0.25 1. 1. 0
P2 P5+ 8 f 0.2345(4) -0.1025(3) 0.1212(8) 1. 1. 0
O1 O2- 8 f 0.4615(7) 0.7160(6) 0.543(1) 0.82(9) 1. 0
O2 O2- 8 f 0.1055(7) 0.6294(5) 0.247(1) 0.82(9) 1. 0
O3 O2- 8 f 0.3332(7) 0.6646(6) 0.095(1) 0.82(9) 1. 0
O4 O2- 8 f 0.1199(7) 0.3989(5) 0.312(1) 0.82(9) 1. 0
O5 O2- 8 f 0.2193(7) 0.8214(6) 0.310(2) 0.82(9) 1. 0
O6 O2- 8 f 0.3232(5) 0.5067(7) 0.387(1) 0.82(9) 1. 0
#End of TTdata_245882-ICSD