
#(C) 2019 by FIZ Karlsruhe - Leibniz Institute for Information Infrastructure.  All rights reserved.
data_245929-ICSD
_database_code_ICSD 245929
_audit_creation_date 2009-02-01
_chemical_name_systematic
'Barium sodium bismuth titanium oxide (0.8/0.1/4.1/4/15)'
_chemical_formula_structural 'Ba0.8 Na0.1 Bi4.1 Ti4 O15'
_chemical_formula_sum 'Ba0.8 Bi4.1 Na0.1 O15 Ti4'
_chemical_name_structure_type SrBi4Ti4O15
_exptl_crystal_density_diffrn 7.5
_cell_measurement_temperature 295.
_publ_section_title

;
Structural evolution in three and four-layer Aurivillius solid solutions: A
comparative study versus relaxor properties
;
loop_
_citation_id
_citation_journal_full
_citation_year
_citation_journal_volume
_citation_page_first
_citation_page_last
_citation_journal_id_ASTM
primary 'Solid State Sciences' 2008 10 177 185 SSSCFJ
loop_
_publ_author_name
'Tellier, J.'
'Boullay, P.'
'Ben Jennet, D.'
'Mercurio, D.'
_cell_length_a 5.4647(2)
_cell_length_b 5.4471(2)
_cell_length_c 41.6627(9)
_cell_angle_alpha 90.
_cell_angle_beta 90.
_cell_angle_gamma 90.
_cell_volume 1240.16
_cell_formula_units_Z 4
_symmetry_space_group_name_H-M 'A 21 a m'
_symmetry_Int_Tables_number 36
_refine_ls_R_factor_all 0.0233
loop_
_symmetry_equiv_pos_site_id
_symmetry_equiv_pos_as_xyz
1 'x+1/2, -y, z'
2 'x+1/2, -y, -z'
3 'x, y, -z'
4 'x, y, z'
5 'x+1/2, -y+1/2, z+1/2'
6 'x+1/2, -y+1/2, -z+1/2'
7 'x, y+1/2, -z+1/2'
8 'x, y+1/2, z+1/2'
loop_
_atom_type_symbol
_atom_type_oxidation_number
Bi3+ 3
Ba2+ 2
Na1+ 1
Bi3+ 3
Ba2+ 2
Na1+ 1
Bi3+ 3
Ba2+ 2
Na1+ 1
Ti4+ 4
O2- -2
loop_
_atom_site_label
_atom_site_type_symbol
_atom_site_symmetry_multiplicity
_atom_site_Wyckoff_symbol
_atom_site_fract_x
_atom_site_fract_y
_atom_site_fract_z
_atom_site_B_iso_or_equiv
_atom_site_occupancy
_atom_site_attached_hydrogens
Bi1 Bi3+ 8 b 0 0.25 -0.21964(4) 0.028 0.93 0
Ba1 Ba2+ 8 b 0 0.25 -0.21964(4) 0.028 0.0622 0
Na1 Na1+ 8 b 0 0.25 -0.21964(4) 0.028 0.0077 0
Bi2 Bi3+ 4 a -0.018(3) 0.25 0 0.038 0.74 0
Ba2 Ba2+ 4 a -0.018(3) 0.25 0 0.038 0.2311 0
Na2 Na1+ 4 a -0.018(3) 0.25 0 0.038 0.0288 0
Bi3 Bi3+ 8 b 0 -0.25 0.39410(4) 0.035 0.75 0
Ba3 Ba2+ 8 b 0 -0.25 0.39410(4) 0.035 0.2225 0
Na3 Na1+ 8 b 0 -0.25 0.39410(4) 0.035 0.0275 0
Ti1 Ti4+ 8 b 0 0.273(3) 0.54922(12) 0.01 1. 0
Ti2 Ti4+ 8 b 0.018(4) 0.25 0.34514(13) 0.01 1. 0
O1 O2- 4 a 0.053(5) -0.301(6) 0 0.02 1. 0
O2 O2- 8 b 0.325(4) 0.531(4) -0.0510(5) 0.02 1. 0
O3 O2- 8 b 0.264(8) 0.529(6) 0.5435(4) 0.02 1. 0
O4 O2- 8 b 0.232(11) 0.5 -0.25 0.02 1. 0
O5 O2- 8 b 0.042(4) 0.280(5) 0.4032(2) 0.02 1. 0
O6 O2- 8 b 0.281(5) 0.5 0.1448(5) 0.02 1. 0
O7 O2- 8 b 0.282(5) 0.5 0.3516(5) 0.02 1. 0
O8 O2- 8 b 0.031(6) -0.263(5) -0.1955(3) 0.02 1. 0
loop_
_atom_site_aniso_label
_atom_site_aniso_type_symbol
_atom_site_aniso_U_11
_atom_site_aniso_U_22
_atom_site_aniso_U_33
_atom_site_aniso_U_12
_atom_site_aniso_U_13
_atom_site_aniso_U_23
Bi1 Bi3+ 0.028(3) 0.026(3) 0.0362(13) -0.013(6) 0.004(7) -0.006(5)
Ba1 Ba2+ 0.028(3) 0.026(3) 0.0362(13) -0.013(6) 0.004(7) -0.006(5)
Na1 Na1+ 0.028(3) 0.026(3) 0.0362(13) -0.013(6) 0.004(7) -0.006(5)
Bi2 Bi3+ 0.047(5) 0.035(4) 0.032(2) 0.009(12) 0. 0.
Ba2 Ba2+ 0.047(5) 0.035(4) 0.032(2) 0.009(12) 0. 0.
Na2 Na1+ 0.047(5) 0.035(4) 0.032(2) 0.009(12) 0. 0.
Bi3 Bi3+ 0.033(3) 0.031(3) 0.0418(17) -0.002(9) 0.000(7) 0.006(8)
Ba3 Ba2+ 0.033(3) 0.031(3) 0.0418(17) -0.002(9) 0.000(7) 0.006(8)
Na3 Na1+ 0.033(3) 0.031(3) 0.0418(17) -0.002(9) 0.000(7) 0.006(8)
#End of TTdata_245929-ICSD