
#(C) 2019 by FIZ Karlsruhe - Leibniz Institute for Information Infrastructure.  All rights reserved.
data_245932-ICSD
_database_code_ICSD 245932
_audit_creation_date 2009-02-01
_chemical_name_systematic 'Pentasodium hafnium(IV) tris(phosphate) - II'
_chemical_formula_structural 'Na5 Hf (P O4)3'
_chemical_formula_sum 'Hf1 Na5 O12 P3'
_chemical_name_structure_type Na5Ti(PO4)3
_exptl_crystal_density_diffrn 3.57
_cell_measurement_temperature 295.
_publ_section_title

;
Crystal chemistry of complex orthophosphates with framework structure
containing group IV d-transition metals and sodium
;
loop_
_citation_id
_citation_journal_full
_citation_year
_citation_journal_volume
_citation_page_first
_citation_page_last
_citation_journal_id_ASTM
primary 'European Journal of Inorganic Chemistry' 2008 2008 377 381 EJICFO
loop_
_publ_author_name
'Asada, E.'
'Pet'kov, I.'
'Gobechiya, E.'
'Kabalov, U.'
_cell_length_a 9.15591(7)
_cell_length_b 9.15591(7)
_cell_length_c 22.2521(3)
_cell_angle_alpha 90.
_cell_angle_beta 90.
_cell_angle_gamma 120.
_cell_volume 1615.49
_cell_formula_units_Z 6
_symmetry_space_group_name_H-M 'R 3 2 H'
_symmetry_Int_Tables_number 155
_refine_ls_R_factor_all 0.0151
loop_
_symmetry_equiv_pos_site_id
_symmetry_equiv_pos_as_xyz
1 '-x, -x+y, -z'
2 'x-y, -y, -z'
3 'y, x, -z'
4 '-x+y, -x, z'
5 '-y, x-y, z'
6 'x, y, z'
7 '-x+2/3, -x+y+1/3, -z+1/3'
8 'x-y+2/3, -y+1/3, -z+1/3'
9 'y+2/3, x+1/3, -z+1/3'
10 '-x+y+2/3, -x+1/3, z+1/3'
11 '-y+2/3, x-y+1/3, z+1/3'
12 'x+2/3, y+1/3, z+1/3'
13 '-x+1/3, -x+y+2/3, -z+2/3'
14 'x-y+1/3, -y+2/3, -z+2/3'
15 'y+1/3, x+2/3, -z+2/3'
16 '-x+y+1/3, -x+2/3, z+2/3'
17 '-y+1/3, x-y+2/3, z+2/3'
18 'x+1/3, y+2/3, z+2/3'
loop_
_atom_type_symbol
_atom_type_oxidation_number
Hf4+ 4
Na1+ 1
P5+ 5
O2- -2
loop_
_atom_site_label
_atom_site_type_symbol
_atom_site_symmetry_multiplicity
_atom_site_Wyckoff_symbol
_atom_site_fract_x
_atom_site_fract_y
_atom_site_fract_z
_atom_site_B_iso_or_equiv
_atom_site_occupancy
_atom_site_attached_hydrogens
Hf1 Hf4+ 6 c 0 0 0.0955(2) 1.14(11) 0.792(21) 0
Hf2 Hf4+ 6 c 0 0 0.7408(8) 1.6(5) 0.152(4) 0
Hf3 Hf4+ 6 c 0 0 0.123(2) 1.1(1) 0.059(6) 0
Na1 Na1+ 6 c 0 0 0.4151(10) 1.8(6) 1. 0
Na2 Na1+ 6 c 0 0 0.235(2) 2.5(2) 0.45(5) 0
Na3 Na1+ 9 d 0.614(3) 0 0 2.3(6) 1. 0
Na4 Na1+ 9 e 0.312(4) 0 0.5 2.0(1) 0.78(6) 0
Na5 Na1+ 9 d 0.114(4) 0 0 3.2(2) 0.58(4) 0
P1 P5+ 9 d 0.296(2) 0 0 2.2(6) 1. 0
P2 P5+ 9 e 0.675(3) 0 0.5 2.1(7) 1. 0
O1 O2- 18 f 0.198(3) 0.024(3) -0.0520(12) 2.0(7) 1. 0
O2 O2- 18 f 0.786(3) 0.052(3) 0.552(1) 2.1(7) 1. 0
O3 O2- 18 f 0.161(3) 0.187(3) -0.1593(12) 1.9(7) 1. 0
O4 O2- 18 f 0.840(3) 0.802(3) 0.317(12) 2.2(8) 1. 0
#End of TTdata_245932-ICSD