
#(C) 2018 by FIZ Karlsruhe - Leibniz Institute for Information Infrastructure.  All rights reserved.
data_246132-ICSD
_database_code_ICSD 246132
_audit_creation_date 2009-02-01
_chemical_name_systematic 'Dilithium iron(II) silicate'
_chemical_formula_structural 'Li2 Fe (Si O4)'
_chemical_formula_sum 'Fe1 Li2 O4 Si1'
_exptl_crystal_density_diffrn 3.2
_publ_section_title 'Structure of Li2 Fe Si O4'
loop_
_citation_id
_citation_journal_full
_citation_year
_citation_journal_volume
_citation_page_first
_citation_page_last
_citation_journal_id_ASTM
primary 'Journal of the American Chemical Society' 2008 130 13212 13213 JACSAT
loop_
_publ_author_name
'Nishimura, S.T.'
'Hayase, S.'
'Kanno, R.'
'Yashima, M.'
'Nakayama, N.'
'Yamada, A.'
_cell_length_a 8.22898(18)
_cell_length_b 5.02002(4)
_cell_length_c 8.23335(18)
_cell_angle_alpha 90
_cell_angle_beta 99.2027(5)
_cell_angle_gamma 90
_cell_volume 335.74
_cell_formula_units_Z 4
_symmetry_space_group_name_H-M 'P 1 21 1'
_symmetry_Int_Tables_number 4
_refine_ls_R_factor_all 0.0083
loop_
_symmetry_equiv_pos_site_id
_symmetry_equiv_pos_as_xyz
1 '-x, y+1/2, -z'
2 'x, y, z'
loop_
_atom_type_symbol
_atom_type_oxidation_number
Li1+ 1
Fe2+ 2
Si4+ 4
O2- -2
loop_
_atom_site_label
_atom_site_type_symbol
_atom_site_symmetry_multiplicity
_atom_site_Wyckoff_symbol
_atom_site_fract_x
_atom_site_fract_y
_atom_site_fract_z
_atom_site_B_iso_or_equiv
_atom_site_occupancy
_atom_site_attached_hydrogens
Li1 Li1+ 2 a 0.67 0.903 0.67 1. 1. 0
Li2 Li1+ 2 a 0.173 0.825 0.161 1. 1. 0
Li3 Li1+ 2 a 0.582 0.399 0.088 1. 1. 0
Li4 Li1+ 2 a 0.083 0.321 0.593 1. 1. 0
Fe1 Fe2+ 2 a 0.2883(5) 0.916(9) 0.5371(5) 0.96(2) 1. 0
Fe2 Fe2+ 2 a 0.7952(5) 0.814(9) 0.0451(5) 0.96(2) 1. 0
Si1 Si4+ 2 a 0.0438(11) 0.805(9) 0.7939(9) 0.49(3) 1. 0
Si2 Si4+ 2 a 0.5389(10) 0.924(9) 0.2904(9) 0.49(3) 1. 0
O1 O2- 2 a 0.8583(18) 0.920(9) 0.8264(16) 0.51(4) 1. 0
O2 O2- 2 a 0.3742(18) 0.835(9) 0.3310(16) 0.51(4) 1. 0
O3 O2- 2 a 0.4293(16) 0.325(9) 0.8980(15) 0.51(4) 1. 0
O4 O2- 2 a 0.9234(14) 0.432(9) 0.3751(15) 0.51(4) 1. 0
O5 O2- 2 a 0.686(2) 0.819(10) 0.4422(17) 0.51(4) 1. 0
O6 O2- 2 a 0.178(2) 0.890(10) 0.9377(18) 0.51(4) 1. 0
O7 O2- 2 a 0.9644(14) 0.975(9) 0.2278(13) 0.51(4) 1. 0
O8 O2- 2 a 0.4606(16) 0.740(9) 0.7066(15) 0.51(4) 1. 0
#End of TTdata_246132-ICSD