
#(C) 2018 by FIZ Karlsruhe - Leibniz Institute for Information Infrastructure.  All rights reserved.
data_246137-ICSD
_database_code_ICSD 246137
_audit_creation_date 2009-02-01
_audit_update_record 2011-02-01
_chemical_name_systematic 'Lithium amidoborane'
_chemical_formula_structural 'Li (N H2 B H3)'
_chemical_formula_sum 'H5 B1 Li1 N1'
_chemical_name_structure_type LiNH2BH3
_exptl_crystal_density_diffrn 0.96
_cell_measurement_temperature 293.
_publ_section_title

;
Alkali and alkaline-earth metal amidoboranes: Structure, crystal chemistry,
and hydrogen storage properties
;
loop_
_citation_id
_citation_journal_full
_citation_year
_citation_journal_volume
_citation_page_first
_citation_page_last
_citation_journal_id_ASTM
primary 'Journal of the American Chemical Society' 2008 130 14834 14839 JACSAT
loop_
_publ_author_name
'Wu Hui'
'Zhou Wei'
'Yildirim, T.'
_cell_length_a 7.1051(8)
_cell_length_b 13.930(1)
_cell_length_c 5.1477(7)
_cell_angle_alpha 90.
_cell_angle_beta 90.
_cell_angle_gamma 90.
_cell_volume 509.49
_cell_formula_units_Z 8
_symmetry_space_group_name_H-M 'P b c a'
_symmetry_Int_Tables_number 61
loop_
_symmetry_equiv_pos_site_id
_symmetry_equiv_pos_as_xyz
1 'x+1/2, y, -z+1/2'
2 'x, -y+1/2, z+1/2'
3 '-x+1/2, y+1/2, z'
4 '-x, -y, -z'
5 '-x+1/2, -y, z+1/2'
6 '-x, y+1/2, -z+1/2'
7 'x+1/2, -y+1/2, -z'
8 'x, y, z'
loop_
_atom_type_symbol
_atom_type_oxidation_number
B3+ 3
N3- -3
H1- -1
H1+ 1
Li1+ 1
loop_
_atom_site_label
_atom_site_type_symbol
_atom_site_symmetry_multiplicity
_atom_site_Wyckoff_symbol
_atom_site_fract_x
_atom_site_fract_y
_atom_site_fract_z
_atom_site_B_iso_or_equiv
_atom_site_occupancy
_atom_site_attached_hydrogens
B1 B3+ 8 c 0.091(4) 0.152(4) 0.972(5) 0.020(3) 1. 0
N1 N3- 8 c 0.074(1) 0.093(3) 0.716(5) 0.020(3) 1. 0
H1 H1- 8 c 0.149 0.101 0.155 0.028 1. 0
H2 H1- 8 c 0.204 0.22 0.945 0.028 1. 0
H3 H1- 8 c -0.064 0.186 0.038 0.028 1. 0
H4 H1+ 8 c 0.2 0.064 0.661 0.028 1. 0
H5 H1+ 8 c -0.018 0.037 0.736 0.028 1. 0
Li1 Li1+ 8 c -0.020(1) 0.180(2) 0.428(3) 0.015(5) 1. 0
#End of TTdata_246137-ICSD