
#(C) 2019 by FIZ Karlsruhe - Leibniz Institute for Information Infrastructure.  All rights reserved.
data_246359-ICSD
_database_code_ICSD 246359
_audit_creation_date 2009-08-01
_chemical_name_systematic 'Tribarium sodium diiridate(V/VI)'
_chemical_formula_structural 'Ba3 Na (Ir2 O9)'
_chemical_formula_sum 'Ba3 Ir2 Na1 O9'
_chemical_name_structure_type BaFeO2+x
_exptl_crystal_density_diffrn 7.34
_cell_measurement_temperature 300.
_publ_section_title
'Low temperature structural phase transition of Ba3 Na Ir2 O9'
loop_
_citation_id
_citation_journal_full
_citation_year
_citation_journal_volume
_citation_page_first
_citation_page_last
_citation_journal_id_ASTM
primary 'Solid State Sciences' 2009 11 608 613 SSSCFJ
loop_
_publ_author_name
'zur Loye, H.C.'
'Kim Seung-Joo'
'Macquart, R.'
'Smith, M.D.'
'Lee Yong Jae'
'Vogt, T.'
_cell_length_a 5.8751(1)
_cell_length_b 5.8751(1)
_cell_length_c 14.6112(4)
_cell_angle_alpha 90.
_cell_angle_beta 90.
_cell_angle_gamma 120.
_cell_volume 436.76
_cell_formula_units_Z 2
_symmetry_space_group_name_H-M 'P 63/m m c'
_symmetry_Int_Tables_number 194
_refine_ls_R_factor_all 0.042
loop_
_symmetry_equiv_pos_site_id
_symmetry_equiv_pos_as_xyz
1 'x, x-y, -z+1/2'
2 '-x+y, y, -z+1/2'
3 '-y, -x, -z+1/2'
4 '-x+y, -x, -z+1/2'
5 '-y, x-y, -z+1/2'
6 'x, y, -z+1/2'
7 '-x, -x+y, z+1/2'
8 'x-y, -y, z+1/2'
9 'y, x, z+1/2'
10 'x-y, x, z+1/2'
11 'y, -x+y, z+1/2'
12 '-x, -y, z+1/2'
13 '-x, -x+y, -z'
14 'x-y, -y, -z'
15 'y, x, -z'
16 'x-y, x, -z'
17 'y, -x+y, -z'
18 '-x, -y, -z'
19 'x, x-y, z'
20 '-x+y, y, z'
21 '-y, -x, z'
22 '-x+y, -x, z'
23 '-y, x-y, z'
24 'x, y, z'
loop_
_atom_type_symbol
_atom_type_oxidation_number
Ba2+ 2
Ir5+ 5.5
Na1+ 1
O2- -2
loop_
_atom_site_label
_atom_site_type_symbol
_atom_site_symmetry_multiplicity
_atom_site_Wyckoff_symbol
_atom_site_fract_x
_atom_site_fract_y
_atom_site_fract_z
_atom_site_B_iso_or_equiv
_atom_site_occupancy
_atom_site_attached_hydrogens
Ba1 Ba2+ 4 f 0.3333 0.6667 0.9129(2) 0.36(6) 1. 0
Ba2 Ba2+ 2 b 0 0 0.25 0.23(8) 1. 0
Ir1 Ir5+ 4 f 0.3333 0.6667 0.1569(1) 0.16(3) 1. 0
Na1 Na1+ 2 a 0 0 0 0.5 1. 0
O1 O2- 6 h 0.487(2) 0.975(5) 0.25 0.5 1. 0
O2 O2- 12 k 0.171(2) 0.343(2) 0.409(1) 0.5 1. 0
#End of TTdata_246359-ICSD