
#(C) 2019 by FIZ Karlsruhe - Leibniz Institute for Information Infrastructure.  All rights reserved.
data_246745-ICSD
_database_code_ICSD 246745
_audit_creation_date 2010-02-01
_chemical_name_systematic
'Sodium cobalt(III/IV) ruthenium(IV) oxide (0.66/0.8/0.2/2)'
_chemical_formula_structural 'Na0.66 (Co0.8 Ru0.2) O2'
_chemical_formula_sum 'Co0.8 Na0.66 O2 Ru0.2'
_chemical_name_structure_type NaCo2O4
_exptl_crystal_density_diffrn 4.89
_publ_section_title

;
Effect of ruthenium substitution in layered sodium cobaltate Na(x) Co O2:
Synthesis, structural and physical properties
;
loop_
_citation_id
_citation_journal_full
_citation_year
_citation_journal_volume
_citation_page_first
_citation_page_last
_citation_journal_id_ASTM
primary 'Journal of Solid State Chemistry' 2009 182 1872 1878 JSSCBI
loop_
_publ_author_name
'Strobel, P.'
'Muguerra, H.'
'Hebert, S.'
'Pachaud, E.'
'Colin, C.'
'Julien, M.H.'
_cell_length_a 2.8513(3)
_cell_length_b 2.8513(3)
_cell_length_c 11.041(2)
_cell_angle_alpha 90.
_cell_angle_beta 90.
_cell_angle_gamma 120.
_cell_volume 77.74
_cell_formula_units_Z 2
_symmetry_space_group_name_H-M 'P 63/m m c'
_symmetry_Int_Tables_number 194
_refine_ls_R_factor_all 0.0243
loop_
_symmetry_equiv_pos_site_id
_symmetry_equiv_pos_as_xyz
1 'x, x-y, -z+1/2'
2 '-x+y, y, -z+1/2'
3 '-y, -x, -z+1/2'
4 '-x+y, -x, -z+1/2'
5 '-y, x-y, -z+1/2'
6 'x, y, -z+1/2'
7 '-x, -x+y, z+1/2'
8 'x-y, -y, z+1/2'
9 'y, x, z+1/2'
10 'x-y, x, z+1/2'
11 'y, -x+y, z+1/2'
12 '-x, -y, z+1/2'
13 '-x, -x+y, -z'
14 'x-y, -y, -z'
15 'y, x, -z'
16 'x-y, x, -z'
17 'y, -x+y, -z'
18 '-x, -y, -z'
19 'x, x-y, z'
20 '-x+y, y, z'
21 '-y, -x, z'
22 '-x+y, -x, z'
23 '-y, x-y, z'
24 'x, y, z'
loop_
_atom_type_symbol
_atom_type_oxidation_number
Na1+ 1
Co3+ 3.2
Ru4+ 4
O2- -2
loop_
_atom_site_label
_atom_site_type_symbol
_atom_site_symmetry_multiplicity
_atom_site_Wyckoff_symbol
_atom_site_fract_x
_atom_site_fract_y
_atom_site_fract_z
_atom_site_B_iso_or_equiv
_atom_site_occupancy
_atom_site_attached_hydrogens
Na1 Na1+ 2 b 0 0 0.25 . 0.25(3) 0
Na2 Na1+ 2 d 0.6667 0.3333 0.25 . 0.41(3) 0
Co1 Co3+ 2 a 0 0 0 . 0.8 0
Ru1 Ru4+ 2 a 0 0 0 . 0.2 0
O1 O2- 4 f 0.3333 0.6667 0.087(2) 3.3(4) 1. 0
#End of TTdata_246745-ICSD