
#(C) 2019 by FIZ Karlsruhe - Leibniz Institute for Information Infrastructure.  All rights reserved.
data_246763-ICSD
_database_code_ICSD 246763
_audit_creation_date 2010-02-01
_chemical_name_systematic
'Sodium tungsten oxide hydrate dideuteriohydrate (0.080/1/2.99/0.244/0.208)'
_chemical_formula_structural 'Na0.080 W O2.99 (H2 O)0.244 (D2 O)0.208'
_chemical_formula_sum 'H0.488 D0.416 Na0.08 O3.442 W1'
_exptl_crystal_density_diffrn 6.69
_cell_measurement_temperature 303.
_publ_section_title

;
Microcrystalline hexagonal tungsten bronze. 1. Basis of ion exchange
selectivity for cesium and strontium
;
loop_
_citation_id
_citation_journal_full
_citation_year
_citation_journal_volume
_citation_page_first
_citation_page_last
_citation_journal_id_ASTM
primary 'Inorganic Chemistry' 2009 48 5648 5662 INOCAJ
loop_
_publ_author_name
'Griffith, C.S.'
'Luca, V.'
'Hanna, J.V.'
'Pike, K.J.'
'Smith, M.E.'
'Thorogood, G.S.'
_cell_length_a 7.317(2)
_cell_length_b 7.317(2)
_cell_length_c 3.8878(9)
_cell_angle_alpha 90.
_cell_angle_beta 90.
_cell_angle_gamma 120.
_cell_volume 180.26
_cell_formula_units_Z 3
_symmetry_space_group_name_H-M 'P 6/m m m'
_symmetry_Int_Tables_number 191
_refine_ls_R_factor_all 0.0172
loop_
_symmetry_equiv_pos_site_id
_symmetry_equiv_pos_as_xyz
1 '-x, -x+y, -z'
2 'x-y, -y, -z'
3 'y, x, -z'
4 '-x+y, -x, -z'
5 '-y, x-y, -z'
6 'x, y, -z'
7 'x, x-y, -z'
8 '-x+y, y, -z'
9 '-y, -x, -z'
10 'x-y, x, -z'
11 'y, -x+y, -z'
12 '-x, -y, -z'
13 'x, x-y, z'
14 '-x+y, y, z'
15 '-y, -x, z'
16 'x-y, x, z'
17 'y, -x+y, z'
18 '-x, -y, z'
19 '-x, -x+y, z'
20 'x-y, -y, z'
21 'y, x, z'
22 '-x+y, -x, z'
23 '-y, x-y, z'
24 'x, y, z'
loop_
_atom_type_symbol
_atom_type_oxidation_number
W6+ 6
O2- -2
H1+ 1
D1+ 1
Na1+ 1
loop_
_atom_site_label
_atom_site_type_symbol
_atom_site_symmetry_multiplicity
_atom_site_Wyckoff_symbol
_atom_site_fract_x
_atom_site_fract_y
_atom_site_fract_z
_atom_site_B_iso_or_equiv
_atom_site_occupancy
_atom_site_attached_hydrogens
W1 W6+ 3 f 0.5 0 0 5.4(1) 1. 0
O1 O2- 3 g 0.5 0 0.5 2.05(8) 1. 0
O2 O2- 6 l 0.2115(2) 0.4231(4) 0 2.13(6) 1. 0
O3 O2- 2 e 0 0 0.429(5) 6.7(3) 0.672(0) 0
H1 H1+ 12 o 0.059(4) 0.119(8) 0.24(1) 13.4(7) 0.122(2) 0
D1 D1+ 12 o 0.059(4) 0.119(8) 0.24(1) 13.4(7) 0.104(0) 0
Na1 Na1+ 1 a 0 0 0 1. 0.24(1) 0
#End of TTdata_246763-ICSD