
#(C) 2017 by FIZ Karlsruhe - Leibniz Institute for Information Infrastructure.  All rights reserved.
data_247094-ICSD
_database_code_ICSD 247094
_audit_creation_date 2010-08-01
_chemical_name_systematic 'Lithium cerium(III/IV) fluoride (5.5/12/50)'
_chemical_formula_structural 'Li5.5 Ce12 F50'
_chemical_formula_sum 'Ce12 F50 Li5.5'
_exptl_crystal_density_diffrn 4.92
_publ_section_title

;
Pseudotetragonal structure of Li2+x Cex(3+) Ce12-x(4+) F50: The first mixed
valence cerium fluoride
;
loop_
_citation_id
_citation_journal_full
_citation_year
_citation_journal_volume
_citation_page_first
_citation_page_last
_citation_journal_id_ASTM
primary 'Inorganic Chemistry' 2010 49 686 694 INOCAJ
loop_
_publ_author_name
'Renaudin, G.'
'Dieudonne, B.'
'Avignant, D.'
'Mapemba, E.'
'El-Ghozzi, M.'
'Fleutot, S.'
'Martinez, H.'
'Cerny, R.'
'Dubois, M.'
_cell_length_a 8.855(2)
_cell_length_b 22.968(5)
_cell_length_c 8.855(2)
_cell_angle_alpha 90
_cell_angle_beta 90.
_cell_angle_gamma 90
_cell_volume 1800.94
_cell_formula_units_Z 2
_symmetry_space_group_name_H-M 'P 1 21 1'
_symmetry_Int_Tables_number 4
_refine_ls_R_factor_all 0.075
loop_
_symmetry_equiv_pos_site_id
_symmetry_equiv_pos_as_xyz
1 '-x, y+1/2, -z'
2 'x, y, z'
loop_
_atom_type_symbol
_atom_type_oxidation_number
Ce3+ 3.7083
F1- -1
Li1+ 1
loop_
_atom_site_label
_atom_site_type_symbol
_atom_site_symmetry_multiplicity
_atom_site_Wyckoff_symbol
_atom_site_fract_x
_atom_site_fract_y
_atom_site_fract_z
_atom_site_B_iso_or_equiv
_atom_site_occupancy
_atom_site_attached_hydrogens
Ce1 Ce3+ 2 a 0.0018(2) 0.2072(1) 0.5078(1) 0.0129(5) 1. 0
Ce2 Ce3+ 2 a 0.50079(9) 0.2340(1) -0.00173(8) 0.0026(4) 1. 0
Ce3 Ce3+ 2 a 0.5082(1) -0.0423(1) 0.9982(2) 0.0147(5) 1. 0
Ce4 Ce3+ 2 a 0.99824(9) -0.0183(1) 0.49948(9) 0.0055(5) 1. 0
Ce5 Ce3+ 2 a 0.3787(2) 0.0964(1) 0.3313(2) 0.0107(4) 1. 0
Ce6 Ce3+ 2 a 0.8324(2) 0.09836(7) 0.1182(2) 0.0052(3) 1. 0
Ce7 Ce3+ 2 a 0.6688(3) 0.34585(9) 0.3776(2) 0.0108(4) 1. 0
Ce8 Ce3+ 2 a -0.1188(2) 0.34813(8) 0.8319(2) 0.0055(3) 1. 0
Ce9 Ce3+ 2 a 0.6170(2) 0.0948(1) 0.6908(3) 0.0126(3) 1. 0
Ce10 Ce3+ 2 a 0.2007(2) 0.09457(8) 0.8731(2) 0.0087(3) 1. 0
Ce11 Ce3+ 2 a 0.3095(3) 0.34434(9) 0.6181(2) 0.0125(4) 1. 0
Ce12 Ce3+ 2 a 0.1274(2) 0.34429(8) 0.1995(2) 0.0085(3) 1. 0
F1 F1- 2 a 0.510(2) 0.2908(8) 0.528(2) 0.025(3) 1. 0
F2 F1- 2 a 0.05(2) 0.293(1) 0.013(2) 0.030(5) 1. 0
F3 F1- 2 a 0.531(2) 0.0412(8) 0.487(2) 0.026(3) 1. 0
F4 F1- 2 a 0.794(2) 0.264(1) 0.438(2) 0.036(5) 1. 0
F5 F1- 2 a 0.017(2) 0.042(1) 0.995(2) 0.040(6) 1. 0
F6 F1- 2 a -0.002(1) 0.4017(9) 0.011(1) 0.007(2) 1. 0
F7 F1- 2 a -0.277(2) 0.2813(7) 0.915(2) 0.010(3) 1. 0
F8 F1- 2 a 0.792(2) 0.0447(7) 0.584(1) 0.004(3) 1. 0
F9 F1- 2 a 0.010(1) 0.1523(8) 0.0010(9) 0.005(3) 1. 0
F10 F1- 2 a 0.582(2) 0.2893(7) 0.211(2) 0.009(3) 1. 0
F11 F1- 2 a 0.213(2) 0.0397(7) 0.415(2) 0.007(3) 1. 0
F12 F1- 2 a 0.418(2) 0.2949(7) 0.795(1) 0.005(3) 1. 0
F13 F1- 2 a 0.910(2) 0.0299(7) 0.275(2) 0.011(3) 1. 0
F14 F1- 2 a 0.505(1) 0.4016(8) 0.511(1) 0.007(3) 1. 0
F15 F1- 2 a 0.730(2) 0.0093(7) 0.062(2) 0.013(3) 1. 0
F16 F1- 2 a 0.5088(9) 0.1527(8) 0.4946(9) 0.005(3) 1. 0
F17 F1- 2 a 0.284(2) 0.0037(8) 0.920(2) 0.021(4) 1. 0
F18 F1- 2 a 0.291(1) 0.1836(6) 0.916(1) 0.006(3) 1. 0
F19 F1- 2 a 0.439(2) 0.0100(9) 0.211(2) 0.027(4) 1. 0
F20 F1- 2 a 0.602(2) 0.4025(7) 0.183(1) 0.010(3) 1. 0
F21 F1- 2 a 0.583(2) 0.0019(9) 0.772(2) 0.027(4) 1. 0
F22 F1- 2 a 0.626(1) 0.0971(7) 0.250(1) 0.018(2) 1. 0
F23 F1- 2 a -0.249(2) 0.3480(7) 0.625(2) 0.021(3) 1. 0
F24 F1- 2 a 0.087(2) 0.4348(7) 0.285(2) 0.015(3) 1. 0
F25 F1- 2 a 0.938(2) 0.2622(8) 0.720(2) 0.023(4) 1. 0
F26 F1- 2 a 0.565(2) 0.1894(7) -0.228(2) 0.021(3) 1. 0
F27 F1- 2 a 0.086(2) 0.2560(8) 0.295(2) 0.026(4) 1. 0
F28 F1- 2 a 0.240(1) 0.0911(8) 0.128(1) 0.015(2) 1. 0
F29 F1- 2 a 0.428(2) 0.1775(7) 0.197(2) 0.016(3) 1. 0
F30 F1- 2 a 0.783(2) 0.0945(9) 0.865(1) 0.021(3) 1. 0
F31 F1- 2 a 0.133(2) 0.347(1) 0.783(2) 0.026(3) 1. 0
F32 F1- 2 a 0.875(2) 0.3433(9) 0.239(1) 0.020(3) 1. 0
F33 F1- 2 a -0.067(2) 0.4312(9) 0.716(2) 0.024(4) 1. 0
F34 F1- 2 a 0.351(1) 0.0948(6) 0.673(1) 0.016(2) 1. 0
F35 F1- 2 a 0.608(1) -0.0933(6) 0.189(1) 0.004(2) 1. 0
F36 F1- 2 a 0.329(2) 0.3460(7) 0.351(1) 0.022(2) 1. 0
F37 F1- 2 a 0.806(2) 0.1527(9) 0.567(2) 0.026(4) 1. 0
F38 F1- 2 a 0.278(2) 0.2790(7) 0.088(2) 0.008(3) 1. 0
F39 F1- 2 a 0.090(1) 0.0277(6) 0.723(1) 0.004(2) 1. 0
F40 F1- 2 a 0.232(2) 0.4392(8) 0.563(2) 0.024(4) 1. 0
F41 F1- 2 a 0.799(2) 0.4263(8) 0.425(2) 0.022(3) 1. 0
F42 F1- 2 a 0.225(2) 0.253(1) 0.591(2) 0.040(5) 1. 0
F43 F1- 2 a 0.707(2) 0.1808(7) 0.067(2) 0.009(3) 1. 0
F44 F1- 2 a -0.313(1) 0.4059(6) 0.897(1) 0.004(2) 1. 0
F45 F1- 2 a 0.309(2) 0.4032(8) 0.099(2) 0.012(3) 1. 0
F46 F1- 2 a 0.189(2) 0.1478(7) 0.435(2) 0.011(3) 1. 0
F47 F1- 2 a 0.064(2) 0.1496(7) 0.696(1) 0.006(3) 1. 0
F48 F1- 2 a 0.931(2) 0.1519(8) 0.308(2) 0.010(3) 1. 0
F49 F1- 2 a 0.475(2) 0.0968(8) 0.920(2) 0.032(3) 1. 0
F50 F1- 2 a 0.082(2) 0.3463(8) 0.475(2) 0.035(3) 1. 0
Li1 Li1+ 2 a 0.010(7) 0.5948(7) 0.502(8) 0.072(8) 1. 0
Li2 Li1+ 2 a 0.524(4) 0.353(1) 0.879(6) 0.072(8) 1. 0
Li3 Li1+ 2 a 0.07(1) 0.221(4) -0.083(9) 0.091(8) 1. 0
Li4 Li1+ 2 a 0.53(2) 0.228(8) 0.37(2) 0.091(8) 0.5 0
Li5 Li1+ 2 a 0.54(1) 0.968(4) 0.391(9) 0.091(8) 1. 0
Li6 Li1+ 2 a 0.085(9) 0.470(4) 0.053(9) 0.091(8) 1. 0
loop_
_atom_site_aniso_label
_atom_site_aniso_type_symbol
_atom_site_aniso_U_11
_atom_site_aniso_U_22
_atom_site_aniso_U_33
_atom_site_aniso_U_12
_atom_site_aniso_U_13
_atom_site_aniso_U_23
Ce1 Ce3+ 0.0151(7) 0.0116(8) 0.0120(7) 0.0023(3) -0.0020(5) 0.0002(4)
Ce2 Ce3+ 0.0016(7) 0.0045(8) 0.0018(6) 0.0007(2) -0.0005(5) 0.0003(2)
Ce3 Ce3+ 0.0139(7) 0.0140(8) 0.0163(8) -0.0002(4) 0.0003(6) -0.0022(3)
Ce4 Ce3+ 0.0046(7) 0.0071(8) 0.0047(7) -0.0003(3) -0.0012(5) 0.0001(3)
Ce5 Ce3+ 0.0100(5) 0.0126(6) 0.0095(7) -0.0016(5) -0.0011(4) -0.0017(5)
Ce6 Ce3+ 0.0054(5) 0.0050(5) 0.0052(5) -0.0027(4) 0.0022(4) 0.0010(4)
Ce7 Ce3+ 0.0115(7) 0.0118(6) 0.0091(5) 0.0010(5) -0.0025(4) -0.0014(5)
Ce8 Ce3+ 0.0060(5) 0.0046(5) 0.0058(5) 0.0003(4) -0.0030(3) -0.0036(4)
Ce9 Ce3+ 0.0135(5) 0.0132(6) 0.0112(5) 0.0008(5) -0.0006(4) -0.0023(5)
Ce10 Ce3+ 0.0089(5) 0.0088(5) 0.0083(5) 0.0003(5) -0.0028(4) -0.0029(4)
Ce11 Ce3+ 0.0125(5) 0.0118(6) 0.0133(5) 0.0004(5) -0.0014(4) 0.0007(5)
Ce12 Ce3+ 0.0080(5) 0.0081(5) 0.0097(5) 0.0023(4) 0.0014(4) 0.0021(5)
#End of TTdata_247094-ICSD