
#(C) 2019 by FIZ Karlsruhe - Leibniz Institute for Information Infrastructure.  All rights reserved.
data_247311-ICSD
_database_code_ICSD 247311
_audit_creation_date 2011-02-01
_audit_update_record 2018-08-01
_chemical_name_systematic 'Sodium niobate(V)'
_chemical_formula_structural 'Na (Nb O3)'
_chemical_formula_sum 'Na1 Nb1 O3'
_chemical_name_structure_type NaNbO3(oP20)
_exptl_crystal_density_diffrn 4.56
_cell_measurement_temperature 293.
_publ_section_title

;
The polar phase of Na Nb O3: A combined study by powder diffraction,
solid-state NMR, and first-principles calculations
;
loop_
_citation_id
_citation_journal_full
_citation_year
_citation_journal_volume
_citation_page_first
_citation_page_last
_citation_journal_id_ASTM
primary 'Journal of the American Chemical Society' 2010 132 8732 8746 JACSAT
loop_
_publ_author_name
'Johnston, K.E.'
'Tang, C.C.'
'Parker, J.E.'
'Knight, K.S.'
'Lightfoot, P.'
'Ashbrook, S.E.'
_cell_length_a 5.571(1)
_cell_length_b 7.766(1)
_cell_length_c 5.513(1)
_cell_angle_alpha 90.
_cell_angle_beta 90.
_cell_angle_gamma 90.
_cell_volume 238.52
_cell_formula_units_Z 4
_symmetry_space_group_name_H-M 'P 21 m a'
_symmetry_Int_Tables_number 26
_refine_ls_R_factor_all 0.062
loop_
_symmetry_equiv_pos_site_id
_symmetry_equiv_pos_as_xyz
1 'x+1/2, y, -z'
2 'x+1/2, -y, -z'
3 'x, -y, z'
4 'x, y, z'
loop_
_atom_type_symbol
_atom_type_oxidation_number
Nb5+ 5
Na1+ 1
O2- -2
loop_
_atom_site_label
_atom_site_type_symbol
_atom_site_symmetry_multiplicity
_atom_site_Wyckoff_symbol
_atom_site_fract_x
_atom_site_fract_y
_atom_site_fract_z
_atom_site_B_iso_or_equiv
_atom_site_occupancy
_atom_site_attached_hydrogens
Nb1 Nb5+ 4 c 0.2625 0.2500(5) 0.2466(5) 0.0020(4) 1. 0
Na1 Na1+ 2 a 0.2596(11) 0 0.7481(10) 0.0050(10) 1. 0
Na2 Na1+ 2 b 0.2915(12) 0.5 0.7327(11) 0.0224(15) 1. 0
O1 O2- 2 a 0.2409(6) 0 0.3124(11) 0.0053(13) 1. 0
O2 O2- 2 b 0.2257(5) 0.5 0.1928(11) 0.0037(12) 1. 0
O3 O2- 4 c 0.0131(7) 0.2790(6) 0.5272(7) 0.0184(9) 1. 0
O4 O2- 4 c -0.0490(6) 0.2197(5) 0.0360(6) 0.0061(7) 1. 0
#End of TTdata_247311-ICSD