
#(C) 2019 by FIZ Karlsruhe - Leibniz Institute for Information Infrastructure.  All rights reserved.
data_248012-ICSD
_database_code_ICSD 248012
_audit_creation_date 2010-08-01
_chemical_name_systematic 'Sodium dysprosium(III) bis(tungstate(VI))'
_chemical_formula_structural 'Na Dy (W O4)2'
_chemical_formula_sum 'Dy1 Na1 O8 W2'
_chemical_name_structure_type Scheelite-CaWO4
_exptl_crystal_density_diffrn 7.19
_cell_measurement_temperature 298.
_publ_section_title 'Scheelite-type Na Dy (W O4)2'
loop_
_citation_id
_citation_journal_full
_citation_year
_citation_journal_volume
_citation_page_first
_citation_page_last
_citation_journal_id_ASTM
primary 'Acta Crystallographica, Section E: Structure Reports Online' 2010 66 i2
i2 ACSEBH
loop_
_publ_author_name
'Zhao Dan'
'Li Feifei'
'Cheng Wen Dan'
'Zhang Hao'
_cell_length_a 5.2545(5)
_cell_length_b 5.2545(5)
_cell_length_c 11.4029(15)
_cell_angle_alpha 90.
_cell_angle_beta 90.
_cell_angle_gamma 90.
_cell_volume 314.83
_cell_formula_units_Z 2
_symmetry_space_group_name_H-M 'I 41/a Z'
_symmetry_Int_Tables_number 88
_refine_ls_R_factor_all 0.0236
loop_
_symmetry_equiv_pos_site_id
_symmetry_equiv_pos_as_xyz
1 '-y+3/4, x+3/4, -z+3/4'
2 'y+1/4, -x+3/4, -z+3/4'
3 'x, y+1/2, -z'
4 '-x, -y, -z'
5 'y+1/4, -x+1/4, z+1/4'
6 '-y+3/4, x+1/4, z+1/4'
7 '-x, -y+1/2, z'
8 'x, y, z'
9 '-y+1/4, x+1/4, -z+1/4'
10 'y+3/4, -x+1/4, -z+1/4'
11 'x+1/2, y, -z+1/2'
12 '-x+1/2, -y+1/2, -z+1/2'
13 'y+3/4, -x+3/4, z+3/4'
14 '-y+1/4, x+3/4, z+3/4'
15 '-x+1/2, -y, z+1/2'
16 'x+1/2, y+1/2, z+1/2'
loop_
_atom_type_symbol
_atom_type_oxidation_number
Na1+ 1
Dy3+ 3
W6+ 6
O2- -2
loop_
_atom_site_label
_atom_site_type_symbol
_atom_site_symmetry_multiplicity
_atom_site_Wyckoff_symbol
_atom_site_fract_x
_atom_site_fract_y
_atom_site_fract_z
_atom_site_B_iso_or_equiv
_atom_site_occupancy
_atom_site_attached_hydrogens
Na1 Na1+ 4 b 0.5 -0.25 0.125 0.0068(4) 0.5 0
Dy1 Dy3+ 4 b 0.5 -0.25 0.125 0.0068(4) 0.5 0
W1 W6+ 4 a 0. 0.25 0.125 0.0091(4) 1 0
O1 O2- 16 f 0.2419(14) 0.0977(13) 0.0404(6) 0.0187(16) 1 0
loop_
_atom_site_aniso_label
_atom_site_aniso_type_symbol
_atom_site_aniso_U_11
_atom_site_aniso_U_22
_atom_site_aniso_U_33
_atom_site_aniso_U_12
_atom_site_aniso_U_13
_atom_site_aniso_U_23
Na1 Na1+ 0.0090(6) 0.0090(6) 0.0024(8) 0. 0. 0.
Dy1 Dy3+ 0.0090(6) 0.0090(6) 0.0024(8) 0. 0. 0.
W1 W6+ 0.0098(4) 0.0098(4) 0.0076(6) 0. 0. 0.
O1 O2- 0.024(5) 0.017(4) 0.015(3) 0.001(3) 0.003(3) 0.001(3)
#End of TTdata_248012-ICSD