
#(C) 2019 by FIZ Karlsruhe - Leibniz Institute for Information Infrastructure.  All rights reserved.
data_248065-ICSD
_database_code_ICSD 248065
_audit_creation_date 2010-08-01
_chemical_name_systematic
'Bismuth sodium lead germanium oxide (1.5/1.5/12/9/33)'
_chemical_formula_structural 'Bi1.8 Na1.5 Pb12 Ge9 O33'
_chemical_formula_sum 'Bi1.8 Ge9 Na1.5 O33 Pb12'
_chemical_name_structure_type Pb5Ge3O11
_exptl_crystal_density_diffrn 7.24
_cell_measurement_temperature 298.
_publ_section_title 'Polysomatic apatites'
loop_
_citation_id
_citation_journal_full
_citation_year
_citation_journal_volume
_citation_page_first
_citation_page_last
_citation_journal_id_ASTM
primary 'Acta Crystallographica, Section B: Structural Science' 2010 66 1 16
ASBSDK
loop_
_publ_author_name
'Baikie, T.'
'Pramana, S.S.'
'Ferraris, C.'
'Huang Yizhong'
'Kendrick, E.'
'Knight, K.S.'
'Ahmad, Z.'
'White, T.J.'
_cell_length_a 10.13385(3)
_cell_length_b 10.13385(3)
_cell_length_c 10.52045(6)
_cell_angle_alpha 90
_cell_angle_beta 90
_cell_angle_gamma 120
_cell_volume 935.65
_cell_formula_units_Z 1
_symmetry_space_group_name_H-M 'P 3'
_symmetry_Int_Tables_number 143
_refine_ls_R_factor_all 0.04
loop_
_symmetry_equiv_pos_site_id
_symmetry_equiv_pos_as_xyz
1 '-x+y, -x, z'
2 '-y, x-y, z'
3 'x, y, z'
loop_
_atom_type_symbol
_atom_type_oxidation_number
Pb2+ 2
Na1+ 1
Pb2+ 2
Na1+ 1
Pb2+ 2
Na1+ 1
Bi3+ 3
Pb2+ 2
Na1+ 1
Bi3+ 3
Na1+ 1
Bi3+ 3
Na1+ 1
Bi3+ 3
Pb2+ 2
Ge4+ 4
O2- -2
loop_
_atom_site_label
_atom_site_type_symbol
_atom_site_symmetry_multiplicity
_atom_site_Wyckoff_symbol
_atom_site_fract_x
_atom_site_fract_y
_atom_site_fract_z
_atom_site_B_iso_or_equiv
_atom_site_occupancy
_atom_site_attached_hydrogens
Pb1 Pb2+ 1 b 0.3333 0.6667 0.312(2) 0.025(2) 0.893 0
Na1 Na1+ 1 b 0.3333 0.6667 0.312(2) 0.025(2) 0.107 0
Pb2 Pb2+ 1 b 0.3333 0.6667 0.646(2) 0.0090(10) 0.844 0
Na2 Na1+ 1 b 0.3333 0.6667 0.646(2) 0.0090(10) 0.156 0
Pb3 Pb2+ 1 c 0.6667 0.3333 0.301(2) 0.027(2) 0.469 0
Na3 Na1+ 1 c 0.6667 0.3333 0.301(2) 0.027(2) 0.062 0
Bi1 Bi3+ 1 c 0.6667 0.3333 0.301(2) 0.027(2) 0.469 0
Pb4 Pb2+ 1 c 0.6667 0.3333 0.674(2) 0.024(2) 0.468 0
Na4 Na1+ 1 c 0.6667 0.3333 0.674(2) 0.024(2) 0.065 0
Bi2 Bi3+ 1 c 0.6667 0.3333 0.674(2) 0.024(2) 0.467 0
Na5 Na1+ 1 b 0.3333 0.6667 0.997 0.0080(10) 0.607 0
Bi3 Bi3+ 1 b 0.3333 0.6667 0.997 0.0080(10) 0.393 0
Na6 Na1+ 1 c 0.6667 0.3333 -0.012(4) 0.025(2) 0.522 0
Bi4 Bi3+ 1 c 0.6667 0.3333 -0.012(4) 0.025(2) 0.478 0
Pb5 Pb2+ 3 d 0.2593(7) 0.2603(8) 0.170(2) 0.017(2) 1. 0
Pb6 Pb2+ 3 d 0.2632(8) 0.2633(9) 0.809(2) 0.024(2) 1. 0
Pb7 Pb2+ 3 d 0.2483(4) 0.9970(5) 0.493(2) 0.023(2) 1. 0
Ge1 Ge4+ 3 d 0.0079(9) 0.3903(8) 0.142(2) 0.023(2) 1. 0
Ge2 Ge4+ 3 d 0.0170(8) 0.3971(8) 0.837(2) 0.0130(10) 1. 0
Ge3 Ge4+ 3 d 0.3963(4) 0.3910(5) 0.489(2) 0.016(2) 1. 0
O1 O2- 3 d 0.0811(4) 0.3118(10) 0.249(2) 0.035(3) 1. 0
O2 O2- 3 d 0.0870(12) 0.3291(9) 0.722(2) 0.018(2) 1. 0
O3 O2- 3 d 0.0993(11) 0.5951(13) 0.144(2) 0.029(3) 1. 0
O4 O2- 3 d 0.1210(11) 0.5962(13) 0.820(2) 0.018(2) 1. 0
O5 O2- 3 d 0.8211(14) 0.3167(14) 0.151(2) 0.020(2) 1. 0
O6 O2- 3 d 0.8168(10) 0.3171(11) 0.838(2) 0.023(2) 1. 0
O7 O2- 3 d 0.0706(5) 0.3573(5) 0.989(2) 0.041(3) 1. 0
O8 O2- 3 d 0.2858(6) 0.4807(6) 0.493(2) 0.026(3) 1. 0
O9 O2- 3 d 0.5931(8) 0.5079(8) 0.514(2) 0.018(2) 1. 0
O10 O2- 3 d 0.3706(11) 0.2766(12) 0.357(2) 0.027(3) 1. 0
O11 O2- 3 d 0.3313(9) 0.2558(10) 0.613(2) 0.033(3) 1. 0
#End of TTdata_248065-ICSD