
#(C) 2018 by FIZ Karlsruhe - Leibniz Institute for Information Infrastructure.  All rights reserved.
data_248310-ICSD
_database_code_ICSD 248310
_audit_creation_date 2014-08-01
_chemical_name_systematic 'Dilithium tetragermanate'
_chemical_formula_structural 'Li2 Ge4 O9'
_chemical_formula_sum 'Ge4 Li2 O9'
_exptl_crystal_density_diffrn 4.37
_cell_measurement_temperature 90.
_publ_section_title 'The polar phase of Li2 Ge4 O9 at 298, 150 and 90 K'
loop_
_citation_id
_citation_journal_full
_citation_year
_citation_journal_volume
_citation_page_first
_citation_page_last
_citation_journal_id_ASTM
primary 'Acta Crystallographica, Section C: Crystal Structure Communications'
2013 69 1091 1095 ACSCEE
loop_
_publ_author_name
'Redhammer, Guenther J.'
'Tippelt, Gerold'
_cell_length_a 9.3044(5)
_cell_length_b 4.6253(2)
_cell_length_c 15.8331(8)
_cell_angle_alpha 90
_cell_angle_beta 90
_cell_angle_gamma 90
_cell_volume 681.38
_cell_formula_units_Z 4
_symmetry_space_group_name_H-M 'P 21 c a'
_symmetry_Int_Tables_number 29
_refine_ls_R_factor_all 0.0151
loop_
_symmetry_equiv_pos_site_id
_symmetry_equiv_pos_as_xyz
1 'x, -y, z+1/2'
2 'x+1/2, y, -z+1/2'
3 'x+1/2, -y, -z'
4 'x, y, z'
loop_
_atom_type_symbol
_atom_type_oxidation_number
Li1+ 1
Ge4+ 4
O2- -2
loop_
_atom_site_label
_atom_site_type_symbol
_atom_site_symmetry_multiplicity
_atom_site_Wyckoff_symbol
_atom_site_fract_x
_atom_site_fract_y
_atom_site_fract_z
_atom_site_B_iso_or_equiv
_atom_site_occupancy
_atom_site_attached_hydrogens
Li1 Li1+ 4 a 0.4675(6) 0.4497(10) 0.2646(3) 0.0109(11) 1 0
Li2 Li1+ 4 a 0.2706(6) 0.5814(13) 0.4764(4) 0.0197(12) 1 0
Ge1 Ge4+ 4 a 0.23525(8) 0.48544(5) 0.155922(15) 0.00427(7) 1 0
Ge2 Ge4+ 4 a 0.23398(8) 0.99032(5) 0.295855(15) 0.00452(7) 1 0
Ge3 Ge4+ 4 a 0.52529(4) 1.00110(5) 0.40166(2) 0.00486(10) 1 0
Ge4 Ge4+ 4 a 0.44493(3) 1.02143(6) 0.59436(2) 0.00451(9) 1 0
O1 O2- 4 a 0.0719(3) 0.7104(4) 0.16149(12) 0.0061(4) 1 0
O2 O2- 4 a 0.1534(3) 0.2577(4) 0.06946(13) 0.0069(4) 1 0
O3 O2- 4 a 0.3236(3) 0.7020(4) 0.07130(13) 0.0060(4) 1 0
O4 O2- 4 a 0.3967(3) 0.2460(4) 0.16485(14) 0.0066(4) 1 0
O5 O2- 4 a 0.3172(3) 0.7106(4) 0.24166(14) 0.0066(4) 1 0
O6 O2- 4 a 0.1444(3) 0.2480(4) 0.23671(13) 0.0069(4) 1 0
O7 O2- 4 a 0.3712(3) 1.1678(4) 0.35565(12) 0.0062(4) 1 0
O8 O2- 4 a 0.1164(3) 0.8445(4) 0.37343(13) 0.0077(4) 1 0
O9 O2- 4 a 0.4611(2) 0.8423(3) 0.49598(13) 0.0077(4) 1 0
loop_
_atom_site_aniso_label
_atom_site_aniso_type_symbol
_atom_site_aniso_U_11
_atom_site_aniso_U_22
_atom_site_aniso_U_33
_atom_site_aniso_U_12
_atom_site_aniso_U_13
_atom_site_aniso_U_23
Li1 Li1+ 0.005(3) 0.0114(19) 0.017(3) -0.003(2) 0.003(2) -0.002(2)
Li2 Li1+ 0.016(3) 0.024(3) 0.019(3) -0.002(2) 0.008(2) 0.010(2)
Ge1 Ge4+ 0.00438(13) 0.00469(11) 0.00376(13) -0.00020(16) -0.00032(19)
0.00000(9)
Ge2 Ge4+ 0.00452(12) 0.00510(11) 0.00393(13) 0.00020(13) -0.0001(2) 0.00006(9)
Ge3 Ge4+ 0.0043(2) 0.00525(18) 0.0050(2) -0.00006(10) -0.00016(16) -0.00012(9)
Ge4 Ge4+ 0.0051(2) 0.00506(16) 0.00340(19) 0.0002(2) 0.00035(17) 0.00023(9)
O1 O2- 0.0060(12) 0.0063(8) 0.0061(10) 0.0017(7) 0.0007(8) 0.0009(7)
O2 O2- 0.0067(11) 0.0078(8) 0.0062(10) -0.0011(7) 0.0001(8) -0.0005(7)
O3 O2- 0.0058(11) 0.0063(8) 0.0057(10) -0.0009(7) -0.0005(8) 0.0004(7)
O4 O2- 0.0065(11) 0.0069(9) 0.0063(10) 0.0015(8) 0.0001(7) -0.0020(7)
O5 O2- 0.0063(12) 0.0069(8) 0.0066(10) 0.0008(8) 0.0004(8) -0.0012(7)
O6 O2- 0.0063(11) 0.0063(8) 0.0082(11) 0.0003(7) 0.0003(8) 0.0029(7)
O7 O2- 0.0042(10) 0.0073(9) 0.0072(11) 0.0000(7) -0.0007(8) -0.0019(7)
O8 O2- 0.0068(11) 0.0087(9) 0.0075(10) 0.0008(7) 0.0024(8) 0.0018(7)
O9 O2- 0.0083(12) 0.0091(8) 0.0056(9) -0.0027(8) 0.0015(9) -0.0001(7)
#End of TTdata_248310-ICSD