
#(C) 2019 by FIZ Karlsruhe - Leibniz Institute for Information Infrastructure.  All rights reserved.
data_248686-ICSD
_database_code_ICSD 248686
_audit_creation_date 2015-02-01
_chemical_name_systematic 'Sodium samarium germanate'
_chemical_formula_structural 'Na Sm (Ge O4)'
_chemical_formula_sum 'Ge1 Na1 O4 Sm1'
_chemical_name_structure_type Olivine-Mg2SiO4
_exptl_crystal_density_diffrn 5.05
_publ_section_title

;
Crystal growth, structures, magnetic and photoluminescent properties of
NaLnGeO4 (Ln = Sm, Eu, Gd, Tb)
;
loop_
_citation_id
_citation_journal_full
_citation_year
_citation_journal_volume
_citation_page_first
_citation_page_last
_citation_journal_id_ASTM
primary 'Solid State Sciences' 2014 34 24 30 SSSCFJ
loop_
_publ_author_name
'Yeon, Jeongho'
'Hardaway, John B.'
'Sefat, Athena S.'
'Latshaw, Allison M.'
'zur Loye, Hans-Conrad'
_cell_length_a 11.6351(5)
_cell_length_b 6.6042(3)
_cell_length_c 5.3041(2)
_cell_angle_alpha 90.
_cell_angle_beta 90.
_cell_angle_gamma 90.
_cell_volume 407.57
_cell_formula_units_Z 4
_symmetry_space_group_name_H-M 'P n m a'
_symmetry_Int_Tables_number 62
_refine_ls_R_factor_all 0.0138
loop_
_symmetry_equiv_pos_site_id
_symmetry_equiv_pos_as_xyz
1 'x+1/2, y, -z+1/2'
2 'x, -y+1/2, z'
3 '-x+1/2, y+1/2, z+1/2'
4 '-x, -y, -z'
5 '-x+1/2, -y, z+1/2'
6 '-x, y+1/2, -z'
7 'x+1/2, -y+1/2, -z+1/2'
8 'x, y, z'
loop_
_atom_type_symbol
_atom_type_oxidation_number
Sm3+ 3
Ge4+ 4
Na1+ 1
O2- -2
loop_
_atom_site_label
_atom_site_type_symbol
_atom_site_symmetry_multiplicity
_atom_site_Wyckoff_symbol
_atom_site_fract_x
_atom_site_fract_y
_atom_site_fract_z
_atom_site_B_iso_or_equiv
_atom_site_occupancy
_atom_site_attached_hydrogens
Sm1 Sm3+ 4 c 0.2792(1) 0.25 0.4988(1) 0.006(1) 1. 0
Ge1 Ge4+ 4 c 0.5956(1) 0.25 0.5601(1) 0.005(1) 1. 0
Na1 Na1+ 4 b 0 0 0.5 0.013(1) 1. 0
O1 O2- 4 c 0.4561(3) 0.25 0.6814(7) 0.009(1) 1. 0
O2 O2- 8 d 0.3299(2) 0.5459(4) 0.2913(4) 0.009(1) 1. 0
O3 O2- 4 c 0.1083(3) 0.25 0.2653(7) 0.011(1) 1. 0
#End of TTdata_248686-ICSD