
#(C) 2017 by FIZ Karlsruhe - Leibniz Institute for Information Infrastructure.  All rights reserved.
data_248725-ICSD
_database_code_ICSD 248725
_audit_creation_date 2015-02-01
_chemical_name_systematic 'Dilithium hexafluoridoplatinate(IV)'
_chemical_formula_structural 'Li2 Pt F6'
_chemical_formula_sum 'F6 Li2 Pt1'
_exptl_crystal_density_diffrn 5.45
_cell_measurement_temperature 150.
_publ_section_title 'Li2PtF6 revisited'
loop_
_citation_id
_citation_journal_full
_citation_year
_citation_journal_volume
_citation_page_first
_citation_page_last
_citation_journal_id_ASTM
primary 'Acta Crystallographica, Section E. Structure Reports Online' 2014 70
i43 i43 ACSEBH
loop_
_publ_author_name
'Krause, Florian'
_cell_length_a 4.64270(10)
_cell_length_b 4.64270(10)
_cell_length_c 9.1234(2)
_cell_angle_alpha 90.
_cell_angle_beta 90.
_cell_angle_gamma 90.
_cell_volume 196.65
_cell_formula_units_Z 2
_symmetry_space_group_name_H-M 'P 42/m n m'
_symmetry_Int_Tables_number 136
_refine_ls_R_factor_all 0.0188
loop_
_symmetry_equiv_pos_site_id
_symmetry_equiv_pos_as_xyz
1 '-y+1/2, x+1/2, -z+1/2'
2 'y+1/2, -x+1/2, -z+1/2'
3 'y, x, -z'
4 '-y, -x, -z'
5 'y+1/2, -x+1/2, z+1/2'
6 '-y+1/2, x+1/2, z+1/2'
7 '-y, -x, z'
8 'y, x, z'
9 'x+1/2, -y+1/2, -z+1/2'
10 '-x+1/2, y+1/2, -z+1/2'
11 'x, y, -z'
12 '-x, -y, -z'
13 '-x+1/2, y+1/2, z+1/2'
14 'x+1/2, -y+1/2, z+1/2'
15 '-x, -y, z'
16 'x, y, z'
loop_
_atom_type_symbol
_atom_type_oxidation_number
Pt4+ 4
F1- -1
Li1+ 1
loop_
_atom_site_label
_atom_site_type_symbol
_atom_site_symmetry_multiplicity
_atom_site_Wyckoff_symbol
_atom_site_fract_x
_atom_site_fract_y
_atom_site_fract_z
_atom_site_B_iso_or_equiv
_atom_site_occupancy
_atom_site_attached_hydrogens
Pt1 Pt4+ 2 a 0. 0. 0. 0.0056(2) 1 0
F1 F1- 8 j 0.1939(6) 0.1939(6) 0.1599(4) 0.0149(7) 1 0
F2 F1- 4 g -0.2958(10) 0.2958(10) 0. 0.0164(11) 1 0
Li1 Li1+ 4 e 0.5 0.5 0.162(2) 0.019(4) 1 0
loop_
_atom_site_aniso_label
_atom_site_aniso_type_symbol
_atom_site_aniso_U_11
_atom_site_aniso_U_22
_atom_site_aniso_U_33
_atom_site_aniso_U_12
_atom_site_aniso_U_13
_atom_site_aniso_U_23
Pt1 Pt4+ 0.0054(2) 0.0054(2) 0.0061(2) 0.00022(14) 0. 0.
F1 F1- 0.0170(11) 0.0170(11) 0.0105(13) -0.0029(15) -0.0009(10) -0.0009(10)
F2 F1- 0.0165(18) 0.0165(18) 0.016(2) 0.004(2) 0. 0.
Li1 Li1+ 0.024(6) 0.024(6) 0.010(7) -0.006(7) 0. 0.
#End of TTdata_248725-ICSD