
#(C) 2019 by FIZ Karlsruhe - Leibniz Institute for Information Infrastructure.  All rights reserved.
data_24879-ICSD
_database_code_ICSD 24879
_audit_creation_date 1980-01-01
_audit_update_record 2012-08-01
_chemical_name_systematic
'Sodium vanadium molybdenum oxide (0.4/1.6/0.4/5) - beta'
_chemical_formula_structural 'Na0.4 V1.6 Mo0.4 O5'
_chemical_formula_sum 'Mo0.4 Na0.4 O5 V1.6'
_chemical_name_structure_type KxV2O5
_exptl_crystal_density_diffrn 3.8
_publ_section_title 'Les bronzes oxygenes mixtes Mx V2-y Ty O5 (T = Mo, W)'
loop_
_citation_id
_citation_journal_full
_citation_year
_citation_journal_volume
_citation_page_first
_citation_page_last
_citation_journal_id_ASTM
primary 'Journal of Solid State Chemistry' 1971 3 604 613 JSSCBI
loop_
_publ_author_name
'Darriet, J.'
'Galy, J.'
'Hagenmuller, P.'
_cell_length_a 15.500(6)
_cell_length_b 3.672(2)
_cell_length_c 10.192(6)
_cell_angle_alpha 90.
_cell_angle_beta 109.18(5)
_cell_angle_gamma 90.
_cell_volume 547.89
_cell_formula_units_Z 6
_symmetry_space_group_name_H-M 'C 1 2/m 1'
_symmetry_Int_Tables_number 12
_refine_ls_R_factor_all 0.0753
loop_
_symmetry_equiv_pos_site_id
_symmetry_equiv_pos_as_xyz
1 '-x, y, -z'
2 '-x, -y, -z'
3 'x, -y, z'
4 'x, y, z'
5 '-x+1/2, y+1/2, -z'
6 '-x+1/2, -y+1/2, -z'
7 'x+1/2, -y+1/2, z'
8 'x+1/2, y+1/2, z'
loop_
_atom_type_symbol
_atom_type_oxidation_number
Na1+ 1
V5+ 5
Mo4+ 4
O2- -2
loop_
_atom_site_label
_atom_site_type_symbol
_atom_site_symmetry_multiplicity
_atom_site_Wyckoff_symbol
_atom_site_fract_x
_atom_site_fract_y
_atom_site_fract_z
_atom_site_B_iso_or_equiv
_atom_site_occupancy
_atom_site_attached_hydrogens
Na1 Na1+ 4 i 0.003(2) 0 0.409(2) 2.4 0.5 0
Na2 Na1+ 4 i 0.363(2) 0.5 0.259(2) 1.8 0.1 0
V1 V5+ 4 i 0.3352(5) 0 0.1035(5) 0.23 1. 0
V2 V5+ 4 i 0.1171(5) 0 0.1179(5) 1.26 0.5 0
V3 V5+ 4 i 0.2884(5) 0 0.4152(5) 1.19 0.9 0
Mo1 Mo4+ 4 i 0.1171(5) 0 0.1179(5) 1.26 0.5 0
Mo2 Mo4+ 4 i 0.2884(5) 0 0.4152(5) 1.19 0.1 0
O1 O2- 2 a 0 0 0 1.6 1. 0
O2 O2- 4 i 0.184(2) 0 -.057(2) 1.5 1. 0
O3 O2- 4 i 0.634(2) 0 0.081(2) 1.6 1. 0
O4 O2- 4 i 0.432(2) 0 0.220(2) 1.3 1. 0
O5 O2- 4 i 0.265(2) 0 0.229(2) 0.8 1. 0
O6 O2- 4 i 0.109(2) 0 0.279(2) 1.2 1. 0
O7 O2- 4 i 0.243(2) 0 0.574(2) 1.1 1. 0
O8 O2- 4 i 0.399(2) 0 0.473(2) 1.6 1. 0
#End of TTdata_24879-ICSD