
#(C) 2019 by FIZ Karlsruhe - Leibniz Institute for Information Infrastructure.  All rights reserved.
data_24877-ICSD
_database_code_ICSD 24877
_audit_creation_date 1980-01-01
_audit_update_record 2007-04-01
_chemical_name_systematic
'Sodium vanadium molybdenum oxide (0.22/1.78/0.22/5) - beta'
_chemical_formula_structural 'Na0.22 V1.78 Mo0.22 O5'
_chemical_formula_sum 'Mo0.22 Na0.22 O5 V1.78'
_chemical_name_structure_type PbxV2O5
_exptl_crystal_density_diffrn 3.65
_publ_section_title 'Les bronzes oxygenes mixtes Mx V2-y Ty O5 (T = Mo, W)'
loop_
_citation_id
_citation_journal_full
_citation_year
_citation_journal_volume
_citation_page_first
_citation_page_last
_citation_journal_id_ASTM
primary 'Journal of Solid State Chemistry' 1971 3 604 613 JSSCBI
loop_
_publ_author_name
'Darriet, J.'
'Galy, J.'
'Hagenmuller, P.'
_cell_length_a 15.45(1)
_cell_length_b 3.63(1)
_cell_length_c 10.13(1)
_cell_angle_alpha 90.
_cell_angle_beta 109.1(1)
_cell_angle_gamma 90.
_cell_volume 536.85
_cell_formula_units_Z 6
_symmetry_space_group_name_H-M 'C 1 2/m 1'
_symmetry_Int_Tables_number 12
_refine_ls_R_factor_all 0.055
loop_
_symmetry_equiv_pos_site_id
_symmetry_equiv_pos_as_xyz
1 '-x, y, -z'
2 '-x, -y, -z'
3 'x, -y, z'
4 'x, y, z'
5 '-x+1/2, y+1/2, -z'
6 '-x+1/2, -y+1/2, -z'
7 'x+1/2, -y+1/2, z'
8 'x+1/2, y+1/2, z'
loop_
_atom_type_symbol
_atom_type_oxidation_number
Na1+ 1
V4+ 4.9
Mo4+ 4.9
O2- -2
loop_
_atom_site_label
_atom_site_type_symbol
_atom_site_symmetry_multiplicity
_atom_site_Wyckoff_symbol
_atom_site_fract_x
_atom_site_fract_y
_atom_site_fract_z
_atom_site_B_iso_or_equiv
_atom_site_occupancy
_atom_site_attached_hydrogens
Na1 Na1+ 4 i 0.01 0 0.4 1. 0.33 0
V1 V4+ 4 i 0.336 0 0.1101 0.5 1. 0
V2 V4+ 4 i 0.1217 0 0.123 0.5 0.67 0
V3 V4+ 4 i 0.292 0 0.4197 0.5 1. 0
Mo1 Mo4+ 4 i 0.1217 0 0.123 0.5 0.33 0
O1 O2- 2 a 0 0 0 1. 1. 0
O2 O2- 4 i 0.192 0 -.027 1. 1. 0
O3 O2- 4 i 0.622 0 0.053 1. 1. 0
O4 O2- 4 i 0.431 0 0.208 1. 1. 0
O5 O2- 4 i 0.26 0 0.255 1. 1. 0
O6 O2- 4 i 0.112 0 0.281 1. 1. 0
O7 O2- 4 i 0.241 0 0.57 1. 1. 0
O8 O2- 4 i 0.396 0 0.465 1. 1. 0
#End of TTdata_24877-ICSD