
#(C) 2019 by FIZ Karlsruhe - Leibniz Institute for Information Infrastructure.  All rights reserved.
data_248701-ICSD
_database_code_ICSD 248701
_audit_creation_date 2015-02-01
_chemical_name_systematic 'Sodium lutetium diphosphate'
_chemical_formula_structural 'Na Lu (P2 O7)'
_chemical_formula_sum 'Lu1 Na1 O7 P2'
_chemical_name_structure_type NaLuP2O7
_exptl_crystal_density_diffrn 4.13
_cell_measurement_temperature 293.
_publ_section_title
'Crystal structure, physical properties and bond valence analysis of NaLuP2O7'
loop_
_citation_id
_citation_journal_full
_citation_year
_citation_journal_volume
_citation_page_first
_citation_page_last
_citation_journal_id_ASTM
primary 'Solid State Sciences' 2014 31 46 53 SSSCFJ
loop_
_publ_author_name
'Bejaoui, Anis'
'Horchani-Naifer, Karima'
'Hajji, Mounir'
'Ferid, Mokhtar'
_cell_length_a 8.9985(8)
_cell_length_b 5.3473(5)
_cell_length_c 12.756(1)
_cell_angle_alpha 90
_cell_angle_beta 103.174(1)
_cell_angle_gamma 90
_cell_volume 597.64
_cell_formula_units_Z 4
_symmetry_space_group_name_H-M 'P 1 21/n 1'
_symmetry_Int_Tables_number 14
_refine_ls_R_factor_all 0.0358
loop_
_symmetry_equiv_pos_site_id
_symmetry_equiv_pos_as_xyz
1 '-x+1/2, y+1/2, -z+1/2'
2 '-x, -y, -z'
3 'x+1/2, -y+1/2, z+1/2'
4 'x, y, z'
loop_
_atom_type_symbol
_atom_type_oxidation_number
Lu3+ 3
Na1+ 1
P5+ 5
O2- -2
loop_
_atom_site_label
_atom_site_type_symbol
_atom_site_symmetry_multiplicity
_atom_site_Wyckoff_symbol
_atom_site_fract_x
_atom_site_fract_y
_atom_site_fract_z
_atom_site_B_iso_or_equiv
_atom_site_occupancy
_atom_site_attached_hydrogens
Lu1 Lu3+ 4 e 0.73087(2) 0.23641(3) 0.97599(1) 0.0172(1) 1. 0
Na1 Na1+ 4 e 0.8609(3) -0.2259(3) 0.8063(2) 0.0228(4) 1. 0
P1 P5+ 4 e 0.5258(2) -0.2506(2) 0.8468(1) 0.0182(3) 1. 0
P2 P5+ 4 e 0.9306(1) 0.7182(2) 1.1179(1) 0.0177(2) 1. 0
O1 O2- 4 e 0.4397(6) -0.2597(5) 0.9331(4) 0.0222(8) 1. 0
O2 O2- 4 e 0.6412(3) -0.4671(6) 0.8538(2) 0.0192(5) 1. 0
O3 O2- 4 e 0.6092(3) -0.0036(6) 0.8397(2) 0.0195(5) 1. 0
O4 O2- 4 e 0.4039(4) -0.2800(5) 0.7355(3) 0.0189(6) 1. 0
O5 O2- 4 e 1.0943(4) 0.7943(6) 1.1229(3) 0.0210(6) 1. 0
O6 O2- 4 e 0.9072(3) 0.4396(5) 1.0970(2) 0.0194(5) 1. 0
O7 O2- 4 e 0.8156(3) 0.8750(6) 1.0418(2) 0.0214(5) 1. 0
#End of TTdata_248701-ICSD