
#(C) 2019 by FIZ Karlsruhe - Leibniz Institute for Information Infrastructure.  All rights reserved.
data_248827-ICSD
_database_code_ICSD 248827
_audit_creation_date 2015-02-01
_chemical_name_systematic 'Sodium vanadium oxide (0.5/1/2)'
_chemical_formula_structural 'Na0.5 V O2'
_chemical_formula_sum 'Na0.5 O2 V1'
_exptl_crystal_density_diffrn 3.91
_cell_measurement_temperature 10.
_publ_section_title 'OÃ¯3-NaxVO2 system: A superstructure for Na1/2VO2'
loop_
_citation_id
_citation_journal_full
_citation_year
_citation_journal_volume
_citation_page_first
_citation_page_last
_citation_journal_id_ASTM
primary 'Inorganic Chemistry' 2012 51 11007 11016 INOCAJ
loop_
_publ_author_name
'Didier, Christophe'
'Guignard, Marie'
'Darriet, Jacques'
'Delmas, Claude'
_cell_length_a 13.224(2)
_cell_length_b 5.6894(8)
_cell_length_c 4.9539(7)
_cell_angle_alpha 90
_cell_angle_beta 120.592(11)
_cell_angle_gamma 90
_cell_volume 320.84
_cell_formula_units_Z 8
_symmetry_space_group_name_H-M 'C 1 2/c 1'
_symmetry_Int_Tables_number 15
_refine_ls_R_factor_all 0.07
loop_
_symmetry_equiv_pos_site_id
_symmetry_equiv_pos_as_xyz
1 'x, -y, z+1/2'
2 '-x, -y, -z'
3 '-x, y, -z+1/2'
4 'x, y, z'
5 'x+1/2, -y+1/2, z+1/2'
6 '-x+1/2, -y+1/2, -z'
7 '-x+1/2, y+1/2, -z+1/2'
8 'x+1/2, y+1/2, z'
loop_
_atom_type_symbol
_atom_type_oxidation_number
V3+ 3.5
O2- -2
Na1+ 1
loop_
_atom_site_label
_atom_site_type_symbol
_atom_site_symmetry_multiplicity
_atom_site_Wyckoff_symbol
_atom_site_fract_x
_atom_site_fract_y
_atom_site_fract_z
_atom_site_B_iso_or_equiv
_atom_site_occupancy
_atom_site_attached_hydrogens
V1 V3+ 8 f 0.2491(6) 0.3558(12) 0.2278(16) 0.9(2) 1 0
O1 O2- 8 f 0.3529(15) 0.122(4) 0.218(4) 0.8(3) 1 0
O2 O2- 8 f 0.1615(15) 0.125(4) 0.292(5) 0.8(3) 1 0
Na1 Na1+ 4 e 0 0.306(3) 0.25 0.3(5) 1 0
#End of TTdata_248827-ICSD