
#(C) 2018 by FIZ Karlsruhe - Leibniz Institute for Information Infrastructure.  All rights reserved.
data_248836-ICSD
_database_code_ICSD 248836
_audit_creation_date 2015-02-01
_chemical_name_systematic 'Lithium cobalt tellurium oxide (8/2/2/12)'
_chemical_formula_structural 'Li8 Co2 Te2 O12'
_chemical_formula_sum 'Co2 Li8 O12 Te2'
_chemical_name_structure_type Na5ReO6
_exptl_crystal_density_diffrn 4.6
_cell_measurement_temperature 293.
_publ_section_title 'Novel lithium-containing honeycomb structures'
loop_
_citation_id
_citation_journal_full
_citation_year
_citation_journal_volume
_citation_page_first
_citation_page_last
_citation_journal_id_ASTM
primary 'Inorganic Chemistry' 2012 51 10471 10473 INOCAJ
loop_
_publ_author_name
'Kumar, Vinod'
'Bhardwaj, Neha'
'Tomar, Nobel'
'Thakral, Vaishali'
'Uma, S.'
_cell_length_a 5.2262(13)
_cell_length_b 8.892(2)
_cell_length_c 5.1601(12)
_cell_angle_alpha 90
_cell_angle_beta 110.93(3)
_cell_angle_gamma 90
_cell_volume 223.97
_cell_formula_units_Z 1
_symmetry_space_group_name_H-M 'C 1 2/m 1'
_symmetry_Int_Tables_number 12
_refine_ls_R_factor_all 0.0201
loop_
_symmetry_equiv_pos_site_id
_symmetry_equiv_pos_as_xyz
1 '-x, y, -z'
2 '-x, -y, -z'
3 'x, -y, z'
4 'x, y, z'
5 '-x+1/2, y+1/2, -z'
6 '-x+1/2, -y+1/2, -z'
7 'x+1/2, -y+1/2, z'
8 'x+1/2, y+1/2, z'
loop_
_atom_type_symbol
_atom_type_oxidation_number
Te6+ 6
Li1+ 1
Co2+ 2
O2- -2
loop_
_atom_site_label
_atom_site_type_symbol
_atom_site_symmetry_multiplicity
_atom_site_Wyckoff_symbol
_atom_site_fract_x
_atom_site_fract_y
_atom_site_fract_z
_atom_site_B_iso_or_equiv
_atom_site_occupancy
_atom_site_attached_hydrogens
Te1 Te6+ 2 a 0 0 0 0.00422(18) 1 0
Li1 Li1+ 4 h 0 0.1708(10) 0.5 0.021(2) 1 0
Li2 Li1+ 2 d 0.5 0 0.5 0.020(3) 1 0
Li3 Li1+ 4 g 0 0.33326(12) 0 0.0073(3) 0.5 0
Co1 Co2+ 4 g 0 0.33326(12) 0 0.0073(3) 0.5 0
O1 O2- 4 i 0.2286(7) 0 0.7774(7) 0.0087(7) 1 0
O2 O2- 8 j 0.2300(5) 0.1525(2) 0.2343(5) 0.0085(5) 1 0
loop_
_atom_site_aniso_label
_atom_site_aniso_type_symbol
_atom_site_aniso_U_11
_atom_site_aniso_U_22
_atom_site_aniso_U_33
_atom_site_aniso_U_12
_atom_site_aniso_U_13
_atom_site_aniso_U_23
Te1 Te6+ 0.0041(3) 0.0046(2) 0.0040(2) 0 0.00158(16) 0
Li1 Li1+ 0.023(5) 0.025(5) 0.017(5) 0 0.010(4) 0
Li3 Li1+ 0.0071(6) 0.0061(6) 0.0087(6) 0 0.0029(5) 0
Co1 Co2+ 0.0071(6) 0.0061(6) 0.0087(6) 0 0.0029(5) 0
#End of TTdata_248836-ICSD