
#(C) 2019 by FIZ Karlsruhe - Leibniz Institute for Information Infrastructure.  All rights reserved.
data_248816-ICSD
_database_code_ICSD 248816
_audit_creation_date 2015-02-01
_chemical_name_systematic
'Lithium sodium tantalum niobium oxide (0.03/0.97/0.05/0.95/3)'
_chemical_formula_structural '(Li0.09 Na0.91) (Ta0.02 Nb0.98) O3'
_chemical_formula_sum 'Li0.09 Na0.91 Nb0.98 O3 Ta0.02'
_chemical_name_structure_type Perovskite-GdFeO3
_exptl_crystal_density_diffrn 4.58
_publ_section_title

;
Structure and properties of ceramic solid solutions Lix Na1-x Tay Nb1-y O3 (x
= 0-0.05, y = 0-0.04)
;
loop_
_citation_id
_citation_journal_full
_citation_year
_citation_journal_volume
_citation_page_first
_citation_page_last
_citation_journal_id_ASTM
primary 'Crystallography Reports' 2014 59 222 228 CYSTE3
loop_
_publ_author_name
'Sidorov, N.V.'
'Palatnikov, M.N.'
'Teplyakova, N.A.'
'Obryadina, E.Yu.'
'Aleshina, L.A.'
'Feklistova, E.P.'
_cell_length_a 5.5741(5)
_cell_length_b 7.7585(1)
_cell_length_c 5.5097(5)
_cell_angle_alpha 90.
_cell_angle_beta 90.
_cell_angle_gamma 90.
_cell_volume 238.28
_cell_formula_units_Z 4
_symmetry_space_group_name_H-M 'P n m a'
_symmetry_Int_Tables_number 62
_refine_ls_R_factor_all 0.0567
loop_
_symmetry_equiv_pos_site_id
_symmetry_equiv_pos_as_xyz
1 'x+1/2, y, -z+1/2'
2 'x, -y+1/2, z'
3 '-x+1/2, y+1/2, z+1/2'
4 '-x, -y, -z'
5 '-x+1/2, -y, z+1/2'
6 '-x, y+1/2, -z'
7 'x+1/2, -y+1/2, -z+1/2'
8 'x, y, z'
loop_
_atom_type_symbol
_atom_type_oxidation_number
Nb5+ 5
Ta5+ 5
Na1+ 1
Li1+ 1
O2- -2
loop_
_atom_site_label
_atom_site_type_symbol
_atom_site_symmetry_multiplicity
_atom_site_Wyckoff_symbol
_atom_site_fract_x
_atom_site_fract_y
_atom_site_fract_z
_atom_site_B_iso_or_equiv
_atom_site_occupancy
_atom_site_attached_hydrogens
Nb1 Nb5+ 4 a 0 0 0 0.29(1) 0.98(2) 0
Ta1 Ta5+ 4 a 0 0 0 0.29(1) 0.02(2) 0
Na1 Na1+ 4 c 0.4936(10) 0.25 0.0039(9) 1.31(1) 0.91(1) 0
Li1 Li1+ 4 c 0.4936(10) 0.25 0.0039(9) 1.31(1) 0.09(1) 0
O1 O2- 4 c 0.5115(13) 0.25 0.5593(5) 1.44(1) 1. 0
O2 O2- 8 d 0.2185(4) 0.0313(3) 0.2877(3) 2.87(2) 1. 0
loop_
_atom_site_aniso_label
_atom_site_aniso_type_symbol
_atom_site_aniso_B_11
_atom_site_aniso_B_22
_atom_site_aniso_B_33
_atom_site_aniso_B_12
_atom_site_aniso_B_13
_atom_site_aniso_B_23
Nb1 Nb5+ 0.60(2) 0.23(2) 0.03(1) 0.06(1) 0.23(2) 0.26(8)
Ta1 Ta5+ 0.60(2) 0.23(2) 0.03(1) 0.06(1) 0.23(2) 0.26(8)
Na1 Na1+ 2.47(4) 0.52(5) 0.94(3) 0. -1.31(1) 0.
Li1 Li1+ 2.47(4) 0.52(5) 0.94(3) 0. -1.31(1) 0.
O1 O2- 4.35(2) 0.10(1) -0.13(1) 1.36(1) 0.50(1) 0.
O2 O2- 2.35(1) 7.22(2) -0.97(1) 0. 1.47(1) 0.34(4)
#End of TTdata_248816-ICSD