
#(C) 2019 by FIZ Karlsruhe - Leibniz Institute for Information Infrastructure.  All rights reserved.
data_248974-ICSD
_database_code_ICSD 248974
_audit_creation_date 2015-02-01
_chemical_name_systematic 'Tetrasodium dioxouranate(VI) tricarbonate'
_chemical_formula_structural 'Na4 (U O2) (C O3)3'
_chemical_formula_sum 'C3 Na4 O11 U1'
_chemical_name_mineral Cejkaite
_exptl_crystal_density_diffrn 3.74
_cell_measurement_temperature 293.
_publ_section_title

;
Revision of the symmetry and the crystal structure of cejkaite, Na4(UO2)(CO3)3
;
loop_
_citation_id
_citation_journal_full
_citation_year
_citation_journal_volume
_citation_page_first
_citation_page_last
_citation_journal_id_ASTM
primary 'American Mineralogist' 2013 98 549 553 AMMIAY
loop_
_publ_author_name
'Plasil, Jakub'
'Fejfarova, Karla'
'Dusek, Michal'
'Skoda, Radek'
'Rohlicek, Jan'
_cell_length_a 9.2919(8)
_cell_length_b 16.0991(11)
_cell_length_c 6.4436(3)
_cell_angle_alpha 90
_cell_angle_beta 91.404(5)
_cell_angle_gamma 90
_cell_volume 963.61
_cell_formula_units_Z 4
_symmetry_space_group_name_H-M 'C 1 c 1'
_symmetry_Int_Tables_number 9
_refine_ls_R_factor_all 0.0424
loop_
_symmetry_equiv_pos_site_id
_symmetry_equiv_pos_as_xyz
1 'x, -y, z+1/2'
2 'x, y, z'
3 'x+1/2, -y+1/2, z+1/2'
4 'x+1/2, y+1/2, z'
loop_
_atom_type_symbol
_atom_type_oxidation_number
U6+ 6
Na1+ 1
O2- -2
C4+ 4
Na1+ 1
C4+ 4
O2- -2
C4+ 4
Na1+ 1
O2- -2
Na1+ 1
O2- -2
loop_
_atom_site_label
_atom_site_type_symbol
_atom_site_symmetry_multiplicity
_atom_site_Wyckoff_symbol
_atom_site_fract_x
_atom_site_fract_y
_atom_site_fract_z
_atom_site_B_iso_or_equiv
_atom_site_occupancy
_atom_site_attached_hydrogens
U1 U6+ 4 a 0.43392(8) 0.33354(4) 0.32192(7) 0.01095(16) 1 0
Na1 Na1+ 4 a 0.437(3) -0.0026(12) 0.073(3) 0.025(2) 1 0
O1 O2- 4 a 0.2364(18) 0.5728(10) 0.871(2) 0.026(3) 1 0
C1 C4+ 4 a 0.633(2) 0.1302(14) -0.161(3) 0.019(4) 1 0
Na2 Na1+ 4 a 0.6544(10) 0.3473(5) -0.1411(12) 0.022(2) 1 0
C2 C4+ 4 a 1.023(2) 0.3372(12) -0.160(3) 0.017(4) 1 0
O2 O2- 4 a 0.8955(19) 0.3114(10) -0.137(2) 0.030(3) 1 0
C3 C4+ 4 a 0.643(2) 0.5346(14) -0.205(3) 0.023(4) 1 0
Na3 Na1+ 4 a 0.3456(10) 0.2161(5) -0.1967(14) 0.029(3) 1 0
O3 O2- 4 a 0.5078(17) 0.1081(10) -0.153(2) 0.024(3) 1 0
O4 O2- 4 a 1.0642(18) 0.4098(9) -0.160(2) 0.026(3) 1 0
Na4 Na1+ 4 a 0.3039(10) 0.4363(5) 0.7958(13) 0.026(2) 1 0
O5 O2- 4 a 0.1778(17) 0.1163(9) -0.240(2) 0.018(3) 1 0
O6 O2- 4 a 0.6824(17) 0.2049(9) -0.1654(18) 0.019(3) 1 0
O7 O2- 4 a 0.5065(15) 0.5217(8) 0.8230(17) 0.013(2) 1 0
O8 O2- 4 a 0.7327(17) 0.4806(9) -0.2109(19) 0.020(3) 1 0
O9 O2- 4 a 0.1161(16) 0.2748(10) -0.1930(18) 0.020(3) 1 0
O10 O2- 4 a 0.455(2) 0.3336(11) 0.6067(17) 0.0097(17) 1 0
O11 O2- 4 a 0.437(2) 0.3317(12) 0.0297(17) 0.0097(17) 1 0
loop_
_atom_site_aniso_label
_atom_site_aniso_type_symbol
_atom_site_aniso_U_11
_atom_site_aniso_U_22
_atom_site_aniso_U_33
_atom_site_aniso_U_12
_atom_site_aniso_U_13
_atom_site_aniso_U_23
U1 U6+ 0.0090(3) 0.0080(3) 0.0159(3) -0.0014(4) 0.00197(15) -0.0001(4)
Na1 Na1+ 0.026(4) 0.024(4) 0.025(2) -0.003(3) 0.005(2) 0.001(3)
Na2 Na1+ 0.019(4) 0.012(4) 0.034(4) -0.003(3) 0.000(3) 0.002(3)
Na3 Na1+ 0.012(4) 0.018(5) 0.056(5) 0.005(4) 0.002(4) 0.010(4)
Na4 Na1+ 0.006(4) 0.019(4) 0.052(5) -0.002(3) 0.002(3) -0.003(4)
#End of TTdata_248974-ICSD