
#(C) 2019 by FIZ Karlsruhe - Leibniz Institute for Information Infrastructure.  All rights reserved.
data_248972-ICSD
_database_code_ICSD 248972
_audit_creation_date 2015-02-01
_chemical_name_systematic 'Calcium sodium tecto-alumosilicate - Eu(2+)-doped'
_chemical_formula_structural 'Ca0.66 Na0.34 (Al1.66 Si2.34 O8)'
_chemical_formula_sum 'Al1.66 Ca0.66 Na0.34 O8 Si2.34'
_chemical_name_structure_type Feldspar#-(TC,I1-,i28)-Bytownite
_chemical_name_mineral 'Anorthite, sodian'
_exptl_crystal_density_diffrn 2.69
_cell_measurement_temperature 295.
_publ_section_title

;
Novel blue-emitting Nax Ca1-x Al2-x Si2+x O8:Eu2+ (x = 0.34) phosphor with
high luminescent efficiency for UV-pumped light-emitting diodes
;
loop_
_citation_id
_citation_journal_full
_citation_year
_citation_journal_volume
_citation_page_first
_citation_page_last
_citation_journal_id_ASTM
primary 'Inorganic Chemistry' 2012 51 10688 10694 INOCAJ
loop_
_publ_author_name
'Lee, Ga-Yeon'
'Han, Ji Yeon'
'Im, Won Bin'
'Cheong, Sang Hoon'
'Jeon, Duk Young'
_cell_length_a 8.1883(3)
_cell_length_b 12.8845(5)
_cell_length_c 14.2050(5)
_cell_angle_alpha 93.272(2)
_cell_angle_beta 115.870(1)
_cell_angle_gamma 90.549(2)
_cell_volume 1345.28
_cell_formula_units_Z 8
_symmetry_space_group_name_H-M 'I -1'
_symmetry_Int_Tables_number 2
_refine_ls_R_factor_all 0.0248
loop_
_symmetry_equiv_pos_site_id
_symmetry_equiv_pos_as_xyz
1 '-x, -y, -z'
2 'x, y, z'
3 '-x+1/2, -y+1/2, -z+1/2'
4 'x+1/2, y+1/2, z+1/2'
loop_
_atom_type_symbol
_atom_type_oxidation_number
Ca2+ 2
Na1+ 1
Ca2+ 2
Na1+ 1
Ca2+ 2
Na1+ 1
Ca2+ 2
Na1+ 1
Si4+ 4
Al3+ 3
Si4+ 4
Al3+ 3
Si4+ 4
Al3+ 3
Si4+ 4
O2- -2
loop_
_atom_site_label
_atom_site_type_symbol
_atom_site_symmetry_multiplicity
_atom_site_Wyckoff_symbol
_atom_site_fract_x
_atom_site_fract_y
_atom_site_fract_z
_atom_site_B_iso_or_equiv
_atom_site_occupancy
_atom_site_attached_hydrogens
Ca1 Ca2+ 4 i 0.27078(1) 0.97297(2) 0.06979(1) 0.0235(5) 0.32 0
Na1 Na1+ 4 i 0.27078(1) 0.97297(2) 0.06979(1) 0.0235(5) 0.17 0
Ca2 Ca2+ 4 i 0.28346(1) 0.06541(1) 0.05601(2) 0.0414(5) 0.31 0
Na2 Na1+ 4 i 0.28346(1) 0.06541(1) 0.05601(2) 0.0414(5) 0.16 0
Ca3 Ca2+ 4 i 0.27018(1) -0.00401(2) 0.59186(1) 0.0428(2) 0.25 0
Na3 Na1+ 4 i 0.27018(1) -0.00401(2) 0.59186(1) 0.0428(2) 0.12 0
Ca4 Ca2+ 4 i 0.27235(2) 0.02450(1) 0.54718(2) 0.0465(1) 0.42 0
Na4 Na1+ 4 i 0.27235(2) 0.02450(1) 0.54718(2) 0.0465(1) 0.21 0
Si1 Si4+ 4 i 0.01109(1) 0.16147(1) 0.09895(1) 0.0158(1) 1. 0
Al1 Al3+ 4 i 0.00204(2) 0.16441(2) 0.61711(1) 0.0124(2) 1. 0
Al2 Al3+ 4 i 0.00079(1) 0.82012(1) 0.11657(1) 0.0040(1) 0.8 0
Si2 Si4+ 4 i 0.00079(1) 0.82012(1) 0.11657(1) 0.0040(1) 0.2 0
Si3 Si4+ 4 i 0.00263(2) 0.81820(2) 0.61580(1) 0.0114(2) 1. 0
Al3 Al3+ 4 i 0.68779(2) 0.11036(1) 0.16190(2) 0.0357(1) 0.7 0
Si4 Si4+ 4 i 0.68779(2) 0.11036(1) 0.16190(2) 0.0357(1) 0.3 0
Si5 Si4+ 4 i 0.68049(1) 0.10878(2) 0.66375(1) 0.0247(2) 1. 0
Si6 Si4+ 4 i 0.66212(2) 0.87582(1) 0.17338(2) 0.0563(2) 1. 0
Al4 Al3+ 4 i 0.68620(2) 0.87579(2) 0.68519(1) 0.0042(2) 0.8 0
Si7 Si4+ 4 i 0.68620(2) 0.87579(2) 0.68519(1) 0.0042(2) 0.2 0
O1 O2- 4 i 0.01366(2) 0.13002(2) 0.99307(1) 0.0451(1) 1. 0
O2 O2- 4 i 1.00193(1) 0.12683(2) 0.48900(2) 0.0144(1) 1. 0
O3 O2- 4 i 0.59530(2) 0.99174(1) 0.14069(2) 0.0230(1) 1. 0
O4 O2- 4 i 0.54560(2) 0.98882(2) 0.63589(1) 0.0409(2) 1. 0
O5 O2- 4 i 0.81523(1) 0.10600(1) 0.09953(1) 0.0058(2) 1. 0
O6 O2- 4 i 0.80588(2) 0.11461(2) 0.60052(2) 0.0365(1) 1. 0
O7 O2- 4 i 0.85069(1) 0.86557(1) 0.14623(2) 0.0508(2) 1. 0
O8 O2- 4 i 0.80142(2) 0.84090(1) 0.60988(1) 0.0318(1) 1. 0
O9 O2- 4 i 0.01292(1) 0.28666(1) 0.13715(2) 0.0283(2) 1. 0
O10 O2- 4 i 0.01448(2) 0.28903(2) 0.64322(2) 0.0303(1) 1. 0
O11 O2- 4 i 0.00382(2) 0.68315(1) 0.10526(1) 0.0156(1) 1. 0
O12 O2- 4 i 0.00980(1) 0.69219(2) 0.61140(2) 0.0680(2) 1. 0
O13 O2- 4 i 0.19876(2) 0.11916(1) 0.18842(1) 0.0029(2) 1. 0
O14 O2- 4 i 0.20430(2) 0.09853(2) 0.69563(1) 0.0806(1) 1. 0
O15 O2- 4 i 0.17926(1) 0.86993(1) 0.22373(2) 0.0171(1) 1. 0
O16 O2- 4 i 0.20901(2) 0.86088(2) 0.70835(2) 0.0144(1) 1. 0
#End of TTdata_248972-ICSD