
#(C) 2018 by FIZ Karlsruhe - Leibniz Institute for Information Infrastructure.  All rights reserved.
data_24896-ICSD
_database_code_ICSD 24896
_audit_creation_date 1980-01-01
_audit_update_record 2007-04-01
_chemical_name_systematic 'Lithium aluminium silicon oxide (1.15/1.32/1.68/6)'
_chemical_formula_structural 'Li1.146 Al1.32 Si1.68 O6'
_chemical_formula_sum 'Al1.32 Li1.146 O6 Si1.68'
_chemical_name_structure_type Li2Al2SiO6
_exptl_crystal_density_diffrn 2.39
_publ_section_title
'The crystal structure of Li2 Al2 Si3 O10 (high-quartz solid solution)'
loop_
_citation_id
_citation_journal_full
_citation_year
_citation_journal_volume
_citation_page_first
_citation_page_last
_citation_journal_id_ASTM
primary

;
Zeitschrift fuer Kristallographie, Kristallgeometrie, Kristallphysik,
Kristallchemie (-144,1977)
; 1970 132 118 128 ZEKGAX
loop_
_publ_author_name
'Li Chi-Tang'
_cell_length_a 5.238(1)
_cell_length_b 5.238(1)
_cell_length_c 5.472(1)
_cell_angle_alpha 90.
_cell_angle_beta 90.
_cell_angle_gamma 120.
_cell_volume 130.02
_cell_formula_units_Z 1
_symmetry_space_group_name_H-M 'P 62 2 2'
_symmetry_Int_Tables_number 180
_refine_ls_R_factor_all 0.041
loop_
_symmetry_equiv_pos_site_id
_symmetry_equiv_pos_as_xyz
1 'x, x-y, -z+1/3'
2 '-x+y, y, -z'
3 '-y, -x, -z+2/3'
4 '-x, -x+y, -z+1/3'
5 'x-y, -y, -z'
6 'y, x, -z+2/3'
7 'x-y, x, z+1/3'
8 'y, -x+y, z+2/3'
9 '-x, -y, z'
10 '-x+y, -x, z+1/3'
11 '-y, x-y, z+2/3'
12 'x, y, z'
loop_
_atom_type_symbol
_atom_type_oxidation_number
Li1+ 1
Al3+ 3
Si4+ 4
O2- -2
loop_
_atom_site_label
_atom_site_type_symbol
_atom_site_symmetry_multiplicity
_atom_site_Wyckoff_symbol
_atom_site_fract_x
_atom_site_fract_y
_atom_site_fract_z
_atom_site_B_iso_or_equiv
_atom_site_occupancy
_atom_site_attached_hydrogens
Li1 Li1+ 3 a 0 0 0 . 0.382 0
Al1 Al3+ 3 c 0.5 0 0 . 0.44 0
Si1 Si4+ 3 c 0.5 0 0 . 0.56 0
O1 O2- 6 j 0.2041(5) 0.4082(10) 0.5 . 1. 0
loop_
_atom_site_aniso_label
_atom_site_aniso_type_symbol
_atom_site_aniso_beta_11
_atom_site_aniso_beta_22
_atom_site_aniso_beta_33
_atom_site_aniso_beta_12
_atom_site_aniso_beta_13
_atom_site_aniso_beta_23
Li1 Li1+ 0.038(21) 0.033(26) 0.062(19) 0.017(13) 0 0
Al1 Al3+ 0.0048(7) 0.0036(8) 0.0033(5) 0.0018(4) 0 0
Si1 Si4+ 0.0048(7) 0.0036(8) 0.0033(5) 0.0018(4) 0 0
O1 O2- 0.0172(12) 0.0162(18) 0.0206(11) 0.0081(9) 0.0095(11) 0
#End of TTdata_24896-ICSD