
#(C) 2019 by FIZ Karlsruhe - Leibniz Institute for Information Infrastructure.  All rights reserved.
data_248914-ICSD
_database_code_ICSD 248914
_audit_creation_date 2015-02-01
_chemical_name_systematic
'Sodium europium(II/III) germanium sulfide (1.515/1/1/4)'
_chemical_formula_structural 'Na1.515 Eu Ge S4'
_chemical_formula_sum 'Eu1 Ge1 Na1.515 S4'
_exptl_crystal_density_diffrn 3.6
_cell_measurement_temperature 293.
_publ_section_title

;
Na1.515 Eu Ge S4, a three-dimensional crystalline assembly of empty
nanotubules constructed with europium(II/III) mixed valence ions
;
loop_
_citation_id
_citation_journal_full
_citation_year
_citation_journal_volume
_citation_page_first
_citation_page_last
_citation_journal_id_ASTM
primary 'Inorganic Chemistry' 2012 51 11779 11786 INOCAJ
loop_
_publ_author_name
'Choudhury, Amitava'
'Grandjean, Fernande'
'Long, Gary J.'
'Dorhout, Peter K.'
_cell_length_a 23.322(3)
_cell_length_b 23.322(3)
_cell_length_c 6.8385(16)
_cell_angle_alpha 90.
_cell_angle_beta 90.
_cell_angle_gamma 120.
_cell_volume 3221.23
_cell_formula_units_Z 18
_symmetry_space_group_name_H-M 'R 3 c H'
_symmetry_Int_Tables_number 161
_refine_ls_R_factor_all 0.0525
loop_
_symmetry_equiv_pos_site_id
_symmetry_equiv_pos_as_xyz
1 '-x+y, y, z+1/2'
2 'x, x-y, z+1/2'
3 '-y, -x, z+1/2'
4 '-x+y, -x, z'
5 '-y, x-y, z'
6 'x, y, z'
7 '-x+y+2/3, y+1/3, z+5/6'
8 'x+2/3, x-y+1/3, z+5/6'
9 '-y+2/3, -x+1/3, z+5/6'
10 '-x+y+2/3, -x+1/3, z+1/3'
11 '-y+2/3, x-y+1/3, z+1/3'
12 'x+2/3, y+1/3, z+1/3'
13 '-x+y+1/3, y+2/3, z+1/6'
14 'x+1/3, x-y+2/3, z+1/6'
15 '-y+1/3, -x+2/3, z+1/6'
16 '-x+y+1/3, -x+2/3, z+2/3'
17 '-y+1/3, x-y+2/3, z+2/3'
18 'x+1/3, y+2/3, z+2/3'
loop_
_atom_type_symbol
_atom_type_oxidation_number
Ge4+ 4
Eu2+ 2.5
S2- -2
Na1+ 1
loop_
_atom_site_label
_atom_site_type_symbol
_atom_site_symmetry_multiplicity
_atom_site_Wyckoff_symbol
_atom_site_fract_x
_atom_site_fract_y
_atom_site_fract_z
_atom_site_B_iso_or_equiv
_atom_site_occupancy
_atom_site_attached_hydrogens
Ge1 Ge4+ 18 b 0.51869(9) 0.66473(10) 0.4166(3) 0.0165(4) 1 0
Eu1 Eu2+ 18 b 0.47805(4) 0.67484(4) 0.91631(12) 0.0183(2) 1 0
S1 S2- 18 b 0.4980(3) 0.5865(2) 0.6338(6) 0.0364(12) 1 0
S2 S2- 18 b 0.5700(2) 0.7570(2) 0.5909(5) 0.0221(9) 1 0
S3 S2- 18 b 0.4263(2) 0.6609(2) 0.3184(7) 0.0262(10) 1 0
S4 S2- 18 b 0.5794(2) 0.6648(2) 0.1659(6) 0.0198(9) 1 0
Na1 Na1+ 18 b 0.4592(4) 0.4633(4) 0.4666(10) 0.0327(16) 1 0
Na2 Na1+ 18 b 0.6471(7) 0.7041(9) 0.782(2) 0.047(3) 0.52 0
loop_
_atom_site_aniso_label
_atom_site_aniso_type_symbol
_atom_site_aniso_U_11
_atom_site_aniso_U_22
_atom_site_aniso_U_33
_atom_site_aniso_U_12
_atom_site_aniso_U_13
_atom_site_aniso_U_23
Ge1 Ge4+ 0.0195(10) 0.0166(8) 0.0117(7) 0.0078(8) 0.0006(7) -0.0007(6)
Eu1 Eu2+ 0.0227(5) 0.0212(5) 0.0117(3) 0.0116(4) -0.0005(4) -0.0002(3)
S1 S2- 0.074(4) 0.023(2) 0.016(2) 0.027(2) 0.014(2) 0.0101(18)
S2 S2- 0.023(2) 0.022(2) 0.0161(19) 0.0075(19) -0.0027(16) -0.0071(15)
S3 S2- 0.014(2) 0.033(3) 0.026(2) 0.0080(19) -0.0013(17) -0.006(2)
S4 S2- 0.024(2) 0.022(2) 0.0129(18) 0.0116(19) 0.0051(16) 0.0009(16)
Na1 Na1+ 0.052(5) 0.032(4) 0.025(3) 0.029(4) 0.004(3) 0.002(3)
Na2 Na1+ 0.023(5) 0.061(8) 0.055(9) 0.020(5) 0.008(4) 0.040(7)
#End of TTdata_248914-ICSD