
#(C) 2018 by FIZ Karlsruhe - Leibniz Institute for Information Infrastructure.  All rights reserved.
data_249175-ICSD
_database_code_ICSD 249175
_audit_creation_date 2008-02-01
_chemical_name_systematic 'Strontium manganese(II) lithium dioxide trisulfide'
_chemical_formula_structural 'Sr2 Mn O2 Li1.886 S2'
_chemical_formula_sum 'Li1.886 Mn1 O2 S2 Sr2'
_exptl_crystal_density_diffrn 3.81
_publ_section_title
'Reversible lithium insertion and copper extrusion in layered oyxsulfides'
loop_
_citation_id
_citation_journal_full
_citation_year
_citation_journal_volume
_citation_page_first
_citation_page_last
_citation_journal_id_ASTM
primary 'Chemical Communications (Cambridge, United Kingdom)' 2006 2006 2869
2871 CHCOFS
loop_
_publ_author_name
'Rutt, O.J.'
'Williams, G.R.'
'Clarke, S.J.'
_cell_length_a 4.07036
_cell_length_b 4.07036
_cell_length_c 17.8721(4)
_cell_angle_alpha 90.
_cell_angle_beta 90.
_cell_angle_gamma 90.
_cell_volume 296.1
_cell_formula_units_Z 2
_symmetry_space_group_name_H-M 'I 4/m m m'
_symmetry_Int_Tables_number 139
loop_
_symmetry_equiv_pos_site_id
_symmetry_equiv_pos_as_xyz
1 'y, x, -z'
2 '-y, -x, -z'
3 '-y, x, -z'
4 'y, -x, -z'
5 '-x, y, -z'
6 'x, -y, -z'
7 'x, y, -z'
8 '-x, -y, -z'
9 '-y, -x, z'
10 'y, x, z'
11 'y, -x, z'
12 '-y, x, z'
13 'x, -y, z'
14 '-x, y, z'
15 '-x, -y, z'
16 'x, y, z'
17 'y+1/2, x+1/2, -z+1/2'
18 '-y+1/2, -x+1/2, -z+1/2'
19 '-y+1/2, x+1/2, -z+1/2'
20 'y+1/2, -x+1/2, -z+1/2'
21 '-x+1/2, y+1/2, -z+1/2'
22 'x+1/2, -y+1/2, -z+1/2'
23 'x+1/2, y+1/2, -z+1/2'
24 '-x+1/2, -y+1/2, -z+1/2'
25 '-y+1/2, -x+1/2, z+1/2'
26 'y+1/2, x+1/2, z+1/2'
27 'y+1/2, -x+1/2, z+1/2'
28 '-y+1/2, x+1/2, z+1/2'
29 'x+1/2, -y+1/2, z+1/2'
30 '-x+1/2, y+1/2, z+1/2'
31 '-x+1/2, -y+1/2, z+1/2'
32 'x+1/2, y+1/2, z+1/2'
loop_
_atom_type_symbol
_atom_type_oxidation_number
Sr2+ 2
Mn2+ 2
O2- -2
Li1+ 1
S2- -2
loop_
_atom_site_label
_atom_site_type_symbol
_atom_site_symmetry_multiplicity
_atom_site_Wyckoff_symbol
_atom_site_fract_x
_atom_site_fract_y
_atom_site_fract_z
_atom_site_B_iso_or_equiv
_atom_site_occupancy
_atom_site_attached_hydrogens
Sr1 Sr2+ 4 e 0.5 0.5 0.092184(27) 0.01035 1. 0
Mn1 Mn2+ 2 a 0. 0. 0. 0.01084 1. 0
O1 O2- 4 c 0.5 0. 0. 0.01129 1. 0
Li1 Li1+ 4 d 0.5 0. 0.25 0.0232 0.943(6) 0
S1 S2- 4 e 0. 0. 0.17099(7) 0.01041 1. 0
loop_
_atom_site_aniso_label
_atom_site_aniso_type_symbol
_atom_site_aniso_U_11
_atom_site_aniso_U_22
_atom_site_aniso_U_33
_atom_site_aniso_U_12
_atom_site_aniso_U_13
_atom_site_aniso_U_23
Sr1 Sr2+ 0.01112(15) 0.01112(15) 0.00881(24) 0. 0. 0.
Mn1 Mn2+ 0.00328(20) 0.00328(20) 0.0259(7) 0. 0. 0.
O1 O2- 0.01154(22) 0.01179(21) 0.01054(28) 0. 0. 0.
Li1 Li1+ 0.0222(6) 0.0222(6) 0.0252(12) 0. 0. 0.
S1 S2- 0.01112(15) 0.01112(15) 0.00881(24) 0. 0. 0.
#End of TTdata_249175-ICSD