
#(C) 2019 by FIZ Karlsruhe - Leibniz Institute for Information Infrastructure.  All rights reserved.
data_249163-ICSD
_database_code_ICSD 249163
_audit_creation_date 2008-02-01
_audit_update_record 2015-08-01
_chemical_name_systematic 'Disodium nickel bis(sulfate(VI)) tetrahydrate'
_chemical_formula_structural 'Na2 Ni (S O4)2 (H2 O)4'
_chemical_formula_sum 'H8 Na2 Ni1 O12 S2'
_chemical_name_structure_type Na2Ni(SO4)2(H2O)4
_chemical_name_mineral Nickelbloedite
_exptl_crystal_density_diffrn 2.49
_publ_section_title
'Disodium nickel bis(sulfate) tetrahydrate: a nickel astrakanite'
loop_
_citation_id
_citation_journal_full
_citation_year
_citation_journal_volume
_citation_page_first
_citation_page_last
_citation_journal_id_ASTM
primary 'Acta Crystallographica, Section E: Structure Reports Online' 2006 62
i196 i198 ACSEBH
loop_
_publ_author_name
'Diaz de Vivar, M.E.'
'Baggio, S.'
'Garland, M.T.'
'Baggio, R.'
_cell_length_a 5.5284(6)
_cell_length_b 8.1890(10)
_cell_length_c 11.0343(13)
_cell_angle_alpha 90.
_cell_angle_beta 100.468(2)
_cell_angle_gamma 90.
_cell_volume 491.23
_cell_formula_units_Z 2
_symmetry_space_group_name_H-M 'P 1 21/c 1'
_symmetry_Int_Tables_number 14
_refine_ls_R_factor_all 0.0233
loop_
_symmetry_equiv_pos_site_id
_symmetry_equiv_pos_as_xyz
1 'x, -y+1/2, z+1/2'
2 '-x, -y, -z'
3 '-x, y+1/2, -z+1/2'
4 'x, y, z'
loop_
_atom_type_symbol
_atom_type_oxidation_number
Ni2+ 2
Na1+ 1
S6+ 6
O2- -2
H1+ 1
loop_
_atom_site_label
_atom_site_type_symbol
_atom_site_symmetry_multiplicity
_atom_site_Wyckoff_symbol
_atom_site_fract_x
_atom_site_fract_y
_atom_site_fract_z
_atom_site_B_iso_or_equiv
_atom_site_occupancy
_atom_site_attached_hydrogens
Ni1 Ni2+ 2 a 0. 0. 0. 0.01453(13) 1 0
Na1 Na1+ 4 e 0.12865(15) 0.06926(10) 0.36180(7) 0.0239(2) 1 0
S1 S6+ 4 e 0.37008(8) 0.28638(5) 0.13650(4) 0.01497(14) 1 0
O1 O2- 4 e 0.3493(3) 0.26831(18) 0.26754(13) 0.0241(3) 1 0
O2 O2- 4 e 0.2051(3) 0.41431(18) 0.07920(13) 0.0248(3) 1 0
O3 O2- 4 e 0.3146(3) 0.12945(18) 0.07142(14) 0.0233(3) 1 0
O4 O2- 4 e 0.6288(3) 0.32744(18) 0.13104(14) 0.0245(3) 1 0
O5 O2- 4 e -0.1253(3) 0.03655(19) 0.16071(13) 0.0195(3) 1 0
O6 O2- 4 e 0.1722(3) -0.20991(17) 0.08071(13) 0.0202(3) 1 0
H1 H1+ 4 e -0.221(4) -0.039(2) 0.174(3) 0.037(8) 1 0
H2 H1+ 4 e -0.210(4) 0.1225(19) 0.151(3) 0.039(8) 1 0
H3 H1+ 4 e 0.299(3) -0.207(4) 0.1364(19) 0.043(8) 1 0
H4 H1+ 4 e 0.208(5) -0.277(3) 0.028(2) 0.057(10) 1 0
loop_
_atom_site_aniso_label
_atom_site_aniso_type_symbol
_atom_site_aniso_U_11
_atom_site_aniso_U_22
_atom_site_aniso_U_33
_atom_site_aniso_U_12
_atom_site_aniso_U_13
_atom_site_aniso_U_23
Ni1 Ni2+ 0.0153(2) 0.0141(2) 0.01415(19) -0.00007(11) 0.00272(13) -0.00081(11)
Na1 Na1+ 0.0263(4) 0.0237(4) 0.0213(4) -0.0011(3) 0.0032(3) 0.0013(3)
S1 S6+ 0.0143(2) 0.0152(2) 0.0152(2) 0.00061(16) 0.00202(17) -0.00081(15)
O1 O2- 0.0302(8) 0.0254(8) 0.0171(7) 0.0019(6) 0.0056(6) 0.0018(5)
O2 O2- 0.0275(8) 0.0253(8) 0.0211(7) 0.0104(6) 0.0025(6) 0.0027(5)
O3 O2- 0.0189(7) 0.0215(7) 0.0291(8) -0.0028(5) 0.0031(6) -0.0095(6)
O4 O2- 0.0178(7) 0.0217(7) 0.0350(8) -0.0035(6) 0.0074(6) -0.0032(6)
O5 O2- 0.0201(7) 0.0198(7) 0.0194(7) 0.0005(6) 0.0059(5) 0.0000(6)
O6 O2- 0.0202(7) 0.0181(7) 0.0201(7) 0.0021(5) -0.0018(5) -0.0011(5)
#End of TTdata_249163-ICSD