
#(C) 2019 by FIZ Karlsruhe - Leibniz Institute for Information Infrastructure.  All rights reserved.
data_249384-ICSD
_database_code_ICSD 249384
_audit_creation_date 2008-02-01
_chemical_name_systematic 'Neodymium sodium ruthenium oxide (14/3/6/36)'
_chemical_formula_structural 'Nd14 Na3 Ru6 O36'
_chemical_formula_sum 'Na3 Nd14 O36 Ru6'
_chemical_name_structure_type Pr14Na3Ru6O36
_exptl_crystal_density_diffrn 7.25
_cell_measurement_temperature 293.
_publ_section_title

;
Ln14 Na3 Ru6 O36 (Ln=Pr,Nd): Two new complex lanthanide-containing oxides of
ruthenium
;
loop_
_citation_id
_citation_journal_full
_citation_year
_citation_journal_volume
_citation_page_first
_citation_page_last
_citation_journal_id_ASTM
primary 'Inorganic Chemistry' 2007 46 2132 2138 INOCAJ
loop_
_publ_author_name
'Gemmill, W.R.'
'Smith, M.D.'
'zur Loye, H.C.'
_cell_length_a 9.6781(2)
_cell_length_b 9.6781(2)
_cell_length_c 55.4156(18)
_cell_angle_alpha 90.
_cell_angle_beta 90.
_cell_angle_gamma 120.
_cell_volume 4495.14
_cell_formula_units_Z 6
_symmetry_space_group_name_H-M 'R -3 c H'
_symmetry_Int_Tables_number 167
_refine_ls_R_factor_all 0.0325
loop_
_symmetry_equiv_pos_site_id
_symmetry_equiv_pos_as_xyz
1 'x-y, -y, -z+1/2'
2 '-x, -x+y, -z+1/2'
3 'y, x, -z+1/2'
4 'x-y, x, -z'
5 'y, -x+y, -z'
6 '-x, -y, -z'
7 '-x+y, y, z+1/2'
8 'x, x-y, z+1/2'
9 '-y, -x, z+1/2'
10 '-x+y, -x, z'
11 '-y, x-y, z'
12 'x, y, z'
13 'x-y+2/3, -y+1/3, -z+5/6'
14 '-x+2/3, -x+y+1/3, -z+5/6'
15 'y+2/3, x+1/3, -z+5/6'
16 'x-y+2/3, x+1/3, -z+1/3'
17 'y+2/3, -x+y+1/3, -z+1/3'
18 '-x+2/3, -y+1/3, -z+1/3'
19 '-x+y+2/3, y+1/3, z+5/6'
20 'x+2/3, x-y+1/3, z+5/6'
21 '-y+2/3, -x+1/3, z+5/6'
22 '-x+y+2/3, -x+1/3, z+1/3'
23 '-y+2/3, x-y+1/3, z+1/3'
24 'x+2/3, y+1/3, z+1/3'
25 'x-y+1/3, -y+2/3, -z+1/6'
26 '-x+1/3, -x+y+2/3, -z+1/6'
27 'y+1/3, x+2/3, -z+1/6'
28 'x-y+1/3, x+2/3, -z+2/3'
29 'y+1/3, -x+y+2/3, -z+2/3'
30 '-x+1/3, -y+2/3, -z+2/3'
31 '-x+y+1/3, y+2/3, z+1/6'
32 'x+1/3, x-y+2/3, z+1/6'
33 '-y+1/3, -x+2/3, z+1/6'
34 '-x+y+1/3, -x+2/3, z+2/3'
35 '-y+1/3, x-y+2/3, z+2/3'
36 'x+1/3, y+2/3, z+2/3'
loop_
_atom_type_symbol
_atom_type_oxidation_number
Nd3+ 3
Ru4+ 4.5
Na1+ 1
O2- -2
loop_
_atom_site_label
_atom_site_type_symbol
_atom_site_symmetry_multiplicity
_atom_site_Wyckoff_symbol
_atom_site_fract_x
_atom_site_fract_y
_atom_site_fract_z
_atom_site_B_iso_or_equiv
_atom_site_occupancy
_atom_site_attached_hydrogens
Nd1 Nd3+ 36 f 0.00377(4) 0.28815(4) 0.216655(6) 0.00571(8) 1 0
Nd2 Nd3+ 36 f 0.03070(4) 0.34405(4) 0.147627(6) 0.00784(8) 1 0
Nd3 Nd3+ 12 c 0. 0. 0.107709(10) 0.00606(11) 1 0
Ru1 Ru4+ 18 e -0.00054(7) 0.3333 0.0833 0.00347(12) 1 0
Ru2 Ru4+ 6 b 0. 0. 0. 0.00325(19) 1 0
Ru3 Ru4+ 12 c 0. 0. 0.162585(14) 0.00366(14) 1 0
Na1 Na1+ 6 a 0. 0. 0.25 0.0096(12) 1 0
Na2 Na1+ 12 c 0. 0. 0.05351(9) 0.0116(9) 1 0
O1 O2- 36 f 0.1965(6) 0.1912(6) 0.22395(8) 0.0070(8) 1 0
O2 O2- 36 f 0.1940(6) 0.1273(6) 0.14113(9) 0.0080(8) 1 0
O3 O2- 36 f 0.0658(6) 0.1967(6) 0.17959(8) 0.0070(8) 1 0
O4 O2- 36 f 0.2334(6) 0.1353(6) 0.08185(8) 0.0072(8) 1 0
O5 O2- 36 f 0.1449(6) 0.3553(6) 0.05778(8) 0.0074(8) 1 0
O6 O2- 36 f 0.1682(6) 0.1699(6) 0.02065(9) 0.0088(9) 1 0
loop_
_atom_site_aniso_label
_atom_site_aniso_type_symbol
_atom_site_aniso_U_11
_atom_site_aniso_U_22
_atom_site_aniso_U_33
_atom_site_aniso_U_12
_atom_site_aniso_U_13
_atom_site_aniso_U_23
Nd1 Nd3+ 0.00560(15) 0.00644(15) 0.00508(13) 0.00301(12) -0.00014(10)
0.00020(10)
Nd2 Nd3+ 0.00905(16) 0.00667(15) 0.00775(14) 0.00388(12) -0.00100(11)
-0.00017(11)
Nd3 Nd3+ 0.00615(15) 0.00615(15) 0.0059(2) 0.00308(8) 0. 0.
Ru1 Ru4+ 0.0039(2) 0.0032(3) 0.0030(2) 0.00162(13) 0.00015(10) 0.0003(2)
Ru2 Ru4+ 0.0036(3) 0.0036(3) 0.0026(4) 0.00179(14) 0. 0.
Ru3 Ru4+ 0.0037(2) 0.0037(2) 0.0035(3) 0.00186(10) 0. 0.
Na1 Na1+ 0.0097(19) 0.0097(19) 0.010(3) 0.0048(9) 0. 0.
Na2 Na1+ 0.0128(14) 0.0128(14) 0.009(2) 0.0064(7) 0. 0.
O1 O2- 0.008(2) 0.007(2) 0.0074(18) 0.0045(17) -0.0013(16) -0.0023(16)
O2 O2- 0.007(2) 0.008(2) 0.0090(19) 0.0037(17) 0.0023(16) 0.0026(16)
O3 O2- 0.011(2) 0.007(2) 0.0051(17) 0.0058(17) 0.0005(16) -0.0018(15)
O4 O2- 0.007(2) 0.009(2) 0.0068(18) 0.0043(17) -0.0006(16) 0.0004(16)
O5 O2- 0.007(2) 0.012(2) 0.0045(17) 0.0057(17) 0.0017(15) -0.0007(16)
O6 O2- 0.008(2) 0.005(2) 0.0099(19) 0.0005(17) -0.0019(17) -0.0024(16)
#End of TTdata_249384-ICSD