
#(C) 2019 by FIZ Karlsruhe - Leibniz Institute for Information Infrastructure.  All rights reserved.
data_249341-ICSD
_database_code_ICSD 249341
_audit_creation_date 2008-02-01
_chemical_name_systematic 'Disodium beryllodiborate'
_chemical_formula_structural 'Na2 (Be B2 O5)'
_chemical_formula_sum 'B2 Be1 Na2 O5'
_chemical_name_structure_type Nd(BO2)3
_exptl_crystal_density_diffrn 2.47
_cell_measurement_temperature 293.
_publ_section_title 'Na2 [Be B2 O5]'
loop_
_citation_id
_citation_journal_full
_citation_year
_citation_journal_volume
_citation_page_first
_citation_page_last
_citation_journal_id_ASTM
primary 'Acta Crystallographica, Section E: Structure Reports Online' 2007 63
i160 i160 ACSEBH
loop_
_publ_author_name
'Li Wei'
'Ye Ning'
_cell_length_a 5.8117(5)
_cell_length_b 8.1666(7)
_cell_length_c 8.9830(8)
_cell_angle_alpha 90
_cell_angle_beta 99.665(14)
_cell_angle_gamma 90
_cell_volume 420.3
_cell_formula_units_Z 4
_symmetry_space_group_name_H-M 'C 1 2/c 1'
_symmetry_Int_Tables_number 15
_refine_ls_R_factor_all 0.022
loop_
_symmetry_equiv_pos_site_id
_symmetry_equiv_pos_as_xyz
1 'x, -y, z+1/2'
2 '-x, -y, -z'
3 '-x, y, -z+1/2'
4 'x, y, z'
5 'x+1/2, -y+1/2, z+1/2'
6 '-x+1/2, -y+1/2, -z'
7 '-x+1/2, y+1/2, -z+1/2'
8 'x+1/2, y+1/2, z'
loop_
_atom_type_symbol
_atom_type_oxidation_number
Na1+ 1
O2- -2
B3+ 3
Be2+ 2
loop_
_atom_site_label
_atom_site_type_symbol
_atom_site_symmetry_multiplicity
_atom_site_Wyckoff_symbol
_atom_site_fract_x
_atom_site_fract_y
_atom_site_fract_z
_atom_site_B_iso_or_equiv
_atom_site_occupancy
_atom_site_attached_hydrogens
Na1 Na1+ 8 f -0.01389(8) 0.30641(6) 0.42612(6) 0.0142(2) 1 0
O1 O2- 8 f -0.34432(14) 0.32884(10) 0.15850(10) 0.0113(2) 1 0
O2 O2- 8 f 0.16865(14) 0.58926(10) 0.37065(10) 0.0108(2) 1 0
O3 O2- 4 e 0 0.07376(14) 0.25 0.0140(3) 1 0
B1 B3+ 8 f -0.3344(2) 0.49318(16) 0.17748(15) 0.0087(3) 1 0
Be1 Be2+ 4 e -0.5 0.2100(2) 0.25 0.0087(4) 1 0
loop_
_atom_site_aniso_label
_atom_site_aniso_type_symbol
_atom_site_aniso_U_11
_atom_site_aniso_U_22
_atom_site_aniso_U_33
_atom_site_aniso_U_12
_atom_site_aniso_U_13
_atom_site_aniso_U_23
Na1 Na1+ 0.0145(3) 0.0145(3) 0.0150(3) -0.00079(18) 0.0065(2) -0.00110(18)
O1 O2- 0.0127(4) 0.0078(4) 0.0154(4) -0.0005(3) 0.0082(3) -0.0002(3)
O2 O2- 0.0109(4) 0.0099(4) 0.0124(4) 0.0028(3) 0.0046(3) 0.0008(3)
O3 O2- 0.0135(6) 0.0073(6) 0.0243(7) 0 0.0120(5) 0
B1 B3+ 0.0074(6) 0.0097(6) 0.0087(6) 0.0003(4) 0.0008(5) 0.0010(5)
Be1 Be2+ 0.0090(9) 0.0064(9) 0.0115(10) 0 0.0043(8) 0
#End of TTdata_249341-ICSD