
#(C) 2019 by FIZ Karlsruhe - Leibniz Institute for Information Infrastructure.  All rights reserved.
data_249506-ICSD
_database_code_ICSD 249506
_audit_creation_date 2008-08-01
_chemical_name_systematic 'Disodium palladium bis(selenate(VI))'
_chemical_formula_structural 'Na2 Pd (Se O4)2'
_chemical_formula_sum 'Na2 O8 Pd1 Se2'
_chemical_name_structure_type Cu3(PO4)2(P1-)
_exptl_crystal_density_diffrn 3.79
_cell_measurement_temperature 193.
_publ_section_title 'Selenium oxoanion compounds of palladium(II)'
loop_
_citation_id
_citation_journal_full
_citation_year
_citation_journal_volume
_citation_page_first
_citation_page_last
_citation_journal_id_ASTM
primary 'Inorganic Chemistry' 2007 46 5686 5690 INOCAJ
loop_
_publ_author_name
'Ling Jie'
'Albrecht Schmitt, T.E.'
_cell_length_a 4.9349(11)
_cell_length_b 5.9981(13)
_cell_length_c 7.1512(15)
_cell_angle_alpha 73.894(4)
_cell_angle_beta 86.124(4)
_cell_angle_gamma 70.834(4)
_cell_volume 192.03
_cell_formula_units_Z 1
_symmetry_space_group_name_H-M 'P -1'
_symmetry_Int_Tables_number 2
_refine_ls_R_factor_all 0.0241
loop_
_symmetry_equiv_pos_site_id
_symmetry_equiv_pos_as_xyz
1 '-x, -y, -z'
2 'x, y, z'
loop_
_atom_type_symbol
_atom_type_oxidation_number
Pd2+ 2
Se6+ 6
O2- -2
Na1+ 1
loop_
_atom_site_label
_atom_site_type_symbol
_atom_site_symmetry_multiplicity
_atom_site_Wyckoff_symbol
_atom_site_fract_x
_atom_site_fract_y
_atom_site_fract_z
_atom_site_B_iso_or_equiv
_atom_site_occupancy
_atom_site_attached_hydrogens
Pd1 Pd2+ 1 f 0.5 0. 0.5 0.00984(14) 1 0
Se1 Se6+ 2 i 0.11685(5) -0.31450(5) 0.71516(4) 0.01022(14) 1 0
O1 O2- 2 i 0.2606(4) -0.2155(4) 0.5022(3) 0.0135(4) 1 0
O2 O2- 2 i 0.1031(4) -0.1364(4) 0.8513(3) 0.0169(4) 1 0
O3 O2- 2 i 0.2852(4) -0.6003(4) 0.8164(3) 0.0177(5) 1 0
O4 O2- 2 i 0.2087(4) 0.3087(4) 0.3426(3) 0.0162(4) 1 0
Na1 Na1+ 2 i -0.1998(3) 0.2674(2) 0.81259(18) 0.0175(3) 1 0
loop_
_atom_site_aniso_label
_atom_site_aniso_type_symbol
_atom_site_aniso_U_11
_atom_site_aniso_U_22
_atom_site_aniso_U_33
_atom_site_aniso_U_12
_atom_site_aniso_U_13
_atom_site_aniso_U_23
Pd1 Pd2+ 0.00816(19) 0.0107(2) 0.0106(2) -0.00382(13) -0.00075(12) -0.00165(13)
Se1 Se6+ 0.00918(19) 0.0102(2) 0.01056(19) -0.00321(12) -0.00129(12)
-0.00123(12)
O1 O2- 0.0144(9) 0.0150(10) 0.0124(10) -0.0071(8) 0.0009(7) -0.0031(8)
O2 O2- 0.0234(11) 0.0161(11) 0.0138(10) -0.0067(8) -0.0011(8) -0.0073(8)
O3 O2- 0.0145(10) 0.0106(10) 0.0211(11) -0.0003(8) -0.0035(8) 0.0028(8)
O4 O2- 0.0112(10) 0.0145(10) 0.0208(11) -0.0045(8) -0.0043(8) -0.0002(8)
Na1 Na1+ 0.0204(6) 0.0151(6) 0.0155(6) -0.0033(5) -0.0019(5) -0.0042(5)
#End of TTdata_249506-ICSD