
#(C) 2019 by FIZ Karlsruhe - Leibniz Institute for Information Infrastructure.  All rights reserved.
data_249878-ICSD
_database_code_ICSD 249878
_audit_creation_date 2010-02-01
_chemical_name_systematic 'Disodium manganese(II) bis(sulfate(VI))'
_chemical_formula_structural 'Na2 Mn (S O4)2'
_chemical_formula_sum 'Mn1 Na2 O8 S2'
_chemical_name_structure_type Na2Ca(SO4)2
_exptl_crystal_density_diffrn 2.95
_cell_measurement_temperature 500.
_publ_section_title

;
In situ phase separation following dehydration in bimetallic sulfates: A
variable-temperature X-ray diffraction study
;
loop_
_citation_id
_citation_journal_full
_citation_year
_citation_journal_volume
_citation_page_first
_citation_page_last
_citation_journal_id_ASTM
primary 'Inorganic Chemistry' 2009 48 7048 7058 INOCAJ
loop_
_publ_author_name
'Swain, D.'
'Guru Row, T.N.'
_cell_length_a 10.101(3)
_cell_length_b 8.240(3)
_cell_length_c 8.730(3)
_cell_angle_alpha 90.
_cell_angle_beta 114.640(5)
_cell_angle_gamma 90.
_cell_volume 660.46
_cell_formula_units_Z 4
_symmetry_space_group_name_H-M 'C 1 2/c 1'
_symmetry_Int_Tables_number 15
_refine_ls_R_factor_all 0.0961
loop_
_symmetry_equiv_pos_site_id
_symmetry_equiv_pos_as_xyz
1 'x, -y, z+1/2'
2 '-x, -y, -z'
3 '-x, y, -z+1/2'
4 'x, y, z'
5 'x+1/2, -y+1/2, z+1/2'
6 '-x+1/2, -y+1/2, -z'
7 '-x+1/2, y+1/2, -z+1/2'
8 'x+1/2, y+1/2, z'
loop_
_atom_type_symbol
_atom_type_oxidation_number
Mn2+ 2
Na1+ 1
S6+ 6
O2- -2
loop_
_atom_site_label
_atom_site_type_symbol
_atom_site_symmetry_multiplicity
_atom_site_Wyckoff_symbol
_atom_site_fract_x
_atom_site_fract_y
_atom_site_fract_z
_atom_site_B_iso_or_equiv
_atom_site_occupancy
_atom_site_attached_hydrogens
Mn1 Mn2+ 4 e 0. 0.07248(7) 0.25 0.0190(9) 1 0
Na1 Na1+ 8 f 0.8659(6) 0.5568(6) 0.0643(7) 0.0735(16) 1 0
S1 S6+ 8 f 0.8130(2) 0.7885(2) 0.3149(2) 0.0469(10) 1 0
O1 O2- 8 f 0.8732(16) 0.9092(9) 0.4603(11) 0.081(3) 1 0
O2 O2- 8 f 0.6520(10) 0.7639(10) 0.2517(12) 0.078(2) 1 0
O3 O2- 8 f 0.8849(9) 0.6302(8) 0.3673(11) 0.070(2) 1 0
O4 O2- 8 f 0.8365(10) 0.8465(15) 0.1716(10) 0.089(3) 1 0
loop_
_atom_site_aniso_label
_atom_site_aniso_type_symbol
_atom_site_aniso_U_11
_atom_site_aniso_U_22
_atom_site_aniso_U_33
_atom_site_aniso_U_12
_atom_site_aniso_U_13
_atom_site_aniso_U_23
Mn1 Mn2+ 0.0131(11) 0.0118(12) 0.0268(12) 0. 0.0031(7) 0.
Na1 Na1+ 0.058(3) 0.093(3) 0.071(3) -0.0079(18) 0.029(2) -0.0221(18)
S1 S6+ 0.0488(14) 0.0448(14) 0.0506(14) -0.0041(6) 0.0241(9) -0.0030(6)
O1 O2- 0.128(9) 0.068(4) 0.058(4) -0.007(4) 0.050(5) -0.012(3)
O2 O2- 0.074(4) 0.082(4) 0.095(5) -0.019(4) 0.051(4) 0.007(4)
O3 O2- 0.075(5) 0.061(4) 0.078(4) -0.023(3) 0.035(3) -0.008(3)
O4 O2- 0.065(5) 0.130(8) 0.054(4) 0.018(5) 0.007(3) -0.005(4)
#End of TTdata_249878-ICSD