
#(C) 2019 by FIZ Karlsruhe - Leibniz Institute for Information Infrastructure.  All rights reserved.
data_249877-ICSD
_database_code_ICSD 249877
_audit_creation_date 2010-02-01
_chemical_name_systematic
'Sodium manganese sulfate(VI) hydrate (2/1.167/2.33/2)'
_chemical_formula_structural 'Na2 Mn1.167 (S O4)2.33 (H2 O)2'
_chemical_formula_sum 'H4 Mn1.167 Na2 O11.32 S2.33'
_exptl_crystal_density_diffrn 2.61
_cell_measurement_temperature 294.
_publ_section_title

;
In situ phase separation following dehydration in bimetallic sulfates: A
variable-temperature X-ray diffraction study
;
loop_
_citation_id
_citation_journal_full
_citation_year
_citation_journal_volume
_citation_page_first
_citation_page_last
_citation_journal_id_ASTM
primary 'Inorganic Chemistry' 2009 48 7048 7058 INOCAJ
loop_
_publ_author_name
'Swain, D.'
'Guru Row, T.N.'
_cell_length_a 19.057(2)
_cell_length_b 19.057(2)
_cell_length_c 13.470(3)
_cell_angle_alpha 90.
_cell_angle_beta 90.
_cell_angle_gamma 120.
_cell_volume 4236.5
_cell_formula_units_Z 18
_symmetry_space_group_name_H-M 'R -3 H'
_symmetry_Int_Tables_number 148
_refine_ls_R_factor_all 0.0553
loop_
_symmetry_equiv_pos_site_id
_symmetry_equiv_pos_as_xyz
1 'x-y, x, -z'
2 'y, -x+y, -z'
3 '-x, -y, -z'
4 '-x+y, -x, z'
5 '-y, x-y, z'
6 'x, y, z'
7 'x-y+2/3, x+1/3, -z+1/3'
8 'y+2/3, -x+y+1/3, -z+1/3'
9 '-x+2/3, -y+1/3, -z+1/3'
10 '-x+y+2/3, -x+1/3, z+1/3'
11 '-y+2/3, x-y+1/3, z+1/3'
12 'x+2/3, y+1/3, z+1/3'
13 'x-y+1/3, x+2/3, -z+2/3'
14 'y+1/3, -x+y+2/3, -z+2/3'
15 '-x+1/3, -y+2/3, -z+2/3'
16 '-x+y+1/3, -x+2/3, z+2/3'
17 '-y+1/3, x-y+2/3, z+2/3'
18 'x+1/3, y+2/3, z+2/3'
loop_
_atom_type_symbol
_atom_type_oxidation_number
Mn2+ 2
S6+ 6
Na1+ 1
O2- -2
H1+ 1
loop_
_atom_site_label
_atom_site_type_symbol
_atom_site_symmetry_multiplicity
_atom_site_Wyckoff_symbol
_atom_site_fract_x
_atom_site_fract_y
_atom_site_fract_z
_atom_site_B_iso_or_equiv
_atom_site_occupancy
_atom_site_attached_hydrogens
Mn1 Mn2+ 18 f 0.20106(4) 0.31689(4) 0.00125(5) 0.0136(2) 1 0
Mn2 Mn2+ 3 b 0.3333 0.6667 0.1667 0.0114(3) 1 0
S1 S6+ 18 f 0.34395(6) 0.50672(6) 0.06647(8) 0.0115(3) 1 0
S2 S6+ 18 f 0.05904(6) 0.34109(6) 0.89008(8) 0.0120(3) 1 0
S3 S6+ 6 c 0.3333 0.6667 0.7867(3) 0.0612(10) 1 0
Na1 Na1+ 18 f 0.89431(13) 0.24449(13) 0.74498(15) 0.0237(5) 1 0
Na2 Na1+ 18 f 0.20644(14) 0.52970(14) -0.01455(19) 0.0307(5) 1 0
O1 O2- 18 f 0.3429(2) 0.58413(19) 0.0636(2) 0.0157(6) 1 0
O2 O2- 18 f 0.2713(2) 0.4470(2) 0.0116(3) 0.0185(7) 1 0
O3 O2- 18 f 0.3416(2) 0.4814(2) 0.1696(2) 0.0182(7) 1 0
O4 O2- 18 f 0.4174(2) 0.5188(2) 0.0168(3) 0.0186(7) 1 0
O5 O2- 18 f 0.0995(2) 0.2941(2) 0.9128(3) 0.0205(7) 1 0
O6 O2- 18 f -0.0287(2) 0.2865(2) 0.8955(3) 0.0261(8) 1 0
O7 O2- 18 f 0.0776(3) 0.3719(3) 0.7884(3) 0.0299(9) 1 0
O8 O2- 18 f 0.0842(3) 0.4076(2) 0.9592(3) 0.0305(9) 1 0
O9 O2- 18 f 0.2506(5) 0.5873(6) 0.8251(6) 0.095(3) 1 0
O10 O2- 3 a 0.3333 0.6667 0.6667 0.072(4) 1 0
O11 O2- 18 f 0.1385(2) 0.3252(2) 0.1335(3) 0.0205(7) 1 0
O12 O2- 18 f 0.1404(3) 0.1833(2) 0.0296(4) 0.0388(11) 1 0
H1 H1+ 18 f 0.1405 0.3681 0.1472 0.031 1 0
H2 H1+ 18 f 0.0903 0.2912 0.1282 0.031 1 0
H3 H1+ 18 f 0.1514 0.1646 -0.0188 0.057 1 0
H4 H1+ 18 f 0.1762 0.1717 0.0346 0.057 1 0
loop_
_atom_site_aniso_label
_atom_site_aniso_type_symbol
_atom_site_aniso_U_11
_atom_site_aniso_U_22
_atom_site_aniso_U_33
_atom_site_aniso_U_12
_atom_site_aniso_U_13
_atom_site_aniso_U_23
Mn1 Mn2+ 0.0122(3) 0.0141(4) 0.0154(4) 0.0073(3) -0.0005(2) -0.0012(2)
Mn2 Mn2+ 0.0103(5) 0.0103(5) 0.0137(7) 0.0052(2) 0. 0.
S1 S6+ 0.0105(5) 0.0092(5) 0.0151(5) 0.0052(4) -0.0003(4) -0.0008(4)
S2 S6+ 0.0097(5) 0.0140(5) 0.0125(5) 0.0061(4) 0.0004(3) 0.0001(4)
S3 S6+ 0.0569(13) 0.0569(13) 0.070(2) 0.0284(7) 0. 0.
Na1 Na1+ 0.0277(11) 0.0241(10) 0.0199(10) 0.0134(9) -0.0003(8) -0.0003(8)
Na2 Na1+ 0.0271(11) 0.0234(11) 0.0460(14) 0.0159(9) -0.0147(10) -0.0128(10)
O1 O2- 0.0170(15) 0.0119(15) 0.0203(16) 0.0088(13) 0.0001(12) -0.0010(12)
O2 O2- 0.0149(15) 0.0130(15) 0.0243(17) 0.0044(13) -0.0067(13) -0.0024(13)
O3 O2- 0.0212(17) 0.0184(16) 0.0168(16) 0.0113(14) 0.0015(13) 0.0021(12)
O4 O2- 0.0140(15) 0.0210(16) 0.0232(17) 0.0106(13) 0.0029(13) -0.0011(13)
O5 O2- 0.0191(16) 0.0236(18) 0.0249(18) 0.0152(15) -0.0035(14) 0.0010(14)
O6 O2- 0.0119(16) 0.0269(19) 0.033(2) 0.0049(15) 0.0008(14) 0.0086(15)
O7 O2- 0.041(2) 0.044(2) 0.0190(18) 0.032(2) 0.0132(16) 0.0117(16)
O8 O2- 0.030(2) 0.028(2) 0.034(2) 0.0148(17) -0.0062(17) -0.0160(17)
O9 O2- 0.056(4) 0.150(8) 0.069(5) 0.044(5) -0.007(3) -0.017(5)
O10 O2- 0.078(7) 0.078(7) 0.062(10) 0.039(4) 0. 0.
O11 O2- 0.0202(17) 0.0209(17) 0.0205(16) 0.0104(14) 0.0045(13) -0.0015(13)
O12 O2- 0.028(2) 0.0189(19) 0.066(3) 0.0093(17) 0.003(2) 0.0046(19)
#End of TTdata_249877-ICSD