
#(C) 2019 by FIZ Karlsruhe - Leibniz Institute for Information Infrastructure.  All rights reserved.
data_249876-ICSD
_database_code_ICSD 249876
_audit_creation_date 2010-02-01
_chemical_name_systematic 'Disodium diaquahydroxopentaborate'
_chemical_formula_structural 'Na2 B5 O8 (O H) (H2 O)2'
_chemical_formula_sum 'H5 B5 Na2 O11'
_chemical_name_structure_type Na2(H2O)2B5O8OH
_chemical_name_mineral Nasinite
_exptl_crystal_density_diffrn 2.15
_cell_measurement_temperature 153.
_publ_section_title

;
Synthesis, structure, and properties of the noncentrosymmetric hydrated borate
Na2 B5 O8 (O H) * 2 H2 O
;
loop_
_citation_id
_citation_journal_full
_citation_year
_citation_journal_volume
_citation_page_first
_citation_page_last
_citation_journal_id_ASTM
primary 'Inorganic Chemistry' 2009 48 7800 7804 INOCAJ
loop_
_publ_author_name
'Wang Yongjiang'
'Pan Shilie'
'Tian Xuelin'
'Zhou Zhongxiang'
'Liu Gang'
'Wang Jide'
'Jia Dianzeng'
_cell_length_a 11.967(2)
_cell_length_b 6.5320(13)
_cell_length_c 11.126(2)
_cell_angle_alpha 90.
_cell_angle_beta 90.
_cell_angle_gamma 90.
_cell_volume 869.7
_cell_formula_units_Z 4
_symmetry_space_group_name_H-M 'P n a 21'
_symmetry_Int_Tables_number 33
_refine_ls_R_factor_all 0.0183
loop_
_symmetry_equiv_pos_site_id
_symmetry_equiv_pos_as_xyz
1 'x+1/2, -y+1/2, z'
2 '-x+1/2, y+1/2, z+1/2'
3 '-x, -y, z+1/2'
4 'x, y, z'
loop_
_atom_type_symbol
_atom_type_oxidation_number
Na1+ 1
O2- -2
B3+ 3
H1+ 1
loop_
_atom_site_label
_atom_site_type_symbol
_atom_site_symmetry_multiplicity
_atom_site_Wyckoff_symbol
_atom_site_fract_x
_atom_site_fract_y
_atom_site_fract_z
_atom_site_B_iso_or_equiv
_atom_site_occupancy
_atom_site_attached_hydrogens
Na1 Na1+ 4 a 0.52611(4) 0.85352(8) 0.81498(5) 0.01532(12) 1 0
Na2 Na1+ 4 a 0.24809(4) 0.97229(7) 0.63871(5) 0.01330(12) 1 0
O1 O2- 4 a 0.32776(6) 0.92899(11) 0.86527(7) 0.00682(16) 1 0
O2 O2- 4 a 0.26361(6) 1.26725(12) 0.82724(7) 0.00616(16) 1 0
O3 O2- 4 a 0.46062(6) 1.20222(12) 0.86090(8) 0.00801(16) 1 0
O4 O2- 4 a 0.42829(8) 0.83486(14) 0.61422(10) 0.01650(19) 1 0
O5 O2- 4 a 0.23330(7) 1.09130(12) 0.42466(8) 0.00797(16) 1 0
O6 O2- 4 a 0.16558(7) 0.68237(12) 0.52661(7) 0.00811(17) 1 0
O7 O2- 4 a 0.58756(7) 0.42367(14) 0.75766(10) 0.0174(2) 1 0
O8 O2- 4 a 0.23899(7) 1.34830(12) 0.56322(8) 0.00948(18) 1 0
O9 O2- 4 a 0.52414(10) 0.6952(2) 1.00743(11) 0.0298(3) 1 0
O10 O2- 4 a 0.40053(6) 0.51468(11) 0.76622(8) 0.00806(17) 1 0
O11 O2- 4 a 0.70622(6) 0.91917(12) 0.72362(7) 0.00708(16) 1 0
B1 B3+ 4 a 0.21348(10) 1.29160(18) 0.44486(11) 0.0065(2) 1 0
B2 B3+ 4 a 0.28385(10) 1.48363(17) 0.81024(12) 0.0056(2) 1 0
B3 B3+ 4 a 0.34353(9) 1.14936(18) 0.89529(12) 0.0063(2) 1 0
B4 B3+ 4 a 0.48187(11) 0.37710(18) 0.79758(11) 0.0081(2) 1 0
B5 B3+ 4 a 0.20321(9) 0.53850(18) 0.60409(11) 0.0060(2) 1 0
H1 H1+ 4 a 0.640(2) 0.351(4) 0.786(2) 0.038(6) 1 0
H2 H1+ 4 a 0.4181(16) 0.720(3) 0.650(2) 0.028(5) 1 0
H3 H1+ 4 a 0.466(2) 0.827(3) 0.551(3) 0.037(6) 1 0
H4 H1+ 4 a 0.587(3) 0.670(4) 1.044(4) 0.089(11) 1 0
H5 H1+ 4 a 0.473(2) 0.645(4) 1.059(3) 0.058(8) 1 0
loop_
_atom_site_aniso_label
_atom_site_aniso_type_symbol
_atom_site_aniso_U_11
_atom_site_aniso_U_22
_atom_site_aniso_U_33
_atom_site_aniso_U_12
_atom_site_aniso_U_13
_atom_site_aniso_U_23
Na1 Na1+ 0.0133(2) 0.0150(2) 0.0177(3) 0.00144(18) 0.00484(19) 0.00286(19)
Na2 Na1+ 0.0141(2) 0.0117(2) 0.0141(2) 0.00128(17) 0.00147(18) -0.00025(19)
O1 O2- 0.0105(3) 0.0044(3) 0.0056(4) -0.0004(3) 0.0010(3) -0.0008(3)
O2 O2- 0.0062(3) 0.0047(3) 0.0076(4) -0.0004(3) -0.0006(3) -0.0004(3)
O3 O2- 0.0061(3) 0.0071(3) 0.0108(4) 0.0005(3) 0.0009(3) 0.0020(3)
O4 O2- 0.0154(4) 0.0151(4) 0.0190(5) 0.0016(3) 0.0063(4) 0.0061(4)
O5 O2- 0.0128(3) 0.0055(3) 0.0057(4) 0.0013(3) -0.0010(3) 0.0000(3)
O6 O2- 0.0127(4) 0.0061(3) 0.0055(4) 0.0019(3) -0.0002(3) -0.0007(3)
O7 O2- 0.0065(4) 0.0181(4) 0.0278(5) 0.0022(3) 0.0020(3) 0.0154(4)
O8 O2- 0.0156(4) 0.0070(4) 0.0058(4) 0.0043(3) -0.0027(3) -0.0022(3)
O9 O2- 0.0154(5) 0.0509(7) 0.0230(6) -0.0023(4) -0.0020(4) 0.0160(5)
O10 O2- 0.0067(3) 0.0071(3) 0.0104(4) 0.0004(3) 0.0015(3) 0.0026(3)
O11 O2- 0.0083(3) 0.0066(4) 0.0063(4) -0.0015(3) -0.0005(3) 0.0010(3)
B1 B3+ 0.0062(5) 0.0066(5) 0.0067(6) -0.0003(4) 0.0009(4) -0.0012(4)
B2 B3+ 0.0062(5) 0.0047(4) 0.0060(5) -0.0005(4) 0.0001(4) -0.0004(4)
B3 B3+ 0.0075(5) 0.0054(5) 0.0059(5) -0.0008(4) -0.0004(4) 0.0005(4)
B4 B3+ 0.0084(5) 0.0087(5) 0.0072(6) -0.0003(4) 0.0001(4) 0.0007(4)
B5 B3+ 0.0042(4) 0.0056(5) 0.0081(5) -0.0002(4) 0.0007(4) -0.0004(4)
#End of TTdata_249876-ICSD