
#(C) 2019 by FIZ Karlsruhe - Leibniz Institute for Information Infrastructure.  All rights reserved.
data_250032-ICSD
_database_code_ICSD 250032
_audit_creation_date 2003-10-01
_chemical_name_systematic 'Disodium trialuminium dihydroxide tris(phosphate(V))'
_chemical_formula_structural 'Na2 Al3 (O H)2 (P O4)3'
_chemical_formula_sum 'H2 Al3 Na2 O14 P3'
_exptl_crystal_density_diffrn 2.88
_publ_section_title

;
Crystal structure of a new microporous alumophosphate Na2 [Al3 (O H)2 (P O4)3]
;
loop_
_citation_id
_citation_journal_full
_citation_year
_citation_journal_volume
_citation_page_first
_citation_page_last
_citation_journal_id_ASTM
primary 'Doklady Akademii Nauk' 2003 390 39 45 DAKNEQ
loop_
_publ_author_name
'Yakubovich, O.V.'
'Dimitrova, O.V.'
'Urusov, V.S.'
_cell_length_a 8.475(2)
_cell_length_b 8.471(2)
_cell_length_c 14.319(3)
_cell_angle_alpha 90
_cell_angle_beta 90
_cell_angle_gamma 90
_cell_volume 1027.99
_cell_formula_units_Z 4
_symmetry_space_group_name_H-M 'P 21 21 21'
_symmetry_Int_Tables_number 19
_refine_ls_R_factor_all 0.046
loop_
_symmetry_equiv_pos_site_id
_symmetry_equiv_pos_as_xyz
1 '-x, y+1/2, -z+1/2'
2 'x+1/2, -y+1/2, -z'
3 '-x+1/2, -y, z+1/2'
4 'x, y, z'
loop_
_atom_type_symbol
_atom_type_oxidation_number
Al3+ 3
P5+ 5
Na1+ 1
O2- -2
H1+ 1
loop_
_atom_site_label
_atom_site_type_symbol
_atom_site_symmetry_multiplicity
_atom_site_Wyckoff_symbol
_atom_site_fract_x
_atom_site_fract_y
_atom_site_fract_z
_atom_site_B_iso_or_equiv
_atom_site_occupancy
_atom_site_attached_hydrogens
Al1 Al3+ 4 a 0.6540(2) 0.6181(2) 0.0418(2) 0.0072(3) 1. 0
Al2 Al3+ 4 a 0.8631(2) 0.3832(3) 0.1994(1) 0.0078(3) 1. 0
Al3 Al3+ 4 a 0.3923(2) 0.1099(2) 0.1134(1) 0.0080(3) 1. 0
P1 P5+ 4 a 0.5369(2) 0.2837(2) 0.2924(1) 0.0070(2) 1. 0
P2 P5+ 4 a 0.9712(2) 0.7247(2) 0.1280(1) 0.0067(2) 1. 0
P3 P5+ 4 a 0.0508(2) 0.2021(2) 0.0459(1) 0.0073(2) 1. 0
Na1 Na1+ 4 a 0.7603(4) 0.9798(4) -0.0365(3) 0.0374(9) 1. 0
Na2 Na1+ 4 a 0.2205(4) 0.5008(4) 0.2890(3) 0.0402(10) 1. 0
O1 O2- 4 a 0.5150(6) 0.1813(6) 0.3796(3) 0.0109(9) 1. 0
O2 O2- 4 a 0.0167(6) 0.0359(5) 0.0097(3) 0.0086(8) 1. 0
O3 O2- 4 a 0.7035(5) 0.4725(5) 0.1353(3) 0.0141(9) 1. 0
O4 O2- 4 a 0.3131(5) 0.9488(5) 0.0408(4) 0.0099(7) 1. 0
O5 O2- 4 a 0.8023(6) 0.7628(6) 0.0940(3) 0.0107(8) 1. 0
O6 O2- 4 a 0.9233(6) 0.2333(6) 0.1197(3) 0.0102(9) 1. 0
O7 O2- 4 a 0.0081(6) 0.8526(6) 0.2014(3) 0.0109(9) 1. 0
O8 O2- 4 a 0.5868(5) 0.7713(6) -0.0460(3) 0.0087(8) 1. 0
O9 O2- 4 a 0.9869(6) 0.5599(6) 0.1716(3) 0.0103(9) 1. 0
O10 O2- 4 a 0.2917(6) 0.7613(6) 0.2395(3) 0.0108(9) 1. 0
O11 O2- 4 a 0.4231(6) 0.2479(6) 0.2125(3) 0.0114(9) 1. 0
O12 O2- 4 a 0.5032(6) 0.4589(5) 0.3176(3) 0.0101(8) 1. 0
O13 O2- 4 a 0.2143(6) 0.2233(6) 0.0892(4) 0.0128(9) 1. 0
O14 O2- 4 a 0.0423(6) 0.3243(6) -0.0339(3) 0.0120(9) 1. 0
H1 H1+ 4 a 0.63(1) 0.44(1) 0.137(8) 0.05(3) 1. 0
H2 H1+ 4 a 0.36(1) 0.88(1) 0.043(8) 0.04(3) 1. 0
loop_
_atom_site_aniso_label
_atom_site_aniso_type_symbol
_atom_site_aniso_U_11
_atom_site_aniso_U_22
_atom_site_aniso_U_33
_atom_site_aniso_U_12
_atom_site_aniso_U_13
_atom_site_aniso_U_23
Al1 Al3+ 0.0090(8) 0.0053(7) 0.0073(6) 0.0002(6) 0.0009(7) -0.0001(7)
Al2 Al3+ 0.0089(9) 0.0077(8) 0.0070(7) 0.0010(6) 0.0001(6) 0.0005(7)
Al3 Al3+ 0.0075(7) 0.0083(8) 0.0060(7) -0.0003(6) 0.0005(6) -0.0006(7)
P1 P5+ 0.0084(7) 0.0067(7) 0.0058(4) 0.0005(5) 0.0009(5) 0.0002(5)
P2 P5+ 0.0060(7) 0.0067(7) 0.0075(5) -0.0003(4) -0.0005(5) 0.0001(5)
P3 P5+ 0.0079(6) 0.0061(7) 0.0079(5) 0.0008(5) -0.0006(5) -0.0018(6)
Na1 Na1+ 0.019(1) 0.021(2) 0.073(2) -0.005(1) -0.011(2) 0.002(2)
Na2 Na1+ 0.017(2) 0.024(2) 0.080(3) -0.006(1) -0.009(2) 0.023(2)
O1 O2- 0.012(2) 0.010(2) 0.011(2) -0.003(2) 0.001(2) 0.003(2)
O2 O2- 0.011(2) 0.007(2) 0.008(2) -0.003(2) 0.003(2) -0.002(2)
O3 O2- 0.010(2) 0.013(2) 0.019(2) -0.003(2) -0.006(2) 0.010(2)
O4 O2- 0.012(2) 0.008(2) 0.010(2) 0.001(2) -0.005(2) 0.001(2)
O5 O2- 0.009(2) 0.009(2) 0.014(2) 0.002(2) -0.001(2) 0.001(2)
O6 O2- 0.013(2) 0.012(2) 0.006(2) -0.003(2) 0.001(2) -0.004(2)
O7 O2- 0.011(2) 0.007(2) 0.014(2) -0.000(2) -0.003(2) 0.000(2)
O8 O2- 0.009(2) 0.012(2) 0.005(2) -0.001(2) -0.002(2) 0.003(2)
O9 O2- 0.012(2) 0.007(2) 0.012(2) -0.001(2) -0.003(2) 0.003(1)
O10 O2- 0.007(2) 0.010(2) 0.015(2) 0.003(2) 0.003(2) -0.002(2)
O11 O2- 0.013(2) 0.010(2) 0.011(2) -0.001(2) -0.003(2) -0.005(2)
O12 O2- 0.009(2) 0.007(2) 0.014(2) 0.003(2) -0.002(2) -0.000(2)
O13 O2- 0.006(2) 0.013(2) 0.019(2) 0.003(2) -0.002(2) -0.003(2)
O14 O2- 0.009(2) 0.011(2) 0.016(2) -0.003(2) -0.000(2) 0.008(2)
#End of TTdata_250032-ICSD