
#(C) 2019 by FIZ Karlsruhe - Leibniz Institute for Information Infrastructure.  All rights reserved.
data_250074-ICSD
_database_code_ICSD 250074
_audit_creation_date 2004-04-01
_chemical_name_systematic 'Sodium trigallium bis(phosphate(V)) tetrahydroxide'
_chemical_formula_structural 'Na Ga3 (P O4)2 (O H)4'
_chemical_formula_sum 'H4 Ga3 Na1 O12 P2'
_chemical_name_mineral 'Brazilianite (Ga-exchanged)'
_exptl_crystal_density_diffrn 3.8
_publ_section_title

;
Gallium analogue of brazilianite Na Ga3 (P O4)2 (O H)4: synthesis and crystal
structure
;
loop_
_citation_id
_citation_journal_full
_citation_year
_citation_journal_volume
_citation_page_first
_citation_page_last
_citation_journal_id_ASTM
primary 'Zhurnal Neorganicheskoi Khimii' 2003 48 720 723 ZNOKAQ
loop_
_publ_author_name
'Ruchkina, E.A.'
'Belokoneva, E.L.'
'Dimitrova, O.V.'
_cell_length_a 11.506(8)
_cell_length_b 7.270(3)
_cell_length_c 10.320(8)
_cell_angle_alpha 90
_cell_angle_beta 90
_cell_angle_gamma 97.64(5)
_cell_volume 855.59
_cell_formula_units_Z 4
_symmetry_space_group_name_H-M 'P 1 1 21/n'
_symmetry_Int_Tables_number 14
_refine_ls_R_factor_all 0.0484
loop_
_symmetry_equiv_pos_site_id
_symmetry_equiv_pos_as_xyz
1 'x+1/2, y+1/2, -z+1/2'
2 '-x, -y, -z'
3 '-x+1/2, -y+1/2, z+1/2'
4 'x, y, z'
loop_
_atom_type_symbol
_atom_type_oxidation_number
Ga3+ 3
Na1+ 1
P5+ 5
O2- -2
H1+ 1
loop_
_atom_site_label
_atom_site_type_symbol
_atom_site_symmetry_multiplicity
_atom_site_Wyckoff_symbol
_atom_site_fract_x
_atom_site_fract_y
_atom_site_fract_z
_atom_site_B_iso_or_equiv
_atom_site_occupancy
_atom_site_attached_hydrogens
Ga1 Ga3+ 4 e 0.0397(1) 0.5567(2) 0.2187(1) 0.71(3) 1. 0
Ga2 Ga3+ 4 e 0.2641(1) 0.5100(2) 0.0620(2) 0.60(3) 1. 0
Ga3 Ga3+ 4 e 0.4596(1) 0.4368(2) 0.2564(1) 0.64(3) 1. 0
Na1 Na1+ 4 e 0.3057(7) 0.0401(9) 0.0746(7) 2.50(2) 1. 0
P1 P5+ 4 e 0.1806(3) 0.2390(5) 0.3092(4) 0.65(8) 1. 0
P2 P5+ 4 e 0.3089(3) 0.7541(5) 0.3255(4) 0.51(7) 1. 0
O1 O2- 4 e 0.1019(7) 0.4501(12) 0.0716(9) 0.60(2) 1. 0
O2 O2- 4 e 0.4272(8) 0.5626(12) 0.0957(10) 0.80(2) 1. 0
O3 O2- 4 e 0.0037(8) 0.7223(13) 0.3517(9) 0.90(2) 1. 0
O4 O2- 4 e 0.4950(8) 0.2741(12) 0.3923(10) 0.80(2) 1. 0
O5 O2- 4 e 0.1181(8) 0.0692(13) 0.2383(10) 0.90(2) 1. 0
O6 O2- 4 e 0.2866(8) 0.3177(12) 0.2218(9) 0.70(2) 1. 0
O7 O2- 4 e 0.2280(8) 0.6844(12) 0.2122(9) 0.70(2) 1. 0
O8 O2- 4 e 0.3832(8) 0.9355(12) 0.2800(9) 0.80(2) 1. 0
O9 O2- 4 e 0.1009(8) 0.3869(12) 0.3369(9) 0.70(2) 1. 0
O10 O2- 4 e 0.3906(9) 0.6115(11) 0.3665(8) 0.80(2) 1. 0
O11 O2- 4 e 0.2267(8) 0.1899(12) 0.4408(9) 1.00(2) 1. 0
O12 O2- 4 e 0.2310(8) 0.7838(12) 0.4424(9) 0.90(2) 1. 0
H1 H1+ 4 e 0.432 0.139 0.519 1.50(5) 1. 0
H2 H1+ 4 e 0.954 0.168 0.431 1.50(5) 1. 0
H3 H1+ 4 e 0.579 0.25 0.071 1.50(5) 1. 0
H4 H1+ 4 e 0.945 0.195 0.94 1.50(5) 1. 0
#End of TTdata_250074-ICSD