
#(C) 2019 by FIZ Karlsruhe - Leibniz Institute for Information Infrastructure.  All rights reserved.
data_250049-ICSD
_database_code_ICSD 250049
_audit_creation_date 2003-10-01
_audit_update_record 2014-02-01
_chemical_name_systematic
'Sodium gadolinium ytterbium tungstate (0.24/0.59/0.17/0.98)'
_chemical_formula_structural '(Na0.24 Gd0.59 Yb0.17) (W O4)0.98'
_chemical_formula_sum 'Gd0.59 Na0.24 O3.92 W0.98 Yb0.17'
_chemical_name_structure_type Scheelite-CaWO4
_exptl_crystal_density_diffrn 7.96
_publ_section_title

;
X-ray diffraction study of the structure and defect system of Yb-activated
(Na0.5 Gd0.5) W O4 crystals
;
loop_
_citation_id
_citation_journal_full
_citation_year
_citation_journal_volume
_citation_page_first
_citation_page_last
_citation_journal_id_ASTM
primary 'Neorganicheskie Materialy' 2003 39 200 211 NMATEI
loop_
_publ_author_name
'Zharikov, E.V.'
'Kuz'micheva, G.M. (Kuzmicheva, G.M.)'
'Lis, D.A.'
'Papin, Yu.M.'
'Rybakov, V.B.'
'Smirnov, B.A.'
'Subbotin, K.A.'
_cell_length_a 5.225(2)
_cell_length_b 5.225(2)
_cell_length_c 11.331(6)
_cell_angle_alpha 90
_cell_angle_beta 90
_cell_angle_gamma 90
_cell_volume 309.34
_cell_formula_units_Z 4
_symmetry_space_group_name_H-M 'I 41/a Z'
_symmetry_Int_Tables_number 88
_refine_ls_R_factor_all 0.0332
loop_
_symmetry_equiv_pos_site_id
_symmetry_equiv_pos_as_xyz
1 '-y+3/4, x+3/4, -z+3/4'
2 'y+1/4, -x+3/4, -z+3/4'
3 'x, y+1/2, -z'
4 '-x, -y, -z'
5 'y+1/4, -x+1/4, z+1/4'
6 '-y+3/4, x+1/4, z+1/4'
7 '-x, -y+1/2, z'
8 'x, y, z'
9 '-y+1/4, x+1/4, -z+1/4'
10 'y+3/4, -x+1/4, -z+1/4'
11 'x+1/2, y, -z+1/2'
12 '-x+1/2, -y+1/2, -z+1/2'
13 'y+3/4, -x+3/4, z+3/4'
14 '-y+1/4, x+3/4, z+3/4'
15 '-x+1/2, -y, z+1/2'
16 'x+1/2, y+1/2, z+1/2'
loop_
_atom_type_symbol
_atom_type_oxidation_number
Na1+ 1
Gd3+ 3
Yb3+ 3
W5+ 5.429
O2- -2
loop_
_atom_site_label
_atom_site_type_symbol
_atom_site_symmetry_multiplicity
_atom_site_Wyckoff_symbol
_atom_site_fract_x
_atom_site_fract_y
_atom_site_fract_z
_atom_site_B_iso_or_equiv
_atom_site_occupancy
_atom_site_attached_hydrogens
Na1 Na1+ 4 a 0. 0.75 0.875 0.0023(7) 0.24 0
Gd1 Gd3+ 4 a 0. 0.75 0.875 0.0023(7) 0.592 0
Yb1 Yb3+ 4 a 0. 0.75 0.875 0.0035(6) 0.168(2) 0
W1 W5+ 4 b 0.5 0.75 0.125 0.0028(5) 0.980(5) 0
O1 O2- 16 f 0.740(2) 0.593(2) 0.0361(9) 0.036(4) 0.980(5) 0
loop_
_atom_site_aniso_label
_atom_site_aniso_type_symbol
_atom_site_aniso_U_11
_atom_site_aniso_U_22
_atom_site_aniso_U_33
_atom_site_aniso_U_12
_atom_site_aniso_U_13
_atom_site_aniso_U_23
Na1 Na1+ 0.0035(6) 0.0035(6) 0.0010(2) 0 0 0
Gd1 Gd3+ 0.0035(6) 0.0035(6) 0.0010(2) 0 0 0
W1 W5+ 0.0015(4) 0.0015(4) 0.0053(1) 0 0 0
O1 O2- 0.033(6) 0.022(6) 0.054(6) -0.00007(4) 0.0027(4) -0.026(5)
#End of TTdata_250049-ICSD