
#(C) 2019 by FIZ Karlsruhe - Leibniz Institute for Information Infrastructure.  All rights reserved.
data_250242-ICSD
_database_code_ICSD 250242
_audit_creation_date 2005-04-01
_audit_update_record 2008-08-01
_chemical_name_systematic 'Heptasodium tris(sulfate(VI)) trifluorostannate'
_chemical_formula_structural 'Na7 (S O4)3 (Sn F3)'
_chemical_formula_sum 'F3 Na7 O12 S3 Sn1'
_chemical_name_structure_type Na3(CaSrLa)(CO3)5
_exptl_crystal_density_diffrn 3.03
_publ_section_title

;
Synthesis and structure of Na7 (S O4)3 Sn F3: complex anion (Sn F3)- in a
cationic sodium-sulfate framework
;
loop_
_citation_id
_citation_journal_full
_citation_year
_citation_journal_volume
_citation_page_first
_citation_page_last
_citation_journal_id_ASTM
primary 'Zhurnal Neorganicheskoi Khimii' 2004 49 1459 1462 ZNOKAQ
loop_
_publ_author_name
'Gorbunova, Yu.E.'
'Detkov, D.G.'
'Kokunov, Yu.V.'
_cell_length_a 10.821(4)
_cell_length_b 10.821(4)
_cell_length_c 6.753(2)
_cell_angle_alpha 90
_cell_angle_beta 90
_cell_angle_gamma 120
_cell_volume 684.8
_cell_formula_units_Z 2
_symmetry_space_group_name_H-M 'P 63 m c'
_symmetry_Int_Tables_number 186
_refine_ls_R_factor_all 0.0435
loop_
_symmetry_equiv_pos_site_id
_symmetry_equiv_pos_as_xyz
1 '-x, -x+y, z+1/2'
2 'x-y, -y, z+1/2'
3 'y, x, z+1/2'
4 'x-y, x, z+1/2'
5 'y, -x+y, z+1/2'
6 '-x, -y, z+1/2'
7 'x, x-y, z'
8 '-x+y, y, z'
9 '-y, -x, z'
10 '-x+y, -x, z'
11 '-y, x-y, z'
12 'x, y, z'
loop_
_atom_type_symbol
_atom_type_oxidation_number
Sn2+ 2
S6+ 6
Na1+ 1
F1- -1
O2- -2
loop_
_atom_site_label
_atom_site_type_symbol
_atom_site_symmetry_multiplicity
_atom_site_Wyckoff_symbol
_atom_site_fract_x
_atom_site_fract_y
_atom_site_fract_z
_atom_site_B_iso_or_equiv
_atom_site_occupancy
_atom_site_attached_hydrogens
Sn1 Sn2+ 2 b 0.3333 0.6667 0.2453(6) 1.50(6) 1. 0
S1 S6+ 6 c 0.170(1) 0.340(2) 0.5000(6) 1.0(1) 1. 0
Na1 Na1+ 2 a 0 0 0.790(2) 0.9(3) 1. 0
Na2 Na1+ 6 c 0.4706(4) 0.9412(8) -0.268(2) 1.8(2) 1. 0
Na3 Na1+ 6 c 0.1741(8) 0.3482(16) 0.011(1) 1.8(2) 1. 0
F1 F1- 6 c 0.4201(7) 0.8402(14) 0.051(2) 4.2(4) 1. 0
O1 O2- 6 c 0.2139(8) 0.4278(16) 0.669(2) 2.3(3) 1. 0
O2 O2- 12 d 0.291(2) 0.371(1) 0.386(3) 7.3(6) 1. 0
O3 O2- 6 c 0.094(1) 0.188(2) 0.549(3) 3.9(5) 1. 0
#End of TTdata_250242-ICSD