
#(C) 2018 by FIZ Karlsruhe - Leibniz Institute for Information Infrastructure.  All rights reserved.
data_250297-ICSD
_database_code_ICSD 250297
_audit_creation_date 2006-10-01
_chemical_name_systematic 'Dilithium titanium germanate oxide'
_chemical_formula_structural 'Li2 Ti (Ge O4) O'
_chemical_formula_sum 'Ge1 Li2 O5 Ti1'
_chemical_name_structure_type Li2TiSiO5
_exptl_crystal_density_diffrn 3.67
_publ_section_title

;
Growing, structure and electro-physical properties of A2 Ti Ge O5 (A= Li, Na)
single crystals
;
loop_
_citation_id
_citation_journal_full
_citation_year
_citation_journal_volume
_citation_page_first
_citation_page_last
_citation_journal_id_ASTM
primary 'Koordinatsionnaya Khimiya' 2001 27 34 41 KOKHDC
loop_
_publ_author_name
'Kireev, V.V.'
'Yakubovich, O.V.'
'Ivanov Shits, A.K.'
'Mel'nikov, O.K. (Melnikov, O.K.)'
'Dem'yanets, L.N. (Demyanets, L.N.)'
'Skunman J.'
'Chaban, N.G.'
_cell_length_a 6.614(4)
_cell_length_b 6.614(4)
_cell_length_c 4.435(4)
_cell_angle_alpha 90.
_cell_angle_beta 90.
_cell_angle_gamma 90.
_cell_volume 194.01
_cell_formula_units_Z 2
_symmetry_space_group_name_H-M 'P 4/n m m Z'
_symmetry_Int_Tables_number 129
_refine_ls_R_factor_all 0.031
loop_
_symmetry_equiv_pos_site_id
_symmetry_equiv_pos_as_xyz
1 'y+1/2, x+1/2, -z'
2 '-y, x+1/2, -z'
3 'y+1/2, -x, -z'
4 '-y, -x, -z'
5 'x+1/2, y+1/2, -z'
6 '-x, y+1/2, -z'
7 'x+1/2, -y, -z'
8 '-x, -y, -z'
9 '-y+1/2, -x+1/2, z'
10 'y, -x+1/2, z'
11 '-y+1/2, x, z'
12 'y, x, z'
13 '-x+1/2, -y+1/2, z'
14 'x, -y+1/2, z'
15 '-x+1/2, y, z'
16 'x, y, z'
loop_
_atom_type_symbol
_atom_type_oxidation_number
Ti4+ 4
Ge4+ 4
Li1+ 1
O2- -2
loop_
_atom_site_label
_atom_site_type_symbol
_atom_site_symmetry_multiplicity
_atom_site_Wyckoff_symbol
_atom_site_fract_x
_atom_site_fract_y
_atom_site_fract_z
_atom_site_B_iso_or_equiv
_atom_site_occupancy
_atom_site_attached_hydrogens
Ti1 Ti4+ 2 c 0.25 0.25 0.1086(1) 0.00292(8) 1 0
Ge1 Ge4+ 2 a 0.25 0.75 0 0.00247(7) 1 0
Li1 Li1+ 4 e 0.5 0 0.5 0.0203(14) 1 0
O1 O2- 8 i 0.25 -0.0365(1) 0.2328(2) 0.0055(1) 1 0
O2 O2- 2 c 0.25 0.25 0.7264(6) 0.0153(4) 1 0
#End of TTdata_250297-ICSD