
#(C) 2017 by FIZ Karlsruhe - Leibniz Institute for Information Infrastructure.  All rights reserved.
data_25022-ICSD
_database_code_ICSD 25022
_audit_creation_date 1986-10-02
_audit_update_record 2012-08-01
_chemical_name_systematic 'Lithium calcium hexafluoroaluminate'
_chemical_formula_structural 'Li Ca (Al F6)'
_chemical_formula_sum 'Al1 Ca1 F6 Li1'
_chemical_name_structure_type CaLiAlF6
_chemical_name_mineral Colquiriite
_exptl_crystal_density_diffrn 3.
_publ_section_title

;
Untersuchungen an quaternaeren Fluoriden Li MeII MeIII F6 Die Struktur von Li
Ca Al F6
;
loop_
_citation_id
_citation_journal_full
_citation_year
_citation_journal_volume
_citation_page_first
_citation_page_last
_citation_journal_id_ASTM
primary 'Zeitschrift fuer Anorganische und Allgemeine Chemie (1950) (DE)' 1971
386 335 339 ZAACAB
loop_
_publ_author_name
'Viebahn, W.'
_cell_length_a 4.996
_cell_length_b 4.996
_cell_length_c 9.636
_cell_angle_alpha 90.
_cell_angle_beta 90.
_cell_angle_gamma 120.
_cell_volume 208.29
_cell_formula_units_Z 2
_symmetry_space_group_name_H-M 'P -3 1 c'
_symmetry_Int_Tables_number 163
_refine_ls_R_factor_all 0.073
loop_
_symmetry_equiv_pos_site_id
_symmetry_equiv_pos_as_xyz
1 '-x+y, y, -z+1/2'
2 'x, x-y, -z+1/2'
3 '-y, -x, -z+1/2'
4 'x-y, x, -z'
5 'y, -x+y, -z'
6 '-x, -y, -z'
7 'x-y, -y, z+1/2'
8 '-x, -x+y, z+1/2'
9 'y, x, z+1/2'
10 '-x+y, -x, z'
11 '-y, x-y, z'
12 'x, y, z'
loop_
_atom_type_symbol
_atom_type_oxidation_number
Ca2+ 2
Li1+ 1
Al3+ 3
F1- -1
loop_
_atom_site_label
_atom_site_type_symbol
_atom_site_symmetry_multiplicity
_atom_site_Wyckoff_symbol
_atom_site_fract_x
_atom_site_fract_y
_atom_site_fract_z
_atom_site_B_iso_or_equiv
_atom_site_occupancy
_atom_site_attached_hydrogens
Ca1 Ca2+ 2 b 0 0 0 0.397 1. 0
Li1 Li1+ 2 c 0.3333 0.6667 0.25 1. 1. 0
Al1 Al3+ 2 d 0.6667 0.3333 0.25 0.711 1. 0
F1 F1- 12 i 0.3755(7) 0.0319(8) 0.1438(3) 1.175 1. 0
#End of TTdata_25022-ICSD