
#(C) 2019 by FIZ Karlsruhe - Leibniz Institute for Information Infrastructure.  All rights reserved.
data_250358-ICSD
_database_code_ICSD 250358
_audit_creation_date 2007-04-01
_chemical_name_systematic 'Sodium vanadium molybdenum oxide (0.98/0.98/1.02/6)'
_chemical_formula_structural 'Na0.98 V0.98 Mo1.02 O6'
_chemical_formula_sum 'Mo1.02 Na0.98 O6 V0.98'
_exptl_crystal_density_diffrn 3.79
_publ_section_title
'Crystal structures of Na0.98 V0.98 Mo1.02 O6 and Na0.68 V0.68 Mo1.32 O6'
loop_
_citation_id
_citation_journal_full
_citation_year
_citation_journal_volume
_citation_page_first
_citation_page_last
_citation_journal_id_ASTM
primary 'Zhurnal Neorganicheskoi Khimii' 2005 50 1473 1476 ZNOKAQ
loop_
_publ_author_name
'Alekseev, E.V.'
'Suleimanov, E.V.'
'Chuprunov, E.V.'
'Serezhkin, V.N.'
'Fukin, G.K.'
_cell_length_a 9.434(2)
_cell_length_b 3.6591(6)
_cell_length_c 7.231(1)
_cell_angle_alpha 90
_cell_angle_beta 110.938(3)
_cell_angle_gamma 90
_cell_volume 233.13
_cell_formula_units_Z 2
_symmetry_space_group_name_H-M 'C 1 2 1'
_symmetry_Int_Tables_number 5
_refine_ls_R_factor_all 0.0171
loop_
_symmetry_equiv_pos_site_id
_symmetry_equiv_pos_as_xyz
1 '-x, y, -z'
2 'x, y, z'
3 '-x+1/2, y+1/2, -z'
4 'x+1/2, y+1/2, z'
loop_
_atom_type_symbol
_atom_type_oxidation_number
Mo6+ 6
V5+ 5
Na1+ 1
O2- -2
loop_
_atom_site_label
_atom_site_type_symbol
_atom_site_symmetry_multiplicity
_atom_site_Wyckoff_symbol
_atom_site_fract_x
_atom_site_fract_y
_atom_site_fract_z
_atom_site_B_iso_or_equiv
_atom_site_occupancy
_atom_site_attached_hydrogens
Mo1 Mo6+ 4 c 0.18431(2) -0.0035(6) 0.63986(3) 0.00760(6) 0.51(1) 0
V1 V5+ 4 c 0.18540(7) 0.002(2) 0.63856(9) 0.0170(2) 0.49(1) 0
Na1 Na1+ 2 a 0 0.006(1) 0 0.0351(3) 0.98(1) 0
O1 O2- 4 c 0.3226(1) 0.007(2) 0.8604(1) 0.0204(3) 1 0
O2 O2- 4 c 0.1924(1) -0.506(1) 0.5602(2) 0.0140(2) 1 0
O3 O2- 4 c 0.0231(1) -0.0183(8) 0.6902(2) 0.0215(3) 1 0
#End of TTdata_250358-ICSD