
#(C) 2019 by FIZ Karlsruhe - Leibniz Institute for Information Infrastructure.  All rights reserved.
data_250526-ICSD
_database_code_ICSD 250526
_audit_creation_date 2014-08-01
_chemical_name_systematic 'Trisodium cobalt triphosphate dodecahydrate'
_chemical_formula_structural 'Na3 Co P3 O10 (H2 O)12'
_chemical_formula_sum 'H24 Co1 Na3 O22 P3'
_chemical_name_structure_type CdNa3P3O10(H2O)12
_exptl_crystal_density_diffrn 1.96
_cell_measurement_temperature 120.
_publ_section_title
'Na3 M P3 O10 * 12 H2 O (M = Co, Ni): crystal structure and IR spectra'
loop_
_citation_id
_citation_journal_full
_citation_year
_citation_journal_volume
_citation_page_first
_citation_page_last
_citation_journal_id_ASTM
primary 'International Journal of Inorganic Chemistry' 2012 2012 702471-1
702471-6 IJICBU
loop_
_publ_author_name
'Azzaoui, Khalil'
'Essehli, Rachid'
'El Miloud, Mejdoubi'
'El Bali, Brahim'
'Dusek, Michal'
'Fejfarova, Karla'
_cell_length_a 15.0263(3)
_cell_length_b 9.1972(2)
_cell_length_c 14.6654(3)
_cell_angle_alpha 90
_cell_angle_beta 90.0492(16)
_cell_angle_gamma 90
_cell_volume 2026.75
_cell_formula_units_Z 4
_symmetry_space_group_name_H-M 'P 1 21/n 1'
_symmetry_Int_Tables_number 14
_refine_ls_R_factor_all 0.0261
loop_
_symmetry_equiv_pos_site_id
_symmetry_equiv_pos_as_xyz
1 '-x+1/2, y+1/2, -z+1/2'
2 '-x, -y, -z'
3 'x+1/2, -y+1/2, z+1/2'
4 'x, y, z'
loop_
_atom_type_symbol
_atom_type_oxidation_number
Co2+ 2
P5+ 5
Na1+ 1
O2- -2
H1+ 1
loop_
_atom_site_label
_atom_site_type_symbol
_atom_site_symmetry_multiplicity
_atom_site_Wyckoff_symbol
_atom_site_fract_x
_atom_site_fract_y
_atom_site_fract_z
_atom_site_B_iso_or_equiv
_atom_site_occupancy
_atom_site_attached_hydrogens
Co1 Co2+ 4 e 0.17905(3) 0.04476(4) 0.25184(4) 0.00870(12) 1 0
P1 P5+ 4 e 0.09116(5) 0.27909(8) 0.39082(5) 0.0092(2) 1 0
P2 P5+ 4 e -0.01793(4) 0.15713(7) 0.24163(5) 0.00917(18) 1 0
P3 P5+ 4 e 0.09668(5) 0.26992(8) 0.09550(5) 0.0094(2) 1 0
Na1 Na1+ 4 e 0.43634(7) 0.26662(11) 0.24604(9) 0.0141(3) 1 0
Na2 Na1+ 4 e 0.29081(8) 0.46574(12) 0.85765(8) 0.0138(3) 1 0
Na3 Na1+ 4 e 0.29725(8) 0.30876(13) 0.61351(8) 0.0184(4) 1 0
O1 O2- 4 e 0.05145(14) 0.2071(2) 0.47344(14) 0.0130(6) 1 0
O2 O2- 4 e 0.17177(14) 0.1968(2) 0.35477(13) 0.0114(6) 1 0
O3 O2- 4 e 0.11051(15) 0.4391(2) 0.40244(14) 0.0121(6) 1 0
O4 O2- 4 e 0.01569(13) 0.2774(2) 0.31195(14) 0.0143(6) 1 0
O5 O2- 4 e -0.11609(11) 0.1477(2) 0.24615(16) 0.0132(5) 1 0
O6 O2- 4 e 0.03722(12) 0.02302(19) 0.25260(17) 0.0121(5) 1 0
O7 O2- 4 e 0.00352(13) 0.2345(2) 0.14692(13) 0.0130(6) 1 0
O8 O2- 4 e 0.10669(14) 0.4328(2) 0.09601(14) 0.0124(6) 1 0
O9 O2- 4 e 0.17086(14) 0.1947(2) 0.14783(13) 0.0113(6) 1 0
O10 O2- 4 e 0.08069(13) 0.2074(2) 0.00090(13) 0.0131(6) 1 0
O11 O2- 4 e 0.31974(11) 0.0555(2) 0.25120(16) 0.0116(5) 1 0
O12 O2- 4 e 0.17853(14) -0.1304(2) 0.16021(14) 0.0122(6) 1 0
O13 O2- 4 e 0.51655(15) 0.1325(2) 0.35520(15) 0.0157(6) 1 0
O14 O2- 4 e 0.38990(15) 0.4341(2) 0.98357(15) 0.0145(6) 1 0
O15 O2- 4 e 0.28285(15) 0.1071(2) 0.51281(14) 0.0167(6) 1 0
O16 O2- 4 e 0.17530(14) 0.2039(2) 0.69626(15) 0.0166(6) 1 0
O17 O2- 4 e 0.51584(16) 0.1503(2) 0.12940(15) 0.0162(7) 1 0
O18 O2- 4 e 0.22185(15) 0.2364(2) 0.87937(14) 0.0167(6) 1 0
O19 O2- 4 e 0.17956(14) -0.1288(2) 0.34919(14) 0.0123(6) 1 0
O20 O2- 4 e 0.39365(14) 0.4157(2) 0.50484(14) 0.0154(6) 1 0
O21 O2- 4 e 0.18831(15) 0.4884(3) 0.56970(15) 0.0194(7) 1 0
O22 O2- 4 e 0.34210(15) 0.0290(3) 0.72343(17) 0.0239(8) 1 0
H1 H1+ 4 e 0.345(2) 0.018(4) 0.2949(17) 0.0139 1 0
H2 H1+ 4 e 0.335(2) 0.014(4) 0.2044(15) 0.0139 1 0
H3 H1+ 4 e 0.2262(14) -0.174(4) 0.160(2) 0.0146 1 0
H4 H1+ 4 e 0.162(2) -0.115(4) 0.1076(11) 0.0146 1 0
H5 H1+ 4 e 0.487(2) 0.065(3) 0.376(2) 0.0189 1 0
H6 H1+ 4 e 0.534(2) 0.174(4) 0.4018(15) 0.0189 1 0
H7 H1+ 4 e 0.4342(15) 0.385(3) 0.974(2) 0.0173 1 0
H8 H1+ 4 e 0.413(2) 0.515(2) 0.991(3) 0.0173 1 0
H9 H1+ 4 e 0.2455(19) 0.126(4) 0.4738(19) 0.02 1 0
H10 H1+ 4 e 0.3224(18) 0.063(4) 0.486(2) 0.02 1 0
H11 H1+ 4 e 0.183(2) 0.213(4) 0.7513(8) 0.02 1 0
H12 H1+ 4 e 0.1266(13) 0.241(4) 0.686(3) 0.02 1 0
H13 H1+ 4 e 0.483(2) 0.081(3) 0.120(2) 0.0195 1 0
H14 H1+ 4 e 0.523(3) 0.192(4) 0.0805(14) 0.0195 1 0
H15 H1+ 4 e 0.256(2) 0.171(3) 0.893(2) 0.02 1 0
H16 H1+ 4 e 0.1826(18) 0.232(4) 0.9181(19) 0.02 1 0
H17 H1+ 4 e 0.2241(15) -0.179(3) 0.356(3) 0.0148 1 0
H18 H1+ 4 e 0.161(2) -0.114(4) 0.4009(11) 0.0148 1 0
H19 H1+ 4 e 0.4457(10) 0.388(4) 0.507(2) 0.0185 1 0
H20 H1+ 4 e 0.403(3) 0.5037(13) 0.507(3) 0.0185 1 0
H21 H1+ 4 e 0.1436(16) 0.474(4) 0.600(2) 0.0233 1 0
H22 H1+ 4 e 0.164(2) 0.484(4) 0.5200(14) 0.0233 1 0
H23 H1+ 4 e 0.360(2) 0.108(2) 0.743(3) 0.0287 1 0
H24 H1+ 4 e 0.3883(16) -0.007(4) 0.704(3) 0.0287 1 0
loop_
_atom_site_aniso_label
_atom_site_aniso_type_symbol
_atom_site_aniso_U_11
_atom_site_aniso_U_22
_atom_site_aniso_U_33
_atom_site_aniso_U_12
_atom_site_aniso_U_13
_atom_site_aniso_U_23
Co1 Co2+ 0.0067(2) 0.0092(2) 0.0102(2) 0.00031(14) 0.0004(2) -0.00023(20)
P1 P5+ 0.0072(4) 0.0104(4) 0.0100(3) -0.0001(3) 0.0001(3) -0.0007(3)
P2 P5+ 0.0066(3) 0.0106(3) 0.0103(3) -0.0002(2) -0.0003(3) -0.0001(3)
P3 P5+ 0.0081(4) 0.0103(4) 0.0099(3) 0.0003(3) 0.0000(3) 0.0009(3)
Na1 Na1+ 0.0130(5) 0.0142(5) 0.0150(5) 0.0025(4) -0.0006(5) -0.0002(5)
Na2 Na1+ 0.0118(6) 0.0148(6) 0.0149(6) 0.0011(4) 0.0000(5) -0.0002(4)
Na3 Na1+ 0.0156(6) 0.0237(7) 0.0160(6) -0.0053(5) -0.0012(5) -0.0009(5)
O1 O2- 0.0118(10) 0.0148(11) 0.0125(10) -0.0012(8) 0.0044(8) -0.0007(8)
O2 O2- 0.0071(10) 0.0149(11) 0.0122(10) -0.0006(8) -0.0003(8) 0.0000(8)
O3 O2- 0.0110(10) 0.0108(10) 0.0147(10) -0.0012(8) 0.0008(8) -0.0010(8)
O4 O2- 0.0120(10) 0.0136(11) 0.0172(11) 0.0052(8) -0.0070(9) -0.0049(8)
O5 O2- 0.0083(9) 0.0175(10) 0.0137(9) 0.0001(7) 0.0001(9) 0.0027(9)
O6 O2- 0.0083(8) 0.0113(9) 0.0166(9) 0.0006(7) 0.0008(10) 0.0010(10)
O7 O2- 0.0104(10) 0.0167(11) 0.0119(10) -0.0007(8) 0.0029(8) 0.0039(8)
O8 O2- 0.0116(11) 0.0090(10) 0.0165(10) -0.0003(8) -0.0010(8) -0.0013(8)
O9 O2- 0.0084(10) 0.0138(11) 0.0117(10) 0.0020(8) -0.0006(8) 0.0017(8)
O10 O2- 0.0129(10) 0.0149(11) 0.0114(10) 0.0009(8) -0.0019(8) -0.0008(8)
O11 O2- 0.0099(9) 0.0136(9) 0.0114(9) 0.0012(6) -0.0013(10) -0.0015(9)
O12 O2- 0.0097(10) 0.0153(11) 0.0114(9) 0.0032(9) -0.0015(8) 0.0001(8)
O13 O2- 0.0138(11) 0.0175(12) 0.0159(11) -0.0040(9) -0.0026(9) 0.0011(8)
O14 O2- 0.0125(11) 0.0150(11) 0.0159(10) 0.0007(8) -0.0009(9) -0.0017(9)
O15 O2- 0.0143(11) 0.0201(12) 0.0155(11) 0.0008(9) 0.0004(8) -0.0019(9)
O16 O2- 0.0142(11) 0.0186(12) 0.0171(11) 0.0021(9) 0.0016(9) -0.0006(9)
O17 O2- 0.0140(11) 0.0192(13) 0.0155(11) -0.0047(9) 0.0006(9) 0.0008(9)
O18 O2- 0.0151(11) 0.0158(11) 0.0192(11) 0.0020(9) 0.0009(9) 0.0026(9)
O19 O2- 0.0082(10) 0.0167(11) 0.0121(10) 0.0032(9) 0.0006(9) 0.0009(8)
O20 O2- 0.0125(11) 0.0144(11) 0.0193(10) -0.0014(9) -0.0025(9) 0.0020(9)
O21 O2- 0.0185(12) 0.0226(12) 0.0173(11) -0.0059(10) 0.0003(9) -0.0010(9)
O22 O2- 0.0133(11) 0.0210(13) 0.0375(15) -0.0007(9) 0.0003(9) -0.0081(10)
#End of TTdata_250526-ICSD