
#(C) 2018 by FIZ Karlsruhe - Leibniz Institute for Information Infrastructure.  All rights reserved.
data_250680-ICSD
_database_code_ICSD 250680
_audit_creation_date 2015-02-01
_chemical_name_systematic

;
(Bismuth copper oxide) (copper lithium) (phosphate(V))
(19.8/2.83/20/0.64/3.36/10)
;
_chemical_formula_structural '(Bi19.80 Cu2.19 O20) (Cu0.64 Li3.36) (P O4)10'
_chemical_formula_sum 'Bi19.8 Cu2.83 Li3.36 O60 P10'
_exptl_crystal_density_diffrn 7.13
_cell_measurement_temperature 296.
_publ_section_title 'Inorganic polar blocks into controlled acentric assemblies'
loop_
_citation_id
_citation_journal_full
_citation_year
_citation_journal_volume
_citation_page_first
_citation_page_last
_citation_journal_id_ASTM
primary 'Inorganic Chemistry' 2012 51 9557 9562 INOCAJ
loop_
_publ_author_name
'Endara, D.'
'Colmont, M.'
'Huve, M.'
'Capet, F.'
'Lejay, J.'
'Aschehoug, P.'
'Mentre, O.'
_cell_length_a 11.5048(10)
_cell_length_b 5.4565(6)
_cell_length_c 41.656(3)
_cell_angle_alpha 90
_cell_angle_beta 90
_cell_angle_gamma 90
_cell_volume 2614.99
_cell_formula_units_Z 2
_symmetry_space_group_name_H-M 'B b m 2'
_symmetry_Int_Tables_number 40
_refine_ls_R_factor_all 0.0487
loop_
_symmetry_equiv_pos_site_id
_symmetry_equiv_pos_as_xyz
1 '-x, y+1/2, z'
2 'x, -y+1/2, z'
3 '-x, -y, z'
4 'x, y, z'
5 '-x+1/2, y+1/2, z+1/2'
6 'x+1/2, -y+1/2, z+1/2'
7 '-x+1/2, -y, z+1/2'
8 'x+1/2, y, z+1/2'
loop_
_atom_type_symbol
_atom_type_oxidation_number
Bi3+ 3
Cu2+ 2
Bi3+ 3
Cu2+ 2
O2- -2
Cu2+ 2
Li1+ 1
P5+ 5
O2- -2
loop_
_atom_site_label
_atom_site_type_symbol
_atom_site_symmetry_multiplicity
_atom_site_Wyckoff_symbol
_atom_site_fract_x
_atom_site_fract_y
_atom_site_fract_z
_atom_site_B_iso_or_equiv
_atom_site_occupancy
_atom_site_attached_hydrogens
Bi1 Bi3+ 4 b 0.10968(14) 0.25 0.00292(5) 0.0191(5) 1 0
Bi2 Bi3+ 4 b 0.11329(13) -0.25 -0.06177(6) 0.0363(7) 1 0
Bi3 Bi3+ 4 b 0.11029(18) -0.25 -0.18914(4) 0.0250(6) 1 0
Bi4 Bi3+ 4 b 0.11386(17) 0.25 -0.12469(5) 0.0219(6) 1 0
Bi5 Bi3+ 4 b -0.10843(16) 0.25 0.19895(5) 0.0201(6) 1 0
Bi6 Bi3+ 4 b 0.11381(15) 0.25 0.13455(6) 0.0402(8) 1 0
Bi7 Bi3+ 4 b 0.0848(2) 0.25 -0.25797(6) 0.0392(10) 0.585(13) 0
Cu1 Cu2+ 4 b 0.0848(2) 0.25 -0.25797(6) 0.0392(10) 0.415(13) 0
Bi8 Bi3+ 4 b -0.10794(15) 0.25 0.06932(5) 0.0176(6) 1 0
Bi9 Bi3+ 4 b 0.37166(14) 0.25 -0.06370(6) 0.0241(5) 1 0
Bi10 Bi3+ 4 b -0.37077(15) 0.25 0.13649(6) 0.0259(5) 1 0
Bi11 Bi3+ 4 b 0.0987(4) 0.25 0.25947(11) 0.0365(15) 0.319(14) 0
Cu2 Cu2+ 4 b 0.0987(4) 0.25 0.25947(11) 0.0365(15) 0.681(14) 0
O1 O2- 4 a 0 0 -0.0288(7) 0.008(5) 1 0
O2 O2- 4 a 0 0.5 0.0345(9) 0.019(4) 1 0
O3 O2- 4 a 0 0 -0.0944(8) 0.021(7) 1 0
O4 O2- 4 a 0 0.5 0.1001(8) 0.022(7) 1 0
O5 O2- 4 a 0 0 -0.1603(8) 0.030(8) 1 0
O6 O2- 4 a 0 0.5 0.1688(6) 0.009(6) 1 0
O7 O2- 4 a 0 0.5 -0.2244(8) 0.038(7) 1 0
O8 O2- 4 a 0 0.5 0.2329(6) 0.017(7) 1 0
O9 O2- 8 c -0.187(3) 0.319(8) 0.1367(10) 0.038(11) 0.5 0
O10 O2- 8 c 0.189(3) 0.347(7) -0.0658(10) 0.035(10) 0.5 0
Cu3 Cu2+ 4 a 0.5 -0.5 0.0346(9) 0.067(8) 0.23(2) 0
Cu4 Cu2+ 4 a 0.5 -0.5 -0.1675(12) 0.067(8) 0.09(2) 0
Li1 Li1+ 4 a 0.5 -0.5 0.0346(9) 0.067(8) 0.77(2) 0
Li2 Li1+ 4 a 0.5 -0.5 -0.1675(12) 0.067(8) 0.91(2) 0
P1 P5+ 4 b 0.3265(13) 0.25 0.0794(3) 0.031(4) 1 0
P2 P5+ 4 b 0.1664(12) 0.25 0.3780(3) 0.038(5) 1 0
P3 P5+ 4 b 0.3288(15) 0.25 0.1945(3) 0.034(5) 1 0
P4 P5+ 4 b 0.8050(9) 0.25 0.2901(3) 0.033(4) 1 0
P5 P5+ 4 b 0.6737(12) -0.75 -0.0051(3) 0.026(4) 1 0
O11 O2- 4 b 0.093(5) 0.25 0.3505(15) 0.101(19) 1 0
O12 O2- 4 b 0.403(7) 0.25 0.056(2) 0.14(3) 1 0
O13 O2- 4 b 0.606(3) -0.75 0.0245(8) 0.041(9) 1 0
O14 O2- 4 b 0.296(3) 0.25 0.3735(8) 0.046(9) 1 0
O15 O2- 4 b 0.409(3) 0.25 0.2248(7) 0.032(7) 1 0
O16 O2- 4 b 0.193(5) 0.25 0.0732(12) 0.087(15) 1 0
O17 O2- 4 b 0.809(3) -0.75 0.0084(11) 0.081(13) 1 0
O18 O2- 4 b 0.208(3) 0.25 0.2062(11) 0.080(13) 1 0
O19 O2- 4 b 0.720(3) 0.25 0.3173(9) 0.056(9) 1 0
O20 O2- 4 b 0.928(3) 0.25 0.3005(8) 0.037(8) 1 0
O21 O2- 8 c 0.366(4) 0.418(9) 0.0990(11) 0.131(14) 1 0
O22 O2- 8 c 0.671(3) -1.001(8) -0.0191(9) 0.144(16) 1 0
O23 O2- 8 c 0.132(3) 0.102(8) 0.4009(9) 0.096(10) 1 0
O24 O2- 8 c 0.795(4) 0.493(9) 0.2738(13) 0.134(14) 1 0
O25 O2- 8 c 0.345(3) -0.039(6) 0.1855(8) 0.110(12) 1 0
loop_
_atom_site_aniso_label
_atom_site_aniso_type_symbol
_atom_site_aniso_U_11
_atom_site_aniso_U_22
_atom_site_aniso_U_33
_atom_site_aniso_U_12
_atom_site_aniso_U_13
_atom_site_aniso_U_23
Bi1 Bi3+ 0.0169(7) 0.0157(9) 0.0246(10) 0 -0.0039(8) 0
Bi2 Bi3+ 0.0149(9) 0.0792(18) 0.0148(9) 0 0.0005(9) 0
Bi3 Bi3+ 0.0236(11) 0.0328(11) 0.0185(9) 0 0.0059(7) 0
Bi4 Bi3+ 0.0173(11) 0.0251(13) 0.0233(9) 0 0.0048(7) 0
Bi5 Bi3+ 0.0188(10) 0.0127(10) 0.0290(10) 0 0.0056(7) 0
Bi6 Bi3+ 0.0148(10) 0.086(2) 0.0195(10) 0 0.0014(8) 0
Bi7 Bi3+ 0.0299(14) 0.070(2) 0.0174(14) 0 0.0069(10) 0
Cu1 Cu2+ 0.0299(14) 0.070(2) 0.0174(14) 0 0.0069(10) 0
Bi8 Bi3+ 0.0151(9) 0.0169(10) 0.0208(10) 0 -0.0024(7) 0
Bi9 Bi3+ 0.0137(8) 0.0294(10) 0.0290(10) 0 0.0005(8) 0
Bi10 Bi3+ 0.0168(8) 0.0342(11) 0.0267(9) 0 0.0021(8) 0
Bi11 Bi3+ 0.028(2) 0.026(2) 0.056(3) 0 -0.0159(18) 0
Cu2 Cu2+ 0.028(2) 0.026(2) 0.056(3) 0 -0.0159(18) 0
Cu3 Cu2+ 0.025(8) 0.084(16) 0.092(17) -0.011(12) 0 0
Cu4 Cu2+ 0.025(8) 0.084(16) 0.092(17) -0.011(12) 0 0
Li1 Li1+ 0.025(8) 0.084(16) 0.092(17) -0.011(12) 0 0
Li2 Li1+ 0.025(8) 0.084(16) 0.092(17) -0.011(12) 0 0
P1 P5+ 0.022(7) 0.048(9) 0.022(6) 0 0.001(5) 0
P2 P5+ 0.015(6) 0.090(13) 0.010(6) 0 0.003(4) 0
P3 P5+ 0.032(9) 0.030(8) 0.041(9) 0 -0.027(6) 0
P4 P5+ 0.024(5) 0.051(8) 0.025(6) 0 0.001(4) 0
P5 P5+ 0.019(7) 0.033(8) 0.026(6) 0 0.000(4) 0
#End of TTdata_250680-ICSD