
#(C) 2019 by FIZ Karlsruhe - Leibniz Institute for Information Infrastructure.  All rights reserved.
data_250773-ICSD
_database_code_ICSD 250773
_audit_creation_date 2015-02-01
_chemical_name_systematic 'Lithium-0.20 sodium-0.80 niobate(V)'
_chemical_formula_structural '(Li0.20 Na0.80) Nb O3'
_chemical_formula_sum 'Li0.2 Na0.8 Nb1 O3'
_chemical_name_structure_type LiNbO3
_exptl_crystal_density_diffrn 4.52
_publ_section_title
'Unusual phase behavior in the piezoelectric perovskite system, LixNa1-xNbO3'
loop_
_citation_id
_citation_journal_full
_citation_year
_citation_journal_volume
_citation_page_first
_citation_page_last
_citation_journal_id_ASTM
primary 'Inorganic Chemistry' 2013 52 8872 8880 INOCAJ
loop_
_publ_author_name
'Peel, Martin D.'
'Ashbrook, Sharon E.'
'Lightfoot, Philip'
_cell_length_a 5.45354(3)
_cell_length_b 5.45354(3)
_cell_length_c 13.74732(13)
_cell_angle_alpha 90.
_cell_angle_beta 90.
_cell_angle_gamma 120.
_cell_volume 354.08
_cell_formula_units_Z 6
_symmetry_space_group_name_H-M 'R 3 c H'
_symmetry_Int_Tables_number 161
_refine_ls_R_factor_all 0.0746
loop_
_symmetry_equiv_pos_site_id
_symmetry_equiv_pos_as_xyz
1 '-x+y, y, z+1/2'
2 'x, x-y, z+1/2'
3 '-y, -x, z+1/2'
4 '-x+y, -x, z'
5 '-y, x-y, z'
6 'x, y, z'
7 '-x+y+2/3, y+1/3, z+5/6'
8 'x+2/3, x-y+1/3, z+5/6'
9 '-y+2/3, -x+1/3, z+5/6'
10 '-x+y+2/3, -x+1/3, z+1/3'
11 '-y+2/3, x-y+1/3, z+1/3'
12 'x+2/3, y+1/3, z+1/3'
13 '-x+y+1/3, y+2/3, z+1/6'
14 'x+1/3, x-y+2/3, z+1/6'
15 '-y+1/3, -x+2/3, z+1/6'
16 '-x+y+1/3, -x+2/3, z+2/3'
17 '-y+1/3, x-y+2/3, z+2/3'
18 'x+1/3, y+2/3, z+2/3'
loop_
_atom_type_symbol
_atom_type_oxidation_number
Na1+ 1
Li1+ 1
Nb5+ 5
O2- -2
loop_
_atom_site_label
_atom_site_type_symbol
_atom_site_symmetry_multiplicity
_atom_site_Wyckoff_symbol
_atom_site_fract_x
_atom_site_fract_y
_atom_site_fract_z
_atom_site_B_iso_or_equiv
_atom_site_occupancy
_atom_site_attached_hydrogens
Na1 Na1+ 6 a 0 0 0.2725(3) 0.0062(9) 0.806(7) 0
Li1 Li1+ 6 a 0 0 0.2725(3) 0.0092(9) 0.194(7) 0
Nb1 Nb5+ 6 a 0 0 0.01751(0) 0.0015(3) 1. 0
O1 O2- 18 b 0.0963(2) 0.3368(3) 0.08415(10) 0.0071(2) 1. 0
#End of TTdata_250773-ICSD