
#(C) 2019 by FIZ Karlsruhe - Leibniz Institute for Information Infrastructure.  All rights reserved.
data_250826-ICSD
_database_code_ICSD 250826
_audit_creation_date 2015-02-01
_chemical_name_systematic 'Lithium sodium cobalt oxide (0.37/0.31/1/2)'
_chemical_formula_structural 'Li0.37 Na0.31 Co O2'
_chemical_formula_sum 'Co1 Li0.37 Na0.31 O2'
_exptl_crystal_density_diffrn 4.78
_publ_section_title

;
A comparative study of LiCoO2 polymorphs. Structural and electrochemical
characterization of O2-, O3-, and O4-type phases
;
loop_
_citation_id
_citation_journal_full
_citation_year
_citation_journal_volume
_citation_page_first
_citation_page_last
_citation_journal_id_ASTM
primary 'Inorganic Chemistry' 2013 52 9131 9142 INOCAJ
loop_
_publ_author_name
'Yabuuchi, Naoaki'
'Kawamoto, Yuta'
'Hara, Ryo'
'Ishigaki, Toru'
'Hoshikawa, Akinori'
'Yonemura, Masao'
'Kamiyama, Takashi'
'Komaba, Shinichi'
_cell_length_a 2.8208(2)
_cell_length_b 2.8208(2)
_cell_length_c 20.277(1)
_cell_angle_alpha 90.
_cell_angle_beta 90.
_cell_angle_gamma 120.
_cell_volume 139.73
_cell_formula_units_Z 4
_symmetry_space_group_name_H-M 'P 63/m m c'
_symmetry_Int_Tables_number 194
_refine_ls_R_factor_all 0.0612
loop_
_symmetry_equiv_pos_site_id
_symmetry_equiv_pos_as_xyz
1 'x, x-y, -z+1/2'
2 '-x+y, y, -z+1/2'
3 '-y, -x, -z+1/2'
4 '-x+y, -x, -z+1/2'
5 '-y, x-y, -z+1/2'
6 'x, y, -z+1/2'
7 '-x, -x+y, z+1/2'
8 'x-y, -y, z+1/2'
9 'y, x, z+1/2'
10 'x-y, x, z+1/2'
11 'y, -x+y, z+1/2'
12 '-x, -y, z+1/2'
13 '-x, -x+y, -z'
14 'x-y, -y, -z'
15 'y, x, -z'
16 'x-y, x, -z'
17 'y, -x+y, -z'
18 '-x, -y, -z'
19 'x, x-y, z'
20 '-x+y, y, z'
21 '-y, -x, z'
22 '-x+y, -x, z'
23 '-y, x-y, z'
24 'x, y, z'
loop_
_atom_type_symbol
_atom_type_oxidation_number
Co2+ 2
Li1+ 1
Na1+ 1
O1- -1.34
loop_
_atom_site_label
_atom_site_type_symbol
_atom_site_symmetry_multiplicity
_atom_site_Wyckoff_symbol
_atom_site_fract_x
_atom_site_fract_y
_atom_site_fract_z
_atom_site_B_iso_or_equiv
_atom_site_occupancy
_atom_site_attached_hydrogens
Co1 Co2+ 4 f 0.6667 0.3333 0.3843(1) 0.2 1. 0
Li1 Li1+ 2 a 0 0 0.5 0.5 0.74 0
Na1 Na1+ 2 c 0.3333 0.6667 0.25 1.3(1) 0.39(1) 0
Na2 Na1+ 2 d 0.6667 0.3333 0.25 1.2(1) 0.23(1) 0
O1 O1- 4 e 0 0 0.3364(4) 0.6 1. 0
O2 O1- 4 f 0.3333 0.6667 0.4367(4) 0.6 1. 0
#End of TTdata_250826-ICSD