
#(C) 2018 by FIZ Karlsruhe - Leibniz Institute for Information Infrastructure.  All rights reserved.
data_250895-ICSD
_database_code_ICSD 250895
_audit_creation_date 2015-02-01
_chemical_name_systematic 'Lithium iron(III) sulfate'
_chemical_formula_structural 'Li Fe (S O4)2'
_chemical_formula_sum 'Fe1 Li1 O8 S2'
_exptl_crystal_density_diffrn 3.13
_cell_measurement_temperature 298.
_publ_section_title

;
Marinite Li2 M (S O4)2 (M = Co, Fe, Mn) and Li1 Fe (S O4)2: Model Compounds
for Super-Super-Exchange Magnetic Interactions
;
loop_
_citation_id
_citation_journal_full
_citation_year
_citation_journal_volume
_citation_page_first
_citation_page_last
_citation_journal_id_ASTM
primary 'Inorganic Chemistry' 2013 52 10456 10466 INOCAJ
loop_
_publ_author_name
'Reynaud, Marine'
'Rousse, Gwenaelle'
'Chotard, Jean-Noel'
'Rodriguez-Carvajal, Juan'
'Tarascon, Jean-Marie'
_cell_length_a 4.79748(10)
_cell_length_b 8.36199(17)
_cell_length_c 7.90637(15)
_cell_angle_alpha 90.
_cell_angle_beta 121.4964(12)
_cell_angle_gamma 90.
_cell_volume 270.44
_cell_formula_units_Z 2
_symmetry_space_group_name_H-M 'P 1 21/c 1'
_symmetry_Int_Tables_number 14
_refine_ls_R_factor_all 0.0174
loop_
_symmetry_equiv_pos_site_id
_symmetry_equiv_pos_as_xyz
1 'x, -y+1/2, z+1/2'
2 '-x, -y, -z'
3 '-x, y+1/2, -z+1/2'
4 'x, y, z'
loop_
_atom_type_symbol
_atom_type_oxidation_number
Fe3+ 3
Li1+ 1
S6+ 6
O2- -2
loop_
_atom_site_label
_atom_site_type_symbol
_atom_site_symmetry_multiplicity
_atom_site_Wyckoff_symbol
_atom_site_fract_x
_atom_site_fract_y
_atom_site_fract_z
_atom_site_B_iso_or_equiv
_atom_site_occupancy
_atom_site_attached_hydrogens
Fe1 Fe3+ 2 a 0. 0. 0. 0.00619(20) 1. 0
Li1 Li1+ 4 e 0.560(3) 0.0236(14) 0.5258(18) 0.013(3) 0.5 0
S1 S6+ 4 e 0.3048(2) 0.17831(10) 0.76128(13) 0.0034(2) 1. 0
O1 O2- 4 e 0.0455(4) 0.12752(19) 0.7997(2) 0.0088(4) 1. 0
O2 O2- 4 e 0.2632(4) 0.10327(19) 0.5854(2) 0.0083(5) 1. 0
O3 O2- 4 e 0.2824(4) 0.35716(19) 0.7376(2) 0.0072(4) 1. 0
O4 O2- 4 e 0.3757(3) 0.64221(19) 0.5594(2) 0.0070(4) 1. 0
#End of TTdata_250895-ICSD