
#(C) 2019 by FIZ Karlsruhe - Leibniz Institute for Information Infrastructure.  All rights reserved.
data_251044-ICSD
_database_code_ICSD 251044
_audit_creation_date 2015-02-01
_chemical_name_systematic 'Hexastrontium sodium dipalladium heptadecahydroxide'
_chemical_formula_structural 'Sr6 Na Pd2 (O H)17'
_chemical_formula_sum 'H17 Na1 O17 Pd2 Sr6'
_exptl_crystal_density_diffrn 3.83
_cell_measurement_temperature 100.
_publ_section_title

;
Hydroflux crystal growth of platinum group metal hydroxides: Sr6NaPd2(OH)17,
Li2Pt(OH)6, Na2Pt(OH)6, Sr2Pt(OH)8, and Ba2Pt(OH)8
;
loop_
_citation_id
_citation_journal_full
_citation_year
_citation_journal_volume
_citation_page_first
_citation_page_last
_citation_journal_id_ASTM
primary 'Inorganic Chemistry' 2013 52 3836 3844 INOCAJ
loop_
_publ_author_name
'Bugaris, Daniel E.'
'Smith, Mark D.'
'zur Loye, Hans-Conrad'
_cell_length_a 19.577(4)
_cell_length_b 13.521(3)
_cell_length_c 6.8852(14)
_cell_angle_alpha 90.
_cell_angle_beta 90.
_cell_angle_gamma 90.
_cell_volume 1822.51
_cell_formula_units_Z 4
_symmetry_space_group_name_H-M 'P b c n'
_symmetry_Int_Tables_number 60
_refine_ls_R_factor_all 0.0256
loop_
_symmetry_equiv_pos_site_id
_symmetry_equiv_pos_as_xyz
1 'x, -y, z+1/2'
2 '-x+1/2, y+1/2, z'
3 'x+1/2, y+1/2, -z+1/2'
4 '-x, -y, -z'
5 '-x, y, -z+1/2'
6 'x+1/2, -y+1/2, -z'
7 '-x+1/2, -y+1/2, z+1/2'
8 'x, y, z'
loop_
_atom_type_symbol
_atom_type_oxidation_number
Sr2+ 2
Na1+ 1
Pd2+ 2
O2- -2
H1+ 1
O2- -2
H1+ 1
O2- -2
H1+ 1
O2- -2
H1+ 1
O2- -2
H1+ 1
O2- -2
H1+ 1
O2- -2
H1+ 1
O2- -2
H1+ 1
O2- -2
H1+ 1
loop_
_atom_site_label
_atom_site_type_symbol
_atom_site_symmetry_multiplicity
_atom_site_Wyckoff_symbol
_atom_site_fract_x
_atom_site_fract_y
_atom_site_fract_z
_atom_site_B_iso_or_equiv
_atom_site_occupancy
_atom_site_attached_hydrogens
Sr1 Sr2+ 8 d 0.083284(19) 0.44516(3) 0.43655(5) 0.00842(10) 1 0
Sr2 Sr2+ 8 d 0.085424(18) 0.06472(2) 0.41631(5) 0.00732(9) 1 0
Sr3 Sr2+ 8 d 0.286931(18) 0.24994(2) 0.06055(5) 0.00674(9) 1 0
Na1 Na1+ 4 c 0. 0.25157(14) 0.25 0.0080(4) 1 0
Pd1 Pd2+ 8 d 0.246434(12) 0.00006(2) 0.24454(4) 0.00580(9) 1 0
O1 O2- 8 d 0.04292(16) 0.0954(2) 0.0724(4) 0.0152(6) 1 0
H1 H1+ 8 d 0.069(3) 0.142(3) 0.038(8) 0.032(16) 1 0
O2 O2- 8 d 0.06854(17) 0.3778(2) 0.1057(4) 0.0206(7) 1 0
H2 H1+ 8 d 0.060(3) 0.372(5) -0.011(4) 0.05(2) 1 0
O3 O2- 8 d 0.19938(14) 0.1337(2) 0.2627(4) 0.0082(5) 1 0
H3 H1+ 8 d 0.183(3) 0.143(5) 0.153(5) 0.048(19) 1 0
O4 O2- 8 d 0.20652(14) 0.3674(2) 0.2636(4) 0.0091(5) 1 0
H4 H1+ 8 d 0.1714(17) 0.375(4) 0.195(6) 0.023(14) 1 0
O5 O2- 8 d 0.33256(16) 0.2606(2) 0.4123(4) 0.0118(6) 1 0
H5 H1+ 8 d 0.366(2) 0.235(4) 0.468(9) 0.04(2) 1 0
O6 O2- 8 d 0.33850(14) 0.0665(2) 0.2346(4) 0.0092(5) 1 0
H6 H1+ 8 d 0.338(2) 0.119(2) 0.298(6) 0.011(12) 1 0
O7 O2- 8 d 0.34595(14) 0.4329(2) 0.2277(4) 0.0091(5) 1 0
H7 H1+ 8 d 0.339(3) 0.380(2) 0.292(6) 0.019(13) 1 0
O8 O2- 8 d 0.41673(15) 0.24650(18) 0.0003(4) 0.0100(6) 1 0
H8 H1+ 8 d 0.425(4) 0.251(4) 0.120(4) 0.04(2) 1 0
O9 O2- 4 c 0. 0.5642(3) 0.25 0.0173(9) 1 0
H9 H1+ 8 d -0.018(8) 0.618(5) 0.29(2) 0.07(5) 0.5 0
loop_
_atom_site_aniso_label
_atom_site_aniso_type_symbol
_atom_site_aniso_U_11
_atom_site_aniso_U_22
_atom_site_aniso_U_33
_atom_site_aniso_U_12
_atom_site_aniso_U_13
_atom_site_aniso_U_23
Sr1 Sr2+ 0.01047(19) 0.00755(17) 0.00725(17) 0.00159(13) -0.00046(13)
0.00062(12)
Sr2 Sr2+ 0.00676(18) 0.00724(17) 0.00796(16) -0.00038(13) -0.00052(12)
-0.00050(12)
Sr3 Sr2+ 0.00613(18) 0.00720(18) 0.00690(17) -0.00010(12) 0.00085(12)
-0.00003(12)
Na1 Na1+ 0.0086(11) 0.0062(10) 0.0093(11) 0. -0.0035(8) 0.
Pd1 Pd2+ 0.00576(14) 0.00504(15) 0.00660(15) -0.00006(10) 0.00006(10)
-0.00009(10)
O1 O2- 0.0119(15) 0.0183(16) 0.0154(14) 0.0035(12) 0.0023(11) 0.0009(12)
O2 O2- 0.0301(19) 0.0205(16) 0.0110(13) -0.0106(14) -0.0014(13) -0.0019(12)
O3 O2- 0.0087(13) 0.0070(13) 0.0089(13) 0.0015(10) -0.0006(10) 0.0011(10)
O4 O2- 0.0089(13) 0.0089(13) 0.0095(12) -0.0006(11) -0.0008(11) 0.0012(10)
O5 O2- 0.0090(14) 0.0147(14) 0.0118(14) 0.0010(11) -0.0013(11) 0.0025(11)
O6 O2- 0.0073(13) 0.0091(14) 0.0113(13) -0.0014(11) -0.0001(10) -0.0014(10)
O7 O2- 0.0084(13) 0.0091(14) 0.0099(13) 0.0017(11) 0.0001(10) 0.0021(10)
O8 O2- 0.0105(15) 0.0096(14) 0.0097(13) 0.0003(10) -0.0004(11) -0.0006(9)
O9 O2- 0.009(2) 0.019(2) 0.025(2) 0. -0.0001(18) 0.
#End of TTdata_251044-ICSD