
#(C) 2019 by FIZ Karlsruhe - Leibniz Institute for Information Infrastructure.  All rights reserved.
data_251051-ICSD
_database_code_ICSD 251051
_audit_creation_date 2015-02-01
_chemical_name_systematic 'Sodium indium bis(tellurate(IV))'
_chemical_formula_structural 'Na In (Te O3)2'
_chemical_formula_sum 'In1 Na1 O6 Te2'
_exptl_crystal_density_diffrn 5.43
_cell_measurement_temperature 298.
_publ_section_title

;
Na1.4InTe3.6O9.4: New variant of a hexagonal tungsten oxide (HTO)-like layered
framework containing both a main-group cation, In3+, and a lone-pair cation,
Te4+
;
loop_
_citation_id
_citation_journal_full
_citation_year
_citation_journal_volume
_citation_page_first
_citation_page_last
_citation_journal_id_ASTM
primary 'Inorganic Chemistry' 2013 52 6236 6238 INOCAJ
loop_
_publ_author_name
'Lee, Dong Woo'
'Ok, Kang Min'
_cell_length_a 10.67300(10)
_cell_length_b 8.26500(10)
_cell_length_c 13.5683(2)
_cell_angle_alpha 90
_cell_angle_beta 90
_cell_angle_gamma 90
_cell_volume 1196.89
_cell_formula_units_Z 8
_symmetry_space_group_name_H-M 'P b c a'
_symmetry_Int_Tables_number 61
_refine_ls_R_factor_all 0.0253
loop_
_symmetry_equiv_pos_site_id
_symmetry_equiv_pos_as_xyz
1 'x+1/2, y, -z+1/2'
2 'x, -y+1/2, z+1/2'
3 '-x+1/2, y+1/2, z'
4 '-x, -y, -z'
5 '-x+1/2, -y, z+1/2'
6 '-x, y+1/2, -z+1/2'
7 'x+1/2, -y+1/2, -z'
8 'x, y, z'
loop_
_atom_type_symbol
_atom_type_oxidation_number
Te4+ 4
In3+ 3
Na1+ 1
O2- -2
loop_
_atom_site_label
_atom_site_type_symbol
_atom_site_symmetry_multiplicity
_atom_site_Wyckoff_symbol
_atom_site_fract_x
_atom_site_fract_y
_atom_site_fract_z
_atom_site_B_iso_or_equiv
_atom_site_occupancy
_atom_site_attached_hydrogens
Te1 Te4+ 8 c 0.51921(4) 0.15127(4) 0.25543(3) 0.01145(11) 1 0
Te2 Te4+ 8 c 0.71869(4) 0.03069(4) 0.57991(3) 0.00918(11) 1 0
In1 In3+ 8 c 0.50230(4) 0.29485(5) 0.48697(3) 0.00916(11) 1 0
Na1 Na1+ 8 c 0.7352(3) -0.1225(4) 0.3550(2) 0.0314(7) 1 0
O1 O2- 8 c 0.5417(4) 0.3404(5) 0.3322(3) 0.0145(9) 1 0
O2 O2- 8 c 0.4761(4) 0.2609(5) 0.1390(3) 0.0163(9) 1 0
O3 O2- 8 c 0.6857(4) 0.1062(6) 0.2336(3) 0.0217(10) 1 0
O4 O2- 8 c 0.6338(4) 0.1076(5) 0.4670(3) 0.0141(9) 1 0
O5 O2- 8 c 0.8737(4) -0.0008(4) 0.5136(3) 0.0100(8) 1 0
O6 O2- 8 c 0.6687(4) -0.1824(5) 0.5548(3) 0.0172(10) 1 0
loop_
_atom_site_aniso_label
_atom_site_aniso_type_symbol
_atom_site_aniso_U_11
_atom_site_aniso_U_22
_atom_site_aniso_U_33
_atom_site_aniso_U_12
_atom_site_aniso_U_13
_atom_site_aniso_U_23
Te1 Te4+ 0.0133(2) 0.0132(2) 0.00783(19) 0.00018(14) 0.00141(14) -0.00118(14)
Te2 Te4+ 0.0077(2) 0.01091(18) 0.00889(19) 0.00048(14) 0.00038(14) -0.00041(14)
In1 In3+ 0.0086(2) 0.0109(2) 0.0080(2) 0.00011(16) -0.00030(15) 0.00028(14)
Na1 Na1+ 0.0177(15) 0.052(2) 0.0249(15) -0.0019(14) -0.0016(12) 0.0014(14)
O1 O2- 0.022(2) 0.014(2) 0.007(2) -0.0014(17) -0.0015(17) 0.0008(16)
O2 O2- 0.021(3) 0.023(2) 0.0045(19) 0.0040(19) -0.0002(16) 0.0009(16)
O3 O2- 0.017(3) 0.030(3) 0.018(2) 0.006(2) 0.0041(18) -0.002(2)
O4 O2- 0.013(2) 0.017(2) 0.012(2) 0.0062(18) -0.0057(17) -0.0004(17)
O5 O2- 0.006(2) 0.012(2) 0.011(2) 0.0004(16) 0.0030(15) -0.0004(16)
O6 O2- 0.014(2) 0.012(2) 0.025(3) -0.0037(17) -0.0044(18) -0.0020(17)
#End of TTdata_251051-ICSD