
#(C) 2019 by FIZ Karlsruhe - Leibniz Institute for Information Infrastructure.  All rights reserved.
data_251042-ICSD
_database_code_ICSD 251042
_audit_creation_date 2015-02-01
_chemical_name_systematic 'Disodium platinum hexahydroxide'
_chemical_formula_structural 'Na2 Pt (O H)6'
_chemical_formula_sum 'H6 Na2 O6 Pt1'
_exptl_crystal_density_diffrn 4.19
_cell_measurement_temperature 100.
_publ_section_title

;
Hydroflux crystal growth of platinum group metal hydroxides: Sr6NaPd2(OH)17,
Li2Pt(OH)6, Na2Pt(OH)6, Sr2Pt(OH)8, and Ba2Pt(OH)8
;
loop_
_citation_id
_citation_journal_full
_citation_year
_citation_journal_volume
_citation_page_first
_citation_page_last
_citation_journal_id_ASTM
primary 'Inorganic Chemistry' 2013 52 3836 3844 INOCAJ
loop_
_publ_author_name
'Bugaris, Daniel E.'
'Smith, Mark D.'
'zur Loye, Hans-Conrad'
_cell_length_a 5.7984(8)
_cell_length_b 5.7984(8)
_cell_length_c 4.6755(9)
_cell_angle_alpha 90.
_cell_angle_beta 90.
_cell_angle_gamma 120.
_cell_volume 136.13
_cell_formula_units_Z 1
_symmetry_space_group_name_H-M 'P -3'
_symmetry_Int_Tables_number 147
_refine_ls_R_factor_all 0.0105
loop_
_symmetry_equiv_pos_site_id
_symmetry_equiv_pos_as_xyz
1 'x-y, x, -z'
2 'y, -x+y, -z'
3 '-x, -y, -z'
4 '-x+y, -x, z'
5 '-y, x-y, z'
6 'x, y, z'
loop_
_atom_type_symbol
_atom_type_oxidation_number
Na1+ 1
Pt4+ 4
O2- -2
H1+ 1
loop_
_atom_site_label
_atom_site_type_symbol
_atom_site_symmetry_multiplicity
_atom_site_Wyckoff_symbol
_atom_site_fract_x
_atom_site_fract_y
_atom_site_fract_z
_atom_site_B_iso_or_equiv
_atom_site_occupancy
_atom_site_attached_hydrogens
Na1 Na1+ 2 d 0.3333 0.6667 -0.0581(5) 0.0066(4) 1 0
Pt1 Pt4+ 1 a 0. 0. 0. 0.00503(14) 1 0
O1 O2- 6 g 0.2769(4) -0.0223(4) 0.2404(4) 0.0081(4) 1 0
H1 H1+ 6 g 0.189(9) -0.124(8) 0.377(8) 0.026(13) 1 0
loop_
_atom_site_aniso_label
_atom_site_aniso_type_symbol
_atom_site_aniso_U_11
_atom_site_aniso_U_22
_atom_site_aniso_U_33
_atom_site_aniso_U_12
_atom_site_aniso_U_13
_atom_site_aniso_U_23
Na1 Na1+ 0.0034(5) 0.0034(5) 0.0130(9) 0.0017(3) 0. 0.
Pt1 Pt4+ 0.00491(15) 0.00491(15) 0.00526(17) 0.00245(7) 0. 0.
O1 O2- 0.0072(9) 0.0082(9) 0.0071(9) 0.0026(8) -0.0007(7) 0.0013(7)
#End of TTdata_251042-ICSD