
#(C) 2019 by FIZ Karlsruhe - Leibniz Institute for Information Infrastructure.  All rights reserved.
data_251696-ICSD
_database_code_ICSD 251696
_audit_creation_date 2016-02-01
_chemical_name_systematic 'Sodium-3.95 dodecaoxopentatitanate'
_chemical_formula_structural 'Na3.95 Ti5 O12'
_chemical_formula_sum 'Na3.95 O12 Ti5'
_exptl_crystal_density_diffrn 3.51
_publ_section_title

;
Synthetic, structural, and electrochemical study of monoclinic Na4 Ti5 O12 as
a sodium-ion battery anode material
;
loop_
_citation_id
_citation_journal_full
_citation_year
_citation_journal_volume
_citation_page_first
_citation_page_last
_citation_journal_id_ASTM
primary 'Chemistry of Materials' 2014 26 7067 7072 CMATEX
loop_
_publ_author_name
'Naeyaert, Pierre J.P.'
'Avdeev, Maxim'
'Sharma, Neeraj'
'Yahia, Hamdi Ben'
'Ling, Chris D.'
_cell_length_a 26.46106(27)
_cell_length_b 2.954483(27)
_cell_length_c 6.35742(7)
_cell_angle_alpha 90.
_cell_angle_beta 95.7489(6)
_cell_angle_gamma 90.
_cell_volume 494.51
_cell_formula_units_Z 2
_symmetry_space_group_name_H-M 'C 1 2/m 1'
_symmetry_Int_Tables_number 12
loop_
_symmetry_equiv_pos_site_id
_symmetry_equiv_pos_as_xyz
1 '-x, y, -z'
2 '-x, -y, -z'
3 'x, -y, z'
4 'x, y, z'
5 '-x+1/2, y+1/2, -z'
6 '-x+1/2, -y+1/2, -z'
7 'x+1/2, -y+1/2, z'
8 'x+1/2, y+1/2, z'
loop_
_atom_type_symbol
_atom_type_oxidation_number
Ti4+ 4
Na1+ 1
O2- -2
loop_
_atom_site_label
_atom_site_type_symbol
_atom_site_symmetry_multiplicity
_atom_site_Wyckoff_symbol
_atom_site_fract_x
_atom_site_fract_y
_atom_site_fract_z
_atom_site_B_iso_or_equiv
_atom_site_occupancy
_atom_site_attached_hydrogens
Ti1 Ti4+ 2 a 0. 0. 0. 0.0140(6) 1. 0
Ti2 Ti4+ 4 i 0.70586(15) 0.5 0.0989(6) 0.0140(6) 1. 0
Ti3 Ti4+ 4 i 0.59456(11) 0. 0.8381(5) 0.0140(6) 1. 0
Na1 Na1+ 4 i 0.80943(22) 0. 0.4015(8) 0.0219(25) 0.961(9) 0
Na2 Na1+ 4 i 0.5990(4) 0.5 0.3250(13) 0.0219(25) 0.594(9) 0
Na3 Na1+ 4 i 0.9439(6) 0. 0.5973(22) 0.0219(25) 0.371(8) 0
Na4 Na1+ 2 d 0.5 0. 0.5 0.0219(25) 0.100(11) 0
O1 O2- 4 i 0.70423(31) 0. 0.2856(12) 0.0259(10) 1. 0
O2 O2- 4 i 0.77982(27) 0.5 0.1070(13) 0.0259(10) 1. 0
O3 O2- 4 i 0.54135(27) 0. 0.1209(13) 0.0259(10) 1. 0
O4 O2- 4 i 0.63488(29) 0.5 0.9831(12) 0.0259(10) 1. 0
O5 O2- 4 i 0.95312(29) 0. 0.2166(13) 0.0259(10) 1. 0
O6 O2- 4 i 0.38054(28) 0. 0.3923(13) 0.0259(10) 1. 0
#End of TTdata_251696-ICSD