
#(C) 2019 by FIZ Karlsruhe - Leibniz Institute for Information Infrastructure.  All rights reserved.
data_251699-ICSD
_database_code_ICSD 251699
_audit_creation_date 2016-02-01
_chemical_name_systematic 'Sodium-3.95 dodecaoxopentatitanate'
_chemical_formula_structural 'Na3.95 Ti5 O12'
_chemical_formula_sum 'Na3.95 O12 Ti5'
_exptl_crystal_density_diffrn 3.52
_publ_section_title

;
Synthetic, structural, and electrochemical study of monoclinic Na4 Ti5 O12 as
a sodium-ion battery anode material
;
loop_
_citation_id
_citation_journal_full
_citation_year
_citation_journal_volume
_citation_page_first
_citation_page_last
_citation_journal_id_ASTM
primary 'Chemistry of Materials' 2014 26 7067 7072 CMATEX
loop_
_publ_author_name
'Naeyaert, Pierre J.P.'
'Avdeev, Maxim'
'Sharma, Neeraj'
'Yahia, Hamdi Ben'
'Ling, Chris D.'
_cell_length_a 26.5016(7)
_cell_length_b 2.95274(7)
_cell_length_c 6.33577(18)
_cell_angle_alpha 90.
_cell_angle_beta 95.6891(23)
_cell_angle_gamma 90.
_cell_volume 493.34
_cell_formula_units_Z 2
_symmetry_space_group_name_H-M 'C 1 2/m 1'
_symmetry_Int_Tables_number 12
_refine_ls_R_factor_all 0.0444
loop_
_symmetry_equiv_pos_site_id
_symmetry_equiv_pos_as_xyz
1 '-x, y, -z'
2 '-x, -y, -z'
3 'x, -y, z'
4 'x, y, z'
5 '-x+1/2, y+1/2, -z'
6 '-x+1/2, -y+1/2, -z'
7 'x+1/2, -y+1/2, z'
8 'x+1/2, y+1/2, z'
loop_
_atom_type_symbol
_atom_type_oxidation_number
Ti4+ 4
Na1+ 1
O2- -2
loop_
_atom_site_label
_atom_site_type_symbol
_atom_site_symmetry_multiplicity
_atom_site_Wyckoff_symbol
_atom_site_fract_x
_atom_site_fract_y
_atom_site_fract_z
_atom_site_B_iso_or_equiv
_atom_site_occupancy
_atom_site_attached_hydrogens
Ti1 Ti4+ 2 a 0. 0. 0. 0.0052(7) 1. 0
Ti2 Ti4+ 4 i 0.70586(28) 0.5 0.0954(11) 0.0052(7) 1. 0
Ti3 Ti4+ 4 i 0.59509(26) 0. 0.8375(10) 0.0052(7) 1. 0
Na1 Na1+ 4 i 0.80854(27) 0. 0.4073(11) 0.0055(12) 0.9613 0
Na2 Na1+ 4 i 0.5972(5) 0.5 0.3224(21) 0.0168(20) 0.5939 0
Na3 Na1+ 4 i 0.9461(8) 0. 0.5844(34) 0.0168(20) 0.3706 0
Na4 Na1+ 2 d 0.5 0. 0.5 -0.055(4) 0.1001 0
O1 O2- 4 i 0.70411(15) 0. 0.2848(7) 0.00742(28) 1. 0
O2 O2- 4 i 0.78080(19) 0.5 0.1163(7) 0.00742(28) 1. 0
O3 O2- 4 i 0.54205(16) 0. 0.1222(7) 0.00742(28) 1. 0
O4 O2- 4 i 0.63411(16) 0.5 0.9894(7) 0.00742(28) 1. 0
O5 O2- 4 i 0.95501(15) 0. 0.2213(7) 0.00742(28) 1. 0
O6 O2- 4 i 0.37977(17) 0. 0.4028(7) 0.00742(28) 1. 0
#End of TTdata_251699-ICSD