
#(C) 2018 by FIZ Karlsruhe - Leibniz Institute for Information Infrastructure.  All rights reserved.
data_251656-ICSD
_database_code_ICSD 251656
_audit_creation_date 2016-02-01
_chemical_name_systematic 'Lithium tin sulfide (2/1/3)'
_chemical_formula_structural 'Li2 Sn S3'
_chemical_formula_sum 'Li2 S3 Sn1'
_chemical_name_structure_type Li2SnO3
_exptl_crystal_density_diffrn 3.51
_cell_measurement_temperature 296.
_publ_section_title

;
Fast lithium ion conduction in Li2SnS3: synthesis, physicochemical
characterization, and electronic structure
;
loop_
_citation_id
_citation_journal_full
_citation_year
_citation_journal_volume
_citation_page_first
_citation_page_last
_citation_journal_id_ASTM
primary 'Chemistry of Materials' 2015 27 189 196 CMATEX
loop_
_publ_author_name
'Brant, Jacilynn A.'
'Massi, Danielle M.'
'Holzwarth, N.A.W.'
'MacNeil, Joseph H.'
'Douvalis, Alexios P.'
'Bakas, Thomas'
'Martin, Steve W.'
'Gross, Michael D.'
'Aitken, Jennifer A.'
_cell_length_a 6.3964(5)
_cell_length_b 11.0864(9)
_cell_length_c 12.4048(10)
_cell_angle_alpha 90.
_cell_angle_beta 99.867(5)
_cell_angle_gamma 90.
_cell_volume 866.65
_cell_formula_units_Z 8
_symmetry_space_group_name_H-M 'C 1 2/c 1'
_symmetry_Int_Tables_number 15
_refine_ls_R_factor_all 0.0131
loop_
_symmetry_equiv_pos_site_id
_symmetry_equiv_pos_as_xyz
1 'x, -y, z+1/2'
2 '-x, -y, -z'
3 '-x, y, -z+1/2'
4 'x, y, z'
5 'x+1/2, -y+1/2, z+1/2'
6 '-x+1/2, -y+1/2, -z'
7 '-x+1/2, y+1/2, -z+1/2'
8 'x+1/2, y+1/2, z'
loop_
_atom_type_symbol
_atom_type_oxidation_number
Li1+ 1
Sn4+ 4
S2- -2
loop_
_atom_site_label
_atom_site_type_symbol
_atom_site_symmetry_multiplicity
_atom_site_Wyckoff_symbol
_atom_site_fract_x
_atom_site_fract_y
_atom_site_fract_z
_atom_site_B_iso_or_equiv
_atom_site_occupancy
_atom_site_attached_hydrogens
Li1 Li1+ 8 f 0.2466(5) 0.0840(3) -0.0006(3) 0.0097(9) 1 0
Li2 Li1+ 4 e 0. 0.417(3) 0.25 0.0182(15) 1 0
Li3 Li1+ 4 d 0.25 0.25 0.5 0.0296(16) 1 0
Sn1 Sn4+ 4 e 0. 0.08333(12) 0.25 0.00819(7) 1 0
Sn2 Sn4+ 4 e 0. 0.74989(12) 0.25 0.00806(7) 1 0
S1 S2- 8 f 0.11158(9) 0.0831(4) 0.63122(4) 0.01032(12) 1 0
S2 S2- 8 f 0.13553(9) 0.2418(4) 0.13117(5) 0.0102(3) 1 0
S3 S2- 8 f 0.36516(9) 0.0920(4) 0.37087(5) 0.0104(4) 1 0
loop_
_atom_site_aniso_label
_atom_site_aniso_type_symbol
_atom_site_aniso_U_11
_atom_site_aniso_U_22
_atom_site_aniso_U_33
_atom_site_aniso_U_12
_atom_site_aniso_U_13
_atom_site_aniso_U_23
Li2 Li1+ 0.014(3) 0.018(4) 0.024(3) 0. 0.007(2) 0.
Li3 Li1+ 0.031(3) 0.031(4) 0.027(3) 0.000(3) 0.007(3) -0.012(3)
Sn1 Sn4+ 0.00776(11) 0.00735(12) 0.00953(11) 0. 0.00170(8) 0.
Sn2 Sn4+ 0.00746(11) 0.00735(13) 0.00942(12) 0. 0.00159(8) 0.
S1 S2- 0.0131(3) 0.0086(3) 0.0101(3) 0.0005(7) 0.0045(2) -0.0005(4)
S2 S2- 0.0091(3) 0.0105(10) 0.0105(3) -0.0009(4) 0.0002(2) 0.0027(4)
S3 S2- 0.0091(3) 0.0115(10) 0.0101(3) -0.0011(4) 0.0004(2) 0.0019(5)
#End of TTdata_251656-ICSD