
#(C) 2019 by FIZ Karlsruhe - Leibniz Institute for Information Infrastructure.  All rights reserved.
data_251862-ICSD
_database_code_ICSD 251862
_audit_creation_date 2016-02-01
_chemical_name_systematic 'Sodium cobalt dichromium tris(phosphate)'
_chemical_formula_structural 'Na Co Cr2 (P O4)3'
_chemical_formula_sum 'Co1 Cr2 Na1 O12 P3'
_chemical_name_structure_type SrFe3(PO4)3
_exptl_crystal_density_diffrn 3.62
_cell_measurement_temperature 293.
_publ_section_title

;
Novel mixed cobalt/chromium phosphate NaCoCr2(PO4)3 showing spin-flop
transition
;
loop_
_citation_id
_citation_journal_full
_citation_year
_citation_journal_volume
_citation_page_first
_citation_page_last
_citation_journal_id_ASTM
primary 'Inorganic Chemistry' 2015 54 7345 7352 INOCAJ
loop_
_publ_author_name
'Souiwa, Khalifa'
'Chennabasappa, Madhu'
'Decourt, Rodolphe'
'Ben Amara, Mongi'
'Hidouri, Mourad'
'Toulemonde, Olivier'
_cell_length_a 10.411(1)
_cell_length_b 13.028(1)
_cell_length_c 6.376(1)
_cell_angle_alpha 90.
_cell_angle_beta 90.
_cell_angle_gamma 90.
_cell_volume 864.81
_cell_formula_units_Z 4
_symmetry_space_group_name_H-M 'I m m a'
_symmetry_Int_Tables_number 74
_refine_ls_R_factor_all 0.0158
loop_
_symmetry_equiv_pos_site_id
_symmetry_equiv_pos_as_xyz
1 '-x, y+1/2, -z'
2 '-x, -y+1/2, z'
3 '-x, y, z'
4 '-x, -y, -z'
5 'x, -y+1/2, z'
6 'x, y+1/2, -z'
7 'x, -y, -z'
8 'x, y, z'
9 '-x+1/2, y, -z+1/2'
10 '-x+1/2, -y, z+1/2'
11 '-x+1/2, y+1/2, z+1/2'
12 '-x+1/2, -y+1/2, -z+1/2'
13 'x+1/2, -y, z+1/2'
14 'x+1/2, y, -z+1/2'
15 'x+1/2, -y+1/2, -z+1/2'
16 'x+1/2, y+1/2, z+1/2'
loop_
_atom_type_symbol
_atom_type_oxidation_number
Na1+ 1
Cr3+ 3
Co2+ 2
P5+ 5
O2- -2
loop_
_atom_site_label
_atom_site_type_symbol
_atom_site_symmetry_multiplicity
_atom_site_Wyckoff_symbol
_atom_site_fract_x
_atom_site_fract_y
_atom_site_fract_z
_atom_site_B_iso_or_equiv
_atom_site_occupancy
_atom_site_attached_hydrogens
Na1 Na1+ 4 e 0 0.25 0.4078(9) 1.944(2) 1. 0
Cr1 Cr3+ 4 a 0 0 0 0.108(7) 1. 0
Cr2 Cr3+ 8 g 0.25 0.6336(1) 0.25 0.349(4) 0.5 0
Co1 Co2+ 8 g 0.25 0.6336(1) 0.25 0.349(4) 0.5 0
P1 P5+ 4 e 0 0.25 0.9157(7) 0.869(2) 1. 0
P2 P5+ 8 g 0.25 0.4258(4) 0.25 0.227(7) 1. 0
O1 O2- 8 h 0 0.6546(4) 0.9471(8) 0.372(2) 1. 0
O2 O2- 8 i 0.8852(5) 0.25 0.7714(2) 1.412(2) 1. 0
O3 O2- 16 j 0.2132(3) 0.3630(3) 0.4336(5) 0.112(2) 1. 0
O4 O2- 16 j 0.1363(3) 0.5053(3) 0.2179(5) 0.666(2) 1. 0
#End of TTdata_251862-ICSD