
#(C) 2019 by FIZ Karlsruhe - Leibniz Institute for Information Infrastructure.  All rights reserved.
data_251932-ICSD
_database_code_ICSD 251932
_audit_creation_date 2016-02-01
_chemical_name_systematic 'Sodium titanium gallium oxide (0.85/0.511/4.369/8)'
_chemical_formula_structural 'Na0.85 (Ti0.511 Ga4.369) O8'
_chemical_formula_sum 'Ga4.369 Na0.85 O8 Ti0.511'
_exptl_crystal_density_diffrn 5.42
_cell_measurement_temperature 293.
_publ_section_title

;
Structure and ionic conductivity of well-aligned polycrystalline sodium
titanogallate grown by reactive diffusion
;
loop_
_citation_id
_citation_journal_full
_citation_year
_citation_journal_volume
_citation_page_first
_citation_page_last
_citation_journal_id_ASTM
primary 'Journal of Solid State Chemistry' 2015 229 252 259 JSSCBI
loop_
_publ_author_name
'Hasegawa, Ryo'
'Okabe, Momoko'
'Asaka, Toru'
'Ishizawa, Nobuo'
'Fukuda, Koichiro'
_cell_length_a 12.3463(3)
_cell_length_b 2.9855(1)
_cell_length_c 9.4088(2)
_cell_angle_alpha 90
_cell_angle_beta 122.566(1)
_cell_angle_gamma 90
_cell_volume 292.27
_cell_formula_units_Z 2
_symmetry_space_group_name_H-M 'C 1 2/m 1'
_symmetry_Int_Tables_number 12
_refine_ls_R_factor_all 0.0205
loop_
_symmetry_equiv_pos_site_id
_symmetry_equiv_pos_as_xyz
1 '-x, y, -z'
2 '-x, -y, -z'
3 'x, -y, z'
4 'x, y, z'
5 '-x+1/2, y+1/2, -z'
6 '-x+1/2, -y+1/2, -z'
7 'x+1/2, -y+1/2, z'
8 'x+1/2, y+1/2, z'
loop_
_atom_type_symbol
_atom_type_oxidation_number
Na1+ 1
Ga3+ 3
Ti4+ 4
O2- -2
loop_
_atom_site_label
_atom_site_type_symbol
_atom_site_symmetry_multiplicity
_atom_site_Wyckoff_symbol
_atom_site_fract_x
_atom_site_fract_y
_atom_site_fract_z
_atom_site_B_iso_or_equiv
_atom_site_occupancy
_atom_site_attached_hydrogens
Na1 Na1+ 4 i 0.2485(18) 0 0.026(3) 0.074(4) 0.425(7) 0
Ga1 Ga3+ 4 i 0.24368(4) 0 0.64253(5) 0.0079(2) 1 0
Ga2 Ga3+ 4 i 0.47620(5) 0 0.30169(6) 0.0097(2) 0.8796(17) 0
Ga3 Ga3+ 2 d 0 0.5 0.5 0.0028(12) 0.1204(17) 0
Ga4 Ga3+ 2 a 0 0 0 0.0086(4) 0.489(8) 0
Ti1 Ti4+ 2 a 0 0 0 0.0086(4) 0.511(8) 0
O1 O2- 4 i 0.1026(3) 0 0.6820(3) 0.0111(12) 1 0
O2 O2- 4 i 0.3507(2) 0 0.5355(3) 0.0068(11) 1 0
O3 O2- 4 i 0.1687(3) 0 0.2133(3) 0.0082(11) 1 0
O4 O2- 4 i 0.4443(3) 0 0.0851(3) 0.0086(11) 1 0
loop_
_atom_site_aniso_label
_atom_site_aniso_type_symbol
_atom_site_aniso_U_11
_atom_site_aniso_U_22
_atom_site_aniso_U_33
_atom_site_aniso_U_12
_atom_site_aniso_U_13
_atom_site_aniso_U_23
Na1 Na1+ 0.048(4) 0.104(7) 0.094(6) 0 0.055(4) 0
Ga1 Ga3+ 0.0100(3) 0.0065(3) 0.0090(3) 0 0.0063(2) 0
Ga2 Ga3+ 0.0077(3) 0.0153(3) 0.0081(3) 0 0.0056(2) 0
Ga4 Ga3+ 0.0112(5) 0.0071(5) 0.0068(4) 0 0.0044(3) 0
Ti1 Ti4+ 0.0112(5) 0.0071(5) 0.0068(4) 0 0.0044(3) 0
O1 O2- 0.0116(13) 0.0099(15) 0.0155(14) 0 0.0097(11) 0
O2 O2- 0.0069(12) 0.0076(15) 0.0070(12) 0 0.0044(10) 0
O3 O2- 0.0109(13) 0.0058(15) 0.0082(12) 0 0.0053(11) 0
O4 O2- 0.0091(13) 0.0114(15) 0.0060(12) 0 0.0046(10) 0
#End of TTdata_251932-ICSD