
#(C) 2019 by FIZ Karlsruhe - Leibniz Institute for Information Infrastructure.  All rights reserved.
data_252052-ICSD
_database_code_ICSD 252052
_audit_creation_date 2016-02-01
_chemical_name_systematic 'Sodium manganese(II) sulfate (2.74/1.86/3)'
_chemical_formula_structural 'Na2.74 Mn1.86 (S O4)3'
_chemical_formula_sum 'Mn1.86 Na2.74 O12 S3'
_exptl_crystal_density_diffrn 3.07
_publ_section_title

;
From kroehnkite- to alluaudite-type of structure: Novel method of synthesis of
sodium manganese sulfates with electrochemical properties in alkali-metal ion
batteries
;
loop_
_citation_id
_citation_journal_full
_citation_year
_citation_journal_volume
_citation_page_first
_citation_page_last
_citation_journal_id_ASTM
primary
'Journal of Materials Chemistry A: Materials for Energy and Sustainability' 2015 3 22287 22299 JMCAET
loop_
_publ_author_name
'Marinova, D.'
'Kostov, V.'
'Nikolova, R.'
'Kukeva, R.'
'Zhecheva, E.'
'Sendova-Vasileva, M.'
'Stoyanova, R.'
_cell_length_a 11.541(1)
_cell_length_b 12.944(1)
_cell_length_c 6.5875(6)
_cell_angle_alpha 90.
_cell_angle_beta 95.149(3)
_cell_angle_gamma 90.
_cell_volume 980.11
_cell_formula_units_Z 4
_symmetry_space_group_name_H-M 'P 1 21/c 1'
_symmetry_Int_Tables_number 14
_refine_ls_R_factor_all 0.0478
loop_
_symmetry_equiv_pos_site_id
_symmetry_equiv_pos_as_xyz
1 'x, -y+1/2, z+1/2'
2 '-x, -y, -z'
3 '-x, y+1/2, -z+1/2'
4 'x, y, z'
loop_
_atom_type_symbol
_atom_type_oxidation_number
Na1+ 1
Mn2+ 2
S6+ 6
O2- -2
S6+ 6
O2- -2
S6+ 6
O2- -2
loop_
_atom_site_label
_atom_site_type_symbol
_atom_site_symmetry_multiplicity
_atom_site_Wyckoff_symbol
_atom_site_fract_x
_atom_site_fract_y
_atom_site_fract_z
_atom_site_B_iso_or_equiv
_atom_site_occupancy
_atom_site_attached_hydrogens
Na1 Na1+ 4 e 0.2393(17) 0.5216(6) 0.4912(30) 1.81(33) 1. 0
Na2 Na1+ 4 e 0.7651(26) 0.2518(25) 0.2967(35) 17.94(78) 0.853(13) 0
Na3 Na1+ 4 e 0.2340(17) 0.2297(11) 0.4471(26) 10.07(56) 0.887(11) 0
Mn1 Mn2+ 4 e 0.4719(5) 0.0949(4) 0.3290(9) 4.42(16) 0.908(8) 0
Mn2 Mn2+ 4 e 0.0190(5) 0.4073(4) 0.1564(9) 4.42(16) 0.954(8) 0
S1 S6+ 4 e 0.0273(11) 0.1335(8) 0.1151(16) 2.06(16) 1. 0
O1 O2- 4 e 0.9129(21) 0.1795(17) 0.100(4) 1.517(16) 1. 0
O2 O2- 4 e 0.0892(23) 0.0940(17) 0.9417(34) 1.517(16) 1. 0
O3 O2- 4 e 0.0201(22) 0.0908(21) 0.3473(32) 1.517(16) 1. 0
O4 O2- 4 e 0.0570(19) 0.2436(21) 0.1989(30) 1.517(16) 1. 0
S2 S6+ 4 e 0.4983(11) 0.3505(10) 0.3304(18) 2.06(16) 1. 0
O5 O2- 4 e 0.4765(20) 0.4239(22) 0.185(4) 1.517(16) 1. 0
O6 O2- 4 e 0.4189(20) 0.2522(22) 0.3056(34) 1.517(16) 1. 0
O7 O2- 4 e 0.4192(22) 0.4127(18) 0.4481(32) 1.517(16) 1. 0
O8 O2- 4 e 0.6072(20) 0.3476(15) 0.4804(34) 1.517(16) 1. 0
S3 S6+ 4 e 0.2461(16) 0.5310(7) 1.0007(24) 2.06(16) 1. 0
O9 O2- 4 e 0.1583(18) 0.6074(23) 0.8785(33) 1.517(16) 1. 0
O10 O2- 4 e 0.1873(20) 0.4539(16) 0.1162(35) 1.517(16) 1. 0
O11 O2- 4 e 0.2957(21) 0.4715(17) 0.8141(33) 1.517(16) 1. 0
O12 O2- 4 e 0.3145(17) 0.5893(21) 0.124(4) 1.517(16) 1. 0
#End of TTdata_252052-ICSD