
#(C) 2019 by FIZ Karlsruhe - Leibniz Institute for Information Infrastructure.  All rights reserved.
data_252142-ICSD
_database_code_ICSD 252142
_audit_creation_date 2016-08-01
_chemical_name_systematic 'Sodium indium germanium sulfide (2/2/1/6)'
_chemical_formula_structural 'Na2 In2 Ge S6'
_chemical_formula_sum 'Ge1 In2 Na2 S6'
_chemical_name_structure_type Cd4GeS6
_exptl_crystal_density_diffrn 3.26
_cell_measurement_temperature 293.
_publ_section_title

;
Syntheses, structures, and nonlinear optical properties of two sulfides Na2
In2 M S6 (M = Si, Ge)
;
loop_
_citation_id
_citation_journal_full
_citation_year
_citation_journal_volume
_citation_page_first
_citation_page_last
_citation_journal_id_ASTM
primary 'Inorganic Chemistry' 2016 55 1480 1485 INOCAJ
loop_
_publ_author_name
'Li, Shu-Fang'
'Liu, Bin-Wen'
'Zhang, Ming-Jian'
'Fan, Yu-Hang'
'Zeng, Hui-Yi'
'Guo, Guo-Cong'
_cell_length_a 12.169(5)
_cell_length_b 7.819(3)
_cell_length_c 12.235(6)
_cell_angle_alpha 90.
_cell_angle_beta 108.645(6)
_cell_angle_gamma 90.
_cell_volume 1103.05
_cell_formula_units_Z 4
_symmetry_space_group_name_H-M 'C 1 c 1'
_symmetry_Int_Tables_number 9
_refine_ls_R_factor_all 0.0292
loop_
_symmetry_equiv_pos_site_id
_symmetry_equiv_pos_as_xyz
1 'x, -y, z+1/2'
2 'x, y, z'
3 'x+1/2, -y+1/2, z+1/2'
4 'x+1/2, y+1/2, z'
loop_
_atom_type_symbol
_atom_type_oxidation_number
Na1+ 1
In3+ 3
Ge4+ 4
S2- -2
loop_
_atom_site_label
_atom_site_type_symbol
_atom_site_symmetry_multiplicity
_atom_site_Wyckoff_symbol
_atom_site_fract_x
_atom_site_fract_y
_atom_site_fract_z
_atom_site_B_iso_or_equiv
_atom_site_occupancy
_atom_site_attached_hydrogens
Na1 Na1+ 4 a 0.2806(5) 0.1871(9) 0.8433(6) 0.073(2) 1 0
Na2 Na1+ 4 a -0.0001(4) 0.0731(6) 0.0000(4) 0.0380(13) 1 0
In1 In3+ 4 a 0.46525(5) 0.07913(9) 0.19318(5) 0.01806(19) 1 0
In2 In3+ 4 a 0.14824(6) 0.43455(9) 0.49806(6) 0.0191(2) 1 0
Ge1 Ge4+ 4 a 0.21045(9) 0.27783(12) 0.24851(10) 0.0150(3) 1 0
S1 S2- 4 a 0.4841(2) 0.2222(3) 0.0243(2) 0.0197(6) 1 0
S2 S2- 4 a 0.5853(2) 0.1936(3) 0.3784(3) 0.0208(6) 1 0
S3 S2- 4 a 0.0193(2) 0.2728(3) 0.1992(3) 0.0224(6) 1 0
S4 S2- 4 a 0.2869(2) 0.5021(4) 0.1921(3) 0.0267(7) 1 0
S5 S2- 4 a 0.2552(2) 0.0454(3) 0.1657(2) 0.0200(6) 1 0
S6 S2- 4 a 0.2819(2) 0.2485(4) 0.4374(2) 0.0207(6) 1 0
loop_
_atom_site_aniso_label
_atom_site_aniso_type_symbol
_atom_site_aniso_U_11
_atom_site_aniso_U_22
_atom_site_aniso_U_33
_atom_site_aniso_U_12
_atom_site_aniso_U_13
_atom_site_aniso_U_23
Na1 Na1+ 0.036(3) 0.089(5) 0.076(5) 0.020(3) -0.007(3) -0.044(4)
Na2 Na1+ 0.048(3) 0.030(3) 0.038(4) -0.005(2) 0.017(3) -0.002(2)
In1 In3+ 0.0163(4) 0.0218(4) 0.0171(4) 0.0025(3) 0.0068(3) 0.0011(3)
In2 In3+ 0.0201(4) 0.0210(4) 0.0172(5) 0.0011(3) 0.0071(3) -0.0001(3)
Ge1 Ge4+ 0.0131(5) 0.0168(5) 0.0146(6) 0.0017(4) 0.0033(4) -0.0003(4)
S1 S2- 0.0242(14) 0.0241(13) 0.0170(15) 0.0044(11) 0.0153(11) 0.0067(11)
S2 S2- 0.0270(14) 0.0185(12) 0.0170(14) 0.0006(10) 0.0071(11) -0.0043(11)
S3 S2- 0.0105(12) 0.0216(13) 0.0330(17) 0.0000(10) 0.0040(11) -0.0010(12)
S4 S2- 0.0228(14) 0.0244(14) 0.0263(17) -0.0065(11) -0.0012(12) 0.0048(12)
S5 S2- 0.0135(12) 0.0188(13) 0.0268(16) 0.0019(10) 0.0052(11) -0.0014(11)
S6 S2- 0.0237(13) 0.0344(14) 0.0072(14) 0.0104(11) 0.0093(10) 0.0031(11)
#End of TTdata_252142-ICSD