
#(C) 2019 by FIZ Karlsruhe - Leibniz Institute for Information Infrastructure.  All rights reserved.
data_252180-ICSD
_database_code_ICSD 252180
_audit_creation_date 2016-08-01
_chemical_name_systematic
'Sodium-1.4 manganese-0.3 triiron(II/III) tris(vanadate(V))'
_chemical_formula_structural 'Na1.40 Mn0.30 Fe3 (V O4)3'
_chemical_formula_sum 'Fe3 Mn0.3 Na1.4 O12 V3'
_chemical_name_structure_type Alluaudite
_exptl_crystal_density_diffrn 3.84
_cell_measurement_temperature 296.
_publ_section_title

;
Crystal structure of (Na0.70) (Na0.70,Mn0.30) (Fe3+,-Fe2+)2 Fe2+ (VO4)3, a
sodium- iron- and manganese-based vanadate with the alluaudite-type structure
;
loop_
_citation_id
_citation_journal_full
_citation_year
_citation_journal_volume
_citation_page_first
_citation_page_last
_citation_journal_id_ASTM
primary 'Acta Crystallographica, Section E: Crystallographic Communications'
2016 72 220 222 ACSECI
loop_
_publ_author_name
'Benhsina, Elhassan'
'Assani, Abderrazzak'
'Saadi, Mohamed'
'El Ammari, Lahcen'
_cell_length_a 11.9512(5)
_cell_length_b 12.9022(5)
_cell_length_c 6.7756(3)
_cell_angle_alpha 90
_cell_angle_beta 111.6780(10)
_cell_angle_gamma 90
_cell_volume 970.88
_cell_formula_units_Z 4
_symmetry_space_group_name_H-M 'C 1 2/c 1'
_symmetry_Int_Tables_number 15
_refine_ls_R_factor_all 0.0202
loop_
_symmetry_equiv_pos_site_id
_symmetry_equiv_pos_as_xyz
1 'x, -y, z+1/2'
2 '-x, -y, -z'
3 '-x, y, -z+1/2'
4 'x, y, z'
5 'x+1/2, -y+1/2, z+1/2'
6 '-x+1/2, -y+1/2, -z'
7 '-x+1/2, y+1/2, -z+1/2'
8 'x+1/2, y+1/2, z'
loop_
_atom_type_symbol
_atom_type_oxidation_number
Fe2+ 2.5
Fe2+ 2
V5+ 5
Mn2+ 2
Na1+ 1
O2- -2
loop_
_atom_site_label
_atom_site_type_symbol
_atom_site_symmetry_multiplicity
_atom_site_Wyckoff_symbol
_atom_site_fract_x
_atom_site_fract_y
_atom_site_fract_z
_atom_site_B_iso_or_equiv
_atom_site_occupancy
_atom_site_attached_hydrogens
Fe1 Fe2+ 8 f 0.28812(3) 0.65986(2) 0.87842(4) 0.00988(7) 1 0
Fe2 Fe2+ 4 e 0. 0.73519(3) 0.25 0.01105(9) 1 0
V1 V5+ 8 f 0.26720(3) 0.61038(2) 0.37946(5) 0.00884(7) 1 0
V2 V5+ 4 e 0. 0.71081(4) 0.75 0.01126(10) 1 0
Mn1 Mn2+ 4 b 0. 0.5 0.5 0.0136(8) 0.3 0
Na1 Na1+ 4 b 0. 0.5 0.5 0.0420(18) 0.7 0
Na2 Na1+ 4 e 0.5 0.4890(3) 0.75 0.0432(7) 0.7 0
O1 O2- 8 f 0.12025(14) 0.59837(11) 0.3264(3) 0.0151(3) 1 0
O2 O2- 8 f 0.28070(14) 0.68158(12) 0.1709(2) 0.0160(3) 1 0
O3 O2- 8 f 0.33564(14) 0.67141(12) 0.6228(2) 0.0148(3) 1 0
O4 O2- 8 f 0.11010(16) 0.62915(12) 0.7570(3) 0.0194(3) 1 0
O5 O2- 8 f 0.03980(14) 0.78286(12) 0.9783(2) 0.0138(3) 1 0
O6 O2- 8 f 0.33208(16) 0.49277(13) 0.3977(3) 0.0189(3) 1 0
loop_
_atom_site_aniso_label
_atom_site_aniso_type_symbol
_atom_site_aniso_U_11
_atom_site_aniso_U_22
_atom_site_aniso_U_33
_atom_site_aniso_U_12
_atom_site_aniso_U_13
_atom_site_aniso_U_23
Fe1 Fe2+ 0.01049(13) 0.01185(12) 0.00849(13) -0.00026(9) 0.00491(10) -0.00052(9)
Fe2 Fe2+ 0.00964(17) 0.01269(17) 0.01294(19) 0. 0.00665(14) 0.
V1 V5+ 0.00876(14) 0.01060(14) 0.00697(15) -0.00061(10) 0.00267(11) -0.00072(10)
V2 V5+ 0.0160(2) 0.00896(18) 0.0073(2) 0. 0.00244(16) 0.
Mn1 Mn2+ 0.0196(17) 0.0093(18) 0.0073(18) -0.0076(13) -0.0005(14) 0.0011(13)
Na1 Na1+ 0.059(4) 0.027(4) 0.033(4) -0.001(3) 0.009(3) -0.001(3)
Na2 Na1+ 0.0216(12) 0.0687(19) 0.0345(14) 0. 0.0047(10) 0.
O1 O2- 0.0108(6) 0.0137(6) 0.0201(8) -0.0008(5) 0.0049(6) -0.0013(5)
O2 O2- 0.0160(7) 0.0203(7) 0.0119(7) -0.0020(5) 0.0053(6) -0.0005(5)
O3 O2- 0.0176(7) 0.0142(6) 0.0117(7) -0.0049(5) 0.0043(5) -0.0007(5)
O4 O2- 0.0234(8) 0.0136(6) 0.0163(7) 0.0027(6) 0.0015(6) -0.0045(5)
O5 O2- 0.0116(6) 0.0177(6) 0.0124(7) 0.0003(5) 0.0048(5) 0.0003(5)
O6 O2- 0.0173(7) 0.0200(7) 0.0191(8) 0.0024(6) 0.0063(6) -0.0056(6)
#End of TTdata_252180-ICSD