
#(C) 2019 by FIZ Karlsruhe - Leibniz Institute for Information Infrastructure.  All rights reserved.
data_252117-ICSD
_database_code_ICSD 252117
_audit_creation_date 2016-08-01
_chemical_name_systematic 'Terbium sodium bis(sulfate) aqua'
_chemical_formula_structural '(Tb Na (S O4)2 (H2 O))'
_chemical_formula_sum 'H2 Na1 O9 S2 Tb1'
_chemical_name_structure_type CeNa(SO4)2H2O
_exptl_crystal_density_diffrn 3.76
_cell_measurement_temperature 296.
_publ_section_title

;
Three rare Ln-Na heterometallic 3D polymers based on sulfate anion: Syntheses,
structures, and luminescence properties
;
loop_
_citation_id
_citation_journal_full
_citation_year
_citation_journal_volume
_citation_page_first
_citation_page_last
_citation_journal_id_ASTM
primary 'Inorganic Chemistry Communications' 2016 63 16 19 ICCOFP
loop_
_publ_author_name
'Zhai, Bin'
'Li, Zhongyi'
'Zhang, Chi'
'Zhang, Fuli'
'Zhang, Xiangfei'
'Zhang, Fuqiang'
'Cao, Guangxiu'
'Li, Suzhi'
'Yang, Xiaoyan'
_cell_length_a 6.8580(2)
_cell_length_b 6.8580(2)
_cell_length_c 12.7469(6)
_cell_angle_alpha 90.
_cell_angle_beta 90.
_cell_angle_gamma 120.
_cell_volume 519.19
_cell_formula_units_Z 3
_symmetry_space_group_name_H-M 'P 31 2 1'
_symmetry_Int_Tables_number 152
_refine_ls_R_factor_all 0.0181
loop_
_symmetry_equiv_pos_site_id
_symmetry_equiv_pos_as_xyz
1 'x-y, -y, -z+2/3'
2 '-x, -x+y, -z+1/3'
3 'y, x, -z'
4 '-x+y, -x, z+2/3'
5 '-y, x-y, z+1/3'
6 'x, y, z'
loop_
_atom_type_symbol
_atom_type_oxidation_number
Tb3+ 3
S6+ 6
Na1+ 1
O2- -2
H1+ 1
loop_
_atom_site_label
_atom_site_type_symbol
_atom_site_symmetry_multiplicity
_atom_site_Wyckoff_symbol
_atom_site_fract_x
_atom_site_fract_y
_atom_site_fract_z
_atom_site_B_iso_or_equiv
_atom_site_occupancy
_atom_site_attached_hydrogens
Tb1 Tb3+ 3 b 0.56408(5) 0.56408(5) 0.5 0.00725(10) 1 0
S1 S6+ 6 c 0.54423(19) 0.5575(2) 0.74180(7) 0.0077(2) 1 0
Na1 Na1+ 3 a 0.4699(5) 1. 0.3333 0.0166(6) 1 0
O1 O2- 6 c 0.7409(6) 0.6142(6) 0.6738(3) 0.0133(8) 1 0
O2 O2- 6 c 0.3540(7) 0.4873(7) 0.6686(2) 0.0136(9) 1 0
O3 O2- 3 b 0.9176(12) 0.9176(12) 0.5 0.046(3) 1 0
O4 O2- 6 c 0.5066(7) 0.3797(7) 0.8161(3) 0.0153(10) 1 0
O5 O2- 6 c 0.5844(6) 0.7555(6) 0.8026(3) 0.0142(8) 1 0
H1 H1+ 6 c 0.927(12) 1.029(7) 0.466(4) 0.017 1 0
loop_
_atom_site_aniso_label
_atom_site_aniso_type_symbol
_atom_site_aniso_U_11
_atom_site_aniso_U_22
_atom_site_aniso_U_33
_atom_site_aniso_U_12
_atom_site_aniso_U_13
_atom_site_aniso_U_23
Tb1 Tb3+ 0.00776(14) 0.00776(14) 0.00677(14) 0.00429(19) -0.00013(7) 0.00013(7)
S1 S6+ 0.0094(5) 0.0077(5) 0.0073(4) 0.0052(5) 0.0002(4) -0.0001(4)
Na1 Na1+ 0.0187(12) 0.0104(17) 0.0180(13) 0.0052(8) 0.0005(6) 0.0010(12)
O1 O2- 0.0091(18) 0.018(2) 0.0127(15) 0.0073(17) 0.0039(13) 0.0012(13)
O2 O2- 0.0112(18) 0.016(2) 0.0138(17) 0.0071(17) -0.0025(12) -0.0012(14)
O3 O2- 0.017(3) 0.017(3) 0.100(7) 0.005(3) -0.011(2) 0.011(2)
O4 O2- 0.021(3) 0.0108(18) 0.0149(15) 0.0088(18) 0.0014(15) 0.0060(14)
O5 O2- 0.018(2) 0.009(2) 0.0163(17) 0.0079(17) 0.0008(14) -0.0044(14)
#End of TTdata_252117-ICSD