
#(C) 2019 by FIZ Karlsruhe - Leibniz Institute for Information Infrastructure.  All rights reserved.
data_252409-ICSD
_database_code_ICSD 252409
_audit_creation_date 2016-08-01
_chemical_name_systematic 'Sodium-2.75 iron(II)-1.75 trisulfate'
_chemical_formula_structural 'Na2.5 Fe1.75 (S O4)3'
_chemical_formula_sum 'Fe1.75 Na2.5 O12 S3'
_exptl_crystal_density_diffrn 3.05
_cell_measurement_temperature 600.
_publ_section_title

;
High-temperature neutron and X-ray diffraction study of fast sodium transport
in alluaudite-type sodium iron sulfate
;
loop_
_citation_id
_citation_journal_full
_citation_year
_citation_journal_volume
_citation_page_first
_citation_page_last
_citation_journal_id_ASTM
primary 'Chemistry of Materials' 2016 28 2393 2399 CMATEX
loop_
_publ_author_name
'Nishimura, Shin-ichi'
'Suzuki, Yuya'
'Lu, Jiechen'
'Torii, Shuki'
'Kamiyama, Takashi'
'Yamada, Atsuo'
_cell_length_a 12.74760(16)
_cell_length_b 12.83860(15)
_cell_length_c 6.53053(8)
_cell_angle_alpha 90
_cell_angle_beta 115.5333(5)
_cell_angle_gamma 90
_cell_volume 964.41
_cell_formula_units_Z 4
_symmetry_space_group_name_H-M 'C 1 2/c 1'
_symmetry_Int_Tables_number 15
_refine_ls_R_factor_all 0.0205
loop_
_symmetry_equiv_pos_site_id
_symmetry_equiv_pos_as_xyz
1 'x, -y, z+1/2'
2 '-x, -y, -z'
3 '-x, y, -z+1/2'
4 'x, y, z'
5 'x+1/2, -y+1/2, z+1/2'
6 '-x+1/2, -y+1/2, -z'
7 '-x+1/2, y+1/2, -z+1/2'
8 'x+1/2, y+1/2, z'
loop_
_atom_type_symbol
_atom_type_oxidation_number
Fe2+ 2
Na1+ 1
S6+ 6
O2- -2
S6+ 6
O2- -2
Na1+ 1
loop_
_atom_site_label
_atom_site_type_symbol
_atom_site_symmetry_multiplicity
_atom_site_Wyckoff_symbol
_atom_site_fract_x
_atom_site_fract_y
_atom_site_fract_z
_atom_site_B_iso_or_equiv
_atom_site_occupancy
_atom_site_attached_hydrogens
Fe1 Fe2+ 8 f 0.73149(7) 0.15709(7) 0.14713(15) 1.71(4) 0.875 0
Na1 Na1+ 8 f 0.73149(7) 0.15709(7) 0.14713(15) 1.71(4) 0.125 0
S1 S6+ 4 e 0.5 0.27415(16) 0.75 1.26(6) 1. 0
O1 O2- 8 f 0.0838(2) 0.8440(2) 0.7157(5) 2.26(9) 1. 0
O2 O2- 8 f 0.4449(2) 0.2070(2) 0.5468(5) 1.81(10) 1. 0
S2 S6+ 8 f 0.75968(14) 0.60179(11) 0.8682(3) 1.70(5) 1. 0
O3 O2- 8 f 0.7642(2) 0.6698(2) 0.6850(5) 1.07(8) 1. 0
O4 O2- 8 f 0.3192(3) -0.0041(3) 0.3770(5) 2.90(9) 1. 0
O5 O2- 8 f 0.3241(3) 0.1566(2) 0.0830(5) 1.90(8) 1. 0
O6 O2- 8 f 0.1392(3) 0.0867(2) 0.8291(5) 3.28(11) 1. 0
Na2 Na1+ 4 e 0 0.2350(2) 0.75 3.19(9) 1. 0
Na3 Na1+ 8 f 0.0141(7) -0.0023(6) -0.0370(12) 2.87(17) 0.35 0
Na4 Na1+ 8 f -0.0024(16) 0.4868(6) 0.291(2) 6.4(3) 0.275 0
#End of TTdata_252409-ICSD