
#(C) 2019 by FIZ Karlsruhe - Leibniz Institute for Information Infrastructure.  All rights reserved.
data_252814-ICSD
_database_code_ICSD 252814
_audit_creation_date 2017-08-01
_chemical_name_systematic 'Copper(I) sodium iridium(IV) oxide (3/1/2/6)'
_chemical_formula_structural 'Cu3 (Na Ir2) O6'
_chemical_formula_sum 'Cu3 Ir2 Na1 O6'
_exptl_crystal_density_diffrn 8.12
_cell_measurement_temperature 5.
_publ_section_title
'Iridium containing honeycomb Delafossites by topotactic cation exchange'
loop_
_citation_id
_citation_journal_full
_citation_year
_citation_journal_volume
_citation_page_first
_citation_page_last
_citation_journal_id_ASTM
primary 'Dalton Transactions' 2016 45 8783 8789 DTARAF
loop_
_publ_author_name
'Roudebush, John H.'
'Ross, K.A.'
'Cava, R.J.'
_cell_length_a 5.3882(1)
_cell_length_b 9.2908(2)
_cell_length_c 11.5196(2)
_cell_angle_alpha 90
_cell_angle_beta 99.050(3)
_cell_angle_gamma 90
_cell_volume 569.5
_cell_formula_units_Z 4
_symmetry_space_group_name_H-M 'C 1 2/c 1'
_symmetry_Int_Tables_number 15
_refine_ls_R_factor_all 0.0775
loop_
_symmetry_equiv_pos_site_id
_symmetry_equiv_pos_as_xyz
1 'x, -y, z+1/2'
2 '-x, -y, -z'
3 '-x, y, -z+1/2'
4 'x, y, z'
5 'x+1/2, -y+1/2, z+1/2'
6 '-x+1/2, -y+1/2, -z'
7 '-x+1/2, y+1/2, -z+1/2'
8 'x+1/2, y+1/2, z'
loop_
_atom_type_symbol
_atom_type_oxidation_number
Cu1+ 1
Ir4+ 4
Na1+ 1
Ir4+ 4
Na1+ 1
O2- -2
loop_
_atom_site_label
_atom_site_type_symbol
_atom_site_symmetry_multiplicity
_atom_site_Wyckoff_symbol
_atom_site_fract_x
_atom_site_fract_y
_atom_site_fract_z
_atom_site_B_iso_or_equiv
_atom_site_occupancy
_atom_site_attached_hydrogens
Cu1 Cu1+ 4 e 0 0.757(2) 0.25 1.5 1. 0
Cu2 Cu1+ 4 e 0 0.421(2) 0.25 1.5 1. 0
Cu3 Cu1+ 4 e 0.5 0.593(1) 0.25 1.5 1. 0
Ir1 Ir4+ 8 f 0.254(2) 0.080(1) 0.004(1) 0.51 0.76 0
Na1 Na1+ 8 f 0.254(2) 0.080(1) 0.004(1) 0.51 0.24 0
Ir2 Ir4+ 4 c 0.25 0.25 0 0.51 0.52 0
Na2 Na1+ 4 c 0.25 0.25 0 0.51 0.48 0
O1 O2- 8 f 0.440(3) 0.237(2) 0.088(1) 0.93 1. 0
O2 O2- 8 f 0.941(3) 0.422(2) 0.080(1) 0.93 1. 0
O3 O2- 8 f 0.462(3) 0.576(2) 0.095(1) 0.93 1. 0
#End of TTdata_252814-ICSD