
#(C) 2019 by FIZ Karlsruhe - Leibniz Institute for Information Infrastructure.  All rights reserved.
data_252813-ICSD
_database_code_ICSD 252813
_audit_creation_date 2017-08-01
_chemical_name_systematic 'Copper(I) sodium iridium(IV) oxide (3/1/2/6)'
_chemical_formula_structural 'Cu3 (Na Ir2) O6'
_chemical_formula_sum 'Cu3 Ir2 Na1 O6'
_exptl_crystal_density_diffrn 8.1
_cell_measurement_temperature 295.
_publ_section_title
'Iridium containing honeycomb Delafossites by topotactic cation exchange'
loop_
_citation_id
_citation_journal_full
_citation_year
_citation_journal_volume
_citation_page_first
_citation_page_last
_citation_journal_id_ASTM
primary 'Dalton Transactions' 2016 45 8783 8789 DTARAF
loop_
_publ_author_name
'Roudebush, John H.'
'Ross, K.A.'
'Cava, R.J.'
_cell_length_a 5.39017(19)
_cell_length_b 9.29984(36)
_cell_length_c 5.97093(20)
_cell_angle_alpha 90
_cell_angle_beta 107.6399(36)
_cell_angle_gamma 90
_cell_volume 285.23
_cell_formula_units_Z 2
_symmetry_space_group_name_H-M 'C 1 2/m 1'
_symmetry_Int_Tables_number 12
_refine_ls_R_factor_all 0.0727
loop_
_symmetry_equiv_pos_site_id
_symmetry_equiv_pos_as_xyz
1 '-x, y, -z'
2 '-x, -y, -z'
3 'x, -y, z'
4 'x, y, z'
5 '-x+1/2, y+1/2, -z'
6 '-x+1/2, -y+1/2, -z'
7 'x+1/2, -y+1/2, z'
8 'x+1/2, y+1/2, z'
loop_
_atom_type_symbol
_atom_type_oxidation_number
Cu1+ 1
Ir4+ 4
Na1+ 1
Ir4+ 4
Na1+ 1
O2- -2
loop_
_atom_site_label
_atom_site_type_symbol
_atom_site_symmetry_multiplicity
_atom_site_Wyckoff_symbol
_atom_site_fract_x
_atom_site_fract_y
_atom_site_fract_z
_atom_site_B_iso_or_equiv
_atom_site_occupancy
_atom_site_attached_hydrogens
Cu1 Cu1+ 2 c 0 0 0.5 1.9(1) 1. 0
Cu2 Cu1+ 4 h 0 0.340(2) 0.5 1.9(1) 1. 0
Ir1 Ir4+ 4 g 0 0.160(1) 0 0.54(1) 0.57(3) 0
Na1 Na1+ 4 g 0 0.160(1) 0 0.54(1) 0.43(3) 0
Ir2 Ir4+ 2 b 0 0.5 0 0.54(1) 0.85(3) 0
Na2 Na1+ 2 b 0 0.5 0 0.54(1) 0.15(3) 0
O1 O2- 8 j 0.881(2) 0.343(2) 0.172(2) 0.8(1) 1. 0
O2 O2- 4 i 0.916(3) 0 0.183(4) 0.8(1) 1. 0
#End of TTdata_252813-ICSD