
#(C) 2019 by FIZ Karlsruhe - Leibniz Institute for Information Infrastructure.  All rights reserved.
data_252966-ICSD
_database_code_ICSD 252966
_audit_creation_date 2017-08-01
_chemical_name_systematic 'Sodium aluminium chromium oxide (1.93/16.75/0.25/25)'
_chemical_formula_structural 'Na1.93 (Al16.75 Cr0.25) O25'
_chemical_formula_sum 'Al16.75 Cr0.25 Na1.93 O25'
_exptl_crystal_density_diffrn 3.41
_cell_measurement_temperature 293.
_publ_section_title

;
beta-alumina-14H and beta-alumina-21R: Two chromic Na2-d (Al,Mg,Cr)17 O25
polysomes observed in slags from the production of low-carbon ferrochromium
;
loop_
_citation_id
_citation_journal_full
_citation_year
_citation_journal_volume
_citation_page_first
_citation_page_last
_citation_journal_id_ASTM
primary 'Journal of Solid State Chemistry' 2016 241 70 78 JSSCBI
loop_
_publ_author_name
'Hejny, Clivia'
'Kahlenberg, Volker'
'Schmidmair, Daniela'
'Tribus, Martina'
'DeVilliers, Johan'
_cell_length_a 5.6515(3)
_cell_length_b 5.6515(3)
_cell_length_c 48.074(4)
_cell_angle_alpha 90
_cell_angle_beta 90
_cell_angle_gamma 120
_cell_volume 1329.74
_cell_formula_units_Z 3
_symmetry_space_group_name_H-M 'R -3 m H'
_symmetry_Int_Tables_number 166
_refine_ls_R_factor_all 0.0442
loop_
_symmetry_equiv_pos_site_id
_symmetry_equiv_pos_as_xyz
1 'x-y, -y, -z'
2 '-x, -x+y, -z'
3 'y, x, -z'
4 'x-y, x, -z'
5 'y, -x+y, -z'
6 '-x, -y, -z'
7 '-x+y, y, z'
8 'x, x-y, z'
9 '-y, -x, z'
10 '-x+y, -x, z'
11 '-y, x-y, z'
12 'x, y, z'
13 'x-y+2/3, -y+1/3, -z+1/3'
14 '-x+2/3, -x+y+1/3, -z+1/3'
15 'y+2/3, x+1/3, -z+1/3'
16 'x-y+2/3, x+1/3, -z+1/3'
17 'y+2/3, -x+y+1/3, -z+1/3'
18 '-x+2/3, -y+1/3, -z+1/3'
19 '-x+y+2/3, y+1/3, z+1/3'
20 'x+2/3, x-y+1/3, z+1/3'
21 '-y+2/3, -x+1/3, z+1/3'
22 '-x+y+2/3, -x+1/3, z+1/3'
23 '-y+2/3, x-y+1/3, z+1/3'
24 'x+2/3, y+1/3, z+1/3'
25 'x-y+1/3, -y+2/3, -z+2/3'
26 '-x+1/3, -x+y+2/3, -z+2/3'
27 'y+1/3, x+2/3, -z+2/3'
28 'x-y+1/3, x+2/3, -z+2/3'
29 'y+1/3, -x+y+2/3, -z+2/3'
30 '-x+1/3, -y+2/3, -z+2/3'
31 '-x+y+1/3, y+2/3, z+2/3'
32 'x+1/3, x-y+2/3, z+2/3'
33 '-y+1/3, -x+2/3, z+2/3'
34 '-x+y+1/3, -x+2/3, z+2/3'
35 '-y+1/3, x-y+2/3, z+2/3'
36 'x+1/3, y+2/3, z+2/3'
loop_
_atom_type_symbol
_atom_type_oxidation_number
Al2+ 2.83
Cr3+ 3
Al2+ 2.83
O2- -2
Na1+ 1
O2- -2
loop_
_atom_site_label
_atom_site_type_symbol
_atom_site_symmetry_multiplicity
_atom_site_Wyckoff_symbol
_atom_site_fract_x
_atom_site_fract_y
_atom_site_fract_z
_atom_site_B_iso_or_equiv
_atom_site_occupancy
_atom_site_attached_hydrogens
Al1 Al2+ 6 c 0.666667 0.333333 0.11869(4) 0.0055(7) 0.961(9) 0
Al2 Al2+ 9 d 0.333333 0.166667 0.166667 0.0076(5) 1 0
Al3 Al2+ 18 h 0.49827(11) 0.50173(11) 0.06829(3) 0.0058(4) 0.972(6) 0
Cr1 Cr3+ 6 c 0.666667 0.333333 0.11869(4) 0.0055(7) 0.039(9) 0
Cr2 Cr3+ 18 h 0.49827(11) 0.50173(11) 0.06829(3) 0.0058(4) 0.028(6) 0
Al4 Al2+ 6 c 0 0 0.10578(4) 0.0067(5) 1 0
Al5 Al2+ 6 c 0.333333 0.666667 0.20357(5) 0.0100(5) 1 0
Al6 Al2+ 6 c 0 0 0.03522(4) 0.0072(5) 1 0
O1 O2- 6 c 0.333333 0.666667 0.24275(10) 0.0096(11) 1 0
O2 O2- 6 c 0.666667 0.333333 0.05095(9) 0.0071(11) 1 0
O3 O2- 18 h 0.1677(2) 0.3354(5) 0.04930(6) 0.0089(7) 1 0
O4 O2- 18 h 0.1520(3) 0.3040(5) 0.18946(6) 0.0080(7) 1 0
O5 O2- 18 h 0.3573(5) 0.1787(3) 0.09491(6) 0.0094(7) 1 0
O6 O2- 6 c 0 0 0.14432(10) 0.0066(10) 1 0
Na1 Na1+ 18 h 0.6069(13) 0.3931(13) -0.0015(2) 0.111(6) 0.321(8) 0
O7 O2- 18 f 0.045(3) 0.045(3) 0 0.009(4) 0.1667 0
loop_
_atom_site_aniso_label
_atom_site_aniso_type_symbol
_atom_site_aniso_U_11
_atom_site_aniso_U_22
_atom_site_aniso_U_33
_atom_site_aniso_U_12
_atom_site_aniso_U_13
_atom_site_aniso_U_23
Na1 Na1+ 0.102(8) 0.102(8) 0.068(7) 0.004(6) -0.015(4) 0.015(4)
#End of TTdata_252966-ICSD