
#(C) 2019 by FIZ Karlsruhe - Leibniz Institute for Information Infrastructure.  All rights reserved.
data_253021-ICSD
_database_code_ICSD 253021
_audit_creation_date 2017-08-01
_audit_update_record 2018-02-01
_chemical_name_systematic 'Sodium triiron(III) bis(sulfate) hexahydroxide'
_chemical_formula_structural 'Na Fe3 (S O4)2 (O H)6'
_chemical_formula_sum 'H6 Fe3 Na1 O14 S2'
_chemical_name_mineral Natrojarosite
_exptl_crystal_density_diffrn 3.16
_cell_measurement_temperature 220.
_publ_section_title

;
Kagome lattices as cathode: Effect of particle size and fluoride substitution
on electrochemical lithium insertion in sodium- and ammonium Jarosites
;
loop_
_citation_id
_citation_journal_full
_citation_year
_citation_journal_volume
_citation_page_first
_citation_page_last
_citation_journal_id_ASTM
primary 'Journal of Solid State Chemistry' 2016 242 78 86 JSSCBI
loop_
_publ_author_name
'Sandineni, Prashanth'
'Yaghoobnejad Asl, Hooman'
'Choudhury, Amitava'
_cell_length_a 7.3090(17)
_cell_length_b 7.3090(17)
_cell_length_c 16.542(4)
_cell_angle_alpha 90.
_cell_angle_beta 90.
_cell_angle_gamma 120.
_cell_volume 765.3
_cell_formula_units_Z 3
_symmetry_space_group_name_H-M 'R -3 m H'
_symmetry_Int_Tables_number 166
_refine_ls_R_factor_all 0.0203
loop_
_symmetry_equiv_pos_site_id
_symmetry_equiv_pos_as_xyz
1 'x-y, -y, -z'
2 '-x, -x+y, -z'
3 'y, x, -z'
4 'x-y, x, -z'
5 'y, -x+y, -z'
6 '-x, -y, -z'
7 '-x+y, y, z'
8 'x, x-y, z'
9 '-y, -x, z'
10 '-x+y, -x, z'
11 '-y, x-y, z'
12 'x, y, z'
13 'x-y+2/3, -y+1/3, -z+1/3'
14 '-x+2/3, -x+y+1/3, -z+1/3'
15 'y+2/3, x+1/3, -z+1/3'
16 'x-y+2/3, x+1/3, -z+1/3'
17 'y+2/3, -x+y+1/3, -z+1/3'
18 '-x+2/3, -y+1/3, -z+1/3'
19 '-x+y+2/3, y+1/3, z+1/3'
20 'x+2/3, x-y+1/3, z+1/3'
21 '-y+2/3, -x+1/3, z+1/3'
22 '-x+y+2/3, -x+1/3, z+1/3'
23 '-y+2/3, x-y+1/3, z+1/3'
24 'x+2/3, y+1/3, z+1/3'
25 'x-y+1/3, -y+2/3, -z+2/3'
26 '-x+1/3, -x+y+2/3, -z+2/3'
27 'y+1/3, x+2/3, -z+2/3'
28 'x-y+1/3, x+2/3, -z+2/3'
29 'y+1/3, -x+y+2/3, -z+2/3'
30 '-x+1/3, -y+2/3, -z+2/3'
31 '-x+y+1/3, y+2/3, z+2/3'
32 'x+1/3, x-y+2/3, z+2/3'
33 '-y+1/3, -x+2/3, z+2/3'
34 '-x+y+1/3, -x+2/3, z+2/3'
35 '-y+1/3, x-y+2/3, z+2/3'
36 'x+1/3, y+2/3, z+2/3'
loop_
_atom_type_symbol
_atom_type_oxidation_number
S6+ 6
Fe3+ 3
O2- -2
Na1+ 1
H1+ 1
loop_
_atom_site_label
_atom_site_type_symbol
_atom_site_symmetry_multiplicity
_atom_site_Wyckoff_symbol
_atom_site_fract_x
_atom_site_fract_y
_atom_site_fract_z
_atom_site_B_iso_or_equiv
_atom_site_occupancy
_atom_site_attached_hydrogens
S1 S6+ 6 c 0.6667 0.3333 0.14588(7) 0.0067(3) 1 0
Fe1 Fe3+ 9 e 0.5 0.5 0. 0.0070(2) 1 0
O1 O2- 18 h 0.55645(16) 0.44355(16) 0.11611(11) 0.0096(4) 1 0
O2 O2- 18 h 0.20783(16) 0.4157(3) 0.03385(12) 0.0094(4) 1 0
O3 O2- 6 c 0.6667 0.3333 0.2341(2) 0.0093(7) 1 0
Na1 Na1+ 3 b 0.3333 0.6667 0.1667 0.0453(12) 1 0
H1 H1+ 18 h 0.1452(18) 0.290(4) 0.053(2) 0.022(11) 1 0
loop_
_atom_site_aniso_label
_atom_site_aniso_type_symbol
_atom_site_aniso_U_11
_atom_site_aniso_U_22
_atom_site_aniso_U_33
_atom_site_aniso_U_12
_atom_site_aniso_U_13
_atom_site_aniso_U_23
S1 S6+ 0.0067(3) 0.0067(3) 0.0067(5) 0.00333(17) 0. 0.
Fe1 Fe3+ 0.0062(2) 0.0062(2) 0.0094(3) 0.0038(2) -0.00010(9) 0.00010(9)
O1 O2- 0.0119(7) 0.0119(7) 0.0090(8) 0.0089(8) -0.0006(3) 0.0006(3)
O2 O2- 0.0067(7) 0.0085(10) 0.0136(9) 0.0042(5) 0.0018(4) 0.0036(8)
O3 O2- 0.0103(10) 0.0103(10) 0.0072(15) 0.0052(5) 0. 0.
Na1 Na1+ 0.0587(19) 0.0587(19) 0.0184(18) 0.0293(10) 0. 0.
#End of TTdata_253021-ICSD