
#(C) 2019 by FIZ Karlsruhe - Leibniz Institute for Information Infrastructure.  All rights reserved.
data_253190-ICSD
_database_code_ICSD 253190
_audit_creation_date 2017-08-01
_chemical_name_systematic
'Sodium chromium(III) titanium(IV) oxide (0.67/0.67/0.33/2)'
_chemical_formula_structural 'Na0.67 Cr0.67 Ti0.33 O2'
_chemical_formula_sum 'Cr0.67 Na0.67 O2 Ti0.33'
_chemical_name_structure_type NaCo2O4
_exptl_crystal_density_diffrn 3.89
_publ_section_title

;
Layered Nax Crx Ti1-x O2 as bifunctional electrode materials for rechargeable
sodium batteries
;
loop_
_citation_id
_citation_journal_full
_citation_year
_citation_journal_volume
_citation_page_first
_citation_page_last
_citation_journal_id_ASTM
primary 'Chemistry of Materials' 2016 28 7006 7016 CMATEX
loop_
_publ_author_name
'Tsuchiya, Yuka'
'Takanashi, Kazuki'
'Nishinobo, Takuya'
'Hokura, Akiko'
'Yonemura, Masao'
'Matsukawa, Takeshi'
'Ishigaki, Toru'
'Yamanaka, Keisuke'
'Ohta, Toshiaki'
'Yabuuchi, Naoaki'
_cell_length_a 2.941212(9)
_cell_length_b 2.941212(9)
_cell_length_c 11.18307(5)
_cell_angle_alpha 90.
_cell_angle_beta 90.
_cell_angle_gamma 120.
_cell_volume 83.78
_cell_formula_units_Z 2
_symmetry_space_group_name_H-M 'P 63/m m c'
_symmetry_Int_Tables_number 194
_refine_ls_R_factor_all 0.0352
loop_
_symmetry_equiv_pos_site_id
_symmetry_equiv_pos_as_xyz
1 'x, x-y, -z+1/2'
2 '-x+y, y, -z+1/2'
3 '-y, -x, -z+1/2'
4 '-x+y, -x, -z+1/2'
5 '-y, x-y, -z+1/2'
6 'x, y, -z+1/2'
7 '-x, -x+y, z+1/2'
8 'x-y, -y, z+1/2'
9 'y, x, z+1/2'
10 'x-y, x, z+1/2'
11 'y, -x+y, z+1/2'
12 '-x, -y, z+1/2'
13 '-x, -x+y, -z'
14 'x-y, -y, -z'
15 'y, x, -z'
16 'x-y, x, -z'
17 'y, -x+y, -z'
18 '-x, -y, -z'
19 'x, x-y, z'
20 '-x+y, y, z'
21 '-y, -x, z'
22 '-x+y, -x, z'
23 '-y, x-y, z'
24 'x, y, z'
loop_
_atom_type_symbol
_atom_type_oxidation_number
Na1+ 1
Cr3+ 3
Ti4+ 4
O2- -2
loop_
_atom_site_label
_atom_site_type_symbol
_atom_site_symmetry_multiplicity
_atom_site_Wyckoff_symbol
_atom_site_fract_x
_atom_site_fract_y
_atom_site_fract_z
_atom_site_B_iso_or_equiv
_atom_site_occupancy
_atom_site_attached_hydrogens
Na1 Na1+ 2 b 0 0 0.25 2.789(18) 0.1729(6) 0
Na2 Na1+ 2 d 0.3333 0.6667 0.75 2.789(18) 0.4938(6) 0
Cr1 Cr3+ 2 a 0 0 0 1.313(9) 0.6667 0
Ti1 Ti4+ 2 a 0 0 0 1.313(9) 0.3333 0
O1 O2- 4 f 0.3333 0.6667 0.0927(5) 0.6411177(3) 1. 0
loop_
_atom_site_aniso_label
_atom_site_aniso_type_symbol
_atom_site_aniso_U_11
_atom_site_aniso_U_22
_atom_site_aniso_U_33
_atom_site_aniso_U_12
_atom_site_aniso_U_13
_atom_site_aniso_U_23
Na1 Na1+ 0.0500(3) 0.0500(3) 0.0060(4) 0.0250(3) 0. 0.
Na2 Na1+ 0.0500(3) 0.0500(3) 0.0060(4) 0.0250(3) 0. 0.
Cr1 Cr3+ 0.0006(3) 0.0006(3) 0.0487(8) 0.0003(3) 0. 0.
Ti1 Ti4+ 0.0006(3) 0.0006(3) 0.0487(8) 0.0003(3) 0. 0.
O1 O2- 0.00542121(3) 0.00542121(3) 0.01211356(10) 0.002710605(3) 0. 0.
#End of TTdata_253190-ICSD