
#(C) 2019 by FIZ Karlsruhe - Leibniz Institute for Information Infrastructure.  All rights reserved.
data_253346-ICSD
_database_code_ICSD 253346
_audit_creation_date 2017-08-01
_chemical_name_systematic 'Sodium potassium niobate - KNN'
_chemical_formula_structural '(K0.5 Na0.5) Nb O3'
_chemical_formula_sum 'K0.5 Na0.5 Nb1 O3'
_chemical_name_structure_type FeBiO3-KBrO3
_exptl_crystal_density_diffrn 4.55
_cell_measurement_temperature 10.
_publ_section_title

;
Mode-crystallography analysis of the crystal structures and the low- and
high-temperature phase transitions in Na0.5 K0.5 Nb O3
;
loop_
_citation_id
_citation_journal_full
_citation_year
_citation_journal_volume
_citation_page_first
_citation_page_last
_citation_journal_id_ASTM
primary 'Journal of Applied Crystallography' 2015 48 318 333 JACGAR
loop_
_publ_author_name
'Orayech, B.'
'Faik, A.'
'Lopez, G.A.'
'Fabelo, O.'
'Igartua, J.M.'
_cell_length_a 5.6085(3)
_cell_length_b 5.6085(3)
_cell_length_c 6.9183(6)
_cell_angle_alpha 90.
_cell_angle_beta 90.
_cell_angle_gamma 120.
_cell_volume 188.46
_cell_formula_units_Z 3
_symmetry_space_group_name_H-M 'R 3 m H'
_symmetry_Int_Tables_number 160
_refine_ls_R_factor_all 0.0465
loop_
_symmetry_equiv_pos_site_id
_symmetry_equiv_pos_as_xyz
1 '-x+y, y, z'
2 'x, x-y, z'
3 '-y, -x, z'
4 '-x+y, -x, z'
5 '-y, x-y, z'
6 'x, y, z'
7 '-x+y+2/3, y+1/3, z+1/3'
8 'x+2/3, x-y+1/3, z+1/3'
9 '-y+2/3, -x+1/3, z+1/3'
10 '-x+y+2/3, -x+1/3, z+1/3'
11 '-y+2/3, x-y+1/3, z+1/3'
12 'x+2/3, y+1/3, z+1/3'
13 '-x+y+1/3, y+2/3, z+2/3'
14 'x+1/3, x-y+2/3, z+2/3'
15 '-y+1/3, -x+2/3, z+2/3'
16 '-x+y+1/3, -x+2/3, z+2/3'
17 '-y+1/3, x-y+2/3, z+2/3'
18 'x+1/3, y+2/3, z+2/3'
loop_
_atom_type_symbol
_atom_type_oxidation_number
Na1+ 1
K1+ 1
Nb5+ 5
O2- -2
loop_
_atom_site_label
_atom_site_type_symbol
_atom_site_symmetry_multiplicity
_atom_site_Wyckoff_symbol
_atom_site_fract_x
_atom_site_fract_y
_atom_site_fract_z
_atom_site_B_iso_or_equiv
_atom_site_occupancy
_atom_site_attached_hydrogens
Na1 Na1+ 3 a 0. 0. 0.0314(5) 0.01092 0.5 0
K1 K1+ 3 a 0. 0. 0.0314(5) 0.01092 0.5 0
Nb1 Nb5+ 3 a 0. 0. 0.5174(5) 0.00759 1. 0
O1 O2- 9 b 0.1648(2) 0.3296(4) 0.3170(3) 0.00665 1. 0
#End of TTdata_253346-ICSD