
#(C) 2019 by FIZ Karlsruhe - Leibniz Institute for Information Infrastructure.  All rights reserved.
data_253631-ICSD
_database_code_ICSD 253631
_audit_creation_date 2017-08-01
_chemical_name_systematic 'Dipotassium octasodium calcium hexakis(sulfate)'
_chemical_formula_structural 'K2 Na8 Ca (S O4)6'
_chemical_formula_sum 'Ca1 K2 Na8 O24 S6'
_chemical_name_mineral Bubnovaite
_exptl_crystal_density_diffrn 2.62
_cell_measurement_temperature 293.
_publ_section_title

;
Bubnovaite, K2Na8Ca(SO4)6, a new mineral species with modular structure from
the Tolbachik volcano, Kamchatka peninsula, Russia
;
loop_
_citation_id
_citation_journal_full
_citation_year
_citation_journal_volume
_citation_page_first
_citation_page_last
_citation_journal_id_ASTM
primary 'European Journal of Mineralogy' 2016 28 677 686 EJMIER
loop_
_publ_author_name
'Gorelova, Liudmila A.'
'Vergasova, Lidiya P.'
'Krivovichev, Sergey V.'
'Avdontseva, Evgenia Yu.'
'Moskaleva, Svetlana V.'
'Karpov, Genadii A.'
'Filatov, Stanislav K.'
_cell_length_a 10.804(3)
_cell_length_b 10.804(3)
_cell_length_c 22.011(6)
_cell_angle_alpha 90
_cell_angle_beta 90
_cell_angle_gamma 120
_cell_volume 2225.04
_cell_formula_units_Z 4
_symmetry_space_group_name_H-M 'P 3 1 c'
_symmetry_Int_Tables_number 159
_refine_ls_R_factor_all 0.0769
loop_
_symmetry_equiv_pos_site_id
_symmetry_equiv_pos_as_xyz
1 '-x, -x+y, z+1/2'
2 'x-y, -y, z+1/2'
3 'y, x, z+1/2'
4 '-x+y, -x, z'
5 '-y, x-y, z'
6 'x, y, z'
loop_
_atom_type_symbol
_atom_type_oxidation_number
K1+ 1
Na1+ 1
K1+ 1
S6+ 6
Ca2+ 2
Na1+ 1
Ca2+ 2
Na1+ 1
K1+ 1
Na1+ 1
O2- -2
loop_
_atom_site_label
_atom_site_type_symbol
_atom_site_symmetry_multiplicity
_atom_site_Wyckoff_symbol
_atom_site_fract_x
_atom_site_fract_y
_atom_site_fract_z
_atom_site_B_iso_or_equiv
_atom_site_occupancy
_atom_site_attached_hydrogens
K1 K1+ 2 a 0. 0. 0.36330(9) 0.0366(5) 1 0
K2 K1+ 6 c 0.49448(15) 0.50552(15) 0.04403(6) 0.0301(4) 0.600(8) 0
Na1 Na1+ 6 c 0.49448(15) 0.50552(15) 0.04403(6) 0.0301(4) 0.400(8) 0
K3 K1+ 2 b -0.6667 -0.3333 0.1544(8) 0.033(3) 0.147(5) 0
S1 S6+ 6 c -0.33213(12) -0.1664(3) 0.11768(7) 0.0264(3) 1 0
S2 S6+ 2 b 0.6667 0.3333 0.43083(11) 0.0239(5) 1 0
S3 S6+ 6 c 0.1683(9) 0.3349(4) 0.44298(19) 0.0214(4) 0.353(3) 0
S4 S6+ 6 c 0.1658(5) 0.33263(17) 0.48188(10) 0.0214(4) 0.647(3) 0
S5 S6+ 2 b 0.6667 0.3333 0.12468(9) 0.0224(4) 1 0
S6 S6+ 2 b 0.3333 0.6667 0.29971(10) 0.0233(5) 1 0
S7 S6+ 6 c 0.33361(12) 0.1663(3) 0.29101(7) 0.0301(4) 1 0
Ca1 Ca2+ 6 c 0.49388(17) 0.50496(17) 0.36701(6) 0.0450(5) 0.721(9) 0
Na2 Na1+ 6 c 0.49388(17) 0.50496(17) 0.36701(6) 0.0450(5) 0.279(9) 0
Na3 Na1+ 2 a 0. 0. 0.04005(11) 0.0396(8) 0.637(12) 0
Ca2 Ca2+ 2 a 0. 0. 0.04005(11) 0.0396(8) 0.363(12) 0
Na4 Na1+ 2 b -0.6667 -0.3333 0.7692(2) 0.0484(10) 0.547(14) 0
K4 K1+ 2 b -0.6667 -0.3333 0.7692(2) 0.0484(10) 0.453(14) 0
Na5 Na1+ 2 a 0. 0. 0.19966(14) 0.0312(10) 1 0
Na6 Na1+ 6 c 0.49228(18) 0.50642(19) 0.20732(13) 0.0355(6) 1 0
Na7 Na1+ 2 b 0.3333 0.6667 0.46713(17) 0.0298(9) 1 0
Na8 Na1+ 6 c -0.1651(2) 0.1667(2) 0.14571(11) 0.0328(6) 1 0
Na9 Na1+ 6 c 0.3328(4) 0.1658(7) 0.45708(16) 0.0485(8) 1 0
Na10 Na1+ 6 c 0.1658(4) -0.1690(4) 0.2764(4) 0.094(3) 0.647(3) 0
O1 O2- 6 c 0.6007(12) 0.1886(6) 0.4514(2) 0.0582(19) 1 0
O2 O2- 6 c 0.1034(11) 0.1866(5) 0.4661(2) 0.0579(17) 1 0
O3 O2- 6 c 0.3103(7) 0.4156(10) 0.4557(4) 0.065(3) 1 0
O4 O2- 6 c 0.0845(6) 0.3962(7) 0.4551(4) 0.072(2) 1 0
O5 O2- 6 c -0.1743(4) -0.0776(9) 0.1207(3) 0.0617(18) 1 0
O6 O2- 6 c 0.4177(6) 0.1021(7) 0.2801(5) 0.124(3) 1 0
O7 O2- 6 c 0.4165(9) 0.3142(8) 0.2790(6) 0.136(4) 1 0
O8 O2- 6 c 0.2021(6) 0.0977(19) 0.2578(3) 0.103(3) 1 0
O9 O2- 2 b 0.6667 0.3333 0.3664(4) 0.090(4) 1 0
O10 O2- 6 c -0.3810(6) -0.1939(11) 0.0562(3) 0.0754(17) 1 0
O11 O2- 6 c -0.4028(7) -0.0954(6) 0.1414(5) 0.113(3) 1 0
O12 O2- 6 c 0.1913(6) 0.5914(18) 0.2806(3) 0.117(3) 1 0
O13 O2- 6 c -0.3739(5) -0.3041(5) 0.1490(3) 0.0552(16) 1 0
O14 O2- 6 c 0.6111(10) 0.1941(6) 0.1475(5) 0.146(4) 1 0
O15 O2- 2 b 0.3333 0.6667 0.3627(5) 0.131(6) 1 0
O16 O2- 6 c 0.702(4) 0.4061(12) 0.0662(7) 0.053(4) 0.3333 0
O17 O2- 6 c 0.3045(8) 0.159(3) 0.3518(4) 0.174(7) 1 0
O18 O2- 6 c 0.174(2) 0.3167(14) 0.3728(8) 0.059(5) 0.353(3) 0
O19 O2- 6 c 0.174(3) 0.3456(9) 0.5510(6) 0.084(3) 0.647(3) 0
loop_
_atom_site_aniso_label
_atom_site_aniso_type_symbol
_atom_site_aniso_U_11
_atom_site_aniso_U_22
_atom_site_aniso_U_33
_atom_site_aniso_U_12
_atom_site_aniso_U_13
_atom_site_aniso_U_23
K1 K1+ 0.0444(7) 0.0444(7) 0.0208(9) 0.0222(4) 0. 0.
K2 K1+ 0.0260(6) 0.0257(6) 0.0336(8) 0.0091(4) -0.0013(6) 0.0042(6)
Na1 Na1+ 0.0260(6) 0.0257(6) 0.0336(8) 0.0091(4) -0.0013(6) 0.0042(6)
K3 K1+ 0.022(3) 0.022(3) 0.054(9) 0.0110(17) 0. 0.
S1 S6+ 0.0263(5) 0.0162(4) 0.0372(7) 0.0111(4) 0.0002(6) 0.0018(18)
S2 S6+ 0.0180(5) 0.0180(5) 0.0358(12) 0.0090(3) 0. 0.
S3 S6+ 0.0170(5) 0.0181(5) 0.0320(9) 0.0111(4) -0.003(2) -0.0022(7)
S4 S6+ 0.0170(5) 0.0181(5) 0.0320(9) 0.0111(4) -0.003(2) -0.0022(7)
S5 S6+ 0.0231(5) 0.0231(5) 0.0210(9) 0.0115(3) 0. 0.
S6 S6+ 0.0244(5) 0.0244(5) 0.0210(9) 0.0122(3) 0. 0.
S7 S6+ 0.0245(5) 0.0234(4) 0.0436(9) 0.0128(4) 0.0021(6) 0.001(2)
Ca1 Ca2+ 0.0570(8) 0.0594(8) 0.0228(7) 0.0323(4) -0.0012(6) 0.0052(6)
Na2 Na1+ 0.0570(8) 0.0594(8) 0.0228(7) 0.0323(4) -0.0012(6) 0.0052(6)
Na3 Na1+ 0.0547(10) 0.0547(10) 0.0095(12) 0.0274(5) 0. 0.
Ca2 Ca2+ 0.0547(10) 0.0547(10) 0.0095(12) 0.0274(5) 0. 0.
Na4 Na1+ 0.0272(8) 0.0272(8) 0.091(3) 0.0136(4) 0. 0.
K4 K1+ 0.0272(8) 0.0272(8) 0.091(3) 0.0136(4) 0. 0.
Na5 Na1+ 0.0371(14) 0.0371(14) 0.0193(17) 0.0185(7) 0. 0.
Na6 Na1+ 0.0326(8) 0.0401(8) 0.0388(12) 0.0219(6) 0.0061(13) -0.0001(14)
Na7 Na1+ 0.0342(12) 0.0342(12) 0.0211(14) 0.0171(6) 0. 0.
Na8 Na1+ 0.0365(10) 0.0360(10) 0.0245(11) 0.0171(6) 0.0029(9) 0.0028(9)
Na9 Na1+ 0.0400(11) 0.0364(10) 0.0678(19) 0.0180(10) -0.0062(9) 0.001(4)
Na10 Na1+ 0.0471(16) 0.0475(15) 0.209(8) 0.0388(9) -0.003(3) 0.010(3)
O1 O2- 0.068(3) 0.026(2) 0.077(4) 0.021(2) 0.017(5) 0.0132(18)
O2 O2- 0.089(3) 0.0221(19) 0.062(3) 0.028(2) -0.021(4) -0.0147(18)
O3 O2- 0.037(3) 0.062(4) 0.077(6) 0.010(3) 0.016(3) 0.027(3)
O4 O2- 0.057(2) 0.097(3) 0.097(6) 0.0650(16) 0.003(3) 0.016(3)
O5 O2- 0.030(2) 0.062(3) 0.072(3) 0.007(2) 0.019(2) 0.025(5)
O6 O2- 0.079(2) 0.160(3) 0.191(8) 0.1024(16) -0.057(4) -0.115(4)
O7 O2- 0.082(5) 0.072(4) 0.212(10) 0.008(3) -0.036(5) 0.082(4)
O8 O2- 0.077(3) 0.131(5) 0.081(4) 0.038(4) -0.049(3) -0.020(11)
O9 O2- 0.131(6) 0.131(6) 0.008(3) 0.065(3) 0. 0.
O10 O2- 0.104(3) 0.0559(19) 0.081(4) 0.0514(18) -0.053(3) -0.025(7)
O11 O2- 0.121(3) 0.065(2) 0.189(9) 0.0743(18) 0.098(4) 0.053(4)
O12 O2- 0.058(3) 0.125(5) 0.127(5) 0.015(5) -0.069(3) -0.043(10)
O13 O2- 0.048(2) 0.053(2) 0.072(4) 0.0307(15) 0.020(2) 0.042(2)
O14 O2- 0.085(4) 0.058(3) 0.301(10) 0.039(3) 0.072(8) 0.092(4)
O15 O2- 0.184(8) 0.184(8) 0.023(5) 0.092(4) 0. 0.
O17 O2- 0.076(5) 0.282(12) 0.050(4) 0.003(10) 0.015(4) 0.053(10)
#End of TTdata_253631-ICSD