
#(C) 2018 by FIZ Karlsruhe - Leibniz Institute for Information Infrastructure.  All rights reserved.
data_253686-ICSD
_database_code_ICSD 253686
_audit_creation_date 2017-08-01
_chemical_name_systematic
'Heptalead dibarium dilithium bis(diphosphate) bis(tridecaoxo-tetraphosphate)'
_chemical_formula_structural 'Pb7 Ba2 (Li2 (P2 O7)2 (P4 O13)2)'
_chemical_formula_sum 'Ba2 Li2 O40 P12 Pb7'
_exptl_crystal_density_diffrn 5.2
_cell_measurement_temperature 296.
_publ_section_title

;
Application of the dimensional reduction formalism to Pb9-x Bax [Li2 (P2O7)2
(P4O13)2] (x = 0, 2, 6, 7). A series of phosphates with two types of isolated
polyphosphate groups
;
loop_
_citation_id
_citation_journal_full
_citation_year
_citation_journal_volume
_citation_page_first
_citation_page_last
_citation_journal_id_ASTM
primary 'Dalton Transactions' 2017 46 4678 4684 DTARAF
loop_
_publ_author_name
'Zhang, Xiangyu'
'Wu, Hongping'
'Liu, Qiong'
'Dong, Xiaoyu'
'Chen, Yunlei'
'Yang, Zhihua'
'Wen, Xiao-Dong'
'Pan, Shilie'
_cell_length_a 7.4579(11)
_cell_length_b 7.8016(13)
_cell_length_c 15.632(3)
_cell_angle_alpha 80.366(10)
_cell_angle_beta 85.329(8)
_cell_angle_gamma 78.983(7)
_cell_volume 879.02
_cell_formula_units_Z 1
_symmetry_space_group_name_H-M 'P -1'
_symmetry_Int_Tables_number 2
_refine_ls_R_factor_all 0.0479
loop_
_symmetry_equiv_pos_site_id
_symmetry_equiv_pos_as_xyz
1 '-x, -y, -z'
2 'x, y, z'
loop_
_atom_type_symbol
_atom_type_oxidation_number
Li1+ 1
Pb2+ 2
Ba2+ 2
P5+ 5
O2- -2
loop_
_atom_site_label
_atom_site_type_symbol
_atom_site_symmetry_multiplicity
_atom_site_Wyckoff_symbol
_atom_site_fract_x
_atom_site_fract_y
_atom_site_fract_z
_atom_site_B_iso_or_equiv
_atom_site_occupancy
_atom_site_attached_hydrogens
Li1 Li1+ 2 i 0.006(3) 0.490(4) 0.3093(18) 0.018(6) 1 0
Pb1 Pb2+ 1 a 0. 0. 0. 0.0255(2) 1 0
Pb2 Pb2+ 2 i 0.39262(8) 0.30227(7) 0.00410(4) 0.01319(18) 1 0
Pb3 Pb2+ 2 i 0.23478(9) 0.64170(8) 0.49450(4) 0.01854(19) 1 0
Pb4 Pb2+ 2 i 0.58997(10) 0.32804(9) 0.24976(5) 0.0262(2) 1 0
Ba1 Ba2+ 2 i 0.16533(10) 0.00356(10) 0.24679(5) 0.00608(19) 1 0
P1 P5+ 2 i 0.2744(5) 0.2617(5) 0.4241(2) 0.0085(7) 1 0
P2 P5+ 2 i 0.1821(5) 0.0468(5) 0.5896(2) 0.0094(7) 1 0
P3 P5+ 2 i 0.3878(5) 0.2590(5) 0.6741(2) 0.0089(7) 1 0
P4 P5+ 2 i 0.3314(5) 0.0346(5) 0.8413(2) 0.0082(7) 1 0
P5 P5+ 2 i -0.0312(5) 0.4048(5) 0.1224(2) 0.0083(7) 1 0
P6 P5+ 2 i 0.2159(5) 0.6349(5) 0.1461(3) 0.0101(7) 1 0
O1 O2- 2 i 0.0931(14) 0.3900(14) 0.4287(7) 0.014(2) 1 0
O2 O2- 2 i 0.4258(14) 0.3350(15) 0.4572(8) 0.018(2) 1 0
O3 O2- 2 i 0.2462(15) 0.0821(14) 0.4896(7) 0.012(2) 1 0
O4 O2- 2 i 0.3188(17) 0.2006(15) 0.3373(7) 0.018(2) 1 0
O5 O2- 2 i 0.0046(15) 0.1651(18) 0.6076(8) 0.023(3) 1 0
O6 O2- 2 i 0.3396(15) 0.0937(14) 0.6392(7) 0.016(2) 1 0
O7 O2- 2 i 0.2594(14) 0.4274(14) 0.6453(7) 0.013(2) 1 0
O8 O2- 2 i 0.5857(16) 0.2518(16) 0.6556(7) 0.018(2) 1 0
O9 O2- 2 i 0.3502(17) 0.2170(14) 0.7770(7) 0.016(2) 1 0
O10 O2- 2 i 0.3041(17) 0.0860(15) 0.9312(7) 0.019(2) 1 0
O11 O2- 2 i 0.5085(16) -0.0925(15) 0.8277(8) 0.019(2) 1 0
O12 O2- 2 i 0.1730(18) -0.0353(17) 0.8174(9) 0.027(3) 1 0
O13 O2- 2 i 0.1027(15) 0.2647(14) 0.0789(7) 0.013(2) 1 0
O14 O2- 2 i -0.2204(14) 0.4483(14) 0.0868(7) 0.013(2) 1 0
O15 O2- 2 i 0.0468(14) 0.5859(14) 0.1006(7) 0.012(2) 1 0
O16 O2- 2 i -0.0418(14) 0.3526(14) 0.2197(7) 0.011(2) 1 0
O17 O2- 2 i 0.2325(16) 0.8206(15) 0.1007(8) 0.021(3) 1 0
O18 O2- 2 i 0.166(2) 0.630(2) 0.2413(8) 0.033(3) 1 0
O19 O2- 2 i 0.3829(16) 0.4985(16) 0.1254(9) 0.024(3) 1 0
O20 O2- 2 i 0.1874(17) -0.1459(14) 0.6152(7) 0.019(2) 1 0
loop_
_atom_site_aniso_label
_atom_site_aniso_type_symbol
_atom_site_aniso_U_11
_atom_site_aniso_U_22
_atom_site_aniso_U_33
_atom_site_aniso_U_12
_atom_site_aniso_U_13
_atom_site_aniso_U_23
Li1 Li1+ 0.007(11) 0.026(15) 0.015(13) 0.004(10) 0.005(10) 0.005(11)
Pb1 Pb2+ 0.0125(4) 0.0360(6) 0.0233(5) -0.0036(4) -0.0018(3) 0.0079(4)
Pb2 Pb2+ 0.0148(3) 0.0124(3) 0.0132(3) -0.0034(2) -0.0006(2) -0.0032(2)
Pb3 Pb2+ 0.0192(3) 0.0186(3) 0.0171(3) -0.0015(2) -0.0017(2) -0.0027(2)
Pb4 Pb2+ 0.0280(4) 0.0266(4) 0.0243(4) -0.0075(3) -0.0030(3) -0.0007(3)
Ba1 Ba2+ 0.0052(4) 0.0084(4) 0.0049(4) -0.0018(3) 0.0000(3) -0.0012(3)
P1 P5+ 0.0100(16) 0.0092(17) 0.0065(17) -0.0007(13) -0.0012(13) -0.0023(13)
P2 P5+ 0.0113(17) 0.0088(17) 0.0086(17) -0.0030(13) -0.0029(13) -0.0002(13)
P3 P5+ 0.0099(17) 0.0088(17) 0.0083(17) -0.0023(13) -0.0022(13) -0.0006(13)
P4 P5+ 0.0102(16) 0.0081(16) 0.0061(17) -0.0017(13) 0.0007(13) -0.0013(13)
P5 P5+ 0.0064(15) 0.0117(17) 0.0063(17) -0.0012(13) -0.0006(12) -0.0005(13)
P6 P5+ 0.0104(17) 0.0094(17) 0.0103(18) -0.0030(13) -0.0002(13) 0.0003(14)
O1 O2- 0.010(5) 0.015(5) 0.015(6) -0.001(4) -0.001(4) 0.000(4)
O2 O2- 0.007(5) 0.015(5) 0.031(7) -0.003(4) -0.006(4) 0.002(5)
O3 O2- 0.017(5) 0.012(5) 0.007(5) -0.002(4) -0.001(4) -0.001(4)
O4 O2- 0.029(6) 0.020(6) 0.003(5) -0.006(5) 0.003(4) 0.001(4)
O5 O2- 0.009(5) 0.039(7) 0.016(6) 0.004(5) 0.000(4) 0.002(5)
O6 O2- 0.018(5) 0.015(5) 0.020(6) -0.001(4) -0.011(4) -0.009(5)
O7 O2- 0.014(5) 0.010(5) 0.013(5) 0.001(4) -0.002(4) 0.004(4)
O8 O2- 0.019(6) 0.023(6) 0.013(6) -0.013(5) -0.002(4) 0.002(5)
O9 O2- 0.034(7) 0.008(5) 0.009(5) -0.009(5) -0.002(5) -0.002(4)
O10 O2- 0.032(7) 0.019(6) 0.007(5) -0.007(5) 0.007(5) -0.002(4)
O11 O2- 0.020(6) 0.018(6) 0.016(6) 0.003(5) 0.006(4) -0.007(5)
O12 O2- 0.028(7) 0.026(7) 0.031(7) -0.018(5) -0.007(6) 0.003(6)
O13 O2- 0.016(5) 0.013(5) 0.013(5) -0.005(4) 0.005(4) -0.006(4)
O14 O2- 0.009(5) 0.017(5) 0.014(5) -0.004(4) -0.005(4) -0.002(4)
O15 O2- 0.014(5) 0.009(5) 0.011(5) -0.002(4) -0.003(4) 0.004(4)
O16 O2- 0.011(2) 0.011(2) 0.011(2) -0.0020(10) -0.0004(10) -0.0020(10)
O17 O2- 0.020(6) 0.013(5) 0.027(7) -0.004(4) -0.003(5) 0.003(5)
O18 O2- 0.053(9) 0.046(9) 0.011(6) -0.035(7) 0.001(6) -0.005(6)
O19 O2- 0.016(6) 0.015(6) 0.041(8) 0.004(5) -0.008(5) -0.008(5)
O20 O2- 0.037(7) 0.009(5) 0.013(6) -0.010(5) -0.006(5) -0.001(4)
#End of TTdata_253686-ICSD