
#(C) 2019 by FIZ Karlsruhe - Leibniz Institute for Information Infrastructure.  All rights reserved.
data_253698-ICSD
_database_code_ICSD 253698
_audit_creation_date 2017-08-01
_chemical_name_systematic 'Tetrasodium nickel tellurate(VI)'
_chemical_formula_structural 'Na4 Ni Te O6'
_chemical_formula_sum 'Na4 Ni1 O6 Te1'
_exptl_crystal_density_diffrn 4.5
_cell_measurement_temperature 293.
_publ_section_title

;
Synthesis and magnetic properties of new tellurate compounds Na4MTeO6 (M = Co
and Ni) with a ferromagnetic spin-chain structure
;
loop_
_citation_id
_citation_journal_full
_citation_year
_citation_journal_volume
_citation_page_first
_citation_page_last
_citation_journal_id_ASTM
primary 'Dalton Transactions' 2017 46 5076 5081 DTARAF
loop_
_publ_author_name
'He, Zhangzhen'
'Guo, Wenbin'
'Cui, Meiyan'
'Tang, Yingying'
_cell_length_a 5.405(2)
_cell_length_b 5.668(2)
_cell_length_c 9.565(5)
_cell_angle_alpha 73.026(8)
_cell_angle_beta 89.644(17)
_cell_angle_gamma 80.439(12)
_cell_volume 276.09
_cell_formula_units_Z 2
_symmetry_space_group_name_H-M 'P -1'
_symmetry_Int_Tables_number 2
_refine_ls_R_factor_all 0.0131
loop_
_symmetry_equiv_pos_site_id
_symmetry_equiv_pos_as_xyz
1 '-x, -y, -z'
2 'x, y, z'
loop_
_atom_type_symbol
_atom_type_oxidation_number
Te6+ 6
Ni2+ 2
O2- -2
Na1+ 1
loop_
_atom_site_label
_atom_site_type_symbol
_atom_site_symmetry_multiplicity
_atom_site_Wyckoff_symbol
_atom_site_fract_x
_atom_site_fract_y
_atom_site_fract_z
_atom_site_B_iso_or_equiv
_atom_site_occupancy
_atom_site_attached_hydrogens
Te1 Te6+ 2 i 0.24809(2) 0.99266(2) 0.243136(13) 0.00322(6) 1 0
Ni1 Ni2+ 2 i 0.25031(5) 1.00294(4) -0.08264(3) 0.00540(8) 1 0
O1 O2- 2 i -0.0861(3) 1.1981(3) 0.19870(16) 0.0059(3) 1 0
O2 O2- 2 i 0.3473(3) 1.2087(3) 0.34255(16) 0.0067(3) 1 0
O3 O2- 2 i 0.5813(3) 0.7872(3) 0.26676(16) 0.0064(3) 1 0
O4 O2- 2 i 0.3727(3) 1.1937(3) 0.05633(16) 0.0056(3) 1 0
O5 O2- 2 i 0.1259(3) 0.8029(3) 0.12140(16) 0.0056(3) 1 0
O6 O2- 2 i 0.1461(3) 0.7745(3) 0.41826(16) 0.0068(3) 1 0
Na1 Na1+ 1 c 0. 0.5 0. 0.0110(3) 1 0
Na2 Na1+ 2 i 0.50699(16) 0.49297(15) 0.15699(9) 0.0095(2) 1 0
Na3 Na1+ 2 i 0.98058(17) 0.49337(15) 0.33071(9) 0.0112(2) 1 0
Na4 Na1+ 1 h 0.5 0.5 0.5 0.0243(4) 1 0
Na5 Na1+ 2 i 0.25182(14) 0.00391(14) 0.58026(8) 0.0064(2) 1 0
loop_
_atom_site_aniso_label
_atom_site_aniso_type_symbol
_atom_site_aniso_U_11
_atom_site_aniso_U_22
_atom_site_aniso_U_33
_atom_site_aniso_U_12
_atom_site_aniso_U_13
_atom_site_aniso_U_23
Te1 Te6+ 0.00292(9) 0.00219(8) 0.00413(9) 0.00016(5) -0.00007(6) -0.00061(6)
Ni1 Ni2+ 0.00522(17) 0.00509(14) 0.00592(16) -0.00068(11) -0.00015(12)
-0.00179(12)
O1 O2- 0.0039(7) 0.0049(6) 0.0083(7) 0.0014(5) -0.0002(6) -0.0025(5)
O2 O2- 0.0086(8) 0.0057(7) 0.0076(7) -0.0023(6) -0.0002(6) -0.0040(6)
O3 O2- 0.0052(7) 0.0048(7) 0.0079(7) 0.0015(5) -0.0005(6) -0.0011(5)
O4 O2- 0.0069(8) 0.0053(7) 0.0043(7) -0.0016(5) 0.0012(6) -0.0006(5)
O5 O2- 0.0056(7) 0.0055(7) 0.0065(7) -0.0012(5) -0.0003(6) -0.0029(5)
O6 O2- 0.0093(8) 0.0045(7) 0.0056(7) -0.0013(6) 0.0014(6) 0.0003(5)
Na1 Na1+ 0.0105(7) 0.0082(6) 0.0105(7) 0.0005(5) 0.0008(5) 0.0022(5)
Na2 Na1+ 0.0111(5) 0.0071(5) 0.0106(5) -0.0023(4) 0.0001(4) -0.0029(4)
Na3 Na1+ 0.0109(5) 0.0089(5) 0.0148(5) -0.0009(4) -0.0009(4) -0.0053(4)
Na4 Na1+ 0.0130(8) 0.0226(8) 0.0210(8) 0.0097(6) 0.0042(6) 0.0118(6)
Na5 Na1+ 0.0051(5) 0.0075(5) 0.0057(5) -0.0001(4) -0.0003(4) -0.0012(4)
#End of TTdata_253698-ICSD