
#(C) 2019 by FIZ Karlsruhe - Leibniz Institute for Information Infrastructure.  All rights reserved.
data_253639-ICSD
_database_code_ICSD 253639
_audit_creation_date 2017-08-01
_chemical_name_systematic 'Disodium cadmium digermanium hexasulfide'
_chemical_formula_structural 'Na2 Cd Ge2 S6'
_chemical_formula_sum 'Cd1 Ge2 Na2 S6'
_chemical_name_structure_type Na2CdGe2S6
_exptl_crystal_density_diffrn 3.12
_cell_measurement_temperature 296.
_publ_section_title

;
Na2CdGe2Q6 (Q = S, Se). Two metal-mixed chalcogenides with phase-matching
abilities and large second-harmonic generation responses
;
loop_
_citation_id
_citation_journal_full
_citation_year
_citation_journal_volume
_citation_page_first
_citation_page_last
_citation_journal_id_ASTM
primary 'Dalton Transactions' 2017 46 2778 2784 DTARAF
loop_
_publ_author_name
'Li, Guang-mao'
'Liu, Qiong'
'Wu, Kui'
'Yang, Zhi-hua'
'Pan, Shi-lie'
_cell_length_a 7.312(3)
_cell_length_b 12.672(5)
_cell_length_c 11.528(4)
_cell_angle_alpha 90.
_cell_angle_beta 98.869(5)
_cell_angle_gamma 90.
_cell_volume 1055.38
_cell_formula_units_Z 4
_symmetry_space_group_name_H-M 'C 1 c 1'
_symmetry_Int_Tables_number 9
_refine_ls_R_factor_all 0.0238
loop_
_symmetry_equiv_pos_site_id
_symmetry_equiv_pos_as_xyz
1 'x, -y, z+1/2'
2 'x, y, z'
3 'x+1/2, -y+1/2, z+1/2'
4 'x+1/2, y+1/2, z'
loop_
_atom_type_symbol
_atom_type_oxidation_number
Cd2+ 2
Ge4+ 4
S2- -2
Na1+ 1
loop_
_atom_site_label
_atom_site_type_symbol
_atom_site_symmetry_multiplicity
_atom_site_Wyckoff_symbol
_atom_site_fract_x
_atom_site_fract_y
_atom_site_fract_z
_atom_site_B_iso_or_equiv
_atom_site_occupancy
_atom_site_attached_hydrogens
Cd1 Cd2+ 4 a 0.81139(7) 0.25126(4) 0.55906(5) 0.02341(11) 1 0
Ge1 Ge4+ 4 a 0.43715(9) 0.36280(5) 0.33656(6) 0.01737(14) 1 0
Ge2 Ge4+ 4 a 0.62116(8) 0.52465(5) 0.58519(5) 0.01643(14) 1 0
S1 S2- 4 a 0.8823(2) 0.44533(13) 0.57578(15) 0.0237(3) 1 0
S2 S2- 4 a 0.3655(2) 0.43413(13) 0.50271(14) 0.0216(3) 1 0
S3 S2- 4 a 1.1285(2) 0.18691(12) 0.52951(15) 0.0232(4) 1 0
S4 S2- 4 a 0.5909(3) 0.49941(14) 0.27421(14) 0.0269(4) 1 0
S5 S2- 4 a 0.6068(2) 0.22062(13) 0.36403(14) 0.0233(4) 1 0
S6 S2- 4 a 0.1764(2) 0.34358(13) 0.22000(14) 0.0247(4) 1 0
Na1 Na1+ 4 a 0.3778(5) 0.3000(3) 0.7196(3) 0.0517(9) 1 0
Na2 Na1+ 4 a -0.0219(5) 0.5115(2) 0.3514(3) 0.0508(9) 1 0
loop_
_atom_site_aniso_label
_atom_site_aniso_type_symbol
_atom_site_aniso_U_11
_atom_site_aniso_U_22
_atom_site_aniso_U_33
_atom_site_aniso_U_12
_atom_site_aniso_U_13
_atom_site_aniso_U_23
Cd1 Cd2+ 0.0253(2) 0.0205(2) 0.0234(2) 0.0051(2) 0.00041(17) 0.0016(2)
Ge1 Ge4+ 0.0149(3) 0.0175(3) 0.0184(3) 0.0013(3) -0.0013(2) -0.0003(3)
Ge2 Ge4+ 0.0165(3) 0.0127(3) 0.0196(3) 0.0004(3) 0.0016(2) -0.0005(3)
S1 S2- 0.0160(8) 0.0204(8) 0.0340(9) 0.0019(6) 0.0019(7) -0.0030(7)
S2 S2- 0.0163(8) 0.0244(8) 0.0239(8) -0.0032(7) 0.0028(6) -0.0060(7)
S3 S2- 0.0233(8) 0.0134(7) 0.0339(9) 0.0009(6) 0.0072(7) 0.0030(7)
S4 S2- 0.0331(10) 0.0275(9) 0.0203(9) -0.0052(8) 0.0046(7) 0.0013(7)
S5 S2- 0.0253(9) 0.0188(8) 0.0235(8) 0.0053(7) -0.0039(6) -0.0016(7)
S6 S2- 0.0157(8) 0.0317(9) 0.0243(8) 0.0016(7) -0.0046(6) -0.0059(7)
Na1 Na1+ 0.051(2) 0.0422(18) 0.068(2) 0.0024(16) 0.0304(18) 0.0066(17)
Na2 Na1+ 0.050(2) 0.0448(19) 0.058(2) -0.0103(17) 0.0075(18) 0.0099(17)
#End of TTdata_253639-ICSD