
#(C) 2019 by FIZ Karlsruhe - Leibniz Institute for Information Infrastructure.  All rights reserved.
data_253697-ICSD
_database_code_ICSD 253697
_audit_creation_date 2017-08-01
_chemical_name_systematic 'Tetrasodium cobalt tellurate(VI)'
_chemical_formula_structural 'Na4 Co Te O6'
_chemical_formula_sum 'Co1 Na4 O6 Te1'
_exptl_crystal_density_diffrn 4.45
_cell_measurement_temperature 293.
_publ_section_title

;
Synthesis and magnetic properties of new tellurate compounds Na4MTeO6 (M = Co
and Ni) with a ferromagnetic spin-chain structure
;
loop_
_citation_id
_citation_journal_full
_citation_year
_citation_journal_volume
_citation_page_first
_citation_page_last
_citation_journal_id_ASTM
primary 'Dalton Transactions' 2017 46 5076 5081 DTARAF
loop_
_publ_author_name
'He, Zhangzhen'
'Guo, Wenbin'
'Cui, Meiyan'
'Tang, Yingying'
_cell_length_a 5.677(5)
_cell_length_b 9.524(7)
_cell_length_c 5.485(4)
_cell_angle_alpha 90.
_cell_angle_beta 109.470(14)
_cell_angle_gamma 90.
_cell_volume 279.6
_cell_formula_units_Z 2
_symmetry_space_group_name_H-M 'P 1 2/c 1'
_symmetry_Int_Tables_number 13
_refine_ls_R_factor_all 0.0222
loop_
_symmetry_equiv_pos_site_id
_symmetry_equiv_pos_as_xyz
1 'x, -y, z+1/2'
2 '-x, -y, -z'
3 '-x, y, -z+1/2'
4 'x, y, z'
loop_
_atom_type_symbol
_atom_type_oxidation_number
Te6+ 6
Co2+ 2
O2- -2
Na1+ 1
loop_
_atom_site_label
_atom_site_type_symbol
_atom_site_symmetry_multiplicity
_atom_site_Wyckoff_symbol
_atom_site_fract_x
_atom_site_fract_y
_atom_site_fract_z
_atom_site_B_iso_or_equiv
_atom_site_occupancy
_atom_site_attached_hydrogens
Te1 Te6+ 2 f 0.5 0.25660(3) 0.75 0.00566(13) 1 0
Co1 Co2+ 2 f 0.5 0.58532(6) 0.75 0.0077(2) 1 0
O1 O2- 4 g 0.2988(5) 0.4093(2) 0.5308(5) 0.0077(6) 1 0
O2 O2- 4 g 0.6986(5) 0.2679(2) 0.5231(5) 0.0082(6) 1 0
O3 O2- 4 g 0.2816(5) 0.1184(3) 0.5415(5) 0.0082(5) 1 0
Na1 Na1+ 2 f 0.5 0.08151(18) 0.25 0.0050(5) 1 0
Na2 Na1+ 2 e 0. 0.5721(2) 0.25 0.0115(5) 1 0
Na3 Na1+ 2 e 0. 0.2577(2) 0.25 0.0179(6) 1 0
Na4 Na1+ 2 e 0. 0.0820(2) 0.75 0.0189(6) 1 0
loop_
_atom_site_aniso_label
_atom_site_aniso_type_symbol
_atom_site_aniso_U_11
_atom_site_aniso_U_22
_atom_site_aniso_U_33
_atom_site_aniso_U_12
_atom_site_aniso_U_13
_atom_site_aniso_U_23
Te1 Te6+ 0.0049(2) 0.00774(19) 0.00376(19) 0. 0.00065(14) 0.
Co1 Co2+ 0.0084(4) 0.0087(4) 0.0056(4) 0. 0.0017(3) 0.
O1 O2- 0.0058(14) 0.0113(14) 0.0061(12) 0.0011(10) 0.0021(11) 0.0010(9)
O2 O2- 0.0061(13) 0.0127(13) 0.0071(13) 0.0003(10) 0.0039(11) 0.0004(10)
O3 O2- 0.0070(14) 0.0111(12) 0.0062(12) -0.0019(11) 0.0017(10) -0.0042(11)
Na1 Na1+ 0.0056(11) 0.0069(11) 0.0032(10) 0. 0.0026(9) 0.
Na2 Na1+ 0.0098(12) 0.0147(11) 0.0108(11) 0. 0.0046(9) 0.
Na3 Na1+ 0.0146(13) 0.0156(13) 0.0163(12) 0. -0.0044(10) 0.
Na4 Na1+ 0.0158(14) 0.0243(15) 0.0206(13) 0. 0.0113(11) 0.
#End of TTdata_253697-ICSD