
#(C) 2019 by FIZ Karlsruhe - Leibniz Institute for Information Infrastructure.  All rights reserved.
data_25389-ICSD
_database_code_ICSD 25389
_audit_creation_date 1980-01-01
_audit_update_record 1984-05-15
_chemical_name_systematic 'Sodium heptathiodistannate'
_chemical_formula_structural 'Na6 Sn2 S7'
_chemical_formula_sum 'Na6 S7 Sn2'
_chemical_name_structure_type Na6Ge2Se7
_exptl_crystal_density_diffrn 2.69
_publ_section_title

;
Etude structurale de thiocomposes a groupements anioniques de type -pyro-, Na6
X2 S7 (X = Ge, Sn) et Ba3 Sn2 S7
;
loop_
_citation_id
_citation_journal_full
_citation_year
_citation_journal_volume
_citation_page_first
_citation_page_last
_citation_journal_id_ASTM
primary 'Revue de Chimie Minerale' 1974 11 13 26 RVCMA8
loop_
_publ_author_name
'Jumas, J.C.'
'Olivier Fourcade, J.'
'Vermot-Gaud-Daniel, F.'
'Ribes, M.'
'Philippot, E.'
'Maurin, M.'
_cell_length_a 9.395(3)
_cell_length_b 10.719(4)
_cell_length_c 15.671(5)
_cell_angle_alpha 90.
_cell_angle_beta 109.97(3)
_cell_angle_gamma 90.
_cell_volume 1483.26
_cell_formula_units_Z 4
_symmetry_space_group_name_H-M 'C 1 2/c 1'
_symmetry_Int_Tables_number 15
_refine_ls_R_factor_all 0.091
loop_
_symmetry_equiv_pos_site_id
_symmetry_equiv_pos_as_xyz
1 'x, -y, z+1/2'
2 '-x, -y, -z'
3 '-x, y, -z+1/2'
4 'x, y, z'
5 'x+1/2, -y+1/2, z+1/2'
6 '-x+1/2, -y+1/2, -z'
7 '-x+1/2, y+1/2, -z+1/2'
8 'x+1/2, y+1/2, z'
loop_
_atom_type_symbol
_atom_type_oxidation_number
Sn4+ 4
S2- -2
Na1+ 1
loop_
_atom_site_label
_atom_site_type_symbol
_atom_site_symmetry_multiplicity
_atom_site_Wyckoff_symbol
_atom_site_fract_x
_atom_site_fract_y
_atom_site_fract_z
_atom_site_B_iso_or_equiv
_atom_site_occupancy
_atom_site_attached_hydrogens
Sn1 Sn4+ 8 f 0.4548(2) 0.1629(2) 0.3635(1) . 1. 0
S1 S2- 4 e 0.5 0.2964(9) 0.25 . 1. 0
S2 S2- 8 f 0.8055(7) 0.1153(6) 0.1793(4) . 1. 0
S3 S2- 8 f 0.3964(8) -.0183(7) 0.1041(4) . 1. 0
S4 S2- 8 f 0.4703(8) 0.3117(6) 0.0177(4) . 1. 0
Na1 Na1+ 4 d 0.25 0.25 0.5 . 1. 0
Na2 Na1+ 4 e 0 0.3213(15) 0.25 . 1. 0
Na3 Na1+ 8 f 0.1116(16) 0.0226(12) 0.1369(7) . 1. 0
Na4 Na1+ 8 f 0.2225(15) 0.3915(12) 0.0752(7) . 1. 0
loop_
_atom_site_aniso_label
_atom_site_aniso_type_symbol
_atom_site_aniso_U_11
_atom_site_aniso_U_22
_atom_site_aniso_U_33
_atom_site_aniso_U_12
_atom_site_aniso_U_13
_atom_site_aniso_U_23
Sn1 Sn4+ 0.0197(8) 0.0152(6) 0.013(1) 0.0004(7) -.0004(5) -.0007(6)
S1 S2- 0.046(7) 0.025(5) 0.017(6) 0 0.016(4) 0
S2 S2- 0.017(3) 0.026(3) 0.023(3) 0.001(3) -.001(2) 0.001(2)
S3 S2- 0.030(4) 0.028(4) 0.026(3) -.005(3) -.002(2) 0.001(2)
S4 S2- 0.029(3) 0.020(4) 0.018(3) 0.001(3) 0.003(2) 0.005(2)
Na1 Na1+ 0.021(9) 0.067(14) 0.044(9) 0.009(9) 0.019(6) -.0017(8)
Na2 Na1+ 0.033(9) 0.025(8) 0.029(8) 0 0.003(6) 0
Na3 Na1+ 0.053(8) 0.026(7) 0.040(6) 0.002(5) 0.007(5) -.007(4)
Na4 Na1+ 0.040(7) 0.032(6) 0.001(6) 0.001(6) 0.003(4) -.004(5)
#End of TTdata_25389-ICSD