
#(C) 2018 by FIZ Karlsruhe - Leibniz Institute for Information Infrastructure.  All rights reserved.
data_253899-ICSD
_database_code_ICSD 253899
_audit_creation_date 2018-02-01
_chemical_name_systematic 'Trilithium undecaoxo-alumotellurate(IV)'
_chemical_formula_structural 'Li3 Al Te4 O11'
_chemical_formula_sum 'Al1 Li3 O11 Te4'
_exptl_crystal_density_diffrn 5.01
_cell_measurement_temperature 298.
_publ_section_title

;
Syntheses, structures, and characterization of quaternary tellurites,
Li3MTe4O11 (M = Al, Ga, and Fe)
;
loop_
_citation_id
_citation_journal_full
_citation_year
_citation_journal_volume
_citation_page_first
_citation_page_last
_citation_journal_id_ASTM
primary 'Inorganic Chemistry' 2017 56 5873 5879 INOCAJ
loop_
_publ_author_name
'Lue, Minfeng'
'Jo, Hongil'
'Oh, Seung-Jin'
'Lee, Suheon'
'Choi, Kwang-Yong'
'Yu, Yang'
'Ok, Kang Min'
_cell_length_a 18.9467(4)
_cell_length_b 5.13400(10)
_cell_length_c 10.6284(2)
_cell_angle_alpha 90
_cell_angle_beta 109.632(12)
_cell_angle_gamma 90
_cell_volume 973.75
_cell_formula_units_Z 4
_symmetry_space_group_name_H-M 'C 1 2/c 1'
_symmetry_Int_Tables_number 15
_refine_ls_R_factor_all 0.034
loop_
_symmetry_equiv_pos_site_id
_symmetry_equiv_pos_as_xyz
1 'x, -y, z+1/2'
2 '-x, -y, -z'
3 '-x, y, -z+1/2'
4 'x, y, z'
5 'x+1/2, -y+1/2, z+1/2'
6 '-x+1/2, -y+1/2, -z'
7 '-x+1/2, y+1/2, -z+1/2'
8 'x+1/2, y+1/2, z'
loop_
_atom_type_symbol
_atom_type_oxidation_number
Te4+ 4
Al3+ 3
O2- -2
Li1+ 1
loop_
_atom_site_label
_atom_site_type_symbol
_atom_site_symmetry_multiplicity
_atom_site_Wyckoff_symbol
_atom_site_fract_x
_atom_site_fract_y
_atom_site_fract_z
_atom_site_B_iso_or_equiv
_atom_site_occupancy
_atom_site_attached_hydrogens
Te1 Te4+ 8 f 0.66643(3) 0.16645(10) 0.17124(5) 0.01316(18) 1 0
Te2 Te4+ 8 f 0.55790(3) -0.26612(10) -0.05841(6) 0.0181(2) 1 0
Al1 Al3+ 4 c 0.75 0.25 0.5 0.0103(11) 1 0
O1 O2- 8 f 0.6488(3) -0.3837(10) -0.0709(5) 0.0150(12) 1 0
O2 O2- 8 f 0.7237(3) 0.0598(10) 0.0682(5) 0.0126(11) 1 0
O3 O2- 8 f 0.7343(3) 0.0658(10) 0.3357(5) 0.0135(12) 1 0
O4 O2- 8 f 0.6135(3) -0.1478(10) 0.1592(5) 0.0213(13) 1 0
O5 O2- 8 f 0.5646(3) 0.0839(10) -0.0931(5) 0.0174(13) 1 0
O6 O2- 4 e 0.5 -0.3734(16) -0.25 0.029(2) 1 0
Li1 Li1+ 8 f 0.6718(9) -0.748(3) -0.1202(16) 0.028(4) 1 0
Li2 Li1+ 8 f 0.4804(17) 0.225(6) -0.228(3) 0.029(8) 0.5 0
loop_
_atom_site_aniso_label
_atom_site_aniso_type_symbol
_atom_site_aniso_U_11
_atom_site_aniso_U_22
_atom_site_aniso_U_33
_atom_site_aniso_U_12
_atom_site_aniso_U_13
_atom_site_aniso_U_23
Te1 Te4+ 0.0137(3) 0.0140(3) 0.0113(3) 0.0039(2) 0.0036(2) 0.0001(2)
Te2 Te4+ 0.0118(3) 0.0138(3) 0.0300(4) 0.0006(2) 0.0088(3) 0.0041(2)
Al1 Al3+ 0.0110(17) 0.0115(17) 0.0084(17) -0.0024(13) 0.0032(14) -0.0001(13)
#End of TTdata_253899-ICSD