
#(C) 2019 by FIZ Karlsruhe - Leibniz Institute for Information Infrastructure.  All rights reserved.
data_253861-ICSD
_database_code_ICSD 253861
_audit_creation_date 2018-02-01
_chemical_name_systematic
'Trisodium rubidium heptamagnesium hexakis(orthophosphate)'
_chemical_formula_structural 'Na3 Rb Mg7 (P O4)6'
_chemical_formula_sum 'Mg7 Na3 O24 P6 Rb1'
_exptl_crystal_density_diffrn 3.06
_cell_measurement_temperature 293.
_publ_section_title
'Synthesis and crystal structure of a new magnesium phosphate Na3RbMg7(PO4)6'
loop_
_citation_id
_citation_journal_full
_citation_year
_citation_journal_volume
_citation_page_first
_citation_page_last
_citation_journal_id_ASTM
primary 'Acta Crystallographica, Section E: Crystallographic Communications'
2017 73 817 820 ACSECI
loop_
_publ_author_name
'Ben Hamed,Teycir'
'Boukhris, Amal'
'Badri, Abdessalem'
'Ben Amara, Mongi'
_cell_length_a 12.734(3)
_cell_length_b 10.685(3)
_cell_length_c 15.498(5)
_cell_angle_alpha 90
_cell_angle_beta 112.83(2)
_cell_angle_gamma 90
_cell_volume 1943.5
_cell_formula_units_Z 4
_symmetry_space_group_name_H-M 'C 1 2/c 1'
_symmetry_Int_Tables_number 15
_refine_ls_R_factor_all 0.036
loop_
_symmetry_equiv_pos_site_id
_symmetry_equiv_pos_as_xyz
1 'x, -y, z+1/2'
2 '-x, -y, -z'
3 '-x, y, -z+1/2'
4 'x, y, z'
5 'x+1/2, -y+1/2, z+1/2'
6 '-x+1/2, -y+1/2, -z'
7 '-x+1/2, y+1/2, -z+1/2'
8 'x+1/2, y+1/2, z'
loop_
_atom_type_symbol
_atom_type_oxidation_number
Rb1+ 1
Na1+ 1
Mg2+ 2
P5+ 5
O2- -2
P5+ 5
O2- -2
P5+ 5
O2- -2
loop_
_atom_site_label
_atom_site_type_symbol
_atom_site_symmetry_multiplicity
_atom_site_Wyckoff_symbol
_atom_site_fract_x
_atom_site_fract_y
_atom_site_fract_z
_atom_site_B_iso_or_equiv
_atom_site_occupancy
_atom_site_attached_hydrogens
Rb1 Rb1+ 4 e 0.5 0.74607(5) 0.75 0.02406(16) 1 0
Na1 Na1+ 8 f 0.2552(5) 0.7550(6) 0.0226(3) 0.0279(12) 0.5 0
Na2 Na1+ 8 f -0.01858(14) 0.76242(14) 0.98277(13) 0.0226(4) 1 0
Mg1 Mg2+ 8 f 0.2487(8) 0.2471(9) 0.0142(4) 0.0098(10) 0.5 0
Mg2 Mg2+ 4 e 0. 0.58859(15) 0.75 0.0071(3) 1 0
Mg3 Mg2+ 4 e 0.5 0.62142(14) 0.25 0.0059(3) 1 0
Mg4 Mg2+ 8 f 0.18422(9) 0.54259(10) 0.12717(7) 0.0065(2) 1 0
Mg5 Mg2+ 8 f 0.19042(9) 0.99696(11) 0.14183(7) 0.0081(2) 1 0
P1 P5+ 8 f 0.28980(7) 0.76938(7) 0.27439(6) 0.00668(18) 1 0
O1 O2- 8 f 0.41297(19) 0.7658(2) 0.27801(17) 0.0097(5) 1 0
O2 O2- 8 f 0.25429(18) 0.9074(2) 0.27435(15) 0.0084(4) 1 0
O3 O2- 8 f 0.2043(2) 0.7106(3) 0.18543(18) 0.0164(5) 1 0
O4 O2- 8 f 0.2884(2) 0.6963(2) 0.36018(17) 0.0146(5) 1 0
P2 P5+ 8 f 0.41165(6) 0.50005(7) 0.08098(5) 0.00531(18) 1 0
O5 O2- 8 f 0.53692(18) 0.5150(2) 0.15135(15) 0.0084(4) 1 0
O6 O2- 8 f 0.38853(19) 0.5698(2) 0.98959(16) 0.0113(5) 1 0
O7 O2- 8 f 0.34627(19) 0.5654(2) 0.13363(15) 0.0085(4) 1 0
O8 O2- 8 f 0.38345(19) 0.3619(2) 0.06370(17) 0.0119(5) 1 0
P3 P5+ 8 f 0.09357(6) 0.50198(7) 0.92791(5) 0.00484(18) 1 0
O9 O2- 8 f -0.03126(18) 0.4851(2) 0.86059(16) 0.0100(5) 1 0
O10 O2- 8 f 0.10990(18) 0.6126(2) 0.99444(15) 0.0103(5) 1 0
O11 O2- 8 f 0.15211(18) 0.5301(2) 0.85956(16) 0.0109(5) 1 0
O12 O2- 8 f 0.1418(2) 0.3884(2) 0.99025(18) 0.0136(5) 1 0
loop_
_atom_site_aniso_label
_atom_site_aniso_type_symbol
_atom_site_aniso_U_11
_atom_site_aniso_U_22
_atom_site_aniso_U_33
_atom_site_aniso_U_12
_atom_site_aniso_U_13
_atom_site_aniso_U_23
Rb1 Rb1+ 0.0278(3) 0.0250(3) 0.0200(3) 0. 0.0099(2) 0.
Na1 Na1+ 0.0132(16) 0.0218(17) 0.050(4) -0.0034(12) 0.014(3) 0.009(3)
Na2 Na1+ 0.0180(8) 0.0166(7) 0.0412(10) -0.0006(6) 0.0202(7) -0.0027(6)
Mg1 Mg2+ 0.0043(9) 0.0081(11) 0.015(3) 0.0002(8) 0.001(2) -0.001(3)
Mg2 Mg2+ 0.0052(7) 0.0109(7) 0.0054(7) 0. 0.0021(5) 0.
Mg3 Mg2+ 0.0044(7) 0.0099(7) 0.0050(6) 0. 0.0037(5) 0.
Mg4 Mg2+ 0.0035(5) 0.0114(5) 0.0052(5) -0.0010(4) 0.0024(4) 0.0014(4)
Mg5 Mg2+ 0.0036(5) 0.0166(6) 0.0055(5) 0.0009(4) 0.0033(4) -0.0002(4)
P1 P5+ 0.0030(3) 0.0093(4) 0.0098(4) -0.0003(3) 0.0046(3) -0.0010(3)
O1 O2- 0.0045(10) 0.0115(11) 0.0158(11) 0.0007(8) 0.0070(9) 0.0000(9)
O2 O2- 0.0059(10) 0.0106(11) 0.0097(11) 0.0019(8) 0.0042(9) -0.0004(8)
O3 O2- 0.0076(11) 0.0216(13) 0.0179(12) -0.0027(10) 0.0026(9) -0.0117(11)
O4 O2- 0.0149(12) 0.0142(12) 0.0203(13) 0.0005(10) 0.0129(10) 0.0051(10)
P2 P5+ 0.0029(4) 0.0105(4) 0.0038(4) -0.0006(3) 0.0028(3) -0.0011(3)
O5 O2- 0.0027(10) 0.0169(11) 0.0056(10) -0.0002(8) 0.0017(8) -0.0028(8)
O6 O2- 0.0098(11) 0.0191(12) 0.0060(10) -0.0007(9) 0.0043(9) 0.0011(9)
O7 O2- 0.0065(10) 0.0139(11) 0.0072(10) 0.0000(8) 0.0049(8) -0.0026(9)
O8 O2- 0.0081(11) 0.0112(11) 0.0165(12) -0.0023(9) 0.0049(9) -0.0042(9)
P3 P5+ 0.0025(4) 0.0090(4) 0.0040(4) 0.0005(3) 0.0024(3) 0.0008(3)
O9 O2- 0.0027(10) 0.0181(12) 0.0089(11) -0.0016(9) 0.0018(8) -0.0003(9)
O10 O2- 0.0091(11) 0.0144(11) 0.0082(11) 0.0003(9) 0.0041(9) -0.0034(9)
O11 O2- 0.0044(10) 0.0232(12) 0.0066(10) 0.0001(9) 0.0037(8) 0.0014(9)
O12 O2- 0.0093(11) 0.0141(11) 0.0197(12) 0.0061(9) 0.0080(9) 0.0088(10)
#End of TTdata_253861-ICSD