
#(C) 2019 by FIZ Karlsruhe - Leibniz Institute for Information Infrastructure.  All rights reserved.
data_25388-ICSD
_database_code_ICSD 25388
_audit_creation_date 1980-01-01
_audit_update_record 2012-08-01
_chemical_name_systematic 'Sodium heptathiodigermanate'
_chemical_formula_structural 'Na6 Ge2 S7'
_chemical_formula_sum 'Ge2 Na6 S7'
_chemical_name_structure_type Na6Ge2Se7
_exptl_crystal_density_diffrn 2.44
_publ_section_title

;
Etude structurale de thiocomposes a groupements anioniques de type -pyro-, Na6
X2 S7 (X = Ge, Sn) et Ba3 Sn2 S7
;
loop_
_citation_id
_citation_journal_full
_citation_year
_citation_journal_volume
_citation_page_first
_citation_page_last
_citation_journal_id_ASTM
primary 'Revue de Chimie Minerale' 1974 11 13 26 RVCMA8
loop_
_publ_author_name
'Jumas, J.C.'
'Olivier Fourcade, J.'
'Vermot-Gaud-Daniel, F.'
'Ribes, M.'
'Philippot, E.'
'Maurin, M.'
_cell_length_a 9.094(2)
_cell_length_b 10.437(2)
_cell_length_c 15.464(4)
_cell_angle_alpha 90.
_cell_angle_beta 109.49(2)
_cell_angle_gamma 90.
_cell_volume 1383.65
_cell_formula_units_Z 4
_symmetry_space_group_name_H-M 'C 1 2/c 1'
_symmetry_Int_Tables_number 15
_refine_ls_R_factor_all 0.082
loop_
_symmetry_equiv_pos_site_id
_symmetry_equiv_pos_as_xyz
1 'x, -y, z+1/2'
2 '-x, -y, -z'
3 '-x, y, -z+1/2'
4 'x, y, z'
5 'x+1/2, -y+1/2, z+1/2'
6 '-x+1/2, -y+1/2, -z'
7 '-x+1/2, y+1/2, -z+1/2'
8 'x+1/2, y+1/2, z'
loop_
_atom_type_symbol
_atom_type_oxidation_number
Ge4+ 4
S2- -2
Na1+ 1
loop_
_atom_site_label
_atom_site_type_symbol
_atom_site_symmetry_multiplicity
_atom_site_Wyckoff_symbol
_atom_site_fract_x
_atom_site_fract_y
_atom_site_fract_z
_atom_site_B_iso_or_equiv
_atom_site_occupancy
_atom_site_attached_hydrogens
Ge1 Ge4+ 8 f 0.4539(2) 0.1689(1) 0.3603(1) . 1. 0
S1 S2- 4 e 0.5 0.2884(4) 0.25 . 1. 0
S2 S2- 8 f 0.7960(4) 0.1258(3) 0.1799(3) . 1. 0
S3 S2- 8 f 0.4086(4) -.0067(3) 0.1065(3) . 1. 0
S4 S2- 8 f 0.4765(4) 0.3119(3) 0.0289(2) . 1. 0
Na1 Na1+ 4 d 0.25 0.25 0.5 . 1. 0
Na2 Na1+ 4 e 0 0.3285(7) 0.25 . 1. 0
Na3 Na1+ 8 f 0.1171(8) 0.0283(6) 0.1388(5) . 1. 0
Na4 Na1+ 8 f 0.2092(7) 0.3954(6) 0.0743(5) . 1. 0
loop_
_atom_site_aniso_label
_atom_site_aniso_type_symbol
_atom_site_aniso_U_11
_atom_site_aniso_U_22
_atom_site_aniso_U_33
_atom_site_aniso_U_12
_atom_site_aniso_U_13
_atom_site_aniso_U_23
Ge1 Ge4+ 0.0198(4) 0.0137(4) 0.0217(7) -.0001(3) 0.0085(5) -.001(1)
S1 S2- 0.057(2) 0.017(1) 0.033(2) 0 0.030(2) 0
S2 S2- 0.0202(8) 0.023(1) 0.031(2) 0.0010(5) 0.007(1) 0.002(1)
S3 S2- 0.0276(8) 0.017(1) 0.027(1) -.0055(5) 0.010(1) -.001(1)
S4 S2- 0.0248(8) 0.017(1) 0.021(1) 0.0010(5) 0.010(1) 0.004(1)
Na1 Na1+ 0.028(2) 0.035(3) 0.038(4) -.003(2) 0.017(3) -.004(3)
Na2 Na1+ 0.042(3) 0.023(3) 0.030(4) 0 0.001(3) 0
Na3 Na1+ 0.041(2) 0.035(2) 0.031(3) -.001(2) 0.014(2) -.004(2)
Na4 Na1+ 0.028(2) 0.026(2) 0.034(3) -.003(2) 0.013(2) -.006(2)
#End of TTdata_25388-ICSD