
#(C) 2019 by FIZ Karlsruhe - Leibniz Institute for Information Infrastructure.  All rights reserved.
data_253866-ICSD
_database_code_ICSD 253866
_audit_creation_date 2018-02-01
_chemical_name_systematic 'Sodium vanadium dioxide difluoride'
_chemical_formula_structural 'Na V O2 F2'
_chemical_formula_sum 'F2 Na1 O2 V1'
_chemical_name_structure_type PbWO4
_exptl_crystal_density_diffrn 3.05
_cell_measurement_temperature 295.
_publ_section_title

;
Polymorphism of NaVO2F2: a P21/c superstructure with pseudosymmetry of P21/m
in the subcell
;
loop_
_citation_id
_citation_journal_full
_citation_year
_citation_journal_volume
_citation_page_first
_citation_page_last
_citation_journal_id_ASTM
primary 'Acta Crystallographica, Section C: Structural Chemistry' 2015 71 440
447 ACSCGG
loop_
_publ_author_name
'Yu, Zi-Qun'
'Wang, Jing-Quan'
'Huang, Ya-Xi'
'Botis, Sanda M.'
'Pan, Yuanming'
'Mi, Jin-Xiao'
_cell_length_a 6.400(5)
_cell_length_b 3.614(2)
_cell_length_c 14.453(12)
_cell_angle_alpha 90
_cell_angle_beta 110.369(10)
_cell_angle_gamma 90
_cell_volume 313.38
_cell_formula_units_Z 4
_symmetry_space_group_name_H-M 'P 1 21/c 1'
_symmetry_Int_Tables_number 14
_refine_ls_R_factor_all 0.0509
loop_
_symmetry_equiv_pos_site_id
_symmetry_equiv_pos_as_xyz
1 'x, -y+1/2, z+1/2'
2 '-x, -y, -z'
3 '-x, y+1/2, -z+1/2'
4 'x, y, z'
loop_
_atom_type_symbol
_atom_type_oxidation_number
V5+ 5
Na1+ 1
F1- -1
O2- -2
loop_
_atom_site_label
_atom_site_type_symbol
_atom_site_symmetry_multiplicity
_atom_site_Wyckoff_symbol
_atom_site_fract_x
_atom_site_fract_y
_atom_site_fract_z
_atom_site_B_iso_or_equiv
_atom_site_occupancy
_atom_site_attached_hydrogens
V1 V5+ 4 e 0.63884(10) 0.25482(13) 0.35808(5) 0.0156(4) 1 0
Na1 Na1+ 4 e 0.1347(2) 0.7287(3) 0.35399(12) 0.0175(5) 1 0
F1 F1- 4 e 0.8782(4) 0.2276(5) 0.30933(19) 0.0159(6) 1 0
F2 F1- 4 e 0.3596(4) 0.2276(5) 0.3704(2) 0.0193(6) 1 0
O1 O2- 4 e 0.5939(4) 0.7349(5) 0.3214(2) 0.0148(6) 1 0
O2 O2- 4 e 0.7861(6) 0.2599(7) 0.4717(2) 0.0300(9) 1 0
loop_
_atom_site_aniso_label
_atom_site_aniso_type_symbol
_atom_site_aniso_U_11
_atom_site_aniso_U_22
_atom_site_aniso_U_33
_atom_site_aniso_U_12
_atom_site_aniso_U_13
_atom_site_aniso_U_23
V1 V5+ 0.0097(5) 0.0248(6) 0.0137(6) -0.00061(16) 0.0060(3) -0.00079(16)
Na1 Na1+ 0.0191(10) 0.0159(9) 0.0181(10) -0.0004(4) 0.0073(8) -0.0006(4)
F1 F1- 0.0110(11) 0.0203(11) 0.0191(12) 0.0005(6) 0.0086(9) -0.0005(6)
F2 F1- 0.0148(11) 0.0185(11) 0.0299(13) 0.0000(6) 0.0145(10) -0.0002(7)
O1 O2- 0.0153(13) 0.0097(12) 0.0216(15) 0.0005(7) 0.0092(12) 0.0006(7)
O2 O2- 0.0222(16) 0.050(2) 0.0161(16) -0.0025(10) 0.0046(13) -0.0020(9)
#End of TTdata_253866-ICSD