
#(C) 2019 by FIZ Karlsruhe - Leibniz Institute for Information Infrastructure.  All rights reserved.
data_253903-ICSD
_database_code_ICSD 253903
_audit_creation_date 2018-02-01
_chemical_name_systematic 'Octacesium rubidium hexatricosaoxo-enneaicosaborate'
_chemical_formula_structural 'Na8 Cs B21 O36'
_chemical_formula_sum 'B21 Cs1 Na8 O36'
_exptl_crystal_density_diffrn 2.5
_cell_measurement_temperature 293.
_publ_section_title

;
Na8MB21O36 (M = Rb and Cs): noncentrosymmetric borates with unprecedented
[B21O36]9- fundamental building blocks
;
loop_
_citation_id
_citation_journal_full
_citation_year
_citation_journal_volume
_citation_page_first
_citation_page_last
_citation_journal_id_ASTM
primary 'Inorganic Chemistry' 2017 56 5506 5509 INOCAJ
loop_
_publ_author_name
'Mutailipu, Miriding'
'Zhang, Min'
'Su, Xin'
'Yang, Zhihua'
'Pan, Shilie'
_cell_length_a 15.039(4)
_cell_length_b 15.039(4)
_cell_length_c 6.5762(16)
_cell_angle_alpha 90.
_cell_angle_beta 90.
_cell_angle_gamma 90.
_cell_volume 1487.34
_cell_formula_units_Z 2
_symmetry_space_group_name_H-M 'I -4'
_symmetry_Int_Tables_number 82
_refine_ls_R_factor_all 0.0317
loop_
_symmetry_equiv_pos_site_id
_symmetry_equiv_pos_as_xyz
1 '-y, x, -z'
2 'y, -x, -z'
3 '-x, -y, z'
4 'x, y, z'
5 '-y+1/2, x+1/2, -z+1/2'
6 'y+1/2, -x+1/2, -z+1/2'
7 '-x+1/2, -y+1/2, z+1/2'
8 'x+1/2, y+1/2, z+1/2'
loop_
_atom_type_symbol
_atom_type_oxidation_number
Cs1+ 1
Na1+ 1
O2- -2
B3+ 3
loop_
_atom_site_label
_atom_site_type_symbol
_atom_site_symmetry_multiplicity
_atom_site_Wyckoff_symbol
_atom_site_fract_x
_atom_site_fract_y
_atom_site_fract_z
_atom_site_B_iso_or_equiv
_atom_site_occupancy
_atom_site_attached_hydrogens
Cs1 Cs1+ 2 a 1. 1. 1. 0.0701(2) 1 0
Na1 Na1+ 8 g 0.60347(8) 0.89404(8) 0.45057(17) 0.0207(3) 1 0
Na2 Na1+ 8 g 0.83037(10) 0.78746(9) 0.2510(2) 0.0343(4) 1 0
O1 O2- 8 g 0.80164(14) 0.95940(13) 0.7093(3) 0.0169(4) 1 0
O2 O2- 8 g 0.75065(13) 0.92904(13) 0.3728(3) 0.0131(4) 1 0
O3 O2- 8 g 0.79143(12) 0.89772(12) 0.0352(3) 0.0126(4) 1 0
O4 O2- 8 g 0.52676(12) 0.92299(12) -0.1269(3) 0.0124(4) 1 0
O5 O2- 8 g 0.79880(13) 1.19337(14) 0.2461(3) 0.0152(4) 1 0
O6 O2- 8 g 0.75778(14) 1.05146(12) 0.1285(3) 0.0157(4) 1 0
O7 O2- 8 g 0.80462(15) 1.07161(13) 0.4695(3) 0.0229(5) 1 0
O8 O2- 8 g 0.67130(12) 0.87232(13) -0.2040(3) 0.0127(4) 1 0
O9 O2- 8 g 0.64174(13) 0.94629(14) 0.1095(3) 0.0156(4) 1 0
B1 B3+ 8 g 0.7850(2) 0.9826(2) 0.5172(5) 0.0134(6) 1 0
B2 B3+ 8 g 0.6146(2) 0.91377(19) -0.0736(4) 0.0115(6) 1 0
B3 B3+ 8 g 0.7875(2) 1.1050(2) 0.2776(5) 0.0134(6) 1 0
B4 B3+ 8 g 0.7385(2) 0.9551(2) 0.1566(5) 0.0114(6) 1 0
B5 B3+ 8 g 0.7689(2) 0.8826(2) 0.8264(4) 0.0109(6) 1 0
B6 B3+ 2 c 0.5 1. -0.25 0.0105(11) 1 0
loop_
_atom_site_aniso_label
_atom_site_aniso_type_symbol
_atom_site_aniso_U_11
_atom_site_aniso_U_22
_atom_site_aniso_U_33
_atom_site_aniso_U_12
_atom_site_aniso_U_13
_atom_site_aniso_U_23
Cs1 Cs1+ 0.0685(3) 0.0685(3) 0.0732(5) 0. 0. 0.
Na1 Na1+ 0.0186(6) 0.0236(6) 0.0199(6) -0.0053(5) 0.0033(5) -0.0049(5)
Na2 Na1+ 0.0425(9) 0.0186(7) 0.0418(8) -0.0021(6) -0.0234(7) 0.0112(6)
O1 O2- 0.0257(11) 0.0161(11) 0.0089(9) -0.0049(8) -0.0024(8) 0.0018(8)
O2 O2- 0.0180(10) 0.0144(10) 0.0068(9) -0.0033(8) -0.0007(7) 0.0005(7)
O3 O2- 0.0125(9) 0.0164(9) 0.0090(9) 0.0027(7) 0.0001(7) 0.0000(7)
O4 O2- 0.0103(9) 0.0135(9) 0.0132(9) 0.0015(7) 0.0002(7) 0.0028(7)
O5 O2- 0.0160(10) 0.0129(9) 0.0167(10) -0.0011(8) 0.0038(8) 0.0023(8)
O6 O2- 0.0253(11) 0.0112(9) 0.0108(9) -0.0026(8) -0.0017(8) 0.0020(7)
O7 O2- 0.0396(13) 0.0159(10) 0.0131(11) -0.0086(9) -0.0075(9) 0.0006(8)
O8 O2- 0.0115(9) 0.0161(9) 0.0104(9) 0.0025(8) -0.0019(7) -0.0036(8)
O9 O2- 0.0137(10) 0.0206(10) 0.0124(10) 0.0033(8) -0.0013(7) -0.0033(8)
B1 B3+ 0.0141(14) 0.0145(14) 0.0117(14) -0.0010(12) 0.0038(12) 0.0009(12)
B2 B3+ 0.0138(14) 0.0078(13) 0.0130(14) -0.0024(11) -0.0016(11) 0.0031(11)
B3 B3+ 0.0147(15) 0.0125(14) 0.0130(15) -0.0001(12) 0.0028(11) 0.0005(12)
B4 B3+ 0.0126(14) 0.0104(14) 0.0112(14) -0.0012(11) -0.0015(11) 0.0013(11)
B5 B3+ 0.0112(13) 0.0127(14) 0.0089(14) -0.0002(11) 0.0030(11) -0.0024(11)
B6 B3+ 0.0114(17) 0.0114(17) 0.009(3) 0. 0. 0.
#End of TTdata_253903-ICSD