
#(C) 2019 by FIZ Karlsruhe - Leibniz Institute for Information Infrastructure.  All rights reserved.
data_2539-ICSD
_database_code_ICSD 2539
_audit_creation_date 1980-01-01
_audit_update_record 2012-08-01
_chemical_name_systematic 'Sodium tetraamidoaluminate'
_chemical_formula_structural 'Na (Al (N H2)4)'
_chemical_formula_sum 'H8 Al1 N4 Na1'
_chemical_name_structure_type NaAl(NH2)4
_exptl_crystal_density_diffrn 1.3
_publ_section_title

;
Structures des amidoaluminates alcalins M Al (N H2)4, (M= Na, K, Cs).
Structure de l'amidogallate de sodium Na Ga (N H2)4
;
loop_
_citation_id
_citation_journal_full
_citation_year
_citation_journal_volume
_citation_page_first
_citation_page_last
_citation_journal_id_ASTM
primary

;
Acta Crystallographica, Section B: Structural Crystallography and Crystal
Chemistry
; 1973 29 925 934 ACBCAR
loop_
_publ_author_name
'Molinie, P.'
'Brec, R.'
'Rouxel, J.'
'Herpin, P.'
_cell_length_a 7.324(6)
_cell_length_b 6.050(5)
_cell_length_c 13.18(1)
_cell_angle_alpha 90.
_cell_angle_beta 94.25
_cell_angle_gamma 90.
_cell_volume 582.4
_cell_formula_units_Z 4
_symmetry_space_group_name_H-M 'P 1 21/c 1'
_symmetry_Int_Tables_number 14
_refine_ls_R_factor_all 0.053
loop_
_symmetry_equiv_pos_site_id
_symmetry_equiv_pos_as_xyz
1 'x, -y+1/2, z+1/2'
2 '-x, -y, -z'
3 '-x, y+1/2, -z+1/2'
4 'x, y, z'
loop_
_atom_type_symbol
_atom_type_oxidation_number
Na1+ 1
Al3+ 3
N3- -3
H1+ 1
loop_
_atom_site_label
_atom_site_type_symbol
_atom_site_symmetry_multiplicity
_atom_site_Wyckoff_symbol
_atom_site_fract_x
_atom_site_fract_y
_atom_site_fract_z
_atom_site_B_iso_or_equiv
_atom_site_occupancy
_atom_site_attached_hydrogens
Na1 Na1+ 4 e 0.7275(5) 0.1604(1) 0.1913(3) . 1. 0
Al1 Al3+ 4 e 0.2374(3) 0.1483(7) 0.1550(2) . 1. 0
N1 N3- 4 e 0.437(2) 0.250(2) 0.0861(7) . 1. 0
N2 N3- 4 e 0.282(1) 0.249(2) 0.2865(7) . 1. 0
N3 N3- 4 e 0.010(1) 0.261(2) 0.1125(7) . 1. 0
N4 N3- 4 e 0.769(1) 0.350(2) 0.3578(7) . 1. 0
H1 H1+ 4 e 0.25(1) 0.34(2) 0.83(1) 3.43 1. 0
H2 H1+ 4 e 0.27(1) 0.12(2) 0.80(1) 3.43 1. 0
H3 H1+ 4 e 0.99(1) 0.14(2) 0.58(1) 3.43 1. 0
H4 H1+ 4 e 0.94(1) 0.36(2) 0.57(1) 3.43 1. 0
H5 H1+ 4 e 0.26(1) 0.70(2) 0.56(1) 3.43 1. 0
H6 H1+ 4 e 0.19(1) 0.74(2) 0.62(1) 3.43 1. 0
H7 H1+ 4 e 0.43(1) 0.36(2) 0.53(1) 3.43 1. 0
H8 H1+ 4 e 0.48(1) 0.26(2) 0.61(1) 3.43 1. 0
loop_
_atom_site_aniso_label
_atom_site_aniso_type_symbol
_atom_site_aniso_beta_11
_atom_site_aniso_beta_22
_atom_site_aniso_beta_33
_atom_site_aniso_beta_12
_atom_site_aniso_beta_13
_atom_site_aniso_beta_23
Na1 Na1+ 0.0113 0.0277 0.0053 0 -.0001 0.0009
Al1 Al3+ 0.0061 0.0206 0.0033 -.0002 0.0002 0.0011
N1 N3- 0.0069 0.0228 0.0067 -.0014 0.0017 0.0004
N2 N3- 0.018 0.0058 0.004 -.0029 -.0007 0.0007
N3 N3- 0.0057 0.0272 0.0082 0.0005 0.0001 0.0044
N4 N3- 0.0127 0.004 0.0047 0.0042 0.0005 0.0021
#End of TTdata_2539-ICSD