
#(C) 2019 by FIZ Karlsruhe - Leibniz Institute for Information Infrastructure.  All rights reserved.
data_253953-ICSD
_database_code_ICSD 253953
_audit_creation_date 2018-02-01
_chemical_name_systematic 'Sodium manganese(II) gallium sulfide (3/1/1/4)'
_chemical_formula_structural 'Na3 Mn Ga S4'
_chemical_formula_sum 'Ga1 Mn1 Na3 S4'
_exptl_crystal_density_diffrn 2.7
_cell_measurement_temperature 298.
_publ_section_title

;
Magnetically frustrated quaternary chalcogenides with interpenetrating diamond
lattices
;
loop_
_citation_id
_citation_journal_full
_citation_year
_citation_journal_volume
_citation_page_first
_citation_page_last
_citation_journal_id_ASTM
primary 'Inorganic Chemistry' 2017 56 7650 7656 INOCAJ
loop_
_publ_author_name
'Mohapatra, Sudip'
'Adhikary, Amit'
'Ghosh, Kartik'
'Choudhury, Amitava'
_cell_length_a 12.970(4)
_cell_length_b 12.970(4)
_cell_length_c 18.796(6)
_cell_angle_alpha 90
_cell_angle_beta 90
_cell_angle_gamma 90
_cell_volume 3161.88
_cell_formula_units_Z 16
_symmetry_space_group_name_H-M 'I 41/a c d Z'
_symmetry_Int_Tables_number 142
_refine_ls_R_factor_all 0.0337
loop_
_symmetry_equiv_pos_site_id
_symmetry_equiv_pos_as_xyz
1 'y+1/4, x+3/4, -z+3/4'
2 '-y+3/4, x+3/4, -z+1/4'
3 'x, y+1/2, -z'
4 '-x, y+1/2, -z+1/2'
5 '-y+3/4, -x+1/4, z+1/4'
6 'y+1/4, -x+1/4, z+3/4'
7 '-x, -y+1/2, z'
8 'x, -y+1/2, z+1/2'
9 'y+1/4, -x+3/4, -z+1/4'
10 '-y+3/4, -x+3/4, -z+3/4'
11 'x, -y, -z+1/2'
12 '-x, -y, -z'
13 '-y+3/4, x+1/4, z+3/4'
14 'y+1/4, x+1/4, z+1/4'
15 '-x, y, z+1/2'
16 'x, y, z'
17 'y+3/4, x+1/4, -z+1/4'
18 '-y+1/4, x+1/4, -z+3/4'
19 'x+1/2, y, -z+1/2'
20 '-x+1/2, y, -z'
21 '-y+1/4, -x+3/4, z+3/4'
22 'y+3/4, -x+3/4, z+1/4'
23 '-x+1/2, -y, z+1/2'
24 'x+1/2, -y, z'
25 'y+3/4, -x+1/4, -z+3/4'
26 '-y+1/4, -x+1/4, -z+1/4'
27 'x+1/2, -y+1/2, -z'
28 '-x+1/2, -y+1/2, -z+1/2'
29 '-y+1/4, x+3/4, z+1/4'
30 'y+3/4, x+3/4, z+3/4'
31 '-x+1/2, y+1/2, z'
32 'x+1/2, y+1/2, z+1/2'
loop_
_atom_type_symbol
_atom_type_oxidation_number
Ga3+ 3
Mn2+ 2
S2- -2
Na1+ 1
loop_
_atom_site_label
_atom_site_type_symbol
_atom_site_symmetry_multiplicity
_atom_site_Wyckoff_symbol
_atom_site_fract_x
_atom_site_fract_y
_atom_site_fract_z
_atom_site_B_iso_or_equiv
_atom_site_occupancy
_atom_site_attached_hydrogens
Ga1 Ga3+ 32 g 0.42009(4) 0.37183(4) 0.18846(2) 0.0136(2) 0.5 0
Mn1 Mn2+ 32 g 0.42009(4) 0.37183(4) 0.18846(2) 0.0136(2) 0.5 0
S1 S2- 32 g 0.54468(9) 0.46116(9) 0.12642(7) 0.0310(3) 1 0
S2 S2- 16 e 0.33021(11) 0.5 0.25 0.0217(4) 1 0
S3 S2- 16 d 0.5 0.25 0.26474(7) 0.0258(4) 1 0
Na1 Na1+ 16 f 0.38226(17) 0.36774(17) 0.375 0.0387(7) 1 0
Na2 Na1+ 32 g 0.3425(3) 0.1188(3) 0.2663(2) 0.1032(15) 1 0
loop_
_atom_site_aniso_label
_atom_site_aniso_type_symbol
_atom_site_aniso_U_11
_atom_site_aniso_U_22
_atom_site_aniso_U_33
_atom_site_aniso_U_12
_atom_site_aniso_U_13
_atom_site_aniso_U_23
Ga1 Ga3+ 0.0146(3) 0.0124(3) 0.0138(3) 0.00160(17) 0.00142(18) -0.00214(18)
Mn1 Mn2+ 0.0146(3) 0.0124(3) 0.0138(3) 0.00160(17) 0.00142(18) -0.00214(18)
S1 S2- 0.0297(6) 0.0223(6) 0.0409(7) -0.0001(4) 0.0185(5) -0.0018(5)
S2 S2- 0.0163(7) 0.0240(8) 0.0247(7) 0. 0. -0.0110(6)
S3 S2- 0.0303(8) 0.0257(8) 0.0213(7) -0.0014(7) 0. 0.
Na1 Na1+ 0.0446(11) 0.0446(11) 0.0269(14) -0.0013(13) 0.0036(9) 0.0036(9)
Na2 Na1+ 0.0566(18) 0.102(3) 0.151(4) -0.0447(19) 0.042(2) -0.064(3)
#End of TTdata_253953-ICSD