
#(C) 2019 by FIZ Karlsruhe - Leibniz Institute for Information Infrastructure.  All rights reserved.
data_253986-ICSD
_database_code_ICSD 253986
_audit_creation_date 2018-02-01
_chemical_name_systematic 'Sodium terbium cobalt tungsten oxide (1/1/1/1/6)'
_chemical_formula_structural 'Na Tb Co W O6'
_chemical_formula_sum 'Co1 Na1 O6 Tb1 W1'
_chemical_name_structure_type Ca3UO6
_exptl_crystal_density_diffrn 7.45
_cell_measurement_temperature 300.
_publ_section_title

;
Structural study of a doubly ordered perovskite family NaLnCoWO6 (Ln = Y, La,
Pr, Nd, Sm, Eu, Gd, Tb, Dy, Ho, Er, Yb): Hybrid Improper Ferroelectricity in
nine new members
;
loop_
_citation_id
_citation_journal_full
_citation_year
_citation_journal_volume
_citation_page_first
_citation_page_last
_citation_journal_id_ASTM
primary 'Inorganic Chemistry' 2017 56 8478 8489 INOCAJ
loop_
_publ_author_name
'Zuo, Peng'
'Colin, Claire V.'
'Klein, Holger'
'Bordet, Pierre'
'Suard, Emmanuelle'
'Elkaim, Erik'
'Darie, Celine'
_cell_length_a 5.383184(14)
_cell_length_b 5.519737(16)
_cell_length_c 7.80868(2)
_cell_angle_alpha 90.
_cell_angle_beta 90.30170(19)
_cell_angle_gamma 90.
_cell_volume 232.02
_cell_formula_units_Z 2
_symmetry_space_group_name_H-M 'P 1 21 1'
_symmetry_Int_Tables_number 4
_refine_ls_R_factor_all 0.0839
loop_
_symmetry_equiv_pos_site_id
_symmetry_equiv_pos_as_xyz
1 '-x, y+1/2, -z'
2 'x, y, z'
loop_
_atom_type_symbol
_atom_type_oxidation_number
Na1+ 1
Tb3+ 3
Co2+ 2
W6+ 6
O2- -2
loop_
_atom_site_label
_atom_site_type_symbol
_atom_site_symmetry_multiplicity
_atom_site_Wyckoff_symbol
_atom_site_fract_x
_atom_site_fract_y
_atom_site_fract_z
_atom_site_B_iso_or_equiv
_atom_site_occupancy
_atom_site_attached_hydrogens
Na1 Na1+ 2 a 0.2471(16) 0.7251(14) 0.0013(9) 0.0101(17) 1. 0
Tb1 Tb3+ 2 a 0.2638(2) 0.8098(4) 0.50069(15) 0.0094(3) 1. 0
Co1 Co2+ 2 a 0.7483(6) 0.7603(14) 0.2479(3) 0.0048(6) 1. 0
W1 W6+ 2 a 0.76021(17) 0.75 0.76517(8) 0.00681(14) 1. 0
O1 O2- 2 a 0.4733(20) 0.549(2) 0.6899(18) 0.0063(10) 1. 0
O2 O2- 2 a 0.441(2) 0.534(2) 0.3022(19) 0.0063(10) 1. 0
O3 O2- 2 a 0.063(2) -0.023(2) 0.2160(17) 0.0063(10) 1. 0
O4 O2- 2 a 0.043(2) -0.063(2) 0.7827(17) 0.0063(10) 1. 0
O5 O2- 2 a 0.8546(17) 0.6917(19) 0.4981(13) 0.0063(10) 1. 0
O6 O2- 2 a 0.6706(14) 0.757(2) -0.0125(11) 0.0063(10) 1. 0
#End of TTdata_253986-ICSD