
#(C) 2019 by FIZ Karlsruhe - Leibniz Institute for Information Infrastructure.  All rights reserved.
data_254034-ICSD
_database_code_ICSD 254034
_audit_creation_date 2018-02-01
_chemical_name_systematic
'Sodium tecto-alumosilicate * - STI-B-phase(dehydrated)'
_chemical_formula_structural 'Na14.25 Si72 O144.37'
_chemical_formula_sum 'Na14.25 O144.37 Si72'
_chemical_name_mineral Stilbite-Na
_exptl_crystal_density_diffrn 2.07
_cell_measurement_temperature 623.
_publ_section_title

;
Thermal behavior of stilbite and stellerite revisited and dehydration of their
Na-exchanged forms: Considerations on the memory effect of the STI framework
type
;
loop_
_citation_id
_citation_journal_full
_citation_year
_citation_journal_volume
_citation_page_first
_citation_page_last
_citation_journal_id_ASTM
primary 'Microporous and Mesoporous Materials' 2017 253 239 250 MIMMFJ
loop_
_publ_author_name
'Cametti, Georgia'
'Fisch, Martin'
'Armbruster, Thomas'
_cell_length_a 13.6092(3)
_cell_length_b 17.1490(3)
_cell_length_c 15.9990(4)
_cell_angle_alpha 90
_cell_angle_beta 90.0120(10)
_cell_angle_gamma 90
_cell_volume 3733.91
_cell_formula_units_Z 1
_symmetry_space_group_name_H-M 'A 1 2/m 1'
_symmetry_Int_Tables_number 12
_refine_ls_R_factor_all 0.0531
loop_
_symmetry_equiv_pos_site_id
_symmetry_equiv_pos_as_xyz
1 'x, -y, z'
2 '-x, -y, -z'
3 '-x, y, -z'
4 'x, y, z'
5 'x, -y+1/2, z+1/2'
6 '-x, -y+1/2, -z+1/2'
7 '-x, y+1/2, -z+1/2'
8 'x, y+1/2, z+1/2'
loop_
_atom_type_symbol
_atom_type_oxidation_number
Si3+ 3.81
O2- -2
Si3+ 3.81
O2- -2
Na1+ 1
loop_
_atom_site_label
_atom_site_type_symbol
_atom_site_symmetry_multiplicity
_atom_site_Wyckoff_symbol
_atom_site_fract_x
_atom_site_fract_y
_atom_site_fract_z
_atom_site_B_iso_or_equiv
_atom_site_occupancy
_atom_site_attached_hydrogens
Si1 Si3+ 8 j -0.36274(11) 0.13962(8) 0.36216(9) 0.0234(3) 1 0
Si2 Si3+ 8 j 0.1529(3) 0.2773(2) 0.3845(2) 0.0346(8) 0.417(2) 0
Si3 Si3+ 8 j 0.1391(2) 0.31244(17) 0.46165(15) 0.0303(5) 0.583(2) 0
Si4 Si3+ 8 j -0.34812(19) 0.30487(14) 0.28241(14) 0.0246(4) 0.568(2) 0
Si5 Si3+ 8 j -0.3545(2) 0.32743(18) 0.35510(19) 0.0246(4) 0.432(2) 0
Si6 Si3+ 8 j -0.6516(2) 0.27742(17) 0.39370(15) 0.0279(4) 0.568(2) 0
Si7 Si3+ 8 j -0.6338(3) 0.3141(2) 0.4560(2) 0.0279(4) 0.432(2) 0
Si8 Si3+ 8 j -0.1529(3) 0.3026(2) 0.2890(2) 0.0280(4) 0.417(2) 0
Si9 Si3+ 8 j -0.14315(19) 0.32715(15) 0.34830(15) 0.0280(4) 0.583(2) 0
Si10 Si3+ 8 j -0.13732(11) 0.14062(9) 0.36112(10) 0.0292(3) 1 0
O1 O2- 8 j 0.1236(6) 0.3572(5) 0.5552(5) 0.0434(19) 0.583(2) 0
O2 O2- 8 j -0.3726(7) 0.3510(7) 0.4511(5) 0.040(2) 0.432(2) 0
Si11 Si3+ 8 j -0.53970(12) 0.40999(9) 0.30610(10) 0.0280(3) 1 0
Si12 Si3+ 8 j 0.04083(12) 0.41019(10) 0.30626(10) 0.0312(3) 1 0
Si13 Si3+ 4 h -0.5 0.17623(13) 0.5 0.0269(4) 1 0
Si14 Si3+ 4 g 0. 0.17678(14) 0.5 0.0366(5) 1 0
O3 O2- 8 j 0.0977(5) 0.3714(5) 0.3841(5) 0.094(3) 1 0
O4 O2- 8 j -0.3703(3) 0.2330(3) 0.3450(3) 0.0436(11) 1 0
O5 O2- 8 j 0.1783(8) 0.2319(7) 0.3039(7) 0.049(3) 0.417(2) 0
O6 O2- 8 j -0.3902(4) 0.0887(3) 0.2766(3) 0.0465(12) 1 0
O7 O2- 8 j 0.2510(5) 0.2926(2) 0.4429(2) 0.0700(10) 1 0
O8 O2- 8 j -0.2494(4) 0.11308(15) 0.38487(15) 0.0372(5) 1 0
O9 O2- 8 j -0.4386(3) 0.1175(2) 0.4389(3) 0.0376(10) 1 0
O10 O2- 8 j 0.0788(4) 0.2287(4) 0.4504(4) 0.076(2) 1 0
O11 O2- 8 j -0.2513(4) 0.35220(16) 0.3189(2) 0.0496(7) 1 0
O12 O2- 8 j -0.4354(4) 0.3680(4) 0.2864(4) 0.0696(19) 1 0
O13 O2- 8 j -0.0622(4) 0.3657(3) 0.2878(3) 0.0517(13) 1 0
O14 O2- 8 j -0.3107(10) 0.2679(7) 0.1950(8) 0.046(2) 0.379(8) 0
O15 O2- 8 j -0.3647(14) 0.2821(10) 0.1846(10) 0.046(2) 0.236(8) 0
O16 O2- 8 j -0.1303(3) 0.2334(3) 0.3438(3) 0.0433(10) 1 0
O17 O2- 8 j -0.5992(5) 0.3650(4) 0.3818(4) 0.079(2) 1 0
O18 O2- 8 j -0.1131(4) 0.0909(3) 0.2779(3) 0.0533(14) 1 0
O19 O2- 8 j -0.5741(4) 0.2304(3) 0.4496(4) 0.0604(15) 1 0
O20 O2- 8 j -0.0589(4) 0.1161(3) 0.4349(4) 0.0476(12) 1 0
O21 O2- 4 i 0.0226(6) 0.5 0.3356(4) 0.0536(19) 1 0
O22 O2- 4 i -0.5206(6) 0.5 0.3358(5) 0.070(3) 1 0
Na1 Na1+ 4 i -0.2500(7) 0. 0.2847(7) 0.0243(15) 0.51(3) 0
Na2 Na1+ 4 i -0.0048(12) 0. 0.4875(7) 0.009(4) 0.183(18) 0
Na3 Na1+ 4 g 0. 0.348(7) 0.5 0.13(5) 0.057(18) 0
Na4 Na1+ 4 i -0.0577(12) 0.5 0.4890(9) 0.078(6) 0.319(17) 0
Na5 Na1+ 4 i -0.2508(8) 0. 0.2611(9) 0.0321(15) 0.50(3) 0
Na6 Na1+ 4 i -0.3148(18) 0.5 0.3000(15) 0.097(10) 0.235(19) 0
Na7 Na1+ 4 i -0.173(3) 0.5 0.332(3) 0.080(16) 0.112(16) 0
Na8 Na1+ 4 h -0.5 0.4743(12) 0.5 0.152(11) 0.43(2) 0
Na9 Na1+ 8 j 0.1566(16) 0.1719(13) 0.3376(13) 0.085(8) 0.160(11) 0
Na10 Na1+ 8 j 0.0656(19) 0.2252(15) 0.3117(16) 0.050(9) 0.086(8) 0
Na11 Na1+ 4 g 0. 0.540(3) 0.5 0.030(14) 0.058(14) 0
Na12 Na1+ 4 i 0.0262(15) 0. 0.4661(13) 0.060(5) 0.29(2) 0
Na13 Na1+ 4 i -0.5243(6) 0. 0.4891(6) 0.037(2) 0.375(12) 0
loop_
_atom_site_aniso_label
_atom_site_aniso_type_symbol
_atom_site_aniso_U_11
_atom_site_aniso_U_22
_atom_site_aniso_U_33
_atom_site_aniso_U_12
_atom_site_aniso_U_13
_atom_site_aniso_U_23
Si1 Si3+ 0.0201(7) 0.0238(7) 0.0264(6) -0.0002(5) 0.0012(6) -0.0003(5)
Si2 Si3+ 0.0444(19) 0.0346(18) 0.0249(13) -0.0083(15) -0.0131(13) 0.0049(12)
Si3 Si3+ 0.0252(10) 0.0378(12) 0.0279(9) -0.0061(9) -0.0013(8) 0.0011(8)
Si4 Si3+ 0.0217(8) 0.0243(9) 0.0280(8) 0.0014(7) -0.0046(7) 0.0005(6)
Si5 Si3+ 0.0217(8) 0.0243(9) 0.0280(8) 0.0014(7) -0.0046(7) 0.0005(6)
Si6 Si3+ 0.0233(9) 0.0352(11) 0.0251(7) 0.0025(8) 0.0028(7) 0.0033(7)
Si7 Si3+ 0.0233(9) 0.0352(11) 0.0251(7) 0.0025(8) 0.0028(7) 0.0033(7)
Si8 Si3+ 0.0207(8) 0.0333(10) 0.0299(8) -0.0050(8) -0.0030(7) 0.0019(7)
Si9 Si3+ 0.0207(8) 0.0333(10) 0.0299(8) -0.0050(8) -0.0030(7) 0.0019(7)
Si10 Si3+ 0.0177(7) 0.0315(8) 0.0384(7) -0.0017(6) -0.0025(7) -0.0061(6)
O1 O2- 0.059(5) 0.035(4) 0.036(3) 0.003(3) 0.008(3) -0.011(3)
O2 O2- 0.038(5) 0.063(7) 0.020(3) -0.010(4) 0.002(3) -0.003(4)
Si11 Si3+ 0.0270(7) 0.0244(7) 0.0327(7) 0.0010(6) -0.0095(7) 0.0010(6)
Si12 Si3+ 0.0301(8) 0.0263(8) 0.0372(8) -0.0015(6) 0.0000(8) 0.0025(6)
Si13 Si3+ 0.0236(9) 0.0249(11) 0.0323(9) 0. 0.0068(8) 0.
Si14 Si3+ 0.0228(10) 0.0247(11) 0.0623(14) 0. -0.0164(10) 0.
O3 O2- 0.090(5) 0.097(5) 0.094(5) -0.015(4) -0.043(4) 0.058(4)
O4 O2- 0.045(3) 0.030(2) 0.056(3) 0.005(2) 0.006(2) 0.004(2)
O6 O2- 0.044(3) 0.043(3) 0.053(3) 0.0073(19) -0.021(2) -0.013(2)
O7 O2- 0.0375(15) 0.095(3) 0.077(2) 0.013(4) -0.015(3) -0.022(2)
O8 O2- 0.0239(10) 0.0465(13) 0.0413(12) -0.001(3) 0.000(2) 0.0074(10)
O9 O2- 0.037(2) 0.029(2) 0.047(2) -0.0002(18) 0.0205(19) -0.0009(17)
O10 O2- 0.070(4) 0.074(5) 0.083(4) -0.035(3) -0.015(3) 0.028(3)
O11 O2- 0.0352(13) 0.0429(14) 0.0708(18) -0.011(3) 0.006(3) 0.0038(13)
O12 O2- 0.040(3) 0.070(4) 0.099(5) 0.023(3) -0.008(3) 0.023(3)
O13 O2- 0.044(3) 0.062(3) 0.049(3) -0.023(2) 0.002(2) 0.001(2)
O16 O2- 0.039(2) 0.035(3) 0.057(3) 0.003(2) -0.002(2) 0.002(2)
O17 O2- 0.094(5) 0.058(3) 0.085(5) -0.012(3) 0.022(4) 0.021(3)
O18 O2- 0.056(3) 0.046(3) 0.057(3) -0.013(2) 0.019(2) -0.019(2)
O19 O2- 0.053(3) 0.063(4) 0.065(3) 0.027(3) -0.009(2) -0.001(3)
O20 O2- 0.037(2) 0.033(3) 0.073(3) 0.000(2) -0.020(2) -0.002(2)
O21 O2- 0.079(5) 0.042(4) 0.039(3) 0. 0.012(3) 0.
O22 O2- 0.101(6) 0.021(3) 0.090(5) 0. -0.065(5) 0.
#End of TTdata_254034-ICSD