
#(C) 2019 by FIZ Karlsruhe - Leibniz Institute for Information Infrastructure.  All rights reserved.
data_254031-ICSD
_database_code_ICSD 254031
_audit_creation_date 2018-02-01
_chemical_name_systematic
'Calcium sodium tecto-alumosilicate - STI-B-phase(dehydrated)'
_chemical_formula_structural 'Ca6.40 Na1.76 Si72.33 O143'
_chemical_formula_sum 'Ca6.4 Na1.76 O143 Si72.33'
_chemical_name_mineral Stilbite
_exptl_crystal_density_diffrn 1.9
_cell_measurement_temperature 623.
_publ_section_title

;
Thermal behavior of stilbite and stellerite revisited and dehydration of their
Na-exchanged forms: Considerations on the memory effect of the STI framework
type
;
loop_
_citation_id
_citation_journal_full
_citation_year
_citation_journal_volume
_citation_page_first
_citation_page_last
_citation_journal_id_ASTM
primary 'Microporous and Mesoporous Materials' 2017 253 239 250 MIMMFJ
loop_
_publ_author_name
'Cametti, Georgia'
'Fisch, Martin'
'Armbruster, Thomas'
_cell_length_a 13.542(3)
_cell_length_b 17.581(4)
_cell_length_c 16.986(4)
_cell_angle_alpha 90
_cell_angle_beta 90.165(13)
_cell_angle_gamma 90
_cell_volume 4044.04
_cell_formula_units_Z 1
_symmetry_space_group_name_H-M 'A 1 2/m 1'
_symmetry_Int_Tables_number 12
_refine_ls_R_factor_all 0.055
loop_
_symmetry_equiv_pos_site_id
_symmetry_equiv_pos_as_xyz
1 'x, -y, z'
2 '-x, -y, -z'
3 '-x, y, -z'
4 'x, y, z'
5 'x, -y+1/2, z+1/2'
6 '-x, -y+1/2, -z+1/2'
7 '-x, y+1/2, -z+1/2'
8 'x, y+1/2, z+1/2'
loop_
_atom_type_symbol
_atom_type_oxidation_number
Si3+ 3.746
O2- -2
Ca2+ 2
Na1+ 1
Ca2+ 2
Na1+ 1
Ca2+ 2
loop_
_atom_site_label
_atom_site_type_symbol
_atom_site_symmetry_multiplicity
_atom_site_Wyckoff_symbol
_atom_site_fract_x
_atom_site_fract_y
_atom_site_fract_z
_atom_site_B_iso_or_equiv
_atom_site_occupancy
_atom_site_attached_hydrogens
Si1 Si3+ 8 j -0.36381(19) 0.16108(18) 0.36680(16) 0.0359(6) 0.604(2) 0
Si2 Si3+ 8 j -0.3612(3) 0.0892(2) 0.3834(3) 0.0341(9) 0.396(2) 0
Si3 Si3+ 8 j 0.13728(12) 0.27421(11) 0.37952(11) 0.0346(5) 0.935(8) 0
Si4 Si3+ 8 j -0.36026(14) 0.32452(15) 0.27472(14) 0.0442(6) 0.898(7) 0
Si5 Si3+ 8 j -0.3653(9) 0.2984(9) 0.3604(8) 0.090(4) 0.248(11) 0
Si6 Si3+ 8 j -0.63715(12) 0.27424(12) 0.38022(11) 0.0332(5) 0.890(6) 0
Si7 Si3+ 8 j -0.5523(13) 0.2671(12) 0.3545(12) 0.033(2) 0.046(4) 0
Si8 Si3+ 8 j -0.13992(14) 0.32404(15) 0.27463(15) 0.0480(6) 0.948(5) 0
Si9 Si3+ 8 j -0.1401(10) 0.3189(14) 0.3689(10) 0.0480(18) 0.075(6) 0
Si10 Si3+ 8 j -0.13644(18) 0.16008(18) 0.36665(17) 0.0352(6) 0.604(2) 0
Si11 Si3+ 8 j -0.1360(3) 0.0889(3) 0.3833(3) 0.0389(10) 0.396(2) 0
Si12 Si3+ 8 j -0.55452(11) 0.41174(10) 0.28947(11) 0.0359(4) 1 0
Si13 Si3+ 8 j 0.05482(12) 0.41194(11) 0.28963(13) 0.0382(4) 1 0
Si14 Si3+ 4 h -0.5 0.19143(15) 0.5 0.0324(5) 1 0
Si15 Si3+ 4 g 0. 0.19025(15) 0.5 0.0342(5) 1 0
O1 O2- 8 j 0.1056(6) 0.3574(4) 0.3575(5) 0.082(2) 1 0
O2 O2- 8 j -0.3736(5) 0.2483(5) 0.3392(5) 0.055(2) 0.648(18) 0
O3 O2- 4 i -0.3524(15) 0. 0.4029(13) 0.077(6) 0.396(2) 0
O4 O2- 4 i -0.1313(13) 0. 0.4119(11) 0.060(4) 0.396(2) 0
O5 O2- 8 j 0.1230(4) 0.2161(5) 0.3064(5) 0.0725(18) 1 0
O6 O2- 8 j -0.3906(5) 0.1016(4) 0.2956(4) 0.078(2) 1 0
O7 O2- 8 j 0.2512(5) 0.2751(2) 0.41427(19) 0.0711(9) 1 0
O8 O2- 8 j -0.2510(5) 0.1350(2) 0.39510(18) 0.0716(8) 1 0
O9 O2- 8 j -0.4347(4) 0.1423(4) 0.4420(4) 0.083(2) 1 0
O10 O2- 8 j 0.0729(4) 0.2422(5) 0.4493(5) 0.111(3) 1 0
O11 O2- 8 j -0.2482(5) 0.3598(2) 0.2821(3) 0.0874(12) 1 0
O12 O2- 8 j -0.4379(4) 0.3931(4) 0.2816(6) 0.088(2) 1 0
O13 O2- 8 j -0.0617(4) 0.3935(4) 0.2867(6) 0.094(3) 1 0
O14 O2- 8 j -0.3737(5) 0.2832(5) 0.1917(5) 0.082(2) 1 0
O15 O2- 8 j -0.1283(6) 0.2539(6) 0.3401(6) 0.079(3) 0.832(19) 0
O16 O2- 8 j -0.6074(5) 0.3612(4) 0.3547(5) 0.078(2) 1 0
O17 O2- 8 j -0.1168(4) 0.1000(4) 0.2935(4) 0.0648(16) 1 0
O18 O2- 8 j -0.5770(5) 0.2478(4) 0.4591(4) 0.081(2) 1 0
O19 O2- 8 j -0.0600(4) 0.1396(4) 0.4369(4) 0.0665(16) 1 0
O20 O2- 4 i 0.0727(8) 0.5 0.3144(6) 0.078(3) 1 0
O21 O2- 4 i -0.5777(7) 0.5 0.3135(5) 0.063(2) 1 0
Ca1 Ca2+ 4 i -0.307(2) 0.5 0.2727(18) 0.132(12) 0.133(11) 0
Na1 Na1+ 4 i -0.1887(17) 0.5 0.3355(14) 0.092(10) 0.188(17) 0
Ca2 Ca2+ 4 i -0.2493(13) 0. 0.3148(7) 0.0427(18) 0.186(10) 0
Ca3 Ca2+ 8 j 0.218(3) 0.707(2) 0.5574(18) 0.120(14) 0.081(9) 0
Ca4 Ca2+ 8 j 0.2446(4) 0.2430(3) 0.54793(16) 0.0375(9) 0.297(8) 0
Na2 Na1+ 8 j 0.2782(14) 0.2544(8) 0.5577(7) 0.018(3) 0.126(15) 0
Ca5 Ca2+ 8 j -0.749(3) 0.4663(11) 0.3860(11) 0.066(6) 0.046(3) 0
Ca6 Ca2+ 8 j 0.257(2) 0.2725(12) 0.5459(8) 0.028(5) 0.053(8) 0
Ca7 Ca2+ 4 i -0.251(4) 0. 0.262(2) 0.025(5) 0.050(10) 0
Ca8 Ca2+ 8 j -0.2506(10) 0.0091(4) 0.2876(9) 0.0303(17) 0.113(6) 0
Ca9 Ca2+ 8 j -0.243(9) 0.183(2) 0.240(2) 0.054(12) 0.024(4) 0
loop_
_atom_site_aniso_label
_atom_site_aniso_type_symbol
_atom_site_aniso_U_11
_atom_site_aniso_U_22
_atom_site_aniso_U_33
_atom_site_aniso_U_12
_atom_site_aniso_U_13
_atom_site_aniso_U_23
Si1 Si3+ 0.0284(11) 0.0474(17) 0.0320(11) 0.0027(12) 0.0091(10) 0.0010(12)
Si2 Si3+ 0.0343(17) 0.026(2) 0.042(2) -0.0011(16) 0.0072(17) -0.0054(16)
Si3 Si3+ 0.0255(7) 0.0358(11) 0.0424(9) 0.0016(7) 0.0078(8) 0.0068(8)
Si4 Si3+ 0.0214(8) 0.0672(16) 0.0439(11) 0.0062(8) 0.0037(9) -0.0106(10)
Si6 Si3+ 0.0238(7) 0.0357(11) 0.0402(9) 0.0002(7) 0.0010(8) 0.0053(8)
Si7 Si3+ 0.024(6) 0.0357(7) 0.0402(11) 0.0002(8) 0.0010(8) 0.0053(9)
Si8 Si3+ 0.0250(8) 0.0681(15) 0.0508(11) -0.0003(8) -0.0020(10) -0.0099(10)
Si9 Si3+ 0.025(5) 0.0681(8) 0.0508(15) -0.0003(10) -0.0020(10) -0.0099(11)
Si10 Si3+ 0.0217(9) 0.0449(17) 0.0390(13) -0.0012(11) -0.0006(10) 0.0003(12)
Si11 Si3+ 0.0380(19) 0.028(2) 0.050(2) -0.0051(18) -0.010(2) -0.0041(18)
Si12 Si3+ 0.0342(7) 0.0293(9) 0.0442(9) 0.0000(6) 0.0077(8) -0.0016(7)
Si13 Si3+ 0.0357(7) 0.0272(9) 0.0518(10) -0.0032(6) -0.0012(8) -0.0022(7)
Si14 Si3+ 0.0228(8) 0.0434(14) 0.0310(9) 0. 0.0020(9) 0.
Si15 Si3+ 0.0231(9) 0.0406(14) 0.0389(11) 0. 0.0069(9) 0.
O1 O2- 0.122(6) 0.046(3) 0.079(4) 0.021(3) 0.002(4) 0.015(3)
O2 O2- 0.048(3) 0.047(4) 0.070(4) 0.009(2) 0.019(2) 0.019(3)
O5 O2- 0.057(3) 0.077(5) 0.084(4) -0.005(3) 0.003(3) -0.028(4)
O6 O2- 0.117(5) 0.067(4) 0.048(3) -0.009(3) -0.018(3) -0.001(3)
O7 O2- 0.0359(12) 0.096(2) 0.0820(19) 0.003(4) 0.009(3) 0.0086(16)
O8 O2- 0.0364(11) 0.102(2) 0.0768(17) -0.011(4) -0.001(4) 0.0188(16)
O9 O2- 0.102(4) 0.071(4) 0.075(4) 0.023(3) 0.058(3) 0.008(3)
O10 O2- 0.079(4) 0.115(6) 0.141(7) -0.014(4) 0.066(4) 0.035(5)
O11 O2- 0.0309(12) 0.098(3) 0.133(3) -0.011(3) 0.010(4) -0.045(2)
O12 O2- 0.033(2) 0.103(5) 0.128(6) 0.017(3) 0.007(3) -0.040(5)
O13 O2- 0.041(3) 0.084(5) 0.157(8) -0.005(3) 0.001(4) -0.048(5)
O14 O2- 0.094(4) 0.081(5) 0.070(4) -0.011(4) 0.003(4) -0.031(4)
O16 O2- 0.110(5) 0.048(3) 0.075(4) -0.021(3) 0.023(4) 0.017(3)
O17 O2- 0.068(3) 0.066(4) 0.061(3) 0.003(3) -0.009(2) -0.020(3)
O18 O2- 0.095(4) 0.082(4) 0.068(3) 0.046(3) -0.039(3) -0.013(3)
O19 O2- 0.052(3) 0.076(4) 0.072(3) -0.009(3) -0.018(2) -0.008(3)
O20 O2- 0.125(8) 0.030(4) 0.078(6) 0. -0.026(6) 0.
O21 O2- 0.096(5) 0.033(4) 0.060(4) 0. 0.031(4) 0.
#End of TTdata_254031-ICSD