
#(C) 2019 by FIZ Karlsruhe - Leibniz Institute for Information Infrastructure.  All rights reserved.
data_254042-ICSD
_database_code_ICSD 254042
_audit_creation_date 2018-02-01
_chemical_name_systematic
'Sodium tecto-alumosilicate hydrate * - STE-B-phase(dehydrated)'
_chemical_formula_structural 'Na13.79 Si72 O144.1'
_chemical_formula_sum 'Na13.79 O144.1 Si72'
_chemical_name_mineral 'Stellerite (Na-exchanged)'
_exptl_crystal_density_diffrn 2.06
_cell_measurement_temperature 623.
_publ_section_title

;
Thermal behavior of stilbite and stellerite revisited and dehydration of their
Na-exchanged forms: Considerations on the memory effect of the STI framework
type
;
loop_
_citation_id
_citation_journal_full
_citation_year
_citation_journal_volume
_citation_page_first
_citation_page_last
_citation_journal_id_ASTM
primary 'Microporous and Mesoporous Materials' 2017 253 239 250 MIMMFJ
loop_
_publ_author_name
'Cametti, Georgia'
'Fisch, Martin'
'Armbruster, Thomas'
_cell_length_a 13.6031(4)
_cell_length_b 17.1514(5)
_cell_length_c 16.0398(5)
_cell_angle_alpha 90
_cell_angle_beta 90.061(2)
_cell_angle_gamma 90
_cell_volume 3742.27
_cell_formula_units_Z 1
_symmetry_space_group_name_H-M 'A 1 2/m 1'
_symmetry_Int_Tables_number 12
_refine_ls_R_factor_all 0.0494
loop_
_symmetry_equiv_pos_site_id
_symmetry_equiv_pos_as_xyz
1 'x, -y, z'
2 '-x, -y, -z'
3 '-x, y, -z'
4 'x, y, z'
5 'x, -y+1/2, z+1/2'
6 '-x, -y+1/2, -z+1/2'
7 '-x, y+1/2, -z+1/2'
8 'x, y+1/2, z+1/2'
loop_
_atom_type_symbol
_atom_type_oxidation_number
Si3+ 3.81
O2- -2
Si3+ 3.81
O2- -2
Na1+ 1
loop_
_atom_site_label
_atom_site_type_symbol
_atom_site_symmetry_multiplicity
_atom_site_Wyckoff_symbol
_atom_site_fract_x
_atom_site_fract_y
_atom_site_fract_z
_atom_site_B_iso_or_equiv
_atom_site_occupancy
_atom_site_attached_hydrogens
Si1 Si3+ 8 j -0.36224(9) 0.14066(6) 0.36243(7) 0.0221(2) 1 0
Si2 Si3+ 8 j 0.1526(3) 0.27671(18) 0.3853(2) 0.0331(7) 0.3836(19) 0
Si3 Si3+ 8 j 0.13945(15) 0.31180(11) 0.45986(11) 0.0272(3) 0.6164(19) 0
Si4 Si3+ 8 j -0.34799(14) 0.30586(10) 0.28353(11) 0.0242(3) 0.6049(15) 0
Si5 Si3+ 8 j -0.3557(2) 0.32768(15) 0.35526(18) 0.0242(3) 0.3951(15) 0
Si6 Si3+ 8 j -0.65023(16) 0.27633(11) 0.39197(12) 0.0275(3) 0.6049(15) 0
Si7 Si3+ 8 j -0.6354(2) 0.31432(17) 0.45708(18) 0.0275(3) 0.3951(15) 0
Si8 Si3+ 8 j -0.1529(2) 0.30449(17) 0.28822(17) 0.0256(3) 0.3836(19) 0
Si9 Si3+ 8 j -0.14342(14) 0.32778(10) 0.35084(11) 0.0256(3) 0.6164(19) 0
Si10 Si3+ 8 j -0.13661(9) 0.14074(6) 0.36091(8) 0.0260(2) 1 0
O1 O2- 8 j 0.1260(4) 0.3565(3) 0.5530(4) 0.0400(13) 0.6164(19) 0
O2 O2- 8 j -0.3759(8) 0.3510(6) 0.4515(5) 0.046(2) 0.3951(15) 0
Si11 Si3+ 8 j -0.53999(9) 0.41002(6) 0.30507(8) 0.0271(2) 1 0
Si12 Si3+ 8 j 0.04228(9) 0.41046(6) 0.30673(8) 0.0282(2) 1 0
Si13 Si3+ 4 h -0.5 0.17629(9) 0.5 0.0248(3) 1 0
Si14 Si3+ 4 g 0. 0.17683(9) 0.5 0.0319(4) 1 0
O3 O2- 8 j 0.0986(4) 0.3696(4) 0.3847(4) 0.0847(18) 1 0
O4 O2- 8 j -0.3723(3) 0.23433(18) 0.3447(2) 0.0412(8) 1 0
O5 O2- 8 j 0.1763(7) 0.2306(6) 0.3047(7) 0.050(2) 0.3836(19) 0
O6 O2- 8 j -0.3906(3) 0.0899(2) 0.2773(3) 0.0471(10) 1 0
O7 O2- 8 j 0.2528(3) 0.2914(2) 0.4431(2) 0.0672(8) 1 0
O8 O2- 8 j -0.2499(3) 0.11413(13) 0.38500(13) 0.0360(4) 1 0
O9 O2- 8 j -0.4386(3) 0.11680(19) 0.4393(3) 0.0398(8) 1 0
O10 O2- 8 j 0.0765(3) 0.2304(3) 0.4507(3) 0.0630(13) 1 0
O11 O2- 8 j -0.2482(3) 0.35312(14) 0.31937(18) 0.0491(6) 1 0
O12 O2- 8 j -0.4360(3) 0.3691(3) 0.2887(3) 0.0630(13) 1 0
O13 O2- 8 j -0.0630(3) 0.3679(3) 0.2889(3) 0.0551(11) 1 0
O14 O2- 8 j -0.3121(7) 0.2710(5) 0.1959(6) 0.0404(15) 0.378(7) 0
O15 O2- 8 j -0.3657(11) 0.2842(7) 0.1865(8) 0.0404(15) 0.236(7) 0
O16 O2- 8 j -0.1295(3) 0.23354(17) 0.3429(3) 0.0417(8) 1 0
O17 O2- 8 j -0.6001(4) 0.3642(3) 0.3765(4) 0.0795(17) 1 0
O18 O2- 8 j -0.1111(3) 0.0900(2) 0.2778(3) 0.0495(10) 1 0
O19 O2- 8 j -0.5740(3) 0.2294(2) 0.4502(3) 0.0629(13) 1 0
O20 O2- 8 j -0.0585(3) 0.11796(18) 0.4355(3) 0.0397(8) 1 0
O21 O2- 4 i 0.0268(5) 0.5 0.3367(3) 0.0521(16) 1 0
O22 O2- 4 i -0.5212(5) 0.5 0.3349(4) 0.063(2) 1 0
Na1 Na1+ 4 i -0.2519(7) 0. 0.2866(7) 0.0282(17) 0.43(3) 0
Na2 Na1+ 4 i -0.531(3) 0. 0.457(4) 0.045(12) 0.08(2) 0
Na3 Na1+ 4 i 0.0150(7) 0. 0.4829(6) 0.056(3) 0.406(12) 0
Na4 Na1+ 4 i -0.2503(7) 0. 0.2623(8) 0.0378(15) 0.49(3) 0
Na5 Na1+ 4 i -0.3135(13) 0.5 0.3025(11) 0.096(7) 0.275(15) 0
Na6 Na1+ 4 i -0.171(2) 0.5 0.336(2) 0.071(11) 0.117(12) 0
Na7 Na1+ 8 j 0.119(4) 0.260(3) 0.536(4) 0.025(19) 0.020(6) 0
Na8 Na1+ 4 g 0. 0.363(13) 0.5 0.11(9) 0.025(15) 0
Na9 Na1+ 4 i -0.0554(18) 0.5 0.4899(11) 0.080(8) 0.227(19) 0
Na10 Na1+ 2 c -0.5 0. 0.5 0.079(7) 0.74(4) 0
Na11 Na1+ 4 h -0.5 0.4625(15) 0.5 0.187(15) 0.33(2) 0
Na12 Na1+ 8 j 0.1521(13) 0.1782(10) 0.3328(10) 0.084(6) 0.178(10) 0
Na13 Na1+ 8 j 0.0690(14) 0.2261(11) 0.3102(12) 0.053(6) 0.105(7) 0
Na14 Na1+ 4 g 0. 0.528(2) 0.5 0.057(13) 0.094(17) 0
loop_
_atom_site_aniso_label
_atom_site_aniso_type_symbol
_atom_site_aniso_U_11
_atom_site_aniso_U_22
_atom_site_aniso_U_33
_atom_site_aniso_U_12
_atom_site_aniso_U_13
_atom_site_aniso_U_23
Si1 Si3+ 0.0204(5) 0.0215(4) 0.0244(4) -0.0009(4) 0.0010(5) 0.0006(4)
Si2 Si3+ 0.0391(16) 0.0310(13) 0.0293(14) -0.0057(13) -0.0143(13) 0.0036(11)
Si3 Si3+ 0.0231(7) 0.0331(7) 0.0256(7) -0.0040(6) -0.0009(6) 0.0020(6)
Si4 Si3+ 0.0210(6) 0.0204(6) 0.0313(7) 0.0007(5) -0.0024(6) 0.0003(5)
Si5 Si3+ 0.0210(6) 0.0204(6) 0.0313(7) 0.0007(5) -0.0024(6) 0.0003(5)
Si6 Si3+ 0.0266(7) 0.0295(7) 0.0263(7) 0.0033(6) 0.0016(6) 0.0040(6)
Si7 Si3+ 0.0266(7) 0.0295(7) 0.0263(7) 0.0033(6) 0.0016(6) 0.0040(6)
Si8 Si3+ 0.0215(6) 0.0278(7) 0.0276(6) -0.0048(5) -0.0018(6) 0.0025(5)
Si9 Si3+ 0.0215(6) 0.0278(7) 0.0276(6) -0.0048(5) -0.0018(6) 0.0025(5)
Si10 Si3+ 0.0188(5) 0.0249(5) 0.0344(5) -0.0020(4) -0.0014(5) -0.0055(4)
O1 O2- 0.047(3) 0.042(3) 0.031(2) 0.003(2) -0.001(2) -0.007(2)
O2 O2- 0.062(6) 0.051(5) 0.025(4) -0.013(4) -0.007(4) 0.002(3)
Si11 Si3+ 0.0285(5) 0.0206(5) 0.0322(6) 0.0011(4) -0.0080(5) 0.0017(4)
Si12 Si3+ 0.0288(6) 0.0203(5) 0.0353(6) -0.0011(4) 0.0020(6) 0.0019(4)
Si13 Si3+ 0.0220(7) 0.0209(6) 0.0316(7) 0. 0.0045(6) 0.
Si14 Si3+ 0.0225(7) 0.0207(6) 0.0524(10) 0. -0.0130(8) 0.
O3 O2- 0.082(4) 0.103(4) 0.069(3) -0.005(3) -0.029(3) 0.039(3)
O4 O2- 0.0456(19) 0.0311(16) 0.047(2) 0.0039(14) 0.0049(17) 0.0047(15)
O6 O2- 0.053(2) 0.0380(18) 0.050(2) 0.0085(15) -0.0175(18) -0.0188(17)
O7 O2- 0.0350(13) 0.093(2) 0.0739(19) 0.012(3) 0.002(3) -0.0170(17)
O8 O2- 0.0255(8) 0.0430(10) 0.0394(10) -0.0041(17) -0.0094(17) 0.0080(8)
O9 O2- 0.0396(18) 0.0287(16) 0.051(2) 0.0005(14) 0.0213(16) 0.0037(15)
O10 O2- 0.062(3) 0.065(3) 0.062(3) -0.031(2) -0.002(2) 0.014(2)
O11 O2- 0.0322(10) 0.0395(11) 0.0756(17) -0.0057(18) 0.001(2) 0.0051(11)
O12 O2- 0.042(2) 0.061(3) 0.086(4) 0.021(2) 0.000(2) 0.014(3)
O13 O2- 0.042(2) 0.059(2) 0.065(3) -0.0250(19) 0.0071(19) 0.007(2)
O16 O2- 0.0423(18) 0.0235(14) 0.059(2) 0.0012(13) -0.0060(17) 0.0032(15)
O17 O2- 0.094(4) 0.051(2) 0.094(4) -0.011(2) 0.026(3) 0.031(3)
O18 O2- 0.050(2) 0.0407(19) 0.057(2) -0.0095(15) 0.0227(19) -0.0142(19)
O19 O2- 0.057(2) 0.060(3) 0.072(3) 0.032(2) -0.007(2) 0.005(2)
O20 O2- 0.0356(17) 0.0268(15) 0.057(2) -0.0017(14) -0.0186(16) -0.0036(15)
O21 O2- 0.092(5) 0.025(2) 0.039(3) 0. 0.016(3) 0.
O22 O2- 0.083(5) 0.030(2) 0.075(4) 0. -0.053(4) 0.
Na10 Na1+ 0.144(11) 0.008(2) 0.085(12) 0. 0.053(11) 0.
#End of TTdata_254042-ICSD