
#(C) 2019 by FIZ Karlsruhe - Leibniz Institute for Information Infrastructure.  All rights reserved.
data_2540-ICSD
_database_code_ICSD 2540
_audit_creation_date 1980-01-01
_audit_update_record 2012-08-01
_chemical_name_systematic 'Sodium tetraamidogallate'
_chemical_formula_structural 'Na Ga (N H2)4'
_chemical_formula_sum 'H8 Ga1 N4 Na1'
_chemical_name_structure_type NaAl(NH2)4
_exptl_crystal_density_diffrn 1.79
_publ_section_title

;
Structures des amidoaluminates alcalins M Al (N H2)4, (M= Na, K, Cs).
Structure de l'amidogallate de sodium Na Ga (N H2)4
;
loop_
_citation_id
_citation_journal_full
_citation_year
_citation_journal_volume
_citation_page_first
_citation_page_last
_citation_journal_id_ASTM
primary

;
Acta Crystallographica, Section B: Structural Crystallography and Crystal
Chemistry
; 1973 29 925 934 ACBCAR
loop_
_publ_author_name
'Molinie, P.'
'Brec, R.'
'Rouxel, J.'
'Herpin, P.'
_cell_length_a 7.423(6)
_cell_length_b 6.107(5)
_cell_length_c 12.85(1)
_cell_angle_alpha 90.
_cell_angle_beta 90.25(25)
_cell_angle_gamma 90.
_cell_volume 582.51
_cell_formula_units_Z 4
_symmetry_space_group_name_H-M 'P 1 21/c 1'
_symmetry_Int_Tables_number 14
_refine_ls_R_factor_all 0.053
loop_
_symmetry_equiv_pos_site_id
_symmetry_equiv_pos_as_xyz
1 'x, -y+1/2, z+1/2'
2 '-x, -y, -z'
3 '-x, y+1/2, -z+1/2'
4 'x, y, z'
loop_
_atom_type_symbol
_atom_type_oxidation_number
Na1+ 1
Ga3+ 3
N3- -3
H1+ 1
loop_
_atom_site_label
_atom_site_type_symbol
_atom_site_symmetry_multiplicity
_atom_site_Wyckoff_symbol
_atom_site_fract_x
_atom_site_fract_y
_atom_site_fract_z
_atom_site_B_iso_or_equiv
_atom_site_occupancy
_atom_site_attached_hydrogens
Na1 Na1+ 4 e 0.763(3) 0.144(3) 0.180(1) . 1. 0
Ga1 Ga3+ 4 e 0.2550(8) 0.1359(7) 0.1579(3) . 1. 0
N1 N3- 4 e 0.494(3) 0.257(3) 0.109(1) . 1. 0
N2 N3- 4 e 0.219(3) 0.243(3) 0.298(1) . 1. 0
N3 N3- 4 e 0.053(3) 0.240(3) 0.089(1) . 1. 0
N4 N3- 4 e 0.734(3) 0.330(3) 0.352(1) . 1. 0
H1 H1+ 4 e 0.23(3) 0.32(4) 0.86(1) 3.32 1. 0
H2 H1+ 4 e 0.19(3) 0.13(4) 0.82(1) 3.32 1. 0
H3 H1+ 4 e 0.02(3) 0.13(4) 0.57(1) 3.32 1. 0
H4 H1+ 4 e 0.06(3) 0.35(4) 0.51(1) 3.32 1. 0
H5 H1+ 4 e 0.30(3) 0.71(4) 0.58(1) 3.32 1. 0
H6 H1+ 4 e 0.10(3) 0.71(4) 0.64(1) 3.32 1. 0
H7 H1+ 4 e 0.58(3) 0.05(4) 0.59(2) 3.32 1. 0
H8 H1+ 4 e 0.56(3) 0.28(4) 0.53(1) 3.32 1. 0
loop_
_atom_site_aniso_label
_atom_site_aniso_type_symbol
_atom_site_aniso_beta_11
_atom_site_aniso_beta_22
_atom_site_aniso_beta_33
_atom_site_aniso_beta_12
_atom_site_aniso_beta_13
_atom_site_aniso_beta_23
Na1 Na1+ -.013 0.0171 0.0046 0.0002 -.0008 0.0007
Ga1 Ga3+ -.0138 0.012 0.0028 0 -.0003 0.0002
N1 N3- -.0128 0.0225 0.0059 -.0087 0.0022 0.0021
N2 N3- 0.0027 0.0208 0.0042 -.0045 0.0018 -.006
N3 N3- -.0192 0.0266 0.0053 0.0031 -.004 0
N4 N3- -.008 0.0171 0.004 0.0048 -.0003 0.0002
#End of TTdata_2540-ICSD