
#(C) 2018 by FIZ Karlsruhe - Leibniz Institute for Information Infrastructure.  All rights reserved.
data_254209-ICSD
_database_code_ICSD 254209
_audit_creation_date 2018-02-01
_chemical_name_systematic 'Tridecalithium scandium octakis(selenate(IV))'
_chemical_formula_structural 'Li13 Sc (Se O3)8'
_chemical_formula_sum 'Li13 O24 Sc1 Se8'
_exptl_crystal_density_diffrn 3.19
_cell_measurement_temperature 298.
_publ_section_title

;
Li13Mn(SeO3)8: Lithium-rich transition metal selenite containing Jahn-Teller
distortive cations
;
loop_
_citation_id
_citation_journal_full
_citation_year
_citation_journal_volume
_citation_page_first
_citation_page_last
_citation_journal_id_ASTM
primary 'Inorganic Chemistry' 2017 56 9369 9375 INOCAJ
loop_
_publ_author_name
'Jo, Hongil'
'Song, Seung Yoon'
'Cho, Eunjeong'
'So, Jongho'
'Lee, Suheon'
'Choi, Kwang Yong'
'Ok, Kang Min'
_cell_length_a 9.6240(3)
_cell_length_b 9.6240(3)
_cell_length_c 22.4298(5)
_cell_angle_alpha 90
_cell_angle_beta 90
_cell_angle_gamma 120
_cell_volume 1799.14
_cell_formula_units_Z 3
_symmetry_space_group_name_H-M 'R -3 H'
_symmetry_Int_Tables_number 148
_refine_ls_R_factor_all 0.0398
loop_
_symmetry_equiv_pos_site_id
_symmetry_equiv_pos_as_xyz
1 'x-y, x, -z'
2 'y, -x+y, -z'
3 '-x, -y, -z'
4 '-x+y, -x, z'
5 '-y, x-y, z'
6 'x, y, z'
7 'x-y+2/3, x+1/3, -z+1/3'
8 'y+2/3, -x+y+1/3, -z+1/3'
9 '-x+2/3, -y+1/3, -z+1/3'
10 '-x+y+2/3, -x+1/3, z+1/3'
11 '-y+2/3, x-y+1/3, z+1/3'
12 'x+2/3, y+1/3, z+1/3'
13 'x-y+1/3, x+2/3, -z+2/3'
14 'y+1/3, -x+y+2/3, -z+2/3'
15 '-x+1/3, -y+2/3, -z+2/3'
16 '-x+y+1/3, -x+2/3, z+2/3'
17 '-y+1/3, x-y+2/3, z+2/3'
18 'x+1/3, y+2/3, z+2/3'
loop_
_atom_type_symbol
_atom_type_oxidation_number
Se4+ 4
Sc3+ 3
O2- -2
Li1+ 1
loop_
_atom_site_label
_atom_site_type_symbol
_atom_site_symmetry_multiplicity
_atom_site_Wyckoff_symbol
_atom_site_fract_x
_atom_site_fract_y
_atom_site_fract_z
_atom_site_B_iso_or_equiv
_atom_site_occupancy
_atom_site_attached_hydrogens
Se1 Se4+ 18 f 0.61501(7) 0.82039(7) 0.05529(3) 0.0131(2) 1 0
Se2 Se4+ 6 c 1 1 0.22238(5) 0.0150(3) 1 0
Sc1 Sc3+ 3 a 1 1 0 0.0107(6) 1 0
O1 O2- 18 f 0.8050(5) 0.8452(5) 0.05401(17) 0.0156(9) 1 0
O2 O2- 18 f 0.5486(5) 0.7176(5) 0.11945(17) 0.0161(9) 1 0
O3 O2- 18 f 0.6514(5) 1.0023(5) 0.07664(18) 0.0183(10) 1 0
O4 O2- 18 f 1.1708(5) 1.1404(5) 0.18901(17) 0.0152(9) 1 0
Li1 Li1+ 3 b 0.3333 0.6667 0.1667 0.014(5) 1 0
Li2 Li1+ 18 f 0.4925(12) 0.5024(13) 0.1377(5) 0.020(2) 1 0
Li3 Li1+ 18 f 0.8620(13) 1.1393(14) 0.1109(5) 0.023(3) 1 0
loop_
_atom_site_aniso_label
_atom_site_aniso_type_symbol
_atom_site_aniso_U_11
_atom_site_aniso_U_22
_atom_site_aniso_U_33
_atom_site_aniso_U_12
_atom_site_aniso_U_13
_atom_site_aniso_U_23
Se1 Se4+ 0.0117(4) 0.0144(4) 0.0130(3) 0.0065(3) -0.0001(2) -0.0006(2)
Se2 Se4+ 0.0145(4) 0.0145(4) 0.0160(5) 0.0072(2) 0 0
Sc1 Sc3+ 0.0114(9) 0.0114(9) 0.0094(13) 0.0057(4) 0 0
O1 O2- 0.011(2) 0.019(2) 0.018(2) 0.009(2) 0.0064(17) 0.0042(17)
O2 O2- 0.021(2) 0.012(2) 0.013(2) 0.0056(19) 0.0049(17) 0.0018(16)
O3 O2- 0.017(2) 0.015(2) 0.025(2) 0.009(2) 0.0017(18) -0.0015(18)
O4 O2- 0.014(2) 0.013(2) 0.020(2) 0.008(2) 0.0033(17) 0.0014(17)
Li1 Li1+ 0.003(7) 0.003(7) 0.038(15) 0.001(4) 0 0
Li2 Li1+ 0.018(6) 0.016(6) 0.024(6) 0.008(5) 0.003(4) 0.003(4)
Li3 Li1+ 0.016(6) 0.037(7) 0.025(6) 0.020(6) 0.000(4) 0.005(5)
#End of TTdata_254209-ICSD