
#(C) 2018 by FIZ Karlsruhe - Leibniz Institute for Information Infrastructure.  All rights reserved.
data_254210-ICSD
_database_code_ICSD 254210
_audit_creation_date 2018-02-01
_chemical_name_systematic 'Tridecalithium iron(III) octakis(selenate(IV))'
_chemical_formula_structural 'Li13 Fe (Se O3)8'
_chemical_formula_sum 'Fe1 Li13 O24 Se8'
_exptl_crystal_density_diffrn 3.3
_cell_measurement_temperature 298.
_publ_section_title

;
Li13Mn(SeO3)8: Lithium-rich transition metal selenite containing Jahn-Teller
distortive cations
;
loop_
_citation_id
_citation_journal_full
_citation_year
_citation_journal_volume
_citation_page_first
_citation_page_last
_citation_journal_id_ASTM
primary 'Inorganic Chemistry' 2017 56 9369 9375 INOCAJ
loop_
_publ_author_name
'Jo, Hongil'
'Song, Seung Yoon'
'Cho, Eunjeong'
'So, Jongho'
'Lee, Suheon'
'Choi, Kwang Yong'
'Ok, Kang Min'
_cell_length_a 9.5985(2)
_cell_length_b 9.5985(2)
_cell_length_c 21.9577(3)
_cell_angle_alpha 90
_cell_angle_beta 90
_cell_angle_gamma 120
_cell_volume 1751.96
_cell_formula_units_Z 3
_symmetry_space_group_name_H-M 'R -3 H'
_symmetry_Int_Tables_number 148
_refine_ls_R_factor_all 0.0277
loop_
_symmetry_equiv_pos_site_id
_symmetry_equiv_pos_as_xyz
1 'x-y, x, -z'
2 'y, -x+y, -z'
3 '-x, -y, -z'
4 '-x+y, -x, z'
5 '-y, x-y, z'
6 'x, y, z'
7 'x-y+2/3, x+1/3, -z+1/3'
8 'y+2/3, -x+y+1/3, -z+1/3'
9 '-x+2/3, -y+1/3, -z+1/3'
10 '-x+y+2/3, -x+1/3, z+1/3'
11 '-y+2/3, x-y+1/3, z+1/3'
12 'x+2/3, y+1/3, z+1/3'
13 'x-y+1/3, x+2/3, -z+2/3'
14 'y+1/3, -x+y+2/3, -z+2/3'
15 '-x+1/3, -y+2/3, -z+2/3'
16 '-x+y+1/3, -x+2/3, z+2/3'
17 '-y+1/3, x-y+2/3, z+2/3'
18 'x+1/3, y+2/3, z+2/3'
loop_
_atom_type_symbol
_atom_type_oxidation_number
Se4+ 4
Fe3+ 3
O2- -2
Li1+ 1
loop_
_atom_site_label
_atom_site_type_symbol
_atom_site_symmetry_multiplicity
_atom_site_Wyckoff_symbol
_atom_site_fract_x
_atom_site_fract_y
_atom_site_fract_z
_atom_site_B_iso_or_equiv
_atom_site_occupancy
_atom_site_attached_hydrogens
Se1 Se4+ 18 f 0.61944(4) 0.79507(4) 0.05255(2) 0.01169(15) 1 0
Se2 Se4+ 6 c 0.6667 0.3333 0.10915(3) 0.01114(18) 1 0
Fe1 Fe3+ 3 a 1 1 0 0.0099(3) 1 0
O1 O2- 18 f 0.8120(3) 0.9602(3) 0.05327(12) 0.0141(5) 1 0
O2 O2- 18 f 0.5500(3) 0.8305(3) 0.11767(12) 0.0155(6) 1 0
O3 O2- 18 f 0.6518(3) 0.6464(3) 0.07426(13) 0.0171(6) 1 0
O4 O2- 18 f 0.4948(3) 0.3033(3) 0.14328(12) 0.0145(5) 1 0
Li1 Li1+ 3 b 0.3333 0.6667 0.1667 0.018(3) 1 0
Li2 Li1+ 18 f 0.4963(8) 0.5064(7) 0.1365(3) 0.0168(14) 1 0
Li3 Li1+ 18 f 0.8637(8) 1.1368(8) 0.1101(4) 0.0219(16) 1 0
loop_
_atom_site_aniso_label
_atom_site_aniso_type_symbol
_atom_site_aniso_U_11
_atom_site_aniso_U_22
_atom_site_aniso_U_33
_atom_site_aniso_U_12
_atom_site_aniso_U_13
_atom_site_aniso_U_23
Se1 Se4+ 0.0114(2) 0.0122(2) 0.0104(2) 0.00510(15) -0.00001(13) 0.00039(13)
Se2 Se4+ 0.0116(2) 0.0116(2) 0.0103(3) 0.00578(11) 0 0
Fe1 Fe3+ 0.0107(4) 0.0107(4) 0.0082(6) 0.00534(18) 0 0
O1 O2- 0.0121(12) 0.0132(13) 0.0131(14) 0.0034(10) 0.0016(10) -0.0032(10)
O2 O2- 0.0178(13) 0.0179(13) 0.0135(13) 0.0111(11) 0.0039(11) 0.0016(11)
O3 O2- 0.0164(13) 0.0131(13) 0.0233(16) 0.0085(11) 0.0029(11) 0.0021(11)
O4 O2- 0.0128(12) 0.0149(12) 0.0158(14) 0.0069(10) 0.0023(11) 0.0017(11)
Li1 Li1+ 0.014(4) 0.014(4) 0.027(10) 0.007(2) 0 0
Li2 Li1+ 0.019(3) 0.018(3) 0.016(4) 0.011(3) -0.002(3) 0.000(3)
Li3 Li1+ 0.021(3) 0.020(3) 0.026(4) 0.011(3) -0.002(3) -0.004(3)
#End of TTdata_254210-ICSD