
#(C) 2019 by FIZ Karlsruhe - Leibniz Institute for Information Infrastructure.  All rights reserved.
data_254416-ICSD
_database_code_ICSD 254416
_audit_creation_date 2018-02-01
_chemical_name_systematic 'Dirubidium dicesium dotriacosaoxo-icosaborate'
_chemical_formula_structural 'Rb2 Na2 B20 O32'
_chemical_formula_sum 'B20 Na2 O32 Rb2'
_exptl_crystal_density_diffrn 2.01
_cell_measurement_temperature 123.
_publ_section_title

;
Three mixed-alkaline borates. Na2M2B20O32 (M = Rb, Cs) with two
interpenetrating three-dimensional B-O networks and Li4Cs4B40O64 with
fundamental building block B40O77
;
loop_
_citation_id
_citation_journal_full
_citation_year
_citation_journal_volume
_citation_page_first
_citation_page_last
_citation_journal_id_ASTM
primary 'Inorganic Chemistry' 2017 56 13456 13463 INOCAJ
loop_
_publ_author_name
'Abudoureheman, Maierhaba'
'Han, Shujuan'
'Wang, Ying'
'Liu, Qiong'
'Yang, Zhihua'
'Pan, Shilie'
_cell_length_a 12.0194(3)
_cell_length_b 12.4188(3)
_cell_length_c 11.4969(3)
_cell_angle_alpha 90.
_cell_angle_beta 114.731(2)
_cell_angle_gamma 90.
_cell_volume 1558.7
_cell_formula_units_Z 2
_symmetry_space_group_name_H-M 'C 1 2/c 1'
_symmetry_Int_Tables_number 15
_refine_ls_R_factor_all 0.0346
loop_
_symmetry_equiv_pos_site_id
_symmetry_equiv_pos_as_xyz
1 'x, -y, z+1/2'
2 '-x, -y, -z'
3 '-x, y, -z+1/2'
4 'x, y, z'
5 'x+1/2, -y+1/2, z+1/2'
6 '-x+1/2, -y+1/2, -z'
7 '-x+1/2, y+1/2, -z+1/2'
8 'x+1/2, y+1/2, z'
loop_
_atom_type_symbol
_atom_type_oxidation_number
Rb1+ 1
Na1+ 1
B3+ 3
O2- -2
loop_
_atom_site_label
_atom_site_type_symbol
_atom_site_symmetry_multiplicity
_atom_site_Wyckoff_symbol
_atom_site_fract_x
_atom_site_fract_y
_atom_site_fract_z
_atom_site_B_iso_or_equiv
_atom_site_occupancy
_atom_site_attached_hydrogens
Rb1 Rb1+ 4 e 0. 0.17015(3) 0.25 0.01411(13) 1 0
Na1 Na1+ 4 e 0. 0.49879(13) -0.25 0.0132(4) 1 0
B1 B3+ 8 f 0.2685(3) 0.6265(3) -0.0623(3) 0.0108(7) 1 0
B2 B3+ 8 f 0.2195(3) 0.4842(3) 0.0641(3) 0.0107(7) 1 0
B3 B3+ 8 f 0.1982(3) 0.3485(3) 0.2081(3) 0.0113(7) 1 0
B4 B3+ 8 f 0.0407(3) 0.3743(3) -0.0112(3) 0.0106(7) 1 0
B5 B3+ 8 f 0.3535(3) 0.7671(3) -0.1407(3) 0.0102(7) 1 0
O1 O2- 8 f 0.26544(16) 0.43230(15) 0.17522(16) 0.0126(4) 1 0
O2 O2- 8 f 0.26757(16) 0.24882(15) 0.24013(16) 0.0113(4) 1 0
O3 O2- 8 f 0.28328(16) 0.56982(15) 0.04583(16) 0.0120(4) 1 0
O4 O2- 8 f 0.35853(16) 0.70347(15) -0.03990(16) 0.0121(4) 1 0
O5 O2- 8 f 0.17770(16) 0.61151(15) -0.17938(16) 0.0110(4) 1 0
O6 O2- 8 f 0.10761(16) 0.45600(15) -0.03382(16) 0.0111(4) 1 0
O7 O2- 8 f 0.07652(16) 0.32839(15) 0.10440(16) 0.0102(4) 1 0
O8 O2- 8 f -0.06343(16) 0.34958(15) -0.11845(16) 0.0109(4) 1 0
loop_
_atom_site_aniso_label
_atom_site_aniso_type_symbol
_atom_site_aniso_U_11
_atom_site_aniso_U_22
_atom_site_aniso_U_33
_atom_site_aniso_U_12
_atom_site_aniso_U_13
_atom_site_aniso_U_23
Rb1 Rb1+ 0.0121(2) 0.0159(3) 0.01074(19) 0. 0.00125(14) 0.
Na1 Na1+ 0.0121(8) 0.0153(9) 0.0096(8) 0. 0.0019(6) 0.
B1 B3+ 0.0083(16) 0.0101(18) 0.0132(15) 0.0016(13) 0.0039(13) 0.0005(13)
B2 B3+ 0.0090(15) 0.0121(19) 0.0107(15) 0.0008(13) 0.0036(12) -0.0030(13)
B3 B3+ 0.0095(16) 0.015(2) 0.0078(14) -0.0003(13) 0.0016(12) -0.0003(13)
B4 B3+ 0.0106(16) 0.0086(17) 0.0124(15) 0.0016(13) 0.0046(13) -0.0004(13)
B5 B3+ 0.0080(15) 0.0109(19) 0.0110(15) 0.0019(13) 0.0033(12) 0.0010(13)
O1 O2- 0.0093(10) 0.0156(12) 0.0091(9) -0.0015(8) 0.0000(8) 0.0037(8)
O2 O2- 0.0118(10) 0.0114(11) 0.0088(9) 0.0036(8) 0.0024(8) 0.0018(8)
O3 O2- 0.0094(10) 0.0148(12) 0.0078(9) -0.0036(8) -0.0004(8) 0.0018(8)
O4 O2- 0.0106(10) 0.0135(11) 0.0092(9) -0.0049(8) 0.0011(8) 0.0021(8)
O5 O2- 0.0107(10) 0.0118(11) 0.0093(9) -0.0026(8) 0.0030(8) 0.0002(8)
O6 O2- 0.0104(10) 0.0124(11) 0.0084(9) -0.0035(8) 0.0018(8) 0.0018(8)
O7 O2- 0.0082(9) 0.0110(11) 0.0089(9) -0.0018(8) 0.0011(7) 0.0016(8)
O8 O2- 0.0101(10) 0.0129(12) 0.0072(9) -0.0026(8) 0.0011(8) 0.0012(8)
#End of TTdata_254416-ICSD