
#(C) 2019 by FIZ Karlsruhe - Leibniz Institute for Information Infrastructure.  All rights reserved.
data_254402-ICSD
_database_code_ICSD 254402
_audit_creation_date 2018-02-01
_chemical_name_systematic 'Disodium dinickel iron tris(phosphate) - beta'
_chemical_formula_structural 'Na2 Ni2 Fe (P O4)3'
_chemical_formula_sum 'Fe1 Na2 Ni2 O12 P3'
_exptl_crystal_density_diffrn 3.76
_cell_measurement_temperature 300.
_publ_section_title

;
Synthesis and structural, electrical, and magnetic properties of new
iron-aluminum alluaudite phases beta-Na2Ni2M(PO4)3 (M = Fe and Al)
;
loop_
_citation_id
_citation_journal_full
_citation_year
_citation_journal_volume
_citation_page_first
_citation_page_last
_citation_journal_id_ASTM
primary 'Inorganic Chemistry' 2017 56 13051 13061 INOCAJ
loop_
_publ_author_name
'Harbaoui, Douha'
'Sanad, Moustafa M.S.'
'Rossignol, Cecile'
'Hlil, El Kebir'
'Amdouni, Noureddine'
'Obbade, Said'
_cell_length_a 10.39930(11)
_cell_length_b 13.19555(14)
_cell_length_c 6.49553(7)
_cell_angle_alpha 90.
_cell_angle_beta 90.
_cell_angle_gamma 90.
_cell_volume 891.34
_cell_formula_units_Z 4
_symmetry_space_group_name_H-M 'I m m a'
_symmetry_Int_Tables_number 74
_refine_ls_R_factor_all 0.056
loop_
_symmetry_equiv_pos_site_id
_symmetry_equiv_pos_as_xyz
1 '-x, y+1/2, -z'
2 '-x, -y+1/2, z'
3 '-x, y, z'
4 '-x, -y, -z'
5 'x, -y+1/2, z'
6 'x, y+1/2, -z'
7 'x, -y, -z'
8 'x, y, z'
9 '-x+1/2, y, -z+1/2'
10 '-x+1/2, -y, z+1/2'
11 '-x+1/2, y+1/2, z+1/2'
12 '-x+1/2, -y+1/2, -z+1/2'
13 'x+1/2, -y, z+1/2'
14 'x+1/2, y, -z+1/2'
15 'x+1/2, -y+1/2, -z+1/2'
16 'x+1/2, y+1/2, z+1/2'
loop_
_atom_type_symbol
_atom_type_oxidation_number
Na1+ 1
Ni2+ 2
Fe3+ 3
P5+ 5
O2- -2
loop_
_atom_site_label
_atom_site_type_symbol
_atom_site_symmetry_multiplicity
_atom_site_Wyckoff_symbol
_atom_site_fract_x
_atom_site_fract_y
_atom_site_fract_z
_atom_site_B_iso_or_equiv
_atom_site_occupancy
_atom_site_attached_hydrogens
Na1 Na1+ 4 e 0. 0.75 0.6091(10) 0.058(2) 1. 0
Na2 Na1+ 4 b 0. 0.5 0.5 0.052(3) 1. 0
Ni1 Ni2+ 8 g 0.25 0.63681(13) 0.25 0.0133(6) 1. 0
Fe1 Fe3+ 4 a 0.5 0.5 0.5 0.0137(10) 1. 0
P1 P5+ 8 g 0.25 0.4282(2) 0.25 0.0125(9) 1. 0
P2 P5+ 4 e 0. 0.75 0.0865(6) 0.0133(14) 1. 0
O1 O2- 16 j 0.2892(3) 0.3676(3) 0.0632(5) 0.0093(13) 1. 0
O2 O2- 16 j 0.1382(3) 0.5070(3) 0.2105(6) 0.0090(15) 1. 0
O3 O2- 8 h 0. 0.6547(4) 0.9522(7) 0.0107(19) 1. 0
O4 O2- 8 i 0.1200(5) 0.75 0.2261(9) 0.007(2) 1. 0
#End of TTdata_254402-ICSD