
#(C) 2019 by FIZ Karlsruhe - Leibniz Institute for Information Infrastructure.  All rights reserved.
data_254516-ICSD
_database_code_ICSD 254516
_audit_creation_date 2018-02-01
_chemical_name_systematic 'Disodium barium iron(II) bis(vanadate) - LT'
_chemical_formula_structural 'Na2 Ba Fe (V O4)2'
_chemical_formula_sum 'Ba1 Fe1 Na2 O8 V2'
_exptl_crystal_density_diffrn 4.12
_cell_measurement_temperature 100.
_publ_section_title

;
Investigation of a structural phase transition and magnetic structure of
Na2BaFe(VO4)2. A triangular magnetic lattice with a ferromagnetic ground state
;
loop_
_citation_id
_citation_journal_full
_citation_year
_citation_journal_volume
_citation_page_first
_citation_page_last
_citation_journal_id_ASTM
primary 'Inorganic Chemistry' 2017 56 14842 14849 INOCAJ
loop_
_publ_author_name
'Sanjeewa, Liurukara D.'
'Garlea, Vasile O.'
'McGuire, Michael A.'
'Frontzek, Matthias'
'McMillen, Colin D.'
'Fulle, Kyle'
'Kolis, Joseph W.'
_cell_length_a 9.5534(6)
_cell_length_b 5.6033(6)
_cell_length_c 14.1249(11)
_cell_angle_alpha 90
_cell_angle_beta 90.332(4)
_cell_angle_gamma 90
_cell_volume 756.1
_cell_formula_units_Z 4
_symmetry_space_group_name_H-M 'C 1 2/c 1'
_symmetry_Int_Tables_number 15
_refine_ls_R_factor_all 0.0489
loop_
_symmetry_equiv_pos_site_id
_symmetry_equiv_pos_as_xyz
1 'x, -y, z+1/2'
2 '-x, -y, -z'
3 '-x, y, -z+1/2'
4 'x, y, z'
5 'x+1/2, -y+1/2, z+1/2'
6 '-x+1/2, -y+1/2, -z'
7 '-x+1/2, y+1/2, -z+1/2'
8 'x+1/2, y+1/2, z'
loop_
_atom_type_symbol
_atom_type_oxidation_number
Na1+ 1
Ba2+ 2
Fe2+ 2
V5+ 5
O2- -2
loop_
_atom_site_label
_atom_site_type_symbol
_atom_site_symmetry_multiplicity
_atom_site_Wyckoff_symbol
_atom_site_fract_x
_atom_site_fract_y
_atom_site_fract_z
_atom_site_B_iso_or_equiv
_atom_site_occupancy
_atom_site_attached_hydrogens
Na1 Na1+ 8 f 0.3313(4) 0.4708(7) 0.0845(3) 0.0069(8) 1 0
Ba1 Ba2+ 4 e 0.5 -0.05582(15) 0.25 0.0054(3) 1 0
Fe1 Fe2+ 4 b 0.5 0. 0.5 0.0049(4) 1 0
V1 V5+ 8 f 0.33252(16) 0.4722(3) 0.36802(11) 0.0035(4) 1 0
O1 O2- 8 f 0.3238(8) 0.5138(14) 0.2502(5) 0.0101(15) 1 0
O2 O2- 8 f 0.3870(8) 0.7343(13) 0.4197(5) 0.0075(13) 1 0
O3 O2- 8 f 0.4510(8) 0.2471(13) 0.3968(5) 0.0085(14) 1 0
O4 O2- 8 f 0.1705(7) 0.4022(13) 0.4121(5) 0.0086(14) 1 0
loop_
_atom_site_aniso_label
_atom_site_aniso_type_symbol
_atom_site_aniso_U_11
_atom_site_aniso_U_22
_atom_site_aniso_U_33
_atom_site_aniso_U_12
_atom_site_aniso_U_13
_atom_site_aniso_U_23
Na1 Na1+ 0.0086(18) 0.0074(18) 0.0046(17) 0.0000(15) 0.0004(13) 0.0013(14)
Ba1 Ba2+ 0.0060(4) 0.0084(4) 0.0018(4) 0. 0.0006(2) 0.
Fe1 Fe2+ 0.0065(9) 0.0049(9) 0.0033(8) 0.0003(7) 0.0010(6) -0.0001(6)
V1 V5+ 0.0033(7) 0.0056(7) 0.0016(7) 0.0004(6) 0.0009(5) -0.0001(6)
O1 O2- 0.011(3) 0.016(4) 0.004(3) -0.003(3) 0.001(2) 0.001(3)
O2 O2- 0.010(3) 0.008(3) 0.005(3) -0.001(3) 0.001(2) 0.001(3)
O3 O2- 0.008(3) 0.007(3) 0.010(3) 0.002(3) 0.000(3) -0.003(3)
O4 O2- 0.005(3) 0.010(3) 0.011(3) -0.001(3) -0.001(2) 0.002(3)
#End of TTdata_254516-ICSD