
#(C) 2019 by FIZ Karlsruhe - Leibniz Institute for Information Infrastructure.  All rights reserved.
data_255046-ICSD
_database_code_ICSD 255046
_audit_creation_date 2018-08-01
_chemical_name_systematic 'Potassium sodium copper diphosphate'
_chemical_formula_structural 'K Na Cu P2 O7'
_chemical_formula_sum 'Cu1 K1 Na1 O7 P2'
_exptl_crystal_density_diffrn 3.04
_cell_measurement_temperature 298.
_publ_section_title
'Crystal structure of KNaCuP2O7, a new member of the diphosphate family'
loop_
_citation_id
_citation_journal_full
_citation_year
_citation_journal_volume
_citation_page_first
_citation_page_last
_citation_journal_id_ASTM
primary 'Acta Crystallographica, Section E: Crystallographic Communications'
2018 74 109 112 ACSECI
loop_
_publ_author_name
'Fitouri, Ines'
'Boughzala, Habib'
_cell_length_a 5.176(3)
_cell_length_b 13.972(5)
_cell_length_c 9.067(3)
_cell_angle_alpha 90
_cell_angle_beta 91.34(2)
_cell_angle_gamma 90
_cell_volume 655.53
_cell_formula_units_Z 4
_symmetry_space_group_name_H-M 'P 1 21/n 1'
_symmetry_Int_Tables_number 14
_refine_ls_R_factor_all 0.0204
loop_
_symmetry_equiv_pos_site_id
_symmetry_equiv_pos_as_xyz
1 '-x+1/2, y+1/2, -z+1/2'
2 '-x, -y, -z'
3 'x+1/2, -y+1/2, z+1/2'
4 'x, y, z'
loop_
_atom_type_symbol
_atom_type_oxidation_number
Cu2+ 2
P5+ 5
Na1+ 1
K1+ 1
O2- -2
loop_
_atom_site_label
_atom_site_type_symbol
_atom_site_symmetry_multiplicity
_atom_site_Wyckoff_symbol
_atom_site_fract_x
_atom_site_fract_y
_atom_site_fract_z
_atom_site_B_iso_or_equiv
_atom_site_occupancy
_atom_site_attached_hydrogens
Cu1 Cu2+ 4 e 0.76039(5) 0.66590(2) 0.21888(3) 0.01093(12) 1 0
P1 P5+ 4 e 0.26527(12) 0.54589(5) 0.24314(7) 0.01115(15) 1 0
P2 P5+ 4 e 0.25245(11) 0.68972(4) 0.02910(6) 0.00898(15) 1 0
Na1 Na1+ 4 e 0.7521(2) 0.70912(8) -0.16272(11) 0.0192(2) 1 0
K1 K1+ 4 e 0.75717(11) 0.40697(4) 0.38439(6) 0.01850(15) 1 0
O1 O2- 4 e 0.2223(4) 0.44115(15) 0.2502(2) 0.0223(4) 1 0
O2 O2- 4 e 0.5278(3) 0.57557(14) 0.3077(2) 0.0176(4) 1 0
O3 O2- 4 e 0.0576(3) 0.60643(15) 0.31633(19) 0.0179(4) 1 0
O4 O2- 4 e 0.2588(3) 0.57729(12) 0.07029(18) 0.0126(4) 1 0
O5 O2- 4 e 0.2938(3) 0.69884(14) -0.13300(18) 0.0160(4) 1 0
O6 O2- 4 e 0.4685(3) 0.73465(13) 0.12308(19) 0.0138(4) 1 0
O7 O2- 4 e -0.0125(3) 0.72712(13) 0.07246(19) 0.0139(4) 1 0
loop_
_atom_site_aniso_label
_atom_site_aniso_type_symbol
_atom_site_aniso_U_11
_atom_site_aniso_U_22
_atom_site_aniso_U_33
_atom_site_aniso_U_12
_atom_site_aniso_U_13
_atom_site_aniso_U_23
Cu1 Cu2+ 0.00808(16) 0.01226(18) 0.01244(17) 0.00043(11) 0.00010(11) 0.00296(11)
P1 P5+ 0.0103(3) 0.0102(3) 0.0130(3) 0.0000(2) 0.0007(2) 0.0029(2)
P2 P5+ 0.0088(3) 0.0099(3) 0.0082(3) 0.0002(2) 0.0008(2) 0.0009(2)
Na1 Na1+ 0.0190(5) 0.0213(6) 0.0172(5) -0.0021(4) -0.0001(4) 0.0020(5)
K1 K1+ 0.0220(3) 0.0153(3) 0.0182(3) 0.0022(2) -0.0008(2) 0.0000(2)
O1 O2- 0.0272(10) 0.0115(10) 0.0280(10) -0.0046(8) 0.0001(8) 0.0049(8)
O2 O2- 0.0123(8) 0.0198(10) 0.0206(9) -0.0026(8) -0.0022(7) 0.0093(8)
O3 O2- 0.0151(9) 0.0261(10) 0.0126(8) 0.0075(8) 0.0008(7) 0.0036(8)
O4 O2- 0.0178(8) 0.0093(8) 0.0107(8) -0.0006(7) 0.0012(6) -0.0003(7)
O5 O2- 0.0213(9) 0.0179(9) 0.0088(8) 0.0015(8) 0.0025(7) 0.0013(7)
O6 O2- 0.0115(8) 0.0115(8) 0.0181(8) -0.0002(7) -0.0041(6) 0.0011(7)
O7 O2- 0.0091(8) 0.0154(9) 0.0173(8) 0.0016(7) 0.0030(6) 0.0044(8)
#End of TTdata_255046-ICSD