
#(C) 2019 by FIZ Karlsruhe - Leibniz Institute for Information Infrastructure.  All rights reserved.
data_255894-ICSD
_database_code_ICSD 255894
_audit_creation_date 2018-08-01
_chemical_name_systematic *
_chemical_formula_structural 'Mn72 Na8 O408 W48'
_chemical_formula_sum 'Mn72 Na8 O408 W48'
_exptl_crystal_density_diffrn 2.6
_cell_measurement_temperature 296.
_publ_section_title

;
A high-nuclearity isopolyoxotungstate based manganese cluster: one-pot
synthesis and step-by-step assembly
;
loop_
_citation_id
_citation_journal_full
_citation_year
_citation_journal_volume
_citation_page_first
_citation_page_last
_citation_journal_id_ASTM
primary 'Chemical Communications (Cambridge, United Kingdom)' 2018 54 5458 5461
CHCOFS
loop_
_publ_author_name
'Zhang, Chao'
'Zhang, Mengrui'
'Shi, Hongyu'
'Zeng, Qingdao'
'Zhang, Dongdi'
'Zhao, Yaqing'
'Wang, Yuan'
'Ma, Pengtao'
'Wang, Jingping'
'Niu, Jingyang'
_cell_length_a 20.0430(11)
_cell_length_b 20.1636(11)
_cell_length_c 32.1730(19)
_cell_angle_alpha 93.9140(10)
_cell_angle_beta 96.5640(10)
_cell_angle_gamma 104.5020(10)
_cell_volume 12441.96
_cell_formula_units_Z 1
_symmetry_space_group_name_H-M 'P -1'
_symmetry_Int_Tables_number 2
_refine_ls_R_factor_all 0.0756
loop_
_symmetry_equiv_pos_site_id
_symmetry_equiv_pos_as_xyz
1 '-x, -y, -z'
2 'x, y, z'
loop_
_atom_type_symbol
_atom_type_oxidation_number
W0+ 0
Mn0+ 0
Na0+ 0
O0+ 0
loop_
_atom_site_label
_atom_site_type_symbol
_atom_site_symmetry_multiplicity
_atom_site_Wyckoff_symbol
_atom_site_fract_x
_atom_site_fract_y
_atom_site_fract_z
_atom_site_B_iso_or_equiv
_atom_site_occupancy
_atom_site_attached_hydrogens
W1 W0+ 2 i 0.11611(5) 0.32276(5) 0.98544(3) 0.0269(2) 1 0
W2 W0+ 2 i -0.03448(5) 0.31150(5) 0.93525(3) 0.0260(2) 1 0
W3 W0+ 2 i -0.06638(5) 0.48572(5) 0.79494(3) 0.0289(2) 1 0
W4 W0+ 2 i 0.06665(5) 0.59464(5) 0.77248(3) 0.0288(2) 1 0
W5 W0+ 2 i 0.34904(5) 0.62311(5) 0.86906(3) 0.0293(2) 1 0
W6 W0+ 2 i 0.36652(5) 0.52777(5) 0.94291(3) 0.0259(2) 1 0
W7 W0+ 2 i 0.51464(5) 0.29426(5) 0.91869(3) 0.0268(2) 1 0
W8 W0+ 2 i 0.57372(5) 0.26817(5) 0.83245(3) 0.0280(2) 1 0
W9 W0+ 2 i 0.43677(5) 0.01549(5) 0.71500(3) 0.0320(3) 1 0
W10 W0+ 2 i 0.30388(5) -0.09341(5) 0.73772(3) 0.0281(2) 1 0
W11 W0+ 2 i 0.19350(5) -0.04648(4) 0.90009(3) 0.0257(2) 1 0
W12 W0+ 2 i 0.26645(5) 0.08980(5) 0.96297(3) 0.0265(2) 1 0
W13 W0+ 2 i 0.18080(6) 0.54121(5) 0.60552(4) 0.0403(3) 1 0
W14 W0+ 2 i 0.10764(6) 0.40646(5) 0.54218(4) 0.0408(3) 1 0
W15 W0+ 2 i 0.25169(5) 0.18217(6) 0.51923(4) 0.0398(3) 1 0
W16 W0+ 2 i 0.40276(6) 0.19750(6) 0.56998(4) 0.0397(3) 1 0
W17 W0+ 2 i 0.54090(5) 0.45067(5) 0.68820(4) 0.0410(3) 1 0
W18 W0+ 2 i 0.46305(6) 0.56944(5) 0.70097(4) 0.0423(3) 1 0
W19 W0+ 2 i -0.14862(5) 0.19492(5) 0.58589(3) 0.0347(3) 1 0
W20 W0+ 2 i -0.20438(5) 0.22381(5) 0.67237(3) 0.0295(2) 1 0
W21 W0+ 2 i -0.17289(5) 0.04832(5) 0.81268(3) 0.0297(2) 1 0
W22 W0+ 2 i -0.09869(5) -0.07334(5) 0.80103(3) 0.0309(2) 1 0
W23 W0+ 2 i 0.01153(5) -0.12485(5) 0.63924(3) 0.0361(3) 1 0
W24 W0+ 2 i -0.00764(5) -0.03208(5) 0.56458(3) 0.0310(2) 1 0
Mn1 Mn0+ 2 i -0.03431(16) 0.39803(16) 0.86273(11) 0.0237(8) 1 0
Mn2 Mn0+ 2 i 0.08322(16) 0.49668(16) 0.84291(11) 0.0221(8) 1 0
Mn3 Mn0+ 2 i 0.09855(15) 0.41093(16) 0.91027(11) 0.0211(8) 1 0
Mn4 Mn0+ 2 i 0.20373(17) 0.59198(16) 0.82189(11) 0.0245(8) 1 0
Mn5 Mn0+ 2 i 0.22013(15) 0.51015(15) 0.88963(11) 0.0201(8) 1 0
Mn6 Mn0+ 2 i 0.23425(15) 0.42270(15) 0.95419(11) 0.0211(8) 1 0
Mn7 Mn0+ 2 i 0.38370(16) 0.18811(16) 0.93055(11) 0.0227(8) 1 0
Mn8 Mn0+ 2 i 0.43988(16) 0.16498(15) 0.85469(11) 0.0226(8) 1 0
Mn9 Mn0+ 2 i 0.31976(16) 0.06544(15) 0.87634(11) 0.0211(8) 1 0
Mn10 Mn0+ 2 i 0.48918(16) 0.14201(16) 0.77667(11) 0.0250(8) 1 0
Mn11 Mn0+ 2 i 0.37326(16) 0.04271(15) 0.79774(11) 0.0221(8) 1 0
Mn12 Mn0+ 2 i 0.25370(16) -0.05279(16) 0.81867(11) 0.0237(8) 1 0
Mn13 Mn0+ 2 i 0.31791(18) 0.53778(17) 0.65371(12) 0.0321(9) 1 0
Mn14 Mn0+ 2 i 0.25246(19) 0.41972(18) 0.59594(12) 0.0333(9) 1 0
Mn15 Mn0+ 2 i 0.38897(18) 0.43336(18) 0.64154(12) 0.0333(9) 1 0
Mn16 Mn0+ 2 i 0.18687(18) 0.29761(18) 0.54091(12) 0.0335(9) 1 0
Mn17 Mn0+ 2 i 0.32227(18) 0.31098(18) 0.58435(12) 0.0320(9) 1 0
Mn18 Mn0+ 2 i 0.45624(18) 0.32541(18) 0.63151(12) 0.0351(10) 1 0
Mn19 Mn0+ 2 i -0.06936(18) 0.08588(17) 0.58642(11) 0.0289(9) 1 0
Mn20 Mn0+ 2 i -0.12329(17) 0.10975(16) 0.66261(11) 0.0243(8) 1 0
Mn21 Mn0+ 2 i -0.05548(17) -0.00035(17) 0.65183(11) 0.0254(8) 1 0
Mn22 Mn0+ 2 i -0.17186(16) 0.13481(16) 0.74033(11) 0.0239(8) 1 0
Mn23 Mn0+ 2 i -0.10821(17) 0.02510(16) 0.72994(11) 0.0254(8) 1 0
Mn24 Mn0+ 2 i -0.03985(16) -0.08389(16) 0.71800(11) 0.0229(8) 1 0
Mn25 Mn0+ 2 i 0.37955(16) 0.35957(16) 0.94676(11) 0.0246(8) 1 0
Mn26 Mn0+ 2 i 0.25908(17) 0.26092(17) 0.96770(11) 0.0265(8) 1 0
Mn27 Mn0+ 2 i 0.53051(18) 0.29295(17) 0.72817(12) 0.0320(9) 1 0
Mn28 Mn0+ 2 i 0.46339(18) 0.17122(18) 0.67129(13) 0.0363(10) 1 0
Mn29 Mn0+ 2 i 0.33458(19) 0.59734(18) 0.75963(13) 0.0370(10) 1 0
Mn30 Mn0+ 2 i 0.19926(19) 0.58410(18) 0.71364(12) 0.0354(10) 1 0
Mn31 Mn0+ 2 i -0.13389(17) 0.30978(17) 0.77093(12) 0.0298(9) 1 0
Mn32 Mn0+ 2 i -0.11893(17) 0.22551(17) 0.83850(11) 0.0282(9) 1 0
Mn33 Mn0+ 2 i 0.07289(17) -0.08317(17) 0.80903(11) 0.0284(9) 1 0
Mn34 Mn0+ 2 i 0.12745(18) -0.10610(17) 0.73113(12) 0.0324(9) 1 0
Mn35 Mn0+ 2 i 0.08126(19) 0.13054(18) 0.54096(12) 0.0352(10) 1 0
Mn36 Mn0+ 2 i 0.01295(19) 0.23955(18) 0.55173(12) 0.0359(10) 1 0
Na1 Na0+ 2 i -0.0257(5) 0.3255(6) 1.0550(4) 0.059(3) 1 0
Na2 Na0+ 2 i -0.1734(6) 0.4207(6) 0.9285(4) 0.075(4) 1 0
Na3 Na0+ 2 i -0.1877(6) 0.3073(6) 1.0030(4) 0.061(3) 1 0
Na4 Na0+ 2 i -0.3371(7) 0.1881(6) 1.0138(5) 0.094(5) 1 0
O1 O0+ 2 i 0.0829(8) 0.3178(8) 1.0331(5) 0.039(4) 1 0
O2 O0+ 2 i -0.0990(7) 0.3220(7) 0.8298(5) 0.029(4) 1 0
O3 O0+ 2 i 0.1406(7) 0.4374(6) 0.8603(4) 0.022(3) 1 0
O4 O0+ 2 i 0.0402(7) 0.4694(6) 0.8909(4) 0.020(3) 1 0
O5 O0+ 2 i 0.1779(7) 0.4823(7) 0.9399(5) 0.027(4) 1 0
O6 O0+ 2 i 0.3041(7) 0.4982(7) 0.9816(5) 0.023(3) 1 0
O7 O0+ 2 i 0.1623(7) 0.5678(6) 0.8719(4) 0.022(3) 1 0
O8 O0+ 2 i 0.0570(7) 0.3889(7) 0.9588(5) 0.026(4) 1 0
O9 O0+ 2 i 0.0254(7) 0.3423(7) 0.8814(5) 0.025(3) 1 0
O10 O0+ 2 i 0.0364(7) 0.2630(7) 0.9487(5) 0.032(4) 1 0
O11 O0+ 2 i 0.2594(7) 0.5343(7) 0.8408(5) 0.023(3) 1 0
O12 O0+ 2 i 0.2742(7) 0.4504(7) 0.9044(5) 0.027(4) 1 0
O13 O0+ 2 i 0.2748(7) 0.6610(7) 0.8551(5) 0.029(4) 1 0
O14 O0+ 2 i 0.1896(7) 0.4037(7) 1.0012(5) 0.027(4) 1 0
O15 O0+ 2 i 0.0248(7) 0.5566(7) 0.8266(5) 0.024(3) 1 0
O16 O0+ 2 i 0.1431(7) 0.6482(7) 0.8093(5) 0.030(4) 1 0
O17 O0+ 2 i 0.1550(7) 0.3537(7) 0.9261(5) 0.029(4) 1 0
O18 O0+ 2 i -0.0719(8) 0.3046(7) 0.9809(5) 0.034(4) 1 0
O19 O0+ 2 i 0.2892(7) 0.3577(7) 0.9620(5) 0.024(3) 1 0
O20 O0+ 2 i 0.3889(8) 0.5496(7) 0.8888(5) 0.036(4) 1 0
O21 O0+ 2 i 0.2949(7) 0.5833(7) 0.9193(5) 0.024(3) 1 0
O22 O0+ 2 i 0.1266(7) 0.5195(7) 0.7953(5) 0.025(3) 1 0
O23 O0+ 2 i 0.4053(8) 0.6938(7) 0.8981(5) 0.037(4) 1 0
O24 O0+ 2 i 0.0115(7) 0.4263(7) 0.8148(5) 0.030(4) 1 0
O25 O0+ 2 i 0.2447(7) 0.6017(7) 0.7709(5) 0.024(3) 1 0
O26 O0+ 2 i -0.0889(8) 0.2429(8) 0.8986(5) 0.042(4) 1 0
O27 O0+ 2 i -0.0080(8) 0.5118(7) 0.7525(5) 0.036(4) 1 0
O28 O0+ 2 i -0.0717(8) 0.3806(7) 0.9124(5) 0.034(4) 1 0
O29 O0+ 2 i -0.0841(7) 0.4603(7) 0.8491(5) 0.027(4) 1 0
O30 O0+ 2 i 0.4083(7) 0.4587(7) 0.9451(5) 0.029(4) 1 0
O31 O0+ 2 i 0.4244(8) 0.5942(7) 0.9747(5) 0.035(4) 1 0
O32 O0+ 2 i -0.1172(8) 0.5420(8) 0.7878(5) 0.040(4) 1 0
O33 O0+ 2 i 0.1703(7) 0.2632(7) 0.9861(5) 0.032(4) 1 0
O34 O0+ 2 i 0.3772(7) 0.6232(7) 0.8170(5) 0.031(4) 1 0
O35 O0+ 2 i 0.0195(8) 0.6539(7) 0.7663(5) 0.039(4) 1 0
O36 O0+ 2 i 0.1103(8) 0.5925(8) 0.7277(5) 0.040(4) 1 0
O37 O0+ 2 i -0.1176(7) 0.4073(7) 0.7664(5) 0.031(4) 1 0
O38 O0+ 2 i 0.5152(7) 0.0661(7) 0.7506(5) 0.032(4) 1 0
O39 O0+ 2 i 0.3472(7) 0.1148(6) 0.8296(4) 0.022(3) 1 0
O40 O0+ 2 i 0.2822(7) -0.0031(6) 0.7735(5) 0.023(3) 1 0
O41 O0+ 2 i 0.1608(7) -0.0869(7) 0.7907(5) 0.023(3) 1 0
O42 O0+ 2 i 0.1795(7) 0.0370(7) 0.9287(5) 0.032(4) 1 0
O43 O0+ 2 i 0.3463(7) -0.0055(7) 0.8457(5) 0.025(3) 1 0
O44 O0+ 2 i 0.2954(7) 0.0163(6) 0.9228(4) 0.022(3) 1 0
O45 O0+ 2 i 0.2943(7) 0.1375(7) 0.9043(5) 0.025(3) 1 0
O46 O0+ 2 i 0.4788(7) 0.2302(7) 0.9546(5) 0.023(3) 1 0
O47 O0+ 2 i 0.3972(7) 0.0917(6) 0.7528(5) 0.022(3) 1 0
O48 O0+ 2 i 0.4005(7) -0.0308(7) 0.7681(5) 0.029(4) 1 0
O49 O0+ 2 i 0.2867(8) -0.1225(8) 0.7903(5) 0.039(4) 1 0
O50 O0+ 2 i 0.4648(7) 0.0923(7) 0.8236(5) 0.023(3) 1 0
O51 O0+ 2 i 0.4111(7) 0.2345(6) 0.8838(5) 0.022(3) 1 0
O52 O0+ 2 i 0.5310(7) 0.2103(6) 0.8808(4) 0.020(3) 1 0
O53 O0+ 2 i 0.3475(7) 0.2619(6) 0.9508(4) 0.022(3) 1 0
O54 O0+ 2 i 0.5003(7) 0.1958(7) 0.7293(5) 0.027(4) 1 0
O55 O0+ 2 i 0.3328(9) -0.1622(9) 0.7205(6) 0.055(5) 1 0
O56 O0+ 2 i 0.2357(7) -0.0986(7) 0.8667(5) 0.024(3) 1 0
O57 O0+ 2 i 0.1826(8) -0.0984(8) 0.9400(5) 0.041(4) 1 0
O58 O0+ 2 i 0.4699(9) -0.0508(9) 0.6961(6) 0.059(5) 1 0
O59 O0+ 2 i 0.4107(7) 0.1137(6) 0.9015(4) 0.021(3) 1 0
O60 O0+ 2 i 0.5303(7) 0.3282(6) 0.8662(5) 0.023(3) 1 0
O61 O0+ 2 i 0.5981(7) 0.3219(7) 0.9451(5) 0.028(4) 1 0
O62 O0+ 2 i 0.2312(7) 0.0193(7) 0.8497(5) 0.027(4) 1 0
O63 O0+ 2 i 0.3374(7) -0.0282(7) 0.6981(5) 0.028(4) 1 0
O64 O0+ 2 i 0.2342(8) 0.1634(8) 0.9756(5) 0.040(4) 1 0
O65 O0+ 2 i 0.1096(8) -0.0693(7) 0.8679(5) 0.037(4) 1 0
O66 O0+ 2 i 0.3604(7) 0.1334(7) 0.9750(5) 0.031(4) 1 0
O67 O0+ 2 i 0.4411(8) 0.0726(8) 0.6751(5) 0.041(4) 1 0
O68 O0+ 2 i 0.4610(7) 0.2118(7) 0.8092(5) 0.029(4) 1 0
O69 O0+ 2 i 0.5791(7) 0.1857(7) 0.8052(5) 0.031(4) 1 0
O70 O0+ 2 i 0.6604(8) 0.2978(8) 0.8581(6) 0.044(4) 1 0
O71 O0+ 2 i 0.4695(8) 0.3595(7) 0.9323(5) 0.036(4) 1 0
O72 O0+ 2 i 0.5731(8) 0.3143(7) 0.7862(5) 0.036(4) 1 0
O73 O0+ 2 i 0.2591(8) 0.0453(7) 1.0065(5) 0.037(4) 1 0
O74 O0+ 2 i 0.2147(8) -0.1130(7) 0.7140(5) 0.037(4) 1 0
O75 O0+ 2 i 0.3413(7) 0.4858(7) 0.6083(5) 0.030(4) 1 0
O76 O0+ 2 i 0.4777(8) 0.4996(7) 0.6521(5) 0.038(4) 1 0
O77 O0+ 2 i 0.2363(7) 0.2467(7) 0.5757(5) 0.032(4) 1 0
O78 O0+ 2 i 0.3678(7) 0.2598(7) 0.6183(5) 0.028(4) 1 0
O79 O0+ 2 i 0.2758(8) 0.5871(8) 0.6148(5) 0.042(4) 1 0
O80 O0+ 2 i 0.3006(7) 0.3650(7) 0.6303(5) 0.031(4) 1 0
O81 O0+ 2 i 0.5378(8) 0.3963(8) 0.6378(6) 0.045(5) 1 0
O82 O0+ 2 i 0.1016(8) 0.2308(8) 0.5383(6) 0.044(4) 1 0
O83 O0+ 2 i 0.5401(9) 0.6324(8) 0.7013(6) 0.051(5) 1 0
O84 O0+ 2 i 0.4063(8) 0.6013(8) 0.6607(5) 0.040(4) 1 0
O85 O0+ 2 i 0.2748(8) 0.3648(7) 0.5512(5) 0.036(4) 1 0
O86 O0+ 2 i 0.2077(9) 0.4742(8) 0.5616(6) 0.049(5) 1 0
O87 O0+ 2 i 0.4326(7) 0.3798(7) 0.6758(5) 0.031(4) 1 0
O88 O0+ 2 i 0.4740(9) 0.2773(8) 0.5851(6) 0.048(5) 1 0
O89 O0+ 2 i 0.4884(8) 0.2686(7) 0.6704(5) 0.036(4) 1 0
O90 O0+ 2 i 0.3643(8) 0.4825(7) 0.6860(5) 0.038(4) 1 0
O91 O0+ 2 i 0.1025(8) 0.4619(8) 0.5931(5) 0.041(4) 1 0
O92 O0+ 2 i 0.1576(9) 0.5683(8) 0.6539(6) 0.048(5) 1 0
O93 O0+ 2 i 0.3461(8) 0.2576(8) 0.5388(6) 0.045(5) 1 0
O94 O0+ 2 i 0.1674(8) 0.3536(7) 0.5864(5) 0.033(4) 1 0
O95 O0+ 2 i 0.2307(7) 0.4701(7) 0.6407(5) 0.028(4) 1 0
O96 O0+ 2 i 0.2904(8) 0.5775(8) 0.7014(5) 0.039(4) 1 0
O97 O0+ 2 i 0.2164(9) 0.2517(8) 0.4979(6) 0.050(5) 1 0
O98 O0+ 2 i 0.3052(8) 0.1440(8) 0.5597(6) 0.045(5) 1 0
O99 O0+ 2 i 0.4103(8) 0.3782(7) 0.5966(5) 0.037(4) 1 0
O100 O0+ 2 i 0.6204(9) 0.5118(8) 0.6874(6) 0.048(5) 1 0
O101 O0+ 2 i 0.0323(8) 0.3366(8) 0.5470(5) 0.039(4) 1 0
O102 O0+ 2 i 0.1492(8) 0.3557(8) 0.5063(5) 0.043(4) 1 0
O103 O0+ 2 i 0.4994(8) 0.5004(7) 0.7294(5) 0.039(4) 1 0
O104 O0+ 2 i 0.5587(8) 0.3898(8) 0.7234(6) 0.048(5) 1 0
O105 O0+ 2 i 0.1566(9) 0.5954(8) 0.5687(6) 0.049(5) 1 0
O106 O0+ 2 i 0.4295(9) 0.1645(9) 0.5280(6) 0.055(5) 1 0
O107 O0+ 2 i 0.2788(9) 0.1507(9) 0.4745(6) 0.062(5) 1 0
O108 O0+ 2 i 0.1689(8) 0.1241(8) 0.5241(6) 0.046(5) 1 0
O109 O0+ 2 i 0.0782(9) 0.4542(9) 0.5057(6) 0.055(5) 1 0
O110 O0+ 2 i 0.4265(9) 0.5959(9) 0.7453(6) 0.054(5) 1 0
O111 O0+ 2 i 0.4274(9) 0.1514(8) 0.6112(6) 0.049(5) 1 0
O112 O0+ 2 i -0.1681(7) -0.0280(7) 0.7646(5) 0.024(3) 1 0
O113 O0+ 2 i 0.0394(7) -0.1001(7) 0.7490(5) 0.031(4) 1 0
O114 O0+ 2 i -0.1111(8) -0.0524(7) 0.6887(5) 0.034(4) 1 0
O115 O0+ 2 i -0.1794(7) 0.0577(7) 0.6996(5) 0.028(4) 1 0
O116 O0+ 2 i -0.1014(7) 0.1018(7) 0.7682(5) 0.026(4) 1 0
O117 O0+ 2 i -0.1159(7) 0.1832(7) 0.7022(5) 0.025(3) 1 0
O118 O0+ 2 i -0.1429(8) 0.1298(7) 0.8453(5) 0.035(4) 1 0
O119 O0+ 2 i -0.0832(8) 0.0050(7) 0.5497(5) 0.038(4) 1 0
O120 O0+ 2 i -0.0639(7) -0.0763(7) 0.6103(5) 0.033(4) 1 0
O121 O0+ 2 i -0.0023(7) 0.1435(7) 0.5564(5) 0.031(4) 1 0
O122 O0+ 2 i -0.0526(7) 0.0765(7) 0.6916(5) 0.027(4) 1 0
O123 O0+ 2 i -0.1281(7) 0.0326(7) 0.6224(5) 0.025(3) 1 0
O124 O0+ 2 i -0.1044(8) -0.1324(8) 0.7520(5) 0.041(4) 1 0
O125 O0+ 2 i 0.0000(7) 0.0529(7) 0.6166(5) 0.033(4) 1 0
O126 O0+ 2 i -0.0663(7) 0.1595(7) 0.6260(5) 0.024(3) 1 0
O127 O0+ 2 i -0.1389(7) 0.2624(7) 0.6354(5) 0.030(4) 1 0
O128 O0+ 2 i -0.0314(7) -0.1046(7) 0.5268(5) 0.031(4) 1 0
O129 O0+ 2 i -0.0363(6) -0.0073(6) 0.7584(4) 0.018(3) 1 0
O130 O0+ 2 i -0.1974(7) 0.1417(7) 0.6308(5) 0.032(4) 1 0
O131 O0+ 2 i -0.0927(8) 0.0147(7) 0.8328(5) 0.035(4) 1 0
O132 O0+ 2 i -0.2444(7) 0.1595(7) 0.7075(5) 0.030(4) 1 0
O133 O0+ 2 i -0.1518(7) 0.2148(6) 0.7797(4) 0.022(3) 1 0
O134 O0+ 2 i -0.0545(8) -0.1555(8) 0.6767(5) 0.041(4) 1 0
O135 O0+ 2 i -0.0161(8) -0.0810(7) 0.8262(5) 0.034(4) 1 0
O136 O0+ 2 i 0.0146(7) -0.0307(7) 0.6822(5) 0.027(4) 1 0
O137 O0+ 2 i -0.2778(8) 0.2375(8) 0.6459(5) 0.044(4) 1 0
O138 O0+ 2 i 0.0565(8) 0.0315(8) 0.5442(5) 0.039(4) 1 0
O139 O0+ 2 i -0.1585(9) -0.1277(8) 0.8249(6) 0.051(5) 1 0
O140 O0+ 2 i -0.1487(7) 0.1086(7) 0.5584(5) 0.034(4) 1 0
O141 O0+ 2 i 0.0592(7) -0.0609(7) 0.6036(5) 0.031(4) 1 0
O142 O0+ 2 i -0.2325(7) 0.0766(7) 0.7719(5) 0.024(3) 1 0
O143 O0+ 2 i -0.2380(9) -0.0019(8) 0.8383(6) 0.053(5) 1 0
O144 O0+ 2 i -0.0091(9) -0.1994(9) 0.6036(6) 0.057(5) 1 0
O145 O0+ 2 i -0.2219(8) 0.2067(8) 0.5579(6) 0.045(5) 1 0
O146 O0+ 2 i 0.0901(8) -0.1267(8) 0.6733(5) 0.039(4) 1 0
O147 O0+ 2 i -0.1740(7) 0.2946(7) 0.7125(5) 0.030(4) 1 0
O148 O0+ 2 i -0.0786(8) 0.2467(7) 0.5627(5) 0.034(4) 1 0
O149 O0+ 2 i 0.4305(8) 0.3793(8) 1.0140(5) 0.040(4) 1 0
O150 O0+ 2 i 0.3386(9) 0.3472(9) 0.8769(6) 0.057(5) 1 0
O151 O0+ 2 i 0.3042(9) 0.2771(9) 1.0365(6) 0.062(5) 1 0
O152 O0+ 2 i 0.2058(9) 0.2404(9) 0.9007(6) 0.058(5) 1 0
O153 O0+ 2 i 0.6369(11) 0.2866(10) 0.7139(7) 0.076(6) 1 0
O154 O0+ 2 i 0.4271(10) 0.3038(9) 0.7485(7) 0.065(6) 1 0
O155 O0+ 2 i 0.5668(9) 0.1611(9) 0.6537(6) 0.055(5) 1 0
O156 O0+ 2 i 0.3542(11) 0.1755(10) 0.6834(7) 0.081(7) 1 0
O157 O0+ 2 i 0.3708(10) 0.7088(9) 0.7510(7) 0.067(6) 1 0
O158 O0+ 2 i 0.3138(10) 0.4844(10) 0.7699(7) 0.071(6) 1 0
O159 O0+ 2 i 0.2226(9) 0.7007(9) 0.7095(6) 0.060(5) 1 0
O160 O0+ 2 i 0.1646(9) 0.4700(9) 0.7181(6) 0.061(5) 1 0
O161 O0+ 2 i -0.2453(8) 0.3089(7) 0.7837(5) 0.037(4) 1 0
O162 O0+ 2 i -0.0270(9) 0.3140(9) 0.7505(6) 0.062(6) 1 0
O163 O0+ 2 i -0.2258(8) 0.2264(8) 0.8535(6) 0.047(5) 1 0
O164 O0+ 2 i -0.0105(9) 0.2191(9) 0.8283(6) 0.062(6) 1 0
O165 O0+ 2 i 0.0434(9) -0.1973(8) 0.8137(6) 0.054(5) 1 0
O166 O0+ 2 i 0.0966(8) 0.0333(8) 0.8061(6) 0.045(5) 1 0
O167 O0+ 2 i 0.1059(9) -0.2229(9) 0.7363(6) 0.056(5) 1 0
O168 O0+ 2 i 0.1545(10) 0.0069(9) 0.7187(6) 0.064(6) 1 0
O169 O0+ 2 i 0.1331(11) 0.1427(10) 0.6080(7) 0.082(7) 1 0
O170 O0+ 2 i -0.0271(8) 0.2222(8) 0.4817(6) 0.044(4) 1 0
O171 O0+ 2 i 0.0564(10) 0.2673(10) 0.6217(7) 0.073(6) 1 0
O172 O0+ 2 i 0.0365(14) 0.3627(13) 1.1262(9) 0.125(10) 1 0
O173 O0+ 2 i -0.0036(10) 0.4489(10) 1.0419(7) 0.077(7) 1 0
O174 O0+ 2 i -0.0544(12) 0.2031(11) 1.0599(8) 0.097(8) 1 0
O175 O0+ 2 i -0.1408(9) 0.3239(8) 1.0749(6) 0.052(5) 1 0
O176 O0+ 2 i -0.2878(10) 0.4421(9) 0.9417(7) 0.067(6) 1 0
O177 O0+ 2 i -0.2290(10) 0.4128(10) 0.8568(7) 0.073(6) 1 0
O178 O0+ 2 i -0.1497(12) 0.5374(11) 0.9185(8) 0.092(7) 1 0
O179 O0+ 2 i -0.1415(9) 0.4295(9) 1.0008(6) 0.058(5) 1 0
O180 O0+ 2 i -0.2319(10) 0.2979(9) 0.9306(7) 0.068(6) 1 0
O181 O0+ 2 i -0.2234(10) 0.1865(10) 1.0009(7) 0.072(6) 1 0
O182 O0+ 2 i -0.3000(9) 0.3130(9) 1.0143(6) 0.061(5) 1 0
O183 O0+ 2 i -0.3745(14) 0.1597(14) 0.9369(10) 0.126(10) 1 0
O184 O0+ 2 i -0.4453(12) 0.2054(11) 1.0265(8) 0.094(8) 1 0
O185 O0+ 2 i -0.3638(13) 0.0632(13) 1.0222(9) 0.113(9) 1 0
O186 O0+ 2 i -0.2950(13) 0.2057(12) 1.0867(8) 0.103(8) 1 0
O187 O0+ 2 i 0.2688(7) 0.4912(7) 1.1178(5) 0.034(4) 1 0
O188 O0+ 2 i 0.3429(13) 0.7825(13) 0.8174(9) 0.113(9) 1 0
O189 O0+ 2 i 0.4347(10) 0.5018(10) 1.0591(7) 0.074(6) 1 0
O190 O0+ 2 i 0.1490(10) -0.2376(10) 0.8583(7) 0.073(6) 1 0
O191 O0+ 2 i -0.1556(10) 0.0075(10) 0.4852(7) 0.072(6) 1 0
O192 O0+ 2 i 0.4715(12) -0.0752(12) 0.9607(8) 0.104(8) 1 0
O193 O0+ 2 i 0.4193(12) -0.0909(12) 0.8871(8) 0.101(8) 1 0
O194 O0+ 2 i 0.1095(15) 0.1159(14) 0.8818(10) 0.083(9) 0.75 0
O195 O0+ 2 i 0.2872(15) 0.2313(14) 0.8522(10) 0.084(9) 0.75 0
O196 O0+ 2 i 0.2878(15) 0.4034(15) 1.0729(10) 0.089(10) 0.75 0
O197 O0+ 2 i -0.3280(17) 0.1080(16) 0.8284(12) 0.109(11) 0.75 0
O198 O0+ 2 i 0.6249(18) 0.0697(17) 0.7016(12) 0.120(13) 0.75 0
O199 O0+ 2 i 0.4971(16) -0.0559(15) 1.0470(11) 0.098(11) 0.75 0
O200 O0+ 2 i -0.1489(19) 0.1021(18) 0.4592(13) 0.131(14) 0.75 0
O201 O0+ 2 i -0.2944(17) 0.4284(16) 0.7691(11) 0.106(11) 0.75 0
O202 O0+ 2 i 0.4320(18) 0.3780(17) 0.8222(12) 0.056(10) 0.5 0
O203 O0+ 2 i 0.1745(16) -0.1227(15) 1.0629(11) 0.095(10) 0.75 0
O204 O0+ 2 i 0.3879(18) 0.5346(17) 1.1535(12) 0.116(12) 0.75 0
O205 O0+ 2 i -0.013(2) 0.1207(19) 0.9035(13) 0.067(12) 0.5 0
O206 O0+ 2 i 0.481(2) -0.1251(19) 0.7892(14) 0.072(12) 0.5 0
O207 O0+ 2 i 0.232(2) 0.430(2) 1.1757(14) 0.075(13) 0.5 0
O208 O0+ 2 i 0.205(2) 0.081(2) 0.7814(14) 0.078(13) 0.5 0
O209 O0+ 2 i 0.098(3) 0.130(2) 1.0091(18) 0.110(17) 0.5 0
O210 O0+ 2 i 0.413(3) 0.756(3) 0.6730(18) 0.113 0.5 0
loop_
_atom_site_aniso_label
_atom_site_aniso_type_symbol
_atom_site_aniso_U_11
_atom_site_aniso_U_22
_atom_site_aniso_U_33
_atom_site_aniso_U_12
_atom_site_aniso_U_13
_atom_site_aniso_U_23
W1 W0+ 0.0244(5) 0.0342(6) 0.0246(6) 0.0106(4) 0.0067(4) 0.0046(4)
W2 W0+ 0.0228(5) 0.0314(5) 0.0219(6) 0.0031(4) 0.0047(4) 0.0011(4)
W3 W0+ 0.0233(5) 0.0291(5) 0.0334(7) 0.0077(4) -0.0012(4) 0.0026(5)
W4 W0+ 0.0297(5) 0.0254(5) 0.0320(7) 0.0087(4) 0.0020(5) 0.0061(4)
W5 W0+ 0.0258(5) 0.0263(5) 0.0313(7) 0.0001(4) 0.0012(5) 0.0005(4)
W6 W0+ 0.0206(5) 0.0256(5) 0.0291(6) 0.0052(4) -0.0019(4) -0.0021(4)
W7 W0+ 0.0182(5) 0.0286(5) 0.0309(6) 0.0049(4) -0.0003(4) -0.0046(4)
W8 W0+ 0.0169(5) 0.0321(5) 0.0324(7) 0.0030(4) 0.0026(4) -0.0017(5)
W9 W0+ 0.0306(6) 0.0316(6) 0.0340(7) 0.0077(5) 0.0100(5) -0.0022(5)
W10 W0+ 0.0284(5) 0.0237(5) 0.0321(7) 0.0070(4) 0.0065(5) -0.0021(4)
W11 W0+ 0.0274(5) 0.0237(5) 0.0240(6) 0.0035(4) 0.0016(4) 0.0037(4)
W12 W0+ 0.0286(5) 0.0267(5) 0.0238(6) 0.0072(4) 0.0022(4) 0.0017(4)
W13 W0+ 0.0509(7) 0.0375(6) 0.0331(7) 0.0155(5) 0.0000(5) 0.0036(5)
W14 W0+ 0.0479(7) 0.0425(6) 0.0316(7) 0.0148(6) -0.0036(5) 0.0039(5)
W15 W0+ 0.0393(6) 0.0487(7) 0.0299(7) 0.0120(5) 0.0047(5) -0.0076(5)
W16 W0+ 0.0397(6) 0.0486(7) 0.0326(7) 0.0154(5) 0.0073(5) -0.0018(5)
W17 W0+ 0.0339(6) 0.0389(6) 0.0484(8) 0.0042(5) 0.0086(5) 0.0067(5)
W18 W0+ 0.0376(6) 0.0368(6) 0.0491(8) 0.0031(5) 0.0087(6) 0.0012(5)
W19 W0+ 0.0362(6) 0.0479(6) 0.0236(6) 0.0196(5) 0.0003(5) 0.0030(5)
W20 W0+ 0.0268(5) 0.0384(6) 0.0252(6) 0.0142(5) 0.0004(4) -0.0002(5)
W21 W0+ 0.0303(6) 0.0300(5) 0.0285(6) 0.0062(5) 0.0094(5) -0.0012(4)
W22 W0+ 0.0338(6) 0.0325(6) 0.0283(7) 0.0101(5) 0.0081(5) 0.0046(5)
W23 W0+ 0.0421(6) 0.0414(6) 0.0265(7) 0.0176(5) 0.0008(5) -0.0040(5)
W24 W0+ 0.0381(6) 0.0366(6) 0.0188(6) 0.0130(5) 0.0029(5) -0.0044(4)
Mn1 Mn0+ 0.0193(18) 0.0233(18) 0.026(2) 0.0032(15) -0.0016(15) -0.0006(15)
Mn2 Mn0+ 0.0186(17) 0.0261(18) 0.021(2) 0.0050(15) 0.0014(15) 0.0010(15)
Mn3 Mn0+ 0.0159(17) 0.0235(18) 0.024(2) 0.0056(14) 0.0007(15) 0.0034(15)
Mn4 Mn0+ 0.0235(18) 0.0234(18) 0.026(2) 0.0050(15) 0.0039(16) 0.0026(15)
Mn5 Mn0+ 0.0152(17) 0.0180(17) 0.025(2) 0.0003(14) 0.0015(15) 0.0010(14)
Mn6 Mn0+ 0.0162(17) 0.0212(17) 0.027(2) 0.0075(14) 0.0009(15) 0.0015(15)
Mn7 Mn0+ 0.0196(18) 0.0235(18) 0.025(2) 0.0074(15) 0.0020(15) -0.0028(15)
Mn8 Mn0+ 0.0173(17) 0.0203(17) 0.028(2) 0.0032(14) 0.0017(15) -0.0015(15)
Mn9 Mn0+ 0.0199(17) 0.0221(18) 0.020(2) 0.0046(14) 0.0010(15) -0.0006(15)
Mn10 Mn0+ 0.0180(18) 0.0246(18) 0.030(2) 0.0021(15) 0.0040(16) -0.0007(16)
Mn11 Mn0+ 0.0188(17) 0.0208(17) 0.026(2) 0.0046(14) 0.0027(15) -0.0024(15)
Mn12 Mn0+ 0.0248(19) 0.0234(18) 0.022(2) 0.0050(15) 0.0022(16) 0.0018(15)
Mn13 Mn0+ 0.035(2) 0.028(2) 0.032(2) 0.0060(17) 0.0059(18) 0.0000(17)
Mn14 Mn0+ 0.040(2) 0.035(2) 0.024(2) 0.0095(18) 0.0019(18) 0.0075(17)
Mn15 Mn0+ 0.033(2) 0.032(2) 0.033(3) 0.0061(17) 0.0050(18) 0.0049(17)
Mn16 Mn0+ 0.033(2) 0.037(2) 0.030(2) 0.0097(18) 0.0035(18) -0.0015(18)
Mn17 Mn0+ 0.034(2) 0.035(2) 0.027(2) 0.0081(18) 0.0059(17) 0.0017(17)
Mn18 Mn0+ 0.032(2) 0.038(2) 0.034(3) 0.0086(18) 0.0014(18) 0.0014(18)
Mn19 Mn0+ 0.035(2) 0.035(2) 0.017(2) 0.0136(17) -0.0005(16) -0.0056(16)
Mn20 Mn0+ 0.0276(19) 0.0287(19) 0.017(2) 0.0112(16) -0.0012(15) -0.0014(15)
Mn21 Mn0+ 0.0283(19) 0.034(2) 0.016(2) 0.0135(16) 0.0031(15) -0.0002(15)
Mn22 Mn0+ 0.0245(19) 0.0244(18) 0.023(2) 0.0068(15) 0.0042(16) -0.0010(15)
Mn23 Mn0+ 0.0254(19) 0.0298(19) 0.022(2) 0.0096(16) 0.0051(16) -0.0021(16)
Mn24 Mn0+ 0.0200(18) 0.034(2) 0.020(2) 0.0150(16) 0.0039(15) 0.0098(16)
Mn25 Mn0+ 0.0198(18) 0.0248(18) 0.028(2) 0.0060(15) -0.0009(16) 0.0010(16)
Mn26 Mn0+ 0.0251(19) 0.031(2) 0.027(2) 0.0124(16) 0.0050(16) 0.0032(16)
Mn27 Mn0+ 0.029(2) 0.034(2) 0.033(2) 0.0078(17) 0.0044(17) 0.0030(17)
Mn28 Mn0+ 0.033(2) 0.035(2) 0.038(3) 0.0064(18) 0.0040(19) -0.0006(18)
Mn29 Mn0+ 0.038(2) 0.035(2) 0.036(3) 0.0062(18) 0.0055(19) 0.0003(18)
Mn30 Mn0+ 0.039(2) 0.037(2) 0.030(3) 0.0111(18) 0.0018(18) 0.0048(18)
Mn31 Mn0+ 0.026(2) 0.032(2) 0.030(2) 0.0072(16) 0.0019(17) -0.0007(17)
Mn32 Mn0+ 0.028(2) 0.032(2) 0.025(2) 0.0074(16) 0.0056(16) 0.0002(16)
Mn33 Mn0+ 0.029(2) 0.032(2) 0.027(2) 0.0113(17) 0.0061(17) 0.0026(16)
Mn34 Mn0+ 0.037(2) 0.034(2) 0.027(2) 0.0107(18) 0.0056(18) -0.0022(17)
Mn35 Mn0+ 0.036(2) 0.039(2) 0.030(2) 0.0104(18) 0.0038(18) -0.0037(18)
Mn36 Mn0+ 0.043(2) 0.041(2) 0.026(2) 0.0177(19) 0.0007(18) -0.0019(18)
Na1 Na0+ 0.051(7) 0.072(8) 0.055(9) 0.013(6) 0.019(6) 0.008(6)
Na2 Na0+ 0.054(7) 0.075(8) 0.091(11) 0.018(7) -0.006(7) -0.006(7)
Na3 Na0+ 0.057(7) 0.067(7) 0.057(9) 0.019(6) 0.000(6) -0.005(6)
Na4 Na0+ 0.092(10) 0.071(9) 0.118(14) 0.029(8) -0.010(9) 0.017(8)
#End of TTdata_255894-ICSD