
#(C) 2017 by FIZ Karlsruhe - Leibniz Institute for Information Infrastructure.  All rights reserved.
data_2559-ICSD
_database_code_ICSD 2559
_audit_creation_date 1980-01-01
_chemical_name_systematic 'Lithium hexafluorostannate dihydrate'
_chemical_formula_structural 'Li2 Sn F6 (H2 O)2'
_chemical_formula_sum 'H4 F6 Li2 O2 Sn1'
_chemical_name_structure_type Li2TiF6(H2O)2
_exptl_crystal_density_diffrn 3.32
_publ_section_title
'Lithium hexafluorotitanate dihydrate and lithium hexafluorostannate dihydrate'
loop_
_citation_id
_citation_journal_full
_citation_year
_citation_journal_volume
_citation_page_first
_citation_page_last
_citation_journal_id_ASTM
primary 'Acta Crystallographica B (24,1968-38,1982)' 1973 29 1352 1354 ACBCAR
loop_
_publ_author_name
'Marseglia, E.A.'
'Brown, I.D.'
_cell_length_a 9.818(3)
_cell_length_b 6.101(2)
_cell_length_c 4.7270(6)
_cell_angle_alpha 90.
_cell_angle_beta 90.96(3)
_cell_angle_gamma 90.
_cell_volume 283.11
_cell_formula_units_Z 2
_symmetry_space_group_name_H-M 'C 1 2/m 1'
_symmetry_Int_Tables_number 12
_refine_ls_R_factor_all 0.078
loop_
_symmetry_equiv_pos_site_id
_symmetry_equiv_pos_as_xyz
1 '-x, y, -z'
2 '-x, -y, -z'
3 'x, -y, z'
4 'x, y, z'
5 '-x+1/2, y+1/2, -z'
6 '-x+1/2, -y+1/2, -z'
7 'x+1/2, -y+1/2, z'
8 'x+1/2, y+1/2, z'
loop_
_atom_type_symbol
_atom_type_oxidation_number
Sn4+ 4
F1- -1
O2- -2
Li1+ 1
H1+ 1
loop_
_atom_site_label
_atom_site_type_symbol
_atom_site_symmetry_multiplicity
_atom_site_Wyckoff_symbol
_atom_site_fract_x
_atom_site_fract_y
_atom_site_fract_z
_atom_site_B_iso_or_equiv
_atom_site_occupancy
_atom_site_attached_hydrogens
Sn1 Sn4+ 2 a 0 0 0 . 1. 0
F1 F1- 8 j 0.0875(5) 0.2297(9) 0.2297(9) . 1. 0
F2 F1- 4 i -.1624(6) 0 0.2440(15) . 1. 0
O1 O2- 4 i 0.3414(8) 0 0.2794(17) . 1. 0
Li1 Li1+ 4 f 0.25 0.25 0.5 . 1. 0
loop_
_atom_site_aniso_label
_atom_site_aniso_type_symbol
_atom_site_aniso_U_11
_atom_site_aniso_U_22
_atom_site_aniso_U_33
_atom_site_aniso_U_12
_atom_site_aniso_U_13
_atom_site_aniso_U_23
Sn1 Sn4+ 0.009(1) 0.006(1) 0.010(1) 0 0.001(3) 0
F1 F1- 0.021(3) 0.025(3) 0.015(2) -.002(2) -.004(2) -.007(2)
F2 F1- 0.020(3) 0.027(4) 0.019(3) 0 0.005(3) 0
O1 O2- 0.017(4) 0.022(4) 0.014(3) 0 0.004(3) 0
Li1 Li1+ 0.031(11) 0.041(13) 0.015(8) -.003(10) -.002(8) -.008(8)
#End of TTdata_2559-ICSD