
#(C) 2019 by FIZ Karlsruhe - Leibniz Institute for Information Infrastructure.  All rights reserved.
data_256226-ICSD
_database_code_ICSD 256226
_audit_creation_date 2019-02-01
_chemical_name_systematic 'Disodium hexacalcium bis(silicate) disilicate'
_chemical_formula_structural 'Na2 Ca6 (Si O4)2 (Si2 O7)'
_chemical_formula_sum 'Ca6 Na2 O15 Si4'
_exptl_crystal_density_diffrn 3.08
_cell_measurement_temperature 295.
_publ_section_title

;
On the existence of a high-temperature polymorph of Na2Ca6Si4O15-implications
for the phase equilibria in the system Na2O-CaO-SiO2
;
loop_
_citation_id
_citation_journal_full
_citation_year
_citation_journal_volume
_citation_page_first
_citation_page_last
_citation_journal_id_ASTM
primary 'Mineralogy and Petrology' 2016 110 905 915 MIPEE9
loop_
_publ_author_name
'Kahlenberg, Volker'
'Maier, Matthias'
_cell_length_a 9.0112(5)
_cell_length_b 7.3171(5)
_cell_length_c 10.9723(6)
_cell_angle_alpha 90
_cell_angle_beta 107.720(14)
_cell_angle_gamma 90
_cell_volume 689.14
_cell_formula_units_Z 2
_symmetry_space_group_name_H-M 'P 1 c 1'
_symmetry_Int_Tables_number 7
_refine_ls_R_factor_all 0.043
loop_
_symmetry_equiv_pos_site_id
_symmetry_equiv_pos_as_xyz
1 'x, -y, z+1/2'
2 'x, y, z'
loop_
_atom_type_symbol
_atom_type_oxidation_number
Si4+ 4
O2- -2
Na1+ 1
Ca2+ 2
Na1+ 1
Ca2+ 2
Na1+ 1
loop_
_atom_site_label
_atom_site_type_symbol
_atom_site_symmetry_multiplicity
_atom_site_Wyckoff_symbol
_atom_site_fract_x
_atom_site_fract_y
_atom_site_fract_z
_atom_site_B_iso_or_equiv
_atom_site_occupancy
_atom_site_attached_hydrogens
Si1 Si4+ 2 a 0.3664(3) 0.5049(3) 0.3381(2) 0.0106(5) 1 0
Si2 Si4+ 2 a 0.6271(3) -0.0087(3) 0.6556(2) 0.0129(6) 1 0
Si3 Si4+ 2 a 0.0263(3) -0.0323(3) 0.0347(2) 0.0108(5) 1 0
Si4 Si4+ 2 a 0.9667(3) 0.5304(3) 0.0206(2) 0.0125(5) 1 0
O1 O2- 2 a 0.8207(8) 0.4832(7) 0.8963(7) 0.0212(14) 1 0
O2 O2- 2 a 0.2666(8) 0.3166(8) 0.3293(6) 0.0216(13) 1 0
O3 O2- 2 a 0.2631(8) 0.6918(8) 0.3234(7) 0.0232(14) 1 0
O4 O2- 2 a 0.0643(8) -0.0059(5) 0.1862(6) 0.0159(13) 1 0
O5 O2- 2 a 0.7163(7) -0.1852(8) 0.1874(6) 0.0206(13) 1 0
O6 O2- 2 a 0.9277(8) 0.5119(6) 0.1535(6) 0.0156(13) 1 0
O7 O2- 2 a 0.4970(9) 0.4776(9) 0.9780(7) 0.0273(16) 1 0
O8 O2- 2 a 0.5282(8) -0.0241(8) 0.5029(6) 0.0209(13) 1 0
O9 O2- 2 a 0.1732(9) 0.0159(6) 0.9823(7) 0.0193(14) 1 0
O10 O2- 2 a 0.0011(11) 0.7477(14) 0.9997(5) 0.0369(11) 1 0
O11 O2- 2 a 0.4988(8) 0.0147(7) 0.2340(8) 0.0264(17) 1 0
O12 O2- 2 a 0.4560(9) 0.5016(6) 0.2321(7) 0.0209(14) 1 0
O13 O2- 2 a 0.7307(8) 0.1924(7) 0.1910(7) 0.0232(14) 1 0
O14 O2- 2 a 0.8718(7) 0.0697(10) 0.9485(5) 0.0284(13) 1 0
O15 O2- 2 a 0.1138(7) 0.4252(10) 0.0116(6) 0.0307(15) 1 0
Na1 Na1+ 2 a 0.3409(2) 0.2658(3) 0.07662(18) 0.0161(5) 0.164(11) 0
Ca1 Ca2+ 2 a 0.3409(2) 0.2658(3) 0.07662(18) 0.0161(5) 0.836(11) 0
Ca2 Ca2+ 2 a 0.6782(3) 0.50471(19) 0.1731(2) 0.0141(4) 1 0
Na2 Na1+ 2 a 0.3179(5) 0.7180(6) 0.0741(4) 0.0444(14) 0.836(11) 0
Ca3 Ca2+ 2 a 0.3179(5) 0.7180(6) 0.0741(4) 0.0444(14) 0.164(11) 0
Ca4 Ca2+ 2 a 0.3148(2) 0.0044(2) 0.3329(2) 0.0137(4) 1 0
Ca5 Ca2+ 2 a 0.9978(2) 0.2541(2) 0.27358(13) 0.0185(3) 1 0
Ca6 Ca2+ 2 a 0.9967(2) -0.2469(2) 0.31251(15) 0.0141(3) 1 0
Ca7 Ca2+ 2 a 0.6554(2) 0.2291(3) 0.90486(16) 0.0214(4) 1 0
Na3 Na1+ 2 a 0.6731(4) 0.2144(4) 0.4123(3) 0.0177(8) 1 0
loop_
_atom_site_aniso_label
_atom_site_aniso_type_symbol
_atom_site_aniso_U_11
_atom_site_aniso_U_22
_atom_site_aniso_U_33
_atom_site_aniso_U_12
_atom_site_aniso_U_13
_atom_site_aniso_U_23
Si1 Si4+ 0.0084(13) 0.0142(11) 0.0102(13) -0.0018(7) 0.0045(10) -0.0025(7)
Si2 Si4+ 0.0137(14) 0.0104(10) 0.0160(15) -0.0032(7) 0.0066(10) 0.0008(7)
Si3 Si4+ 0.0093(11) 0.0130(9) 0.0111(11) -0.0027(10) 0.0043(8) 0.0010(9)
Si4 Si4+ 0.0160(13) 0.0104(9) 0.0126(12) -0.0012(10) 0.0066(9) -0.0009(8)
O1 O2- 0.012(3) 0.030(3) 0.019(4) -0.003(2) 0.000(3) 0.005(2)
O2 O2- 0.019(3) 0.014(3) 0.031(3) 0.002(2) 0.007(2) 0.000(2)
O3 O2- 0.016(3) 0.019(3) 0.039(4) -0.002(2) 0.016(3) 0.004(2)
O4 O2- 0.024(3) 0.013(3) 0.010(3) -0.0011(17) 0.005(3) 0.0014(16)
O5 O2- 0.012(3) 0.013(3) 0.035(4) 0.001(2) 0.003(2) 0.003(2)
O6 O2- 0.011(3) 0.022(3) 0.012(3) -0.0002(17) 0.001(2) -0.0025(17)
O7 O2- 0.028(4) 0.044(4) 0.011(4) -0.001(3) 0.007(3) 0.004(2)
O8 O2- 0.022(3) 0.027(3) 0.014(3) 0.000(2) 0.005(3) -0.004(2)
O9 O2- 0.028(4) 0.019(3) 0.019(3) -0.003(2) 0.020(3) -0.0036(19)
O10 O2- 0.071(3) 0.0197(18) 0.026(2) -0.0139(19) 0.024(3) -0.004(3)
O11 O2- 0.016(4) 0.032(3) 0.037(4) 0.006(2) 0.016(3) 0.002(2)
O12 O2- 0.013(3) 0.033(3) 0.020(3) -0.0008(19) 0.009(3) -0.006(2)
O13 O2- 0.024(3) 0.005(2) 0.042(4) -0.003(2) 0.012(3) 0.001(2)
O14 O2- 0.018(3) 0.041(4) 0.023(3) 0.010(3) 0.002(2) 0.008(3)
O15 O2- 0.020(3) 0.046(4) 0.026(3) 0.003(3) 0.007(2) -0.015(3)
Na1 Na1+ 0.0082(8) 0.0177(9) 0.0217(10) -0.0010(7) 0.0035(6) -0.0011(7)
Ca1 Ca2+ 0.0082(8) 0.0177(9) 0.0217(10) -0.0010(7) 0.0035(6) -0.0011(7)
Ca2 Ca2+ 0.0129(9) 0.0130(7) 0.0187(10) -0.0003(5) 0.0081(7) -0.0021(6)
Na2 Na1+ 0.040(3) 0.055(3) 0.037(3) 0.023(2) 0.0115(17) 0.0102(18)
Ca3 Ca2+ 0.040(3) 0.055(3) 0.037(3) 0.023(2) 0.0115(17) 0.0102(18)
Ca4 Ca2+ 0.0106(9) 0.0154(8) 0.0172(11) 0.0001(5) 0.0075(8) -0.0010(5)
Ca5 Ca2+ 0.0160(7) 0.0157(7) 0.0229(8) 0.0025(5) 0.0049(10) 0.0028(8)
Ca6 Ca2+ 0.0140(6) 0.0139(6) 0.0143(7) -0.0006(5) 0.0041(8) -0.0011(6)
Ca7 Ca2+ 0.0216(8) 0.0152(7) 0.0315(11) -0.0006(7) 0.0142(7) -0.0033(7)
Na3 Na1+ 0.0238(19) 0.0136(15) 0.020(2) -0.0076(14) 0.0131(14) -0.0047(12)
#End of TTdata_256226-ICSD