
#(C) 2019 by FIZ Karlsruhe - Leibniz Institute for Information Infrastructure.  All rights reserved.
data_256219-ICSD
_database_code_ICSD 256219
_audit_creation_date 2019-02-01
_chemical_name_systematic 'Sodium pentarubidium tris(oxalato)-ferrate(III)'
_chemical_formula_structural 'Na Rb5 (Fe (C2 O4)3)2'
_chemical_formula_sum 'C12 Fe2 Na1 O24 Rb5'
_exptl_crystal_density_diffrn 2.75
_cell_measurement_temperature 297.
_publ_section_title

;
Spontaneous enantiomorphism in poly-phased alkaline salts of
trisÃ°(oxalato)ferrate(III): crystal structure of cubic NaRb5[Fe(C2O4)3]2
;
loop_
_citation_id
_citation_journal_full
_citation_year
_citation_journal_volume
_citation_page_first
_citation_page_last
_citation_journal_id_ASTM
primary 'Acta Crystallographica, Section E: Crystallographic Communications'
2018 74 905 909 ACSECI
loop_
_publ_author_name
'Piro, O.E.'
'Echeverria, G.A.'
'Baran, E.J.'
_cell_length_a 13.8058(4)
_cell_length_b 13.8058(4)
_cell_length_c 13.8058(4)
_cell_angle_alpha 90
_cell_angle_beta 90
_cell_angle_gamma 90
_cell_volume 2631.38
_cell_formula_units_Z 4
_symmetry_space_group_name_H-M 'P 43 3 2'
_symmetry_Int_Tables_number 212
_refine_ls_R_factor_all 0.0345
loop_
_symmetry_equiv_pos_site_id
_symmetry_equiv_pos_as_xyz
1 'z+1/4, y+3/4, -x+3/4'
2 '-z+3/4, y+1/4, x+3/4'
3 'y+1/4, x+3/4, -z+3/4'
4 '-y+3/4, x+1/4, z+3/4'
5 'x+1/4, z+3/4, -y+3/4'
6 '-x+3/4, z+1/4, y+3/4'
7 'z+3/4, -y+3/4, x+1/4'
8 '-z+1/4, -y+1/4, -x+1/4'
9 'y+3/4, -x+3/4, z+1/4'
10 '-y+1/4, -x+1/4, -z+1/4'
11 'x+3/4, -z+3/4, y+1/4'
12 '-x+1/4, -z+1/4, -y+1/4'
13 '-y+1/2, -z, x+1/2'
14 '-y, z+1/2, -x+1/2'
15 'y+1/2, -z+1/2, -x'
16 'y, z, x'
17 'z+1/2, -x+1/2, -y'
18 '-z+1/2, -x, y+1/2'
19 '-z, x+1/2, -y+1/2'
20 'z, x, y'
21 '-x+1/2, -y, z+1/2'
22 '-x, y+1/2, -z+1/2'
23 'x+1/2, -y+1/2, -z'
24 'x, y, z'
loop_
_atom_type_symbol
_atom_type_oxidation_number
C3+ 3
O2- -2
Fe3+ 3
Rb1+ 1
Na1+ 1
loop_
_atom_site_label
_atom_site_type_symbol
_atom_site_symmetry_multiplicity
_atom_site_Wyckoff_symbol
_atom_site_fract_x
_atom_site_fract_y
_atom_site_fract_z
_atom_site_B_iso_or_equiv
_atom_site_occupancy
_atom_site_attached_hydrogens
C1 C3+ 24 e 0.3861(5) 0.8068(4) 0.3863(5) 0.0207(13) 1 0
C2 C3+ 24 e 0.4510(5) 0.7715(5) 0.3027(5) 0.0234(16) 1 0
O1 O2- 24 e 0.2953(3) 0.7918(3) 0.3718(3) 0.0241(10) 1 0
O2 O2- 24 e 0.4203(3) 0.8466(3) 0.4566(3) 0.0312(11) 1 0
O3 O2- 24 e 0.4037(3) 0.7481(3) 0.2262(3) 0.0287(10) 1 0
O4 O2- 24 e 0.5380(3) 0.7665(4) 0.3119(3) 0.0402(13) 1 0
Fe1 Fe3+ 8 c 0.26048(6) 0.73952(6) 0.23952(6) 0.0209(4) 1 0
Rb1 Rb1+ 12 d 0.25612(5) 1.00612(5) 0.375 0.0290(3) 1 0
Rb2 Rb1+ 8 c 0.67150(6) 0.82850(6) 0.17150(6) 0.0444(4) 1 0
Na1 Na1+ 4 a 0.375 0.875 0.625 0.0218(13) 1 0
loop_
_atom_site_aniso_label
_atom_site_aniso_type_symbol
_atom_site_aniso_U_11
_atom_site_aniso_U_22
_atom_site_aniso_U_33
_atom_site_aniso_U_12
_atom_site_aniso_U_13
_atom_site_aniso_U_23
C1 C3+ 0.025(3) 0.020(3) 0.017(3) -0.001(3) -0.001(3) 0.006(3)
C2 C3+ 0.021(3) 0.029(4) 0.020(3) 0.002(3) 0.000(3) 0.004(3)
O1 O2- 0.020(2) 0.032(3) 0.020(2) 0.000(2) 0.002(2) 0.000(2)
O2 O2- 0.034(3) 0.041(3) 0.019(2) -0.003(2) -0.004(2) -0.002(2)
O3 O2- 0.023(2) 0.044(3) 0.019(2) -0.004(2) 0.006(2) -0.006(2)
O4 O2- 0.020(2) 0.069(4) 0.032(3) 0.004(3) 0.003(2) 0.002(3)
Fe1 Fe3+ 0.0209(4) 0.0209(4) 0.0209(4) -0.0006(4) -0.0006(4) 0.0006(4)
Rb1 Rb1+ 0.0290(3) 0.0290(3) 0.0288(5) -0.0018(5) 0.0051(3) -0.0051(3)
Rb2 Rb1+ 0.0444(4) 0.0444(4) 0.0444(4) -0.0115(4) 0.0115(4) -0.0115(4)
Na1 Na1+ 0.0218(13) 0.0218(13) 0.0218(13) 0.0014(16) -0.0014(16) -0.0014(16)
#End of TTdata_256219-ICSD