
#(C) 2019 by FIZ Karlsruhe - Leibniz Institute for Information Infrastructure.  All rights reserved.
data_256239-ICSD
_database_code_ICSD 256239
_audit_creation_date 2019-02-01
_chemical_name_systematic
'Heptasodium mercury(II) dodecasulfido-pentaantimonate(III)'
_chemical_formula_structural 'Na7 Hg Sb5 S12'
_chemical_formula_sum 'Hg1 Na7 S12 Sb5'
_exptl_crystal_density_diffrn 3.76
_cell_measurement_temperature 296.
_publ_section_title

;
Remarkable multimember-ring configurations in a new family of Na7 M(II) Sb5
S12 (M(II) = Zn, Cd, Hg) exhibiting various three-dimensional tunnel
structures
;
loop_
_citation_id
_citation_journal_full
_citation_year
_citation_journal_volume
_citation_page_first
_citation_page_last
_citation_journal_id_ASTM
primary 'Chemical Communications (Cambridge, United Kingdom)' 2018 54 8269 8272
CHCOFS
loop_
_publ_author_name
'Wu, Kui'
'Zhang, Bingbing'
'Yang, Zhihua'
'Pan, Shilie'
_cell_length_a 14.537(9)
_cell_length_b 14.537(9)
_cell_length_c 9.815(13)
_cell_angle_alpha 90.
_cell_angle_beta 90.
_cell_angle_gamma 120.
_cell_volume 1796.26
_cell_formula_units_Z 3
_symmetry_space_group_name_H-M 'R -3 H'
_symmetry_Int_Tables_number 148
_refine_ls_R_factor_all 0.0355
loop_
_symmetry_equiv_pos_site_id
_symmetry_equiv_pos_as_xyz
1 'x-y, x, -z'
2 'y, -x+y, -z'
3 '-x, -y, -z'
4 '-x+y, -x, z'
5 '-y, x-y, z'
6 'x, y, z'
7 'x-y+2/3, x+1/3, -z+1/3'
8 'y+2/3, -x+y+1/3, -z+1/3'
9 '-x+2/3, -y+1/3, -z+1/3'
10 '-x+y+2/3, -x+1/3, z+1/3'
11 '-y+2/3, x-y+1/3, z+1/3'
12 'x+2/3, y+1/3, z+1/3'
13 'x-y+1/3, x+2/3, -z+2/3'
14 'y+1/3, -x+y+2/3, -z+2/3'
15 '-x+1/3, -y+2/3, -z+2/3'
16 '-x+y+1/3, -x+2/3, z+2/3'
17 '-y+1/3, x-y+2/3, z+2/3'
18 'x+1/3, y+2/3, z+2/3'
loop_
_atom_type_symbol
_atom_type_oxidation_number
Hg2+ 2
Sb3+ 3
Na1+ 1
S2- -2
loop_
_atom_site_label
_atom_site_type_symbol
_atom_site_symmetry_multiplicity
_atom_site_Wyckoff_symbol
_atom_site_fract_x
_atom_site_fract_y
_atom_site_fract_z
_atom_site_B_iso_or_equiv
_atom_site_occupancy
_atom_site_attached_hydrogens
Hg1 Hg2+ 18 f 0.88113(4) 0.05828(4) 0.17102(5) 0.0241(3) 0.17 0
Sb1 Sb3+ 18 f 0.88113(4) 0.05828(4) 0.17102(5) 0.0241(3) 0.83 0
Na1 Na1+ 3 b 1. 0. 0.5 0.0084(13) 1 0
Na2 Na1+ 18 f 1.1059(2) 0.3632(2) 0.1609(3) 0.0185(8) 1 0
S1 S2- 18 f 1.04703(12) 0.16772(12) 0.3047(2) 0.0115(4) 1 0
S2 S2- 18 f 0.76344(13) 0.08758(12) 0.31068(19) 0.0134(4) 1 0
loop_
_atom_site_aniso_label
_atom_site_aniso_type_symbol
_atom_site_aniso_U_11
_atom_site_aniso_U_22
_atom_site_aniso_U_33
_atom_site_aniso_U_12
_atom_site_aniso_U_13
_atom_site_aniso_U_23
Hg1 Hg2+ 0.0201(3) 0.0295(4) 0.0250(4) 0.0141(2) 0.00022(19) -0.0071(2)
Sb1 Sb3+ 0.0201(3) 0.0295(4) 0.0250(4) 0.0141(2) 0.00022(19) -0.0071(2)
Na1 Na1+ 0.0106(18) 0.0106(18) 0.004(3) 0.0053(9) 0. 0.
Na2 Na1+ 0.0196(15) 0.0195(16) 0.019(2) 0.0118(12) 0.0042(12) 0.0008(12)
S1 S2- 0.0129(8) 0.0090(8) 0.0137(10) 0.0062(6) 0.0019(7) 0.0000(6)
S2 S2- 0.0133(8) 0.0128(8) 0.0121(10) 0.0051(7) 0.0013(7) 0.0001(7)
#End of TTdata_256239-ICSD