
#(C) 2019 by FIZ Karlsruhe - Leibniz Institute for Information Infrastructure.  All rights reserved.
data_257181-ICSD
_database_code_ICSD 257181
_audit_creation_date 2017-08-01
_chemical_name_systematic 'Sodium aluminum silicate rhenium oxide'
_chemical_formula_structural 'Na8 (Al Si O4)6 (Re O4)2'
_chemical_formula_sum 'Al6 Na8 O32 Re2 Si6'
_chemical_name_structure_type Sodalite-frame
_exptl_crystal_density_diffrn 3.03
_publ_section_title

;
Structure and thermochemistry of perrhenate sodalite and mixed guest
perrhenate/pertechnetate sodalite
;
loop_
_citation_id
_citation_journal_full
_citation_year
_citation_journal_volume
_citation_page_first
_citation_page_last
_citation_journal_id_ASTM
primary 'Environmental Science & Technology' 2017 51 997 1006 ESTHAG
loop_
_publ_author_name
'Pierce, Eric M.'
'Lilova, Kristina'
'Missimer, David M.'
'Lukens, Wayne W.'
'Wu, Lili'
'Fitts, Jeffrey'
'Rawn, Claudia'
'Huq, Ashfia'
'Leonard, Donovan N.'
'Eskelsen, Jeremy R.'
'F.Woodfield, Brian'
'Jantzen, Carol M.'
'Navrotsky, Alexandra'
_cell_length_a 9.1553(2)
_cell_length_b 9.1553(2)
_cell_length_c 9.1553(2)
_cell_angle_alpha 90.
_cell_angle_beta 90.
_cell_angle_gamma 90.
_cell_volume 767.39
_cell_formula_units_Z 1
_symmetry_space_group_name_H-M 'P -4 3 n'
_symmetry_Int_Tables_number 218
_refine_ls_R_factor_all 0.024
loop_
_symmetry_equiv_pos_site_id
_symmetry_equiv_pos_as_xyz
1 '-z+1/2, y+1/2, -x+1/2'
2 '-y+1/2, x+1/2, -z+1/2'
3 '-x+1/2, z+1/2, -y+1/2'
4 'z+1/2, -y+1/2, -x+1/2'
5 'y+1/2, -x+1/2, -z+1/2'
6 'x+1/2, -z+1/2, -y+1/2'
7 '-z+1/2, -y+1/2, x+1/2'
8 '-y+1/2, -x+1/2, z+1/2'
9 '-x+1/2, -z+1/2, y+1/2'
10 'z+1/2, y+1/2, x+1/2'
11 'y+1/2, x+1/2, z+1/2'
12 'x+1/2, z+1/2, y+1/2'
13 '-z, -x, y'
14 '-y, -z, x'
15 '-x, -y, z'
16 'z, -x, -y'
17 'y, -z, -x'
18 'x, -y, -z'
19 '-z, x, -y'
20 '-y, z, -x'
21 '-x, y, -z'
22 'z, x, y'
23 'y, z, x'
24 'x, y, z'
loop_
_atom_type_symbol
_atom_type_oxidation_number
Al3+ 3
Si4+ 4
O2- -2
Na1+ 1
Re7+ 7
O2- -2
loop_
_atom_site_label
_atom_site_type_symbol
_atom_site_symmetry_multiplicity
_atom_site_Wyckoff_symbol
_atom_site_fract_x
_atom_site_fract_y
_atom_site_fract_z
_atom_site_B_iso_or_equiv
_atom_site_occupancy
_atom_site_attached_hydrogens
Al1 Al3+ 6 c 0.25 0.5 0 0.0036(8) 1. 0
Si1 Si4+ 6 d 0.25 0 0.5 0.0188 1. 0
O1 O2- 24 i 0.1461(2) 0.1546(2) 0.4761(2) 0.0258 1. 0
Na1 Na1+ 8 e 0.2383(4) 0.2383(4) 0.2383(4) 0.0366 1. 0
Re1 Re7+ 2 a 0 0 0 0.0286 1. 0
O2 O2- 24 i 0.140(2) 0.114(3) 0.007(1) 0.1193 0.312(9) 0
loop_
_atom_site_aniso_label
_atom_site_aniso_type_symbol
_atom_site_aniso_U_11
_atom_site_aniso_U_22
_atom_site_aniso_U_33
_atom_site_aniso_U_12
_atom_site_aniso_U_13
_atom_site_aniso_U_23
O1 O2- 0.020(1) 0.030(1) 0.0277(9) 0.0155(7) 0.002(1) -0.002(1)
Na1 Na1+ 0.037(1) 0.037(1) 0.037(1) 0.015(1) 0.015(1) 0.015(1)
Re1 Re7+ 0.0286(7) 0.0286(7) 0.0286(7) 0 0 0
#End of TTdata_257181-ICSD