
#(C) 2018 by FIZ Karlsruhe - Leibniz Institute for Information Infrastructure.  All rights reserved.
data_257121-ICSD
_database_code_ICSD 257121
_audit_creation_date 2017-08-01
_chemical_name_systematic 'Strontium lithium aluminum nitride'
_chemical_formula_structural 'Sr4 Li Al11 N14'
_chemical_formula_sum 'Al11 Li1 N14 Sr4'
_exptl_crystal_density_diffrn 4.01
_publ_section_title
'Narrow-band red emission in the nitridolithoaluminate Sr4[LiAl11N14]:Eu2+'
loop_
_citation_id
_citation_journal_full
_citation_year
_citation_journal_volume
_citation_page_first
_citation_page_last
_citation_journal_id_ASTM
primary 'Chemistry of Materials' 2017 29 1204 1209 CMATEX
loop_
_publ_author_name
'Wilhelm, Dominik'
'Baumann, Dominik'
'Seibald, Markus'
'Wurst, Klaus'
'Heymann, Gunter'
'Huppertz, Hubert'
_cell_length_a 10.4291(7)
_cell_length_b 10.4309(7)
_cell_length_c 3.2349(2)
_cell_angle_alpha 90.
_cell_angle_beta 90.
_cell_angle_gamma 90.
_cell_volume 351.91
_cell_formula_units_Z 1
_symmetry_space_group_name_H-M 'P n n m'
_symmetry_Int_Tables_number 58
_refine_ls_R_factor_all 0.0213
loop_
_symmetry_equiv_pos_site_id
_symmetry_equiv_pos_as_xyz
1 'x+1/2, -y+1/2, z+1/2'
2 '-x+1/2, y+1/2, z+1/2'
3 'x, y, -z'
4 '-x, -y, -z'
5 '-x+1/2, y+1/2, -z+1/2'
6 'x+1/2, -y+1/2, -z+1/2'
7 '-x, -y, z'
8 'x, y, z'
loop_
_atom_type_symbol
_atom_type_oxidation_number
Sr2+ 2
Al3+ 3
Li1+ 1
Al3+ 3
N3- -3
loop_
_atom_site_label
_atom_site_type_symbol
_atom_site_symmetry_multiplicity
_atom_site_Wyckoff_symbol
_atom_site_fract_x
_atom_site_fract_y
_atom_site_fract_z
_atom_site_B_iso_or_equiv
_atom_site_occupancy
_atom_site_attached_hydrogens
Sr1 Sr2+ 4 g 0.35249(4) 0.36915(4) 0 0.00770(7) 1. 0
Al1 Al3+ 4 g 0.1104(2) 0.1432(2) 0 0.0116(4) 0.75 0
Li1 Li1+ 4 g 0.1104(2) 0.1432(2) 0 0.0116(4) 0.25 0
Al2 Al3+ 4 g 0.1591(2) 0.5933(2) 0 0.0034(2) 1. 0
Al3 Al3+ 4 g 0.5794(2) 0.1551(2) 0 0.0069(2) 1. 0
N1 N3- 4 g 0.0127(3) 0.6981(3) 0 0.0065(4) 1. 0
N2 N3- 4 g 0.6762(3) 0.0022(3) 0 0.0078(5) 1. 0
N3 N3- 4 g 0.6933(3) 0.3024(3) 0 0.0083(3) 1. 0
N4 N3- 2 a 0 0 0 0.0092(6) 1. 0
#End of TTdata_257121-ICSD