
#(C) 2019 by FIZ Karlsruhe - Leibniz Institute for Information Infrastructure.  All rights reserved.
data_257252-ICSD
_database_code_ICSD 257252
_audit_creation_date 2018-02-01
_chemical_name_systematic
'Heptasodium triiron(III) tetrakis(diphosphate(V)) - alpha'
_chemical_formula_structural 'Na7 Fe3 (P2 O7)4'
_chemical_formula_sum 'Fe3 Na7 O28 P8'
_exptl_crystal_density_diffrn 3.08
_publ_section_title

;
Battery relevant electrochemistry of Ag7Fe3(P2O7)4: contrasting contributions
from the redox chemistries of Ag+ and Fe3+
;
loop_
_citation_id
_citation_journal_full
_citation_year
_citation_journal_volume
_citation_page_first
_citation_page_last
_citation_journal_id_ASTM
primary 'Chemistry of Materials' 2016 28 7619 7628 CMATEX
loop_
_publ_author_name
'Zhang, Yiman'
'Kirshenbaum, Kevin C.'
'Marschilok, Amy C.'
'Takeuchi, Esther S.'
'Takeuchi, Kenneth J.'
_cell_length_a 9.5177(3)
_cell_length_b 8.3483(3)
_cell_length_c 27.7829(7)
_cell_angle_alpha 90.
_cell_angle_beta 93.350(3)
_cell_angle_gamma 90.
_cell_volume 2203.76
_cell_formula_units_Z 4
_symmetry_space_group_name_H-M 'C 1 2/c 1'
_symmetry_Int_Tables_number 15
loop_
_symmetry_equiv_pos_site_id
_symmetry_equiv_pos_as_xyz
1 'x, -y, z+1/2'
2 '-x, -y, -z'
3 '-x, y, -z+1/2'
4 'x, y, z'
5 'x+1/2, -y+1/2, z+1/2'
6 '-x+1/2, -y+1/2, -z'
7 '-x+1/2, y+1/2, -z+1/2'
8 'x+1/2, y+1/2, z'
loop_
_atom_type_symbol
_atom_type_oxidation_number
P5+ 5
Fe3+ 3
Na1+ 1
O2- -2
loop_
_atom_site_label
_atom_site_type_symbol
_atom_site_symmetry_multiplicity
_atom_site_Wyckoff_symbol
_atom_site_fract_x
_atom_site_fract_y
_atom_site_fract_z
_atom_site_B_iso_or_equiv
_atom_site_occupancy
_atom_site_attached_hydrogens
P1 P5+ 8 f 0.3016 0.2781 0.2467 0.00722 1. 0
P2 P5+ 8 f 0.2207 0.1465 0.3364 0.00684 1. 0
P3 P5+ 8 f 0.5094 0.6602 0.4426 0.00532 1. 0
P4 P5+ 8 f 0.4203 0.7993 0.5383 0.00494 1. 0
Fe1 Fe3+ 4 e 0 0.0981 0.25 0.00646 1. 0
Fe2 Fe3+ 8 f 0.3116 0.978 0.4371 0.00519 1. 0
Na1 Na1+ 8 f 0.2685 0.3906 0.4419 0.01912 1. 0
Na2 Na1+ 8 f 0.5467 0.3456 0.3579 0.01723 0.3696 0
Na3 Na1+ 8 f 0.5005 0.3839 0.3526 0.02634 0.6304 0
Na4 Na1+ 4 e 0.5 0.0017 1.25 0.02153 0.36 0
Na5 Na1+ 8 f 0.509 0.9272 0.3113 0.04205 0.47 0
Na6 Na1+ 8 f 0.4753 0.914 0.3301 0.0266 0.17 0
Na7 Na1+ 8 f 0.2741 0.5958 0.3441 0.11187 0.5709 0
Na8 Na1+ 8 f 0.3476 0.7175 0.3597 0.05969 0.4291 0
O1 O2- 8 f 0.3708 0.1985 0.2105 0.01241 1. 0
O2 O2- 8 f 0.3511 0.4224 0.2638 0.01064 1. 0
O3 O2- 8 f 0.1313 0.2969 0.2347 0.01001 1. 0
O4 O2- 8 f 0.3279 0.1548 0.2887 0.00811 1. 0
O5 O2- 8 f 0.0742 0.1058 0.3159 0.01089 1. 0
O6 O2- 8 f 0.2254 0.3106 0.3577 0.01482 1. 0
O7 O2- 8 f 0.2988 0.0231 0.3628 0.01077 1. 0
O8 O2- 8 f 0.4802 0.8271 0.4287 0.00849 1. 0
O9 O2- 8 f 0.6803 0.6387 0.4517 0.00874 1. 0
O10 O2- 8 f 0.4366 0.5307 0.4157 0.01001 1. 0
O11 O2- 8 f 0.4644 0.6475 0.497 0.00798 1. 0
O12 O2- 8 f 0.3534 0.9233 0.5141 0.00785 1. 0
O13 O2- 8 f 0.5529 0.8329 0.5623 0.00975 1. 0
O14 O2- 8 f 0.3232 0.7253 0.5715 0.00811 1. 0
#End of TTdata_257252-ICSD