
#(C) 2019 by FIZ Karlsruhe - Leibniz Institute for Information Infrastructure.  All rights reserved.
data_257410-ICSD
_database_code_ICSD 257410
_audit_creation_date 2018-02-01
_chemical_name_systematic 'Sodium iron silicate'
_chemical_formula_structural 'Na Fe Si2 O6'
_chemical_formula_sum 'Fe1 Na1 O6 Si2'
_chemical_name_structure_type Pyroxene-CaMg(SiO3)2
_chemical_name_mineral Aegirine
_exptl_crystal_density_diffrn 3.57
_publ_section_title
'Magnetic structure and multiferroic coupling in pyroxene NaFeSi2O6'
loop_
_citation_id
_citation_journal_full
_citation_year
_citation_journal_volume
_citation_page_first
_citation_page_last
_citation_journal_id_ASTM
primary 'Physical Review B: Condensed Matter and Materials Physics' 2015 91
214415-1 214415-11 PRBMDO
loop_
_publ_author_name
'Baum, M.'
'Komarek, A.C.'
'Holbein, S.'
'Fernandez-Diaz, M.T.'
'Andre, G.'
'Hiess, A.'
'Sidis, Y.'
'Steffens, P.'
'Becker, P.'
'Bohaty, L.'
'Braden, M.'
_cell_length_a 9.6618(5)
_cell_length_b 8.7933(4)
_cell_length_c 5.2946(2)
_cell_angle_alpha 90.
_cell_angle_beta 107.334(3)
_cell_angle_gamma 90.
_cell_volume 429.4
_cell_formula_units_Z 4
_symmetry_space_group_name_H-M 'C 1 2/c 1'
_symmetry_Int_Tables_number 15
_refine_ls_R_factor_all 0.038
loop_
_symmetry_equiv_pos_site_id
_symmetry_equiv_pos_as_xyz
1 'x, -y, z+1/2'
2 '-x, -y, -z'
3 '-x, y, -z+1/2'
4 'x, y, z'
5 'x+1/2, -y+1/2, z+1/2'
6 '-x+1/2, -y+1/2, -z'
7 '-x+1/2, y+1/2, -z+1/2'
8 'x+1/2, y+1/2, z'
loop_
_atom_type_symbol
_atom_type_oxidation_number
Na1+ 1
Fe3+ 3
Si4+ 4
O2- -2
loop_
_atom_site_label
_atom_site_type_symbol
_atom_site_symmetry_multiplicity
_atom_site_Wyckoff_symbol
_atom_site_fract_x
_atom_site_fract_y
_atom_site_fract_z
_atom_site_B_iso_or_equiv
_atom_site_occupancy
_atom_site_attached_hydrogens
Na1 Na1+ 4 e 0 0.3002(11) 0.25 0.010(3) 1. 0
Fe1 Fe3+ 4 e 0 0.8994(4) 0.25 0.0159(17) 1. 0
Si1 Si4+ 8 f 0.2905(6) 0.0903(6) 0.2379(9) 0.0047(18) 1. 0
O1 O2- 8 f 0.1137(5) 0.0796(4) 0.1384(7) 0.0078(16) 1. 0
O2 O2- 8 f 0.3595(4) 0.2551(5) 0.3041(7) 0.0101(16) 1. 0
O3 O2- 8 f 0.3526(4) 0.0089(5) 0.0105(6) 0.0115(14) 1. 0
#End of TTdata_257410-ICSD