
#(C) 2019 by FIZ Karlsruhe - Leibniz Institute for Information Infrastructure.  All rights reserved.
data_257471-ICSD
_database_code_ICSD 257471
_audit_creation_date 2018-02-01
_chemical_name_systematic 'Potassium sodium copper oxalate'
_chemical_formula_structural 'K Na3 Cu2 (C2 O4)4'
_chemical_formula_sum 'C8 Cu2 K1 Na3 O16'
_chemical_name_structure_type AgOC(CF3)3
_chemical_name_mineral Antipinite
_exptl_crystal_density_diffrn 2.54
_publ_section_title

;
Antipinite, KNa3Cu2(C2O4)4, a new mineral species from a guano deposit at
Pabellon de Pica, Chile
;
loop_
_citation_id
_citation_journal_full
_citation_year
_citation_journal_volume
_citation_page_first
_citation_page_last
_citation_journal_id_ASTM
primary 'Mineralogical Magazine' 2015 79 1111 1121 MNLMBB
loop_
_publ_author_name
'Chukanov, Nikita V.'
'Aksenov, Sergey M.'
'Rastsvetaeva, Ramiza K.'
'Lyssenko, Konstantin A.'
'Belakovskiy, Dmitriy I.'
'Faerber, Gunnar'
'Moehn, Gerhard'
'Van, Konstantin V.'
_cell_length_a 7.1574(5)
_cell_length_b 10.7099(8)
_cell_length_c 11.1320(8)
_cell_angle_alpha 113.093(1)
_cell_angle_beta 101.294(1)
_cell_angle_gamma 90.335(1)
_cell_volume 766.51
_cell_formula_units_Z 2
_symmetry_space_group_name_H-M 'P -1'
_symmetry_Int_Tables_number 2
_refine_ls_R_factor_all 0.0327
loop_
_symmetry_equiv_pos_site_id
_symmetry_equiv_pos_as_xyz
1 '-x, -y, -z'
2 'x, y, z'
loop_
_atom_type_symbol
_atom_type_oxidation_number
K1+ 1
Cu2+ 2
Na1+ 1
C3+ 3
O2- -2
loop_
_atom_site_label
_atom_site_type_symbol
_atom_site_symmetry_multiplicity
_atom_site_Wyckoff_symbol
_atom_site_fract_x
_atom_site_fract_y
_atom_site_fract_z
_atom_site_B_iso_or_equiv
_atom_site_occupancy
_atom_site_attached_hydrogens
K1 K1+ 2 i -0.11025(6) 0.81681(5) 0.47781(5) 0.0205(2) 1. 0
Cu1 Cu2+ 2 i 0.38642(4) 0.83639(3) 0.47877(2) 0.0173(1) 1. 0
Cu2 Cu2+ 2 i -0.21446(4) 0.53028(3) 0.56107(3) 0.0188(1) 1. 0
Na1 Na1+ 2 i -0.2311(1) 0.5411(1) 0.0532(1) 0.0188(3) 1. 0
Na2 Na1+ 2 i 0.0193(1) 0.0982(1) 0.9013(1) 0.0247(3) 1. 0
Na3 Na1+ 2 i 0.5392(1) 0.2206(1) 0.0123(1) 0.0256(3) 1. 0
C1 C3+ 2 i 0.3500(3) 0.0149(2) 0.7214(2) 0.0156(6) 1. 0
C2 C3+ 2 i 0.5679(3) 0.0080(2) 0.7266(2) 0.0151(6) 1. 0
C3 C3+ 2 i 0.4220(3) 0.6845(2) 0.2264(2) 0.0146(6) 1. 0
C4 C3+ 2 i -0.0978(3) 0.7558(2) 0.7875(2) 0.0177(7) 1. 0
C5 C3+ 2 i -0.2479(3) 0.4296(2) 0.2942(2) 0.0167(7) 1. 0
C6 C3+ 2 i 0.2047(3) 0.6904(2) 0.2229(2) 0.0165(7) 1. 0
C7 C3+ 2 i -0.2117(3) 0.6558(2) -0.1776(2) 0.0165(7) 1. 0
C8 C3+ 2 i 0.6467(3) 0.3217(2) 0.3239(2) 0.0188(7) 1. 0
O1 O2- 2 i 0.5299(2) 0.7470(2) 0.3420(1) 0.0186(5) 1. 0
O2 O2- 2 i 0.2418(2) 0.9507(2) 0.6052(2) 0.0197(5) 1. 0
O3 O2- 2 i -0.3478(3) 0.3520(2) 0.4486(2) 0.0253(6) 1. 0
O4 O2- 2 i 0.1631(2) 0.7609(2) 0.3357(2) 0.0213(5) 1. 0
O5 O2- 2 i 0.6816(2) 0.0751(2) 0.8316(2) 0.0204(5) 1. 0
O6 O2- 2 i -0.0899(2) 0.7120(2) 0.6636(2) 0.0215(5) 1. 0
O7 O2- 2 i 0.0899(2) 0.6330(2) 0.1164(2) 0.0250(6) 1. 0
O8 O2- 2 i 0.4768(2) 0.6271(2) 0.1214(2) 0.0196(5) 1. 0
O9 O2- 2 i 0.2955(2) 0.0840(2) 0.8229(2) 0.0253(6) 1. 0
O10 O2- 2 i -0.1604(2) 0.5324(2) 0.3985(2) 0.0211(5) 1. 0
O11 O2- 2 i -0.2784(2) 0.5427(2) 0.7244(2) 0.0230(6) 1. 0
O12 O2- 2 i 0.6111(2) 0.9347(2) 0.6151(2) 0.0195(5) 1. 0
O13 O2- 2 i -0.0240(3) 0.8656(2) 0.8756(2) 0.0273(6) 1. 0
O14 O2- 2 i -0.2483(2) 0.4105(2) 0.1784(2) 0.0229(6) 1. 0
O15 O2- 2 i 0.5664(2) 0.2183(2) 1.2307(2) 0.0253(6) 1. 0
O16 O2- 2 i -0.2334(2) 0.6901(2) -0.0624(2) 0.0217(6) 1. 0
loop_
_atom_site_aniso_label
_atom_site_aniso_type_symbol
_atom_site_aniso_U_11
_atom_site_aniso_U_22
_atom_site_aniso_U_33
_atom_site_aniso_U_12
_atom_site_aniso_U_13
_atom_site_aniso_U_23
K1 K1+ 0.0160(2) 0.0235(2) 0.0217(2) -0.0009(2) 0.0060(2) 0.0079(2)
Cu1 Cu2+ 0.0137(1) 0.0202(1) 0.0119(1) -0.00115(9) 0.00452(9) -0.0008(1)
Cu2 Cu2+ 0.0280(2) 0.0144(1) 0.0120(1) -0.0040(1) 0.0067(1) 0.00207(9)
Na1 Na1+ 0.0182(4) 0.0206(4) 0.0170(4) -0.0014(3) 0.0054(3) 0.0061(3)
Na2 Na1+ 0.0188(4) 0.0307(5) 0.0200(4) -0.0026(4) 0.0061(4) 0.0045(4)
Na3 Na1+ 0.0272(5) 0.0278(5) 0.0150(4) -0.0029(4) 0.0051(4) 0.0013(4)
C1 C3+ 0.0148(9) 0.0137(9) 0.0160(9) -0.0013(7) 0.0055(7) 0.0026(7)
C2 C3+ 0.0163(9) 0.0139(9) 0.0146(9) 0.0001(7) 0.0052(7) 0.0042(7)
C3 C3+ 0.0139(9) 0.0140(9) 0.0148(9) -0.0003(7) 0.0050(7) 0.0038(7)
C4 C3+ 0.021(1) 0.0157(9) 0.0153(9) 0.0008(8) 0.0046(8) 0.0049(7)
C5 C3+ 0.019(1) 0.0145(9) 0.0161(9) 0.0015(7) 0.0039(8) 0.0058(7)
C6 C3+ 0.0154(9) 0.0172(9) 0.0147(9) -0.0006(7) 0.0041(7) 0.0036(7)
C7 C3+ 0.019(1) 0.0159(9) 0.0137(9) 0.0012(7) 0.0055(8) 0.0046(7)
C8 C3+ 0.023(1) 0.0161(9) 0.0159(9) -0.0013(8) 0.0036(8) 0.0058(8)
O1 O2- 0.0123(7) 0.0245(8) 0.0125(7) -0.0003(6) 0.0023(5) 0.0008(6)
O2 O2- 0.0122(7) 0.0234(8) 0.0149(7) -0.0014(6) 0.0024(5) -0.0009(6)
O3 O2- 0.040(1) 0.0180(7) 0.0141(7) -0.0109(7) 0.0065(7) 0.0027(6)
O4 O2- 0.0145(7) 0.0273(8) 0.0132(7) -0.0009(6) 0.0043(6) -0.0018(6)
O5 O2- 0.0174(7) 0.0217(8) 0.0157(7) -0.0009(6) 0.0015(6) 0.0017(6)
O6 O2- 0.0316(9) 0.0163(7) 0.0140(7) -0.0043(6) 0.0072(6) 0.0024(6)
O7 O2- 0.0162(7) 0.0348(9) 0.0153(7) -0.0027(7) 0.0013(6) 0.0018(7)
O8 O2- 0.0185(7) 0.0213(7) 0.0149(7) -0.0003(6) 0.0069(6) 0.0015(6)
O9 O2- 0.0206(8) 0.0275(8) 0.0173(8) -0.0029(6) 0.0093(6) -0.0042(6)
O10 O2- 0.0311(9) 0.0165(7) 0.0133(7) -0.0055(6) 0.0068(6) 0.0026(6)
O11 O2- 0.0340(9) 0.0174(7) 0.0153(7) -0.0061(6) 0.0101(7) 0.0020(6)
O12 O2- 0.0161(7) 0.0227(8) 0.0135(7) -0.0006(6) 0.0058(6) -0.0005(6)
O13 O2- 0.041(1) 0.0174(7) 0.0173(8) -0.0073(7) 0.0081(7) -0.0001(6)
O14 O2- 0.0322(9) 0.0230(8) 0.0125(7) -0.0046(7) 0.0044(6) 0.0063(6)
O15 O2- 0.0346(9) 0.0195(8) 0.0167(7) -0.0075(7) 0.0019(7) 0.0037(6)
O16 O2- 0.0273(8) 0.0236(8) 0.0142(7) 0.0018(6) 0.0088(6) 0.0055(6)
#End of TTdata_257471-ICSD