
#(C) 2019 by FIZ Karlsruhe - Leibniz Institute for Information Infrastructure.  All rights reserved.
data_257504-ICSD
_database_code_ICSD 257504
_audit_creation_date 2018-02-01
_chemical_name_systematic 'Cesium sodium zinc molybdate'
_chemical_formula_structural 'Cs3 Na Zn2 (Mo O4)4'
_chemical_formula_sum 'Cs3 Mo4 Na1 O16 Zn2'
_exptl_crystal_density_diffrn 4.24
_publ_section_title

;
Phase relations in the Na2MoO4-Cs2MoO4 and Na2MoO4-Cs2MoO4-ZnMoO4 systems,
crystal structures of Cs3Na(MoO4)2 and Cs3NaZn2(MoO4)4
;
loop_
_citation_id
_citation_journal_full
_citation_year
_citation_journal_volume
_citation_page_first
_citation_page_last
_citation_journal_id_ASTM
primary 'Journal of Solid State Chemistry' 2016 233 23 29 JSSCBI
loop_
_publ_author_name
'Zolotova, Evgeniya S.'
'Solodovnikova, Zoya A.'
'Yudin, Vasiliy N.'
'Solodovnikov, Sergey F.'
'Khaikina, Elena G.'
'Basovich, Olga M.'
'Korolkov, Iliya V.'
'Filatova, Irina Yu.'
_cell_length_a 12.3134(1)
_cell_length_b 12.3134(1)
_cell_length_c 12.3134(1)
_cell_angle_alpha 90.
_cell_angle_beta 90.
_cell_angle_gamma 90.
_cell_volume 1866.96
_cell_formula_units_Z 4
_symmetry_space_group_name_H-M 'I -4 3 d'
_symmetry_Int_Tables_number 220
_refine_ls_R_factor_all 0.0124
loop_
_symmetry_equiv_pos_site_id
_symmetry_equiv_pos_as_xyz
1 '-y+1/4, -x+3/4, z+3/4'
2 'y+3/4, -x+1/4, -z+3/4'
3 '-y+3/4, x+3/4, -z+1/4'
4 'y+1/4, x+1/4, z+1/4'
5 'z+1/2, -x+1/2, -y'
6 '-z+1/2, -x, y+1/2'
7 '-z, x+1/2, -y+1/2'
8 'z, x, y'
9 'z+3/4, -y+1/4, -x+3/4'
10 '-z+3/4, y+3/4, -x+1/4'
11 '-z+1/4, -y+3/4, x+3/4'
12 'z+1/4, y+1/4, x+1/4'
13 '-y, z+1/2, -x+1/2'
14 'y+1/2, -z+1/2, -x'
15 '-y+1/2, -z, x+1/2'
16 'y, z, x'
17 '-x+3/4, z+3/4, -y+1/4'
18 '-x+1/4, -z+3/4, y+3/4'
19 'x+3/4, -z+1/4, -y+3/4'
20 'x+1/4, z+1/4, y+1/4'
21 '-x+1/2, -y, z+1/2'
22 '-x, y+1/2, -z+1/2'
23 'x+1/2, -y+1/2, -z'
24 'x, y, z'
25 '-y+3/4, -x+1/4, z+1/4'
26 'y+1/4, -x+3/4, -z+1/4'
27 '-y+1/4, x+1/4, -z+3/4'
28 'y+3/4, x+3/4, z+3/4'
29 'z, -x, -y+1/2'
30 '-z, -x+1/2, y'
31 '-z+1/2, x, -y'
32 'z+1/2, x+1/2, y+1/2'
33 'z+1/4, -y+3/4, -x+1/4'
34 '-z+1/4, y+1/4, -x+3/4'
35 '-z+3/4, -y+1/4, x+1/4'
36 'z+3/4, y+3/4, x+3/4'
37 '-y+1/2, z, -x'
38 'y, -z, -x+1/2'
39 '-y, -z+1/2, x'
40 'y+1/2, z+1/2, x+1/2'
41 '-x+1/4, z+1/4, -y+3/4'
42 '-x+3/4, -z+1/4, y+1/4'
43 'x+1/4, -z+3/4, -y+1/4'
44 'x+3/4, z+3/4, y+3/4'
45 '-x, -y+1/2, z'
46 '-x+1/2, y, -z'
47 'x, -y, -z+1/2'
48 'x+1/2, y+1/2, z+1/2'
loop_
_atom_type_symbol
_atom_type_oxidation_number
Cs1+ 1
Mo6+ 6
Zn2+ 2
Na1+ 1
O2- -2
loop_
_atom_site_label
_atom_site_type_symbol
_atom_site_symmetry_multiplicity
_atom_site_Wyckoff_symbol
_atom_site_fract_x
_atom_site_fract_y
_atom_site_fract_z
_atom_site_B_iso_or_equiv
_atom_site_occupancy
_atom_site_attached_hydrogens
Cs1 Cs1+ 12 b 0.875 0 0.25 0.027(2) 0.35(6) 0
Cs2 Cs1+ 48 e 0.8719(14) 0.0009(13) 0.237(2) 0.048(2) 0.162(16) 0
Mo1 Mo6+ 16 c 0.39799(2) 0.39799(2) 0.39799(2) 0.0250(1) 1. 0
Zn1 Zn2+ 12 a 0.375 0 0.25 0.0223(1) 0.6667 0
Na1 Na1+ 12 a 0.375 0 0.25 0.0223(1) 0.3333 0
O1 O2- 48 e 0.33773(17) 0.52947(15) 0.40395(17) 0.0400(4) 1. 0
O2 O2- 16 c 0.31740(14) 0.31740(14) 0.31740(14) 0.0376(7) 1. 0
#End of TTdata_257504-ICSD