
#(C) 2019 by FIZ Karlsruhe - Leibniz Institute for Information Infrastructure.  All rights reserved.
data_257503-ICSD
_database_code_ICSD 257503
_audit_creation_date 2018-02-01
_chemical_name_systematic 'Cesium sodium molybdate'
_chemical_formula_structural 'Cs3 Na (Mo O4)2'
_chemical_formula_sum 'Cs3 Mo2 Na1 O8'
_chemical_name_structure_type K3Na(SO4)2
_exptl_crystal_density_diffrn 4.29
_publ_section_title

;
Phase relations in the Na2MoO4-Cs2MoO4 and Na2MoO4-Cs2MoO4-ZnMoO4 systems,
crystal structures of Cs3Na(MoO4)2 and Cs3NaZn2(MoO4)4
;
loop_
_citation_id
_citation_journal_full
_citation_year
_citation_journal_volume
_citation_page_first
_citation_page_last
_citation_journal_id_ASTM
primary 'Journal of Solid State Chemistry' 2016 233 23 29 JSSCBI
loop_
_publ_author_name
'Zolotova, Evgeniya S.'
'Solodovnikova, Zoya A.'
'Yudin, Vasiliy N.'
'Solodovnikov, Sergey F.'
'Khaikina, Elena G.'
'Basovich, Olga M.'
'Korolkov, Iliya V.'
'Filatova, Irina Yu.'
_cell_length_a 6.3461(2)
_cell_length_b 6.3461(2)
_cell_length_c 8.2209(3)
_cell_angle_alpha 90.
_cell_angle_beta 90.
_cell_angle_gamma 120.
_cell_volume 286.72
_cell_formula_units_Z 1
_symmetry_space_group_name_H-M 'P -3 m 1'
_symmetry_Int_Tables_number 164
_refine_ls_R_factor_all 0.0132
loop_
_symmetry_equiv_pos_site_id
_symmetry_equiv_pos_as_xyz
1 'x-y, -y, -z'
2 '-x, -x+y, -z'
3 'y, x, -z'
4 'x-y, x, -z'
5 'y, -x+y, -z'
6 '-x, -y, -z'
7 '-x+y, y, z'
8 'x, x-y, z'
9 '-y, -x, z'
10 '-x+y, -x, z'
11 '-y, x-y, z'
12 'x, y, z'
loop_
_atom_type_symbol
_atom_type_oxidation_number
Cs1+ 1
Mo6+ 6
Na1+ 1
O2- -2
loop_
_atom_site_label
_atom_site_type_symbol
_atom_site_symmetry_multiplicity
_atom_site_Wyckoff_symbol
_atom_site_fract_x
_atom_site_fract_y
_atom_site_fract_z
_atom_site_B_iso_or_equiv
_atom_site_occupancy
_atom_site_attached_hydrogens
Cs1 Cs1+ 1 b 0 0 0.5 0.029(1) 1. 0
Cs2 Cs1+ 2 d 0.3333 0.6667 0.8272(1) 0.022(1) 1. 0
Mo1 Mo6+ 2 d 0.3333 0.6667 0.2648(1) 0.018(1) 1. 0
Na1 Na1+ 1 a 0 0 0 0.026(1) 1. 0
O1 O2- 6 i 0.1823(2) 0.8177(2) 0.1896(3) 0.029(1) 1. 0
O2 O2- 2 d 0.3333 0.6667 0.4756(7) 0.058(2) 1. 0
#End of TTdata_257503-ICSD