
#(C) 2019 by FIZ Karlsruhe - Leibniz Institute for Information Infrastructure.  All rights reserved.
data_257851-ICSD
_database_code_ICSD 257851
_audit_creation_date 2018-02-01
_chemical_name_systematic 'Sodium calcium vanadate fluoride'
_chemical_formula_structural 'Na2 Ca V O4 F'
_chemical_formula_sum 'Ca1 F1 Na2 O4 V1'
_chemical_name_structure_type Ca2NaFSiO4
_exptl_crystal_density_diffrn 2.9
_publ_section_title

;
Synthesis and structural characterization of the hexagonal anti-perovskite
Na2CaVO4F
;
loop_
_citation_id
_citation_journal_full
_citation_year
_citation_journal_volume
_citation_page_first
_citation_page_last
_citation_journal_id_ASTM
primary 'Journal of Solid State Chemistry' 2017 250 134 139 JSSCBI
loop_
_publ_author_name
'Green, Robert L.'
'Avdeev, Maxim'
'Vogt, Thomas'
_cell_length_a 5.4219(1)
_cell_length_b 7.3287(2)
_cell_length_c 12.6659(3)
_cell_angle_alpha 90.
_cell_angle_beta 90.
_cell_angle_gamma 90.
_cell_volume 503.28
_cell_formula_units_Z 4
_symmetry_space_group_name_H-M 'P n m a'
_symmetry_Int_Tables_number 62
_refine_ls_R_factor_all 0.0296
loop_
_symmetry_equiv_pos_site_id
_symmetry_equiv_pos_as_xyz
1 'x+1/2, y, -z+1/2'
2 'x, -y+1/2, z'
3 '-x+1/2, y+1/2, z+1/2'
4 '-x, -y, -z'
5 '-x+1/2, -y, z+1/2'
6 '-x, y+1/2, -z'
7 'x+1/2, -y+1/2, -z+1/2'
8 'x, y, z'
loop_
_atom_type_symbol
_atom_type_oxidation_number
V5+ 5
Na1+ 1
Ca2+ 2
F1- -1
O2- -2
loop_
_atom_site_label
_atom_site_type_symbol
_atom_site_symmetry_multiplicity
_atom_site_Wyckoff_symbol
_atom_site_fract_x
_atom_site_fract_y
_atom_site_fract_z
_atom_site_B_iso_or_equiv
_atom_site_occupancy
_atom_site_attached_hydrogens
V1 V5+ 4 c 0.799(4) 0.75 0.089(2) 0. 1. 0
Na1 Na1+ 8 d 0.2621(5) 0.4851(6) 0.1761(4) 0.0207(8) 1. 0
Ca1 Ca2+ 4 c 0.7379(6) 0.25 0.0946(4) 0.017(1) 1. 0
F1 F1- 4 c -0.0024(5) 0.25 0.2369(2) 0.0180(5) 1. 0
O1 O2- 4 c 0.1211(4) 0.75 0.0847(3) 0.0255(5) 1. 0
O2 O2- 8 d 0.7033(5) 0.5616(3) 0.1501(2) 0.00243(5) 1. 0
O3 O2- 4 c 0.3032(7) 0.25 0.0436(2) 0.0189(7) 1. 0
#End of TTdata_257851-ICSD