
#(C) 2019 by FIZ Karlsruhe - Leibniz Institute for Information Infrastructure.  All rights reserved.
data_258374-ICSD
_database_code_ICSD 258374
_audit_creation_date 2018-02-01
_chemical_name_systematic 'Caesium sodium silicate aluminate'
_chemical_formula_structural '(Cs3.5 Na8.5) (Si12 Al12 O48)'
_chemical_formula_sum 'Al12 Cs3.5 Na8.5 O48 Si12'
_chemical_name_structure_type Zeolite-A-frame
_chemical_name_mineral 'Zeolite A (Cs-exchanged, dehydrated)'
_exptl_crystal_density_diffrn 1.89
_publ_section_title

;
Selective removal of radioactive cesium from nuclear waste by zeolites: on the
origin of cesium selectivity revealed by systematic crystallographic studies
;
loop_
_citation_id
_citation_journal_full
_citation_year
_citation_journal_volume
_citation_page_first
_citation_page_last
_citation_journal_id_ASTM
primary 'Journal of Physical Chemistry C' 2017 121 10594 10608 JPCCCK
loop_
_publ_author_name
'Lee, Ha Young'
'Kim, Hu Sik'
'Jeong, Hae-Kwon'
'Park, Man'
'Chung, Dong-Yong'
'Lee, Keun-Young'
'Lee, Eil-Hee'
'Lim, Woo Taik'
_cell_length_a 12.2505(1)
_cell_length_b 12.2505(1)
_cell_length_c 12.2505(1)
_cell_angle_alpha 90.
_cell_angle_beta 90.
_cell_angle_gamma 90.
_cell_volume 1838.49
_cell_formula_units_Z 1
_symmetry_space_group_name_H-M 'P m -3 m'
_symmetry_Int_Tables_number 221
_refine_ls_R_factor_all 0.0498
loop_
_symmetry_equiv_pos_site_id
_symmetry_equiv_pos_as_xyz
1 'z, y, -x'
2 'y, x, -z'
3 'x, z, -y'
4 'z, x, -y'
5 'y, z, -x'
6 'x, y, -z'
7 'z, -y, x'
8 'y, -x, z'
9 'x, -z, y'
10 'z, -x, y'
11 'y, -z, x'
12 'x, -y, z'
13 '-z, y, x'
14 '-y, x, z'
15 '-x, z, y'
16 '-z, x, y'
17 '-y, z, x'
18 '-x, y, z'
19 '-z, -y, -x'
20 '-y, -x, -z'
21 '-x, -z, -y'
22 '-z, -x, -y'
23 '-y, -z, -x'
24 '-x, -y, -z'
25 '-z, -y, x'
26 '-y, -x, z'
27 '-x, -z, y'
28 '-z, -x, y'
29 '-y, -z, x'
30 '-x, -y, z'
31 '-z, y, -x'
32 '-y, x, -z'
33 '-x, z, -y'
34 '-z, x, -y'
35 '-y, z, -x'
36 '-x, y, -z'
37 'z, -y, -x'
38 'y, -x, -z'
39 'x, -z, -y'
40 'z, -x, -y'
41 'y, -z, -x'
42 'x, -y, -z'
43 'z, y, x'
44 'y, x, z'
45 'x, z, y'
46 'z, x, y'
47 'y, z, x'
48 'x, y, z'
loop_
_atom_type_symbol
_atom_type_oxidation_number
Si4+ 4
Al3+ 3
O2- -2
Cs1+ 1
Na1+ 1
loop_
_atom_site_label
_atom_site_type_symbol
_atom_site_symmetry_multiplicity
_atom_site_Wyckoff_symbol
_atom_site_fract_x
_atom_site_fract_y
_atom_site_fract_z
_atom_site_B_iso_or_equiv
_atom_site_occupancy
_atom_site_attached_hydrogens
Si1 Si4+ 24 k 0 0.1831(1) 0.3699(1) 0.0192(4) 0.5 0
Al1 Al3+ 24 k 0 0.1831(1) 0.3699(1) 0.0192(4) 0.5 0
O1 O2- 12 h 0 0.2186(4) 0.5 0.0321(18) 1. 0
O2 O2- 12 i 0 0.2962(2) 0.2962(2) 0.0579(25) 1. 0
O3 O2- 24 m 0.1128(2) 0.1128(2) 0.3350(2) 0.0268(7) 1. 0
Cs1 Cs1+ 3 c 0 0.5 0.5 0.0415(5) 1. 0
Cs2 Cs1+ 8 g 0.0734(3) 0.0734(3) 0.0734(3) 0.0628(28) 0.0625 0
Na1 Na1+ 8 g 0.2039(3) 0.2039(3) 0.2039(3) 0.0225(9) 0.7375 0
Na2 Na1+ 8 g 0.2251(19) 0.2251(19) 0.2251(19) 0.0685(105) 0.25 0
Na3 Na1+ 12 j 0.2182(31) 0.2182(31) 0.5 0.0314(197) 0.0417 0
loop_
_atom_site_aniso_label
_atom_site_aniso_type_symbol
_atom_site_aniso_U_11
_atom_site_aniso_U_22
_atom_site_aniso_U_33
_atom_site_aniso_U_12
_atom_site_aniso_U_13
_atom_site_aniso_U_23
Si1 Si4+ 0.0192(4) 0.0164(4) 0.0092(4) 0 0 0.0024(2)
Al1 Al3+ 0.0192(4) 0.0164(4) 0.0092(4) 0 0 0.0024(2)
O1 O2- 0.0321(18) 0.0550(26) 0.0116(13) 0 0 0
O2 O2- 0.0579(25) 0.0218(10) 0.0218(10) 0 0 0.0151(13)
O3 O2- 0.0268(7) 0.0268(7) 0.0268(12) 0.0032(9) 0.0018(7) 0.0018(7)
Cs1 Cs1+ 0.0415(5) 0.0447(4) 0.0447(4) 0 0 0
Cs2 Cs1+ 0.0628(28) 0.0628(28) 0.0628(28) -0.0275(20) -0.0275(20) -0.0275(20)
Na1 Na1+ 0.0225(9) 0.0225(9) 0.0225(9) 0.0075(9) 0.0075(9) 0.0075(9)
Na2 Na1+ 0.0685(105) 0.0685(105) 0.0685(105) 0.0456(117) 0.0456(117) 0.0456(117)
Na3 Na1+ 0.0314(197) 0.0314(197) 0.1060(639) -0.0225(249) 0 0
#End of TTdata_258374-ICSD