
#(C) 2019 by FIZ Karlsruhe - Leibniz Institute for Information Infrastructure.  All rights reserved.
data_258386-ICSD
_database_code_ICSD 258386
_audit_creation_date 2018-02-01
_chemical_name_systematic 'Sodium strontium vanadate(V)'
_chemical_formula_structural 'Na Sr V O4'
_chemical_formula_sum 'Na1 O4 Sr1 V1'
_exptl_crystal_density_diffrn 3.7
_publ_section_title

;
Crystal structure and polymorphism of NaSrVO4: the first AIBIIXVO4
larnite-related structure from X-ray powder diffraction data
;
loop_
_citation_id
_citation_journal_full
_citation_year
_citation_journal_volume
_citation_page_first
_citation_page_last
_citation_journal_id_ASTM
primary 'Physics and Chemistry of Minerals' 2017 44 455 463 PCMIDU
loop_
_publ_author_name
'Nenert, Gwilherm'
'O'Meara, Paul'
'Degen, Thomas'
_cell_length_a 5.72376(2)
_cell_length_b 7.22272(2)
_cell_length_c 9.81165(3)
_cell_angle_alpha 90
_cell_angle_beta 94.34887(7)
_cell_angle_gamma 90
_cell_volume 404.46
_cell_formula_units_Z 4
_symmetry_space_group_name_H-M 'P 1 21/n 1'
_symmetry_Int_Tables_number 14
_refine_ls_R_factor_all 0.023
loop_
_symmetry_equiv_pos_site_id
_symmetry_equiv_pos_as_xyz
1 '-x+1/2, y+1/2, -z+1/2'
2 '-x, -y, -z'
3 'x+1/2, -y+1/2, z+1/2'
4 'x, y, z'
loop_
_atom_type_symbol
_atom_type_oxidation_number
Na1+ 1
Sr2+ 2
V5+ 5
O2- -2
loop_
_atom_site_label
_atom_site_type_symbol
_atom_site_symmetry_multiplicity
_atom_site_Wyckoff_symbol
_atom_site_fract_x
_atom_site_fract_y
_atom_site_fract_z
_atom_site_B_iso_or_equiv
_atom_site_occupancy
_atom_site_attached_hydrogens
Na1 Na1+ 4 e 0.2754(3) 0.3316(2) 0.5733(2) 0.0222(5) 1. 0
Sr1 Sr2+ 4 e 0.27974(7) 1.00503(8) 0.29795(4) 0.0088(1) 1. 0
V1 V5+ 4 e 0.2318(1) 0.77141(9) 0.58036(9) 0.0081(2) 1. 0
O1 O2- 4 e 0.2853(4) -0.0028(5) 0.5667(2) 0.0135(2) 1. 0
O2 O2- 4 e 0.0129(5) 0.7402(4) 0.6934(3) 0.0128(7) 1. 0
O3 O2- 4 e 0.4941(6) 0.6648(4) 0.6324(3) 0.0149(7) 1. 0
O4 O2- 4 e 0.1461(5) 0.6906(4) 0.4190(3) 0.0149(9) 1. 0
#End of TTdata_258386-ICSD