
#(C) 2019 by FIZ Karlsruhe - Leibniz Institute for Information Infrastructure.  All rights reserved.
data_258308-ICSD
_database_code_ICSD 258308
_audit_creation_date 2018-02-01
_chemical_name_systematic 'Sodium vanadium oxide - gamma phase'
_chemical_formula_structural 'Na0.97 V2 O5'
_chemical_formula_sum 'Na0.97 O5 V2'
_exptl_crystal_density_diffrn 3.2
_publ_section_title

;
Crystal structure determination of a new sodium vanadium bronze
electrochemically formed
;
loop_
_citation_id
_citation_journal_full
_citation_year
_citation_journal_volume
_citation_page_first
_citation_page_last
_citation_journal_id_ASTM
primary 'Journal of Solid State Chemistry' 2017 254 62 68 JSSCBI
loop_
_publ_author_name
'Safrany Renard, Marianne'
'Emery, Nicolas'
'Roginskii, Evgenii M.'
'Baddour-Hadjean, Rita'
'Pereira-Ramos, Jean-Pierre'
_cell_length_a 9.7567(5)
_cell_length_b 3.6264(2)
_cell_length_c 11.9498(4)
_cell_angle_alpha 90.
_cell_angle_beta 90.
_cell_angle_gamma 90.
_cell_volume 422.8
_cell_formula_units_Z 4
_symmetry_space_group_name_H-M 'P n m a'
_symmetry_Int_Tables_number 62
_refine_ls_R_factor_all 0.0343
loop_
_symmetry_equiv_pos_site_id
_symmetry_equiv_pos_as_xyz
1 'x+1/2, y, -z+1/2'
2 'x, -y+1/2, z'
3 '-x+1/2, y+1/2, z+1/2'
4 '-x, -y, -z'
5 '-x+1/2, -y, z+1/2'
6 '-x, y+1/2, -z'
7 'x+1/2, -y+1/2, -z+1/2'
8 'x, y, z'
loop_
_atom_type_symbol
_atom_type_oxidation_number
V5+ 5
O2- -2
Na1+ 1
loop_
_atom_site_label
_atom_site_type_symbol
_atom_site_symmetry_multiplicity
_atom_site_Wyckoff_symbol
_atom_site_fract_x
_atom_site_fract_y
_atom_site_fract_z
_atom_site_B_iso_or_equiv
_atom_site_occupancy
_atom_site_attached_hydrogens
V1 V5+ 4 c 0.0599(7) 0.25 0.5867(3) 0.0179(5) 1. 0
V2 V5+ 4 c 0.3814(8) 0.25 0.5017(3) 0.0179(5) 1. 0
O1 O2- 4 c 0.4749(23) 0.25 0.7918(8) 0.0510(27) 1. 0
O2 O2- 4 c 0.2769(18) 0.25 0.3950(10) 0.0510(27) 1. 0
O3 O2- 4 c 0.5724(23) 0.25 0.4627(7) 0.0510(27) 1. 0
O4 O2- 4 c 0.4303(21) 0.25 0.0418(8) 0.0510(27) 1. 0
O5 O2- 4 c 0.2353(22) 0.25 0.6130(10) 0.0510(27) 1. 0
Na1 Na1+ 4 c 0.1577(11) 0.25 0.2302(4) 0.0103(32) 0.97 0
#End of TTdata_258308-ICSD