
#(C) 2019 by FIZ Karlsruhe - Leibniz Institute for Information Infrastructure.  All rights reserved.
data_258371-ICSD
_database_code_ICSD 258371
_audit_creation_date 2018-02-01
_chemical_name_systematic 'Caesium sodium silicate aluminate'
_chemical_formula_structural '(Cs3.5 Na8.5) (Si12 Al12 O48)'
_chemical_formula_sum 'Al12 Cs3.5 Na8.5 O48 Si12'
_chemical_name_structure_type Zeolite-A-frame
_chemical_name_mineral 'Zeolite A (Cs-exchanged, dehydrated)'
_exptl_crystal_density_diffrn 1.89
_publ_section_title

;
Selective removal of radioactive cesium from nuclear waste by zeolites: on the
origin of cesium selectivity revealed by systematic crystallographic studies
;
loop_
_citation_id
_citation_journal_full
_citation_year
_citation_journal_volume
_citation_page_first
_citation_page_last
_citation_journal_id_ASTM
primary 'Journal of Physical Chemistry C' 2017 121 10594 10608 JPCCCK
loop_
_publ_author_name
'Lee, Ha Young'
'Kim, Hu Sik'
'Jeong, Hae-Kwon'
'Park, Man'
'Chung, Dong-Yong'
'Lee, Keun-Young'
'Lee, Eil-Hee'
'Lim, Woo Taik'
_cell_length_a 12.2551(1)
_cell_length_b 12.2551(1)
_cell_length_c 12.2551(1)
_cell_angle_alpha 90.
_cell_angle_beta 90.
_cell_angle_gamma 90.
_cell_volume 1840.56
_cell_formula_units_Z 1
_symmetry_space_group_name_H-M 'P m -3 m'
_symmetry_Int_Tables_number 221
_refine_ls_R_factor_all 0.0578
loop_
_symmetry_equiv_pos_site_id
_symmetry_equiv_pos_as_xyz
1 'z, y, -x'
2 'y, x, -z'
3 'x, z, -y'
4 'z, x, -y'
5 'y, z, -x'
6 'x, y, -z'
7 'z, -y, x'
8 'y, -x, z'
9 'x, -z, y'
10 'z, -x, y'
11 'y, -z, x'
12 'x, -y, z'
13 '-z, y, x'
14 '-y, x, z'
15 '-x, z, y'
16 '-z, x, y'
17 '-y, z, x'
18 '-x, y, z'
19 '-z, -y, -x'
20 '-y, -x, -z'
21 '-x, -z, -y'
22 '-z, -x, -y'
23 '-y, -z, -x'
24 '-x, -y, -z'
25 '-z, -y, x'
26 '-y, -x, z'
27 '-x, -z, y'
28 '-z, -x, y'
29 '-y, -z, x'
30 '-x, -y, z'
31 '-z, y, -x'
32 '-y, x, -z'
33 '-x, z, -y'
34 '-z, x, -y'
35 '-y, z, -x'
36 '-x, y, -z'
37 'z, -y, -x'
38 'y, -x, -z'
39 'x, -z, -y'
40 'z, -x, -y'
41 'y, -z, -x'
42 'x, -y, -z'
43 'z, y, x'
44 'y, x, z'
45 'x, z, y'
46 'z, x, y'
47 'y, z, x'
48 'x, y, z'
loop_
_atom_type_symbol
_atom_type_oxidation_number
Si4+ 4
Al3+ 3
O2- -2
Cs1+ 1
Na1+ 1
loop_
_atom_site_label
_atom_site_type_symbol
_atom_site_symmetry_multiplicity
_atom_site_Wyckoff_symbol
_atom_site_fract_x
_atom_site_fract_y
_atom_site_fract_z
_atom_site_B_iso_or_equiv
_atom_site_occupancy
_atom_site_attached_hydrogens
Si1 Si4+ 24 k 0 0.1832(1) 0.3700(1) 0.0202(4) 0.5 0
Al1 Al3+ 24 k 0 0.1832(1) 0.3700(1) 0.0202(4) 0.5 0
O1 O2- 12 h 0 0.2197(4) 0.5 0.0348(16) 1. 0
O2 O2- 12 i 0 0.2957(2) 0.2957(2) 0.0597(23) 1. 0
O3 O2- 24 m 0.1126(2) 0.1126(1) 0.3359(2) 0.0271(7) 1. 0
Cs1 Cs1+ 3 c 0 0.5 0.5 0.0421(5) 0.9667(333) 0
Cs2 Cs1+ 8 g 0.0733(4) 0.0733(4) 0.0733(4) 0.0822(37) 0.0625(125) 0
Na1 Na1+ 8 g 0.2018(4) 0.2018(4) 0.2018(4) 0.0226(12) 0.7125(2000) 0
Na2 Na1+ 8 g 0.2184(14) 0.2184(14) 0.2184(14) 0.0382(69) 0.2625(2125) 0
Na3 Na1+ 12 j 0.2229(26) 0.2229(26) 0.5 0.0541(147) 0.0667(167) 0
loop_
_atom_site_aniso_label
_atom_site_aniso_type_symbol
_atom_site_aniso_U_11
_atom_site_aniso_U_22
_atom_site_aniso_U_33
_atom_site_aniso_U_12
_atom_site_aniso_U_13
_atom_site_aniso_U_23
Si1 Si4+ 0.0202(4) 0.0174(4) 0.0110(4) 0 0 0.0022(2)
Al1 Al3+ 0.0202(4) 0.0174(4) 0.0110(4) 0 0 0.0022(2)
O1 O2- 0.0348(16) 0.0556(24) 0.0124(11) 0 0 0
O2 O2- 0.0597(23) 0.0227(9) 0.0227(9) 0 0 0.0150(11)
O3 O2- 0.0271(7) 0.0271(7) 0.0303(11) 0.0033(8) 0.0016(6) 0.0016(6)
Cs1 Cs1+ 0.0421(5) 0.0471(4) 0.0471(4) 0 0 0
Cs2 Cs1+ 0.0822(37) 0.0822(37) 0.0822(37) -0.0325(26) -0.0325(26) -0.0325(26)
Na1 Na1+ 0.0226(12) 0.0226(12) 0.0226(12) 0.0052(110) 0.0052(110) 0.0052(110)
Na2 Na1+ 0.0382(69) 0.0382(69) 0.0382(69) 0.0216(76) 0.0216(76) 0.0216(76)
Na3 Na1+ 0.0541(147) 0.0541(147) 0.1809(659) -0.0084(196) 0 0
#End of TTdata_258371-ICSD