
#(C) 2019 by FIZ Karlsruhe - Leibniz Institute for Information Infrastructure.  All rights reserved.
data_258503-ICSD
_database_code_ICSD 258503
_audit_creation_date 2018-02-01
_chemical_name_systematic 'Sodium barium lanthanum phosphate'
_chemical_formula_structural 'Na Ba La2 (P O4)3'
_chemical_formula_sum 'Ba1 La2 Na1 O12 P3'
_chemical_name_structure_type Eulytite-Bi4(SiO4)3
_exptl_crystal_density_diffrn 4.26
_publ_section_title

;
NaBaLa2(PO4)3: A novel host lattice for Sm3+-doped phosphor materials emitting
reddish-orange light
;
loop_
_citation_id
_citation_journal_full
_citation_year
_citation_journal_volume
_citation_page_first
_citation_page_last
_citation_journal_id_ASTM
primary 'Journal of Alloys and Compounds' 2017 701 515 523 JALCEU
loop_
_publ_author_name
'Li, Li'
'Tang, Xiaohua'
'Jiang, Zhouqing'
'Zhou, Xianju'
'Jiang, Sha'
'Luo, Xiaobing'
'Xiang, Guotao'
'Zhou, Kaining'
_cell_length_a 10.40933(20)
_cell_length_b 10.40933(20)
_cell_length_c 10.40933(20)
_cell_angle_alpha 90.
_cell_angle_beta 90.
_cell_angle_gamma 90.
_cell_volume 1127.88
_cell_formula_units_Z 4
_symmetry_space_group_name_H-M 'I -4 3 d'
_symmetry_Int_Tables_number 220
_refine_ls_R_factor_all 0.0345
loop_
_symmetry_equiv_pos_site_id
_symmetry_equiv_pos_as_xyz
1 '-y+1/4, -x+3/4, z+3/4'
2 'y+3/4, -x+1/4, -z+3/4'
3 '-y+3/4, x+3/4, -z+1/4'
4 'y+1/4, x+1/4, z+1/4'
5 'z+1/2, -x+1/2, -y'
6 '-z+1/2, -x, y+1/2'
7 '-z, x+1/2, -y+1/2'
8 'z, x, y'
9 'z+3/4, -y+1/4, -x+3/4'
10 '-z+3/4, y+3/4, -x+1/4'
11 '-z+1/4, -y+3/4, x+3/4'
12 'z+1/4, y+1/4, x+1/4'
13 '-y, z+1/2, -x+1/2'
14 'y+1/2, -z+1/2, -x'
15 '-y+1/2, -z, x+1/2'
16 'y, z, x'
17 '-x+3/4, z+3/4, -y+1/4'
18 '-x+1/4, -z+3/4, y+3/4'
19 'x+3/4, -z+1/4, -y+3/4'
20 'x+1/4, z+1/4, y+1/4'
21 '-x+1/2, -y, z+1/2'
22 '-x, y+1/2, -z+1/2'
23 'x+1/2, -y+1/2, -z'
24 'x, y, z'
25 '-y+3/4, -x+1/4, z+1/4'
26 'y+1/4, -x+3/4, -z+1/4'
27 '-y+1/4, x+1/4, -z+3/4'
28 'y+3/4, x+3/4, z+3/4'
29 'z, -x, -y+1/2'
30 '-z, -x+1/2, y'
31 '-z+1/2, x, -y'
32 'z+1/2, x+1/2, y+1/2'
33 'z+1/4, -y+3/4, -x+1/4'
34 '-z+1/4, y+1/4, -x+3/4'
35 '-z+3/4, -y+1/4, x+1/4'
36 'z+3/4, y+3/4, x+3/4'
37 '-y+1/2, z, -x'
38 'y, -z, -x+1/2'
39 '-y, -z+1/2, x'
40 'y+1/2, z+1/2, x+1/2'
41 '-x+1/4, z+1/4, -y+3/4'
42 '-x+3/4, -z+1/4, y+1/4'
43 'x+1/4, -z+3/4, -y+1/4'
44 'x+3/4, z+3/4, y+3/4'
45 '-x, -y+1/2, z'
46 '-x+1/2, y, -z'
47 'x, -y, -z+1/2'
48 'x+1/2, y+1/2, z+1/2'
loop_
_atom_type_symbol
_atom_type_oxidation_number
Na1+ 1
Ba2+ 2
La3+ 3
P5+ 5
O2- -2
loop_
_atom_site_label
_atom_site_type_symbol
_atom_site_symmetry_multiplicity
_atom_site_Wyckoff_symbol
_atom_site_fract_x
_atom_site_fract_y
_atom_site_fract_z
_atom_site_B_iso_or_equiv
_atom_site_occupancy
_atom_site_attached_hydrogens
Na1 Na1+ 16 c 0.06356(2) 0.06356(2) 0.06356(2) 0.03414(6) 0.25 0
Ba1 Ba2+ 16 c 0.06356(2) 0.06356(2) 0.06356(2) 0.03414(6) 0.25 0
La1 La3+ 16 c 0.06356(2) 0.06356(2) 0.06356(2) 0.03414(6) 0.5 0
P1 P5+ 12 a 0.375 0 0.25 0.02747(6) 1. 0
O1 O2- 48 e 0.06192(1) 0.13299(1) 0.29678(4) 0.01463(2) 0.5 0
O2 O2- 48 e 0.99946(2) 0.18787(5) 0.30303(3) 0.03414(3) 0.5 0
#End of TTdata_258503-ICSD