
#(C) 2019 by FIZ Karlsruhe - Leibniz Institute for Information Infrastructure.  All rights reserved.
data_258574-ICSD
_database_code_ICSD 258574
_audit_creation_date 2018-02-01
_chemical_name_systematic 'Barium sodium tantalate manganate(V)'
_chemical_formula_structural 'Ba6 Na2 Ta2 Mn2 O17'
_chemical_formula_sum 'Ba6 Mn2 Na2 O17 Ta2'
_exptl_crystal_density_diffrn 6.12
_publ_section_title

;
New oxygen-deficient cationic-ordered perovskites containing
turquoise-coloring Mn5+O4 tetrahedral layers
;
loop_
_citation_id
_citation_journal_full
_citation_year
_citation_journal_volume
_citation_page_first
_citation_page_last
_citation_journal_id_ASTM
primary 'Journal of Solid State Chemistry' 2017 247 20 23 JSSCBI
loop_
_publ_author_name
'Han, Yifeng'
'Ye, Xuanhong'
'Zhu, Hong'
'Li, Yuexiang'
'Kuang, Xiaojun'
_cell_length_a 5.85300(3)
_cell_length_b 5.85300(3)
_cell_length_c 14.7543(1)
_cell_angle_alpha 90.
_cell_angle_beta 90.
_cell_angle_gamma 120.
_cell_volume 437.73
_cell_formula_units_Z 1
_symmetry_space_group_name_H-M 'P -3 m 1'
_symmetry_Int_Tables_number 164
_refine_ls_R_factor_all 0.0318
loop_
_symmetry_equiv_pos_site_id
_symmetry_equiv_pos_as_xyz
1 'x-y, -y, -z'
2 '-x, -x+y, -z'
3 'y, x, -z'
4 'x-y, x, -z'
5 'y, -x+y, -z'
6 '-x, -y, -z'
7 '-x+y, y, z'
8 'x, x-y, z'
9 '-y, -x, z'
10 '-x+y, -x, z'
11 '-y, x-y, z'
12 'x, y, z'
loop_
_atom_type_symbol
_atom_type_oxidation_number
Ba2+ 2
Na1+ 1
Ta5+ 5
Mn5+ 5
O2- -2
loop_
_atom_site_label
_atom_site_type_symbol
_atom_site_symmetry_multiplicity
_atom_site_Wyckoff_symbol
_atom_site_fract_x
_atom_site_fract_y
_atom_site_fract_z
_atom_site_B_iso_or_equiv
_atom_site_occupancy
_atom_site_attached_hydrogens
Ba1 Ba2+ 1 a 0 0 0 2.60(7) 1. 0
Ba2 Ba2+ 2 d 0.6667 0.3333 0.1849(1) 1.82(5) 1. 0
Ba3 Ba2+ 2 d 0.3333 0.6667 0.3416(1) 1.88(5) 1. 0
Ba4 Ba2+ 1 b 0 0 0.5 1.40(7) 1. 0
Na1 Na1+ 2 c 0 0 0.252(1) 1.9(2) 1. 0
Ta1 Ta5+ 2 d 0.6667 0.3333 0.4162(1) 1.09(3) 1. 0
Mn1 Mn5+ 2 d 0.3333 0.6667 0.1068(4) 0.9(1) 1. 0
O1 O2- 2 d 0.3333 0.6667 -0.0056(9) 2.4(4) 1. 0
O2 O2- 6 i 0.1817(8) 0.8182(8) 0.1379(5) 2.9(2) 1. 0
O3 O2- 6 i 0.8229(8) 0.1771(8) 0.3368(6) 0.7(2) 1. 0
O4 O2- 3 f 0.5 0.5 0.5 1.9(3) 1. 0
#End of TTdata_258574-ICSD