
#(C) 2019 by FIZ Karlsruhe - Leibniz Institute for Information Infrastructure.  All rights reserved.
data_259021-ICSD
_database_code_ICSD 259021
_audit_creation_date 2018-08-01
_chemical_name_systematic 'Tetrasodium tricalcium magnesium tetraphosphate'
_chemical_formula_structural 'Na4 Ca3 Mg (P O4)4'
_chemical_formula_sum 'Ca3 Mg1 Na4 O16 P4'
_chemical_name_mineral Czochralskiite
_exptl_crystal_density_diffrn 3.14
_publ_section_title

;
Czochralskiite, Na4Ca3Mg(PO4)4, a second new mineral from the Morasko IAB-MG
iron meteorite (Poland)
;
loop_
_citation_id
_citation_journal_full
_citation_year
_citation_journal_volume
_citation_page_first
_citation_page_last
_citation_journal_id_ASTM
primary 'European Journal of Mineralogy' 2016 28 969 977 EJMIER
loop_
_publ_author_name
'Karwowski, Lukasz'
'Kryza, Ryszard'
'Muszynski, Andrzej'
'Kusz, Joachim'
'Helios, Katarzyna'
'Drozdzewski, Piotr'
'Galuskin, Evgeny V.'
_cell_length_a 17.9230(2)
_cell_length_b 10.7280(2)
_cell_length_c 6.7794(1)
_cell_angle_alpha 90.
_cell_angle_beta 90.
_cell_angle_gamma 90.
_cell_volume 1303.53
_cell_formula_units_Z 4
_symmetry_space_group_name_H-M 'P n m a'
_symmetry_Int_Tables_number 62
_refine_ls_R_factor_all 0.025
loop_
_symmetry_equiv_pos_site_id
_symmetry_equiv_pos_as_xyz
1 'x+1/2, y, -z+1/2'
2 'x, -y+1/2, z'
3 '-x+1/2, y+1/2, z+1/2'
4 '-x, -y, -z'
5 '-x+1/2, -y, z+1/2'
6 '-x, y+1/2, -z'
7 'x+1/2, -y+1/2, -z+1/2'
8 'x, y, z'
loop_
_atom_type_symbol
_atom_type_oxidation_number
Ca2+ 2
P5+ 5
Mg2+ 2
Na1+ 1
O2- -2
loop_
_atom_site_label
_atom_site_type_symbol
_atom_site_symmetry_multiplicity
_atom_site_Wyckoff_symbol
_atom_site_fract_x
_atom_site_fract_y
_atom_site_fract_z
_atom_site_B_iso_or_equiv
_atom_site_occupancy
_atom_site_attached_hydrogens
Ca1 Ca2+ 8 d 0.727636(8) 0.477482(13) 0.48668(2) 0.00857(3) 1. 0
Ca2 Ca2+ 4 c 0.519124(12) 0.25 0.50535(3) 0.01054(4) 1. 0
P1 P5+ 4 c 0.824293(14) 0.75 0.22934(4) 0.00643(4) 1. 0
P2 P5+ 8 d 0.575890(10) 0.493229(17) 0.26947(3) 0.00683(3) 1. 0
P3 P5+ 4 c 0.657409(4) 0.75 0.73180(4) 0.00646(4) 1. 0
Mg1 Mg2+ 4 c 0.50237(2) 0.75 0.01507(5) 0.00606(6) 1. 0
Na1 Na1+ 4 c 0.65190(3) 0.75 0.23572(8) 0.01552(9) 1. 0
Na2 Na1+ 8 d 0.58889(2) 0.50108(4) 0.82486(6) 0.01540(7) 1. 0
Na3 Na1+ 4 c 0.32667(3) 0.75 -0.16068(8) 0.01770(10) 1. 0
O1 O2- 4 c 0.60881(5) 0.75 -0.08268(12) 0.01333(13) 1. 0
O2 O2- 8 d 0.20745(3) 0.63253(5) -0.23486(9) 0.01168(9) 1. 0
O3 O2- 8 d 0.53185(3) 0.61364(5) 0.22683(9) 0.01051(8) 1. 0
O4 O2- 4 c 0.32670(6) 0.75 -0.50439(12) 0.01362(14) 1. 0
O5 O2- 4 c 0.60887(5) 0.75 0.54919(12) 0.01201(13) 1. 0
O6 O2- 8 d 0.46828(3) 0.61976(6) -0.18907(10) 0.01437(10) 1. 0
O7 O2- 8 d 0.28227(4) 0.63355(6) 0.20259(10) 0.01549(11) 1. 0
O8 O2- 8 d 0.34750(3) 0.50043(4) -0.16680(10) 0.01467(10) 1. 0
O9 O2- 8 d 0.58858(4) 0.47151(6) 0.48825(8) 0.01234(9) 1. 0
O10 O2- 4 c 0.40277(5) 0.75 0.18172(14) 0.01490(14) 1. 0
#End of TTdata_259021-ICSD