
#(C) 2019 by FIZ Karlsruhe - Leibniz Institute for Information Infrastructure.  All rights reserved.
data_259101-ICSD
_database_code_ICSD 259101
_audit_creation_date 2018-08-01
_chemical_name_systematic 'Hexasodium uranate(VI) tetrasulfate tetrahydrate'
_chemical_formula_structural 'Na6 (U O2) (S O4)4 (H2 O)4'
_chemical_formula_sum 'H8 Na6 O22 S4 U1'
_chemical_name_mineral Pâ€šligotite
_exptl_crystal_density_diffrn 2.87
_publ_section_title

;
Klaprothite, peligotite and ottohahnite, three new minerals with bidentate
UO7-SO4 linkages from the Blue Lizard mine, San Juan County, Utah, USA
;
loop_
_citation_id
_citation_journal_full
_citation_year
_citation_journal_volume
_citation_page_first
_citation_page_last
_citation_journal_id_ASTM
primary 'Mineralogical Magazine' 2017 81 753 779 MNLMBB
loop_
_publ_author_name
'Kampf, Anthony R.'
'Plasil, Jakub'
'Kasatkin, Anatoly V.'
'Marty, Joe'
'Cejka, Jiri'
_cell_length_a 9.81511(18)
_cell_length_b 9.9575(2)
_cell_length_c 10.6289(8)
_cell_angle_alpha 88.680(6)
_cell_angle_beta 73.990(5)
_cell_angle_gamma 89.205(6)
_cell_volume 998.21
_cell_formula_units_Z 2
_symmetry_space_group_name_H-M 'P -1'
_symmetry_Int_Tables_number 2
_refine_ls_R_factor_all 0.0228
loop_
_symmetry_equiv_pos_site_id
_symmetry_equiv_pos_as_xyz
1 '-x, -y, -z'
2 'x, y, z'
loop_
_atom_type_symbol
_atom_type_oxidation_number
Na1+ 1
U6+ 6
S6+ 6
O2- -2
H1+ 1
O2- -2
H1+ 1
O2- -2
H1+ 1
O2- -2
H1+ 1
loop_
_atom_site_label
_atom_site_type_symbol
_atom_site_symmetry_multiplicity
_atom_site_Wyckoff_symbol
_atom_site_fract_x
_atom_site_fract_y
_atom_site_fract_z
_atom_site_B_iso_or_equiv
_atom_site_occupancy
_atom_site_attached_hydrogens
Na1 Na1+ 2 i 0.0173(2) 0.21679(18) 0.78354(16) 0.0321(4) 1. 0
Na2 Na1+ 2 i 0.13381(19) 0.60608(18) 0.49903(16) 0.0312(4) 1. 0
Na3 Na1+ 2 i 0.32017(19) 0.28083(18) 0.98490(17) 0.0302(4) 1. 0
Na4 Na1+ 2 i 0.48329(18) 0.30651(18) 0.21999(16) 0.0290(4) 1. 0
Na5 Na1+ 2 i 0.6224(2) 0.1241(2) 0.52127(18) 0.0405(5) 1. 0
Na6 Na1+ 1 c 0 0.5 0 0.0255(5) 1. 0
Na7 Na1+ 1 d 0.5 0 0 0.0826(15) 1. 0
U1 U6+ 2 i 0.09294(2) 0.80723(2) 0.80855(2) 0.01259(5) 1. 0
S1 S6+ 2 i 0.23359(10) 0.02517(10) 0.23419(9) 0.01805(19) 1. 0
S2 S6+ 2 i 0.27155(10) 0.47726(9) 0.76028(9) 0.01702(19) 1. 0
S3 S6+ 2 i 0.15332(10) 0.45960(9) 0.21644(9) 0.01466(18) 1. 0
S4 S6+ 2 i 0.33207(10) 0.01303(9) 0.76845(9) 0.01533(18) 1. 0
O1 O2- 2 i 0.2244(4) 0.0221(4) 0.3731(3) 0.0397(8) 1. 0
O2 O2- 2 i 0.3376(3) 0.1233(3) 0.1628(3) 0.0256(6) 1. 0
O3 O2- 2 i 0.2676(4) 0.8920(3) 0.1791(3) 0.0364(8) 1. 0
O4 O2- 2 i 0.0921(3) 0.0632(3) 0.2179(4) 0.0401(9) 1. 0
O5 O2- 2 i 0.2572(4) 0.4774(3) 0.6297(3) 0.0386(8) 1. 0
O6 O2- 2 i 0.1923(3) 0.3676(3) 0.8403(3) 0.0281(7) 1. 0
O7 O2- 2 i 0.4194(3) 0.4725(3) 0.7621(4) 0.0408(9) 1. 0
O8 O2- 2 i 0.2080(3) 0.6058(3) 0.8259(3) 0.0266(7) 1. 0
O9 O2- 2 i 0.1136(3) 0.5881(3) 0.1683(3) 0.0287(7) 1. 0
O10 O2- 2 i 0.1011(3) 0.4443(3) 0.3582(3) 0.0302(7) 1. 0
O11 O2- 2 i 0.3065(3) 0.4391(3) 0.1685(3) 0.0242(6) 1. 0
O12 O2- 2 i 0.0866(3) 0.3520(3) 0.15443(3) 0.0223(6) 1. 0
O13 O2- 2 i 0.4120(3) 0.0350(3) 0.6332(3) 0.0308(7) 1. 0
O14 O2- 2 i 0.3831(3) 0.0928(3) 0.8573(3) 0.0254(6) 1. 0
O15 O2- 2 i 0.1781(3) 0.0374(3) 0.7821(3) 0.0200(6) 1. 0
O16 O2- 2 i 0.3355(3) 0.8660(3) 0.8039(3) 0.0235(6) 1. 0
O17 O2- 2 i 0.1527(3) 0.7912(3) 0.6350(3) 0.0218(6) 1. 0
O18 O2- 2 i 0.9593(3) 0.1796(3) 0.0190(3) 0.02411(6) 1. 0
O19 O2- 2 i 0.0212(6) 0.2052(6) 0.5629(4) 0.0723(15) 1. 0
H1 H1+ 2 i 0.030(7) 0.129(3) 0.539(7) 0.087 1. 0
H2 H1+ 2 i 0.106(4) 0.233(7) 0.536(7) 0.087 1. 0
O20 O2- 2 i 0.5681(3) 0.3171(3) 0.9800(3) 0.02885(7) 1. 0
H3 H1+ 2 i 0.588(5) 0.392(3) 0.9445 0.034 1. 0
H4 H1+ 2 i 0.642(4) 0.277(4) 0.961(5) 0.034 1. 0
O21 O2- 2 i 0.3404(3) 0.6990(3) 0.3532(3) 0.0289(7) 1. 0
H5 H1+ 2 i 0.321(5) 0.742(4) 0.294(4) 0.035 1. 0
H6 H1+ 2 i 0.403(4) 0.647(4) 0.317(4) 0.035 1. 0
O22 O2- 2 i 0.4291(7) 0.2766(5) 0.4487(4) 0.0841(18) 1. 0
H7 H1+ 2 i 0.359(5) 0.303(7) 0.510(6) 0.101 1. 0
H8 H1+ 2 i 0.486(7) 0.342(7) 0.454(8) 0.101 1. 0
loop_
_atom_site_aniso_label
_atom_site_aniso_type_symbol
_atom_site_aniso_U_11
_atom_site_aniso_U_22
_atom_site_aniso_U_33
_atom_site_aniso_U_12
_atom_site_aniso_U_13
_atom_site_aniso_U_23
Na1 Na1+ 0.0449(11) 0.0279(10) 0.0257(9) 0.0180(8) -0.0139(8) -0.0057(7)
Na2 Na1+ 0.0367(10) 0.0336(10) 0.0223(9) -0.0115(8) -0.0056(7) -0.0064(7)
Na3 Na1+ 0.0367(10) 0.0285(10) 0.0291(9) 0.0145(8) -0.01552(8) -0.0157(7)
Na4 Na1+ 0.0303(10) 0.0307(10) 0.0298(9) 0.0090(8) -0.0146(7) -0.0052(7)
Na5 Na1+ 0.0411(11) 0.0445(12) 0.0295(10) -0.0229(9) 0.0028(8) -0.00908
Na6 Na1+ 0.0246(13) 0.0317(13) 0.0201(11) 0.0020(10) -0.0062(9) 0.0046(9)
Na7 Na1+ 0.084(3) 0.137(4) 0.0279(16) 0.089(3) -0.0191(16) -0.0204(18)
U1 U6+ 0.01248(8) 0.01214(8) 0.01266(7) -0.00012(5) -0.00267(5) -0.00023(5)
S1 S6+ 0.0154(5) 0.0173(5) 0.0218(5) 0.0024(4) -0.0059(4) 0.0013(4)
S2 S6+ 0.0156(5) 0.0146(5) 0.0201(5) 0.0032(4) -0.0038(4) -0.0015(3)
S3 S6+ 0.0136(5) 0.0137(5) 0.0164(4) -0.0008(4) -0.0035(3) -0.0018(3)
S4 S6+ 0.0143(5) 0.0147(5) 0.0167(4) -0.0015(4) -0.0036(3) -0.0023(3)
O1 O2- 0.049(2) 0.048(2) 0.0190(16) 0.0052(17) -0.0037(14) 0.0021(4)
O2 O2- 0.0203(15) 0.0266(16) 0.0273(15) -0.0029(12) -0.0022(12) 0.0020(12)
O3 O2- 0.047(2) 0.0201(17) 0.045(2) 0.0092(15) -0.0165(16) -0.0065(14)
O4 O2- 0.0176(17) 0.0341(19) 0.072(3) 0.0027(14) -0.0188(16) 0.0093(17)
O5 O2- 0.059(2) 0.038(2) 0.0192(15) 0.0101(17) -0.0108(15) -0.0025(13)
O6 O2- 0.0319(17) 0.0185(15) 0.0330(17) -0.0001(13) -0.0078(13) 0.0052(12)
O7 O2- 0.0172(17) 0.036(2) 0.071(2) 0.0066(14) -0.0140(16) -0.0167(17)
O8 O2- 0.0309(17) 0.0192(15) 0.0303(16) 0.0081(13) -0.0099(13) -0.0019(12)
O9 O2- 0.0282(17) 0.0177(15) 0.0409(18) 0.0068(12) -0.0111(14) 0.0014(13)
O10 O2- 0.0358(18) 0.0379(19) 0.0155(14) -0.0103(14) -0.0042(12) -0.0028(1)
O11 O2- 0.0130(14) 0.0239(16) 0.03677(17) 0.0028(12) -0.0083(12) -0.0038(12)
O12 O2- 0.0247(16) 0.0211(15) 0.0223(14) -0.0068(12) -0.0082(12) -0.0027(11)
O13 O2- 0.0260(17) 0.0421(19) 0.0198(15) -0.0100(14) 0.0018(12) -0.0039(13)
O14 O2- 0.0262(16) 0.0253(16) 0.0291(16) 0.0019(13) -0.0144(13) -0.0104(12)
O15 O2- 0.0141(14) 0.0168(14) 0.0305(15) 0.0001(11) -0.0085(11) 0.0014(11)
O16 O2- 0.0175(15) 0.0137(14) 0.0404(17) 0.0003(11) -0.0099(12) 0.0007(12)
O17 O2- 0.0268(16) 0.0217(15) 0.0159(13) -0.0041(12) -0.0040(11) -00.0011(11)
O18 O2- 0.0292(16) 0.0253(16) 0.0164(13) -0.0017(13) -0.0038(11) -0.0030(11)
O19 O2- 0.109(4) 0.078(3) 0.034(2) 0.044(3) -0.028(3) -0.008(2)
O20 O2- 0.0239(17) 0.0277(18) 0.0301(17) 0.0008(14) -0.0013(13) 0.0024(13)
O21 O2- 0.0315(18) 0.0283(18) 0.0245(16) 0.0029(14) -0.0037(13) -0.0021(13)
O22 O2- 0.126(5) 0.081(4) 0.034(2) 0.052(3) -0.005(3) 0.004(2)
#End of TTdata_259101-ICSD