
#(C) 2019 by FIZ Karlsruhe - Leibniz Institute for Information Infrastructure.  All rights reserved.
data_259111-ICSD
_database_code_ICSD 259111
_audit_creation_date 2018-08-01
_chemical_name_systematic 'Sodium niobate'
_chemical_formula_structural 'Na (Nb O3)'
_chemical_formula_sum 'Na1 Nb1 O3'
_chemical_name_mineral Lueshite
_exptl_crystal_density_diffrn 4.57
_cell_measurement_temperature 848.
_publ_section_title

;
The crystal structure of lueshite at 298 K resolved by high-resolution
time-of-flight neutron powder diffraction
;
loop_
_citation_id
_citation_journal_full
_citation_year
_citation_journal_volume
_citation_page_first
_citation_page_last
_citation_journal_id_ASTM
primary 'Physics and Chemistry of Minerals' 2018 45 77 83 PCMIDU
loop_
_publ_author_name
'Mitchell, Roger H.'
'Kennedy, Brendan J.'
'Knight, Kevin S.'
_cell_length_a 7.8032(4)
_cell_length_b 7.8193(4)
_cell_length_c 15.6156(9)
_cell_angle_alpha 90.
_cell_angle_beta 90.
_cell_angle_gamma 90.
_cell_volume 952.79
_cell_formula_units_Z 16
_symmetry_space_group_name_H-M 'P m m n Z'
_symmetry_Int_Tables_number 59
_refine_ls_R_factor_all 0.092
loop_
_symmetry_equiv_pos_site_id
_symmetry_equiv_pos_as_xyz
1 'x+1/2, y+1/2, -z'
2 '-x, y+1/2, -z'
3 'x+1/2, -y, -z'
4 '-x, -y, -z'
5 '-x+1/2, -y+1/2, z'
6 'x, -y+1/2, z'
7 '-x+1/2, y, z'
8 'x, y, z'
loop_
_atom_type_symbol
_atom_type_oxidation_number
Na1+ 1
Nb5+ 5
O2- -2
loop_
_atom_site_label
_atom_site_type_symbol
_atom_site_symmetry_multiplicity
_atom_site_Wyckoff_symbol
_atom_site_fract_x
_atom_site_fract_y
_atom_site_fract_z
_atom_site_B_iso_or_equiv
_atom_site_occupancy
_atom_site_attached_hydrogens
Na1 Na1+ 2 a 0.25 0.25 0.1079(15) 0.0066(8) 1. 0
Na2 Na1+ 2 a 0.25 0.25 0.3876(14) 0.0066(8) 1. 0
Na3 Na1+ 2 a 0.25 0.25 0.6078(14) 0.0066(8) 1. 0
Na4 Na1+ 2 a 0.25 0.25 0.8914(14) 0.0066(8) 1. 0
Na5 Na1+ 2 b 0.25 0.75 0.1489(14) 0.0066(8) 1. 0
Na6 Na1+ 2 b 0.25 0.75 0.3674(15) 0.0066(8) 1. 0
Na7 Na1+ 2 b 0.25 0.75 0.6403(14) 0.0066(8) 1. 0
Na8 Na1+ 2 b 0.25 0.75 0.8562(15) 0.0066(8) 1. 0
Nb1 Nb5+ 4 c 0 0 0 0.00784(31) 1. 0
Nb2 Nb5+ 8 g -0.0011(7) -0.0020(9) 0.2502(4) 0.00784(31) 1. 0
Nb3 Nb5+ 4 d 0 0 0.5 0.00784(31) 1. 0
O1 O2- 4 e 0.25 -0.0444(12) -0.0036(8) 0.0208(4) 1. 0
O2 O2- 4 e 0.25 -0.0302(15) 0.2726(7) 0.0208(4) 1. 0
O3 O2- 4 e 0.25 0.0531(13) 0.44828(6) 0.0208(4) 1. 0
O4 O2- 4 e 0.25 -0.0229(16) 0.7417(6) 0.0208(4) 1. 0
O5 O2- 8 g 0.0136(8) -0.0218(9) 0.1257(6) 0.0208(4) 1. 0
O6 O2- 8 g -0.0303(9) 0.0373(10) 0.38109(6) 0.0208(4) 1. 0
O7 O2- 4 f -0.0032(11) 0.25 0.0175(7) 0.0208(4) 1. 0
O8 O2- 4 f 0.0499(15) 0.25 0.2417(6) 0.0208(4) 1. 0
O9 O2- 4 f -0.0605 0.25 0.5111(8) 0.0208(4) 1. 0
O10 O2- 4 f 0.0476(15) 0.25 0.7455(7) 0.0208(4) 1. 0
#End of TTdata_259111-ICSD