
#(C) 2019 by FIZ Karlsruhe - Leibniz Institute for Information Infrastructure.  All rights reserved.
data_259110-ICSD
_database_code_ICSD 259110
_audit_creation_date 2018-08-01
_chemical_name_systematic 'Sodium niobate'
_chemical_formula_structural 'Na (Nb O3)'
_chemical_formula_sum 'Na1 Nb1 O3'
_chemical_name_structure_type Perovskite-NaTaO3
_chemical_name_mineral Lueshite
_exptl_crystal_density_diffrn 4.47
_cell_measurement_temperature 848.
_publ_section_title

;
The crystal structure of lueshite at 298 K resolved by high-resolution
time-of-flight neutron powder diffraction
;
loop_
_citation_id
_citation_journal_full
_citation_year
_citation_journal_volume
_citation_page_first
_citation_page_last
_citation_journal_id_ASTM
primary 'Physics and Chemistry of Minerals' 2018 45 77 83 PCMIDU
loop_
_publ_author_name
'Mitchell, Roger H.'
'Kennedy, Brendan J.'
'Knight, Kevin S.'
_cell_length_a 7.8687(4)
_cell_length_b 7.8629(4)
_cell_length_c 7.8719(4)
_cell_angle_alpha 90.
_cell_angle_beta 90.
_cell_angle_gamma 90.
_cell_volume 487.04
_cell_formula_units_Z 8
_symmetry_space_group_name_H-M 'C m c m'
_symmetry_Int_Tables_number 63
_refine_ls_R_factor_all 0.059
loop_
_symmetry_equiv_pos_site_id
_symmetry_equiv_pos_as_xyz
1 '-x, y, -z+1/2'
2 '-x, -y, z+1/2'
3 '-x, y, z'
4 '-x, -y, -z'
5 'x, -y, z+1/2'
6 'x, y, -z+1/2'
7 'x, -y, -z'
8 'x, y, z'
9 '-x+1/2, y+1/2, -z+1/2'
10 '-x+1/2, -y+1/2, z+1/2'
11 '-x+1/2, y+1/2, z'
12 '-x+1/2, -y+1/2, -z'
13 'x+1/2, -y+1/2, z+1/2'
14 'x+1/2, y+1/2, -z+1/2'
15 'x+1/2, -y+1/2, -z'
16 'x+1/2, y+1/2, z'
loop_
_atom_type_symbol
_atom_type_oxidation_number
Na1+ 1
Nb5+ 5
O2- -2
loop_
_atom_site_label
_atom_site_type_symbol
_atom_site_symmetry_multiplicity
_atom_site_Wyckoff_symbol
_atom_site_fract_x
_atom_site_fract_y
_atom_site_fract_z
_atom_site_B_iso_or_equiv
_atom_site_occupancy
_atom_site_attached_hydrogens
Na1 Na1+ 4 c 0 0.0182(22) 0.25 0.0367(7) 1. 0
Na2 Na1+ 4 c 0 0.4769(19) 0.25 0.0350(7) 1. 0
Nb1 Nb5+ 8 d 0.25 0.25 0 0.0197 1. 0
O1 O2- 8 e 0.2745(9) 0 0 0.0424 1. 0
O2 O2- 8 f 0 0.2286(1) 0.0068(10) 0.0298 1. 0
O3 O2- 8 g 0.2739(8) 0.2540(1) 0.25 0.0339 1. 0
#End of TTdata_259110-ICSD