
#(C) 2019 by FIZ Karlsruhe - Leibniz Institute for Information Infrastructure.  All rights reserved.
data_259100-ICSD
_database_code_ICSD 259100
_audit_creation_date 2018-08-01
_chemical_name_systematic 'Hexasodium uranate(VI) tetrasulfate tetrahydrate'
_chemical_formula_structural 'Na6 (U O2) (S O4)4 (H2 O)4'
_chemical_formula_sum 'H8 Na6 O22 S4 U1'
_chemical_name_mineral Klaprothite
_exptl_crystal_density_diffrn 2.91
_publ_section_title

;
Klaprothite, peligotite and ottohahnite, three new minerals with bidentate
UO7-SO4 linkages from the Blue Lizard mine, San Juan County, Utah, USA
;
loop_
_citation_id
_citation_journal_full
_citation_year
_citation_journal_volume
_citation_page_first
_citation_page_last
_citation_journal_id_ASTM
primary 'Mineralogical Magazine' 2017 81 753 779 MNLMBB
loop_
_publ_author_name
'Kampf, Anthony R.'
'Plasil, Jakub'
'Kasatkin, Anatoly V.'
'Marty, Joe'
'Cejka, Jiri'
_cell_length_a 9.8271(4)
_cell_length_b 9.7452(3)
_cell_length_c 20.8725(15)
_cell_angle_alpha 90
_cell_angle_beta 98.743(7)
_cell_angle_gamma 90
_cell_volume 1975.67
_cell_formula_units_Z 4
_symmetry_space_group_name_H-M 'P 1 21/c 1'
_symmetry_Int_Tables_number 14
_refine_ls_R_factor_all 0.0222
loop_
_symmetry_equiv_pos_site_id
_symmetry_equiv_pos_as_xyz
1 'x, -y+1/2, z+1/2'
2 '-x, -y, -z'
3 '-x, y+1/2, -z+1/2'
4 'x, y, z'
loop_
_atom_type_symbol
_atom_type_oxidation_number
Na1+ 1
U6+ 6
S6+ 6
O2- -2
H1+ 1
O2- -2
H1+ 1
O2- -2
H1+ 1
O2- -2
H1+ 1
loop_
_atom_site_label
_atom_site_type_symbol
_atom_site_symmetry_multiplicity
_atom_site_Wyckoff_symbol
_atom_site_fract_x
_atom_site_fract_y
_atom_site_fract_z
_atom_site_B_iso_or_equiv
_atom_site_occupancy
_atom_site_attached_hydrogens
Na1 Na1+ 4 e 0.90437(17) 0.30192(16) 0.89756(8) 0.0252(8) 1. 0
Na2 Na1+ 4 e 0.26877(17) 0.23763(17) 0.75503(8) 0.0240(9) 1. 0
Na3 Na1+ 4 e 0.30983(19) 0.22928(17) 0.99039(8) 0.0303(4) 1. 0
Na4 Na1+ 4 e 0.40612(17) 0.81668(16) 0.90064(8) 0.0254(4) 1. 0
Na5 Na1+ 4 e 0.3506(2) 0.62409(19) 0.74617(9) 0.0410(5) 1. 0
Na6 Na1+ 2 a 0. 0.5 0.5 0.0325(6) 1. 0
Na7 Na1+ 2 d 0.5 0.5 0 0.0988(19) 1. 0
U1 U6+ 4 e 0.99601(2) 0.20230(2) 0.60250(2) 0.01284(4) 1. 0
S1 S6+ 4 e 0.66470(9) 0.53766(9) 0.87958(4) 0.01520(18) 1. 0
S2 S6+ 4 e 0.16743(10) 0.04653(9) 0.88370(4) 0.01691(18) 1. 0
S3 S6+ 4 e 0.26752(9) 0.45861(9) 0.60626(4) 0.01456(18) 1. 0
S4 S6+ 4 e 0.22619(9) 0.49007(9) 0.87535(4) 0.01472(18) 1. 0
O1 O2- 4 e 0.3707(3) 0.0712(3) 0.68903(13) 0.0309(7) 1. 0
O2 O2- 4 e 0.5873(3) 0.6234(3) 0.91893(13) 0.0247(6) 1. 0
O3 O2- 4 e 0.6440(3) 0.3917(3) 0.89178(14) 0.0272(6) 1. 0
O4 O2- 4 e 0.8155(3) 0.5630(3) 0.90098(15) 0.0300(7) 1. 0
O5 O2- 4 e 0.1284(4) 0.0692(4) 0.81476(15) 0.04445(9) 1. 0
O6 O2- 4 e 0.8981(3) 0.6436(3) 0.57752(14) 0.0253(6) 1. 0
O7 O2- 4 e 0.3169(3) 0.0514(3) 0.90312(14) 0.0274(7) 1. 0
O8 O2- 4 e 0.8771(3) 0.4064(3) 0.59786(17) 0.0354(8) 1. 0
O9 O2- 4 e 0.2088(3) 0.5943(3) 0.59533(18) 0.0373(8) 1. 0
O10 O2- 4 e 0.3031(3) 0.422503 0.67504(13) 0.0282(7) 1. 0
O11 O2- 4 e 0.3860(3) 0.4425(3) 0.57219(13) 0.0211(6) 1. 0
O12 O2- 4 e 0.1596(3) 0.3577(3) 0.57522(13) 0.0236(6) 1. 0
O13 O2- 4 e 0.2590(3) 0.4444(3) 0.81359(14) 0.0298(7) 1. 0
O14 O2- 4 e 0.3122(3) 0.4266(3) 0.92971(14) 0.0263(6) 1. 0
O15 O2- 4 e 0.0770(3) 0.4683(3) 0.87985(13) 0.0211(6) 1. 0
O16 O2- 4 e 0.2383(3) 0.6437(3) 0.87958(13) 0.0198(6) 1. 0
O17 O2- 4 e 0.0502(3) 0.2256(3) 0.68669(13) 0.0218(6) 1. 0
O18 O2- 4 e 0.9439(2) 0.1845(3) 0.51757(13) 0.0255(6) 1. 0
O19 O2- 4 e 0.8704(4) 0.2477(6) 0.78456(18) 0.0576(12) 1. 0
H1 H1+ 4 e 0.937(5) 0.203(5) 0.783(3) 0.069 1. 0
H2 H1+ 4 e 0.880(6) 0.317(4) 0.761(3) 0.069 1. 0
O20 O2- 4 e 0.4328(3) 0.7935(3) 0.01370(14) 0.0270(6) 1. 0
H3 H1+ 4 e 0.414(5) 0.869(3) 0.023(2) 0.032 1. 0
H4 H1+ 4 e 0.393(5) 0.744(4) 0.035(2) 0.032 1. 0
O21 O2- 4 e 0.4801(3) 0.1886(3) 0.82167(13) 0.0251(6) 1. 0
H5 H1+ 4 e 0.526(4) 0.252(4) 0.840(2) 0.03 1. 0
H6 H1+ 4 e 0.454(5) 0.143(4) 0.8493(18) 0.03 1. 0
O22 O2- 4 e 0.4137(4) 0.8479(3) 0.78808(15) 0.0333(7) 1. 0
H7 H1+ 4 e 0.376(4) 0.903(4) 0.763(2) 0.04 1. 0
H8 H1+ 4 e 0.499(3) 0.868(5) 0.791(2) 0.04 1. 0
loop_
_atom_site_aniso_label
_atom_site_aniso_type_symbol
_atom_site_aniso_U_11
_atom_site_aniso_U_22
_atom_site_aniso_U_33
_atom_site_aniso_U_12
_atom_site_aniso_U_13
_atom_site_aniso_U_23
Na1 Na1+ 0.0252(8) 0.0193(8) 0.0268(8) -0.0041(7) 0.0025(6) 0.0013(7)
Na2 Na1+ 0.0240(9) 0.0303(9) 0.0256(8) 0.0031(7) -0.0008(7) -0.0052(7)
Na3 Na1+ 0.0376(10) 0.0256(9) 0.0247(8) -0.0117(7) -0.0048(7) 0.0045(7)
Na4 Na1+ 0.0240(8) 0.0267(9) 0.0242(8) -0.0067(7) -0.0003(6) -0.0004(7)
Na5 Na1+ 0.0575(13) 0.0289(10) 0.0411(11) -0.0097(9) 0.0219(9) -0.0083(8)
Na6 Na1+ 0.0346(14) 0.0409(14) 0.0241(12) 0.0166(12) 0.0115(10) 0.0123(11)
Na7 Na1+ 0.075(3) 0.163(4) 0.0460(19) -0.092(3) -0.0328(18) 0.059(2)
U1 U6+ 0.01114(7) 0.01244(7) 0.01492(7) -0.00010(5) 0.00187(4) 0.00186(5)
S1 S6+ 0.0154(4) 0.0136(4) 0.0170(4) -0.0022(3) 0.0036(3) 0.0001(3)
S2 S6+ 0.0155545(4) 0.0165(4) 0.0190(4) -0.0018(4) 0.0034(3) 0.0007(4)
S3 S6+ 0.0114(4) 0.0134(4) 0.0190(4) -0.0004(3) 0.0028(3) --0.0005(3)
S4 S6+ 0.0137(4) 0.0136(44) 0.0170(4) 0.0013(3) 0.0026(3) -0.0004(3)
O1 O2- 0.045(2) 0.0300(17) 0.0176(14) 0.0023(14) 0.0032(13) -0.0040(12)
O2 O2- 0.0220(15) 0.0252(15) 0.0283(15) 0.0022(12) 0.0087(12) -0.0042(12)
O3 O2- 0.0321(17) 0.0141(13) 0.0345(16) -0.0063(12) 0.0024(13) 0.0026(12)
O4 O2- 0.01557(15) 0.0303(16) 0.0445(18) -0.0052(13) 0.0061(13) 0.0038(14)
O5 O2- 0.040(2) 0.071(3) 0.0218(16) 0.0007(18) 0.0023(14) 0.0061(16)
O6 O2- 0.0229(15) 0.018(14) 0.0353(16) -0.0015(12) 0.0052(12) 0.0055(12)
O7 O2- 0.0146(14) 0.0322(16) 0.0361(17) -0.0046(12) 0.0068(12) -0.0025(13)
O8 O2- 0.0303(18) 0.0149(14) 0.060(2) 0.0069(13) 0.0026(15) -0.0011(14)
O9 O2- 0.0297(17) 0.0169(15) 0.068(2) 0.0094(13) 0.0151(16) 0.0035(15)
O10 O2- 0.0286(16) 0.0387(18) 0.0172(14) -0.0108(14) 0.0030(12) -0.0008(12)
O11 O2- 0.0150(13) 0.0248(14) 0.0244(14) 0.0023(11) 0.0061(11) 0.0000(12)
O12 O2- 0.0216(15) 0.0271(15) 0.0214(14) -0.0119(12) 0.0007(11) -0.0001(12)
O13 O2- 0.0390(118) 0.0257(15) 0.0275(15) 0.0030(14) 0.0139(13) -0.0070(13)
O14 O2- 0.0196(15) 0.0293(16) 0.0276(15) -0.0002(12) -0.0043(12) 0.0103(12)
O15 O2- 0.0139(13) 0.0159(13) 0.0334(15) -0.0026(11) 0.0035(11) -0.0014(11)
O16 O2- 0.0149(13) 0.0117(12) 0.0339(15) -0.0002(10) 0.0072(11) -0.0009(11)
O17 O2- 0.0190(14) 0.0271(15) 0.0197(13) 0.0008(12) 0.0042(11) -0.0016(11)
O18 O2- 0.0268(15) 0.0305(16) 0.0182(13) -0.0029(13) 0.0007(11) 0.0017(12)
O19 O2- 0.037(2) 0.106(4) 0.032(2) -0.001(2) 0.0101(17) -0.010(2)
O20 O2- 0.0331(17) 0.0228(15) 0.0272(15) 0.0009(14) 0.0115(13) 0.0012(13)
O21 O2- 0.0274(16) 0.0260(16) 0.0212(14) -0.0053(13) 0.0019(12) -0.0022(12)
O22 O2- 0.0398(19) 0.0300(17) 0.0296(17) -0.0016(15) 0.0036(15) 0.0014(14)
#End of TTdata_259100-ICSD