
#(C) 2019 by FIZ Karlsruhe - Leibniz Institute for Information Infrastructure.  All rights reserved.
data_259421-ICSD
_database_code_ICSD 259421
_audit_creation_date 2018-08-01
_chemical_name_systematic 'Sodium lithium iron(III) germanate (0.9/0.1/1/2)'
_chemical_formula_structural 'Na0.9 Li0.1 Fe Ge2 O6'
_chemical_formula_sum 'Fe1 Ge2 Li0.1 Na0.9 O6'
_chemical_name_structure_type Pyroxene-CaMg(SiO3)2
_exptl_crystal_density_diffrn 4.52
_publ_section_title

;
Synthesis and study of structural, thermodynamic, and magnetic properties of
NaxLi1-xFeGe2O6 (x = 0.1-0.9) compounds
;
loop_
_citation_id
_citation_journal_full
_citation_year
_citation_journal_volume
_citation_page_first
_citation_page_last
_citation_journal_id_ASTM
primary 'Physics of the Solid State' 2016 58 1361 1370 PSOSED
loop_
_publ_author_name
'Drokina, T.V.'
'Petrakovskii, G.A.'
'Molokeev, M.S.'
'Bondarev, V.S.'
'Velikanov, D.A.'
_cell_length_a 10.0110(1)
_cell_length_b 8.90170(8)
_cell_length_c 5.51505(6)
_cell_angle_alpha 90
_cell_angle_beta 107.8227(7)
_cell_angle_gamma 90
_cell_volume 467.88
_cell_formula_units_Z 4
_symmetry_space_group_name_H-M 'C 1 2/c 1'
_symmetry_Int_Tables_number 15
_refine_ls_R_factor_all 0.0233
loop_
_symmetry_equiv_pos_site_id
_symmetry_equiv_pos_as_xyz
1 'x, -y, z+1/2'
2 '-x, -y, -z'
3 '-x, y, -z+1/2'
4 'x, y, z'
5 'x+1/2, -y+1/2, z+1/2'
6 '-x+1/2, -y+1/2, -z'
7 '-x+1/2, y+1/2, -z+1/2'
8 'x+1/2, y+1/2, z'
loop_
_atom_type_symbol
_atom_type_oxidation_number
Li1+ 1
Na1+ 1
Fe3+ 3
Ge4+ 4
O2- -2
loop_
_atom_site_label
_atom_site_type_symbol
_atom_site_symmetry_multiplicity
_atom_site_Wyckoff_symbol
_atom_site_fract_x
_atom_site_fract_y
_atom_site_fract_z
_atom_site_B_iso_or_equiv
_atom_site_occupancy
_atom_site_attached_hydrogens
Li1 Li1+ 4 e 0 0.290(1) 0.25 2.4(3) 0.1 0
Na1 Na1+ 4 e 0 0.290(1) 0.25 2.4(3) 0.9 0
Fe1 Fe3+ 4 e 0 0.9020(4) 0.25 0.6(2) 1. 0
Ge1 Ge4+ 8 f 0.2889(2) 0.0938(2) 0.2312(3) 0.5(2) 1. 0
O1 O2- 8 f 0.1041(6) 0.0803(9) 0.138(2) 1.0(2) 1. 0
O2 O2- 8 f 0.3584(8) 0.2710(9) 0.298(2) 1.0(2) 1. 0
O3 O2- 8 f 0.3590(9) 0.0030(7) 0.024(2) 1.0(2) 1. 0
#End of TTdata_259421-ICSD