
#(C) 2019 by FIZ Karlsruhe - Leibniz Institute for Information Infrastructure.  All rights reserved.
data_259677-ICSD
_database_code_ICSD 259677
_audit_creation_date 2018-08-01
_chemical_name_systematic
'Sodium iron(II) vanadium(III) phosphate (2/1.96/0.96/3)'
_chemical_formula_structural 'Na1.92 Fe1.00 (Fe0.96 V0.96 Na0.08) (P O4)3'
_chemical_formula_sum 'Fe1.96 Na2 O12 P3 V0.96'
_chemical_name_structure_type Alluaudite
_exptl_crystal_density_diffrn 3.7
_publ_section_title

;
Development of a new alluaudite-based cathode material with high power and
long cyclability for application in Na ion batteries in real-life
;
loop_
_citation_id
_citation_journal_full
_citation_year
_citation_journal_volume
_citation_page_first
_citation_page_last
_citation_journal_id_ASTM
primary
'Journal of Materials Chemistry A: Materials for Energy and Sustainability' 2017 5 22334 22340 JMCAET
loop_
_publ_author_name
'Kim, Jongsoon'
'Kim, Hyungsub'
'Lee, Seongsu'
'Myung, Seung-Taek'
_cell_length_a 11.8865(3)
_cell_length_b 12.5160(2)
_cell_length_c 6.4909(1)
_cell_angle_alpha 90
_cell_angle_beta 114.757(2)
_cell_angle_gamma 90
_cell_volume 876.9
_cell_formula_units_Z 4
_symmetry_space_group_name_H-M 'C 1 2/c 1'
_symmetry_Int_Tables_number 15
_refine_ls_R_factor_all 0.0113
loop_
_symmetry_equiv_pos_site_id
_symmetry_equiv_pos_as_xyz
1 'x, -y, z+1/2'
2 '-x, -y, -z'
3 '-x, y, -z+1/2'
4 'x, y, z'
5 'x+1/2, -y+1/2, z+1/2'
6 '-x+1/2, -y+1/2, -z'
7 '-x+1/2, y+1/2, -z+1/2'
8 'x+1/2, y+1/2, z'
loop_
_atom_type_symbol
_atom_type_oxidation_number
Na1+ 1
Fe2+ 2
V3+ 3
Na1+ 1
Fe2+ 2
V3+ 3
Na1+ 1
P5+ 5
O2- -2
loop_
_atom_site_label
_atom_site_type_symbol
_atom_site_symmetry_multiplicity
_atom_site_Wyckoff_symbol
_atom_site_fract_x
_atom_site_fract_y
_atom_site_fract_z
_atom_site_B_iso_or_equiv
_atom_site_occupancy
_atom_site_attached_hydrogens
Na1 Na1+ 4 b 0 0.5 0 1.1(3) 1.000(6) 0
Na2 Na1+ 4 e 0 -0.0116(15) 0.25 1.9(4) 0.922(6) 0
Fe1 Fe2+ 4 e 0 0.2698(6) 0.25 1.07(19) 0.998(3) 0
V1 V3+ 4 e 0 0.2698(6) 0.25 1.07(19) 0.002(2) 0
Na3 Na1+ 4 e 0 0.2698(6) 0.25 1.07(19) 0.000(4) 0
Fe2 Fe2+ 8 f 0.2803(5) 0.6650(3) 0.3662(10) 0.80(12) 0.481(2) 0
V2 V3+ 8 f 0.2803(5) 0.6650(3) 0.3662(10) 0.80(12) 0.478(2) 0
Na4 Na1+ 8 f 0.2803(5) 0.6650(3) 0.3662(10) 0.80(12) 0.041(5) 0
P1 P5+ 4 e 0 0.7136(10) 0.25 1.0(3) 1.00(2) 0
P2 P5+ 8 f 0.2331(8) 0.8908(5) 0.1200(16) 0.7(2) 1.00(3) 0
O1 O2- 8 f 0.4503(11) 0.7138(11) 0.534(2) 0.4(4) 1. 0
O2 O2- 8 f 0.1034(14) 0.6354(9) 0.254(2) 0.8(4) 1. 0
O3 O2- 8 f 0.3417(11) 0.6608(11) 0.111(2) 0.7(4) 1. 0
O4 O2- 8 f 0.1282(12) 0.3975(8) 0.3297(18) 0.4(4) 1. 0
O5 O2- 8 f 0.2219(12) 0.8256(9) 0.307(2) 0.5(4) 1. 0
O6 O2- 8 f 0.3287(8) 0.5007(11) 0.3861(15) 0.8(3) 1. 0
#End of TTdata_259677-ICSD