
#(C) 2019 by FIZ Karlsruhe - Leibniz Institute for Information Infrastructure.  All rights reserved.
data_260039-ICSD
_database_code_ICSD 260039
_audit_creation_date 2009-02-01
_chemical_name_systematic 'Sodium barium diiron(III) tris(phosphate(V))'
_chemical_formula_structural 'Na Ba Fe2 (P O4)3'
_chemical_formula_sum 'Ba1 Fe2 Na1 O12 P3'
_exptl_crystal_density_diffrn 3.94
_cell_measurement_temperature 293.
_publ_section_title
'Redetermination of the hexagonal struvite analogue Cs [Mg (O H2)6] (P O4)'
loop_
_citation_id
_citation_journal_full
_citation_year
_citation_journal_volume
_citation_page_first
_citation_page_last
_citation_journal_id_ASTM
primary 'Acta Crystallographica, Section E: Structure Reports Online' 2008 64
i50 i50 ACSEBH
loop_
_publ_author_name
'Weil, M.'
'Jerbi, H.'
'Ben Amara, M.'
_cell_length_a 9.7960(10)
_cell_length_b 9.7960(10)
_cell_length_c 9.7960(10)
_cell_angle_alpha 90.
_cell_angle_beta 90.
_cell_angle_gamma 90.
_cell_volume 940.04
_cell_formula_units_Z 4
_symmetry_space_group_name_H-M 'P 21 3'
_symmetry_Int_Tables_number 198
_refine_ls_R_factor_all 0.0248
loop_
_symmetry_equiv_pos_site_id
_symmetry_equiv_pos_as_xyz
1 '-z+1/2, -x, y+1/2'
2 '-y+1/2, -z, x+1/2'
3 '-x+1/2, -y, z+1/2'
4 '-z, x+1/2, -y+1/2'
5 '-y, z+1/2, -x+1/2'
6 '-x, y+1/2, -z+1/2'
7 'z+1/2, -x+1/2, -y'
8 'y+1/2, -z+1/2, -x'
9 'x+1/2, -y+1/2, -z'
10 'z, x, y'
11 'y, z, x'
12 'x, y, z'
loop_
_atom_type_symbol
_atom_type_oxidation_number
Na1+ 1
Ba2+ 2
Na1+ 1
Ba2+ 2
Fe3+ 3
P5+ 5
O2- -2
loop_
_atom_site_label
_atom_site_type_symbol
_atom_site_symmetry_multiplicity
_atom_site_Wyckoff_symbol
_atom_site_fract_x
_atom_site_fract_y
_atom_site_fract_z
_atom_site_B_iso_or_equiv
_atom_site_occupancy
_atom_site_attached_hydrogens
Na1 Na1+ 4 a 0.9427(12) 0.9427(12) 0.9427(12) 0.0144(3) 0.4738(16) 0
Ba1 Ba2+ 4 a 0.92953(9) 0.92953(9) 0.92953(9) 0.0144(3) 0.5262(16) 0
Na2 Na1+ 4 a 0.6862(8) 0.6862(8) 0.6862(8) 0.0232(4) 0.5262(16) 0
Ba2 Ba2+ 4 a 0.70555(8) 0.70555(8) 0.70555(8) 0.0232(4) 0.4738(16) 0
Fe1 Fe3+ 4 a 0.35313(6) 0.85313(6) 0.64687(6) 0.0104(2) 1 0
Fe2 Fe3+ 4 a 0.91362(6) 0.08638(6) 0.58638(6) 0.0101(2) 1 0
P1 P5+ 12 b 0.03742(10) 0.77099(11) 0.62578(10) 0.0068(2) 1 0
O1 O2- 12 b 0.9926(5) 0.9134(4) 0.6562(7) 0.0461(14) 1 0
O2 O2- 12 b 0.9463(5) 0.6999(6) 0.5243(5) 0.0440(13) 1 0
O3 O2- 12 b 0.1846(4) 0.7653(6) 0.5752(5) 0.0368(12) 1 0
O4 O2- 12 b 0.0112(7) 0.6985(10) 0.7629(8) 0.0389(18) 0.701(4) 0
O5 O2- 12 b 0.0527(17) 0.672(2) 0.738(2) 0.0389(18) 0.299(4) 0
loop_
_atom_site_aniso_label
_atom_site_aniso_type_symbol
_atom_site_aniso_U_11
_atom_site_aniso_U_22
_atom_site_aniso_U_33
_atom_site_aniso_U_12
_atom_site_aniso_U_13
_atom_site_aniso_U_23
Na1 Na1+ 0.0144(3) 0.0144(3) 0.0144(3) -0.0019(3) -0.0019(3) -0.0019(3)
Ba1 Ba2+ 0.0144(3) 0.0144(3) 0.0144(3) -0.0019(3) -0.0019(3) -0.0019(3)
Na2 Na1+ 0.0232(4) 0.0232(4) 0.0232(4) 0.0016(3) 0.0016(3) 0.0016(3)
Ba2 Ba2+ 0.0232(4) 0.0232(4) 0.0232(4) 0.0016(3) 0.0016(3) 0.0016(3)
Fe1 Fe3+ 0.0104(2) 0.0104(2) 0.0104(2) 0.0001(2) -0.0001(2) -0.0001(2)
Fe2 Fe3+ 0.0101(2) 0.0101(2) 0.0101(2) 0.0024(2) 0.0024(2) -0.0024(2)
P1 P5+ 0.0066(4) 0.0073(4) 0.0064(4) -0.0005(3) -0.0028(3) 0.0010(3)
O1 O2- 0.045(3) 0.0170(19) 0.076(4) 0.0191(19) -0.015(3) -0.015(2)
O2 O2- 0.029(2) 0.061(3) 0.042(3) 0.003(2) -0.025(2) -0.031(2)
O3 O2- 0.0120(16) 0.063(3) 0.035(2) -0.0091(18) 0.0085(16) -0.023(2)
O4 O2- 0.020(4) 0.066(5) 0.031(3) 0.020(3) 0.015(3) 0.040(3)
O5 O2- 0.020(4) 0.066(5) 0.031(3) 0.020(3) 0.015(3) 0.040(3)
#End of TTdata_260039-ICSD