
#(C) 2019 by FIZ Karlsruhe - Leibniz Institute for Information Infrastructure.  All rights reserved.
data_26006-ICSD
_database_code_ICSD 26006
_audit_creation_date 1980-01-01
_audit_update_record 1998-06-29
_chemical_name_systematic 'Sodium manganese iron phosphate (1/0.9/0.1/4)'
_chemical_formula_structural 'Na (Mn0.93 Fe0.07) (P O4)'
_chemical_formula_sum 'Fe0.07 Mn0.93 Na1 O4 P1'
_chemical_name_structure_type Olivine-Mg2SiO4
_chemical_name_mineral Natrophilite
_exptl_crystal_density_diffrn 3.47
_publ_section_title 'Natrophilite, Na Mn (P O4), has ordered cations'
loop_
_citation_id
_citation_journal_full
_citation_year
_citation_journal_volume
_citation_page_first
_citation_page_last
_citation_journal_id_ASTM
primary 'American Mineralogist' 1972 57 1333 1344 AMMIAY
loop_
_publ_author_name
'Moore, P.B.'
_cell_length_a 10.523(5)
_cell_length_b 4.987(2)
_cell_length_c 6.312(3)
_cell_angle_alpha 90.
_cell_angle_beta 90.
_cell_angle_gamma 90.
_cell_volume 331.24
_cell_formula_units_Z 4
_symmetry_space_group_name_H-M 'P n a m'
_symmetry_Int_Tables_number 62
_refine_ls_R_factor_all 0.055
loop_
_symmetry_equiv_pos_site_id
_symmetry_equiv_pos_as_xyz
1 'x+1/2, -y+1/2, z'
2 'x, y, -z+1/2'
3 '-x+1/2, y+1/2, z+1/2'
4 '-x, -y, -z'
5 '-x+1/2, y+1/2, -z'
6 '-x, -y, z+1/2'
7 'x+1/2, -y+1/2, -z+1/2'
8 'x, y, z'
loop_
_atom_type_symbol
_atom_type_oxidation_number
Na1+ 1
Mn2+ 2
Fe2+ 2
P5+ 5
O2- -2
loop_
_atom_site_label
_atom_site_type_symbol
_atom_site_symmetry_multiplicity
_atom_site_Wyckoff_symbol
_atom_site_fract_x
_atom_site_fract_y
_atom_site_fract_z
_atom_site_B_iso_or_equiv
_atom_site_occupancy
_atom_site_attached_hydrogens
Na1 Na1+ 4 a 0 0 0 1.18(4) 0.98(1) 0
Mn1 Mn2+ 4 c 0.28469(8) -.0065(2) 0.25 0.55(1) 0.93 0
Fe1 Fe2+ 4 c 0.28469(8) -.0065(2) 0.25 0.55(1) 0.07 0
P1 P5+ 4 c 0.1068(1) 0.4400(3) 0.25 0.47(2) 1. 0
O1 O2- 4 c 0.1131(4) 0.7471(9) 0.25 0.74(5) 1. 0
O2 O2- 4 c 0.4687(4) 0.1605(9) 0.25 0.74(5) 1. 0
O3 O2- 8 d 0.1755(3) 0.3114(6) 0.0568(5) 0.74(4) 1. 0
#End of TTdata_26006-ICSD