
#(C) 2019 by FIZ Karlsruhe - Leibniz Institute for Information Infrastructure.  All rights reserved.
data_260006-ICSD
_database_code_ICSD 260006
_audit_creation_date 2009-02-01
_chemical_name_systematic 'Trisodium strontium pentaborate'
_chemical_formula_structural 'Na3 Sr (B5 O10)'
_chemical_formula_sum 'B5 Na3 O10 Sr1'
_chemical_name_structure_type Na3SrB5O10
_exptl_crystal_density_diffrn 2.75
_cell_measurement_temperature 250.
_publ_section_title 'The new pentaborate Na3 Sr B5 O10'
loop_
_citation_id
_citation_journal_full
_citation_year
_citation_journal_volume
_citation_page_first
_citation_page_last
_citation_journal_id_ASTM
primary 'Acta Crystallographica, Section C: Crystal Structure Communications'
2008 64 i53 i56 ACSCEE
loop_
_publ_author_name
'Wu Li'
'Roth, G.'
'Sparta, K.'
'Chen Xiao Long'
_cell_length_a 7.279(2)
_cell_length_b 7.6010(10)
_cell_length_c 9.735(2)
_cell_angle_alpha 81.092(16)
_cell_angle_beta 70.565(15)
_cell_angle_gamma 61.668(14)
_cell_volume 447.08
_cell_formula_units_Z 2
_symmetry_space_group_name_H-M 'P -1'
_symmetry_Int_Tables_number 2
_refine_ls_R_factor_all 0.0583
loop_
_symmetry_equiv_pos_site_id
_symmetry_equiv_pos_as_xyz
1 '-x, -y, -z'
2 'x, y, z'
loop_
_atom_type_symbol
_atom_type_oxidation_number
Sr2+ 2
Na1+ 1
O2- -2
B3+ 3
loop_
_atom_site_label
_atom_site_type_symbol
_atom_site_symmetry_multiplicity
_atom_site_Wyckoff_symbol
_atom_site_fract_x
_atom_site_fract_y
_atom_site_fract_z
_atom_site_B_iso_or_equiv
_atom_site_occupancy
_atom_site_attached_hydrogens
Sr1 Sr2+ 2 i 0.21377(3) 0.94601(3) 0.77508(3) 0.00788(4) 1 0
Na1 Na1+ 2 i 0.27987(13) 0.01465(13) 0.11480(11) 0.0138(2) 1 0
Na2 Na1+ 2 i 0.84428(14) 0.50530(14) 0.16329(11) 0.0167(3) 1 0
Na3 Na1+ 2 i 0.20999(15) 0.27453(19) 0.45095(12) 0.0323(3) 1 0
O1 O2- 2 i 0.1678(2) 0.7515(2) 0.19046(17) 0.0104(4) 1 0
O2 O2- 2 i 0.6601(2) 0.8063(2) 0.3564(2) 0.0169(5) 1 0
O3 O2- 2 i 0.0130(2) 0.7946(2) 0.00001(18) 0.0106(4) 1 0
O4 O2- 2 i 0.1567(2) 0.6536(2) 0.43872(17) 0.0109(4) 1 0
O5 O2- 2 i 0.4070(2) 0.4138(2) 0.24946(18) 0.0107(4) 1 0
O6 O2- 2 i 0.4697(2) 0.6880(2) 0.27158(18) 0.0137(4) 1 0
O7 O2- 2 i 0.3165(2) 0.8224(2) 0.5118(2) 0.0171(5) 1 0
O8 O2- 2 i 0.5043(2) 0.1454(2) 0.10460(19) 0.0112(4) 1 0
O9 O2- 2 i 0.2353(2) 0.4693(2) 0.06457(18) 0.0128(4) 1 0
O10 O2- 2 i 0.0225(2) 0.7795(2) 0.68161(18) 0.0142(5) 1 0
B1 B3+ 2 i 0.3019(4) 0.6277(4) 0.2872(3) 0.0107(6) 1 0
B2 B3+ 2 i 0.3865(3) 0.3369(4) 0.1374(3) 0.0103(6) 1 0
B3 B3+ 2 i 0.4899(4) 0.7739(3) 0.3788(3) 0.0112(6) 1 0
B4 B3+ 2 i 0.1393(3) 0.6766(3) 0.0818(3) 0.0076(6) 1 0
B5 B3+ 2 i 0.1562(3) 0.7510(3) 0.5474(3) 0.0073(6) 1 0
loop_
_atom_site_aniso_label
_atom_site_aniso_type_symbol
_atom_site_aniso_U_11
_atom_site_aniso_U_22
_atom_site_aniso_U_33
_atom_site_aniso_U_12
_atom_site_aniso_U_13
_atom_site_aniso_U_23
Sr1 Sr2+ 0.00677(5) 0.00945(6) 0.00757(7) -0.00327(4) -0.00249(5) -0.00099(5)
Na1 Na1+ 0.0126(3) 0.0171(3) 0.0136(4) -0.0085(2) -0.0024(3) -0.0027(3)
Na2 Na1+ 0.0145(3) 0.0215(4) 0.0155(4) -0.0090(3) -0.0041(3) -0.0019(3)
Na3 Na1+ 0.0281(4) 0.0680(6) 0.0156(5) -0.0343(3) -0.0107(3) 0.0127(4)
O1 O2- 0.0126(5) 0.0114(6) 0.0082(7) -0.0043(4) -0.0058(5) -0.0009(5)
O2 O2- 0.0194(5) 0.0236(7) 0.0176(8) -0.0154(4) -0.0112(5) 0.0055(6)
O3 O2- 0.0116(5) 0.0124(6) 0.0094(7) -0.0048(4) -0.0054(5) -0.0012(5)
O4 O2- 0.0109(5) 0.0207(6) 0.0053(6) -0.0102(4) -0.0009(4) -0.0042(5)
O5 O2- 0.0125(5) 0.0054(6) 0.0135(7) -0.0008(4) -0.0069(5) -0.0023(5)
O6 O2- 0.0131(5) 0.0252(6) 0.0070(7) -0.0131(4) 0.0004(5) -0.0043(5)
O7 O2- 0.0161(5) 0.0271(7) 0.0131(8) -0.0154(4) 0.0002(5) -0.0044(6)
O8 O2- 0.0076(5) 0.0084(6) 0.0168(7) -0.0012(4) -0.0050(5) -0.0027(5)
O9 O2- 0.0211(6) 0.0090(6) 0.0112(7) -0.0052(4) -0.0096(5) -0.0028(5)
O10 O2- 0.0158(6) 0.0185(7) 0.0080(7) -0.0064(5) -0.0034(5) -0.0047(5)
B1 B3+ 0.0110(8) 0.0087(8) 0.0126(10) -0.0027(6) -0.0044(7) -0.0042(8)
B2 B3+ 0.0095(7) 0.0139(9) 0.0088(10) -0.0065(6) -0.0026(7) 0.0000(8)
B3 B3+ 0.0198(8) 0.0083(8) 0.0070(10) -0.0095(6) -0.0024(8) 0.0027(8)
B4 B3+ 0.0060(7) 0.0110(8) 0.0058(10) -0.0038(6) -0.0020(7) 0.0009(7)
B5 B3+ 0.0042(6) 0.0089(8) 0.0113(10) -0.0026(6) -0.0045(6) -0.0028(7)
#End of TTdata_260006-ICSD