
#(C) 2019 by FIZ Karlsruhe - Leibniz Institute for Information Infrastructure.  All rights reserved.
data_26014-ICSD
_database_code_ICSD 26014
_audit_creation_date 1980-12-31
_audit_update_record 2015-08-01
_chemical_name_systematic 'Tripotassium sodium disulfate(VI)'
_chemical_formula_structural 'K3 Na (S O4)2'
_chemical_formula_sum 'K3 Na1 O8 S2'
_chemical_name_structure_type K3Na(SO4)2
_chemical_name_mineral Aphthitalite
_exptl_crystal_density_diffrn 2.69
_publ_section_title
'Structures of potassium sodium sulphate and tripotassium sodium disulphate'
loop_
_citation_id
_citation_journal_full
_citation_year
_citation_journal_volume
_citation_page_first
_citation_page_last
_citation_journal_id_ASTM
primary

;
Acta Crystallographica, Section B: Structural Crystallography and Crystal
Chemistry
; 1980 36 919 921 ACBCAR
loop_
_publ_author_name
'Okada, K.'
'Ossaka, J.'
_cell_length_a 5.677(1)
_cell_length_b 5.677(1)
_cell_length_c 7.333(1)
_cell_angle_alpha 90.
_cell_angle_beta 90.
_cell_angle_gamma 120.
_cell_volume 204.66
_cell_formula_units_Z 1
_symmetry_space_group_name_H-M 'P -3 m 1'
_symmetry_Int_Tables_number 164
_refine_ls_R_factor_all 0.042
loop_
_symmetry_equiv_pos_site_id
_symmetry_equiv_pos_as_xyz
1 'x-y, -y, -z'
2 '-x, -x+y, -z'
3 'y, x, -z'
4 'x-y, x, -z'
5 'y, -x+y, -z'
6 '-x, -y, -z'
7 '-x+y, y, z'
8 'x, x-y, z'
9 '-y, -x, z'
10 '-x+y, -x, z'
11 '-y, x-y, z'
12 'x, y, z'
loop_
_atom_type_symbol
_atom_type_oxidation_number
K1+ 1
Na1+ 1
K1+ 1
S6+ 6
O2- -2
loop_
_atom_site_label
_atom_site_type_symbol
_atom_site_symmetry_multiplicity
_atom_site_Wyckoff_symbol
_atom_site_fract_x
_atom_site_fract_y
_atom_site_fract_z
_atom_site_B_iso_or_equiv
_atom_site_occupancy
_atom_site_attached_hydrogens
K1 K1+ 1 a 0 0 0 . 1. 0
Na1 Na1+ 1 b 0 0 0.5 . 1. 0
K2 K1+ 2 d 0.6667 0.3333 0.689(2) . 1. 0
S1 S6+ 2 d 0.6667 0.3333 0.234(1) . 1. 0
O1 O2- 2 d 0.6667 0.3333 0.026(2) . 1. 0
O2 O2- 6 i 0.803(1) -.803 0.314(2) . 1. 0
loop_
_atom_site_aniso_label
_atom_site_aniso_type_symbol
_atom_site_aniso_U_11
_atom_site_aniso_U_22
_atom_site_aniso_U_33
_atom_site_aniso_U_12
_atom_site_aniso_U_13
_atom_site_aniso_U_23
K1 K1+ 0.0439(7) 0.0439 0.0191(6) 0.022 0 0
Na1 Na1+ 0.0162(7) 0.0162 0.0267(16) 0.0081 0 0
K2 K1+ 0.0087(15) 0.0087 0.0104(27) 0.0043 0 0
S1 S6+ 0.0133(11) 0.0133 0.0237(20) 0.0067 0 0
O1 O2- 0.0434(46) 0.0434 0.0096(33) 0.0217 0 0
O2 O2- 0.0589(55) 0.0589 0.0802(76) 0.0447(59) -.0172(23) 0.0172
#End of TTdata_26014-ICSD