
#(C) 2019 by FIZ Karlsruhe - Leibniz Institute for Information Infrastructure.  All rights reserved.
data_260266-ICSD
_database_code_ICSD 260266
_audit_creation_date 2009-08-01
_chemical_name_systematic
'Sodium holmium orthosilicate oxide (2.27/7.73/6/0.72)'
_chemical_formula_structural 'Na2.27 Ho7.73 (Si O4)6 O0.72'
_chemical_formula_sum 'Ho7.73 Na2.27 O24.72 Si6'
_chemical_name_structure_type Apatite#-(HE,P63/m)
_exptl_crystal_density_diffrn 6.14
_cell_measurement_temperature 295.
_publ_section_title 'A synchrotron study of Na2.27 Ho7.73 (SiO4)6 O0.72'
loop_
_citation_id
_citation_journal_full
_citation_year
_citation_journal_volume
_citation_page_first
_citation_page_last
_citation_journal_id_ASTM
primary 'Acta Crystallographica, Section E: Structure Reports Online' 2009 65
i33 i33 ACSEBH
loop_
_publ_author_name
'Rosales, I.'
'Orozco, E.'
'Bucio, L.'
'Fuentes, M.E.'
'Fuentes, L.'
_cell_length_a 9.34050(10)
_cell_length_b 9.34050(10)
_cell_length_c 6.76380(10)
_cell_angle_alpha 90
_cell_angle_beta 90
_cell_angle_gamma 120
_cell_volume 511.05
_cell_formula_units_Z 1
_symmetry_space_group_name_H-M 'P 63/m'
_symmetry_Int_Tables_number 176
_refine_ls_R_factor_all 0.1
loop_
_symmetry_equiv_pos_site_id
_symmetry_equiv_pos_as_xyz
1 '-x+y, -x, -z+1/2'
2 '-y, x-y, -z+1/2'
3 'x, y, -z+1/2'
4 'x-y, x, -z'
5 'y, -x+y, -z'
6 '-x, -y, -z'
7 'x-y, x, z+1/2'
8 'y, -x+y, z+1/2'
9 '-x, -y, z+1/2'
10 '-x+y, -x, z'
11 '-y, x-y, z'
12 'x, y, z'
loop_
_atom_type_symbol
_atom_type_oxidation_number
Ho3+ 3
Na1+ 1
Ho3+ 3
Na1+ 1
Si4+ 4
O2- -2
loop_
_atom_site_label
_atom_site_type_symbol
_atom_site_symmetry_multiplicity
_atom_site_Wyckoff_symbol
_atom_site_fract_x
_atom_site_fract_y
_atom_site_fract_z
_atom_site_B_iso_or_equiv
_atom_site_occupancy
_atom_site_attached_hydrogens
Ho1 Ho3+ 6 h 0.2373(2) 0.0042(3) 0.25 0.0014(4) 0.875(2) 0
Na1 Na1+ 6 h 0.2373(2) 0.0042(3) 0.25 0.0014(4) 0.125(2) 0
Ho2 Ho3+ 4 f 0.3333 0.6666 -0.0028(9) 0.0013(8) 0.620(2) 0
Na2 Na1+ 4 f 0.3333 0.6666 -0.0028(9) 0.0013(8) 0.380(2) 0
Si1 Si4+ 6 h 0.3680(10) 0.3970(10) 0.25 0.014(3) 1. 0
O1 O2- 12 i 0.2460(10) 0.3340(10) 0.444(2) 0.030(4) 1. 0
O2 O2- 6 h 0.490(2) 0.312(2) 0.25 0.030(4) 1. 0
O3 O2- 6 h 0.523(2) 0.403(2) 0.75 0.030(4) 1. 0
O4 O2- 2 a 0. 0. 0.25 0.030(4) 0.358 0
#End of TTdata_260266-ICSD