
#(C) 2019 by FIZ Karlsruhe - Leibniz Institute for Information Infrastructure.  All rights reserved.
data_260210-ICSD
_database_code_ICSD 260210
_audit_creation_date 2009-08-01
_chemical_name_systematic 'Tetrasodium diiron tris(phosphate)'
_chemical_formula_structural 'Na4 Fe2 (P O4)3'
_chemical_formula_sum 'Fe2 Na4 O12 P3'
_chemical_name_structure_type Na4Zr2(SiO4)3
_exptl_crystal_density_diffrn 3.29
_cell_measurement_temperature 293.
_publ_section_title
'Na4 Fe2+ Fe3+ (P O4)3, a new synthetic NASICON-type phosphate'
loop_
_citation_id
_citation_journal_full
_citation_year
_citation_journal_volume
_citation_page_first
_citation_page_last
_citation_journal_id_ASTM
primary 'Acta Crystallographica, Section E: Structure Reports Online' 2009 65
i30 i30 ACSEBH
loop_
_publ_author_name
'Hatert, F.'
_cell_length_a 8.9543(9)
_cell_length_b 8.9543(9)
_cell_length_c 21.280(4)
_cell_angle_alpha 90.
_cell_angle_beta 90.
_cell_angle_gamma 120.
_cell_volume 1477.63
_cell_formula_units_Z 6
_symmetry_space_group_name_H-M 'R -3 c H'
_symmetry_Int_Tables_number 167
_refine_ls_R_factor_all 0.0523
loop_
_symmetry_equiv_pos_site_id
_symmetry_equiv_pos_as_xyz
1 'x-y, -y, -z+1/2'
2 '-x, -x+y, -z+1/2'
3 'y, x, -z+1/2'
4 'x-y, x, -z'
5 'y, -x+y, -z'
6 '-x, -y, -z'
7 '-x+y, y, z+1/2'
8 'x, x-y, z+1/2'
9 '-y, -x, z+1/2'
10 '-x+y, -x, z'
11 '-y, x-y, z'
12 'x, y, z'
13 'x-y+2/3, -y+1/3, -z+5/6'
14 '-x+2/3, -x+y+1/3, -z+5/6'
15 'y+2/3, x+1/3, -z+5/6'
16 'x-y+2/3, x+1/3, -z+1/3'
17 'y+2/3, -x+y+1/3, -z+1/3'
18 '-x+2/3, -y+1/3, -z+1/3'
19 '-x+y+2/3, y+1/3, z+5/6'
20 'x+2/3, x-y+1/3, z+5/6'
21 '-y+2/3, -x+1/3, z+5/6'
22 '-x+y+2/3, -x+1/3, z+1/3'
23 '-y+2/3, x-y+1/3, z+1/3'
24 'x+2/3, y+1/3, z+1/3'
25 'x-y+1/3, -y+2/3, -z+1/6'
26 '-x+1/3, -x+y+2/3, -z+1/6'
27 'y+1/3, x+2/3, -z+1/6'
28 'x-y+1/3, x+2/3, -z+2/3'
29 'y+1/3, -x+y+2/3, -z+2/3'
30 '-x+1/3, -y+2/3, -z+2/3'
31 '-x+y+1/3, y+2/3, z+1/6'
32 'x+1/3, x-y+2/3, z+1/6'
33 '-y+1/3, -x+2/3, z+1/6'
34 '-x+y+1/3, -x+2/3, z+2/3'
35 '-y+1/3, x-y+2/3, z+2/3'
36 'x+1/3, y+2/3, z+2/3'
loop_
_atom_type_symbol
_atom_type_oxidation_number
Fe2+ 2.5
P5+ 5
Na1+ 1
O2- -2
loop_
_atom_site_label
_atom_site_type_symbol
_atom_site_symmetry_multiplicity
_atom_site_Wyckoff_symbol
_atom_site_fract_x
_atom_site_fract_y
_atom_site_fract_z
_atom_site_B_iso_or_equiv
_atom_site_occupancy
_atom_site_attached_hydrogens
Fe1 Fe2+ 12 c 0. 0. 0.14926(9) 0.0082(8) 1 0
P1 P5+ 18 e -0.3333 -0.3672(3) 0.0833 0.0080(9) 1 0
Na1 Na1+ 6 b 0. 0. 0. 0.0129(17) 1 0
Na2 Na1+ 18 e -0.3333 -0.0278(7) 0.0833 0.0262(13) 1 0
O1 O2- 36 f 0.1950(8) 0.2066(9) 0.1913(3) 0.0213(15) 1 0
O2 O2- 36 f 0.1869(8) 0.0152(7) 0.0838(3) 0.0135(14) 1 0
loop_
_atom_site_aniso_label
_atom_site_aniso_type_symbol
_atom_site_aniso_U_11
_atom_site_aniso_U_22
_atom_site_aniso_U_33
_atom_site_aniso_U_12
_atom_site_aniso_U_13
_atom_site_aniso_U_23
Fe1 Fe2+ 0.0070(8) 0.0070(8) 0.0105(11) 0.0035(4) 0. 0.
P1 P5+ 0.0041(15) 0.0109(12) 0.0065(14) 0.0021(7) 0.0000(10) 0.0000(5)
Na1 Na1+ 0.009(2) 0.009(2) 0.020(4) 0.0047(12) 0. 0.
Na2 Na1+ 0.013(3) 0.029(2) 0.031(3) 0.0065(13) -0.001(2) -0.0005(11)
O1 O2- 0.015(3) 0.032(4) 0.013(3) 0.008(3) -0.006(2) -0.008(3)
O2 O2- 0.012(3) 0.019(3) 0.012(3) 0.010(3) -0.004(2) -0.006(2)
#End of TTdata_260210-ICSD