
#(C) 2019 by FIZ Karlsruhe - Leibniz Institute for Information Infrastructure.  All rights reserved.
data_260447-ICSD
_database_code_ICSD 260447
_audit_creation_date 2010-02-01
_chemical_name_systematic 'Sodium manganese phosphate (14.11/45.31/36)'
_chemical_formula_structural 'Na14.11 Mn45.31 (P O4)36'
_chemical_formula_sum 'Mn45.31 Na14.11 O144 P36'
_exptl_crystal_density_diffrn 3.5
_cell_measurement_temperature 293.
_publ_section_title
'Na10 (Na, Mn)7 Mn43 (P O4)36: a new synthetic fillowite-type phosphate'
loop_
_citation_id
_citation_journal_full
_citation_year
_citation_journal_volume
_citation_page_first
_citation_page_last
_citation_journal_id_ASTM
primary 'Acta Crystallographica, Section C: Crystal Structure Communications'
2009 65 i52 i53 ACSCEE
loop_
_publ_author_name
'Hatert, F.'
'Keller, P.'
'Lissner, F.'
'Schleid, T.'
_cell_length_a 15.3053(7)
_cell_length_b 15.3053(7)
_cell_length_c 43.672(3)
_cell_angle_alpha 90.
_cell_angle_beta 90.
_cell_angle_gamma 120.
_cell_volume 8859.67
_cell_formula_units_Z 3
_symmetry_space_group_name_H-M 'R -3 H'
_symmetry_Int_Tables_number 148
_refine_ls_R_factor_all 0.0384
loop_
_symmetry_equiv_pos_site_id
_symmetry_equiv_pos_as_xyz
1 'x-y, x, -z'
2 'y, -x+y, -z'
3 '-x, -y, -z'
4 '-x+y, -x, z'
5 '-y, x-y, z'
6 'x, y, z'
7 'x-y+2/3, x+1/3, -z+1/3'
8 'y+2/3, -x+y+1/3, -z+1/3'
9 '-x+2/3, -y+1/3, -z+1/3'
10 '-x+y+2/3, -x+1/3, z+1/3'
11 '-y+2/3, x-y+1/3, z+1/3'
12 'x+2/3, y+1/3, z+1/3'
13 'x-y+1/3, x+2/3, -z+2/3'
14 'y+1/3, -x+y+2/3, -z+2/3'
15 '-x+1/3, -y+2/3, -z+2/3'
16 '-x+y+1/3, -x+2/3, z+2/3'
17 '-y+1/3, x-y+2/3, z+2/3'
18 'x+1/3, y+2/3, z+2/3'
loop_
_atom_type_symbol
_atom_type_oxidation_number
Mn2+ 2.1
Na1+ 1
Mn2+ 2.1
Na1+ 1
Mn2+ 2.1
Na1+ 1
Mn2+ 2.1
Na1+ 1
Mn2+ 2.1
P5+ 5
O2- -2
loop_
_atom_site_label
_atom_site_type_symbol
_atom_site_symmetry_multiplicity
_atom_site_Wyckoff_symbol
_atom_site_fract_x
_atom_site_fract_y
_atom_site_fract_z
_atom_site_B_iso_or_equiv
_atom_site_occupancy
_atom_site_attached_hydrogens
Mn1 Mn2+ 3 a 0. 0. 0. 0.0132(3) 1 0
Mn2 Mn2+ 3 b 0. 0. 0.5 0.0073(5) 0.666(14) 0
Na1 Na1+ 3 b 0. 0. 0.5 0.0073(5) 0.33(2) 0
Mn3 Mn2+ 6 c 0. 0. 0.10168(2) 0.0117(3) 0.894(5) 0
Na2 Na1+ 6 c 0. 0. 0.32551(5) 0.0182(9) 0.977(12) 0
Mn4 Mn2+ 6 c 0. 0. 0.399240(19) 0.0114(3) 1 0
Mn5 Mn2+ 18 f 0.41464(4) 0.24021(4) 0.041998(12) 0.01529(18) 0.985(3) 0
Mn6 Mn2+ 18 f 0.11118(4) 0.55297(4) 0.032559(12) 0.01414(12) 1 0
Mn7 Mn2+ 18 f 0.01293(4) 0.34372(4) 0.084704(11) 0.01103(17) 0.988(3) 0
Mn8 Mn2+ 18 f 0.26644(4) 0.33550(4) 0.080936(11) 0.01249(11) 1 0
Mn9 Mn2+ 18 f 0.58341(4) 0.09693(4) 0.114869(11) 0.01373(12) 1 0
Mn10 Mn2+ 18 f 0.22225(4) 0.12632(4) 0.128884(11) 0.01476(12) 1 0
Na3 Na1+ 18 f 0.23963(14) 0.25453(15) -0.00158(3) 0.0287(6) 0.982(8) 0
Mn11 Mn2+ 6 c 0. 0. 0.175181(19) 0.0104(3) 0.982(5) 0
Na4 Na1+ 6 c 0. 0. 0.25154(6) 0.0254(10) 1 0
Na5 Na1+ 18 f 0.04168(7) 0.40027(7) 0.167575(19) 0.0156(4) 0.654(19) 0
Mn12 Mn2+ 18 f 0.04168(7) 0.40027(7) 0.167575(19) 0.0156(4) 0.343(10) 0
P1 P5+ 18 f 0.21534(7) 0.42413(7) 0.032984(18) 0.01158(17) 1 0
P2 P5+ 18 f 0.54439(7) 0.11516(7) 0.042957(18) 0.01174(17) 1 0
P3 P5+ 18 f 0.57651(6) 0.10079(6) 0.194289(17) 0.00983(16) 1 0
P4 P5+ 18 f 0.21817(7) 0.13357(7) 0.205284(18) 0.01145(17) 1 0
P5 P5+ 18 f 0.21507(7) 0.46676(7) 0.221110(19) 0.01215(17) 1 0
P6 P5+ 18 f 0.46069(7) 0.22580(7) 0.277653(18) 0.01057(17) 1 0
O1 O2- 18 f 0.15670(19) 0.37187(19) 0.06266(5) 0.0158(5) 1 0
O2 O2- 18 f 0.24058(19) 0.53569(19) 0.03131(5) 0.0151(5) 1 0
O3 O2- 18 f 0.31566(19) 0.42224(19) 0.03514(5) 0.0156(5) 1 0
O4 O2- 18 f 0.1569(2) 0.36389(19) 0.00474(5) 0.0172(5) 1 0
O5 O2- 18 f 0.5309(2) 0.2075(2) 0.04025(6) 0.0200(5) 1 0
O6 O2- 18 f 0.44463(19) 0.01620(19) 0.05071(5) 0.0164(5) 1 0
O7 O2- 18 f 0.62536(19) 0.1363(2) 0.06798(5) 0.0179(5) 1 0
O8 O2- 18 f 0.5881(2) 0.0987(2) 0.01343(6) 0.0223(6) 1 0
O9 O2- 18 f 0.55137(19) 0.04753(19) 0.16284(5) 0.0154(5) 1 0
O10 O2- 18 f 0.6307(2) 0.21737(19) 0.19194(5) 0.0188(5) 1 0
O11 O2- 18 f 0.47581(19) 0.0648(2) 0.21135(5) 0.0183(5) 1 0
O12 O2- 18 f 0.6512(2) 0.0768(2) 0.21043(5) 0.0174(5) 1 0
O13 O2- 18 f 0.2422(2) 0.1795(2) 0.17271(5) 0.0203(6) 1 0
O14 O2- 18 f 0.11774(19) 0.03031(19) 0.20529(6) 0.0166(5) 1 0
O15 O2- 18 f 0.20571(19) 0.20733(19) 0.22631(5) 0.0169(5) 1 0
O16 O2- 18 f 0.29861(19) 0.1100(2) 0.21733(5) 0.0175(5) 1 0
O17 O2- 18 f 0.2149(2) 0.5274(2) 0.19344(6) 0.0267(6) 1 0
O18 O2- 18 f 0.10094(19) 0.37984(19) 0.22550(6) 0.0176(5) 1 0
O19 O2- 18 f 0.2781(2) 0.4157(2) 0.21565(5) 0.0185(5) 1 0
O20 O2- 18 f 0.2453(2) 0.5246(2) 0.25158(6) 0.0203(6) 1 0
O21 O2- 18 f 0.51961(19) 0.25361(19) 0.24695(5) 0.0165(5) 1 0
O22 O2- 18 f 0.40176(19) 0.10755(19) 0.28036(5) 0.0150(5) 1 0
O23 O2- 18 f 0.37551(19) 0.2531(2) 0.27714(5) 0.0158(5) 1 0
O24 O2- 18 f 0.5276(2) 0.2723(2) 0.30529(6) 0.0207(6) 1 0
loop_
_atom_site_aniso_label
_atom_site_aniso_type_symbol
_atom_site_aniso_U_11
_atom_site_aniso_U_22
_atom_site_aniso_U_33
_atom_site_aniso_U_12
_atom_site_aniso_U_13
_atom_site_aniso_U_23
Mn1 Mn2+ 0.0138(4) 0.0138(4) 0.0120(5) 0.00691(19) 0. 0.
Mn2 Mn2+ 0.0077(6) 0.0077(6) 0.0065(7) 0.0038(3) 0. 0.
Na1 Na1+ 0.0077(6) 0.0077(6) 0.0065(7) 0.0038(3) 0. 0.
Mn3 Mn2+ 0.0112(4) 0.0112(4) 0.0127(5) 0.0056(2) 0. 0.
Na2 Na1+ 0.0217(12) 0.0217(12) 0.0113(12) 0.0109(6) 0. 0.
Mn4 Mn2+ 0.0107(3) 0.0107(3) 0.0128(4) 0.00535(17) 0. 0.
Mn5 Mn2+ 0.0104(3) 0.0161(3) 0.0183(3) 0.0058(2) -0.0018(2) -0.0050(2)
Mn6 Mn2+ 0.0143(3) 0.0119(3) 0.0173(2) 0.0073(2) 0.00447(19) 0.00245(19)
Mn7 Mn2+ 0.0125(3) 0.0115(3) 0.0095(2) 0.0064(2) -0.00028(18) 0.00049(18)
Mn8 Mn2+ 0.0140(3) 0.0136(3) 0.0095(2) 0.0067(2) 0.00015(18) -0.00024(18)
Mn9 Mn2+ 0.0189(3) 0.0117(3) 0.0108(2) 0.0077(2) 0.00066(19) 0.00040(18)
Mn10 Mn2+ 0.0149(3) 0.0147(3) 0.0101(2) 0.0040(2) -0.00056(19) -0.00158(18)
Na3 Na1+ 0.0387(12) 0.0451(12) 0.0186(8) 0.0332(10) -0.0062(7) -0.0040(7)
Mn11 Mn2+ 0.0114(4) 0.0114(4) 0.0085(4) 0.00569(18) 0. 0.
Na4 Na1+ 0.0295(13) 0.0295(13) 0.0173(14) 0.0148(6) 0. 0.
Na5 Na1+ 0.0215(6) 0.0232(6) 0.0104(5) 0.0175(5) 0.0018(3) 0.0019(3)
Mn12 Mn2+ 0.0215(6) 0.0232(6) 0.0104(5) 0.0175(5) 0.0018(3) 0.0019(3)
P1 P5+ 0.0119(4) 0.0113(4) 0.0110(3) 0.0054(3) 0.0000(3) -0.0002(3)
P2 P5+ 0.0110(4) 0.0123(4) 0.0112(4) 0.0053(3) 0.0010(3) 0.0020(3)
P3 P5+ 0.0108(4) 0.0108(4) 0.0083(3) 0.0058(3) -0.0002(3) 0.0002(3)
P4 P5+ 0.0112(4) 0.0140(4) 0.0097(3) 0.0067(4) -0.0007(3) -0.0010(3)
P5 P5+ 0.0136(4) 0.0113(4) 0.0116(4) 0.0062(3) 0.0008(3) -0.0007(3)
P6 P5+ 0.0117(4) 0.0119(4) 0.0081(3) 0.0059(3) 0.0008(3) 0.0005(3)
O1 O2- 0.0152(12) 0.0168(13) 0.0141(11) 0.0071(11) 0.0029(9) 0.0033(9)
O2 O2- 0.0171(13) 0.0131(12) 0.0148(11) 0.0074(11) -0.0023(9) -0.0005(9)
O3 O2- 0.0141(12) 0.0163(13) 0.0180(11) 0.0089(11) -0.0007(9) 0.0008(9)
O4 O2- 0.0205(14) 0.0157(13) 0.0147(11) 0.0087(11) -0.0034(10) -0.0022(9)
O5 O2- 0.0204(14) 0.0152(13) 0.0262(13) 0.0103(12) 0.0031(11) 0.0058(10)
O6 O2- 0.0151(12) 0.0136(12) 0.0179(11) 0.0051(10) 0.0040(9) 0.0003(9)
O7 O2- 0.0139(12) 0.0240(14) 0.0155(11) 0.0093(11) 0.0003(9) 0.0026(10)
O8 O2- 0.0210(14) 0.0340(16) 0.0154(12) 0.0165(13) 0.0059(10) 0.0045(11)
O9 O2- 0.0190(13) 0.0153(12) 0.0117(10) 0.0084(11) -0.0011(9) -0.0018(9)
O10 O2- 0.0280(15) 0.0124(12) 0.0137(11) 0.0084(11) -0.0003(10) -0.0004(9)
O11 O2- 0.0129(12) 0.0271(15) 0.0140(11) 0.0094(11) 0.0022(9) 0.0022(10)
O12 O2- 0.0178(13) 0.0198(13) 0.0181(11) 0.0120(11) -0.0018(10) 0.0035(10)
O13 O2- 0.0229(14) 0.0293(15) 0.0131(11) 0.0162(13) 0.0008(10) 0.0019(10)
O14 O2- 0.0131(12) 0.0155(13) 0.0196(12) 0.0059(11) -0.0031(9) -0.0003(10)
O15 O2- 0.0144(13) 0.0177(13) 0.0175(11) 0.0070(11) 0.0018(9) -0.0047(10)
O16 O2- 0.0139(12) 0.0210(14) 0.0190(12) 0.0097(11) 0.0010(10) 0.0053(10)
O17 O2- 0.0294(16) 0.0307(17) 0.0278(14) 0.0209(14) 0.0093(12) 0.0144(12)
O18 O2- 0.0148(13) 0.0157(13) 0.0192(12) 0.0053(11) 0.0008(10) -0.0007(10)
O19 O2- 0.0230(14) 0.0231(14) 0.0151(11) 0.0159(12) -0.0024(10) -0.0040(10)
O20 O2- 0.0206(14) 0.0166(13) 0.0196(12) 0.0062(11) 0.0027(10) -0.0068(10)
O21 O2- 0.0143(13) 0.0198(13) 0.0146(11) 0.0078(11) 0.0012(9) 0.0012(9)
O22 O2- 0.0167(13) 0.0138(12) 0.0150(11) 0.0079(11) 0.0045(9) 0.0023(9)
O23 O2- 0.0163(13) 0.0186(13) 0.0142(11) 0.0100(11) 0.0007(9) 0.0003(9)
O24 O2- 0.0182(14) 0.0277(15) 0.0137(11) 0.0096(12) -0.0040(10) -0.0045(10)
#End of TTdata_260447-ICSD