
#(C) 2019 by FIZ Karlsruhe - Leibniz Institute for Information Infrastructure.  All rights reserved.
data_260475-ICSD
_database_code_ICSD 260475
_audit_creation_date 2010-02-01
_audit_update_record 2019-02-01
_chemical_name_systematic 'Tetrasodium hexaselenodiphosphate hexahydrate'
_chemical_formula_structural 'Na4 (P2 Se6) (H2 O)6'
_chemical_formula_sum 'H12 Na4 O6 P2 Se6'
_chemical_name_structure_type Na4P2Se6(H2O)6
_exptl_crystal_density_diffrn 2.73
_cell_measurement_temperature 100.
_publ_section_title
'Hydrated alkali metal and ammonium salts of the [P2 Se6]4- anion'
loop_
_citation_id
_citation_journal_full
_citation_year
_citation_journal_volume
_citation_page_first
_citation_page_last
_citation_journal_id_ASTM
primary 'Zeitschrift fuer Anorganische und Allgemeine Chemie (1950) (DE)' 2009
635 1374 1379 ZAACAB
loop_
_publ_author_name
'Rothenberger, A.'
'Malliakas, C.D.'
'Kanatzidis, M.G.'
_cell_length_a 26.0636(8)
_cell_length_b 7.2350(2)
_cell_length_c 20.7197(6)
_cell_angle_alpha 90.
_cell_angle_beta 113.387(2)
_cell_angle_gamma 90.
_cell_volume 3586.13
_cell_formula_units_Z 8
_symmetry_space_group_name_H-M 'P 1 21/c 1'
_symmetry_Int_Tables_number 14
_refine_ls_R_factor_all 0.0573
loop_
_symmetry_equiv_pos_site_id
_symmetry_equiv_pos_as_xyz
1 'x, -y+1/2, z+1/2'
2 '-x, -y, -z'
3 '-x, y+1/2, -z+1/2'
4 'x, y, z'
loop_
_atom_type_symbol
_atom_type_oxidation_number
Se2- -2
P4+ 4
Na1+ 1
O2- -2
H1+ 1
O2- -2
H1+ 1
O2- -2
H1+ 1
O2- -2
H1+ 1
O2- -2
H1+ 1
O2- -2
H1+ 1
O2- -2
H1+ 1
O2- -2
H1+ 1
O2- -2
H1+ 1
O2- -2
H1+ 1
O2- -2
H1+ 1
O2- -2
H1+ 1
loop_
_atom_site_label
_atom_site_type_symbol
_atom_site_symmetry_multiplicity
_atom_site_Wyckoff_symbol
_atom_site_fract_x
_atom_site_fract_y
_atom_site_fract_z
_atom_site_B_iso_or_equiv
_atom_site_occupancy
_atom_site_attached_hydrogens
Se1 Se2- 4 e 0.06032(5) -0.52165(14) -0.08775(6) 0.0101(3) 1 0
Se2 Se2- 4 e 0.17548(5) -0.21845(14) 0.02313(6) 0.0108(3) 1 0
Se3 Se2- 4 e 0.04665(5) -0.02451(15) -0.10633(6) 0.0101(3) 1 0
Se4 Se2- 4 e 0.19824(5) -0.50388(15) -0.13205(6) 0.0094(3) 1 0
Se5 Se2- 4 e 0.18722(5) -0.00283(15) -0.14348(6) 0.0093(3) 1 0
Se6 Se2- 4 e 0.07460(4) -0.29046(14) -0.25922(6) 0.0089(3) 1 0
Se7 Se2- 4 e 0.32469(5) 0.24045(16) 0.34800(6) 0.0103(3) 1 0
Se8 Se2- 4 e 0.45333(5) 0.05072(14) 0.34514(6) 0.0100(3) 1 0
Se9 Se2- 4 e 0.43987(5) 0.54743(14) 0.35547(6) 0.0099(3) 1 0
Se10 Se2- 4 e 0.30744(5) 0.05441(14) 0.16472(6) 0.0087(3) 1 0
Se11 Se2- 4 e 0.42582(5) 0.32061(15) 0.16683(6) 0.0100(3) 1 0
Se12 Se2- 4 e 0.30768(5) 0.55649(14) 0.17633(6) 0.0098(3) 1 0
P1 P4+ 4 e 0.10458(12) -0.2585(4) -0.07497(16) 0.0083(6) 1 0
P2 P4+ 4 e 0.14295(12) -0.2657(4) -0.15541(16) 0.0081(6) 1 0
P3 P4+ 4 e 0.39594(12) 0.2850(4) 0.32085(16) 0.0076(6) 1 0
P4 P4+ 4 e 0.35741(12) 0.3053(4) 0.20264(16) 0.0081(6) 1 0
Na1 Na1+ 4 e -0.0210(2) -0.4281(6) -0.2329(3) 0.0164(10) 1 0
Na2 Na1+ 4 e 0.13072(19) -0.2172(6) 0.1368(3) 0.0137(10) 1 0
Na3 Na1+ 4 e 0.13149(18) 0.2814(6) 0.1367(3) 0.0124(10) 1 0
Na4 Na1+ 4 e 0.15050(19) 0.2062(6) -0.0496(3) 0.0146(10) 1 0
Na5 Na1+ 4 e 0.4795(2) -0.0386(6) 0.2103(3) 0.0165(11) 1 0
Na6 Na1+ 4 e 0.34910(19) 0.8288(6) 0.2993(3) 0.0133(10) 1 0
Na7 Na1+ 4 e 0.36888(19) 0.2128(6) 0.5061(2) 0.0128(10) 1 0
Na8 Na1+ 4 e 0.3678(2) 0.7136(6) 0.5044(3) 0.0144(11) 1 0
O1 O2- 4 e -0.0923(3) -0.2497(11) -0.2256(5) 0.0129(17) 1 0
H1 H1+ 4 e -0.1242 -0.2625 -0.2716 0.016 1 0
H2 H1+ 4 e -0.0795 -0.1199 -0.2227 0.016 1 0
O2 O2- 4 e 0.1918(3) 0.0303(11) 0.1993(5) 0.0130(18) 1 0
H3 H1+ 4 e 0.2275 0.0293 0.1932 0.016 1 0
H4 H1+ 4 e 0.1991 0.0304 0.25 0.016 1 0
O3 O2- 4 e 0.1867(3) 0.3153(11) 0.0649(4) 0.0148(18) 1 0
H5 H1+ 4 e 0.1947 0.4485 0.0633 0.018 1 0
H6 H1+ 4 e 0.223 0.2528 0.0902 0.018 1 0
O4 O2- 4 e 0.0705(3) 0.0398(11) 0.0722(5) 0.0147(18) 1 0
H7 H1+ 4 e 0.0641 0.0406 0.0218 0.018 1 0
H8 H1+ 4 e 0.0343 0.0417 0.0772 0.018 1 0
O5 O2- 4 e 0.0693(3) 0.5289(10) 0.0792(5) 0.0135(18) 1 0
H9 H1+ 4 e 0.0352 0.5277 0.0891 0.016 1 0
H10 H1+ 4 e 0.0589 0.5287 0.0277 0.016 1 0
O6 O2- 4 e 0.1887(3) 0.5324(11) 0.1983(5) 0.0143(18) 1 0
H11 H1+ 4 e 0.225 0.5331 0.1936 0.017 1 0
H12 H1+ 4 e 0.1951 0.5321 0.2487 0.017 1 0
O7 O2- 4 e 0.4084(3) -0.2201(11) 0.1343(5) 0.0156(18) 1 0
H13 H1+ 4 e 0.3765 -0.2013 0.148 0.019 1 0
H14 H1+ 4 e 0.4209 -0.3492 0.1472 0.019 1 0
O8 O2- 4 e 0.3130(4) 0.7085(11) 0.3773(5) 0.0169(19) 1 0
H15 H1+ 4 e 0.303 0.578 0.3638 0.02 1 0
H16 H1+ 4 e 0.2776 0.7748 0.3684 0.02 1 0
O9 O2- 4 e 0.3073(3) 0.4635(11) 0.5037(5) 0.0142(18) 1 0
H17 H1+ 4 e 0.2724 0.4624 0.4606 0.017 1 0
H18 H1+ 4 e 0.2981 0.4643 0.5457 0.017 1 0
O10 O2- 4 e 0.4304(4) 0.4670(11) 0.5106(5) 0.0153(18) 1 0
H19 H1+ 4 e 0.4642 0.4687 0.5551 0.018 1 0
H20 H1+ 4 e 0.4414 0.4669 0.4701 0.018 1 0
O11 O2- 4 e 0.3109(3) 0.9603(11) 0.5143(4) 0.0124(17) 1 0
H21 H1+ 4 e 0.307 0.959 0.5599 0.015 1 0
H22 H1+ 4 e 0.2735 0.961 0.4752 0.015 1 0
O12 O2- 4 e 0.4290(4) 0.9604(11) 0.5002(5) 0.0179(19) 1 0
H23 H1+ 4 e 0.4349 0.9608 0.4558 0.021 1 0
H24 H1+ 4 e 0.4654 0.9588 0.541 0.021 1 0
loop_
_atom_site_aniso_label
_atom_site_aniso_type_symbol
_atom_site_aniso_U_11
_atom_site_aniso_U_22
_atom_site_aniso_U_33
_atom_site_aniso_U_12
_atom_site_aniso_U_13
_atom_site_aniso_U_23
Se1 Se2- 0.0173(6) 0.0027(5) 0.0148(6) -0.0024(4) 0.0110(5) -0.0006(4)
Se2 Se2- 0.0169(6) 0.0063(5) 0.0110(6) -0.0009(4) 0.0076(5) -0.0011(4)
Se3 Se2- 0.0144(5) 0.0045(5) 0.0148(6) 0.0020(4) 0.0095(5) 0.0002(4)
Se4 Se2- 0.0162(5) 0.0030(5) 0.0124(6) 0.0031(4) 0.0093(5) 0.0004(4)
Se5 Se2- 0.0173(5) 0.0019(5) 0.0124(6) -0.0022(4) 0.0100(5) -0.0009(4)
Se6 Se2- 0.0122(5) 0.0058(5) 0.0099(6) 0.0004(4) 0.0058(5) -0.0005(4)
Se7 Se2- 0.0150(5) 0.0068(5) 0.0135(6) -0.0005(4) 0.0106(5) -0.0005(4)
Se8 Se2- 0.0150(5) 0.0030(5) 0.0137(6) 0.0013(4) 0.0075(5) 0.0008(4)
Se9 Se2- 0.0149(5) 0.0026(5) 0.0133(6) -0.0023(4) 0.0068(5) -0.0019(4)
Se10 Se2- 0.0144(5) 0.0026(5) 0.0117(6) -0.0022(4) 0.0078(5) -0.0019(4)
Se11 Se2- 0.0157(5) 0.0049(5) 0.0131(6) -0.0003(4) 0.0097(5) 0.0004(4)
Se12 Se2- 0.0144(5) 0.0025(5) 0.0147(6) 0.0014(4) 0.0080(5) 0.0009(4)
P1 P4+ 0.0146(13) 0.0018(11) 0.0107(14) -0.0019(10) 0.0074(11) -0.0008(10)
P2 P4+ 0.0125(12) 0.0024(11) 0.0104(14) -0.0012(10) 0.0056(11) -0.0007(10)
P3 P4+ 0.0120(12) 0.0026(11) 0.0109(14) -0.0014(10) 0.0073(11) -0.0011(10)
P4 P4+ 0.0122(12) 0.0023(11) 0.0118(14) 0.0012(9) 0.0068(11) 0.0009(10)
Na1 Na1+ 0.023(2) 0.010(2) 0.024(3) 0.0000(18) 0.017(2) 0.0041(19)
Na2 Na1+ 0.018(2) 0.007(2) 0.019(3) -0.0016(17) 0.011(2) 0.0013(18)
Na3 Na1+ 0.018(2) 0.007(2) 0.015(3) -0.0017(16) 0.009(2) 0.0001(18)
Na4 Na1+ 0.020(2) 0.010(2) 0.015(3) 0.0001(18) 0.009(2) -0.0062(18)
Na5 Na1+ 0.022(2) 0.013(2) 0.015(3) -0.0025(18) 0.008(2) -0.0016(18)
Na6 Na1+ 0.025(2) 0.0039(19) 0.016(2) -0.0015(18) 0.014(2) 0.0018(17)
Na7 Na1+ 0.022(2) 0.005(2) 0.014(3) 0.0003(17) 0.011(2) 0.0020(17)
Na8 Na1+ 0.024(2) 0.006(2) 0.019(3) 0.0018(17) 0.014(2) 0.0008(18)
O1 O2- 0.015(3) 0.011(3) 0.014(3) 0.001(2) 0.007(2) -0.002(2)
O2 O2- 0.014(3) 0.014(3) 0.013(3) 0.000(2) 0.007(2) 0.000(2)
O3 O2- 0.019(3) 0.013(3) 0.014(3) -0.001(2) 0.009(2) 0.001(2)
O4 O2- 0.017(3) 0.017(3) 0.013(3) 0.000(2) 0.009(2) -0.002(2)
O5 O2- 0.015(3) 0.013(3) 0.014(3) -0.001(2) 0.007(2) 0.003(2)
O6 O2- 0.015(3) 0.014(3) 0.014(3) 0.003(2) 0.006(2) -0.001(2)
O7 O2- 0.017(3) 0.013(3) 0.015(3) -0.004(2) 0.004(2) -0.004(2)
O8 O2- 0.021(3) 0.017(3) 0.016(3) -0.002(2) 0.011(2) 0.001(2)
O9 O2- 0.015(3) 0.013(3) 0.015(3) 0.000(2) 0.007(2) 0.000(2)
O10 O2- 0.016(3) 0.014(3) 0.016(3) 0.003(2) 0.006(2) -0.001(2)
O11 O2- 0.014(3) 0.014(3) 0.011(3) -0.002(2) 0.007(2) 0.004(2)
O12 O2- 0.019(3) 0.017(3) 0.019(3) -0.001(2) 0.009(2) 0.000(2)
#End of TTdata_260475-ICSD