
#(C) 2019 by FIZ Karlsruhe - Leibniz Institute for Information Infrastructure.  All rights reserved.
data_260583-ICSD
_database_code_ICSD 260583
_audit_creation_date 2010-02-01
_chemical_name_systematic 'Sodium vanadate'
_chemical_formula_structural 'Na0.6 V O2'
_chemical_formula_sum 'Na0.6 O2 V1'
_chemical_name_structure_type Na.5FeO2
_exptl_crystal_density_diffrn 3.92
_cell_measurement_temperature 293.
_publ_section_title

;
Investigation of the new P'3-Na0.60 V O2 phase: Structural and physical
properties
;
loop_
_citation_id
_citation_journal_full
_citation_year
_citation_journal_volume
_citation_page_first
_citation_page_last
_citation_journal_id_ASTM
primary 'Inorganic Chemistry' 2009 48 9147 9154 INOCAJ
loop_
_publ_author_name
'Szajwaj, O.'
'Gaudin, E.'
'Weill, F.'
'Darriet, J.'
'Delmas, C.'
_cell_length_a 4.9862(14)
_cell_length_b 2.8708(8)
_cell_length_c 5.917(2)
_cell_angle_alpha 90
_cell_angle_beta 104.36(3)
_cell_angle_gamma 90
_cell_volume 82.05
_cell_formula_units_Z 2
_symmetry_space_group_name_H-M 'C 1 2/m 1'
_symmetry_Int_Tables_number 12
_refine_ls_R_factor_all 0.067
loop_
_symmetry_equiv_pos_site_id
_symmetry_equiv_pos_as_xyz
1 '-x, y, -z'
2 '-x, -y, -z'
3 'x, -y, z'
4 'x, y, z'
5 '-x+1/2, y+1/2, -z'
6 '-x+1/2, -y+1/2, -z'
7 'x+1/2, -y+1/2, z'
8 'x+1/2, y+1/2, z'
loop_
_atom_type_symbol
_atom_type_oxidation_number
V3+ 3.4
O2- -2
Na1+ 1
loop_
_atom_site_label
_atom_site_type_symbol
_atom_site_symmetry_multiplicity
_atom_site_Wyckoff_symbol
_atom_site_fract_x
_atom_site_fract_y
_atom_site_fract_z
_atom_site_B_iso_or_equiv
_atom_site_occupancy
_atom_site_attached_hydrogens
V1 V3+ 2 a 0 0 0 0.027(4) 1. 0
O1 O2- 4 i 0.389(4) 0 0.174(3) 0.031(7) 1. 0
Na1 Na1+ 4 i 0.781(8) 0 0.498(6) 0.03(2) 0.296(1) 0
#End of TTdata_260583-ICSD