
#(C) 2018 by FIZ Karlsruhe - Leibniz Institute for Information Infrastructure.  All rights reserved.
data_260590-ICSD
_database_code_ICSD 260590
_audit_creation_date 2010-02-01
_audit_update_record 2011-02-01
_chemical_name_systematic 'Lithium zinc borate - alpha'
_chemical_formula_structural 'Li Zn (B O3)'
_chemical_formula_sum 'B1 Li1 O3 Zn1'
_exptl_crystal_density_diffrn 3.64
_cell_measurement_temperature 298.
_publ_section_title

;
Syntheses and characterization of two alkali-metal zinc borates, alpha - Li Zn
B O3 and Li0.48 Na0.52 Zn B O3
;
loop_
_citation_id
_citation_journal_full
_citation_year
_citation_journal_volume
_citation_page_first
_citation_page_last
_citation_journal_id_ASTM
primary 'Solid State Sciences' 2009 11 2086 2092 SSSCFJ
loop_
_publ_author_name
'Chen Xue An'
'Yang Chun Yan'
'Chang Xi Nan'
'Zang Hegui'
'Xiao Wei Qiang'
_cell_length_a 8.746(2)
_cell_length_b 5.091(1)
_cell_length_c 6.129(1)
_cell_angle_alpha 90
_cell_angle_beta 118.75(3)
_cell_angle_gamma 90
_cell_volume 239.26
_cell_formula_units_Z 4
_symmetry_space_group_name_H-M 'C 1 2/c 1'
_symmetry_Int_Tables_number 15
_refine_ls_R_factor_all 0.0483
loop_
_symmetry_equiv_pos_site_id
_symmetry_equiv_pos_as_xyz
1 'x, -y, z+1/2'
2 '-x, -y, -z'
3 '-x, y, -z+1/2'
4 'x, y, z'
5 'x+1/2, -y+1/2, z+1/2'
6 '-x+1/2, -y+1/2, -z'
7 '-x+1/2, y+1/2, -z+1/2'
8 'x+1/2, y+1/2, z'
loop_
_atom_type_symbol
_atom_type_oxidation_number
Li1+ 1
Zn2+ 2
B3+ 3
O2- -2
loop_
_atom_site_label
_atom_site_type_symbol
_atom_site_symmetry_multiplicity
_atom_site_Wyckoff_symbol
_atom_site_fract_x
_atom_site_fract_y
_atom_site_fract_z
_atom_site_B_iso_or_equiv
_atom_site_occupancy
_atom_site_attached_hydrogens
Li1 Li1+ 8 f 0.3561(14) 0.592(2) 0.816(2) 0.010(2) 0.5 0
Zn1 Zn2+ 8 f 0.31550(10) 0.56910(15) 0.7010(2) 0.0203(4) 0.5 0
B1 B3+ 4 e 0 0.4199(8) 0.25 0.0116(8) 1. 0
O1 O2- 8 f 0.1513(3) 0.5553(4) 0.3054(4) 0.0136(5) 1. 0
O2 O2- 4 e 0 0.1518(7) 0.25 0.0343(12) 1. 0
#End of TTdata_260590-ICSD