
#(C) 2019 by FIZ Karlsruhe - Leibniz Institute for Information Infrastructure.  All rights reserved.
data_260594-ICSD
_database_code_ICSD 260594
_audit_creation_date 2010-02-01
_chemical_name_systematic 'Sodium scandium diphosphate'
_chemical_formula_structural 'Na Sc (P2 O7)'
_chemical_formula_sum 'Na1 O7 P2 Sc1'
_chemical_name_structure_type NaLuP2O7
_exptl_crystal_density_diffrn 2.79
_cell_measurement_temperature 293.
_publ_section_title

;
Sodium scandium diphosphate, Na Sc P2 O7, isotypic with alpha - Na Ti(III) P2
O7
;
loop_
_citation_id
_citation_journal_full
_citation_year
_citation_journal_volume
_citation_page_first
_citation_page_last
_citation_journal_id_ASTM
primary 'Acta Crystallographica, Section E: Structure Reports Online' 2009 65
i86 i86 ACSEBH
loop_
_publ_author_name
'Cempirek, J.'
'Skoda, R.'
'Zak, Z.'
_cell_length_a 8.9044(18)
_cell_length_b 5.3300(11)
_cell_length_c 12.516(3)
_cell_angle_alpha 90.
_cell_angle_beta 104.11(3)
_cell_angle_gamma 90.
_cell_volume 576.09
_cell_formula_units_Z 4
_symmetry_space_group_name_H-M 'P 1 21/n 1'
_symmetry_Int_Tables_number 14
_refine_ls_R_factor_all 0.0253
loop_
_symmetry_equiv_pos_site_id
_symmetry_equiv_pos_as_xyz
1 '-x+1/2, y+1/2, -z+1/2'
2 '-x, -y, -z'
3 'x+1/2, -y+1/2, z+1/2'
4 'x, y, z'
loop_
_atom_type_symbol
_atom_type_oxidation_number
Sc3+ 3
P5+ 5
Na1+ 1
O2- -2
loop_
_atom_site_label
_atom_site_type_symbol
_atom_site_symmetry_multiplicity
_atom_site_Wyckoff_symbol
_atom_site_fract_x
_atom_site_fract_y
_atom_site_fract_z
_atom_site_B_iso_or_equiv
_atom_site_occupancy
_atom_site_attached_hydrogens
Sc1 Sc3+ 4 e 0.26720(5) 0.26098(7) 0.52783(4) 0.0137(2) 1 0
P1 P5+ 4 e -0.06473(7) 0.22372(11) 0.61678(5) 0.0140(2) 1 0
P2 P5+ 4 e 0.52089(7) 0.25413(10) 0.35283(5) 0.0139(2) 1 0
Na1 Na1+ 4 e 0.35939(11) 0.23101(18) 0.81018(9) 0.0278(3) 1 0
O1 O2- 4 e 0.39845(17) 0.4953(3) 0.65350(12) 0.0177(4) 1 0
O2 O2- 4 e 0.36250(17) -0.0381(3) 0.63494(13) 0.0182(4) 1 0
O3 O2- 4 e 0.4256(2) 0.2456(3) 0.43658(14) 0.0210(4) 1 0
O4 O2- 4 e 0.10881(19) 0.2727(3) 0.63286(14) 0.0187(4) 1 0
O5 O2- 4 e 0.39984(18) 0.2187(3) 0.23463(13) 0.0175(4) 1 0
O6 O2- 4 e -0.16444(17) 0.4047(3) 0.53739(12) 0.0220(4) 1 0
O7 O2- 4 e -0.10300(18) -0.0507(3) 0.58783(12) 0.0190(4) 1 0
loop_
_atom_site_aniso_label
_atom_site_aniso_type_symbol
_atom_site_aniso_U_11
_atom_site_aniso_U_22
_atom_site_aniso_U_33
_atom_site_aniso_U_12
_atom_site_aniso_U_13
_atom_site_aniso_U_23
Sc1 Sc3+ 0.0124(3) 0.0152(3) 0.0135(3) 0.00023(15) 0.0032(2) 0.00014(16)
P1 P5+ 0.0126(4) 0.0155(4) 0.0136(4) -0.0001(2) 0.0025(3) -0.0002(2)
P2 P5+ 0.0127(4) 0.0156(4) 0.0134(4) 0.0001(2) 0.0033(3) 0.0003(2)
Na1 Na1+ 0.0270(7) 0.0245(7) 0.0318(7) -0.0010(4) 0.0069(5) 0.0003(4)
O1 O2- 0.0189(8) 0.0161(9) 0.0173(8) -0.0021(6) 0.0028(6) 0.0000(6)
O2 O2- 0.0190(8) 0.0172(9) 0.0190(8) 0.0026(6) 0.0055(6) 0.0014(7)
O3 O2- 0.0208(8) 0.0240(11) 0.0196(10) 0.0009(6) 0.0077(7) 0.0001(6)
O4 O2- 0.0160(8) 0.0238(10) 0.0175(9) -0.0013(6) 0.0062(7) -0.0020(6)
O5 O2- 0.0149(9) 0.0220(10) 0.0156(9) -0.0018(6) 0.0037(7) 0.0005(6)
O6 O2- 0.0240(9) 0.0188(10) 0.0215(8) 0.0020(7) 0.0022(7) 0.0026(7)
O7 O2- 0.0205(8) 0.0168(9) 0.0193(8) -0.0009(7) 0.0041(6) -0.0006(7)
#End of TTdata_260594-ICSD