
#(C) 2019 by FIZ Karlsruhe - Leibniz Institute for Information Infrastructure.  All rights reserved.
data_260604-ICSD
_database_code_ICSD 260604
_audit_creation_date 2010-02-01
_audit_update_record 2011-02-01
_chemical_name_systematic
'Tetrasodium dihydroxotetraoxoneptunate(VII) hydroxide dihydrate'
_chemical_formula_structural 'Na4 (Np O4 (O H)2) O H (H2 O)2'
_chemical_formula_sum 'H7 Na4 Np1 O9'
_chemical_name_structure_type Na4Np04(OH)3(H2O)2
_exptl_crystal_density_diffrn 3.38
_cell_measurement_temperature 293.
_publ_section_title

;
Novel heptavalent actinide compounds: tetrasodium
dihydroxidotetraoxidoneptunate(VII) hydroxide dihydrate and its plutonium
analogue
;
loop_
_citation_id
_citation_journal_full
_citation_year
_citation_journal_volume
_citation_page_first
_citation_page_last
_citation_journal_id_ASTM
primary 'Acta Crystallographica, Section C: Crystal Structure Communications'
2009 65 i91 i93 ACSCEE
loop_
_publ_author_name
'Grigoriev, M.S.'
'Krot, N.N.'
_cell_length_a 5.9632(2)
_cell_length_b 8.1157(2)
_cell_length_c 10.9434(3)
_cell_angle_alpha 105.007(2)
_cell_angle_beta 101.213(2)
_cell_angle_gamma 105.935(2)
_cell_volume 471.36
_cell_formula_units_Z 2
_symmetry_space_group_name_H-M 'P -1'
_symmetry_Int_Tables_number 2
_refine_ls_R_factor_all 0.0215
loop_
_symmetry_equiv_pos_site_id
_symmetry_equiv_pos_as_xyz
1 '-x, -y, -z'
2 'x, y, z'
loop_
_atom_type_symbol
_atom_type_oxidation_number
Np7+ 7
Na1+ 1
O2- -2
H1+ 1
O2- -2
H1+ 1
O2- -2
H1+ 1
O2- -2
H1+ 1
O2- -2
H1+ 1
loop_
_atom_site_label
_atom_site_type_symbol
_atom_site_symmetry_multiplicity
_atom_site_Wyckoff_symbol
_atom_site_fract_x
_atom_site_fract_y
_atom_site_fract_z
_atom_site_B_iso_or_equiv
_atom_site_occupancy
_atom_site_attached_hydrogens
Np1 Np7+ 2 i 0.63709(2) 0.414646(15) 0.247923(11) 0.00968(3) 1 0
Na1 Na1+ 2 i 0.2127(2) 0.46725(19) 0.41560(13) 0.0193(3) 1 0
Na2 Na1+ 2 i 1.0543(2) 0.3396(2) 0.07342(14) 0.0211(3) 1 0
Na3 Na1+ 2 i 0.5236(3) 0.72145(19) 0.09527(14) 0.0211(3) 1 0
Na4 Na1+ 2 i 0.6165(3) 0.8535(2) 0.42625(15) 0.0253(3) 1 0
O1 O2- 2 i 0.8539(4) 0.2829(3) 0.2395(3) 0.0178(4) 1 0
O2 O2- 2 i 0.3952(4) 0.2286(3) 0.1023(2) 0.0172(4) 1 0
O3 O2- 2 i 0.4227(4) 0.5527(3) 0.2527(3) 0.0151(4) 1 0
O4 O2- 2 i 0.8743(4) 0.6025(3) 0.3929(2) 0.0180(4) 1 0
O5 O2- 2 i 0.4867(5) 0.3026(3) 0.4010(2) 0.0171(4) 1 0
H1 H1+ 2 i 0.421(7) 0.193(3) 0.373(5) 0.021 1 0
O6 O2- 2 i 0.7915(4) 0.5368(3) 0.0952(2) 0.0155(4) 1 0
H2 H1+ 2 i 0.907(5) 0.624(4) 0.138(4) 0.019 1 0
O7 O2- 2 i 0.2470(5) -0.0813(3) 0.3625(3) 0.0218(5) 1 0
H3 H1+ 2 i 0.186(8) -0.155(5) 0.392(5) 0.026 1 0
O8 O2- 2 i 0.2420(5) -0.1323(4) 0.1170(3) 0.0249(5) 1 0
H4 H1+ 2 i 0.244(9) -0.113(6) 0.197(2) 0.037 1 0
H5 H1+ 2 i 0.279(9) -0.027(4) 0.110(5) 0.037 1 0
O9 O2- 2 i 0.8145(5) 0.9542(4) 0.2823(3) 0.0251(5) 1 0
H6 H1+ 2 i 0.835(7) 1.059(4) 0.276(5) 0.038 1 0
H7 H1+ 2 i 0.952(5) 0.958(6) 0.320(5) 0.038 1 0
loop_
_atom_site_aniso_label
_atom_site_aniso_type_symbol
_atom_site_aniso_U_11
_atom_site_aniso_U_22
_atom_site_aniso_U_33
_atom_site_aniso_U_12
_atom_site_aniso_U_13
_atom_site_aniso_U_23
Np1 Np7+ 0.00930(4) 0.01039(5) 0.00943(4) 0.00323(3) 0.00268(3) 0.00356(4)
Na1 Na1+ 0.0147(6) 0.0262(7) 0.0145(6) 0.0062(6) 0.0024(5) 0.0049(5)
Na2 Na1+ 0.0151(6) 0.0311(7) 0.0173(6) 0.0084(6) 0.0048(5) 0.0079(6)
Na3 Na1+ 0.0261(7) 0.0240(7) 0.0175(6) 0.0136(6) 0.0069(6) 0.0084(5)
Na4 Na1+ 0.0293(8) 0.0222(7) 0.0203(7) 0.0057(6) 0.0078(6) 0.0030(6)
O1 O2- 0.0160(10) 0.0186(10) 0.0222(11) 0.0087(9) 0.0053(9) 0.0094(10)
O2 O2- 0.0161(10) 0.0154(10) 0.0166(11) 0.0026(9) 0.0032(8) 0.0036(8)
O3 O2- 0.0156(9) 0.0153(9) 0.0166(10) 0.0079(8) 0.0059(8) 0.0051(8)
O4 O2- 0.0152(10) 0.0188(11) 0.0144(10) 0.0002(9) 0.0015(8) 0.0042(9)
O5 O2- 0.0204(11) 0.0156(10) 0.0158(11) 0.0029(9) 0.0089(9) 0.0066(9)
O6 O2- 0.0151(10) 0.0164(10) 0.0148(11) 0.0038(9) 0.0047(8) 0.0063(9)
O7 O2- 0.0220(12) 0.0185(11) 0.0212(12) 0.0030(10) 0.0047(10) 0.0059(9)
O8 O2- 0.0270(13) 0.0197(12) 0.0236(13) 0.0077(11) 0.0038(11) 0.0026(10)
O9 O2- 0.0204(12) 0.0205(12) 0.0371(16) 0.0070(10) 0.0083(11) 0.0142(11)
#End of TTdata_260604-ICSD