
#(C) 2019 by FIZ Karlsruhe - Leibniz Institute for Information Infrastructure.  All rights reserved.
data_260605-ICSD
_database_code_ICSD 260605
_audit_creation_date 2010-02-01
_chemical_name_systematic
'Tetrasodium dihydroxoplutonate(VII) hydroxide dihydrate'
_chemical_formula_structural 'Na4 (Pu O4 (O H)2) O H (H2 O)2'
_chemical_formula_sum 'H7 Na4 O9 Pu1'
_chemical_name_structure_type Na4Np04(OH)3(H2O)2
_exptl_crystal_density_diffrn 3.5
_cell_measurement_temperature 100.
_publ_section_title

;
Novel heptavalent actinide compounds: tetrasodium
dihydroxidotetraoxidoneptunate(VII) hydroxide dihydrate and its plutonium
analogue
;
loop_
_citation_id
_citation_journal_full
_citation_year
_citation_journal_volume
_citation_page_first
_citation_page_last
_citation_journal_id_ASTM
primary 'Acta Crystallographica, Section C: Crystal Structure Communications'
2009 65 i91 i93 ACSCEE
loop_
_publ_author_name
'Grigoriev, M.S.'
'Krot, N.N.'
_cell_length_a 5.9177(2)
_cell_length_b 8.0736(2)
_cell_length_c 10.8696(3)
_cell_angle_alpha 105.007(2)
_cell_angle_beta 101.224(2)
_cell_angle_gamma 105.760(2)
_cell_volume 462.72
_cell_formula_units_Z 2
_symmetry_space_group_name_H-M 'P -1'
_symmetry_Int_Tables_number 2
_refine_ls_R_factor_all 0.0281
loop_
_symmetry_equiv_pos_site_id
_symmetry_equiv_pos_as_xyz
1 '-x, -y, -z'
2 'x, y, z'
loop_
_atom_type_symbol
_atom_type_oxidation_number
Pu7+ 7
Na1+ 1
O2- -2
H1+ 1
O2- -2
H1+ 1
O2- -2
H1+ 1
O2- -2
H1+ 1
O2- -2
H1+ 1
loop_
_atom_site_label
_atom_site_type_symbol
_atom_site_symmetry_multiplicity
_atom_site_Wyckoff_symbol
_atom_site_fract_x
_atom_site_fract_y
_atom_site_fract_z
_atom_site_B_iso_or_equiv
_atom_site_occupancy
_atom_site_attached_hydrogens
Pu1 Pu7+ 2 i 0.636080(17) 0.414739(13) 0.247926(10) 0.00471(2) 1 0
Na1 Na1+ 2 i 0.21183(19) 0.46774(15) 0.41582(10) 0.0100(2) 1 0
Na2 Na1+ 2 i 1.05366(18) 0.34046(15) 0.07393(11) 0.0099(2) 1 0
Na3 Na1+ 2 i 0.52187(18) 0.71929(14) 0.09431(10) 0.0100(2) 1 0
Na4 Na1+ 2 i 0.61628(18) 0.85254(14) 0.42687(10) 0.0119(2) 1 0
O1 O2- 2 i 0.8529(3) 0.2821(2) 0.24009(18) 0.0091(3) 1 0
O2 O2- 2 i 0.3938(3) 0.2289(2) 0.10200(18) 0.0092(3) 1 0
O3 O2- 2 i 0.4207(3) 0.5534(2) 0.25272(18) 0.0086(3) 1 0
O4 O2- 2 i 0.8756(3) 0.6042(2) 0.39297(19) 0.0093(4) 1 0
O5 O2- 2 i 0.4857(3) 0.3035(3) 0.40065(19) 0.0093(4) 1 0
H1 H1+ 2 i 0.449(5) 0.200(2) 0.386(3) 0.011 1 0
O6 O2- 2 i 0.7897(3) 0.5351(3) 0.0951(2) 0.0080(4) 1 0
H2 H1+ 2 i 0.891(4) 0.620(3) 0.145(3) 0.01 1 0
O7 O2- 2 i 0.2480(3) -0.0810(2) 0.36329(18) 0.0105(3) 1 0
H3 H1+ 2 i 0.174(5) -0.162(3) 0.376(3) 0.013 1 0
O8 O2- 2 i 0.2410(4) -0.1325(3) 0.1161(2) 0.0124(4) 1 0
H4 H1+ 2 i 0.229(5) -0.122(4) 0.193(2) 0.019 1 0
H5 H1+ 2 i 0.290(5) -0.035(3) 0.109(3) 0.019 1 0
O9 O2- 2 i 0.8122(3) 0.9519(2) 0.28120(18) 0.0121(3) 1 0
H6 H1+ 2 i 0.832(5) 1.056(3) 0.275(3) 0.018 1 0
H7 H1+ 2 i 0.962(3) 0.956(4) 0.308(3) 0.018 1 0
loop_
_atom_site_aniso_label
_atom_site_aniso_type_symbol
_atom_site_aniso_U_11
_atom_site_aniso_U_22
_atom_site_aniso_U_33
_atom_site_aniso_U_12
_atom_site_aniso_U_13
_atom_site_aniso_U_23
Pu1 Pu7+ 0.00480(3) 0.00532(3) 0.00417(3) 0.00187(2) 0.00115(3) 0.00178(3)
Na1 Na1+ 0.0083(5) 0.0139(5) 0.0069(5) 0.0031(4) 0.0015(4) 0.0032(4)
Na2 Na1+ 0.0081(5) 0.0133(5) 0.0083(5) 0.0046(4) 0.0022(4) 0.0029(4)
Na3 Na1+ 0.0120(5) 0.0111(5) 0.0079(5) 0.0058(4) 0.0027(4) 0.0030(4)
Na4 Na1+ 0.0138(5) 0.0104(5) 0.0104(5) 0.0033(4) 0.0040(4) 0.0022(4)
O1 O2- 0.0090(8) 0.0095(8) 0.0098(9) 0.0042(6) 0.0024(7) 0.0041(7)
O2 O2- 0.0094(8) 0.0098(9) 0.0083(9) 0.0036(7) 0.0015(7) 0.0030(7)
O3 O2- 0.0102(8) 0.0086(8) 0.0085(8) 0.0042(6) 0.0039(7) 0.0033(7)
O4 O2- 0.0085(8) 0.0095(9) 0.0079(9) 0.0008(7) 0.0018(7) 0.0026(7)
O5 O2- 0.0118(9) 0.0063(9) 0.0086(9) 0.0023(7) 0.0029(8) 0.0017(8)
O6 O2- 0.0077(8) 0.0080(9) 0.0069(9) 0.0015(7) 0.0010(7) 0.0024(7)
O7 O2- 0.0105(8) 0.0093(8) 0.0111(8) 0.0018(7) 0.0024(7) 0.0046(7)
O8 O2- 0.0143(9) 0.0103(9) 0.0115(9) 0.0039(8) 0.0025(8) 0.0030(8)
O9 O2- 0.0109(8) 0.0100(8) 0.0165(10) 0.0046(7) 0.0034(7) 0.0057(7)
#End of TTdata_260605-ICSD