
#(C) 2019 by FIZ Karlsruhe - Leibniz Institute for Information Infrastructure.  All rights reserved.
data_260765-ICSD
_database_code_ICSD 260765
_audit_creation_date 2010-08-01
_chemical_name_systematic 'Disodium dioxotetrafluoro molybdate hydrate'
_chemical_formula_structural 'Na2 (Mo O2 F4) (H2 O)'
_chemical_formula_sum 'H2 F4 Mo1 Na2 O3'
_exptl_crystal_density_diffrn 2.97
_cell_measurement_temperature 173.
_publ_section_title 'Molybdenum difluoride dioxide, Mo O2 F2'
loop_
_citation_id
_citation_journal_full
_citation_year
_citation_journal_volume
_citation_page_first
_citation_page_last
_citation_journal_id_ASTM
primary 'Inorganic Chemistry' 2010 49 4263 4267 INOCAJ
loop_
_publ_author_name
'Shorafa, H.'
'Ficicioglu, H.'
'Tamadon, F.'
'Girgsdies F.'
'Seppelt, K.'
_cell_length_a 5.4363(11)
_cell_length_b 5.7546(12)
_cell_length_c 19.143(4)
_cell_angle_alpha 90.
_cell_angle_beta 90.
_cell_angle_gamma 90.
_cell_volume 598.86
_cell_formula_units_Z 4
_symmetry_space_group_name_H-M 'P 21 21 21'
_symmetry_Int_Tables_number 19
_refine_ls_R_factor_all 0.0471
loop_
_symmetry_equiv_pos_site_id
_symmetry_equiv_pos_as_xyz
1 '-x, y+1/2, -z+1/2'
2 'x+1/2, -y+1/2, -z'
3 '-x+1/2, -y, z+1/2'
4 'x, y, z'
loop_
_atom_type_symbol
_atom_type_oxidation_number
Mo6+ 6
Na1+ 1
O2- -2
F1- -1
O2- -2
H1+ 1
loop_
_atom_site_label
_atom_site_type_symbol
_atom_site_symmetry_multiplicity
_atom_site_Wyckoff_symbol
_atom_site_fract_x
_atom_site_fract_y
_atom_site_fract_z
_atom_site_B_iso_or_equiv
_atom_site_occupancy
_atom_site_attached_hydrogens
Mo1 Mo6+ 4 a 0.23669(10) 0.75915(10) 0.13516(3) 0.00948(17) 1 0
Na1 Na1+ 4 a 0.7408(5) 0.2633(5) 0.14067(14) 0.0131(5) 1 0
Na2 Na1+ 4 a 0.2644(7) 0.3169(5) 0.24792(16) 0.0144(6) 1 0
O1 O2- 4 a 0.3598(10) 0.7720(12) 0.0545(3) 0.0159(11) 1 0
O2 O2- 4 a -0.0307(11) 0.9114(10) 0.1258(4) 0.0164(12) 1 0
F1 F1- 4 a 0.1402(9) 0.7076(8) 0.2417(2) 0.0144(9) 1 0
F2 F1- 4 a 0.1016(9) 0.4501(8) 0.1281(3) 0.0159(10) 1 0
F3 F1- 4 a 0.5271(9) 0.5725(8) 0.1762(3) 0.0120(9) 1 0
F4 F1- 4 a 0.4242(9) 1.0192(8) 0.1748(3) 0.0131(9) 1 0
O3 O2- 4 a 0.6463(14) 0.3190(12) 0.0225(3) 0.0244(15) 1 0
H1 H1+ 4 a 0.7171 0.4555 0. 0.06 1 0
H2 H1+ 4 a 0.4784 0.2727 0. 0.06 1 0
loop_
_atom_site_aniso_label
_atom_site_aniso_type_symbol
_atom_site_aniso_U_11
_atom_site_aniso_U_22
_atom_site_aniso_U_33
_atom_site_aniso_U_12
_atom_site_aniso_U_13
_atom_site_aniso_U_23
Mo1 Mo6+ 0.0085(3) 0.0083(2) 0.0116(3) 0.0009(3) -0.0009(2) 0.0004(2)
Na1 Na1+ 0.0123(11) 0.0105(10) 0.0165(12) 0.0020(18) -0.0004(12) 0.0010(12)
Na2 Na1+ 0.0107(14) 0.0158(12) 0.0168(13) -0.0002(12) -0.0014(14) 0.0014(10)
O1 O2- 0.016(2) 0.021(3) 0.011(2) -0.003(3) 0.0038(18) 0.005(2)
O2 O2- 0.011(3) 0.017(3) 0.021(3) 0.005(2) -0.003(2) -0.001(2)
F1 F1- 0.016(2) 0.019(2) 0.0088(19) 0.0004(18) 0.0028(16) 0.0011(17)
F2 F1- 0.014(2) 0.0116(19) 0.022(3) -0.0036(16) -0.001(2) -0.0043(19)
F3 F1- 0.009(2) 0.014(2) 0.014(2) 0.0049(17) -0.0016(18) -0.0003(18)
F4 F1- 0.011(2) 0.012(2) 0.017(2) -0.0028(17) 0.0007(19) -0.0010(18)
O3 O2- 0.016(2) 0.021(3) 0.011(2) -0.003(3) 0.0038(18) 0.005(2)
#End of TTdata_260765-ICSD