
#(C) 2019 by FIZ Karlsruhe - Leibniz Institute for Information Infrastructure.  All rights reserved.
data_260875-ICSD
_database_code_ICSD 260875
_audit_creation_date 2011-02-01
_audit_update_record 2012-02-01
_chemical_name_systematic 'Trisodium octafluorotantalate'
_chemical_formula_structural 'Na3 (Ta F8)'
_chemical_formula_sum 'F8 Na3 Ta1'
_chemical_name_structure_type Na2Si3O7(mS48)
_exptl_crystal_density_diffrn 4.53
_cell_measurement_temperature 153.
_publ_section_title 'Redetermination of Na3 Ta F8'
loop_
_citation_id
_citation_journal_full
_citation_year
_citation_journal_volume
_citation_page_first
_citation_page_last
_citation_journal_id_ASTM
primary 'Acta Crystallographica, Section C: Crystal Structure Communications'
2010 66 i85 i86 ACSCEE
loop_
_publ_author_name
'Langer, V.'
'Smrcok, L.'
'Boca, M.'
_cell_length_a 11.5203(14)
_cell_length_b 5.3453(6)
_cell_length_c 11.1540(13)
_cell_angle_alpha 90.
_cell_angle_beta 120.919(2)
_cell_angle_gamma 90.
_cell_volume 589.25
_cell_formula_units_Z 4
_symmetry_space_group_name_H-M 'C 1 2/c 1'
_symmetry_Int_Tables_number 15
_refine_ls_R_factor_all 0.0242
loop_
_symmetry_equiv_pos_site_id
_symmetry_equiv_pos_as_xyz
1 'x, -y, z+1/2'
2 '-x, -y, -z'
3 '-x, y, -z+1/2'
4 'x, y, z'
5 'x+1/2, -y+1/2, z+1/2'
6 '-x+1/2, -y+1/2, -z'
7 '-x+1/2, y+1/2, -z+1/2'
8 'x+1/2, y+1/2, z'
loop_
_atom_type_symbol
_atom_type_oxidation_number
Ta5+ 5
Na1+ 1
F1- -1
loop_
_atom_site_label
_atom_site_type_symbol
_atom_site_symmetry_multiplicity
_atom_site_Wyckoff_symbol
_atom_site_fract_x
_atom_site_fract_y
_atom_site_fract_z
_atom_site_B_iso_or_equiv
_atom_site_occupancy
_atom_site_attached_hydrogens
Ta1 Ta5+ 4 e 0.5 0.68650(4) 0.75 0.00503(10) 1 0
Na1 Na1+ 4 d 0.75 0.25 1. 0.0149(6) 1 0
Na2 Na1+ 8 f 0.6346(2) 0.7569(4) 1.1027(2) 0.0110(4) 1 0
F1 F1- 8 f 0.5578(3) 0.4657(5) 0.9162(3) 0.0095(5) 1 0
F2 F1- 8 f 0.4382(3) 0.8740(6) 0.8603(3) 0.0140(6) 1 0
F3 F1- 8 f 0.6553(3) 0.8921(6) 0.8892(3) 0.0145(6) 1 0
F4 F1- 8 f 0.6666(3) 0.4915(5) 0.7855(3) 0.0091(5) 1 0
loop_
_atom_site_aniso_label
_atom_site_aniso_type_symbol
_atom_site_aniso_U_11
_atom_site_aniso_U_22
_atom_site_aniso_U_33
_atom_site_aniso_U_12
_atom_site_aniso_U_13
_atom_site_aniso_U_23
Ta1 Ta5+ 0.00306(13) 0.00520(14) 0.00600(13) 0. 0.00174(9) 0.
Na1 Na1+ 0.0082(13) 0.0089(11) 0.0173(13) 0.0029(10) -0.0008(11) -0.0021(10)
Na2 Na1+ 0.0091(9) 0.0111(8) 0.0128(8) -0.0008(7) 0.0057(8) -0.0010(7)
F1 F1- 0.0070(12) 0.0109(12) 0.0101(11) 0.0018(10) 0.0040(10) 0.0036(10)
F2 F1- 0.0125(14) 0.0157(13) 0.0161(12) 0.0037(11) 0.0091(11) -0.0040(11)
F3 F1- 0.0086(13) 0.0148(13) 0.0151(12) -0.0023(11) 0.0025(11) -0.0044(11)
F4 F1- 0.0043(11) 0.0129(13) 0.0119(11) 0.0020(10) 0.0053(10) -0.0016(10)
#End of TTdata_260875-ICSD