
#(C) 2019 by FIZ Karlsruhe - Leibniz Institute for Information Infrastructure.  All rights reserved.
data_260879-ICSD
_database_code_ICSD 260879
_audit_creation_date 2011-02-01
_chemical_name_systematic 'Trisodium tetrahydroxotriborate'
_chemical_formula_structural 'Na3 (B3 O4 (O H)4)'
_chemical_formula_sum 'H4 B3 Na3 O8'
_exptl_crystal_density_diffrn 2.27
_cell_measurement_temperature 293.
_publ_section_title

;
Synthesis, characterization, and crystal structure of a new trisodium
triborate, Na3 [B3 O4 (O H)4]
;
loop_
_citation_id
_citation_journal_full
_citation_year
_citation_journal_volume
_citation_page_first
_citation_page_last
_citation_journal_id_ASTM
primary 'Inorganic Chemistry' 2010 49 4830 4835 INOCAJ
loop_
_publ_author_name
'Andrieux, J.'
'Goutaudier, C.'
'Laversenne, L.'
'Jeanneau, E.'
'Miele, P.'
_cell_length_a 12.8274(6)
_cell_length_b 7.7276(4)
_cell_length_c 6.9690(3)
_cell_angle_alpha 90
_cell_angle_beta 98.161(3)
_cell_angle_gamma 90
_cell_volume 683.81
_cell_formula_units_Z 4
_symmetry_space_group_name_H-M 'C 1 c 1'
_symmetry_Int_Tables_number 9
_refine_ls_R_factor_all 0.024
loop_
_symmetry_equiv_pos_site_id
_symmetry_equiv_pos_as_xyz
1 'x, -y, z+1/2'
2 'x, y, z'
3 'x+1/2, -y+1/2, z+1/2'
4 'x+1/2, y+1/2, z'
loop_
_atom_type_symbol
_atom_type_oxidation_number
Na1+ 1
B3+ 3
O2- -2
H1+ 1
loop_
_atom_site_label
_atom_site_type_symbol
_atom_site_symmetry_multiplicity
_atom_site_Wyckoff_symbol
_atom_site_fract_x
_atom_site_fract_y
_atom_site_fract_z
_atom_site_B_iso_or_equiv
_atom_site_occupancy
_atom_site_attached_hydrogens
Na1 Na1+ 4 a 0.57806(10) 0.40567(9) 0.54554(18) 0.0142 1. 0
Na2 Na1+ 4 a 0.82981(11) 1.09069(9) 0.65140(17) 0.0142 1. 0
Na3 Na1+ 4 a 0.48554(10) -0.01662(10) 0.62179(17) 0.0156 1. 0
B1 B3+ 4 a 0.68515(16) 0.7820(2) 0.7535(3) 0.0089 1. 0
B2 B3+ 4 a 0.77401(17) 0.5115(2) 0.3092(3) 0.0098 1. 0
B3 B3+ 4 a 0.88403(16) 0.2387(2) 0.3087(3) 0.0092 1. 0
O1 O2- 4 a 0.92312(12) 0.21329(17) 0.11991(19) 0.012 1. 0
O2 O2- 4 a 0.60582(13) 0.85286(16) 0.86784(19) 0.011 1. 0
O3 O2- 4 a 0.96337(13) 0.16724(17) 0.46258(19) 0.0132 1. 0
O4 O2- 4 a 0.64940(13) 0.83167(16) 0.54695(18) 0.0111 1. 0
O5 O2- 4 a 0.78752(12) 0.85345(15) 0.82383(18) 0.0095 1. 0
O6 O2- 4 a 0.68299(12) 0.58966(14) 0.7708(2) 0.0101 1. 0
O7 O2- 4 a 0.87158(12) 0.42848(16) 0.33918(19) 0.0101 1. 0
O8 O2- 4 a 0.76807(13) 0.68447(16) 0.3154(2) 0.013 1. 0
H1 H1+ 4 a 0.8806 0.2447 0.0305 0.0235 1. 0
H2 H1+ 4 a 0.6279 0.9404 0.9135 0.022 1. 0
H3 H1+ 4 a 1.0155 0.2098 0.4736 0.0178 1. 0
H4 H1+ 4 a 0.6808 0.7818 0.473 0.0197 1. 0
loop_
_atom_site_aniso_label
_atom_site_aniso_type_symbol
_atom_site_aniso_U_11
_atom_site_aniso_U_22
_atom_site_aniso_U_33
_atom_site_aniso_U_12
_atom_site_aniso_U_13
_atom_site_aniso_U_23
Na1 Na1+ 0.0134(3) 0.0139(4) 0.0161(3) -0.0023(2) 0.0048(3) -0.0032(3)
Na2 Na1+ 0.0195(4) 0.0115(4) 0.0125(3) 0.0013(3) 0.0055(3) 0.0009(2)
Na3 Na1+ 0.0144(3) 0.0189(4) 0.0128(3) 0.0055(3) -0.0003(2) -0.0038(3)
B1 B3+ 0.0076(8) 0.0100(7) 0.0090(7) 0.0001(6) 0.0005(6) 0.0006(6)
B2 B3+ 0.0112(8) 0.0110(8) 0.0075(7) -0.0011(6) 0.0025(6) 0.0011(6)
B3 B3+ 0.0077(7) 0.0091(8) 0.0107(7) -0.0002(6) 0.0004(6) 0.0002(6)
O1 O2- 0.0111(6) 0.0145(6) 0.0112(5) 0.0013(4) 0.0038(4) 0.0000(4)
O2 O2- 0.0094(5) 0.0114(5) 0.0128(5) -0.0003(4) 0.0034(4) -0.0008(5)
O3 O2- 0.0076(5) 0.0154(6) 0.0156(6) -0.0016(4) -0.0017(4) 0.0041(4)
O4 O2- 0.0106(5) 0.0133(6) 0.0093(5) 0.0020(4) 0.0009(4) 0.0014(4)
O5 O2- 0.0065(5) 0.0087(5) 0.0130(5) 0.0001(4) 0.0005(4) -0.0009(4)
O6 O2- 0.0089(5) 0.0083(5) 0.0129(6) -0.0001(4) 0.0007(4) 0.0006(4)
O7 O2- 0.0086(6) 0.0088(5) 0.0129(6) -0.0016(4) 0.0020(4) -0.0004(4)
O8 O2- 0.0162(6) 0.0086(5) 0.0152(6) 0.0003(4) 0.0062(5) 0.0001(4)
#End of TTdata_260879-ICSD