
#(C) 2019 by FIZ Karlsruhe - Leibniz Institute for Information Infrastructure.  All rights reserved.
data_260892-ICSD
_database_code_ICSD 260892
_audit_creation_date 2011-02-01
_chemical_name_systematic 'Sodium disilver arsenatotrimolybdate'
_chemical_formula_structural 'Na0.93 Ag2.07 As Mo3 O13'
_chemical_formula_sum 'Ag2.07 As1 Mo3 Na0.93 O13'
_exptl_crystal_density_diffrn 4.99
_cell_measurement_temperature 298.
_publ_section_title 'Na Ag2 Mo3 O9 As O4'
loop_
_citation_id
_citation_journal_full
_citation_year
_citation_journal_volume
_citation_page_first
_citation_page_last
_citation_journal_id_ASTM
primary 'Acta Crystallographica, Section E: Structure Reports Online' 2010 66
i69 i69 ACSEBH
loop_
_publ_author_name
'Hamza, H.'
'Zid, M.F.'
'Driss, A.'
_cell_length_a 8.063(2)
_cell_length_b 8.217(2)
_cell_length_c 9.755(3)
_cell_angle_alpha 113.42(2)
_cell_angle_beta 99.490(10)
_cell_angle_gamma 105.84(2)
_cell_volume 542.49
_cell_formula_units_Z 2
_symmetry_space_group_name_H-M 'P -1'
_symmetry_Int_Tables_number 2
_refine_ls_R_factor_all 0.0304
loop_
_symmetry_equiv_pos_site_id
_symmetry_equiv_pos_as_xyz
1 '-x, -y, -z'
2 'x, y, z'
loop_
_atom_type_symbol
_atom_type_oxidation_number
Mo6+ 6
As5+ 5
Ag1+ 1
Na1+ 1
Ag1+ 1
Na1+ 1
Ag1+ 1
Na1+ 1
O2- -2
loop_
_atom_site_label
_atom_site_type_symbol
_atom_site_symmetry_multiplicity
_atom_site_Wyckoff_symbol
_atom_site_fract_x
_atom_site_fract_y
_atom_site_fract_z
_atom_site_B_iso_or_equiv
_atom_site_occupancy
_atom_site_attached_hydrogens
Mo1 Mo6+ 2 i 0.01511(7) 0.28903(7) 0.35866(6) 0.00656(15) 1 0
Mo2 Mo6+ 2 i 0.19906(7) 0.41276(7) 0.74653(6) 0.00685(16) 1 0
Mo3 Mo6+ 2 i 0.38388(7) 0.55984(7) 1.26729(6) 0.00759(16) 1 0
As1 As5+ 2 i 0.44918(8) 0.77640(8) 0.66832(7) 0.00632(17) 1 0
Ag1 Ag1+ 2 i 0.40570(9) 0.14320(9) 0.93581(8) 0.0194(3) 0.833(4) 0
Na1 Na1+ 2 i 0.40570(9) 0.14320(9) 0.93581(8) 0.0194(3) 0.167(8) 0
Ag2 Ag1+ 2 i -0.10888(11) 0.15255(13) 0.92123(10) 0.0278(3) 0.708(5) 0
Na2 Na1+ 2 i -0.10888(11) 0.15255(13) 0.92123(10) 0.0278(3) 0.292(8) 0
Ag3 Ag1+ 2 i 0.24782(12) 0.97254(12) 0.47319(11) 0.0173(3) 0.527(4) 0
Na3 Na1+ 2 i 0.24782(12) 0.97254(12) 0.47319(11) 0.0173(3) 0.473(8) 0
O1 O2- 2 i 0.2795(7) 0.7125(7) 1.2563(6) 0.0184(10) 1 0
O2 O2- 2 i 0.2847(7) 0.3639(7) 1.0825(6) 0.0164(10) 1 0
O3 O2- 2 i 0.2647(7) 0.6107(7) 0.9260(6) 0.0189(10) 1 0
O4 O2- 2 i 0.2389(6) 0.4348(6) 0.3654(5) 0.0115(9) 1 0
O5 O2- 2 i 0.3870(6) 0.3088(6) 0.7529(5) 0.0098(8) 1 0
O6 O2- 2 i 0.5302(6) 0.7705(6) 1.5190(5) 0.0111(9) 1 0
O7 O2- 2 i 0.0860(6) 0.1790(7) 0.4672(6) 0.0142(9) 1 0
O8 O2- 2 i -0.0573(7) 0.1214(7) 0.1630(6) 0.0159(10) 1 0
O9 O2- 2 i 0.0571(6) 0.4905(6) 0.6238(5) 0.0113(9) 1 0
O10 O2- 2 i 0.4147(6) 0.5666(6) 0.6783(5) 0.0094(8) 1 0
O11 O2- 2 i 0.5864(6) 0.9570(7) 0.8439(6) 0.0169(10) 1 0
O12 O2- 2 i 0.2510(6) 0.8156(6) 0.6336(6) 0.0117(9) 1 0
O13 O2- 2 i 0.0388(6) 0.2362(7) 0.7601(6) 0.0135(9) 1 0
loop_
_atom_site_aniso_label
_atom_site_aniso_type_symbol
_atom_site_aniso_U_11
_atom_site_aniso_U_22
_atom_site_aniso_U_33
_atom_site_aniso_U_12
_atom_site_aniso_U_13
_atom_site_aniso_U_23
Mo1 Mo6+ 0.0066(3) 0.0069(3) 0.0065(3) 0.00209(19) 0.00062(19) 0.0042(2)
Mo2 Mo6+ 0.0067(3) 0.0091(3) 0.0067(3) 0.00284(19) 0.00147(19) 0.0059(2)
Mo3 Mo6+ 0.0072(3) 0.0109(3) 0.0066(3) 0.0037(2) 0.00137(19) 0.0060(2)
As1 As5+ 0.0066(3) 0.0067(3) 0.0058(3) 0.0016(2) 0.0007(2) 0.0041(2)
Ag1 Ag1+ 0.0228(4) 0.0176(4) 0.0158(4) 0.0095(3) 0.0055(3) 0.0050(3)
Na1 Na1+ 0.0228(4) 0.0176(4) 0.0158(4) 0.0095(3) 0.0055(3) 0.0050(3)
Ag2 Ag1+ 0.0221(5) 0.0427(6) 0.0234(5) 0.0058(4) 0.0113(3) 0.0224(4)
Na2 Na1+ 0.0221(5) 0.0427(6) 0.0234(5) 0.0058(4) 0.0113(3) 0.0224(4)
Ag3 Ag1+ 0.0183(5) 0.0123(5) 0.0218(5) 0.0039(3) 0.0041(3) 0.0106(4)
Na3 Na1+ 0.0183(5) 0.0123(5) 0.0218(5) 0.0039(3) 0.0041(3) 0.0106(4)
O1 O2- 0.016(2) 0.025(3) 0.024(3) 0.012(2) 0.007(2) 0.017(2)
O2 O2- 0.019(2) 0.019(2) 0.011(2) 0.0084(19) 0.0034(19) 0.0054(19)
O3 O2- 0.028(3) 0.019(2) 0.010(2) 0.009(2) 0.007(2) 0.006(2)
O4 O2- 0.0052(19) 0.016(2) 0.013(2) 0.0006(17) 0.0017(17) 0.0086(18)
O5 O2- 0.009(2) 0.015(2) 0.012(2) 0.0073(17) 0.0054(17) 0.0097(18)
O6 O2- 0.014(2) 0.013(2) 0.007(2) 0.0032(17) 0.0051(17) 0.0063(17)
O7 O2- 0.014(2) 0.020(2) 0.017(2) 0.0083(19) 0.0054(18) 0.015(2)
O8 O2- 0.018(2) 0.014(2) 0.011(2) 0.0040(19) 0.0062(19) 0.0019(18)
O9 O2- 0.009(2) 0.011(2) 0.013(2) 0.0027(17) -0.0005(17) 0.0069(18)
O10 O2- 0.010(2) 0.009(2) 0.013(2) 0.0031(16) 0.0038(17) 0.0085(18)
O11 O2- 0.016(2) 0.015(2) 0.013(2) 0.0020(19) 0.0001(18) 0.0046(19)
O12 O2- 0.007(2) 0.013(2) 0.020(2) 0.0061(17) 0.0052(18) 0.0110(19)
O13 O2- 0.011(2) 0.019(2) 0.016(2) 0.0062(18) 0.0047(18) 0.013(2)
#End of TTdata_260892-ICSD