
#(C) 2019 by FIZ Karlsruhe - Leibniz Institute for Information Infrastructure.  All rights reserved.
data_261314-ICSD
_database_code_ICSD 261314
_audit_creation_date 2011-08-01
_chemical_name_systematic 'Sodium manganese oxide (4.32/9/18)'
_chemical_formula_structural 'Na4.32 Mn9 O18'
_chemical_formula_sum 'Mn9 Na4.32 O18'
_exptl_crystal_density_diffrn 4.34
_cell_measurement_temperature 296.
_publ_section_title

;
The tunnel manganese oxide Na4.32 Mn9 O18: a new Na+ site discovered by
single-crystal X-ray diffraction
;
loop_
_citation_id
_citation_journal_full
_citation_year
_citation_journal_volume
_citation_page_first
_citation_page_last
_citation_journal_id_ASTM
primary 'Acta Crystallographica, Section C: Crystal Structure Communications'
2011 67 i10 i12 ACSCEE
loop_
_publ_author_name
'Chu Qingxin'
'Wang Xiaofeng'
'Li Qiliang'
'Liu Xiaoyang'
_cell_length_a 9.084(4)
_cell_length_b 26.311(10)
_cell_length_c 2.8223(11)
_cell_angle_alpha 90.
_cell_angle_beta 90.
_cell_angle_gamma 90.
_cell_volume 674.56
_cell_formula_units_Z 2
_symmetry_space_group_name_H-M 'P b a m'
_symmetry_Int_Tables_number 55
_refine_ls_R_factor_all 0.0315
loop_
_symmetry_equiv_pos_site_id
_symmetry_equiv_pos_as_xyz
1 'x+1/2, -y+1/2, z'
2 '-x+1/2, y+1/2, z'
3 'x, y, -z'
4 '-x, -y, -z'
5 '-x+1/2, y+1/2, -z'
6 'x+1/2, -y+1/2, -z'
7 '-x, -y, z'
8 'x, y, z'
loop_
_atom_type_symbol
_atom_type_oxidation_number
Na1+ 1
Mn3+ 3.5
O2- -2
loop_
_atom_site_label
_atom_site_type_symbol
_atom_site_symmetry_multiplicity
_atom_site_Wyckoff_symbol
_atom_site_fract_x
_atom_site_fract_y
_atom_site_fract_z
_atom_site_B_iso_or_equiv
_atom_site_occupancy
_atom_site_attached_hydrogens
Na1 Na1+ 4 g 0.2187(3) 0.20229(9) 0. 0.0262(9) 0.922(9) 0
Na2 Na1+ 4 h 0.7053(5) 0.08465(18) 0.5 0.0230(17) 0.474(9) 0
Na3 Na1+ 4 g 0.1233(5) 0.00419(16) 0. 0.0298(17) 0.532(9) 0
Na4 Na1+ 4 g 0.7440(11) 0.0623(4) 0. 0.027(4) 0.233(9) 0
Mn1 Mn3+ 4 h 0.86356(8) 0.19353(3) 0.5 0.00746(17) 1 0
Mn2 Mn3+ 2 c 0.5 0. 0. 0.0102(2) 1 0
Mn3 Mn3+ 4 g 0.54351(8) 0.19491(3) 0. 0.00920(18) 1 0
Mn4 Mn3+ 4 h 0.36271(8) 0.08892(3) 0.5 0.00872(17) 1 0
Mn5 Mn3+ 4 g 0.01709(8) 0.10997(3) 0. 0.00859(17) 1 0
O1 O2- 4 h 0.9700(4) 0.06632(12) 0.5 0.0122(7) 1 0
O2 O2- 4 g 0.9184(4) 0.23592(12) 0. 0.0078(7) 1 0
O3 O2- 4 h 0.0484(4) 0.15959(12) 0.5 0.0097(7) 1 0
O4 O2- 4 g 0.4998(4) 0.07295(13) 0. 0.0104(7) 1 0
O5 O2- 4 g 0.2264(4) 0.09600(13) 0. 0.0134(8) 1 0
O6 O2- 4 h 0.3600(4) 0.00300(13) 0.5 0.0119(7) 1 0
O7 O2- 4 h 0.4321(4) 0.16637(13) 0.5 0.0129(8) 1 0
O8 O2- 4 h 0.6685(4) 0.21980(14) 0.5 0.0122(7) 1 0
O9 O2- 4 g 0.8152(4) 0.14674(13) 0. 0.0165(8) 1 0
loop_
_atom_site_aniso_label
_atom_site_aniso_type_symbol
_atom_site_aniso_U_11
_atom_site_aniso_U_22
_atom_site_aniso_U_33
_atom_site_aniso_U_12
_atom_site_aniso_U_13
_atom_site_aniso_U_23
Na1 Na1+ 0.0185(15) 0.0181(15) 0.0420(19) -0.0033(10) 0. 0.
Na2 Na1+ 0.017(3) 0.017(3) 0.035(3) -0.0042(19) 0. 0.
Na3 Na1+ 0.030(3) 0.013(2) 0.047(3) 0.0011(18) 0. 0.
Na4 Na1+ 0.027(6) 0.017(6) 0.037(7) -0.001(4) 0. 0.
Mn1 Mn3+ 0.0092(4) 0.0085(3) 0.0047(4) -0.0003(3) 0. 0.
Mn2 Mn3+ 0.0155(6) 0.0115(5) 0.0038(5) 0.0060(4) 0. 0.
Mn3 Mn3+ 0.0113(4) 0.0118(4) 0.0044(4) -0.0007(3) 0. 0.
Mn4 Mn3+ 0.0112(4) 0.0107(4) 0.0043(4) 0.0011(3) 0. 0.
Mn5 Mn3+ 0.0099(4) 0.0113(4) 0.0046(4) 0.0017(3) 0. 0.
O1 O2- 0.0153(18) 0.0106(17) 0.0107(18) 0.0007(14) 0. 0.
O2 O2- 0.0108(17) 0.0081(16) 0.0046(16) -0.0003(13) 0. 0.
O3 O2- 0.0122(17) 0.0100(16) 0.0068(17) 0.0030(14) 0. 0.
O4 O2- 0.0142(18) 0.0122(17) 0.0048(17) 0.0011(14) 0. 0.
O5 O2- 0.0137(18) 0.0191(19) 0.0075(18) 0.0031(15) 0. 0.
O6 O2- 0.0088(17) 0.0208(19) 0.0060(17) 0.0024(14) 0. 0.
O7 O2- 0.0190(19) 0.0148(18) 0.0048(17) -0.0040(15) 0. 0.
O8 O2- 0.0071(16) 0.0217(18) 0.0078(17) 0.0007(14) 0. 0.
O9 O2- 0.029(2) 0.0169(18) 0.0040(17) -0.0099(16) 0. 0.
#End of TTdata_261314-ICSD