
#(C) 2019 by FIZ Karlsruhe - Leibniz Institute for Information Infrastructure.  All rights reserved.
data_261361-ICSD
_database_code_ICSD 261361
_audit_creation_date 2011-08-01
_chemical_name_systematic 'Sodium calcium magnesium phosphate (8/1.5/12.5/12)'
_chemical_formula_structural 'Na8 Ca1.5 Mg12.5 (P O4)12'
_chemical_formula_sum 'Ca1.5 Mg12.5 Na8 O48 P12'
_exptl_crystal_density_diffrn 2.89
_cell_measurement_temperature 293.
_publ_section_title

;
Structure and 31P NMR spectroscopy of a new phosphate, Na8 Ca1.5 Mg12.5 (P
O4)12
;
loop_
_citation_id
_citation_journal_full
_citation_year
_citation_journal_volume
_citation_page_first
_citation_page_last
_citation_journal_id_ASTM
primary 'Acta Crystallographica, Section C: Crystal Structure Communications'
2011 67 i17 i20 ACSCEE
loop_
_publ_author_name
'Jerbi, H.'
'Hidouri, M.'
'Rzeigui, M.'
'Ben Amara, M.'
_cell_length_a 10.185(8)
_cell_length_b 14.860(8)
_cell_length_c 25.610(9)
_cell_angle_alpha 90.
_cell_angle_beta 90.87(2)
_cell_angle_gamma 90.
_cell_volume 3875.6
_cell_formula_units_Z 4
_symmetry_space_group_name_H-M 'P 1 21/n 1'
_symmetry_Int_Tables_number 14
_refine_ls_R_factor_all 0.0508
loop_
_symmetry_equiv_pos_site_id
_symmetry_equiv_pos_as_xyz
1 '-x+1/2, y+1/2, -z+1/2'
2 '-x, -y, -z'
3 'x+1/2, -y+1/2, z+1/2'
4 'x, y, z'
loop_
_atom_type_symbol
_atom_type_oxidation_number
Ca2+ 2
Na1+ 1
Mg2+ 2
Na1+ 1
Mg2+ 2
Na1+ 1
P5+ 5
O2- -2
P5+ 5
O2- -2
P5+ 5
O2- -2
P5+ 5
O2- -2
P5+ 5
O2- -2
P5+ 5
O2- -2
P5+ 5
O2- -2
P5+ 5
O2- -2
P5+ 5
O2- -2
P5+ 5
O2- -2
P5+ 5
O2- -2
P5+ 5
O2- -2
loop_
_atom_site_label
_atom_site_type_symbol
_atom_site_symmetry_multiplicity
_atom_site_Wyckoff_symbol
_atom_site_fract_x
_atom_site_fract_y
_atom_site_fract_z
_atom_site_B_iso_or_equiv
_atom_site_occupancy
_atom_site_attached_hydrogens
Ca1 Ca2+ 4 e 0.03890(6) 0.75887(4) 0.20047(3) 0.01083(13) 1 0
Ca2 Ca2+ 4 e -0.0510(3) 1.1548(2) 0.18414(12) 0.0078(5) 0.5 0
Na1 Na1+ 4 e -0.0417(10) 1.1536(7) 0.1851(4) 0.047(3) 0.5 0
Mg1 Mg2+ 4 e 0.13318(12) 0.25939(7) 0.28896(5) 0.0122(2) 1 0
Mg2 Mg2+ 4 e 0.02687(11) 0.35899(8) 0.43806(4) 0.0114(2) 1 0
Mg3 Mg2+ 4 e -0.00689(11) 0.86855(7) 0.06842(4) 0.0097(2) 1 0
Mg4 Mg2+ 4 e -0.24552(11) 0.54964(8) -0.00055(4) 0.0106(2) 1 0
Mg5 Mg2+ 4 e -0.24876(11) 0.51893(8) 0.25547(4) 0.0101(2) 1 0
Mg6 Mg2+ 4 e 0.25457(11) 1.05874(8) 0.12340(5) 0.0111(2) 1 0
Mg7 Mg2+ 4 e 0.47780(12) 0.64239(8) 0.05845(4) 0.0118(2) 1 0
Mg8 Mg2+ 4 e -0.00928(11) 0.63197(8) 0.06249(4) 0.0107(2) 1 0
Mg9 Mg2+ 4 e 0.00964(11) 0.89623(7) 0.31407(4) 0.0086(2) 1 0
Mg10 Mg2+ 4 e 0.25012(11) 0.98214(8) 0.38009(4) 0.0099(2) 1 0
Mg11 Mg2+ 4 e -0.02663(11) 0.37053(7) 0.18538(4) 0.0094(2) 1 0
Mg12 Mg2+ 4 e -0.00598(12) 0.62661(8) 0.31431(5) 0.0103(2) 0.50000(10) 0
Na2 Na1+ 4 e -0.00598(12) 0.62661(8) 0.31431(5) 0.0103(2) 0.5000(2) 0
Mg13 Mg2+ 4 e -0.25273(12) 0.44846(9) 0.49955(5) 0.0173(3) 1 0
Na3 Na1+ 4 e -0.17658(18) 0.26079(13) 0.35346(7) 0.0289(4) 1 0
Na4 Na1+ 4 e -0.41066(19) 0.24819(11) 0.57425(8) 0.0286(4) 1 0
Na5 Na1+ 4 e -0.2491(2) 1.0208(2) 0.12454(10) 0.0315(7) 0.728(3) 0
Na6 Na1+ 4 e -0.2456(7) 0.9662(7) 0.1236(3) 0.0315(7) 0.272(3) 0
Na7 Na1+ 4 e 0.25667(15) 1.01018(14) 0.25198(6) 0.0306(4) 1 0
Na8 Na1+ 4 e 0.0499(2) 0.75218(12) 0.41828(9) 0.0406(5) 1 0
Na9 Na1+ 4 e -0.2250(2) 0.24009(14) 0.02380(9) 0.0344(5) 0.913(3) 0
Na10 Na1+ 4 e -0.233(2) 0.7733(15) 0.3803(10) 0.0344(5) 0.087(3) 0
Na11 Na1+ 4 e -0.25104(15) 0.50484(16) 0.12426(6) 0.0326(5) 1 0
P1 P5+ 4 e 0.02147(8) 0.95895(5) 0.18708(3) 0.00753(15) 1 0
O1 O2- 4 e 0.0595(2) 0.90795(16) 0.23705(9) 0.0114(4) 1 0
O2 O2- 4 e -0.1133(2) 1.00299(17) 0.19193(9) 0.0121(4) 1 0
O3 O2- 4 e 0.1198(2) 1.03491(18) 0.17691(10) 0.0167(5) 1 0
O4 O2- 4 e 0.0218(3) 0.88897(17) 0.14349(10) 0.0180(5) 1 0
P2 P5+ 4 e -0.00118(8) 0.55607(5) 0.18630(3) 0.00726(15) 1 0
O5 O2- 4 e -0.1208(2) 0.49587(15) 0.19862(9) 0.0094(4) 1 0
O6 O2- 4 e 0.1054(2) 0.48755(15) 0.17203(9) 0.0102(4) 1 0
O7 O2- 4 e 0.0419(2) 0.61038(16) 0.23457(9) 0.0122(4) 1 0
O8 O2- 4 e -0.0344(2) 0.62143(17) 0.14216(10) 0.0148(5) 1 0
P3 P5+ 4 e -0.02812(8) 0.41847(5) 0.05821(3) 0.00670(14) 1 0
O9 O2- 4 e 0.1223(2) 0.43586(18) 0.06215(9) 0.0141(5) 1 0
O10 O2- 4 e -0.0766(2) 0.37619(16) 0.10805(10) 0.0137(5) 1 0
O11 O2- 4 e -0.0985(2) 0.50938(16) 0.04897(10) 0.0126(5) 1 0
O12 O2- 4 e -0.0562(2) 0.35599(16) 0.01221(9) 0.0130(5) 1 0
P4 P5+ 4 e 0.24862(8) 0.76285(5) 0.32077(3) 0.00752(15) 1 0
O13 O2- 4 e 0.2226(2) 0.75451(16) 0.26206(9) 0.0131(5) 1 0
O14 O2- 4 e 0.1849(2) 0.84794(15) 0.34330(9) 0.0115(4) 1 0
O15 O2- 4 e 0.1875(3) 0.68076(16) 0.34859(11) 0.0182(5) 1 0
O16 O2- 4 e 0.3976(2) 0.76640(16) 0.33051(10) 0.0126(5) 1 0
P5 P5+ 4 e -0.02864(8) 0.93536(5) 0.44014(3) 0.00714(15) 1 0
O17 O2- 4 e -0.0667(2) 0.89704(16) 0.38701(9) 0.0117(4) 1 0
O18 O2- 4 e -0.1050(2) 1.02306(16) 0.45045(9) 0.0125(4) 1 0
O19 O2- 4 e -0.0584(3) 0.86500(16) 0.48186(9) 0.0156(5) 1 0
O20 O2- 4 e 0.1195(2) 0.95971(19) 0.44020(9) 0.0154(5) 1 0
P6 P5+ 4 e -0.00093(8) 1.08524(5) 0.31704(3) 0.00662(15) 1 0
O21 O2- 4 e 0.1165(2) 1.02216(15) 0.32591(9) 0.0104(4) 1 0
O22 O2- 4 e -0.1139(2) 1.02101(16) 0.30139(9) 0.0111(4) 1 0
O23 O2- 4 e 0.0256(2) 1.15306(16) 0.27346(10) 0.0140(5) 1 0
O24 O2- 4 e -0.0332(3) 1.13666(17) 0.36644(10) 0.0167(5) 1 0
P7 P5+ 4 e 0.22616(8) 0.71411(6) 0.09753(3) 0.00896(16) 1 0
O25 O2- 4 e 0.2400(2) 0.73654(17) 0.15567(9) 0.0126(5) 1 0
O26 O2- 4 e 0.3371(3) 0.75448(19) 0.06542(10) 0.0178(5) 1 0
O27 O2- 4 e 0.0914(2) 0.74886(15) 0.07798(9) 0.0102(4) 1 0
O28 O2- 4 e 0.2274(3) 0.61222(18) 0.08776(11) 0.0276(7) 1 0
P8 P5+ 4 e -0.20479(8) 0.74507(5) 0.27241(3) 0.00960(16) 1 0
O29 O2- 4 e -0.1915(3) 0.76287(18) 0.21468(11) 0.0180(5) 1 0
O30 O2- 4 e -0.0719(3) 0.77045(17) 0.29927(10) 0.0161(5) 1 0
O31 O2- 4 e -0.2155(3) 0.64198(17) 0.28366(11) 0.0184(5) 1 0
O32 O2- 4 e -0.3225(3) 0.7906(2) 0.29628(11) 0.0237(6) 1 0
P9 P5+ 4 e -0.23778(9) 0.25539(6) 0.46735(4) 0.01667(19) 1 0
O33 O2- 4 e -0.0975(2) 0.25301(15) 0.44622(9) 0.0105(4) 1 0
O34 O2- 4 e -0.3014(3) 0.16283(13) 0.46219(13) 0.0244(6) 1 0
O35 O2- 4 e -0.3134(4) 0.3141(3) 0.42693(16) 0.0253(9) 0.647(3) 0
O36 O2- 4 e -0.3173(7) 0.3396(4) 0.4531(4) 0.0253(9) 0.353(3) 0
O37 O2- 4 e -0.2420(6) 0.3088(4) 0.51844(15) 0.0338(11) 0.572(3) 0
O38 O2- 4 e -0.2240(8) 0.2603(6) 0.52739(9) 0.0338(11) 0.428(3) 0
P10 P5+ 4 e -0.02899(8) 0.56274(6) 0.43968(3) 0.01080(16) 1 0
O39 O2- 4 e 0.1192(3) 0.5369(2) 0.43799(12) 0.0276(7) 1 0
O40 O2- 4 e -0.0655(3) 0.61483(19) 0.38992(10) 0.0193(5) 1 0
O41 O2- 4 e -0.0643(3) 0.62146(19) 0.48584(11) 0.0227(6) 1 0
O42 O2- 4 e -0.1031(3) 0.47208(17) 0.44233(11) 0.0204(6) 1 0
P11 P5+ 4 e 0.01212(8) 0.42571(5) 0.31475(3) 0.00727(15) 1 0
O43 O2- 4 e 0.0537(2) 0.37489(16) 0.26489(9) 0.0130(5) 1 0
O44 O2- 4 e 0.1098(3) 0.50210(17) 0.32612(10) 0.0175(5) 1 0
O45 O2- 4 e 0.0152(3) 0.35548(18) 0.35825(10) 0.0198(5) 1 0
O46 O2- 4 e -0.1220(3) 0.4675(2) 0.30766(10) 0.0206(6) 1 0
P12 P5+ 4 e -0.03169(8) 1.08027(6) 0.05514(3) 0.01004(16) 1 0
O47 O2- 4 e -0.1057(3) 0.99014(17) 0.05580(12) 0.0218(6) 1 0
O48 O2- 4 e 0.1167(3) 1.0601(3) 0.06303(12) 0.0320(7) 1 0
O49 O2- 4 e -0.0811(3) 1.1417(2) 0.09748(12) 0.0286(7) 1 0
O50 O2- 4 e -0.0580(3) 1.1258(2) 0.00300(11) 0.0295(7) 1 0
loop_
_atom_site_aniso_label
_atom_site_aniso_type_symbol
_atom_site_aniso_U_11
_atom_site_aniso_U_22
_atom_site_aniso_U_33
_atom_site_aniso_U_12
_atom_site_aniso_U_13
_atom_site_aniso_U_23
Ca1 Ca2+ 0.0105(3) 0.0074(3) 0.0147(3) 0.0003(2) 0.0029(2) 0.0004(2)
Ca2 Ca2+ 0.0095(9) 0.0055(12) 0.0085(11) -0.0021(8) 0.0026(7) -0.0002(9)
Na1 Na1+ 0.069(6) 0.028(5) 0.044(5) -0.004(4) 0.005(4) 0.003(4)
Mg1 Mg2+ 0.0115(5) 0.0081(5) 0.0171(6) -0.0009(4) -0.0024(4) 0.0041(4)
Mg2 Mg2+ 0.0137(5) 0.0112(5) 0.0095(5) 0.0016(4) 0.0017(4) 0.0004(4)
Mg3 Mg2+ 0.0107(5) 0.0085(5) 0.0099(5) 0.0004(4) 0.0012(4) 0.0000(4)
Mg4 Mg2+ 0.0093(5) 0.0126(5) 0.0098(5) -0.0004(4) 0.0017(4) -0.0011(4)
Mg5 Mg2+ 0.0088(5) 0.0116(5) 0.0101(5) 0.0004(4) 0.0019(4) 0.0000(4)
Mg6 Mg2+ 0.0094(5) 0.0106(5) 0.0133(5) 0.0000(4) 0.0018(4) -0.0008(4)
Mg7 Mg2+ 0.0163(6) 0.0104(5) 0.0088(5) 0.0011(4) 0.0005(4) -0.0006(4)
Mg8 Mg2+ 0.0143(5) 0.0085(5) 0.0092(5) -0.0026(4) 0.0024(4) -0.0007(4)
Mg9 Mg2+ 0.0107(5) 0.0074(5) 0.0076(5) -0.0002(4) 0.0018(4) -0.0003(4)
Mg10 Mg2+ 0.0081(5) 0.0123(5) 0.0093(5) 0.0002(4) 0.0023(4) 0.0013(4)
Mg11 Mg2+ 0.0110(5) 0.0077(5) 0.0096(5) 0.0008(4) 0.0024(4) 0.0004(4)
Mg12 Mg2+ 0.0134(6) 0.0118(5) 0.0058(5) 0.0049(4) 0.0022(4) 0.0010(4)
Na2 Na1+ 0.0134(6) 0.0118(5) 0.0058(5) 0.0049(4) 0.0022(4) 0.0010(4)
Mg13 Mg2+ 0.0148(6) 0.0201(6) 0.0169(6) -0.0007(5) 0.0029(5) -0.0016(5)
Na3 Na1+ 0.0134(6) 0.0118(5) 0.0058(5) 0.0049(4) 0.0022(4) 0.0010(4)
Na4 Na1+ 0.0342(10) 0.0188(8) 0.0331(10) -0.0015(7) 0.0047(7) -0.0009(7)
Na5 Na1+ 0.0138(9) 0.067(2) 0.0137(9) 0.0017(14) 0.0008(7) 0.0123(14)
Na6 Na1+ 0.0138(9) 0.067(2) 0.0137(9) 0.0017(14) 0.0008(7) 0.0123(14)
Na7 Na1+ 0.0150(7) 0.0628(13) 0.0140(8) -0.0047(8) 0.0011(6) -0.0006(8)
Na8 Na1+ 0.0489(13) 0.0200(9) 0.0532(13) -0.0007(8) 0.0158(10) -0.0133(8)
Na9 Na1+ 0.0321(11) 0.0266(10) 0.0444(13) -0.0001(8) 0.0001(9) 0.0079(9)
Na10 Na1+ 0.0321(11) 0.0266(10) 0.0444(13) -0.0001(8) 0.0001(9) 0.0079(9)
Na11 Na1+ 0.0126(7) 0.0741(14) 0.0110(7) -0.0029(8) 0.0020(6) -0.0050(8)
P1 P5+ 0.0084(3) 0.0071(3) 0.0072(3) 0.0013(3) 0.0021(3) 0.0010(3)
O1 O2- 0.0171(11) 0.0101(10) 0.0071(10) 0.0026(9) 0.0006(8) 0.0010(8)
O2 O2- 0.0083(10) 0.0161(11) 0.0121(11) 0.0028(8) 0.0032(8) 0.0025(9)
O3 O2- 0.0123(11) 0.0174(12) 0.0204(13) -0.0034(9) 0.0033(9) 0.0074(10)
O4 O2- 0.0316(15) 0.0139(11) 0.0086(11) 0.0078(10) 0.0005(10) -0.0031(9)
P2 P5+ 0.0076(3) 0.0062(3) 0.0080(4) -0.0002(3) 0.0022(3) 0.0001(3)
O5 O2- 0.0079(10) 0.0094(10) 0.0112(11) -0.0005(8) 0.0035(8) -0.0008(8)
O6 O2- 0.0090(10) 0.0096(10) 0.0121(11) 0.0011(8) 0.0032(8) -0.0006(8)
O7 O2- 0.0132(11) 0.0107(10) 0.0126(11) -0.0010(9) 0.0005(9) -0.0016(8)
O8 O2- 0.0184(12) 0.0130(11) 0.0131(12) 0.0014(9) 0.0027(9) 0.0053(9)
P3 P5+ 0.0072(3) 0.0060(3) 0.0069(3) 0.0001(3) 0.0016(3) -0.0002(3)
O9 O2- 0.0068(10) 0.0242(13) 0.0114(11) -0.0018(9) 0.0021(8) -0.0015(9)
O10 O2- 0.0152(11) 0.0132(11) 0.0127(11) -0.0017(9) 0.0012(9) 0.0028(9)
O11 O2- 0.0136(11) 0.0080(10) 0.0163(12) 0.0020(8) -0.0006(9) 0.0019(9)
O12 O2- 0.0164(12) 0.0126(11) 0.0101(11) -0.0038(9) 0.0024(9) -0.0045(9)
P4 P5+ 0.0068(3) 0.0063(3) 0.0095(3) 0.0007(3) 0.0028(3) 0.0004(3)
O13 O2- 0.0118(11) 0.0172(12) 0.0102(11) 0.0003(9) -0.0004(8) -0.0030(9)
O14 O2- 0.0117(11) 0.0086(10) 0.0142(11) 0.0016(8) 0.0020(8) -0.0016(8)
O15 O2- 0.0197(13) 0.0076(11) 0.0277(14) 0.0030(9) 0.0118(10) 0.0062(10)
O16 O2- 0.0089(10) 0.0135(11) 0.0154(12) 0.0002(8) 0.0011(8) 0.0010(9)
P5 P5+ 0.0076(3) 0.0070(3) 0.0068(3) 0.0003(3) 0.0022(3) 0.0002(3)
O17 O2- 0.0146(11) 0.0140(11) 0.0066(10) -0.0007(9) 0.0024(8) -0.0020(8)
O18 O2- 0.0151(11) 0.0110(10) 0.0114(11) 0.0037(9) 0.0017(9) -0.0014(9)
O19 O2- 0.0242(13) 0.0124(11) 0.0101(11) -0.0053(10) -0.0001(9) 0.0039(9)
O20 O2- 0.0067(10) 0.0295(14) 0.0100(11) -0.0026(10) 0.0026(8) -0.0005(10)
P6 P5+ 0.0078(3) 0.0048(3) 0.0073(3) 0.0000(3) 0.0009(3) 0.0002(3)
O21 O2- 0.0083(10) 0.0088(10) 0.0142(11) 0.0011(8) -0.0013(8) 0.0003(8)
O22 O2- 0.0092(10) 0.0127(11) 0.0113(11) -0.0035(8) -0.0005(8) 0.0005(8)
O23 O2- 0.0162(12) 0.0129(11) 0.0127(11) -0.0051(9) -0.0014(9) 0.0043(9)
O24 O2- 0.0207(13) 0.0164(12) 0.0131(12) 0.0063(10) 0.0000(9) -0.0051(9)
P7 P5+ 0.0085(4) 0.0107(4) 0.0078(4) 0.0014(3) 0.0017(3) 0.0000(3)
O25 O2- 0.0095(10) 0.0204(12) 0.0079(10) 0.0006(9) 0.0028(8) -0.0020(9)
O26 O2- 0.0114(11) 0.0298(14) 0.0125(11) -0.0071(10) 0.0049(9) -0.0024(10)
O27 O2- 0.0085(10) 0.0101(10) 0.0119(11) 0.0002(8) -0.0004(8) -0.0013(8)
O28 O2- 0.057(2) 0.0105(12) 0.0148(13) 0.0119(13) -0.0025(13) -0.0011(10)
P8 P5+ 0.0072(3) 0.0100(4) 0.0117(4) -0.0010(3) 0.0033(3) -0.0029(3)
O29 O2- 0.0129(12) 0.0245(13) 0.0166(12) 0.0011(10) 0.0040(9) 0.0002(10)
O30 O2- 0.0138(12) 0.0157(12) 0.0187(13) -0.0045(9) 0.0000(9) -0.0025(10)
O31 O2- 0.0237(13) 0.0097(11) 0.0220(13) -0.0052(10) 0.0077(10) -0.0041(10)
O32 O2- 0.0164(13) 0.0297(15) 0.0253(15) 0.0094(11) 0.0045(11) -0.0066(12)
P9 P5+ 0.0087(4) 0.0127(4) 0.0288(5) -0.0029(3) 0.0083(3) -0.0089(3)
O33 O2- 0.0088(10) 0.0088(10) 0.0140(11) -0.0004(8) 0.0046(8) -0.0003(8)
O34 O2- 0.0152(12) 0.0101(11) 0.0480(19) -0.0022(9) 0.0022(12) 0.0052(12)
P10 P5+ 0.0110(4) 0.0110(4) 0.0103(4) -0.0015(3) -0.0002(3) 0.0011(3)
O39 O2- 0.0120(12) 0.0470(19) 0.0238(15) 0.0040(12) 0.0054(10) 0.0140(13)
O40 O2- 0.0220(13) 0.0207(13) 0.0151(12) 0.0007(10) -0.0024(10) 0.0041(10)
O41 O2- 0.0333(16) 0.0184(13) 0.0162(13) 0.0063(11) -0.0056(11) -0.0067(10)
O42 O2- 0.0235(13) 0.0118(11) 0.0255(14) -0.0012(10) -0.0088(11) 0.0000(10)
P11 P5+ 0.0085(3) 0.0050(3) 0.0083(4) 0.0010(3) 0.0018(3) 0.0004(3)
O43 O2- 0.0170(12) 0.0103(10) 0.0117(11) 0.0065(9) 0.0006(9) -0.0016(8)
O44 O2- 0.0198(13) 0.0157(12) 0.0173(13) -0.0091(10) 0.0033(10) -0.0035(10)
O45 O2- 0.0296(15) 0.0157(12) 0.0140(12) -0.0028(11) -0.0042(10) 0.0073(10)
O46 O2- 0.0146(12) 0.0365(16) 0.0105(12) 0.0145(11) -0.0009(9) -0.0028(11)
P12 P5+ 0.0109(4) 0.0094(3) 0.0099(4) -0.0014(3) 0.0030(3) 0.0018(3)
O47 O2- 0.0191(13) 0.0092(11) 0.0374(17) 0.0002(9) 0.0121(11) 0.0050(11)
O48 O2- 0.0122(13) 0.057(2) 0.0268(16) -0.0028(13) -0.0020(11) -0.0058(15)
O49 O2- 0.0353(17) 0.0278(15) 0.0231(15) -0.0033(13) 0.0091(12) -0.0119(12)
O50 O2- 0.0410(18) 0.0312(16) 0.0168(14) 0.0189(14) 0.0136(12) 0.0117(12)
#End of TTdata_261361-ICSD