
#(C) 2019 by FIZ Karlsruhe - Leibniz Institute for Information Infrastructure.  All rights reserved.
data_26144-ICSD
_database_code_ICSD 26144
_audit_creation_date 1980-01-01
_audit_update_record 1988-03-28
_chemical_name_systematic 'Sodium trio-triphosphate 14-hydrate'
_chemical_formula_structural 'Na5 P3 O8 (H2 O)14'
_chemical_formula_sum 'H28 Na5 O22 P3'
_exptl_crystal_density_diffrn 1.76
_publ_section_title

;
Die Kristallstruktur von Na5 P3 O8 (H2 O)14,
Pentanatrium-triphosphat(IV,III,IV)-14-Wasser
;
loop_
_citation_id
_citation_journal_full
_citation_year
_citation_journal_volume
_citation_page_first
_citation_page_last
_citation_journal_id_ASTM
primary

;
Acta Crystallographica, Section B: Structural Crystallography and Crystal
Chemistry
; 1969 25 1077 1089 ACBCAR
loop_
_publ_author_name
'Mootz, D.'
'Altenburg, H.'
_cell_length_a 12.422(3)
_cell_length_b 16.530(5)
_cell_length_c 7.073(2)
_cell_angle_alpha 89.96(3)
_cell_angle_beta 108.76(3)
_cell_angle_gamma 123.97(2)
_cell_volume 1110.46
_cell_formula_units_Z 2
_symmetry_space_group_name_H-M 'P -1'
_symmetry_Int_Tables_number 2
_refine_ls_R_factor_all 0.082
loop_
_symmetry_equiv_pos_site_id
_symmetry_equiv_pos_as_xyz
1 '-x, -y, -z'
2 'x, y, z'
loop_
_atom_type_symbol
_atom_type_oxidation_number
P4+ 4
P3+ 3
P4+ 4
Na1+ 1
O2- -2
H1+ 1
loop_
_atom_site_label
_atom_site_type_symbol
_atom_site_symmetry_multiplicity
_atom_site_Wyckoff_symbol
_atom_site_fract_x
_atom_site_fract_y
_atom_site_fract_z
_atom_site_B_iso_or_equiv
_atom_site_occupancy
_atom_site_attached_hydrogens
P1 P4+ 2 i 0.4182(2) 0.1249(1) 0.1589(2) . 1. 0
P2 P3+ 2 i 0.4588(2) 0.2741(1) 0.1567(2) . 1. 0
P3 P4+ 2 i 0.2758(2) 0.2581(1) -.0894(2) . 1. 0
Na1 Na1+ 2 i 0.6368(3) 0.4951(2) 0.5029(4) . 1. 0
Na2 Na1+ 2 i 0.5242(4) 0.3143(2) 0.7134(4) . 1. 0
Na3 Na1+ 2 i 0.7254(4) 0.2057(2) 0.8177(5) . 1. 0
Na4 Na1+ 2 i 0.9682(3) 0.2248(2) 1.2401(4) . 1. 0
Na5 Na1+ 2 i 0.8929(3) -.0044(2) 1.2710(4) . 1. 0
O1 O2- 2 i 0.5647(5) 0.1508(4) 0.2690(7) . 1. 0
O2 O2- 2 i 0.3468(5) 0.0679(3) -.0644(6) . 1. 0
O3 O2- 2 i 0.3242(5) 0.0720(3) 0.2812(7) . 1. 0
O4 O2- 2 i 0.5793(5) 0.3353(3) 0.0822(7) . 1. 0
O5 O2- 2 i 0.4842(6) 0.3202(3) 0.3675(7) . 1. 0
O6 O2- 2 i 0.2677(6) 0.3407(3) -.0073(7) . 1. 0
O7 O2- 2 i 0.3155(5) 0.2788(3) -.2767(7) . 1. 0
O8 O2- 2 i 0.1412(5) 0.1530(3) -.1313(7) . 1. 0
O9 O2- 2 i 0.7815(6) 0.6728(4) 0.6344(8) . 1. 0
O10 O2- 2 i 0.7513(6) 0.5343(4) 0.2676(8) . 1. 0
O11 O2- 2 i 0.7946(8) 0.4719(5) 0.7810(11) . 1. 0
O12 O2- 2 i 0.5262(6) 0.4780(4) 0.7373(7) . 1. 0
O13 O2- 2 i 0.4947(6) 0.1609(4) 0.6952(7) . 1. 0
O14 O2- 2 i 0.7994(7) 0.3523(4) 1.0477(9) . 1. 0
O15 O2- 2 i 0.7828(7) 0.3108(4) 0.5700(9) . 1. 0
O16 O2- 2 i 0.7158(6) 0.1255(4) 1.0894(8) . 1. 0
O17 O2- 2 i 0.7007(6) 0.0925(4) 0.5763(8) . 1. 0
O18 O2- 2 i 1.0111(7) 0.3162(5) 0.9492(10) . 1. 0
O19 O2- 2 i 0.9868(7) 0.3613(5) 1.4137(10) . 1. 0
O20 O2- 2 i 0.9392(6) 0.1348(4) 0.5014(8) . 1. 0
O21 O2- 2 i 0.9374(6) 0.0955(4) 0.0215(7) . 1. 0
O22 O2- 2 i 0.8514(6) -.0855(4) 0.5561(8) . 1. 0
H1 H1+ 2 i 0.751 0.677 0.739 2.067 1. 0
H2 H1+ 2 i 0.742 0.697 0.505 2.067 1. 0
H3 H1+ 2 i 0.745 0.582 0.168 2.4 1. 0
H4 H1+ 2 i 0.675 0.461 0.177 2.4 1. 0
H5 H1+ 2 i 0.825 0.44 0.895 3.728 1. 0
H6 H1+ 2 i 0.874 0.559 0.831 3.728 1. 0
H7 H1+ 2 i 0.607 0.542 0.795 2.033 1. 0
H8 H1+ 2 i 0.476 0.435 0.818 2.033 1. 0
H9 H1+ 2 i 0.442 0.159 0.552 2.146 1. 0
H10 H1+ 2 i 0.445 0.154 0.778 2.146 1. 0
H11 H1+ 2 i 0.722 0.325 1.08 2.901 1. 0
H12 H1+ 2 i 0.858 0.354 1.188 2.901 1. 0
H13 H1+ 2 i 0.694 0.263 0.428 2.792 1. 0
H14 H1+ 2 i 0.788 0.364 0.664 2.792 1. 0
H15 H1+ 2 i 0.677 0.14 1.156 2.015 1. 0
H16 H1+ 2 i 0.681 0.055 1.112 2.015 1. 0
H17 H1+ 2 i 0.683 0.027 0.61 2.258 1. 0
H18 H1+ 2 i 0.593 0.071 0.45 2.258 1. 0
H19 H1+ 2 i 1.086 0.321 0.88 3.396 1. 0
H20 H1+ 2 i 1.066 0.3 1.088 3.396 1. 0
H21 H1+ 2 i 1.097 0.399 0.541 3.4 1. 0
H22 H1+ 2 i 0.926 0.366 1.477 3.4 1. 0
H23 H1+ 2 i 0.997 0.147 0.66 2.628 1. 0
H24 H1+ 2 i 0.873 0.134 0.572 2.628 1. 0
H25 H1+ 2 i 0.838 0.041 0.898 2.183 1. 0
H26 H1+ 2 i 1.013 0.105 0.95 2.183 1. 0
H27 H1+ 2 i 0.763 -.082 0.56 2.144 1. 0
H28 H1+ 2 i 0.773 -.16 0.478 2.144 1. 0
loop_
_atom_site_aniso_label
_atom_site_aniso_type_symbol
_atom_site_aniso_B_11
_atom_site_aniso_B_22
_atom_site_aniso_B_33
_atom_site_aniso_B_12
_atom_site_aniso_B_13
_atom_site_aniso_B_23
P1 P4+ 0.77(5) 0.91(4) 0.57(4) 0.62(4) 0.22(4) 0.25(3)
P2 P3+ 0.81(5) 0.77(4) 0.81(4) 0.47(4) 0.17(5) 0.16(3)
P3 P4+ 0.90(5) 0.94(4) 0.79(4) 0.63(4) 0.27(5) 0.26(3)
Na1 Na1+ 2.26(12) 1.55(9) 1.91(10) 1.10(9) 0.87(10) 0.59(7)
Na2 Na1+ 2.71(14) 2.49(10) 1.81(10) 1.75(11) 1.16(10) 0.92(8)
Na3 Na1+ 3.11(16) 2.98(13) 2.21(12) 2.14(12) 0.75(12) 0.64(9)
Na4 Na1+ 1.95(13) 2.08(11) 2.23(11) 1.12(10) 0.85(10) 0.55(8)
Na5 Na1+ 1.63(11) 1.54(9) 1.49(9) 0.82(9) 0.42(9) 0.33(7)
O1 O2- 1.62(20) 2.05(17) 1.64(16) 1.31(16) 0.31(16) 0.28(13)
O2 O2- 1.43(18) 1.38(14) 0.87(13) 0.82(14) 0.15(14) 0.16(10)
O3 O2- 1.64(19) 1.38(15) 1.38(15) 0.76(14) 0.76(15) 0.53(11)
O4 O2- 1.24(18) 1.47(15) 1.59(16) 0.68(16) 0.52(15) 0.57(12)
O5 O2- 2.50(22) 1.73(16) 1.24(15) 1.05(16) 0.86(16) 0.16(12)
O6 O2- 2.07(21) 1.33(15) 2.13(18) 1.10(16) 0.59(18) 0.06(13)
O7 O2- 2.08(21) 1.95(16) 1.40(15) 1.26(16) 1.04(16) 0.75(12)
O8 O2- 1.43(19) 1.35(15) 1.73(16) 0.65(14) 0.50(16) 0.35(12)
O9 O2- 2.09(22) 2.05(18) 2.01(18) 1.12(17) 0.94(18) 0.44(14)
O10 O2- 2.88(25) 1.74(18) 2.04(19) 1.01(18) 0.94(19) 0.19(14)
O11 O2- 3.60(32) 3.50(27) 3.94(30) 2.28(26) 1.01(28) 1.18(23)
O12 O2- 2.13(21) 1.78(17) 1.82(17) 1.56(16) 0.78(17) 0.61(13)
O13 O2- 2.10(22) 2.30(19) 1.36(16) 1.17(17) 0.58(17) 0.38(13)
O14 O2- 3.14(28) 3.29(24) 2.56(22) 2.20(22) 1.09(22) 1.07(18)
O15 O2- 2.69(26) 2.84(22) 2.47(21) 1.69(20) 1.03(20) 0.40(16)
O16 O2- 1.88(21) 2.06(18) 2.20(19) 1.26(17) 0.82(18) 0.77(14)
O17 O2- 2.58(24) 2.16(19) 2.25(19) 1.16(18) 1.00(19) 0.87(15)
O18 O2- 3.47(31) 4.08(29) 3.23(26) 2.38(25) 1.72(25) 1.39(21)
O19 O2- 3.51(31) 3.76(28) 3.01(25) 2.30(25) 0.99(25) 0.50(21)
O20 O2- 2.65(26) 2.99(22) 2.15(20) 1.90(21) 0.89(20) 0.85(16)
O21 O2- 2.04(22) 2.45(19) 1.64(17) 1.20(18) 0.72(17) 0.44(14)
O22 O2- 1.96(22) 1.99(18) 2.22(18) 1.13(17) 0.91(18) 0.28(14)
#End of TTdata_26144-ICSD