
#(C) 2019 by FIZ Karlsruhe - Leibniz Institute for Information Infrastructure.  All rights reserved.
data_261536-ICSD
_database_code_ICSD 261536
_audit_creation_date 2011-08-01
_chemical_name_systematic 'Disodium zirconodisilicate'
_chemical_formula_structural 'Na1.94 Zr (Si2 O7)'
_chemical_formula_sum 'Na1.94 O7 Si2 Zr1'
_exptl_crystal_density_diffrn 3.08
_publ_section_title

;
Temperature-induced phase transformations of the small-pore zirconosilicate
Na2 Zr Si2 O7 Â· H2 O
;
loop_
_citation_id
_citation_journal_full
_citation_year
_citation_journal_volume
_citation_page_first
_citation_page_last
_citation_journal_id_ASTM
primary 'Solid State Sciences' 2011 13 1187 1190 SSSCFJ
loop_
_publ_author_name
'Petrova, N.R.'
'Noriaki, N.'
'Snejana, B.'
'Petr B.'
'Vladislav, K.-K.'
_cell_length_a 5.4946(2)
_cell_length_b 9.2010(3)
_cell_length_c 12.9839(5)
_cell_angle_alpha 90.
_cell_angle_beta 90.
_cell_angle_gamma 90.
_cell_volume 656.41
_cell_formula_units_Z 4
_symmetry_space_group_name_H-M 'P b n m'
_symmetry_Int_Tables_number 62
_refine_ls_R_factor_all 0.0694
loop_
_symmetry_equiv_pos_site_id
_symmetry_equiv_pos_as_xyz
1 '-x+1/2, y+1/2, z'
2 'x, y, -z+1/2'
3 'x+1/2, -y+1/2, z+1/2'
4 '-x, -y, -z'
5 'x+1/2, -y+1/2, -z'
6 '-x, -y, z+1/2'
7 '-x+1/2, y+1/2, -z+1/2'
8 'x, y, z'
loop_
_atom_type_symbol
_atom_type_oxidation_number
Zr4+ 4
Si4+ 4
O2- -2
Na1+ 1
loop_
_atom_site_label
_atom_site_type_symbol
_atom_site_symmetry_multiplicity
_atom_site_Wyckoff_symbol
_atom_site_fract_x
_atom_site_fract_y
_atom_site_fract_z
_atom_site_B_iso_or_equiv
_atom_site_occupancy
_atom_site_attached_hydrogens
Zr1 Zr4+ 4 a 0 0 0 0.0226(1) 1. 0
Si1 Si4+ 8 d 0.5054(26) 0.1517(5) 0.1296(3) 0.0194(1) 1. 0
O1 O2- 4 c -0.012(7) 0.7066(15) 0.25 0.0079(1) 1. 0
O2 O2- 8 d 0.5306(29) 0.2893(8) 0.0624(6) 0.0080(1) 1. 0
O3 O2- 8 d 0.2747(27) 0.0468(20) 0.1147(12) 0.0080(1) 1. 0
O4 O2- 8 d 0.7678(26) 0.0659(21) 0.1124(11) 0.0080(1) 1. 0
Na1 Na1+ 4 c 0.4919(18) 0.4741(25) 0.25 0.0219(1) 1. 0
Na2 Na1+ 8 d -0.0191(33) 0.3188(9) 0.1106(5) 0.0188(1) 0.468 0
#End of TTdata_261536-ICSD