
#(C) 2019 by FIZ Karlsruhe - Leibniz Institute for Information Infrastructure.  All rights reserved.
data_261954-ICSD
_database_code_ICSD 261954
_audit_creation_date 2012-02-01
_chemical_name_systematic 'Trisodium dititanium tris(phosphate(V)) - alpha'
_chemical_formula_structural 'Na3 Ti2 (P O4)3'
_chemical_formula_sum 'Na3 O12 P3 Ti2'
_chemical_name_mineral Nasicon
_exptl_crystal_density_diffrn 3.04
_publ_section_title

;
alpha - Na3 M2 (P O4)3 (M = Ti, Fe): absolute cationic ordering in NASICON -
type phases
;
loop_
_citation_id
_citation_journal_full
_citation_year
_citation_journal_volume
_citation_page_first
_citation_page_last
_citation_journal_id_ASTM
primary 'Journal of the American Chemical Society' 2011 133 11900 11903 JACSAT
loop_
_publ_author_name
'Kabbour, H.'
'Coillot, D.'
'Colmont, M.'
'Masquelier, C.'
'Mentre, O'
_cell_length_a 8.8623(6)
_cell_length_b 8.8693(5)
_cell_length_c 21.6431(13)
_cell_angle_alpha 90.066(3)
_cell_angle_beta 89.973(3)
_cell_angle_gamma 119.982(3)
_cell_volume 1473.55
_cell_formula_units_Z 6
_symmetry_space_group_name_H-M 'P -1'
_symmetry_Int_Tables_number 2
_refine_ls_R_factor_all 0.0334
loop_
_symmetry_equiv_pos_site_id
_symmetry_equiv_pos_as_xyz
1 '-x, -y, -z'
2 'x, y, z'
loop_
_atom_type_symbol
_atom_type_oxidation_number
P5+ 5
Ti3+ 3
O2- -2
Na1+ 1
loop_
_atom_site_label
_atom_site_type_symbol
_atom_site_symmetry_multiplicity
_atom_site_Wyckoff_symbol
_atom_site_fract_x
_atom_site_fract_y
_atom_site_fract_z
_atom_site_B_iso_or_equiv
_atom_site_occupancy
_atom_site_attached_hydrogens
P1 P5+ 2 i 0.3045(2) -0.0002(2) 0.25001(8) 0.0070(5) 1 0
P2 P5+ 2 i 0.0104(2) 0.2957(2) 0.24748(7) 0.0074(5) 1 0
P3 P5+ 2 i 0.7149(2) 0.7046(2) 0.25254(7) 0.0078(5) 1 0
P4 P5+ 2 i 0.9592(2) 0.3370(2) 0.58705(7) 0.0071(5) 1 0
P5 P5+ 2 i 0.6656(2) 0.6308(2) 0.58208(7) 0.0064(5) 1 0
P6 P5+ 2 i 0.3690(2) 0.0417(2) 0.57966(7) 0.0072(5) 1 0
P7 P5+ 2 i 0.3778(2) 0.3368(2) 0.08720(7) 0.0070(5) 1 0
P8 P5+ 2 i 0.6729(2) 0.0413(2) 0.07967(7) 0.0066(5) 1 0
P9 P5+ 2 i 0.9652(2) 0.6308(2) 0.08198(8) 0.0074(5) 1 0
Ti1 Ti3+ 2 i -0.00079(14) -0.00501(14) 0.14716(5) 0.0063(3) 1 0
Ti2 Ti3+ 2 i 0.00440(14) 0.00536(15) 0.35270(5) 0.0069(3) 1 0
Ti3 Ti3+ 2 i 0.66936(13) 0.33500(15) 0.48071(5) 0.0068(3) 1 0
Ti4 Ti3+ 2 i 0.66326(13) 0.33185(15) 0.68559(5) 0.0064(3) 1 0
Ti5 Ti3+ 2 i 0.66861(14) 0.33168(15) 0.18566(5) 0.0071(4) 1 0
Ti6 Ti3+ 2 i 0.66586(14) 0.33528(15) 0.98058(5) 0.0067(4) 1 0
O1 O2- 2 i 0.3206(6) 0.8358(6) 0.2533(2) 0.0112(16) 1 0
O2 O2- 2 i 0.1783(6) 0.4768(6) 0.2510(2) 0.0102(15) 1 0
O3 O2- 2 i 0.5323(6) 0.6773(7) 0.2577(2) 0.0118(17) 1 0
O4 O2- 2 i 0.4850(6) 0.1640(6) 0.2465(2) 0.0106(15) 1 0
O5 O2- 2 i 0.6999(6) 0.5239(6) 0.2485(2) 0.0109(16) 1 0
O6 O2- 2 i 0.8535(6) 0.3221(7) 0.2419(2) 0.0136(17) 1 0
O7 O2- 2 i 0.9737(6) 0.1696(6) 0.5877(2) 0.0114(16) 1 0
O8 O2- 2 i 0.8245(6) 0.8164(6) 0.5854(2) 0.0096(15) 1 0
O9 O2- 2 i 0.1920(6) 0.0290(7) 0.5876(2) 0.0127(16) 1 0
O10 O2- 2 i 0.1420(6) 0.4944(6) 0.5799(2) 0.0110(16) 1 0
O11 O2- 2 i 0.3521(7) 0.8612(6) 0.5772(2) 0.0125(17) 1 0
O12 O2- 2 i 0.4996(6) 0.6469(7) 0.5823(2) 0.0115(17) 1 0
O13 O2- 2 i 0.3523(6) 0.4946(7) 0.0793(2) 0.0128(17) 1 0
O14 O2- 2 i 0.5087(6) 0.8597(6) 0.0776(2) 0.0121(16) 1 0
O15 O2- 2 i 0.1479(6) 0.6473(6) 0.0823(2) 0.0114(16) 1 0
O16 O2- 2 i 0.1970(6) 0.1708(7) 0.0868(2) 0.0120(16) 1 0
O17 O2- 2 i 0.9916(6) 0.8152(6) 0.0859(2) 0.0104(16) 1 0
O18 O2- 2 i 0.8382(6) 0.0292(7) 0.0873(2) 0.0128(17) 1 0
O19 O2- 2 i 0.2158(6) 0.0222(7) 0.3078(2) 0.0166(18) 1 0
O20 O2- 2 i 0.9914(7) 0.1885(7) 0.3043(2) 0.0163(18) 1 0
O21 O2- 2 i 0.8239(7) 0.7908(7) 0.3104(2) 0.0182(18) 1 0
O22 O2- 2 i 0.1946(6) 0.9780(7) 0.1925(2) 0.0142(18) 1 0
O23 O2- 2 i 0.8026(7) 0.8117(7) 0.1950(2) 0.0158(18) 1 0
O24 O2- 2 i 0.0327(6) 0.2100(7) 0.1896(2) 0.0146(17) 1 0
O25 O2- 2 i 0.8847(6) 0.3560(7) 0.6492(2) 0.0138(17) 1 0
O26 O2- 2 i 0.6507(7) 0.5222(7) 0.6391(2) 0.0159(18) 1 0
O27 O2- 2 i 0.4917(7) 0.1370(7) 0.6339(2) 0.0176(18) 1 0
O28 O2- 2 i 0.8354(7) 0.3152(8) 0.5349(2) 0.0176(19) 1 0
O29 O2- 2 i 0.4461(6) 0.1444(7) 0.5194(2) 0.0151(17) 1 0
O30 O2- 2 i 0.6773(6) 0.5442(7) 0.5221(2) 0.0142(17) 1 0
O31 O2- 2 i 0.4796(6) 0.3151(7) 0.0347(2) 0.0159(18) 1 0
O32 O2- 2 i 0.6975(7) 0.1441(7) 0.0204(2) 0.0146(18) 1 0
O33 O2- 2 i 0.8668(6) 0.5445(7) 0.0223(2) 0.0123(16) 1 0
O34 O2- 2 i 0.4712(6) 0.3558(7) 0.1490(2) 0.0139(17) 1 0
O35 O2- 2 i 0.8704(7) 0.5206(7) 0.1386(2) 0.0155(17) 1 0
O36 O2- 2 i 0.6455(7) 0.1376(7) 0.1336(2) 0.0169(19) 1 0
Na1 Na1+ 1 a 1 1 0 0.027(2) 0.995 0
Na2 Na1+ 2 i 0.4038(5) 0.6916(6) 0.16624(17) 0.0369(18) 0.9895 0
Na3 Na1+ 2 i 0.2873(6) 0.6903(6) 0.66656(16) 0.0358(16) 0.9847 0
Na4 Na1+ 1 b 0 0 0.5 0.0255(19) 1 0
Na5 Na1+ 2 i 0.3121(4) -0.0259(4) 0.08617(16) 0.0202(12) 0.9869 0
Na6 Na1+ 2 i 0.3726(4) 0.3587(4) 0.25872(17) 0.0223(12) 0.9906 0
Na7 Na1+ 2 i 1.0350(4) 0.3375(4) 0.08574(17) 0.0228(12) 0.9738 0
Na8 Na1+ 2 i 1.0132(4) 0.6405(4) 0.24146(16) 0.0210(11) 0.9771 0
Na9 Na1+ 2 i 0.3028(4) 0.3375(4) 0.58600(17) 0.0218(12) 0.9729 0
Na10 Na1+ 2 i 0.6622(4) 0.9746(4) 0.58619(15) 0.0189(11) 0.9822 0
loop_
_atom_site_aniso_label
_atom_site_aniso_type_symbol
_atom_site_aniso_U_11
_atom_site_aniso_U_22
_atom_site_aniso_U_33
_atom_site_aniso_U_12
_atom_site_aniso_U_13
_atom_site_aniso_U_23
P1 P5+ 0.0057(6) 0.0080(7) 0.0076(5) 0.0037(5) 0.0002(5) -0.0003(5)
P2 P5+ 0.0087(6) 0.0074(7) 0.0085(6) 0.0059(5) -0.0013(5) -0.0004(5)
P3 P5+ 0.0074(6) 0.0089(7) 0.0082(6) 0.0049(5) 0.0012(5) -0.0007(5)
P4 P5+ 0.0056(6) 0.0070(7) 0.0088(6) 0.0032(5) 0.0000(5) 0.0004(5)
P5 P5+ 0.0069(6) 0.0050(6) 0.0078(6) 0.0034(5) -0.0009(5) -0.0007(5)
P6 P5+ 0.0074(6) 0.0066(6) 0.0084(6) 0.0042(5) 0.0007(5) -0.0012(5)
P7 P5+ 0.0068(6) 0.0073(7) 0.0085(6) 0.0048(5) 0.0019(5) 0.0013(5)
P8 P5+ 0.0068(6) 0.0063(6) 0.0075(6) 0.0039(5) -0.0014(5) -0.0022(5)
P9 P5+ 0.0068(6) 0.0070(7) 0.0084(6) 0.0037(5) 0.0006(5) -0.0014(5)
Ti1 Ti3+ 0.0068(4) 0.0063(4) 0.0068(4) 0.0039(3) -0.0001(3) -0.0002(3)
Ti2 Ti3+ 0.0063(4) 0.0070(5) 0.0079(4) 0.0037(4) 0.0000(3) -0.0001(4)
Ti3 Ti3+ 0.0059(4) 0.0073(5) 0.0080(4) 0.0039(4) -0.0001(3) -0.0003(4)
Ti4 Ti3+ 0.0063(4) 0.0074(4) 0.0069(4) 0.0046(4) -0.0004(3) 0.0002(4)
Ti5 Ti3+ 0.0075(5) 0.0070(5) 0.0069(4) 0.0038(4) -0.0003(3) -0.0003(4)
Ti6 Ti3+ 0.0063(4) 0.0081(5) 0.0070(4) 0.0046(4) 0.0002(3) 0.0000(4)
O1 O2- 0.013(2) 0.010(2) 0.014(2) 0.0089(17) 0.0008(16) 0.0006(16)
O2 O2- 0.0089(19) 0.0051(19) 0.0144(19) 0.0018(15) 0.0005(15) 0.0005(15)
O3 O2- 0.013(2) 0.018(2) 0.0115(18) 0.0123(18) 0.0050(15) 0.0012(16)
O4 O2- 0.0082(19) 0.007(2) 0.0137(19) 0.0019(16) 0.0031(15) 0.0034(16)
O5 O2- 0.014(2) 0.009(2) 0.0138(19) 0.0082(17) -0.0014(16) -0.0030(16)
O6 O2- 0.012(2) 0.014(2) 0.019(2) 0.0095(18) -0.0047(17) -0.0010(18)
O7 O2- 0.017(2) 0.008(2) 0.0130(19) 0.0086(17) -0.0044(16) -0.0044(15)
O8 O2- 0.0060(18) 0.008(2) 0.0122(19) 0.0020(15) -0.0001(15) 0.0002(15)
O9 O2- 0.0064(18) 0.015(2) 0.017(2) 0.0052(17) 0.0031(16) 0.0003(17)
O10 O2- 0.0097(19) 0.011(2) 0.0124(19) 0.0053(16) 0.0016(15) 0.0017(16)
O11 O2- 0.018(2) 0.009(2) 0.0111(19) 0.0081(18) 0.0004(16) -0.0007(16)
O12 O2- 0.011(2) 0.016(2) 0.0114(18) 0.0100(18) -0.0010(15) -0.0012(17)
O13 O2- 0.015(2) 0.012(2) 0.016(2) 0.0098(18) -0.0006(17) 0.0018(17)
O14 O2- 0.012(2) 0.011(2) 0.0124(19) 0.0046(17) -0.0049(16) -0.0023(16)
O15 O2- 0.012(2) 0.008(2) 0.0142(19) 0.0051(16) 0.0034(16) -0.0009(16)
O16 O2- 0.0092(19) 0.013(2) 0.0124(19) 0.0044(17) -0.0002(15) 0.0008(16)
O17 O2- 0.015(2) 0.007(2) 0.0124(19) 0.0081(17) -0.0020(16) -0.0013(15)
O18 O2- 0.0077(19) 0.017(2) 0.017(2) 0.0087(18) -0.0003(16) 0.0000(18)
O19 O2- 0.012(2) 0.015(2) 0.025(2) 0.0077(18) 0.0068(18) -0.0019(19)
O20 O2- 0.020(2) 0.013(2) 0.016(2) 0.0080(18) -0.0089(17) -0.0008(17)
O21 O2- 0.019(2) 0.013(2) 0.022(2) 0.0072(19) -0.0124(19) -0.0066(19)
O22 O2- 0.013(2) 0.020(2) 0.0121(19) 0.0107(19) -0.0077(16) -0.0016(17)
O23 O2- 0.019(2) 0.014(2) 0.013(2) 0.0080(18) 0.0062(17) 0.0025(17)
O24 O2- 0.016(2) 0.013(2) 0.014(2) 0.0075(18) 0.0017(17) -0.0036(17)
O25 O2- 0.014(2) 0.017(2) 0.0132(19) 0.0095(18) 0.0023(16) -0.0006(17)
O26 O2- 0.017(2) 0.017(2) 0.0124(19) 0.0079(19) 0.0009(17) 0.0062(17)
O27 O2- 0.015(2) 0.017(2) 0.020(2) 0.0067(19) -0.0101(18) -0.0079(19)
O28 O2- 0.017(2) 0.024(3) 0.016(2) 0.014(2) -0.0081(17) 0.0000(19)
O29 O2- 0.014(2) 0.016(2) 0.0126(19) 0.0053(18) 0.0070(16) 0.0071(17)
O30 O2- 0.014(2) 0.013(2) 0.017(2) 0.0079(18) -0.0016(17) -0.0024(17)
O31 O2- 0.012(2) 0.022(2) 0.015(2) 0.0089(18) 0.0039(16) -0.0014(18)
O32 O2- 0.017(2) 0.016(2) 0.016(2) 0.0115(19) -0.0005(17) 0.0037(18)
O33 O2- 0.012(2) 0.015(2) 0.0076(17) 0.0054(17) -0.0037(15) -0.0066(16)
O34 O2- 0.011(2) 0.018(2) 0.0146(19) 0.0080(17) -0.0045(16) 0.0005(17)
O35 O2- 0.018(2) 0.012(2) 0.014(2) 0.0058(18) 0.0082(17) 0.0043(17)
O36 O2- 0.020(2) 0.018(2) 0.016(2) 0.012(2) -0.0001(18) -0.0072(18)
Na1 Na1+ 0.037(3) 0.041(3) 0.0109(16) 0.026(2) -0.0042(17) -0.0019(18)
Na2 Na1+ 0.060(2) 0.039(2) 0.0157(13) 0.027(2) -0.0046(17) 0.0034(13)
Na3 Na1+ 0.046(2) 0.037(2) 0.0127(12) 0.0111(17) 0.0074(13) 0.0025(13)
Na4 Na1+ 0.026(2) 0.040(3) 0.0129(16) 0.018(2) 0.0006(16) 0.0012(18)
Na5 Na1+ 0.0141(13) 0.0146(14) 0.0336(17) 0.0085(12) 0.0009(12) -0.0051(12)
Na6 Na1+ 0.0164(14) 0.0142(14) 0.0396(17) 0.0100(12) 0.0041(12) -0.0034(13)
Na7 Na1+ 0.0156(14) 0.0105(14) 0.0405(19) 0.0050(11) 0.0025(13) 0.0052(13)
Na8 Na1+ 0.0119(13) 0.0104(13) 0.0385(17) 0.0040(11) -0.0060(12) -0.0006(12)
Na9 Na1+ 0.0134(13) 0.0102(14) 0.0416(19) 0.0057(11) 0.0034(13) 0.0081(13)
Na10 Na1+ 0.0136(13) 0.0159(15) 0.0290(16) 0.0087(11) -0.0050(12) -0.0047(12)
#End of TTdata_261954-ICSD