
#(C) 2019 by FIZ Karlsruhe - Leibniz Institute for Information Infrastructure.  All rights reserved.
data_262123-ICSD
_database_code_ICSD 262123
_audit_creation_date 2012-02-01
_chemical_name_systematic 'Sodium calcium arsenate'
_chemical_formula_structural 'Na Ca (As O4)'
_chemical_formula_sum 'As1 Ca1 Na1 O4'
_chemical_name_structure_type Olivine-Mg2SiO4
_exptl_crystal_density_diffrn 3.35
_cell_measurement_temperature 173.
_publ_section_title 'A sodium calcium arsenate, Na Ca (As O4)'
loop_
_citation_id
_citation_journal_full
_citation_year
_citation_journal_volume
_citation_page_first
_citation_page_last
_citation_journal_id_ASTM
primary 'Acta Crystallographica, Section E: Structure Reports Online' 2011 67
i69 i69 ACSEBH
loop_
_publ_author_name
'Lin Jinru'
'Sun Wei'
'Mi Jinxiao'
'Pan Yuanming'
_cell_length_a 11.486(2)
_cell_length_b 6.6615(14)
_cell_length_c 5.2406(11)
_cell_angle_alpha 90.
_cell_angle_beta 90.
_cell_angle_gamma 90.
_cell_volume 400.98
_cell_formula_units_Z 4
_symmetry_space_group_name_H-M 'P n m a'
_symmetry_Int_Tables_number 62
_refine_ls_R_factor_all 0.0209
loop_
_symmetry_equiv_pos_site_id
_symmetry_equiv_pos_as_xyz
1 'x+1/2, y, -z+1/2'
2 'x, -y+1/2, z'
3 '-x+1/2, y+1/2, z+1/2'
4 '-x, -y, -z'
5 '-x+1/2, -y, z+1/2'
6 '-x, y+1/2, -z'
7 'x+1/2, -y+1/2, -z+1/2'
8 'x, y, z'
loop_
_atom_type_symbol
_atom_type_oxidation_number
As5+ 5
Na1+ 1
Ca2+ 2
O2- -2
loop_
_atom_site_label
_atom_site_type_symbol
_atom_site_symmetry_multiplicity
_atom_site_Wyckoff_symbol
_atom_site_fract_x
_atom_site_fract_y
_atom_site_fract_z
_atom_site_B_iso_or_equiv
_atom_site_occupancy
_atom_site_attached_hydrogens
As1 As5+ 4 c 0.59797(3) 0.25 0.56866(7) 0.0046(2) 1 0
Na1 Na1+ 4 b 0.5 0.5 0. 0.0088(3) 1 0
Ca1 Ca2+ 4 c 0.28059(6) 0.25 0.49344(14) 0.0053(2) 1 0
O1 O2- 4 c 0.4611(2) 0.25 0.6849(5) 0.0075(5) 1 0
O2 O2- 4 c 0.6038(2) 0.25 0.2482(6) 0.0068(6) 1 0
O3 O2- 8 d 0.66769(14) 0.0513(3) 0.7038(3) 0.0068(4) 1 0
loop_
_atom_site_aniso_label
_atom_site_aniso_type_symbol
_atom_site_aniso_U_11
_atom_site_aniso_U_22
_atom_site_aniso_U_33
_atom_site_aniso_U_12
_atom_site_aniso_U_13
_atom_site_aniso_U_23
As1 As5+ 0.0014(3) 0.0050(3) 0.0073(3) 0. 0.00013(11) 0.
Na1 Na1+ 0.0076(7) 0.0087(7) 0.0101(7) 0.0027(6) -0.0003(6) -0.0014(6)
Ca1 Ca2+ 0.0017(4) 0.0051(4) 0.0091(4) 0. -0.0002(2) 0.
O1 O2- 0.0017(10) 0.0096(12) 0.0111(12) 0. 0.0023(9) 0.
O2 O2- 0.0042(12) 0.0100(13) 0.0062(13) 0. 0.0012(8) 0.
O3 O2- 0.0056(8) 0.0048(8) 0.0099(8) 0.0014(6) -0.0024(7) 0.0000(7)
#End of TTdata_262123-ICSD