
#(C) 2018 by FIZ Karlsruhe - Leibniz Institute for Information Infrastructure.  All rights reserved.
data_262314-ICSD
_database_code_ICSD 262314
_audit_creation_date 2012-08-01
_chemical_name_systematic 'Lithium iron bis(tungstate)'
_chemical_formula_structural 'Li Fe (W O4)2'
_chemical_formula_sum 'Fe1 Li1 O8 W2'
_chemical_name_structure_type Wodginite
_exptl_crystal_density_diffrn 7.14
_cell_measurement_temperature 293.
_publ_section_title 'Cation ordering in the double tungstate Li Fe (W O4)2'
loop_
_citation_id
_citation_journal_full
_citation_year
_citation_journal_volume
_citation_page_first
_citation_page_last
_citation_journal_id_ASTM
primary 'Acta Crystallographica, Section C: Crystal Structure Communications'
2012 68 i7 i8 ACSCEE
loop_
_publ_author_name
'Albino, M.'
'Pechev, S.'
'Veber, P.'
'Velazquez, M.'
'Josse, M.'
_cell_length_a 9.2884(3)
_cell_length_b 11.4181(3)
_cell_length_c 4.90180(10)
_cell_angle_alpha 90
_cell_angle_beta 90.597(2)
_cell_angle_gamma 90
_cell_volume 519.84
_cell_formula_units_Z 4
_symmetry_space_group_name_H-M 'C 1 2/c 1'
_symmetry_Int_Tables_number 15
_refine_ls_R_factor_all 0.0177
loop_
_symmetry_equiv_pos_site_id
_symmetry_equiv_pos_as_xyz
1 'x, -y, z+1/2'
2 '-x, -y, -z'
3 '-x, y, -z+1/2'
4 'x, y, z'
5 'x+1/2, -y+1/2, z+1/2'
6 '-x+1/2, -y+1/2, -z'
7 '-x+1/2, y+1/2, -z+1/2'
8 'x+1/2, y+1/2, z'
loop_
_atom_type_symbol
_atom_type_oxidation_number
Li1+ 1
Fe3+ 3
W6+ 6
O2- -2
loop_
_atom_site_label
_atom_site_type_symbol
_atom_site_symmetry_multiplicity
_atom_site_Wyckoff_symbol
_atom_site_fract_x
_atom_site_fract_y
_atom_site_fract_z
_atom_site_B_iso_or_equiv
_atom_site_occupancy
_atom_site_attached_hydrogens
Li1 Li1+ 4 e 0.5 0.3428(7) 0.25 0.011(2) 1 0
Fe1 Fe3+ 4 e 0.5 0.16523(6) 0.75 0.00640(17) 1 0
W1 W6+ 8 f 0.247439(12) 0.091398(11) 0.24612(2) 0.00444(8) 1 0
O1 O2- 8 f 0.3633(3) 0.0591(2) 0.9242(5) 0.0065(4) 1 0
O2 O2- 8 f 0.3805(3) 0.1822(3) 0.4110(5) 0.0077(5) 1 0
O3 O2- 8 f 0.1449(3) 0.0483(2) 0.5542(5) 0.0064(5) 1 0
O4 O2- 8 f 0.1226(3) 0.1942(2) 0.1080(5) 0.0072(5) 1 0
loop_
_atom_site_aniso_label
_atom_site_aniso_type_symbol
_atom_site_aniso_U_11
_atom_site_aniso_U_22
_atom_site_aniso_U_33
_atom_site_aniso_U_12
_atom_site_aniso_U_13
_atom_site_aniso_U_23
Li1 Li1+ 0.009(5) 0.020(6) 0.003(4) 0 0.001(4) 0
Fe1 Fe3+ 0.0062(4) 0.0063(4) 0.0066(4) 0 0.0002(3) 0
W1 W6+ 0.00575(10) 0.00383(10) 0.00374(11) 0.00030(4) -0.00002(6) -0.00011(3)
O1 O2- 0.0076(11) 0.0054(10) 0.0066(11) -0.0012(9) 0.0006(9) 0.0004(9)
O2 O2- 0.0082(12) 0.0077(10) 0.0070(11) -0.0002(10) -0.0011(9) -0.0003(9)
O3 O2- 0.0073(11) 0.0059(11) 0.0061(11) 0.0005(9) 0.0000(9) 0.0008(8)
O4 O2- 0.0075(11) 0.0066(11) 0.0075(11) 0.0008(9) -0.0006(9) -0.0003(9)
#End of TTdata_262314-ICSD