
#(C) 2019 by FIZ Karlsruhe - Leibniz Institute for Information Infrastructure.  All rights reserved.
data_262571-ICSD
_database_code_ICSD 262571
_audit_creation_date 2012-08-01
_chemical_name_systematic 'Sodium boron fluoride hydride oxide hydrate *'
_chemical_formula_structural 'Na B21 F2.80 H21.20 O3'
_chemical_formula_sum 'H21.2 B21 F2.8 Na1 O3'
_exptl_crystal_density_diffrn 1.31
_cell_measurement_temperature 150.
_publ_section_title

;
Fluorierung von closo, closo-[B21 H18]- mit aHF und F2 zu closo, closo-[B21
H(18-x) F(x)]- (x = 1-3) und closo, closo-[B21F18]-
;
loop_
_citation_id
_citation_journal_full
_citation_year
_citation_journal_volume
_citation_page_first
_citation_page_last
_citation_journal_id_ASTM
primary 'Zeitschrift fuer Anorganische und Allgemeine Chemie (1950) (DE)' 2012
638 594 601 ZAACAB
loop_
_publ_author_name
'Schlueter, F.'
'Bernhardt, E.'
_cell_length_a 8.9003(2)
_cell_length_b 21.0586(4)
_cell_length_c 10.05206(19)
_cell_angle_alpha 90.
_cell_angle_beta 90.
_cell_angle_gamma 90.
_cell_volume 1884.04
_cell_formula_units_Z 4
_symmetry_space_group_name_H-M 'C m c 21'
_symmetry_Int_Tables_number 36
_refine_ls_R_factor_all 0.0293
loop_
_symmetry_equiv_pos_site_id
_symmetry_equiv_pos_as_xyz
1 'x, -y, z+1/2'
2 '-x, -y, z+1/2'
3 '-x, y, z'
4 'x, y, z'
5 'x+1/2, -y+1/2, z+1/2'
6 '-x+1/2, -y+1/2, z+1/2'
7 '-x+1/2, y+1/2, z'
8 'x+1/2, y+1/2, z'
loop_
_atom_type_symbol
_atom_type_oxidation_number
B0+ 0
H0+ 0
B0+ 0
H0+ 0
B0+ 0
H0+ 0
B0+ 0
H0+ 0
B0+ 0
H0+ 0
F0+ 0
B0+ 0
H0+ 0
F0+ 0
B0+ 0
H0+ 0
B0+ 0
H0+ 0
F0+ 0
B0+ 0
H0+ 0
B0+ 0
H0+ 0
B0+ 0
H0+ 0
B0+ 0
H0+ 0
Na0+ 0
O0+ 0
H0+ 0
O0+ 0
H0+ 0
O0+ 0
H0+ 0
loop_
_atom_site_label
_atom_site_type_symbol
_atom_site_symmetry_multiplicity
_atom_site_Wyckoff_symbol
_atom_site_fract_x
_atom_site_fract_y
_atom_site_fract_z
_atom_site_B_iso_or_equiv
_atom_site_occupancy
_atom_site_attached_hydrogens
B1 B0+ 4 a 0. 0.76420(13) 0.1633(3) 0.0246(6) 1 0
H1 H0+ 4 a 0. 0.8138 0.1288 0.029 1 0
B2 B0+ 8 b 0.0989(2) 0.70621(9) 0.07462(19) 0.0265(4) 1 0
H2 H0+ 8 b 0.1617 0.7188 -0.0159 0.032 1 0
B3 B0+ 4 a 0. 0.63116(13) 0.0916(3) 0.0253(6) 1 0
H3 H0+ 4 a 0. 0.5931 0.0166 0.03 1 0
B4 B0+ 8 b 0.16395(19) 0.72829(9) 0.23906(19) 0.0224(4) 1 0
H4 H0+ 8 b 0.27 0.7532 0.2598 0.027 1 0
B5 B0+ 4 a 0. 0.74901(11) 0.3324(3) 0.0230(5) 1 0
H5 H0+ 4 a 0. 0.7884 0.4042 0.028 0.146(7) 0
F1 F0+ 4 a 0. 0.80122(7) 0.41431(17) 0.0283(6) 0.854(7) 0
B6 B0+ 8 b 0.1698(2) 0.64827(9) 0.1795(2) 0.0243(4) 1 0
H6 H0+ 8 b 0.2763 0.6245 0.1553 0.029 0.303(5) 0
F2 F0+ 8 b 0.30435(16) 0.62156(7) 0.14244(15) 0.0316(6) 0.697(5) 0
B7 B0+ 4 a 0. 0.60825(11) 0.2650(3) 0.0203(5) 1 0
B8 B0+ 8 b 0.10247(19) 0.66857(8) 0.35656(17) 0.0194(4) 1 0
B9 B0+ 4 a 0. 0.68291(12) 0.5188(3) 0.0219(5) 1 0
H7 H0+ 4 a 0. 0.7286 0.5718 0.026 1 0
B10 B0+ 8 b 0.1679(2) 0.58303(8) 0.36978(18) 0.0215(4) 1 0
H8 H0+ 8 b 0.2742 0.5651 0.3284 0.026 0.723(4) 0
F3 F0+ 8 b 0.3035(4) 0.55712(16) 0.3312(4) 0.0352(13) 0.277(4) 0
B11 B0+ 4 a 0. 0.53697(11) 0.3653(3) 0.0226(6) 1 0
H9 H0+ 4 a 0. 0.4907 0.3144 0.027 1 0
B12 B0+ 8 b 0.1633(2) 0.63385(9) 0.5117(2) 0.0223(4) 1 0
H10 H0+ 8 b 0.2693 0.6503 0.5561 0.027 1 0
B13 B0+ 4 a 0. 0.61224(11) 0.6070(3) 0.0226(6) 1 0
H11 H0+ 4 a 0. 0.6133 0.7164 0.027 1 0
B14 B0+ 8 b 0.09892(19) 0.55278(8) 0.51910(18) 0.0220(4) 1 0
H12 H0+ 8 b 0.1617 0.5157 0.5723 0.026 1 0
Na1 Na0+ 4 a 0. 0.91056(6) 0.49554(14) 0.0350(4) 0.795(4) 0
Na2 Na0+ 4 a 0. 0.9900(2) 0.3949(7) 0.0419(18) 0.205(4) 0
O1 O0+ 4 a 0. 1.00670(17) 0.6095(4) 0.0526(8) 0.795(4) 0
H13 H0+ 4 a 0. 1.015(3) 0.5314(16) 0.068 0.795(4) 0
O2 O0+ 4 a 0. 1.0363(6) 0.6144(19) 0.0526(8) 0.205(4) 0
H14 H0+ 8 b 0.078(2) 1.0213(10) 0.640(3) 0.068 0.5 0
H15 H0+ 8 b -0.019(6) 1.0670(17) 0.660(5) 0.068 0.1025(18) 0
O3 O0+ 8 b 0.18450(16) 0.91857(7) 0.33389(19) 0.0479(4) 1 0
H16 H0+ 8 b 0.201(3) 0.8826(6) 0.315(3) 0.062 1 0
H17 H0+ 8 b 0.2620(18) 0.9372(10) 0.347(3) 0.062 1 0
loop_
_atom_site_aniso_label
_atom_site_aniso_type_symbol
_atom_site_aniso_U_11
_atom_site_aniso_U_22
_atom_site_aniso_U_33
_atom_site_aniso_U_12
_atom_site_aniso_U_13
_atom_site_aniso_U_23
B1 B0+ 0.0251(13) 0.0241(12) 0.0244(15) 0. 0. 0.0044(10)
B2 B0+ 0.0292(10) 0.0309(10) 0.0194(10) -0.0005(8) 0.0033(8) 0.0034(8)
B3 B0+ 0.0299(14) 0.0279(13) 0.0182(14) 0. 0. 0.0021(11)
B4 B0+ 0.0232(9) 0.0241(8) 0.0199(9) -0.0025(7) 0.0014(8) 0.0050(7)
B5 B0+ 0.0253(12) 0.0192(11) 0.0244(13) 0. 0. 0.0015(11)
F1 F0+ 0.0343(10) 0.0221(9) 0.0285(11) 0. 0. -0.0024(7)
B6 B0+ 0.0258(9) 0.0272(9) 0.0198(9) -0.0005(8) 0.0021(7) 0.0018(7)
F2 F0+ 0.0291(9) 0.0380(8) 0.0277(9) 0.0081(6) 0.0087(7) 0.0025(6)
B7 B0+ 0.0200(11) 0.0211(12) 0.0198(13) 0. 0. -0.0004(10)
B8 B0+ 0.0196(10) 0.0198(8) 0.0188(9) -0.0009(6) -0.0017(6) 0.0000(7)
B9 B0+ 0.0241(13) 0.0248(12) 0.0167(13) 0. 0. 0.0002(10)
B10 B0+ 0.0211(9) 0.0221(9) 0.0214(10) 0.0020(6) 0.0000(7) 0.0020(7)
F3 F0+ 0.030(2) 0.037(2) 0.038(2) 0.0107(15) 0.0065(17) 0.0059(19)
B11 B0+ 0.0253(13) 0.0210(12) 0.0216(14) 0. 0. 0.0002(10)
B12 B0+ 0.0242(9) 0.0221(8) 0.0207(10) 0.0002(7) -0.0043(8) 0.0011(7)
B13 B0+ 0.0265(13) 0.0245(13) 0.0168(13) 0. 0. 0.0016(10)
B14 B0+ 0.0237(10) 0.0215(8) 0.0209(9) 0.0004(7) -0.0022(7) 0.0014(7)
Na1 Na0+ 0.0329(7) 0.0431(7) 0.0289(7) 0. 0. 0.0024(6)
Na2 Na0+ 0.029(3) 0.038(3) 0.059(4) 0. 0. 0.002(3)
O1 O0+ 0.0356(12) 0.0476(18) 0.075(2) 0. 0. -0.021(2)
O2 O0+ 0.0356(12) 0.0476(18) 0.075(2) 0. 0. -0.021(2)
O3 O0+ 0.0369(7) 0.0476(8) 0.0592(10) -0.0046(6) 0.0058(8) -0.0089(8)
#End of TTdata_262571-ICSD