
#(C) 2019 by FIZ Karlsruhe - Leibniz Institute for Information Infrastructure.  All rights reserved.
data_262511-ICSD
_database_code_ICSD 262511
_audit_creation_date 2012-08-01
_chemical_name_systematic 'Disodium tris(dioxidomolybdenum) bis(diarsenate)'
_chemical_formula_structural 'Na2 (Mo O2)3 (As2 O7)2'
_chemical_formula_sum 'As4 Mo3 Na2 O20'
_exptl_crystal_density_diffrn 3.74
_cell_measurement_temperature 298.
_publ_section_title 'Disodium tris(dioxidomolybdenum) bis(diarsenate)'
loop_
_citation_id
_citation_journal_full
_citation_year
_citation_journal_volume
_citation_page_first
_citation_page_last
_citation_journal_id_ASTM
primary 'Acta Crystallographica, Section E: Structure Reports Online' 2012 68
i24 i24 ACSEBH
loop_
_publ_author_name
'Jouini, R.'
'Zid, M.F.'
'Driss, A.'
_cell_length_a 14.571(3)
_cell_length_b 12.580(2)
_cell_length_c 9.258(2)
_cell_angle_alpha 90.
_cell_angle_beta 94.51(2)
_cell_angle_gamma 90.
_cell_volume 1691.77
_cell_formula_units_Z 4
_symmetry_space_group_name_H-M 'P 1 21/c 1'
_symmetry_Int_Tables_number 14
_refine_ls_R_factor_all 0.0252
loop_
_symmetry_equiv_pos_site_id
_symmetry_equiv_pos_as_xyz
1 'x, -y+1/2, z+1/2'
2 '-x, -y, -z'
3 '-x, y+1/2, -z+1/2'
4 'x, y, z'
loop_
_atom_type_symbol
_atom_type_oxidation_number
Mo6+ 6
As5+ 5
Na1+ 1
O2- -2
loop_
_atom_site_label
_atom_site_type_symbol
_atom_site_symmetry_multiplicity
_atom_site_Wyckoff_symbol
_atom_site_fract_x
_atom_site_fract_y
_atom_site_fract_z
_atom_site_B_iso_or_equiv
_atom_site_occupancy
_atom_site_attached_hydrogens
Mo1 Mo6+ 4 e 0.31869(3) 0.06243(4) 0.05295(4) 0.01284(10) 1 0
Mo2 Mo6+ 4 e 0.02062(3) 0.37400(3) 0.26296(5) 0.01470(11) 1 0
Mo3 Mo6+ 4 e 0.70516(3) 0.12821(3) 0.42003(4) 0.00864(10) 1 0
As1 As5+ 4 e 0.53859(3) 0.00042(4) 0.20483(5) 0.00852(11) 1 0
As2 As5+ 4 e 0.60470(3) 0.33825(4) 0.24714(5) 0.00885(11) 1 0
As3 As5+ 4 e 0.00777(3) 0.62745(4) 0.12380(6) 0.01163(11) 1 0
As4 As5+ 4 e 0.81642(3) 0.53068(4) 0.18604(5) 0.00924(11) 1 0
Na1 Na1+ 4 e 0.4171(2) 0.1428(2) 0.4537(3) 0.0381(7) 1 0
Na2 Na1+ 4 e 0.13444(18) 0.8679(2) 0.9496(3) 0.0343(6) 1 0
O1 O2- 4 e 0.6093(2) 0.0020(3) 0.3549(4) 0.0129(7) 1 0
O2 O2- 4 e 0.5933(2) 0.0231(3) 0.0556(4) 0.0146(7) 1 0
O3 O2- 4 e 0.7475(2) 0.6100(3) 0.2769(4) 0.0150(7) 1 0
O4 O2- 4 e 0.1230(3) 0.3287(3) 0.2208(5) 0.0291(10) 1 0
O5 O2- 4 e 0.5893(2) 0.3594(3) 0.0702(4) 0.0163(7) 1 0
O6 O2- 4 e 0.7499(3) 0.4947(3) 0.0395(4) 0.0189(8) 1 0
O7 O2- 4 e 0.3449(3) 0.1862(3) 0.9950(4) 0.0276(9) 1 0
O8 O2- 4 e 0.7566(3) 0.2271(3) 0.5219(4) 0.0225(8) 1 0
O9 O2- 4 e 0.6874(2) 0.4098(3) 0.3346(4) 0.0136(7) 1 0
O10 O2- 4 e 0.8787(2) 0.4405(3) 0.2789(4) 0.0161(7) 1 0
O11 O2- 4 e 0.4431(2) 0.0715(3) 0.2150(4) 0.0125(7) 1 0
O12 O2- 4 e 0.0325(3) 0.3820(4) 0.4454(5) 0.0425(12) 1 0
O13 O2- 4 e 0.2237(3) 0.0292(4) 0.9471(4) 0.0259(9) 1 0
O14 O2- 4 e 0.8884(2) 0.6242(3) 0.1131(4) 0.0149(7) 1 0
O15 O2- 4 e 0.7762(2) 0.1145(3) 0.2859(4) 0.0222(9) 1 0
O16 O2- 4 e 0.5032(2) 0.8672(3) 0.1910(4) 0.0123(7) 1 0
O17 O2- 4 e 0.6118(2) 0.2098(3) 0.2942(4) 0.0147(7) 1 0
O18 O2- 4 e 0.0423(3) 0.7296(3) 0.2295(5) 0.0366(12) 1 0
O19 O2- 4 e 0.0424(7) 0.6173(10) 0.9610(11) 0.0191(19) 0.612(17) 0
O20 O2- 4 e 0.0395(12) 0.6633(14) 0.9569(19) 0.0191(19) 0.388(17) 0
O21 O2- 4 e 0.0489(4) 0.5281(5) 0.2364(9) 0.0181(15) 0.703(12) 0
O22 O2- 4 e 0.0481(10) 0.5117(13) 0.164(2) 0.0181(15) 0.298(12) 0
loop_
_atom_site_aniso_label
_atom_site_aniso_type_symbol
_atom_site_aniso_U_11
_atom_site_aniso_U_22
_atom_site_aniso_U_33
_atom_site_aniso_U_12
_atom_site_aniso_U_13
_atom_site_aniso_U_23
Mo1 Mo6+ 0.00827(19) 0.0211(2) 0.0093(2) 0.00355(16) 0.00231(15) 0.00338(16)
Mo2 Mo6+ 0.0095(2) 0.0139(2) 0.0205(2) -0.00034(16) 0.00001(17) 0.00670(17)
Mo3 Mo6+ 0.00620(19) 0.0103(2) 0.0094(2) 0.00053(15) 0.00019(14) 0.00045(15)
As1 As5+ 0.0061(2) 0.0123(2) 0.0073(2) -0.00051(17) 0.00123(17) -0.00062(17)
As2 As5+ 0.0072(2) 0.0101(2) 0.0095(2) 0.00085(17) 0.00259(17) 0.00266(18)
As3 As5+ 0.0083(2) 0.0091(2) 0.0182(3) -0.00207(18) 0.00470(19) -0.00203(19)
As4 As5+ 0.0057(2) 0.0116(2) 0.0105(2) -0.00142(17) 0.00102(17) -0.00197(18)
Na1 Na1+ 0.0537(17) 0.0409(15) 0.0194(12) 0.0219(13) -0.0001(11) -0.0080(11)
Na2 Na1+ 0.0316(14) 0.0373(15) 0.0341(14) 0.0110(11) 0.0024(11) 0.0004(11)
O1 O2- 0.0126(17) 0.0139(17) 0.0115(17) -0.0014(14) -0.0039(13) -0.0012(13)
O2 O2- 0.0116(17) 0.0240(19) 0.0091(17) 0.0022(14) 0.0064(13) 0.0021(14)
O3 O2- 0.0155(17) 0.0130(17) 0.0179(18) -0.0009(14) 0.0091(14) -0.0030(14)
O4 O2- 0.017(2) 0.023(2) 0.048(3) 0.0010(17) 0.0076(19) 0.0048(19)
O5 O2- 0.0149(18) 0.0234(19) 0.0107(17) -0.0006(15) 0.0011(14) 0.0043(14)
O6 O2- 0.023(2) 0.0188(19) 0.0137(18) -0.0089(15) -0.0053(15) -0.0032(15)
O7 O2- 0.028(2) 0.027(2) 0.029(2) 0.0067(18) 0.0126(18) 0.0129(18)
O8 O2- 0.0198(19) 0.021(2) 0.025(2) -0.0005(15) -0.0092(16) -0.0054(16)
O9 O2- 0.0109(16) 0.0136(17) 0.0163(18) 0.0005(13) 0.0003(14) 0.0004(14)
O10 O2- 0.0095(16) 0.0187(18) 0.0203(19) 0.0036(14) 0.0024(14) 0.0041(15)
O11 O2- 0.0084(16) 0.0156(18) 0.0135(17) 0.0012(13) 0.0012(13) -0.0039(14)
O12 O2- 0.029(2) 0.068(4) 0.029(3) 0.002(2) -0.001(2) 0.003(2)
O13 O2- 0.0128(18) 0.047(3) 0.017(2) 0.0070(18) -0.0025(15) -0.0025(18)
O14 O2- 0.0055(16) 0.0152(18) 0.025(2) -0.0020(13) 0.0052(14) 0.0046(15)
O15 O2- 0.0131(18) 0.032(2) 0.023(2) 0.0060(16) 0.0096(15) 0.0064(17)
O16 O2- 0.0087(16) 0.0129(17) 0.0159(17) -0.0016(13) 0.0049(13) -0.0016(13)
O17 O2- 0.0126(17) 0.0088(16) 0.0218(19) 0.0015(13) -0.0041(14) 0.0032(14)
O18 O2- 0.015(2) 0.024(2) 0.069(3) 0.0017(17) -0.004(2) -0.030(2)
O19 O2- 0.012(2) 0.030(6) 0.017(2) 0.006(5) 0.0075(17) 0.005(5)
O20 O2- 0.012(2) 0.030(6) 0.017(2) 0.006(5) 0.0075(17) 0.005(5)
O21 O2- 0.013(2) 0.019(3) 0.021(4) -0.0069(19) -0.009(3) 0.009(3)
O22 O2- 0.013(2) 0.019(3) 0.021(4) -0.0069(19) -0.009(3) 0.009(3)
#End of TTdata_262511-ICSD