
#(C) 2019 by FIZ Karlsruhe - Leibniz Institute for Information Infrastructure.  All rights reserved.
data_262747-ICSD
_database_code_ICSD 262747
_audit_creation_date 2012-08-01
_audit_update_record 2013-08-01
_chemical_name_systematic 'Trisodium gadolinium bis(borate)'
_chemical_formula_structural 'Na3 Gd (B O3)2'
_chemical_formula_sum 'B2 Gd1 Na3 O6'
_exptl_crystal_density_diffrn 3.95
_publ_section_title

;
Influence of structural distortions upon photoluminescence properties of Eu3+
and Tb3+ activated Na3 Ln (B O3)2 (Ln = Y, Gd) borates
;
loop_
_citation_id
_citation_journal_full
_citation_year
_citation_journal_volume
_citation_page_first
_citation_page_last
_citation_journal_id_ASTM
primary 'Journal of Solid State Chemistry' 2012 190 186 190 JSSCBI
loop_
_publ_author_name
'Asiri Naidu, S.'
'Boudin, S.'
'Varadaraju, U.V.'
'Raveau, B.'
_cell_length_a 6.52297(6)
_cell_length_b 8.72831(8)
_cell_length_c 12.1476(1)
_cell_angle_alpha 90
_cell_angle_beta 123.3525(5)
_cell_angle_gamma 90
_cell_volume 577.71
_cell_formula_units_Z 4
_symmetry_space_group_name_H-M 'P 1 21/c 1'
_symmetry_Int_Tables_number 14
_refine_ls_R_factor_all 0.0158
loop_
_symmetry_equiv_pos_site_id
_symmetry_equiv_pos_as_xyz
1 'x, -y+1/2, z+1/2'
2 '-x, -y, -z'
3 '-x, y+1/2, -z+1/2'
4 'x, y, z'
loop_
_atom_type_symbol
_atom_type_oxidation_number
Gd3+ 3
Na1+ 1
B3+ 3
O2- -2
loop_
_atom_site_label
_atom_site_type_symbol
_atom_site_symmetry_multiplicity
_atom_site_Wyckoff_symbol
_atom_site_fract_x
_atom_site_fract_y
_atom_site_fract_z
_atom_site_B_iso_or_equiv
_atom_site_occupancy
_atom_site_attached_hydrogens
Gd1 Gd3+ 4 e 0.1948(3) 0.1139(2) 0.3530(2) 0.5 1. 0
Na1 Na1+ 4 e 0.367(2) 0.729(1) 0.3504(9) 2.0(2) 1. 0
Na2 Na1+ 4 e 0.120(2) 0.3170(9) 0.1006(8) 2.0(2) 1. 0
Na3 Na1+ 4 e 0.313(2) 0.9425(9) 0.0996(8) 2.0(2) 1. 0
B1 B3+ 4 e 0.118(4) 0.419(3) 0.355(2) 0.7 1. 0
B2 B3+ 4 e 0.369(4) 0.595(3) 0.134(2) 0.7 1. 0
O1 O2- 4 e 0.288(2) 0.347(2) 0.470(1) 0.7(1) 1. 0
O2 O2- 4 e 0.030(2) 0.364(2) 0.236(1) 0.7(1) 1. 0
O3 O2- 4 e 0.088(2) 0.562(1) 0.384(1) 0.7(1) 1. 0
O4 O2- 4 e 0.167(2) 0.604(2) 0.147(1) 0.7(1) 1. 0
O5 O2- 4 e 0.562(2) 0.025(1) 0.409(1) 0.7(1) 1. 0
O6 O2- 4 e 0.514(2) 0.711(1) 0.193(1) 0.7(1) 1. 0
#End of TTdata_262747-ICSD