
#(C) 2019 by FIZ Karlsruhe - Leibniz Institute for Information Infrastructure.  All rights reserved.
data_262782-ICSD
_database_code_ICSD 262782
_audit_creation_date 2012-08-01
_chemical_name_systematic
'Heptasodium tridecamagnesium neodymium dodecaphosphate'
_chemical_formula_structural 'Na7 Mg13 Nd (P O4)12'
_chemical_formula_sum 'Mg13 Na7 Nd1 O48 P12'
_chemical_name_structure_type Na7Mg13Eu(PO4)12
_exptl_crystal_density_diffrn 3.14
_cell_measurement_temperature 293.
_publ_section_title 'Na7 Mg13 Nd (P O4)12'
loop_
_citation_id
_citation_journal_full
_citation_year
_citation_journal_volume
_citation_page_first
_citation_page_last
_citation_journal_id_ASTM
primary 'Acta Crystallographica, Section E: Structure Reports Online' 2012 68
i44 i44 ACSEBH
loop_
_publ_author_name
'Jerbi, H.'
'Hidouri, M.'
'Mongi, B.A.'
_cell_length_a 10.301(3)
_cell_length_b 15.461(4)
_cell_length_c 23.384(6)
_cell_angle_alpha 90.
_cell_angle_beta 90.
_cell_angle_gamma 90.
_cell_volume 3724.22
_cell_formula_units_Z 4
_symmetry_space_group_name_H-M 'C m c 21'
_symmetry_Int_Tables_number 36
_refine_ls_R_factor_all 0.0568
loop_
_symmetry_equiv_pos_site_id
_symmetry_equiv_pos_as_xyz
1 'x, -y, z+1/2'
2 '-x, -y, z+1/2'
3 '-x, y, z'
4 'x, y, z'
5 'x+1/2, -y+1/2, z+1/2'
6 '-x+1/2, -y+1/2, z+1/2'
7 '-x+1/2, y+1/2, z'
8 'x+1/2, y+1/2, z'
loop_
_atom_type_symbol
_atom_type_oxidation_number
Nd3+ 3
P5+ 5
O2- -2
P5+ 5
O2- -2
P5+ 5
O2- -2
P5+ 5
O2- -2
P5+ 5
O2- -2
P5+ 5
O2- -2
P5+ 5
O2- -2
P5+ 5
O2- -2
Mg2+ 2
Na1+ 1
loop_
_atom_site_label
_atom_site_type_symbol
_atom_site_symmetry_multiplicity
_atom_site_Wyckoff_symbol
_atom_site_fract_x
_atom_site_fract_y
_atom_site_fract_z
_atom_site_B_iso_or_equiv
_atom_site_occupancy
_atom_site_attached_hydrogens
Nd1 Nd3+ 4 a 0. 0.54408(2) 0.000015(13) 0.00904(5) 1 0
P1 P5+ 8 b 0.21976(9) 0.43115(7) 0.05989(4) 0.00612(16) 1 0
O1 O2- 8 b 0.1824(3) 0.3576(2) 0.09995(13) 0.0116(6) 1 0
O2 O2- 8 b 0.3671(3) 0.4462(2) 0.05621(14) 0.0129(6) 1 0
O3 O2- 8 b 0.1558(3) 0.41806(18) 0.00077(17) 0.0125(5) 1 0
O4 O2- 8 b 0.1526(3) 0.5162(2) 0.08102(14) 0.0112(5) 1 0
P2 P5+ 8 b 0.74694(10) 0.46442(7) 0.22216(5) 0.00978(18) 1 0
O5 O2- 8 b 0.7715(4) 0.5517(2) 0.19519(16) 0.0232(8) 1 0
O6 O2- 8 b 0.7106(3) 0.4816(2) 0.28494(15) 0.0191(7) 1 0
O7 O2- 8 b 0.6391(3) 0.4113(2) 0.19233(14) 0.0125(6) 1 0
O8 O2- 8 b 0.8668(3) 0.4038(2) 0.21746(13) 0.0107(5) 1 0
P3 P5+ 8 b 0.24602(11) 0.70154(7) 0.98592(4) 0.00913(18) 1 0
O9 O2- 8 b 0.2995(3) 0.6688(2) 0.04252(14) 0.0168(7) 1 0
O10 O2- 8 b 0.1777(4) 0.6272(2) 0.95352(15) 0.0170(7) 1 0
O11 O2- 8 b 0.3605(3) 0.7387(2) 0.95155(16) 0.0153(6) 1 0
O12 O2- 8 b 0.1511(3) 0.7784(2) 0.98766(14) 0.0160(7) 1 0
P4 P5+ 8 b 0.23934(11) 0.72710(8) 0.81954(5) 0.0116(2) 1 0
O13 O2- 8 b 0.3634(4) 0.6820(3) 0.8390(2) 0.0337(12) 1 0
O14 O2- 8 b 0.2489(5) 0.7603(3) 0.75815(16) 0.0286(9) 1 0
O15 O2- 8 b 0.1310(3) 0.6600(2) 0.82915(14) 0.0143(6) 1 0
O16 O2- 8 b 0.2043(4) 0.8076(2) 0.85537(15) 0.0210(8) 1 0
P5 P5+ 4 a 0. 0.72322(10) 0.11586(7) 0.0069(3) 1 0
O17 O2- 4 a 0. 0.6619(3) 0.0654(2) 0.0144(8) 1 0
O18 O2- 4 a 0. 0.8177(3) 0.09809(19) 0.0105(8) 1 0
O19 O2- 8 b 0.1213(3) 0.7066(2) 0.15281(15) 0.0132(6) 1 0
P6 P5+ 4 a 0.5 0.64818(10) 0.16991(6) 0.0060(2) 1 0
O20 O2- 8 b 0.6206(3) 0.7003(2) 0.15437(17) 0.0180(7) 1 0
O21 O2- 4 a 0.5 0.5682(3) 0.1316(2) 0.0294(14) 1 0
O22 O2- 4 a 0.5 0.6231(4) 0.2330(2) 0.0169(10) 1 0
P7 P5+ 8 b 0.02504(19) 0.55827(15) 0.36368(10) 0.0078(5) 0.5 0
O23 O2- 4 a 0. 0.5300(3) 0.3018(2) 0.0166(9) 1 0
O24 O2- 8 b -0.020(3) 0.6490(5) 0.3742(4) 0.037(6) 0.5 0
O25 O2- 8 b 0.0621(7) 0.4980(6) 0.3999(3) 0.0252(18) 0.5 0
O26 O2- 8 b 0.1652(7) 0.5446(5) 0.3848(3) 0.0177(12) 0.5 0
P8 P5+ 8 b 0.5147(8) 0.53079(15) 0.39974(9) 0.0120(12) 0.5 0
O27 O2- 4 a 0.5 0.5645(4) 0.3388(2) 0.0255(13) 1 0
O28 O2- 8 b 0.4470(6) 0.5929(4) 0.4417(3) 0.0130(12) 0.5 0
O29 O2- 8 b 0.3373(6) 0.5306(4) 0.4107(3) 0.0141(12) 0.5 0
O30 O2- 8 b 0.5429(8) 0.4411(6) 0.4069(4) 0.037(2) 0.5 0
Mg1 Mg2+ 4 a 0. 0.40172(15) 0.28024(9) 0.0100(4) 1 0
Mg2 Mg2+ 4 a 0.5 0.43819(13) 0.13099(9) 0.0072(4) 1 0
Mg3 Mg2+ 4 a 0. 0.85120(14) 0.01707(9) 0.0082(4) 1 0
Mg4 Mg2+ 4 a 0. 0.78245(17) 0.39476(10) 0.0115(4) 1 0
Mg5 Mg2+ 8 b 0.76130(15) 0.29805(10) 0.17575(7) 0.0091(3) 1 0
Mg6 Mg2+ 8 b 0.2319(3) 0.63904(12) 0.43096(8) 0.0284(5) 1 0
Mg7 Mg2+ 8 b 0.34561(18) 0.60958(11) 0.28670(8) 0.0187(4) 1 0
Mg8 Mg2+ 8 b 0.24440(18) 0.61726(10) 0.11851(7) 0.0155(3) 1 0
Mg9 Mg2+ 8 b 0.2460(2) 0.56877(13) 0.87518(8) 0.0254(5) 0.5 0
Na1 Na1+ 8 b 0.2460(2) 0.56877(13) 0.87518(8) 0.0254(5) 0.5 0
Na2 Na1+ 4 a 0. 0.0937(2) 0.78091(13) 0.0195(6) 1 0
Na3 Na1+ 4 a 0. 0.2634(2) 0.40137(14) 0.0226(7) 1 0
Na4 Na1+ 4 a 0. 0.4531(3) 0.14512(14) 0.0235(8) 1 0
Na5 Na1+ 4 a 0.5 0.4330(2) 0.52265(14) 0.0230(6) 1 0
Na6 Na1+ 4 a 0.5 0.7765(2) 0.05347(18) 0.0352(9) 1 0
Na7 Na1+ 8 b 0.9685(5) 0.6495(4) 0.2386(2) 0.0455(19) 0.5 0
loop_
_atom_site_aniso_label
_atom_site_aniso_type_symbol
_atom_site_aniso_U_11
_atom_site_aniso_U_22
_atom_site_aniso_U_33
_atom_site_aniso_U_12
_atom_site_aniso_U_13
_atom_site_aniso_U_23
Nd1 Nd3+ 0.00955(11) 0.00944(11) 0.00815(11) 0. 0. 0.00003(13)
P1 P5+ 0.0045(4) 0.0058(4) 0.0080(4) -0.0004(3) -0.0007(3) 0.0007(3)
O1 O2- 0.0116(14) 0.0103(14) 0.0129(14) -0.0008(11) -0.0013(11) 0.0024(11)
O2 O2- 0.0077(12) 0.0131(15) 0.0180(14) 0.0004(10) -0.0045(11) 0.0040(12)
O3 O2- 0.0140(12) 0.0133(12) 0.0101(11) 0.0056(9) -0.0042(14) -0.0014(15)
O4 O2- 0.0107(13) 0.0078(12) 0.0152(14) 0.0017(10) 0.0009(11) -0.0026(11)
P2 P5+ 0.0077(4) 0.0110(5) 0.0107(4) 0.0020(4) 0.0012(3) 0.0015(4)
O5 O2- 0.032(2) 0.0138(16) 0.0238(18) -0.0055(15) -0.0075(15) 0.0097(14)
O6 O2- 0.0187(16) 0.0227(18) 0.0158(16) 0.0043(13) 0.0081(13) -0.0005(14)
O7 O2- 0.0083(13) 0.0147(15) 0.0146(15) 0.0024(11) 0.0001(10) 0.0006(12)
O8 O2- 0.0075(12) 0.0174(14) 0.0073(12) 0.0037(11) 0.0006(10) 0.0014(11)
P3 P5+ 0.0102(4) 0.0082(4) 0.0090(4) -0.0014(3) 0.0035(4) 0.0002(3)
O9 O2- 0.0216(17) 0.0185(16) 0.0102(14) -0.0027(13) 0.0001(12) 0.0042(12)
O10 O2- 0.0230(17) 0.0127(15) 0.0152(15) -0.0051(13) -0.0003(13) -0.0008(12)
O11 O2- 0.0140(14) 0.0133(15) 0.0187(15) 0.0007(12) 0.0105(12) 0.0022(12)
O12 O2- 0.0102(13) 0.0164(15) 0.0213(17) 0.0026(11) 0.0038(11) -0.0065(12)
P4 P5+ 0.0090(4) 0.0146(5) 0.0113(5) 0.0012(4) -0.0023(4) -0.0070(4)
O13 O2- 0.0142(16) 0.044(3) 0.043(2) 0.0165(17) -0.0161(17) -0.036(2)
O14 O2- 0.041(2) 0.031(2) 0.0138(18) -0.0208(19) 0.0055(17) -0.0077(15)
O15 O2- 0.0123(13) 0.0217(17) 0.0088(13) -0.0002(12) -0.0021(11) -0.0017(12)
O16 O2- 0.028(2) 0.0195(18) 0.0151(16) 0.0066(15) -0.0036(14) -0.0102(13)
P5 P5+ 0.0079(6) 0.0051(6) 0.0076(6) 0. 0. 0.0011(5)
O17 O2- 0.021(2) 0.0100(19) 0.012(2) 0. 0. -0.0024(16)
O18 O2- 0.015(2) 0.0055(18) 0.0110(19) 0. 0. 0.0003(15)
O19 O2- 0.0095(14) 0.0115(15) 0.0185(15) -0.0013(11) -0.0040(11) 0.0006(12)
P6 P5+ 0.0053(6) 0.0062(6) 0.0065(6) 0. 0. 0.0004(5)
O20 O2- 0.0110(15) 0.0175(17) 0.0255(19) -0.0056(12) -0.0036(13) 0.0066(14)
O21 O2- 0.071(5) 0.006(2) 0.012(2) 0. 0. -0.0005(18)
O22 O2- 0.019(2) 0.023(3) 0.009(2) 0. 0. 0.0034(18)
P7 P5+ 0.0061(12) 0.0098(9) 0.0075(8) 0.0002(6) 0.0002(6) -0.0024(7)
O23 O2- 0.027(3) 0.014(2) 0.0083(19) 0. 0. -0.0022(16)
O24 O2- 0.051(18) 0.012(3) 0.047(5) 0.011(5) 0.000(5) -0.012(3)
O25 O2- 0.019(3) 0.049(5) 0.008(3) 0.021(3) 0.001(2) 0.007(3)
P8 P5+ 0.012(4) 0.0146(9) 0.0094(7) -0.0055(11) 0.0032(9) -0.0058(6)
O27 O2- 0.021(3) 0.049(4) 0.007(2) 0. 0. -0.007(2)
O28 O2- 0.014(3) 0.018(3) 0.007(3) -0.001(2) -0.004(2) -0.006(2)
O29 O2- 0.009(3) 0.011(3) 0.023(3) -0.004(2) 0.007(2) -0.003(2)
Mg1 Mg2+ 0.0107(9) 0.0119(10) 0.0072(9) 0. 0. 0.0004(8)
Mg2 Mg2+ 0.0089(9) 0.0069(9) 0.0057(8) 0. 0. -0.0012(7)
Mg3 Mg2+ 0.0084(9) 0.0100(9) 0.0063(8) 0. 0. 0.0006(7)
Mg4 Mg2+ 0.0047(8) 0.0212(12) 0.0085(9) 0. 0. 0.0029(8)
Mg5 Mg2+ 0.0094(6) 0.0081(6) 0.0097(6) 0.0007(5) 0.0006(5) 0.0002(5)
Mg6 Mg2+ 0.0638(15) 0.0095(8) 0.0119(8) 0.0020(9) 0.0194(9) 0.0014(6)
Mg7 Mg2+ 0.0232(9) 0.0122(8) 0.0207(9) -0.0036(6) 0.0076(7) -0.0063(7)
Mg8 Mg2+ 0.0256(8) 0.0089(7) 0.0121(7) -0.0053(6) 0.0074(6) -0.0026(6)
Mg9 Mg2+ 0.0535(14) 0.0087(8) 0.0140(8) 0.0107(8) -0.0124(9) -0.0020(7)
Na1 Na1+ 0.0535(14) 0.0087(8) 0.0140(8) 0.0107(8) -0.0124(9) -0.0020(7)
Na2 Na1+ 0.0121(12) 0.0292(17) 0.0172(14) 0. 0. -0.0063(13)
Na3 Na1+ 0.0154(14) 0.0356(19) 0.0167(15) 0. 0. 0.0073(14)
Na4 Na1+ 0.0152(15) 0.043(2) 0.0125(14) 0. 0. 0.0112(14)
Na5 Na1+ 0.0312(17) 0.0170(14) 0.0208(15) 0. 0. -0.0035(12)
Na6 Na1+ 0.0243(17) 0.0295(19) 0.052(2) 0. 0. -0.0176(17)
Na7 Na1+ 0.047(5) 0.057(3) 0.032(3) 0.009(3) 0.000(2) 0.029(3)
#End of TTdata_262782-ICSD