
#(C) 2019 by FIZ Karlsruhe - Leibniz Institute for Information Infrastructure.  All rights reserved.
data_262812-ICSD
_database_code_ICSD 262812
_audit_creation_date 2012-08-01
_chemical_name_systematic
'Sodium (iron(III) manganese(II)) (orthophosphate) (3.4/1.6/0.4/3)'
_chemical_formula_structural 'Na3.4 ((Fe1.6 Mn0.4) (P O4)3)'
_chemical_formula_sum 'Fe1.6 Mn0.4 Na3.4 O12 P3'
_chemical_name_structure_type CoCr3Na7(PO4)6
_exptl_crystal_density_diffrn 3.21
_cell_measurement_temperature 293.
_publ_section_title 'NASICON-related Na3.4 Mn0.4 Fe1.6 (P O4)3'
loop_
_citation_id
_citation_journal_full
_citation_year
_citation_journal_volume
_citation_page_first
_citation_page_last
_citation_journal_id_ASTM
primary 'Acta Crystallographica, Section E: Structure Reports Online' 2012 68
i55 i55 ACSEBH
loop_
_publ_author_name
'Yatskin, M.M.'
'Strutynska, N.Y.'
'Baumer, V.N.'
'Ogorodnyk, I.V.'
'Slobodyanik, N.S.'
_cell_length_a 8.8694(2)
_cell_length_b 8.8694(2)
_cell_length_c 21.6074(7)
_cell_angle_alpha 90
_cell_angle_beta 90
_cell_angle_gamma 120
_cell_volume 1472.05
_cell_formula_units_Z 6
_symmetry_space_group_name_H-M 'R -3 c H'
_symmetry_Int_Tables_number 167
_refine_ls_R_factor_all 0.0279
loop_
_symmetry_equiv_pos_site_id
_symmetry_equiv_pos_as_xyz
1 'x-y, -y, -z+1/2'
2 '-x, -x+y, -z+1/2'
3 'y, x, -z+1/2'
4 'x-y, x, -z'
5 'y, -x+y, -z'
6 '-x, -y, -z'
7 '-x+y, y, z+1/2'
8 'x, x-y, z+1/2'
9 '-y, -x, z+1/2'
10 '-x+y, -x, z'
11 '-y, x-y, z'
12 'x, y, z'
13 'x-y+2/3, -y+1/3, -z+5/6'
14 '-x+2/3, -x+y+1/3, -z+5/6'
15 'y+2/3, x+1/3, -z+5/6'
16 'x-y+2/3, x+1/3, -z+1/3'
17 'y+2/3, -x+y+1/3, -z+1/3'
18 '-x+2/3, -y+1/3, -z+1/3'
19 '-x+y+2/3, y+1/3, z+5/6'
20 'x+2/3, x-y+1/3, z+5/6'
21 '-y+2/3, -x+1/3, z+5/6'
22 '-x+y+2/3, -x+1/3, z+1/3'
23 '-y+2/3, x-y+1/3, z+1/3'
24 'x+2/3, y+1/3, z+1/3'
25 'x-y+1/3, -y+2/3, -z+1/6'
26 '-x+1/3, -x+y+2/3, -z+1/6'
27 'y+1/3, x+2/3, -z+1/6'
28 'x-y+1/3, x+2/3, -z+2/3'
29 'y+1/3, -x+y+2/3, -z+2/3'
30 '-x+1/3, -y+2/3, -z+2/3'
31 '-x+y+1/3, y+2/3, z+1/6'
32 'x+1/3, x-y+2/3, z+1/6'
33 '-y+1/3, -x+2/3, z+1/6'
34 '-x+y+1/3, -x+2/3, z+2/3'
35 '-y+1/3, x-y+2/3, z+2/3'
36 'x+1/3, y+2/3, z+2/3'
loop_
_atom_type_symbol
_atom_type_oxidation_number
Na1+ 1
Fe3+ 3
Mn2+ 2
P5+ 5
O2- -2
loop_
_atom_site_label
_atom_site_type_symbol
_atom_site_symmetry_multiplicity
_atom_site_Wyckoff_symbol
_atom_site_fract_x
_atom_site_fract_y
_atom_site_fract_z
_atom_site_B_iso_or_equiv
_atom_site_occupancy
_atom_site_attached_hydrogens
Na1 Na1+ 6 b 0 0 0 0.0322(8) 0.848(5) 0
Na2 Na1+ 18 e 0.63677(18) 0 0.25 0.0356(6) 0.853(5) 0
Fe1 Fe3+ 12 c 0 0 0.149480(18) 0.01045(11) 0.7991(12) 0
Mn1 Mn2+ 12 c 0 0 0.149480(18) 0.01045(11) 0.2009(12) 0
P1 P5+ 18 e 0.29637(7) 0 0.25 0.01144(13) 1 0
O1 O2- 36 f 0.1887(2) -0.0197(3) 0.19242(8) 0.0346(4) 1 0
O2 O2- 36 f 0.18883(19) 0.17055(18) 0.08615(7) 0.0214(3) 1 0
loop_
_atom_site_aniso_label
_atom_site_aniso_type_symbol
_atom_site_aniso_U_11
_atom_site_aniso_U_22
_atom_site_aniso_U_33
_atom_site_aniso_U_12
_atom_site_aniso_U_13
_atom_site_aniso_U_23
Na1 Na1+ 0.0421(11) 0.0421(11) 0.0124(10) 0.0211(6) 0 0
Na2 Na1+ 0.0206(6) 0.0151(7) 0.0694(14) 0.0075(3) 0.0068(4) 0.0136(7)
Fe1 Fe3+ 0.01042(13) 0.01042(13) 0.01049(17) 0.00521(7) 0 0
Mn1 Mn2+ 0.01042(13) 0.01042(13) 0.01049(17) 0.00521(7) 0 0
P1 P5+ 0.01059(19) 0.0092(2) 0.0141(2) 0.00459(12) 0.00093(9) 0.00185(18)
O1 O2- 0.0270(8) 0.0404(10) 0.0327(8) 0.0142(7) -0.0155(7) 0.0016(7)
O2 O2- 0.0157(6) 0.0139(6) 0.0274(7) 0.0021(5) -0.0002(5) 0.0021(5)
#End of TTdata_262812-ICSD