
#(C) 2019 by FIZ Karlsruhe - Leibniz Institute for Information Infrastructure.  All rights reserved.
data_262839-ICSD
_database_code_ICSD 262839
_audit_creation_date 2012-08-01
_chemical_name_systematic 'Sodium nickel trifluoride'
_chemical_formula_structural 'Na Ni F3'
_chemical_formula_sum 'F3 Na1 Ni1'
_exptl_crystal_density_diffrn 4.02
_cell_measurement_temperature 300.
_publ_section_title

;
High-pressure stability relations, crystal structures, and physical properties
of perovskite and post-perovskite of Na Ni F3
;
loop_
_citation_id
_citation_journal_full
_citation_year
_citation_journal_volume
_citation_page_first
_citation_page_last
_citation_journal_id_ASTM
primary 'Journal of Solid State Chemistry' 2012 191 167 174 JSSCBI
loop_
_publ_author_name
'Shirako, Y.'
'Shi, Y.G.'
'Aimi, A.'
'Mori, D.'
'Kojitani, H.'
'Yamaura, K.'
'Inaguma, Y.'
'Akaogi, M.'
_cell_length_a 5.5361(1)
_cell_length_b 7.7056(1)
_cell_length_c 5.3674(1)
_cell_angle_alpha 90.
_cell_angle_beta 90.
_cell_angle_gamma 90.
_cell_volume 228.97
_cell_formula_units_Z 4
_symmetry_space_group_name_H-M 'P b n m'
_symmetry_Int_Tables_number 62
_refine_ls_R_factor_all 0.0335
loop_
_symmetry_equiv_pos_site_id
_symmetry_equiv_pos_as_xyz
1 '-x+1/2, y+1/2, z'
2 'x, y, -z+1/2'
3 'x+1/2, -y+1/2, z+1/2'
4 '-x, -y, -z'
5 'x+1/2, -y+1/2, -z'
6 '-x, -y, z+1/2'
7 '-x+1/2, y+1/2, -z+1/2'
8 'x, y, z'
loop_
_atom_type_symbol
_atom_type_oxidation_number
Na1+ 1
Ni2+ 2
F1- -1
loop_
_atom_site_label
_atom_site_type_symbol
_atom_site_symmetry_multiplicity
_atom_site_Wyckoff_symbol
_atom_site_fract_x
_atom_site_fract_y
_atom_site_fract_z
_atom_site_B_iso_or_equiv
_atom_site_occupancy
_atom_site_attached_hydrogens
Na1 Na1+ 8 d 0.0537(2) 0.25 0.9865(5) 0.0182(4) 0.5 0
Ni1 Ni2+ 4 a 0 0 0.5 0.00593(12) 1 0
F1 F1- 8 d 0.4669(4) 0.25 0.0966(3) 0.0106(6) 1 0
F2 F1- 8 d 0.2978(3) 0.0514(2) 0.6995(3) 0.0090(4) 0.5 0
#End of TTdata_262839-ICSD