
#(C) 2019 by FIZ Karlsruhe - Leibniz Institute for Information Infrastructure.  All rights reserved.
data_26323-ICSD
_database_code_ICSD 26323
_audit_creation_date 1980-01-01
_chemical_name_systematic 'Sodium hydrogensilicate dihydrate'
_chemical_formula_structural 'Na3 H Si O4 (H2 O)2'
_chemical_formula_sum 'H5 Na3 O6 Si1'
_exptl_crystal_density_diffrn 2.22
_publ_section_title 'The Structure of Trisodium Hydrogensilicate Dihydrate'
loop_
_citation_id
_citation_journal_full
_citation_year
_citation_journal_volume
_citation_page_first
_citation_page_last
_citation_journal_id_ASTM
primary

;
Acta Crystallographica, Section B: Structural Crystallography and Crystal
Chemistry
; 1979 35 3024 3027 ACBCAR
loop_
_publ_author_name
'Schmid, R.'
'Huttner, G.'
'Felsche, J.'
_cell_length_a 10.470(4)
_cell_length_b 18.704(12)
_cell_length_c 6.059(3)
_cell_angle_alpha 90.
_cell_angle_beta 90.
_cell_angle_gamma 90.
_cell_volume 1186.54
_cell_formula_units_Z 8
_symmetry_space_group_name_H-M 'P b c a'
_symmetry_Int_Tables_number 61
_refine_ls_R_factor_all 0.031
loop_
_symmetry_equiv_pos_site_id
_symmetry_equiv_pos_as_xyz
1 'x+1/2, y, -z+1/2'
2 'x, -y+1/2, z+1/2'
3 '-x+1/2, y+1/2, z'
4 '-x, -y, -z'
5 '-x+1/2, -y, z+1/2'
6 '-x, y+1/2, -z+1/2'
7 'x+1/2, -y+1/2, -z'
8 'x, y, z'
loop_
_atom_type_symbol
_atom_type_oxidation_number
Si4+ 4
Na1+ 1
O2- -2
H1+ 1
loop_
_atom_site_label
_atom_site_type_symbol
_atom_site_symmetry_multiplicity
_atom_site_Wyckoff_symbol
_atom_site_fract_x
_atom_site_fract_y
_atom_site_fract_z
_atom_site_B_iso_or_equiv
_atom_site_occupancy
_atom_site_attached_hydrogens
Si1 Si4+ 8 c 0.06928(6) 0.12864(3) 0.2285(1) . 1. 0
Na1 Na1+ 8 c 0.0052(1) 0.18222(5) -.2820(2) . 1. 0
Na2 Na1+ 8 c 0.28389(9) 0.10802(5) 0.5269(2) . 1. 0
Na3 Na1+ 8 c -.04991(8) -.01521(4) 0.2387(2) . 1. 0
O1 O2- 8 c -.0039(1) 0.09777(7) 0.0166(3) . 1. 0
O2 O2- 8 c 0.2114(2) 0.16015(8) 0.1798(3) . 1. 0
O3 O2- 8 c 0.0766(2) 0.07116(8) 0.4291(3) . 1. 0
O4 O2- 8 c -.0185(2) 0.19823(8) 0.3279(3) . 1. 0
O5 O2- 8 c 0.2693(2) 0.03459(9) 0.8523(3) . 1. 0
O6 O2- 8 c 0.2435(2) 0.19889(8) -.2318(3) . 1. 0
H1 H1+ 8 c -.110(3) 0.190(1) 0.314(5) 1.5 1. 0
H2 H1+ 8 c 0.170(3) 0.007(2) 0.410(5) 1.5 1. 0
H3 H1+ 8 c 0.270(3) 0.062(2) -.050(5) 1.5 1. 0
H4 H1+ 8 c 0.230(3) 0.190(2) -.070(5) 1.5 1. 0
H5 H1+ 8 c 0.240(2) 0.241(2) 0.263(5) 1.5 1. 0
loop_
_atom_site_aniso_label
_atom_site_aniso_type_symbol
_atom_site_aniso_U_11
_atom_site_aniso_U_22
_atom_site_aniso_U_33
_atom_site_aniso_U_12
_atom_site_aniso_U_13
_atom_site_aniso_U_23
Si1 Si4+ 0.0069(2) 0.0062 0.0073(2) 0.0001(2) 0.0000(2) 0.0003(2)
Na1 Na1+ 0.0171(4) 0.0108(3) 0.0122(4) -.0016(3) -.0006(3) 0.0021(3)
Na2 Na1+ 0.0081(3) 0.0130(3) 0.0114(3) 0.0000(3) -.0004(3) -.0001(3)
Na3 Na1+ 0.0127(4) 0.0087(3) 0.0092(3) -.0018(3) 0.0004(3) -.0003(3)
O1 O2- 0.0095(6) 0.0082(5) 0.0090(6) -.0006(4) -.0009(5) -.0008(4)
O2 O2- 0.0098(6) 0.0099(6) 0.0110(6) -.0018(5) 0.0002(5) 0.0009(5)
O3 O2- 0.0097(6) 0.0094(5) 0.0105(6) -.0009(5) -.0011(5) 0.0020(5)
O4 O2- 0.0119(6) 0.0091(6) 0.0126(6) 0.0018(5) -.0005(5) -.0015(5)
O5 O2- 0.0159(7) 0.0154(7) 0.0125(7) 0.0026(5) -.0021(6) 0.0002(5)
O6 O2- 0.0207(8) 0.0103(6) 0.0117(6) 0.0000(5) 0.0026(6) -.0006(5)
#End of TTdata_26323-ICSD