
#(C) 2019 by FIZ Karlsruhe - Leibniz Institute for Information Infrastructure.  All rights reserved.
data_26326-ICSD
_database_code_ICSD 26326
_audit_creation_date 1980-12-31
_chemical_name_systematic 'Sodium dithionate dihydrate'
_chemical_formula_structural 'Na2 S2 O6 (H2 O)2'
_chemical_formula_sum 'H4 Na2 O8 S2'
_chemical_name_structure_type Na2S2O6(H2O)2
_exptl_crystal_density_diffrn 2.19
_publ_section_title
'X-ray Diffraction Study of Na2 S2 O6 (H2 O)2 and Na2 S2 O6 (D2 O)2'
loop_
_citation_id
_citation_journal_full
_citation_year
_citation_journal_volume
_citation_page_first
_citation_page_last
_citation_journal_id_ASTM
primary

;
Acta Crystallographica, Section B: Structural Crystallography and Crystal
Chemistry
; 1980 36 223 228 ACBCAR
loop_
_publ_author_name
'Kirfel, A.'
'Will, G.'
'Weiss, A.'
_cell_length_a 6.407(1)
_cell_length_b 10.751(4)
_cell_length_c 10.665(3)
_cell_angle_alpha 90.
_cell_angle_beta 90.
_cell_angle_gamma 90.
_cell_volume 734.62
_cell_formula_units_Z 4
_symmetry_space_group_name_H-M 'P n m a'
_symmetry_Int_Tables_number 62
_refine_ls_R_factor_all 0.021
loop_
_symmetry_equiv_pos_site_id
_symmetry_equiv_pos_as_xyz
1 'x+1/2, y, -z+1/2'
2 'x, -y+1/2, z'
3 '-x+1/2, y+1/2, z+1/2'
4 '-x, -y, -z'
5 '-x+1/2, -y, z+1/2'
6 '-x, y+1/2, -z'
7 'x+1/2, -y+1/2, -z+1/2'
8 'x, y, z'
loop_
_atom_type_symbol
_atom_type_oxidation_number
S5+ 5
O2- -2
Na1+ 1
H1+ 1
loop_
_atom_site_label
_atom_site_type_symbol
_atom_site_symmetry_multiplicity
_atom_site_Wyckoff_symbol
_atom_site_fract_x
_atom_site_fract_y
_atom_site_fract_z
_atom_site_B_iso_or_equiv
_atom_site_occupancy
_atom_site_attached_hydrogens
S1 S5+ 4 c 0.2495(1) 0.25 0.4586(1) . 1. 0
S2 S5+ 4 c -.0018(1) 0.25 0.5908(1) . 1. 0
O1 O2- 8 d 0.3647(2) 0.1366(1) 0.4832(1) . 1. 0
O2 O2- 4 c 0.1432(3) 0.25 0.3380(2) . 1. 0
O3 O2- 8 d -.1146(2) 0.1365(1) 0.5630(1) . 1. 0
O4 O2- 4 c 0.0955(3) 0.25 0.7138(2) . 1. 0
O5 O2- 8 d 0.2516(2) 0.0442(1) 0.1891(1) . 1. 0
Na1 Na1+ 8 d 0.0687(1) 0.0621(1) 0.8471(1) . 1. 0
H1 H1+ 8 d 0.812(4) 0.443(3) 0.370(3) 1.8 1. 0
H2 H1+ 8 d 0.731(4) 0.393(2) 0.278(2) 1.5 1. 0
loop_
_atom_site_aniso_label
_atom_site_aniso_type_symbol
_atom_site_aniso_U_11
_atom_site_aniso_U_22
_atom_site_aniso_U_33
_atom_site_aniso_U_12
_atom_site_aniso_U_13
_atom_site_aniso_U_23
S1 S5+ 0.0163(3) 0.0177(2) 0.0164(2) 0 0.0005(2) 0
S2 S5+ 0.0161(3) 0.0195(2) 0.0169(2) 0 0.0008(2) 0
O1 O2- 0.0265(6) 0.0276(6) 0.0275(6) 0.0100(5) 0.0016(5) 0.0028(6)
O2 O2- 0.0271(10) 0.0277(9) 0.0185(9) 0 -.0038(9) 0
O3 O2- 0.0291(7) 0.0318(7) 0.0309(7) -.0116(6) 0.0053(5) -.0051(6)
O4 O2- 0.030(1) 0.0335(10) 0.0180(9) 0 -.0023(8) 0
O5 O2- 0.0311(7) 0.0263(6) 0.0245(6) -.0014(5) 0.0000(6) -.0025(5)
Na1 Na1+ 0.0245(4) 0.0305(4) 0.0291(4) -.0036(3) 0.0030(3) -.0038(3)
#End of TTdata_26326-ICSD