
#(C) 2019 by FIZ Karlsruhe - Leibniz Institute for Information Infrastructure.  All rights reserved.
data_26330-ICSD
_database_code_ICSD 26330
_audit_creation_date 1981-12-31
_audit_update_record 2012-02-01
_chemical_name_systematic 'Disodium chromate'
_chemical_formula_structural 'Na2 (Cr O4)'
_chemical_formula_sum 'Cr1 Na2 O4'
_chemical_name_structure_type Na2CrO4
_exptl_crystal_density_diffrn 2.78
_cell_measurement_temperature 296.
_publ_section_title 'Sodium chromate(VI) at 296 K (neutron)'
loop_
_citation_id
_citation_journal_full
_citation_year
_citation_journal_volume
_citation_page_first
_citation_page_last
_citation_journal_id_ASTM
primary

;
Acta Crystallographica, Section B: Structural Crystallography and Crystal
Chemistry
; 1981 37 431 433 ACBCAR
loop_
_publ_author_name
'Nimmo, J.K.'
_cell_length_a 5.862(2)
_cell_length_b 9.251(5)
_cell_length_c 7.145(3)
_cell_angle_alpha 90.
_cell_angle_beta 90.
_cell_angle_gamma 90.
_cell_volume 387.47
_cell_formula_units_Z 4
_symmetry_space_group_name_H-M 'C m c m'
_symmetry_Int_Tables_number 63
_refine_ls_R_factor_all 0.03
loop_
_symmetry_equiv_pos_site_id
_symmetry_equiv_pos_as_xyz
1 '-x, y, -z+1/2'
2 '-x, -y, z+1/2'
3 '-x, y, z'
4 '-x, -y, -z'
5 'x, -y, z+1/2'
6 'x, y, -z+1/2'
7 'x, -y, -z'
8 'x, y, z'
9 '-x+1/2, y+1/2, -z+1/2'
10 '-x+1/2, -y+1/2, z+1/2'
11 '-x+1/2, y+1/2, z'
12 '-x+1/2, -y+1/2, -z'
13 'x+1/2, -y+1/2, z+1/2'
14 'x+1/2, y+1/2, -z+1/2'
15 'x+1/2, -y+1/2, -z'
16 'x+1/2, y+1/2, z'
loop_
_atom_type_symbol
_atom_type_oxidation_number
Na1+ 1
Cr6+ 6
O2- -2
loop_
_atom_site_label
_atom_site_type_symbol
_atom_site_symmetry_multiplicity
_atom_site_Wyckoff_symbol
_atom_site_fract_x
_atom_site_fract_y
_atom_site_fract_z
_atom_site_B_iso_or_equiv
_atom_site_occupancy
_atom_site_attached_hydrogens
Na1 Na1+ 4 c 0 0.1882(1) 0.25 . 1. 0
Na2 Na1+ 4 b 0 0.5 0 . 1. 0
Cr1 Cr6+ 4 c 0 0.85361(9) 0.25 . 1. 0
O1 O2- 8 g 0.27001(7) 0.45757(5) 0.25 . 1. 0
O2 O2- 8 f 0 0.24929(5) 0.56402(7) . 1. 0
loop_
_atom_site_aniso_label
_atom_site_aniso_type_symbol
_atom_site_aniso_beta_11
_atom_site_aniso_beta_22
_atom_site_aniso_beta_33
_atom_site_aniso_beta_12
_atom_site_aniso_beta_13
_atom_site_aniso_beta_23
Na1 Na1+ 0.0306(4) 0.0054(1) 0.0101(2) 0 0 0
Na2 Na1+ 0.0136(2) 0.00421(8) 0.0066(2) 0 0 0.0005(1)
Cr1 Cr6+ 0.0063(2) 0.00256(7) 0.0047(1) 0 0 0
O1 O2- 0.0113(1) 0.00674(5) 0.00873(9) 0.00396(6) 0 0
O2 O2- 0.0208(1) 0.00510(4) 0.00868(9) 0 0 0.00284(5)
#End of TTdata_26330-ICSD