
#(C) 2019 by FIZ Karlsruhe - Leibniz Institute for Information Infrastructure.  All rights reserved.
data_263476-ICSD
_database_code_ICSD 263476
_audit_creation_date 2018-08-01
_chemical_name_systematic
'Calcium sodium aluminium silicate (0.66/0.34/1.66/2.34)'
_chemical_formula_structural 'Ca0.66 Na0.34 Al1.66 Si2.34 O8'
_chemical_formula_sum 'Al1.66 Ca0.66 Na0.34 O8 Si2.34'
_chemical_name_mineral Plagioclase
_exptl_crystal_density_diffrn 2.72
_cell_measurement_temperature 100.
_publ_section_title

;
Revisiting the I anti 1 structures of high-temperature Ca-rich plagioclase
feldspar - a single-crystal neutron and X-ray diffraction study
;
loop_
_citation_id
_citation_journal_full
_citation_year
_citation_journal_volume
_citation_page_first
_citation_page_last
_citation_journal_id_ASTM
primary

;
Acta Crystallographica, Section B: Structural Science, Crystal Engineering and
Materials
; 2018 74 152 164 ACSBDA
loop_
_publ_author_name
'Jin, Shiyun'
'Wang, Xiaoping'
'Xu, Huifang'
_cell_length_a 8.1635(2)
_cell_length_b 12.8615(2)
_cell_length_c 14.1936(3)
_cell_angle_alpha 93.5104(19)
_cell_angle_beta 116.124(2)
_cell_angle_gamma 90.5297(13)
_cell_volume 1334.41
_cell_formula_units_Z 8
_symmetry_space_group_name_H-M 'I -1'
_symmetry_Int_Tables_number 2
_refine_ls_R_factor_all 0.0675
loop_
_symmetry_equiv_pos_site_id
_symmetry_equiv_pos_as_xyz
1 '-x, -y, -z'
2 'x, y, z'
3 '-x+1/2, -y+1/2, -z+1/2'
4 'x+1/2, y+1/2, z+1/2'
loop_
_atom_type_symbol
_atom_type_oxidation_number
Ca2+ 2
Na1+ 1
Ca2+ 2
Na1+ 1
Ca2+ 2
Na1+ 1
Ca2+ 2
Na1+ 1
Si4+ 4
Al3+ 3
Si4+ 4
Al3+ 3
Si4+ 4
Al3+ 3
Si4+ 4
Al3+ 3
Si4+ 4
Al3+ 3
Si4+ 4
O2- -2
loop_
_atom_site_label
_atom_site_type_symbol
_atom_site_symmetry_multiplicity
_atom_site_Wyckoff_symbol
_atom_site_fract_x
_atom_site_fract_y
_atom_site_fract_z
_atom_site_B_iso_or_equiv
_atom_site_occupancy
_atom_site_attached_hydrogens
Ca1 Ca2+ 4 i 0.77451(15) -0.46549(10) -0.45451(9) 0.0137(3) 0.3142 0
Na1 Na1+ 4 i 0.77451(15) -0.46549(10) -0.45451(9) 0.0137(3) 0.1672 0
Ca2 Ca2+ 4 i 0.76659(17) -0.51817(14) -0.41337(11) 0.0243(4) 0.3102 0
Na2 Na1+ 4 i 0.76659(17) -0.51817(14) -0.41337(11) 0.0243(4) 0.2084 0
Ca3 Ca2+ 4 i 0.26831(10) 0.03022(6) -0.45315(6) 0.01240(19) 0.4968 0
Na3 Na1+ 4 i 0.26831(10) 0.03022(6) -0.45315(6) 0.01240(19) 0.2546 0
Ca4 Ca2+ 4 i 0.2631(3) 0.9922(3) -0.42036(17) 0.0175(7) 0.1988 0
Na4 Na1+ 4 i 0.2631(3) 0.9922(3) -0.42036(17) 0.0175(7) 0.0498 0
Si1 Si4+ 4 i -0.50756(6) 0.34002(4) -0.60476(3) 0.00525(11) 0.8554 0
Al1 Al3+ 4 i -0.50756(6) 0.34002(4) -0.60476(3) 0.00525(11) 0.1446 0
Al2 Al3+ 4 i -0.49952(7) 0.31568(4) -0.38200(4) 0.00565(12) 0.7626 0
Si2 Si4+ 4 i -0.49952(7) 0.31568(4) -0.38200(4) 0.00565(12) 0.2373 0
Al3 Al3+ 4 i 0.00393(7) 0.16448(4) -0.38999(4) 0.00570(12) 0.7393 0
Si3 Si4+ 4 i 0.00393(7) 0.16448(4) -0.38999(4) 0.00570(12) 0.2607 0
Si4 Si4+ 4 i 0.00501(6) 0.81718(4) -0.38675(3) 0.00515(11) 0.8152 0
Al4 Al3+ 4 i 0.00501(6) 0.81718(4) -0.38675(3) 0.00515(11) 0.1848 0
Al5 Al3+ 4 i -0.81252(7) 0.61071(4) -0.34244(4) 0.00621(12) 0.5537 0
Si5 Si4+ 4 i -0.81252(7) 0.61071(4) -0.34244(4) 0.00621(12) 0.4463 0
Si6 Si4+ 4 i -0.82248(6) 0.38098(4) -0.31922(4) 0.00532(11) 0.7663 0
Al6 Al3+ 4 i -0.82248(6) 0.38098(4) -0.31922(4) 0.00532(11) 0.2337 0
Si7 Si4+ 4 i -0.32010(6) 0.10636(4) -0.34144(4) 0.00647(11) 0.9699 0
Al7 Al3+ 4 i -0.32010(6) 0.10636(4) -0.34144(4) 0.00647(11) 0.0302 0
Al8 Al3+ 4 i -0.81749(7) 0.37607(4) -0.82333(4) 0.00545(12) 0.6711 0
Si8 Si4+ 4 i -0.81749(7) 0.37607(4) -0.82333(4) 0.00545(12) 0.3289 0
O1 O2- 4 i 0.5154(3) -0.3710(2) -0.5077(2) 0.0122(4) 0.7772 0
O2 O2- 4 i 0.4867(9) -0.3757(6) -0.5128(7) 0.0066(9) 0.2238 0
O3 O2- 4 i -0.01082(15) 0.12657(11) -0.51324(12) 0.0115(3) 0.7744 0
O4 O2- 4 i 0.0258(5) 0.1297(5) -0.5056(5) 0.0131(8) 0.2256 0
O5 O2- 4 i 0.42108(5) 0.00943(3) -0.13957(3) 0.00854(9) 1 0
O6 O2- 4 i 0.57593(5) -0.00857(3) -0.36193(3) 0.00863(9) 1 0
O7 O2- 4 i 0.3150(7) -0.3970(4) -0.4152(2) 0.0099(5) 0.5721 0
O8 O2- 4 i 0.3251(10) -0.3998(6) -0.3987(3) 0.0091(7) 0.4279 0
O9 O2- 4 i 0.1803(3) 0.14995(18) -0.13874(12) 0.0123(4) 0.5262 0
O10 O2- 4 i 0.1974(3) 0.14323(19) -0.11557(13) 0.0110(4) 0.4738 0
O11 O2- 4 i 0.1919(5) -0.0988(3) -0.6011(2) 0.0092(4) 0.6173 0
O12 O2- 4 i 0.2017(9) -0.1071(5) -0.5857(4) 0.0105(8) 0.3827 0
O13 O2- 4 i 0.1859(2) 0.14441(13) -0.60888(9) 0.0107(3) 0.642 0
O14 O2- 4 i 0.1697(4) 0.1503(3) -0.63207(17) 0.0134(6) 0.358 0
O15 O2- 4 i 0.51221(6) -0.21739(3) -0.36361(3) 0.01121(10) 1 0
O16 O2- 4 i 0.48891(6) -0.18204(3) -0.60812(3) 0.01209(10) 1 0
O17 O2- 4 i 0.48567(6) 0.20584(3) -0.14593(3) 0.01136(10) 1 0
O18 O2- 4 i -0.01065(6) 0.30910(3) -0.60184(3) 0.01327(11) 1 0
O19 O2- 4 i 0.8145(8) -0.1077(5) -0.1922(4) 0.0091(5) 0.5587 0
O20 O2- 4 i 0.7978(10) -0.1072(6) -0.1852(6) 0.0086(6) 0.4413 0
O21 O2- 4 i 0.2008(4) -0.1308(2) -0.78693(16) 0.0111(3) 0.6608 0
O22 O2- 4 i 0.1859(7) -0.1337(4) -0.7727(3) 0.0105(6) 0.3392 0
O23 O2- 4 i 0.2092(5) 0.1047(3) -0.3125(2) 0.0082(4) 0.6088 0
O24 O2- 4 i 0.1928(8) 0.1050(5) -0.3020(4) 0.0093(6) 0.3912 0
O25 O2- 4 i -0.1805(2) 0.13823(13) -0.71706(11) 0.0129(3) 0.7445 0
O26 O2- 4 i -0.1987(6) 0.1318(4) -0.7021(3) 0.0122(7) 0.2555 0
loop_
_atom_site_aniso_label
_atom_site_aniso_type_symbol
_atom_site_aniso_U_11
_atom_site_aniso_U_22
_atom_site_aniso_U_33
_atom_site_aniso_U_12
_atom_site_aniso_U_13
_atom_site_aniso_U_23
Ca1 Ca2+ 0.0075(4) 0.0170(4) 0.0114(4) 0.0036(3) 0.0003(3) -0.0064(3)
Na1 Na1+ 0.0075(4) 0.0170(4) 0.0114(4) 0.0036(3) 0.0003(3) -0.0064(3)
Ca2 Ca2+ 0.0083(4) 0.0464(9) 0.0159(5) -0.0082(4) 0.0061(3) -0.0191(5)
Na2 Na1+ 0.0083(4) 0.0464(9) 0.0159(5) -0.0082(4) 0.0061(3) -0.0191(5)
Ca3 Ca2+ 0.0081(2) 0.0155(3) 0.0103(3) 0.00309(19) 0.0015(2) -0.0038(2)
Na3 Na1+ 0.0081(2) 0.0155(3) 0.0103(3) 0.00309(19) 0.0015(2) -0.0038(2)
Ca4 Ca2+ 0.0024(6) 0.0419(15) 0.0058(7) -0.0015(7) 0.0013(5) -0.0115(8)
Na4 Na1+ 0.0024(6) 0.0419(15) 0.0058(7) -0.0015(7) 0.0013(5) -0.0115(8)
Si1 Si4+ 0.00484(15) 0.00750(16) 0.00311(13) -0.00185(11) 0.00156(11)
0.00008(11)
Al1 Al3+ 0.00484(15) 0.00750(16) 0.00311(13) -0.00185(11) 0.00156(11)
0.00008(11)
Al2 Al3+ 0.00603(17) 0.00790(17) 0.00296(15) 0.00256(13) 0.00194(13) 0.00005(12)
Si2 Si4+ 0.00603(17) 0.00790(17) 0.00296(15) 0.00256(13) 0.00194(13) 0.00005(12)
Al3 Al3+ 0.00563(17) 0.00690(17) 0.00413(15) -0.00162(12) 0.00177(13)
0.00052(12)
Si3 Si4+ 0.00563(17) 0.00690(17) 0.00413(15) -0.00162(12) 0.00177(13)
0.00052(12)
Si4 Si4+ 0.00535(15) 0.00734(15) 0.00233(13) 0.00263(11) 0.00132(11)
-0.00016(11)
Al4 Al3+ 0.00535(15) 0.00734(15) 0.00233(13) 0.00263(11) 0.00132(11)
-0.00016(11)
Al5 Al3+ 0.00517(16) 0.00538(16) 0.00679(16) 0.00020(12) 0.00148(13) 0.00033(12)
Si5 Si4+ 0.00517(16) 0.00538(16) 0.00679(16) 0.00020(12) 0.00148(13) 0.00033(12)
Si6 Si4+ 0.00436(15) 0.00380(14) 0.00645(15) 0.00022(10) 0.00108(12) 0.00099(11)
Al6 Al3+ 0.00436(15) 0.00380(14) 0.00645(15) 0.00022(10) 0.00108(12) 0.00099(11)
Si7 Si4+ 0.00508(15) 0.00508(14) 0.00768(15) 0.00037(11) 0.00154(12)
-0.00080(11)
Al7 Al3+ 0.00508(15) 0.00508(14) 0.00768(15) 0.00037(11) 0.00154(12)
-0.00080(11)
Al8 Al3+ 0.00445(16) 0.00584(16) 0.00575(16) 0.00007(12) 0.00188(13) 0.00115(12)
Si8 Si4+ 0.00445(16) 0.00584(16) 0.00575(16) 0.00007(12) 0.00188(13) 0.00115(12)
O1 O2- 0.0138(7) 0.0175(3) 0.0072(3) -0.0025(4) 0.0065(5) -0.0001(2)
O2 O2- 0.0056(15) 0.0105(12) 0.0057(9) 0.0034(11) 0.0040(12) 0.0022(9)
O3 O2- 0.0137(5) 0.0166(3) 0.0072(3) 0.0040(3) 0.0070(4) 0.0032(2)
O4 O2- 0.0033(11) 0.0318(13) 0.0058(9) -0.0043(10) 0.0036(9) 0.0010(7)
O5 O2- 0.00790(13) 0.00800(12) 0.00914(12) 0.00163(9) 0.00293(10) 0.00282(9)
O6 O2- 0.00798(12) 0.00770(12) 0.00871(12) -0.00179(9) 0.00236(10) 0.00048(9)
O7 O2- 0.0107(5) 0.0108(4) 0.0084(8) -0.0028(3) 0.0047(7) -0.0003(7)
O8 O2- 0.0104(9) 0.0107(5) 0.0085(11) -0.0025(5) 0.0063(10) 0.0002(9)
O9 O2- 0.0121(5) 0.0118(4) 0.0148(6) 0.0030(3) 0.0073(5) 0.0026(5)
O10 O2- 0.0097(5) 0.0121(5) 0.0127(6) 0.0006(3) 0.0066(5) -0.0006(5)
O11 O2- 0.0108(4) 0.0069(6) 0.0126(7) 0.0003(4) 0.0072(5) 0.0028(4)
O12 O2- 0.0150(9) 0.0070(7) 0.0150(13) 0.0025(5) 0.0109(10) 0.0057(7)
O13 O2- 0.0090(3) 0.0126(3) 0.0125(4) 0.0034(2) 0.0065(4) 0.0013(4)
O14 O2- 0.0150(8) 0.0174(6) 0.0122(8) 0.0045(5) 0.0097(8) 0.0030(7)
O15 O2- 0.01152(14) 0.01165(14) 0.01072(13) -0.00152(10) 0.00524(11) 0.00028(10)
O16 O2- 0.00993(14) 0.01436(15) 0.00862(13) 0.00560(11) 0.00112(11) -0.00063(10)
O17 O2- 0.01045(14) 0.01040(13) 0.01148(13) -0.00370(10) 0.00339(11) 0.00031(10)
O18 O2- 0.01530(16) 0.01177(15) 0.00855(13) 0.00462(11) 0.00174(11) -0.00223(10)
O19 O2- 0.0067(9) 0.0128(4) 0.0068(6) 0.0007(5) 0.0020(4) 0.0016(4)
O20 O2- 0.0071(11) 0.0099(4) 0.0090(9) 0.0008(6) 0.0038(4) 0.0006(5)
O21 O2- 0.0092(4) 0.0130(3) 0.0071(5) 0.0018(3) 0.0005(3) -0.0033(3)
O22 O2- 0.0092(8) 0.0120(5) 0.0064(9) -0.0016(5) 0.0004(5) -0.0032(6)
O23 O2- 0.0086(6) 0.0091(3) 0.0050(5) 0.0006(3) 0.0013(3) 0.0009(3)
O24 O2- 0.0081(9) 0.0126(5) 0.0065(9) 0.0012(5) 0.0026(4) 0.0003(6)
O25 O2- 0.0107(4) 0.0142(3) 0.0089(4) 0.0000(3) 0.0001(2) -0.0009(2)
O26 O2- 0.0045(8) 0.0190(11) 0.0107(12) 0.0024(6) 0.0016(7) -0.0037(8)
#End of TTdata_263476-ICSD