
#(C) 2019 by FIZ Karlsruhe - Leibniz Institute for Information Infrastructure.  All rights reserved.
data_263470-ICSD
_database_code_ICSD 263470
_audit_creation_date 2018-08-01
_chemical_name_systematic
'Calcium sodium aluminium silicate (0.67/0.33/1.67/2.33)'
_chemical_formula_structural 'Ca0.67 Na0.33 Al1.67 Si2.33 O8'
_chemical_formula_sum 'Al1.67 Ca0.67 Na0.33 O8 Si2.33'
_chemical_name_structure_type Feldspar#-(TC,I1-,i28)-Bytownite
_chemical_name_mineral Plagioclase
_exptl_crystal_density_diffrn 2.72
_cell_measurement_temperature 100.
_publ_section_title

;
Revisiting the I anti 1 structures of high-temperature Ca-rich plagioclase
feldspar - a single-crystal neutron and X-ray diffraction study
;
loop_
_citation_id
_citation_journal_full
_citation_year
_citation_journal_volume
_citation_page_first
_citation_page_last
_citation_journal_id_ASTM
primary

;
Acta Crystallographica, Section B: Structural Science, Crystal Engineering and
Materials
; 2018 74 152 164 ACSBDA
loop_
_publ_author_name
'Jin, Shiyun'
'Wang, Xiaoping'
'Xu, Huifang'
_cell_length_a 8.16180(10)
_cell_length_b 12.8632(2)
_cell_length_c 14.1898(2)
_cell_angle_alpha 93.5211(15)
_cell_angle_beta 116.1167(11)
_cell_angle_gamma 90.5754(9)
_cell_volume 1333.97
_cell_formula_units_Z 8
_symmetry_space_group_name_H-M 'I -1'
_symmetry_Int_Tables_number 2
_refine_ls_R_factor_all 0.0633
loop_
_symmetry_equiv_pos_site_id
_symmetry_equiv_pos_as_xyz
1 '-x, -y, -z'
2 'x, y, z'
3 '-x+1/2, -y+1/2, -z+1/2'
4 'x+1/2, y+1/2, z+1/2'
loop_
_atom_type_symbol
_atom_type_oxidation_number
Ca2+ 2
Na1+ 1
Ca2+ 2
Na1+ 1
Ca2+ 2
Na1+ 1
Ca2+ 2
Na1+ 1
Si4+ 4
Al3+ 3
Si4+ 4
Al3+ 3
Si4+ 4
Al3+ 3
Si4+ 4
Al3+ 3
Si4+ 4
Al3+ 3
Si4+ 4
O2- -2
loop_
_atom_site_label
_atom_site_type_symbol
_atom_site_symmetry_multiplicity
_atom_site_Wyckoff_symbol
_atom_site_fract_x
_atom_site_fract_y
_atom_site_fract_z
_atom_site_B_iso_or_equiv
_atom_site_occupancy
_atom_site_attached_hydrogens
Ca1 Ca2+ 4 i 0.77447(14) -0.46568(9) -0.45447(10) 0.0137(3) 0.3189 0
Na1 Na1+ 4 i 0.77447(14) -0.46568(9) -0.45447(10) 0.0137(3) 0.1784 0
Ca2 Ca2+ 4 i 0.76680(15) -0.51838(14) -0.41335(12) 0.0248(4) 0.3211 0
Na2 Na1+ 4 i 0.76680(15) -0.51838(14) -0.41335(12) 0.0248(4) 0.1816 0
Ca3 Ca2+ 4 i 0.26834(10) 0.03030(6) -0.45305(7) 0.0124(2) 0.499 0
Na3 Na1+ 4 i 0.26834(10) 0.03030(6) -0.45305(7) 0.0124(2) 0.236 0
Ca4 Ca2+ 4 i 0.2633(2) 0.9912(2) -0.41985(18) 0.0185(7) 0.201 0
Na4 Na1+ 4 i 0.2633(2) 0.9912(2) -0.41985(18) 0.0185(7) 0.064 0
Si1 Si4+ 4 i -0.50770(6) 0.34014(4) -0.60500(4) 0.00587(11) 0.8319 0
Al1 Al3+ 4 i -0.50770(6) 0.34014(4) -0.60500(4) 0.00587(11) 0.1681 0
Al2 Al3+ 4 i -0.49923(7) 0.31564(4) -0.38201(4) 0.00607(13) 0.7454 0
Si2 Si4+ 4 i -0.49923(7) 0.31564(4) -0.38201(4) 0.00607(13) 0.2546 0
Al3 Al3+ 4 i 0.00401(7) 0.16420(4) -0.39007(4) 0.00614(13) 0.7538 0
Si3 Si4+ 4 i 0.00401(7) 0.16420(4) -0.39007(4) 0.00614(13) 0.2462 0
Si4 Si4+ 4 i 0.00481(6) 0.81718(4) -0.38662(4) 0.00565(11) 0.8691 0
Al4 Al3+ 4 i 0.00481(6) 0.81718(4) -0.38662(4) 0.00565(11) 0.1309 0
Al5 Al3+ 4 i -0.81290(7) 0.61058(4) -0.34248(4) 0.00625(13) 0.6471 0
Si5 Si4+ 4 i -0.81290(7) 0.61058(4) -0.34248(4) 0.00625(13) 0.3528 0
Si6 Si4+ 4 i -0.82229(6) 0.38082(3) -0.31924(4) 0.00600(12) 0.858 0
Al6 Al3+ 4 i -0.82229(6) 0.38082(3) -0.31924(4) 0.00600(12) 0.142 0
Si7 Si4+ 4 i -0.32014(6) 0.10641(4) -0.34170(4) 0.00683(12) 0.9368 0
Al7 Al3+ 4 i -0.32014(6) 0.10641(4) -0.34170(4) 0.00683(12) 0.0632 0
Al8 Al3+ 4 i -0.81759(7) 0.37628(4) -0.82306(4) 0.00594(13) 0.6895 0
Si8 Si4+ 4 i -0.81759(7) 0.37628(4) -0.82306(4) 0.00594(13) 0.3105 0
O1 O2- 4 i 0.50831(7) -0.37199(4) -0.50900(3) 0.01471(13) 1 0
O2 O2- 4 i -0.00330(7) 0.12725(4) -0.51158(4) 0.01683(14) 1 0
O3 O2- 4 i 0.42155(5) 0.00954(3) -0.13946(3) 0.00871(10) 1 0
O4 O2- 4 i 0.57575(5) -0.00865(3) -0.36195(3) 0.00883(9) 1 0
O5 O2- 4 i 0.31894(6) -0.39860(3) -0.40794(4) 0.01448(13) 1 0
O6 O2- 4 i 0.18867(7) 0.14678(4) -0.12731(5) 0.02269(18) 1 0
O7 O2- 4 i 0.19520(6) -0.10165(3) -0.59534(4) 0.01467(13) 1 0
O8 O2- 4 i 0.18130(6) 0.14609(4) -0.61627(5) 0.02078(17) 1 0
O9 O2- 4 i 0.51232(5) -0.21724(3) -0.36320(3) 0.01171(11) 1 0
O10 O2- 4 i 0.48933(5) -0.18208(3) -0.60782(3) 0.01261(11) 1 0
O11 O2- 4 i 0.48575(5) 0.20630(3) -0.14591(3) 0.01178(11) 1 0
O12 O2- 4 i -0.01050(6) 0.30940(3) -0.60187(3) 0.01363(11) 1 0
O13 O2- 4 i 0.80691(6) -0.10731(3) -0.18911(3) 0.01309(11) 1 0
O14 O2- 4 i 0.19593(6) -0.13214(4) -0.78243(4) 0.01817(13) 1 0
O15 O2- 4 i 0.20281(6) 0.10488(3) -0.30874(3) 0.01400(11) 1 0
O16 O2- 4 i -0.18518(6) 0.13721(4) -0.71401(4) 0.02039(14) 1 0
loop_
_atom_site_aniso_label
_atom_site_aniso_type_symbol
_atom_site_aniso_U_11
_atom_site_aniso_U_22
_atom_site_aniso_U_33
_atom_site_aniso_U_12
_atom_site_aniso_U_13
_atom_site_aniso_U_23
Ca1 Ca2+ 0.0069(3) 0.0166(4) 0.0127(5) 0.0035(3) 0.0005(3) -0.0054(3)
Na1 Na1+ 0.0069(3) 0.0166(4) 0.0127(5) 0.0035(3) 0.0005(3) -0.0054(3)
Ca2 Ca2+ 0.0071(3) 0.0464(9) 0.0186(6) -0.0081(4) 0.0066(4) -0.0205(6)
Na2 Na1+ 0.0071(3) 0.0464(9) 0.0186(6) -0.0081(4) 0.0066(4) -0.0205(6)
Ca3 Ca2+ 0.0076(2) 0.0158(3) 0.0112(3) 0.0027(2) 0.0022(2) -0.0035(2)
Na3 Na1+ 0.0076(2) 0.0158(3) 0.0112(3) 0.0027(2) 0.0022(2) -0.0035(2)
Ca4 Ca2+ 0.0023(5) 0.0423(14) 0.0080(8) -0.0018(7) 0.0015(5) -0.0128(8)
Na4 Na1+ 0.0023(5) 0.0423(14) 0.0080(8) -0.0018(7) 0.0015(5) -0.0128(8)
Si1 Si4+ 0.00532(13) 0.00784(16) 0.00425(17) -0.00198(11) 0.00200(13)
0.00019(11)
Al1 Al3+ 0.00532(13) 0.00784(16) 0.00425(17) -0.00198(11) 0.00200(13)
0.00019(11)
Al2 Al3+ 0.00604(15) 0.00817(18) 0.00371(19) 0.00218(13) 0.00193(14)
-0.00027(12)
Si2 Si4+ 0.00604(15) 0.00817(18) 0.00371(19) 0.00218(13) 0.00193(14)
-0.00027(12)
Al3 Al3+ 0.00550(15) 0.00756(17) 0.00469(19) -0.00188(13) 0.00165(14)
0.00067(12)
Si3 Si4+ 0.00550(15) 0.00756(17) 0.00469(19) -0.00188(13) 0.00165(14)
0.00067(12)
Si4 Si4+ 0.00546(14) 0.00784(16) 0.00323(16) 0.00252(11) 0.00155(12)
-0.00011(11)
Al4 Al3+ 0.00546(14) 0.00784(16) 0.00323(16) 0.00252(11) 0.00155(12)
-0.00011(11)
Al5 Al3+ 0.00473(15) 0.00584(16) 0.0070(2) 0.00026(12) 0.00156(14) 0.00013(12)
Si5 Si4+ 0.00473(15) 0.00584(16) 0.0070(2) 0.00026(12) 0.00156(14) 0.00013(12)
Si6 Si4+ 0.00480(13) 0.00481(15) 0.00713(18) 0.00002(11) 0.00143(13) 0.00099(11)
Al6 Al3+ 0.00480(13) 0.00481(15) 0.00713(18) 0.00002(11) 0.00143(13) 0.00099(11)
Si7 Si4+ 0.00490(13) 0.00554(15) 0.00855(19) 0.00007(11) 0.00178(13)
-0.00087(11)
Al7 Al3+ 0.00490(13) 0.00554(15) 0.00855(19) 0.00007(11) 0.00178(13)
-0.00087(11)
Al8 Al3+ 0.00450(15) 0.00667(17) 0.00651(20) -0.00017(12) 0.00223(14)
0.00126(12)
Si8 Si4+ 0.00450(15) 0.00667(17) 0.00651(20) -0.00017(12) 0.00223(14)
0.00126(12)
O1 O2- 0.02190(18) 0.01642(16) 0.00878(17) 0.00124(13) 0.00948(15) 0.00098(11)
O2 O2- 0.0265(2) 0.01885(18) 0.00965(18) 0.00532(15) 0.01162(16) 0.00365(12)
O3 O2- 0.00773(11) 0.00830(12) 0.00966(15) 0.00149(9) 0.00315(11) 0.00263(9)
O4 O2- 0.00765(11) 0.00817(12) 0.00938(15) -0.00193(9) 0.00268(10) 0.00028(9)
O5 O2- 0.01190(14) 0.01125(14) 0.0223(2) -0.00378(11) 0.01003(14) -0.00294(12)
O6 O2- 0.01511(16) 0.01492(18) 0.0431(3) -0.00173(13) 0.0188(2) -0.00815(17)
O7 O2- 0.01319(14) 0.01024(14) 0.0243(2) -0.00165(11) 0.01217(15) -0.00248(12)
O8 O2- 0.01404(16) 0.01568(18) 0.0377(3) 0.00075(13) 0.01689(19) -0.00477(16)
O9 O2- 0.01147(13) 0.01226(14) 0.01165(16) -0.00170(10) 0.00544(12) 0.00046(10)
O10 O2- 0.00992(13) 0.01511(15) 0.00957(16) 0.00530(11) 0.00150(12) -0.00094(11)
O11 O2- 0.01008(13) 0.01167(14) 0.01197(16) -0.00390(10) 0.00355(12) 0.00036(10)
O12 O2- 0.01474(15) 0.01232(15) 0.00967(16) 0.00462(11) 0.00191(13) -0.00232(11)
O13 O2- 0.01121(13) 0.01199(15) 0.01040(17) 0.00008(11) -0.00043(12) 0.00111(11)
O14 O2- 0.01215(14) 0.01335(16) 0.0162(2) 0.00199(12) -0.00459(13) -0.00541(13)
O15 O2- 0.01238(14) 0.01054(14) 0.01039(17) 0.00037(11) -0.00291(12) 0.00086(10)
O16 O2- 0.01365(16) 0.01630(18) 0.0173(2) 0.00291(13) -0.00520(15) -0.00440(14)
#End of TTdata_263470-ICSD