
#(C) 2019 by FIZ Karlsruhe - Leibniz Institute for Information Infrastructure.  All rights reserved.
data_26344-ICSD
_database_code_ICSD 26344
_audit_creation_date 1980-01-01
_audit_update_record 2004-10-01
_chemical_name_systematic 'Potassium sodium hexanitrocobaltate (1.6/1.4/1)'
_chemical_formula_structural 'K1.64 Na1.36 (Co (N O2)6)'
_chemical_formula_sum 'Co1 K1.64 N6 Na1.36 O12'
_chemical_name_structure_type K2PbCu(NO2)6
_exptl_crystal_density_diffrn 2.66
_publ_section_title
'Electron-Density Distribution in Crystals of K2 Na (Co (N O2)6)'
loop_
_citation_id
_citation_journal_full
_citation_year
_citation_journal_volume
_citation_page_first
_citation_page_last
_citation_journal_id_ASTM
primary

;
Acta Crystallographica, Section B: Structural Crystallography and Crystal
Chemistry
; 1978 34 3535 3542 ACBCAR
loop_
_publ_author_name
'Ohba, S.'
'Toriumi, K.'
'Sato, S.'
'Saito, Y.'
_cell_length_a 10.245(1)
_cell_length_b 10.245(1)
_cell_length_c 10.245(1)
_cell_angle_alpha 90.
_cell_angle_beta 90.
_cell_angle_gamma 90.
_cell_volume 1075.32
_cell_formula_units_Z 4
_symmetry_space_group_name_H-M 'F m -3'
_symmetry_Int_Tables_number 202
_refine_ls_R_factor_all 0.038
loop_
_symmetry_equiv_pos_site_id
_symmetry_equiv_pos_as_xyz
1 'z, x, -y'
2 'y, z, -x'
3 'x, y, -z'
4 '-z, -x, y'
5 '-y, -z, x'
6 '-x, -y, z'
7 'z, -x, y'
8 'y, -z, x'
9 'x, -y, z'
10 '-z, x, -y'
11 '-y, z, -x'
12 '-x, y, -z'
13 '-z, x, y'
14 '-y, z, x'
15 '-x, y, z'
16 'z, -x, -y'
17 'y, -z, -x'
18 'x, -y, -z'
19 '-z, -x, -y'
20 '-y, -z, -x'
21 '-x, -y, -z'
22 'z, x, y'
23 'y, z, x'
24 'x, y, z'
25 'z, x+1/2, -y+1/2'
26 'y, z+1/2, -x+1/2'
27 'x, y+1/2, -z+1/2'
28 '-z, -x+1/2, y+1/2'
29 '-y, -z+1/2, x+1/2'
30 '-x, -y+1/2, z+1/2'
31 'z, -x+1/2, y+1/2'
32 'y, -z+1/2, x+1/2'
33 'x, -y+1/2, z+1/2'
34 '-z, x+1/2, -y+1/2'
35 '-y, z+1/2, -x+1/2'
36 '-x, y+1/2, -z+1/2'
37 '-z, x+1/2, y+1/2'
38 '-y, z+1/2, x+1/2'
39 '-x, y+1/2, z+1/2'
40 'z, -x+1/2, -y+1/2'
41 'y, -z+1/2, -x+1/2'
42 'x, -y+1/2, -z+1/2'
43 '-z, -x+1/2, -y+1/2'
44 '-y, -z+1/2, -x+1/2'
45 '-x, -y+1/2, -z+1/2'
46 'z, x+1/2, y+1/2'
47 'y, z+1/2, x+1/2'
48 'x, y+1/2, z+1/2'
49 'z+1/2, x, -y+1/2'
50 'y+1/2, z, -x+1/2'
51 'x+1/2, y, -z+1/2'
52 '-z+1/2, -x, y+1/2'
53 '-y+1/2, -z, x+1/2'
54 '-x+1/2, -y, z+1/2'
55 'z+1/2, -x, y+1/2'
56 'y+1/2, -z, x+1/2'
57 'x+1/2, -y, z+1/2'
58 '-z+1/2, x, -y+1/2'
59 '-y+1/2, z, -x+1/2'
60 '-x+1/2, y, -z+1/2'
61 '-z+1/2, x, y+1/2'
62 '-y+1/2, z, x+1/2'
63 '-x+1/2, y, z+1/2'
64 'z+1/2, -x, -y+1/2'
65 'y+1/2, -z, -x+1/2'
66 'x+1/2, -y, -z+1/2'
67 '-z+1/2, -x, -y+1/2'
68 '-y+1/2, -z, -x+1/2'
69 '-x+1/2, -y, -z+1/2'
70 'z+1/2, x, y+1/2'
71 'y+1/2, z, x+1/2'
72 'x+1/2, y, z+1/2'
73 'z+1/2, x+1/2, -y'
74 'y+1/2, z+1/2, -x'
75 'x+1/2, y+1/2, -z'
76 '-z+1/2, -x+1/2, y'
77 '-y+1/2, -z+1/2, x'
78 '-x+1/2, -y+1/2, z'
79 'z+1/2, -x+1/2, y'
80 'y+1/2, -z+1/2, x'
81 'x+1/2, -y+1/2, z'
82 '-z+1/2, x+1/2, -y'
83 '-y+1/2, z+1/2, -x'
84 '-x+1/2, y+1/2, -z'
85 '-z+1/2, x+1/2, y'
86 '-y+1/2, z+1/2, x'
87 '-x+1/2, y+1/2, z'
88 'z+1/2, -x+1/2, -y'
89 'y+1/2, -z+1/2, -x'
90 'x+1/2, -y+1/2, -z'
91 '-z+1/2, -x+1/2, -y'
92 '-y+1/2, -z+1/2, -x'
93 '-x+1/2, -y+1/2, -z'
94 'z+1/2, x+1/2, y'
95 'y+1/2, z+1/2, x'
96 'x+1/2, y+1/2, z'
loop_
_atom_type_symbol
_atom_type_oxidation_number
Co3+ 3
N3+ 3
O2- -2
Na1+ 1
K1+ 1
Na1+ 1
loop_
_atom_site_label
_atom_site_type_symbol
_atom_site_symmetry_multiplicity
_atom_site_Wyckoff_symbol
_atom_site_fract_x
_atom_site_fract_y
_atom_site_fract_z
_atom_site_B_iso_or_equiv
_atom_site_occupancy
_atom_site_attached_hydrogens
Co1 Co3+ 4 a 0 0 0 0.00905 1. 0
N1 N3+ 24 e 0 0.19049(7) 0 . 1. 0
O1 O2- 48 h 0.10376(8) 0.25119(7) 0 . 1. 0
Na1 Na1+ 4 b 0 0.5 0 0.02345 1. 0
K1 K1+ 8 c 0.25 0.25 0.25 0.02232(10) 0.822(10) 0
Na2 Na1+ 8 c 0.25 0.25 0.25 0.02232(10) 0.178 0
loop_
_atom_site_aniso_label
_atom_site_aniso_type_symbol
_atom_site_aniso_U_11
_atom_site_aniso_U_22
_atom_site_aniso_U_33
_atom_site_aniso_U_12
_atom_site_aniso_U_13
_atom_site_aniso_U_23
N1 N3+ 0.0146(2) 0.01096(17) 0.01391(10) 0 0 0
O1 O2- 0.0190(2) 0.01620(17) 0.03360(31) -.00570(15) 0 0
#End of TTdata_26344-ICSD