
#(C) 2019 by FIZ Karlsruhe - Leibniz Institute for Information Infrastructure.  All rights reserved.
data_263477-ICSD
_database_code_ICSD 263477
_audit_creation_date 2018-08-01
_chemical_name_systematic
'Calcium sodium aluminium silicate (0.75/0.25/1.75/2.25)'
_chemical_formula_structural 'Ca0.75 Na0.25 Al1.75 Si2.25 O8'
_chemical_formula_sum 'Al1.75 Ca0.75 Na0.25 O8 Si2.25'
_chemical_name_structure_type Feldspar#-(TC,I1-,i28)-Bytownite
_chemical_name_mineral Plagioclase
_exptl_crystal_density_diffrn 2.73
_cell_measurement_temperature 293.
_publ_section_title

;
Revisiting the I anti 1 structures of high-temperature Ca-rich plagioclase
feldspar - a single-crystal neutron and X-ray diffraction study
;
loop_
_citation_id
_citation_journal_full
_citation_year
_citation_journal_volume
_citation_page_first
_citation_page_last
_citation_journal_id_ASTM
primary

;
Acta Crystallographica, Section B: Structural Science, Crystal Engineering and
Materials
; 2018 74 152 164 ACSBDA
loop_
_publ_author_name
'Jin, Shiyun'
'Wang, Xiaoping'
'Xu, Huifang'
_cell_length_a 8.1720(3)
_cell_length_b 12.8675(2)
_cell_length_c 14.18900(10)
_cell_angle_alpha 93.4437(13)
_cell_angle_beta 116.073(2)
_cell_angle_gamma 90.649(2)
_cell_volume 1336.57
_cell_formula_units_Z 8
_symmetry_space_group_name_H-M 'I -1'
_symmetry_Int_Tables_number 2
_refine_ls_R_factor_all 0.0257
loop_
_symmetry_equiv_pos_site_id
_symmetry_equiv_pos_as_xyz
1 '-x, -y, -z'
2 'x, y, z'
3 '-x+1/2, -y+1/2, -z+1/2'
4 'x+1/2, y+1/2, z+1/2'
loop_
_atom_type_symbol
_atom_type_oxidation_number
Ca2+ 2
Na1+ 1
Ca2+ 2
Na1+ 1
Ca2+ 2
Na1+ 1
Ca2+ 2
Na1+ 1
Si4+ 4
Al3+ 3
Si4+ 4
Al3+ 3
Si4+ 4
Al3+ 3
Si4+ 4
Al3+ 3
Si4+ 4
Al3+ 3
Si4+ 4
O2- -2
loop_
_atom_site_label
_atom_site_type_symbol
_atom_site_symmetry_multiplicity
_atom_site_Wyckoff_symbol
_atom_site_fract_x
_atom_site_fract_y
_atom_site_fract_z
_atom_site_B_iso_or_equiv
_atom_site_occupancy
_atom_site_attached_hydrogens
Ca1 Ca2+ 4 i 0.77477(10) -0.46644(7) -0.45348(7) 0.0191(3) 0.3318 0
Na1 Na1+ 4 i 0.77477(10) -0.46644(7) -0.45348(7) 0.0191(3) 0.1481 0
Ca2 Ca2+ 4 i 0.76753(10) -0.51701(9) -0.41335(7) 0.0298(3) 0.3596 0
Na2 Na1+ 4 i 0.76753(10) -0.51701(9) -0.41335(7) 0.0298(3) 0.1605 0
Ca3 Ca2+ 4 i 0.26798(6) 0.02868(4) -0.45148(4) 0.01846(18) 0.6327 0
Na3 Na1+ 4 i 0.26798(6) 0.02868(4) -0.45148(4) 0.01846(18) 0.1497 0
Ca4 Ca2+ 4 i 0.2644(2) 0.9895(2) -0.41783(15) 0.0228(7) 0.1759 0
Na4 Na1+ 4 i 0.2644(2) 0.9895(2) -0.41783(15) 0.0228(7) 0.0416 0
Si1 Si4+ 4 i -0.50765(5) 0.34029(3) -0.60460(3) 0.00915(13) 0.8724 0
Al1 Al3+ 4 i -0.50765(5) 0.34029(3) -0.60460(3) 0.00915(13) 0.1276 0
Al2 Al3+ 4 i -0.49992(5) 0.31559(3) -0.38157(3) 0.00956(14) 0.7509 0
Si2 Si4+ 4 i -0.49992(5) 0.31559(3) -0.38157(3) 0.00956(14) 0.2491 0
Al3 Al3+ 4 i 0.00341(5) 0.16492(3) -0.38918(3) 0.00903(14) 0.9313 0
Si3 Si4+ 4 i 0.00341(5) 0.16492(3) -0.38918(3) 0.00903(14) 0.0687 0
Si4 Si4+ 4 i 0.00513(5) 0.81732(3) -0.38710(3) 0.00952(13) 0.9556 0
Al4 Al3+ 4 i 0.00513(5) 0.81732(3) -0.38710(3) 0.00952(13) 0.0444 0
Al5 Al3+ 4 i -0.81205(5) 0.61135(3) -0.34219(3) 0.00993(14) 0.7044 0
Si5 Si4+ 4 i -0.81205(5) 0.61135(3) -0.34219(3) 0.00993(14) 0.2956 0
Si6 Si4+ 4 i -0.82222(5) 0.38140(3) -0.31872(3) 0.00967(13) 0.9208 0
Al6 Al3+ 4 i -0.82222(5) 0.38140(3) -0.31872(3) 0.00967(13) 0.0792 0
Si7 Si4+ 4 i -0.32071(5) 0.10632(3) -0.34123(3) 0.00993(13) 0.9278 0
Al7 Al3+ 4 i -0.32071(5) 0.10632(3) -0.34123(3) 0.00993(13) 0.0722 0
Al8 Al3+ 4 i -0.81671(5) 0.37583(3) -0.82342(3) 0.00923(14) 0.79 0
Si8 Si4+ 4 i -0.81671(5) 0.37583(3) -0.82342(3) 0.00923(14) 0.21 0
O1 O2- 4 i 0.50855(14) -0.37233(8) -0.50871(8) 0.0174(4) 1 0
O2 O2- 4 i -0.00511(15) 0.12718(9) -0.51186(8) 0.0193(4) 1 0
O3 O2- 4 i 0.42107(13) 0.00920(8) -0.14003(8) 0.0134(3) 1 0
O4 O2- 4 i 0.57531(12) -0.00854(8) -0.36219(8) 0.0132(3) 1 0
O5 O2- 4 i 0.31911(14) -0.39801(8) -0.40878(9) 0.0184(4) 1 0
O6 O2- 4 i 0.18965(15) 0.14583(9) -0.12762(10) 0.0262(5) 1 0
O7 O2- 4 i 0.19732(14) -0.10230(8) -0.59522(9) 0.0190(4) 1 0
O8 O2- 4 i 0.18047(14) 0.14544(9) -0.61454(10) 0.0236(4) 1 0
O9 O2- 4 i 0.51234(14) -0.21810(8) -0.36343(8) 0.0174(4) 1 0
O10 O2- 4 i 0.49018(13) -0.18174(8) -0.60872(8) 0.0168(4) 1 0
O11 O2- 4 i 0.48568(14) 0.20517(8) -0.14723(8) 0.0166(4) 1 0
O12 O2- 4 i -0.01010(14) 0.30873(8) -0.60159(8) 0.0186(4) 1 0
O13 O2- 4 i 0.80922(14) -0.10725(8) -0.18900(8) 0.0178(4) 1 0
O14 O2- 4 i 0.19676(15) -0.13175(9) -0.78192(9) 0.0221(4) 1 0
O15 O2- 4 i 0.20284(14) 0.10447(8) -0.30844(8) 0.0186(4) 1 0
O16 O2- 4 i -0.18420(15) 0.13759(9) -0.71315(9) 0.0255(4) 1 0
loop_
_atom_site_aniso_label
_atom_site_aniso_type_symbol
_atom_site_aniso_U_11
_atom_site_aniso_U_22
_atom_site_aniso_U_33
_atom_site_aniso_U_12
_atom_site_aniso_U_13
_atom_site_aniso_U_23
Ca1 Ca2+ 0.0094(3) 0.0245(4) 0.0182(4) 0.0046(3) 0.0024(3) -0.0078(3)
Na1 Na1+ 0.0094(3) 0.0245(4) 0.0182(4) 0.0046(3) 0.0024(3) -0.0078(3)
Ca2 Ca2+ 0.0127(3) 0.0519(6) 0.0236(4) -0.0090(3) 0.0097(3) -0.0191(4)
Na2 Na1+ 0.0127(3) 0.0519(6) 0.0236(4) -0.0090(3) 0.0097(3) -0.0191(4)
Ca3 Ca2+ 0.00947(19) 0.0243(3) 0.0169(3) 0.00387(17) 0.00248(17) -0.00756(20)
Na3 Na1+ 0.00947(19) 0.0243(3) 0.0169(3) 0.00387(17) 0.00248(17) -0.00756(20)
Ca4 Ca2+ 0.0109(7) 0.0466(13) 0.0117(8) -0.0043(7) 0.0066(6) -0.0044(8)
Na4 Na1+ 0.0109(7) 0.0466(13) 0.0117(8) -0.0043(7) 0.0066(6) -0.0044(8)
Si1 Si4+ 0.00876(17) 0.01172(19) 0.00720(17) -0.00192(13) 0.00390(13)
-0.00016(13)
Al1 Al3+ 0.00876(17) 0.01172(19) 0.00720(17) -0.00192(13) 0.00390(13)
-0.00016(13)
Al2 Al3+ 0.00968(18) 0.0121(2) 0.00691(19) 0.00251(14) 0.00371(15) -0.00026(15)
Si2 Si4+ 0.00968(18) 0.0121(2) 0.00691(19) 0.00251(14) 0.00371(15) -0.00026(15)
Al3 Al3+ 0.00853(18) 0.0108(2) 0.00783(19) -0.00164(14) 0.00385(14) 0.00000(15)
Si3 Si4+ 0.00853(18) 0.0108(2) 0.00783(19) -0.00164(14) 0.00385(14) 0.00000(15)
Si4 Si4+ 0.00921(17) 0.01265(19) 0.00657(17) 0.00312(13) 0.00338(13) 0.00020(13)
Al4 Al3+ 0.00921(17) 0.01265(19) 0.00657(17) 0.00312(13) 0.00338(13) 0.00020(13)
Al5 Al3+ 0.00807(18) 0.00947(19) 0.0113(2) 0.00002(13) 0.00349(15) 0.00023(15)
Si5 Si4+ 0.00807(18) 0.00947(19) 0.0113(2) 0.00002(13) 0.00349(15) 0.00023(15)
Si6 Si4+ 0.00826(17) 0.00915(18) 0.01067(19) 0.00085(12) 0.00331(14) 0.00084(14)
Al6 Al3+ 0.00826(17) 0.00915(18) 0.01067(19) 0.00085(12) 0.00331(14) 0.00084(14)
Si7 Si4+ 0.00806(17) 0.00875(18) 0.01187(19) -0.00022(13) 0.00358(14)
-0.00088(14)
Al7 Al3+ 0.00806(17) 0.00875(18) 0.01187(19) -0.00022(13) 0.00358(14)
-0.00088(14)
Al8 Al3+ 0.00791(18) 0.0100(2) 0.00984(19) 0.00047(14) 0.00391(15) 0.00110(15)
Si8 Si4+ 0.00791(18) 0.0100(2) 0.00984(19) 0.00047(14) 0.00391(15) 0.00110(15)
O1 O2- 0.0241(5) 0.0207(5) 0.0100(5) 0.0007(4) 0.0099(4) 0.0003(4)
O2 O2- 0.0280(6) 0.0233(6) 0.0107(5) 0.0046(4) 0.0120(4) 0.0028(4)
O3 O2- 0.0113(4) 0.0124(5) 0.0156(5) 0.0024(3) 0.0049(4) 0.0035(4)
O4 O2- 0.0107(4) 0.0113(5) 0.0154(5) -0.0015(3) 0.0038(4) 0.0007(4)
O5 O2- 0.0161(5) 0.0177(5) 0.0243(6) -0.0044(4) 0.0123(4) -0.0029(4)
O6 O2- 0.0191(5) 0.0239(6) 0.0414(7) 0.0013(4) 0.0196(5) -0.0051(5)
O7 O2- 0.0179(5) 0.0173(5) 0.0274(6) -0.0021(4) 0.0155(5) -0.0023(4)
O8 O2- 0.0182(5) 0.0249(6) 0.0338(7) 0.0034(4) 0.0174(5) -0.0016(5)
O9 O2- 0.0177(5) 0.0155(5) 0.0195(5) -0.0032(4) 0.0091(4) -0.0018(4)
O10 O2- 0.0131(5) 0.0176(5) 0.0156(5) 0.0045(4) 0.0027(4) -0.0010(4)
O11 O2- 0.0156(5) 0.0161(5) 0.0172(5) -0.0043(4) 0.0070(4) -0.0017(4)
O12 O2- 0.0192(5) 0.0159(5) 0.0156(5) 0.0047(4) 0.0033(4) -0.0017(4)
O13 O2- 0.0153(5) 0.0196(5) 0.0122(5) 0.0021(4) 0.0004(4) 0.0007(4)
O14 O2- 0.0168(5) 0.0215(6) 0.0162(5) 0.0013(4) -0.0026(4) -0.0057(4)
O15 O2- 0.0171(5) 0.0171(5) 0.0124(5) 0.0018(4) -0.0016(4) 0.0001(4)
O16 O2- 0.0191(5) 0.0260(6) 0.0177(6) 0.0020(4) -0.0038(4) -0.0046(5)
#End of TTdata_263477-ICSD