
#(C) 2019 by FIZ Karlsruhe - Leibniz Institute for Information Infrastructure.  All rights reserved.
data_263779-ICSD
_database_code_ICSD 263779
_audit_creation_date 2019-02-01
_chemical_name_systematic 'Dibarium potassium sodium ditellurate(VI)'
_chemical_formula_structural 'Ba2 K Na Te2 O9'
_chemical_formula_sum 'Ba2 K1 Na1 O9 Te2'
_chemical_name_structure_type BaFeO2+x
_exptl_crystal_density_diffrn 5.31
_cell_measurement_temperature 293.
_publ_section_title

;
Crystal structures of the triple perovskites Ba2K2Te2O9 and Ba2KNaTe2O9, and
redetermination of the double perovskite Ba2CaTeO6
;
loop_
_citation_id
_citation_journal_full
_citation_year
_citation_journal_volume
_citation_page_first
_citation_page_last
_citation_journal_id_ASTM
primary 'Acta Crystallographica, Section E: Crystallographic Communications'
2018 74 1006 1009 ACSECI
loop_
_publ_author_name
'Weil, Matthias'
_cell_length_a 5.9625(3)
_cell_length_b 5.9625(3)
_cell_length_c 14.9396(8)
_cell_angle_alpha 90
_cell_angle_beta 90
_cell_angle_gamma 120
_cell_volume 459.96
_cell_formula_units_Z 2
_symmetry_space_group_name_H-M 'P 63/m m c'
_symmetry_Int_Tables_number 194
_refine_ls_R_factor_all 0.0177
loop_
_symmetry_equiv_pos_site_id
_symmetry_equiv_pos_as_xyz
1 'x, x-y, -z+1/2'
2 '-x+y, y, -z+1/2'
3 '-y, -x, -z+1/2'
4 '-x+y, -x, -z+1/2'
5 '-y, x-y, -z+1/2'
6 'x, y, -z+1/2'
7 '-x, -x+y, z+1/2'
8 'x-y, -y, z+1/2'
9 'y, x, z+1/2'
10 'x-y, x, z+1/2'
11 'y, -x+y, z+1/2'
12 '-x, -y, z+1/2'
13 '-x, -x+y, -z'
14 'x-y, -y, -z'
15 'y, x, -z'
16 'x-y, x, -z'
17 'y, -x+y, -z'
18 '-x, -y, -z'
19 'x, x-y, z'
20 '-x+y, y, z'
21 '-y, -x, z'
22 '-x+y, -x, z'
23 '-y, x-y, z'
24 'x, y, z'
loop_
_atom_type_symbol
_atom_type_oxidation_number
Ba2+ 2
K1+ 1
Ba2+ 2
Te6+ 6
Na1+ 1
O2- -2
loop_
_atom_site_label
_atom_site_type_symbol
_atom_site_symmetry_multiplicity
_atom_site_Wyckoff_symbol
_atom_site_fract_x
_atom_site_fract_y
_atom_site_fract_z
_atom_site_B_iso_or_equiv
_atom_site_occupancy
_atom_site_attached_hydrogens
Ba1 Ba2+ 4 f 0.3333 0.6667 0.91703(2) 0.01251(6) 0.5 0
K1 K1+ 4 f 0.3333 0.6667 0.91703(2) 0.01251(6) 0.5 0
Ba2 Ba2+ 2 b 0. 0. 0.25 0.00953(5) 1 0
Te1 Te6+ 4 f 0.3333 0.6667 0.15383(2) 0.00583(5) 1 0
Na1 Na1+ 2 a 0. 0. 0. 0.0110(3) 1 0
O1 O2- 6 h 0.47381(18) 0.9476(4) 0.25 0.0101(3) 1 0
O2 O2- 12 k 0.17638(16) 0.3528(3) 0.40559(12) 0.0195(3) 1 0
loop_
_atom_site_aniso_label
_atom_site_aniso_type_symbol
_atom_site_aniso_U_11
_atom_site_aniso_U_22
_atom_site_aniso_U_33
_atom_site_aniso_U_12
_atom_site_aniso_U_13
_atom_site_aniso_U_23
Ba1 Ba2+ 0.01060(8) 0.01060(8) 0.01631(11) 0.00530(4) 0. 0.
K1 K1+ 0.01060(8) 0.01060(8) 0.01631(11) 0.00530(4) 0. 0.
Ba2 Ba2+ 0.00874(7) 0.00874(7) 0.01112(9) 0.00437(3) 0. 0.
Te1 Te6+ 0.00573(5) 0.00573(5) 0.00603(7) 0.00287(3) 0. 0.
Na1 Na1+ 0.0118(5) 0.0118(5) 0.0094(7) 0.0059(2) 0. 0.
O1 O2- 0.0107(5) 0.0060(6) 0.0121(6) 0.0030(3) 0. 0.
O2 O2- 0.0235(6) 0.0120(6) 0.0192(6) 0.0060(3) 0.0045(3) 0.0089(5)
#End of TTdata_263779-ICSD