
#(C) 2019 by FIZ Karlsruhe - Leibniz Institute for Information Infrastructure.  All rights reserved.
data_26419-ICSD
_database_code_ICSD 26419
_audit_creation_date 1981-12-31
_audit_update_record 2015-02-01
_chemical_name_systematic 'Pentasodium trialuminium fluoride'
_chemical_formula_structural 'Na5 Al3 F14'
_chemical_formula_sum 'Al3 F14 Na5'
_chemical_name_structure_type Na5Al3F14
_chemical_name_mineral Chiolite
_exptl_crystal_density_diffrn 3.
_publ_section_title

;
Determination precise de la structure de la chiolite Na5 Al3 F14 et etude par
R.P.E. de Na5 Al3 F14: Cr3+
;
loop_
_citation_id
_citation_journal_full
_citation_year
_citation_journal_volume
_citation_page_first
_citation_page_last
_citation_journal_id_ASTM
primary 'Journal of Solid State Chemistry' 1981 36 297 304 JSSCBI
loop_
_publ_author_name
'Jacoboni, C.'
'Leble, A.'
'Rousseau, J.J.'
_cell_length_a 7.0138(8)
_cell_length_b 7.0138(8)
_cell_length_c 10.402(2)
_cell_angle_alpha 90.
_cell_angle_beta 90.
_cell_angle_gamma 90.
_cell_volume 511.71
_cell_formula_units_Z 2
_symmetry_space_group_name_H-M 'P 4/m n c'
_symmetry_Int_Tables_number 128
_refine_ls_R_factor_all 0.021
loop_
_symmetry_equiv_pos_site_id
_symmetry_equiv_pos_as_xyz
1 'y+1/2, x+1/2, -z+1/2'
2 '-y+1/2, -x+1/2, -z+1/2'
3 '-y, x, -z'
4 'y, -x, -z'
5 'x+1/2, -y+1/2, -z+1/2'
6 '-x+1/2, y+1/2, -z+1/2'
7 'x, y, -z'
8 '-x, -y, -z'
9 '-y+1/2, -x+1/2, z+1/2'
10 'y+1/2, x+1/2, z+1/2'
11 'y, -x, z'
12 '-y, x, z'
13 '-x+1/2, y+1/2, z+1/2'
14 'x+1/2, -y+1/2, z+1/2'
15 '-x, -y, z'
16 'x, y, z'
loop_
_atom_type_symbol
_atom_type_oxidation_number
Na1+ 1
Al3+ 3
F1- -1
loop_
_atom_site_label
_atom_site_type_symbol
_atom_site_symmetry_multiplicity
_atom_site_Wyckoff_symbol
_atom_site_fract_x
_atom_site_fract_y
_atom_site_fract_z
_atom_site_B_iso_or_equiv
_atom_site_occupancy
_atom_site_attached_hydrogens
Na1 Na1+ 2 b 0 0 0.5 . 1. 0
Na2 Na1+ 8 g 0.2768(1) 0.7768(1) 0.25 . 1. 0
Al1 Al3+ 2 a 0 0 0 . 1. 0
Al2 Al3+ 4 c 0 0.5 0 . 1. 0
F1 F1- 4 e 0 0 0.1711(1) . 1. 0
F2 F1- 8 h 0.0642(1) 0.2477(1) 0 . 1. 0
F3 F1- 16 i 0.1794(1) 0.5364(1) 0.1198(1) . 1. 0
loop_
_atom_site_aniso_label
_atom_site_aniso_type_symbol
_atom_site_aniso_beta_11
_atom_site_aniso_beta_22
_atom_site_aniso_beta_33
_atom_site_aniso_beta_12
_atom_site_aniso_beta_13
_atom_site_aniso_beta_23
Na1 Na1+ 0.00967(16) 0.00967(16) 0.00644(13) 0 0 0
Na2 Na1+ 0.00844(8) 0.00844(8) 0.00349(5) -.00323(9) 0.00167(5) -.00167(5)
Al1 Al3+ 0.00217(7) 0.00217(7) 0.00179(5) 0 0 0
Al2 Al3+ 0.00327(9) 0.00198(9) 0.00153(3) -.00016(6) 0 0
F1 F1- 0.01121(16) 0.01121(16) 0.00203(8) 0 0 0
F2 F1- 0.00509(14) 0.00256(13) 0.00677(9) -.00014(11) 0 0
F3 F1- 0.00830(12) 0.005970(11) 0.00313(5) -.00113(8) -.00236(6) 0.00005(5)
#End of TTdata_26419-ICSD