
#(C) 2019 by FIZ Karlsruhe - Leibniz Institute for Information Infrastructure.  All rights reserved.
data_264369-ICSD
_database_code_ICSD 264369
_audit_creation_date 2019-02-01
_chemical_name_systematic 'Sodium uranium(IV) pentafluoride'
_chemical_formula_structural 'Na U F5'
_chemical_formula_sum 'F5 Na1 U1'
_exptl_crystal_density_diffrn 6.48
_cell_measurement_temperature 300.
_publ_section_title

;
Synthetic strategies for the synthesis of ternary uranium(IV) and thorium(IV)
fluorides
;
loop_
_citation_id
_citation_journal_full
_citation_year
_citation_journal_volume
_citation_page_first
_citation_page_last
_citation_journal_id_ASTM
primary 'Inorganic Chemistry' 2018 57 5597 5606 INOCAJ
loop_
_publ_author_name
'Klepov, Vladislav V.'
'Felder, Justin B.'
'Zur Loye, Hans-Conrad'
_cell_length_a 8.6866(3)
_cell_length_b 8.0733(2)
_cell_length_c 10.4014(3)
_cell_angle_alpha 90
_cell_angle_beta 90
_cell_angle_gamma 90
_cell_volume 729.44
_cell_formula_units_Z 8
_symmetry_space_group_name_H-M 'P n m a'
_symmetry_Int_Tables_number 62
_refine_ls_R_factor_all 0.0136
loop_
_symmetry_equiv_pos_site_id
_symmetry_equiv_pos_as_xyz
1 'x+1/2, y, -z+1/2'
2 'x, -y+1/2, z'
3 '-x+1/2, y+1/2, z+1/2'
4 '-x, -y, -z'
5 '-x+1/2, -y, z+1/2'
6 '-x, y+1/2, -z'
7 'x+1/2, -y+1/2, -z+1/2'
8 'x, y, z'
loop_
_atom_type_symbol
_atom_type_oxidation_number
U4+ 4
Na1+ 1
F1- -1
loop_
_atom_site_label
_atom_site_type_symbol
_atom_site_symmetry_multiplicity
_atom_site_Wyckoff_symbol
_atom_site_fract_x
_atom_site_fract_y
_atom_site_fract_z
_atom_site_B_iso_or_equiv
_atom_site_occupancy
_atom_site_attached_hydrogens
U1 U4+ 8 d 0.49349(2) 0.99629(2) 0.69354(2) 0.00888(6) 1 0
Na1 Na1+ 4 c 0.1769(4) 0.75 0.5010(3) 0.0226(8) 1 0
Na2 Na1+ 4 c 0.1921(4) 0.25 0.5085(3) 0.0253(8) 1 0
F1 F1- 8 d 0.3504(3) 0.9836(4) 0.4932(2) 0.0151(6) 1 0
F2 F1- 4 c 0.3546(4) 0.75 0.6710(4) 0.0122(8) 1 0
F3 F1- 4 c 0.4937(5) 1.25 0.8290(3) 0.0152(8) 1 0
F4 F1- 4 c 0.6325(4) 0.75 0.6662(4) 0.0139(8) 1 0
F5 F1- 8 d 0.2410(3) 0.0632(3) 0.7424(3) 0.0170(6) 1 0
F6 F1- 4 c 0.4659(5) 0.25 0.5935(4) 0.0223(10) 1 0
F7 F1- 8 d 0.4891(3) 0.9124(3) 0.8880(2) 0.0189(6) 1 0
loop_
_atom_site_aniso_label
_atom_site_aniso_type_symbol
_atom_site_aniso_U_11
_atom_site_aniso_U_22
_atom_site_aniso_U_33
_atom_site_aniso_U_12
_atom_site_aniso_U_13
_atom_site_aniso_U_23
U1 U4+ 0.00849(8) 0.00899(8) 0.00917(8) -0.00029(8) 0.00003(6) 0.00058(6)
Na1 Na1+ 0.0140(18) 0.0314(18) 0.022(2) 0. -0.0044(11) 0.
Na2 Na1+ 0.018(2) 0.0322(18) 0.026(2) 0. 0.0013(12) 0.
F1 F1- 0.0119(12) 0.0195(14) 0.0139(12) -0.0024(14) -0.0002(9) 0.0029(11)
F2 F1- 0.0069(18) 0.0128(18) 0.017(2) 0. 0.0014(15) 0.
F3 F1- 0.018(2) 0.0169(17) 0.0110(17) 0. -0.0013(16) 0.
F4 F1- 0.0107(19) 0.0127(18) 0.018(2) 0. 0.0001(15) 0.
F5 F1- 0.0109(14) 0.0170(12) 0.0231(14) -0.0011(11) 0.0057(11) 0.0016(13)
F6 F1- 0.046(3) 0.0121(17) 0.0092(18) 0. -0.0038(19) 0.
F7 F1- 0.0323(17) 0.0159(12) 0.0086(13) -0.0004(12) -0.0009(13) 0.0020(10)
#End of TTdata_264369-ICSD