
#(C) 2019 by FIZ Karlsruhe - Leibniz Institute for Information Infrastructure.  All rights reserved.
data_264373-ICSD
_database_code_ICSD 264373
_audit_creation_date 2019-02-01
_chemical_name_systematic 'Potassium dithorium(IV) nonafluoride'
_chemical_formula_structural 'Na Th2 F9'
_chemical_formula_sum 'F9 Na1 Th2'
_exptl_crystal_density_diffrn 6.07
_cell_measurement_temperature 300.
_publ_section_title

;
Synthetic strategies for the synthesis of ternary uranium(IV) and thorium(IV)
fluorides
;
loop_
_citation_id
_citation_journal_full
_citation_year
_citation_journal_volume
_citation_page_first
_citation_page_last
_citation_journal_id_ASTM
primary 'Inorganic Chemistry' 2018 57 5597 5606 INOCAJ
loop_
_publ_author_name
'Klepov, Vladislav V.'
'Felder, Justin B.'
'Zur Loye, Hans-Conrad'
_cell_length_a 11.7673(3)
_cell_length_b 7.1226(2)
_cell_length_c 8.8122(2)
_cell_angle_alpha 90
_cell_angle_beta 102.9863(8)
_cell_angle_gamma 90
_cell_volume 719.69
_cell_formula_units_Z 4
_symmetry_space_group_name_H-M 'C 1 2/c 1'
_symmetry_Int_Tables_number 15
_refine_ls_R_factor_all 0.0089
loop_
_symmetry_equiv_pos_site_id
_symmetry_equiv_pos_as_xyz
1 'x, -y, z+1/2'
2 '-x, -y, -z'
3 '-x, y, -z+1/2'
4 'x, y, z'
5 'x+1/2, -y+1/2, z+1/2'
6 '-x+1/2, -y+1/2, -z'
7 '-x+1/2, y+1/2, -z+1/2'
8 'x+1/2, y+1/2, z'
loop_
_atom_type_symbol
_atom_type_oxidation_number
Th4+ 4
F1- -1
Na1+ 1
loop_
_atom_site_label
_atom_site_type_symbol
_atom_site_symmetry_multiplicity
_atom_site_Wyckoff_symbol
_atom_site_fract_x
_atom_site_fract_y
_atom_site_fract_z
_atom_site_B_iso_or_equiv
_atom_site_occupancy
_atom_site_attached_hydrogens
Th1 Th4+ 8 f 0.19967(2) 0.09259(2) 0.81131(2) 0.00895(4) 1 0
F1 F1- 8 f 0.35047(16) 0.2702(3) 0.7358(2) 0.0155(4) 1 0
F2 F1- 8 f 0.35855(17) -0.1117(3) 0.8222(2) 0.0168(4) 1 0
F3 F1- 8 f 0.35273(17) 0.1721(3) 1.0277(2) 0.0169(4) 1 0
F4 F1- 8 f 0.16957(18) 0.0440(3) 0.5433(2) 0.0202(4) 1 0
F5 F1- 4 e 0. 0.0817(4) 0.75 0.0209(6) 1 0
Na1 Na1+ 8 f 0.5206(3) 0.1031(5) 0.9005(4) 0.0357(8) 0.5 0
loop_
_atom_site_aniso_label
_atom_site_aniso_type_symbol
_atom_site_aniso_U_11
_atom_site_aniso_U_22
_atom_site_aniso_U_33
_atom_site_aniso_U_12
_atom_site_aniso_U_13
_atom_site_aniso_U_23
Th1 Th4+ 0.01015(7) 0.00851(6) 0.00811(6) -0.00002(4) 0.00188(4) -0.00038(4)
F1 F1- 0.0142(9) 0.0121(9) 0.0205(10) -0.0012(8) 0.0042(8) 0.0020(8)
F2 F1- 0.0138(10) 0.0145(10) 0.0210(10) 0.0014(8) 0.0015(8) -0.0026(8)
F3 F1- 0.0160(10) 0.0181(10) 0.0151(10) 0.0038(8) 0.0003(8) -0.0048(8)
F4 F1- 0.0289(11) 0.0199(10) 0.0122(10) -0.0008(9) 0.0056(8) -0.0031(8)
F5 F1- 0.0109(14) 0.0231(16) 0.0275(16) 0. 0.0021(12) 0.
Na1 Na1+ 0.0163(16) 0.042(2) 0.047(2) 0.0001(14) 0.0032(14) 0.0137(16)
#End of TTdata_264373-ICSD