
#(C) 2019 by FIZ Karlsruhe - Leibniz Institute for Information Infrastructure.  All rights reserved.
data_264709-ICSD
_database_code_ICSD 264709
_audit_creation_date 2019-02-01
_chemical_name_systematic 'Trisodium hydrogen bis(sulfate(VI))'
_chemical_formula_structural 'Na3 H (S O4)2'
_chemical_formula_sum 'H1 Na3 O8 S2'
_chemical_name_structure_type Na3H(SO4)2
_chemical_name_mineral Ivsite
_exptl_crystal_density_diffrn 2.41
_publ_section_title

;
Ivsite, Na3H(SO4)2, a new mineral from volcanic exhalations of fumaroles of
the Fissure Tolbachik Eruption of the 50th Anniversary of the Institute of
Volcanology and Seismology, Far East Branch, Russian Academy of Sciences
;
loop_
_citation_id
_citation_journal_full
_citation_year
_citation_journal_volume
_citation_page_first
_citation_page_last
_citation_journal_id_ASTM
primary 'Doklady Earth Sciences' 2016 468 632 635 DESOAP
loop_
_publ_author_name
'Filatov, S.K.'
'Karpov, G.A.'
'Shablinskii, A.P.'
'Krivovichev, S.V.'
'Vergasova, L.P.'
'Antonov, A.V.'
_cell_length_a 8.655(1)
_cell_length_b 9.652(1)
_cell_length_c 9.147(1)
_cell_angle_alpha 90.
_cell_angle_beta 108.76(1)
_cell_angle_gamma 90.
_cell_volume 723.53
_cell_formula_units_Z 4
_symmetry_space_group_name_H-M 'P 1 21/c 1'
_symmetry_Int_Tables_number 14
_refine_ls_R_factor_all 0.04
loop_
_symmetry_equiv_pos_site_id
_symmetry_equiv_pos_as_xyz
1 'x, -y+1/2, z+1/2'
2 '-x, -y, -z'
3 '-x, y+1/2, -z+1/2'
4 'x, y, z'
loop_
_atom_type_symbol
_atom_type_oxidation_number
S6+ 6
Na1+ 1
O2- -2
H1+ 1
loop_
_atom_site_label
_atom_site_type_symbol
_atom_site_symmetry_multiplicity
_atom_site_Wyckoff_symbol
_atom_site_fract_x
_atom_site_fract_y
_atom_site_fract_z
_atom_site_B_iso_or_equiv
_atom_site_occupancy
_atom_site_attached_hydrogens
S1 S6+ 4 e 0.36082(4) 0.8092(3) 0.14225(4) 0.01455(8) 1. 0
S2 S6+ 4 e 0.86569(4) 0.68134(3) 0.09489(4) 0.01400(8) 1. 0
Na1 Na1+ 4 e 0.24522(8) 0.99392(6) 0.77684(8) 0.02150(1) 1. 0
Na2 Na1+ 4 e 0.11316(8) 0.6561(7) 0.87212(8) 0.02524(15) 1. 0
Na3 Na1+ 2 d 0.5 0.5 0 0.02451(20) 1. 0
Na4 Na1+ 2 a 0 0 0 0.03438(26) 1. 0
O1 O2- 4 e 0.53174(14) 0.84911(11) 0.14544(16) 0.02676(27) 1. 0
O2 O2- 4 e 0.24499(15) 0.87595(12) 0.00850(14) 0.02552(25) 1. 0
O3 O2- 4 e 0.34588(14) 0.65815(10) 0.12527(13) 0.02070(22) 1. 0
O4 O2- 4 e 0.34064(16) 0.85639(12) 0.28517(14) 0.02702(25) 1. 0
O5 O2- 4 e 0.9069(14) 0.82781(10) 0.12484(13) 0.02053(22) 1. 0
O6 O2- 4 e 0.88339(16) 0.63573(12) 0.94058(15) 0.02878(27) 1. 0
O7 O2- 4 e 0.69094(14) 0.66251(12) 0.08491(17) 0.03008(29) 1. 0
O8 O2- 4 e 0.96649(15) 0.59630(12) 0.22220(14) 0.02801(27) 1. 0
H1 H1+ 4 e 0.613(3) 0.759(2) 0.121(2) 0.04956(740) 1. 0
#End of TTdata_264709-ICSD