
#(C) 2019 by FIZ Karlsruhe - Leibniz Institute for Information Infrastructure.  All rights reserved.
data_264752-ICSD
_database_code_ICSD 264752
_audit_creation_date 2019-02-01
_chemical_name_systematic
'Sodium barium niobium titanium oxide (0.97/0.03/0.97/0.03/3) - NNBTx'
_chemical_formula_structural '(Na0.97 Ba0.03) (Nb0.97 Ti0.03) O3'
_chemical_formula_sum 'Ba0.03 Na0.97 Nb0.97 O3 Ti0.03'
_chemical_name_structure_type Pb(Ti,Zr)O3
_exptl_crystal_density_diffrn 4.61
_cell_measurement_temperature 6.
_publ_section_title

;
Evidence for existence of functional monoclinic phase in sodium niobate based
solid solution by powder neutron diffraction
;
loop_
_citation_id
_citation_journal_full
_citation_year
_citation_journal_volume
_citation_page_first
_citation_page_last
_citation_journal_id_ASTM
primary 'Applied Physics Letters' 2018 112 182905-1 182905-5 APPLAB
loop_
_publ_author_name
'Mishra, S.K.'
'Jauhari, Mrinal'
'Mittal, R.'
'Krishna, P.S.R.'
'Reddy, V.R.'
'Chaplot, S.L.'
_cell_length_a 9.5054(4)
_cell_length_b 5.5012(2)
_cell_length_c 5.5512(2)
_cell_angle_alpha 90.
_cell_angle_beta 124.63(1)
_cell_angle_gamma 90.
_cell_volume 238.85
_cell_formula_units_Z 4
_symmetry_space_group_name_H-M 'C 1 c 1'
_symmetry_Int_Tables_number 9
_refine_ls_R_factor_all 0.0278
loop_
_symmetry_equiv_pos_site_id
_symmetry_equiv_pos_as_xyz
1 'x, -y, z+1/2'
2 'x, y, z'
3 'x+1/2, -y+1/2, z+1/2'
4 'x+1/2, y+1/2, z'
loop_
_atom_type_symbol
_atom_type_oxidation_number
Na1+ 1
Ba2+ 2
Nb5+ 5
Ti4+ 4
O2- -2
loop_
_atom_site_label
_atom_site_type_symbol
_atom_site_symmetry_multiplicity
_atom_site_Wyckoff_symbol
_atom_site_fract_x
_atom_site_fract_y
_atom_site_fract_z
_atom_site_B_iso_or_equiv
_atom_site_occupancy
_atom_site_attached_hydrogens
Na1 Na1+ 4 a 0 0.75 0 0.07(3) 0.97 0
Ba1 Ba2+ 4 a 0 0.75 0 0.07(3) 0.03 0
Nb1 Nb5+ 4 a 0.2640(1) 0.2506(3) 0.2699(2) 0.04(5) 0.97 0
Ti1 Ti4+ 4 a 0.2640(1) 0.2506(3) 0.2699(2) 0.04(5) 0.03 0
O1 O2- 4 a 0.0265(3) 0.3036(3) 0.0675(3) 0.18(6) 1. 0
O2 O2- 4 a 0.3102(2) 0.4664(4) 0.0600(2) 0.02(2) 1. 0
O3 O2- 4 a 0.2472(3) 0.9302(3) 0.5698(6) 0.06(3) 1. 0
#End of TTdata_264752-ICSD