
#(C) 2019 by FIZ Karlsruhe - Leibniz Institute for Information Infrastructure.  All rights reserved.
data_26543-ICSD
_database_code_ICSD 26543
_audit_creation_date 1981-12-31
_chemical_name_systematic 'Trisodium hydrogensilicate dihydrate'
_chemical_formula_structural 'Na3 H Si O4 (H2 O)2'
_chemical_formula_sum 'H5 Na3 O6 Si1'
_exptl_crystal_density_diffrn 2.21
_cell_measurement_temperature 297.
_publ_section_title
'The Structure of Trisodium Hydrogensilicate Dihydrate: High Temperature Form'
loop_
_citation_id
_citation_journal_full
_citation_year
_citation_journal_volume
_citation_page_first
_citation_page_last
_citation_journal_id_ASTM
primary

;
Acta Crystallographica, Section B: Structural Crystallography and Crystal
Chemistry
; 1981 37 789 792 ACBCAR
loop_
_publ_author_name
'Schmid, R.L.'
'Szolnai, L.'
'Felsche, J.'
'Huttner, G.'
_cell_length_a 10.380(5)
_cell_length_b 10.053(3)
_cell_length_c 11.414(5)
_cell_angle_alpha 90.
_cell_angle_beta 90.
_cell_angle_gamma 90.
_cell_volume 1191.05
_cell_formula_units_Z 8
_symmetry_space_group_name_H-M 'P b c a'
_symmetry_Int_Tables_number 61
_refine_ls_R_factor_all 0.032
loop_
_symmetry_equiv_pos_site_id
_symmetry_equiv_pos_as_xyz
1 'x+1/2, y, -z+1/2'
2 'x, -y+1/2, z+1/2'
3 '-x+1/2, y+1/2, z'
4 '-x, -y, -z'
5 '-x+1/2, -y, z+1/2'
6 '-x, y+1/2, -z+1/2'
7 'x+1/2, -y+1/2, -z'
8 'x, y, z'
loop_
_atom_type_symbol
_atom_type_oxidation_number
Si4+ 4
O2- -2
Na1+ 1
H1+ 1
loop_
_atom_site_label
_atom_site_type_symbol
_atom_site_symmetry_multiplicity
_atom_site_Wyckoff_symbol
_atom_site_fract_x
_atom_site_fract_y
_atom_site_fract_z
_atom_site_B_iso_or_equiv
_atom_site_occupancy
_atom_site_attached_hydrogens
Si1 Si4+ 8 c 0.2452(1) 0.0239(1) 0.3563(1) . 1. 0
O1 O2- 8 c 0.0978(3) -.0216(3) 0.3717(2) . 1. 0
O2 O2- 8 c 0.3219(3) 0.0302(3) 0.4793(2) . 1. 0
O3 O2- 8 c 0.2600(3) 0.1637(3) 0.2866(2) . 1. 0
O4 O2- 8 c 0.3211(3) -.0881(3) 0.2709(2) . 1. 0
O5 O2- 8 c -.0603(3) 0.2022(3) 0.3662(2) . 1. 0
O6 O2- 8 c 0.3896(3) -.1906(3) 0.5895(3) . 1. 0
Na1 Na1+ 8 c 0.1085(2) -.2473(1) 0.4379(1) . 1. 0
Na2 Na1+ 8 c 0.1193(2) 0.0565(2) 0.5809(1) . 1. 0
Na3 Na1+ 8 c 0.5393(2) -.0633(2) 0.3466(1) . 1. 0
H1 H1+ 8 c 0.3063 -.1737 0.2769 4. 1. 0
H2 H1+ 8 c -.1075 0.174 0.3031 4. 1. 0
H3 H1+ 8 c -.0183 0.2577 0.4358 4. 1. 0
H4 H1+ 8 c 0.3419 -.1752 0.6691 4. 1. 0
H5 H1+ 8 c 0.3557 -.1214 0.5481 4. 1. 0
loop_
_atom_site_aniso_label
_atom_site_aniso_type_symbol
_atom_site_aniso_B_11
_atom_site_aniso_B_22
_atom_site_aniso_B_33
_atom_site_aniso_B_12
_atom_site_aniso_B_13
_atom_site_aniso_B_23
Si1 Si4+ 0.72(5) 0.74(4) 0.78(5) 0.00(4) 0.05(4) 0.02(3)
O1 O2- 0.72(13) 1.56(12) 1.48(12) -.13(10) 0.09(9) 0.06(9)
O2 O2- 1.43(13) 1.32(12) 1.20(12) -.15(11) -.37(10) 0.18(9)
O3 O2- 1.31(12) 0.94(11) 1.25(12) 0.03(9) -.12(9) 0.09(9)
O4 O2- 1.72(13) 0.83(11) 1.78(12) -.16(10) 0.72(10) -.2(1)
O5 O2- 1.74(14) 2.04(13) 1.22(11) 0.00(12) -.29(10) -.70(9)
O6 O2- 2.11(15) 2.05(14) 2.02(13) 0.82(12) 0.79(11) 0.75(10)
Na1 Na1+ 1.77(9) 1.12(8) 1.73(7) 0.19(5) 0.55(5) 0.03(5)
Na2 Na1+ 1.20(8) 2.32(8) 1.30(7) -.14(6) 0.08(5) -.23(5)
Na3 Na1+ 2.18(9) 1.96(8) 2.27(7) -.32(6) -.62(6) 0.26(6)
#End of TTdata_26543-ICSD