
#(C) 2019 by FIZ Karlsruhe - Leibniz Institute for Information Infrastructure.  All rights reserved.
data_266649-ICSD
_database_code_ICSD 266649
_audit_creation_date 2019-08-01
_chemical_name_systematic 'Sodium copper magnesium arsenate(V)'
_chemical_formula_structural 'Na1.17 Cu0.68 Mg4.74 (As O4)3'
_chemical_formula_sum 'As3 Cu0.68 Mg4.74 Na1.17 O12'
_exptl_crystal_density_diffrn 4.27
_cell_measurement_temperature 293.
_publ_section_title 'Crystal chemistry of johillerite'
loop_
_citation_id
_citation_journal_full
_citation_year
_citation_journal_volume
_citation_page_first
_citation_page_last
_citation_journal_id_ASTM
primary 'Canadian Mineralogist' 2018 56 189 201 CAMIA6
loop_
_publ_author_name
'Koshlyakova, Natalia N.'
'Zubkova, Natalia V.'
'Pekov, Igor V.'
'Giester, Gerald'
'Sidorov, Evgeny G.'
_cell_length_a 11.9073(4)
_cell_length_b 12.7384(4)
_cell_length_c 6.7197(2)
_cell_angle_alpha 90
_cell_angle_beta 113.2724(16)
_cell_angle_gamma 90
_cell_volume 936.31
_cell_formula_units_Z 4
_symmetry_space_group_name_H-M 'C 1 2/c 1'
_symmetry_Int_Tables_number 15
_refine_ls_R_factor_all 0.0362
loop_
_symmetry_equiv_pos_site_id
_symmetry_equiv_pos_as_xyz
1 'x, -y, z+1/2'
2 '-x, -y, -z'
3 '-x, y, -z+1/2'
4 'x, y, z'
5 'x+1/2, -y+1/2, z+1/2'
6 '-x+1/2, -y+1/2, -z'
7 '-x+1/2, y+1/2, -z+1/2'
8 'x+1/2, y+1/2, z'
loop_
_atom_type_symbol
_atom_type_oxidation_number
Na1+ 1
Cu1+ 1
Na1+ 1
Mg2+ 2
As5+ 5
O2- -2
loop_
_atom_site_label
_atom_site_type_symbol
_atom_site_symmetry_multiplicity
_atom_site_Wyckoff_symbol
_atom_site_fract_x
_atom_site_fract_y
_atom_site_fract_z
_atom_site_B_iso_or_equiv
_atom_site_occupancy
_atom_site_attached_hydrogens
Na1 Na1+ 4 e 0. -0.0066(3) 0.25 0.0260(10) 0.837(13) 0
Cu1 Cu1+ 4 e 0. 0.50405(6) 0.25 0.0090(2) 0.677(4) 0
Na2 Na1+ 4 b 0.5 0. 0. 0.019(2) 0.333(12) 0
Mg1 Mg2+ 4 e 0. 0.26355(9) 0.25 0.0112(3) 1.478(10) 0
Mg2 Mg2+ 8 f 0.28483(6) 0.65622(5) 0.37364(11) 0.00524(16) 1.629(7) 0
As1 As5+ 4 e 0. 0.71475(3) 0.25 0.00657(8) 1 0
As2 As5+ 8 f 0.23250(3) 0.88704(2) 0.12515(5) 0.00729(7) 1 0
O1 O2- 8 f 0.4618(2) 0.71314(19) 0.5248(4) 0.0112(4) 1 0
O2 O2- 8 f 0.1068(2) 0.62304(18) 0.2604(4) 0.0117(4) 1 0
O3 O2- 8 f 0.3395(2) 0.67008(19) 0.1193(4) 0.0118(4) 1 0
O4 O2- 8 f 0.1160(2) 0.39350(19) 0.3128(4) 0.0134(4) 1 0
O5 O2- 8 f 0.2170(2) 0.81315(19) 0.3209(4) 0.0114(4) 1 0
O6 O2- 8 f 0.3332(3) 0.50375(19) 0.3897(5) 0.0154(4) 1 0
loop_
_atom_site_aniso_label
_atom_site_aniso_type_symbol
_atom_site_aniso_U_11
_atom_site_aniso_U_22
_atom_site_aniso_U_33
_atom_site_aniso_U_12
_atom_site_aniso_U_13
_atom_site_aniso_U_23
Na1 Na1+ 0.0144(14) 0.040(2) 0.0195(15) 0. 0.0019(10) 0.
Cu1 Cu1+ 0.0082(3) 0.0044(3) 0.0150(4) 0. 0.0051(3) 0.
Na2 Na1+ 0.025(4) 0.005(2) 0.016(3) -0.003(2) -0.006(2) 0.0008(19)
Mg1 Mg2+ 0.0085(5) 0.0118(5) 0.0171(6) 0. 0.0091(4) 0.
Mg2 Mg2+ 0.0045(3) 0.0041(3) 0.0076(3) -0.00038(17) 0.0029(2) -0.00032(18)
As1 As5+ 0.00696(16) 0.00567(15) 0.00586(15) 0. 0.00125(12) 0.
As2 As5+ 0.00870(12) 0.00576(11) 0.00676(11) -0.00031(9) 0.00237(9) -0.00002(8)
O1 O2- 0.0097(9) 0.0131(9) 0.0086(8) -0.0006(7) 0.0014(7) -0.0038(7)
O2 O2- 0.0087(8) 0.0078(8) 0.0174(10) 0.0013(7) 0.0039(7) -0.0029(7)
O3 O2- 0.0156(10) 0.0109(9) 0.0071(8) -0.0017(7) 0.0027(7) -0.0014(7)
O4 O2- 0.0091(9) 0.0098(9) 0.0216(11) 0.0012(7) 0.0062(8) 0.0009(8)
O5 O2- 0.0123(9) 0.0126(9) 0.0092(8) -0.0024(7) 0.0042(7) 0.0013(7)
O6 O2- 0.0186(11) 0.0076(9) 0.0193(11) -0.0023(8) 0.0067(9) 0.0015(8)
#End of TTdata_266649-ICSD