
#(C) 2019 by FIZ Karlsruhe - Leibniz Institute for Information Infrastructure.  All rights reserved.
data_266648-ICSD
_database_code_ICSD 266648
_audit_creation_date 2019-08-01
_chemical_name_systematic 'Sodium copper magnesium arsenate(V)'
_chemical_formula_structural 'Na0.88 Cu0.85 Mg3.58 (As O4)3'
_chemical_formula_sum 'As3 Cu0.85 Mg3.58 Na0.88 O12'
_chemical_name_mineral Johillerite
_exptl_crystal_density_diffrn 4.12
_cell_measurement_temperature 293.
_publ_section_title 'Crystal chemistry of johillerite'
loop_
_citation_id
_citation_journal_full
_citation_year
_citation_journal_volume
_citation_page_first
_citation_page_last
_citation_journal_id_ASTM
primary 'Canadian Mineralogist' 2018 56 189 201 CAMIA6
loop_
_publ_author_name
'Koshlyakova, Natalia N.'
'Zubkova, Natalia V.'
'Pekov, Igor V.'
'Giester, Gerald'
'Sidorov, Evgeny G.'
_cell_length_a 11.8615(4)
_cell_length_b 12.7511(4)
_cell_length_c 6.69583(19)
_cell_angle_alpha 90
_cell_angle_beta 113.0253(14)
_cell_angle_gamma 90
_cell_volume 932.03
_cell_formula_units_Z 4
_symmetry_space_group_name_H-M 'C 1 2/c 1'
_symmetry_Int_Tables_number 15
_refine_ls_R_factor_all 0.0286
loop_
_symmetry_equiv_pos_site_id
_symmetry_equiv_pos_as_xyz
1 'x, -y, z+1/2'
2 '-x, -y, -z'
3 '-x, y, -z+1/2'
4 'x, y, z'
5 'x+1/2, -y+1/2, z+1/2'
6 '-x+1/2, -y+1/2, -z'
7 '-x+1/2, y+1/2, -z+1/2'
8 'x+1/2, y+1/2, z'
loop_
_atom_type_symbol
_atom_type_oxidation_number
Na1+ 1
Cu2+ 2
Na1+ 1
Mg2+ 2
As5+ 5
O2- -2
loop_
_atom_site_label
_atom_site_type_symbol
_atom_site_symmetry_multiplicity
_atom_site_Wyckoff_symbol
_atom_site_fract_x
_atom_site_fract_y
_atom_site_fract_z
_atom_site_B_iso_or_equiv
_atom_site_occupancy
_atom_site_attached_hydrogens
Na1 Na1+ 4 e 0. -0.0068(2) 0.25 0.0245(7) 0.753(8) 0
Cu1 Cu2+ 4 e 0. 0.50250(3) 0.25 0.00709(10) 0.848(2) 0
Na2 Na1+ 4 b 0.5 0. 0. 0.015(3) 0.131(7) 0
Mg1 Mg2+ 4 e 0. 0.26008(8) 0.25 0.0078(2) 1.104(6) 0
Mg2 Mg2+ 8 f 0.28665(5) 0.65532(4) 0.37646(9) 0.00522(14) 1.239(4) 0
As1 As5+ 4 e 0. 0.71312(2) 0.25 0.00540(5) 1 0
As2 As5+ 8 f 0.23130(2) 0.88634(2) 0.12459(3) 0.00528(4) 1 0
O1 O2- 8 f 0.46347(13) 0.71561(12) 0.5236(2) 0.0085(2) 1 0
O2 O2- 8 f 0.10697(13) 0.62071(12) 0.2629(3) 0.0097(2) 1 0
O3 O2- 8 f 0.33966(14) 0.67058(12) 0.1197(2) 0.0087(2) 1 0
O4 O2- 8 f 0.11613(13) 0.39170(12) 0.3145(3) 0.0103(2) 1 0
O5 O2- 8 f 0.21563(14) 0.81251(12) 0.3207(2) 0.0087(2) 1 0
O6 O2- 8 f 0.33313(16) 0.50362(12) 0.3890(3) 0.0120(3) 1 0
loop_
_atom_site_aniso_label
_atom_site_aniso_type_symbol
_atom_site_aniso_U_11
_atom_site_aniso_U_22
_atom_site_aniso_U_33
_atom_site_aniso_U_12
_atom_site_aniso_U_13
_atom_site_aniso_U_23
Na1 Na1+ 0.0142(10) 0.0340(14) 0.0216(11) 0. 0.0031(8) 0.
Cu1 Cu2+ 0.00521(17) 0.00319(16) 0.01273(18) 0. 0.00335(13) 0.
Na2 Na1+ 0.010(5) 0.009(5) 0.013(5) -0.002(3) -0.009(3) 0.002(3)
Mg1 Mg2+ 0.0070(4) 0.0096(4) 0.0081(4) 0. 0.0044(3) 0.
Mg2 Mg2+ 0.0052(2) 0.0058(2) 0.0054(2) -0.00055(16) 0.00281(17) -0.00072(16)
As1 As5+ 0.00594(10) 0.00522(10) 0.00464(9) 0. 0.00163(8) 0.
As2 As5+ 0.00592(7) 0.00496(7) 0.00494(7) -0.00034(6) 0.00208(5) -0.00019(5)
O1 O2- 0.0082(5) 0.0109(6) 0.0062(5) -0.0013(4) 0.0024(4) -0.0023(4)
O2 O2- 0.0075(5) 0.0065(5) 0.0153(6) 0.0003(4) 0.0046(5) -0.0010(5)
O3 O2- 0.0103(6) 0.0102(6) 0.0051(5) -0.0032(4) 0.0025(4) -0.0016(4)
O4 O2- 0.0061(5) 0.0072(5) 0.0177(6) 0.0007(4) 0.0048(5) 0.0009(5)
O5 O2- 0.0105(6) 0.0093(6) 0.0068(5) -0.0008(4) 0.0039(4) 0.0013(4)
O6 O2- 0.0132(7) 0.0057(5) 0.0174(7) -0.0019(4) 0.0064(5) 0.0012(5)
#End of TTdata_266648-ICSD