
#(C) 2019 by FIZ Karlsruhe - Leibniz Institute for Information Infrastructure.  All rights reserved.
data_266782-ICSD
_database_code_ICSD 266782
_audit_creation_date 2019-08-01
_chemical_name_systematic 'Disodium uranyl(V) borate'
_chemical_formula_structural 'Na2 (U O2) (B O3)'
_chemical_formula_sum 'B1 Na2 O5 U1'
_exptl_crystal_density_diffrn 5.4
_cell_measurement_temperature 301.
_publ_section_title

;
Na2(UO2)(BO3). An all-uranium(V) borate synthesized under mild hydrothermal
conditions
;
loop_
_citation_id
_citation_journal_full
_citation_year
_citation_journal_volume
_citation_page_first
_citation_page_last
_citation_journal_id_ASTM
primary 'Inorganic Chemistry' 2018 57 4244 4247 INOCAJ
loop_
_publ_author_name
'Pace, Kristen A.'
'Kocevski, Vancho'
'Karakalos, Stavros G.'
'Morrison, Gregory'
'Besmann, Theodore'
'Zur Loye, Hans-Conrad'
_cell_length_a 10.0472(3)
_cell_length_b 6.5942(2)
_cell_length_c 6.9569(2)
_cell_angle_alpha 90
_cell_angle_beta 90
_cell_angle_gamma 90
_cell_volume 460.91
_cell_formula_units_Z 4
_symmetry_space_group_name_H-M 'C m c m'
_symmetry_Int_Tables_number 63
_refine_ls_R_factor_all 0.0152
loop_
_symmetry_equiv_pos_site_id
_symmetry_equiv_pos_as_xyz
1 '-x, y, -z+1/2'
2 '-x, -y, z+1/2'
3 '-x, y, z'
4 '-x, -y, -z'
5 'x, -y, z+1/2'
6 'x, y, -z+1/2'
7 'x, -y, -z'
8 'x, y, z'
9 '-x+1/2, y+1/2, -z+1/2'
10 '-x+1/2, -y+1/2, z+1/2'
11 '-x+1/2, y+1/2, z'
12 '-x+1/2, -y+1/2, -z'
13 'x+1/2, -y+1/2, z+1/2'
14 'x+1/2, y+1/2, -z+1/2'
15 'x+1/2, -y+1/2, -z'
16 'x+1/2, y+1/2, z'
loop_
_atom_type_symbol
_atom_type_oxidation_number
U5+ 5
Na1+ 1
O2- -2
B3+ 3
loop_
_atom_site_label
_atom_site_type_symbol
_atom_site_symmetry_multiplicity
_atom_site_Wyckoff_symbol
_atom_site_fract_x
_atom_site_fract_y
_atom_site_fract_z
_atom_site_B_iso_or_equiv
_atom_site_occupancy
_atom_site_attached_hydrogens
U1 U5+ 4 c 0.5 0.85696(2) 0.75 0.00577(8) 1 0
Na1 Na1+ 8 e 0.1896(2) 1. 1. 0.0231(4) 1 0
O1 O2- 4 c 0.5 0.4949(6) 0.25 0.0117(6) 1 0
O2 O2- 8 g 0.3103(3) 0.8412(4) 0.75 0.0142(5) 1 0
O3 O2- 8 f 0.5 0.8108(4) 0.4170(4) 0.0153(5) 1 0
B1 B3+ 4 c 0.5 0.6991(8) 0.25 0.0078(7) 1 0
loop_
_atom_site_aniso_label
_atom_site_aniso_type_symbol
_atom_site_aniso_U_11
_atom_site_aniso_U_22
_atom_site_aniso_U_33
_atom_site_aniso_U_12
_atom_site_aniso_U_13
_atom_site_aniso_U_23
U1 U5+ 0.00740(10) 0.00373(10) 0.00619(9) 0. 0. 0.
Na1 Na1+ 0.0178(8) 0.0315(10) 0.0198(8) 0. 0. -0.0093(8)
O1 O2- 0.0159(15) 0.0065(13) 0.0128(15) 0. 0. 0.
O2 O2- 0.0084(10) 0.0149(11) 0.0193(13) 0.0007(8) 0. 0.
O3 O2- 0.0325(15) 0.0052(9) 0.0083(10) 0. 0. -0.0011(8)
B1 B3+ 0.0131(19) 0.0038(17) 0.0064(17) 0. 0. 0.
#End of TTdata_266782-ICSD