
#(C) 2019 by FIZ Karlsruhe - Leibniz Institute for Information Infrastructure.  All rights reserved.
data_266781-ICSD
_database_code_ICSD 266781
_audit_creation_date 2019-08-01
_chemical_name_systematic 'Disodium uranyl(VI) germanate'
_chemical_formula_structural 'Na2 (U O2) Ge O4'
_chemical_formula_sum 'Ge1 Na2 O6 U1'
_exptl_crystal_density_diffrn 5.29
_cell_measurement_temperature 293.
_publ_section_title

;
Hydrothermal synthesis, study, and classification of microporous uranium
silicates and germanates
;
loop_
_citation_id
_citation_journal_full
_citation_year
_citation_journal_volume
_citation_page_first
_citation_page_last
_citation_journal_id_ASTM
primary 'Inorganic Chemistry' 2018 57 4745 4756 INOCAJ
loop_
_publ_author_name
'Li, Haijian'
'Kegler, Philip'
'Bosbach, Dirk'
'Alekseev, Evgeny V.'
_cell_length_a 5.3893(3)
_cell_length_b 5.3893(3)
_cell_length_c 9.7755(5)
_cell_angle_alpha 90.
_cell_angle_beta 90.
_cell_angle_gamma 90.
_cell_volume 283.92
_cell_formula_units_Z 2
_symmetry_space_group_name_H-M 'P 42/m'
_symmetry_Int_Tables_number 84
_refine_ls_R_factor_all 0.0269
loop_
_symmetry_equiv_pos_site_id
_symmetry_equiv_pos_as_xyz
1 '-y, x, -z+1/2'
2 'y, -x, -z+1/2'
3 'x, y, -z'
4 '-x, -y, -z'
5 'y, -x, z+1/2'
6 '-y, x, z+1/2'
7 '-x, -y, z'
8 'x, y, z'
loop_
_atom_type_symbol
_atom_type_oxidation_number
U6+ 6
Ge4+ 4
Na1+ 1
O2- -2
loop_
_atom_site_label
_atom_site_type_symbol
_atom_site_symmetry_multiplicity
_atom_site_Wyckoff_symbol
_atom_site_fract_x
_atom_site_fract_y
_atom_site_fract_z
_atom_site_B_iso_or_equiv
_atom_site_occupancy
_atom_site_attached_hydrogens
U1 U6+ 2 d 0.5 0. 0. 0.0111(3) 1 0
Ge1 Ge4+ 2 e 0. 0. 0.25 0.0107(4) 1 0
Na1 Na1+ 2 c 0. 0.5 0. 0.058(4) 1 0
Na2 Na1+ 2 f 0.5 0.5 0.25 0.027(2) 1 0
O1 O2- 8 k 0.2314(12) 0.1566(12) 0.1539(7) 0.0140(13) 1 0
O2 O2- 4 j 0.6591(19) 0.298(2) 0. 0.019(2) 1 0
loop_
_atom_site_aniso_label
_atom_site_aniso_type_symbol
_atom_site_aniso_U_11
_atom_site_aniso_U_22
_atom_site_aniso_U_33
_atom_site_aniso_U_12
_atom_site_aniso_U_13
_atom_site_aniso_U_23
U1 U6+ 0.0123(4) 0.0123(4) 0.0085(4) -0.0013(3) 0. 0.
Ge1 Ge4+ 0.0135(6) 0.0135(6) 0.0051(9) 0. 0. 0.
Na1 Na1+ 0.021(5) 0.034(6) 0.120(13) -0.020(4) 0. 0.
Na2 Na1+ 0.022(3) 0.022(3) 0.037(5) 0. 0. 0.
O1 O2- 0.017(3) 0.014(3) 0.012(3) -0.001(3) 0.004(3) -0.003(3)
O2 O2- 0.013(5) 0.021(5) 0.024(5) 0.000(4) 0. 0.
#End of TTdata_266781-ICSD