
#(C) 2019 by FIZ Karlsruhe - Leibniz Institute for Information Infrastructure.  All rights reserved.
data_267826-ICSD
_database_code_ICSD 267826
_audit_creation_date 2019-08-01
_chemical_name_systematic 'Trisodium vanadium(III) bis(phosphate)'
_chemical_formula_structural 'Na3 V (P O4)2'
_chemical_formula_sum 'Na3 O8 P2 V1'
_chemical_name_structure_type Na2BaCu(VO4)2
_exptl_crystal_density_diffrn 3.24
_cell_measurement_temperature 293.
_publ_section_title
'A high voltage cathode material for sodium batteries. Na3V(PO4)2'
loop_
_citation_id
_citation_journal_full
_citation_year
_citation_journal_volume
_citation_page_first
_citation_page_last
_citation_journal_id_ASTM
primary 'Inorganic Chemistry' 2018 57 8760 8768 INOCAJ
loop_
_publ_author_name
'Kovrugin, Vadim M.'
'David, Renald'
'Chotard, Jean-Noel'
'Recham, Nadir'
'Masquelier, Christian'
_cell_length_a 9.1043(13)
_cell_length_b 5.0371(8)
_cell_length_c 13.851(2)
_cell_angle_alpha 90
_cell_angle_beta 91.258(7)
_cell_angle_gamma 90
_cell_volume 635.04
_cell_formula_units_Z 4
_symmetry_space_group_name_H-M 'C 1 2/c 1'
_symmetry_Int_Tables_number 15
_refine_ls_R_factor_all 0.0436
loop_
_symmetry_equiv_pos_site_id
_symmetry_equiv_pos_as_xyz
1 'x, -y, z+1/2'
2 '-x, -y, -z'
3 '-x, y, -z+1/2'
4 'x, y, z'
5 'x+1/2, -y+1/2, z+1/2'
6 '-x+1/2, -y+1/2, -z'
7 '-x+1/2, y+1/2, -z+1/2'
8 'x+1/2, y+1/2, z'
loop_
_atom_type_symbol
_atom_type_oxidation_number
V3+ 3
P5+ 5
Na1+ 1
O2- -2
loop_
_atom_site_label
_atom_site_type_symbol
_atom_site_symmetry_multiplicity
_atom_site_Wyckoff_symbol
_atom_site_fract_x
_atom_site_fract_y
_atom_site_fract_z
_atom_site_B_iso_or_equiv
_atom_site_occupancy
_atom_site_attached_hydrogens
V1 V3+ 4 a 0. 0. 0. 0.0048(3) 1 0
P1 P5+ 8 f 0.16948(10) 0.52185(18) 0.38703(7) 0.0049(3) 1 0
Na1 Na1+ 4 e 0. 0.0482(5) 0.25 0.0210(6) 1 0
Na2 Na1+ 8 f 0.16833(17) 0.5415(3) 0.13306(12) 0.0147(4) 1 0
O1 O2- 8 f 0.1646(3) 0.3908(5) 0.28961(19) 0.0146(7) 1 0
O2 O2- 8 f 0.1100(3) 0.3293(5) 0.4628(2) 0.0102(6) 1 0
O3 O2- 8 f 0.0792(3) 0.7849(5) 0.38686(18) 0.0085(6) 1 0
O4 O2- 8 f 0.3310(3) 0.5959(5) 0.4137(2) 0.0110(6) 1 0
loop_
_atom_site_aniso_label
_atom_site_aniso_type_symbol
_atom_site_aniso_U_11
_atom_site_aniso_U_22
_atom_site_aniso_U_33
_atom_site_aniso_U_12
_atom_site_aniso_U_13
_atom_site_aniso_U_23
V1 V3+ 0.0055(5) 0.0044(5) 0.0046(5) -0.0003(4) -0.0002(3) -0.0001(4)
P1 P5+ 0.0057(5) 0.0043(5) 0.0046(5) -0.0002(4) 0.0000(4) 0.0003(4)
Na1 Na1+ 0.0337(15) 0.0137(12) 0.0151(13) 0. -0.0096(11) 0.
Na2 Na1+ 0.0191(10) 0.0095(8) 0.0152(9) -0.0002(7) -0.0017(7) 0.0001(6)
O1 O2- 0.0231(17) 0.0119(14) 0.0090(16) 0.0020(12) 0.0019(13) -0.0064(11)
O2 O2- 0.0092(14) 0.0090(13) 0.0124(15) -0.0008(11) 0.0004(11) 0.0018(11)
O3 O2- 0.0105(14) 0.0074(13) 0.0075(14) 0.0041(11) 0.0020(11) 0.0009(11)
O4 O2- 0.0069(14) 0.0120(13) 0.0142(14) -0.0013(11) -0.0009(11) 0.0042(12)
#End of TTdata_267826-ICSD