
#(C) 2019 by FIZ Karlsruhe - Leibniz Institute for Information Infrastructure.  All rights reserved.
data_26831-ICSD
_database_code_ICSD 26831
_audit_creation_date 1986-09-26
_audit_update_record 2010-02-01
_chemical_name_systematic 'Sodium hydroxide - alpha'
_chemical_formula_structural 'Na (O H)'
_chemical_formula_sum 'H1 Na1 O1'
_chemical_name_structure_type NaOH
_exptl_crystal_density_diffrn 2.02
_cell_measurement_temperature 297.
_publ_section_title

;
Neubestimmung der Kristallstrukturen des dimorphen Natriumhydroxids, Na O H,
bei verschiedenen Temperaturen mit Roentgenstrahl- und Neutronenbeugung
;
loop_
_citation_id
_citation_journal_full
_citation_year
_citation_journal_volume
_citation_page_first
_citation_page_last
_citation_journal_id_ASTM
primary 'Zeitschrift fuer Kristallographie' 1967 125 332 359 ZEKRDZ
loop_
_publ_author_name
'Stehr, H.'
_cell_length_a 3.3994(10)
_cell_length_b 3.3994(10)
_cell_length_c 11.377(5)
_cell_angle_alpha 90.
_cell_angle_beta 90.
_cell_angle_gamma 90.
_cell_volume 131.47
_cell_formula_units_Z 4
_symmetry_space_group_name_H-M 'B m m b'
_symmetry_Int_Tables_number 63
_refine_ls_R_factor_all 0.05
loop_
_symmetry_equiv_pos_site_id
_symmetry_equiv_pos_as_xyz
1 '-x, -y+1/2, z'
2 '-x, y+1/2, -z'
3 '-x, y, z'
4 '-x, -y, -z'
5 'x, y+1/2, -z'
6 'x, -y+1/2, z'
7 'x, -y, -z'
8 'x, y, z'
9 '-x+1/2, -y+1/2, z+1/2'
10 '-x+1/2, y+1/2, -z+1/2'
11 '-x+1/2, y, z+1/2'
12 '-x+1/2, -y, -z+1/2'
13 'x+1/2, y+1/2, -z+1/2'
14 'x+1/2, -y+1/2, z+1/2'
15 'x+1/2, -y, -z+1/2'
16 'x+1/2, y, z+1/2'
loop_
_atom_type_symbol
_atom_type_oxidation_number
Na1+ 1
O2- -2
H1+ 1
loop_
_atom_site_label
_atom_site_type_symbol
_atom_site_symmetry_multiplicity
_atom_site_Wyckoff_symbol
_atom_site_fract_x
_atom_site_fract_y
_atom_site_fract_z
_atom_site_B_iso_or_equiv
_atom_site_occupancy
_atom_site_attached_hydrogens
Na1 Na1+ 4 c 0 0.25 0.1639(6) . 1. 0
O1 O2- 4 c 0 0.25 0.3662(6) . 1. 0
H1 H1+ 4 c 0 0.25 0.4468(6) . 1. 0
loop_
_atom_site_aniso_label
_atom_site_aniso_type_symbol
_atom_site_aniso_beta_11
_atom_site_aniso_beta_22
_atom_site_aniso_beta_33
_atom_site_aniso_beta_12
_atom_site_aniso_beta_13
_atom_site_aniso_beta_23
Na1 Na1+ 0.034(20) 0.044(10) 0.0012(10) 0 0 0
O1 O2- 0.012(10) 0.019(10) 0.0027(10) 0 0 0
H1 H1+ 0.123(30) 0.113(10) 0.0024(10) 0 0 0
#End of TTdata_26831-ICSD