
#(C) 2019 by FIZ Karlsruhe - Leibniz Institute for Information Infrastructure.  All rights reserved.
data_26833-ICSD
_database_code_ICSD 26833
_audit_creation_date 1980-01-01
_audit_update_record 2006-04-01
_chemical_name_systematic 'Sodium hydroxide - beta'
_chemical_formula_structural 'Na (O H)'
_chemical_formula_sum 'H1 Na1 O1'
_chemical_name_structure_type KOH
_exptl_crystal_density_diffrn 1.98
_publ_section_title

;
Neubestimmung der Kristallstrukturen des dimorphen Natriumhydroxids, Na O H,
bei verschiedenen Temperaturen mit Roentgenstrahl- und Neutronenbeugung
;
loop_
_citation_id
_citation_journal_full
_citation_year
_citation_journal_volume
_citation_page_first
_citation_page_last
_citation_journal_id_ASTM
primary 'Zeitschrift fuer Kristallographie' 1967 125 332 359 ZEKRDZ
loop_
_publ_author_name
'Stehr, H.'
_cell_length_a 3.434(3)
_cell_length_b 3.428(3)
_cell_length_c 6.068(4)
_cell_angle_alpha 90.
_cell_angle_beta 109.83
_cell_angle_gamma 90.
_cell_volume 67.2
_cell_formula_units_Z 2
_symmetry_space_group_name_H-M 'P 1 21/m 1'
_symmetry_Int_Tables_number 11
_refine_ls_R_factor_all 0.08
loop_
_symmetry_equiv_pos_site_id
_symmetry_equiv_pos_as_xyz
1 'x, -y+1/2, z'
2 '-x, -y, -z'
3 '-x, y+1/2, -z'
4 'x, y, z'
loop_
_atom_type_symbol
_atom_type_oxidation_number
Na1+ 1
O2- -2
H1+ 1
loop_
_atom_site_label
_atom_site_type_symbol
_atom_site_symmetry_multiplicity
_atom_site_Wyckoff_symbol
_atom_site_fract_x
_atom_site_fract_y
_atom_site_fract_z
_atom_site_B_iso_or_equiv
_atom_site_occupancy
_atom_site_attached_hydrogens
Na1 Na1+ 2 e 0.320(2) 0.25 -.171(1) . 1. 0
O1 O2- 2 e 0.164(2) 0.25 0.227(1) . 1. 0
H1 H1+ 2 e 0.054(12) 0.25 0.386(6) . 1. 0
loop_
_atom_site_aniso_label
_atom_site_aniso_type_symbol
_atom_site_aniso_beta_11
_atom_site_aniso_beta_22
_atom_site_aniso_beta_33
_atom_site_aniso_beta_12
_atom_site_aniso_beta_13
_atom_site_aniso_beta_23
Na1 Na1+ 0.09(1) 0.08 0.032(10) 0 -.011 0
O1 O2- 0.09(1) 0.08 0.03(1) 0 -.012 0
H1 H1+ 0.17(3) 0.11 0.027(10) 0 -.014 0
#End of TTdata_26833-ICSD