
#(C) 2019 by FIZ Karlsruhe - Leibniz Institute for Information Infrastructure.  All rights reserved.
data_27070-ICSD
_database_code_ICSD 27070
_audit_creation_date 1986-10-06
_audit_update_record 2007-04-01
_chemical_name_systematic 'Trisodium hexafluorochromate(III)'
_chemical_formula_structural 'Na3 (Cr F6)'
_chemical_formula_sum 'Cr1 F6 Na3'
_chemical_name_structure_type Perovskite-Na3AlF6
_exptl_crystal_density_diffrn 3.15
_publ_section_title 'The crystal structure of Na3 Cr F6'
loop_
_citation_id
_citation_journal_full
_citation_year
_citation_journal_volume
_citation_page_first
_citation_page_last
_citation_journal_id_ASTM
primary 'Materials Research Bulletin' 1969 4 621 626 MRBUAC
loop_
_publ_author_name
'Brunton, G.'
_cell_length_a 5.4913(3)
_cell_length_b 5.7021(3)
_cell_length_c 9.6618(9)
_cell_angle_alpha 90.
_cell_angle_beta 125.021(5)
_cell_angle_gamma 90.
_cell_volume 247.75
_cell_formula_units_Z 2
_symmetry_space_group_name_H-M 'P 1 21/c 1'
_symmetry_Int_Tables_number 14
_refine_ls_R_factor_all 0.0609
loop_
_symmetry_equiv_pos_site_id
_symmetry_equiv_pos_as_xyz
1 'x, -y+1/2, z+1/2'
2 '-x, -y, -z'
3 '-x, y+1/2, -z+1/2'
4 'x, y, z'
loop_
_atom_type_symbol
_atom_type_oxidation_number
Cr3+ 3
Na1+ 1
F1- -1
loop_
_atom_site_label
_atom_site_type_symbol
_atom_site_symmetry_multiplicity
_atom_site_Wyckoff_symbol
_atom_site_fract_x
_atom_site_fract_y
_atom_site_fract_z
_atom_site_B_iso_or_equiv
_atom_site_occupancy
_atom_site_attached_hydrogens
Cr1 Cr3+ 2 a 0 0 0 . 1. 0
Na1 Na1+ 2 d 0.5 0 0.5 . 1. 0
Na2 Na1+ 4 e 0.7606(2) -.0554(3) 0.2458(2) . 1. 0
F1 F1- 4 e 0.3374(3) 0.0536(3) 0.2250(2) . 1. 0
F2 F1- 4 e 0.7661(3) 0.1761(3) 0.0503(2) . 1. 0
F3 F1- 4 e 0.0976(3) 0.2775(3) 0.9314(2) . 1. 0
loop_
_atom_site_aniso_label
_atom_site_aniso_type_symbol
_atom_site_aniso_beta_11
_atom_site_aniso_beta_22
_atom_site_aniso_beta_33
_atom_site_aniso_beta_12
_atom_site_aniso_beta_13
_atom_site_aniso_beta_23
Cr1 Cr3+ 0.0076(2) 0.00417(9) 0.00233(4) 0 0.00252(6) 0
Na1 Na1+ 0.0124(4) 0.0076(3) 0.0042(2) 0 0.0039(2) 0
Na2 Na1+ 0.0202(4) 0.0095(3) 0.0077(2) -.0019(3) 0.0080(2) 0.0001(2)
F1 F1- 0.0132(5) 0.0119(3) 0.0031(2) 0.0005(3) 0.0022(2) -.0007(2)
F2 F1- 0.0214(6) 0.0105(4) 0.0071(2) 0.0061(4) 0.0095(3) 0.0017(2)
F3 F1- 0.0162(6) 0.0080(3) 0.0075(2) -.0004(3) 0.0063(3) 0.0031(2)
#End of TTdata_27070-ICSD