
#(C) 2019 by FIZ Karlsruhe - Leibniz Institute for Information Infrastructure.  All rights reserved.
data_27204-ICSD
_database_code_ICSD 27204
_audit_creation_date 1982-12-31
_audit_update_record 1999-11-30
_chemical_name_systematic 'Sodium strontium phosphate nonahydrate'
_chemical_formula_structural 'Na Sr P O4 (H2 O)9'
_chemical_formula_sum 'H18 Na1 O13 P1 Sr1'
_exptl_crystal_density_diffrn 2.08
_publ_section_title 'The Structure of Sodium Strontium Phosphate Nonahydrate'
loop_
_citation_id
_citation_journal_full
_citation_year
_citation_journal_volume
_citation_page_first
_citation_page_last
_citation_journal_id_ASTM
primary

;
Acta Crystallographica, Section B: Structural Crystallography and Crystal
Chemistry
; 1982 38 1408 1413 ACBCAR
loop_
_publ_author_name
'Takagi, S.'
'Mathew, M.'
'Brown, W.E.'
_cell_length_a 10.544(2)
_cell_length_b 10.544(2)
_cell_length_c 10.544(2)
_cell_angle_alpha 90.
_cell_angle_beta 90.
_cell_angle_gamma 90.
_cell_volume 1172.24
_cell_formula_units_Z 4
_symmetry_space_group_name_H-M 'P 21 3'
_symmetry_Int_Tables_number 198
_refine_ls_R_factor_all 0.025
loop_
_symmetry_equiv_pos_site_id
_symmetry_equiv_pos_as_xyz
1 '-z+1/2, -x, y+1/2'
2 '-y+1/2, -z, x+1/2'
3 '-x+1/2, -y, z+1/2'
4 '-z, x+1/2, -y+1/2'
5 '-y, z+1/2, -x+1/2'
6 '-x, y+1/2, -z+1/2'
7 'z+1/2, -x+1/2, -y'
8 'y+1/2, -z+1/2, -x'
9 'x+1/2, -y+1/2, -z'
10 'z, x, y'
11 'y, z, x'
12 'x, y, z'
loop_
_atom_type_symbol
_atom_type_oxidation_number
Sr2+ 2
Na1+ 1
P5+ 5
O2- -2
H1+ 1
loop_
_atom_site_label
_atom_site_type_symbol
_atom_site_symmetry_multiplicity
_atom_site_Wyckoff_symbol
_atom_site_fract_x
_atom_site_fract_y
_atom_site_fract_z
_atom_site_B_iso_or_equiv
_atom_site_occupancy
_atom_site_attached_hydrogens
Sr1 Sr2+ 4 a 0.5532(1) 0.5532(1) 0.5532(1) . 1. 0
Na1 Na1+ 4 a 0.1767(3) 0.1767(3) 0.1767(3) . 1. 0
P1 P5+ 4 a 0.9243(2) 0.9243(2) 0.9243(2) . 1. 0
O1 O2- 4 a 0.8426(8) 0.8426(8) 0.8426(8) . 1. 0
O2 O2- 12 b 0.0590(11) 0.3628(9) 0.4465(9) . 0.5 0
O3 O2- 12 b 0.1187(17) 0.4703(19) 0.4499(20) 3.3 0.29 0
O4 O2- 12 b 0.1809(20) 0.3971(21) 0.4814(19) 1.4 0.21 0
O5 O2- 12 b 0.3674(5) 0.0456(6) 0.7088(5) . 1. 0
O6 O2- 12 b 0.1012(5) 0.0808(5) 0.6517(5) . 1. 0
O7 O2- 12 b 0.2081(5) 0.1485(5) 0.4004(5) . 1. 0
H1 H1+ 12 b 0.414(8) 0.057(9) 0.660(7) 2.5 1. 0
H2 H1+ 12 b 0.318(8) 0.069(9) 0.687(9) 2.5 1. 0
H3 H1+ 12 b 0.056(7) 0.053(8) 0.705(7) 2.5 1. 0
H4 H1+ 12 b 0.090(7) 0.163(8) 0.675(7) 2.5 1. 0
H5 H1+ 12 b 0.294(8) 0.129(7) 0.403(7) 2.5 1. 0
H6 H1+ 12 b 0.197(8) 0.216(7) 0.429(7) 2.5 1. 0
loop_
_atom_site_aniso_label
_atom_site_aniso_type_symbol
_atom_site_aniso_U_11
_atom_site_aniso_U_22
_atom_site_aniso_U_33
_atom_site_aniso_U_12
_atom_site_aniso_U_13
_atom_site_aniso_U_23
Sr1 Sr2+ 0.0160(3) 0.0160(3) 0.0160(3) -.0002(2) -.0002(2) -.0002(2)
Na1 Na1+ 0.0298(12) 0.0298(2) 0.0298(2) -.0006(15) -.0006(15) -.0006(15)
P1 P5+ 0.0149(7) 0.0149(7) 0.0149(7) -.0007(6) -.0007(6) -.0007(6)
O1 O2- 0.1226(65) 0.1226(65) 0.1226(65) -.0471(59) -.0471(59) -.0471(59)
O2 O2- 0.0487(69) 0.0348(60) 0.0211(50) 0.0091(57) -.0095(70) -.0031(52)
O5 O2- 0.0328(35) 0.0285(29) 0.0231(28) 0.0016(32) -.0018(24) -.0001(28)
O6 O2- 0.0450(35) 0.0271(32) 0.0226(29) -.0040(26) 0.0054(24) -.0046(25)
O7 O2- 0.0257(29) 0.0283(30) 0.0332(32) -.0003(25) 0.0037(25) -.0023(26)
#End of TTdata_27204-ICSD