
#(C) 2019 by FIZ Karlsruhe - Leibniz Institute for Information Infrastructure.  All rights reserved.
data_27213-ICSD
_database_code_ICSD 27213
_audit_creation_date 1982-12-31
_chemical_name_systematic 'Sodium trioxothiophosphate dodecahydrate'
_chemical_formula_structural 'Na3 P O3 S (H2 O)12'
_chemical_formula_sum 'H24 Na3 O15 P1 S1'
_exptl_crystal_density_diffrn 1.62
_publ_section_title
'Disorder in the Structure of Trisodium Phosphorothioate Dodecahydrate'
loop_
_citation_id
_citation_journal_full
_citation_year
_citation_journal_volume
_citation_page_first
_citation_page_last
_citation_journal_id_ASTM
primary

;
Acta Crystallographica, Section B: Structural Crystallography and Crystal
Chemistry
; 1982 38 1116 1120 ACBCAR
loop_
_publ_author_name
'Goldstein, B.M.'
_cell_length_a 9.061(2)
_cell_length_b 9.061(2)
_cell_length_c 34.34(2)
_cell_angle_alpha 90.
_cell_angle_beta 90.
_cell_angle_gamma 120.
_cell_volume 2441.65
_cell_formula_units_Z 6
_symmetry_space_group_name_H-M 'R -3 c H'
_symmetry_Int_Tables_number 167
_refine_ls_R_factor_all 0.051
loop_
_symmetry_equiv_pos_site_id
_symmetry_equiv_pos_as_xyz
1 'x-y, -y, -z+1/2'
2 '-x, -x+y, -z+1/2'
3 'y, x, -z+1/2'
4 'x-y, x, -z'
5 'y, -x+y, -z'
6 '-x, -y, -z'
7 '-x+y, y, z+1/2'
8 'x, x-y, z+1/2'
9 '-y, -x, z+1/2'
10 '-x+y, -x, z'
11 '-y, x-y, z'
12 'x, y, z'
13 'x-y+2/3, -y+1/3, -z+5/6'
14 '-x+2/3, -x+y+1/3, -z+5/6'
15 'y+2/3, x+1/3, -z+5/6'
16 'x-y+2/3, x+1/3, -z+1/3'
17 'y+2/3, -x+y+1/3, -z+1/3'
18 '-x+2/3, -y+1/3, -z+1/3'
19 '-x+y+2/3, y+1/3, z+5/6'
20 'x+2/3, x-y+1/3, z+5/6'
21 '-y+2/3, -x+1/3, z+5/6'
22 '-x+y+2/3, -x+1/3, z+1/3'
23 '-y+2/3, x-y+1/3, z+1/3'
24 'x+2/3, y+1/3, z+1/3'
25 'x-y+1/3, -y+2/3, -z+1/6'
26 '-x+1/3, -x+y+2/3, -z+1/6'
27 'y+1/3, x+2/3, -z+1/6'
28 'x-y+1/3, x+2/3, -z+2/3'
29 'y+1/3, -x+y+2/3, -z+2/3'
30 '-x+1/3, -y+2/3, -z+2/3'
31 '-x+y+1/3, y+2/3, z+1/6'
32 'x+1/3, x-y+2/3, z+1/6'
33 '-y+1/3, -x+2/3, z+1/6'
34 '-x+y+1/3, -x+2/3, z+2/3'
35 '-y+1/3, x-y+2/3, z+2/3'
36 'x+1/3, y+2/3, z+2/3'
loop_
_atom_type_symbol
_atom_type_oxidation_number
Na1+ 1
P5+ 5
S2- -2
O2- -2
H1+ 1
loop_
_atom_site_label
_atom_site_type_symbol
_atom_site_symmetry_multiplicity
_atom_site_Wyckoff_symbol
_atom_site_fract_x
_atom_site_fract_y
_atom_site_fract_z
_atom_site_B_iso_or_equiv
_atom_site_occupancy
_atom_site_attached_hydrogens
Na1 Na1+ 6 b 0 0 0 . 1. 0
Na2 Na1+ 12 c 0 0 0.09249(9) . 1. 0
P1 P5+ 12 c 0 0 0.2295(2) . 0.5 0
S1 S2- 12 c 0 0 0.2875(2) . 0.5 0
O1 O2- 36 f 0.174(1) 0.0434(10) 0.2139(2) . 0.5 0
O2 O2- 36 f 0.1970(6) 0.1978(5) 0.0466(1) . 1. 0
O3 O2- 36 f 0.2184(7) 0.0065(6) 0.1320(1) . 1. 0
H1 H1+ 36 f 0.283(6) 0.228(7) 0.049(1) 4.2 1. 0
H2 H1+ 36 f 0.188(6) 0.284(7) 0.047(1) 7.8 1. 0
H3 H1+ 36 f 0.298(6) 0.071(6) 0.129(1) 4.8 1. 0
H4 H1+ 36 f 0.200(7) 0.015(7) 0.156(1) 7.1 1. 0
loop_
_atom_site_aniso_label
_atom_site_aniso_type_symbol
_atom_site_aniso_beta_11
_atom_site_aniso_beta_22
_atom_site_aniso_beta_33
_atom_site_aniso_beta_12
_atom_site_aniso_beta_13
_atom_site_aniso_beta_23
Na1 Na1+ 0.0141(4) 0.0141(4) 0.00047(4) 0.0070(7) 0 0
Na2 Na1+ 0.0113(3) 0.0113(3) 0.00056(3) 0.0056(7) 0 0
P1 P5+ 0.0065(3) 0.0065(3) 0.00052(5) 0.0062(7) 0 0
S1 S2- 0.0255(10) 0.0255(10) 0.00050(7) 0.0127(10) 0 0
O1 O2- 0.0180(19) 0.0167(17) 0.00140(9) 0.0110(15) 0.0012(4) 0.0004(4)
O2 O2- 0.0127(7) 0.0122(8) 0.00076(3) 0.0053(6) 0.0001(2) -.0001(1)
O3 O2- 0.0155(9) 0.0179(10) 0.00087(4) 0.0092(8) -.0013(2) -.0010(2)
#End of TTdata_27213-ICSD