
#(C) 2019 by FIZ Karlsruhe - Leibniz Institute for Information Infrastructure.  All rights reserved.
data_27709-ICSD
_database_code_ICSD 27709
_audit_creation_date 1980-01-01
_audit_update_record 2006-04-01
_chemical_name_systematic 'Disodium tetrafluoroberyllate'
_chemical_formula_structural 'Na2 (Be F4)'
_chemical_formula_sum 'Be1 F4 Na2'
_chemical_name_structure_type Olivine-Mg2SiO4
_exptl_crystal_density_diffrn 2.48
_publ_section_title
'Der Einfluss der Umweganregung auf die Strukturverfeinerung von Na2 Be F4'
loop_
_citation_id
_citation_journal_full
_citation_year
_citation_journal_volume
_citation_page_first
_citation_page_last
_citation_journal_id_ASTM
primary 'Neues Jahrbuch fuer Mineralogie, Monatshefte' 1968 1968 404 414 NJMMAW
loop_
_publ_author_name
'Weber, F.'
_cell_length_a 4.896(1)
_cell_length_b 10.9250(15)
_cell_length_c 6.572(1)
_cell_angle_alpha 90.
_cell_angle_beta 90.
_cell_angle_gamma 90.
_cell_volume 351.53
_cell_formula_units_Z 4
_symmetry_space_group_name_H-M 'P b n m'
_symmetry_Int_Tables_number 62
_refine_ls_R_factor_all 0.06
loop_
_symmetry_equiv_pos_site_id
_symmetry_equiv_pos_as_xyz
1 '-x+1/2, y+1/2, z'
2 'x, y, -z+1/2'
3 'x+1/2, -y+1/2, z+1/2'
4 '-x, -y, -z'
5 'x+1/2, -y+1/2, -z'
6 '-x, -y, z+1/2'
7 '-x+1/2, y+1/2, -z+1/2'
8 'x, y, z'
loop_
_atom_type_symbol
_atom_type_oxidation_number
Na1+ 1
Be2+ 2
F1- -1
loop_
_atom_site_label
_atom_site_type_symbol
_atom_site_symmetry_multiplicity
_atom_site_Wyckoff_symbol
_atom_site_fract_x
_atom_site_fract_y
_atom_site_fract_z
_atom_site_B_iso_or_equiv
_atom_site_occupancy
_atom_site_attached_hydrogens
Na1 Na1+ 4 a 0 0 0 . 1. 0
Na2 Na1+ 4 c 0.0119(2) 0.2801(1) 0.75 . 1. 0
Be1 Be2+ 4 c 0.0729(5) 0.4042(2) 0.25 . 1. 0
F1 F1- 4 c 0.2595(2) 0.0933(1) 0.75 . 1. 0
F2 F1- 4 c 0.3039(2) 0.0365(1) 0.25 . 1. 0
F3 F1- 8 d 0.1944(2) 0.3387(1) 0.4405(1) . 1. 0
loop_
_atom_site_aniso_label
_atom_site_aniso_type_symbol
_atom_site_aniso_beta_11
_atom_site_aniso_beta_22
_atom_site_aniso_beta_33
_atom_site_aniso_beta_12
_atom_site_aniso_beta_13
_atom_site_aniso_beta_23
Na1 Na1+ 0.0054(5) 0.0030(1) 0.0030(3) 0.0005(1) -.0016(2) 0.0013(1)
Na2 Na1+ 0.0075(4) 0.0010(1) 0.0038(2) 0.0000(1) 0 0
Be1 Be2+ 0.0022(10) 0.0010(2) 0.0028(5) 0.0009(3) 0 0
F1 F1- 0.0012(5) 0.0026(1) 0.0058(3) 0.0002(1) 0 0
F2 F1- 0.0050(5) 0.0010(1) 0.0047(3) 0.0000(1) 0 0
F3 F1- 0.0080(5) 0.0021(1) 0.0027(2) 0.0004(1) -.0001(2) 0.0012(1)
#End of TTdata_27709-ICSD