
#(C) 2019 by FIZ Karlsruhe - Leibniz Institute for Information Infrastructure.  All rights reserved.
data_27735-ICSD
_database_code_ICSD 27735
_audit_creation_date 1980-01-01
_audit_update_record 2006-04-01
_chemical_name_systematic 'Disodium zinc silicate'
_chemical_formula_structural 'Na2 Zn (Si O4)'
_chemical_formula_sum 'Na2 O4 Si1 Zn1'
_exptl_crystal_density_diffrn 3.37
_publ_section_title 'Refined crystal structure of Na2 Zn (Si O4)'
loop_
_citation_id
_citation_journal_full
_citation_year
_citation_journal_volume
_citation_page_first
_citation_page_last
_citation_journal_id_ASTM
primary Kristallografiya 1976 21 73 75 KRISAJ
loop_
_publ_author_name
'Plakhov, G.F.'
'Simonov, M.A.'
'Egorov Tismenko, Yu.K.'
'Belov, N.V.'
_cell_length_a 5.248(1)
_cell_length_b 7.025(2)
_cell_length_c 5.445(1)
_cell_angle_alpha 90.
_cell_angle_beta 90.
_cell_angle_gamma 89.77(2)
_cell_volume 200.74
_cell_formula_units_Z 2
_symmetry_space_group_name_H-M 'P 1 1 n'
_symmetry_Int_Tables_number 7
_refine_ls_R_factor_all 0.042
loop_
_symmetry_equiv_pos_site_id
_symmetry_equiv_pos_as_xyz
1 'x+1/2, y+1/2, -z'
2 'x, y, z'
loop_
_atom_type_symbol
_atom_type_oxidation_number
Zn2+ 2
Si4+ 4
Na1+ 1
O2- -2
loop_
_atom_site_label
_atom_site_type_symbol
_atom_site_symmetry_multiplicity
_atom_site_Wyckoff_symbol
_atom_site_fract_x
_atom_site_fract_y
_atom_site_fract_z
_atom_site_B_iso_or_equiv
_atom_site_occupancy
_atom_site_attached_hydrogens
Zn1 Zn2+ 2 a 0 0 0.1889(8) . 1. 0
Si1 Si4+ 2 a 0.00586(34) 0.24493(35) 0.68842(27) . 1. 0
Na1 Na1+ 2 a 0.4944(10) 0.24413(74) 0.32142(55) . 1. 0
Na2 Na1+ 2 a 0.4971(12) 0.98838(77) 0.81409(39) . 1. 0
O1 O2- 2 a 0.92760(78) 0.21728(54) 0.39914(60) . 1. 0
O2 O2- 2 a 0.31220(69) 0.27222(57) 0.71230(76) . 1. 0
O3 O2- 2 a 0.92450(77) 0.05327(54) 0.84374(65) . 1. 0
O4 O2- 2 a 0.86462(75) 0.43611(56) 0.78869(70) . 1. 0
loop_
_atom_site_aniso_label
_atom_site_aniso_type_symbol
_atom_site_aniso_B_11
_atom_site_aniso_B_22
_atom_site_aniso_B_33
_atom_site_aniso_B_12
_atom_site_aniso_B_13
_atom_site_aniso_B_23
Zn1 Zn2+ 0.49(1) 0.43(1) 0.47(1) -.03(1) -.02(1) 0.03(2)
Si1 Si4+ 0.22(4) 0.45(4) 0.44(5) -.04(3) 0.04(4) -.03(4)
Na1 Na1+ 2.82(17) 0.63(9) 1.21(12) 0.06(9) -.33(10) 0.22(9)
Na2 Na1+ 1.35(6) 0.56(10) 1.12(6) 0.07(6) -.08(9) 0.01(7)
O1 O2- 1.74(13) 0.99(10) 0.47(9) 0.07(9) -.05(9) 0.00(8)
O2 O2- 0.67(10) 1.14(11) 1.68(14) 0.00(8) 0.00(9) -.21(10)
O3 O2- 1.38(12) 0.95(10) 0.82(10) -.08(9) -.06(8) 0.20(8)
O4 O2- 1.10(11) 1.1(1) 1.08(11) 0.16(8) 0.06(9) -.29(9)
#End of TTdata_27735-ICSD