
#(C) 2019 by FIZ Karlsruhe - Leibniz Institute for Information Infrastructure.  All rights reserved.
data_2777-ICSD
_database_code_ICSD 2777
_audit_creation_date 1980-01-01
_audit_update_record 1987-11-02
_chemical_name_systematic 'Sodium borate * - beta'
_chemical_formula_structural 'Na2 B6 O10'
_chemical_formula_sum 'B6 Na2 O10'
_exptl_crystal_density_diffrn 2.25
_publ_section_title
'The crystal structure of a sodium triborate modification, beta-Na2 O (B2 O3)3'
loop_
_citation_id
_citation_journal_full
_citation_year
_citation_journal_volume
_citation_page_first
_citation_page_last
_citation_journal_id_ASTM
primary

;
Acta Crystallographica, Section B: Structural Crystallography and Crystal
Chemistry
; 1972 28 1571 1576 ACBCAR
loop_
_publ_author_name
'Krogh-Moe, J.'
_cell_length_a 8.990(3)
_cell_length_b 11.033(2)
_cell_length_c 12.107(4)
_cell_angle_alpha 90.
_cell_angle_beta 90.50(3)
_cell_angle_gamma 90.
_cell_volume 1200.81
_cell_formula_units_Z 6
_symmetry_space_group_name_H-M 'P 1 21/c 1'
_symmetry_Int_Tables_number 14
_refine_ls_R_factor_all 0.065
loop_
_symmetry_equiv_pos_site_id
_symmetry_equiv_pos_as_xyz
1 'x, -y+1/2, z+1/2'
2 '-x, -y, -z'
3 '-x, y+1/2, -z+1/2'
4 'x, y, z'
loop_
_atom_type_symbol
_atom_type_oxidation_number
Na1+ 1
O2- -2
B3+ 3
loop_
_atom_site_label
_atom_site_type_symbol
_atom_site_symmetry_multiplicity
_atom_site_Wyckoff_symbol
_atom_site_fract_x
_atom_site_fract_y
_atom_site_fract_z
_atom_site_B_iso_or_equiv
_atom_site_occupancy
_atom_site_attached_hydrogens
Na1 Na1+ 4 e 0.1008(2) 0.3700(2) 0.4362(2) . 1. 0
Na2 Na1+ 4 e 0.4406(2) 0.8390(2) 0.2859(2) . 1. 0
Na3 Na1+ 4 e 0.1142(2) 0.9051(2) 0.4195(2) . 1. 0
O1 O2- 4 e 0.2727(3) 0.0677(3) 0.4454(2) . 1. 0
O2 O2- 4 e 0.1807(3) 0.2147(3) 0.3163(2) . 1. 0
O3 O2- 4 e 0.2790(3) 0.0198(3) 0.2528(2) . 1. 0
O4 O2- 4 e 0.4402(3) 0.1797(3) 0.3258(2) . 1. 0
O5 O2- 4 e 0.4823(3) 0.1729(3) 0.5205(2) . 1. 0
O6 O2- 4 e 0.1523(3) 0.1555(3) 0.1291(2) . 1. 0
O7 O2- 4 e 0.3265(3) 0.0718(3) 0.6407(2) . 1. 0
O8 O2- 4 e 0.6157(3) 0.3087(3) 0.4008(2) . 1. 0
O9 O2- 4 e 0.0831(3) 0.3528(3) 0.1837(2) . 1. 0
O10 O2- 4 e 0.1969(3) 0.9635(3) 0.0674(2) . 1. 0
O11 O2- 4 e 0.1047(3) 0.5541(3) 0.1204(2) . 1. 0
O12 O2- 4 e 0.1277(3) 0.7543(3) 0.0592(2) . 1. 0
O13 O2- 4 e 0.1916(3) 0.7056(3) 0.2455(2) . 1. 0
O14 O2- 4 e 0.2027(3) 0.4991(3) 0.3031(2) . 1. 0
O15 O2- 4 e 0.2769(3) 0.6664(3) 0.4197(2) . 1. 0
B1 B3+ 4 e 0.2951(5) 0.1195(5) 0.3357(4) . 1. 0
B2 B3+ 4 e 0.1786(5) 0.4601(5) 0.1885(4) . 1. 0
B3 B3+ 4 e 0.2512(5) 0.8423(5) 0.0359(4) . 1. 0
B4 B3+ 4 e 0.3548(5) 0.1018(5) 0.5351(4) . 1. 0
B5 B3+ 4 e 0.5154(5) 0.2197(5) 0.4165(4) . 1. 0
B6 B3+ 4 e 0.1399(5) 0.2412(5) 0.2118(4) . 1. 0
B7 B3+ 4 e 0.2140(5) 0.0403(5) 0.1529(4) . 1. 0
B8 B3+ 4 e 0.2227(5) 0.6189(5) 0.3259(4) . 1. 0
B9 B3+ 4 e 0.1397(5) 0.6726(5) 0.1428(4) . 1. 0
loop_
_atom_site_aniso_label
_atom_site_aniso_type_symbol
_atom_site_aniso_beta_11
_atom_site_aniso_beta_22
_atom_site_aniso_beta_33
_atom_site_aniso_beta_12
_atom_site_aniso_beta_13
_atom_site_aniso_beta_23
Na1 Na1+ 0.0061(3) 0.0028(2) 0.0027(2) -.0008(2) 0.0001(2) -.0001(2)
Na2 Na1+ 0.0061(3) 0.0046(2) 0.0033(2) 0.0012(2) -.0012(2) -.0013(2)
Na3 Na1+ 0.0069(3) 0.0052(2) 0.0036(2) -.0030(2) -.0022(2) 0.0012(2)
O1 O2- 0.0035(4) 0.0027(3) 0.0014(2) -.0015(3) -.0001(3) 0.0005(2)
O2 O2- 0.0033(4) 0.0020(3) 0.0018(2) 0.0008(3) -.0005(3) -.0002(2)
O3 O2- 0.0033(4) 0.0011(3) 0.0022(2) 0.0004(4) -.0007(3) -.0006(2)
O4 O2- 0.0035(4) 0.0027(3) 0.0013(2) -.0013(3) 0.0000(3) -.0004(2)
O5 O2- 0.0040(4) 0.0043(2) 0.0016(2) -.0022(3) -.0005(3) 0.0005(2)
O6 O2- 0.0074(4) 0.0015(3) 0.0022(2) 0.0017(3) -.0013(3) 0.0001(2)
O7 O2- 0.0030(4) 0.0028(3) 0.0015(2) -.0009(3) -.0001(3) 0.0001(2)
O8 O2- 0.0023(4) 0.0023(3) 0.0020(2) -.0014(3) -.0005(3) 0.0008(2)
O9 O2- 0.0033(4) 0.0007(3) 0.0031(2) -.0004(3) -.0006(3) 0.0000(2)
O10 O2- 0.0043(4) 0.0017(3) 0.0019(2) 0.0011(3) -.0011(3) -.0012(2)
O11 O2- 0.0034(4) 0.0014(3) 0.0020(2) 0.0002(3) -.0004(3) -.0002(2)
O12 O2- 0.0043(4) 0.0024(3) 0.0031(2) -.0011(3) -.0016(3) 0.0015(2)
O13 O2- 0.0080(4) 0.0015(3) 0.0025(2) -.0007(3) -.0006(3) 0.0000(2)
O14 O2- 0.0042(4) 0.0015(3) 0.0015(2) 0.0002(3) -.0003(3) 0.0003(2)
O15 O2- 0.0065(4) 0.0032(3) 0.0010(2) -.0025(3) -.0002(3) -.0006(2)
B1 B3+ 0.0045(7) 0.0011(5) 0.0022(4) -.0007(5) 0.0009(4) -.0002(4)
B2 B3+ 0.0034(7) 0.0009(5) 0.0017(4) 0.0002(5) 0.0000(4) -.0006(4)
B3 B3+ 0.0033(7) 0.0013(5) 0.0022(4) 0.0001(5) 0.0004(4) -.0001(4)
B4 B3+ 0.0020(7) 0.0010(5) 0.0032(4) 0.0005(5) 0.0003(4) 0.0008(4)
B5 B3+ 0.0025(7) 0.0019(5) 0.0026(4) 0.0008(5) -.0001(4) 0.0006(4)
B6 B3+ 0.0015(7) 0.0017(5) 0.0029(4) -.0004(5) -.0001(1) -.0002(4)
B7 B3+ 0.0024(7) 0.0020(5) 0.0022(4) 0.0000(5) -.0001(4) 0.0000(4)
B8 B3+ 0.0022(7) 0.0028(5) 0.0024(4) 0.0001(5) 0.0010(4) -.0002(4)
B9 B3+ 0.0027(7) 0.0019(5) 0.0023(4) 0.0013(5) 0.0005(4) -.0001(4)
#End of TTdata_2777-ICSD