
#(C) 2018 by FIZ Karlsruhe - Leibniz Institute for Information Infrastructure.  All rights reserved.
data_279593-ICSD
_database_code_ICSD 279593
_audit_creation_date 2002-10-01
_chemical_name_systematic 'Lithium tetrahydroxoborate'
_chemical_formula_structural 'Li (B (O H)4)'
_chemical_formula_sum 'H4 B1 Li1 O4'
_chemical_name_structure_type LiB(OH)4
_exptl_crystal_density_diffrn 1.84
_cell_measurement_temperature 120.
_publ_section_title
'Refinement of lithium tetrahydroxoborate with low-temperature CCD data'
loop_
_citation_id
_citation_journal_full
_citation_year
_citation_journal_volume
_citation_page_first
_citation_page_last
_citation_journal_id_ASTM
primary 'Acta Crystallographica, Section E: Structure Reports Online' 2001 57 62
63 ACSEBH
loop_
_publ_author_name
'Fronczek, F.R.'
'Aubry, D.A.'
'Stanley, G.G.'
_cell_length_a 7.9362(3)
_cell_length_b 8.5220(3)
_cell_length_c 9.1762(4)
_cell_angle_alpha 90.
_cell_angle_beta 90.
_cell_angle_gamma 90.
_cell_volume 620.61
_cell_formula_units_Z 8
_symmetry_space_group_name_H-M 'P b c a'
_symmetry_Int_Tables_number 61
_refine_ls_R_factor_all 0.039
loop_
_symmetry_equiv_pos_site_id
_symmetry_equiv_pos_as_xyz
1 'x+1/2, y, -z+1/2'
2 'x, -y+1/2, z+1/2'
3 '-x+1/2, y+1/2, z'
4 '-x, -y, -z'
5 '-x+1/2, -y, z+1/2'
6 '-x, y+1/2, -z+1/2'
7 'x+1/2, -y+1/2, -z'
8 'x, y, z'
loop_
_atom_type_symbol
_atom_type_oxidation_number
Li1+ 1
B3+ 3
O2- -2
H1+ 1
loop_
_atom_site_label
_atom_site_type_symbol
_atom_site_symmetry_multiplicity
_atom_site_Wyckoff_symbol
_atom_site_fract_x
_atom_site_fract_y
_atom_site_fract_z
_atom_site_B_iso_or_equiv
_atom_site_occupancy
_atom_site_attached_hydrogens
Li1 Li1+ 8 c 0.1319(2) 0.3741(2) 0.3016(2) . 1. 0
B1 B3+ 8 c 0.32892(15) 0.33617(13) 0.59296(13) . 1. 0
O1 O2- 8 c 0.16392(10) 0.29123(9) 0.65473(9) . 1. 0
O2 O2- 8 c 0.29301(10) 0.41668(9) 0.45417(8) . 1. 0
O3 O2- 8 c 0.42395(10) 0.44191(8) 0.68819(8) . 1. 0
O4 O2- 8 c 0.43403(10) 0.19150(9) 0.57379(9) . 1. 0
H1 H1+ 8 c 0.097(2) 0.2814(19) 0.5891(19) 0.028(4) 1. 0
H2 H1+ 8 c 0.381(2) 0.455(2) 0.418(2) 0.038(5) 1. 0
H3 H1+ 8 c 0.492(2) 0.3964(18) 0.735(2) 0.027(4) 1. 0
H4 H1+ 8 c 0.373(2) 0.117(2) 0.5432(18) 0.027(4) 1. 0
loop_
_atom_site_aniso_label
_atom_site_aniso_type_symbol
_atom_site_aniso_U_11
_atom_site_aniso_U_22
_atom_site_aniso_U_33
_atom_site_aniso_U_12
_atom_site_aniso_U_13
_atom_site_aniso_U_23
Li1 Li1+ 0.0142(9) 0.0133(9) 0.0105(8) -.0010(7) -.0006(7) -.0005(7)
B1 B3+ 0.0090(5) 0.0092(5) 0.0084(5) -.0002(4) 0.0003(4) 0.0005(4)
O1 O2- 0.0083(4) 0.0121(4) 0.0093(4) -.0004(3) 0.0004(3) 0.0009(3)
O2 O2- 0.0102(4) 0.0148(4) 0.0098(4) -.0032(3) -.0011(3) 0.0030(3)
O3 O2- 0.0109(4) 0.0092(4) 0.0099(4) 0.0008(3) -.0032(3) -.0001(3)
O4 O2- 0.0094(4) 0.0101(4) 0.0135(4) 0.0005(3) -.0007(3) -.0019(3)
#End of TTdata_279593-ICSD