
#(C) 2019 by FIZ Karlsruhe - Leibniz Institute for Information Infrastructure.  All rights reserved.
data_280024-ICSD
_database_code_ICSD 280024
_audit_creation_date 2000-07-15
_chemical_name_systematic 'Potassium sodium bis(vanadate)'
_chemical_formula_structural 'K Na (V O3)2'
_chemical_formula_sum 'K1 Na1 O6 V2'
_chemical_name_structure_type NaKV2O6
_exptl_crystal_density_diffrn 2.87
_cell_measurement_temperature 296.
_publ_section_title 'A potassium sodium double salt of metavanadate, K Na(VO3)2'
loop_
_citation_id
_citation_journal_full
_citation_year
_citation_journal_volume
_citation_page_first
_citation_page_last
_citation_journal_id_ASTM
primary 'Acta Crystallographica, Section C: Crystal Structure Communications'
1999 55 1048 1050 ACSCEE
loop_
_publ_author_name
'Shan, Y.'
'Huang, S.D.'
_cell_length_a 10.581(1)
_cell_length_b 10.089(1)
_cell_length_c 5.8151(8)
_cell_angle_alpha 90.
_cell_angle_beta 103.894(2)
_cell_angle_gamma 90.
_cell_volume 602.61
_cell_formula_units_Z 4
_symmetry_space_group_name_H-M 'C 1 2/c 1'
_symmetry_Int_Tables_number 15
_refine_ls_R_factor_all 0.035
loop_
_symmetry_equiv_pos_site_id
_symmetry_equiv_pos_as_xyz
1 'x, -y, z+1/2'
2 '-x, -y, -z'
3 '-x, y, -z+1/2'
4 'x, y, z'
5 'x+1/2, -y+1/2, z+1/2'
6 '-x+1/2, -y+1/2, -z'
7 '-x+1/2, y+1/2, -z+1/2'
8 'x+1/2, y+1/2, z'
loop_
_atom_type_symbol
_atom_type_oxidation_number
V5+ 5
K1+ 1
Na1+ 1
O2- -2
loop_
_atom_site_label
_atom_site_type_symbol
_atom_site_symmetry_multiplicity
_atom_site_Wyckoff_symbol
_atom_site_fract_x
_atom_site_fract_y
_atom_site_fract_z
_atom_site_B_iso_or_equiv
_atom_site_occupancy
_atom_site_attached_hydrogens
V1 V5+ 8 f 0.21422(5) 0.08536(6) 0.27881(8) . 1. 0
K1 K1+ 4 e 0 0.1920(1) -.25 . 1. 0
Na1 Na1+ 4 e 0.5 -.0957(2) 0.25 . 1. 0
O1 O2- 8 f 0.3748(2) 0.0874(2) 0.3478(4) . 1. 0
O2 O2- 8 f 0.1539(2) -.0148(2) 0.0177(4) . 1. 0
O3 O2- 8 f 0.1558(3) 0.2350(3) 0.2167(4) . 1. 0
loop_
_atom_site_aniso_label
_atom_site_aniso_type_symbol
_atom_site_aniso_U_11
_atom_site_aniso_U_22
_atom_site_aniso_U_33
_atom_site_aniso_U_12
_atom_site_aniso_U_13
_atom_site_aniso_U_23
V1 V5+ 0.0128(4) 0.0126(3) 0.0097(3) 0.0012(2) 0.0030(2) 0.0005(2)
K1 K1+ 0.0289(7) 0.0137(6) 0.0196(5) 0 -.0019(5) 0
Na1 Na1+ 0.020(1) 0.017(1) 0.0175(9) 0 0.0018(8) 0
O1 O2- 0.015(1) 0.020(1) 0.017(1) -.001(1) 0.0027(9) -.002(1)
O2 O2- 0.015(1) 0.019(1) 0.014(1) 0.000(1) 0.0044(9) -.0030(9)
O3 O2- 0.031(2) 0.017(1) 0.020(1) 0.007(1) 0.003(1) 0.001(1)
#End of TTdata_280024-ICSD