
#(C) 2019 by FIZ Karlsruhe - Leibniz Institute for Information Infrastructure.  All rights reserved.
data_280148-ICSD
_database_code_ICSD 280148
_audit_creation_date 2000-07-15
_chemical_name_systematic 'Sodium dizinc hydroxide bis(selenate(IV))'
_chemical_formula_structural 'Na Zn2 (O H) (Se O3)2'
_chemical_formula_sum 'H1 Na1 O7 Se2 Zn2'
_exptl_crystal_density_diffrn 4.18
_cell_measurement_temperature 298.
_publ_section_title 'Sodium zinc hydroxide selenite, Na Zn2 (O H) (Se O3)2'
loop_
_citation_id
_citation_journal_full
_citation_year
_citation_journal_volume
_citation_page_first
_citation_page_last
_citation_journal_id_ASTM
primary 'Acta Crystallographica, Section C: Crystal Structure Communications'
1999 55 1398 1399 ACSCEE
loop_
_publ_author_name
'Harrison, W.T.A.'
'Phillips, M.L.F.'
_cell_length_a 13.332(1)
_cell_length_b 6.0756(5)
_cell_length_c 8.3258(6)
_cell_angle_alpha 90.
_cell_angle_beta 90.
_cell_angle_gamma 90.
_cell_volume 674.39
_cell_formula_units_Z 4
_symmetry_space_group_name_H-M 'P n m a'
_symmetry_Int_Tables_number 62
_refine_ls_R_factor_all 0.029
loop_
_symmetry_equiv_pos_site_id
_symmetry_equiv_pos_as_xyz
1 'x+1/2, y, -z+1/2'
2 'x, -y+1/2, z'
3 '-x+1/2, y+1/2, z+1/2'
4 '-x, -y, -z'
5 '-x+1/2, -y, z+1/2'
6 '-x, y+1/2, -z'
7 'x+1/2, -y+1/2, -z+1/2'
8 'x, y, z'
loop_
_atom_type_symbol
_atom_type_oxidation_number
Na1+ 1
Zn2+ 2
Se4+ 4
O2- -2
H1+ 1
loop_
_atom_site_label
_atom_site_type_symbol
_atom_site_symmetry_multiplicity
_atom_site_Wyckoff_symbol
_atom_site_fract_x
_atom_site_fract_y
_atom_site_fract_z
_atom_site_B_iso_or_equiv
_atom_site_occupancy
_atom_site_attached_hydrogens
Na1 Na1+ 4 c 0.24941(15) 0.25 0.1276(2) . 1. 0
Zn1 Zn2+ 4 a 0 0 0 . 1. 0
Zn2 Zn2+ 4 c 0.11247(3) -.25 0.28793(5) . 1. 0
Se1 Se4+ 4 c 0.02697(3) 0.25 0.38270(4) . 1. 0
Se2 Se4+ 4 c 0.32950(3) -.25 0.27423(4) . 1. 0
O1 O2- 4 c 0.1094(2) 0.25 -.0439(3) . 1. 0
O2 O2- 4 c 0.0878(2) -.25 0.5321(4) . 1. 0
O3 O2- 4 c -.0982(2) 0.25 -.0367(4) . 1. 0
O4 O2- 8 d 0.24672(17) -.0426(4) 0.3029(3) . 1. 0
O5 O2- 8 d 0.01832(18) 0.0322(4) 0.2543(3) . 1. 0
H1 H1+ 4 c -.145(6) 0.25 0.013(8) 0.030(19) 1. 0
loop_
_atom_site_aniso_label
_atom_site_aniso_type_symbol
_atom_site_aniso_U_11
_atom_site_aniso_U_22
_atom_site_aniso_U_33
_atom_site_aniso_U_12
_atom_site_aniso_U_13
_atom_site_aniso_U_23
Na1 Na1+ 0.019(1) 0.024(1) 0.0130(8) 0 -.0025(6) 0
Zn1 Zn2+ 0.0133(3) 0.0093(3) 0.0092(3) 0.00055(16) -.00212(14) 0.00158(18)
Zn2 Zn2+ 0.0110(3) 0.0122(3) 0.0065(3) 0 -.00050(15) 0
Se1 Se4+ 0.0100(2) 0.0111(2) 0.0039(2) 0 -.00101(12) 0
Se2 Se4+ 0.0084(2) 0.0220(3) 0.0064(2) 0 -.00012(12) 0
O1 O2- 0.0096(14) 0.0155(15) 0.0084(12) 0 0.0022(9) 0
O2 O2- 0.0141(16) 0.0264(17) 0.0100(13) 0 0.0044(11) 0
O3 O2- 0.0113(14) 0.0114(14) 0.0091(14) 0 0.003(1) 0
O4 O2- 0.0151(11) 0.0241(13) 0.0226(11) 0.0053(9) -.0009(8) 0.0053(11)
O5 O2- 0.022(1) 0.0106(9) 0.0078(8) 0.0051(8) -.0029(7) -.0034(8)
#End of TTdata_280148-ICSD