
#(C) 2019 by FIZ Karlsruhe - Leibniz Institute for Information Infrastructure.  All rights reserved.
data_280172-ICSD
_database_code_ICSD 280172
_audit_creation_date 2000-07-15
_chemical_name_systematic 'Sodium tungsten oxide (5/14/44)'
_chemical_formula_structural 'Na5 (W14 O44)'
_chemical_formula_sum 'Na5 O44 W14'
_exptl_crystal_density_diffrn 6.65
_publ_section_title 'Triclinic sodium tungsten oxide, Na5 W14 O44'
loop_
_citation_id
_citation_journal_full
_citation_year
_citation_journal_volume
_citation_page_first
_citation_page_last
_citation_journal_id_ASTM
primary 'Acta Crystallographica, Section C: Crystal Structure Communications'
1999 55 838 841 ACSCEE
loop_
_publ_author_name
'Triantafyllou, S.T.'
'Christidis, P.C.'
_cell_length_a 7.2740(11)
_cell_length_b 7.2911(11)
_cell_length_c 18.5510(30)
_cell_angle_alpha 96.375(9)
_cell_angle_beta 90.714(9)
_cell_angle_gamma 119.656(8)
_cell_volume 847.11
_cell_formula_units_Z 1
_symmetry_space_group_name_H-M 'P -1'
_symmetry_Int_Tables_number 2
_refine_ls_R_factor_all 0.09
loop_
_symmetry_equiv_pos_site_id
_symmetry_equiv_pos_as_xyz
1 '-x, -y, -z'
2 'x, y, z'
loop_
_atom_type_symbol
_atom_type_oxidation_number
W5+ 5.93
Na1+ 1
O2- -2
loop_
_atom_site_label
_atom_site_type_symbol
_atom_site_symmetry_multiplicity
_atom_site_Wyckoff_symbol
_atom_site_fract_x
_atom_site_fract_y
_atom_site_fract_z
_atom_site_B_iso_or_equiv
_atom_site_occupancy
_atom_site_attached_hydrogens
W1 W5+ 2 i 0.34672(14) 0.68958(14) 0.02644(4) . 1. 0
W2 W5+ 2 i -.28868(14) -.11627(14) 0.18007(5) . 1. 0
W3 W5+ 2 i 0.18794(13) 0.86051(14) 0.18398(4) . 1. 0
W4 W5+ 2 i -.32131(13) 0.37238(13) 0.18559(4) . 1. 0
W5 W5+ 2 i 0.22489(14) 0.45155(14) 0.37161(5) . 1. 0
W6 W5+ 2 i -.27273(13) 0.45608(13) 0.40522(4) . 1. 0
W7 W5+ 2 i 0.22559(13) -.03919(13) 0.40266(4) . 1. 0
Na1 Na1+ 1 a 0 0 0 . 1. 0
Na2 Na1+ 2 i 0.1842(19) 0.3516(18) 0.1599(5) . 1. 0
Na3 Na1+ 2 i -.2823(18) -.0482(17) 0.3878(5) . 1. 0
O1 O2- 2 i 0.339(2) 0.693(2) -.0680(8) 0.014(3) 1. 0
O2 O2- 2 i 0.222(3) 0.431(3) 0.0450(9) 0.021(4) 1. 0
O3 O2- 2 i 0.618(3) 0.832(3) 0.0626(9) 0.020(4) 1. 0
O4 O2- 2 i 0.209(2) 0.818(3) 0.0660(8) 0.016(3) 1. 0
O5 O2- 2 i -.390(2) 0.575(2) 0.1647(8) 0.015(3) 1. 0
O6 O2- 2 i -.017(2) 0.940(2) 0.1520(8) 0.015(3) 1. 0
O7 O2- 2 i -.231(2) 0.164(2) 0.1742(8) 0.014(3) 1. 0
O8 O2- 2 i 0.404(2) 0.792(2) 0.1804(8) 0.013(3) 1. 0
O9 O2- 2 i -.242(3) -.092(3) 0.2715(9) 0.022(4) 1. 0
O10 O2- 2 i -.025(2) 0.579(2) 0.1712(8) 0.015(3) 1. 0
O11 O2- 2 i -.606(2) 0.157(2) 0.1742(8) 0.013(3) 1. 0
O12 O2- 2 i 0.180(3) 0.911(3) 0.2773(9) 0.015(3) 1. 0
O13 O2- 2 i -.291(2) 0.420(3) 0.2803(9) 0.015(3) 1. 0
O14 O2- 2 i 0.152(2) 0.169(2) 0.3912(8) 0.014(3) 1. 0
O15 O2- 2 i -.480(2) 0.537(3) 0.3891(8) 0.016(3) 1. 0
O16 O2- 2 i 0.301(2) 0.743(2) 0.3827(8) 0.012(3) 1. 0
O17 O2- 2 i -.057(2) 0.381(2) 0.3889(7) 0.010(3) 1. 0
O18 O2- 2 i 0.207(3) 0.404(3) 0.2802(9) 0.018(3) 1. 0
O19 O2- 2 i -.259(3) 0.483(3) 0.4984(9) 0.017(3) 1. 0
O20 O2- 2 i -.062(2) 0.739(2) 0.3922(8) 0.012(3) 1. 0
O21 O2- 2 i 0.519(2) 0.169(2) 0.3850(8) 0.014(3) 1. 0
O22 O2- 2 i 0.259(3) -.006(3) 0.4941(9) 0.022(4) 1. 0
loop_
_atom_site_aniso_label
_atom_site_aniso_type_symbol
_atom_site_aniso_U_11
_atom_site_aniso_U_22
_atom_site_aniso_U_33
_atom_site_aniso_U_12
_atom_site_aniso_U_13
_atom_site_aniso_U_23
W1 W5+ 0.0112(4) 0.0137(4) 0.0106(4) 0.0102(3) 0.0016(3) 0.0021(3)
W2 W5+ 0.0096(4) 0.0127(4) 0.0123(4) 0.0100(3) 0.0011(3) 0.0012(3)
W3 W5+ 0.0079(4) 0.0114(4) 0.0114(4) 0.0091(3) 0.0022(3) 0.0019(3)
W4 W5+ 0.0098(4) 0.0109(4) 0.0102(4) 0.0084(3) 0.0017(3) 0.0017(3)
W5 W5+ 0.0088(4) 0.0108(4) 0.0133(4) 0.0093(3) 0.0019(3) 0.0018(3)
W6 W5+ 0.0065(4) 0.0110(4) 0.0114(4) 0.0079(3) 0.0016(3) 0.0021(3)
W7 W5+ 0.0096(4) 0.0102(4) 0.0123(4) 0.0084(3) 0.0011(3) 0.0018(3)
Na1 Na1+ 0.069(17) 0.11(2) 0.059(14) 0.053(16) 0.001(11) -.018(13)
Na2 Na1+ 0.044(7) 0.034(6) 0.018(5) 0.023(5) 0.009(4) 0.007(4)
Na3 Na1+ 0.043(7) 0.029(6) 0.015(4) 0.025(5) 0.008(4) 0.005(4)
#End of TTdata_280172-ICSD