
#(C) 2019 by FIZ Karlsruhe - Leibniz Institute for Information Infrastructure.  All rights reserved.
data_280157-ICSD
_database_code_ICSD 280157
_audit_creation_date 2000-07-15
_chemical_name_systematic 'Disodiu dioxoniobium arsenate(V)'
_chemical_formula_structural 'Na2 (Nb O2) (As O4)'
_chemical_formula_sum 'As1 Na2 Nb1 O6'
_exptl_crystal_density_diffrn 3.76
_publ_section_title 'Na2 Nb O2 As O4, a new niobium monoarsenate'
loop_
_citation_id
_citation_journal_full
_citation_year
_citation_journal_volume
_citation_page_first
_citation_page_last
_citation_journal_id_ASTM
primary 'Acta Crystallographica, Section C: Crystal Structure Communications'
1999 55 1972 1974 ACSCEE
loop_
_publ_author_name
'Hizaoui, K.'
'Jouini, N.'
'Driss, A.'
'Jouini, T.'
_cell_length_a 14.5930(3)
_cell_length_b 10.8010(2)
_cell_length_c 7.3090(2)
_cell_angle_alpha 90.
_cell_angle_beta 108.35(2)
_cell_angle_gamma 90.
_cell_volume 1093.46
_cell_formula_units_Z 8
_symmetry_space_group_name_H-M 'C 1 2/c 1'
_symmetry_Int_Tables_number 15
_refine_ls_R_factor_all 0.023
loop_
_symmetry_equiv_pos_site_id
_symmetry_equiv_pos_as_xyz
1 'x, -y, z+1/2'
2 '-x, -y, -z'
3 '-x, y, -z+1/2'
4 'x, y, z'
5 'x+1/2, -y+1/2, z+1/2'
6 '-x+1/2, -y+1/2, -z'
7 '-x+1/2, y+1/2, -z+1/2'
8 'x+1/2, y+1/2, z'
loop_
_atom_type_symbol
_atom_type_oxidation_number
Nb5+ 5
As5+ 5
Na1+ 1
O2- -2
loop_
_atom_site_label
_atom_site_type_symbol
_atom_site_symmetry_multiplicity
_atom_site_Wyckoff_symbol
_atom_site_fract_x
_atom_site_fract_y
_atom_site_fract_z
_atom_site_B_iso_or_equiv
_atom_site_occupancy
_atom_site_attached_hydrogens
Nb1 Nb5+ 8 f 0.78901(2) 0.50269(2) 0.38329(4) . 1. 0
As1 As5+ 8 f 0.62878(2) 0.31201(3) 0.04641(4) . 1. 0
Na1 Na1+ 4 e 0.5 0.4962(2) -.25 . 1. 0
Na2 Na1+ 8 f 0.85947(11) 0.21033(15) 0.4417(2) . 1. 0
Na3 Na1+ 4 e 1 0.4539(3) 0.25 . 1. 0
O1 O2- 8 f 0.5176(2) 0.3551(2) 0.0277(4) . 1. 0
O2 O2- 8 f 0.7029(2) 0.3443(2) 0.2731(3) . 1. 0
O3 O2- 8 f 0.6614(2) 0.3836(2) -.1286(3) . 1. 0
O4 O2- 8 f 0.6350(2) 0.1580(2) 0.0035(3) . 1. 0
O5 O2- 8 f 0.7627(2) 0.5523(2) 0.1251(3) . 1. 0
O6 O2- 8 f 0.8989(2) 0.4206(2) 0.4370(3) . 1. 0
loop_
_atom_site_aniso_label
_atom_site_aniso_type_symbol
_atom_site_aniso_U_11
_atom_site_aniso_U_22
_atom_site_aniso_U_33
_atom_site_aniso_U_12
_atom_site_aniso_U_13
_atom_site_aniso_U_23
Nb1 Nb5+ 0.0079(2) 0.0093(2) 0.0047(2) 0.00046(9) 0.00139(12) 0.00021(9)
As1 As5+ 0.0072(2) 0.0089(2) 0.0059(2) -.00049(11) 0.00102(13) -.00034(11)
Na1 Na1+ 0.0195(11) 0.016(1) 0.0139(10) 0 0.0038(9) 0
Na2 Na1+ 0.0165(7) 0.0161(7) 0.0209(8) -.0006(5) 0.0050(6) -.0009(5)
Na3 Na1+ 0.0158(10) 0.0484(15) 0.0181(11) 0 0.0062(8) 0
O1 O2- 0.0098(10) 0.0182(13) 0.0206(12) 0.0018(10) 0.0052(9) -.0003(10)
O2 O2- 0.0160(12) 0.0127(11) 0.0062(10) -.0043(9) 0.0007(9) -.0014(9)
O3 O2- 0.0152(11) 0.0204(12) 0.0061(10) -.0067(10) 0.0035(9) 0.0011(9)
O4 O2- 0.0172(12) 0.0115(11) 0.0124(11) 0.0026(9) -.0005(9) -.0031(9)
O5 O2- 0.0178(12) 0.0130(12) 0.0093(11) 0.0011(10) 0.0051(9) 0.0011(9)
O6 O2- 0.0113(11) 0.0145(12) 0.0162(12) 0.0022(9) 0.0018(9) 0.0014(9)
#End of TTdata_280157-ICSD