
#(C) 2019 by FIZ Karlsruhe - Leibniz Institute for Information Infrastructure.  All rights reserved.
data_280381-ICSD
_database_code_ICSD 280381
_audit_creation_date 2002-04-01
_audit_update_record 2012-08-01
_chemical_name_systematic 'Sodium bismuth titanate (0.5/0.5/1)'
_chemical_formula_structural '(Na0.5 Bi0.5) (Ti O3)'
_chemical_formula_sum 'Bi0.5 Na0.5 O3 Ti1'
_chemical_name_structure_type Perovskite-NaBi(TiO3)2
_exptl_crystal_density_diffrn 5.91
_cell_measurement_temperature 698.
_publ_section_title

;
The tetragonal phase of Na0.5 Bi0.5 Ti O3 - A new variant of the perovskite
structure.
;
loop_
_citation_id
_citation_journal_full
_citation_year
_citation_journal_volume
_citation_page_first
_citation_page_last
_citation_journal_id_ASTM
primary 'Acta Crystallographica, Section B: Structural Science' 2000 56 426 430
ASBSDK
loop_
_publ_author_name
'Jones, G.O.'
'Thomas, P.A.'
_cell_length_a 5.5191(1)
_cell_length_b 5.5191(1)
_cell_length_c 3.9085(5)
_cell_angle_alpha 90.
_cell_angle_beta 90.
_cell_angle_gamma 90.
_cell_volume 119.05
_cell_formula_units_Z 2
_symmetry_space_group_name_H-M 'P 4 b m'
_symmetry_Int_Tables_number 100
_refine_ls_R_factor_all 0.0501
loop_
_symmetry_equiv_pos_site_id
_symmetry_equiv_pos_as_xyz
1 '-y+1/2, -x+1/2, z'
2 'y+1/2, x+1/2, z'
3 'y, -x, z'
4 '-y, x, z'
5 '-x+1/2, y+1/2, z'
6 'x+1/2, -y+1/2, z'
7 '-x, -y, z'
8 'x, y, z'
loop_
_atom_type_symbol
_atom_type_oxidation_number
Na1+ 1
Bi3+ 3
Ti4+ 4
O2- -2
loop_
_atom_site_label
_atom_site_type_symbol
_atom_site_symmetry_multiplicity
_atom_site_Wyckoff_symbol
_atom_site_fract_x
_atom_site_fract_y
_atom_site_fract_z
_atom_site_B_iso_or_equiv
_atom_site_occupancy
_atom_site_attached_hydrogens
Na1 Na1+ 2 b 0 0.5 0.523(4) . 0.5 0
Bi1 Bi3+ 2 b 0 0.5 0.523(4) . 0.5 0
Ti1 Ti4+ 2 a 0 0 0 . 1. 0
O1 O2- 2 a 0 0 0.515(4) . 1. 0
O2 O2- 4 c 0.270(3) 0.230(3) 0.026(4) . 1. 0
loop_
_atom_site_aniso_label
_atom_site_aniso_type_symbol
_atom_site_aniso_U_11
_atom_site_aniso_U_22
_atom_site_aniso_U_33
_atom_site_aniso_U_12
_atom_site_aniso_U_13
_atom_site_aniso_U_23
Na1 Na1+ 0.048(5) 0.048(5) 0.058(5) -.004(2) 0 0
Bi1 Bi3+ 0.076(4) 0.076(4) 0.064(8) -.003(2) 0 0
Ti1 Ti4+ 0.021(2) 0.021(2) 0.006(4) 0 0 0
O1 O2- 0.068(2) 0.068(2) 0.008(2) 0 0 0
O2 O2- 0.026(1) 0.026(1) 0.061(2) -.012(2) 0.009(4) -.009(4)
#End of TTdata_280381-ICSD