
#(C) 2019 by FIZ Karlsruhe - Leibniz Institute for Information Infrastructure.  All rights reserved.
data_280473-ICSD
_database_code_ICSD 280473
_audit_creation_date 2002-04-01
_audit_update_record 2006-04-01
_chemical_name_systematic 'Sodium aluminium silicon oxide (1.55/1.55/0.45/4)'
_chemical_formula_structural 'Na1.55 (Al1.55 Si0.45 O4)'
_chemical_formula_sum 'Al1.55 Na1.55 O4 Si0.45'
_exptl_crystal_density_diffrn 2.67
_publ_section_title

;
Cristobalite-related phases in the Na Al O2 - Na Al Si O4 system I. Two
tetragonal and two orthorhombic structures
;
loop_
_citation_id
_citation_journal_full
_citation_year
_citation_journal_volume
_citation_page_first
_citation_page_last
_citation_journal_id_ASTM
primary 'Acta Crystallographica, Section B: Structural Science' 1998 54 531 546
ASBSDK
loop_
_publ_author_name
'Thompson, J.G.'
'Withers, R.L.'
'Melnitchenko, A.'
'Palethorpe, S.R.'
_cell_length_a 10.385(1)
_cell_length_b 14.198(3)
_cell_length_c 5.1925(6)
_cell_angle_alpha 90.
_cell_angle_beta 90.
_cell_angle_gamma 90.
_cell_volume 765.61
_cell_formula_units_Z 8
_symmetry_space_group_name_H-M 'P b c a'
_symmetry_Int_Tables_number 61
loop_
_symmetry_equiv_pos_site_id
_symmetry_equiv_pos_as_xyz
1 'x+1/2, y, -z+1/2'
2 'x, -y+1/2, z+1/2'
3 '-x+1/2, y+1/2, z'
4 '-x, -y, -z'
5 '-x+1/2, -y, z+1/2'
6 '-x, y+1/2, -z+1/2'
7 'x+1/2, -y+1/2, -z'
8 'x, y, z'
loop_
_atom_type_symbol
_atom_type_oxidation_number
Al3+ 3
Si4+ 4
Al3+ 3
Si4+ 4
Na1+ 1
O2- -2
loop_
_atom_site_label
_atom_site_type_symbol
_atom_site_symmetry_multiplicity
_atom_site_Wyckoff_symbol
_atom_site_fract_x
_atom_site_fract_y
_atom_site_fract_z
_atom_site_B_iso_or_equiv
_atom_site_occupancy
_atom_site_attached_hydrogens
Al1 Al3+ 8 c 0.976(1) 0.809(1) 0.703(3) 0.058(5) 0.775 0
Si1 Si4+ 8 c 0.976(1) 0.809(1) 0.703(3) 0.058(5) 0.225 0
Al2 Al3+ 8 c 0.273(1) 0.062(1) 0.294(3) 0.058(5) 0.775 0
Si2 Si4+ 8 c 0.273(1) 0.062(1) 0.294(3) 0.058(5) 0.225 0
Na1 Na1+ 8 c 0.497(8) 0.057(6) 0.667(3) 0.114(12) 0.3875 0
Na2 Na1+ 8 c 0.459(9) 0.063(5) 0.836(3) 0.114(12) 0.3875 0
Na3 Na1+ 8 c 0.756(9) 0.317(9) 0.189(3) 0.114(12) 0.3875 0
Na4 Na1+ 8 c 0.779(9) 0.301(7) 0.278(3) 0.114(12) 0.3875 0
O1 O2- 8 c 0.072(2) 0.904(1) 0.770(5) 0.065(5) 1. 0
O2 O2- 8 c 0.014(3) 0.788(1) 0.387(4) 0.065(5) 1. 0
O3 O2- 8 c 0.252(2) 0.962(1) 0.116(4) 0.065(5) 1. 0
O4 O2- 8 c 0.825(2) 0.845(1) 0.795(5) 0.065(5) 1. 0
#End of TTdata_280473-ICSD