
#(C) 2019 by FIZ Karlsruhe - Leibniz Institute for Information Infrastructure.  All rights reserved.
data_280471-ICSD
_database_code_ICSD 280471
_audit_creation_date 2002-04-01
_audit_update_record 2006-04-01
_chemical_name_systematic 'Sodium aluminium silicon oxide (1.75/1.75/0.25/4)'
_chemical_formula_structural 'Na1.75 (Al1.75 Si0.25 O4)'
_chemical_formula_sum 'Al1.75 Na1.75 O4 Si0.25'
_chemical_name_structure_type Na2-x(Mg,Si)2O4
_exptl_crystal_density_diffrn 2.73
_publ_section_title

;
Cristobalite-related phases in the Na Al O2 - Na Al Si O4 system I. Two
tetragonal and two orthorhombic structures
;
loop_
_citation_id
_citation_journal_full
_citation_year
_citation_journal_volume
_citation_page_first
_citation_page_last
_citation_journal_id_ASTM
primary 'Acta Crystallographica, Section B: Structural Science' 1998 54 531 546
ASBSDK
loop_
_publ_author_name
'Thompson, J.G.'
'Withers, R.L.'
'Melnitchenko, A.'
'Palethorpe, S.R.'
_cell_length_a 10.416(3)
_cell_length_b 14.250(3)
_cell_length_c 5.2038(9)
_cell_angle_alpha 90.
_cell_angle_beta 90.
_cell_angle_gamma 90.
_cell_volume 772.39
_cell_formula_units_Z 8
_symmetry_space_group_name_H-M 'P b c a'
_symmetry_Int_Tables_number 61
loop_
_symmetry_equiv_pos_site_id
_symmetry_equiv_pos_as_xyz
1 'x+1/2, y, -z+1/2'
2 'x, -y+1/2, z+1/2'
3 '-x+1/2, y+1/2, z'
4 '-x, -y, -z'
5 '-x+1/2, -y, z+1/2'
6 '-x, y+1/2, -z+1/2'
7 'x+1/2, -y+1/2, -z'
8 'x, y, z'
loop_
_atom_type_symbol
_atom_type_oxidation_number
Al3+ 3
Si4+ 4
Al3+ 3
Si4+ 4
Na1+ 1
O2- -2
loop_
_atom_site_label
_atom_site_type_symbol
_atom_site_symmetry_multiplicity
_atom_site_Wyckoff_symbol
_atom_site_fract_x
_atom_site_fract_y
_atom_site_fract_z
_atom_site_B_iso_or_equiv
_atom_site_occupancy
_atom_site_attached_hydrogens
Al1 Al3+ 8 c 0.980(1) 0.812(1) 0.691(2) 0.035(3) 0.875 0
Si1 Si4+ 8 c 0.980(1) 0.812(1) 0.691(2) 0.035(3) 0.125 0
Al2 Al3+ 8 c 0.271(1) 0.061(1) 0.304(2) 0.035(3) 0.875 0
Si2 Si4+ 8 c 0.271(1) 0.061(1) 0.304(2) 0.035(3) 0.125 0
Na1 Na1+ 8 c 0.484(5) 0.065(4) 0.703(12) 0.093(6) 0.4375 0
Na2 Na1+ 8 c 0.489(5) 0.049(4) 0.777(12) 0.093(6) 0.4375 0
Na3 Na1+ 8 c 0.745(4) 0.307(4) 0.161(9) 0.093(6) 0.4375 0
Na4 Na1+ 8 c 0.794(4) 0.322(3) 0.288(8) 0.093(6) 0.4375 0
O1 O2- 8 c 0.075(1) 0.907(1) 0.738(3) 0.046(4) 1. 0
O2 O2- 8 c 0.019(2) 0.786(1) 0.372(3) 0.046(4) 1. 0
O3 O2- 8 c 0.238(2) 0.960(1) 0.128(3) 0.046(4) 1. 0
O4 O2- 8 c 0.827(1) 0.845(1) 0.793(3) 0.046(4) 1. 0
#End of TTdata_280471-ICSD