
#(C) 2019 by FIZ Karlsruhe - Leibniz Institute for Information Infrastructure.  All rights reserved.
data_280440-ICSD
_database_code_ICSD 280440
_audit_creation_date 2002-04-01
_chemical_name_systematic 'Trisodium discandium tris(arsenate(V))'
_chemical_formula_structural 'Na3 Sc2 (As O4)3'
_chemical_formula_sum 'As3 Na3 O12 Sc2'
_chemical_name_structure_type 'Nasicon high'
_exptl_crystal_density_diffrn 3.43
_cell_measurement_temperature 298.
_publ_section_title 'Sodium scandium arsenate, Na3 Sc2 (As O4)3'
loop_
_citation_id
_citation_journal_full
_citation_year
_citation_journal_volume
_citation_page_first
_citation_page_last
_citation_journal_id_ASTM
primary 'Acta Crystallographica, Section C: Crystal Structure Communications'
2001 57 2 3 ACSCEE
loop_
_publ_author_name
'Harrison, W.'
'Phillips, M.'
_cell_length_a 9.2760(3)
_cell_length_b 9.2760(3)
_cell_length_c 22.46399(80)
_cell_angle_alpha 90.
_cell_angle_beta 90.
_cell_angle_gamma 120.
_cell_volume 1673.94
_cell_formula_units_Z 6
_symmetry_space_group_name_H-M 'R -3 c H'
_symmetry_Int_Tables_number 167
_refine_ls_R_factor_all 0.027
loop_
_symmetry_equiv_pos_site_id
_symmetry_equiv_pos_as_xyz
1 'x-y, -y, -z+1/2'
2 '-x, -x+y, -z+1/2'
3 'y, x, -z+1/2'
4 'x-y, x, -z'
5 'y, -x+y, -z'
6 '-x, -y, -z'
7 '-x+y, y, z+1/2'
8 'x, x-y, z+1/2'
9 '-y, -x, z+1/2'
10 '-x+y, -x, z'
11 '-y, x-y, z'
12 'x, y, z'
13 'x-y+2/3, -y+1/3, -z+5/6'
14 '-x+2/3, -x+y+1/3, -z+5/6'
15 'y+2/3, x+1/3, -z+5/6'
16 'x-y+2/3, x+1/3, -z+1/3'
17 'y+2/3, -x+y+1/3, -z+1/3'
18 '-x+2/3, -y+1/3, -z+1/3'
19 '-x+y+2/3, y+1/3, z+5/6'
20 'x+2/3, x-y+1/3, z+5/6'
21 '-y+2/3, -x+1/3, z+5/6'
22 '-x+y+2/3, -x+1/3, z+1/3'
23 '-y+2/3, x-y+1/3, z+1/3'
24 'x+2/3, y+1/3, z+1/3'
25 'x-y+1/3, -y+2/3, -z+1/6'
26 '-x+1/3, -x+y+2/3, -z+1/6'
27 'y+1/3, x+2/3, -z+1/6'
28 'x-y+1/3, x+2/3, -z+2/3'
29 'y+1/3, -x+y+2/3, -z+2/3'
30 '-x+1/3, -y+2/3, -z+2/3'
31 '-x+y+1/3, y+2/3, z+1/6'
32 'x+1/3, x-y+2/3, z+1/6'
33 '-y+1/3, -x+2/3, z+1/6'
34 '-x+y+1/3, -x+2/3, z+2/3'
35 '-y+1/3, x-y+2/3, z+2/3'
36 'x+1/3, y+2/3, z+2/3'
loop_
_atom_type_symbol
_atom_type_oxidation_number
Na1+ 1
Sc3+ 3
As5+ 5
O2- -2
loop_
_atom_site_label
_atom_site_type_symbol
_atom_site_symmetry_multiplicity
_atom_site_Wyckoff_symbol
_atom_site_fract_x
_atom_site_fract_y
_atom_site_fract_z
_atom_site_B_iso_or_equiv
_atom_site_occupancy
_atom_site_attached_hydrogens
Na1 Na1+ 6 b 0 0 0 . 1.028(18) 0
Na2 Na1+ 18 e 0.0373(3) 0.3333 0.0833 . 0.626(11) 0
Sc1 Sc3+ 12 c 0.3333 0.6667 0.31236(3) . 1. 0
As1 As5+ 18 e 0 0.29458(3) 0.25 . 1. 0
O1 O2- 36 f -.1703(2) 0.3136(2) 0.24968(8) . 1. 0
O2 O2- 36 f 0.0162(3) 0.2021(3) 0.18869(13) . 1. 0
loop_
_atom_site_aniso_label
_atom_site_aniso_type_symbol
_atom_site_aniso_U_11
_atom_site_aniso_U_22
_atom_site_aniso_U_33
_atom_site_aniso_U_12
_atom_site_aniso_U_13
_atom_site_aniso_U_23
Na1 Na1+ 0.075(2) 0.075(2) 0.0141(15) 0.0373(12) 0 0
Na2 Na1+ 0.0189(12) 0.0143(13) 0.0415(17) 0.0071(6) 0.0053(5) 0.011(1)
Sc1 Sc3+ 0.00744(18) 0.00744(18) 0.0078(3) 0.00372(9) 0 0
As1 As5+ 0.00866(15) 0.00788(13) 0.01803(16) 0.00433(7) -.00517(11) -.00259(5)
O1 O2- 0.0142(7) 0.0251(9) 0.0192(8) 0.0144(7) -.0042(6) -.0011(7)
O2 O2- 0.0318(12) 0.0362(12) 0.0567(16) 0.018(1) -.0077(11) -.0348(12)
#End of TTdata_280440-ICSD