
#(C) 2019 by FIZ Karlsruhe - Leibniz Institute for Information Infrastructure.  All rights reserved.
data_280470-ICSD
_database_code_ICSD 280470
_audit_creation_date 2002-04-01
_audit_update_record 2006-04-01
_chemical_name_systematic 'Sodium aluminium silicon oxide (1.95/1.95/0.05/4)'
_chemical_formula_structural 'Na1.95 (Al1.95 Si0.05 O4)'
_chemical_formula_sum 'Al1.95 Na1.95 O4 Si0.05'
_chemical_name_structure_type LiAlO2-gamma
_exptl_crystal_density_diffrn 2.72
_publ_section_title

;
Cristobalite-related phases in the Na Al O2 - Na Al Si O4 system I. Two
tetragonal and two orthorhombic structures
;
loop_
_citation_id
_citation_journal_full
_citation_year
_citation_journal_volume
_citation_page_first
_citation_page_last
_citation_journal_id_ASTM
primary 'Acta Crystallographica, Section B: Structural Science' 1998 54 531 546
ASBSDK
loop_
_publ_author_name
'Thompson, J.G.'
'Withers, R.L.'
'Melnitchenko, A.'
'Palethorpe, S.R.'
_cell_length_a 5.2997(6)
_cell_length_b 5.2997(6)
_cell_length_c 7.0758(9)
_cell_angle_alpha 90.
_cell_angle_beta 90.
_cell_angle_gamma 90.
_cell_volume 198.74
_cell_formula_units_Z 2
_symmetry_space_group_name_H-M 'P 41 21 2'
_symmetry_Int_Tables_number 92
loop_
_symmetry_equiv_pos_site_id
_symmetry_equiv_pos_as_xyz
1 'x+1/2, -y+1/2, -z+3/4'
2 '-x+1/2, y+1/2, -z+1/4'
3 '-y, -x, -z+1/2'
4 'y, x, -z'
5 'y+1/2, -x+1/2, z+3/4'
6 '-y+1/2, x+1/2, z+1/4'
7 '-x, -y, z+1/2'
8 'x, y, z'
loop_
_atom_type_symbol
_atom_type_oxidation_number
Al3+ 3
Si4+ 4
Na1+ 1
O2- -2
loop_
_atom_site_label
_atom_site_type_symbol
_atom_site_symmetry_multiplicity
_atom_site_Wyckoff_symbol
_atom_site_fract_x
_atom_site_fract_y
_atom_site_fract_z
_atom_site_B_iso_or_equiv
_atom_site_occupancy
_atom_site_attached_hydrogens
Al1 Al3+ 4 a 0.3061(3) 0.3061(3) 0 0.026(1) 0.975 0
Si1 Si4+ 4 a 0.3061(3) 0.3061(3) 0 0.026(1) 0.025 0
Na1 Na1+ 4 a 0.2891(4) 0.2891(4) 0.5 0.047(1) 0.975 0
O1 O2- 8 b 0.2337(5) 0.1270(5) 0.1989(4) 0.027(1) 1. 0
#End of TTdata_280470-ICSD