
#(C) 2019 by FIZ Karlsruhe - Leibniz Institute for Information Infrastructure.  All rights reserved.
data_280474-ICSD
_database_code_ICSD 280474
_audit_creation_date 2002-04-01
_audit_update_record 2006-04-01
_chemical_name_systematic 'Sodium aluminium silicon oxide (1.15/1.15/0.85/4)'
_chemical_formula_structural 'Na1.15 (Al1.15 Si0.85 O4)'
_chemical_formula_sum 'Al1.15 Na1.15 O4 Si0.85'
_exptl_crystal_density_diffrn 2.58
_publ_section_title

;
Cristobalite-related phases in the Na Al O2 - Na Al Si O4 system I. Two
tetragonal and two orthorhombic structures
;
loop_
_citation_id
_citation_journal_full
_citation_year
_citation_journal_volume
_citation_page_first
_citation_page_last
_citation_journal_id_ASTM
primary 'Acta Crystallographica, Section B: Structural Science' 1998 54 531 546
ASBSDK
loop_
_publ_author_name
'Thompson, J.G.'
'Withers, R.L.'
'Melnitchenko, A.'
'Palethorpe, S.R.'
_cell_length_a 10.214(2)
_cell_length_b 14.226(7)
_cell_length_c 10.308(1)
_cell_angle_alpha 90.
_cell_angle_beta 90.
_cell_angle_gamma 90.
_cell_volume 1497.8
_cell_formula_units_Z 16
_symmetry_space_group_name_H-M 'P b 21 a'
_symmetry_Int_Tables_number 29
loop_
_symmetry_equiv_pos_site_id
_symmetry_equiv_pos_as_xyz
1 'x+1/2, y, -z'
2 '-x+1/2, y+1/2, z'
3 '-x, y+1/2, -z'
4 'x, y, z'
loop_
_atom_type_symbol
_atom_type_oxidation_number
Al3+ 3
Si4+ 4
Al3+ 3
Si4+ 4
Al3+ 3
Si4+ 4
Al3+ 3
Si4+ 4
Al3+ 3
Si4+ 4
Al3+ 3
Si4+ 4
Al3+ 3
Si4+ 4
Al3+ 3
Si4+ 4
Na1+ 1
O2- -2
loop_
_atom_site_label
_atom_site_type_symbol
_atom_site_symmetry_multiplicity
_atom_site_Wyckoff_symbol
_atom_site_fract_x
_atom_site_fract_y
_atom_site_fract_z
_atom_site_B_iso_or_equiv
_atom_site_occupancy
_atom_site_attached_hydrogens
Al1 Al3+ 4 a 0.995(2) 0.001(3) 0.024(2) 0.033(2) 0.575 0
Si1 Si4+ 4 a 0.995(2) 0.001(3) 0.024(2) 0.033(2) 0.425 0
Al2 Al3+ 4 a 0.996(2) -.002(3) 0.523(1) 0.033(2) 0.575 0
Si2 Si4+ 4 a 0.996(2) -.002(3) 0.523(1) 0.033(2) 0.425 0
Al3 Al3+ 4 a 0.267(2) 0.245(3) 0.775(2) 0.033(2) 0.575 0
Si3 Si4+ 4 a 0.267(2) 0.245(3) 0.775(2) 0.033(2) 0.425 0
Al4 Al3+ 4 a 0.279(2) 0.250(3) 0.274(2) 0.033(2) 0.575 0
Si4 Si4+ 4 a 0.279(2) 0.250(3) 0.274(2) 0.033(2) 0.425 0
Al5 Al3+ 4 a 0.243(2) 0.126(3) 0.029(1) 0.033(2) 0.575 0
Si5 Si4+ 4 a 0.243(2) 0.126(3) 0.029(1) 0.033(2) 0.425 0
Al6 Al3+ 4 a 0.246(2) 0.120(3) 0.519(1) 0.033(2) 0.575 0
Si6 Si4+ 4 a 0.246(2) 0.120(3) 0.519(1) 0.033(2) 0.425 0
Al7 Al3+ 4 a 0.975(1) 0.872(3) 0.772(2) 0.033(2) 0.575 0
Si7 Si4+ 4 a 0.975(1) 0.872(3) 0.772(2) 0.033(2) 0.425 0
Al8 Al3+ 4 a 0.978(1) 0.877(3) 0.275(2) 0.033(2) 0.575 0
Si8 Si4+ 4 a 0.978(1) 0.877(3) 0.275(2) 0.033(2) 0.425 0
Na1 Na1+ 4 a 0.496(14) 0.243(7) 0.039(8) 0.077(10) 1. 0
Na2 Na1+ 4 a 0.5 0.25 0.5 0.077(10) 0.15 0
Na3 Na1+ 4 a 0.75 0.5 0.25 0.077(10) 0.15 0
Na4 Na1+ 4 a 0.757(14) 0.493(12) 0.234(6) 0.077(10) 1. 0
Na5 Na1+ 4 a 0.75 0.375 0 0.077(10) 0.15 0
Na6 Na1+ 4 a 0.775(9) 0.375(7) 0.486(7) 0.077(10) 1. 0
Na7 Na1+ 4 a -.013(15) 0.617(13) 0.733(9) 0.077(10) 1. 0
Na8 Na1+ 4 a 0 0.625 0.25 0.077(10) 0.15 0
O1 O2- 4 a 0.149(2) 0.034(3) -.004(2) 0.028(2) 1. 0
O2 O2- 4 a 0.089(2) 0.091(3) 0.487(2) 0.028(2) 1. 0
O3 O2- 4 a 0.422(2) 0.281(3) 0.780(3) 0.028(2) 1. 0
O4 O2- 4 a 0.420(2) 0.293(3) 0.221(2) 0.028(2) 1. 0
O5 O2- 4 a -.042(2) -.088(3) -.076(2) 0.028(2) 1. 0
O6 O2- 4 a 0.029(2) -.089(3) 0.421(2) 0.028(2) 1. 0
O7 O2- 4 a 0.256(3) 0.153(3) 0.675(3) 0.028(2) 1. 0
O8 O2- 4 a 0.220(2) 0.166(3) 0.178(2) 0.028(2) 1. 0
O9 O2- 4 a 0.899(2) 0.093(3) -.006(2) 0.028(2) 1. 0
O10 O2- 4 a 0.840(2) 0.026(3) 0.505(2) 0.028(2) 1. 0
O11 O2- 4 a 0.173(2) 0.333(3) 0.718(3) 0.028(2) 1. 0
O12 O2- 4 a 0.171(2) 0.339(3) 0.282(3) 0.028(2) 1. 0
O13 O2- 4 a 0.029(2) -.042(3) 0.673(2) 0.028(2) 1. 0
O14 O2- 4 a -.023(2) -.030(3) 0.178(2) 0.028(2) 1. 0
O15 O2- 4 a 0.219(3) 0.214(3) 0.924(3) 0.028(2) 1. 0
O16 O2- 4 a 0.290(2) 0.209(3) 0.425(2) 0.028(2) 1. 0
#End of TTdata_280474-ICSD