
#(C) 2019 by FIZ Karlsruhe - Leibniz Institute for Information Infrastructure.  All rights reserved.
data_280475-ICSD
_database_code_ICSD 280475
_audit_creation_date 2002-04-01
_audit_update_record 2013-02-01
_chemical_name_systematic 'Sodium aluminium silicon oxide (1.52/1.45/0.55/4)'
_chemical_formula_structural 'Na1.52 (Al1.45 Si0.55 O4)'
_chemical_formula_sum 'Al1.45 Na1.52 O4 Si0.55'
_exptl_crystal_density_diffrn 2.65
_publ_section_title

;
Cristobalite-related phases in the Na Al O2 - Na Al Si O4 system II. A
commensurately modulated cubic structure
;
loop_
_citation_id
_citation_journal_full
_citation_year
_citation_journal_volume
_citation_page_first
_citation_page_last
_citation_journal_id_ASTM
primary 'Acta Crystallographica, Section B: Structural Science' 1998 54 547 557
ASBSDK
loop_
_publ_author_name
'Withers, R.L.'
'Thompson, J.G.'
'Melnitchenko, A.'
'Palethorpe, S.R.'
_cell_length_a 14.553(1)
_cell_length_b 14.553(1)
_cell_length_c 14.553(1)
_cell_angle_alpha 90.
_cell_angle_beta 90.
_cell_angle_gamma 90.
_cell_volume 3082.18
_cell_formula_units_Z 32
_symmetry_space_group_name_H-M 'P 21 3'
_symmetry_Int_Tables_number 198
loop_
_symmetry_equiv_pos_site_id
_symmetry_equiv_pos_as_xyz
1 '-z+1/2, -x, y+1/2'
2 '-y+1/2, -z, x+1/2'
3 '-x+1/2, -y, z+1/2'
4 '-z, x+1/2, -y+1/2'
5 '-y, z+1/2, -x+1/2'
6 '-x, y+1/2, -z+1/2'
7 'z+1/2, -x+1/2, -y'
8 'y+1/2, -z+1/2, -x'
9 'x+1/2, -y+1/2, -z'
10 'z, x, y'
11 'y, z, x'
12 'x, y, z'
loop_
_atom_type_symbol
_atom_type_oxidation_number
Al3+ 3
Si4+ 4
Al3+ 3
Si4+ 4
Al3+ 3
Si4+ 4
Al3+ 3
Si4+ 4
Al3+ 3
Si4+ 4
Al3+ 3
Si4+ 4
Al3+ 3
Si4+ 4
Al3+ 3
Si4+ 4
Na1+ 1
O2- -2
loop_
_atom_site_label
_atom_site_type_symbol
_atom_site_symmetry_multiplicity
_atom_site_Wyckoff_symbol
_atom_site_fract_x
_atom_site_fract_y
_atom_site_fract_z
_atom_site_B_iso_or_equiv
_atom_site_occupancy
_atom_site_attached_hydrogens
Al1 Al3+ 4 a 0.0132 0.0132 0.0132 0.001(4) 0.725 0
Si1 Si4+ 4 a 0.0132 0.0132 0.0132 0.001(4) 0.275 0
Al2 Al3+ 4 a 0.1498 0.1498 0.1498 0.001(4) 0.725 0
Si2 Si4+ 4 a 0.1498 0.1498 0.1498 0.001(4) 0.275 0
Al3 Al3+ 4 a 0.4572 0.4572 0.4572 0.001(4) 0.725 0
Si3 Si4+ 4 a 0.4572 0.4572 0.4572 0.001(4) 0.275 0
Al4 Al3+ 4 a 0.6118 0.6118 0.6118 0.001(4) 0.725 0
Si4 Si4+ 4 a 0.6118 0.6118 0.6118 0.001(4) 0.275 0
Al5 Al3+ 12 b -.0143 0.2476 0.2422 0.001(4) 0.725 0
Si5 Si4+ 12 b -.0143 0.2476 0.2422 0.001(4) 0.275 0
Al6 Al3+ 12 b 0.019 0.788 0.75 0.001(4) 0.725 0
Si6 Si4+ 12 b 0.019 0.788 0.75 0.001(4) 0.275 0
Al7 Al3+ 12 b 0.3618 0.6118 0.3618 0.001(4) 0.725 0
Si7 Si4+ 12 b 0.3618 0.6118 0.3618 0.001(4) 0.275 0
Al8 Al3+ 12 b 0.8998 0.1498 0.8998 0.001(4) 0.725 0
Si8 Si4+ 12 b 0.8998 0.1498 0.8998 0.001(4) 0.275 0
Na1 Na1+ 4 a 0.264(1) 0.264(1) 0.264(1) 0.001(4) 0.725 0
Na2 Na1+ 4 a 0.375 0.375 0.375 0.001(4) 0.275 0
Na3 Na1+ 4 a 0.736(1) 0.736(1) 0.736(1) 0.001(4) 0.725 0
Na4 Na1+ 4 a 0.875 0.875 0.875 0.001(4) 0.275 0
Na5 Na1+ 12 b 0.231(3) 0.488(3) 0.484(3) 0.001(4) 1.21 0
Na6 Na1+ 12 b 0.25 0 0 0.001(4) 0.24 0
Na7 Na1+ 12 b 0.121(4) 0.371(5) 0.097(2) 0.001(4) 0.967 0
Na8 Na1+ 12 b 0.644(3) 0.867(4) 0.639(4) 0.001(4) 0.967 0
O1 O2- 4 a 0.0815 0.0815 0.0815 0.001(4) 1. 0
O2 O2- 12 b 0.0815 -.0815 -.0055 0.001(4) 1. 0
O3 O2- 4 a 0.5435 0.5435 0.5435 0.001(4) 1. 0
O4 O2- 12 b 0.5435 0.4565 0.3805 0.001(4) 1. 0
O5 O2- 12 b 0.4185 0.1685 0.3315 0.001(4) 1. 0
O6 O2- 12 b -.0435 0.7065 0.7935 0.001(4) 1. 0
O7 O2- 12 b 0.2445 0.0815 0.1685 0.001(4) 1. 0
O8 O2- 12 b 0.6305 0.5435 0.7065 0.001(4) 1. 0
O9 O2- 12 b 0.0055 0.3315 0.3315 0.001(4) 1. 0
O10 O2- 12 b 0.0815 0.7445 0.6685 0.001(4) 1. 0
O11 O2- 12 b -.1195 0.2065 0.2935 0.001(4) 1. 0
O12 O2- 12 b -.0435 0.8695 0.7065 0.001(4) 1. 0
#End of TTdata_280475-ICSD