
#(C) 2019 by FIZ Karlsruhe - Leibniz Institute for Information Infrastructure.  All rights reserved.
data_280581-ICSD
_database_code_ICSD 280581
_audit_creation_date 2002-04-01
_chemical_name_systematic 'Tetrasodium tricarbonatodioxouranate'
_chemical_formula_structural 'Na4 (U O2 (C O3)3)'
_chemical_formula_sum 'C3 Na4 O11 U1'
_exptl_crystal_density_diffrn 3.72
_publ_section_title 'Trigonal Na4 (U O2 (C O3)3)'
loop_
_citation_id
_citation_journal_full
_citation_year
_citation_journal_volume
_citation_page_first
_citation_page_last
_citation_journal_id_ASTM
primary 'Acta Crystallographica, Section E: Structure Reports Online' 2001 57 32
34 ACSEBH
loop_
_publ_author_name
'Cisarova, I.'
'Skala, R.'
'Ondrus, P.'
'Drabek, M.'
_cell_length_a 9.3380(2)
_cell_length_b 9.3380(2)
_cell_length_c 12.8170(3)
_cell_angle_alpha 90.
_cell_angle_beta 90.
_cell_angle_gamma 120.
_cell_volume 967.89
_cell_formula_units_Z 4
_symmetry_space_group_name_H-M 'P -3 c 1'
_symmetry_Int_Tables_number 165
_refine_ls_R_factor_all 0.0295
loop_
_symmetry_equiv_pos_site_id
_symmetry_equiv_pos_as_xyz
1 'x-y, -y, -z+1/2'
2 '-x, -x+y, -z+1/2'
3 'y, x, -z+1/2'
4 'x-y, x, -z'
5 'y, -x+y, -z'
6 '-x, -y, -z'
7 '-x+y, y, z+1/2'
8 'x, x-y, z+1/2'
9 '-y, -x, z+1/2'
10 '-x+y, -x, z'
11 '-y, x-y, z'
12 'x, y, z'
loop_
_atom_type_symbol
_atom_type_oxidation_number
U6+ 6
Na1+ 1
C4+ 4
O2- -2
loop_
_atom_site_label
_atom_site_type_symbol
_atom_site_symmetry_multiplicity
_atom_site_Wyckoff_symbol
_atom_site_fract_x
_atom_site_fract_y
_atom_site_fract_z
_atom_site_B_iso_or_equiv
_atom_site_occupancy
_atom_site_attached_hydrogens
U1 U6+ 4 d 0.3333 0.6667 0.13022(2) . 1. 0
Na1 Na1+ 2 b 0 0 0 . 1. 0
Na2 Na1+ 2 a 0 0 0.25 . 1. 0
Na3 Na1+ 12 g -.1233(3) 0.5688(2) 0.12367(17) . 1. 0
C1 C4+ 12 g 0.0741(6) 0.3279(5) 0.1280(3) . 1. 0
O1 O2- 12 g 0.0462(5) 0.4509(4) 0.1186(3) . 1. 0
O2 O2- 12 g 0.2299(5) 0.3771(5) 0.1436(3) . 1. 0
O3 O2- 12 g -.0358(4) 0.1805(4) 0.1219(3) . 1. 0
O4 O2- 4 d 0.3333 0.6667 0.2714(6) . 1. 0
O5 O2- 4 d 0.3333 0.6667 -.0110(6) . 1. 0
loop_
_atom_site_aniso_label
_atom_site_aniso_type_symbol
_atom_site_aniso_U_11
_atom_site_aniso_U_22
_atom_site_aniso_U_33
_atom_site_aniso_U_12
_atom_site_aniso_U_13
_atom_site_aniso_U_23
U1 U6+ 0.0117(3) 0.011 0.0136(2) 0.005 0 0
Na1 Na1+ 0.021(2) 0.021 0.024(3) 0.01 0 0
Na2 Na1+ 0.025(3) 0.023 0.020(3) 0.012 0 0
Na3 Na1+ 0.0174(10) 0.0182(10) 0.0522(13) 0.0085(9) -.0029(9) 0.0014(9)
C1 C4+ 0.014(2) 0.014(2) 0.021(2) 0.0051(18) 0.0039(17) 0.0022(17)
O1 O2- 0.0211(18) 0.0138(17) 0.048(2) 0.0092(14) 0.0001(16) 0.0017(15)
O2 O2- 0.0125(16) 0.0139(17) 0.057(2) 0.0058(14) 0.0012(16) 0.0022(17)
O3 O2- 0.0149(17) 0.0122(16) 0.040(2) 0.0042(14) 0.0005(14) -.0015(14)
O4 O2- 0.023(3) 0.025 0.022(3) 0.012 0 0
O5 O2- 0.026(4) 0.024 0.013(3) 0.012 0 0
#End of TTdata_280581-ICSD