
#(C) 2018 by FIZ Karlsruhe - Leibniz Institute for Information Infrastructure.  All rights reserved.
data_280588-ICSD
_database_code_ICSD 280588
_audit_creation_date 2002-04-01
_chemical_name_systematic 'Dilithium hexahydroxostannate'
_chemical_formula_structural 'Li2 (Sn (O H)6)'
_chemical_formula_sum 'H6 Li2 O6 Sn1'
_exptl_crystal_density_diffrn 3.02
_publ_section_title 'Li2 Sn (O H)6'
loop_
_citation_id
_citation_journal_full
_citation_year
_citation_journal_volume
_citation_page_first
_citation_page_last
_citation_journal_id_ASTM
primary 'Acta Crystallographica, Section C: Crystal Structure Communications'
2001 57 228 229 ACSCEE
loop_
_publ_author_name
'Yang, S.-F.'
'Zavalii, P.Yu.'
'Whittingham, M.S.'
_cell_length_a 5.1640(6)
_cell_length_b 5.4013(7)
_cell_length_c 9.2982(11)
_cell_angle_alpha 90.
_cell_angle_beta 96.596(2)
_cell_angle_gamma 90.
_cell_volume 257.63
_cell_formula_units_Z 2
_symmetry_space_group_name_H-M 'P 1 21/n 1'
_symmetry_Int_Tables_number 14
_refine_ls_R_factor_all 0.019
loop_
_symmetry_equiv_pos_site_id
_symmetry_equiv_pos_as_xyz
1 '-x+1/2, y+1/2, -z+1/2'
2 '-x, -y, -z'
3 'x+1/2, -y+1/2, z+1/2'
4 'x, y, z'
loop_
_atom_type_symbol
_atom_type_oxidation_number
Sn4+ 4
O2- -2
Li1+ 1
H1+ 1
loop_
_atom_site_label
_atom_site_type_symbol
_atom_site_symmetry_multiplicity
_atom_site_Wyckoff_symbol
_atom_site_fract_x
_atom_site_fract_y
_atom_site_fract_z
_atom_site_B_iso_or_equiv
_atom_site_occupancy
_atom_site_attached_hydrogens
Sn1 Sn4+ 2 d 0 0.5 0.5 . 1. 0
O1 O2- 4 e 0.2180(4) 0.6013(4) 0.3381(2) . 1. 0
O2 O2- 4 e 0.2822(4) 0.2304(4) 0.5395(2) . 1. 0
O3 O2- 4 e 0.2221(4) 0.7324(3) 0.6360(2) . 1. 0
Li1 Li1+ 4 e 0.0964(9) 0.7626(9) 0.1589(5) . 1. 0
H1 H1+ 4 e 0.318(7) 0.659(7) 0.367(4) 0.024(11) 1. 0
H2 H1+ 4 e 0.246(6) 0.122(6) 0.547(4) 0.011(10) 1. 0
H3 H1+ 4 e 0.183(6) 0.747(6) 0.707(4) 0.026(10) 1. 0
loop_
_atom_site_aniso_label
_atom_site_aniso_type_symbol
_atom_site_aniso_U_11
_atom_site_aniso_U_22
_atom_site_aniso_U_33
_atom_site_aniso_U_12
_atom_site_aniso_U_13
_atom_site_aniso_U_23
Sn1 Sn4+ 0.00971(17) 0.00941(17) 0.00917(17) 0.00009(8) 0.00158(9) 0.00036(8)
O1 O2- 0.0136(10) 0.0166(11) 0.0124(9) -.0030(9) 0.0024(8) 0.0012(8)
O2 O2- 0.0162(10) 0.0087(10) 0.0208(11) 0.0009(8) 0.0023(8) 0.0023(9)
O3 O2- 0.0164(10) 0.0165(10) 0.0114(10) -.0036(7) 0.0035(7) -.0036(8)
Li1 Li1+ 0.014(2) 0.023(2) 0.021(2) -.0016(19) 0.0027(18) 0.002(2)
#End of TTdata_280588-ICSD