
#(C) 2019 by FIZ Karlsruhe - Leibniz Institute for Information Infrastructure.  All rights reserved.
data_280652-ICSD
_database_code_ICSD 280652
_audit_creation_date 2002-04-01
_chemical_name_systematic 'Sodium vanadium oxide (0.28/2/5) - beta'
_chemical_formula_structural 'Na0.282 V2 O5'
_chemical_formula_sum 'Na0.282 O5 V2'
_chemical_name_structure_type NaxV2O5
_exptl_crystal_density_diffrn 3.57
_cell_measurement_temperature 9.6
_publ_section_title
'Electron density in the sodium vanadium oxide bronze beta-(Nax V2 O5) at 9 K'
loop_
_citation_id
_citation_journal_full
_citation_year
_citation_journal_volume
_citation_page_first
_citation_page_last
_citation_journal_id_ASTM
primary 'Acta Crystallographica, Section B: Structural Science' 2001 57 244 250
ASBSDK
loop_
_publ_author_name
'Ozerov, R.P.'
'Strel'tsov, V.A. (Streltsov, V.A.)'
'Sobolev, A.N.'
'Figgis, B.N.'
'Volkov, V.L.'
_cell_length_a 15.3500(1)
_cell_length_b 3.6115(4)
_cell_length_c 10.058(1)
_cell_angle_alpha 90.
_cell_angle_beta 109.560(7)
_cell_angle_gamma 90.
_cell_volume 525.4
_cell_formula_units_Z 6
_symmetry_space_group_name_H-M 'C 1 2/m 1'
_symmetry_Int_Tables_number 12
_refine_ls_R_factor_all 0.016
loop_
_symmetry_equiv_pos_site_id
_symmetry_equiv_pos_as_xyz
1 '-x, y, -z'
2 '-x, -y, -z'
3 'x, -y, z'
4 'x, y, z'
5 '-x+1/2, y+1/2, -z'
6 '-x+1/2, -y+1/2, -z'
7 'x+1/2, -y+1/2, z'
8 'x+1/2, y+1/2, z'
loop_
_atom_type_symbol
_atom_type_oxidation_number
V4+ 4.859
Na1+ 1
O2- -2
loop_
_atom_site_label
_atom_site_type_symbol
_atom_site_symmetry_multiplicity
_atom_site_Wyckoff_symbol
_atom_site_fract_x
_atom_site_fract_y
_atom_site_fract_z
_atom_site_B_iso_or_equiv
_atom_site_occupancy
_atom_site_attached_hydrogens
V1 V4+ 4 i 0.33784(1) 0 0.10004(1) . 1. 0
V2 V4+ 4 i 0.11655(1) 0 0.11992(2) . 1. 0
V3 V4+ 4 i 0.28811(1) 0 0.40992(2) . 1. 0
Na1 Na1+ 4 i 0.0010(1) 0 0.4031(1) . 0.423 0
O1 O2- 2 a 0 0 0 . 1. 0
O2 O2- 4 i 0.1856(1) 0 -.0549(1) . 1. 0
O3 O2- 4 i 0.36577(3) 0 -.07900(5) . 1. 0
O4 O2- 4 i 0.43750(4) 0 0.21868(6) . 1. 0
O5 O2- 4 i 0.26336(4) 0 0.22320(5) . 1. 0
O6 O2- 4 i 0.10644(4) 0 0.27384(6) . 1. 0
O7 O2- 4 i 0.24317(3) 0 0.57449(5) . 1. 0
O8 O2- 4 i 0.39856(4) 0 0.47136(5) . 1. 0
loop_
_atom_site_aniso_label
_atom_site_aniso_type_symbol
_atom_site_aniso_U_11
_atom_site_aniso_U_22
_atom_site_aniso_U_33
_atom_site_aniso_U_12
_atom_site_aniso_U_13
_atom_site_aniso_U_23
V1 V4+ 0.00436(3) 0.00401(4) 0.00423(3) 0 0.00158(3) 0
V2 V4+ 0.00713(4) 0.00393(4) 0.00506(4) 0 0.00310(3) 0
V3 V4+ 0.00480(4) 0.00405(4) 0.00422(3) 0 0.00199(3) 0
Na1 Na1+ 0.0074(2) 0.0066(3) 0.0073(2) 0 0.0022(2) 0
O1 O2- 0.0050(2) 0.0066(2) 0.0085(2) 0 0.0007(2) 0
O2 O2- 0.0077(2) 0.0048(2) 0.0068(2) 0 0.0027(1) 0
O3 O2- 0.0066(2) 0.0045(2) 0.0053(1) 0 0.0023(1) 0
O4 O2- 0.0055(2) 0.0149(2) 0.0063(2) 0 0.0011(1) 0
O5 O2- 0.0055(1) 0.0063(2) 0.0046(1) 0 0.0020(1) 0
O6 O2- 0.0077(2) 0.0077(2) 0.0054(2) 0 0.0028(1) 0
O7 O2- 0.0087(2) 0.0040(2) 0.0064(1) 0 0.0039(1) 0
O8 O2- 0.0056(2) 0.0118(2) 0.0069(2) 0 0.0017(1) 0
#End of TTdata_280652-ICSD