
#(C) 2019 by FIZ Karlsruhe - Leibniz Institute for Information Infrastructure.  All rights reserved.
data_2807-ICSD
_database_code_ICSD 2807
_audit_creation_date 1980-01-01
_audit_update_record 2011-02-01
_chemical_name_systematic 'Barium sodium cyclo-triphosphate(V)'
_chemical_formula_structural 'Ba Na (P3 O9)'
_chemical_formula_sum 'Ba1 Na1 O9 P3'
_chemical_name_structure_type NaBaP3O9
_exptl_crystal_density_diffrn 3.36
_publ_section_title
'Structure cristalline du trimetaphosphate de baryum sodium Ba Na P3 O9'
loop_
_citation_id
_citation_journal_full
_citation_year
_citation_journal_volume
_citation_page_first
_citation_page_last
_citation_journal_id_ASTM
primary

;
Acta Crystallographica, Section B: Structural Crystallography and Crystal
Chemistry
; 1972 28 2348 2352 ACBCAR
loop_
_publ_author_name
'Martin, C.'
'Mitschler, A.'
_cell_length_a 11.055(5)
_cell_length_b 12.278(5)
_cell_length_c 5.785(2)
_cell_angle_alpha 90.
_cell_angle_beta 90.
_cell_angle_gamma 90.
_cell_volume 785.22
_cell_formula_units_Z 4
_symmetry_space_group_name_H-M 'P 21 21 21'
_symmetry_Int_Tables_number 19
_refine_ls_R_factor_all 0.072
loop_
_symmetry_equiv_pos_site_id
_symmetry_equiv_pos_as_xyz
1 '-x, y+1/2, -z+1/2'
2 'x+1/2, -y+1/2, -z'
3 '-x+1/2, -y, z+1/2'
4 'x, y, z'
loop_
_atom_type_symbol
_atom_type_oxidation_number
Ba2+ 2
P5+ 5
Na1+ 1
O2- -2
loop_
_atom_site_label
_atom_site_type_symbol
_atom_site_symmetry_multiplicity
_atom_site_Wyckoff_symbol
_atom_site_fract_x
_atom_site_fract_y
_atom_site_fract_z
_atom_site_B_iso_or_equiv
_atom_site_occupancy
_atom_site_attached_hydrogens
Ba1 Ba2+ 4 a 0.10795(7) 0.08074(6) 0.09851(15) . 1. 0
P1 P5+ 4 a 0.41337(26) 0.37096(24) 0.38484(67) . 1. 0
P2 P5+ 4 a 0.29921(28) 0.18628(24) 0.59047(72) . 1. 0
P3 P5+ 4 a 0.15261(29) 0.35757(24) 0.39566(76) . 1. 0
Na1 Na1+ 4 a 0.47643(56) 0.13571(44) 0.1016(13) . 1. 0
O1 O2- 4 a 0.27942(76) 0.42092(78) 0.3886(20) . 1. 0
O2 O2- 4 a 0.1804(8) 0.26217(7) 0.5799(20) . 1. 0
O3 O2- 4 a 0.40432(80) 0.27687(61) 0.5850(18) . 1. 0
O4 O2- 4 a 0.49922(90) 0.45220(76) 0.4784(22) . 1. 0
O5 O2- 4 a 0.44052(92) 0.31929(80) 0.1548(18) . 1. 0
O6 O2- 4 a 0.30272(95) 0.11538(77) 0.3832(21) . 1. 0
O7 O2- 4 a 0.30708(94) 0.13062(87) 0.8200(19) . 1. 0
O8 O2- 4 a 0.12975(90) 0.30633(84) 0.1622(20) . 1. 0
O9 O2- 4 a 0.06234(90) 0.43027(82) 0.5069(20) . 1. 0
loop_
_atom_site_aniso_label
_atom_site_aniso_type_symbol
_atom_site_aniso_beta_11
_atom_site_aniso_beta_22
_atom_site_aniso_beta_33
_atom_site_aniso_beta_12
_atom_site_aniso_beta_13
_atom_site_aniso_beta_23
Ba1 Ba2+ 0.00263(4) 0.00143(3) 0.01017(16) -.00013(4) -.00031(10) 0.00014(9)
P1 P5+ 0.00193(20) 0.00118(14) 0.00891(80) -.00016(13) 0.00012(38) -.00029(34)
P2 P5+ 0.00263(21) 0.00117(14) 0.00795(77) -.00018(14) -.00041(46) 0.00062(39)
P3 P5+ 0.00239(20) 0.00123(15) 0.00951(80) 0.00030(14) -.00023(46) -.00029(40)
Na1 Na1+ 0.00530(47) 0.00195(28) 0.0165(17) 0.00007(31) 0.0020(10) 0.00107(86)
O1 O2- 0.00245(54) 0.00159(42) 0.0167(27) -.00024(48) 0.00081(48) 0.0001(15)
O2 O2- 0.00298(64) 0.00182(47) 0.0144(29) 0.00032(45) 0.0018(14) 0.0003(12)
O3 O2- 0.00297(65) 0.00102(37) 0.0099(23) -.00070(42) -0.0004(14) 0.00051(95)
O4 O2- 0.00228(66) 0.00209(51) 0.0181(33) -.00062(51) -0.0011(13) -0.0007(12)
O5 O2- 0.00370(73) 0.00182(51) 0.0104(28) 0.00061(52) 0.0019(12) 0.00136(99)
O6 O2- 0.00363(74) 0.00166(47) 0.0138(31) -.00030(48) -0.0020(15) 0.0004(12)
O7 O2- 0.00324(47) 0.00253(59) 0.0074(23) -.00020(57) -0.0004(11) 0.0016(11)
O8 O2- 0.00366(82) 0.00229(54) 0.0132(30) -.00027(53) -0.0020(12) 0.0001(11)
O9 O2- 0.00335(70) 0.00225(59) 0.0158(29) 0.00106(54) 0.0032(13) -0.0003(12)
#End of TTdata_2807-ICSD