
#(C) 2019 by FIZ Karlsruhe - Leibniz Institute for Information Infrastructure.  All rights reserved.
data_280946-ICSD
_database_code_ICSD 280946
_audit_creation_date 2003-04-01
_chemical_name_systematic 'Trisodium dichromium tris(arsenate(V))'
_chemical_formula_structural 'Na3 Cr2 (As O4)3'
_chemical_formula_sum 'As3 Cr2 Na3 O12'
_chemical_name_structure_type Garnet-Ca3Al2Si3O12
_exptl_crystal_density_diffrn 4.33
_publ_section_title 'Na3 Cr2 (As O4)3 : trisodium dichromium(III) triarsenate'
loop_
_citation_id
_citation_journal_full
_citation_year
_citation_journal_volume
_citation_page_first
_citation_page_last
_citation_journal_id_ASTM
primary 'Acta Crystallographica, Section E: Structure Reports Online' 2002 58
117 118 ACSEBH
loop_
_publ_author_name
'Bouzemi, B.'
'Boughzala, H.'
'Jouini, T.'
_cell_length_a 12.188(2)
_cell_length_b 12.188(2)
_cell_length_c 12.188(2)
_cell_angle_alpha 90.
_cell_angle_beta 90.
_cell_angle_gamma 90.
_cell_volume 1810.5
_cell_formula_units_Z 8
_symmetry_space_group_name_H-M 'I a -3 d'
_symmetry_Int_Tables_number 230
_refine_ls_R_factor_all 0.019
loop_
_symmetry_equiv_pos_site_id
_symmetry_equiv_pos_as_xyz
1 '-z+3/4, y+1/4, x+3/4'
2 'z+3/4, -y+3/4, x+1/4'
3 'z+1/4, y+3/4, -x+3/4'
4 '-z+1/4, -y+1/4, -x+1/4'
5 'y+1/4, x+3/4, -z+3/4'
6 '-y+3/4, x+1/4, z+3/4'
7 'y+3/4, -x+3/4, z+1/4'
8 '-y+1/4, -x+1/4, -z+1/4'
9 'x+3/4, -z+3/4, y+1/4'
10 'x+1/4, z+3/4, -y+3/4'
11 '-x+3/4, z+1/4, y+3/4'
12 '-x+1/4, -z+1/4, -y+1/4'
13 'z+3/4, -y+1/4, -x+3/4'
14 '-z+3/4, y+3/4, -x+1/4'
15 '-z+1/4, -y+3/4, x+3/4'
16 'z+1/4, y+1/4, x+1/4'
17 '-y+1/4, -x+3/4, z+3/4'
18 'y+3/4, -x+1/4, -z+3/4'
19 '-y+3/4, x+3/4, -z+1/4'
20 'y+1/4, x+1/4, z+1/4'
21 '-x+3/4, z+3/4, -y+1/4'
22 '-x+1/4, -z+3/4, y+3/4'
23 'x+3/4, -z+1/4, -y+3/4'
24 'x+1/4, z+1/4, y+1/4'
25 '-z+1/2, x+1/2, y'
26 'z+1/2, x, -y+1/2'
27 'z, -x+1/2, y+1/2'
28 '-z, -x, -y'
29 'y, -z+1/2, x+1/2'
30 '-y+1/2, z+1/2, x'
31 'y+1/2, z, -x+1/2'
32 '-y, -z, -x'
33 'x+1/2, y, -z+1/2'
34 'x, -y+1/2, z+1/2'
35 '-x+1/2, y+1/2, z'
36 '-x, -y, -z'
37 'z+1/2, -x+1/2, -y'
38 '-z+1/2, -x, y+1/2'
39 '-z, x+1/2, -y+1/2'
40 'z, x, y'
41 '-y, z+1/2, -x+1/2'
42 'y+1/2, -z+1/2, -x'
43 '-y+1/2, -z, x+1/2'
44 'y, z, x'
45 '-x+1/2, -y, z+1/2'
46 '-x, y+1/2, -z+1/2'
47 'x+1/2, -y+1/2, -z'
48 'x, y, z'
49 '-z+1/4, y+3/4, x+1/4'
50 'z+1/4, -y+1/4, x+3/4'
51 'z+3/4, y+1/4, -x+1/4'
52 '-z+3/4, -y+3/4, -x+3/4'
53 'y+3/4, x+1/4, -z+1/4'
54 '-y+1/4, x+3/4, z+1/4'
55 'y+1/4, -x+1/4, z+3/4'
56 '-y+3/4, -x+3/4, -z+3/4'
57 'x+1/4, -z+1/4, y+3/4'
58 'x+3/4, z+1/4, -y+1/4'
59 '-x+1/4, z+3/4, y+1/4'
60 '-x+3/4, -z+3/4, -y+3/4'
61 'z+1/4, -y+3/4, -x+1/4'
62 '-z+1/4, y+1/4, -x+3/4'
63 '-z+3/4, -y+1/4, x+1/4'
64 'z+3/4, y+3/4, x+3/4'
65 '-y+3/4, -x+1/4, z+1/4'
66 'y+1/4, -x+3/4, -z+1/4'
67 '-y+1/4, x+1/4, -z+3/4'
68 'y+3/4, x+3/4, z+3/4'
69 '-x+1/4, z+1/4, -y+3/4'
70 '-x+3/4, -z+1/4, y+1/4'
71 'x+1/4, -z+3/4, -y+1/4'
72 'x+3/4, z+3/4, y+3/4'
73 '-z, x, y+1/2'
74 'z, x+1/2, -y'
75 'z+1/2, -x, y'
76 '-z+1/2, -x+1/2, -y+1/2'
77 'y+1/2, -z, x'
78 '-y, z, x+1/2'
79 'y, z+1/2, -x'
80 '-y+1/2, -z+1/2, -x+1/2'
81 'x, y+1/2, -z'
82 'x+1/2, -y, z'
83 '-x, y, z+1/2'
84 '-x+1/2, -y+1/2, -z+1/2'
85 'z, -x, -y+1/2'
86 '-z, -x+1/2, y'
87 '-z+1/2, x, -y'
88 'z+1/2, x+1/2, y+1/2'
89 '-y+1/2, z, -x'
90 'y, -z, -x+1/2'
91 '-y, -z+1/2, x'
92 'y+1/2, z+1/2, x+1/2'
93 '-x, -y+1/2, z'
94 '-x+1/2, y, -z'
95 'x, -y, -z+1/2'
96 'x+1/2, y+1/2, z+1/2'
loop_
_atom_type_symbol
_atom_type_oxidation_number
As5+ 5
Cr3+ 3
Na1+ 1
O2- -2
loop_
_atom_site_label
_atom_site_type_symbol
_atom_site_symmetry_multiplicity
_atom_site_Wyckoff_symbol
_atom_site_fract_x
_atom_site_fract_y
_atom_site_fract_z
_atom_site_B_iso_or_equiv
_atom_site_occupancy
_atom_site_attached_hydrogens
As1 As5+ 24 d 0.375 0 0.25 0.00339(18) 1. 0
Cr1 Cr3+ 16 a 0.25 0.25 0.25 0.0034(2) 1. 0
Na1 Na1+ 24 c 0.125 0 0.25 0.0112(4) 1. 0
O1 O2- 96 h 0.28819(14) -.09814(12) 0.29743(13) 0.0064(3) 1. 0
loop_
_atom_site_aniso_label
_atom_site_aniso_type_symbol
_atom_site_aniso_U_11
_atom_site_aniso_U_22
_atom_site_aniso_U_33
_atom_site_aniso_U_12
_atom_site_aniso_U_13
_atom_site_aniso_U_23
As1 As5+ 0.0037(2) 0.0032(2) 0.0032(2) 0 0 0
Cr1 Cr3+ 0.0034(2) 0.0034(2) 0.0034(2) 0.00020(16) 0.00020(16) 0.00020(16)
Na1 Na1+ 0.0064(9) 0.0136(6) 0.0136(6) 0 0 0.0011(7)
O1 O2- 0.0076(8) 0.0046(7) 0.0071(8) -0.0016(6) 0.0017(6) 0.0002(5)
#End of TTdata_280946-ICSD