
#(C) 2019 by FIZ Karlsruhe - Leibniz Institute for Information Infrastructure.  All rights reserved.
data_280935-ICSD
_database_code_ICSD 280935
_audit_creation_date 2003-04-01
_audit_update_record 2005-10-01
_chemical_name_systematic 'Sodium silver copper diphosphate(V)  (1.12/0.88/1/1)'
_chemical_formula_structural '(Na1.12 Ag0.88) Cu (P2 O7)'
_chemical_formula_sum 'Ag0.88 Cu1 Na1.12 O7 P2'
_chemical_name_structure_type Na2PdP2O7
_exptl_crystal_density_diffrn 3.81
_publ_section_title

;
Sodium silver tricobalt bis(diphosphate) and sodium silver copper(II)
diphosphate
;
loop_
_citation_id
_citation_journal_full
_citation_year
_citation_journal_volume
_citation_page_first
_citation_page_last
_citation_journal_id_ASTM
primary 'Acta Crystallographica, Section C: Crystal Structure Communications'
2002 58 i87 i89 ACSCEE
loop_
_publ_author_name
'Bennazha, J.'
'Boukhari, A.'
'Holt, E.M.'
_cell_length_a 15.088(2)
_cell_length_b 5.641(1)
_cell_length_c 8.171(1)
_cell_angle_alpha 90.
_cell_angle_beta 116.11(1)
_cell_angle_gamma 90.
_cell_volume 624.48
_cell_formula_units_Z 4
_symmetry_space_group_name_H-M 'C 1 2/c 1'
_symmetry_Int_Tables_number 15
_refine_ls_R_factor_all 0.049
loop_
_symmetry_equiv_pos_site_id
_symmetry_equiv_pos_as_xyz
1 'x, -y, z+1/2'
2 '-x, -y, -z'
3 '-x, y, -z+1/2'
4 'x, y, z'
5 'x+1/2, -y+1/2, z+1/2'
6 '-x+1/2, -y+1/2, -z'
7 '-x+1/2, y+1/2, -z+1/2'
8 'x+1/2, y+1/2, z'
loop_
_atom_type_symbol
_atom_type_oxidation_number
Cu2+ 2
Ag1+ 1
Na1+ 1
P5+ 5
O2- -2
loop_
_atom_site_label
_atom_site_type_symbol
_atom_site_symmetry_multiplicity
_atom_site_Wyckoff_symbol
_atom_site_fract_x
_atom_site_fract_y
_atom_site_fract_z
_atom_site_B_iso_or_equiv
_atom_site_occupancy
_atom_site_attached_hydrogens
Cu1 Cu2+ 4 a 0 0 0 0.0303(3) 1. 0
Ag1 Ag1+ 8 f 0.76835(7) 0.14209(15) 0.70370(11) 0.0396(4) 0.438(3) 0
Na1 Na1+ 8 f 0.76835(7) 0.14209(15) 0.70370(11) 0.0396(4) 0.562(3) 0
P1 P5+ 8 f 0.89677(11) 0.3398(2) 0.15609(16) 0.0268(4) 1. 0
O11 O2- 8 f 0.8986(4) 0.2075(8) -.0035(5) 0.0393(11) 1. 0
O12 O2- 8 f 0.8145(4) 0.5159(7) 0.0995(5) 0.0343(10) 1. 0
O13 O2- 8 f 0.8952(4) 0.1683(7) 0.2993(5) 0.0344(10) 1. 0
O14 O2- 4 e 0 0.4827(9) 0.25 0.0318(13) 1. 0
loop_
_atom_site_aniso_label
_atom_site_aniso_type_symbol
_atom_site_aniso_U_11
_atom_site_aniso_U_22
_atom_site_aniso_U_33
_atom_site_aniso_U_12
_atom_site_aniso_U_13
_atom_site_aniso_U_23
Cu1 Cu2+ 0.0349(6) 0.0289(5) 0.0130(4) -0.0027(4) -0.0025(4) -0.0076(3)
Ag1 Ag1+ 0.0449(6) 0.0363(5) 0.0192(4) -0.0047(3) -0.0028(4) -0.0021(3)
Na1 Na1+ 0.0449(6) 0.0363(5) 0.0192(4) -0.0047(3) -0.0028(4) -0.0021(3)
P1 P5+ 0.0330(7) 0.0206(6) 0.0102(6) 0.0018(4) -0.0056(5) 0.0006(4)
O11 O2- 0.041(2) 0.040(2) 0.0168(16) 0.0048(18) -0.0062(16) -0.0137(16)
O12 O2- 0.035(2) 0.0271(18) 0.0223(18) 0.0064(15) -0.0041(16) 0.0010(13)
O13 O2- 0.036(2) 0.032(2) 0.0201(17) 0.0008(15) -0.0008(16) 0.0144(14)
O14 O2- 0.039(3) 0.025(2) 0.0093(18) 0 -0.0095(19) 0
#End of TTdata_280935-ICSD