
#(C) 2019 by FIZ Karlsruhe - Leibniz Institute for Information Infrastructure.  All rights reserved.
data_280941-ICSD
_database_code_ICSD 280941
_audit_creation_date 2003-04-01
_chemical_name_systematic 'Disodium selenate(IV)'
_chemical_formula_structural 'Na2 (Se O3)'
_chemical_formula_sum 'Na2 O3 Se1'
_chemical_name_structure_type Ag2SeO3
_exptl_crystal_density_diffrn 3.41
_publ_section_title 'Sodium selenite, Na2 Se O3'
loop_
_citation_id
_citation_journal_full
_citation_year
_citation_journal_volume
_citation_page_first
_citation_page_last
_citation_journal_id_ASTM
primary 'Acta Crystallographica, Section E: Structure Reports Online' 2002 58
103 104 ACSEBH
loop_
_publ_author_name
'Wickleder, M.S.'
_cell_length_a 4.9089(13)
_cell_length_b 10.0072(15)
_cell_length_c 6.8535(15)
_cell_angle_alpha 90.
_cell_angle_beta 91.11(3)
_cell_angle_gamma 90.
_cell_volume 336.61
_cell_formula_units_Z 4
_symmetry_space_group_name_H-M 'P 1 21/c 1'
_symmetry_Int_Tables_number 14
_refine_ls_R_factor_all 0.031
loop_
_symmetry_equiv_pos_site_id
_symmetry_equiv_pos_as_xyz
1 'x, -y+1/2, z+1/2'
2 '-x, -y, -z'
3 '-x, y+1/2, -z+1/2'
4 'x, y, z'
loop_
_atom_type_symbol
_atom_type_oxidation_number
Na1+ 1
Se4+ 4
O2- -2
loop_
_atom_site_label
_atom_site_type_symbol
_atom_site_symmetry_multiplicity
_atom_site_Wyckoff_symbol
_atom_site_fract_x
_atom_site_fract_y
_atom_site_fract_z
_atom_site_B_iso_or_equiv
_atom_site_occupancy
_atom_site_attached_hydrogens
Na1 Na1+ 4 e 0.2431(4) 0.7470(3) 0.4151(3) 0.0190(5) 1. 0
Na2 Na1+ 4 e 0.7397(4) 0.9133(3) 0.6526(3) 0.0179(5) 1. 0
Se1 Se4+ 4 e 0.77619(10) 0.91566(6) 0.18757(7) 0.01143(17) 1. 0
O1 O2- 4 e 0.7517(7) 1.0567(4) 0.3253(6) 0.0163(8) 1. 0
O2 O2- 4 e 0.7152(8) 0.7920(4) 0.3523(5) 0.0169(9) 1. 0
O3 O2- 4 e 1.1158(7) 0.8996(4) 0.1645(5) 0.0169(8) 1. 0
loop_
_atom_site_aniso_label
_atom_site_aniso_type_symbol
_atom_site_aniso_U_11
_atom_site_aniso_U_22
_atom_site_aniso_U_33
_atom_site_aniso_U_12
_atom_site_aniso_U_13
_atom_site_aniso_U_23
Na1 Na1+ 0.0183(12) 0.0174(11) 0.0213(11) -0.0018(10) 0.0037(8) 0.0041(12)
Na2 Na1+ 0.0159(11) 0.0148(11) 0.0229(11) -0.0013(10) 0.0011(8) -0.0036(11)
Se1 Se4+ 0.0112(2) 0.0095(3) 0.0136(2) 0.0005(3) 0.00239(15) -0.0002(3)
O1 O2- 0.0131(19) 0.015(2) 0.0213(18) 0.0000(16) 0.0039(14) -0.0016(17)
O2 O2- 0.019(2) 0.013(2) 0.019(2) 0.0006(16) 0.0035(16) 0.0024(15)
O3 O2- 0.0168(19) 0.016(2) 0.0184(18) 0.0017(17) 0.0049(14) 0.0016(16)
#End of TTdata_280941-ICSD