
#(C) 2019 by FIZ Karlsruhe - Leibniz Institute for Information Infrastructure.  All rights reserved.
data_280928-ICSD
_database_code_ICSD 280928
_audit_creation_date 2003-04-01
_audit_update_record 2005-10-01
_chemical_name_systematic
'Sodium hexamanganese(II) bis(diphosphate(V)) triphosphate(V)'
_chemical_formula_structural 'Na Mn6 (P2 O7)2 (P3 O10)'
_chemical_formula_sum 'Mn6 Na1 O24 P7'
_chemical_name_structure_type KMn6P7O24
_exptl_crystal_density_diffrn 3.55
_publ_section_title 'Na Mn6 (P2 O7)2 (P3 O10) and K Cd6 (P2 O7)2 (P3 O10)'
loop_
_citation_id
_citation_journal_full
_citation_year
_citation_journal_volume
_citation_page_first
_citation_page_last
_citation_journal_id_ASTM
primary 'Acta Crystallographica, Section C: Crystal Structure Communications'
2002 58 i76 i78 ACSCEE
loop_
_publ_author_name
'Bennazha, J.'
'El Maadi, A.'
'Boukhari, A.'
'Holt, E.M.'
_cell_length_a 5.345(1)
_cell_length_b 26.620(4)
_cell_length_c 6.559(1)
_cell_angle_alpha 90.
_cell_angle_beta 107.28(1)
_cell_angle_gamma 90.
_cell_volume 891.12
_cell_formula_units_Z 2
_symmetry_space_group_name_H-M 'P 1 21/m 1'
_symmetry_Int_Tables_number 11
_refine_ls_R_factor_all 0.05
loop_
_symmetry_equiv_pos_site_id
_symmetry_equiv_pos_as_xyz
1 'x, -y+1/2, z'
2 '-x, -y, -z'
3 '-x, y+1/2, -z'
4 'x, y, z'
loop_
_atom_type_symbol
_atom_type_oxidation_number
Mn2+ 2
Na1+ 1
Mn2+ 2
P5+ 5
O2- -2
P5+ 5
O2- -2
P5+ 5
O2- -2
P5+ 5
O2- -2
loop_
_atom_site_label
_atom_site_type_symbol
_atom_site_symmetry_multiplicity
_atom_site_Wyckoff_symbol
_atom_site_fract_x
_atom_site_fract_y
_atom_site_fract_z
_atom_site_B_iso_or_equiv
_atom_site_occupancy
_atom_site_attached_hydrogens
Mn1 Mn2+ 4 f 0.20992(17) 0.40187(3) 0.08608(12) 0.00971(18) 1. 0
Mn2 Mn2+ 4 f -.18455(17) 0.45574(3) 0.31467(12) 0.01020(18) 1. 0
Na1 Na1+ 2 e 0.2440(9) 0.25 0.4154(6) 0.0386(11) 1. 0
Mn3 Mn2+ 4 f -.12293(16) 0.31663(3) -.27988(12) 0.00919(18) 1. 0
P1 P5+ 2 e -.5428(4) 0.25 -.0895(3) 0.0075(4) 1. 0
O1 O2- 2 e -.8256(10) 0.25 -.2121(8) 0.0103(11) 1. 0
O2 O2- 2 e -.3548(10) 0.25 -.2206(8) 0.0108(11) 1. 0
O3 O2- 4 f -.4968(7) 0.29644(14) 0.0641(5) 0.0107(7) 1. 0
P2 P5+ 4 f -.2492(3) 0.33186(5) 0.19269(19) 0.0074(3) 1. 0
O4 O2- 4 f -.0646(7) 0.33425(14) 0.0545(5) 0.0121(8) 1. 0
O5 O2- 4 f -.3882(7) 0.38029(13) 0.2080(5) 0.0112(8) 1. 0
O6 O2- 4 f -.1241(7) 0.30570(13) 0.3996(5) 0.0123(8) 1. 0
P3 P5+ 4 f 0.6841(3) 0.60991(5) 0.3844(2) 0.0080(3) 1. 0
O7 O2- 4 f 0.8570(7) 0.59547(14) 0.6035(5) 0.0087(7) 1. 0
O8 O2- 4 f 0.8450(7) 0.62221(14) 0.2346(5) 0.0104(8) 1. 0
O9 O2- 4 f 0.4896(8) 0.65004(16) 0.3883(6) 0.0207(10) 1. 0
O10 O2- 4 f 0.5394(8) 0.55848(15) 0.2919(6) 0.0220(10) 1. 0
P4 P5+ 4 f 0.2898(3) 0.52468(5) 0.2045(2) 0.0072(3) 1. 0
O11 O2- 4 f 0.1278(7) 0.54792(14) -.0028(5) 0.0098(7) 1. 0
O12 O2- 4 f 0.4115(7) 0.47443(14) 0.1743(6) 0.0117(8) 1. 0
O13 O2- 4 f 0.1410(8) 0.52105(14) 0.3676(5) 0.0124(8) 1. 0
loop_
_atom_site_aniso_label
_atom_site_aniso_type_symbol
_atom_site_aniso_U_11
_atom_site_aniso_U_22
_atom_site_aniso_U_33
_atom_site_aniso_U_12
_atom_site_aniso_U_13
_atom_site_aniso_U_23
Mn1 Mn2+ 0.0092(4) 0.0107(4) 0.0089(3) 0.0006(3) 0.0021(3) -0.0005(3)
Mn2 Mn2+ 0.0095(4) 0.0092(4) 0.0090(3) -0.0005(3) 0.0030(3) -0.0006(3)
Na1 Na1+ 0.026(2) 0.054(3) 0.027(2) 0 -0.0044(18) 0
Mn3 Mn2+ 0.0089(4) 0.0133(4) 0.0077(3) 0.0021(3) 0.0016(3) -0.0003(3)
P1 P5+ 0.0071(9) 0.0086(9) 0.0058(8) 0 0.0006(7) 0
O1 O2- 0.006(3) 0.007(2) 0.016(2) 0 -0.001(2) 0
O2 O2- 0.009(3) 0.011(3) 0.014(2) 0 0.005(2) 0
O3 O2- 0.0079(18) 0.0090(17) 0.0147(16) -0.0038(15) 0.0029(15) -0.0053(14)
P2 P5+ 0.0074(6) 0.0078(6) 0.0070(6) -0.0001(5) 0.0024(5) -0.0004(4)
O4 O2- 0.0119(19) 0.015(2) 0.0099(16) -0.0043(16) 0.0041(15) -0.0003(14)
O5 O2- 0.0102(19) 0.0094(18) 0.0144(17) -0.0012(16) 0.0044(16) -0.0007(14)
O6 O2- 0.017(2) 0.0105(19) 0.0101(15) 0.0028(16) 0.0048(16) 0.0016(14)
P3 P5+ 0.0057(6) 0.0109(6) 0.0064(6) -0.0002(5) 0.0005(5) 0.0014(5)
O7 O2- 0.0108(19) 0.0104(17) 0.0047(15) 0.0022(15) 0.0022(15) 0.0001(13)
O8 O2- 0.0117(19) 0.0133(18) 0.0069(15) -0.0029(16) 0.0036(15) 0.0008(14)
O9 O2- 0.023(2) 0.023(2) 0.0177(19) 0.014(2) 0.0084(19) 0.0082(17)
O10 O2- 0.018(2) 0.020(2) 0.023(2) -0.0129(19) -0.0021(19) -0.0029(17)
P4 P5+ 0.0062(6) 0.0081(6) 0.0067(6) -0.0008(5) 0.0007(5) 0.0001(5)
O11 O2- 0.0101(18) 0.0113(18) 0.0092(16) 0.0011(16) 0.0047(15) 0.0015(14)
O12 O2- 0.0090(19) 0.0111(18) 0.0147(17) -0.0005(15) 0.0032(15) -0.0033(14)
O13 O2- 0.015(2) 0.0125(19) 0.0091(16) 0.0024(16) 0.0023(16) 0.0003(14)
#End of TTdata_280928-ICSD