
#(C) 2019 by FIZ Karlsruhe - Leibniz Institute for Information Infrastructure.  All rights reserved.
data_280925-ICSD
_database_code_ICSD 280925
_audit_creation_date 2003-04-01
_audit_update_record 2005-10-01
_chemical_name_systematic 'Sodium gallate - gamma'
_chemical_formula_structural 'Na (Ga O2)'
_chemical_formula_sum 'Ga1 Na1 O2'
_chemical_name_structure_type KGaO2
_exptl_crystal_density_diffrn 3.97
_cell_measurement_temperature 295.
_publ_section_title
'gamma-Sodium gallate: a Rietveld refinement using X-ray powder diffraction'
loop_
_citation_id
_citation_journal_full
_citation_year
_citation_journal_volume
_citation_page_first
_citation_page_last
_citation_journal_id_ASTM
primary 'Acta Crystallographica, Section C: Crystal Structure Communications'
2002 58 i69 i70 ACSCEE
loop_
_publ_author_name
'Villafuerte Castrejon, M.E.'
'Bucio, L.'
'Sanchez-Arjona, A.'
'Duque, J.'
'Pomes, R.'
_cell_length_a 5.3145(2)
_cell_length_b 10.6234(5)
_cell_length_c 14.7782(7)
_cell_angle_alpha 90.
_cell_angle_beta 90.
_cell_angle_gamma 90.
_cell_volume 834.35
_cell_formula_units_Z 16
_symmetry_space_group_name_H-M 'P b c a'
_symmetry_Int_Tables_number 61
_refine_ls_R_factor_all 0.05
loop_
_symmetry_equiv_pos_site_id
_symmetry_equiv_pos_as_xyz
1 'x+1/2, y, -z+1/2'
2 'x, -y+1/2, z+1/2'
3 '-x+1/2, y+1/2, z'
4 '-x, -y, -z'
5 '-x+1/2, -y, z+1/2'
6 '-x, y+1/2, -z+1/2'
7 'x+1/2, -y+1/2, -z'
8 'x, y, z'
loop_
_atom_type_symbol
_atom_type_oxidation_number
Ga3+ 3
Na1+ 1
O2- -2
loop_
_atom_site_label
_atom_site_type_symbol
_atom_site_symmetry_multiplicity
_atom_site_Wyckoff_symbol
_atom_site_fract_x
_atom_site_fract_y
_atom_site_fract_z
_atom_site_B_iso_or_equiv
_atom_site_occupancy
_atom_site_attached_hydrogens
Ga1 Ga3+ 8 c 0.1957(5) 0.0245(3) 0.1874(4) 0.0065(6) 1. 0
Ga2 Ga3+ 8 c 0.3085(6) 0.2767(3) 0.0618(3) 0.0065(6) 1. 0
Na1 Na1+ 8 c 0.717(2) 0.985(1) 0.066(1) 0.0200(10) 1. 0
Na2 Na1+ 8 c 0.815(2) 0.273(1) 0.190(1) 0.0200(10) 1. 0
O1 O2- 8 c 0.640(3) 0.274(1) 0.040(1) 0.0050(10) 1. 0
O2 O2- 8 c 0.212(2) 0.442(1) 0.083(1) 0.0050(10) 1. 0
O3 O2- 8 c 0.225(2) 0.194(2) 0.170(1) 0.0050(10) 1. 0
O4 O2- 8 c 0.134(3) 0.481(1) 0.289(1) 0.0050(10) 1. 0
#End of TTdata_280925-ICSD