
#(C) 2019 by FIZ Karlsruhe - Leibniz Institute for Information Infrastructure.  All rights reserved.
data_281178-ICSD
_database_code_ICSD 281178
_audit_creation_date 2003-10-01
_chemical_name_systematic 'Trisodium ytterbium dicarbonate difluoride'
_chemical_formula_structural 'Na3 Yb (C O3)2 F2'
_chemical_formula_sum 'C2 F2 Na3 O6 Yb1'
_exptl_crystal_density_diffrn 3.91
_cell_measurement_temperature 298.
_publ_section_title

;
Phase stability regions in the (Na2 C O3) - (Yb F3) - (H2 O) system at 190 C.
Crystal structures of two new fluoride carbonates, Na2 Yb (C O3)2 F and Na3 Yb
(C O3)2 F2
;
loop_
_citation_id
_citation_journal_full
_citation_year
_citation_journal_volume
_citation_page_first
_citation_page_last
_citation_journal_id_ASTM
primary 'Solid State Sciences' 2002 4 1367 1375 SSSCFJ
loop_
_publ_author_name
'Ben Ali, A.'
'Maisonneuve, V.'
'Leblanc, M.'
_cell_length_a 7.127(2)
_cell_length_b 29.816(9)
_cell_length_c 6.9280(4)
_cell_angle_alpha 90.
_cell_angle_beta 112.56(3)
_cell_angle_gamma 90.
_cell_volume 1359.54
_cell_formula_units_Z 8
_symmetry_space_group_name_H-M 'C 1 c 1'
_symmetry_Int_Tables_number 9
_refine_ls_R_factor_all 0.074
loop_
_symmetry_equiv_pos_site_id
_symmetry_equiv_pos_as_xyz
1 'x, -y, z+1/2'
2 'x, y, z'
3 'x+1/2, -y+1/2, z+1/2'
4 'x+1/2, y+1/2, z'
loop_
_atom_type_symbol
_atom_type_oxidation_number
Yb3+ 3
Na1+ 1
C4+ 4
O2- -2
F1- -1
loop_
_atom_site_label
_atom_site_type_symbol
_atom_site_symmetry_multiplicity
_atom_site_Wyckoff_symbol
_atom_site_fract_x
_atom_site_fract_y
_atom_site_fract_z
_atom_site_B_iso_or_equiv
_atom_site_occupancy
_atom_site_attached_hydrogens
Yb1 Yb3+ 4 a 0.62432(17) 0.02453(13) 0.50007(18) 0.0205(7) 0.5 0
Yb2 Yb3+ 4 a 0.1300(2) 0.01921(16) 0.4985(2) 0.0254(6) 0.5 0
Yb3 Yb3+ 4 a 0.8775(3) 0.22886(3) 0.9989(3) 0.0200(4) 1. 0
Na1 Na1+ 4 a 0.62432(17) 0.02453(13) 0.50007(18) 0.0205(7) 0.5 0
Na2 Na1+ 4 a 0.1300(2) 0.01921(16) 0.4985(2) 0.0254(6) 0.5 0
Na3 Na1+ 4 a 0.368(4) 0.2174(5) 0.980(3) 0.039(3) 1. 0
Na4 Na1+ 4 a 0.999(2) 0.1276(5) 0.738(3) 0.030(3) 1. 0
Na5 Na1+ 4 a 0.760(2) 0.1201(5) 0.246(2) 0.030(3) 1. 0
Na6 Na1+ 4 a 0.252(2) 0.1212(5) 0.243(2) 0.029(3) 1. 0
Na7 Na1+ 4 a 0.517(3) 0.1306(5) 0.748(3) 0.040(4) 1. 0
C1 C4+ 4 a 0.143(3) 0.1940(5) 0.483(3) 0.006(3) 1. 0
C2 C4+ 4 a 0.887(7) 0.9462(9) 0.504(7) 0.030(5) 1. 0
C3 C4+ 4 a 0.385(7) 0.9435(8) 0.494(8) 0.040(7) 1. 0
C4 C4+ 4 a 0.631(5) 0.1956(12) 0.489(5) 0.036(8) 1. 0
O1 O2- 4 a 0.080(2) 0.1537(5) 0.466(2) 0.011(3) 1. 0
O2 O2- 4 a 0.056(3) 0.2258(4) 0.360(3) 0.014(3) 1. 0
O3 O2- 4 a 0.783(4) 0.9735(9) 0.362(4) 0.043(6) 1. 0
O4 O2- 4 a 0.336(4) 0.9026(7) 0.460(4) 0.035(5) 1. 0
O5 O2- 4 a 0.314(3) 0.2055(6) 0.653(3) 0.017(3) 1. 0
O6 O2- 4 a 0.552(4) 0.9521(11) 0.661(5) 0.057(7) 1. 0
O7 O2- 4 a 0.059(4) 0.9556(10) 0.663(5) 0.051(7) 1. 0
O8 O2- 4 a 0.843(4) 0.9031(8) 0.469(4) 0.039(5) 1. 0
O9 O2- 4 a 0.310(4) 0.9766(11) 0.373(5) 0.048(7) 1. 0
O10 O2- 4 a 0.488(5) 0.2141(11) 0.339(5) 0.053(7) 1. 0
O11 O2- 4 a 0.779(5) 0.2041(11) 0.678(5) 0.06 1. 0
O12 O2- 4 a 0.607(5) 0.1531(13) 0.467(6) 0.066(9) 1. 0
F1 F1- 4 a 0.674(3) 0.1825(6) 0.038(3) 0.029(4) 1. 0
F2 F1- 4 a 0.100(3) 0.1785(6) 0.011(3) 0.023(4) 1. 0
F3 F1- 4 a 0.399(4) 0.0715(7) 0.527(4) 0.045(5) 1. 0
F4 F1- 4 a 0.894(5) 0.0692(8) 0.533(4) 0.049(6) 1. 0
loop_
_atom_site_aniso_label
_atom_site_aniso_type_symbol
_atom_site_aniso_U_11
_atom_site_aniso_U_22
_atom_site_aniso_U_33
_atom_site_aniso_U_12
_atom_site_aniso_U_13
_atom_site_aniso_U_23
Yb1 Yb3+ 0.0168(11) 0.0171(13) 0.0247(13) 0.0084(7) 0.0047(10) 0.0138(8)
Yb2 Yb3+ 0.0241(12) 0.0181(10) 0.0316(14) -0.0079(8) 0.0079(11) -0.0138(8)
Yb3 Yb3+ 0.0179(5) 0.0155(7) 0.0244(6) -0.0014(5) 0.0056(4) -0.0031(5)
Na1 Na1+ 0.0168(11) 0.0171(13) 0.0247(13) 0.0084(7) 0.0047(10) 0.0138(8)
Na2 Na1+ 0.0241(12) 0.0181(10) 0.0316(14) -0.0079(8) 0.0079(11) -0.0138(8)
Na3 Na1+ 0.060(8) 0.025(5) 0.045(9) -0.01 0.033(8) -0.01
Na4 Na1+ 0.028(6) 0.032(7) 0.040(8) 0.005(5) 0.025(6) 0.008(6)
Na5 Na1+ 0.035(7) 0.027(7) 0.017(6) -0.006(6) -0.003(5) -0.004(5)
Na6 Na1+ 0.034(6) 0.031(7) 0.022(6) 0.004(6) 0.011(5) -0.006(5)
Na7 Na1+ 0.052(9) 0.037(8) 0.043(8) -0.013(6) 0.030(7) 0.017(7)
#End of TTdata_281178-ICSD