
#(C) 2019 by FIZ Karlsruhe - Leibniz Institute for Information Infrastructure.  All rights reserved.
data_281185-ICSD
_database_code_ICSD 281185
_audit_creation_date 2003-10-01
_chemical_name_systematic
'Hexaaquatrisodiumtrihydroxooctadecaoxohexamolybdoaluminate dihydrate'
_chemical_formula_structural 'Na3 (H2 O)6 (Al (O H)6 Mo6 O18) (H2 O)2'
_chemical_formula_sum 'H22 Al1 Mo6 Na3 O32'
_exptl_crystal_density_diffrn 2.97
_cell_measurement_temperature 183.
_publ_section_title

;
Identification of a near-linear supramolecular water dimer, (H2 O)2, in the
channel of an inorganic framework material
;
loop_
_citation_id
_citation_journal_full
_citation_year
_citation_journal_volume
_citation_page_first
_citation_page_last
_citation_journal_id_ASTM
primary 'Inorganic Chemistry' 2002 41 6953 6955 INOCAJ
loop_
_publ_author_name
'Manikumari, S.'
'Shivaiah, V.'
'Das, S.K.'
_cell_length_a 12.0618(3)
_cell_length_b 13.1570(4)
_cell_length_c 14.1563(4)
_cell_angle_alpha 80.785(1)
_cell_angle_beta 75.266(1)
_cell_angle_gamma 68.921(1)
_cell_volume 2021.43
_cell_formula_units_Z 3
_symmetry_space_group_name_H-M 'P -1'
_symmetry_Int_Tables_number 2
_refine_ls_R_factor_all 0.0215
loop_
_symmetry_equiv_pos_site_id
_symmetry_equiv_pos_as_xyz
1 '-x, -y, -z'
2 'x, y, z'
loop_
_atom_type_symbol
_atom_type_oxidation_number
Mo6+ 6
Al3+ 3
O2- -2
Na1+ 1
O2- -2
H1+ 1
O2- -2
H1+ 1
O2- -2
H1+ 1
O2- -2
H1+ 1
loop_
_atom_site_label
_atom_site_type_symbol
_atom_site_symmetry_multiplicity
_atom_site_Wyckoff_symbol
_atom_site_fract_x
_atom_site_fract_y
_atom_site_fract_z
_atom_site_B_iso_or_equiv
_atom_site_occupancy
_atom_site_attached_hydrogens
Mo1 Mo6+ 2 i 0.724573(14) 0.488210(13) 0.094944(12) 0.01111(4) 1. 0
Mo2 Mo6+ 2 i 0.896297(14) -.386685(12) 0.352249(12) 0.01079(4) 1. 0
Mo3 Mo6+ 2 i 0.760085(14) 0.719406(12) -.014445(12) 0.01103(4) 1. 0
Mo4 Mo6+ 2 i 0.946855(13) -.161953(12) 0.242600(12) 0.01025(4) 1. 0
Mo5 Mo6+ 2 i 0.612782(14) -.385704(13) 0.450549(12) 0.01154(4) 1. 0
Mo6 Mo6+ 2 i 0.383831(14) -.160081(13) 0.426485(12) 0.01079(4) 1. 0
Mo7 Mo6+ 2 i 0.436350(13) 0.063140(12) 0.310933(12) 0.01014(4) 1. 0
Mo8 Mo6+ 2 i 0.718132(14) 0.064767(12) 0.217967(12) 0.01045(4) 1. 0
Mo9 Mo6+ 2 i 0.962990(14) 0.269146(12) 0.110368(12) 0.01148(4) 1. 0
Al1 Al3+ 1 c 0 0.5 0 0.00974(15) 1. 0
Al2 Al3+ 2 i 0.66583(4) -.16187(4) 0.33264(4) 0.00961(11) 1. 0
O1 O2- 2 i 0.81486(11) -.2077(1) 0.37413(10) 0.0104(2) 1. 0
O2 O2- 2 i 0.91579(12) 0.45212(11) 0.12051(10) 0.0108(2) 1. 0
O3 O2- 2 i 0.88051(12) 0.73400(11) -.12769(10) 0.0135(3) 1. 0
O4 O2- 2 i 0.95349(12) -.30737(10) 0.22767(10) 0.0130(3) 1. 0
O5 O2- 2 i 1.15041(11) 0.45983(10) 0.03854(10) 0.0104(2) 1. 0
O6 O2- 2 i 0.71146(12) -.3102(1) 0.30524(10) 0.0112(2) 1. 0
O7 O2- 2 i 0.57680(12) -.20327(11) 0.45407(10) 0.0109(2) 1. 0
O8 O2- 2 i 1.05589(12) -.19067(11) 0.31023(10) 0.0156(3) 1. 0
O9 O2- 2 i 0.56064(12) 0.07363(11) 0.1993(1) 0.0129(3) 1. 0
O10 O2- 2 i 0.77364(12) -.39915(11) 0.46545(10) 0.0136(3) 1. 0
O11 O2- 2 i 0.94583(12) 0.64849(10) 0.03124(10) 0.0112(2) 1. 0
O12 O2- 2 i 0.47369(12) -.30710(11) 0.39178(10) 0.0143(3) 1. 0
O13 O2- 2 i 1.01252(13) -.40864(12) 0.40850(11) 0.0185(3) 1. 0
O14 O2- 2 i 0.64441(13) 0.73521(12) -.06999(11) 0.0183(3) 1. 0
O15 O2- 2 i 0.32276(12) 0.08072(12) 0.25243(11) 0.0174(3) 1. 0
O16 O2- 2 i 0.70968(12) 0.63754(11) 0.10898(10) 0.0133(3) 1. 0
O17 O2- 2 i 0.82301(12) 0.34248(11) 0.05412(10) 0.0140(3) 1. 0
O18 O2- 2 i 0.67726(13) 0.19311(11) 0.25475(11) 0.0179(3) 1. 0
O19 O2- 2 i 1.01656(13) -.13490(12) 0.12527(10) 0.0186(3) 1. 0
O20 O2- 2 i 0.40137(13) 0.18349(11) 0.36276(10) 0.0162(3) 1. 0
O21 O2- 2 i 0.72345(13) 0.83981(11) 0.03838(11) 0.0176(3) 1. 0
O22 O2- 2 i 0.61089(12) 0.51295(11) 0.03279(10) 0.0168(3) 1. 0
O23 O2- 2 i 0.92821(13) -.50368(11) 0.29603(11) 0.0186(3) 1. 0
O24 O2- 2 i 0.54544(13) -.39376(12) 0.57187(11) 0.0195(3) 1. 0
O25 O2- 2 i 0.79061(12) 0.07172(12) 0.09751(10) 0.0176(3) 1. 0
O26 O2- 2 i 0.89797(13) 0.25429(12) 0.23132(11) 0.0196(3) 1. 0
O27 O2- 2 i 0.64688(14) -.51109(12) 0.41154(12) 0.0219(3) 1. 0
O28 O2- 2 i 0.66547(13) 0.45538(12) 0.21361(11) 0.0206(3) 1. 0
O29 O2- 2 i 0.31994(13) -.18085(12) 0.54654(11) 0.0202(3) 1. 0
O30 O2- 2 i 0.75612(11) -.11918(10) 0.21229(10) 0.0102(2) 1. 0
O31 O2- 2 i 0.51640(11) -.11746(11) 0.29225(10) 0.0104(2) 1. 0
O32 O2- 2 i 0.26919(12) -.13465(11) 0.36532(11) 0.0169(3) 1. 0
O33 O2- 2 i 1.01219(13) 0.14189(11) 0.06841(11) 0.0210(3) 1. 0
Na1 Na1+ 2 i 0.40031(7) 0.54490(7) 0.11824(6) 0.02073(17) 1. 0
Na2 Na1+ 2 i 0.25958(7) -.20075(7) 0.21773(6) 0.02110(17) 1. 0
Na3 Na1+ 2 i 0.06414(7) -.13459(7) 0.46509(6) 0.02188(18) 1. 0
Na4 Na1+ 1 a 0 0 0 0.0206(2) 1. 0
Na5 Na1+ 2 i 0.70933(10) -.67684(7) 0.34590(7) 0.0324(2) 1. 0
O34 O2- 2 i 0.61827(11) -.01269(10) 0.36015(10) 0.0105(2) 1. 0
O35 O2- 2 i 0.37892(11) -.01296(10) 0.43585(10) 0.0129(3) 1. 0
O36 O2- 2 i -.14277(13) -.13414(13) 0.51843(11) 0.0179(3) 1. 0
O37 O2- 2 i 0.85331(12) -.01401(11) 0.27889(10) 0.0130(3) 1. 0
O38 O2- 2 i 0.19164(13) 0.54498(13) 0.17796(11) 0.0169(3) 1. 0
O39 O2- 2 i 0.47027(13) -.20459(13) 0.15783(11) 0.0188(3) 1. 0
O40 O2- 2 i 0.01818(18) -.04550(14) 0.61126(13) 0.0245(3) 1. 0
O41 O2- 2 i 0.30010(17) -.26836(15) 0.05909(13) 0.0244(3) 1. 0
O42 O2- 2 i 0.36543(18) 0.61107(15) 0.27757(13) 0.0276(4) 1. 0
O43 O2- 2 i 0.45936(15) 0.36025(13) 0.18070(13) 0.0309(4) 1. 0
H1 H1+ 2 i 0.5234 0.3214 0.2062 0.037 1. 0
H2 H1+ 2 i 0.4414 0.3168 0.15 0.037 1. 0
O44 O2- 2 i 0.12851(16) -.30725(14) 0.54899(15) 0.0414(5) 1. 0
H3 H1+ 2 i 0.0573 -.3155 0.5998 0.05 1. 0
H4 H1+ 2 i 0.187 -.3698 0.5271 0.05 1. 0
O45 O2- 2 i 0.17987(18) -.00875(15) 0.18643(17) 0.0532(6) 1. 0
H5 H1+ 2 i 1.1359 0.0306 0.1358 0.064 1. 0
H6 H1+ 2 i 0.2367 0.0203 0.1992 0.064 1. 0
O46 O2- 2 i -.10322(17) -.27606(16) 0.67190(13) 0.0280(4) 1. 0
O47 O2- 2 i 0.23797(18) 0.41153(16) 0.33641(14) 0.0345(5) 1. 0
O48 O2- 2 i 0.4163(2) -.07708(18) 0.00117(15) 0.0453(6) 1. 0
H7 H1+ 2 i 0.823(3) -.184(2) 0.421(2) 0.029(8) 1. 0
H8 H1+ 2 i 0.702(3) -.329(3) 0.256(2) 0.041(9) 1. 0
H9 H1+ 2 i 0.585(2) -.187(2) 0.500(2) 0.027(8) 1. 0
H10 H1+ 2 i 0.625(3) -.001(3) 0.411(2) 0.044(9) 1. 0
H11 H1+ 2 i 0.509(3) -.142(3) 0.246(3) 0.055(11) 1. 0
H12 H1+ 2 i 0.750(3) -.136(3) 0.165(2) 0.042(9) 1. 0
H13 H1+ 2 i 1.156(3) 0.488(3) 0.088(2) 0.043(9) 1. 0
H14 H1+ 2 i 0.952(3) 0.663(3) 0.083(2) 0.045(9) 1. 0
H15 H1+ 2 i 0.921(3) 0.469(3) 0.165(2) 0.036(9) 1. 0
H16 H1+ 2 i -.207(2) -.081(2) 0.5330(19) 0.017(6) 1. 0
H17 H1+ 2 i -.142(3) -.170(2) 0.575(2) 0.036(8) 1. 0
H18 H1+ 2 i 0.125(2) 0.598(2) 0.1894(18) 0.014(6) 1. 0
H19 H1+ 2 i 0.194(3) 0.512(2) 0.231(2) 0.029(8) 1. 0
H20 H1+ 2 i 0.536(3) -.260(2) 0.145(2) 0.026(7) 1. 0
H21 H1+ 2 i 0.468(3) -.169(3) 0.103(3) 0.051(10) 1. 0
H22 H1+ 2 i -.066(4) 0.051(4) 0.365(3) 0.080(15) 1. 0
H23 H1+ 2 i 0.031(4) 0.060(3) 0.348(3) 0.093(16) 1. 0
H24 H1+ 2 i 0.253(3) 0.734(3) 0.034(3) 0.047(11) 1. 0
H25 H1+ 2 i 0.328(3) -.221(3) 0.029(3) 0.054(11) 1. 0
H26 H1+ 2 i 0.410(3) -.384(3) 0.303(3) 0.052(11) 1. 0
H27 H1+ 2 i 0.346(4) 0.565(4) 0.311(3) 0.105(18) 1. 0
H28 H1+ 2 i -.137(3) -.324(3) 0.670(2) 0.069(12) 1. 0
H29 H1+ 2 i -.123(4) -.250(3) 0.719(3) 0.070(14) 1. 0
H30 H1+ 2 i 0.317(3) 0.373(3) 0.313(3) 0.075(12) 1. 0
H31 H1+ 2 i 0.221(4) 0.431(3) 0.387(3) 0.067(13) 1. 0
H32 H1+ 2 i 0.449(3) -.092(3) -.047(3) 0.053(12) 1. 0
H33 H1+ 2 i 0.357(4) -.022(4) 0.015(3) 0.107(17) 1. 0
loop_
_atom_site_aniso_label
_atom_site_aniso_type_symbol
_atom_site_aniso_U_11
_atom_site_aniso_U_22
_atom_site_aniso_U_33
_atom_site_aniso_U_12
_atom_site_aniso_U_13
_atom_site_aniso_U_23
Mo1 Mo6+ 0.00975(7) 0.01395(7) 0.01025(8) -0.00532(6) -0.00138(6) -0.00068(6)
Mo2 Mo6+ 0.01085(7) 0.00979(7) 0.01076(8) -0.00248(6) -0.00199(6) -0.00091(5)
Mo3 Mo6+ 0.01066(7) 0.01076(7) 0.01126(8) -0.00240(6) -0.00281(6) -0.00168(6)
Mo4 Mo6+ 0.00872(7) 0.01145(7) 0.01034(8) -0.00381(6) -0.00127(5) -0.00040(6)
Mo5 Mo6+ 0.01290(7) 0.01047(7) 0.01233(8) -0.00544(6) -0.00303(6) 0.00034(6)
Mo6 Mo6+ 0.00964(7) 0.01288(7) 0.01038(8) -0.00526(6) -0.00130(6) -0.00021(6)
Mo7 Mo6+ 0.00911(7) 0.01033(7) 0.01073(8) -0.00297(6) -0.00198(5) -0.00096(5)
Mo8 Mo6+ 0.01028(7) 0.01001(7) 0.01113(8) -0.00411(6) -0.00208(6) 0.00036(5)
Mo9 Mo6+ 0.01336(7) 0.01054(7) 0.01224(8) -0.00567(6) -0.00426(6) 0.00086(6)
Al1 Al3+ 0.0090(3) 0.0096(3) 0.0103(4) -0.0031(3) -0.0015(3) -0.0009(3)
Al2 Al3+ 0.0089(3) 0.0095(3) 0.0103(3) -0.0032(2) -0.0015(2) -0.0008(2)
O1 O2- 0.0107(6) 0.0114(6) 0.0092(6) -0.0034(5) -0.0019(5) -0.0021(5)
O2 O2- 0.0122(6) 0.0124(6) 0.0090(6) -0.0055(5) -0.0026(5) -0.0009(5)
O3 O2- 0.0150(6) 0.0151(6) 0.0114(6) -0.0057(5) -0.0043(5) -0.0002(5)
O4 O2- 0.0132(6) 0.0125(6) 0.0128(6) -0.0044(5) -0.0013(5) -0.0018(5)
O5 O2- 0.0109(6) 0.0117(6) 0.0094(6) -0.0040(5) -0.0027(5) -0.0016(5)
O6 O2- 0.0129(6) 0.0116(6) 0.0101(6) -0.0044(5) -0.0029(5) -0.0018(5)
O7 O2- 0.0117(6) 0.0131(6) 0.0091(6) -0.0055(5) -0.0018(5) -0.0018(5)
O8 O2- 0.0127(6) 0.0177(6) 0.0173(7) -0.0053(5) -0.0048(5) -0.0008(5)
O9 O2- 0.0122(6) 0.0150(6) 0.0116(6) -0.0055(5) -0.0020(5) 0.0000(5)
O10 O2- 0.0143(6) 0.0154(6) 0.0121(6) -0.0061(5) -0.0041(5) 0.0010(5)
O11 O2- 0.0129(6) 0.0111(6) 0.0094(6) -0.0031(5) -0.0027(5) -0.0018(5)
O12 O2- 0.0151(6) 0.0146(6) 0.0163(7) -0.0075(5) -0.0049(5) -0.0013(5)
O13 O2- 0.0154(6) 0.0212(7) 0.0182(7) -0.0042(6) -0.0062(5) 0.0002(6)
O14 O2- 0.0161(6) 0.0209(7) 0.0182(7) -0.0049(6) -0.0067(5) -0.0005(6)
O15 O2- 0.0152(6) 0.0208(7) 0.0180(7) -0.0067(5) -0.0061(5) -0.0004(6)
O16 O2- 0.0133(6) 0.0145(6) 0.0116(6) -0.0048(5) -0.0009(5) -0.0018(5)
O17 O2- 0.0139(6) 0.0144(6) 0.0160(7) -0.0065(5) -0.0048(5) -0.0010(5)
O18 O2- 0.0205(7) 0.0128(6) 0.0221(8) -0.0051(5) -0.0074(6) -0.0026(5)
O19 O2- 0.0180(7) 0.0208(7) 0.0136(7) -0.0059(6) 0.0005(5) 0.0007(5)
O20 O2- 0.0183(7) 0.0135(6) 0.0162(7) -0.0044(5) -0.0034(5) -0.0025(5)
O21 O2- 0.0210(7) 0.0146(6) 0.0168(7) -0.0040(5) -0.0043(6) -0.0039(5)
O22 O2- 0.0132(6) 0.0214(7) 0.0171(7) -0.0063(5) -0.0040(5) -0.0028(5)
O23 O2- 0.0247(7) 0.0141(6) 0.0163(7) -0.0049(6) -0.0042(6) -0.0033(5)
O24 O2- 0.0219(7) 0.0219(7) 0.0158(7) -0.0114(6) -0.0019(6) 0.0021(6)
O25 O2- 0.0161(6) 0.0211(7) 0.0145(7) -0.0076(6) -0.0010(5) 0.0017(5)
O26 O2- 0.0216(7) 0.0237(7) 0.0161(7) -0.0124(6) -0.0050(6) 0.0041(6)
O27 O2- 0.0261(8) 0.0157(7) 0.0276(8) -0.0079(6) -0.0087(6) -0.0045(6)
O28 O2- 0.0221(7) 0.0258(8) 0.0133(7) -0.0108(6) 0.0003(6) 0.0001(6)
O29 O2- 0.0229(7) 0.0224(7) 0.0144(7) -0.0100(6) 0.0002(6) 0.0003(6)
O30 O2- 0.0106(6) 0.0116(6) 0.0086(6) -0.0041(5) -0.0013(5) -0.0018(5)
O31 O2- 0.0106(6) 0.0119(6) 0.0093(6) -0.0037(5) -0.0026(5) -0.0012(5)
O32 O2- 0.0124(6) 0.0203(7) 0.0201(7) -0.0064(5) -0.0056(5) -0.0017(6)
O33 O2- 0.0277(8) 0.0138(6) 0.0265(8) -0.0078(6) -0.0125(6) -0.0029(6)
Na1 Na1+ 0.0163(4) 0.0239(4) 0.0222(4) -0.0064(3) -0.0030(3) -0.0048(3)
Na2 Na1+ 0.0163(4) 0.0241(4) 0.0234(4) -0.0073(3) -0.0023(3) -0.0050(3)
Na3 Na1+ 0.0180(4) 0.0261(4) 0.0220(4) -0.0072(3) -0.0050(3) -0.0023(3)
Na4 Na1+ 0.0308(6) 0.0149(5) 0.0155(6) -0.0102(5) -0.0005(5) -0.0008(4)
Na5 Na1+ 0.0555(6) 0.0159(4) 0.0192(5) -0.0135(4) 0.0055(4) -0.0012(3)
O34 O2- 0.0117(6) 0.0113(6) 0.0094(6) -0.0040(5) -0.0026(5) -0.0020(5)
O35 O2- 0.0116(6) 0.0131(6) 0.0132(6) -0.0045(5) -0.0009(5) -0.0008(5)
O36 O2- 0.0137(7) 0.0227(7) 0.0154(7) -0.0031(6) -0.0025(5) -0.0039(6)
O37 O2- 0.0125(6) 0.0129(6) 0.0150(7) -0.0048(5) -0.0048(5) -0.0007(5)
O38 O2- 0.0147(7) 0.0206(7) 0.0134(7) -0.0035(6) -0.0022(5) -0.0027(6)
O39 O2- 0.0152(7) 0.0246(8) 0.0162(7) -0.0055(6) -0.0025(6) -0.0042(6)
O40 O2- 0.0294(9) 0.0316(9) 0.0193(8) -0.0166(7) -0.0087(7) -0.0002(7)
O41 O2- 0.0267(8) 0.0278(9) 0.0232(9) -0.0126(7) -0.0096(7) 0.0009(7)
O42 O2- 0.0387(10) 0.0288(9) 0.0240(9) -0.0192(8) -0.0117(8) 0.0001(7)
O43 O2- 0.0311(9) 0.0242(8) 0.0414(10) -0.0084(7) -0.0162(8) -0.0016(7)
O44 O2- 0.0286(9) 0.0290(9) 0.0555(13) -0.0046(7) -0.0019(8) 0.0045(8)
O45 O2- 0.0593(13) 0.0306(10) 0.0921(18) -0.0234(9) -0.0580(13) 0.0203(10)
O46 O2- 0.0303(9) 0.0285(9) 0.0176(8) 0.0008(7) -0.0074(7) -0.0025(7)
O47 O2- 0.0327(10) 0.0373(10) 0.0163(8) 0.0108(8) -0.0078(7) -0.0027(7)
O48 O2- 0.0511(13) 0.0442(12) 0.0173(9) 0.0145(10) -0.0103(9) -0.0043(8)
#End of TTdata_281185-ICSD