
#(C) 2019 by FIZ Karlsruhe - Leibniz Institute for Information Infrastructure.  All rights reserved.
data_281127-ICSD
_database_code_ICSD 281127
_audit_creation_date 2003-04-01
_chemical_name_systematic 'Tribarium sodium nonaoxodiruthenate'
_chemical_formula_structural 'Ba3 Na Ru2 O9'
_chemical_formula_sum 'Ba3 Na1 O9 Ru2'
_chemical_name_structure_type BaFeO2+x
_exptl_crystal_density_diffrn 6.
_publ_section_title

;
Novel mixed-valent (V/VI) triple perovskite ruthenates: observation  of a
complex low-temperature structural and magnetic transition
;
loop_
_citation_id
_citation_journal_full
_citation_year
_citation_journal_volume
_citation_page_first
_citation_page_last
_citation_journal_id_ASTM
primary 'Journal of the American Chemical Society' 2002 124 13877 13885 JACSAT
loop_
_publ_author_name
'Stitzer, K.E.'
'Smith, M.D.'
'Gemmill, W.R.'
'zur Loye, H.C.'
_cell_length_a 5.8729(2)
_cell_length_b 5.8729(2)
_cell_length_c 14.4676(7)
_cell_angle_alpha 90.
_cell_angle_beta 90.
_cell_angle_gamma 120.
_cell_volume 432.15
_cell_formula_units_Z 2
_symmetry_space_group_name_H-M 'P 63/m m c'
_symmetry_Int_Tables_number 194
_refine_ls_R_factor_all 0.021
loop_
_symmetry_equiv_pos_site_id
_symmetry_equiv_pos_as_xyz
1 'x, x-y, -z+1/2'
2 '-x+y, y, -z+1/2'
3 '-y, -x, -z+1/2'
4 '-x+y, -x, -z+1/2'
5 '-y, x-y, -z+1/2'
6 'x, y, -z+1/2'
7 '-x, -x+y, z+1/2'
8 'x-y, -y, z+1/2'
9 'y, x, z+1/2'
10 'x-y, x, z+1/2'
11 'y, -x+y, z+1/2'
12 '-x, -y, z+1/2'
13 '-x, -x+y, -z'
14 'x-y, -y, -z'
15 'y, x, -z'
16 'x-y, x, -z'
17 'y, -x+y, -z'
18 '-x, -y, -z'
19 'x, x-y, z'
20 '-x+y, y, z'
21 '-y, -x, z'
22 '-x+y, -x, z'
23 '-y, x-y, z'
24 'x, y, z'
loop_
_atom_type_symbol
_atom_type_oxidation_number
Ba2+ 2
Na1+ 1
Ru5+ 5.5
O2- -2
loop_
_atom_site_label
_atom_site_type_symbol
_atom_site_symmetry_multiplicity
_atom_site_Wyckoff_symbol
_atom_site_fract_x
_atom_site_fract_y
_atom_site_fract_z
_atom_site_B_iso_or_equiv
_atom_site_occupancy
_atom_site_attached_hydrogens
Ba1 Ba2+ 4 f 0.6667 0.3333 0.09236(3) 0.01732(11) 1. 0
Ba2 Ba2+ 2 b 0 0 0.25 0.01152(12) 1. 0
Na1 Na1+ 2 a 0 0 0 0.0087(5) 1. 0
Ru1 Ru5+ 4 f 0.3333 0.6667 0.15502(3) 0.00858(11) 1. 0
O1 O2- 12 k 0.1778(3) 0.3556(6) 0.0899(2) 0.0184(5) 1. 0
O2 O2- 6 h 0.0354(7) 0.5177(4) 0.25 0.0121(6) 1. 0
loop_
_atom_site_aniso_label
_atom_site_aniso_type_symbol
_atom_site_aniso_U_11
_atom_site_aniso_U_22
_atom_site_aniso_U_33
_atom_site_aniso_U_12
_atom_site_aniso_U_13
_atom_site_aniso_U_23
Ba1 Ba2+ 0.01326(13) 0.01326(13) 0.02545(19) 0.00663(6) 0 0
Ba2 Ba2+ 0.01076(14) 0.01076(14) 0.0130(2) 0.00538(7) 0 0
Na1 Na1+ 0.0085(8) 0.0085(8) 0.0090(12) 0.0042(4) 0 0
Ru1 Ru5+ 0.00725(13) 0.00725(13) 0.01123(17) 0.00363(6) 0 0
O1 O2- 0.0183(10) 0.0131(12) 0.0222(11) 0.0065(6) -0.0041(5) -0.0083(10)
O2 O2- 0.0065(14) 0.0118(11) 0.0163(13) 0.0032(7) 0 0
#End of TTdata_281127-ICSD