
#(C) 2019 by FIZ Karlsruhe - Leibniz Institute for Information Infrastructure.  All rights reserved.
data_281177-ICSD
_database_code_ICSD 281177
_audit_creation_date 2003-10-01
_chemical_name_systematic 'Disodium ytterbium dicarbonate fluoride'
_chemical_formula_structural 'Na2 Yb (C O3)2 F'
_chemical_formula_sum 'C2 F1 Na2 O6 Yb1'
_chemical_name_structure_type Na2Y(CO3)2OH
_exptl_crystal_density_diffrn 4.
_cell_measurement_temperature 298.
_publ_section_title

;
Phase stability regions in the (Na2 C O3) - (Yb F3) - (H2 O) system at 190 C.
Crystal structures of two new fluoride carbonates, Na2 Yb (C O3)2 F and Na3 Yb
(C O3)2 F2
;
loop_
_citation_id
_citation_journal_full
_citation_year
_citation_journal_volume
_citation_page_first
_citation_page_last
_citation_journal_id_ASTM
primary 'Solid State Sciences' 2002 4 1367 1375 SSSCFJ
loop_
_publ_author_name
'Ben Ali, A.'
'Maisonneuve, V.'
'Leblanc, M.'
_cell_length_a 17.440(6)
_cell_length_b 6.1003(17)
_cell_length_c 11.2366(14)
_cell_angle_alpha 90.
_cell_angle_beta 95.64(3)
_cell_angle_gamma 90.
_cell_volume 1189.67
_cell_formula_units_Z 8
_symmetry_space_group_name_H-M 'C 1 2/c 1'
_symmetry_Int_Tables_number 15
_refine_ls_R_factor_all 0.034
loop_
_symmetry_equiv_pos_site_id
_symmetry_equiv_pos_as_xyz
1 'x, -y, z+1/2'
2 '-x, -y, -z'
3 '-x, y, -z+1/2'
4 'x, y, z'
5 'x+1/2, -y+1/2, z+1/2'
6 '-x+1/2, -y+1/2, -z'
7 '-x+1/2, y+1/2, -z+1/2'
8 'x+1/2, y+1/2, z'
loop_
_atom_type_symbol
_atom_type_oxidation_number
Yb3+ 3
Na1+ 1
C4+ 4
O2- -2
F1- -1
loop_
_atom_site_label
_atom_site_type_symbol
_atom_site_symmetry_multiplicity
_atom_site_Wyckoff_symbol
_atom_site_fract_x
_atom_site_fract_y
_atom_site_fract_z
_atom_site_B_iso_or_equiv
_atom_site_occupancy
_atom_site_attached_hydrogens
Yb1 Yb3+ 8 f 0.560193(18) 0.34289(5) 0.63128(2) 0.00872(14) 1. 0
Na1 Na1+ 8 f 0.6099(2) 0.0966(6) 0.3818(3) 0.0174(7) 1. 0
Na2 Na1+ 8 f 0.7360(3) -.0883(6) 0.6440(3) 0.0255(8) 1. 0
C1 C4+ 8 f 0.5639(5) -.2039(13) 0.6167(6) 0.0112(13) 1. 0
C2 C4+ 8 f 0.7932(5) 0.0762(12) 0.4223(6) 0.0118(14) 1. 0
O1 O2- 8 f 0.5060(3) 0.6869(9) 0.5650(5) 0.0117(10) 1. 0
O2 O2- 8 f 0.6065(4) 0.2996(10) 0.2009(5) 0.0168(11) 1. 0
O3 O2- 8 f 0.8037(4) -.1906(10) 0.8271(5) 0.0154(11) 1. 0
O4 O2- 8 f 0.5784(3) -.0088(9) 0.5847(5) 0.0144(11) 1. 0
O5 O2- 8 f 0.7314(3) -.0249(11) 0.4345(5) 0.0190(12) 1. 0
O6 O2- 8 f 0.6489(3) 0.4309(10) 0.4970(5) 0.0144(11) 1. 0
F1 F1- 8 f 0.4387(3) 0.2695(10) 0.6738(4) 0.0245(11) 1. 0
loop_
_atom_site_aniso_label
_atom_site_aniso_type_symbol
_atom_site_aniso_U_11
_atom_site_aniso_U_22
_atom_site_aniso_U_33
_atom_site_aniso_U_12
_atom_site_aniso_U_13
_atom_site_aniso_U_23
Yb1 Yb3+ 0.01099(18) 0.00744(18) 0.00774(17) -0.00051(12) 0.00092(10)
0.00056(11)
Na1 Na1+ 0.0170(16) 0.0203(17) 0.0145(14) 0.0019(13) -0.0004(12) 0.0016(12)
Na2 Na1+ 0.036(2) 0.0216(18) 0.0183(16) 0.0026(16) -0.0021(15) 0.0039(14)
C1 C4+ 0.015(3) 0.009(3) 0.011(3) 0.001(3) 0.004(2) -0.002(2)
C2 C4+ 0.019(4) 0.009(3) 0.007(3) 0.006(3) -0.001(3) -0.001(2)
O1 O2- 0.011(2) 0.012(3) 0.012(2) -0.001(2) -0.0005(19) 0.0020(19)
O2 O2- 0.024(3) 0.013(3) 0.012(2) -0.001(2) -0.006(2) -0.001(2)
O3 O2- 0.018(3) 0.016(3) 0.011(2) 0.000(2) 0.000(2) -0.004(2)
O4 O2- 0.020(3) 0.005(2) 0.019(3) -0.003(2) 0.007(2) 0.001(2)
O5 O2- 0.013(3) 0.022(3) 0.021(3) -0.006(2) 0.002(2) 0.001(2)
O6 O2- 0.011(2) 0.020(3) 0.011(2) -0.002(2) -0.0019(19) 0.000(2)
F1 F1- 0.031(3) 0.027(3) 0.016(2) -0.006(2) 0.001(2) -0.003(2)
#End of TTdata_281177-ICSD