
#(C) 2019 by FIZ Karlsruhe - Leibniz Institute for Information Infrastructure.  All rights reserved.
data_281233-ICSD
_database_code_ICSD 281233
_audit_creation_date 2003-10-01
_audit_update_record 2005-04-01
_chemical_name_systematic 'Disodium tetrathiostannocadmate'
_chemical_formula_structural 'Na2 (Cd Sn S4)'
_chemical_formula_sum 'Cd1 Na2 S4 Sn1'
_exptl_crystal_density_diffrn 3.29
_publ_section_title

;
First examples of sulfides in the quaternary A/Cd/Sn/S (A = Li, Na) systems:
molten flux synthesis and single crystal X-ray structures of Li2 Cd Sn S4, Na2
Cd Sn S4 and Na6 Cd Sn4 S12
;
loop_
_citation_id
_citation_journal_full
_citation_year
_citation_journal_volume
_citation_page_first
_citation_page_last
_citation_journal_id_ASTM
primary 'Journal of the Chemical Society, Dalton Transactions' 2002 2002 2092
2096 JCSDAA
loop_
_publ_author_name
'Suseela Devi, M.'
'Vidyasagar, K.'
_cell_length_a 9.282(1)
_cell_length_b 9.421(3)
_cell_length_c 6.593(9)
_cell_angle_alpha 90.
_cell_angle_beta 134.83(9)
_cell_angle_gamma 90.
_cell_volume 408.88
_cell_formula_units_Z 2
_symmetry_space_group_name_H-M 'C 1 2 1'
_symmetry_Int_Tables_number 5
_refine_ls_R_factor_all 0.0588
loop_
_symmetry_equiv_pos_site_id
_symmetry_equiv_pos_as_xyz
1 '-x, y, -z'
2 'x, y, z'
3 '-x+1/2, y+1/2, -z'
4 'x+1/2, y+1/2, z'
loop_
_atom_type_symbol
_atom_type_oxidation_number
Cd2+ 2
Sn4+ 4
Na1+ 1
S2- -2
loop_
_atom_site_label
_atom_site_type_symbol
_atom_site_symmetry_multiplicity
_atom_site_Wyckoff_symbol
_atom_site_fract_x
_atom_site_fract_y
_atom_site_fract_z
_atom_site_B_iso_or_equiv
_atom_site_occupancy
_atom_site_attached_hydrogens
Cd1 Cd2+ 2 b 0 0.0054(2) 0.5 0.0332(7) 1. 0
Sn1 Sn4+ 2 a 0 0.25505(6) 0 0.0230(5) 1. 0
Na1 Na1+ 2 a 0 0.7966(20) 0 0.070(6) 1. 0
Na2 Na1+ 2 b 0 0.5373(21) 0.5 0.062(6) 1. 0
S1 S2- 4 c 0.2329(8) 0.3827(6) 0.0259(10) 0.0456(12) 1. 0
S2 S2- 4 c 0.7069(7) 0.6266(6) 0.4382(10) 0.0481(13) 1. 0
loop_
_atom_site_aniso_label
_atom_site_aniso_type_symbol
_atom_site_aniso_U_11
_atom_site_aniso_U_22
_atom_site_aniso_U_33
_atom_site_aniso_U_12
_atom_site_aniso_U_13
_atom_site_aniso_U_23
Cd1 Cd2+ 0.0445(12) 0.0233(10) 0.0437(12) 0 0.0354(11) 0
Sn1 Sn4+ 0.0271(7) 0.0224(8) 0.0246(7) 0 0.0201(6) 0
Na1 Na1+ 0.059(7) 0.108(20) 0.052(6) 0 0.042(6) 0
Na2 Na1+ 0.050(7) 0.101(18) 0.040(6) 0 0.033(6) 0
S1 S2- 0.046(2) 0.064(3) 0.034(2) -0.019(2) 0.031(2) -0.007(2)
S2 S2- 0.033(2) 0.074(3) 0.041(2) 0.015(2) 0.028(2) 0.033(3)
#End of TTdata_281233-ICSD