
#(C) 2019 by FIZ Karlsruhe - Leibniz Institute for Information Infrastructure.  All rights reserved.
data_281211-ICSD
_database_code_ICSD 281211
_audit_creation_date 2003-10-01
_audit_update_record 2008-02-01
_chemical_name_systematic
'Sodium magnesium iron(III) phosphate(V) (1.79/1.79/1.21/3)'
_chemical_formula_structural 'Na1.79 Mg1.79 Fe1.21 (P O4)3'
_chemical_formula_sum 'Fe1.21 Mg1.79 Na1.79 O12 P3'
_chemical_name_structure_type Alluaudite
_exptl_crystal_density_diffrn 3.36
_publ_section_title 'The alluaudite-like phosphate Na1.79 Mg1.79 Fe1.21 (P O4)3'
loop_
_citation_id
_citation_journal_full
_citation_year
_citation_journal_volume
_citation_page_first
_citation_page_last
_citation_journal_id_ASTM
primary 'Acta Crystallographica, Section E: Structure Reports Online' 2003 59 i7
i9 ACSEBH
loop_
_publ_author_name
'Hidouri, M.'
'Lajmi, B.'
'Driss, A.'
'Ben Amara, M.'
_cell_length_a 11.791(3)
_cell_length_b 12.489(3)
_cell_length_c 6.4191(10)
_cell_angle_alpha 90.
_cell_angle_beta 113.82(2)
_cell_angle_gamma 90.
_cell_volume 864.74
_cell_formula_units_Z 4
_symmetry_space_group_name_H-M 'C 1 2/c 1'
_symmetry_Int_Tables_number 15
_refine_ls_R_factor_all 0.023
loop_
_symmetry_equiv_pos_site_id
_symmetry_equiv_pos_as_xyz
1 'x, -y, z+1/2'
2 '-x, -y, -z'
3 '-x, y, -z+1/2'
4 'x, y, z'
5 'x+1/2, -y+1/2, z+1/2'
6 '-x+1/2, -y+1/2, -z'
7 '-x+1/2, y+1/2, -z+1/2'
8 'x+1/2, y+1/2, z'
loop_
_atom_type_symbol
_atom_type_oxidation_number
Fe3+ 3
Mg2+ 2
Na1+ 1
P5+ 5
O2- -2
P5+ 5
O2- -2
loop_
_atom_site_label
_atom_site_type_symbol
_atom_site_symmetry_multiplicity
_atom_site_Wyckoff_symbol
_atom_site_fract_x
_atom_site_fract_y
_atom_site_fract_z
_atom_site_B_iso_or_equiv
_atom_site_occupancy
_atom_site_attached_hydrogens
Fe1 Fe3+ 8 f 0.21714(4) 0.15533(3) 0.12852(7) 0.00778(16) 0.6041(6) 0
Mg1 Mg2+ 8 f 0.21714(4) 0.15533(3) 0.12852(7) 0.00778(16) 0.3960(6) 0
Mg2 Mg2+ 4 e 0 0.26564(9) 0.25 0.0088(2) 1. 0
Na1 Na1+ 4 b 0.5 0 0 0.0234(4) 1. 0
Na2 Na1+ 4 e 0 -.0115(3) 0.25 0.0466(7) 0.7917(13) 0
P1 P5+ 4 e 0.5 0.21062(6) 0.25 0.00583(19) 1. 0
O1 O2- 8 f 0.45796(15) 0.28120(14) 0.0322(3) 0.0087(3) 1. 0
O2 O2- 8 f 0.39708(16) 0.13456(14) 0.2493(3) 0.0123(4) 1. 0
P2 P5+ 8 f 0.23741(5) 0.11008(5) 0.62617(10) 0.00601(17) 1. 0
O3 O2- 8 f 0.37541(16) 0.10417(14) 0.6758(3) 0.0112(4) 1. 0
O4 O2- 8 f 0.17902(17) -.00119(14) 0.6170(3) 0.0118(4) 1. 0
O5 O2- 8 f 0.16302(16) 0.16543(14) 0.3925(3) 0.0098(4) 1. 0
O6 O2- 8 f 0.22191(16) 0.17812(14) 0.8158(3) 0.0099(3) 1. 0
loop_
_atom_site_aniso_label
_atom_site_aniso_type_symbol
_atom_site_aniso_U_11
_atom_site_aniso_U_22
_atom_site_aniso_U_33
_atom_site_aniso_U_12
_atom_site_aniso_U_13
_atom_site_aniso_U_23
Fe1 Fe3+ 0.0075(2) 0.0071(2) 0.0092(2) 0.00082(15) 0.00386(18) 0.00084(15)
Mg1 Mg2+ 0.0075(2) 0.0071(2) 0.0092(2) 0.00082(15) 0.00386(18) 0.00084(15)
Mg2 Mg2+ 0.0088(5) 0.0081(5) 0.0108(5) 0 0.0053(4) 0
Na1 Na1+ 0.0323(9) 0.0092(7) 0.0151(8) -0.0018(6) -0.0045(7) -0.0009(6)
Na2 Na1+ 0.0290(14) 0.0504(18) 0.0477(18) 0 0.0022(13) 0
P1 P5+ 0.0057(4) 0.0051(4) 0.0062(4) 0 0.0020(3) 0
O1 O2- 0.0078(7) 0.0106(8) 0.0073(7) 0.0003(6) 0.0025(6) 0.0025(6)
O2 O2- 0.0090(8) 0.0095(8) 0.0173(9) -0.0016(6) 0.0042(7) 0.0037(7)
P2 P5+ 0.0066(3) 0.0048(3) 0.0067(3) 0.00032(19) 0.0028(2) 0.0002(2)
O3 O2- 0.0087(8) 0.0093(8) 0.0166(9) 0.0005(6) 0.0060(7) -0.0002(7)
O4 O2- 0.0134(8) 0.0073(7) 0.0151(9) -0.0018(7) 0.0061(7) 0.0013(7)
O5 O2- 0.0116(8) 0.0081(8) 0.0090(8) 0.0013(6) 0.0036(7) 0.0005(6)
O6 O2- 0.0105(8) 0.0104(8) 0.0088(8) 0.0001(6) 0.0041(6) -0.0007(6)
#End of TTdata_281211-ICSD