
#(C) 2019 by FIZ Karlsruhe - Leibniz Institute for Information Infrastructure.  All rights reserved.
data_281248-ICSD
_database_code_ICSD 281248
_audit_creation_date 2003-10-01
_audit_update_record 2008-08-01
_chemical_name_systematic 'Barium sodium osmium oxide (3/1/2/9)'
_chemical_formula_structural 'Ba3 Na Os2 O9'
_chemical_formula_sum 'Ba3 Na1 O9 Os2'
_chemical_name_structure_type BaFeO2+x
_exptl_crystal_density_diffrn 7.4
_publ_section_title
'Crystal growth of novel osmium-containing triple perovskites'
loop_
_citation_id
_citation_journal_full
_citation_year
_citation_journal_volume
_citation_page_first
_citation_page_last
_citation_journal_id_ASTM
primary 'Inorganic Chemistry' 2003 42 947 949 INOCAJ
loop_
_publ_author_name
'Stitzer, K.E.'
'El Abed, A.'
'Smith, M.D.'
'Davis, M.J.'
'Kim, S.-J.'
'Darriet, J.'
'zur Loye, H.C.'
_cell_length_a 5.8858(1)
_cell_length_b 5.8858(1)
_cell_length_c 14.3451(5)
_cell_angle_alpha 90.
_cell_angle_beta 90.
_cell_angle_gamma 120.
_cell_volume 430.37
_cell_formula_units_Z 2
_symmetry_space_group_name_H-M 'P 63/m m c'
_symmetry_Int_Tables_number 194
_refine_ls_R_factor_all 0.0312
loop_
_symmetry_equiv_pos_site_id
_symmetry_equiv_pos_as_xyz
1 'x, x-y, -z+1/2'
2 '-x+y, y, -z+1/2'
3 '-y, -x, -z+1/2'
4 '-x+y, -x, -z+1/2'
5 '-y, x-y, -z+1/2'
6 'x, y, -z+1/2'
7 '-x, -x+y, z+1/2'
8 'x-y, -y, z+1/2'
9 'y, x, z+1/2'
10 'x-y, x, z+1/2'
11 'y, -x+y, z+1/2'
12 '-x, -y, z+1/2'
13 '-x, -x+y, -z'
14 'x-y, -y, -z'
15 'y, x, -z'
16 'x-y, x, -z'
17 'y, -x+y, -z'
18 '-x, -y, -z'
19 'x, x-y, z'
20 '-x+y, y, z'
21 '-y, -x, z'
22 '-x+y, -x, z'
23 '-y, x-y, z'
24 'x, y, z'
loop_
_atom_type_symbol
_atom_type_oxidation_number
Ba2+ 2
Na1+ 1
Os5+ 5.5
O2- -2
loop_
_atom_site_label
_atom_site_type_symbol
_atom_site_symmetry_multiplicity
_atom_site_Wyckoff_symbol
_atom_site_fract_x
_atom_site_fract_y
_atom_site_fract_z
_atom_site_B_iso_or_equiv
_atom_site_occupancy
_atom_site_attached_hydrogens
Ba1 Ba2+ 4 f 0.6667 0.3333 0.08832(6) 0.01168(14) 1. 0
Ba2 Ba2+ 2 b 0 0 0.25 0.00961(16) 1. 0
Na1 Na1+ 2 a 0 0 0 0.0112(12) 1. 0
Os1 Os5+ 4 f 0.3333 0.6667 0.16115(3) 0.00608(11) 1. 0
O1 O2- 12 k 0.1808(5) 0.3616(11) 0.0910(4) 0.0116(9) 1. 0
O2 O2- 6 h 0.0206(16) 0.5103(8) 0.25 0.0116(12) 1. 0
loop_
_atom_site_aniso_label
_atom_site_aniso_type_symbol
_atom_site_aniso_U_11
_atom_site_aniso_U_22
_atom_site_aniso_U_33
_atom_site_aniso_U_12
_atom_site_aniso_U_13
_atom_site_aniso_U_23
Ba1 Ba2+ 0.00964(17) 0.00964(17) 0.0157(3) 0.00482(9) 0 0
Ba2 Ba2+ 0.0081(2) 0.0081(2) 0.0127(3) 0.00403(10) 0 0
Na1 Na1+ 0.0122(19) 0.0122(19) 0.009(3) 0.0061(9) 0 0
Os1 Os5+ 0.00500(12) 0.00500(12) 0.00822(16) 0.00250(6) 0 0
O1 O2- 0.0149(17) 0.0057(18) 0.0112(17) 0.0028(9) -0.0020(8) -0.0039(15)
O2 O2- 0.006(3) 0.015(2) 0.011(2) 0.0030(13) 0 0
#End of TTdata_281248-ICSD