
#(C) 2019 by FIZ Karlsruhe - Leibniz Institute for Information Infrastructure.  All rights reserved.
data_281377-ICSD
_database_code_ICSD 281377
_audit_creation_date 2004-04-01
_chemical_name_systematic 'Sodium tungstate (0.74/1) - hettptype a(+)a(+)a(0)'
_chemical_formula_structural 'Na0.74 (W O3)'
_chemical_formula_sum 'Na0.74 O3 W1'
_exptl_crystal_density_diffrn 7.24
_cell_measurement_temperature 303.
_publ_section_title 'Structures of Na0.74 W O3'
loop_
_citation_id
_citation_journal_full
_citation_year
_citation_journal_volume
_citation_page_first
_citation_page_last
_citation_journal_id_ASTM
primary 'Acta Crystallographica, Section B: Structural Science' 2003 59 584 587
ASBSDK
loop_
_publ_author_name
'Darlington, C.N.W.'
'Hriljac, J.A.'
'Knight, K.S.'
_cell_length_a 7.70190(3)
_cell_length_b 7.70190(3)
_cell_length_c 7.69267(6)
_cell_angle_alpha 90.
_cell_angle_beta 90.
_cell_angle_gamma 90.
_cell_volume 456.32
_cell_formula_units_Z 8
_symmetry_space_group_name_H-M 'I 4/m m m'
_symmetry_Int_Tables_number 139
_refine_ls_R_factor_all 0.0485
loop_
_symmetry_equiv_pos_site_id
_symmetry_equiv_pos_as_xyz
1 'y, x, -z'
2 '-y, -x, -z'
3 '-y, x, -z'
4 'y, -x, -z'
5 '-x, y, -z'
6 'x, -y, -z'
7 'x, y, -z'
8 '-x, -y, -z'
9 '-y, -x, z'
10 'y, x, z'
11 'y, -x, z'
12 '-y, x, z'
13 'x, -y, z'
14 '-x, y, z'
15 '-x, -y, z'
16 'x, y, z'
17 'y+1/2, x+1/2, -z+1/2'
18 '-y+1/2, -x+1/2, -z+1/2'
19 '-y+1/2, x+1/2, -z+1/2'
20 'y+1/2, -x+1/2, -z+1/2'
21 '-x+1/2, y+1/2, -z+1/2'
22 'x+1/2, -y+1/2, -z+1/2'
23 'x+1/2, y+1/2, -z+1/2'
24 '-x+1/2, -y+1/2, -z+1/2'
25 '-y+1/2, -x+1/2, z+1/2'
26 'y+1/2, x+1/2, z+1/2'
27 'y+1/2, -x+1/2, z+1/2'
28 '-y+1/2, x+1/2, z+1/2'
29 'x+1/2, -y+1/2, z+1/2'
30 '-x+1/2, y+1/2, z+1/2'
31 '-x+1/2, -y+1/2, z+1/2'
32 'x+1/2, y+1/2, z+1/2'
loop_
_atom_type_symbol
_atom_type_oxidation_number
Na1+ 1
W5+ 5.26
O2- -2
loop_
_atom_site_label
_atom_site_type_symbol
_atom_site_symmetry_multiplicity
_atom_site_Wyckoff_symbol
_atom_site_fract_x
_atom_site_fract_y
_atom_site_fract_z
_atom_site_B_iso_or_equiv
_atom_site_occupancy
_atom_site_attached_hydrogens
Na1 Na1+ 2 a 0 0 0 0.017(7) 0.78743 0
Na2 Na1+ 2 b 0 0 0.5 0.016(10) 0.67771 0
Na3 Na1+ 4 c 0.5 0 0 0.021(7) 0.74743 0
W1 W5+ 8 f 0.25 0.25 0.25 0.0077(3) 1. 0
O1 O2- 8 h 0.2348(3) 0.2348(3) 0 0.01152 1. 0
O2 O2- 16 n 0 0.2502(10) 0.2645(3) 0.01221 1. 0
loop_
_atom_site_aniso_label
_atom_site_aniso_type_symbol
_atom_site_aniso_U_11
_atom_site_aniso_U_22
_atom_site_aniso_U_33
_atom_site_aniso_U_12
_atom_site_aniso_U_13
_atom_site_aniso_U_23
O1 O2- 0.0140(11) 0.0140(11) 0.0067(14) 0.000(2) 0 0
O2 O2- 0.0088(8) 0.0132(12) 0.0146(11) 0 0 0.0025(19)
#End of TTdata_281377-ICSD