
#(C) 2019 by FIZ Karlsruhe - Leibniz Institute for Information Infrastructure.  All rights reserved.
data_281397-ICSD
_database_code_ICSD 281397
_audit_creation_date 2004-04-01
_chemical_name_systematic 'Sodium iron molybdate (1/4/5)'
_chemical_formula_structural 'Na Fe4 (Mo O4)5'
_chemical_formula_sum 'Fe4 Mo5 Na1 O20'
_chemical_name_structure_type NaMg3AlMo5O20
_exptl_crystal_density_diffrn 4.09
_publ_section_title 'Structural investigation of the Na - Fe - Mo - O system'
loop_
_citation_id
_citation_journal_full
_citation_year
_citation_journal_volume
_citation_page_first
_citation_page_last
_citation_journal_id_ASTM
primary 'Acta Crystallographica, Section B: Structural Science' 2003 59 611 616
ASBSDK
loop_
_publ_author_name
'Muessig, E.'
'Bramnik, K.G.'
'Ehrenberg, H.'
_cell_length_a 6.9337(3)
_cell_length_b 7.0196(4)
_cell_length_c 17.8033(8)
_cell_angle_alpha 87.468(4)
_cell_angle_beta 87.615(4)
_cell_angle_gamma 79.090(4)
_cell_volume 849.54
_cell_formula_units_Z 2
_symmetry_space_group_name_H-M 'P -1'
_symmetry_Int_Tables_number 2
_refine_ls_R_factor_all 0.032
loop_
_symmetry_equiv_pos_site_id
_symmetry_equiv_pos_as_xyz
1 '-x, -y, -z'
2 'x, y, z'
loop_
_atom_type_symbol
_atom_type_oxidation_number
Mo6+ 6
Fe2+ 2.25
O2- -2
Na1+ 1
loop_
_atom_site_label
_atom_site_type_symbol
_atom_site_symmetry_multiplicity
_atom_site_Wyckoff_symbol
_atom_site_fract_x
_atom_site_fract_y
_atom_site_fract_z
_atom_site_B_iso_or_equiv
_atom_site_occupancy
_atom_site_attached_hydrogens
Mo1 Mo6+ 2 i 0.72970(3) 0.93852(3) 0.094013(11) 0.00895(3) 1. 0
Mo2 Mo6+ 2 i 0.68051(3) 0.22041(3) 0.309457(11) 0.01007(4) 1. 0
Mo3 Mo6+ 2 i 0.21711(3) 0.82601(3) 0.285406(10) 0.00866(3) 1. 0
Mo4 Mo6+ 2 i 0.72965(3) 0.68980(3) 0.47393(1) 0.00867(3) 1. 0
Mo5 Mo6+ 2 i 0.24818(3) 0.54462(3) 0.086520(11) 0.00985(4) 1. 0
Fe1 Fe2+ 2 i 0.75239(5) 0.69668(5) 0.265675(18) 0.00869(5) 1. 0
Fe2 Fe2+ 2 i 0.81431(5) 0.17149(5) 0.507320(19) 0.00903(5) 1. 0
Fe3 Fe2+ 2 i 0.77718(5) 0.42412(5) 0.125698(18) 0.00898(5) 1. 0
Fe4 Fe2+ 2 i 1.17232(5) 1.08132(5) 0.114821(19) 0.01041(6) 1. 0
O1 O2- 2 i 0.8756(3) 0.8648(3) 0.49781(11) 0.0148(3) 1. 0
O2 O2- 2 i 0.5156(3) 0.2131(3) 0.50552(14) 0.0224(4) 1. 0
O3 O2- 2 i 0.8002(4) 0.8836(3) 0.00156(11) 0.0213(4) 1. 0
O4 O2- 2 i 0.4354(3) 0.2959(4) 0.33180(14) 0.0241(4) 1. 0
O5 O2- 2 i 0.8183(3) 0.2012(3) 0.39139(11) 0.0182(4) 1. 0
O6 O2- 2 i 0.4597(3) 0.7133(3) 0.26435(13) 0.0195(4) 1. 0
O7 O2- 2 i 1.1677(4) 0.7869(3) 0.11036(14) 0.0250(5) 1. 0
O8 O2- 2 i 0.7503(4) 0.4661(4) 0.01112(12) 0.0240(4) 1. 0
O9 O2- 2 i 0.4804(3) 1.0328(3) 0.10127(14) 0.0227(4) 1. 0
O10 O2- 2 i 0.7688(3) 0.7137(3) 0.15068(10) 0.0126(3) 1. 0
O11 O2- 2 i 0.8557(3) 1.1265(3) 0.11898(11) 0.0130(3) 1. 0
O12 O2- 2 i 0.7763(3) 0.3974(3) 0.24658(10) 0.0131(3) 1. 0
O13 O2- 2 i 0.0867(3) 0.3883(3) 0.12592(11) 0.0145(3) 1. 0
O14 O2- 2 i 0.0519(3) 0.6656(3) 0.26884(12) 0.0169(3) 1. 0
O15 O2- 2 i 0.1620(3) 1.0480(3) 0.23241(11) 0.0172(3) 1. 0
O16 O2- 2 i 0.1948(4) 0.8830(3) 0.37977(11) 0.0211(4) 1. 0
O17 O2- 2 i 0.7987(3) 0.4674(3) 0.52384(12) 0.0190(4) 1. 0
O18 O2- 2 i 0.7133(4) -.0097(3) 0.26918(13) 0.0232(4) 1. 0
O19 O2- 2 i 0.7568(4) 0.6465(4) 0.37741(11) 0.0243(5) 1. 0
O20 O2- 2 i 0.4795(3) 0.4586(4) 0.12356(13) 0.0226(4) 1. 0
Na1 Na1+ 2 i 0.1189(3) 0.3361(3) 0.3029(3) 0.0945(13) 1. 0
loop_
_atom_site_aniso_label
_atom_site_aniso_type_symbol
_atom_site_aniso_U_11
_atom_site_aniso_U_22
_atom_site_aniso_U_33
_atom_site_aniso_U_12
_atom_site_aniso_U_13
_atom_site_aniso_U_23
Mo1 Mo6+ 0.01045(8) 0.00738(6) 0.00965(7) -0.00317(6) -0.00216(6) 0.00103(5)
Mo2 Mo6+ 0.01052(8) 0.00899(7) 0.01100(7) -0.00297(6) -0.00057(6) 0.00155(5)
Mo3 Mo6+ 0.00790(8) 0.00930(7) 0.00877(7) -0.00168(6) -0.00036(5) 0.00003(5)
Mo4 Mo6+ 0.00969(8) 0.00895(7) 0.00815(7) -0.00369(6) -0.00060(5) -0.00023(5)
Mo5 Mo6+ 0.01054(8) 0.00900(7) 0.01074(7) -0.00416(6) 0.00222(6) -0.00084(5)
Fe1 Fe2+ 0.00955(14) 0.00881(11) 0.00812(11) -0.00273(10) -0.00006(10)
-0.00084(9)
Fe2 Fe2+ 0.00848(14) 0.00896(11) 0.00956(11) -0.00136(10) -0.00034(10)
-0.00052(9)
Fe3 Fe2+ 0.00952(14) 0.00798(11) 0.00946(12) -0.00154(10) -0.00043(10)
-0.00103(9)
Fe4 Fe2+ 0.01065(15) 0.00930(12) 0.01119(12) -0.00189(10) 0.00037(10) 0.00002(9)
O1 O2- 0.0132(8) 0.0136(7) 0.0191(8) -0.0060(6) -0.0012(6) -0.0021(6)
O2 O2- 0.0123(9) 0.0234(10) 0.0316(11) -0.0032(7) -0.0011(8) -0.0023(8)
O3 O2- 0.0317(12) 0.0207(9) 0.0120(7) -0.0062(8) -0.0018(7) -0.0006(6)
O4 O2- 0.0113(9) 0.0299(11) 0.0299(11) -0.0021(8) 0.0009(8) 0.0025(9)
O5 O2- 0.0196(10) 0.0202(8) 0.0139(7) -0.0018(7) -0.0036(7) 0.0024(6)
O6 O2- 0.0109(8) 0.0185(8) 0.028(1) -0.0001(7) 0.0023(7) -0.0040(7)
O7 O2- 0.0325(13) 0.0117(8) 0.0314(11) -0.0071(8) 0.0108(9) -0.0047(7)
O8 O2- 0.0318(13) 0.0281(11) 0.0127(8) -0.0086(9) 0.0022(8) 0.0015(7)
O9 O2- 0.0119(9) 0.0213(9) 0.0347(12) -0.0018(7) -0.0050(8) 0.0016(8)
O10 O2- 0.0166(8) 0.0102(6) 0.0108(6) -0.0028(6) 0.0001(6) 0.0016(5)
O11 O2- 0.0123(8) 0.0113(6) 0.0165(7) -0.0044(6) -0.0009(6) -0.0021(5)
O12 O2- 0.0137(8) 0.0117(6) 0.0135(7) -0.0025(6) 0.0011(6) 0.0022(5)
O13 O2- 0.0127(8) 0.0116(7) 0.0197(8) -0.0048(6) 0.0045(6) -0.0012(6)
O14 O2- 0.0136(9) 0.0178(8) 0.0208(8) -0.0066(7) -0.0031(7) 0.0005(6)
O15 O2- 0.0226(10) 0.0128(7) 0.0160(8) -0.0028(7) -0.0062(7) 0.0034(6)
O16 O2- 0.0291(12) 0.0240(9) 0.0100(7) -0.0043(8) 0.0004(7) -0.0016(6)
O17 O2- 0.0242(11) 0.0123(7) 0.0200(8) -0.0035(7) 0.0009(7) 0.0027(6)
O18 O2- 0.0327(13) 0.0141(8) 0.0244(10) -0.0086(8) 0.0023(9) -0.0014(7)
O19 O2- 0.0383(14) 0.0273(10) 0.0099(7) -0.0124(10) -0.0003(8) -0.0014(7)
O20 O2- 0.0148(10) 0.0299(11) 0.0249(10) -0.0083(8) -0.0014(8) -0.0028(8)
Na1 Na1+ 0.0278(10) 0.0208(8) 0.237(4) 0.0006(7) -0.0510(17) -0.0092(15)
#End of TTdata_281397-ICSD