
#(C) 2019 by FIZ Karlsruhe - Leibniz Institute for Information Infrastructure.  All rights reserved.
data_281399-ICSD
_database_code_ICSD 281399
_audit_creation_date 2004-04-01
_chemical_name_systematic 'Sodium iron iron(III) tris(molybdate) - beta'
_chemical_formula_structural 'Na Fe2 (Mo O4)3'
_chemical_formula_sum 'Fe2 Mo3 Na1 O12'
_exptl_crystal_density_diffrn 3.94
_publ_section_title 'Structural investigation of the Na - Fe - Mo - O system'
loop_
_citation_id
_citation_journal_full
_citation_year
_citation_journal_volume
_citation_page_first
_citation_page_last
_citation_journal_id_ASTM
primary 'Acta Crystallographica, Section B: Structural Science' 2003 59 611 616
ASBSDK
loop_
_publ_author_name
'Muessig, E.'
'Bramnik, K.G.'
'Ehrenberg, H.'
_cell_length_a 6.834(1)
_cell_length_b 6.893(1)
_cell_length_c 11.667(3)
_cell_angle_alpha 76.23(2)
_cell_angle_beta 75.78(2)
_cell_angle_gamma 87.76(2)
_cell_volume 517.33
_cell_formula_units_Z 2
_symmetry_space_group_name_H-M 'P -1'
_symmetry_Int_Tables_number 2
_refine_ls_R_factor_all 0.036
loop_
_symmetry_equiv_pos_site_id
_symmetry_equiv_pos_as_xyz
1 '-x, -y, -z'
2 'x, y, z'
loop_
_atom_type_symbol
_atom_type_oxidation_number
Mo6+ 6
Fe2+ 2.5
Na1+ 1
O2- -2
loop_
_atom_site_label
_atom_site_type_symbol
_atom_site_symmetry_multiplicity
_atom_site_Wyckoff_symbol
_atom_site_fract_x
_atom_site_fract_y
_atom_site_fract_z
_atom_site_B_iso_or_equiv
_atom_site_occupancy
_atom_site_attached_hydrogens
Mo1 Mo6+ 2 i 0.34846(18) 0.24785(15) 0.10452(10) 0.0104(3) 1. 0
Mo2 Mo6+ 2 i 0.75174(18) 0.24724(15) 0.50071(10) 0.0084(3) 1. 0
Mo3 Mo6+ 2 i 0.19510(18) 0.20023(15) -.25315(10) 0.0096(3) 1. 0
Fe1 Fe2+ 2 i 0.3263(3) 0.6913(2) 0.19259(16) 0.0087(4) 1. 0
Fe2 Fe2+ 2 i 0.3054(3) 0.2959(2) 0.40831(16) 0.0100(4) 1. 0
Na1 Na1+ 2 i 0.1862(10) 0.6040(8) -.1423(6) 0.0307(16) 1. 0
O1 O2- 2 i 0.7263(14) 0.3914(12) 0.6142(8) 0.015(2) 1. 0
O2 O2- 2 i 0.6696(15) 0.0028(12) 0.5788(8) 0.018(2) 1. 0
O3 O2- 2 i 0.6114(14) 0.3338(13) 0.3914(8) 0.016(2) 1. 0
O4 O2- 2 i 0.3607(14) 0.3737(12) 0.2240(8) 0.014(2) 1. 0
O5 O2- 2 i 0.3092(16) -.0063(13) 0.1674(9) 0.023(2) 1. 0
O6 O2- 2 i 0.3816(13) 0.2899(13) -.1962(8) 0.014(2) 1. 0
O7 O2- 2 i 1.0024(14) 0.2534(13) 0.4214(8) 0.017(2) 1. 0
O8 O2- 2 i -.0346(14) 0.3244(13) -.2016(9) 0.018(2) 1. 0
O9 O2- 2 i 0.1767(17) -.0537(13) -.2059(10) 0.032(3) 1. 0
O10 O2- 2 i 0.1525(15) 0.3439(13) 0.0413(8) 0.018(2) 1. 0
O11 O2- 2 i 0.5773(14) 0.2916(14) -.0084(9) 0.018(2) 1. 0
O12 O2- 2 i 0.2605(17) 0.2659(15) -.4136(8) 0.028(3) 1. 0
loop_
_atom_site_aniso_label
_atom_site_aniso_type_symbol
_atom_site_aniso_U_11
_atom_site_aniso_U_22
_atom_site_aniso_U_33
_atom_site_aniso_U_12
_atom_site_aniso_U_13
_atom_site_aniso_U_23
Mo1 Mo6+ 0.0099(8) 0.0109(5) 0.0118(6) 0.0002(4) -0.0026(5) -0.0054(4)
Mo2 Mo6+ 0.0087(7) 0.0082(5) 0.0090(5) 0.0012(4) -0.0028(5) -0.0029(4)
Mo3 Mo6+ 0.0100(8) 0.0102(5) 0.0090(5) -0.0011(4) -0.0023(5) -0.0026(4)
Fe1 Fe2+ 0.0098(12) 0.0091(8) 0.0080(8) 0.0021(7) -0.0027(8) -0.0029(7)
Fe2 Fe2+ 0.0130(12) 0.0079(8) 0.0090(9) -0.0009(7) -0.0030(8) -0.0010(7)
Na1 Na1+ 0.033(4) 0.013(3) 0.041(4) 0.001(2) -0.007(3) -0.002(3)
O1 O2- 0.019(6) 0.011(4) 0.019(5) -0.006(4) -0.007(5) -0.009(4)
O2 O2- 0.020(6) 0.013(4) 0.022(5) -0.004(4) -0.009(5) -0.005(4)
O3 O2- 0.003(6) 0.028(5) 0.015(5) 0.004(4) 0.000(4) -0.003(4)
O4 O2- 0.009(6) 0.009(4) 0.023(5) -0.001(3) -0.005(4) -0.002(4)
O5 O2- 0.031(7) 0.016(4) 0.025(5) -0.002(4) -0.013(5) -0.005(4)
O6 O2- 0.004(6) 0.021(5) 0.016(5) 0.000(4) 0.000(4) -0.006(4)
O7 O2- 0.009(6) 0.027(5) 0.017(5) 0.000(4) -0.004(4) -0.010(4)
O8 O2- 0.004(6) 0.022(5) 0.028(6) 0.002(4) -0.002(5) -0.010(4)
O9 O2- 0.032(8) 0.012(5) 0.042(7) 0.003(4) 0.000(6) 0.001(5)
O10 O2- 0.021(6) 0.017(4) 0.016(5) 0.002(4) -0.009(5) 0.000(4)
O11 O2- 0.011(6) 0.023(5) 0.022(5) 0.011(4) -0.007(5) -0.008(4)
O12 O2- 0.039(8) 0.031(6) 0.010(5) 0.004(5) -0.004(5) -0.002(4)
#End of TTdata_281399-ICSD