
#(C) 2019 by FIZ Karlsruhe - Leibniz Institute for Information Infrastructure.  All rights reserved.
data_281400-ICSD
_database_code_ICSD 281400
_audit_creation_date 2004-04-01
_chemical_name_systematic 'Trisodium iron(I) iron tris(molybdate)'
_chemical_formula_structural 'Na3 Fe2 (Mo O4)3'
_chemical_formula_sum 'Fe2 Mo3 Na3 O12'
_chemical_name_structure_type Alluaudite
_exptl_crystal_density_diffrn 3.81
_publ_section_title 'Structural investigation of the Na - Fe - Mo - O system'
loop_
_citation_id
_citation_journal_full
_citation_year
_citation_journal_volume
_citation_page_first
_citation_page_last
_citation_journal_id_ASTM
primary 'Acta Crystallographica, Section B: Structural Science' 2003 59 611 616
ASBSDK
loop_
_publ_author_name
'Muessig, E.'
'Bramnik, K.G.'
'Ehrenberg, H.'
_cell_length_a 12.646(3)
_cell_length_b 13.685(3)
_cell_length_c 7.206(2)
_cell_angle_alpha 90.
_cell_angle_beta 112.56(3)
_cell_angle_gamma 90.
_cell_volume 1151.65
_cell_formula_units_Z 4
_symmetry_space_group_name_H-M 'C 1 2/c 1'
_symmetry_Int_Tables_number 15
_refine_ls_R_factor_all 0.062
loop_
_symmetry_equiv_pos_site_id
_symmetry_equiv_pos_as_xyz
1 'x, -y, z+1/2'
2 '-x, -y, -z'
3 '-x, y, -z+1/2'
4 'x, y, z'
5 'x+1/2, -y+1/2, z+1/2'
6 '-x+1/2, -y+1/2, -z'
7 '-x+1/2, y+1/2, -z+1/2'
8 'x+1/2, y+1/2, z'
loop_
_atom_type_symbol
_atom_type_oxidation_number
Mo6+ 6
Fe1+ 1.5
Na1+ 1
O2- -2
loop_
_atom_site_label
_atom_site_type_symbol
_atom_site_symmetry_multiplicity
_atom_site_Wyckoff_symbol
_atom_site_fract_x
_atom_site_fract_y
_atom_site_fract_z
_atom_site_B_iso_or_equiv
_atom_site_occupancy
_atom_site_attached_hydrogens
Mo1 Mo6+ 8 f 0.77270(11) 0.3909(1) 0.37603(18) 0.0174(5) 1. 0
Mo2 Mo6+ 4 e 0 0.21172(13) 0.25 0.0209(6) 1. 0
Fe3 Fe1+ 8 f 0.2099(3) 0.3406(2) 0.6236(4) 0.0446(9) 1. 0
Na1 Na1+ 4 e 0 0.4971(13) 0.25 0.068(4) 1. 0
Na2 Na1+ 4 e 0 0.2297(6) 0.75 0.0206(19) 1. 0
Na3 Na1+ 4 a 0 0 0 0.047(3) 1. 0
O1 O2- 8 f 0.0405(10) 0.2821(8) 0.4705(15) 0.026(3) 1. 0
O2 O2- 8 f 0.628(1) 0.4147(8) 0.3183(17) 0.026(3) 1. 0
O3 O2- 8 f 0.8315(11) 0.3309(9) 0.6060(17) 0.030(3) 1. 0
O4 O2- 8 f 0.8471(12) 0.504(1) 0.3971(18) 0.040(3) 1. 0
O5 O2- 8 f 0.1078(12) 0.1311(9) 0.255(2) 0.044(4) 1. 0
O6 O2- 8 f 0.7875(11) 0.3193(11) 0.1836(18) 0.039(3) 1. 0
loop_
_atom_site_aniso_label
_atom_site_aniso_type_symbol
_atom_site_aniso_U_11
_atom_site_aniso_U_22
_atom_site_aniso_U_33
_atom_site_aniso_U_12
_atom_site_aniso_U_13
_atom_site_aniso_U_23
Mo1 Mo6+ 0.0167(9) 0.0227(8) 0.0113(8) -0.0038(6) 0.0036(5) 0.0010(5)
Mo2 Mo6+ 0.0320(13) 0.0152(10) 0.011(1) 0 0.0032(8) 0
Fe3 Fe1+ 0.050(2) 0.0470(19) 0.0382(19) 0.0026(14) 0.0186(15) -0.0016(13)
Na1 Na1+ 0.028(7) 0.138(14) 0.033(7) 0 0.007(5) 0
Na2 Na1+ 0.015(5) 0.027(5) 0.021(5) 0 0.008(3) 0
Na3 Na1+ 0.071(8) 0.024(5) 0.027(6) 0.012(5) -0.002(5) -0.004(4)
O1 O2- 0.025(7) 0.042(7) 0.013(6) -0.009(5) 0.009(5) -0.012(5)
O2 O2- 0.030(7) 0.014(5) 0.034(7) 0.004(5) 0.013(5) 0.001(5)
O3 O2- 0.034(8) 0.037(7) 0.019(6) 0.006(6) 0.008(5) -0.003(5)
O4 O2- 0.040(8) 0.051(8) 0.026(7) -0.015(7) 0.010(6) 0.010(6)
O5 O2- 0.049(9) 0.021(7) 0.046(9) 0.005(6) 0.001(7) -0.005(6)
O6 O2- 0.024(8) 0.068(10) 0.021(7) 0.002(7) 0.006(5) -0.003(6)
#End of TTdata_281400-ICSD