
#(C) 2019 by FIZ Karlsruhe - Leibniz Institute for Information Infrastructure.  All rights reserved.
data_28156-ICSD
_database_code_ICSD 28156
_audit_creation_date 1980-01-01
_chemical_name_systematic 'Trisodium beryllium decathorium fluoride'
_chemical_formula_structural 'Na3 Be Th10 F45'
_chemical_formula_sum 'Be1 F45 Na3 Th10'
_exptl_crystal_density_diffrn 6.62
_publ_section_title 'The crystal Structure of Na3 Be Th10 F45'
loop_
_citation_id
_citation_journal_full
_citation_year
_citation_journal_volume
_citation_page_first
_citation_page_last
_citation_journal_id_ASTM
primary

;
Acta Crystallographica, Section B: Structural Crystallography and Crystal
Chemistry
; 1973 29 2976 2978 ACBCAR
loop_
_publ_author_name
'Brunton, G.'
_cell_length_a 11.803(3)
_cell_length_b 11.803(3)
_cell_length_c 23.420(5)
_cell_angle_alpha 90.
_cell_angle_beta 90.
_cell_angle_gamma 90.
_cell_volume 3262.66
_cell_formula_units_Z 4
_symmetry_space_group_name_H-M 'P 42/n c m Z'
_symmetry_Int_Tables_number 138
_refine_ls_R_factor_all 0.0642
loop_
_symmetry_equiv_pos_site_id
_symmetry_equiv_pos_as_xyz
1 'y+1/2, x+1/2, -z'
2 'y+1/2, -x, -z+1/2'
3 '-y, x+1/2, -z+1/2'
4 '-y, -x, -z'
5 'x+1/2, y+1/2, -z'
6 '-x, y+1/2, -z+1/2'
7 'x+1/2, -y, -z+1/2'
8 '-x, -y, -z'
9 '-y+1/2, -x+1/2, z'
10 '-y+1/2, x, z+1/2'
11 'y, -x+1/2, z+1/2'
12 'y, x, z'
13 '-x+1/2, -y+1/2, z'
14 'x, -y+1/2, z+1/2'
15 '-x+1/2, y, z+1/2'
16 'x, y, z'
loop_
_atom_type_symbol
_atom_type_oxidation_number
Na1+ 1
Be2+ 2
Th4+ 4
F1- -1
loop_
_atom_site_label
_atom_site_type_symbol
_atom_site_symmetry_multiplicity
_atom_site_Wyckoff_symbol
_atom_site_fract_x
_atom_site_fract_y
_atom_site_fract_z
_atom_site_B_iso_or_equiv
_atom_site_occupancy
_atom_site_attached_hydrogens
Na1 Na1+ 4 e 0.25 0.25 0.4465(9) . 1. 0
Na2 Na1+ 8 i 0.0843(9) 0.0843(9) 0.6984(9) . 1. 0
Be1 Be2+ 4 b 0.75 0.25 0.75 1.3 1. 0
Th1 Th4+ 16 j 0.25797(6) 0.51584(5) 0.04799(2) . 1. 0
Th2 Th4+ 16 j 0.24451(6) -.01958(5) 0.35299(2) . 1. 0
Th3 Th4+ 8 i 0.10593(5) 0.10593(5) 0.19965(4) . 1. 0
F1 F1- 8 i 0.1579(13) 0.1579(13) 0.3655(8) . 1. 0
F2 F1- 8 i 0.1655(13) 0.1655(13) 0.0282(7) . 1. 0
F3 F1- 8 i 0.0489(11) 0.0489(11) 0.2944(10) . 1. 0
F4 F1- 8 i 0.0581(12) 0.0581(12) 0.0989(7) . 1. 0
F5 F1- 8 i 0.100(1) 0.100(1) 0.5392(7) . 1. 0
F6 F1- 8 i 0.1161(14) 0.1161(14) 0.8656(7) . 1. 0
F7 F1- 8 h 0.0879(12) -.0879(12) 0 . 1. 0
F8 F1- 8 g 0.1613(10) -.1613(10) 0.5 . 1. 0
F9 F1- 4 e 0.25 0.25 0.2019(13) . 1. 0
F10 F1- 16 j 0.4203(11) 0.5869(12) 0.1922(5) . 1. 0
F11 F1- 16 j 0.060(1) 0.2583(13) 0.1401(4) . 1. 0
F12 F1- 16 j 0.0577(11) 0.2575(14) 0.2618(5) . 1. 0
F13 F1- 16 j 0.1049(11) 0.592(1) 0.1056(5) . 1. 0
F14 F1- 16 j 0.1640(14) 0.8335(15) 0.0992(5) . 1. 0
F15 F1- 16 j 0.1926(10) 0.8357(9) 0.2906(4) . 1. 0
F16 F1- 16 j 0.2452(15) 0.0331(9) 0.4501(6) . 1. 0
loop_
_atom_site_aniso_label
_atom_site_aniso_type_symbol
_atom_site_aniso_beta_11
_atom_site_aniso_beta_22
_atom_site_aniso_beta_33
_atom_site_aniso_beta_12
_atom_site_aniso_beta_13
_atom_site_aniso_beta_23
Na1 Na1+ 0.0049(8) 0.0049(8) 0.0007(3) 0.0020(14) 0 0
Na2 Na1+ 0.0043(6) 0.0043(6) 0.0018(3) -.0007(7) 0.0005(4) 0.0005(4)
Th1 Th4+ 0.00206(4) 0.00201(3) 0.00045(1) -.00013(3) 0.00004(1) 0.00004(2)
Th2 Th4+ 0.00214(4) 0.00204(4) 0.00046(1) 0.00004(3) 0.00005(1) 0.00001(1)
Th3 Th4+ 0.0219(3) 0.0219(3) 0.00041(1) -.00023(4) -.00002(2) -.00002(2)
F1 F1- 0.0033(7) 0.0033(7) 0.0009(3) 0.0011(9) -.0007(4) -.0007(4)
F2 F1- 0.0037(7) 0.0037(7) 0.0004(2) 0.0005(9) 0.0002(3) 0.0002(3)
F3 F1- 0.0044(8) 0.0044(8) 0.0010(4) -.0022(11) 0.0008(4) 0.0008(4)
F4 F1- 0.0039(7) 0.0039(7) 0.0003(2) -.0003(9) -.0002(3) -.0002(3)
F5 F1- 0.0028(6) 0.0028(6) 0.0006(2) -.0012(8) -.0003(3) -.0003(3)
F6 F1- 0.0035(8) 0.0035(8) 0.0008(3) 0.0018(10) -.0004(4) -.0004(4)
F7 F1- 0.0042(8) 0.0042(8) 0.0005(2) 0.001(1) 0.0001(4) 0.0001(4)
F8 F1- 0.0018(5) 0.0018(5) 0.0008(3) -.0006(7) -.0002(4) -.0002(4)
F9 F1- 0.0047(11) 0.0047(11) 0.0005(3) -.0014(17) 0 0
F10 F1- 0.0034(8) 0.0035(8) 0.0007(2) 0.0001(6) 0.0002(3) -.0005(3)
F11 F1- 0.0030(7) 0.0029(8) 0.0004(1) 0.0001(7) 0.0002(3) 0.0004(3)
F12 F1- 0.0032(8) 0.0028(8) 0.0010(2) 0.0007(7) 0.0003(3) 0.0003(4)
F13 F1- 0.0030(7) 0.0017(6) 0.0008(2) 0.0013(6) 0.0001(3) 0.0002(3)
F14 F1- 0.004(1) 0.0059(12) 0.0007(2) -.0003(8) 0.0001(5) 0.0006(5)
F15 F1- 0.0030(7) 0.0021(6) 0.0004(2) -.0006(6) 0.0003(3) -.0004(3)
F16 F1- 0.0029(7) 0.0023(6) 0.0008(2) -.0006(8) -.0004(3) 0.0002(4)
#End of TTdata_28156-ICSD