
#(C) 2019 by FIZ Karlsruhe - Leibniz Institute for Information Infrastructure.  All rights reserved.
data_281546-ICSD
_database_code_ICSD 281546
_audit_creation_date 2004-10-01
_chemical_name_systematic 'Sodium nonayttrium hexakis(silicate) dioxide'
_chemical_formula_structural 'Na Y9 (Si O4)6 O2'
_chemical_formula_sum 'Na1 O26 Si6 Y9'
_chemical_name_structure_type Apatite#-(HE,P63/m)
_exptl_crystal_density_diffrn 4.58
_cell_measurement_temperature 270.
_publ_section_title

;
Lithium and sodium yttrium orthosilicate oxyapatite, Li Y9 (Si O4)6 O2 and Na
Y9 (Si O4)6 O2, at both 100 K and near room temperature
;
loop_
_citation_id
_citation_journal_full
_citation_year
_citation_journal_volume
_citation_page_first
_citation_page_last
_citation_journal_id_ASTM
primary 'Acta Crystallographica, Section C: Crystal Structure Communications'
2003 59 i120 i124 ACSCEE
loop_
_publ_author_name
'Redhammer, G.J.'
'Roth, G.'
_cell_length_a 9.3386(10)
_cell_length_b 9.3386(10)
_cell_length_c 6.7589(8)
_cell_angle_alpha 90.
_cell_angle_beta 90.
_cell_angle_gamma 120.
_cell_volume 510.47
_cell_formula_units_Z 1
_symmetry_space_group_name_H-M 'P 63/m'
_symmetry_Int_Tables_number 176
_refine_ls_R_factor_all 0.035
loop_
_symmetry_equiv_pos_site_id
_symmetry_equiv_pos_as_xyz
1 '-x+y, -x, -z+1/2'
2 '-y, x-y, -z+1/2'
3 'x, y, -z+1/2'
4 'x-y, x, -z'
5 'y, -x+y, -z'
6 '-x, -y, -z'
7 'x-y, x, z+1/2'
8 'y, -x+y, z+1/2'
9 '-x, -y, z+1/2'
10 '-x+y, -x, z'
11 '-y, x-y, z'
12 'x, y, z'
loop_
_atom_type_symbol
_atom_type_oxidation_number
Y3+ 3
Na1+ 1
Si4+ 4
O2- -2
loop_
_atom_site_label
_atom_site_type_symbol
_atom_site_symmetry_multiplicity
_atom_site_Wyckoff_symbol
_atom_site_fract_x
_atom_site_fract_y
_atom_site_fract_z
_atom_site_B_iso_or_equiv
_atom_site_occupancy
_atom_site_attached_hydrogens
Y1 Y3+ 6 h 0.23630(7) 0.24091(8) 0.25 0.0098(2) 1. 0
Y2 Y3+ 4 f 0.3333 0.6667 0.49809(18) 0.0140(3) 0.75 0
Na1 Na1+ 4 f 0.3333 0.6667 0.49809(18) 0.0140(3) 0.25 0
Si1 Si4+ 6 h 0.3976(2) 0.0261(2) 0.25 0.0080(4) 1. 0
O1 O2- 2 a 0 0 0.25 0.0127(16) 1. 0
O2 O2- 6 h 0.5975(6) 0.1225(6) 0.25 0.0159(10) 1. 0
O3 O2- 6 h 0.3133(7) -.1719(6) 0.25 0.0178(10) 1. 0
O4 O2- 12 i 0.3361(5) 0.0890(5) 0.0614(6) 0.0211(9) 1. 0
loop_
_atom_site_aniso_label
_atom_site_aniso_type_symbol
_atom_site_aniso_U_11
_atom_site_aniso_U_22
_atom_site_aniso_U_33
_atom_site_aniso_U_12
_atom_site_aniso_U_13
_atom_site_aniso_U_23
Y1 Y3+ 0.0118(3) 0.0112(3) 0.0080(3) 0.0071(3) 0 0
Y2 Y3+ 0.0143(3) 0.0143(3) 0.0134(5) 0.00714(16) 0 0
Na1 Na1+ 0.0143(3) 0.0143(3) 0.0134(5) 0.00714(16) 0 0
Si1 Si4+ 0.0084(8) 0.0075(8) 0.0084(9) 0.0042(7) 0 0
O1 O2- 0.007(2) 0.007(2) 0.024(5) 0.0035(10) 0 0
O2 O2- 0.009(2) 0.019(2) 0.022(3) 0.009(2) 0 0
O3 O2- 0.027(3) 0.007(2) 0.018(3) 0.008(2) 0 0
O4 O2- 0.039(2) 0.0228(19) 0.0108(19) 0.0222(17) -.0127(16) -.0096(14)
#End of TTdata_281546-ICSD