
#(C) 2019 by FIZ Karlsruhe - Leibniz Institute for Information Infrastructure.  All rights reserved.
data_281585-ICSD
_database_code_ICSD 281585
_audit_creation_date 2004-10-01
_chemical_name_systematic
'Sodium nickel arsenic(V) phosphorus(V) oxide (4/5/2.64/3.36/22)'
_chemical_formula_structural
'Na4 Ni5 ((As O4)0.73 (P O4)0.27)2 ((As2 O7)0.295 (P2 O7)0.705)2'
_chemical_formula_sum 'As2.64 Na4 Ni5 O22 P3.36'
_exptl_crystal_density_diffrn 3.87
_publ_section_title
'Na4 Ni5 ((As1-x Px) O4)2 ((As2y P2-2y) O7)2 (x = 0.27  and y = 0.295)'
loop_
_citation_id
_citation_journal_full
_citation_year
_citation_journal_volume
_citation_page_first
_citation_page_last
_citation_journal_id_ASTM
primary 'Acta Crystallographica, Section E: Structure Reports Online' 2004 60 i1
i2 ACSEBH
loop_
_publ_author_name
'Ben Smail, R.'
'Jouini, T.'
_cell_length_a 10.676(2)
_cell_length_b 6.716(1)
_cell_length_c 12.812(2)
_cell_angle_alpha 90.
_cell_angle_beta 103.77(1)
_cell_angle_gamma 90.
_cell_volume 892.22
_cell_formula_units_Z 2
_symmetry_space_group_name_H-M 'P 1 21/a 1'
_symmetry_Int_Tables_number 14
_refine_ls_R_factor_all 0.0241
loop_
_symmetry_equiv_pos_site_id
_symmetry_equiv_pos_as_xyz
1 'x+1/2, -y+1/2, z'
2 '-x, -y, -z'
3 '-x+1/2, y+1/2, -z'
4 'x, y, z'
loop_
_atom_type_symbol
_atom_type_oxidation_number
Ni2+ 2
As5+ 5
P5+ 5
As5+ 5
P5+ 5
As5+ 5
P5+ 5
Na1+ 1
O2- -2
loop_
_atom_site_label
_atom_site_type_symbol
_atom_site_symmetry_multiplicity
_atom_site_Wyckoff_symbol
_atom_site_fract_x
_atom_site_fract_y
_atom_site_fract_z
_atom_site_B_iso_or_equiv
_atom_site_occupancy
_atom_site_attached_hydrogens
Ni1 Ni2+ 2 d 0 0 0.5 0.00915(17) 1. 0
Ni2 Ni2+ 4 e 0.19757(5) 0.01111(8) 0.16483(4) 0.01275(15) 1. 0
Ni3 Ni2+ 4 e 0.21707(5) 0.23704(7) 0.36451(4) 0.00782(14) 1. 0
As1 As5+ 4 e 0.08907(7) 0.20966(11) 0.91873(6) 0.0093(3) 0.25(1) 0
P1 P5+ 4 e 0.08907(7) 0.20966(11) 0.91873(6) 0.0093(3) 0.75(2) 0
As2 As5+ 4 e 0.93149(6) 0.10195(10) 0.24501(5) 0.0071(2) 0.34(1) 0
P2 P5+ 4 e 0.93149(6) 0.10195(10) 0.24501(5) 0.0071(2) 0.66(2) 0
As3 As5+ 4 e 0.27348(4) 0.23408(7) 0.58506(4) 0.00626(17) 0.73(1) 0
P3 P5+ 4 e 0.27348(4) 0.23408(7) 0.58506(4) 0.00626(17) 0.27(2) 0
Na1 Na1+ 4 e 0.62987(19) 0.0226(3) 0.14797(15) 0.0220(4) 1. 0
Na2 Na1+ 4 e 0.5442(3) 0.0767(7) 0.6627(7) 0.0311(14) 0.84(2) 0
Na3 Na1+ 4 e 0.5314(17) 0.018(4) 0.605(4) 0.030(8) 0.16(2) 0
O1 O2- 4 e 0.1336(3) 0.2085(4) 0.4930(2) 0.0100(6) 1. 0
O2 O2- 4 e 0.3311(3) 0.2314(4) 0.2571(2) 0.0114(6) 1. 0
O3 O2- 4 e 0.7598(3) 0.0742(4) 0.6610(2) 0.0120(6) 1. 0
O4 O2- 4 e 0.3262(3) 0.0379(4) 0.6576(2) 0.0121(6) 1. 0
O5 O2- 4 e 0.8679(3) 0.2285(4) 0.4989(2) 0.0103(6) 1. 0
O6 O2- 4 e 0.9392(3) 0.2021(4) 0.8880(3) 0.0178(7) 1. 0
O7 O2- 4 e 0.0633(3) 0.1958(4) 0.2318(2) 0.0120(6) 1. 0
O8 O2- 4 e 0.1514(3) 0.2014(5) 0.0391(2) 0.0188(7) 1. 0
O9 O2- 4 e 0.6368(3) 0.1135(5) 0.8602(3) 0.0219(7) 1. 0
O10 O2- 4 e 0.0479(3) 0.0556(5) 0.6634(2) 0.0136(6) 1. 0
O11 O2- 4 e 0.1402(3) 0.0038(4) 0.8694(2) 0.0139(2) 1. 0
loop_
_atom_site_aniso_label
_atom_site_aniso_type_symbol
_atom_site_aniso_U_11
_atom_site_aniso_U_22
_atom_site_aniso_U_33
_atom_site_aniso_U_12
_atom_site_aniso_U_13
_atom_site_aniso_U_23
Ni1 Ni2+ 0.0085(3) 0.0095(3) 0.0096(3) 0.0001(3) 0.0024(3) -.0002(3)
Ni2 Ni2+ 0.0138(3) 0.0112(3) 0.0128(3) 0.0005(2) 0.0023(2) -.0011(2)
Ni3 Ni2+ 0.0075(3) 0.0092(3) 0.0068(3) -.00033(19) 0.00181(19) -.00006(18)
As1 As5+ 0.0107(4) 0.0087(4) 0.0086(4) -.0009(3) 0.0023(3) -.0002(3)
P1 P5+ 0.0107(4) 0.0087(4) 0.0086(4) -.0009(3) 0.0023(3) -.0002(3)
As2 As5+ 0.0066(3) 0.0080(4) 0.0066(3) 0.0003(2) 0.0018(2) 0.0001(2)
P2 P5+ 0.0066(3) 0.0080(4) 0.0066(3) 0.0003(2) 0.0018(2) 0.0001(2)
As3 As5+ 0.0064(3) 0.0058(3) 0.0065(3) -.00081(17) 0.00136(17) -.00039(17)
P3 P5+ 0.0064(3) 0.0058(3) 0.0065(3) -.00081(17) 0.00136(17) -.00039(17)
Na1 Na1+ 0.0294(10) 0.0156(9) 0.0196(9) -.0046(8) 0.0033(8) -.0025(7)
Na2 Na1+ 0.009(7) 0.032(11) 0.051(19) 0.011(6) 0.012(8) 0.017(12)
O1 O2- 0.0083(13) 0.0128(14) 0.0092(13) -.0017(11) 0.0028(11) 0.0016(11)
O2 O2- 0.0132(14) 0.0095(14) 0.0130(14) -.0028(11) 0.0061(11) -.0003(11)
O3 O2- 0.0138(14) 0.0097(13) 0.0128(14) 0.0025(12) 0.0037(11) -.0007(12)
O4 O2- 0.0143(14) 0.0085(14) 0.0138(14) -.0009(11) 0.0037(12) -.0018(11)
O5 O2- 0.0102(13) 0.0124(14) 0.0080(13) 0.0017(11) 0.0019(11) 0.0015(11)
O6 O2- 0.0168(15) 0.0133(15) 0.0216(16) -.0010(12) 0.0010(13) -.0019(12)
O7 O2- 0.0108(14) 0.0119(14) 0.0130(14) 0.0002(11) 0.0023(11) 0.0013(11)
O8 O2- 0.0233(17) 0.0178(16) 0.0143(15) -.0001(13) 0.0029(13) 0.0017(12)
O9 O2- 0.0254(17) 0.0162(16) 0.0238(17) 0.0069(14) 0.0051(14) -.0036(13)
O10 O2- 0.0128(14) 0.0170(15) 0.0105(13) 0.0004(12) 0.0017(11) 0.0013(12)
O11 O2- 0.0121(14) 0.0156(15) 0.0146(14) 0.0048(12) 0.0041(12) -.0025(12)
#End of TTdata_281585-ICSD