
#(C) 2018 by FIZ Karlsruhe - Leibniz Institute for Information Infrastructure.  All rights reserved.
data_281581-ICSD
_database_code_ICSD 281581
_audit_creation_date 2004-10-01
_chemical_name_systematic 'Lithium manganese vanadate(V)'
_chemical_formula_structural 'Li Mn (V O4)'
_chemical_formula_sum 'Li1 Mn1 O4 V1'
_chemical_name_structure_type Na2CrO4
_exptl_crystal_density_diffrn 3.66
_cell_measurement_temperature 297.
_publ_section_title 'Li Mn V O4'
loop_
_citation_id
_citation_journal_full
_citation_year
_citation_journal_volume
_citation_page_first
_citation_page_last
_citation_journal_id_ASTM
primary 'Acta Crystallographica, Section E: Structure Reports Online' 2003 59
i161 i163 ACSEBH
loop_
_publ_author_name
'Sugahara, M.'
'Yoshiasa, A.'
'Yamanaka, T.'
'Takei, H.'
_cell_length_a 5.7640(3)
_cell_length_b 8.7418(9)
_cell_length_c 6.3629(3)
_cell_angle_alpha 90.
_cell_angle_beta 90.
_cell_angle_gamma 90.
_cell_volume 320.61
_cell_formula_units_Z 4
_symmetry_space_group_name_H-M 'C m c m'
_symmetry_Int_Tables_number 63
_refine_ls_R_factor_all 0.022
loop_
_symmetry_equiv_pos_site_id
_symmetry_equiv_pos_as_xyz
1 '-x, y, -z+1/2'
2 '-x, -y, z+1/2'
3 '-x, y, z'
4 '-x, -y, -z'
5 'x, -y, z+1/2'
6 'x, y, -z+1/2'
7 'x, -y, -z'
8 'x, y, z'
9 '-x+1/2, y+1/2, -z+1/2'
10 '-x+1/2, -y+1/2, z+1/2'
11 '-x+1/2, y+1/2, z'
12 '-x+1/2, -y+1/2, -z'
13 'x+1/2, -y+1/2, z+1/2'
14 'x+1/2, y+1/2, -z+1/2'
15 'x+1/2, -y+1/2, -z'
16 'x+1/2, y+1/2, z'
loop_
_atom_type_symbol
_atom_type_oxidation_number
Li1+ 1
Mn2+ 2
V5+ 5
O2- -2
loop_
_atom_site_label
_atom_site_type_symbol
_atom_site_symmetry_multiplicity
_atom_site_Wyckoff_symbol
_atom_site_fract_x
_atom_site_fract_y
_atom_site_fract_z
_atom_site_B_iso_or_equiv
_atom_site_occupancy
_atom_site_attached_hydrogens
Li1 Li1+ 4 c 0 0.6637(7) 0.25 0.0241(11) 1. 0
Mn1 Mn2+ 4 a 0 0 0 0.00856(4) 1. 0
V1 V5+ 4 c 0 0.35663(3) 0.25 0.00709(4) 1. 0
O1 O2- 8 g 0.24050(17) 0.47975(10) 0.25 0.01086(13) 1. 0
O2 O2- 8 f 0 0.24600(12) 0.03228(15) 0.01164(14) 1. 0
loop_
_atom_site_aniso_label
_atom_site_aniso_type_symbol
_atom_site_aniso_U_11
_atom_site_aniso_U_22
_atom_site_aniso_U_33
_atom_site_aniso_U_12
_atom_site_aniso_U_13
_atom_site_aniso_U_23
Li1 Li1+ 0.033(3) 0.0183(19) 0.021(2) 0 0 0
Mn1 Mn2+ 0.00905(9) 0.00916(9) 0.00747(9) 0 0 0.00023(5)
V1 V5+ 0.00621(8) 0.00740(9) 0.00766(9) 0 0 0
O1 O2- 0.0097(3) 0.0122(3) 0.0107(3) -.0030(2) 0 0
O2 O2- 0.0133(3) 0.0109(3) 0.0107(3) 0 0 -.0023(2)
#End of TTdata_281581-ICSD