
#(C) 2018 by FIZ Karlsruhe - Leibniz Institute for Information Infrastructure.  All rights reserved.
data_281545-ICSD
_database_code_ICSD 281545
_audit_creation_date 2004-10-01
_chemical_name_systematic 'Lithium nonayttrium hexakis(silicate) dioxide'
_chemical_formula_structural 'Li Y9 (Si O4)6 O2'
_chemical_formula_sum 'Li1 O26 Si6 Y9'
_chemical_name_structure_type Apatite#-(HE,P63/m)
_exptl_crystal_density_diffrn 4.59
_cell_measurement_temperature 100.
_publ_section_title

;
Lithium and sodium yttrium orthosilicate oxyapatite, Li Y9 (Si O4)6 O2 and Na
Y9 (Si O4)6 O2, at both 100 K and near room temperature
;
loop_
_citation_id
_citation_journal_full
_citation_year
_citation_journal_volume
_citation_page_first
_citation_page_last
_citation_journal_id_ASTM
primary 'Acta Crystallographica, Section C: Crystal Structure Communications'
2003 59 i120 i124 ACSCEE
loop_
_publ_author_name
'Redhammer, G.J.'
'Roth, G.'
_cell_length_a 9.3108(14)
_cell_length_b 9.3108(14)
_cell_length_c 6.7088(10)
_cell_angle_alpha 90.
_cell_angle_beta 90.
_cell_angle_gamma 120.
_cell_volume 503.67
_cell_formula_units_Z 1
_symmetry_space_group_name_H-M 'P 63/m'
_symmetry_Int_Tables_number 176
_refine_ls_R_factor_all 0.024
loop_
_symmetry_equiv_pos_site_id
_symmetry_equiv_pos_as_xyz
1 '-x+y, -x, -z+1/2'
2 '-y, x-y, -z+1/2'
3 'x, y, -z+1/2'
4 'x-y, x, -z'
5 'y, -x+y, -z'
6 '-x, -y, -z'
7 'x-y, x, z+1/2'
8 'y, -x+y, z+1/2'
9 '-x, -y, z+1/2'
10 '-x+y, -x, z'
11 '-y, x-y, z'
12 'x, y, z'
loop_
_atom_type_symbol
_atom_type_oxidation_number
Y3+ 3
Li1+ 1
Si4+ 4
O2- -2
loop_
_atom_site_label
_atom_site_type_symbol
_atom_site_symmetry_multiplicity
_atom_site_Wyckoff_symbol
_atom_site_fract_x
_atom_site_fract_y
_atom_site_fract_z
_atom_site_B_iso_or_equiv
_atom_site_occupancy
_atom_site_attached_hydrogens
Y1 Y3+ 6 h 0.23355(5) 0.23739(5) 0.25 0.00495(15) 1. 0
Y2 Y3+ 4 f 0.3333 0.6667 0.49900(12) 0.0101(2) 0.75 0
Li1 Li1+ 4 f 0.3333 0.6667 0.49900(12) 0.0101(2) 0.25 0
Si1 Si4+ 6 h 0.40061(15) 0.02708(15) 0.25 0.0054(4) 1. 0
O1 O2- 2 a 0 0 0.25 0.0160(19) 1. 0
O2 O2- 6 h 0.6012(4) 0.1263(4) 0.25 0.0132(11) 1. 0
O3 O2- 6 h 0.3189(5) -.1711(4) 0.25 0.0175(11) 1. 0
O4 O2- 12 i 0.3402(4) 0.0901(3) 0.0588(4) 0.0202(6) 1. 0
loop_
_atom_site_aniso_label
_atom_site_aniso_type_symbol
_atom_site_aniso_U_11
_atom_site_aniso_U_22
_atom_site_aniso_U_33
_atom_site_aniso_U_12
_atom_site_aniso_U_13
_atom_site_aniso_U_23
Y1 Y3+ 0.0058(2) 0.0046(2) 0.0044(2) 0.00260(15) 0 0
Y2 Y3+ 0.0080(3) 0.0080(3) 0.0143(4) 0.00402(13) 0 0
Li1 Li1+ 0.0080(3) 0.0080(3) 0.0143(4) 0.00402(13) 0 0
Si1 Si4+ 0.0063(6) 0.0054(6) 0.0057(6) 0.0038(5) 0 0
O1 O2- 0.008(2) 0.008(2) 0.032(4) 0.004(1) 0 0
O2 O2- 0.0090(17) 0.0162(18) 0.017(2) 0.0085(14) 0 0
O3 O2- 0.033(2) 0.0078(17) 0.0124(19) 0.0103(15) 0 0
O4 O2- 0.0414(16) 0.0209(12) 0.0102(13) 0.0245(12) -.0167(12) -.0103(10)
#End of TTdata_281545-ICSD