
#(C) 2019 by FIZ Karlsruhe - Leibniz Institute for Information Infrastructure.  All rights reserved.
data_281610-ICSD
_database_code_ICSD 281610
_audit_creation_date 2004-10-01
_audit_update_record 2013-02-01
_chemical_name_systematic 'Sodium titanium(III) catena-disilicate'
_chemical_formula_structural 'Na Ti (Si2 O6)'
_chemical_formula_sum 'Na1 O6 Si2 Ti1'
_chemical_name_structure_type NaTiSi2O6
_chemical_name_mineral Clinopyroxene
_exptl_crystal_density_diffrn 3.39
_cell_measurement_temperature 190.
_publ_section_title

;
Single-crystal structure refinement of Na Ti Si2 O6 clinopyroxene at low
temperatures (298 > T > 100 K)
;
loop_
_citation_id
_citation_journal_full
_citation_year
_citation_journal_volume
_citation_page_first
_citation_page_last
_citation_journal_id_ASTM
primary 'Acta Crystallographica, Section B: Structural Science' 2003 59 730 746
ASBSDK
loop_
_publ_author_name
'Redhammer, G.J.'
'Ohashi, H.'
'Roth, G.'
_cell_length_a 5.3019(16)
_cell_length_b 6.5645(19)
_cell_length_c 6.589(2)
_cell_angle_alpha 84.83(2)
_cell_angle_beta 77.69(2)
_cell_angle_gamma 77.71(2)
_cell_volume 218.68
_cell_formula_units_Z 2
_symmetry_space_group_name_H-M 'P -1'
_symmetry_Int_Tables_number 2
_refine_ls_R_factor_all 0.0279
loop_
_symmetry_equiv_pos_site_id
_symmetry_equiv_pos_as_xyz
1 '-x, -y, -z'
2 'x, y, z'
loop_
_atom_type_symbol
_atom_type_oxidation_number
Na1+ 1
Ti3+ 3
Si4+ 4
O2- -2
loop_
_atom_site_label
_atom_site_type_symbol
_atom_site_symmetry_multiplicity
_atom_site_Wyckoff_symbol
_atom_site_fract_x
_atom_site_fract_y
_atom_site_fract_z
_atom_site_B_iso_or_equiv
_atom_site_occupancy
_atom_site_attached_hydrogens
Na1 Na1+ 2 i 0.7564(7) 0.8040(4) 0.7006(5) 0.0081(3) 1. 0
Ti1 Ti3+ 2 i 0.2556(3) 0.59831(19) 0.9038(2) 0.00137(13) 1. 0
Si1 Si4+ 2 i 0.7415(3) 0.2998(3) 0.6156(3) 0.0016(3) 1. 0
Si2 Si4+ 2 i 1.2406(3) 0.1217(3) 0.7950(3) 0.0010(3) 1. 0
O1 O2- 2 i 0.8056(7) 0.3940(7) 0.3840(7) 0.0036(8) 1. 0
O2 O2- 2 i 0.6438(7) 0.4643(7) 0.8023(7) 0.0018(8) 1. 0
O3 O2- 2 i 0.5166(7) 0.1564(7) 0.6388(7) 0.0022(8) 1. 0
O4 O2- 2 i 1.0144(8) 0.1410(8) 0.6563(8) 0.0044(8) 1. 0
O5 O2- 2 i 1.1489(8) 0.3042(7) 0.9603(7) 0.0040(8) 1. 0
O6 O2- 2 i 1.3022(8) -.1121(7) 0.8915(8) 0.0045(9) 1. 0
loop_
_atom_site_aniso_label
_atom_site_aniso_type_symbol
_atom_site_aniso_U_11
_atom_site_aniso_U_22
_atom_site_aniso_U_33
_atom_site_aniso_U_12
_atom_site_aniso_U_13
_atom_site_aniso_U_23
Na1 Na1+ 0.0064(6) 0.0042(13) 0.0119(15) 0.0026(9) -.0019(9) 0.0013(5)
#End of TTdata_281610-ICSD