
#(C) 2019 by FIZ Karlsruhe - Leibniz Institute for Information Infrastructure.  All rights reserved.
data_281615-ICSD
_database_code_ICSD 281615
_audit_creation_date 2004-10-01
_audit_update_record 2013-02-01
_chemical_name_systematic 'Sodium titanium(III) disilicate'
_chemical_formula_structural 'Na Ti (Si2 O6)'
_chemical_formula_sum 'Na1 O6 Si2 Ti1'
_chemical_name_structure_type NaTiSi2O6
_chemical_name_mineral Clinopyroxene
_exptl_crystal_density_diffrn 3.4
_cell_measurement_temperature 140.
_publ_section_title

;
Single-crystal structure refinement of Na Ti Si2 O6 clinopyroxene at low
temperatures (298 > T > 100 K)
;
loop_
_citation_id
_citation_journal_full
_citation_year
_citation_journal_volume
_citation_page_first
_citation_page_last
_citation_journal_id_ASTM
primary 'Acta Crystallographica, Section B: Structural Science' 2003 59 730 746
ASBSDK
loop_
_publ_author_name
'Redhammer, G.J.'
'Ohashi, H.'
'Roth, G.'
_cell_length_a 5.2977(16)
_cell_length_b 6.527(2)
_cell_length_c 6.604(2)
_cell_angle_alpha 84.65(3)
_cell_angle_beta 77.71(2)
_cell_angle_gamma 77.75(2)
_cell_volume 217.76
_cell_formula_units_Z 2
_symmetry_space_group_name_H-M 'P -1'
_symmetry_Int_Tables_number 2
_refine_ls_R_factor_all 0.0275
loop_
_symmetry_equiv_pos_site_id
_symmetry_equiv_pos_as_xyz
1 '-x, -y, -z'
2 'x, y, z'
loop_
_atom_type_symbol
_atom_type_oxidation_number
Na1+ 1
Ti3+ 3
Si4+ 4
O2- -2
loop_
_atom_site_label
_atom_site_type_symbol
_atom_site_symmetry_multiplicity
_atom_site_Wyckoff_symbol
_atom_site_fract_x
_atom_site_fract_y
_atom_site_fract_z
_atom_site_B_iso_or_equiv
_atom_site_occupancy
_atom_site_attached_hydrogens
Na1 Na1+ 2 i 0.7583(7) 0.8035(5) 0.6994(6) 0.0067(4) 1. 0
Ti1 Ti3+ 2 i 0.2581(3) 0.5978(2) 0.9045(2) 0.0010(18) 1. 0
Si1 Si4+ 2 i 0.7421(4) 0.3005(3) 0.6144(3) 0.0013(4) 1. 0
Si2 Si4+ 2 i 1.2410(3) 0.1225(3) 0.7949(3) 0.0010(4) 1. 0
O1 O2- 2 i 0.8060(8) 0.3939(8) 0.3822(8) 0.0029(10) 1. 0
O2 O2- 2 i 0.6460(8) 0.4641(8) 0.8004(8) 0.0021(10) 1. 0
O3 O2- 2 i 0.5172(8) 0.1549(8) 0.6407(8) 0.0021(9) 1. 0
O4 O2- 2 i 1.0140(8) 0.1393(9) 0.6576(9) 0.0032(10) 1. 0
O5 O2- 2 i 1.1479(8) 0.3052(8) 0.9612(8) 0.0030(10) 1. 0
O6 O2- 2 i 1.3025(8) -.1119(8) 0.8927(8) 0.0034(10) 1. 0
loop_
_atom_site_aniso_label
_atom_site_aniso_type_symbol
_atom_site_aniso_U_11
_atom_site_aniso_U_22
_atom_site_aniso_U_33
_atom_site_aniso_U_12
_atom_site_aniso_U_13
_atom_site_aniso_U_23
Na1 Na1+ 0.0048(7) 0.0022(17) 0.0117(19) 0.0019(10) -.0014(11) 0.0011(6)
#End of TTdata_281615-ICSD