
#(C) 2019 by FIZ Karlsruhe - Leibniz Institute for Information Infrastructure.  All rights reserved.
data_281728-ICSD
_database_code_ICSD 281728
_audit_creation_date 2004-10-01
_chemical_name_systematic 'Sodium niobium sulfide (0.5/1/2)'
_chemical_formula_structural 'Na0.5 Nb S2'
_chemical_formula_sum 'Na0.5 Nb1 S2'
_chemical_name_structure_type NaxNbS2
_exptl_crystal_density_diffrn 3.95
_cell_measurement_temperature 150.
_publ_section_title

;
New metathesis routes to layered dichalcogenides: synthesis, crystal growth
and structure of Nay Nb X2 (y = 0.5, X = S, Se)
;
loop_
_citation_id
_citation_journal_full
_citation_year
_citation_journal_volume
_citation_page_first
_citation_page_last
_citation_journal_id_ASTM
primary 'Journal of Materials Chemistry' 2003 13 175 180 JMACEP
loop_
_publ_author_name
'Salyer, P.A.'
'Barker, M.G.'
'Blake, A.J.'
'Gregory, D.H.'
'Weston, D.P.'
'Wilson, C.'
_cell_length_a 3.3533(4)
_cell_length_b 3.3533(4)
_cell_length_c 14.547(3)
_cell_angle_alpha 90.
_cell_angle_beta 90.
_cell_angle_gamma 120.
_cell_volume 141.66
_cell_formula_units_Z 2
_symmetry_space_group_name_H-M 'P 63/m m c'
_symmetry_Int_Tables_number 194
_refine_ls_R_factor_all 0.0191
loop_
_symmetry_equiv_pos_site_id
_symmetry_equiv_pos_as_xyz
1 'x, x-y, -z+1/2'
2 '-x+y, y, -z+1/2'
3 '-y, -x, -z+1/2'
4 '-x+y, -x, -z+1/2'
5 '-y, x-y, -z+1/2'
6 'x, y, -z+1/2'
7 '-x, -x+y, z+1/2'
8 'x-y, -y, z+1/2'
9 'y, x, z+1/2'
10 'x-y, x, z+1/2'
11 'y, -x+y, z+1/2'
12 '-x, -y, z+1/2'
13 '-x, -x+y, -z'
14 'x-y, -y, -z'
15 'y, x, -z'
16 'x-y, x, -z'
17 'y, -x+y, -z'
18 '-x, -y, -z'
19 'x, x-y, z'
20 '-x+y, y, z'
21 '-y, -x, z'
22 '-x+y, -x, z'
23 '-y, x-y, z'
24 'x, y, z'
loop_
_atom_type_symbol
_atom_type_oxidation_number
S2- -2
Nb3+ 3.5
Na1+ 1
loop_
_atom_site_label
_atom_site_type_symbol
_atom_site_symmetry_multiplicity
_atom_site_Wyckoff_symbol
_atom_site_fract_x
_atom_site_fract_y
_atom_site_fract_z
_atom_site_B_iso_or_equiv
_atom_site_occupancy
_atom_site_attached_hydrogens
S1 S2- 4 e 0 0 0.35653(11) 0.0066(5) 1. 0
Nb1 Nb3+ 2 c 0.3333 0.6667 0.25 0.0055(5) 1. 0
Na1 Na1+ 4 f 0.6667 0.3333 0.4998(11) 0.016(4) 0.250(13) 0
loop_
_atom_site_aniso_label
_atom_site_aniso_type_symbol
_atom_site_aniso_U_11
_atom_site_aniso_U_22
_atom_site_aniso_U_33
_atom_site_aniso_U_12
_atom_site_aniso_U_13
_atom_site_aniso_U_23
S1 S2- 0.0052(6) 0.0052(6) 0.0092(8) 0.0026(3) 0 0
Nb1 Nb3+ 0.0045(5) 0.0045(5) 0.0076(6) 0.0022(3) 0 0
Na1 Na1+ 0.023(4) 0.023(4) 0.004(5) 0.011(2) 0 0
#End of TTdata_281728-ICSD