
#(C) 2019 by FIZ Karlsruhe - Leibniz Institute for Information Infrastructure.  All rights reserved.
data_28217-ICSD
_database_code_ICSD 28217
_audit_creation_date 1980-01-01
_audit_update_record 2003-04-01
_chemical_name_systematic 'Disodium dizinc titanium germanium oxide'
_chemical_formula_structural 'Na2 Zn2 Ti Ge O7'
_chemical_formula_sum 'Ge1 Na2 O7 Ti1 Zn2'
_chemical_name_structure_type Na2TiZn2SiO7
_exptl_crystal_density_diffrn 4.3
_publ_section_title 'Crystal structure of Na2 Ti Zn2 Ge O4 O3'
loop_
_citation_id
_citation_journal_full
_citation_year
_citation_journal_volume
_citation_page_first
_citation_page_last
_citation_journal_id_ASTM
primary 'Zhurnal Strukturnoi Khimii' 1976 17 1080 1083 ZSTKAI
loop_
_publ_author_name
'Sandomirskii, P.A.'
'Evstigneyeva, T.'
'Simonov, M.A.'
'Belov, N.V.'
_cell_length_a 20.453(5)
_cell_length_b 11.844(4)
_cell_length_c 5.221(2)
_cell_angle_alpha 90.
_cell_angle_beta 90.
_cell_angle_gamma 90.
_cell_volume 1264.76
_cell_formula_units_Z 8
_symmetry_space_group_name_H-M 'P b c a'
_symmetry_Int_Tables_number 61
_refine_ls_R_factor_all 0.044
loop_
_symmetry_equiv_pos_site_id
_symmetry_equiv_pos_as_xyz
1 'x+1/2, y, -z+1/2'
2 'x, -y+1/2, z+1/2'
3 '-x+1/2, y+1/2, z'
4 '-x, -y, -z'
5 '-x+1/2, -y, z+1/2'
6 '-x, y+1/2, -z+1/2'
7 'x+1/2, -y+1/2, -z'
8 'x, y, z'
loop_
_atom_type_symbol
_atom_type_oxidation_number
Na1+ 1
Zn2+ 2
Ti4+ 4
Ge4+ 4
O2- -2
loop_
_atom_site_label
_atom_site_type_symbol
_atom_site_symmetry_multiplicity
_atom_site_Wyckoff_symbol
_atom_site_fract_x
_atom_site_fract_y
_atom_site_fract_z
_atom_site_B_iso_or_equiv
_atom_site_occupancy
_atom_site_attached_hydrogens
Na1 Na1+ 8 c 0.1753(5) 0.3361(6) 0.2481(13) 1.44 1. 0
Na2 Na1+ 8 c -.0031(3) 0.3246(6) 0.2667(13) 1.4 1. 0
Zn1 Zn2+ 8 c 0.24110(7) 0.0811(2) 0.2555(3) 0.41 1. 0
Zn2 Zn2+ 8 c 0.42791(6) 0.0809(2) 0.2126(3) 0.46 1. 0
Ti1 Ti4+ 8 c 0.3344(1) 0.3153(2) 0.2118(5) 0.29 1. 0
Ge1 Ge4+ 8 c 0.08888(6) 0.0715(1) 0.2164(2) 0.36 1. 0
O1 O2- 8 c 0.3876(4) 0.2055(8) 0.4100(18) 0.52 1. 0
O2 O2- 8 c 0.2778(4) 0.4330(9) 0.1046(18) 0.75 1. 0
O3 O2- 8 c 0.0847(5) 0.4394(7) 0.3833(17) 0.78 1. 0
O4 O2- 8 c 0.2856(4) 0.1962(8) 0.0447(18) 0.52 1. 0
O5 O2- 8 c 0.0177(4) 0.1334(8) 0.3299(18) 0.63 1. 0
O6 O2- 8 c 0.4006(4) 0.4336(8) 0.3474(17) 0.64 1. 0
O7 O2- 8 c 0.1558(4) 0.1500(8) 0.3037(19) 0.77 1. 0
#End of TTdata_28217-ICSD