
#(C) 2019 by FIZ Karlsruhe - Leibniz Institute for Information Infrastructure.  All rights reserved.
data_28369-ICSD
_database_code_ICSD 28369
_audit_creation_date 1980-01-01
_audit_update_record 2012-02-01
_chemical_name_systematic 'Disodium tecto-dialumotrisilicate dihydrate'
_chemical_formula_structural 'Na2 (Al2 Si3 O10) (H2 O)2'
_chemical_formula_sum 'H4 Al2 Na2 O12 Si3'
_chemical_name_structure_type Natrolite-frame
_chemical_name_mineral Natrolite
_exptl_crystal_density_diffrn 2.24
_publ_section_title
'Neutron diffraction determination of the hydrogen positions in natrolite'
loop_
_citation_id
_citation_journal_full
_citation_year
_citation_journal_volume
_citation_page_first
_citation_page_last
_citation_journal_id_ASTM
primary 'Canadian Journal of Physics' 1964 42 229 240 CJPHAD
loop_
_publ_author_name
'Torrie, B.H.'
'Brown, I.D.'
'Petch, H.E.'
_cell_length_a 18.300(10)
_cell_length_b 18.630(10)
_cell_length_c 6.60(2)
_cell_angle_alpha 90.
_cell_angle_beta 90.
_cell_angle_gamma 90.
_cell_volume 2250.13
_cell_formula_units_Z 8
_symmetry_space_group_name_H-M 'F d d 2'
_symmetry_Int_Tables_number 43
_refine_ls_R_factor_all 0.077
loop_
_symmetry_equiv_pos_site_id
_symmetry_equiv_pos_as_xyz
1 'x+1/4, -y+1/4, z+1/4'
2 '-x+1/4, y+1/4, z+1/4'
3 '-x, -y, z'
4 'x, y, z'
5 'x+1/4, -y+3/4, z+3/4'
6 '-x+1/4, y+3/4, z+3/4'
7 '-x, -y+1/2, z+1/2'
8 'x, y+1/2, z+1/2'
9 'x+3/4, -y+1/4, z+3/4'
10 '-x+3/4, y+1/4, z+3/4'
11 '-x+1/2, -y, z+1/2'
12 'x+1/2, y, z+1/2'
13 'x+3/4, -y+3/4, z+1/4'
14 '-x+3/4, y+3/4, z+1/4'
15 '-x+1/2, -y+1/2, z'
16 'x+1/2, y+1/2, z'
loop_
_atom_type_symbol
_atom_type_oxidation_number
Na1+ 1
Al3+ 3
Si4+ 4
O2- -2
H1+ 1
loop_
_atom_site_label
_atom_site_type_symbol
_atom_site_symmetry_multiplicity
_atom_site_Wyckoff_symbol
_atom_site_fract_x
_atom_site_fract_y
_atom_site_fract_z
_atom_site_B_iso_or_equiv
_atom_site_occupancy
_atom_site_attached_hydrogens
Na1 Na1+ 16 b 0.2216(4) 0.0311(4) 0.6158(37) 1.12 1. 0
Al1 Al3+ 16 b 0.0373(4) 0.0944(4) 0.6120(24) 0.5 1. 0
Si1 Si4+ 8 a 0 0 0 0.47 1. 0
Si2 Si4+ 16 b 0.1542(4) 0.2111(3) 0.6220(25) 0.59 1. 0
O1 O2- 16 b 0.0230(3) 0.0683(3) 0.8595(24) 1.07 1. 0
O2 O2- 16 b 0.0703(3) 0.1821(2) 0.5954(23) 0.3 1. 0
O3 O2- 16 b 0.0980(3) 0.0351(2) 0.4967(23) 0.9 1. 0
O4 O2- 16 b 0.2066(3) 0.1530(3) 0.7219(23) 0.89 1. 0
O5 O2- 16 b 0.1804(3) 0.2275(3) 0.3828(22) 1.08 1. 0
O6 O2- 16 b 0.0562(4) 0.1894(4) 0.1045(28) 1.78 1. 0
H1 H1+ 16 b 0.0513(7) 0.1443(6) 0.0282(32) 2.83 1. 0
H2 H1+ 16 b 0.1012(7) 0.1883(8) 0.1740(41) 3.73 1. 0
#End of TTdata_28369-ICSD