
#(C) 2019 by FIZ Karlsruhe - Leibniz Institute for Information Infrastructure.  All rights reserved.
data_2849-ICSD
_database_code_ICSD 2849
_audit_creation_date 1980-01-01
_audit_update_record 2012-02-01
_chemical_name_systematic 'Sodium tetrahydroxopentaoxoborate trihydrate'
_chemical_formula_structural 'Na (B5 O6 (O H)4) (H2 O)3'
_chemical_formula_sum 'H10 B5 Na1 O13'
_chemical_name_structure_type NaB5O6(OH)4(H2O)3
_chemical_name_mineral Sborgite
_exptl_crystal_density_diffrn 1.71
_publ_section_title 'The crystal structure of sborgite, Na B5 O6 (O H)4 (H2 O)3'
loop_
_citation_id
_citation_journal_full
_citation_year
_citation_journal_volume
_citation_page_first
_citation_page_last
_citation_journal_id_ASTM
primary

;
Acta Crystallographica, Section B: Structural Crystallography and Crystal
Chemistry
; 1972 28 3559 3567 ACBCAR
loop_
_publ_author_name
'Merlino, S.'
'Sartori, F.'
_cell_length_a 11.119(8)
_cell_length_b 16.474(14)
_cell_length_c 13.576(9)
_cell_angle_alpha 90.
_cell_angle_beta 112.50(2)
_cell_angle_gamma 90.
_cell_volume 2297.48
_cell_formula_units_Z 8
_symmetry_space_group_name_H-M 'C 1 2/c 1'
_symmetry_Int_Tables_number 15
_refine_ls_R_factor_all 0.062
loop_
_symmetry_equiv_pos_site_id
_symmetry_equiv_pos_as_xyz
1 'x, -y, z+1/2'
2 '-x, -y, -z'
3 '-x, y, -z+1/2'
4 'x, y, z'
5 'x+1/2, -y+1/2, z+1/2'
6 '-x+1/2, -y+1/2, -z'
7 '-x+1/2, y+1/2, -z+1/2'
8 'x+1/2, y+1/2, z'
loop_
_atom_type_symbol
_atom_type_oxidation_number
Na1+ 1
O2- -2
B3+ 3
H1+ 1
loop_
_atom_site_label
_atom_site_type_symbol
_atom_site_symmetry_multiplicity
_atom_site_Wyckoff_symbol
_atom_site_fract_x
_atom_site_fract_y
_atom_site_fract_z
_atom_site_B_iso_or_equiv
_atom_site_occupancy
_atom_site_attached_hydrogens
Na1 Na1+ 4 e 0 0.1528(2) 0.25 . 1. 0
Na2 Na1+ 4 e 0.5 0.1228(2) 0.25 . 1. 0
O1 O2- 8 f 0.4038(4) 0.2925(2) 0.0259(3) . 1. 0
O2 O2- 8 f 0.2264(3) 0.3827(2) -.0384(2) . 1. 0
O3 O2- 8 f 0.0413(3) 0.4635(2) -.1098(2) . 1. 0
O4 O2- 8 f 0.3281(3) 0.3561(2) 0.1487(2) . 1. 0
O5 O2- 8 f 0.1406(3) 0.4448(2) 0.0798(2) . 1. 0
O6 O2- 8 f 0.1979(3) 0.3784(2) 0.2491(2) . 1. 0
O7 O2- 8 f 0.3291(3) 0.4874(2) 0.2278(2) . 1. 0
O8 O2- 8 f 0.2189(3) 0.3449(2) 0.4259(2) . 1. 0
O9 O2- 8 f 0.3612(3) 0.4403(2) 0.4018(2) . 1. 0
O10 O2- 8 f 0.4750(3) 0.5562(2) 0.3755(2) . 1. 0
O11 O2- 8 f 0.0158(3) 0.2609(2) 0.1386(2) . 1. 0
O12 O2- 8 f 0.2278(3) 0.1422(2) 0.3588(3) . 1. 0
O13 O2- 8 f 0.3998(3) 0.2271(2) 0.3014(3) . 1. 0
B1 B3+ 8 f 0.2500(5) 0.4161(3) 0.1769(4) . 1. 0
B2 B3+ 8 f 0.3212(6) 0.3433(4) 0.0480(4) . 1. 0
B3 B3+ 8 f 0.1387(6) 0.4310(4) -.0189(4) . 1. 0
B4 B3+ 8 f 0.2552(6) 0.3863(4) 0.3571(4) . 1. 0
B5 B3+ 8 f 0.3867(5) 0.4940(3) 0.3358(4) . 1. 0
H1 H1+ 8 f 0.477 0.267 0.089 . 1. 0
H2 H1+ 8 f -.018 0.49 -.081 . 1. 0
H3 H1+ 8 f 0.121 0.316 0.4 . 1. 0
H4 H1+ 8 f 0.485 0.556 0.453 . 1. 0
H5 H1+ 8 f 0.091 0.301 0.162 . 1. 0
H6 H1+ 8 f 0.036 0.24 0.074 . 1. 0
H7 H1+ 8 f 0.236 0.149 0.436 . 1. 0
H8 H1+ 8 f 0.242 0.077 0.353 . 1. 0
H9 H1+ 8 f 0.379 0.268 0.25 . 1. 0
H10 H1+ 8 f 0.327 0.215 0.327 . 1. 0
loop_
_atom_site_aniso_label
_atom_site_aniso_type_symbol
_atom_site_aniso_beta_11
_atom_site_aniso_beta_22
_atom_site_aniso_beta_33
_atom_site_aniso_beta_12
_atom_site_aniso_beta_13
_atom_site_aniso_beta_23
Na1 Na1+ 0.0044(3) 0.0020(1) 0.0026(2) 0 0.0010(2) 0
Na2 Na1+ 0.0185(6) 0.0023(1) 0.0034(2) 0 0.0056(3) 0
O1 O2- 0.0073(4) 0.0029(2) 0.0025(2) 0.0014(2) 0.0018(2) 0.0001(1)
O2 O2- 0.0069(4) 0.0026(2) 0.0017(2) 0.0012(2) 0.0012(2) 0.0003(1)
O3 O2- 0.0079(4) 0.0034(2) 0.0010(2) 0.0022(2) -.0009(2) 0.0002(1)
O4 O2- 0.0052(4) 0.0021(1) 0.0019(2) 0.0006(2) 0.0008(2) 0.0002(1)
O5 O2- 0.0042(4) 0.0022(1) 0.0015(2) 0.0008(2) 0.0003(2) -.0001(1)
O6 O2- 0.0049(4) 0.0020(1) 0.0016(2) -.0008(2) 0.0003(2) -.0005(1)
O7 O2- 0.0054(4) 0.0018(1) 0.0013(2) -.0001(2) 0.0002(2) -.0001(1)
O8 O2- 0.0073(4) 0.0032(2) 0.0022(2) -.0021(2) 0.0015(2) 0.0001(1)
O9 O2- 0.0043(4) 0.0020(1) 0.0017(2) -.0015(2) 0.0002(2) 0.0000(1)
O10 O2- 0.0059(4) 0.0021(1) 0.0024(2) -.0018(2) 0.0009(2) -.0001(1)
O11 O2- 0.0042(4) 0.0023(1) 0.0031(2) -.0004(2) 0.0013(2) -.0004(1)
O12 O2- 0.0055(4) 0.0020(1) 0.0034(2) -.0004(2) 0.0008(2) -.0004(1)
O13 O2- 0.0064(4) 0.0029(2) 0.0033(2) -.0001(2) 0.0015(3) 0.0004(2)
B1 B3+ 0.0042(7) 0.0021(2) 0.0009(3) 0.0001(3) 0.0000(3) 0.0003(2)
B2 B3+ 0.0037(6) 0.0017(2) 0.0034(3) 0.0003(3) 0.0019(4) -.0001(2)
B3 B3+ 0.0043(7) 0.0020(2) 0.0022(3) 0.0001(3) 0.0008(4) 0.0004(2)
B4 B3+ 0.0058(7) 0.0017(2) 0.0017(3) -.0002(3) 0.0012(3) -.0002(2)
B5 B3+ 0.0041(6) 0.0018(2) 0.0016(3) -.0003(3) 0.0005(3) -.0003(2)
#End of TTdata_2849-ICSD