
#(C) 2018 by FIZ Karlsruhe - Leibniz Institute for Information Infrastructure.  All rights reserved.
data_290299-ICSD
_database_code_ICSD 290299
_audit_creation_date 2014-02-01
_chemical_name_systematic 'Trilithium divanadium(III) tris(phosphate(V))'
_chemical_formula_structural 'Li3 V2 (P O4)3'
_chemical_formula_sum 'Li3 O12 P3 V2'
_exptl_crystal_density_diffrn 3.03
_cell_measurement_temperature 290.
_publ_section_title

;
Reinvestigation of trilithium divanadium(III) tris(orthophosphate), Li3 V2 (P
O4)3, based on single-crystal x-ray data
;
loop_
_citation_id
_citation_journal_full
_citation_year
_citation_journal_volume
_citation_page_first
_citation_page_last
_citation_journal_id_ASTM
primary 'Acta Crystallographica, Section E: Structure Reports Online' 2013 69
i11 i12 ACSEBH
loop_
_publ_author_name
'Yongho Kee'
'Hoseop Yun'
_cell_length_a 8.6201(4)
_cell_length_b 8.6013(4)
_cell_length_c 14.7465(7)
_cell_angle_alpha 90
_cell_angle_beta 125.204(3)
_cell_angle_gamma 90
_cell_volume 893.39
_cell_formula_units_Z 4
_symmetry_space_group_name_H-M 'P 1 21/c 1'
_symmetry_Int_Tables_number 14
_refine_ls_R_factor_all 0.0242
loop_
_symmetry_equiv_pos_site_id
_symmetry_equiv_pos_as_xyz
1 'x, -y+1/2, z+1/2'
2 '-x, -y, -z'
3 '-x, y+1/2, -z+1/2'
4 'x, y, z'
loop_
_atom_type_symbol
_atom_type_oxidation_number
Li1+ 1
V3+ 3
P5+ 5
O2- -2
loop_
_atom_site_label
_atom_site_type_symbol
_atom_site_symmetry_multiplicity
_atom_site_Wyckoff_symbol
_atom_site_fract_x
_atom_site_fract_y
_atom_site_fract_z
_atom_site_B_iso_or_equiv
_atom_site_occupancy
_atom_site_attached_hydrogens
Li1 Li1+ 4 e 0.1133(8) 0.5883(7) 0.1934(4) 0.0266(12) 1 0
Li2 Li1+ 4 e 0.1891(9) 0.1919(7) 0.2599(5) 0.0356(15) 1 0
Li3 Li1+ 4 e 0.4730(7) 0.2213(6) 0.1767(4) 0.0186(10) 1 0
V1 V3+ 4 e 0.13814(6) 0.52846(5) 0.38977(4) 0.00672(11) 1 0
V2 V3+ 4 e 0.36217(6) 0.53898(5) 0.11037(3) 0.00643(11) 1 0
P1 P5+ 4 e 0.04417(9) 0.25109(7) 0.00782(5) 0.00655(14) 1 0
P2 P5+ 4 e 0.45782(9) 0.39759(8) 0.35181(5) 0.00672(14) 1 0
P3 P5+ 4 e 0.75192(9) 0.38467(7) 0.14738(5) 0.00638(14) 1 0
O1 O2- 4 e 0.0267(3) 0.1788(2) 0.09643(16) 0.0126(4) 1 0
O2 O2- 4 e 0.0361(3) 0.3649(2) 0.42742(16) 0.0150(4) 1 0
O3 O2- 4 e 0.0850(2) 0.0021(2) 0.28038(15) 0.0102(4) 1 0
O4 O2- 4 e 0.1152(3) 0.6330(2) 0.06577(16) 0.0111(4) 1 0
O5 O2- 4 e 0.1785(3) 0.7151(2) 0.31962(15) 0.0109(4) 1 0
O6 O2- 4 e 0.2392(2) 0.3319(2) 0.07040(16) 0.0112(4) 1 0
O7 O2- 4 e 0.2789(3) 0.3861(2) 0.35185(16) 0.0125(4) 1 0
O8 O2- 4 e 0.3675(3) 0.5514(2) 0.54043(16) 0.0171(4) 1 0
O9 O2- 4 e 0.4764(3) 0.2357(2) 0.31413(15) 0.0099(4) 1 0
O10 O2- 4 e 0.5906(3) 0.0200(2) 0.23807(15) 0.0116(4) 1 0
O11 O2- 4 e 0.5994(3) 0.4098(2) 0.16881(15) 0.0110(4) 1 0
O12 O2- 4 e 0.6748(3) 0.4125(2) 0.02723(15) 0.0128(4) 1 0
loop_
_atom_site_aniso_label
_atom_site_aniso_type_symbol
_atom_site_aniso_U_11
_atom_site_aniso_U_22
_atom_site_aniso_U_33
_atom_site_aniso_U_12
_atom_site_aniso_U_13
_atom_site_aniso_U_23
Li1 Li1+ 0.030(3) 0.038(3) 0.017(3) -0.008(3) 0.017(2) -0.005(2)
Li2 Li1+ 0.042(3) 0.030(3) 0.022(3) -0.020(3) 0.010(3) -0.001(2)
Li3 Li1+ 0.018(2) 0.016(2) 0.021(3) 0.003(2) 0.011(2) 0.004(2)
V1 V3+ 0.0067(2) 0.0061(2) 0.0080(2) -0.00005(16) 0.00464(17) 0.00055(15)
V2 V3+ 0.0069(2) 0.0060(2) 0.0073(2) -0.00006(15) 0.00458(17) 0.00017(15)
P1 P5+ 0.0062(3) 0.0055(3) 0.0086(3) 0.0001(2) 0.0046(2) 0.0000(2)
P2 P5+ 0.0066(3) 0.0062(3) 0.0073(3) 0.0005(2) 0.0040(2) -0.0001(2)
P3 P5+ 0.0063(3) 0.0058(3) 0.0078(3) -0.0002(2) 0.0046(2) -0.0005(2)
O1 O2- 0.0118(9) 0.0150(9) 0.0122(9) -0.0020(7) 0.0076(8) 0.0018(8)
O2 O2- 0.0147(9) 0.0146(10) 0.0143(10) -0.0023(8) 0.0076(8) 0.0053(8)
O3 O2- 0.0106(8) 0.0081(8) 0.0093(9) 0.0027(7) 0.0042(7) 0.0009(7)
O4 O2- 0.0104(8) 0.0107(9) 0.0133(9) 0.0034(7) 0.0074(8) 0.0015(7)
O5 O2- 0.0163(9) 0.0075(9) 0.0119(9) -0.0022(7) 0.0099(8) -0.0003(7)
O6 O2- 0.0081(8) 0.0088(9) 0.0140(10) -0.0015(7) 0.0048(8) -0.0002(7)
O7 O2- 0.0128(9) 0.0105(9) 0.0191(10) -0.0010(7) 0.0120(8) -0.0031(8)
O8 O2- 0.0094(9) 0.0205(10) 0.0131(10) -0.0009(8) 0.0016(8) -0.0051(8)
O9 O2- 0.0133(9) 0.0062(8) 0.0106(9) 0.0022(7) 0.0071(7) 0.0002(7)
O10 O2- 0.0173(9) 0.0088(9) 0.0110(9) -0.0016(7) 0.0096(8) -0.0016(7)
O11 O2- 0.0109(8) 0.0124(9) 0.0119(9) 0.0027(7) 0.0078(8) 0.0020(7)
O12 O2- 0.0136(9) 0.0155(9) 0.0100(9) 0.0013(8) 0.0072(8) 0.0014(7)
#End of TTdata_290299-ICSD