
#(C) 2019 by FIZ Karlsruhe - Leibniz Institute for Information Infrastructure.  All rights reserved.
data_290301-ICSD
_database_code_ICSD 290301
_audit_creation_date 2014-02-01
_chemical_name_systematic 'Trisodium aluminum bis(arsenate(V))'
_chemical_formula_structural 'Na3 Al (As O4)2'
_chemical_formula_sum 'Al1 As2 Na3 O8'
_chemical_name_structure_type Na2MgSr(PO4)2
_exptl_crystal_density_diffrn 3.39
_cell_measurement_temperature 298.
_publ_section_title 'Na3 Al (As O4)2'
loop_
_citation_id
_citation_journal_full
_citation_year
_citation_journal_volume
_citation_page_first
_citation_page_last
_citation_journal_id_ASTM
primary 'Acta Crystallographica, Section E: Structure Reports Online' 2013 69
i14 i14 ACSEBH
loop_
_publ_author_name
'Bourguiba, N.F.'
'Zid, M.F.'
'Driss, A.'
_cell_length_a 6.5948(7)
_cell_length_b 11.8018(9)
_cell_length_c 9.4692(8)
_cell_angle_alpha 90.
_cell_angle_beta 96.520(10)
_cell_angle_gamma 90.
_cell_volume 732.23
_cell_formula_units_Z 4
_symmetry_space_group_name_H-M 'P 1 21/c 1'
_symmetry_Int_Tables_number 14
_refine_ls_R_factor_all 0.0217
loop_
_symmetry_equiv_pos_site_id
_symmetry_equiv_pos_as_xyz
1 'x, -y+1/2, z+1/2'
2 '-x, -y, -z'
3 '-x, y+1/2, -z+1/2'
4 'x, y, z'
loop_
_atom_type_symbol
_atom_type_oxidation_number
As5+ 5
Al3+ 3
Na1+ 1
O2- -2
loop_
_atom_site_label
_atom_site_type_symbol
_atom_site_symmetry_multiplicity
_atom_site_Wyckoff_symbol
_atom_site_fract_x
_atom_site_fract_y
_atom_site_fract_z
_atom_site_B_iso_or_equiv
_atom_site_occupancy
_atom_site_attached_hydrogens
As1 As5+ 4 e 0.86449(4) 0.67433(2) 0.37764(3) 0.00605(12) 1 0
As2 As5+ 4 e 0.60661(4) 0.41481(3) 0.17808(3) 0.00626(12) 1 0
Al1 Al3+ 4 e 0.28023(13) 0.14677(8) 0.43819(9) 0.00571(19) 1 0
Na1 Na1+ 4 e 0.2321(2) 0.84727(12) 0.63044(15) 0.0168(3) 1 0
Na2 Na1+ 4 e 0.9037(2) 0.91868(11) 0.21472(15) 0.0149(3) 1 0
Na3 Na1+ 4 e 0.6231(2) 0.39550(13) 0.52395(16) 0.0201(3) 1 0
O1 O2- 4 e 0.7295(3) 0.59717(19) 0.4790(2) 0.0126(5) 1 0
O2 O2- 4 e 0.9149(3) 0.80210(19) 0.4647(2) 0.0091(4) 1 0
O3 O2- 4 e 0.4121(3) 0.4885(2) 0.2261(3) 0.0131(5) 1 0
O4 O2- 4 e 0.2312(3) 0.00301(19) 0.4010(2) 0.0102(4) 1 0
O5 O2- 4 e 0.0778(3) 0.6176(2) 0.3349(2) 0.0113(4) 1 0
O6 O2- 4 e 0.5203(3) 0.32759(18) 0.0365(2) 0.0098(4) 1 0
O7 O2- 4 e 0.7477(3) 0.34378(19) 0.3040(2) 0.0123(5) 1 0
O8 O2- 4 e 0.7236(3) 0.71895(19) 0.2241(2) 0.0116(5) 1 0
loop_
_atom_site_aniso_label
_atom_site_aniso_type_symbol
_atom_site_aniso_U_11
_atom_site_aniso_U_22
_atom_site_aniso_U_33
_atom_site_aniso_U_12
_atom_site_aniso_U_13
_atom_site_aniso_U_23
As1 As5+ 0.00779(17) 0.00666(18) 0.00357(17) 0.00099(10) 0.00013(11)
-0.00017(10)
As2 As5+ 0.00722(17) 0.00686(18) 0.00430(18) 0.00007(10) -0.00108(11)
0.00082(10)
Al1 Al3+ 0.0066(4) 0.0071(4) 0.0032(4) 0.0002(3) -0.0009(3) -0.0007(3)
Na1 Na1+ 0.0191(7) 0.0168(7) 0.0155(7) -0.0028(5) 0.0064(5) -0.0036(6)
Na2 Na1+ 0.0146(6) 0.0155(7) 0.0145(7) 0.0011(5) 0.0012(5) 0.0002(5)
Na3 Na1+ 0.0125(6) 0.0265(8) 0.0205(7) 0.0017(6) -0.0013(5) -0.0017(6)
O1 O2- 0.0131(10) 0.0150(11) 0.0101(11) -0.0012(9) 0.0033(8) 0.0031(9)
O2 O2- 0.0114(10) 0.0079(9) 0.0080(10) 0.0004(8) 0.0011(8) -0.0045(9)
O3 O2- 0.0116(10) 0.0130(11) 0.0154(11) 0.0022(9) 0.0053(9) -0.0017(9)
O4 O2- 0.0107(10) 0.0091(10) 0.0108(10) 0.0014(8) 0.0016(8) -0.0018(9)
O5 O2- 0.0109(10) 0.0119(11) 0.0116(11) 0.0042(9) 0.0037(8) -0.0018(9)
O6 O2- 0.0110(10) 0.0113(11) 0.0065(10) -0.0002(8) -0.0017(8) -0.0016(8)
O7 O2- 0.0155(11) 0.0129(11) 0.0076(10) 0.0010(9) -0.0034(8) 0.0033(9)
O8 O2- 0.0170(11) 0.0123(11) 0.0043(10) 0.0052(9) -0.0037(8) -0.0003(8)
#End of TTdata_290301-ICSD