
#(C) 2019 by FIZ Karlsruhe - Leibniz Institute for Information Infrastructure.  All rights reserved.
data_290459-ICSD
_database_code_ICSD 290459
_audit_creation_date 2014-02-01
_chemical_name_systematic 'Disodium ditungstate'
_chemical_formula_structural 'Na2 (W2 O7)'
_chemical_formula_sum 'Na2 O7 W2'
_chemical_name_structure_type Na2Mo2O7
_exptl_crystal_density_diffrn 5.5
_publ_section_title
'Crystal structure studies on plate/shelf like disodium ditungstate'
loop_
_citation_id
_citation_journal_full
_citation_year
_citation_journal_volume
_citation_page_first
_citation_page_last
_citation_journal_id_ASTM
primary 'Bulletin of Materials Science' 2013 36 149 152 BUMSDW
loop_
_publ_author_name
'Jovanovic, Dragana J.'
'Validzic, Ivana Lj.'
'Mitric, Miodrag'
'Nedeljkovic, Jovan M.'
_cell_length_a 7.22192(11)
_cell_length_b 11.91559(17)
_cell_length_c 14.74755(23)
_cell_angle_alpha 90.
_cell_angle_beta 90.
_cell_angle_gamma 90.
_cell_volume 1269.08
_cell_formula_units_Z 8
_symmetry_space_group_name_H-M 'C m c a'
_symmetry_Int_Tables_number 64
_refine_ls_R_factor_all 0.062
loop_
_symmetry_equiv_pos_site_id
_symmetry_equiv_pos_as_xyz
1 '-x, -y+1/2, z+1/2'
2 '-x, y+1/2, -z+1/2'
3 '-x, y, z'
4 '-x, -y, -z'
5 'x, y+1/2, -z+1/2'
6 'x, -y+1/2, z+1/2'
7 'x, -y, -z'
8 'x, y, z'
9 '-x+1/2, -y, z+1/2'
10 '-x+1/2, y, -z+1/2'
11 '-x+1/2, y+1/2, z'
12 '-x+1/2, -y+1/2, -z'
13 'x+1/2, y, -z+1/2'
14 'x+1/2, -y, z+1/2'
15 'x+1/2, -y+1/2, -z'
16 'x+1/2, y+1/2, z'
loop_
_atom_type_symbol
_atom_type_oxidation_number
W6+ 6
Na1+ 1
O2- -2
loop_
_atom_site_label
_atom_site_type_symbol
_atom_site_symmetry_multiplicity
_atom_site_Wyckoff_symbol
_atom_site_fract_x
_atom_site_fract_y
_atom_site_fract_z
_atom_site_B_iso_or_equiv
_atom_site_occupancy
_atom_site_attached_hydrogens
W1 W6+ 8 e 0.25 0.0862(1) 0.25 0.72(4) 1. 0
W2 W6+ 8 f 0 0.2487(2) 0.0960(1) 0.91(4) 1. 0
Na1 Na1+ 8 f 0 0.3311(9) 0.3360(7) 0.95(15) 1. 0
Na2 Na1+ 8 d 0.2474(36) 0 0 0.95(15) 1. 0
O1 O2- 16 g 0.2168(15) 0.2456(7) 0.1487(7) 2.19(28) 1. 0
O2 O2- 16 g 0.1882(20) 0.4907(7) 0.3350(7) 2.19(28) 1. 0
O3 O2- 8 f 0 0.3347(16) 0.4920(10) 2.66(35) 1. 0
O4 O2- 8 f 0 0.1202(12) 0.2709(11) 2.66(35) 1. 0
O5 O2- 8 f 0 0.3843(16) 0.0176(11) 2.66(35) 1. 0
#End of TTdata_290459-ICSD