
#(C) 2018 by FIZ Karlsruhe - Leibniz Institute for Information Infrastructure.  All rights reserved.
data_290831-ICSD
_database_code_ICSD 290831
_audit_creation_date 2014-08-01
_chemical_name_systematic 'Tetralithium germanium(IV) tetrasulfide'
_chemical_formula_structural 'Li4 Ge S4'
_chemical_formula_sum 'Ge1 Li4 S4'
_chemical_name_structure_type K2Cd3S4
_exptl_crystal_density_diffrn 2.25
_cell_measurement_temperature 296.
_publ_section_title

;
Synthesis, structure, physicochemical characterization and electronic
structure of thio-lithium super ionic conductors, Li4 Ge S4 and Li4 Sn S4
;
loop_
_citation_id
_citation_journal_full
_citation_year
_citation_journal_volume
_citation_page_first
_citation_page_last
_citation_journal_id_ASTM
primary 'Journal of Alloys and Compounds' 2014 586 736 744 JALCEU
loop_
_publ_author_name
'MacNeil, Joseph H.'
'Massi, Danielle M.'
'Zhang, Jian-Han'
'Rosmus, Kimberly A.'
'Brunetta, Carl D.'
'Gentile, Taylor A.'
'Aitken, Jennifer A.'
_cell_length_a 14.001(4)
_cell_length_b 7.766(2)
_cell_length_c 6.193(2)
_cell_angle_alpha 90.
_cell_angle_beta 90.
_cell_angle_gamma 90.
_cell_volume 673.38
_cell_formula_units_Z 4
_symmetry_space_group_name_H-M 'P n m a'
_symmetry_Int_Tables_number 62
_refine_ls_R_factor_all 0.0153
loop_
_symmetry_equiv_pos_site_id
_symmetry_equiv_pos_as_xyz
1 'x+1/2, y, -z+1/2'
2 'x, -y+1/2, z'
3 '-x+1/2, y+1/2, z+1/2'
4 '-x, -y, -z'
5 '-x+1/2, -y, z+1/2'
6 '-x, y+1/2, -z'
7 'x+1/2, -y+1/2, -z+1/2'
8 'x, y, z'
loop_
_atom_type_symbol
_atom_type_oxidation_number
Li1+ 1
Ge4+ 4
S2- -2
loop_
_atom_site_label
_atom_site_type_symbol
_atom_site_symmetry_multiplicity
_atom_site_Wyckoff_symbol
_atom_site_fract_x
_atom_site_fract_y
_atom_site_fract_z
_atom_site_B_iso_or_equiv
_atom_site_occupancy
_atom_site_attached_hydrogens
Li1 Li1+ 4 a 0 0 0 0.042(1) 1. 0
Li2 Li1+ 4 c 0.4117(2) 0.25 0.1294(5) 0.026(1) 1. 0
Li3 Li1+ 8 d 0.1777(2) 0.0000(3) 0.1915(4) 0.033(1) 1. 0
Ge1 Ge4+ 4 c 0.0890(1) 0.25 0.6485(1) 0.012(1) 1. 0
S1 S2- 4 c 0.0862(1) 0.25 0.2906(1) 0.015(1) 1. 0
S2 S2- 8 d 0.1567(1) 0.0149(1) 0.7787(1) 0.016(1) 1. 0
S3 S2- 4 c 0.4391(2) 0.25 0.7308(1) 0.014(1) 1. 0
#End of TTdata_290831-ICSD