
#(C) 2017 by FIZ Karlsruhe - Leibniz Institute for Information Infrastructure.  All rights reserved.
data_2910-ICSD
_database_code_ICSD 2910
_audit_creation_date 1980-01-01
_audit_update_record 1988-01-26
_chemical_name_systematic 'Lithium hexaniobium 15-oxide fluoride'
_chemical_formula_structural 'Li Nb6 O15 F'
_chemical_formula_sum 'F1 Li1 Nb6 O15'
_exptl_crystal_density_diffrn 4.67
_publ_section_title 'The crystal structure of Li Nb6 O15 F'
loop_
_citation_id
_citation_journal_full
_citation_year
_citation_journal_volume
_citation_page_first
_citation_page_last
_citation_journal_id_ASTM
primary 'Acta Chemica Scandinavica (1-27,1973-42,1988)' 1965 19 2274 2284 ACSAA4
loop_
_publ_author_name
'Lundberg, M.'
_cell_length_a 16.635
_cell_length_b 3.964
_cell_length_c 8.888
_cell_angle_alpha 90.
_cell_angle_beta 90.
_cell_angle_gamma 90.
_cell_volume 586.08
_cell_formula_units_Z 2
_symmetry_space_group_name_H-M 'P m m a'
_symmetry_Int_Tables_number 51
_refine_ls_R_factor_all 0.091
loop_
_symmetry_equiv_pos_site_id
_symmetry_equiv_pos_as_xyz
1 '-x+1/2, -y, z'
2 'x+1/2, -y, -z'
3 'x, -y, z'
4 '-x, -y, -z'
5 'x+1/2, y, -z'
6 '-x+1/2, y, z'
7 '-x, y, -z'
8 'x, y, z'
loop_
_atom_type_symbol
_atom_type_oxidation_number
Nb5+ 5
O2- -2
F1- -1
O2- -2
Li1+ 1
loop_
_atom_site_label
_atom_site_type_symbol
_atom_site_symmetry_multiplicity
_atom_site_Wyckoff_symbol
_atom_site_fract_x
_atom_site_fract_y
_atom_site_fract_z
_atom_site_B_iso_or_equiv
_atom_site_occupancy
_atom_site_attached_hydrogens
Nb1 Nb5+ 2 e 0.25 0 0.6874(4) 0.49 1. 0
Nb2 Nb5+ 4 i 0.1305(16) 0 0.3973(3) 0.54 1. 0
Nb3 Nb5+ 4 i 0.05930(17) 0 0.8146(3) 0.52 1. 0
Nb4 Nb5+ 2 e 0.25 0 0.0578(5) 0.69 1. 0
O1 O2- 2 e 0.25 0 0.4582(42) 1.3 1. 0
O2 O2- 4 i 0.1309(13) 0 0.6149(23) 0.3 1. 0
O3 O2- 4 i 0.1744(13) 0 0.8823(22) 0 1. 0
F1 F1- 2 f 0.25 0.5 0.6922(32) 0.2 1. 0
O4 O2- 4 i 0.1636(14) 0 0.1963(23) 0.5 1. 0
O5 O2- 4 i 0.0206(18) 0 0.3386(30) 1.2 1. 0
O6 O2- 4 j 0.1286(16) 0.5 0.3998(29) 1.5 1. 0
O7 O2- 2 a 0 0 0 1.2 1. 0
O8 O2- 4 j 0.0583(16) 0.5 0.8170(27) 1. 1. 0
O9 O2- 2 f 0.25 0.5 0.0524(43) 1.5 1. 0
#End of TTdata_2910-ICSD