
#(C) 2019 by FIZ Karlsruhe - Leibniz Institute for Information Infrastructure.  All rights reserved.
data_291078-ICSD
_database_code_ICSD 291078
_audit_creation_date 2015-08-01
_chemical_name_systematic
'Potassium sodium cobalt tris(molybdate) (0.4/3.6/1/1)'
_chemical_formula_structural 'K0.4 Na3.6 Co (Mo O4)3'
_chemical_formula_sum 'Co1 K0.4 Mo3 Na3.6 O12'
_chemical_name_structure_type Alluaudite
_chemical_name_mineral Alluaudite
_exptl_crystal_density_diffrn 3.67
_cell_measurement_temperature 298.
_publ_section_title
'Structure cristalline de type alluaudite K0.4 Na3.6 Co(Mo O4)3'
loop_
_citation_id
_citation_journal_full
_citation_year
_citation_journal_volume
_citation_page_first
_citation_page_last
_citation_journal_id_ASTM
primary 'Acta Crystallographica, Section E: Crystallographic Communications'
2015 71 4 7 ACSECI
loop_
_publ_author_name
'Nasri, Rawia'
'Fakhar Bourguiba, Noura'
'Zid, Mohamed Faouzi'
_cell_length_a 12.8054(8)
_cell_length_b 13.5328(9)
_cell_length_c 7.1888(6)
_cell_angle_alpha 90.
_cell_angle_beta 112.239(8)
_cell_angle_gamma 90.
_cell_volume 1153.09
_cell_formula_units_Z 4
_symmetry_space_group_name_H-M 'C 1 2/c 1'
_symmetry_Int_Tables_number 15
_refine_ls_R_factor_all 0.0217
loop_
_symmetry_equiv_pos_site_id
_symmetry_equiv_pos_as_xyz
1 'x, -y, z+1/2'
2 '-x, -y, -z'
3 '-x, y, -z+1/2'
4 'x, y, z'
5 'x+1/2, -y+1/2, z+1/2'
6 '-x+1/2, -y+1/2, -z'
7 '-x+1/2, y+1/2, -z+1/2'
8 'x+1/2, y+1/2, z'
loop_
_atom_type_symbol
_atom_type_oxidation_number
Mo6+ 6
Co2+ 2
Na1+ 1
K1+ 1
Na1+ 1
O2- -2
loop_
_atom_site_label
_atom_site_type_symbol
_atom_site_symmetry_multiplicity
_atom_site_Wyckoff_symbol
_atom_site_fract_x
_atom_site_fract_y
_atom_site_fract_z
_atom_site_B_iso_or_equiv
_atom_site_occupancy
_atom_site_attached_hydrogens
Mo1 Mo6+ 4 e 0.5 0.21535(3) 0.25 0.02386(14) 1 0
Mo2 Mo6+ 8 f 0.73366(2) 0.60949(2) 0.62347(4) 0.02137(12) 1 0
Co1 Co2+ 8 f 0.71350(6) 0.33825(6) 0.62440(10) 0.01883(17) 0.5 0
Na1 Na1+ 8 f 0.71350(6) 0.33825(6) 0.62440(10) 0.01883(17) 0.5 0
Na2 Na1+ 4 e 0.5 0.23393(16) 0.75 0.0245(4) 1 0
Na3 Na1+ 4 b 0.5 0. 0.5 0.0358(5) 1 0
K1 K1+ 4 e 0.5 0.48817(18) 0.25 0.0434(8) 0.402(16) 0
Na4 Na1+ 4 e 0.5 0.48817(18) 0.25 0.0434(8) 0.597(18) 0
O1 O2- 8 f 0.6713(2) 0.6703(2) 0.3919(4) 0.0310(6) 1 0
O2 O2- 8 f 0.7192(2) 0.6791(2) 0.8226(4) 0.0367(7) 1 0
O3 O2- 8 f 0.5413(2) 0.2891(2) 0.4691(4) 0.0291(6) 1 0
O4 O2- 8 f 0.6072(3) 0.1336(2) 0.2506(5) 0.0461(8) 1 0
O5 O2- 8 f 0.8768(2) 0.5878(2) 0.6818(4) 0.0329(6) 1 0
O6 O2- 8 f 0.6623(3) 0.4960(2) 0.6026(5) 0.0438(8) 1 0
loop_
_atom_site_aniso_label
_atom_site_aniso_type_symbol
_atom_site_aniso_U_11
_atom_site_aniso_U_22
_atom_site_aniso_U_33
_atom_site_aniso_U_12
_atom_site_aniso_U_13
_atom_site_aniso_U_23
Mo1 Mo6+ 0.0371(3) 0.0170(2) 0.0127(2) 0. 0.00406(17) 0.
Mo2 Mo6+ 0.02105(18) 0.0256(2) 0.01562(17) -0.00171(12) 0.00482(12) 0.00182(11)
Co1 Co2+ 0.0207(3) 0.0214(4) 0.0145(3) 0.0035(3) 0.0068(3) 0.0003(3)
Na1 Na1+ 0.0207(3) 0.0214(4) 0.0145(3) 0.0035(3) 0.0068(3) 0.0003(3)
Na2 Na1+ 0.0237(9) 0.0250(11) 0.0276(10) 0. 0.0129(8) 0.
Na3 Na1+ 0.0478(14) 0.0220(11) 0.0246(11) -0.0008(11) -0.0011(10) 0.0008(9)
K1 K1+ 0.0238(10) 0.0710(17) 0.0308(10) 0. 0.0051(7) 0.
Na4 Na1+ 0.0238(10) 0.0710(17) 0.0308(10) 0. 0.0051(7) 0.
O1 O2- 0.0330(14) 0.0347(16) 0.0204(12) 0.0102(13) 0.0046(11) 0.0015(12)
O2 O2- 0.0410(16) 0.0462(18) 0.0242(14) 0.0009(14) 0.0139(12) 0.0005(13)
O3 O2- 0.0328(13) 0.0357(15) 0.0189(12) -0.0025(12) 0.0098(10) -0.0051(11)
O4 O2- 0.058(2) 0.0285(16) 0.0375(16) 0.0091(15) 0.0012(15) -0.0093(14)
O5 O2- 0.0270(14) 0.0289(15) 0.0400(16) 0.0025(12) 0.0096(12) 0.0084(13)
O6 O2- 0.0439(18) 0.0396(18) 0.0457(18) -0.0114(15) 0.0145(14) 0.0076(15)
#End of TTdata_291078-ICSD