
#(C) 2019 by FIZ Karlsruhe - Leibniz Institute for Information Infrastructure.  All rights reserved.
data_291155-ICSD
_database_code_ICSD 291155
_audit_creation_date 2015-08-01
_chemical_name_systematic
'Sodium manganese cobalt nickel oxide (0.58/0.65/0.18/0.17/2)'
_chemical_formula_structural 'Na0.5796 Mn0.65 Co0.18 Ni0.17 O2'
_chemical_formula_sum 'Co0.18 Mn0.65 Na0.5796 Ni0.17 O2'
_chemical_name_structure_type CuCrSe2
_exptl_crystal_density_diffrn 4.26
_publ_section_title

;
High Capacity Positive Electrode Material for Room Temperature Na Ion Battery:
Nax Mn2/3 Co1/6 Ni1/6 O2
;
loop_
_citation_id
_citation_journal_full
_citation_year
_citation_journal_volume
_citation_page_first
_citation_page_last
_citation_journal_id_ASTM
primary 'Journal of the Electrochemical Society' 2015 162 A553 A558 JESOAN
loop_
_publ_author_name
'Kataoka, Riki'
'Mukai, Takashi'
'Yoshizawa, Akihiro'
'Inoue, Kenshi'
'Kiyobayashi, Tetsu'
'Sakai, Tetsuo'
_cell_length_a 2.85799(26)
_cell_length_b 2.85799(26)
_cell_length_c 16.79230(9)
_cell_angle_alpha 90.
_cell_angle_beta 90.
_cell_angle_gamma 120.
_cell_volume 118.78
_cell_formula_units_Z 3
_symmetry_space_group_name_H-M 'R 3 m H'
_symmetry_Int_Tables_number 160
_refine_ls_R_factor_all 0.0132
loop_
_symmetry_equiv_pos_site_id
_symmetry_equiv_pos_as_xyz
1 '-x+y, y, z'
2 'x, x-y, z'
3 '-y, -x, z'
4 '-x+y, -x, z'
5 '-y, x-y, z'
6 'x, y, z'
7 '-x+y+2/3, y+1/3, z+1/3'
8 'x+2/3, x-y+1/3, z+1/3'
9 '-y+2/3, -x+1/3, z+1/3'
10 '-x+y+2/3, -x+1/3, z+1/3'
11 '-y+2/3, x-y+1/3, z+1/3'
12 'x+2/3, y+1/3, z+1/3'
13 '-x+y+1/3, y+2/3, z+2/3'
14 'x+1/3, x-y+2/3, z+2/3'
15 '-y+1/3, -x+2/3, z+2/3'
16 '-x+y+1/3, -x+2/3, z+2/3'
17 '-y+1/3, x-y+2/3, z+2/3'
18 'x+1/3, y+2/3, z+2/3'
loop_
_atom_type_symbol
_atom_type_oxidation_number
Na1+ 1
Mn3+ 3.42
Co3+ 3.42
Ni3+ 3.42
O2- -2
loop_
_atom_site_label
_atom_site_type_symbol
_atom_site_symmetry_multiplicity
_atom_site_Wyckoff_symbol
_atom_site_fract_x
_atom_site_fract_y
_atom_site_fract_z
_atom_site_B_iso_or_equiv
_atom_site_occupancy
_atom_site_attached_hydrogens
Na1 Na1+ 3 a 0 0 0.17059(33) 2.31(15) 0.5796(54) 0
Mn1 Mn3+ 3 a 0 0 0 0.35 0.65 0
Co1 Co3+ 3 a 0 0 0 0.35 0.18 0
Ni1 Ni3+ 3 a 0 0 0 0.35 0.17 0
O1 O2- 3 a 0 0 0.39223(91) 1. 1. 0
O2 O2- 3 a 0 0 0.60421(92) 1. 1. 0
#End of TTdata_291155-ICSD