
#(C) 2019 by FIZ Karlsruhe - Leibniz Institute for Information Infrastructure.  All rights reserved.
data_291170-ICSD
_database_code_ICSD 291170
_audit_creation_date 2015-08-01
_chemical_name_systematic
'Sodium gadolinium ytterbium molybdenum oxide (0.51/0.47/0.02/1/4)'
_chemical_formula_structural '(Na0.510 Gd0.472 Yb0.017) Mo O3.991'
_chemical_formula_sum 'Gd0.472 Mo1 Na0.51 O3.991 Yb0.017'
_chemical_name_mineral Scheelite
_exptl_crystal_density_diffrn 5.23
_cell_measurement_temperature 293.
_publ_section_title
'Structural perfection of (Na0.5 Gd0.5) Mo O4:Yb laser crystals'
loop_
_citation_id
_citation_journal_full
_citation_year
_citation_journal_volume
_citation_page_first
_citation_page_last
_citation_journal_id_ASTM
primary 'Acta Materialia' 2015 87 25 33 ACMAFD
loop_
_publ_author_name
'Kuz'micheva, G.M.'
'Kaurova, I.A.'
'Zagorul'ko, E.A.'
'Bolotina, N.B.'
'Rybakov, V.B.'
'Brykovskiy, A.A.'
'Zharikov, E.V.'
'Lis, D.A.'
'Subbotin, K.A.'
_cell_length_a 5.2489(3)
_cell_length_b 5.2489(3)
_cell_length_c 11.4604(9)
_cell_angle_alpha 90.
_cell_angle_beta 90.
_cell_angle_gamma 90.
_cell_volume 315.74
_cell_formula_units_Z 4
_symmetry_space_group_name_H-M 'P -4'
_symmetry_Int_Tables_number 81
_refine_ls_R_factor_all 0.0436
loop_
_symmetry_equiv_pos_site_id
_symmetry_equiv_pos_as_xyz
1 '-y, x, -z'
2 'y, -x, -z'
3 '-x, -y, z'
4 'x, y, z'
loop_
_atom_type_symbol
_atom_type_oxidation_number
Na1+ 1
Gd3+ 3
Yb3+ 3
Na1+ 1
Gd3+ 3
Yb3+ 3
Na1+ 1
Gd3+ 3
Yb3+ 3
Mo6+ 6
O2- -2
loop_
_atom_site_label
_atom_site_type_symbol
_atom_site_symmetry_multiplicity
_atom_site_Wyckoff_symbol
_atom_site_fract_x
_atom_site_fract_y
_atom_site_fract_z
_atom_site_B_iso_or_equiv
_atom_site_occupancy
_atom_site_attached_hydrogens
Na1 Na1+ 1 b 0 0 0.5 0.0134(5) 0.5040(4) 0
Gd1 Gd3+ 1 b 0 0 0.5 0.0134(5) 0.4704(5) 0
Yb1 Yb3+ 1 b 0 0 0.5 0.0134(5) 0.0260(6) 0
Na2 Na1+ 1 c 0.5 0.5 0 0.0137(5) 0.5104(4) 0
Gd2 Gd3+ 1 c 0.5 0.5 0 0.0137(5) 0.4720(5) 0
Yb2 Yb3+ 1 c 0.5 0.5 0 0.0137(5) 0.0180(6) 0
Na3 Na1+ 2 g 0 0.5 0.2506(2) 0.0132(3) 0.5120(6) 0
Gd3 Gd3+ 2 g 0 0.5 0.2506(2) 0.0132(3) 0.4720(6) 0
Yb3 Yb3+ 2 g 0 0.5 0.2506(2) 0.0132(3) 0.0124(6) 0
Mo1 Mo6+ 1 a 0 0 0 0.0028(1) 1. 0
Mo2 Mo6+ 1 d 0.5 0.5 0.5 0.0028(1) 1. 0
Mo3 Mo6+ 2 g 0 0.5 0.7504(2) 0.0028(1) 1. 0
O1 O2- 4 h 0.758(2) 0.854(3) 0.9154(7) 0.0373(7) 1.000(3) 0
O2 O2- 4 h 0.732(2) 0.647(3) 0.4134(7) 0.0373(6) 0.991(5) 0
O3 O2- 4 h 0.148(2) 0.254(3) 0.6685(7) 0.0373(5) 1.000(3) 0
O4 O2- 4 h 0.355(2) 0.243(3) 0.1654(8) 0.0373(6) 1.000(3) 0
#End of TTdata_291170-ICSD