
#(C) 2019 by FIZ Karlsruhe - Leibniz Institute for Information Infrastructure.  All rights reserved.
data_291167-ICSD
_database_code_ICSD 291167
_audit_creation_date 2015-08-01
_chemical_name_systematic
'Sodium gadolinium ytterbium molybdenum oxide (0.5/0.47/0.03/1/3.97)'
_chemical_formula_structural '(Na0.500 Gd0.470 Yb0.030) Mo O3.97'
_chemical_formula_sum 'Gd0.47 Mo1 Na0.5 O3.97 Yb0.03'
_chemical_name_structure_type Scheelite-CaWO4
_chemical_name_mineral Scheelite
_exptl_crystal_density_diffrn 5.33
_cell_measurement_temperature 293.
_publ_section_title
'Structural perfection of (Na0.5 Gd0.5) Mo O4:Yb laser crystals'
loop_
_citation_id
_citation_journal_full
_citation_year
_citation_journal_volume
_citation_page_first
_citation_page_last
_citation_journal_id_ASTM
primary 'Acta Materialia' 2015 87 25 33 ACMAFD
loop_
_publ_author_name
'Kuz'micheva, G.M.'
'Kaurova, I.A.'
'Zagorul'ko, E.A.'
'Bolotina, N.B.'
'Rybakov, V.B.'
'Brykovskiy, A.A.'
'Zharikov, E.V.'
'Lis, D.A.'
'Subbotin, K.A.'
_cell_length_a 5.2281(2)
_cell_length_b 5.2281(2)
_cell_length_c 11.4087(5)
_cell_angle_alpha 90.
_cell_angle_beta 90.
_cell_angle_gamma 90.
_cell_volume 311.83
_cell_formula_units_Z 4
_symmetry_space_group_name_H-M 'I 41/a Z'
_symmetry_Int_Tables_number 88
_refine_ls_R_factor_all 0.025
loop_
_symmetry_equiv_pos_site_id
_symmetry_equiv_pos_as_xyz
1 '-y+3/4, x+3/4, -z+3/4'
2 'y+1/4, -x+3/4, -z+3/4'
3 'x, y+1/2, -z'
4 '-x, -y, -z'
5 'y+1/4, -x+1/4, z+1/4'
6 '-y+3/4, x+1/4, z+1/4'
7 '-x, -y+1/2, z'
8 'x, y, z'
9 '-y+1/4, x+1/4, -z+1/4'
10 'y+3/4, -x+1/4, -z+1/4'
11 'x+1/2, y, -z+1/2'
12 '-x+1/2, -y+1/2, -z+1/2'
13 'y+3/4, -x+3/4, z+3/4'
14 '-y+1/4, x+3/4, z+3/4'
15 '-x+1/2, -y, z+1/2'
16 'x+1/2, y+1/2, z+1/2'
loop_
_atom_type_symbol
_atom_type_oxidation_number
Na1+ 1
Gd3+ 3
Yb3+ 3
Mo5+ 5.94
O2- -2
loop_
_atom_site_label
_atom_site_type_symbol
_atom_site_symmetry_multiplicity
_atom_site_Wyckoff_symbol
_atom_site_fract_x
_atom_site_fract_y
_atom_site_fract_z
_atom_site_B_iso_or_equiv
_atom_site_occupancy
_atom_site_attached_hydrogens
Na1 Na1+ 4 a 0 0.25 0.125 0.00405(1) 0.5000(3) 0
Gd1 Gd3+ 4 a 0 0.25 0.125 0.00405(1) 0.46960(9) 0
Yb1 Yb3+ 4 a 0 0.25 0.125 0.00405(1) 0.03056(9) 0
Mo1 Mo5+ 4 b 0.5 0.75 0.125 0.00503(1) 1.0000(4) 0
O1 O2- 16 f 0.25705(8) 0.39976(8) -0.04069(4) 0.01116(6) 0.993(1) 0
#End of TTdata_291167-ICSD