
#(C) 2019 by FIZ Karlsruhe - Leibniz Institute for Information Infrastructure.  All rights reserved.
data_291188-ICSD
_database_code_ICSD 291188
_audit_creation_date 2015-08-01
_chemical_name_systematic 'Sodium lithium iron digermanate (0.5/0.5/1/1)'
_chemical_formula_structural 'Na0.5 Li0.5 Fe Ge2 O6'
_chemical_formula_sum 'Fe1 Ge2 Li0.5 Na0.5 O6'
_chemical_name_mineral Pyroxene
_exptl_crystal_density_diffrn 2.31
_cell_measurement_temperature 2.
_publ_section_title

;
Crystal and magnetic structures, phase transitions in quasi-one-dimensional
pyroxenes Na0.5 Li0.5 Fe Ge2 O6
;
loop_
_citation_id
_citation_journal_full
_citation_year
_citation_journal_volume
_citation_page_first
_citation_page_last
_citation_journal_id_ASTM
primary 'Journal of Magnetism and Magnetic Materials' 2015 385 243 249 JMMMDC
loop_
_publ_author_name
'Drokina, T.V.'
'Petrakovskii, G.A.'
'Molokeev, M.S.'
'Misyul, S.V.'
'Bondarev, V.S.'
'Velikanov, D.A.'
'Frontzek, M.'
'Schefer, J.'
_cell_length_a 19.8314(8)
_cell_length_b 8.8161(4)
_cell_length_c 5.4471(3)
_cell_angle_alpha 90
_cell_angle_beta 109.509(5)
_cell_angle_gamma 90
_cell_volume 897.67
_cell_formula_units_Z 4
_symmetry_space_group_name_H-M 'P 1 21/c 1'
_symmetry_Int_Tables_number 14
_refine_ls_R_factor_all 0.0777
loop_
_symmetry_equiv_pos_site_id
_symmetry_equiv_pos_as_xyz
1 'x, -y+1/2, z+1/2'
2 '-x, -y, -z'
3 '-x, y+1/2, -z+1/2'
4 'x, y, z'
loop_
_atom_type_symbol
_atom_type_oxidation_number
Li1+ 1
Na1+ 1
Fe3+ 3
Ge4+ 4
O2- -2
loop_
_atom_site_label
_atom_site_type_symbol
_atom_site_symmetry_multiplicity
_atom_site_Wyckoff_symbol
_atom_site_fract_x
_atom_site_fract_y
_atom_site_fract_z
_atom_site_B_iso_or_equiv
_atom_site_occupancy
_atom_site_attached_hydrogens
Li1 Li1+ 4 e 0.13(2) 0.064(6) 0.26(2) 0.5 0.5 0
Na1 Na1+ 4 e 0.13(2) 0.064(6) 0.26(2) 0.5 0.5 0
Fe1 Fe3+ 4 e 0.12(2) 0.6525(5) 0.230(1) 0.5(2) 1. 0
Ge1 Ge4+ 4 e 0.020(2) 0.340(2) 0.249(3) 0.5(2) 1. 0
Ge2 Ge4+ 4 e 0.274(2) 0.844(2) 0.241(2) 1.5(3) 1. 0
O1 O2- 4 e 0.427(2) 0.329(3) 0.158(3) 1.5(3) 1. 0
O2 O2- 4 e 0.052(2) 0.519(2) 0.285(2) 1.5(3) 1. 0
O3 O2- 4 e 0.055(1) 0.279(1) 0.573(2) 1.5(3) 1. 0
O4 O2- 4 e 0.182(2) 0.836(3) 0.116(3) 1.5(3) 1. 0
O5 O2- 4 e 0.311(2) 0.020(2) 0.340(2) 1.5(3) 1. 0
O6 O2- 4 e 0.309(1) 0.710(1) 0.494(2) 1.5(3) 1. 0
#End of TTdata_291188-ICSD