
#(C) 2019 by FIZ Karlsruhe - Leibniz Institute for Information Infrastructure.  All rights reserved.
data_291249-ICSD
_database_code_ICSD 291249
_audit_creation_date 2015-08-01
_chemical_name_systematic 'Sodium iron(III) uranium fluoride (3/1/6/30)'
_chemical_formula_structural 'Na3 Fe U6 F30'
_chemical_formula_sum 'F30 Fe1 Na3 U6'
_chemical_name_structure_type Na3FeU6F30
_exptl_crystal_density_diffrn 6.48
_cell_measurement_temperature 100.
_publ_section_title

;
Trivalent cation-controlled phase space of new U(IV) fluorides, Na3 M U6 F30
(M = Al(3+), Ga(3+), Ti(3+), V(3+), Cr(3+), Fe(3+)): mild hydrothermal
synthesis including an in situ reduction step, structures, optical, and
magnetic properties
;
loop_
_citation_id
_citation_journal_full
_citation_year
_citation_journal_volume
_citation_page_first
_citation_page_last
_citation_journal_id_ASTM
primary 'Inorganic Chemistry' 2015 54 2058 2066 INOCAJ
loop_
_publ_author_name
'Yeon, Jeongho'
'Smith, Mark D.'
'Morrison, Gregory'
'zur Loye, Hans-Conrad'
_cell_length_a 9.8351(3)
_cell_length_b 9.8351(3)
_cell_length_c 12.9869(10)
_cell_angle_alpha 90
_cell_angle_beta 90
_cell_angle_gamma 120
_cell_volume 1087.91
_cell_formula_units_Z 2
_symmetry_space_group_name_H-M 'P -3 c 1'
_symmetry_Int_Tables_number 165
_refine_ls_R_factor_all 0.0339
loop_
_symmetry_equiv_pos_site_id
_symmetry_equiv_pos_as_xyz
1 'x-y, -y, -z+1/2'
2 '-x, -x+y, -z+1/2'
3 'y, x, -z+1/2'
4 'x-y, x, -z'
5 'y, -x+y, -z'
6 '-x, -y, -z'
7 '-x+y, y, z+1/2'
8 'x, x-y, z+1/2'
9 '-y, -x, z+1/2'
10 '-x+y, -x, z'
11 '-y, x-y, z'
12 'x, y, z'
loop_
_atom_type_symbol
_atom_type_oxidation_number
U4+ 4
Fe3+ 3
Na1+ 1
F1- -1
loop_
_atom_site_label
_atom_site_type_symbol
_atom_site_symmetry_multiplicity
_atom_site_Wyckoff_symbol
_atom_site_fract_x
_atom_site_fract_y
_atom_site_fract_z
_atom_site_B_iso_or_equiv
_atom_site_occupancy
_atom_site_attached_hydrogens
U1 U4+ 12 g 0.40057(2) 0.32510(2) 0.39805(2) 0.00553(8) 1 0
Fe1 Fe3+ 2 a 0. 0. 0.25 0.0044(3) 1 0
Na1 Na1+ 4 d 0.3333 0.6667 0.3378(3) 0.0089(8) 1 0
Na2 Na1+ 2 b 0. 0. 0.5 0.0189(14) 1 0
F1 F1- 12 g 0.3038(4) 0.4350(4) 0.2837(3) 0.0111(6) 1 0
F2 F1- 12 g 0.1917(4) 0.3085(4) 0.4823(3) 0.0078(6) 1 0
F3 F1- 12 g 0.5333(4) 0.4133(4) 0.5515(3) 0.0093(6) 1 0
F4 F1- 12 g 0.1804(4) 0.0997(4) 0.3379(3) 0.0103(7) 1 0
F5 F1- 12 g 0.5123(4) 0.1716(4) 0.3626(3) 0.0103(6) 1 0
loop_
_atom_site_aniso_label
_atom_site_aniso_type_symbol
_atom_site_aniso_U_11
_atom_site_aniso_U_22
_atom_site_aniso_U_33
_atom_site_aniso_U_12
_atom_site_aniso_U_13
_atom_site_aniso_U_23
U1 U4+ 0.00488(10) 0.00546(10) 0.00622(11) 0.00257(7) -0.00014(6) -0.00005(6)
Fe1 Fe3+ 0.0036(4) 0.0036(4) 0.0060(8) 0.0018(2) 0. 0.
Na1 Na1+ 0.0077(11) 0.0077(11) 0.0115(19) 0.0038(5) 0. 0.
Na2 Na1+ 0.022(2) 0.022(2) 0.012(3) 0.0112(11) 0. 0.
F1 F1- 0.0162(16) 0.0119(16) 0.0081(16) 0.0092(14) 0.0001(13) 0.0010(12)
F2 F1- 0.0078(14) 0.0077(14) 0.0082(15) 0.0042(12) 0.0044(11) 0.0031(11)
F3 F1- 0.0108(15) 0.0098(15) 0.0082(15) 0.0058(13) -0.0010(12) 0.0010(12)
F4 F1- 0.0098(15) 0.0085(15) 0.0128(17) 0.0046(12) -0.0027(12) 0.0000(12)
F5 F1- 0.0109(15) 0.0108(15) 0.0113(16) 0.0068(13) -0.0005(13) 0.0017(13)
#End of TTdata_291249-ICSD