
#(C) 2019 by FIZ Karlsruhe - Leibniz Institute for Information Infrastructure.  All rights reserved.
data_291521-ICSD
_database_code_ICSD 291521
_audit_creation_date 2016-02-01
_chemical_name_systematic 'Sodium silver tetraniobate'
_chemical_formula_structural 'Na Ag Nb4 O11'
_chemical_formula_sum 'Ag1 Na1 Nb4 O11'
_chemical_name_structure_type Cs2I4O11
_exptl_crystal_density_diffrn 5.49
_cell_measurement_temperature 298.
_publ_section_title

;
Dielectric properties, polymorphism, structural characterisation and phase
diagram of Na2 Nb4 O11 - Ag2 Nb4 O11 solid solutions
;
loop_
_citation_id
_citation_journal_full
_citation_year
_citation_journal_volume
_citation_page_first
_citation_page_last
_citation_journal_id_ASTM
primary 'Journal of Solid State Chemistry' 2015 225 438 449 JSSCBI
loop_
_publ_author_name
'Maso, Nahum'
'West, Anthony R.'
_cell_length_a 10.8433(2)
_cell_length_b 6.1602(1)
_cell_length_c 12.79100(30)
_cell_angle_alpha 90
_cell_angle_beta 106.109(2)
_cell_angle_gamma 90
_cell_volume 820.85
_cell_formula_units_Z 4
_symmetry_space_group_name_H-M 'P 1 21/n 1'
_symmetry_Int_Tables_number 14
_refine_ls_R_factor_all 0.0362
loop_
_symmetry_equiv_pos_site_id
_symmetry_equiv_pos_as_xyz
1 '-x+1/2, y+1/2, -z+1/2'
2 '-x, -y, -z'
3 'x+1/2, -y+1/2, z+1/2'
4 'x, y, z'
loop_
_atom_type_symbol
_atom_type_oxidation_number
Na1+ 1
Ag1+ 1
Na1+ 1
Ag1+ 1
Nb5+ 5
O2- -2
loop_
_atom_site_label
_atom_site_type_symbol
_atom_site_symmetry_multiplicity
_atom_site_Wyckoff_symbol
_atom_site_fract_x
_atom_site_fract_y
_atom_site_fract_z
_atom_site_B_iso_or_equiv
_atom_site_occupancy
_atom_site_attached_hydrogens
Na1 Na1+ 4 e 0.578(1) 0.7507(23) 0.987(1) 0.015(3) 0.4 0
Ag1 Ag1+ 4 e 0.578(1) 0.7507(23) 0.987(1) 0.015(3) 0.6 0
Na2 Na1+ 4 e 0.0817(16) 0.248(3) 0.993(1) 0.023(4) 0.6 0
Ag2 Ag1+ 4 e 0.0817(16) 0.248(3) 0.993(1) 0.023(4) 0.4 0
Nb1 Nb5+ 4 e 0.18416(66) 0.566(2) 0.2531(7) 0.006(2) 1. 0
Nb2 Nb5+ 4 e 0.6788(7) 0.078(2) 0.2447(7) 0.006(2) 1. 0
Nb3 Nb5+ 4 e 0.0053(9) 0.12112(65) 0.2559(8) 0.0075(9) 1. 0
Nb4 Nb5+ 4 e 0.2629(7) 0.238(1) 0.5059(6) 0.007(1) 1. 0
O1 O2- 4 e 0.22716(87) 0.515(2) 0.4053(9) 0.008(2) 1. 0
O2 O2- 4 e 0.7373(9) 0.0108(18) 0.4078(9) 0.010(2) 1. 0
O3 O2- 4 e 0.1667(7) 0.589(2) 0.0937(7) 0.005(25) 1. 0
O4 O2- 4 e 0.6792(8) 0.1002(14) 0.0910(7) 0.005(2) 1. 0
O5 O2- 4 e 0.0845(8) 0.137(2) 0.40902(88) 0.006(2) 1. 0
O6 O2- 4 e 0.5762(8) 0.638(2) 0.40809(90) 0.006(2) 1. 0
O7 O2- 4 e 0.1312(8) 0.877(2) 0.2485(6) 0.0112(19) 1. 0
O8 O2- 4 e 0.6113(7) 0.364(1) 0.24801(69) 0.0007(14) 1. 0
O9 O2- 4 e 0.1578(8) 0.2500(2) 0.2168(8) 0.006(1) 1. 0
O10 O2- 4 e 0.6605(9) 0.7500(18) 0.2238(8) 0.012(2) 1. 0
O11 O2- 4 e 0.003(1) 0.49300(88) 0.254(1) 0.012(1) 1. 0
#End of TTdata_291521-ICSD