
#(C) 2019 by FIZ Karlsruhe - Leibniz Institute for Information Infrastructure.  All rights reserved.
data_291522-ICSD
_database_code_ICSD 291522
_audit_creation_date 2016-02-01
_chemical_name_systematic 'Sodium silver tetraniobate'
_chemical_formula_structural 'Na Ag Nb4 O11'
_chemical_formula_sum 'Ag1 Na1 Nb4 O11'
_chemical_name_structure_type Na2Ta4O11
_exptl_crystal_density_diffrn 5.47
_cell_measurement_temperature 450.
_publ_section_title

;
Dielectric properties, polymorphism, structural characterisation and phase
diagram of Na2 Nb4 O11 - Ag2 Nb4 O11 solid solutions
;
loop_
_citation_id
_citation_journal_full
_citation_year
_citation_journal_volume
_citation_page_first
_citation_page_last
_citation_journal_id_ASTM
primary 'Journal of Solid State Chemistry' 2015 225 438 449 JSSCBI
loop_
_publ_author_name
'Maso, Nahum'
'West, Anthony R.'
_cell_length_a 6.2206(1)
_cell_length_b 6.2206(1)
_cell_length_c 36.8682(6)
_cell_angle_alpha 90.
_cell_angle_beta 90.
_cell_angle_gamma 120.
_cell_volume 1235.51
_cell_formula_units_Z 6
_symmetry_space_group_name_H-M 'R -3 c H'
_symmetry_Int_Tables_number 167
_refine_ls_R_factor_all 0.0437
loop_
_symmetry_equiv_pos_site_id
_symmetry_equiv_pos_as_xyz
1 'x-y, -y, -z+1/2'
2 '-x, -x+y, -z+1/2'
3 'y, x, -z+1/2'
4 'x-y, x, -z'
5 'y, -x+y, -z'
6 '-x, -y, -z'
7 '-x+y, y, z+1/2'
8 'x, x-y, z+1/2'
9 '-y, -x, z+1/2'
10 '-x+y, -x, z'
11 '-y, x-y, z'
12 'x, y, z'
13 'x-y+2/3, -y+1/3, -z+5/6'
14 '-x+2/3, -x+y+1/3, -z+5/6'
15 'y+2/3, x+1/3, -z+5/6'
16 'x-y+2/3, x+1/3, -z+1/3'
17 'y+2/3, -x+y+1/3, -z+1/3'
18 '-x+2/3, -y+1/3, -z+1/3'
19 '-x+y+2/3, y+1/3, z+5/6'
20 'x+2/3, x-y+1/3, z+5/6'
21 '-y+2/3, -x+1/3, z+5/6'
22 '-x+y+2/3, -x+1/3, z+1/3'
23 '-y+2/3, x-y+1/3, z+1/3'
24 'x+2/3, y+1/3, z+1/3'
25 'x-y+1/3, -y+2/3, -z+1/6'
26 '-x+1/3, -x+y+2/3, -z+1/6'
27 'y+1/3, x+2/3, -z+1/6'
28 'x-y+1/3, x+2/3, -z+2/3'
29 'y+1/3, -x+y+2/3, -z+2/3'
30 '-x+1/3, -y+2/3, -z+2/3'
31 '-x+y+1/3, y+2/3, z+1/6'
32 'x+1/3, x-y+2/3, z+1/6'
33 '-y+1/3, -x+2/3, z+1/6'
34 '-x+y+1/3, -x+2/3, z+2/3'
35 '-y+1/3, x-y+2/3, z+2/3'
36 'x+1/3, y+2/3, z+2/3'
loop_
_atom_type_symbol
_atom_type_oxidation_number
Na1+ 1
Ag1+ 1
Nb5+ 5
O2- -2
loop_
_atom_site_label
_atom_site_type_symbol
_atom_site_symmetry_multiplicity
_atom_site_Wyckoff_symbol
_atom_site_fract_x
_atom_site_fract_y
_atom_site_fract_z
_atom_site_B_iso_or_equiv
_atom_site_occupancy
_atom_site_attached_hydrogens
Na1 Na1+ 12 c 0 0 0.3297(1) 0.027(1) 0.5 0
Ag1 Ag1+ 12 c 0 0 0.3297(1) 0.027(1) 0.5 0
Nb1 Nb5+ 18 e 0.3643(3) 0 0.25 0.0116(4) 1. 0
Nb2 Nb5+ 6 b 0 0 0 0.0185(8) 1. 0
O1 O2- 36 f 0.0555(2) 0.4194(2) 0.19743(4) 0.0122(4) 1. 0
O2 O2- 18 e 0.7519(3) 0 0.25 0.0166(6) 1. 0
O3 O2- 12 c 0 0 0.40693(6) 0.0097(5) 1. 0
#End of TTdata_291522-ICSD