
#(C) 2019 by FIZ Karlsruhe - Leibniz Institute for Information Infrastructure.  All rights reserved.
data_291621-ICSD
_database_code_ICSD 291621
_audit_creation_date 2016-08-01
_chemical_name_systematic 'Disodium hexakis(iodate(V)) platinate'
_chemical_formula_structural 'Na2 Pt (I O3)6'
_chemical_formula_sum 'I6 Na2 O18 Pt1'
_chemical_name_structure_type Rb2Zr(IO3)6
_exptl_crystal_density_diffrn 5.38
_cell_measurement_temperature 293.
_publ_section_title

;
New series of polar and nonpolar platinum iodates A2 Pt (I O3)6 (A = H3 O, Na,
K, Rb, Cs)
;
loop_
_citation_id
_citation_journal_full
_citation_year
_citation_journal_volume
_citation_page_first
_citation_page_last
_citation_journal_id_ASTM
primary 'Inorganic Chemistry' 2016 55 2481 2487 INOCAJ
loop_
_publ_author_name
'Yang, Bing-Ping'
'Hu, Chun-Li'
'Xu, Xiang'
'Mao, Jiang-Gao'
_cell_length_a 11.0206(11)
_cell_length_b 11.0206(11)
_cell_length_c 11.3523(17)
_cell_angle_alpha 90.
_cell_angle_beta 90.
_cell_angle_gamma 120.
_cell_volume 1194.05
_cell_formula_units_Z 3
_symmetry_space_group_name_H-M 'R -3 H'
_symmetry_Int_Tables_number 148
_refine_ls_R_factor_all 0.048
loop_
_symmetry_equiv_pos_site_id
_symmetry_equiv_pos_as_xyz
1 'x-y, x, -z'
2 'y, -x+y, -z'
3 '-x, -y, -z'
4 '-x+y, -x, z'
5 '-y, x-y, z'
6 'x, y, z'
7 'x-y+2/3, x+1/3, -z+1/3'
8 'y+2/3, -x+y+1/3, -z+1/3'
9 '-x+2/3, -y+1/3, -z+1/3'
10 '-x+y+2/3, -x+1/3, z+1/3'
11 '-y+2/3, x-y+1/3, z+1/3'
12 'x+2/3, y+1/3, z+1/3'
13 'x-y+1/3, x+2/3, -z+2/3'
14 'y+1/3, -x+y+2/3, -z+2/3'
15 '-x+1/3, -y+2/3, -z+2/3'
16 '-x+y+1/3, -x+2/3, z+2/3'
17 '-y+1/3, x-y+2/3, z+2/3'
18 'x+1/3, y+2/3, z+2/3'
loop_
_atom_type_symbol
_atom_type_oxidation_number
Pt4+ 4
I5+ 5
O2- -2
Na1+ 1
loop_
_atom_site_label
_atom_site_type_symbol
_atom_site_symmetry_multiplicity
_atom_site_Wyckoff_symbol
_atom_site_fract_x
_atom_site_fract_y
_atom_site_fract_z
_atom_site_B_iso_or_equiv
_atom_site_occupancy
_atom_site_attached_hydrogens
Pt1 Pt4+ 3 b 0.3333 0.6667 0.1667 0.0143(5) 1 0
I1 I5+ 18 f 0.74412(10) 0.68010(10) 0.39507(7) 0.0154(4) 1 0
O1 O2- 18 f 0.7909(11) 0.5984(11) 0.2825(7) 0.019(2) 1 0
O2 O2- 18 f 0.7611(12) 0.5982(11) 0.5275(8) 0.026(2) 1 0
O3 O2- 18 f 0.9328(11) 0.8307(10) 0.3979(8) 0.021(2) 1 0
Na1 Na1+ 6 c 0.6667 0.3333 0.5096(17) 0.068(4) 1 0
loop_
_atom_site_aniso_label
_atom_site_aniso_type_symbol
_atom_site_aniso_U_11
_atom_site_aniso_U_22
_atom_site_aniso_U_33
_atom_site_aniso_U_12
_atom_site_aniso_U_13
_atom_site_aniso_U_23
Pt1 Pt4+ 0.0136(6) 0.0136(6) 0.0157(7) 0.0068(3) 0. 0.
I1 I5+ 0.0146(6) 0.0154(6) 0.0172(6) 0.0082(4) -0.0005(4) -0.0017(3)
O1 O2- 0.025(6) 0.016(6) 0.019(4) 0.013(5) 0.005(4) -0.002(4)
O2 O2- 0.029(7) 0.027(6) 0.015(4) 0.009(6) -0.003(5) -0.001(5)
O3 O2- 0.015(5) 0.017(5) 0.022(5) 0.001(5) 0.002(4) -0.005(4)
Na1 Na1+ 0.044(5) 0.044(5) 0.117(12) 0.022(3) 0. 0.
#End of TTdata_291621-ICSD