
#(C) 2018 by FIZ Karlsruhe - Leibniz Institute for Information Infrastructure.  All rights reserved.
data_2935-ICSD
_database_code_ICSD 2935
_audit_creation_date 1980-01-01
_audit_update_record 2010-08-01
_chemical_name_systematic 'Dilithium tecto-dialumosilicate'
_chemical_formula_structural 'Li2 (Al2 Si O6)'
_chemical_formula_sum 'Al2 Li2 O6 Si1'
_chemical_name_structure_type Li2Al2SiO6
_chemical_name_mineral Pseudo-eucryptite
_exptl_crystal_density_diffrn 2.4
_publ_section_title

;
Average and superstructure of beta-eucryptite (Li Al Si O4). Part I. Average
Structure
;
loop_
_citation_id
_citation_journal_full
_citation_year
_citation_journal_volume
_citation_page_first
_citation_page_last
_citation_journal_id_ASTM
primary

;
Zeitschrift fuer Kristallographie, Kristallgeometrie, Kristallphysik,
Kristallchemie (-144,1977)
; 1972 135 161 174 ZEKGAX
loop_
_publ_author_name
'Tscherry, V.'
'Schulz, H.'
'Laves, F.'
_cell_length_a 5.2409(2)
_cell_length_b 5.2409(2)
_cell_length_c 5.5875(4)
_cell_angle_alpha 90.
_cell_angle_beta 90.
_cell_angle_gamma 120.
_cell_volume 132.91
_cell_formula_units_Z 1
_symmetry_space_group_name_H-M 'P 62 2 2'
_symmetry_Int_Tables_number 180
_refine_ls_R_factor_all 0.05
loop_
_symmetry_equiv_pos_site_id
_symmetry_equiv_pos_as_xyz
1 'x, x-y, -z+1/3'
2 '-x+y, y, -z'
3 '-y, -x, -z+2/3'
4 '-x, -x+y, -z+1/3'
5 'x-y, -y, -z'
6 'y, x, -z+2/3'
7 'x-y, x, z+1/3'
8 'y, -x+y, z+2/3'
9 '-x, -y, z'
10 '-x+y, -x, z+1/3'
11 '-y, x-y, z+2/3'
12 'x, y, z'
loop_
_atom_type_symbol
_atom_type_oxidation_number
Si4+ 4
Al3+ 3
O2- -2
Li1+ 1
loop_
_atom_site_label
_atom_site_type_symbol
_atom_site_symmetry_multiplicity
_atom_site_Wyckoff_symbol
_atom_site_fract_x
_atom_site_fract_y
_atom_site_fract_z
_atom_site_B_iso_or_equiv
_atom_site_occupancy
_atom_site_attached_hydrogens
Si1 Si4+ 3 c 0.5 0 0 . 0.3333 0
Al1 Al3+ 3 c 0.5 0 0 . 0.6667 0
O1 O2- 6 j 0.2017(2) 0.4034(4) 0.5 . 1. 0
Li1 Li1+ 3 a 0 0 0 . 0.6667 0
loop_
_atom_site_aniso_label
_atom_site_aniso_type_symbol
_atom_site_aniso_beta_11
_atom_site_aniso_beta_22
_atom_site_aniso_beta_33
_atom_site_aniso_beta_12
_atom_site_aniso_beta_13
_atom_site_aniso_beta_23
Si1 Si4+ 0.0080(2) 0.0055(2) 0.0035(1) 0.0027(2) 0 0
Al1 Al3+ 0.0080(2) 0.0055(2) 0.0035(1) 0.0027(2) 0 0
O1 O2- 0.0209(5) 0.0106(5) 0.0158(5) 0.0053(5) 0.0089(5) 0
Li1 Li1+ 0.021(4) 0.016(8) 0.024(6) 0.008(8) 0 0
#End of TTdata_2935-ICSD