
#(C) 2019 by FIZ Karlsruhe - Leibniz Institute for Information Infrastructure.  All rights reserved.
data_29361-ICSD
_database_code_ICSD 29361
_audit_creation_date 1984-10-31
_audit_update_record 2019-08-01
_chemical_name_systematic 'Sodium calcium tecto-alumosilicate *'
_chemical_formula_structural 'Na0.48 Ca0.54 (Al1.52 Si2.48 O8)'
_chemical_formula_sum 'Al1.52 Ca0.54 Na0.48 O8 Si2.48'
_chemical_name_structure_type Feldspar#-(TC,I1-,i28)-Bytownite
_chemical_name_mineral 'Anorthite, sodian'
_exptl_crystal_density_diffrn 2.69
_publ_section_title

;
The modulated structure of intermediate plagioclase feldspar Cax Na1-x Al1+x
Si3-x O8
;
loop_
_citation_id
_citation_journal_full
_citation_year
_citation_journal_volume
_citation_page_first
_citation_page_last
_citation_journal_id_ASTM
primary 'Acta Crystallographica, Section B: Structural Science' 1984 40 228 237
ASBSDK
loop_
_publ_author_name
'Yamamoto, A.'
'Nakazawa, H.'
'Kitamura, M.'
'Morimoto, N.'
_cell_length_a 8.178(1)
_cell_length_b 12.865(1)
_cell_length_c 14.218(1)
_cell_angle_alpha 93.53(1)
_cell_angle_beta 116.21(1)
_cell_angle_gamma 89.92(1)
_cell_volume 1338.97
_cell_formula_units_Z 8
_symmetry_space_group_name_H-M 'I -1'
_symmetry_Int_Tables_number 2
_refine_ls_R_factor_all 0.065
loop_
_symmetry_equiv_pos_site_id
_symmetry_equiv_pos_as_xyz
1 '-x, -y, -z'
2 'x, y, z'
3 '-x+1/2, -y+1/2, -z+1/2'
4 'x+1/2, y+1/2, z+1/2'
loop_
_atom_type_symbol
_atom_type_oxidation_number
Na1+ 1
Ca2+ 2
Al3+ 3
Si4+ 4
O2- -2
Na1+ 1
Ca2+ 2
Al3+ 3
Si4+ 4
O2- -2
loop_
_atom_site_label
_atom_site_type_symbol
_atom_site_symmetry_multiplicity
_atom_site_Wyckoff_symbol
_atom_site_fract_x
_atom_site_fract_y
_atom_site_fract_z
_atom_site_B_iso_or_equiv
_atom_site_occupancy
_atom_site_attached_hydrogens
Na1 Na1+ 4 i 0.2678(9) -.0144(24) 0.0801(22) . 0.24 0
Na2 Na1+ 4 i 0.2709(8) 0.0283(7) 0.0497(6) . 0.24 0
Ca1 Ca2+ 4 i 0.2678(9) -.0144(24) 0.0801(22) . 0.27 0
Ca2 Ca2+ 4 i 0.2709(8) 0.0283(7) 0.0497(6) . 0.27 0
Al1 Al3+ 4 i 0.0065(1) 0.1647(1) 0.1069(1) . 0.38 0
Al2 Al3+ 4 i 0.0031(1) 0.8175(1) 0.1160(1) . 0.38 0
Al3 Al3+ 4 i 0.6864(1) 0.1095(1) 0.1585(1) . 0.38 0
Al4 Al3+ 4 i 0.6822(1) 0.8797(1) 0.1783(1) . 0.38 0
Si1 Si4+ 4 i 0.0065(1) 0.1647(1) 0.1069(1) . 0.62 0
Si2 Si4+ 4 i 0.0031(1) 0.8175(1) 0.1160(1) . 0.62 0
Si3 Si4+ 4 i 0.6864(1) 0.1095(1) 0.1585(1) . 0.62 0
Si4 Si4+ 4 i 0.6822(1) 0.8797(1) 0.1783(1) . 0.62 0
O1 O2- 4 i 0.0030(4) 0.1299(2) 0.4897(1) . 1. 0
O2 O2- 4 i 0.5827(3) 0.9931(1) 0.1392(2) . 1. 0
O3 O2- 4 i 0.8127(3) 0.1062(2) 0.0950(2) . 1. 0
O4 O2- 4 i 0.8175(4) 0.8538(2) 0.1230(2) . 1. 0
O5 O2- 4 i 0.0142(3) 0.2925(2) 0.1390(2) . 1. 0
O6 O2- 4 i 0.0156(4) 0.6889(2) 0.1087(2) . 1. 0
O7 O2- 4 i 0.1992(3) 0.1079(2) 0.1920(2) . 1. 0
O8 O2- 4 i 0.1897(4) 0.8670(2) 0.2155(2) . 1. 0
Na3 Na1+ 4 i 0.2678(9) -.0144(24) 0.5801(22) . 0.24 0
Na4 Na1+ 4 i 0.2709(8) 0.0283(7) 0.5497(6) . 0.24 0
Ca3 Ca2+ 4 i 0.2678(9) -.0144(24) 0.5801(22) . 0.27 0
Ca4 Ca2+ 4 i 0.2709(8) 0.0283(7) 0.5497(6) . 0.27 0
Al5 Al3+ 4 i 0.0065(1) 0.1647(1) 0.6069(1) . 0.38 0
Al6 Al3+ 4 i 0.0031(1) 0.8175(1) 0.6160(1) . 0.38 0
Al7 Al3+ 4 i 0.6864(1) 0.1095(1) 0.6585(1) . 0.38 0
Al8 Al3+ 4 i 0.6822(1) 0.8797(1) 0.6783(1) . 0.38 0
Si5 Si4+ 4 i 0.0065(1) 0.1647(1) 0.6069(1) . 0.62 0
Si6 Si4+ 4 i 0.0031(1) 0.8175(1) 0.6160(1) . 0.62 0
Si7 Si4+ 4 i 0.6864(1) 0.1095(1) 0.6585(1) . 0.62 0
Si8 Si4+ 4 i 0.6822(1) 0.8797(1) 0.6783(1) . 0.62 0
O9 O2- 4 i 0.0030(4) 0.1299(2) 0.9897(1) . 1. 0
O10 O2- 4 i 0.5827(3) 0.9931(1) 0.6392(2) . 1. 0
O11 O2- 4 i 0.8127(3) 0.1062(2) 0.5950(2) . 1. 0
O12 O2- 4 i 0.8175(4) 0.8538(2) 0.6230(2) . 1. 0
O13 O2- 4 i 0.0142(3) 0.2925(2) 0.6390(2) . 1. 0
O14 O2- 4 i 0.0156(4) 0.6889(2) 0.6087(2) . 1. 0
O15 O2- 4 i 0.1992(3) 0.1079(2) 0.6920(2) . 1. 0
O16 O2- 4 i 0.1897(4) 0.8670(2) 0.7155(2) . 1. 0
loop_
_atom_site_aniso_label
_atom_site_aniso_type_symbol
_atom_site_aniso_beta_11
_atom_site_aniso_beta_22
_atom_site_aniso_beta_33
_atom_site_aniso_beta_12
_atom_site_aniso_beta_13
_atom_site_aniso_beta_23
Na1 Na1+ 0.0042(9) 0.0031(6) 0.0030(6) -.0004(3) 0.0009(4) -.0015(4)
Na2 Na1+ 0.0025(10) 0.0024(4) 0.0021(4) 0.0013(2) -.0004(3) -.0010(2)
Ca1 Ca2+ 0.0042(9) 0.0031(6) 0.0030(6) -.0004(3) 0.0009(4) -.0015(4)
Ca2 Ca2+ 0.0025(10) 0.0024(4) 0.0021(4) 0.0013(2) -.0004(3) -.0010(2)
Al1 Al3+ 0.0047(1) 0.0011(1) 0.0007(1) -.0001(1) 0.0005(1) 0.0001(1)
Al2 Al3+ 0.0044(1) 0.0009(1) 0.0006(1) 0.0012(1) 0.0003(1) 0.0002(1)
Al3 Al3+ 0.0034(1) 0.0005(1) 0.0010(1) 0.0006(1) 0.0001(1) 0.0001(1)
Al4 Al3+ 0.0039(1) 0.0006(1) 0.0009(1) 0.0006(1) 0.0003(1) 0.0002(1)
Si1 Si4+ 0.0047(1) 0.0011(1) 0.0007(1) -.0001(1) 0.0005(1) 0.0001(1)
Si2 Si4+ 0.0044(1) 0.0009(1) 0.0006(1) 0.0012(1) 0.0003(1) 0.0002(1)
Si3 Si4+ 0.0034(1) 0.0005(1) 0.0010(1) 0.0006(1) 0.0001(1) 0.0001(1)
Si4 Si4+ 0.0039(1) 0.0006(1) 0.0009(1) 0.0006(1) 0.0003(1) 0.0002(1)
O1 O2- 0.0119(6) 0.0020(1) 0.0009(1) 0.0010(2) 0.0018(2) 0.0003(1)
O2 O2- 0.0043(4) 0.0010(1) 0.0019(1) 0.0005(1) 0.0003(2) 0.0004(1)
O3 O2- 0.0067(5) 0.0018(1) 0.0030(1) -.0003(2) 0.0023(2) 0.0000(1)
O4 O2- 0.0085(5) 0.0026(1) 0.0040(2) 0.0011(2) 0.0033(2) -.0002(1)
O5 O2- 0.0078(5) 0.0015(1) 0.0021(1) 0.0001(2) 0.0014(2) 0.0001(1)
O6 O2- 0.0086(5) 0.0017(1) 0.0018(1) 0.0018(2) 0.0002(2) -.0002(1)
O7 O2- 0.0084(5) 0.0017(1) 0.0012(1) 0.0004(2) -.0001(2) 0.0003(1)
O8 O2- 0.0077(5) 0.0019(1) 0.0016(1) 0.0005(2) -.0006(2) -.0002(1)
Na3 Na1+ 0.0042(9) 0.0031(6) 0.0030(6) -.0004(3) 0.0009(4) -.0015(4)
Na4 Na1+ 0.0025(10) 0.0024(4) 0.0021(4) 0.0013(2) -.0004(3) -.0010(2)
Ca3 Ca2+ 0.0042(9) 0.0031(6) 0.0030(6) -.0004(3) 0.0009(4) -.0015(4)
Ca4 Ca2+ 0.0025(10) 0.0024(4) 0.0021(4) 0.0013(2) -.0004(3) -.0010(2)
Al5 Al3+ 0.0047(1) 0.0011(1) 0.0007(1) -.0001(1) 0.0005(1) 0.0001(1)
Al6 Al3+ 0.0044(1) 0.0009(1) 0.0006(1) 0.0012(1) 0.0003(1) 0.0002(1)
Al7 Al3+ 0.0034(1) 0.0005(1) 0.0010(1) 0.0006(1) 0.0001(1) 0.0001(1)
Al8 Al3+ 0.0039(1) 0.0006(1) 0.0009(1) 0.0006(1) 0.0003(1) 0.0002(1)
Si5 Si4+ 0.0047(1) 0.0011(1) 0.0007(1) -.0001(1) 0.0005(1) 0.0001(1)
Si6 Si4+ 0.0044(1) 0.0009(1) 0.0006(1) 0.0012(1) 0.0003(1) 0.0002(1)
Si7 Si4+ 0.0034(1) 0.0005(1) 0.0010(1) 0.0006(1) 0.0001(1) 0.0001(1)
Si8 Si4+ 0.0039(1) 0.0006(1) 0.0009(1) 0.0006(1) 0.0003(1) 0.0002(1)
O9 O2- 0.0119(6) 0.0020(1) 0.0009(1) 0.0010(2) 0.0018(2) 0.0003(1)
O10 O2- 0.0043(4) 0.0010(1) 0.0019(1) 0.0005(1) 0.0003(2) 0.0004(1)
O11 O2- 0.0067(5) 0.0018(1) 0.0030(1) -.0003(2) 0.0023(2) 0.0000(1)
O12 O2- 0.0085(5) 0.0026(1) 0.0040(2) 0.0011(2) 0.0033(2) -.0002(1)
O13 O2- 0.0078(5) 0.0015(1) 0.0021(1) 0.0001(2) 0.0014(2) 0.0001(1)
O14 O2- 0.0086(5) 0.0017(1) 0.0018(1) 0.0018(2) 0.0002(2) -.0002(1)
O15 O2- 0.0084(5) 0.0017(1) 0.0012(1) 0.0004(2) -.0001(2) 0.0003(1)
O16 O2- 0.0077(5) 0.0019(1) 0.0016(1) 0.0005(2) -.0006(2) -.0002(1)
#End of TTdata_29361-ICSD