
#(C) 2019 by FIZ Karlsruhe - Leibniz Institute for Information Infrastructure.  All rights reserved.
data_29450-ICSD
_database_code_ICSD 29450
_audit_creation_date 1985-01-31
_audit_update_record 2010-08-01
_chemical_name_systematic 'Sodium catena-vanadate - beta'
_chemical_formula_structural 'Na (V O3)'
_chemical_formula_sum 'Na1 O3 V1'
_chemical_name_structure_type NaVO3
_chemical_name_mineral Metamunirite
_exptl_crystal_density_diffrn 2.92
_publ_section_title

;
Das Entwaesserungsverhalten des Natriummetavanadatdihydrats und die
Kristallstruktur des beta-Natriummetavanadats
;
loop_
_citation_id
_citation_journal_full
_citation_year
_citation_journal_volume
_citation_page_first
_citation_page_last
_citation_journal_id_ASTM
primary 'Acta Crystallographica, Section B: Structural Science' 1984 40 102 105
ASBSDK
loop_
_publ_author_name
'Kato, K.'
'Takayama, E.'
_cell_length_a 14.147(2)
_cell_length_b 3.6496(6)
_cell_length_c 5.364(1)
_cell_angle_alpha 90.
_cell_angle_beta 90.
_cell_angle_gamma 90.
_cell_volume 276.95
_cell_formula_units_Z 4
_symmetry_space_group_name_H-M 'P n m a'
_symmetry_Int_Tables_number 62
_refine_ls_R_factor_all 0.094
loop_
_symmetry_equiv_pos_site_id
_symmetry_equiv_pos_as_xyz
1 'x+1/2, y, -z+1/2'
2 'x, -y+1/2, z'
3 '-x+1/2, y+1/2, z+1/2'
4 '-x, -y, -z'
5 '-x+1/2, -y, z+1/2'
6 '-x, y+1/2, -z'
7 'x+1/2, -y+1/2, -z+1/2'
8 'x, y, z'
loop_
_atom_type_symbol
_atom_type_oxidation_number
Na1+ 1
V5+ 5
O2- -2
loop_
_atom_site_label
_atom_site_type_symbol
_atom_site_symmetry_multiplicity
_atom_site_Wyckoff_symbol
_atom_site_fract_x
_atom_site_fract_y
_atom_site_fract_z
_atom_site_B_iso_or_equiv
_atom_site_occupancy
_atom_site_attached_hydrogens
Na1 Na1+ 4 c 0.3303(9) 0.25 -.115(3) . 1. 0
V1 V5+ 4 c 0.0844(4) 0.25 -.076(1) . 1. 0
O1 O2- 4 c 0.184(1) 0.25 0.100(6) . 1. 0
O2 O2- 4 c 0.110(2) 0.25 -.373(5) . 1. 0
O3 O2- 4 c -.052(1) 0.25 0.006(5) . 1. 0
loop_
_atom_site_aniso_label
_atom_site_aniso_type_symbol
_atom_site_aniso_beta_11
_atom_site_aniso_beta_22
_atom_site_aniso_beta_33
_atom_site_aniso_beta_12
_atom_site_aniso_beta_13
_atom_site_aniso_beta_23
Na1 Na1+ 0.0009(2) 0.006(3) 0.008(2) 0 0.0009(9) 0
V1 V5+ 0.0022(7) 0.009(8) 0.022(6) 0 0.0001(20) 0
O1 O2- 0.0015(11) 0.020(15) 0.024(11) 0 0.0023(39) 0
O2 O2- 0.0029(14) 0.021(16) 0.014(9) 0 0.0026(31) 0
O3 O2- 0.0009(9) 0.004(13) 0.030(12) 0 0.0016(30) 0
#End of TTdata_29450-ICSD