
#(C) 2019 by FIZ Karlsruhe - Leibniz Institute for Information Infrastructure.  All rights reserved.
data_300162-ICSD
_database_code_ICSD 300162
_audit_creation_date 1991-07-10
_audit_update_record 1991-10-30
_chemical_name_systematic 'Hexasodium di-mue-thio-bis(dithiogallate) - II'
_chemical_formula_structural 'Na6 Ga2 S6'
_chemical_formula_sum 'Ga2 Na6 S6'
_chemical_name_structure_type Na6Al2S6
_exptl_crystal_density_diffrn 2.49
_cell_measurement_temperature 293.
_publ_section_title
'Crystal structure of hexasodium di-mue-thiobis(dithiogallate)'
loop_
_citation_id
_citation_journal_full
_citation_year
_citation_journal_volume
_citation_page_first
_citation_page_last
_citation_journal_id_ASTM
primary 'Zeitschrift fuer Kristallographie' 1991 197 147 148 ZEKRDZ
loop_
_publ_author_name
'Eisenmann, B.'
'Hofmann, A.'
_cell_length_a 13.691(5)
_cell_length_b 12.099(5)
_cell_length_c 7.653(3)
_cell_angle_alpha 90.
_cell_angle_beta 98.384(60)
_cell_angle_gamma 90.
_cell_volume 1254.15
_cell_formula_units_Z 4
_symmetry_space_group_name_H-M 'P 1 21/c 1'
_symmetry_Int_Tables_number 14
_refine_ls_R_factor_all 0.056
loop_
_symmetry_equiv_pos_site_id
_symmetry_equiv_pos_as_xyz
1 'x, -y+1/2, z+1/2'
2 '-x, -y, -z'
3 '-x, y+1/2, -z+1/2'
4 'x, y, z'
loop_
_atom_type_symbol
_atom_type_oxidation_number
Na1+ 1
Ga3+ 3
S2- -2
loop_
_atom_site_label
_atom_site_type_symbol
_atom_site_symmetry_multiplicity
_atom_site_Wyckoff_symbol
_atom_site_fract_x
_atom_site_fract_y
_atom_site_fract_z
_atom_site_B_iso_or_equiv
_atom_site_occupancy
_atom_site_attached_hydrogens
Na1 Na1+ 4 e 0.0140(2) 0.7509(3) 0.0034(5) . 1. 0
Na2 Na1+ 4 e 0.1935(2) 0.0187(3) 0.0831(4) . 1. 0
Na3 Na1+ 4 e 0.2411(2) 0.3081(3) 0.0354(5) . 1. 0
Na4 Na1+ 4 e 0.4736(3) 0.2373(3) 0.4154(5) . 1. 0
Na5 Na1+ 4 e 0.6333(3) 0.0881(3) 0.1106(4) . 1. 0
Na6 Na1+ 4 e 0.7570(2) 0.3279(3) 0.0057(4) . 1. 0
Ga1 Ga3+ 4 e 0.074 0.4926(1) 0.1781(1) . 1. 0
Ga2 Ga3+ 4 e 0.5666 0.4783(1) 0.1824(1) . 1. 0
S1 S2- 4 e 0.0974(1) 0.0020(1) 0.3799(2) . 1. 0
S2 S2- 4 e 0.1231(1) 0.3301(1) 0.2982(2) . 1. 0
S3 S2- 4 e 0.1474(1) 0.6406(1) 0.3111(2) . 1. 0
S4 S2- 4 e 0.3870(1) 0.1100(1) 0.1184(2) . 1. 0
S5 S2- 4 e 0.3960(1) 0.4669(1) 0.0921(2) . 1. 0
S6 S2- 4 e 0.6309(1) 0.3146(1) 0.2641(2) . 1. 0
loop_
_atom_site_aniso_label
_atom_site_aniso_type_symbol
_atom_site_aniso_beta_11
_atom_site_aniso_beta_22
_atom_site_aniso_beta_33
_atom_site_aniso_beta_12
_atom_site_aniso_beta_13
_atom_site_aniso_beta_23
Na1 Na1+ 0.0225(15) 0.0374(18) 0.0379(17) -.0046(14) 0.0098(13) -.0010(13)
Na2 Na1+ 0.0303(16) 0.0492(21) 0.0219(14) -.0048(14) 0.0064(12) -.0083(15)
Na3 Na1+ 0.0273(16) 0.0335(18) 0.0446(20) -.0133(15) 0.0122(14) -.0097(13)
Na4 Na1+ 0.0387(18) 0.0326(18) 0.0445(20) -.0142(15) 0.0239(16) -.0145(15)
Na5 Na1+ 0.0476(20) 0.0286(16) 0.0192(14) 0.0013(12) 0.0025(13) -.0032(14)
Na6 Na1+ 0.0242(14) 0.0275(15) 0.0236(14) 0.0006(12) 0.0059(11) -.0032(12)
Ga1 Ga3+ 0.0134(3) 0.0125(3) 0.0140(3) 0.0005(2) 0.0015(2) -.0019(2)
Ga2 Ga3+ 0.0124(3) 0.0130(3) 0.0131(3) 0.0000(2) 0.0010(2) 0.0009(2)
S1 S2- 0.0123(6) 0.0275(8) 0.0157(7) 0.0026(6) 0.0039(5) 0.0013(6)
S2 S2- 0.0211(7) 0.0185(7) 0.0228(8) 0.0059(6) 0.0030(6) 0.0014(6)
S3 S2- 0.0169(7) 0.0178(7) 0.0207(7) -.0051(6) 0.0016(6) -.0036(6)
S4 S2- 0.0251(8) 0.0179(7) 0.0215(8) 0.0061(6) -.0018(6) -.0034(6)
S5 S2- 0.0126(6) 0.0218(7) 0.0168(7) 0.0020(6) 0.0042(5) -.0022(5)
S6 S2- 0.0225(7) 0.0156(7) 0.0171(7) 0.0019(5) 0.0053(6) 0.0064(6)
#End of TTdata_300162-ICSD