
#(C) 2019 by FIZ Karlsruhe - Leibniz Institute for Information Infrastructure.  All rights reserved.
data_300161-ICSD
_database_code_ICSD 300161
_audit_creation_date 1991-07-10
_audit_update_record 1991-10-30
_chemical_name_systematic 'Hexasodium di-mue-thio-bis(dithiogallate) - I'
_chemical_formula_structural 'Na6 Ga2 S6'
_chemical_formula_sum 'Ga2 Na6 S6'
_chemical_name_structure_type Na3FeS3
_exptl_crystal_density_diffrn 2.45
_cell_measurement_temperature 293.
_publ_section_title
'Crystal structure of hexasodium di-mue-thiobis(dithiogallate) - I'
loop_
_citation_id
_citation_journal_full
_citation_year
_citation_journal_volume
_citation_page_first
_citation_page_last
_citation_journal_id_ASTM
primary 'Zeitschrift fuer Kristallographie' 1991 197 143 144 ZEKRDZ
loop_
_publ_author_name
'Eisenmann, B.'
'Hofmann, A.'
_cell_length_a 7.207(4)
_cell_length_b 6.931(4)
_cell_length_c 12.740(5)
_cell_angle_alpha 90.
_cell_angle_beta 90.665(60)
_cell_angle_gamma 90.
_cell_volume 636.34
_cell_formula_units_Z 2
_symmetry_space_group_name_H-M 'P 1 21/n 1'
_symmetry_Int_Tables_number 14
_refine_ls_R_factor_all 0.093
loop_
_symmetry_equiv_pos_site_id
_symmetry_equiv_pos_as_xyz
1 '-x+1/2, y+1/2, -z+1/2'
2 '-x, -y, -z'
3 'x+1/2, -y+1/2, z+1/2'
4 'x, y, z'
loop_
_atom_type_symbol
_atom_type_oxidation_number
Na1+ 1
Ga3+ 3
S2- -2
loop_
_atom_site_label
_atom_site_type_symbol
_atom_site_symmetry_multiplicity
_atom_site_Wyckoff_symbol
_atom_site_fract_x
_atom_site_fract_y
_atom_site_fract_z
_atom_site_B_iso_or_equiv
_atom_site_occupancy
_atom_site_attached_hydrogens
Na1 Na1+ 4 e 0.2770(15) 0.5381(16) 0.2080(8) . 1. 0
Na2 Na1+ 4 e 0.6578(13) 0.4958(15) 0.3882(8) . 1. 0
Na3 Na1+ 4 e 0.7919(17) 0.4959(19) 0.1022(8) . 1. 0
Ga1 Ga3+ 4 e 0.4158(4) 0.1423(4) 0.0822(2) . 1. 0
S1 S2- 4 e 0.0742(11) 0.304(1) 0.4296(5) . 1. 0
S2 S2- 4 e 0.9303(9) 0.7407(10) 0.2754(5) . 1. 0
S3 S2- 4 e 0.1254(9) 0.2554(10) 0.0727(5) . 1. 0
loop_
_atom_site_aniso_label
_atom_site_aniso_type_symbol
_atom_site_aniso_beta_11
_atom_site_aniso_beta_22
_atom_site_aniso_beta_33
_atom_site_aniso_beta_12
_atom_site_aniso_beta_13
_atom_site_aniso_beta_23
Na1 Na1+ 0.0368(62) 0.0137(49) 0.0299(55) -.0029(46) 0.0110(45) -.0086(48)
Na2 Na1+ 0.0205(50) 0.0176(53) 0.0283(52) 0.0016(43) -.0064(40) 0.0026(44)
Na3 Na1+ 0.0508(76) 0.0353(71) 0.0240(54) 0.0055(53) 0.0142(51) -.0160(62)
Ga1 Ga3+ 0.0132(13) 0.0147(13) 0.0114(13) -.0011(11) -.0001(9) -.0005(12)
S1 S2- 0.0342(40) 0.0201(34) 0.0237(35) -.0017(28) 0.0112(29) -.0002(30)
S2 S2- 0.0220(33) 0.0219(34) 0.0159(28) 0.0009(28) -.0029(24) 0.0016(29)
S3 S2- 0.0172(31) 0.0212(34) 0.0271(33) -.0099(29) 0.0040(25) -.0047(29)
#End of TTdata_300161-ICSD