
#(C) 2019 by FIZ Karlsruhe - Leibniz Institute for Information Infrastructure.  All rights reserved.
data_300167-ICSD
_database_code_ICSD 300167
_audit_creation_date 1991-07-10
_audit_update_record 2010-02-01
_chemical_name_systematic 'Hexasodium di-mue-thio-bis(dithioaluminate) - HT'
_chemical_formula_structural 'Na6 (S2 (Al S2)2)'
_chemical_formula_sum 'Al2 Na6 S6'
_chemical_name_structure_type Na6Al2S6
_exptl_crystal_density_diffrn 2.05
_cell_measurement_temperature 293.
_publ_section_title
'Crystal structure of hexasodium di-mue-thiobis(dithioaluminate) - HT'
loop_
_citation_id
_citation_journal_full
_citation_year
_citation_journal_volume
_citation_page_first
_citation_page_last
_citation_journal_id_ASTM
primary 'Zeitschrift fuer Kristallographie' 1991 197 161 162 ZEKRDZ
loop_
_publ_author_name
'Eisenmann, B.'
'Hofmann, A.'
_cell_length_a 13.706(5)
_cell_length_b 12.071(5)
_cell_length_c 7.608(3)
_cell_angle_alpha 90.
_cell_angle_beta 98.60(6)
_cell_angle_gamma 90.
_cell_volume 1244.55
_cell_formula_units_Z 4
_symmetry_space_group_name_H-M 'P 1 21/c 1'
_symmetry_Int_Tables_number 14
_refine_ls_R_factor_all 0.078
loop_
_symmetry_equiv_pos_site_id
_symmetry_equiv_pos_as_xyz
1 'x, -y+1/2, z+1/2'
2 '-x, -y, -z'
3 '-x, y+1/2, -z+1/2'
4 'x, y, z'
loop_
_atom_type_symbol
_atom_type_oxidation_number
Na1+ 1
Al3+ 3
S2- -2
loop_
_atom_site_label
_atom_site_type_symbol
_atom_site_symmetry_multiplicity
_atom_site_Wyckoff_symbol
_atom_site_fract_x
_atom_site_fract_y
_atom_site_fract_z
_atom_site_B_iso_or_equiv
_atom_site_occupancy
_atom_site_attached_hydrogens
Na1 Na1+ 4 e 0.0114(2) 0.7557(3) 0.0056(4) . 1. 0
Na2 Na1+ 4 e 0.1935(2) 0.0174(3) 0.0837(4) . 1. 0
Na3 Na1+ 4 e 0.2413(2) 0.3080(3) 0.0276(5) . 1. 0
Na4 Na1+ 4 e 0.4728(3) 0.2431(3) 0.4126(5) . 1. 0
Na5 Na1+ 4 e 0.6356(2) 0.0872(3) 0.1113(4) . 1. 0
Na6 Na1+ 4 e 0.7581(2) 0.3245(2) 0.0048(4) . 1. 0
Al1 Al3+ 4 e 0.0737(1) 0.4928(1) 0.1730(2) . 1. 0
Al2 Al3+ 4 e 0.5662(1) 0.4793(1) 0.1778(2) . 1. 0
S1 S2- 4 e 0.0957(1) 0.0012(1) 0.3797(2) . 1. 0
S2 S2- 4 e 0.1251(1) 0.3337(1) 0.2946(2) . 1. 0
S3 S2- 4 e 0.1448(1) 0.6401(1) 0.3091(2) . 1. 0
S4 S2- 4 e 0.3868(1) 0.1105(1) 0.1245(2) . 1. 0
S5 S2- 4 e 0.3978(1) 0.4666(1) 0.0937(2) . 1. 0
S6 S2- 4 e 0.6308(1) 0.3180(1) 0.2621(2) . 1. 0
loop_
_atom_site_aniso_label
_atom_site_aniso_type_symbol
_atom_site_aniso_beta_11
_atom_site_aniso_beta_22
_atom_site_aniso_beta_33
_atom_site_aniso_beta_12
_atom_site_aniso_beta_13
_atom_site_aniso_beta_23
Na1 Na1+ 0.0278(15) 0.0322(16) 0.0349(16) -.0027(13) 0.0103(12) -.0009(12)
Na2 Na1+ 0.0320(15) 0.0463(19) 0.0204(13) -.0042(13) 0.0030(11) -.0127(14)
Na3 Na1+ 0.0271(15) 0.0348(17) 0.0430(18) -.0150(14) 0.0104(13) -.0086(13)
Na4 Na1+ 0.0423(18) 0.0315(16) 0.0433(19) -.0143(14) 0.0231(15) -.0119(14)
Na5 Na1+ 0.0402(17) 0.0298(15) 0.0209(13) 0.0018(12) 0.0027(12) -.0053(13)
Na6 Na1+ 0.0223(13) 0.0235(13) 0.0243(13) 0.0020(11) 0.0059(10) -.0008(10)
Al1 Al3+ 0.0137(7) 0.0112(7) 0.0135(7) 0.0002(6) 0.0009(6) -.0026(6)
Al2 Al3+ 0.0123(7) 0.0107(7) 0.0138(8) 0.0002(6) 0.0005(6) 0.0013(6)
S1 S2- 0.0131(6) 0.0263(7) 0.0137(6) 0.0002(6) 0.0028(5) 0.0027(5)
S2 S2- 0.0227(7) 0.0133(6) 0.0207(7) 0.0047(5) 0.0031(6) 0.0025(5)
S3 S2- 0.0163(6) 0.0162(6) 0.0182(7) -.0040(5) 0.0004(5) -.0030(5)
S4 S2- 0.0273(8) 0.0152(7) 0.0221(7) 0.0057(6) -.0032(6) -.0028(6)
S5 S2- 0.0132(6) 0.0210(7) 0.0141(6) 0.0028(5) 0.0034(5) -.0007(5)
S6 S2- 0.0198(7) 0.0135(6) 0.0187(7) 0.0034(5) 0.0059(5) 0.0063(5)
#End of TTdata_300167-ICSD