
#(C) 2019 by FIZ Karlsruhe - Leibniz Institute for Information Infrastructure.  All rights reserved.
data_30124-ICSD
_database_code_ICSD 30124
_audit_creation_date 1980-01-01
_audit_update_record 2016-08-01
_chemical_name_systematic 'Sodium calcium tecto-alumosilicate *'
_chemical_formula_structural 'Na0.48 Ca0.52 (Al1.52 Si2.48 O8)'
_chemical_formula_sum 'Al1.52 Ca0.52 Na0.48 O8 Si2.48'
_chemical_name_structure_type Feldspar#-(TC,I1-,i28)-Bytownite
_chemical_name_mineral 'Anorthite, sodian'
_exptl_crystal_density_diffrn 2.69
_publ_section_title 'Die gemittelte Struktur des Labradorits'
loop_
_citation_id
_citation_journal_full
_citation_year
_citation_journal_volume
_citation_page_first
_citation_page_last
_citation_journal_id_ASTM
primary 'Neues Jahrbuch fuer Mineralogie, Monatshefte' 1976 1976 66 69 NJMMAW
loop_
_publ_author_name
'Klein, S.'
'Korekawa, M.'
_cell_length_a 8.176(3)
_cell_length_b 12.841(3)
_cell_length_c 14.207(3)
_cell_angle_alpha 93.53(3)
_cell_angle_beta 116.27(5)
_cell_angle_gamma 89.77(5)
_cell_volume 1334.53
_cell_formula_units_Z 8
_symmetry_space_group_name_H-M 'I -1'
_symmetry_Int_Tables_number 2
_refine_ls_R_factor_all 0.077
loop_
_symmetry_equiv_pos_site_id
_symmetry_equiv_pos_as_xyz
1 '-x, -y, -z'
2 'x, y, z'
3 '-x+1/2, -y+1/2, -z+1/2'
4 'x+1/2, y+1/2, z+1/2'
loop_
_atom_type_symbol
_atom_type_oxidation_number
Na1+ 1
Ca2+ 2
Si4+ 4
Al3+ 3
Si4+ 4
Al3+ 3
Si4+ 4
Al3+ 3
Si4+ 4
Al3+ 3
O2- -2
loop_
_atom_site_label
_atom_site_type_symbol
_atom_site_symmetry_multiplicity
_atom_site_Wyckoff_symbol
_atom_site_fract_x
_atom_site_fract_y
_atom_site_fract_z
_atom_site_B_iso_or_equiv
_atom_site_occupancy
_atom_site_attached_hydrogens
Na1 Na1+ 4 i 0.2675 0.9728 0.0867 . 0.48 0
Na2 Na1+ 4 i 0.2675 0.9728 0.5867 . 0.48 0
Ca1 Ca2+ 4 i 0.2696 0.0268 0.052 . 0.52 0
Ca2 Ca2+ 4 i 0.2696 0.0268 0.552 . 0.52 0
Si1 Si4+ 4 i 0.6823 0.8797 0.1738 . 0.625 0
Si2 Si4+ 4 i 0.6823 0.8797 0.6738 . 0.625 0
Al1 Al3+ 4 i 0.6823 0.8797 0.1738 . 0.375 0
Al2 Al3+ 4 i 0.6823 0.8797 0.6738 . 0.375 0
Si3 Si4+ 4 i 0.6862 0.1095 0.1585 . 0.625 0
Si4 Si4+ 4 i 0.6862 0.1095 0.6585 . 0.625 0
Al3 Al3+ 4 i 0.6862 0.1095 0.1585 . 0.375 0
Al4 Al3+ 4 i 0.6862 0.1095 0.6585 . 0.375 0
Si5 Si4+ 4 i 0.0036 0.8177 0.1159 . 0.625 0
Si6 Si4+ 4 i 0.0036 0.8177 0.6159 . 0.625 0
Al5 Al3+ 4 i 0.0036 0.8177 0.1159 . 0.375 0
Al6 Al3+ 4 i 0.0036 0.8177 0.6159 . 0.375 0
Si7 Si4+ 4 i 0.006 0.1647 0.1069 . 0.625 0
Si8 Si4+ 4 i 0.006 0.1647 0.6069 . 0.625 0
Al7 Al3+ 4 i 0.006 0.1647 0.1069 . 0.375 0
Al8 Al3+ 4 i 0.006 0.1647 0.6069 . 0.375 0
O1 O2- 4 i 0.1884 0.867 0.2158 . 1. 0
O2 O2- 4 i 0.1884 0.867 0.7158 . 1. 0
O3 O2- 4 i 0.1987 0.1077 0.1918 . 1. 0
O4 O2- 4 i 0.1987 0.1077 0.6918 . 1. 0
O5 O2- 4 i 0.0149 0.6888 0.1085 . 1. 0
O6 O2- 4 i 0.0149 0.6888 0.6085 . 1. 0
O7 O2- 4 i 0.014 0.2919 0.139 . 1. 0
O8 O2- 4 i 0.014 0.2919 0.639 . 1. 0
O9 O2- 4 i 0.3111 0.3537 0.1232 . 1. 0
O10 O2- 4 i 0.3111 0.3537 0.6232 . 1. 0
O11 O2- 4 i 0.3121 0.6066 0.0949 . 1. 0
O12 O2- 4 i 0.3121 0.6066 0.5949 . 1. 0
O13 O2- 4 i 0.0821 0.4936 0.139 . 1. 0
O14 O2- 4 i 0.0821 0.4936 0.639 . 1. 0
O15 O2- 4 i 0.0037 0.1297 0.9896 . 1. 0
O16 O2- 4 i 0.0037 0.1297 0.4896 . 1. 0
loop_
_atom_site_aniso_label
_atom_site_aniso_type_symbol
_atom_site_aniso_B_11
_atom_site_aniso_B_22
_atom_site_aniso_B_33
_atom_site_aniso_B_12
_atom_site_aniso_B_13
_atom_site_aniso_B_23
Na1 Na1+ 0.31 2.33 0.83 -.49 0.14 -.95
Na2 Na1+ 0.31 2.33 0.83 -.49 0.14 -.95
Ca1 Ca2+ 1.26 2.57 2.24 0.41 0.21 -.78
Ca2 Ca2+ 1.26 2.57 2.24 0.41 0.21 -.78
Si1 Si4+ 0.62 0.59 0.47 0.05 0.07 0.17
Si2 Si4+ 0.62 0.59 0.47 0.05 0.07 0.17
Al1 Al3+ 0.62 0.59 0.47 0.05 0.07 0.17
Al2 Al3+ 0.62 0.59 0.47 0.05 0.07 0.17
Si3 Si4+ 0.56 0.48 0.49 0.18 0.04 -.01
Si4 Si4+ 0.56 0.48 0.49 0.18 0.04 -.01
Al3 Al3+ 0.56 0.48 0.49 0.18 0.04 -.01
Al4 Al3+ 0.56 0.48 0.49 0.18 0.04 -.01
Si5 Si4+ 0.76 0.93 0.36 0.5 0.06 0.07
Si6 Si4+ 0.76 0.93 0.36 0.5 0.06 0.07
Al5 Al3+ 0.76 0.93 0.36 0.5 0.06 0.07
Al6 Al3+ 0.76 0.93 0.36 0.5 0.06 0.07
Si7 Si4+ 0.82 1.11 0.44 -.21 0.11 0.2
Si8 Si4+ 0.82 1.11 0.44 -.21 0.11 0.2
Al7 Al3+ 0.82 1.11 0.44 -.21 0.11 0.2
Al8 Al3+ 0.82 1.11 0.44 -.21 0.11 0.2
O1 O2- 1.78 1.73 1.37 0.26 0.01 0.12
O2 O2- 1.78 1.73 1.37 0.26 0.01 0.12
O3 O2- 1.68 1.72 1.03 -.01 0.19 0.18
O4 O2- 1.68 1.72 1.03 -.01 0.19 0.18
O5 O2- 2.02 2.2 1.55 1.09 0.07 -.4
O6 O2- 2.02 2.2 1.55 1.09 0.07 -.4
O7 O2- 1.81 1.93 1.54 -.2 0.58 0.33
O8 O2- 1.81 1.93 1.54 -.2 0.58 0.33
O9 O2- 1.94 1.64 3.12 0.2 1.23 -.19
O10 O2- 1.94 1.64 3.12 0.2 1.23 -.19
O11 O2- 1.63 1.45 1.78 -.07 0.69 -.01
O12 O2- 1.63 1.45 1.78 -.07 0.69 -.01
O13 O2- 1.11 1.06 1.14 0.03 0.29 0.23
O14 O2- 1.11 1.06 1.14 0.03 0.29 0.23
O15 O2- 2.33 2.46 0.96 0.22 0.74 0.4
O16 O2- 2.33 2.46 0.96 0.22 0.74 0.4
#End of TTdata_30124-ICSD