
#(C) 2019 by FIZ Karlsruhe - Leibniz Institute for Information Infrastructure.  All rights reserved.
data_30663-ICSD
_database_code_ICSD 30663
_audit_creation_date 1984-12-31
_audit_update_record 2007-08-01
_chemical_name_systematic 'Sodium aluminium phyllo-alumotrisilicate dihydroxide'
_chemical_formula_structural 'Na Al2 (Al Si3 O10) (O H)2'
_chemical_formula_sum 'H2 Al3 Na1 O12 Si3'
_chemical_name_structure_type Mica#-(2M1)-15
_chemical_name_mineral 'Paragonite 2M1'
_exptl_crystal_density_diffrn 2.89
_publ_section_title 'The crystal structure of paragonite-2M1'
loop_
_citation_id
_citation_journal_full
_citation_year
_citation_journal_volume
_citation_page_first
_citation_page_last
_citation_journal_id_ASTM
primary 'American Mineralogist' 1984 69 122 127 AMMIAY
loop_
_publ_author_name
'Lin, C.Y.'
'Bailey, S.W.'
_cell_length_a 5.128(2)
_cell_length_b 8.898(3)
_cell_length_c 19.2870(90)
_cell_angle_alpha 90.
_cell_angle_beta 94.35(3)
_cell_angle_gamma 90.
_cell_volume 877.51
_cell_formula_units_Z 4
_symmetry_space_group_name_H-M 'C 1 2/c 1'
_symmetry_Int_Tables_number 15
_refine_ls_R_factor_all 0.045
loop_
_symmetry_equiv_pos_site_id
_symmetry_equiv_pos_as_xyz
1 'x, -y, z+1/2'
2 '-x, -y, -z'
3 '-x, y, -z+1/2'
4 'x, y, z'
5 'x+1/2, -y+1/2, z+1/2'
6 '-x+1/2, -y+1/2, -z'
7 '-x+1/2, y+1/2, -z+1/2'
8 'x+1/2, y+1/2, z'
loop_
_atom_type_symbol
_atom_type_oxidation_number
Al3+ 3
Si4+ 4
Al3+ 3
Si4+ 4
Al3+ 3
Na1+ 1
O2- -2
H1+ 1
loop_
_atom_site_label
_atom_site_type_symbol
_atom_site_symmetry_multiplicity
_atom_site_Wyckoff_symbol
_atom_site_fract_x
_atom_site_fract_y
_atom_site_fract_z
_atom_site_B_iso_or_equiv
_atom_site_occupancy
_atom_site_attached_hydrogens
Al1 Al3+ 8 f 0.9528(3) 0.4288(2) 0.1409(1) . 0.25 0
Si1 Si4+ 8 f 0.9528(2) 0.4288(2) 0.1409(1) . 0.75 0
Al2 Al3+ 8 f 0.4401(3) 0.2578(2) 0.1409(1) . 0.25 0
Si2 Si4+ 8 f 0.4401(3) 0.2578(2) 0.1409(1) . 0.75 0
Al3 Al3+ 8 f 0.2499(3) 0.0832(2) -.00002(10) . 1. 0
Na1 Na1+ 4 e 0 0.0941(5) 0.25 . 1. 0
O1 O2- 8 f 0.9574(7) 0.4439(7) 0.0554(2) . 1. 0
O2 O2- 8 f 0.3795(7) 0.2516(4) 0.0554(2) . 1. 0
O3 O2- 8 f 0.3739(8) 0.0914(5) 0.1743(2) . 1. 0
O4 O2- 8 f 0.7491(8) 0.2960(4) 0.1628(2) . 1. 0
O5 O2- 8 f 0.2475(8) 0.3818(4) 0.1748(2) . 1. 0
O6 O2- 8 f 0.9518(7) 0.0628(4) 0.0512(2) . 1. 0
H1 H1+ 8 f 0.8866 0.1458 0.0706 1.11 1. 0
loop_
_atom_site_aniso_label
_atom_site_aniso_type_symbol
_atom_site_aniso_beta_11
_atom_site_aniso_beta_22
_atom_site_aniso_beta_33
_atom_site_aniso_beta_12
_atom_site_aniso_beta_13
_atom_site_aniso_beta_23
Al1 Al3+ 0.0050(4) 0.0017(2) 0.00114(4) -.0003(2) 0.0002(1) 0.00005(8)
Si1 Si4+ 0.0050(4) 0.0017(2) 0.00114(4) -.0003(2) 0.0002(1) 0.00005(8)
Al2 Al3+ 0.0056(5) 0.0016(2) 0.00116(5) 0.0001(3) 0.0002(2) 0.00002(8)
Si2 Si4+ 0.0056(5) 0.0016(2) 0.00116(5) 0.0001(3) 0.0002(2) 0.00002(8)
Al3 Al3+ 0.0051(5) 0.0015(2) 0.00112(4) -.0006(3) -.0001(1) 0.00012(8)
Na1 Na1+ 0.0218(18) 0.0095(7) 0.0021(11) -.0041(66) 0.0025(4) 0.0013(2)
O1 O2- 0.0051(13) 0.0020(4) 0.0014(1) 0.0008(6) -.0001(3) 0.00001(20)
O2 O2- 0.0074(12) 0.0015(4) 0.0013(1) -.0002(6) 0.0002(3) 0.00008(20)
O3 O2- 0.0134(14) 0.0027(4) 0.0015(1) -.0007(6) 0.0004(3) 0.0002(2)
O4 O2- 0.1221(14) 0.0029(4) 0.0015(1) -.0001(7) 0.0004(4) 0.0005(2)
O5 O2- 0.0111(14) 0.0026(4) 0.0016(1) 0.0009(7) 0.0007(3) 0.00001(20)
O6 O2- 0.0061(12) 0.0024(4) 0.0013(1) -.0008(6) 0.0004(3) -.0005(2)
#End of TTdata_30663-ICSD