
#(C) 2018 by FIZ Karlsruhe - Leibniz Institute for Information Infrastructure.  All rights reserved.
data_30854-ICSD
_database_code_ICSD 30854
_audit_creation_date 1985-03-07
_audit_update_record 1985-05-24
_chemical_name_systematic 'Lithium tetracarbonylcobaltate(-I)'
_chemical_formula_structural 'Li Co (C O)4'
_chemical_formula_sum 'C4 Co1 Li1 O4'
_chemical_name_structure_type Zn(CN)2
_exptl_crystal_density_diffrn 1.74
_publ_section_title 'Die Kristallstrukturen von Li Co (C O)4 und Na Co (C O)4'
loop_
_citation_id
_citation_journal_full
_citation_year
_citation_journal_volume
_citation_page_first
_citation_page_last
_citation_journal_id_ASTM
primary 'Zeitschrift fuer Kristallographie (1979-2010)' 1984 167 275 286 ZEKRDZ
loop_
_publ_author_name
'Kluefers, P.'
_cell_length_a 5.542(1)
_cell_length_b 5.542(1)
_cell_length_c 5.542(1)
_cell_angle_alpha 90.
_cell_angle_beta 90.
_cell_angle_gamma 90.
_cell_volume 170.22
_cell_formula_units_Z 1
_symmetry_space_group_name_H-M 'P -4 3 m'
_symmetry_Int_Tables_number 215
_refine_ls_R_factor_all 0.015
loop_
_symmetry_equiv_pos_site_id
_symmetry_equiv_pos_as_xyz
1 '-z, -y, x'
2 '-y, -x, z'
3 '-x, -z, y'
4 '-z, -x, y'
5 '-y, -z, x'
6 '-x, -y, z'
7 '-z, y, -x'
8 '-y, x, -z'
9 '-x, z, -y'
10 '-z, x, -y'
11 '-y, z, -x'
12 '-x, y, -z'
13 'z, -y, -x'
14 'y, -x, -z'
15 'x, -z, -y'
16 'z, -x, -y'
17 'y, -z, -x'
18 'x, -y, -z'
19 'z, y, x'
20 'y, x, z'
21 'x, z, y'
22 'z, x, y'
23 'y, z, x'
24 'x, y, z'
loop_
_atom_type_symbol
_atom_type_oxidation_number
Li1+ 1
Co1- -1
C2+ 2
O2- -2
loop_
_atom_site_label
_atom_site_type_symbol
_atom_site_symmetry_multiplicity
_atom_site_Wyckoff_symbol
_atom_site_fract_x
_atom_site_fract_y
_atom_site_fract_z
_atom_site_B_iso_or_equiv
_atom_site_occupancy
_atom_site_attached_hydrogens
Li1 Li1+ 1 a 0 0 0 0.057(2) 1. 0
Co1 Co1- 1 b 0.5 0.5 0.5 0.044(1) 1. 0
C1 C2+ 4 e 0.3185(3) 0.3185(3) 0.3185(3) . 1. 0
O1 O2- 4 e 0.1992(2) 0.1992(2) 0.1992(2) . 1. 0
loop_
_atom_site_aniso_label
_atom_site_aniso_type_symbol
_atom_site_aniso_U_11
_atom_site_aniso_U_22
_atom_site_aniso_U_33
_atom_site_aniso_U_12
_atom_site_aniso_U_13
_atom_site_aniso_U_23
C1 C2+ 0.058(1) 0.058(1) 0.058(1) -.003(1) -.003(1) -.003(1)
O1 O2- 0.091(1) 0.091(1) 0.091(1) -.021(1) -.021(1) -.021(1)
#End of TTdata_30854-ICSD