
#(C) 2019 by FIZ Karlsruhe - Leibniz Institute for Information Infrastructure.  All rights reserved.
data_30910-ICSD
_database_code_ICSD 30910
_audit_creation_date 1986-04-14
_chemical_name_systematic 'Sodium potassium catenagermanate'
_chemical_formula_structural 'Na K Ge O3'
_chemical_formula_sum 'Ge1 K1 Na1 O3'
_exptl_crystal_density_diffrn 3.43
_publ_section_title
'Die Kristallstruktur des Natriumkaliummetagermanats, Na K Ge O3'
loop_
_citation_id
_citation_journal_full
_citation_year
_citation_journal_volume
_citation_page_first
_citation_page_last
_citation_journal_id_ASTM
primary 'Zeitschrift fuer Kristallographie' 1984 169 267 276 ZEKRDZ
loop_
_publ_author_name
'Halwax, E.'
'Voellenkle, H.'
_cell_length_a 10.675(5)
_cell_length_b 6.895(3)
_cell_length_c 4.803(1)
_cell_angle_alpha 90.
_cell_angle_beta 90.
_cell_angle_gamma 90.
_cell_volume 353.52
_cell_formula_units_Z 4
_symmetry_space_group_name_H-M 'P b n 21'
_symmetry_Int_Tables_number 33
_refine_ls_R_factor_all 0.0479
loop_
_symmetry_equiv_pos_site_id
_symmetry_equiv_pos_as_xyz
1 '-x+1/2, y+1/2, z'
2 'x+1/2, -y+1/2, z+1/2'
3 '-x, -y, z+1/2'
4 'x, y, z'
loop_
_atom_type_symbol
_atom_type_oxidation_number
Ge4+ 4
K1+ 1
Na1+ 1
O2- -2
loop_
_atom_site_label
_atom_site_type_symbol
_atom_site_symmetry_multiplicity
_atom_site_Wyckoff_symbol
_atom_site_fract_x
_atom_site_fract_y
_atom_site_fract_z
_atom_site_B_iso_or_equiv
_atom_site_occupancy
_atom_site_attached_hydrogens
Ge1 Ge4+ 4 a 0.0487(1) 0.1295(1) 0.5 . 1. 0
K1 K1+ 4 a 0.2336(2) 0.3855(2) 0.0227(9) . 1. 0
Na1 Na1+ 4 a 0.4140(4) 0.1213(3) 0.537(1) . 1. 0
O1 O2- 4 a 0.0299(5) 0.0805(9) 0.131(2) . 1. 0
O2 O2- 4 a 0.2036(7) 0.1369(6) 0.566(2) . 1. 0
O3 O2- 4 a -.0396(4) 0.3352(9) 0.558(2) . 1. 0
loop_
_atom_site_aniso_label
_atom_site_aniso_type_symbol
_atom_site_aniso_U_11
_atom_site_aniso_U_22
_atom_site_aniso_U_33
_atom_site_aniso_U_12
_atom_site_aniso_U_13
_atom_site_aniso_U_23
Ge1 Ge4+ 0.0143(5) 0.0049(4) 0.0050(5) -.0008(2) -.0001(3) -.0001(4)
K1 K1+ 0.0202(8) 0.0156(8) 0.024(1) 0.0014(4) 0.001(1) 0.002(1)
Na1 Na1+ 0.017(2) 0.014(2) 0.016(3) -.0005(9) -.002(2) -.003(1)
O1 O2- 0.029(3) 0.008(2) 0.006(3) -.006(2) 0.005(2) 0.000(2)
O2 O2- 0.012(2) 0.027(3) 0.013(4) -.002(2) -.006(3) 0.000(2)
O3 O2- 0.019(2) 0.006(2) 0.017(4) 0.002(2) -.004(2) 0.001(3)
#End of TTdata_30910-ICSD