
#(C) 2019 by FIZ Karlsruhe - Leibniz Institute for Information Infrastructure.  All rights reserved.
data_31180-ICSD
_database_code_ICSD 31180
_audit_creation_date 1982-12-31
_audit_update_record 2015-02-01
_chemical_name_systematic 'Sodium potassium tecto-alumotrisilicate *'
_chemical_formula_structural '(Na0.667 K0.333) (Al Si3 O8)'
_chemical_formula_sum 'Al1 K0.333 Na0.667 O8 Si3'
_chemical_name_structure_type Feldspar#-(TC)-Albite-NaAlSi3O8
_chemical_name_mineral 'Anorthoclase low'
_exptl_crystal_density_diffrn 2.58
_cell_measurement_temperature 296.
_publ_section_title
'The anorthoclase structures: the effects of temperature and composition'
loop_
_citation_id
_citation_journal_full
_citation_year
_citation_journal_volume
_citation_page_first
_citation_page_last
_citation_journal_id_ASTM
primary 'American Mineralogist' 1982 67 975 996 AMMIAY
loop_
_publ_author_name
'Harlow, G.E.'
_cell_length_a 8.290(2)
_cell_length_b 12.966(3)
_cell_length_c 7.151(2)
_cell_angle_alpha 91.18(2)
_cell_angle_beta 116.31(1)
_cell_angle_gamma 90.14(2)
_cell_volume 688.82
_cell_formula_units_Z 4
_symmetry_space_group_name_H-M 'C -1'
_symmetry_Int_Tables_number 2
_refine_ls_R_factor_all 0.046
loop_
_symmetry_equiv_pos_site_id
_symmetry_equiv_pos_as_xyz
1 '-x, -y, -z'
2 'x, y, z'
3 '-x+1/2, -y+1/2, -z'
4 'x+1/2, y+1/2, z'
loop_
_atom_type_symbol
_atom_type_oxidation_number
Al3+ 3
Si4+ 4
Al3+ 3
Si4+ 4
Al3+ 3
Si4+ 4
Al3+ 3
Si4+ 4
Na1+ 1
K1+ 1
O2- -2
loop_
_atom_site_label
_atom_site_type_symbol
_atom_site_symmetry_multiplicity
_atom_site_Wyckoff_symbol
_atom_site_fract_x
_atom_site_fract_y
_atom_site_fract_z
_atom_site_B_iso_or_equiv
_atom_site_occupancy
_atom_site_attached_hydrogens
Al1 Al3+ 4 i 0.0085(1) 0.1753(1) 0.2207(1) . 0.25 0
Si1 Si4+ 4 i 0.0085(1) 0.1753(1) 0.2207(1) . 0.75 0
Al2 Al3+ 4 i 0.0069(1) 0.8180(1) 0.2252(1) . 0.25 0
Si2 Si4+ 4 i 0.0069(1) 0.8180(1) 0.2252(1) . 0.75 0
Al3 Al3+ 4 i 0.6954(1) 0.1140(1) 0.3354(1) . 0.25 0
Si3 Si4+ 4 i 0.6954(1) 0.1140(1) 0.3354(1) . 0.75 0
Al4 Al3+ 4 i 0.6941(1) 0.8815(1) 0.3465(1) . 0.25 0
Si4 Si4+ 4 i 0.6941(1) 0.8815(1) 0.3465(1) . 0.75 0
Na1 Na1+ 4 i 0.2750(2) 0.0013(2) 0.1366(2) . 0.667 0
K1 K1+ 4 i 0.2750(2) 0.0013(2) 0.1366(2) . 0.333 0
O1 O2- 4 i 0.0016(3) 0.1388(3) 0.9947(3) . 1. 0
O2 O2- 4 i 0.6056(3) 0.9972(2) 0.2828(4) . 1. 0
O3 O2- 4 i 0.8233(3) 0.1279(2) 0.2180(4) . 1. 0
O4 O2- 4 i 0.8227(3) 0.8574(2) 0.2329(4) . 1. 0
O5 O2- 4 i 0.0233(3) 0.3012(2) 0.2618(4) . 1. 0
O6 O2- 4 i 0.0241(3) 0.6916(2) 0.2421(4) . 1. 0
O7 O2- 4 i 0.1897(3) 0.1204(2) 0.4004(3) . 1. 0
O8 O2- 4 i 0.1883(3) 0.8725(2) 0.4125(4) . 1. 0
loop_
_atom_site_aniso_label
_atom_site_aniso_type_symbol
_atom_site_aniso_beta_11
_atom_site_aniso_beta_22
_atom_site_aniso_beta_33
_atom_site_aniso_beta_12
_atom_site_aniso_beta_13
_atom_site_aniso_beta_23
Al1 Al3+ 0.0056(2) 0.0017(1) 0.0051(2) -.0004(1) 0.0028(1) 0.0000(1)
Si1 Si4+ 0.0056(2) 0.0017(1) 0.0051(2) -.0004(1) 0.0028(1) 0.0000(1)
Al2 Al3+ 0.0053(2) 0.0015(1) 0.0051(2) 0.0007(1) 0.0026(1) 0.0002(1)
Si2 Si4+ 0.0053(2) 0.0015(1) 0.0051(2) 0.0007(1) 0.0026(1) 0.0002(1)
Al3 Al3+ 0.0051(2) 0.0011(1) 0.0065(2) 0.0000(1) 0.0026(1) 0.0002(1)
Si3 Si4+ 0.0051(2) 0.0011(1) 0.0065(2) 0.0000(1) 0.0026(1) 0.0002(1)
Al4 Al3+ 0.0054(2) 0.0011(1) 0.0063(2) 0.0003(1) 0.0027(1) 0.0001(1)
Si4 Si4+ 0.0054(2) 0.0011(1) 0.0063(2) 0.0003(1) 0.0027(1) 0.0001(1)
Na1 Na1+ -.0014(2) 0.0065(1) 0.0139(5) 0.0002(1) -.0007(3) -.0052(2)
K1 K1+ -.0014(2) 0.0065(1) 0.0139(5) 0.0002(1) -.0007(3) -.0052(2)
O1 O2- 0.0124(5) 0.0030(2) 0.0097(6) 0.0006(2) 0.0061(5) 0.0004(2)
O2 O2- 0.0086(5) 0.0018(1) 0.0124(6) 0.0001(2) 0.0032(4) 0.0002(2)
O3 O2- 0.0095(5) 0.0041(2) 0.0158(7) -.0010(2) 0.0075(5) 0.0005(3)
O4 O2- 0.0094(5) 0.0039(2) 0.0151(7) 0.0011(2) 0.0071(5) -.0002(3)
O5 O2- 0.0088(4) 0.0022(1) 0.0122(6) -.0003(2) 0.0044(4) -.0003(2)
O6 O2- 0.0084(4) 0.0020(1) 0.0118(6) 0.0003(2) 0.0030(4) 0.0004(2)
O7 O2- 0.0090(5) 0.0025(1) 0.0087(6) 0.0006(2) 0.0023(4) 0.0008(2)
O8 O2- 0.0086(5) 0.0027(1) 0.0095(5) -.0003(2) 0.0022(4) -.0007(2)
#End of TTdata_31180-ICSD