
#(C) 2019 by FIZ Karlsruhe - Leibniz Institute for Information Infrastructure.  All rights reserved.
data_31291-ICSD
_database_code_ICSD 31291
_audit_creation_date 1982-12-31
_audit_update_record 2007-08-01
_chemical_name_systematic 'Sodium chromium diphosphate(V)'
_chemical_formula_structural 'Na Cr (P2 O7)'
_chemical_formula_sum 'Cr1 Na1 O7 P2'
_chemical_name_structure_type Mg2P2O7
_exptl_crystal_density_diffrn 3.28
_publ_section_title 'Die Kristallstruktur von Na Cr P2 O7'
loop_
_citation_id
_citation_journal_full
_citation_year
_citation_journal_volume
_citation_page_first
_citation_page_last
_citation_journal_id_ASTM
primary 'Zeitschrift fuer Kristallographie' 1982 161 53 59 ZEKRDZ
loop_
_publ_author_name
'Bohaty, L.'
'Liebertz, J.'
'Froehlich, R.'
_cell_length_a 7.294(2)
_cell_length_b 7.838(2)
_cell_length_c 9.484(2)
_cell_angle_alpha 90.
_cell_angle_beta 111.72(2)
_cell_angle_gamma 90.
_cell_volume 503.71
_cell_formula_units_Z 4
_symmetry_space_group_name_H-M 'P 1 21/c 1'
_symmetry_Int_Tables_number 14
_refine_ls_R_factor_all 0.029
loop_
_symmetry_equiv_pos_site_id
_symmetry_equiv_pos_as_xyz
1 'x, -y+1/2, z+1/2'
2 '-x, -y, -z'
3 '-x, y+1/2, -z+1/2'
4 'x, y, z'
loop_
_atom_type_symbol
_atom_type_oxidation_number
Na1+ 1
Cr3+ 3
P5+ 5
O2- -2
loop_
_atom_site_label
_atom_site_type_symbol
_atom_site_symmetry_multiplicity
_atom_site_Wyckoff_symbol
_atom_site_fract_x
_atom_site_fract_y
_atom_site_fract_z
_atom_site_B_iso_or_equiv
_atom_site_occupancy
_atom_site_attached_hydrogens
Na1 Na1+ 4 e 0.2895(1) 0.0227(1) -.2053(1) . 1. 0
Cr1 Cr3+ 4 e 0.74036(3) 0.50710(3) 0.25287(2) . 1. 0
P1 P5+ 4 e 0.92574(5) 0.75436(5) 0.04534(4) . 1. 0
P2 P5+ 4 e 0.32737(5) 0.71021(5) 0.04417(4) . 1. 0
O1 O2- 4 e 0.1214(2) 0.6522(1) 0.0569(1) . 1. 0
O2 O2- 4 e 0.8070(2) 0.7864(1) -.1212(1) . 1. 0
O3 O2- 4 e 0.9901(2) 0.9196(1) 0.1390(1) . 1. 0
O4 O2- 4 e 0.8167(2) 0.6344(1) 0.1092(1) . 1. 0
O5 O2- 4 e 0.3613(2) 0.8945(1) 0.0989(1) . 1. 0
O6 O2- 4 e 0.3108(2) 0.7007(1) -.1196(1) . 1. 0
O7 O2- 4 e 0.4678(2) 0.5854(1) 0.1512(1) . 1. 0
loop_
_atom_site_aniso_label
_atom_site_aniso_type_symbol
_atom_site_aniso_U_11
_atom_site_aniso_U_22
_atom_site_aniso_U_33
_atom_site_aniso_U_12
_atom_site_aniso_U_13
_atom_site_aniso_U_23
Na1 Na1+ 0.0152(3) 0.0246(4) 0.0225(4) -0.0019(3) 0.0116(3) -0.0092(3)
Cr1 Cr3+ 0.0039(1) 0.0043(1) 0.0036(1) 0.0002(1) 0.0018(1) 0.0003(1)
P1 P5+ 0.0040(1) 0.0051(1) 0.0046(1) -0.0001(1) 0.0021(1) 0.0004(1)
P2 P5+ 0.0040(1) 0.0056(1) 0.0044(1) 0.0003(1) 0.0019(1) -0.0003(1)
O1 O2- 0.0042(4) 0.0078(4) 0.0126(5) 0.0003(3) 0.0043(4) -0.0011(3)
O2 O2- 0.0114(5) 0.0072(4) 0.0052(4) -0.0010(4) 0.0005(3) 0.0009(3)
O3 O2- 0.0056(4) 0.0077(4) 0.0088(4) -0.0007(3) 0.0023(3) -0.0021(3)
O4 O2- 0.0115(3) 0.0106(5) 0.0095(5) -0.0034(4) 0.0072(4) 0.0008(4)
O5 O2- 0.0089(4) 0.0066(4) 0.0088(4) -0.0019(3) 0.0052(4) -0.0032(3)
O6 O2- 0.0118(5) 0.0081(4) 0.0048(4) -0.0007(4) 0.0038(3) -0.0014(3)
O7 O2- 0.0056(4) 0.0110(4) 0.0087(4) 0.0025(3) 0.0025(4) 0.0029(3)
#End of TTdata_31291-ICSD