
#(C) 2019 by FIZ Karlsruhe - Leibniz Institute for Information Infrastructure.  All rights reserved.
data_31303-ICSD
_database_code_ICSD 31303
_audit_creation_date 1983-12-31
_audit_update_record 2012-08-01
_chemical_name_systematic 'Disodium tecto-dialumotrisilicate dihydrate'
_chemical_formula_structural 'Na2 (Al2 Si3 O10) (H2 O)2'
_chemical_formula_sum 'H4 Al2 Na2 O12 Si3'
_chemical_name_structure_type Natrolite-frame
_chemical_name_mineral Natrolite
_exptl_crystal_density_diffrn 2.25
_publ_section_title
'Refinement of a partially disordered natrolite, Na2 Al2 Si3 O10 * (H2 O)2'
loop_
_citation_id
_citation_journal_full
_citation_year
_citation_journal_volume
_citation_page_first
_citation_page_last
_citation_journal_id_ASTM
primary 'Zeitschrift fuer Kristallographie' 1983 163 69 74 ZEKRDZ
loop_
_publ_author_name
'Hesse, K.F.'
_cell_length_a 18.3189(40)
_cell_length_b 18.5950(40)
_cell_length_c 6.597(1)
_cell_angle_alpha 90.
_cell_angle_beta 90.
_cell_angle_gamma 90.
_cell_volume 2247.2
_cell_formula_units_Z 8
_symmetry_space_group_name_H-M 'F d d 2'
_symmetry_Int_Tables_number 43
_refine_ls_R_factor_all 0.032
loop_
_symmetry_equiv_pos_site_id
_symmetry_equiv_pos_as_xyz
1 'x+1/4, -y+1/4, z+1/4'
2 '-x+1/4, y+1/4, z+1/4'
3 '-x, -y, z'
4 'x, y, z'
5 'x+1/4, -y+3/4, z+3/4'
6 '-x+1/4, y+3/4, z+3/4'
7 '-x, -y+1/2, z+1/2'
8 'x, y+1/2, z+1/2'
9 'x+3/4, -y+1/4, z+3/4'
10 '-x+3/4, y+1/4, z+3/4'
11 '-x+1/2, -y, z+1/2'
12 'x+1/2, y, z+1/2'
13 'x+3/4, -y+3/4, z+1/4'
14 '-x+3/4, y+3/4, z+1/4'
15 '-x+1/2, -y+1/2, z'
16 'x+1/2, y+1/2, z'
loop_
_atom_type_symbol
_atom_type_oxidation_number
Na1+ 1
Al3+ 3
Si4+ 4
Al3+ 3
Si4+ 4
Al3+ 3
Si4+ 4
O2- -2
H1+ 1
loop_
_atom_site_label
_atom_site_type_symbol
_atom_site_symmetry_multiplicity
_atom_site_Wyckoff_symbol
_atom_site_fract_x
_atom_site_fract_y
_atom_site_fract_z
_atom_site_B_iso_or_equiv
_atom_site_occupancy
_atom_site_attached_hydrogens
Na1 Na1+ 16 b 0.2209 0.5304 0.1196 . 1. 0
Al1 Al3+ 8 a 0 0 0 . 0.12 0
Si1 Si4+ 8 a 0 0 0 . 0.88 0
Al2 Al3+ 16 b 0.1537 0.2114 0.6244(2) . 0.12 0
Si2 Si4+ 16 b 0.1537 0.2114 0.6244(2) . 0.88 0
Al3 Al3+ 16 b 0.2124 0.3439 0.8673(2) . 0.8 0
Si3 Si4+ 16 b 0.2124 0.3439 0.8673(2) . 0.2 0
O1 O2- 16 b 0.0226(1) 0.0691(1) 0.8642(3) . 1. 0
O2 O2- 16 b 0.1797(1) 0.4312(1) 0.8637(3) . 1. 0
O3 O2- 16 b 0.1519(1) 0.2857(1) 0.7537(3) . 1. 0
O4 O2- 16 b 0.2922(1) 0.3473(1) 0.7888(3) . 1. 0
O5 O2- 16 b -.0698(1) 0.0227(1) 0.1405(3) . 1. 0
O6 O2- 16 b 0.1935(1) 0.4403(1) 0.3646(4) . 1. 0
H1 H1+ 16 b 0.0519(18) 0.1523(17) 0.0530(54) 0.034(11) 1. 0
H2 H1+ 16 b 0.0890(16) 0.1884(16) 0.1641(52) 0.0201(99) 1. 0
loop_
_atom_site_aniso_label
_atom_site_aniso_type_symbol
_atom_site_aniso_U_11
_atom_site_aniso_U_22
_atom_site_aniso_U_33
_atom_site_aniso_U_12
_atom_site_aniso_U_13
_atom_site_aniso_U_23
Na1 Na1+ 0.0168(4) 0.0175(4) 0.0197(5) -.0019(3) -.0031(5) -.0024(5)
Al1 Al3+ 0.0098(3) 0.0099(3) 0.0050(3) 0.0006(3) 0 0
Si1 Si4+ 0.0098(3) 0.0099(3) 0.0050(3) 0.0006(3) 0 0
Al2 Al3+ 0.0070(2) 0.0081(2) 0.0073(2) -.0005(2) 0.0000(2) -.0006(2)
Si2 Si4+ 0.0070(2) 0.0081(2) 0.0073(2) -.0005(2) 0.0000(2) -.0006(2)
Al3 Al3+ 0.0070(2) 0.0053(2) 0.0054(2) 0.0003(2) 0.0001(2) 0.0001(2)
Si3 Si4+ 0.0070(2) 0.0053(2) 0.0054(2) 0.0003(2) 0.0001(2) 0.0001(2)
O1 O2- 0.0232(7) 0.0137(6) 0.0112(7) -.0019(6) 0.0013(7) 0.0017(7)
O2 O2- 0.0088(5) 0.0097(5) 0.0114(6) 0.0009(4) 0.0007(7) -.0001(7)
O3 O2- 0.0128(6) 0.0119(6) 0.0175(7) -.0021(5) 0.0004(6) -.0043(6)
O4 O2- 0.0139(7) 0.0121(6) 0.0169(8) 0.0027(5) 0.0035(6) -.0010(6)
O5 O2- 0.0142(6) 0.0245(7) 0.0108(7) 0.0033(6) 0.0032(6) -.0026(7)
O6 O2- 0.0249(9) 0.0254(9) 0.0209(9) -.0018(7) 0.0018(9) -.0008(10)
#End of TTdata_31303-ICSD