
#(C) 2019 by FIZ Karlsruhe - Leibniz Institute for Information Infrastructure.  All rights reserved.
data_31344-ICSD
_database_code_ICSD 31344
_audit_creation_date 1983-12-31
_audit_update_record 2012-08-01
_chemical_name_systematic 'Lead tetrasodium cyclo-triphosphate(V)'
_chemical_formula_structural 'Pb Na4 (P3 O9)2'
_chemical_formula_sum 'Na4 O18 P6 Pb1'
_exptl_crystal_density_diffrn 3.39
_publ_section_title

;
Crystal structure of lead-tetrasodium trimetaphosphate: Pb Na4 (P3 O9)2,
Crystal data for Ba Na4 (P3 O9)2
;
loop_
_citation_id
_citation_journal_full
_citation_year
_citation_journal_volume
_citation_page_first
_citation_page_last
_citation_journal_id_ASTM
primary 'Zeitschrift fuer Kristallographie' 1983 164 307 313 ZEKRDZ
loop_
_publ_author_name
'Averbuch-Pouchot, M.T.'
'Durif, A.'
_cell_length_a 7.268(4)
_cell_length_b 8.151(5)
_cell_length_c 7.851(5)
_cell_angle_alpha 121.52(5)
_cell_angle_beta 102.06(5)
_cell_angle_gamma 73.00(5)
_cell_volume 378.26
_cell_formula_units_Z 1
_symmetry_space_group_name_H-M 'P -1'
_symmetry_Int_Tables_number 2
_refine_ls_R_factor_all 0.049
loop_
_symmetry_equiv_pos_site_id
_symmetry_equiv_pos_as_xyz
1 '-x, -y, -z'
2 'x, y, z'
loop_
_atom_type_symbol
_atom_type_oxidation_number
Pb2+ 2
Na1+ 1
P5+ 5
Na1+ 1
O2- -2
loop_
_atom_site_label
_atom_site_type_symbol
_atom_site_symmetry_multiplicity
_atom_site_Wyckoff_symbol
_atom_site_fract_x
_atom_site_fract_y
_atom_site_fract_z
_atom_site_B_iso_or_equiv
_atom_site_occupancy
_atom_site_attached_hydrogens
Pb1 Pb2+ 2 i 0.0797(1) 0.1970(1) 0.16961(9) . 0.5 0
Na1 Na1+ 2 i 0.0797(1) 0.1970(1) 0.16961(9) . 0.5 0
P1 P5+ 2 i 0.2307(3) 0.9791(3) 0.6795(3) . 1. 0
P2 P5+ 2 i 0.5046(3) 0.7785(3) 0.0464(3) . 1. 0
P3 P5+ 2 i 0.7656(3) 0.6671(3) 0.3209(3) . 1. 0
Na2 Na1+ 2 i 0.1788(5) 0.6575(5) 0.1759(5) . 1. 0
Na3 Na1+ 1 h 0.5 0.5 0.5 . 1. 0
O1 O2- 2 i 0.2525(9) 0.7702(8) 0.5205(9) . 1. 0
O2 O2- 2 i 0.0739(9) 0.0708(8) -.1789(8) . 1. 0
O3 O2- 2 i 0.4332(9) 0.0115(7) 0.8058(8) . 1. 0
O4 O2- 2 i 0.2062(9) 0.1102(7) 0.5745(8) . 1. 0
O5 O2- 2 i 0.2919(9) 0.8213(8) 0.0189(8) . 1. 0
O6 O2- 2 i 0.3732(10) 0.3420(8) 0.1289(8) . 1. 0
O7 O2- 2 i 0.263(1) 0.3652(8) 0.5188(8) . 1. 0
O8 O2- 2 i 0.0780(9) 0.4719(8) -.1827(8) . 1. 0
O9 O2- 2 i 0.4368(9) 0.3192(7) 0.8094(7) . 1. 0
loop_
_atom_site_aniso_label
_atom_site_aniso_type_symbol
_atom_site_aniso_beta_11
_atom_site_aniso_beta_22
_atom_site_aniso_beta_33
_atom_site_aniso_beta_12
_atom_site_aniso_beta_13
_atom_site_aniso_beta_23
Pb1 Pb2+ 0.0121(1) 0.00871(9) 0.00653(8) 0.0029(1) 0.0025(1) 0.00415(5)
Na1 Na1+ 0.0121(1) 0.00871(9) 0.00653(8) 0.0029(1) 0.0025(1) 0.00415(5)
P1 P5+ 0.0055(4) 0.0029(3) 0.0060(3) 0.0004(3) 0.0015(3) 0.0015(2)
P2 P5+ 0.0047(4) 0.0043(3) 0.0049(3) 0.0002(3) 0.0007(3) 0.0023(2)
P3 P5+ 0.0049(4) 0.0043(3) 0.0050(3) -.0004(3) 0.0007(3) 0.0026(2)
Na2 Na1+ 0.0101(7) 0.0068(5) 0.0092(6) 0.0005(5) 0.0025(5) 0.0029(4)
Na3 Na1+ 0.0064(9) 0.0064(7) 0.0097(7) 0.0005(5) 0.0010(5) 0.0045(5)
O1 O2- 0.009(1) 0.0017(8) 0.0085(11) -.001(1) -.001(1) -.0005(5)
O2 O2- 0.006(1) 0.0070(9) 0.0084(9) 0.001(1) 0.003(1) 0.003(1)
O3 O2- 0.006(1) 0.0033(8) 0.0075(9) 0.002(1) 0.001(1) 0.002(1)
O4 O2- 0.006(1) 0.0037(7) 0.0074(9) -.002(1) -.001(1) 0.003(1)
O5 O2- 0.006(1) 0.0108(9) 0.0107(9) -.002(1) -.001(1) 0.007(1)
O6 O2- 0.011(1) 0.0074(9) 0.0057(8) 0.003(1) 0.005(1) 0.004(1)
O7 O2- 0.011(1) 0.0090(9) 0.0065(8) -.002(1) 0.001(1) 0.005(1)
O8 O2- 0.008(1) 0.0062(9) 0.0071(9) 0.001(1) 0.003(1) 0.003(1)
O9 O2- 0.006(1) 0.0060(8) 0.0070(8) -.002(1) -.001(1) 0.005(1)
#End of TTdata_31344-ICSD