
#(C) 2019 by FIZ Karlsruhe - Leibniz Institute for Information Infrastructure.  All rights reserved.
data_31390-ICSD
_database_code_ICSD 31390
_audit_creation_date 1984-12-31
_audit_update_record 2012-08-01
_chemical_name_systematic 'Sodium chlorate bromate (1/.7/.3)'
_chemical_formula_structural 'Na (Cl O3)0.7 (Br O3)0.3'
_chemical_formula_sum 'Br0.3 Cl0.7 Na1 O3'
_chemical_name_structure_type NaClO3
_exptl_crystal_density_diffrn 2.73
_publ_section_title

;
An X-Ray diffraction study of the size effect on a crystalline solid solution
of sodium halates
;
loop_
_citation_id
_citation_journal_full
_citation_year
_citation_journal_volume
_citation_page_first
_citation_page_last
_citation_journal_id_ASTM
primary 'Zeitschrift fuer Kristallographie' 1984 166 121 127 ZEKRDZ
loop_
_publ_author_name
'Raja, C.S.'
'Mohanlal, S.K.'
'Chandrasekaran, K.S.'
_cell_length_a 6.630(2)
_cell_length_b 6.630(2)
_cell_length_c 6.630(2)
_cell_angle_alpha 90.
_cell_angle_beta 90.
_cell_angle_gamma 90.
_cell_volume 291.43
_cell_formula_units_Z 4
_symmetry_space_group_name_H-M 'P 21 3'
_symmetry_Int_Tables_number 198
loop_
_symmetry_equiv_pos_site_id
_symmetry_equiv_pos_as_xyz
1 '-z+1/2, -x, y+1/2'
2 '-y+1/2, -z, x+1/2'
3 '-x+1/2, -y, z+1/2'
4 '-z, x+1/2, -y+1/2'
5 '-y, z+1/2, -x+1/2'
6 '-x, y+1/2, -z+1/2'
7 'z+1/2, -x+1/2, -y'
8 'y+1/2, -z+1/2, -x'
9 'x+1/2, -y+1/2, -z'
10 'z, x, y'
11 'y, z, x'
12 'x, y, z'
loop_
_atom_type_symbol
_atom_type_oxidation_number
Na1+ 1
Cl5+ 5
Br5+ 5
O2- -2
loop_
_atom_site_label
_atom_site_type_symbol
_atom_site_symmetry_multiplicity
_atom_site_Wyckoff_symbol
_atom_site_fract_x
_atom_site_fract_y
_atom_site_fract_z
_atom_site_B_iso_or_equiv
_atom_site_occupancy
_atom_site_attached_hydrogens
Na1 Na1+ 4 a 0.0725(7) 0.0725 0.0725 . 1. 0
Cl1 Cl5+ 4 a 0.4102(2) 0.4102 0.4102 . 0.7 0
Br1 Br5+ 4 a 0.4102(2) 0.4102 0.4102 . 0.3 0
O1 O2- 12 b 0.2965(12) 0.5936(13) 0.5064(12) . 1. 0
loop_
_atom_site_aniso_label
_atom_site_aniso_type_symbol
_atom_site_aniso_beta_11
_atom_site_aniso_beta_22
_atom_site_aniso_beta_33
_atom_site_aniso_beta_12
_atom_site_aniso_beta_13
_atom_site_aniso_beta_23
Na1 Na1+ 0.0139(7) 0.0139(7) 0.0139(7) -.0012(9) -.0012(9) -.0012(9)
Cl1 Cl5+ 0.0055(2) 0.0055(2) 0.0055(2) 0.0003(2) 0.0003(2) 0.0003(2)
Br1 Br5+ 0.0055(2) 0.0055(2) 0.0055(2) 0.0003(2) 0.0003(2) 0.0003(2)
O1 O2- 0.0155(17) 0.0103(15) 0.0160(17) -.0005(16) 0.0116(14) -.0040(17)
#End of TTdata_31390-ICSD