
#(C) 2019 by FIZ Karlsruhe - Leibniz Institute for Information Infrastructure.  All rights reserved.
data_31926-ICSD
_database_code_ICSD 31926
_audit_creation_date 1980-01-01
_audit_update_record 2012-02-01
_chemical_name_systematic 'Sodium tricyanocarbonate(II)'
_chemical_formula_structural 'Na (C (C N)3)'
_chemical_formula_sum 'C4 N3 Na1'
_chemical_name_structure_type NaC4N3
_exptl_crystal_density_diffrn 1.5
_publ_section_title
'The crystal structure of sodium tricyanomethanide, Na C (C N)3'
loop_
_citation_id
_citation_journal_full
_citation_year
_citation_journal_volume
_citation_page_first
_citation_page_last
_citation_journal_id_ASTM
primary 'Acta Chemica Scandinavica ' 1967 21 1530 1542 ACSAA4
loop_
_publ_author_name
'Andersen, P.'
'Klewe, B.'
'Thom, E.'
_cell_length_a 3.705(1)
_cell_length_b 9.198(3)
_cell_length_c 7.741(2)
_cell_angle_alpha 105.76(4)
_cell_angle_beta 100.16(5)
_cell_angle_gamma 88.31(6)
_cell_volume 249.86
_cell_formula_units_Z 2
_symmetry_space_group_name_H-M 'P -1'
_symmetry_Int_Tables_number 2
_refine_ls_R_factor_all 0.051
loop_
_symmetry_equiv_pos_site_id
_symmetry_equiv_pos_as_xyz
1 '-x, -y, -z'
2 'x, y, z'
loop_
_atom_type_symbol
_atom_type_oxidation_number
Na1+ 1
C2+ 2
N3- -3
loop_
_atom_site_label
_atom_site_type_symbol
_atom_site_symmetry_multiplicity
_atom_site_Wyckoff_symbol
_atom_site_fract_x
_atom_site_fract_y
_atom_site_fract_z
_atom_site_B_iso_or_equiv
_atom_site_occupancy
_atom_site_attached_hydrogens
Na1 Na1+ 2 i 0.8207(2) 0.1596(1) 0.1566(1) . 1. 0
C1 C2+ 2 i 0.714 0.7073(4) 0.2955(3) . 1. 0
C2 C2+ 2 i 0.7646(1) 0.5506(10) 0.2379(4) . 1. 0
C3 C2+ 2 i 0.6416 0.7724(4) 0.4729(7) . 1. 0
C4 C2+ 2 i 0.7492(1) 0.7996(2) 0.1807(3) . 1. 0
N1 N3- 2 i 0.8074(1) 0.4230(14) 0.1945(6) . 1. 0
N2 N3- 2 i 0.5842 0.8236(5) 0.6184(11) . 1. 0
N3 N3- 2 i 0.7789(2) 0.8762(8) 0.0863(7) . 1. 0
loop_
_atom_site_aniso_label
_atom_site_aniso_type_symbol
_atom_site_aniso_U_11
_atom_site_aniso_U_22
_atom_site_aniso_U_33
_atom_site_aniso_U_12
_atom_site_aniso_U_13
_atom_site_aniso_U_23
Na1 Na1+ 0.0408(7) 0.0297(6) 0.0361(6) 0.0047(4) 0.0133(5) 0.0082(4)
C1 C2+ 0.0377(17) 0.0342(14) 0.0365(14) 0.0014(11) 0.0125(11) 0.0115(11)
C2 C2+ 0.0446(19) 0.0359(16) 0.0438(16) 0.0016(12) 0.0130(13) 0.0144(12)
C3 C2+ 0.0295(16) 0.0403(15) 0.0362(15) 0.0027(11) 0.0092(11) 0.0138(11)
C4 C2+ 0.0290(15) 0.0292(13) 0.0325(13) 0.0033(10) 0.0102(10) 0.0023(10)
N1 N3- 0.0759(23) 0.0381(16) 0.0766(21) 0.0077(14) 0.0252(17) 0.0168(14)
N2 N3- 0.0505(18) 0.0590(17) 0.0374(14) 0.0064(13) 0.0162(11) 0.0154(12)
N3 N3- 0.0528(17) 0.0360(13) 0.0404(14) 0.0033(11) 0.0179(11) 0.0130(11)
#End of TTdata_31926-ICSD