
#(C) 2019 by FIZ Karlsruhe - Leibniz Institute for Information Infrastructure.  All rights reserved.
data_32511-ICSD
_database_code_ICSD 32511
_audit_creation_date 1982-12-31
_chemical_name_systematic 'Mercury sodium phosphate'
_chemical_formula_structural 'Hg Na P O4'
_chemical_formula_sum 'Hg1 Na1 O4 P1'
_chemical_name_structure_type Na2CrO4
_exptl_crystal_density_diffrn 5.93
_publ_section_title 'Structure of mercury sodium phosphate'
loop_
_citation_id
_citation_journal_full
_citation_year
_citation_journal_volume
_citation_page_first
_citation_page_last
_citation_journal_id_ASTM
primary

;
Acta Crystallographica, Section B: Structural Crystallography and Crystal
Chemistry
; 1982 38 239 241 ACBCAR
loop_
_publ_author_name
'Hata, M.'
'Marumo, F.'
_cell_length_a 5.883(1)
_cell_length_b 9.401(3)
_cell_length_c 6.448(1)
_cell_angle_alpha 90.
_cell_angle_beta 90.
_cell_angle_gamma 90.
_cell_volume 356.61
_cell_formula_units_Z 4
_symmetry_space_group_name_H-M 'C m c m'
_symmetry_Int_Tables_number 63
_refine_ls_R_factor_all 0.054
loop_
_symmetry_equiv_pos_site_id
_symmetry_equiv_pos_as_xyz
1 '-x, y, -z+1/2'
2 '-x, -y, z+1/2'
3 '-x, y, z'
4 '-x, -y, -z'
5 'x, -y, z+1/2'
6 'x, y, -z+1/2'
7 'x, -y, -z'
8 'x, y, z'
9 '-x+1/2, y+1/2, -z+1/2'
10 '-x+1/2, -y+1/2, z+1/2'
11 '-x+1/2, y+1/2, z'
12 '-x+1/2, -y+1/2, -z'
13 'x+1/2, -y+1/2, z+1/2'
14 'x+1/2, y+1/2, -z+1/2'
15 'x+1/2, -y+1/2, -z'
16 'x+1/2, y+1/2, z'
loop_
_atom_type_symbol
_atom_type_oxidation_number
Hg2+ 2
Na1+ 1
P5+ 5
O2- -2
loop_
_atom_site_label
_atom_site_type_symbol
_atom_site_symmetry_multiplicity
_atom_site_Wyckoff_symbol
_atom_site_fract_x
_atom_site_fract_y
_atom_site_fract_z
_atom_site_B_iso_or_equiv
_atom_site_occupancy
_atom_site_attached_hydrogens
Hg1 Hg2+ 4 c 0 0.1905(1) 0.25 . 1. 0
Na1 Na1+ 4 b 0 0.5 0 . 1. 0
P1 P5+ 4 c 0 0.8599(3) 0.25 . 1. 0
O1 O2- 8 f 0 0.7552(7) 0.4366(11) . 1. 0
O2 O2- 8 g 0.2145(12) 0.9536(7) 0.25 . 1. 0
loop_
_atom_site_aniso_label
_atom_site_aniso_type_symbol
_atom_site_aniso_U_11
_atom_site_aniso_U_22
_atom_site_aniso_U_33
_atom_site_aniso_U_12
_atom_site_aniso_U_13
_atom_site_aniso_U_23
P1 P5+ 0.0217(3) 0.0265(3) 0.0218(3) 0.0146(3) 0.0058(2) 0.0106(3)
O1 O2- 0.0168(24) 0.0109(18) 0.0106(20) 0 0 0.0016(16)
O2 O2- 0.0094(29) 0.0156(22) 0.0185(25) 0.0039(17) 0 0
#End of TTdata_32511-ICSD