
#(C) 2019 by FIZ Karlsruhe - Leibniz Institute for Information Infrastructure.  All rights reserved.
data_32518-ICSD
_database_code_ICSD 32518
_audit_creation_date 1982-12-31
_audit_update_record 2006-04-01
_chemical_name_systematic 'Disodium chloride tetrahydroxoborate'
_chemical_formula_structural 'Na2 Cl (B (O H)4)'
_chemical_formula_sum 'H4 B1 Cl1 Na2 O4'
_chemical_name_mineral Teepleite
_exptl_crystal_density_diffrn 2.08
_publ_section_title
'Verfeinerung der Kristallstruktur von synthetischem Teepleit'
loop_
_citation_id
_citation_journal_full
_citation_year
_citation_journal_volume
_citation_page_first
_citation_page_last
_citation_journal_id_ASTM
primary

;
Acta Crystallographica, Section B: Structural Crystallography and Crystal
Chemistry
; 1982 38 82 85 ACBCAR
loop_
_publ_author_name
'Effenberger, H.'
_cell_length_a 7.260(2)
_cell_length_b 7.260(2)
_cell_length_c 4.847(2)
_cell_angle_alpha 90.
_cell_angle_beta 90.
_cell_angle_gamma 90.
_cell_volume 255.47
_cell_formula_units_Z 2
_symmetry_space_group_name_H-M 'P 4/n m m Z'
_symmetry_Int_Tables_number 129
_refine_ls_R_factor_all 0.037
loop_
_symmetry_equiv_pos_site_id
_symmetry_equiv_pos_as_xyz
1 'y+1/2, x+1/2, -z'
2 '-y, x+1/2, -z'
3 'y+1/2, -x, -z'
4 '-y, -x, -z'
5 'x+1/2, y+1/2, -z'
6 '-x, y+1/2, -z'
7 'x+1/2, -y, -z'
8 '-x, -y, -z'
9 '-y+1/2, -x+1/2, z'
10 'y, -x+1/2, z'
11 '-y+1/2, x, z'
12 'y, x, z'
13 '-x+1/2, -y+1/2, z'
14 'x, -y+1/2, z'
15 '-x+1/2, y, z'
16 'x, y, z'
loop_
_atom_type_symbol
_atom_type_oxidation_number
Na1+ 1
Cl1- -1
B3+ 3
O2- -2
H1+ 1
loop_
_atom_site_label
_atom_site_type_symbol
_atom_site_symmetry_multiplicity
_atom_site_Wyckoff_symbol
_atom_site_fract_x
_atom_site_fract_y
_atom_site_fract_z
_atom_site_B_iso_or_equiv
_atom_site_occupancy
_atom_site_attached_hydrogens
Na1 Na1+ 4 e 0 0 0.5 . 1. 0
Cl1 Cl1- 2 c 0.25 0.25 0.7331(3) . 1. 0
B1 B3+ 2 a 0.75 0.25 0 . 1. 0
O1 O2- 8 i 0.25 -.0881(3) 0.1857(4) . 1. 0
H1 H1+ 8 i 0.25 0.006(7) 0.072(11) 0.5(1) 1. 0
loop_
_atom_site_aniso_label
_atom_site_aniso_type_symbol
_atom_site_aniso_beta_11
_atom_site_aniso_beta_22
_atom_site_aniso_beta_33
_atom_site_aniso_beta_12
_atom_site_aniso_beta_13
_atom_site_aniso_beta_23
Na1 Na1+ 0.0060(3) 0.0060(3) 0.0133(8) -.0009(2) -.0004(2) -.0004(2)
Cl1 Cl1- 0.0045(2) 0.0045(2) 0.0134(7) 0 0 0
B1 B3+ 0.0038(5) 0.0038(5) 0.0076(19) 0 0 0
O1 O2- 0.0065(4) 0.0038(4) 0.0104(9) 0 0 0
#End of TTdata_32518-ICSD