
#(C) 2019 by FIZ Karlsruhe - Leibniz Institute for Information Infrastructure.  All rights reserved.
data_32523-ICSD
_database_code_ICSD 32523
_audit_creation_date 1982-12-31
_audit_update_record 1993-07-06
_chemical_name_systematic 'Disodium diberyllium cyclo-trisilicate'
_chemical_formula_structural 'Na2 Be2 (Si3 O9)'
_chemical_formula_sum 'Be2 Na2 O9 Si3'
_exptl_crystal_density_diffrn 2.57
_publ_section_title
'Structure du Silicate de Beryllium et de Sodium Na2 Be2 Si3 O9'
loop_
_citation_id
_citation_journal_full
_citation_year
_citation_journal_volume
_citation_page_first
_citation_page_last
_citation_journal_id_ASTM
primary

;
Acta Crystallographica, Section B: Structural Crystallography and Crystal
Chemistry
; 1982 38 62 66 ACBCAR
loop_
_publ_author_name
'Ginderow, D.'
'Cesbron, F.'
'Sichere, M.C.'
_cell_length_a 11.748(5)
_cell_length_b 9.415(4)
_cell_length_c 6.818(3)
_cell_angle_alpha 90.
_cell_angle_beta 90.
_cell_angle_gamma 90.
_cell_volume 754.12
_cell_formula_units_Z 4
_symmetry_space_group_name_H-M 'P n m a'
_symmetry_Int_Tables_number 62
_refine_ls_R_factor_all 0.027
loop_
_symmetry_equiv_pos_site_id
_symmetry_equiv_pos_as_xyz
1 'x+1/2, y, -z+1/2'
2 'x, -y+1/2, z'
3 '-x+1/2, y+1/2, z+1/2'
4 '-x, -y, -z'
5 '-x+1/2, -y, z+1/2'
6 '-x, y+1/2, -z'
7 'x+1/2, -y+1/2, -z+1/2'
8 'x, y, z'
loop_
_atom_type_symbol
_atom_type_oxidation_number
Si4+ 4
Be2+ 2
Na1+ 1
O2- -2
loop_
_atom_site_label
_atom_site_type_symbol
_atom_site_symmetry_multiplicity
_atom_site_Wyckoff_symbol
_atom_site_fract_x
_atom_site_fract_y
_atom_site_fract_z
_atom_site_B_iso_or_equiv
_atom_site_occupancy
_atom_site_attached_hydrogens
Si1 Si4+ 4 c 0.49688(4) 0.25 -.0997(1) . 1. 0
Si2 Si4+ 4 c 0.56241(4) 0.25 0.3284(1) . 1. 0
Si3 Si4+ 4 c 0.74559(4) 0.25 0.0249(1) . 1. 0
Be1 Be2+ 8 d 0.43015(13) 0.0600(2) 0.5944(2) . 1. 0
Na1 Na1+ 8 d 0.65317(7) 0.5331(1) -.1522(1) . 1. 0
O1 O2- 4 c 0.47414(11) 0.25 0.1403(2) . 1. 0
O2 O2- 4 c 0.63620(11) 0.25 -.1227(2) . 1. 0
O3 O2- 4 c 0.69296(11) 0.25 0.2496(2) . 1. 0
O4 O2- 8 d 0.44696(9) 0.1043(1) -.1824(1) . 1. 0
O5 O2- 8 d 0.54057(7) 0.1094(1) 0.4533(1) . 1. 0
O6 O2- 8 d 0.81267(8) 0.1040(1) 0.0013(2) . 1. 0
loop_
_atom_site_aniso_label
_atom_site_aniso_type_symbol
_atom_site_aniso_beta_11
_atom_site_aniso_beta_22
_atom_site_aniso_beta_33
_atom_site_aniso_beta_12
_atom_site_aniso_beta_13
_atom_site_aniso_beta_23
Si1 Si4+ 0.0006 0.0013 0.0013(1) 0 -.0001 0
Si2 Si4+ 0.0005 0.0006 0.0012(1) 0 0.0002 0
Si3 Si4+ 0.0004 0.0012 0.0021(1) 0 0.0003 0
Be1 Be2+ 0.0011(1) 0.0011(1) 0.0028(2) 0.0000(1) -.0003(1) 0.0000(1)
Na1 Na1+ 0.0038 0.0043(1) 0.0100(2) 0.0013 0.0008(1) 0.0026(1)
O1 O2- 0.0008 0.0025(1) 0.0016(2) 0 0.0000(1) 0
O2 O2- 0.0008(1) 0.0063(2) 0.0025(2) 0 0.0000(1) 0
O3 O2- 0.0007 0.0033(1) 0.0025(2) 0 0.0003(1) 0
O4 O2- 0.0024 0.0019(1) 0.0027(1) -.0006 -.0001(1) -.0006(1)
O5 O2- 0.0013 0.0008 0.0030(1) -.0001 0.0004(1) 0.0004(1)
O6 O2- 0.0013 0.0017(1) 0.0059(2) 0.0005 0.0008(1) -.0002(1)
#End of TTdata_32523-ICSD