
#(C) 2019 by FIZ Karlsruhe - Leibniz Institute for Information Infrastructure.  All rights reserved.
data_33235-ICSD
_database_code_ICSD 33235
_audit_creation_date 1983-12-31
_chemical_name_systematic 'Sodium dithiozincate'
_chemical_formula_structural 'Na2 Zn S2'
_chemical_formula_sum 'Na2 S2 Zn1'
_chemical_name_structure_type K2ZnO2
_exptl_crystal_density_diffrn 2.74
_publ_section_title 'Na2 Zn S2 und Na6 Zn S4, zwei neue Thiozinkate'
loop_
_citation_id
_citation_journal_full
_citation_year
_citation_journal_volume
_citation_page_first
_citation_page_last
_citation_journal_id_ASTM
primary 'Revue de Chimie Minerale' 1983 20 682 688 RVCMA8
loop_
_publ_author_name
'Klepp, K.O.'
'Bronger, W.'
_cell_length_a 6.421(2)
_cell_length_b 11.133(6)
_cell_length_c 5.942(4)
_cell_angle_alpha 90.
_cell_angle_beta 90.
_cell_angle_gamma 90.
_cell_volume 424.76
_cell_formula_units_Z 4
_symmetry_space_group_name_H-M 'I b a m'
_symmetry_Int_Tables_number 72
_refine_ls_R_factor_all 0.027
loop_
_symmetry_equiv_pos_site_id
_symmetry_equiv_pos_as_xyz
1 '-x, y, z+1/2'
2 'x, -y, z+1/2'
3 'x, y, -z'
4 '-x, -y, -z'
5 'x, -y, -z+1/2'
6 '-x, y, -z+1/2'
7 '-x, -y, z'
8 'x, y, z'
9 '-x+1/2, y+1/2, z'
10 'x+1/2, -y+1/2, z'
11 'x+1/2, y+1/2, -z+1/2'
12 '-x+1/2, -y+1/2, -z+1/2'
13 'x+1/2, -y+1/2, -z'
14 '-x+1/2, y+1/2, -z'
15 '-x+1/2, -y+1/2, z+1/2'
16 'x+1/2, y+1/2, z+1/2'
loop_
_atom_type_symbol
_atom_type_oxidation_number
Na1+ 1
Zn2+ 2
S2- -2
loop_
_atom_site_label
_atom_site_type_symbol
_atom_site_symmetry_multiplicity
_atom_site_Wyckoff_symbol
_atom_site_fract_x
_atom_site_fract_y
_atom_site_fract_z
_atom_site_B_iso_or_equiv
_atom_site_occupancy
_atom_site_attached_hydrogens
Na1 Na1+ 8 j 0.3493(4) 0.1444(2) 0 . 1. 0
Zn1 Zn2+ 4 a 0 0 0.25 . 1. 0
S1 S2- 8 j 0.2123(2) -.1112(1) 0 . 1. 0
loop_
_atom_site_aniso_label
_atom_site_aniso_type_symbol
_atom_site_aniso_U_11
_atom_site_aniso_U_22
_atom_site_aniso_U_33
_atom_site_aniso_U_12
_atom_site_aniso_U_13
_atom_site_aniso_U_23
Na1 Na1+ 0.027(1) 0.028(1) 0.036(1) -.002(1) 0 0
Zn1 Zn2+ 0.0148(4) 0.0227(4) 0.0116(4) 0 0 0
S1 S2- 0.0176(7) 0.0190(7) 0.0136(7) 0.0052(7) 0 0
#End of TTdata_33235-ICSD