
#(C) 2019 by FIZ Karlsruhe - Leibniz Institute for Information Infrastructure.  All rights reserved.
data_33508-ICSD
_database_code_ICSD 33508
_audit_creation_date 1982-12-31
_audit_update_record 2003-10-01
_chemical_name_systematic 'Disodium magnesium aluminium fluoride'
_chemical_formula_structural 'Na2 Mg Al F7'
_chemical_formula_sum 'Al1 F7 Mg1 Na2'
_chemical_name_structure_type Ca2Sb2O7
_chemical_name_mineral Weberite
_exptl_crystal_density_diffrn 2.98
_cell_measurement_temperature 133.
_publ_section_title 'What is the true space group of weberite?'
loop_
_citation_id
_citation_journal_full
_citation_year
_citation_journal_volume
_citation_page_first
_citation_page_last
_citation_journal_id_ASTM
primary 'Journal of Solid State Chemistry' 1982 43 213 221 JSSCBI
loop_
_publ_author_name
'Knop, O.'
'Cameron, T.S.'
'Jochem, K.'
_cell_length_a 7.050(4)
_cell_length_b 9.979(6)
_cell_length_c 7.297(3)
_cell_angle_alpha 90.
_cell_angle_beta 90.
_cell_angle_gamma 90.
_cell_volume 513.36
_cell_formula_units_Z 4
_symmetry_space_group_name_H-M 'I m m a'
_symmetry_Int_Tables_number 74
_refine_ls_R_factor_all 0.021
loop_
_symmetry_equiv_pos_site_id
_symmetry_equiv_pos_as_xyz
1 '-x, y+1/2, -z'
2 '-x, -y+1/2, z'
3 '-x, y, z'
4 '-x, -y, -z'
5 'x, -y+1/2, z'
6 'x, y+1/2, -z'
7 'x, -y, -z'
8 'x, y, z'
9 '-x+1/2, y, -z+1/2'
10 '-x+1/2, -y, z+1/2'
11 '-x+1/2, y+1/2, z+1/2'
12 '-x+1/2, -y+1/2, -z+1/2'
13 'x+1/2, -y, z+1/2'
14 'x+1/2, y, -z+1/2'
15 'x+1/2, -y+1/2, -z+1/2'
16 'x+1/2, y+1/2, z+1/2'
loop_
_atom_type_symbol
_atom_type_oxidation_number
Na1+ 1
Mg2+ 2
Al3+ 3
F1- -1
loop_
_atom_site_label
_atom_site_type_symbol
_atom_site_symmetry_multiplicity
_atom_site_Wyckoff_symbol
_atom_site_fract_x
_atom_site_fract_y
_atom_site_fract_z
_atom_site_B_iso_or_equiv
_atom_site_occupancy
_atom_site_attached_hydrogens
Na1 Na1+ 4 d 0.25 0.25 0.75 . 1. 0
Na2 Na1+ 4 a 0 0 0 . 1. 0
Mg1 Mg2+ 4 c 0.25 0.25 0.25 . 1. 0
Al1 Al3+ 4 b 0 0 0.5 . 1. 0
F1 F1- 4 e 0 0.25 0.1362(3) . 1. 0
F2 F1- 8 h 0 0.4144(1) 0.7213(2) . 1. 0
F3 F1- 16 j 0.1845(1) 0.3874(1) 0.4304(1) . 1. 0
loop_
_atom_site_aniso_label
_atom_site_aniso_type_symbol
_atom_site_aniso_U_11
_atom_site_aniso_U_22
_atom_site_aniso_U_33
_atom_site_aniso_U_12
_atom_site_aniso_U_13
_atom_site_aniso_U_23
Na1 Na1+ 0.0111(6) 0.0119(6) 0.0443(11) 0 -0.0033(6) 0
Na2 Na1+ 0.0143(6) 0.0247(7) 0.0123(8) 0 0 0.0072(5)
Mg1 Mg2+ 0.0045(4) 0.0045(4) 0.0075(6) 0 0.0005(4) 0
Al1 Al3+ 0.0049(4) 0.0047(4) 0.0074(6) 0 0 0.0013(3)
F1 F1- 0.0051(7) 0.0134(8) 0.0111(9) 0 0 0
F2 F1- 0.0120(6) 0.0105(6) 0.0094(7) 0 0 0.0002(2)
F3 F1- 0.0085(4) 0.0088(4) 0.0141(5) 0.0032(3) 0.0014(4) -0.0038(9)
#End of TTdata_33508-ICSD