
#(C) 2019 by FIZ Karlsruhe - Leibniz Institute for Information Infrastructure.  All rights reserved.
data_33514-ICSD
_database_code_ICSD 33514
_audit_creation_date 1984-09-10
_audit_update_record 2012-08-01
_chemical_name_systematic 'Disodium magnesium aluminium fluoride'
_chemical_formula_structural 'Na2 Mg Al F7'
_chemical_formula_sum 'Al1 F7 Mg1 Na2'
_chemical_name_structure_type Ca2Sb2O7
_chemical_name_mineral Weberite
_exptl_crystal_density_diffrn 2.99
_cell_measurement_temperature 133.
_publ_section_title 'What is the true space group of weberite?'
loop_
_citation_id
_citation_journal_full
_citation_year
_citation_journal_volume
_citation_page_first
_citation_page_last
_citation_journal_id_ASTM
primary 'Journal of Solid State Chemistry' 1982 43 213 221 JSSCBI
loop_
_publ_author_name
'Knop, O.'
'Cameron, T.S.'
'Jochem, K.'
_cell_length_a 7.051(1)
_cell_length_b 9.968(2)
_cell_length_c 7.285(1)
_cell_angle_alpha 90.
_cell_angle_beta 90.
_cell_angle_gamma 90.
_cell_volume 512.02
_cell_formula_units_Z 4
_symmetry_space_group_name_H-M 'I 2 m b'
_symmetry_Int_Tables_number 46
_refine_ls_R_factor_all 0.021
loop_
_symmetry_equiv_pos_site_id
_symmetry_equiv_pos_as_xyz
1 'x, y+1/2, -z'
2 'x, -y+1/2, z'
3 'x, -y, -z'
4 'x, y, z'
5 'x+1/2, y, -z+1/2'
6 'x+1/2, -y, z+1/2'
7 'x+1/2, -y+1/2, -z+1/2'
8 'x+1/2, y+1/2, z+1/2'
loop_
_atom_type_symbol
_atom_type_oxidation_number
Na1+ 1
Mg2+ 2
Al3+ 3
F1- -1
loop_
_atom_site_label
_atom_site_type_symbol
_atom_site_symmetry_multiplicity
_atom_site_Wyckoff_symbol
_atom_site_fract_x
_atom_site_fract_y
_atom_site_fract_z
_atom_site_B_iso_or_equiv
_atom_site_occupancy
_atom_site_attached_hydrogens
Na1 Na1+ 4 b 0.2536(8) 0.25 0.7458(10) . 1. 0
Na2 Na1+ 4 a 0 0.5 0 . 1. 0
Mg1 Mg2+ 4 b 0.2520(7) 0.25 0.2492(8) . 1. 0
Al1 Al3+ 4 a 0.0014(8) 0.5 0.5 . 1. 0
F1 F1- 4 b 0.0013(10) 0.25 0.1362(2) . 1. 0
F2 F1- 8 c 0.0023(10) 0.4144(1) 0.7213(2) . 1. 0
F3 F1- 8 c 0.1875(9) 0.3882(3) 0.4322(6) . 1. 0
F4 F1- 8 c 0.3185(9) 0.3867(3) 0.0703(6) . 1. 0
loop_
_atom_site_aniso_label
_atom_site_aniso_type_symbol
_atom_site_aniso_U_11
_atom_site_aniso_U_22
_atom_site_aniso_U_33
_atom_site_aniso_U_12
_atom_site_aniso_U_13
_atom_site_aniso_U_23
Na1 Na1+ 0.0121(5) 0.0122(5) 0.0432(9) 0 -.0033(5) 0
Na2 Na1+ 0.0142(5) 0.0253(5) 0.0123(6) 0 0 0.0070(4)
Mg1 Mg2+ 0.0052(3) 0.0047(3) 0.0078(5) 0 0.0005(3) 0
Al1 Al3+ 0.0053(3) 0.0052(3) 0.0078(4) 0 0 -.0012(3)
F1 F1- 0.0054(5) 0.0140(6) 0.0118(7) 0 0.0013(40) 0
F2 F1- 0.0127(4) 0.0111(4) 0.0100(5) -.0012(12) -.0010(3) 0.0000(4)
F3 F1- 0.0087(10) 0.0088(10) 0.0134(11) 0.0002(8) -.0001(10) -.0030(9)
F4 F1- 0.0095(10) 0.0095(10) 0.0154(11) 0.0041(9) 0.003(1) -.0045(10)
#End of TTdata_33514-ICSD