
#(C) 2019 by FIZ Karlsruhe - Leibniz Institute for Information Infrastructure.  All rights reserved.
data_33510-ICSD
_database_code_ICSD 33510
_audit_creation_date 1982-12-31
_audit_update_record 2003-10-01
_chemical_name_systematic 'Disodium magnesium aluminium fluoride'
_chemical_formula_structural 'Na2 Mg Al F7'
_chemical_formula_sum 'Al1 F7 Mg1 Na2'
_chemical_name_structure_type Na2NiFeF7
_chemical_name_mineral Weberite
_exptl_crystal_density_diffrn 2.98
_cell_measurement_temperature 133.
_publ_section_title 'What is the true space group of weberite?'
loop_
_citation_id
_citation_journal_full
_citation_year
_citation_journal_volume
_citation_page_first
_citation_page_last
_citation_journal_id_ASTM
primary 'Journal of Solid State Chemistry' 1982 43 213 221 JSSCBI
loop_
_publ_author_name
'Knop, O.'
'Cameron, T.S.'
'Jochem, K.'
_cell_length_a 7.050(4)
_cell_length_b 9.979(6)
_cell_length_c 7.297(3)
_cell_angle_alpha 90.
_cell_angle_beta 90.
_cell_angle_gamma 90.
_cell_volume 513.36
_cell_formula_units_Z 4
_symmetry_space_group_name_H-M 'I m m 2'
_symmetry_Int_Tables_number 44
_refine_ls_R_factor_all 0.021
loop_
_symmetry_equiv_pos_site_id
_symmetry_equiv_pos_as_xyz
1 'x, -y, z'
2 '-x, y, z'
3 '-x, -y, z'
4 'x, y, z'
5 'x+1/2, -y+1/2, z+1/2'
6 '-x+1/2, y+1/2, z+1/2'
7 '-x+1/2, -y+1/2, z+1/2'
8 'x+1/2, y+1/2, z+1/2'
loop_
_atom_type_symbol
_atom_type_oxidation_number
Na1+ 1
Mg2+ 2
Al3+ 3
F1- -1
loop_
_atom_site_label
_atom_site_type_symbol
_atom_site_symmetry_multiplicity
_atom_site_Wyckoff_symbol
_atom_site_fract_x
_atom_site_fract_y
_atom_site_fract_z
_atom_site_B_iso_or_equiv
_atom_site_occupancy
_atom_site_attached_hydrogens
Na1 Na1+ 4 c 0.2498(8) 0 0.4964(13) . 1. 0
Na2 Na1+ 4 d 0 0.2533(6) 0.7479(14) . 1. 0
Mg1 Mg2+ 4 c 0.2488(7) 0 0 . 1. 0
Al1 Al3+ 4 d 0 0.2512(4) 0.2491(11) . 1. 0
F1 F1- 2 a 0 0 0.8903(11) . 1. 0
F2 F1- 2 b 0 0.5 0.6177(12) . 1. 0
F3 F1- 4 d 0 0.1650(5) 0.4752(10) . 1. 0
F4 F1- 4 d 0 0.3363(5) 0.0239(11) . 1. 0
F5 F1- 8 e 0.1862(4) 0.1372(4) 0.1845(10) . 1. 0
F6 F1- 8 e 0.3173(5) 0.1377(4) 0.8236(9) . 1. 0
loop_
_atom_site_aniso_label
_atom_site_aniso_type_symbol
_atom_site_aniso_U_11
_atom_site_aniso_U_22
_atom_site_aniso_U_33
_atom_site_aniso_U_12
_atom_site_aniso_U_13
_atom_site_aniso_U_23
Na1 Na1+ 0.0122(6) 0.0130(7) 0.0416(14) 0 -0.0038(8) 0
Na2 Na1+ 0.0153(7) 0.0254(8) 0.0135(10) 0 0 -0.0062(7)
Mg1 Mg2+ 0.0053(5) 0.0054(5) 0.0089(7) 0 0.0002(5) 0
Al1 Al3+ 0.0059(4) 0.0052(5) 0.0090(7) 0 0 -0.0005(4)
F1 F1- 0.0046(15) 0.0159(16) 0.0073(16) 0 0 0
F2 F1- 0.0070(15) 0.0139(16) 0.0170(17) 0 0 0
F3 F1- 0.0178(14) 0.0078(13) 0.0065(15) 0 0 0.0019(4)
F4 F1- 0.0084(13) 0.0152(15) 0.0151(16) 0 0 -0.0015(15)
F5 F1- 0.0072(11) 0.0095(12) 0.0182(15) 0.0021(12) 0.0000(13) -0.0052(12)
F6 F1- 0.0122(13) 0.0104(12) 0.0115(14) -0.0024(13) 0.0025(13) 0.0024(12)
#End of TTdata_33510-ICSD