
#(C) 2019 by FIZ Karlsruhe - Leibniz Institute for Information Infrastructure.  All rights reserved.
data_33512-ICSD
_database_code_ICSD 33512
_audit_creation_date 1982-12-31
_audit_update_record 2012-08-01
_chemical_name_systematic 'Disodium magnesium aluminium fluoride'
_chemical_formula_structural 'Na2 Mg Al F7'
_chemical_formula_sum 'Al1 F7 Mg1 Na2'
_chemical_name_mineral Weberite
_exptl_crystal_density_diffrn 2.98
_cell_measurement_temperature 133.
_publ_section_title 'What is the true space group of weberite?'
loop_
_citation_id
_citation_journal_full
_citation_year
_citation_journal_volume
_citation_page_first
_citation_page_last
_citation_journal_id_ASTM
primary 'Journal of Solid State Chemistry' 1982 43 213 221 JSSCBI
loop_
_publ_author_name
'Knop, O.'
'Cameron, T.S.'
'Jochem, K.'
_cell_length_a 7.050(4)
_cell_length_b 9.979(6)
_cell_length_c 7.297(3)
_cell_angle_alpha 90.
_cell_angle_beta 90.
_cell_angle_gamma 90.
_cell_volume 513.36
_cell_formula_units_Z 4
_symmetry_space_group_name_H-M 'I 21 21 21'
_symmetry_Int_Tables_number 24
_refine_ls_R_factor_all 0.022
loop_
_symmetry_equiv_pos_site_id
_symmetry_equiv_pos_as_xyz
1 'x+1/2, -y+1/2, -z'
2 '-x, y+1/2, -z+1/2'
3 '-x+1/2, -y, z+1/2'
4 'x, y, z'
5 'x, -y, -z+1/2'
6 '-x+1/2, y, -z'
7 '-x, -y+1/2, z'
8 'x+1/2, y+1/2, z+1/2'
loop_
_atom_type_symbol
_atom_type_oxidation_number
Na1+ 1
Mg2+ 2
Al3+ 3
F1- -1
loop_
_atom_site_label
_atom_site_type_symbol
_atom_site_symmetry_multiplicity
_atom_site_Wyckoff_symbol
_atom_site_fract_x
_atom_site_fract_y
_atom_site_fract_z
_atom_site_B_iso_or_equiv
_atom_site_occupancy
_atom_site_attached_hydrogens
Na1 Na1+ 4 b 0.25 0.2501(5) 0 . 1. 0
Na2 Na1+ 4 a -.0050(6) 0.5 0.25 . 1. 0
Mg1 Mg2+ 4 b 0.25 0.2503(5) 0.5 . 1. 0
Al1 Al3+ 4 a -.0089(4) 0.5 0.75 . 1. 0
F1 F1- 4 c 0 0.25 0.3861(2) . 1. 0
F2 F1- 8 d -.0031(5) 0.4144(1) 0.9705(2) . 1. 0
F3 F1- 8 d 0.1838(3) 0.3862(3) 0.6819(6) . 1. 0
F4 F1- 8 d -.3148(4) 0.3885(3) 0.3209(6) . 1. 0
loop_
_atom_site_aniso_label
_atom_site_aniso_type_symbol
_atom_site_aniso_U_11
_atom_site_aniso_U_22
_atom_site_aniso_U_33
_atom_site_aniso_U_12
_atom_site_aniso_U_13
_atom_site_aniso_U_23
Na1 Na1+ 0.0119(5) 0.0122(6) 0.0440(11) 0 -0.0029(5) 0
Na2 Na1+ 0.0148(6) 0.0251(7) 0.0120(8) 0 0 0.0069(5)
Mg1 Mg2+ 0.0048(4) 0.0048(4) 0.0076(6) 0 0.0005(4) 0
Al1 Al3+ 0.0056(4) 0.0050(4) 0.0076(5) 0 0 -0.0010(3)
F1 F1- 0.0062(6) 0.0143(7) 0.0116(9) 0 0 0
F2 F1- 0.0123(5) 0.0109(5) 0.0102(6) 0 -0.0020(5) 0.0003(4)
F3 F1- 0.0083(16) 0.0104(19) 0.0166(31) -0.0012(10) -0.0001(20) -0.0033(20)
F4 F1- 0.0103(5) 0.0085(17) 0.0118(28) 0.0053(10) 0.0032(19) -0.0038(19)
#End of TTdata_33512-ICSD