
#(C) 2019 by FIZ Karlsruhe - Leibniz Institute for Information Infrastructure.  All rights reserved.
data_33768-ICSD
_database_code_ICSD 33768
_audit_creation_date 1991-07-10
_audit_update_record 2012-08-01
_chemical_name_systematic 'Sodium ferrate(III) - gamma'
_chemical_formula_structural 'Na (Fe O2)'
_chemical_formula_sum 'Fe1 Na1 O2'
_chemical_name_structure_type LiAlO2-gamma
_exptl_crystal_density_diffrn 3.16
_cell_measurement_temperature 1273.
_publ_section_title

;
A neutron powder diffraction study of the beta to gamma phase transformation
in Na Fe O2
;
loop_
_citation_id
_citation_journal_full
_citation_year
_citation_journal_volume
_citation_page_first
_citation_page_last
_citation_journal_id_ASTM
primary 'Zeitschrift fuer Kristallographie' 1990 193 51 69 ZEKRDZ
loop_
_publ_author_name
'Grey, I.E.'
'Hill, R.J.'
'Hewat, A.W.'
_cell_length_a 5.6208(2)
_cell_length_b 5.6208(2)
_cell_length_c 7.3653(4)
_cell_angle_alpha 90.
_cell_angle_beta 90.
_cell_angle_gamma 90.
_cell_volume 232.69
_cell_formula_units_Z 4
_symmetry_space_group_name_H-M 'P 41 21 2'
_symmetry_Int_Tables_number 92
_refine_ls_R_factor_all 0.082
loop_
_symmetry_equiv_pos_site_id
_symmetry_equiv_pos_as_xyz
1 'x+1/2, -y+1/2, -z+3/4'
2 '-x+1/2, y+1/2, -z+1/4'
3 '-y, -x, -z+1/2'
4 'y, x, -z'
5 'y+1/2, -x+1/2, z+3/4'
6 '-y+1/2, x+1/2, z+1/4'
7 '-x, -y, z+1/2'
8 'x, y, z'
loop_
_atom_type_symbol
_atom_type_oxidation_number
Fe3+ 3
Na1+ 1
O2- -2
loop_
_atom_site_label
_atom_site_type_symbol
_atom_site_symmetry_multiplicity
_atom_site_Wyckoff_symbol
_atom_site_fract_x
_atom_site_fract_y
_atom_site_fract_z
_atom_site_B_iso_or_equiv
_atom_site_occupancy
_atom_site_attached_hydrogens
Fe1 Fe3+ 4 a 0.1898(4) 0.1898(4) 0 . 1. 0
Na1 Na1+ 4 a 0.779(2) 0.779(2) 0 . 1. 0
O1 O2- 8 b 0.2293(8) 0.8763(6) 0.0455(6) . 1. 0
loop_
_atom_site_aniso_label
_atom_site_aniso_type_symbol
_atom_site_aniso_beta_11
_atom_site_aniso_beta_22
_atom_site_aniso_beta_33
_atom_site_aniso_beta_12
_atom_site_aniso_beta_13
_atom_site_aniso_beta_23
Fe1 Fe3+ 0.0259(7) 0.0259 0.0146(7) 0.0069(11) -.0018(6) 0.0018(6)
Na1 Na1+ 0.148(6) 0.148 0.024(2) 0.007(9) 0.038(3) -.038(3)
O1 O2- 0.085(3) 0.028(1) 0.018(1) 0.015(2) 0.010(1) 0.0055(8)
#End of TTdata_33768-ICSD