
#(C) 2019 by FIZ Karlsruhe - Leibniz Institute for Information Infrastructure.  All rights reserved.
data_33771-ICSD
_database_code_ICSD 33771
_audit_creation_date 1991-07-10
_audit_update_record 2012-08-01
_chemical_name_systematic 'Sodium ferrate(III) - beta, HT'
_chemical_formula_structural 'Na (Fe O2)'
_chemical_formula_sum 'Fe1 Na1 O2'
_chemical_name_structure_type NaFeO2(beta)
_exptl_crystal_density_diffrn 3.22
_cell_measurement_temperature 1238.
_publ_section_title

;
A neutron powder diffraction study of the beta to gamma phase transformation
in Na Fe O2
;
loop_
_citation_id
_citation_journal_full
_citation_year
_citation_journal_volume
_citation_page_first
_citation_page_last
_citation_journal_id_ASTM
primary 'Zeitschrift fuer Kristallographie' 1990 193 51 69 ZEKRDZ
loop_
_publ_author_name
'Grey, I.E.'
'Hill, R.J.'
'Hewat, A.W.'
_cell_length_a 5.6793(2)
_cell_length_b 5.4744(2)
_cell_length_c 7.3619(3)
_cell_angle_alpha 90.
_cell_angle_beta 90.
_cell_angle_gamma 90.
_cell_volume 228.89
_cell_formula_units_Z 4
_symmetry_space_group_name_H-M 'P n 21 a'
_symmetry_Int_Tables_number 33
_refine_ls_R_factor_all 0.04
loop_
_symmetry_equiv_pos_site_id
_symmetry_equiv_pos_as_xyz
1 'x+1/2, y, -z+1/2'
2 '-x+1/2, y+1/2, z+1/2'
3 '-x, y+1/2, -z'
4 'x, y, z'
loop_
_atom_type_symbol
_atom_type_oxidation_number
Fe3+ 3
Na1+ 1
O2- -2
loop_
_atom_site_label
_atom_site_type_symbol
_atom_site_symmetry_multiplicity
_atom_site_Wyckoff_symbol
_atom_site_fract_x
_atom_site_fract_y
_atom_site_fract_z
_atom_site_B_iso_or_equiv
_atom_site_occupancy
_atom_site_attached_hydrogens
Fe1 Fe3+ 4 a 0.0593(4) 0 0.1256(4) . 1. 0
Na1 Na1+ 4 a 0.445(1) 0.530(2) 0.119(2) . 1. 0
O1 O2- 4 a 0.0352(9) 0.6665(8) 0.0750(6) . 1. 0
O2 O2- 4 a 0.3731(8) 0.0681(9) 0.1710(6) . 1. 0
loop_
_atom_site_aniso_label
_atom_site_aniso_type_symbol
_atom_site_aniso_beta_11
_atom_site_aniso_beta_22
_atom_site_aniso_beta_33
_atom_site_aniso_beta_12
_atom_site_aniso_beta_13
_atom_site_aniso_beta_23
Fe1 Fe3+ 0.0211(9) 0.039(1) 0.0097(4) 0.001(1) 0.0002(7) -.0033(9)
Na1 Na1+ 0.059(4) 0.052(4) 0.060(4) 0.023(4) 0.036(4) 0.052(4)
O1 O2- 0.029(2) 0.008(1) 0.024(1) 0.000(2) 0.004(1) -.007(1)
O2 O2- 0.032(2) 0.035(2) 0.049(2) -.005(2) -.003(2) 0.006(2)
#End of TTdata_33771-ICSD