
#(C) 2019 by FIZ Karlsruhe - Leibniz Institute for Information Infrastructure.  All rights reserved.
data_33849-ICSD
_database_code_ICSD 33849
_audit_creation_date 1991-07-10
_chemical_name_systematic 'Dipotassium tetrasodium mue-oxo-bis(dioxoberyllate)'
_chemical_formula_structural 'K2 Na4 (Be2 O5)'
_chemical_formula_sum 'Be2 K2 Na4 O5'
_chemical_name_structure_type Rb2K4Co2O5
_exptl_crystal_density_diffrn 2.51
_publ_section_title 'Ein neues Oxoberyllat: K2Na4(O2BeOBeO2)'
loop_
_citation_id
_citation_journal_full
_citation_year
_citation_journal_volume
_citation_page_first
_citation_page_last
_citation_journal_id_ASTM
primary 'Zeitschrift fuer Anorganische und Allgemeine Chemie (1950) (DE)' 1991
594 87 94 ZAACAB
loop_
_publ_author_name
'Schuldt, D.'
'Hoppe, R.'
_cell_length_a 5.9517(4)
_cell_length_b 5.9517(4)
_cell_length_c 10.0266(9)
_cell_angle_alpha 90.
_cell_angle_beta 90.
_cell_angle_gamma 90.
_cell_volume 355.17
_cell_formula_units_Z 2
_symmetry_space_group_name_H-M 'P 42/m n m'
_symmetry_Int_Tables_number 136
_refine_ls_R_factor_all 0.023
loop_
_symmetry_equiv_pos_site_id
_symmetry_equiv_pos_as_xyz
1 '-y+1/2, x+1/2, -z+1/2'
2 'y+1/2, -x+1/2, -z+1/2'
3 'y, x, -z'
4 '-y, -x, -z'
5 'y+1/2, -x+1/2, z+1/2'
6 '-y+1/2, x+1/2, z+1/2'
7 '-y, -x, z'
8 'y, x, z'
9 'x+1/2, -y+1/2, -z+1/2'
10 '-x+1/2, y+1/2, -z+1/2'
11 'x, y, -z'
12 '-x, -y, -z'
13 '-x+1/2, y+1/2, z+1/2'
14 'x+1/2, -y+1/2, z+1/2'
15 '-x, -y, z'
16 'x, y, z'
loop_
_atom_type_symbol
_atom_type_oxidation_number
K1+ 1
Na1+ 1
Be2+ 2
O2- -2
loop_
_atom_site_label
_atom_site_type_symbol
_atom_site_symmetry_multiplicity
_atom_site_Wyckoff_symbol
_atom_site_fract_x
_atom_site_fract_y
_atom_site_fract_z
_atom_site_B_iso_or_equiv
_atom_site_occupancy
_atom_site_attached_hydrogens
K1 K1+ 4 f 0.6804(1) 0.6804(1) 0 . 1. 0
Na1 Na1+ 4 e 0 0 0.7745(2) . 1. 0
Na2 Na1+ 4 d 0 0.5 0.25 . 1. 0
Be1 Be2+ 4 g 0.1870(6) 0.8130(6) 0 . 1. 0
O1 O2- 8 j 0.2263(2) 0.2263(2) 0.6370(2) . 1. 0
O2 O2- 2 a 0 0 0 . 1. 0
loop_
_atom_site_aniso_label
_atom_site_aniso_type_symbol
_atom_site_aniso_U_11
_atom_site_aniso_U_22
_atom_site_aniso_U_33
_atom_site_aniso_U_12
_atom_site_aniso_U_13
_atom_site_aniso_U_23
K1 K1+ 0.0146(3) 0.0146(3) 0.0260(5) -.0010(3) 0 0
Na1 Na1+ 0.0137(5) 0.0137(5) 0.0105(7) -.0017(6) 0 0
Na2 Na1+ 0.0142(7) 0.0142(7) 0.0156(8) 0.0054(77) 0 0
Be1 Be2+ 0.0085(12) 0.0085(12) 0.0113(20) 0.0014(17) 0 0
O1 O2- 0.0120(6) 0.0120(6) 0.0111(8) -.0021(7) 0.0013(5) 0.0013(5)
O2 O2- 0.0171(12) 0.0171(12) 0.0103(16) 0.0079(16) 0 0
#End of TTdata_33849-ICSD