
#(C) 2019 by FIZ Karlsruhe - Leibniz Institute for Information Infrastructure.  All rights reserved.
data_34523-ICSD
_database_code_ICSD 34523
_audit_creation_date 1980-01-01
_audit_update_record 2003-04-01
_chemical_name_systematic 'Sodium trihydrogen bis(selenate(IV))'
_chemical_formula_structural 'Na H3 (Se O3)2'
_chemical_formula_sum 'H3 Na1 O6 Se2'
_chemical_name_structure_type NaH3(SeO3)2
_exptl_crystal_density_diffrn 3.21
_publ_section_title

;
Neutron diffraction study on the arrangement of the hydrogen isotopes in
sodium trihydrodeuteroselenites
;
loop_
_citation_id
_citation_journal_full
_citation_year
_citation_journal_volume
_citation_page_first
_citation_page_last
_citation_journal_id_ASTM
primary Kristallografiya 1975 20 169 171 KRISAJ
loop_
_publ_author_name
'Nozik, Yu.Z.'
_cell_length_a 10.3450(4)
_cell_length_b 4.8440(2)
_cell_length_c 5.7866(2)
_cell_angle_alpha 90.
_cell_angle_beta 91.133(4)
_cell_angle_gamma 90.
_cell_volume 289.92
_cell_formula_units_Z 2
_symmetry_space_group_name_H-M 'P 1 21/n 1'
_symmetry_Int_Tables_number 14
_refine_ls_R_factor_all 0.059
loop_
_symmetry_equiv_pos_site_id
_symmetry_equiv_pos_as_xyz
1 '-x+1/2, y+1/2, -z+1/2'
2 '-x, -y, -z'
3 'x+1/2, -y+1/2, z+1/2'
4 'x, y, z'
loop_
_atom_type_symbol
_atom_type_oxidation_number
Na1+ 1
Se4+ 4
O2- -2
H1+ 1
loop_
_atom_site_label
_atom_site_type_symbol
_atom_site_symmetry_multiplicity
_atom_site_Wyckoff_symbol
_atom_site_fract_x
_atom_site_fract_y
_atom_site_fract_z
_atom_site_B_iso_or_equiv
_atom_site_occupancy
_atom_site_attached_hydrogens
Na1 Na1+ 2 a 0 0 0 0.96 1. 0
Se1 Se4+ 4 e 0.1691 0.506 0.3861 1.42 1. 0
O1 O2- 4 e 0.4472 0.1257 0.6904 1.54 1. 0
O2 O2- 4 e 0.6443 0.2877 0.2072 1.17 1. 0
O3 O2- 4 e 0.3071 0.4509 0.2067 1.2 1. 0
H1 H1+ 2 c 0 0.5 0 . 1. 0
H2 H1+ 4 e 0.1721 0.9152 0.4919 . 1. 0
#End of TTdata_34523-ICSD