
#(C) 2019 by FIZ Karlsruhe - Leibniz Institute for Information Infrastructure.  All rights reserved.
data_34788-ICSD
_database_code_ICSD 34788
_audit_creation_date 1980-01-01
_audit_update_record 2007-08-01
_chemical_name_systematic 'Potassium sodium tecto-alumosilicate *'
_chemical_formula_structural '(K0.94 Na0.06) (Al0.95 Si3.05 O8)'
_chemical_formula_sum 'Al0.95 K0.94 Na0.06 O8 Si3.05'
_chemical_name_structure_type Feldspar#-(TC)-Albite-NaAlSi3O8
_chemical_name_mineral 'Microcline (intermediate)'
_exptl_crystal_density_diffrn 2.56
_publ_section_title

;
The crystal structures of nine K feldspars from the Adamello Massif (Northern
Italy)
;
loop_
_citation_id
_citation_journal_full
_citation_year
_citation_journal_volume
_citation_page_first
_citation_page_last
_citation_journal_id_ASTM
primary

;
Acta Crystallographica, Section B: Structural Crystallography and Crystal
Chemistry
; 1978 34 2699 2707 ACBCAR
loop_
_publ_author_name
'dal Negro, A.'
'de Pieri, R.'
'Quareni, S.'
'Taylor, W.H.'
_cell_length_a 8.574(2)
_cell_length_b 12.962(7)
_cell_length_c 7.210(2)
_cell_angle_alpha 90.35
_cell_angle_beta 116.03
_cell_angle_gamma 88.8
_cell_volume 719.85
_cell_formula_units_Z 4
_symmetry_space_group_name_H-M 'C -1'
_symmetry_Int_Tables_number 2
_refine_ls_R_factor_all 0.053
loop_
_symmetry_equiv_pos_site_id
_symmetry_equiv_pos_as_xyz
1 '-x, -y, -z'
2 'x, y, z'
3 '-x+1/2, -y+1/2, -z'
4 'x+1/2, y+1/2, z'
loop_
_atom_type_symbol
_atom_type_oxidation_number
K1+ 1
Na1+ 1
Al3+ 3
Si4+ 4
Al3+ 3
Si4+ 4
Al3+ 3
Si4+ 4
Al3+ 3
Si4+ 4
O2- -2
loop_
_atom_site_label
_atom_site_type_symbol
_atom_site_symmetry_multiplicity
_atom_site_Wyckoff_symbol
_atom_site_fract_x
_atom_site_fract_y
_atom_site_fract_z
_atom_site_B_iso_or_equiv
_atom_site_occupancy
_atom_site_attached_hydrogens
K1 K1+ 4 i 0.2837(2) 0.9960(1) 0.1372(2) . 0.94 0
Na1 Na1+ 4 i 0.2837(2) 0.9960(1) 0.1372(2) . 0.06 0
Al1 Al3+ 4 i 0.0097(2) 0.1865(1) 0.2205(2) . 0.68 0
Si1 Si4+ 4 i 0.0097(2) 0.1865(1) 0.2205(2) . 0.32 0
Al2 Al3+ 4 i 0.0094(2) 0.8176(1) 0.2286(2) . 0.15 0
Si2 Si4+ 4 i 0.0094(2) 0.8176(1) 0.2286(2) . 0.85 0
Al3 Al3+ 4 i 0.7105(2) 0.1192(1) 0.3421(2) . 0.065 0
Si3 Si4+ 4 i 0.7105(2) 0.1192(1) 0.3421(2) . 0.935 0
Al4 Al3+ 4 i 0.7073(2) 0.8840(1) 0.3480(2) . 0.055 0
Si4 Si4+ 4 i 0.7073(2) 0.8840(1) 0.3480(2) . 0.945 0
O1 O2- 4 i 0.0007(4) 0.1451(3) 0.9901(5) . 1. 0
O2 O2- 4 i 0.6368(4) 0.0039(2) 0.2849(5) . 1. 0
O3 O2- 4 i 0.8237(4) 0.1480(3) 0.2224(5) . 1. 0
O4 O2- 4 i 0.8290(4) 0.8562(3) 0.2348(5) . 1. 0
O5 O2- 4 i 0.0353(4) 0.3163(2) 0.2549(5) . 1. 0
O6 O2- 4 i 0.0371(4) 0.6930(3) 0.2646(5) . 1. 0
O7 O2- 4 i 0.1860(4) 0.1248(3) 0.4053(5) . 1. 0
O8 O2- 4 i 0.1768(4) 0.8740(3) 0.4084(5) . 1. 0
loop_
_atom_site_aniso_label
_atom_site_aniso_type_symbol
_atom_site_aniso_beta_11
_atom_site_aniso_beta_22
_atom_site_aniso_beta_33
_atom_site_aniso_beta_12
_atom_site_aniso_beta_13
_atom_site_aniso_beta_23
K1 K1+ 0.0061(2) 0.0039(1) 0.0124(3) -.0001(1) 0.0026(2) -.0005(1)
Na1 Na1+ 0.0061(2) 0.0039(1) 0.0124(3) -.0001(1) 0.0026(2) -.0005(1)
Al1 Al3+ 0.0045(2) 0.0017(1) 0.0045(3) -.0006(1) 0.0021(2) -.0008(1)
Si1 Si4+ 0.0045(2) 0.0017(1) 0.0045(3) -.0006(1) 0.0021(2) -.0008(1)
Al2 Al3+ 0.0047(2) 0.0016(1) 0.0050(3) 0.0002(1) 0.0023(2) 0.0000(1)
Si2 Si4+ 0.0047(2) 0.0016(1) 0.0050(3) 0.0002(1) 0.0023(2) 0.0000(1)
Al3 Al3+ 0.0042(2) 0.0014(1) 0.0052(3) -.0002(1) 0.0018(2) 0.0000(1)
Si3 Si4+ 0.0042(2) 0.0014(1) 0.0052(3) -.0002(1) 0.0018(2) 0.0000(1)
Al4 Al3+ 0.0048(2) 0.0013(1) 0.0047(3) -.0003(1) 0.0022(2) -.0001(1)
Si4 Si4+ 0.0048(2) 0.0013(1) 0.0047(3) -.0003(1) 0.0022(2) -.0001(1)
O1 O2- 0.0085(6) 0.0022(2) 0.0086(7) -.0006(3) 0.0046(5) -.0004(3)
O2 O2- 0.0063(6) 0.0016(2) 0.0085(7) -.0002(3) 0.0012(5) -.0003(3)
O3 O2- 0.0076(6) 0.0036(2) 0.0106(7) -.0008(3) 0.0053(5) 0.0000(3)
O4 O2- 0.0064(6) 0.0038(2) 0.0120(7) 0.0003(3) 0.0059(5) -.0013(3)
O5 O2- 0.0054(6) 0.0020(2) 0.0099(7) -.0007(3) 0.0025(5) -.0007(3)
O6 O2- 0.0052(6) 0.0022(2) 0.0115(7) 0.0002(3) 0.0037(5) 0.0007(3)
O7 O2- 0.0070(6) 0.0024(2) 0.0069(7) 0.0000(3) 0.0016(5) -.0001(3)
O8 O2- 0.0084(6) 0.0025(2) 0.0057(7) -.0013(3) 0.0022(5) -.0013(3)
#End of TTdata_34788-ICSD