
#(C) 2019 by FIZ Karlsruhe - Leibniz Institute for Information Infrastructure.  All rights reserved.
data_34782-ICSD
_database_code_ICSD 34782
_audit_creation_date 1980-01-01
_audit_update_record 2007-08-01
_chemical_name_systematic
'Potassium sodium tecto-alumotrisilicate (0.94/0.06/1)'
_chemical_formula_structural '(K0.94 Na0.06) (Al Si3 O8)'
_chemical_formula_sum 'Al1 K0.94 Na0.06 O8 Si3'
_chemical_name_structure_type Feldspar#-(TC)-Albite-NaAlSi3O8
_chemical_name_mineral Orthoclase
_exptl_crystal_density_diffrn 2.55
_publ_section_title

;
The crystal structures of nine K feldspars from the Adamello Massif (Northern
Italy)
;
loop_
_citation_id
_citation_journal_full
_citation_year
_citation_journal_volume
_citation_page_first
_citation_page_last
_citation_journal_id_ASTM
primary

;
Acta Crystallographica, Section B: Structural Crystallography and Crystal
Chemistry
; 1978 34 2699 2707 ACBCAR
loop_
_publ_author_name
'dal Negro, A.'
'de Pieri, R.'
'Quareni, S.'
'Taylor, W.H.'
_cell_length_a 8.589(2)
_cell_length_b 13.013(7)
_cell_length_c 7.197(2)
_cell_angle_alpha 90.
_cell_angle_beta 116.02
_cell_angle_gamma 90.
_cell_volume 722.87
_cell_formula_units_Z 4
_symmetry_space_group_name_H-M 'C -1'
_symmetry_Int_Tables_number 2
_refine_ls_R_factor_all 0.034
loop_
_symmetry_equiv_pos_site_id
_symmetry_equiv_pos_as_xyz
1 '-x, -y, -z'
2 'x, y, z'
3 '-x+1/2, -y+1/2, -z'
4 'x+1/2, y+1/2, z'
loop_
_atom_type_symbol
_atom_type_oxidation_number
K1+ 1
Na1+ 1
Al3+ 3
Si4+ 4
Al3+ 3
Si4+ 4
Al3+ 3
Si4+ 4
Al3+ 3
Si4+ 4
O2- -2
loop_
_atom_site_label
_atom_site_type_symbol
_atom_site_symmetry_multiplicity
_atom_site_Wyckoff_symbol
_atom_site_fract_x
_atom_site_fract_y
_atom_site_fract_z
_atom_site_B_iso_or_equiv
_atom_site_occupancy
_atom_site_attached_hydrogens
K1 K1+ 4 i 0.2850(1) 0.9998(1) 0.1378(1) . 0.94 0
Na1 Na1+ 4 i 0.2850(1) 0.9998(1) 0.1378(1) . 0.06 0
Al1 Al3+ 4 i 0.0097(1) 0.1850(1) 0.2237(1) . 0.37 0
Si1 Si4+ 4 i 0.0097(1) 0.1850(1) 0.2237(1) . 0.63 0
Al2 Al3+ 4 i 0.0095(1) 0.8151(1) 0.2241(1) . 0.35 0
Si2 Si4+ 4 i 0.0095(1) 0.8151(1) 0.2241(1) . 0.65 0
Al3 Al3+ 4 i 0.7093(1) 0.1179(1) 0.3442(1) . 0.15 0
Si3 Si4+ 4 i 0.7093(1) 0.1179(1) 0.3442(1) . 0.85 0
Al4 Al3+ 4 i 0.7092(1) 0.8822(1) 0.3446(1) . 0.14 0
Si4 Si4+ 4 i 0.7092(1) 0.8822(1) 0.3446(1) . 0.86 0
O1 O2- 4 i 0.9997(3) 0.1459(2) 0.9998(3) . 1. 0
O2 O2- 4 i 0.6373(3) 0.0002(2) 0.2852(3) . 1. 0
O3 O2- 4 i 0.8275(3) 0.1471(2) 0.2270(3) . 1. 0
O4 O2- 4 i 0.8277(3) 0.8534(2) 0.2275(4) . 1. 0
O5 O2- 4 i 0.0357(3) 0.3115(2) 0.2582(3) . 1. 0
O6 O2- 4 i 0.0352(3) 0.6892(2) 0.2590(3) . 1. 0
O7 O2- 4 i 0.1812(3) 0.1260(2) 0.4054(3) . 1. 0
O8 O2- 4 i 0.1804(3) 0.8738(2) 0.4057(3) . 1. 0
loop_
_atom_site_aniso_label
_atom_site_aniso_type_symbol
_atom_site_aniso_beta_11
_atom_site_aniso_beta_22
_atom_site_aniso_beta_33
_atom_site_aniso_beta_12
_atom_site_aniso_beta_13
_atom_site_aniso_beta_23
K1 K1+ 0.0054(1) 0.00376(4) 0.0122(2) -.00003(5) 0.0027(1) -.00001(6)
Na1 Na1+ 0.0054(1) 0.00376(4) 0.0122(2) -.00003(5) 0.0027(1) -.00001(6)
Al1 Al3+ 0.0039(1) 0.00144(4) 0.0040(1) -.00048(5) 0.0018(1) -.00029(6)
Si1 Si4+ 0.0039(1) 0.00144(4) 0.0040(1) -.00048(5) 0.0018(1) -.00029(6)
Al2 Al3+ 0.0039(1) 0.00134(4) 0.0045(1) 0.00037(5) 0.0022(1) 0.00030(6)
Si2 Si4+ 0.0039(1) 0.00134(4) 0.0045(1) 0.00037(5) 0.0022(1) 0.00030(6)
Al3 Al3+ 0.0036(1) 0.00112(4) 0.0048(1) -.00017(5) 0.0017(1) 0.00004(6)
Si3 Si4+ 0.0036(1) 0.00112(4) 0.0048(1) -.00017(5) 0.0017(1) 0.00004(6)
Al4 Al3+ 0.0036(1) 0.00097(4) 0.0050(1) 0.00001(5) 0.00017(1) 0.00009(6)
Si4 Si4+ 0.0036(1) 0.00097(4) 0.0050(1) 0.00001(5) 0.00017(1) 0.00009(6)
O1 O2- 0.0082(4) 0.0024(1) 0.0086(5) 0.0000(2) 0.0041(3) -.0001(2)
O2 O2- 0.0068(3) 0.0014(1) 0.0103(5) -.0001(2) 0.0014(3) 0.0004(2)
O3 O2- 0.0070(4) 0.0034(1) 0.0114(1) -.0009(2) 0.0055(4) 0.0001(2)
O4 O2- 0.0066(3) 0.0037(1) 0.0120(5) 0.0006(2) 0.0057(4) -.0003(2)
O5 O2- 0.0059(3) 0.0020(1) 0.0092(5) -.0003(2) 0.0028(3) -.0005(2)
O6 O2- 0.0053(3) 0.0022(1) 0.0102(5) 0.0002(2) 0.0027(3) 0.0004(2)
O7 O2- 0.0073(3) 0.0023(1) 0.0059(4) 0.0004(2) 0.0016(3) 0.0005(2)
O8 O2- 0.0067(3) 0.0026(1) 0.0060(4) -.0005(2) 0.0009(3) -.0004(2)
#End of TTdata_34782-ICSD