
#(C) 2019 by FIZ Karlsruhe - Leibniz Institute for Information Infrastructure.  All rights reserved.
data_34787-ICSD
_database_code_ICSD 34787
_audit_creation_date 1980-01-01
_audit_update_record 2007-08-01
_chemical_name_systematic 'Potassium sodium tecto-alumosilicate *'
_chemical_formula_structural '(K0.94 Na0.06) (Al0.99 Si3.01 O8)'
_chemical_formula_sum 'Al0.99 K0.94 Na0.06 O8 Si3.01'
_chemical_name_structure_type Feldspar#-(TC)-Albite-NaAlSi3O8
_chemical_name_mineral 'Microcline (intermediate)'
_exptl_crystal_density_diffrn 2.56
_publ_section_title

;
The crystal structures of nine K feldspars from the Adamello Massif (Northern
Italy)
;
loop_
_citation_id
_citation_journal_full
_citation_year
_citation_journal_volume
_citation_page_first
_citation_page_last
_citation_journal_id_ASTM
primary

;
Acta Crystallographica, Section B: Structural Crystallography and Crystal
Chemistry
; 1978 34 2699 2707 ACBCAR
loop_
_publ_author_name
'dal Negro, A.'
'de Pieri, R.'
'Quareni, S.'
'Taylor, W.H.'
_cell_length_a 8.560(2)
_cell_length_b 12.984(7)
_cell_length_c 7.209(2)
_cell_angle_alpha 90.28
_cell_angle_beta 116.03
_cell_angle_gamma 89.03
_cell_volume 719.85
_cell_formula_units_Z 4
_symmetry_space_group_name_H-M 'C -1'
_symmetry_Int_Tables_number 2
_refine_ls_R_factor_all 0.038
loop_
_symmetry_equiv_pos_site_id
_symmetry_equiv_pos_as_xyz
1 '-x, -y, -z'
2 'x, y, z'
3 '-x+1/2, -y+1/2, -z'
4 'x+1/2, y+1/2, z'
loop_
_atom_type_symbol
_atom_type_oxidation_number
K1+ 1
Na1+ 1
Al3+ 3
Si4+ 4
Al3+ 3
Si4+ 4
Al3+ 3
Si4+ 4
Al3+ 3
Si4+ 4
O2- -2
loop_
_atom_site_label
_atom_site_type_symbol
_atom_site_symmetry_multiplicity
_atom_site_Wyckoff_symbol
_atom_site_fract_x
_atom_site_fract_y
_atom_site_fract_z
_atom_site_B_iso_or_equiv
_atom_site_occupancy
_atom_site_attached_hydrogens
K1 K1+ 4 i 0.2837(1) 0.9967(1) 0.1375(1) . 0.94 0
Na1 Na1+ 4 i 0.2837(1) 0.9967(1) 0.1357(1) . 0.06 0
Al1 Al3+ 4 i 0.0099(1) 0.1858(1) 0.2214(1) . 0.63 0
Si1 Si4+ 4 i 0.0099(1) 0.1858(1) 0.2214(1) . 0.37 0
Al2 Al3+ 4 i 0.0094(1) 0.8173(1) 0.2277(1) . 0.24 0
Si2 Si4+ 4 i 0.0094(1) 0.8173(1) 0.2277(1) . 0.76 0
Al3 Al3+ 4 i 0.7094(1) 0.1189(1) 0.3425(1) . 0.065 0
Si3 Si4+ 4 i 0.7094(1) 0.1189(1) 0.3425(1) . 0.935 0
Al4 Al3+ 4 i 0.7070(1) 0.8836(1) 0.3470(1) . 0.055 0
Si4 Si4+ 4 i 0.7070(1) 0.8836(1) 0.3470(1) . 0.945 0
O1 O2- 4 i 0.0003(3) 0.1448(2) 0.9926(4) . 1. 0
O2 O2- 4 i 0.6356(3) 0.0024(2) 0.2853(3) . 1. 0
O3 O2- 4 i 0.8239(3) 0.1465(2) 0.2238(4) . 1. 0
O4 O2- 4 i 0.8281(3) 0.8555(2) 0.2329(4) . 1. 0
O5 O2- 4 i 0.0345(3) 0.3150(2) 0.2562(3) . 1. 0
O6 O2- 4 i 0.0358(3) 0.6916(2) 0.2636(4) . 1. 0
O7 O2- 4 i 0.1857(3) 0.1248(2) 0.4062(3) . 1. 0
O8 O2- 4 i 0.1794(3) 0.8741(2) 0.4090(3) . 1. 0
loop_
_atom_site_aniso_label
_atom_site_aniso_type_symbol
_atom_site_aniso_beta_11
_atom_site_aniso_beta_22
_atom_site_aniso_beta_33
_atom_site_aniso_beta_12
_atom_site_aniso_beta_13
_atom_site_aniso_beta_23
K1 K1+ 0.0067(1) 0.00388(5) 0.0134(2) -.00005(6) 0.0030(1) -.00021(7)
Na1 Na1+ 0.0067(1) 0.00368(5) 0.0134(2) -.00005(6) 0.0030(1) -.00021(7)
Al1 Al3+ 0.0049(1) 0.00131(4) 0.0044(2) -.00064(6) 0.0022(1) -.00052(6)
Si1 Si4+ 0.0049(1) 0.00131(4) 0.0044(2) -.00064(6) 0.0022(1) -.00052(6)
Al2 Al3+ 0.0047(1) 0.00130(4) 0.0046(2) 0.00026(5) 0.0023(1) 0.00016(6)
Si2 Si4+ 0.0047(1) 0.00130(4) 0.0046(2) 0.00026(5) 0.0023(1) 0.00016(6)
Al3 Al3+ 0.0047(1) 0.00108(4) 0.0052(2) -.00020(5) 0.0023(1) -.00009(6)
Si3 Si4+ 0.0047(1) 0.00108(4) 0.0052(2) -.00020(5) 0.0023(1) -.00009(6)
Al4 Al3+ 0.0046(1) 0.00097(4) 0.0052(2) -.00020(5) 0.0021(1) -.00012(6)
Si4 Si4+ 0.0046(1) 0.00097(4) 0.0052(2) -.00020(5) 0.0021(1) -.00012(6)
O1 O2- 0.0083(4) 0.0022(1) 0.0094(5) 0.0000(2) 0.0042(4) 0.0000(2)
O2 O2- 0.0083(4) 0.0012(1) 0.0089(5) -.0001(2) 0.0016(3) 0.0000(2)
O3 O2- 0.0078(4) 0.0033(1) 0.0114(5) -.0010(2) 0.0053(4) 0.0002(2)
O4 O2- 0.0076(4) 0.0034(1) 0.0121(5) 0.0004(2) 0.0062(4) -.0003(2)
O5 O2- 0.0062(3) 0.0021(1) 0.0091(5) -.0011(2) 0.0027(3) -.0010(2)
O6 O2- 0.0060(3) 0.0019(1) 0.0107(5) 0.0002(2) 0.0032(3) 0.0005(2)
O7 O2- 0.0082(4) 0.0019(1) 0.0070(5) 0.0000(2) 0.0021(3) 0.0002(2)
O8 O2- 0.0071(4) 0.0020(1) 0.0056(5) -.0007(2) 0.0011(3) -.0005(2)
#End of TTdata_34787-ICSD