
#(C) 2019 by FIZ Karlsruhe - Leibniz Institute for Information Infrastructure.  All rights reserved.
data_34870-ICSD
_database_code_ICSD 34870
_audit_creation_date 1980-01-01
_audit_update_record 1999-06-02
_chemical_name_systematic 'Sodium tecto-alumotrisilicate'
_chemical_formula_structural 'Na Al Si3 O8'
_chemical_formula_sum 'Al1 Na1 O8 Si3'
_chemical_name_structure_type Feldspar#-(TC)-Albite-NaAlSi3O8
_chemical_name_mineral 'Albite low'
_exptl_crystal_density_diffrn 2.59
_cell_measurement_temperature 773.
_publ_section_title

;
A high-temperature study of the thermal expansion and the anisotropy of the
sodium atom in low albite
;
loop_
_citation_id
_citation_journal_full
_citation_year
_citation_journal_volume
_citation_page_first
_citation_page_last
_citation_journal_id_ASTM
primary 'American Mineralogist' 1977 62 921 931 AMMIAY
loop_
_publ_author_name
'Winter, J.K.'
'Ghose, S.'
'Okamura, F.P.'
_cell_length_a 8.206(1)
_cell_length_b 12.817(3)
_cell_length_c 7.169(1)
_cell_angle_alpha 93.99(2)
_cell_angle_beta 116.39(1)
_cell_angle_gamma 87.68(2)
_cell_volume 673.76
_cell_formula_units_Z 4
_symmetry_space_group_name_H-M 'C -1'
_symmetry_Int_Tables_number 2
_refine_ls_R_factor_all 0.032
loop_
_symmetry_equiv_pos_site_id
_symmetry_equiv_pos_as_xyz
1 '-x, -y, -z'
2 'x, y, z'
3 '-x+1/2, -y+1/2, -z'
4 'x+1/2, y+1/2, z'
loop_
_atom_type_symbol
_atom_type_oxidation_number
Na1+ 1
Al3+ 3
Si4+ 4
O2- -2
loop_
_atom_site_label
_atom_site_type_symbol
_atom_site_symmetry_multiplicity
_atom_site_Wyckoff_symbol
_atom_site_fract_x
_atom_site_fract_y
_atom_site_fract_z
_atom_site_B_iso_or_equiv
_atom_site_occupancy
_atom_site_attached_hydrogens
Na1 Na1+ 4 i 0.2735(2) 0.9881(2) 0.1470(3) . 1. 0
Al1 Al3+ 4 i 0.0091(1) 0.1710(1) 0.2092(1) . 1. 0
Si1 Si4+ 4 i 0.0046(1) 0.8198(1) 0.2375(1) . 1. 0
Si2 Si4+ 4 i 0.6952(1) 0.1114(1) 0.3192(1) . 1. 0
Si3 Si4+ 4 i 0.6860(1) 0.8822(1) 0.3610(1) . 1. 0
O1 O2- 4 i 0.0051(3) 0.1345(1) 0.9686(3) . 1. 0
O2 O2- 4 i 0.5995(2) 0.9983(1) 0.2830(3) . 1. 0
O3 O2- 4 i 0.8132(2) 0.1149(1) 0.1941(3) . 1. 0
O4 O2- 4 i 0.8219(3) 0.8512(2) 0.2563(3) . 1. 0
O5 O2- 4 i 0.0179(2) 0.3045(1) 0.2705(3) . 1. 0
O6 O2- 4 i 0.0257(2) 0.6937(1) 0.2369(3) . 1. 0
O7 O2- 4 i 0.2045(2) 0.1106(1) 0.3905(3) . 1. 0
O8 O2- 4 i 0.1816(3) 0.8688(1) 0.4330(3) . 1. 0
loop_
_atom_site_aniso_label
_atom_site_aniso_type_symbol
_atom_site_aniso_beta_11
_atom_site_aniso_beta_22
_atom_site_aniso_beta_33
_atom_site_aniso_beta_12
_atom_site_aniso_beta_13
_atom_site_aniso_beta_23
Na1 Na1+ 0.0136(3) 0.0135(3) 0.0379(6) -.0019(2) 0.0082(3) -.0112(3)
Al1 Al3+ 0.0069(1) 0.002 0.0071(1) -.0006 0.0031(1) 0.0001(1)
Si1 Si4+ 0.0063(1) 0.0018 0.0065(1) 0.0005 0.0030(1) 0.0005
Si2 Si4+ 0.0057(1) 0.0015 0.0083(1) -.0003(1) 0.0024(1) 0.0002
Si3 Si4+ 0.0057(1) 0.0015(1) 0.0086(1) 0.0002(1) 0.0027(1) 0.0005(1)
O1 O2- 0.0152(4) 0.0036(1) 0.0087(4) -.0003(2) 0.0067(3) 0.0007(2)
O2 O2- 0.0071(3) 0.0016(1) 0.0140(4) -.0001(1) 0.0029(3) 0.0009(1)
O3 O2- 0.0105(3) 0.0042(1) 0.0175(5) -.0021(2) 0.0085(3) -.0008(1)
O4 O2- 0.0120(4) 0.0049(1) 0.0241(6) 0.0020(2) 0.0122(4) 0.0009(2)
O5 O2- 0.0094(3) 0.0022(1) 0.0175(5) -.0012(1) 0.0048(3) -.0005(2)
O6 O2- 0.0092(3) 0.0020(1) 0.0167(4) 0.0011(1) 0.0034(3) 0.0008(2)
O7 O2- 0.0114(3) 0.0037(1) 0.0093(4) 0.0011(2) 0.0013(3) 0.0009(2)
O8 O2- 0.0125(3) 0.0041(1) 0.0096(4) -.0013(2) 0.0000(3) -.0005(2)
#End of TTdata_34870-ICSD