
#(C) 2019 by FIZ Karlsruhe - Leibniz Institute for Information Infrastructure.  All rights reserved.
data_34890-ICSD
_database_code_ICSD 34890
_audit_creation_date 1980-01-01
_audit_update_record 2007-04-01
_chemical_name_systematic 'Disodium tecto-dialumotrisilicate dihydrate'
_chemical_formula_structural 'Na2 (Al2 Si3 O10) (H2 O)2'
_chemical_formula_sum 'H4 Al2 Na2 O12 Si3'
_chemical_name_structure_type Natrolite-frame
_chemical_name_mineral Natrolite
_exptl_crystal_density_diffrn 2.24
_publ_section_title 'The crystal structure of natrolite'
loop_
_citation_id
_citation_journal_full
_citation_year
_citation_journal_volume
_citation_page_first
_citation_page_last
_citation_journal_id_ASTM
primary 'Zeitschrift fuer Kristallographie' 1960 113 430 444 ZEKRDZ
loop_
_publ_author_name
'Meier, W.M.'
_cell_length_a 18.3600(10)
_cell_length_b 18.6300(10)
_cell_length_c 6.60(2)
_cell_angle_alpha 90.
_cell_angle_beta 90.
_cell_angle_gamma 90.
_cell_volume 2257.51
_cell_formula_units_Z 8
_symmetry_space_group_name_H-M 'F d d 2'
_symmetry_Int_Tables_number 43
_refine_ls_R_factor_all 0.083
loop_
_symmetry_equiv_pos_site_id
_symmetry_equiv_pos_as_xyz
1 'x+1/4, -y+1/4, z+1/4'
2 '-x+1/4, y+1/4, z+1/4'
3 '-x, -y, z'
4 'x, y, z'
5 'x+1/4, -y+3/4, z+3/4'
6 '-x+1/4, y+3/4, z+3/4'
7 '-x, -y+1/2, z+1/2'
8 'x, y+1/2, z+1/2'
9 'x+3/4, -y+1/4, z+3/4'
10 '-x+3/4, y+1/4, z+3/4'
11 '-x+1/2, -y, z+1/2'
12 'x+1/2, y, z+1/2'
13 'x+3/4, -y+3/4, z+1/4'
14 '-x+3/4, y+3/4, z+1/4'
15 '-x+1/2, -y+1/2, z'
16 'x+1/2, y+1/2, z'
loop_
_atom_type_symbol
_atom_type_oxidation_number
Si4+ 4
Al3+ 3
O2- -2
Na1+ 1
O2- -2
H1+ 1
loop_
_atom_site_label
_atom_site_type_symbol
_atom_site_symmetry_multiplicity
_atom_site_Wyckoff_symbol
_atom_site_fract_x
_atom_site_fract_y
_atom_site_fract_z
_atom_site_B_iso_or_equiv
_atom_site_occupancy
_atom_site_attached_hydrogens
Si1 Si4+ 8 a 0 0 0 1.07 1. 0
Si2 Si4+ 16 b 0.1532(2) 0.2112(2) 0.6181(10) 1. 1. 0
Al1 Al3+ 16 b 0.0376(2) 0.0936(2) 0.6119(11) 1.12 1. 0
O1 O2- 16 b 0.0227(4) 0.0683(4) 0.8594(24) 1.81 1. 0
O2 O2- 16 b 0.0704(4) 0.1824(3) 0.6011(23) 1.1 1. 0
O3 O2- 16 b 0.0986(4) 0.0346(4) 0.4997(20) 1.55 1. 0
O4 O2- 16 b 0.2063(2) 0.1526(4) 0.7166(22) 1.24 1. 0
O5 O2- 16 b 0.1799(2) 0.2272(4) 0.386(2) 1.83 1. 0
Na1 Na1+ 16 b 0.2208(3) 0.0305(2) 0.6120(16) 2. 1. 0
O6 O2- 16 b 0.0564(5) 0.1893(4) 0.1085(38) 2.5 1. 0
H1 H1+ 16 b 0.054 0.142 0.039 2.5 1. 0
H2 H1+ 16 b 0.103 0.191 0.184 2.5 1. 0
#End of TTdata_34890-ICSD