
#(C) 2019 by FIZ Karlsruhe - Leibniz Institute for Information Infrastructure.  All rights reserved.
data_35245-ICSD
_database_code_ICSD 35245
_audit_creation_date 1982-12-31
_audit_update_record 2007-08-01
_chemical_name_systematic
'Calcium sodium tetrahydroxoheptaoxopentaborate trihydrate'
_chemical_formula_structural 'Ca Na (B5 O7 (O H)4) (H2 O)3'
_chemical_formula_sum 'H10 B5 Ca1 Na1 O14'
_chemical_name_mineral Probertite
_exptl_crystal_density_diffrn 2.13
_publ_section_title 'Probertite, Ca Na (B5 O7 (O H)4) * 3(H2 O): A refinement'
loop_
_citation_id
_citation_journal_full
_citation_year
_citation_journal_volume
_citation_page_first
_citation_page_last
_citation_journal_id_ASTM
primary

;
Acta Crystallographica, Section B: Structural Crystallography and Crystal
Chemistry
; 1982 38 3072 3075 ACBCAR
loop_
_publ_author_name
'Menchetti, S.'
'Sabelli, C.'
'Trosti-Ferroni, R.'
_cell_length_a 6.588(1)
_cell_length_b 12.560(2)
_cell_length_c 13.428(2)
_cell_angle_alpha 90.
_cell_angle_beta 99.97(1)
_cell_angle_gamma 90.
_cell_volume 1094.32
_cell_formula_units_Z 4
_symmetry_space_group_name_H-M 'P 1 21/c 1'
_symmetry_Int_Tables_number 14
_refine_ls_R_factor_all 0.036
loop_
_symmetry_equiv_pos_site_id
_symmetry_equiv_pos_as_xyz
1 'x, -y+1/2, z+1/2'
2 '-x, -y, -z'
3 '-x, y+1/2, -z+1/2'
4 'x, y, z'
loop_
_atom_type_symbol
_atom_type_oxidation_number
Ca2+ 2
Na1+ 1
O2- -2
B3+ 3
H1+ 1
loop_
_atom_site_label
_atom_site_type_symbol
_atom_site_symmetry_multiplicity
_atom_site_Wyckoff_symbol
_atom_site_fract_x
_atom_site_fract_y
_atom_site_fract_z
_atom_site_B_iso_or_equiv
_atom_site_occupancy
_atom_site_attached_hydrogens
Ca1 Ca2+ 4 e 0.34825(5) 0.58776(3) 0.09502(3) . 1. 0
Na1 Na1+ 4 e 1.12101(13) 0.49557(7) 0.32427(6) . 1. 0
O1 O2- 4 e 0.3323(2) 0.2970(1) -.1491(1) . 1. 0
O2 O2- 4 e 0.3497(2) 0.1257(1) -.0627(1) . 1. 0
O3 O2- 4 e 0.1431(2) 0.2618(1) -.0147(1) . 1. 0
O4 O2- 4 e 0.5135(2) 0.2866(1) 0.0180(1) . 1. 0
O5 O2- 4 e 0.2887(2) 0.3994(1) 0.0986(1) . 1. 0
O6 O2- 4 e 0.6299(2) 0.4526(1) 0.0999(1) . 1. 0
O7 O2- 4 e 0.5612(2) 0.2979(1) 0.1991(1) . 1. 0
O8 O2- 4 e 0.9254(2) 0.3805(1) 0.0490(1) . 1. 0
O9 O2- 4 e 0.9003(2) 0.3738(1) 0.2267(1) . 1. 0
O10 O2- 4 e 0.7956(2) 0.2486(1) 0.3412(1) . 1. 0
O11 O2- 4 e 0.9633(2) 0.5398(1) 0.1521(1) . 1. 0
O12 O2- 4 e 0.4330(2) 0.5700(1) 0.2789(1) . 1. 0
O13 O2- 4 e 0.7867(2) 0.5057(2) 0.4092(1) . 1. 0
O14 O2- 4 e 1.1737(3) 0.6419(1) 0.4357(1) . 1. 0
B1 B3+ 4 e 0.3383(3) 0.2414(2) -.0514(2) . 1. 0
B2 B3+ 4 e 0.5012(3) 0.3576(2) 0.1030(2) . 1. 0
B3 B3+ 4 e 0.1207(3) 0.3486(2) 0.0448(2) . 1. 0
B4 B3+ 4 e 0.8535(3) 0.4396(2) 0.1327(2) . 1. 0
B5 B3+ 4 e 0.7554(3) 0.3092(2) 0.2542(2) . 1. 0
H1 H1+ 4 e 0.346(4) 0.256(2) -.199(2) 3.6(6) 1. 0
H2 H1+ 4 e 0.466(4) 0.105(2) -.067(2) 5.0(7) 1. 0
H3 H1+ 4 e 0.902(4) 0.255(2) 0.372(2) 2.6(7) 1. 0
H4 H1+ 4 e 0.882(4) 0.597(2) 0.161(2) 3.7(7) 1. 0
H5 H1+ 4 e 0.461(4) 0.643(2) 0.292(2) 5.7(8) 1. 0
H6 H1+ 4 e 0.536(4) 0.543(2) 0.304(2) 4.7(8) 1. 0
H7 H1+ 4 e 0.798(4) 0.447(2) 0.450(2) 4.4(8) 1. 0
H8 H1+ 4 e 0.755(4) 0.555(2) 0.455(2) 5.4(8) 1. 0
H9 H1+ 4 e 1.070(5) 0.675(3) 0.448(2) 8.7(8) 1. 0
H10 H1+ 4 e 1.259(5) 0.692(2) 0.446(2) 6.3(8) 1. 0
loop_
_atom_site_aniso_label
_atom_site_aniso_type_symbol
_atom_site_aniso_beta_11
_atom_site_aniso_beta_22
_atom_site_aniso_beta_33
_atom_site_aniso_beta_12
_atom_site_aniso_beta_13
_atom_site_aniso_beta_23
Ca1 Ca2+ 0.00371(7) 0.00106(2) 0.00097(2) 0.00017(4) 0.00010(3) -.00005(2)
Na1 Na1+ 0.01091(21) 0.00313(6) 0.00258(6) -.00141(9) -.00096(8) 0.00014(5)
O1 O2- 0.00806(33) 0.00219(9) 0.00151(9) 0.00063(14) 0.00065(14) -.00017(7)
O2 O2- 0.00657(34) 0.00169(9) 0.00291(10) 0.00043(14) 0.00044(14) -.00064(7)
O3 O2- 0.00231(29) 0.00202(9) 0.00179(8) -.00029(12) 0.00031(12) -.00051(6)
O4 O2- 0.00361(29) 0.00189(8) 0.00162(8) 0.00007(12) 0.00018(12) -.00063(6)
O5 O2- 0.00237(26) 0.00187(9) 0.00170(8) 0.00011(12) 0.00024(12) -.00038(6)
O6 O2- 0.00263(27) 0.00121(8) 0.00141(8) 0.00000(12) 0.00024(11) 0.00007(6)
O7 O2- 0.0045(3) 0.00212(9) 0.00163(8) -.00073(13) -.00022(12) 0.00064(7)
O8 O2- 0.00216(27) 0.00227(9) 0.00141(8) -.00002(12) 0.00020(11) -.00035(6)
O9 O2- 0.00409(29) 0.00216(8) 0.00143(8) -.00055(12) -.00023(12) 0.00054(6)
O10 O2- 0.00499(33) 0.00281(9) 0.00185(9) -.00079(14) -.00098(14) 0.00089(7)
O11 O2- 0.00431(30) 0.00125(8) 0.00232(9) -.00028(13) 0.00026(12) -.00011(7)
O12 O2- 0.00828(36) 0.00289(11) 0.00235(10) 0.00038(16) 0.00013(14) 0.00015(8)
O13 O2- 0.01491(44) 0.00459(13) 0.00291(11) 0.00160(19) -.00039(17) -.00045(10)
O14 O2- 0.01035(41) 0.00242(10) 0.00466(12) -.00081(18) 0.00163(18) -.00083(8)
B1 B3+ 0.00333(45) 0.00160(13) 0.00166(13) 0.00012(19) 0.00008(19) -.00027(10)
B2 B3+ 0.00321(44) 0.00161(13) 0.00141(13) 0.00004(19) 0.00062(19) 0.00008(10)
B3 B3+ 0.00402(45) 0.00160(12) 0.00127(13) -.00032(18) 0.00024(18) 0.00034(10)
B4 B3+ 0.00304(43) 0.00161(13) 0.00137(12) 0.00005(18) 0.00022(18) 0.00010(9)
B5 B3+ 0.00520(46) 0.00142(12) 0.00139(13) 0.00022(19) 0.00021(19) -.00012(10)
#End of TTdata_35245-ICSD