
#(C) 2019 by FIZ Karlsruhe - Leibniz Institute for Information Infrastructure.  All rights reserved.
data_35325-ICSD
_database_code_ICSD 35325
_audit_creation_date 1983-12-31
_audit_update_record 2015-02-01
_chemical_name_systematic 'Sodium closo-13-oxopentaantimonate'
_chemical_formula_structural 'Na Sb5 O13'
_chemical_formula_sum 'Na1 O13 Sb5'
_chemical_name_structure_type NaSc5O13
_exptl_crystal_density_diffrn 5.78
_publ_section_title

;
Darstellung und Kristallstrukturen einiger M Sb5 O13-Verbindungen (M= H3 O,
Na, K)
;
loop_
_citation_id
_citation_journal_full
_citation_year
_citation_journal_volume
_citation_page_first
_citation_page_last
_citation_journal_id_ASTM
primary

;
Zeitschrift fuer Naturforschung, Teil B: Anorganische Chemie, Organische
Chemie
; 1983 38 172 176 ZNBAD2
loop_
_publ_author_name
'Bodenstein, D.'
'Clegg, W.'
'Jaeger, G.'
'Jones, P.G.'
'Rumpel, H.'
'Schwarzmann, E.'
'Sheldrick, G.M.'
_cell_length_a 6.573(2)
_cell_length_b 8.887(2)
_cell_length_c 16.515(3)
_cell_angle_alpha 90.
_cell_angle_beta 90.
_cell_angle_gamma 90.
_cell_volume 964.71
_cell_formula_units_Z 4
_symmetry_space_group_name_H-M 'C m c m'
_symmetry_Int_Tables_number 63
_refine_ls_R_factor_all 0.047
loop_
_symmetry_equiv_pos_site_id
_symmetry_equiv_pos_as_xyz
1 '-x, y, -z+1/2'
2 '-x, -y, z+1/2'
3 '-x, y, z'
4 '-x, -y, -z'
5 'x, -y, z+1/2'
6 'x, y, -z+1/2'
7 'x, -y, -z'
8 'x, y, z'
9 '-x+1/2, y+1/2, -z+1/2'
10 '-x+1/2, -y+1/2, z+1/2'
11 '-x+1/2, y+1/2, z'
12 '-x+1/2, -y+1/2, -z'
13 'x+1/2, -y+1/2, z+1/2'
14 'x+1/2, y+1/2, -z+1/2'
15 'x+1/2, -y+1/2, -z'
16 'x+1/2, y+1/2, z'
loop_
_atom_type_symbol
_atom_type_oxidation_number
Sb5+ 5
O2- -2
Na1+ 1
loop_
_atom_site_label
_atom_site_type_symbol
_atom_site_symmetry_multiplicity
_atom_site_Wyckoff_symbol
_atom_site_fract_x
_atom_site_fract_y
_atom_site_fract_z
_atom_site_B_iso_or_equiv
_atom_site_occupancy
_atom_site_attached_hydrogens
Sb1 Sb5+ 4 a 0 0 0 . 1. 0
Sb2 Sb5+ 8 f 0 0.23143(7) -.13928(3) . 1. 0
Sb3 Sb5+ 8 f 0 0.38532(7) 0.07938(3) . 1. 0
O1 O2- 4 c 0 -.1738(12) 0.25 0.0091(7) 1. 0
O2 O2- 16 h 0.2041(8) 0.2705(6) 0.1355(3) 0.0122(9) 1. 0
O3 O2- 8 e 0.3113(11) 0 0 0.0082(11) 1. 0
O4 O2- 8 f 0 -.2258(8) 0.0103(4) 0.0113(13) 1. 0
O5 O2- 8 f 0 0.4478(8) -.1523(4) 0.0073(11) 1. 0
O6 O2- 8 f 0 -.0141(9) 0.1145(4) 0.0105(12) 1. 0
Na1 Na1+ 8 g 0.0275(22) 0.1260(94) 0.25 . 0.5 0
loop_
_atom_site_aniso_label
_atom_site_aniso_type_symbol
_atom_site_aniso_U_11
_atom_site_aniso_U_22
_atom_site_aniso_U_33
_atom_site_aniso_U_12
_atom_site_aniso_U_13
_atom_site_aniso_U_23
Sb1 Sb5+ 0.0086(4) 0.0067(4) 0.0058(4) 0 0 0.0000(2)
Sb2 Sb5+ 0.0085(3) 0.0069(3) 0.0051(3) 0 0 0.0000(2)
Sb3 Sb5+ 0.0083(3) 0.0065(3) 0.0058(3) 0 0 0.0000(2)
Na1 Na1+ 0.0043(93) 0.0193(37) 0.0232(37) 0 0 0
#End of TTdata_35325-ICSD