
#(C) 2017 by FIZ Karlsruhe - Leibniz Institute for Information Infrastructure.  All rights reserved.
data_35397-ICSD
_database_code_ICSD 35397
_audit_creation_date 1983-12-31
_chemical_name_systematic 'Cesium lithium chloride'
_chemical_formula_structural 'Cs Li Cl2'
_chemical_formula_sum 'Cl2 Cs1 Li1'
_chemical_name_structure_type BaNiS2
_exptl_crystal_density_diffrn 3.04
_publ_section_title 'Zur Kenntnis von Cs Li Cl2'
loop_
_citation_id
_citation_journal_full
_citation_year
_citation_journal_volume
_citation_page_first
_citation_page_last
_citation_journal_id_ASTM
primary 'Zeitschrift fuer Anorganische und Allgemeine Chemie (1950) (DE)' 1983
498 94 98 ZAACAB
loop_
_publ_author_name
'Gaebell, H.C.'
'Meyer, G.'
'Hoppe, R.'
_cell_length_a 4.9235(9)
_cell_length_b 4.9235(9)
_cell_length_c 9.500(3)
_cell_angle_alpha 90.
_cell_angle_beta 90.
_cell_angle_gamma 90.
_cell_volume 230.29
_cell_formula_units_Z 2
_symmetry_space_group_name_H-M 'P 4/n m m Z'
_symmetry_Int_Tables_number 129
_refine_ls_R_factor_all 0.052
loop_
_symmetry_equiv_pos_site_id
_symmetry_equiv_pos_as_xyz
1 'y+1/2, x+1/2, -z'
2 '-y, x+1/2, -z'
3 'y+1/2, -x, -z'
4 '-y, -x, -z'
5 'x+1/2, y+1/2, -z'
6 '-x, y+1/2, -z'
7 'x+1/2, -y, -z'
8 '-x, -y, -z'
9 '-y+1/2, -x+1/2, z'
10 'y, -x+1/2, z'
11 '-y+1/2, x, z'
12 'y, x, z'
13 '-x+1/2, -y+1/2, z'
14 'x, -y+1/2, z'
15 '-x+1/2, y, z'
16 'x, y, z'
loop_
_atom_type_symbol
_atom_type_oxidation_number
Cs1+ 1
Li1+ 1
Cl1- -1
loop_
_atom_site_label
_atom_site_type_symbol
_atom_site_symmetry_multiplicity
_atom_site_Wyckoff_symbol
_atom_site_fract_x
_atom_site_fract_y
_atom_site_fract_z
_atom_site_B_iso_or_equiv
_atom_site_occupancy
_atom_site_attached_hydrogens
Cs1 Cs1+ 2 c 0.25 0.25 0.6957(1) . 1. 0
Li1 Li1+ 2 c 0.25 0.25 0.0885(35) . 1. 0
Cl1 Cl1- 2 a 0.25 0.75 0 . 1. 0
Cl2 Cl1- 2 c 0.25 0.25 0.3318(4) . 1. 0
loop_
_atom_site_aniso_label
_atom_site_aniso_type_symbol
_atom_site_aniso_U_11
_atom_site_aniso_U_22
_atom_site_aniso_U_33
_atom_site_aniso_U_12
_atom_site_aniso_U_13
_atom_site_aniso_U_23
Cs1 Cs1+ 0.00402(5) 0.00402(5) 0.00332(6) 0 0 0
Li1 Li1+ 0.0031(9) 0.0031(9) 0.0053(18) 0 0 0
Cl1 Cl1- 0.0046(2) 0.0046(2) 0.0046(2) 0 0 0
Cl2 Cl1- 0.0043(1) 0.0043(1) 0.0030(2) 0 0 0
#End of TTdata_35397-ICSD