
#(C) 2019 by FIZ Karlsruhe - Leibniz Institute for Information Infrastructure.  All rights reserved.
data_35421-ICSD
_database_code_ICSD 35421
_audit_creation_date 1983-12-31
_chemical_name_systematic 'Sodium oxotetrahydroxodistannate(II)'
_chemical_formula_structural 'Na2 (Sn2 O (O H)4)'
_chemical_formula_sum 'H4 Na2 O5 Sn2'
_exptl_crystal_density_diffrn 3.42
_publ_section_title

;
Ueber die Natriumoxohydroxostannate(II) Na4 (Sn4 O (O H)10) und Na2 (Sn2 O (O
H)4)
;
loop_
_citation_id
_citation_journal_full
_citation_year
_citation_journal_volume
_citation_page_first
_citation_page_last
_citation_journal_id_ASTM
primary 'Zeitschrift fuer Anorganische und Allgemeine Chemie (1950) (DE)' 1983
499 117 129 ZAACAB
loop_
_publ_author_name
'von Schnering, H.G.'
'Nesper, R.'
'Pelshenke, H.'
_cell_length_a 14.50(2)
_cell_length_b 16.65(2)
_cell_length_c 5.907(8)
_cell_angle_alpha 90.
_cell_angle_beta 90.
_cell_angle_gamma 90.
_cell_volume 1426.1
_cell_formula_units_Z 8
_symmetry_space_group_name_H-M 'P 21 21 21'
_symmetry_Int_Tables_number 19
_refine_ls_R_factor_all 0.042
loop_
_symmetry_equiv_pos_site_id
_symmetry_equiv_pos_as_xyz
1 '-x, y+1/2, -z+1/2'
2 'x+1/2, -y+1/2, -z'
3 '-x+1/2, -y, z+1/2'
4 'x, y, z'
loop_
_atom_type_symbol
_atom_type_oxidation_number
Sn2+ 2
Na1+ 1
O2- -2
H1+ 1
loop_
_atom_site_label
_atom_site_type_symbol
_atom_site_symmetry_multiplicity
_atom_site_Wyckoff_symbol
_atom_site_fract_x
_atom_site_fract_y
_atom_site_fract_z
_atom_site_B_iso_or_equiv
_atom_site_occupancy
_atom_site_attached_hydrogens
Sn1 Sn2+ 4 a 0.4627(1) 0.1974(1) 0.1155(1) . 1. 0
Sn2 Sn2+ 4 a 0.4916(1) 0.3516(1) 0.6237(1) . 1. 0
Sn3 Sn2+ 4 a 0.2316(1) 0.1754(1) 0.8824(1) . 1. 0
Sn4 Sn2+ 4 a 0.2742(1) 0.3314(1) 0.3791(1) . 1. 0
Na1 Na1+ 4 a 0.3017(8) 0.0284(6) 0.239(2) 0.0310(27) 1. 0
Na2 Na1+ 4 a 0.4506(7) 0.5090(6) 0.273(2) 0.0320(28) 1. 0
Na3 Na1+ 4 a 0.3166(7) 0.4832(6) 0.777(2) 0.0331(28) 1. 0
Na4 Na1+ 4 a 0.4216(17) 0.0458(5) 0.729(2) 0.0263(26) 1. 0
O1 O2- 4 a 0.479(1) 0.123(1) 0.405(3) 0.0242(40) 1. 0
O2 O2- 4 a 0.473(1) 0.425(1) 0.919(3) 0.0255(40) 1. 0
O3 O2- 4 a 0.251(1) 0.399(1) 0.086(3) 0.0292(47) 1. 0
O4 O2- 4 a 0.269(1) 0.110(1) 0.582(3) 0.0263(44) 1. 0
O5 O2- 4 a 0.353(1) 0.132(1) 0.014(3) 0.0249(42) 1. 0
O6 O2- 4 a 0.379(1) 0.404(1) 0.480(3) 0.0215(42) 1. 0
O7 O2- 4 a 0.171(1) 0.072(1) 0.016(3) 0.0223(40) 1. 0
O8 O2- 4 a 0.187(1) 0.410(1) 0.563(3) 0.0259(44) 1. 0
O9 O2- 4 a 0.038(1) 0.388(1) 0.065(3) 0.0312(47) 1. 0
O10 O2- 4 a 0.074(1) 0.057(1) 0.510(3) 0.0269(44) 1. 0
H1 H1+ 4 a 0.41(1) 0.11(1) 0.46(4) 0.0400(44) 1. 0
H2 H1+ 4 a 0.41(1) 0.40(1) 0.98(4) 0.0400(44) 1. 0
H3 H1+ 4 a 0.19(1) 0.40(1) 0.02(4) 0.0400(44) 1. 0
H4 H1+ 4 a 0.20(1) 0.08(1) 0.53(4) 0.0400(44) 1. 0
H5 H1+ 4 a 0.12(1) 0.08(1) 0.12(3) 0.0400(44) 1. 0
H6 H1+ 4 a 0.14(1) 0.39(1) 0.45(4) 0.0400(44) 1. 0
H7 H1+ 4 a 0.05(2) 0.39(1) 0.23(2) 0.0400(44) 1. 0
H8 H1+ 4 a 0.08(2) 0.06(1) 0.68(2) 0.0400(44) 1. 0
loop_
_atom_site_aniso_label
_atom_site_aniso_type_symbol
_atom_site_aniso_U_11
_atom_site_aniso_U_22
_atom_site_aniso_U_33
_atom_site_aniso_U_12
_atom_site_aniso_U_13
_atom_site_aniso_U_23
Sn1 Sn2+ 0.0177(3) 0.0231(9) 0.0230(9) -.0033(7) -.0021(11) 0.0008(10)
Sn2 Sn2+ 0.0171(10) 0.0220(9) 0.0217(9) 0.0019(7) -.0025(10) -.0012(9)
Sn3 Sn2+ 0.0183(9) 0.0225(9) 0.0243(9) 0.0028(7) -.0042(11) -.0014(9)
Sn4 Sn2+ 0.0162(9) 0.0207(9) 0.0235(9) -.0019(7) -.0014(11) -.0019(9)
#End of TTdata_35421-ICSD