
#(C) 2019 by FIZ Karlsruhe - Leibniz Institute for Information Infrastructure.  All rights reserved.
data_35761-ICSD
_database_code_ICSD 35761
_audit_creation_date 1983-12-31
_chemical_name_systematic 'Sodium hexafluorooxoniobate - !-alpha'
_chemical_formula_structural 'Na3 (Nb F6 O)'
_chemical_formula_sum 'F6 Na3 Nb1 O1'
_exptl_crystal_density_diffrn 3.52
_publ_section_title

;
The Crystal Structure of alpha-Sodium Hexafluorooxoniobate(V), alpha-Na3 (Nb
F6 O)
;
loop_
_citation_id
_citation_journal_full
_citation_year
_citation_journal_volume
_citation_page_first
_citation_page_last
_citation_journal_id_ASTM
primary 'Acta Chemica Scandinavica, Series A: Physical and Inorganic Chemistry'
1983 37 453 459 ACAPCT
loop_
_publ_author_name
'Stomberg, R.'
_cell_length_a 5.6481(4)
_cell_length_b 5.7661(5)
_cell_length_c 16.9340(13)
_cell_angle_alpha 90.
_cell_angle_beta 90.
_cell_angle_gamma 90.
_cell_volume 551.5
_cell_formula_units_Z 4
_symmetry_space_group_name_H-M 'P 21 21 21'
_symmetry_Int_Tables_number 19
_refine_ls_R_factor_all 0.034
loop_
_symmetry_equiv_pos_site_id
_symmetry_equiv_pos_as_xyz
1 '-x, y+1/2, -z+1/2'
2 'x+1/2, -y+1/2, -z'
3 '-x+1/2, -y, z+1/2'
4 'x, y, z'
loop_
_atom_type_symbol
_atom_type_oxidation_number
Nb5+ 5
Na1+ 1
F1- -1
O2- -2
loop_
_atom_site_label
_atom_site_type_symbol
_atom_site_symmetry_multiplicity
_atom_site_Wyckoff_symbol
_atom_site_fract_x
_atom_site_fract_y
_atom_site_fract_z
_atom_site_B_iso_or_equiv
_atom_site_occupancy
_atom_site_attached_hydrogens
Nb1 Nb5+ 4 a 0.25348(6) -.00913(4) 0.12488(2) 0.0101 1. 0
Na1 Na1+ 4 a 0.2638(4) 0.0124(3) 0.3749(1) 0.0204 1. 0
Na2 Na1+ 4 a 0.2371(3) 0.4688(3) 0.2562(1) 0.0195 1. 0
Na3 Na1+ 4 a 0.2198(4) 0.4908(3) -.0034(1) 0.0239 1. 0
F1 F1- 4 a 0.1566(5) 0.0768(5) 0.2377(2) 0.0208 1. 0
F2 F1- 4 a 0.1243(5) 0.3187(4) 0.1235(1) 0.0226 1. 0
F3 F1- 4 a 0.2693(6) 0.1017(4) 0.0116(1) 0.0239 1. 0
F4 F1- 4 a 0.4459(5) -.2436(5) 0.0604(2) 0.0206 1. 0
F5 F1- 4 a 0.4193(5) -.2289(4) 0.1992(1) 0.0233 1. 0
F6 F1- 4 a 0.5780(5) 0.1608(4) 0.1341(1) 0.0199 1. 0
O1 O2- 4 a -.0098(5) -.1608(5) 0.1123(2) 0.0188 1. 0
#End of TTdata_35761-ICSD