
#(C) 2018 by FIZ Karlsruhe - Leibniz Institute for Information Infrastructure.  All rights reserved.
data_35769-ICSD
_database_code_ICSD 35769
_audit_creation_date 1983-12-31
_audit_update_record 2012-02-01
_chemical_name_systematic 'Lithium pentaferrate(III)'
_chemical_formula_structural 'Li (Fe5 O8)'
_chemical_formula_sum 'Fe5 Li1 O8'
_chemical_name_structure_type Spinel-LiFe5O8
_exptl_crystal_density_diffrn 4.79
_publ_section_title

;
Affinement de la structure des formes ordonnee et desordonnee de
l'octaoxopentaferrate de lithium, Li Fe5 O8
;
loop_
_citation_id
_citation_journal_full
_citation_year
_citation_journal_volume
_citation_page_first
_citation_page_last
_citation_journal_id_ASTM
primary 'Acta Crystallographica, Section C: Crystal Structure Communications'
1983 39 1615 1617 ACSCEE
loop_
_publ_author_name
'Tomas, A.'
'Laruelle, P.'
_cell_length_a 8.314(3)
_cell_length_b 8.314(3)
_cell_length_c 8.314(3)
_cell_angle_alpha 90.
_cell_angle_beta 90.
_cell_angle_gamma 90.
_cell_volume 574.69
_cell_formula_units_Z 4
_symmetry_space_group_name_H-M 'P 43 3 2'
_symmetry_Int_Tables_number 212
_refine_ls_R_factor_all 0.033
loop_
_symmetry_equiv_pos_site_id
_symmetry_equiv_pos_as_xyz
1 'z+1/4, y+3/4, -x+3/4'
2 '-z+3/4, y+1/4, x+3/4'
3 'y+1/4, x+3/4, -z+3/4'
4 '-y+3/4, x+1/4, z+3/4'
5 'x+1/4, z+3/4, -y+3/4'
6 '-x+3/4, z+1/4, y+3/4'
7 'z+3/4, -y+3/4, x+1/4'
8 '-z+1/4, -y+1/4, -x+1/4'
9 'y+3/4, -x+3/4, z+1/4'
10 '-y+1/4, -x+1/4, -z+1/4'
11 'x+3/4, -z+3/4, y+1/4'
12 '-x+1/4, -z+1/4, -y+1/4'
13 '-y+1/2, -z, x+1/2'
14 '-y, z+1/2, -x+1/2'
15 'y+1/2, -z+1/2, -x'
16 'y, z, x'
17 'z+1/2, -x+1/2, -y'
18 '-z+1/2, -x, y+1/2'
19 '-z, x+1/2, -y+1/2'
20 'z, x, y'
21 '-x+1/2, -y, z+1/2'
22 '-x, y+1/2, -z+1/2'
23 'x+1/2, -y+1/2, -z'
24 'x, y, z'
loop_
_atom_type_symbol
_atom_type_oxidation_number
Fe3+ 3
O2- -2
Li1+ 1
loop_
_atom_site_label
_atom_site_type_symbol
_atom_site_symmetry_multiplicity
_atom_site_Wyckoff_symbol
_atom_site_fract_x
_atom_site_fract_y
_atom_site_fract_z
_atom_site_B_iso_or_equiv
_atom_site_occupancy
_atom_site_attached_hydrogens
Fe1 Fe3+ 12 d 0.125 0.36735(6) -.11735(6) . 1. 0
Fe2 Fe3+ 8 c -.00235(7) -.00235(7) -.00235(7) . 1. 0
O1 O2- 8 c 0.3853(3) 0.3853(3) 0.3853(3) . 1. 0
O2 O2- 24 e 0.1166(3) 0.1284(3) 0.3839(3) . 1. 0
Li1 Li1+ 4 b 0.625 0.625 0.625 3. 1. 0
loop_
_atom_site_aniso_label
_atom_site_aniso_type_symbol
_atom_site_aniso_beta_11
_atom_site_aniso_beta_22
_atom_site_aniso_beta_33
_atom_site_aniso_beta_12
_atom_site_aniso_beta_13
_atom_site_aniso_beta_23
Fe1 Fe3+ 0.00067(5) 0.00053(3) 0.00053(3) 0.00005(3) 0.00005(3) -.00015(4)
Fe2 Fe3+ 0.00051(3) 0.00051(3) 0.00051(3) 0.00001(3) 0.00001(3) 0.00001(3)
O1 O2- 0.00100(12) 0.00100(12) 0.00100(12) -.00008(15) -.00008(15) -.00008(15)
O2 O2- 0.00092(19) 0.00161(19) 0.00096(18) -.00015(14) -.00005(14) 0.00015(20)
#End of TTdata_35769-ICSD