
#(C) 2018 by FIZ Karlsruhe - Leibniz Institute for Information Infrastructure.  All rights reserved.
data_36038-ICSD
_database_code_ICSD 36038
_audit_creation_date 1983-12-31
_audit_update_record 2006-04-01
_chemical_name_systematic 'Lithium potassium sulfate(VI)'
_chemical_formula_structural 'Li K (S O4)'
_chemical_formula_sum 'K1 Li1 O4 S1'
_chemical_name_structure_type LiKSO4
_exptl_crystal_density_diffrn 2.38
_publ_section_title
'Structure of pyroelectric lithium potassium sulphate Li K S O4'
loop_
_citation_id
_citation_journal_full
_citation_year
_citation_journal_volume
_citation_page_first
_citation_page_last
_citation_journal_id_ASTM
primary 'Acta Crystallographica, Section C: Crystal Structure Communications'
1983 39 34 38 ACSCEE
loop_
_publ_author_name
'Karppinen, M.'
'Lundgren, J.O.'
'Liminga, R.'
_cell_length_a 5.1452(2)
_cell_length_b 5.1452(2)
_cell_length_c 8.6343(6)
_cell_angle_alpha 90.
_cell_angle_beta 90.
_cell_angle_gamma 120.
_cell_volume 197.95
_cell_formula_units_Z 2
_symmetry_space_group_name_H-M 'P 63'
_symmetry_Int_Tables_number 173
_refine_ls_R_factor_all 0.035
loop_
_symmetry_equiv_pos_site_id
_symmetry_equiv_pos_as_xyz
1 'x-y, x, z+1/2'
2 'y, -x+y, z+1/2'
3 '-x, -y, z+1/2'
4 '-x+y, -x, z'
5 '-y, x-y, z'
6 'x, y, z'
loop_
_atom_type_symbol
_atom_type_oxidation_number
Li1+ 1
K1+ 1
S6+ 6
O2- -2
loop_
_atom_site_label
_atom_site_type_symbol
_atom_site_symmetry_multiplicity
_atom_site_Wyckoff_symbol
_atom_site_fract_x
_atom_site_fract_y
_atom_site_fract_z
_atom_site_B_iso_or_equiv
_atom_site_occupancy
_atom_site_attached_hydrogens
Li1 Li1+ 2 b 0.3333 0.6667 0.31769(25) . 1. 0
K1 K1+ 2 a 0 0 0 . 1. 0
S1 S6+ 2 b 0.3333 0.6667 0.70596(3) . 1. 0
O1 O2- 2 b 0.3333 0.6667 0.53880(24) . 1. 0
O2 O2- 6 c 0.34690(19) 0.40581(15) 0.76126(20) . 1. 0
loop_
_atom_site_aniso_label
_atom_site_aniso_type_symbol
_atom_site_aniso_beta_11
_atom_site_aniso_beta_22
_atom_site_aniso_beta_33
_atom_site_aniso_beta_12
_atom_site_aniso_beta_13
_atom_site_aniso_beta_23
Li1 Li1+ 0.01765(42) 0.01765(42) 0.00578(19) 0.008825(42) 0 0
K1 K1+ 0.02154(5) 0.02154(5) 0.0542(2) 0.01077(5) 0 0
S1 S6+ 0.01124(4) 0.01124(4) 0.00316(1) 0.00562(4) 0 0
O1 O2- 0.05863(45) 0.05863(45) 0.00343(6) 0.029320(45) 0 0
O2 O2- 0.02316(17) 0.01797(15) 0.01324(7) 0.01265(14) -.00069(13) 0.00474(11)
#End of TTdata_36038-ICSD