
#(C) 2019 by FIZ Karlsruhe - Leibniz Institute for Information Infrastructure.  All rights reserved.
data_36067-ICSD
_database_code_ICSD 36067
_audit_creation_date 1986-10-02
_audit_update_record 2015-02-01
_chemical_name_systematic 'Sodium tetrafluoroborate'
_chemical_formula_structural 'Na (B F4)'
_chemical_formula_sum 'B1 F4 Na1'
_chemical_name_structure_type CaSO4
_chemical_name_mineral Ferruccite
_exptl_crystal_density_diffrn 2.51
_publ_section_title 'Refinement of the structure of Na B F4'
loop_
_citation_id
_citation_journal_full
_citation_year
_citation_journal_volume
_citation_page_first
_citation_page_last
_citation_journal_id_ASTM
primary

;
Acta Crystallographica, Section B: Structural Crystallography and Crystal
Chemistry
; 1968 24 1703 1704 ACBCAR
loop_
_publ_author_name
'Brunton, G.'
_cell_length_a 6.8368(9)
_cell_length_b 6.2619(7)
_cell_length_c 6.7916(4)
_cell_angle_alpha 90.
_cell_angle_beta 90.
_cell_angle_gamma 90.
_cell_volume 290.76
_cell_formula_units_Z 4
_symmetry_space_group_name_H-M 'C m c m'
_symmetry_Int_Tables_number 63
_refine_ls_R_factor_all 0.036
loop_
_symmetry_equiv_pos_site_id
_symmetry_equiv_pos_as_xyz
1 '-x, y, -z+1/2'
2 '-x, -y, z+1/2'
3 '-x, y, z'
4 '-x, -y, -z'
5 'x, -y, z+1/2'
6 'x, y, -z+1/2'
7 'x, -y, -z'
8 'x, y, z'
9 '-x+1/2, y+1/2, -z+1/2'
10 '-x+1/2, -y+1/2, z+1/2'
11 '-x+1/2, y+1/2, z'
12 '-x+1/2, -y+1/2, -z'
13 'x+1/2, -y+1/2, z+1/2'
14 'x+1/2, y+1/2, -z+1/2'
15 'x+1/2, -y+1/2, -z'
16 'x+1/2, y+1/2, z'
loop_
_atom_type_symbol
_atom_type_oxidation_number
Na1+ 1
B3+ 3
F1- -1
loop_
_atom_site_label
_atom_site_type_symbol
_atom_site_symmetry_multiplicity
_atom_site_Wyckoff_symbol
_atom_site_fract_x
_atom_site_fract_y
_atom_site_fract_z
_atom_site_B_iso_or_equiv
_atom_site_occupancy
_atom_site_attached_hydrogens
Na1 Na1+ 4 c 0 0.6552(2) 0.25 . 1. 0
B1 B3+ 4 c 0 0.1608(3) 0.25 . 1. 0
F1 F1- 8 f 0 0.2920(2) 0.0846(1) . 1. 0
F2 F1- 8 g 0.1644(1) 0.0312(2) 0.25 . 1. 0
loop_
_atom_site_aniso_label
_atom_site_aniso_type_symbol
_atom_site_aniso_beta_11
_atom_site_aniso_beta_22
_atom_site_aniso_beta_33
_atom_site_aniso_beta_12
_atom_site_aniso_beta_13
_atom_site_aniso_beta_23
Na1 Na1+ 0.0136(2) 0.0121(2) 0.0089(2) 0 0 0
B1 B3+ 0.0085(3) 0.0078(3) 0.0076(3) 0 0 0
F1 F1- 0.0185(3) 0.0137(2) 0.0087(2) 0 0 0.0029(2)
F2 F1- 0.0121(2) 0.0156(3) 0.0201(3) 0.0054(2) 0 0
#End of TTdata_36067-ICSD