
#(C) 2018 by FIZ Karlsruhe - Leibniz Institute for Information Infrastructure.  All rights reserved.
data_36472-ICSD
_database_code_ICSD 36472
_audit_creation_date 1985-06-18
_audit_update_record 2012-08-01
_chemical_name_systematic 'Lithium potassium sulfate(VI)'
_chemical_formula_structural 'Li K (S O4)'
_chemical_formula_sum 'K1 Li1 O4 S1'
_chemical_name_structure_type LiKSO4
_exptl_crystal_density_diffrn 2.34
_cell_measurement_temperature 568.
_publ_section_title
'Crystal structure of K Li S O4 as a function of temperature'
loop_
_citation_id
_citation_journal_full
_citation_year
_citation_journal_volume
_citation_page_first
_citation_page_last
_citation_journal_id_ASTM
primary 'Acta Crystallographica, Section B: Structural Science' 1985 41 21 26
ASBSDK
loop_
_publ_author_name
'Schulz, H.'
'Zucker, U.'
'Frech, R.E.'
_cell_length_a 5.190(3)
_cell_length_b 5.190(3)
_cell_length_c 8.637(4)
_cell_angle_alpha 90.
_cell_angle_beta 90.
_cell_angle_gamma 120.
_cell_volume 201.48
_cell_formula_units_Z 2
_symmetry_space_group_name_H-M 'P 63'
_symmetry_Int_Tables_number 173
_refine_ls_R_factor_all 0.034
loop_
_symmetry_equiv_pos_site_id
_symmetry_equiv_pos_as_xyz
1 'x-y, x, z+1/2'
2 'y, -x+y, z+1/2'
3 '-x, -y, z+1/2'
4 '-x+y, -x, z'
5 '-y, x-y, z'
6 'x, y, z'
loop_
_atom_type_symbol
_atom_type_oxidation_number
K1+ 1
S6+ 6
O2- -2
Li1+ 1
loop_
_atom_site_label
_atom_site_type_symbol
_atom_site_symmetry_multiplicity
_atom_site_Wyckoff_symbol
_atom_site_fract_x
_atom_site_fract_y
_atom_site_fract_z
_atom_site_B_iso_or_equiv
_atom_site_occupancy
_atom_site_attached_hydrogens
K1 K1+ 2 a 0 0 0 . 1. 0
S1 S6+ 2 b 0.3333 0.6667 0.20813(9) . 1. 0
O1 O2- 2 b 0.3333 0.6667 0.0462(9) . 1. 0
O2 O2- 6 c 0.3547 0.9367(8) 0.2667(7) . 1. 0
Li1 Li1+ 2 b 0.6667 0.3333 0.3184(16) . 1. 0
loop_
_atom_site_aniso_label
_atom_site_aniso_type_symbol
_atom_site_aniso_beta_11
_atom_site_aniso_beta_22
_atom_site_aniso_beta_33
_atom_site_aniso_beta_12
_atom_site_aniso_beta_13
_atom_site_aniso_beta_23
K1 K1+ 0.0408(3) 0.0408(3) 0.00979(10) 0.0204(3) 0 0
S1 S6+ 0.0198(2) 0.0198(2) 0.00541(7) 0.0099(2) 0 0
O1 O2- 0.1012(24) 0.1012(24) 0.0060(4) 0.0506(24) 0 0
O2 O2- 0.0152(12) 0.0292(8) 0.0230(4) 0.0165(8) 0.0002(5) -.0109(8)
Li1 Li1+ 0.0344(22) 0.0344(22) 0.0074(8) 0.0172(22) 0 0
#End of TTdata_36472-ICSD