
#(C) 2019 by FIZ Karlsruhe - Leibniz Institute for Information Infrastructure.  All rights reserved.
data_36533-ICSD
_database_code_ICSD 36533
_audit_creation_date 1992-08-20
_audit_update_record 2012-02-01
_chemical_name_systematic 'Dicesium sodium arsenate(V)'
_chemical_formula_structural 'Cs2 Na (As O4)'
_chemical_formula_sum 'As1 Cs2 Na1 O4'
_chemical_name_structure_type Cs2NaAsO4
_exptl_crystal_density_diffrn 4.61
_publ_section_title 'Das erste quaternaere Alkalioxoarsenat(V): Cs2 Na (As O4)'
loop_
_citation_id
_citation_journal_full
_citation_year
_citation_journal_volume
_citation_page_first
_citation_page_last
_citation_journal_id_ASTM
primary 'Zeitschrift fuer Anorganische und Allgemeine Chemie (1950) (DE)' 1991
605 67 74 ZAACAB
loop_
_publ_author_name
'Schneidersmann, C.'
'Hoppe, R.'
_cell_length_a 8.275(2)
_cell_length_b 6.157(2)
_cell_length_c 6.056(2)
_cell_angle_alpha 90.
_cell_angle_beta 91.98(2)
_cell_angle_gamma 90.
_cell_volume 308.36
_cell_formula_units_Z 2
_symmetry_space_group_name_H-M 'P 1 21/m 1'
_symmetry_Int_Tables_number 11
_refine_ls_R_factor_all 0.044
loop_
_symmetry_equiv_pos_site_id
_symmetry_equiv_pos_as_xyz
1 'x, -y+1/2, z'
2 '-x, -y, -z'
3 '-x, y+1/2, -z'
4 'x, y, z'
loop_
_atom_type_symbol
_atom_type_oxidation_number
Cs1+ 1
As5+ 5
Na1+ 1
O2- -2
loop_
_atom_site_label
_atom_site_type_symbol
_atom_site_symmetry_multiplicity
_atom_site_Wyckoff_symbol
_atom_site_fract_x
_atom_site_fract_y
_atom_site_fract_z
_atom_site_B_iso_or_equiv
_atom_site_occupancy
_atom_site_attached_hydrogens
Cs1 Cs1+ 2 e 0.5040(1) 0.75 0.2973(1) . 1. 0
Cs2 Cs1+ 2 e 0.1905(1) 0.25 0.1673(1) . 1. 0
As1 As5+ 2 e 0.2398(1) 0.75 0.7843(2) . 1. 0
Na1 Na1+ 2 e 0.0186(6) 0.75 0.3542(8) . 1. 0
O1 O2- 2 e 0.1692(11) 0.75 0.0401(15) . 1. 0
O2 O2- 2 e 0.4426(9) 0.75 0.7969(13) . 1. 0
O3 O2- 4 f 0.1693(8) 0.5300(9) 0.6414(11) . 1. 0
loop_
_atom_site_aniso_label
_atom_site_aniso_type_symbol
_atom_site_aniso_U_11
_atom_site_aniso_U_22
_atom_site_aniso_U_33
_atom_site_aniso_U_12
_atom_site_aniso_U_13
_atom_site_aniso_U_23
Cs1 Cs1+ 0.0175(3) 0.0147(3) 0.0159(3) 0 -.0007(2) 0
Cs2 Cs1+ 0.0136(3) 0.0192(4) 0.0292(4) 0 0.0010(3) 0
As1 As5+ 0.0080(4) 0.0082(4) 0.0123(5) 0 -.0002(3) 0
Na1 Na1+ 0.0124(21) 0.0201(23) 0.0177(23) 0 0.0017(17) 0
O1 O2- 0.0186(42) 0.0311(48) 0.0172(41) 0 0.0064(32) 0
O2 O2- 0.0071(32) 0.0208(38) 0.0188(41) 0 -.0006(28) 0
O3 O2- 0.0244(32) 0.0140(26) 0.0284(35) -.0038(23) -.0064(26) -.0056(24)
#End of TTdata_36533-ICSD