
#(C) 2017 by FIZ Karlsruhe - Leibniz Institute for Information Infrastructure.  All rights reserved.
data_36599-ICSD
_database_code_ICSD 36599
_audit_creation_date 1993-01-06
_chemical_name_systematic 'Lithium tetraiodoindate'
_chemical_formula_structural 'Li In I4'
_chemical_formula_sum 'I4 In1 Li1'
_chemical_name_structure_type LiAlCl4
_exptl_crystal_density_diffrn 4.35
_publ_section_title

;
Synthese und Kristallstrukturen der Alkali-Tetraiodoindate(III), AInI4 (A =
Li, K, Rb, Cs)
;
loop_
_citation_id
_citation_journal_full
_citation_year
_citation_journal_volume
_citation_page_first
_citation_page_last
_citation_journal_id_ASTM
primary 'Zeitschrift fuer Anorganische und Allgemeine Chemie (1950) (DE)' 1991
602 31 37 ZAACAB
loop_
_publ_author_name
'Burnus, R.'
'Meyer, G.'
_cell_length_a 8.389(4)
_cell_length_b 7.512(3)
_cell_length_c 15.267(8)
_cell_angle_alpha 90.
_cell_angle_beta 92.67(4)
_cell_angle_gamma 90.
_cell_volume 961.05
_cell_formula_units_Z 4
_symmetry_space_group_name_H-M 'P 1 21/c 1'
_symmetry_Int_Tables_number 14
_refine_ls_R_factor_all 0.045
loop_
_symmetry_equiv_pos_site_id
_symmetry_equiv_pos_as_xyz
1 'x, -y+1/2, z+1/2'
2 '-x, -y, -z'
3 '-x, y+1/2, -z+1/2'
4 'x, y, z'
loop_
_atom_type_symbol
_atom_type_oxidation_number
Li1+ 1
In3+ 3
I1- -1
loop_
_atom_site_label
_atom_site_type_symbol
_atom_site_symmetry_multiplicity
_atom_site_Wyckoff_symbol
_atom_site_fract_x
_atom_site_fract_y
_atom_site_fract_z
_atom_site_B_iso_or_equiv
_atom_site_occupancy
_atom_site_attached_hydrogens
Li1 Li1+ 4 e 0.8530(18) 0.9907(22) 0.6276(11) . 1. 0
In1 In3+ 4 e 0.69834(9) 0.8229(1) 0.40015(5) . 1. 0
I1 I1- 4 e 0.68267(9) 0.6709(1) 0.56065(5) . 1. 0
I2 I1- 4 e 0.18474(9) 0.8409(1) 0.56514(5) . 1. 0
I3 I1- 4 e 0.94294(9) 0.6680(1) 0.31346(5) . 1. 0
I4 I1- 4 e 0.42249(9) 0.8110(1) 0.30023(5) . 1. 0
loop_
_atom_site_aniso_label
_atom_site_aniso_type_symbol
_atom_site_aniso_U_11
_atom_site_aniso_U_22
_atom_site_aniso_U_33
_atom_site_aniso_U_12
_atom_site_aniso_U_13
_atom_site_aniso_U_23
Li1 Li1+ 0.0272(76) 0.0424(94) 0.0394(93) -.0095(71) 0.0073(66) -.0164(79)
In1 In3+ 0.0375(4) 0.0449(4) 0.0405(4) -.0019(3) 0.0011(3) -.0009(4)
I1 I1- 0.0594(4) 0.0606(5) 0.0466(4) -.0085(4) 0.0024(3) 0.0106(4)
I2 I1- 0.0519(4) 0.0402(4) 0.0573(5) -.0017(3) -.0055(3) -.0003(4)
I3 I1- 0.0432(4) 0.0577(5) 0.0561(5) 0.0013(4) 0.0061(3) -.0106(4)
I4 I1- 0.0431(4) 0.0556(5) 0.0507(4) -.0022(4) -.0067(3) -.0045(4)
#End of TTdata_36599-ICSD