
#(C) 2019 by FIZ Karlsruhe - Leibniz Institute for Information Infrastructure.  All rights reserved.
data_36612-ICSD
_database_code_ICSD 36612
_audit_creation_date 1993-01-06
_chemical_name_systematic 'Dipotassium tetrasodium catena-ferrate(III)'
_chemical_formula_structural 'K2 Na4 ((Fe O3)2)'
_chemical_formula_sum 'Fe2 K2 Na4 O6'
_chemical_name_structure_type K2Na4(GaO3)2
_exptl_crystal_density_diffrn 3.05
_publ_section_title 'Ein neues Inoferrat(III): K2Na4((FeO3)2)'
loop_
_citation_id
_citation_journal_full
_citation_year
_citation_journal_volume
_citation_page_first
_citation_page_last
_citation_journal_id_ASTM
primary 'Zeitschrift fuer Anorganische und Allgemeine Chemie (1950) (DE)' 1991
602 155 167 ZAACAB
loop_
_publ_author_name
'Mader, K.'
'Hoppe, R.'
_cell_length_a 6.5050(6)
_cell_length_b 6.1962(5)
_cell_length_c 10.2064(12)
_cell_angle_alpha 90.
_cell_angle_beta 90.
_cell_angle_gamma 90.
_cell_volume 411.38
_cell_formula_units_Z 2
_symmetry_space_group_name_H-M 'P n m a'
_symmetry_Int_Tables_number 62
_refine_ls_R_factor_all 0.0456
loop_
_symmetry_equiv_pos_site_id
_symmetry_equiv_pos_as_xyz
1 'x+1/2, y, -z+1/2'
2 'x, -y+1/2, z'
3 '-x+1/2, y+1/2, z+1/2'
4 '-x, -y, -z'
5 '-x+1/2, -y, z+1/2'
6 '-x, y+1/2, -z'
7 'x+1/2, -y+1/2, -z+1/2'
8 'x, y, z'
loop_
_atom_type_symbol
_atom_type_oxidation_number
Fe3+ 3
K1+ 1
Na1+ 1
O2- -2
loop_
_atom_site_label
_atom_site_type_symbol
_atom_site_symmetry_multiplicity
_atom_site_Wyckoff_symbol
_atom_site_fract_x
_atom_site_fract_y
_atom_site_fract_z
_atom_site_B_iso_or_equiv
_atom_site_occupancy
_atom_site_attached_hydrogens
Fe1 Fe3+ 4 c 0.8307(1) 0.25 0.9924(1) . 1. 0
K1 K1+ 4 c 0.3383(2) 0.25 0.9742(2) . 1. 0
Na1 Na1+ 8 d 0.9931(3) 0.0063(3) 0.2315(1) . 1. 0
O1 O2- 4 c 0.1698(7) 0.25 0.3594(4) . 1. 0
O2 O2- 4 a 0 0 0 . 1. 0
O3 O2- 4 c 0.7080(6) 0.25 0.8303(4) . 1. 0
loop_
_atom_site_aniso_label
_atom_site_aniso_type_symbol
_atom_site_aniso_U_11
_atom_site_aniso_U_22
_atom_site_aniso_U_33
_atom_site_aniso_U_12
_atom_site_aniso_U_13
_atom_site_aniso_U_23
Fe1 Fe3+ 0.0078(3) 0.0056(2) 0.0067(2) 0 0.0006(2) 0
K1 K1+ 0.0135(5) 0.0281(6) 0.0462(8) 0 0.0004(5) 0
Na1 Na1+ 0.0273(8) 0.0192(7) 0.0121(6) -.0067(6) -.0002(6) -.0005(5)
O1 O2- 0.0262(20) 0.0234(19) 0.0176(17) 0 -.0131(16) 0
O2 O2- 0.0177(15) 0.0135(15) 0.0129(13) 0.0071(13) -.0006(12) 0.0015(12)
O3 O2- 0.0173(16) 0.0202(17) 0.0148(15) 0 -.0079(13) 0
#End of TTdata_36612-ICSD