
#(C) 2018 by FIZ Karlsruhe - Leibniz Institute for Information Infrastructure.  All rights reserved.
data_36617-ICSD
_database_code_ICSD 36617
_audit_creation_date 1993-01-06
_chemical_name_systematic
'Barium nickel lithium nickel nitride (2/0.57/0.43/2/2)'
_chemical_formula_structural 'Ba2 (Ni0.57 Li0.43) Ni2 N2'
_chemical_formula_sum 'Ba2 Li0.43 N2 Ni2.57'
_exptl_crystal_density_diffrn 5.5
_publ_section_title

;
Ba2(Ni1-xLix)Ni2N2: Ein niedervalentes Nitridoniccolat mit gewellten Schichten
(NiN2/2) (Ni1-xLix) - (NiN2/2)
;
loop_
_citation_id
_citation_journal_full
_citation_year
_citation_journal_volume
_citation_page_first
_citation_page_last
_citation_journal_id_ASTM
primary 'Zeitschrift fuer Anorganische und Allgemeine Chemie (1950) (DE)' 1992
607 8 12 ZAACAB
loop_
_publ_author_name
'Gudat, A.'
'Kniep, R.'
'Rabenau, A.'
_cell_length_a 7.133(2)
_cell_length_b 10.274(7)
_cell_length_c 7.522(4)
_cell_angle_alpha 90.
_cell_angle_beta 90.
_cell_angle_gamma 90.
_cell_volume 551.25
_cell_formula_units_Z 4
_symmetry_space_group_name_H-M 'C m c a'
_symmetry_Int_Tables_number 64
_refine_ls_R_factor_all 0.035
loop_
_symmetry_equiv_pos_site_id
_symmetry_equiv_pos_as_xyz
1 '-x, -y+1/2, z+1/2'
2 '-x, y+1/2, -z+1/2'
3 '-x, y, z'
4 '-x, -y, -z'
5 'x, y+1/2, -z+1/2'
6 'x, -y+1/2, z+1/2'
7 'x, -y, -z'
8 'x, y, z'
9 '-x+1/2, -y, z+1/2'
10 '-x+1/2, y, -z+1/2'
11 '-x+1/2, y+1/2, z'
12 '-x+1/2, -y+1/2, -z'
13 'x+1/2, y, -z+1/2'
14 'x+1/2, -y, z+1/2'
15 'x+1/2, -y+1/2, -z'
16 'x+1/2, y+1/2, z'
loop_
_atom_type_symbol
_atom_type_oxidation_number
Ba2+ 2
Ni0+ 0.5
Ni1+ 1
Li1+ 1
N3- -3
loop_
_atom_site_label
_atom_site_type_symbol
_atom_site_symmetry_multiplicity
_atom_site_Wyckoff_symbol
_atom_site_fract_x
_atom_site_fract_y
_atom_site_fract_z
_atom_site_B_iso_or_equiv
_atom_site_occupancy
_atom_site_attached_hydrogens
Ba1 Ba2+ 8 f 0 0.1667(1) 0.4082(1) . 1. 0
Ni1 Ni0+ 8 e 0.25 0.4214(2) 0.25 . 1. 0
Ni2 Ni1+ 4 a 0 0 0 . 0.57(1) 0
Li1 Li1+ 4 a 0 0 0 . 0.43(1) 0
N1 N3- 8 f 0 0.4236(10) 0.2634(16) 0.0125(21) 1. 0
loop_
_atom_site_aniso_label
_atom_site_aniso_type_symbol
_atom_site_aniso_U_11
_atom_site_aniso_U_22
_atom_site_aniso_U_33
_atom_site_aniso_U_12
_atom_site_aniso_U_13
_atom_site_aniso_U_23
Ba1 Ba2+ 0.0170(4) 0.0151(4) 0.0165(4) 0 0 0.0011(4)
Ni1 Ni0+ 0.0088(7) 0.0195(9) 0.0157(8) 0 0.0000(2) 0
Ni2 Ni1+ 0.0459(31) 0.0222(26) 0.0101(23) 0 0 0.0005(2)
Li1 Li1+ 0.0459(31) 0.0222(26) 0.0101(23) 0 0 0.0005(2)
#End of TTdata_36617-ICSD