
#(C) 2019 by FIZ Karlsruhe - Leibniz Institute for Information Infrastructure.  All rights reserved.
data_36652-ICSD
_database_code_ICSD 36652
_audit_creation_date 1993-01-06
_chemical_name_systematic 'Sodium gallium oxide'
_chemical_formula_structural 'Na Ga O2'
_chemical_formula_sum 'Ga1 Na1 O2'
_chemical_name_structure_type NaFeO2(beta)
_exptl_crystal_density_diffrn 3.95
_publ_section_title 'Zur Kristallstruktur von KGaO2 und NaGaO2(II)'
loop_
_citation_id
_citation_journal_full
_citation_year
_citation_journal_volume
_citation_page_first
_citation_page_last
_citation_journal_id_ASTM
primary 'Zeitschrift fuer Anorganische und Allgemeine Chemie (1950) (DE)' 1992
611 73 80 ZAACAB
loop_
_publ_author_name
'Mueller, H.'
'Hoppe, R.'
_cell_length_a 5.498(1)
_cell_length_b 7.206(1)
_cell_length_c 5.298(1)
_cell_angle_alpha 90.
_cell_angle_beta 90.
_cell_angle_gamma 90.
_cell_volume 209.9
_cell_formula_units_Z 4
_symmetry_space_group_name_H-M 'P n a 21'
_symmetry_Int_Tables_number 33
_refine_ls_R_factor_all 0.0406
loop_
_symmetry_equiv_pos_site_id
_symmetry_equiv_pos_as_xyz
1 'x+1/2, -y+1/2, z'
2 '-x+1/2, y+1/2, z+1/2'
3 '-x, -y, z+1/2'
4 'x, y, z'
loop_
_atom_type_symbol
_atom_type_oxidation_number
Na1+ 1
Ga3+ 3
O2- -2
loop_
_atom_site_label
_atom_site_type_symbol
_atom_site_symmetry_multiplicity
_atom_site_Wyckoff_symbol
_atom_site_fract_x
_atom_site_fract_y
_atom_site_fract_z
_atom_site_B_iso_or_equiv
_atom_site_occupancy
_atom_site_attached_hydrogens
Na1 Na1+ 4 a 0.5659(5) 0.8769(5) 0.0111(27) . 1. 0
Ga1 Ga3+ 4 a 0.0633(1) 0.1260(1) 0 . 1. 0
O1 O2- 4 a 0.3847(9) 0.1649(7) 0.0800(12) . 1. 0
O2 O2- 4 a 0.9636(10) 0.9136(7) 0.1584(12) . 1. 0
loop_
_atom_site_aniso_label
_atom_site_aniso_type_symbol
_atom_site_aniso_U_11
_atom_site_aniso_U_22
_atom_site_aniso_U_33
_atom_site_aniso_U_12
_atom_site_aniso_U_13
_atom_site_aniso_U_23
Na1 Na1+ 0.0142(12) 0.0109(11) 0.0247(23) 0.0008(12) -.0103(23) -.0016(25)
Ga1 Ga3+ 0.0036(3) 0.0051(3) 0.0065(3) 0.0000(3) -.0029(6) -.0007(6)
O1 O2- 0.0022(19) 0.0063(22) 0.0129(21) -.0006(17) -.0052(16) 0.0025(16)
O2 O2- 0.0099(24) 0.0070(23) 0.0066(21) -.0032(18) -.0050(18) -.0004(16)
#End of TTdata_36652-ICSD