
#(C) 2019 by FIZ Karlsruhe - Leibniz Institute for Information Infrastructure.  All rights reserved.
data_37012-ICSD
_database_code_ICSD 37012
_audit_creation_date 1983-12-31
_chemical_name_systematic 'Sodium tetrathiocobaltate(II)'
_chemical_formula_structural 'Na6 Co S4'
_chemical_formula_sum 'Co1 Na6 S4'
_chemical_name_structure_type K6HgS4
_exptl_crystal_density_diffrn 2.28
_publ_section_title 'Na6 Co S4 - ein Thiocobaltat mit isolierten Co S4-Anionen'
loop_
_citation_id
_citation_journal_full
_citation_year
_citation_journal_volume
_citation_page_first
_citation_page_last
_citation_journal_id_ASTM
primary

;
Zeitschrift fuer Naturforschung, Teil B: Anorganische Chemie, Organische
Chemie
; 1983 38 12 15 ZNBAD2
loop_
_publ_author_name
'Klepp, K.O.'
'Bronger, W.'
_cell_length_a 8.909(2)
_cell_length_b 8.909(2)
_cell_length_c 6.878(2)
_cell_angle_alpha 90.
_cell_angle_beta 90.
_cell_angle_gamma 120.
_cell_volume 472.77
_cell_formula_units_Z 2
_symmetry_space_group_name_H-M 'P 63 m c'
_symmetry_Int_Tables_number 186
_refine_ls_R_factor_all 0.02
loop_
_symmetry_equiv_pos_site_id
_symmetry_equiv_pos_as_xyz
1 '-x, -x+y, z+1/2'
2 'x-y, -y, z+1/2'
3 'y, x, z+1/2'
4 'x-y, x, z+1/2'
5 'y, -x+y, z+1/2'
6 '-x, -y, z+1/2'
7 'x, x-y, z'
8 '-x+y, y, z'
9 '-y, -x, z'
10 '-x+y, -x, z'
11 '-y, x-y, z'
12 'x, y, z'
loop_
_atom_type_symbol
_atom_type_oxidation_number
Na1+ 1
Co2+ 2
S2- -2
loop_
_atom_site_label
_atom_site_type_symbol
_atom_site_symmetry_multiplicity
_atom_site_Wyckoff_symbol
_atom_site_fract_x
_atom_site_fract_y
_atom_site_fract_z
_atom_site_B_iso_or_equiv
_atom_site_occupancy
_atom_site_attached_hydrogens
Na1 Na1+ 6 c 0.1470(2) -.1470(2) 0.5399(3) . 1. 0
Na2 Na1+ 6 c 0.5315(2) -.5315(2) 0.3662(5) . 1. 0
Co1 Co2+ 2 b 0.3333 0.6667 0.25 . 1. 0
S1 S2- 2 b 0.3333 0.6667 0.5902(5) . 1. 0
S2 S2- 6 c 0.1888(1) -.1888(1) 0.1433(3) . 1. 0
loop_
_atom_site_aniso_label
_atom_site_aniso_type_symbol
_atom_site_aniso_U_11
_atom_site_aniso_U_22
_atom_site_aniso_U_33
_atom_site_aniso_U_12
_atom_site_aniso_U_13
_atom_site_aniso_U_23
Na1 Na1+ 0.0170(7) 0.0170(7) 0.026(2) 0.0017(5) 0.0007(4) -.0007(4)
Na2 Na1+ 0.0240(6) 0.0240(6) 0.0200(1) 0.0057(4) -.0004(4) 0.0004(4)
Co1 Co2+ 0.0107(4) 0.0107(4) 0.0131(7) 0.0054(2) 0 0
S1 S2- 0.0134(8) 0.0134(8) 0.011(1) 0.0067(4) 0 0
S2 S2- 0.0139(3) 0.0139(3) 0.0164(7) 0.0042(2) -.0006(3) 0.0006(3)
#End of TTdata_37012-ICSD