
#(C) 2019 by FIZ Karlsruhe - Leibniz Institute for Information Infrastructure.  All rights reserved.
data_37080-ICSD
_database_code_ICSD 37080
_audit_creation_date 1983-12-31
_chemical_name_systematic
'Sodium di-mue-selenido-tetraelenidodigermanate 16-hydrate'
_chemical_formula_structural 'Na4 (Ge2 Se6) (H2 O)16'
_chemical_formula_sum 'H32 Ge2 Na4 O16 Se6'
_exptl_crystal_density_diffrn 2.33
_publ_section_title

;
Selenogermante aus waessriger Loesung: Darstellung und Struktur von Na4 Ge2
Se6 (H2 O)16
;
loop_
_citation_id
_citation_journal_full
_citation_year
_citation_journal_volume
_citation_page_first
_citation_page_last
_citation_journal_id_ASTM
primary 'Zeitschrift fuer Anorganische und Allgemeine Chemie (1950) (DE)' 1983
496 47 57 ZAACAB
loop_
_publ_author_name
'Krebs, B.'
'Mueller, H.'
_cell_length_a 9.894(4)
_cell_length_b 11.781(5)
_cell_length_c 12.225(6)
_cell_angle_alpha 90.
_cell_angle_beta 92.90(4)
_cell_angle_gamma 90.
_cell_volume 1423.14
_cell_formula_units_Z 2
_symmetry_space_group_name_H-M 'P 1 21/c 1'
_symmetry_Int_Tables_number 14
_refine_ls_R_factor_all 0.063
loop_
_symmetry_equiv_pos_site_id
_symmetry_equiv_pos_as_xyz
1 'x, -y+1/2, z+1/2'
2 '-x, -y, -z'
3 '-x, y+1/2, -z+1/2'
4 'x, y, z'
loop_
_atom_type_symbol
_atom_type_oxidation_number
Ge4+ 4
Se2- -2
Na1+ 1
O2- -2
H1+ 1
loop_
_atom_site_label
_atom_site_type_symbol
_atom_site_symmetry_multiplicity
_atom_site_Wyckoff_symbol
_atom_site_fract_x
_atom_site_fract_y
_atom_site_fract_z
_atom_site_B_iso_or_equiv
_atom_site_occupancy
_atom_site_attached_hydrogens
Ge1 Ge4+ 4 e 0.11468(13) 0.40325(10) 0.48461(9) . 1. 0
Se1 Se2- 4 e -.01460(13) 0.45703(10) 0.63918(9) . 1. 0
Se2 Se2- 4 e 0.06900(14) 0.22129(10) 0.42452(10) . 1. 0
Se3 Se2- 4 e 0.34106(12) 0.44046(10) 0.52383(9) . 1. 0
Na1 Na1+ 4 e 0.5667(5) 0.1563(4) 0.3494(4) . 1. 0
Na2 Na1+ 4 e 0.6427(5) 0.3529(4) 0.1788(4) . 1. 0
O1 O2- 4 e 0.7369(10) 0.3013(7) 0.3650(7) . 1. 0
O2 O2- 4 e 0.3518(9) 0.0611(7) 0.2999(7) . 1. 0
O3 O2- 4 e 0.4751(9) 0.3343(7) 0.0263(6) . 1. 0
O4 O2- 4 e 0.6639(10) 0.1487(7) 0.1734(7) . 1. 0
O5 O2- 4 e 0.4503(9) 0.3306(7) 0.2871(6) . 1. 0
O6 O2- 4 e 0.8568(10) 0.3917(8) 0.1074(8) . 1. 0
O7 O2- 4 e 0.7109(10) 0.0112(7) 0.4222(7) . 1. 0
O8 O2- 4 e 0.181(1) 0.3286(8) 0.1901(7) . 1. 0
H1 H1+ 4 e 0.735 0.368 0.399 4. 1. 0
H2 H1+ 4 e 0.824 0.275 0.397 4. 1. 0
H3 H1+ 4 e 0.364 0.069 0.234 4. 1. 0
H4 H1+ 4 e 0.268 0.098 0.335 4. 1. 0
H5 H1+ 4 e 0.409 0.395 0.031 4. 1. 0
H6 H1+ 4 e 0.431 0.264 0.029 4. 1. 0
H7 H1+ 4 e 0.618 0.101 0.121 4. 1. 0
H8 H1+ 4 e 0.752 0.119 0.171 4. 1. 0
H9 H1+ 4 e 0.434 0.389 0.34 4. 1. 0
H10 H1+ 4 e 0.37 0.323 0.249 4. 1. 0
H11 H1+ 4 e 0.91 0.335 0.094 4. 1. 0
H12 H1+ 4 e 0.918 0.445 0.149 4. 1. 0
H13 H1+ 4 e 0.765 -.034 0.366 4. 1. 0
H14 H1+ 4 e 0.768 0.045 0.474 4. 1. 0
H15 H1+ 4 e 0.168 0.302 0.109 4. 1. 0
H16 H1+ 4 e 0.111 0.305 0.239 4. 1. 0
loop_
_atom_site_aniso_label
_atom_site_aniso_type_symbol
_atom_site_aniso_B_11
_atom_site_aniso_B_22
_atom_site_aniso_B_33
_atom_site_aniso_B_12
_atom_site_aniso_B_13
_atom_site_aniso_B_23
Ge1 Ge4+ 1.11(6) 1.63(5) 1.73(5) 0.03(4) 0.05(4) 0.17(4)
Se1 Se2- 1.69(6) 2.23(5) 1.64(4) 0.36(4) 0.24(4) 0.38(4)
Se2 Se2- 2.01(7) 1.78(5) 2.62(5) -.21(4) 0.20(4) -.20(4)
Se3 Se2- 0.91(5) 2.49(5) 2.24(5) 0.10(4) -.16(4) -.18(4)
Na1 Na1+ 2.3(3) 2.4(2) 2.5(2) -.2(2) 0.2(2) -.4(2)
Na2 Na1+ 2.3(3) 2.5(2) 2.7(2) 0.0(2) 0.1(2) 0.2(2)
O1 O2- 2.8(5) 2.8(4) 4.0(5) 0.2(4) -.9(4) -.8(4)
O2 O2- 2.4(5) 2.8(4) 3.1(4) 0.3(3) -.2(3) 0.3(3)
O3 O2- 2.4(5) 2.7(4) 2.6(4) -.2(3) 0.1(3) 0.1(3)
O4 O2- 2.8(5) 2.7(4) 3.0(4) -.9(4) -.1(4) 0.7(3)
O5 O2- 2.0(5) 3.5(4) 2.4(4) 0.4(3) 0.1(3) -.4(3)
O6 O2- 1.7(5) 4.5(4) 4.6(5) 0.8(4) -.4(4) -1.
O7 O2- 2.9(5) 2.7(4) 3.6(4) -.7(4) -.1(4) 0.6(4)
O8 O2- 3.5(6) 3.8(5) 3.0(4) -.9(4) 0.9(4) -.3(4)
#End of TTdata_37080-ICSD