
#(C) 2019 by FIZ Karlsruhe - Leibniz Institute for Information Infrastructure.  All rights reserved.
data_37108-ICSD
_database_code_ICSD 37108
_audit_creation_date 1980-01-01
_audit_update_record 1989-08-10
_chemical_name_systematic 'Sodium chromium tetrafluoride'
_chemical_formula_structural 'Na Cr F4'
_chemical_formula_sum 'Cr1 F4 Na1'
_chemical_name_structure_type NdTaO4
_exptl_crystal_density_diffrn 3.3
_publ_section_title
'Crystal Structure of Sodium Chromium Tetrafluoride Na Cr F4'
loop_
_citation_id
_citation_journal_full
_citation_year
_citation_journal_volume
_citation_page_first
_citation_page_last
_citation_journal_id_ASTM
primary 'Journal of Chemical Research, Synopses' 1979 1979 213 213 JRPSDC
loop_
_publ_author_name
'Knoke, G.'
'Verscharen, W.'
'Babel, D.'
_cell_length_a 7.862(2)
_cell_length_b 5.328(2)
_cell_length_c 7.406(2)
_cell_angle_alpha 90.
_cell_angle_beta 101.65(4)
_cell_angle_gamma 90.
_cell_volume 303.84
_cell_formula_units_Z 4
_symmetry_space_group_name_H-M 'P 1 21/c 1'
_symmetry_Int_Tables_number 14
_refine_ls_R_factor_all 0.038
loop_
_symmetry_equiv_pos_site_id
_symmetry_equiv_pos_as_xyz
1 'x, -y+1/2, z+1/2'
2 '-x, -y, -z'
3 '-x, y+1/2, -z+1/2'
4 'x, y, z'
loop_
_atom_type_symbol
_atom_type_oxidation_number
Na1+ 1
Cr3+ 3
F1- -1
loop_
_atom_site_label
_atom_site_type_symbol
_atom_site_symmetry_multiplicity
_atom_site_Wyckoff_symbol
_atom_site_fract_x
_atom_site_fract_y
_atom_site_fract_z
_atom_site_B_iso_or_equiv
_atom_site_occupancy
_atom_site_attached_hydrogens
Na1 Na1+ 4 e 0.36865(21) 0.77844(26) 0.10752(29) . 1. 0
Cr1 Cr3+ 4 e 0.16995(5) 0.25582(7) 0.29710(8) . 1. 0
F1 F1- 4 e 0.16857(28) 0.15037(35) 0.04663(35) . 1. 0
F2 F1- 4 e 0.03393(27) 0.55191(35) 0.20960(36) . 1. 0
F3 F1- 4 e 0.36655(28) 0.45929(36) 0.31243(37) . 1. 0
F4 F1- 4 e 0.3139(3) 0.98407(37) 0.37061(39) . 1. 0
loop_
_atom_site_aniso_label
_atom_site_aniso_type_symbol
_atom_site_aniso_B_11
_atom_site_aniso_B_22
_atom_site_aniso_B_33
_atom_site_aniso_B_12
_atom_site_aniso_B_13
_atom_site_aniso_B_23
Na1 Na1+ 1.49(21) 1.21(16) 1.29(32) -.23(12) 0.23(16) -.18(14)
Cr1 Cr3+ 0.48(8) 0.42(4) 0.23(11) 0.00(3) 0.08(5) 0.00(3)
F1 F1- 1.24(40) 1.30(19) 0.47(35) 0.12(17) 0.33(20) 0.16(18)
F2 F1- 1.16(39) 1.12(19) 1.10(34) 0.58(16) 0.58(20) 0.18(18)
F3 F1- 1.19(41) 1.14(19) 1.16(38) -.28(16) 0.22(21) 0.13(19)
F4 F1- 1.41(44) 1.14(20) 1.50(42) 0.68(17) 0.18(24) 0.26(20)
#End of TTdata_37108-ICSD