
#(C) 2019 by FIZ Karlsruhe - Leibniz Institute for Information Infrastructure.  All rights reserved.
data_37306-ICSD
_database_code_ICSD 37306
_audit_creation_date 1984-12-11
_audit_update_record 1999-06-02
_chemical_name_systematic 'Silver sodium tecto-alumosilicate *'
_chemical_formula_structural 'Ag2.97 Na7.66 Al12 Si12 O48'
_chemical_formula_sum 'Ag2.97 Al12 Na7.66 O48 Si12'
_chemical_name_structure_type Zeolite-A-frame
_chemical_name_mineral 'Zeolite A (Ag-exchanged)'
_exptl_crystal_density_diffrn 1.75
_cell_measurement_temperature 653.
_publ_section_title

;
Cation location in the zeolites Mg Ag Na - A, Ca Ag Na - A, Ba Ag Na - A, Zn
Ag Na - A and Ag Na - A at 293 and 653 K
;
loop_
_citation_id
_citation_journal_full
_citation_year
_citation_journal_volume
_citation_page_first
_citation_page_last
_citation_journal_id_ASTM
primary Zeolites 1983 3 149 154 ZEOLD3
loop_
_publ_author_name
'Schoellner, R.'
'Gellens, L.R.'
'Mortier, W.J.'
'Uytterhoeven, J.B.'
_cell_length_a 12.234(2)
_cell_length_b 12.234
_cell_length_c 12.234
_cell_angle_alpha 90.
_cell_angle_beta 90.
_cell_angle_gamma 90.
_cell_volume 1831.07
_cell_formula_units_Z 1
_symmetry_space_group_name_H-M 'P m -3 m'
_symmetry_Int_Tables_number 221
_refine_ls_R_factor_all 0.08
loop_
_symmetry_equiv_pos_site_id
_symmetry_equiv_pos_as_xyz
1 'z, y, -x'
2 'y, x, -z'
3 'x, z, -y'
4 'z, x, -y'
5 'y, z, -x'
6 'x, y, -z'
7 'z, -y, x'
8 'y, -x, z'
9 'x, -z, y'
10 'z, -x, y'
11 'y, -z, x'
12 'x, -y, z'
13 '-z, y, x'
14 '-y, x, z'
15 '-x, z, y'
16 '-z, x, y'
17 '-y, z, x'
18 '-x, y, z'
19 '-z, -y, -x'
20 '-y, -x, -z'
21 '-x, -z, -y'
22 '-z, -x, -y'
23 '-y, -z, -x'
24 '-x, -y, -z'
25 '-z, -y, x'
26 '-y, -x, z'
27 '-x, -z, y'
28 '-z, -x, y'
29 '-y, -z, x'
30 '-x, -y, z'
31 '-z, y, -x'
32 '-y, x, -z'
33 '-x, z, -y'
34 '-z, x, -y'
35 '-y, z, -x'
36 '-x, y, -z'
37 'z, -y, -x'
38 'y, -x, -z'
39 'x, -z, -y'
40 'z, -x, -y'
41 'y, -z, -x'
42 'x, -y, -z'
43 'z, y, x'
44 'y, x, z'
45 'x, z, y'
46 'z, x, y'
47 'y, z, x'
48 'x, y, z'
loop_
_atom_type_symbol
_atom_type_oxidation_number
Si4+ 4
Al3+ 3
O2- -2
Ag1+ 1
Na1+ 1
loop_
_atom_site_label
_atom_site_type_symbol
_atom_site_symmetry_multiplicity
_atom_site_Wyckoff_symbol
_atom_site_fract_x
_atom_site_fract_y
_atom_site_fract_z
_atom_site_B_iso_or_equiv
_atom_site_occupancy
_atom_site_attached_hydrogens
Si1 Si4+ 24 k 0.1834(9) 0.3712(8) 0 1.95(17) 0.5 0
Al1 Al3+ 24 k 0.1834(9) 0.3712(8) 0 1.95(17) 0.5 0
O1 O2- 12 h 0.2169(23) 0.5 0 4.33(86) 1. 0
O2 O2- 12 i 0.2938(16) 0.2938 0 3.14(74) 1. 0
O3 O2- 24 m 0.1112(11) 0.1112 0.3364(17) 4.03(54) 1. 0
Ag1 Ag1+ 8 g 0.1863 0.1863 0.1863 3.19(55) 0.371(12) 0
Na1 Na1+ 8 g 0.2202(14) 0.2202 0.2202 2.(1) 0.697(50) 0
Na2 Na1+ 12 i 0.4346(50) 0.4346 0 3.(4) 0.174(29) 0
#End of TTdata_37306-ICSD