
#(C) 2019 by FIZ Karlsruhe - Leibniz Institute for Information Infrastructure.  All rights reserved.
data_380309-ICSD
_database_code_ICSD 380309
_audit_creation_date 2010-02-01
_chemical_name_systematic
'Neodymium potassium sodium niobium oxide (4/2/2/2/13)'
_chemical_formula_structural 'Nd4 K2 Na2 Nb2 O13'
_chemical_formula_sum 'K2 Na2 Nb2 Nd4 O13'
_chemical_name_structure_type K2Na2Gd4Nb2O13
_exptl_crystal_density_diffrn 5.16
_cell_measurement_temperature 294.
_publ_section_title

;
Crystal growth, structural properties, and photophysical characterization of
Ln4 Na2 K2 M2 O13 (M = Nb, Ta; Ln = Nd, Sm, Eu, Gd)
;
loop_
_citation_id
_citation_journal_full
_citation_year
_citation_journal_volume
_citation_page_first
_citation_page_last
_citation_journal_id_ASTM
primary 'Inorganic Chemistry' 2009 48 8220 8226 INOCAJ
loop_
_publ_author_name
'Jagau, T.C.'
'Roof, I.P.'
'Smith, M.D.'
'zur Loye, H.C.'
_cell_length_a 24.3144(9)
_cell_length_b 5.7255(2)
_cell_length_c 11.3320(4)
_cell_angle_alpha 90.
_cell_angle_beta 116.734(1)
_cell_angle_gamma 90.
_cell_volume 1408.92
_cell_formula_units_Z 4
_symmetry_space_group_name_H-M 'C 1 2/c 1'
_symmetry_Int_Tables_number 15
_refine_ls_R_factor_all 0.0358
loop_
_symmetry_equiv_pos_site_id
_symmetry_equiv_pos_as_xyz
1 'x, -y, z+1/2'
2 '-x, -y, -z'
3 '-x, y, -z+1/2'
4 'x, y, z'
5 'x+1/2, -y+1/2, z+1/2'
6 '-x+1/2, -y+1/2, -z'
7 '-x+1/2, y+1/2, -z+1/2'
8 'x+1/2, y+1/2, z'
loop_
_atom_type_symbol
_atom_type_oxidation_number
Nd3+ 3
Nb5+ 5
K1+ 1
Na1+ 1
O2- -2
loop_
_atom_site_label
_atom_site_type_symbol
_atom_site_symmetry_multiplicity
_atom_site_Wyckoff_symbol
_atom_site_fract_x
_atom_site_fract_y
_atom_site_fract_z
_atom_site_B_iso_or_equiv
_atom_site_occupancy
_atom_site_attached_hydrogens
Nd1 Nd3+ 8 f 0.436305(12) 0.04296(5) 0.55001(2) 0.00740(6) 1 0
Nd2 Nd3+ 8 f 0.063676(12) 0.03463(5) 0.17451(2) 0.00751(6) 1 0
Nb1 Nb5+ 8 f 0.34760(2) 0.03214(8) 0.21611(4) 0.00715(9) 1 0
K1 K1+ 8 f 0.25057(6) 0.0503(2) 0.36663(12) 0.0193(2) 1 0
Na1 Na1+ 8 f 0.15939(10) 0.0349(4) 0.02446(19) 0.0114(4) 1 0
O1 O2- 8 f 0.36617(16) 0.2699(6) 0.3563(3) 0.0092(7) 1 0
O2 O2- 8 f 0.36381(17) 0.2236(6) 0.6228(3) 0.0105(7) 1 0
O3 O2- 8 f 0.13233(17) 0.3103(6) 0.1409(3) 0.0100(7) 1 0
O4 O2- 8 f 0.26418(17) 0.0623(7) 0.1226(4) 0.0145(7) 1 0
O5 O2- 4 e 0. 0.2417(9) 0.25 0.0118(10) 1 0
O6 O2- 8 f 0.39622(16) -0.2288(6) 0.6575(3) 0.0104(7) 1 0
O7 O2- 8 f 0.50137(16) 0.2519(6) 0.4771(3) 0.0107(7) 1 0
loop_
_atom_site_aniso_label
_atom_site_aniso_type_symbol
_atom_site_aniso_U_11
_atom_site_aniso_U_22
_atom_site_aniso_U_33
_atom_site_aniso_U_12
_atom_site_aniso_U_13
_atom_site_aniso_U_23
Nd1 Nd3+ 0.00840(12) 0.00701(11) 0.00745(11) -0.00031(9) 0.00415(9) -0.00026(9)
Nd2 Nd3+ 0.00824(12) 0.00658(11) 0.00796(11) 0.00067(9) 0.00386(9) 0.00003(9)
Nb1 Nb5+ 0.00756(18) 0.00684(18) 0.00734(17) 0.00050(15) 0.00361(14) 0.00016(15)
K1 K1+ 0.0256(6) 0.0157(5) 0.0201(5) 0.0012(5) 0.0135(5) 0.0014(5)
Na1 Na1+ 0.0115(10) 0.0101(9) 0.0116(9) 0.0002(8) 0.0042(8) 0.0002(8)
O1 O2- 0.0106(17) 0.0095(16) 0.0091(16) -0.0025(14) 0.0058(13) -0.0018(13)
O2 O2- 0.0123(17) 0.0080(16) 0.0129(17) 0.0006(13) 0.0074(14) 0.0018(13)
O3 O2- 0.0115(17) 0.0097(17) 0.0113(16) 0.0009(13) 0.0073(14) -0.0007(13)
O4 O2- 0.0087(16) 0.0177(19) 0.0150(17) 0.0030(14) 0.0035(14) 0.0003(15)
O5 O2- 0.016(3) 0.010(2) 0.012(2) 0. 0.008(2) 0.
O6 O2- 0.0150(18) 0.0071(16) 0.0110(16) 0.0007(14) 0.0075(14) 0.0015(13)
O7 O2- 0.0125(17) 0.0077(16) 0.0099(17) -0.0002(14) 0.0033(14) -0.0012(13)
#End of TTdata_380309-ICSD