
#(C) 2019 by FIZ Karlsruhe - Leibniz Institute for Information Infrastructure.  All rights reserved.
data_380306-ICSD
_database_code_ICSD 380306
_audit_creation_date 2010-02-01
_chemical_name_systematic 'Samarium potassium sodium niobium oxide (4/2/2/2/13)'
_chemical_formula_structural 'Sm4 K2 Na2 Nb2 O13'
_chemical_formula_sum 'K2 Na2 Nb2 O13 Sm4'
_chemical_name_structure_type K2Na2Gd4Nb2O13
_exptl_crystal_density_diffrn 5.4
_cell_measurement_temperature 294.
_publ_section_title

;
Crystal growth, structural properties, and photophysical characterization of
Ln4 Na2 K2 M2 O13 (M = Nb, Ta; Ln = Nd, Sm, Eu, Gd)
;
loop_
_citation_id
_citation_journal_full
_citation_year
_citation_journal_volume
_citation_page_first
_citation_page_last
_citation_journal_id_ASTM
primary 'Inorganic Chemistry' 2009 48 8220 8226 INOCAJ
loop_
_publ_author_name
'Jagau, T.C.'
'Roof, I.P.'
'Smith, M.D.'
'zur Loye, H.C.'
_cell_length_a 24.1511(6)
_cell_length_b 5.6768(1)
_cell_length_c 11.2319(3)
_cell_angle_alpha 90.
_cell_angle_beta 116.555(1)
_cell_angle_gamma 90.
_cell_volume 1377.45
_cell_formula_units_Z 4
_symmetry_space_group_name_H-M 'C 1 2/c 1'
_symmetry_Int_Tables_number 15
_refine_ls_R_factor_all 0.0286
loop_
_symmetry_equiv_pos_site_id
_symmetry_equiv_pos_as_xyz
1 'x, -y, z+1/2'
2 '-x, -y, -z'
3 '-x, y, -z+1/2'
4 'x, y, z'
5 'x+1/2, -y+1/2, z+1/2'
6 '-x+1/2, -y+1/2, -z'
7 '-x+1/2, y+1/2, -z+1/2'
8 'x+1/2, y+1/2, z'
loop_
_atom_type_symbol
_atom_type_oxidation_number
Sm3+ 3
Nb5+ 5
K1+ 1
Na1+ 1
O2- -2
loop_
_atom_site_label
_atom_site_type_symbol
_atom_site_symmetry_multiplicity
_atom_site_Wyckoff_symbol
_atom_site_fract_x
_atom_site_fract_y
_atom_site_fract_z
_atom_site_B_iso_or_equiv
_atom_site_occupancy
_atom_site_attached_hydrogens
Sm1 Sm3+ 8 f 0.437052(9) 0.04367(3) 0.550856(19) 0.00781(5) 1 0
Sm2 Sm3+ 8 f 0.062890(9) 0.03470(3) 0.173318(19) 0.00794(5) 1 0
Nb1 Nb5+ 8 f 0.348707(16) 0.03328(6) 0.21730(3) 0.00746(7) 1 0
K1 K1+ 8 f 0.25061(5) 0.05197(18) 0.36638(10) 0.0198(2) 1 0
Na1 Na1+ 8 f 0.15906(8) 0.0375(3) 0.02346(17) 0.0109(3) 1 0
O1 O2- 8 f 0.36715(13) 0.2749(5) 0.3572(3) 0.0112(5) 1 0
O2 O2- 8 f 0.36516(13) 0.2238(5) 0.6230(3) 0.0109(5) 1 0
O3 O2- 8 f 0.13111(13) 0.3100(5) 0.1393(3) 0.0102(5) 1 0
O4 O2- 8 f 0.26487(14) 0.0637(5) 0.1239(3) 0.0140(6) 1 0
O5 O2- 4 e 0. 0.2430(7) 0.25 0.0100(7) 1 0
O6 O2- 8 f 0.39836(13) -0.2285(5) 0.6593(3) 0.0102(5) 1 0
O7 O2- 8 f 0.50085(12) 0.2506(5) 0.4769(3) 0.0094(5) 1 0
loop_
_atom_site_aniso_label
_atom_site_aniso_type_symbol
_atom_site_aniso_U_11
_atom_site_aniso_U_22
_atom_site_aniso_U_33
_atom_site_aniso_U_12
_atom_site_aniso_U_13
_atom_site_aniso_U_23
Sm1 Sm3+ 0.00838(9) 0.00741(9) 0.00826(9) -0.00041(6) 0.00427(7) -0.00038(7)
Sm2 Sm3+ 0.00852(9) 0.00662(9) 0.00866(9) 0.00052(6) 0.00384(6) 0.00007(7)
Nb1 Nb5+ 0.00725(14) 0.00741(14) 0.00768(14) 0.00010(11) 0.00330(11)
-0.00003(12)
K1 K1+ 0.0252(5) 0.0163(5) 0.0214(5) 0.0016(4) 0.0134(4) 0.0016(4)
Na1 Na1+ 0.0131(8) 0.0080(7) 0.0116(7) -0.0014(6) 0.0054(6) -0.0006(6)
O1 O2- 0.0156(13) 0.0081(13) 0.0128(13) -0.0010(10) 0.0091(11) -0.0012(10)
O2 O2- 0.0112(12) 0.0098(13) 0.0130(13) 0.0008(10) 0.0065(11) 0.0016(11)
O3 O2- 0.0128(13) 0.0079(12) 0.0111(13) 0.0016(10) 0.0064(11) 0.0015(10)
O4 O2- 0.0110(12) 0.0184(15) 0.0108(13) 0.0015(11) 0.0032(10) -0.0009(11)
O5 O2- 0.0118(17) 0.0086(17) 0.0103(18) 0. 0.0056(15) 0.
O6 O2- 0.0135(13) 0.0073(12) 0.0119(13) 0.0006(10) 0.0075(11) 0.0013(10)
O7 O2- 0.0103(12) 0.0074(12) 0.0094(13) 0.0006(10) 0.0036(10) 0.0007(10)
#End of TTdata_380306-ICSD