
#(C) 2019 by FIZ Karlsruhe - Leibniz Institute for Information Infrastructure.  All rights reserved.
data_380480-ICSD
_database_code_ICSD 380480
_audit_creation_date 2011-02-01
_chemical_name_systematic 'Disodium tricalcium hexasilicate'
_chemical_formula_structural 'Na2 Ca3 (Si6 O16)'
_chemical_formula_sum 'Ca3 Na2 O16 Si6'
_chemical_name_mineral Devitrite
_exptl_crystal_density_diffrn 2.73
_cell_measurement_temperature 298.
_publ_section_title

;
Devitrite (Na2 Ca3 Si6 O16) - structural, spectroscopic and computational
investigations on a crystalline impurity phase in industrial soda-lime glasses
;
loop_
_citation_id
_citation_journal_full
_citation_year
_citation_journal_volume
_citation_page_first
_citation_page_last
_citation_journal_id_ASTM
primary 'Mineralogy and Petrology' 2010 100 1 9 MIPEE9
loop_
_publ_author_name
'Kahlenberg, V.'
'Girtler, D.'
'Arroyabe, E.'
'Kaindl, R.'
'Toebbens, D.M.'
_cell_length_a 7.2291(8)
_cell_length_b 10.1728(12)
_cell_length_c 10.6727(12)
_cell_angle_alpha 95.669(9)
_cell_angle_beta 109.792(10)
_cell_angle_gamma 99.156(9)
_cell_volume 719.19
_cell_formula_units_Z 2
_symmetry_space_group_name_H-M 'P -1'
_symmetry_Int_Tables_number 2
_refine_ls_R_factor_all 0.0308
loop_
_symmetry_equiv_pos_site_id
_symmetry_equiv_pos_as_xyz
1 '-x, -y, -z'
2 'x, y, z'
loop_
_atom_type_symbol
_atom_type_oxidation_number
Ca2+ 2
Si4+ 4
Na1+ 1
O2- -2
loop_
_atom_site_label
_atom_site_type_symbol
_atom_site_symmetry_multiplicity
_atom_site_Wyckoff_symbol
_atom_site_fract_x
_atom_site_fract_y
_atom_site_fract_z
_atom_site_B_iso_or_equiv
_atom_site_occupancy
_atom_site_attached_hydrogens
Ca1 Ca2+ 2 i 0.96531(10) 0.12395(6) 0.12022(8) 0.00897(17) 1 0
Ca2 Ca2+ 2 i 0.46360(10) 0.13402(6) 0.11202(7) 0.00723(17) 1 0
Ca3 Ca2+ 2 i 0.90507(10) 0.15277(7) 0.48622(8) 0.00970(17) 1 0
Si1 Si4+ 2 i 0.61516(13) 0.39945(9) 0.36098(10) 0.0065(2) 1 0
Si2 Si4+ 2 i 0.18784(13) 0.40244(9) 0.37314(10) 0.0062(2) 1 0
Si3 Si4+ 2 i 0.68141(13) 0.87276(9) 0.23137(10) 0.0050(2) 1 0
Si4 Si4+ 2 i 0.75028(13) 0.13305(9) 0.76913(10) 0.0052(2) 1 0
Si5 Si4+ 2 i 0.15163(13) 0.31336(9) 0.92462(10) 0.0055(2) 1 0
Si6 Si4+ 2 i 0.79855(13) 0.41576(9) 0.14937(10) 0.0054(2) 1 0
Na1 Na1+ 2 i 0.39687(19) 0.13535(12) 0.47975(15) 0.0128(3) 1 0
Na2 Na1+ 2 i 0.6463(3) 0.41919(15) 0.82569(17) 0.0269(4) 1 0
O1 O2- 2 i 0.1151(3) 0.2459(2) 0.3710(3) 0.0148(6) 1 0
O2 O2- 2 i 0.2065(3) 0.2505(2) 0.0586(2) 0.0083(5) 1 0
O3 O2- 2 i 0.8037(3) 0.0240(2) 0.8689(3) 0.0095(5) 1 0
O4 O2- 2 i 0.6176(3) 0.2436(2) 0.3599(3) 0.0135(6) 1 0
O5 O2- 2 i 0.6755(3) 0.9775(2) 0.1270(3) 0.0092(5) 1 0
O6 O2- 2 i 0.7352(3) 0.2633(2) 0.0810(2) 0.0085(5) 1 0
O7 O2- 2 i 0.9123(3) 0.2768(2) 0.8363(3) 0.0111(5) 1 0
O8 O2- 2 i 0.4007(3) 0.4392(2) 0.3497(3) 0.0103(5) 1 0
O9 O2- 2 i 0.7278(3) 0.0877(2) 0.6173(3) 0.0127(6) 1 0
O10 O2- 2 i 0.7850(4) 0.4997(3) 0.4903(3) 0.0208(7) 1 0
O11 O2- 2 i 0.5411(3) 0.1816(2) 0.7633(3) 0.0110(5) 1 0
O12 O2- 2 i 0.0310(3) 0.4567(2) 0.2511(3) 0.0131(6) 1 0
O13 O2- 2 i 0.1726(3) 0.0678(2) 0.6177(3) 0.0116(5) 1 0
O14 O2- 2 i 0.2183(3) 0.4787(2) 0.9577(2) 0.0064(5) 1 0
O15 O2- 2 i 0.6497(3) 0.4501(2) 0.2293(3) 0.0104(5) 1 0
O16 O2- 2 i 0.2666(4) 0.2658(2) 0.8254(3) 0.0149(6) 1 0
loop_
_atom_site_aniso_label
_atom_site_aniso_type_symbol
_atom_site_aniso_U_11
_atom_site_aniso_U_22
_atom_site_aniso_U_33
_atom_site_aniso_U_12
_atom_site_aniso_U_13
_atom_site_aniso_U_23
Ca1 Ca2+ 0.0085(4) 0.0074(3) 0.0117(4) 0.0011(3) 0.0046(3) 0.0018(3)
Ca2 Ca2+ 0.0061(3) 0.0064(3) 0.0085(4) 0.0007(3) 0.0020(3) 0.0015(3)
Ca3 Ca2+ 0.0096(4) 0.0105(3) 0.0098(4) 0.0025(3) 0.0036(3) 0.0042(3)
Si1 Si4+ 0.0063(5) 0.0088(5) 0.0041(5) 0.0010(4) 0.0018(4) 0.0006(4)
Si2 Si4+ 0.0049(5) 0.0076(4) 0.0049(5) 0.0000(4) 0.0006(4) 0.0008(4)
Si3 Si4+ 0.0059(5) 0.0047(4) 0.0049(5) 0.0018(4) 0.0021(4) 0.0019(4)
Si4 Si4+ 0.0050(5) 0.0050(4) 0.0052(5) 0.0005(4) 0.0012(4) 0.0022(4)
Si5 Si4+ 0.0058(5) 0.0041(4) 0.0059(5) 0.0003(4) 0.0013(4) 0.0013(4)
Si6 Si4+ 0.0065(5) 0.0049(4) 0.0043(5) 0.0005(4) 0.0017(4) 0.0013(4)
Na1 Na1+ 0.0144(7) 0.0091(7) 0.0152(9) 0.0028(6) 0.0051(7) 0.0032(6)
Na2 Na1+ 0.0473(10) 0.0176(8) 0.0091(9) 0.0102(7) 0.0006(8) 0.0004(7)
O1 O2- 0.0114(13) 0.0114(12) 0.0221(17) 0.0010(10) 0.0057(12) 0.0083(12)
O2 O2- 0.0096(12) 0.0073(11) 0.0075(15) 0.0003(10) 0.0026(11) 0.0033(10)
O3 O2- 0.0094(12) 0.0086(12) 0.0103(15) 0.0019(10) 0.0026(11) 0.0037(10)
O4 O2- 0.0175(14) 0.0121(12) 0.0160(16) 0.0070(11) 0.0094(12) 0.0066(11)
O5 O2- 0.0101(12) 0.0081(12) 0.0107(15) 0.0022(10) 0.0043(11) 0.0049(10)
O6 O2- 0.0102(12) 0.0059(11) 0.0082(14) 0.0005(10) 0.0026(11) 0.0007(10)
O7 O2- 0.0082(12) 0.0071(11) 0.0111(15) -0.0012(10) -0.0041(11) 0.0028(10)
O8 O2- 0.0085(12) 0.0132(12) 0.0088(15) 0.0043(10) 0.0015(11) 0.0021(10)
O9 O2- 0.0173(13) 0.0109(12) 0.0099(15) -0.0001(10) 0.0064(12) 0.0012(10)
O10 O2- 0.0119(13) 0.0330(16) 0.0113(16) -0.0014(12) 0.0039(12) -0.0134(13)
O11 O2- 0.0075(12) 0.0129(12) 0.0127(15) 0.0019(10) 0.0033(11) 0.0050(11)
O12 O2- 0.0076(12) 0.0131(12) 0.0130(15) 0.0004(10) -0.0034(11) 0.0063(11)
O13 O2- 0.0118(13) 0.0109(12) 0.0063(14) 0.0008(10) -0.0030(11) 0.0004(10)
O14 O2- 0.0089(12) 0.0045(11) 0.0034(14) -0.0003(9) 0.0002(10) 0.0005(9)
O15 O2- 0.0132(13) 0.0118(12) 0.0090(15) 0.0033(10) 0.0065(11) 0.0036(10)
O16 O2- 0.0220(14) 0.0112(12) 0.0192(17) 0.0063(11) 0.0151(13) 0.0049(11)
#End of TTdata_380480-ICSD