
#(C) 2019 by FIZ Karlsruhe - Leibniz Institute for Information Infrastructure.  All rights reserved.
data_38327-ICSD
_database_code_ICSD 38327
_audit_creation_date 1984-12-31
_chemical_name_systematic 'Sodium potassium zinc oxide'
_chemical_formula_structural 'Na K Zn O2'
_chemical_formula_sum 'K1 Na1 O2 Zn1'
_exptl_crystal_density_diffrn 3.5
_publ_section_title 'Ein neues Oxozincat: Ueber K Na Zn O2'
loop_
_citation_id
_citation_journal_full
_citation_year
_citation_journal_volume
_citation_page_first
_citation_page_last
_citation_journal_id_ASTM
primary 'Zeitschrift fuer Anorganische und Allgemeine Chemie (1950) (DE)' 1984
511 161 175 ZAACAB
loop_
_publ_author_name
'Hoppe, R.'
'Baier, R.'
_cell_length_a 5.824(1)
_cell_length_b 9.700(2)
_cell_length_c 5.513(1)
_cell_angle_alpha 90.
_cell_angle_beta 103.73(1)
_cell_angle_gamma 90.
_cell_volume 302.55
_cell_formula_units_Z 4
_symmetry_space_group_name_H-M 'P 1 21/c 1'
_symmetry_Int_Tables_number 14
_refine_ls_R_factor_all 0.092
loop_
_symmetry_equiv_pos_site_id
_symmetry_equiv_pos_as_xyz
1 'x, -y+1/2, z+1/2'
2 '-x, -y, -z'
3 '-x, y+1/2, -z+1/2'
4 'x, y, z'
loop_
_atom_type_symbol
_atom_type_oxidation_number
K1+ 1
Na1+ 1
Zn2+ 2
O2- -2
loop_
_atom_site_label
_atom_site_type_symbol
_atom_site_symmetry_multiplicity
_atom_site_Wyckoff_symbol
_atom_site_fract_x
_atom_site_fract_y
_atom_site_fract_z
_atom_site_B_iso_or_equiv
_atom_site_occupancy
_atom_site_attached_hydrogens
K1 K1+ 4 e 0.2435(8) 0.6232(4) 0.4851(9) . 1. 0
Na1 Na1+ 4 e 0.7595(14) 0.4774(6) 0.9934(14) . 1. 0
Zn1 Zn2+ 4 e 0.2477(3) 0.2416(1) 0.9948(3) . 1. 0
O1 O2- 4 e 0.4131(19) 0.1355(10) 0.2966(20) 0.0084(22) 1. 0
O2 O2- 4 e 0.9456(18) 0.852(1) 0.2998(19) 0.0068(21) 1. 0
loop_
_atom_site_aniso_label
_atom_site_aniso_type_symbol
_atom_site_aniso_U_11
_atom_site_aniso_U_22
_atom_site_aniso_U_33
_atom_site_aniso_U_12
_atom_site_aniso_U_13
_atom_site_aniso_U_23
K1 K1+ 0.0199(16) 0.0291(16) 0.0145(16) -.0015(22) 0.0097(13) 0.0009(20)
Na1 Na1+ 0.0096(25) 0.0164(24) 0.0120(25) -.0089(30) 0.002(2) -.0078(32)
Zn1 Zn2+ 0.0079(7) 0.0131(8) 0.0019(7) -.0056(12) -.0002(5) -.0040(12)
#End of TTdata_38327-ICSD