
#(C) 2019 by FIZ Karlsruhe - Leibniz Institute for Information Infrastructure.  All rights reserved.
data_390-ICSD
_database_code_ICSD 390
_audit_creation_date 1980-01-01
_audit_update_record 2009-08-01
_chemical_name_systematic 'Trisodium dithiodioxoarsenate(V) undecahydrate'
_chemical_formula_structural 'Na3 (As O2 S2) (H2 O)11'
_chemical_formula_sum 'H22 As1 Na3 O13 S2'
_exptl_crystal_density_diffrn 1.73
_publ_section_title 'Structure cristalline de Na3 As O2 S2 (H2 O)11'
loop_
_citation_id
_citation_journal_full
_citation_year
_citation_journal_volume
_citation_page_first
_citation_page_last
_citation_journal_id_ASTM
primary

;
Acta Crystallographica, Section B: Structural Crystallography and Crystal
Chemistry
; 1976 32 2119 2122 ACBCAR
loop_
_publ_author_name
'Jaulmes, S.'
'Palazzi, M.'
_cell_length_a 12.55(1)
_cell_length_b 14.06(1)
_cell_length_c 9.528(2)
_cell_angle_alpha 90.
_cell_angle_beta 90.
_cell_angle_gamma 90.
_cell_volume 1681.24
_cell_formula_units_Z 4
_symmetry_space_group_name_H-M 'P n m a'
_symmetry_Int_Tables_number 62
_refine_ls_R_factor_all 0.04
loop_
_symmetry_equiv_pos_site_id
_symmetry_equiv_pos_as_xyz
1 'x+1/2, y, -z+1/2'
2 'x, -y+1/2, z'
3 '-x+1/2, y+1/2, z+1/2'
4 '-x, -y, -z'
5 '-x+1/2, -y, z+1/2'
6 '-x, y+1/2, -z'
7 'x+1/2, -y+1/2, -z+1/2'
8 'x, y, z'
loop_
_atom_type_symbol
_atom_type_oxidation_number
Na1+ 1
As5+ 5
S2- -2
O2- -2
H1+ 1
loop_
_atom_site_label
_atom_site_type_symbol
_atom_site_symmetry_multiplicity
_atom_site_Wyckoff_symbol
_atom_site_fract_x
_atom_site_fract_y
_atom_site_fract_z
_atom_site_B_iso_or_equiv
_atom_site_occupancy
_atom_site_attached_hydrogens
Na1 Na1+ 8 d 0.2284(2) 0.0950(2) 0.0026(3) . 1. 0
Na2 Na1+ 4 a 0 0 0 . 1. 0
As1 As5+ 4 c 0.5836(1) 0.25 0.0297(1) . 1. 0
S1 S2- 4 c 0.7552(2) 0.25 0.0267(3) . 1. 0
S2 S2- 4 c 0.0215(3) 0.25 0.6781(3) . 1. 0
O1 O2- 8 d 0.5387(4) 0.1532(3) 0.1174(6) . 1. 0
O2 O2- 8 d 0.0588(5) 0.1478(4) 0.0996(6) . 1. 0
O3 O2- 8 d 0.1599(5) 0.5507(4) 0.1031(6) . 1. 0
O4 O2- 8 d 0.6163(4) 0.5290(4) 0.1051(6) . 1. 0
O5 O2- 8 d 0.3332(4) 0.1253(3) 0.1915(5) . 1. 0
O6 O2- 8 d 0.8865(4) 0.5496(4) 0.1857(5) . 1. 0
O7 O2- 4 c 0.2581(6) 0.25 0.8773(8) . 1. 0
H1 H1+ 8 d 0.079 0.144 0.198 . 1. 0
H2 H1+ 8 d 0.032 0.206 0.103 . 1. 0
H3 H1+ 8 d 0.144 0.547 0.205 . 1. 0
H4 H1+ 8 d 0.18 0.62 0.088 . 1. 0
H5 H1+ 8 d 0.623 0.545 0.194 . 1. 0
H6 H1+ 8 d 0.589 0.465 0.105 . 1. 0
H7 H1+ 8 d 0.31 0.17 0.259 . 1. 0
H8 H1+ 8 d 0.4 0.15 0.155 . 1. 0
H9 H1+ 8 d 0.86 0.498 0.24 . 1. 0
H10 H1+ 8 d 0.928 0.591 0.251 . 1. 0
H11 H1+ 4 c 0.674 0.75 0.168 . 1. 0
H12 H1+ 4 c 0.793 0.75 0.2 . 1. 0
loop_
_atom_site_aniso_label
_atom_site_aniso_type_symbol
_atom_site_aniso_beta_11
_atom_site_aniso_beta_22
_atom_site_aniso_beta_33
_atom_site_aniso_beta_12
_atom_site_aniso_beta_13
_atom_site_aniso_beta_23
Na1 Na1+ 0.0058(2) 0.0045(2) 0.0125(5) -.0010(2) 0.0001(3) -.0006(2)
Na2 Na1+ 0.0060(3) 0.0081(3) 0.0126(8) -.0013(3) -.0007(4) 0.0014(4)
As1 As5+ 0.0048(1) 0.0027(1) 0.0080(1) 0 0.0008(1) 0
S1 S2- 0.0041(2) 0.0042(2) 0.0114(4) 0 0.0011(3) 0
S2 S2- 0.0068(3) 0.0068(2) 0.0087(4) 0 0.0004(3) 0
O1 O2- 0.0066(4) 0.0038(3) 0.0135(8) -.0001(3) 0.0020(5) 0.0026(4)
O2 O2- 0.0141(7) 0.0042(3) 0.0124(8) 0.0004(4) 0.0030(7) -.0016(4)
O3 O2- 0.0043(3) 0.0128(8) 0.0128(8) -.0011(3) -.0010(6) -.0004(4)
O4 O2- 0.0074(5) 0.0043(3) 0.0153(8) 0.0003(3) 0.0002(5) 0.0010(4)
O5 O2- 0.0069(6) 0.0044(3) 0.0096(7) -.0007(3) 0.0007(5) -.0005(4)
O6 O2- 0.0057(5) 0.0052(3) 0.0098(6) -.0009(3) -.0005(5) 0.0007(4)
O7 O2- 0.0060(7) 0.0057(5) 0.0121(11) 0 -.0022(8) 0
#End of TTdata_390-ICSD