
#(C) 2017 by FIZ Karlsruhe - Leibniz Institute for Information Infrastructure.  All rights reserved.
data_391245-ICSD
_database_code_ICSD 391245
_audit_creation_date 2008-02-01
_chemical_name_systematic 'Trilithium hexafluoroindate - alpha'
_chemical_formula_structural 'Li3 (In F6)'
_chemical_formula_sum 'F6 In1 Li3'
_exptl_crystal_density_diffrn 3.84
_cell_measurement_temperature 293.
_publ_section_title
'alpha - (Li3 In F6), a ternary fluoride with a new structure type'
loop_
_citation_id
_citation_journal_full
_citation_year
_citation_journal_volume
_citation_page_first
_citation_page_last
_citation_journal_id_ASTM
primary 'Journal of Chemical Crystallography' 2006 36 1 5 JCCYEV
loop_
_publ_author_name
'Hamadene, M.'
'Balegroune, F.'
'Guehria-Laidoudi, A.'
'Grannec, J.'
'Ravez, J.'
_cell_length_a 4.797(3)
_cell_length_b 8.6790(10)
_cell_length_c 10.3660(10)
_cell_angle_alpha 90.
_cell_angle_beta 90.900(10)
_cell_angle_gamma 90.
_cell_volume 431.52
_cell_formula_units_Z 4
_symmetry_space_group_name_H-M 'P 1 21/m 1'
_symmetry_Int_Tables_number 11
_refine_ls_R_factor_all 0.028
loop_
_symmetry_equiv_pos_site_id
_symmetry_equiv_pos_as_xyz
1 'x, -y+1/2, z'
2 '-x, -y, -z'
3 '-x, y+1/2, -z'
4 'x, y, z'
loop_
_atom_type_symbol
_atom_type_oxidation_number
In3+ 3
F1- -1
Li1+ 1
loop_
_atom_site_label
_atom_site_type_symbol
_atom_site_symmetry_multiplicity
_atom_site_Wyckoff_symbol
_atom_site_fract_x
_atom_site_fract_y
_atom_site_fract_z
_atom_site_B_iso_or_equiv
_atom_site_occupancy
_atom_site_attached_hydrogens
In1 In3+ 2 e 0.49583(7) 0.25 0.88389(3) 0.00778(14) 1 0
In2 In3+ 2 e 1.02027(7) 0.25 0.38288(3) 0.00782(14) 1 0
F1 F1- 2 e 1.3004(6) 0.25 0.7032(3) 0.0116(6) 1 0
F2 F1- 2 e 0.7321(7) 0.25 1.0509(3) 0.0125(7) 1 0
F3 F1- 4 f 0.7247(5) 0.0783(4) 0.7956(2) 0.0185(5) 1 0
F4 F1- 4 f 1.2401(5) 0.0819(3) 0.9579(3) 0.0202(6) 1 0
F5 F1- 2 e 0.7911(7) 0.25 0.5492(4) 0.0136(7) 1 0
F6 F1- 2 e 0.2206(7) 0.25 0.2051(3) 0.0122(7) 1 0
F7 F1- 4 f 0.7842(4) 0.0802(3) 0.2939(2) 0.0144(5) 1 0
F8 F1- 4 f 0.2690(5) 0.0794(3) 0.4595(3) 0.0209(6) 1 0
Li1 Li1+ 4 f 0.993(4) -0.0729(15) 0.8836(10) 0.074(6) 1 0
Li2 Li1+ 4 f 0.502(4) -0.0729(18) 0.3845(10) 0.087(7) 1 0
Li3 Li1+ 4 f 1.000(3) 0.115(2) 0.6581(17) 0.022(3) 0.5 0
Li4 Li1+ 4 f 0.507(3) 0.114(2) 0.1590(17) 0.023(3) 0.5 0
loop_
_atom_site_aniso_label
_atom_site_aniso_type_symbol
_atom_site_aniso_U_11
_atom_site_aniso_U_22
_atom_site_aniso_U_33
_atom_site_aniso_U_12
_atom_site_aniso_U_13
_atom_site_aniso_U_23
In1 In3+ 0.00722(18) 0.0090(2) 0.0071(2) 0. 0.00015(12) 0.
In2 In3+ 0.00847(19) 0.0077(2) 0.0072(2) 0. -0.00098(12) 0.
F1 F1- 0.0104(13) 0.0143(16) 0.0101(15) 0. -0.0015(11) 0.
F2 F1- 0.0097(13) 0.0162(16) 0.0117(16) 0. -0.0012(12) 0.
F3 F1- 0.0172(10) 0.0240(14) 0.0142(11) 0.0114(11) 0.0013(8) -0.0029(11)
F4 F1- 0.0132(10) 0.0231(13) 0.0243(13) -0.0052(10) 0.0022(9) 0.0116(12)
F5 F1- 0.0150(14) 0.0134(16) 0.0124(16) 0. 0.0021(12) 0.
F6 F1- 0.0134(14) 0.0131(16) 0.0102(16) 0. 0.0012(11) 0.
F7 F1- 0.0146(9) 0.0140(11) 0.0146(11) -0.0019(9) -0.0029(8) -0.0023(10)
F8 F1- 0.0132(10) 0.0216(13) 0.0280(14) 0.0069(10) 0.0016(9) 0.0110(12)
Li1 Li1+ 0.189(19) 0.010(6) 0.023(6) 0.002(6) -0.023(8) -0.004(4)
Li2 Li1+ 0.199(19) 0.045(9) 0.017(6) 0.076(11) -0.028(8) -0.013(5)
Li3 Li1+ 0.018(6) 0.021(8) 0.027(8) -0.003(6) -0.006(5) 0.011(7)
Li4 Li1+ 0.012(6) 0.021(8) 0.034(9) 0.002(6) 0.004(5) 0.019(7)
#End of TTdata_391245-ICSD