
#(C) 2019 by FIZ Karlsruhe - Leibniz Institute for Information Infrastructure.  All rights reserved.
data_391351-ICSD
_database_code_ICSD 391351
_audit_creation_date 2007-08-01
_chemical_name_systematic
'Sodium potassium lead fluoride chloride (0.714/1.286/11/18/6)'
_chemical_formula_structural
'(Na0.708 K0.292) (K0.838 Pb5.162) (K0.163 Pb5.837) F18 Cl6'
_chemical_formula_sum 'Cl6 F18 K1.293 Na0.708 Pb10.999'
_exptl_crystal_density_diffrn 6.9
_publ_section_title
'Disorder in alkali lead fluorides Na(2-x) K(x) Pb11 F18 X6 with X = Cl, Br'
loop_
_citation_id
_citation_journal_full
_citation_year
_citation_journal_volume
_citation_page_first
_citation_page_last
_citation_journal_id_ASTM
primary 'Zeitschrift fuer Kristallographie' 2006 221 600 605 ZEKRDZ
loop_
_publ_author_name
'Kubel, F.'
'Rief, A.'
_cell_length_a 14.1780(7)
_cell_length_b 14.1780(7)
_cell_length_c 4.0093(3)
_cell_angle_alpha 90.
_cell_angle_beta 90.
_cell_angle_gamma 120.
_cell_volume 697.96
_cell_formula_units_Z 1
_symmetry_space_group_name_H-M 'P 63/m'
_symmetry_Int_Tables_number 176
_refine_ls_R_factor_all 0.0304
loop_
_symmetry_equiv_pos_site_id
_symmetry_equiv_pos_as_xyz
1 '-x+y, -x, -z+1/2'
2 '-y, x-y, -z+1/2'
3 'x, y, -z+1/2'
4 'x-y, x, -z'
5 'y, -x+y, -z'
6 '-x, -y, -z'
7 'x-y, x, z+1/2'
8 'y, -x+y, z+1/2'
9 '-x, -y, z+1/2'
10 '-x+y, -x, z'
11 '-y, x-y, z'
12 'x, y, z'
loop_
_atom_type_symbol
_atom_type_oxidation_number
K1+ 1
Pb2+ 2
K1+ 1
Na1+ 1
Cl1- -1
F1- -1
loop_
_atom_site_label
_atom_site_type_symbol
_atom_site_symmetry_multiplicity
_atom_site_Wyckoff_symbol
_atom_site_fract_x
_atom_site_fract_y
_atom_site_fract_z
_atom_site_B_iso_or_equiv
_atom_site_occupancy
_atom_site_attached_hydrogens
K1 K1+ 6 h .48366(2) .61393(2) .75 .01533 .1396(10) 0
Pb1 Pb2+ 6 h .48366(2) .61393(2) .75 .01533 .8604(10) 0
Pb2 Pb2+ 6 h .72262(2) .94692(2) -.25 .02126 .9729(10) 0
K2 K1+ 6 h .72262(2) .94692(2) -.25 .02126 .0271(10) 0
K3 K1+ 2 a 1. 1. -.25 .03487 .146(8) 0
Na1 Na1+ 2 b 1. 1. . .03487 .354(8) 0
Cl1 Cl1- 6 h .51440(15) .79715(15) .25 .02593 1. 0
F1 F1- 6 h .4416(3) .4216(3) -.25 .0354(8) 1. 0
F2 F1- 6 h .2606(3) .9370(3) -.25 .0387(9) 1. 0
F3 F1- 6 h .1941(12) .1006(13) -.25 .0423(14) .5 0
F4 F1- 6 h .1757(12) .0852(13) -.25 .0423(14) .5 0
loop_
_atom_site_aniso_label
_atom_site_aniso_type_symbol
_atom_site_aniso_U_11
_atom_site_aniso_U_22
_atom_site_aniso_U_33
_atom_site_aniso_U_12
_atom_site_aniso_U_13
_atom_site_aniso_U_23
K1 K1+ .02970(19) .0305(2) .03570(19) .01503(14) . .
Pb1 Pb2+ .02970(19) .0305(2) .03570(19) .01503(14) . .
Pb2 Pb2+ .03353(17) .03030(16) .03747(16) .01451(13) . .
K2 K1+ .03353(17) .03030(16) .03747(16) .01451(13) . .
K3 K1+ .013(3) .013(3) .12(2) .0067(13) . .
Na1 Na1+ .013(3) .013(3) .12(2) .0067(13) . .
Cl1 Cl1- .0431(10) .0373(10) .0415(8) .0221(8) . .
#End of TTdata_391351-ICSD