
#(C) 2019 by FIZ Karlsruhe - Leibniz Institute for Information Infrastructure.  All rights reserved.
data_391353-ICSD
_database_code_ICSD 391353
_audit_creation_date 2007-08-01
_chemical_name_systematic 'Sodium lead fluoride chloride (2/11/18/6)'
_chemical_formula_structural 'Na (Na0.888 Pb5.112) (Na0.112 Pb5.888) F18 Cl6'
_chemical_formula_sum 'Cl6 F18 Na2 Pb11'
_chemical_name_structure_type Na2Pb11F18Br6
_exptl_crystal_density_diffrn 6.98
_publ_section_title
'Disorder in alkali lead fluorides Na(2-x) K(x) Pb11 F18 X6 with X = Cl, Br'
loop_
_citation_id
_citation_journal_full
_citation_year
_citation_journal_volume
_citation_page_first
_citation_page_last
_citation_journal_id_ASTM
primary 'Zeitschrift fuer Kristallographie' 2006 221 600 605 ZEKRDZ
loop_
_publ_author_name
'Kubel, F.'
'Rief, A.'
_cell_length_a 14.0679(9)
_cell_length_b 14.0679(9)
_cell_length_c 3.9954(4)
_cell_angle_alpha 90.
_cell_angle_beta 90.
_cell_angle_gamma 120.
_cell_volume 684.78
_cell_formula_units_Z 1
_symmetry_space_group_name_H-M 'P 63/m'
_symmetry_Int_Tables_number 176
_refine_ls_R_factor_all 0.0458
loop_
_symmetry_equiv_pos_site_id
_symmetry_equiv_pos_as_xyz
1 '-x+y, -x, -z+1/2'
2 '-y, x-y, -z+1/2'
3 'x, y, -z+1/2'
4 'x-y, x, -z'
5 'y, -x+y, -z'
6 '-x, -y, -z'
7 'x-y, x, z+1/2'
8 'y, -x+y, z+1/2'
9 '-x, -y, z+1/2'
10 '-x+y, -x, z'
11 '-y, x-y, z'
12 'x, y, z'
loop_
_atom_type_symbol
_atom_type_oxidation_number
Na1+ 1
Pb2+ 2
Na1+ 1
Cl1- -1
F1- -1
loop_
_atom_site_label
_atom_site_type_symbol
_atom_site_symmetry_multiplicity
_atom_site_Wyckoff_symbol
_atom_site_fract_x
_atom_site_fract_y
_atom_site_fract_z
_atom_site_B_iso_or_equiv
_atom_site_occupancy
_atom_site_attached_hydrogens
Na1 Na1+ 6 h .48227(3) .61339(3) .75 .01533 .1480(12) 0
Pb1 Pb2+ 6 h .48227(3) .61339(3) .75 .01533 .8520(12) 0
Pb2 Pb2+ 6 h .72385(3) .94680(3) -.25 .02126 .9813(12) 0
Na2 Na1+ 6 h .72385(3) .94680(3) -.25 .02126 .0187(12) 0
Na3 Na1+ 2 b 1. 1. . .03487 .5 0
Cl1 Cl1- 6 h .51531(18) .79752(19) .25 .02593 1. 0
F1 F1- 6 h .4427(4) .4241(4) -.25 .0176(12) 1. 0
F2 F1- 6 h .2582(4) .9359(4) -.25 .0168(12) 1. 0
F3 F1- 6 h .1828(4) .0918(4) -.25 .0228(13) 1. 0
loop_
_atom_site_aniso_label
_atom_site_aniso_type_symbol
_atom_site_aniso_U_11
_atom_site_aniso_U_22
_atom_site_aniso_U_33
_atom_site_aniso_U_12
_atom_site_aniso_U_13
_atom_site_aniso_U_23
Na1 Na1+ .0142(2) .0149(2) .0184(2) .00635(16) . .
Pb1 Pb2+ .0142(2) .0149(2) .0184(2) .00635(16) . .
Pb2 Pb2+ .01586(18) .01376(18) .0165(2) .00609(16) . .
Na2 Na1+ .01586(18) .01376(18) .0165(2) .00609(16) . .
Na3 Na1+ .010(3) .010(3) .131(17) .0048(16) . .
Cl1 Cl1- .0268(12) .0188(11) .0202(14) .0132(10) . .
#End of TTdata_391353-ICSD