
#(C) 2019 by FIZ Karlsruhe - Leibniz Institute for Information Infrastructure.  All rights reserved.
data_391418-ICSD
_database_code_ICSD 391418
_audit_creation_date 2009-02-01
_chemical_name_systematic
'Bismuth(III) sodium triacontaoxotetravanadate(IV/V) (13.166/0.834/1)'
_chemical_formula_structural '(Bi13.166 Na0.834) V4 O30'
_chemical_formula_sum 'Bi13.166 Na0.834 O30 V4'
_exptl_crystal_density_diffrn 7.74
_cell_measurement_temperature 293.
_publ_section_title

;
Crystal structure and conductivity properties of M Bi6 V2 O15 family type
compounds (M = Pb, Sr, Ca, Cd, Na0.5 Bi0.5)
;
loop_
_citation_id
_citation_journal_full
_citation_year
_citation_journal_volume
_citation_page_first
_citation_page_last
_citation_journal_id_ASTM
primary 'Solid State Sciences' 2007 9 964 972 SSSCFJ
loop_
_publ_author_name
'Labidi, O.'
'Drache, M.'
'Roussel, P.'
'Wignacourt, J.P.'
_cell_length_a 19.8603(5)
_cell_length_b 11.5096(2)
_cell_length_c 27.8321(5)
_cell_angle_alpha 90
_cell_angle_beta 111.172(3)
_cell_angle_gamma 90
_cell_volume 5932.55
_cell_formula_units_Z 8
_symmetry_space_group_name_H-M 'C 1 2 1'
_symmetry_Int_Tables_number 5
_refine_ls_R_factor_all 0.0534
loop_
_symmetry_equiv_pos_site_id
_symmetry_equiv_pos_as_xyz
1 '-x, y, -z'
2 'x, y, z'
3 '-x+1/2, y+1/2, -z'
4 'x+1/2, y+1/2, z'
loop_
_atom_type_symbol
_atom_type_oxidation_number
Bi3+ 3
Na1+ 1
Bi3+ 3
Na1+ 1
Bi3+ 3
O2- -2
V4+ 4.9
O2- -2
V4+ 4.9
O2- -2
V4+ 4.9
O2- -2
V4+ 4.9
O2- -2
V4+ 4.9
O2- -2
V4+ 4.9
O2- -2
V4+ 4.9
O2- -2
V4+ 4.9
O2- -2
loop_
_atom_site_label
_atom_site_type_symbol
_atom_site_symmetry_multiplicity
_atom_site_Wyckoff_symbol
_atom_site_fract_x
_atom_site_fract_y
_atom_site_fract_z
_atom_site_B_iso_or_equiv
_atom_site_occupancy
_atom_site_attached_hydrogens
Bi1 Bi3+ 4 c 0.26362(4) 0.78248 0.57431(3) 0.0177(2) 1 0
Bi2 Bi3+ 4 c 0.41673(4) 0.61286(10) 0.81002(3) 0.0173(2) 1 0
Bi3 Bi3+ 4 c 0.41057(4) 0.40064(10) 0.93909(2) 0.01021(19) 1 0
Bi4 Bi3+ 4 c 0.59123(4) 0.11682(9) 0.56531(3) 0.0133(2) 1 0
Bi5 Bi3+ 4 c 0.23558(4) 0.07197(9) 0.80720(2) 0.00922(18) 1 0
Bi6 Bi3+ 4 c 0.41831(4) 0.42857(9) 0.68601(3) 0.00987(19) 1 0
Bi7 Bi3+ 4 c 0.59338(4) 0.90575(9) 0.69081(2) 0.01037(19) 1 0
Bi8 Bi3+ 4 c 0.42722(4) 0.93258(9) 0.56920(2) 0.00850(18) 1 0
Bi9 Bi3+ 4 c 0.42015(4) 0.60174(9) 0.56999(3) 0.0099(2) 1 0
Bi10 Bi3+ 4 c 0.58871(4) 0.43739(9) 0.56729(3) 0.0128(2) 1 0
Bi11 Bi3+ 4 c 0.74831(4) 0.60098(10) 0.56085(3) 0.0108(2) 1 0
Bi12 Bi3+ 4 c 0.58312(4) 0.41088(9) 0.81494(3) 0.01028(19) 1 0
Bi13 Bi3+ 4 c 0.58495(3) 0.89288(9) 0.93964(2) 0.00809(18) 1 0
Bi14 Bi3+ 4 c 0.40379(4) 0.92916(9) 0.81544(3) 0.0118(2) 1 0
Bi15 Bi3+ 4 c -0.74901(4) -0.27633(9) 0.05963(2) 0.00911(19) 1 0
Bi16 Bi3+ 4 c -0.41877(4) -0.24381(9) 0.30149(3) 0.0138(2) 1 0
Bi17 Bi3+ 4 c -0.07340(4) -0.28610(9) 0.06715(3) 0.00882(18) 1 0
Bi18 Bi3+ 4 c -0.40180(4) -0.26401(9) 0.06307(3) 0.00984(19) 1 0
Bi19 Bi3+ 4 c 0.24718(4) -0.24795(9) 0.30935(3) 0.0119(2) 1 0
Bi20 Bi3+ 4 c -0.25410(5) -0.42216(10) 0.30419(3) 0.0209(3) 1 0
Bi21 Bi3+ 4 c -0.24361(5) -0.25857(9) 0.19406(3) 0.0210(3) 1 0
Bi22 Bi3+ 4 c -0.22345(3) -0.12146(9) 0.06374(2) 0.01080(19) 1 0
Bi23 Bi3+ 4 c -0.24814(4) -0.44304(8) 0.07380(3) 0.0149(2) 1 0
Bi24 Bi3+ 4 c -0.08222(4) -0.41916(9) 0.19654(3) 0.0115(2) 1 0
Bi25 Bi3+ 4 c -0.08388(4) -0.27853(9) 0.31331(3) 0.0159(2) 1 0
Bi26 Bi3+ 4 c 0.24063(4) -0.04573(9) 0.43601(3) 0.0156(2) 1 0
Na1 Na1+ 4 c -0.2420(2) -0.0967(4) 0.31256(12) 0.0279(13) 0.825(3) 0
Bi27 Bi3+ 4 c -0.241973 -0.096737 0.312564 0.0279(13) 0.175(3) 0
Na2 Na1+ 4 c -0.75505(19) -0.0831(4) 0.18619(12) 0.0246(12) 0.842(3) 0
Bi28 Bi3+ 4 c -0.75505 -0.083132 0.186194 0.0246(12) 0.158(3) 0
O1 O2- 4 c -0.1088(6) -0.2480(10) 0.2184(4) 0.014(2) 1 0
O2 O2- 4 c 0.3908(6) 0.5824(9) 0.7208(4) 0.011(2) 1 0
O3 O2- 4 c -0.1996(7) -0.2679(10) 0.2802(4) 0.017(2) 1 0
O4 O2- 4 c -0.1964(6) -0.4414(10) 0.1578(4) 0.012(2) 1 0
O5 O2- 4 c 0.2906(6) -0.0898(9) 0.2810(4) 0.0100(19) 1 0
O6 O2- 4 c 0.7008(6) 0.4461(9) 0.5804(4) 0.014(2) 1 0
O7 O2- 4 c 0.3611(6) 0.5237(9) 0.6151(4) 0.013(2) 1 0
O8 O2- 4 c 0.2885(7) 0.9335(10) 0.7808(4) 0.020(3) 1 0
O9 O2- 4 c 0.3022(6) 0.5863(10) 0.7809(4) 0.015(2) 1 0
O10 O2- 4 c -0.1084(6) -0.4479(9) 0.0873(4) 0.011(2) 1 0
O11 O2- 4 c -0.0996(7) -0.4362(11) 0.2673(4) 0.022(3) 1 0
O12 O2- 4 c -0.1902(6) -0.2667(9) 0.0229(4) 0.012(2) 1 0
O13 O2- 4 c -0.3046(7) -0.2231(11) 0.3436(4) 0.021(3) 1 0
O14 O2- 4 c -0.1217(6) -0.2027(9) 0.1161(4) 0.014(2) 1 0
O15 O2- 4 c 0.8155(7) 0.4660(11) 0.5488(5) 0.026(3) 1 0
O16 O2- 4 c -0.3870(6) -0.2376(9) 0.1419(4) 0.011(2) 1 0
O17 O2- 4 c 0.3978(6) 0.7757(9) 0.7697(4) 0.012(2) 1 0
O18 O2- 4 c -0.3598(6) -0.4320(9) 0.0823(4) 0.015(2) 1 0
O19 O2- 4 c 0.6971(6) 0.4462(9) 0.8471(4) 0.015(2) 1 0
O20 O2- 4 c 0.2998(6) 0.3681(10) 0.9160(4) 0.017(2) 1 0
O21 O2- 4 c 0.3863(6) 0.7659(10) 0.5874(4) 0.016(2) 1 0
O22 O2- 4 c 0.6973(7) 0.5676(11) 0.4790(4) 0.021(2) 1 0
O23 O2- 4 c 0.6961(6) 0.8678(9) 0.9542(4) 0.015(2) 1 0
O24 O2- 4 c 0.6058(7) 0.0619(11) 0.6417(4) 0.023(3) 1 0
O25 O2- 4 c -0.2811(7) -0.2469(10) 0.0851(4) 0.017(2) 1 0
O26 O2- 4 c 0.2933(7) 0.0994(10) 0.4148(4) 0.018(2) 1 0
O27 O2- 4 c 0.3108(7) 0.3839(11) 0.6694(4) 0.025(3) 1 0
O28 O2- 4 c 0.6163(8) 0.2798(12) 0.6065(5) 0.035(3) 1 0
V1 V4+ 4 c 0.57996(16) 0.5610(3) 0.94538(10) 0.01057(16) 1 0
O29 O2- 4 c 0.5856(5) 0.4303(6) 0.9756(3) 0.0296(10) 1 0
O30 O2- 4 c 0.5771(6) 0.5384(8) 0.8843(2) 0.0409(13) 1 0
O31 O2- 4 c 0.6524(4) 0.6434(8) 0.9774(3) 0.0449(13) 1 0
O32 O2- 4 c 0.5055(4) 0.6329(8) 0.9451(4) 0.0478(14) 1 0
V2 V4+ 4 c 0.59891(15) 0.7794(2) 0.55827(10) 0.01057(16) 1 0
O33 O2- 4 c 0.5944(4) 0.8962(7) 0.5194(4) 0.0296(10) 1 0
O34 O2- 4 c 0.5231(4) 0.7746(8) 0.5730(4) 0.0409(13) 1 0
O35 O2- 4 c 0.6716(5) 0.7910(8) 0.6131(4) 0.0449(13) 1 0
O36 O2- 4 c 0.6081(5) 0.6562(8) 0.5280(4) 0.0478(14) 1 0
V3 V4+ 4 c -1.58609(16) -0.2334(3) 0.18448(10) 0.01057(16) 1 0
O37 O2- 4 c -1.5354(5) -0.3494(8) 0.2156(3) 0.0296(10) 1 0
O38 O2- 4 c -1.5495(6) -0.1756(9) 0.1433(3) 0.0409(13) 1 0
O39 O2- 4 c -1.5876(5) -0.1314(9) 0.2275(3) 0.0449(13) 1 0
O40 O2- 4 c -1.6721(5) -0.2768(9) 0.1525(3) 0.0478(14) 1 0
V4 V4+ 4 c -0.91053(16) -0.4332(3) 0.31131(10) 0.01057(16) 1 0
O41 O2- 4 c -0.9416(5) -0.5166(9) 0.3497(3) 0.0296(10) 1 0
O42 O2- 4 c -0.8213(4) -0.4052(9) 0.3427(4) 0.0409(13) 1 0
O43 O2- 4 c -0.9561(5) -0.3066(8) 0.2975(4) 0.0449(13) 1 0
O44 O2- 4 c -0.9244(6) -0.5033(8) 0.2551(4) 0.0478(14) 1 0
V5 V4+ 4 c 0.59273(15) 0.5715(2) 0.69019(9) 0.01057(16) 1 0
O45 O2- 4 c 0.5022(4) 0.5984(10) 0.6634(3) 0.0296(10) 1 0
O46 O2- 4 c 0.6215(5) 0.5137(10) 0.6448(3) 0.0409(13) 1 0
O47 O2- 4 c 0.6099(5) 0.4770(8) 0.7394(3) 0.0449(13) 1 0
O48 O2- 4 c 0.6371(5) 0.6964(8) 0.7140(4) 0.0478(14) 1 0
V6 V4+ 4 c 0.39574(15) 1.0584(2) 0.93659(10) 0.01057(16) 1 0
O49 O2- 4 c 0.4138(5) 1.1913(8) 0.9658(4) 0.0296(10) 1 0
O50 O2- 4 c 0.3670(5) 0.9667(8) 0.9730(4) 0.0409(13) 1 0
O51 O2- 4 c 0.4708(4) 1.0033(9) 0.9304(4) 0.0449(13) 1 0
O52 O2- 4 c 0.3325(4) 1.0727(9) 0.8768(4) 0.0478(14) 1 0
V7 V4+ 4 c -0.91343(15) -0.2287(3) 0.44762(10) 0.01057(16) 1 0
O53 O2- 4 c -0.9529(4) -0.3615(7) 0.4295(4) 0.0296(10) 1 0
O54 O2- 4 c -0.9602(5) -0.1272(7) 0.4040(4) 0.0409(13) 1 0
O55 O2- 4 c -0.8275(5) -0.2317(8) 0.4500(4) 0.0449(13) 1 0
O56 O2- 4 c -0.9118(5) -0.1957(9) 0.5073(4) 0.0478(14) 1 0
V8 V4+ 4 c -0.90634(15) -0.2131(2) 0.18780(10) 0.01057(16) 1 0
O57 O2- 4 c -0.9315(5) -0.1280(6) 0.2287(4) 0.0296(10) 1 0
O58 O2- 4 c -0.8894(5) -0.1275(8) 0.1437(4) 0.0409(13) 1 0
O59 O2- 4 c -0.9729(4) -0.3071(8) 0.1569(4) 0.0449(13) 1 0
O60 O2- 4 c -0.8325(4) -0.2915(9) 0.2219(4) 0.0478(14) 1 0
loop_
_atom_site_aniso_label
_atom_site_aniso_type_symbol
_atom_site_aniso_U_11
_atom_site_aniso_U_22
_atom_site_aniso_U_33
_atom_site_aniso_U_12
_atom_site_aniso_U_13
_atom_site_aniso_U_23
Bi1 Bi3+ 0.0174(4) 0.0191(4) 0.0140(3) 0.0053(3) 0.0025(3) -0.0007(3)
Bi2 Bi3+ 0.0069(3) 0.0204(4) 0.0210(4) 0.0009(3) 0.0006(3) 0.0063(3)
Bi3 Bi3+ 0.0046(3) 0.0108(3) 0.0147(3) 0.0010(2) 0.0028(2) 0.0006(2)
Bi4 Bi3+ 0.0063(3) 0.0219(3) 0.0115(3) -0.0004(2) 0.0029(2) 0.0003(2)
Bi5 Bi3+ 0.0080(3) 0.0097(3) 0.0096(3) 0.0011(2) 0.0026(2) 0.0014(2)
Bi6 Bi3+ 0.0048(3) 0.0129(3) 0.0120(3) 0.0010(2) 0.0032(2) 0.0008(2)
Bi7 Bi3+ 0.0076(3) 0.0102(3) 0.0121(3) -0.0006(2) 0.0022(2) -0.0017(2)
Bi8 Bi3+ 0.0043(3) 0.0101(3) 0.0109(3) -0.0002(2) 0.0026(2) -0.0004(2)
Bi9 Bi3+ 0.0061(3) 0.0102(3) 0.0143(3) 0.0010(2) 0.0049(2) -0.0008(2)
Bi10 Bi3+ 0.0078(3) 0.0140(3) 0.0160(3) 0.0022(2) 0.0034(2) 0.0015(2)
Bi11 Bi3+ 0.0093(3) 0.0110(3) 0.0113(3) 0.0009(2) 0.0026(3) -0.0010(2)
Bi12 Bi3+ 0.0059(3) 0.0127(3) 0.0116(3) 0.0029(2) 0.0024(2) 0.0010(2)
Bi13 Bi3+ 0.0053(3) 0.0089(3) 0.0104(3) -0.0003(2) 0.0033(2) 0.0005(2)
Bi14 Bi3+ 0.0096(3) 0.0142(3) 0.0120(3) -0.0030(2) 0.0044(2) -0.0037(2)
Bi15 Bi3+ 0.0078(3) 0.0084(3) 0.0106(3) -0.0006(2) 0.0026(2) 0.0008(2)
Bi16 Bi3+ 0.0086(3) 0.0170(3) 0.0160(3) 0.0019(2) 0.0048(3) -0.0025(2)
Bi17 Bi3+ 0.0067(3) 0.0091(3) 0.0124(3) -0.0018(2) 0.0055(2) -0.0010(2)
Bi18 Bi3+ 0.0082(3) 0.0114(3) 0.0090(3) 0.0001(2) 0.0020(2) 0.0003(2)
Bi19 Bi3+ 0.0123(3) 0.0110(3) 0.0121(3) -0.0014(2) 0.0039(2) -0.0014(2)
Bi20 Bi3+ 0.0216(4) 0.0255(4) 0.0155(3) 0.0037(3) 0.0068(3) 0.0015(3)
Bi21 Bi3+ 0.0197(4) 0.0209(4) 0.0227(4) 0.0002(3) 0.0083(3) 0.0036(3)
Bi22 Bi3+ 0.0065(3) 0.0091(3) 0.0171(3) 0.0004(2) 0.0047(2) 0.0020(2)
Bi23 Bi3+ 0.0123(3) 0.0193(3) 0.0127(3) -0.0030(3) 0.0041(3) -0.0024(3)
Bi24 Bi3+ 0.0081(3) 0.0142(3) 0.0135(3) 0.0007(2) 0.0054(3) -0.0001(2)
Bi25 Bi3+ 0.0083(3) 0.0113(3) 0.0263(4) -0.0023(2) 0.0041(3) -0.0067(3)
Bi26 Bi3+ 0.0110(3) 0.0115(3) 0.0281(4) 0.0045(2) 0.0118(3) 0.0059(3)
Na1 Na1+ 0.031(2) 0.0271(18) 0.0299(18) -0.0148(15) 0.0164(15) -0.0077(14)
Bi27 Bi3+ 0.031(2) 0.0271(18) 0.0299(18) -0.0148(15) 0.0164(15) -0.0077(14)
Na2 Na1+ 0.0138(17) 0.033(2) 0.0258(18) 0.0011(14) 0.0059(13) 0.0107(14)
Bi28 Bi3+ 0.0138(17) 0.033(2) 0.0258(18) 0.0011(14) 0.0059(13) 0.0107(14)
#End of TTdata_391418-ICSD