
#(C) 2019 by FIZ Karlsruhe - Leibniz Institute for Information Infrastructure.  All rights reserved.
data_3922-ICSD
_database_code_ICSD 3922
_audit_creation_date 2019-08-01
_chemical_name_systematic 'Sodium pentafluorouranate(IV) - beta'
_chemical_formula_structural 'Na U F5'
_chemical_formula_sum 'F5 Na1 U1'
_exptl_crystal_density_diffrn 6.28
_cell_measurement_temperature 120.
_publ_section_title

;
Expanding pentafluorouranates: hydrothermal synthesis and characterization of
beta-NaUF5 and beta-NaUF5.H2O
;
loop_
_citation_id
_citation_journal_full
_citation_year
_citation_journal_volume
_citation_page_first
_citation_page_last
_citation_journal_id_ASTM
primary 'RSC Advances' 2018 8 28642 28648 RSCACL
loop_
_publ_author_name
'Chemey, Alexander T.'
'Sperling, Joseph M.'
'Albrecht-Schmitt, Thomas E.'
_cell_length_a 10.0029(12)
_cell_length_b 10.0029(12)
_cell_length_c 13.0457(16)
_cell_angle_alpha 90
_cell_angle_beta 90
_cell_angle_gamma 120
_cell_volume 1130.44
_cell_formula_units_Z 12
_symmetry_space_group_name_H-M 'P -3 c 1'
_symmetry_Int_Tables_number 165
_refine_ls_R_factor_all 0.02
loop_
_symmetry_equiv_pos_site_id
_symmetry_equiv_pos_as_xyz
1 'x-y, -y, -z+1/2'
2 '-x, -x+y, -z+1/2'
3 'y, x, -z+1/2'
4 'x-y, x, -z'
5 'y, -x+y, -z'
6 '-x, -y, -z'
7 '-x+y, y, z+1/2'
8 'x, x-y, z+1/2'
9 '-y, -x, z+1/2'
10 '-x+y, -x, z'
11 '-y, x-y, z'
12 'x, y, z'
loop_
_atom_type_symbol
_atom_type_oxidation_number
U4+ 4
Na1+ 1
F1- -1
loop_
_atom_site_label
_atom_site_type_symbol
_atom_site_symmetry_multiplicity
_atom_site_Wyckoff_symbol
_atom_site_fract_x
_atom_site_fract_y
_atom_site_fract_z
_atom_site_B_iso_or_equiv
_atom_site_occupancy
_atom_site_attached_hydrogens
U1 U4+ 12 g 0.07583(2) 0.39943(2) 0.89893(2) 0.00251(9) 1 0
Na1 Na1+ 4 d -0.3333 0.3333 0.8421(3) 0.0086(9) 1 0
Na2 Na1+ 2 a 0. 0. 0.75 0.0246(17) 1 0
Na3 Na1+ 2 b 0. 0. 1. 0.045(3) 1 0
Na4 Na1+ 12 g 0.3289(15) 0.2861(14) 0.7907(10) 0.041(3) 0.3333 0
F1 F1- 12 g -0.4140(4) 0.1165(4) 0.9466(3) 0.0070(7) 1 0
F2 F1- 12 g -0.1224(4) 0.1896(4) 0.9777(3) 0.0088(7) 1 0
F3 F1- 12 g -0.1318(4) 0.3091(5) 0.7833(3) 0.0106(8) 1 0
F4 F1- 12 g 0.0895(5) 0.2007(5) 0.8406(3) 0.0184(9) 1 0
F5 F1- 12 g 0.3417(4) 0.5116(4) 0.8631(3) 0.0109(8) 1 0
loop_
_atom_site_aniso_label
_atom_site_aniso_type_symbol
_atom_site_aniso_U_11
_atom_site_aniso_U_22
_atom_site_aniso_U_33
_atom_site_aniso_U_12
_atom_site_aniso_U_13
_atom_site_aniso_U_23
U1 U4+ 0.00250(12) 0.00270(12) 0.00201(12) 0.00107(9) -0.00019(7) -0.00013(7)
Na1 Na1+ 0.0081(13) 0.0081(13) 0.010(2) 0.0041(7) 0. 0.
Na2 Na1+ 0.024(3) 0.024(3) 0.026(4) 0.0118(13) 0. 0.
Na3 Na1+ 0.024(3) 0.024(3) 0.088(8) 0.0118(15) 0. 0.
Na4 Na1+ 0.038(7) 0.036(6) 0.063(8) 0.028(6) -0.001(6) -0.015(6)
F1 F1- 0.0057(17) 0.0055(17) 0.0084(16) 0.0017(15) -0.0012(14) 0.0018(13)
F2 F1- 0.0081(17) 0.0058(17) 0.0119(17) 0.0031(15) 0.0012(14) 0.0020(14)
F3 F1- 0.0076(18) 0.021(2) 0.0038(17) 0.0073(16) -0.0006(14) -0.0005(15)
F4 F1- 0.026(2) 0.015(2) 0.017(2) 0.0125(19) -0.0078(18) -0.0040(17)
F5 F1- 0.0041(17) 0.0105(19) 0.0147(18) 0.0012(15) -0.0009(14) 0.0040(15)
#End of TTdata_3922-ICSD