
#(C) 2019 by FIZ Karlsruhe - Leibniz Institute for Information Infrastructure.  All rights reserved.
data_39293-ICSD
_database_code_ICSD 39293
_audit_creation_date 1990-12-27
_audit_update_record 2015-02-01
_chemical_name_systematic 'Trisodium rubidium bis(molybdate) nonahydrate'
_chemical_formula_structural 'Na3 Rb (Mo O4)2 (H2 O)9'
_chemical_formula_sum 'H18 Mo2 Na3 O17 Rb1'
_chemical_name_structure_type Na3Rb(MoO4)2(H2O)9
_exptl_crystal_density_diffrn 2.16
_publ_section_title

;
Double molybdates and tungstates of the composition Na3 M(+) (E O4)2 * 9(H2 O)
(M= K, Rb; E= Mo, W): synthesis, structure, dehydratation.
;
loop_
_citation_id
_citation_journal_full
_citation_year
_citation_journal_volume
_citation_page_first
_citation_page_last
_citation_journal_id_ASTM
primary Kristallografiya 1990 35 1094 1098 KRISAJ
loop_
_publ_author_name
'Klevtsova, R.F.'
'Glinskaya, L.A.'
'Perepelitsa, A.P.'
'Ishchenko, V.N.'
'Klevtsov, P.V.'
_cell_length_a 9.648(1)
_cell_length_b 9.648(1)
_cell_length_c 12.157(2)
_cell_angle_alpha 90.
_cell_angle_beta 90.
_cell_angle_gamma 120.
_cell_volume 980.01
_cell_formula_units_Z 2
_symmetry_space_group_name_H-M 'P 63/m'
_symmetry_Int_Tables_number 176
_refine_ls_R_factor_all 0.043
loop_
_symmetry_equiv_pos_site_id
_symmetry_equiv_pos_as_xyz
1 '-x+y, -x, -z+1/2'
2 '-y, x-y, -z+1/2'
3 'x, y, -z+1/2'
4 'x-y, x, -z'
5 'y, -x+y, -z'
6 '-x, -y, -z'
7 'x-y, x, z+1/2'
8 'y, -x+y, z+1/2'
9 '-x, -y, z+1/2'
10 '-x+y, -x, z'
11 '-y, x-y, z'
12 'x, y, z'
loop_
_atom_type_symbol
_atom_type_oxidation_number
Mo6+ 6
Rb1+ 1
Na1+ 1
O2- -2
H1+ 1
loop_
_atom_site_label
_atom_site_type_symbol
_atom_site_symmetry_multiplicity
_atom_site_Wyckoff_symbol
_atom_site_fract_x
_atom_site_fract_y
_atom_site_fract_z
_atom_site_B_iso_or_equiv
_atom_site_occupancy
_atom_site_attached_hydrogens
Mo1 Mo6+ 4 f 0.3333 0.6667 0.4761 1.61(2) 1. 0
Rb1 Rb1+ 2 a 0 0 0.25 3.57(4) 1. 0
Na1 Na1+ 6 h 0.2894(3) 0.4567(3) 0.75 2.2(1) 1. 0
O1 O2- 4 f 0.3333 0.6667 0.6205(4) 2.1(1) 1. 0
O2 O2- 12 i 0.2867(4) 0.4753(3) 0.4292(2) 2.6(2) 1. 0
O3 O2- 6 h 0.0213(5) 0.4145(5) 0.75 2.8(2) 1. 0
O4 O2- 12 i 0.2684(4) 0.0265(4) 0.3865(3) 3.1(2) 1. 0
H1 H1+ 12 i -.049 0.371 0.691 . 1. 0
H2 H1+ 12 i 0.337 0.081 0.448 . 1. 0
H3 H1+ 12 i 0.242 -.079 0.401 . 1. 0
#End of TTdata_39293-ICSD