
#(C) 2019 by FIZ Karlsruhe - Leibniz Institute for Information Infrastructure.  All rights reserved.
data_39374-ICSD
_database_code_ICSD 39374
_audit_creation_date 1991-07-10
_audit_update_record 2006-04-01
_chemical_name_systematic 'Disodium closo-dodecaborane tetrahydrate'
_chemical_formula_structural 'Na2 (B12 H12) (H2 O)4'
_chemical_formula_sum 'H20 B12 Na2 O4'
_exptl_crystal_density_diffrn 1.25
_cell_measurement_temperature 295.
_publ_section_title

;
Dynamic structure of Na2 B12 H12 *4 H2 O in temperature interval 130-300 K.
Structural transformation at 255 K.
;
loop_
_citation_id
_citation_journal_full
_citation_year
_citation_journal_volume
_citation_page_first
_citation_page_last
_citation_journal_id_ASTM
primary 'Koordinatsionnaya Khimiya' 1991 17 21 28 KOKHDC
loop_
_publ_author_name
'Ponomarev, V.I.'
'Lyubeznova, T.Yu.'
'Solntsev, K.A.'
'Kuznetsov, N.T.'
_cell_length_a 10.024(4)
_cell_length_b 10.024(4)
_cell_length_c 13.688(6)
_cell_angle_alpha 90.
_cell_angle_beta 90.
_cell_angle_gamma 90.
_cell_volume 1375.38
_cell_formula_units_Z 4
_symmetry_space_group_name_H-M 'P 42/n c m S'
_symmetry_Int_Tables_number 138
_refine_ls_R_factor_all 0.077
loop_
_symmetry_equiv_pos_site_id
_symmetry_equiv_pos_as_xyz
1 'y+1/2, -x+1/2, z+1/2'
2 'y+1/2, x+1/2, z'
3 'y, x, -z+1/2'
4 'y, -x, -z'
5 '-y+1/2, x+1/2, z+1/2'
6 '-y+1/2, -x+1/2, z'
7 '-y, -x, -z+1/2'
8 '-y, x, -z'
9 '-x+1/2, -y+1/2, -z+1/2'
10 'x+1/2, -y+1/2, -z'
11 'x, -y, z+1/2'
12 '-x, -y, z'
13 'x+1/2, y+1/2, -z+1/2'
14 '-x+1/2, y+1/2, -z'
15 '-x, y, z+1/2'
16 'x, y, z'
loop_
_atom_type_symbol
_atom_type_oxidation_number
Na1+ 1
O2- -2
B1- -1.166
H1+ 1
loop_
_atom_site_label
_atom_site_type_symbol
_atom_site_symmetry_multiplicity
_atom_site_Wyckoff_symbol
_atom_site_fract_x
_atom_site_fract_y
_atom_site_fract_z
_atom_site_B_iso_or_equiv
_atom_site_occupancy
_atom_site_attached_hydrogens
Na1 Na1+ 8 g 0.4495(5) 0.4495(5) 0.25 8.16 0.5 0
Na2 Na1+ 16 j 0.0464(3) 0.0446(5) 0.5020(9) 5.81 0.25 0
O1 O2- 16 j 0.0644(2) 0.0538(1) 0.6514(4) 5.11 0.5 0
O2 O2- 16 j 0.0641(1) 0.0543(1) 0.6051(4) 3.9 0.5 0
B1 B1- 8 i 0.4369(4) 0.0631(4) 0.0142(4) 2.79 1. 0
B2 B1- 8 i 0.4387(5) 0.0613(5) 0.2254(4) 3.1 1. 0
B3 B1- 16 j 0.3365(3) 0.0387(3) 0.1194(2) 2.88 1. 0
B4 B1- 8 i 0.6009(4) 0.1009(4) 0.0542(3) 2.63 1. 0
B5 B1- 8 i 0.6009(4) 0.1009(4) 0.1846(3) 2.92 1. 0
H1 H1+ 8 i 0.398(3) 0.102(3) -.057(3) . 1. 0
H2 H1+ 8 i 0.393(3) 0.107(3) 0.290(3) . 1. 0
H3 H1+ 16 j 0.237(3) 0.079(3) 0.117(2) . 1. 0
H4 H1+ 8 i 0.666(4) 0.166(4) 0.012(3) . 1. 0
H5 H1+ 8 i 0.676(3) 0.176(3) 0.223(3) . 1. 0
H6 H1+ 16 j 0.617(7) 0.380(3) 0.387(5) . 0.5 0
H7 H1+ 16 j 0.472(7) 0.310(7) 0.358(4) . 0.5 0
H8 H1+ 16 j 0.397(7) 0.302(8) -.132(5) . 0.5 0
H9 H1+ 16 j 0.464(8) 0.292(8) -.094(5) . 0.5 0
#End of TTdata_39374-ICSD