
#(C) 2019 by FIZ Karlsruhe - Leibniz Institute for Information Infrastructure.  All rights reserved.
data_39489-ICSD
_database_code_ICSD 39489
_audit_creation_date 1992-08-20
_audit_update_record 2009-02-01
_chemical_name_systematic 'Trisodium dichromium tris(phosphate(V))'
_chemical_formula_structural 'Na3 Cr2 (P O4)3'
_chemical_formula_sum 'Cr2 Na3 O12 P3'
_chemical_name_structure_type 'Nasicon high'
_exptl_crystal_density_diffrn 3.26
_publ_section_title
'Specific features of the structure and properties of Na3 Cr2 (P O4)3 crystals'
loop_
_citation_id
_citation_journal_full
_citation_year
_citation_journal_volume
_citation_page_first
_citation_page_last
_citation_journal_id_ASTM
primary Kristallografiya 1991 36 1126 1130 KRISAJ
loop_
_publ_author_name
'Genkina, E.A.'
'Kalinin, V.B.'
'Maksimov, B.A.'
'Golubev, A.M.'
_cell_length_a 8.643(2)
_cell_length_b 8.643(2)
_cell_length_c 21.619(3)
_cell_angle_alpha 90.
_cell_angle_beta 90.
_cell_angle_gamma 120.
_cell_volume 1398.61
_cell_formula_units_Z 6
_symmetry_space_group_name_H-M 'R -3 c H'
_symmetry_Int_Tables_number 167
_refine_ls_R_factor_all 0.04
loop_
_symmetry_equiv_pos_site_id
_symmetry_equiv_pos_as_xyz
1 'x-y, -y, -z+1/2'
2 '-x, -x+y, -z+1/2'
3 'y, x, -z+1/2'
4 'x-y, x, -z'
5 'y, -x+y, -z'
6 '-x, -y, -z'
7 '-x+y, y, z+1/2'
8 'x, x-y, z+1/2'
9 '-y, -x, z+1/2'
10 '-x+y, -x, z'
11 '-y, x-y, z'
12 'x, y, z'
13 'x-y+2/3, -y+1/3, -z+5/6'
14 '-x+2/3, -x+y+1/3, -z+5/6'
15 'y+2/3, x+1/3, -z+5/6'
16 'x-y+2/3, x+1/3, -z+1/3'
17 'y+2/3, -x+y+1/3, -z+1/3'
18 '-x+2/3, -y+1/3, -z+1/3'
19 '-x+y+2/3, y+1/3, z+5/6'
20 'x+2/3, x-y+1/3, z+5/6'
21 '-y+2/3, -x+1/3, z+5/6'
22 '-x+y+2/3, -x+1/3, z+1/3'
23 '-y+2/3, x-y+1/3, z+1/3'
24 'x+2/3, y+1/3, z+1/3'
25 'x-y+1/3, -y+2/3, -z+1/6'
26 '-x+1/3, -x+y+2/3, -z+1/6'
27 'y+1/3, x+2/3, -z+1/6'
28 'x-y+1/3, x+2/3, -z+2/3'
29 'y+1/3, -x+y+2/3, -z+2/3'
30 '-x+1/3, -y+2/3, -z+2/3'
31 '-x+y+1/3, y+2/3, z+1/6'
32 'x+1/3, x-y+2/3, z+1/6'
33 '-y+1/3, -x+2/3, z+1/6'
34 '-x+y+1/3, -x+2/3, z+2/3'
35 '-y+1/3, x-y+2/3, z+2/3'
36 'x+1/3, y+2/3, z+2/3'
loop_
_atom_type_symbol
_atom_type_oxidation_number
Cr3+ 3
P5+ 5
O2- -2
Na1+ 1
loop_
_atom_site_label
_atom_site_type_symbol
_atom_site_symmetry_multiplicity
_atom_site_Wyckoff_symbol
_atom_site_fract_x
_atom_site_fract_y
_atom_site_fract_z
_atom_site_B_iso_or_equiv
_atom_site_occupancy
_atom_site_attached_hydrogens
Cr1 Cr3+ 12 c 0 0 0.1466 0.47 1. 0
P1 P5+ 18 e 0.2897(1) 0 0.25 0.66 1. 0
O1 O2- 36 f 0.1748(5) -.0331(6) 0.1925(1) 1.91 1. 0
O2 O2- 36 f 0.3103(4) -.1649(5) 0.2566(1) 1.21 1. 0
Na1 Na1+ 6 b 0 0 0 9.07 0.738 0
Na2 Na1+ 18 e 0.3668(6) 0.3668(6) 0.25 3.66 0.754 0
#End of TTdata_39489-ICSD