
#(C) 2019 by FIZ Karlsruhe - Leibniz Institute for Information Infrastructure.  All rights reserved.
data_39543-ICSD
_database_code_ICSD 39543
_audit_creation_date 1992-08-20
_chemical_name_systematic 'Disodium nickel molybdate'
_chemical_formula_structural 'Na1.9 Ni1.05 (Mo O4)2'
_chemical_formula_sum 'Mo2 Na1.9 Ni1.05 O8'
_exptl_crystal_density_diffrn 3.83
_publ_section_title

;
Crystal structures of double molybdates Na4Cu(MoO4)3 and Na2Ni(MoO4)2 - new
members of the alluodite family
;
loop_
_citation_id
_citation_journal_full
_citation_year
_citation_journal_volume
_citation_page_first
_citation_page_last
_citation_journal_id_ASTM
primary 'Zhurnal Strukturnoi Khimii' 1991 32 127 136 ZSTKAI
loop_
_publ_author_name
'Klevtsova, R.F.'
'Borisov, S.V.'
'Bliznyuk, N.A.'
'Glinskaya, L.A.'
'Klevtsov, P.V.'
_cell_length_a 7.086(2)
_cell_length_b 13.348(4)
_cell_length_c 12.613(3)
_cell_angle_alpha 90.
_cell_angle_beta 111.85(2)
_cell_angle_gamma 90.
_cell_volume 1107.28
_cell_formula_units_Z 6
_symmetry_space_group_name_H-M 'A 1 2/a 1'
_symmetry_Int_Tables_number 15
_refine_ls_R_factor_all 0.047
loop_
_symmetry_equiv_pos_site_id
_symmetry_equiv_pos_as_xyz
1 '-x+1/2, y, -z'
2 '-x, -y, -z'
3 'x+1/2, -y, z'
4 'x, y, z'
5 '-x+1/2, y+1/2, -z+1/2'
6 '-x, -y+1/2, -z+1/2'
7 'x+1/2, -y+1/2, z+1/2'
8 'x, y+1/2, z+1/2'
loop_
_atom_type_symbol
_atom_type_oxidation_number
Mo6+ 6
Ni2+ 2
Na1+ 1
O2- -2
Na1+ 1
Ni2+ 2
loop_
_atom_site_label
_atom_site_type_symbol
_atom_site_symmetry_multiplicity
_atom_site_Wyckoff_symbol
_atom_site_fract_x
_atom_site_fract_y
_atom_site_fract_z
_atom_site_B_iso_or_equiv
_atom_site_occupancy
_atom_site_attached_hydrogens
Mo1 Mo6+ 4 e 0.25 0.784 0 0.005 1. 0
Mo2 Mo6+ 8 f 0.1234(1) 0.6082(1) 0.2333(1) 0.004 1. 0
Ni1 Ni2+ 8 f 0.3775(2) 0.8372(1) 0.2870(1) 0.004 0.752 0
Na1 Na1+ 4 e 0.25 0.2357(5) 0 0.006 0.93 0
Na2 Na1+ 4 a 0 0 0 0.007 1. 0
Na3 Na1+ 4 e 0.25 0.5089(9) 0 0.011 0.42 0
O1 O2- 8 f 0.471(1) 0.7080(6) 0.0419(7) 0.006 1. 0
O2 O2- 8 f 0.248(1) 0.8661(7) 0.1085(8) 0.008 1. 0
O3 O2- 8 f 0.327(1) 0.6816(7) 0.2207(7) 0.006 1. 0
O4 O2- 8 f 0.103(1) 0.4924(8) 0.1646(9) 0.009 1. 0
O5 O2- 8 f 0.181(1) 0.5867(6) 0.3782(7) 0.007 1. 0
O6 O2- 8 f 0.889(1) 0.6709(7) 0.1728(7) 0.006 1. 0
Na4 Na1+ 8 f 0.3775(2) 0.8372(1) 0.2870(1) 0.004 0.25 0
Ni2 Ni2+ 4 e 0.25 0.2357(5) 0 0.006 0.07 0
#End of TTdata_39543-ICSD