
#(C) 2019 by FIZ Karlsruhe - Leibniz Institute for Information Infrastructure.  All rights reserved.
data_39559-ICSD
_database_code_ICSD 39559
_audit_creation_date 1992-08-20
_audit_update_record 2012-08-01
_chemical_name_systematic 'Trisodium strontium carbonate phosphate'
_chemical_formula_structural 'Na3 Sr (P O4) (C O3)'
_chemical_formula_sum 'C1 Na3 O7 P1 Sr1'
_chemical_name_mineral Crawfordite
_exptl_crystal_density_diffrn 3.18
_publ_section_title
'Crystal structure of a new mineral Na3SrPO4CO3 from bredleyite group.'
loop_
_citation_id
_citation_journal_full
_citation_year
_citation_journal_volume
_citation_page_first
_citation_page_last
_citation_journal_id_ASTM
primary 'Doklady Akademii Nauk SSSR' 1992 322 531 535 DANKAS
loop_
_publ_author_name
'Sokolova, E.V.'
'Khomyakov, A.P.'
_cell_length_a 9.187(3)
_cell_length_b 5.279(1)
_cell_length_c 6.707(2)
_cell_angle_alpha 90.
_cell_angle_beta 90.
_cell_angle_gamma 89.98(3)
_cell_volume 325.28
_cell_formula_units_Z 2
_symmetry_space_group_name_H-M 'P 1 1 21'
_symmetry_Int_Tables_number 4
_refine_ls_R_factor_all 0.04
loop_
_symmetry_equiv_pos_site_id
_symmetry_equiv_pos_as_xyz
1 '-x, -y, z+1/2'
2 'x, y, z'
loop_
_atom_type_symbol
_atom_type_oxidation_number
Sr2+ 2
P5+ 5
Na1+ 1
C4+ 4
O2- -2
loop_
_atom_site_label
_atom_site_type_symbol
_atom_site_symmetry_multiplicity
_atom_site_Wyckoff_symbol
_atom_site_fract_x
_atom_site_fract_y
_atom_site_fract_z
_atom_site_B_iso_or_equiv
_atom_site_occupancy
_atom_site_attached_hydrogens
Sr1 Sr2+ 2 a 0.6764(2) -.0003(3) 0.25 1.10(3) 1. 0
P1 P5+ 2 a 0.3305(5) -.0001(8) 0.254(2) 0.58(7) 1. 0
Na1 Na1+ 2 a 0.1584(9) 0.498(1) 0.236(4) 3.4(3) 1. 0
Na2 Na1+ 2 a 0.006(2) -.006(6) 0.006(3) 3.3(2) 1. 0
Na3 Na1+ 2 a 0.4658(7) 0.501(2) 0.456(1) 1.3(2) 1. 0
C1 C4+ 2 a 0.154(2) 0.508(3) 0.773 3.1(7) 1. 0
O1 O2- 2 a 0.705(1) 0.493(2) 0.270(4) 1.8(3) 1. 0
O2 O2- 2 a 0.915(1) 0.290(2) 0.246(7) 3.9(5) 1. 0
O3 O2- 2 a 0.235(1) 0.143(3) 0.105(2) 1.9(4) 1. 0
O4 O2- 2 a 0.427(1) 0.805(2) 0.156(2) 2.2(4) 1. 0
O5 O2- 2 a 0.917(1) 0.711(2) 0.255(7) 4.2(5) 1. 0
O6 O2- 2 a 0.426(1) 0.197(2) 0.353(2) 1.5(3) 1. 0
O7 O2- 2 a 0.762(1) 0.137(2) 0.911(2) 1.2(3) 1. 0
#End of TTdata_39559-ICSD