
#(C) 2018 by FIZ Karlsruhe - Leibniz Institute for Information Infrastructure.  All rights reserved.
data_39574-ICSD
_database_code_ICSD 39574
_audit_creation_date 1993-08-22
_chemical_name_systematic 'Lithium phyllo-trioxoantimonate'
_chemical_formula_structural 'Li (Sb O3)'
_chemical_formula_sum 'Li1 O3 Sb1'
_chemical_name_structure_type LiSbO3
_exptl_crystal_density_diffrn 5.46
_publ_section_title 'Accurate definition of LiSbO3 crystal structure.'
loop_
_citation_id
_citation_journal_full
_citation_year
_citation_journal_volume
_citation_page_first
_citation_page_last
_citation_journal_id_ASTM
primary Kristallografiya 1992 37 356 358 KRISAJ
loop_
_publ_author_name
'Genkina, E.A.'
_cell_length_a 4.8904(3)
_cell_length_b 8.4863(8)
_cell_length_c 5.1798(3)
_cell_angle_alpha 90.
_cell_angle_beta 90.
_cell_angle_gamma 90.
_cell_volume 214.97
_cell_formula_units_Z 4
_symmetry_space_group_name_H-M 'P n c n'
_symmetry_Int_Tables_number 52
_refine_ls_R_factor_all 0.025
loop_
_symmetry_equiv_pos_site_id
_symmetry_equiv_pos_as_xyz
1 '-x+1/2, y+1/2, z+1/2'
2 'x+1/2, y+1/2, -z'
3 'x, -y, z+1/2'
4 '-x, -y, -z'
5 'x+1/2, -y+1/2, -z+1/2'
6 '-x+1/2, -y+1/2, z'
7 '-x, y, -z+1/2'
8 'x, y, z'
loop_
_atom_type_symbol
_atom_type_oxidation_number
Sb5+ 5
Li1+ 1
O2- -2
loop_
_atom_site_label
_atom_site_type_symbol
_atom_site_symmetry_multiplicity
_atom_site_Wyckoff_symbol
_atom_site_fract_x
_atom_site_fract_y
_atom_site_fract_z
_atom_site_B_iso_or_equiv
_atom_site_occupancy
_atom_site_attached_hydrogens
Sb1 Sb5+ 4 c 0 0.405 0.25 0.37(2) 1. 0
Li1 Li1+ 4 c 0 0.177(3) 0.75 2.67(45) 1. 0
O1 O2- 8 e 0.2058(4) 0.4203(3) 0.5746(6) 0.46(4) 1. 0
O2 O2- 4 d 0.25 0.25 0.0952(7) 0.44(5) 1. 0
#End of TTdata_39574-ICSD