
#(C) 2019 by FIZ Karlsruhe - Leibniz Institute for Information Infrastructure.  All rights reserved.
data_39624-ICSD
_database_code_ICSD 39624
_audit_creation_date 1993-08-22
_audit_update_record 2011-02-01
_chemical_name_systematic 'Sodium niobate'
_chemical_formula_structural 'Na (Nb O3)'
_chemical_formula_sum 'Na1 Nb1 O3'
_chemical_name_structure_type NaNbO3(oP20)
_chemical_name_mineral 'Lueshite low'
_exptl_crystal_density_diffrn 4.55
_publ_section_title
'X-ray diffraction study of Na Nb O3 single crystals in electric field.'
loop_
_citation_id
_citation_journal_full
_citation_year
_citation_journal_volume
_citation_page_first
_citation_page_last
_citation_journal_id_ASTM
primary Kristallografiya 1992 37 1502 1507 KRISAJ
loop_
_publ_author_name
'Shuvaeva, V.A.'
'Antipin, M.Yu.'
'Lindeman, S.V.'
'Fesenko, O.E.'
'Smotrakov, V.G.'
'Struchkov, Yu.T.'
_cell_length_a 5.569(2)
_cell_length_b 7.790(2)
_cell_length_c 5.518(2)
_cell_angle_alpha 90.
_cell_angle_beta 90.
_cell_angle_gamma 90.
_cell_volume 239.38
_cell_formula_units_Z 4
_symmetry_space_group_name_H-M 'P 21 m a'
_symmetry_Int_Tables_number 26
_refine_ls_R_factor_all 0.028
loop_
_symmetry_equiv_pos_site_id
_symmetry_equiv_pos_as_xyz
1 'x+1/2, y, -z'
2 'x+1/2, -y, -z'
3 'x, -y, z'
4 'x, y, z'
loop_
_atom_type_symbol
_atom_type_oxidation_number
Nb5+ 5
Na1+ 1
O2- -2
loop_
_atom_site_label
_atom_site_type_symbol
_atom_site_symmetry_multiplicity
_atom_site_Wyckoff_symbol
_atom_site_fract_x
_atom_site_fract_y
_atom_site_fract_z
_atom_site_B_iso_or_equiv
_atom_site_occupancy
_atom_site_attached_hydrogens
Nb1 Nb5+ 4 c 0.2697(21) 0.2507(1) 0.2440(1) . 1. 0
Na1 Na1+ 2 a 0.2523(10) 0 0.7392(7) . 1. 0
Na2 Na1+ 2 b 0.28 0.5 0.7415(7) . 1. 0
O1 O2- 2 a 0.2401(23) 0 0.3096(9) . 1. 0
O2 O2- 2 b 0.2213(23) 0.5 0.1895(10) . 1. 0
O3 O2- 4 c 0.0265(22) 0.2804(4) 0.5387(5) . 1. 0
O4 O2- 4 c -.0459(22) 0.2206(4) 0.0380(6) . 1. 0
loop_
_atom_site_aniso_label
_atom_site_aniso_type_symbol
_atom_site_aniso_U_11
_atom_site_aniso_U_22
_atom_site_aniso_U_33
_atom_site_aniso_U_12
_atom_site_aniso_U_13
_atom_site_aniso_U_23
Nb1 Nb5+ 0.004(1) 0.002(1) 0.007(1) 0.0(1) 0.0(1) 0.0(1)
Na1 Na1+ 0.018(3) 0.016(1) 0.018(2) 0 -.008(2) 0
Na2 Na1+ 0.018(2) 0.015(1) 0.018(2) 0 -.005(2) 0
O1 O2- 0.010(2) 0.001(1) 0.012(2) 0 -.001(1) 0
O2 O2- 0.009(2) 0.002(1) 0.011(2) 0 0.0(1) 0
O3 O2- 0.009(1) 0.008(1) 0.009(1) -.001(1) 0.002(1) 0.00(1)
O4 O2- 0.006(1) 0.007(1) 0.011(1) 0.00(1) -.002(1) 0.001(1)
#End of TTdata_39624-ICSD