
#(C) 2019 by FIZ Karlsruhe - Leibniz Institute for Information Infrastructure.  All rights reserved.
data_39656-ICSD
_database_code_ICSD 39656
_audit_creation_date 1993-08-22
_chemical_name_systematic 'Sodium cesium hexafluorostannate'
_chemical_formula_structural 'Na Cs (Sn F6)'
_chemical_formula_sum 'Cs1 F6 Na1 Sn1'
_chemical_name_structure_type NH4MnFeF6
_exptl_crystal_density_diffrn 4.12
_publ_section_title 'Crystal structures of Na Rb Sn F6 and Na Cs Sn F6.'
loop_
_citation_id
_citation_journal_full
_citation_year
_citation_journal_volume
_citation_page_first
_citation_page_last
_citation_journal_id_ASTM
primary 'Koordinatsionnaya Khimiya' 1992 18 1139 1143 KOKHDC
loop_
_publ_author_name
'Gerasimenko, A.V.'
'Ivanov, S.B.'
'Antokhina, T.F.'
'Sergienko, V.I.'
_cell_length_a 8.352(1)
_cell_length_b 13.389(2)
_cell_length_c 11.206(2)
_cell_angle_alpha 90.
_cell_angle_beta 90.
_cell_angle_gamma 90.
_cell_volume 1253.11
_cell_formula_units_Z 8
_symmetry_space_group_name_H-M 'P b c n'
_symmetry_Int_Tables_number 60
_refine_ls_R_factor_all 0.029
loop_
_symmetry_equiv_pos_site_id
_symmetry_equiv_pos_as_xyz
1 'x, -y, z+1/2'
2 '-x+1/2, y+1/2, z'
3 'x+1/2, y+1/2, -z+1/2'
4 '-x, -y, -z'
5 '-x, y, -z+1/2'
6 'x+1/2, -y+1/2, -z'
7 '-x+1/2, -y+1/2, z+1/2'
8 'x, y, z'
loop_
_atom_type_symbol
_atom_type_oxidation_number
Sn4+ 4
Cs1+ 1
Na1+ 1
F1- -1
loop_
_atom_site_label
_atom_site_type_symbol
_atom_site_symmetry_multiplicity
_atom_site_Wyckoff_symbol
_atom_site_fract_x
_atom_site_fract_y
_atom_site_fract_z
_atom_site_B_iso_or_equiv
_atom_site_occupancy
_atom_site_attached_hydrogens
Sn1 Sn4+ 8 d 0.24880(3) 0.36271(2) 0.42378(2) 1.098(8) 1. 0
Cs1 Cs1+ 4 c 0.5 0.10927(5) 0.25 2.51(2) 1. 0
Cs2 Cs1+ 4 c 0 0.07547(3) 0.25 1.94(1) 1. 0
Na1 Na1+ 8 d 0.2509(2) 0.8585(1) 0.0742(2) 1.41(1) 1. 0
F1 F1- 8 d 0.7777(4) 0.4142(3) 0.2385(3) 2.3(1) 1. 0
F2 F1- 8 d 0.7743(3) 0.1856(3) 0.4114(3) 2.0(1) 1. 0
F3 F1- 8 d 0.5206(4) 0.1216(3) 0.5460(4) 2.9(1) 1. 0
F4 F1- 8 d 0.9769(4) 0.1516(3) 0.6055(3) 2.7(1) 1. 0
F5 F1- 8 d 0.7896(4) 0.0016(3) 0.5213(4) 3.1(1) 1. 0
F6 F1- 8 d 0.7204(4) 0.2770(2) 0.6235(3) 2.2(1) 1. 0
#End of TTdata_39656-ICSD