
#(C) 2017 by FIZ Karlsruhe - Leibniz Institute for Information Infrastructure.  All rights reserved.
data_39668-ICSD
_database_code_ICSD 39668
_audit_creation_date 1994-01-19
_audit_update_record 2010-02-01
_chemical_name_systematic 'Lithium potassium yttrium fluoride'
_chemical_formula_structural 'Li K Y F5'
_chemical_formula_sum 'F5 K1 Li1 Y1'
_exptl_crystal_density_diffrn 3.49
_publ_section_title
'Investigation of phase structure, formed in the Li F - K F - Y F3 system'
loop_
_citation_id
_citation_journal_full
_citation_year
_citation_journal_volume
_citation_page_first
_citation_page_last
_citation_journal_id_ASTM
primary 'Zhurnal Neorganicheskoi Khimii' 1992 37 2813 2819 ZNOKAQ
loop_
_publ_author_name
'Goryunov, A.V.'
'Popov, A.I.'
'Khaidukov, N.M.'
'Fedorov, P.P.'
_cell_length_a 6.2925(4)
_cell_length_b 11.747(1)
_cell_length_c 6.4669(5)
_cell_angle_alpha 90.
_cell_angle_beta 113.715(6)
_cell_angle_gamma 90.
_cell_volume 437.65
_cell_formula_units_Z 4
_symmetry_space_group_name_H-M 'P 1 21/c 1'
_symmetry_Int_Tables_number 14
_refine_ls_R_factor_all 0.026
loop_
_symmetry_equiv_pos_site_id
_symmetry_equiv_pos_as_xyz
1 'x, -y+1/2, z+1/2'
2 '-x, -y, -z'
3 '-x, y+1/2, -z+1/2'
4 'x, y, z'
loop_
_atom_type_symbol
_atom_type_oxidation_number
Li1+ 1
Y3+ 3
K1+ 1
F1- -1
loop_
_atom_site_label
_atom_site_type_symbol
_atom_site_symmetry_multiplicity
_atom_site_Wyckoff_symbol
_atom_site_fract_x
_atom_site_fract_y
_atom_site_fract_z
_atom_site_B_iso_or_equiv
_atom_site_occupancy
_atom_site_attached_hydrogens
Li1 Li1+ 4 e 0.4431(13) 0.2446(7) 0.0394(15) 0.0149(25) 1. 0
Y1 Y3+ 4 e 0.3174(1) 0.4978 0.1793(1) 0.0047(1) 1. 0
K1 K1+ 4 e -.0508(2) 0.3488(1) 0.4631(2) 0.0134(4) 1. 0
F1 F1- 4 e 0.5368(4) 0.3949(2) 0.0364(5) 0.0125(9) 1. 0
F2 F1- 4 e 0.2766(5) 0.1948(2) 0.7202(5) 0.0125(9) 1. 0
F3 F1- 4 e -.0436(4) 0.5075(3) 0.1735(4) 0.0124(7) 1. 0
F4 F1- 4 e -.2885(5) 0.3254(2) 0.7196(5) 0.0129(9) 1. 0
F5 F1- 4 e 0.3362(5) 0.4676(3) 0.5483(5) 0.0137(9) 1. 0
#End of TTdata_39668-ICSD