
#(C) 2019 by FIZ Karlsruhe - Leibniz Institute for Information Infrastructure.  All rights reserved.
data_39689-ICSD
_database_code_ICSD 39689
_audit_creation_date 1994-02-04
_audit_update_record 2006-04-01
_chemical_name_systematic 'Sodium antimony germanate'
_chemical_formula_structural 'Na Sb (Ge O5)'
_chemical_formula_sum 'Ge1 Na1 O5 Sb1'
_chemical_name_structure_type Tilasite
_exptl_crystal_density_diffrn 4.98
_publ_section_title
'Crystal structure of Na Sb Ge O5 - an analogue of mineral sphene Ca Ti Si O5'
loop_
_citation_id
_citation_journal_full
_citation_year
_citation_journal_volume
_citation_page_first
_citation_page_last
_citation_journal_id_ASTM
primary 'Zhurnal Strukturnoi Khimii' 1993 34 177 178 ZSTKAI
loop_
_publ_author_name
'Belokoneva, E.L.'
_cell_length_a 6.749(3)
_cell_length_b 8.923(4)
_cell_length_c 7.248(2)
_cell_angle_alpha 90.
_cell_angle_beta 114.64(3)
_cell_angle_gamma 90.
_cell_volume 396.74
_cell_formula_units_Z 4
_symmetry_space_group_name_H-M 'C 1 2/c 1'
_symmetry_Int_Tables_number 15
_refine_ls_R_factor_all 0.033
loop_
_symmetry_equiv_pos_site_id
_symmetry_equiv_pos_as_xyz
1 'x, -y, z+1/2'
2 '-x, -y, -z'
3 '-x, y, -z+1/2'
4 'x, y, z'
5 'x+1/2, -y+1/2, z+1/2'
6 '-x+1/2, -y+1/2, -z'
7 '-x+1/2, y+1/2, -z+1/2'
8 'x+1/2, y+1/2, z'
loop_
_atom_type_symbol
_atom_type_oxidation_number
Sb5+ 5
Ge4+ 4
Na1+ 1
O2- -2
loop_
_atom_site_label
_atom_site_type_symbol
_atom_site_symmetry_multiplicity
_atom_site_Wyckoff_symbol
_atom_site_fract_x
_atom_site_fract_y
_atom_site_fract_z
_atom_site_B_iso_or_equiv
_atom_site_occupancy
_atom_site_attached_hydrogens
Sb1 Sb5+ 4 a 0 0 0 . 1. 0
Ge1 Ge4+ 4 e 0 0.3138(1) 0.25 . 1. 0
Na1 Na1+ 4 e 0 0.3337(4) 0.75 . 1. 0
O1 O2- 8 f 0.1939(5) 0.4358(4) 0.4109(8) . 1. 0
O2 O2- 8 f 0.1091(5) 0.2016(3) 0.1155(4) . 1. 0
O3 O2- 4 e 0 0.0772(4) 0.75 . 1. 0
loop_
_atom_site_aniso_label
_atom_site_aniso_type_symbol
_atom_site_aniso_B_11
_atom_site_aniso_B_22
_atom_site_aniso_B_33
_atom_site_aniso_B_12
_atom_site_aniso_B_13
_atom_site_aniso_B_23
Sb1 Sb5+ 0.40(1) 0.31(1) 0.26(1) 0.02(1) 0.14(1) 0.00(1)
Ge1 Ge4+ 0.29(2) 0.22(1) 0.24(1) 0 0.07(1) 0
Na1 Na1+ 1.1(1) 0.51(9) 3.0(2) 0 0.5(1) 0
O1 O2- 0.49(8) 0.74(8) 0.75(8) -.23(7) 0.24(7) -.29(6)
O2 O2- 0.82(9) 0.44(7) 0.65(7) -.17(6) 0.41(7) -.21(6)
O3 O2- 1.1(1) 0.4(1) 0.21(9) 0 0.32(9) 0
#End of TTdata_39689-ICSD