
#(C) 2019 by FIZ Karlsruhe - Leibniz Institute for Information Infrastructure.  All rights reserved.
data_39702-ICSD
_database_code_ICSD 39702
_audit_creation_date 1995-01-10
_audit_update_record 2006-04-01
_chemical_name_systematic 'Tetrasodium titanium bis(phosphate(V)) oxide - HT'
_chemical_formula_structural 'Na4 Ti (P O4)2 O'
_chemical_formula_sum 'Na4 O9 P2 Ti1'
_exptl_crystal_density_diffrn 2.73
_cell_measurement_temperature 743.
_publ_section_title
'X-ray study of a paraphase of Na4 Ti P2 O9 crystals at 743 K'
loop_
_citation_id
_citation_journal_full
_citation_year
_citation_journal_volume
_citation_page_first
_citation_page_last
_citation_journal_id_ASTM
primary Kristallografiya 1993 38 56 60 KRISAJ
loop_
_publ_author_name
'Klokova, N.E.'
'Maksimov, B.A.'
'Tamazyan, R.A.'
_cell_length_a 15.752(1)
_cell_length_b 7.524(1)
_cell_length_c 7.095(1)
_cell_angle_alpha 90.
_cell_angle_beta 90.
_cell_angle_gamma 90.
_cell_volume 840.89
_cell_formula_units_Z 4
_symmetry_space_group_name_H-M 'B m c m'
_symmetry_Int_Tables_number 67
_refine_ls_R_factor_all 0.035
loop_
_symmetry_equiv_pos_site_id
_symmetry_equiv_pos_as_xyz
1 'x, -y, z+1/2'
2 '-x, y, z+1/2'
3 'x, y, -z'
4 '-x, -y, -z'
5 '-x, y, -z+1/2'
6 'x, -y, -z+1/2'
7 '-x, -y, z'
8 'x, y, z'
9 'x+1/2, -y, z'
10 '-x+1/2, y, z'
11 'x+1/2, y, -z+1/2'
12 '-x+1/2, -y, -z+1/2'
13 '-x+1/2, y, -z'
14 'x+1/2, -y, -z'
15 '-x+1/2, -y, z+1/2'
16 'x+1/2, y, z+1/2'
loop_
_atom_type_symbol
_atom_type_oxidation_number
Ti4+ 4
P5+ 5
O2- -2
Na1+ 1
loop_
_atom_site_label
_atom_site_type_symbol
_atom_site_symmetry_multiplicity
_atom_site_Wyckoff_symbol
_atom_site_fract_x
_atom_site_fract_y
_atom_site_fract_z
_atom_site_B_iso_or_equiv
_atom_site_occupancy
_atom_site_attached_hydrogens
Ti1 Ti4+ 4 f 0.25 0.5 0.25 3.22(3) 1. 0
P1 P5+ 8 m 0.1215(1) 0.2440(1) 0 2.61(2) 1. 0
O1 O2- 4 g 0.25 0.3993(5) 0.5 2.99(8) 1. 0
O2 O2- 16 o 0.1605(1) 0.6719(3) 0.3225(3) 4.77(6) 1. 0
O3 O2- 8 m 0.1411(2) 0.0497(5) 0 5.9(1) 1. 0
O4 O2- 8 m 0.0283(2) 0.2805(6) 0 5.9(1) 1. 0
Na1 Na1+ 4 e 0.25 0 0.25 6.9(1) 0.98(1) 0
Na2 Na1+ 4 b 0 0.5 0.25 6.7(1) 0.93(1) 0
Na3 Na1+ 8 m 0.1125(2) 0.2382(4) 0.5 5.74(8) 0.78(1) 0
Na4 Na1+ 4 a 0 0 0.25 10.7(3) 0.48(1) 0
#End of TTdata_39702-ICSD