
#(C) 2019 by FIZ Karlsruhe - Leibniz Institute for Information Infrastructure.  All rights reserved.
data_39738-ICSD
_database_code_ICSD 39738
_audit_creation_date 1994-06-30
_chemical_name_systematic 'Sodium trimagnesium indium molybdate'
_chemical_formula_structural 'Na Mg3 In (Mo O4)5'
_chemical_formula_sum 'In1 Mg3 Mo5 Na1 O20'
_exptl_crystal_density_diffrn 3.88
_publ_section_title
'Synthesis and crystal structure study of a triple molybdate NaMg3In(MoO4)5'
loop_
_citation_id
_citation_journal_full
_citation_year
_citation_journal_volume
_citation_page_first
_citation_page_last
_citation_journal_id_ASTM
primary 'Zhurnal Strukturnoi Khimii' 1993 34 147 151 ZSTKAI
loop_
_publ_author_name
'Klevtsova, R.F.'
'Vasil'ev, A.D. (Vasilev, A.D.)'
'Kozhevnikova, N.M.'
'Glinskaya, L.A.'
'Kruglik, A.I.'
'Kotova, I.Yu.'
_cell_length_a 7.0476(7)
_cell_length_b 17.935(2)
_cell_length_c 6.9849(7)
_cell_angle_alpha 87.650(9)
_cell_angle_beta 100.980(8)
_cell_angle_gamma 92.510(9)
_cell_volume 865.41
_cell_formula_units_Z 2
_symmetry_space_group_name_H-M 'P -1'
_symmetry_Int_Tables_number 2
_refine_ls_R_factor_all 0.047
loop_
_symmetry_equiv_pos_site_id
_symmetry_equiv_pos_as_xyz
1 '-x, -y, -z'
2 'x, y, z'
loop_
_atom_type_symbol
_atom_type_oxidation_number
Mo6+ 6
Mg2+ 2
In3+ 3
Mg2+ 2
In3+ 3
Mg2+ 2
In3+ 3
Mg2+ 2
In3+ 3
Na1+ 1
O2- -2
loop_
_atom_site_label
_atom_site_type_symbol
_atom_site_symmetry_multiplicity
_atom_site_Wyckoff_symbol
_atom_site_fract_x
_atom_site_fract_y
_atom_site_fract_z
_atom_site_B_iso_or_equiv
_atom_site_occupancy
_atom_site_attached_hydrogens
Mo1 Mo6+ 2 i 0.4393 0.4066 0.7725 0.0065(3) 1. 0
Mo2 Mo6+ 2 i 0.3259 0.2144 0.2826 0.0071(3) 1. 0
Mo3 Mo6+ 2 i 0.1899 0.0254 0.7697 0.0069(3) 1. 0
Mo4 Mo6+ 2 i 0.7219 0.1912 0.8199 0.0078(3) 1. 0
Mo5 Mo6+ 2 i 0.0448 0.414 0.2519 0.0073(3) 1. 0
Mg1 Mg2+ 2 i 0.1962 0.2342 0.7474 0.0066(4) 0.75 0
In1 In3+ 2 i 0.1962 0.2342 0.7474 0.0066(4) 0.25 0
Mg2 Mg2+ 2 i 0.3292 0.0072 0.3136 0.0068(5) 0.75 0
In2 In3+ 2 i 0.3292 0.0072 0.3136 0.0068(5) 0.25 0
Mg3 Mg2+ 2 i 0.9219 0.3738 0.7207 0.0061(5) 0.75 0
In3 In3+ 2 i 0.9219 0.3738 0.7207 0.0061(5) 0.25 0
Mg4 Mg2+ 2 i 0.5811 0.3836 0.3274 0.0061(5) 0.75 0
In4 In3+ 2 i 0.5811 0.3836 0.3274 0.0061(5) 0.25 0
Na1 Na1+ 2 i 0.8383 0.2172 0.3671 0.029(2) 0.5 0
Na2 Na1+ 2 i 0.8278 0.1838 0.3896 0.031(2) 0.5 0
O1 O2- 2 i 0.6205 0.3826 0.6422 0.012(1) 1. 0
O2 O2- 2 i 0.2149 0.3516 0.7284 0.009(1) 1. 0
O3 O2- 2 i 0.5352 0.3973 0.0189 0.019(1) 1. 0
O4 O2- 2 i 0.3873 0.4984 0.7078 0.020(1) 1. 0
O5 O2- 2 i 0.1643 0.2305 0.4445 0.016(1) 1. 0
O6 O2- 2 i 0.5438 0.2679 0.3373 0.017(1) 1. 0
O7 O2- 2 i 0.214 0.2363 0.0451 0.019(1) 1. 0
O8 O2- 2 i 0.386 0.121 0.2987 0.020(1) 1. 0
O9 O2- 2 i 0.363 0.0033 0.6202 0.011(1) 1. 0
O10 O2- 2 i 0.2863 0.0039 0.0116 0.019(1) 1. 0
O11 O2- 2 i -.0323 -.0237 0.7007 0.012(1) 1. 0
O12 O2- 2 i 0.1454 0.1204 0.7438 0.0217(1) 1. 0
O13 O2- 2 i 0.8938 0.2559 0.7241 0.010(1) 1. 0
O14 O2- 2 i 0.7978 0.1697 0.0613 0.022(1) 1. 0
O15 O2- 2 i 0.7022 0.1108 0.6845 0.015(1) 1. 0
O16 O2- 2 i 0.4954 0.2326 0.7885 0.019(1) 1. 0
O17 O2- 2 i -.0405 0.3791 0.0225 0.020(1) 1. 0
O18 O2- 2 i -.1137 0.3753 0.4084 0.011(1) 1. 0
O19 O2- 2 i 0.286 0.3908 0.3316 0.018(1) 1. 0
O20 O2- 2 i 0.034 0.5104 0.2501 0.020(1) 1. 0
#End of TTdata_39738-ICSD