
#(C) 2019 by FIZ Karlsruhe - Leibniz Institute for Information Infrastructure.  All rights reserved.
data_39749-ICSD
_database_code_ICSD 39749
_audit_creation_date 1994-06-30
_audit_update_record 2008-02-01
_chemical_name_systematic 'Sodium hydrogendisilicate hydrate'
_chemical_formula_structural 'Na (Si2 O4 (O H)) (H2 O)'
_chemical_formula_sum 'H3 Na1 O6 Si2'
_chemical_name_mineral Grumantite
_exptl_crystal_density_diffrn 2.26
_publ_section_title

;
A new type of silicate radical in the structure of grumantite
Na(Si2O4(OH))*H2O
;
loop_
_citation_id
_citation_journal_full
_citation_year
_citation_journal_volume
_citation_page_first
_citation_page_last
_citation_journal_id_ASTM
primary 'Doklady Akademii Nauk SSSR' 1989 305 868 871 DANKAS
loop_
_publ_author_name
'Yamnova, N.Ya.'
'Pushcharovskii, D.Yu.'
'Andrianov, V.I.'
'Rastsvetaeva, R.K.'
'Khomyakov, A.P.'
'Mikheeva, M.G.'
_cell_length_a 15.979(8)
_cell_length_b 18.25(1)
_cell_length_c 7.169(2)
_cell_angle_alpha 90.
_cell_angle_beta 90.
_cell_angle_gamma 90.
_cell_volume 2090.6
_cell_formula_units_Z 16
_symmetry_space_group_name_H-M 'F d d 2'
_symmetry_Int_Tables_number 43
_refine_ls_R_factor_all 0.043
loop_
_symmetry_equiv_pos_site_id
_symmetry_equiv_pos_as_xyz
1 'x+1/4, -y+1/4, z+1/4'
2 '-x+1/4, y+1/4, z+1/4'
3 '-x, -y, z'
4 'x, y, z'
5 'x+1/4, -y+3/4, z+3/4'
6 '-x+1/4, y+3/4, z+3/4'
7 '-x, -y+1/2, z+1/2'
8 'x, y+1/2, z+1/2'
9 'x+3/4, -y+1/4, z+3/4'
10 '-x+3/4, y+1/4, z+3/4'
11 '-x+1/2, -y, z+1/2'
12 'x+1/2, y, z+1/2'
13 'x+3/4, -y+3/4, z+1/4'
14 '-x+3/4, y+3/4, z+1/4'
15 '-x+1/2, -y+1/2, z'
16 'x+1/2, y+1/2, z'
loop_
_atom_type_symbol
_atom_type_oxidation_number
Si4+ 4
Na1+ 1
O2- -2
H1+ 1
loop_
_atom_site_label
_atom_site_type_symbol
_atom_site_symmetry_multiplicity
_atom_site_Wyckoff_symbol
_atom_site_fract_x
_atom_site_fract_y
_atom_site_fract_z
_atom_site_B_iso_or_equiv
_atom_site_occupancy
_atom_site_attached_hydrogens
Si1 Si4+ 16 b 0.1030(1) 0.2258(1) 0.3753(1) 0.56(2) 1. 0
Si2 Si4+ 16 b 0.2241(1) 0.0907(1) 0.3719(3) 0.51(2) 1. 0
Na1 Na1+ 16 b 0.1382(2) 0.2385(1) 0.8868(5) 1.44(4) 1. 0
O1 O2- 16 b 0.1691(3) 0.1618(2) 0.4289(7) 1.06(6) 1. 0
O2 O2- 16 b 0.1589(3) 0.0243(2) 0.3149(6) 0.81(5) 1. 0
O3 O2- 16 b 0.0079(3) 0.0843(2) 0.6276(8) 1.49(6) 1. 0
O4 O2- 16 b 0.0413(3) 0.1452(2) 0.9666(7) 0.90(5) 1. 0
O5 O2- 16 b 0.1183(3) 0.0253(2) 0.9513(6) 1.17(6) 1. 0
O6 O2- 16 b 0.0140(3) 0.1873(2) 0.3233(6) 0.78(5) 1. 0
H1 H1+ 16 b 0.015(7) 0.112(6) 0.72(2) 1.5(5) 1. 0
H2 H1+ 16 b 0.010(7) 0.120(6) 0.54(2) 1.5(5) 1. 0
H3 H1+ 16 b 0.095(6) 0.071(6) 0.97(2) 1.5(5) 1. 0
#End of TTdata_39749-ICSD