
#(C) 2019 by FIZ Karlsruhe - Leibniz Institute for Information Infrastructure.  All rights reserved.
data_39758-ICSD
_database_code_ICSD 39758
_audit_creation_date 1994-06-30
_audit_update_record 2007-08-01
_chemical_name_systematic
'Sodium dicalcium tetradecaoxotetrahydroxononaborate dihydrate'
_chemical_formula_structural 'Na Ca2 (B9 O14 (O H)4) (H2 O)2'
_chemical_formula_sum 'H8 B9 Ca2 Na1 O20'
_chemical_name_mineral Studenitsite
_exptl_crystal_density_diffrn 2.34
_publ_section_title

;
Crystal structure of a new natural Na, Ca-hydroxoborate Na Ca2 (B9 O14 (O H)4)
* 2 H2O
;
loop_
_citation_id
_citation_journal_full
_citation_year
_citation_journal_volume
_citation_page_first
_citation_page_last
_citation_journal_id_ASTM
primary Kristallografiya 1993 38 71 76 KRISAJ
loop_
_publ_author_name
'Yamnova, N.A.'
'Egorov Tismenko, Yu.K.'
'Pushcharovskii, D.Yu.'
'Malinko, S.V.'
'Dorokhova, G.I.'
_cell_length_a 11.503(7)
_cell_length_b 10.53(1)
_cell_length_c 12.58(1)
_cell_angle_alpha 90.
_cell_angle_beta 90.
_cell_angle_gamma 99.48(7)
_cell_volume 1502.96
_cell_formula_units_Z 4
_symmetry_space_group_name_H-M 'P 1 1 21/b'
_symmetry_Int_Tables_number 14
_refine_ls_R_factor_all 0.051
loop_
_symmetry_equiv_pos_site_id
_symmetry_equiv_pos_as_xyz
1 'x, y+1/2, -z+1/2'
2 '-x, -y, -z'
3 '-x, -y+1/2, z+1/2'
4 'x, y, z'
loop_
_atom_type_symbol
_atom_type_oxidation_number
Na1+ 1
Ca2+ 2
B3+ 3
O2- -2
H1+ 1
loop_
_atom_site_label
_atom_site_type_symbol
_atom_site_symmetry_multiplicity
_atom_site_Wyckoff_symbol
_atom_site_fract_x
_atom_site_fract_y
_atom_site_fract_z
_atom_site_B_iso_or_equiv
_atom_site_occupancy
_atom_site_attached_hydrogens
Na1 Na1+ 4 e 0.5116(1) 0.9772(1) 0.1400(1) 1.70(3) 1. 0
Ca1 Ca2+ 4 e 0.12868(5) 0.46906(6) 0.12912(5) 0.67(1) 1. 0
Ca2 Ca2+ 4 e 0.65432(5) 0.63452(5) 0.10010(5) 0.54(1) 1. 0
B1 B3+ 4 e 0.9365(3) 0.6585(3) 0.0861(3) 0.69(5) 1. 0
B2 B3+ 4 e 0.5695(3) 0.8145(3) 0.4313(2) 0.60(5) 1. 0
B3 B3+ 4 e 0.8876(3) 0.8187(3) 0.2187(3) 0.67(5) 1. 0
B4 B3+ 4 e 0.9475(3) 0.1739(3) 0.0212(3) 0.96(5) 1. 0
B5 B3+ 4 e 0.5008(3) 0.2283(3) 0.2393(2) 0.53(4) 1. 0
B6 B3+ 4 e 0.3906(3) 0.0966(3) 0.3796(2) 0.52(4) 1. 0
B7 B3+ 4 e 0.9086(3) 0.2041(3) 0.8301(3) 0.72(5) 1. 0
B8 B3+ 4 e 0.3112(3) 0.1061(3) 0.7287(3) 0.61(5) 1. 0
B9 B3+ 4 e 0.2943(3) 0.2569(3) 0.2902(3) 0.70(5) 1. 0
O1 O2- 4 e 0.6084(2) 0.7987(2) 0.2141(2) 0.57(3) 1. 0
O2 O2- 4 e 0.4014(2) 0.3068(2) 0.2490(2) 0.78(3) 1. 0
O3 O2- 4 e 0.8105(2) 0.8688(2) 0.2814(2) 0.84(4) 1. 0
O4 O2- 4 e 0.4576(2) 0.1756(2) 0.4640(2) 0.77(3) 1. 0
O5 O2- 4 e 0.2818(2) 0.6498(2) 0.1470(2) 0.88(4) 1. 0
O6 O2- 4 e 0.6458(2) 0.4080(2) 0.1182(2) 0.72(3) 1. 0
O7 O2- 4 e 0.4695(2) 0.6038(2) 0.2101(2) 0.52(3) 1. 0
O8 O2- 4 e 0.5146(2) 0.2090(2) 0.1235(2) 0.81(3) 1. 0
O9 O2- 4 e 0.3499(2) 0.9626(2) 0.4144(2) 0.75(3) 1. 0
O10 O2- 4 e 0.0412(2) 0.1619(2) 0.3493(2) 0.80(3) 1. 0
O11 O2- 4 e 0.0365(2) 0.7775(2) 0.4802(2) 0.94(4) 1. 0
O12 O2- 4 e 0.1991(2) 0.3158(2) 0.2666(2) 0.92(4) 1. 0
O13 O2- 4 e 0.8824(2) 0.0290(2) 0.4430(2) 1.07(4) 1. 0
O14 O2- 4 e 0.0062(2) 0.8582(2) 0.2344(2) 0.75(3) 1. 0
O15 O2- 4 e 0.6941(2) 0.0246(2) 0.2258(2) 0.87(4) 1. 0
O16 O2- 4 e 0.8506(2) 0.7266(2) 0.1427(2) 0.88(4) 1. 0
O17 O2- 4 e 0.8840(2) 0.1349(2) 0.9326(2) 1.10(4) 1. 0
O18 O2- 4 e 0.2847(2) 0.1946(3) 0.0307(2) 1.90(5) 1. 0
O19 O2- 4 e 0.9188(2) 0.1049(2) 0.1142(2) 1.62(5) 1. 0
O20 O2- 4 e 0.6479(3) 0.0563(3) 0.9783(2) 2.23(6) 1. 0
H1 H1+ 4 e 0.138(4) 0.014(5) 0.603(4) 4.3(1) 1. 0
H2 H1+ 4 e 0.765(4) 0.054(5) 0.186(4) 3.1(1) 1. 0
H3 H1+ 4 e 0.721(4) 0.078(5) 0.967(4) 5.2(1) 1. 0
H4 H1+ 4 e 0.628(4) 0.090(5) 0.630(4) 5.3(1) 1. 0
H5 H1+ 4 e 0.978(4) 0.132(5) 0.167(4) 6.7(1) 1. 0
H6 H1+ 4 e 0.216(4) 0.144(5) 0.031(4) 7.3(1) 1. 0
H7 H1+ 4 e 0.359(4) 0.931(5) 0.953(4) 14.7(1) 1. 0
H8 H1+ 4 e 0.344(4) 0.168(5) 0.060(4) 8.3(1) 1. 0
#End of TTdata_39758-ICSD