
#(C) 2019 by FIZ Karlsruhe - Leibniz Institute for Information Infrastructure.  All rights reserved.
data_39760-ICSD
_database_code_ICSD 39760
_audit_creation_date 1994-06-30
_audit_update_record 2012-08-01
_chemical_name_systematic 'Sodium iron titanium oxide *'
_chemical_formula_structural
'(Na0.35 Fe0.10) (Ti1.54 Fe0.46) (Ti1.81 Fe0.19) O8'
_chemical_formula_sum 'Fe0.75 Na0.35 O8 Ti3.35'
_exptl_crystal_density_diffrn 1.93
_publ_section_title

;
Crystal structure of Na,Ti-bronze (Na0.35Fe0.10)(Ti1.54Fe0.40 )(Ti1
.81Fe0.19)O8
;
loop_
_citation_id
_citation_journal_full
_citation_year
_citation_journal_volume
_citation_page_first
_citation_page_last
_citation_journal_id_ASTM
primary Kristallografiya 1993 38 83 87 KRISAJ
loop_
_publ_author_name
'Belokoneva, E.L.'
'Smirnitskaya, Yu.Ya.'
_cell_length_a 12.296(11)
_cell_length_b 3.821(2)
_cell_length_c 6.505(5)
_cell_angle_alpha 90.
_cell_angle_beta 107.28(6)
_cell_angle_gamma 90.
_cell_volume 291.83
_cell_formula_units_Z 1
_symmetry_space_group_name_H-M 'C 1 2/m 1'
_symmetry_Int_Tables_number 12
_refine_ls_R_factor_all 0.061
loop_
_symmetry_equiv_pos_site_id
_symmetry_equiv_pos_as_xyz
1 '-x, y, -z'
2 '-x, -y, -z'
3 'x, -y, z'
4 'x, y, z'
5 '-x+1/2, y+1/2, -z'
6 '-x+1/2, -y+1/2, -z'
7 'x+1/2, -y+1/2, z'
8 'x+1/2, y+1/2, z'
loop_
_atom_type_symbol
_atom_type_oxidation_number
Ti4+ 4
Na1+ 1
O2- -2
Fe3+ 3
loop_
_atom_site_label
_atom_site_type_symbol
_atom_site_symmetry_multiplicity
_atom_site_Wyckoff_symbol
_atom_site_fract_x
_atom_site_fract_y
_atom_site_fract_z
_atom_site_B_iso_or_equiv
_atom_site_occupancy
_atom_site_attached_hydrogens
Ti1 Ti4+ 4 i 0.29887(8) 0 0.7101(2) . 0.385 0
Ti2 Ti4+ 4 i 0.39773(9) 0 0.3001(2) . 0.45 0
Na1 Na1+ 2 a 0 0 0 . 0.175 0
O1 O2- 4 i 0.3737(4) 0 0.9956(7) . 0.5 0
O2 O2- 4 i 0.2349(4) 0 0.3451(7) . 0.5 0
O3 O2- 4 i 0.4416(4) 0 0.6339(7) . 0.5 0
O4 O2- 4 i 0.1355(4) 0 0.7099(7) . 0.5 0
Fe1 Fe3+ 4 i 0.29887(8) 0 0.7101(2) . 0.115 0
Fe2 Fe3+ 4 i 0.39773(9) 0 0.3001(2) . 0.047 0
Fe3 Fe3+ 2 a 0 0 0 . 0.05 0
loop_
_atom_site_aniso_label
_atom_site_aniso_type_symbol
_atom_site_aniso_B_11
_atom_site_aniso_B_22
_atom_site_aniso_B_33
_atom_site_aniso_B_12
_atom_site_aniso_B_13
_atom_site_aniso_B_23
Ti1 Ti4+ 0.20(2) 0.14(2) 0.17(2) 0 0.05(2) 0
Ti2 Ti4+ 0.15(2) 0.21(2) 0.30(2) 0 0.09(2) 0
Na1 Na1+ 0.3(1) 0.3(1) 0.9(3) 0 0.5(2) 0
O1 O2- 0.6(1) 0.9(2) 0.2(1) 0 0.1(1) 0
O2 O2- 0.4(1) 0.4(1) 0.4(1) 0 0.2(1) 0
O3 O2- 0.3(1) 0.8(1) 0.2(1) 0 0.0(9) 0
O4 O2- 0.4(1) 0.3(1) 0.5(1) 0 0.0(1) 0
Fe1 Fe3+ 0.20(2) 0.14(2) 0.17(2) 0 0.05(2) 0
Fe2 Fe3+ 0.15(2) 0.21(2) 0.30(2) 0 0.09(2) 0
Fe3 Fe3+ 0.3(1) 0.3(1) 0.9(3) 0 0.5(2) 0
#End of TTdata_39760-ICSD