
#(C) 2019 by FIZ Karlsruhe - Leibniz Institute for Information Infrastructure.  All rights reserved.
data_39818-ICSD
_database_code_ICSD 39818
_audit_creation_date 1995-01-10
_audit_update_record 2010-02-01
_chemical_name_systematic 'Sodium cesium germanium tin fluoride (1/1/0.5/0.5/6)'
_chemical_formula_structural 'Na Cs (Ge0.5 Sn0.5) F6'
_chemical_formula_sum 'Cs1 F6 Ge0.5 Na1 Sn0.5'
_exptl_crystal_density_diffrn 4.06
_publ_section_title

;
Synthesis and structure of fluorocomplexes of group IV with heteroatomic
cation and anion grid
;
loop_
_citation_id
_citation_journal_full
_citation_year
_citation_journal_volume
_citation_page_first
_citation_page_last
_citation_journal_id_ASTM
primary 'Zhurnal Neorganicheskoi Khimii' 1993 38 491 495 ZNOKAQ
loop_
_publ_author_name
'Antokhina, T.F.'
'Gerasimenko, A.V.'
'Kaidalova, T.A.'
'Lysun, T.V.'
_cell_length_a 6.541(2)
_cell_length_b 10.991(3)
_cell_length_c 8.315(2)
_cell_angle_alpha 90.
_cell_angle_beta 90.
_cell_angle_gamma 90.
_cell_volume 597.78
_cell_formula_units_Z 4
_symmetry_space_group_name_H-M 'P b c m'
_symmetry_Int_Tables_number 57
_refine_ls_R_factor_all 0.029
loop_
_symmetry_equiv_pos_site_id
_symmetry_equiv_pos_as_xyz
1 'x, -y+1/2, z+1/2'
2 '-x, y+1/2, z'
3 'x, y, -z+1/2'
4 '-x, -y, -z'
5 '-x, y+1/2, -z+1/2'
6 'x, -y+1/2, -z'
7 '-x, -y, z+1/2'
8 'x, y, z'
loop_
_atom_type_symbol
_atom_type_oxidation_number
Cs1+ 1
Sn4+ 4
Ge4+ 4
Na1+ 1
F1- -1
loop_
_atom_site_label
_atom_site_type_symbol
_atom_site_symmetry_multiplicity
_atom_site_Wyckoff_symbol
_atom_site_fract_x
_atom_site_fract_y
_atom_site_fract_z
_atom_site_B_iso_or_equiv
_atom_site_occupancy
_atom_site_attached_hydrogens
Cs1 Cs1+ 4 c 0.1790(1) 0.25 0 2.91(2) 1. 0
Sn1 Sn4+ 4 d 0.7283(1) 0.4219(1) 0.75 0.86(2) 0.5 0
Ge1 Ge4+ 4 d 0.7311(3) 0.4218(2) 0.75 2.96(7) 0.5 0
Na1 Na1+ 4 d 0.7058(5) 0.4283(4) 0.25 2.9(1) 1. 0
F1 F1- 4 d 0.3585(7) 0.4179(4) 0.25 2.5(1) 1. 0
F2 F1- 4 d 0.8211(7) 0.2368(5) 0.25 2.9(1) 1. 0
F3 F1- 8 e 0.2673(6) 0.5777(4) 0.0307(4) 4.4(1) 1. 0
F4 F1- 4 d 0.5409(7) 0.6247(5) 0.25 3.1(1) 1. 0
F5 F1- 4 d 0.0024(8) 0.5290(5) 0.25 4.1(1) 1. 0
#End of TTdata_39818-ICSD