
#(C) 2019 by FIZ Karlsruhe - Leibniz Institute for Information Infrastructure.  All rights reserved.
data_400310-ICSD
_database_code_ICSD 400310
_audit_creation_date 1994-06-30
_audit_update_record 2008-02-01
_chemical_name_systematic
'Pentasodium dicalcium aluminium tetrakis(phosphate(V))'
_chemical_formula_structural 'Na5 Ca2 Al (P O4)4'
_chemical_formula_sum 'Al1 Ca2 Na5 O16 P4'
_exptl_crystal_density_diffrn 2.83
_publ_section_title

;
Crystal structure of aluminium dicalcium pentasodium tetrakis(phosphate), Na5
Ca2 Al (P O4)4
;
loop_
_citation_id
_citation_journal_full
_citation_year
_citation_journal_volume
_citation_page_first
_citation_page_last
_citation_journal_id_ASTM
primary 'Zeitschrift fuer Kristallographie' 1994 209 76 76 ZEKRDZ
loop_
_publ_author_name
'Alkemper, J.'
'Paulus, H.'
'Fuess, H.'
_cell_length_a 11.071(3)
_cell_length_b 13.951(4)
_cell_length_c 10.511(3)
_cell_angle_alpha 90.
_cell_angle_beta 119.34(1)
_cell_angle_gamma 90.
_cell_volume 1415.2
_cell_formula_units_Z 4
_symmetry_space_group_name_H-M 'C 1 c 1'
_symmetry_Int_Tables_number 9
_refine_ls_R_factor_all 0.0222
loop_
_symmetry_equiv_pos_site_id
_symmetry_equiv_pos_as_xyz
1 'x, -y, z+1/2'
2 'x, y, z'
3 'x+1/2, -y+1/2, z+1/2'
4 'x+1/2, y+1/2, z'
loop_
_atom_type_symbol
_atom_type_oxidation_number
Ca2+ 2
Na1+ 1
P5+ 5
Al3+ 3
O2- -2
loop_
_atom_site_label
_atom_site_type_symbol
_atom_site_symmetry_multiplicity
_atom_site_Wyckoff_symbol
_atom_site_fract_x
_atom_site_fract_y
_atom_site_fract_z
_atom_site_B_iso_or_equiv
_atom_site_occupancy
_atom_site_attached_hydrogens
Ca1 Ca2+ 4 a 0.09333(8) 0.10794(3) 0.07272(8) . 1. 0
Ca2 Ca2+ 4 a 0.55659(8) 0.10981(2) 0.52888(8) . 1. 0
Na1 Na1+ 4 a 0.05685(12) 0.12977(6) 0.51397(13) . 1. 0
Na2 Na1+ 4 a 0.05049(11) 0.37013(6) 0.55782(13) . 1. 0
Na3 Na1+ 4 a 0.22547(12) 0.49384(7) 0.37143(13) . 1. 0
Na4 Na1+ 4 a 0.43518(11) 0.32164(7) 0.22375(12) . 1. 0
Na5 Na1+ 4 a 0.24147(13) 0.01521(6) 0.88185(13) . 1. 0
P1 P5+ 4 a 0.40106(8) 0.04457(3) 0.70951(8) . 1. 0
P2 P5+ 4 a 0.24174(8) 0.25565(3) 0.89447(8) . 1. 0
P3 P5+ 4 a 0.27911(8) 0.24743(3) 0.36948(8) . 1. 0
P4 P5+ 4 a 0.40121(8) 0.46972(3) 0.71574(8) . 1. 0
Al1 Al3+ 4 a 0.33333 0.25918(4) 0.66666 . 1. 0
O1 O2- 4 a 0.42678(16) 0.15462(10) 0.70318(18) . 1. 0
O2 O2- 4 a 0.48579(17) -.00221(10) 0.64875(18) . 1. 0
O3 O2- 4 a 0.45335(16) 0.01849(10) 0.86800(16) . 1. 0
O4 O2- 4 a 0.24588(16) 0.02421(10) 0.61561(17) . 1. 0
O5 O2- 4 a 0.21449(16) 0.2512(1) 0.73104(16) . 1. 0
O6 O2- 4 a 0.39760(16) 0.25729(10) 0.99761(18) . 1. 0
O7 O2- 4 a 0.17242(17) 0.34657(10) 0.90609(19) . 1. 0
O8 O2- 4 a 0.17363(15) 0.16647(10) 0.91562(16) . 1. 0
O9 O2- 4 a 0.22095(15) 0.26802(11) 0.47708(15) . 1. 0
O10 O2- 4 a 0.43735(16) 0.26279(10) 0.45932(18) . 1. 0
O11 O2- 4 a 0.25058(18) 0.14396(11) 0.31888(19) . 1. 0
O12 O2- 4 a 0.21822(17) 0.31706(13) 0.24272(18) . 1. 0
O13 O2- 4 a 0.43957(16) 0.35948(9) 0.73685(18) . 1. 0
O14 O2- 4 a 0.48544(18) 0.51311(10) 0.65086(18) . 1. 0
O15 O2- 4 a 0.44744(17) 0.51159(10) 0.86605(16) . 1. 0
O16 O2- 4 a 0.24559(16) 0.47962(11) 0.61730(18) . 1. 0
loop_
_atom_site_aniso_label
_atom_site_aniso_type_symbol
_atom_site_aniso_U_11
_atom_site_aniso_U_22
_atom_site_aniso_U_33
_atom_site_aniso_U_12
_atom_site_aniso_U_13
_atom_site_aniso_U_23
Ca1 Ca2+ 0.00992(14) 0.01056(14) 0.00926(14) 0.00131(12) 0.00425(12) 0.00172(12)
Ca2 Ca2+ 0.01219(15) 0.00920(14) 0.00961(14) -0.00248(12) 0.00518(12)
-0.00089(11)
Na1 Na1+ 0.01506(39) 0.01679(39) 0.02129(47) 0.00421(34) 0.00346(35)
-0.00373(35)
Na2 Na1+ 0.01441(40) 0.01185(36) 0.02593(51) 0.00015(31) 0.00644(38) 0.00123(33)
Na3 Na1+ 0.02139(46) 0.02272(44) 0.01996(44) 0.00111(37) 0.01068(39)
-0.00040(37)
Na4 Na1+ 0.01926(43) 0.02385(45) 0.01655(41) -0.00290(35) 0.00882(36)
-0.00290(36)
Na5 Na1+ 0.02203(43) 0.01480(38) 0.02002(42) 0.00227(34) 0.01276(37)
-0.00021(34)
P1 P5+ 0.00696(17) 0.00723(17) 0.00645(17) 0.00021(15) 0.00325(14) 0.00071(15)
P2 P5+ 0.00795(18) 0.00801(17) 0.00739(18) 0.00032(15) 0.00421(16) 0.00017(14)
P3 P5+ 0.00685(18) 0.00991(18) 0.00567(17) -0.00038(14) 0.00242(15) 0.00036(14)
P4 P5+ 0.00779(18) 0.00780(17) 0.00695(18) -0.00030(16) 0.00331(15) -0.00070(16)
Al1 Al3+ 0.00674(21) 0.00813(21) 0.00781(22) -0.00022(18) 0.00238(19)
-0.00009(18)
O1 O2- 0.01152(60) 0.00830(54) 0.02397(76) 0.00032(46) 0.00756(56) 0.00260(52)
O2 O2- 0.02079(68) 0.01396(58) 0.02010(69) 0.00183(52) 0.01615(61) -0.00060(53)
O3 O2- 0.01687(64) 0.01752(64) 0.00649(54) 0.00147(51) 0.00368(50) 0.00296(47)
O4 O2- 0.00846(55) 0.01331(58) 0.01491(65) -0.00166(45) 0.00168(50) 0.00122(49)
O5 O2- 0.01158(61) 0.02248(70) 0.00685(56) -0.00101(50) 0.00527(50) -0.00053(47)
O6 O2- 0.00785(57) 0.01740(64) 0.01281(62) -0.00167(47) 0.00180(51) -0.00017(50)
O7 O2- 0.02331(74) 0.01086(58) 0.02630(79) 0.00431(52) 0.01830(66) 0.00081(53)
O8 O2- 0.01372(59) 0.01109(55) 0.01444(62) -0.00198(46) 0.00831(52) 0.00159(46)
O9 O2- 0.01019(56) 0.01968(62) 0.00653(53) 0.00288(48) 0.00343(46) -0.00032(46)
O10 O2- 0.00702(52) 0.01436(58) 0.01298(61) -0.00109(46) 0.00207(48) 0.00083(49)
O11 O2- 0.02299(74) 0.01410(61) 0.02027(72) -0.00546(54) 0.01274(63)
-0.00851(54)
O12 O2- 0.01382(64) 0.0350(9) 0.01657(71) 0.00685(62) 0.00640(56) 0.01638(66)
O13 O2- 0.01233(59) 0.00731(54) 0.01821(69) -0.00064(44) 0.00361(53)
-0.00140(48)
O14 O2- 0.02307(72) 0.01534(62) 0.02142(72) -0.00015(55) 0.01765(64) 0.00244(55)
O15 O2- 0.01818(66) 0.01534(62) 0.00915(57) -0.00117(51) 0.00561(52)
-0.00439(48)
O16 O2- 0.00924(57) 0.01596(62) 0.01630(68) 0.00070(48) 0.00170(52) -0.00207(53)
#End of TTdata_400310-ICSD