
#(C) 2019 by FIZ Karlsruhe - Leibniz Institute for Information Infrastructure.  All rights reserved.
data_400537-ICSD
_database_code_ICSD 400537
_audit_creation_date 1995-10-17
_chemical_name_systematic 'Hexasodium dieuropium cyclo-hexasilicate'
_chemical_formula_structural 'Na6 Eu3 (Si6 O18)'
_chemical_formula_sum 'Eu3 Na6 O18 Si6'
_chemical_name_structure_type Na8Ce(SiO3)6
_exptl_crystal_density_diffrn 3.93
_publ_section_title

;
Crystal structure of disodium europium(II) cyclohexasilicate, Na6 Eu2 (Si6
O18)
;
loop_
_citation_id
_citation_journal_full
_citation_year
_citation_journal_volume
_citation_page_first
_citation_page_last
_citation_journal_id_ASTM
primary 'Zeitschrift fuer Kristallographie' 1995 210 363 363 ZEKRDZ
loop_
_publ_author_name
'Jacobsen, H.'
'Meyer, G.'
_cell_length_a 10.6816(10)
_cell_length_b 10.6816(10)
_cell_length_c 13.487(2)
_cell_angle_alpha 90.
_cell_angle_beta 90.
_cell_angle_gamma 120.
_cell_volume 1332.66
_cell_formula_units_Z 3
_symmetry_space_group_name_H-M 'R -3 m H'
_symmetry_Int_Tables_number 166
_refine_ls_R_factor_all 0.033
loop_
_symmetry_equiv_pos_site_id
_symmetry_equiv_pos_as_xyz
1 'x-y, -y, -z'
2 '-x, -x+y, -z'
3 'y, x, -z'
4 'x-y, x, -z'
5 'y, -x+y, -z'
6 '-x, -y, -z'
7 '-x+y, y, z'
8 'x, x-y, z'
9 '-y, -x, z'
10 '-x+y, -x, z'
11 '-y, x-y, z'
12 'x, y, z'
13 'x-y+2/3, -y+1/3, -z+1/3'
14 '-x+2/3, -x+y+1/3, -z+1/3'
15 'y+2/3, x+1/3, -z+1/3'
16 'x-y+2/3, x+1/3, -z+1/3'
17 'y+2/3, -x+y+1/3, -z+1/3'
18 '-x+2/3, -y+1/3, -z+1/3'
19 '-x+y+2/3, y+1/3, z+1/3'
20 'x+2/3, x-y+1/3, z+1/3'
21 '-y+2/3, -x+1/3, z+1/3'
22 '-x+y+2/3, -x+1/3, z+1/3'
23 '-y+2/3, x-y+1/3, z+1/3'
24 'x+2/3, y+1/3, z+1/3'
25 'x-y+1/3, -y+2/3, -z+2/3'
26 '-x+1/3, -x+y+2/3, -z+2/3'
27 'y+1/3, x+2/3, -z+2/3'
28 'x-y+1/3, x+2/3, -z+2/3'
29 'y+1/3, -x+y+2/3, -z+2/3'
30 '-x+1/3, -y+2/3, -z+2/3'
31 '-x+y+1/3, y+2/3, z+2/3'
32 'x+1/3, x-y+2/3, z+2/3'
33 '-y+1/3, -x+2/3, z+2/3'
34 '-x+y+1/3, -x+2/3, z+2/3'
35 '-y+1/3, x-y+2/3, z+2/3'
36 'x+1/3, y+2/3, z+2/3'
loop_
_atom_type_symbol
_atom_type_oxidation_number
Na1+ 1
Eu2+ 2
Na1+ 1
Eu2+ 2
Si4+ 4
O2- -2
loop_
_atom_site_label
_atom_site_type_symbol
_atom_site_symmetry_multiplicity
_atom_site_Wyckoff_symbol
_atom_site_fract_x
_atom_site_fract_y
_atom_site_fract_z
_atom_site_B_iso_or_equiv
_atom_site_occupancy
_atom_site_attached_hydrogens
Na1 Na1+ 6 c 0 0 0.2612(4) . 0.959(6) 0
Eu1 Eu2+ 6 c 0 0 0.2612(4) . 0.040(4) 0
Na2 Na1+ 9 e 0.5 0 0 . 1. 0
Na3 Na1+ 9 d 0.5 0 0.5 . 0.360(4) 0
Eu2 Eu2+ 9 d 0.5 0 0.5 . 0.639(2) 0
Eu3 Eu2+ 3 a 0 0 0 . 1. 0
Si1 Si4+ 18 h 0.14855(10) -.14855(10) 0.56143(12) . 1. 0
O1 O2- 18 g -.2414(7) 0 0.5 . 1. 0
O2 O2- 18 h 0.1171(4) -.1171(4) 0.6688(4) . 1. 0
O3 O2- 18 h 0.4323(3) -.4323(3) 0.7846(4) . 1. 0
loop_
_atom_site_aniso_label
_atom_site_aniso_type_symbol
_atom_site_aniso_U_11
_atom_site_aniso_U_22
_atom_site_aniso_U_33
_atom_site_aniso_U_12
_atom_site_aniso_U_13
_atom_site_aniso_U_23
Na1 Na1+ 0.038(2) 0.038(2) 0.039(3) 0.0192(12) 0 0
Eu1 Eu2+ 0.038(2) 0.038(2) 0.039(3) 0.0192(12) 0 0
Na2 Na1+ 0.047(2) 0.056(4) 0.028(3) 0.028(2) 0.0102(12) 0.020(2)
Na3 Na1+ 0.0189(3) 0.0200(4) 0.0180(4) 0.0100(2) -.00082(13) -.0016(3)
Eu2 Eu2+ 0.0189(3) 0.0200(4) 0.0180(4) 0.0100(2) -.00082(13) -.0016(3)
Eu3 Eu2+ 0.0226(3) 0.0226(3) 0.0112(4) 0.0113(2) 0 0
Si1 Si4+ 0.0127(6) 0.0127(6) 0.0114(8) 0.0060(6) 0.0001(3) -.0001(3)
O1 O2- 0.044(3) 0.036(4) 0.106(7) 0.018(2) 0.023(2) 0.046(4)
O2 O2- 0.098(5) 0.098(5) 0.014(2) 0.084(5) 0.0011(12) -.0011(12)
O3 O2- 0.034(2) 0.034(2) 0.028(3) 0.026(3) -.0003(10) 0.0003(10)
#End of TTdata_400537-ICSD