
#(C) 2018 by FIZ Karlsruhe - Leibniz Institute for Information Infrastructure.  All rights reserved.
data_400552-ICSD
_database_code_ICSD 400552
_audit_creation_date 1997-11-10
_audit_update_record 2009-02-01
_chemical_name_systematic 'Lithium iodate(VII)'
_chemical_formula_structural 'Li (I O4)'
_chemical_formula_sum 'I1 Li1 O4'
_exptl_crystal_density_diffrn 3.8
_publ_section_title 'Die Kristallstruktur von Lithiummetaperiodat, Li I O4'
loop_
_citation_id
_citation_journal_full
_citation_year
_citation_journal_volume
_citation_page_first
_citation_page_last
_citation_journal_id_ASTM
primary 'Zeitschrift fuer Anorganische und Allgemeine Chemie (1950) (DE)' 1995
621 484 487 ZAACAB
loop_
_publ_author_name
'Kraft, T.'
'Jansen, M.'
_cell_length_a 5.255(3)
_cell_length_b 8.511(4)
_cell_length_c 7.969(5)
_cell_angle_alpha 90.
_cell_angle_beta 104.21(3)
_cell_angle_gamma 90.
_cell_volume 345.51
_cell_formula_units_Z 4
_symmetry_space_group_name_H-M 'P 1 21/n 1'
_symmetry_Int_Tables_number 14
_refine_ls_R_factor_all 0.0271
loop_
_symmetry_equiv_pos_site_id
_symmetry_equiv_pos_as_xyz
1 '-x+1/2, y+1/2, -z+1/2'
2 '-x, -y, -z'
3 'x+1/2, -y+1/2, z+1/2'
4 'x, y, z'
loop_
_atom_type_symbol
_atom_type_oxidation_number
I7+ 7
O2- -2
Li1+ 1
loop_
_atom_site_label
_atom_site_type_symbol
_atom_site_symmetry_multiplicity
_atom_site_Wyckoff_symbol
_atom_site_fract_x
_atom_site_fract_y
_atom_site_fract_z
_atom_site_B_iso_or_equiv
_atom_site_occupancy
_atom_site_attached_hydrogens
I1 I7+ 4 e 0.21753(2) 0.204110(12) 0.070410(13) . 1. 0
O1 O2- 4 e 0.3868(3) 0.3709(2) 0.0213(2) . 1. 0
O2 O2- 4 e 0.4178(4) 0.1008(2) 0.2447(3) . 1. 0
O3 O2- 4 e -.0678(4) 0.2642(2) 0.1302(3) . 1. 0
O4 O2- 4 e 0.1379(4) 0.0813(2) -.1127(2) . 1. 0
Li1 Li1+ 4 e -.2516(9) 0.4638(6) 0.1683(6) . 1. 0
loop_
_atom_site_aniso_label
_atom_site_aniso_type_symbol
_atom_site_aniso_U_11
_atom_site_aniso_U_22
_atom_site_aniso_U_33
_atom_site_aniso_U_12
_atom_site_aniso_U_13
_atom_site_aniso_U_23
I1 I7+ 0.01608(7) 0.01321(6) 0.01583(6) -.00035(3) 0.00431(4) 0.00047(3)
O1 O2- 0.0233(7) 0.0207(6) 0.0244(6) -.0068(5) 0.0003(5) 0.0068(5)
O2 O2- 0.0262(8) 0.0274(7) 0.0300(8) 0.0048(6) 0.0012(6) 0.0119(6)
O3 O2- 0.0240(7) 0.0232(6) 0.0414(10) 0.0028(6) 0.0175(7) -.0025(7)
O4 O2- 0.0467(11) 0.0232(6) 0.0231(7) -.0131(7) 0.0167(7) -.0082(5)
Li1 Li1+ 0.026(2) 0.027(2) 0.025(2) 0.003(2) 0.0077(14) 0.0038(15)
#End of TTdata_400552-ICSD