
#(C) 2019 by FIZ Karlsruhe - Leibniz Institute for Information Infrastructure.  All rights reserved.
data_400723-ICSD
_database_code_ICSD 400723
_audit_creation_date 1995-01-10
_audit_update_record 2006-04-01
_chemical_name_systematic 'Trisodium hexafluoroscandate'
_chemical_formula_structural 'Na3 (Sc F6)'
_chemical_formula_sum 'F6 Na3 Sc1'
_chemical_name_structure_type Perovskite-Na3AlF6
_exptl_crystal_density_diffrn 2.87
_publ_section_title

;
Die Kryolithstruktur von Na3 Sc F6 und die Oktaederkippung in isostrukturellen
Natriumhexafluorometallaten Na3 M F6
;
loop_
_citation_id
_citation_journal_full
_citation_year
_citation_journal_volume
_citation_page_first
_citation_page_last
_citation_journal_id_ASTM
primary 'Zeitschrift fuer Anorganische und Allgemeine Chemie (1950) (DE)' 1994
620 1686 1691 ZAACAB
loop_
_publ_author_name
'Dahlke, P.'
'Babel, D.'
_cell_length_a 5.595(1)
_cell_length_b 5.802(1)
_cell_length_c 8.116(1)
_cell_angle_alpha 90.
_cell_angle_beta 90.72(1)
_cell_angle_gamma 90.
_cell_volume 263.44
_cell_formula_units_Z 2
_symmetry_space_group_name_H-M 'P 1 21/n 1'
_symmetry_Int_Tables_number 14
_refine_ls_R_factor_all 0.028
loop_
_symmetry_equiv_pos_site_id
_symmetry_equiv_pos_as_xyz
1 '-x+1/2, y+1/2, -z+1/2'
2 '-x, -y, -z'
3 'x+1/2, -y+1/2, z+1/2'
4 'x, y, z'
loop_
_atom_type_symbol
_atom_type_oxidation_number
Sc3+ 3
Na1+ 1
F1- -1
loop_
_atom_site_label
_atom_site_type_symbol
_atom_site_symmetry_multiplicity
_atom_site_Wyckoff_symbol
_atom_site_fract_x
_atom_site_fract_y
_atom_site_fract_z
_atom_site_B_iso_or_equiv
_atom_site_occupancy
_atom_site_attached_hydrogens
Sc1 Sc3+ 2 a 0 0 0 . 1. 0
Na1 Na1+ 2 b 0 0 0.5 . 1. 0
Na2 Na1+ 4 e 0.5138(1) -.0528(2) 0.24342(9) . 1. 0
F1 F1- 4 e 0.1218(2) 0.0647(2) 0.2298(1) . 1. 0
F2 F1- 4 e 0.7048(2) 0.1775(2) 0.0532(1) . 1. 0
F3 F1- 4 e 0.1686(2) 0.2866(2) -.0750(1) . 1. 0
loop_
_atom_site_aniso_label
_atom_site_aniso_type_symbol
_atom_site_aniso_U_11
_atom_site_aniso_U_22
_atom_site_aniso_U_33
_atom_site_aniso_U_12
_atom_site_aniso_U_13
_atom_site_aniso_U_23
Sc1 Sc3+ 0.0117(3) 0.0112(3) 0.0127(3) 0.0002(2) -.0011(2) -.0003(2)
Na1 Na1+ 0.0165(5) 0.0144(5) 0.0182(5) 0.0012(4) -.0028(4) 0.0011(4)
Na2 Na1+ 0.0224(5) 0.0212(4) 0.0314(5) -.0036(3) -.0009(3) 0.0008(3)
F1 F1- 0.0222(6) 0.0238(6) 0.0157(5) -.0014(4) -.0035(4) -.0018(4)
F2 F1- 0.0021(86) 0.0235(6) 0.0312(6) 0.0106(5) 0.0053(4) 0.0068(5)
F3 F1- 0.0222(6) 0.0194(5) 0.0316(6) -.0069(4) -.0066(4) 0.0076(4)
#End of TTdata_400723-ICSD