
#(C) 2019 by FIZ Karlsruhe - Leibniz Institute for Information Infrastructure.  All rights reserved.
data_401-ICSD
_database_code_ICSD 401
_audit_creation_date 1980-01-01
_audit_update_record 2011-08-01
_chemical_name_systematic 'Sodium neodymium tetrakis(catena-phosphate(V))'
_chemical_formula_structural 'Na Nd (P O3)4'
_chemical_formula_sum 'Na1 Nd1 O12 P4'
_chemical_name_structure_type KCe(PO3)4
_exptl_crystal_density_diffrn 3.43
_publ_section_title 'Sodium neodymium metaphosphate Na Nd P4 O12'
loop_
_citation_id
_citation_journal_full
_citation_year
_citation_journal_volume
_citation_page_first
_citation_page_last
_citation_journal_id_ASTM
primary

;
Acta Crystallographica, Section B: Structural Crystallography and Crystal
Chemistry
; 1976 32 2254 2256 ACBCAR
loop_
_publ_author_name
'Koizumi, H.'
_cell_length_a 9.907(4)
_cell_length_b 13.10(1)
_cell_length_c 7.201(3)
_cell_angle_alpha 90.
_cell_angle_beta 90.51(3)
_cell_angle_gamma 90.
_cell_volume 934.52
_cell_formula_units_Z 4
_symmetry_space_group_name_H-M 'P 1 21/n 1'
_symmetry_Int_Tables_number 14
_refine_ls_R_factor_all 0.028
loop_
_symmetry_equiv_pos_site_id
_symmetry_equiv_pos_as_xyz
1 '-x+1/2, y+1/2, -z+1/2'
2 '-x, -y, -z'
3 'x+1/2, -y+1/2, z+1/2'
4 'x, y, z'
loop_
_atom_type_symbol
_atom_type_oxidation_number
Nd3+ 3
P5+ 5
Na1+ 1
O2- -2
loop_
_atom_site_label
_atom_site_type_symbol
_atom_site_symmetry_multiplicity
_atom_site_Wyckoff_symbol
_atom_site_fract_x
_atom_site_fract_y
_atom_site_fract_z
_atom_site_B_iso_or_equiv
_atom_site_occupancy
_atom_site_attached_hydrogens
Nd1 Nd3+ 4 e 0.0238(1) 0.2174(1) 0.9868(1) . 1. 0
P1 P5+ 4 e 0.1943(1) 0.3722(1) 0.3548(2) . 1. 0
P2 P5+ 4 e 0.2561(1) 0.4001(2) 0.7509(2) . 1. 0
P3 P5+ 4 e 0.3037(1) 0.0896(1) 0.2305(2) . 1. 0
P4 P5+ 4 e 0.2360(1) 0.1145(1) 0.6197(2) . 1. 0
Na1 Na1+ 4 e 0.4338(2) 0.2787(2) 0.0001(3) . 1. 0
O1 O2- 4 e 0.1049(3) 0.2897(3) 0.2845(4) . 1. 0
O2 O2- 4 e 0.3417(3) 0.3671(3) 0.3192(4) . 1. 0
O3 O2- 4 e 0.2055(4) 0.3350(3) 0.9057(5) . 1. 0
O4 O2- 4 e 0.4035(3) 0.3937(3) 0.7143(5) . 1. 0
O5 O2- 4 e 0.1327(3) 0.4782(2) 0.2834(5) . 1. 0
O6 O2- 4 e 0.1674(3) 0.3769(3) 0.5718(4) . 1. 0
O7 O2- 4 e 0.2120(3) 0.1102(3) 0.0701(5) . 1. 0
O8 O2- 4 e 0.4180(3) 0.1607(3) 0.2614(5) . 1. 0
O9 O2- 4 e 0.3470(3) 0.1896(3) 0.6328(5) . 1. 0
O10 O2- 4 e 0.1016(3) 0.1418(3) 0.6929(5) . 1. 0
O11 O2- 4 e 0.2908(3) 0.0140(3) 0.7134(5) . 1. 0
O12 O2- 4 e 0.2119(3) 0.0806(3) 0.4107(5) . 1. 0
loop_
_atom_site_aniso_label
_atom_site_aniso_type_symbol
_atom_site_aniso_beta_11
_atom_site_aniso_beta_22
_atom_site_aniso_beta_33
_atom_site_aniso_beta_12
_atom_site_aniso_beta_13
_atom_site_aniso_beta_23
Nd1 Nd3+ 0.00301(2) 0.00180(1) 0.00523(3) 0.00004(1) 0.00015(1) -.00001(1)
P1 P5+ 0.00343(9) 0.00178(5) 0.00553(17) 0.00003(5) 0.0000(1) 0.00000(7)
P2 P5+ 0.00366(9) 0.00174(5) 0.00552(17) -.00013(6) 0.00008(10) -.00001(7)
P3 P5+ 0.00371(9) 0.00175(5) 0.00574(17) 0.00019(6) 0.00028(10) -.00007(8)
P4 P5+ 0.00348(9) 0.00179(5) 0.00592(17) -.00006(6) 0.00062(10) 0.00008(7)
Na1 Na1+ 0.00553(21) 0.00454(14) 0.00964(38) 0.00037(14) -.00075(23) 0.00145(19)
O1 O2- 0.00481(31) 0.00215(17) 0.00649(53) -.00054(19) -.00060(33) -.00045(25)
O2 O2- 0.00387(29) 0.00261(18) 0.00707(54) 0.00053(18) 0.00030(32) 0.00073(25)
O3 O2- 0.00483(5) 0.00227(19) 0.00748(58) -.00072(19) 0.00029(34) 0.00074(25)
O4 O2- 0.00361(29) 0.00230(17) 0.00749(56) -.00011(18) 0.00017(32) -.00058(25)
O5 O2- 0.00433(31) 0.00164(16) 0.00933(62) 0.00001(18) -.00055(35) 0.00068(25)
O6 O2- 0.00363(30) 0.00256(18) 0.00614(54) -.00011(19) -.00115(32) -.00031(25)
O7 O2- 0.00545(33) 0.00273(19) 0.00641(55) 0.00106(20) -.00074(34) -.00002(26)
O8 O2- 0.00522(33) 0.00240(18) 0.00732(58) -.00112(20) 0.00060(34) -.00055(26)
O9 O2- 0.00449(31) 0.00211(17) 0.00721(56) -.00088(18) 0.00081(33) -.00037(25)
O10 O2- 0.00414(30) 0.00253(18) 0.00712(55) 0.00041(19) 0.00082(32) -.00012(35)
O11 O2- 0.00471(31) 0.00182(17) 0.00850(58) 0.00000(18) 0.00020(33) 0.00038(25)
O12 O2- 0.00455(31) 0.00271(18) 0.00611(55) -.00070(19) 0.00059(33) -.00067(25)
#End of TTdata_401-ICSD