
#(C) 2019 by FIZ Karlsruhe - Leibniz Institute for Information Infrastructure.  All rights reserved.
data_40178-ICSD
_database_code_ICSD 40178
_audit_creation_date 1999-11-30
_audit_update_record 2012-08-01
_chemical_name_systematic 'Dipotassium sodium tris(tetrafluoroaluminate)'
_chemical_formula_structural 'K2 Na (Al F4)3'
_chemical_formula_sum 'Al3 F12 K2 Na1'
_chemical_name_structure_type K2NaAl3F12
_exptl_crystal_density_diffrn 2.91
_publ_section_title 'Structure determination of A2 Na Al3 F12 (A= K, Na)'
loop_
_citation_id
_citation_journal_full
_citation_year
_citation_journal_volume
_citation_page_first
_citation_page_last
_citation_journal_id_ASTM
primary 'Materials Research Bulletin' 1990 25 831 839 MRBUAC
loop_
_publ_author_name
'Le Bail, A.'
'Gao, Y.'
'Fourquet, J.L.'
'Jacoboni, C.'
_cell_length_a 11.882(7)
_cell_length_b 6.983(4)
_cell_length_c 6.942(4)
_cell_angle_alpha 90.
_cell_angle_beta 125.59(3)
_cell_angle_gamma 90.
_cell_volume 468.4
_cell_formula_units_Z 2
_symmetry_space_group_name_H-M 'P 1 21/m 1'
_symmetry_Int_Tables_number 11
_refine_ls_R_factor_all 0.038
loop_
_symmetry_equiv_pos_site_id
_symmetry_equiv_pos_as_xyz
1 'x, -y+1/2, z'
2 '-x, -y, -z'
3 '-x, y+1/2, -z'
4 'x, y, z'
loop_
_atom_type_symbol
_atom_type_oxidation_number
K1+ 1
Na1+ 1
Al3+ 3
F1- -1
loop_
_atom_site_label
_atom_site_type_symbol
_atom_site_symmetry_multiplicity
_atom_site_Wyckoff_symbol
_atom_site_fract_x
_atom_site_fract_y
_atom_site_fract_z
_atom_site_B_iso_or_equiv
_atom_site_occupancy
_atom_site_attached_hydrogens
K1 K1+ 2 e 0.8937(1) 0.25 0.9071(1) . 1. 0
K2 K1+ 2 e 0.3581(1) 0.75 0.8923(1) . 1. 0
Na1 Na1+ 2 e 0.2407(1) 0.25 0.0312(2) . 1. 0
Al1 Al3+ 2 d 0.5 0.5 0.5 . 1. 0
Al2 Al3+ 2 c 0 0 0.5 . 1. 0
Al3 Al3+ 2 e 0.2811(1) 0.25 0.5891(1) . 1. 0
F1 F1- 2 e 0.4984(2) 0.25 0.4189(2) . 1. 0
F2 F1- 2 e 0.3788(2) 0.25 0.8985(2) . 1. 0
F3 F1- 2 e 0.0582(1) 0.75 0.5843(3) . 1. 0
F4 F1- 2 e 0.8215(2) 0.75 0.7174(2) . 1. 0
F5 F1- 4 f 0.6510(1) 0.0405(2) 0.7849(2) . 1. 0
F6 F1- 4 f 0.3946(1) 0.0626(2) 0.6068(2) . 1. 0
F7 F1- 4 f 0.9490(1) 0.9565(2) 0.2112(2) . 1. 0
F8 F1- 4 f 0.8260(1) 0.5608(2) 0.4081(2) . 1. 0
loop_
_atom_site_aniso_label
_atom_site_aniso_type_symbol
_atom_site_aniso_U_11
_atom_site_aniso_U_22
_atom_site_aniso_U_33
_atom_site_aniso_U_12
_atom_site_aniso_U_13
_atom_site_aniso_U_23
K1 K1+ 0.0222(2) 0.0254(3) 0.0229(2) 0 0.0147(2) 0
K2 K1+ 0.0155(2) 0.0359(3) 0.0201(2) 0 0.0081(2) 0
Na1 Na1+ 0.0144(4) 0.0137(4) 0.0127(3) 0 0.0082(3) 0
Al1 Al3+ 0.0078(2) 0.0054(3) 0.0089(2) -.0004(2) 0.0003(2) 0.0053(2)
Al2 Al3+ 0.0073(2) 0.0058(3) 0.0085(2) -.0002(2) 0.0001(2) 0.0048(2)
Al3 Al3+ 0.0075(2) 0.0079(3) 0.0096(2) 0 0.0062(2) 0
F1 F1- 0.0156(5) 0.0062(5) 0.0136(5) 0 0.0094(4) 0
F2 F1- 0.0125(5) 0.0270(6) 0.0092(4) 0 0.0056(4) 0
F3 F1- 0.0115(5) 0.0055(5) 0.0145(5) 0 0.0062(4) 0
F4 F1- 0.0137(5) 0.0235(6) 0.0090(4) 0 0.0060(4) 0
F5 F1- 0.0120(3) 0.0127(4) 0.0115(3) -.0005(3) -.0007(3) 0.0040(3)
F6 F1- 0.0154(3) 0.0111(4) 0.0199(4) 0.0043(3) 0.0022(3) 0.0141(3)
F7 F1- 0.0187(4) 0.0125(4) 0.0104(3) -.0016(3) -.0021(3) 0.0088(3)
F8 F1- 0.0095(3) 0.0120(4) 0.0205(4) 0.0009(3) -.0029(3) 0.0090(3)
#End of TTdata_40178-ICSD