
#(C) 2019 by FIZ Karlsruhe - Leibniz Institute for Information Infrastructure.  All rights reserved.
data_401724-ICSD
_database_code_ICSD 401724
_audit_creation_date 1995-10-17
_chemical_name_systematic 'Disodium phyllo-pentathiodiborate'
_chemical_formula_structural 'Na2 (B2 S5)'
_chemical_formula_sum 'B2 Na2 S5'
_exptl_crystal_density_diffrn 1.96
_publ_section_title

;
Na2 B2 S5 and Li2 B2 S5: Two novel perthioborates with planar
1,2,4-trithia-3,5-diborolane rings
;
loop_
_citation_id
_citation_journal_full
_citation_year
_citation_journal_volume
_citation_page_first
_citation_page_last
_citation_journal_id_ASTM
primary 'Zeitschrift fuer Anorganische und Allgemeine Chemie (1950) (DE)' 1995
621 1322 1329 ZAACAB
loop_
_publ_author_name
'Jansen, C.'
'Kueper, J.'
'Krebs, B.'
_cell_length_a 12.545(2)
_cell_length_b 7.441(1)
_cell_length_c 8.271(1)
_cell_angle_alpha 90.
_cell_angle_beta 90.
_cell_angle_gamma 90.
_cell_volume 772.08
_cell_formula_units_Z 4
_symmetry_space_group_name_H-M 'P n m a'
_symmetry_Int_Tables_number 62
_refine_ls_R_factor_all 0.022
loop_
_symmetry_equiv_pos_site_id
_symmetry_equiv_pos_as_xyz
1 'x+1/2, y, -z+1/2'
2 'x, -y+1/2, z'
3 '-x+1/2, y+1/2, z+1/2'
4 '-x, -y, -z'
5 '-x+1/2, -y, z+1/2'
6 '-x, y+1/2, -z'
7 'x+1/2, -y+1/2, -z+1/2'
8 'x, y, z'
loop_
_atom_type_symbol
_atom_type_oxidation_number
S1- -1.6
Na1+ 1
B3+ 3
loop_
_atom_site_label
_atom_site_type_symbol
_atom_site_symmetry_multiplicity
_atom_site_Wyckoff_symbol
_atom_site_fract_x
_atom_site_fract_y
_atom_site_fract_z
_atom_site_B_iso_or_equiv
_atom_site_occupancy
_atom_site_attached_hydrogens
S1 S1- 4 c 0.48170(5) 0.25 0.84236(7) . 1. 0
S2 S1- 4 c 0.40239(5) 0.25 0.06369(8) . 1. 0
S3 S1- 4 c 0.64601(5) 0.25 1.12148(8) . 1. 0
S4 S1- 4 c 0.72563(5) 0.25 0.76313(8) . 1. 0
S5 S1- 4 c 0.49164(5) 0.25 1.41871(8) . 1. 0
Na1 Na1+ 8 d 0.33483(7) -.00448(12) 0.50670(12) . 1. 0
B1 B3+ 4 c 0.5124(2) 0.25 1.2076(4) . 1. 0
B2 B3+ 4 c 0.6198(2) 0.25 0.9042(3) . 1. 0
loop_
_atom_site_aniso_label
_atom_site_aniso_type_symbol
_atom_site_aniso_U_11
_atom_site_aniso_U_22
_atom_site_aniso_U_33
_atom_site_aniso_U_12
_atom_site_aniso_U_13
_atom_site_aniso_U_23
S1 S1- 0.019 0.048 0.019 0 0 0
S2 S1- 0.018 0.045 0.021 0 0.001 0
S3 S1- 0.021 0.043 0.023 0 0 0
S4 S1- 0.019 0.05 0.027 0 0.005 0
S5 S1- 0.032 0.038 0.018 0 0 0
Na1 Na1+ 0.04 0.036 0.06 0.004 0.003 0
B1 B3+ 0.027 0.027 0.022 0 0 0
B2 B3+ 0.022 0.032 0.027 0 0.002 0
#End of TTdata_401724-ICSD