
#(C) 2019 by FIZ Karlsruhe - Leibniz Institute for Information Infrastructure.  All rights reserved.
data_401761-ICSD
_database_code_ICSD 401761
_audit_creation_date 1996-04-22
_audit_update_record 2006-04-01
_chemical_name_systematic 'Trisodium hexafluoroscandate'
_chemical_formula_structural 'Na3 (Sc F6)'
_chemical_formula_sum 'F6 Na3 Sc1'
_chemical_name_structure_type Perovskite-Na3AlF6
_exptl_crystal_density_diffrn 2.87
_publ_section_title

;
Ternaere Halogenide des Scandiums mit Natrium, Na3 Sc X6 (X= F, Cl, Br):
Synthese, Strukturen, Ionenleitfaehigkeit
;
loop_
_citation_id
_citation_journal_full
_citation_year
_citation_journal_volume
_citation_page_first
_citation_page_last
_citation_journal_id_ASTM
primary 'Zeitschrift fuer Anorganische und Allgemeine Chemie (1950) (DE)' 1996
622 173 178 ZAACAB
loop_
_publ_author_name
'Bohnsack, A.'
'Meyer, G.'
_cell_length_a 5.6016(9)
_cell_length_b 5.8031(8)
_cell_length_c 8.121(2)
_cell_angle_alpha 90.
_cell_angle_beta 90.720(14)
_cell_angle_gamma 90.
_cell_volume 263.97
_cell_formula_units_Z 2
_symmetry_space_group_name_H-M 'P 1 21/n 1'
_symmetry_Int_Tables_number 14
_refine_ls_R_factor_all 0.0249
loop_
_symmetry_equiv_pos_site_id
_symmetry_equiv_pos_as_xyz
1 '-x+1/2, y+1/2, -z+1/2'
2 '-x, -y, -z'
3 'x+1/2, -y+1/2, z+1/2'
4 'x, y, z'
loop_
_atom_type_symbol
_atom_type_oxidation_number
Sc3+ 3
Na1+ 1
F1- -1
loop_
_atom_site_label
_atom_site_type_symbol
_atom_site_symmetry_multiplicity
_atom_site_Wyckoff_symbol
_atom_site_fract_x
_atom_site_fract_y
_atom_site_fract_z
_atom_site_B_iso_or_equiv
_atom_site_occupancy
_atom_site_attached_hydrogens
Sc1 Sc3+ 2 a 0 0 0 . 1. 0
Na1 Na1+ 2 b 0.5 0.5 0 . 1. 0
Na2 Na1+ 4 e 0.51389(10) -.05305(12) 0.24308(8) . 1. 0
F1 F1- 4 e -.29562(14) 0.17740(14) 0.05330(11) . 1. 0
F2 F1- 4 e 0.16849(15) 0.28703(14) -.07543(11) . 1. 0
F3 F1- 4 e 0.12182(14) 0.06515(14) 0.23005(9) . 1. 0
loop_
_atom_site_aniso_label
_atom_site_aniso_type_symbol
_atom_site_aniso_U_11
_atom_site_aniso_U_22
_atom_site_aniso_U_33
_atom_site_aniso_U_12
_atom_site_aniso_U_13
_atom_site_aniso_U_23
Sc1 Sc3+ 0.01629(11) 0.0152(1) 0.01614(10) -0.00032(9) 0.00035(7) 0.00012(8)
Na1 Na1+ 0.0218(3) 0.0187(3) 0.0219(3) -0.0009(2) -0.0013(2) 0.0017(2)
Na2 Na1+ 0.0271(3) 0.0242(2) 0.0351(3) 0.0004(2) 0.0006(2) -0.0037(2)
F1 F1- 0.0261(4) 0.0272(3) 0.0345(4) 0.0067(3) 0.0082(3) 0.0104(3)
F2 F1- 0.0269(4) 0.0232(3) 0.0352(4) 0.0081(3) -0.0047(3) -0.0075(3)
F3 F1- 0.0264(3) 0.0273(3) 0.0182(3) -0.0023(2) -0.0023(2) 0.0013(3)
#End of TTdata_401761-ICSD