
#(C) 2019 by FIZ Karlsruhe - Leibniz Institute for Information Infrastructure.  All rights reserved.
data_40177-ICSD
_database_code_ICSD 40177
_audit_creation_date 1999-11-30
_audit_update_record 2007-04-01
_chemical_name_systematic 'Dirubidium sodium tris(tetrafluoroaluminate)'
_chemical_formula_structural 'Rb2 Na (Al F4)3'
_chemical_formula_sum 'Al3 F12 Na1 Rb2'
_chemical_name_structure_type K2NaAl3F12
_exptl_crystal_density_diffrn 3.42
_publ_section_title 'Structure determination of A2 Na Al3 F12 (A= K, Na)'
loop_
_citation_id
_citation_journal_full
_citation_year
_citation_journal_volume
_citation_page_first
_citation_page_last
_citation_journal_id_ASTM
primary 'Materials Research Bulletin' 1990 25 831 839 MRBUAC
loop_
_publ_author_name
'Le Bail, A.'
'Gao, Y.'
'Fourquet, J.L.'
'Jacoboni, C.'
_cell_length_a 12.046(6)
_cell_length_b 6.984(4)
_cell_length_c 7.093(4)
_cell_angle_alpha 90.
_cell_angle_beta 125.04(4)
_cell_angle_gamma 90.
_cell_volume 488.57
_cell_formula_units_Z 2
_symmetry_space_group_name_H-M 'P 1 21/m 1'
_symmetry_Int_Tables_number 11
_refine_ls_R_factor_all 0.038
loop_
_symmetry_equiv_pos_site_id
_symmetry_equiv_pos_as_xyz
1 'x, -y+1/2, z'
2 '-x, -y, -z'
3 '-x, y+1/2, -z'
4 'x, y, z'
loop_
_atom_type_symbol
_atom_type_oxidation_number
Rb1+ 1
Na1+ 1
Al3+ 3
F1- -1
loop_
_atom_site_label
_atom_site_type_symbol
_atom_site_symmetry_multiplicity
_atom_site_Wyckoff_symbol
_atom_site_fract_x
_atom_site_fract_y
_atom_site_fract_z
_atom_site_B_iso_or_equiv
_atom_site_occupancy
_atom_site_attached_hydrogens
Rb1 Rb1+ 2 e 0.8827(2) 0.25 0.8768(3) . 1. 0
Rb2 Rb1+ 2 e 0.3618(2) 0.75 0.8805(3) . 1. 0
Na1 Na1+ 2 e 0.2450(5) 0.25 0.0264(9) 0.87(10) 1. 0
Al1 Al3+ 2 d 0.5 0.5 0.5 0.69(7) 1. 0
Al2 Al3+ 2 c 0 0 0.5 0.60(7) 1. 0
Al3 Al3+ 2 e 0.2716(3) 0.25 0.5605(6) 0.38(7) 1. 0
F1 F1- 2 e 0.5108(8) 0.25 0.4333(13) 1.03(14) 1. 0
F2 F1- 2 e 0.3608(8) 0.25 0.8577(14) 1.32(14) 1. 0
F3 F1- 2 e 0.0564(8) 0.75 0.5623(13) 1.00(14) 1. 0
F4 F1- 2 e 0.8209(8) 0.75 0.7320(14) 1.13(14) 1. 0
F5 F1- 4 f 0.6393(5) 0.0319(8) 0.7849(9) 1.13(10) 1. 0
F6 F1- 4 f 0.3849(5) 0.0648(8) 0.5831(8) 0.93(9) 1. 0
F7 F1- 4 f 0.9308(5) 0.9633(9) 0.2097(9) 1.14(9) 1. 0
F8 F1- 4 f 0.8371(5) 0.5612(8) 0.4499(9) 0.92(9) 1. 0
loop_
_atom_site_aniso_label
_atom_site_aniso_type_symbol
_atom_site_aniso_U_11
_atom_site_aniso_U_22
_atom_site_aniso_U_33
_atom_site_aniso_U_12
_atom_site_aniso_U_13
_atom_site_aniso_U_23
Rb1 Rb1+ 0.0257(9) 0.0253(9) 0.0227(9) 0 0 0.0159(7)
Rb2 Rb1+ 0.0193(8) 0.0261(9) 0.0138(8) 0 0 0.0066(6)
#End of TTdata_40177-ICSD