
#(C) 2018 by FIZ Karlsruhe - Leibniz Institute for Information Infrastructure.  All rights reserved.
data_402147-ICSD
_database_code_ICSD 402147
_audit_creation_date 1996-04-22
_audit_update_record 2012-02-01
_chemical_name_systematic 'Dipotassium lithium diarsenidoindate'
_chemical_formula_structural 'K2 Li (In As2)'
_chemical_formula_sum 'As2 In1 K2 Li1'
_chemical_name_structure_type Na2LiAlP2
_exptl_crystal_density_diffrn 3.65
_publ_section_title
'Crystal structure of dipotassium lithium diarsenidoindate, K2 Li In As2'
loop_
_citation_id
_citation_journal_full
_citation_year
_citation_journal_volume
_citation_page_first
_citation_page_last
_citation_journal_id_ASTM
primary 'Zeitschrift fuer Kristallographie (1979-2010)' 1995 210 959 959 ZEKRDZ
loop_
_publ_author_name
'Somer, M.'
'Carrillo Cabrera, W.'
'Peters, E.M.'
'Peters, K.'
'von Schnering, H.G.'
_cell_length_a 12.853(3)
_cell_length_b 15.514(3)
_cell_length_c 6.392(2)
_cell_angle_alpha 90.
_cell_angle_beta 90.
_cell_angle_gamma 90.
_cell_volume 1274.57
_cell_formula_units_Z 8
_symmetry_space_group_name_H-M 'C m c a'
_symmetry_Int_Tables_number 64
_refine_ls_R_factor_all 0.037
loop_
_symmetry_equiv_pos_site_id
_symmetry_equiv_pos_as_xyz
1 '-x, -y+1/2, z+1/2'
2 '-x, y+1/2, -z+1/2'
3 '-x, y, z'
4 '-x, -y, -z'
5 'x, y+1/2, -z+1/2'
6 'x, -y+1/2, z+1/2'
7 'x, -y, -z'
8 'x, y, z'
9 '-x+1/2, -y, z+1/2'
10 '-x+1/2, y, -z+1/2'
11 '-x+1/2, y+1/2, z'
12 '-x+1/2, -y+1/2, -z'
13 'x+1/2, y, -z+1/2'
14 'x+1/2, -y, z+1/2'
15 'x+1/2, -y+1/2, -z'
16 'x+1/2, y+1/2, z'
loop_
_atom_type_symbol
_atom_type_oxidation_number
K1+ 1
As3- -3
In3+ 3
Li1+ 1
loop_
_atom_site_label
_atom_site_type_symbol
_atom_site_symmetry_multiplicity
_atom_site_Wyckoff_symbol
_atom_site_fract_x
_atom_site_fract_y
_atom_site_fract_z
_atom_site_B_iso_or_equiv
_atom_site_occupancy
_atom_site_attached_hydrogens
K1 K1+ 8 e 0.25 0.17723(18) 0.25 . 1. 0
K2 K1+ 8 f 0 0.32585(17) 0.22399(30) . 1. 0
As1 As3- 8 e 0.25 0.39976(7) 0.25 . 1. 0
As2 As3- 8 f 0 0.09792(7) 0.22754(14) . 1. 0
In1 In3+ 8 d 0.13192(5) 0 0 . 1. 0
Li1 Li1+ 8 d 0.3785(15) 0 0 . 1. 0
loop_
_atom_site_aniso_label
_atom_site_aniso_type_symbol
_atom_site_aniso_U_11
_atom_site_aniso_U_22
_atom_site_aniso_U_33
_atom_site_aniso_U_12
_atom_site_aniso_U_13
_atom_site_aniso_U_23
K1 K1+ 0.0247(12) 0.0200(13) 0.01984(88) 0 -.00009(79) 0
K2 K1+ 0.0198(11) 0.0204(12) 0.01935(94) 0 0 -.00085(89)
As1 As3- 0.01326(53) 0.01279(61) 0.01246(39) 0 0.00156(33) 0
As2 As3- 0.01249(51) 0.01512(66) 0.01211(43) 0 0 -.00238(36)
In1 In3+ 0.01171(36) 0.01388(47) 0.01155(34) 0 0 -.00048(19)
Li1 Li1+ 0.0237(85) 0.036(16) 0.0269(94) 0 0 -.0014(62)
#End of TTdata_402147-ICSD