
#(C) 2017 by FIZ Karlsruhe - Leibniz Institute for Information Infrastructure.  All rights reserved.
data_402192-ICSD
_database_code_ICSD 402192
_audit_creation_date 1996-10-14
_chemical_name_systematic 'Lithium didysprosium(II) pentabromide'
_chemical_formula_structural 'Li Dy2 Br5'
_chemical_formula_sum 'Br5 Dy2 Li1'
_chemical_name_structure_type FeU2S5
_exptl_crystal_density_diffrn 5.55
_publ_section_title

;
Crystal structure of cesium dibarium pentabromide, Cs Ba2 Br5 and
didysprosium(II) pentabromide, Li Dy2 Br5
;
loop_
_citation_id
_citation_journal_full
_citation_year
_citation_journal_volume
_citation_page_first
_citation_page_last
_citation_journal_id_ASTM
primary 'Zeitschrift fuer Kristallographie (1979-2010)' 1996 211 255 256 ZEKRDZ
loop_
_publ_author_name
'Schilling, G.'
'Meyer, G.'
_cell_length_a 16.434(14)
_cell_length_b 6.958(2)
_cell_length_c 7.686(4)
_cell_angle_alpha 90.
_cell_angle_beta 95.65(7)
_cell_angle_gamma 90.
_cell_volume 874.61
_cell_formula_units_Z 4
_symmetry_space_group_name_H-M 'C 1 2/c 1'
_symmetry_Int_Tables_number 15
_refine_ls_R_factor_all 0.0765
loop_
_symmetry_equiv_pos_site_id
_symmetry_equiv_pos_as_xyz
1 'x, -y, z+1/2'
2 '-x, -y, -z'
3 '-x, y, -z+1/2'
4 'x, y, z'
5 'x+1/2, -y+1/2, z+1/2'
6 '-x+1/2, -y+1/2, -z'
7 '-x+1/2, y+1/2, -z+1/2'
8 'x+1/2, y+1/2, z'
loop_
_atom_type_symbol
_atom_type_oxidation_number
Dy2+ 2
Br1- -1
Li1+ 1
loop_
_atom_site_label
_atom_site_type_symbol
_atom_site_symmetry_multiplicity
_atom_site_Wyckoff_symbol
_atom_site_fract_x
_atom_site_fract_y
_atom_site_fract_z
_atom_site_B_iso_or_equiv
_atom_site_occupancy
_atom_site_attached_hydrogens
Dy1 Dy2+ 8 f 0.39589(5) 0.27515(9) 0.42925(10) . 1. 0
Br1 Br1- 4 e 0 0.0706(3) 0.25 . 1. 0
Br2 Br1- 8 f 0.40893(10) 0.1219(2) 0.0727(2) . 1. 0
Br3 Br1- 8 f 0.2199(1) 0.0713(2) 0.3159(2) . 1. 0
Li1 Li1+ 4 c 0.25 0.25 0 . 1. 0
loop_
_atom_site_aniso_label
_atom_site_aniso_type_symbol
_atom_site_aniso_U_11
_atom_site_aniso_U_22
_atom_site_aniso_U_33
_atom_site_aniso_U_12
_atom_site_aniso_U_13
_atom_site_aniso_U_23
Dy1 Dy2+ 0.0233(5) 0.0277(3) 0.0196(4) -.0020(3) 0.0014(3) -.0004(3)
Br1 Br1- 0.0170(13) 0.0261(9) 0.0204(12) 0 -.0007(9) 0
Br2 Br1- 0.0237(10) 0.0292(7) 0.0244(9) -.0017(6) 0.0027(7) -.0051(6)
Br3 Br1- 0.0190(9) 0.0270(7) 0.0238(9) 0.0005(5) 0.0017(7) 0.0009(6)
Li1 Li1+ 0.023(31) 0.032(22) 0.102(47) 0.001(17) 0.002(28) 0.008(22)
#End of TTdata_402192-ICSD