
#(C) 2019 by FIZ Karlsruhe - Leibniz Institute for Information Infrastructure.  All rights reserved.
data_404487-ICSD
_database_code_ICSD 404487
_audit_creation_date 1996-10-14
_audit_update_record 2000-07-15
_chemical_name_systematic
'Silver sodium calcium ruthenium oxide (0.4/2.3/4.3/1/8)'
_chemical_formula_structural 'Ag0.4 Na2.3 Ca4.3 Ru O8'
_chemical_formula_sum 'Ag0.4 Ca4.3 Na2.3 O8 Ru1'
_exptl_crystal_density_diffrn 3.99
_publ_section_title
'Eine silberhaltige Phase eines Oxoruthenats: Ag0.4 Na2.3 Ca4.3 Ru O8'
loop_
_citation_id
_citation_journal_full
_citation_year
_citation_journal_volume
_citation_page_first
_citation_page_last
_citation_journal_id_ASTM
primary 'Zeitschrift fuer Naturforschung, B: A Journal of Chemical Sciences'
1996 51 485 488 ZNBSEN
loop_
_publ_author_name
'Mueller Buschbaum, H.'
'Frenzen, S.'
_cell_length_a 9.255(1)
_cell_length_b 6.683(1)
_cell_length_c 6.696(3)
_cell_angle_alpha 90.
_cell_angle_beta 90.
_cell_angle_gamma 90.
_cell_volume 414.16
_cell_formula_units_Z 2
_symmetry_space_group_name_H-M 'C m m m'
_symmetry_Int_Tables_number 65
_refine_ls_R_factor_all 0.0407
loop_
_symmetry_equiv_pos_site_id
_symmetry_equiv_pos_as_xyz
1 'x, -y, z'
2 '-x, y, z'
3 'x, y, -z'
4 '-x, -y, -z'
5 '-x, y, -z'
6 'x, -y, -z'
7 '-x, -y, z'
8 'x, y, z'
9 'x+1/2, -y+1/2, z'
10 '-x+1/2, y+1/2, z'
11 'x+1/2, y+1/2, -z'
12 '-x+1/2, -y+1/2, -z'
13 '-x+1/2, y+1/2, -z'
14 'x+1/2, -y+1/2, -z'
15 '-x+1/2, -y+1/2, z'
16 'x+1/2, y+1/2, z'
loop_
_atom_type_symbol
_atom_type_oxidation_number
Na1+ 1
Ag1+ 1
Na1+ 1
Ca2+ 2
Na1+ 1
Ca2+ 2
Ru5+ 5
O2- -2
loop_
_atom_site_label
_atom_site_type_symbol
_atom_site_symmetry_multiplicity
_atom_site_Wyckoff_symbol
_atom_site_fract_x
_atom_site_fract_y
_atom_site_fract_z
_atom_site_B_iso_or_equiv
_atom_site_occupancy
_atom_site_attached_hydrogens
Na1 Na1+ 2 a 0 0 0 . 0.5904(15) 0
Ag1 Ag1+ 2 a 0 0 0 . 0.4096(15) 0
Na2 Na1+ 2 b 0.5 0 0 . 0.696(6) 0
Ca2 Ca2+ 2 b 0.5 0 0 . 0.304(6) 0
Na3 Na1+ 2 d 0 0 0.5 . 1. 0
Ca1 Ca2+ 8 m 0.25 0.25 0.24734(6) . 1. 0
Ru1 Ru5+ 2 c 0.5 0 0.5 . 1. 0
O1 O2- 8 n 0.5 0.2106(2) 0.2913(2) 0.0144(3) 1. 0
O2 O2- 4 h 0.2814(2) 0 0.5 0.0093(3) 1. 0
O3 O2- 4 g 0.2272(4) 0 0 0.0103(4) 0.5 0
O4 O2- 4 g 0.2434(4) 0 0 0.0103(4) 0.5 0
loop_
_atom_site_aniso_label
_atom_site_aniso_type_symbol
_atom_site_aniso_U_11
_atom_site_aniso_U_22
_atom_site_aniso_U_33
_atom_site_aniso_U_12
_atom_site_aniso_U_13
_atom_site_aniso_U_23
Na1 Na1+ 0.0071(2) 0.0185(2) 0.0123(2) 0 0 0
Ag1 Ag1+ 0.0071(2) 0.0185(2) 0.0123(2) 0 0 0
Na2 Na1+ 0.0089(5) 0.0124(5) 0.0080(5) 0 0 0
Ca2 Ca2+ 0.0089(5) 0.0124(5) 0.0080(5) 0 0 0
Na3 Na1+ 0.0150(7) 0.0095(6) 0.0131(7) 0 0 0
Ca1 Ca2+ 0.0084(2) 0.0111(2) 0.0092(2) 0.00014(9) 0 0
Ru1 Ru5+ 0.00464(10) 0.00785(11) 0.00777(12) 0 0 0
#End of TTdata_404487-ICSD