
#(C) 2017 by FIZ Karlsruhe - Leibniz Institute for Information Infrastructure.  All rights reserved.
data_4045-ICSD
_database_code_ICSD 4045
_audit_creation_date 1980-01-01
_chemical_name_systematic 'Lithium manganese hexafluorogallate'
_chemical_formula_structural 'Li Mn Ga F6'
_chemical_formula_sum 'F6 Ga1 Li1 Mn1'
_chemical_name_structure_type Na2SiF6
_exptl_crystal_density_diffrn 4.
_publ_section_title 'Die Struktur von Li Mn Ga F6'
loop_
_citation_id
_citation_journal_full
_citation_year
_citation_journal_volume
_citation_page_first
_citation_page_last
_citation_journal_id_ASTM
primary 'Zeitschrift fuer Anorganische und Allgemeine Chemie (1950) (DE)' 1975
413 77 84 ZAACAB
loop_
_publ_author_name
'Viebahn, W.'
_cell_length_a 8.638
_cell_length_b 8.638
_cell_length_c 4.738
_cell_angle_alpha 90.
_cell_angle_beta 90.
_cell_angle_gamma 120.
_cell_volume 306.16
_cell_formula_units_Z 3
_symmetry_space_group_name_H-M 'P 3 2 1'
_symmetry_Int_Tables_number 150
_refine_ls_R_factor_all 0.066
loop_
_symmetry_equiv_pos_site_id
_symmetry_equiv_pos_as_xyz
1 'x-y, -y, -z'
2 '-x, -x+y, -z'
3 'y, x, -z'
4 '-x+y, -x, z'
5 '-y, x-y, z'
6 'x, y, z'
loop_
_atom_type_symbol
_atom_type_oxidation_number
Ga3+ 3
Mn2+ 2
Li1+ 1
F1- -1
loop_
_atom_site_label
_atom_site_type_symbol
_atom_site_symmetry_multiplicity
_atom_site_Wyckoff_symbol
_atom_site_fract_x
_atom_site_fract_y
_atom_site_fract_z
_atom_site_B_iso_or_equiv
_atom_site_occupancy
_atom_site_attached_hydrogens
Ga1 Ga3+ 1 a 0 0 0 0.52 1. 0
Ga2 Ga3+ 2 d 0.3333 0.6666 0.5019(3) 0.58 1. 0
Mn1 Mn2+ 3 e 0.6342(2) 0 0 0.58 1. 0
Li1 Li1+ 3 f 0.3330(3) 0 0.5 1. 1. 0
F1 F1- 6 g 0.0984(8) 0.8887(8) 0.78(1) 1.19 1. 0
F2 F1- 6 g 0.4565(7) 0.5803(7) 0.728(1) 1.24 1. 0
F3 F1- 6 g 0.2228(8) 0.7671(7) 0.282(1) 1.24 1. 0
#End of TTdata_4045-ICSD