
#(C) 2019 by FIZ Karlsruhe - Leibniz Institute for Information Infrastructure.  All rights reserved.
data_40451-ICSD
_database_code_ICSD 40451
_audit_creation_date 1999-06-02
_audit_update_record 2011-02-01
_chemical_name_systematic 'Sodium tecto-alumodisilicate hydrate'
_chemical_formula_structural 'Na Al (Si2 O6) (H2 O)'
_chemical_formula_sum 'H2 Al1 Na1 O7 Si2'
_chemical_name_structure_type 'Analcime 1M'
_chemical_name_mineral 'Analcime 1M'
_exptl_crystal_density_diffrn 2.29
_publ_section_title
'The crystal structure of natural monoclinic analcime (Na Al Si2 O6 * H2 O)'
loop_
_citation_id
_citation_journal_full
_citation_year
_citation_journal_volume
_citation_page_first
_citation_page_last
_citation_journal_id_ASTM
primary 'Zeitschrift fuer Kristallographie' 1988 184 63 69 ZEKRDZ
loop_
_publ_author_name
'Pechar, F.'
_cell_length_a 13.689(2)
_cell_length_b 13.676(2)
_cell_length_c 13.665(2)
_cell_angle_alpha 90.
_cell_angle_beta 90.38(1)
_cell_angle_gamma 90.
_cell_volume 2558.18
_cell_formula_units_Z 16
_symmetry_space_group_name_H-M 'I 1 2/a 1'
_symmetry_Int_Tables_number 15
_refine_ls_R_factor_all 0.03
loop_
_symmetry_equiv_pos_site_id
_symmetry_equiv_pos_as_xyz
1 'x+1/2, -y, z'
2 '-x, -y, -z'
3 '-x+1/2, y, -z'
4 'x, y, z'
5 'x, -y+1/2, z+1/2'
6 '-x+1/2, -y+1/2, -z+1/2'
7 '-x, y+1/2, -z+1/2'
8 'x+1/2, y+1/2, z+1/2'
loop_
_atom_type_symbol
_atom_type_oxidation_number
Si4+ 4
Al3+ 3
O2- -2
Na1+ 1
H1+ 1
loop_
_atom_site_label
_atom_site_type_symbol
_atom_site_symmetry_multiplicity
_atom_site_Wyckoff_symbol
_atom_site_fract_x
_atom_site_fract_y
_atom_site_fract_z
_atom_site_B_iso_or_equiv
_atom_site_occupancy
_atom_site_attached_hydrogens
Si1 Si4+ 8 f 0.1122(1) 0.1580(1) 0.4175(1) . 1. 0
Si2 Si4+ 8 f 0.4221(1) 0.1310(1) 0.1599(1) . 1. 0
Si3 Si4+ 8 f -.1286(1) 0.3381(1) 0.4056(1) . 1. 0
Si4 Si4+ 8 f -.4029(1) 0.3728(1) 0.1682(1) . 1. 0
Al1 Al3+ 8 f 0.1753(1) 0.4112(1) 0.1370(1) . 1. 0
Al2 Al3+ 8 f -.1526(1) 0.0856(1) 0.1176(1) . 1. 0
O1 O2- 8 f 0.1099(3) 0.3434(3) 0.2274(3) . 1. 0
O2 O2- 8 f -.0905(3) 0.1464(3) 0.2150(3) . 1. 0
O3 O2- 8 f 0.1166(3) 0.3624(3) 0.0340(3) . 1. 0
O4 O2- 8 f -.0983(3) 0.1499(3) 0.0209(3) . 1. 0
O5 O2- 8 f 0.2029(3) 0.1165(3) 0.3757(3) . 1. 0
O6 O2- 8 f -.2237(3) 0.3999(3) 0.3796(3) . 1. 0
O7 O2- 8 f 0.1645(3) 0.5357(3) 0.1452(3) . 1. 0
O8 O2- 8 f -.1282(3) 0.9626(3) 0.1137(3) . 1. 0
O9 O2- 8 f 0.3976(3) 0.2243(3) 0.0891(3) . 1. 0
O10 O2- 8 f -.3556(3) 0.2780(3) 0.1144(3) . 1. 0
O11 O2- 8 f 0.0132(3) 0.1104(3) 0.3720(3) . 1. 0
O12 O2- 8 f -.0405(3) 0.3782(3) 0.3361(3) . 1. 0
O13 O2- 8 f 0.1344(4) 0.1268(4) 0.1348(4) . 1. 0
O14 O2- 8 f 0.8858(4) 0.3703(4) 0.1169(4) . 1. 0
Na1 Na1+ 8 f 0.1318(1) 0.9997(1) 0.2561(1) . 0.5 0
Na2 Na1+ 4 e 0.25 0.1203(4) 0 . 1. 0
Na3 Na1+ 4 e 0.75 0.3763(4) 0 . 1. 0
Na4 Na1+ 8 f 0.0115(1) 0.2474(1) 0.1160(1) . 0.5 0
H1 H1+ 8 f 0.0899(4) 0.0949(4) 0.16 . 1. 0
H2 H1+ 8 f 0.1790(4) 0.1610(4) 0.0920(4) . 1. 0
H3 H1+ 8 f 0.8413(4) 0.3388(4) 0.0719(4) . 1. 0
H4 H1+ 8 f 0.9353(4) 0.4018(4) 0.0789(4) . 1. 0
loop_
_atom_site_aniso_label
_atom_site_aniso_type_symbol
_atom_site_aniso_U_11
_atom_site_aniso_U_22
_atom_site_aniso_U_33
_atom_site_aniso_U_12
_atom_site_aniso_U_13
_atom_site_aniso_U_23
Si1 Si4+ 0.0064(6) 0.0068(6) 0.0061(6) 0.0002(5) -0.0001(5) -0.0001(5)
Si2 Si4+ 0.0049(7) 0.0064(7) 0.0075(7) -0.0002(5) -0.0003(5) -0.0010(5)
Si3 Si4+ 0.0049(6) 0.0064(6) 0.0065(6) -0.0018(5) 0.0009(5) 0.0001(5)
Si4 Si4+ 0.0065(6) 0.0069(6) 0.0062(6) 0.0001(5) -0.0001(5) -0.0001(5)
Al1 Al3+ 0.0058(8) 0.0056(7) 0.0072(7) 0.0001(6) 0.0005(6) -0.0004(6)
Al2 Al3+ 0.0062(8) 0.0053(7) 0.0076(8) -0.0005(6) 0.0008(6) -0.0003(6)
O1 O2- 0.0172(5) 0.0084(5) 0.0079(5) -0.0006(4) 0.0022(4) 0.0018(4)
O2 O2- 0.0197(6) 0.0081(5) 0.0112(5) -0.0005(4) -0.0027(4) -0.0028(4)
O3 O2- 0.0054(5) 0.0070(5) 0.0131(5) -0.0013(4) -0.0011(4) -0.0011(4)
O4 O2- 0.0070(5) 0.0076(5) 0.0140(5) -0.0022(4) 0.0002(4) 0.0006(4)
O5 O2- 0.0110(5) 0.0085(5) 0.0129(5) 0.0029(4) 0.0000(4) -0.0045(4)
O6 O2- 0.0125(5) 0.0110(5) 0.0139(5) 0.0029(4) 0.0018(4) 0.0050(4)
O7 O2- 0.0082(5) 0.0097(5) 0.0154(5) 0.0017(4) -0.0042(4) -0.0005(4)
O8 O2- 0.0093(5) 0.0126(5) 0.0135(5) 0.0030(4) 0.0044(41) 0.0007(4)
O9 O2- 0.0095(5) 0.0167(6) 0.0121(5) -0.0019(4) 0.0036(4) 0.0016(4)
O10 O2- 0.0079(5) 0.0171(5) 0.0087(5) 0.0000(4) -0.0006(4) -0.0026(4)
O11 O2- 0.0094(5) 0.0128(5) 0.0136(5) 0.0032(4) 0.0042(4) 0.0008(4)
O12 O2- 0.0071(5) 0.0078(5) 0.0142(5) -0.0024(4) 0.0004(4) 0.0008(4)
O13 O2- 0.0280(8) 0.0421(9) 0.0207(7) -0.0068(7) 0.0108(6) -0.0101(7)
O14 O2- 0.0159(7) 0.0137(7) 0.0434(8) -0.0005(5) -0.0044(6) 0.0049(6)
Na1 Na1+ 0.0100(7) 0.0102(7) 0.0121(7) -0.0008(5) -0.0013(5) -0.0017(5)
Na2 Na1+ 0.0110(7) 0.0085(7) 0.0129(7) 0.0029(5) 0.0000(5) -0.0045(5)
Na3 Na1+ 0.0174(7) 0.0086(7) 0.0080(7) -0.0008(5) 0.0024(5) 0.0020(5)
Na4 Na1+ 0.0125(7) 0.0110(7) 0.0138(7) -0.0028(5) 0.0012(5) 0.0048(5)
H1 H1+ 0.0400(16) 0.0534(17) 0.0345(13) -0.0014(12) 0.0180(12) 0.0042(12)
H2 H1+ 0.0463(19) 0.0681(20) 0.0445(16) -0.0141(16) 0.0053(14) -0.0172(15)
H3 H1+ 0.0262(16) 0.0579(19) 0.0681(21) 0.0012(13) 0.0031(14) 0.0042(16)
H4 H1+ 0.0472(16) 0.0205(13) 0.0475(15) 0.0020(11) -0.0087(12) -0.0001(11)
#End of TTdata_40451-ICSD