
#(C) 2019 by FIZ Karlsruhe - Leibniz Institute for Information Infrastructure.  All rights reserved.
data_405055-ICSD
_database_code_ICSD 405055
_audit_creation_date 1997-11-10
_chemical_name_systematic 'Disodium nitrate(I)'
_chemical_formula_structural 'Na2 (N2 O2)'
_chemical_formula_sum 'N2 Na2 O2'
_chemical_name_structure_type Na2N2O2
_exptl_crystal_density_diffrn 2.45
_publ_section_title

;
Cis-sodium hyponitrite - a new preparative route and a crystal structure
analysis
;
loop_
_citation_id
_citation_journal_full
_citation_year
_citation_journal_volume
_citation_page_first
_citation_page_last
_citation_journal_id_ASTM
primary 'Angewandte Chemie, International Edition in English' 1996 35 1728 1730
ACIEAY
loop_
_publ_author_name
'Feldmann, C.'
'Jansen, M.'
_cell_length_a 5.11(1)
_cell_length_b 9.21(2)
_cell_length_c 6.16(1)
_cell_angle_alpha 90.
_cell_angle_beta 97.9(1)
_cell_angle_gamma 90.
_cell_volume 287.16
_cell_formula_units_Z 4
_symmetry_space_group_name_H-M 'P 1 21/c 1'
_symmetry_Int_Tables_number 14
_refine_ls_R_factor_all 0.07
loop_
_symmetry_equiv_pos_site_id
_symmetry_equiv_pos_as_xyz
1 'x, -y+1/2, z+1/2'
2 '-x, -y, -z'
3 '-x, y+1/2, -z+1/2'
4 'x, y, z'
loop_
_atom_type_symbol
_atom_type_oxidation_number
Na1+ 1
N1+ 1
O2- -2
N1+ 1
O2- -2
loop_
_atom_site_label
_atom_site_type_symbol
_atom_site_symmetry_multiplicity
_atom_site_Wyckoff_symbol
_atom_site_fract_x
_atom_site_fract_y
_atom_site_fract_z
_atom_site_B_iso_or_equiv
_atom_site_occupancy
_atom_site_attached_hydrogens
Na1 Na1+ 4 e 0.321 0.439 0.719 . 1. 0
Na2 Na1+ 4 e 0.218 0.751 0.557 . 1. 0
N1 N1+ 4 e 0.096 0.431 0.252 . 1. 0
O1 O2- 4 e 0.232 0.556 0.327 . 1. 0
N2 N1+ 4 e 0.207 0.334 0.17 . 1. 0
O2 O2- 4 e 0.476 0.352 0.152 . 1. 0
loop_
_atom_site_aniso_label
_atom_site_aniso_type_symbol
_atom_site_aniso_U_11
_atom_site_aniso_U_22
_atom_site_aniso_U_33
_atom_site_aniso_U_12
_atom_site_aniso_U_13
_atom_site_aniso_U_23
Na1 Na1+ 0.046 0.044 0.053 -.004 0.021 0.014
Na2 Na1+ 0.043 0.059 0.058 0.003 -.001 -.009
N1 N1+ 0.047 0.031 0.068 -.002 0.02 0.032
O1 O2- 0.032 0.055 0.071 0.004 0.007 -.028
N2 N1+ 0.069 0.056 0.039 0.001 0.034 0.015
O2 O2- 0.032 0.031 0.049 -.008 0.018 0.008
#End of TTdata_405055-ICSD