
#(C) 2019 by FIZ Karlsruhe - Leibniz Institute for Information Infrastructure.  All rights reserved.
data_405161-ICSD
_database_code_ICSD 405161
_audit_creation_date 1997-11-10
_chemical_name_systematic 'Tetrasodium catena-hydrogentriphosphate hydrate'
_chemical_formula_structural 'Na4 (H P3 O10) (H2 O)'
_chemical_formula_sum 'H3 Na4 O11 P3'
_exptl_crystal_density_diffrn 2.44
_publ_section_title
'Crystal structure of tetrasodiumtriphosphate monohydrate Na4 H P3 O10 . H2 O'
loop_
_citation_id
_citation_journal_full
_citation_year
_citation_journal_volume
_citation_page_first
_citation_page_last
_citation_journal_id_ASTM
primary 'Zeitschrift fuer Anorganische und Allgemeine Chemie (1950) (DE)' 1997
623 55 58 ZAACAB
loop_
_publ_author_name
'Kindler, N.'
'Jansen, M.'
_cell_length_a 6.932(5)
_cell_length_b 12.033(4)
_cell_length_c 11.885(4)
_cell_angle_alpha 90.
_cell_angle_beta 90.
_cell_angle_gamma 90.
_cell_volume 991.36
_cell_formula_units_Z 4
_symmetry_space_group_name_H-M 'P b c n'
_symmetry_Int_Tables_number 60
_refine_ls_R_factor_all 0.0857
loop_
_symmetry_equiv_pos_site_id
_symmetry_equiv_pos_as_xyz
1 'x, -y, z+1/2'
2 '-x+1/2, y+1/2, z'
3 'x+1/2, y+1/2, -z+1/2'
4 '-x, -y, -z'
5 '-x, y, -z+1/2'
6 'x+1/2, -y+1/2, -z'
7 '-x+1/2, -y+1/2, z+1/2'
8 'x, y, z'
loop_
_atom_type_symbol
_atom_type_oxidation_number
Na1+ 1
P5+ 5
O2- -2
H1+ 1
loop_
_atom_site_label
_atom_site_type_symbol
_atom_site_symmetry_multiplicity
_atom_site_Wyckoff_symbol
_atom_site_fract_x
_atom_site_fract_y
_atom_site_fract_z
_atom_site_B_iso_or_equiv
_atom_site_occupancy
_atom_site_attached_hydrogens
Na1 Na1+ 8 d -.20929(6) 0.09224(4) 0.18457(4) . 1. 0
Na2 Na1+ 8 d 0.68587(8) 0.30851(5) -.00350(5) . 1. 0
P1 P5+ 4 c 0 0.33915(2) 0.25 . 1. 0
P2 P5+ 8 d 0.29043(2) 0.43604(2) 0.097660(15) . 1. 0
O1 O2- 8 d 0.15699(9) 0.42757(5) 0.20966(5) . 1. 0
O2 O2- 8 d -.07637(12) 0.27584(6) 0.15186(6) . 1. 0
O3 O2- 8 d 0.3954(1) 0.32728(5) 0.08629(6) . 1. 0
O4 O2- 8 d 0.40464(11) 0.53861(6) 0.12129(6) . 1. 0
O5 O2- 8 d 0.15317(11) 0.44968(10) -.00349(6) . 1. 0
O6 O2- 4 c 0.5 0.18211(9) 0.25 . 1. 0
H1 H1+ 8 d 0.4773(50) 0.2303(26) 0.1892(24) 0.063(8) 1. 0
H2 H1+ 4 b 0.5 0 0 0.086(15) 1. 0
loop_
_atom_site_aniso_label
_atom_site_aniso_type_symbol
_atom_site_aniso_U_11
_atom_site_aniso_U_22
_atom_site_aniso_U_33
_atom_site_aniso_U_12
_atom_site_aniso_U_13
_atom_site_aniso_U_23
Na1 Na1+ 0.01909(14) 0.01842(14) 0.02040(14) 0.00055(11) -.00075(11) 0.00124(11)
Na2 Na1+ 0.0255(2) 0.0300(2) 0.0282(2) 0.0099(2) 0.0082(2) 0.0038(2)
P1 P5+ 0.01329(8) 0.01027(7) 0.01478(8) 0 0.00402(6) 0
P2 P5+ 0.01031(5) 0.01292(6) 0.01144(5) -.00012(4) 0.00172(4) -.00006(4)
O1 O2- 0.0197(2) 0.0191(2) 0.0171(2) -.0076(2) 0.0094(2) -.00534(15)
O2 O2- 0.0260(3) 0.0178(2) 0.0239(2) -.0066(2) 0.0006(2) -.0055(2)
O3 O2- 0.0211(2) 0.0160(2) 0.0209(2) 0.0047(2) 0.0051(2) 0.0003(2)
O4 O2- 0.0234(2) 0.0177(2) 0.0245(2) -.0090(2) 0.0071(2) -.0021(2)
O5 O2- 0.0187(2) 0.0543(5) 0.0147(2) 0.0122(3) -.0031(2) -.0017(2)
O6 O2- 0.0214(3) 0.0189(3) 0.0248(4) 0 0.0001(3) 0
#End of TTdata_405161-ICSD