
#(C) 2019 by FIZ Karlsruhe - Leibniz Institute for Information Infrastructure.  All rights reserved.
data_405879-ICSD
_database_code_ICSD 405879
_audit_creation_date 1997-11-10
_chemical_name_systematic 'Disodium tetragadolinium nonachloride oxide nitride'
_chemical_formula_structural 'Na2 Gd4 Cl9 O N'
_chemical_formula_sum 'Cl9 Gd4 N1 Na2 O1'
_chemical_name_structure_type Na2Pr4Cl9O2
_exptl_crystal_density_diffrn 4.37
_publ_section_title 'Zur Struktur und Phasenbreite von Na2 Gd4 Cl9 N O'
loop_
_citation_id
_citation_journal_full
_citation_year
_citation_journal_volume
_citation_page_first
_citation_page_last
_citation_journal_id_ASTM
primary 'Zeitschrift fuer Anorganische und Allgemeine Chemie (1950) (DE)' 1997
623 1011 1016 ZAACAB
loop_
_publ_author_name
'Beck, U.'
'Simon, A.'
_cell_length_a 7.961(6)
_cell_length_b 11.123(5)
_cell_length_c 9.161(7)
_cell_angle_alpha 90.
_cell_angle_beta 106.45(6)
_cell_angle_gamma 90.
_cell_volume 778.
_cell_formula_units_Z 2
_symmetry_space_group_name_H-M 'P 1 21/m 1'
_symmetry_Int_Tables_number 11
_refine_ls_R_factor_all 0.0224
loop_
_symmetry_equiv_pos_site_id
_symmetry_equiv_pos_as_xyz
1 'x, -y+1/2, z'
2 '-x, -y, -z'
3 '-x, y+1/2, -z'
4 'x, y, z'
loop_
_atom_type_symbol
_atom_type_oxidation_number
Na1+ 1
Gd3+ 3
Cl1- -1
O2- -2
N3- -3
loop_
_atom_site_label
_atom_site_type_symbol
_atom_site_symmetry_multiplicity
_atom_site_Wyckoff_symbol
_atom_site_fract_x
_atom_site_fract_y
_atom_site_fract_z
_atom_site_B_iso_or_equiv
_atom_site_occupancy
_atom_site_attached_hydrogens
Na1 Na1+ 4 f 0.2227(4) 0.9914(4) 0.4309(4) . 1. 0
Gd1 Gd3+ 2 e 0.59691(6) 0.25 0.83046(5) . 1. 0
Gd2 Gd3+ 2 e 0.61099(6) 0.25 0.21716(5) . 1. 0
Gd3 Gd3+ 4 f 0.28245(4) 0.04465(3) 0.95293(4) . 1. 0
Cl1 Cl1- 2 e 0.2511(3) 0.25 0.1431(3) . 1. 0
Cl2 Cl1- 2 e 0.2324(3) 0.25 0.7439(3) . 1. 0
Cl3 Cl1- 2 e 0.6439(4) 0.25 0.5332(3) . 1. 0
Cl4 Cl1- 4 f 0.8939(2) 0.4006(2) 0.8809(2) . 1. 0
Cl5 Cl1- 4 f 0.5023(3) 0.9970(2) 0.3028(2) . 1. 0
Cl6 Cl1- 4 f 0.9001(2) 0.0910(2) 0.3081(2) . 1. 0
O1 O2- 4 f 0.5601(6) 0.1243(5) 0.0147(6) . 0.5 0
N1 N3- 4 f 0.5601(6) 0.1243(5) 0.0147(6) . 0.5 0
loop_
_atom_site_aniso_label
_atom_site_aniso_type_symbol
_atom_site_aniso_U_11
_atom_site_aniso_U_22
_atom_site_aniso_U_33
_atom_site_aniso_U_12
_atom_site_aniso_U_13
_atom_site_aniso_U_23
Na1 Na1+ 0.037(2) 0.075(3) 0.033(2) 0.021(2) 0.010(2) 0.002(2)
Gd1 Gd3+ 0.0143(3) 0.0146(3) 0.0145(3) 0 0.0075(2) 0
Gd2 Gd3+ 0.0154(3) 0.0151(3) 0.0141(3) 0 0.0069(2) 0
Gd3 Gd3+ 0.0148(2) 0.0146(2) 0.0257(2) 0.00197(12) 0.0080(2) 0.00164(13)
Cl1 Cl1- 0.0159(12) 0.0327(15) 0.0262(14) 0 0.0103(11) 0
Cl2 Cl1- 0.0177(13) 0.0269(14) 0.0243(14) 0 0.0053(11) 0
Cl3 Cl1- 0.061(2) 0.029(2) 0.0218(15) 0 0.0185(14) 0
Cl4 Cl1- 0.0191(9) 0.0251(10) 0.0346(11) -.0053(7) 0.0121(8) -.0075(7)
Cl5 Cl1- 0.0492(13) 0.0394(12) 0.0246(11) -.0184(10) 0.0154(10) -.0034(9)
Cl6 Cl1- 0.0231(10) 0.0319(11) 0.0330(11) 0.0077(7) 0.0058(9) -.0059(8)
O1 O2- 0.015(3) 0.016(3) 0.027(3) 0.001(2) 0.010(2) -.001(2)
N1 N3- 0.015(3) 0.016(3) 0.027(3) 0.001(2) 0.010(2) -.001(2)
#End of TTdata_405879-ICSD