
#(C) 2019 by FIZ Karlsruhe - Leibniz Institute for Information Infrastructure.  All rights reserved.
data_407014-ICSD
_database_code_ICSD 407014
_audit_creation_date 1998-06-26
_chemical_name_systematic 'Disodium heptafluoromanganovanadate(III)'
_chemical_formula_structural 'Na2 (Mn V F7)'
_chemical_formula_sum 'F7 Mn1 Na2 V1'
_exptl_crystal_density_diffrn 3.23
_publ_section_title

;
Die Kristallstrukturen der Vanadium-Weberite Na2 M(II) V(III) F7 (M(II)=Mn,
Ni, Cu) und von Na V F4
;
loop_
_citation_id
_citation_journal_full
_citation_year
_citation_journal_volume
_citation_page_first
_citation_page_last
_citation_journal_id_ASTM
primary 'Zeitschrift fuer Anorganische und Allgemeine Chemie (1950) (DE)' 1997
623 1614 1620 ZAACAB
loop_
_publ_author_name
'Babel, D.'
'Peschel, B.'
_cell_length_a 7.467(1)
_cell_length_b 7.467(1)
_cell_length_c 18.2160(40)
_cell_angle_alpha 90.
_cell_angle_beta 90.
_cell_angle_gamma 120.
_cell_volume 879.58
_cell_formula_units_Z 6
_symmetry_space_group_name_H-M 'P 32 2 1'
_symmetry_Int_Tables_number 154
_refine_ls_R_factor_all 0.0346
loop_
_symmetry_equiv_pos_site_id
_symmetry_equiv_pos_as_xyz
1 '-x, -x+y, -z+2/3'
2 'x-y, -y, -z+1/3'
3 'y, x, -z'
4 '-x+y, -x, z+1/3'
5 '-y, x-y, z+2/3'
6 'x, y, z'
loop_
_atom_type_symbol
_atom_type_oxidation_number
Mn2+ 2
V3+ 3
F1- -1
Na1+ 1
loop_
_atom_site_label
_atom_site_type_symbol
_atom_site_symmetry_multiplicity
_atom_site_Wyckoff_symbol
_atom_site_fract_x
_atom_site_fract_y
_atom_site_fract_z
_atom_site_B_iso_or_equiv
_atom_site_occupancy
_atom_site_attached_hydrogens
Mn1 Mn2+ 6 c 0.1625(2) 0.5030(6) 0.17024(4) . 1. 0
V1 V3+ 3 a 0.3146(2) 0.3146(2) 0 . 1. 0
V2 V3+ 3 b 0.6620(2) 1.0000(4) 0.16667 . 1. 0
F1 F1- 6 c 0.1951(9) 0.4343(15) 0.0626(2) . 1. 0
F2 F1- 6 c 0.2000(9) 0.059(2) 0.0531(2) . 1. 0
F3 F1- 6 c 0.4362(9) 0.574(2) -.0532(2) . 1. 0
F4 F1- 6 c 0.3754(10) 0.8083(15) 0.1428(2) . 1. 0
F5 F1- 6 c 0.6951(10) 1.0713(15) 0.0637(2) . 1. 0
F6 F1- 6 c 0.9485(10) 1.1930(15) 0.1913(2) . 1. 0
F7 F1- 6 c -.0510(5) 0.5692(15) 0.1257(2) 0.0297(7) 1. 0
Na1 Na1+ 6 c 0.3699(13) 0.8717(6) 0.00148(15) . 1. 0
Na2 Na1+ 3 a 0 0.1509(10) 0.33333 . 1. 0
Na3 Na1+ 6 c 0.177(2) 0.0424(10) 0.1722(6) . 0.5 0
loop_
_atom_site_aniso_label
_atom_site_aniso_type_symbol
_atom_site_aniso_U_11
_atom_site_aniso_U_22
_atom_site_aniso_U_33
_atom_site_aniso_U_12
_atom_site_aniso_U_13
_atom_site_aniso_U_23
Mn1 Mn2+ 0.0114(3) 0.0125(4) 0.0120(3) 0.0058(3) 0.0009(2) 0.0005(3)
V1 V3+ 0.0209(5) 0.0209(6) 0.0072(4) 0.0128(3) -.0001(2) 0.0001(4)
V2 V3+ 0.0125(4) 0.0084(5) 0.0153(4) 0.0042(3) 0.0010(2) 0.0020(4)
F1 F1- 0.050(2) 0.051(3) 0.0203(14) 0.034(2) 0.0020(13) -.012(2)
F2 F1- 0.048(2) 0.035(2) 0.0207(14) 0.023(2) 0.007(2) 0.0110(13)
F3 F1- 0.059(3) 0.039(2) 0.021(2) 0.028(2) 0.011(2) 0.0135(14)
F4 F1- 0.018(2) 0.020(2) 0.038(2) 0.001(2) -.0025(14) 0.0056(15)
F5 F1- 0.026(2) 0.029(2) 0.0210(12) 0.0090(15) -.0004(12) 0.0096(14)
F6 F1- 0.019(2) 0.018(2) 0.038(2) 0.0017(15) -.0016(15) 0.0043(15)
Na1 Na1+ 0.0321(14) 0.038(2) 0.0423(14) 0.0156(15) -.0156(10) -.0104(11)
Na2 Na1+ 0.074(2) 0.053(4) 0.065(3) 0.037(2) -.0150(14) -.008(3)
Na3 Na1+ 0.048(5) 0.040(5) 0.016(3) 0.017(4) 0.000(3) 0.002(3)
#End of TTdata_407014-ICSD