
#(C) 2019 by FIZ Karlsruhe - Leibniz Institute for Information Infrastructure.  All rights reserved.
data_407013-ICSD
_database_code_ICSD 407013
_audit_creation_date 1998-06-26
_chemical_name_systematic 'Sodium tetrafluorovanadate(III)'
_chemical_formula_structural 'Na (V F4)'
_chemical_formula_sum 'F4 Na1 V1'
_chemical_name_structure_type NdTaO4
_exptl_crystal_density_diffrn 3.21
_publ_section_title

;
Die Kristallstrukturen der Vanadium-Weberite Na2 M(II) V(III) F7 (M(II)=Mn,
Ni, Cu) und von Na V F4
;
loop_
_citation_id
_citation_journal_full
_citation_year
_citation_journal_volume
_citation_page_first
_citation_page_last
_citation_journal_id_ASTM
primary 'Zeitschrift fuer Anorganische und Allgemeine Chemie (1950) (DE)' 1997
623 1614 1620 ZAACAB
loop_
_publ_author_name
'Babel, D.'
'Peschel, B.'
_cell_length_a 7.901(2)
_cell_length_b 5.317(1)
_cell_length_c 7.540(2)
_cell_angle_alpha 90.
_cell_angle_beta 101.73(3)
_cell_angle_gamma 90.
_cell_volume 310.14
_cell_formula_units_Z 4
_symmetry_space_group_name_H-M 'P 1 21/c 1'
_symmetry_Int_Tables_number 14
_refine_ls_R_factor_all 0.0262
loop_
_symmetry_equiv_pos_site_id
_symmetry_equiv_pos_as_xyz
1 'x, -y+1/2, z+1/2'
2 '-x, -y, -z'
3 '-x, y+1/2, -z+1/2'
4 'x, y, z'
loop_
_atom_type_symbol
_atom_type_oxidation_number
F1- -1
Na1+ 1
V3+ 3
loop_
_atom_site_label
_atom_site_type_symbol
_atom_site_symmetry_multiplicity
_atom_site_Wyckoff_symbol
_atom_site_fract_x
_atom_site_fract_y
_atom_site_fract_z
_atom_site_B_iso_or_equiv
_atom_site_occupancy
_atom_site_attached_hydrogens
F1 F1- 4 e 0.1733(2) 0.1418(3) 0.0505(2) . 1. 0
F2 F1- 4 e 0.0344(2) 0.5530(2) 0.2076(2) . 1. 0
F3 F1- 4 e 0.3690(2) 0.4618(2) 0.3120(2) . 1. 0
F4 F1- 4 e 0.3142(2) 0.9815(2) 0.3761(2) . 1. 0
Na1 Na1+ 4 e 0.36670(14) 0.78158(15) 0.10903(13) . 1. 0
V1 V3+ 4 e 0.17279(4) 0.25556(5) 0.29968(4) . 1. 0
loop_
_atom_site_aniso_label
_atom_site_aniso_type_symbol
_atom_site_aniso_U_11
_atom_site_aniso_U_22
_atom_site_aniso_U_33
_atom_site_aniso_U_12
_atom_site_aniso_U_13
_atom_site_aniso_U_23
F1 F1- 0.0248(7) 0.0196(6) 0.0075(5) 0.0014(5) 0.0054(5) 0.0004(5)
F2 F1- 0.0201(6) 0.0178(5) 0.0184(6) 0.0072(4) 0.0042(5) 0.0028(5)
F3 F1- 0.0159(5) 0.0185(5) 0.0221(6) -.0031(4) 0.0037(5) 0.0028(5)
F4 F1- 0.0300(7) 0.0177(6) 0.0158(6) 0.0101(5) 0.0025(6) 0.0029(6)
Na1 Na1+ 0.0271(5) 0.0184(4) 0.0181(4) -.0026(3) 0.0032(4) -.0028(4)
V1 V3+ 0.0122(2) 0.0106(2) 0.0080(2) -.0001(1) 0.00179(11) 0.0002(2)
#End of TTdata_407013-ICSD