
#(C) 2019 by FIZ Karlsruhe - Leibniz Institute for Information Infrastructure.  All rights reserved.
data_407316-ICSD
_database_code_ICSD 407316
_audit_creation_date 1999-06-02
_chemical_name_systematic 'Sodium zinc arsenate(V) duhydrate'
_chemical_formula_structural 'Na Zn (As O4) (H2 O)2'
_chemical_formula_sum 'H4 As1 Na1 O6 Zn1'
_exptl_crystal_density_diffrn 3.22
_publ_section_title
'Structure and properties of the layer compound Na Zn As O4 * 2(H2 O)'
loop_
_citation_id
_citation_journal_full
_citation_year
_citation_journal_volume
_citation_page_first
_citation_page_last
_citation_journal_id_ASTM
primary 'Zeitschrift fuer Kristallographie' 1998 213 386 391 ZEKRDZ
loop_
_publ_author_name
'Gesing, T.M.'
_cell_length_a 5.613(1)
_cell_length_b 6.091(1)
_cell_length_c 7.960(2)
_cell_angle_alpha 86.66(2)
_cell_angle_beta 88.75(1)
_cell_angle_gamma 89.17(2)
_cell_volume 271.59
_cell_formula_units_Z 2
_symmetry_space_group_name_H-M 'P -1'
_symmetry_Int_Tables_number 2
_refine_ls_R_factor_all 0.0419
loop_
_symmetry_equiv_pos_site_id
_symmetry_equiv_pos_as_xyz
1 '-x, -y, -z'
2 'x, y, z'
loop_
_atom_type_symbol
_atom_type_oxidation_number
Na1+ 1
Zn2+ 2
As5+ 5
O2- -2
H1+ 1
loop_
_atom_site_label
_atom_site_type_symbol
_atom_site_symmetry_multiplicity
_atom_site_Wyckoff_symbol
_atom_site_fract_x
_atom_site_fract_y
_atom_site_fract_z
_atom_site_B_iso_or_equiv
_atom_site_occupancy
_atom_site_attached_hydrogens
Na1 Na1+ 1 a 0 0 0 . 1. 0
Na2 Na1+ 1 e 0.5 0.5 0 . 1. 0
Zn1 Zn2+ 2 i 0.30784(9) 0.24311(9) 0.60668(7) . 1. 0
As1 As5+ 2 i 0.80977(7) 0.25577(7) 0.37963(5) . 1. 0
O1 O2- 2 i 0.6514(6) 0.2323(6) 0.5604(4) . 1. 0
O2 O2- 2 i 0.1036(6) 0.2636(6) 0.4119(5) . 1. 0
O3 O2- 2 i 0.7594(6) 0.0381(5) 0.2629(4) . 1. 0
O4 O2- 2 i 0.7342(6) 0.4876(6) 0.2646(5) . 1. 0
O5 O2- 2 i 0.3308(7) 0.1688(7) 0.1118(5) . 1. 0
O6 O2- 2 i 0.1637(7) 0.6739(7) 0.1301(5) . 1. 0
H1 H1+ 2 i 0.173(10) 0.163(36) 0.0325(99) 0.132(36) 1. 0
H2 H1+ 2 i 0.274(17) 0.161(36) 0.2451(34) 0.132(36) 1. 0
H3 H1+ 2 i 0.0747(96) 0.5153(57) 0.122(17) 0.132(36) 1. 0
H4 H1+ 2 i 0.254(24) 0.719(23) 0.0091(83) 0.132(36) 1. 0
loop_
_atom_site_aniso_label
_atom_site_aniso_type_symbol
_atom_site_aniso_U_11
_atom_site_aniso_U_22
_atom_site_aniso_U_33
_atom_site_aniso_U_12
_atom_site_aniso_U_13
_atom_site_aniso_U_23
Na1 Na1+ 0.0298(13) 0.0264(13) 0.0241(13) -.001(1) -.0022(11) -.0024(11)
Na2 Na1+ 0.0323(14) 0.0275(14) 0.0255(14) -.0009(11) 0.0017(11) -.0017(11)
Zn1 Zn2+ 0.0217(2) 0.0184(2) 0.0189(2) -.0005(2) -.0006(2) -.0015(2)
As1 As5+ 0.0194(2) 0.0167(2) 0.0156(2) -.00031(13) -.00050(13) -.00159(14)
O1 O2- 0.0214(13) 0.031(2) 0.0177(14) -.0020(11) 0.0018(10) -.0038(12)
O2 O2- 0.0219(13) 0.029(2) 0.0206(14) -.0016(11) -.0026(11) 0.0001(12)
O3 O2- 0.0280(14) 0.0173(12) 0.0182(13) -.0021(10) -.0009(11) -.0005(10)
O4 O2- 0.0287(14) 0.0175(13) 0.0195(14) 0.0019(10) -.0025(11) -.001(1)
O5 O2- 0.029(2) 0.032(2) 0.027(2) -.0012(13) -.0022(14) -.0039(14)
O6 O2- 0.031(2) 0.029(2) 0.025(2) -.0014(13) 0.0027(13) 0.0007(13)
#End of TTdata_407316-ICSD