
#(C) 2019 by FIZ Karlsruhe - Leibniz Institute for Information Infrastructure.  All rights reserved.
data_40741-ICSD
_database_code_ICSD 40741
_audit_creation_date 1999-11-30
_audit_update_record 2012-02-01
_chemical_name_systematic 'Sodium zinc iron phosphate(V) (1/0.8/0.2/1)'
_chemical_formula_structural 'Na (Zn0.8 Fe0.2) (P O4)'
_chemical_formula_sum 'Fe0.2 Na1 O4 P1 Zn0.8'
_chemical_name_structure_type Na(Zn,Fe)PO4
_chemical_name_mineral 'Beryllonite, zincian'
_exptl_crystal_density_diffrn 3.38
_publ_section_title

;
Refined crystal structure of the Zn(Fe) analog of beryllonite allowing for
anisotropy of atomic thermal vibrations; comparison with hurlbutite
;
loop_
_citation_id
_citation_journal_full
_citation_year
_citation_journal_volume
_citation_page_first
_citation_page_last
_citation_journal_id_ASTM
primary 'Doklady Akademii Nauk SSSR' 1974 219 860 862 DANKAS
loop_
_publ_author_name
'Plakhov, G.F.'
'Egorov Tismenko, Yu.K.'
'Simonov, M.A.'
'Belov, N.V.'
_cell_length_a 8.717(2)
_cell_length_b 15.267(4)
_cell_length_c 8.043(7)
_cell_angle_alpha 90.
_cell_angle_beta 90.
_cell_angle_gamma 90.00(22)
_cell_volume 1070.38
_cell_formula_units_Z 12
_symmetry_space_group_name_H-M 'P 1 1 21/n'
_symmetry_Int_Tables_number 14
_refine_ls_R_factor_all 0.042
loop_
_symmetry_equiv_pos_site_id
_symmetry_equiv_pos_as_xyz
1 'x+1/2, y+1/2, -z+1/2'
2 '-x, -y, -z'
3 '-x+1/2, -y+1/2, z+1/2'
4 'x, y, z'
loop_
_atom_type_symbol
_atom_type_oxidation_number
Zn2+ 2
Fe2+ 2
Zn2+ 2
Fe2+ 2
Zn2+ 2
Fe2+ 2
P5+ 5
Na1+ 1
O2- -2
loop_
_atom_site_label
_atom_site_type_symbol
_atom_site_symmetry_multiplicity
_atom_site_Wyckoff_symbol
_atom_site_fract_x
_atom_site_fract_y
_atom_site_fract_z
_atom_site_B_iso_or_equiv
_atom_site_occupancy
_atom_site_attached_hydrogens
Zn1 Zn2+ 4 e 0.9190(1) 0.2431(1) 0.1765(1) 0.76(1) 0.8 0
Fe1 Fe2+ 4 e 0.9190(1) 0.2431(1) 0.1765(1) 0.76(1) 0.2 0
Zn2 Zn2+ 4 e 0.4071(1) 0.4212(1) 0.1701(1) 0.70(1) 0.8 0
Fe2 Fe2+ 4 e 0.4071(1) 0.4212(1) 0.1701(1) 0.70(1) 0.2 0
Zn3 Zn2+ 4 e 0.4359(1) 0.0915(1) 0.1663(1) 0.79(1) 0.8 0
Fe3 Fe2+ 4 e 0.4359(1) 0.0915(1) 0.1663(1) 0.79(1) 0.2 0
P1 P5+ 4 e 0.5791(2) 0.2668(1) 0.2783(2) 0.68(3) 1. 0
P2 P5+ 4 e 0.1069(2) 0.0810(1) 0.2780(3) 0.80(3) 1. 0
P3 P5+ 4 e 0.0649(2) 0.4112(1) 0.2705(2) 0.70(2) 1. 0
Na1 Na1+ 4 e 0.2408(4) 0.2448(2) 0.9776(5) 2.50(6) 1. 0
Na2 Na1+ 4 e 0.7328(3) 0.0878(2) 0.4670(4) 1.54(5) 1. 0
Na3 Na1+ 4 e 0.7768(3) 0.0691(2) 0.0214(5) 1.87(5) 1. 0
O1 O2- 4 e 0.4336(6) 0.2103(3) 0.2534(7) 1.54(9) 1. 0
O2 O2- 4 e 0.0878(6) 0.1812(3) 0.2818(7) 1.51(8) 1. 0
O3 O2- 4 e 0.2267(5) 0.3708(3) 0.2778(7) 1.25(8) 1. 0
O4 O2- 4 e 0.7195(5) 0.2072(3) 0.2600(7) 1.30(8) 1. 0
O5 O2- 4 e 0.9499(5) 0.0384(3) 0.2406(7) 1.33(8) 1. 0
O6 O2- 4 e 0.5808(5) 0.0097(3) 0.2654(7) 1.09(8) 1. 0
O7 O2- 4 e 0.5832(5) 0.3421(3) 0.1521(7) 1.37(8) 1. 0
O8 O2- 4 e 0.2218(6) 0.0552(3) 0.1434(7) 1.41(8) 1. 0
O9 O2- 4 e 0.9685(5) 0.3661(3) 0.1374(6) 1.18(8) 1. 0
O10 O2- 4 e 0.5735(6) 0.3079(3) 0.4505(7) 1.78(9) 1. 0
O11 O2- 4 e 0.1666(5) 0.0502(3) 0.4464(7) 1.26(8) 1. 0
O12 O2- 4 e 0.9824(5) 0.3973(3) 0.4385(7) 1.36(8) 1. 0
#End of TTdata_40741-ICSD