
#(C) 2019 by FIZ Karlsruhe - Leibniz Institute for Information Infrastructure.  All rights reserved.
data_4080-ICSD
_database_code_ICSD 4080
_audit_creation_date 1980-01-01
_audit_update_record 2012-08-01
_chemical_name_systematic 'Disodium ditantalum pentaoxide fluoride - beta'
_chemical_formula_structural 'Na2 Ta2 O5 F2'
_chemical_formula_sum 'F2 Na2 O5 Ta2'
_exptl_crystal_density_diffrn 6.09
_publ_section_title
'Structure de l'oxyfluorure de tantale et de sodium Na2 Ta2 O 5 F2 beta'
loop_
_citation_id
_citation_journal_full
_citation_year
_citation_journal_volume
_citation_page_first
_citation_page_last
_citation_journal_id_ASTM
primary 'Journal of Solid State Chemistry' 1975 12 102 109 JSSCBI
loop_
_publ_author_name
'Vlasse, M.'
'Chaminade, J.P.'
'Massies, J.C.'
'Pouchard, M.'
_cell_length_a 12.855(8)
_cell_length_b 7.349(5)
_cell_length_c 12.833(3)
_cell_angle_alpha 90.
_cell_angle_beta 108.97(5)
_cell_angle_gamma 90.
_cell_volume 1146.51
_cell_formula_units_Z 8
_symmetry_space_group_name_H-M 'C 1 2/m 1'
_symmetry_Int_Tables_number 12
_refine_ls_R_factor_all 0.072
loop_
_symmetry_equiv_pos_site_id
_symmetry_equiv_pos_as_xyz
1 '-x, y, -z'
2 '-x, -y, -z'
3 'x, -y, z'
4 'x, y, z'
5 '-x+1/2, y+1/2, -z'
6 '-x+1/2, -y+1/2, -z'
7 'x+1/2, -y+1/2, z'
8 'x+1/2, y+1/2, z'
loop_
_atom_type_symbol
_atom_type_oxidation_number
Ta5+ 5
Na1+ 1
O2- -2
F1- -1
loop_
_atom_site_label
_atom_site_type_symbol
_atom_site_symmetry_multiplicity
_atom_site_Wyckoff_symbol
_atom_site_fract_x
_atom_site_fract_y
_atom_site_fract_z
_atom_site_B_iso_or_equiv
_atom_site_occupancy
_atom_site_attached_hydrogens
Ta1 Ta5+ 4 i 0.2467(1) 0 0.2461(2) . 1. 0
Ta2 Ta5+ 4 e 0.25 0.25 0 . 1. 0
Ta3 Ta5+ 4 f 0.25 0.25 0.5 . 1. 0
Ta4 Ta5+ 2 a 0 0 0 . 1. 0
Ta5 Ta5+ 2 c 0 0 0.5 . 1. 0
Na1 Na1+ 8 j 0.4873(15) 0.2366(27) 0.2350(17) 1.82 1. 0
Na2 Na1+ 4 i 0.7288(25) 0 0.2521(33) 2.23 1. 0
Na3 Na1+ 2 b 0 0.5 0 2.09 1. 0
Na4 Na1+ 2 d 0 0.5 0.5 2.15 1. 0
O1 O2- 4 i 0.4064(22) 0 0.3251(24) 0.318 0.7143 0
O2 O2- 4 i 0.7046(22) 0 0.4526(24) 0.341 0.7143 0
O3 O2- 4 i 0.5537(26) 0 0.1809(28) 0.738 0.7143 0
O4 O2- 4 i 0.7185(23) 0 0.0369(25) 0.361 0.7143 0
O5 O2- 8 j 0.2807(15) 0.1901(33) 0.1583(17) 0.302 0.7143 0
O6 O2- 8 j 0.2239(19) 0.1894(40) 0.3437(22) 1.024 0.7143 0
O7 O2- 8 j 0.0959(16) 0.1898(34) 0.4800(17) 0.459 0.7143 0
O8 O2- 4 i 0.0918(19) 0 0.1564(20) 0.484 0.7143 0
O9 O2- 4 i 0.9274(20) 0 0.3364(21) 0.672 0.7143 0
O10 O2- 8 j 0.4079(14) 0.3111(30) 0.3064(15) 0.89 0.7143 0
F1 F1- 4 i 0.4064(22) 0 0.3251(24) 0.318 0.2857 0
F2 F1- 4 i 0.7046(22) 0 0.4526(24) 0.341 0.2857 0
F3 F1- 4 i 0.5537(26) 0 0.1809(28) 0.738 0.2857 0
F4 F1- 4 i 0.7185(23) 0 0.0369(25) 0.361 0.2857 0
F5 F1- 8 j 0.2807(15) 0.1901(33) 0.1583(17) 0.302 0.2857 0
F6 F1- 8 j 0.2239(19) 0.1894(40) 0.3437(22) 1.024 0.2857 0
F7 F1- 8 j 0.0959(16) 0.1898(34) 0.4800(17) 0.459 0.2857 0
F8 F1- 4 i 0.0918(19) 0 0.1564(20) 0.484 0.2857 0
F9 F1- 4 i 0.9274(20) 0 0.3364(21) 0.672 0.2857 0
F10 F1- 8 j 0.4079(14) 0.3111(30) 0.3064(15) 0.89 0.2857 0
loop_
_atom_site_aniso_label
_atom_site_aniso_type_symbol
_atom_site_aniso_beta_11
_atom_site_aniso_beta_22
_atom_site_aniso_beta_33
_atom_site_aniso_beta_12
_atom_site_aniso_beta_13
_atom_site_aniso_beta_23
Ta1 Ta5+ 0.00011(7) 0.00444(45) 0.00118(8) 0 -.00005(4) 0
Ta2 Ta5+ 0.00140(11) 0.00532(84) 0.00364(25) -.00011(7) 0.00107(12) 0.00367(17)
Ta3 Ta5+ 0.00097(9) 0.00533(76) 0.00122(20) -.00053(13) 0.00069(10) -.00052(14)
Ta4 Ta5+ 0.00118(14) 0.00532(52) 0.00039(8) 0 -.00041(2) 0
Ta5 Ta5+ 0.00070(13) 0.00193(46) 0.00118(15) 0 0.00051(11) 0
#End of TTdata_4080-ICSD