
#(C) 2019 by FIZ Karlsruhe - Leibniz Institute for Information Infrastructure.  All rights reserved.
data_408112-ICSD
_database_code_ICSD 408112
_audit_creation_date 1999-06-02
_chemical_name_systematic 'Disodium zinc gallium fluoride'
_chemical_formula_structural 'Na2 Zn Ga F7'
_chemical_formula_sum 'F7 Ga1 Na2 Zn1'
_chemical_name_structure_type Na2CoFeF7
_exptl_crystal_density_diffrn 3.8
_publ_section_title

;
Ueber roentgenographische Einkristalluntersuchungen an Na2 Fe Al F7, Na2 MII
Ga F7 (MII= Ni, Zn) und Na2 Zn Fe F7 und die Strukturchemie der Weberite
;
loop_
_citation_id
_citation_journal_full
_citation_year
_citation_journal_volume
_citation_page_first
_citation_page_last
_citation_journal_id_ASTM
primary 'Zeitschrift fuer Anorganische und Allgemeine Chemie (1950) (DE)' 1998
624 1003 1010 ZAACAB
loop_
_publ_author_name
'Dahlke, P.'
'Peschel, B.'
'Babel, D.'
_cell_length_a 12.519(2)
_cell_length_b 7.303(1)
_cell_length_c 24.353(4)
_cell_angle_alpha 90.
_cell_angle_beta 99.74(1)
_cell_angle_gamma 90.
_cell_volume 2194.41
_cell_formula_units_Z 16
_symmetry_space_group_name_H-M 'C 1 2/c 1'
_symmetry_Int_Tables_number 15
_refine_ls_R_factor_all 0.0539
loop_
_symmetry_equiv_pos_site_id
_symmetry_equiv_pos_as_xyz
1 'x, -y, z+1/2'
2 '-x, -y, -z'
3 '-x, y, -z+1/2'
4 'x, y, z'
5 'x+1/2, -y+1/2, z+1/2'
6 '-x+1/2, -y+1/2, -z'
7 '-x+1/2, y+1/2, -z+1/2'
8 'x+1/2, y+1/2, z'
loop_
_atom_type_symbol
_atom_type_oxidation_number
Na1+ 1
Zn2+ 2
Ga3+ 3
F1- -1
loop_
_atom_site_label
_atom_site_type_symbol
_atom_site_symmetry_multiplicity
_atom_site_Wyckoff_symbol
_atom_site_fract_x
_atom_site_fract_y
_atom_site_fract_z
_atom_site_B_iso_or_equiv
_atom_site_occupancy
_atom_site_attached_hydrogens
Na1 Na1+ 4 a 0 0 0 . 1. 0
Na2 Na1+ 4 b 0 0.5 0 . 1. 0
Na3 Na1+ 4 d 0.25 0.25 0.5 . 1. 0
Na4 Na1+ 4 e 0 0.7792(6) 0.25 . 1. 0
Na5 Na1+ 8 f 0.2533(2) 0.0412(5) 0.25133(10) . 1. 0
Na6 Na1+ 8 f 0.3731(2) 0.5079(3) 0.1218(1) . 1. 0
Zn1 Zn2+ 8 f 0.37753(4) 0.00919(7) 0.12768(2) . 1. 0
Zn2 Zn2+ 8 f 0.12655(4) 0.26151(8) 0.12596(2) . 1. 0
Ga1 Ga3+ 4 c 0.25 0.25 0 . 1. 0
Ga2 Ga3+ 4 e 0 0.24922(9) 0.25 . 1. 0
Ga3 Ga3+ 8 f 0.12631(4) 0.76305(8) 0.12559(2) . 1. 0
F1 F1- 8 f 0.3362(3) 0.0853(4) 0.04740(14) . 1. 0
F2 F1- 8 f 0.4209(3) -.0584(4) 0.20881(13) . 1. 0
F3 F1- 8 f 0.4869(2) 0.2112(4) 0.14063(14) . 1. 0
F4 F1- 8 f 0.2668(2) -.1878(4) 0.11162(13) . 1. 0
F5 F1- 8 f 0.1446(3) 0.2767(4) 0.04586(14) . 1. 0
F6 F1- 8 f 0.1100(3) 0.2552(4) 0.20646(14) . 1. 0
F7 F1- 8 f 0.0739(2) 0.0034(3) 0.11076(14) . 1. 0
F8 F1- 8 f 0.1773(2) 0.5219(3) 0.13985(14) . 1. 0
F9 F1- 8 f 0.2789(2) 0.1884(4) 0.15477(13) . 1. 0
F10 F1- 8 f -.0261(2) 0.3309(4) 0.09904(13) . 1. 0
F11 F1- 8 f 0.3299(3) 0.4554(4) 0.03195(13) . 1. 0
F12 F1- 8 f 0.0807(3) 0.0647(4) 0.29088(13) . 1. 0
F13 F1- 8 f 0.1661(3) 0.8060(4) 0.20319(13) . 1. 0
F14 F1- 8 f 0.0872(3) 0.7225(4) 0.04820(13) . 1. 0
loop_
_atom_site_aniso_label
_atom_site_aniso_type_symbol
_atom_site_aniso_U_11
_atom_site_aniso_U_22
_atom_site_aniso_U_33
_atom_site_aniso_U_12
_atom_site_aniso_U_13
_atom_site_aniso_U_23
Na1 Na1+ 0.025(2) 0.043(2) 0.037(3) 0.0063(15) 0.017(2) 0.015(2)
Na2 Na1+ 0.030(2) 0.026(2) 0.041(3) -.0024(14) -.004(2) -.017(2)
Na3 Na1+ 0.042(3) 0.036(2) 0.054(3) -.016(2) 0.028(3) -.019(2)
Na4 Na1+ 0.030(2) 0.028(2) 0.035(3) 0 0.016(2) 0
Na5 Na1+ 0.0226(15) 0.0248(12) 0.026(2) -.0047(9) 0.0042(13) -.009(1)
Na6 Na1+ 0.033(2) 0.049(2) 0.0090(14) 0.0082(12) -.0010(14) -.0121(11)
Zn1 Zn2+ 0.0089(4) 0.0124(4) 0.0087(4) 0.0004(2) 0.0041(3) 0.0005(2)
Zn2 Zn2+ 0.0094(5) 0.0111(4) 0.0094(5) 0.0002(2) 0.0053(4) -.0002(2)
Ga1 Ga3+ 0.0080(5) 0.0121(5) 0.0030(5) 0.0005(3) 0.0041(4) 0.0011(3)
Ga2 Ga3+ 0.0084(5) 0.0118(5) 0.0041(5) 0 0.0043(4) 0
Ga3 Ga3+ 0.0071(4) 0.0070(4) 0.0092(5) -.0008(2) 0.0037(3) 0.0003(2)
F1 F1- 0.022(2) 0.030(2) 0.016(2) 0.0092(14) 0.0044(14) 0.0100(14)
F2 F1- 0.022(2) 0.0224(15) 0.016(2) 0.0070(13) 0.0062(14) 0.0032(13)
F3 F1- 0.013(2) 0.0166(13) 0.026(2) -.0028(12) 0.0074(15) -.0002(13)
F4 F1- 0.0106(14) 0.0203(15) 0.026(2) -.0047(12) 0.0089(14) -.0030(14)
F5 F1- 0.020(2) 0.032(2) 0.012(2) 0.0043(13) 0.010(2) 0.0042(13)
F6 F1- 0.016(2) 0.035(2) 0.008(2) 0.0022(13) 0.009(2) 0.0039(13)
F7 F1- 0.019(2) 0.0100(13) 0.025(2) 0.0005(11) 0.0037(15) 0.0002(12)
F8 F1- 0.018(2) 0.0089(13) 0.030(2) 0.0009(11) 0.0043(15) -.0008(12)
F9 F1- 0.0109(15) 0.022(2) 0.022(2) 0.0074(12) 0.0036(14) -.0053(13)
F10 F1- 0.0116(15) 0.023(2) 0.019(2) 0.0077(12) 0.0026(13) -.0052(13)
F11 F1- 0.022(2) 0.0209(15) 0.014(2) -.0070(13) 0.0040(14) -.0022(13)
F12 F1- 0.021(2) 0.0206(15) 0.016(2) 0.0069(13) 0.0039(14) 0.0048(13)
F13 F1- 0.022(2) 0.0195(14) 0.012(2) -.0005(13) 0.0028(15) 0.0003(13)
F14 F1- 0.025(2) 0.022(2) 0.011(2) -.0028(13) 0.000(2) -.0012(13)
#End of TTdata_408112-ICSD