
#(C) 2019 by FIZ Karlsruhe - Leibniz Institute for Information Infrastructure.  All rights reserved.
data_40833-ICSD
_database_code_ICSD 40833
_audit_creation_date 2000-07-15
_chemical_name_systematic 'Sodium tetrathionate dihydrate'
_chemical_formula_structural 'Na2 (S4 O6) (H2 O)2'
_chemical_formula_sum 'H4 Na2 O8 S4'
_exptl_crystal_density_diffrn 2.1
_publ_section_title

;
Crystal structure and chirality of sodium tetrathionate dihydrate, Na2 S4 O6 *
2 H2 O
;
loop_
_citation_id
_citation_journal_full
_citation_year
_citation_journal_volume
_citation_page_first
_citation_page_last
_citation_journal_id_ASTM
primary 'Zeitschrift fuer Kristallographie' 1986 177 107 116 ZEKRDZ
loop_
_publ_author_name
'Christidis, P.C.'
'Rentzeperis, R.J.'
'Bolos, C.A.'
_cell_length_a 14.4726(5)
_cell_length_b 6.3716(3)
_cell_length_c 5.4402(3)
_cell_angle_alpha 90.
_cell_angle_beta 105.53(1)
_cell_angle_gamma 90.
_cell_volume 483.35
_cell_formula_units_Z 2
_symmetry_space_group_name_H-M 'C 1 2 1'
_symmetry_Int_Tables_number 5
_refine_ls_R_factor_all 0.025
loop_
_symmetry_equiv_pos_site_id
_symmetry_equiv_pos_as_xyz
1 '-x, y, -z'
2 'x, y, z'
3 '-x+1/2, y+1/2, -z'
4 'x+1/2, y+1/2, z'
loop_
_atom_type_symbol
_atom_type_oxidation_number
Na1+ 1
S6+ 6
S1- -1
O2- -2
H1+ 1
loop_
_atom_site_label
_atom_site_type_symbol
_atom_site_symmetry_multiplicity
_atom_site_Wyckoff_symbol
_atom_site_fract_x
_atom_site_fract_y
_atom_site_fract_z
_atom_site_B_iso_or_equiv
_atom_site_occupancy
_atom_site_attached_hydrogens
Na1 Na1+ 4 c 0.77120(3) 0.08829(8) 0.01947(10) 0.0231(1) 1. 0
S1 S6+ 4 c 0.63366(2) 0.27134(5) 0.41846(4) 0.0165(1) 1. 0
S2 S1- 4 c 0.52374(2) 0.5 0.34159(5) 0.0234(1) 1. 0
O1 O2- 4 c 0.58943(7) 0.06584(14) 0.38725(19) 0.0287(3) 1. 0
O2 O2- 4 c 0.68064(6) 0.32250(15) 0.22193(15) 0.0259(2) 1. 0
O3 O2- 4 c 0.69198(6) 0.31134(14) 0.67492(14) 0.0275(3) 1. 0
O4 O2- 4 c 0.62311(7) -.12294(16) -.08506(24) 0.0542(67) 1. 0
H1 H1+ 4 c 0.5976(18) -.0843(38) -.2104(50) 0.0310(3) 1. 0
H2 H1+ 4 c 0.6123(25) -.0926(58) 0.0217(70) 0.097(14) 1. 0
#End of TTdata_40833-ICSD