
#(C) 2019 by FIZ Karlsruhe - Leibniz Institute for Information Infrastructure.  All rights reserved.
data_408372-ICSD
_database_code_ICSD 408372
_audit_creation_date 1999-06-02
_chemical_name_systematic 'Sodium calcium magnesium phosphate (18/13/5/18)'
_chemical_formula_structural 'Na18 Ca13 Mg5 (P O4)18'
_chemical_formula_sum 'Ca13 Mg5 Na18 O72 P18'
_exptl_crystal_density_diffrn 2.97
_publ_section_title

;
The crystal structures of Na Mg P O4, Na2 Ca Mg (P O4)2 and Na18 Ca13 Mg5 (P
O4)18: new examples for glaserite related structures
;
loop_
_citation_id
_citation_journal_full
_citation_year
_citation_journal_volume
_citation_page_first
_citation_page_last
_citation_journal_id_ASTM
primary 'Zeitschrift fuer Kristallographie' 1998 213 282 287 ZEKRDZ
loop_
_publ_author_name
'Alkemper, J.'
'Fuess, H.'
_cell_length_a 15.811(3)
_cell_length_b 15.811(3)
_cell_length_c 21.4490(40)
_cell_angle_alpha 90.
_cell_angle_beta 90.
_cell_angle_gamma 120.
_cell_volume 4643.62
_cell_formula_units_Z 3
_symmetry_space_group_name_H-M 'R -3 m H'
_symmetry_Int_Tables_number 166
_refine_ls_R_factor_all 0.0479
loop_
_symmetry_equiv_pos_site_id
_symmetry_equiv_pos_as_xyz
1 'x-y, -y, -z'
2 '-x, -x+y, -z'
3 'y, x, -z'
4 'x-y, x, -z'
5 'y, -x+y, -z'
6 '-x, -y, -z'
7 '-x+y, y, z'
8 'x, x-y, z'
9 '-y, -x, z'
10 '-x+y, -x, z'
11 '-y, x-y, z'
12 'x, y, z'
13 'x-y+2/3, -y+1/3, -z+1/3'
14 '-x+2/3, -x+y+1/3, -z+1/3'
15 'y+2/3, x+1/3, -z+1/3'
16 'x-y+2/3, x+1/3, -z+1/3'
17 'y+2/3, -x+y+1/3, -z+1/3'
18 '-x+2/3, -y+1/3, -z+1/3'
19 '-x+y+2/3, y+1/3, z+1/3'
20 'x+2/3, x-y+1/3, z+1/3'
21 '-y+2/3, -x+1/3, z+1/3'
22 '-x+y+2/3, -x+1/3, z+1/3'
23 '-y+2/3, x-y+1/3, z+1/3'
24 'x+2/3, y+1/3, z+1/3'
25 'x-y+1/3, -y+2/3, -z+2/3'
26 '-x+1/3, -x+y+2/3, -z+2/3'
27 'y+1/3, x+2/3, -z+2/3'
28 'x-y+1/3, x+2/3, -z+2/3'
29 'y+1/3, -x+y+2/3, -z+2/3'
30 '-x+1/3, -y+2/3, -z+2/3'
31 '-x+y+1/3, y+2/3, z+2/3'
32 'x+1/3, x-y+2/3, z+2/3'
33 '-y+1/3, -x+2/3, z+2/3'
34 '-x+y+1/3, -x+2/3, z+2/3'
35 '-y+1/3, x-y+2/3, z+2/3'
36 'x+1/3, y+2/3, z+2/3'
loop_
_atom_type_symbol
_atom_type_oxidation_number
Mg2+ 2
Ca2+ 2
Na1+ 1
Ca2+ 2
Na1+ 1
Ca2+ 2
Na1+ 1
Ca2+ 2
P5+ 5
O2- -2
P5+ 5
O2- -2
P5+ 5
O2- -2
loop_
_atom_site_label
_atom_site_type_symbol
_atom_site_symmetry_multiplicity
_atom_site_Wyckoff_symbol
_atom_site_fract_x
_atom_site_fract_y
_atom_site_fract_z
_atom_site_B_iso_or_equiv
_atom_site_occupancy
_atom_site_attached_hydrogens
Mg1 Mg2+ 6 c 0 0 0.36047(10) . 1. 0
Mg2 Mg2+ 3 b 0 0 0.5 . 1. 0
Mg3 Mg2+ 6 c 0 0 0.16087(11) . 1. 0
Ca1 Ca2+ 3 a 0 0 0 . 1. 0
Ca2 Ca2+ 18 f 0.30909(5) 0 0 . 1. 0
Na3 Na1+ 18 g 0.31915(9) 0 0.5 . 0.75 0
Ca3 Ca2+ 18 g 0.31915(9) 0 0.5 . 0.25 0
Na4 Na1+ 18 h 0.21574(4) -.21574(4) 0.26544(5) . 0.4 0
Ca4 Ca2+ 18 h 0.21574(4) -.21574(4) 0.26544(5) . 0.6 0
Na5 Na1+ 18 h 0.10732(7) -.10732(7) 0.10522(10) . 1. 0
Na6 Na1+ 18 h 0.21633(10) -.21633(10) -.1193(2) . 0.85 0
Ca6 Ca2+ 18 h 0.2211(3) -.2211(3) -.0462(5) . 0.15 0
P1 P5+ 18 h 0.22169(3) -.22169(3) 0.09912(5) . 1. 0
O1 O2- 18 h 0.27785(9) -.27785(9) 0.10187(13) . 1. 0
O2 O2- 18 h 0.19833(12) -.19833(12) 0.16404(15) . 1. 0
O3 O2- 36 i 0.2877(2) 0.4117(2) 0.06671(11) . 1. 0
P2 P5+ 18 h 0.11103(3) -.11103(3) -.07235(5) . 1. 0
O4 O2- 18 h -.12045(14) 0.12045(14) 0.0026(2) . 1. 0
O5 O2- 18 h 0.05640(11) -.05640(11) -.0862(2) . 1. 0
O6 O2- 36 i 0.2682(2) 0.2138(2) 0.10021(13) . 1. 0
P3 P5+ 18 h 0.43287(4) -.43287(4) -.07089(5) . 1. 0
O7 O2- 18 h 0.39722(11) -.39722(11) -.01568(15) . 1. 0
O8 O2- 18 h 0.4034(2) -.4034(2) -.1301(2) . 1. 0
O9 O2- 36 i 0.5849(9) 0.5308(7) 0.0474(4) . 0.3 0
O10 O2- 36 i 0.6224(4) 0.5450(3) 0.0760(2) 0.0372(11) 0.7 0
loop_
_atom_site_aniso_label
_atom_site_aniso_type_symbol
_atom_site_aniso_U_11
_atom_site_aniso_U_22
_atom_site_aniso_U_33
_atom_site_aniso_U_12
_atom_site_aniso_U_13
_atom_site_aniso_U_23
Mg1 Mg2+ 0.0124(6) 0.0124(6) 0.0123(9) 0.0062(3) 0 0
Mg2 Mg2+ 0.0096(8) 0.0096(8) 0.0084(12) 0.0048(4) 0 0
Mg3 Mg2+ 0.0113(6) 0.0113(6) 0.0146(10) 0.0056(3) 0 0
Ca1 Ca2+ 0.0633(12) 0.0633(12) 0.0070(9) 0.0317(6) 0 0
Ca2 Ca2+ 0.0186(3) 0.0234(4) 0.0172(4) 0.0117(2) 0.00440(14) 0.0088(3)
Na3 Na1+ 0.0189(5) 0.0274(7) 0.0213(7) 0.0137(3) 0.0073(3) 0.0147(5)
Ca3 Ca2+ 0.0189(5) 0.0274(7) 0.0213(7) 0.0137(3) 0.0073(3) 0.0147(5)
Na4 Na1+ 0.0185(4) 0.0185(4) 0.0145(5) 0.0043(4) -.0021(2) 0.0021(2)
Ca4 Ca2+ 0.0185(4) 0.0185(4) 0.0145(5) 0.0043(4) -.0021(2) 0.0021(2)
Na5 Na1+ 0.0266(7) 0.0266(7) 0.0195(9) 0.0138(7) 0.0016(3) -.0016(3)
Na6 Na1+ 0.0428(12) 0.0428(12) 0.056(2) 0.0273(14) 0.0026(6) -.0026(6)
Ca6 Ca2+ 0.032(3) 0.032(3) 0.070(7) 0.016(3) -.002(2) 0.002(2)
P1 P5+ 0.0094(3) 0.0094(3) 0.0131(4) 0.0056(3) 0.00003(15) -.00003(15)
O1 O2- 0.0229(10) 0.0229(10) 0.0146(12) 0.0190(11) -.0012(4) 0.0012(4)
O2 O2- 0.0294(12) 0.0294(12) 0.0205(14) 0.0181(14) 0.0045(6) -.0045(6)
O3 O2- 0.0218(10) 0.0212(10) 0.0294(12) 0.0149(8) 0.0019(8) -.0053(8)
P2 P5+ 0.0118(3) 0.0118(3) 0.0166(5) 0.0050(3) 0.0016(2) -.0016(2)
O4 O2- 0.0341(13) 0.0341(13) 0.019(2) 0.013(2) -.0041(7) 0.0041(7)
O5 O2- 0.0250(11) 0.0250(11) 0.036(2) 0.0161(13) -.0033(6) 0.0033(6)
O6 O2- 0.0385(13) 0.0158(10) 0.0366(14) 0.0114(10) -.0162(11) -.0102(9)
P3 P5+ 0.0141(3) 0.0141(3) 0.0117(5) 0.0062(4) 0.0008(2) -.0008(2)
O7 O2- 0.0404(15) 0.0404(15) 0.0179(15) 0.031(2) 0.0028(6) -.0028(6)
O8 O2- 0.165(6) 0.165(6) 0.015(2) 0.133(6) -.0012(11) 0.0012(11)
O9 O2- 0.050(3) 0.015(2) 0.044(3) 0.014(2) 0.024(2) 0.001(2)
#End of TTdata_408372-ICSD