
#(C) 2019 by FIZ Karlsruhe - Leibniz Institute for Information Infrastructure.  All rights reserved.
data_408598-ICSD
_database_code_ICSD 408598
_audit_creation_date 1999-06-02
_chemical_name_systematic
'Tetrasodium-tetra-?m-imido-cyclotetraphosphate trihydrate'
_chemical_formula_structural 'H10 N4 Na4 O11 P4'
_chemical_formula_sum 'H10 N4 Na4 O11 P4'
_exptl_crystal_density_diffrn 2.21
_cell_measurement_temperature 173.
_publ_section_title

;
Synthese, Struktur und Eigenschaften von drei
Tetranatrium-tetrametaphosphimat-Hydraten
;
loop_
_citation_id
_citation_journal_full
_citation_year
_citation_journal_volume
_citation_page_first
_citation_page_last
_citation_journal_id_ASTM
primary 'Zeitschrift fuer Anorganische und Allgemeine Chemie (1950) (DE)' 1998
624 1777 1786 ZAACAB
loop_
_publ_author_name
'Stock, N.'
'Schmalz, H.'
'Schnick, W.'
_cell_length_a 8.4364(9)
_cell_length_b 8.4854(10)
_cell_length_c 9.947(2)
_cell_angle_alpha 83.068(11)
_cell_angle_beta 76.307(10)
_cell_angle_gamma 87.457(8)
_cell_volume 686.68
_cell_formula_units_Z 2
_symmetry_space_group_name_H-M 'P -1'
_symmetry_Int_Tables_number 2
_refine_ls_R_factor_all 0.039
loop_
_symmetry_equiv_pos_site_id
_symmetry_equiv_pos_as_xyz
1 '-x, -y, -z'
2 'x, y, z'
loop_
_atom_type_symbol
_atom_type_oxidation_number
P5+ 5
N3- -3
H1+ 1
N3- -3
H1+ 1
N3- -3
H1+ 1
N3- -3
H1+ 1
O2- -2
Na1+ 1
O2- -2
H1+ 1
O2- -2
H1+ 1
O2- -2
H1+ 1
Na1+ 1
loop_
_atom_site_label
_atom_site_type_symbol
_atom_site_symmetry_multiplicity
_atom_site_Wyckoff_symbol
_atom_site_fract_x
_atom_site_fract_y
_atom_site_fract_z
_atom_site_B_iso_or_equiv
_atom_site_occupancy
_atom_site_attached_hydrogens
P1 P5+ 2 i 0.36528(6) 0.09625(6) 0.74061(5) . 1. 0
P2 P5+ 2 i 0.38343(6) -.25720(6) 0.72911(5) . 1. 0
P3 P5+ 2 i 0.72397(6) -.26618(6) 0.76272(5) . 1. 0
P4 P5+ 2 i 0.71594(6) 0.08800(6) 0.75764(6) . 1. 0
N1 N3- 2 i 0.3341(2) -.0937(2) 0.8095(2) . 1. 0
H1 H1+ 2 i 0.3275(2) -.1060(2) 0.9022(2) 0.011 1. 0
N2 N3- 2 i 0.5860(2) -.2655(2) 0.6654(2) . 1. 0
H2 H1+ 2 i 0.6192(2) -.2167(2) 0.5774(2) 0.009 1. 0
N3 N3- 2 i 0.6973(2) -.0973(2) 0.8369(2) . 1. 0
H3 H1+ 2 i 0.6821(2) -.1120(2) 0.9169(2) 0.012 1. 0
N4 N3- 2 i 0.5651(2) 0.1155(2) 0.6734(2) . 1. 0
H4 H1+ 2 i 0.6037(2) 0.1444(2) 0.5771(2) 0.01 1. 0
O1 O2- 2 i 0.3159(2) 0.1904(2) 0.8629(2) . 1. 0
O2 O2- 2 i 0.2798(2) 0.1307(2) 0.6236(2) . 1. 0
O3 O2- 2 i 0.3337(2) -.3945(2) 0.8389(2) . 1. 0
O4 O2- 2 i 0.3086(2) -.2422(2) 0.60561(15) . 1. 0
O5 O2- 2 i 0.6842(2) -.4001(2) 0.8781(2) . 1. 0
O6 O2- 2 i 0.8882(2) -.2677(2) 0.66231(15) . 1. 0
O7 O2- 2 i 0.6902(2) 0.1930(2) 0.8724(2) . 1. 0
O8 O2- 2 i 0.8717(2) 0.1022(2) 0.6468(2) . 1. 0
Na1 Na1+ 2 i 1.05138(11) 0.31798(11) 0.58537(9) . 1. 0
Na2 Na1+ 2 i 0.8391(1) 0.37393(11) 0.94510(9) . 1. 0
Na3 Na1+ 2 i 0.52009(11) -.3849(1) 1.10619(9) . 1. 0
O9 O2- 2 i 1.0523(2) 0.4725(2) 0.7741(2) . 1. 0
H5 H1+ 2 i 1.1468(2) 0.5006(2) 0.7822(2) 0.018 1. 0
H6 H1+ 2 i 1.0065(2) 0.5607(2) 0.7402(2) 0.018 1. 0
O10 O2- 2 i 1.2014(2) 0.5455(2) 0.4621(2) . 1. 0
H7 H1+ 2 i 1.2414(2) 0.6025(2) 0.5217(2) 0.021 1. 0
H8 H1+ 2 i 1.2838(2) 0.4897(2) 0.4422(2) 0.021 1. 0
O11 O2- 2 i 1.0078(2) 0.1748(2) 1.0168(2) . 1. 0
H9 H1+ 2 i 1.1024(2) 0.1851(2) 0.9797(2) 0.042 1. 0
H10 H1+ 2 i 1.0057(2) 0.1210(2) 1.0782(2) 0.042 1. 0
Na4 Na1+ 2 i 0.0944(2) -.0697(2) 0.6002(2) . 0.76 0
Na5 Na1+ 2 i 0.0729(5) -.0840(5) 0.6775(5) . 0.24 0
loop_
_atom_site_aniso_label
_atom_site_aniso_type_symbol
_atom_site_aniso_U_11
_atom_site_aniso_U_22
_atom_site_aniso_U_33
_atom_site_aniso_U_12
_atom_site_aniso_U_13
_atom_site_aniso_U_23
P1 P5+ 0.0061(2) 0.0080(2) 0.0062(2) 0.0001(2) -.0007(2) -.0011(2)
P2 P5+ 0.0064(2) 0.0077(2) 0.0058(2) -.0005(2) -.0001(2) -.0012(2)
P3 P5+ 0.0074(2) 0.0075(2) 0.0059(2) 0.0006(2) -.0023(2) -.0014(2)
P4 P5+ 0.0072(2) 0.0075(2) 0.0093(3) 0.0007(2) -.0038(2) -.0017(2)
N1 N3- 0.0120(9) 0.0087(8) 0.0053(8) -.0005(7) 0.0005(7) -.0010(6)
N2 N3- 0.0080(8) 0.0110(8) 0.0043(8) -.0004(6) -.0014(6) -.0013(6)
N3 N3- 0.0167(9) 0.0092(8) 0.0053(8) 0.0010(7) -.0048(7) -.0011(6)
N4 N3- 0.0056(8) 0.0117(8) 0.0072(8) -.0004(6) -.0018(6) 0.0006(7)
O1 O2- 0.0120(7) 0.0121(8) 0.0101(7) -.0009(6) 0.0008(6) -.0033(6)
O2 O2- 0.0081(7) 0.0127(7) 0.0109(7) -.0007(6) -.0042(6) 0.0005(6)
O3 O2- 0.0126(7) 0.0098(7) 0.0084(7) -.0005(6) 0.0017(6) 0.0004(6)
O4 O2- 0.0088(7) 0.0131(7) 0.0079(7) -.0008(6) -.0024(6) -.0026(6)
O5 O2- 0.0128(7) 0.0094(7) 0.0086(7) 0.0011(6) -.0037(6) -.0004(6)
O6 O2- 0.0085(7) 0.0122(7) 0.0090(7) -.0004(6) -.0004(6) -.0023(6)
O7 O2- 0.0160(8) 0.0106(7) 0.0143(8) 0.0021(6) -.0080(6) -.0048(6)
O8 O2- 0.0064(7) 0.0116(7) 0.0170(8) 0.0005(6) -.0008(6) 0.0001(6)
Na1 Na1+ 0.0141(4) 0.0138(4) 0.0141(4) -.0031(3) -.0017(3) -.0023(3)
Na2 Na1+ 0.0106(4) 0.0158(4) 0.0117(4) -.0009(3) 0.0002(3) -.0020(3)
Na3 Na1+ 0.0121(4) 0.0109(4) 0.0149(4) 0.0011(3) -.0017(3) -.0028(3)
O9 O2- 0.0095(7) 0.0171(8) 0.0182(8) 0.0000(6) -.0019(6) 0.0007(6)
O10 O2- 0.0180(8) 0.0146(8) 0.0199(9) -.0016(6) -.0040(7) -.0063(7)
O11 O2- 0.0124(9) 0.0404(12) 0.0498(13) 0.0028(8) -.0069(9) 0.0052(10)
Na4 Na1+ 0.0083(7) 0.0169(7) 0.0425(10) 0.0019(5) -.0055(7) -.0124(8)
Na5 Na1+ 0.006(2) 0.012(2) 0.023(2) -.0007(14) -.004(2) 0.002(2)
#End of TTdata_408598-ICSD