
#(C) 2019 by FIZ Karlsruhe - Leibniz Institute for Information Infrastructure.  All rights reserved.
data_40855-ICSD
_database_code_ICSD 40855
_audit_creation_date 2000-07-15
_chemical_name_systematic 'Sodium dodecastrontium heptaniccolate(III)'
_chemical_formula_structural 'Na Sr12 (Ni7 O23)'
_chemical_formula_sum 'Na1 Ni7 O23 Sr12'
_exptl_crystal_density_diffrn 5.06
_publ_section_title

;
Ein weiteres AlkaliErdalkali--Oxoniccolat mit Perowskitstruktur: Sr12 Na Ni7
O23
;
loop_
_citation_id
_citation_journal_full
_citation_year
_citation_journal_volume
_citation_page_first
_citation_page_last
_citation_journal_id_ASTM
primary 'Zeitschrift fuer Anorganische und Allgemeine Chemie (1950) (DE)' 1994
620 1565 1568 ZAACAB
loop_
_publ_author_name
'Strunk, M.'
'Mueller Buschbaum, H.'
_cell_length_a 9.429(2)
_cell_length_b 9.429(2)
_cell_length_c 7.896(2)
_cell_angle_alpha 90.
_cell_angle_beta 90.
_cell_angle_gamma 120.
_cell_volume 607.95
_cell_formula_units_Z 1
_symmetry_space_group_name_H-M 'P 3 2 1'
_symmetry_Int_Tables_number 150
_refine_ls_R_factor_all 0.084
loop_
_symmetry_equiv_pos_site_id
_symmetry_equiv_pos_as_xyz
1 'x-y, -y, -z'
2 '-x, -x+y, -z'
3 'y, x, -z'
4 '-x+y, -x, z'
5 '-y, x-y, z'
6 'x, y, z'
loop_
_atom_type_symbol
_atom_type_oxidation_number
Sr2+ 2
Na1+ 1
Ni3+ 3
O2- -2
loop_
_atom_site_label
_atom_site_type_symbol
_atom_site_symmetry_multiplicity
_atom_site_Wyckoff_symbol
_atom_site_fract_x
_atom_site_fract_y
_atom_site_fract_z
_atom_site_B_iso_or_equiv
_atom_site_occupancy
_atom_site_attached_hydrogens
Sr1 Sr2+ 6 g 0.0248(1) 0.6946(1) 0.2531(1) 0.45(1) 1. 0
Sr2 Sr2+ 3 f 0.3579(1) 0 0.5 0.97(1) 1. 0
Sr3 Sr2+ 3 e 0.3224(1) 0 0 1.47(1) 1. 0
Na1 Na1+ 1 b 0 0 0.5 0.35(3) 1. 0
Ni1 Ni3+ 2 d 0.3333 0.6667 0.3939(1) 0.46(1) 1. 0
Ni2 Ni3+ 2 d 0.3333 0.6667 0.0724(1) 1.32(1) 1. 0
Ni3 Ni3+ 2 d 0.3333 0.6667 0.7238(1) 1.13(2) 0.5 0
Ni4 Ni3+ 2 c 0 0 0.1567(1) 0.52(1) 1. 0
O1 O2- 6 g 0.483(1) 0.654(2) 0.239(1) 1.30(3) 1. 0
O2 O2- 6 g 0.684(1) 0.182(1) 0.467(1) 0.80(3) 1. 0
O3 O2- 3 e 0.849(1) 0 0 0.96(3) 1. 0
O4 O2- 6 g 0.671(1) 0.183(1) 0.058(1) 1.53(10) 0.33 0
O5 O2- 6 g 0.991(1) 0.161(1) 0.288(1) 0.82(2) 1. 0
#End of TTdata_40855-ICSD