
#(C) 2019 by FIZ Karlsruhe - Leibniz Institute for Information Infrastructure.  All rights reserved.
data_408934-ICSD
_database_code_ICSD 408934
_audit_creation_date 1999-06-02
_chemical_name_systematic 'Sodium di-muebromo-dioxotetrabromoditungstate'
_chemical_formula_structural 'Na (Br2 (W2 O2 Br4))'
_chemical_formula_sum 'Br6 Na1 O2 W2'
_exptl_crystal_density_diffrn 5.87
_publ_section_title 'The mixed valence tungsten(IV,V) compound Na (W2 O2 Br6)'
loop_
_citation_id
_citation_journal_full
_citation_year
_citation_journal_volume
_citation_page_first
_citation_page_last
_citation_journal_id_ASTM
primary 'Zeitschrift fuer Anorganische und Allgemeine Chemie (1950) (DE)' 1998
624 1415 1418 ZAACAB
loop_
_publ_author_name
'Zheng, Y.-Q.'
'Peters, K.'
'von Schnering, H.G.'
_cell_length_a 3.7750(4)
_cell_length_b 10.4003(10)
_cell_length_c 13.0048(15)
_cell_angle_alpha 90.
_cell_angle_beta 90.
_cell_angle_gamma 90.
_cell_volume 510.58
_cell_formula_units_Z 2
_symmetry_space_group_name_H-M 'I m m m'
_symmetry_Int_Tables_number 71
_refine_ls_R_factor_all 0.0453
loop_
_symmetry_equiv_pos_site_id
_symmetry_equiv_pos_as_xyz
1 'x, y, -z'
2 'x, -y, z'
3 '-x, y, z'
4 '-x, -y, -z'
5 '-x, -y, z'
6 '-x, y, -z'
7 'x, -y, -z'
8 'x, y, z'
9 'x+1/2, y+1/2, -z+1/2'
10 'x+1/2, -y+1/2, z+1/2'
11 '-x+1/2, y+1/2, z+1/2'
12 '-x+1/2, -y+1/2, -z+1/2'
13 '-x+1/2, -y+1/2, z+1/2'
14 '-x+1/2, y+1/2, -z+1/2'
15 'x+1/2, -y+1/2, -z+1/2'
16 'x+1/2, y+1/2, z+1/2'
loop_
_atom_type_symbol
_atom_type_oxidation_number
W4+ 4.5
Br1- -1
Na1+ 1
O2- -2
loop_
_atom_site_label
_atom_site_type_symbol
_atom_site_symmetry_multiplicity
_atom_site_Wyckoff_symbol
_atom_site_fract_x
_atom_site_fract_y
_atom_site_fract_z
_atom_site_B_iso_or_equiv
_atom_site_occupancy
_atom_site_attached_hydrogens
W1 W4+ 4 g 0 0.14162(6) 0 . 1. 0
Br1 Br1- 4 i 0 0 0.15885(14) . 1. 0
Br2 Br1- 8 l 0 0.32259(14) 0.13056(11) . 1. 0
Na1 Na1+ 2 c -.5 0.5 0 . 1. 0
O1 O2- 4 h -.5 0.1376(10) 0 . 1. 0
loop_
_atom_site_aniso_label
_atom_site_aniso_type_symbol
_atom_site_aniso_U_11
_atom_site_aniso_U_22
_atom_site_aniso_U_33
_atom_site_aniso_U_12
_atom_site_aniso_U_13
_atom_site_aniso_U_23
W1 W4+ 0.0080(5) 0.0156(5) 0.0145(5) 0 0 0
Br1 Br1- 0.0175(10) 0.0210(9) 0.0136(8) 0 0 0
Br2 Br1- 0.0252(8) 0.0217(7) 0.0245(8) 0 0 -.0070(5)
Na1 Na1+ 0.065(13) 0.056(10) 0.068(12) 0 0 0
O1 O2- 0.005(6) 0.019(6) 0.011(6) 0 0 0
#End of TTdata_408934-ICSD