
#(C) 2019 by FIZ Karlsruhe - Leibniz Institute for Information Infrastructure.  All rights reserved.
data_408971-ICSD
_database_code_ICSD 408971
_audit_creation_date 2002-04-01
_chemical_name_systematic 'Sodium titanium(III) titanium bis(diphosphate(V))'
_chemical_formula_structural 'Na Ti2 (P2 O7)2'
_chemical_formula_sum 'Na1 O14 P4 Ti2'
_exptl_crystal_density_diffrn 3.07
_cell_measurement_temperature 295.
_publ_section_title

;
A novel convenient synthesis of mixed-valence Ti(III)/Ti(IV) double
phosphates, starting with titanium nitride TiN
;
loop_
_citation_id
_citation_journal_full
_citation_year
_citation_journal_volume
_citation_page_first
_citation_page_last
_citation_journal_id_ASTM
primary 'Zeitschrift fuer Naturforschung, B: A Journal of Chemical Sciences'
2000 55 291 298 ZNBSEN
loop_
_publ_author_name
'Zatovsky, I.V.'
'Slobodyanik, N.S.'
'Stratiychuk, D.A.'
'Domasevitch, K.V.'
'Sieler, J.'
'Rusanov, E.B.'
_cell_length_a 4.796(1)
_cell_length_b 6.906(1)
_cell_length_c 7.923(2)
_cell_angle_alpha 90.54(3)
_cell_angle_beta 93.67(3)
_cell_angle_gamma 105.32(3)
_cell_volume 252.48
_cell_formula_units_Z 1
_symmetry_space_group_name_H-M 'P -1'
_symmetry_Int_Tables_number 2
_refine_ls_R_factor_all 0.0492
loop_
_symmetry_equiv_pos_site_id
_symmetry_equiv_pos_as_xyz
1 '-x, -y, -z'
2 'x, y, z'
loop_
_atom_type_symbol
_atom_type_oxidation_number
Ti3+ 3.5
P5+ 5
O2- -2
Na1+ 1
loop_
_atom_site_label
_atom_site_type_symbol
_atom_site_symmetry_multiplicity
_atom_site_Wyckoff_symbol
_atom_site_fract_x
_atom_site_fract_y
_atom_site_fract_z
_atom_site_B_iso_or_equiv
_atom_site_occupancy
_atom_site_attached_hydrogens
Ti1 Ti3+ 1 b 0 1 0.5 . 1. 0
Ti2 Ti3+ 1 e 0.5 0.5 0 . 1. 0
P1 P5+ 2 i 0.3803(2) 0.76379(12) 0.30331(10) . 1. 0
P2 P5+ 2 i -.0120(2) 0.37436(12) 0.24448(10) . 1. 0
O1 O2- 2 i 0.6354(5) 0.8203(4) 0.4321(3) . 1. 0
O2 O2- 2 i -.0909(5) 0.1934(4) 0.3550(3) . 1. 0
O3 O2- 2 i 0.1790(5) 0.9003(4) 0.3123(3) . 1. 0
O4 O2- 2 i 0.2067(5) 0.5450(4) 0.3586(3) . 1. 0
O5 O2- 2 i -.2742(5) 0.4458(4) 0.1940(3) . 1. 0
O6 O2- 2 i 0.4620(5) 0.7481(4) 0.1225(3) . 1. 0
O7 O2- 2 i 0.1458(5) 0.3302(4) 0.0947(3) . 1. 0
Na1 Na1+ 2 i 0.0637(17) 0.0069(14) -.0098(14) . 0.5 0
loop_
_atom_site_aniso_label
_atom_site_aniso_type_symbol
_atom_site_aniso_U_11
_atom_site_aniso_U_22
_atom_site_aniso_U_33
_atom_site_aniso_U_12
_atom_site_aniso_U_13
_atom_site_aniso_U_23
Ti1 Ti3+ 0.0110(4) 0.0078(4) 0.0095(4) 0.0000(3) 0.0019(3) -.0023(3)
Ti2 Ti3+ 0.0123(4) 0.0119(4) 0.0109(4) 0.0017(3) 0.0032(3) -.0019(3)
P1 P5+ 0.0087(4) 0.0059(4) 0.0072(4) -.0014(3) 0.0026(3) -.0032(3)
P2 P5+ 0.0092(4) 0.0053(4) 0.0073(4) -.0010(3) 0.0027(3) -.0026(3)
O1 O2- 0.0092(10) 0.0097(11) 0.0133(11) -.0014(8) -.0004(8) -.0027(9)
O2 O2- 0.0134(11) 0.0075(11) 0.0143(12) -.0017(8) 0.0015(9) 0.0018(9)
O3 O2- 0.0120(11) 0.0112(11) 0.0125(11) 0.0033(9) 0.0019(8) -.0034(8)
O4 O2- 0.0118(10) 0.0069(11) 0.0089(10) -.0040(8) 0.0031(8) -.0038(8)
O5 O2- 0.0129(11) 0.0164(12) 0.0117(11) 0.0065(9) 0.0021(9) -.0010(9)
O6 O2- 0.0157(11) 0.0130(12) 0.0088(11) 0.0008(9) 0.0053(8) -.0016(8)
O7 O2- 0.0130(11) 0.0121(11) 0.0102(11) 0.0006(8) 0.0047(8) -.0060(9)
Na1 Na1+ 0.079(7) 0.019(2) 0.057(4) -.004(4) 0.027(5) -.021(2)
#End of TTdata_408971-ICSD