
#(C) 2019 by FIZ Karlsruhe - Leibniz Institute for Information Infrastructure.  All rights reserved.
data_40916-ICSD
_database_code_ICSD 40916
_audit_creation_date 2000-07-15
_audit_update_record 2014-08-01
_chemical_name_systematic 'Disodium hexafluorotitanate'
_chemical_formula_structural 'Na2 (Ti F6)'
_chemical_formula_sum 'F6 Na2 Ti1'
_chemical_name_structure_type Na2TiF6
_exptl_crystal_density_diffrn 2.93
_publ_section_title

;
The crystal structures of Na2 Ti F6 and Na2 Si F6. Pseudotrigonal polar phases
in double hexafluorides of the type Me(I)2 Me(IV) F6
;
loop_
_citation_id
_citation_journal_full
_citation_year
_citation_journal_volume
_citation_page_first
_citation_page_last
_citation_journal_id_ASTM
primary 'Zeitschrift fuer Kristallographie' 1986 175 269 276 ZEKRDZ
loop_
_publ_author_name
'Schaefer, G.F.'
_cell_length_a 8.96(3)
_cell_length_b 8.96(3)
_cell_length_c 5.08(1)
_cell_angle_alpha 90.
_cell_angle_beta 90.
_cell_angle_gamma 120.
_cell_volume 353.19
_cell_formula_units_Z 3
_symmetry_space_group_name_H-M 'P 1'
_symmetry_Int_Tables_number 1
_refine_ls_R_factor_all 0.036
loop_
_symmetry_equiv_pos_site_id
_symmetry_equiv_pos_as_xyz
1 'x, y, z'
loop_
_atom_type_symbol
_atom_type_oxidation_number
Ti4+ 4
Na1+ 1
F1- -1
loop_
_atom_site_label
_atom_site_type_symbol
_atom_site_symmetry_multiplicity
_atom_site_Wyckoff_symbol
_atom_site_fract_x
_atom_site_fract_y
_atom_site_fract_z
_atom_site_B_iso_or_equiv
_atom_site_occupancy
_atom_site_attached_hydrogens
Ti1 Ti4+ 1 a 0 0 0 . 1. 0
Ti2 Ti4+ 1 a 0.3337(3) 0.6670(7) 0.4920(6) . 1. 0
Ti3 Ti4+ 1 a 0.6663(3) 0.3333(7) -.4920(6) . 1. 0
Na1 Na1+ 1 a 0.6254(9) 0.0031(12) -.0005(6) . 1. 0
Na2 Na1+ 1 a 0.3746(9) 0.3777(12) 0.0005(6) . 1. 0
Na3 Na1+ 1 a 0 0.6261(14) 0 . 1. 0
Na4 Na1+ 1 a 0.2841(6) 0.0017(10) 0.5009(7) . 1. 0
Na5 Na1+ 1 a -.2841(6) -.2824(10) 0.4991(7) . 1. 0
Na6 Na1+ 1 a 0 0.2851(10) 0.5 . 1. 0
F1 F1- 1 a 0.0961(15) 0.1830(12) 0.1867(16) . 1. 0
F2 F1- 1 a -.0961(15) 0.0869(12) -.1867(16) . 1. 0
F3 F1- 1 a -.1808(10) -.0824(18) 0.1898(14) . 1. 0
F4 F1- 1 a 0.1808(10) 0.0984(18) -.1898(14) . 1. 0
F5 F1- 1 a 0.0842(19) -.0958(19) 0.187(2) . 1. 0
F6 F1- 1 a -.0842(19) -.1800(19) -.187(2) . 1. 0
F7 F1- 1 a 0.1534(9) 0.5535(11) 0.2927(18) . 1. 0
F8 F1- 1 a -.1534(9) 0.4001(11) -.2927(18) . 1. 0
F9 F1- 1 a 0.4483(9) 0.6026(12) 0.2951(18) . 1. 0
F10 F1- 1 a 0.5517(9) 0.1543(12) -.2951(18) . 1. 0
F11 F1- 1 a 0.4004(10) 0.8492(13) 0.2911(18) . 1. 0
F12 F1- 1 a 0.5996(10) 0.4488(13) -.2911(18) . 1. 0
F13 F1- 1 a 0.2567(16) 0.4850(11) 0.6947(19) . 1. 0
F14 F1- 1 a -.2567(16) 0.2283(11) 0.3053(19) . 1. 0
F15 F1- 1 a 0.2268(15) 0.7429(19) 0.6963(17) . 1. 0
F16 F1- 1 a -.2268(15) 0.5161(19) 0.3037(17) . 1. 0
F17 F1- 1 a 0.5176(10) 0.7773(15) 0.6932(19) . 1. 0
F18 F1- 1 a 0.4824(10) 0.2597(15) 0.3068(19) . 1. 0
loop_
_atom_site_aniso_label
_atom_site_aniso_type_symbol
_atom_site_aniso_beta_11
_atom_site_aniso_beta_22
_atom_site_aniso_beta_33
_atom_site_aniso_beta_12
_atom_site_aniso_beta_13
_atom_site_aniso_beta_23
Ti1 Ti4+ 0.0079(6) 0.0102(5) 0.0256(11) 0.004 0.0024(5) 0.0012
Ti2 Ti4+ 0.0078(5) 0.0096(5) 0.0205(10) 0.0040(4) 0.0026(3) 0.0006(4)
Ti3 Ti4+ 0.0078(5) 0.0094(5) 0.0205(10) 0.0038(4) 0.0026(3) 0.0020(4)
Na1 Na1+ 0.0087(8) 0.0188(11) 0.0122(13) 0.0080(9) 0.0006(8) -.0021(12)
Na2 Na1+ 0.0087(8) 0.0115(11) 0.0122(13) 0.0007(9) 0.0006(8) 0.0027(12)
Na3 Na1+ 0.0149(16) 0.0117(10) 0.0141(20) 0.0074 0.0047(15) 0.0024
Na4 Na1+ 0.0083(8) 0.0106(8) 0.0161(16) 0.0049(7) -.0018(13) -.0072(23)
Na5 Na1+ 0.0083(8) 0.0091(8) 0.0161(16) 0.0034(7) -.0018(13) 0.0054(23)
Na6 Na1+ 0.0078(12) 0.0077(8) 0.0206(25) 0.0039 0.0089(24) 0.0045
F1 F1- 0.0101(15) 0.0087(16) 0.0270(29) 0.0024(13) 0.0062(18) -.0018(17)
F2 F1- 0.0101(15) 0.0140(16) 0.0270(29) 0.0077(13) 0.0062(18) 0.0080(17)
F3 F1- 0.0066(13) 0.0132(15) 0.0273(25) 0.0023(12) 0.0061(17) 0.0026(18)
F4 F1- 0.0066(13) 0.0152(15) 0.0273(25) 0.0043(12) 0.0061(17) 0.0035(18)
F5 F1- 0.0185(19) 0.0148(19) 0.0303(31) 0.0130(17) -.0046(17) -.0024(23)
F6 F1- 0.0185(19) 0.0073(19) 0.0303(31) 0.0055(17) -.0046(17) -.0022(23)
F7 F1- 0.0042(11) 0.0065(15) 0.0273(23) 0.0002(10) -.0025(11) 0.0027(13)
F8 F1- 0.0042(11) 0.0103(15) 0.0273(23) 0.004(1) -.0025(11) -.0052(13)
F9 F1- 0.0053(13) 0.0109(18) 0.0224(24) 0.0050(15) -.0015(13) -.0053(16)
F10 F1- 0.0053(13) 0.0062(18) 0.0224(24) 0.0003(15) -.0015(13) 0.0038(16)
F11 F1- 0.0064(15) 0.0069(15) 0.0241(24) 0.0014(11) 0.0067(14) 0.0042(12)
F12 F1- 0.0064(15) 0.0107(15) 0.0241(24) 0.0050(11) 0.0067(14) 0.0025(12)
F13 F1- 0.0137(19) 0.0072(13) 0.0231(25) 0.0036(13) 0.0016(16) 0.0025(15)
F14 F1- 0.0137(19) 0.0137(13) 0.0231(25) 0.0101(13) 0.0016(16) -.0009(15)
F15 F1- 0.0145(21) 0.0176(21) 0.0218(28) 0.0132(20) 0.0040(15) 0.0016(16)
F16 F1- 0.0145(21) 0.0057(21) 0.0218(28) 0.0013(20) 0.0040(15) 0.0024(16)
F17 F1- 0.002(1) 0.0129(20) 0.0279(23) -.0004(10) -.0006(11) -.0043(16)
F18 F1- 0.002(1) 0.0157(20) 0.0279(23) 0.0024(10) -.0006(11) 0.0037(16)
#End of TTdata_40916-ICSD