
#(C) 2018 by FIZ Karlsruhe - Leibniz Institute for Information Infrastructure.  All rights reserved.
data_409554-ICSD
_database_code_ICSD 409554
_audit_creation_date 2002-10-01
_chemical_name_systematic 'Dilithium nickel bis(sulfate(VI))'
_chemical_formula_structural 'Li2 Ni (S O4)2'
_chemical_formula_sum 'Li2 Ni1 O8 S2'
_exptl_crystal_density_diffrn 3.16
_publ_section_title
'Crystal structure of dilithium nickel disulfate, Li Ni2 (S O4)2'
loop_
_citation_id
_citation_journal_full
_citation_year
_citation_journal_volume
_citation_page_first
_citation_page_last
_citation_journal_id_ASTM
primary 'Zeitschrift fuer Kristallographie - New Crystal Structures' 2001 216
331 332 ZKNSFT
loop_
_publ_author_name
'Isasi, J.'
'Jaulmes, S.'
'Elfakir, A.'
'Quarton, M.'
_cell_length_a 9.126(2)
_cell_length_b 9.001(2)
_cell_length_c 13.543(3)
_cell_angle_alpha 90.
_cell_angle_beta 90.
_cell_angle_gamma 90.
_cell_volume 1112.46
_cell_formula_units_Z 8
_symmetry_space_group_name_H-M 'P b c a'
_symmetry_Int_Tables_number 61
_refine_ls_R_factor_all 0.036
loop_
_symmetry_equiv_pos_site_id
_symmetry_equiv_pos_as_xyz
1 'x+1/2, y, -z+1/2'
2 'x, -y+1/2, z+1/2'
3 '-x+1/2, y+1/2, z'
4 '-x, -y, -z'
5 '-x+1/2, -y, z+1/2'
6 '-x, y+1/2, -z+1/2'
7 'x+1/2, -y+1/2, -z'
8 'x, y, z'
loop_
_atom_type_symbol
_atom_type_oxidation_number
Li1+ 1
Ni2+ 2
S6+ 6
O2- -2
loop_
_atom_site_label
_atom_site_type_symbol
_atom_site_symmetry_multiplicity
_atom_site_Wyckoff_symbol
_atom_site_fract_x
_atom_site_fract_y
_atom_site_fract_z
_atom_site_B_iso_or_equiv
_atom_site_occupancy
_atom_site_attached_hydrogens
Li1 Li1+ 8 c 0.4657(6) 0.7198(6) 0.3735(4) . 1. 0
Li2 Li1+ 8 c 0.7248(6) 0.5441(6) 0.6275(4) . 1. 0
Ni1 Ni2+ 8 c 0.86180(4) 0.60310(4) 0.37771(2) . 1. 0
S1 S6+ 8 c 0.66062(6) 0.81305(7) 0.50876(4) . 1. 0
S2 S6+ 8 c 0.57517(7) 0.43034(6) 0.27298(4) . 1. 0
O1 O2- 8 c 0.5007(2) 0.7998(2) 0.52293(14) . 1. 0
O2 O2- 8 c 0.7044(2) 0.9695(2) 0.49404(15) . 1. 0
O3 O2- 8 c 0.6901(2) 0.7279(2) 0.41810(14) . 1. 0
O4 O2- 8 c 0.7422(2) 0.7575(2) 0.59402(14) . 1. 0
O5 O2- 8 c 0.4817(2) 0.4976(2) 0.34819(15) . 1. 0
O6 O2- 8 c 0.5233(2) 0.4637(2) 0.17103(14) . 1. 0
O7 O2- 8 c 0.5742(2) 0.2670(2) 0.27774(15) . 1. 0
O8 O2- 8 c 0.7257(2) 0.4886(2) 0.27867(15) . 1. 0
loop_
_atom_site_aniso_label
_atom_site_aniso_type_symbol
_atom_site_aniso_U_11
_atom_site_aniso_U_22
_atom_site_aniso_U_33
_atom_site_aniso_U_12
_atom_site_aniso_U_13
_atom_site_aniso_U_23
Li1 Li1+ 0.023(2) 0.011(2) 0.017(2) -.001(2) -.005(2) 0.003(2)
Li2 Li1+ 0.017(2) 0.013(2) 0.019(2) -.003(2) 0.001(2) 0.002(2)
Ni1 Ni2+ 0.00840(13) 0.00434(12) 0.00922(13) 0.00079(10) 0.00028(11) -.00064(11)
S1 S6+ 0.0080(2) 0.0036(2) 0.0084(2) 0.0001(2) -.0003(2) -.0001(2)
S2 S6+ 0.0079(2) 0.0038(2) 0.0082(2) 0.0002(2) 0.0003(2) 0.0002(2)
O1 O2- 0.0081(7) 0.0105(8) 0.0129(8) -.0006(6) 0.0025(6) -.0022(7)
O2 O2- 0.0142(8) 0.0055(7) 0.0136(8) -.0012(6) -.0002(7) 0.0011(6)
O3 O2- 0.0129(8) 0.0088(8) 0.0095(8) 0.0031(7) 0.0006(6) -.0025(6)
O4 O2- 0.0119(7) 0.0096(8) 0.0109(7) 0.0008(6) -.0013(7) 0.0018(6)
O5 O2- 0.0114(8) 0.0077(7) 0.0116(8) 0.0005(6) 0.0026(6) -.0024(6)
O6 O2- 0.0136(8) 0.0089(7) 0.0081(7) 0.0035(6) -.0012(6) 0.0015(6)
O7 O2- 0.0183(9) 0.0050(7) 0.0129(8) 0.0014(7) 0.0001(7) 0.0001(6)
O8 O2- 0.0088(8) 0.0122(8) 0.0144(8) -.0020(7) -.0008(6) -.0031(7)
#End of TTdata_409554-ICSD