
#(C) 2017 by FIZ Karlsruhe - Leibniz Institute for Information Infrastructure.  All rights reserved.
data_409667-ICSD
_database_code_ICSD 409667
_audit_creation_date 2003-10-01
_chemical_name_systematic 'Dilithium hexafluorozirconate'
_chemical_formula_structural 'Li2 (Zr F6)'
_chemical_formula_sum 'F6 Li2 Zr1'
_chemical_name_structure_type Li2TbF6
_exptl_crystal_density_diffrn 3.78
_publ_section_title

;
Refinement of the crystal structure of dilithium zirconium hexafluoride, Li2
Zr F6, synthesized at 11 GPa and 1063 K
;
loop_
_citation_id
_citation_journal_full
_citation_year
_citation_journal_volume
_citation_page_first
_citation_page_last
_citation_journal_id_ASTM
primary 'Zeitschrift fuer Kristallographie - New Crystal Structures' 2003 218 3
4 ZKNSFT
loop_
_publ_author_name
'Grzechnik, A.'
'Gesland, J.Y.'
_cell_length_a 7.4223(1)
_cell_length_b 4.9492(1)
_cell_length_c 10.9691(1)
_cell_angle_alpha 90.
_cell_angle_beta 106.95(1)
_cell_angle_gamma 90.
_cell_volume 385.44
_cell_formula_units_Z 4
_symmetry_space_group_name_H-M 'P 1 21/c 1'
_symmetry_Int_Tables_number 14
_refine_ls_R_factor_all 0.055
loop_
_symmetry_equiv_pos_site_id
_symmetry_equiv_pos_as_xyz
1 'x, -y+1/2, z+1/2'
2 '-x, -y, -z'
3 '-x, y+1/2, -z+1/2'
4 'x, y, z'
loop_
_atom_type_symbol
_atom_type_oxidation_number
Zr4+ 4
F1- -1
Li1+ 1
loop_
_atom_site_label
_atom_site_type_symbol
_atom_site_symmetry_multiplicity
_atom_site_Wyckoff_symbol
_atom_site_fract_x
_atom_site_fract_y
_atom_site_fract_z
_atom_site_B_iso_or_equiv
_atom_site_occupancy
_atom_site_attached_hydrogens
Zr1 Zr4+ 4 e 0.25198(28) 0.51405(20) 0.00089(17) 0.01670(17) 1. 0
F1 F1- 4 e 0.4537(8) 0.1885(10) 0.4299(5) 0.01 1. 0
F2 F1- 4 e 0.1043(8) 0.3578(9) 0.8242(5) 0.01 1. 0
F3 F1- 4 e 0.0466(8) 0.2288(10) 0.5468(5) 0.01 1. 0
F4 F1- 4 e 0.3948(8) 0.2163(9) 0.6533(5) 0.01 1. 0
F5 F1- 4 e 0.2450(7) 0.6479(9) 0.3980(4) 0.01 1. 0
F6 F1- 4 e 0.2510(7) 0.7458(10) 0.6503(4) 0.01 1. 0
Li1 Li1+ 4 e 0.4071(22) 0.518(4) 0.3056(16) 0.02 1. 0
Li2 Li1+ 4 e 0.0381(22) -.019(4) 0.1717(17) 0.02 1. 0
#End of TTdata_409667-ICSD