
#(C) 2019 by FIZ Karlsruhe - Leibniz Institute for Information Infrastructure.  All rights reserved.
data_409971-ICSD
_database_code_ICSD 409971
_audit_creation_date 2009-08-01
_audit_update_record 2015-02-01
_chemical_name_systematic
'Disodium cobalt (II)tetraaquabis(dihydrogendiphosphate)'
_chemical_formula_structural 'Na2 Co (H2 P2 O7)2 (H2 O)4'
_chemical_formula_sum 'H12 Co1 Na2 O18 P4'
_chemical_name_structure_type Na2Co(H2P2O7)2(H2O)2
_exptl_crystal_density_diffrn 2.27
_cell_measurement_temperature 296.2
_publ_section_title

;
Crystal structure of sodium cobalt (II)tetraaquabis(dihydrogendiphosphate),
Na2 Co (H2 P2 O7)2 (H2 O)4
;
loop_
_citation_id
_citation_journal_full
_citation_year
_citation_journal_volume
_citation_page_first
_citation_page_last
_citation_journal_id_ASTM
primary 'Zeitschrift fuer Kristallographie - New Crystal Structures' 2009 224 3
4 ZKNSFT
loop_
_publ_author_name
'Souissi, S.'
'Smirani, W.'
'Rzaigui, M.'
_cell_length_a 8.034(2)
_cell_length_b 11.552(2)
_cell_length_c 9.061(2)
_cell_angle_alpha 90.
_cell_angle_beta 113.06(2)
_cell_angle_gamma 90.
_cell_volume 773.75
_cell_formula_units_Z 2
_symmetry_space_group_name_H-M 'P 1 21/m 1'
_symmetry_Int_Tables_number 11
_refine_ls_R_factor_all 0.033
loop_
_symmetry_equiv_pos_site_id
_symmetry_equiv_pos_as_xyz
1 'x, -y+1/2, z'
2 '-x, -y, -z'
3 '-x, y+1/2, -z'
4 'x, y, z'
loop_
_atom_type_symbol
_atom_type_oxidation_number
Co2+ 2
P5+ 5
Na1+ 1
O2- -2
H1+ 1
loop_
_atom_site_label
_atom_site_type_symbol
_atom_site_symmetry_multiplicity
_atom_site_Wyckoff_symbol
_atom_site_fract_x
_atom_site_fract_y
_atom_site_fract_z
_atom_site_B_iso_or_equiv
_atom_site_occupancy
_atom_site_attached_hydrogens
Co1 Co2+ 2 e 0.46976(7) 0.25 0.73582(6) 0.01426(13) 1 0
P1 P5+ 4 f 0.69126(9) 0.00258(6) 0.83021(8) 0.0156(2) 1. 0
P2 P5+ 4 f 0.29709(9) 0.51021(6) 0.64828(8) 0.0155(2) 1. 0
Na1 Na1+ 2 e 0.0144(2) 0.25 0.5541(2) 0.0269(4) 1 0
Na2 Na1+ 2 e 0.7572(2) 0.25 1.0914(2) 0.0283(5) 1 0
O1 O2- 4 f 0.8341(3) -0.0283(2) 0.7604(2) 0.0235(5) 1. 0
O2 O2- 4 f 0.7305(3) -0.0664(2) 0.9800(2) 0.0250(5) 1. 0
O3 O2- 4 f 0.6753(3) 0.1300(2) 0.8492(2) 0.0198(5) 1. 0
O4 O2- 4 f 0.1974(3) 0.5785(2) 0.4986(2) 0.0247(5) 1. 0
O5 O2- 4 f 0.2522(3) 0.5615(2) 0.7862(2) 0.0255(6) 1. 0
O6 O2- 4 f 0.2789(2) 0.3813(2) 0.6402(2) 0.0192(5) 1. 0
O7 O2- 4 f 0.5062(3) 0.5429(2) 0.6922(2) 0.0233(5) 1 0
O8 O2- 2 e 0.4372(4) 0.25 0.9581(3) 0.0196(7) 1 0
O9 O2- 2 e 0.5261(4) 0.25 0.5290(4) 0.0301(9) 1 0
O10 O2- 2 e 0.9969(4) 0.25 0.8018(4) 0.0401(10) 1 0
O11 O2- 2 e -0.0408(4) 0.75 0.7064(4) 0.0290(8) 1 0
H1 H1+ 4 f 0.8362 0.0237 0.6704 0.016 1. 0
H2 H1+ 4 f 0.2565 0.511 0.8683 0.016 1. 0
H3 H1+ 4 f 0.3727 0.1896 0.9728 0.016 1. 0
H4 H1+ 4 f 0.5867 0.1979 0.5062 0.016 1. 0
H5 H1+ 2 e 0.9198 0.25 0.8387 0.016 1 0
H6 H1+ 4 f 1.1179 0.188 1.3023 0.016 1. 0
H7 H1+ 2 e 0.094 0.25 0.8784 0.016 1 0
loop_
_atom_site_aniso_label
_atom_site_aniso_type_symbol
_atom_site_aniso_U_11
_atom_site_aniso_U_22
_atom_site_aniso_U_33
_atom_site_aniso_U_12
_atom_site_aniso_U_13
_atom_site_aniso_U_23
Co1 Co2+ 0.0199(3) 0.0100(3) 0.0137(3) -0. 0.0075(2) -0.
P1 P5+ 0.0223(4) 0.0123(4) 0.0151(3) 0.0013(3) 0.0104(3) 0.0000(3)
P2 P5+ 0.0235(4) 0.0124(4) 0.0127(4) 0.0028(3) 0.0092(3) 0.0014(3)
Na1 Na1+ 0.0275(9) 0.0250(9) 0.0277(9) -0. 0.0101(7) -0.
Na2 Na1+ 0.0363(10) 0.0225(8) 0.0224(9) -0. 0.0076(7) -0.
O1 O2- 0.0289(10) 0.0246(10) 0.0237(10) 0.0061(9) 0.0176(9) 0.0044(9)
O2 O2- 0.0413(12) 0.0189(10) 0.0194(10) 0.0011(9) 0.0169(9) 0.0044(8)
O3 O2- 0.0246(10) 0.0115(9) 0.0230(10) 0.0020(8) 0.0088(8) -0.0015(8)
O4 O2- 0.0364(12) 0.0222(10) 0.0159(10) 0.0106(9) 0.0107(9) 0.0046(8)
O5 O2- 0.0473(13) 0.0178(10) 0.0183(10) 0.0051(9) 0.0203(9) 0.0007(8)
O6 O2- 0.0222(10) 0.0132(10) 0.0223(10) 0.0026(8) 0.0090(8) 0.0004(8)
O7 O2- 0.0259(11) 0.0189(10) 0.0251(11) -0.0006(8) 0.0101(9) 0.0078(8)
O8 O2- 0.029(1) 0.0124(13) 0.023(1) -0. 0.0153(12) -0.
O9 O2- 0.057(2) 0.015(2) 0.032(2) -0. 0.032(2) -0.
O10 O2- 0.028(2) 0.059(2) 0.037(2) -0. 0.016(2) -0.
O11 O2- 0.030(2) 0.020(2) 0.039(2) -0. 0.015(1) -0.
#End of TTdata_409971-ICSD