
#(C) 2019 by FIZ Karlsruhe - Leibniz Institute for Information Infrastructure.  All rights reserved.
data_409947-ICSD
_database_code_ICSD 409947
_audit_creation_date 2009-02-01
_chemical_name_systematic

;
Hexakis(mue3-hydroxo)-tetra(mue2-hydroxo)-octadeca-(mue2-oxo)-tetradecaoxo-dis
odium(I) dodecatungsten dodecahydrate
;
_chemical_formula_structural '(Na (H2 O)4)2 (H10 W12 O42) (H2 O)12'
_chemical_formula_sum 'H50 Na2 O62 W12'
_exptl_crystal_density_diffrn 4.31
_cell_measurement_temperature 293.
_publ_section_title

;
Crystal structure of hexakis(mu3-hydroxo)-tetra(mu2-hydroxo)-octadeca-
(mu2-oxo)-tetradecaoxo-disodium(I) dodecatungsten dodecahydrate, [Na (H2 O)4]2
(H10 W12 O42) * 12 H2 O
;
loop_
_citation_id
_citation_journal_full
_citation_year
_citation_journal_volume
_citation_page_first
_citation_page_last
_citation_journal_id_ASTM
primary 'Zeitschrift fuer Kristallographie - New Crystal Structures' 2008 223
317 318 ZKNSFT
loop_
_publ_author_name
'Zhang Bisong'
_cell_length_a 14.105(3)
_cell_length_b 15.729(3)
_cell_length_c 22.892(5)
_cell_angle_alpha 90.
_cell_angle_beta 90.
_cell_angle_gamma 90.
_cell_volume 5078.76
_cell_formula_units_Z 4
_symmetry_space_group_name_H-M 'P b c a'
_symmetry_Int_Tables_number 61
_refine_ls_R_factor_all 0.0439
loop_
_symmetry_equiv_pos_site_id
_symmetry_equiv_pos_as_xyz
1 'x+1/2, y, -z+1/2'
2 'x, -y+1/2, z+1/2'
3 '-x+1/2, y+1/2, z'
4 '-x, -y, -z'
5 '-x+1/2, -y, z+1/2'
6 '-x, y+1/2, -z+1/2'
7 'x+1/2, -y+1/2, -z'
8 'x, y, z'
loop_
_atom_type_symbol
_atom_type_oxidation_number
Na1+ 1
W6+ 6
O2- -2
H1+ 1
O2- -2
H1+ 1
O2- -2
H1+ 1
O2- -2
H1+ 1
O2- -2
H1+ 1
O2- -2
H1+ 1
O2- -2
H1+ 1
O2- -2
H1+ 1
O2- -2
H1+ 1
O2- -2
H1+ 1
O2- -2
H1+ 1
O2- -2
H1+ 1
O2- -2
H1+ 1
O2- -2
H1+ 1
O2- -2
H1+ 1
loop_
_atom_site_label
_atom_site_type_symbol
_atom_site_symmetry_multiplicity
_atom_site_Wyckoff_symbol
_atom_site_fract_x
_atom_site_fract_y
_atom_site_fract_z
_atom_site_B_iso_or_equiv
_atom_site_occupancy
_atom_site_attached_hydrogens
Na1 Na1+ 8 c 0.9512(4) -0.1568(3) 0.2177(2) 0.0245(11) 1 0
W1 W6+ 8 c 0.93179(3) 0.05758(2) 0.388577(18) 0.00908(12) 1 0
W2 W6+ 8 c 0.95273(3) -0.17318(2) 0.510033(18) 0.00874(12) 1 0
W3 W6+ 8 c 1.16884(3) 0.06587(3) 0.389957(18) 0.01081(12) 1 0
W4 W6+ 8 c 0.83862(3) -0.16238(3) 0.365786(18) 0.01069(12) 1 0
W5 W6+ 8 c 1.07209(3) -0.14920(3) 0.366073(18) 0.01030(12) 1 0
W6 W6+ 8 c 1.27204(3) 0.04830(3) 0.536047(18) 0.01091(12) 1 0
O1 O2- 8 c 0.8642(6) 0.0909(5) 0.3296(4) 0.0215(18) 1 0
O2 O2- 8 c 1.0722(6) -0.1450(5) 0.2886(4) 0.0162(16) 1 0
H1 H1+ 8 c 1.1059 -0.1831 0.2757 0.024 1 0
O3 O2- 8 c 0.8309(6) -0.1525(5) 0.2887(4) 0.0192(18) 1 0
H2 H1+ 8 c 0.7935 -0.1145 0.2803 0.029 1 0
O4 O2- 8 c 1.1507(6) -0.2317(5) 0.3799(4) 0.0195(17) 1 0
O5 O2- 8 c 1.1514(6) 0.1704(4) 0.4250(3) 0.0135(16) 1 0
O6 O2- 8 c 1.2551(6) 0.0880(5) 0.3375(4) 0.0208(18) 1 0
O7 O2- 8 c 1.0503(5) 0.0398(5) 0.4531(3) 0.0118(15) 1 0
H3 H1+ 8 c 1.0905 0.0796 0.4488 0.018 1 0
O8 O2- 8 c 0.8506(6) -0.1373(4) 0.4612(3) 0.0135(15) 1 0
H4 H1+ 8 c 0.9099 -0.1282 0.4592 0.02 1 0
O9 O2- 8 c 0.9442(6) -0.2811(5) 0.5007(4) 0.0175(17) 1 0
O10 O2- 8 c 0.7667(6) -0.2504(5) 0.3780(4) 0.0164(16) 1 0
O11 O2- 8 c 1.3505(6) 0.1319(5) 0.5274(3) 0.0141(16) 1 0
O12 O2- 8 c 0.7506(6) -0.0728(5) 0.3811(4) 0.0145(16) 1 0
O13 O2- 8 c 1.0600(5) 0.0781(5) 0.3450(4) 0.0132(16) 1 0
O14 O2- 8 c 1.0365(5) -0.1684(4) 0.5769(3) 0.0100(15) 1 0
O15 O2- 8 c 1.2428(6) 0.0301(5) 0.4572(3) 0.0143(16) 1 0
O16 O2- 8 c 1.0443(5) -0.1401(5) 0.4601(3) 0.0122(15) 1 0
O17 O2- 8 c 1.1549(6) -0.0571(4) 0.3788(3) 0.0129(15) 1 0
O18 O2- 8 c 0.9521(5) -0.0579(4) 0.3708(3) 0.0112(15) 1 0
H5 H1+ 8 c 0.9963 -0.0622 0.3477 0.017 1 0
O19 O2- 8 c 0.9570(5) -0.2171(4) 0.3722(3) 0.0111(15) 1 0
O20 O2- 8 c 1.3486(6) -0.0372(5) 0.5447(4) 0.0198(17) 1 0
O21 O2- 8 c 0.8465(5) 0.0376(4) 0.4458(3) 0.0113(15) 1 0
O22 O2- 8 c 0.8441(8) -0.1686(6) 0.1343(5) 0.040(3) 1 0
H6 H1+ 8 c 0.8882 -0.1415 0.1162 0.06 1 0
H7 H1+ 8 c 0.8153 -0.2005 0.1581 0.06 1 0
O23 O2- 8 c 1.0675(7) -0.1835(6) 0.1466(5) 0.033(2) 1 0
H8 H1+ 8 c 1.0477 -0.1331 0.1451 0.049 1 0
H9 H1+ 8 c 1.074 -0.2225 0.1212 0.049 1 0
O24 O2- 8 c 0.9602(8) -0.4369(6) 0.5577(5) 0.036(2) 1 0
H10 H1+ 8 c 1.0128 -0.4322 0.5769 0.054 1 0
H11 H1+ 8 c 0.9441 -0.4804 0.5786 0.054 1 0
O25 O2- 8 c 0.9545(9) -0.6075(8) 0.6014(6) 0.057(3) 1 0
H12 H1+ 8 c 0.9174 -0.6186 0.6297 0.085 1 0
H13 H1+ 8 c 0.963 -0.6465 0.5756 0.085 1 0
O26 O2- 8 c 0.9456(9) -0.0049(8) 0.2180(6) 0.060(4) 1 0
H14 H1+ 8 c 0.9404 0.0411 0.2372 0.09 1 0
H15 H1+ 8 c 0.952 -0.0084 0.1812 0.09 1 0
O27 O2- 8 c 0.8648(8) -0.3941(7) 0.3367(5) 0.046(3) 1 0
H16 H1+ 8 c 0.8266 -0.3991 0.366 0.069 1 0
H17 H1+ 8 c 0.8359 -0.3664 0.3107 0.069 1 0
O28 O2- 8 c 0.9567(9) -0.3039(7) 0.2429(5) 0.047(3) 1 0
H18 H1+ 8 c 0.898 -0.3105 0.2401 0.07 1 0
H19 H1+ 8 c 1.0081 -0.2774 0.2331 0.07 1 0
O29 O2- 8 c 0.6993(8) -0.0199(7) 0.2605(5) 0.050(3) 1 0
H20 H1+ 8 c 0.6835 -0.0624 0.2384 0.075 1 0
H21 H1+ 8 c 0.668 -0.0275 0.2921 0.075 1 0
O30 O2- 8 c 0.7272(8) -0.3024(7) 0.4972(5) 0.045(3) 1 0
H22 H1+ 8 c 0.7624 -0.3007 0.4675 0.067 1 0
H23 H1+ 8 c 0.7053 -0.2895 0.5311 0.067 1 0
O31 O2- 8 c 0.8075(8) 0.2183(6) 0.2494(5) 0.040(3) 1 0
H24 H1+ 8 c 0.8174 0.2362 0.2149 0.059 1 0
H25 H1+ 8 c 0.7649 0.2319 0.274 0.059 1 0
loop_
_atom_site_aniso_label
_atom_site_aniso_type_symbol
_atom_site_aniso_U_11
_atom_site_aniso_U_22
_atom_site_aniso_U_33
_atom_site_aniso_U_12
_atom_site_aniso_U_13
_atom_site_aniso_U_23
Na1 Na1+ 0.025(3) 0.035(3) 0.014(2) 0.000(2) 0.003(2) -0.008(2)
W1 W6+ 0.0126(2) 0.0106(2) 0.0041(2) -0.00018(14) -0.00152(17) 0.00054(14)
W2 W6+ 0.0118(2) 0.01015(19) 0.0042(2) -0.00015(14) -0.00065(17) 0.00017(14)
W3 W6+ 0.0128(2) 0.0151(2) 0.0046(2) -0.00267(15) 0.00235(18) -0.00058(14)
W4 W6+ 0.0115(2) 0.0149(2) 0.0057(2) -0.00023(15) -0.00045(18) -0.00314(14)
W5 W6+ 0.0113(2) 0.0132(2) 0.0064(2) 0.00069(15) 0.00075(17) -0.00231(14)
W6 W6+ 0.0107(2) 0.0159(2) 0.0061(2) 0.00094(15) 0.00010(18) -0.00226(14)
#End of TTdata_409947-ICSD