
#(C) 2019 by FIZ Karlsruhe - Leibniz Institute for Information Infrastructure.  All rights reserved.
data_409981-ICSD
_database_code_ICSD 409981
_audit_creation_date 2009-08-01
_chemical_name_systematic 'Disodium dimanganate(II)'
_chemical_formula_structural 'Na2 (Mn2 O3)'
_chemical_formula_sum 'Mn2 Na2 O3'
_chemical_name_structure_type Na2Zn2O3(tP28)
_exptl_crystal_density_diffrn 3.47
_cell_measurement_temperature 293.
_publ_section_title 'Crystal structure of disodium dimanganate(II), Na2 Mn2 O3'
loop_
_citation_id
_citation_journal_full
_citation_year
_citation_journal_volume
_citation_page_first
_citation_page_last
_citation_journal_id_ASTM
primary 'Zeitschrift fuer Kristallographie - New Crystal Structures' 2009 224
163 164 ZKNSFT
loop_
_publ_author_name
'Pfeiffer, S.'
'Jansen, M.'
_cell_length_a 6.4205(9)
_cell_length_b 6.4205(9)
_cell_length_c 9.4765(19)
_cell_angle_alpha 90.
_cell_angle_beta 90.
_cell_angle_gamma 90.
_cell_volume 390.65
_cell_formula_units_Z 4
_symmetry_space_group_name_H-M 'P 43 21 2'
_symmetry_Int_Tables_number 96
_refine_ls_R_factor_all 0.0247
loop_
_symmetry_equiv_pos_site_id
_symmetry_equiv_pos_as_xyz
1 'x+1/2, -y+1/2, -z+1/4'
2 '-x+1/2, y+1/2, -z+3/4'
3 '-y, -x, -z+1/2'
4 'y, x, -z'
5 'y+1/2, -x+1/2, z+1/4'
6 '-y+1/2, x+1/2, z+3/4'
7 '-x, -y, z+1/2'
8 'x, y, z'
loop_
_atom_type_symbol
_atom_type_oxidation_number
Mn2+ 2
Na1+ 1
O2- -2
loop_
_atom_site_label
_atom_site_type_symbol
_atom_site_symmetry_multiplicity
_atom_site_Wyckoff_symbol
_atom_site_fract_x
_atom_site_fract_y
_atom_site_fract_z
_atom_site_B_iso_or_equiv
_atom_site_occupancy
_atom_site_attached_hydrogens
Mn1 Mn2+ 8 b 0.75352(11) 0.54232(7) 0.11387(5) 0.00870(11) 1 0
Na1 Na1+ 8 b 0.47551(19) 0.2601(3) 0.86178(13) 0.0138(3) 1 0
O1 O2- 8 b 0.0000(3) 0.2572(7) 0.64613(19) 0.0095(4) 1 0
O2 O2- 4 a 0.1844(4) 0.1844(4) 0. 0.0140(6) 1 0
loop_
_atom_site_aniso_label
_atom_site_aniso_type_symbol
_atom_site_aniso_U_11
_atom_site_aniso_U_22
_atom_site_aniso_U_33
_atom_site_aniso_U_12
_atom_site_aniso_U_13
_atom_site_aniso_U_23
Mn1 Mn2+ 0.00880(18) 0.00877(17) 0.00852(16) -0.0006(2) 0.0005(2) 0.00091(15)
Na1 Na1+ 0.0113(5) 0.0173(5) 0.0129(5) -0.0019(7) 0.0011(5) -0.0002(7)
O1 O2- 0.0100(8) 0.0097(9) 0.0088(8) -0.0014(6) 0.0014(5) -0.0015(15)
O2 O2- 0.0151(9) 0.0151(9) 0.0119(12) 0.0012(11) -0.0031(7) 0.0031(7)
#End of TTdata_409981-ICSD