
#(C) 2018 by FIZ Karlsruhe - Leibniz Institute for Information Infrastructure.  All rights reserved.
data_41039-ICSD
_database_code_ICSD 41039
_audit_creation_date 2000-07-15
_audit_update_record 2007-08-01
_chemical_name_systematic 'Lithium iron oxide (3/5/8)'
_chemical_formula_structural 'Li3 Fe5 O8'
_chemical_formula_sum 'Fe5 Li3 O8'
_chemical_name_mineral Unnamed_Halite
_exptl_crystal_density_diffrn 4.82
_publ_section_title 'Lithium insertion ionto the spinel Li Fe5 O8'
loop_
_citation_id
_citation_journal_full
_citation_year
_citation_journal_volume
_citation_page_first
_citation_page_last
_citation_journal_id_ASTM
primary 'Materials Research Bulletin' 1986 21 583 592 MRBUAC
loop_
_publ_author_name
'de Picciotto, L.A.'
'Thackeray, M.M.'
_cell_length_a 8.389(2)
_cell_length_b 8.389(2)
_cell_length_c 8.389(2)
_cell_angle_alpha 90.
_cell_angle_beta 90.
_cell_angle_gamma 90.
_cell_volume 590.38
_cell_formula_units_Z 4
_symmetry_space_group_name_H-M 'P 43 3 2'
_symmetry_Int_Tables_number 212
loop_
_symmetry_equiv_pos_site_id
_symmetry_equiv_pos_as_xyz
1 'z+1/4, y+3/4, -x+3/4'
2 '-z+3/4, y+1/4, x+3/4'
3 'y+1/4, x+3/4, -z+3/4'
4 '-y+3/4, x+1/4, z+3/4'
5 'x+1/4, z+3/4, -y+3/4'
6 '-x+3/4, z+1/4, y+3/4'
7 'z+3/4, -y+3/4, x+1/4'
8 '-z+1/4, -y+1/4, -x+1/4'
9 'y+3/4, -x+3/4, z+1/4'
10 '-y+1/4, -x+1/4, -z+1/4'
11 'x+3/4, -z+3/4, y+1/4'
12 '-x+1/4, -z+1/4, -y+1/4'
13 '-y+1/2, -z, x+1/2'
14 '-y, z+1/2, -x+1/2'
15 'y+1/2, -z+1/2, -x'
16 'y, z, x'
17 'z+1/2, -x+1/2, -y'
18 '-z+1/2, -x, y+1/2'
19 '-z, x+1/2, -y+1/2'
20 'z, x, y'
21 '-x+1/2, -y, z+1/2'
22 '-x, y+1/2, -z+1/2'
23 'x+1/2, -y+1/2, -z'
24 'x, y, z'
loop_
_atom_type_symbol
_atom_type_oxidation_number
Fe3+ 3
Li1+ 1
Fe3+ 3
Li1+ 1
Fe2+ 2.33
Li1+ 1
O2- -2
loop_
_atom_site_label
_atom_site_type_symbol
_atom_site_symmetry_multiplicity
_atom_site_Wyckoff_symbol
_atom_site_fract_x
_atom_site_fract_y
_atom_site_fract_z
_atom_site_B_iso_or_equiv
_atom_site_occupancy
_atom_site_attached_hydrogens
Fe1 Fe3+ 4 a 0.125 0.125 0.125 0.5 0.5 0
Li1 Li1+ 4 a 0.125 0.125 0.125 1. 0.5 0
Fe2 Fe3+ 12 d 0.125 0.625 0.625 0.5 0.5 0
Li2 Li1+ 12 d 0.125 0.625 0.625 1. 0.5 0
Fe3 Fe2+ 12 d 0.125 0.375 0.875 0.5 1. 0
Li3 Li1+ 4 b 0.625 0.625 0.625 1. 1. 0
O1 O2- 8 c 0.375 0.375 0.375 2. 1. 0
O2 O2- 24 e 0.125 0.125 0.875 2. 1. 0
#End of TTdata_41039-ICSD