
#(C) 2018 by FIZ Karlsruhe - Leibniz Institute for Information Infrastructure.  All rights reserved.
data_410714-ICSD
_database_code_ICSD 410714
_audit_creation_date 1999-11-30
_audit_update_record 2009-02-01
_chemical_name_systematic 'Tetralithium selenate(VI)'
_chemical_formula_structural 'Li4 (Se O5)'
_chemical_formula_sum 'Li4 O5 Se1'
_chemical_name_structure_type Li4SeO5
_exptl_crystal_density_diffrn 3.2
_publ_section_title

;
Li4 Se O5, das erste Orthoselenat kristallisiert als Ordnungsvariante eines
theoretisch vorhergesagten A(5)B(5) Strukturtyps
;
loop_
_citation_id
_citation_journal_full
_citation_year
_citation_journal_volume
_citation_page_first
_citation_page_last
_citation_journal_id_ASTM
primary 'Angewandte Chemie, International Edition' 1999 38 1910 1911 ACIEF5
loop_
_publ_author_name
'Haas, H.'
'Jansen, M.'
_cell_length_a 8.7329(18)
_cell_length_b 5.7249(10)
_cell_length_c 7.8357(10)
_cell_angle_alpha 90.
_cell_angle_beta 98.29
_cell_angle_gamma 90.
_cell_volume 387.65
_cell_formula_units_Z 4
_symmetry_space_group_name_H-M 'C 1 2/c 1'
_symmetry_Int_Tables_number 15
loop_
_symmetry_equiv_pos_site_id
_symmetry_equiv_pos_as_xyz
1 'x, -y, z+1/2'
2 '-x, -y, -z'
3 '-x, y, -z+1/2'
4 'x, y, z'
5 'x+1/2, -y+1/2, z+1/2'
6 '-x+1/2, -y+1/2, -z'
7 '-x+1/2, y+1/2, -z+1/2'
8 'x+1/2, y+1/2, z'
loop_
_atom_type_symbol
_atom_type_oxidation_number
Se6+ 6
Li1+ 1
O2- -2
loop_
_atom_site_label
_atom_site_type_symbol
_atom_site_symmetry_multiplicity
_atom_site_Wyckoff_symbol
_atom_site_fract_x
_atom_site_fract_y
_atom_site_fract_z
_atom_site_B_iso_or_equiv
_atom_site_occupancy
_atom_site_attached_hydrogens
Se1 Se6+ 4 e 0 0.1719(1) 0.25 0.004 1. 0
Li1 Li1+ 8 f 0.3924(4) 0.1752(9) 0.0555(6) 0.012 1. 0
Li2 Li1+ 8 f 0.2997(5) 0.3356(9) 0.3544(5) 0.011 1. 0
O1 O2- 4 e 0.5 0.3715(4) 0.25 0.015 1. 0
O2 O2- 8 f 0.0886(2) 0.3228(3) 0.4245(2) 0.01 1. 0
O3 O2- 8 f 0.1774(2) 0.1712(3) 0.1594(2) 0.008 1. 0
#End of TTdata_410714-ICSD