
#(C) 2019 by FIZ Karlsruhe - Leibniz Institute for Information Infrastructure.  All rights reserved.
data_411061-ICSD
_database_code_ICSD 411061
_audit_creation_date 2002-04-01
_chemical_name_systematic
'Nonasodium bis(hexahydroxochromate(III)) trihydroxide hexahydrate'
_chemical_formula_structural 'Na9 (Cr (O H)6)2 (O H)3 (H2 O)6'
_chemical_formula_sum 'H27 Cr2 Na9 O21'
_chemical_name_structure_type Na9(Al(OH)6)2(OH)3(H2O)6
_exptl_crystal_density_diffrn 2.12
_publ_section_title

;
Ueber die komplexen Hydroxide des Chroms: Na9 (Cr (O H)6)2 (O H)3 . 6(H2 O)
und Na4 (Cr (O H)6) X . H2 O (X=Cl, (S2)1/2) - Synthese, Kristallstruktur und
thermisches Verhalten
;
loop_
_citation_id
_citation_journal_full
_citation_year
_citation_journal_volume
_citation_page_first
_citation_page_last
_citation_journal_id_ASTM
primary 'Zeitschrift fuer Anorganische und Allgemeine Chemie (1950) (DE)' 2000
626 1004 1011 ZAACAB
loop_
_publ_author_name
'Hinz, D.'
_cell_length_a 8.7293(11)
_cell_length_b 11.4195(14)
_cell_length_c 11.6595(14)
_cell_angle_alpha 74.269(12)
_cell_angle_beta 87.539(13)
_cell_angle_gamma 70.692(12)
_cell_volume 1054.42
_cell_formula_units_Z 2
_symmetry_space_group_name_H-M 'P -1'
_symmetry_Int_Tables_number 2
_refine_ls_R_factor_all 0.0834
loop_
_symmetry_equiv_pos_site_id
_symmetry_equiv_pos_as_xyz
1 '-x, -y, -z'
2 'x, y, z'
loop_
_atom_type_symbol
_atom_type_oxidation_number
Cr3+ 3
Na1+ 1
O2- -2
H1+ 1
loop_
_atom_site_label
_atom_site_type_symbol
_atom_site_symmetry_multiplicity
_atom_site_Wyckoff_symbol
_atom_site_fract_x
_atom_site_fract_y
_atom_site_fract_z
_atom_site_B_iso_or_equiv
_atom_site_occupancy
_atom_site_attached_hydrogens
Cr1 Cr3+ 2 i 0.40797(8) 0.27380(6) 0.12537(5) . 1. 0
Cr2 Cr3+ 2 i 0.40113(8) 0.27589(6) 0.62291(5) . 1. 0
Na1 Na1+ 2 i 0.4153(2) 0.03204(15) 0.36268(13) . 1. 0
Na2 Na1+ 2 i 0.6097(2) 0.22448(17) 0.37900(13) . 1. 0
Na3 Na1+ 2 i 0.2038(2) 0.32270(16) 0.36913(13) . 1. 0
Na4 Na1+ 2 i 0.4239(2) 0.50990(16) 0.37168(12) . 1. 0
Na5 Na1+ 2 i 0.4029(2) 0.03338(16) 0.86743(13) . 1. 0
Na6 Na1+ 2 i 0.5936(2) 0.22251(17) 0.88000(12) . 1. 0
Na7 Na1+ 2 i 0.2003(2) 0.31815(16) 0.86929(12) . 1. 0
Na8 Na1+ 2 i 0.4008(2) 0.51554(15) 0.88005(12) . 1. 0
Na9 Na1+ 2 i 0.00267(18) 0.39863(15) 0.62154(11) . 1. 0
O1 O2- 2 i 0.2489(3) 0.2096(3) 0.2262(2) . 1. 0
O2 O2- 2 i 0.5835(3) 0.1284(3) 0.2314(2) . 1. 0
O3 O2- 2 i 0.5698(3) 0.3343(3) 0.0219(2) . 1. 0
O4 O2- 2 i 0.2333(3) 0.4259(3) 0.0224(2) . 1. 0
O5 O2- 2 i 0.4077(3) 0.3879(3) 0.2318(2) . 1. 0
O6 O2- 2 i 0.3978(3) 0.1623(3) 0.0169(2) . 1. 0
O7 O2- 2 i 0.2285(3) 0.2198(3) 0.7192(2) . 1. 0
O8 O2- 2 i 0.5641(3) 0.1296(3) 0.7341(2) . 1. 0
O9 O2- 2 i 0.5718(3) 0.3330(3) 0.5285(2) . 1. 0
O10 O2- 2 i 0.2320(3) 0.4309(2) 0.51018(19) . 1. 0
O11 O2- 2 i 0.3957(3) 0.3866(3) 0.7333(2) . 1. 0
O12 O2- 2 i 0.3992(3) 0.1659(3) 0.5134(2) . 1. 0
O13 O2- 2 i 0.9364(5) 0.1320(3) 0.1291(3) . 1. 0
O14 O2- 2 i 0.9049(4) 0.1174(3) 0.6685(3) . 1. 0
O15 O2- 2 i 0.9706(3) 0.4758(3) 0.2537(2) . 1. 0
O16 O2- 2 i 0.8010(4) 0.0273(3) 0.0044(3) . 1. 0
O17 O2- 2 i 0.8096(4) 0.3241(3) 0.2706(3) . 1. 0
O18 O2- 2 i 0.9902(4) 0.2655(4) 0.4886(3) . 1. 0
O19 O2- 2 i 0.7969(4) 0.0276(3) 0.5124(3) . 1. 0
O20 O2- 2 i 0.8037(4) 0.3170(3) 0.7575(2) . 1. 0
O21 O2- 2 i 0.9539(3) 0.3269(3) 0.9649(2) . 1. 0
H1 H1+ 2 i 0.1722 0.2071 0.1792 0.025(11) 1. 0
H2 H1+ 2 i 0.6879 0.1283 0.2064 0.039(13) 1. 0
H3 H1+ 2 i 0.6687 0.2792 0.0504 0.031(13) 1. 0
H4 H1+ 2 i 0.1374 0.4164 0.028 0.029(12) 1. 0
H5 H1+ 2 i 0.3336 0.4553 0.2022 0.035(14) 1. 0
H6 H1+ 2 i 0.3285 0.1239 0.0527 0.005(8) 1. 0
H7 H1+ 2 i 0.197 0.1638 0.6988 0.028(12) 1. 0
H8 H1+ 2 i 0.6674 0.1259 0.7082 0.036(13) 1. 0
H9 H1+ 2 i 0.6675 0.2828 0.5564 0.021(12) 1. 0
H10 H1+ 2 i 0.2189 0.4992 0.5408 0.048(14) 1. 0
H11 H1+ 2 i 0.3174 0.4576 0.7066 0.036(14) 1. 0
H12 H1+ 2 i 0.2796 0.1784 0.5231 0.082(20) 1. 0
H13 H1+ 2 i 0.0005 0.1054 0.1822 0.083(25) 1. 0
H14 H1+ 2 i 0.0158 0.077 0.6824 0.050(16) 1. 0
H15 H1+ 2 i 0.0268 0.4574 0.1958 0.046(14) 1. 0
H16 H1+ 2 i 0.8854 0.9799 0.9725 0.047(14) 1. 0
H17 H1+ 2 i 0.8754 0.0401 0.0505 0.043(15) 1. 0
H18 H1+ 2 i 0.8375 0.2805 0.2237 0.046(17) 1. 0
H19 H1+ 2 i 0.8714 0.3848 0.2556 0.066(17) 1. 0
H20 H1+ 2 i 0.9366 0.2071 0.5448 0.058(16) 1. 0
H21 H1+ 2 i 0.932 0.2647 0.4251 0.058(16) 1. 0
H22 H1+ 2 i 0.8766 0.9544 0.5124 0.070(19) 1. 0
H23 H1+ 2 i 0.8631 0.0437 0.5581 0.077(23) 1. 0
H24 H1+ 2 i 0.8786 0.3023 0.8168 0.032(12) 1. 0
H25 H1+ 2 i 0.8711 0.2533 0.7357 0.032(13) 1. 0
H26 H1+ 2 i 0.8924 0.4062 0.9781 0.065(17) 1. 0
H27 H1+ 2 i 0.9327 0.2631 0.0208 0.112(27) 1. 0
loop_
_atom_site_aniso_label
_atom_site_aniso_type_symbol
_atom_site_aniso_U_11
_atom_site_aniso_U_22
_atom_site_aniso_U_33
_atom_site_aniso_U_12
_atom_site_aniso_U_13
_atom_site_aniso_U_23
Cr1 Cr3+ 0.0114(3) 0.0086(3) 0.0073(3) -.0039(2) 0.0000(2) -.0024(2)
Cr2 Cr3+ 0.0095(3) 0.0084(3) 0.0065(3) -.0028(2) 0.0001(2) -.0019(2)
Na1 Na1+ 0.0256(10) 0.0119(9) 0.0166(7) -.0047(7) 0.0016(7) -.0029(6)
Na2 Na1+ 0.0226(10) 0.0199(9) 0.0181(7) -.0063(7) 0.0000(7) -.0103(7)
Na3 Na1+ 0.0167(9) 0.0198(9) 0.0159(7) -.0024(7) -.0011(6) -.0079(6)
Na4 Na1+ 0.0233(9) 0.0163(9) 0.0136(7) -.0101(7) -.0004(6) -.0037(6)
Na5 Na1+ 0.0217(9) 0.0128(9) 0.0168(7) -.0046(7) 0.0009(6) -.0037(6)
Na6 Na1+ 0.0211(9) 0.0194(9) 0.0156(7) -.0069(7) -.0003(6) -.0080(6)
Na7 Na1+ 0.0167(9) 0.0205(9) 0.0138(7) -.0029(7) 0.0007(6) -.0063(6)
Na8 Na1+ 0.0230(9) 0.0160(9) 0.0152(7) -.0099(7) 0.0003(6) -.0040(6)
Na9 Na1+ 0.0158(8) 0.0242(8) 0.0176(6) -.0042(6) 0.0008(5) -.0036(6)
O1 O2- 0.0170(15) 0.0169(15) 0.0122(12) -.0063(11) 0.0018(11) -.0031(10)
O2 O2- 0.0155(15) 0.0103(15) 0.0137(12) -.0031(11) -.0019(11) -.0033(10)
O3 O2- 0.0148(16) 0.0137(15) 0.0114(11) -.0059(12) 0.0011(11) -.0032(10)
O4 O2- 0.0166(17) 0.0173(16) 0.0158(13) -.0059(13) -.0044(11) -.0016(11)
O5 O2- 0.0162(16) 0.0123(16) 0.0138(12) -.0034(13) -.0010(11) -.0068(11)
O6 O2- 0.0177(15) 0.0103(15) 0.0100(12) -.0074(12) 0.0027(11) -.0039(10)
O7 O2- 0.0130(14) 0.0144(14) 0.0136(12) -.0078(11) 0.0031(10) -.0042(10)
O8 O2- 0.0120(15) 0.0121(15) 0.0124(12) -.0027(11) -.0012(10) -.0019(10)
O9 O2- 0.0116(15) 0.0143(15) 0.0147(12) -.0040(12) 0.0008(11) -.0053(11)
O10 O2- 0.0152(15) 0.0079(14) 0.0100(11) -.0011(11) -.0004(10) -.0012(10)
O11 O2- 0.0147(15) 0.0095(15) 0.0115(12) -.0040(12) -.0005(11) -.0043(11)
O12 O2- 0.0129(15) 0.0135(16) 0.0138(12) -.0045(12) -.0007(11) -.0063(11)
O13 O2- 0.063(2) 0.0309(18) 0.0334(16) -.0219(17) -.0056(17) -.0014(14)
O14 O2- 0.049(2) 0.0366(19) 0.0356(16) -.0189(16) -.0119(15) 0.0001(14)
O15 O2- 0.0285(18) 0.0181(16) 0.0220(12) 0.0004(11) -.0058(12) -.0051(11)
O16 O2- 0.0173(18) 0.041(2) 0.0400(17) -.0092(16) 0.0050(15) -.0139(16)
O17 O2- 0.0236(19) 0.040(2) 0.0304(16) -.0123(15) 0.0011(14) -.0046(15)
O18 O2- 0.051(2) 0.080(3) 0.0279(16) -.048(2) 0.0070(16) -.0158(17)
O19 O2- 0.0214(18) 0.029(2) 0.0407(17) -.0062(16) 0.0012(15) -.0070(15)
O20 O2- 0.0230(18) 0.0354(19) 0.0223(14) -.0080(15) -.0023(13) -.0041(13)
O21 O2- 0.0262(16) 0.0240(16) 0.0278(14) -.0060(13) 0.0107(12) -.0049(12)
#End of TTdata_411061-ICSD