
#(C) 2018 by FIZ Karlsruhe - Leibniz Institute for Information Infrastructure.  All rights reserved.
data_411152-ICSD
_database_code_ICSD 411152
_audit_creation_date 2000-07-15
_audit_update_record 2010-08-01
_chemical_name_systematic 'Lithium nickel nitride (5/3/3)'
_chemical_formula_structural 'Li5 Ni3 N3'
_chemical_formula_sum 'Li5 N3 Ni3'
_chemical_name_structure_type Li5Ni3N3
_exptl_crystal_density_diffrn 3.25
_publ_section_title

;
Novel layered lithium nitridonickelates; effect of Li vacancy concentration on
N coordination geometry and Ni oxidation state
;
loop_
_citation_id
_citation_journal_full
_citation_year
_citation_journal_volume
_citation_page_first
_citation_page_last
_citation_journal_id_ASTM
primary 'Chemical Communications (Cambridge, United Kingdom)' 1999 1999 1187
1188 CHCOFS
loop_
_publ_author_name
'Barker, M.G.'
'Blake, A.J.'
'Edwards, P.P.'
'Gregory, D.H.'
'Hamor, T.A.'
'Siddons, D.J.'
'Smith, S.E.'
_cell_length_a 6.475(3)
_cell_length_b 6.475(3)
_cell_length_c 3.555(2)
_cell_angle_alpha 90.
_cell_angle_beta 90.
_cell_angle_gamma 120.
_cell_volume 129.08
_cell_formula_units_Z 1
_symmetry_space_group_name_H-M 'P -6 2 m'
_symmetry_Int_Tables_number 189
_refine_ls_R_factor_all 0.0351
loop_
_symmetry_equiv_pos_site_id
_symmetry_equiv_pos_as_xyz
1 '-x, -x+y, -z'
2 'x-y, -y, -z'
3 'y, x, -z'
4 '-x, -x+y, z'
5 'x-y, -y, z'
6 'y, x, z'
7 '-x+y, -x, -z'
8 '-y, x-y, -z'
9 'x, y, -z'
10 '-x+y, -x, z'
11 '-y, x-y, z'
12 'x, y, z'
loop_
_atom_type_symbol
_atom_type_oxidation_number
Ni1+ 1.33
N3- -3
Li1+ 1
loop_
_atom_site_label
_atom_site_type_symbol
_atom_site_symmetry_multiplicity
_atom_site_Wyckoff_symbol
_atom_site_fract_x
_atom_site_fract_y
_atom_site_fract_z
_atom_site_B_iso_or_equiv
_atom_site_occupancy
_atom_site_attached_hydrogens
Ni1 Ni1+ 3 f 0.6443(2) 0 0 . 1. 0
N1 N3- 3 g 0.6463(9) 0 0.5 . 1. 0
Li1 Li1+ 3 g 0.2719(59) 0 0.5 . 1. 0
Li2 Li1+ 2 d 0.3333 0.6667 0.5 . 1. 0
loop_
_atom_site_aniso_label
_atom_site_aniso_type_symbol
_atom_site_aniso_U_11
_atom_site_aniso_U_22
_atom_site_aniso_U_33
_atom_site_aniso_U_12
_atom_site_aniso_U_13
_atom_site_aniso_U_23
Ni1 Ni1+ 0.0243(8) 0.0137(8) 0.014(1) 0.0069(4) 0 0
N1 N3- 0.023(2) 0.010(3) 0.019(4) 0.0051(14) 0 0
Li1 Li1+ 0.044(12) 0.01(1) 0.058(19) 0.005(5) 0 0
Li2 Li1+ 0.005(7) 0.005(7) 0.027(14) 0.002(4) 0 0
#End of TTdata_411152-ICSD