
#(C) 2018 by FIZ Karlsruhe - Leibniz Institute for Information Infrastructure.  All rights reserved.
data_411203-ICSD
_database_code_ICSD 411203
_audit_creation_date 2002-04-01
_chemical_name_systematic 'Calcium lithium manganese(I) nitride (1/2.12/1.88/2)'
_chemical_formula_structural 'Ca (Li2 (Li0.12 Mn1.88) N2)'
_chemical_formula_sum 'Ca1 Li2.12 Mn1.88 N2'
_exptl_crystal_density_diffrn 3.26
_publ_section_title

;
Ca (Li2 (Mn(+I) N)2): Kristallchemischer Brueckenschlag zwischen
Lithium-Nitrido-Verbindungen und Borid-Carbiden des Typs M (B2 C2)
;
loop_
_citation_id
_citation_journal_full
_citation_year
_citation_journal_volume
_citation_page_first
_citation_page_last
_citation_journal_id_ASTM
primary 'Zeitschrift fuer Naturforschung, B: Chemical Sciences' 2000 55 988 991
ZNBSEN
loop_
_publ_author_name
'Klatyk, J.'
'Niewa, R.'
'Kniep, R.'
_cell_length_a 7.0335(7)
_cell_length_b 7.0335(7)
_cell_length_c 3.8319(6)
_cell_angle_alpha 90.
_cell_angle_beta 90.
_cell_angle_gamma 90.
_cell_volume 189.56
_cell_formula_units_Z 2
_symmetry_space_group_name_H-M 'P 4/m b m'
_symmetry_Int_Tables_number 127
_refine_ls_R_factor_all 0.0408
loop_
_symmetry_equiv_pos_site_id
_symmetry_equiv_pos_as_xyz
1 'y+1/2, x+1/2, -z'
2 '-y+1/2, -x+1/2, -z'
3 '-y, x, -z'
4 'y, -x, -z'
5 'x+1/2, -y+1/2, -z'
6 '-x+1/2, y+1/2, -z'
7 'x, y, -z'
8 '-x, -y, -z'
9 '-y+1/2, -x+1/2, z'
10 'y+1/2, x+1/2, z'
11 'y, -x, z'
12 '-y, x, z'
13 '-x+1/2, y+1/2, z'
14 'x+1/2, -y+1/2, z'
15 '-x, -y, z'
16 'x, y, z'
loop_
_atom_type_symbol
_atom_type_oxidation_number
Mn1+ 1
Li1+ 1
Ca2+ 2
N3- -3
Li1+ 1
loop_
_atom_site_label
_atom_site_type_symbol
_atom_site_symmetry_multiplicity
_atom_site_Wyckoff_symbol
_atom_site_fract_x
_atom_site_fract_y
_atom_site_fract_z
_atom_site_B_iso_or_equiv
_atom_site_occupancy
_atom_site_attached_hydrogens
Mn1 Mn1+ 4 h 0.17584(10) 0.67584(10) 0.5 . 0.941(7) 0
Li1 Li1+ 4 h 0.17584(10) 0.67584(10) 0.5 . 0.06 0
Ca1 Ca2+ 2 a 0 0 0 . 1. 0
N1 N3- 4 g 0.1770(5) 0.6770(5) 0 . 1. 0
Li2 Li1+ 4 g 0.6157(10) 0.1157(10) 0 . 1. 0
loop_
_atom_site_aniso_label
_atom_site_aniso_type_symbol
_atom_site_aniso_U_11
_atom_site_aniso_U_22
_atom_site_aniso_U_33
_atom_site_aniso_U_12
_atom_site_aniso_U_13
_atom_site_aniso_U_23
Mn1 Mn1+ 0.0115(4) 0.0115(4) 0.0049(5) 0.0014(4) 0 0
Li1 Li1+ 0.0115(4) 0.0115(4) 0.0049(5) 0.0014(4) 0 0
Ca1 Ca2+ 0.0088(6) 0.0088(6) 0.0098(8) 0 0 0
N1 N3- 0.0095(14) 0.0095(14) 0.0047(19) 0.001(2) 0 0
Li2 Li1+ 0.010(3) 0.010(3) 0.018(6) -.001(4) 0 0
#End of TTdata_411203-ICSD