
#(C) 2019 by FIZ Karlsruhe - Leibniz Institute for Information Infrastructure.  All rights reserved.
data_411263-ICSD
_database_code_ICSD 411263
_audit_creation_date 2002-04-01
_audit_update_record 2003-04-01
_chemical_name_systematic 'Pentasodium dititanium dioxide disilicate vanadate'
_chemical_formula_structural 'Na5 Ti2 O2 (Si2 O7) (V O4)'
_chemical_formula_sum 'Na5 O13 Si2 Ti2 V1'
_chemical_name_mineral Lomonosovite
_exptl_crystal_density_diffrn 3.18
_cell_measurement_temperature 295.
_publ_section_title

;
Crystal structure of a new vanadium variety in the lomonosovite group: Na5 Ti2
O2 (Si2 O7) (V O4)
;
loop_
_citation_id
_citation_journal_full
_citation_year
_citation_journal_volume
_citation_page_first
_citation_page_last
_citation_journal_id_ASTM
primary 'Solid State Sciences' 2000 2 615 623 SSSCFJ
loop_
_publ_author_name
'Massa, W.'
'Yakubovich, O.V.'
'Kireev, V.V.'
'Mel'nikov, O.K. (Melnikov, O.K.)'
_cell_length_a 5.309(1)
_cell_length_b 7.133(1)
_cell_length_c 14.746(2)
_cell_angle_alpha 99.05(1)
_cell_angle_beta 95.97(1)
_cell_angle_gamma 90.08(1)
_cell_volume 548.39
_cell_formula_units_Z 2
_symmetry_space_group_name_H-M 'P 1'
_symmetry_Int_Tables_number 1
_refine_ls_R_factor_all 0.0315
loop_
_symmetry_equiv_pos_site_id
_symmetry_equiv_pos_as_xyz
1 'x, y, z'
loop_
_atom_type_symbol
_atom_type_oxidation_number
Ti4+ 4
Si4+ 4
V5+ 5
Na1+ 1
O2- -2
loop_
_atom_site_label
_atom_site_type_symbol
_atom_site_symmetry_multiplicity
_atom_site_Wyckoff_symbol
_atom_site_fract_x
_atom_site_fract_y
_atom_site_fract_z
_atom_site_B_iso_or_equiv
_atom_site_occupancy
_atom_site_attached_hydrogens
Ti1 Ti4+ 1 a 0.33536(11) 0.07932(9) 0.78378(4) . 1. 0
Ti2 Ti4+ 1 a 0.27677(11) 0.38212(9) 0.99149(4) . 1. 0
Ti3 Ti4+ 1 a 0.66115(10) 0.91906(9) 0.21761(4) . 1. 0
Ti4 Ti4+ 1 a 0.71933(10) 0.61566(8) 0.01030(4) . 1. 0
Si1 Si4+ 1 a 0.14718(17) 0.63170(14) 0.19234(7) . 1. 0
Si2 Si4+ 1 a 0.83668(17) 0.80179(14) 0.82850(7) . 1. 0
Si3 Si4+ 1 a -.14721(17) 0.36704(14) 0.80932(7) . 1. 0
Si4 Si4+ 1 a 0.14952(17) 0.19724(14) 1.17319(7) . 1. 0
V1 V5+ 1 a 0.34925(12) -.22357(9) 0.57309(5) . 0.9470(14) 0
V2 V5+ 1 a 0.193(2) -.2218(18) 0.5743(9) . 0.0530(14) 0
V3 V5+ 1 a 0.80211(12) 0.22248(10) 0.42878(5) . 0.9470(14) 0
V4 V5+ 1 a 0.645(2) 0.2237(18) 0.4309(8) . 0.0530(14) 0
Na1 Na1+ 1 a 0.6642(3) 0.4153(3) 1.22757(13) . 1. 0
Na2 Na1+ 1 a -.2595(4) 0.1159(3) 1.00570(17) . 1. 0
Na3 Na1+ 1 a 0.3208(4) 0.2566(3) 0.58226(14) . 1. 0
Na4 Na1+ 1 a 0.8409(4) 0.5253(3) 0.61668(13) . 1. 0
Na5 Na1+ 1 a 0.8295(3) 0.0381(3) 0.65253(12) . 1. 0
Na6 Na1+ 1 a 0.3363(3) 0.5811(3) 0.77381(13) . 1. 0
Na7 Na1+ 1 a 0.2545(3) 0.8820(3) 0.99666(17) . 1. 0
Na8 Na1+ 1 a 0.7787(4) 0.7416(3) 0.41838(14) . 1. 0
Na9 Na1+ 1 a 0.2706(4) 0.4730(3) 0.38475(13) . 1. 0
Na10 Na1+ 1 a 0.2386(3) 0.9608(3) 0.34959(13) . 1. 0
O1 O2- 1 a 0.5755(5) -.1117(5) 0.7926(2) . 1. 0
O2 O2- 1 a 0.0721(6) -.0978(4) 0.7973(2) . 1. 0
O3 O2- 1 a 0.5969(5) 0.2578(4) 0.7642(2) . 1. 0
O4 O2- 1 a 0.0854(5) 0.2728(4) 0.7581(2) . 1. 0
O5 O2- 1 a 0.6975(6) 0.4178(4) 1.3860(2) . 1. 0
O6 O2- 1 a 0.2801(5) -.0103(4) 0.6463(2) . 1. 0
O7 O2- 1 a -.1703(6) 0.5791(4) 0.7766(2) . 1. 0
O8 O2- 1 a -.0889(5) 0.3993(4) 0.92184(18) . 1. 0
O9 O2- 1 a 1.2074(6) -.2308(4) 0.4643(2) . 1. 0
O10 O2- 1 a 0.7243(6) 0.2300(4) 0.5376(2) . 1. 0
O11 O2- 1 a 0.1394(5) 0.1965(4) 1.06384(18) . 1. 0
O12 O2- 1 a 0.6596(5) -.2267(4) 0.5659(2) . 1. 0
O13 O2- 1 a 0.1169(5) 0.2257(4) 0.4357(2) . 1. 0
O14 O2- 1 a 0.3649(5) 0.1756(4) 0.91198(17) . 1. 0
O15 O2- 1 a 0.4187(5) 0.5767(4) 0.93381(18) . 1. 0
O16 O2- 1 a 0.3968(5) 0.0998(5) 0.2107(2) . 1. 0
O17 O2- 1 a 0.9000(5) 0.1076(5) 0.2008(2) . 1. 0
O18 O2- 1 a 0.4130(5) 0.7286(4) 0.23630(19) . 1. 0
O19 O2- 1 a 0.9235(5) 0.7369(4) 0.24424(19) . 1. 0
O20 O2- 1 a 0.2679(6) 0.5791(4) 0.6159(2) . 1. 0
O21 O2- 1 a 0.6923(5) 1.0090(4) 0.35581(19) . 1. 0
O22 O2- 1 a 0.1609(5) 0.4196(4) 0.2255(2) . 1. 0
O23 O2- 1 a 0.0852(4) 0.6003(4) 0.07979(17) . 1. 0
O24 O2- 1 a 0.8571(5) 0.8021(4) 0.93835(18) . 1. 0
O25 O2- 1 a 0.6301(5) 0.8227(4) 0.09062(19) . 1. 0
O26 O2- 1 a 0.5780(4) 0.4207(4) 0.06745(18) . 1. 0
loop_
_atom_site_aniso_label
_atom_site_aniso_type_symbol
_atom_site_aniso_U_11
_atom_site_aniso_U_22
_atom_site_aniso_U_33
_atom_site_aniso_U_12
_atom_site_aniso_U_13
_atom_site_aniso_U_23
Ti1 Ti4+ 0.0043(3) 0.0048(3) 0.0076(3) 0.0009(2) 0.00147(19) 0.0006(2)
Ti2 Ti4+ 0.0058(3) 0.0066(3) 0.0070(3) 0.0011(2) 0.0017(2) 0.0006(2)
Ti3 Ti4+ 0.0042(3) 0.0052(3) 0.0080(3) 0.0007(2) 0.00098(19) 0.0010(2)
Ti4 Ti4+ 0.0046(3) 0.0063(3) 0.0076(3) 0.0010(2) 0.0012(2) 0.0011(2)
Si1 Si4+ 0.0043(4) 0.0040(5) 0.0065(4) -0.0001(3) 0.0006(3) 0.0002(3)
Si2 Si4+ 0.0050(4) 0.0034(5) 0.0060(4) 0.0004(3) 0.0016(3) -0.0001(3)
Si3 Si4+ 0.0037(4) 0.0035(4) 0.0061(4) 0.0012(3) 0.0003(3) 0.0002(3)
Si4 Si4+ 0.0052(4) 0.0036(5) 0.0066(4) 0.0016(3) 0.0012(3) 0.0012(3)
V1 V5+ 0.0079(3) 0.0060(3) 0.0066(3) 0.0008(2) 0.00118(19) -0.0003(2)
V2 V5+ 0.0079(3) 0.0060(3) 0.0066(3) 0.0008(2) 0.00118(19) -0.0003(2)
V3 V5+ 0.0080(3) 0.0056(3) 0.0069(3) 0.0006(2) 0.00109(19) -0.0007(2)
V4 V5+ 0.0080(3) 0.0056(3) 0.0069(3) 0.0006(2) 0.00109(19) -0.0007(2)
Na1 Na1+ 0.0121(7) 0.0185(10) 0.0131(9) 0.0013(6) 0.0011(6) 0.0025(7)
Na2 Na1+ 0.0128(8) 0.0130(9) 0.0338(11) 0.0038(7) -0.0051(7) -0.0060(8)
Na3 Na1+ 0.0295(9) 0.0119(8) 0.0231(9) 0.0011(7) 0.0061(7) 0.0055(7)
Na4 Na1+ 0.0283(9) 0.0147(9) 0.0158(9) 0.0000(7) 0.0021(6) -0.0004(6)
Na5 Na1+ 0.0214(8) 0.0133(8) 0.0155(9) -0.0005(6) -0.0020(6) -0.0006(6)
Na6 Na1+ 0.0132(7) 0.0189(10) 0.0118(9) -0.0018(6) 0.0007(6) 0.0033(7)
Na7 Na1+ 0.0096(8) 0.0164(9) 0.0366(12) 0.0045(7) -0.0038(7) -0.0066(8)
Na8 Na1+ 0.0266(9) 0.0121(8) 0.0205(9) 0.0022(7) 0.0007(7) 0.0043(7)
Na9 Na1+ 0.0279(9) 0.0157(9) 0.0165(9) 0.0017(7) 0.0039(7) 0.0007(7)
Na10 Na1+ 0.0221(8) 0.0136(8) 0.0167(9) 0.0016(7) 0.0058(6) -0.0001(6)
O1 O2- 0.0154(13) 0.0144(15) 0.0142(14) 0.0113(11) -0.0019(10) 0.0002(11)
O2 O2- 0.0175(13) 0.0174(17) 0.0151(14) -0.0119(12) 0.0054(10) -0.0010(11)
O3 O2- 0.0078(11) 0.0138(15) 0.0122(13) -0.0065(10) 0.0014(9) 0.0006(10)
O4 O2- 0.0088(12) 0.0129(14) 0.0095(12) 0.0056(10) 0.0017(9) -0.0009(10)
O5 O2- 0.0244(14) 0.0064(14) 0.0125(13) 0.0032(11) 0.0011(10) 0.0001(10)
O6 O2- 0.0106(11) 0.0089(14) 0.0090(12) 0.0028(10) 0.0031(9) 0.0002(10)
O7 O2- 0.0173(13) 0.0055(13) 0.0095(13) 0.0032(10) 0.0006(9) 0.0019(10)
O8 O2- 0.0080(12) 0.0066(13) 0.0073(12) 0.0032(10) 0.0012(8) 0.0001(9)
O9 O2- 0.0237(14) 0.0126(14) 0.0129(13) 0.0003(11) -0.0027(10) 0.0017(10)
O10 O2- 0.0263(14) 0.0150(14) 0.0081(12) 0.0022(12) 0.0042(10) 0.002(1)
O11 O2- 0.0094(12) 0.0069(13) 0.0095(12) -0.0002(9) 0.0026(9) 0.0020(9)
O12 O2- 0.0108(11) 0.0161(13) 0.0217(14) 0.0007(10) 0.0042(9) -0.0022(10)
O13 O2- 0.0130(11) 0.0175(14) 0.0198(14) 0.0000(11) 0.0023(10) -0.0043(10)
O14 O2- 0.0094(12) 0.0087(14) 0.0047(12) 0.0026(10) 0.0012(8) -0.0015(9)
O15 O2- 0.0072(11) 0.0082(13) 0.0064(12) -0.0009(9) -0.0015(8) 0.0008(9)
O16 O2- 0.0148(13) 0.0179(16) 0.0145(14) 0.0108(11) 0.0003(10) 0.0023(11)
O17 O2- 0.0164(13) 0.0147(15) 0.0158(14) -0.0086(11) 0.0067(10) -0.0003(11)
O18 O2- 0.0072(12) 0.0115(14) 0.0116(13) -0.004(1) 0.0024(9) -0.0016(10)
O19 O2- 0.0081(11) 0.0145(14) 0.0083(12) 0.0055(10) 0.0029(8) 0.0013(10)
O20 O2- 0.0224(14) 0.0103(15) 0.0121(13) -0.0009(11) 0.0036(10) 0.0025(10)
O21 O2- 0.0120(12) 0.0069(13) 0.0062(11) 0.0005(10) -0.0011(8) -0.0015(9)
O22 O2- 0.0164(13) 0.0035(13) 0.0061(12) 0.0006(10) 0.0020(9) -0.0002(9)
O23 O2- 0.0049(11) 0.0102(13) 0.0047(11) 0.0005(9) -0.0002(8) -0.0007(9)
O24 O2- 0.0084(11) 0.0076(13) 0.0062(11) -0.0006(9) 0.0012(8) 0.0004(9)
O25 O2- 0.0083(12) 0.0080(14) 0.0092(13) 0.0022(10) 0.0023(9) -0.0013(10)
O26 O2- 0.0067(11) 0.0077(13) 0.0084(12) 0.0011(9) 0.0014(8) 0.0047(9)
#End of TTdata_411263-ICSD