
#(C) 2018 by FIZ Karlsruhe - Leibniz Institute for Information Infrastructure.  All rights reserved.
data_411256-ICSD
_database_code_ICSD 411256
_audit_creation_date 2002-04-01
_chemical_name_systematic 'Lithium pentahydrogen tellurate'
_chemical_formula_structural 'Li H5 (Te O6)'
_chemical_formula_sum 'H5 Li1 O6 Te1'
_chemical_name_structure_type FeGe(OH)6
_exptl_crystal_density_diffrn 3.58
_publ_section_title 'A New Lithium Hydrogen Tellurate-LiH5TeO6'
loop_
_citation_id
_citation_journal_full
_citation_year
_citation_journal_volume
_citation_page_first
_citation_page_last
_citation_journal_id_ASTM
primary 'Journal of Solid State Chemistry' 2000 150 410 415 JSSCBI
loop_
_publ_author_name
'Vanek, L.'
'Nemec, I.'
'Cisarova, I.'
'Micka, Z.'
'Fajnor, V.'
_cell_length_a 7.6350(6)
_cell_length_b 7.6350(6)
_cell_length_c 7.5014(9)
_cell_angle_alpha 90.
_cell_angle_beta 90.
_cell_angle_gamma 90.
_cell_volume 437.28
_cell_formula_units_Z 4
_symmetry_space_group_name_H-M 'P 42/n Z'
_symmetry_Int_Tables_number 86
_refine_ls_R_factor_all 0.0218
loop_
_symmetry_equiv_pos_site_id
_symmetry_equiv_pos_as_xyz
1 '-y+1/2, x, -z+1/2'
2 'y, -x+1/2, -z+1/2'
3 'x+1/2, y+1/2, -z'
4 '-x, -y, -z'
5 'y+1/2, -x, z+1/2'
6 '-y, x+1/2, z+1/2'
7 '-x+1/2, -y+1/2, z'
8 'x, y, z'
loop_
_atom_type_symbol
_atom_type_oxidation_number
Te6+ 6
Li1+ 1
O2- -2
H1+ 1
loop_
_atom_site_label
_atom_site_type_symbol
_atom_site_symmetry_multiplicity
_atom_site_Wyckoff_symbol
_atom_site_fract_x
_atom_site_fract_y
_atom_site_fract_z
_atom_site_B_iso_or_equiv
_atom_site_occupancy
_atom_site_attached_hydrogens
Te1 Te6+ 4 c 0 0 0 . 1. 0
Li1 Li1+ 4 d 0 0 0.5 . 1. 0
O1 O2- 8 g -.2317(3) -.0503(3) -.0877(3) . 1. 0
O2 O2- 8 g -.0719(3) 0.2312(4) 0.0666(3) . 1. 0
O3 O2- 8 g 0.0678(4) 0.0790(3) -.2320(3) . 1. 0
H1 H1+ 8 g -.2395 0.0025 -.2241 0.060(1) 1. 0
H2 H1+ 8 g -.22 0.235 0.062 0.060(1) 0.5 0
H3 H1+ 8 g 0.0594 0.2012 -.2326 0.060(1) 1. 0
loop_
_atom_site_aniso_label
_atom_site_aniso_type_symbol
_atom_site_aniso_U_11
_atom_site_aniso_U_22
_atom_site_aniso_U_33
_atom_site_aniso_U_12
_atom_site_aniso_U_13
_atom_site_aniso_U_23
Te1 Te6+ 0.0103(3) 0.0159(3) 0.0134(3) 0.00096(11) -.00117(11) -.00092(11)
Li1 Li1+ 0.026(6) 0.028(6) 0.027(8) 0.000(3) 0.003(4) 0.004(4)
O1 O2- 0.012(1) 0.0380(14) 0.0169(12) -.0030(12) -.0018(11) -.0016(12)
O2 O2- 0.0221(12) 0.0144(11) 0.0249(13) 0.0034(12) 0.0032(12) -.0037(12)
O3 O2- 0.0201(12) 0.0162(12) 0.0127(9) -.0007(10) 0.0018(10) 0.0013(9)
#End of TTdata_411256-ICSD