
#(C) 2019 by FIZ Karlsruhe - Leibniz Institute for Information Infrastructure.  All rights reserved.
data_411348-ICSD
_database_code_ICSD 411348
_audit_creation_date 2005-04-01
_audit_update_record 2006-04-01
_chemical_name_systematic 'Disodium sulfate(VI) decahydrate'
_chemical_formula_structural 'Na2 (S O4) (H2 O)10'
_chemical_formula_sum 'H20 Na2 O14 S1'
_chemical_name_structure_type Na2SO4(H2O)10
_chemical_name_mineral Mirabilite
_exptl_crystal_density_diffrn 1.48
_publ_section_title

;
The synthesis and crystal structures of two new hydrated sodium
monofluorophosphates: Na H P O3 F2.5 H2 O (I) and Na2 P O3 F10 H2 O (II)
;
loop_
_citation_id
_citation_journal_full
_citation_year
_citation_journal_volume
_citation_page_first
_citation_page_last
_citation_journal_id_ASTM
primary 'Journal of Solid State Chemistry' 2001 156 415 421 JSSCBI
loop_
_publ_author_name
'Prescott, H.A.'
'Troyanov, S.I.'
'Kemnitz, E.'
_cell_length_a 11.4740(10)
_cell_length_b 10.3560(3)
_cell_length_c 12.7884(5)
_cell_angle_alpha 90.
_cell_angle_beta 107.797(5)
_cell_angle_gamma 90.
_cell_volume 1446.86
_cell_formula_units_Z 4
_symmetry_space_group_name_H-M 'P 1 21/c 1'
_symmetry_Int_Tables_number 14
_refine_ls_R_factor_all 0.0291
loop_
_symmetry_equiv_pos_site_id
_symmetry_equiv_pos_as_xyz
1 'x, -y+1/2, z+1/2'
2 '-x, -y, -z'
3 '-x, y+1/2, -z+1/2'
4 'x, y, z'
loop_
_atom_type_symbol
_atom_type_oxidation_number
S6+ 6
Na1+ 1
O2- -2
H1+ 1
loop_
_atom_site_label
_atom_site_type_symbol
_atom_site_symmetry_multiplicity
_atom_site_Wyckoff_symbol
_atom_site_fract_x
_atom_site_fract_y
_atom_site_fract_z
_atom_site_B_iso_or_equiv
_atom_site_occupancy
_atom_site_attached_hydrogens
S1 S6+ 4 e 0.75115(3) 0.13958(3) 0.74138(2) 0.01417(10) 1 0
Na1 Na1+ 4 e 0.74399(4) -0.24589(5) 0.98222(4) 0.01985(14) 1 0
Na2 Na1+ 4 e 0.75534(5) -0.11287(5) 1.23872(4) 0.01883(13) 1 0
O1 O2- 4 e 0.85800(8) 0.19018(9) 0.82807(7) 0.0217(2) 1 0
O2 O2- 4 e 0.73586(12) 0.21190(15) 0.63843(8) 0.0221(3) 0.938(4) 0
O3 O2- 4 e 0.64129(9) 0.15366(14) 0.77665(10) 0.0233(3) 0.938(4) 0
O4 O2- 4 e 0.77132(12) 0.00215(10) 0.72219(10) 0.0247(4) 0.938(4) 0
O5 O2- 4 e 0.7658(16) 0.1683(19) 0.6304(13) 0.012(4) 0.062(4) 0
O6 O2- 4 e 0.6373(13) 0.2142(19) 0.7463(13) 0.011(4) 0.062(4) 0
O7 O2- 4 e 0.7274(16) 0.0014(14) 0.7532(13) 0.013(4) 0.062(4) 0
O8 O2- 4 e 0.85396(10) -0.21315(10) 0.85439(8) 0.0208(2) 1 0
O9 O2- 4 e 0.64423(10) -0.28352(10) 1.11922(8) 0.0214(2) 1 0
O10 O2- 4 e 0.87679(11) 0.04435(11) 1.36089(9) 0.0245(2) 1 0
O11 O2- 4 e 0.86838(13) -0.43615(11) 1.05557(11) 0.0256(2) 1 0
O12 O2- 4 e 0.88523(10) -0.10990(11) 1.12016(8) 0.0223(2) 1 0
O13 O2- 4 e 0.61357(10) -0.39158(10) 0.84925(8) 0.0223(2) 1 0
O14 O2- 4 e 0.61887(12) -0.05744(11) 0.91659(10) 0.0266(2) 1 0
O15 O2- 4 e 0.63264(11) 0.04636(11) 1.11971(9) 0.0239(2) 1 0
O16 O2- 4 e 1.10120(9) -0.15199(10) 0.94605(9) 0.0250(2) 1 0
O17 O2- 4 e 0.39628(10) -0.34668(10) 1.08149(9) 0.0249(2) 1 0
H1 H1+ 4 e 0.9239(19) -0.2040(18) 0.8812(15) 0.037(5) 1 0
H2 H1+ 4 e 0.8321(16) -0.1440(18) 0.8219(15) 0.031(5) 1 0
H3 H1+ 4 e 0.6697(17) -0.3552(19) 1.1511(15) 0.036(5) 1 0
H4 H1+ 4 e 0.5745(21) -0.2916(20) 1.1024(16) 0.046(6) 1 0
H5 H1+ 4 e 0.8588(17) 0.1208(20) 1.3461(15) 0.035(5) 1 0
H6 H1+ 4 e 0.8602(28) 0.0236(31) 1.4195(31) 0.031(10) 0.57(4) 0
H7 H1+ 4 e 0.9537(55) 0.0451(43) 1.3785(37) 0.044(17) 0.43(4) 0
H8 H1+ 4 e 0.8417(19) -0.4704(20) 1.0975(18) 0.049(6) 1 0
H9 H1+ 4 e 0.9368(34) -0.4438(26) 1.0814(23) 0.015(9) 0.57(4) 0
H10 H1+ 4 e 0.8527(39) -0.4765(45) 0.9985(45) 0.037(15) 0.43(4) 0
H11 H1+ 4 e 0.9564(19) -0.1356(17) 1.1438(15) 0.036(5) 1 0
H12 H1+ 4 e 0.8904(16) -0.0369(20) 1.1010(15) 0.038(5) 1 0
H13 H1+ 4 e 0.5427(18) -0.3698(17) 0.8181(15) 0.035(5) 1 0
H14 H1+ 4 e 0.6098(17) -0.4647(20) 0.8719(15) 0.039(5) 1 0
H15 H1+ 4 e 0.6303(18) -0.0055(21) 0.8767(17) 0.045(6) 1 0
H16 H1+ 4 e 0.6316(29) -0.0178(34) 0.9799(36) 0.024(8) 0.5 0
H17 H1+ 4 e 0.5485(43) -0.0600(35) 0.8985(29) 0.030(10) 0.5 0
H18 H1+ 4 e 0.6599(17) 0.1202(20) 1.1323(15) 0.037(5) 1 0
H19 H1+ 4 e 0.5647(37) 0.0580(30) 1.1167(24) 0.016(8) 0.5 0
H20 H1+ 4 e 0.6330(38) 0.0224(44) 1.0601(46) 0.055(13) 0.5 0
H21 H1+ 4 e 1.1433(17) -0.2012(18) 0.9199(15) 0.034(5) 1 0
H22 H1+ 4 e 1.1181(21) -0.1631(23) 1.0068(20) 0.066(8) 1 0
H23 H1+ 4 e 0.3757(16) -0.2909(18) 1.1186(15) 0.034(5) 1 0
H24 H1+ 4 e 0.3564(18) -0.3336(19) 1.0226(18) 0.043(6) 1 0
loop_
_atom_site_aniso_label
_atom_site_aniso_type_symbol
_atom_site_aniso_U_11
_atom_site_aniso_U_22
_atom_site_aniso_U_33
_atom_site_aniso_U_12
_atom_site_aniso_U_13
_atom_site_aniso_U_23
S1 S6+ 0.0163(2) 0.0130(2) 0.0134(2) -0.00007(11) 0.00473(11) 0.00014(11)
Na1 Na1+ 0.0217(3) 0.0207(3) 0.0182(3) -0.0008(2) 0.0076(2) -0.0013(2)
Na2 Na1+ 0.0210(3) 0.0180(3) 0.0178(3) 0.0003(2) 0.0064(2) 0.0002(2)
O1 O2- 0.0191(5) 0.0233(5) 0.0203(5) -0.0010(4) 0.0024(4) -0.0022(4)
O2 O2- 0.0282(6) 0.0208(7) 0.0184(5) 0.0014(6) 0.0087(4) 0.0039(4)
O3 O2- 0.0194(6) 0.0290(8) 0.0236(6) -0.0011(5) 0.0096(4) -0.0013(5)
O4 O2- 0.0349(7) 0.0146(5) 0.0252(6) 0.0012(5) 0.0100(5) -0.0006(4)
O8 O2- 0.0188(5) 0.0206(5) 0.0213(5) -0.0012(4) 0.0038(4) 0.0022(4)
O9 O2- 0.0188(5) 0.0214(5) 0.0237(5) -0.0010(4) 0.0060(4) 0.0016(4)
O10 O2- 0.0259(6) 0.0206(6) 0.0251(6) 0.0003(4) 0.0049(4) 0.0008(4)
O11 O2- 0.0247(7) 0.0287(6) 0.0252(6) 0.0024(5) 0.0101(5) 0.0037(5)
O12 O2- 0.0192(5) 0.0227(6) 0.0257(5) 0.0003(4) 0.0077(4) 0.0006(4)
O13 O2- 0.0189(5) 0.0225(5) 0.0240(5) -0.0008(4) 0.0043(4) 0.0016(4)
O14 O2- 0.0250(7) 0.0279(6) 0.0290(6) 0.0019(5) 0.0114(5) 0.0067(5)
O15 O2- 0.0222(6) 0.0210(6) 0.0270(6) -0.0018(4) 0.0053(4) -0.0002(4)
O16 O2- 0.0236(5) 0.0295(6) 0.0225(5) 0.0027(4) 0.0079(4) 0.0010(4)
O17 O2- 0.0242(5) 0.0278(6) 0.0213(5) 0.0025(4) 0.0048(4) -0.0008(4)
#End of TTdata_411348-ICSD