
#(C) 2019 by FIZ Karlsruhe - Leibniz Institute for Information Infrastructure.  All rights reserved.
data_411341-ICSD
_database_code_ICSD 411341
_audit_creation_date 2002-04-01
_chemical_name_systematic 'Disodium cyanamide'
_chemical_formula_structural 'Na2 (C N2)'
_chemical_formula_sum 'C1 N2 Na2'
_chemical_name_structure_type K2(CN2)
_exptl_crystal_density_diffrn 2.18
_publ_section_title 'Synthese und Charakterisierung von Natriumcyanamid'
loop_
_citation_id
_citation_journal_full
_citation_year
_citation_journal_volume
_citation_page_first
_citation_page_last
_citation_journal_id_ASTM
primary 'Zeitschrift fuer Anorganische und Allgemeine Chemie (1950) (DE)' 2000
626 2505 2508 ZAACAB
loop_
_publ_author_name
'Becker, M.'
'Nuss, J.'
'Jansen, M.'
_cell_length_a 5.0475(6)
_cell_length_b 5.0010(6)
_cell_length_c 5.5354(5)
_cell_angle_alpha 90.
_cell_angle_beta 110.083(9)
_cell_angle_gamma 90.
_cell_volume 131.23
_cell_formula_units_Z 2
_symmetry_space_group_name_H-M 'C 1 2/m 1'
_symmetry_Int_Tables_number 12
_refine_ls_R_factor_all 0.04
loop_
_symmetry_equiv_pos_site_id
_symmetry_equiv_pos_as_xyz
1 '-x, y, -z'
2 '-x, -y, -z'
3 'x, -y, z'
4 'x, y, z'
5 '-x+1/2, y+1/2, -z'
6 '-x+1/2, -y+1/2, -z'
7 'x+1/2, -y+1/2, z'
8 'x+1/2, y+1/2, z'
loop_
_atom_type_symbol
_atom_type_oxidation_number
C4+ 4
Na1+ 1
N3- -3
loop_
_atom_site_label
_atom_site_type_symbol
_atom_site_symmetry_multiplicity
_atom_site_Wyckoff_symbol
_atom_site_fract_x
_atom_site_fract_y
_atom_site_fract_z
_atom_site_B_iso_or_equiv
_atom_site_occupancy
_atom_site_attached_hydrogens
C1 C4+ 2 a 0.5 0.5 0 . 1. 0
Na1 Na1+ 4 i 0.82602(10) 0.5 -.30839(8) . 1. 0
N1 N3- 4 i 0.6558(2) 0.5 -.77221(17) . 1. 0
loop_
_atom_site_aniso_label
_atom_site_aniso_type_symbol
_atom_site_aniso_U_11
_atom_site_aniso_U_22
_atom_site_aniso_U_33
_atom_site_aniso_U_12
_atom_site_aniso_U_13
_atom_site_aniso_U_23
C1 C4+ 0.0106(5) 0.0109(6) 0.0158(6) 0 0.0057(4) 0
Na1 Na1+ 0.0161(3) 0.0166(3) 0.0170(3) 0 0.00484(16) 0
N1 N3- 0.0160(3) 0.0167(5) 0.0150(4) 0 0.0021(3) 0
#End of TTdata_411341-ICSD