
#(C) 2019 by FIZ Karlsruhe - Leibniz Institute for Information Infrastructure.  All rights reserved.
data_411402-ICSD
_database_code_ICSD 411402
_audit_creation_date 2002-04-01
_audit_update_record 2008-02-01
_chemical_name_systematic 'Hexasodium nonaoxodiselenate(VI)'
_chemical_formula_structural 'Na6 (Se2 O9)'
_chemical_formula_sum 'Na6 O9 Se2'
_exptl_crystal_density_diffrn 3.21
_cell_measurement_temperature 571.
_publ_section_title

;
Octahedral (Se O6)6- and square-pyramidal (Se O5)4-, two new oxoselenate
anions
;
loop_
_citation_id
_citation_journal_full
_citation_year
_citation_journal_volume
_citation_page_first
_citation_page_last
_citation_journal_id_ASTM
primary 'Angewandte Chemie, International Edition' 2000 39 4362 4364 ACIEF5
loop_
_publ_author_name
'Haas, H.'
'Jansen, M.'
_cell_length_a 15.772(7)
_cell_length_b 7.817(3)
_cell_length_c 14.755(7)
_cell_angle_alpha 90.
_cell_angle_beta 90.
_cell_angle_gamma 90.
_cell_volume 1819.14
_cell_formula_units_Z 8
_symmetry_space_group_name_H-M 'P n m a'
_symmetry_Int_Tables_number 62
_refine_ls_R_factor_all 0.092
loop_
_symmetry_equiv_pos_site_id
_symmetry_equiv_pos_as_xyz
1 'x+1/2, y, -z+1/2'
2 'x, -y+1/2, z'
3 '-x+1/2, y+1/2, z+1/2'
4 '-x, -y, -z'
5 '-x+1/2, -y, z+1/2'
6 '-x, y+1/2, -z'
7 'x+1/2, -y+1/2, -z+1/2'
8 'x, y, z'
loop_
_atom_type_symbol
_atom_type_oxidation_number
Se6+ 6
Na1+ 1
O2- -2
loop_
_atom_site_label
_atom_site_type_symbol
_atom_site_symmetry_multiplicity
_atom_site_Wyckoff_symbol
_atom_site_fract_x
_atom_site_fract_y
_atom_site_fract_z
_atom_site_B_iso_or_equiv
_atom_site_occupancy
_atom_site_attached_hydrogens
Se1 Se6+ 4 c 0.12833(2) 0.25 0.77297(2) . 1. 0
Se2 Se6+ 4 c 0.36716(2) 0.25 0.52024(3) . 1. 0
Se3 Se6+ 4 c 0.38265(2) 0.25 0.01661(3) . 1. 0
Se4 Se6+ 4 c 0.12660(3) 0.25 0.26212(2) . 1. 0
Na1 Na1+ 4 c 0.37879(11) 0.25 0.75768(13) . 1. 0
Na2 Na1+ 4 c 0.13217(12) 0.25 0.49336(11) . 1. 0
Na3 Na1+ 8 d 0.22888(7) 0.02963(16) 0.65884(7) . 1. 0
Na4 Na1+ 8 d 0.02133(7) 0.04005(16) 0.65730(8) . 1. 0
Na5 Na1+ 8 d 0.23862(7) 0.03438(18) 0.88140(8) . 1. 0
Na6 Na1+ 8 d 0.01809(7) 0.03148(17) 0.87887(8) . 1. 0
Na7 Na1+ 4 c 0.13795(14) 0.25 0.04612(12) . 1. 0
Na8 Na1+ 4 c 0.11581(14) -.25 0.77131(14) . 1. 0
O1 O2- 4 c 0.21235(16) 0.25 0.19862(19) . 1. 0
O2 O2- 4 c 0.04455(17) 0.25 0.19416(19) . 1. 0
O3 O2- 8 d 0.12778(11) 0.0187(2) 0.77365(11) . 1. 0
O4 O2- 4 c 0.24337(14) 0.25 0.77225(18) . 1. 0
O5 O2- 4 c 0.28693(17) 0.25 0.45001(19) . 1. 0
O6 O2- 4 c 0.01269(15) 0.25 0.77303(18) . 1. 0
O7 O2- 4 c 0.12842(15) 0.25 0.89785(15) . 1. 0
O8 O2- 8 d 0.36379(11) 0.0786(2) 0.58407(12) . 1. 0
O9 O2- 4 c 0.12869(15) 0.25 0.64842(15) . 1. 0
O10 O2- 8 d 0.12558(12) 0.0804(2) 0.32665(13) . 1. 0
O11 O2- 4 c 0.45584(17) 0.25 0.4632(2) . 1. 0
O12 O2- 8 d 0.32252(13) 0.0796(3) 0.01598(14) . 1. 0
O13 O2- 4 c 0.44078(19) 0.25 0.1081(2) . 1. 0
O14 O2- 4 c 0.4436(2) 0.25 -.0718(2) . 1. 0
loop_
_atom_site_aniso_label
_atom_site_aniso_type_symbol
_atom_site_aniso_U_11
_atom_site_aniso_U_22
_atom_site_aniso_U_33
_atom_site_aniso_U_12
_atom_site_aniso_U_13
_atom_site_aniso_U_23
Se1 Se6+ 0.00700(15) 0.00720(16) 0.00895(15) 0 0.00006(15) 0
Se2 Se6+ 0.01099(15) 0.01192(18) 0.01217(16) 0 0.00064(17) 0
Se3 Se6+ 0.01726(18) 0.0130(2) 0.01294(16) 0 0.00187(17) 0
Se4 Se6+ 0.01066(17) 0.01210(18) 0.01176(19) 0 -.00067(16) 0
Na1 Na1+ 0.0101(8) 0.0521(13) 0.0419(12) 0 0.0042(8) 0
Na2 Na1+ 0.0354(10) 0.0433(12) 0.0175(9) 0 0.0007(8) 0
Na3 Na1+ 0.0160(5) 0.0168(7) 0.0174(6) 0.0022(5) 0.0028(4) -.0015(5)
Na4 Na1+ 0.0177(5) 0.0157(6) 0.0213(6) -.0016(5) -.0030(5) -.0024(5)
Na5 Na1+ 0.0172(5) 0.0171(7) 0.0180(6) 0.0013(5) -.0022(4) 0.0024(5)
Na6 Na1+ 0.0169(6) 0.0225(6) 0.0233(6) 0.0022(5) 0.0054(5) 0.0065(5)
Na7 Na1+ 0.0658(14) 0.0297(11) 0.0144(8) 0 -.0050(9) 0
Na8 Na1+ 0.0521(13) 0.0091(8) 0.0482(13) 0 -.0044(11) 0
O1 O2- 0.0183(14) 0.0173(17) 0.0209(15) 0 0.0086(11) 0
O2 O2- 0.0200(14) 0.0239(18) 0.0203(15) 0 -.0096(12) 0
O3 O2- 0.0130(8) 0.0058(7) 0.0153(8) 0.0003(7) 0.0002(7) 0.0006(7)
O4 O2- 0.0045(11) 0.0139(15) 0.0151(13) 0 0.0003(9) 0
O5 O2- 0.0194(14) 0.0205(17) 0.0222(15) 0 -.0093(12) 0
O6 O2- 0.0053(10) 0.0148(15) 0.0146(13) 0 0.0002(9) 0
O7 O2- 0.0118(11) 0.0176(13) 0.0057(10) 0 -.0014(9) 0
O8 O2- 0.0182(9) 0.0195(11) 0.0223(10) -.0005(8) -.0005(8) 0.0083(8)
O9 O2- 0.0129(11) 0.0138(12) 0.0069(11) 0 0.0014(10) 0
O10 O2- 0.0176(9) 0.0254(12) 0.0302(11) 0.0021(9) 0.0003(9) 0.0181(9)
O11 O2- 0.0191(14) 0.0299(19) 0.0284(18) 0 0.0122(12) 0
O12 O2- 0.0361(11) 0.0275(13) 0.0184(9) -.0177(10) -.0024(10) 0.0004(10)
O13 O2- 0.0369(18) 0.0203(18) 0.037(2) 0 -.0240(15) 0
O14 O2- 0.047(2) 0.0212(19) 0.042(2) 0 0.0303(17) 0
#End of TTdata_411402-ICSD