
#(C) 2019 by FIZ Karlsruhe - Leibniz Institute for Information Infrastructure.  All rights reserved.
data_411721-ICSD
_database_code_ICSD 411721
_audit_creation_date 2002-10-01
_audit_update_record 2011-02-01
_chemical_name_systematic 'Pentasodium oxide arsenate(V)'
_chemical_formula_structural 'Na5 O (As O4)'
_chemical_formula_sum 'As1 Na5 O5'
_chemical_name_structure_type Na5OAsO4
_exptl_crystal_density_diffrn 2.85
_publ_section_title 'Synthese und Charakterisierung von Na5 As O5'
loop_
_citation_id
_citation_journal_full
_citation_year
_citation_journal_volume
_citation_page_first
_citation_page_last
_citation_journal_id_ASTM
primary 'Zeitschrift fuer Anorganische und Allgemeine Chemie (1950) (DE)' 2001
627 1013 1016 ZAACAB
loop_
_publ_author_name
'Haas, H.'
'Jansen, M.'
_cell_length_a 5.96394(7)
_cell_length_b 16.43335(18)
_cell_length_c 6.42132(7)
_cell_angle_alpha 90.
_cell_angle_beta 90.
_cell_angle_gamma 90.
_cell_volume 629.34
_cell_formula_units_Z 4
_symmetry_space_group_name_H-M 'P b c m'
_symmetry_Int_Tables_number 57
_refine_ls_R_factor_all 0.0764
loop_
_symmetry_equiv_pos_site_id
_symmetry_equiv_pos_as_xyz
1 'x, -y+1/2, z+1/2'
2 '-x, y+1/2, z'
3 'x, y, -z+1/2'
4 '-x, -y, -z'
5 '-x, y+1/2, -z+1/2'
6 'x, -y+1/2, -z'
7 '-x, -y, z+1/2'
8 'x, y, z'
loop_
_atom_type_symbol
_atom_type_oxidation_number
As5+ 5
Na1+ 1
O2- -2
loop_
_atom_site_label
_atom_site_type_symbol
_atom_site_symmetry_multiplicity
_atom_site_Wyckoff_symbol
_atom_site_fract_x
_atom_site_fract_y
_atom_site_fract_z
_atom_site_B_iso_or_equiv
_atom_site_occupancy
_atom_site_attached_hydrogens
As1 As5+ 4 d 0.30617(18) 0.09608(8) 0.25 0.0227(4) 1. 0
Na1 Na1+ 4 d 0.0859(6) 0.27256(23) 0.25 0.0359(14) 1. 0
Na2 Na1+ 8 e 0.1362(4) 0.91472(15) 0.0076(35) 0.0288(9) 1. 0
Na3 Na1+ 4 c 0.4205(6) 0.75 0 0.0261(13) 1. 0
Na4 Na1+ 4 d 0.4453(6) 0.41152(26) 0.25 0.0302(12) 1. 0
O1 O2- 8 e 0.2536(7) 0.15397(22) 0.0379(6) 0.0310(14) 1. 0
O2 O2- 4 d 0.1125(10) 0.02197(34) 0.25 0.0245(20) 1. 0
O3 O2- 4 d 0.250(1) 0.82368(33) 0.25 0.0219(18) 1. 0
O4 O2- 4 d 0.428(1) 0.56104(32) 0.25 0.0220(19) 1. 0
#End of TTdata_411721-ICSD