
#(C) 2019 by FIZ Karlsruhe - Leibniz Institute for Information Infrastructure.  All rights reserved.
data_411818-ICSD
_database_code_ICSD 411818
_audit_creation_date 2002-10-01
_chemical_name_systematic 'Sodium dinitridophosphate(V)'
_chemical_formula_structural 'Na (P N2)'
_chemical_formula_sum 'N2 Na1 P1'
_chemical_name_structure_type KCoO2(tP16)
_exptl_crystal_density_diffrn 3.16
_cell_measurement_temperature 298.
_publ_section_title

;
Synthesis, crystal structure and spectroscopic characterization of Na5 (Ni O2)
(C O3), containing the linear (Ni O2)(3-) group with monovalent nickel
;
loop_
_citation_id
_citation_journal_full
_citation_year
_citation_journal_volume
_citation_page_first
_citation_page_last
_citation_journal_id_ASTM
primary 'Zeitschrift fuer Anorganische und Allgemeine Chemie (1950) (DE)' 2001
627 2469 2472 ZAACAB
loop_
_publ_author_name
'Moeller, A.'
'Schmid, S.'
'Schnick, W.'
_cell_length_a 4.9721(2)
_cell_length_b 4.9721(2)
_cell_length_c 6.9760(3)
_cell_angle_alpha 90.
_cell_angle_beta 90.
_cell_angle_gamma 90.
_cell_volume 172.46
_cell_formula_units_Z 4
_symmetry_space_group_name_H-M 'I -4 2 d'
_symmetry_Int_Tables_number 122
_refine_ls_R_factor_all 0.0502
loop_
_symmetry_equiv_pos_site_id
_symmetry_equiv_pos_as_xyz
1 '-y, -x+1/2, z+1/4'
2 'y, -x, -z'
3 'y, x+1/2, z+1/4'
4 '-y, x, -z'
5 'x, -y+1/2, -z+1/4'
6 '-x, -y, z'
7 '-x, y+1/2, -z+1/4'
8 'x, y, z'
9 '-y+1/2, -x, z+3/4'
10 'y+1/2, -x+1/2, -z+1/2'
11 'y+1/2, x, z+3/4'
12 '-y+1/2, x+1/2, -z+1/2'
13 'x+1/2, -y, -z+3/4'
14 '-x+1/2, -y+1/2, z+1/2'
15 '-x+1/2, y, -z+3/4'
16 'x+1/2, y+1/2, z+1/2'
loop_
_atom_type_symbol
_atom_type_oxidation_number
P5+ 5
Na1+ 1
N3- -3
loop_
_atom_site_label
_atom_site_type_symbol
_atom_site_symmetry_multiplicity
_atom_site_Wyckoff_symbol
_atom_site_fract_x
_atom_site_fract_y
_atom_site_fract_z
_atom_site_B_iso_or_equiv
_atom_site_occupancy
_atom_site_attached_hydrogens
P1 P5+ 4 a 0 0 0 0.0262(6) 1. 0
Na1 Na1+ 4 b 0 0 0.5 0.0289(8) 1. 0
N1 N3- 8 d 0.1239(1) 0.25 0.125 0.0172(10) 1. 0
#End of TTdata_411818-ICSD