
#(C) 2019 by FIZ Karlsruhe - Leibniz Institute for Information Infrastructure.  All rights reserved.
data_411814-ICSD
_database_code_ICSD 411814
_audit_creation_date 2002-10-01
_chemical_name_systematic 'Pentasodium carbonate niccolate(I)'
_chemical_formula_structural 'Na5 (C O3) (Ni O2)'
_chemical_formula_sum 'C1 Na5 Ni1 O5'
_chemical_name_structure_type Na5CoO2CO3
_exptl_crystal_density_diffrn 2.48
_publ_section_title

;
Synthesis, crystal structure, and spectroscopic characterisation of Na5 (Ni
O2) (C o3), containing the linear (Ni O2)(3-) group with monovalent nickel
;
loop_
_citation_id
_citation_journal_full
_citation_year
_citation_journal_volume
_citation_page_first
_citation_page_last
_citation_journal_id_ASTM
primary 'Zeitschrift fuer Anorganische und Allgemeine Chemie (1950) (DE)' 2001
627 2625 2629 ZAACAB
loop_
_publ_author_name
'Moeller, A.'
_cell_length_a 4.6235(7)
_cell_length_b 4.6235(7)
_cell_length_c 8.3087(15)
_cell_angle_alpha 90.
_cell_angle_beta 90.
_cell_angle_gamma 90.
_cell_volume 177.61
_cell_formula_units_Z 1
_symmetry_space_group_name_H-M 'P 4/m m m'
_symmetry_Int_Tables_number 123
_refine_ls_R_factor_all 0.0458
loop_
_symmetry_equiv_pos_site_id
_symmetry_equiv_pos_as_xyz
1 'y, x, -z'
2 '-y, -x, -z'
3 '-y, x, -z'
4 'y, -x, -z'
5 '-x, y, -z'
6 'x, -y, -z'
7 'x, y, -z'
8 '-x, -y, -z'
9 '-y, -x, z'
10 'y, x, z'
11 'y, -x, z'
12 '-y, x, z'
13 'x, -y, z'
14 '-x, y, z'
15 '-x, -y, z'
16 'x, y, z'
loop_
_atom_type_symbol
_atom_type_oxidation_number
Ni1+ 1
Na1+ 1
O2- -2
C4+ 4
O2- -2
loop_
_atom_site_label
_atom_site_type_symbol
_atom_site_symmetry_multiplicity
_atom_site_Wyckoff_symbol
_atom_site_fract_x
_atom_site_fract_y
_atom_site_fract_z
_atom_site_B_iso_or_equiv
_atom_site_occupancy
_atom_site_attached_hydrogens
Ni1 Ni1+ 1 a 0 0 0 . 1. 0
Na1 Na1+ 1 b 0 0 0.5 . 1. 0
Na2 Na1+ 4 i 0 0.5 0.7587(4) . 1. 0
O1 O2- 2 g 0 0 0.2133(10) . 1. 0
C1 C4+ 1 d 0.5 0.5 0.5 . 1. 0
O2 O2- 2 h 0.5 0.5 0.3406(33) . 0.5 0
O3 O2- 4 o 0.5 -.7976(56) 0.5 . 0.5 0
loop_
_atom_site_aniso_label
_atom_site_aniso_type_symbol
_atom_site_aniso_U_11
_atom_site_aniso_U_22
_atom_site_aniso_U_33
_atom_site_aniso_U_12
_atom_site_aniso_U_13
_atom_site_aniso_U_23
Ni1 Ni1+ 0.0278(14) 0.0278(14) 0.021(2) 0 0 0
Na1 Na1+ 0.042(3) 0.042(3) 0.023(4) 0 0 0
Na2 Na1+ 0.078(4) 0.024(2) 0.044(3) 0 0 0
O1 O2- 0.028(3) 0.028(3) 0.026(4) 0 0 0
C1 C4+ 0.054(10) 0.054(10) 0.051(15) 0 0 0
O2 O2- 0.059(10) 0.059(10) 0.064(14) 0 0 0
O3 O2- 0.086(15) 0.100(18) 0.102(14) 0 0 0
#End of TTdata_411814-ICSD