
#(C) 2019 by FIZ Karlsruhe - Leibniz Institute for Information Infrastructure.  All rights reserved.
data_412093-ICSD
_database_code_ICSD 412093
_audit_creation_date 2004-04-01
_chemical_name_systematic 'Sodium catena-bis(sulfato(VI))aurate(III)'
_chemical_formula_structural 'Na (Au (S O4)2)'
_chemical_formula_sum 'Au1 Na1 O8 S2'
_exptl_crystal_density_diffrn 4.17
_publ_section_title 'The gold sulfates M Au (S O4)2 (M = Na, K, Rb)'
loop_
_citation_id
_citation_journal_full
_citation_year
_citation_journal_volume
_citation_page_first
_citation_page_last
_citation_journal_id_ASTM
primary 'Zeitschrift fuer Naturforschung, B: A Journal of Chemical Sciences'
2001 56 1340 1343 ZNBSEN
loop_
_publ_author_name
'Wickleder, M.S.'
'Buechner, O.'
_cell_length_a 4.6907(10)
_cell_length_b 8.4591(14)
_cell_length_c 8.312(2)
_cell_angle_alpha 90.
_cell_angle_beta 95.69(3)
_cell_angle_gamma 90.
_cell_volume 328.19
_cell_formula_units_Z 2
_symmetry_space_group_name_H-M 'P 1 21/n 1'
_symmetry_Int_Tables_number 14
_refine_ls_R_factor_all 0.0328
loop_
_symmetry_equiv_pos_site_id
_symmetry_equiv_pos_as_xyz
1 '-x+1/2, y+1/2, -z+1/2'
2 '-x, -y, -z'
3 'x+1/2, -y+1/2, z+1/2'
4 'x, y, z'
loop_
_atom_type_symbol
_atom_type_oxidation_number
Au3+ 3
O2- -2
S6+ 6
Na1+ 1
loop_
_atom_site_label
_atom_site_type_symbol
_atom_site_symmetry_multiplicity
_atom_site_Wyckoff_symbol
_atom_site_fract_x
_atom_site_fract_y
_atom_site_fract_z
_atom_site_B_iso_or_equiv
_atom_site_occupancy
_atom_site_attached_hydrogens
Au1 Au3+ 2 a 0 0 0 0.0150(2) 1. 0
O1 O2- 4 e 0.6860(13) 0.2997(9) 0.4344(7) 0.0186(13) 1. 0
O2 O2- 4 e 0.0253(17) 0.3887(9) 0.2498(8) 0.025(2) 1. 0
O3 O2- 4 e 0.5515(15) 0.3742(8) -.1280(8) 0.024(2) 1. 0
O4 O2- 4 e -.3289(15) 0.1407(8) 0.0380(7) 0.0191(14) 1. 0
S1 S6+ 4 e 0.9941(5) 0.2924(3) 0.3873(3) 0.0167(5) 1. 0
Na1 Na1+ 2 c 0 0.5 0 0.035(2) 1. 0
loop_
_atom_site_aniso_label
_atom_site_aniso_type_symbol
_atom_site_aniso_U_11
_atom_site_aniso_U_22
_atom_site_aniso_U_33
_atom_site_aniso_U_12
_atom_site_aniso_U_13
_atom_site_aniso_U_23
Au1 Au3+ 0.0104(3) 0.0212(3) 0.0134(3) -0.0001(2) 0.00160(15) 0.0005(2)
O1 O2- 0.010(3) 0.021(3) 0.025(3) -0.003(3) 0.005(2) -0.003(3)
O2 O2- 0.028(4) 0.030(4) 0.017(3) -0.005(3) 0.003(3) 0.002(3)
O3 O2- 0.018(4) 0.024(4) 0.030(4) -0.003(3) 0.004(3) 0.008(3)
O4 O2- 0.015(3) 0.023(4) 0.018(3) 0.004(3) -0.002(2) 0.000(3)
S1 S6+ 0.0126(10) 0.0224(11) 0.0158(9) 0.0007(10) 0.0044(7) -0.0005(10)
Na1 Na1+ 0.042(4) 0.037(4) 0.024(3) -0.005(4) -0.006(3) 0.006(3)
#End of TTdata_412093-ICSD