
#(C) 2019 by FIZ Karlsruhe - Leibniz Institute for Information Infrastructure.  All rights reserved.
data_412232-ICSD
_database_code_ICSD 412232
_audit_creation_date 2003-04-01
_audit_update_record 2013-02-01
_chemical_name_systematic 'Sodium bismuthotellurate(VI)'
_chemical_formula_structural 'Na (Bi Te O5)'
_chemical_formula_sum 'Bi1 Na1 O5 Te1'
_exptl_crystal_density_diffrn 6.83
_publ_section_title
'Synthesis, structure and characterization of a new tellurate: Na Bi Te O5'
loop_
_citation_id
_citation_journal_full
_citation_year
_citation_journal_volume
_citation_page_first
_citation_page_last
_citation_journal_id_ASTM
primary 'Solid State Sciences' 2002 4 793 797 SSSCFJ
loop_
_publ_author_name
'Ok, K.M.'
'Halasyamani, P.S.'
_cell_length_a 7.2645(5)
_cell_length_b 9.8048(6)
_cell_length_c 6.2718(4)
_cell_angle_alpha 90.
_cell_angle_beta 106.819(1)
_cell_angle_gamma 90.
_cell_volume 427.61
_cell_formula_units_Z 4
_symmetry_space_group_name_H-M 'P 1 21/c 1'
_symmetry_Int_Tables_number 14
_refine_ls_R_factor_all 0.0355
loop_
_symmetry_equiv_pos_site_id
_symmetry_equiv_pos_as_xyz
1 'x, -y+1/2, z+1/2'
2 '-x, -y, -z'
3 '-x, y+1/2, -z+1/2'
4 'x, y, z'
loop_
_atom_type_symbol
_atom_type_oxidation_number
Bi3+ 3
Te6+ 6
Na1+ 1
O2- -2
loop_
_atom_site_label
_atom_site_type_symbol
_atom_site_symmetry_multiplicity
_atom_site_Wyckoff_symbol
_atom_site_fract_x
_atom_site_fract_y
_atom_site_fract_z
_atom_site_B_iso_or_equiv
_atom_site_occupancy
_atom_site_attached_hydrogens
Bi1 Bi3+ 4 e 0.70998(6) 0.63151(4) 0.04690(6) 0.0067(2) 1. 0
Te1 Te6+ 2 a 1 0.5 0.5 0.0050(3) 1. 0
Te2 Te6+ 2 b 0.5 0.5 0.5 0.0043(3) 1. 0
Na1 Na1+ 4 e 0.237(4) 0.718(3) 0.100(4) 0.020(8) 0.5 0
Na2 Na1+ 4 e 0.217(3) 0.713(2) 0.104(3) 0.007(6) 0.5 0
O1 O2- 4 e 1.0984(12) 0.3225(8) 0.6045(14) 0.009(2) 1. 0
O2 O2- 4 e 1.1331(12) 0.5695(8) 0.7843(13) 0.009(2) 1. 0
O3 O2- 4 e 0.7738(11) 0.4591(9) 0.6099(14) 0.012(2) 1. 0
O4 O2- 4 e 0.4958(11) 0.5505(8) 0.2018(12) 0.0054(14) 1. 0
O5 O2- 4 e 0.4596(11) 0.3190(8) 0.3970(14) 0.008(2) 1. 0
loop_
_atom_site_aniso_label
_atom_site_aniso_type_symbol
_atom_site_aniso_U_11
_atom_site_aniso_U_22
_atom_site_aniso_U_33
_atom_site_aniso_U_12
_atom_site_aniso_U_13
_atom_site_aniso_U_23
Bi1 Bi3+ 0.0088(3) 0.0035(3) 0.0079(3) 0.00009(13) 0.0026(2) 0.00031(12)
Te1 Te6+ 0.0061(5) 0.0010(5) 0.0076(5) 0.0007(3) 0.0017(4) 0.0004(3)
Te2 Te6+ 0.0062(5) 0.0010(5) 0.0060(5) -0.0006(3) 0.0018(4) -0.0004(3)
O1 O2- 0.014(4) 0.003(4) 0.010(4) 0.004(3) 0.004(3) 0.002(3)
O2 O2- 0.018(4) 0.002(4) 0.005(4) -0.002(3) 0.001(3) 0.000(3)
O3 O2- 0.004(4) 0.017(4) 0.012(4) 0.001(3) 0.000(3) 0.008(4)
O4 O2- 0.002(3) 0.009(3) 0.004(4) 0.000(3) 0.000(3) 0.001(3)
O5 O2- 0.008(4) 0.003(4) 0.012(4) 0.000(3) 0.002(3) -0.001(3)
#End of TTdata_412232-ICSD