
#(C) 2019 by FIZ Karlsruhe - Leibniz Institute for Information Infrastructure.  All rights reserved.
data_41231-ICSD
_database_code_ICSD 41231
_audit_creation_date 1999-11-30
_audit_update_record 2002-04-01
_chemical_name_systematic 'Sodium hydroxide - beta'
_chemical_formula_structural 'Na (O H)'
_chemical_formula_sum 'H1 Na1 O1'
_chemical_name_structure_type KOH
_exptl_crystal_density_diffrn 2.02
_cell_measurement_temperature 535.
_publ_section_title

;
Crystalline modifications and structural phase transitions of Na O H and Na O
D
;
loop_
_citation_id
_citation_journal_full
_citation_year
_citation_journal_volume
_citation_page_first
_citation_page_last
_citation_journal_id_ASTM
primary

;
Acta Crystallographica, Section A: Crystal Physics, Diffraction, Theoretical
and General Crystallography
; 1982 38 470 476 ACACBN
loop_
_publ_author_name
'Bleif, H.J.'
'Dachs, H.'
_cell_length_a 3.345(3)
_cell_length_b 3.445(3)
_cell_length_c 6.080(5)
_cell_angle_alpha 90.
_cell_angle_beta 109.9
_cell_angle_gamma 90.
_cell_volume 65.88
_cell_formula_units_Z 2
_symmetry_space_group_name_H-M 'P 1 21/m 1'
_symmetry_Int_Tables_number 11
_refine_ls_R_factor_all 0.06
loop_
_symmetry_equiv_pos_site_id
_symmetry_equiv_pos_as_xyz
1 'x, -y+1/2, z'
2 '-x, -y, -z'
3 '-x, y+1/2, -z'
4 'x, y, z'
loop_
_atom_type_symbol
_atom_type_oxidation_number
Na1+ 1
O2- -2
H1+ 1
loop_
_atom_site_label
_atom_site_type_symbol
_atom_site_symmetry_multiplicity
_atom_site_Wyckoff_symbol
_atom_site_fract_x
_atom_site_fract_y
_atom_site_fract_z
_atom_site_B_iso_or_equiv
_atom_site_occupancy
_atom_site_attached_hydrogens
Na1 Na1+ 2 e 0.141(3) 0.25 -.179(2) . 1. 0
O1 O2- 2 e 0.400(2) 0.25 0.236(2) . 1. 0
H1 H1+ 2 e 0.462(5) 0.25 0.389(3) . 1. 0
loop_
_atom_site_aniso_label
_atom_site_aniso_type_symbol
_atom_site_aniso_U_11
_atom_site_aniso_U_22
_atom_site_aniso_U_33
_atom_site_aniso_U_12
_atom_site_aniso_U_13
_atom_site_aniso_U_23
Na1 Na1+ 0.038(5) 0.030(6) 0.056(6) 0 0.018(4) 0
O1 O2- 0.045(5) 0.030(6) 0.044(5) 0 0.019(3) 0
H1 H1+ 0.10(1) 0.11(1) 0.053(8) 0 0.021(8) 0
#End of TTdata_41231-ICSD