
#(C) 2019 by FIZ Karlsruhe - Leibniz Institute for Information Infrastructure.  All rights reserved.
data_41230-ICSD
_database_code_ICSD 41230
_audit_creation_date 1999-11-30
_audit_update_record 2006-04-01
_chemical_name_systematic 'Sodium hydroxide - alpha'
_chemical_formula_structural 'Na (O H)'
_chemical_formula_sum 'H1 Na1 O1'
_chemical_name_structure_type NaOH
_exptl_crystal_density_diffrn 2.02
_cell_measurement_temperature 297.
_publ_section_title

;
Crystalline modifications and structural phase transitions of Na O H and Na O
D
;
loop_
_citation_id
_citation_journal_full
_citation_year
_citation_journal_volume
_citation_page_first
_citation_page_last
_citation_journal_id_ASTM
primary

;
Acta Crystallographica, Section A: Crystal Physics, Diffraction, Theoretical
and General Crystallography
; 1982 38 470 476 ACACBN
loop_
_publ_author_name
'Bleif, H.J.'
'Dachs, H.'
_cell_length_a 3.401(1)
_cell_length_b 3.401(1)
_cell_length_c 11.382(5)
_cell_angle_alpha 90.
_cell_angle_beta 90.
_cell_angle_gamma 90.
_cell_volume 131.65
_cell_formula_units_Z 4
_symmetry_space_group_name_H-M 'B m m b'
_symmetry_Int_Tables_number 63
loop_
_symmetry_equiv_pos_site_id
_symmetry_equiv_pos_as_xyz
1 '-x, -y+1/2, z'
2 '-x, y+1/2, -z'
3 '-x, y, z'
4 '-x, -y, -z'
5 'x, y+1/2, -z'
6 'x, -y+1/2, z'
7 'x, -y, -z'
8 'x, y, z'
9 '-x+1/2, -y+1/2, z+1/2'
10 '-x+1/2, y+1/2, -z+1/2'
11 '-x+1/2, y, z+1/2'
12 '-x+1/2, -y, -z+1/2'
13 'x+1/2, y+1/2, -z+1/2'
14 'x+1/2, -y+1/2, z+1/2'
15 'x+1/2, -y, -z+1/2'
16 'x+1/2, y, z+1/2'
loop_
_atom_type_symbol
_atom_type_oxidation_number
Na1+ 1
O2- -2
H1+ 1
loop_
_atom_site_label
_atom_site_type_symbol
_atom_site_symmetry_multiplicity
_atom_site_Wyckoff_symbol
_atom_site_fract_x
_atom_site_fract_y
_atom_site_fract_z
_atom_site_B_iso_or_equiv
_atom_site_occupancy
_atom_site_attached_hydrogens
Na1 Na1+ 4 c 0 0.25 0.163(1) . 1. 0
O1 O2- 4 c 0 0.25 0.367(1) . 1. 0
H1 H1+ 4 c 0 0.25 0.447(1) . 1. 0
loop_
_atom_site_aniso_label
_atom_site_aniso_type_symbol
_atom_site_aniso_U_11
_atom_site_aniso_U_22
_atom_site_aniso_U_33
_atom_site_aniso_U_12
_atom_site_aniso_U_13
_atom_site_aniso_U_23
Na1 Na1+ 0.020(5) 0.020(5) 0.015(6) 0 0 0
O1 O2- 0.013(5) 0.013(5) 0.017(6) 0 0 0
H1 H1+ 0.07(2) 0.07(2) 0.016(6) 0 0 0
#End of TTdata_41230-ICSD