
#(C) 2019 by FIZ Karlsruhe - Leibniz Institute for Information Infrastructure.  All rights reserved.
data_412368-ICSD
_database_code_ICSD 412368
_audit_creation_date 2003-04-01
_chemical_name_systematic 'Trisodium thiotrioxophosphate(V)'
_chemical_formula_structural 'Na3 (P O3 S)'
_chemical_formula_sum 'Na3 O3 P1 S1'
_chemical_name_structure_type Ag3NSeO3
_exptl_crystal_density_diffrn 2.47
_cell_measurement_temperature 298.
_publ_section_title
'Natriummonothiophosphat(V): Kristallstruktur und NatriumionenleitfÃ¤higkeit'
loop_
_citation_id
_citation_journal_full
_citation_year
_citation_journal_volume
_citation_page_first
_citation_page_last
_citation_journal_id_ASTM
primary 'Zeitschrift fuer Anorganische und Allgemeine Chemie (1950) (DE)' 2002
628 641 646 ZAACAB
loop_
_publ_author_name
'Pompetzki, M.'
'Jansen, M.'
_cell_length_a 8.4442(1)
_cell_length_b 8.4442(1)
_cell_length_c 11.7412(1)
_cell_angle_alpha 90.
_cell_angle_beta 90.
_cell_angle_gamma 120.
_cell_volume 725.04
_cell_formula_units_Z 6
_symmetry_space_group_name_H-M 'R 3 c H'
_symmetry_Int_Tables_number 161
_refine_ls_R_factor_all 0.0486
loop_
_symmetry_equiv_pos_site_id
_symmetry_equiv_pos_as_xyz
1 '-x+y, y, z+1/2'
2 'x, x-y, z+1/2'
3 '-y, -x, z+1/2'
4 '-x+y, -x, z'
5 '-y, x-y, z'
6 'x, y, z'
7 '-x+y+2/3, y+1/3, z+5/6'
8 'x+2/3, x-y+1/3, z+5/6'
9 '-y+2/3, -x+1/3, z+5/6'
10 '-x+y+2/3, -x+1/3, z+1/3'
11 '-y+2/3, x-y+1/3, z+1/3'
12 'x+2/3, y+1/3, z+1/3'
13 '-x+y+1/3, y+2/3, z+1/6'
14 'x+1/3, x-y+2/3, z+1/6'
15 '-y+1/3, -x+2/3, z+1/6'
16 '-x+y+1/3, -x+2/3, z+2/3'
17 '-y+1/3, x-y+2/3, z+2/3'
18 'x+1/3, y+2/3, z+2/3'
loop_
_atom_type_symbol
_atom_type_oxidation_number
Na1+ 1
O2- -2
P5+ 5
S2- -2
loop_
_atom_site_label
_atom_site_type_symbol
_atom_site_symmetry_multiplicity
_atom_site_Wyckoff_symbol
_atom_site_fract_x
_atom_site_fract_y
_atom_site_fract_z
_atom_site_B_iso_or_equiv
_atom_site_occupancy
_atom_site_attached_hydrogens
Na1 Na1+ 18 b 0.3541(1) 0.3314(2) 0.1413(1) 0.0307(3) 1. 0
O1 O2- 18 b 0.0040(3) 0.1735(2) 0.1319(1) 0.0212(4) 1. 0
P1 P5+ 6 a 0 0 0.0947(1) 0.0266(5) 1. 0
S1 S2- 6 a 0.3333 0.6667 0.0815(1) 0.0310(5) 1. 0
#End of TTdata_412368-ICSD