
#(C) 2019 by FIZ Karlsruhe - Leibniz Institute for Information Infrastructure.  All rights reserved.
data_412445-ICSD
_database_code_ICSD 412445
_audit_creation_date 2004-04-01
_chemical_name_systematic 'Sodium triyttrium trisulfide tetrathiosilicate'
_chemical_formula_structural 'Na Y3 S3 (Si S4)'
_chemical_formula_sum 'Na1 S7 Si1 Y3'
_chemical_name_structure_type La3CuSiS7
_exptl_crystal_density_diffrn 3.82
_publ_section_title

;
Na Y3 S3 (Si S4): a sodium-containing yttrium sulfide thiosilicate with
channel structure
;
loop_
_citation_id
_citation_journal_full
_citation_year
_citation_journal_volume
_citation_page_first
_citation_page_last
_citation_journal_id_ASTM
primary 'Journal of Solid State Chemistry' 2003 171 382 386 JSSCBI
loop_
_publ_author_name
'Hartenbach, I.'
'Schleid, T.'
_cell_length_a 9.7657(7)
_cell_length_b 9.7657(7)
_cell_length_c 5.7061(5)
_cell_angle_alpha 90.
_cell_angle_beta 90.
_cell_angle_gamma 120.
_cell_volume 471.28
_cell_formula_units_Z 2
_symmetry_space_group_name_H-M 'P 63'
_symmetry_Int_Tables_number 173
_refine_ls_R_factor_all 0.0345
loop_
_symmetry_equiv_pos_site_id
_symmetry_equiv_pos_as_xyz
1 'x-y, x, z+1/2'
2 'y, -x+y, z+1/2'
3 '-x, -y, z+1/2'
4 '-x+y, -x, z'
5 '-y, x-y, z'
6 'x, y, z'
loop_
_atom_type_symbol
_atom_type_oxidation_number
Na1+ 1
Y3+ 3
Si4+ 4
S2- -2
loop_
_atom_site_label
_atom_site_type_symbol
_atom_site_symmetry_multiplicity
_atom_site_Wyckoff_symbol
_atom_site_fract_x
_atom_site_fract_y
_atom_site_fract_z
_atom_site_B_iso_or_equiv
_atom_site_occupancy
_atom_site_attached_hydrogens
Na1 Na1+ 2 a 0 0 0.0510(7) 0.016 1. 0
Y1 Y3+ 6 c 0.35846(7) 0.13271(6) 0.25 0.0222(2) 1. 0
Si1 Si4+ 2 b 0.3333 0.6667 0.1656(6) 0.0155(6) 1. 0
S1 S2- 2 b 0.3333 0.6667 0.5346(5) 0.0167(6) 1. 0
S2 S2- 6 c 0.52304(18) 0.41873(19) 0.5184(3) 0.0165(3) 1. 0
S3 S2- 6 c 0.25020(19) 0.09387(18) 0.7870(4) 0.0212(4) 1. 0
loop_
_atom_site_aniso_label
_atom_site_aniso_type_symbol
_atom_site_aniso_U_11
_atom_site_aniso_U_22
_atom_site_aniso_U_33
_atom_site_aniso_U_12
_atom_site_aniso_U_13
_atom_site_aniso_U_23
Na1 Na1+ 0.0156(17) 0.0156(17) 0.017(2) 0.0078(8) 0 0
Y1 Y3+ 0.0191(3) 0.0163(3) 0.0322(4) 0.0096(2) -0.0020(3) -0.0024(3)
Si1 Si4+ 0.0149(9) 0.0149(9) 0.0167(14) 0.0075(5) 0 0
S1 S2- 0.0183(8) 0.0183(8) 0.0136(13) 0.0091(4) 0 0
S2 S2- 0.0141(7) 0.0195(8) 0.0183(7) 0.0102(6) 0.0000(6) -0.0004(7)
S3 S2- 0.0217(7) 0.0144(7) 0.0278(9) 0.0092(6) -0.0070(7) -0.0001(6)
#End of TTdata_412445-ICSD