
#(C) 2019 by FIZ Karlsruhe - Leibniz Institute for Information Infrastructure.  All rights reserved.
data_412583-ICSD
_database_code_ICSD 412583
_audit_creation_date 2003-04-01
_chemical_name_systematic
'Hexasodium hexahydroxodioxodibismuthate(III) dihydroxide tetrahydrate'
_chemical_formula_structural 'Na6 (Bi2 O2 (O H)6) (O H)2 (H2 O)4'
_chemical_formula_sum 'H16 Bi2 Na6 O14'
_exptl_crystal_density_diffrn 3.43
_publ_section_title

;
Ein anionischer Oxohydroxo-Komplex mit Bismuth(III): Na6 (Bi2 O2 (O H)6) (O
H)2 * 4(H2 O)
;
loop_
_citation_id
_citation_journal_full
_citation_year
_citation_journal_volume
_citation_page_first
_citation_page_last
_citation_journal_id_ASTM
primary 'Zeitschrift fuer Anorganische und Allgemeine Chemie (1950) (DE)' 2002
628 1811 1814 ZAACAB
loop_
_publ_author_name
'Hinz-Huebner, D.'
_cell_length_a 6.8399(15)
_cell_length_b 7.5976(16)
_cell_length_c 8.2274(17)
_cell_angle_alpha 92.45(3)
_cell_angle_beta 90.40(3)
_cell_angle_gamma 115.60(2)
_cell_volume 385.07
_cell_formula_units_Z 1
_symmetry_space_group_name_H-M 'P -1'
_symmetry_Int_Tables_number 2
_refine_ls_R_factor_all 0.033
loop_
_symmetry_equiv_pos_site_id
_symmetry_equiv_pos_as_xyz
1 '-x, -y, -z'
2 'x, y, z'
loop_
_atom_type_symbol
_atom_type_oxidation_number
Na1+ 1
Bi3+ 3
O2- -2
H1+ 1
loop_
_atom_site_label
_atom_site_type_symbol
_atom_site_symmetry_multiplicity
_atom_site_Wyckoff_symbol
_atom_site_fract_x
_atom_site_fract_y
_atom_site_fract_z
_atom_site_B_iso_or_equiv
_atom_site_occupancy
_atom_site_attached_hydrogens
Na1 Na1+ 2 i 0.1991(5) 0.1165(6) 0.6320(5) 0.0200(8) 1. 0
Na2 Na1+ 2 i 0.3128(5) 0.8563(6) 0.3595(5) 0.0207(8) 1. 0
Na3 Na1+ 2 i 0.9440(5) 0.6274(5) 0.6357(4) 0.0184(8) 1. 0
Bi1 Bi3+ 2 i 0.45357(5) 0.61328(5) 0.67163(4) 0.01296(12) 1. 0
O1 O2- 2 i 0.9114(9) 0.6165(10) 0.3502(8) 0.0178(14) 1. 0
O2 O2- 2 i 0.4344(9) 0.6198(9) 0.4219(8) 0.0164(13) 1. 0
O3 O2- 2 i 0.3244(9) 0.8578(9) 0.6556(8) 0.0163(13) 1. 0
O4 O2- 2 i 0.1883(10) 0.1211(10) 0.3489(8) 0.0195(14) 1. 0
O5 O2- 2 i 0.8644(12) 0.6129(13) 0.9225(10) 0.0348(19) 1. 0
O6 O2- 2 i 0.2499(14) 0.7840(13) 0.0722(11) 0.043(2) 1. 0
O7 O2- 2 i 0.3122(16) 0.1572(16) 0.9150(11) 0.050(3) 1. 0
H1 H1+ 2 i 0.9049 0.5693 0.2365 0.020(27) 1. 0
H2 H1+ 2 i 0.3121 0.8587 0.7582 0.088(64) 1. 0
H3 H1+ 2 i 0.1664 0.0934 0.2289 0.006(22) 1. 0
H4 H1+ 2 i 0.7707 0.4618 0.8987 0.102(69) 1. 0
H5 H1+ 2 i 0.9726 0.6514 0.9901 0.061(49) 1. 0
H6 H1+ 2 i 0.3586 0.8473 0.0126 0.002(21) 1. 0
H7 H1+ 2 i 0.283 0.2711 0.9709 0.019(27) 1. 0
H8 H1+ 2 i 0.1628 0.0713 0.9145 0.023(29) 1. 0
loop_
_atom_site_aniso_label
_atom_site_aniso_type_symbol
_atom_site_aniso_U_11
_atom_site_aniso_U_22
_atom_site_aniso_U_33
_atom_site_aniso_U_12
_atom_site_aniso_U_13
_atom_site_aniso_U_23
Na1 Na1+ 0.0160(16) 0.017(2) 0.027(2) 0.0078(14) 0.0010(14) 0.0024(15)
Na2 Na1+ 0.0160(17) 0.016(2) 0.029(2) 0.0068(14) -0.0008(14) 0.0022(16)
Na3 Na1+ 0.0122(15) 0.019(2) 0.0228(19) 0.0057(14) -0.0009(14) 0.0004(15)
Bi1 Bi3+ 0.00965(15) 0.01229(18) 0.01628(16) 0.00416(11) -0.00034(10)
0.00039(11)
O1 O2- 0.007(3) 0.020(4) 0.024(3) 0.003(2) 0.001(2) 0.002(3)
O2 O2- 0.017(3) 0.011(3) 0.023(3) 0.008(2) -0.001(2) 0.001(2)
O3 O2- 0.016(3) 0.014(3) 0.022(3) 0.010(2) 0.002(2) -0.002(3)
O4 O2- 0.016(3) 0.018(4) 0.026(3) 0.008(3) 0.003(2) 0.002(3)
O5 O2- 0.033(4) 0.046(5) 0.032(4) 0.023(4) -0.006(3) -0.001(4)
O6 O2- 0.042(5) 0.036(5) 0.042(5) 0.009(4) -0.008(4) -0.007(4)
O7 O2- 0.065(6) 0.068(7) 0.031(5) 0.041(5) -0.006(4) -0.005(4)
#End of TTdata_412583-ICSD