
#(C) 2017 by FIZ Karlsruhe - Leibniz Institute for Information Infrastructure.  All rights reserved.
data_412729-ICSD
_database_code_ICSD 412729
_audit_creation_date 2003-10-01
_chemical_name_systematic 'Tetralithium trihydroxide iodide'
_chemical_formula_structural 'Li4 (O H)3 I'
_chemical_formula_sum 'H3 I1 Li4 O3'
_exptl_crystal_density_diffrn 2.2
_cell_measurement_temperature 100.
_publ_section_title
'Die Kristallstrukturen der Hydroxyhalogenide Li4 (O H)3 Br und Li4 (O H)3 I'
loop_
_citation_id
_citation_journal_full
_citation_year
_citation_journal_volume
_citation_page_first
_citation_page_last
_citation_journal_id_ASTM
primary 'Zeitschrift fuer Anorganische und Allgemeine Chemie (1950) (DE)' 2003
629 317 320 ZAACAB
loop_
_publ_author_name
'Hoennerscheid, A.'
'Nuss, J.'
'Muehle, C.'
'Jansen, M.'
_cell_length_a 10.295(4)
_cell_length_b 5.2588(19)
_cell_length_c 5.732(2)
_cell_angle_alpha 90.
_cell_angle_beta 90.
_cell_angle_gamma 90.
_cell_volume 310.33
_cell_formula_units_Z 2
_symmetry_space_group_name_H-M 'P m m n Z'
_symmetry_Int_Tables_number 59
_refine_ls_R_factor_all 0.0642
loop_
_symmetry_equiv_pos_site_id
_symmetry_equiv_pos_as_xyz
1 'x+1/2, y+1/2, -z'
2 '-x, y+1/2, -z'
3 'x+1/2, -y, -z'
4 '-x, -y, -z'
5 '-x+1/2, -y+1/2, z'
6 'x, -y+1/2, z'
7 '-x+1/2, y, z'
8 'x, y, z'
loop_
_atom_type_symbol
_atom_type_oxidation_number
I1- -1
O2- -2
Li1+ 1
H1+ 1
loop_
_atom_site_label
_atom_site_type_symbol
_atom_site_symmetry_multiplicity
_atom_site_Wyckoff_symbol
_atom_site_fract_x
_atom_site_fract_y
_atom_site_fract_z
_atom_site_B_iso_or_equiv
_atom_site_occupancy
_atom_site_attached_hydrogens
I1 I1- 2 a 0.25 0.25 0.39415(17) 0.0209(6) 1. 0
O2 O2- 4 f 0.4767(9) 0.25 0.8874(12) 0.0167(19) 1. 0
O3 O2- 2 b 0.25 -.25 -.069(2) 0.015(2) 1. 0
Li4 Li1+ 8 g 0.3844(13) -.022(3) 0.035(3) 0.023(3) 1. 0
loop_
_atom_site_aniso_label
_atom_site_aniso_type_symbol
_atom_site_aniso_U_11
_atom_site_aniso_U_22
_atom_site_aniso_U_33
_atom_site_aniso_U_12
_atom_site_aniso_U_13
_atom_site_aniso_U_23
I1 I1- 0.0073(7) 0.0309(9) 0.0244(8) 0 0 0
O2 O2- 0.006(4) 0.020(5) 0.024(5) 0 -0.001(3) 0
O3 O2- 0.004(6) 0.016(6) 0.027(6) 0 0 0
Li4 Li1+ 0.005(6) 0.025(7) 0.039(7) 0.001(5) 0.000(6) 0.001(7)
#End of TTdata_412729-ICSD