
#(C) 2019 by FIZ Karlsruhe - Leibniz Institute for Information Infrastructure.  All rights reserved.
data_413037-ICSD
_database_code_ICSD 413037
_audit_creation_date 2005-04-01
_chemical_name_systematic 'Octasodium tecto-hexaalumohexasilicate dinitrate(V)'
_chemical_formula_structural 'Na8 (Al Si O4)6 (N O3)2'
_chemical_formula_sum 'Al6 N2 Na8 O30 Si6'
_chemical_name_structure_type Sodalite-frame
_chemical_name_mineral 'Sodalite (nitrate-exchanged)'
_exptl_crystal_density_diffrn 2.21
_cell_measurement_temperature 935.
_publ_section_title

;
Anomalous thermal expansion behaviour of Na8 (Al Si O4)6 (N O3)2 - sodalite:
P4-3n to Pm3-n phase transition by untilting and contraction of T O4 units
;
loop_
_citation_id
_citation_journal_full
_citation_year
_citation_journal_volume
_citation_page_first
_citation_page_last
_citation_journal_id_ASTM
primary 'Zeitschrift fuer Kristallographie' 2003 218 332 344 ZEKRDZ
loop_
_publ_author_name
'Ruescher, C.H.'
'Gesing, T.M.'
'Buhl, J.C.'
_cell_length_a 9.153(1)
_cell_length_b 9.153(1)
_cell_length_c 9.153(1)
_cell_angle_alpha 90
_cell_angle_beta 90
_cell_angle_gamma 90
_cell_volume 766.81
_cell_formula_units_Z 1
_symmetry_space_group_name_H-M 'P -4 3 n'
_symmetry_Int_Tables_number 218
_refine_ls_R_factor_all 0.052
loop_
_symmetry_equiv_pos_site_id
_symmetry_equiv_pos_as_xyz
1 '-z+1/2, y+1/2, -x+1/2'
2 '-y+1/2, x+1/2, -z+1/2'
3 '-x+1/2, z+1/2, -y+1/2'
4 'z+1/2, -y+1/2, -x+1/2'
5 'y+1/2, -x+1/2, -z+1/2'
6 'x+1/2, -z+1/2, -y+1/2'
7 '-z+1/2, -y+1/2, x+1/2'
8 '-y+1/2, -x+1/2, z+1/2'
9 '-x+1/2, -z+1/2, y+1/2'
10 'z+1/2, y+1/2, x+1/2'
11 'y+1/2, x+1/2, z+1/2'
12 'x+1/2, z+1/2, y+1/2'
13 '-z, -x, y'
14 '-y, -z, x'
15 '-x, -y, z'
16 'z, -x, -y'
17 'y, -z, -x'
18 'x, -y, -z'
19 '-z, x, -y'
20 '-y, z, -x'
21 '-x, y, -z'
22 'z, x, y'
23 'y, z, x'
24 'x, y, z'
loop_
_atom_type_symbol
_atom_type_oxidation_number
Na1+ 1
Si4+ 4
Al3+ 3
O2- -2
N5+ 5
O2- -2
loop_
_atom_site_label
_atom_site_type_symbol
_atom_site_symmetry_multiplicity
_atom_site_Wyckoff_symbol
_atom_site_fract_x
_atom_site_fract_y
_atom_site_fract_z
_atom_site_B_iso_or_equiv
_atom_site_occupancy
_atom_site_attached_hydrogens
Na1 Na1+ 8 e 0.2201(9) 0.2201(9) 0.2201(9) 0.100(3) 0.5 0
Na2 Na1+ 8 e 0.3015(15) 0.3015(15) 0.3015(15) 0.100(7) 0.5 0
Si1 Si4+ 6 d 0.25 0 0.5 0.0224(4) 1. 0
Al1 Al3+ 6 c 0.25 0.5 0 0.0229(4) 1. 0
O1 O2- 24 i 0.1461(2) 0.1553(2) 0.5002(4) 0.0649(8) 1. 0
N1 N5+ 2 a 0.5 0.5 0.5 0.60(4) 1. 0
O2 O2- 24 i 0.3641(16) 0.4612(37) 0.495(12) 0.60(4) 0.0833 0
O3 O2- 24 i 0.5946(44) 0.4125(46) 0.5579(98) 0.60(4) 0.0833 0
O4 O2- 24 i 0.5330(44) 0.6366(30) 0.484(15) 0.60(4) 0.0833 0
loop_
_atom_site_aniso_label
_atom_site_aniso_type_symbol
_atom_site_aniso_U_11
_atom_site_aniso_U_22
_atom_site_aniso_U_33
_atom_site_aniso_U_12
_atom_site_aniso_U_13
_atom_site_aniso_U_23
Na1 Na1+ .1 .1 .1 .051 .051 .051
Na2 Na1+ .1 .1 .1 0. 0. 0.
O1 O2- .0438 .0454 .105 .0238 0. 0.
#End of TTdata_413037-ICSD