
#(C) 2018 by FIZ Karlsruhe - Leibniz Institute for Information Infrastructure.  All rights reserved.
data_413060-ICSD
_database_code_ICSD 413060
_audit_creation_date 2005-10-01
_chemical_name_systematic 'Dilithium selenate hydrate'
_chemical_formula_structural 'Li2 (Se O4) (H2 O)'
_chemical_formula_sum 'H2 Li2 O5 Se1'
_chemical_name_structure_type Li2SO4H2O
_exptl_crystal_density_diffrn 2.56
_publ_section_title

;
Thermal expansion, pyroelectricity and linear optical properties of
Li2SeO4.H2O and Li2SO4.H2O
;
loop_
_citation_id
_citation_journal_full
_citation_year
_citation_journal_volume
_citation_page_first
_citation_page_last
_citation_journal_id_ASTM
primary 'Crystal Research and Technology' 2003 38 881 889 CRTEDF
loop_
_publ_author_name
'Becker, P.'
'Ahrweiler, S.'
'Held, P.'
'Schneeberger, H.'
'Bohaty, L.'
_cell_length_a 5.5878(5)
_cell_length_b 5.0325(5)
_cell_length_c 8.4591(5)
_cell_angle_alpha 90.
_cell_angle_beta 107.660(10)
_cell_angle_gamma 90.
_cell_volume 226.66
_cell_formula_units_Z 2
_symmetry_space_group_name_H-M 'P 1 21 1'
_symmetry_Int_Tables_number 4
_refine_ls_R_factor_all 0.0394
loop_
_symmetry_equiv_pos_site_id
_symmetry_equiv_pos_as_xyz
1 '-x, y+1/2, -z'
2 'x, y, z'
loop_
_atom_type_symbol
_atom_type_oxidation_number
Li1+ 1
Se6+ 6
O2- -2
H1+ 1
loop_
_atom_site_label
_atom_site_type_symbol
_atom_site_symmetry_multiplicity
_atom_site_Wyckoff_symbol
_atom_site_fract_x
_atom_site_fract_y
_atom_site_fract_z
_atom_site_B_iso_or_equiv
_atom_site_occupancy
_atom_site_attached_hydrogens
Li1 Li1+ 2 a 0.6840(9) 0.503(2) 0.0022(6) 0.0176(8) 1 0
Li2 Li1+ 2 a 0.4379(10) 0.512(2) 0.6026(7) 0.0195(10) 1 0
Se1 Se6+ 2 a 0.71425(4) 0.00004(7) 0.79195(3) 0.01072(9) 1 0
O1 O2- 2 a 0.0090(4) 0.9227(6) 0.8293(3) 0.0227(5) 1 0
O2 O2- 2 a 0.5554(5) 0.8781(5) 0.6114(3) 0.0173(4) 1 0
O3 O2- 2 a 0.6047(5) 0.8719(5) 0.9338(3) 0.0173(4) 1 0
O4 O2- 2 a 0.6740(5) 0.3229(5) 0.7886(3) 0.0194(5) 1 0
O5 O2- 2 a 0.0936(6) 0.5396(9) 0.5985(5) 0.0401(11) 1 0
H1 H1+ 2 a 0.042(15) 0.60(2) 0.660(10) 0.07(3) 1 0
H2 H1+ 2 a 0.09(4) 0.51(6) 0.482(10) 0.33(12) 1 0
loop_
_atom_site_aniso_label
_atom_site_aniso_type_symbol
_atom_site_aniso_U_11
_atom_site_aniso_U_22
_atom_site_aniso_U_33
_atom_site_aniso_U_12
_atom_site_aniso_U_13
_atom_site_aniso_U_23
Li1 Li1+ 0.0178(18) 0.0179(19) 0.018(2) 0.001(4) 0.0067(15) -0.002(5)
Li2 Li1+ 0.025(2) 0.016(2) 0.0174(19) 0.002(4) 0.0069(17) 0.004(4)
Se1 Se6+ 0.01339(12) 0.00994(11) 0.00973(12) 0.0001(2) 0.00484(7) -0.0003(2)
O1 O2- 0.0133(9) 0.0302(13) 0.0250(11) 0.0022(8) 0.0064(8) -0.0077(10)
O2 O2- 0.0234(11) 0.0161(10) 0.0104(9) -0.0045(9) 0.0022(8) -0.0016(8)
O3 O2- 0.0232(11) 0.0177(10) 0.0168(10) 0.0033(8) 0.0147(9) 0.0055(8)
O4 O2- 0.0306(13) 0.0111(10) 0.0175(11) 0.0014(8) 0.0086(10) 0.0000(8)
O5 O2- 0.0309(13) 0.046(3) 0.0522(19) -0.0073(15) 0.0252(13) -0.0157(18)
#End of TTdata_413060-ICSD