
#(C) 2019 by FIZ Karlsruhe - Leibniz Institute for Information Infrastructure.  All rights reserved.
data_413050-ICSD
_database_code_ICSD 413050
_audit_creation_date 2005-10-01
_chemical_name_systematic 'Potasium sodium heptaoxodisulfate'
_chemical_formula_structural 'K Na S2 O7'
_chemical_formula_sum 'K1 Na1 O7 S2'
_exptl_crystal_density_diffrn 2.57
_publ_section_title

;
The crystal structure determinations and refinements of K2 S2 O7, K Na S2 O7,
and Na2 S2 O7 from X-ray powder diffraction and single-crystal data
;
loop_
_citation_id
_citation_journal_full
_citation_year
_citation_journal_volume
_citation_page_first
_citation_page_last
_citation_journal_id_ASTM
primary 'Journal of Solid State Chemistry' 2005 178 1697 1704 JSSCBI
loop_
_publ_author_name
'Stahl, K.'
'Balic Zunic, T.'
'da Silva, F.'
'Eriksen, K.M.'
'Berg, R.W.'
'Fehrmann, R.'
_cell_length_a 5.90495(9)
_cell_length_b 7.20112(11)
_cell_length_c 7.41885(11)
_cell_angle_alpha 101.70674(8)
_cell_angle_beta 90.69455(8)
_cell_angle_gamma 94.23869(8)
_cell_volume 307.94
_cell_formula_units_Z 2
_symmetry_space_group_name_H-M 'P -1'
_symmetry_Int_Tables_number 2
loop_
_symmetry_equiv_pos_site_id
_symmetry_equiv_pos_as_xyz
1 '-x, -y, -z'
2 'x, y, z'
loop_
_atom_type_symbol
_atom_type_oxidation_number
S6+ 6
O2- -2
S6+ 6
O2- -2
K1+ 1
Na1+ 1
loop_
_atom_site_label
_atom_site_type_symbol
_atom_site_symmetry_multiplicity
_atom_site_Wyckoff_symbol
_atom_site_fract_x
_atom_site_fract_y
_atom_site_fract_z
_atom_site_B_iso_or_equiv
_atom_site_occupancy
_atom_site_attached_hydrogens
S1 S6+ 2 i 0.70894(5) 0.72618(5) 0.69213(5) 3.123(1) 1. 0
O1 O2- 2 i 0.74525(11) 0.84432(9) 0.57450(9) 4.101(2) 1. 0
O2 O2- 2 i 0.89888(11) 0.62018(9) 0.69625(9) 4.380(2) 1. 0
O3 O2- 2 i 0.50912(11) 0.62963(8) 0.69049(8) 2.945(2) 1. 0
O4 O2- 2 i 0.73774(10) 0.86087(8) 0.90359(9) 2.941(2) 1. 0
S2 S6+ 2 i 0.27668(4) 0.17183(4) 0.90689(4) 1.786(1) 1. 0
O5 O2- 2 i 0.09732(9) 0.30116(7) 0.88670(7) 1.039(1) 1. 0
O6 O2- 2 i 0.22935(9) 0.98379(9) 0.80298(8) 2.533(2) 1. 0
O7 O2- 2 i 0.50040(10) 0.26170(7) 0.88293(7) 1.369(1) 1. 0
K1 K1+ 2 i 0.77274(4) 0.22129(3) 0.57050(3) 3.931(1) 1. 0
Na1 Na1+ 2 i 0.21188(6) 0.64200(5) 0.89176(5) 4.573(2) 1. 0
#End of TTdata_413050-ICSD