
#(C) 2019 by FIZ Karlsruhe - Leibniz Institute for Information Infrastructure.  All rights reserved.
data_413148-ICSD
_database_code_ICSD 413148
_audit_creation_date 2004-04-01
_chemical_name_systematic 'Sodium arsenate(III)'
_chemical_formula_structural 'Na (As O2)'
_chemical_formula_sum 'As1 Na1 O2'
_chemical_name_structure_type Ni2SiP
_exptl_crystal_density_diffrn 3.5
_publ_section_title

;
Die neuen Oxoarsenate(III) A As O2 (A= Na, K, Rb) und Cs3 As5 O9. Darstellung,
Kristallstrukturen und Raman- Spektren
;
loop_
_citation_id
_citation_journal_full
_citation_year
_citation_journal_volume
_citation_page_first
_citation_page_last
_citation_journal_id_ASTM
primary 'Zeitschrift fuer Naturforschung, B: A Journal of Chemical Sciences'
2003 58 620 626 ZNBSEN
loop_
_publ_author_name
'Emmerling, F.'
'Roehr, C.'
_cell_length_a 14.296(9)
_cell_length_b 6.773(3)
_cell_length_c 5.091(2)
_cell_angle_alpha 90.
_cell_angle_beta 90.
_cell_angle_gamma 90.
_cell_volume 492.95
_cell_formula_units_Z 8
_symmetry_space_group_name_H-M 'P b c a'
_symmetry_Int_Tables_number 61
_refine_ls_R_factor_all 0.049
loop_
_symmetry_equiv_pos_site_id
_symmetry_equiv_pos_as_xyz
1 'x+1/2, y, -z+1/2'
2 'x, -y+1/2, z+1/2'
3 '-x+1/2, y+1/2, z'
4 '-x, -y, -z'
5 '-x+1/2, -y, z+1/2'
6 '-x, y+1/2, -z+1/2'
7 'x+1/2, -y+1/2, -z'
8 'x, y, z'
loop_
_atom_type_symbol
_atom_type_oxidation_number
Na1+ 1
As3+ 3
O2- -2
loop_
_atom_site_label
_atom_site_type_symbol
_atom_site_symmetry_multiplicity
_atom_site_Wyckoff_symbol
_atom_site_fract_x
_atom_site_fract_y
_atom_site_fract_z
_atom_site_B_iso_or_equiv
_atom_site_occupancy
_atom_site_attached_hydrogens
Na1 Na1+ 8 c 0.0555(3) 0.6009(7) 0.2531(14) 0.0331(10) 1. 0
As1 As3+ 8 c 0.17127(8) 0.10552(18) 0.2666(3) 0.0276(4) 1. 0
O1 O2- 8 c 0.4095(7) 0.4304(14) 0.216(3) 0.0410(26) 1. 0
O2 O2- 8 c 0.1194(7) 0.1983(11) 0.5711(18) 0.0290(19) 1. 0
loop_
_atom_site_aniso_label
_atom_site_aniso_type_symbol
_atom_site_aniso_U_11
_atom_site_aniso_U_22
_atom_site_aniso_U_33
_atom_site_aniso_U_12
_atom_site_aniso_U_13
_atom_site_aniso_U_23
Na1 Na1+ 0.051(2) 0.018(2) 0.030(2) -0.003(2) 0.007(3) -0.005(4)
As1 As3+ 0.0315(5) 0.0264(6) 0.0251(6) 0.0009(6) 0.0007(8) -0.0009(8)
O1 O2- 0.044(5) 0.035(5) 0.044(7) 0.000(4) 0.001(5) 0.009(6)
O2 O2- 0.053(5) 0.011(4) 0.023(4) -0.002(4) 0.003(4) -0.003(3)
#End of TTdata_413148-ICSD