
#(C) 2019 by FIZ Karlsruhe - Leibniz Institute for Information Infrastructure.  All rights reserved.
data_413267-ICSD
_database_code_ICSD 413267
_audit_creation_date 2012-08-01
_chemical_name_systematic 'Disodium copper tetranitrate'
_chemical_formula_structural 'Na2 (Cu (N O3)4)'
_chemical_formula_sum 'Cu1 N4 Na2 O12'
_exptl_crystal_density_diffrn 2.44
_cell_measurement_temperature 180.
_publ_section_title

;
Synthesis and crystal structure of copper(II) nitrate complexes N O (Cu (N
O3)3), Na2 (Cu (N O3)4) and Ag2 (Cu (N O3)4)
;
loop_
_citation_id
_citation_journal_full
_citation_year
_citation_journal_volume
_citation_page_first
_citation_page_last
_citation_journal_id_ASTM
primary 'Zhurnal Neorganicheskoi Khimii' 2004 49 213 220 ZNOKAQ
loop_
_publ_author_name
'Znamenkov, K.O.'
'Morozov, I.V.'
'Troyanov, S.I.'
_cell_length_a 7.021(2)
_cell_length_b 7.661(2)
_cell_length_c 9.033(3)
_cell_angle_alpha 90.
_cell_angle_beta 90.42(3)
_cell_angle_gamma 90.
_cell_volume 485.85
_cell_formula_units_Z 2
_symmetry_space_group_name_H-M 'P 1 21/c 1'
_symmetry_Int_Tables_number 14
_refine_ls_R_factor_all 0.025
loop_
_symmetry_equiv_pos_site_id
_symmetry_equiv_pos_as_xyz
1 'x, -y+1/2, z+1/2'
2 '-x, -y, -z'
3 '-x, y+1/2, -z+1/2'
4 'x, y, z'
loop_
_atom_type_symbol
_atom_type_oxidation_number
Cu2+ 2
Na1+ 1
N5+ 5
O2- -2
loop_
_atom_site_label
_atom_site_type_symbol
_atom_site_symmetry_multiplicity
_atom_site_Wyckoff_symbol
_atom_site_fract_x
_atom_site_fract_y
_atom_site_fract_z
_atom_site_B_iso_or_equiv
_atom_site_occupancy
_atom_site_attached_hydrogens
Cu1 Cu2+ 2 a 0. 0. 0. 0.01069(14) 1 0
Na1 Na1+ 4 e 0.27784(13) 0.44142(13) -0.11363(9) 0.0186(2) 1 0
N1 N5+ 4 e 0.1451(3) 0.1036(2) -0.26957(18) 0.0126(4) 1 0
N2 N5+ 4 e -0.3072(3) 0.2091(2) -0.05851(18) 0.0139(4) 1 0
O1 O2- 4 e 0.1520(2) 0.1481(2) -0.13071(14) 0.0157(3) 1 0
O2 O2- 4 e 0.2369(3) 0.1925(2) -0.35753(16) 0.0217(4) 1 0
O3 O2- 4 e -0.0467(2) 0.4762(2) -0.19393(17) 0.0190(4) 1 0
O4 O2- 4 e -0.1708(2) 0.2015(2) 0.03787(16) 0.0184(4) 1 0
O5 O2- 4 e 0.4129(2) 0.6624(2) 0.05337(18) 0.0235(4) 1 0
O6 O2- 4 e 0.3245(3) 0.5886(3) -0.35171(18) 0.0287(4) 1 0
loop_
_atom_site_aniso_label
_atom_site_aniso_type_symbol
_atom_site_aniso_U_11
_atom_site_aniso_U_22
_atom_site_aniso_U_33
_atom_site_aniso_U_12
_atom_site_aniso_U_13
_atom_site_aniso_U_23
Cu1 Cu2+ 0.0156(2) 0.0088(2) 0.00765(18) 0.00249(14) 0.00049(12) 0.00134(12)
Na1 Na1+ 0.0198(5) 0.0152(5) 0.0207(4) -0.0015(3) -0.0060(3) 0.0023(3)
N1 N5+ 0.0166(9) 0.0108(10) 0.0104(7) 0.0015(7) -0.0004(6) 0.0001(6)
N2 N5+ 0.0153(9) 0.0104(10) 0.0161(8) 0.0007(7) 0.0032(6) 0.0008(6)
O1 O2- 0.0265(9) 0.0139(9) 0.0069(6) -0.0031(6) 0.0019(5) -0.0029(5)
O2 O2- 0.0294(9) 0.0219(10) 0.0140(7) -0.0023(7) 0.0061(6) 0.0060(6)
O3 O2- 0.0226(9) 0.0145(9) 0.0200(7) 0.0031(6) -0.0063(6) 0.0043(6)
O4 O2- 0.0210(8) 0.0168(9) 0.0174(7) 0.0038(6) -0.0030(6) 0.0007(6)
O5 O2- 0.0199(9) 0.0141(10) 0.0365(9) 0.0072(7) -0.0007(7) -0.0003(6)
O6 O2- 0.0407(11) 0.0200(11) 0.0253(8) -0.0021(8) -0.0021(7) 0.0118(7)
#End of TTdata_413267-ICSD