
#(C) 2019 by FIZ Karlsruhe - Leibniz Institute for Information Infrastructure.  All rights reserved.
data_413337-ICSD
_database_code_ICSD 413337
_audit_creation_date 2009-02-01
_chemical_name_systematic 'Tetrapotassium decaaquadisodium decavanadate(V)'
_chemical_formula_structural 'K4 (Na2 (H2 O)10) (V10 O28)'
_chemical_formula_sum 'H20 K4 Na2 O38 V10'
_chemical_name_structure_type K2NaV5O14(H2O)5
_exptl_crystal_density_diffrn 2.69
_cell_measurement_temperature 293.
_publ_section_title 'The crystal structure of Li2 Ba P2 O7'
loop_
_citation_id
_citation_journal_full
_citation_year
_citation_journal_volume
_citation_page_first
_citation_page_last
_citation_journal_id_ASTM
primary 'Private Communication' 2003 2003 1 1 PRICO6
loop_
_publ_author_name
'Kutoglu, A.'
'Nikolov, V.'
'Petrov, K.'
'Allmann, R.'
_cell_length_a 8.5809(12)
_cell_length_b 10.3406(14)
_cell_length_c 10.9742(15)
_cell_angle_alpha 69.207(2)
_cell_angle_beta 87.128(2)
_cell_angle_gamma 66.177(2)
_cell_volume 827.81
_cell_formula_units_Z 1
_symmetry_space_group_name_H-M 'P -1'
_symmetry_Int_Tables_number 2
_refine_ls_R_factor_all 0.0288
loop_
_symmetry_equiv_pos_site_id
_symmetry_equiv_pos_as_xyz
1 '-x, -y, -z'
2 'x, y, z'
loop_
_atom_type_symbol
_atom_type_oxidation_number
V5+ 5
K1+ 1
Na1+ 1
O2- -2
H1+ 1
O2- -2
H1+ 1
O2- -2
H1+ 1
O2- -2
H1+ 1
O2- -2
H1+ 1
loop_
_atom_site_label
_atom_site_type_symbol
_atom_site_symmetry_multiplicity
_atom_site_Wyckoff_symbol
_atom_site_fract_x
_atom_site_fract_y
_atom_site_fract_z
_atom_site_B_iso_or_equiv
_atom_site_occupancy
_atom_site_attached_hydrogens
V1 V5+ 2 i 0.81078(5) 0.49960(4) 0.02006(4) 0.01766(13) 1 0
V2 V5+ 2 i 0.97439(6) 0.20797(5) 0.26610(4) 0.02274(14) 1 0
V3 V5+ 2 i 1.02953(6) 0.49438(5) 0.24544(4) 0.02029(13) 1 0
V4 V5+ 2 i 1.32975(6) 0.21091(5) 0.22358(4) 0.02238(14) 1 0
V5 V5+ 2 i 1.12307(6) 0.21483(5) -0.00071(4) 0.02028(13) 1 0
K1 K1+ 2 i 1.31539(9) 0.78865(7) 0.00580(7) 0.03528(18) 1 0
K2 K1+ 2 i 1.23426(12) 0.18231(9) 0.57298(8) 0.0656(3) 1 0
Na1 Na1+ 2 i 1.42938(14) 0.66749(12) 0.36883(11) 0.0310(3) 1 0
O1 O2- 2 i 1.1036(2) 0.61955(19) 0.08695(17) 0.0192(4) 1 0
O2 O2- 2 i 0.9948(2) 0.5978(2) 0.33301(18) 0.0265(4) 1 0
O3 O2- 2 i 1.3749(2) 0.37490(19) 0.07228(18) 0.0222(4) 1 0
O4 O2- 2 i 1.2523(2) 0.36175(19) 0.29855(17) 0.0227(4) 1 0
O5 O2- 2 i 0.4763(2) 0.8898(2) -0.2911(2) 0.0311(5) 1 0
O6 O2- 2 i 0.7653(2) 0.36759(19) 0.14248(17) 0.0219(4) 1 0
O7 O2- 2 i 0.8409(2) 0.8866(2) 0.08995(19) 0.0273(4) 1 0
O8 O2- 2 i 1.0186(2) 0.12948(19) 0.13205(18) 0.0226(4) 1 0
O9 O2- 2 i 0.8943(3) 0.1027(2) 0.3655(2) 0.0334(5) 1 0
O10 O2- 2 i 0.7945(2) 0.88367(19) -0.32585(18) 0.0247(4) 1 0
O11 O2- 2 i 0.6703(2) 0.86781(19) -0.09564(18) 0.0226(4) 1 0
O12 O2- 2 i 0.9436(2) 0.35770(19) 0.33473(17) 0.0232(4) 1 0
O13 O2- 2 i 1.0696(2) 0.37492(18) 0.10647(16) 0.0181(4) 1 0
O14 O2- 2 i 0.8183(2) 0.61672(18) 0.11933(16) 0.0184(4) 1 0
O15 O2- 2 i 0.7031(3) 0.4879(3) 0.4860(2) 0.0345(5) 1 0
H1 H1+ 2 i 0.765(4) 0.445(4) 0.438(3) 0.055(8) 1 0
H2 H1+ 2 i 0.770(3) 0.494(4) 0.534(3) 0.055(8) 1 0
O16 O2- 2 i 1.4708(3) 0.5177(3) 0.2448(2) 0.0405(6) 1 0
H3 H1+ 2 i 1.563(2) 0.470(3) 0.219(3) 0.049(8) 1 0
H4 H1+ 2 i 1.406(3) 0.474(3) 0.248(3) 0.049(8) 1 0
O17 O2- 2 i 0.5292(3) 0.8140(3) 0.2013(3) 0.0557(7) 1 0
H5 H1+ 2 i 0.611(3) 0.769(3) 0.165(3) 0.058(8) 1 0
H6 H1+ 2 i 0.491(4) 0.9075(13) 0.156(3) 0.058(8) 1 0
O18 O2- 2 i 0.1600(3) 0.8165(2) 0.2444(3) 0.0472(6) 1 0
H7 H1+ 2 i 0.089(3) 0.783(3) 0.233(4) 0.059(8) 1 0
H8 H1+ 2 i 0.101(4) 0.9113(13) 0.223(4) 0.059(8) 1 0
O19 O2- 2 i 0.4301(4) 0.8224(3) 0.4772(2) 0.0483(6) 1 0
H9 H1+ 2 i 0.352(4) 0.912(2) 0.444(4) 0.093(12) 1 0
H10 H1+ 2 i 0.463(6) 0.811(4) 0.553(2) 0.093(12) 1 0
loop_
_atom_site_aniso_label
_atom_site_aniso_type_symbol
_atom_site_aniso_U_11
_atom_site_aniso_U_22
_atom_site_aniso_U_33
_atom_site_aniso_U_12
_atom_site_aniso_U_13
_atom_site_aniso_U_23
V1 V5+ 0.0152(3) 0.0180(2) 0.0198(3) -0.00717(19) 0.00277(18) -0.00669(19)
V2 V5+ 0.0221(3) 0.0212(2) 0.0220(3) -0.0095(2) 0.00300(19) -0.00410(19)
V3 V5+ 0.0217(3) 0.0205(2) 0.0182(2) -0.0077(2) 0.00201(18) -0.00762(18)
V4 V5+ 0.0185(3) 0.0206(2) 0.0237(3) -0.00589(19) -0.00095(18) -0.00536(19)
V5 V5+ 0.0212(3) 0.0169(2) 0.0219(3) -0.00683(19) 0.00215(18) -0.00734(18)
K1 K1+ 0.0329(4) 0.0326(3) 0.0427(4) -0.0133(3) 0.0057(3) -0.0169(3)
K2 K1+ 0.0683(6) 0.0485(5) 0.0414(5) 0.0127(4) -0.0020(4) -0.0152(4)
Na1 Na1+ 0.0330(7) 0.0299(6) 0.0317(6) -0.0149(5) 0.0039(5) -0.0108(5)
O1 O2- 0.0176(9) 0.0193(8) 0.0209(9) -0.0082(7) 0.0020(7) -0.0071(7)
O2 O2- 0.0294(11) 0.0292(10) 0.0253(10) -0.0120(9) 0.0043(8) -0.0152(8)
O3 O2- 0.0165(10) 0.0233(9) 0.0245(10) -0.0067(8) 0.0019(7) -0.0080(8)
O4 O2- 0.0211(10) 0.0247(9) 0.0204(10) -0.0095(8) 0.0006(7) -0.0060(8)
O5 O2- 0.0241(11) 0.0284(10) 0.0330(11) -0.0050(9) -0.0045(8) -0.0082(9)
O6 O2- 0.0196(10) 0.0226(9) 0.0235(10) -0.0102(8) 0.0043(7) -0.0069(7)
O7 O2- 0.0270(11) 0.0227(9) 0.0339(11) -0.0080(8) 0.0038(8) -0.0148(8)
O8 O2- 0.0232(10) 0.0180(8) 0.0261(10) -0.0092(8) 0.0024(8) -0.0067(7)
O9 O2- 0.0355(12) 0.0321(11) 0.0325(11) -0.0195(10) 0.0062(9) -0.0056(9)
O10 O2- 0.0244(10) 0.0197(9) 0.0241(10) -0.0069(8) 0.0006(8) -0.0040(8)
O11 O2- 0.0202(10) 0.0192(9) 0.0247(10) -0.0040(8) 0.0025(7) -0.0086(7)
O12 O2- 0.0242(10) 0.0252(9) 0.0198(9) -0.0109(8) 0.0053(8) -0.0073(8)
O13 O2- 0.0162(10) 0.0182(8) 0.0192(9) -0.0071(7) 0.0021(7) -0.0059(7)
O14 O2- 0.0167(9) 0.0187(8) 0.0196(9) -0.0061(7) 0.0035(7) -0.0084(7)
O15 O2- 0.0299(12) 0.0447(13) 0.0275(12) -0.0130(10) 0.0042(9) -0.0148(10)
O16 O2- 0.0318(13) 0.0506(14) 0.0603(16) -0.0240(11) 0.0204(11) -0.0379(12)
O17 O2- 0.0568(18) 0.0295(12) 0.0696(18) -0.0143(12) 0.0421(14) -0.0145(12)
O18 O2- 0.0422(14) 0.0255(11) 0.0683(17) -0.0117(10) -0.0164(12) -0.0106(11)
O19 O2- 0.0638(17) 0.0348(12) 0.0321(13) -0.0052(12) -0.0090(12) -0.0124(10)
#End of TTdata_413337-ICSD