
#(C) 2019 by FIZ Karlsruhe - Leibniz Institute for Information Infrastructure.  All rights reserved.
data_413634-ICSD
_database_code_ICSD 413634
_audit_creation_date 2005-04-01
_chemical_name_systematic 'Dilanthanum sodium iridium oxide'
_chemical_formula_structural 'La2 Na Ir O6'
_chemical_formula_sum 'Ir1 La2 Na1 O6'
_chemical_name_structure_type Perovskite-Na3AlF6
_exptl_crystal_density_diffrn 7.34
_cell_measurement_temperature 294.
_publ_section_title

;
The crystal growth and characterization of the lanthanide-containing double
perovskites Ln2 Na Ir O6 (Ln= La, Pr, Nd).
;
loop_
_citation_id
_citation_journal_full
_citation_year
_citation_journal_volume
_citation_page_first
_citation_page_last
_citation_journal_id_ASTM
primary 'Solid State Sciences' 2004 6 413 417 SSSCFJ
loop_
_publ_author_name
'Davis, M.J.'
'Mugavero, S.J.'
'Glab, K.I.'
'Smith, M.D.'
'zur Loye, H.C.'
_cell_length_a 5.5959(3)
_cell_length_b 5.9499(4)
_cell_length_c 8.0213(5)
_cell_angle_alpha 90.
_cell_angle_beta 90.425(2)
_cell_angle_gamma 90.
_cell_volume 267.06
_cell_formula_units_Z 2
_symmetry_space_group_name_H-M 'P 1 21/n 1'
_symmetry_Int_Tables_number 14
_refine_ls_R_factor_all 0.0288
loop_
_symmetry_equiv_pos_site_id
_symmetry_equiv_pos_as_xyz
1 '-x+1/2, y+1/2, -z+1/2'
2 '-x, -y, -z'
3 'x+1/2, -y+1/2, z+1/2'
4 'x, y, z'
loop_
_atom_type_symbol
_atom_type_oxidation_number
La3+ 3
Na1+ 1
Ir5+ 5
O2- -2
loop_
_atom_site_label
_atom_site_type_symbol
_atom_site_symmetry_multiplicity
_atom_site_Wyckoff_symbol
_atom_site_fract_x
_atom_site_fract_y
_atom_site_fract_z
_atom_site_B_iso_or_equiv
_atom_site_occupancy
_atom_site_attached_hydrogens
La1 La3+ 4 e 0.48283(11) 0.06557(9) 0.25175(7) 0.00745(15) 1 0
Na1 Na1+ 2 a 0. 0. 0. 0.0071(10) 1 0
Ir1 Ir5+ 2 b 0.5 0.5 0. 0.00532(14) 1 0
O1 O2- 4 e 0.2123(12) 0.3239(12) 0.0485(9) 0.0064(14) 1 0
O2 O2- 4 e 0.6032(13) 0.4617(12) 0.2314(9) 0.0068(14) 1 0
O3 O2- 4 e 0.3305(13) 0.7796(13) 0.0588(9) 0.0085(14) 1 0
loop_
_atom_site_aniso_label
_atom_site_aniso_type_symbol
_atom_site_aniso_U_11
_atom_site_aniso_U_22
_atom_site_aniso_U_33
_atom_site_aniso_U_12
_atom_site_aniso_U_13
_atom_site_aniso_U_23
La1 La3+ 0.0073(3) 0.0067(3) 0.0083(3) -0.0002(2) 0.0002(2) 0.00044(19)
Ir1 Ir5+ 0.0056(3) 0.0042(2) 0.0061(2) -0.00019(19) 0.0006(2) -0.00002(19)
#End of TTdata_413634-ICSD