
#(C) 2019 by FIZ Karlsruhe - Leibniz Institute for Information Infrastructure.  All rights reserved.
data_413673-ICSD
_database_code_ICSD 413673
_audit_creation_date 2005-10-01
_chemical_name_systematic 'Undecasodium tetraoxocuprate tris(sulfate(VI))'
_chemical_formula_structural 'Na11 (Cu O4) (S O4)3'
_chemical_formula_sum 'Cu1 Na11 O16 S3'
_exptl_crystal_density_diffrn 2.64
_publ_section_title 'Synthesis and characterization of Na11 (Cu O4) (S O4)3'
loop_
_citation_id
_citation_journal_full
_citation_year
_citation_journal_volume
_citation_page_first
_citation_page_last
_citation_journal_id_ASTM
primary 'Journal of Solid State Chemistry' 2004 177 2889 2895 JSSCBI
loop_
_publ_author_name
'Amann, P.'
'Kataev, V.'
'Moeller, A.'
_cell_length_a 16.0163(15)
_cell_length_b 7.0578(7)
_cell_length_c 14.902(2)
_cell_angle_alpha 90.
_cell_angle_beta 90.
_cell_angle_gamma 90.
_cell_volume 1684.52
_cell_formula_units_Z 4
_symmetry_space_group_name_H-M 'P n m a'
_symmetry_Int_Tables_number 62
_refine_ls_R_factor_all 0.0892
loop_
_symmetry_equiv_pos_site_id
_symmetry_equiv_pos_as_xyz
1 'x+1/2, y, -z+1/2'
2 'x, -y+1/2, z'
3 '-x+1/2, y+1/2, z+1/2'
4 '-x, -y, -z'
5 '-x+1/2, -y, z+1/2'
6 '-x, y+1/2, -z'
7 'x+1/2, -y+1/2, -z+1/2'
8 'x, y, z'
loop_
_atom_type_symbol
_atom_type_oxidation_number
Cu3+ 3
O2- -2
S6+ 6
O2- -2
S6+ 6
O2- -2
S6+ 6
O2- -2
Na1+ 1
loop_
_atom_site_label
_atom_site_type_symbol
_atom_site_symmetry_multiplicity
_atom_site_Wyckoff_symbol
_atom_site_fract_x
_atom_site_fract_y
_atom_site_fract_z
_atom_site_B_iso_or_equiv
_atom_site_occupancy
_atom_site_attached_hydrogens
Cu1 Cu3+ 4 c 0.37582(5) 0.25 0.23622(4) 0.00768(12) 1 0
O1 O2- 4 c 0.4913(2) 0.25 0.2344(2) 0.0102(8) 1 0
O2 O2- 4 c 0.2610(3) 0.25 0.2399(2) 0.0119(9) 1 0
O3 O2- 4 c 0.3788(3) 0.25 0.3624(2) 0.0120(7) 1 0
O4 O2- 4 c 0.3733(3) 0.25 0.1098(2) 0.0119(7) 1 0
S1 S6+ 4 c 0.13207(10) 0.25 0.48519(7) 0.0133(3) 1 0
O5 O2- 4 c 0.2007(3) 0.25 0.5512(3) 0.0288(11) 1 0
O6 O2- 4 c 0.0506(3) 0.25 0.5306(3) 0.0270(11) 1 0
O7 O2- 8 d 0.1380(2) 0.0800(3) 0.42723(17) 0.0186(7) 1 0
S2 S6+ 4 c 0.12647(13) 0.75 0.24303(8) 0.0111(2) 1 0
O8 O2- 4 c 0.2036(3) 0.75 0.2975(3) 0.0236(10) 1 0
O9 O2- 8 d 0.1246(2) 0.5819(4) 0.18448(19) 0.0255(7) 1 0
O10 O2- 4 c 0.0541(3) 0.75 0.3029(3) 0.0239(10) 1 0
S3 S6+ 4 c 0.38379(11) 0.75 0.47739(8) 0.0197(3) 1 0
O11 O2- 4 c 0.3984(3) 0.75 0.3794(3) 0.0340(13) 1 0
O12 O2- 8 d 0.3276(4) 0.9157(8) 0.4979(4) 0.0479(14) 0.65 0
O13 O2- 8 d 0.4386(9) 0.9106(15) 0.5078(8) 0.0479(14) 0.35 0
O14 O2- 8 d 0.4542(9) 0.793(2) 0.5289(8) 0.066(4) 0.32 0
O15 O2- 8 d 0.3014(16) 0.803(4) 0.502(2) 0.066(4) 0.18 0
Na1 Na1+ 4 c 0.1188(2) 0.75 0.01185(16) 0.0384(7) 1 0
Na2 Na1+ 4 c 0.1269(2) 0.25 0.26394(15) 0.0243(5) 1 0
Na3 Na1+ 8 d 0.48373(11) 0.0272(2) 0.12277(10) 0.0190(4) 1 0
Na4 Na1+ 8 d 0.27569(11) 0.0217(2) 0.35271(11) 0.0183(4) 1 0
Na5 Na1+ 8 d 0.48767(11) 0.0371(2) 0.35354(11) 0.0199(4) 1 0
Na6 Na1+ 8 d 0.25764(11) 0.0382(3) 0.12336(11) 0.0195(4) 1 0
Na7 Na1+ 4 c 0.1347(2) 0.75 0.45990(14) 0.0290(6) 1 0
loop_
_atom_site_aniso_label
_atom_site_aniso_type_symbol
_atom_site_aniso_U_11
_atom_site_aniso_U_22
_atom_site_aniso_U_33
_atom_site_aniso_U_12
_atom_site_aniso_U_13
_atom_site_aniso_U_23
Cu1 Cu3+ 0.0043(3) 0.0090(2) 0.0097(2) 0. -0.0001(3) 0.
O1 O2- 0.006(2) 0.0108(19) 0.0136(14) 0. -0.0002(14) 0.
O2 O2- 0.008(2) 0.018(2) 0.0097(17) 0. -0.0014(13) 0.
O3 O2- 0.0105(18) 0.0144(16) 0.0111(15) 0. 0.0019(15) 0.
O4 O2- 0.0146(19) 0.0132(16) 0.0079(15) 0. 0.0022(15) 0.
S1 S6+ 0.0196(7) 0.0084(5) 0.0120(6) 0. -0.0007(5) 0.
O5 O2- 0.039(3) 0.018(2) 0.029(2) 0. -0.0246(19) 0.
O6 O2- 0.030(3) 0.020(2) 0.032(2) 0. 0.0156(19) 0.
O7 O2- 0.0251(19) 0.0132(12) 0.0175(13) 0.0013(12) 0.0006(12) -0.0049(9)
S2 S6+ 0.0100(6) 0.0093(5) 0.0141(6) 0. -0.0004(5) 0.
O8 O2- 0.018(3) 0.020(2) 0.033(2) 0. -0.0104(18) 0.
O9 O2- 0.0199(16) 0.0268(14) 0.0299(15) -0.0035(15) 0.0032(14) -0.0175(11)
O10 O2- 0.023(3) 0.023(2) 0.025(2) 0. 0.0151(17) 0.
S3 S6+ 0.0287(9) 0.0166(6) 0.0137(7) 0. -0.0066(6) 0.
O11 O2- 0.048(3) 0.029(2) 0.026(2) 0. 0.0160(19) 0.
O12 O2- 0.092(4) 0.026(2) 0.026(2) 0.010(3) 0.009(3) 0.0033(19)
O13 O2- 0.092(4) 0.026(2) 0.026(2) 0.010(3) 0.009(3) 0.0033(19)
Na1 Na1+ 0.067(2) 0.0264(13) 0.0218(12) 0. 0.0046(14) 0.
Na2 Na1+ 0.0068(10) 0.0319(11) 0.0341(11) 0. 0.0011(11) 0.
Na3 Na1+ 0.0160(10) 0.0187(8) 0.0221(8) 0.0030(7) 0.0003(6) -0.0070(6)
Na4 Na1+ 0.0159(9) 0.0185(8) 0.0206(8) -0.0045(7) -0.0019(7) 0.0050(6)
Na5 Na1+ 0.0147(9) 0.0201(9) 0.0248(8) 0.0060(7) 0.0010(7) 0.0090(6)
Na6 Na1+ 0.0171(10) 0.0216(10) 0.0198(9) -0.0054(7) 0.0004(6) -0.0076(6)
Na7 Na1+ 0.0570(18) 0.0160(11) 0.0139(10) 0. 0.0030(12) 0.
#End of TTdata_413673-ICSD