
#(C) 2019 by FIZ Karlsruhe - Leibniz Institute for Information Infrastructure.  All rights reserved.
data_4137-ICSD
_database_code_ICSD 4137
_audit_creation_date 1980-01-01
_audit_update_record 2012-02-01
_chemical_name_systematic 'Sodium catena-vanadate'
_chemical_formula_structural 'Na (V O3)'
_chemical_formula_sum 'Na1 O3 V1'
_chemical_name_structure_type NaVO3(Cc)
_exptl_crystal_density_diffrn 2.95
_publ_section_title
'Crystal structure of ferroelectric sodium metavanadate, Na V O3'
loop_
_citation_id
_citation_journal_full
_citation_year
_citation_journal_volume
_citation_page_first
_citation_page_last
_citation_journal_id_ASTM
primary Ferroelectrics 1975 9 49 56 FEROA8
loop_
_publ_author_name
'Ramani, K.'
'Shaikh, A.M.'
'Reddy, B.S.'
'Viswamitra, M.A.'
_cell_length_a 10.494(9)
_cell_length_b 9.434(7)
_cell_length_c 5.863(6)
_cell_angle_alpha 90.
_cell_angle_beta 108.8
_cell_angle_gamma 90.
_cell_volume 549.47
_cell_formula_units_Z 8
_symmetry_space_group_name_H-M 'C 1 c 1'
_symmetry_Int_Tables_number 9
_refine_ls_R_factor_all 0.077
loop_
_symmetry_equiv_pos_site_id
_symmetry_equiv_pos_as_xyz
1 'x, -y, z+1/2'
2 'x, y, z'
3 'x+1/2, -y+1/2, z+1/2'
4 'x+1/2, y+1/2, z'
loop_
_atom_type_symbol
_atom_type_oxidation_number
Na1+ 1
V5+ 5
O2- -2
V5+ 5
O2- -2
loop_
_atom_site_label
_atom_site_type_symbol
_atom_site_symmetry_multiplicity
_atom_site_Wyckoff_symbol
_atom_site_fract_x
_atom_site_fract_y
_atom_site_fract_z
_atom_site_B_iso_or_equiv
_atom_site_occupancy
_atom_site_attached_hydrogens
Na1 Na1+ 4 a 0 0.912 0.25 . 1. 0
Na2 Na1+ 4 a 0 0.295(2) 0.25 . 1. 0
V1 V5+ 4 a 0.2925 0.0897 0.2609(8) . 1. 0
O1 O2- 4 a 0.127(2) 0.099(2) 0.164(4) . 1. 0
O2 O2- 4 a 0.356(2) 0.247(2) 0.324(4) . 1. 0
O3 O2- 4 a 0.352(2) 0.008(2) 0.042(4) . 1. 0
V2 V5+ 4 a -.2924(4) -.0898(4) -.2613(8) . 1. 0
O4 O2- 4 a -.127(2) -.101(2) -.165(2) . 1. 0
O5 O2- 4 a -.357(2) -.248(2) -.317(3) . 1. 0
O6 O2- 4 a -.353 -.006(2) -.037(4) . 1. 0
loop_
_atom_site_aniso_label
_atom_site_aniso_type_symbol
_atom_site_aniso_beta_11
_atom_site_aniso_beta_22
_atom_site_aniso_beta_33
_atom_site_aniso_beta_12
_atom_site_aniso_beta_13
_atom_site_aniso_beta_23
Na1 Na1+ 0.005(2) 0.007(1) 0.033(6) 0 0.003(2) 0
Na2 Na1+ 0.008(2) 0.008(2) 0.035(6) 0 0.003(3) 0
V1 V5+ 0.0040(4) 0.0058(4) 0.0245(18) -.0002(3) 0.0022(7) -.0002(6)
O1 O2- 0.005(2) 0.007(2) 0.0030(8) -.001(1) 0.002(3) -.002(2)
O2 O2- 0.009(2) 0.007(2) 0.033(8) -.001(2) 0.005(3) 0.000(3)
O3 O2- 0.007(2) 0.009(2) 0.032(9) -.001(2) 0.004(3) -.001(3)
V2 V5+ 0.0036(4) 0.0058(4) 0.0229(17) -.0004(3) 0.0018(6) -.0003(6)
O4 O2- 0.004(2) 0.007(2) 0.035(8) -.001(1) 0.002(3) 0.001(3)
O5 O2- 0.014(3) 0.006(2) 0.022(7) -.001(2) 0.009(4) -.001(2)
O6 O2- 0.007(2) 0.011(2) 0.024(9) 0.002(2) 0.003(3) -.001(3)
#End of TTdata_4137-ICSD