
#(C) 2019 by FIZ Karlsruhe - Leibniz Institute for Information Infrastructure.  All rights reserved.
data_414034-ICSD
_database_code_ICSD 414034
_audit_creation_date 2005-10-01
_audit_update_record 2006-04-01
_chemical_name_systematic 'Heptasodium tricuprate(III)'
_chemical_formula_structural 'Na7 (Cu3 O8)'
_chemical_formula_sum 'Cu3 Na7 O8'
_exptl_crystal_density_diffrn 3.36
_publ_section_title

;
Synthesis and crystal structure of Na7 Cu3 O8, containing a new type of
oxocuprate(III) oligoanion
;
loop_
_citation_id
_citation_journal_full
_citation_year
_citation_journal_volume
_citation_page_first
_citation_page_last
_citation_journal_id_ASTM
primary 'Zeitschrift fuer Anorganische und Allgemeine Chemie (1950) (DE)' 2004
630 1547 1549 ZAACAB
loop_
_publ_author_name
'Sofin, M.'
'Peters, E.M.'
'Jansen, M.'
_cell_length_a 5.5891(2)
_cell_length_b 6.0945(2)
_cell_length_c 7.8890(3)
_cell_angle_alpha 110.059(2)
_cell_angle_beta 108.669(2)
_cell_angle_gamma 90.237(2)
_cell_volume 237.17
_cell_formula_units_Z 1
_symmetry_space_group_name_H-M 'P -1'
_symmetry_Int_Tables_number 2
_refine_ls_R_factor_all 0.0699
loop_
_symmetry_equiv_pos_site_id
_symmetry_equiv_pos_as_xyz
1 '-x, -y, -z'
2 'x, y, z'
loop_
_atom_type_symbol
_atom_type_oxidation_number
Cu3+ 3
Na1+ 1
O2- -2
loop_
_atom_site_label
_atom_site_type_symbol
_atom_site_symmetry_multiplicity
_atom_site_Wyckoff_symbol
_atom_site_fract_x
_atom_site_fract_y
_atom_site_fract_z
_atom_site_B_iso_or_equiv
_atom_site_occupancy
_atom_site_attached_hydrogens
Cu1 Cu3+ 1 a 0. 0. 0. 0.01076(17) 1 0
Cu2 Cu3+ 2 i -0.25327(8) 0.24843(8) 0.23859(7) 0.01111(16) 1 0
Na1 Na1+ 1 b 0. 0. 0.5 0.110(3) 1.052(16) 0
Na2 Na1+ 2 i -0.2503(3) 0.6294(3) 0.0581(2) 0.0209(4) 1 0
Na3 Na1+ 2 i -0.3750(3) 0.1622(3) -0.2909(2) 0.0192(4) 1 0
Na4 Na1+ 2 i 0.7145(3) -0.3894(3) -0.3850(2) 0.0206(4) 1 0
O1 O2- 2 i 0.3484(5) -0.1928(5) -0.4221(4) 0.0158(6) 1 0
O2 O2- 2 i 0.1286(6) -0.2816(5) -0.0501(4) 0.0200(6) 1 0
O3 O2- 2 i 0.0350(5) -0.0099(5) -0.2238(4) 0.0161(6) 1 0
O4 O2- 2 i -0.4264(6) 0.5017(6) 0.2501(4) 0.0209(6) 1 0
loop_
_atom_site_aniso_label
_atom_site_aniso_type_symbol
_atom_site_aniso_U_11
_atom_site_aniso_U_22
_atom_site_aniso_U_33
_atom_site_aniso_U_12
_atom_site_aniso_U_13
_atom_site_aniso_U_23
Cu1 Cu3+ 0.0146(3) 0.0114(3) 0.0118(3) 0.0059(2) 0.0090(3) 0.0065(2)
Cu2 Cu3+ 0.0132(2) 0.0127(2) 0.0123(2) 0.00576(17) 0.00797(18) 0.00705(17)
Na1 Na1+ 0.113(4) 0.240(7) 0.079(3) 0.152(5) 0.088(3) 0.130(4)
Na2 Na1+ 0.0238(8) 0.0165(8) 0.0273(9) 0.0035(7) 0.0118(7) 0.0112(7)
Na3 Na1+ 0.0245(8) 0.0176(8) 0.0169(8) 0.0068(7) 0.0081(7) 0.0071(7)
Na4 Na1+ 0.0178(7) 0.0196(8) 0.0247(8) 0.0044(6) 0.0103(7) 0.0058(7)
O1 O2- 0.0191(13) 0.0194(14) 0.0158(13) 0.0089(11) 0.0112(11) 0.0098(11)
O2 O2- 0.0302(15) 0.0174(14) 0.0214(15) 0.0107(12) 0.0168(13) 0.0104(12)
O3 O2- 0.0207(14) 0.0176(14) 0.0168(13) 0.0083(11) 0.0117(12) 0.0093(11)
O4 O2- 0.0272(15) 0.0232(15) 0.0249(16) 0.0162(13) 0.0181(14) 0.0151(13)
#End of TTdata_414034-ICSD