
#(C) 2019 by FIZ Karlsruhe - Leibniz Institute for Information Infrastructure.  All rights reserved.
data_414148-ICSD
_database_code_ICSD 414148
_audit_creation_date 2005-10-01
_chemical_name_systematic 'Praseodymium sodium ruthenium oxide'
_chemical_formula_structural 'Pr2 Na Ru O6'
_chemical_formula_sum 'Na1 O6 Pr2 Ru1'
_chemical_name_structure_type Perovskite-Na3AlF6
_exptl_crystal_density_diffrn 6.47
_publ_section_title

;
Synthesis and magnetic properties of the double perovskites Ln2 Na Ru O6 (Ln =
La, Pr, Nd)
;
loop_
_citation_id
_citation_journal_full
_citation_year
_citation_journal_volume
_citation_page_first
_citation_page_last
_citation_journal_id_ASTM
primary 'Journal of Solid State Chemistry' 2004 177 3560 3567 JSSCBI
loop_
_publ_author_name
'Gemmill, W.R.'
'Smith, M.D.'
'zur Loye, H.C.'
_cell_length_a 5.5173(2)
_cell_length_b 5.9119(2)
_cell_length_c 7.9039(3)
_cell_angle_alpha 90.
_cell_angle_beta 90.7860(10)
_cell_angle_gamma 90.
_cell_volume 257.78
_cell_formula_units_Z 2
_symmetry_space_group_name_H-M 'P 1 21/n 1'
_symmetry_Int_Tables_number 14
_refine_ls_R_factor_all 0.0301
loop_
_symmetry_equiv_pos_site_id
_symmetry_equiv_pos_as_xyz
1 '-x+1/2, y+1/2, -z+1/2'
2 '-x, -y, -z'
3 'x+1/2, -y+1/2, z+1/2'
4 'x, y, z'
loop_
_atom_type_symbol
_atom_type_oxidation_number
Pr3+ 3
Na1+ 1
Ru5+ 5
O2- -2
loop_
_atom_site_label
_atom_site_type_symbol
_atom_site_symmetry_multiplicity
_atom_site_Wyckoff_symbol
_atom_site_fract_x
_atom_site_fract_y
_atom_site_fract_z
_atom_site_B_iso_or_equiv
_atom_site_occupancy
_atom_site_attached_hydrogens
Pr1 Pr3+ 4 e 0.48165(4) 0.07033(4) 0.25273(3) 0.00471(8) 1 0
Na1 Na1+ 2 a 0. 0. 0. 0.0056(4) 1 0
Ru1 Ru5+ 2 b 0.5 0.5 0. 0.00366(10) 1 0
O1 O2- 4 e 0.2082(6) 0.3273(5) 0.0500(4) 0.0064(5) 1 0
O2 O2- 4 e 0.6136(6) 0.4518(5) 0.2318(4) 0.0063(5) 1 0
O3 O2- 4 e 0.3350(5) 0.7799(5) 0.0653(4) 0.0066(5) 1 0
loop_
_atom_site_aniso_label
_atom_site_aniso_type_symbol
_atom_site_aniso_U_11
_atom_site_aniso_U_22
_atom_site_aniso_U_33
_atom_site_aniso_U_12
_atom_site_aniso_U_13
_atom_site_aniso_U_23
Pr1 Pr3+ 0.00497(11) 0.00437(11) 0.00479(10) -0.00020(7) 0.00021(7) 0.00008(7)
Na1 Na1+ 0.0022(9) 0.0094(11) 0.0053(10) -0.0012(8) 0.0010(8) -0.0001(9)
Ru1 Ru5+ 0.00410(18) 0.00370(19) 0.00318(17) -0.00008(14) -0.00015(14)
0.00023(15)
O1 O2- 0.0086(12) 0.0038(13) 0.0070(12) -0.0014(10) 0.0011(10) -0.0006(10)
O2 O2- 0.0081(12) 0.0051(13) 0.0057(12) -0.0037(10) -0.0006(10) 0.0001(10)
O3 O2- 0.0067(12) 0.0042(13) 0.0090(13) 0.0020(10) 0.0015(10) -0.0008(11)
#End of TTdata_414148-ICSD