
#(C) 2018 by FIZ Karlsruhe - Leibniz Institute for Information Infrastructure.  All rights reserved.
data_414189-ICSD
_database_code_ICSD 414189
_audit_creation_date 2005-10-01
_audit_update_record 2010-08-01
_chemical_name_systematic 'Dirubidium lithium tetrathioniobate'
_chemical_formula_structural 'Rb2 Li (Nb S4)'
_chemical_formula_sum 'Li1 Nb1 Rb2 S4'
_chemical_name_structure_type Rb2LiNbS4
_exptl_crystal_density_diffrn 2.97
_cell_measurement_temperature 153.
_publ_section_title

;
Syntheses and structures of six compounds in the A2 Li M S4 (A= K, Rb, Cs; M=
V, Nb, Ta) family
;
loop_
_citation_id
_citation_journal_full
_citation_year
_citation_journal_volume
_citation_page_first
_citation_page_last
_citation_journal_id_ASTM
primary 'Journal of Solid State Chemistry' 2005 178 194 199 JSSCBI
loop_
_publ_author_name
'Huang, F.-Q.'
'Deng, B.'
'Ibers, J.A.'
_cell_length_a 7.0285(4)
_cell_length_b 11.3919(7)
_cell_length_c 11.8129(7)
_cell_angle_alpha 71.7610(10)
_cell_angle_beta 87.8770(10)
_cell_angle_gamma 83.8760(10)
_cell_volume 893.18
_cell_formula_units_Z 4
_symmetry_space_group_name_H-M 'P -1'
_symmetry_Int_Tables_number 2
_refine_ls_R_factor_all 0.0436
loop_
_symmetry_equiv_pos_site_id
_symmetry_equiv_pos_as_xyz
1 '-x, -y, -z'
2 'x, y, z'
loop_
_atom_type_symbol
_atom_type_oxidation_number
Rb1+ 1
Li1+ 1
Nb5+ 5
S2- -2
loop_
_atom_site_label
_atom_site_type_symbol
_atom_site_symmetry_multiplicity
_atom_site_Wyckoff_symbol
_atom_site_fract_x
_atom_site_fract_y
_atom_site_fract_z
_atom_site_B_iso_or_equiv
_atom_site_occupancy
_atom_site_attached_hydrogens
Rb1 Rb1+ 2 i 0.24745(7) 0.84526(4) 0.14400(4) 0.01547(12) 1 0
Rb2 Rb1+ 2 i 0.24856(7) 0.34928(4) 0.65165(4) 0.01524(12) 1 0
Rb3 Rb1+ 2 i 0.26502(7) 0.37554(4) 0.27699(4) 0.01752(12) 1 0
Rb4 Rb1+ 2 i 0.68401(7) 0.09778(4) 0.24971(4) 0.01833(12) 1 0
Li1 Li1+ 2 i 0.1781(13) 0.0139(8) 0.4156(8) 0.0205(19) 1 0
Li2 Li1+ 2 i 0.7743(14) 0.4755(8) 0.0705(8) 0.025(2) 1 0
Nb1 Nb5+ 2 i 0.21827(6) 0.23016(4) 0.01354(3) 0.00895(10) 1 0
Nb2 Nb5+ 2 i 0.22526(6) 0.72652(4) 0.51378(3) 0.00858(10) 1 0
S1 S2- 2 i 0.03368(17) 0.62698(11) 0.06247(11) 0.0155(3) 1 0
S2 S2- 2 i 0.05471(17) 0.14703(11) 0.53435(11) 0.0140(2) 1 0
S3 S2- 2 i 0.17024(19) 0.11717(12) 0.20643(11) 0.0179(3) 1 0
S4 S2- 2 i 0.25384(18) 0.59765(11) 0.40174(10) 0.0147(3) 1 0
S5 S2- 2 i 0.26800(18) 0.10306(11) 0.89991(10) 0.0148(3) 1 0
S6 S2- 2 i 0.47178(17) 0.33955(11) 0.00549(11) 0.0168(3) 1 0
S7 S2- 2 i 0.54121(17) 0.14435(11) 0.53168(11) 0.0171(3) 1 0
S8 S2- 2 i 0.76231(18) 0.37907(11) 0.28851(10) 0.0152(3) 1 0
loop_
_atom_site_aniso_label
_atom_site_aniso_type_symbol
_atom_site_aniso_U_11
_atom_site_aniso_U_22
_atom_site_aniso_U_33
_atom_site_aniso_U_12
_atom_site_aniso_U_13
_atom_site_aniso_U_23
Rb1 Rb1+ 0.0180(3) 0.0123(2) 0.0154(2) -0.00208(18) 0.00032(18) -0.00308(18)
Rb2 Rb1+ 0.0199(3) 0.0114(2) 0.0136(2) -0.00194(18) -0.00064(18) -0.00252(18)
Rb3 Rb1+ 0.0196(3) 0.0175(3) 0.0185(2) 0.00084(19) -0.00216(19) -0.0106(2)
Rb4 Rb1+ 0.0224(3) 0.0169(3) 0.0179(2) 0.0023(2) -0.00431(19) -0.0095(2)
Li1 Li1+ 0.026(5) 0.011(4) 0.020(4) -0.002(4) 0.006(4) 0.001(3)
Li2 Li1+ 0.033(5) 0.020(5) 0.017(4) 0.001(4) 0.005(4) -0.002(4)
Nb1 Nb5+ 0.0114(2) 0.0084(2) 0.0073(2) -0.00111(16) 0.00066(15) -0.00283(16)
Nb2 Nb5+ 0.0105(2) 0.0081(2) 0.0073(2) -0.00106(15) 0.00029(15) -0.00266(16)
S1 S2- 0.0134(6) 0.0132(6) 0.0208(6) 0.0017(5) -0.0030(5) -0.0071(5)
S2 S2- 0.0111(6) 0.0123(6) 0.0189(6) 0.0006(4) -0.0012(4) -0.0058(5)
S3 S2- 0.0280(7) 0.0152(6) 0.0098(6) -0.0049(5) 0.0042(5) -0.0027(5)
S4 S2- 0.0216(7) 0.0125(6) 0.0116(6) -0.0008(5) 0.0008(5) -0.0063(5)
S5 S2- 0.0221(7) 0.0133(6) 0.0106(6) -0.0003(5) 0.0009(5) -0.0064(5)
S6 S2- 0.0136(6) 0.0139(6) 0.0236(7) -0.0034(5) 0.0002(5) -0.0061(5)
S7 S2- 0.0128(6) 0.0134(6) 0.0250(7) -0.0042(5) 0.0038(5) -0.0051(5)
S8 S2- 0.0229(7) 0.0143(6) 0.0075(5) -0.0026(5) 0.0001(5) -0.0020(5)
#End of TTdata_414189-ICSD