
#(C) 2019 by FIZ Karlsruhe - Leibniz Institute for Information Infrastructure.  All rights reserved.
data_414253-ICSD
_database_code_ICSD 414253
_audit_creation_date 2005-10-01
_chemical_name_systematic Dipotassium-mu-amidosodiumdiamide
_chemical_formula_structural 'K2 Na (N H2)3'
_chemical_formula_sum 'H6 K2 N3 Na1'
_chemical_name_structure_type LiK2(NH2)3
_exptl_crystal_density_diffrn 1.63
_publ_section_title

;
K2 Li (N H2)3 and K2 Na (N H2)3  - Synthesis and crystal structure of two
crystal-chemically isotypic mixed-cationic amides
;
loop_
_citation_id
_citation_journal_full
_citation_year
_citation_journal_volume
_citation_page_first
_citation_page_last
_citation_journal_id_ASTM
primary 'Journal of Solid State Chemistry' 2005 178 1241 1246 JSSCBI
loop_
_publ_author_name
'Kraus, F.'
'Korber, N.'
_cell_length_a 7.0044(5)
_cell_length_b 7.0044(5)
_cell_length_c 12.3617(13)
_cell_angle_alpha 90.
_cell_angle_beta 90.
_cell_angle_gamma 90.
_cell_volume 606.49
_cell_formula_units_Z 4
_symmetry_space_group_name_H-M 'P 42/m'
_symmetry_Int_Tables_number 84
_refine_ls_R_factor_all 0.0456
loop_
_symmetry_equiv_pos_site_id
_symmetry_equiv_pos_as_xyz
1 '-y, x, -z+1/2'
2 'y, -x, -z+1/2'
3 'x, y, -z'
4 '-x, -y, -z'
5 'y, -x, z+1/2'
6 '-y, x, z+1/2'
7 '-x, -y, z'
8 'x, y, z'
loop_
_atom_type_symbol
_atom_type_oxidation_number
K1+ 1
Na1+ 1
N3- -3
H1+ 1
N3- -3
H1+ 1
loop_
_atom_site_label
_atom_site_type_symbol
_atom_site_symmetry_multiplicity
_atom_site_Wyckoff_symbol
_atom_site_fract_x
_atom_site_fract_y
_atom_site_fract_z
_atom_site_B_iso_or_equiv
_atom_site_occupancy
_atom_site_attached_hydrogens
K1 K1+ 4 i 0. -0.5 0.15207(4) 0.01321(11) 1 0
K2 K1+ 2 a 0. 0. 0. 0.01430(16) 1 0
K3 K1+ 2 f -0.5 -0.5 0.25 0.01575(16) 1 0
Na1 Na1+ 4 j 0.36440(15) -0.67047(15) 0. 0.0110(2) 1 0
N1 N3- 4 j 0.7265(3) -0.6589(4) 0. 0.0141(5) 1 0
H1 H1+ 8 k 0.711(4) -0.739(3) 0.0539(16) 0.045(8) 1 0
N2 N3- 8 k 0.2673(3) -0.8072(3) 0.16351(13) 0.0150(4) 1 0
H2 H1+ 8 k 0.170(3) -0.851(4) 0.2110(18) 0.039(7) 1 0
H3 H1+ 8 k 0.320(3) -0.910(3) 0.152(2) 0.042(9) 1 0
loop_
_atom_site_aniso_label
_atom_site_aniso_type_symbol
_atom_site_aniso_U_11
_atom_site_aniso_U_22
_atom_site_aniso_U_33
_atom_site_aniso_U_12
_atom_site_aniso_U_13
_atom_site_aniso_U_23
K1 K1+ 0.0121(3) 0.0148(3) 0.0127(2) 0.0015(2) 0. 0.
K2 K1+ 0.0122(4) 0.0121(4) 0.0186(3) -0.0014(4) 0. 0.
K3 K1+ 0.0129(2) 0.0129(2) 0.0215(4) 0. 0. 0.
Na1 Na1+ 0.0099(6) 0.0107(6) 0.0124(5) -0.0011(5) 0. 0.
N1 N3- 0.0103(12) 0.0118(12) 0.0201(13) 0.0017(10) 0. 0.
N2 N3- 0.0162(9) 0.0129(9) 0.0159(8) -0.0001(7) 0.0014(6) 0.0018(6)
#End of TTdata_414253-ICSD