
#(C) 2019 by FIZ Karlsruhe - Leibniz Institute for Information Infrastructure.  All rights reserved.
data_414248-ICSD
_database_code_ICSD 414248
_audit_creation_date 2007-04-01
_chemical_name_systematic 'Disodium cobalt(II) bis(hydrogenphosphate(III))'
_chemical_formula_structural 'Na2 (Co (H P O3)2)'
_chemical_formula_sum 'H2 Co1 Na2 O6 P2'
_chemical_name_structure_type Na2Fe(HPO3)2
_exptl_crystal_density_diffrn 2.96
_publ_section_title

;
Two novel transition-metal phosphite compounds with 4-, 6- and 12-membered
rings: hydrothermal syntheses, crystal structures and magnetic properties of
Na2 [M (H P O3)2] (M= Fe, Co)
;
loop_
_citation_id
_citation_journal_full
_citation_year
_citation_journal_volume
_citation_page_first
_citation_page_last
_citation_journal_id_ASTM
primary 'European Journal of Inorganic Chemistry' 2005 2005 946 951 EJICFO
loop_
_publ_author_name
'Liu, W.'
'Chen, H.-H.'
'Yang, X.-X.'
'Zhao, J.-T.'
_cell_length_a 12.091(3)
_cell_length_b 5.3998(14)
_cell_length_c 9.115(2)
_cell_angle_alpha 90.
_cell_angle_beta 90.
_cell_angle_gamma 90.
_cell_volume 595.11
_cell_formula_units_Z 4
_symmetry_space_group_name_H-M 'P n m a'
_symmetry_Int_Tables_number 62
_refine_ls_R_factor_all 0.0222
loop_
_symmetry_equiv_pos_site_id
_symmetry_equiv_pos_as_xyz
1 'x+1/2, y, -z+1/2'
2 'x, -y+1/2, z'
3 '-x+1/2, y+1/2, z+1/2'
4 '-x, -y, -z'
5 '-x+1/2, -y, z+1/2'
6 '-x, y+1/2, -z'
7 'x+1/2, -y+1/2, -z+1/2'
8 'x, y, z'
loop_
_atom_type_symbol
_atom_type_oxidation_number
Co2+ 2
P3+ 3
Na1+ 1
O2- -2
H1+ 1
loop_
_atom_site_label
_atom_site_type_symbol
_atom_site_symmetry_multiplicity
_atom_site_Wyckoff_symbol
_atom_site_fract_x
_atom_site_fract_y
_atom_site_fract_z
_atom_site_B_iso_or_equiv
_atom_site_occupancy
_atom_site_attached_hydrogens
Co1 Co2+ 4 c 0.33981(3) 0.25 0.13620(4) 0.01140(14) 1 0
P1 P3+ 4 c 0.48366(6) -0.25 0.12612(8) 0.01110(18) 1 0
P2 P3+ 4 c 0.31565(6) 0.25 0.50116(8) 0.01165(18) 1 0
Na1 Na1+ 4 c 0.22060(11) 0.25 -0.17356(15) 0.0231(3) 1 0
Na2 Na1+ 4 c 0.59545(10) 0.25 0.27665(16) 0.0225(3) 1 0
O1 O2- 8 d 0.45110(12) -0.0187(3) 0.21132(18) 0.0172(3) 1 0
O2 O2- 4 c 0.26928(18) 0.25 0.3465(2) 0.0185(5) 1 0
O3 O2- 8 d 0.21378(13) -0.0160(3) 0.08444(19) 0.0228(4) 1 0
O4 O2- 4 c 0.39588(17) 0.25 -0.0794(2) 0.0178(5) 1 0
H1 H1+ 4 c 0.436(4) 0.25 0.494(5) 0.05 1 0
H2 H1+ 4 c 0.417(4) -0.25 0.009(5) 0.05 1 0
loop_
_atom_site_aniso_label
_atom_site_aniso_type_symbol
_atom_site_aniso_U_11
_atom_site_aniso_U_22
_atom_site_aniso_U_33
_atom_site_aniso_U_12
_atom_site_aniso_U_13
_atom_site_aniso_U_23
Co1 Co2+ 0.0108(2) 0.0108(2) 0.0126(2) 0. 0.00093(13) 0.
P1 P3+ 0.0102(4) 0.0101(4) 0.0130(4) 0. 0.0003(3) 0.
P2 P3+ 0.0106(3) 0.0117(4) 0.0127(4) 0. 0.0006(3) 0.
Na1 Na1+ 0.0195(7) 0.0252(7) 0.0246(7) 0. -0.0054(5) 0.
Na2 Na1+ 0.0160(6) 0.0225(7) 0.0291(7) 0. -0.0068(5) 0.
O1 O2- 0.0182(7) 0.0141(7) 0.0192(7) 0.0045(6) -0.0014(6) -0.0030(6)
O2 O2- 0.0160(11) 0.0275(12) 0.0120(10) 0. 0.0014(8) 0.
O3 O2- 0.0199(8) 0.0203(8) 0.0283(9) -0.0057(6) 0.0060(7) -0.0108(7)
O4 O2- 0.0133(10) 0.0238(12) 0.0164(10) 0. 0.0030(8) 0.
#End of TTdata_414248-ICSD