
#(C) 2019 by FIZ Karlsruhe - Leibniz Institute for Information Infrastructure.  All rights reserved.
data_414247-ICSD
_database_code_ICSD 414247
_audit_creation_date 2007-04-01
_audit_update_record 2011-02-01
_chemical_name_systematic 'Disodium bis(hydrogenphosphato(V))ferrate(II)'
_chemical_formula_structural 'Na2 (Fe (H P O3)2)'
_chemical_formula_sum 'H2 Fe1 Na2 O6 P2'
_chemical_name_structure_type Na2Fe(HPO3)2
_exptl_crystal_density_diffrn 2.87
_publ_section_title

;
Two novel transition-metal phosphite compounds with 4-, 6- and 12-membered
rings: hydrothermal syntheses, crystal structures and magnetic properties of
Na2 [M (H P O3)2] (M= Fe, Co)
;
loop_
_citation_id
_citation_journal_full
_citation_year
_citation_journal_volume
_citation_page_first
_citation_page_last
_citation_journal_id_ASTM
primary 'European Journal of Inorganic Chemistry' 2005 2005 946 951 EJICFO
loop_
_publ_author_name
'Liu, W.'
'Chen, H.-H.'
'Yang, X.-X.'
'Zhao, J.-T.'
_cell_length_a 12.169(4)
_cell_length_b 5.441(2)
_cell_length_c 9.164(3)
_cell_angle_alpha 90.
_cell_angle_beta 90.
_cell_angle_gamma 90.
_cell_volume 606.76
_cell_formula_units_Z 4
_symmetry_space_group_name_H-M 'P n m a'
_symmetry_Int_Tables_number 62
_refine_ls_R_factor_all 0.023
loop_
_symmetry_equiv_pos_site_id
_symmetry_equiv_pos_as_xyz
1 'x+1/2, y, -z+1/2'
2 'x, -y+1/2, z'
3 '-x+1/2, y+1/2, z+1/2'
4 '-x, -y, -z'
5 '-x+1/2, -y, z+1/2'
6 '-x, y+1/2, -z'
7 'x+1/2, -y+1/2, -z+1/2'
8 'x, y, z'
loop_
_atom_type_symbol
_atom_type_oxidation_number
Fe2+ 2
P3+ 3
Na1+ 1
O2- -2
H1+ 1
loop_
_atom_site_label
_atom_site_type_symbol
_atom_site_symmetry_multiplicity
_atom_site_Wyckoff_symbol
_atom_site_fract_x
_atom_site_fract_y
_atom_site_fract_z
_atom_site_B_iso_or_equiv
_atom_site_occupancy
_atom_site_attached_hydrogens
Fe1 Fe2+ 4 c 0.15981(3) 0.25 0.63677(4) 0.01158(15) 1 0
P1 P3+ 4 c 0.01541(6) -0.25 0.62811(8) 0.01149(19) 1 0
P2 P3+ 4 c 0.18449(6) 0.25 1.00274(8) 0.01202(19) 1 0
Na1 Na1+ 4 c 0.09639(10) 0.75 0.22549(15) 0.0234(3) 1 0
Na2 Na1+ 4 c 0.27949(10) 0.25 0.32700(15) 0.0243(3) 1 0
O1 O2- 8 d 0.04821(12) -0.0204(3) 0.71229(17) 0.0188(3) 1 0
O2 O2- 4 c 0.23096(18) 0.25 0.8490(2) 0.0196(5) 1 0
O3 O2- 8 d 0.28633(12) -0.0177(3) 0.58570(18) 0.0248(4) 1 0
O4 O2- 4 c 0.10423(17) 0.25 0.4184(2) 0.0194(5) 1 0
H1 H1+ 4 c 0.0699 0.25 0.9971 0.05 1 0
H2 H1+ 4 c 0.075(4) -0.25 0.510(5) 0.05 1 0
loop_
_atom_site_aniso_label
_atom_site_aniso_type_symbol
_atom_site_aniso_U_11
_atom_site_aniso_U_22
_atom_site_aniso_U_33
_atom_site_aniso_U_12
_atom_site_aniso_U_13
_atom_site_aniso_U_23
Fe1 Fe2+ 0.0126(2) 0.0122(2) 0.0099(2) 0. -0.00075(13) 0.
P1 P3+ 0.0116(3) 0.0118(3) 0.0111(4) 0. -0.0001(2) 0.
P2 P3+ 0.0126(3) 0.0132(4) 0.0103(4) 0. -0.0002(2) 0.
Na1 Na1+ 0.0185(6) 0.0255(7) 0.0263(7) 0. 0.0054(5) 0.
Na2 Na1+ 0.0216(7) 0.0284(7) 0.0229(7) 0. 0.0056(5) 0.
O1 O2- 0.0219(7) 0.0159(7) 0.0187(8) -0.0047(6) 0.0012(6) -0.0037(6)
O2 O2- 0.0172(11) 0.0326(13) 0.0090(10) 0. 0.0000(8) 0.
O3 O2- 0.0228(8) 0.0235(8) 0.0279(9) 0.0062(6) -0.0080(7) -0.0126(7)
O4 O2- 0.0144(10) 0.0287(12) 0.0152(10) 0. -0.0025(8) 0.
#End of TTdata_414247-ICSD