
#(C) 2019 by FIZ Karlsruhe - Leibniz Institute for Information Infrastructure.  All rights reserved.
data_414468-ICSD
_database_code_ICSD 414468
_audit_creation_date 2008-08-01
_chemical_name_systematic
'Sodium hydroxo aquapolychromatophosphate hydroxide hydrate *'
_chemical_formula_structural '(Cr9 P12 O50 (O H)4 (H2 O)4) Na18 (H2 O)23 (O H)'
_chemical_formula_sum 'H59 Cr9 Na18 O82 P12'
_exptl_crystal_density_diffrn 2.45
_cell_measurement_temperature 293.
_publ_section_title

;
Synthesis of a novel chromium-phosphate built up with unprecedented [Cr9 P12
O58 H12]17- clusters under hydrothermal conditions
;
loop_
_citation_id
_citation_journal_full
_citation_year
_citation_journal_volume
_citation_page_first
_citation_page_last
_citation_journal_id_ASTM
primary 'Journal of Solid State Chemistry' 2007 180 2117 2120 JSSCBI
loop_
_publ_author_name
'Liu Wei'
'Xiong Ding Bang'
'Yang Xin Xin'
'Zhao Jing Tai'
_cell_length_a 17.002(3)
_cell_length_b 26.333(5)
_cell_length_c 16.017(3)
_cell_angle_alpha 90.
_cell_angle_beta 96.63(3)
_cell_angle_gamma 90.
_cell_volume 7123.07
_cell_formula_units_Z 4
_symmetry_space_group_name_H-M 'C 1 2/c 1'
_symmetry_Int_Tables_number 15
_refine_ls_R_factor_all 0.085
loop_
_symmetry_equiv_pos_site_id
_symmetry_equiv_pos_as_xyz
1 'x, -y, z+1/2'
2 '-x, -y, -z'
3 '-x, y, -z+1/2'
4 'x, y, z'
5 'x+1/2, -y+1/2, z+1/2'
6 '-x+1/2, -y+1/2, -z'
7 '-x+1/2, y+1/2, -z+1/2'
8 'x+1/2, y+1/2, z'
loop_
_atom_type_symbol
_atom_type_oxidation_number
Cr3+ 3
P5+ 5
O2- -2
Na1+ 1
O2- -2
H1+ 1
loop_
_atom_site_label
_atom_site_type_symbol
_atom_site_symmetry_multiplicity
_atom_site_Wyckoff_symbol
_atom_site_fract_x
_atom_site_fract_y
_atom_site_fract_z
_atom_site_B_iso_or_equiv
_atom_site_occupancy
_atom_site_attached_hydrogens
Cr1 Cr3+ 4 d 0.25 0.25 0.5 0.0106(3) 1 0
Cr2 Cr3+ 8 f 0.20000(5) 0.17167(3) 0.62245(5) 0.0132(2) 1 0
Cr3 Cr3+ 8 f 0.11085(5) 0.17785(3) 0.45504(5) 0.0121(2) 1 0
Cr4 Cr3+ 8 f 0.27202(5) 0.13686(3) 0.47653(6) 0.0133(2) 1 0
Cr5 Cr3+ 8 f 0.07549(5) 0.27864(4) 0.59092(5) 0.0127(2) 1 0
P1 P5+ 8 f 0.20673(8) 0.26131(6) 0.75837(9) 0.0150(3) 1 0
P2 P5+ 8 f 0.01506(8) 0.27622(6) 0.38851(9) 0.0134(3) 1 0
P3 P5+ 8 f 0.01747(8) 0.16596(6) 0.60969(9) 0.0147(3) 1 0
P4 P5+ 8 f 0.14475(9) 0.07637(6) 0.35983(10) 0.0194(3) 1 0
P5 P5+ 8 f 0.29272(9) 0.06830(6) 0.63669(10) 0.0209(3) 1 0
P6 P5+ 8 f -0.04562(11) 0.37424(8) 0.60815(13) 0.0369(5) 1 0
O1 O2- 8 f 0.0960(2) 0.12610(16) 0.3645(2) 0.0200(8) 1 0
O2 O2- 8 f 0.2327(2) 0.20896(16) 0.7277(2) 0.0189(8) 1 0
O3 O2- 8 f 0.2262(3) 0.03039(18) 0.6235(3) 0.0336(10) 1 0
O4 O2- 8 f 0.1975(2) 0.25774(17) 0.8514(2) 0.0219(9) 1 0
O5 O2- 8 f 0.1160(3) 0.03592(17) 0.4170(3) 0.0294(9) 1 0
O6 O2- 8 f 0.1349(3) 0.05717(17) 0.2695(3) 0.0280(9) 1 0
O7 O2- 8 f 0.2165(2) 0.19634(14) 0.4154(2) 0.0145(7) 1 0
O8 O2- 8 f 0.3658(3) 0.04733(19) 0.6904(3) 0.0348(11) 1 0
O9 O2- 8 f 0.2628(2) 0.11604(16) 0.6806(2) 0.0203(8) 1 0
O10 O2- 8 f 0.2053(2) 0.30876(14) 0.4336(2) 0.0137(7) 1 0
O11 O2- 8 f 0.1502(2) 0.22893(15) 0.5481(2) 0.0154(7) 1 0
O12 O2- 8 f 0.1757(2) 0.13161(15) 0.5246(2) 0.0145(7) 1 0
O13 O2- 8 f 0.0655(2) 0.31956(16) 0.3600(3) 0.0199(8) 1 0
O14 O2- 8 f 0.3220(2) 0.08441(15) 0.5515(2) 0.0200(8) 1 0
O15 O2- 8 f 0.0081(2) 0.28228(16) 0.4828(2) 0.0193(8) 1 0
O16 O2- 8 f 0.0555(2) 0.22498(16) 0.3723(2) 0.0191(8) 1 0
O17 O2- 8 f 0.2691(2) 0.30109(16) 0.7416(2) 0.0209(8) 1 0
O18 O2- 8 f 0.0047(2) 0.22297(16) 0.6244(2) 0.0180(8) 1 0
O19 O2- 8 f 0.3690(2) 0.15589(15) 0.4280(2) 0.0174(8) 1 0
O20 O2- 8 f 0.0977(2) 0.14917(16) 0.6588(2) 0.0199(8) 1 0
O21 O2- 8 f 0.2339(2) 0.08936(16) 0.3852(3) 0.0216(8) 1 0
O22 O2- 8 f -0.0042(2) 0.32439(17) 0.6351(3) 0.0241(8) 1 0
O23 O2- 8 f -0.0673(2) 0.27572(17) 0.3404(2) 0.0212(8) 1 0
O24 O2- 8 f 0.1274(2) 0.27693(16) 0.7084(2) 0.0182(8) 1 0
O25 O2- 8 f 0.0203(2) 0.15695(16) 0.5144(2) 0.0187(8) 1 0
O26 O2- 8 f -0.0490(2) 0.13476(16) 0.6377(3) 0.0215(8) 1 0
O27 O2- 8 f 0.0088(3) 0.40726(18) 0.5565(3) 0.0342(10) 1 0
O28 O2- 8 f -0.1279(3) 0.3654(2) 0.5568(3) 0.0405(11) 1 0
O29 O2- 8 f -0.0613(4) 0.4007(2) 0.6927(4) 0.0594(16) 1 0
Na1 Na1+ 4 e 0. 0.26941(14) 0.75 0.0237(7) 1 0
Na2 Na1+ 8 f 0.09427(14) 0.20101(10) 0.24251(16) 0.0275(6) 1 0
Na3 Na1+ 8 f 0.10656(14) 0.27196(11) 0.93974(16) 0.0308(6) 1 0
Na4 Na1+ 8 f 0.10149(16) 0.06175(11) 0.55670(17) 0.0346(6) 1 0
Na5 Na1+ 8 f -0.13574(16) 0.33288(11) 0.26002(17) 0.0347(6) 1 0
Na6 Na1+ 4 e 0. 0.07851(16) 0.75 0.0369(9) 1 0
Na7 Na1+ 8 f -0.16478(15) 0.13944(11) 0.70018(17) 0.0351(6) 1 0
Na8 Na1+ 8 f 0.03264(16) 0.40164(11) 0.41076(19) 0.0388(7) 1 0
Na9 Na1+ 8 f -0.12138(19) 0.14247(15) 0.4674(2) 0.0574(8) 1 0
Na10 Na1+ 8 f -0.0676(2) 0.12756(16) 0.3387(3) 0.0703(10) 1 0
O30 O2- 8 f -0.1588(3) 0.2271(2) 0.4428(3) 0.0394(10) 1 0
O31 O2- 8 f 0.0279(3) 0.0077(2) 0.6457(3) 0.0452(12) 1 0
O32 O2- 8 f -0.2427(4) 0.1251(3) 0.3661(4) 0.0704(18) 1 0
O33 O2- 8 f 0.3301(2) 0.12396(15) 0.2852(2) 0.0200(8) 1 0
O34 O2- 8 f -0.1494(3) 0.0508(2) 0.7257(3) 0.0443(12) 1 0
O35 O2- 8 f -0.0954(4) 0.4060(2) 0.3388(4) 0.0608(15) 1 0
O36 O2- 8 f 0.0464(4) 0.4954(2) 0.4302(4) 0.0702(18) 1 0
O37 O2- 8 f 0.3576(3) 0.02612(19) 0.4433(3) 0.0464(12) 1 0
O38 O2- 8 f -0.2385(4) 0.1618(3) 0.5746(4) 0.0672(15) 1 0
O39 O2- 8 f 0.3070(6) -0.0574(4) 0.4593(6) 0.0360(17) 0.5 0
O40 O2- 8 f 0.3644(6) 0.0336(4) 0.2971(6) 0.0407(18) 0.5 0
O41 O2- 8 f -0.1327(5) 0.0606(3) 0.5272(5) 0.0283(19) 0.5 0
O42 O2- 8 f 0.0587(5) 0.3761(3) 0.6108(5) 0.0263(14) 0.5 0
O43 O2- 8 f 0.2294(8) 0.0510(5) 0.1718(9) 0.061(3) 0.5 0
O44 O2- 8 f 0.1800(6) 0.0483(3) 0.1311(6) 0.0241(17) 0.5 0
H1 H1+ 8 f -0.1260(1) 0.2413(2) 0.4012(2) 0.05 1 0
H2 H1+ 8 f 0.1462(1) 0.0758(2) 0.2396(3) 0.05 1 0
H3 H1+ 8 f 0.3530(2) 0.0499(2) 0.7396(2) 0.05 1 0
H4 H1+ 8 f -0.0282(2) 0.4239(2) 0.6609(2) 0.05 1 0
H5 H1+ 8 f -0.1632(2) 0.3774(3) 0.5080(2) 0.05 1 0
H6 H1+ 8 f 0.0921(2) 0.3121(4) 0.3572(2) 0.05 1 0
H7 H1+ 8 f -0.2915(1) 0.1283(2) 0.4038(1) 0.05 1 0
H8 H1+ 8 f 0.0036(2) 0.4903(2) 0.3752(1) 0.05 1 0
H9 H1+ 8 f 0.2489(2) 0.1261(2) 0.1987(3) 0.05 1 0
H10 H1+ 8 f 0.0741(3) 0.5178(2) 0.4038(4) 0.05 1 0
H11 H1+ 8 f 0.2771(3) 0.1137(3) 0.2687(3) 0.05 1 0
H12 H1+ 8 f 0.4128(2) 0.0237(2) 0.4404(2) 0.05 1 0
H13 H1+ 8 f -0.0692(2) 0.4011(1) 0.3918(1) 0.05 1 0
H14 H1+ 8 f 0.3710(2) 0.1258(2) 0.2749(2) 0.05 1 0
H15 H1+ 8 f -0.2775(1) 0.1580(1) 0.6096(2) 0.05 1 0
H16 H1+ 8 f -0.1760(2) 0.0663(3) 0.6683(2) 0.05 1 0
H17 H1+ 8 f 0.0502(2) -0.0134(1) 0.6765(3) 0.05 1 0
H18 H1+ 8 f -0.0101(3) 0.0085(1) 0.5979(2) 0.05 1 0
H19 H1+ 8 f -0.1368(1) 0.3974(4) 0.3617(2) 0.05 1 0
H20 H1+ 8 f 0.3102(1) 0.0195(1) 0.4536(2) 0.05 1 0
H21 H1+ 8 f -0.1391(2) 0.0125(2) 0.7181(2) 0.05 1 0
H22 H1+ 8 f -0.2391(2) 0.1921(2) 0.5805(1) 0.05 1 0
H23 H1+ 8 f -0.2136(2) 0.2313(1) 0.4276(2) 0.05 1 0
H24 H1+ 8 f 0.2621(4) 0.3281(4) 0.7668(3) 0.05 0.5 0
H25 H1+ 8 f 0.4203(2) 0.1328(2) 0.4382(2) 0.05 0.5 0
H26 H1+ 8 f -0.0904(2) 0.0597(2) 0.5182(2) 0.05 0.5 0
H27 H1+ 8 f -0.1705(2) 0.0477(3) 0.4976(3) 0.05 0.5 0
H28 H1+ 8 f 0.2462(2) 0.0783(2) 0.1269(2) 0.05 0.5 0
H29 H1+ 8 f 0.3538(1) -0.0006(1) 0.3285(1) 0.05 0.5 0
H30 H1+ 8 f 0.3358(2) 0.0390(2) 0.2388(2) 0.05 0.5 0
H31 H1+ 8 f 0.2456(1) 0.0413(2) 0.2240(3) 0.05 0.5 0
H32 H1+ 8 f 0.0275(1) 0.4059(4) 0.5990(2) 0.05 0.5 0
H33 H1+ 8 f 0.3181(2) -0.0558(3) 0.5221(3) 0.05 0.5 0
H34 H1+ 8 f 0.2911(3) -0.0182(2) 0.4540(2) 0.05 0.5 0
H35 H1+ 8 f 0.2275(3) 0.0467(2) 0.1441(3) 0.05 0.5 0
H36 H1+ 8 f 0.1310(2) 0.0469(2) 0.1485(3) 0.05 0.5 0
loop_
_atom_site_aniso_label
_atom_site_aniso_type_symbol
_atom_site_aniso_U_11
_atom_site_aniso_U_22
_atom_site_aniso_U_33
_atom_site_aniso_U_12
_atom_site_aniso_U_13
_atom_site_aniso_U_23
Cr1 Cr3+ 0.0084(5) 0.0127(6) 0.0111(6) -0.0004(5) 0.0023(5) 0.0000(5)
Cr2 Cr3+ 0.0109(4) 0.0164(5) 0.0122(4) -0.0003(3) 0.0012(3) 0.0015(3)
Cr3 Cr3+ 0.0104(4) 0.0141(5) 0.0120(4) -0.0010(3) 0.0021(3) -0.0003(3)
Cr4 Cr3+ 0.0110(4) 0.0146(5) 0.0146(4) -0.0001(3) 0.0024(3) -0.0002(3)
Cr5 Cr3+ 0.0092(4) 0.0180(5) 0.0111(4) 0.0006(3) 0.0020(3) 0.0003(3)
P1 P5+ 0.0113(6) 0.0226(8) 0.0109(7) -0.0001(6) 0.0006(5) -0.0009(6)
P2 P5+ 0.0102(6) 0.0187(8) 0.0112(7) 0.0011(5) 0.0006(5) 0.0008(5)
P3 P5+ 0.0115(6) 0.0187(8) 0.0146(7) -0.0016(5) 0.0036(5) 0.0020(6)
P4 P5+ 0.0181(7) 0.0158(8) 0.0233(8) 0.0003(6) -0.0022(6) -0.0050(6)
P5 P5+ 0.0221(8) 0.0172(8) 0.0226(8) 0.0017(6) -0.0007(6) 0.0046(6)
P6 P5+ 0.0295(9) 0.0394(11) 0.0420(11) 0.0058(8) 0.0056(8) -0.0014(9)
O1 O2- 0.0182(16) 0.0223(18) 0.0192(17) 0.0010(15) 0.0002(14) -0.0041(15)
O2 O2- 0.0171(17) 0.0223(19) 0.0167(17) 0.0028(15) -0.0003(14) -0.0017(15)
O3 O2- 0.036(2) 0.026(2) 0.037(2) -0.0109(18) -0.0002(18) 0.0059(18)
O4 O2- 0.0160(18) 0.037(2) 0.0131(18) 0.0042(17) 0.0021(15) 0.0027(17)
O5 O2- 0.0290(19) 0.023(2) 0.035(2) -0.0054(17) -0.0024(17) 0.0039(17)
O6 O2- 0.031(2) 0.026(2) 0.026(2) 0.0000(18) -0.0020(17) -0.0085(17)
O7 O2- 0.0127(15) 0.0150(17) 0.0163(16) -0.0009(14) 0.0036(13) -0.0010(14)
O8 O2- 0.039(2) 0.038(2) 0.025(2) 0.016(2) -0.0029(19) 0.0023(19)
O9 O2- 0.0186(17) 0.0233(19) 0.0191(17) 0.0013(15) 0.0022(15) 0.0038(15)
O10 O2- 0.0127(15) 0.0159(17) 0.0125(16) -0.0007(14) 0.0013(13) -0.0019(14)
O11 O2- 0.0128(15) 0.0188(17) 0.0146(16) -0.0006(14) 0.0020(13) -0.0001(14)
O12 O2- 0.0137(15) 0.0164(17) 0.0138(16) 0.0011(13) 0.0032(13) -0.0006(13)
O13 O2- 0.0174(17) 0.0225(19) 0.0203(18) 0.0014(15) 0.0038(15) 0.0018(15)
O14 O2- 0.0201(17) 0.0182(19) 0.0217(18) 0.0046(15) 0.0023(15) 0.0006(15)
O15 O2- 0.0163(16) 0.0276(19) 0.0140(16) 0.0030(15) 0.0020(14) -0.0007(15)
O16 O2- 0.0197(16) 0.0228(18) 0.0154(16) 0.0027(15) 0.0042(14) 0.0012(15)
O17 O2- 0.0168(17) 0.027(2) 0.0184(19) -0.0040(16) 0.0021(15) -0.0028(16)
O18 O2- 0.0159(16) 0.0212(17) 0.0175(16) 0.0000(14) 0.0050(14) -0.0001(14)
O19 O2- 0.0180(17) 0.0173(18) 0.0173(18) -0.0014(15) 0.0041(15) 0.0003(15)
O20 O2- 0.0169(16) 0.0246(18) 0.0182(17) -0.0014(14) 0.0019(14) 0.0031(15)
O21 O2- 0.0189(17) 0.0222(19) 0.0235(18) 0.0015(15) 0.0012(15) -0.0058(16)
O22 O2- 0.0232(17) 0.030(2) 0.0191(18) 0.0050(16) 0.0031(15) -0.0008(16)
O23 O2- 0.0136(17) 0.033(2) 0.0167(18) 0.0015(16) -0.0016(15) 0.0020(16)
O24 O2- 0.0120(16) 0.0265(19) 0.0159(17) 0.0023(15) 0.0007(14) -0.0001(15)
O25 O2- 0.0140(15) 0.0235(18) 0.0185(16) -0.0035(14) 0.0022(14) -0.0009(14)
O26 O2- 0.0195(17) 0.0242(19) 0.0221(18) -0.0034(15) 0.0080(15) 0.0006(15)
O27 O2- 0.030(2) 0.031(2) 0.042(2) 0.0066(18) 0.0042(19) 0.0039(19)
O28 O2- 0.032(2) 0.049(3) 0.039(2) 0.000(2) 0.000(2) 0.001(2)
O29 O2- 0.060(4) 0.063(4) 0.057(4) 0.015(3) 0.015(3) -0.017(3)
Na1 Na1+ 0.0208(15) 0.0348(18) 0.0166(15) 0. 0.0066(13) 0.
Na2 Na1+ 0.0211(11) 0.0373(14) 0.0246(13) 0.0027(11) 0.0042(10) -0.0017(11)
Na3 Na1+ 0.0168(12) 0.0528(17) 0.0229(13) 0.0020(11) 0.0026(10) -0.0029(12)
Na4 Na1+ 0.0362(14) 0.0336(14) 0.0348(14) -0.0063(11) 0.0068(11) 0.0039(11)
Na5 Na1+ 0.0359(14) 0.0394(16) 0.0269(14) 0.0107(12) -0.0041(12) 0.0019(12)
Na6 Na1+ 0.0411(19) 0.033(2) 0.0351(19) 0. -0.0033(16) 0.
Na7 Na1+ 0.0283(13) 0.0468(17) 0.0311(14) 0.0062(12) 0.0081(11) -0.0099(12)
Na8 Na1+ 0.0328(14) 0.0360(16) 0.0465(16) 0.0039(12) -0.0009(12) -0.0079(13)
Na9 Na1+ 0.0435(16) 0.074(2) 0.0528(18) -0.0075(16) -0.0032(14) 0.0071(16)
Na10 Na1+ 0.0660(19) 0.072(2) 0.069(2) 0.0003(18) -0.0065(17) -0.0018(18)
O30 O2- 0.029(2) 0.059(2) 0.030(2) -0.008(2) 0.0022(18) 0.004(2)
O31 O2- 0.041(2) 0.040(2) 0.053(3) -0.008(2) -0.002(2) 0.003(2)
O32 O2- 0.055(4) 0.096(5) 0.062(4) 0.009(3) 0.014(3) 0.013(4)
O33 O2- 0.033(2) 0.0190(19) 0.0082(17) 0.0092(16) 0.0018(15) -0.0009(15)
O34 O2- 0.053(3) 0.034(3) 0.048(3) 0.002(2) 0.014(2) -0.004(2)
O35 O2- 0.056(3) 0.057(3) 0.064(3) 0.000(3) -0.017(3) -0.006(3)
O36 O2- 0.082(4) 0.048(4) 0.085(5) 0.004(3) 0.031(4) 0.007(3)
O37 O2- 0.070(3) 0.028(2) 0.037(2) 0.005(2) -0.011(2) -0.007(2)
O38 O2- 0.074(3) 0.063(3) 0.061(3) 0.004(3) -0.005(3) 0.000(3)
O39 O2- 0.041(3) 0.029(3) 0.036(3) 0.001(3) -0.002(3) 0.002(3)
O40 O2- 0.054(4) 0.025(3) 0.044(4) 0.001(3) 0.010(3) -0.004(3)
O41 O2- 0.047(5) 0.014(4) 0.024(4) 0.010(4) 0.004(4) 0.010(3)
O42 O2- 0.025(3) 0.028(3) 0.027(3) 0.001(3) 0.007(2) -0.002(3)
O43 O2- 0.061(6) 0.066(6) 0.062(6) 0.022(6) 0.030(5) -0.014(6)
O44 O2- 0.037(4) 0.015(3) 0.022(4) 0.000(3) 0.012(3) -0.003(3)
#End of TTdata_414468-ICSD