
#(C) 2019 by FIZ Karlsruhe - Leibniz Institute for Information Infrastructure.  All rights reserved.
data_414409-ICSD
_database_code_ICSD 414409
_audit_creation_date 2005-10-01
_chemical_name_systematic 'Sodium octadecachlorohexatungstate nitride'
_chemical_formula_structural 'Na (W6 N Cl18)'
_chemical_formula_sum 'Cl18 N1 Na1 W6'
_exptl_crystal_density_diffrn 4.9
_cell_measurement_temperature 160.
_publ_section_title

;
Synthesis and characterization of the nitrogen-centered trigonal prismatic
clusters [W6 N Cl18](n-) (n = 1-3)
;
loop_
_citation_id
_citation_journal_full
_citation_year
_citation_journal_volume
_citation_page_first
_citation_page_last
_citation_journal_id_ASTM
primary 'Angewandte Chemie, International Edition' 2005 44 2549 2553 ACIEF5
loop_
_publ_author_name
'Welch, E.J.'
'Yu, C.L.'
'Crawford, N.R.M.'
'Long, J.R.'
_cell_length_a 8.8360(4)
_cell_length_b 8.8360(4)
_cell_length_c 17.840(2)
_cell_angle_alpha 90.
_cell_angle_beta 90.
_cell_angle_gamma 120.
_cell_volume 1206.25
_cell_formula_units_Z 2
_symmetry_space_group_name_H-M 'P 63/m'
_symmetry_Int_Tables_number 176
_refine_ls_R_factor_all 0.0322
loop_
_symmetry_equiv_pos_site_id
_symmetry_equiv_pos_as_xyz
1 '-x+y, -x, -z+1/2'
2 '-y, x-y, -z+1/2'
3 'x, y, -z+1/2'
4 'x-y, x, -z'
5 'y, -x+y, -z'
6 '-x, -y, -z'
7 'x-y, x, z+1/2'
8 'y, -x+y, z+1/2'
9 '-x, -y, z+1/2'
10 '-x+y, -x, z'
11 '-y, x-y, z'
12 'x, y, z'
loop_
_atom_type_symbol
_atom_type_oxidation_number
W3+ 3.333
N3- -3
Cl1- -1
Na1+ 1
loop_
_atom_site_label
_atom_site_type_symbol
_atom_site_symmetry_multiplicity
_atom_site_Wyckoff_symbol
_atom_site_fract_x
_atom_site_fract_y
_atom_site_fract_z
_atom_site_B_iso_or_equiv
_atom_site_occupancy
_atom_site_attached_hydrogens
W1 W3+ 12 i 0.17620(5) 1.48085(5) 0.66394(2) 0.0056(2) 1 0
N1 N3- 2 d 0.3333 1.6667 0.75 0.011(4) 1 0
Cl1 Cl1- 6 h 0.1893(4) 1.2724(4) 0.75 0.0078(6) 1 0
Cl2 Cl1- 6 h -0.0627(4) 1.4236(4) 0.75 0.0085(6) 1 0
Cl3 Cl1- 12 i 0.1064(3) 1.6318(3) 0.57184(12) 0.0107(5) 1 0
Cl4 Cl1- 12 i -0.0443(3) 1.2242(3) 0.60039(12) 0.0119(5) 1 0
Na1 Na1+ 2 b 0. 1. 0.5 0.014(2) 1 0
loop_
_atom_site_aniso_label
_atom_site_aniso_type_symbol
_atom_site_aniso_U_11
_atom_site_aniso_U_22
_atom_site_aniso_U_33
_atom_site_aniso_U_12
_atom_site_aniso_U_13
_atom_site_aniso_U_23
W1 W3+ 0.0053(3) 0.0051(3) 0.0059(3) 0.0022(2) -0.00047(13) -0.00063(13)
N1 N3- 0.014(7) 0.014(7) 0.005(9) 0.007(3) 0. 0.
Cl1 Cl1- 0.011(2) 0.008(2) 0.0064(13) 0.0060(13) 0. 0.
Cl2 Cl1- 0.007(2) 0.0096(15) 0.0087(14) 0.0036(13) 0. 0.
Cl3 Cl1- 0.0107(11) 0.0097(11) 0.0114(10) 0.0048(9) -0.0034(9) -0.0012(8)
Cl4 Cl1- 0.0109(12) 0.0086(11) 0.0124(10) 0.0021(9) -0.0014(9) -0.0023(9)
Na1 Na1+ 0.016(3) 0.016(3) 0.012(4) 0.0078(15) 0. 0.
#End of TTdata_414409-ICSD