
#(C) 2019 by FIZ Karlsruhe - Leibniz Institute for Information Infrastructure.  All rights reserved.
data_415072-ICSD
_database_code_ICSD 415072
_audit_creation_date 2005-10-01
_audit_update_record 2018-02-01
_chemical_name_systematic 'Sodium nickel dioxide'
_chemical_formula_structural 'Na Ni O2'
_chemical_formula_sum 'Na1 Ni1 O2'
_chemical_name_structure_type NaNiO2(mS8)
_exptl_crystal_density_diffrn 4.77
_publ_section_title 'New route of preparation and properties of NaNiO2'
loop_
_citation_id
_citation_journal_full
_citation_year
_citation_journal_volume
_citation_page_first
_citation_page_last
_citation_journal_id_ASTM
primary 'Zeitschrift fuer Naturforschung, B: A Journal of Chemical Sciences'
2005 60 701 704 ZNBSEN
loop_
_publ_author_name
'Sofin, Mikhail'
'Jansen, Martin'
_cell_length_a 5.3226(9)
_cell_length_b 2.8451(5)
_cell_length_c 5.5842(10)
_cell_angle_alpha 90.
_cell_angle_beta 110.493(3)
_cell_angle_gamma 90.
_cell_volume 79.21
_cell_formula_units_Z 2
_symmetry_space_group_name_H-M 'C 1 2/m 1'
_symmetry_Int_Tables_number 12
_refine_ls_R_factor_all 0.034
loop_
_symmetry_equiv_pos_site_id
_symmetry_equiv_pos_as_xyz
1 '-x, y, -z'
2 '-x, -y, -z'
3 'x, -y, z'
4 'x, y, z'
5 '-x+1/2, y+1/2, -z'
6 '-x+1/2, -y+1/2, -z'
7 'x+1/2, -y+1/2, z'
8 'x+1/2, y+1/2, z'
loop_
_atom_type_symbol
_atom_type_oxidation_number
Ni3+ 3
Na1+ 1
O2- -2
loop_
_atom_site_label
_atom_site_type_symbol
_atom_site_symmetry_multiplicity
_atom_site_Wyckoff_symbol
_atom_site_fract_x
_atom_site_fract_y
_atom_site_fract_z
_atom_site_B_iso_or_equiv
_atom_site_occupancy
_atom_site_attached_hydrogens
Ni1 Ni3+ 2 d 0.5 0. 0.5 0.0050(3) 1 0
Na1 Na1+ 2 a 0. 0. 1. 0.0092(5) 1 0
O1 O2- 4 i 0.2154(6) 0. 0.6963(6) 0.0070(5) 1 0
loop_
_atom_site_aniso_label
_atom_site_aniso_type_symbol
_atom_site_aniso_U_11
_atom_site_aniso_U_22
_atom_site_aniso_U_33
_atom_site_aniso_U_12
_atom_site_aniso_U_13
_atom_site_aniso_U_23
Ni1 Ni3+ 0.0060(4) 0.0041(4) 0.0045(4) 0. 0.0013(3) 0.
Na1 Na1+ 0.0097(11) 0.0100(11) 0.0071(10) 0. 0.0021(9) 0.
O1 O2- 0.0080(11) 0.0060(12) 0.0071(10) 0. 0.0026(9) 0.
#End of TTdata_415072-ICSD