
#(C) 2019 by FIZ Karlsruhe - Leibniz Institute for Information Infrastructure.  All rights reserved.
data_415535-ICSD
_database_code_ICSD 415535
_audit_creation_date 2006-10-01
_chemical_name_systematic 'Sodium lanthanum tetrakis(phosphate(V))'
_chemical_formula_structural 'Na La (P O3)4'
_chemical_formula_sum 'La1 Na1 O12 P4'
_chemical_name_structure_type KCe(PO3)4
_exptl_crystal_density_diffrn 3.3
_publ_section_title

;
Synthesis, crystal structure and vibrational spectra characterization of M(I)
La (P O3)4
;
loop_
_citation_id
_citation_journal_full
_citation_year
_citation_journal_volume
_citation_page_first
_citation_page_last
_citation_journal_id_ASTM
primary 'Journal of Solid State Chemistry' 2005 178 3581 3588 JSSCBI
loop_
_publ_author_name
'El Masloumi, M.'
'Imaz, I.'
'Chaminade, J.P.'
'Videau, J.J.'
'Couzi, M.'
'Mesnaoui, M.'
'Maazaz, M.'
_cell_length_a 7.255(2)
_cell_length_b 13.186(3)
_cell_length_c 10.067(2)
_cell_angle_alpha 90.
_cell_angle_beta 90.40(2)
_cell_angle_gamma 90.
_cell_volume 963.03
_cell_formula_units_Z 4
_symmetry_space_group_name_H-M 'P 1 21/n 1'
_symmetry_Int_Tables_number 14
_refine_ls_R_factor_all 0.0271
loop_
_symmetry_equiv_pos_site_id
_symmetry_equiv_pos_as_xyz
1 '-x+1/2, y+1/2, -z+1/2'
2 '-x, -y, -z'
3 'x+1/2, -y+1/2, z+1/2'
4 'x, y, z'
loop_
_atom_type_symbol
_atom_type_oxidation_number
La3+ 3
P5+ 5
O2- -2
P5+ 5
O2- -2
P5+ 5
O2- -2
Na1+ 1
loop_
_atom_site_label
_atom_site_type_symbol
_atom_site_symmetry_multiplicity
_atom_site_Wyckoff_symbol
_atom_site_fract_x
_atom_site_fract_y
_atom_site_fract_z
_atom_site_B_iso_or_equiv
_atom_site_occupancy
_atom_site_attached_hydrogens
La1 La3+ 4 e 0.51371(3) 0.216499(19) 0.97570(2) 0.00783(13) 1 0
P1 P5+ 4 e 0.27150(16) 0.08863(9) 0.69395(12) 0.0087(3) 1 0
O1 O2- 4 e 0.2418(4) 0.1587(2) 0.5808(3) 0.0131(7) 1 0
O2 O2- 4 e 0.0933(4) 0.0795(3) 0.7849(3) 0.0128(7) 1 0
O3 O2- 4 e 0.4303(4) 0.1084(3) 0.7838(3) 0.0166(8) 1 0
O4 O2- 4 e 0.8684(4) 0.1897(3) 0.6564(3) 0.0130(7) 1 0
O5 O2- 4 e 0.8147(4) 0.1431(3) 0.8977(3) 0.0127(7) 1 0
O6 O2- 4 e 0.7883(5) 0.0146(2) 0.7103(3) 0.0129(7) 1 0
P2 P5+ 4 e 0.88372(16) 0.11438(9) 0.76447(12) 0.0082(3) 1 0
O7 O2- 4 e 0.2849(4) -0.0225(2) 0.6316(3) 0.0114(7) 1 0
P3 P5+ 4 e 0.75186(16) -0.09818(9) 0.75661(12) 0.0079(3) 1 0
P4 P5+ 4 e 0.35709(16) -0.12724(9) 0.69277(11) 0.0079(3) 1 0
O8 O2- 4 e 0.2909(5) -0.2091(2) 0.6029(3) 0.0122(7) 1 0
O9 O2- 4 e 0.3166(5) -0.1331(2) 0.8369(3) 0.0123(7) 1 0
O10 O2- 4 e 0.5742(4) -0.1207(2) 0.6689(3) 0.0109(7) 1 0
O11 O2- 4 e 0.7156(5) -0.1045(2) 0.9024(3) 0.0128(7) 1 0
O12 O2- 4 e 0.9045(4) -0.1630(3) 0.7072(3) 0.0132(7) 1 0
Na1 Na1+ 4 e 0.5002(3) 0.27953(16) 0.5678(2) 0.0236(5) 1 0
loop_
_atom_site_aniso_label
_atom_site_aniso_type_symbol
_atom_site_aniso_U_11
_atom_site_aniso_U_22
_atom_site_aniso_U_33
_atom_site_aniso_U_12
_atom_site_aniso_U_13
_atom_site_aniso_U_23
La1 La3+ 0.00741(18) 0.00899(19) 0.00710(19) -0.00017(9) 0.00002(11) -0.00013(9)
P1 P5+ 0.0083(6) 0.0075(6) 0.0102(6) 0.0007(4) 0.0011(4) -0.0005(4)
O1 O2- 0.0132(17) 0.0110(17) 0.0151(17) 0.0023(13) 0.0033(13) 0.0043(14)
O2 O2- 0.0087(16) 0.0180(17) 0.0119(17) 0.0012(13) 0.0032(13) 0.0037(14)
O3 O2- 0.0104(17) 0.0209(19) 0.0185(18) -0.0001(14) -0.0005(14) -0.0061(15)
O4 O2- 0.0127(17) 0.0130(16) 0.0132(17) -0.0007(14) 0.0031(14) 0.0029(14)
O5 O2- 0.0112(16) 0.0167(17) 0.0102(16) 0.0006(13) 0.0029(13) -0.0023(13)
O6 O2- 0.0152(17) 0.0095(16) 0.0140(16) -0.0024(13) -0.0004(13) 0.0016(13)
P2 P5+ 0.0079(6) 0.0077(6) 0.0089(6) 0.0002(4) 0.0014(4) 0.0005(4)
O7 O2- 0.0153(17) 0.0085(16) 0.0103(15) 0.0018(13) -0.0017(13) -0.0015(13)
P3 P5+ 0.0073(6) 0.0079(6) 0.0086(5) -0.0008(4) -0.0006(4) -0.0005(4)
P4 P5+ 0.0078(5) 0.0073(6) 0.0086(6) -0.0005(4) -0.0005(4) -0.0002(4)
O8 O2- 0.0099(17) 0.0108(17) 0.0158(18) -0.0009(12) -0.0026(14) -0.0024(13)
O9 O2- 0.0116(16) 0.0174(18) 0.0078(16) 0.0028(14) 0.0007(12) 0.0019(13)
O10 O2- 0.0064(15) 0.0151(17) 0.0113(16) -0.0021(13) -0.0015(13) -0.0023(13)
O11 O2- 0.0145(17) 0.0135(17) 0.0102(16) -0.0042(13) 0.0003(13) -0.0016(13)
O12 O2- 0.0111(16) 0.0148(18) 0.0137(17) 0.0021(13) 0.0000(13) -0.0027(14)
Na1 Na1+ 0.0194(12) 0.0329(13) 0.0185(11) -0.0079(9) -0.0028(9) -0.0012(9)
#End of TTdata_415535-ICSD