
#(C) 2019 by FIZ Karlsruhe - Leibniz Institute for Information Infrastructure.  All rights reserved.
data_415672-ICSD
_database_code_ICSD 415672
_audit_creation_date 2006-10-01
_chemical_name_systematic 'Sodium erbium hexathiodiphosphate(IV)'
_chemical_formula_structural 'Na Er P2 S6'
_chemical_formula_sum 'Er1 Na1 P2 S6'
_chemical_name_structure_type NaYbP2S6
_exptl_crystal_density_diffrn 3.35
_publ_section_title

;
Drei Alkalimetall-Erbium Thiophosphate: von der Schichtstruktur bei K Er [P2
S7] zur dreidimensionalen Vernetzung in Na Er [P2 S6] und Cs3 Er5 [P S4]6
;
loop_
_citation_id
_citation_journal_full
_citation_year
_citation_journal_volume
_citation_page_first
_citation_page_last
_citation_journal_id_ASTM
primary 'Zeitschrift fuer Anorganische und Allgemeine Chemie (1950) (DE)' 2006
632 42 48 ZAACAB
loop_
_publ_author_name
'Komm, T.'
'Schleid, T.'
_cell_length_a 6.8572(5)
_cell_length_b 7.0786(5)
_cell_length_c 9.1098(7)
_cell_angle_alpha 87.423(4)
_cell_angle_beta 87.635(4)
_cell_angle_gamma 88.157(4)
_cell_volume 441.16
_cell_formula_units_Z 2
_symmetry_space_group_name_H-M 'P -1'
_symmetry_Int_Tables_number 2
_refine_ls_R_factor_all 0.0386
loop_
_symmetry_equiv_pos_site_id
_symmetry_equiv_pos_as_xyz
1 '-x, -y, -z'
2 'x, y, z'
loop_
_atom_type_symbol
_atom_type_oxidation_number
Na1+ 1
Er3+ 3
P4+ 4
S2- -2
loop_
_atom_site_label
_atom_site_type_symbol
_atom_site_symmetry_multiplicity
_atom_site_Wyckoff_symbol
_atom_site_fract_x
_atom_site_fract_y
_atom_site_fract_z
_atom_site_B_iso_or_equiv
_atom_site_occupancy
_atom_site_attached_hydrogens
Na1 Na1+ 2 i 0.4678(5) 0.3989(5) 0.2680(4) 0.0457(8) 1 0
Er1 Er3+ 2 i 0.02402(4) 0.88126(4) 0.25393(3) 0.02186(13) 1 0
P1 P4+ 2 i 0.9347(2) 0.3916(2) 0.43556(17) 0.0192(3) 1 0
P2 P4+ 2 i 0.6487(2) 0.0367(2) 0.02863(18) 0.0206(3) 1 0
S1 S2- 2 i 0.1235(2) 0.4827(2) 0.76057(18) 0.0242(3) 1 0
S2 S2- 2 i 0.2968(2) 0.7022(2) 0.44030(18) 0.0230(3) 1 0
S3 S2- 2 i 0.1447(2) 0.1813(2) 0.43945(17) 0.0217(3) 1 0
S4 S2- 2 i 0.3001(2) 0.7089(2) 0.06861(18) 0.0250(3) 1 0
S5 S2- 2 i 0.6478(2) 0.0274(2) 0.25037(18) 0.0244(3) 1 0
S6 S2- 2 i 0.1669(2) 0.1666(2) 0.05243(18) 0.0240(3) 1 0
loop_
_atom_site_aniso_label
_atom_site_aniso_type_symbol
_atom_site_aniso_U_11
_atom_site_aniso_U_22
_atom_site_aniso_U_33
_atom_site_aniso_U_12
_atom_site_aniso_U_13
_atom_site_aniso_U_23
Na1 Na1+ 0.0400(17) 0.0373(18) 0.060(2) 0.0048(13) -0.0018(15) -0.0025(16)
Er1 Er3+ 0.02182(18) 0.02189(17) 0.02147(17) -0.00042(11) -0.00136(11)
0.00394(11)
P1 P4+ 0.0208(8) 0.0188(7) 0.0177(8) -0.0019(6) -0.0025(6) 0.0028(6)
P2 P4+ 0.0184(8) 0.0234(8) 0.0201(8) -0.0012(6) -0.0030(6) 0.0013(6)
S1 S2- 0.0302(8) 0.0237(8) 0.0190(8) -0.0049(6) -0.0062(6) 0.0054(6)
S2 S2- 0.0204(7) 0.0248(8) 0.0236(8) -0.0014(6) -0.0018(6) 0.0023(6)
S3 S2- 0.0214(7) 0.0219(7) 0.0217(8) 0.0006(6) -0.0026(6) 0.0006(6)
S4 S2- 0.0262(8) 0.0233(8) 0.0251(8) -0.0010(6) -0.0009(6) 0.0041(6)
S5 S2- 0.0239(8) 0.0312(8) 0.0181(7) 0.0003(6) -0.0038(6) 0.0011(6)
S6 S2- 0.0224(8) 0.0233(8) 0.0259(8) 0.0004(6) 0.0002(6) 0.0031(6)
#End of TTdata_415672-ICSD