
#(C) 2019 by FIZ Karlsruhe - Leibniz Institute for Information Infrastructure.  All rights reserved.
data_415868-ICSD
_database_code_ICSD 415868
_audit_creation_date 2011-08-01
_chemical_name_systematic 'Sodium gadolinium tetrafluoride - beta'
_chemical_formula_structural '(Na Gd F4)1.5'
_chemical_formula_sum 'F6 Gd1.5 Na1.5'
_chemical_name_structure_type NaNdF4
_exptl_crystal_density_diffrn 5.61
_cell_measurement_temperature 298.
_publ_section_title

;
Structural and spectroscopic characterization of active sites in a family of
light-emitting sodium lanthanide tetrafluorides
;
loop_
_citation_id
_citation_journal_full
_citation_year
_citation_journal_volume
_citation_page_first
_citation_page_last
_citation_journal_id_ASTM
primary 'Angewandte Chemie, International Edition' 2006 45 2802 2806 ACIEF5
loop_
_publ_author_name
'Aebischer, A.'
'Hostettler, M.'
'Hauser, J.'
'Kraemer, K.'
'Weber, T.'
'Guedel, H.U.'
'Buergi, H.B.'
_cell_length_a 6.0304(9)
_cell_length_b 6.0304(9)
_cell_length_c 3.6111(7)
_cell_angle_alpha 90.
_cell_angle_beta 90.
_cell_angle_gamma 120.
_cell_volume 113.73
_cell_formula_units_Z 1
_symmetry_space_group_name_H-M 'P -6'
_symmetry_Int_Tables_number 174
_refine_ls_R_factor_all 0.0094
loop_
_symmetry_equiv_pos_site_id
_symmetry_equiv_pos_as_xyz
1 '-x+y, -x, -z'
2 '-y, x-y, -z'
3 'x, y, -z'
4 '-x+y, -x, z'
5 '-y, x-y, z'
6 'x, y, z'
loop_
_atom_type_symbol
_atom_type_oxidation_number
Gd3+ 3
Na1+ 1
F1- -1
loop_
_atom_site_label
_atom_site_type_symbol
_atom_site_symmetry_multiplicity
_atom_site_Wyckoff_symbol
_atom_site_fract_x
_atom_site_fract_y
_atom_site_fract_z
_atom_site_B_iso_or_equiv
_atom_site_occupancy
_atom_site_attached_hydrogens
Gd1 Gd3+ 1 a 0. 0. 0. 0.00854(18) 1 0
Gd2 Gd3+ 1 f 0.6667 0.3333 0.5 0.0093(3) 0.5 0
Na1 Na1+ 1 f 0.6667 0.3333 0.5 0.0093(3) 0.5 0
Na2 Na1+ 2 h 0.3333 0.6667 0.655(3) 0.041(4) 0.5 0
F1 F1- 3 j 0.6369(7) 0.0441(7) 0. 0.0242(9) 1 0
F2 F1- 3 k 0.7353(6) 0.7553(5) 0.5 0.0134(7) 1 0
loop_
_atom_site_aniso_label
_atom_site_aniso_type_symbol
_atom_site_aniso_U_11
_atom_site_aniso_U_22
_atom_site_aniso_U_33
_atom_site_aniso_U_12
_atom_site_aniso_U_13
_atom_site_aniso_U_23
Gd1 Gd3+ 0.00928(18) 0.00928(18) 0.0071(3) 0.00464(9) 0. 0.
Gd2 Gd3+ 0.0081(4) 0.0081(4) 0.0117(7) 0.00405(19) 0. 0.
Na1 Na1+ 0.0081(4) 0.0081(4) 0.0117(7) 0.00405(19) 0. 0.
Na2 Na1+ 0.0226(18) 0.0226(18) 0.078(12) 0.0113(9) 0. 0.
F1 F1- 0.0149(15) 0.0190(18) 0.040(2) 0.0098(12) 0. 0.
F2 F1- 0.0138(15) 0.0123(15) 0.0123(12) 0.0052(13) 0. 0.
#End of TTdata_415868-ICSD