
#(C) 2019 by FIZ Karlsruhe - Leibniz Institute for Information Infrastructure.  All rights reserved.
data_415869-ICSD
_database_code_ICSD 415869
_audit_creation_date 2011-08-01
_chemical_name_systematic 'Sodium lanthanum tetrafluoride - beta'
_chemical_formula_structural '(Na La F4)1.5'
_chemical_formula_sum 'F6 La1.5 Na1.5'
_chemical_name_structure_type NaNdF4
_exptl_crystal_density_diffrn 4.66
_cell_measurement_temperature 298.
_publ_section_title

;
Structural and spectroscopic characterization of active sites in a family of
light-emitting sodium lanthanide tetrafluorides
;
loop_
_citation_id
_citation_journal_full
_citation_year
_citation_journal_volume
_citation_page_first
_citation_page_last
_citation_journal_id_ASTM
primary 'Angewandte Chemie, International Edition' 2006 45 2802 2806 ACIEF5
loop_
_publ_author_name
'Aebischer, A.'
'Hostettler, M.'
'Hauser, J.'
'Kraemer, K.'
'Weber, T.'
'Guedel, H.U.'
'Buergi, H.B.'
_cell_length_a 6.1863(9)
_cell_length_b 6.1863(9)
_cell_length_c 3.8338(8)
_cell_angle_alpha 90.
_cell_angle_beta 90.
_cell_angle_gamma 120.
_cell_volume 127.06
_cell_formula_units_Z 1
_symmetry_space_group_name_H-M 'P -6'
_symmetry_Int_Tables_number 174
_refine_ls_R_factor_all 0.013
loop_
_symmetry_equiv_pos_site_id
_symmetry_equiv_pos_as_xyz
1 '-x+y, -x, -z'
2 '-y, x-y, -z'
3 'x, y, -z'
4 '-x+y, -x, z'
5 '-y, x-y, z'
6 'x, y, z'
loop_
_atom_type_symbol
_atom_type_oxidation_number
La3+ 3
Na1+ 1
F1- -1
loop_
_atom_site_label
_atom_site_type_symbol
_atom_site_symmetry_multiplicity
_atom_site_Wyckoff_symbol
_atom_site_fract_x
_atom_site_fract_y
_atom_site_fract_z
_atom_site_B_iso_or_equiv
_atom_site_occupancy
_atom_site_attached_hydrogens
La1 La3+ 1 a 0. 0. 0. 0.0124(3) 1 0
La2 La3+ 1 f 0.6667 0.3333 0.5 0.0149(3) 0.5 0
Na1 Na1+ 1 f 0.6667 0.3333 0.5 0.0149(3) 0.5 0
Na2 Na1+ 2 h 0.3333 0.6667 0.673(3) 0.041(3) 0.5 0
F1 F1- 3 j 0.6290(7) 0.0367(9) 0. 0.0315(9) 1 0
F2 F1- 3 k 0.7322(5) 0.7531(5) 0.5 0.0171(6) 1 0
loop_
_atom_site_aniso_label
_atom_site_aniso_type_symbol
_atom_site_aniso_U_11
_atom_site_aniso_U_22
_atom_site_aniso_U_33
_atom_site_aniso_U_12
_atom_site_aniso_U_13
_atom_site_aniso_U_23
La1 La3+ 0.0142(3) 0.0142(3) 0.0089(4) 0.00708(13) 0. 0.
La2 La3+ 0.0128(4) 0.0128(4) 0.0192(9) 0.0064(2) 0. 0.
Na1 Na1+ 0.0128(4) 0.0128(4) 0.0192(9) 0.0064(2) 0. 0.
Na2 Na1+ 0.0298(19) 0.0298(19) 0.065(9) 0.0149(10) 0. 0.
F1 F1- 0.0204(16) 0.0280(18) 0.048(2) 0.0137(11) 0. 0.
F2 F1- 0.0174(15) 0.0169(14) 0.0129(13) 0.0056(13) 0. 0.
#End of TTdata_415869-ICSD