
#(C) 2019 by FIZ Karlsruhe - Leibniz Institute for Information Infrastructure.  All rights reserved.
data_415859-ICSD
_database_code_ICSD 415859
_audit_creation_date 2007-08-01
_chemical_name_systematic 'Tetrasodium vanadylbis(orthophosphate) - gamma'
_chemical_formula_structural 'Na4 V O (P O4)2'
_chemical_formula_sum 'Na4 O9 P2 V1'
_exptl_crystal_density_diffrn 2.88
_publ_section_title
'Structure transformations in the Na(4+x) V O (P O4)2 vanadylphosphates'
loop_
_citation_id
_citation_journal_full
_citation_year
_citation_journal_volume
_citation_page_first
_citation_page_last
_citation_journal_id_ASTM
primary 'Journal of Solid State Chemistry' 2006 179 2681 2689 JSSCBI
loop_
_publ_author_name
'Shpanchenko, R.V.'
'Dikarev, E.V.'
'Mironov, A.V.'
'Mudretsova, S.N.'
'Antipov, E.V.'
_cell_length_a 15.444(2)
_cell_length_b 14.846(4)
_cell_length_c 7.0077(14)
_cell_angle_alpha 90
_cell_angle_beta 90
_cell_angle_gamma 90
_cell_volume 1606.74
_cell_formula_units_Z 8
_symmetry_space_group_name_H-M 'P b c 21'
_symmetry_Int_Tables_number 29
_refine_ls_R_factor_all 0.029
loop_
_symmetry_equiv_pos_site_id
_symmetry_equiv_pos_as_xyz
1 '-x, y+1/2, z'
2 'x, -y+1/2, z+1/2'
3 '-x, -y, z+1/2'
4 'x, y, z'
loop_
_atom_type_symbol
_atom_type_oxidation_number
V4+ 4
P5+ 5
Na1+ 1
O2- -2
loop_
_atom_site_label
_atom_site_type_symbol
_atom_site_symmetry_multiplicity
_atom_site_Wyckoff_symbol
_atom_site_fract_x
_atom_site_fract_y
_atom_site_fract_z
_atom_site_B_iso_or_equiv
_atom_site_occupancy
_atom_site_attached_hydrogens
V1 V4+ 4 a 0.00141(7) 0.49996(5) 0.5 0.01155(12) 1 0
V2 V4+ 4 a 0.50143(6) 0.00800(6) 0.0309(2) 0.00650(16) 0.789(6) 0
V3 V4+ 4 a 0.4956(3) -0.0084(3) -0.0318(9) 0.0114(8) 0.211(6) 0
P1 P5+ 4 a 0.37118(4) 0.62330(4) 0.7500(3) 0.00973(13) 1 0
P2 P5+ 4 a 0.13493(4) 0.37679(4) 0.7529(3) 0.00949(13) 1 0
P3 P5+ 4 a 0.37214(4) 0.37004(4) 0.2520(3) 0.01021(14) 1 0
P4 P5+ 4 a 0.12315(4) 0.63651(4) 0.2511(3) 0.00757(12) 1 0
Na1 Na1+ 4 a 0.87272(7) 0.13489(8) 0.7508(6) 0.0145(3) 0.952 0
Na2 Na1+ 4 a 0.74736(13) 0.02153(15) 0.4851(4) 0.0248(5) 1 0
Na3 Na1+ 4 a 0.13923(13) 0.11871(13) 0.7540(9) 0.0163(5) 0.579 0
Na4 Na1+ 4 a 0.36191(9) 0.11515(10) 0.2537(7) 0.0197(4) 0.787 0
Na5 Na1+ 4 a 0.49118(8) 0.24750(17) 0.4957(4) 0.0297(4) 0.988 0
Na6 Na1+ 4 a 0.02706(8) 0.25004(17) 0.5016(4) 0.0227(3) 0.987 0
Na7 Na1+ 4 a 0.71553(9) 0.25013(20) 0.5006(4) 0.0247(4) 0.912 0
Na8 Na1+ 4 a 0.2510(4) 0.2241(3) 0.0008(7) 0.0304(15) 0.44 0
Na9 Na1+ 4 a 0.74804(14) 0.02108(14) 0.0178(4) 0.0247(5) 1 0
Na10 Na1+ 4 a 0.2512(4) 0.2238(4) 0.5138(10) 0.0276(16) 0.378 0
O1 O2- 4 a 0.00356(9) 0.54512(12) 0.7509(5) 0.0125(4) 1 0
O2 O2- 4 a 0.22105(10) 0.65081(13) 0.2520(6) 0.0159(4) 1 0
O3 O2- 4 a 0.10114(18) 0.5792(2) 0.0703(5) 0.0122(7) 1 0
O4 O2- 4 a 0.08399(18) 0.40238(19) 0.5696(5) 0.0124(7) 1 0
O5 O2- 4 a 0.10116(18) 0.5801(2) 0.4336(4) 0.0113(6) 1 0
O6 O2- 4 a 0.27235(10) 0.63312(12) 0.7487(6) 0.0151(4) 1 0
O7 O2- 4 a 0.08250(19) 0.4023(2) 0.9334(5) 0.0140(7) 1 0
O8 O2- 4 a 0.42438(18) 0.3960(2) 0.4330(5) 0.0149(7) 1 0
O9 O2- 4 a 0.42328(17) 0.3995(2) 0.0716(4) 0.0136(6) 1 0
O10 O2- 4 a 0.36527(14) 0.26750(11) 0.2457(6) 0.0215(5) 1 0
O11 O2- 4 a 0.39591(18) 0.5668(2) 0.5726(4) 0.0153(7) 1 0
O12 O2- 4 a 0.07287(12) 0.72438(11) 0.2530(6) 0.0151(4) 1 0
O13 O2- 4 a 0.28361(11) 0.41490(14) 0.2532(6) 0.0204(5) 1 0
O14 O2- 4 a 0.39499(17) 0.5692(2) 0.9314(4) 0.0151(7) 1 0
O15 O2- 4 a 0.14433(16) 0.27416(12) 0.7509(6) 0.0249(6) 1 0
O16 O2- 4 a 0.41214(12) 0.71578(12) 0.7508(6) 0.0193(5) 1 0
O17 O2- 4 a 0.50663(10) 0.04852(12) 0.2497(5) 0.0116(4) 1 0
O18 O2- 4 a 0.22162(12) 0.42438(17) 0.7519(6) 0.0264(6) 1 0
loop_
_atom_site_aniso_label
_atom_site_aniso_type_symbol
_atom_site_aniso_U_11
_atom_site_aniso_U_22
_atom_site_aniso_U_33
_atom_site_aniso_U_12
_atom_site_aniso_U_13
_atom_site_aniso_U_23
V1 V4+ 0.00683(15) 0.01153(15) 0.0163(3) 0.00014(9) -0.00060(13) 0.00693(14)
V2 V4+ 0.0059(2) 0.0099(2) 0.0036(4) 0.00055(19) 0.0001(3) 0.0014(2)
P1 P5+ 0.0080(2) 0.0133(2) 0.0079(2) 0.00304(17) 0.0010(5) 0.0028(6)
P2 P5+ 0.0109(2) 0.0105(2) 0.0070(3) 0.00411(17) -0.0017(5) 0.0002(5)
P3 P5+ 0.0128(2) 0.0096(2) 0.0083(3) -0.00402(18) -0.0010(5) 0.0017(6)
P4 P5+ 0.00784(19) 0.0085(2) 0.0064(2) -0.00137(16) 0.0006(4) 0.0003(5)
Na1 Na1+ 0.0117(4) 0.0169(5) 0.0150(5) 0.0010(4) 0.0011(10) 0.0012(11)
Na2 Na1+ 0.0230(10) 0.0325(8) 0.0191(10) -0.0044(8) 0.0032(7) -0.0048(9)
Na3 Na1+ 0.0158(8) 0.0181(8) 0.0152(9) 0.0033(6) 0.0030(16) 0.0035(16)
Na4 Na1+ 0.0157(6) 0.0177(6) 0.0257(8) -0.0003(5) 0.0018(13) 0.0009(13)
Na5 Na1+ 0.0217(5) 0.0366(7) 0.0310(10) -0.0030(11) 0.0099(11) 0.0190(6)
Na6 Na1+ 0.0200(5) 0.0269(5) 0.0211(7) 0.0001(8) -0.0012(9) -0.0115(5)
Na7 Na1+ 0.0258(6) 0.0267(6) 0.0214(7) -0.0019(10) -0.0044(10) 0.0119(5)
Na8 Na1+ 0.033(3) 0.038(2) 0.020(3) -0.010(2) 0.0165(17) 0.001(2)
Na9 Na1+ 0.0249(10) 0.0336(8) 0.0157(9) -0.0085(8) -0.0028(6) 0.0037(11)
Na10 Na1+ 0.016(2) 0.034(3) 0.033(4) 0.004(2) -0.0091(18) 0.009(3)
O1 O2- 0.0112(6) 0.0114(6) 0.0150(8) -0.0003(5) -0.0037(17) -0.0004(10)
O2 O2- 0.0093(6) 0.0232(8) 0.0153(8) -0.0050(6) 0.0040(11) -0.0005(14)
O3 O2- 0.0131(11) 0.0150(12) 0.0083(12) -0.0039(9) 0.0015(9) -0.0020(10)
O4 O2- 0.0165(12) 0.0127(13) 0.0082(12) 0.0041(9) -0.0021(9) -0.0004(9)
O5 O2- 0.0132(11) 0.0150(12) 0.0057(10) -0.0051(9) 0.0000(8) 0.0031(9)
O6 O2- 0.0089(6) 0.0214(8) 0.0151(8) 0.0047(5) -0.0043(11) -0.0016(14)
O7 O2- 0.0177(12) 0.0134(13) 0.0110(12) 0.0047(10) 0.0051(10) -0.0012(10)
O8 O2- 0.0188(12) 0.0145(11) 0.0113(12) -0.0057(9) -0.0043(9) 0.0005(9)
O9 O2- 0.0164(11) 0.0168(12) 0.0075(11) -0.0062(9) 0.0016(8) -0.0007(9)
O10 O2- 0.0306(9) 0.0105(7) 0.0235(10) -0.0088(6) -0.0009(15) -0.0012(14)
O11 O2- 0.0130(10) 0.0225(13) 0.0104(11) 0.0061(9) -0.0025(8) -0.0042(10)
O12 O2- 0.0204(7) 0.0096(6) 0.0152(8) 0.0019(5) -0.0005(12) 0.0001(11)
O13 O2- 0.0125(7) 0.0302(10) 0.0185(9) -0.0011(6) 0.0049(13) -0.0017(16)
O14 O2- 0.0120(11) 0.0263(14) 0.0070(10) 0.0072(10) -0.0009(8) 0.0045(10)
O15 O2- 0.0438(12) 0.0121(7) 0.0190(9) 0.0144(7) 0.0049(17) 0.0025(13)
O16 O2- 0.0181(7) 0.0152(7) 0.0245(10) 0.0000(6) -0.0001(14) 0.0017(14)
O17 O2- 0.0128(6) 0.0140(6) 0.0079(7) 0.0002(5) -0.0028(13) -0.0012(9)
O18 O2- 0.0119(7) 0.0482(13) 0.0191(10) -0.0068(8) -0.0024(13) 0.0010(19)
#End of TTdata_415859-ICSD