
#(C) 2019 by FIZ Karlsruhe - Leibniz Institute for Information Infrastructure.  All rights reserved.
data_416073-ICSD
_database_code_ICSD 416073
_audit_creation_date 2007-08-01
_audit_update_record 2013-02-01
_chemical_name_systematic 'Sodium potassium lead fluoride bromide (1/1/11/18/6)'
_chemical_formula_structural 'Na K Pb11 F18 Br6'
_chemical_formula_sum 'Br6 F18 K1 Na1 Pb11'
_chemical_name_structure_type Na2Pb11F18Br6
_exptl_crystal_density_diffrn 7.17
_publ_section_title
'Disorder in alkali lead fluorides Na(2-x) K(x) Pb11 F18 X6 with X = Cl, Br'
loop_
_citation_id
_citation_journal_full
_citation_year
_citation_journal_volume
_citation_page_first
_citation_page_last
_citation_journal_id_ASTM
primary 'Zeitschrift fuer Kristallographie' 2006 221 600 605 ZEKRDZ
loop_
_publ_author_name
'Kubel, F.'
'Rief, A.'
_cell_length_a 14.4377(12)
_cell_length_b 14.4377(12)
_cell_length_c 4.0576(3)
_cell_angle_alpha 90.
_cell_angle_beta 90.
_cell_angle_gamma 120.
_cell_volume 732.48
_cell_formula_units_Z 1
_symmetry_space_group_name_H-M 'P 63/m'
_symmetry_Int_Tables_number 176
_refine_ls_R_factor_all 0.026
loop_
_symmetry_equiv_pos_site_id
_symmetry_equiv_pos_as_xyz
1 '-x+y, -x, -z+1/2'
2 '-y, x-y, -z+1/2'
3 'x, y, -z+1/2'
4 'x-y, x, -z'
5 'y, -x+y, -z'
6 '-x, -y, -z'
7 'x-y, x, z+1/2'
8 'y, -x+y, z+1/2'
9 '-x, -y, z+1/2'
10 '-x+y, -x, z'
11 '-y, x-y, z'
12 'x, y, z'
loop_
_atom_type_symbol
_atom_type_oxidation_number
K1+ 1
Pb2+ 2
K1+ 1
Na1+ 1
Br1- -1
F1- -1
loop_
_atom_site_label
_atom_site_type_symbol
_atom_site_symmetry_multiplicity
_atom_site_Wyckoff_symbol
_atom_site_fract_x
_atom_site_fract_y
_atom_site_fract_z
_atom_site_B_iso_or_equiv
_atom_site_occupancy
_atom_site_attached_hydrogens
K1 K1+ 6 h .49009(2) .61386(2) .75 .01116 .1166(11) 0
Pb1 Pb2+ 6 h .49009(2) .61386(2) .75 .01116 .8834(11) 0
Pb2 Pb2+ 6 h .72740(2) .949991(19) -.25 .01388 .9499(11) 0
K2 K1+ 6 h .72740(2) .949991(19) -.25 .01388 .0501(11) 0
Na1 Na1+ 2 b . . . .041(3) .5 0
Br1 Br1- 6 h .51492(5) .79878(5) .25 .01648 1. 0
F1 F1- 6 h .4387(3) .4211(3) .75 .0139(8) 1. 0
F2 F1- 6 h .6798(3) .7416(3) .75 .0164(8) 1. 0
F3 F1- 6 h .8144(4) .9067(4) -.75 .0287(10) 1. 0
loop_
_atom_site_aniso_label
_atom_site_aniso_type_symbol
_atom_site_aniso_U_11
_atom_site_aniso_U_22
_atom_site_aniso_U_33
_atom_site_aniso_U_12
_atom_site_aniso_U_13
_atom_site_aniso_U_23
K1 K1+ .00645(15) .00753(15) .01962(17) .00352(11) . .
Pb1 Pb2+ .00645(15) .00753(15) .01962(17) .00352(11) . .
Pb2 Pb2+ .01028(15) .00628(14) .02118(15) .00118(11) . .
K2 K1+ .01028(15) .00628(14) .02118(15) .00118(11) . .
Na1 Na1+ .001(3) .001(3) .242(17) .0000(13) . .
Br1 Br1- .0172(3) .0117(3) .0231(3) .0092(3) . .
F1 F1- .0139(19) .0123(19) .0235(19) .0088(16) . .
F2 F1- .0094(19) .016(2) .026(2) .0063(16) . .
F3 F1- .042(3) .021(2) .039(2) .019(2) . .
#End of TTdata_416073-ICSD