
#(C) 2019 by FIZ Karlsruhe - Leibniz Institute for Information Infrastructure.  All rights reserved.
data_416033-ICSD
_database_code_ICSD 416033
_audit_creation_date 2007-04-01
_chemical_name_systematic 'Tribarium disodium tetracyanamide'
_chemical_formula_structural 'Ba3 Na2 (C N2)4'
_chemical_formula_sum 'C4 Ba3 N8 Na2'
_exptl_crystal_density_diffrn 3.93
_cell_measurement_temperature 167.
_publ_section_title
'Single crystal structure and Raman spectrum of Ba3 Na2 (C N2)4'
loop_
_citation_id
_citation_journal_full
_citation_year
_citation_journal_volume
_citation_page_first
_citation_page_last
_citation_journal_id_ASTM
primary 'Journal of Solid State Chemistry' 2006 179 1363 1368 JSSCBI
loop_
_publ_author_name
'Dong, Y.'
'DiSalvo, F.J.'
_cell_length_a 6.2872(5)
_cell_length_b 10.0002(8)
_cell_length_c 17.7303(16)
_cell_angle_alpha 90
_cell_angle_beta 110.454(4)
_cell_angle_gamma 90
_cell_volume 1044.48
_cell_formula_units_Z 4
_symmetry_space_group_name_H-M 'P 1 21/c 1'
_symmetry_Int_Tables_number 14
_refine_ls_R_factor_all 0.0431
loop_
_symmetry_equiv_pos_site_id
_symmetry_equiv_pos_as_xyz
1 'x, -y+1/2, z+1/2'
2 '-x, -y, -z'
3 '-x, y+1/2, -z+1/2'
4 'x, y, z'
loop_
_atom_type_symbol
_atom_type_oxidation_number
Ba2+ 2
Na1+ 1
C4+ 4
N3- -3
loop_
_atom_site_label
_atom_site_type_symbol
_atom_site_symmetry_multiplicity
_atom_site_Wyckoff_symbol
_atom_site_fract_x
_atom_site_fract_y
_atom_site_fract_z
_atom_site_B_iso_or_equiv
_atom_site_occupancy
_atom_site_attached_hydrogens
Ba1 Ba2+ 4 e 0.10586(3) 0.373793(16) 0.357371(10) 0.01003(4) 1 0
Ba2 Ba2+ 4 e 0.41355(3) 0.180883(15) 0.154518(10) 0.00900(4) 1 0
Ba3 Ba2+ 4 e 0.76581(3) 0.310775(15) 0.006634(9) 0.00886(4) 1 0
Na1 Na1+ 4 e 0.10794(19) 0.52348(11) 0.17002(7) 0.0114(2) 1 0
Na2 Na1+ 4 e 0.38954(18) 0.02152(11) 0.33101(7) 0.0107(2) 1 0
C1 C4+ 4 e 0.0447(4) 0.7231(3) 0.29933(16) 0.0087(5) 1 0
C2 C4+ 4 e 0.2568(4) 0.3953(2) 0.00273(15) 0.0087(5) 1 0
C3 C4+ 4 e 0.5613(4) 0.3275(2) 0.30959(17) 0.0082(5) 1 0
C4 C4+ 2 b 0.5 0 0 0.0094(7) 1 0
C5 C4+ 2 a 0 0 0 0.0086(6) 1 0
N1 N3- 4 e 0.0640(4) 0.1168(2) 0.01263(15) 0.0139(5) 1 0
N2 N3- 4 e 0.0654(4) 0.1211(2) 0.22818(15) 0.0123(4) 1 0
N3 N3- 4 e 0.1510(4) 0.8268(2) 0.32393(15) 0.0114(4) 1 0
N4 N3- 4 e 0.2425(4) 0.4199(2) 0.06889(14) 0.0113(4) 1 0
N5 N3- 4 e 0.2704(4) 0.1216(2) 0.43546(15) 0.0127(5) 1 0
N6 N3- 4 e 0.4465(4) 0.4247(2) 0.27672(14) 0.0129(4) 1 0
N7 N3- 4 e 0.6045(4) 0.0792(2) 0.05314(14) 0.0129(4) 1 0
N8 N3- 4 e 0.6707(4) 0.2252(2) 0.33815(15) 0.0138(5) 1 0
loop_
_atom_site_aniso_label
_atom_site_aniso_type_symbol
_atom_site_aniso_U_11
_atom_site_aniso_U_22
_atom_site_aniso_U_33
_atom_site_aniso_U_12
_atom_site_aniso_U_13
_atom_site_aniso_U_23
Ba1 Ba2+ 0.01118(7) 0.01059(7) 0.00798(8) -0.00145(5) 0.00291(6) 0.00038(6)
Ba2 Ba2+ 0.01006(7) 0.00891(7) 0.00781(8) -0.00002(5) 0.00285(6) 0.00034(5)
Ba3 Ba2+ 0.00921(7) 0.00914(7) 0.00724(8) 0.00015(5) 0.00165(6) 0.00034(5)
Na1 Na1+ 0.0127(5) 0.0116(5) 0.0093(5) -0.0004(4) 0.0029(4) -0.0003(4)
Na2 Na1+ 0.0103(5) 0.0115(5) 0.0090(5) 0.0001(4) 0.0016(4) 0.0001(4)
C1 C4+ 0.0078(11) 0.0130(11) 0.0052(12) 0.0028(9) 0.0022(9) 0.0014(9)
C2 C4+ 0.0061(10) 0.0056(10) 0.0127(13) -0.0010(8) 0.0011(10) 0.0003(9)
C3 C4+ 0.0096(11) 0.0097(11) 0.0061(11) -0.0026(9) 0.0038(9) -0.0030(9)
C4 C4+ 0.0107(16) 0.0082(15) 0.0108(17) 0.0019(12) 0.0057(14) 0.0026(13)
C5 C4+ 0.0097(16) 0.0118(16) 0.0044(15) 0.0043(13) 0.0024(13) 0.0023(13)
N1 N3- 0.0124(11) 0.0127(11) 0.0161(12) -0.0005(8) 0.0044(9) -0.0021(9)
N2 N3- 0.0119(10) 0.0129(11) 0.0115(11) -0.0004(8) 0.0035(9) 0.0004(9)
N3 N3- 0.0136(11) 0.0102(10) 0.0116(12) 0.0009(8) 0.0058(9) -0.0001(8)
N4 N3- 0.0130(10) 0.0108(10) 0.0088(11) 0.0004(8) 0.0022(9) 0.0001(8)
N5 N3- 0.0120(10) 0.0154(11) 0.0110(11) 0.0005(9) 0.0042(9) -0.0017(9)
N6 N3- 0.0149(11) 0.0106(10) 0.0125(11) 0.0012(8) 0.0041(9) -0.0002(9)
N7 N3- 0.0134(11) 0.0132(10) 0.0123(12) -0.0013(9) 0.0049(9) -0.0010(9)
N8 N3- 0.0145(11) 0.0154(11) 0.0106(12) 0.0021(9) 0.0035(9) 0.0015(9)
#End of TTdata_416033-ICSD