
#(C) 2019 by FIZ Karlsruhe - Leibniz Institute for Information Infrastructure.  All rights reserved.
data_416039-ICSD
_database_code_ICSD 416039
_audit_creation_date 2006-10-01
_chemical_name_systematic
'Tripotassium sodium diruthenate(VI) - low temperature phase'
_chemical_formula_structural 'K3 Na (Ru O4)2'
_chemical_formula_sum 'K3 Na1 O8 Ru2'
_chemical_name_structure_type Na2BaCu(VO4)2
_exptl_crystal_density_diffrn 3.31
_publ_section_title

;
K3 Na (Ru O4)2 and Rb3 Na (Ru O4)2, two new ruthenates with glaserite
structure
;
loop_
_citation_id
_citation_journal_full
_citation_year
_citation_journal_volume
_citation_page_first
_citation_page_last
_citation_journal_id_ASTM
primary 'Solid State Sciences' 2006 8 500 507 SSSCFJ
loop_
_publ_author_name
'Mogare, K.M.'
'Klein, W.'
'Peters, E.M.'
'Jansen, M.'
_cell_length_a 10.323(8)
_cell_length_b 5.989(4)
_cell_length_c 15.278(7)
_cell_angle_alpha 90.
_cell_angle_beta 90.49(5)
_cell_angle_gamma 90.
_cell_volume 944.52
_cell_formula_units_Z 4
_symmetry_space_group_name_H-M 'C 1 2/c 1'
_symmetry_Int_Tables_number 15
_refine_ls_R_factor_all 0.0511
loop_
_symmetry_equiv_pos_site_id
_symmetry_equiv_pos_as_xyz
1 'x, -y, z+1/2'
2 '-x, -y, -z'
3 '-x, y, -z+1/2'
4 'x, y, z'
5 'x+1/2, -y+1/2, z+1/2'
6 '-x+1/2, -y+1/2, -z'
7 '-x+1/2, y+1/2, -z+1/2'
8 'x+1/2, y+1/2, z'
loop_
_atom_type_symbol
_atom_type_oxidation_number
K1+ 1
Na1+ 1
Ru6+ 6
O2- -2
loop_
_atom_site_label
_atom_site_type_symbol
_atom_site_symmetry_multiplicity
_atom_site_Wyckoff_symbol
_atom_site_fract_x
_atom_site_fract_y
_atom_site_fract_z
_atom_site_B_iso_or_equiv
_atom_site_occupancy
_atom_site_attached_hydrogens
K1 K1+ 4 e 0. 0.0509(5) 0.25 0.0329(6) 1 0
K2 K1+ 8 f 0.3298(2) 0.0211(3) 0.08126(10) 0.0254(3) 1 0
Na1 Na1+ 4 a 0. 0. 0. 0.0198(7) 1 0
Ru1 Ru6+ 8 f 0.16409(7) 0.51827(8) 0.14232(3) 0.01524(16) 1 0
O1 O2- 8 f 0.1745(9) 0.4446(11) 0.2520(3) 0.0443(17) 1 0
O2 O2- 8 f 0.3161(6) 0.5317(12) 0.0918(5) 0.0374(17) 1 0
O3 O2- 8 f 0.0780(7) 0.7657(10) 0.1175(4) 0.0308(14) 1 0
O4 O2- 8 f 0.0846(7) 0.2973(10) 0.0842(4) 0.0266(13) 1 0
loop_
_atom_site_aniso_label
_atom_site_aniso_type_symbol
_atom_site_aniso_U_11
_atom_site_aniso_U_22
_atom_site_aniso_U_33
_atom_site_aniso_U_12
_atom_site_aniso_U_13
_atom_site_aniso_U_23
K1 K1+ 0.0462(18) 0.0303(13) 0.0223(11) 0. 0.0034(12) 0.
K2 K1+ 0.0286(10) 0.0278(9) 0.0199(7) -0.0007(8) 0.0001(7) 0.0032(6)
Na1 Na1+ 0.020(2) 0.018(2) 0.0221(17) -0.0014(18) 0.0023(19) 0.0018(15)
Ru1 Ru6+ 0.0181(3) 0.0143(3) 0.0133(2) 0.0006(3) 0.0002(2) -0.0004(2)
O1 O2- 0.073(6) 0.045(4) 0.015(3) -0.003(4) -0.004(3) 0.005(3)
O2 O2- 0.021(3) 0.042(4) 0.050(4) 0.001(3) 0.012(3) -0.015(3)
O3 O2- 0.039(4) 0.025(3) 0.028(3) 0.013(3) -0.009(3) 0.001(2)
O4 O2- 0.030(4) 0.028(3) 0.022(3) -0.006(3) -0.008(3) -0.008(2)
#End of TTdata_416039-ICSD