
#(C) 2018 by FIZ Karlsruhe - Leibniz Institute for Information Infrastructure.  All rights reserved.
data_416199-ICSD
_database_code_ICSD 416199
_audit_creation_date 2007-08-01
_chemical_name_systematic 'Dilanthanum lithium osmium hexaoxide'
_chemical_formula_structural 'La2 Li Os O6'
_chemical_formula_sum 'La2 Li1 O6 Os1'
_chemical_name_structure_type Perovskite-Na3AlF6
_chemical_name_mineral 'Perovskite, double'
_exptl_crystal_density_diffrn 7.66
_cell_measurement_temperature 294.
_publ_section_title

;
Synthesis, structural characterization, and magnetic properties of the
antiferromagnetic double perovskites Ln2 Li Os O6 (Ln = La, Pr, Nd, Sm)
;
loop_
_citation_id
_citation_journal_full
_citation_year
_citation_journal_volume
_citation_page_first
_citation_page_last
_citation_journal_id_ASTM
primary 'Journal of Solid State Chemistry' 2006 179 1750 1756 JSSCBI
loop_
_publ_author_name
'Gemmill, W.R.'
'Smith, M.D.'
'zur Loye, H.C.'
_cell_length_a 5.5603(2)
_cell_length_b 5.6564(2)
_cell_length_c 7.8662(2)
_cell_angle_alpha 90.
_cell_angle_beta 90.1470(10)
_cell_angle_gamma 90.
_cell_volume 247.4
_cell_formula_units_Z 2
_symmetry_space_group_name_H-M 'P 1 21/n 1'
_symmetry_Int_Tables_number 14
_refine_ls_R_factor_all 0.0294
loop_
_symmetry_equiv_pos_site_id
_symmetry_equiv_pos_as_xyz
1 '-x+1/2, y+1/2, -z+1/2'
2 '-x, -y, -z'
3 'x+1/2, -y+1/2, z+1/2'
4 'x, y, z'
loop_
_atom_type_symbol
_atom_type_oxidation_number
La3+ 3
Li1+ 1
Os5+ 5
O2- -2
loop_
_atom_site_label
_atom_site_type_symbol
_atom_site_symmetry_multiplicity
_atom_site_Wyckoff_symbol
_atom_site_fract_x
_atom_site_fract_y
_atom_site_fract_z
_atom_site_B_iso_or_equiv
_atom_site_occupancy
_atom_site_attached_hydrogens
La1 La3+ 4 e 0.49116(7) 0.04600(5) 0.25114(4) 0.00910(8) 1 0
Li1 Li1+ 2 a 0. 0. 0. 0.016(3) 1 0
Os1 Os5+ 2 b 0.5 0.5 0. 0.00655(7) 1 0
O1 O2- 4 e 0.2182(7) 0.3011(7) 0.0415(5) 0.0088(7) 1 0
O2 O2- 4 e 0.5788(7) 0.4828(7) 0.2418(5) 0.0094(7) 1 0
O3 O2- 4 e 0.3032(7) 0.7818(7) 0.0437(5) 0.0101(7) 1 0
loop_
_atom_site_aniso_label
_atom_site_aniso_type_symbol
_atom_site_aniso_U_11
_atom_site_aniso_U_22
_atom_site_aniso_U_33
_atom_site_aniso_U_12
_atom_site_aniso_U_13
_atom_site_aniso_U_23
La1 La3+ 0.00847(14) 0.01021(14) 0.00861(13) -0.00095(10) -0.00023(11)
0.00036(9)
Os1 Os5+ 0.00595(12) 0.00729(12) 0.00642(12) -0.00020(9) -0.00001(9) 0.00003(9)
O1 O2- 0.0065(16) 0.0118(17) 0.0081(17) -0.0017(13) 0.0032(13) -0.0029(13)
O2 O2- 0.0047(17) 0.0151(19) 0.0085(17) -0.0002(12) 0.0005(13) -0.0017(15)
O3 O2- 0.0097(17) 0.0084(17) 0.0122(18) 0.0038(13) -0.0012(14) -0.0032(14)
#End of TTdata_416199-ICSD