
#(C) 2018 by FIZ Karlsruhe - Leibniz Institute for Information Infrastructure.  All rights reserved.
data_416196-ICSD
_database_code_ICSD 416196
_audit_creation_date 2007-08-01
_chemical_name_systematic 'Disamarium lithium osmium hexaoxide'
_chemical_formula_structural 'Sm2 Li Os O6'
_chemical_formula_sum 'Li1 O6 Os1 Sm2'
_chemical_name_structure_type Perovskite-Na3AlF6
_chemical_name_mineral 'Perovskite, double'
_exptl_crystal_density_diffrn 8.34
_cell_measurement_temperature 294.
_publ_section_title

;
Synthesis, structural characterization, and magnetic properties of the
antiferromagnetic double perovskites Ln2 Li Os O6 (Ln = La, Pr, Nd, Sm)
;
loop_
_citation_id
_citation_journal_full
_citation_year
_citation_journal_volume
_citation_page_first
_citation_page_last
_citation_journal_id_ASTM
primary 'Journal of Solid State Chemistry' 2006 179 1750 1756 JSSCBI
loop_
_publ_author_name
'Gemmill, W.R.'
'Smith, M.D.'
'zur Loye, H.C.'
_cell_length_a 5.3836(2)
_cell_length_b 5.7419(2)
_cell_length_c 7.6510(3)
_cell_angle_alpha 90.
_cell_angle_beta 90.6880(10)
_cell_angle_gamma 90.
_cell_volume 236.49
_cell_formula_units_Z 2
_symmetry_space_group_name_H-M 'P 1 21/n 1'
_symmetry_Int_Tables_number 14
_refine_ls_R_factor_all 0.0239
loop_
_symmetry_equiv_pos_site_id
_symmetry_equiv_pos_as_xyz
1 '-x+1/2, y+1/2, -z+1/2'
2 '-x, -y, -z'
3 'x+1/2, -y+1/2, z+1/2'
4 'x, y, z'
loop_
_atom_type_symbol
_atom_type_oxidation_number
Sm3+ 3
Li1+ 1
Os5+ 5
O2- -2
loop_
_atom_site_label
_atom_site_type_symbol
_atom_site_symmetry_multiplicity
_atom_site_Wyckoff_symbol
_atom_site_fract_x
_atom_site_fract_y
_atom_site_fract_z
_atom_site_B_iso_or_equiv
_atom_site_occupancy
_atom_site_attached_hydrogens
Sm1 Sm3+ 4 e 0.48322(6) 0.07095(6) 0.25133(4) 0.00533(11) 1 0
Li1 Li1+ 2 a 0. 0. 0. 0.008(3) 1 0
Os1 Os5+ 2 b 0.5 0.5 0. 0.00355(11) 1 0
O1 O2- 4 e 0.2009(8) 0.3173(8) 0.0492(6) 0.0063(8) 1 0
O2 O2- 4 e 0.6026(9) 0.4656(8) 0.2449(6) 0.0056(8) 1 0
O3 O2- 4 e 0.3237(9) 0.7895(9) 0.0548(6) 0.0075(8) 1 0
loop_
_atom_site_aniso_label
_atom_site_aniso_type_symbol
_atom_site_aniso_U_11
_atom_site_aniso_U_22
_atom_site_aniso_U_33
_atom_site_aniso_U_12
_atom_site_aniso_U_13
_atom_site_aniso_U_23
Sm1 Sm3+ 0.00598(16) 0.00350(17) 0.00651(16) -0.00070(10) 0.00044(10) 0.00036(9)
Os1 Os5+ 0.00336(16) 0.00250(17) 0.00480(15) -0.00003(9) 0.00053(10) 0.00019(10)
O1 O2- 0.0062(18) 0.003(2) 0.0098(19) -0.0018(14) 0.0021(14) 0.0004(15)
O2 O2- 0.007(2) 0.003(2) 0.0066(18) -0.0014(15) 0.0008(14) -0.0014(15)
O3 O2- 0.0084(19) 0.0033(19) 0.0107(19) 0.0008(16) 0.0005(15) -0.0022(16)
#End of TTdata_416196-ICSD