
#(C) 2019 by FIZ Karlsruhe - Leibniz Institute for Information Infrastructure.  All rights reserved.
data_416328-ICSD
_database_code_ICSD 416328
_audit_creation_date 2007-08-01
_chemical_name_systematic 'Dirubidium disodium orthosilicate'
_chemical_formula_structural 'Rb2 Na2 (Si O4)'
_chemical_formula_sum 'Na2 O4 Rb2 Si1'
_exptl_crystal_density_diffrn 3.43
_publ_section_title 'Ein neuer Vertreter des A2B2CX4-Typs: Rb2 Na2 Si O4'
loop_
_citation_id
_citation_journal_full
_citation_year
_citation_journal_volume
_citation_page_first
_citation_page_last
_citation_journal_id_ASTM
primary 'Zeitschrift fuer Naturforschung, B: A Journal of Chemical Sciences'
2006 61 833 837 ZNBSEN
loop_
_publ_author_name
'Kerp, O.'
'Moeller, A.'
_cell_length_a 9.8320(7)
_cell_length_b 10.9226(6)
_cell_length_c 11.1304(8)
_cell_angle_alpha 90.
_cell_angle_beta 90.
_cell_angle_gamma 90.
_cell_volume 1195.3
_cell_formula_units_Z 8
_symmetry_space_group_name_H-M 'P b c a'
_symmetry_Int_Tables_number 61
_refine_ls_R_factor_all 0.0597
loop_
_symmetry_equiv_pos_site_id
_symmetry_equiv_pos_as_xyz
1 'x+1/2, y, -z+1/2'
2 'x, -y+1/2, z+1/2'
3 '-x+1/2, y+1/2, z'
4 '-x, -y, -z'
5 '-x+1/2, -y, z+1/2'
6 '-x, y+1/2, -z+1/2'
7 'x+1/2, -y+1/2, -z'
8 'x, y, z'
loop_
_atom_type_symbol
_atom_type_oxidation_number
Rb1+ 1
Si4+ 4
Na1+ 1
O2- -2
loop_
_atom_site_label
_atom_site_type_symbol
_atom_site_symmetry_multiplicity
_atom_site_Wyckoff_symbol
_atom_site_fract_x
_atom_site_fract_y
_atom_site_fract_z
_atom_site_B_iso_or_equiv
_atom_site_occupancy
_atom_site_attached_hydrogens
Rb1 Rb1+ 8 c 0.20158(5) 0.43744(5) 0.03529(6) 0.02828(16) 1 0
Rb2 Rb1+ 8 c 0.14100(5) 0.34953(6) 0.36402(6) 0.02794(16) 1 0
Si1 Si4+ 8 c 0.15784(14) 0.69554(15) 0.18221(14) 0.0200(3) 1 0
Na1 Na1+ 8 c 0.4080(2) 0.5481(2) 0.2535(2) 0.0274(5) 1 0
Na2 Na1+ 8 c 0.0329(2) 0.7508(2) 0.4069(2) 0.0263(5) 1 0
O1 O2- 8 c 0.1220(3) 0.8369(4) 0.2260(4) 0.0233(9) 1 0
O2 O2- 8 c 0.1583(4) 0.6059(4) 0.3020(4) 0.0247(8) 1 0
O3 O2- 8 c 0.3087(4) 0.6895(4) 0.1193(4) 0.0255(9) 1 0
O4 O2- 8 c 0.0395(4) 0.6483(4) 0.0883(4) 0.0249(8) 1 0
loop_
_atom_site_aniso_label
_atom_site_aniso_type_symbol
_atom_site_aniso_U_11
_atom_site_aniso_U_22
_atom_site_aniso_U_33
_atom_site_aniso_U_12
_atom_site_aniso_U_13
_atom_site_aniso_U_23
Rb1 Rb1+ 0.0275(3) 0.0255(3) 0.0319(3) 0.0003(2) -0.0021(2) 0.0000(3)
Rb2 Rb1+ 0.0227(2) 0.0305(3) 0.0306(3) -0.0030(2) 0.0006(2) -0.0001(2)
Si1 Si4+ 0.0170(6) 0.0218(7) 0.0212(7) -0.0004(5) 0.0000(6) -0.0009(6)
Na1 Na1+ 0.0273(10) 0.0245(12) 0.0304(12) -0.0014(9) -0.0032(10) 0.0017(10)
Na2 Na1+ 0.0237(10) 0.0309(14) 0.0244(13) 0.0007(9) 0.0019(9) -0.0022(10)
O1 O2- 0.0185(16) 0.023(2) 0.029(2) 0.0006(15) -0.0011(15) -0.0016(16)
O2 O2- 0.0252(18) 0.026(2) 0.0225(19) 0.0046(15) 0.0026(16) -0.0001(17)
O3 O2- 0.0208(16) 0.026(2) 0.030(2) 0.0002(16) 0.0011(16) 0.0019(17)
O4 O2- 0.0208(17) 0.026(2) 0.028(2) -0.0005(15) -0.0038(15) -0.0005(18)
#End of TTdata_416328-ICSD