
#(C) 2019 by FIZ Karlsruhe - Leibniz Institute for Information Infrastructure.  All rights reserved.
data_416613-ICSD
_database_code_ICSD 416613
_audit_creation_date 2008-08-01
_chemical_name_systematic 'Sodium cerium diphosphate(V)'
_chemical_formula_structural 'Na Ce (P2 O7)'
_chemical_formula_sum 'Ce1 Na1 O7 P2'
_chemical_name_structure_type Sr2P2O7
_exptl_crystal_density_diffrn 3.87
_cell_measurement_temperature 273.
_publ_section_title

;
Crystal and band structures and optical characterizations of sodium rare earth
phosphates Na Ln P2 O7 and Na Ln (P O3)4 (Ln= Ce, Eu)
;
loop_
_citation_id
_citation_journal_full
_citation_year
_citation_journal_volume
_citation_page_first
_citation_page_last
_citation_journal_id_ASTM
primary 'Journal of Alloys and Compounds' 2008 454 419 426 JALCEU
loop_
_publ_author_name
'Zhu Jing'
'Cheng Wen Dan'
'Wu Dongsheng'
'Zhang Hao'
'Gong Yajing'
'Tong Huanan'
'Zhao Dan'
_cell_length_a 8.6202(2)
_cell_length_b 5.29070(10)
_cell_length_c 12.68
_cell_angle_alpha 90.
_cell_angle_beta 90.
_cell_angle_gamma 90.
_cell_volume 578.3
_cell_formula_units_Z 4
_symmetry_space_group_name_H-M 'P n m a'
_symmetry_Int_Tables_number 62
_refine_ls_R_factor_all 0.0426
loop_
_symmetry_equiv_pos_site_id
_symmetry_equiv_pos_as_xyz
1 'x+1/2, y, -z+1/2'
2 'x, -y+1/2, z'
3 '-x+1/2, y+1/2, z+1/2'
4 '-x, -y, -z'
5 '-x+1/2, -y, z+1/2'
6 '-x, y+1/2, -z'
7 'x+1/2, -y+1/2, -z+1/2'
8 'x, y, z'
loop_
_atom_type_symbol
_atom_type_oxidation_number
Ce3+ 3
P5+ 5
Na1+ 1
O2- -2
loop_
_atom_site_label
_atom_site_type_symbol
_atom_site_symmetry_multiplicity
_atom_site_Wyckoff_symbol
_atom_site_fract_x
_atom_site_fract_y
_atom_site_fract_z
_atom_site_B_iso_or_equiv
_atom_site_occupancy
_atom_site_attached_hydrogens
Ce1 Ce3+ 4 c 0.81389(7) 0.25 0.26437(4) 0.0111(3) 1 0
P1 P5+ 4 c 0.7362(3) 0.25 -0.0330(2) 0.0111(5) 1 0
P2 P5+ 4 c 1.0128(3) -0.25 0.1816(2) 0.0103(5) 1 0
Na1 Na1+ 4 c 0.6190(6) -0.25 0.0791(4) 0.0238(11) 1 0
O1 O2- 4 c 0.9170(9) 0.25 -0.0641(6) 0.0155(16) 1 0
O2 O2- 8 d 0.5687(6) -0.0084(10) 0.2643(4) 0.0119(10) 1 0
O3 O2- 4 c 0.8407(9) -0.25 0.1759(7) 0.0233(19) 1 0
O4 O2- 8 d 0.8358(7) -0.0146(12) 0.4208(4) 0.0200(12) 1 0
O5 O2- 4 c 0.7353(11) 0.25 0.0844(6) 0.0241(19) 1 0
loop_
_atom_site_aniso_label
_atom_site_aniso_type_symbol
_atom_site_aniso_U_11
_atom_site_aniso_U_22
_atom_site_aniso_U_33
_atom_site_aniso_U_12
_atom_site_aniso_U_13
_atom_site_aniso_U_23
Ce1 Ce3+ 0.0129(3) 0.0095(3) 0.0109(4) 0. 0.0000(2) 0.
P1 P5+ 0.0142(12) 0.0081(12) 0.0108(12) 0. 0.0005(10) 0.
P2 P5+ 0.0111(11) 0.0064(11) 0.0133(12) 0. -0.0002(9) 0.
Na1 Na1+ 0.022(2) 0.032(3) 0.017(2) 0. -0.0018(19) 0.
O1 O2- 0.018(4) 0.016(4) 0.013(3) 0. -0.008(3) 0.
O2 O2- 0.012(2) 0.006(2) 0.018(2) -0.001(2) -0.0022(18) 0.0030(19)
O3 O2- 0.009(3) 0.029(5) 0.032(5) 0. 0.004(3) 0.
O4 O2- 0.025(3) 0.019(3) 0.016(2) -0.010(2) -0.003(2) 0.006(2)
O5 O2- 0.034(5) 0.028(5) 0.010(4) 0. 0.000(3) 0.
#End of TTdata_416613-ICSD