
#(C) 2019 by FIZ Karlsruhe - Leibniz Institute for Information Infrastructure.  All rights reserved.
data_416619-ICSD
_database_code_ICSD 416619
_audit_creation_date 2007-08-01
_chemical_name_systematic 'Lutetium sodium hexapalladium octaoxide'
_chemical_formula_structural 'Lu Na Pd6 O8'
_chemical_formula_sum 'Lu1 Na1 O8 Pd6'
_chemical_name_structure_type TbNaPd6O8
_exptl_crystal_density_diffrn 8.53
_publ_section_title

;
Hydroxide flux synthesis and crystal structure of the ordered palladate, Lu Na
Pd6 O8
;
loop_
_citation_id
_citation_journal_full
_citation_year
_citation_journal_volume
_citation_page_first
_citation_page_last
_citation_journal_id_ASTM
primary 'Journal of Solid State Chemistry' 2006 179 3586 3589 JSSCBI
loop_
_publ_author_name
'Mugavero, S.J.'
'Smith, M.D.'
'zur Loye, H.C.'
_cell_length_a 5.72500(10)
_cell_length_b 5.72500(10)
_cell_length_c 5.72500(10)
_cell_angle_alpha 90.
_cell_angle_beta 90.
_cell_angle_gamma 90.
_cell_volume 187.64
_cell_formula_units_Z 1
_symmetry_space_group_name_H-M 'P m -3'
_symmetry_Int_Tables_number 200
_refine_ls_R_factor_all 0.0249
loop_
_symmetry_equiv_pos_site_id
_symmetry_equiv_pos_as_xyz
1 '-z, x, y'
2 'z, x, -y'
3 'z, -x, y'
4 '-z, -x, -y'
5 'y, -z, x'
6 '-y, z, x'
7 'y, z, -x'
8 '-y, -z, -x'
9 'x, y, -z'
10 'x, -y, z'
11 '-x, y, z'
12 '-x, -y, -z'
13 'z, -x, -y'
14 '-z, -x, y'
15 '-z, x, -y'
16 'z, x, y'
17 '-y, z, -x'
18 'y, -z, -x'
19 '-y, -z, x'
20 'y, z, x'
21 '-x, -y, z'
22 '-x, y, -z'
23 'x, -y, -z'
24 'x, y, z'
loop_
_atom_type_symbol
_atom_type_oxidation_number
Lu3+ 3
Pd2+ 2
Na1+ 1
O2- -2
loop_
_atom_site_label
_atom_site_type_symbol
_atom_site_symmetry_multiplicity
_atom_site_Wyckoff_symbol
_atom_site_fract_x
_atom_site_fract_y
_atom_site_fract_z
_atom_site_B_iso_or_equiv
_atom_site_occupancy
_atom_site_attached_hydrogens
Lu1 Lu3+ 1 a 0. 0. 0. 0.01014(16) 1 0
Pd1 Pd2+ 6 g 0.25061(13) 0.5 0. 0.00817(12) 1 0
Na1 Na1+ 1 b 0.5 0.5 0.5 0.0149(15) 1 0
O1 O2- 8 i 0.2391(5) 0.2391(5) 0.2391(5) 0.0097(7) 1 0
loop_
_atom_site_aniso_label
_atom_site_aniso_type_symbol
_atom_site_aniso_U_11
_atom_site_aniso_U_22
_atom_site_aniso_U_33
_atom_site_aniso_U_12
_atom_site_aniso_U_13
_atom_site_aniso_U_23
Lu1 Lu3+ 0.01014(16) 0.01014(16) 0.01014(16) 0. 0. 0.
Pd1 Pd2+ 0.0086(2) 0.0080(2) 0.0080(2) 0. 0. 0.
Na1 Na1+ 0.0149(15) 0.0149(15) 0.0149(15) 0. 0. 0.
O1 O2- 0.0097(7) 0.0097(7) 0.0097(7) 0.0017(8) 0.0017(8) 0.0017(8)
#End of TTdata_416619-ICSD