
#(C) 2019 by FIZ Karlsruhe - Leibniz Institute for Information Infrastructure.  All rights reserved.
data_416724-ICSD
_database_code_ICSD 416724
_audit_creation_date 2008-08-01
_chemical_name_systematic 'Dysprosium sodium iridium oxide (0.94/1.06/1/4)'
_chemical_formula_structural '(Dy0.94 Na0.06) Na Ir O4'
_chemical_formula_sum 'Dy0.94 Ir1 Na1.06 O4'
_chemical_name_structure_type Ca2IrO4
_exptl_crystal_density_diffrn 8.88
_cell_measurement_temperature 294.
_publ_section_title

;
The crystal growth and magnetic properties of the new iridates, Ln(1-x)
Na(1+x) Ir O4 (Ln = Gd - Er, Y; x = 0.04 - 0.25)
;
loop_
_citation_id
_citation_journal_full
_citation_year
_citation_journal_volume
_citation_page_first
_citation_page_last
_citation_journal_id_ASTM
primary 'Solid State Sciences' 2007 9 555 563 SSSCFJ
loop_
_publ_author_name
'Mugavero, S.J.'
'Smith, D.'
'zur Loye, H.C.'
_cell_length_a 9.4015(3)
_cell_length_b 9.4015(3)
_cell_length_c 3.1831(2)
_cell_angle_alpha 90.
_cell_angle_beta 90.
_cell_angle_gamma 120.
_cell_volume 243.65
_cell_formula_units_Z 3
_symmetry_space_group_name_H-M 'P -6 2 m'
_symmetry_Int_Tables_number 189
_refine_ls_R_factor_all 0.0276
loop_
_symmetry_equiv_pos_site_id
_symmetry_equiv_pos_as_xyz
1 '-x, -x+y, -z'
2 'x-y, -y, -z'
3 'y, x, -z'
4 '-x, -x+y, z'
5 'x-y, -y, z'
6 'y, x, z'
7 '-x+y, -x, -z'
8 '-y, x-y, -z'
9 'x, y, -z'
10 '-x+y, -x, z'
11 '-y, x-y, z'
12 'x, y, z'
loop_
_atom_type_symbol
_atom_type_oxidation_number
Ir4+ 4.13
Dy3+ 3
Na1+ 1
O2- -2
loop_
_atom_site_label
_atom_site_type_symbol
_atom_site_symmetry_multiplicity
_atom_site_Wyckoff_symbol
_atom_site_fract_x
_atom_site_fract_y
_atom_site_fract_z
_atom_site_B_iso_or_equiv
_atom_site_occupancy
_atom_site_attached_hydrogens
Ir1 Ir4+ 3 f 0.32813(8) 0. 0. 0.00480(16) 1 0
Dy1 Dy3+ 2 d 0.3333 0.6667 0.5 0.0118(3) 1 0
Dy2 Dy3+ 3 g 0.7029(3) 0. 0.5 0.0044(7) 0.270(6) 0
Na1 Na1+ 3 g 0.7029(3) 0. 0.5 0.0044(7) 0.730(6) 0
Na2 Na1+ 1 a 0. 0. 0. 0.014(3) 1 0
O1 O2- 3 g 0.1909(14) 0. 0.5 0.008(2) 1 0
O2 O2- 3 g 0.4594(13) 0. 0.5 0.007(2) 1 0
O3 O2- 6 j 0.4577(11) 0.2477(11) 0. 0.0089(14) 1 0
loop_
_atom_site_aniso_label
_atom_site_aniso_type_symbol
_atom_site_aniso_U_11
_atom_site_aniso_U_22
_atom_site_aniso_U_33
_atom_site_aniso_U_12
_atom_site_aniso_U_13
_atom_site_aniso_U_23
Ir1 Ir4+ 0.0064(2) 0.0048(3) 0.0027(2) 0.00242(15) 0. 0.
Dy1 Dy3+ 0.0150(4) 0.0150(4) 0.0053(5) 0.0075(2) 0. 0.
Dy2 Dy3+ 0.0016(9) 0.0038(11) 0.0084(12) 0.0019(6) 0. 0.
Na1 Na1+ 0.0016(9) 0.0038(11) 0.0084(12) 0.0019(6) 0. 0.
Na2 Na1+ 0.015(4) 0.015(4) 0.013(6) 0.007(2) 0. 0.
#End of TTdata_416724-ICSD