
#(C) 2019 by FIZ Karlsruhe - Leibniz Institute for Information Infrastructure.  All rights reserved.
data_417032-ICSD
_database_code_ICSD 417032
_audit_creation_date 2011-02-01
_chemical_name_systematic
'Barium sodium fluoride chloride bromide (6.9/0.2/12/0.7/1.3)'
_chemical_formula_structural 'Ba6.88 Na0.19 F12 (Cl0.68 Br1.32)'
_chemical_formula_sum 'Ba6.88 Br1.32 Cl0.68 F12 Na0.19'
_chemical_name_structure_type Ba7F12Cl2(distorted)
_exptl_crystal_density_diffrn 5.25
_cell_measurement_temperature 298.
_publ_section_title

;
Calcium free solid solutions in the system Ba7 F12 Cl2-x Brx (x<1.5), a single
component white phosphor host
;
loop_
_citation_id
_citation_journal_full
_citation_year
_citation_journal_volume
_citation_page_first
_citation_page_last
_citation_journal_id_ASTM
primary 'Journal of Chemical Crystallography' 2007 37 469 472 JCCYEV
loop_
_publ_author_name
'Penhouet, T.'
'Hagemann, H.'
'Kubel, F.'
'Rief, A.'
_cell_length_a 10.6218(9)
_cell_length_b 10.6218(9)
_cell_length_c 4.2284(4)
_cell_angle_alpha 90.
_cell_angle_beta 90.
_cell_angle_gamma 120.
_cell_volume 413.15
_cell_formula_units_Z 1
_symmetry_space_group_name_H-M 'P 63/m'
_symmetry_Int_Tables_number 176
_refine_ls_R_factor_all 0.016
loop_
_symmetry_equiv_pos_site_id
_symmetry_equiv_pos_as_xyz
1 '-x+y, -x, -z+1/2'
2 '-y, x-y, -z+1/2'
3 'x, y, -z+1/2'
4 'x-y, x, -z'
5 'y, -x+y, -z'
6 '-x, -y, -z'
7 'x-y, x, z+1/2'
8 'y, -x+y, z+1/2'
9 '-x, -y, z+1/2'
10 '-x+y, -x, z'
11 '-y, x-y, z'
12 'x, y, z'
loop_
_atom_type_symbol
_atom_type_oxidation_number
Ba2+ 2
F1- -1
Cl1- -1
Br1- -1
Na1+ 1
loop_
_atom_site_label
_atom_site_type_symbol
_atom_site_symmetry_multiplicity
_atom_site_Wyckoff_symbol
_atom_site_fract_x
_atom_site_fract_y
_atom_site_fract_z
_atom_site_B_iso_or_equiv
_atom_site_occupancy
_atom_site_attached_hydrogens
Ba1 Ba2+ 6 h .401077(13) .294803(14) .25 .01245(4) 1. 0
Ba2 Ba2+ 2 a . . .25 .01475(11) .4374(10) 0
F1 F1- 6 h .1137(4) .2132(3) .25 .003 .5 0
F2 F1- 6 h .1510(4) .2752(3) .25 .003 .5 0
F3 F1- 6 h .43315(12) .05722(12) .25 .035 1. 0
Cl1 Cl1- 2 c .33333 .66666 .25 .003 .338(3) 0
Br1 Br1- 2 c .33333 .66666 .25 .003 .662(3) 0
Na1 Na1+ 2 b . . . .003 .094(4) 0
loop_
_atom_site_aniso_label
_atom_site_aniso_type_symbol
_atom_site_aniso_U_11
_atom_site_aniso_U_22
_atom_site_aniso_U_33
_atom_site_aniso_U_12
_atom_site_aniso_U_13
_atom_site_aniso_U_23
Ba1 Ba2+ .01583(8) .01542(7) .01273(7) .00959(6) . .
Ba2 Ba2+ .0116(2) .0116(2) .0424(3) .00579(11) . .
F1 F1- .0139(18) .0141(16) .0322(8) .0065(15) . .
F2 F1- .0139(18) .0141(16) .0322(8) .0065(15) . .
F3 F1- .0167(6) .0196(7) .0183(6) .0072(5) . .
Cl1 Cl1- .01709(18) .01709(18) .0143(2) .00855(9) . .
Br1 Br1- .01709(18) .01709(18) .0143(2) .00855(9) . .
Na1 Na1+ .0116(2) .0116(2) .0424(3) .00579(11) . .
#End of TTdata_417032-ICSD