
#(C) 2019 by FIZ Karlsruhe - Leibniz Institute for Information Infrastructure.  All rights reserved.
data_417178-ICSD
_database_code_ICSD 417178
_audit_creation_date 2008-08-01
_chemical_name_systematic 'Disodium tecto-dialumotrisilicate dihydrate'
_chemical_formula_structural 'Na2 (Al2 Si3 O10) (H2 O)2'
_chemical_formula_sum 'H4 Al2 Na2 O12 Si3'
_chemical_name_structure_type Natrolite-frame
_chemical_name_mineral Natrolite
_exptl_crystal_density_diffrn 2.25
_cell_measurement_temperature 293.
_publ_section_title
'Single crystal X-ray diffraction study of a pure natrolite sample'
loop_
_citation_id
_citation_journal_full
_citation_year
_citation_journal_volume
_citation_page_first
_citation_page_last
_citation_journal_id_ASTM
primary 'Journal of Chemical Crystallography' 2007 37 583 586 JCCYEV
loop_
_publ_author_name
'Capitelli, F.'
'Derebe, M.G.'
_cell_length_a 18.2930(2)
_cell_length_b 18.6430(5)
_cell_length_c 6.5860(5)
_cell_angle_alpha 90.
_cell_angle_beta 90.
_cell_angle_gamma 90.
_cell_volume 2246.07
_cell_formula_units_Z 8
_symmetry_space_group_name_H-M 'F d d 2'
_symmetry_Int_Tables_number 43
_refine_ls_R_factor_all 0.0285
loop_
_symmetry_equiv_pos_site_id
_symmetry_equiv_pos_as_xyz
1 'x+1/4, -y+1/4, z+1/4'
2 '-x+1/4, y+1/4, z+1/4'
3 '-x, -y, z'
4 'x, y, z'
5 'x+1/4, -y+3/4, z+3/4'
6 '-x+1/4, y+3/4, z+3/4'
7 '-x, -y+1/2, z+1/2'
8 'x, y+1/2, z+1/2'
9 'x+3/4, -y+1/4, z+3/4'
10 '-x+3/4, y+1/4, z+3/4'
11 '-x+1/2, -y, z+1/2'
12 'x+1/2, y, z+1/2'
13 'x+3/4, -y+3/4, z+1/4'
14 '-x+3/4, y+3/4, z+1/4'
15 '-x+1/2, -y+1/2, z'
16 'x+1/2, y+1/2, z'
loop_
_atom_type_symbol
_atom_type_oxidation_number
Si4+ 4
Al3+ 3
Na1+ 1
O2- -2
H1+ 1
loop_
_atom_site_label
_atom_site_type_symbol
_atom_site_symmetry_multiplicity
_atom_site_Wyckoff_symbol
_atom_site_fract_x
_atom_site_fract_y
_atom_site_fract_z
_atom_site_B_iso_or_equiv
_atom_site_occupancy
_atom_site_attached_hydrogens
Si1 Si4+ 8 a 0. 0. 0.411 0.01510(15) 1 0
Si2 Si4+ 16 b 0.09676(2) 0.03863(2) 0.03826(14) 0.01422(12) 1 0
Al1 Al3+ 16 b -0.03737(3) 0.09371(2) 0.79581(15) 0.01444(12) 1 0
Na1 Na1+ 16 b -0.22084(5) 0.03071(4) 0.79354(19) 0.02507(18) 1 0
O1 O2- 16 b 0.06925(8) 0.02262(8) 0.2705(3) 0.0231(3) 1 0
O2 O2- 16 b -0.02271(8) 0.06834(7) 0.5448(3) 0.0225(3) 1 0
O3 O2- 16 b -0.07014(7) 0.18192(6) 0.8013(3) 0.0166(2) 1 0
O4 O2- 16 b -0.09833(7) 0.03493(7) 0.9110(3) 0.0207(3) 1 0
O5 O2- 16 b 0.04374(7) 0.09721(7) 0.9349(3) 0.0202(3) 1 0
O6 O2- 16 b -0.30630(11) 0.06024(10) 1.0497(3) 0.0302(3) 1 0
H1 H1+ 16 b -0.345(2) 0.059(2) 1.024(7) 0.046(11) 1 0
H2 H1+ 16 b -0.304(2) 0.092(2) 1.090(6) 0.047(12) 1 0
loop_
_atom_site_aniso_label
_atom_site_aniso_type_symbol
_atom_site_aniso_U_11
_atom_site_aniso_U_22
_atom_site_aniso_U_33
_atom_site_aniso_U_12
_atom_site_aniso_U_13
_atom_site_aniso_U_23
Si1 Si4+ 0.0174(3) 0.0156(3) 0.0124(3) -0.0001(2) 0. 0.
Si2 Si4+ 0.0144(2) 0.0138(2) 0.0145(2) -0.00058(15) -0.00002(18) -0.00038(17)
Al1 Al3+ 0.0157(2) 0.0132(2) 0.0144(2) 0.00047(17) -0.00016(19) 0.0003(2)
Na1 Na1+ 0.0246(4) 0.0237(4) 0.0268(4) 0.0009(3) -0.0028(4) 0.0020(4)
O1 O2- 0.0219(7) 0.0286(7) 0.0188(7) -0.0021(5) 0.0031(6) 0.0013(6)
O2 O2- 0.0298(7) 0.0202(6) 0.0176(6) 0.0018(5) 0.0015(6) -0.0024(6)
O3 O2- 0.0156(6) 0.0150(5) 0.0191(6) 0.0010(4) -0.0011(5) -0.0003(5)
O4 O2- 0.0187(7) 0.0184(6) 0.0251(7) -0.0017(5) 0.0000(5) 0.0046(6)
O5 O2- 0.0193(7) 0.0174(6) 0.0240(7) 0.0015(5) -0.0043(5) 0.0007(5)
O6 O2- 0.0330(9) 0.0290(8) 0.0286(8) 0.0017(7) -0.0013(8) -0.0042(8)
#End of TTdata_417178-ICSD