
#(C) 2019 by FIZ Karlsruhe - Leibniz Institute for Information Infrastructure.  All rights reserved.
data_417143-ICSD
_database_code_ICSD 417143
_audit_creation_date 2008-08-01
_chemical_name_systematic 'Pentasodium yttrium tetrakis(tungstate(VI))'
_chemical_formula_structural 'Na5 Y (W O4)4'
_chemical_formula_sum 'Na5 O16 W4 Y1'
_chemical_name_structure_type Na5Lu(WO4)4
_exptl_crystal_density_diffrn 5.36
_cell_measurement_temperature 293.
_publ_section_title

;
Na5 Y [W O4]4: Ein Natrium - Yttrium - ortho-Oxowolframat mit einer
teraedrischen Na+ - Koordination
;
loop_
_citation_id
_citation_journal_full
_citation_year
_citation_journal_volume
_citation_page_first
_citation_page_last
_citation_journal_id_ASTM
primary 'Zeitschrift fuer Kristallographie, Supplement Issue' 2007 25 22 22
ZKSUP2
loop_
_publ_author_name
'Hartenbach, I.'
'Marchetti, B.'
'Schleid, T.'
_cell_length_a 11.4346(8)
_cell_length_b 11.4346(8)
_cell_length_c 11.3383(8)
_cell_angle_alpha 90.
_cell_angle_beta 90.
_cell_angle_gamma 90.
_cell_volume 1482.48
_cell_formula_units_Z 4
_symmetry_space_group_name_H-M 'I 41/a Z'
_symmetry_Int_Tables_number 88
_refine_ls_R_factor_all 0.0224
loop_
_symmetry_equiv_pos_site_id
_symmetry_equiv_pos_as_xyz
1 '-y+3/4, x+3/4, -z+3/4'
2 'y+1/4, -x+3/4, -z+3/4'
3 'x, y+1/2, -z'
4 '-x, -y, -z'
5 'y+1/4, -x+1/4, z+1/4'
6 '-y+3/4, x+1/4, z+1/4'
7 '-x, -y+1/2, z'
8 'x, y, z'
9 '-y+1/4, x+1/4, -z+1/4'
10 'y+3/4, -x+1/4, -z+1/4'
11 'x+1/2, y, -z+1/2'
12 '-x+1/2, -y+1/2, -z+1/2'
13 'y+3/4, -x+3/4, z+3/4'
14 '-y+1/4, x+3/4, z+3/4'
15 '-x+1/2, -y, z+1/2'
16 'x+1/2, y+1/2, z+1/2'
loop_
_atom_type_symbol
_atom_type_oxidation_number
Na1+ 1
Y3+ 3
W6+ 6
O2- -2
loop_
_atom_site_label
_atom_site_type_symbol
_atom_site_symmetry_multiplicity
_atom_site_Wyckoff_symbol
_atom_site_fract_x
_atom_site_fract_y
_atom_site_fract_z
_atom_site_B_iso_or_equiv
_atom_site_occupancy
_atom_site_attached_hydrogens
Na1 Na1+ 16 f 0.3809(2) 0.0448(2) 0.1543(3) 0.0150(5) 1 0
Na2 Na1+ 4 b 0. 0.25 0.625 0.0238(13) 1 0
Y1 Y3+ 4 a 0. 0.25 0.125 0.0074(2) 1 0
W1 W6+ 16 f 0.18271(2) 0.15702(2) 0.38527(2) 0.00827(12) 1 0
O1 O2- 16 f 0.1808(4) 0.0350(4) 0.4795(4) 0.0168(9) 1 0
O2 O2- 16 f 0.0612(4) 0.1367(4) 0.2874(3) 0.0119(8) 1 0
O3 O2- 16 f 0.1778(4) 0.3316(4) 0.1907(3) 0.0125(8) 1 0
O4 O2- 16 f 0.1484(4) 0.2808(4) 0.4741(4) 0.0148(9) 1 0
loop_
_atom_site_aniso_label
_atom_site_aniso_type_symbol
_atom_site_aniso_U_11
_atom_site_aniso_U_22
_atom_site_aniso_U_33
_atom_site_aniso_U_12
_atom_site_aniso_U_13
_atom_site_aniso_U_23
Na1 Na1+ 0.0133(12) 0.0172(13) 0.0143(11) 0.0015(11) -0.0014(9) 0.0035(10)
Na2 Na1+ 0.0288(19) 0.0288(19) 0.014(2) 0. 0. 0.
Y1 Y3+ 0.0075(3) 0.0075(3) 0.0072(5) 0. 0. 0.
W1 W6+ 0.00827(15) 0.00802(15) 0.00852(15) -0.00007(7) 0.00016(8) -0.00021(8)
O1 O2- 0.017(2) 0.019(2) 0.014(2) 0.0026(18) 0.0017(18) -0.0021(18)
O2 O2- 0.013(2) 0.014(2) 0.0092(17) -0.0003(16) -0.0016(16) -0.0008(16)
O3 O2- 0.016(2) 0.011(2) 0.0102(19) 0.0029(16) -0.0035(17) 0.0020(16)
O4 O2- 0.014(2) 0.015(2) 0.016(2) -0.0004(16) -0.0039(17) -0.0006(17)
#End of TTdata_417143-ICSD