
#(C) 2018 by FIZ Karlsruhe - Leibniz Institute for Information Infrastructure.  All rights reserved.
data_417377-ICSD
_database_code_ICSD 417377
_audit_creation_date 2009-02-01
_chemical_name_systematic
'Octalithium hexacosaoxotetrahydroxohexadecaborate hexahydrate'
_chemical_formula_structural 'Li8 (B16 O26 (O H)4) (H2 O)6'
_chemical_formula_sum 'H16 B16 Li8 O36'
_exptl_crystal_density_diffrn 2.03
_cell_measurement_temperature 298.
_publ_section_title

;
Li8 (B16 O26 (O H)4) * 6(H2 O): a novel lithium borate with a larger
polyborate anion
;
loop_
_citation_id
_citation_journal_full
_citation_year
_citation_journal_volume
_citation_page_first
_citation_page_last
_citation_journal_id_ASTM
primary 'Inorganic Chemistry Communications' 2008 11 893 895 ICCOFP
loop_
_publ_author_name
'Li Ping'
'Liu Zhi Hong'
'Ng Seik Weng'
_cell_length_a 8.484(2)
_cell_length_b 12.069(3)
_cell_length_c 13.696(3)
_cell_angle_alpha 73.599(2)
_cell_angle_beta 86.617(3)
_cell_angle_gamma 85.776(3)
_cell_volume 1340.59
_cell_formula_units_Z 2
_symmetry_space_group_name_H-M 'P -1'
_symmetry_Int_Tables_number 2
_refine_ls_R_factor_all 0.0422
loop_
_symmetry_equiv_pos_site_id
_symmetry_equiv_pos_as_xyz
1 '-x, -y, -z'
2 'x, y, z'
loop_
_atom_type_symbol
_atom_type_oxidation_number
B3+ 3
Li1+ 1
O2- -2
H1+ 1
O2- -2
H1+ 1
O2- -2
H1+ 1
O2- -2
H1+ 1
O2- -2
H1+ 1
O2- -2
H1+ 1
O2- -2
H1+ 1
O2- -2
H1+ 1
O2- -2
H1+ 1
O2- -2
H1+ 1
loop_
_atom_site_label
_atom_site_type_symbol
_atom_site_symmetry_multiplicity
_atom_site_Wyckoff_symbol
_atom_site_fract_x
_atom_site_fract_y
_atom_site_fract_z
_atom_site_B_iso_or_equiv
_atom_site_occupancy
_atom_site_attached_hydrogens
B1 B3+ 2 i 0.3626(3) 0.8552(2) 0.8651(2) 0.0129(6) 1 0
B2 B3+ 2 i 0.5391(3) 0.8253(3) 1.0020(2) 0.0131(6) 1 0
B3 B3+ 2 i 0.5471(4) 0.6826(3) 0.9034(2) 0.0174(7) 1 0
B4 B3+ 2 i 0.5921(3) 0.9757(3) 0.8405(2) 0.0129(6) 1 0
B5 B3+ 2 i 0.5206(3) 0.6429(2) 0.3758(2) 0.0137(6) 1 0
B6 B3+ 2 i 0.3416(3) 0.5768(3) 0.2786(2) 0.0133(6) 1 0
B7 B3+ 2 i 0.5016(3) 0.7391(3) 0.1899(2) 0.0133(6) 1 0
B8 B3+ 2 i 0.5896(3) 0.4582(2) 0.3332(2) 0.0130(6) 1 0
B9 B3+ 2 i 0.1433(3) 0.6420(2) 0.6360(2) 0.0129(6) 1 0
B10 B3+ 2 i -0.0347(3) 0.6727(3) 0.4993(2) 0.0132(6) 1 0
B11 B3+ 2 i -0.0423(4) 0.8148(3) 0.5984(3) 0.0217(7) 1 0
B12 B3+ 2 i -0.0889(3) 0.5234(3) 0.6608(2) 0.0134(6) 1 0
B13 B3+ 2 i -0.0322(3) 0.8567(3) 0.1241(2) 0.0141(6) 1 0
B14 B3+ 2 i 0.1536(3) 0.9219(3) 0.2173(2) 0.0132(6) 1 0
B15 B3+ 2 i -0.0036(3) 0.7599(2) 0.3098(2) 0.0127(6) 1 0
B16 B3+ 2 i -0.0973(3) 1.0413(2) 0.1676(2) 0.0130(6) 1 0
Li1 Li1+ 2 i 0.2938(7) 0.7695(5) 0.7226(4) 0.0347(13) 1 0
Li2 Li1+ 2 i 0.2692(6) 0.7530(4) 0.4238(4) 0.0229(11) 1 0
Li3 Li1+ 2 i -0.1926(6) 0.6246(4) 0.2785(4) 0.0315(12) 1 0
Li4 Li1+ 2 i 0.2302(6) 0.7444(4) 0.0784(4) 0.0238(11) 1 0
Li5 Li1+ 2 i 0.3197(6) 1.1201(4) 0.7683(4) 0.0264(11) 1 0
Li6 Li1+ 2 i 0.7477(5) 1.0240(4) 0.9929(3) 0.0192(10) 1 0
Li7 Li1+ 2 i 0.7448(5) 0.4832(4) 0.5079(3) 0.0212(10) 1 0
Li8 Li1+ 2 i -0.0184(9) 0.4840(7) 0.8447(5) 0.0596(19) 1 0
O1 O2- 2 i 0.37273(19) 0.84532(14) 0.97354(13) 0.0125(4) 1 0
O2 O2- 2 i 0.4321(2) 0.74746(15) 0.84301(13) 0.0167(4) 1 0
O3 O2- 2 i 0.4524(2) 0.95566(15) 0.80511(13) 0.0151(4) 1 0
O4 O2- 2 i 0.6048(2) 0.71535(15) 0.98117(13) 0.0178(4) 1 0
O5 O2- 2 i 0.6357(2) 0.92074(15) 0.93851(13) 0.0149(4) 1 0
O6 O2- 2 i 0.2011(2) 0.86736(15) 0.82952(13) 0.0142(4) 1 0
O7 O2- 2 i 0.5593(2) 0.82071(15) 0.10721(13) 0.0146(4) 1 0
O8 O2- 2 i 0.6119(3) 0.58219(19) 0.88704(17) 0.0394(6) 1 0
H1 H1+ 2 i 0.5863 0.5731 0.8331 0.059 1 0
O9 O2- 2 i 0.3591(2) 0.61489(14) 0.36869(13) 0.0135(4) 1 0
O10 O2- 2 i 0.5742(2) 0.72946(15) 0.27942(13) 0.0156(4) 1 0
O11 O2- 2 i 0.6313(2) 0.53753(15) 0.38174(13) 0.0154(4) 1 0
O12 O2- 2 i 0.3836(2) 0.67040(15) 0.18469(13) 0.0145(4) 1 0
O13 O2- 2 i 0.4533(2) 0.47357(15) 0.28241(13) 0.0154(4) 1 0
O14 O2- 2 i 0.5256(2) 0.68440(16) 0.46326(14) 0.0213(5) 1 0
H2 H1+ 2 i 0.6042 0.7208 0.461 0.032 1 0
O15 O2- 2 i -0.1811(2) 0.45081(15) 0.73204(13) 0.0153(4) 1 0
O16 O2- 2 i 0.13196(19) 0.65153(14) 0.52798(13) 0.0127(4) 1 0
O17 O2- 2 i 0.0723(2) 0.74874(15) 0.65978(13) 0.0176(4) 1 0
O18 O2- 2 i 0.0534(2) 0.54094(15) 0.69654(13) 0.0156(4) 1 0
O19 O2- 2 i -0.0981(2) 0.78250(15) 0.52014(13) 0.0187(4) 1 0
O20 O2- 2 i -0.1298(2) 0.57658(15) 0.56343(13) 0.0151(4) 1 0
O21 O2- 2 i 0.3033(2) 0.63026(15) 0.67216(13) 0.0144(4) 1 0
O22 O2- 2 i -0.0574(2) 0.67763(15) 0.39387(13) 0.0142(4) 1 0
O23 O2- 2 i -0.1067(3) 0.9135(2) 0.6175(2) 0.0568(8) 1 0
H3 H1+ 2 i -0.0756 0.9189 0.6714 0.085 1 0
O24 O2- 2 i 0.13139(19) 0.88307(15) 0.12761(13) 0.0134(4) 1 0
O25 O2- 2 i -0.0787(2) 0.76772(15) 0.22124(13) 0.0159(4) 1 0
O26 O2- 2 i -0.1409(2) 0.96117(15) 0.12023(13) 0.0148(4) 1 0
O27 O2- 2 i 0.1136(2) 0.82986(15) 0.31216(13) 0.0143(4) 1 0
O28 O2- 2 i 0.0446(2) 1.02744(15) 0.21317(13) 0.0152(4) 1 0
O29 O2- 2 i -0.0459(2) 0.81261(16) 0.03806(14) 0.0212(4) 1 0
H4 H1+ 2 i -0.1268 0.8324 0.006 0.032 1 0
O30 O2- 2 i 0.3155(2) 0.94751(15) 0.22594(13) 0.0150(4) 1 0
O31 O2- 2 i 0.4232(3) 0.87832(19) 0.62010(17) 0.0434(7) 1 0
H5 H1+ 2 i 0.4849 0.8934 0.6607 0.065 1 0
H6 H1+ 2 i 0.4592 0.8661 0.5646 0.065 1 0
O32 O2- 2 i 0.3312(2) 0.90995(18) 0.43289(16) 0.0301(5) 1 0
H7 H1+ 2 i 0.2504 0.9555 0.4346 0.045 1 0
H8 H1+ 2 i 0.3679 0.9309 0.3718 0.045 1 0
O33 O2- 2 i -0.2089(3) 0.5891(2) 0.12951(18) 0.0572(8) 1 0
H9 H1+ 2 i -0.2787 0.6031 0.0849 0.086 1 0
H10 H1+ 2 i -0.1799 0.5205 0.1627 0.086 1 0
O34 O2- 2 i 0.1683(2) 0.60108(18) 0.04473(17) 0.0331(5) 1 0
H11 H1+ 2 i 0.1306 0.6172 -0.0141 0.05 1 0
H12 H1+ 2 i 0.2463 0.552 0.0476 0.05 1 0
O35 O2- 2 i 0.2706(3) 1.09235(18) 0.63914(16) 0.0356(6) 1 0
H13 H1+ 2 i 0.3124 1.0286 0.6324 0.053 1 0
H14 H1+ 2 i 0.2182 1.1244 0.5865 0.053 1 0
O36 O2- 2 i -0.0263(3) 0.6444(2) 0.87098(18) 0.0504(7) 1 0
H15 H1+ 2 i -0.0122 0.6978 0.816 0.076 1 0
H16 H1+ 2 i -0.1187 0.6518 0.8967 0.076 1 0
loop_
_atom_site_aniso_label
_atom_site_aniso_type_symbol
_atom_site_aniso_U_11
_atom_site_aniso_U_22
_atom_site_aniso_U_33
_atom_site_aniso_U_12
_atom_site_aniso_U_13
_atom_site_aniso_U_23
B1 B3+ 0.0134(16) 0.0122(15) 0.0133(15) -0.0004(12) -0.0016(12) -0.0036(12)
B2 B3+ 0.0140(16) 0.0127(15) 0.0124(15) -0.0016(12) 0.0002(12) -0.0030(12)
B3 B3+ 0.0171(17) 0.0183(16) 0.0179(16) 0.0022(13) -0.0015(12) -0.0076(13)
B4 B3+ 0.0116(15) 0.0137(15) 0.0142(15) 0.0003(12) -0.0004(12) -0.0056(12)
B5 B3+ 0.0151(16) 0.0135(15) 0.0124(15) 0.0000(12) -0.0018(12) -0.0032(12)
B6 B3+ 0.0092(15) 0.0163(16) 0.0129(15) -0.0007(12) 0.0020(11) -0.0024(12)
B7 B3+ 0.0139(15) 0.0125(15) 0.0130(15) 0.0008(12) 0.0009(12) -0.0032(12)
B8 B3+ 0.0147(16) 0.0118(15) 0.0110(15) -0.0032(12) 0.0003(12) 0.0000(12)
B9 B3+ 0.0129(15) 0.0131(15) 0.0126(15) -0.0008(12) 0.0008(12) -0.0034(12)
B10 B3+ 0.0130(15) 0.0130(15) 0.0128(15) -0.0004(12) -0.0006(12) -0.0025(12)
B11 B3+ 0.0260(19) 0.0187(17) 0.0218(18) 0.0072(14) -0.0078(14) -0.0084(14)
B12 B3+ 0.0140(16) 0.0130(15) 0.0134(15) 0.0000(12) -0.0013(12) -0.0040(12)
B13 B3+ 0.0140(16) 0.0151(15) 0.0123(15) 0.0007(12) -0.0019(12) -0.0026(13)
B14 B3+ 0.0099(15) 0.0144(15) 0.0142(15) 0.0000(12) -0.0020(11) -0.0022(12)
B15 B3+ 0.0134(15) 0.0117(15) 0.0130(15) 0.0006(12) 0.0003(11) -0.0041(12)
B16 B3+ 0.0145(16) 0.0123(15) 0.0116(15) -0.0027(12) 0.0015(12) -0.0020(12)
Li1 Li1+ 0.044(3) 0.030(3) 0.031(3) -0.002(2) -0.010(2) -0.009(2)
Li2 Li1+ 0.023(3) 0.021(2) 0.023(3) -0.002(2) 0.002(2) -0.003(2)
Li3 Li1+ 0.028(3) 0.024(3) 0.039(3) -0.008(2) -0.001(2) -0.003(2)
Li4 Li1+ 0.027(3) 0.022(3) 0.022(3) -0.001(2) 0.000(2) -0.005(2)
Li5 Li1+ 0.027(3) 0.025(3) 0.027(3) -0.011(2) 0.000(2) -0.004(2)
Li6 Li1+ 0.023(3) 0.020(2) 0.016(2) -0.004(2) -0.0017(19) -0.006(2)
Li7 Li1+ 0.020(3) 0.024(3) 0.020(2) -0.005(2) -0.0025(19) -0.005(2)
Li8 Li1+ 0.056(4) 0.081(5) 0.040(4) -0.010(4) 0.003(3) -0.014(4)
O1 O2- 0.0109(9) 0.0134(9) 0.0129(9) -0.0020(7) -0.0002(7) -0.0029(7)
O2 O2- 0.0175(10) 0.0183(10) 0.0165(10) 0.0047(8) -0.0058(8) -0.0090(8)
O3 O2- 0.0129(10) 0.0175(10) 0.0137(9) -0.0039(8) -0.0021(7) -0.0015(8)
O4 O2- 0.0198(10) 0.0164(10) 0.0179(10) 0.0044(8) -0.0057(8) -0.0060(8)
O5 O2- 0.0128(10) 0.0176(10) 0.0132(10) -0.0057(8) -0.0006(7) -0.0011(8)
O6 O2- 0.0118(10) 0.0142(9) 0.0169(10) -0.0003(7) -0.0031(7) -0.0047(8)
O7 O2- 0.0172(10) 0.0153(9) 0.0107(9) -0.0056(8) -0.0004(7) -0.0016(8)
O8 O2- 0.0501(15) 0.0355(13) 0.0418(14) 0.0274(11) -0.0294(11) -0.0276(11)
O9 O2- 0.0138(10) 0.0133(9) 0.0127(9) -0.0009(7) 0.0015(7) -0.0026(7)
O10 O2- 0.0160(10) 0.0168(10) 0.0125(10) -0.0045(8) -0.0009(7) -0.0005(8)
O11 O2- 0.0143(10) 0.0136(9) 0.0190(10) 0.0006(8) -0.0045(8) -0.0052(8)
O12 O2- 0.0145(10) 0.0155(10) 0.0125(9) -0.0043(8) -0.0012(7) -0.0011(8)
O13 O2- 0.0141(10) 0.0152(9) 0.0175(10) 0.0004(8) -0.0044(7) -0.0054(8)
O14 O2- 0.0253(11) 0.0253(11) 0.0168(10) -0.0065(9) 0.0011(8) -0.0105(9)
O15 O2- 0.0115(10) 0.0180(10) 0.0143(10) -0.0030(8) -0.0017(7) -0.0003(8)
O16 O2- 0.0124(10) 0.0132(9) 0.0127(9) -0.0012(7) -0.0007(7) -0.0036(7)
O17 O2- 0.0190(10) 0.0187(10) 0.0171(10) 0.0042(8) -0.0057(8) -0.0087(8)
O18 O2- 0.0132(10) 0.0187(10) 0.0133(9) -0.0046(8) -0.0018(7) -0.0007(8)
O19 O2- 0.0217(11) 0.0176(10) 0.0183(10) 0.0056(8) -0.0077(8) -0.0079(8)
O20 O2- 0.0142(10) 0.0173(10) 0.0123(10) -0.0042(8) -0.0003(7) -0.0008(8)
O21 O2- 0.0115(10) 0.0137(9) 0.0187(10) 0.0000(7) -0.0021(7) -0.0059(8)
O22 O2- 0.0164(10) 0.0142(9) 0.0117(9) -0.0041(8) -0.0004(7) -0.0025(8)
O23 O2- 0.083(2) 0.0453(15) 0.0552(17) 0.0457(14) -0.0507(15) -0.0384(13)
O24 O2- 0.0116(9) 0.0156(9) 0.0124(9) 0.0007(7) 0.0005(7) -0.0034(8)
O25 O2- 0.0170(10) 0.0170(10) 0.0130(10) -0.0051(8) -0.0027(7) -0.0017(8)
O26 O2- 0.0136(10) 0.0144(9) 0.0174(10) 0.0005(8) -0.0029(7) -0.0059(8)
O27 O2- 0.0143(10) 0.0156(10) 0.0116(9) -0.0034(8) -0.0013(7) -0.0008(8)
O28 O2- 0.0130(10) 0.0153(9) 0.0186(10) 0.0009(8) -0.0043(7) -0.0065(8)
O29 O2- 0.0255(11) 0.0239(11) 0.0158(10) 0.0039(9) -0.0035(8) -0.0089(8)
O30 O2- 0.0118(10) 0.0172(10) 0.0132(10) -0.0035(8) -0.0009(7) 0.0010(8)
O31 O2- 0.0676(18) 0.0405(14) 0.0265(13) -0.0195(13) -0.0059(11) -0.0115(11)
O32 O2- 0.0304(12) 0.0327(12) 0.0282(12) 0.0035(10) -0.0070(9) -0.0105(10)
O33 O2- 0.0684(19) 0.0646(18) 0.0316(14) 0.0422(15) -0.0224(13) -0.0093(13)
O34 O2- 0.0309(13) 0.0282(12) 0.0404(14) 0.0023(10) -0.0104(10) -0.0093(10)
O35 O2- 0.0460(15) 0.0301(12) 0.0321(13) 0.0153(11) -0.0188(10) -0.0119(10)
O36 O2- 0.0588(18) 0.0555(17) 0.0337(14) -0.0072(14) 0.0051(12) -0.0077(13)
#End of TTdata_417377-ICSD