
#(C) 2019 by FIZ Karlsruhe - Leibniz Institute for Information Infrastructure.  All rights reserved.
data_417467-ICSD
_database_code_ICSD 417467
_audit_creation_date 2008-08-01
_audit_update_record 2013-02-01
_chemical_name_systematic
'Cesium sodium aluminium silicon oxide (52/40/92/100/384)'
_chemical_formula_structural 'Cs52 Na40 (Al92 Si100 O384)'
_chemical_formula_sum 'Al92 Cs52 Na40 O384 Si100'
_chemical_name_structure_type Faujasite-Fd3--frame
_chemical_name_mineral 'Zeolite X (Cs-exchanged, dehyd.)'
_exptl_crystal_density_diffrn 2.05
_cell_measurement_temperature 293.
_publ_section_title

;
Crystal structure of fully dehydrated partially Cs(+)-exchanged zeolite X,
(Cs52 Na40)-X (the highest Cs(+)-exchanged level achieved by conventional
method and confirmation of special site selectivity)
;
loop_
_citation_id
_citation_journal_full
_citation_year
_citation_journal_volume
_citation_page_first
_citation_page_last
_citation_journal_id_ASTM
primary 'Bulletin of the Korean Chemical Society' 2007 28 251 256 BKCSDE
loop_
_publ_author_name
'Bae Myung Nam'
_cell_length_a 24.9770(10)
_cell_length_b 24.9770(10)
_cell_length_c 24.9770(10)
_cell_angle_alpha 90.
_cell_angle_beta 90.
_cell_angle_gamma 90.
_cell_volume 15581.91
_cell_formula_units_Z 1
_symmetry_space_group_name_H-M 'F d -3 Z'
_symmetry_Int_Tables_number 203
_refine_ls_R_factor_all 0.052
loop_
_symmetry_equiv_pos_site_id
_symmetry_equiv_pos_as_xyz
1 '-z, x+3/4, y+3/4'
2 'z+3/4, x+3/4, -y'
3 'z+3/4, -x, y+3/4'
4 '-z, -x, -y'
5 'y+3/4, -z, x+3/4'
6 '-y, z+3/4, x+3/4'
7 'y+3/4, z+3/4, -x'
8 '-y, -z, -x'
9 'x+3/4, y+3/4, -z'
10 'x+3/4, -y, z+3/4'
11 '-x, y+3/4, z+3/4'
12 '-x, -y, -z'
13 'z, -x+1/4, -y+1/4'
14 '-z+1/4, -x+1/4, y'
15 '-z+1/4, x, -y+1/4'
16 'z, x, y'
17 '-y+1/4, z, -x+1/4'
18 'y, -z+1/4, -x+1/4'
19 '-y+1/4, -z+1/4, x'
20 'y, z, x'
21 '-x+1/4, -y+1/4, z'
22 '-x+1/4, y, -z+1/4'
23 'x, -y+1/4, -z+1/4'
24 'x, y, z'
25 '-z, x+1/4, y+1/4'
26 'z+3/4, x+1/4, -y+1/2'
27 'z+3/4, -x+1/2, y+1/4'
28 '-z, -x+1/2, -y+1/2'
29 'y+3/4, -z+1/2, x+1/4'
30 '-y, z+1/4, x+1/4'
31 'y+3/4, z+1/4, -x+1/2'
32 '-y, -z+1/2, -x+1/2'
33 'x+3/4, y+1/4, -z+1/2'
34 'x+3/4, -y+1/2, z+1/4'
35 '-x, y+1/4, z+1/4'
36 '-x, -y+1/2, -z+1/2'
37 'z, -x+3/4, -y+3/4'
38 '-z+1/4, -x+3/4, y+1/2'
39 '-z+1/4, x+1/2, -y+3/4'
40 'z, x+1/2, y+1/2'
41 '-y+1/4, z+1/2, -x+3/4'
42 'y, -z+3/4, -x+3/4'
43 '-y+1/4, -z+3/4, x+1/2'
44 'y, z+1/2, x+1/2'
45 '-x+1/4, -y+3/4, z+1/2'
46 '-x+1/4, y+1/2, -z+3/4'
47 'x, -y+3/4, -z+3/4'
48 'x, y+1/2, z+1/2'
49 '-z+1/2, x+3/4, y+1/4'
50 'z+1/4, x+3/4, -y+1/2'
51 'z+1/4, -x, y+1/4'
52 '-z+1/2, -x, -y+1/2'
53 'y+1/4, -z, x+1/4'
54 '-y+1/2, z+3/4, x+1/4'
55 'y+1/4, z+3/4, -x+1/2'
56 '-y+1/2, -z, -x+1/2'
57 'x+1/4, y+3/4, -z+1/2'
58 'x+1/4, -y, z+1/4'
59 '-x+1/2, y+3/4, z+1/4'
60 '-x+1/2, -y, -z+1/2'
61 'z+1/2, -x+1/4, -y+3/4'
62 '-z+3/4, -x+1/4, y+1/2'
63 '-z+3/4, x, -y+3/4'
64 'z+1/2, x, y+1/2'
65 '-y+3/4, z, -x+3/4'
66 'y+1/2, -z+1/4, -x+3/4'
67 '-y+3/4, -z+1/4, x+1/2'
68 'y+1/2, z, x+1/2'
69 '-x+3/4, -y+1/4, z+1/2'
70 '-x+3/4, y, -z+3/4'
71 'x+1/2, -y+1/4, -z+3/4'
72 'x+1/2, y, z+1/2'
73 '-z+1/2, x+1/4, y+3/4'
74 'z+1/4, x+1/4, -y'
75 'z+1/4, -x+1/2, y+3/4'
76 '-z+1/2, -x+1/2, -y'
77 'y+1/4, -z+1/2, x+3/4'
78 '-y+1/2, z+1/4, x+3/4'
79 'y+1/4, z+1/4, -x'
80 '-y+1/2, -z+1/2, -x'
81 'x+1/4, y+1/4, -z'
82 'x+1/4, -y+1/2, z+3/4'
83 '-x+1/2, y+1/4, z+3/4'
84 '-x+1/2, -y+1/2, -z'
85 'z+1/2, -x+3/4, -y+1/4'
86 '-z+3/4, -x+3/4, y'
87 '-z+3/4, x+1/2, -y+1/4'
88 'z+1/2, x+1/2, y'
89 '-y+3/4, z+1/2, -x+1/4'
90 'y+1/2, -z+3/4, -x+1/4'
91 '-y+3/4, -z+3/4, x'
92 'y+1/2, z+1/2, x'
93 '-x+3/4, -y+3/4, z'
94 '-x+3/4, y+1/2, -z+1/4'
95 'x+1/2, -y+3/4, -z+1/4'
96 'x+1/2, y+1/2, z'
loop_
_atom_type_symbol
_atom_type_oxidation_number
Al3+ 3
Si4+ 4
O2- -2
Na1+ 1
Cs1+ 1
loop_
_atom_site_label
_atom_site_type_symbol
_atom_site_symmetry_multiplicity
_atom_site_Wyckoff_symbol
_atom_site_fract_x
_atom_site_fract_y
_atom_site_fract_z
_atom_site_B_iso_or_equiv
_atom_site_occupancy
_atom_site_attached_hydrogens
Al1 Al3+ 96 g -0.05419(18) 0.03551(18) 0.1220(2) 0.0085(10) 0.9583 0
Si1 Si4+ 96 g -0.05419(18) 0.03551(18) 0.1220(2) 0.0085(10) 0.0417 0
Si2 Si4+ 96 g -0.0544(2) 0.1240(3) 0.03408(17) 0.0145(11) 1 0
O1 O2- 96 g -0.1124(5) -0.0005(5) 0.1085(5) 0.030(3) 1 0
O2 O2- 96 g -0.0032(4) -0.0058(4) 0.1435(4) 0.014(2) 1 0
O3 O2- 96 g -0.0348(4) 0.0683(5) 0.0642(4) 0.018(3) 1 0
O4 O2- 96 g -0.0665(4) 0.0787(5) 0.1723(5) 0.019(3) 1 0
Na1 Na1+ 16 c 0. 0. 0. 0.014(3) 0.87 0
Na2 Na1+ 32 e 0.2258(5) 0.2258(5) 0.2258(5) 0.050(5) 0.81 0
Cs1 Cs1+ 16 c 0. 0. 0. 0.014(3) 0.06 0
Cs2 Cs1+ 32 e 0.0881(11) 0.0881(11) 0.0881(11) 0.070(14) 0.06 0
Cs3 Cs1+ 32 e 0.2619(3) 0.2619(3) 0.2619(3) 0.030(3) 0.19 0
Cs4 Cs1+ 32 e 0.1647(4) 0.1647(4) 0.1647(4) 0.073(6) 0.19 0
Cs5 Cs1+ 48 f 0.41951(10) 0.125 0.125 0.0667(10) 0.75 0
Cs6 Cs1+ 96 g 0.440(3) 0.166(3) 0.077(3) 0.002(16) 0.01 0
loop_
_atom_site_aniso_label
_atom_site_aniso_type_symbol
_atom_site_aniso_U_11
_atom_site_aniso_U_22
_atom_site_aniso_U_33
_atom_site_aniso_U_12
_atom_site_aniso_U_13
_atom_site_aniso_U_23
Al1 Al3+ 0.014(2) 0.006(3) 0.006(2) -0.001(2) -0.003(3) -0.002(2)
Si1 Si4+ 0.014(2) 0.006(3) 0.006(2) -0.001(2) -0.003(3) -0.002(2)
Si2 Si4+ 0.014(2) 0.017(2) 0.012(3) -0.002(3) 0.004(2) -0.006(3)
O1 O2- 0.032(9) 0.046(7) 0.012(7) -0.027(7) -0.002(5) 0.001(6)
O2 O2- 0.008(6) 0.013(6) 0.021(6) 0.008(5) 0.004(5) -0.001(5)
O3 O2- 0.025(7) 0.021(8) 0.008(7) 0.013(6) 0.013(6) 0.007(5)
O4 O2- 0.028(7) 0.007(6) 0.022(7) -0.010(6) 0.010(7) -0.002(5)
Na2 Na1+ 0.050(5) 0.050(5) 0.050(5) 0.018(7) 0.018(7) 0.018(7)
Cs2 Cs1+ 0.070(14) 0.070(14) 0.070(14) -0.012(14) -0.012(14) -0.012(14)
Cs3 Cs1+ 0.030(3) 0.030(3) 0.030(3) -0.001(3) -0.001(3) -0.001(3)
Cs4 Cs1+ 0.073(6) 0.073(6) 0.073(6) -0.008(6) -0.008(6) -0.008(6)
Cs5 Cs1+ 0.0217(13) 0.088(3) 0.091(3) 0. 0. -0.025(2)
#End of TTdata_417467-ICSD