
#(C) 2019 by FIZ Karlsruhe - Leibniz Institute for Information Infrastructure.  All rights reserved.
data_417425-ICSD
_database_code_ICSD 417425
_audit_creation_date 2008-02-01
_audit_update_record 2013-02-01
_chemical_name_systematic 'Octasodium hexakis(tecto-gallosilicate) diiodide'
_chemical_formula_structural 'Na8 (Ga Si O4)6 I2'
_chemical_formula_sum 'Ga6 I2 Na8 O24 Si6'
_chemical_name_structure_type Sodalite-frame
_chemical_name_mineral 'Sodalite, gallosilicate'
_exptl_crystal_density_diffrn 3.12
_cell_measurement_temperature 293.
_publ_section_title

;
Structure and properties of tecto-gallosilicates II. Sodium chloride, bromide
and iodide sodalites
;
loop_
_citation_id
_citation_journal_full
_citation_year
_citation_journal_volume
_citation_page_first
_citation_page_last
_citation_journal_id_ASTM
primary 'Zeitschrift fuer Kristallographie' 2007 222 289 296 ZEKRDZ
loop_
_publ_author_name
'Gesing, T.M.'
_cell_length_a 9.08362(9)
_cell_length_b 9.08362(9)
_cell_length_c 9.08362(9)
_cell_angle_alpha 90.
_cell_angle_beta 90.
_cell_angle_gamma 90.
_cell_volume 749.51
_cell_formula_units_Z 1
_symmetry_space_group_name_H-M 'P -4 3 n'
_symmetry_Int_Tables_number 218
_refine_ls_R_factor_all 0.013
loop_
_symmetry_equiv_pos_site_id
_symmetry_equiv_pos_as_xyz
1 '-z+1/2, y+1/2, -x+1/2'
2 '-y+1/2, x+1/2, -z+1/2'
3 '-x+1/2, z+1/2, -y+1/2'
4 'z+1/2, -y+1/2, -x+1/2'
5 'y+1/2, -x+1/2, -z+1/2'
6 'x+1/2, -z+1/2, -y+1/2'
7 '-z+1/2, -y+1/2, x+1/2'
8 '-y+1/2, -x+1/2, z+1/2'
9 '-x+1/2, -z+1/2, y+1/2'
10 'z+1/2, y+1/2, x+1/2'
11 'y+1/2, x+1/2, z+1/2'
12 'x+1/2, z+1/2, y+1/2'
13 '-z, -x, y'
14 '-y, -z, x'
15 '-x, -y, z'
16 'z, -x, -y'
17 'y, -z, -x'
18 'x, -y, -z'
19 '-z, x, -y'
20 '-y, z, -x'
21 '-x, y, -z'
22 'z, x, y'
23 'y, z, x'
24 'x, y, z'
loop_
_atom_type_symbol
_atom_type_oxidation_number
Na1+ 1
Ga3+ 3
Si4+ 4
O2- -2
I1- -1
loop_
_atom_site_label
_atom_site_type_symbol
_atom_site_symmetry_multiplicity
_atom_site_Wyckoff_symbol
_atom_site_fract_x
_atom_site_fract_y
_atom_site_fract_z
_atom_site_B_iso_or_equiv
_atom_site_occupancy
_atom_site_attached_hydrogens
Na1 Na1+ 8 e 0.1943(8) 0.1943(8) 0.1943(8) 1.9(3) 1.02(1) 0
Ga1 Ga3+ 6 d 0.25 0. 0.5 1.2(2) 0.99(1) 0
Si1 Si4+ 6 c 0.25 0.5 0. 0.6(2) 1.01(2) 0
O1 O2- 24 i 0.1381(10) 0.1561(10) 0.4379(10) 1.2(3) 1.05(4) 0
I1 I1- 2 a 0. 0. 0. 2.1(2) 1.00(1) 0
#End of TTdata_417425-ICSD