
#(C) 2018 by FIZ Karlsruhe - Leibniz Institute for Information Infrastructure.  All rights reserved.
data_417656-ICSD
_database_code_ICSD 417656
_audit_creation_date 2008-02-01
_chemical_name_systematic
'Hexalithium tridysprosium pentakis(orthothiophosphate(V))'
_chemical_formula_structural 'Li6 Dy3 (P S4)5'
_chemical_formula_sum 'Dy3 Li6 P5 S20'
_chemical_name_structure_type Li6Y3(PS4)5
_exptl_crystal_density_diffrn 3.07
_cell_measurement_temperature 293.
_publ_section_title

;
Neue Thiophosphate: Die Verbindungen Li6 Ln3 (P S4)5 (Ln: Y, Gd, Dy, Yb, Lu)
und Ag3 Y (P S4)2
;
loop_
_citation_id
_citation_journal_full
_citation_year
_citation_journal_volume
_citation_page_first
_citation_page_last
_citation_journal_id_ASTM
primary 'Zeitschrift fuer Anorganische und Allgemeine Chemie (1950) (DE)' 2007
633 1633 1638 ZAACAB
loop_
_publ_author_name
'Mueller, C.'
'Joergens, S.'
'Mewis, A.'
_cell_length_a 28.124(6)
_cell_length_b 10.003(2)
_cell_length_c 33.486(7)
_cell_angle_alpha 90.
_cell_angle_beta 113.89(3)
_cell_angle_gamma 90.
_cell_volume 8613.33
_cell_formula_units_Z 12
_symmetry_space_group_name_H-M 'C 1 2/c 1'
_symmetry_Int_Tables_number 15
_refine_ls_R_factor_all 0.04
loop_
_symmetry_equiv_pos_site_id
_symmetry_equiv_pos_as_xyz
1 'x, -y, z+1/2'
2 '-x, -y, -z'
3 '-x, y, -z+1/2'
4 'x, y, z'
5 'x+1/2, -y+1/2, z+1/2'
6 '-x+1/2, -y+1/2, -z'
7 '-x+1/2, y+1/2, -z+1/2'
8 'x+1/2, y+1/2, z'
loop_
_atom_type_symbol
_atom_type_oxidation_number
Dy3+ 3
P5+ 5
S2- -2
Li1+ 1
loop_
_atom_site_label
_atom_site_type_symbol
_atom_site_symmetry_multiplicity
_atom_site_Wyckoff_symbol
_atom_site_fract_x
_atom_site_fract_y
_atom_site_fract_z
_atom_site_B_iso_or_equiv
_atom_site_occupancy
_atom_site_attached_hydrogens
Dy1 Dy3+ 8 f 0.12912(2) 0.15543(8) 0.83072(2) 0.01650(18) 1 0
Dy2 Dy3+ 8 f 0.16290(3) 0.35063(8) 0.29448(2) 0.01750(19) 1 0
Dy3 Dy3+ 8 f 0.11645(2) 0.25719(9) 0.43274(2) 0.01654(18) 1 0
Dy4 Dy3+ 8 f 0.03736(3) 0.61850(8) 0.57149(2) 0.0202(2) 1 0
Dy5 Dy3+ 8 f 0.08315(5) 0.13815(16) 0.55118(4) 0.022 0.5399(19) 0
P1 P5+ 4 e 0. 0.1753(6) 0.75 0.0163(12) 1 0
P2 P5+ 8 f 0.31382(14) 0.5380(4) 0.55943(12) 0.0175(9) 1 0
P3 P5+ 8 f 0.48859(14) 0.4458(4) 0.56833(12) 0.0190(9) 1 0
P4 P5+ 8 f 0.36493(14) 0.9721(5) 0.62487(12) 0.0181(9) 1 0
P5 P5+ 8 f 0.20680(13) 0.1530(5) 0.63113(12) 0.0195(9) 1 0
P6 P5+ 8 f 0.39999(15) 0.0587(4) 0.81560(13) 0.0179(9) 1 0
P7 P5+ 8 f 0.40558(13) 0.0408(4) 0.49008(12) 0.0168(9) 1 0
P8 P5+ 8 f 0.33992(14) 0.4801(5) 0.74416(12) 0.0183(9) 1 0
S1 S2- 8 f 0.28623(13) 0.3637(4) 0.52775(11) 0.0175(8) 1 0
S2 S2- 8 f 0.29949(14) 0.6419(4) 0.71092(12) 0.0191(9) 1 0
S3 S2- 8 f 0.32203(13) 0.9101(4) 0.65775(11) 0.0189(9) 1 0
S4 S2- 8 f 0.50716(14) 0.6360(5) 0.58933(12) 0.0239(10) 1 0
S5 S2- 8 f 0.40401(13) 0.1424(4) 0.65400(11) 0.0192(9) 1 0
S6 S2- 8 f 0.38426(14) 0.4879(4) 0.60765(11) 0.0214(9) 1 0
S7 S2- 8 f 0.43096(14) 0.1628(5) 0.77956(12) 0.0224(9) 1 0
S8 S2- 8 f 0.38723(13) 0.5306(4) 0.80741(12) 0.0226(9) 1 0
S9 S2- 8 f 0.31836(13) 0.0203(4) 0.56165(11) 0.0195(9) 1 0
S10 S2- 8 f 0.23637(14) 0.0591(5) 0.69052(12) 0.0222(10) 1 0
S11 S2- 8 f 0.43999(13) 0.0158(5) 0.55646(11) 0.0213(9) 1 0
S12 S2- 8 f 0.61505(15) 0.1369(5) 0.53963(14) 0.0296(10) 1 0
S13 S2- 8 f 0.62600(14) 0.1674(5) 0.64504(12) 0.0248(10) 1 0
S14 S2- 8 f 0.34026(14) 0.9604(5) 0.76964(12) 0.0242(9) 1 0
S15 S2- 8 f 0.29306(13) 0.3272(4) 0.74514(12) 0.0201(9) 1 0
S16 S2- 8 f 0.54360(13) 0.9434(4) 0.64059(11) 0.0218(9) 1 0
S17 S2- 8 f 0.31918(15) 0.6725(5) 0.51621(13) 0.0288(10) 1 0
S18 S2- 8 f 0.53844(13) 0.8755(5) 0.52737(11) 0.0224(9) 1 0
S19 S2- 8 f 0.26689(14) 0.2554(5) 0.62650(12) 0.0312(11) 1 0
S20 S2- 8 f 0.34585(15) 0.1656(5) 0.47761(12) 0.0320(11) 1 0
S21 S2- 8 f 0.27395(13) 0.6221(5) 0.59218(12) 0.0230(9) 1 0
S22 S2- 8 f 0.47819(13) 0.5661(4) 0.69415(12) 0.0187(9) 1 0
S23 S2- 8 f 0.38325(13) 0.4133(4) 0.71200(12) 0.0210(9) 1 0
S24 S2- 8 f 0.41464(14) 0.8226(4) 0.62811(12) 0.0214(9) 1 0
S25 S2- 8 f 0.5397(2) 0.3807(5) 0.54390(18) 0.0476(14) 1 0
S26 S2- 8 f 0.43812(14) 0.7898(4) 0.74539(12) 0.0238(10) 1 0
S27 S2- 8 f 0.41594(16) 0.4327(6) 0.52205(14) 0.0450(15) 1 0
S28 S2- 8 f 0.49224(13) 0.3081(4) 0.61506(11) 0.0195(9) 1 0
S29 S2- 8 f 0.17699(18) 0.0165(6) 0.58279(15) 0.0468(13) 1 0
S30 S2- 8 f 0.15083(17) 0.2834(6) 0.62845(13) 0.0444(15) 1 0
Li1 Li1+ 8 f 0.4577(10) 0.393(3) 0.8076(9) 0.032(6) 1 0
Li2 Li1+ 8 f 0.6695(11) 0.378(4) 0.6720(10) 0.041(7) 1 0
Li3 Li1+ 8 f 0.5402(11) 0.715(4) 0.6755(10) 0.045(8) 1 0
Li4 Li1+ 8 f 0.1814(11) 0.235(4) 0.7074(10) 0.044(8) 1 0
Li5 Li1+ 8 f 0.4120(12) 0.748(4) 0.5559(11) 0.050(8) 1 0
Li6 Li1+ 8 f 0.2651(14) 0.817(5) 0.5461(13) 0.066(10) 1 0
Li7 Li1+ 8 f 0.2401(13) 0.158(4) 0.5548(12) 0.060(9) 1 0
Li8 Li1+ 8 f 0.2040(19) 0.456(6) 0.5988(18) 0.101(16) 1 0
Li9 Li1+ 8 f 0.492(2) 0.967(6) 0.6932(18) 0.102(16) 1 0
loop_
_atom_site_aniso_label
_atom_site_aniso_type_symbol
_atom_site_aniso_U_11
_atom_site_aniso_U_22
_atom_site_aniso_U_33
_atom_site_aniso_U_12
_atom_site_aniso_U_13
_atom_site_aniso_U_23
Dy1 Dy3+ 0.0176(3) 0.0178(5) 0.0137(3) -0.0005(3) 0.0059(3) -0.0005(3)
Dy2 Dy3+ 0.0191(3) 0.0186(5) 0.0135(3) -0.0001(3) 0.0053(3) 0.0007(3)
Dy3 Dy3+ 0.0187(3) 0.0183(5) 0.0116(3) -0.0004(3) 0.0050(3) -0.0002(3)
Dy4 Dy3+ 0.0200(3) 0.0267(5) 0.0141(3) 0.0002(3) 0.0072(3) 0.0003(3)
Dy5 Dy3+ 0.021 0.02 0.026 0.002 0.01 0.002
P1 P5+ 0.016(2) 0.014(4) 0.015(3) 0. 0.003(2) 0.
P2 P5+ 0.0180(18) 0.019(3) 0.0117(18) 0.0008(17) 0.0024(15) -0.0006(18)
P3 P5+ 0.0183(19) 0.022(3) 0.0161(19) 0.0017(17) 0.0062(15) 0.0019(18)
P4 P5+ 0.0205(19) 0.018(3) 0.0145(19) -0.0010(17) 0.0063(16) -0.0005(18)
P5 P5+ 0.0198(18) 0.023(3) 0.0143(18) 0.0004(18) 0.0058(15) 0.0044(19)
P6 P5+ 0.0187(18) 0.018(3) 0.0162(18) 0.0000(18) 0.0064(15) 0.0018(19)
P7 P5+ 0.0172(18) 0.021(3) 0.0137(19) -0.0010(17) 0.0078(15) 0.0007(18)
P8 P5+ 0.0188(18) 0.022(3) 0.0138(19) -0.0021(17) 0.0062(16) 0.0017(18)
S1 S2- 0.0191(17) 0.016(3) 0.0152(17) -0.0014(16) 0.0048(14) -0.0026(17)
S2 S2- 0.0235(18) 0.015(3) 0.0202(19) 0.0022(17) 0.0099(15) 0.0034(18)
S3 S2- 0.0204(18) 0.020(3) 0.0160(18) -0.0017(17) 0.0071(15) -0.0008(17)
S4 S2- 0.029(2) 0.019(3) 0.025(2) 0.0015(18) 0.0122(16) 0.0020(19)
S5 S2- 0.0247(18) 0.017(3) 0.0167(18) -0.0038(17) 0.0097(15) -0.0009(18)
S6 S2- 0.0238(19) 0.025(3) 0.0114(18) 0.0030(18) 0.0033(15) -0.0019(17)
S7 S2- 0.0263(19) 0.022(3) 0.0177(19) -0.0030(18) 0.0079(16) 0.0002(18)
S8 S2- 0.023(2) 0.028(3) 0.018(2) 0.0004(18) 0.0100(16) -0.0003(19)
S9 S2- 0.0210(19) 0.021(3) 0.0129(18) 0.0010(17) 0.0029(15) 0.0014(17)
S10 S2- 0.0207(18) 0.027(3) 0.0179(19) 0.0008(17) 0.0066(15) 0.0056(18)
S11 S2- 0.0183(18) 0.029(3) 0.0149(18) 0.0024(17) 0.0048(15) 0.0017(18)
S12 S2- 0.033(2) 0.026(3) 0.039(2) -0.0090(19) 0.0238(19) -0.013(2)
S13 S2- 0.028(2) 0.026(3) 0.0196(19) -0.0048(19) 0.0093(16) -0.0012(19)
S14 S2- 0.0239(19) 0.023(3) 0.0210(19) -0.0043(18) 0.0040(16) 0.0008(18)
S15 S2- 0.0218(19) 0.020(3) 0.0192(19) -0.0008(17) 0.0092(16) 0.0014(18)
S16 S2- 0.0241(19) 0.023(3) 0.0137(18) 0.0006(17) 0.0022(15) 0.0006(17)
S17 S2- 0.029(2) 0.031(3) 0.021(2) -0.0022(19) 0.0046(17) 0.009(2)
S18 S2- 0.0190(18) 0.029(3) 0.0172(18) -0.0047(17) 0.0055(15) 0.0020(18)
S19 S2- 0.0234(18) 0.044(3) 0.022(2) -0.005(2) 0.0051(16) 0.014(2)
S20 S2- 0.036(2) 0.035(3) 0.0172(19) 0.019(2) 0.0029(17) -0.004(2)
S21 S2- 0.0232(18) 0.024(3) 0.0205(19) 0.0046(18) 0.0068(15) -0.0017(18)
S22 S2- 0.0176(18) 0.018(3) 0.0180(19) 0.0032(16) 0.0048(15) -0.0004(17)
S23 S2- 0.0242(19) 0.020(3) 0.0216(19) 0.0005(17) 0.0125(16) -0.0017(18)
S24 S2- 0.0215(18) 0.020(3) 0.023(2) 0.0044(17) 0.0100(16) 0.0012(18)
S25 S2- 0.077(3) 0.028(3) 0.071(3) 0.004(3) 0.064(3) 0.004(3)
S26 S2- 0.0245(19) 0.023(3) 0.0203(19) 0.0062(17) 0.0057(16) -0.0023(18)
S27 S2- 0.031(2) 0.074(4) 0.022(2) -0.024(2) 0.0030(18) 0.009(2)
S28 S2- 0.0202(18) 0.023(3) 0.0148(18) 0.0018(16) 0.0063(15) 0.0024(17)
S29 S2- 0.048(3) 0.027(3) 0.036(3) 0.004(2) -0.013(2) -0.006(2)
S30 S2- 0.048(3) 0.067(4) 0.023(2) 0.039(3) 0.019(2) 0.017(2)
#End of TTdata_417656-ICSD