
#(C) 2019 by FIZ Karlsruhe - Leibniz Institute for Information Infrastructure.  All rights reserved.
data_417958-ICSD
_database_code_ICSD 417958
_audit_creation_date 2008-08-01
_chemical_name_systematic 'Trisodium calcium pentaborate'
_chemical_formula_structural 'Na3 Ca (B5 O10)'
_chemical_formula_sum 'B5 Ca1 Na3 O10'
_exptl_crystal_density_diffrn 2.43
_cell_measurement_temperature 290.
_publ_section_title

;
Syntheses and crystal structures of two pentaborates, Na3 Ca B5 O10 and Na3 Mg
B5 O10
;
loop_
_citation_id
_citation_journal_full
_citation_year
_citation_journal_volume
_citation_page_first
_citation_page_last
_citation_journal_id_ASTM
primary 'Solid State Sciences' 2007 9 678 685 SSSCFJ
loop_
_publ_author_name
'Chen Xue An'
'Li Ming'
'Zuo Jian Long'
'Chang Xi Nan'
'Zang Hegui'
'Xiao Wei Qiang'
_cell_length_a 7.4403(6)
_cell_length_b 9.7530(10)
_cell_length_c 12.9289(9)
_cell_angle_alpha 90.972(7)
_cell_angle_beta 90.073(7)
_cell_angle_gamma 109.656(6)
_cell_volume 883.37
_cell_formula_units_Z 4
_symmetry_space_group_name_H-M 'P -1'
_symmetry_Int_Tables_number 2
_refine_ls_R_factor_all 0.0441
loop_
_symmetry_equiv_pos_site_id
_symmetry_equiv_pos_as_xyz
1 '-x, -y, -z'
2 'x, y, z'
loop_
_atom_type_symbol
_atom_type_oxidation_number
Na1+ 1
Ca2+ 2
B3+ 3
O2- -2
loop_
_atom_site_label
_atom_site_type_symbol
_atom_site_symmetry_multiplicity
_atom_site_Wyckoff_symbol
_atom_site_fract_x
_atom_site_fract_y
_atom_site_fract_z
_atom_site_B_iso_or_equiv
_atom_site_occupancy
_atom_site_attached_hydrogens
Na1 Na1+ 2 i 0.50703(14) 0.25997(11) 0.22809(8) 0.0173(2) 1 0
Na2 Na1+ 2 i 0.12676(16) 0.05197(12) 0.11093(10) 0.0251(3) 1 0
Na3 Na1+ 2 i 0.18432(17) -0.31736(12) 0.00435(9) 0.0234(2) 1 0
Na4 Na1+ 2 i 0.38260(17) -0.04095(13) 0.38734(10) 0.0271(3) 1 0
Na5 Na1+ 2 i -0.00065(17) -0.23889(13) 0.26473(9) 0.0244(3) 1 0
Na6 Na1+ 2 i -0.31326(16) -0.33129(11) 0.51764(9) 0.0207(2) 1 0
Ca1 Ca2+ 2 i 0.47716(6) 0.61253(5) 0.26704(3) 0.00986(13) 1 0
Ca2 Ca2+ 2 i 0.00523(6) 0.37244(5) 0.24104(3) 0.00974(12) 1 0
B1 B3+ 2 i -0.1787(4) 0.3668(3) 0.58175(19) 0.0117(4) 1 0
B2 B3+ 2 i -0.3030(4) 0.4068(3) 0.4132(2) 0.0139(5) 1 0
B3 B3+ 2 i -0.1621(3) 0.2035(3) 0.43213(19) 0.0104(4) 1 0
B4 B3+ 2 i -0.2522(4) -0.0626(3) 0.3824(2) 0.0142(5) 1 0
B5 B3+ 2 i 0.0781(4) 0.1002(3) 0.3526(2) 0.0152(5) 1 0
B6 B3+ 2 i 0.2939(4) 0.3698(3) 0.07582(19) 0.0107(4) 1 0
B7 B3+ 2 i 0.2191(4) 0.4339(3) -0.0976(2) 0.0135(5) 1 0
B8 B3+ 2 i 0.3391(3) 0.2205(3) -0.07616(19) 0.0100(4) 1 0
B9 B3+ 2 i 0.2485(4) -0.0457(3) -0.1247(2) 0.0123(4) 1 0
B10 B3+ 2 i 0.5856(4) 0.1116(3) -0.1385(2) 0.0131(5) 1 0
O1 O2- 2 i -0.1629(2) 0.40035(18) 0.68253(13) 0.0143(3) 1 0
O2 O2- 2 i -0.1356(3) 0.25079(18) 0.54133(13) 0.0138(3) 1 0
O3 O2- 2 i -0.2513(3) 0.4480(2) 0.51655(14) 0.0209(4) 1 0
O4 O2- 2 i -0.2430(2) 0.29772(18) 0.37042(12) 0.0136(3) 1 0
O5 O2- 2 i -0.4108(3) 0.4684(2) 0.36518(15) 0.0261(4) 1 0
O6 O2- 2 i -0.2929(2) 0.05405(18) 0.42681(14) 0.0154(3) 1 0
O7 O2- 2 i 0.0234(2) 0.21779(17) 0.38559(13) 0.0114(3) 1 0
O8 O2- 2 i -0.0663(3) -0.03764(19) 0.34662(15) 0.0196(4) 1 0
O9 O2- 2 i -0.3856(3) -0.19377(19) 0.37609(15) 0.0228(4) 1 0
O10 O2- 2 i 0.2557(3) 0.1200(3) 0.3286(2) 0.0366(6) 1 0
O11 O2- 2 i 0.3075(2) 0.40217(18) 0.17682(12) 0.0127(3) 1 0
O12 O2- 2 i 0.3586(2) 0.26512(18) 0.03406(13) 0.0134(3) 1 0
O13 O2- 2 i 0.2059(3) 0.4429(2) 0.01029(13) 0.0176(4) 1 0
O14 O2- 2 i 0.2730(2) 0.32155(18) -0.13922(12) 0.0122(3) 1 0
O15 O2- 2 i 0.1805(4) 0.5321(3) -0.15350(16) 0.0340(6) 1 0
O16 O2- 2 i 0.2040(2) 0.07285(18) -0.08519(14) 0.0153(3) 1 0
O17 O2- 2 i 0.5271(2) 0.23144(17) -0.11741(13) 0.0119(3) 1 0
O18 O2- 2 i 0.4391(3) -0.02528(19) -0.15055(16) 0.0202(4) 1 0
O19 O2- 2 i 0.1124(3) -0.17512(19) -0.13390(15) 0.0185(4) 1 0
O20 O2- 2 i 0.7690(3) 0.1306(2) -0.14481(19) 0.0272(5) 1 0
loop_
_atom_site_aniso_label
_atom_site_aniso_type_symbol
_atom_site_aniso_U_11
_atom_site_aniso_U_22
_atom_site_aniso_U_33
_atom_site_aniso_U_12
_atom_site_aniso_U_13
_atom_site_aniso_U_23
Na1 Na1+ 0.0145(5) 0.0205(5) 0.0182(5) 0.0074(4) -0.0007(4) 0.0011(4)
Na2 Na1+ 0.0176(5) 0.0161(5) 0.0436(7) 0.0081(4) 0.0076(5) 0.0070(5)
Na3 Na1+ 0.0303(6) 0.0182(5) 0.0237(5) 0.0110(4) -0.0071(4) -0.0058(4)
Na4 Na1+ 0.0190(5) 0.0225(6) 0.0418(7) 0.0094(4) 0.0045(5) 0.0063(5)
Na5 Na1+ 0.0228(5) 0.0313(6) 0.0236(5) 0.0154(5) -0.0027(4) -0.0057(4)
Na6 Na1+ 0.0222(5) 0.0149(5) 0.0252(5) 0.0065(4) -0.0043(4) -0.0007(4)
Ca1 Ca2+ 0.0096(2) 0.0086(2) 0.0111(2) 0.00270(15) -0.00158(14) -0.00147(14)
Ca2 Ca2+ 0.0096(2) 0.0089(2) 0.0112(2) 0.00378(15) -0.00184(14) -0.00120(14)
B1 B3+ 0.0128(10) 0.0086(10) 0.0125(11) 0.0021(8) 0.0003(8) -0.0023(8)
B2 B3+ 0.0141(11) 0.0138(11) 0.0164(11) 0.0083(9) -0.0011(9) -0.0014(9)
B3 B3+ 0.0108(10) 0.0091(10) 0.0117(10) 0.0042(8) 0.0004(8) -0.0020(8)
B4 B3+ 0.0177(12) 0.0097(10) 0.0140(11) 0.0032(9) -0.0017(9) -0.0007(8)
B5 B3+ 0.0150(11) 0.0159(11) 0.0178(12) 0.0092(9) 0.0041(9) 0.0036(9)
B6 B3+ 0.0121(10) 0.0096(10) 0.0096(10) 0.0027(8) 0.0010(8) -0.0005(8)
B7 B3+ 0.0128(11) 0.0162(11) 0.0141(11) 0.0086(9) -0.0032(8) -0.0027(9)
B8 B3+ 0.0100(10) 0.0087(10) 0.0123(10) 0.0047(8) 0.0013(8) -0.0005(8)
B9 B3+ 0.0125(11) 0.0085(10) 0.0152(11) 0.0026(8) -0.0016(8) -0.0023(8)
B10 B3+ 0.0120(11) 0.0121(10) 0.0169(11) 0.0063(9) 0.0020(9) 0.0017(9)
O1 O2- 0.0165(8) 0.0127(7) 0.0121(7) 0.0030(6) 0.0006(6) -0.0038(6)
O2 O2- 0.0209(8) 0.0125(7) 0.0110(7) 0.0096(6) -0.0017(6) -0.0025(6)
O3 O2- 0.0343(11) 0.0188(8) 0.0173(8) 0.0194(8) -0.0072(7) -0.0053(7)
O4 O2- 0.0170(8) 0.0166(8) 0.0116(7) 0.0117(6) -0.0023(6) -0.0015(6)
O5 O2- 0.0346(11) 0.0335(11) 0.0224(9) 0.0274(9) -0.0064(8) -0.0012(8)
O6 O2- 0.0123(8) 0.0105(7) 0.0215(8) 0.0015(6) 0.0044(6) -0.0034(6)
O7 O2- 0.0089(7) 0.0100(7) 0.0155(7) 0.0032(6) 0.0014(6) 0.0000(6)
O8 O2- 0.0204(9) 0.0121(8) 0.0286(10) 0.0084(7) 0.0039(7) -0.0031(7)
O9 O2- 0.0288(10) 0.0110(8) 0.0219(9) -0.0017(7) -0.0051(7) -0.0044(7)
O10 O2- 0.0201(10) 0.0319(11) 0.0660(17) 0.0186(9) 0.0219(10) 0.0200(11)
O11 O2- 0.0133(7) 0.0119(7) 0.0100(7) 0.0008(6) 0.0003(6) -0.0030(6)
O12 O2- 0.0178(8) 0.0135(7) 0.0115(7) 0.0087(6) -0.0005(6) -0.0014(6)
O13 O2- 0.0286(10) 0.0193(8) 0.0120(8) 0.0173(7) 0.0005(7) -0.0005(6)
O14 O2- 0.0132(7) 0.0142(7) 0.0114(7) 0.0078(6) -0.0010(6) -0.0016(6)
O15 O2- 0.0562(15) 0.0438(13) 0.0215(10) 0.0429(12) -0.0115(10) -0.0040(9)
O16 O2- 0.0106(7) 0.0092(7) 0.0239(9) 0.0009(6) 0.0042(6) -0.0041(6)
O17 O2- 0.0097(7) 0.0092(7) 0.0172(8) 0.0039(6) 0.0026(6) 0.0005(6)
O18 O2- 0.0153(8) 0.0124(8) 0.0339(10) 0.0063(7) 0.0013(7) -0.0061(7)
O19 O2- 0.0189(8) 0.0104(7) 0.0232(9) 0.0012(7) -0.0036(7) -0.0038(6)
O20 O2- 0.0124(8) 0.0210(9) 0.0517(13) 0.0099(7) 0.0060(8) 0.0060(9)
#End of TTdata_417958-ICSD