
#(C) 2019 by FIZ Karlsruhe - Leibniz Institute for Information Infrastructure.  All rights reserved.
data_418181-ICSD
_database_code_ICSD 418181
_audit_creation_date 2008-08-01
_audit_update_record 2015-02-01
_chemical_name_systematic
'Decasodium hexaoxotrimanganate(II) trioxomanganate(II)'
_chemical_formula_structural 'Na10 (Mn3 O6) (Mn O3)'
_chemical_formula_sum 'Mn4 Na10 O9'
_chemical_name_structure_type Na10Mn4O9
_exptl_crystal_density_diffrn 3.09
_cell_measurement_temperature 293.
_publ_section_title

;
Synthesis and crystal structure of Na10 [Mn3 O6] [Mn O3] (M = Fe, Mn) with a
remark on the magnetic properties
;
loop_
_citation_id
_citation_journal_full
_citation_year
_citation_journal_volume
_citation_page_first
_citation_page_last
_citation_journal_id_ASTM
primary 'Zeitschrift fuer Anorganische und Allgemeine Chemie (1950) (DE)' 2007
633 2579 2586 ZAACAB
loop_
_publ_author_name
'Amann, P.'
'Sobotka, B.M.'
'Fastje, O.'
'Moeller, A.'
_cell_length_a 11.010(2)
_cell_length_b 11.010(2)
_cell_length_c 18.216(4)
_cell_angle_alpha 90.
_cell_angle_beta 90.
_cell_angle_gamma 120.
_cell_volume 1912.31
_cell_formula_units_Z 6
_symmetry_space_group_name_H-M 'R -3 m H'
_symmetry_Int_Tables_number 166
_refine_ls_R_factor_all 0.0632
loop_
_symmetry_equiv_pos_site_id
_symmetry_equiv_pos_as_xyz
1 'x-y, -y, -z'
2 '-x, -x+y, -z'
3 'y, x, -z'
4 'x-y, x, -z'
5 'y, -x+y, -z'
6 '-x, -y, -z'
7 '-x+y, y, z'
8 'x, x-y, z'
9 '-y, -x, z'
10 '-x+y, -x, z'
11 '-y, x-y, z'
12 'x, y, z'
13 'x-y+2/3, -y+1/3, -z+1/3'
14 '-x+2/3, -x+y+1/3, -z+1/3'
15 'y+2/3, x+1/3, -z+1/3'
16 'x-y+2/3, x+1/3, -z+1/3'
17 'y+2/3, -x+y+1/3, -z+1/3'
18 '-x+2/3, -y+1/3, -z+1/3'
19 '-x+y+2/3, y+1/3, z+1/3'
20 'x+2/3, x-y+1/3, z+1/3'
21 '-y+2/3, -x+1/3, z+1/3'
22 '-x+y+2/3, -x+1/3, z+1/3'
23 '-y+2/3, x-y+1/3, z+1/3'
24 'x+2/3, y+1/3, z+1/3'
25 'x-y+1/3, -y+2/3, -z+2/3'
26 '-x+1/3, -x+y+2/3, -z+2/3'
27 'y+1/3, x+2/3, -z+2/3'
28 'x-y+1/3, x+2/3, -z+2/3'
29 'y+1/3, -x+y+2/3, -z+2/3'
30 '-x+1/3, -y+2/3, -z+2/3'
31 '-x+y+1/3, y+2/3, z+2/3'
32 'x+1/3, x-y+2/3, z+2/3'
33 '-y+1/3, -x+2/3, z+2/3'
34 '-x+y+1/3, -x+2/3, z+2/3'
35 '-y+1/3, x-y+2/3, z+2/3'
36 'x+1/3, y+2/3, z+2/3'
loop_
_atom_type_symbol
_atom_type_oxidation_number
Mn2+ 2
O2- -2
Mn2+ 2
O2- -2
Na1+ 1
loop_
_atom_site_label
_atom_site_type_symbol
_atom_site_symmetry_multiplicity
_atom_site_Wyckoff_symbol
_atom_site_fract_x
_atom_site_fract_y
_atom_site_fract_z
_atom_site_B_iso_or_equiv
_atom_site_occupancy
_atom_site_attached_hydrogens
Mn1 Mn2+ 18 h 0.43262(7) 0.56738(7) 0.03412(7) 0.0112(3) 1 0
O1 O2- 18 h 0.5350(3) 0.4650(3) 0.0751(3) 0.0153(14) 1 0
O2 O2- 18 h 0.2279(4) 0.4557(8) 0.0615(5) 0.0310(19) 1 0
Mn2 Mn2+ 6 c 0. 0. 0.08197(15) 0.0200(7) 1 0
O3 O2- 18 h 0.2055(7) 0.1028(3) 0.0951(3) 0.0156(13) 1 0
Na1 Na1+ 18 f 0. 0.2677(4) 0. 0.0256(10) 1 0
Na2 Na1+ 3 b 0.3333 0.6667 0.1667 0.027(3) 1 0
Na3 Na1+ 18 h 0.2113(4) 0.1056(2) 0.2303(2) 0.0210(9) 1 0
Na4 Na1+ 36 i 0.6122(13) 0.612(2) 0.1799(6) 0.061(4) 0.29167 0
Na5 Na1+ 18 h 0.5241(5) 0.4759(5) 0.1956(4) 0.061(4) 0.58333 0
loop_
_atom_site_aniso_label
_atom_site_aniso_type_symbol
_atom_site_aniso_U_11
_atom_site_aniso_U_22
_atom_site_aniso_U_33
_atom_site_aniso_U_12
_atom_site_aniso_U_13
_atom_site_aniso_U_23
Mn1 Mn2+ 0.0117(5) 0.0117(5) 0.0105(6) 0.0061(6) -0.0001(3) 0.0001(3)
O1 O2- 0.025(3) 0.025(3) 0.005(3) 0.020(3) -0.0018(12) 0.0018(12)
O2 O2- 0.010(2) 0.019(4) 0.067(5) 0.009(2) 0.010(2) 0.021(4)
Mn2 Mn2+ 0.0196(9) 0.0196(9) 0.0208(13) 0.0098(5) 0. 0.
O3 O2- 0.017(4) 0.017(3) 0.012(3) 0.0084(18) -0.002(3) -0.0010(14)
Na1 Na1+ 0.028(2) 0.0215(16) 0.029(2) 0.0139(12) 0.0096(18) 0.0048(9)
Na2 Na1+ 0.036(4) 0.036(4) 0.009(4) 0.018(2) 0. 0.
Na3 Na1+ 0.020(2) 0.0155(15) 0.029(2) 0.0099(11) -0.0010(18) -0.0005(9)
Na4 Na1+ 0.046(7) 0.165(15) 0.011(4) 0.080(7) -0.014(6) -0.029(8)
Na5 Na1+ 0.046(7) 0.165(15) 0.011(4) 0.080(7) -0.014(6) -0.029(8)
#End of TTdata_418181-ICSD