
#(C) 2019 by FIZ Karlsruhe - Leibniz Institute for Information Infrastructure.  All rights reserved.
data_418144-ICSD
_database_code_ICSD 418144
_audit_creation_date 2008-08-01
_chemical_name_systematic 'Disodium thorium hexafluoride - beta'
_chemical_formula_structural 'Na2 Th F6'
_chemical_formula_sum 'F6 Na2 Th1'
_chemical_name_structure_type Na2ThF6
_exptl_crystal_density_diffrn 5.58
_cell_measurement_temperature 293.
_cell_measurement_pressure 1180000.
_publ_section_title
'Crystal structure and stability of beta-(Na2 Th F6) at non-ambient conditions'
loop_
_citation_id
_citation_journal_full
_citation_year
_citation_journal_volume
_citation_page_first
_citation_page_last
_citation_journal_id_ASTM
primary 'Journal of Physics: Condensed Matter' 2007 19 266219-1 266219-11 JCOMEL
loop_
_publ_author_name
'Grzechnik, A.'
'Fechtelkord, M.'
'Morgenroth, W.'
'Posse, J.M.'
'Friese, K.'
_cell_length_a 5.9361(5)
_cell_length_b 5.9361(5)
_cell_length_c 3.8205(4)
_cell_angle_alpha 90
_cell_angle_beta 90
_cell_angle_gamma 120
_cell_volume 116.59
_cell_formula_units_Z 1
_symmetry_space_group_name_H-M 'P 3 2 1'
_symmetry_Int_Tables_number 150
_refine_ls_R_factor_all 0.0379
loop_
_symmetry_equiv_pos_site_id
_symmetry_equiv_pos_as_xyz
1 'x-y, -y, -z'
2 '-x, -x+y, -z'
3 'y, x, -z'
4 '-x+y, -x, z'
5 '-y, x-y, z'
6 'x, y, z'
loop_
_atom_type_symbol
_atom_type_oxidation_number
Na1+ 1
Th4+ 4
F1- -1
loop_
_atom_site_label
_atom_site_type_symbol
_atom_site_symmetry_multiplicity
_atom_site_Wyckoff_symbol
_atom_site_fract_x
_atom_site_fract_y
_atom_site_fract_z
_atom_site_B_iso_or_equiv
_atom_site_occupancy
_atom_site_attached_hydrogens
Na1 Na1+ 2 d 0.666667 0.333333 0.552(3) 0.0224(12) 1 0
Th1 Th4+ 1 a 0 0 0 0.00603(16) 1 0
F1 F1- 3 e 0.6159(18) 0 0 0.023(4) 1 0
F2 F1- 3 f 0.2517(17) 0 0.5 0.020(4) 1 0
loop_
_atom_site_aniso_label
_atom_site_aniso_type_symbol
_atom_site_aniso_U_11
_atom_site_aniso_U_22
_atom_site_aniso_U_33
_atom_site_aniso_U_12
_atom_site_aniso_U_13
_atom_site_aniso_U_23
Na1 Na1+ 0.0188(19) 0.0188(19) 0.029664 0.0094(9) 0 0
Th1 Th4+ 0.0076(2) 0.0076(2) 0.0029(3) 0.00379(10) 0 0
F1 F1- 0.018(3) 0.035(7) 0.021(7) 0.018(4) 0.007(7) 0.013(14)
F2 F1- 0.014(3) 0.024(5) 0.024(7) 0.012(3) 0.011(4) 0.021(9)
#End of TTdata_418144-ICSD