
#(C) 2018 by FIZ Karlsruhe - Leibniz Institute for Information Infrastructure.  All rights reserved.
data_418251-ICSD
_database_code_ICSD 418251
_audit_creation_date 2008-08-01
_chemical_name_systematic 'Lithium peroxodiphosphate tetrahydrate'
_chemical_formula_structural 'Li4 P2 O8 (H2 O)4'
_chemical_formula_sum 'H8 Li4 O12 P2'
_exptl_crystal_density_diffrn 1.95
_cell_measurement_temperature 295.
_publ_section_title 'Crystal structures of alkali metal peroxodiphosphates'
loop_
_citation_id
_citation_journal_full
_citation_year
_citation_journal_volume
_citation_page_first
_citation_page_last
_citation_journal_id_ASTM
primary 'Zeitschrift fuer Anorganische und Allgemeine Chemie (1950) (DE)' 2008
634 279 287 ZAACAB
loop_
_publ_author_name
'Oeckler, O.'
'Montbrun, L.'
_cell_length_a 8.057(2)
_cell_length_b 5.0740(10)
_cell_length_c 12.288(3)
_cell_angle_alpha 90.
_cell_angle_beta 100.53(2)
_cell_angle_gamma 90.
_cell_volume 493.89
_cell_formula_units_Z 2
_symmetry_space_group_name_H-M 'P 1 21/n 1'
_symmetry_Int_Tables_number 14
_refine_ls_R_factor_all 0.0469
loop_
_symmetry_equiv_pos_site_id
_symmetry_equiv_pos_as_xyz
1 '-x+1/2, y+1/2, -z+1/2'
2 '-x, -y, -z'
3 'x+1/2, -y+1/2, z+1/2'
4 'x, y, z'
loop_
_atom_type_symbol
_atom_type_oxidation_number
Li1+ 1
P5+ 5
O1- -1
O2- -2
H1+ 1
O2- -2
H1+ 1
loop_
_atom_site_label
_atom_site_type_symbol
_atom_site_symmetry_multiplicity
_atom_site_Wyckoff_symbol
_atom_site_fract_x
_atom_site_fract_y
_atom_site_fract_z
_atom_site_B_iso_or_equiv
_atom_site_occupancy
_atom_site_attached_hydrogens
Li1 Li1+ 4 e 0.8177(3) 0.0452(6) 0.8246(2) 0.0245(6) 1 0
Li2 Li1+ 4 e 0.1328(3) 0.0506(6) 0.73510(19) 0.0212(5) 1 0
P1 P5+ 4 e 0.47850(4) 0.03610(7) 0.65946(3) 0.01280(9) 1 0
O1 O1- 4 e 0.56855(12) 0.0515(2) 0.47253(8) 0.0182(2) 1 0
O2 O2- 4 e 0.47583(13) 0.3334(2) 0.66380(9) 0.0184(2) 1 0
O3 O2- 4 e 0.33485(13) -0.0979(2) 0.70070(9) 0.0199(3) 1 0
O4 O2- 4 e 0.64954(12) -0.0831(2) 0.70380(8) 0.0184(3) 1 0
O5 O2- 4 e 0.94936(17) 0.0562(4) 0.59990(11) 0.0393(4) 1 0
H1 H1+ 4 e 0.866(3) 0.089(9) 0.616(3) 0.117(7) 1 0
H2 H1+ 4 e 0.997(4) 0.143(7) 0.566(3) 0.117(7) 1 0
O6 O2- 4 e 0.77651(17) 0.5377(3) 0.53570(10) 0.0384(3) 1 0
H3 H1+ 4 e 0.716(4) 0.565(8) 0.4798(19) 0.117(7) 1 0
H4 H1+ 4 e 0.847(4) 0.428(6) 0.543(3) 0.117(7) 1 0
loop_
_atom_site_aniso_label
_atom_site_aniso_type_symbol
_atom_site_aniso_U_11
_atom_site_aniso_U_22
_atom_site_aniso_U_33
_atom_site_aniso_U_12
_atom_site_aniso_U_13
_atom_site_aniso_U_23
Li1 Li1+ 0.0227(12) 0.0213(16) 0.0293(13) 0.0037(12) 0.0039(9) -0.0011(12)
Li2 Li1+ 0.0196(12) 0.0218(14) 0.0246(12) 0.0000(11) 0.0105(9) 0.0031(11)
P1 P5+ 0.01333(16) 0.0117(2) 0.01393(15) 0.00034(16) 0.00399(11) -0.00045(16)
O1 O1- 0.0148(5) 0.0257(6) 0.0150(4) -0.0072(5) 0.0051(3) -0.0012(4)
O2 O2- 0.0175(5) 0.0169(5) 0.0225(5) 0.0008(5) 0.0078(4) -0.0021(5)
O3 O2- 0.0203(6) 0.0157(7) 0.0266(6) 0.0008(4) 0.0115(4) 0.0017(4)
O4 O2- 0.0181(5) 0.0150(7) 0.0211(5) 0.0010(4) 0.0014(4) -0.0015(4)
O5 O2- 0.0365(7) 0.0480(11) 0.0318(7) 0.0050(7) 0.0020(5) -0.0013(6)
O6 O2- 0.0443(7) 0.0406(9) 0.0300(6) 0.0137(7) 0.0063(5) 0.0052(6)
#End of TTdata_418251-ICSD