
#(C) 2019 by FIZ Karlsruhe - Leibniz Institute for Information Infrastructure.  All rights reserved.
data_418252-ICSD
_database_code_ICSD 418252
_audit_creation_date 2008-08-01
_audit_update_record 2013-08-01
_chemical_name_systematic 'Tetrasodium peroxodiphosphate octadecahydrate - LT'
_chemical_formula_structural 'Na4 P2 O8 (H2 O)18'
_chemical_formula_sum 'H36 Na4 O26 P2'
_exptl_crystal_density_diffrn 1.69
_cell_measurement_temperature 130.
_publ_section_title 'Crystal structures of alkali metal peroxodiphosphates'
loop_
_citation_id
_citation_journal_full
_citation_year
_citation_journal_volume
_citation_page_first
_citation_page_last
_citation_journal_id_ASTM
primary 'Zeitschrift fuer Anorganische und Allgemeine Chemie (1950) (DE)' 2008
634 279 287 ZAACAB
loop_
_publ_author_name
'Oeckler, O.'
'Montbrun, L.'
_cell_length_a 9.0984(14)
_cell_length_b 9.0984(14)
_cell_length_c 49.926(13)
_cell_angle_alpha 90.
_cell_angle_beta 90.
_cell_angle_gamma 120.
_cell_volume 3579.21
_cell_formula_units_Z 6
_symmetry_space_group_name_H-M 'P 61'
_symmetry_Int_Tables_number 169
_refine_ls_R_factor_all 0.0496
loop_
_symmetry_equiv_pos_site_id
_symmetry_equiv_pos_as_xyz
1 'x-y, x, z+1/6'
2 'y, -x+y, z+5/6'
3 '-x, -y, z+1/2'
4 '-x+y, -x, z+2/3'
5 '-y, x-y, z+1/3'
6 'x, y, z'
loop_
_atom_type_symbol
_atom_type_oxidation_number
P5+ 5
Na1+ 1
O2- -2
O1- -1
O2- -2
O1- -1
O2- -2
H1+ 1
loop_
_atom_site_label
_atom_site_type_symbol
_atom_site_symmetry_multiplicity
_atom_site_Wyckoff_symbol
_atom_site_fract_x
_atom_site_fract_y
_atom_site_fract_z
_atom_site_B_iso_or_equiv
_atom_site_occupancy
_atom_site_attached_hydrogens
P1 P5+ 6 a 0.32487(10) 0.64341(9) 0.007743(18) 0.02046(17) 1 0
P2 P5+ 6 a 0.68337(10) 0.32397(10) 0.093989(16) 0.02055(18) 1 0
Na1 Na1+ 6 a 0.01783(15) 0.99030(15) 0.10323(3) 0.0238(3) 1 0
Na2 Na1+ 6 a 1.00860(15) 0.98270(15) 0.04086(3) 0.0234(3) 1 0
Na3 Na1+ 6 a 0.35663(15) 0.66406(15) 0.16312(3) 0.0248(3) 1 0
Na4 Na1+ 6 a 0.35266(16) 0.65735(16) 0.09798(3) 0.0234(3) 1 0
O1 O2- 6 a 1.3954(3) 0.8299(3) 0.01258(6) 0.0373(6) 1 0
O2 O2- 6 a 0.4549(3) 0.5898(3) 0.01229(5) 0.0311(5) 1 0
O3 O2- 6 a 0.1558(3) 0.5308(3) 0.02138(5) 0.0266(4) 1 0
O4 O1- 6 a 0.6583(4) 0.2562(3) 0.14341(5) 0.0424(6) 1 0
O5 O2- 6 a 0.8018(3) 0.2541(3) 0.09147(6) 0.0348(5) 1 0
O6 O2- 6 a 0.4989(3) 0.1912(3) 0.09134(5) 0.0273(4) 1 0
O7 O2- 6 a 0.7378(3) 0.4856(3) 0.07860(5) 0.0274(5) 1 0
O8 O1- 6 a 0.7076(4) 0.4023(3) 0.12495(5) 0.0418(6) 1 0
O9 O2- 6 a 0.2427(3) 1.0080(3) 0.12925(4) 0.0257(4) 1 0
O10 O2- 6 a 0.8176(3) 0.7748(3) 0.13165(5) 0.0285(5) 1 0
O11 O2- 6 a 0.0022(3) 0.2004(3) 0.12911(5) 0.0258(4) 1 0
O12 O2- 6 a 0.8092(3) 0.9831(3) 0.07194(5) 0.0312(5) 1 0
O13 O2- 6 a 0.0238(3) 0.7976(3) 0.07335(5) 0.0259(4) 1 0
O14 O2- 6 a 0.2228(3) 0.1909(3) 0.07088(5) 0.0263(4) 1 0
O15 O2- 6 a 1.1799(3) 0.9476(3) 0.00892(5) 0.0261(4) 1 0
O16 O2- 6 a 0.7916(3) 0.7943(3) 0.01125(5) 0.0268(4) 1 0
O17 O2- 6 a 1.0336(3) 1.1960(3) 0.01037(5) 0.0256(4) 1 0
O18 O2- 6 a 0.8547(3) 0.5291(3) 0.02342(5) 0.0269(5) 1 0
O19 O2- 6 a 0.6952(3) 0.1055(3) 0.02132(5) 0.0311(5) 1 0
O20 O2- 6 a 0.4299(3) 0.2866(3) 0.01987(5) 0.0293(5) 1 0
O21 O2- 6 a 0.1595(3) 0.6646(3) 0.13069(5) 0.0272(4) 1 0
O22 O2- 6 a 0.3521(3) 0.4618(3) 0.13038(5) 0.0270(4) 1 0
O23 O2- 6 a 0.5544(3) 0.8592(3) 0.12938(5) 0.0282(5) 1 0
O24 O2- 6 a 0.1316(3) 0.4414(3) 0.07373(5) 0.0273(4) 1 0
O25 O2- 6 a 0.3651(3) 0.8718(3) 0.07005(5) 0.0277(5) 1 0
O26 O2- 6 a 0.5488(3) 0.6387(3) 0.06917(5) 0.0261(4) 1 0
H1 H1+ 6 a 0.334(3) 1.069(4) 0.1233(8) 0.030(10) 1 0
H2 H1+ 6 a 0.248(5) 1.056(5) 0.1436(6) 0.034(11) 1 0
H3 H1+ 6 a 0.779(5) 0.676(3) 0.1278(8) 0.028(10) 1 0
H4 H1+ 6 a 0.871(5) 0.785(6) 0.1454(6) 0.038(11) 1 0
H5 H1+ 6 a -0.042(6) 0.166(6) 0.1436(6) 0.054(14) 1 0
H6 H1+ 6 a -0.063(5) 0.229(6) 0.1225(10) 0.046(12) 1 0
H7 H1+ 6 a 0.784(6) 1.053(5) 0.0767(9) 0.039(12) 1 0
H8 H1+ 6 a 0.726(5) 0.889(4) 0.0721(15) 0.09(2) 1 0
H9 H1+ 6 a -0.040(6) 0.702(4) 0.0796(10) 0.054(14) 1 0
H10 H1+ 6 a 0.113(5) 0.800(9) 0.0703(15) 0.10(2) 1 0
H11 H1+ 6 a 0.206(5) 0.270(4) 0.0728(9) 0.034(10) 1 0
H12 H1+ 6 a 0.309(3) 0.209(4) 0.0791(7) 0.020(8) 1 0
H13 H1+ 6 a 1.241(5) 1.048(3) 0.0071(10) 0.040(11) 1 0
H14 H1+ 6 a 1.245(5) 0.913(6) 0.0125(10) 0.047(12) 1 0
H15 H1+ 6 a 0.689(3) 0.739(5) 0.0142(10) 0.044(12) 1 0
H16 H1+ 6 a 0.825(5) 0.727(5) 0.0107(10) 0.043(12) 1 0
H17 H1+ 6 a 0.934(3) 1.168(6) 0.0107(11) 0.050(13) 1 0
H18 H1+ 6 a 1.072(7) 1.299(3) 0.0123(12) 0.060(15) 1 0
H19 H1+ 6 a 0.951(3) 0.542(6) 0.0217(9) 0.039(11) 1 0
H20 H1+ 6 a 0.834(5) 0.525(5) 0.0395(4) 0.038(11) 1 0
H21 H1+ 6 a 0.605(4) 0.018(4) 0.0200(10) 0.045(13) 1 0
H22 H1+ 6 a 0.716(6) 0.109(6) 0.0372(5) 0.056(15) 1 0
H23 H1+ 6 a 0.423(6) 0.372(4) 0.0165(10) 0.042(12) 1 0
H24 H1+ 6 a 0.414(7) 0.268(7) 0.0360(4) 0.056(14) 1 0
H25 H1+ 6 a 0.167(6) 0.758(3) 0.1296(10) 0.043(12) 1 0
H26 H1+ 6 a 0.058(3) 0.599(5) 0.1321(12) 0.051(13) 1 0
H27 H1+ 6 a 0.417(4) 0.425(5) 0.1325(9) 0.026(9) 1 0
H28 H1+ 6 a 0.262(4) 0.376(4) 0.1306(10) 0.043(12) 1 0
H29 H1+ 6 a 0.587(6) 0.960(3) 0.1305(11) 0.042(12) 1 0
H30 H1+ 6 a 0.636(5) 0.846(8) 0.1315(13) 0.073(18) 1 0
H31 H1+ 6 a 0.149(8) 0.487(7) 0.0591(7) 0.075(19) 1 0
H32 H1+ 6 a 0.032(3) 0.389(6) 0.0785(11) 0.055(14) 1 0
H33 H1+ 6 a 0.408(6) 0.972(3) 0.0739(10) 0.045(13) 1 0
H34 H1+ 6 a 0.384(8) 0.868(8) 0.0540(5) 0.073(18) 1 0
H35 H1+ 6 a 0.523(6) 0.618(6) 0.0534(5) 0.045(13) 1 0
H36 H1+ 6 a 0.612(6) 0.601(6) 0.0718(11) 0.059(15) 1 0
loop_
_atom_site_aniso_label
_atom_site_aniso_type_symbol
_atom_site_aniso_U_11
_atom_site_aniso_U_22
_atom_site_aniso_U_33
_atom_site_aniso_U_12
_atom_site_aniso_U_13
_atom_site_aniso_U_23
P1 P5+ 0.0199(3) 0.0207(3) 0.0215(4) 0.0107(3) -0.0005(3) 0.0001(3)
P2 P5+ 0.0203(4) 0.0192(3) 0.0218(4) 0.0097(3) -0.0004(3) 0.0002(2)
Na1 Na1+ 0.0239(6) 0.0259(6) 0.0214(7) 0.0122(5) 0.0000(4) -0.0012(4)
Na2 Na1+ 0.0247(6) 0.0250(6) 0.0212(7) 0.0129(4) 0.0005(4) -0.0003(4)
Na3 Na1+ 0.0244(6) 0.0253(6) 0.0244(7) 0.0123(5) 0.0007(5) -0.0014(4)
Na4 Na1+ 0.0238(6) 0.0223(6) 0.0239(7) 0.0112(5) 0.0005(4) -0.0002(4)
O1 O2- 0.0282(11) 0.0214(10) 0.0622(17) 0.0123(9) 0.0043(11) -0.0029(11)
O2 O2- 0.0246(10) 0.0267(10) 0.0442(14) 0.0144(9) -0.0007(9) 0.0056(10)
O3 O2- 0.0214(9) 0.0272(10) 0.0282(11) 0.0099(8) 0.0028(8) 0.0023(8)
O4 O1- 0.0736(19) 0.0250(11) 0.0218(11) 0.0195(12) -0.0047(11) 0.0025(9)
O5 O2- 0.0263(11) 0.0278(11) 0.0548(16) 0.0169(9) 0.0055(10) 0.0067(10)
O6 O2- 0.0206(10) 0.0241(10) 0.0335(12) 0.0083(8) 0.0012(8) -0.0001(8)
O7 O2- 0.0255(10) 0.0227(10) 0.0341(12) 0.0122(8) 0.0022(8) 0.0062(8)
O8 O1- 0.0736(18) 0.0215(11) 0.0216(12) 0.0174(12) -0.0045(11) 0.0023(9)
O9 O2- 0.0235(10) 0.0273(11) 0.0239(12) 0.0109(9) -0.0005(8) -0.0016(8)
O10 O2- 0.0278(11) 0.0229(10) 0.0325(12) 0.0110(9) -0.0011(9) -0.0004(9)
O11 O2- 0.0271(10) 0.0308(11) 0.0219(11) 0.0163(9) 0.0005(8) -0.0001(8)
O12 O2- 0.0258(11) 0.0366(13) 0.0275(12) 0.0129(10) 0.0001(9) -0.0094(9)
O13 O2- 0.0301(11) 0.0237(10) 0.0243(11) 0.0136(9) 0.0026(9) 0.0016(8)
O14 O2- 0.0294(11) 0.0252(10) 0.0241(11) 0.0135(9) -0.0061(9) -0.0005(8)
O15 O2- 0.0263(10) 0.0250(10) 0.0288(12) 0.0141(9) 0.0019(8) 0.0042(9)
O16 O2- 0.0250(10) 0.0247(10) 0.0296(11) 0.0116(9) 0.0046(9) -0.0023(9)
O17 O2- 0.0246(10) 0.0235(10) 0.0271(11) 0.0108(8) -0.0022(8) -0.0015(9)
O18 O2- 0.0242(10) 0.0307(11) 0.0260(12) 0.0137(9) -0.0010(9) -0.0033(9)
O19 O2- 0.0242(11) 0.0341(12) 0.0310(13) 0.0115(10) -0.0006(9) 0.0064(9)
O20 O2- 0.0351(12) 0.0275(11) 0.0276(12) 0.0174(10) 0.0057(9) 0.0033(9)
O21 O2- 0.0244(10) 0.0294(11) 0.0304(12) 0.0154(9) -0.0009(9) -0.0016(9)
O22 O2- 0.0298(11) 0.0270(11) 0.0259(11) 0.0156(9) 0.0019(9) 0.0011(8)
O23 O2- 0.0267(11) 0.0234(11) 0.0300(12) 0.0091(9) -0.0020(9) 0.0004(8)
O24 O2- 0.0245(11) 0.0288(11) 0.0252(12) 0.0106(9) 0.0005(8) -0.0008(8)
O25 O2- 0.0330(11) 0.0250(11) 0.0264(12) 0.0156(9) 0.0020(9) 0.0008(9)
O26 O2- 0.0267(11) 0.0328(11) 0.0229(11) 0.0178(9) 0.0011(8) 0.0007(9)
#End of TTdata_418252-ICSD