
#(C) 2019 by FIZ Karlsruhe - Leibniz Institute for Information Infrastructure.  All rights reserved.
data_418297-ICSD
_database_code_ICSD 418297
_audit_creation_date 2010-08-01
_chemical_name_systematic 'Sodium thiosulfato(II)argentate(I)'
_chemical_formula_structural 'Na Ag (S2 O3)'
_chemical_formula_sum 'Ag1 Na1 O3 S2'
_exptl_crystal_density_diffrn 3.55
_cell_measurement_temperature 150.
_publ_section_title

;
Structural characterization of some coinage metal(I) thiosulfate complexes,
Ma1 Mb2 (Xc) (S2 O3)d (* eS) (M1 = group 1 cation, X = univalent anion, M2 =
Cu(I), Ag(I), S = solvent)
;
loop_
_citation_id
_citation_journal_full
_citation_year
_citation_journal_volume
_citation_page_first
_citation_page_last
_citation_journal_id_ASTM
primary 'Zeitschrift fuer Anorganische und Allgemeine Chemie (1950) (DE)' 2008
634 2825 2844 ZAACAB
loop_
_publ_author_name
'Chan, E.J.'
'Skelton, B.W.'
'White, A.H.'
_cell_length_a 9.1673(5)
_cell_length_b 6.1230(4)
_cell_length_c 8.4029(5)
_cell_angle_alpha 90.
_cell_angle_beta 105.6060(10)
_cell_angle_gamma 90.
_cell_volume 454.28
_cell_formula_units_Z 4
_symmetry_space_group_name_H-M 'P 1 21/c 1'
_symmetry_Int_Tables_number 14
_refine_ls_R_factor_all 0.022
loop_
_symmetry_equiv_pos_site_id
_symmetry_equiv_pos_as_xyz
1 'x, -y+1/2, z+1/2'
2 '-x, -y, -z'
3 '-x, y+1/2, -z+1/2'
4 'x, y, z'
loop_
_atom_type_symbol
_atom_type_oxidation_number
Ag1+ 1
Na1+ 1
S4+ 4
S0+ 0
O2- -2
loop_
_atom_site_label
_atom_site_type_symbol
_atom_site_symmetry_multiplicity
_atom_site_Wyckoff_symbol
_atom_site_fract_x
_atom_site_fract_y
_atom_site_fract_z
_atom_site_B_iso_or_equiv
_atom_site_occupancy
_atom_site_attached_hydrogens
Ag1 Ag1+ 4 e .441409(16) -.01223(2) .281191(17) .02144(7) 1. 0
Na1 Na1+ 4 e -.06013(8) .36197(11) -.32985(8) .0141(3) 1. 0
S1 S4+ 4 e .19452(4) .37001(6) .00859(4) .00910(12) 1. 0
S2 S0+ 4 e .39983(4) .21424(6) .03494(4) .01143(13) 1. 0
O1 O2- 4 e .07807(13) .1998(2) -.03394(15) .0153(4) 1. 0
O2 O2- 4 e .17960(14) .52112(18) -.13173(16) .0143(4) 1. 0
O3 O2- 4 e .19494(16) .4807(2) .16122(16) .0198(5) 1. 0
loop_
_atom_site_aniso_label
_atom_site_aniso_type_symbol
_atom_site_aniso_U_11
_atom_site_aniso_U_22
_atom_site_aniso_U_33
_atom_site_aniso_U_12
_atom_site_aniso_U_13
_atom_site_aniso_U_23
Ag1 Ag1+ .01915(7) .02735(9) .01754(7) .00919(5) .00444(5) .00796(5)
Na1 Na1+ .0179(3) .0106(3) .0149(3) -.0012(2) .0061(2) -.0019(2)
S1 S4+ .00957(14) .00872(14) .00918(13) .00107(10) .00282(10) .00019(11)
S2 S0+ .01033(14) .01225(15) .01171(14) .00250(11) .00296(11) -.00055(12)
O1 O2- .0112(5) .0122(5) .0228(6) -.0023(4) .0051(4) .0007(4)
O2 O2- .0152(5) .0125(5) .0161(5) .0028(4) .0055(4) .0062(4)
O3 O2- .0204(6) .0253(7) .0128(5) .0089(5) .0029(4) -.0057(4)
#End of TTdata_418297-ICSD