
#(C) 2019 by FIZ Karlsruhe - Leibniz Institute for Information Infrastructure.  All rights reserved.
data_418240-ICSD
_database_code_ICSD 418240
_audit_creation_date 2008-08-01
_chemical_name_systematic 'Sodium trisamarium trisulfide tetrathiosilicate'
_chemical_formula_structural 'Na Sm3 S3 (Si S4)'
_chemical_formula_sum 'Na1 S7 Si1 Sm3'
_chemical_name_structure_type La3CuSiS7
_exptl_crystal_density_diffrn 4.93
_cell_measurement_temperature 293.
_publ_section_title

;
Thiosilicates of the rare-earth elements. IV. The quasi-isostructural
compounds Na Sm3 S3 [Si S4], Cu Ce3 S3 [Si S4], Ag0.63 Ce3 S2.63 Cl0.37 [Si
S4] and Sm3 S2 Cl [Si S4] - synthesis, crystal structure and investigations of
the silver-cation motion
;
loop_
_citation_id
_citation_journal_full
_citation_year
_citation_journal_volume
_citation_page_first
_citation_page_last
_citation_journal_id_ASTM
primary 'Zeitschrift fuer Anorganische und Allgemeine Chemie (1950) (DE)' 2007
633 2445 2452 ZAACAB
loop_
_publ_author_name
'Hartenbach, I.'
'Nilges, T.'
'Schleid, T.'
_cell_length_a 9.9831(7)
_cell_length_b 9.9831(7)
_cell_length_c 5.6655(4)
_cell_angle_alpha 90.
_cell_angle_beta 90.
_cell_angle_gamma 120.
_cell_volume 488.99
_cell_formula_units_Z 2
_symmetry_space_group_name_H-M 'P 63'
_symmetry_Int_Tables_number 173
_refine_ls_R_factor_all 0.019
loop_
_symmetry_equiv_pos_site_id
_symmetry_equiv_pos_as_xyz
1 'x-y, x, z+1/2'
2 'y, -x+y, z+1/2'
3 '-x, -y, z+1/2'
4 '-x+y, -x, z'
5 '-y, x-y, z'
6 'x, y, z'
loop_
_atom_type_symbol
_atom_type_oxidation_number
Na1+ 1
Sm3+ 3
Si4+ 4
S2- -2
loop_
_atom_site_label
_atom_site_type_symbol
_atom_site_symmetry_multiplicity
_atom_site_Wyckoff_symbol
_atom_site_fract_x
_atom_site_fract_y
_atom_site_fract_z
_atom_site_B_iso_or_equiv
_atom_site_occupancy
_atom_site_attached_hydrogens
Na1 Na1+ 2 a 0. 0. 0.0159(11) 0.0071(6) 1 0
Sm1 Sm3+ 6 c 0.35660(3) 0.12589(2) 0.25000(11) 0.01158(10) 1 0
Si1 Si4+ 2 b 0.3333 0.6667 0.1656(5) 0.0090(5) 1 0
S1 S2- 2 b 0.3333 0.6667 0.5333(4) 0.0117(4) 1 0
S2 S2- 6 c 0.52238(14) 0.41381(15) 0.5200(2) 0.0108(3) 1 0
S3 S2- 6 c 0.24757(14) 0.08717(13) 0.7690(3) 0.0130(2) 1 0
loop_
_atom_site_aniso_label
_atom_site_aniso_type_symbol
_atom_site_aniso_U_11
_atom_site_aniso_U_22
_atom_site_aniso_U_33
_atom_site_aniso_U_12
_atom_site_aniso_U_13
_atom_site_aniso_U_23
Na1 Na1+ 0.0061(7) 0.0061(7) 0.0090(15) 0.0030(4) 0. 0.
Sm1 Sm3+ 0.01218(13) 0.01195(14) 0.01098(14) 0.00630(9) -0.00137(17)
-0.00145(18)
Si1 Si4+ 0.0106(7) 0.0106(7) 0.0059(10) 0.0053(3) 0. 0.
S1 S2- 0.0143(6) 0.0143(6) 0.0063(10) 0.0072(3) 0. 0.
S2 S2- 0.0101(5) 0.0132(6) 0.0094(6) 0.0060(5) 0.0002(5) 0.0006(5)
S3 S2- 0.0164(5) 0.0105(5) 0.0126(6) 0.0070(4) -0.0013(7) 0.0007(6)
#End of TTdata_418240-ICSD