
#(C) 2019 by FIZ Karlsruhe - Leibniz Institute for Information Infrastructure.  All rights reserved.
data_418296-ICSD
_database_code_ICSD 418296
_audit_creation_date 2010-08-01
_chemical_name_systematic
'Pentasodium bis(thiosulfato(II))argentate(I) dinitrate'
_chemical_formula_structural 'Na5 Cu (N O3)2 (S2 O3)2'
_chemical_formula_sum 'Cu1 N2 Na5 O12 S4'
_exptl_crystal_density_diffrn 2.59
_cell_measurement_temperature 150.
_publ_section_title

;
Structural characterization of some coinage metal(I) thiosulfate complexes,
Ma1 Mb2 (Xc) (S2 O3)d (* eS) (M1 = group 1 cation, X = univalent anion, M2 =
Cu(I), Ag(I), S = solvent)
;
loop_
_citation_id
_citation_journal_full
_citation_year
_citation_journal_volume
_citation_page_first
_citation_page_last
_citation_journal_id_ASTM
primary 'Zeitschrift fuer Anorganische und Allgemeine Chemie (1950) (DE)' 2008
634 2825 2844 ZAACAB
loop_
_publ_author_name
'Chan, E.J.'
'Skelton, B.W.'
'White, A.H.'
_cell_length_a 11.1729(9)
_cell_length_b 11.1729(9)
_cell_length_c 5.4192(4)
_cell_angle_alpha 90.
_cell_angle_beta 90.
_cell_angle_gamma 90.
_cell_volume 676.5
_cell_formula_units_Z 2
_symmetry_space_group_name_H-M 'P -4'
_symmetry_Int_Tables_number 81
_refine_ls_R_factor_all 0.032
loop_
_symmetry_equiv_pos_site_id
_symmetry_equiv_pos_as_xyz
1 '-y, x, -z'
2 'y, -x, -z'
3 '-x, -y, z'
4 'x, y, z'
loop_
_atom_type_symbol
_atom_type_oxidation_number
Cu1+ 1
S4+ 4
S0+ 0
O2- -2
Na1+ 1
N5+ 5
O2- -2
loop_
_atom_site_label
_atom_site_type_symbol
_atom_site_symmetry_multiplicity
_atom_site_Wyckoff_symbol
_atom_site_fract_x
_atom_site_fract_y
_atom_site_fract_z
_atom_site_B_iso_or_equiv
_atom_site_occupancy
_atom_site_attached_hydrogens
Cu1 Cu1+ 1 b 1. . .5 .0105(2) 1. 0
Cu2 Cu1+ 1 a 1. . . .0117(2) 1. 0
S1 S4+ 4 h 1.02441(6) .30653(6) .27679(13) .0070(2) 1. 0
S2 S0+ 4 h 1.10000(5) .14024(5) .25002(15) .0083(2) 1. 0
O1 O2- 4 h .89535(17) .30784(18) .2349(5) .0121(8) 1. 0
O2 O2- 4 h 1.0549(2) .3512(2) .5237(5) .0137(10) 1. 0
O3 O2- 4 h 1.0866(2) .3792(2) .0878(5) .0124(9) 1. 0
Na1 Na1+ 4 h .76687(12) .48964(11) .2569(4) .0131(5) 1. 0
Na2 Na1+ 4 h .72671(13) .19772(12) .2187(3) .0154(6) 1. 0
Na3 Na1+ 2 g .5 . .2095(4) .0109(7) 1. 0
N1 N5+ 4 h .6067(2) .6999(2) .2550(6) .0103(8) 1. 0
O4 O2- 4 h .6478(3) .6537(3) .4494(4) .0146(11) 1. 0
O5 O2- 4 h .6365(3) .6579(3) .0491(4) .0145(11) 1. 0
O6 O2- 4 h .5353(2) .7856(2) .2708(6) .0155(10) 1. 0
loop_
_atom_site_aniso_label
_atom_site_aniso_type_symbol
_atom_site_aniso_U_11
_atom_site_aniso_U_22
_atom_site_aniso_U_33
_atom_site_aniso_U_12
_atom_site_aniso_U_13
_atom_site_aniso_U_23
Cu1 Cu1+ .0102(2) .0102(2) .0111(3) . . .
Cu2 Cu1+ .0123(2) .0123(2) .0104(3) . . .
S1 S4+ .0067(2) .0058(2) .0085(3) .00010(18) -.0004(2) -.0001(2)
S2 S0+ .0078(2) .0060(2) .0109(3) .00039(16) .0003(2) .0000(2)
O1 O2- .0065(7) .0116(8) .0182(10) .0006(6) -.0009(9) -.0014(9)
O2 O2- .0166(10) .0136(9) .0109(11) .0040(8) -.0048(8) -.0057(8)
O3 O2- .0119(10) .0091(9) .0163(9) -.0003(8) .0021(8) .0050(8)
Na1 Na1+ .0134(5) .0104(5) .0156(6) .0005(4) .0029(6) .0013(6)
Na2 Na1+ .0180(6) .0140(5) .0141(6) -.0076(4) -.0014(5) .0013(5)
Na3 Na1+ .0108(7) .0122(7) .0098(8) -.0035(6) . .
N1 N5+ .0098(8) .0093(8) .0118(9) .0006(6) .0007(10) .0001(9)
O4 O2- .0065(7) .0116(8) .0182(10) .0006(6) -.0009(9) -.0014(9)
O5 O2- .0159(11) .0167(11) .0110(11) -.0005(9) .0024(7) -.0028(8)
O6 O2- .0146(9) .0104(8) .0215(12) .0062(7) .0007(10) .0021(10)
#End of TTdata_418296-ICSD