
#(C) 2017 by FIZ Karlsruhe - Leibniz Institute for Information Infrastructure.  All rights reserved.
data_418356-ICSD
_database_code_ICSD 418356
_audit_creation_date 2008-08-01
_audit_update_record 2015-02-01
_chemical_name_systematic 'Lithium octadecachlorocarbidohexatungstate'
_chemical_formula_structural 'Li (W6 C Cl18)'
_chemical_formula_sum 'C1 Cl18 Li1 W6'
_chemical_name_structure_type LiW6Cl18C
_exptl_crystal_density_diffrn 4.96
_cell_measurement_temperature 220.
_publ_section_title

;
Synthesis and characterization of carbon- and nitrogen-centered (Z) trigonal
prismatic tungsten clusters of the formula type [W6 Z Cl18]n- (Z = C, N; n =
1,2)
;
loop_
_citation_id
_citation_journal_full
_citation_year
_citation_journal_volume
_citation_page_first
_citation_page_last
_citation_journal_id_ASTM
primary 'Zeitschrift fuer Anorganische und Allgemeine Chemie (1950) (DE)' 2008
634 633 640 ZAACAB
loop_
_publ_author_name
'Weisser, M.'
'Burgert, R.'
'Schnoeckel, H.'
'Meyer, H.J.'
_cell_length_a 8.890(1)
_cell_length_b 8.890(1)
_cell_length_c 17.214(3)
_cell_angle_alpha 90.
_cell_angle_beta 90.
_cell_angle_gamma 120.
_cell_volume 1178.19
_cell_formula_units_Z 2
_symmetry_space_group_name_H-M 'P 63/m'
_symmetry_Int_Tables_number 176
_refine_ls_R_factor_all 0.0252
loop_
_symmetry_equiv_pos_site_id
_symmetry_equiv_pos_as_xyz
1 '-x+y, -x, -z+1/2'
2 '-y, x-y, -z+1/2'
3 'x, y, -z+1/2'
4 'x-y, x, -z'
5 'y, -x+y, -z'
6 '-x, -y, -z'
7 'x-y, x, z+1/2'
8 'y, -x+y, z+1/2'
9 '-x, -y, z+1/2'
10 '-x+y, -x, z'
11 '-y, x-y, z'
12 'x, y, z'
loop_
_atom_type_symbol
_atom_type_oxidation_number
W3+ 3
Cl1- -1
C1- -1
Li1+ 1
loop_
_atom_site_label
_atom_site_type_symbol
_atom_site_symmetry_multiplicity
_atom_site_Wyckoff_symbol
_atom_site_fract_x
_atom_site_fract_y
_atom_site_fract_z
_atom_site_B_iso_or_equiv
_atom_site_occupancy
_atom_site_attached_hydrogens
W1 W3+ 12 i 0.47452(2) 0.29870(2) 0.665354(11) 0.01108(7) 1 0
Cl1 Cl1- 6 h 0.4161(2) 0.4825(2) 0.75 0.0153(3) 1 0
Cl2 Cl1- 6 h 0.27011(19) 0.0696(2) 0.75 0.0143(3) 1 0
Cl3 Cl1- 12 i 0.47227(16) 0.09682(17) 0.57493(7) 0.0169(2) 1 0
Cl4 Cl1- 12 i 0.21765(15) 0.25503(16) 0.59651(8) 0.0188(2) 1 0
C1 C1- 2 c 0.6667 0.3333 0.75 0.012(2) 1 0
Li1 Li1+ 2 b 0. 0. 0.5 0.004(3) 1 0
loop_
_atom_site_aniso_label
_atom_site_aniso_type_symbol
_atom_site_aniso_U_11
_atom_site_aniso_U_22
_atom_site_aniso_U_33
_atom_site_aniso_U_12
_atom_site_aniso_U_13
_atom_site_aniso_U_23
W1 W3+ 0.01068(10) 0.01188(10) 0.01079(10) 0.00570(7) -0.00099(7) 0.00001(7)
Cl1 Cl1- 0.0170(7) 0.0166(7) 0.0155(7) 0.0108(6) 0. 0.
Cl2 Cl1- 0.0117(7) 0.0140(7) 0.0136(6) 0.0036(6) 0. 0.
Cl3 Cl1- 0.0171(5) 0.0201(5) 0.0155(5) 0.0109(4) -0.0045(4) -0.0062(4)
Cl4 Cl1- 0.0139(5) 0.0238(6) 0.0197(5) 0.0102(4) -0.0034(4) 0.0006(5)
C1 C1- 0.008(3) 0.008(3) 0.020(6) 0.0042(14) 0. 0.
Li1 Li1+ 0.003(4) 0.003(4) 0.005(7) 0.002(2) 0. 0.
#End of TTdata_418356-ICSD