
#(C) 2019 by FIZ Karlsruhe - Leibniz Institute for Information Infrastructure.  All rights reserved.
data_418367-ICSD
_database_code_ICSD 418367
_audit_creation_date 2009-02-01
_chemical_name_systematic 'Sodium bismuth vanadium oxide (1.53/21.47/4/42)'
_chemical_formula_structural 'Na1.533 Bi21.467 V4 O42'
_chemical_formula_sum 'Bi21.467 Na1.533 O42 V4'
_exptl_crystal_density_diffrn 8.01
_cell_measurement_temperature 293.
_publ_section_title

;
(M Bi)46 V8 O(y)-family type (M = Pb, Sr, Ca, Cd, Na0.5 Bi0.5): syntheses,
crystal structures and conductivity properties
;
loop_
_citation_id
_citation_journal_full
_citation_year
_citation_journal_volume
_citation_page_first
_citation_page_last
_citation_journal_id_ASTM
primary 'Solid State Sciences' 2008 10 1074 1082 SSSCFJ
loop_
_publ_author_name
'Labidi, O.'
'Drache, M.'
'Roussel, P.'
'Wignacourt, J.P.'
_cell_length_a 12.0352(3)
_cell_length_b 11.5748(4)
_cell_length_c 16.0686(5)
_cell_angle_alpha 90
_cell_angle_beta 90.115(2)
_cell_angle_gamma 90
_cell_volume 2238.43
_cell_formula_units_Z 2
_symmetry_space_group_name_H-M 'I 1 2/m 1'
_symmetry_Int_Tables_number 12
_refine_ls_R_factor_all 0.0724
loop_
_symmetry_equiv_pos_site_id
_symmetry_equiv_pos_as_xyz
1 'x, -y, z'
2 '-x, -y, -z'
3 '-x, y, -z'
4 'x, y, z'
5 'x+1/2, -y+1/2, z+1/2'
6 '-x+1/2, -y+1/2, -z+1/2'
7 '-x+1/2, y+1/2, -z+1/2'
8 'x+1/2, y+1/2, z+1/2'
loop_
_atom_type_symbol
_atom_type_oxidation_number
Bi3+ 3
Na1+ 1
Bi3+ 3
Na1+ 1
O2- -2
V5+ 5
O2- -2
V5+ 5
O2- -2
loop_
_atom_site_label
_atom_site_type_symbol
_atom_site_symmetry_multiplicity
_atom_site_Wyckoff_symbol
_atom_site_fract_x
_atom_site_fract_y
_atom_site_fract_z
_atom_site_B_iso_or_equiv
_atom_site_occupancy
_atom_site_attached_hydrogens
Bi1 Bi3+ 8 j 0.16244(4) 0.17046(4) -0.16833(3) 0.01948(15) 1 0
Bi2 Bi3+ 8 j 0.18180(4) 0.16184(4) -0.49468(3) 0.01677(14) 1 0
Bi3 Bi3+ 4 i 0.14211(8) 0.5 -0.17023(6) 0.0454(3) 1 0
Bi4 Bi3+ 8 j -0.00660(4) 0.33761(4) -0.33910(3) 0.01163(12) 1 0
Bi5 Bi3+ 8 j -0.15394(4) 0.16844(4) -0.17210(3) 0.01815(15) 1 0
Bi6 Bi3+ 4 i -0.16713(7) 0.5 -0.15321(6) 0.0450(4) 1 0
Bi7 Bi3+ 2 a 0.5 -0.5 -0.5 0.0334(11) 0.338(6) 0
Na1 Na1+ 2 a 0.5 -0.5 -0.5 0.0334(11) 0.662(6) 0
Bi8 Bi3+ 4 g 0 0.31540(13) 0 0.0399(6) 0.564(4) 0
Na2 Na1+ 4 g 0 0.315398 0 0.0399(6) 0.436(4) 0
O1 O2- 8 j -0.1316(9) 0.3181(8) -0.2464(7) 0.034(2) 1 0
O2 O2- 8 j 0.1864(8) 0.3174(8) -0.0924(6) 0.032(2) 1 0
O3 O2- 4 i 0.2567(10) 0 -0.5207(8) 0.025(3) 1 0
O4 O2- 8 j 0.1307(11) 0.2957(10) -0.2570(8) 0.060(3) 1 0
O5 O2- 4 i 0.0222(12) 0.5 -0.2833(9) 0.034(3) 1 0
O6 O2- 8 j 0.3057(8) 0.1986(8) -0.5870(6) 0.033(2) 1 0
O7 O2- 4 i -0.0070(14) 0.5 -0.1002(11) 0.051(4) 1 0
O8 O2- 8 j 0.0066(11) 0.1714(9) -0.1028(8) 0.054(3) 1 0
V1 V5+ 4 i 0.1914(3) 0.5 -0.50275(18) 0.0147(6) 1 0
O9 O2- 8 j 0.1535(16) 0.3848(12) -0.4534(11) 0.128(5) 1 0
O10 O2- 4 i 0.125(2) 0.5 -0.5943(17) 0.155(9) 1 0
O11 O2- 4 i 0.322(2) 0.5 -0.522(2) 0.185(11) 1 0
V2 V5+ 4 i 0.0057(2) 0 -0.33878(18) 0.0147(6) 1 0
O12 O2- 8 j -0.0656(15) 0.1152(12) -0.3589(11) 0.128(5) 1 0
O13 O2- 4 i 0.032(2) 0 -0.2366(17) 0.155(9) 1 0
O14 O2- 4 i 0.123(3) 0 -0.3856(19) 0.185(11) 1 0
loop_
_atom_site_aniso_label
_atom_site_aniso_type_symbol
_atom_site_aniso_U_11
_atom_site_aniso_U_22
_atom_site_aniso_U_33
_atom_site_aniso_U_12
_atom_site_aniso_U_13
_atom_site_aniso_U_23
Bi1 Bi3+ 0.0234(3) 0.0143(2) 0.0207(3) 0.00288(16) -0.0009(2) -0.00488(16)
Bi2 Bi3+ 0.0103(2) 0.0156(2) 0.0244(3) 0.00189(14) -0.0006(2) -0.00132(17)
Bi3 Bi3+ 0.0201(4) 0.0839(8) 0.0323(6) 0 0.0065(4) 0
Bi4 Bi3+ 0.0134(2) 0.0164(2) 0.0051(2) 0.00041(14) -0.00228(17) -0.00222(14)
Bi5 Bi3+ 0.0169(3) 0.0183(2) 0.0193(3) -0.00206(16) 0.0011(2) -0.00611(16)
Bi6 Bi3+ 0.0188(4) 0.0953(8) 0.0209(5) 0 -0.0104(4) 0
Bi7 Bi3+ 0.049(2) 0.0275(15) 0.0238(18) 0 -0.0008(15) 0
Na1 Na1+ 0.049(2) 0.0275(15) 0.0238(18) 0 -0.0008(15) 0
Bi8 Bi3+ 0.0394(10) 0.0326(8) 0.0476(11) 0 -0.0008(8) 0
Na2 Na1+ 0.0394(10) 0.0326(8) 0.0476(11) 0 -0.0008(8) 0
V1 V5+ 0.0132(8) 0.0144(9) 0.0164(13) 0 -0.0019(8) 0
V2 V5+ 0.0163(11) 0.0144(9) 0.0132(11) 0 0.0020(8) 0
#End of TTdata_418367-ICSD