
#(C) 2019 by FIZ Karlsruhe - Leibniz Institute for Information Infrastructure.  All rights reserved.
data_418364-ICSD
_database_code_ICSD 418364
_audit_creation_date 2008-08-01
_chemical_name_systematic
'Pentasodium dihydrogen platinum 28-oxononavanadate 21-hydrate'
_chemical_formula_structural 'Na5 (H2 Pt V9 O28) (H2 O)21'
_chemical_formula_sum 'H44 Na5 O49 Pt1 V9'
_exptl_crystal_density_diffrn 2.46
_cell_measurement_temperature 298.
_publ_section_title

;
Facile incorporation of platinum(IV) into polyoxometalate frameworks:
preparation of [H2 Pt(IV) V9 O28](5-) and characterization by (195)Pt NMR
spectroscopy
;
loop_
_citation_id
_citation_journal_full
_citation_year
_citation_journal_volume
_citation_page_first
_citation_page_last
_citation_journal_id_ASTM
primary 'Angewandte Chemie, International Edition' 2008 47 793 796 ACIEF5
loop_
_publ_author_name
'Lee Uk'
'Joo Hea-Chung'
'Park Ki-Min'
'Mal, S.S.'
'Kortz, U.'
'Keita, B.'
'Nadjo, L.'
_cell_length_a 12.540(1)
_cell_length_b 13.722(1)
_cell_length_c 14.884(1)
_cell_angle_alpha 116.681(5)
_cell_angle_beta 103.827(4)
_cell_angle_gamma 96.044(5)
_cell_volume 2154.38
_cell_formula_units_Z 2
_symmetry_space_group_name_H-M 'P -1'
_symmetry_Int_Tables_number 2
_refine_ls_R_factor_all 0.0342
loop_
_symmetry_equiv_pos_site_id
_symmetry_equiv_pos_as_xyz
1 '-x, -y, -z'
2 'x, y, z'
loop_
_atom_type_symbol
_atom_type_oxidation_number
Pt4+ 4
V5+ 5
O2- -2
H1+ 1
O2- -2
H1+ 1
O2- -2
Na1+ 1
O2- -2
H1+ 1
O2- -2
H1+ 1
O2- -2
H1+ 1
O2- -2
H1+ 1
O2- -2
H1+ 1
O2- -2
H1+ 1
O2- -2
H1+ 1
O2- -2
H1+ 1
O2- -2
H1+ 1
O2- -2
H1+ 1
O2- -2
H1+ 1
O2- -2
H1+ 1
O2- -2
H1+ 1
O2- -2
H1+ 1
O2- -2
H1+ 1
O2- -2
H1+ 1
O2- -2
H1+ 1
O2- -2
H1+ 1
O2- -2
H1+ 1
O2- -2
H1+ 1
O2- -2
H1+ 1
loop_
_atom_site_label
_atom_site_type_symbol
_atom_site_symmetry_multiplicity
_atom_site_Wyckoff_symbol
_atom_site_fract_x
_atom_site_fract_y
_atom_site_fract_z
_atom_site_B_iso_or_equiv
_atom_site_occupancy
_atom_site_attached_hydrogens
Pt1 Pt4+ 2 i 0.571143(13) 0.132291(13) 0.199295(12) 0.01236(6) 1 0
V1 V5+ 2 i 0.58087(7) -0.01661(7) 0.31069(6) 0.02121(16) 1 0
V2 V5+ 2 i 0.55364(7) 0.27806(7) 0.08470(6) 0.02067(16) 1 0
V3 V5+ 2 i 0.80018(7) 0.41833(7) 0.23083(7) 0.02209(17) 1 0
V4 V5+ 2 i 0.82205(6) 0.27409(6) 0.34483(6) 0.01597(15) 1 0
V5 V5+ 2 i 0.82849(7) 0.12072(7) 0.44853(6) 0.02171(17) 1 0
V6 V5+ 2 i 0.76096(6) 0.00292(6) 0.19880(6) 0.01785(15) 1 0
V7 V5+ 2 i 0.61454(6) 0.39217(6) 0.33470(6) 0.01790(15) 1 0
V8 V5+ 2 i 0.75167(7) 0.15325(7) 0.09108(6) 0.01835(15) 1 0
V9 V5+ 2 i 0.62953(7) 0.24656(7) 0.44610(6) 0.01917(16) 1 0
O1 O2- 2 i 0.6924(2) 0.1337(3) 0.3137(2) 0.0159(6) 1 0
O2 O2- 2 i 0.6812(2) 0.2602(3) 0.2184(2) 0.0159(6) 1 0
O3 O2- 2 i 0.6464(3) 0.0335(3) 0.0991(2) 0.0161(6) 1 0
O4 O2- 2 i 0.5282(2) 0.2492(3) 0.3188(2) 0.0161(6) 1 0
O5 O2- 2 i 0.8395(3) 0.1527(3) 0.2217(2) 0.0178(6) 1 0
O6 O2- 2 i 0.7302(3) 0.3529(3) 0.4245(2) 0.0174(6) 1 0
O7 O2- 2 i 0.4588(3) 0.1490(3) 0.0872(3) 0.0184(6) 1 0
H1 H1+ 2 i 0.432(8) 0.090(8) 0.037(7) 0.08(3) 1 0
O8 O2- 2 i 0.4722(3) 0.0028(3) 0.1947(3) 0.0177(6) 1 0
H2 H1+ 2 i 0.440(7) -0.052(7) 0.137(7) 0.07(3) 1 0
O9 O2- 2 i 0.6748(3) 0.3924(3) 0.1238(3) 0.0232(7) 1 0
O10 O2- 2 i 0.8941(3) 0.3815(3) 0.3409(3) 0.0223(7) 1 0
O11 O2- 2 i 0.9061(3) 0.2528(3) 0.4377(3) 0.0215(7) 1 0
O12 O2- 2 i 0.7116(3) 0.0072(3) 0.4147(3) 0.0240(7) 1 0
O13 O2- 2 i 0.6520(3) -0.0853(3) 0.2067(3) 0.0219(7) 1 0
O14 O2- 2 i 0.8626(3) 0.0350(3) 0.3260(3) 0.0225(7) 1 0
O15 O2- 2 i 0.8387(3) 0.2898(3) 0.1363(3) 0.0233(7) 1 0
O16 O2- 2 i 0.6262(3) 0.1693(3) 0.0100(2) 0.0200(6) 1 0
O17 O2- 2 i 0.5187(3) 0.3654(3) 0.2087(3) 0.0215(7) 1 0
O18 O2- 2 i 0.7315(3) 0.4846(3) 0.3321(3) 0.0218(7) 1 0
O19 O2- 2 i 0.5412(3) 0.1077(3) 0.4026(3) 0.0217(7) 1 0
O20 O2- 2 i 0.7544(3) 0.2269(3) 0.5223(2) 0.0226(7) 1 0
O21 O2- 2 i 0.4988(3) -0.1241(3) 0.2970(3) 0.0324(8) 1 0
O22 O2- 2 i 0.4621(3) 0.2849(3) -0.0063(3) 0.0319(8) 1 0
O23 O2- 2 i 0.8881(3) 0.5209(3) 0.2444(3) 0.0354(9) 1 0
O24 O2- 2 i 0.9275(3) 0.1213(4) 0.5401(3) 0.0356(9) 1 0
O25 O2- 2 i 0.8111(3) -0.0822(3) 0.1120(3) 0.0287(8) 1 0
O26 O2- 2 i 0.8027(3) 0.0677(3) 0.0057(3) 0.0299(8) 1 0
O27 O2- 2 i 0.5682(3) 0.4801(3) 0.4213(3) 0.0278(8) 1 0
O28 O2- 2 i 0.5856(3) 0.3326(3) 0.5363(3) 0.0287(8) 1 0
Na1 Na1+ 2 i 0.1486(2) -0.1234(2) 0.2177(2) 0.0490(6) 1 0
Na2 Na1+ 2 i 0.21686(19) 0.1716(2) 0.39537(18) 0.0350(5) 1 0
Na3 Na1+ 2 i 0.19537(19) 0.3236(2) 0.25785(18) 0.0340(5) 1 0
Na4 Na1+ 2 i 0.2016(3) 0.4854(3) 0.1339(3) 0.0636(8) 1 0
Na5 Na1+ 2 i 0.6417(3) -0.2764(3) 0.1736(3) 0.0844(13) 1 0
O29 O2- 2 i 0.2289(6) -0.2525(5) 0.0959(4) 0.0723(18) 1 0
H3 H1+ 2 i 0.1872 -0.2715 0.0248 0.108 1 0
H4 H1+ 2 i 0.224 -0.3194 0.102 0.108 1 0
O30 O2- 2 i 0.2921(5) -0.1340(6) 0.3463(5) 0.0694(17) 1 0
H5 H1+ 2 i 0.2875 -0.0869 0.4155 0.104 1 0
H6 H1+ 2 i 0.3647 -0.1086 0.3432 0.104 1 0
O31 O2- 2 i -0.0023(5) -0.2693(5) 0.2022(4) 0.0654(15) 1 0
H7 H1+ 2 i -0.0717 -0.279 0.1513 0.098 1 0
H8 H1+ 2 i -0.013 -0.2454 0.2701 0.098 1 0
O32 O2- 2 i 0.0239(5) -0.0919(7) 0.0827(5) 0.096(2) 1 0
H9 H1+ 2 i -0.0425 -0.0746 0.1014 0.143 1 0
H10 H1+ 2 i 0.069 -0.0457 0.0655 0.143 1 0
O33 O2- 2 i 0.2710(4) 0.0441(4) 0.2457(4) 0.0423(10) 1 0
H11 H1+ 2 i 0.2503 0.0573 0.1858 0.063 1 0
H12 H1+ 2 i 0.3507 0.0446 0.2653 0.063 1 0
O34 O2- 2 i 0.0830(3) 0.0084(4) 0.3546(3) 0.0357(9) 1 0
H13 H1+ 2 i 0.0053 0.0103 0.3273 0.053 1 0
H14 H1+ 2 i 0.0922 -0.0051 0.4143 0.053 1 0
O35 O2- 2 i 0.3680(4) 0.1488(4) 0.5102(4) 0.0451(11) 1 0
H15 H1+ 2 i 0.3388 0.0934 0.5265 0.068 1 0
H16 H1+ 2 i 0.4231 0.1243 0.4754 0.068 1 0
O36 O2- 2 i 0.1512(3) 0.2855(3) 0.5378(3) 0.0404(10) 1 0
H17 H1+ 2 i 0.0846 0.2793 0.5151 0.061 1 0
H18 H1+ 2 i 0.1892 0.3484 0.5622 0.061 1 0
O37 O2- 2 i 0.0711(3) 0.1686(4) 0.2478(4) 0.0452(11) 1 0
H19 H1+ 2 i 0.0524 0.0994 0.1809 0.068 1 0
H20 H1+ 2 i 0.0031 0.1865 0.2644 0.068 1 0
O38 O2- 2 i 0.3390(3) 0.3095(3) 0.3866(3) 0.0297(8) 1 0
H21 H1+ 2 i 0.3999 0.2824 0.3607 0.045 1 0
H22 H1+ 2 i 0.3695 0.3793 0.4536 0.045 1 0
O39 O2- 2 i 0.2560(4) 0.1826(4) 0.1296(4) 0.0511(12) 1 0
H23 H1+ 2 i 0.1913 0.1314 0.0694 0.077 1 0
H24 H1+ 2 i 0.3067 0.2174 0.1073 0.077 1 0
O40 O2- 2 i 0.1309(4) 0.4625(4) 0.3800(4) 0.0622(16) 1 0
H25 H1+ 2 i 0.1824 0.5344 0.4101 0.093 1 0
H26 H1+ 2 i 0.0571 0.464 0.3442 0.093 1 0
O41 O2- 2 i 0.3346(3) 0.4583(3) 0.2574(3) 0.0364(9) 1 0
H27 H1+ 2 i 0.3678 0.5259 0.326 0.055 1 0
H28 H1+ 2 i 0.3933 0.4266 0.2308 0.055 1 0
O42 O2- 2 i 0.0549(4) 0.3337(5) 0.1185(4) 0.0519(12) 1 0
H29 H1+ 2 i -0.0095 0.3588 0.1384 0.078 1 0
H30 H1+ 2 i 0.0305 0.2654 0.0502 0.078 1 0
O43 O2- 2 i 0.2041(7) 0.3226(6) -0.0226(6) 0.097(2) 1 0
H31 H1+ 2 i 0.181 0.2562 -0.0184 0.145 1 0
H32 H1+ 2 i 0.2796 0.3287 -0.0267 0.145 1 0
O44 O2- 2 i 0.3588(6) 0.6163(6) 0.1522(6) 0.089(2) 1 0
H33 H1+ 2 i 0.4154 0.5783 0.1307 0.134 1 0
H34 H1+ 2 i 0.3893 0.6751 0.2242 0.134 1 0
O45 O2- 2 i 0.1062(6) 0.5233(6) -0.0078(5) 0.093(2) 1 0
H35 H1+ 2 i 0.0279 0.5187 -0.0128 0.14 1 0
H36 H1+ 2 i 0.1117 0.4685 -0.0742 0.14 1 0
O46 O2- 2 i 0.1306(4) 0.6061(4) 0.2654(4) 0.0565(13) 1 0
H37 H1+ 2 i 0.0602 0.6156 0.2316 0.085 1 0
H38 H1+ 2 i 0.1843 0.6779 0.309 0.085 1 0
O47 O2- 2 i 0.8226(4) -0.2052(4) 0.3033(4) 0.0529(12) 1 0
H39 H1+ 2 i 0.8312 -0.1277 0.353 0.079 1 0
H40 H1+ 2 i 0.8298 -0.2477 0.3402 0.079 1 0
O48 O2- 2 i 0.6165(5) -0.4633(5) 0.0519(5) 0.0640(15) 1 0
H41 H1+ 2 i 0.5372 -0.4999 0.0225 0.096 1 0
H42 H1+ 2 i 0.6564 -0.4991 0.0869 0.096 1 0
O49 O2- 2 i 0.5789(5) -0.3444(5) 0.2857(5) 0.0693(16) 1 0
H43 H1+ 2 i 0.58 -0.2811 0.3503 0.104 1 0
H44 H1+ 2 i 0.6294 -0.3864 0.3021 0.104 1 0
loop_
_atom_site_aniso_label
_atom_site_aniso_type_symbol
_atom_site_aniso_U_11
_atom_site_aniso_U_22
_atom_site_aniso_U_33
_atom_site_aniso_U_12
_atom_site_aniso_U_13
_atom_site_aniso_U_23
Pt1 Pt4+ 0.00980(8) 0.01274(8) 0.01176(8) 0.00299(5) 0.00248(5) 0.00418(6)
V1 V5+ 0.0195(4) 0.0216(4) 0.0236(4) 0.0028(3) 0.0056(3) 0.0131(3)
V2 V5+ 0.0220(4) 0.0189(4) 0.0185(4) 0.0043(3) 0.0014(3) 0.0096(3)
V3 V5+ 0.0196(4) 0.0192(4) 0.0263(4) 0.0019(3) 0.0073(3) 0.0109(3)
V4 V5+ 0.0111(3) 0.0173(4) 0.0151(3) 0.0028(3) 0.0025(3) 0.0054(3)
V5 V5+ 0.0182(4) 0.0272(4) 0.0193(4) 0.0065(3) 0.0026(3) 0.0125(3)
V6 V5+ 0.0175(4) 0.0180(4) 0.0177(3) 0.0083(3) 0.0061(3) 0.0074(3)
V7 V5+ 0.0179(4) 0.0152(3) 0.0176(3) 0.0062(3) 0.0062(3) 0.0048(3)
V8 V5+ 0.0202(4) 0.0194(4) 0.0166(3) 0.0065(3) 0.0092(3) 0.0079(3)
V9 V5+ 0.0194(4) 0.0229(4) 0.0148(3) 0.0076(3) 0.0076(3) 0.0074(3)
O1 O2- 0.0135(14) 0.0193(15) 0.0130(14) 0.0043(12) 0.0017(11) 0.0075(12)
O2 O2- 0.0133(14) 0.0150(14) 0.0162(14) 0.0022(11) 0.0042(12) 0.0057(12)
O3 O2- 0.0143(14) 0.0156(14) 0.0154(14) 0.0061(12) 0.0059(11) 0.0041(12)
O4 O2- 0.0123(14) 0.0163(15) 0.0163(14) 0.0049(11) 0.0060(11) 0.0043(12)
O5 O2- 0.0128(14) 0.0198(15) 0.0166(14) 0.0043(12) 0.0054(12) 0.0050(12)
O6 O2- 0.0155(15) 0.0166(15) 0.0141(14) 0.0031(12) 0.0034(11) 0.0034(12)
O7 O2- 0.0157(15) 0.0174(16) 0.0158(15) 0.0046(12) -0.0008(12) 0.0057(13)
O8 O2- 0.0138(14) 0.0146(15) 0.0203(16) 0.0009(12) 0.0035(12) 0.0064(13)
O9 O2- 0.0266(18) 0.0179(16) 0.0238(16) 0.0042(13) 0.0053(14) 0.0109(14)
O10 O2- 0.0155(15) 0.0219(17) 0.0246(16) -0.0002(13) 0.0045(13) 0.0094(14)
O11 O2- 0.0151(15) 0.0236(17) 0.0198(15) 0.0031(13) 0.0008(12) 0.0085(13)
O12 O2- 0.0243(17) 0.0263(18) 0.0249(17) 0.0084(14) 0.0073(14) 0.0152(15)
O13 O2- 0.0222(16) 0.0189(16) 0.0224(16) 0.0054(13) 0.0055(13) 0.0092(13)
O14 O2- 0.0156(15) 0.0272(17) 0.0230(16) 0.0084(13) 0.0032(13) 0.0118(14)
O15 O2- 0.0196(16) 0.0258(17) 0.0241(16) 0.0036(13) 0.0105(13) 0.0105(14)
O16 O2- 0.0220(16) 0.0203(16) 0.0151(14) 0.0042(13) 0.0043(12) 0.0077(13)
O17 O2- 0.0186(16) 0.0191(16) 0.0203(16) 0.0063(13) 0.0027(13) 0.0059(13)
O18 O2- 0.0203(16) 0.0144(15) 0.0230(16) 0.0026(12) 0.0039(13) 0.0047(13)
O19 O2- 0.0180(16) 0.0270(17) 0.0213(16) 0.0058(13) 0.0086(13) 0.0116(14)
O20 O2- 0.0228(17) 0.0278(18) 0.0158(15) 0.0075(14) 0.0053(13) 0.0098(13)
O21 O2- 0.0284(19) 0.032(2) 0.041(2) 0.0037(16) 0.0098(16) 0.0231(18)
O22 O2- 0.037(2) 0.0295(19) 0.0253(18) 0.0068(16) -0.0011(16) 0.0158(16)
O23 O2- 0.030(2) 0.031(2) 0.045(2) 0.0004(16) 0.0136(18) 0.0193(18)
O24 O2- 0.0271(19) 0.047(2) 0.031(2) 0.0100(18) -0.0004(16) 0.0229(19)
O25 O2- 0.0291(19) 0.0264(18) 0.0291(18) 0.0146(15) 0.0127(15) 0.0092(15)
O26 O2- 0.037(2) 0.0286(19) 0.0288(18) 0.0116(16) 0.0206(16) 0.0118(16)
O27 O2- 0.0295(19) 0.0232(17) 0.0261(17) 0.0105(15) 0.0111(15) 0.0066(15)
O28 O2- 0.033(2) 0.0312(19) 0.0232(17) 0.0113(16) 0.0148(15) 0.0106(15)
Na1 Na1+ 0.0480(15) 0.0509(16) 0.0485(15) 0.0167(13) 0.0186(12) 0.0221(13)
Na2 Na1+ 0.0304(11) 0.0389(12) 0.0376(12) 0.0086(10) 0.0122(9) 0.0197(10)
Na3 Na1+ 0.0295(11) 0.0377(12) 0.0356(11) 0.0112(9) 0.0118(9) 0.0174(10)
Na4 Na1+ 0.0568(18) 0.0624(19) 0.069(2) 0.0180(15) 0.0069(15) 0.0364(17)
Na5 Na1+ 0.099(3) 0.0371(16) 0.075(2) -0.0069(16) -0.040(2) 0.0309(16)
O29 O2- 0.125(5) 0.074(4) 0.058(3) 0.052(4) 0.054(4) 0.047(3)
O30 O2- 0.054(3) 0.123(5) 0.067(3) 0.032(3) 0.036(3) 0.065(4)
O31 O2- 0.060(3) 0.075(4) 0.053(3) 0.012(3) 0.016(3) 0.026(3)
O32 O2- 0.052(4) 0.173(8) 0.088(5) 0.032(4) 0.042(3) 0.075(5)
O33 O2- 0.031(2) 0.053(3) 0.047(2) 0.015(2) 0.0192(19) 0.024(2)
O34 O2- 0.028(2) 0.044(2) 0.050(2) 0.0151(18) 0.0182(18) 0.030(2)
O35 O2- 0.038(2) 0.062(3) 0.050(3) 0.016(2) 0.016(2) 0.039(2)
O36 O2- 0.028(2) 0.029(2) 0.046(2) 0.0045(16) 0.0084(18) 0.0064(18)
O37 O2- 0.023(2) 0.052(3) 0.063(3) 0.0109(19) 0.015(2) 0.029(2)
O38 O2- 0.0217(17) 0.0280(19) 0.0314(19) 0.0062(15) 0.0065(15) 0.0090(16)
O39 O2- 0.036(2) 0.055(3) 0.040(2) 0.009(2) 0.015(2) 0.004(2)
O40 O2- 0.030(2) 0.057(3) 0.050(3) -0.003(2) 0.015(2) -0.012(2)
O41 O2- 0.027(2) 0.035(2) 0.040(2) 0.0108(17) 0.0077(17) 0.0138(18)
O42 O2- 0.031(2) 0.070(3) 0.051(3) 0.012(2) 0.014(2) 0.026(3)
O43 O2- 0.132(7) 0.065(4) 0.114(6) 0.042(4) 0.055(5) 0.049(4)
O44 O2- 0.075(4) 0.079(5) 0.108(5) -0.003(4) 0.001(4) 0.060(4)
O45 O2- 0.098(5) 0.089(5) 0.062(4) 0.037(4) 0.002(4) 0.021(4)
O46 O2- 0.052(3) 0.038(3) 0.054(3) -0.002(2) 0.006(2) 0.010(2)
O47 O2- 0.048(3) 0.046(3) 0.056(3) 0.012(2) 0.003(2) 0.025(2)
O48 O2- 0.083(4) 0.059(3) 0.076(4) 0.033(3) 0.027(3) 0.051(3)
O49 O2- 0.064(4) 0.058(3) 0.080(4) 0.015(3) 0.012(3) 0.034(3)
#End of TTdata_418364-ICSD