
#(C) 2019 by FIZ Karlsruhe - Leibniz Institute for Information Infrastructure.  All rights reserved.
data_418444-ICSD
_database_code_ICSD 418444
_audit_creation_date 2009-08-01
_chemical_name_systematic 'Sodium potassium alumosilicate *'
_chemical_formula_structural 'Na3 (K0.57 Na0.24) (Al3.84 Si4.16 O16)'
_chemical_formula_sum 'Al3.84 K0.57 Na3.24 O16 Si4.16'
_chemical_name_structure_type KNa3Al4(SiO4)4
_chemical_name_mineral Nepheline
_exptl_crystal_density_diffrn 2.64
_cell_measurement_temperature 110.
_publ_section_title
'The mechanism of coupling in the modulated structure of nepheline'
loop_
_citation_id
_citation_journal_full
_citation_year
_citation_journal_volume
_citation_page_first
_citation_page_last
_citation_journal_id_ASTM
primary 'Canadian Mineralogist' 2008 46 1465 1476 CAMIA6
loop_
_publ_author_name
'Angel, R.J.'
'Gatta, G.D.'
'Boffa Ballaran, T.'
'Carpenter, M.A.'
_cell_length_a 9.9820(5)
_cell_length_b 9.9820(5)
_cell_length_c 8.3670(6)
_cell_angle_alpha 90.
_cell_angle_beta 90.
_cell_angle_gamma 120.
_cell_volume 722.
_cell_formula_units_Z 2
_symmetry_space_group_name_H-M 'P 63'
_symmetry_Int_Tables_number 173
_refine_ls_R_factor_all 0.0337
loop_
_symmetry_equiv_pos_site_id
_symmetry_equiv_pos_as_xyz
1 'x-y, x, z+1/2'
2 'y, -x+y, z+1/2'
3 '-x, -y, z+1/2'
4 '-x+y, -x, z'
5 '-y, x-y, z'
6 'x, y, z'
loop_
_atom_type_symbol
_atom_type_oxidation_number
K1+ 1
Na1+ 1
Al3+ 3
Si4+ 4
Al3+ 3
Si4+ 4
O2- -2
loop_
_atom_site_label
_atom_site_type_symbol
_atom_site_symmetry_multiplicity
_atom_site_Wyckoff_symbol
_atom_site_fract_x
_atom_site_fract_y
_atom_site_fract_z
_atom_site_B_iso_or_equiv
_atom_site_occupancy
_atom_site_attached_hydrogens
K1 K1+ 2 a 0 0 0.0031(4) 0.024(1) 0.57 0
Na1 Na1+ 2 a 0 0 0.0031(4) 0.024(1) 0.24 0
Na2 Na1+ 6 c 0.5547(1) 0.9971(1) 0.5082(3) 0.017(1) 1. 0
Al1 Al3+ 2 b 0.6667 0.3333 0.7014(2) 0.010(1) 0.96 0
Si1 Si4+ 2 b 0.6667 0.3333 0.7014(2) 0.010(1) 0.04 0
Si2 Si4+ 2 b 0.6667 0.3333 0.3137(2) 0.012(1) 1. 0
Si3 Si4+ 6 c 0.9064(1) 0.6660(1) 0.8222(1) 0.012(1) 1. 0
Al2 Al3+ 6 c 0.9071(1) 0.6672(1) 0.1959(1) 0.010(1) 0.96 0
Si4 Si4+ 6 c 0.9071(1) 0.6672(1) 0.1959(1) 0.010(1) 0.04 0
O1 O2- 6 c 0.6611(12) 0.2825(8) 0.5005(12) 0.024(1) 0.333 0
O2 O2- 6 c 0.9734(2) 0.6822(3) 0.0022(5) 0.034(1) 1. 0
O3 O2- 6 c 0.8270(4) 0.4774(3) 0.2518(7) 0.038(1) 1. 0
O4 O2- 6 c 0.8374(4) 0.4891(3) 0.7613(6) 0.032(1) 1. 0
O5 O2- 6 c 0.7736(3) 0.7143(3) 0.8253(4) 0.016(1) 1. 0
O6 O2- 6 c 0.7765(3) 0.7329(3) 0.2012(5) 0.018(1) 1. 0
#End of TTdata_418444-ICSD