
#(C) 2019 by FIZ Karlsruhe - Leibniz Institute for Information Infrastructure.  All rights reserved.
data_418456-ICSD
_database_code_ICSD 418456
_audit_creation_date 2008-08-01
_chemical_name_systematic 'Lithium sodium barium nitride (6/10/14/6)'
_chemical_formula_structural 'Li5 Na10 Ba14 Li N6'
_chemical_formula_sum 'Ba14 Li6 N6 Na10'
_chemical_name_structure_type Li4Na11Ba14LiN6
_exptl_crystal_density_diffrn 2.68
_cell_measurement_temperature 293.
_publ_section_title
'Li(x) Na(y) Ba14 Li N6: New representatives of the subnitride family'
loop_
_citation_id
_citation_journal_full
_citation_year
_citation_journal_volume
_citation_page_first
_citation_page_last
_citation_journal_id_ASTM
primary 'Zeitschrift fuer Anorganische und Allgemeine Chemie (1950) (DE)' 2008
634 629 632 ZAACAB
loop_
_publ_author_name
'Smetana, V.'
'Babizhet'sky, V. (Babizhetskii, V.)'
'Simon, A.'
_cell_length_a 17.799(1)
_cell_length_b 17.799(1)
_cell_length_c 17.799(1)
_cell_angle_alpha 90.
_cell_angle_beta 90.
_cell_angle_gamma 90.
_cell_volume 5638.8
_cell_formula_units_Z 4
_symmetry_space_group_name_H-M 'F -4 3 m'
_symmetry_Int_Tables_number 216
_refine_ls_R_factor_all 0.0394
loop_
_symmetry_equiv_pos_site_id
_symmetry_equiv_pos_as_xyz
1 '-z, -y, x'
2 '-y, -x, z'
3 '-x, -z, y'
4 '-z, -x, y'
5 '-y, -z, x'
6 '-x, -y, z'
7 '-z, y, -x'
8 '-y, x, -z'
9 '-x, z, -y'
10 '-z, x, -y'
11 '-y, z, -x'
12 '-x, y, -z'
13 'z, -y, -x'
14 'y, -x, -z'
15 'x, -z, -y'
16 'z, -x, -y'
17 'y, -z, -x'
18 'x, -y, -z'
19 'z, y, x'
20 'y, x, z'
21 'x, z, y'
22 'z, x, y'
23 'y, z, x'
24 'x, y, z'
25 '-z, -y+1/2, x+1/2'
26 '-y, -x+1/2, z+1/2'
27 '-x, -z+1/2, y+1/2'
28 '-z, -x+1/2, y+1/2'
29 '-y, -z+1/2, x+1/2'
30 '-x, -y+1/2, z+1/2'
31 '-z, y+1/2, -x+1/2'
32 '-y, x+1/2, -z+1/2'
33 '-x, z+1/2, -y+1/2'
34 '-z, x+1/2, -y+1/2'
35 '-y, z+1/2, -x+1/2'
36 '-x, y+1/2, -z+1/2'
37 'z, -y+1/2, -x+1/2'
38 'y, -x+1/2, -z+1/2'
39 'x, -z+1/2, -y+1/2'
40 'z, -x+1/2, -y+1/2'
41 'y, -z+1/2, -x+1/2'
42 'x, -y+1/2, -z+1/2'
43 'z, y+1/2, x+1/2'
44 'y, x+1/2, z+1/2'
45 'x, z+1/2, y+1/2'
46 'z, x+1/2, y+1/2'
47 'y, z+1/2, x+1/2'
48 'x, y+1/2, z+1/2'
49 '-z+1/2, -y, x+1/2'
50 '-y+1/2, -x, z+1/2'
51 '-x+1/2, -z, y+1/2'
52 '-z+1/2, -x, y+1/2'
53 '-y+1/2, -z, x+1/2'
54 '-x+1/2, -y, z+1/2'
55 '-z+1/2, y, -x+1/2'
56 '-y+1/2, x, -z+1/2'
57 '-x+1/2, z, -y+1/2'
58 '-z+1/2, x, -y+1/2'
59 '-y+1/2, z, -x+1/2'
60 '-x+1/2, y, -z+1/2'
61 'z+1/2, -y, -x+1/2'
62 'y+1/2, -x, -z+1/2'
63 'x+1/2, -z, -y+1/2'
64 'z+1/2, -x, -y+1/2'
65 'y+1/2, -z, -x+1/2'
66 'x+1/2, -y, -z+1/2'
67 'z+1/2, y, x+1/2'
68 'y+1/2, x, z+1/2'
69 'x+1/2, z, y+1/2'
70 'z+1/2, x, y+1/2'
71 'y+1/2, z, x+1/2'
72 'x+1/2, y, z+1/2'
73 '-z+1/2, -y+1/2, x'
74 '-y+1/2, -x+1/2, z'
75 '-x+1/2, -z+1/2, y'
76 '-z+1/2, -x+1/2, y'
77 '-y+1/2, -z+1/2, x'
78 '-x+1/2, -y+1/2, z'
79 '-z+1/2, y+1/2, -x'
80 '-y+1/2, x+1/2, -z'
81 '-x+1/2, z+1/2, -y'
82 '-z+1/2, x+1/2, -y'
83 '-y+1/2, z+1/2, -x'
84 '-x+1/2, y+1/2, -z'
85 'z+1/2, -y+1/2, -x'
86 'y+1/2, -x+1/2, -z'
87 'x+1/2, -z+1/2, -y'
88 'z+1/2, -x+1/2, -y'
89 'y+1/2, -z+1/2, -x'
90 'x+1/2, -y+1/2, -z'
91 'z+1/2, y+1/2, x'
92 'y+1/2, x+1/2, z'
93 'x+1/2, z+1/2, y'
94 'z+1/2, x+1/2, y'
95 'y+1/2, z+1/2, x'
96 'x+1/2, y+1/2, z'
loop_
_atom_type_symbol
_atom_type_oxidation_number
Ba0+ 0
Na0+ 0
N0+ 0
Li0+ 0
loop_
_atom_site_label
_atom_site_type_symbol
_atom_site_symmetry_multiplicity
_atom_site_Wyckoff_symbol
_atom_site_fract_x
_atom_site_fract_y
_atom_site_fract_z
_atom_site_B_iso_or_equiv
_atom_site_occupancy
_atom_site_attached_hydrogens
Ba1 Ba0+ 16 e 0.10315(9) 0.10315(9) 0.10315(9) 0.0273(6) 1 0
Ba2 Ba0+ 16 e 0.89715(9) 0.89715(9) 0.89715(9) 0.0280(7) 1 0
Ba3 Ba0+ 24 f 0.28650(5) 0. 0. 0.0397(3) 1 0
Na1 Na0+ 16 e 0.6691(8) 0.6691(8) 0.6691(8) 0.043(5) 1 0
Na2 Na0+ 24 g 0.0080(12) 0.25 0.25 0.050(3) 1 0
N1 N0+ 24 f 0.1468(6) 0. 0. 0.033(3) 1 0
Li1 Li0+ 4 a 0. 0. 0. 0.023(8) 1 0
Li2 Li0+ 4 b 0.5 0.5 0.5 0.026(9) 1 0
Li3 Li0+ 16 e 0.3251(17) 0.3251(17) 0.3251(17) 0.023(8) 1 0
loop_
_atom_site_aniso_label
_atom_site_aniso_type_symbol
_atom_site_aniso_U_11
_atom_site_aniso_U_22
_atom_site_aniso_U_33
_atom_site_aniso_U_12
_atom_site_aniso_U_13
_atom_site_aniso_U_23
Ba1 Ba0+ 0.0273(6) 0.0273(6) 0.0273(6) -0.0026(6) -0.0026(6) -0.0026(6)
Ba2 Ba0+ 0.0280(7) 0.0280(7) 0.0280(7) -0.0024(7) -0.0024(7) -0.0024(7)
Ba3 Ba0+ 0.0287(4) 0.0452(3) 0.0452(3) 0. 0. 0.0040(14)
Na1 Na0+ 0.043(5) 0.043(5) 0.043(5) 0.014(5) 0.014(5) 0.014(5)
Na2 Na0+ 0.036(9) 0.057(3) 0.057(3) 0. 0. -0.021(3)
N1 N0+ 0.027(4) 0.036(4) 0.036(4) 0. 0. 0.029(9)
Li1 Li0+ 0.023(8) 0.023(8) 0.023(8) 0. 0. 0.
Li2 Li0+ 0.026(9) 0.026(9) 0.026(9) 0. 0. 0.
Li3 Li0+ 0.023(8) 0.023(8) 0.023(8) -0.004(7) -0.004(7) -0.004(7)
#End of TTdata_418456-ICSD