
#(C) 2019 by FIZ Karlsruhe - Leibniz Institute for Information Infrastructure.  All rights reserved.
data_418494-ICSD
_database_code_ICSD 418494
_audit_creation_date 2008-08-01
_chemical_name_systematic 'Tristrontium sodium niobate - brown'
_chemical_formula_structural 'Sr3 Na (Nb O6)'
_chemical_formula_sum 'Na1 Nb1 O6 Sr3'
_chemical_name_structure_type K4CdCl6
_exptl_crystal_density_diffrn 4.91
_cell_measurement_temperature 298.
_publ_section_title
'Crystal growth of Sr3 Na Nb O6 and Sr3 Na Ta O6: new photoluminescent oxides'
loop_
_citation_id
_citation_journal_full
_citation_year
_citation_journal_volume
_citation_page_first
_citation_page_last
_citation_journal_id_ASTM
primary 'Chemistry of Materials' 2008 20 2268 2273 CMATEX
loop_
_publ_author_name
'Bharathy, M.'
'Rassolov, V.A.'
'zur Loye, H.C.'
_cell_length_a 9.7853(12)
_cell_length_b 9.7853(12)
_cell_length_c 11.606(3)
_cell_angle_alpha 90.
_cell_angle_beta 90.
_cell_angle_gamma 120.
_cell_volume 962.41
_cell_formula_units_Z 6
_symmetry_space_group_name_H-M 'R -3 c H'
_symmetry_Int_Tables_number 167
_refine_ls_R_factor_all 0.0264
loop_
_symmetry_equiv_pos_site_id
_symmetry_equiv_pos_as_xyz
1 'x-y, -y, -z+1/2'
2 '-x, -x+y, -z+1/2'
3 'y, x, -z+1/2'
4 'x-y, x, -z'
5 'y, -x+y, -z'
6 '-x, -y, -z'
7 '-x+y, y, z+1/2'
8 'x, x-y, z+1/2'
9 '-y, -x, z+1/2'
10 '-x+y, -x, z'
11 '-y, x-y, z'
12 'x, y, z'
13 'x-y+2/3, -y+1/3, -z+5/6'
14 '-x+2/3, -x+y+1/3, -z+5/6'
15 'y+2/3, x+1/3, -z+5/6'
16 'x-y+2/3, x+1/3, -z+1/3'
17 'y+2/3, -x+y+1/3, -z+1/3'
18 '-x+2/3, -y+1/3, -z+1/3'
19 '-x+y+2/3, y+1/3, z+5/6'
20 'x+2/3, x-y+1/3, z+5/6'
21 '-y+2/3, -x+1/3, z+5/6'
22 '-x+y+2/3, -x+1/3, z+1/3'
23 '-y+2/3, x-y+1/3, z+1/3'
24 'x+2/3, y+1/3, z+1/3'
25 'x-y+1/3, -y+2/3, -z+1/6'
26 '-x+1/3, -x+y+2/3, -z+1/6'
27 'y+1/3, x+2/3, -z+1/6'
28 'x-y+1/3, x+2/3, -z+2/3'
29 'y+1/3, -x+y+2/3, -z+2/3'
30 '-x+1/3, -y+2/3, -z+2/3'
31 '-x+y+1/3, y+2/3, z+1/6'
32 'x+1/3, x-y+2/3, z+1/6'
33 '-y+1/3, -x+2/3, z+1/6'
34 '-x+y+1/3, -x+2/3, z+2/3'
35 '-y+1/3, x-y+2/3, z+2/3'
36 'x+1/3, y+2/3, z+2/3'
loop_
_atom_type_symbol
_atom_type_oxidation_number
Nb5+ 5
Sr2+ 2
Na1+ 1
O2- -2
loop_
_atom_site_label
_atom_site_type_symbol
_atom_site_symmetry_multiplicity
_atom_site_Wyckoff_symbol
_atom_site_fract_x
_atom_site_fract_y
_atom_site_fract_z
_atom_site_B_iso_or_equiv
_atom_site_occupancy
_atom_site_attached_hydrogens
Nb1 Nb5+ 6 b 0. 0. 0.5 0.00411(13) 1 0
Sr1 Sr2+ 18 e 0.01910(3) 0.3333 0.5833 0.00632(11) 1 0
Na1 Na1+ 6 a 0. 0. 0.25 0.0108(5) 1 0
O1 O2- 36 f 0.15391(19) -0.0249(2) 0.40123(16) 0.0084(3) 1 0
loop_
_atom_site_aniso_label
_atom_site_aniso_type_symbol
_atom_site_aniso_U_11
_atom_site_aniso_U_22
_atom_site_aniso_U_33
_atom_site_aniso_U_12
_atom_site_aniso_U_13
_atom_site_aniso_U_23
Nb1 Nb5+ 0.00340(14) 0.00340(14) 0.0055(2) 0.00170(7) 0. 0.
Sr1 Sr2+ 0.00610(13) 0.00543(15) 0.0072(2) 0.00272(7) -0.00052(4) -0.00104(8)
Na1 Na1+ 0.0117(7) 0.0117(7) 0.0089(12) 0.0059(4) 0. 0.
O1 O2- 0.0070(7) 0.0110(8) 0.0085(8) 0.0057(6) 0.0010(6) -0.0003(6)
#End of TTdata_418494-ICSD