
#(C) 2019 by FIZ Karlsruhe - Leibniz Institute for Information Infrastructure.  All rights reserved.
data_418765-ICSD
_database_code_ICSD 418765
_audit_creation_date 2008-08-01
_audit_update_record 2019-02-01
_chemical_name_systematic 'Lithium sodium barium nitride (26/58/38/1)'
_chemical_formula_structural 'Li26 Na58 Ba38 N'
_chemical_formula_sum 'Ba38 Li26 N1 Na58'
_chemical_name_structure_type Ba38Li26Na58N
_exptl_crystal_density_diffrn 2.15
_cell_measurement_temperature 293.
_publ_section_title

;
Preparation and crystal structures of Li26 Na58 Ba38 E(x) phases (E = N, H; x
= 0 - 1)
;
loop_
_citation_id
_citation_journal_full
_citation_year
_citation_journal_volume
_citation_page_first
_citation_page_last
_citation_journal_id_ASTM
primary 'Zeitschrift fuer Anorganische und Allgemeine Chemie (1950) (DE)' 2008
634 849 852 ZAACAB
loop_
_publ_author_name
'Smetana, V.'
'Babizhet'sky, V. (Babizhetskii, V.)'
'Vajenine, G.V.'
'Simon, A.'
_cell_length_a 27.528(2)
_cell_length_b 27.528(2)
_cell_length_c 27.528(2)
_cell_angle_alpha 90.
_cell_angle_beta 90.
_cell_angle_gamma 90.
_cell_volume 20860.46
_cell_formula_units_Z 4
_symmetry_space_group_name_H-M 'F -4 3 m'
_symmetry_Int_Tables_number 216
_refine_ls_R_factor_all 0.0433
loop_
_symmetry_equiv_pos_site_id
_symmetry_equiv_pos_as_xyz
1 '-z, -y, x'
2 '-y, -x, z'
3 '-x, -z, y'
4 '-z, -x, y'
5 '-y, -z, x'
6 '-x, -y, z'
7 '-z, y, -x'
8 '-y, x, -z'
9 '-x, z, -y'
10 '-z, x, -y'
11 '-y, z, -x'
12 '-x, y, -z'
13 'z, -y, -x'
14 'y, -x, -z'
15 'x, -z, -y'
16 'z, -x, -y'
17 'y, -z, -x'
18 'x, -y, -z'
19 'z, y, x'
20 'y, x, z'
21 'x, z, y'
22 'z, x, y'
23 'y, z, x'
24 'x, y, z'
25 '-z, -y+1/2, x+1/2'
26 '-y, -x+1/2, z+1/2'
27 '-x, -z+1/2, y+1/2'
28 '-z, -x+1/2, y+1/2'
29 '-y, -z+1/2, x+1/2'
30 '-x, -y+1/2, z+1/2'
31 '-z, y+1/2, -x+1/2'
32 '-y, x+1/2, -z+1/2'
33 '-x, z+1/2, -y+1/2'
34 '-z, x+1/2, -y+1/2'
35 '-y, z+1/2, -x+1/2'
36 '-x, y+1/2, -z+1/2'
37 'z, -y+1/2, -x+1/2'
38 'y, -x+1/2, -z+1/2'
39 'x, -z+1/2, -y+1/2'
40 'z, -x+1/2, -y+1/2'
41 'y, -z+1/2, -x+1/2'
42 'x, -y+1/2, -z+1/2'
43 'z, y+1/2, x+1/2'
44 'y, x+1/2, z+1/2'
45 'x, z+1/2, y+1/2'
46 'z, x+1/2, y+1/2'
47 'y, z+1/2, x+1/2'
48 'x, y+1/2, z+1/2'
49 '-z+1/2, -y, x+1/2'
50 '-y+1/2, -x, z+1/2'
51 '-x+1/2, -z, y+1/2'
52 '-z+1/2, -x, y+1/2'
53 '-y+1/2, -z, x+1/2'
54 '-x+1/2, -y, z+1/2'
55 '-z+1/2, y, -x+1/2'
56 '-y+1/2, x, -z+1/2'
57 '-x+1/2, z, -y+1/2'
58 '-z+1/2, x, -y+1/2'
59 '-y+1/2, z, -x+1/2'
60 '-x+1/2, y, -z+1/2'
61 'z+1/2, -y, -x+1/2'
62 'y+1/2, -x, -z+1/2'
63 'x+1/2, -z, -y+1/2'
64 'z+1/2, -x, -y+1/2'
65 'y+1/2, -z, -x+1/2'
66 'x+1/2, -y, -z+1/2'
67 'z+1/2, y, x+1/2'
68 'y+1/2, x, z+1/2'
69 'x+1/2, z, y+1/2'
70 'z+1/2, x, y+1/2'
71 'y+1/2, z, x+1/2'
72 'x+1/2, y, z+1/2'
73 '-z+1/2, -y+1/2, x'
74 '-y+1/2, -x+1/2, z'
75 '-x+1/2, -z+1/2, y'
76 '-z+1/2, -x+1/2, y'
77 '-y+1/2, -z+1/2, x'
78 '-x+1/2, -y+1/2, z'
79 '-z+1/2, y+1/2, -x'
80 '-y+1/2, x+1/2, -z'
81 '-x+1/2, z+1/2, -y'
82 '-z+1/2, x+1/2, -y'
83 '-y+1/2, z+1/2, -x'
84 '-x+1/2, y+1/2, -z'
85 'z+1/2, -y+1/2, -x'
86 'y+1/2, -x+1/2, -z'
87 'x+1/2, -z+1/2, -y'
88 'z+1/2, -x+1/2, -y'
89 'y+1/2, -z+1/2, -x'
90 'x+1/2, -y+1/2, -z'
91 'z+1/2, y+1/2, x'
92 'y+1/2, x+1/2, z'
93 'x+1/2, z+1/2, y'
94 'z+1/2, x+1/2, y'
95 'y+1/2, z+1/2, x'
96 'x+1/2, y+1/2, z'
loop_
_atom_type_symbol
_atom_type_oxidation_number
Ba0+ 0
Na0+ 0
Li0+ 0
N0+ 0
loop_
_atom_site_label
_atom_site_type_symbol
_atom_site_symmetry_multiplicity
_atom_site_Wyckoff_symbol
_atom_site_fract_x
_atom_site_fract_y
_atom_site_fract_z
_atom_site_B_iso_or_equiv
_atom_site_occupancy
_atom_site_attached_hydrogens
Ba1 Ba0+ 4 a 0. 0. 1. 0.0331(5) 1 0
Ba2 Ba0+ 16 e 0.65588(3) 0.34412(3) 0.84412(3) 0.0337(2) 1 0
Ba3 Ba0+ 4 c 0.75 0.25 0.75 0.0383(6) 1 0
Ba4 Ba0+ 48 h 0.45864(3) 0.157608(19) 0.842392(19) 0.03478(16) 1 0
Ba5 Ba0+ 16 e 0.90698(4) 0.40698(4) 0.90698(4) 0.0602(4) 1 0
Ba6 Ba0+ 48 h 0.688229(18) 0.311771(18) 1.00227(3) 0.03305(16) 1 0
Ba7 Ba0+ 16 e 0.59400(3) 0.40600(3) 1.09400(3) 0.0336(3) 1 0
Na1 Na0+ 48 h 0.54706(17) 0.45294(17) 0.8601(2) 0.0520(14) 1 0
Na2 Na0+ 48 h 0.6052(2) 0.20402(16) 0.79598(16) 0.0487(14) 1 0
Na3 Na0+ 48 h 0.57827(17) 0.07827(17) 0.7643(2) 0.0549(15) 1 0
Na4 Na0+ 16 e 0.4504(2) 0.0496(2) 0.9504(2) 0.048(2) 1 0
Na5 Na0+ 24 f 0.5 0.1595(3) 1. 0.061(2) 1 0
Na6 Na0+ 48 h 0.45021(18) 0.45021(18) 0.7679(2) 0.0543(15) 1 0
Li1 Li0+ 24 g 0.75 0.25 1.1105(11) 0.039(7) 1 0
Li2 Li0+ 48 h 0.3654(4) 0.3654(4) 0.7744(7) 0.026(4) 1 0
Li3 Li0+ 16 e 0.3190(11) 0.1810(11) 0.8190(11) 0.048(9) 1 0
Li4 Li0+ 16 e 0.2903(8) 0.2903(8) 0.7903(8) 0.054(10) 1 0
N1 N0+ 4 d 0.25 0.25 0.75 0.020(6) 1 0
loop_
_atom_site_aniso_label
_atom_site_aniso_type_symbol
_atom_site_aniso_U_11
_atom_site_aniso_U_22
_atom_site_aniso_U_33
_atom_site_aniso_U_12
_atom_site_aniso_U_13
_atom_site_aniso_U_23
Ba1 Ba0+ 0.0331(5) 0.0331(5) 0.0331(5) 0. 0. 0.
Ba2 Ba0+ 0.0337(2) 0.0337(2) 0.0337(2) -0.0009(3) -0.0009(3) 0.0009(3)
Ba3 Ba0+ 0.0383(6) 0.0383(6) 0.0383(6) 0. 0. 0.
Ba4 Ba0+ 0.0347(3) 0.0348(2) 0.0348(2) -0.0029(2) 0.0029(2) 0.0016(3)
Ba5 Ba0+ 0.0602(4) 0.0602(4) 0.0602(4) 0.0019(5) 0.0019(5) 0.0019(5)
Ba6 Ba0+ 0.0326(2) 0.0326(2) 0.0340(3) 0.0012(3) 0.0001(2) -0.0001(2)
Ba7 Ba0+ 0.0336(3) 0.0336(3) 0.0336(3) -0.0008(3) 0.0008(3) -0.0008(3)
Na1 Na0+ 0.0516(19) 0.0516(19) 0.053(3) 0.000(3) 0.0008(18) -0.0008(18)
Na2 Na0+ 0.058(3) 0.0441(18) 0.0441(18) 0.0016(19) -0.0016(19) -0.004(2)
Na3 Na0+ 0.058(2) 0.058(2) 0.049(3) -0.004(3) 0.0020(19) 0.0020(19)
Na4 Na0+ 0.048(2) 0.048(2) 0.048(2) 0.003(2) -0.003(2) 0.003(2)
Na5 Na0+ 0.066(3) 0.052(4) 0.066(3) 0. 0.003(5) 0.
Na6 Na0+ 0.057(2) 0.057(2) 0.050(3) 0.004(3) 0.005(2) 0.005(2)
Li1 Li0+ 0.039(9) 0.039(9) 0.037(15) -0.020(13) 0. 0.
Li2 Li0+ 0.026(5) 0.026(5) 0.027(8) -0.009(7) -0.003(5) -0.003(5)
Li3 Li0+ 0.048(9) 0.048(9) 0.048(9) -0.020(12) 0.020(12) -0.020(12)
Li4 Li0+ 0.054(10) 0.054(10) 0.054(10) -0.016(10) -0.016(10) -0.016(10)
N1 N0+ 0.020(6) 0.020(6) 0.020(6) 0. 0. 0.
#End of TTdata_418765-ICSD