
#(C) 2019 by FIZ Karlsruhe - Leibniz Institute for Information Infrastructure.  All rights reserved.
data_418990-ICSD
_database_code_ICSD 418990
_audit_creation_date 2009-02-01
_chemical_name_systematic 'Distrontium sodium rhenate(VII)'
_chemical_formula_structural 'Sr2 Na (Re O6)'
_chemical_formula_sum 'Na1 O6 Re1 Sr2'
_chemical_name_mineral 'Perovskite, double'
_exptl_crystal_density_diffrn 6.03
_cell_measurement_temperature 298.
_publ_section_title

;
Crystal growth and structural investigation of A2 B Re O6 (A = Sr, Ba; B = Li,
Na)
;
loop_
_citation_id
_citation_journal_full
_citation_year
_citation_journal_volume
_citation_page_first
_citation_page_last
_citation_journal_id_ASTM
primary 'Journal of Solid State Chemistry' 2008 181 2789 2795 JSSCBI
loop_
_publ_author_name
'Bharathy, M.'
'zur Loye, H.C.'
_cell_length_a 5.6737(6)
_cell_length_b 5.7988(6)
_cell_length_c 8.0431(8)
_cell_angle_alpha 90
_cell_angle_beta 90.0200(6)
_cell_angle_gamma 90
_cell_volume 264.62
_cell_formula_units_Z 2
_symmetry_space_group_name_H-M 'P 1 21/n 1'
_symmetry_Int_Tables_number 14
_refine_ls_R_factor_all 0.0453
loop_
_symmetry_equiv_pos_site_id
_symmetry_equiv_pos_as_xyz
1 '-x+1/2, y+1/2, -z+1/2'
2 '-x, -y, -z'
3 'x+1/2, -y+1/2, z+1/2'
4 'x, y, z'
loop_
_atom_type_symbol
_atom_type_oxidation_number
Re7+ 7
Sr2+ 2
Na1+ 1
O2- -2
loop_
_atom_site_label
_atom_site_type_symbol
_atom_site_symmetry_multiplicity
_atom_site_Wyckoff_symbol
_atom_site_fract_x
_atom_site_fract_y
_atom_site_fract_z
_atom_site_B_iso_or_equiv
_atom_site_occupancy
_atom_site_attached_hydrogens
Re1 Re7+ 2 a 0. 0. 0. 0.00787(16) 1 0
Sr1 Sr2+ 4 e 0.5006(2) 0.0448(2) 0.24836(14) 0.0141(2) 1 0
Na1 Na1+ 2 b 0. 0. -0.5 0.0182(17) 1 0
O1 O2- 4 e 0.074(4) 0.022(4) -0.224(2) 0.013(4) 0.39 0
O2 O2- 4 e 0.261(3) -0.184(4) 0.038(2) 0.011(3) 0.43 0
O3 O2- 4 e 0.176(3) 0.261(3) 0.0458(18) 0.010(3) 0.49 0
O4 O2- 4 e -0.076(3) 0.030(3) -0.227(3) 0.027(3) 0.62 0
O5 O2- 4 e 0.178(3) -0.273(4) -0.043(3) 0.021(4) 0.5 0
O6 O2- 4 e 0.265(3) 0.183(3) -0.031(3) 0.026(4) 0.57 0
loop_
_atom_site_aniso_label
_atom_site_aniso_type_symbol
_atom_site_aniso_U_11
_atom_site_aniso_U_22
_atom_site_aniso_U_33
_atom_site_aniso_U_12
_atom_site_aniso_U_13
_atom_site_aniso_U_23
Re1 Re7+ 0.0090(2) 0.0082(2) 0.0064(2) -0.00290(14) 0.00030(15) -0.00033(15)
Sr1 Sr2+ 0.0169(4) 0.0139(4) 0.0115(4) 0.0004(3) 0.0005(3) -0.0012(3)
Na1 Na1+ 0.025(3) 0.023(4) 0.007(2) -0.001(3) -0.002(2) -0.002(2)
O1 O2- 0.017(9) 0.020(9) 0.006(6) -0.006(7) 0.002(6) 0.005(6)
O2 O2- 0.023(6) 0.019(9) 0.031(6) -0.001(6) -0.002(5) -0.006(6)
O3 O2- 0.017(6) 0.013(6) 0.004(5) -0.001(5) -0.002(5) 0.003(5)
O4 O2- 0.021(7) 0.029(8) 0.031(9) -0.006(6) 0.007(6) 0.002(7)
O5 O2- 0.009(6) 0.019(8) 0.036(11) -0.001(6) 0.010(6) 0.004(7)
O6 O2- 0.009(6) 0.013(6) 0.037(13) -0.003(5) 0.016(7) -0.004(7)
#End of TTdata_418990-ICSD