
#(C) 2018 by FIZ Karlsruhe - Leibniz Institute for Information Infrastructure.  All rights reserved.
data_419059-ICSD
_database_code_ICSD 419059
_audit_creation_date 2009-02-01
_chemical_name_systematic 'Sodium lithium tetrathiodiarsenate(III)'
_chemical_formula_structural '(Na Li) As2 S4'
_chemical_formula_sum 'As2 Li1 Na1 S4'
_chemical_name_structure_type NaAsSe2
_exptl_crystal_density_diffrn 3.02
_cell_measurement_temperature 293.
_publ_section_title

;
Soluble Direct-Band-Gap semiconductors Li As S2 and Na As2 S2: Large
electronic structure effects from weak As...S interactions and strong
nonlinear optical response
;
loop_
_citation_id
_citation_journal_full
_citation_year
_citation_journal_volume
_citation_page_first
_citation_page_last
_citation_journal_id_ASTM
primary 'Angewandte Chemie, International Edition' 2008 47 7828 7832 ACIEF5
loop_
_publ_author_name
'Bera, T.K.'
'Song Jungh Wan'
'Freeman, A.J.'
'Jang, J.-I.'
'Ketterson, J.B.'
'Kanatzidis, M.G.'
_cell_length_a 11.0913(6)
_cell_length_b 5.4291(2)
_cell_length_c 22.5383(12)
_cell_angle_alpha 90.
_cell_angle_beta 90.
_cell_angle_gamma 90.
_cell_volume 1357.16
_cell_formula_units_Z 8
_symmetry_space_group_name_H-M 'P b c a'
_symmetry_Int_Tables_number 61
_refine_ls_R_factor_all 0.0391
loop_
_symmetry_equiv_pos_site_id
_symmetry_equiv_pos_as_xyz
1 'x+1/2, y, -z+1/2'
2 'x, -y+1/2, z+1/2'
3 '-x+1/2, y+1/2, z'
4 '-x, -y, -z'
5 '-x+1/2, -y, z+1/2'
6 '-x, y+1/2, -z+1/2'
7 'x+1/2, -y+1/2, -z'
8 'x, y, z'
loop_
_atom_type_symbol
_atom_type_oxidation_number
As3+ 3
S2- -2
Li1+ 1
Na1+ 1
Li1+ 1
Na1+ 1
loop_
_atom_site_label
_atom_site_type_symbol
_atom_site_symmetry_multiplicity
_atom_site_Wyckoff_symbol
_atom_site_fract_x
_atom_site_fract_y
_atom_site_fract_z
_atom_site_B_iso_or_equiv
_atom_site_occupancy
_atom_site_attached_hydrogens
As1 As3+ 8 c 0.14088(4) 0.28729(7) 0.111626(19) 0.00765(11) 1 0
As2 As3+ 8 c 0.14127(5) 0.23544(7) 0.360025(19) 0.00741(11) 1 0
S1 S2- 8 c 0.12525(14) 0.2148(2) 0.26395(5) 0.0137(3) 1 0
S2 S2- 8 c 0.34358(10) 0.15699(17) 0.37579(5) 0.0100(2) 1 0
S3 S2- 8 c 0.34323(11) 0.20934(16) 0.12749(5) 0.0096(2) 1 0
S4 S2- 8 c 0.12510(14) 0.26268(19) 0.01553(5) 0.0143(3) 1 0
Li1 Li1+ 8 c 0.3774(4) 0.2188(5) 0.24933(16) 0.0142(7) 0.5 0
Na1 Na1+ 8 c 0.3774(4) 0.2188(5) 0.24933(16) 0.0142(7) 0.5 0
Li2 Li1+ 8 c 0.3761(4) 0.2372(4) 0.49864(13) 0.0061(6) 0.5 0
Na2 Na1+ 8 c 0.3761(4) 0.2372(4) 0.49864(13) 0.0061(6) 0.5 0
loop_
_atom_site_aniso_label
_atom_site_aniso_type_symbol
_atom_site_aniso_U_11
_atom_site_aniso_U_22
_atom_site_aniso_U_33
_atom_site_aniso_U_12
_atom_site_aniso_U_13
_atom_site_aniso_U_23
As1 As3+ 0.0057(2) 0.00735(17) 0.0099(2) -0.00066(14) 0.00024(19) -0.00028(14)
As2 As3+ 0.0060(3) 0.00744(17) 0.0088(2) -0.00064(15) -0.00035(18) 0.00097(13)
S1 S2- 0.0142(7) 0.0175(5) 0.0094(5) 0.0000(4) -0.0027(5) -0.0005(3)
S2 S2- 0.0072(5) 0.0088(4) 0.0141(5) -0.0001(4) -0.0017(4) -0.0006(3)
S3 S2- 0.0058(5) 0.0076(4) 0.0155(5) -0.0004(4) -0.0016(4) -0.0016(3)
S4 S2- 0.0126(7) 0.0186(5) 0.0117(6) 0.0014(4) -0.0022(5) -0.0026(4)
Li1 Li1+ 0.016(2) 0.0115(12) 0.0153(16) 0.0003(12) 0.0023(14) 0.0014(11)
Na1 Na1+ 0.016(2) 0.0115(12) 0.0153(16) 0.0003(12) 0.0023(14) 0.0014(11)
Li2 Li1+ 0.0041(18) 0.0092(11) 0.0049(13) -0.0010(9) 0.0007(11) 0.0001(8)
Na2 Na1+ 0.0041(18) 0.0092(11) 0.0049(13) -0.0010(9) 0.0007(11) 0.0001(8)
#End of TTdata_419059-ICSD