
#(C) 2018 by FIZ Karlsruhe - Leibniz Institute for Information Infrastructure.  All rights reserved.
data_419061-ICSD
_database_code_ICSD 419061
_audit_creation_date 2009-02-01
_chemical_name_systematic 'Lithium catena-dithioarsenate(III)'
_chemical_formula_structural 'Li As S2'
_chemical_formula_sum 'As1 Li1 S2'
_chemical_name_structure_type LiAsS2
_exptl_crystal_density_diffrn 3.08
_cell_measurement_temperature 293.
_publ_section_title

;
Soluble Direct-Band-Gap semiconductors Li As S2 and Na As2 S2: Large
electronic structure effects from weak As...S interactions and strong
nonlinear optical response
;
loop_
_citation_id
_citation_journal_full
_citation_year
_citation_journal_volume
_citation_page_first
_citation_page_last
_citation_journal_id_ASTM
primary 'Angewandte Chemie, International Edition' 2008 47 7828 7832 ACIEF5
loop_
_publ_author_name
'Bera, T.K.'
'Song Jungh Wan'
'Freeman, A.J.'
'Jang, J.-I.'
'Ketterson, J.B.'
'Kanatzidis, M.G.'
_cell_length_a 11.847(4)
_cell_length_b 5.4076(10)
_cell_length_c 5.3508(18)
_cell_angle_alpha 90.
_cell_angle_beta 113.25(3)
_cell_angle_gamma 90.
_cell_volume 314.95
_cell_formula_units_Z 4
_symmetry_space_group_name_H-M 'C 1 c 1'
_symmetry_Int_Tables_number 9
_refine_ls_R_factor_all 0.0222
loop_
_symmetry_equiv_pos_site_id
_symmetry_equiv_pos_as_xyz
1 'x, -y, z+1/2'
2 'x, y, z'
3 'x+1/2, -y+1/2, z+1/2'
4 'x+1/2, y+1/2, z'
loop_
_atom_type_symbol
_atom_type_oxidation_number
As3+ 3
S2- -2
Li1+ 1
loop_
_atom_site_label
_atom_site_type_symbol
_atom_site_symmetry_multiplicity
_atom_site_Wyckoff_symbol
_atom_site_fract_x
_atom_site_fract_y
_atom_site_fract_z
_atom_site_B_iso_or_equiv
_atom_site_occupancy
_atom_site_attached_hydrogens
As1 As3+ 4 a 0.2217 0.27958(7) 0.6819 0.01056(11) 1 0
S1 S2- 4 a 0.52216(11) 0.2393(3) 0.0239(3) 0.0156(2) 1 0
S2 S2- 4 a 0.25961(11) 0.3029(2) 0.2870(3) 0.0122(2) 1 0
Li1 Li1+ 4 a 0.0001(11) 0.233(2) 0.001(2) 0.027(2) 1 0
loop_
_atom_site_aniso_label
_atom_site_aniso_type_symbol
_atom_site_aniso_U_11
_atom_site_aniso_U_22
_atom_site_aniso_U_33
_atom_site_aniso_U_12
_atom_site_aniso_U_13
_atom_site_aniso_U_23
As1 As3+ 0.01116(18) 0.01063(17) 0.0097(2) 0.0003(3) 0.00386(14) 0.0006(4)
S1 S2- 0.0126(5) 0.0181(5) 0.0160(6) 0.0019(5) 0.0056(4) -0.0003(5)
S2 S2- 0.0151(5) 0.0114(5) 0.0117(6) 0.0015(4) 0.0071(4) 0.0001(5)
Li1 Li1+ 0.039(7) 0.018(4) 0.023(6) 0.011(5) 0.013(5) 0.009(5)
#End of TTdata_419061-ICSD