
#(C) 2018 by FIZ Karlsruhe - Leibniz Institute for Information Infrastructure.  All rights reserved.
data_419137-ICSD
_database_code_ICSD 419137
_audit_creation_date 2009-02-01
_chemical_name_systematic 'Trilithium gallium dinitride'
_chemical_formula_structural 'Li3 Ga N2'
_chemical_formula_sum 'Ga1 Li3 N2'
_chemical_name_structure_type AlLi3N2
_exptl_crystal_density_diffrn 3.54
_cell_measurement_temperature 293.
_publ_section_title

;
Solvothermal processes for nitride synthesis: examples of Li3 Ga N2 and
graphitic C3 N4 elaboration
;
loop_
_citation_id
_citation_journal_full
_citation_year
_citation_journal_volume
_citation_page_first
_citation_page_last
_citation_journal_id_ASTM
primary 'Zeitschrift fuer Naturforschung, B: Chemical Sciences' 2008 63 730 738
ZNBSEN
loop_
_publ_author_name
'Goglio, G.'
'Denis, A.'
'Gaudin, E.'
'Labrugere, C.'
'Foy, D.'
'Largeteau, A.'
_cell_length_a 9.6149(3)
_cell_length_b 9.6149(3)
_cell_length_c 9.6149(3)
_cell_angle_alpha 90
_cell_angle_beta 90
_cell_angle_gamma 90
_cell_volume 888.86
_cell_formula_units_Z 16
_symmetry_space_group_name_H-M 'I a -3'
_symmetry_Int_Tables_number 206
_refine_ls_R_factor_all 0.0176
loop_
_symmetry_equiv_pos_site_id
_symmetry_equiv_pos_as_xyz
1 '-z, x, y+1/2'
2 'z, x+1/2, -y'
3 'z+1/2, -x, y'
4 '-z, -x, -y'
5 'y+1/2, -z, x'
6 '-y, z, x+1/2'
7 'y, z+1/2, -x'
8 '-y, -z, -x'
9 'x, y+1/2, -z'
10 'x+1/2, -y, z'
11 '-x, y, z+1/2'
12 '-x, -y, -z'
13 'z, -x, -y+1/2'
14 '-z, -x+1/2, y'
15 '-z+1/2, x, -y'
16 'z, x, y'
17 '-y+1/2, z, -x'
18 'y, -z, -x+1/2'
19 '-y, -z+1/2, x'
20 'y, z, x'
21 '-x, -y+1/2, z'
22 '-x+1/2, y, -z'
23 'x, -y, -z+1/2'
24 'x, y, z'
25 '-z+1/2, x+1/2, y'
26 'z+1/2, x, -y+1/2'
27 'z, -x+1/2, y+1/2'
28 '-z+1/2, -x+1/2, -y+1/2'
29 'y, -z+1/2, x+1/2'
30 '-y+1/2, z+1/2, x'
31 'y+1/2, z, -x+1/2'
32 '-y+1/2, -z+1/2, -x+1/2'
33 'x+1/2, y, -z+1/2'
34 'x, -y+1/2, z+1/2'
35 '-x+1/2, y+1/2, z'
36 '-x+1/2, -y+1/2, -z+1/2'
37 'z+1/2, -x+1/2, -y'
38 '-z+1/2, -x, y+1/2'
39 '-z, x+1/2, -y+1/2'
40 'z+1/2, x+1/2, y+1/2'
41 '-y, z+1/2, -x+1/2'
42 'y+1/2, -z+1/2, -x'
43 '-y+1/2, -z, x+1/2'
44 'y+1/2, z+1/2, x+1/2'
45 '-x+1/2, -y, z+1/2'
46 '-x, y+1/2, -z+1/2'
47 'x+1/2, -y+1/2, -z'
48 'x+1/2, y+1/2, z+1/2'
loop_
_atom_type_symbol
_atom_type_oxidation_number
N3- -3
Ga3+ 3
Li1+ 1
loop_
_atom_site_label
_atom_site_type_symbol
_atom_site_symmetry_multiplicity
_atom_site_Wyckoff_symbol
_atom_site_fract_x
_atom_site_fract_y
_atom_site_fract_z
_atom_site_B_iso_or_equiv
_atom_site_occupancy
_atom_site_attached_hydrogens
N1 N3- 8 a 0 0 0 0.0038 1 0
N2 N3- 24 d 0.2273(3) 0 0.25 0.0038 1 0
Ga1 Ga3+ 16 c 0.11769(12) 0.11769(12) 0.11769(12) 0.0037(3) 1 0
Li1 Li1+ 48 e 0.1477(5) 0.3769(5) 0.111(2) 0.0066(14) 1 0
#End of TTdata_419137-ICSD