
#(C) 2019 by FIZ Karlsruhe - Leibniz Institute for Information Infrastructure.  All rights reserved.
data_4193-ICSD
_database_code_ICSD 4193
_audit_creation_date 1980-01-01
_audit_update_record 1985-04-17
_chemical_name_systematic 'Sodium iron(III) tetraoxoruthenate(IV)'
_chemical_formula_structural 'Na Fe Ru O4'
_chemical_formula_sum 'Fe1 Na1 O4 Ru1'
_chemical_name_structure_type CaV2O4
_exptl_crystal_density_diffrn 5.48
_publ_section_title
'Les composes Na Ru2 O4 et Na Fe Ru O4. Structure cristalline de Na Fe Ru O4'
loop_
_citation_id
_citation_journal_full
_citation_year
_citation_journal_volume
_citation_page_first
_citation_page_last
_citation_journal_id_ASTM
primary 'Bulletin de la Societe Francaise de Mineralogie et de Cristallographie'
1975 98 374 377 BUFCAE
loop_
_publ_author_name
'Darriet, J.'
'Vidal, A.'
_cell_length_a 9.218(5)
_cell_length_b 2.956(3)
_cell_length_c 10.848(5)
_cell_angle_alpha 90.
_cell_angle_beta 90.
_cell_angle_gamma 90.
_cell_volume 295.59
_cell_formula_units_Z 4
_symmetry_space_group_name_H-M 'P n m a'
_symmetry_Int_Tables_number 62
_refine_ls_R_factor_all 0.074
loop_
_symmetry_equiv_pos_site_id
_symmetry_equiv_pos_as_xyz
1 'x+1/2, y, -z+1/2'
2 'x, -y+1/2, z'
3 '-x+1/2, y+1/2, z+1/2'
4 '-x, -y, -z'
5 '-x+1/2, -y, z+1/2'
6 '-x, y+1/2, -z'
7 'x+1/2, -y+1/2, -z+1/2'
8 'x, y, z'
loop_
_atom_type_symbol
_atom_type_oxidation_number
Fe3+ 3
Ru4+ 4
Fe3+ 3
Ru4+ 4
O2- -2
Na1+ 1
loop_
_atom_site_label
_atom_site_type_symbol
_atom_site_symmetry_multiplicity
_atom_site_Wyckoff_symbol
_atom_site_fract_x
_atom_site_fract_y
_atom_site_fract_z
_atom_site_B_iso_or_equiv
_atom_site_occupancy
_atom_site_attached_hydrogens
Fe1 Fe3+ 4 c 0.0584(1) 0.25 0.1158(1) 0.6 0.5 0
Ru1 Ru4+ 4 c 0.0584(1) 0.25 0.1158(1) 0.6 0.5 0
Fe2 Fe3+ 4 c 0.0854(1) 0.25 0.6004(1) 0.68 0.5 0
Ru2 Ru4+ 4 c 0.0854(1) 0.25 0.6004(1) 0.68 0.5 0
O1 O2- 4 c 0.3005(12) 0.25 0.6649(10) 1.89 1. 0
O2 O2- 4 c -.1283(13) 0.25 0.5194(12) 2.78 1. 0
O3 O2- 4 c -.0246(11) 0.25 0.2786(9) 1.06 1. 0
O4 O2- 4 c 0.0813(13) 0.25 -.0526(11) 2.72 1. 0
Na1 Na1+ 4 c 0.2438(8) 0.25 0.3415(6) 2.47 1. 0
#End of TTdata_4193-ICSD