
#(C) 2019 by FIZ Karlsruhe - Leibniz Institute for Information Infrastructure.  All rights reserved.
data_419367-ICSD
_database_code_ICSD 419367
_audit_creation_date 2009-08-01
_chemical_name_systematic 'Tristrontium sodium hexaoxo bismuthate(V)'
_chemical_formula_structural 'Sr3 Na Bi O6'
_chemical_formula_sum 'Bi1 Na1 O6 Sr3'
_chemical_name_structure_type K4CdCl6
_exptl_crystal_density_diffrn 5.88
_cell_measurement_temperature 294.
_publ_section_title 'Crystal growth of bismuth(V) oxides from hydroxide fluxes'
loop_
_citation_id
_citation_journal_full
_citation_year
_citation_journal_volume
_citation_page_first
_citation_page_last
_citation_journal_id_ASTM
primary 'Solid State Sciences' 2009 11 294 298 SSSCFJ
loop_
_publ_author_name
'Bharathy, M.'
'Khalsa, H.S.'
'Smith, M.D.'
'zur Loye, H.C.'
_cell_length_a 9.9193(2)
_cell_length_b 9.9193(2)
_cell_length_c 11.7473(5)
_cell_angle_alpha 90.
_cell_angle_beta 90.
_cell_angle_gamma 120.
_cell_volume 1000.99
_cell_formula_units_Z 6
_symmetry_space_group_name_H-M 'R -3 c H'
_symmetry_Int_Tables_number 167
_refine_ls_R_factor_all 0.0207
loop_
_symmetry_equiv_pos_site_id
_symmetry_equiv_pos_as_xyz
1 'x-y, -y, -z+1/2'
2 '-x, -x+y, -z+1/2'
3 'y, x, -z+1/2'
4 'x-y, x, -z'
5 'y, -x+y, -z'
6 '-x, -y, -z'
7 '-x+y, y, z+1/2'
8 'x, x-y, z+1/2'
9 '-y, -x, z+1/2'
10 '-x+y, -x, z'
11 '-y, x-y, z'
12 'x, y, z'
13 'x-y+2/3, -y+1/3, -z+5/6'
14 '-x+2/3, -x+y+1/3, -z+5/6'
15 'y+2/3, x+1/3, -z+5/6'
16 'x-y+2/3, x+1/3, -z+1/3'
17 'y+2/3, -x+y+1/3, -z+1/3'
18 '-x+2/3, -y+1/3, -z+1/3'
19 '-x+y+2/3, y+1/3, z+5/6'
20 'x+2/3, x-y+1/3, z+5/6'
21 '-y+2/3, -x+1/3, z+5/6'
22 '-x+y+2/3, -x+1/3, z+1/3'
23 '-y+2/3, x-y+1/3, z+1/3'
24 'x+2/3, y+1/3, z+1/3'
25 'x-y+1/3, -y+2/3, -z+1/6'
26 '-x+1/3, -x+y+2/3, -z+1/6'
27 'y+1/3, x+2/3, -z+1/6'
28 'x-y+1/3, x+2/3, -z+2/3'
29 'y+1/3, -x+y+2/3, -z+2/3'
30 '-x+1/3, -y+2/3, -z+2/3'
31 '-x+y+1/3, y+2/3, z+1/6'
32 'x+1/3, x-y+2/3, z+1/6'
33 '-y+1/3, -x+2/3, z+1/6'
34 '-x+y+1/3, -x+2/3, z+2/3'
35 '-y+1/3, x-y+2/3, z+2/3'
36 'x+1/3, y+2/3, z+2/3'
loop_
_atom_type_symbol
_atom_type_oxidation_number
Bi5+ 5
Sr2+ 2
Na1+ 1
O2- -2
loop_
_atom_site_label
_atom_site_type_symbol
_atom_site_symmetry_multiplicity
_atom_site_Wyckoff_symbol
_atom_site_fract_x
_atom_site_fract_y
_atom_site_fract_z
_atom_site_B_iso_or_equiv
_atom_site_occupancy
_atom_site_attached_hydrogens
Bi1 Bi5+ 6 b 0. 0. 0. 0.00829(7) 1 0
Sr1 Sr2+ 18 e 0.35136(4) 0. 0.25 0.01106(9) 1 0
Na1 Na1+ 6 a 0. 0. 0.25 0.0166(6) 1 0
O1 O2- 36 f 0.1863(3) 0.0285(3) 0.10219(19) 0.0143(3) 1 0
loop_
_atom_site_aniso_label
_atom_site_aniso_type_symbol
_atom_site_aniso_U_11
_atom_site_aniso_U_22
_atom_site_aniso_U_33
_atom_site_aniso_U_12
_atom_site_aniso_U_13
_atom_site_aniso_U_23
Bi1 Bi5+ 0.00705(8) 0.00705(8) 0.01076(10) 0.00353(4) 0. 0.
Sr1 Sr2+ 0.01034(11) 0.00968(14) 0.01293(15) 0.00484(7) -0.00041(5) -0.00081(9)
Na1 Na1+ 0.0193(10) 0.0193(10) 0.0111(12) 0.0097(5) 0. 0.
O1 O2- 0.0119(8) 0.0163(9) 0.0160(9) 0.0081(7) -0.0028(6) -0.0005(7)
#End of TTdata_419367-ICSD