
#(C) 2019 by FIZ Karlsruhe - Leibniz Institute for Information Infrastructure.  All rights reserved.
data_419368-ICSD
_database_code_ICSD 419368
_audit_creation_date 2009-08-01
_chemical_name_systematic
'Strontium barium hydroxo hexaoxo bismuthate(V) (2.59/0.41/1/6)'
_chemical_formula_structural '(Sr2.59 Ba0.41) Na Bi O6'
_chemical_formula_sum 'Ba0.41 Bi1 Na1 O6 Sr2.59'
_chemical_name_structure_type K4CdCl6
_exptl_crystal_density_diffrn 5.98
_cell_measurement_temperature 294.
_publ_section_title 'Crystal growth of bismuth(V) oxides from hydroxide fluxes'
loop_
_citation_id
_citation_journal_full
_citation_year
_citation_journal_volume
_citation_page_first
_citation_page_last
_citation_journal_id_ASTM
primary 'Solid State Sciences' 2009 11 294 298 SSSCFJ
loop_
_publ_author_name
'Bharathy, M.'
'Khalsa, H.S.'
'Smith, M.D.'
'zur Loye, H.C.'
_cell_length_a 9.9839(2)
_cell_length_b 9.9839(2)
_cell_length_c 11.8008(4)
_cell_angle_alpha 90.
_cell_angle_beta 90.
_cell_angle_gamma 120.
_cell_volume 1018.69
_cell_formula_units_Z 6
_symmetry_space_group_name_H-M 'R -3 c H'
_symmetry_Int_Tables_number 167
_refine_ls_R_factor_all 0.0206
loop_
_symmetry_equiv_pos_site_id
_symmetry_equiv_pos_as_xyz
1 'x-y, -y, -z+1/2'
2 '-x, -x+y, -z+1/2'
3 'y, x, -z+1/2'
4 'x-y, x, -z'
5 'y, -x+y, -z'
6 '-x, -y, -z'
7 '-x+y, y, z+1/2'
8 'x, x-y, z+1/2'
9 '-y, -x, z+1/2'
10 '-x+y, -x, z'
11 '-y, x-y, z'
12 'x, y, z'
13 'x-y+2/3, -y+1/3, -z+5/6'
14 '-x+2/3, -x+y+1/3, -z+5/6'
15 'y+2/3, x+1/3, -z+5/6'
16 'x-y+2/3, x+1/3, -z+1/3'
17 'y+2/3, -x+y+1/3, -z+1/3'
18 '-x+2/3, -y+1/3, -z+1/3'
19 '-x+y+2/3, y+1/3, z+5/6'
20 'x+2/3, x-y+1/3, z+5/6'
21 '-y+2/3, -x+1/3, z+5/6'
22 '-x+y+2/3, -x+1/3, z+1/3'
23 '-y+2/3, x-y+1/3, z+1/3'
24 'x+2/3, y+1/3, z+1/3'
25 'x-y+1/3, -y+2/3, -z+1/6'
26 '-x+1/3, -x+y+2/3, -z+1/6'
27 'y+1/3, x+2/3, -z+1/6'
28 'x-y+1/3, x+2/3, -z+2/3'
29 'y+1/3, -x+y+2/3, -z+2/3'
30 '-x+1/3, -y+2/3, -z+2/3'
31 '-x+y+1/3, y+2/3, z+1/6'
32 'x+1/3, x-y+2/3, z+1/6'
33 '-y+1/3, -x+2/3, z+1/6'
34 '-x+y+1/3, -x+2/3, z+2/3'
35 '-y+1/3, x-y+2/3, z+2/3'
36 'x+1/3, y+2/3, z+2/3'
loop_
_atom_type_symbol
_atom_type_oxidation_number
Bi5+ 5
Sr2+ 2
Ba2+ 2
Na1+ 1
O2- -2
loop_
_atom_site_label
_atom_site_type_symbol
_atom_site_symmetry_multiplicity
_atom_site_Wyckoff_symbol
_atom_site_fract_x
_atom_site_fract_y
_atom_site_fract_z
_atom_site_B_iso_or_equiv
_atom_site_occupancy
_atom_site_attached_hydrogens
Bi1 Bi5+ 6 b 0. 0. 0. 0.00898(8) 1 0
Sr1 Sr2+ 18 e 0.35141(4) 0. 0.25 0.01167(12) 0.862(5) 0
Ba1 Ba2+ 18 e 0.35141(4) 0. 0.25 0.01167(12) 0.138(5) 0
Na1 Na1+ 6 a 0. 0. 0.25 0.0167(6) 1 0
O1 O2- 36 f 0.1850(3) 0.0281(3) 0.1022(2) 0.0156(4) 1 0
loop_
_atom_site_aniso_label
_atom_site_aniso_type_symbol
_atom_site_aniso_U_11
_atom_site_aniso_U_22
_atom_site_aniso_U_33
_atom_site_aniso_U_12
_atom_site_aniso_U_13
_atom_site_aniso_U_23
Bi1 Bi5+ 0.00895(9) 0.00895(9) 0.00902(11) 0.00448(4) 0. 0.
Sr1 Sr2+ 0.01198(14) 0.01154(17) 0.01134(18) 0.00577(9) -0.00063(5) -0.00126(11)
Ba1 Ba2+ 0.01198(14) 0.01154(17) 0.01134(18) 0.00577(9) -0.00063(5) -0.00126(11)
Na1 Na1+ 0.0198(10) 0.0198(10) 0.0103(13) 0.0099(5) 0. 0.
O1 O2- 0.0141(10) 0.0205(11) 0.0138(10) 0.0098(9) -0.0031(8) -0.0010(8)
#End of TTdata_419368-ICSD