
#(C) 2019 by FIZ Karlsruhe - Leibniz Institute for Information Infrastructure.  All rights reserved.
data_419507-ICSD
_database_code_ICSD 419507
_audit_creation_date 2009-08-01
_chemical_name_systematic 'Tetrasodium divanadium(IV) dioxide octafluoride'
_chemical_formula_structural 'Na4 V2 O2 F8'
_chemical_formula_sum 'F8 Na4 O2 V2'
_exptl_crystal_density_diffrn 3.
_cell_measurement_temperature 93.
_publ_section_title
'Crystallisation of some mixed Na/V and K/V fluorides by solvothermal methods'
loop_
_citation_id
_citation_journal_full
_citation_year
_citation_journal_volume
_citation_page_first
_citation_page_last
_citation_journal_id_ASTM
primary 'Solid State Sciences' 2009 11 315 319 SSSCFJ
loop_
_publ_author_name
'Aldous, D.W.'
'Lightfoot, P.'
_cell_length_a 12.662(4)
_cell_length_b 10.267(3)
_cell_length_c 6.717(2)
_cell_angle_alpha 90.
_cell_angle_beta 106.668(11)
_cell_angle_gamma 90.
_cell_volume 836.53
_cell_formula_units_Z 4
_symmetry_space_group_name_H-M 'C 1 2/c 1'
_symmetry_Int_Tables_number 15
_refine_ls_R_factor_all 0.0191
loop_
_symmetry_equiv_pos_site_id
_symmetry_equiv_pos_as_xyz
1 'x, -y, z+1/2'
2 '-x, -y, -z'
3 '-x, y, -z+1/2'
4 'x, y, z'
5 'x+1/2, -y+1/2, z+1/2'
6 '-x+1/2, -y+1/2, -z'
7 '-x+1/2, y+1/2, -z+1/2'
8 'x+1/2, y+1/2, z'
loop_
_atom_type_symbol
_atom_type_oxidation_number
V4+ 4
Na1+ 1
F1- -1
O2- -2
loop_
_atom_site_label
_atom_site_type_symbol
_atom_site_symmetry_multiplicity
_atom_site_Wyckoff_symbol
_atom_site_fract_x
_atom_site_fract_y
_atom_site_fract_z
_atom_site_B_iso_or_equiv
_atom_site_occupancy
_atom_site_attached_hydrogens
V1 V4+ 8 f 0.13651(2) 0.73635(3) 0.08407(5) 0.00608(14) 1 0
Na1 Na1+ 8 f -0.33078(6) 0.90272(8) 0.03384(12) 0.0094(2) 1 0
Na2 Na1+ 8 f -0.10277(6) 0.89950(8) -0.12619(12) 0.0090(2) 1 0
F1 F1- 8 f 0.15067(9) 0.80899(11) 0.35112(17) 0.0093(3) 1 0
F2 F1- 8 f 0.21245(9) 0.58305(11) 0.22727(17) 0.0081(2) 1 0
F3 F1- 8 f 0.09069(9) 0.90569(11) -0.03905(17) 0.0084(2) 1 0
F4 F1- 8 f 0.31003(9) 0.80208(11) 0.15762(16) 0.0080(2) 1 0
O1 O2- 8 f 0.01662(11) 0.66880(14) 0.0119(2) 0.0100(3) 1 0
loop_
_atom_site_aniso_label
_atom_site_aniso_type_symbol
_atom_site_aniso_U_11
_atom_site_aniso_U_22
_atom_site_aniso_U_33
_atom_site_aniso_U_12
_atom_site_aniso_U_13
_atom_site_aniso_U_23
V1 V4+ 0.00525(19) 0.0077(2) 0.0054(2) 0.00115(12) 0.00178(14) 0.00124(12)
Na1 Na1+ 0.0109(4) 0.0102(4) 0.0069(4) -0.0010(3) 0.0025(3) -0.0005(3)
Na2 Na1+ 0.0082(4) 0.0114(4) 0.0075(4) -0.0007(3) 0.0025(3) -0.0008(3)
F1 F1- 0.0098(5) 0.0121(6) 0.0067(5) 0.0004(4) 0.0033(4) -0.0017(4)
F2 F1- 0.0092(5) 0.0079(6) 0.0066(5) 0.0003(4) 0.0014(4) 0.0006(4)
F3 F1- 0.0097(5) 0.0083(5) 0.0068(5) 0.0020(4) 0.0018(4) 0.0011(4)
F4 F1- 0.0070(5) 0.0110(6) 0.0064(5) -0.0004(4) 0.0024(4) -0.0016(4)
O1 O2- 0.0082(7) 0.0129(7) 0.0086(6) -0.0022(5) 0.0019(5) -0.0014(5)
#End of TTdata_419507-ICSD