
#(C) 2019 by FIZ Karlsruhe - Leibniz Institute for Information Infrastructure.  All rights reserved.
data_419551-ICSD
_database_code_ICSD 419551
_audit_creation_date 2009-02-01
_chemical_name_systematic 'Sodium trivanado(III)trivanadate(IV)'
_chemical_formula_structural 'Na (V6 O11)'
_chemical_formula_sum 'Na1 O11 V6'
_chemical_name_structure_type Ba(Ti2Fe3)FeO11
_exptl_crystal_density_diffrn 4.6
_cell_measurement_temperature 293.
_cell_measurement_pressure 2600000.
_publ_section_title
'The effect of pressure on the crystal structure of Na V6 O11'
loop_
_citation_id
_citation_journal_full
_citation_year
_citation_journal_volume
_citation_page_first
_citation_page_last
_citation_journal_id_ASTM
primary 'Journal of Physics: Condensed Matter' 2008 20 285208-1 285208-8 JCOMEL
loop_
_publ_author_name
'Grzechnik, A.'
'Kanke, Y.'
'Friese, K.'
_cell_length_a 5.687(2)
_cell_length_b 5.687(2)
_cell_length_c 13.021(6)
_cell_angle_alpha 90
_cell_angle_beta 90
_cell_angle_gamma 120
_cell_volume 364.7
_cell_formula_units_Z 2
_symmetry_space_group_name_H-M 'P 63/m m c'
_symmetry_Int_Tables_number 194
_refine_ls_R_factor_all 0.0861
loop_
_symmetry_equiv_pos_site_id
_symmetry_equiv_pos_as_xyz
1 'x, x-y, -z+1/2'
2 '-x+y, y, -z+1/2'
3 '-y, -x, -z+1/2'
4 '-x+y, -x, -z+1/2'
5 '-y, x-y, -z+1/2'
6 'x, y, -z+1/2'
7 '-x, -x+y, z+1/2'
8 'x-y, -y, z+1/2'
9 'y, x, z+1/2'
10 'x-y, x, z+1/2'
11 'y, -x+y, z+1/2'
12 '-x, -y, z+1/2'
13 '-x, -x+y, -z'
14 'x-y, -y, -z'
15 'y, x, -z'
16 'x-y, x, -z'
17 'y, -x+y, -z'
18 '-x, -y, -z'
19 'x, x-y, z'
20 '-x+y, y, z'
21 '-y, -x, z'
22 '-x+y, -x, z'
23 '-y, x-y, z'
24 'x, y, z'
loop_
_atom_type_symbol
_atom_type_oxidation_number
V3+ 3
V4+ 4
O2- -2
Na1+ 1
loop_
_atom_site_label
_atom_site_type_symbol
_atom_site_symmetry_multiplicity
_atom_site_Wyckoff_symbol
_atom_site_fract_x
_atom_site_fract_y
_atom_site_fract_z
_atom_site_B_iso_or_equiv
_atom_site_occupancy
_atom_site_attached_hydrogens
V1 V3+ 6 g 0.5 0 0 0.0061 1 0
V2 V4+ 4 e 0 0 0.1483(6) 0.0053 1 0
V3 V4+ 2 d 0.333333 0.666667 0.75 0.0059 1 0
O1 O2- 12 k 0.170(4) 0.340(7) 0.0798(12) 0.0071 1 0
O2 O2- 6 h 0.155(4) 0.309(8) 0.75 0.0085 1 0
O3 O2- 4 f 0.333333 0.666667 0.590(3) 0.0056 1 0
Na1 Na1+ 2 c 0.333333 0.666667 0.25 0.0285 1 0
#End of TTdata_419551-ICSD