
#(C) 2019 by FIZ Karlsruhe - Leibniz Institute for Information Infrastructure.  All rights reserved.
data_419874-ICSD
_database_code_ICSD 419874
_audit_creation_date 2015-02-01
_chemical_name_systematic 'Sodium tetrafluoroborate'
_chemical_formula_structural 'Na B F4'
_chemical_formula_sum 'B1 F4 Na1'
_chemical_name_structure_type CaSO4
_exptl_crystal_density_diffrn 2.58
_cell_measurement_temperature 100.
_publ_section_title

;
Lattice thermal expansion of zircon type Lu P O4 and Lu V O4: A comparative
study
;
loop_
_citation_id
_citation_journal_full
_citation_year
_citation_journal_volume
_citation_page_first
_citation_page_last
_citation_journal_id_ASTM
primary 'Private Communication' 2008 2008 1 1 PRICO6
loop_
_publ_author_name
'Patwe, S. J.'
'Achary, S. N.'
'Tyagi, A. K.'
_cell_length_a 6.782(2)
_cell_length_b 6.1532(19)
_cell_length_c 6.775(2)
_cell_angle_alpha 90.
_cell_angle_beta 90.
_cell_angle_gamma 90.
_cell_volume 282.72
_cell_formula_units_Z 4
_symmetry_space_group_name_H-M 'C m c m'
_symmetry_Int_Tables_number 63
_refine_ls_R_factor_all 0.0143
loop_
_symmetry_equiv_pos_site_id
_symmetry_equiv_pos_as_xyz
1 '-x, y, -z+1/2'
2 '-x, -y, z+1/2'
3 '-x, y, z'
4 '-x, -y, -z'
5 'x, -y, z+1/2'
6 'x, y, -z+1/2'
7 'x, -y, -z'
8 'x, y, z'
9 '-x+1/2, y+1/2, -z+1/2'
10 '-x+1/2, -y+1/2, z+1/2'
11 '-x+1/2, y+1/2, z'
12 '-x+1/2, -y+1/2, -z'
13 'x+1/2, -y+1/2, z+1/2'
14 'x+1/2, y+1/2, -z+1/2'
15 'x+1/2, -y+1/2, -z'
16 'x+1/2, y+1/2, z'
loop_
_atom_type_symbol
_atom_type_oxidation_number
Na1+ 1
F1- -1
B3+ 3
loop_
_atom_site_label
_atom_site_type_symbol
_atom_site_symmetry_multiplicity
_atom_site_Wyckoff_symbol
_atom_site_fract_x
_atom_site_fract_y
_atom_site_fract_z
_atom_site_B_iso_or_equiv
_atom_site_occupancy
_atom_site_attached_hydrogens
Na1 Na1+ 4 c 0.5 0.15089(11) 0.75 0.0115(3) 1 0
F1 F1- 8 f 0.5 0.21127(12) 0.41679(10) 0.0134(3) 1 0
F2 F1- 8 g 0.16684(10) 0.02327(12) 0.75 0.0146(3) 1 0
B1 B3+ 4 c 0. 0.1553(3) 0.75 0.0103(5) 1 0
loop_
_atom_site_aniso_label
_atom_site_aniso_type_symbol
_atom_site_aniso_U_11
_atom_site_aniso_U_22
_atom_site_aniso_U_33
_atom_site_aniso_U_12
_atom_site_aniso_U_13
_atom_site_aniso_U_23
Na1 Na1+ 0.0135(5) 0.0111(5) 0.0100(5) 0. 0. 0.
F1 F1- 0.0172(5) 0.0129(5) 0.0102(5) 0. 0. 0.0017(3)
F2 F1- 0.0117(5) 0.0133(5) 0.0187(6) 0.0031(3) 0. 0.
B1 B3+ 0.0104(10) 0.0091(9) 0.0115(10) 0. 0. 0.
#End of TTdata_419874-ICSD