
#(C) 2019 by FIZ Karlsruhe - Leibniz Institute for Information Infrastructure.  All rights reserved.
data_419946-ICSD
_database_code_ICSD 419946
_audit_creation_date 2009-02-01
_audit_update_record 2011-02-01
_chemical_name_systematic 'Sodium tetralanthanum(III) dinitride heptaiodide'
_chemical_formula_structural 'Na La4 N2 I7'
_chemical_formula_sum 'I7 La4 N2 Na1'
_chemical_name_structure_type NaLa4N2I7
_exptl_crystal_density_diffrn 5.36
_cell_measurement_temperature 100.
_publ_section_title
'Na La4 N2 I7: The first quaternary nitride iodide of the lanthanides'
loop_
_citation_id
_citation_journal_full
_citation_year
_citation_journal_volume
_citation_page_first
_citation_page_last
_citation_journal_id_ASTM
primary 'Zeitschrift fuer Anorganische und Allgemeine Chemie (1950) (DE)' 2008
634 2078 2078 ZAACAB
loop_
_publ_author_name
'Schurz, C.M.'
'Aniol, K.'
'Schleid, T.'
_cell_length_a 14.0018(5)
_cell_length_b 10.9315(7)
_cell_length_c 12.1021(8)
_cell_angle_alpha 90.
_cell_angle_beta 90.
_cell_angle_gamma 90.
_cell_volume 1852.36
_cell_formula_units_Z 4
_symmetry_space_group_name_H-M 'P n a 21'
_symmetry_Int_Tables_number 33
_refine_ls_R_factor_all 0.0526
loop_
_symmetry_equiv_pos_site_id
_symmetry_equiv_pos_as_xyz
1 'x+1/2, -y+1/2, z'
2 '-x+1/2, y+1/2, z+1/2'
3 '-x, -y, z+1/2'
4 'x, y, z'
loop_
_atom_type_symbol
_atom_type_oxidation_number
Na1+ 1
La3+ 3
I1- -1
N3- -3
loop_
_atom_site_label
_atom_site_type_symbol
_atom_site_symmetry_multiplicity
_atom_site_Wyckoff_symbol
_atom_site_fract_x
_atom_site_fract_y
_atom_site_fract_z
_atom_site_B_iso_or_equiv
_atom_site_occupancy
_atom_site_attached_hydrogens
Na1 Na1+ 4 a 0.4103(6) 0.4520(7) 0.2500(8) 0.0194(19) 1 0
La1 La3+ 4 a 0.08896(7) 0.37540(9) 0.31048(11) 0.0051(2) 1 0
La2 La3+ 4 a 0.40918(7) 0.11280(9) 0.05248(11) 0.0054(2) 1 0
La3 La3+ 4 a 0.39415(7) 0.90721(9) 0.31704(11) 0.0053(2) 1 0
La4 La3+ 4 a 0.08743(7) 0.62730(9) 0.07514(11) 0.0051(2) 1 0
I1 I1- 4 a 0.03352(9) 0.81815(10) 0.28899(11) 0.0099(3) 1 0
I2 I1- 4 a 0.24136(9) 0.60355(10) 0.32640(11) 0.0082(2) 1 0
I3 I1- 4 a 0.01977(9) 0.14434(10) 0.45790(11) 0.0094(2) 1 0
I4 I1- 4 a 0.05607(9) 0.17236(10) 0.10749(11) 0.0089(2) 1 0
I5 I1- 4 a 0.25550(9) 0.42063(10) 0.03769(11) 0.0090(2) 1 0
I6 I1- 4 a 0.29634(9) 0.18744(10) 0.29908(11) 0.0077(2) 1 0
I7 I1- 4 a 0.26957(9) 0.86837(10) 0.08124(11) 0.0101(2) 1 0
N1 N3- 4 a 0.4951(11) 0.0026(14) 0.1873(16) 0.009(3) 1 0
N2 N3- 4 a 0.4982(11) 0.0124(13) 0.4401(16) 0.010(3) 1 0
loop_
_atom_site_aniso_label
_atom_site_aniso_type_symbol
_atom_site_aniso_U_11
_atom_site_aniso_U_22
_atom_site_aniso_U_33
_atom_site_aniso_U_12
_atom_site_aniso_U_13
_atom_site_aniso_U_23
Na1 Na1+ 0.016(4) 0.014(4) 0.028(5) 0.004(3) -0.005(4) -0.014(4)
La1 La3+ 0.0077(4) 0.0041(4) 0.0035(5) 0.0009(3) 0.0002(4) -0.0011(4)
La2 La3+ 0.0078(5) 0.0052(4) 0.0031(6) 0.0016(4) -0.0005(4) -0.0009(4)
La3 La3+ 0.0075(4) 0.0057(4) 0.0027(5) -0.0018(3) 0.0000(4) -0.0013(4)
La4 La3+ 0.0072(5) 0.0039(4) 0.0042(6) -0.0005(3) 0.0010(4) 0.0000(4)
I1 I1- 0.0125(5) 0.0059(5) 0.0113(6) -0.0005(4) 0.0011(5) -0.0036(4)
I2 I1- 0.0094(5) 0.0077(5) 0.0075(6) -0.0005(4) 0.0021(5) 0.0010(4)
I3 I1- 0.0133(6) 0.0040(5) 0.0107(6) 0.0000(4) 0.0028(4) 0.0008(4)
I4 I1- 0.0107(5) 0.0063(5) 0.0097(6) 0.0008(4) -0.0006(4) -0.0030(4)
I5 I1- 0.0105(5) 0.0081(5) 0.0086(6) 0.0012(4) -0.0026(4) -0.0005(4)
I6 I1- 0.0102(5) 0.0066(5) 0.0064(6) 0.0026(4) 0.0006(4) -0.0002(4)
I7 I1- 0.0119(5) 0.0106(5) 0.0078(6) -0.0049(4) -0.0019(5) 0.0002(5)
#End of TTdata_419946-ICSD