
#(C) 2019 by FIZ Karlsruhe - Leibniz Institute for Information Infrastructure.  All rights reserved.
data_419947-ICSD
_database_code_ICSD 419947
_audit_creation_date 2009-02-01
_audit_update_record 2011-02-01
_chemical_name_systematic 'Sodium tetracerium(III) dinitride heptaiodide'
_chemical_formula_structural 'Na Ce4 N2 I7'
_chemical_formula_sum 'Ce4 I7 N2 Na1'
_chemical_name_structure_type NaLa4N2I7
_exptl_crystal_density_diffrn 5.45
_cell_measurement_temperature 100.
_publ_section_title
'Na La4 N2 I7: The first quaternary nitride iodide of the lanthanides'
loop_
_citation_id
_citation_journal_full
_citation_year
_citation_journal_volume
_citation_page_first
_citation_page_last
_citation_journal_id_ASTM
primary 'Zeitschrift fuer Anorganische und Allgemeine Chemie (1950) (DE)' 2008
634 2078 2078 ZAACAB
loop_
_publ_author_name
'Schurz, C.M.'
'Aniol, K.'
'Schleid, T.'
_cell_length_a 13.9703(9)
_cell_length_b 10.8932(7)
_cell_length_c 12.0194(8)
_cell_angle_alpha 90.
_cell_angle_beta 90.
_cell_angle_gamma 90.
_cell_volume 1829.13
_cell_formula_units_Z 4
_symmetry_space_group_name_H-M 'P n a 21'
_symmetry_Int_Tables_number 33
_refine_ls_R_factor_all 0.0918
loop_
_symmetry_equiv_pos_site_id
_symmetry_equiv_pos_as_xyz
1 'x+1/2, -y+1/2, z'
2 '-x+1/2, y+1/2, z+1/2'
3 '-x, -y, z+1/2'
4 'x, y, z'
loop_
_atom_type_symbol
_atom_type_oxidation_number
Na1+ 1
Ce3+ 3
I1- -1
N3- -3
loop_
_atom_site_label
_atom_site_type_symbol
_atom_site_symmetry_multiplicity
_atom_site_Wyckoff_symbol
_atom_site_fract_x
_atom_site_fract_y
_atom_site_fract_z
_atom_site_B_iso_or_equiv
_atom_site_occupancy
_atom_site_attached_hydrogens
Na1 Na1+ 4 a 0.4072(12) 0.4545(16) 0.2500(14) 0.023(4) 1 0
Ce1 Ce3+ 4 a 0.08861(14) 0.3745(2) 0.31176(18) 0.0129(4) 1 0
Ce2 Ce3+ 4 a 0.40963(14) 0.1110(2) 0.05398(17) 0.0136(4) 1 0
Ce3 Ce3+ 4 a 0.39522(14) 0.9088(2) 0.31875(18) 0.0134(4) 1 0
Ce4 Ce3+ 4 a 0.08715(14) 0.6274(2) 0.07661(17) 0.0128(4) 1 0
I1 I1- 4 a 0.03171(17) 0.8165(3) 0.2895(2) 0.0171(5) 1 0
I2 I1- 4 a 0.23984(17) 0.6021(3) 0.3292(2) 0.0161(5) 1 0
I3 I1- 4 a 0.01842(17) 0.1452(3) 0.4579(2) 0.0169(5) 1 0
I4 I1- 4 a 0.05508(17) 0.1744(3) 0.1077(2) 0.0172(5) 1 0
I5 I1- 4 a 0.25477(17) 0.4225(3) 0.0365(2) 0.0161(5) 1 0
I6 I1- 4 a 0.29521(17) 0.1874(3) 0.2982(2) 0.0146(5) 1 0
I7 I1- 4 a 0.27043(17) 0.8669(3) 0.0850(2) 0.0176(5) 1 0
N1 N3- 4 a 0.495(3) -0.008(4) 0.190(4) 0.023(7) 1 0
N2 N3- 4 a 0.498(3) 0.007(3) 0.448(4) 0.020(7) 1 0
loop_
_atom_site_aniso_label
_atom_site_aniso_type_symbol
_atom_site_aniso_U_11
_atom_site_aniso_U_22
_atom_site_aniso_U_33
_atom_site_aniso_U_12
_atom_site_aniso_U_13
_atom_site_aniso_U_23
Na1 Na1+ 0.021(9) 0.019(9) 0.028(9) -0.006(7) 0.002(7) -0.017(7)
Ce1 Ce3+ 0.0137(9) 0.0143(10) 0.0106(8) 0.0001(7) -0.0009(8) -0.0011(10)
Ce2 Ce3+ 0.0146(10) 0.0174(11) 0.0088(9) 0.0020(9) 0.0000(8) -0.0015(9)
Ce3 Ce3+ 0.0142(9) 0.0186(11) 0.0074(8) -0.0013(8) -0.0001(8) -0.0024(10)
Ce4 Ce3+ 0.0149(10) 0.0146(10) 0.0090(9) 0.0000(8) 0.0025(8) -0.0006(9)
I1 I1- 0.0173(11) 0.0176(12) 0.0166(12) 0.0006(10) 0.0005(9) -0.0044(10)
I2 I1- 0.0146(11) 0.0163(12) 0.0175(13) 0.0006(9) 0.0018(10) 0.0019(10)
I3 I1- 0.0177(12) 0.0142(12) 0.0189(12) 0.0011(10) 0.0015(10) -0.0005(10)
I4 I1- 0.0173(12) 0.0184(13) 0.0161(12) -0.0011(10) -0.0021(9) -0.0012(10)
I5 I1- 0.0186(12) 0.0165(12) 0.0133(11) -0.0003(10) -0.0023(9) 0.0028(10)
I6 I1- 0.0163(11) 0.0146(11) 0.0127(11) 0.0020(9) -0.0012(9) -0.0008(10)
I7 I1- 0.0190(12) 0.0212(13) 0.0128(12) -0.0031(11) -0.0024(10) -0.0008(11)
#End of TTdata_419947-ICSD