
#(C) 2017 by FIZ Karlsruhe - Leibniz Institute for Information Infrastructure.  All rights reserved.
data_419925-ICSD
_database_code_ICSD 419925
_audit_creation_date 2009-08-01
_chemical_name_systematic 'Lithium dipraseodymium trifluoride bis(carbodiimide)'
_chemical_formula_structural 'Li Pr2 F3 (C N2)2'
_chemical_formula_sum 'C2 F3 Li1 N4 Pr2'
_exptl_crystal_density_diffrn 4.87
_cell_measurement_temperature 293.
_publ_section_title

;
The versatility of solid-state metathesis reactions: From rare earth fluorides
to carbodiimides
;
loop_
_citation_id
_citation_journal_full
_citation_year
_citation_journal_volume
_citation_page_first
_citation_page_last
_citation_journal_id_ASTM
primary 'Zeitschrift fuer Anorganische und Allgemeine Chemie (1950) (DE)' 2009
635 479 483 ZAACAB
loop_
_publ_author_name
'Unverfehrt, L.'
'Glaser, J.'
'Stroebele, M.'
'Tragl, S.'
'Gibson, K.'
'Meyer, H.J.'
_cell_length_a 11.562(2)
_cell_length_b 6.563(1)
_cell_length_c 8.471(1)
_cell_angle_alpha 90.
_cell_angle_beta 115.32(2)
_cell_angle_gamma 90.
_cell_volume 581.04
_cell_formula_units_Z 4
_symmetry_space_group_name_H-M 'C 1 2/c 1'
_symmetry_Int_Tables_number 15
_refine_ls_R_factor_all 0.0172
loop_
_symmetry_equiv_pos_site_id
_symmetry_equiv_pos_as_xyz
1 'x, -y, z+1/2'
2 '-x, -y, -z'
3 '-x, y, -z+1/2'
4 'x, y, z'
5 'x+1/2, -y+1/2, z+1/2'
6 '-x+1/2, -y+1/2, -z'
7 '-x+1/2, y+1/2, -z+1/2'
8 'x+1/2, y+1/2, z'
loop_
_atom_type_symbol
_atom_type_oxidation_number
Pr3+ 3
F1- -1
N3- -3
C4+ 4
Li1+ 1
loop_
_atom_site_label
_atom_site_type_symbol
_atom_site_symmetry_multiplicity
_atom_site_Wyckoff_symbol
_atom_site_fract_x
_atom_site_fract_y
_atom_site_fract_z
_atom_site_B_iso_or_equiv
_atom_site_occupancy
_atom_site_attached_hydrogens
Pr1 Pr3+ 8 f 0.286944(12) 0.004207(15) 0.166964(18) 0.00663(8) 1 0
F1 F1- 8 f 0.18608(17) 0.1223(2) -0.1342(2) 0.0117(3) 1 0
F2 F1- 4 e 0.5 0.1020(3) 0.25 0.0120(5) 1 0
N1 N3- 8 f 0.1377(2) -0.2982(3) 0.0377(3) 0.0098(4) 1 0
N2 N3- 8 f -0.0867(2) -0.2024(3) -0.1321(3) 0.0134(5) 1 0
C1 C4+ 8 f 0.0245(3) -0.2498(3) -0.0458(4) 0.0101(5) 1 0
Li1 Li1+ 4 e 0. 0.0940(12) -0.25 0.030(2) 1 0
loop_
_atom_site_aniso_label
_atom_site_aniso_type_symbol
_atom_site_aniso_U_11
_atom_site_aniso_U_22
_atom_site_aniso_U_33
_atom_site_aniso_U_12
_atom_site_aniso_U_13
_atom_site_aniso_U_23
Pr1 Pr3+ 0.00660(10) 0.00678(9) 0.00603(12) 0.00000(4) 0.00226(7) -0.00008(4)
F1 F1- 0.0132(8) 0.0109(6) 0.0101(9) 0.0008(5) 0.0040(7) 0.0003(5)
F2 F1- 0.0092(10) 0.0131(8) 0.0129(14) 0. 0.0039(10) 0.
N1 N3- 0.0097(10) 0.0106(7) 0.0083(12) 0.0000(7) 0.0032(9) -0.0007(7)
N2 N3- 0.0117(11) 0.0148(8) 0.0126(14) 0.0013(8) 0.0042(10) -0.0018(8)
C1 C4+ 0.0149(12) 0.0082(8) 0.0086(14) -0.0011(8) 0.0063(11) -0.0013(8)
Li1 Li1+ 0.020(4) 0.028(4) 0.033(6) 0. 0.005(4) 0.
#End of TTdata_419925-ICSD