
#(C) 2018 by FIZ Karlsruhe - Leibniz Institute for Information Infrastructure.  All rights reserved.
data_420126-ICSD
_database_code_ICSD 420126
_audit_creation_date 2009-08-01
_chemical_name_systematic 'Dilithium silicon dinitride'
_chemical_formula_structural 'Li2 Si N2'
_chemical_formula_sum 'Li2 N2 Si1'
_exptl_crystal_density_diffrn 2.52
_cell_measurement_temperature 295.
_publ_section_title

;
Single-crystal structure determination and solid-state NMR investigations of
lithium nitridosilicate Li2 Si N2 synthesized by a precursor approach
employing amorphous "Si (C N2)2"
;
loop_
_citation_id
_citation_journal_full
_citation_year
_citation_journal_volume
_citation_page_first
_citation_page_last
_citation_journal_id_ASTM
primary 'European Journal of Inorganic Chemistry' 2009 2009 1579 1584 EJICFO
loop_
_publ_author_name
'Pagano, S.'
'Zeuner, M.'
'Hug, S.'
'Schnick, W.'
_cell_length_a 9.907(2)
_cell_length_b 9.907(2)
_cell_length_c 15.014(3)
_cell_angle_alpha 90.
_cell_angle_beta 90.
_cell_angle_gamma 90.
_cell_volume 1473.6
_cell_formula_units_Z 32
_symmetry_space_group_name_H-M 'P b c a'
_symmetry_Int_Tables_number 61
_refine_ls_R_factor_all 0.0381
loop_
_symmetry_equiv_pos_site_id
_symmetry_equiv_pos_as_xyz
1 'x+1/2, y, -z+1/2'
2 'x, -y+1/2, z+1/2'
3 '-x+1/2, y+1/2, z'
4 '-x, -y, -z'
5 '-x+1/2, -y, z+1/2'
6 '-x, y+1/2, -z+1/2'
7 'x+1/2, -y+1/2, -z'
8 'x, y, z'
loop_
_atom_type_symbol
_atom_type_oxidation_number
Si4+ 4
N3- -3
Li1+ 1
loop_
_atom_site_label
_atom_site_type_symbol
_atom_site_symmetry_multiplicity
_atom_site_Wyckoff_symbol
_atom_site_fract_x
_atom_site_fract_y
_atom_site_fract_z
_atom_site_B_iso_or_equiv
_atom_site_occupancy
_atom_site_attached_hydrogens
Si1 Si4+ 8 c 0.35840(7) 0.16714(7) 0.55669(5) 0.00347(18) 1 0
Si2 Si4+ 8 c 0.60895(7) 0.31932(7) 0.55739(5) 0.00303(18) 1 0
Si3 Si4+ 8 c 0.41375(7) 0.35598(7) 0.69948(5) 0.00315(18) 1 0
Si4 Si4+ 8 c 0.56649(7) 0.10480(7) 0.68655(5) 0.00328(18) 1 0
N1 N3- 8 c 0.4428(2) 0.0410(2) 0.61512(15) 0.0054(4) 1 0
N2 N3- 8 c 0.2365(2) 0.0894(2) 0.49276(15) 0.0049(4) 1 0
N3 N3- 8 c 0.5318(2) 0.4332(2) 0.62996(15) 0.0050(4) 1 0
N4 N3- 8 c 0.6611(2) -0.0248(2) 0.73275(15) 0.0041(4) 1 0
N5 N3- 8 c 0.6839(2) 0.1928(2) 0.62174(15) 0.0046(4) 1 0
N6 N3- 8 c 0.2895(2) 0.2813(2) 0.63277(16) 0.0051(4) 1 0
N7 N3- 8 c 0.4933(2) 0.2249(2) 0.76136(16) 0.0050(4) 1 0
N8 N3- 8 c 0.4836(2) 0.2500(2) 0.48796(15) 0.0055(4) 1 0
Li1 Li1+ 8 c 0.3992(5) -0.1520(5) 0.6225(3) 0.0092(9) 1 0
Li2 Li1+ 8 c 0.6033(5) 0.0613(5) 0.5210(3) 0.0109(9) 1 0
Li3 Li1+ 8 c 0.8278(5) -0.1616(5) 0.7282(4) 0.0131(10) 1 0
Li4 Li1+ 8 c 0.1365(5) -0.0775(5) 0.5372(3) 0.0113(9) 1 0
Li5 Li1+ 8 c 0.8620(5) 0.2960(5) 0.6214(4) 0.0135(10) 1 0
Li6 Li1+ 8 c 0.8088(5) 0.1062(5) 0.7840(4) 0.0132(9) 1 0
Li7 Li1+ 8 c 0.7921(5) 0.0283(5) 0.6247(3) 0.0108(9) 1 0
Li8 Li1+ 8 c 0.4566(5) 0.6192(5) 0.6266(4) 0.0154(10) 1 0
loop_
_atom_site_aniso_label
_atom_site_aniso_type_symbol
_atom_site_aniso_U_11
_atom_site_aniso_U_22
_atom_site_aniso_U_33
_atom_site_aniso_U_12
_atom_site_aniso_U_13
_atom_site_aniso_U_23
Si1 Si4+ 0.0041(3) 0.0030(3) 0.0033(3) -0.0001(2) -0.0009(2) -0.0002(2)
Si2 Si4+ 0.0033(3) 0.0028(3) 0.0030(3) -0.0003(2) 0.0006(2) -0.0003(2)
Si3 Si4+ 0.0029(3) 0.0032(3) 0.0034(3) -0.0001(2) 0.0005(2) -0.0005(2)
Si4 Si4+ 0.0027(3) 0.0035(3) 0.0036(3) -0.0002(2) -0.0001(2) 0.0009(2)
N1 N3- 0.0051(9) 0.0041(9) 0.0068(10) -0.0002(7) -0.0005(8) -0.0003(8)
N2 N3- 0.0060(9) 0.0032(9) 0.0056(10) -0.0001(7) -0.0016(8) -0.0010(8)
N3 N3- 0.0059(9) 0.0049(9) 0.0041(10) -0.0001(7) 0.0004(8) -0.0013(8)
N4 N3- 0.0019(9) 0.0046(9) 0.0058(10) 0.0004(7) 0.0000(7) 0.0018(8)
N5 N3- 0.0058(9) 0.0026(9) 0.0054(10) 0.0002(7) 0.0010(8) -0.0006(8)
N6 N3- 0.0060(9) 0.0026(9) 0.0068(11) 0.0020(7) -0.0014(7) 0.0001(8)
N7 N3- 0.0042(9) 0.0059(9) 0.0049(11) 0.0001(7) -0.0004(7) 0.0004(8)
N8 N3- 0.0075(9) 0.0038(9) 0.0051(11) -0.0003(7) 0.0007(8) -0.0006(8)
#End of TTdata_420126-ICSD