
#(C) 2019 by FIZ Karlsruhe - Leibniz Institute for Information Infrastructure.  All rights reserved.
data_420136-ICSD
_database_code_ICSD 420136
_audit_creation_date 2009-08-01
_chemical_name_systematic 'Sodium vanadate(III) - LT'
_chemical_formula_structural 'Na (V O2)'
_chemical_formula_sum 'Na1 O2 V1'
_chemical_name_structure_type NaNiO2(mS8)
_exptl_crystal_density_diffrn 4.22
_cell_measurement_temperature 20.
_publ_section_title 'Successive orbital ordering transitions in Na V O2'
loop_
_citation_id
_citation_journal_full
_citation_year
_citation_journal_volume
_citation_page_first
_citation_page_last
_citation_journal_id_ASTM
primary 'Physical Review Letters' 2008 101 166402-1 166402-4 PRLTAO
loop_
_publ_author_name
'McQueen, T.M.'
'Stephens, P.W.'
'Huang, Q.'
'Klimczuk, T.'
'Ronning, F.'
'Cava, R.J.'
_cell_length_a 5.2223(2)
_cell_length_b 2.9755(1)
_cell_length_c 5.6492(3)
_cell_angle_alpha 90.
_cell_angle_beta 108.335(1)
_cell_angle_gamma 90.
_cell_volume 83.33
_cell_formula_units_Z 2
_symmetry_space_group_name_H-M 'C 1 2/m 1'
_symmetry_Int_Tables_number 12
loop_
_symmetry_equiv_pos_site_id
_symmetry_equiv_pos_as_xyz
1 '-x, y, -z'
2 '-x, -y, -z'
3 'x, -y, z'
4 'x, y, z'
5 '-x+1/2, y+1/2, -z'
6 '-x+1/2, -y+1/2, -z'
7 'x+1/2, -y+1/2, z'
8 'x+1/2, y+1/2, z'
loop_
_atom_type_symbol
_atom_type_oxidation_number
Na1+ 1
V3+ 3
O2- -2
loop_
_atom_site_label
_atom_site_type_symbol
_atom_site_symmetry_multiplicity
_atom_site_Wyckoff_symbol
_atom_site_fract_x
_atom_site_fract_y
_atom_site_fract_z
_atom_site_B_iso_or_equiv
_atom_site_occupancy
_atom_site_attached_hydrogens
Na1 Na1+ 2 a 0. 0. 0. 0.00959 1. 0
V1 V3+ 2 d 0. 0.5 0.5 0.00839 1. 0
O1 O2- 4 i 0.2296(5) 0. 0.7005(4) 0.00725 1. 0
loop_
_atom_site_aniso_label
_atom_site_aniso_type_symbol
_atom_site_aniso_U_11
_atom_site_aniso_U_22
_atom_site_aniso_U_33
_atom_site_aniso_U_12
_atom_site_aniso_U_13
_atom_site_aniso_U_23
Na1 Na1+ 0.0113(14) 0.0096(11) 0.0092(17) 0. 0.0052(13) 0.
V1 V3+ 0.0079(7) 0.0091(6) 0.0089(8) 0. 0.0037(6) 0.
O1 O2- 0.0117(16) 0.0066(13) 0.0049(24) 0. 0.0047(16) 0.
#End of TTdata_420136-ICSD