
#(C) 2019 by FIZ Karlsruhe - Leibniz Institute for Information Infrastructure.  All rights reserved.
data_42031-ICSD
_database_code_ICSD 42031
_audit_creation_date 2000-07-15
_audit_update_record 2005-10-01
_chemical_name_systematic 'Magnesium tin phosphide (4/3/8)'
_chemical_formula_structural 'Na4 Sn3 S8'
_chemical_formula_sum 'Na4 S8 Sn3'
_exptl_crystal_density_diffrn 3.23
_publ_section_title

;
Etude structurale de Na4 Sn3 S8. Evolution de la coordination de l'etain dans
le systeme Na2 S - Sn S2
;
loop_
_citation_id
_citation_journal_full
_citation_year
_citation_journal_volume
_citation_page_first
_citation_page_last
_citation_journal_id_ASTM
primary 'Journal of Solid State Chemistry' 1975 14 152 159 JSSCBI
loop_
_publ_author_name
'Jumas, J.C.'
'Philippot, E.'
'Maurin, M.'
_cell_length_a 11.247(3)
_cell_length_b 7.337(2)
_cell_length_c 17.6210(40)
_cell_angle_alpha 90.
_cell_angle_beta 95.27(2)
_cell_angle_gamma 90.
_cell_volume 1447.93
_cell_formula_units_Z 4
_symmetry_space_group_name_H-M 'C 1 2/c 1'
_symmetry_Int_Tables_number 15
_refine_ls_R_factor_all 0.043
loop_
_symmetry_equiv_pos_site_id
_symmetry_equiv_pos_as_xyz
1 'x, -y, z+1/2'
2 '-x, -y, -z'
3 '-x, y, -z+1/2'
4 'x, y, z'
5 'x+1/2, -y+1/2, z+1/2'
6 '-x+1/2, -y+1/2, -z'
7 '-x+1/2, y+1/2, -z+1/2'
8 'x+1/2, y+1/2, z'
loop_
_atom_type_symbol
_atom_type_oxidation_number
Sn4+ 4
Na1+ 1
S2- -2
loop_
_atom_site_label
_atom_site_type_symbol
_atom_site_symmetry_multiplicity
_atom_site_Wyckoff_symbol
_atom_site_fract_x
_atom_site_fract_y
_atom_site_fract_z
_atom_site_B_iso_or_equiv
_atom_site_occupancy
_atom_site_attached_hydrogens
Sn1 Sn4+ 4 e 0 0.0840(1) 0.25 . 1. 0
Sn2 Sn4+ 8 f 0.89857(4) 0.16622(7) 0.03250(2) . 1. 0
Na1 Na1+ 8 f 0.6399(3) 0.1266(5) 0.1645(2) . 1. 0
Na2 Na1+ 8 f 0.2625(5) 0.1643(7) 0.1232(3) . 1. 0
S1 S2- 8 f 0.7023(2) 0.0318(3) 0.0159(1) . 1. 0
S2 S2- 8 f 0.1826(2) 0.0703(3) 0.7530(1) . 1. 0
S3 S2- 8 f -.0190(2) 0.1510(3) 0.5726(1) . 1. 0
S4 S2- 8 f 0.4798(2) 0.1831(3) 0.6494(1) . 1. 0
loop_
_atom_site_aniso_label
_atom_site_aniso_type_symbol
_atom_site_aniso_U_11
_atom_site_aniso_U_22
_atom_site_aniso_U_33
_atom_site_aniso_U_12
_atom_site_aniso_U_13
_atom_site_aniso_U_23
Sn1 Sn4+ 0.0139(3) 0.0173(3) 0.0116(3) 0 -.0011(2) 0
Sn2 Sn4+ 0.0124(2) 0.0190(2) 0.0101(2) 0.0015(3) -.0005(2) -.0015(2)
Na1 Na1+ 0.030(2) 0.026(2) 0.018(1) 0.005(1) -.006(2) -.003(2)
Na2 Na1+ 0.055(3) 0.049(3) 0.031(2) -.013(2) 0.015(2) -.013(2)
S1 S2- 0.0114(7) 0.0150(9) 0.0155(6) 0.0005(5) -.002(1) 0.0015(5)
S2 S2- 0.0150(7) 0.0207(9) 0.0181(6) -.0015(5) -.003(1) 0.0035(5)
S3 S2- 0.0175(7) 0.0181(9) 0.0116(6) -.0050(5) 0.0025(5) -.0025(5)
S4 S2- 0.0318(9) 0.0162(9) 0.0090(8) 0.0050(5) -.004(1) -.0015(5)
#End of TTdata_42031-ICSD