
#(C) 2019 by FIZ Karlsruhe - Leibniz Institute for Information Infrastructure.  All rights reserved.
data_420336-ICSD
_database_code_ICSD 420336
_audit_creation_date 2009-08-01
_audit_update_record 2013-02-01
_chemical_name_systematic
'Dicesium octasodium actauranyl octaoxo pentamolybdate'
_chemical_formula_structural 'Cs2 Na8 ((U O2)8 O8 (Mo5 O20))'
_chemical_formula_sum 'Cs2 Mo5 Na8 O44 U8'
_exptl_crystal_density_diffrn 5.95
_cell_measurement_temperature 293.
_publ_section_title

;
First mixed alkaline uranyl molybdates: synthesis and crystal structures of Cs
Na3 [(U O2)4 O4 (Mo2 O8)] and Cs2 Na8 [(U O2)8 O8 (Mo5 O20)]
;
loop_
_citation_id
_citation_journal_full
_citation_year
_citation_journal_volume
_citation_page_first
_citation_page_last
_citation_journal_id_ASTM
primary 'Zeitschrift fuer Anorganische und Allgemeine Chemie (1950) (DE)' 2009
635 1231 1235 ZAACAB
loop_
_publ_author_name
'Nazarchuk, E.V.'
'Siidra, O.I.'
'Krivovichev, S.V.'
'Malcherek, T.'
'Depmeier, W.'
_cell_length_a 6.8460(2)
_cell_length_b 23.3855(7)
_cell_length_c 12.3373(3)
_cell_angle_alpha 90.
_cell_angle_beta 90.
_cell_angle_gamma 90.
_cell_volume 1975.17
_cell_formula_units_Z 2
_symmetry_space_group_name_H-M 'I b a m'
_symmetry_Int_Tables_number 72
_refine_ls_R_factor_all 0.0485
loop_
_symmetry_equiv_pos_site_id
_symmetry_equiv_pos_as_xyz
1 '-x, y, z+1/2'
2 'x, -y, z+1/2'
3 'x, y, -z'
4 '-x, -y, -z'
5 'x, -y, -z+1/2'
6 '-x, y, -z+1/2'
7 '-x, -y, z'
8 'x, y, z'
9 '-x+1/2, y+1/2, z'
10 'x+1/2, -y+1/2, z'
11 'x+1/2, y+1/2, -z+1/2'
12 '-x+1/2, -y+1/2, -z+1/2'
13 'x+1/2, -y+1/2, -z'
14 '-x+1/2, y+1/2, -z'
15 '-x+1/2, -y+1/2, z+1/2'
16 'x+1/2, y+1/2, z+1/2'
loop_
_atom_type_symbol
_atom_type_oxidation_number
U0+ 0
Cs0+ 0
Mo0+ 0
Na0+ 0
O0+ 0
loop_
_atom_site_label
_atom_site_type_symbol
_atom_site_symmetry_multiplicity
_atom_site_Wyckoff_symbol
_atom_site_fract_x
_atom_site_fract_y
_atom_site_fract_z
_atom_site_B_iso_or_equiv
_atom_site_occupancy
_atom_site_attached_hydrogens
U1 U0+ 8 j 0.15968(7) 0.217212(19) 0. 0.00578(13) 1 0
U2 U0+ 8 j 0.69461(7) 0.122225(19) 0. 0.00654(13) 1 0
Cs1 Cs0+ 4 b 0.5 0. 0.25 0.0379(4) 1 0
Mo1 Mo0+ 8 j 0.16717(19) 0.04980(6) 0. 0.0306(5) 1 0
Mo2 Mo0+ 4 a 0. 0. 0.25 0.046(2) 0.517(13) 0
Na1 Na0+ 8 g 0. 0.2981(4) 0.25 0.0271(16) 1 0
Na2 Na0+ 8 g 0. 0.1365(4) 0.25 0.0233(14) 1 0
O1 O0+ 8 j 0.1494(15) -0.0309(4) 0. 0.0134(19) 1 0
O2 O0+ 16 k 0.6939(13) 0.1220(4) -0.1475(7) 0.0182(15) 1 0
O3 O0+ 16 k 0.1579(13) 0.2159(4) 0.1498(7) 0.0186(16) 1 0
O4 O0+ 8 j 0.4658(15) 0.1890(4) 0. 0.0134(19) 1 0
O5 O0+ 8 j 0.8401(15) 0.2057(5) 0. 0.019(2) 1 0
O6 O0+ 8 j 0.4188(17) 0.0611(5) 0. 0.028(3) 1 0
O7 O0+ 8 j 0.062(2) 0.1204(5) 0. 0.051(6) 1 0
O8 O0+ 16 k 0.146(2) 0.0506(6) 0.1617(10) 0.048(4) 1 0
loop_
_atom_site_aniso_label
_atom_site_aniso_type_symbol
_atom_site_aniso_U_11
_atom_site_aniso_U_22
_atom_site_aniso_U_33
_atom_site_aniso_U_12
_atom_site_aniso_U_13
_atom_site_aniso_U_23
U1 U0+ 0.00550(19) 0.0026(2) 0.0092(2) -0.00061(12) 0. 0.
U2 U0+ 0.0068(2) 0.00169(19) 0.0112(2) 0.00010(12) 0. 0.
Cs1 Cs0+ 0.0420(11) 0.0411(11) 0.0305(9) 0. 0. 0.
Mo1 Mo0+ 0.0062(5) 0.0010(5) 0.0847(15) -0.0002(3) 0. 0.
Mo2 Mo0+ 0.118(7) 0.014(2) 0.0073(17) 0. 0. 0.
Na1 Na0+ 0.027(4) 0.031(4) 0.024(4) 0. 0.007(3) 0.
Na2 Na0+ 0.024(3) 0.029(4) 0.017(3) 0. -0.003(3) 0.
O1 O0+ 0.009(4) 0.002(4) 0.030(6) 0.003(3) 0. 0.
O2 O0+ 0.026(4) 0.019(4) 0.009(3) 0.001(3) 0.001(3) -0.002(3)
O3 O0+ 0.021(4) 0.027(4) 0.008(3) 0.001(3) 0.001(3) 0.007(3)
O4 O0+ 0.008(4) 0.001(3) 0.031(6) 0.002(3) 0. 0.
O5 O0+ 0.005(4) 0.008(4) 0.044(8) -0.003(3) 0. 0.
O6 O0+ 0.008(4) 0.003(4) 0.073(11) -0.002(3) 0. 0.
O7 O0+ 0.014(6) 0.001(4) 0.14(2) -0.001(4) 0. 0.
O8 O0+ 0.071(9) 0.046(8) 0.027(6) -0.015(7) -0.012(6) -0.017(5)
#End of TTdata_420336-ICSD