
#(C) 2019 by FIZ Karlsruhe - Leibniz Institute for Information Infrastructure.  All rights reserved.
data_420410-ICSD
_database_code_ICSD 420410
_audit_creation_date 2009-08-01
_chemical_name_systematic 'Hexasodium manganate(II)'
_chemical_formula_structural 'Na6 (Mn O4)'
_chemical_formula_sum 'Mn1 Na6 O4'
_chemical_name_structure_type K6HgS4
_exptl_crystal_density_diffrn 2.84
_publ_section_title

;
Sodium manganate(II), high-pressure - high-temperature synthesis, crystal
structure
;
loop_
_citation_id
_citation_journal_full
_citation_year
_citation_journal_volume
_citation_page_first
_citation_page_last
_citation_journal_id_ASTM
primary 'Zeitschrift fuer Naturforschung, B: A Journal of Chemical Sciences'
2009 64 487 490 ZNBSEN
loop_
_publ_author_name
'Pfeiffer, S.'
'Jansen, M.'
_cell_length_a 7.66314(20)
_cell_length_b 7.66314(20)
_cell_length_c 5.90136(19)
_cell_angle_alpha 90.
_cell_angle_beta 90.
_cell_angle_gamma 120.
_cell_volume 300.12
_cell_formula_units_Z 2
_symmetry_space_group_name_H-M 'P 63 m c'
_symmetry_Int_Tables_number 186
_refine_ls_R_factor_all 0.0445
loop_
_symmetry_equiv_pos_site_id
_symmetry_equiv_pos_as_xyz
1 '-x, -x+y, z+1/2'
2 'x-y, -y, z+1/2'
3 'y, x, z+1/2'
4 'x-y, x, z+1/2'
5 'y, -x+y, z+1/2'
6 '-x, -y, z+1/2'
7 'x, x-y, z'
8 '-x+y, y, z'
9 '-y, -x, z'
10 '-x+y, -x, z'
11 '-y, x-y, z'
12 'x, y, z'
loop_
_atom_type_symbol
_atom_type_oxidation_number
Na1+ 1
Mn2+ 2
O2- -2
loop_
_atom_site_label
_atom_site_type_symbol
_atom_site_symmetry_multiplicity
_atom_site_Wyckoff_symbol
_atom_site_fract_x
_atom_site_fract_y
_atom_site_fract_z
_atom_site_B_iso_or_equiv
_atom_site_occupancy
_atom_site_attached_hydrogens
Na1 Na1+ 6 c 0.13864(17) -0.13864(17) -0.02766(46) 1.142(54) 1 0
Na2 Na1+ 6 c 0.53731(17) -0.53731(17) 0.14552(59) 1.142(54) 1 0
Mn1 Mn2+ 2 b 0.3333333 0.6666667 0.25 0.678(59) 1 0
O1 O2- 2 b 0.3333333 0.6666667 0.9032(14) 0.999(91) 1 0
O2 O2- 6 c 0.81259(24) -0.81259(24) -0.1375(11) 0.999(91) 1 0
#End of TTdata_420410-ICSD