
#(C) 2018 by FIZ Karlsruhe - Leibniz Institute for Information Infrastructure.  All rights reserved.
data_420677-ICSD
_database_code_ICSD 420677
_audit_creation_date 2016-08-01
_chemical_name_systematic 'Dilithium tetrastrontium octanitrido tetrasilicate'
_chemical_formula_structural 'Li2 Sr4 N8 Si4 O'
_chemical_formula_sum 'Li2 N8 O1 Si4 Sr4'
_exptl_crystal_density_diffrn 4.19
_cell_measurement_temperature 294.
_publ_section_title
'Tuning the dimensionality of nitridosilicates in lithium melts'
loop_
_citation_id
_citation_journal_full
_citation_year
_citation_journal_volume
_citation_page_first
_citation_page_last
_citation_journal_id_ASTM
primary 'Angewandte Chemie, International Edition' 2009 48 6335 6338 ACIEF5
loop_
_publ_author_name
'Pagano, S.'
'Lupart, S.'
'Zeuner, M.'
'Schnick, W.'
_cell_length_a 9.2957(13)
_cell_length_b 9.2957(13)
_cell_length_c 5.5528(11)
_cell_angle_alpha 90.
_cell_angle_beta 90.
_cell_angle_gamma 90.
_cell_volume 479.81
_cell_formula_units_Z 2
_symmetry_space_group_name_H-M 'P 4/m n c'
_symmetry_Int_Tables_number 128
_refine_ls_R_factor_all 0.0311
loop_
_symmetry_equiv_pos_site_id
_symmetry_equiv_pos_as_xyz
1 'y+1/2, x+1/2, -z+1/2'
2 '-y+1/2, -x+1/2, -z+1/2'
3 '-y, x, -z'
4 'y, -x, -z'
5 'x+1/2, -y+1/2, -z+1/2'
6 '-x+1/2, y+1/2, -z+1/2'
7 'x, y, -z'
8 '-x, -y, -z'
9 '-y+1/2, -x+1/2, z+1/2'
10 'y+1/2, x+1/2, z+1/2'
11 'y, -x, z'
12 '-y, x, z'
13 '-x+1/2, y+1/2, z+1/2'
14 'x+1/2, -y+1/2, z+1/2'
15 '-x, -y, z'
16 'x, y, z'
loop_
_atom_type_symbol
_atom_type_oxidation_number
O2- -2
N3- -3
Li1+ 1
Sr2+ 2
Si4+ 4
loop_
_atom_site_label
_atom_site_type_symbol
_atom_site_symmetry_multiplicity
_atom_site_Wyckoff_symbol
_atom_site_fract_x
_atom_site_fract_y
_atom_site_fract_z
_atom_site_B_iso_or_equiv
_atom_site_occupancy
_atom_site_attached_hydrogens
O1 O2- 2 b 0.5 0.5 0. 0.0203(18) 1 0
N1 N3- 8 h -0.0622(5) 0.2059(6) 0. 0.0153(10) 1 0
N2 N3- 8 g 0.1745(4) 0.3255(4) -0.75 0.0139(10) 1 0
Li1 Li1+ 4 e 0.5 0.5 0.321(3) 0.021(3) 1 0
Sr1 Sr2+ 8 h 0.44370(6) 0.23384(6) 0. 0.0135(3) 1 0
Si1 Si4+ 8 h 0.11958(17) 0.23108(16) 0. 0.0101(4) 1 0
loop_
_atom_site_aniso_label
_atom_site_aniso_type_symbol
_atom_site_aniso_U_11
_atom_site_aniso_U_22
_atom_site_aniso_U_33
_atom_site_aniso_U_12
_atom_site_aniso_U_13
_atom_site_aniso_U_23
O1 O2- 0.019(3) 0.019(3) 0.022(5) 0. 0. 0.
N1 N3- 0.011(2) 0.017(2) 0.018(3) 0.0014(16) 0. 0.
N2 N3- 0.0128(12) 0.0128(12) 0.016(3) -0.0029(16) -0.0003(12) -0.0003(12)
Li1 Li1+ 0.016(4) 0.016(4) 0.029(9) 0. 0. 0.
Sr1 Sr2+ 0.0106(3) 0.0140(3) 0.0160(4) -0.00016(16) 0. 0.
Si1 Si4+ 0.0099(7) 0.0094(7) 0.0111(9) -0.0007(5) 0. 0.
#End of TTdata_420677-ICSD