
#(C) 2018 by FIZ Karlsruhe - Leibniz Institute for Information Infrastructure.  All rights reserved.
data_420675-ICSD
_database_code_ICSD 420675
_audit_creation_date 2009-08-01
_audit_update_record 2015-02-01
_chemical_name_systematic 'Tricalcium tetralithium hexanitrido disilicide'
_chemical_formula_structural 'Ca3 Li4 N6 Si2'
_chemical_formula_sum 'Ca3 Li4 N6 Si2'
_chemical_name_structure_type Li4Ca3Si2N6
_exptl_crystal_density_diffrn 2.85
_cell_measurement_temperature 294.
_publ_section_title
'Tuning the dimensionality of nitridosilicates in lithium melts'
loop_
_citation_id
_citation_journal_full
_citation_year
_citation_journal_volume
_citation_page_first
_citation_page_last
_citation_journal_id_ASTM
primary 'Angewandte Chemie, International Edition' 2009 48 6335 6338 ACIEF5
loop_
_publ_author_name
'Pagano, S.'
'Lupart, S.'
'Zeuner, M.'
'Schnick, W.'
_cell_length_a 5.7873(12)
_cell_length_b 9.7045(19)
_cell_length_c 5.9771(12)
_cell_angle_alpha 90.
_cell_angle_beta 90.45(3)
_cell_angle_gamma 90.
_cell_volume 335.68
_cell_formula_units_Z 2
_symmetry_space_group_name_H-M 'C 1 2/m 1'
_symmetry_Int_Tables_number 12
_refine_ls_R_factor_all 0.0219
loop_
_symmetry_equiv_pos_site_id
_symmetry_equiv_pos_as_xyz
1 '-x, y, -z'
2 '-x, -y, -z'
3 'x, -y, z'
4 'x, y, z'
5 '-x+1/2, y+1/2, -z'
6 '-x+1/2, -y+1/2, -z'
7 'x+1/2, -y+1/2, z'
8 'x+1/2, y+1/2, z'
loop_
_atom_type_symbol
_atom_type_oxidation_number
Ca2+ 2
Si4+ 4
N3- -3
Li1+ 1
loop_
_atom_site_label
_atom_site_type_symbol
_atom_site_symmetry_multiplicity
_atom_site_Wyckoff_symbol
_atom_site_fract_x
_atom_site_fract_y
_atom_site_fract_z
_atom_site_B_iso_or_equiv
_atom_site_occupancy
_atom_site_attached_hydrogens
Ca1 Ca2+ 2 b 0.5 0. 0. 0.01019(17) 1 0
Ca2 Ca2+ 4 h 0. 0.31451(5) 0.5 0.00737(14) 1 0
Si1 Si4+ 4 i 0.11822(10) 0. 0.33055(9) 0.00334(15) 1 0
N1 N3- 8 j 0.2154(2) 0.14889(14) 0.2102(2) 0.0058(2) 1 0
N2 N3- 4 i 0.1926(3) 0. 0.6316(3) 0.0059(3) 1 0
Li1 Li1+ 8 j 0.3612(5) 0.3244(3) 0.1262(5) 0.0101(5) 1 0
loop_
_atom_site_aniso_label
_atom_site_aniso_type_symbol
_atom_site_aniso_U_11
_atom_site_aniso_U_22
_atom_site_aniso_U_33
_atom_site_aniso_U_12
_atom_site_aniso_U_13
_atom_site_aniso_U_23
Ca1 Ca2+ 0.0108(3) 0.0091(3) 0.0108(3) 0. 0.0067(2) 0.
Ca2 Ca2+ 0.0062(2) 0.0098(3) 0.0062(2) 0. -0.00177(15) 0.
Si1 Si4+ 0.0029(3) 0.0039(3) 0.0032(3) 0. 0.00079(18) 0.
N1 N3- 0.0051(5) 0.0065(6) 0.0057(5) -0.0003(4) -0.0009(4) 0.0013(4)
N2 N3- 0.0033(7) 0.0096(9) 0.0049(7) 0. 0.0006(6) 0.
Li1 Li1+ 0.0105(12) 0.0107(15) 0.0092(12) -0.0018(10) -0.0017(11) 0.0021(9)
#End of TTdata_420675-ICSD