
#(C) 2019 by FIZ Karlsruhe - Leibniz Institute for Information Infrastructure.  All rights reserved.
data_421377-ICSD
_database_code_ICSD 421377
_audit_creation_date 2016-08-01
_chemical_name_systematic 'Sodium cadmium tris(hydrogenphosphate) hydrate'
_chemical_formula_structural 'Na Cd (H2 P O3)3 (H2 O)'
_chemical_formula_sum 'H8 Cd1 Na1 O10 P3'
_chemical_name_structure_type NaCo(H2PO3)3H2O
_exptl_crystal_density_diffrn 2.49
_cell_measurement_temperature 292.
_publ_section_title

;
Crystal structure of Na Cd (H2 P O3)3 * H2 O and spectroscopic study of Na M
(H2 P O3)3 * H2 O, M = Mn, Co, Ni, Zn, Mg and Cd
;
loop_
_citation_id
_citation_journal_full
_citation_year
_citation_journal_volume
_citation_page_first
_citation_page_last
_citation_journal_id_ASTM
primary Polyhedron 2016 106 132 137 PLYHDE
loop_
_publ_author_name
'Ouarsal, Rachid'
'Lachkar, Mohammed'
'Dusek, Michal'
'Barrachina Albert, Ester'
'Carda Castello, Juan Bautista'
'El Bali, Brahim'
_cell_length_a 9.290(2)
_cell_length_b 15.1236(23)
_cell_length_c 15.0592(14)
_cell_angle_alpha 90
_cell_angle_beta 90
_cell_angle_gamma 90
_cell_volume 2115.79
_cell_formula_units_Z 8
_symmetry_space_group_name_H-M 'P b c a'
_symmetry_Int_Tables_number 61
_refine_ls_R_factor_all 0.0189
loop_
_symmetry_equiv_pos_site_id
_symmetry_equiv_pos_as_xyz
1 'x+1/2, y, -z+1/2'
2 'x, -y+1/2, z+1/2'
3 '-x+1/2, y+1/2, z'
4 '-x, -y, -z'
5 '-x+1/2, -y, z+1/2'
6 '-x, y+1/2, -z+1/2'
7 'x+1/2, -y+1/2, -z'
8 'x, y, z'
loop_
_atom_type_symbol
_atom_type_oxidation_number
Cd2+ 2
Na1+ 1
P3+ 3
H1+ 1
P3+ 3
H1+ 1
P3+ 3
H1+ 1
O2- -2
H1+ 1
O2- -2
H1+ 1
O2- -2
H1+ 1
O2- -2
H1+ 1
loop_
_atom_site_label
_atom_site_type_symbol
_atom_site_symmetry_multiplicity
_atom_site_Wyckoff_symbol
_atom_site_fract_x
_atom_site_fract_y
_atom_site_fract_z
_atom_site_B_iso_or_equiv
_atom_site_occupancy
_atom_site_attached_hydrogens
Cd1 Cd2+ 8 c 0.445114(19) 0.841270(11) 0.545461(11) 0.01714(7) 1 0
Na1 Na1+ 8 c 0.55469(10) 0.65065(6) 0.43958(7) 0.0233(3) 1 0
P1 P3+ 8 c 0.23841(7) 0.53375(4) 0.50936(4) 0.01843(18) 1 0
H1 H1+ 8 c 0.257(2) 0.5568(17) 0.4279(19) 0.0221 1 0
P2 P3+ 8 c 0.73954(6) 0.72564(4) 0.62365(4) 0.01632(17) 1 0
H2 H1+ 8 c 0.742(3) 0.6474(15) 0.6653(18) 0.0196 1 0
P3 P3+ 8 c 0.45988(7) 0.53088(4) 0.24246(4) 0.01824(18) 1 0
H3 H1+ 8 c 0.318(2) 0.5387(15) 0.2414(17) 0.0219 1 0
O1 O2- 8 c 0.3765(2) 0.57398(12) 0.55272(14) 0.0388(7) 1 0
H4 H1+ 8 c 0.409(3) 0.5398(16) 0.5895(17) 0.0465 1 0
O2 O2- 8 c 0.1077(2) 0.58345(13) 0.54054(12) 0.0296(6) 1 0
O3 O2- 8 c 0.23652(17) 0.43584(11) 0.52371(13) 0.0269(6) 1 0
O4 O2- 8 c 0.73204(19) 0.79355(12) 0.70329(12) 0.0287(6) 1 0
H5 H1+ 8 c 0.664(2) 0.8266(15) 0.698(2) 0.0345 1 0
O5 O2- 8 c 0.60684(19) 0.73373(10) 0.56759(12) 0.0224(5) 1 0
O6 O2- 8 c 0.88067(18) 0.73728(11) 0.57701(12) 0.0231(5) 1 0
O7 O2- 8 c 0.4973(3) 0.43625(13) 0.20714(14) 0.0401(7) 1 0
H6 H1+ 8 c 0.467(3) 0.428(2) 0.1566(11) 0.0481 1 0
O8 O2- 8 c 0.5145(2) 0.53744(11) 0.33576(12) 0.0275(6) 1 0
O9 O2- 8 c 0.5142(2) 0.60146(12) 0.18012(12) 0.0288(6) 1 0
O10 O2- 8 c 0.7618(2) 0.73954(13) 0.38164(12) 0.0291(6) 1 0
H7 H1+ 8 c 0.771(3) 0.740(2) 0.3284(7) 0.035 1 0
H8 H1+ 8 c 0.759(3) 0.7920(7) 0.392(2) 0.035 1 0
loop_
_atom_site_aniso_label
_atom_site_aniso_type_symbol
_atom_site_aniso_U_11
_atom_site_aniso_U_22
_atom_site_aniso_U_33
_atom_site_aniso_U_12
_atom_site_aniso_U_13
_atom_site_aniso_U_23
Cd1 Cd2+ 0.01605(12) 0.01862(11) 0.01674(12) 0.00146(6) -0.00081(7) -0.00207(7)
Na1 Na1+ 0.0192(6) 0.0242(5) 0.0267(6) 0.0062(4) -0.0050(4) -0.0105(4)
P1 P3+ 0.0181(3) 0.0166(3) 0.0207(3) -0.0002(2) -0.0011(3) 0.0017(3)
P2 P3+ 0.0162(3) 0.0181(3) 0.0147(3) 0.0020(2) -0.0001(3) 0.0009(2)
P3 P3+ 0.0205(3) 0.0200(3) 0.0141(3) -0.0016(2) -0.0015(3) 0.0012(3)
O1 O2- 0.0404(12) 0.0235(10) 0.0525(14) -0.0117(9) -0.0248(10) 0.0145(9)
O2 O2- 0.0361(11) 0.0304(10) 0.0223(10) 0.0167(9) 0.0039(8) 0.0050(8)
O3 O2- 0.0179(9) 0.0152(8) 0.0475(12) 0.0000(7) -0.0021(8) 0.0011(8)
O4 O2- 0.0268(10) 0.0417(11) 0.0177(9) 0.0139(9) -0.0049(8) -0.0105(8)
O5 O2- 0.0207(9) 0.0226(9) 0.0238(10) 0.0051(7) -0.0064(8) -0.0061(7)
O6 O2- 0.0176(9) 0.0293(9) 0.0225(9) -0.0037(7) 0.0038(8) -0.0074(8)
O7 O2- 0.0662(14) 0.0274(10) 0.0268(11) 0.0109(10) -0.0105(11) -0.0075(9)
O8 O2- 0.0409(11) 0.0256(9) 0.0160(9) 0.0021(8) -0.0043(8) -0.0002(7)
O9 O2- 0.0336(11) 0.0309(10) 0.0219(10) -0.0099(8) -0.0048(9) 0.0093(8)
O10 O2- 0.0433(12) 0.0240(9) 0.0202(10) 0.0071(8) -0.0056(9) -0.0012(8)
#End of TTdata_421377-ICSD