
#(C) 2019 by FIZ Karlsruhe - Leibniz Institute for Information Infrastructure.  All rights reserved.
data_421446-ICSD
_database_code_ICSD 421446
_audit_creation_date 2015-08-01
_chemical_name_systematic
'Sodium-1.2 europium(II)-3.4 nonathio-trigermanate dichloride'
_chemical_formula_structural 'Na1.2 Eu3.4 (Ge3 S9) Cl2'
_chemical_formula_sum 'Cl2 Eu3.4 Ge3 Na1.2 S9'
_exptl_crystal_density_diffrn 4.03
_cell_measurement_temperature 293.
_publ_section_title

;
Alkali-metal thiogermanates: sodium channels and variations on the La3 Cu Si
S7 structure type
;
loop_
_citation_id
_citation_journal_full
_citation_year
_citation_journal_volume
_citation_page_first
_citation_page_last
_citation_journal_id_ASTM
primary 'Inorganic Chemistry' 2015 54 1055 1065 INOCAJ
loop_
_publ_author_name
'Choudhury, Amitava'
'Dorhout, Peter K.'
_cell_length_a 9.5388(3)
_cell_length_b 9.5388(3)
_cell_length_c 11.7178(9)
_cell_angle_alpha 90.
_cell_angle_beta 90.
_cell_angle_gamma 120.
_cell_volume 923.34
_cell_formula_units_Z 2
_symmetry_space_group_name_H-M 'P 63'
_symmetry_Int_Tables_number 173
_refine_ls_R_factor_all 0.0322
loop_
_symmetry_equiv_pos_site_id
_symmetry_equiv_pos_as_xyz
1 'x-y, x, z+1/2'
2 'y, -x+y, z+1/2'
3 '-x, -y, z+1/2'
4 '-x+y, -x, z'
5 '-y, x-y, z'
6 'x, y, z'
loop_
_atom_type_symbol
_atom_type_oxidation_number
Eu2+ 2
Na1+ 1
Ge4+ 4
Cl1- -1
S2- -2
Na1+ 1
loop_
_atom_site_label
_atom_site_type_symbol
_atom_site_symmetry_multiplicity
_atom_site_Wyckoff_symbol
_atom_site_fract_x
_atom_site_fract_y
_atom_site_fract_z
_atom_site_B_iso_or_equiv
_atom_site_occupancy
_atom_site_attached_hydrogens
Eu1 Eu2+ 2 b 0.3333 0.6667 0.3333 0.01891(17) 1 0
Eu2 Eu2+ 6 c 0.25221(6) 0.33665(6) 0.65419(8) 0.03261(17) 0.8 0
Na1 Na1+ 6 c 0.25221(6) 0.33665(6) 0.65419(8) 0.03261(17) 0.2 0
Ge1 Ge4+ 6 c 0.66311(8) 0.55292(8) 0.49264(8) 0.01764(19) 1 0
Cl1 Cl1- 2 b 0.3333 0.6667 0.5921(3) 0.0276(7) 1 0
Cl2 Cl1- 2 a 0. 0. 0.6404(4) 0.0366(8) 1 0
S1 S2- 6 c 0.4420(2) 0.3297(2) 0.42959(19) 0.0261(4) 1 0
S2 S2- 6 c 0.6748(2) 0.7503(2) 0.3939(2) 0.0249(4) 1 0
S3 S2- 6 c 0.6497(3) 0.5760(2) 0.67457(19) 0.0332(5) 1 0
Na2 Na1+ 2 a 0. 0. 0.3951(10) 0.034(2) 0.6 0
loop_
_atom_site_aniso_label
_atom_site_aniso_type_symbol
_atom_site_aniso_U_11
_atom_site_aniso_U_22
_atom_site_aniso_U_33
_atom_site_aniso_U_12
_atom_site_aniso_U_13
_atom_site_aniso_U_23
Eu1 Eu2+ 0.0193(2) 0.0193(2) 0.0181(3) 0.00966(10) 0. 0.
Eu2 Eu2+ 0.0244(3) 0.0255(3) 0.0437(3) 0.00929(19) -0.0012(2) 0.0034(2)
Na1 Na1+ 0.0244(3) 0.0255(3) 0.0437(3) 0.00929(19) -0.0012(2) 0.0034(2)
Ge1 Ge4+ 0.0190(4) 0.0162(3) 0.0186(4) 0.0095(3) -0.0010(3) 0.0024(3)
Cl1 Cl1- 0.0283(10) 0.0283(10) 0.0264(17) 0.0141(5) 0. 0.
Cl2 Cl1- 0.0255(9) 0.0255(9) 0.059(2) 0.0128(5) 0. 0.
S1 S2- 0.0229(9) 0.0208(9) 0.0325(11) 0.0095(8) -0.0097(8) 0.0016(7)
S2 S2- 0.0206(9) 0.0199(8) 0.0345(11) 0.0104(8) -0.0021(8) 0.0079(8)
S3 S2- 0.0597(13) 0.0318(9) 0.0186(9) 0.0307(10) -0.0022(9) 0.0012(8)
Na2 Na1+ 0.030(3) 0.030(3) 0.043(6) 0.0149(14) 0. 0.
#End of TTdata_421446-ICSD