
#(C) 2019 by FIZ Karlsruhe - Leibniz Institute for Information Infrastructure.  All rights reserved.
data_421444-ICSD
_database_code_ICSD 421444
_audit_creation_date 2015-08-01
_chemical_name_systematic 'Sodium trigadolinium germanium heptasulfide'
_chemical_formula_structural 'Na Gd3 Ge S7'
_chemical_formula_sum 'Gd3 Ge1 Na1 S7'
_chemical_name_structure_type La3CuSiS7
_exptl_crystal_density_diffrn 5.38
_cell_measurement_temperature 293.
_publ_section_title

;
Alkali-metal thiogermanates: sodium channels and variations on the La3 Cu Si
S7 structure type
;
loop_
_citation_id
_citation_journal_full
_citation_year
_citation_journal_volume
_citation_page_first
_citation_page_last
_citation_journal_id_ASTM
primary 'Inorganic Chemistry' 2015 54 1055 1065 INOCAJ
loop_
_publ_author_name
'Choudhury, Amitava'
'Dorhout, Peter K.'
_cell_length_a 9.8646(4)
_cell_length_b 9.8646(4)
_cell_length_c 5.8007(5)
_cell_angle_alpha 90.
_cell_angle_beta 90.
_cell_angle_gamma 120.
_cell_volume 488.84
_cell_formula_units_Z 2
_symmetry_space_group_name_H-M 'P 63'
_symmetry_Int_Tables_number 173
_refine_ls_R_factor_all 0.0193
loop_
_symmetry_equiv_pos_site_id
_symmetry_equiv_pos_as_xyz
1 'x-y, x, z+1/2'
2 'y, -x+y, z+1/2'
3 '-x, -y, z+1/2'
4 '-x+y, -x, z'
5 '-y, x-y, z'
6 'x, y, z'
loop_
_atom_type_symbol
_atom_type_oxidation_number
Gd3+ 3
Na1+ 1
Ge4+ 4
S2- -2
loop_
_atom_site_label
_atom_site_type_symbol
_atom_site_symmetry_multiplicity
_atom_site_Wyckoff_symbol
_atom_site_fract_x
_atom_site_fract_y
_atom_site_fract_z
_atom_site_B_iso_or_equiv
_atom_site_occupancy
_atom_site_attached_hydrogens
Gd1 Gd3+ 6 c 0.13486(3) 0.35726(3) 0.7543(2) 0.01696(12) 1 0
Na1 Na1+ 2 a 0. 0. 0.4658(15) 0.0415(19) 1 0
Ge1 Ge4+ 2 b 0.3333 0.6667 0.3333 0.0108(3) 1 0
S1 S2- 2 b 0.3333 0.6667 0.9581(5) 0.0122(6) 1 0
S2 S2- 6 c 0.8449(2) 0.0971(2) 0.7167(4) 0.0187(4) 1 0
S3 S2- 6 c 0.4792(2) 0.9021(2) 0.4900(4) 0.0123(3) 1 0
loop_
_atom_site_aniso_label
_atom_site_aniso_type_symbol
_atom_site_aniso_U_11
_atom_site_aniso_U_22
_atom_site_aniso_U_33
_atom_site_aniso_U_12
_atom_site_aniso_U_13
_atom_site_aniso_U_23
Gd1 Gd3+ 0.01237(17) 0.01321(17) 0.0258(2) 0.00681(12) 0.00183(19) 0.00038(19)
Na1 Na1+ 0.033(2) 0.033(2) 0.058(5) 0.0166(10) 0. 0.
Ge1 Ge4+ 0.0113(4) 0.0113(4) 0.0100(5) 0.00563(18) 0. 0.
S1 S2- 0.0134(9) 0.0134(9) 0.0096(14) 0.0067(4) 0. 0.
S2 S2- 0.0144(7) 0.0106(7) 0.0265(10) 0.0028(6) -0.0078(7) -0.0002(7)
S3 S2- 0.0119(8) 0.0096(7) 0.0122(7) 0.0029(7) 0.0002(7) -0.0007(6)
#End of TTdata_421444-ICSD