
#(C) 2019 by FIZ Karlsruhe - Leibniz Institute for Information Infrastructure.  All rights reserved.
data_421412-ICSD
_database_code_ICSD 421412
_audit_creation_date 2011-02-01
_chemical_name_systematic 'Barium sodium yttrium di(orthoborate)'
_chemical_formula_structural 'Ba Na Y (B O3)2'
_chemical_formula_sum 'B2 Ba1 Na1 O6 Y1'
_chemical_name_structure_type BaNaSc(BO3)2
_exptl_crystal_density_diffrn 4.14
_cell_measurement_temperature 293.
_publ_section_title

;
Synthesis and crystal structure of new layered Ba Na Sc (B O3)2 and Ba Na Y (B
O3)2 orthoborates
;
loop_
_citation_id
_citation_journal_full
_citation_year
_citation_journal_volume
_citation_page_first
_citation_page_last
_citation_journal_id_ASTM
primary 'Journal of Solid State Chemistry' 2010 183 1200 1204 JSSCBI
loop_
_publ_author_name
'Seryotkin, Y.V.'
'Bakakin, V.V.'
'Kokh, A.E.'
'Kononova, N.G.'
'Svetlyakova, T.N.'
'Kokh, K.A.'
'Drebushchak, T.N.'
_cell_length_a 5.3338(2)
_cell_length_b 5.3338(2)
_cell_length_c 35.8303(19)
_cell_angle_alpha 90.
_cell_angle_beta 90.
_cell_angle_gamma 120.
_cell_volume 882.78
_cell_formula_units_Z 6
_symmetry_space_group_name_H-M 'R -3 H'
_symmetry_Int_Tables_number 148
_refine_ls_R_factor_all 0.0325
loop_
_symmetry_equiv_pos_site_id
_symmetry_equiv_pos_as_xyz
1 'x-y, x, -z'
2 'y, -x+y, -z'
3 '-x, -y, -z'
4 '-x+y, -x, z'
5 '-y, x-y, z'
6 'x, y, z'
7 'x-y+2/3, x+1/3, -z+1/3'
8 'y+2/3, -x+y+1/3, -z+1/3'
9 '-x+2/3, -y+1/3, -z+1/3'
10 '-x+y+2/3, -x+1/3, z+1/3'
11 '-y+2/3, x-y+1/3, z+1/3'
12 'x+2/3, y+1/3, z+1/3'
13 'x-y+1/3, x+2/3, -z+2/3'
14 'y+1/3, -x+y+2/3, -z+2/3'
15 '-x+1/3, -y+2/3, -z+2/3'
16 '-x+y+1/3, -x+2/3, z+2/3'
17 '-y+1/3, x-y+2/3, z+2/3'
18 'x+1/3, y+2/3, z+2/3'
loop_
_atom_type_symbol
_atom_type_oxidation_number
Ba2+ 2
Na1+ 1
Y3+ 3
B3+ 3
O2- -2
loop_
_atom_site_label
_atom_site_type_symbol
_atom_site_symmetry_multiplicity
_atom_site_Wyckoff_symbol
_atom_site_fract_x
_atom_site_fract_y
_atom_site_fract_z
_atom_site_B_iso_or_equiv
_atom_site_occupancy
_atom_site_attached_hydrogens
Ba1 Ba2+ 6 c 1. 0. 0.101928(10) 0.01048(12) 1 0
Na1 Na1+ 6 c 0.3333 0.6667 0.05259(18) 0.0365(12) 1 0
Y1 Y3+ 3 a 1. 0. 0. 0.00852(15) 1 0
Y2 Y3+ 3 b 0.3333 0.6667 0.1667 0.00748(15) 1 0
B1 B3+ 6 c 0.6667 0.3333 0.0399(2) 0.0154(12) 1 0
B2 B3+ 6 c 0.6667 0.3333 0.1271(2) 0.0137(11) 1 0
O1 O2- 18 f 0.3728(8) 0.1986(15) 0.03957(10) 0.0505(17) 1 0
O2 O2- 18 f 0.9627(6) 0.4812(6) 0.12720(10) 0.0170(5) 1 0
loop_
_atom_site_aniso_label
_atom_site_aniso_type_symbol
_atom_site_aniso_U_11
_atom_site_aniso_U_22
_atom_site_aniso_U_33
_atom_site_aniso_U_12
_atom_site_aniso_U_13
_atom_site_aniso_U_23
Ba1 Ba2+ 0.01000(13) 0.01000(13) 0.01145(17) 0.00500(7) 0. 0.
Na1 Na1+ 0.0089(8) 0.0089(8) 0.092(4) 0.0045(4) 0. 0.
Y1 Y3+ 0.0091(2) 0.0091(2) 0.0074(3) 0.00455(10) 0. 0.
Y2 Y3+ 0.00538(18) 0.00538(18) 0.0117(3) 0.00269(9) 0. 0.
B1 B3+ 0.0174(18) 0.0174(18) 0.012(3) 0.0087(9) 0. 0.
B2 B3+ 0.0115(15) 0.0115(15) 0.018(3) 0.0057(8) 0. 0.
O1 O2- 0.0076(13) 0.101(4) 0.0129(13) 0.0044(18) -0.0015(10) -0.0011(19)
O2 O2- 0.0084(10) 0.0119(10) 0.0297(14) 0.0043(9) -0.0063(10) -0.0031(10)
#End of TTdata_421412-ICSD