
#(C) 2019 by FIZ Karlsruhe - Leibniz Institute for Information Infrastructure.  All rights reserved.
data_421442-ICSD
_database_code_ICSD 421442
_audit_creation_date 2015-08-01
_chemical_name_systematic 'Sodium trisamarium germanium heptasulfide'
_chemical_formula_structural 'Na Sm3 Ge S7'
_chemical_formula_sum 'Ge1 Na1 S7 Sm3'
_chemical_name_structure_type La3CuSiS7
_exptl_crystal_density_diffrn 5.16
_cell_measurement_temperature 100.
_publ_section_title

;
Alkali-metal thiogermanates: sodium channels and variations on the La3 Cu Si
S7 structure type
;
loop_
_citation_id
_citation_journal_full
_citation_year
_citation_journal_volume
_citation_page_first
_citation_page_last
_citation_journal_id_ASTM
primary 'Inorganic Chemistry' 2015 54 1055 1065 INOCAJ
loop_
_publ_author_name
'Choudhury, Amitava'
'Dorhout, Peter K.'
_cell_length_a 9.9366(7)
_cell_length_b 9.9366(7)
_cell_length_c 5.8018(8)
_cell_angle_alpha 90.
_cell_angle_beta 90.
_cell_angle_gamma 120.
_cell_volume 496.09
_cell_formula_units_Z 2
_symmetry_space_group_name_H-M 'P 63'
_symmetry_Int_Tables_number 173
_refine_ls_R_factor_all 0.0321
loop_
_symmetry_equiv_pos_site_id
_symmetry_equiv_pos_as_xyz
1 'x-y, x, z+1/2'
2 'y, -x+y, z+1/2'
3 '-x, -y, z+1/2'
4 '-x+y, -x, z'
5 '-y, x-y, z'
6 'x, y, z'
loop_
_atom_type_symbol
_atom_type_oxidation_number
Sm3+ 3
Na1+ 1
Ge4+ 4
S2- -2
loop_
_atom_site_label
_atom_site_type_symbol
_atom_site_symmetry_multiplicity
_atom_site_Wyckoff_symbol
_atom_site_fract_x
_atom_site_fract_y
_atom_site_fract_z
_atom_site_B_iso_or_equiv
_atom_site_occupancy
_atom_site_attached_hydrogens
Sm1 Sm3+ 6 c 0.13209(5) 0.35691(5) 0.7539(3) 0.0151(2) 1 0
Na1 Na1+ 2 a 0. 0. 0.480(3) 0.051(3) 1 0
Ge1 Ge4+ 2 b 0.3333 0.6667 0.3333 0.0083(3) 1 0
S1 S2- 2 b 0.3333 0.6667 0.9581(7) 0.0089(7) 1 0
S2 S2- 6 c 0.8410(3) 0.0955(3) 0.7222(6) 0.0151(5) 1 0
S3 S2- 6 c 0.4800(3) 0.9006(3) 0.4896(5) 0.0099(4) 1 0
loop_
_atom_site_aniso_label
_atom_site_aniso_type_symbol
_atom_site_aniso_U_11
_atom_site_aniso_U_22
_atom_site_aniso_U_33
_atom_site_aniso_U_12
_atom_site_aniso_U_13
_atom_site_aniso_U_23
Sm1 Sm3+ 0.0101(3) 0.0109(3) 0.0252(3) 0.00591(17) 0.0028(2) 0.0011(2)
Na1 Na1+ 0.041(3) 0.041(3) 0.071(8) 0.0204(16) 0. 0.
Ge1 Ge4+ 0.0081(5) 0.0081(5) 0.0089(7) 0.0040(2) 0. 0.
S1 S2- 0.0096(11) 0.0096(11) 0.0073(17) 0.0048(5) 0. 0.
S2 S2- 0.0112(9) 0.0072(9) 0.0227(12) 0.0014(8) -0.0077(9) 0.0001(9)
S3 S2- 0.0092(10) 0.0069(9) 0.0102(9) 0.0016(9) -0.0005(8) -0.0004(8)
#End of TTdata_421442-ICSD