
#(C) 2019 by FIZ Karlsruhe - Leibniz Institute for Information Infrastructure.  All rights reserved.
data_421531-ICSD
_database_code_ICSD 421531
_audit_creation_date 2011-02-01
_chemical_name_systematic 'Sodium dititanium tris(arsenate(V))'
_chemical_formula_structural 'Na Ti2 (As O4)3'
_chemical_formula_sum 'As3 Na1 O12 Ti2'
_chemical_name_structure_type NaZr2(PO4)3
_exptl_crystal_density_diffrn 3.57
_publ_section_title 'Crystal structure of the arsenate(V) Na Ti2 [As O4]3'
loop_
_citation_id
_citation_journal_full
_citation_year
_citation_journal_volume
_citation_page_first
_citation_page_last
_citation_journal_id_ASTM
primary 'Zeitschrift fuer Naturforschung, B: A Journal of Chemical Sciences'
2010 65 639 642 ZNBSEN
loop_
_publ_author_name
'Ben Yahia, H.'
'Rodewald, U.C.'
'Poettgen, R.'
_cell_length_a 8.8057(5)
_cell_length_b 8.8057(5)
_cell_length_c 22.2406(15)
_cell_angle_alpha 90
_cell_angle_beta 90
_cell_angle_gamma 120
_cell_volume 1493.5
_cell_formula_units_Z 6
_symmetry_space_group_name_H-M 'R -3 c H'
_symmetry_Int_Tables_number 167
_refine_ls_R_factor_all 0.0315
loop_
_symmetry_equiv_pos_site_id
_symmetry_equiv_pos_as_xyz
1 'x-y, -y, -z+1/2'
2 '-x, -x+y, -z+1/2'
3 'y, x, -z+1/2'
4 'x-y, x, -z'
5 'y, -x+y, -z'
6 '-x, -y, -z'
7 '-x+y, y, z+1/2'
8 'x, x-y, z+1/2'
9 '-y, -x, z+1/2'
10 '-x+y, -x, z'
11 '-y, x-y, z'
12 'x, y, z'
13 'x-y+2/3, -y+1/3, -z+5/6'
14 '-x+2/3, -x+y+1/3, -z+5/6'
15 'y+2/3, x+1/3, -z+5/6'
16 'x-y+2/3, x+1/3, -z+1/3'
17 'y+2/3, -x+y+1/3, -z+1/3'
18 '-x+2/3, -y+1/3, -z+1/3'
19 '-x+y+2/3, y+1/3, z+5/6'
20 'x+2/3, x-y+1/3, z+5/6'
21 '-y+2/3, -x+1/3, z+5/6'
22 '-x+y+2/3, -x+1/3, z+1/3'
23 '-y+2/3, x-y+1/3, z+1/3'
24 'x+2/3, y+1/3, z+1/3'
25 'x-y+1/3, -y+2/3, -z+1/6'
26 '-x+1/3, -x+y+2/3, -z+1/6'
27 'y+1/3, x+2/3, -z+1/6'
28 'x-y+1/3, x+2/3, -z+2/3'
29 'y+1/3, -x+y+2/3, -z+2/3'
30 '-x+1/3, -y+2/3, -z+2/3'
31 '-x+y+1/3, y+2/3, z+1/6'
32 'x+1/3, x-y+2/3, z+1/6'
33 '-y+1/3, -x+2/3, z+1/6'
34 '-x+y+1/3, -x+2/3, z+2/3'
35 '-y+1/3, x-y+2/3, z+2/3'
36 'x+1/3, y+2/3, z+2/3'
loop_
_atom_type_symbol
_atom_type_oxidation_number
Na1+ 1
Ti4+ 4
As5+ 5
O2- -2
loop_
_atom_site_label
_atom_site_type_symbol
_atom_site_symmetry_multiplicity
_atom_site_Wyckoff_symbol
_atom_site_fract_x
_atom_site_fract_y
_atom_site_fract_z
_atom_site_B_iso_or_equiv
_atom_site_occupancy
_atom_site_attached_hydrogens
Na1 Na1+ 6 b 0 0 0 0.0283(9) 1 0
Ti1 Ti4+ 12 c 0 0 0.14354(3) 0.00755(18) 1 0
As1 As5+ 18 e 0.28614(4) 0 0.25 0.00772(13) 1 0
O1 O2- 36 f 0.1664(4) -0.0269(4) 0.18842(10) 0.0246(10) 1 0
O2 O2- 36 f 0.1827(3) 0.1548(3) 0.08635(9) 0.0177(7) 1 0
loop_
_atom_site_aniso_label
_atom_site_aniso_type_symbol
_atom_site_aniso_U_11
_atom_site_aniso_U_22
_atom_site_aniso_U_33
_atom_site_aniso_U_12
_atom_site_aniso_U_13
_atom_site_aniso_U_23
Na1 Na1+ 0.0381(13) 0.0381(13) 0.0086(11) 0.0191(6) 0 0
Ti1 Ti4+ 0.0074(2) 0.0074(2) 0.0079(3) 0.00369(12) 0 0
As1 As5+ 0.00652(16) 0.00745(19) 0.00949(18) 0.00373(10) 0.00099(6) 0.00198(11)
O1 O2- 0.0240(12) 0.0331(13) 0.0226(9) 0.0187(10) -0.0131(9) -0.0012(10)
O2 O2- 0.0107(9) 0.0143(9) 0.0158(8) -0.0032(8) 0.0041(7) 0.0006(7)
#End of TTdata_421531-ICSD