
#(C) 2019 by FIZ Karlsruhe - Leibniz Institute for Information Infrastructure.  All rights reserved.
data_421512-ICSD
_database_code_ICSD 421512
_audit_creation_date 2010-08-01
_chemical_name_systematic
'Calcium manganese sodium arsenate(V) (0.74/2.59/0.88/3)'
_chemical_formula_structural 'Ca0.74 Mn2.59 Na0.88 (As O4)3'
_chemical_formula_sum 'As3 Ca0.74 Mn2.59 Na0.88 O12'
_chemical_name_structure_type Alluaudite
_exptl_crystal_density_diffrn 4.14
_cell_measurement_temperature 298.
_publ_section_title 'Calcium manganese sodium arsenate'
loop_
_citation_id
_citation_journal_full
_citation_year
_citation_journal_volume
_citation_page_first
_citation_page_last
_citation_journal_id_ASTM
primary 'Private Communication' 2010 2 1 1 PRICO6
loop_
_publ_author_name
'Frigui, W.'
_cell_length_a 12.204(3)
_cell_length_b 12.968(3)
_cell_length_c 6.744(4)
_cell_angle_alpha 90
_cell_angle_beta 113.685(3)
_cell_angle_gamma 90
_cell_volume 977.41
_cell_formula_units_Z 4
_symmetry_space_group_name_H-M 'C 1 2/c 1'
_symmetry_Int_Tables_number 15
_refine_ls_R_factor_all 0.0217
loop_
_symmetry_equiv_pos_site_id
_symmetry_equiv_pos_as_xyz
1 'x, -y, z+1/2'
2 '-x, -y, -z'
3 '-x, y, -z+1/2'
4 'x, y, z'
5 'x+1/2, -y+1/2, z+1/2'
6 '-x+1/2, -y+1/2, -z'
7 '-x+1/2, y+1/2, -z+1/2'
8 'x+1/2, y+1/2, z'
loop_
_atom_type_symbol
_atom_type_oxidation_number
As5+ 5
Mn2+ 2.56
Ca2+ 2
Na1+ 1
O2- -2
loop_
_atom_site_label
_atom_site_type_symbol
_atom_site_symmetry_multiplicity
_atom_site_Wyckoff_symbol
_atom_site_fract_x
_atom_site_fract_y
_atom_site_fract_z
_atom_site_B_iso_or_equiv
_atom_site_occupancy
_atom_site_attached_hydrogens
As1 As5+ 8 f 0.26540(3) 0.39064(3) 0.37196(6) 0.01349(14) 1 0
As2 As5+ 4 e 0 0.28573(4) 0.75 0.01442(15) 1 0
Mn1 Mn2+ 8 f 0.28054(6) 0.34456(5) 0.86636(10) 0.0120(2) 0.828(2) 0
Mn2 Mn2+ 4 e 0 0.26754(6) 0.25 0.0127(3) 0.934(4) 0
Ca1 Ca2+ 4 b 0 0.5 0 0.0287(6) 0.741(5) 0
Na1 Na1+ 4 e 0.5 0.5124(2) 0.75 0.0279(8) 0.872(7) 0
O1 O2- 8 f 0.1184(2) 0.4045(2) 0.3120(5) 0.0210(6) 1 0
O2 O2- 8 f 0.3363(2) 0.3311(2) 0.6141(4) 0.0198(6) 1 0
O3 O2- 8 f 0.3373(3) 0.5043(2) 0.3908(5) 0.0241(7) 1 0
O4 O2- 8 f 0.2785(3) 0.3180(2) 0.1732(4) 0.0245(6) 1 0
O5 O2- 8 f 0.0432(2) 0.2112(2) 0.9743(4) 0.0181(6) 1 0
O6 O2- 8 f 0.8956(3) 0.3693(3) 0.7585(5) 0.0386(8) 1 0
loop_
_atom_site_aniso_label
_atom_site_aniso_type_symbol
_atom_site_aniso_U_11
_atom_site_aniso_U_22
_atom_site_aniso_U_33
_atom_site_aniso_U_12
_atom_site_aniso_U_13
_atom_site_aniso_U_23
As1 As5+ 0.0091(2) 0.0177(2) 0.0108(2) -0.00091(13) 0.00099(14) 0.00157(13)
As2 As5+ 0.0189(3) 0.0124(3) 0.0089(3) 0 0.0022(2) 0
Mn1 Mn2+ 0.0093(3) 0.0155(4) 0.0116(3) -0.0026(2) 0.0044(3) -0.0007(2)
Mn2 Mn2+ 0.0103(4) 0.0114(4) 0.0180(5) 0 0.0074(3) 0
Ca1 Ca2+ 0.0341(10) 0.0167(9) 0.0192(9) -0.0012(7) -0.0061(7) 0.0000(6)
Na1 Na1+ 0.0134(13) 0.049(2) 0.0172(13) 0 0.0021(11) 0
O1 O2- 0.0108(12) 0.0179(14) 0.0317(16) 0.0007(10) 0.0059(12) 0.0054(12)
O2 O2- 0.0173(13) 0.0205(14) 0.0156(13) 0.0042(11) 0.0002(10) 0.0039(11)
O3 O2- 0.0175(14) 0.0262(16) 0.0236(14) -0.0083(11) 0.0031(12) 0.0082(12)
O4 O2- 0.0249(15) 0.0322(16) 0.0168(13) 0.0019(13) 0.0089(11) -0.0004(12)
O5 O2- 0.0176(14) 0.0213(14) 0.0125(12) -0.0038(11) 0.0030(11) 0.0051(11)
O6 O2- 0.042(2) 0.0285(17) 0.0365(19) 0.0122(15) 0.0065(16) -0.0146(15)
#End of TTdata_421512-ICSD