
#(C) 2019 by FIZ Karlsruhe - Leibniz Institute for Information Infrastructure.  All rights reserved.
data_421570-ICSD
_database_code_ICSD 421570
_audit_creation_date 2010-08-01
_chemical_name_systematic 'Silver sodium arseno(V)trimolybdate (2.07/0.93/1)'
_chemical_formula_structural '(Ag2.07 Na0.93) (As Mo3 O13)'
_chemical_formula_sum 'Ag2.07 As1 Mo3 Na0.93 O13'
_exptl_crystal_density_diffrn 4.99
_cell_measurement_temperature 298.
_publ_section_title 'Silver sodium arsenotrimolybdate'
loop_
_citation_id
_citation_journal_full
_citation_year
_citation_journal_volume
_citation_page_first
_citation_page_last
_citation_journal_id_ASTM
primary 'Private Communication' 2010 3 1 1 PRICO6
loop_
_publ_author_name
'Faouzi Zid, M.'
_cell_length_a 8.0632(10)
_cell_length_b 8.2171(10)
_cell_length_c 9.7551(10)
_cell_angle_alpha 113.418(10)
_cell_angle_beta 99.486(10)
_cell_angle_gamma 105.836(10)
_cell_volume 542.56
_cell_formula_units_Z 2
_symmetry_space_group_name_H-M 'P -1'
_symmetry_Int_Tables_number 2
_refine_ls_R_factor_all 0.0305
loop_
_symmetry_equiv_pos_site_id
_symmetry_equiv_pos_as_xyz
1 '-x, -y, -z'
2 'x, y, z'
loop_
_atom_type_symbol
_atom_type_oxidation_number
Mo6+ 6
As5+ 5
Ag1+ 1
Na1+ 1
Ag1+ 1
Na1+ 1
Ag1+ 1
Na1+ 1
O2- -2
loop_
_atom_site_label
_atom_site_type_symbol
_atom_site_symmetry_multiplicity
_atom_site_Wyckoff_symbol
_atom_site_fract_x
_atom_site_fract_y
_atom_site_fract_z
_atom_site_B_iso_or_equiv
_atom_site_occupancy
_atom_site_attached_hydrogens
Mo1 Mo6+ 2 i 0.01511(7) 0.28903(7) 0.35866(6) 0.00836(16) 1 0
Mo2 Mo6+ 2 i 0.19906(7) 0.41277(7) 0.74653(6) 0.00866(16) 1 0
Mo3 Mo6+ 2 i 0.38389(7) 0.55985(7) 1.26729(6) 0.00939(16) 1 0
As1 As5+ 2 i 0.44919(8) 0.77640(8) 0.66832(7) 0.00812(17) 1 0
Ag1 Ag1+ 2 i 0.4055(3) 0.1424(2) 0.93514(19) 0.0208(3) 0.836(4) 0
Na1 Na1+ 2 i 0.414(9) 0.169(8) 0.958(7) 0.0208(3) 0.164(8) 0
Ag2 Ag1+ 2 i -0.1080(4) 0.1521(5) 0.9201(3) 0.0288(4) 0.710(5) 0
Na2 Na1+ 2 i -0.121(6) 0.159(7) 0.938(5) 0.0288(4) 0.290(8) 0
Ag3 Ag1+ 2 i 0.2493(9) 0.9719(10) 0.4725(9) 0.0186(5) 0.526(4) 0
Na3 Na1+ 2 i 0.239(6) 0.976(6) 0.478(5) 0.0186(5) 0.474(8) 0
O1 O2- 2 i 0.2795(7) 0.7125(7) 1.2563(6) 0.0203(10) 1 0
O2 O2- 2 i 0.2847(7) 0.3639(7) 1.0825(6) 0.0183(10) 1 0
O3 O2- 2 i 0.2648(7) 0.6106(7) 0.9260(6) 0.0208(10) 1 0
O4 O2- 2 i 0.2388(6) 0.4348(6) 0.3654(5) 0.0133(9) 1 0
O5 O2- 2 i 0.3871(6) 0.3088(6) 0.7529(5) 0.0116(8) 1 0
O6 O2- 2 i 0.5302(6) 0.7706(6) 1.5189(5) 0.0129(9) 1 0
O7 O2- 2 i 0.0859(6) 0.1789(7) 0.4671(6) 0.0160(9) 1 0
O8 O2- 2 i -0.0573(7) 0.1214(7) 0.1630(6) 0.0177(10) 1 0
O9 O2- 2 i 0.0571(6) 0.4905(6) 0.6239(5) 0.0130(9) 1 0
O10 O2- 2 i 0.4148(6) 0.5666(6) 0.6783(5) 0.0112(8) 1 0
O11 O2- 2 i 0.5864(6) 0.9569(7) 0.8439(6) 0.0188(10) 1 0
O12 O2- 2 i 0.2510(6) 0.8157(6) 0.6337(6) 0.0136(9) 1 0
O13 O2- 2 i 0.0389(6) 0.2362(7) 0.7601(6) 0.0152(9) 1 0
loop_
_atom_site_aniso_label
_atom_site_aniso_type_symbol
_atom_site_aniso_U_11
_atom_site_aniso_U_22
_atom_site_aniso_U_33
_atom_site_aniso_U_12
_atom_site_aniso_U_13
_atom_site_aniso_U_23
Mo1 Mo6+ 0.0084(3) 0.0088(3) 0.0083(3) 0.00277(19) 0.00118(19) 0.0051(2)
Mo2 Mo6+ 0.0085(3) 0.0109(3) 0.0086(3) 0.0035(2) 0.00202(19) 0.0067(2)
Mo3 Mo6+ 0.0090(3) 0.0127(3) 0.0084(3) 0.0044(2) 0.00193(19) 0.0069(2)
As1 As5+ 0.0084(3) 0.0086(3) 0.0076(3) 0.0023(2) 0.0013(2) 0.0050(2)
Ag1 Ag1+ 0.0246(5) 0.0186(6) 0.0167(7) 0.0099(5) 0.0058(5) 0.0049(5)
Na1 Na1+ 0.0246(5) 0.0186(6) 0.0167(7) 0.0099(5) 0.0058(5) 0.0049(5)
Ag2 Ag1+ 0.0234(7) 0.0445(6) 0.0239(9) 0.0067(4) 0.0127(4) 0.0229(7)
Na2 Na1+ 0.0234(7) 0.0445(6) 0.0239(9) 0.0067(4) 0.0127(4) 0.0229(7)
Ag3 Ag1+ 0.0194(10) 0.0141(6) 0.0234(8) 0.0048(5) 0.0051(6) 0.0114(5)
Na3 Na1+ 0.0194(10) 0.0141(6) 0.0234(8) 0.0048(5) 0.0051(6) 0.0114(5)
O1 O2- 0.017(2) 0.026(3) 0.026(3) 0.013(2) 0.007(2) 0.018(2)
O2 O2- 0.021(2) 0.021(2) 0.012(2) 0.0090(19) 0.0039(19) 0.0062(19)
O3 O2- 0.030(3) 0.021(2) 0.011(2) 0.009(2) 0.008(2) 0.007(2)
O4 O2- 0.0071(19) 0.017(2) 0.015(2) 0.0013(17) 0.0022(17) 0.0093(19)
O5 O2- 0.011(2) 0.017(2) 0.014(2) 0.0081(17) 0.0060(17) 0.0107(18)
O6 O2- 0.016(2) 0.015(2) 0.009(2) 0.0040(17) 0.0057(17) 0.0072(17)
O7 O2- 0.016(2) 0.022(2) 0.019(2) 0.0088(19) 0.0060(19) 0.016(2)
O8 O2- 0.020(2) 0.016(2) 0.013(2) 0.0047(19) 0.0069(19) 0.0025(18)
O9 O2- 0.011(2) 0.013(2) 0.014(2) 0.0032(17) -0.0001(17) 0.0076(18)
O10 O2- 0.012(2) 0.011(2) 0.015(2) 0.0038(16) 0.0042(17) 0.0092(18)
O11 O2- 0.018(2) 0.017(2) 0.015(2) 0.0028(19) 0.0008(19) 0.0057(19)
O12 O2- 0.009(2) 0.015(2) 0.022(2) 0.0070(17) 0.0059(18) 0.0120(19)
O13 O2- 0.013(2) 0.020(2) 0.018(2) 0.0068(18) 0.0055(18) 0.014(2)
#End of TTdata_421570-ICSD