
#(C) 2019 by FIZ Karlsruhe - Leibniz Institute for Information Infrastructure.  All rights reserved.
data_421643-ICSD
_database_code_ICSD 421643
_audit_creation_date 2011-02-01
_chemical_name_systematic 'Hexasodium disilicate'
_chemical_formula_structural 'Na6 (Si2 O7)'
_chemical_formula_sum 'Na6 O7 Si2'
_exptl_crystal_density_diffrn 2.61
_cell_measurement_temperature 248.
_publ_section_title
'Na6 Si2 O7 - The missing structural link among alkali pyrosilicates'
loop_
_citation_id
_citation_journal_full
_citation_year
_citation_journal_volume
_citation_page_first
_citation_page_last
_citation_journal_id_ASTM
primary 'Zeitschrift fuer Anorganische und Allgemeine Chemie (1950) (DE)' 2010
636 1974 1979 ZAACAB
loop_
_publ_author_name
'Kahlenberg, V.'
'Langreiter, T.'
'Arroyabe, E.'
_cell_length_a 5.8007(8)
_cell_length_b 11.5811(15)
_cell_length_c 23.157(3)
_cell_angle_alpha 89.709(10)
_cell_angle_beta 88.915(11)
_cell_angle_gamma 89.004(11)
_cell_volume 1555.12
_cell_formula_units_Z 8
_symmetry_space_group_name_H-M 'P -1'
_symmetry_Int_Tables_number 2
_refine_ls_R_factor_all 0.051
loop_
_symmetry_equiv_pos_site_id
_symmetry_equiv_pos_as_xyz
1 '-x, -y, -z'
2 'x, y, z'
loop_
_atom_type_symbol
_atom_type_oxidation_number
Si4+ 4
Na1+ 1
O2- -2
loop_
_atom_site_label
_atom_site_type_symbol
_atom_site_symmetry_multiplicity
_atom_site_Wyckoff_symbol
_atom_site_fract_x
_atom_site_fract_y
_atom_site_fract_z
_atom_site_B_iso_or_equiv
_atom_site_occupancy
_atom_site_attached_hydrogens
Si1 Si4+ 2 i 0.5573(3) 0.74607(15) 0.18452(7) 0.0089(4) 1 0
Si2 Si4+ 2 i 0.4392(3) 0.75059(16) 0.05177(7) 0.0084(4) 1 0
Si3 Si4+ 2 i -0.0630(4) 0.10820(16) 0.13207(8) 0.0091(4) 1 0
Si4 Si4+ 2 i 0.0617(4) 0.37133(15) 0.12428(8) 0.0081(4) 1 0
Si5 Si4+ 2 i 0.4415(3) 0.25211(15) 0.31554(7) 0.0091(4) 1 0
Si6 Si4+ 2 i 0.5663(4) 0.24613(16) 0.44915(7) 0.0091(4) 1 0
Si7 Si4+ 2 i 1.0606(4) 0.87427(16) 0.37401(8) 0.0082(4) 1 0
Si8 Si4+ 2 i 0.9345(3) 0.60593(15) 0.37001(8) 0.0086(4) 1 0
Na1 Na1+ 2 i 0.7540(5) 0.9912(2) 0.23746(11) 0.0137(6) 1 0
Na2 Na1+ 2 i 0.6209(5) 0.0183(2) 0.37653(10) 0.0154(6) 1 0
Na3 Na1+ 2 i 0.2517(5) 0.0065(2) 0.27212(11) 0.0170(6) 1 0
Na4 Na1+ 2 i 0.3643(4) 0.9753(2) 0.14043(10) 0.0167(6) 1 0
Na5 Na1+ 2 i 0.2467(5) 0.5250(2) 0.00727(10) 0.0139(6) 1 0
Na6 Na1+ 2 i 0.7478(5) 0.0380(2) 0.50541(11) 0.0152(6) 1 0
Na7 Na1+ 2 i 0.7429(5) 0.5260(2) 0.25052(11) 0.0158(6) 1 0
Na8 Na1+ 2 i 0.6106(5) 0.5030(2) 0.12233(10) 0.0172(6) 1 0
Na9 Na1+ 2 i 0.1189(5) 0.7408(2) 0.25332(10) 0.0154(6) 1 0
Na10 Na1+ 2 i 0.2446(5) 0.5094(2) 0.50603(11) 0.0145(6) 1 0
Na11 Na1+ 2 i 0.7526(5) 0.0178(2) -0.00011(11) 0.0157(6) 1 0
Na12 Na1+ 2 i 0.1206(4) 0.2736(2) 0.01211(10) 0.0203(6) 1 0
Na13 Na1+ 2 i 0.6069(4) 0.7883(2) 0.31313(10) 0.0150(6) 1 0
Na14 Na1+ 2 i 0.8922(5) 0.2508(2) 0.24772(11) 0.0168(6) 1 0
Na15 Na1+ 2 i 0.2503(5) 0.4715(2) 0.23554(11) 0.0155(6) 1 0
Na16 Na1+ 2 i 0.1409(5) 0.2311(2) 0.51700(10) 0.0164(6) 1 0
Na17 Na1+ 2 i 0.5678(4) 0.2369(2) 0.07629(9) 0.0209(6) 1 0
Na18 Na1+ 2 i 0.8952(4) 0.8479(2) 0.10224(10) 0.0202(6) 1 0
Na19 Na1+ 2 i 0.4171(4) 0.2173(2) 0.19517(10) 0.0165(6) 1 0
Na20 Na1+ 2 i 0.3823(5) 0.4795(2) 0.36038(10) 0.0198(6) 1 0
Na21 Na1+ 2 i 0.0885(4) 0.6205(2) 0.13071(10) 0.0181(6) 1 0
Na22 Na1+ 2 i 0.1045(4) 0.12497(19) 0.40058(10) 0.0156(6) 1 0
Na23 Na1+ 2 i 0.3972(4) 0.70691(19) 0.42153(10) 0.0223(6) 1 0
Na24 Na1+ 2 i 0.9230(4) 0.3540(2) 0.37600(11) 0.0211(6) 1 0
O1 O2- 2 i 0.4563(6) 0.8480(3) 0.22650(14) 0.0121(8) 1 0
O2 O2- 2 i 0.8340(7) 0.7290(3) 0.18821(16) 0.0173(9) 1 0
O3 O2- 2 i 0.4237(6) 0.6261(3) 0.19408(15) 0.0146(8) 1 0
O4 O2- 2 i 0.5042(6) 0.7961(3) 0.11765(14) 0.0149(8) 1 0
O5 O2- 2 i 0.5496(6) 0.8473(3) 0.00856(14) 0.0128(8) 1 0
O6 O2- 2 i 0.1651(7) 0.7439(3) 0.04961(15) 0.0169(9) 1 0
O7 O2- 2 i 0.5579(6) 0.6270(3) 0.03931(15) 0.0150(8) 1 0
O8 O2- 2 i 0.0851(7) 0.0948(3) 0.19040(15) 0.0148(8) 1 0
O9 O2- 2 i -0.3342(7) 0.0912(3) 0.14673(15) 0.0168(9) 1 0
O10 O2- 2 i 0.0325(7) 0.0237(3) 0.08094(15) 0.0157(9) 1 0
O11 O2- 2 i -0.0397(7) 0.2423(3) 0.10643(16) 0.0184(9) 1 0
O12 O2- 2 i -0.0522(7) 0.4152(3) 0.18412(15) 0.0127(8) 1 0
O13 O2- 2 i -0.0182(6) 0.4529(3) 0.07078(14) 0.0123(8) 1 0
O14 O2- 2 i 0.3372(7) 0.3582(3) 0.12721(16) 0.0170(9) 1 0
O15 O2- 2 i 0.1652(7) 0.2438(3) 0.32111(16) 0.0181(9) 1 0
O16 O2- 2 i 0.5576(7) 0.1315(3) 0.29395(16) 0.0157(9) 1 0
O17 O2- 2 i 0.5259(6) 0.3571(3) 0.27529(15) 0.0144(8) 1 0
O18 O2- 2 i 0.5361(6) 0.2909(3) 0.38031(15) 0.0159(8) 1 0
O19 O2- 2 i 0.8357(7) 0.2270(3) 0.45760(16) 0.0180(9) 1 0
O20 O2- 2 i 0.4255(6) 0.1279(3) 0.45807(15) 0.0146(8) 1 0
O21 O2- 2 i 0.4642(6) 0.3479(3) 0.49014(15) 0.0146(8) 1 0
O22 O2- 2 i 0.9362(7) 0.9038(3) 0.31356(15) 0.0139(8) 1 0
O23 O2- 2 i 1.3362(7) 0.8886(3) 0.37102(15) 0.0168(9) 1 0
O24 O2- 2 i 0.9453(6) 0.9480(3) 0.42669(15) 0.0119(8) 1 0
O25 O2- 2 i 1.0118(7) 0.7371(3) 0.39133(16) 0.0175(9) 1 0
O26 O2- 2 i 0.6603(7) 0.6118(3) 0.36258(16) 0.0181(9) 1 0
O27 O2- 2 i 1.0633(7) 0.5718(3) 0.31021(15) 0.0141(9) 1 0
O28 O2- 2 i 1.0271(6) 0.5225(3) 0.42194(15) 0.0145(8) 1 0
loop_
_atom_site_aniso_label
_atom_site_aniso_type_symbol
_atom_site_aniso_U_11
_atom_site_aniso_U_22
_atom_site_aniso_U_33
_atom_site_aniso_U_12
_atom_site_aniso_U_13
_atom_site_aniso_U_23
Si1 Si4+ 0.0064(9) 0.0109(8) 0.0094(8) 0.0000(7) -0.0014(6) -0.0013(7)
Si2 Si4+ 0.0067(9) 0.0118(8) 0.0067(8) -0.0004(7) -0.0006(6) -0.0010(6)
Si3 Si4+ 0.0056(9) 0.0100(8) 0.0116(8) -0.0011(6) -0.0012(6) 0.0017(6)
Si4 Si4+ 0.0074(9) 0.0083(8) 0.0086(8) 0.0002(6) -0.0018(6) 0.0013(6)
Si5 Si4+ 0.0053(9) 0.0115(8) 0.0104(8) 0.0005(7) -0.0003(6) -0.0006(7)
Si6 Si4+ 0.0086(9) 0.0104(8) 0.0085(8) -0.0022(7) -0.0017(7) 0.0015(6)
Si7 Si4+ 0.0050(9) 0.0097(8) 0.0101(8) -0.0018(6) -0.0013(6) 0.0018(6)
Si8 Si4+ 0.0055(9) 0.0103(8) 0.0102(8) -0.0010(6) -0.0019(6) 0.0013(6)
Na1 Na1+ 0.0078(14) 0.0190(12) 0.0143(12) -0.0017(10) -0.0008(9) 0.0027(9)
Na2 Na1+ 0.0094(13) 0.0182(12) 0.0189(12) -0.0026(9) -0.0033(9) 0.0004(10)
Na3 Na1+ 0.0086(14) 0.0204(13) 0.0222(14) -0.0030(10) 0.0000(10) 0.0017(10)
Na4 Na1+ 0.0088(13) 0.0170(12) 0.0246(14) -0.0035(9) -0.0055(11) -0.0003(10)
Na5 Na1+ 0.0107(14) 0.0191(12) 0.0118(12) -0.0025(10) -0.0014(9) 0.0020(10)
Na6 Na1+ 0.0130(15) 0.0134(12) 0.0195(13) -0.0028(10) -0.0033(10) 0.0020(10)
Na7 Na1+ 0.0106(15) 0.0205(12) 0.0162(13) 0.0014(10) -0.0018(10) -0.0008(10)
Na8 Na1+ 0.0165(14) 0.0178(12) 0.0173(12) -0.0008(10) 0.0024(9) 0.0001(10)
Na9 Na1+ 0.0106(14) 0.0215(12) 0.0142(12) -0.0046(10) 0.0001(9) 0.0017(10)
Na10 Na1+ 0.0093(14) 0.0184(12) 0.0159(13) 0.0000(10) -0.0013(10) 0.0025(10)
Na11 Na1+ 0.0110(15) 0.0210(13) 0.0150(12) -0.0006(10) 0.0005(10) 0.0007(10)
Na12 Na1+ 0.0068(13) 0.0356(15) 0.0184(12) -0.0011(11) 0.0016(9) -0.0077(11)
Na13 Na1+ 0.0116(13) 0.0177(12) 0.0159(11) -0.0014(10) -0.0019(9) 0.0009(9)
Na14 Na1+ 0.0078(14) 0.0228(13) 0.0199(13) -0.0033(10) 0.0016(9) 0.0001(10)
Na15 Na1+ 0.0125(15) 0.0195(12) 0.0147(13) -0.0012(10) -0.0012(10) 0.0006(10)
Na16 Na1+ 0.0118(13) 0.0230(13) 0.0143(12) -0.0056(10) 0.0029(9) -0.0010(10)
Na17 Na1+ 0.0208(14) 0.0276(13) 0.0143(11) 0.0059(11) -0.0067(9) -0.0007(10)
Na18 Na1+ 0.0165(14) 0.0198(12) 0.0243(13) -0.0076(10) 0.0043(10) -0.0002(10)
Na19 Na1+ 0.0153(14) 0.0180(12) 0.0162(12) 0.0001(10) 0.0020(10) 0.0001(10)
Na20 Na1+ 0.0124(14) 0.0196(12) 0.0274(14) -0.0012(10) -0.0011(11) -0.0018(11)
Na21 Na1+ 0.0171(14) 0.0156(12) 0.0217(12) -0.0011(10) -0.0025(10) 0.0000(10)
Na22 Na1+ 0.0110(13) 0.0163(12) 0.0194(12) -0.0008(9) 0.0013(10) 0.0020(10)
Na23 Na1+ 0.0249(15) 0.0221(13) 0.0199(13) 0.0071(11) -0.0069(10) 0.0026(10)
Na24 Na1+ 0.0199(15) 0.0134(12) 0.0297(14) -0.0043(10) 0.0078(11) -0.0023(10)
#End of TTdata_421643-ICSD