
#(C) 2019 by FIZ Karlsruhe - Leibniz Institute for Information Infrastructure.  All rights reserved.
data_421692-ICSD
_database_code_ICSD 421692
_audit_creation_date 2011-02-01
_chemical_name_systematic 'Sodium cobalt nickel selenate (2/1.67/0.33/3)'
_chemical_formula_structural 'Na2 Co1.67 Ni0.34 (Se O3)3'
_chemical_formula_sum 'Co1.67 Na2 Ni0.34 O9 Se3'
_chemical_name_structure_type Na2Co2Se3O9
_exptl_crystal_density_diffrn 4.24
_cell_measurement_temperature 293.
_publ_section_title

;
Syntheses, crystal structures and properties of three new metal selenites Na2
Co2 (Se O3)3, Na2 Co1.67 Ni0.33 (Se O3)3, and Na2 Co2 (Se O3)3
;
loop_
_citation_id
_citation_journal_full
_citation_year
_citation_journal_volume
_citation_page_first
_citation_page_last
_citation_journal_id_ASTM
primary 'Journal of Solid State Chemistry' 2010 183 1955 1961 JSSCBI
loop_
_publ_author_name
'Yuan Xiaoqing'
'Feng Mei Ling'
'Li Jian Rong'
'Huang Xiao Ying'
_cell_length_a 7.5156(16)
_cell_length_b 11.107(3)
_cell_length_c 10.2320(14)
_cell_angle_alpha 90.
_cell_angle_beta 90.
_cell_angle_gamma 90.
_cell_volume 854.12
_cell_formula_units_Z 4
_symmetry_space_group_name_H-M 'C m c m'
_symmetry_Int_Tables_number 63
_refine_ls_R_factor_all 0.0314
loop_
_symmetry_equiv_pos_site_id
_symmetry_equiv_pos_as_xyz
1 '-x, y, -z+1/2'
2 '-x, -y, z+1/2'
3 '-x, y, z'
4 '-x, -y, -z'
5 'x, -y, z+1/2'
6 'x, y, -z+1/2'
7 'x, -y, -z'
8 'x, y, z'
9 '-x+1/2, y+1/2, -z+1/2'
10 '-x+1/2, -y+1/2, z+1/2'
11 '-x+1/2, y+1/2, z'
12 '-x+1/2, -y+1/2, -z'
13 'x+1/2, -y+1/2, z+1/2'
14 'x+1/2, y+1/2, -z+1/2'
15 'x+1/2, -y+1/2, -z'
16 'x+1/2, y+1/2, z'
loop_
_atom_type_symbol
_atom_type_oxidation_number
Se4+ 4
Co2+ 2
Ni2+ 2
O2- -2
Na1+ 1
loop_
_atom_site_label
_atom_site_type_symbol
_atom_site_symmetry_multiplicity
_atom_site_Wyckoff_symbol
_atom_site_fract_x
_atom_site_fract_y
_atom_site_fract_z
_atom_site_B_iso_or_equiv
_atom_site_occupancy
_atom_site_attached_hydrogens
Se1 Se4+ 8 f 0. 0.23527(7) 0.53006(7) 0.0122(3) 1 0
Se2 Se4+ 8 f 0.5 -0.01552(13) 0.80075(15) 0.0117(4) 0.5 0
Co1 Co2+ 8 g 0.19220(14) 0.24279(9) 0.25 0.0101(3) 0.83 0
Ni1 Ni2+ 8 g 0.19220(14) 0.24279(9) 0.25 0.0101(3) 0.17 0
O1 O2- 8 f 0. 0.1642(5) 0.3811(5) 0.0114(11) 1 0
O2 O2- 16 h 0.1728(6) 0.1668(4) 0.6052(4) 0.0162(9) 1 0
O3 O2- 8 f 0.5 0.1206(8) 0.7222(9) 0.010(3) 0.5 0
O4 O2- 16 h 0.6750(10) -0.0815(7) 0.7248(11) 0.020(4) 0.5 0
Na1 Na1+ 4 c 0. -0.0208(5) 0.25 0.0258(11) 1 0
Na2 Na1+ 8 e 0.2708(11) 0. 0.5 0.0291(17) 0.5 0
loop_
_atom_site_aniso_label
_atom_site_aniso_type_symbol
_atom_site_aniso_U_11
_atom_site_aniso_U_22
_atom_site_aniso_U_33
_atom_site_aniso_U_12
_atom_site_aniso_U_13
_atom_site_aniso_U_23
Se1 Se4+ 0.0165(5) 0.0109(4) 0.0093(4) 0. 0. -0.0008(3)
Se2 Se4+ 0.0130(7) 0.0092(7) 0.0129(6) 0. 0. 0.0016(5)
Co1 Co2+ 0.0075(5) 0.0102(5) 0.0126(6) 0.0000(4) 0. 0.
Ni1 Ni2+ 0.0075(5) 0.0102(5) 0.0126(6) 0.0000(4) 0. 0.
O1 O2- 0.011(3) 0.015(3) 0.008(2) 0. 0. -0.007(2)
O2 O2- 0.015(2) 0.0178(19) 0.0160(19) 0.0021(15) -0.0042(16) -0.0027(15)
O3 O2- 0.011(4) 0.004(4) 0.015(10) 0. 0. 0.007(4)
O4 O2- 0.014(3) 0.018(3) 0.029(11) 0.007(3) 0.005(3) -0.001(3)
Na1 Na1+ 0.023(3) 0.014(2) 0.040(3) 0. 0. 0.
Na2 Na1+ 0.038(4) 0.023(4) 0.026(4) 0. 0. -0.006(3)
#End of TTdata_421692-ICSD