
#(C) 2018 by FIZ Karlsruhe - Leibniz Institute for Information Infrastructure.  All rights reserved.
data_421741-ICSD
_database_code_ICSD 421741
_audit_creation_date 2012-08-01
_chemical_name_systematic 'Lithium lanthanum tetraphosphate'
_chemical_formula_structural 'Li La (P O3)4'
_chemical_formula_sum 'La1 Li1 O12 P4'
_chemical_name_structure_type LiYb(PO3)4
_exptl_crystal_density_diffrn 3.41
_cell_measurement_temperature 298.
_publ_section_title 'Synthesis and crystal structure of Li La P4 O12'
loop_
_citation_id
_citation_journal_full
_citation_year
_citation_journal_volume
_citation_page_first
_citation_page_last
_citation_journal_id_ASTM
primary
'X-ray structure analysis online, the Japan Society for analytical chemistry' 2011 27 21 22 XSAOBG
loop_
_publ_author_name
'Boujelbene, M.'
'Mhiri, T.'
_cell_length_a 16.355(5)
_cell_length_b 7.040(5)
_cell_length_c 9.678(5)
_cell_angle_alpha 90
_cell_angle_beta 126.137(5)
_cell_angle_gamma 90
_cell_volume 899.93
_cell_formula_units_Z 4
_symmetry_space_group_name_H-M 'C 1 2/c 1'
_symmetry_Int_Tables_number 15
_refine_ls_R_factor_all 0.0377
loop_
_symmetry_equiv_pos_site_id
_symmetry_equiv_pos_as_xyz
1 'x, -y, z+1/2'
2 '-x, -y, -z'
3 '-x, y, -z+1/2'
4 'x, y, z'
5 'x+1/2, -y+1/2, z+1/2'
6 '-x+1/2, -y+1/2, -z'
7 '-x+1/2, y+1/2, -z+1/2'
8 'x+1/2, y+1/2, z'
loop_
_atom_type_symbol
_atom_type_oxidation_number
La3+ 3
Li1+ 1
P5+ 5
O2- -2
loop_
_atom_site_label
_atom_site_type_symbol
_atom_site_symmetry_multiplicity
_atom_site_Wyckoff_symbol
_atom_site_fract_x
_atom_site_fract_y
_atom_site_fract_z
_atom_site_B_iso_or_equiv
_atom_site_occupancy
_atom_site_attached_hydrogens
La1 La3+ 4 e 0. 0.29893(2) 0.25 0.0055 1. 0
Li1 Li1+ 4 e 0. -0.2045(11) 0.25 0.0185 1. 0
P1 P5+ 8 f -0.13839(4) 0.05521(9) -0.16270(7) 0.0092 1. 0
P2 P5+ 8 f 0.14820(4) 0.65541(9) 0.59673(7) 0.0093 1. 0
O1 O2- 8 f -0.11425(17) 0.2184(3) -0.0475(3) 0.0144 1. 0
O2 O2- 8 f -0.24408(14) 0.0832(3) -0.3439(2) 0.0135 1. 0
O3 O2- 8 f 0.06537(14) -0.0042(3) 0.2025(2) 0.0126 1. 0
O4 O2- 8 f -0.15884(16) -0.1215(3) -0.0849(3) 0.0132 1. 0
O5 O2- 8 f 0.07310(15) 0.5927(3) 0.4163(2) 0.0141 1. 0
O6 O2- 8 f 0.12972(16) 0.3853(3) 0.2263(3) 0.0145 1. 0
loop_
_atom_site_aniso_label
_atom_site_aniso_type_symbol
_atom_site_aniso_U_11
_atom_site_aniso_U_22
_atom_site_aniso_U_33
_atom_site_aniso_U_12
_atom_site_aniso_U_13
_atom_site_aniso_U_23
La1 La3+ 0.00555(8) 0.00589(8) 0.00530(8) 0. 0.00330(6) 0.
Li1 Li1+ 0.024(3) 0.016(3) 0.019(3) 0. 0.015(3) 0.
P1 P5+ 0.0086(2) 0.0092(2) 0.0091(2) 0.00046(16) 0.00492(19) 0.00006(16)
P2 P5+ 0.0082(2) 0.0103(2) 0.0084(2) 0.00039(16) 0.00428(19) -0.00047(16)
O1 O2- 0.0162(8) 0.0115(7) 0.0110(6) -0.0009(5) 0.0054(6) -0.0036(5)
O2 O2- 0.0097(6) 0.0191(8) 0.0102(6) 0.0036(6) 0.0049(5) 0.0009(5)
O3 O2- 0.0116(7) 0.0131(6) 0.0161(7) 0.0018(5) 0.0098(6) 0.0015(5)
O4 O2- 0.0187(7) 0.0091(7) 0.0152(7) -0.0002(5) 0.0119(6) 0.0015(5)
O5 O2- 0.0125(7) 0.0133(7) 0.0089(6) -0.0003(5) 0.0022(6) -0.0018(5)
O6 O2- 0.0157(7) 0.0168(8) 0.0166(7) -0.0031(6) 0.0125(6) -0.0027(6)
#End of TTdata_421741-ICSD