
#(C) 2019 by FIZ Karlsruhe - Leibniz Institute for Information Infrastructure.  All rights reserved.
data_421746-ICSD
_database_code_ICSD 421746
_audit_creation_date 2012-08-01
_chemical_name_systematic 'Hexasodium decavanadate 18-hydrate'
_chemical_formula_structural 'Na6 (V10 O28) (H2 O)18'
_chemical_formula_sum 'H36 Na6 O46 V10'
_exptl_crystal_density_diffrn 2.38
_cell_measurement_temperature 293.
_publ_section_title

;
Synthesis and crystal structure of sodium isopolyvanadate (Na2 (H2 O)8)2 H2
(V10 O28) (H2 O)4
;
loop_
_citation_id
_citation_journal_full
_citation_year
_citation_journal_volume
_citation_page_first
_citation_page_last
_citation_journal_id_ASTM
primary 'Koordinatsionnaya Khimiya' 2010 36 899 902 KOKHDC
loop_
_publ_author_name
'Kaziev, G.Z.'
'Oreshkina, A.V.'
'Holguin Quinones, S.'
'Stepnova, A.F.'
'Zavodnik, V.E.'
'de Ita, A.'
'Alekseev, D.A.'
_cell_length_a 8.545(2)
_cell_length_b 10.827(2)
_cell_length_c 11.627(2)
_cell_angle_alpha 105.48(3)
_cell_angle_beta 99.38(3)
_cell_angle_gamma 101.29(3)
_cell_volume 989.89
_cell_formula_units_Z 1
_symmetry_space_group_name_H-M 'P -1'
_symmetry_Int_Tables_number 2
_refine_ls_R_factor_all 0.0237
loop_
_symmetry_equiv_pos_site_id
_symmetry_equiv_pos_as_xyz
1 '-x, -y, -z'
2 'x, y, z'
loop_
_atom_type_symbol
_atom_type_oxidation_number
V5+ 5
O2- -2
Na1+ 1
O2- -2
H1+ 1
loop_
_atom_site_label
_atom_site_type_symbol
_atom_site_symmetry_multiplicity
_atom_site_Wyckoff_symbol
_atom_site_fract_x
_atom_site_fract_y
_atom_site_fract_z
_atom_site_B_iso_or_equiv
_atom_site_occupancy
_atom_site_attached_hydrogens
V1 V5+ 2 i 0.31352(4) 0.50539(3) 0.01328(3) 0.01183(12) 1 0
V2 V5+ 2 i 0.54922(5) 0.42341(4) 0.20272(3) 0.01582(12) 1 0
V3 V5+ 2 i 0.45960(5) 0.69303(4) 0.27433(3) 0.01735(12) 1 0
V4 V5+ 2 i 0.80961(4) 0.68574(4) 0.24867(3) 0.01719(12) 1 0
V5 V5+ 2 i 0.58450(4) 0.76777(3) 0.05863(3) 0.01471(12) 1 0
O1 O2- 2 i 0.55926(17) 0.58215(14) 0.11403(13) 0.0127(3) 1 0
O2 O2- 2 i 0.34492(18) 0.35733(14) 0.07097(14) 0.0143(3) 1 0
O3 O2- 2 i 0.37161(18) 0.64760(14) -0.05017(14) 0.0138(3) 1 0
O4 O2- 2 i 0.76000(19) 0.52341(16) 0.27602(14) 0.0195(3) 1 0
O5 O2- 2 i 0.47710(19) 0.81139(15) 0.18222(14) 0.0181(3) 1 0
O6 O2- 2 i 0.26027(19) 0.59007(15) 0.13965(14) 0.0169(3) 1 0
O7 O2- 2 i 0.86174(18) 0.58146(15) 0.09107(14) 0.0179(3) 1 0
O8 O2- 2 i 0.78506(19) 0.80644(15) 0.15908(15) 0.0186(3) 1 0
O9 O2- 2 i 0.67968(19) 0.75122(16) 0.34658(14) 0.0199(3) 1 0
O10 O2- 2 i 0.4548(2) 0.52906(16) 0.30268(14) 0.0192(3) 1 0
O11 O2- 2 i 0.5377(2) 0.29716(17) 0.25268(16) 0.0258(4) 1 0
O12 O2- 2 i 0.3764(2) 0.76445(18) 0.37795(16) 0.0282(4) 1 0
O13 O2- 2 i 0.9934(2) 0.75306(17) 0.33043(16) 0.0276(4) 1 0
O14 O2- 2 i 0.5942(2) 0.89102(16) 0.00586(16) 0.0248(4) 1 0
Na1 Na1+ 2 i -0.02357(14) 0.74316(10) 0.69242(10) 0.0339(3) 1 0
Na2 Na1+ 2 i 0.22107(12) 0.85696(9) 0.51241(9) 0.0246(2) 1 0
Na3 Na1+ 2 i 0.04047(14) 0.23620(11) 0.02486(10) 0.0373(3) 1 0
O15 O2- 2 i 0.0586(2) 0.94384(17) 0.64666(16) 0.0269(4) 1 0
O16 O2- 2 i -0.1694(2) 0.85817(19) 0.8316(2) 0.0367(5) 1 0
O17 O2- 2 i 0.2001(2) 0.83868(19) 0.88535(19) 0.0365(5) 1 0
O18 O2- 2 i -0.2671(3) 0.5918(3) 0.5529(2) 0.0558(7) 1 0
O19 O2- 2 i 0.1298(3) 0.6485(2) 0.5477(3) 0.0567(7) 1 0
O20 O2- 2 i -0.0351(2) 0.58618(19) 0.7950(2) 0.0382(5) 1 0
O21 O2- 2 i 0.2611(2) 1.04352(17) 0.44282(16) 0.0283(4) 1 0
O22 O2- 2 i 0.4624(2) 0.92869(16) 0.67007(16) 0.0281(4) 1 0
O23 O2- 2 i -0.1606(2) 0.12988(19) -0.15723(17) 0.0309(4) 1 0
H1 H1+ 2 i 0.1073 1.0034 0.7139 0.05 1 0
H2 H1+ 2 i -0.0314 0.9576 0.6165 0.05 1 0
H3 H1+ 2 i -0.1597 0.9384 0.8341 0.05 1 0
H4 H1+ 2 i -0.2711 0.8286 0.8232 0.05 1 0
H5 H1+ 2 i 0.2597 0.9174 0.9133 0.05 1 0
H6 H1+ 2 i 0.2598 0.7901 0.9051 0.05 1 0
H7 H1+ 2 i -0.3219 0.5642 0.5994 0.05 1 0
H8 H1+ 2 i -0.3314 0.5878 0.4875 0.05 1 0
H9 H1+ 2 i 0.0717 0.5879 0.4856 0.05 1 0
H10 H1+ 2 i 0.2095 0.6222 0.5819 0.05 1 0
H11 H1+ 2 i -0.1127 0.525 0.7968 0.05 1 0
H12 H1+ 2 i 0.045 0.5508 0.7933 0.05 1 0
H13 H1+ 2 i 0.2818 1.1081 0.5076 0.05 1 0
H14 H1+ 2 i 0.3456 1.0525 0.4128 0.05 1 0
H15 H1+ 2 i 0.4852 0.9981 0.7312 0.05 1 0
H16 H1+ 2 i 0.4664 0.8792 0.7154 0.05 1 0
H17 H1+ 2 i -0.1303 0.1501 -0.2171 0.05 1 0
H18 H1+ 2 i -0.2502 0.1509 -0.1504 0.05 1 0
loop_
_atom_site_aniso_label
_atom_site_aniso_type_symbol
_atom_site_aniso_U_11
_atom_site_aniso_U_22
_atom_site_aniso_U_33
_atom_site_aniso_U_12
_atom_site_aniso_U_13
_atom_site_aniso_U_23
V1 V5+ 0.0106(2) 0.0101(2) 0.0145(2) 0.00262(14) 0.00310(14) 0.00318(15)
V2 V5+ 0.0205(2) 0.0132(2) 0.0149(2) 0.00439(15) 0.00353(15) 0.00634(15)
V3 V5+ 0.0175(2) 0.0165(2) 0.0159(2) 0.00522(15) 0.00517(15) -0.00008(15)
V4 V5+ 0.0133(2) 0.0163(2) 0.0168(2) 0.00186(15) -0.00021(15) 0.00017(15)
V5 V5+ 0.0163(2) 0.00819(19) 0.0187(2) 0.00261(14) 0.00373(15) 0.00312(15)
O1 O2- 0.0128(7) 0.0105(7) 0.0138(7) 0.0026(6) 0.0029(6) 0.0023(6)
O2 O2- 0.0146(7) 0.0113(7) 0.0179(7) 0.0025(6) 0.0060(6) 0.0053(6)
O3 O2- 0.0145(7) 0.0103(7) 0.0174(7) 0.0044(6) 0.0038(6) 0.0044(6)
O4 O2- 0.0199(8) 0.0204(8) 0.0175(8) 0.0065(6) 0.0009(6) 0.0056(6)
O5 O2- 0.0195(8) 0.0118(7) 0.0218(8) 0.0047(6) 0.0062(6) 0.0015(6)
O6 O2- 0.0169(8) 0.0130(7) 0.0199(8) 0.0036(6) 0.0071(6) 0.0021(6)
O7 O2- 0.0128(8) 0.0167(8) 0.0212(8) 0.0032(6) 0.0025(6) 0.0024(6)
O8 O2- 0.0154(8) 0.0127(7) 0.0239(8) 0.0010(6) 0.0028(6) 0.0020(6)
O9 O2- 0.0195(8) 0.0178(8) 0.0168(8) 0.0037(6) 0.0018(6) -0.0015(6)
O10 O2- 0.0239(8) 0.0191(8) 0.0162(8) 0.0057(7) 0.0076(6) 0.0061(6)
O11 O2- 0.0344(10) 0.0228(9) 0.0265(9) 0.0094(7) 0.0081(7) 0.0153(7)
O12 O2- 0.0309(10) 0.0279(9) 0.0238(9) 0.0100(8) 0.0121(7) -0.0003(7)
O13 O2- 0.0177(9) 0.0279(9) 0.0279(9) 0.0021(7) -0.0034(7) 0.0012(8)
O14 O2- 0.0292(9) 0.0136(8) 0.0345(10) 0.0059(7) 0.0098(8) 0.0103(7)
Na1 Na1+ 0.0429(6) 0.0265(5) 0.0380(6) 0.0079(5) 0.0165(5) 0.0155(5)
Na2 Na1+ 0.0243(5) 0.0253(5) 0.0242(5) 0.0067(4) 0.0074(4) 0.0062(4)
Na3 Na1+ 0.0326(6) 0.0382(6) 0.0371(6) -0.0003(5) 0.0050(5) 0.0132(5)
O15 O2- 0.0281(9) 0.0208(9) 0.0311(9) 0.0079(7) 0.0065(7) 0.0054(7)
O16 O2- 0.0298(10) 0.0332(11) 0.0570(13) 0.0107(8) 0.0184(9) 0.0228(10)
O17 O2- 0.0261(10) 0.0272(10) 0.0521(12) 0.0052(8) 0.0012(9) 0.0111(9)
O18 O2- 0.0424(13) 0.0873(19) 0.0337(12) -0.0017(12) 0.0057(10) 0.0267(12)
O19 O2- 0.0719(17) 0.0367(12) 0.0801(18) 0.0234(12) 0.0440(15) 0.0257(12)
O20 O2- 0.0291(10) 0.0305(10) 0.0680(14) 0.0092(8) 0.0187(10) 0.0305(10)
O21 O2- 0.0307(10) 0.0223(9) 0.0240(9) 0.0020(7) 0.0044(7) -0.0011(7)
O22 O2- 0.0369(10) 0.0166(8) 0.0271(9) 0.0046(7) 0.0017(8) 0.0056(7)
O23 O2- 0.0274(10) 0.0327(10) 0.0357(10) 0.0097(8) 0.0090(8) 0.0129(8)
#End of TTdata_421746-ICSD