
#(C) 2019 by FIZ Karlsruhe - Leibniz Institute for Information Infrastructure.  All rights reserved.
data_421860-ICSD
_database_code_ICSD 421860
_audit_creation_date 2019-08-01
_chemical_name_systematic 'Tetrasodium-tetrastannide - ammonia (1/11.5)'
_chemical_formula_structural 'Na4 Sn4 (N H3)11.5'
_chemical_formula_sum 'H34.5 N11.5 Na4 Sn4'
_exptl_crystal_density_diffrn 1.99
_cell_measurement_temperature 123.
_publ_section_title

;
Ammoniates of Zintl phases: Similarities and differences of binary phases A4E4
and their corresponding solvates
;
loop_
_citation_id
_citation_journal_full
_citation_year
_citation_journal_volume
_citation_page_first
_citation_page_last
_citation_journal_id_ASTM
primary Crystals 2018 8 276-1 276-17 CRYSBC
loop_
_publ_author_name
'Lorenz, Corinna'
'Gaertner, Stefanie'
'Korber, Nikolaus'
_cell_length_a 13.100(3)
_cell_length_b 31.393(6)
_cell_length_c 12.367(3)
_cell_angle_alpha 90.
_cell_angle_beta 90.32(3)
_cell_angle_gamma 90.
_cell_volume 5085.82
_cell_formula_units_Z 8
_symmetry_space_group_name_H-M 'P 1 21/c 1'
_symmetry_Int_Tables_number 14
_refine_ls_R_factor_all 0.0397
loop_
_symmetry_equiv_pos_site_id
_symmetry_equiv_pos_as_xyz
1 'x, -y+1/2, z+1/2'
2 '-x, -y, -z'
3 '-x, y+1/2, -z+1/2'
4 'x, y, z'
loop_
_atom_type_symbol
_atom_type_oxidation_number
Sn1- -1
Na1+ 1
N3- -3
H1+ 1
N3- -3
H1+ 1
N3- -3
H1+ 1
N3- -3
H1+ 1
N3- -3
H1+ 1
N3- -3
H1+ 1
N3- -3
H1+ 1
N3- -3
H1+ 1
N3- -3
H1+ 1
N3- -3
H1+ 1
N3- -3
H1+ 1
N3- -3
H1+ 1
N3- -3
H1+ 1
N3- -3
H1+ 1
N3- -3
H1+ 1
N3- -3
H1+ 1
N3- -3
H1+ 1
N3- -3
H1+ 1
N3- -3
H1+ 1
N3- -3
H1+ 1
loop_
_atom_site_label
_atom_site_type_symbol
_atom_site_symmetry_multiplicity
_atom_site_Wyckoff_symbol
_atom_site_fract_x
_atom_site_fract_y
_atom_site_fract_z
_atom_site_B_iso_or_equiv
_atom_site_occupancy
_atom_site_attached_hydrogens
Sn1 Sn1- 4 e 0.66073(9) 0.17747(3) 0.80740(7) 0.0269(2) 1 0
Sn2 Sn1- 4 e 0.46448(9) 0.13329(3) 0.80074(7) 0.0269(2) 1 0
Sn3 Sn1- 4 e 1.16557(9) 0.17397(3) 1.21468(7) 0.0281(2) 1 0
Sn4 Sn1- 4 e 0.64921(9) 0.08546(3) 0.86239(8) 0.0282(2) 1 0
Sn5 Sn1- 4 e 1.14861(9) 0.08317(3) 1.14978(8) 0.0288(2) 1 0
Sn6 Sn1- 4 e 0.96879(9) 0.13121(4) 1.21667(8) 0.0274(2) 1 0
Sn7 Sn1- 4 e 0.56763(9) 0.15054(4) 1.01065(7) 0.0259(2) 1 0
Sn8 Sn1- 4 e 1.06852(9) 0.15084(4) 1.00736(7) 0.0253(2) 1 0
Na1 Na1+ 4 e 0.3193(6) 0.1407(2) 1.0195(5) 0.0389(16) 1 0
Na2 Na1+ 4 e 0.8203(6) 0.1419(2) 0.9997(5) 0.0400(17) 1 0
Na3 Na1+ 4 e 0.4645(5) 0.2392(2) 0.9086(5) 0.0346(14) 1 0
Na4 Na1+ 4 e 1.0768(6) 0.0508(2) 0.9086(5) 0.0461(18) 1 0
Na5 Na1+ 4 e 0.5807(6) 0.0500(2) 1.1014(6) 0.0462(18) 1 0
Na6 Na1+ 4 e 0.9678(6) 0.2382(2) 1.1108(5) 0.0418(17) 1 0
Na7 Na1+ 4 e 0.6305(5) 0.1042(3) 0.6072(5) 0.0505(18) 1 0
Na8 Na1+ 4 e 1.1750(7) 0.0898(3) 1.4088(5) 0.077(3) 1 0
N1 N3- 4 e 0.5698(12) -0.0323(5) 0.7930(10) 0.035(3) 1 0
H1 H1+ 4 e 0.5873 -0.0047 0.8051 0.053 1 0
H2 H1+ 4 e 0.5559 -0.0361 0.7215 0.053 1 0
H3 H1+ 4 e 0.6224 -0.0496 0.813 0.053 1 0
N2 N3- 4 e 0.7027(11) 0.3059(5) 0.7995(11) 0.038(3) 1 0
N3 N3- 4 e 0.6309(14) -0.0231(5) 1.0675(12) 0.045(4) 1 0
H4 H1+ 4 e 0.5872 -0.0411 1.1019 0.068 1 0
H5 H1+ 4 e 0.6954 -0.0274 1.0928 0.068 1 0
H6 H1+ 4 e 0.6288 -0.0283 0.9951 0.068 1 0
N4 N3- 4 e 0.5588(11) -0.1312(5) 0.6980(10) 0.035(3) 1 0
H7 H1+ 4 e 0.6099 -0.1257 0.6505 0.052 1 0
H8 H1+ 4 e 0.506 -0.144 0.6627 0.052 1 0
H9 H1+ 4 e 0.5823 -0.1486 0.7514 0.052 1 0
N5 N3- 4 e 1.1748(12) 0.0861(5) 0.7573(11) 0.040(3) 1 0
H10 H1+ 4 e 1.2372 0.0736 0.7512 0.06 1 0
H11 H1+ 4 e 1.1827 0.1143 0.7722 0.06 1 0
H12 H1+ 4 e 1.1396 0.083 0.6941 0.06 1 0
N6 N3- 4 e 0.9322(14) 0.1367(5) 0.7111(10) 0.042(4) 1 0
N7 N3- 4 e 0.4377(12) 0.2640(4) 0.7233(10) 0.035(3) 1 0
H13 H1+ 4 e 0.3961 0.2872 0.7236 0.053 1 0
H14 H1+ 4 e 0.4084 0.2429 0.6835 0.053 1 0
H15 H1+ 4 e 0.4989 0.2712 0.6937 0.053 1 0
N8 N3- 4 e 0.9396(13) 0.2617(5) 1.2995(10) 0.041(4) 1 0
H16 H1+ 4 e 0.9848 0.2826 1.3166 0.061 1 0
H17 H1+ 4 e 0.9487 0.2392 1.3451 0.061 1 0
H18 H1+ 4 e 0.8748 0.2717 1.3062 0.061 1 0
N9 N3- 4 e 1.1370(14) -0.0226(5) 0.9231(11) 0.042(4) 1 0
H19 H1+ 4 e 1.1744 -0.0256 0.9848 0.064 1 0
H20 H1+ 4 e 1.1765 -0.0289 0.865 0.064 1 0
H21 H1+ 4 e 1.0824 -0.0405 0.9248 0.064 1 0
N10 N3- 4 e 0.6891(12) 0.0793(5) 1.2568(13) 0.046(4) 1 0
H22 H1+ 4 e 0.6845 0.0615 1.3148 0.07 1 0
H23 H1+ 4 e 0.666 0.1056 1.2754 0.07 1 0
H24 H1+ 4 e 0.7553 0.0811 1.2357 0.07 1 0
N11 N3- 4 e 1.0411(13) 0.3010(5) 1.0224(11) 0.043(4) 1 0
H25 H1+ 4 e 1.0447 0.3229 1.0706 0.064 1 0
H26 H1+ 4 e 1.0009 0.3088 0.9654 0.064 1 0
H27 H1+ 4 e 1.1049 0.2948 0.9984 0.064 1 0
N12 N3- 4 e 0.9214(13) 0.0375(5) 0.8025(11) 0.038(4) 1 0
H28 H1+ 4 e 0.9358 0.0395 0.7308 0.058 1 0
H29 H1+ 4 e 0.8731 0.0571 0.82 0.058 1 0
H30 H1+ 4 e 0.8976 0.0109 0.8173 0.058 1 0
N13 N3- 4 e 0.7881(11) 0.2514(5) 1.0573(11) 0.039(4) 1 0
H31 H1+ 4 e 0.7583 0.269 1.1064 0.058 1 0
H32 H1+ 4 e 0.7537 0.2262 1.055 0.058 1 0
H33 H1+ 4 e 0.7862 0.2638 0.9908 0.058 1 0
N14 N3- 4 e 1.2051(14) 0.3019(5) 1.2200(12) 0.052(5) 1 0
H34 H1+ 4 e 1.186 0.3182 1.2775 0.077 1 0
H35 H1+ 4 e 1.2295 0.3191 1.1668 0.077 1 0
H36 H1+ 4 e 1.2546 0.2833 1.2411 0.077 1 0
N15 N3- 4 e 0.5395(12) 0.3019(5) 0.9974(10) 0.042(4) 1 0
H37 H1+ 4 e 0.6031 0.3066 0.9706 0.064 1 0
H38 H1+ 4 e 0.5438 0.2972 1.0699 0.064 1 0
H39 H1+ 4 e 0.4994 0.325 0.9846 0.064 1 0
N16 N3- 4 e 0.2864(13) 0.2514(5) 0.9641(11) 0.045(4) 1 0
H40 H1+ 4 e 0.2849 0.2711 1.018 0.067 1 0
H41 H1+ 4 e 0.259 0.2265 0.9881 0.067 1 0
H42 H1+ 4 e 0.2495 0.2611 0.9065 0.067 1 0
N17 N3- 4 e 0.3699(13) 0.0203(6) 0.6558(12) 0.049(4) 1 0
N18 N3- 4 e 1.1061(13) -0.0152(5) 0.6501(12) 0.045(4) 1 0
H43 H1+ 4 e 1.1615 -0.0326 0.6566 0.068 1 0
H44 H1+ 4 e 1.1146 0.0025 0.5926 0.068 1 0
H45 H1+ 4 e 1.0491 -0.0313 0.6396 0.068 1 0
N19 N3- 4 e 0.7713(13) 0.1283(7) 0.4980(12) 0.056(5) 1 0
H46 H1+ 4 e 0.8072 0.1054 0.474 0.084 1 0
H47 H1+ 4 e 0.8129 0.1453 0.5384 0.084 1 0
H48 H1+ 4 e 0.7468 0.1433 0.4405 0.084 1 0
N20 N3- 4 e 0.5242(13) 0.0632(5) 0.4816(10) 0.044(4) 1 0
H49 H1+ 4 e 0.4885 0.0814 0.4383 0.066 1 0
H50 H1+ 4 e 0.48 0.0467 0.5196 0.066 1 0
H51 H1+ 4 e 0.5647 0.0463 0.4402 0.066 1 0
N21 N3- 4 e 1.0247(13) 0.0789(6) 1.5173(13) 0.058(5) 1 0
H52 H1+ 4 e 1.0232 0.0515 1.5412 0.087 1 0
H53 H1+ 4 e 0.9679 0.0842 1.4767 0.087 1 0
H54 H1+ 4 e 1.0262 0.0969 1.575 0.087 1 0
N22 N3- 4 e 1.2894(12) 0.1305(6) 1.5235(12) 0.046(4) 1 0
H55 H1+ 4 e 1.2552 0.153 1.552 0.07 1 0
H56 H1+ 4 e 1.3428 0.1401 1.4837 0.07 1 0
H57 H1+ 4 e 1.313 0.1136 1.5779 0.07 1 0
N23 N3- 4 e 1.2391(17) 0.0133(7) 1.4195(12) 0.085(8) 1 0
H58 H1+ 4 e 1.2316 0.0006 1.3538 0.127 1 0
H59 H1+ 4 e 1.2023 -0.0012 1.4696 0.127 1 0
H60 H1+ 4 e 1.3062 0.0133 1.4389 0.127 1 0
H61 H1+ 4 e 0.6622 0.3235 0.7325 0.102 1 0
H62 H1+ 4 e 0.696 0.2775 0.7952 0.102 1 0
H63 H1+ 4 e 0.9505 0.1336 0.7995 0.102 1 0
H64 H1+ 4 e 0.7908 0.3162 0.7802 0.102 1 0
H65 H1+ 4 e 0.313 0.0452 0.6378 0.102 1 0
H66 H1+ 4 e 0.8592 0.1318 0.7206 0.102 1 0
H67 H1+ 4 e 0.9761 0.1646 0.7231 0.102 1 0
H68 H1+ 4 e 0.4132 0.0431 0.7121 0.102 1 0
H69 H1+ 4 e 0.3537 0.0001 0.7119 0.102 1 0
loop_
_atom_site_aniso_label
_atom_site_aniso_type_symbol
_atom_site_aniso_U_11
_atom_site_aniso_U_22
_atom_site_aniso_U_33
_atom_site_aniso_U_12
_atom_site_aniso_U_13
_atom_site_aniso_U_23
Sn1 Sn1- 0.0343(6) 0.0226(5) 0.0238(4) -0.0034(5) 0.0034(4) 0.0027(4)
Sn2 Sn1- 0.0308(6) 0.0269(6) 0.0229(5) -0.0017(4) -0.0004(4) -0.0012(4)
Sn3 Sn1- 0.0358(6) 0.0237(5) 0.0247(5) -0.0021(5) -0.0004(4) -0.0047(4)
Sn4 Sn1- 0.0389(7) 0.0203(5) 0.0253(5) 0.0029(5) 0.0026(4) -0.0001(4)
Sn5 Sn1- 0.0411(7) 0.0203(5) 0.0250(5) 0.0029(5) 0.0008(4) 0.0000(4)
Sn6 Sn1- 0.0325(6) 0.0268(6) 0.0228(5) -0.0015(5) 0.0030(4) 0.0003(4)
Sn7 Sn1- 0.0357(6) 0.0236(6) 0.0183(4) 0.0011(5) 0.0023(4) -0.0004(4)
Sn8 Sn1- 0.0347(6) 0.0231(6) 0.0183(5) 0.0008(5) 0.0010(4) 0.0000(4)
Na1 Na1+ 0.037(4) 0.047(4) 0.033(3) 0.001(3) 0.009(3) 0.001(3)
Na2 Na1+ 0.044(4) 0.047(4) 0.029(3) -0.002(3) -0.003(3) 0.003(3)
Na3 Na1+ 0.035(4) 0.028(3) 0.041(3) 0.002(3) 0.001(3) 0.004(3)
Na4 Na1+ 0.059(5) 0.042(4) 0.038(4) 0.001(4) -0.003(3) -0.017(3)
Na5 Na1+ 0.052(5) 0.034(4) 0.052(4) 0.006(3) 0.009(3) 0.015(3)
Na6 Na1+ 0.059(5) 0.028(4) 0.038(3) 0.005(3) -0.003(3) -0.006(3)
Na7 Na1+ 0.054(4) 0.072(5) 0.026(3) -0.010(4) 0.001(3) -0.005(3)
Na8 Na1+ 0.090(6) 0.110(7) 0.030(3) -0.025(6) 0.001(4) 0.005(4)
N1 N3- 0.033(8) 0.036(8) 0.037(7) 0.007(6) -0.010(6) 0.000(6)
N2 N3- 0.034(8) 0.042(8) 0.038(7) -0.006(6) 0.008(6) -0.007(6)
N3 N3- 0.070(12) 0.031(9) 0.034(7) -0.001(8) 0.012(7) -0.002(6)
N4 N3- 0.030(7) 0.045(8) 0.030(6) 0.012(6) 0.007(5) 0.005(6)
N5 N3- 0.044(8) 0.029(7) 0.046(7) 0.002(6) -0.008(6) -0.001(6)
N6 N3- 0.068(10) 0.030(7) 0.028(6) -0.009(7) 0.002(7) -0.001(5)
N7 N3- 0.047(9) 0.021(7) 0.037(7) -0.003(6) 0.009(6) -0.004(5)
N8 N3- 0.044(9) 0.040(8) 0.038(7) -0.002(7) 0.002(6) 0.007(6)
N9 N3- 0.064(11) 0.028(8) 0.035(7) -0.017(8) 0.003(7) 0.000(6)
N10 N3- 0.031(8) 0.045(9) 0.062(9) 0.004(7) -0.004(7) 0.002(7)
N11 N3- 0.055(10) 0.038(9) 0.036(7) -0.003(8) 0.020(7) -0.005(6)
N12 N3- 0.058(10) 0.021(7) 0.036(7) -0.006(7) 0.009(6) -0.001(5)
N13 N3- 0.040(9) 0.038(9) 0.039(8) -0.007(7) 0.003(6) -0.006(6)
N14 N3- 0.079(13) 0.038(9) 0.037(8) 0.017(8) -0.019(7) 0.006(6)
N15 N3- 0.042(9) 0.049(10) 0.036(7) 0.008(8) 0.020(6) 0.004(6)
N16 N3- 0.062(11) 0.033(9) 0.039(8) 0.008(8) 0.000(7) 0.006(6)
N17 N3- 0.053(10) 0.047(9) 0.047(8) 0.010(7) 0.007(7) -0.007(7)
N18 N3- 0.054(10) 0.038(8) 0.044(8) 0.005(7) 0.004(7) 0.005(7)
N19 N3- 0.050(10) 0.086(14) 0.032(8) -0.004(9) -0.001(7) 0.003(8)
N20 N3- 0.058(9) 0.050(9) 0.025(6) 0.006(7) 0.013(6) -0.003(6)
N21 N3- 0.054(10) 0.069(12) 0.050(9) 0.000(9) 0.011(7) -0.023(8)
N22 N3- 0.047(9) 0.053(10) 0.039(8) 0.004(7) 0.005(7) 0.013(7)
N23 N3- 0.073(12) 0.15(3) 0.032(8) -0.042(15) 0.006(8) 0.002(10)
#End of TTdata_421860-ICSD