
#(C) 2019 by FIZ Karlsruhe - Leibniz Institute for Information Infrastructure.  All rights reserved.
data_421916-ICSD
_database_code_ICSD 421916
_audit_creation_date 2011-02-01
_chemical_name_systematic 'Sodium calcium uranium oxide (3/1.5/1/6)'
_chemical_formula_structural 'Na3 Ca1.5 U O6'
_chemical_formula_sum 'Ca1.5 Na3 O6 U1'
_exptl_crystal_density_diffrn 4.78
_cell_measurement_temperature 150.
_publ_section_title

;
Crystal growth of uranium-containing complex oxides: Ba2 Na0.83 U1.17 O6, Ba
K4 U3 O12 and Na3 Ca1.5 U O6
;
loop_
_citation_id
_citation_journal_full
_citation_year
_citation_journal_volume
_citation_page_first
_citation_page_last
_citation_journal_id_ASTM
primary 'Solid State Sciences' 2010 12 1941 1947 SSSCFJ
loop_
_publ_author_name
'Roof, I.P.'
'Smith, M.D.'
'zur Loye, H.C.'
_cell_length_a 6.6573(2)
_cell_length_b 9.6111(3)
_cell_length_c 20.1155(5)
_cell_angle_alpha 90.
_cell_angle_beta 90.
_cell_angle_gamma 90.
_cell_volume 1287.07
_cell_formula_units_Z 8
_symmetry_space_group_name_H-M 'F d d d Z'
_symmetry_Int_Tables_number 70
_refine_ls_R_factor_all 0.0148
loop_
_symmetry_equiv_pos_site_id
_symmetry_equiv_pos_as_xyz
1 'x+3/4, y+3/4, -z'
2 'x+3/4, -y, z+3/4'
3 '-x, y+3/4, z+3/4'
4 '-x, -y, -z'
5 '-x+1/4, -y+1/4, z'
6 '-x+1/4, y, -z+1/4'
7 'x, -y+1/4, -z+1/4'
8 'x, y, z'
9 'x+3/4, y+1/4, -z+1/2'
10 'x+3/4, -y+1/2, z+1/4'
11 '-x, y+1/4, z+1/4'
12 '-x, -y+1/2, -z+1/2'
13 '-x+1/4, -y+3/4, z+1/2'
14 '-x+1/4, y+1/2, -z+3/4'
15 'x, -y+3/4, -z+3/4'
16 'x, y+1/2, z+1/2'
17 'x+1/4, y+3/4, -z+1/2'
18 'x+1/4, -y, z+1/4'
19 '-x+1/2, y+3/4, z+1/4'
20 '-x+1/2, -y, -z+1/2'
21 '-x+3/4, -y+1/4, z+1/2'
22 '-x+3/4, y, -z+3/4'
23 'x+1/2, -y+1/4, -z+3/4'
24 'x+1/2, y, z+1/2'
25 'x+1/4, y+1/4, -z'
26 'x+1/4, -y+1/2, z+3/4'
27 '-x+1/2, y+1/4, z+3/4'
28 '-x+1/2, -y+1/2, -z'
29 '-x+3/4, -y+3/4, z'
30 '-x+3/4, y+1/2, -z+1/4'
31 'x+1/2, -y+3/4, -z+1/4'
32 'x+1/2, y+1/2, z'
loop_
_atom_type_symbol
_atom_type_oxidation_number
U6+ 6
Ca2+ 2
Na1+ 1
O2- -2
loop_
_atom_site_label
_atom_site_type_symbol
_atom_site_symmetry_multiplicity
_atom_site_Wyckoff_symbol
_atom_site_fract_x
_atom_site_fract_y
_atom_site_fract_z
_atom_site_B_iso_or_equiv
_atom_site_occupancy
_atom_site_attached_hydrogens
U1 U6+ 8 b 0.125 0.125 0.625 0.00515(5) 1 0
Ca1 Ca2+ 16 g 0.125 0.125 0.45722(4) 0.01049(14) 0.75 0
Na1 Na1+ 8 a 0.125 0.125 0.125 0.0135(4) 1 0
Na2 Na1+ 16 g 0.125 0.125 0.28632(6) 0.0065(2) 1 0
O1 O2- 16 f 0.125 0.4101(2) 0.125 0.0088(3) 1 0
O2 O2- 32 h 0.4022(3) 0.12434(19) 0.05057(8) 0.0091(3) 1 0
loop_
_atom_site_aniso_label
_atom_site_aniso_type_symbol
_atom_site_aniso_U_11
_atom_site_aniso_U_22
_atom_site_aniso_U_33
_atom_site_aniso_U_12
_atom_site_aniso_U_13
_atom_site_aniso_U_23
U1 U6+ 0.00481(7) 0.00598(7) 0.00467(6) 0. 0. 0.
Ca1 Ca2+ 0.0110(3) 0.0110(3) 0.0095(3) 0.0007(6) 0. 0.
Na1 Na1+ 0.0030(7) 0.0308(11) 0.0068(7) 0. 0. 0.
Na2 Na1+ 0.0070(5) 0.0058(5) 0.0067(4) -0.0035(9) 0. 0.
O1 O2- 0.0083(8) 0.0085(8) 0.0096(8) 0. -0.0013(8) 0.
O2 O2- 0.0089(6) 0.0103(6) 0.0079(6) 0.0002(6) -0.0005(5) -0.0007(5)
#End of TTdata_421916-ICSD