
#(C) 2019 by FIZ Karlsruhe - Leibniz Institute for Information Infrastructure.  All rights reserved.
data_4219-ICSD
_database_code_ICSD 4219
_audit_creation_date 1980-01-01
_audit_update_record 2015-08-01
_chemical_name_systematic 'Disodium oxide tris(borate) tetrahydrate'
_chemical_formula_structural 'Na2 (B3 O3 (O H)4)2'
_chemical_formula_sum 'H8 B6 Na2 O14'
_chemical_name_mineral Ameghinite
_exptl_crystal_density_diffrn 2.04
_publ_section_title 'The crystal structure of ameghinite'
loop_
_citation_id
_citation_journal_full
_citation_year
_citation_journal_volume
_citation_page_first
_citation_page_last
_citation_journal_id_ASTM
primary 'American Mineralogist' 1975 60 879 883 AMMIAY
loop_
_publ_author_name
'dal Negro, A.'
'Pozas, J.M.M.'
'Ungaretti, L.'
_cell_length_a 18.4280(30)
_cell_length_b 9.882(2)
_cell_length_c 6.326(2)
_cell_angle_alpha 90.
_cell_angle_beta 104.37(10)
_cell_angle_gamma 90.
_cell_volume 1115.96
_cell_formula_units_Z 4
_symmetry_space_group_name_H-M 'C 1 2/c 1'
_symmetry_Int_Tables_number 15
_refine_ls_R_factor_all 0.038
loop_
_symmetry_equiv_pos_site_id
_symmetry_equiv_pos_as_xyz
1 'x, -y, z+1/2'
2 '-x, -y, -z'
3 '-x, y, -z+1/2'
4 'x, y, z'
5 'x+1/2, -y+1/2, z+1/2'
6 '-x+1/2, -y+1/2, -z'
7 '-x+1/2, y+1/2, -z+1/2'
8 'x+1/2, y+1/2, z'
loop_
_atom_type_symbol
_atom_type_oxidation_number
Na1+ 1
O2- -2
B3+ 3
H1+ 1
loop_
_atom_site_label
_atom_site_type_symbol
_atom_site_symmetry_multiplicity
_atom_site_Wyckoff_symbol
_atom_site_fract_x
_atom_site_fract_y
_atom_site_fract_z
_atom_site_B_iso_or_equiv
_atom_site_occupancy
_atom_site_attached_hydrogens
Na1 Na1+ 8 f 0.1730(1) 0.2380(1) 0.1032(2) 1.64 1. 0
O1 O2- 8 f 0.5494(1) 0.1575(2) 0.4964(3) 1.62 1. 0
O2 O2- 8 f 0.3011(1) 0.1606(2) 0.2150(3) 1.29 1. 0
O3 O2- 8 f 0.3058(1) 0.1016(2) 0.5929(3) 1.35 1. 0
O4 O2- 8 f 0.3986(1) 0.5352(2) 0.5164(3) 1.61 1. 0
O5 O2- 8 f 0.4701(1) 0.3401(2) 0.4812(3) 1.48 1. 0
O6 O2- 8 f 0.3437(1) 0.3196(2) 0.4990(3) 1.5 1. 0
O7 O2- 8 f 0.4194(1) 0.1177(2) 0.4800(3) 1.26 1. 0
B1 B3+ 8 f 0.3412(2) 0.1716(3) 0.4414(5) 1.07 1. 0
B2 B3+ 8 f 0.4028(2) 0.3987(3) 0.4959(5) 1.14 1. 0
B3 B3+ 8 f 0.4778(2) 0.1994(3) 0.4828(5) 1.12 1. 0
H1 H1+ 8 f 0.561 0.059 0.505 3. 1. 0
H2 H1+ 8 f 0.303 0.065 0.171 3. 1. 0
H3 H1+ 8 f 0.252 0.13 0.56 3. 1. 0
H4 H1+ 8 f 0.447 0.581 0.517 3. 1. 0
#End of TTdata_4219-ICSD