
#(C) 2019 by FIZ Karlsruhe - Leibniz Institute for Information Infrastructure.  All rights reserved.
data_422047-ICSD
_database_code_ICSD 422047
_audit_creation_date 2013-08-01
_chemical_name_systematic 'Sodium lanthanum titanate'
_chemical_formula_structural 'Na La (Ti O4)'
_chemical_formula_sum 'La1 Na1 O4 Ti1'
_chemical_name_structure_type (La,K)2CuO4
_exptl_crystal_density_diffrn 4.74
_cell_measurement_temperature 293.
_publ_section_title

;
Syntheses and Crystal Structures of the Compounds Na Ln Ti O4  (Ln = La, Pr,
Nd)
;
loop_
_citation_id
_citation_journal_full
_citation_year
_citation_journal_volume
_citation_page_first
_citation_page_last
_citation_journal_id_ASTM
primary 'Journal of Chemical Crystallography' 2012 42 529 532 JCCYEV
loop_
_publ_author_name
'Stackhouse, Chavis A.'
'Bugaris, Daniel E.'
'Khalsa, Hargobind S.'
'Zhao, Qingbiao'
'Bharathy, Muktha'
'zur Loye, Hans-Conrad'
_cell_length_a 3.7998(5)
_cell_length_b 3.7998(5)
_cell_length_c 13.273(3)
_cell_angle_alpha 90.
_cell_angle_beta 90.
_cell_angle_gamma 90.
_cell_volume 191.64
_cell_formula_units_Z 2
_symmetry_space_group_name_H-M 'P 4/n m m Z'
_symmetry_Int_Tables_number 129
_refine_ls_R_factor_all 0.023
loop_
_symmetry_equiv_pos_site_id
_symmetry_equiv_pos_as_xyz
1 'y+1/2, x+1/2, -z'
2 '-y, x+1/2, -z'
3 'y+1/2, -x, -z'
4 '-y, -x, -z'
5 'x+1/2, y+1/2, -z'
6 '-x, y+1/2, -z'
7 'x+1/2, -y, -z'
8 '-x, -y, -z'
9 '-y+1/2, -x+1/2, z'
10 'y, -x+1/2, z'
11 '-y+1/2, x, z'
12 'y, x, z'
13 '-x+1/2, -y+1/2, z'
14 'x, -y+1/2, z'
15 '-x+1/2, y, z'
16 'x, y, z'
loop_
_atom_type_symbol
_atom_type_oxidation_number
La3+ 3
Ti4+ 4
Na1+ 1
O2- -2
loop_
_atom_site_label
_atom_site_type_symbol
_atom_site_symmetry_multiplicity
_atom_site_Wyckoff_symbol
_atom_site_fract_x
_atom_site_fract_y
_atom_site_fract_z
_atom_site_B_iso_or_equiv
_atom_site_occupancy
_atom_site_attached_hydrogens
La1 La3+ 2 c 0.25 0.25 0.89147(3) 0.00848(14) 1 0
Ti1 Ti4+ 2 c 0.25 0.25 0.26824(10) 0.0086(2) 1 0
Na1 Na1+ 2 c 0.25 0.25 0.5888(2) 0.0027(4) 1 0
O1 O2- 4 f 0.75 0.25 0.2344(3) 0.0115(6) 1 0
O2 O2- 2 c 0.25 0.25 0.0702(5) 0.0137(10) 1 0
O3 O2- 2 c 0.25 0.25 0.3972(5) 0.0198(13) 1 0
loop_
_atom_site_aniso_label
_atom_site_aniso_type_symbol
_atom_site_aniso_U_11
_atom_site_aniso_U_22
_atom_site_aniso_U_33
_atom_site_aniso_U_12
_atom_site_aniso_U_13
_atom_site_aniso_U_23
La1 La3+ 0.00792(15) 0.00792(15) 0.0096(2) 0. 0. 0.
Ti1 Ti4+ 0.0072(3) 0.0072(3) 0.0113(5) 0. 0. 0.
Na1 Na1+ 0.0027(6) 0.0027(6) 0.0027(10) 0. 0. 0.
O1 O2- 0.0070(13) 0.0085(13) 0.0191(16) 0. 0. 0.
O2 O2- 0.0124(14) 0.0124(14) 0.016(3) 0. 0. 0.
O3 O2- 0.022(2) 0.022(2) 0.016(3) 0. 0. 0.
#End of TTdata_422047-ICSD