
#(C) 2019 by FIZ Karlsruhe - Leibniz Institute for Information Infrastructure.  All rights reserved.
data_422034-ICSD
_database_code_ICSD 422034
_audit_creation_date 2011-02-01
_audit_update_record 2013-08-01
_chemical_name_systematic 'Disodium tris(disulfato) silicate'
_chemical_formula_structural 'Na2 Si (S2 O7)3'
_chemical_formula_sum 'Na2 O21 S6 Si1'
_chemical_name_structure_type Na2Si(S2O7)3
_exptl_crystal_density_diffrn 2.29
_cell_measurement_temperature 153.
_publ_section_title

;
The [Si (S2 O7)3]2- anion: a first example of octahedral silicon coordination
by three chelating inorganic ligands
;
loop_
_citation_id
_citation_journal_full
_citation_year
_citation_journal_volume
_citation_page_first
_citation_page_last
_citation_journal_id_ASTM
primary 'Chemistry - A European Journal' 2011 17 758 760 CEUJED
loop_
_publ_author_name
'Logemann, C.'
'Kluener, T.'
'Wickleder, M.S.'
_cell_length_a 9.5415(5)
_cell_length_b 12.6676(7)
_cell_length_c 14.4363(8)
_cell_angle_alpha 90.
_cell_angle_beta 90.
_cell_angle_gamma 90.
_cell_volume 1744.89
_cell_formula_units_Z 4
_symmetry_space_group_name_H-M 'P 21 21 21'
_symmetry_Int_Tables_number 19
_refine_ls_R_factor_all 0.0208
loop_
_symmetry_equiv_pos_site_id
_symmetry_equiv_pos_as_xyz
1 '-x, y+1/2, -z+1/2'
2 'x+1/2, -y+1/2, -z'
3 '-x+1/2, -y, z+1/2'
4 'x, y, z'
loop_
_atom_type_symbol
_atom_type_oxidation_number
S6+ 6
Si4+ 4
S6+ 6
O2- -2
Na1+ 1
O2- -2
loop_
_atom_site_label
_atom_site_type_symbol
_atom_site_symmetry_multiplicity
_atom_site_Wyckoff_symbol
_atom_site_fract_x
_atom_site_fract_y
_atom_site_fract_z
_atom_site_B_iso_or_equiv
_atom_site_occupancy
_atom_site_attached_hydrogens
S1 S6+ 4 a 0.15677(3) 0.38255(2) 0.225040(17) 0.01222(4) 1 0
S2 S6+ 4 a 0.17166(3) 0.59780(2) 0.274881(16) 0.01128(4) 1 0
S3 S6+ 4 a 0.70246(3) 0.39580(2) 0.180554(15) 0.01118(4) 1 0
S4 S6+ 4 a 0.52080(3) 0.53276(2) 0.086621(15) 0.01209(4) 1 0
Si1 Si4+ 4 a 0.43590(3) 0.46796(2) 0.275236(18) 0.00927(5) 1 0
S5 S6+ 4 a 0.52448(3) 0.38680(2) 0.459621(15) 0.01187(4) 1 0
S6 S6+ 4 a 0.61404(3) 0.59212(2) 0.414619(16) 0.01190(4) 1 0
O1 O2- 4 a 0.56475(7) 0.38158(6) 0.23089(5) 0.01178(12) 1 0
O2 O2- 4 a 0.42570(8) 0.39323(7) 0.37835(5) 0.01197(13) 1 0
O3 O2- 4 a 0.12380(8) 0.50464(7) 0.20344(5) 0.01390(14) 1 0
O4 O2- 4 a 0.20153(9) 0.68357(6) 0.21554(5) 0.01685(15) 1 0
O5 O2- 4 a 0.56537(8) 0.55179(7) 0.32206(5) 0.01246(13) 1 0
O6 O2- 4 a 0.30111(8) 0.55072(6) 0.31852(5) 0.01120(12) 1 0
O7 O2- 4 a 0.44075(8) 0.54915(6) 0.17544(4) 0.01135(13) 1 0
O8 O2- 4 a 0.31424(7) 0.38115(6) 0.22490(5) 0.01284(13) 1 0
O9 O2- 4 a 0.46952(9) 0.44285(7) 0.03864(5) 0.01833(16) 1 0
O10 O2- 4 a 0.54117(9) 0.51103(7) 0.48662(5) 0.01441(14) 1 0
O11 O2- 4 a 0.45444(10) 0.34407(7) 0.53715(5) 0.01899(16) 1 0
O12 O2- 4 a 0.10198(9) 0.35707(7) 0.31368(5) 0.01850(16) 1 0
O13 O2- 4 a 0.53712(10) 0.62960(7) 0.03927(5) 0.01987(17) 1 0
O14 O2- 4 a 0.76162(9) 0.58104(8) 0.42084(6) 0.01993(17) 1 0
O15 O2- 4 a 0.67685(8) 0.50681(7) 0.12546(5) 0.01427(14) 1 0
O16 O2- 4 a 0.65854(9) 0.34855(7) 0.43352(5) 0.01790(15) 1 0
O17 O2- 4 a 0.06593(9) 0.60797(8) 0.34259(5) 0.01948(16) 1 0
O18 O2- 4 a 0.10654(10) 0.32941(7) 0.14554(6) 0.02076(17) 1 0
O19 O2- 4 a 0.55349(11) 0.69084(7) 0.43701(6) 0.02238(18) 1 0
Na1 Na1+ 4 a 0.44213(5) 0.80062(4) 0.54004(3) 0.01613(9) 1 0
Na2 Na1+ 4 a 0.88763(5) 0.31617(4) 0.38547(3) 0.01521(9) 1 0
O20 O2- 4 a 0.71836(9) 0.31550(7) 0.11258(5) 0.01717(15) 1 0
O21 O2- 4 a 0.81483(8) 0.41877(7) 0.24149(5) 0.01716(15) 1 0
loop_
_atom_site_aniso_label
_atom_site_aniso_type_symbol
_atom_site_aniso_U_11
_atom_site_aniso_U_22
_atom_site_aniso_U_33
_atom_site_aniso_U_12
_atom_site_aniso_U_13
_atom_site_aniso_U_23
S1 S6+ 0.01065(9) 0.01231(11) 0.01371(9) -0.00198(9) -0.00167(8) -0.00062(8)
S2 S6+ 0.01156(9) 0.01208(11) 0.01020(8) 0.00185(8) -0.00001(7) -0.00066(8)
S3 S6+ 0.01001(9) 0.01325(11) 0.01029(8) 0.00175(9) 0.00104(7) 0.00071(8)
S4 S6+ 0.01452(10) 0.01379(11) 0.00796(8) 0.00278(9) 0.00147(7) 0.00138(8)
Si1 Si4+ 0.00923(10) 0.01042(12) 0.00817(9) -0.00052(9) 0.00013(8) -0.00011(9)
S5 S6+ 0.01440(10) 0.01260(11) 0.00861(8) 0.00168(9) 0.00112(7) 0.00130(8)
S6 S6+ 0.01307(9) 0.01266(11) 0.00999(8) -0.00084(9) -0.00077(7) -0.00183(8)
O1 O2- 0.0105(3) 0.0127(3) 0.0122(3) 0.0009(3) 0.0020(2) 0.0006(2)
O2 O2- 0.0121(3) 0.0138(3) 0.0101(2) -0.0012(3) 0.0001(2) 0.0025(2)
O3 O2- 0.0150(3) 0.0127(3) 0.0140(3) -0.0002(3) -0.0043(2) -0.0001(2)
O4 O2- 0.0229(4) 0.0126(4) 0.0151(3) -0.0002(3) -0.0032(3) 0.0017(3)
O5 O2- 0.0129(3) 0.0160(4) 0.0085(2) -0.0037(3) -0.0015(2) -0.0004(2)
O6 O2- 0.0108(3) 0.0134(3) 0.0094(2) 0.0018(3) -0.0010(2) -0.0016(2)
O7 O2- 0.0131(3) 0.0133(3) 0.0076(2) 0.0022(3) 0.0013(2) 0.0003(2)
O8 O2- 0.0100(3) 0.0141(3) 0.0144(3) -0.0009(3) -0.0003(2) -0.0034(3)
O9 O2- 0.0215(4) 0.0205(4) 0.0130(3) 0.0035(3) -0.0027(3) -0.0060(3)
O10 O2- 0.0208(4) 0.0135(3) 0.0088(2) -0.0006(3) 0.0021(2) -0.0005(2)
O11 O2- 0.0288(4) 0.0176(4) 0.0106(3) -0.0007(3) 0.0056(3) 0.0033(3)
O12 O2- 0.0150(3) 0.0214(4) 0.0191(3) -0.0013(3) 0.0034(3) 0.0058(3)
O13 O2- 0.0251(4) 0.0183(4) 0.0162(3) 0.0057(4) 0.0060(3) 0.0089(3)
O14 O2- 0.0122(3) 0.0295(5) 0.0181(3) -0.0037(3) -0.0041(3) -0.0016(3)
O15 O2- 0.0123(3) 0.0150(4) 0.0156(3) 0.0011(3) 0.0022(2) 0.0040(3)
O16 O2- 0.0149(3) 0.0199(4) 0.0189(3) 0.0048(3) -0.0002(3) 0.0006(3)
O17 O2- 0.0139(3) 0.0276(5) 0.0169(3) 0.0059(4) 0.0045(3) -0.0017(3)
O18 O2- 0.0208(4) 0.0188(4) 0.0226(4) -0.0034(4) -0.0082(3) -0.0069(3)
O19 O2- 0.0342(5) 0.0128(4) 0.0201(3) 0.0035(4) 0.0041(3) -0.0024(3)
Na1 Na1+ 0.0201(2) 0.0131(2) 0.01524(18) 0.00058(19) 0.00450(16) 0.00077(16)
Na2 Na1+ 0.01447(19) 0.0186(2) 0.01252(17) -0.00056(18) -0.00043(15)
-0.00046(16)
O20 O2- 0.0210(4) 0.0173(4) 0.0132(3) 0.0039(3) 0.0036(3) -0.0019(3)
O21 O2- 0.0111(3) 0.0217(4) 0.0187(3) 0.0002(3) -0.0033(2) 0.0018(3)
#End of TTdata_422034-ICSD