
#(C) 2019 by FIZ Karlsruhe - Leibniz Institute for Information Infrastructure.  All rights reserved.
data_422006-ICSD
_database_code_ICSD 422006
_audit_creation_date 2011-02-01
_chemical_name_systematic 'Arsenic sodium titanium pentaoxide'
_chemical_formula_structural 'As Na Ti O5'
_chemical_formula_sum 'As1 Na1 O5 Ti1'
_exptl_crystal_density_diffrn 3.9
_cell_measurement_temperature 298.
_publ_section_title 'Crystal structure of As Na Ti O5 (private communication)'
loop_
_citation_id
_citation_journal_full
_citation_year
_citation_journal_volume
_citation_page_first
_citation_page_last
_citation_journal_id_ASTM
primary 'Private Communication' 2010 1 1 1 PRICO6
loop_
_publ_author_name
'Driss, A.'
_cell_length_a 6.706(2)
_cell_length_b 8.763(5)
_cell_length_c 7.208(9)
_cell_angle_alpha 90
_cell_angle_beta 114.84(2)
_cell_angle_gamma 90
_cell_volume 384.39
_cell_formula_units_Z 4
_symmetry_space_group_name_H-M 'C 1 2/c 1'
_symmetry_Int_Tables_number 15
_refine_ls_R_factor_all 0.0548
loop_
_symmetry_equiv_pos_site_id
_symmetry_equiv_pos_as_xyz
1 'x, -y, z+1/2'
2 '-x, -y, -z'
3 '-x, y, -z+1/2'
4 'x, y, z'
5 'x+1/2, -y+1/2, z+1/2'
6 '-x+1/2, -y+1/2, -z'
7 '-x+1/2, y+1/2, -z+1/2'
8 'x+1/2, y+1/2, z'
loop_
_atom_type_symbol
_atom_type_oxidation_number
Na1+ 1
Ti4+ 4
As5+ 5
O2- -2
loop_
_atom_site_label
_atom_site_type_symbol
_atom_site_symmetry_multiplicity
_atom_site_Wyckoff_symbol
_atom_site_fract_x
_atom_site_fract_y
_atom_site_fract_z
_atom_site_B_iso_or_equiv
_atom_site_occupancy
_atom_site_attached_hydrogens
Na1 Na1+ 4 e 0.5 1.3267(5) 0.75 0.0178(13) 1 0
Ti1 Ti4+ 4 b 0.5 1 0.5 0.001(2) 0.4 0
Ti2 Ti4+ 8 f 0.5024(10) 0.9903(7) 0.4701(10) 0.001 0.3 0
As1 As5+ 4 e 0.5 0.31688(11) 0.25 0.0011(5) 1 0
O1 O2- 8 f 0.8965(9) 0.7097(6) 0.3828(9) 0.0058(12) 1 0
O2 O2- 4 e 0.5 1.0649(9) 0.75 0.0066(17) 1 0
O3 O2- 8 f 0.3108(9) 0.4338(6) 0.0856(8) 0.0051(12) 1 0
loop_
_atom_site_aniso_label
_atom_site_aniso_type_symbol
_atom_site_aniso_U_11
_atom_site_aniso_U_22
_atom_site_aniso_U_33
_atom_site_aniso_U_12
_atom_site_aniso_U_13
_atom_site_aniso_U_23
Na1 Na1+ 0.009(3) 0.009(3) 0.031(3) 0 0.004(2) 0
#End of TTdata_422006-ICSD