
#(C) 2019 by FIZ Karlsruhe - Leibniz Institute for Information Infrastructure.  All rights reserved.
data_422057-ICSD
_database_code_ICSD 422057
_audit_creation_date 2011-08-01
_chemical_name_systematic 'Sodium indium tetraiodate(V)'
_chemical_formula_structural 'Na In (I O3)4'
_chemical_formula_sum 'I4 In1 Na1 O12'
_exptl_crystal_density_diffrn 5.08
_cell_measurement_temperature 293.
_publ_section_title
'A series of new alkali metal indium iodates with isolated or extended anions'
loop_
_citation_id
_citation_journal_full
_citation_year
_citation_journal_volume
_citation_page_first
_citation_page_last
_citation_journal_id_ASTM
primary 'Dalton Transactions' 2011 40 1055 1060 DTARAF
loop_
_publ_author_name
'Yang, Bing Ping'
'Sun, Chuan Fu'
'Hu, Chun Li'
'Mao, Jiang Gao'
_cell_length_a 7.265(4)
_cell_length_b 4.957(2)
_cell_length_c 15.515(9)
_cell_angle_alpha 90.
_cell_angle_beta 101.404(9)
_cell_angle_gamma 90.
_cell_volume 547.7
_cell_formula_units_Z 2
_symmetry_space_group_name_H-M 'P 1 21/c 1'
_symmetry_Int_Tables_number 14
_refine_ls_R_factor_all 0.0189
loop_
_symmetry_equiv_pos_site_id
_symmetry_equiv_pos_as_xyz
1 'x, -y+1/2, z+1/2'
2 '-x, -y, -z'
3 '-x, y+1/2, -z+1/2'
4 'x, y, z'
loop_
_atom_type_symbol
_atom_type_oxidation_number
Na1+ 1
In3+ 3
I5+ 5
O2- -2
loop_
_atom_site_label
_atom_site_type_symbol
_atom_site_symmetry_multiplicity
_atom_site_Wyckoff_symbol
_atom_site_fract_x
_atom_site_fract_y
_atom_site_fract_z
_atom_site_B_iso_or_equiv
_atom_site_occupancy
_atom_site_attached_hydrogens
Na1 Na1+ 2 d 0.5 0.5 0. 0.0196(6) 1 0
In1 In3+ 2 c 0. 0.5 0. 0.00930(10) 1 0
I1 I5+ 4 e 0.33207(3) 0.91170(5) 0.162956(16) 0.00979(8) 1 0
I2 I5+ 4 e -0.18145(3) 0.98915(5) 0.138265(17) 0.00905(8) 1 0
O1 O2- 4 e 0.2535(4) 0.6739(6) 0.0725(2) 0.0176(6) 1 0
O2 O2- 4 e 0.1715(4) 0.8070(7) 0.23167(19) 0.0181(6) 1 0
O3 O2- 4 e 0.5463(4) 0.7297(6) 0.20632(19) 0.0165(6) 1 0
O4 O2- 4 e -0.1970(4) 0.7388(6) 0.0496(2) 0.0175(6) 1 0
O5 O2- 4 e -0.0041(4) 1.2078(6) 0.10471(19) 0.0152(6) 1 0
O6 O2- 4 e -0.3955(4) 1.1556(6) 0.09257(19) 0.0151(6) 1 0
loop_
_atom_site_aniso_label
_atom_site_aniso_type_symbol
_atom_site_aniso_U_11
_atom_site_aniso_U_22
_atom_site_aniso_U_33
_atom_site_aniso_U_12
_atom_site_aniso_U_13
_atom_site_aniso_U_23
Na1 Na1+ 0.0143(12) 0.0191(13) 0.0252(14) 0.0045(10) 0.0037(11) 0.0090(10)
In1 In3+ 0.00789(19) 0.0096(2) 0.0101(2) 0.00011(14) 0.00101(15) -0.00028(13)
I1 I5+ 0.00666(13) 0.01183(14) 0.01038(13) -0.00045(10) 0.00046(9) 0.00048(9)
I2 I5+ 0.00686(13) 0.00992(14) 0.01026(14) 0.00069(9) 0.00139(10) 0.00036(8)
O1 O2- 0.0122(14) 0.0233(16) 0.0161(15) -0.0049(13) 0.0001(12) -0.0085(13)
O2 O2- 0.0110(14) 0.0262(17) 0.0179(15) 0.0000(13) 0.0047(12) 0.0087(13)
O3 O2- 0.0099(14) 0.0177(16) 0.0208(16) 0.0032(12) 0.0001(12) 0.0047(12)
O4 O2- 0.0150(15) 0.0166(15) 0.0217(16) -0.0006(13) 0.0057(12) -0.0098(12)
O5 O2- 0.0100(14) 0.0190(16) 0.0166(15) -0.0020(12) 0.0026(11) 0.0067(12)
O6 O2- 0.0098(14) 0.0184(15) 0.0168(15) 0.0068(12) 0.0022(11) 0.0040(12)
#End of TTdata_422057-ICSD