
#(C) 2018 by FIZ Karlsruhe - Leibniz Institute for Information Infrastructure.  All rights reserved.
data_422091-ICSD
_database_code_ICSD 422091
_audit_creation_date 2014-08-01
_chemical_name_systematic 'Lithium strontium diyttrium tris(borate)'
_chemical_formula_structural 'Li Sr Y2 (B O3)3'
_chemical_formula_sum 'B3 Li1 O9 Sr1 Y2'
_exptl_crystal_density_diffrn 3.81
_cell_measurement_temperature 113.
_publ_section_title
'Structure and properties of a new rare-earth borate LiSrY2(BO3)3'
loop_
_citation_id
_citation_journal_full
_citation_year
_citation_journal_volume
_citation_page_first
_citation_page_last
_citation_journal_id_ASTM
primary 'Jiegou Huaxue ' 2010 29 1309 1316 JHUADF
loop_
_publ_author_name
'Song, Li-Mei'
'Gao, Jian-Hua'
'Yang, Xiao-Hui'
'Huang, Xin-Wei'
'Liu, Guang-Qiong'
_cell_length_a 10.3020(15)
_cell_length_b 10.3020(15)
_cell_length_c 6.3924(13)
_cell_angle_alpha 90.
_cell_angle_beta 90.
_cell_angle_gamma 120.
_cell_volume 587.54
_cell_formula_units_Z 3
_symmetry_space_group_name_H-M 'P -3 m 1'
_symmetry_Int_Tables_number 164
_refine_ls_R_factor_all 0.0484
loop_
_symmetry_equiv_pos_site_id
_symmetry_equiv_pos_as_xyz
1 'x-y, -y, -z'
2 '-x, -x+y, -z'
3 'y, x, -z'
4 'x-y, x, -z'
5 'y, -x+y, -z'
6 '-x, -y, -z'
7 '-x+y, y, z'
8 'x, x-y, z'
9 '-y, -x, z'
10 '-x+y, -x, z'
11 '-y, x-y, z'
12 'x, y, z'
loop_
_atom_type_symbol
_atom_type_oxidation_number
Y3+ 3
Sr2+ 2
O2- -2
B3+ 3
Li1+ 1
loop_
_atom_site_label
_atom_site_type_symbol
_atom_site_symmetry_multiplicity
_atom_site_Wyckoff_symbol
_atom_site_fract_x
_atom_site_fract_y
_atom_site_fract_z
_atom_site_B_iso_or_equiv
_atom_site_occupancy
_atom_site_attached_hydrogens
Y1 Y3+ 6 i 0.17775(4) 0.35550(8) 0.36156(10) 0.0123(2) 1 0
Sr1 Sr2+ 3 e 0.5 0.5 0. 0.0108(2) 1 0
O1 O2- 6 i 0.4101(3) 0.5899(3) 0.3357(7) 0.0104(8) 1 0
O2 O2- 6 i 0.1978(3) 0.3955(6) 0.0143(7) 0.0154(9) 1 0
O3 O2- 12 j 0.0722(4) 0.3732(5) 0.6907(5) 0.0208(8) 1 0
O4 O2- 6 h 0.1287(11) 0.1287(11) 0.5 0.024(2) 0.5 0
B1 B3+ 2 d 0.3333 0.6667 0.3323(19) 0.0094(19) 1 0
B2 B3+ 6 i 0.1888(4) 0.3776(9) 0.8028(11) 0.0121(12) 1 0
B3 B3+ 1 b 0. 0. 0.5 0.034(7) 1 0
Li1 Li1+ 3 f 0.5 0.5 0.5 0.020(4) 1 0
loop_
_atom_site_aniso_label
_atom_site_aniso_type_symbol
_atom_site_aniso_U_11
_atom_site_aniso_U_22
_atom_site_aniso_U_33
_atom_site_aniso_U_12
_atom_site_aniso_U_13
_atom_site_aniso_U_23
Y1 Y3+ 0.0145(3) 0.0126(3) 0.0092(3) 0.00632(16) 0.00078(10) 0.0016(2)
Sr1 Sr2+ 0.0128(3) 0.0128(3) 0.0096(4) 0.0084(3) 0.00010(12) -0.00010(12)
O1 O2- 0.0101(14) 0.0101(14) 0.0109(19) 0.0050(16) -0.0003(8) 0.0003(8)
O2 O2- 0.0149(15) 0.025(3) 0.010(2) 0.0123(13) -0.0004(9) -0.0008(18)
O3 O2- 0.0133(15) 0.042(2) 0.0106(15) 0.0167(16) 0.0001(12) 0.0017(15)
O4 O2- 0.019(4) 0.019(4) 0.029(6) 0.006(4) -0.003(2) 0.003(2)
B1 B3+ 0.008(3) 0.008(3) 0.012(5) 0.0042(14) 0. 0.
B2 B3+ 0.012(2) 0.015(3) 0.010(3) 0.0076(15) 0.0000(12) 0.000(2)
B3 B3+ 0.011(5) 0.011(5) 0.08(2) 0.006(3) 0. 0.
Li1 Li1+ 0.019(6) 0.019(6) 0.019(9) 0.008(7) -0.003(3) 0.003(3)
#End of TTdata_422091-ICSD