
#(C) 2017 by FIZ Karlsruhe - Leibniz Institute for Information Infrastructure.  All rights reserved.
data_422235-ICSD
_database_code_ICSD 422235
_audit_creation_date 2011-02-01
_chemical_name_systematic
'Lithium aluminium dihydroxide chloride hydrate (0.35/1/2/0.35/1.9)'
_chemical_formula_structural '(Li0.35 Al (O H)2) Cl0.35 (H2 O)1.90 (Cl)'
_chemical_formula_sum 'H5.8 Al1 Cl1.35 Li0.35 O3.9'
_exptl_crystal_density_diffrn 2.8
_cell_measurement_temperature 301.
_publ_section_title

;
Structure of Bayerite-based lithium-aluminium layered double hydroxides
(LDHs): Observation of monoclinic symmetry
;
loop_
_citation_id
_citation_journal_full
_citation_year
_citation_journal_volume
_citation_page_first
_citation_page_last
_citation_journal_id_ASTM
primary 'Inorganic Chemistry' 2009 48 11646 11654 INOCAJ
loop_
_publ_author_name
'Britto, S.'
'Vishnu Kamath, P.'
_cell_length_a 5.0992(6)
_cell_length_b 8.8215(9)
_cell_length_c 7.8668(6)
_cell_angle_alpha 90.
_cell_angle_beta 102.509(14)
_cell_angle_gamma 90.
_cell_volume 345.47
_cell_formula_units_Z 4
_symmetry_space_group_name_H-M 'C 1 2/m 1'
_symmetry_Int_Tables_number 12
_refine_ls_R_factor_all 0.1095
loop_
_symmetry_equiv_pos_site_id
_symmetry_equiv_pos_as_xyz
1 '-x, y, -z'
2 '-x, -y, -z'
3 'x, -y, z'
4 'x, y, z'
5 '-x+1/2, y+1/2, -z'
6 '-x+1/2, -y+1/2, -z'
7 'x+1/2, -y+1/2, z'
8 'x+1/2, y+1/2, z'
loop_
_atom_type_symbol
_atom_type_oxidation_number
Li1+ 1
Al3+ 3
O2- -2
Cl1- -1
H1+ 1
Cl1- -1
loop_
_atom_site_label
_atom_site_type_symbol
_atom_site_symmetry_multiplicity
_atom_site_Wyckoff_symbol
_atom_site_fract_x
_atom_site_fract_y
_atom_site_fract_z
_atom_site_B_iso_or_equiv
_atom_site_occupancy
_atom_site_attached_hydrogens
Li1 Li1+ 2 a 0. 0. 0. 0.025 0.7 0
Al1 Al3+ 4 g 0. 0.3313(9) 0. 0.00573 1. 0
O1 O2- 8 j 0.8662(15) 0.1699(7) 0.1279(5) 0.00108 1. 0
O2 O2- 4 i 0.3602(20) 0. 0.1264(10) 0.04106 1. 0
O3 O2- 8 j 0.2531(28) 0.1582(17) 0.5018(16) 0.02277 0.45192 0
Cl1 Cl1- 4 h 0. 0.183(5) 0.5 0.08421 0.16694 0
Cl2 Cl1- 4 i 0.6642(35) 0. 0.4985(29) 0.01662 0.18606 0
#End of TTdata_422235-ICSD