
#(C) 2019 by FIZ Karlsruhe - Leibniz Institute for Information Infrastructure.  All rights reserved.
data_422494-ICSD
_database_code_ICSD 422494
_audit_creation_date 2013-02-01
_chemical_name_systematic 'Disodium germanium tris(disulfate(VI))'
_chemical_formula_structural 'Na2 (Ge (S2 O7)3)'
_chemical_formula_sum 'Ge1 Na2 O21 S6'
_chemical_name_structure_type Na2Si(S2O7)3
_exptl_crystal_density_diffrn 2.42
_cell_measurement_temperature 153.
_publ_section_title

;
New compounds bearing [M (S2 O7)3](2-) anions (M = Si, Ge, Sn): Syntheses and
characterization of A2 [Si (S2 O7)3] (A = Na, K, Rb), A2 [Ge (S2 O7)3] (A =
Li, Na, K, Rb, Cs), A2 [Sn (S2 O7)3] (A = Na, K), and the unique germanate Hg2
[Ge (S2 O7)3] Cl2 with cationic [Hg Cl2/2]+ chains
;
loop_
_citation_id
_citation_journal_full
_citation_year
_citation_journal_volume
_citation_page_first
_citation_page_last
_citation_journal_id_ASTM
primary 'Zeitschrift fuer Anorganische und Allgemeine Chemie (1950) (DE)' 2012
638 2053 2061 ZAACAB
loop_
_publ_author_name
'Logemann, C.'
'Witt, J.'
'Gunzelmann, D.'
'Senker, J.'
'Wickleder, M.S.'
_cell_length_a 9.67280(10)
_cell_length_b 12.6107(2)
_cell_length_c 14.5576(2)
_cell_angle_alpha 90.
_cell_angle_beta 90.
_cell_angle_gamma 90.
_cell_volume 1775.75
_cell_formula_units_Z 4
_symmetry_space_group_name_H-M 'P 21 21 21'
_symmetry_Int_Tables_number 19
_refine_ls_R_factor_all 0.021
loop_
_symmetry_equiv_pos_site_id
_symmetry_equiv_pos_as_xyz
1 '-x, y+1/2, -z+1/2'
2 'x+1/2, -y+1/2, -z'
3 '-x+1/2, -y, z+1/2'
4 'x, y, z'
loop_
_atom_type_symbol
_atom_type_oxidation_number
Ge4+ 4
S6+ 6
Na1+ 1
O2- -2
loop_
_atom_site_label
_atom_site_type_symbol
_atom_site_symmetry_multiplicity
_atom_site_Wyckoff_symbol
_atom_site_fract_x
_atom_site_fract_y
_atom_site_fract_z
_atom_site_B_iso_or_equiv
_atom_site_occupancy
_atom_site_attached_hydrogens
Ge1 Ge4+ 4 a 0.567024(13) 0.533846(10) 0.223307(8) 0.00915(2) 1 0
S1 S6+ 4 a 0.83494(3) 0.40232(2) 0.22424(2) 0.01100(5) 1 0
S2 S6+ 4 a 0.47969(3) 0.46782(3) 0.413853(19) 0.01145(5) 1 0
S3 S6+ 4 a 0.84905(3) 0.61945(2) 0.27461(2) 0.01168(5) 1 0
S4 S6+ 4 a 0.29873(3) 0.60626(3) 0.320283(19) 0.01063(5) 1 0
S5 S6+ 4 a 0.47266(3) 0.61532(3) 0.037344(19) 0.01127(5) 1 0
S6 S6+ 4 a 0.38362(3) 0.40788(3) 0.082399(19) 0.01117(5) 1 0
Na1 Na1+ 4 a 0.44032(6) 0.69878(4) 0.54032(4) 0.01585(10) 1 0
Na2 Na1+ 4 a 0.11482(5) 0.68138(4) 0.11546(3) 0.01453(10) 1 0
O1 O2- 4 a 0.43357(9) 0.62568(6) 0.27073(6) 0.01161(15) 1 0
O2 O2- 4 a 0.69324(9) 0.62697(7) 0.27554(6) 0.01231(15) 1 0
O3 O2- 4 a 0.70756(9) 0.44656(7) 0.17768(6) 0.01129(16) 1 0
O4 O2- 4 a 0.52943(10) 0.55934(8) 0.45970(6) 0.01726(19) 1 0
O5 O2- 4 a 0.43082(10) 0.44428(7) 0.17554(5) 0.01247(16) 1 0
O6 O2- 4 a 0.87488(10) 0.49589(7) 0.29698(6) 0.01311(17) 1 0
O7 O2- 4 a 0.56148(10) 0.44668(7) 0.32742(5) 0.01133(16) 1 0
O8 O2- 4 a 0.23819(10) 0.42183(9) 0.07595(7) 0.0190(2) 1 0
O9 O2- 4 a 0.57625(9) 0.61238(7) 0.11506(5) 0.01214(16) 1 0
O10 O2- 4 a 0.80539(10) 0.31510(7) 0.28219(7) 0.01621(18) 1 0
O11 O2- 4 a 0.90244(10) 0.67192(8) 0.35286(7) 0.0202(2) 1 0
O12 O2- 4 a 0.94362(10) 0.39473(8) 0.15974(6) 0.01846(19) 1 0
O13 O2- 4 a 0.53468(11) 0.65795(8) -0.04217(6) 0.0187(2) 1 0
O14 O2- 4 a 0.90333(10) 0.64246(8) 0.18642(7) 0.0178(2) 1 0
O15 O2- 4 a 0.46014(11) 0.37227(8) 0.46307(6) 0.0192(2) 1 0
O16 O2- 4 a 0.45733(10) 0.48980(7) 0.01247(6) 0.01357(18) 1 0
O17 O2- 4 a 0.18898(9) 0.58195(8) 0.25978(6) 0.01639(19) 1 0
O18 O2- 4 a 0.34121(10) 0.65166(8) 0.06706(6) 0.01720(19) 1 0
O19 O2- 4 a 0.28000(10) 0.68459(8) 0.38917(6) 0.01650(19) 1 0
O20 O2- 4 a 0.44081(12) 0.30857(8) 0.05795(6) 0.0214(2) 1 0
O21 O2- 4 a 0.32707(9) 0.49362(7) 0.37261(6) 0.01296(17) 1 0
loop_
_atom_site_aniso_label
_atom_site_aniso_type_symbol
_atom_site_aniso_U_11
_atom_site_aniso_U_22
_atom_site_aniso_U_33
_atom_site_aniso_U_12
_atom_site_aniso_U_13
_atom_site_aniso_U_23
Ge1 Ge4+ 0.00920(5) 0.01007(5) 0.00817(4) -0.00018(5) 0.00005(4) -0.00021(5)
S1 S6+ 0.01180(12) 0.01105(12) 0.01013(10) 0.00215(10) -0.00056(10) -0.00114(12)
S2 S6+ 0.01381(13) 0.01263(13) 0.00792(10) 0.00266(12) 0.00155(9) 0.00186(12)
S3 S6+ 0.01078(12) 0.01094(12) 0.01333(11) -0.00218(10) -0.00169(11)
-0.00093(12)
S4 S6+ 0.00995(12) 0.01204(14) 0.00990(11) 0.00187(11) 0.00106(9) 0.00083(11)
S5 S6+ 0.01443(13) 0.01097(13) 0.00839(10) 0.00171(11) 0.00124(10) 0.00117(11)
S6 S6+ 0.01264(12) 0.01144(13) 0.00942(11) -0.00108(11) -0.00032(10)
-0.00182(11)
Na1 Na1+ 0.0205(3) 0.0118(2) 0.0153(2) -0.0006(2) 0.0045(2) -0.0011(2)
Na2 Na1+ 0.0135(2) 0.0178(3) 0.0123(2) -0.0003(2) -0.00065(18) -0.0011(2)
O1 O2- 0.0120(4) 0.0105(4) 0.0123(3) 0.0019(3) 0.0034(3) 0.0014(3)
O2 O2- 0.0107(4) 0.0116(4) 0.0147(3) -0.0007(3) -0.0007(3) -0.0042(4)
O3 O2- 0.0109(4) 0.0125(4) 0.0104(3) 0.0023(3) -0.0009(3) -0.0023(3)
O4 O2- 0.0202(5) 0.0191(5) 0.0124(4) 0.0037(4) -0.0031(3) -0.0056(4)
O5 O2- 0.0136(4) 0.0151(4) 0.0087(3) -0.0054(4) -0.0013(3) 0.0004(3)
O6 O2- 0.0159(4) 0.0107(4) 0.0127(4) -0.0004(3) -0.0043(3) -0.0012(3)
O7 O2- 0.0142(4) 0.0118(4) 0.0080(3) 0.0028(4) 0.0015(3) 0.0010(3)
O8 O2- 0.0125(4) 0.0269(5) 0.0176(4) -0.0031(4) -0.0046(3) -0.0004(4)
O9 O2- 0.0125(4) 0.0130(4) 0.0109(3) -0.0013(4) -0.0003(3) 0.0027(3)
O10 O2- 0.0228(5) 0.0110(4) 0.0148(4) 0.0008(4) -0.0036(4) 0.0018(4)
O11 O2- 0.0206(5) 0.0162(5) 0.0237(5) -0.0035(4) -0.0081(4) -0.0062(4)
O12 O2- 0.0139(4) 0.0243(5) 0.0172(4) 0.0055(4) 0.0043(3) -0.0025(4)
O13 O2- 0.0299(6) 0.0151(4) 0.0113(4) -0.0003(4) 0.0045(4) 0.0032(4)
O14 O2- 0.0144(5) 0.0190(5) 0.0199(4) -0.0014(4) 0.0031(3) 0.0050(4)
O15 O2- 0.0239(5) 0.0171(5) 0.0165(4) 0.0045(4) 0.0039(4) 0.0085(4)
O16 O2- 0.0200(5) 0.0112(4) 0.0095(3) -0.0011(3) 0.0024(3) -0.0011(3)
O17 O2- 0.0118(4) 0.0188(5) 0.0185(4) 0.0007(4) -0.0033(3) 0.0016(4)
O18 O2- 0.0155(4) 0.0170(5) 0.0191(4) 0.0055(4) 0.0000(3) -0.0008(4)
O19 O2- 0.0208(5) 0.0160(5) 0.0127(4) 0.0047(4) 0.0036(3) -0.0019(4)
O20 O2- 0.0336(6) 0.0112(4) 0.0194(4) 0.0034(5) 0.0041(4) -0.0019(4)
O21 O2- 0.0117(4) 0.0123(4) 0.0149(4) 0.0009(3) 0.0015(3) 0.0046(3)
#End of TTdata_422494-ICSD