
#(C) 2019 by FIZ Karlsruhe - Leibniz Institute for Information Infrastructure.  All rights reserved.
data_422593-ICSD
_database_code_ICSD 422593
_audit_creation_date 2012-08-01
_chemical_name_systematic 'Disodium copper disulfate dihydrate'
_chemical_formula_structural 'Na2 Cu (S O4)2 (H2 O)2'
_chemical_formula_sum 'H4 Cu1 Na2 O10 S2'
_chemical_name_structure_type Kroehnkite-Na2Cu(SO4)2(H2O)2#Roselite
_chemical_name_mineral Kroehnkite
_exptl_crystal_density_diffrn 2.91
_cell_measurement_temperature 293.
_publ_section_title 'Revisiting three minerals from Cioclovina Cave (Romania)'
loop_
_citation_id
_citation_journal_full
_citation_year
_citation_journal_volume
_citation_page_first
_citation_page_last
_citation_journal_id_ASTM
primary 'International Journal of Speleology' 2011 40 99 108 ISPEAV
loop_
_publ_author_name
'Onac, B.P.'
'Effenberger, H.S.'
'Collins, N.C.'
'Kearns, J.B.'
'Breban, R.C.'
_cell_length_a 5.5180(10)
_cell_length_b 12.666(2)
_cell_length_c 5.8080(10)
_cell_angle_alpha 90.
_cell_angle_beta 108.450(10)
_cell_angle_gamma 90.
_cell_volume 385.06
_cell_formula_units_Z 2
_symmetry_space_group_name_H-M 'P 1 21/c 1'
_symmetry_Int_Tables_number 14
_refine_ls_R_factor_all 0.0269
loop_
_symmetry_equiv_pos_site_id
_symmetry_equiv_pos_as_xyz
1 'x, -y+1/2, z+1/2'
2 '-x, -y, -z'
3 '-x, y+1/2, -z+1/2'
4 'x, y, z'
loop_
_atom_type_symbol
_atom_type_oxidation_number
Cu2+ 2
Na1+ 1
S6+ 6
O2- -2
H1+ 1
loop_
_atom_site_label
_atom_site_type_symbol
_atom_site_symmetry_multiplicity
_atom_site_Wyckoff_symbol
_atom_site_fract_x
_atom_site_fract_y
_atom_site_fract_z
_atom_site_B_iso_or_equiv
_atom_site_occupancy
_atom_site_attached_hydrogens
Cu1 Cu2+ 2 a 0. 0. 0. 0.01606(9) 1 0
Na1 Na1+ 4 e 0.57086(14) 0.12468(6) 0.20984(15) 0.02400(16) 1 0
S1 S6+ 4 e 0.23758(6) 0.11804(3) 0.54450(6) 0.01313(9) 1 0
O1 O2- 4 e 0.00473(19) 0.17263(10) 0.4886(2) 0.0199(2) 1 0
O2 O2- 4 e 0.2910(2) 0.05750(9) 0.7843(2) 0.0183(2) 1 0
O3 O2- 4 e 0.2324(2) 0.04295(10) 0.3317(2) 0.0196(2) 1 0
O4 O2- 4 e 0.4380(2) 0.19253(10) 0.5610(2) 0.0194(2) 1 0
O5 O2- 4 e 0.8315(2) 0.13416(9) 0.9513(2) 0.0165(2) 1 0
H1 H1+ 4 e 0.908(5) 0.185(2) 0.970(5) 0.026(6) 1 0
H2 H1+ 4 e 0.744(5) 0.139(2) 0.826(5) 0.029(7) 1 0
loop_
_atom_site_aniso_label
_atom_site_aniso_type_symbol
_atom_site_aniso_U_11
_atom_site_aniso_U_22
_atom_site_aniso_U_33
_atom_site_aniso_U_12
_atom_site_aniso_U_13
_atom_site_aniso_U_23
Cu1 Cu2+ 0.01312(12) 0.01413(14) 0.01861(15) 0.00101(8) 0.00172(9) -0.00335(8)
Na1 Na1+ 0.0206(3) 0.0228(4) 0.0321(4) -0.0008(2) 0.0134(3) -0.0021(3)
S1 S6+ 0.01166(13) 0.01247(16) 0.01450(16) 0.00029(10) 0.00308(11) -0.00030(11)
O1 O2- 0.0150(4) 0.0190(6) 0.0245(6) 0.0055(3) 0.0046(4) 0.0005(4)
O2 O2- 0.0167(4) 0.0185(5) 0.0195(5) 0.0009(4) 0.0053(4) 0.0047(4)
O3 O2- 0.0144(4) 0.0209(5) 0.0214(5) 0.0020(4) 0.0025(4) -0.0070(4)
O4 O2- 0.0167(4) 0.0176(5) 0.0232(5) -0.0042(4) 0.0053(4) -0.0002(4)
O5 O2- 0.0149(4) 0.0137(5) 0.0183(5) -0.0010(4) 0.0017(4) -0.0007(4)
#End of TTdata_422593-ICSD