
#(C) 2018 by FIZ Karlsruhe - Leibniz Institute for Information Infrastructure.  All rights reserved.
data_422559-ICSD
_database_code_ICSD 422559
_audit_creation_date 2011-08-01
_chemical_name_systematic 'Lithium samarium dioxide'
_chemical_formula_structural 'Li Sm O2'
_chemical_formula_sum 'Li1 O2 Sm1'
_chemical_name_structure_type LiYO2
_exptl_crystal_density_diffrn 6.65
_cell_measurement_temperature 295.
_publ_section_title

;
Crystal growth and optical properties of lithium lanthanide oxides: Li Ln O2
(Ln = Nd, Sm, Eu, Gd and Dy)
;
loop_
_citation_id
_citation_journal_full
_citation_year
_citation_journal_volume
_citation_page_first
_citation_page_last
_citation_journal_id_ASTM
primary 'Solid State Sciences' 2011 13 1006 1012 SSSCFJ
loop_
_publ_author_name
'Cantwell, J.R.'
'Roof, I.P.'
'Smith, M.D.'
'zur Loye, H.C.'
_cell_length_a 5.70370(10)
_cell_length_b 6.01910(10)
_cell_length_c 5.64880(10)
_cell_angle_alpha 90.
_cell_angle_beta 103.0320(10)
_cell_angle_gamma 90.
_cell_volume 188.93
_cell_formula_units_Z 4
_symmetry_space_group_name_H-M 'P 1 21/c 1'
_symmetry_Int_Tables_number 14
_refine_ls_R_factor_all 0.0195
loop_
_symmetry_equiv_pos_site_id
_symmetry_equiv_pos_as_xyz
1 'x, -y+1/2, z+1/2'
2 '-x, -y, -z'
3 '-x, y+1/2, -z+1/2'
4 'x, y, z'
loop_
_atom_type_symbol
_atom_type_oxidation_number
Sm3+ 3
Li1+ 1
O2- -2
loop_
_atom_site_label
_atom_site_type_symbol
_atom_site_symmetry_multiplicity
_atom_site_Wyckoff_symbol
_atom_site_fract_x
_atom_site_fract_y
_atom_site_fract_z
_atom_site_B_iso_or_equiv
_atom_site_occupancy
_atom_site_attached_hydrogens
Sm1 Sm3+ 4 e 0.20015(2) 0.56822(2) 0.30788(2) 0.00674(6) 1 0
Li1 Li1+ 4 e 0.338(2) 0.1401(16) 0.330(3) 0.0107(15) 0.69(5) 0
Li2 Li1+ 4 e 0.373(5) 0.136(4) 0.397(8) 0.0107(15) 0.31(5) 0
O1 O2- 4 e 0.0807(4) 0.2618(4) 0.0129(4) 0.0089(4) 1 0
O2 O2- 4 e 0.5701(4) 0.3696(4) 0.2869(4) 0.0093(4) 1 0
loop_
_atom_site_aniso_label
_atom_site_aniso_type_symbol
_atom_site_aniso_U_11
_atom_site_aniso_U_22
_atom_site_aniso_U_33
_atom_site_aniso_U_12
_atom_site_aniso_U_13
_atom_site_aniso_U_23
Sm1 Sm3+ 0.00623(8) 0.00634(8) 0.00747(8) 0.00010(4) 0.00112(5) 0.00011(4)
O1 O2- 0.0087(8) 0.0089(9) 0.0092(9) -0.0007(7) 0.0023(7) 0.0001(7)
O2 O2- 0.0068(8) 0.0085(9) 0.0122(9) -0.0001(7) 0.0013(7) 0.0008(7)
#End of TTdata_422559-ICSD