
#(C) 2019 by FIZ Karlsruhe - Leibniz Institute for Information Infrastructure.  All rights reserved.
data_423285-ICSD
_database_code_ICSD 423285
_audit_creation_date 2014-02-01
_chemical_name_systematic 'Heptasodium tetracopper pentaarsenate'
_chemical_formula_structural 'Na7 Cu4 (As O4)5'
_chemical_formula_sum 'As5 Cu4 Na7 O20'
_chemical_name_structure_type Fe5(CO)15C
_exptl_crystal_density_diffrn 4.02
_cell_measurement_temperature 293.
_publ_section_title
'Synthesis, Crystal Structure, and Characterization of Na7 Cu4 (As O4)5'
loop_
_citation_id
_citation_journal_full
_citation_year
_citation_journal_volume
_citation_page_first
_citation_page_last
_citation_journal_id_ASTM
primary 'Phosphorus, Sulfur and Silicon and the Related Elements' 2013 188 1244
1253 PSSLEC
loop_
_publ_author_name
'Rajah, Fathia'
'Graia, Mohsen'
'Mhiri, Tahar'
_cell_length_a 7.8580(8)
_cell_length_b 15.4441(9)
_cell_length_c 30.2551(10)
_cell_angle_alpha 90.
_cell_angle_beta 92.717(8)
_cell_angle_gamma 90.
_cell_volume 3667.62
_cell_formula_units_Z 8
_symmetry_space_group_name_H-M 'C 1 2/c 1'
_symmetry_Int_Tables_number 15
_refine_ls_R_factor_all 0.0409
loop_
_symmetry_equiv_pos_site_id
_symmetry_equiv_pos_as_xyz
1 'x, -y, z+1/2'
2 '-x, -y, -z'
3 '-x, y, -z+1/2'
4 'x, y, z'
5 'x+1/2, -y+1/2, z+1/2'
6 '-x+1/2, -y+1/2, -z'
7 '-x+1/2, y+1/2, -z+1/2'
8 'x+1/2, y+1/2, z'
loop_
_atom_type_symbol
_atom_type_oxidation_number
As5+ 5
Cu2+ 2
O2- -2
Na1+ 1
loop_
_atom_site_label
_atom_site_type_symbol
_atom_site_symmetry_multiplicity
_atom_site_Wyckoff_symbol
_atom_site_fract_x
_atom_site_fract_y
_atom_site_fract_z
_atom_site_B_iso_or_equiv
_atom_site_occupancy
_atom_site_attached_hydrogens
As1 As5+ 8 f -0.74508(10) 0.85884(5) 0.26482(3) 0.0076(2) 1 0
As2 As5+ 8 f -0.23993(10) 0.60079(5) 0.37416(3) 0.0072(2) 1 0
As3 As5+ 8 f -0.74902(10) 0.63491(5) 0.34233(3) 0.0088(2) 1 0
As4 As5+ 8 f -0.22179(10) 0.84610(5) 0.41022(3) 0.0089(2) 1 0
As5 As5+ 8 f -0.71928(11) 0.61389(5) 0.51604(3) 0.0092(2) 1 0
Cu1 Cu2+ 8 f -0.54997(14) 0.52355(7) 0.42386(4) 0.0145(3) 1 0
Cu2 Cu2+ 8 f -0.54870(13) 0.79146(7) 0.56975(4) 0.0168(3) 1 0
Cu3 Cu2+ 8 f -0.04657(13) 0.75630(6) 0.32153(4) 0.0116(2) 1 0
Cu4 Cu2+ 8 f -0.43382(14) 0.75206(8) 0.31438(5) 0.0285(3) 1 0
O1 O2- 8 f -0.7544(8) 0.9566(4) 0.2413(2) 0.0140(13) 1 0
O2 O2- 8 f -0.9061(7) 0.8453(4) 0.29892(19) 0.0118(13) 1 0
O3 O2- 8 f -0.5690(7) 0.8488(4) 0.2985(2) 0.0166(14) 1 0
O4 O2- 8 f -0.7515(7) 0.7775(4) 0.22760(19) 0.0124(13) 1 0
O5 O2- 8 f -0.2450(7) 0.5094(4) 0.34418(19) 0.0111(13) 1 0
O6 O2- 8 f -0.4122(7) 0.6162(4) 0.4035(2) 0.0136(9) 1 0
O7 O2- 8 f -0.0586(8) 0.6062(4) 0.4061(2) 0.0154(14) 1 0
O8 O2- 8 f -0.7608(7) 0.6885(4) 0.1600(2) 0.0125(13) 1 0
O9 O2- 8 f -0.7721(8) 0.7126(4) 0.3805(2) 0.0166(14) 1 0
O10 O2- 8 f -0.7194(7) 0.5363(3) 0.3656(2) 0.0115(13) 1 0
O11 O2- 8 f -0.5842(7) 0.6515(4) 0.3089(2) 0.0139(13) 1 0
O12 O2- 8 f -0.9275(7) 0.6373(4) 0.30798(19) 0.0114(12) 1 0
O13 O2- 8 f -0.0786(7) 0.8486(4) 0.3710(2) 0.0136(9) 1 0
O14 O2- 8 f -0.4255(8) 0.8464(4) 0.3897(2) 0.0260(16) 1 0
O15 O2- 8 f -0.1956(7) 0.9348(3) 0.44403(19) 0.0114(13) 1 0
O16 O2- 8 f -0.1847(7) 0.7598(4) 0.4448(2) 0.0152(13) 1 0
O17 O2- 8 f -0.5812(8) 0.6142(4) 0.47575(19) 0.0127(13) 1 0
O18 O2- 8 f -0.6990(8) 0.7032(4) 0.5480(2) 0.0160(14) 1 0
O19 O2- 8 f -0.6933(8) 0.5290(4) 0.5510(2) 0.0198(15) 1 0
O20 O2- 8 f -0.9245(8) 0.6113(4) 0.4957(2) 0.0193(14) 1 0
Na1 Na1+ 8 f -0.5420(4) 0.7367(2) 0.43379(12) 0.0163(7) 1 0
Na2 Na1+ 8 f -0.9710(4) 0.9744(2) 0.18447(13) 0.0193(8) 1 0
Na3 Na1+ 8 f 0.0253(4) 0.4893(2) 0.44539(13) 0.0198(8) 1 0
Na4 Na1+ 8 f -0.4502(5) 0.9681(2) 0.32678(15) 0.0271(9) 1 0
Na5 Na1+ 8 f -0.2612(5) 0.3667(2) 0.37496(12) 0.0196(8) 1 0
Na6 Na1+ 8 f -0.2267(5) 0.8761(2) 0.51710(13) 0.0229(9) 1 0
Na7 Na1+ 8 f -0.7157(6) 1.1088(3) 0.26266(14) 0.0356(11) 1 0
loop_
_atom_site_aniso_label
_atom_site_aniso_type_symbol
_atom_site_aniso_U_11
_atom_site_aniso_U_22
_atom_site_aniso_U_33
_atom_site_aniso_U_12
_atom_site_aniso_U_13
_atom_site_aniso_U_23
As1 As5+ 0.0068(4) 0.0075(4) 0.0086(5) 0.0002(3) 0.0017(3) 0.0003(3)
As2 As5+ 0.0071(4) 0.0052(4) 0.0094(5) -0.0009(3) 0.0020(3) 0.0010(3)
As3 As5+ 0.0091(4) 0.0063(4) 0.0112(5) 0.0007(3) 0.0011(3) -0.0002(3)
As4 As5+ 0.0078(4) 0.0086(4) 0.0103(5) -0.0014(3) 0.0012(3) 0.0004(3)
As5 As5+ 0.0108(4) 0.0077(4) 0.0091(5) -0.0010(3) 0.0025(3) -0.0006(3)
Cu1 Cu2+ 0.0177(6) 0.0104(5) 0.0161(6) -0.0067(4) 0.0071(5) -0.0003(4)
Cu2 Cu2+ 0.0109(5) 0.0136(5) 0.0261(7) -0.0033(4) 0.0033(5) -0.0090(5)
Cu3 Cu2+ 0.0094(5) 0.0092(5) 0.0167(6) -0.0022(4) 0.0048(4) 0.0017(4)
Cu4 Cu2+ 0.0070(5) 0.0201(6) 0.0584(10) 0.0015(5) 0.0021(5) 0.0259(6)
O1 O2- 0.017(3) 0.017(3) 0.008(3) 0.001(3) 0.002(3) 0.007(2)
O2 O2- 0.012(3) 0.014(3) 0.011(3) -0.001(2) 0.009(2) -0.003(2)
O3 O2- 0.013(3) 0.009(3) 0.027(4) -0.001(2) -0.007(3) 0.000(3)
O4 O2- 0.013(3) 0.017(3) 0.008(3) -0.001(2) 0.004(2) -0.005(2)
O5 O2- 0.014(3) 0.012(3) 0.007(3) -0.002(2) -0.001(2) -0.004(2)
O6 O2- 0.014(2) 0.014(2) 0.013(2) -0.0001(17) 0.0117(18) -0.0016(17)
O7 O2- 0.016(3) 0.006(3) 0.024(4) 0.000(2) -0.003(3) 0.002(3)
O8 O2- 0.011(3) 0.013(3) 0.014(3) 0.001(2) 0.002(2) -0.008(2)
O9 O2- 0.020(3) 0.014(3) 0.017(4) -0.004(3) 0.008(3) -0.004(3)
O10 O2- 0.013(3) 0.004(3) 0.017(4) 0.002(2) -0.001(3) 0.000(2)
O11 O2- 0.012(3) 0.018(3) 0.012(3) 0.001(2) 0.008(3) -0.003(3)
O12 O2- 0.012(3) 0.016(3) 0.006(3) 0.002(2) 0.002(2) 0.000(2)
O13 O2- 0.014(2) 0.014(2) 0.013(2) -0.0001(17) 0.0117(18) -0.0016(17)
O14 O2- 0.015(3) 0.022(4) 0.040(5) -0.006(3) -0.003(3) 0.014(3)
O15 O2- 0.016(3) 0.008(3) 0.011(3) -0.006(2) 0.003(2) -0.002(2)
O16 O2- 0.014(3) 0.012(3) 0.020(4) 0.003(2) 0.002(3) 0.005(3)
O17 O2- 0.021(3) 0.011(3) 0.007(3) 0.000(2) 0.010(3) 0.002(2)
O18 O2- 0.018(3) 0.010(3) 0.020(4) 0.001(2) 0.006(3) -0.008(3)
O19 O2- 0.020(3) 0.020(3) 0.019(4) -0.003(3) -0.002(3) 0.010(3)
O20 O2- 0.018(3) 0.022(3) 0.018(4) -0.006(3) 0.001(3) -0.007(3)
Na1 Na1+ 0.0160(18) 0.0127(17) 0.021(2) 0.0024(14) 0.0047(14) 0.0062(15)
Na2 Na1+ 0.0154(18) 0.0197(18) 0.023(2) -0.0037(15) -0.0013(15) 0.0098(15)
Na3 Na1+ 0.0189(19) 0.0145(17) 0.026(2) 0.0006(14) -0.0017(16) 0.0010(15)
Na4 Na1+ 0.021(2) 0.022(2) 0.038(3) -0.0094(16) 0.0016(18) -0.0116(18)
Na5 Na1+ 0.025(2) 0.0138(17) 0.020(2) -0.0007(15) -0.0023(16) 0.0028(15)
Na6 Na1+ 0.027(2) 0.023(2) 0.019(2) -0.0016(16) -0.0001(17) 0.0057(16)
Na7 Na1+ 0.050(3) 0.031(2) 0.026(3) -0.010(2) -0.001(2) -0.0033(18)
#End of TTdata_423285-ICSD