
#(C) 2019 by FIZ Karlsruhe - Leibniz Institute for Information Infrastructure.  All rights reserved.
data_423274-ICSD
_database_code_ICSD 423274
_audit_creation_date 2013-08-01
_chemical_name_systematic 'Potassium sodium niobium oxide pentafluoride'
_chemical_formula_structural 'K Na (Nb O F5)'
_chemical_formula_sum 'F5 K1 Na1 Nb1 O1'
_exptl_crystal_density_diffrn 2.93
_cell_measurement_temperature 296.
_publ_section_title 'Polymorphism of K Na Nb O F5 crystals'
loop_
_citation_id
_citation_journal_full
_citation_year
_citation_journal_volume
_citation_page_first
_citation_page_last
_citation_journal_id_ASTM
primary 'Zhurnal Strukturnoi Khimii' 2012 53 922 926 ZSTKAI
loop_
_publ_author_name
'Vasiliev, A.D.'
'Laptash, N.M.'
_cell_length_a 5.9352(2)
_cell_length_b 5.9352(2)
_cell_length_c 8.5487(5)
_cell_angle_alpha 90.
_cell_angle_beta 90.
_cell_angle_gamma 90.
_cell_volume 301.14
_cell_formula_units_Z 2
_symmetry_space_group_name_H-M 'P 4/n m m Z'
_symmetry_Int_Tables_number 129
_refine_ls_R_factor_all 0.0095
loop_
_symmetry_equiv_pos_site_id
_symmetry_equiv_pos_as_xyz
1 'y+1/2, x+1/2, -z'
2 '-y, x+1/2, -z'
3 'y+1/2, -x, -z'
4 '-y, -x, -z'
5 'x+1/2, y+1/2, -z'
6 '-x, y+1/2, -z'
7 'x+1/2, -y, -z'
8 '-x, -y, -z'
9 '-y+1/2, -x+1/2, z'
10 'y, -x+1/2, z'
11 '-y+1/2, x, z'
12 'y, x, z'
13 '-x+1/2, -y+1/2, z'
14 'x, -y+1/2, z'
15 '-x+1/2, y, z'
16 'x, y, z'
loop_
_atom_type_symbol
_atom_type_oxidation_number
Nb5+ 5
K1+ 1
Na1+ 1
F1- -1
O2- -2
loop_
_atom_site_label
_atom_site_type_symbol
_atom_site_symmetry_multiplicity
_atom_site_Wyckoff_symbol
_atom_site_fract_x
_atom_site_fract_y
_atom_site_fract_z
_atom_site_B_iso_or_equiv
_atom_site_occupancy
_atom_site_attached_hydrogens
Nb1 Nb5+ 2 c 0.25 0.25 0.73505(2) 0.01455(10) 1 0
K1 K1+ 2 a 0.75 0.25 1. 0.02400(15) 1 0
Na1 Na1+ 2 c 0.25 0.25 0.26597(11) 0.0180(2) 1 0
F1 F1- 2 c 0.25 0.25 0.98653(18) 0.0289(4) 1 0
F2 F1- 8 j 0.47945(11) 0.02055(11) 0.77185(10) 0.0303(2) 1 0
O1 O2- 2 c 0.25 0.25 0.5351(2) 0.0352(5) 1 0
loop_
_atom_site_aniso_label
_atom_site_aniso_type_symbol
_atom_site_aniso_U_11
_atom_site_aniso_U_22
_atom_site_aniso_U_33
_atom_site_aniso_U_12
_atom_site_aniso_U_13
_atom_site_aniso_U_23
Nb1 Nb5+ 0.01469(11) 0.01469(11) 0.01425(13) 0. 0. 0.
K1 K1+ 0.0249(2) 0.0249(2) 0.0223(3) 0. 0. 0.
Na1 Na1+ 0.0181(3) 0.0181(3) 0.0178(5) 0. 0. 0.
F1 F1- 0.0361(6) 0.0361(6) 0.0145(7) 0. 0. 0.
F2 F1- 0.0268(3) 0.0268(3) 0.0372(4) 0.0115(4) 0.0007(2) -0.0007(2)
O1 O2- 0.0448(9) 0.0448(9) 0.0160(9) 0. 0. 0.
#End of TTdata_423274-ICSD