
#(C) 2018 by FIZ Karlsruhe - Leibniz Institute for Information Infrastructure.  All rights reserved.
data_423435-ICSD
_database_code_ICSD 423435
_audit_creation_date 2012-08-01
_chemical_name_systematic 'Dilithium difluorohexaborate'
_chemical_formula_structural 'Li2 F2 B6 O9'
_chemical_formula_sum 'B6 F2 Li2 O9'
_exptl_crystal_density_diffrn 2.21
_cell_measurement_temperature 298.
_publ_section_title 'Li2 B6 O9 F2, a new acentric fluorooxoborate'
loop_
_citation_id
_citation_journal_full
_citation_year
_citation_journal_volume
_citation_page_first
_citation_page_last
_citation_journal_id_ASTM
primary 'Zeitschrift fuer Anorganische und Allgemeine Chemie (1950) (DE)' 2011
637 2148 2152 ZAACAB
loop_
_publ_author_name
'Pilz, T.'
'Jansen, M.'
_cell_length_a 4.8211(12)
_cell_length_b 16.149(4)
_cell_length_c 10.057(3)
_cell_angle_alpha 90.
_cell_angle_beta 92.003(5)
_cell_angle_gamma 90.
_cell_volume 782.52
_cell_formula_units_Z 4
_symmetry_space_group_name_H-M 'C 1 c 1'
_symmetry_Int_Tables_number 9
_refine_ls_R_factor_all 0.0299
loop_
_symmetry_equiv_pos_site_id
_symmetry_equiv_pos_as_xyz
1 'x, -y, z+1/2'
2 'x, y, z'
3 'x+1/2, -y+1/2, z+1/2'
4 'x+1/2, y+1/2, z'
loop_
_atom_type_symbol
_atom_type_oxidation_number
Li1+ 1
B3+ 3
O2- -2
F1- -1
loop_
_atom_site_label
_atom_site_type_symbol
_atom_site_symmetry_multiplicity
_atom_site_Wyckoff_symbol
_atom_site_fract_x
_atom_site_fract_y
_atom_site_fract_z
_atom_site_B_iso_or_equiv
_atom_site_occupancy
_atom_site_attached_hydrogens
Li1 Li1+ 4 a 0.1174(9) -0.0365(2) 0.8789(4) 0.0304(8) 1 0
Li2 Li1+ 4 a -0.3047(9) 0.2424(2) 1.0485(4) 0.0329(8) 1 0
B1 B3+ 4 a -0.3425(4) -0.13267(12) 0.98382(19) 0.0161(4) 1 0
B2 B3+ 4 a -0.1368(5) -0.03375(14) 1.1446(2) 0.0204(4) 1 0
B3 B3+ 4 a 0.5990(5) 0.14690(13) 0.7223(2) 0.0200(4) 1 0
B4 B3+ 4 a 0.8459(4) -0.24406(13) 0.8417(2) 0.0174(4) 1 0
B5 B3+ 4 a 0.4646(4) 0.16264(12) 1.2564(2) 0.0174(4) 1 0
B6 B3+ 4 a 0.1190(4) 0.09373(12) 1.0864(2) 0.0180(4) 1 0
O1 O2- 4 a 0.4612(3) -0.11816(8) 0.87050(13) 0.0176(3) 1 0
O2 O2- 4 a -0.1869(3) -0.05733(8) 1.01593(14) 0.0194(3) 1 0
O3 O2- 4 a 0.7691(4) 0.08059(10) 0.74791(15) 0.0329(4) 1 0
O4 O2- 4 a 1.0375(3) -0.30464(9) 0.82938(14) 0.0247(3) 1 0
O5 O2- 4 a 0.5018(3) 0.16407(8) 0.59667(14) 0.0184(3) 1 0
O6 O2- 4 a 0.8673(3) -0.19629(8) 0.95082(13) 0.0197(3) 1 0
O7 O2- 4 a 0.6426(3) -0.23072(9) 0.74483(14) 0.0220(3) 1 0
O8 O2- 4 a 0.3088(3) 0.15091(9) 1.14659(15) 0.0275(3) 1 0
O9 O2- 4 a 0.0151(3) 0.03424(9) 1.18214(14) 0.0241(3) 1 0
F1 F1- 4 a 0.2474(3) 0.05226(7) 0.98198(13) 0.0295(3) 1 0
F2 F1- 4 a -0.1023(3) 0.14016(8) 1.03013(14) 0.0339(3) 1 0
loop_
_atom_site_aniso_label
_atom_site_aniso_type_symbol
_atom_site_aniso_U_11
_atom_site_aniso_U_22
_atom_site_aniso_U_33
_atom_site_aniso_U_12
_atom_site_aniso_U_13
_atom_site_aniso_U_23
Li1 Li1+ 0.036(2) 0.0289(18) 0.0270(18) -0.0024(16) 0.0027(15) -0.0031(14)
Li2 Li1+ 0.0366(19) 0.037(2) 0.0246(17) 0.0087(17) -0.0007(14) 0.0088(15)
B1 B3+ 0.0171(9) 0.0156(9) 0.0155(8) -0.0026(7) -0.0008(7) 0.0002(7)
B2 B3+ 0.0230(10) 0.0207(10) 0.0173(9) -0.0077(8) -0.0011(8) -0.0005(8)
B3 B3+ 0.0222(10) 0.0189(9) 0.0191(10) 0.0060(8) 0.0016(8) 0.0006(8)
B4 B3+ 0.0176(9) 0.0184(9) 0.0162(9) 0.0029(8) 0.0011(7) 0.0008(7)
B5 B3+ 0.0176(10) 0.0173(9) 0.0171(9) -0.0017(8) -0.0008(7) 0.0002(7)
B6 B3+ 0.0202(9) 0.0165(9) 0.0173(9) -0.0045(8) -0.0023(7) 0.0011(8)
O1 O2- 0.0187(6) 0.0171(6) 0.0168(6) 0.0031(5) -0.0011(5) -0.0011(5)
O2 O2- 0.0225(7) 0.0186(6) 0.0172(6) -0.0056(5) 0.0017(5) 0.0001(5)
O3 O2- 0.0466(10) 0.0341(8) 0.0177(6) 0.0241(8) -0.0012(6) 0.0018(6)
O4 O2- 0.0283(7) 0.0287(7) 0.0169(6) 0.0150(6) -0.0031(5) -0.0010(5)
O5 O2- 0.0195(6) 0.0190(6) 0.0168(6) 0.0050(5) 0.0022(5) 0.0006(5)
O6 O2- 0.0188(6) 0.0223(7) 0.0176(6) 0.0038(5) -0.0030(4) -0.0025(5)
O7 O2- 0.0243(7) 0.0226(7) 0.0187(6) 0.0083(6) -0.0049(5) -0.0047(5)
O8 O2- 0.0343(8) 0.0242(7) 0.0234(7) -0.0139(6) -0.0091(6) 0.0063(6)
O9 O2- 0.0316(8) 0.0224(7) 0.0184(6) -0.0113(6) 0.0012(5) -0.0020(5)
F1 F1- 0.0305(6) 0.0303(6) 0.0285(7) -0.0084(5) 0.0101(5) -0.0073(5)
F2 F1- 0.0309(7) 0.0308(6) 0.0389(8) 0.0058(5) -0.0144(5) -0.0012(6)
#End of TTdata_423435-ICSD