
#(C) 2019 by FIZ Karlsruhe - Leibniz Institute for Information Infrastructure.  All rights reserved.
data_423429-ICSD
_database_code_ICSD 423429
_audit_creation_date 2012-02-01
_chemical_name_systematic 'Disodium tetraborate - HP'
_chemical_formula_structural 'Na2 B4 O7'
_chemical_formula_sum 'B4 Na2 O7'
_exptl_crystal_density_diffrn 2.77
_cell_measurement_temperature 293.
_publ_section_title 'The new high-pressure sodium tetraborate HP-Na2 B4 O7'
loop_
_citation_id
_citation_journal_full
_citation_year
_citation_journal_volume
_citation_page_first
_citation_page_last
_citation_journal_id_ASTM
primary 'Zeitschrift fuer Anorganische und Allgemeine Chemie (1950) (DE)' 2012
638 81 87 ZAACAB
loop_
_publ_author_name
'Neumair, S.C.'
'Sohr, G.'
'Vanicek, S.'
'Wurst, K.'
'Kaindl, R.'
'Huppertz, H.'
_cell_length_a 7.6550(11)
_cell_length_b 7.6550(11)
_cell_length_c 21.423(4)
_cell_angle_alpha 90.
_cell_angle_beta 90.
_cell_angle_gamma 120.
_cell_volume 1087.18
_cell_formula_units_Z 9
_symmetry_space_group_name_H-M 'P 32 2 1'
_symmetry_Int_Tables_number 154
_refine_ls_R_factor_all 0.0452
loop_
_symmetry_equiv_pos_site_id
_symmetry_equiv_pos_as_xyz
1 '-x, -x+y, -z+2/3'
2 'x-y, -y, -z+1/3'
3 'y, x, -z'
4 '-x+y, -x, z+1/3'
5 '-y, x-y, z+2/3'
6 'x, y, z'
loop_
_atom_type_symbol
_atom_type_oxidation_number
Na1+ 1
O2- -2
B3+ 3
loop_
_atom_site_label
_atom_site_type_symbol
_atom_site_symmetry_multiplicity
_atom_site_Wyckoff_symbol
_atom_site_fract_x
_atom_site_fract_y
_atom_site_fract_z
_atom_site_B_iso_or_equiv
_atom_site_occupancy
_atom_site_attached_hydrogens
Na1 Na1+ 6 c 0.00544(11) 0.35597(12) 0.16086(3) 0.01400(15) 1 0
Na2 Na1+ 6 c 0.70610(12) 0.68785(11) 0.33431(3) 0.01464(16) 1 0
Na3 Na1+ 3 a 0. 0.32361(13) 0.3333 0.0121(2) 1 0
Na4 Na1+ 3 b 0.36977(14) 1. 0.1667 0.0153(2) 1 0
O1 O2- 6 c 0.20191(19) 0.11235(19) 0.24512(6) 0.0102(2) 1 0
O2 O2- 6 c -0.13798(19) 0.05199(18) 0.26917(5) 0.0090(2) 1 0
O3 O2- 6 c -0.07953(19) -0.2224(2) 0.24853(6) 0.0105(2) 1 0
O4 O2- 3 b -0.0676(2) 0. 0.1667 0.0138(4) 1 0
O5 O2- 6 c 0.25396(19) 0.44394(18) 0.23806(6) 0.0105(2) 1 0
O6 O2- 6 c 0.26039(19) 0.6527(2) 0.32333(6) 0.0126(2) 1 0
O7 O2- 6 c 0.5311(2) 0.7875(2) 0.24602(5) 0.0106(2) 1 0
O8 O2- 6 c 0.18883(19) 0.71449(18) 0.22181(5) 0.0093(2) 1 0
O9 O2- 6 c 0.5274(2) 0.39677(18) 0.26303(6) 0.0110(2) 1 0
O10 O2- 6 c 0.58332(18) 1.11324(19) 0.26724(6) 0.0103(2) 1 0
O11 O2- 6 c -0.14104(18) 0.44267(19) 0.24072(5) 0.0093(2) 1 0
B1 B3+ 6 c -0.0154(3) -0.0106(3) 0.23021(10) 0.0079(3) 1 0
B2 B3+ 6 c 0.3144(3) 0.6521(3) 0.25923(10) 0.0070(3) 1 0
B3 B3+ 6 c 0.6751(3) 0.3333(3) 0.27925(10) 0.0081(3) 1 0
B4 B3+ 6 c 0.3289(3) 0.3179(3) 0.24899(9) 0.0079(3) 1 0
B5 B3+ 6 c 0.6607(3) 0.9867(3) 0.26029(9) 0.0085(4) 1 0
B6 B3+ 6 c -0.0085(3) 0.6480(3) 0.23833(9) 0.0078(3) 1 0
loop_
_atom_site_aniso_label
_atom_site_aniso_type_symbol
_atom_site_aniso_U_11
_atom_site_aniso_U_22
_atom_site_aniso_U_33
_atom_site_aniso_U_12
_atom_site_aniso_U_13
_atom_site_aniso_U_23
Na1 Na1+ 0.0140(4) 0.0166(4) 0.0145(3) 0.0100(3) -0.0031(3) -0.0051(3)
Na2 Na1+ 0.0157(4) 0.0123(4) 0.0157(3) 0.0068(3) 0.0043(3) -0.0006(3)
Na3 Na1+ 0.0097(5) 0.0110(3) 0.0152(4) 0.0049(2) -0.0021(4) -0.00104(19)
Na4 Na1+ 0.0156(4) 0.0124(5) 0.0167(5) 0.0062(3) 0.0024(2) 0.0049(4)
O1 O2- 0.0052(6) 0.0053(6) 0.0193(6) 0.0020(5) -0.0004(5) -0.0005(5)
O2 O2- 0.0055(6) 0.0089(5) 0.0131(5) 0.0041(5) -0.0007(5) -0.0039(4)
O3 O2- 0.0072(5) 0.0056(6) 0.0179(6) 0.0026(5) 0.0031(5) 0.0021(5)
O4 O2- 0.0142(6) 0.0181(10) 0.0105(8) 0.0091(5) 0.0009(4) 0.0019(7)
O5 O2- 0.0084(6) 0.0047(6) 0.0187(6) 0.0035(5) -0.0046(5) -0.0021(5)
O6 O2- 0.0105(6) 0.0146(6) 0.0104(5) 0.0047(5) -0.0015(5) -0.0004(5)
O7 O2- 0.0053(6) 0.0062(6) 0.0191(6) 0.0021(5) 0.0016(5) -0.0020(5)
O8 O2- 0.0068(6) 0.0093(5) 0.0134(5) 0.0052(5) 0.0028(5) 0.0036(4)
O9 O2- 0.0075(6) 0.0066(5) 0.0199(6) 0.0042(5) -0.0026(5) -0.0012(5)
O10 O2- 0.0066(5) 0.0045(5) 0.0197(6) 0.0026(5) 0.0007(5) 0.0005(5)
O11 O2- 0.0075(6) 0.0057(6) 0.0131(5) 0.0023(5) 0.0022(5) 0.0007(5)
B1 B3+ 0.0047(8) 0.0051(8) 0.0135(9) 0.0022(7) 0.0000(7) -0.0004(6)
B2 B3+ 0.0060(8) 0.0041(8) 0.0106(8) 0.0023(7) -0.0005(6) -0.0001(6)
B3 B3+ 0.0040(8) 0.0055(8) 0.0128(9) 0.0010(7) 0.0012(6) 0.0010(6)
B4 B3+ 0.0073(9) 0.0078(9) 0.0098(8) 0.0047(7) -0.0005(6) -0.0008(7)
B5 B3+ 0.0079(9) 0.0063(8) 0.0103(8) 0.0028(7) 0.0005(7) 0.0007(7)
B6 B3+ 0.0095(9) 0.0093(9) 0.0050(7) 0.0051(8) 0.0003(6) 0.0004(6)
#End of TTdata_423429-ICSD