
#(C) 2019 by FIZ Karlsruhe - Leibniz Institute for Information Infrastructure.  All rights reserved.
data_423538-ICSD
_database_code_ICSD 423538
_audit_creation_date 2013-02-01
_chemical_name_systematic 'Tetrasodium magnesium iron triphosphate'
_chemical_formula_structural 'Na4 (Mg Fe) (P O4)3'
_chemical_formula_sum 'Fe1 Mg1 Na4 O12 P3'
_chemical_name_structure_type Na4Zr2(SiO4)3
_exptl_crystal_density_diffrn 3.13
_cell_measurement_temperature 293.
_publ_section_title

;
Crystallization from Na2 O - P2 O5 - Fe2 O3 - M(II) O  (M(II) = Mg, Ni) melts
and the structure of Na4 Mg Fe (P O4)3
;
loop_
_citation_id
_citation_journal_full
_citation_year
_citation_journal_volume
_citation_page_first
_citation_page_last
_citation_journal_id_ASTM
primary 'Izvestiya Akademii Nauk SSSR, Neorganicheskie Materialy' 2012 48 472
477 IVNMAW
loop_
_publ_author_name
'Strutynska, N.Yu.'
'Zatovsky, I.V.'
'Yatskin, M.M.'
'Slobodyanik, N.S.'
'Ogorodnyk, I.V.'
_cell_length_a 8.83954(13)
_cell_length_b 8.83954(13)
_cell_length_c 21.4683(4)
_cell_angle_alpha 90.
_cell_angle_beta 90.
_cell_angle_gamma 120.
_cell_volume 1452.74
_cell_formula_units_Z 6
_symmetry_space_group_name_H-M 'R -3 c H'
_symmetry_Int_Tables_number 167
_refine_ls_R_factor_all 0.027
loop_
_symmetry_equiv_pos_site_id
_symmetry_equiv_pos_as_xyz
1 'x-y, -y, -z+1/2'
2 '-x, -x+y, -z+1/2'
3 'y, x, -z+1/2'
4 'x-y, x, -z'
5 'y, -x+y, -z'
6 '-x, -y, -z'
7 '-x+y, y, z+1/2'
8 'x, x-y, z+1/2'
9 '-y, -x, z+1/2'
10 '-x+y, -x, z'
11 '-y, x-y, z'
12 'x, y, z'
13 'x-y+2/3, -y+1/3, -z+5/6'
14 '-x+2/3, -x+y+1/3, -z+5/6'
15 'y+2/3, x+1/3, -z+5/6'
16 'x-y+2/3, x+1/3, -z+1/3'
17 'y+2/3, -x+y+1/3, -z+1/3'
18 '-x+2/3, -y+1/3, -z+1/3'
19 '-x+y+2/3, y+1/3, z+5/6'
20 'x+2/3, x-y+1/3, z+5/6'
21 '-y+2/3, -x+1/3, z+5/6'
22 '-x+y+2/3, -x+1/3, z+1/3'
23 '-y+2/3, x-y+1/3, z+1/3'
24 'x+2/3, y+1/3, z+1/3'
25 'x-y+1/3, -y+2/3, -z+1/6'
26 '-x+1/3, -x+y+2/3, -z+1/6'
27 'y+1/3, x+2/3, -z+1/6'
28 'x-y+1/3, x+2/3, -z+2/3'
29 'y+1/3, -x+y+2/3, -z+2/3'
30 '-x+1/3, -y+2/3, -z+2/3'
31 '-x+y+1/3, y+2/3, z+1/6'
32 'x+1/3, x-y+2/3, z+1/6'
33 '-y+1/3, -x+2/3, z+1/6'
34 '-x+y+1/3, -x+2/3, z+2/3'
35 '-y+1/3, x-y+2/3, z+2/3'
36 'x+1/3, y+2/3, z+2/3'
loop_
_atom_type_symbol
_atom_type_oxidation_number
O2- -2
Fe3+ 3
Mg2+ 2
P5+ 5
Na1+ 1
loop_
_atom_site_label
_atom_site_type_symbol
_atom_site_symmetry_multiplicity
_atom_site_Wyckoff_symbol
_atom_site_fract_x
_atom_site_fract_y
_atom_site_fract_z
_atom_site_B_iso_or_equiv
_atom_site_occupancy
_atom_site_attached_hydrogens
O1 O2- 36 f 0.1767(6) 0.2041(7) 0.1915(2) 0.015(2) 1. 0
O2 O2- 36 f 0.1917(6) 0.0275(7) 0.0895(3) 0.010(2) 1. 0
Fe1 Fe3+ 12 c 0 0 0.14896(14) 0.0050(11) 0.49998 0
Mg1 Mg2+ 12 c 0 0 0.14896(14) 0.0050(11) 0.49998 0
P1 P5+ 18 e -0.33333 -0.3723(4) 0.08333 0.0182(12) 1. 0
Na1 Na1+ 6 b 0 0 0 0.048(4) 0.99996 0
Na2 Na1+ 18 e -0.33333 -0.0244(7) 0.08333 0.070(2) 1. 0
#End of TTdata_423538-ICSD