
#(C) 2019 by FIZ Karlsruhe - Leibniz Institute for Information Infrastructure.  All rights reserved.
data_423607-ICSD
_database_code_ICSD 423607
_audit_creation_date 2013-02-01
_chemical_name_systematic 'Sodium terbium catena-disilicate - A-type structure'
_chemical_formula_structural 'Na Tb (Si2 O6)'
_chemical_formula_sum 'Na1 O6 Si2 Tb1'
_chemical_name_structure_type NaYSi2O6
_exptl_crystal_density_diffrn 4.15
_cell_measurement_temperature 293.
_publ_section_title
'The new oxosilicate Na Tb Si2 O6: a comparison of its A- and D-type structure'
loop_
_citation_id
_citation_journal_full
_citation_year
_citation_journal_volume
_citation_page_first
_citation_page_last
_citation_journal_id_ASTM
primary 'Zeitschrift fuer Kristallographie - Crystalline Materials' 2012 227 476
482 ZKCMAJ
loop_
_publ_author_name
'Schaefer, M.C.'
'Zitzer, S.'
'Schleid, T.'
_cell_length_a 5.4257(4)
_cell_length_b 13.7654(9)
_cell_length_c 7.6283(5)
_cell_angle_alpha 90.
_cell_angle_beta 110.086(3)
_cell_angle_gamma 90.
_cell_volume 535.08
_cell_formula_units_Z 4
_symmetry_space_group_name_H-M 'P 1 21/c 1'
_symmetry_Int_Tables_number 14
_refine_ls_R_factor_all 0.0372
loop_
_symmetry_equiv_pos_site_id
_symmetry_equiv_pos_as_xyz
1 'x, -y+1/2, z+1/2'
2 '-x, -y, -z'
3 '-x, y+1/2, -z+1/2'
4 'x, y, z'
loop_
_atom_type_symbol
_atom_type_oxidation_number
Na1+ 1
Tb3+ 3
Si4+ 4
O2- -2
loop_
_atom_site_label
_atom_site_type_symbol
_atom_site_symmetry_multiplicity
_atom_site_Wyckoff_symbol
_atom_site_fract_x
_atom_site_fract_y
_atom_site_fract_z
_atom_site_B_iso_or_equiv
_atom_site_occupancy
_atom_site_attached_hydrogens
Na1 Na1+ 4 e 0.1353(6) 0.2654(2) 0.0402(5) 0.0339(7) 1 0
Tb1 Tb3+ 4 e 0.98784(5) 0.003992(18) 0.24889(3) 0.01006(18) 1 0
Si1 Si4+ 4 e 0.5716(3) 0.14108(11) 0.3592(2) 0.0150(4) 1 0
Si2 Si4+ 4 e 0.5788(3) 0.36029(11) 0.4286(2) 0.0150(4) 1 0
O1 O2- 4 e 0.6817(9) 0.2503(3) 0.4188(7) 0.0315(14) 1 0
O2 O2- 4 e 0.6070(9) 0.1247(4) 0.1513(7) 0.0367(15) 1 0
O3 O2- 4 e 0.7887(8) 0.0665(3) 0.4728(6) 0.0198(9) 1 0
O4 O2- 4 e 0.2702(8) 0.1331(3) 0.3288(7) 0.0174(9) 1 0
O5 O2- 4 e 0.7994(9) 0.4352(3) 0.4280(6) 0.0217(10) 1 0
O6 O2- 4 e 0.2817(8) 0.3732(3) 0.3056(7) 0.0210(10) 1 0
loop_
_atom_site_aniso_label
_atom_site_aniso_type_symbol
_atom_site_aniso_U_11
_atom_site_aniso_U_22
_atom_site_aniso_U_33
_atom_site_aniso_U_12
_atom_site_aniso_U_13
_atom_site_aniso_U_23
Na1 Na1+ 0.0143(13) 0.0466(17) 0.0346(17) -0.0021(11) 0.0006(12) 0.0151(13)
Tb1 Tb3+ 0.0091(2) 0.0082(2) 0.0126(3) -0.00164(8) 0.00351(15) -0.00168(8)
Si1 Si4+ 0.0090(7) 0.0085(7) 0.0246(9) -0.0001(5) 0.0018(6) -0.0024(6)
Si2 Si4+ 0.0097(7) 0.0074(7) 0.0256(9) -0.0001(5) 0.0031(6) -0.0001(6)
O1 O2- 0.009(2) 0.013(2) 0.069(4) 0.0008(13) 0.009(2) -0.0099(19)
O2 O2- 0.029(3) 0.073(5) 0.027(3) 0.014(3) 0.011(2) 0.002(3)
O3 O2- 0.0147(19) 0.014(2) 0.029(2) 0.0053(15) 0.0052(17) 0.0028(17)
O4 O2- 0.0067(17) 0.0145(19) 0.031(2) -0.0013(14) 0.0071(17) -0.0049(17)
O5 O2- 0.020(2) 0.021(2) 0.024(2) -0.0109(17) 0.0068(18) 0.0018(17)
O6 O2- 0.0120(19) 0.015(2) 0.031(2) 0.0038(15) 0.0014(17) 0.0015(18)
#End of TTdata_423607-ICSD