
#(C) 2019 by FIZ Karlsruhe - Leibniz Institute for Information Infrastructure.  All rights reserved.
data_423654-ICSD
_database_code_ICSD 423654
_audit_creation_date 2012-08-01
_chemical_name_systematic 'Tripotassium sodium nonaoxodiosmate(VIII)'
_chemical_formula_structural 'K3 Na Os2 O9'
_chemical_formula_sum 'K3 Na1 O9 Os2'
_chemical_name_structure_type BaFeO2+x
_exptl_crystal_density_diffrn 4.95
_cell_measurement_temperature 293.
_publ_section_title

;
K2 Na Os O5.5 and K3 Na Os2 O9: The first osmium perovskites containing alkali
cations at the "A" site
;
loop_
_citation_id
_citation_journal_full
_citation_year
_citation_journal_volume
_citation_page_first
_citation_page_last
_citation_journal_id_ASTM
primary 'Journal of Solid State Chemistry' 2012 191 153 157 JSSCBI
loop_
_publ_author_name
'Mogare, K.M.'
'Klein, W.'
'Jansen, M.'
_cell_length_a 5.9998(4)
_cell_length_b 5.9998(4)
_cell_length_c 14.3053(14)
_cell_angle_alpha 90.
_cell_angle_beta 90.
_cell_angle_gamma 120.
_cell_volume 445.97
_cell_formula_units_Z 2
_symmetry_space_group_name_H-M 'P 63/m m c'
_symmetry_Int_Tables_number 194
_refine_ls_R_factor_all 0.0285
loop_
_symmetry_equiv_pos_site_id
_symmetry_equiv_pos_as_xyz
1 'x, x-y, -z+1/2'
2 '-x+y, y, -z+1/2'
3 '-y, -x, -z+1/2'
4 '-x+y, -x, -z+1/2'
5 '-y, x-y, -z+1/2'
6 'x, y, -z+1/2'
7 '-x, -x+y, z+1/2'
8 'x-y, -y, z+1/2'
9 'y, x, z+1/2'
10 'x-y, x, z+1/2'
11 'y, -x+y, z+1/2'
12 '-x, -y, z+1/2'
13 '-x, -x+y, -z'
14 'x-y, -y, -z'
15 'y, x, -z'
16 'x-y, x, -z'
17 'y, -x+y, -z'
18 '-x, -y, -z'
19 'x, x-y, z'
20 '-x+y, y, z'
21 '-y, -x, z'
22 '-x+y, -x, z'
23 '-y, x-y, z'
24 'x, y, z'
loop_
_atom_type_symbol
_atom_type_oxidation_number
K1+ 1
Na1+ 1
Os7+ 7
O2- -2
loop_
_atom_site_label
_atom_site_type_symbol
_atom_site_symmetry_multiplicity
_atom_site_Wyckoff_symbol
_atom_site_fract_x
_atom_site_fract_y
_atom_site_fract_z
_atom_site_B_iso_or_equiv
_atom_site_occupancy
_atom_site_attached_hydrogens
K1 K1+ 2 b 0. 0. 0.25 0.0225(10) 1 0
K2 K1+ 4 f 0.3333 0.6667 0.1100(3) 0.0274(8) 1 0
Na1 Na1+ 2 a 0. 0. 0. 0.0158(17) 1 0
Os1 Os7+ 4 f 0.6667 0.3333 0.14948(4) 0.0139(2) 1 0
O1 O2- 6 h 0.5305(8) 0.0610(16) 0.25 0.0175(18) 1 0
O2 O2- 12 k 0.3667(13) 0.1834(7) 0.0916(5) 0.0279(15) 1 0
loop_
_atom_site_aniso_label
_atom_site_aniso_type_symbol
_atom_site_aniso_U_11
_atom_site_aniso_U_22
_atom_site_aniso_U_33
_atom_site_aniso_U_12
_atom_site_aniso_U_13
_atom_site_aniso_U_23
K1 K1+ 0.0241(15) 0.0241(15) 0.019(2) 0.0121(7) 0. 0.
K2 K1+ 0.0233(10) 0.0233(10) 0.0356(19) 0.0117(5) 0. 0.
Na1 Na1+ 0.018(2) 0.018(2) 0.012(4) 0.0089(12) 0. 0.
Os1 Os7+ 0.0147(2) 0.0147(2) 0.0123(3) 0.00733(11) 0. 0.
O1 O2- 0.018(3) 0.010(4) 0.022(4) 0.005(2) 0. 0.
O2 O2- 0.015(3) 0.034(3) 0.028(3) 0.0075(16) -0.011(3) -0.0055(15)
#End of TTdata_423654-ICSD