
#(C) 2019 by FIZ Karlsruhe - Leibniz Institute for Information Infrastructure.  All rights reserved.
data_424077-ICSD
_database_code_ICSD 424077
_audit_creation_date 2014-08-01
_chemical_name_systematic 'Sodium selenium(IV) triborate'
_chemical_formula_structural 'Na Se B3 O7'
_chemical_formula_sum 'B3 Na1 O7 Se1'
_exptl_crystal_density_diffrn 2.71
_cell_measurement_temperature 293.
_publ_section_title

;
A series of boroselenite-based open frameworks mediated by the cationic sizes
of the alkali metals
;
loop_
_citation_id
_citation_journal_full
_citation_year
_citation_journal_volume
_citation_page_first
_citation_page_last
_citation_journal_id_ASTM
primary CrystEngComm 2012 14 8727 8733 CRECF4
loop_
_publ_author_name
'Jian-Han Zhang'
'Fang Kong'
'Bing-Ping Yang'
'Jiang-Gao Mao'
_cell_length_a 4.470(3)
_cell_length_b 15.810(9)
_cell_length_c 8.645(5)
_cell_angle_alpha 90.
_cell_angle_beta 98.746(12)
_cell_angle_gamma 90.
_cell_volume 603.84
_cell_formula_units_Z 4
_symmetry_space_group_name_H-M 'P 1 21/c 1'
_symmetry_Int_Tables_number 14
_refine_ls_R_factor_all 0.0254
loop_
_symmetry_equiv_pos_site_id
_symmetry_equiv_pos_as_xyz
1 'x, -y+1/2, z+1/2'
2 '-x, -y, -z'
3 '-x, y+1/2, -z+1/2'
4 'x, y, z'
loop_
_atom_type_symbol
_atom_type_oxidation_number
Na1+ 1
Se4+ 4
B3+ 3
O2- -2
loop_
_atom_site_label
_atom_site_type_symbol
_atom_site_symmetry_multiplicity
_atom_site_Wyckoff_symbol
_atom_site_fract_x
_atom_site_fract_y
_atom_site_fract_z
_atom_site_B_iso_or_equiv
_atom_site_occupancy
_atom_site_attached_hydrogens
Na1 Na1+ 4 e 0.3241(3) 0.60799(7) 1.04163(13) 0.0114(3) 1 0
Se1 Se4+ 4 e 0.15677(6) 0.487450(17) 0.71634(3) 0.00837(11) 1 0
B1 B3+ 4 e 0.6736(7) 0.5943(2) 0.7442(4) 0.0094(6) 1 0
B2 B3+ 4 e 0.4849(7) 0.73882(19) 0.7687(4) 0.0087(6) 1 0
B3 B3+ 4 e 0.4825(7) 0.68125(19) 0.5135(4) 0.0091(6) 1 0
O1 O2- 4 e 0.5259(4) 0.51615(12) 0.7935(2) 0.0098(4) 1 0
O2 O2- 4 e 0.0026(4) 0.57952(12) 0.7866(2) 0.0099(4) 1 0
O3 O2- 4 e 0.1173(4) 0.41434(12) 0.8438(2) 0.0132(4) 1 0
O4 O2- 4 e 0.6018(4) 0.66671(12) 0.8350(2) 0.0092(4) 1 0
O5 O2- 4 e 0.4375(4) 0.80940(12) 0.8540(2) 0.0109(4) 1 0
O6 O2- 4 e 0.4129(5) 0.74748(12) 0.6077(2) 0.0110(4) 1 0
O7 O2- 4 e 0.5863(4) 0.60687(12) 0.5752(2) 0.0104(4) 1 0
loop_
_atom_site_aniso_label
_atom_site_aniso_type_symbol
_atom_site_aniso_U_11
_atom_site_aniso_U_22
_atom_site_aniso_U_33
_atom_site_aniso_U_12
_atom_site_aniso_U_13
_atom_site_aniso_U_23
Na1 Na1+ 0.0135(6) 0.0100(6) 0.0108(6) -0.0004(4) 0.0019(4) 0.0015(4)
Se1 Se4+ 0.00855(15) 0.00892(16) 0.00734(18) 0.00080(9) 0.00027(11) -0.00006(10)
B1 B3+ 0.0130(16) 0.0072(14) 0.0082(16) 0.0005(11) 0.0027(12) -0.0006(11)
B2 B3+ 0.0088(15) 0.0103(15) 0.0073(17) -0.0008(10) 0.0024(12) 0.0000(11)
B3 B3+ 0.0115(15) 0.0082(14) 0.0078(17) -0.0018(10) 0.0023(12) -0.0007(12)
O1 O2- 0.0070(9) 0.0109(10) 0.0112(11) -0.0010(7) 0.0000(8) 0.0011(8)
O2 O2- 0.0073(9) 0.0091(9) 0.0133(11) 0.0010(7) 0.0012(8) -0.0015(8)
O3 O2- 0.0112(10) 0.0107(10) 0.0182(11) 0.0001(7) 0.0034(8) 0.0067(8)
O4 O2- 0.0121(10) 0.0099(9) 0.0056(10) 0.0015(7) 0.0013(7) 0.0001(7)
O5 O2- 0.0168(10) 0.0081(9) 0.0081(11) 0.0024(7) 0.0029(8) 0.0003(8)
O6 O2- 0.0185(11) 0.0082(9) 0.0064(11) 0.0017(7) 0.0020(8) 0.0008(7)
O7 O2- 0.0131(10) 0.0105(10) 0.0076(10) 0.0022(7) 0.0015(8) -0.0003(8)
#End of TTdata_424077-ICSD