
#(C) 2018 by FIZ Karlsruhe - Leibniz Institute for Information Infrastructure.  All rights reserved.
data_424043-ICSD
_database_code_ICSD 424043
_audit_creation_date 2016-08-01
_chemical_name_systematic 'Lithium tripotassium diphosphate'
_chemical_formula_structural 'Li K3 P2 O7'
_chemical_formula_sum 'K3 Li1 O7 P2'
_chemical_name_structure_type NdP3O9
_exptl_crystal_density_diffrn 2.64
_cell_measurement_temperature 296.
_publ_section_title

;
Synthesis, crystal structures and optical properties of two congruent-melting
isotypic diphosphates: LiM3P2O7 (M=Na, K)
;
loop_
_citation_id
_citation_journal_full
_citation_year
_citation_journal_volume
_citation_page_first
_citation_page_last
_citation_journal_id_ASTM
primary 'Journal of Solid State Chemistry' 2013 197 128 133 JSSCBI
loop_
_publ_author_name
'Shi, Yunjing'
'Wang, Ying'
'Pan, Shilie'
'Yang, Zhihua'
'Dong, Xiaoyu'
'Wu, Hongping'
'Zhang, Min'
'Cao, Jian'
'Zhou, Zhongxiang'
_cell_length_a 6.0373(14)
_cell_length_b 9.339(2)
_cell_length_c 13.292(3)
_cell_angle_alpha 90.
_cell_angle_beta 90.
_cell_angle_gamma 90.
_cell_volume 749.43
_cell_formula_units_Z 4
_symmetry_space_group_name_H-M 'C 2 2 21'
_symmetry_Int_Tables_number 20
_refine_ls_R_factor_all 0.0212
loop_
_symmetry_equiv_pos_site_id
_symmetry_equiv_pos_as_xyz
1 '-x, y, -z+1/2'
2 '-x, -y, z+1/2'
3 'x, -y, -z'
4 'x, y, z'
5 '-x+1/2, y+1/2, -z+1/2'
6 '-x+1/2, -y+1/2, z+1/2'
7 'x+1/2, -y+1/2, -z'
8 'x+1/2, y+1/2, z'
loop_
_atom_type_symbol
_atom_type_oxidation_number
Li1+ 1
K1+ 1
P5+ 5
O2- -2
loop_
_atom_site_label
_atom_site_type_symbol
_atom_site_symmetry_multiplicity
_atom_site_Wyckoff_symbol
_atom_site_fract_x
_atom_site_fract_y
_atom_site_fract_z
_atom_site_B_iso_or_equiv
_atom_site_occupancy
_atom_site_attached_hydrogens
Li1 Li1+ 4 b 1. 0.9883(6) 0.75 0.0170(12) 1 0
K1 K1+ 4 a 0.86668(14) 1. 1. 0.02065(19) 1 0
K2 K1+ 8 c 0.88030(10) 1.34308(6) 0.87724(4) 0.01999(16) 1 0
P1 P5+ 8 c 0.86713(10) 0.69114(6) 0.84456(4) 0.01078(16) 1 0
O1 O2- 8 c 0.8152(3) 0.84508(18) 0.81963(12) 0.0177(4) 1 0
O2 O2- 8 c 0.6605(3) 0.59989(18) 0.85222(12) 0.0174(4) 1 0
O3 O2- 8 c 1.0188(4) 0.6747(2) 0.93278(13) 0.0272(5) 1 0
O4 O2- 4 b 1. 0.6236(2) 0.75 0.0295(7) 1 0
loop_
_atom_site_aniso_label
_atom_site_aniso_type_symbol
_atom_site_aniso_U_11
_atom_site_aniso_U_22
_atom_site_aniso_U_33
_atom_site_aniso_U_12
_atom_site_aniso_U_13
_atom_site_aniso_U_23
Li1 Li1+ 0.018(3) 0.014(3) 0.019(3) 0. -0.005(2) 0.
K1 K1+ 0.0208(4) 0.0251(4) 0.0161(3) 0. 0. -0.0009(3)
K2 K1+ 0.0174(3) 0.0201(3) 0.0225(3) 0.0027(2) -0.0006(2) 0.0027(2)
P1 P5+ 0.0112(3) 0.0109(3) 0.0103(3) -0.0007(2) 0.0012(2) 0.00034(19)
O1 O2- 0.0190(9) 0.0119(8) 0.0222(8) 0.0001(7) 0.0057(7) 0.0013(7)
O2 O2- 0.0155(10) 0.0148(8) 0.0219(9) -0.0040(7) 0.0009(8) -0.0019(6)
O3 O2- 0.0209(10) 0.0390(11) 0.0216(9) -0.0057(10) -0.0086(7) 0.0077(9)
O4 O2- 0.0486(19) 0.0109(13) 0.0289(15) 0. 0.0240(13) 0.
#End of TTdata_424043-ICSD