
#(C) 2019 by FIZ Karlsruhe - Leibniz Institute for Information Infrastructure.  All rights reserved.
data_424112-ICSD
_database_code_ICSD 424112
_audit_creation_date 2013-02-01
_chemical_name_systematic 'Sodium fluorosulfate'
_chemical_formula_structural 'Na (S O3 F)'
_chemical_formula_sum 'F1 Na1 O3 S1'
_exptl_crystal_density_diffrn 2.39
_cell_measurement_temperature 100.
_publ_section_title

;
The missing crystal structures of fluorosulfates of monovalent cations: M(I) S
O3 F , M= Na, Rb and Tl
;
loop_
_citation_id
_citation_journal_full
_citation_year
_citation_journal_volume
_citation_page_first
_citation_page_last
_citation_journal_id_ASTM
primary 'Journal of Fluorine Chemistry' 2012 140 116 120 JFLCAR
loop_
_publ_author_name
'Michalowski, T.'
'Leszczynski, P.J.'
'Cyranski, M.'
'Dobrzycki, L.'
'Budzianowski, A.'
'Grochala, W.'
_cell_length_a 5.4812(2)
_cell_length_b 5.4812(2)
_cell_length_c 6.5172(3)
_cell_angle_alpha 90.
_cell_angle_beta 90.
_cell_angle_gamma 120.
_cell_volume 169.57
_cell_formula_units_Z 2
_symmetry_space_group_name_H-M 'P 63/m m c'
_symmetry_Int_Tables_number 194
_refine_ls_R_factor_all 0.0176
loop_
_symmetry_equiv_pos_site_id
_symmetry_equiv_pos_as_xyz
1 'x, x-y, -z+1/2'
2 '-x+y, y, -z+1/2'
3 '-y, -x, -z+1/2'
4 '-x+y, -x, -z+1/2'
5 '-y, x-y, -z+1/2'
6 'x, y, -z+1/2'
7 '-x, -x+y, z+1/2'
8 'x-y, -y, z+1/2'
9 'y, x, z+1/2'
10 'x-y, x, z+1/2'
11 'y, -x+y, z+1/2'
12 '-x, -y, z+1/2'
13 '-x, -x+y, -z'
14 'x-y, -y, -z'
15 'y, x, -z'
16 'x-y, x, -z'
17 'y, -x+y, -z'
18 '-x, -y, -z'
19 'x, x-y, z'
20 '-x+y, y, z'
21 '-y, -x, z'
22 '-x+y, -x, z'
23 '-y, x-y, z'
24 'x, y, z'
loop_
_atom_type_symbol
_atom_type_oxidation_number
S6+ 6
Na1+ 1
O2- -2
F1- -1
loop_
_atom_site_label
_atom_site_type_symbol
_atom_site_symmetry_multiplicity
_atom_site_Wyckoff_symbol
_atom_site_fract_x
_atom_site_fract_y
_atom_site_fract_z
_atom_site_B_iso_or_equiv
_atom_site_occupancy
_atom_site_attached_hydrogens
S1 S6+ 4 f 0.3333 0.6667 0.21292(14) 0.0077(5) 0.5 0
Na1 Na1+ 2 a 0 0 0 0.0109(4) 1 0
O1 O2- 6 h 0.18567(14) 0.3713(3) 0.25 0.0155(5) 1 0
F1 F1- 4 f 0.3333 0.6667 -0.0283(4) 0.0148(7) 0.5 0
loop_
_atom_site_aniso_label
_atom_site_aniso_type_symbol
_atom_site_aniso_U_11
_atom_site_aniso_U_22
_atom_site_aniso_U_33
_atom_site_aniso_U_12
_atom_site_aniso_U_13
_atom_site_aniso_U_23
S1 S6+ 0.0073(5) 0.0073(5) 0.0086(12) 0.0036(2) 0. 0.
Na1 Na1+ 0.0115(5) 0.0115(5) 0.0096(6) 0.0057(3) 0. 0.
O1 O2- 0.0136(6) 0.0088(9) 0.0226(7) 0.0044(4) 0. 0.
F1 F1- 0.0178(10) 0.0178(10) 0.0088(13) 0.0089(5) 0. 0.
#End of TTdata_424112-ICSD