
#(C) 2019 by FIZ Karlsruhe - Leibniz Institute for Information Infrastructure.  All rights reserved.
data_424150-ICSD
_database_code_ICSD 424150
_audit_creation_date 2012-08-01
_chemical_name_systematic 'Disodium trifluoroborato sulfate(VI)'
_chemical_formula_structural 'Na2 (S O4) (B F3)'
_chemical_formula_sum 'B1 F3 Na2 O4 S1'
_exptl_crystal_density_diffrn 2.65
_cell_measurement_temperature 298.
_publ_section_title

;
Lewis acid base reactions between boron trifluoride and complex oxoanions as a
versatile access to fluorooxoanions: synthesis of sodium
(trifluoroborato)sulfate
;
loop_
_citation_id
_citation_journal_full
_citation_year
_citation_journal_volume
_citation_page_first
_citation_page_last
_citation_journal_id_ASTM
primary 'Zeitschrift fuer Anorganische und Allgemeine Chemie (1950) (DE)' 2012
638 733 736 ZAACAB
loop_
_publ_author_name
'Pilz, T.'
'Jansen, M.'
_cell_length_a 6.60326(16)
_cell_length_b 6.63275(15)
_cell_length_c 6.63493(14)
_cell_angle_alpha 84.5424(15)
_cell_angle_beta 84.4579(13)
_cell_angle_gamma 65.7623(13)
_cell_volume 263.25
_cell_formula_units_Z 2
_symmetry_space_group_name_H-M 'P -1'
_symmetry_Int_Tables_number 2
_refine_ls_R_factor_all 0.0395
loop_
_symmetry_equiv_pos_site_id
_symmetry_equiv_pos_as_xyz
1 '-x, -y, -z'
2 'x, y, z'
loop_
_atom_type_symbol
_atom_type_oxidation_number
Na1+ 1
B3+ 3
S6+ 6
O2- -2
F1- -1
loop_
_atom_site_label
_atom_site_type_symbol
_atom_site_symmetry_multiplicity
_atom_site_Wyckoff_symbol
_atom_site_fract_x
_atom_site_fract_y
_atom_site_fract_z
_atom_site_B_iso_or_equiv
_atom_site_occupancy
_atom_site_attached_hydrogens
Na1 Na1+ 2 i -0.2684(2) 1.3835(3) 0.8455(2) 0.0303(5) 1 0
Na2 Na1+ 2 i -0.2772(3) 0.7662(3) 1.4009(3) 0.0415(5) 1 0
B1 B3+ 2 i -0.1655(6) 0.8557(7) 0.8760(6) 0.0200(8) 1 0
S1 S6+ 2 i 0.22808(14) 0.72765(14) 0.65072(12) 0.0214(3) 1 0
O1 O2- 2 i 0.0220(4) 0.8947(4) 0.7619(4) 0.0239(6) 1 0
O2 O2- 2 i 0.3489(4) 0.8570(4) 0.5623(4) 0.0258(6) 1 0
O3 O2- 2 i 0.1543(4) 0.6335(4) 0.4993(4) 0.0276(6) 1 0
O4 O2- 2 i 0.3493(4) 0.5568(4) 0.8000(4) 0.0283(6) 1 0
F1 F1- 2 i -0.2356(4) 0.7260(4) 0.7740(3) 0.0323(6) 1 0
F2 F1- 2 i -0.0994(4) 0.7497(4) 1.0669(3) 0.0323(6) 1 0
F3 F1- 2 i -0.3322(4) 1.0640(4) 0.9006(4) 0.0366(6) 1 0
loop_
_atom_site_aniso_label
_atom_site_aniso_type_symbol
_atom_site_aniso_U_11
_atom_site_aniso_U_22
_atom_site_aniso_U_33
_atom_site_aniso_U_12
_atom_site_aniso_U_13
_atom_site_aniso_U_23
Na1 Na1+ 0.0297(9) 0.0390(10) 0.0238(8) -0.0158(7) -0.0005(7) -0.0021(7)
Na2 Na1+ 0.0490(10) 0.0293(10) 0.0456(10) -0.0178(8) 0.0154(8) -0.0098(8)
B1 B3+ 0.0178(19) 0.0189(19) 0.023(2) -0.0072(15) 0.0011(16) -0.0046(17)
S1 S6+ 0.0238(5) 0.0225(5) 0.0196(5) -0.0110(4) 0.0003(4) -0.0026(4)
O1 O2- 0.0242(13) 0.0209(13) 0.0298(14) -0.0128(11) 0.0045(11) -0.0062(12)
O2 O2- 0.0268(13) 0.0292(15) 0.0253(13) -0.0166(12) 0.0019(11) 0.0012(12)
O3 O2- 0.0344(14) 0.0320(15) 0.0229(13) -0.0191(12) 0.0026(11) -0.0106(12)
O4 O2- 0.0265(13) 0.0262(14) 0.0262(14) -0.0063(11) -0.0023(11) 0.0062(12)
F1 F1- 0.0354(12) 0.0359(13) 0.0349(13) -0.0220(11) -0.0048(10) -0.0074(11)
F2 F1- 0.0378(12) 0.0359(14) 0.0261(12) -0.0177(10) -0.0056(10) 0.0011(10)
F3 F1- 0.0323(12) 0.0264(12) 0.0447(14) -0.0068(10) 0.0081(11) -0.0063(11)
#End of TTdata_424150-ICSD