
#(C) 2019 by FIZ Karlsruhe - Leibniz Institute for Information Infrastructure.  All rights reserved.
data_424200-ICSD
_database_code_ICSD 424200
_audit_creation_date 2013-02-01
_chemical_name_systematic 'Disodium chromate(VI) sesquihydrate'
_chemical_formula_structural 'Na2 (Cr O4) (H2 O)1.5'
_chemical_formula_sum 'H3 Cr1 Na2 O5.5'
_exptl_crystal_density_diffrn 2.44
_cell_measurement_temperature 173.
_publ_section_title

;
Crystal structures of two hydrated sodium chromates : Na2 Cr O4 Ã— 10 H2 O and
Na2 Cr O4 Ã— 1.5 H2 O
;
loop_
_citation_id
_citation_journal_full
_citation_year
_citation_journal_volume
_citation_page_first
_citation_page_last
_citation_journal_id_ASTM
primary 'Zeitschrift fuer Kristallographie - Crystalline Materials' 2012 227 621
628 ZKCMAJ
loop_
_publ_author_name
'Kahlenberg, V.'
_cell_length_a 6.7797(9)
_cell_length_b 8.6548(10)
_cell_length_c 35.078(5)
_cell_angle_alpha 90
_cell_angle_beta 90
_cell_angle_gamma 90
_cell_volume 2058.27
_cell_formula_units_Z 16
_symmetry_space_group_name_H-M 'F 2 d d'
_symmetry_Int_Tables_number 43
_refine_ls_R_factor_all 0.023
loop_
_symmetry_equiv_pos_site_id
_symmetry_equiv_pos_as_xyz
1 'x+1/4, -y+1/4, z+1/4'
2 'x+1/4, y+1/4, -z+1/4'
3 'x, -y, -z'
4 'x, y, z'
5 'x+1/4, -y+3/4, z+3/4'
6 'x+1/4, y+3/4, -z+3/4'
7 'x, -y+1/2, -z+1/2'
8 'x, y+1/2, z+1/2'
9 'x+3/4, -y+1/4, z+3/4'
10 'x+3/4, y+1/4, -z+3/4'
11 'x+1/2, -y, -z+1/2'
12 'x+1/2, y, z+1/2'
13 'x+3/4, -y+3/4, z+1/4'
14 'x+3/4, y+3/4, -z+1/4'
15 'x+1/2, -y+1/2, -z'
16 'x+1/2, y+1/2, z'
loop_
_atom_type_symbol
_atom_type_oxidation_number
Cr6+ 6
Na1+ 1
O2- -2
H1+ 1
loop_
_atom_site_label
_atom_site_type_symbol
_atom_site_symmetry_multiplicity
_atom_site_Wyckoff_symbol
_atom_site_fract_x
_atom_site_fract_y
_atom_site_fract_z
_atom_site_B_iso_or_equiv
_atom_site_occupancy
_atom_site_attached_hydrogens
Cr1 Cr6+ 16 b 0.45737(7) 0.26244(4) 0.188031(10) 0.00855(11) 1 0
Na1 Na1+ 16 b 0.94963(19) 0.41066(12) 0.15619(3) 0.0143(2) 1 0
Na2 Na1+ 16 b 0.14170(18) 0.04558(13) 0.24568(3) 0.0147(2) 1 0
O1 O2- 16 b 0.6669(3) 0.3548(2) 0.19632(5) 0.0135(4) 1 0
O2 O2- 16 b 0.4374(3) 0.1152(2) 0.21757(5) 0.0144(4) 1 0
O3 O2- 16 b 0.4579(4) 0.1946(2) 0.14424(5) 0.0138(4) 1 0
O4 O2- 16 b 0.2715(3) 0.3847(3) 0.19334(6) 0.0148(4) 1 0
O5 O2- 16 b 0.9343(3) 0.1382(2) 0.14722(6) 0.0162(4) 1 0
O6 O2- 8 a 0.9158(4) 0.25 0.25 0.0163(6) 1 0
H1 H1+ 16 b 1.027(5) 0.086(4) 0.1371(11) 0.035(7) 1 0
H2 H1+ 16 b 0.890(6) 0.078(4) 0.1643(10) 0.035(7) 1 0
H3 H1+ 16 b 0.835(4) 0.267(6) 0.2313(4) 0.035(7) 1 0
loop_
_atom_site_aniso_label
_atom_site_aniso_type_symbol
_atom_site_aniso_U_11
_atom_site_aniso_U_22
_atom_site_aniso_U_33
_atom_site_aniso_U_12
_atom_site_aniso_U_13
_atom_site_aniso_U_23
Cr1 Cr6+ 0.00956(18) 0.00794(19) 0.00816(16) -0.00008(17) 0.00007(17)
-0.00036(14)
Na1 Na1+ 0.0160(5) 0.0129(5) 0.0141(4) -0.0005(5) -0.0001(5) 0.0004(4)
Na2 Na1+ 0.0144(5) 0.0151(6) 0.0148(5) -0.0022(4) 0.0031(4) -0.0023(4)
O1 O2- 0.0139(11) 0.0144(9) 0.0122(8) -0.0019(8) -0.0004(7) -0.0005(8)
O2 O2- 0.0136(10) 0.0140(9) 0.0157(8) -0.0009(8) 0.0007(8) 0.0031(7)
O3 O2- 0.0148(9) 0.0142(9) 0.0125(8) 0.0015(10) -0.0001(9) -0.0026(6)
O4 O2- 0.0164(11) 0.0146(10) 0.0136(9) 0.0047(8) 0.0016(8) -0.0011(8)
O5 O2- 0.0169(11) 0.0139(10) 0.0179(9) 0.0004(9) 0.0042(9) 0.0014(7)
O6 O2- 0.0130(17) 0.0192(15) 0.0167(12) 0 0 0.0052(10)
#End of TTdata_424200-ICSD