
#(C) 2019 by FIZ Karlsruhe - Leibniz Institute for Information Infrastructure.  All rights reserved.
data_424374-ICSD
_database_code_ICSD 424374
_audit_creation_date 2013-02-01
_chemical_name_systematic 'Sodium silver arsenic molybdate (6.4/49.6/16/72)'
_chemical_formula_structural 'Na6.40 Ag49.60 As16 Mo72 O284'
_chemical_formula_sum 'Ag49.6 As16 Mo72 Na6.4 O284'
_exptl_crystal_density_diffrn 4.97
_cell_measurement_temperature 298.
_publ_section_title

;
Synthesis, structure and ionic conductivity of the molybdenum arsenate: Ag12.4
Na1.6 Mo18 As4 O71
;
loop_
_citation_id
_citation_journal_full
_citation_year
_citation_journal_volume
_citation_page_first
_citation_page_last
_citation_journal_id_ASTM
primary 'Solid State Sciences' 2012 14 1349 1354 SSSCFJ
loop_
_publ_author_name
'Hajji, M.'
'Zid, M.F.'
_cell_length_a 20.032(1)
_cell_length_b 16.872(1)
_cell_length_c 19.373(1)
_cell_angle_alpha 90.
_cell_angle_beta 112.14(2)
_cell_angle_gamma 90.
_cell_volume 6064.9
_cell_formula_units_Z 1
_symmetry_space_group_name_H-M 'C 1 2/c 1'
_symmetry_Int_Tables_number 15
_refine_ls_R_factor_all 0.0366
loop_
_symmetry_equiv_pos_site_id
_symmetry_equiv_pos_as_xyz
1 'x, -y, z+1/2'
2 '-x, -y, -z'
3 '-x, y, -z+1/2'
4 'x, y, z'
5 'x+1/2, -y+1/2, z+1/2'
6 '-x+1/2, -y+1/2, -z'
7 '-x+1/2, y+1/2, -z+1/2'
8 'x+1/2, y+1/2, z'
loop_
_atom_type_symbol
_atom_type_oxidation_number
Mo6+ 6
As5+ 5
O2- -2
Ag1+ 1
Na1+ 1
loop_
_atom_site_label
_atom_site_type_symbol
_atom_site_symmetry_multiplicity
_atom_site_Wyckoff_symbol
_atom_site_fract_x
_atom_site_fract_y
_atom_site_fract_z
_atom_site_B_iso_or_equiv
_atom_site_occupancy
_atom_site_attached_hydrogens
Mo1 Mo6+ 8 f 0.27731(5) 0.34089(5) 0.38230(5) 0.01118(9) 1 0
Mo2 Mo6+ 8 f 0.43273(5) 0.01292(5) 0.37614(5) 0.0119(2) 1 0
Mo3 Mo6+ 8 f 0.40537(5) 0.31825(6) 0.30420(5) 0.0151(2) 1 0
Mo4 Mo6+ 8 f 0.12456(5) 0.47660(5) 0.30899(5) 0.00940(9) 1 0
Mo5 Mo6+ 8 f 0.30661(5) 0.27633(5) 0.12095(5) 0.0123(2) 1 0
Mo6 Mo6+ 8 f 0.13653(5) 0.17503(5) 0.28540(5) 0.0134(2) 1 0
Mo7 Mo6+ 8 f 0.29341(5) 0.06798(5) 0.42334(5) 0.0130(2) 1 0
Mo8 Mo6+ 8 f 0.13960(5) 0.22065(5) 0.11592(5) 0.01140(9) 1 0
Mo9 Mo6+ 8 f 0.06558(6) 0.06486(8) 0.47899(6) 0.0351(3) 1 0
As1 As5+ 8 f 0.29652(5) 0.13508(6) 0.24753(6) 0.0092(2) 1 0
As2 As5+ 8 f 0.23167(5) 0.41288(6) 0.20369(5) 0.0086(2) 1 0
O1 O2- 8 f 0.2900(4) 0.3069(5) 0.4691(4) 0.0218(9) 1 0
O2 O2- 8 f 0.2149(4) 0.2771(4) 0.3218(4) 0.0197(9) 1 0
O3 O2- 8 f 0.4753(4) 0.2529(5) 0.3224(4) 0.0253(9) 1 0
O4 O2- 8 f 0.4486(4) 0.4070(5) 0.3359(5) 0.029(2) 1 0
O5 O2- 8 f 0.2793(5) 0.3455(5) 0.0511(4) 0.030(2) 1 0
O6 O2- 8 f 0.3634(4) 0.2147(5) 0.0991(5) 0.0271(9) 1 0
O7 O2- 8 f 0.0845(4) 0.2824(5) 0.0465(4) 0.0207(9) 1 0
O8 O2- 8 f 0.1072(4) 0.1279(5) 0.0851(4) 0.0225(9) 1 0
O9 O2- 8 f 0.0892(4) 0.0892(5) 0.2479(5) 0.030(2) 1 0
O10 O2- 8 f 0.0844(4) 0.2203(5) 0.3264(5) 0.029(2) 1 0
O11 O2- 8 f 0.0720(4) 0.3915(5) 0.2932(4) 0.0189(9) 1 0
O12 O2- 8 f 0.1054(4) 0.5283(5) 0.3748(4) 0.0221(9) 1 0
O13 O2- 8 f 0.4876(4) -0.0687(4) 0.4030(4) 0.0182(9) 1 0
O14 O2- 8 f 0.4850(4) 0.0892(5) 0.4270(4) 0.0202(9) 1 0
O15 O2- 8 f 0.3487(4) 0.1397(5) 0.4818(4) 0.0216(9) 1 0
O16 O2- 8 f 0.2597(4) 0.0183(5) 0.4787(4) 0.0212(9) 1 0
O17 O2- 8 f 0.2256(4) 0.2047(4) 0.0942(4) 0.0136(9) 1 0
O18 O2- 8 f 0.2970(4) 0.3968(4) 0.2891(4) 0.0144(9) 1 0
O19 O2- 8 f 0.2194(4) 0.3268(4) 0.1574(4) 0.0138(9) 1 0
O20 O2- 8 f 0.3718(4) -0.0076(4) 0.4313(4) 0.0159(9) 1 0
O21 O2- 8 f 0.1529(4) 0.4392(4) 0.2106(4) 0.0117(9) 1 0
O22 O2- 8 f 0.3378(4) 0.1044(4) 0.3369(4) 0.0128(9) 1 0
O23 O2- 8 f 0.2134(4) 0.4254(4) 0.3711(4) 0.0142(9) 1 0
O24 O2- 8 f 0.2936(4) 0.0640(4) 0.1867(4) 0.0198(9) 1 0
O25 O2- 8 f 0.4346(4) 0.0381(4) 0.2796(4) 0.0150(9) 1 0
O26 O2- 8 f 0.2121(4) 0.1313(4) 0.3686(4) 0.0166(9) 1 0
O27 O2- 8 f 0.3714(4) 0.3458(4) 0.1979(4) 0.0163(9) 1 0
O28 O2- 8 f 0.3355(4) 0.2190(4) 0.2331(4) 0.0194(9) 1 0
O29 O2- 8 f 0.2088(4) 0.1581(4) 0.2257(4) 0.0163(9) 1 0
O30 O2- 8 f 0.1023(4) 0.2410(5) 0.1911(4) 0.0170(9) 1 0
O31 O2- 8 f 0.2664(4) 0.4858(4) 0.1673(4) 0.0183(9) 1 0
O32 O2- 8 f 0.3670(4) 0.2919(4) 0.3765(4) 0.0214(9) 1 0
O33 O2- 8 f 0.3552(4) 0.4383(4) 0.4411(4) 0.0180(9) 1 0
O34 O2- 8 f 0.0817(8) 0.0269(8) 0.4051(6) 0.028(5) 1 0
O35 O2- 8 f 0.0411(5) 0.1629(7) 0.4611(6) 0.027(3) 1 0
O36 O2- 4 a 0. 0. 0.5 0.026(4) 1 0
Ag1 Ag1+ 8 f 0.22572(5) 0.06665(5) 0.05391(5) 0.0257(2) 1 0
Ag2 Ag1+ 8 f 0.11965(5) 0.38717(5) -0.0199(5) 0.0253(2) 1 0
Ag3 Ag1+ 8 f -0.0053(4) 0.3205(5) 0.3329(4) 0.0277(9) 0.67 0
Ag4 Ag1+ 8 f 0.0074(9) 0.3124(9) 0.3479(8) 0.0390(3) 0.34 0
Ag5 Ag1+ 8 f 0.0466(5) 0.2930(6) 0.5226(6) 0.0396(3) 1 0
Ag6 Ag1+ 8 f 0.3681(1) 0.5173(1) 0.3343(1) 0.0350(3) 0.91 0
Ag7 Ag1+ 8 f 0.4885(5) 0.1478(1) 0.2378(6) 0.0421(9) 0.48 0
Ag8 Ag1+ 8 f 0.1063(1) -0.0309(1) 0.3286(1) 0.0381(6) 0.60(7) 0
Ag9 Ag1+ 8 f 0.3587(1) 0.2235(1) 0.5676(1) 0.0282(6) 0.2 0
Na1 Na1+ 8 f 0.3587(1) 0.2235(1) 0.5676(1) 0.0282(6) 0.8 0
loop_
_atom_site_aniso_label
_atom_site_aniso_type_symbol
_atom_site_aniso_U_11
_atom_site_aniso_U_22
_atom_site_aniso_U_33
_atom_site_aniso_U_12
_atom_site_aniso_U_13
_atom_site_aniso_U_23
Mo1 Mo6+ 0.0125(4) 0.0117(4) 0.0095(4) -0.0010(3) 0.0044(3) -0.0011(3)
Mo2 Mo6+ 0.0117(4) 0.0149(5) 0.0090(4) 0.0016(4) 0.0039(3) 0.0011(4)
Mo3 Mo6+ 0.0112(4) 0.0202(5) 0.0138(5) -0.0011(4) 0.0046(4) -0.0039(4)
Mo4 Mo6+ 0.0099(4) 0.0102(4) 0.0096(4) -0.0016(3) 0.0053(3) -0.0007(3)
Mo5 Mo6+ 0.0165(5) 0.0128(4) 0.0100(4) -0.0006(4) 0.0078(4) -0.0013(4)
Mo6 Mo6+ 0.0138(4) 0.0129(5) 0.0162(5) 0.0019(4) 0.0088(4) 0.0032(4)
Mo7 Mo6+ 0.0179(5) 0.0131(5) 0.0108(4) 0.0038(4) 0.0086(4) 0.0027(3)
Mo8 Mo6+ 0.0113(4) 0.0119(4) 0.0104(4) 0.0020(4) 0.0033(3) 0.0009(4)
Mo9 Mo6+ 0.0238(6) 0.0447(7) 0.0233(6) -0.0207(5) -0.0065(5) 0.0109(5)
As1 As5+ 0.0104(5) 0.0095(5) 0.0080(5) 0.0016(4) 0.0037(4) 0.0007(4)
As2 As5+ 0.0105(5) 0.0081(5) 0.0080(5) -0.0005(4) 0.0044(4) -0.0009(4)
O1 O2- 0.024(4) 0.025(4) 0.017(4) -0.001(4) 0.009(3) 0.000(3)
O2 O2- 0.025(4) 0.010(4) 0.020(4) -0.001(3) 0.005(3) -0.007(3)
O3 O2- 0.012(4) 0.036(5) 0.023(4) 0.009(4) 0.001(3) -0.001(4)
O4 O2- 0.025(5) 0.024(5) 0.029(5) -0.015(4) 0.000(4) -0.009(4)
O5 O2- 0.046(6) 0.031(5) 0.016(4) -0.006(4) 0.015(4) 0.000(4)
O6 O2- 0.021(4) 0.030(5) 0.036(5) -0.006(4) 0.017(4) -0.016(4)
O7 O2- 0.015(4) 0.027(4) 0.018(4) 0.005(3) 0.003(3) 0.009(3)
O8 O2- 0.024(4) 0.016(4) 0.022(4) 0.001(3) 0.002(4) -0.007(3)
O9 O2- 0.027(5) 0.031(5) 0.035(5) -0.010(4) 0.014(4) 0.001(4)
O10 O2- 0.034(5) 0.029(5) 0.033(5) 0.019(4) 0.023(4) 0.011(4)
O11 O2- 0.010(4) 0.026(4) 0.018(4) -0.005(3) 0.002(3) -0.001(3)
O12 O2- 0.022(4) 0.028(5) 0.020(4) 0.006(3) 0.012(3) 0.002(4)
O13 O2- 0.015(4) 0.020(4) 0.024(4) 0.004(3) 0.012(3) 0.004(3)
O14 O2- 0.018(4) 0.023(4) 0.015(4) -0.005(3) 0.001(3) -0.004(3)
O15 O2- 0.023(4) 0.023(4) 0.018(4) 0.001(4) 0.006(3) -0.002(3)
O16 O2- 0.030(5) 0.026(4) 0.014(4) 0.003(4) 0.016(4) 0.004(3)
O17 O2- 0.015(4) 0.017(4) 0.004(3) 0.002(3) -0.001(3) -0.001(3)
O18 O2- 0.011(4) 0.023(4) 0.011(4) 0.004(3) 0.005(3) 0.003(3)
O19 O2- 0.020(4) 0.008(4) 0.012(4) -0.003(3) 0.005(3) -0.008(3)
O20 O2- 0.020(4) 0.021(4) 0.014(4) 0.005(3) 0.014(3) 0.006(3)
O21 O2- 0.015(4) 0.018(4) 0.005(3) 0.000(3) 0.006(3) -0.001(3)
O22 O2- 0.015(4) 0.014(4) 0.011(4) -0.002(3) 0.006(3) -0.001(3)
O23 O2- 0.014(4) 0.013(4) 0.017(4) 0.004(3) 0.007(3) -0.002(3)
O24 O2- 0.021(4) 0.018(4) 0.016(4) 0.009(3) 0.002(3) -0.011(3)
O25 O2- 0.016(4) 0.019(4) 0.010(4) -0.001(3) 0.006(3) 0.004(3)
O26 O2- 0.020(4) 0.014(4) 0.017(4) 0.007(3) 0.009(3) 0.001(3)
O27 O2- 0.017(4) 0.016(4) 0.017(4) -0.005(3) 0.008(3) 0.000(3)
O28 O2- 0.029(4) 0.017(4) 0.008(4) -0.011(3) 0.002(3) -0.004(3)
O29 O2- 0.009(4) 0.020(4) 0.019(4) 0.011(3) 0.004(3) 0.007(3)
O30 O2- 0.008(4) 0.024(4) 0.022(4) 0.002(3) 0.008(3) -0.001(3)
O31 O2- 0.017(4) 0.012(4) 0.022(4) 0.002(3) 0.003(3) 0.004(3)
O32 O2- 0.029(4) 0.018(4) 0.019(4) 0.008(3) 0.012(4) 0.002(3)
O33 O2- 0.013(4) 0.017(4) 0.020(4) -0.001(3) 0.002(3) -0.004(3)
O34 O2- 0.045(9) 0.032(10) 0.008(6) -0.026(9) 0.009(7) -0.010(6)
O35 O2- 0.012(5) 0.031(7) 0.036(8) -0.001(5) -0.002(5) 0.021(6)
O36 O2- 0.009(6) 0.023(9) 0.047(9) -0.006(6) 0.002(7) 0.015(8)
Ag1 Ag1+ 0.0420(6) 0.0187(5) 0.0174(5) 0.0078(4) 0.0122(4) -0.0009(4)
Ag2 Ag1+ 0.0378(5) 0.0191(5) 0.0240(5) 0.0013(4) 0.0172(4) 0.0000(4)
Ag3 Ag1+ 0.0264(9) 0.022(2) 0.0387(9) -0.0106(9) 0.0174(9) -0.0016(9)
Ag4 Ag1+ 0.042(6) 0.025(4) 0.076(9) -0.003(4) 0.050(7) -0.011(5)
Ag5 Ag1+ 0.0230(5) 0.0339(6) 0.0499(7) 0.0008(4) 0.0003(5) -0.0060(5)
Ag6 Ag1+ 0.0599(8) 0.0142(5) 0.0318(6) -0.0065(5) 0.0182(6) -0.0022(4)
Ag7 Ag1+ 0.054(5) 0.0186(8) 0.077(6) -0.0024(9) 0.051(4) -0.0011(9)
Ag8 Ag1+ 0.055(3) 0.0153(2) 0.052(2) 0.0090(2) 0.036(2) -0.0022(1)
Ag9 Ag1+ 0.0400(9) 0.0295(9) 0.0107(9) 0.0043(9) 0.0045(9) -0.0067(9)
Na1 Na1+ 0.0400(9) 0.0295(9) 0.0107(9) 0.0043(9) 0.0045(9) -0.0067(9)
#End of TTdata_424374-ICSD