
#(C) 2019 by FIZ Karlsruhe - Leibniz Institute for Information Infrastructure.  All rights reserved.
data_424364-ICSD
_database_code_ICSD 424364
_audit_creation_date 2013-02-01
_chemical_name_systematic 'Disodium dipotassium diphosphate(IV) octahydrate'
_chemical_formula_structural 'Na2 K2 P2 O6 (H2 O)8'
_chemical_formula_sum 'H16 K2 Na2 O14 P2'
_chemical_name_structure_type K4P2O6(H2O)8
_exptl_crystal_density_diffrn 1.98
_cell_measurement_temperature 223.
_publ_section_title

;
New quaternary alkali-metal hypodiphosphate hydrates: preparation, crystal
structure, vibrational spectrum, and thermal behavior of K4 P2 O6 Â· 8 H2 O and
Na2 K2 P2 O6 Â· 8 H2 O in comparison to Na4 P2 O6 Â· 10 H2 O
;
loop_
_citation_id
_citation_journal_full
_citation_year
_citation_journal_volume
_citation_page_first
_citation_page_last
_citation_journal_id_ASTM
primary 'Zeitschrift fuer Anorganische und Allgemeine Chemie (1950) (DE)' 2012
638 2144 2149 ZAACAB
loop_
_publ_author_name
'Gjikaj, M.'
'Wu Peng'
'Brockner, W.'
_cell_length_a 10.7145(9)
_cell_length_b 11.5128(9)
_cell_length_c 11.6158(9)
_cell_angle_alpha 90.
_cell_angle_beta 90.
_cell_angle_gamma 90.
_cell_volume 1432.85
_cell_formula_units_Z 4
_symmetry_space_group_name_H-M 'P b c a'
_symmetry_Int_Tables_number 61
_refine_ls_R_factor_all 0.0291
loop_
_symmetry_equiv_pos_site_id
_symmetry_equiv_pos_as_xyz
1 'x+1/2, y, -z+1/2'
2 'x, -y+1/2, z+1/2'
3 '-x+1/2, y+1/2, z'
4 '-x, -y, -z'
5 '-x+1/2, -y, z+1/2'
6 '-x, y+1/2, -z+1/2'
7 'x+1/2, -y+1/2, -z'
8 'x, y, z'
loop_
_atom_type_symbol
_atom_type_oxidation_number
K1+ 1
Na1+ 1
P4+ 4
O2- -2
H1+ 1
loop_
_atom_site_label
_atom_site_type_symbol
_atom_site_symmetry_multiplicity
_atom_site_Wyckoff_symbol
_atom_site_fract_x
_atom_site_fract_y
_atom_site_fract_z
_atom_site_B_iso_or_equiv
_atom_site_occupancy
_atom_site_attached_hydrogens
K1 K1+ 8 c 0.69466(4) 0.17658(4) 0.66091(4) 0.0241(2) 1 0
Na1 Na1+ 8 c 0.99462(7) 0.02354(7) 0.64570(7) 0.0181(2) 1 0
P1 P4+ 8 c 0.49512(4) 0.07927(4) 0.44848(4) 0.01080(19) 1 0
O1 O2- 8 c 0.43509(13) 0.04963(12) 0.33257(11) 0.0156(3) 1 0
O2 O2- 8 c 0.62960(13) 0.12181(12) 0.43428(12) 0.0167(3) 1 0
O3 O2- 8 c 0.41617(14) 0.16499(12) 0.51838(12) 0.0176(3) 1 0
O4 O2- 8 c 0.81352(15) -0.08096(15) 0.70163(15) 0.0250(4) 1 0
O5 O2- 8 c 0.88911(16) 0.10274(14) 0.47908(13) 0.0189(3) 1 0
O6 O2- 8 c 0.93777(15) 0.20311(16) 0.74946(14) 0.0223(4) 1 0
O7 O2- 8 c 0.82909(17) -0.14321(15) 0.39598(14) 0.0228(4) 1 0
H1 H1+ 8 c 0.731(4) -0.074(3) 0.693(3) 0.053(10) 1 0
H2 H1+ 8 c 0.825(3) -0.089(3) 0.771(3) 0.036(8) 1 0
H3 H1+ 8 c 0.819(3) 0.094(3) 0.459(3) 0.032(8) 1 0
H4 H1+ 8 c 0.896(3) 0.177(3) 0.479(3) 0.042(9) 1 0
H5 H1+ 8 c 0.937(3) 0.270(3) 0.738(3) 0.032(8) 1 0
H6 H1+ 8 c 0.923(3) 0.195(3) 0.815(4) 0.051(10) 1 0
H7 H1+ 8 c 0.850(3) -0.216(3) 0.409(2) 0.025(7) 1 0
H8 H1+ 8 c 0.765(3) -0.136(3) 0.423(3) 0.040(9) 1 0
loop_
_atom_site_aniso_label
_atom_site_aniso_type_symbol
_atom_site_aniso_U_11
_atom_site_aniso_U_22
_atom_site_aniso_U_33
_atom_site_aniso_U_12
_atom_site_aniso_U_13
_atom_site_aniso_U_23
K1 K1+ 0.0237(3) 0.0319(3) 0.0167(3) -0.00217(19) -0.00123(17) -0.00543(19)
Na1 Na1+ 0.0186(5) 0.0211(5) 0.0147(4) 0.0006(3) 0.0007(3) 0.0013(3)
P1 P4+ 0.0119(3) 0.0127(3) 0.0078(3) 0.00004(17) 0.00028(17) -0.00013(17)
O1 O2- 0.0161(7) 0.0207(7) 0.0100(6) 0.0005(6) -0.0029(5) -0.0012(6)
O2 O2- 0.0147(8) 0.0202(8) 0.0151(7) -0.0041(6) -0.0008(5) 0.0020(6)
O3 O2- 0.0218(8) 0.0161(7) 0.0150(7) 0.0039(6) 0.0038(6) -0.0018(6)
O4 O2- 0.0181(9) 0.0402(10) 0.0166(8) -0.0030(7) -0.0022(6) 0.0046(7)
O5 O2- 0.0193(9) 0.0163(8) 0.0212(8) 0.0000(6) -0.0033(7) -0.0004(6)
O6 O2- 0.0299(9) 0.0218(9) 0.0152(8) 0.0004(7) 0.0041(7) 0.0025(6)
O7 O2- 0.0206(9) 0.0205(9) 0.0272(9) -0.0002(7) 0.0072(7) 0.0022(7)
#End of TTdata_424364-ICSD