
#(C) 2019 by FIZ Karlsruhe - Leibniz Institute for Information Infrastructure.  All rights reserved.
data_424350-ICSD
_database_code_ICSD 424350
_audit_creation_date 2013-02-01
_chemical_name_systematic 'Sodium ferrate - Beta'
_chemical_formula_structural 'Na0.78 Fe2 O3'
_chemical_formula_sum 'Fe2 Na0.78 O3'
_chemical_name_structure_type Ti3PO2
_exptl_crystal_density_diffrn 4.7
_cell_measurement_temperature 295.
_publ_section_title

;
Synthesis of mixed-valent alpha- and beta- Na Fe2 O3 polymorphs under
controlled partial oxygen pressure
;
loop_
_citation_id
_citation_journal_full
_citation_year
_citation_journal_volume
_citation_page_first
_citation_page_last
_citation_journal_id_ASTM
primary 'Journal of Solid State Chemistry' 2012 192 68 74 JSSCBI
loop_
_publ_author_name
'Bruno, S.R.'
'Blakely, C.K.'
'Poltavets, V.V.'
_cell_length_a 3.05106
_cell_length_b 3.05106
_cell_length_c 7.78982(24)
_cell_angle_alpha 90.
_cell_angle_beta 90.
_cell_angle_gamma 120.
_cell_volume 62.8
_cell_formula_units_Z 1
_symmetry_space_group_name_H-M 'P -3 m 1'
_symmetry_Int_Tables_number 164
_refine_ls_R_factor_all 0.0799
loop_
_symmetry_equiv_pos_site_id
_symmetry_equiv_pos_as_xyz
1 'x-y, -y, -z'
2 '-x, -x+y, -z'
3 'y, x, -z'
4 'x-y, x, -z'
5 'y, -x+y, -z'
6 '-x, -y, -z'
7 '-x+y, y, z'
8 'x, x-y, z'
9 '-y, -x, z'
10 '-x+y, -x, z'
11 '-y, x-y, z'
12 'x, y, z'
loop_
_atom_type_symbol
_atom_type_oxidation_number
Fe2+ 2.6
Na1+ 1
O2- -2
loop_
_atom_site_label
_atom_site_type_symbol
_atom_site_symmetry_multiplicity
_atom_site_Wyckoff_symbol
_atom_site_fract_x
_atom_site_fract_y
_atom_site_fract_z
_atom_site_B_iso_or_equiv
_atom_site_occupancy
_atom_site_attached_hydrogens
Fe1 Fe2+ 2 d 0.33333 0.66667 0.17054(18) 0.00768(24) 1. 0
Na1 Na1+ 1 b 0. 0. 0.5 0.01061(27) 0.782(7) 0
O1 O2- 1 a 0. 0. 0. 0.0228(9) 1. 0
O2 O2- 2 d 0.33333 0.66667 0.6416(6) 0.0228(9) 1. 0
#End of TTdata_424350-ICSD