
#(C) 2019 by FIZ Karlsruhe - Leibniz Institute for Information Infrastructure.  All rights reserved.
data_424393-ICSD
_database_code_ICSD 424393
_audit_creation_date 2013-02-01
_chemical_name_systematic 'Sodium samarium fluoride (1.5/1.5/6)'
_chemical_formula_structural '(Na1.5 Sm1.5) F6'
_chemical_formula_sum 'F6 Na1.5 Sm1.5'
_chemical_name_structure_type NaNdF4
_exptl_crystal_density_diffrn 5.32
_cell_measurement_temperature 293.
_publ_section_title

;
Crystal structures and stability of Na Ln F4 (Ln = La, Ce, Pr, Nd, Sm, and Gd)
studied with synchrotron single-crystal and powder diffraction
;
loop_
_citation_id
_citation_journal_full
_citation_year
_citation_journal_volume
_citation_page_first
_citation_page_last
_citation_journal_id_ASTM
primary 'Dalton Transactions' 2012 41 10258 10266 DTARAF
loop_
_publ_author_name
'Grzechnik, A.'
'Friese, K.'
_cell_length_a 6.071(2)
_cell_length_b 6.071(2)
_cell_length_c 3.660(2)
_cell_angle_alpha 90.
_cell_angle_beta 90.
_cell_angle_gamma 120.
_cell_volume 116.82
_cell_formula_units_Z 1
_symmetry_space_group_name_H-M 'P -6'
_symmetry_Int_Tables_number 174
_refine_ls_R_factor_all 0.0474
loop_
_symmetry_equiv_pos_site_id
_symmetry_equiv_pos_as_xyz
1 '-x+y, -x, -z'
2 '-y, x-y, -z'
3 'x, y, -z'
4 '-x+y, -x, z'
5 '-y, x-y, z'
6 'x, y, z'
loop_
_atom_type_symbol
_atom_type_oxidation_number
Sm3+ 3
Na1+ 1
Sm3+ 3
F1- -1
loop_
_atom_site_label
_atom_site_type_symbol
_atom_site_symmetry_multiplicity
_atom_site_Wyckoff_symbol
_atom_site_fract_x
_atom_site_fract_y
_atom_site_fract_z
_atom_site_B_iso_or_equiv
_atom_site_occupancy
_atom_site_attached_hydrogens
Sm1 Sm3+ 1 a 0 0 0 0.00869(11) 1 0
Na1 Na1+ 2 h 0.333333 0.666667 0.637(8) 0.047(7) 0.5 0
Na2 Na1+ 1 f 0.666667 0.333333 0.5 0.0087(2) 0.5 0
Sm2 Sm3+ 1 f 0.666667 0.333333 0.5 0.0087(2) 0.5 0
F1 F1- 3 j 0.6374(17) 0.0458(19) 0 0.024(2) 1 0
F2 F1- 3 k 0.7354(11) 0.7569(11) 0.5 0.0139(14) 1 0
loop_
_atom_site_aniso_label
_atom_site_aniso_type_symbol
_atom_site_aniso_U_11
_atom_site_aniso_U_22
_atom_site_aniso_U_33
_atom_site_aniso_U_12
_atom_site_aniso_U_13
_atom_site_aniso_U_23
Sm1 Sm3+ 0.00888(14) 0.00888(14) 0.00831(16) 0.00444(7) 0 0
Na1 Na1+ 0.012(3) 0.012(3) 0.12(2) 0.0059(16) 0 0
Na2 Na1+ 0.0084(3) 0.0084(3) 0.0095(3) 0.00420(14) 0 0
Sm2 Sm3+ 0.0084(3) 0.0084(3) 0.0095(3) 0.00420(14) 0 0
F1 F1- 0.012(2) 0.019(3) 0.045(4) 0.010(2) 0 0
F2 F1- 0.0139(19) 0.0137(18) 0.0138(13) 0.0066(16) 0 0
#End of TTdata_424393-ICSD