
#(C) 2019 by FIZ Karlsruhe - Leibniz Institute for Information Infrastructure.  All rights reserved.
data_424355-ICSD
_database_code_ICSD 424355
_audit_creation_date 2015-02-01
_chemical_name_systematic 'Hexasodium undecamolybdate'
_chemical_formula_structural 'Na6 Mo11 O36'
_chemical_formula_sum 'Mo11 Na6 O36'
_exptl_crystal_density_diffrn 4.12
_cell_measurement_temperature 298.
_publ_section_title 'Private communication'
loop_
_citation_id
_citation_journal_full
_citation_year
_citation_journal_volume
_citation_page_first
_citation_page_last
_citation_journal_id_ASTM
primary 'Private Communication' 2012 2012 1 1 PRICO6
loop_
_publ_author_name
'Ennajeh, Ines'
'Bourguiba, Noura'
'Zid, Mohamed Faouzi'
'Driss, Ahmed'
_cell_length_a 7.225(10)
_cell_length_b 17.863(10)
_cell_length_c 22.086(10)
_cell_angle_alpha 90
_cell_angle_beta 90.1620(10)
_cell_angle_gamma 90
_cell_volume 2850.41
_cell_formula_units_Z 4
_symmetry_space_group_name_H-M 'C 1 2/c 1'
_symmetry_Int_Tables_number 15
_refine_ls_R_factor_all 0.0369
loop_
_symmetry_equiv_pos_site_id
_symmetry_equiv_pos_as_xyz
1 'x, -y, z+1/2'
2 '-x, -y, -z'
3 '-x, y, -z+1/2'
4 'x, y, z'
5 'x+1/2, -y+1/2, z+1/2'
6 '-x+1/2, -y+1/2, -z'
7 '-x+1/2, y+1/2, -z+1/2'
8 'x+1/2, y+1/2, z'
loop_
_atom_type_symbol
_atom_type_oxidation_number
Mo6+ 6
Na1+ 1
O2- -2
loop_
_atom_site_label
_atom_site_type_symbol
_atom_site_symmetry_multiplicity
_atom_site_Wyckoff_symbol
_atom_site_fract_x
_atom_site_fract_y
_atom_site_fract_z
_atom_site_B_iso_or_equiv
_atom_site_occupancy
_atom_site_attached_hydrogens
Mo1 Mo6+ 8 f -0.05004(7) 0.09120(3) 0.08276(2) 0.00655(14) 1 0
Mo2 Mo6+ 8 f -0.04298(7) 0.09488(3) -0.08671(2) 0.00684(15) 1 0
Mo3 Mo6+ 8 f 0.28671(7) 0.16699(3) 0.17148(2) 0.00706(15) 1 0
Mo4 Mo6+ 4 e 0 0.06760(4) 0.25 0.00733(18) 1 0
Mo5 Mo6+ 8 f 0.29609(6) 0.15641(3) 0.00098(2) 0.00649(14) 1 0
Mo6 Mo6+ 8 f 0.28715(7) 0.15684(3) -0.17582(2) 0.00828(15) 1 0
Na1 Na1+ 8 f 0.4865(3) -0.00133(15) 0.08705(11) 0.0163(6) 1 0
Na2 Na1+ 8 f -0.2647(3) 0.24828(16) -0.17056(12) 0.0165(5) 1 0
Na3 Na1+ 4 e -0.5 -0.0049(3) 0.25 0.0225(9) 1 0
Na4 Na1+ 4 d 0.75 0.25 0 0.0219(8) 1 0
O1 O2- 8 f -0.1635(6) 0.0093(3) -0.0835(2) 0.0100(8) 1 0
O2 O2- 8 f -0.1840(6) 0.0087(3) 0.2430(2) 0.0159(9) 1 0
O3 O2- 8 f 0.0629(6) 0.2560(3) -0.1687(2) 0.0117(9) 1 0
O4 O2- 8 f 0.8115(6) 0.0125(3) 0.0820(2) 0.0119(9) 1 0
O5 O2- 8 f 0.4298(6) 0.2375(3) 0.0005(2) 0.0121(9) 1 0
O6 O2- 8 f 0.4138(6) 0.2410(2) -0.15831(19) 0.0088(8) 1 0
O7 O2- 8 f 0.0400(6) 0.1003(3) -0.16288(19) 0.0109(9) 1 0
O8 O2- 8 f -0.2619(7) 0.1602(3) -0.2482(2) 0.0187(11) 1 0
O9 O2- 8 f 0.2093(6) 0.1534(2) -0.0784(2) 0.0097(9) 1 0
O10 O2- 8 f 0.0275(6) 0.0968(3) 0.16485(18) 0.0101(9) 1 0
O11 O2- 8 f 0.2070(6) 0.1538(2) 0.08224(19) 0.0090(9) 1 0
O12 O2- 8 f 0.0345(6) 0.0951(3) 0.00059(19) 0.0102(9) 1 0
O13 O2- 8 f 0.4305(7) 0.0913(3) 0.1661(2) 0.0156(10) 1 0
O14 O2- 8 f 0.2059(7) 0.1611(2) 0.2469(2) 0.0115(9) 1 0
O15 O2- 8 f -0.2081(6) 0.1630(3) -0.0827(2) 0.0149(10) 1 0
O16 O2- 8 f 0.4536(6) 0.0861(3) 0.0022(2) 0.0149(10) 1 0
O17 O2- 8 f -0.2056(7) 0.1625(3) 0.0817(2) 0.0161(10) 1 0
O18 O2- 8 f 0.4427(7) 0.0853(3) -0.1643(2) 0.0143(9) 1 0
loop_
_atom_site_aniso_label
_atom_site_aniso_type_symbol
_atom_site_aniso_U_11
_atom_site_aniso_U_22
_atom_site_aniso_U_33
_atom_site_aniso_U_12
_atom_site_aniso_U_13
_atom_site_aniso_U_23
Mo1 Mo6+ 0.0056(2) 0.0092(3) 0.0048(2) -0.00115(18) 0.00002(17) 0.00021(17)
Mo2 Mo6+ 0.0061(2) 0.0086(3) 0.0058(2) -0.00103(18) -0.00067(17) 0.00018(17)
Mo3 Mo6+ 0.0057(2) 0.0091(3) 0.0064(2) -0.00104(18) -0.00056(17) 0.00018(17)
Mo4 Mo6+ 0.0075(3) 0.0095(4) 0.0051(3) 0 0.0014(2) 0
Mo5 Mo6+ 0.0060(2) 0.0086(3) 0.0048(2) -0.00079(18) 0.00003(17) -0.00013(17)
Mo6 Mo6+ 0.0074(2) 0.0086(3) 0.0088(3) -0.00040(18) 0.00159(18) 0.00070(18)
Na1 Na1+ 0.0113(12) 0.0217(14) 0.0160(14) 0.0014(11) -0.0013(10) 0.0009(11)
Na2 Na1+ 0.0115(12) 0.0210(14) 0.0168(13) -0.0002(11) -0.0005(10) -0.0012(11)
Na3 Na1+ 0.0124(17) 0.035(2) 0.020(2) 0 0.0042(14) 0
Na4 Na1+ 0.0196(19) 0.025(2) 0.021(2) 0.0021(17) -0.0015(15) -0.0009(17)
O1 O2- 0.0063(18) 0.014(2) 0.010(2) -0.0006(17) -0.0011(15) -0.0015(16)
O2 O2- 0.013(2) 0.016(2) 0.019(2) -0.0023(19) 0.0046(17) -0.0058(19)
O3 O2- 0.0075(19) 0.012(2) 0.016(2) -0.0014(17) -0.0006(16) 0.0024(17)
O4 O2- 0.0074(19) 0.016(2) 0.013(2) -0.0029(17) 0.0007(16) -0.0024(17)
O5 O2- 0.0116(19) 0.014(2) 0.011(2) -0.0022(18) -0.0004(16) 0.0007(17)
O6 O2- 0.0054(18) 0.011(2) 0.011(2) -0.0023(16) 0.0013(15) -0.0001(16)
O7 O2- 0.012(2) 0.013(2) 0.008(2) -0.0028(17) 0.0002(15) -0.0004(16)
O8 O2- 0.021(3) 0.022(3) 0.013(2) 0.005(2) -0.0006(19) -0.0009(19)
O9 O2- 0.011(2) 0.011(2) 0.0069(19) -0.0017(16) 0.0010(16) -0.0036(16)
O10 O2- 0.011(2) 0.016(2) 0.003(2) -0.0043(17) 0.0008(15) 0.0009(15)
O11 O2- 0.010(2) 0.012(2) 0.0057(19) -0.0030(16) 0.0012(16) -0.0010(15)
O12 O2- 0.013(2) 0.014(2) 0.0033(19) -0.0051(17) 0.0017(16) -0.0012(16)
O13 O2- 0.017(2) 0.015(2) 0.016(2) 0.0050(18) -0.0007(17) 0.0001(18)
O14 O2- 0.014(2) 0.014(2) 0.006(2) -0.0004(17) 0.0002(16) -0.0009(16)
O15 O2- 0.015(2) 0.015(2) 0.015(2) 0.0034(18) 0.0009(18) 0.0006(18)
O16 O2- 0.016(2) 0.013(2) 0.016(2) 0.0040(18) -0.0007(19) -0.0012(18)
O17 O2- 0.017(3) 0.016(2) 0.015(2) 0.0002(19) -0.0015(19) 0.0027(18)
O18 O2- 0.015(2) 0.013(2) 0.015(2) 0.0038(19) 0.0030(17) 0.0010(18)
#End of TTdata_424355-ICSD