
#(C) 2018 by FIZ Karlsruhe - Leibniz Institute for Information Infrastructure.  All rights reserved.
data_424485-ICSD
_database_code_ICSD 424485
_audit_creation_date 2013-08-01
_chemical_name_systematic
'Dilithium digadolinium strontium pentakis(carbodiimide)'
_chemical_formula_structural 'Li2 Gd2 Sr (C N2)5'
_chemical_formula_sum 'C5 Gd2 Li2 N10 Sr1'
_exptl_crystal_density_diffrn 3.76
_cell_measurement_temperature 293.
_publ_section_title

;
The new carbodiimide Li2 Gd2 Sr (C N2)5 having a crystal structure related to
that of Gd2 (C N2)3
;
loop_
_citation_id
_citation_journal_full
_citation_year
_citation_journal_volume
_citation_page_first
_citation_page_last
_citation_journal_id_ASTM
primary 'Zeitschrift fuer Anorganische und Allgemeine Chemie (1950) (DE)' 2013
639 84 88 ZAACAB
loop_
_publ_author_name
'Unverfehrt, Leonid'
'Stroebele, Markus'
'Meyer, H.-Juergen'
_cell_length_a 13.712(4)
_cell_length_b 3.6687(7)
_cell_length_c 11.449(3)
_cell_angle_alpha 90.
_cell_angle_beta 109.17(3)
_cell_angle_gamma 90.
_cell_volume 544.01
_cell_formula_units_Z 2
_symmetry_space_group_name_H-M 'C 1 2/m 1'
_symmetry_Int_Tables_number 12
_refine_ls_R_factor_all 0.0239
loop_
_symmetry_equiv_pos_site_id
_symmetry_equiv_pos_as_xyz
1 '-x, y, -z'
2 '-x, -y, -z'
3 'x, -y, z'
4 'x, y, z'
5 '-x+1/2, y+1/2, -z'
6 '-x+1/2, -y+1/2, -z'
7 'x+1/2, -y+1/2, z'
8 'x+1/2, y+1/2, z'
loop_
_atom_type_symbol
_atom_type_oxidation_number
Gd3+ 3
Sr2+ 2
N3- -3
C4+ 4
N3- -3
C4+ 4
N3- -3
C4+ 4
N3- -3
Li1+ 1
loop_
_atom_site_label
_atom_site_type_symbol
_atom_site_symmetry_multiplicity
_atom_site_Wyckoff_symbol
_atom_site_fract_x
_atom_site_fract_y
_atom_site_fract_z
_atom_site_B_iso_or_equiv
_atom_site_occupancy
_atom_site_attached_hydrogens
Gd1 Gd3+ 2 a 0. 0. 0. 0.0173(3) 1 0
Gd2 Gd3+ 4 i 0.40688(4) 0. 0.24508(5) 0.0194(3) 0.512(3) 0
Sr1 Sr2+ 4 i 0.40688(4) 0. 0.24508(5) 0.0194(3) 0.49 0
N1 N3- 4 i 0.0351(6) 0. 0.2165(7) 0.0282(19) 1 0
C1 C4+ 4 i 0.1217(7) 0. 0.2992(8) 0.0202(19) 1 0
N2 N3- 4 i 0.2055(6) 0. 0.3774(7) 0.0275(18) 1 0
N3 N3- 4 i -0.1097(6) -0.5 0.0061(7) 0.0200(17) 1 0
C2 C4+ 4 i -0.1969(7) -0.5 -0.0761(9) 0.0201(18) 1 0
N4 N3- 4 i -0.2799(6) -0.5 -0.1536(7) 0.032(2) 1 0
C3 C4+ 2 c 0. 0. 0.5 0.026(3) 1 0
N5 N3- 4 i -0.0749(6) 0. 0.4059(7) 0.039(2) 1 0
Li1 Li1+ 4 i -0.2169(13) 0. 0.4305(17) 0.029(4) 1 0
loop_
_atom_site_aniso_label
_atom_site_aniso_type_symbol
_atom_site_aniso_U_11
_atom_site_aniso_U_22
_atom_site_aniso_U_33
_atom_site_aniso_U_12
_atom_site_aniso_U_13
_atom_site_aniso_U_23
Gd1 Gd3+ 0.0226(4) 0.0125(3) 0.0179(4) 0. 0.0079(3) 0.
Gd2 Gd3+ 0.0222(4) 0.0147(4) 0.0187(4) 0. 0.0031(3) 0.
Sr1 Sr2+ 0.0222(4) 0.0147(4) 0.0187(4) 0. 0.0031(3) 0.
N1 N3- 0.019(4) 0.046(5) 0.019(4) 0. 0.005(3) 0.
C1 C4+ 0.026(5) 0.018(4) 0.020(5) 0. 0.011(4) 0.
N2 N3- 0.035(5) 0.019(4) 0.022(4) 0. 0.000(4) 0.
N3 N3- 0.017(4) 0.022(4) 0.022(4) 0. 0.007(3) 0.
C2 C4+ 0.023(5) 0.018(4) 0.024(4) 0. 0.014(4) 0.
N4 N3- 0.025(4) 0.049(5) 0.019(4) 0. 0.002(3) 0.
C3 C4+ 0.028(7) 0.032(7) 0.024(7) 0. 0.016(6) 0.
N5 N3- 0.028(5) 0.068(6) 0.022(5) 0. 0.010(4) 0.
Li1 Li1+ 0.033(9) 0.025(8) 0.039(9) 0. 0.024(8) 0.
#End of TTdata_424485-ICSD