
#(C) 2019 by FIZ Karlsruhe - Leibniz Institute for Information Infrastructure.  All rights reserved.
data_424505-ICSD
_database_code_ICSD 424505
_audit_creation_date 2013-02-01
_chemical_name_systematic 'Trisodium hexafluorotriborate'
_chemical_formula_structural 'Na3 B3 O3 F6'
_chemical_formula_sum 'B3 F6 Na3 O3'
_chemical_name_structure_type UF4
_exptl_crystal_density_diffrn 2.49
_cell_measurement_temperature 296.
_publ_section_title
'Na3 B3 O3 F6: synthesis, crystal structure, and ionic conductivity'
loop_
_citation_id
_citation_journal_full
_citation_year
_citation_journal_volume
_citation_page_first
_citation_page_last
_citation_journal_id_ASTM
primary 'Zeitschrift fuer Anorganische und Allgemeine Chemie (1950) (DE)' 2012
638 1411 1415 ZAACAB
loop_
_publ_author_name
'Cakmak, G.'
'Pilz, T.'
'Jansen, M.'
_cell_length_a 11.867(7)
_cell_length_b 6.901(4)
_cell_length_c 9.367(6)
_cell_angle_alpha 90.
_cell_angle_beta 113.724(9)
_cell_angle_gamma 90.
_cell_volume 702.28
_cell_formula_units_Z 4
_symmetry_space_group_name_H-M 'C 1 2/c 1'
_symmetry_Int_Tables_number 15
_refine_ls_R_factor_all 0.0739
loop_
_symmetry_equiv_pos_site_id
_symmetry_equiv_pos_as_xyz
1 'x, -y, z+1/2'
2 '-x, -y, -z'
3 '-x, y, -z+1/2'
4 'x, y, z'
5 'x+1/2, -y+1/2, z+1/2'
6 '-x+1/2, -y+1/2, -z'
7 '-x+1/2, y+1/2, -z+1/2'
8 'x+1/2, y+1/2, z'
loop_
_atom_type_symbol
_atom_type_oxidation_number
Na1+ 1
F1- -1
O2- -2
B3+ 3
loop_
_atom_site_label
_atom_site_type_symbol
_atom_site_symmetry_multiplicity
_atom_site_Wyckoff_symbol
_atom_site_fract_x
_atom_site_fract_y
_atom_site_fract_z
_atom_site_B_iso_or_equiv
_atom_site_occupancy
_atom_site_attached_hydrogens
Na1 Na1+ 4 c 0.25 0.25 0. 0.0267(7) 1 0
Na2 Na1+ 8 f 0.09328(14) 0.2247(2) 0.49823(16) 0.0259(6) 1 0
F1 F1- 8 f 0.2125(2) 0.4135(3) 0.3808(3) 0.0276(7) 1 0
F2 F1- 8 f 0.0459(2) 0.9181(3) 0.3837(2) 0.0272(7) 1 0
F3 F1- 8 f 0.1257(2) 0.4088(3) 0.1135(3) 0.0315(8) 1 0
O1 O2- 8 f 0.0995(3) 0.6807(4) 0.2444(3) 0.0240(8) 1 0
O2 O2- 4 e 0. 0.3782(5) 0.25 0.0247(10) 1 0
B1 B3+ 4 e 0. 0.7896(9) 0.25 0.0204(14) 1 0
B2 B3+ 8 f 0.1043(4) 0.4758(7) 0.2464(5) 0.0226(11) 1 0
loop_
_atom_site_aniso_label
_atom_site_aniso_type_symbol
_atom_site_aniso_U_11
_atom_site_aniso_U_22
_atom_site_aniso_U_33
_atom_site_aniso_U_12
_atom_site_aniso_U_13
_atom_site_aniso_U_23
Na1 Na1+ 0.0258(14) 0.0283(15) 0.0198(12) 0.0033(10) 0.0029(10) 0.0017(9)
Na2 Na1+ 0.0318(11) 0.0253(10) 0.0185(10) 0.0022(7) 0.0081(8) 0.0014(7)
F1 F1- 0.0268(14) 0.0267(15) 0.0219(15) 0.0053(10) 0.0022(11) 0.0050(10)
F2 F1- 0.0375(16) 0.0207(14) 0.0180(15) -0.0029(10) 0.0056(12) -0.0061(9)
F3 F1- 0.0415(17) 0.0330(16) 0.0215(15) 0.0060(11) 0.0143(13) -0.0045(10)
O1 O2- 0.0242(16) 0.0202(16) 0.0264(16) 0.0001(12) 0.0091(13) 0.0012(12)
O2 O2- 0.022(2) 0.016(2) 0.033(2) 0. 0.0082(19) 0.
B1 B3+ 0.024(3) 0.020(3) 0.013(3) 0. 0.003(3) 0.
B2 B3+ 0.024(2) 0.023(2) 0.018(2) 0.001(2) 0.0054(18) -0.0015(18)
#End of TTdata_424505-ICSD