
#(C) 2019 by FIZ Karlsruhe - Leibniz Institute for Information Infrastructure.  All rights reserved.
data_424741-ICSD
_database_code_ICSD 424741
_audit_creation_date 2014-08-01
_chemical_name_systematic 'Disodium ytterbium orthophosphate tungstate'
_chemical_formula_structural 'Na2 Yb (P O4) (W O4)'
_chemical_formula_sum 'Na2 O8 P1 W1 Yb1'
_chemical_name_structure_type Na2YMoO4PO4
_exptl_crystal_density_diffrn 5.1
_cell_measurement_temperature 293.
_publ_section_title

;
Synthesis, crystal structure and optical properties of Na2 RE (P O4) (W O4)
(RE = Y, Tb-Lu)
;
loop_
_citation_id
_citation_journal_full
_citation_year
_citation_journal_volume
_citation_page_first
_citation_page_last
_citation_journal_id_ASTM
primary 'Dalton Transactions' 2012 41 12121 12128 DTARAF
loop_
_publ_author_name
'Daub, Michael'
'Lehner, Anna J.'
'Hoeppe, Henning A.'
_cell_length_a 17.988(4)
_cell_length_b 12.019(2)
_cell_length_c 6.7680(14)
_cell_angle_alpha 90.
_cell_angle_beta 90.
_cell_angle_gamma 90.
_cell_volume 1463.22
_cell_formula_units_Z 8
_symmetry_space_group_name_H-M 'I b c a'
_symmetry_Int_Tables_number 73
_refine_ls_R_factor_all 0.0266
loop_
_symmetry_equiv_pos_site_id
_symmetry_equiv_pos_as_xyz
1 'x, y+1/2, -z'
2 'x+1/2, -y, z'
3 '-x, y, z+1/2'
4 '-x, -y, -z'
5 '-x, -y+1/2, z'
6 '-x+1/2, y, -z'
7 'x, -y, -z+1/2'
8 'x, y, z'
9 'x+1/2, y, -z+1/2'
10 'x, -y+1/2, z+1/2'
11 '-x+1/2, y+1/2, z'
12 '-x+1/2, -y+1/2, -z+1/2'
13 '-x+1/2, -y, z+1/2'
14 '-x, y+1/2, -z+1/2'
15 'x+1/2, -y+1/2, -z'
16 'x+1/2, y+1/2, z+1/2'
loop_
_atom_type_symbol
_atom_type_oxidation_number
Na1+ 1
W6+ 6
Yb3+ 3
P5+ 5
O2- -2
loop_
_atom_site_label
_atom_site_type_symbol
_atom_site_symmetry_multiplicity
_atom_site_Wyckoff_symbol
_atom_site_fract_x
_atom_site_fract_y
_atom_site_fract_z
_atom_site_B_iso_or_equiv
_atom_site_occupancy
_atom_site_attached_hydrogens
Na1 Na1+ 16 f 0.5965(3) 0.1863(5) -0.2612(11) 0.0441(12) 1 0
W1 W6+ 8 c 0.42669(3) 0. 0.75 0.0207(2) 1 0
Yb1 Yb3+ 8 d 0.75 0.07200(4) 0. 0.0133(2) 1 0
P1 P5+ 8 d 0.25 0.1810(2) 0. 0.0150(7) 1 0
O1 O2- 16 f 0.1821(4) 0.2572(5) 0.014(2) 0.0152(16) 1 0
O2 O2- 16 f 0.2417(5) 0.1012(5) -0.1771(10) 0.0179(15) 1 0
O3 O2- 16 f 0.3703(4) -0.0247(6) 0.9636(12) 0.0231(16) 1 0
O4 O2- 16 f 0.4811(5) -0.1182(7) 0.7066(14) 0.038(2) 1 0
loop_
_atom_site_aniso_label
_atom_site_aniso_type_symbol
_atom_site_aniso_U_11
_atom_site_aniso_U_22
_atom_site_aniso_U_33
_atom_site_aniso_U_12
_atom_site_aniso_U_13
_atom_site_aniso_U_23
Na1 Na1+ 0.033(2) 0.065(3) 0.034(3) -0.020(2) 0.001(3) 0.000(3)
W1 W6+ 0.0183(3) 0.0194(3) 0.0244(4) 0. 0. 0.0016(3)
Yb1 Yb3+ 0.0214(3) 0.0082(3) 0.0104(3) 0. 0.0001(3) 0.
P1 P5+ 0.0263(17) 0.0080(14) 0.0107(16) 0. 0.0007(17) 0.
O1 O2- 0.025(3) 0.013(3) 0.007(4) 0.000(2) -0.004(5) -0.001(3)
O2 O2- 0.030(4) 0.008(3) 0.015(3) 0.000(3) 0.001(3) 0.001(2)
O3 O2- 0.024(3) 0.020(4) 0.025(4) 0.001(3) 0.001(3) 0.008(3)
O4 O2- 0.042(5) 0.039(5) 0.033(6) 0.019(4) -0.003(4) 0.003(4)
#End of TTdata_424741-ICSD