
#(C) 2019 by FIZ Karlsruhe - Leibniz Institute for Information Infrastructure.  All rights reserved.
data_424742-ICSD
_database_code_ICSD 424742
_audit_creation_date 2014-08-01
_chemical_name_systematic 'Disodium yttrium orthophosphate tungstate'
_chemical_formula_structural 'Na2 Y (P O4) (W O4)'
_chemical_formula_sum 'Na2 O8 P1 W1 Y1'
_chemical_name_structure_type Na2YMoO4PO4
_exptl_crystal_density_diffrn 4.26
_cell_measurement_temperature 293.
_publ_section_title

;
Synthesis, crystal structure and optical properties of Na2 RE (P O4) (W O4)
(RE = Y, Tb-Lu)
;
loop_
_citation_id
_citation_journal_full
_citation_year
_citation_journal_volume
_citation_page_first
_citation_page_last
_citation_journal_id_ASTM
primary 'Dalton Transactions' 2012 41 12121 12128 DTARAF
loop_
_publ_author_name
'Daub, Michael'
'Lehner, Anna J.'
'Hoeppe, Henning A.'
_cell_length_a 17.997(4)
_cell_length_b 12.102(2)
_cell_length_c 6.8382(14)
_cell_angle_alpha 90.
_cell_angle_beta 90.
_cell_angle_gamma 90.
_cell_volume 1489.35
_cell_formula_units_Z 8
_symmetry_space_group_name_H-M 'I b c a'
_symmetry_Int_Tables_number 73
_refine_ls_R_factor_all 0.0179
loop_
_symmetry_equiv_pos_site_id
_symmetry_equiv_pos_as_xyz
1 'x, y+1/2, -z'
2 'x+1/2, -y, z'
3 '-x, y, z+1/2'
4 '-x, -y, -z'
5 '-x, -y+1/2, z'
6 '-x+1/2, y, -z'
7 'x, -y, -z+1/2'
8 'x, y, z'
9 'x+1/2, y, -z+1/2'
10 'x, -y+1/2, z+1/2'
11 '-x+1/2, y+1/2, z'
12 '-x+1/2, -y+1/2, -z+1/2'
13 '-x+1/2, -y, z+1/2'
14 '-x, y+1/2, -z+1/2'
15 'x+1/2, -y+1/2, -z'
16 'x+1/2, y+1/2, z+1/2'
loop_
_atom_type_symbol
_atom_type_oxidation_number
Na1+ 1
W6+ 6
Y3+ 3
P5+ 5
O2- -2
loop_
_atom_site_label
_atom_site_type_symbol
_atom_site_symmetry_multiplicity
_atom_site_Wyckoff_symbol
_atom_site_fract_x
_atom_site_fract_y
_atom_site_fract_z
_atom_site_B_iso_or_equiv
_atom_site_occupancy
_atom_site_attached_hydrogens
Na1 Na1+ 16 f 0.59638(18) 0.1895(3) -0.2617(6) 0.0472(8) 1 0
W1 W6+ 8 c 0.42822(2) 0. 0.75 0.02225(14) 1 0
Y1 Y3+ 8 d 0.75 0.07222(7) 0. 0.0134(2) 1 0
P1 P5+ 8 d 0.25 0.18110(18) 0. 0.0146(5) 1 0
O1 O2- 16 f 0.1828(3) 0.2563(4) 0.0165(17) 0.0154(12) 1 0
O2 O2- 16 f 0.2423(3) 0.1016(3) -0.1743(6) 0.0176(10) 1 0
O3 O2- 16 f 0.3722(3) -0.0251(3) 0.9580(7) 0.0243(12) 1 0
O4 O2- 16 f 0.4813(3) -0.1158(5) 0.7073(10) 0.043(2) 1 0
loop_
_atom_site_aniso_label
_atom_site_aniso_type_symbol
_atom_site_aniso_U_11
_atom_site_aniso_U_22
_atom_site_aniso_U_33
_atom_site_aniso_U_12
_atom_site_aniso_U_13
_atom_site_aniso_U_23
Na1 Na1+ 0.0319(15) 0.070(2) 0.0394(17) -0.0189(15) 0.0019(19) 0.001(3)
W1 W6+ 0.01569(18) 0.0228(2) 0.0283(2) 0. 0. 0.0016(3)
Y1 Y3+ 0.0190(4) 0.0102(4) 0.0111(4) 0. -0.0003(4) 0.
P1 P5+ 0.0209(11) 0.0114(10) 0.0115(10) 0. -0.0002(10) 0.
O1 O2- 0.019(2) 0.0134(18) 0.014(3) 0.003(2) 0.005(4) -0.0014(17)
O2 O2- 0.032(3) 0.0100(19) 0.011(2) -0.001(2) 0.001(2) -0.0029(17)
O3 O2- 0.019(2) 0.021(3) 0.033(3) 0.0001(19) -0.008(2) 0.0050(19)
O4 O2- 0.032(3) 0.054(4) 0.042(6) 0.017(3) -0.001(3) 0.003(3)
#End of TTdata_424742-ICSD