
#(C) 2019 by FIZ Karlsruhe - Leibniz Institute for Information Infrastructure.  All rights reserved.
data_424735-ICSD
_database_code_ICSD 424735
_audit_creation_date 2014-08-01
_chemical_name_systematic 'Disodium dysprosium orthophosphate tungstate'
_chemical_formula_structural 'Na2 Dy (P O4) (W O4)'
_chemical_formula_sum 'Dy1 Na2 O8 P1 W1'
_chemical_name_structure_type Na2YMoO4PO4
_exptl_crystal_density_diffrn 4.87
_cell_measurement_temperature 293.
_publ_section_title

;
Synthesis, crystal structure and optical properties of Na2 RE (P O4) (W O4)
(RE = Y, Tb-Lu)
;
loop_
_citation_id
_citation_journal_full
_citation_year
_citation_journal_volume
_citation_page_first
_citation_page_last
_citation_journal_id_ASTM
primary 'Dalton Transactions' 2012 41 12121 12128 DTARAF
loop_
_publ_author_name
'Daub, Michael'
'Lehner, Anna J.'
'Hoeppe, Henning A.'
_cell_length_a 17.989(4)
_cell_length_b 12.156(2)
_cell_length_c 6.8777(14)
_cell_angle_alpha 90.
_cell_angle_beta 90.
_cell_angle_gamma 90.
_cell_volume 1503.97
_cell_formula_units_Z 8
_symmetry_space_group_name_H-M 'I b c a'
_symmetry_Int_Tables_number 73
_refine_ls_R_factor_all 0.0163
loop_
_symmetry_equiv_pos_site_id
_symmetry_equiv_pos_as_xyz
1 'x, y+1/2, -z'
2 'x+1/2, -y, z'
3 '-x, y, z+1/2'
4 '-x, -y, -z'
5 '-x, -y+1/2, z'
6 '-x+1/2, y, -z'
7 'x, -y, -z+1/2'
8 'x, y, z'
9 'x+1/2, y, -z+1/2'
10 'x, -y+1/2, z+1/2'
11 '-x+1/2, y+1/2, z'
12 '-x+1/2, -y+1/2, -z+1/2'
13 '-x+1/2, -y, z+1/2'
14 '-x, y+1/2, -z+1/2'
15 'x+1/2, -y+1/2, -z'
16 'x+1/2, y+1/2, z+1/2'
loop_
_atom_type_symbol
_atom_type_oxidation_number
Na1+ 1
W6+ 6
Dy3+ 3
P5+ 5
O2- -2
loop_
_atom_site_label
_atom_site_type_symbol
_atom_site_symmetry_multiplicity
_atom_site_Wyckoff_symbol
_atom_site_fract_x
_atom_site_fract_y
_atom_site_fract_z
_atom_site_B_iso_or_equiv
_atom_site_occupancy
_atom_site_attached_hydrogens
Na1 Na1+ 16 f 0.59668(18) 0.1904(3) -0.2616(6) 0.0439(9) 1 0
W1 W6+ 8 c 0.428905(19) 0. 0.75 0.01847(14) 1 0
Dy1 Dy3+ 8 d 0.75 0.07236(3) 0. 0.00845(14) 1 0
P1 P5+ 8 d 0.25 0.18061(16) 0. 0.0091(4) 1 0
O1 O2- 16 f 0.1819(3) 0.2554(3) 0.0166(13) 0.0112(11) 1 0
O2 O2- 16 f 0.2416(3) 0.1019(3) -0.1739(5) 0.0133(9) 1 0
O3 O2- 16 f 0.3721(2) -0.0251(4) 0.9578(7) 0.0216(10) 1 0
O4 O2- 16 f 0.4829(4) -0.1179(6) 0.7069(9) 0.0395(16) 1 0
loop_
_atom_site_aniso_label
_atom_site_aniso_type_symbol
_atom_site_aniso_U_11
_atom_site_aniso_U_22
_atom_site_aniso_U_33
_atom_site_aniso_U_12
_atom_site_aniso_U_13
_atom_site_aniso_U_23
Na1 Na1+ 0.0232(16) 0.071(2) 0.0373(16) -0.0218(16) 0.0037(17) -0.0018(19)
W1 W6+ 0.00779(19) 0.0191(2) 0.0285(2) 0. 0. 0.00208(18)
Dy1 Dy3+ 0.0119(2) 0.0057(2) 0.00778(18) 0. 0.00014(17) 0.
P1 P5+ 0.0141(10) 0.0053(9) 0.0078(8) 0. 0.0000(9) 0.
O1 O2- 0.013(2) 0.010(2) 0.011(3) 0.0003(15) 0.002(3) -0.0008(15)
O2 O2- 0.023(3) 0.0077(18) 0.0090(17) 0.000(2) -0.0009(19) 0.0004(15)
O3 O2- 0.009(2) 0.025(3) 0.030(2) -0.0034(19) 0.0005(19) 0.006(2)
O4 O2- 0.028(3) 0.042(4) 0.049(4) 0.027(3) 0.000(3) 0.001(3)
#End of TTdata_424735-ICSD