
#(C) 2019 by FIZ Karlsruhe - Leibniz Institute for Information Infrastructure.  All rights reserved.
data_424738-ICSD
_database_code_ICSD 424738
_audit_creation_date 2014-08-01
_chemical_name_systematic 'Disodium holmium orthophosphate tungstate'
_chemical_formula_structural 'Na2 Ho (P O4) (W O4)'
_chemical_formula_sum 'Ho1 Na2 O8 P1 W1'
_chemical_name_structure_type Na2YMoO4PO4
_exptl_crystal_density_diffrn 4.93
_cell_measurement_temperature 293.
_publ_section_title

;
Synthesis, crystal structure and optical properties of Na2 RE (P O4) (W O4)
(RE = Y, Tb-Lu)
;
loop_
_citation_id
_citation_journal_full
_citation_year
_citation_journal_volume
_citation_page_first
_citation_page_last
_citation_journal_id_ASTM
primary 'Dalton Transactions' 2012 41 12121 12128 DTARAF
loop_
_publ_author_name
'Daub, Michael'
'Lehner, Anna J.'
'Hoeppe, Henning A.'
_cell_length_a 18.0088(12)
_cell_length_b 12.1039(7)
_cell_length_c 6.8454(6)
_cell_angle_alpha 90.
_cell_angle_beta 90.
_cell_angle_gamma 90.
_cell_volume 1492.13
_cell_formula_units_Z 8
_symmetry_space_group_name_H-M 'I b c a'
_symmetry_Int_Tables_number 73
_refine_ls_R_factor_all 0.0163
loop_
_symmetry_equiv_pos_site_id
_symmetry_equiv_pos_as_xyz
1 'x, y+1/2, -z'
2 'x+1/2, -y, z'
3 '-x, y, z+1/2'
4 '-x, -y, -z'
5 '-x, -y+1/2, z'
6 '-x+1/2, y, -z'
7 'x, -y, -z+1/2'
8 'x, y, z'
9 'x+1/2, y, -z+1/2'
10 'x, -y+1/2, z+1/2'
11 '-x+1/2, y+1/2, z'
12 '-x+1/2, -y+1/2, -z+1/2'
13 '-x+1/2, -y, z+1/2'
14 '-x, y+1/2, -z+1/2'
15 'x+1/2, -y+1/2, -z'
16 'x+1/2, y+1/2, z+1/2'
loop_
_atom_type_symbol
_atom_type_oxidation_number
Na1+ 1
W6+ 6
Ho3+ 3
P5+ 5
O2- -2
loop_
_atom_site_label
_atom_site_type_symbol
_atom_site_symmetry_multiplicity
_atom_site_Wyckoff_symbol
_atom_site_fract_x
_atom_site_fract_y
_atom_site_fract_z
_atom_site_B_iso_or_equiv
_atom_site_occupancy
_atom_site_attached_hydrogens
Na1 Na1+ 16 f 0.59669(16) 0.1892(3) -0.2617(6) 0.0447(8) 1 0
W1 W6+ 8 c 0.428322(17) 0. 0.75 0.01967(14) 1 0
Ho1 Ho3+ 8 d 0.75 0.07218(2) 0. 0.01035(13) 1 0
P1 P5+ 8 d 0.25 0.18070(14) 0. 0.0109(4) 1 0
O1 O2- 16 f 0.1819(2) 0.2556(3) 0.0179(10) 0.0115(10) 1 0
O2 O2- 16 f 0.2420(3) 0.1019(3) -0.1743(5) 0.0164(8) 1 0
O3 O2- 16 f 0.3719(2) -0.0251(4) 0.9594(7) 0.0238(10) 1 0
O4 O2- 16 f 0.4827(3) -0.1182(5) 0.7058(8) 0.0408(15) 1 0
loop_
_atom_site_aniso_label
_atom_site_aniso_type_symbol
_atom_site_aniso_U_11
_atom_site_aniso_U_22
_atom_site_aniso_U_33
_atom_site_aniso_U_12
_atom_site_aniso_U_13
_atom_site_aniso_U_23
Na1 Na1+ 0.0281(15) 0.071(2) 0.0350(15) -0.0218(15) 0.0030(16) -0.0004(17)
W1 W6+ 0.01194(19) 0.0212(2) 0.0259(2) 0. 0. 0.00181(17)
Ho1 Ho3+ 0.0154(2) 0.00863(19) 0.00705(18) 0. 0.00021(16) 0.
P1 P5+ 0.0177(9) 0.0078(8) 0.0071(8) 0. 0.0006(10) 0.
O1 O2- 0.016(2) 0.0137(18) 0.005(3) 0.0007(13) -0.002(3) -0.0016(14)
O2 O2- 0.025(2) 0.0145(17) 0.0093(17) 0.000(2) -0.0024(18) -0.0020(15)
O3 O2- 0.016(2) 0.025(2) 0.030(2) -0.0026(17) -0.0021(18) 0.0086(19)
O4 O2- 0.032(3) 0.046(3) 0.045(4) 0.022(3) 0.000(2) 0.007(3)
#End of TTdata_424738-ICSD