
#(C) 2019 by FIZ Karlsruhe - Leibniz Institute for Information Infrastructure.  All rights reserved.
data_424968-ICSD
_database_code_ICSD 424968
_audit_creation_date 2014-08-01
_chemical_name_systematic 'Sodium terbium triborate'
_chemical_formula_structural 'Na2.67 Tb2.11 (B3 O9)'
_chemical_formula_sum 'B3 Na2.67 O9 Tb2.11'
_exptl_crystal_density_diffrn 4.94
_cell_measurement_temperature 293.
_publ_section_title

;
Crystal structure and properties of a sodium terbium borate Na2.67 Tb2.11 B3
O9
;
loop_
_citation_id
_citation_journal_full
_citation_year
_citation_journal_volume
_citation_page_first
_citation_page_last
_citation_journal_id_ASTM
primary 'Chinese Journal of Structural Chemistry' 2012 31 1823 1828 CJSCBE
loop_
_publ_author_name
'Cui, Zhi-hui'
'Liu, Wei'
'Zhang, Li-zhu'
'Guo, Fei-yun'
'Huang, Chang-cang'
'Chen, Jian-zhong'
_cell_length_a 5.0744(10)
_cell_length_b 10.990(2)
_cell_length_c 6.9078(14)
_cell_angle_alpha 90.
_cell_angle_beta 90.
_cell_angle_gamma 90.
_cell_volume 385.23
_cell_formula_units_Z 2
_symmetry_space_group_name_H-M 'A m m 2'
_symmetry_Int_Tables_number 38
_refine_ls_R_factor_all 0.0253
loop_
_symmetry_equiv_pos_site_id
_symmetry_equiv_pos_as_xyz
1 'x, -y, z'
2 '-x, y, z'
3 '-x, -y, z'
4 'x, y, z'
5 'x, -y+1/2, z+1/2'
6 '-x, y+1/2, z+1/2'
7 '-x, -y+1/2, z+1/2'
8 'x, y+1/2, z+1/2'
loop_
_atom_type_symbol
_atom_type_oxidation_number
Tb3+ 3
Na1+ 1
B3+ 3
O2- -2
Na1+ 1
loop_
_atom_site_label
_atom_site_type_symbol
_atom_site_symmetry_multiplicity
_atom_site_Wyckoff_symbol
_atom_site_fract_x
_atom_site_fract_y
_atom_site_fract_z
_atom_site_B_iso_or_equiv
_atom_site_occupancy
_atom_site_attached_hydrogens
Tb1 Tb3+ 4 e 0.5 0.21252(3) 0.0038 0.0125(3) 1 0
Tb2 Tb3+ 2 a 0. 0. -0.088(6) 0.010(2) 0.114(6) 0
Na1 Na1+ 2 a 0. 0. -0.108(7) 0.010(2) 0.89 0
Na2 Na1+ 2 b -0.5 0. -0.3684(11) 0.0208(14) 1 0
B1 B3+ 2 b -0.5 0. 0.229(3) 0.018(4) 1 0
B2 B3+ 4 d 1. 0.2799(13) 0.181(3) 0.018(3) 1 0
O1 O2- 2 b 0.5 0. 0.029(3) 0.022(3) 1 0
O2 O2- 4 e 0.5 0.3927(9) -0.1798(15) 0.030(2) 1 0
O3 O2- 8 f 0.7615(9) 0.3386(6) 0.2154(9) 0.0194(12) 1 0
O4 O2- 4 d 1. 0.1717(16) 0.089(2) 0.048(4) 1 0
Na3 Na1+ 2 a -1. 0. 0.347(2) 0.067(10) 0.78(7) 0
loop_
_atom_site_aniso_label
_atom_site_aniso_type_symbol
_atom_site_aniso_U_11
_atom_site_aniso_U_22
_atom_site_aniso_U_33
_atom_site_aniso_U_12
_atom_site_aniso_U_13
_atom_site_aniso_U_23
Tb1 Tb3+ 0.0172(3) 0.0101(3) 0.0100(3) 0. 0. 0.0003(4)
Tb2 Tb3+ 0.0077(16) 0.010(2) 0.013(6) 0. 0. 0.
Na1 Na1+ 0.0077(16) 0.010(2) 0.013(6) 0. 0. 0.
Na2 Na1+ 0.032(3) 0.016(4) 0.015(4) 0. 0. 0.
B1 B3+ 0.022(8) 0.007(9) 0.025(13) 0. 0. 0.
B2 B3+ 0.004(5) 0.034(10) 0.016(7) 0. 0. -0.006(5)
O1 O2- 0.041(5) 0.014(5) 0.011(10) 0. 0. 0.
O2 O2- 0.066(7) 0.015(5) 0.009(4) 0. 0. 0.002(3)
O3 O2- 0.005(2) 0.023(3) 0.030(3) 0.0008(17) -0.001(2) -0.003(2)
O4 O2- 0.022(4) 0.052(7) 0.069(9) 0. 0. -0.044(8)
Na3 Na1+ 0.020(7) 0.13(2) 0.054(12) 0. 0. 0.
#End of TTdata_424968-ICSD