
#(C) 2019 by FIZ Karlsruhe - Leibniz Institute for Information Infrastructure.  All rights reserved.
data_424958-ICSD
_database_code_ICSD 424958
_audit_creation_date 2016-08-01
_chemical_name_systematic 'Disodium iron(III) trifluoride sulfate(VI)'
_chemical_formula_structural 'Na2 Fe F3 (S O4)'
_chemical_formula_sum 'F3 Fe1 Na2 O4 S1'
_exptl_crystal_density_diffrn 3.13
_cell_measurement_temperature 100.
_publ_section_title

;
Direct hydrofluorothermal synthesis of sodium transition metal fluorosulfates
as possible Na-ion battery cathode materials
;
loop_
_citation_id
_citation_journal_full
_citation_year
_citation_journal_volume
_citation_page_first
_citation_page_last
_citation_journal_id_ASTM
primary 'Chemical Communications (Cambridge, United Kingdom)' 2013 49 2121 2123
CHCOFS
loop_
_publ_author_name
'Wang, Qianlong'
'Madsen, Alex'
'Owen, John R.'
'Weller, Mark T.'
_cell_length_a 5.654(7)
_cell_length_b 7.357(8)
_cell_length_c 6.888(8)
_cell_angle_alpha 90.
_cell_angle_beta 109.11(2)
_cell_angle_gamma 90.
_cell_volume 270.72
_cell_formula_units_Z 2
_symmetry_space_group_name_H-M 'P 1 21/m 1'
_symmetry_Int_Tables_number 11
_refine_ls_R_factor_all 0.0764
loop_
_symmetry_equiv_pos_site_id
_symmetry_equiv_pos_as_xyz
1 'x, -y+1/2, z'
2 '-x, -y, -z'
3 '-x, y+1/2, -z'
4 'x, y, z'
loop_
_atom_type_symbol
_atom_type_oxidation_number
Na1+ 1
Fe3+ 3
S6+ 6
Na1+ 1
F1- -1
O2- -2
loop_
_atom_site_label
_atom_site_type_symbol
_atom_site_symmetry_multiplicity
_atom_site_Wyckoff_symbol
_atom_site_fract_x
_atom_site_fract_y
_atom_site_fract_z
_atom_site_B_iso_or_equiv
_atom_site_occupancy
_atom_site_attached_hydrogens
Na1 Na1+ 2 d 0.5 0. 0.5 0.0099(8) 1 0
Fe1 Fe3+ 2 a 0. 0. 0. 0.0056(5) 1 0
S1 S6+ 2 e 0.0340(3) 0.25 -0.3804(3) 0.0061(5) 1 0
Na2 Na1+ 2 e 0.5399(7) 0.25 0.0585(8) 0.0253(10) 1 0
F1 F1- 2 e 0.9604(9) 0.25 0.0839(8) 0.0174(11) 1 0
F2 F1- 4 f 0.6494(7) -0.0033(4) 0.8500(5) 0.0084(8) 1 0
O1 O2- 4 f 0.0845(7) 0.0861(5) -0.2442(6) 0.0098(9) 1 0
O2 O2- 2 e 0.7744(9) 0.25 0.4864(9) 0.0098(13) 1 0
O3 O2- 2 e 0.2118(10) 0.25 0.5089(9) 0.0080(12) 1 0
loop_
_atom_site_aniso_label
_atom_site_aniso_type_symbol
_atom_site_aniso_U_11
_atom_site_aniso_U_22
_atom_site_aniso_U_33
_atom_site_aniso_U_12
_atom_site_aniso_U_13
_atom_site_aniso_U_23
Na1 Na1+ 0.0122(18) 0.0120(17) 0.0060(18) -0.0011(11) 0.0036(15) -0.0007(12)
S1 S6+ 0.0072(9) 0.0091(9) 0.0026(9) 0. 0.0023(7) 0.
Na2 Na1+ 0.0269(19) 0.0098(17) 0.051(3) 0. 0.0280(19) 0.
F1 F1- 0.025(3) 0.015(2) 0.015(3) 0. 0.009(2) 0.
F2 F1- 0.0084(17) 0.0108(16) 0.0059(19) -0.0009(10) 0.0021(15) 0.0000(11)
O1 O2- 0.0182(19) 0.0096(19) 0.0051(19) 0.0031(16) 0.0086(16) 0.0001(16)
O2 O2- 0.004(2) 0.013(3) 0.014(3) 0. 0.005(2) 0.
#End of TTdata_424958-ICSD