
#(C) 2019 by FIZ Karlsruhe - Leibniz Institute for Information Infrastructure.  All rights reserved.
data_424955-ICSD
_database_code_ICSD 424955
_audit_creation_date 2016-08-01
_chemical_name_systematic 'Trisodium vanadium(III) difluoride bis(sulfate(VI))'
_chemical_formula_structural 'Na3 V F2 (S O4)2'
_chemical_formula_sum 'F2 Na3 O8 S2 V1'
_chemical_name_structure_type Na3CrF2(SO4)2
_exptl_crystal_density_diffrn 2.87
_cell_measurement_temperature 100.
_publ_section_title

;
Direct hydrofluorothermal synthesis of sodium transition metal fluorosulfates
as possible Na-ion battery cathode materials
;
loop_
_citation_id
_citation_journal_full
_citation_year
_citation_journal_volume
_citation_page_first
_citation_page_last
_citation_journal_id_ASTM
primary 'Chemical Communications (Cambridge, United Kingdom)' 2013 49 2121 2123
CHCOFS
loop_
_publ_author_name
'Wang, Qianlong'
'Madsen, Alex'
'Owen, John R.'
'Weller, Mark T.'
_cell_length_a 8.827(4)
_cell_length_b 13.878(7)
_cell_length_c 6.610(3)
_cell_angle_alpha 90.
_cell_angle_beta 90.
_cell_angle_gamma 90.
_cell_volume 809.73
_cell_formula_units_Z 4
_symmetry_space_group_name_H-M 'P b c n'
_symmetry_Int_Tables_number 60
_refine_ls_R_factor_all 0.0198
loop_
_symmetry_equiv_pos_site_id
_symmetry_equiv_pos_as_xyz
1 'x, -y, z+1/2'
2 '-x+1/2, y+1/2, z'
3 'x+1/2, y+1/2, -z+1/2'
4 '-x, -y, -z'
5 '-x, y, -z+1/2'
6 'x+1/2, -y+1/2, -z'
7 '-x+1/2, -y+1/2, z+1/2'
8 'x, y, z'
loop_
_atom_type_symbol
_atom_type_oxidation_number
F1- -1
O2- -2
Na1+ 1
V3+ 3
S6+ 6
Na1+ 1
loop_
_atom_site_label
_atom_site_type_symbol
_atom_site_symmetry_multiplicity
_atom_site_Wyckoff_symbol
_atom_site_fract_x
_atom_site_fract_y
_atom_site_fract_z
_atom_site_B_iso_or_equiv
_atom_site_occupancy
_atom_site_attached_hydrogens
F1 F1- 8 d 0.93100(11) 0.09790(7) 0.07527(14) 0.0094(2) 1 0
O1 O2- 8 d 0.44548(13) 0.20044(8) -0.05208(17) 0.0074(2) 1 0
O2 O2- 8 d 0.76721(13) 0.11030(8) -0.31574(17) 0.0098(2) 1 0
O3 O2- 8 d 0.64298(14) 0.06196(8) 0.37600(18) 0.0120(3) 1 0
O4 O2- 8 d 0.70737(13) 0.29281(8) -0.11848(18) 0.0098(2) 1 0
Na1 Na1+ 8 d 0.66690(8) 0.09702(5) 0.01835(10) 0.01144(16) 1 0
V1 V3+ 4 c 1. 0.19450(3) 0.25 0.00684(12) 1 0
S1 S6+ 8 d 0.69276(4) 0.14244(3) 0.50091(5) 0.00535(12) 1 0
Na2 Na1+ 4 c 1. -0.04852(7) 0.25 0.0088(2) 1 0
loop_
_atom_site_aniso_label
_atom_site_aniso_type_symbol
_atom_site_aniso_U_11
_atom_site_aniso_U_22
_atom_site_aniso_U_33
_atom_site_aniso_U_12
_atom_site_aniso_U_13
_atom_site_aniso_U_23
F1 F1- 0.0114(5) 0.0077(4) 0.0091(4) -0.0007(4) -0.0007(4) -0.0009(4)
O1 O2- 0.0074(5) 0.0061(5) 0.0087(5) -0.0011(4) 0.0009(4) 0.0019(4)
O2 O2- 0.0120(6) 0.0091(5) 0.0085(5) 0.0028(4) 0.0005(5) 0.0025(4)
O3 O2- 0.0174(6) 0.0054(5) 0.0133(6) -0.0002(5) -0.0009(5) -0.0045(5)
O4 O2- 0.0091(5) 0.0071(5) 0.0132(6) 0.0014(4) -0.0034(4) -0.0047(4)
Na1 Na1+ 0.0120(3) 0.0118(4) 0.0105(3) 0.0024(3) 0.0003(2) -0.0008(3)
V1 V3+ 0.00725(19) 0.00430(19) 0.0090(2) 0. 0.00195(14) 0.
S1 S6+ 0.0073(2) 0.00259(19) 0.00617(19) 0.00015(13) 0.00101(13) -0.00003(12)
Na2 Na1+ 0.0095(4) 0.0072(4) 0.0097(4) 0. -0.0002(3) 0.
#End of TTdata_424955-ICSD