
#(C) 2019 by FIZ Karlsruhe - Leibniz Institute for Information Infrastructure.  All rights reserved.
data_424944-ICSD
_database_code_ICSD 424944
_audit_creation_date 2013-08-01
_chemical_name_systematic
'Tetrasodium dimanganese(III) hexafluoride pyrophosphate'
_chemical_formula_structural 'Na4 Mn2 F6 (P2 O7)'
_chemical_formula_sum 'F6 Mn2 Na4 O7 P2'
_exptl_crystal_density_diffrn 3.2
_cell_measurement_temperature 100.
_publ_section_title 'Manganese(III) fluorophosphate frameworks'
loop_
_citation_id
_citation_journal_full
_citation_year
_citation_journal_volume
_citation_page_first
_citation_page_last
_citation_journal_id_ASTM
primary 'Dalton Transactions' 2013 42 2302 2308 DTARAF
loop_
_publ_author_name
'Armstrong, J.A.'
'Williams, E.R.'
'Weller, M.T.'
_cell_length_a 7.788(7)
_cell_length_b 8.104(7)
_cell_length_c 8.134(7)
_cell_angle_alpha 90.
_cell_angle_beta 97.455(14)
_cell_angle_gamma 90.
_cell_volume 509.03
_cell_formula_units_Z 2
_symmetry_space_group_name_H-M 'P 1 2/n 1'
_symmetry_Int_Tables_number 13
_refine_ls_R_factor_all 0.0838
loop_
_symmetry_equiv_pos_site_id
_symmetry_equiv_pos_as_xyz
1 'x+1/2, -y, z+1/2'
2 '-x+1/2, y, -z+1/2'
3 '-x, -y, -z'
4 'x, y, z'
loop_
_atom_type_symbol
_atom_type_oxidation_number
O2- -2
Mn3+ 3
P5+ 5
Na1+ 1
F1- -1
Na1+ 1
loop_
_atom_site_label
_atom_site_type_symbol
_atom_site_symmetry_multiplicity
_atom_site_Wyckoff_symbol
_atom_site_fract_x
_atom_site_fract_y
_atom_site_fract_z
_atom_site_B_iso_or_equiv
_atom_site_occupancy
_atom_site_attached_hydrogens
O1 O2- 4 g 0.2501(9) 0.9911(9) 0.4377(9) 0.0079(15) 1 0
O2 O2- 2 e 0.25 1.2378(12) 0.25 0.008(2) 1 0
O3 O2- 4 g 0.4748(8) 0.9220(9) 0.7539(8) 0.0056(14) 1 0
O4 O2- 4 g 0.0958(9) 1.2517(9) 0.5044(9) 0.0082(15) 1 0
Mn1 Mn3+ 2 b 0. 1.5 0.5 0.0068(5) 1 0
Mn2 Mn3+ 2 a 0.5 1. 0.5 0.0063(5) 1 0
P1 P5+ 4 g 0.1336(3) 1.1379(3) 0.3674(3) 0.0071(6) 1 0
Na1 Na1+ 2 f -0.25 1.2758(8) 0.25 0.0134(13) 1 0
Na2 Na1+ 2 e -0.25 1.2531(8) -0.25 0.0120(13) 1 0
F1 F1- 4 g -0.0495(7) 1.4924(7) 0.2737(7) 0.0088(12) 1 0
F2 F1- 4 g 0.4870(7) 1.2137(8) 0.5772(7) 0.0089(13) 1 0
F3 F1- 4 g -0.2191(7) 1.4097(7) 0.5204(8) 0.0110(13) 1 0
Na3 Na1+ 2 f 0.25 1.1838(11) 0.75 0.0267(18) 1 0
Na4 Na1+ 2 c 0. 1.5 0. 0.0123(13) 1 0
loop_
_atom_site_aniso_label
_atom_site_aniso_type_symbol
_atom_site_aniso_U_11
_atom_site_aniso_U_22
_atom_site_aniso_U_33
_atom_site_aniso_U_12
_atom_site_aniso_U_13
_atom_site_aniso_U_23
O1 O2- 0.006(3) 0.006(3) 0.013(4) 0.002(3) 0.007(3) 0.001(3)
O4 O2- 0.012(4) 0.007(3) 0.007(4) -0.001(3) 0.003(3) -0.001(3)
Mn1 Mn3+ 0.0059(10) 0.0073(10) 0.0081(11) 0.0000(9) 0.0039(8) -0.0001(9)
Mn2 Mn3+ 0.0044(10) 0.0070(10) 0.0079(11) 0.0006(9) 0.0020(8) -0.0011(9)
P1 P5+ 0.0038(11) 0.0089(12) 0.0091(13) 0.0012(10) 0.0024(9) 0.0010(11)
Na1 Na1+ 0.004(3) 0.018(3) 0.018(3) 0. -0.001(2) 0.
Na2 Na1+ 0.014(3) 0.015(3) 0.006(3) 0. 0.001(2) 0.
F1 F1- 0.010(3) 0.007(3) 0.011(3) 0.001(2) 0.006(2) -0.001(3)
F2 F1- 0.006(3) 0.010(3) 0.011(3) -0.002(2) 0.002(2) -0.003(3)
F3 F1- 0.009(3) 0.011(3) 0.015(3) -0.002(3) 0.007(2) 0.001(3)
Na3 Na1+ 0.013(3) 0.060(6) 0.008(3) 0. 0.004(2) 0.
Na4 Na1+ 0.010(3) 0.014(3) 0.013(3) -0.004(3) 0.004(2) -0.006(3)
#End of TTdata_424944-ICSD