
#(C) 2018 by FIZ Karlsruhe - Leibniz Institute for Information Infrastructure.  All rights reserved.
data_424911-ICSD
_database_code_ICSD 424911
_audit_creation_date 2013-08-01
_chemical_name_systematic 'Calcium lithium dinitridoaluminate'
_chemical_formula_structural 'Ca (Li Al N2)'
_chemical_formula_sum 'Al1 Ca1 Li1 N2'
_exptl_crystal_density_diffrn 2.95
_cell_measurement_temperature 294.
_publ_section_title 'Ca (Li Al N2): A Quaternary Nitridoaluminate'
loop_
_citation_id
_citation_journal_full
_citation_year
_citation_journal_volume
_citation_page_first
_citation_page_last
_citation_journal_id_ASTM
primary 'European Journal of Inorganic Chemistry' 2013 2013 1157 1160 EJICFO
loop_
_publ_author_name
'Pust, Philipp'
'Pagano, Sandro'
'Schnick, Wolfgang'
_cell_length_a 5.7587(12)
_cell_length_b 6.8773(14)
_cell_length_c 5.7960(12)
_cell_angle_alpha 90.
_cell_angle_beta 90.28(3)
_cell_angle_gamma 90.
_cell_volume 229.54
_cell_formula_units_Z 4
_symmetry_space_group_name_H-M 'P 1 21/c 1'
_symmetry_Int_Tables_number 14
_refine_ls_R_factor_all 0.0362
loop_
_symmetry_equiv_pos_site_id
_symmetry_equiv_pos_as_xyz
1 'x, -y+1/2, z+1/2'
2 '-x, -y, -z'
3 '-x, y+1/2, -z+1/2'
4 'x, y, z'
loop_
_atom_type_symbol
_atom_type_oxidation_number
Ca2+ 2
Al3+ 3
N3- -3
Li1+ 1
loop_
_atom_site_label
_atom_site_type_symbol
_atom_site_symmetry_multiplicity
_atom_site_Wyckoff_symbol
_atom_site_fract_x
_atom_site_fract_y
_atom_site_fract_z
_atom_site_B_iso_or_equiv
_atom_site_occupancy
_atom_site_attached_hydrogens
Ca1 Ca2+ 4 e 0.02678(13) 0.37193(11) 0.24055(11) 0.0046(3) 1 0
Al1 Al3+ 4 e -0.37973(19) 0.13947(15) 0.07341(16) 0.0025(3) 1 0
N1 N3- 4 e 0.2674(6) 0.6471(4) 0.1073(5) 0.0041(6) 1 0
N2 N3- 4 e 0.2879(5) 0.1060(4) 0.0648(5) 0.0048(6) 1 0
Li1 Li1+ 4 e 0.3687(12) 0.0980(10) 0.4082(11) 0.0089(12) 1 0
loop_
_atom_site_aniso_label
_atom_site_aniso_type_symbol
_atom_site_aniso_U_11
_atom_site_aniso_U_22
_atom_site_aniso_U_33
_atom_site_aniso_U_12
_atom_site_aniso_U_13
_atom_site_aniso_U_23
Ca1 Ca2+ 0.0051(4) 0.0046(4) 0.0041(4) -0.0017(3) 0.0000(3) 0.0005(2)
Al1 Al3+ 0.0017(6) 0.0028(5) 0.0029(5) -0.0003(4) 0.0005(4) 0.0000(4)
N1 N3- 0.0030(14) 0.0071(13) 0.0023(11) 0.0010(11) 0.0012(11) -0.0001(11)
N2 N3- 0.0036(14) 0.0042(13) 0.0066(13) 0.0003(11) 0.0000(11) -0.0008(11)
#End of TTdata_424911-ICSD