
#(C) 2019 by FIZ Karlsruhe - Leibniz Institute for Information Infrastructure.  All rights reserved.
data_424957-ICSD
_database_code_ICSD 424957
_audit_creation_date 2016-08-01
_chemical_name_systematic 'Trisodium iron(III) difluoride bis(sulfate(VI))'
_chemical_formula_structural 'Na3 Fe F2 (S O4)2'
_chemical_formula_sum 'F2 Fe1 Na3 O8 S2'
_chemical_name_structure_type Na3CrF2(SO4)2
_exptl_crystal_density_diffrn 2.88
_cell_measurement_temperature 100.
_publ_section_title

;
Direct hydrofluorothermal synthesis of sodium transition metal fluorosulfates
as possible Na-ion battery cathode materials
;
loop_
_citation_id
_citation_journal_full
_citation_year
_citation_journal_volume
_citation_page_first
_citation_page_last
_citation_journal_id_ASTM
primary 'Chemical Communications (Cambridge, United Kingdom)' 2013 49 2121 2123
CHCOFS
loop_
_publ_author_name
'Wang, Qianlong'
'Madsen, Alex'
'Owen, John R.'
'Weller, Mark T.'
_cell_length_a 8.8119(4)
_cell_length_b 13.9953(10)
_cell_length_c 6.6332(3)
_cell_angle_alpha 90.
_cell_angle_beta 90.
_cell_angle_gamma 90.
_cell_volume 818.04
_cell_formula_units_Z 4
_symmetry_space_group_name_H-M 'P b c n'
_symmetry_Int_Tables_number 60
_refine_ls_R_factor_all 0.0226
loop_
_symmetry_equiv_pos_site_id
_symmetry_equiv_pos_as_xyz
1 'x, -y, z+1/2'
2 '-x+1/2, y+1/2, z'
3 'x+1/2, y+1/2, -z+1/2'
4 '-x, -y, -z'
5 '-x, y, -z+1/2'
6 'x+1/2, -y+1/2, -z'
7 '-x+1/2, -y+1/2, z+1/2'
8 'x, y, z'
loop_
_atom_type_symbol
_atom_type_oxidation_number
F1- -1
O2- -2
Na1+ 1
Fe3+ 3
S6+ 6
Na1+ 1
loop_
_atom_site_label
_atom_site_type_symbol
_atom_site_symmetry_multiplicity
_atom_site_Wyckoff_symbol
_atom_site_fract_x
_atom_site_fract_y
_atom_site_fract_z
_atom_site_B_iso_or_equiv
_atom_site_occupancy
_atom_site_attached_hydrogens
F1 F1- 8 d 0.92894(13) 0.09514(8) 0.07559(17) 0.0153(3) 1 0
O1 O2- 8 d 0.44313(16) 0.20304(10) -0.0514(2) 0.0139(3) 1 0
O2 O2- 8 d 0.76607(17) 0.11156(12) -0.3136(2) 0.0216(4) 1 0
O3 O2- 8 d 0.64001(17) 0.06375(12) 0.3799(2) 0.0245(4) 1 0
O4 O2- 8 d 0.70444(16) 0.29510(11) -0.1176(2) 0.0201(4) 1 0
Na1 Na1+ 8 d 0.66622(10) 0.09590(8) 0.02091(13) 0.0234(3) 1 0
Fe1 Fe3+ 4 c 1. 0.19342(3) 0.25 0.00868(18) 1 0
S1 S6+ 8 d 0.69219(5) 0.14311(4) 0.50308(6) 0.00989(18) 1 0
Na2 Na1+ 4 c 1. -0.04874(10) 0.25 0.0174(3) 1 0
loop_
_atom_site_aniso_label
_atom_site_aniso_type_symbol
_atom_site_aniso_U_11
_atom_site_aniso_U_22
_atom_site_aniso_U_33
_atom_site_aniso_U_12
_atom_site_aniso_U_13
_atom_site_aniso_U_23
F1 F1- 0.0162(6) 0.0154(6) 0.0141(5) -0.0021(4) -0.0022(4) -0.0031(4)
O1 O2- 0.0088(7) 0.0195(7) 0.0134(6) -0.0022(5) 0.0021(6) 0.0045(5)
O2 O2- 0.0208(8) 0.0291(9) 0.0147(7) 0.0073(6) 0.0002(6) 0.0065(6)
O3 O2- 0.0300(8) 0.0174(7) 0.0263(9) -0.0023(7) -0.0023(7) -0.0104(6)
O4 O2- 0.0133(7) 0.0217(8) 0.0252(8) 0.0017(6) -0.0097(6) -0.0100(6)
Na1 Na1+ 0.0183(5) 0.0322(6) 0.0198(5) 0.0039(4) 0.0003(3) -0.0031(4)
Fe1 Fe3+ 0.0070(3) 0.0102(3) 0.0089(3) 0. -0.00004(12) 0.
S1 S6+ 0.0092(3) 0.0106(3) 0.0099(3) -0.00005(16) 0.00200(15) -0.00008(14)
Na2 Na1+ 0.0167(6) 0.0207(6) 0.0149(6) 0. -0.0015(4) 0.
#End of TTdata_424957-ICSD