
#(C) 2019 by FIZ Karlsruhe - Leibniz Institute for Information Infrastructure.  All rights reserved.
data_424956-ICSD
_database_code_ICSD 424956
_audit_creation_date 2016-08-01
_chemical_name_systematic 'Trisodium manganese(III) difluoride bis(sulfate(VI))'
_chemical_formula_structural 'Na3 Mn F2 (S O4)2'
_chemical_formula_sum 'F2 Mn1 Na3 O8 S2'
_chemical_name_structure_type Na3CrF2(SO4)2
_exptl_crystal_density_diffrn 2.9
_cell_measurement_temperature 100.
_publ_section_title

;
Direct hydrofluorothermal synthesis of sodium transition metal fluorosulfates
as possible Na-ion battery cathode materials
;
loop_
_citation_id
_citation_journal_full
_citation_year
_citation_journal_volume
_citation_page_first
_citation_page_last
_citation_journal_id_ASTM
primary 'Chemical Communications (Cambridge, United Kingdom)' 2013 49 2121 2123
CHCOFS
loop_
_publ_author_name
'Wang, Qianlong'
'Madsen, Alex'
'Owen, John R.'
'Weller, Mark T.'
_cell_length_a 8.9311(11)
_cell_length_b 13.5739(17)
_cell_length_c 6.6991(8)
_cell_angle_alpha 90.
_cell_angle_beta 90.
_cell_angle_gamma 90.
_cell_volume 812.13
_cell_formula_units_Z 4
_symmetry_space_group_name_H-M 'P b c n'
_symmetry_Int_Tables_number 60
_refine_ls_R_factor_all 0.049
loop_
_symmetry_equiv_pos_site_id
_symmetry_equiv_pos_as_xyz
1 'x, -y, z+1/2'
2 '-x+1/2, y+1/2, z'
3 'x+1/2, y+1/2, -z+1/2'
4 '-x, -y, -z'
5 '-x, y, -z+1/2'
6 'x+1/2, -y+1/2, -z'
7 '-x+1/2, -y+1/2, z+1/2'
8 'x, y, z'
loop_
_atom_type_symbol
_atom_type_oxidation_number
F1- -1
O2- -2
Na1+ 1
Mn3+ 3
S6+ 6
Na1+ 1
loop_
_atom_site_label
_atom_site_type_symbol
_atom_site_symmetry_multiplicity
_atom_site_Wyckoff_symbol
_atom_site_fract_x
_atom_site_fract_y
_atom_site_fract_z
_atom_site_B_iso_or_equiv
_atom_site_occupancy
_atom_site_attached_hydrogens
F1 F1- 8 d 0.9301(8) 0.0930(5) 0.0843(9) 0.0312(16) 1 0
O1 O2- 8 d 0.4466(12) 0.2099(8) -0.0701(15) 0.053(3) 1 0
O2 O2- 8 d 0.7550(13) 0.1073(7) -0.2997(12) 0.043(3) 1 0
O3 O2- 8 d 0.6334(16) 0.0725(8) 0.3847(18) 0.063(3) 1 0
O4 O2- 8 d 0.7065(13) 0.2865(8) -0.069(2) 0.051(4) 1 0
Na1 Na1+ 8 d 0.6667(5) 0.0934(3) 0.0322(6) 0.0212(9) 1 0
Mn1 Mn3+ 4 c 1. 0.19013(12) 0.25 0.0088(5) 1 0
S1 S6+ 8 d 0.6878(2) 0.14564(15) 0.5233(3) 0.0131(6) 1 0
Na2 Na1+ 4 c 1. -0.0628(4) 0.25 0.0207(12) 1 0
loop_
_atom_site_aniso_label
_atom_site_aniso_type_symbol
_atom_site_aniso_U_11
_atom_site_aniso_U_22
_atom_site_aniso_U_33
_atom_site_aniso_U_12
_atom_site_aniso_U_13
_atom_site_aniso_U_23
F1 F1- 0.043(4) 0.031(3) 0.019(3) -0.025(3) -0.005(3) -0.002(3)
O1 O2- 0.054(6) 0.065(6) 0.039(5) -0.028(5) -0.016(5) 0.035(5)
O2 O2- 0.066(7) 0.047(5) 0.017(4) 0.034(5) 0.008(4) 0.005(4)
O3 O2- 0.087(8) 0.036(6) 0.065(7) -0.007(6) -0.002(7) -0.028(6)
O4 O2- 0.051(6) 0.040(6) 0.062(9) 0.007(5) -0.034(7) -0.013(6)
Na1 Na1+ 0.021(2) 0.024(2) 0.0185(18) -0.0036(16) -0.0045(16) -0.0044(15)
Mn1 Mn3+ 0.0077(9) 0.0098(9) 0.0090(9) 0. -0.0024(6) 0.
S1 S6+ 0.0160(11) 0.0113(10) 0.0120(10) -0.0025(7) 0.0052(8) -0.0032(7)
Na2 Na1+ 0.029(3) 0.019(3) 0.014(3) 0. 0.001(2) 0.
#End of TTdata_424956-ICSD