
#(C) 2019 by FIZ Karlsruhe - Leibniz Institute for Information Infrastructure.  All rights reserved.
data_424959-ICSD
_database_code_ICSD 424959
_audit_creation_date 2016-08-01
_chemical_name_systematic
'Pentasodium trimanganese(II,III) tetrafluoride tetrakis(sulfate(VI))'
_chemical_formula_structural 'Na5 Mn3 F4 (S O4)4'
_chemical_formula_sum 'F4 Mn3 Na5 O16 S4'
_exptl_crystal_density_diffrn 3.15
_cell_measurement_temperature 100.
_publ_section_title

;
Direct hydrofluorothermal synthesis of sodium transition metal fluorosulfates
as possible Na-ion battery cathode materials
;
loop_
_citation_id
_citation_journal_full
_citation_year
_citation_journal_volume
_citation_page_first
_citation_page_last
_citation_journal_id_ASTM
primary 'Chemical Communications (Cambridge, United Kingdom)' 2013 49 2121 2123
CHCOFS
loop_
_publ_author_name
'Wang, Qianlong'
'Madsen, Alex'
'Owen, John R.'
'Weller, Mark T.'
_cell_length_a 6.618(5)
_cell_length_b 6.672(5)
_cell_length_c 8.941(7)
_cell_angle_alpha 94.562(12)
_cell_angle_beta 96.813(16)
_cell_angle_gamma 92.382(11)
_cell_volume 390.24
_cell_formula_units_Z 1
_symmetry_space_group_name_H-M 'P -1'
_symmetry_Int_Tables_number 2
_refine_ls_R_factor_all 0.0232
loop_
_symmetry_equiv_pos_site_id
_symmetry_equiv_pos_as_xyz
1 '-x, -y, -z'
2 'x, y, z'
loop_
_atom_type_symbol
_atom_type_oxidation_number
Na1+ 1
O2- -2
Mn3+ 3
Mn2+ 2
S6+ 6
Na1+ 1
F1- -1
O2- -2
loop_
_atom_site_label
_atom_site_type_symbol
_atom_site_symmetry_multiplicity
_atom_site_Wyckoff_symbol
_atom_site_fract_x
_atom_site_fract_y
_atom_site_fract_z
_atom_site_B_iso_or_equiv
_atom_site_occupancy
_atom_site_attached_hydrogens
Na1 Na1+ 1 d 0.5 0. 0. 0.0078(2) 1 0
Na2 Na1+ 2 i 0.03538(13) 0.26286(12) -0.01815(9) 0.00936(18) 1 0
O1 O2- 2 i 0.0667(2) -0.3924(2) -0.21660(16) 0.0082(3) 1 0
Mn1 Mn3+ 1 e 0.5 0.5 0. 0.00458(10) 1 0
Mn2 Mn2+ 2 i 0.27148(5) 0.16225(5) -0.35761(3) 0.00511(8) 1 0
S1 S6+ 2 i -0.22288(7) 0.04434(7) -0.29710(5) 0.00520(11) 1 0
S2 S6+ 2 i 0.25240(7) -0.34433(7) -0.28116(5) 0.00489(11) 1 0
Na3 Na1+ 2 i 0.73830(13) 0.50625(13) -0.33914(9) 0.00930(18) 1 0
F1 F1- 2 i 0.26104(18) 0.54125(18) 0.08095(13) 0.0071(2) 1 0
F2 F1- 2 i 0.33896(17) 0.24554(17) -0.12028(13) 0.0067(2) 1 0
O2 O2- 2 i -0.0407(2) 0.1740(2) -0.31473(16) 0.0077(3) 1 0
O3 O2- 2 i 0.5982(2) 0.1633(2) -0.33695(15) 0.0072(3) 1 0
O4 O2- 2 i 0.2349(2) 0.1424(2) -0.60095(15) 0.0075(3) 1 0
O5 O2- 2 i 0.2476(2) -0.1563(2) -0.35171(16) 0.0087(3) 1 0
O6 O2- 2 i 0.4293(2) 0.6810(2) -0.15510(16) 0.0073(3) 1 0
O7 O2- 2 i 0.3004(2) 0.4901(2) -0.38993(16) 0.0083(3) 1 0
O8 O2- 2 i -0.2096(2) -0.0059(2) -0.13886(16) 0.0082(3) 1 0
loop_
_atom_site_aniso_label
_atom_site_aniso_type_symbol
_atom_site_aniso_U_11
_atom_site_aniso_U_22
_atom_site_aniso_U_33
_atom_site_aniso_U_12
_atom_site_aniso_U_13
_atom_site_aniso_U_23
Na1 Na1+ 0.0085(6) 0.0064(6) 0.0089(5) 0.0022(5) 0.0015(4) 0.0008(4)
Na2 Na1+ 0.0078(4) 0.0101(4) 0.0098(4) -0.0003(3) 0.0018(3) -0.0019(3)
O1 O2- 0.0059(7) 0.0100(7) 0.0085(7) -0.0011(6) 0.0016(6) 0.0000(5)
Mn1 Mn3+ 0.0045(2) 0.0050(2) 0.00434(19) 0.00021(16) 0.00078(16) 0.00049(15)
Mn2 Mn2+ 0.00512(16) 0.00489(15) 0.00526(15) 0.00011(12) 0.00069(11)
-0.00003(10)
S1 S6+ 0.0049(2) 0.0051(2) 0.0054(2) -0.00009(18) 0.00059(18) -0.00026(16)
S2 S6+ 0.0051(2) 0.0046(2) 0.0048(2) 0.00022(18) 0.00027(17) -0.00001(16)
Na3 Na1+ 0.0103(4) 0.0092(4) 0.0080(4) -0.0013(3) -0.0001(3) 0.0014(3)
F1 F1- 0.0067(6) 0.0080(6) 0.0069(5) 0.0009(5) 0.0024(4) -0.0003(4)
F2 F1- 0.0068(6) 0.0072(6) 0.0060(5) -0.0005(5) 0.0007(4) 0.0003(4)
O2 O2- 0.0045(7) 0.0083(7) 0.0105(7) -0.0001(6) 0.0016(5) 0.0008(5)
O3 O2- 0.0044(7) 0.0077(7) 0.0094(7) 0.0012(6) 0.0004(6) 0.0008(5)
O4 O2- 0.0092(7) 0.0069(7) 0.0060(7) 0.0000(6) 0.0004(6) -0.0012(5)
O5 O2- 0.0101(8) 0.0058(7) 0.0104(7) 0.0009(6) 0.0009(6) 0.0018(5)
O6 O2- 0.0068(7) 0.0072(7) 0.0076(7) -0.0011(6) -0.0007(5) 0.0015(5)
O7 O2- 0.0115(8) 0.0071(7) 0.0066(7) 0.0007(6) 0.0026(6) -0.0003(5)
O8 O2- 0.0091(7) 0.0092(7) 0.0063(7) 0.0002(6) 0.0009(6) 0.0006(5)
#End of TTdata_424959-ICSD