
#(C) 2019 by FIZ Karlsruhe - Leibniz Institute for Information Infrastructure.  All rights reserved.
data_425176-ICSD
_database_code_ICSD 425176
_audit_creation_date 2015-02-01
_chemical_name_systematic 'Pentasodium tetrakis(sulfato)borate - I'
_chemical_formula_structural 'Na5 (B (S O4)4)'
_chemical_formula_sum 'B1 Na5 O16 S4'
_exptl_crystal_density_diffrn 2.5
_cell_measurement_temperature 293.
_publ_section_title

;
Exploring a new structure family: Alkali borosulfates Na5[B(SO4)4],
A3[B(SO4)3] (A = K, Rb), Li[B(SO4)2], and Li[B(S2O7)2]
;
loop_
_citation_id
_citation_journal_full
_citation_year
_citation_journal_volume
_citation_page_first
_citation_page_last
_citation_journal_id_ASTM
primary 'Inorganic Chemistry' 2013 52 6011 6020 INOCAJ
loop_
_publ_author_name
'Daub, Michael'
'Kazmierczak, Karolina'
'Gross, Peter'
'Hoeppe, Henning'
'Hillebrecht, Harald'
_cell_length_a 10.730(2)
_cell_length_b 13.891(3)
_cell_length_c 18.197(4)
_cell_angle_alpha 90.
_cell_angle_beta 90.
_cell_angle_gamma 90.
_cell_volume 2712.27
_cell_formula_units_Z 8
_symmetry_space_group_name_H-M 'P c a 21'
_symmetry_Int_Tables_number 29
_refine_ls_R_factor_all 0.0345
loop_
_symmetry_equiv_pos_site_id
_symmetry_equiv_pos_as_xyz
1 'x+1/2, -y, z'
2 '-x+1/2, y, z+1/2'
3 '-x, -y, z+1/2'
4 'x, y, z'
loop_
_atom_type_symbol
_atom_type_oxidation_number
Na1+ 1
S6+ 6
O2- -2
S6+ 6
O2- -2
S6+ 6
O2- -2
S6+ 6
O2- -2
S6+ 6
O2- -2
S6+ 6
O2- -2
S6+ 6
O2- -2
S6+ 6
O2- -2
B3+ 3
O2- -2
B3+ 3
O2- -2
loop_
_atom_site_label
_atom_site_type_symbol
_atom_site_symmetry_multiplicity
_atom_site_Wyckoff_symbol
_atom_site_fract_x
_atom_site_fract_y
_atom_site_fract_z
_atom_site_B_iso_or_equiv
_atom_site_occupancy
_atom_site_attached_hydrogens
Na1 Na1+ 4 a 0.52438(18) 0.86823(15) 0.58945(13) 0.0289(5) 1 0
Na2 Na1+ 4 a 0.72858(17) 0.37335(13) 0.83034(12) 0.0231(4) 1 0
Na3 Na1+ 4 a 0.76061(18) 0.62813(15) 0.85427(14) 0.0322(5) 1 0
Na4 Na1+ 4 a 0.72910(19) 0.86408(15) 0.88768(11) 0.0269(4) 1 0
Na5 Na1+ 4 a 0.19459(19) 0.86018(14) 0.87654(11) 0.0272(4) 1 0
Na6 Na1+ 4 a 0.26923(17) 0.73043(14) 0.53651(13) 0.0275(4) 1 0
Na7 Na1+ 4 a 0.50294(18) 0.75990(14) 0.78009(13) 0.0266(4) 1 0
Na8 Na1+ 4 a 0.00370(17) 0.87145(13) 0.58496(12) 0.0259(4) 1 0
Na9 Na1+ 4 a 0.5142(2) 0.35344(16) 0.63555(13) 0.0372(5) 1 0
Na10 Na1+ 4 a 0.58833(18) 0.62543(14) 0.62551(11) 0.0266(4) 1 0
S1 S6+ 4 a 0.47793(9) 0.68835(7) 0.94585(6) 0.0138(2) 1 0
O1 O2- 4 a 0.4674(4) 0.7302(3) 1.01801(19) 0.0303(8) 1 0
O2 O2- 4 a 0.3735(3) 0.7163(3) 0.9008(3) 0.0443(11) 1 0
O3 O2- 4 a 0.5946(3) 0.7073(2) 0.9102(2) 0.0265(8) 1 0
S2 S6+ 4 a 0.48555(9) 0.30649(7) 0.95251(6) 0.0140(2) 1 0
O4 O2- 4 a 0.3784(3) 0.2594(2) 0.9224(2) 0.0281(8) 1 0
O5 O2- 4 a 0.5042(3) 0.2849(2) 1.03010(18) 0.0229(7) 1 0
O6 O2- 4 a 0.6010(3) 0.2903(2) 0.91296(19) 0.0251(7) 1 0
S3 S6+ 4 a 0.50775(10) 0.50729(8) 0.78799(6) 0.0144(2) 1 0
O7 O2- 4 a 0.5512(3) 0.4241(2) 0.74886(19) 0.0268(7) 1 0
O8 O2- 4 a 0.3767(3) 0.5030(2) 0.80739(18) 0.0232(7) 1 0
O9 O2- 4 a 0.5431(3) 0.5968(2) 0.75430(19) 0.0260(7) 1 0
S4 S6+ 4 a 0.67230(9) 0.49911(8) 1.06415(6) 0.0175(2) 1 0
O10 O2- 4 a 0.7564(3) 0.4219(3) 1.0839(2) 0.0316(8) 1 0
O11 O2- 4 a 0.5507(3) 0.4910(3) 1.09798(18) 0.0251(7) 1 0
O12 O2- 4 a 0.7224(4) 0.5935(3) 1.0760(2) 0.0347(9) 1 0
S5 S6+ 4 a 0.44942(9) 0.99213(8) 0.81909(6) 0.0161(2) 1 0
O13 O2- 4 a 0.3271(3) 0.9875(3) 0.85257(18) 0.0261(7) 1 0
O14 O2- 4 a 0.5227(3) 0.9071(3) 0.8334(2) 0.0301(8) 1 0
O15 O2- 4 a 0.5119(4) 1.0802(3) 0.8369(2) 0.0361(9) 1 0
S6 S6+ 4 a 0.25445(11) 0.80994(7) 0.69734(6) 0.0138(2) 1 0
O16 O2- 4 a 0.1589(3) 0.7760(2) 0.6485(2) 0.0260(7) 1 0
O17 O2- 4 a 0.3784(3) 0.7959(2) 0.66683(19) 0.0247(7) 1 0
O18 O2- 4 a 0.2472(3) 0.7690(2) 0.77002(18) 0.0290(8) 1 0
S7 S6+ 4 a 0.26027(10) 1.19070(7) 0.70445(6) 0.0136(2) 1 0
O19 O2- 4 a 0.1547(3) 1.2236(3) 0.6616(2) 0.0309(8) 1 0
O20 O2- 4 a 0.3789(3) 1.2082(2) 0.6704(2) 0.0260(8) 1 0
O21 O2- 4 a 0.2512(3) 1.2281(2) 0.7785(2) 0.0285(8) 1 0
S8 S6+ 4 a 0.28026(9) 0.99161(7) 0.54304(6) 0.0143(2) 1 0
O22 O2- 4 a 0.1491(3) 0.9987(2) 0.56197(18) 0.0214(6) 1 0
O23 O2- 4 a 0.3254(3) 1.0721(2) 0.50063(19) 0.0258(7) 1 0
O24 O2- 4 a 0.3131(3) 0.8992(2) 0.51223(19) 0.0250(7) 1 0
B1 B3+ 4 a 0.5382(4) 0.4974(4) 0.9382(2) 0.0135(8) 1 0
O25 O2- 4 a 0.4524(3) 0.4158(2) 0.94652(18) 0.0168(6) 1 0
O26 O2- 4 a 0.4622(3) 0.5791(2) 0.9587(2) 0.0233(7) 1 0
O27 O2- 4 a 0.6545(3) 0.4872(3) 0.97954(18) 0.0259(7) 1 0
O28 O2- 4 a 0.5859(2) 0.5044(2) 0.86164(16) 0.0160(5) 1 0
B2 B3+ 4 a 0.3144(4) 0.9985(3) 0.6941(2) 0.0128(7) 1 0
O29 O2- 4 a 0.2382(3) 1.0811(2) 0.7115(2) 0.0224(7) 1 0
O30 O2- 4 a 0.4312(3) 0.9925(3) 0.73365(18) 0.0246(7) 1 0
O31 O2- 4 a 0.2286(3) 0.9180(2) 0.70667(19) 0.0181(6) 1 0
O32 O2- 4 a 0.3595(2) 0.9988(2) 0.61573(16) 0.0165(5) 1 0
loop_
_atom_site_aniso_label
_atom_site_aniso_type_symbol
_atom_site_aniso_U_11
_atom_site_aniso_U_22
_atom_site_aniso_U_33
_atom_site_aniso_U_12
_atom_site_aniso_U_13
_atom_site_aniso_U_23
Na1 Na1+ 0.0214(9) 0.0224(9) 0.0428(13) 0.0000(7) 0.0008(8) 0.0066(9)
Na2 Na1+ 0.0197(8) 0.0189(9) 0.0307(11) 0.0017(7) 0.0039(8) 0.0000(8)
Na3 Na1+ 0.0204(9) 0.0246(10) 0.0517(14) 0.0002(7) 0.0033(9) -0.0098(10)
Na4 Na1+ 0.0348(10) 0.0267(10) 0.0192(9) 0.0041(8) -0.0014(8) -0.0043(8)
Na5 Na1+ 0.0307(10) 0.0260(10) 0.0249(11) -0.0025(8) 0.0049(8) -0.0006(8)
Na6 Na1+ 0.0231(9) 0.0290(10) 0.0305(11) 0.0012(7) 0.0053(8) 0.0000(9)
Na7 Na1+ 0.0273(9) 0.0260(10) 0.0264(11) 0.0012(8) -0.0017(8) 0.0001(9)
Na8 Na1+ 0.0219(9) 0.0191(9) 0.0366(12) 0.0023(7) 0.0060(8) 0.0018(8)
Na9 Na1+ 0.0578(14) 0.0298(11) 0.0239(11) 0.0161(10) -0.0095(10) -0.0080(9)
Na10 Na1+ 0.0284(9) 0.0291(10) 0.0224(10) -0.0078(8) -0.0030(8) 0.0013(8)
S1 S6+ 0.0136(5) 0.0146(5) 0.0133(6) 0.0008(3) 0.0000(4) -0.0013(4)
O1 O2- 0.047(2) 0.0260(19) 0.0179(18) -0.0088(15) 0.0118(15) -0.0057(14)
O2 O2- 0.0296(19) 0.042(2) 0.062(3) -0.0049(16) -0.0265(19) 0.017(2)
O3 O2- 0.0241(16) 0.0214(16) 0.034(2) -0.0027(13) 0.0141(14) 0.0017(14)
S2 S6+ 0.0130(5) 0.0147(5) 0.0142(6) 0.0006(3) 0.0001(4) 0.0004(4)
O4 O2- 0.0224(16) 0.0221(16) 0.040(2) -0.0036(13) -0.0068(14) -0.0060(15)
O5 O2- 0.0299(16) 0.0255(17) 0.0134(17) 0.0058(13) -0.0003(12) 0.0043(13)
O6 O2- 0.0240(16) 0.0218(16) 0.0295(19) 0.0057(13) 0.0133(14) 0.0017(14)
S3 S6+ 0.0164(4) 0.0148(5) 0.0120(5) 0.0009(4) 0.0002(3) 0.0002(4)
O7 O2- 0.0357(18) 0.0249(17) 0.0199(17) 0.0068(14) -0.0081(14) -0.0086(14)
O8 O2- 0.0143(13) 0.0323(17) 0.0228(16) 0.0007(13) 0.0004(11) 0.0044(14)
O9 O2- 0.0363(18) 0.0225(16) 0.0190(17) -0.0040(14) -0.0016(14) 0.0061(13)
S4 S6+ 0.0186(4) 0.0194(5) 0.0146(5) -0.0016(4) -0.0020(4) -0.0024(4)
O10 O2- 0.0319(19) 0.039(2) 0.024(2) 0.0083(15) -0.0055(14) 0.0045(16)
O11 O2- 0.0249(15) 0.0332(18) 0.0171(16) -0.0025(14) 0.0071(12) -0.0029(15)
O12 O2- 0.045(2) 0.0245(18) 0.035(2) -0.0107(15) -0.0023(17) -0.0023(16)
S5 S6+ 0.0161(4) 0.0187(5) 0.0133(5) 0.0005(4) -0.0017(4) -0.0012(4)
O13 O2- 0.0188(15) 0.043(2) 0.0163(16) -0.0002(14) 0.0047(12) 0.0007(15)
O14 O2- 0.037(2) 0.0247(18) 0.029(2) 0.0090(14) 0.0009(16) 0.0034(15)
O15 O2- 0.045(2) 0.0290(19) 0.034(2) -0.0122(16) 0.0003(17) -0.0082(17)
S6 S6+ 0.0149(5) 0.0141(5) 0.0123(6) -0.0010(3) 0.0003(4) 0.0012(4)
O16 O2- 0.0248(16) 0.0280(17) 0.0253(18) -0.0019(13) -0.0078(13) -0.0090(14)
O17 O2- 0.0192(15) 0.0225(16) 0.032(2) 0.0043(12) 0.0101(14) -0.0010(14)
O18 O2- 0.048(2) 0.0230(17) 0.0154(19) 0.0021(14) 0.0037(15) 0.0056(14)
S7 S6+ 0.0130(5) 0.0138(5) 0.0140(6) 0.0014(3) 0.0005(4) 0.0001(4)
O19 O2- 0.0263(17) 0.0312(18) 0.035(2) 0.0002(14) -0.0103(15) 0.0086(15)
O20 O2- 0.0216(16) 0.0221(16) 0.034(2) -0.0030(12) 0.0120(14) 0.0004(14)
O21 O2- 0.0401(19) 0.0278(18) 0.0177(18) -0.0015(14) 0.0024(15) -0.0054(15)
S8 S6+ 0.0151(4) 0.0152(5) 0.0125(5) 0.0003(4) 0.0000(4) 0.0015(4)
O22 O2- 0.0162(12) 0.0286(15) 0.0193(15) 0.0012(14) -0.0015(11) -0.0013(14)
O23 O2- 0.0319(17) 0.0268(17) 0.0187(17) -0.0058(14) -0.0028(13) 0.0102(14)
O24 O2- 0.0312(17) 0.0238(16) 0.0199(17) 0.0038(13) -0.0047(14) -0.0046(13)
B1 B3+ 0.0122(16) 0.0179(19) 0.010(2) -0.0014(17) 0.0031(14) -0.0004(19)
O25 O2- 0.0126(13) 0.0155(14) 0.0223(17) 0.0006(10) 0.0017(12) 0.0038(12)
O26 O2- 0.0248(15) 0.0147(14) 0.030(2) 0.0012(12) 0.0138(15) -0.0012(14)
O27 O2- 0.0154(12) 0.048(2) 0.0144(16) -0.0025(14) -0.0014(11) -0.0029(15)
O28 O2- 0.0140(12) 0.0226(14) 0.0115(13) -0.0003(12) 0.0011(10) 0.0028(13)
B2 B3+ 0.0142(17) 0.0151(18) 0.0090(19) 0.0013(18) 0.0004(13) 0.0000(19)
O29 O2- 0.0177(15) 0.0154(15) 0.034(2) 0.0034(11) 0.0104(14) -0.0023(14)
O30 O2- 0.0134(13) 0.045(2) 0.0153(15) -0.0002(14) 0.0003(11) -0.0004(15)
O31 O2- 0.0133(13) 0.0145(14) 0.0267(18) -0.0009(11) 0.0024(13) 0.0013(13)
O32 O2- 0.0122(11) 0.0268(14) 0.0105(13) -0.0006(12) 0.0017(10) 0.0015(13)
#End of TTdata_425176-ICSD