
#(C) 2018 by FIZ Karlsruhe - Leibniz Institute for Information Infrastructure.  All rights reserved.
data_425175-ICSD
_database_code_ICSD 425175
_audit_creation_date 2015-02-01
_chemical_name_systematic 'Lithium bis(disulfato)borate'
_chemical_formula_structural 'Li (B (S2 O7)2)'
_chemical_formula_sum 'B1 Li1 O14 S4'
_exptl_crystal_density_diffrn 2.34
_cell_measurement_temperature 150.
_publ_section_title

;
Exploring a new structure family: Alkali borosulfates Na5[B(SO4)4],
A3[B(SO4)3] (A = K, Rb), Li[B(SO4)2], and Li[B(S2O7)2]
;
loop_
_citation_id
_citation_journal_full
_citation_year
_citation_journal_volume
_citation_page_first
_citation_page_last
_citation_journal_id_ASTM
primary 'Inorganic Chemistry' 2013 52 6011 6020 INOCAJ
loop_
_publ_author_name
'Daub, Michael'
'Kazmierczak, Karolina'
'Gross, Peter'
'Hoeppe, Henning'
'Hillebrecht, Harald'
_cell_length_a 10.863(2)
_cell_length_b 10.877(2)
_cell_length_c 17.769(4)
_cell_angle_alpha 90.
_cell_angle_beta 90.
_cell_angle_gamma 90.
_cell_volume 2099.52
_cell_formula_units_Z 8
_symmetry_space_group_name_H-M 'P 21 21 21'
_symmetry_Int_Tables_number 19
_refine_ls_R_factor_all 0.0335
loop_
_symmetry_equiv_pos_site_id
_symmetry_equiv_pos_as_xyz
1 '-x, y+1/2, -z+1/2'
2 'x+1/2, -y+1/2, -z'
3 '-x+1/2, -y, z+1/2'
4 'x, y, z'
loop_
_atom_type_symbol
_atom_type_oxidation_number
Li1+ 1
S6+ 6
O2- -2
S6+ 6
O2- -2
S6+ 6
O2- -2
S6+ 6
O2- -2
S6+ 6
O2- -2
S6+ 6
O2- -2
S6+ 6
O2- -2
S6+ 6
O2- -2
B3+ 3
loop_
_atom_site_label
_atom_site_type_symbol
_atom_site_symmetry_multiplicity
_atom_site_Wyckoff_symbol
_atom_site_fract_x
_atom_site_fract_y
_atom_site_fract_z
_atom_site_B_iso_or_equiv
_atom_site_occupancy
_atom_site_attached_hydrogens
Li1 Li1+ 4 a 1.1072(8) 0.6379(9) 0.4063(5) 0.0224(19) 1 0
Li2 Li1+ 4 a 0.6197(8) 0.1546(9) 0.3456(6) 0.023(2) 1 0
S1 S6+ 4 a 0.84040(12) 0.83878(11) 0.03831(7) 0.0149(3) 1 0
O1 O2- 4 a 0.8490(4) 0.8164(5) -0.0379(2) 0.0461(14) 1 0
O2 O2- 4 a 0.8551(5) 0.9578(4) 0.0662(3) 0.0428(12) 1 0
S2 S6+ 4 a 0.68056(14) 0.73327(15) 0.14457(8) 0.0277(3) 1 0
O3 O2- 4 a 0.5657(3) 0.6772(4) 0.1393(2) 0.0246(9) 1 0
O4 O2- 4 a 0.7107(6) 0.8204(5) 0.1975(3) 0.0548(15) 1 0
S3 S6+ 4 a 0.09184(12) 0.59248(12) 0.21414(7) 0.0155(3) 1 0
O5 O2- 4 a 0.1892(3) 0.6357(4) 0.1685(2) 0.0247(9) 1 0
O6 O2- 4 a 0.1078(4) 0.5846(4) 0.2929(2) 0.0328(10) 1 0
S4 S6+ 4 a 0.01469(14) 0.42602(13) 0.10296(8) 0.0252(3) 1 0
O7 O2- 4 a 0.1232(4) 0.4132(5) 0.0586(2) 0.0403(12) 1 0
O8 O2- 4 a -0.0672(4) 0.3260(4) 0.1100(2) 0.0307(10) 1 0
S5 S6+ 4 a 0.72257(13) 0.42153(12) 0.30831(7) 0.0173(3) 1 0
O9 O2- 4 a 0.7868(5) 0.3943(4) 0.2423(3) 0.0396(12) 1 0
O10 O2- 4 a 0.6270(4) 0.3451(4) 0.3327(2) 0.0273(9) 1 0
S6 S6+ 4 a 0.83473(12) 0.52715(12) 0.43773(8) 0.0182(3) 1 0
O11 O2- 4 a 0.8644(4) 0.4658(5) 0.5042(3) 0.0408(12) 1 0
O12 O2- 4 a 0.9128(4) 0.6161(4) 0.4065(2) 0.0252(9) 1 0
S7 S6+ 4 a 0.40362(11) 0.67389(11) 0.35465(7) 0.0138(2) 1 0
O13 O2- 4 a 0.2971(3) 0.6669(4) 0.3984(2) 0.0258(9) 1 0
O14 O2- 4 a 0.4004(4) 0.6486(4) 0.2771(2) 0.0251(8) 1 0
S8 S6+ 4 a 0.58575(12) 0.85079(11) 0.39318(7) 0.0143(2) 1 0
O15 O2- 4 a 0.6110(4) 0.9640(3) 0.3585(2) 0.0272(9) 1 0
O16 O2- 4 a 0.5856(4) 0.8394(4) 0.4718(2) 0.0291(9) 1 0
O17 O2- 4 a 0.9251(4) 0.7553(4) 0.0827(3) 0.0443(13) 1 0
O18 O2- 4 a 0.7759(4) 0.6265(4) 0.1429(3) 0.0345(10) 1 0
O19 O2- 4 a -0.0276(4) 0.6586(4) 0.1980(2) 0.0302(10) 1 0
O20 O2- 4 a -0.0457(4) 0.5437(4) 0.0810(2) 0.0400(11) 1 0
O21 O2- 4 a 0.6814(4) 0.5559(3) 0.3064(2) 0.0201(8) 1 0
O22 O2- 4 a 0.7022(3) 0.5749(4) 0.4415(2) 0.0221(8) 1 0
O23 O2- 4 a 0.5072(3) 0.6020(3) 0.3930(2) 0.0175(8) 1 0
O24 O2- 4 a 0.6640(3) 0.7508(3) 0.3575(2) 0.0175(8) 1 0
O25 O2- 4 a 0.7052(3) 0.7903(4) 0.0611(2) 0.0196(8) 1 0
O26 O2- 4 a 0.0572(3) 0.4552(3) 0.1884(2) 0.0179(8) 1 0
O27 O2- 4 a 0.8249(5) 0.4237(5) 0.3735(4) 0.0517(13) 1 0
O28 O2- 4 a 0.4505(4) 0.8151(3) 0.3629(3) 0.0310(11) 1 0
B1 B3+ 4 a 0.9037(6) 0.6464(6) 0.1272(4) 0.0228(11) 1 0
B2 B3+ 4 a 0.6392(5) 0.6210(5) 0.3747(4) 0.0146(10) 1 0
loop_
_atom_site_aniso_label
_atom_site_aniso_type_symbol
_atom_site_aniso_U_11
_atom_site_aniso_U_22
_atom_site_aniso_U_33
_atom_site_aniso_U_12
_atom_site_aniso_U_13
_atom_site_aniso_U_23
Li1 Li1+ 0.014(4) 0.028(5) 0.025(5) -0.001(4) -0.007(4) 0.005(4)
Li2 Li1+ 0.010(4) 0.027(5) 0.031(5) 0.002(4) -0.003(4) -0.004(4)
S1 S6+ 0.0168(6) 0.0139(6) 0.0140(6) -0.0009(5) 0.0014(5) 0.0017(5)
O1 O2- 0.038(3) 0.085(4) 0.015(2) -0.023(3) 0.009(2) -0.006(2)
O2 O2- 0.044(3) 0.026(2) 0.059(3) -0.017(2) 0.017(2) -0.016(2)
S2 S6+ 0.0201(7) 0.0475(9) 0.0156(6) -0.0110(6) 0.0025(6) 0.0029(6)
O3 O2- 0.0149(19) 0.028(2) 0.031(2) -0.0012(16) 0.0074(16) 0.0008(17)
O4 O2- 0.070(4) 0.066(4) 0.029(2) -0.035(3) 0.013(2) -0.014(2)
S3 S6+ 0.0133(6) 0.0191(6) 0.0141(6) 0.0014(5) -0.0024(5) -0.0038(5)
O5 O2- 0.0153(19) 0.031(2) 0.028(2) -0.0057(16) 0.0008(15) -0.0048(17)
O6 O2- 0.037(2) 0.047(3) 0.0137(19) -0.004(2) -0.0045(17) -0.0064(18)
S4 S6+ 0.0352(8) 0.0216(7) 0.0189(6) -0.0079(6) -0.0076(6) -0.0035(6)
O7 O2- 0.028(2) 0.065(3) 0.028(2) -0.011(2) 0.0045(18) -0.012(2)
O8 O2- 0.033(2) 0.023(2) 0.036(2) -0.0050(18) 0.002(2) -0.0141(19)
S5 S6+ 0.0191(6) 0.0108(6) 0.0221(6) -0.0013(5) 0.0027(5) -0.0017(5)
O9 O2- 0.052(3) 0.024(2) 0.043(3) 0.005(2) 0.033(2) -0.001(2)
O10 O2- 0.024(2) 0.018(2) 0.040(2) -0.0036(16) 0.0039(18) -0.0007(17)
S6 S6+ 0.0132(6) 0.0176(6) 0.0238(7) 0.0003(5) -0.0039(6) 0.0038(5)
O11 O2- 0.027(2) 0.050(3) 0.045(3) 0.003(2) -0.005(2) 0.030(2)
O12 O2- 0.0125(17) 0.025(2) 0.038(2) -0.0023(16) -0.0004(17) 0.0057(17)
S7 S6+ 0.0114(6) 0.0143(6) 0.0159(6) -0.0008(5) -0.0038(5) 0.0004(5)
O13 O2- 0.0152(19) 0.038(2) 0.0240(19) 0.0014(16) -0.0018(16) 0.0005(18)
O14 O2- 0.026(2) 0.031(2) 0.0177(18) 0.0050(19) -0.0039(17) -0.0005(16)
S8 S6+ 0.0151(6) 0.0114(6) 0.0164(6) -0.0014(5) -0.0006(5) -0.0032(5)
O15 O2- 0.036(2) 0.0075(18) 0.038(2) -0.0035(16) -0.003(2) 0.0027(16)
O16 O2- 0.039(2) 0.030(2) 0.0187(18) 0.001(2) 0.0047(19) -0.0060(17)
O17 O2- 0.018(2) 0.039(3) 0.076(3) 0.0073(19) 0.006(2) 0.037(2)
O18 O2- 0.0143(19) 0.041(3) 0.048(3) -0.0019(18) -0.005(2) 0.021(2)
O19 O2- 0.024(2) 0.030(2) 0.037(2) 0.0063(18) -0.0089(18) -0.0180(19)
O20 O2- 0.049(3) 0.036(3) 0.035(2) 0.017(2) -0.019(2) -0.0061(19)
O21 O2- 0.029(2) 0.0129(18) 0.0189(18) 0.0024(15) -0.0015(17) -0.0012(14)
O22 O2- 0.0162(19) 0.030(2) 0.0204(19) 0.0034(17) 0.0020(16) 0.0087(17)
O23 O2- 0.0123(17) 0.0179(19) 0.0225(19) 0.0024(14) -0.0048(15) -0.0002(15)
O24 O2- 0.0183(19) 0.0164(18) 0.0178(17) 0.0008(15) 0.0055(16) -0.0033(14)
O25 O2- 0.0119(17) 0.028(2) 0.0189(17) -0.0039(15) -0.0010(14) 0.0027(16)
O27 O2- 0.041(3) 0.036(3) 0.078(3) 0.0185(19) -0.037(3) -0.028(3)
O28 O2- 0.018(2) 0.015(2) 0.061(3) 0.0038(14) -0.017(2) -0.0007(19)
B1 B3+ 0.018(3) 0.021(3) 0.030(3) -0.006(2) 0.000(3) 0.002(3)
B2 B3+ 0.017(3) 0.012(3) 0.014(2) -0.0010(19) -0.002(2) -0.001(2)
#End of TTdata_425175-ICSD