
#(C) 2019 by FIZ Karlsruhe - Leibniz Institute for Information Infrastructure.  All rights reserved.
data_425177-ICSD
_database_code_ICSD 425177
_audit_creation_date 2015-02-01
_chemical_name_systematic 'Pentasodium tetrakis(sulfato)borate - II'
_chemical_formula_structural 'Na5 (B (S O4)4)'
_chemical_formula_sum 'B1 Na5 O16 S4'
_exptl_crystal_density_diffrn 2.54
_cell_measurement_temperature 293.
_publ_section_title

;
Exploring a new structure family: Alkali borosulfates Na5[B(SO4)4],
A3[B(SO4)3] (A = K, Rb), Li[B(SO4)2], and Li[B(S2O7)2]
;
loop_
_citation_id
_citation_journal_full
_citation_year
_citation_journal_volume
_citation_page_first
_citation_page_last
_citation_journal_id_ASTM
primary 'Inorganic Chemistry' 2013 52 6011 6020 INOCAJ
loop_
_publ_author_name
'Daub, Michael'
'Kazmierczak, Karolina'
'Gross, Peter'
'Hoeppe, Henning'
'Hillebrecht, Harald'
_cell_length_a 8.6239(17)
_cell_length_b 9.2750(19)
_cell_length_c 16.671(3)
_cell_angle_alpha 90.
_cell_angle_beta 90.
_cell_angle_gamma 90.
_cell_volume 1333.45
_cell_formula_units_Z 4
_symmetry_space_group_name_H-M 'P 21 21 21'
_symmetry_Int_Tables_number 19
_refine_ls_R_factor_all 0.064
loop_
_symmetry_equiv_pos_site_id
_symmetry_equiv_pos_as_xyz
1 '-x, y+1/2, -z+1/2'
2 'x+1/2, -y+1/2, -z'
3 '-x+1/2, -y, z+1/2'
4 'x, y, z'
loop_
_atom_type_symbol
_atom_type_oxidation_number
Na1+ 1
S6+ 6
O2- -2
S6+ 6
O2- -2
S6+ 6
O2- -2
S6+ 6
O2- -2
B3+ 3
O2- -2
loop_
_atom_site_label
_atom_site_type_symbol
_atom_site_symmetry_multiplicity
_atom_site_Wyckoff_symbol
_atom_site_fract_x
_atom_site_fract_y
_atom_site_fract_z
_atom_site_B_iso_or_equiv
_atom_site_occupancy
_atom_site_attached_hydrogens
Na1 Na1+ 4 a 0.2226(6) 1.1640(5) 0.2912(2) 0.0467(13) 1 0
Na2 Na1+ 4 a 0.6697(6) 0.9560(6) 0.0760(3) 0.0513(12) 1 0
Na3 Na1+ 4 a 0.0261(7) 1.0075(6) -0.0612(3) 0.0554(14) 1 0
Na4 Na1+ 4 a -0.1525(6) 1.2830(5) 0.1557(3) 0.0516(13) 1 0
Na5 Na1+ 4 a 0.1717(7) 0.6090(5) 0.1332(3) 0.0539(14) 1 0
S1 S6+ 4 a 0.0003(4) 0.9539(3) 0.19878(15) 0.0386(7) 1 0
O1 O2- 4 a -0.1207(11) 1.0262(11) 0.1546(5) 0.055(2) 1 0
O2 O2- 4 a -0.0071(11) 0.9786(9) 0.2854(4) 0.051(2) 1 0
O3 O2- 4 a 0.0091(13) 0.8029(9) 0.1816(4) 0.056(2) 1 0
S2 S6+ 4 a 0.2070(4) 1.2583(3) 0.04057(17) 0.0410(8) 1 0
O4 O2- 4 a 0.2772(11) 1.3982(9) 0.0443(5) 0.051(2) 1 0
O5 O2- 4 a 0.1997(10) 1.2042(9) -0.0410(4) 0.047(2) 1 0
O6 O2- 4 a 0.0606(10) 1.2512(10) 0.0776(5) 0.056(2) 1 0
S3 S6+ 4 a 0.4424(4) 0.8701(4) 0.23314(15) 0.0425(8) 1 0
O7 O2- 4 a 0.3426(11) 0.7474(9) 0.2241(5) 0.054(2) 1 0
O8 O2- 4 a 0.6018(10) 0.8395(10) 0.2340(4) 0.047(2) 1 0
O9 O2- 4 a 0.3928(12) 0.9613(10) 0.2998(4) 0.056(3) 1 0
S4 S6+ 4 a 0.3287(4) 0.8284(3) -0.00565(15) 0.0380(7) 1 0
O10 O2- 4 a 0.2289(10) 0.8169(10) -0.0751(4) 0.048(2) 1 0
O11 O2- 4 a 0.4715(9) 0.9025(8) -0.0190(4) 0.040(2) 1 0
O12 O2- 4 a 0.3496(11) 0.6910(9) 0.0326(4) 0.049(2) 1 0
B1 B3+ 4 a 0.2810(17) 1.0150(15) 0.1188(6) 0.036(3) 1 0
O13 O2- 4 a 0.1566(10) 1.0244(9) 0.1789(4) 0.0369(19) 1 0
O14 O2- 4 a 0.3205(10) 1.1585(8) 0.0874(4) 0.043(2) 1 0
O15 O2- 4 a 0.4248(9) 0.9644(9) 0.1541(4) 0.0390(19) 1 0
O16 O2- 4 a 0.2256(11) 0.9199(9) 0.0528(4) 0.042(2) 1 0
loop_
_atom_site_aniso_label
_atom_site_aniso_type_symbol
_atom_site_aniso_U_11
_atom_site_aniso_U_22
_atom_site_aniso_U_33
_atom_site_aniso_U_12
_atom_site_aniso_U_13
_atom_site_aniso_U_23
Na1 Na1+ 0.075(3) 0.038(3) 0.028(2) -0.001(2) -0.001(2) -0.0060(18)
Na2 Na1+ 0.058(3) 0.052(3) 0.044(3) -0.002(3) -0.006(2) -0.003(2)
Na3 Na1+ 0.069(4) 0.052(4) 0.045(3) 0.003(3) -0.001(2) 0.001(2)
Na4 Na1+ 0.072(3) 0.048(3) 0.034(2) -0.001(3) -0.001(2) -0.0077(19)
Na5 Na1+ 0.077(4) 0.049(3) 0.036(2) -0.011(3) 0.011(2) -0.0014(19)
S1 S6+ 0.0506(18) 0.0375(19) 0.0277(13) -0.0025(17) 0.0027(13) -0.0015(11)
O1 O2- 0.066(6) 0.049(6) 0.052(5) 0.007(5) -0.009(4) 0.009(4)
O2 O2- 0.070(6) 0.058(6) 0.025(4) -0.009(5) 0.017(4) -0.010(3)
O3 O2- 0.098(7) 0.020(5) 0.050(5) 0.001(5) 0.013(5) -0.005(3)
S2 S6+ 0.0592(19) 0.0346(19) 0.0292(14) -0.0017(16) 0.0010(13) 0.0011(10)
O4 O2- 0.074(6) 0.037(6) 0.043(5) -0.008(5) -0.002(4) 0.002(3)
O5 O2- 0.059(5) 0.051(6) 0.032(4) -0.010(5) -0.007(4) -0.002(3)
O6 O2- 0.057(5) 0.052(6) 0.058(5) 0.011(5) 0.011(4) 0.016(4)
S3 S6+ 0.066(2) 0.037(2) 0.0241(12) 0.0016(17) -0.0018(13) 0.0047(11)
O7 O2- 0.068(5) 0.051(6) 0.043(5) -0.016(5) -0.011(4) 0.008(4)
O8 O2- 0.060(6) 0.049(6) 0.032(4) 0.008(5) 0.007(4) 0.006(4)
O9 O2- 0.100(7) 0.048(5) 0.018(4) 0.021(6) 0.007(4) -0.006(3)
S4 S6+ 0.0558(19) 0.0336(17) 0.0246(12) -0.0008(16) 0.0001(13) -0.0025(11)
O10 O2- 0.070(6) 0.050(6) 0.025(4) -0.005(5) 0.000(4) 0.000(3)
O11 O2- 0.052(5) 0.042(5) 0.026(4) 0.003(4) 0.003(3) -0.006(3)
O12 O2- 0.079(6) 0.028(5) 0.040(5) 0.004(4) 0.009(4) 0.009(3)
B1 B3+ 0.061(9) 0.034(8) 0.012(5) -0.003(7) 0.002(5) -0.001(4)
O13 O2- 0.058(5) 0.031(5) 0.021(4) 0.007(4) -0.003(3) -0.010(3)
O14 O2- 0.064(5) 0.038(5) 0.027(4) 0.003(5) -0.006(4) 0.002(3)
O15 O2- 0.051(5) 0.033(5) 0.033(4) -0.006(4) -0.003(3) 0.011(3)
O16 O2- 0.064(5) 0.037(6) 0.026(4) 0.000(4) 0.001(3) -0.007(3)
#End of TTdata_425177-ICSD