
#(C) 2019 by FIZ Karlsruhe - Leibniz Institute for Information Infrastructure.  All rights reserved.
data_425418-ICSD
_database_code_ICSD 425418
_audit_creation_date 2016-08-01
_chemical_name_systematic
'Sodium triindium pentakis(phosphate(III)) tetrahydrate'
_chemical_formula_structural 'Na In3 (H P O3)5 (H2 O)4'
_chemical_formula_sum 'H13 In3 Na1 O19 P5'
_exptl_crystal_density_diffrn 3.12
_cell_measurement_temperature 293.
_publ_section_title

;
Syntheses, crystal structures of a series of novel alkali metal or alkaline
earth metal phosphites
;
loop_
_citation_id
_citation_journal_full
_citation_year
_citation_journal_volume
_citation_page_first
_citation_page_last
_citation_journal_id_ASTM
primary CrystEngComm 2013 15 2519 2526 CRECF4
loop_
_publ_author_name
'Wang, Xi-Jia'
'Zhang, Jian-Han'
'Song, Jun-Ling'
'Kong, Fang'
'Mao, Jiang-Gao'
_cell_length_a 12.166(2)
_cell_length_b 12.6128(11)
_cell_length_c 13.073(3)
_cell_angle_alpha 90.
_cell_angle_beta 116.860(8)
_cell_angle_gamma 90.
_cell_volume 1789.59
_cell_formula_units_Z 4
_symmetry_space_group_name_H-M 'P 1 21/c 1'
_symmetry_Int_Tables_number 14
_refine_ls_R_factor_all 0.0378
loop_
_symmetry_equiv_pos_site_id
_symmetry_equiv_pos_as_xyz
1 'x, -y+1/2, z+1/2'
2 '-x, -y, -z'
3 '-x, y+1/2, -z+1/2'
4 'x, y, z'
loop_
_atom_type_symbol
_atom_type_oxidation_number
Na1+ 1
In3+ 3
P3+ 3
O2- -2
H1+ 1
O2- -2
H1+ 1
O2- -2
H1+ 1
O2- -2
H1+ 1
loop_
_atom_site_label
_atom_site_type_symbol
_atom_site_symmetry_multiplicity
_atom_site_Wyckoff_symbol
_atom_site_fract_x
_atom_site_fract_y
_atom_site_fract_z
_atom_site_B_iso_or_equiv
_atom_site_occupancy
_atom_site_attached_hydrogens
Na1 Na1+ 4 e 1.3371(2) 0.2303(2) 0.9253(2) 0.0235(5) 1 0
In1 In3+ 4 e 1.09124(3) 0.22623(3) 0.47468(3) 0.01149(9) 1 0
In2 In3+ 4 e 0.67780(3) 0.01524(3) 0.22045(3) 0.01057(9) 1 0
In3 In3+ 4 e 0.72719(3) -0.01177(3) 0.74106(3) 0.01043(9) 1 0
P1 P3+ 4 e 1.36662(12) 0.24675(11) 0.70607(12) 0.0106(3) 1 0
P2 P3+ 4 e 1.05426(13) 0.31086(11) 0.70419(12) 0.0119(3) 1 0
P3 P3+ 4 e 0.78444(13) 0.25238(11) 0.30065(12) 0.0117(3) 1 0
P4 P3+ 4 e 0.62744(13) 0.01148(11) -0.05889(12) 0.0112(3) 1 0
P5 P3+ 4 e 0.77901(13) 0.01354(11) 0.50974(12) 0.0115(3) 1 0
O1 O2- 4 e 1.3561(4) 0.3387(3) 0.7755(3) 0.0164(8) 1 0
O2 O2- 4 e 1.3490(4) 0.1468(3) 0.7610(4) 0.0195(9) 1 0
O3 O2- 4 e 1.2843(3) 0.2546(3) 0.5775(3) 0.0157(8) 1 0
O4 O2- 4 e 1.1211(4) 0.2697(3) 0.8265(3) 0.0168(8) 1 0
O5 O2- 4 e 1.0672(4) 0.2281(3) 0.6254(3) 0.0171(8) 1 0
O6 O2- 4 e 1.0940(3) 0.4217(3) 0.6888(3) 0.0159(8) 1 0
O7 O2- 4 e 0.8039(4) 0.3579(3) 0.2557(4) 0.0172(8) 1 0
O8 O2- 4 e 0.9029(4) 0.1965(3) 0.3798(4) 0.0186(9) 1 0
O9 O2- 4 e 0.7058(4) 0.1788(3) 0.2010(3) 0.0172(8) 1 0
O10 O2- 4 e 0.6714(4) -0.0331(3) 0.0618(3) 0.0179(8) 1 0
O11 O2- 4 e 0.5135(4) -0.0453(3) -0.1456(3) 0.0178(8) 1 0
O12 O2- 4 e 0.7316(3) 0.0085(3) -0.0940(3) 0.0148(8) 1 0
O13 O2- 4 e 0.6861(4) 0.0418(3) 0.3862(3) 0.0159(8) 1 0
O14 O2- 4 e 0.8822(3) -0.0584(3) 0.5165(3) 0.0154(8) 1 0
O15 O2- 4 e 0.7083(4) -0.0285(3) 0.5715(3) 0.0176(8) 1 0
O16 O2- 4 e 1.5429(4) 0.2925(4) 1.0132(4) 0.0323(11) 1 0
H1 H1+ 4 e 1.5884 0.249 1.0002 0.048 1 0
H2 H1+ 4 e 1.546 0.3527 0.9856 0.048 1 0
O17 O2- 4 e 1.0646(4) 0.3979(3) 0.4482(4) 0.0202(9) 1 0
H3 H1+ 4 e 0.9887 0.4108 0.4062 0.03 1 0
H4 H1+ 4 e 1.088 0.4284 0.5127 0.03 1 0
O18 O2- 4 e 0.8762(3) -0.0198(3) 0.2895(3) 0.0183(8) 1 0
H5 H1+ 4 e 0.9178 0.0336 0.3268 0.028 1 0
H6 H1+ 4 e 0.8939 -0.0731 0.3339 0.028 1 0
O19 O2- 4 e 0.5413(4) 0.0556(3) 0.6586(4) 0.0195(9) 1 0
H7 H1+ 4 e 0.5412 0.1103 0.6207 0.029 1 0
H8 H1+ 4 e 0.4917 0.0099 0.6136 0.029 1 0
H9 H1+ 4 e 1.482(6) 0.247(5) 0.725(6) 0.025 1 0
H10 H1+ 4 e 0.941(6) 0.321(5) 0.676(6) 0.025 1 0
H11 H1+ 4 e 0.718(6) 0.269(5) 0.360(6) 0.025 1 0
H12 H1+ 4 e 0.601(6) 0.112(5) -0.052(6) 0.025 1 0
H13 H1+ 4 e 0.835(6) 0.107(5) 0.562(6) 0.025 1 0
loop_
_atom_site_aniso_label
_atom_site_aniso_type_symbol
_atom_site_aniso_U_11
_atom_site_aniso_U_22
_atom_site_aniso_U_33
_atom_site_aniso_U_12
_atom_site_aniso_U_13
_atom_site_aniso_U_23
Na1 Na1+ 0.0229(12) 0.0322(14) 0.0177(12) 0.0013(11) 0.0112(10) -0.0010(10)
In1 In3+ 0.01275(18) 0.01292(19) 0.00895(18) -0.00057(14) 0.00503(15)
-0.00061(14)
In2 In3+ 0.01264(18) 0.00976(18) 0.00961(18) -0.00011(14) 0.00530(15)
0.00069(14)
In3 In3+ 0.01343(18) 0.00871(18) 0.01057(18) 0.00013(14) 0.00666(15) 0.00032(14)
P1 P3+ 0.0115(6) 0.0099(6) 0.0099(6) -0.0001(5) 0.0045(5) 0.0002(5)
P2 P3+ 0.0117(6) 0.0135(7) 0.0121(7) -0.0016(5) 0.0067(6) -0.0012(5)
P3 P3+ 0.0115(6) 0.0097(6) 0.0152(7) -0.0001(5) 0.0070(6) -0.0006(5)
P4 P3+ 0.0135(7) 0.0107(6) 0.0105(6) 0.0002(5) 0.0065(5) -0.0002(5)
P5 P3+ 0.0134(6) 0.0127(7) 0.0087(6) -0.0001(5) 0.0054(5) -0.0006(5)
O1 O2- 0.026(2) 0.0088(18) 0.015(2) 0.0046(16) 0.0097(18) 0.0011(15)
O2 O2- 0.027(2) 0.012(2) 0.019(2) -0.0022(17) 0.0107(19) 0.0012(16)
O3 O2- 0.0139(19) 0.021(2) 0.0124(19) -0.0016(16) 0.0061(16) 0.0004(16)
O4 O2- 0.022(2) 0.019(2) 0.0103(19) 0.0016(17) 0.0085(17) -0.0005(16)
O5 O2- 0.026(2) 0.017(2) 0.0103(19) -0.0008(17) 0.0103(17) -0.0007(16)
O6 O2- 0.0144(19) 0.017(2) 0.0126(19) -0.0030(16) 0.0026(16) 0.0013(16)
O7 O2- 0.022(2) 0.0090(18) 0.023(2) 0.0006(16) 0.0128(18) 0.0020(16)
O8 O2- 0.0123(19) 0.017(2) 0.022(2) -0.0027(16) 0.0036(17) 0.0012(17)
O9 O2- 0.017(2) 0.0127(19) 0.016(2) -0.0016(16) 0.0029(17) 0.0024(16)
O10 O2- 0.021(2) 0.021(2) 0.014(2) 0.0016(17) 0.0096(17) -0.0009(16)
O11 O2- 0.0148(19) 0.019(2) 0.020(2) -0.0005(16) 0.0087(17) -0.0054(17)
O12 O2- 0.0141(19) 0.020(2) 0.0110(19) -0.0008(16) 0.0064(16) 0.0028(16)
O13 O2- 0.020(2) 0.018(2) 0.0100(19) 0.0026(16) 0.0072(17) 0.0023(16)
O14 O2- 0.016(2) 0.017(2) 0.017(2) 0.0012(15) 0.0106(17) 0.0003(16)
O15 O2- 0.018(2) 0.027(2) 0.0100(19) 0.0003(17) 0.0087(16) -0.0004(17)
O16 O2- 0.033(3) 0.026(2) 0.027(3) 0.005(2) 0.004(2) -0.006(2)
O17 O2- 0.021(2) 0.017(2) 0.017(2) 0.0005(17) 0.0031(18) -0.0005(17)
O18 O2- 0.015(2) 0.023(2) 0.0125(19) -0.0024(17) 0.0024(16) -0.0001(17)
O19 O2- 0.016(2) 0.021(2) 0.021(2) 0.0030(17) 0.0079(18) 0.0044(17)
#End of TTdata_425418-ICSD