
#(C) 2018 by FIZ Karlsruhe - Leibniz Institute for Information Infrastructure.  All rights reserved.
data_425419-ICSD
_database_code_ICSD 425419
_audit_creation_date 2014-02-01
_chemical_name_systematic 'Lithium iron calcium dioxoborate (5.5/1.5/1/12)'
_chemical_formula_structural '(Li5.5 Fe0.5) Fe Ca (B12 O24)'
_chemical_formula_sum 'B12 Ca1 Fe1.5 Li5.5 O24'
_chemical_name_structure_type (Li,Fe)6FeBaB12O24
_exptl_crystal_density_diffrn 2.78
_cell_measurement_temperature 298.
_publ_section_title

;
Synthesis and characterization of three new hexaborates (Li5.5 Fe0.5) Fe Ca
B12 O24, (Li5.5 Fe0.5) Fe Sr B12 O24 and (Li5.5 Fe0.5) Fe Ba B12 O24
;
loop_
_citation_id
_citation_journal_full
_citation_year
_citation_journal_volume
_citation_page_first
_citation_page_last
_citation_journal_id_ASTM
primary 'Journal of Chemical Crystallography' 2013 43 96 102 JCCYEV
loop_
_publ_author_name
'Heyward, Carla'
'McMillen, Colin D.'
'Kolis, Joseph W.'
_cell_length_a 14.705(2)
_cell_length_b 14.705(2)
_cell_length_c 6.463(1)
_cell_angle_alpha 90.
_cell_angle_beta 90.
_cell_angle_gamma 120.
_cell_volume 1210.31
_cell_formula_units_Z 3
_symmetry_space_group_name_H-M 'R -3 H'
_symmetry_Int_Tables_number 148
_refine_ls_R_factor_all 0.0363
loop_
_symmetry_equiv_pos_site_id
_symmetry_equiv_pos_as_xyz
1 'x-y, x, -z'
2 'y, -x+y, -z'
3 '-x, -y, -z'
4 '-x+y, -x, z'
5 '-y, x-y, z'
6 'x, y, z'
7 'x-y+2/3, x+1/3, -z+1/3'
8 'y+2/3, -x+y+1/3, -z+1/3'
9 '-x+2/3, -y+1/3, -z+1/3'
10 '-x+y+2/3, -x+1/3, z+1/3'
11 '-y+2/3, x-y+1/3, z+1/3'
12 'x+2/3, y+1/3, z+1/3'
13 'x-y+1/3, x+2/3, -z+2/3'
14 'y+1/3, -x+y+2/3, -z+2/3'
15 '-x+1/3, -y+2/3, -z+2/3'
16 '-x+y+1/3, -x+2/3, z+2/3'
17 '-y+1/3, x-y+2/3, z+2/3'
18 'x+1/3, y+2/3, z+2/3'
loop_
_atom_type_symbol
_atom_type_oxidation_number
Fe3+ 3
Ca2+ 2
O2- -2
B3+ 3
Li1+ 1
Fe3+ 3
loop_
_atom_site_label
_atom_site_type_symbol
_atom_site_symmetry_multiplicity
_atom_site_Wyckoff_symbol
_atom_site_fract_x
_atom_site_fract_y
_atom_site_fract_z
_atom_site_B_iso_or_equiv
_atom_site_occupancy
_atom_site_attached_hydrogens
Fe1 Fe3+ 3 a 0. 1. 1. 0.0127(3) 1 0
Ca1 Ca2+ 3 b 0. 1. 0.5 0.0419(6) 1 0
O1 O2- 18 f -0.18715(15) 0.79829(16) 1.3504(3) 0.0168(5) 1 0
O2 O2- 18 f -0.00266(15) 1.29376(15) 0.6398(3) 0.0126(5) 1 0
O3 O2- 18 f -0.18861(16) 1.09295(16) 0.9403(3) 0.0176(5) 1 0
O4 O2- 18 f 0.03924(15) 0.91672(15) 1.1880(3) 0.0154(5) 1 0
B1 B3+ 18 f -0.1997(2) 0.8577(2) 1.1983(5) 0.0138(6) 1 0
B2 B3+ 18 f -0.0273(3) 1.2766(3) 0.4232(5) 0.0166(7) 1 0
Li1 Li1+ 18 f 0.0729(3) 1.2343(3) 0.7502(6) 0.0349(8) 0.92 0
Fe2 Fe3+ 18 f 0.0729(3) 1.2343(3) 0.7502(6) 0.0349(8) 0.08 0
loop_
_atom_site_aniso_label
_atom_site_aniso_type_symbol
_atom_site_aniso_U_11
_atom_site_aniso_U_22
_atom_site_aniso_U_33
_atom_site_aniso_U_12
_atom_site_aniso_U_13
_atom_site_aniso_U_23
Fe1 Fe3+ 0.0125(4) 0.0125(4) 0.0132(5) 0.00624(19) 0. 0.
Ca1 Ca2+ 0.0576(8) 0.0576(8) 0.0105(8) 0.0288(4) 0. 0.
O1 O2- 0.0120(10) 0.0152(11) 0.0174(10) 0.0025(8) -0.0010(8) 0.0047(8)
O2 O2- 0.0140(10) 0.0156(10) 0.0104(10) 0.0092(8) -0.0007(7) -0.0001(7)
O3 O2- 0.0204(11) 0.0220(11) 0.0144(10) 0.0136(9) -0.0023(8) -0.0027(8)
O4 O2- 0.0117(10) 0.0131(10) 0.0207(10) 0.0057(8) -0.0022(8) 0.0031(8)
B1 B3+ 0.0142(15) 0.0156(15) 0.0127(15) 0.0083(13) 0.0024(12) -0.0003(11)
B2 B3+ 0.0229(17) 0.0138(15) 0.0130(15) 0.0090(14) 0.0016(13) -0.0004(12)
Li1 Li1+ 0.0342(18) 0.0338(18) 0.0409(19) 0.0203(15) -0.0066(15) -0.0026(14)
Fe2 Fe3+ 0.0342(18) 0.0338(18) 0.0409(19) 0.0203(15) -0.0066(15) -0.0026(14)
#End of TTdata_425419-ICSD