
#(C) 2019 by FIZ Karlsruhe - Leibniz Institute for Information Infrastructure.  All rights reserved.
data_425458-ICSD
_database_code_ICSD 425458
_audit_creation_date 2013-08-01
_chemical_name_systematic 'Trisodium antimonide trisulfide'
_chemical_formula_structural 'Na3 Sb S3'
_chemical_formula_sum 'Na3 S3 Sb1'
_chemical_name_structure_type Na3AsS3
_exptl_crystal_density_diffrn 2.95
_cell_measurement_temperature 123.
_publ_section_title

;
Na3 Sb S3: Single crystal X-ray diffraction, Raman spectroscopy, and impedance
measurements
;
loop_
_citation_id
_citation_journal_full
_citation_year
_citation_journal_volume
_citation_page_first
_citation_page_last
_citation_journal_id_ASTM
primary 'Zeitschrift fuer Anorganische und Allgemeine Chemie (1950) (DE)' 2013
639 296 300 ZAACAB
loop_
_publ_author_name
'Pompe, Constantin'
'Pfitzner, Arno'
_cell_length_a 8.6420(1)
_cell_length_b 8.6420(1)
_cell_length_c 8.6420(1)
_cell_angle_alpha 90.
_cell_angle_beta 90.
_cell_angle_gamma 90.
_cell_volume 645.42
_cell_formula_units_Z 4
_symmetry_space_group_name_H-M 'P 21 3'
_symmetry_Int_Tables_number 198
_refine_ls_R_factor_all 0.0099
loop_
_symmetry_equiv_pos_site_id
_symmetry_equiv_pos_as_xyz
1 '-z+1/2, -x, y+1/2'
2 '-y+1/2, -z, x+1/2'
3 '-x+1/2, -y, z+1/2'
4 '-z, x+1/2, -y+1/2'
5 '-y, z+1/2, -x+1/2'
6 '-x, y+1/2, -z+1/2'
7 'z+1/2, -x+1/2, -y'
8 'y+1/2, -z+1/2, -x'
9 'x+1/2, -y+1/2, -z'
10 'z, x, y'
11 'y, z, x'
12 'x, y, z'
loop_
_atom_type_symbol
_atom_type_oxidation_number
Na1+ 1
Sb3+ 3
S2- -2
loop_
_atom_site_label
_atom_site_type_symbol
_atom_site_symmetry_multiplicity
_atom_site_Wyckoff_symbol
_atom_site_fract_x
_atom_site_fract_y
_atom_site_fract_z
_atom_site_B_iso_or_equiv
_atom_site_occupancy
_atom_site_attached_hydrogens
Na1 Na1+ 4 a 0.05968(8) 0.05968(8) 0.05968(8) 0.0118(2) 1 0
Na2 Na1+ 4 a 0.56826(8) 0.56826(8) 0.56826(8) 0.0117(3) 1 0
Na3 Na1+ 4 a 0.82507(8) 0.82507(8) 0.82507(8) 0.0167(3) 1 0
Sb1 Sb3+ 4 a 0.284916(12) 0.284916(12) 0.284916(12) 0.00775(6) 1 0
S1 S2- 12 b 0.01647(5) 0.24997(4) 0.35818(5) 0.01027(9) 1 0
loop_
_atom_site_aniso_label
_atom_site_aniso_type_symbol
_atom_site_aniso_U_11
_atom_site_aniso_U_22
_atom_site_aniso_U_33
_atom_site_aniso_U_12
_atom_site_aniso_U_13
_atom_site_aniso_U_23
Na1 Na1+ 0.0118(2) 0.0118(2) 0.0118(2) -0.0003(3) -0.0003(3) -0.0003(3)
Na2 Na1+ 0.0117(3) 0.0117(3) 0.0117(3) 0.0005(3) 0.0005(3) 0.0005(3)
Na3 Na1+ 0.0167(3) 0.0167(3) 0.0167(3) 0.0005(3) 0.0005(3) 0.0005(3)
Sb1 Sb3+ 0.00775(6) 0.00775(6) 0.00775(6) -0.00044(4) -0.00044(4) -0.00044(4)
S1 S2- 0.00917(19) 0.0101(2) 0.01158(19) 0.00048(15) 0.00252(15) 0.00048(15)
#End of TTdata_425458-ICSD