
#(C) 2018 by FIZ Karlsruhe - Leibniz Institute for Information Infrastructure.  All rights reserved.
data_425560-ICSD
_database_code_ICSD 425560
_audit_creation_date 2014-02-01
_chemical_name_systematic 'Lithium europium borate (6/0.966/3)'
_chemical_formula_structural 'Li6 Eu0.966 (B O3)3'
_chemical_formula_sum 'B3 Eu0.966 Li6 O9'
_chemical_name_structure_type Li6HoB3O9
_exptl_crystal_density_diffrn 3.09
_cell_measurement_temperature 573.
_publ_section_title

;
Growth and spectroscopic properties of (6)Li- and (10)B-enriched crystals for
heat-scintillation cryogenic bolometers used in the rare events searches
;
loop_
_citation_id
_citation_journal_full
_citation_year
_citation_journal_volume
_citation_page_first
_citation_page_last
_citation_journal_id_ASTM
primary CrystEngComm 2013 15 3785 3792 CRECF4
loop_
_publ_author_name
'Rekia Belhoucif'
'Matias Velazquez'
'Yannick Petit'
'Olivier Perez'
'BenoÅ’t Glorieux'
'Oudomsack Viraphong'
'Pierre de Marcillac'
'Noâ€°l Coron'
'Lidia Torres'
'Emmanuel Veron'
'AbdelHamid Kellou'
'Philippe Veber'
'Rodolphe Decourt'
'Hassan El Hafid'
_cell_length_a 7.2587(2)
_cell_length_b 16.6207(5)
_cell_length_c 6.7351(2)
_cell_angle_alpha 90
_cell_angle_beta 105.4604(8)
_cell_angle_gamma 90
_cell_volume 783.15
_cell_formula_units_Z 4
_symmetry_space_group_name_H-M 'P 1 21/c 1'
_symmetry_Int_Tables_number 14
_refine_ls_R_factor_all 0.0166
loop_
_symmetry_equiv_pos_site_id
_symmetry_equiv_pos_as_xyz
1 'x, -y+1/2, z+1/2'
2 '-x, -y, -z'
3 '-x, y+1/2, -z+1/2'
4 'x, y, z'
loop_
_atom_type_symbol
_atom_type_oxidation_number
Eu3+ 3
O2- -2
B3+ 3
Li1+ 1
loop_
_atom_site_label
_atom_site_type_symbol
_atom_site_symmetry_multiplicity
_atom_site_Wyckoff_symbol
_atom_site_fract_x
_atom_site_fract_y
_atom_site_fract_z
_atom_site_B_iso_or_equiv
_atom_site_occupancy
_atom_site_attached_hydrogens
Eu1 Eu3+ 4 e 0.57927(2) 0.310279(11) 0.15428(2) 0.01065(7) 0.9657 0
O1 O2- 4 e 0.7779(3) 0.43226(17) 0.2327(4) 0.0198(9) 1 0
O2 O2- 4 e 0.9234(4) 0.30444(17) 0.2778(5) 0.0221(10) 1 0
O3 O2- 4 e 0.2372(4) 0.29995(17) 0.0515(5) 0.0198(9) 1 0
O4 O2- 4 e 0.3748(4) 0.42745(18) 0.0430(5) 0.0249(9) 1 0
O5 O2- 4 e 0.6507(4) 0.31688(15) -0.1670(4) 0.0167(9) 1 0
O6 O2- 4 e 0.5048(4) 0.32557(17) 0.4765(4) 0.0190(9) 1 0
O7 O2- 4 e 0.0363(4) 0.41262(18) -0.0891(4) 0.0241(10) 1 0
O8 O2- 4 e 1.1051(4) 0.42290(19) 0.4223(4) 0.0229(9) 1 0
O9 O2- 4 e 0.5829(4) 0.44629(19) -0.3264(4) 0.0232(10) 1 0
B1 B3+ 4 e 0.9403(5) 0.3863(3) 0.3146(6) 0.0153(13) 1 0
B2 B3+ 4 e 0.2115(6) 0.3807(3) -0.0022(6) 0.0159(13) 1 0
B3 B3+ 4 e 0.5814(5) 0.3650(3) -0.3401(6) 0.0136(12) 1 0
Li1 Li1+ 4 e 0.0423(12) 0.4691(6) -0.3313(12) 0.0344(18) 1 0
Li2 Li1+ 4 e -0.1916(11) 0.4631(5) -0.0556(13) 0.0351(18) 1 0
Li3 Li1+ 4 e 0.9419(12) 0.2050(5) 0.4498(13) 0.0327(18) 1 0
Li4 Li1+ 4 e 1.3592(12) 0.4504(6) 0.4135(13) 0.0351(18) 1 0
Li5 Li1+ 4 e 0.5733(10) 0.5033(5) 0.1767(11) 0.0261(16) 1 0
Li6 Li1+ 4 e 0.2120(12) 0.2044(5) -0.1283(13) 0.0308(17) 1 0
loop_
_atom_site_aniso_label
_atom_site_aniso_type_symbol
_atom_site_aniso_U_11
_atom_site_aniso_U_22
_atom_site_aniso_U_33
_atom_site_aniso_U_12
_atom_site_aniso_U_13
_atom_site_aniso_U_23
Eu1 Eu3+ 0.01139(11) 0.00991(13) 0.01072(11) 0.00015(7) 0.00305(7) 0.00037(6)
O1 O2- 0.0167(12) 0.0150(15) 0.0263(14) 0.0019(11) 0.0034(11) 0.0014(11)
O2 O2- 0.0166(13) 0.0164(17) 0.0311(16) 0.0013(10) 0.0026(11) 0.0038(11)
O3 O2- 0.0149(12) 0.0141(16) 0.0283(16) -0.0004(10) 0.0019(11) -0.0003(11)
O4 O2- 0.0164(12) 0.0158(16) 0.0401(17) -0.0015(11) 0.0035(12) 0.0038(13)
O5 O2- 0.0193(12) 0.0178(16) 0.0109(13) 0.0022(10) 0.0004(10) 0.0029(10)
O6 O2- 0.0219(13) 0.0214(16) 0.0132(13) -0.0021(11) 0.0036(11) -0.0029(10)
O7 O2- 0.0152(12) 0.0277(18) 0.0294(16) 0.0048(11) 0.0061(11) 0.0075(12)
O8 O2- 0.0163(12) 0.0256(17) 0.0243(15) -0.0038(11) 0.0012(11) -0.0042(12)
O9 O2- 0.0312(15) 0.0141(17) 0.0244(16) 0.0012(11) 0.0077(13) 0.0019(11)
B1 B3+ 0.0136(17) 0.014(2) 0.018(2) 0.0010(14) 0.0030(16) 0.0006(14)
B2 B3+ 0.0178(19) 0.015(2) 0.016(2) -0.0001(15) 0.0064(16) -0.0007(14)
B3 B3+ 0.0123(16) 0.015(2) 0.0135(19) 0.0011(14) 0.0030(15) -0.0010(14)
#End of TTdata_425560-ICSD