
#(C) 2019 by FIZ Karlsruhe - Leibniz Institute for Information Infrastructure.  All rights reserved.
data_425505-ICSD
_database_code_ICSD 425505
_audit_creation_date 2014-02-01
_chemical_name_systematic 'Sodium neodymium uranium oxide (4.43/0.57/1/6)'
_chemical_formula_structural '(Na4.43 Nd0.57) U O6'
_chemical_formula_sum 'Na4.43 Nd0.57 O6 U1'
_chemical_name_structure_type Li3Ni2TaO6
_exptl_crystal_density_diffrn 5.29
_cell_measurement_temperature 100.
_publ_section_title

;
Synthesis and Crystal Structure of a New Complex Uranium Oxide, Na4.5 Nd0.5 U
O6
;
loop_
_citation_id
_citation_journal_full
_citation_year
_citation_journal_volume
_citation_page_first
_citation_page_last
_citation_journal_id_ASTM
primary 'Journal of Chemical Crystallography' 2013 43 484 487 JCCYEV
loop_
_publ_author_name
'Read, Cory Michael'
'Smith, Mark D.'
'zur Loye, Hans-Conrad'
_cell_length_a 6.6574(5)
_cell_length_b 9.7031(6)
_cell_length_c 20.1571(13)
_cell_angle_alpha 90.
_cell_angle_beta 90.
_cell_angle_gamma 90.
_cell_volume 1302.1
_cell_formula_units_Z 8
_symmetry_space_group_name_H-M 'F d d d Z'
_symmetry_Int_Tables_number 70
_refine_ls_R_factor_all 0.023
loop_
_symmetry_equiv_pos_site_id
_symmetry_equiv_pos_as_xyz
1 'x+3/4, y+3/4, -z'
2 'x+3/4, -y, z+3/4'
3 '-x, y+3/4, z+3/4'
4 '-x, -y, -z'
5 '-x+1/4, -y+1/4, z'
6 '-x+1/4, y, -z+1/4'
7 'x, -y+1/4, -z+1/4'
8 'x, y, z'
9 'x+3/4, y+1/4, -z+1/2'
10 'x+3/4, -y+1/2, z+1/4'
11 '-x, y+1/4, z+1/4'
12 '-x, -y+1/2, -z+1/2'
13 '-x+1/4, -y+3/4, z+1/2'
14 '-x+1/4, y+1/2, -z+3/4'
15 'x, -y+3/4, -z+3/4'
16 'x, y+1/2, z+1/2'
17 'x+1/4, y+3/4, -z+1/2'
18 'x+1/4, -y, z+1/4'
19 '-x+1/2, y+3/4, z+1/4'
20 '-x+1/2, -y, -z+1/2'
21 '-x+3/4, -y+1/4, z+1/2'
22 '-x+3/4, y, -z+3/4'
23 'x+1/2, -y+1/4, -z+3/4'
24 'x+1/2, y, z+1/2'
25 'x+1/4, y+1/4, -z'
26 'x+1/4, -y+1/2, z+3/4'
27 '-x+1/2, y+1/4, z+3/4'
28 '-x+1/2, -y+1/2, -z'
29 '-x+3/4, -y+3/4, z'
30 '-x+3/4, y+1/2, -z+1/4'
31 'x+1/2, -y+3/4, -z+1/4'
32 'x+1/2, y+1/2, z'
loop_
_atom_type_symbol
_atom_type_oxidation_number
U5+ 5.9
Na1+ 1
Nd3+ 3
Na1+ 1
Nd3+ 3
Na1+ 1
Nd3+ 3
O2- -2
loop_
_atom_site_label
_atom_site_type_symbol
_atom_site_symmetry_multiplicity
_atom_site_Wyckoff_symbol
_atom_site_fract_x
_atom_site_fract_y
_atom_site_fract_z
_atom_site_B_iso_or_equiv
_atom_site_occupancy
_atom_site_attached_hydrogens
U1 U5+ 8 b 0.125 0.125 0.625 0.00826(8) 1 0
Na1 Na1+ 8 a 0.125 0.125 0.125 0.0236(10) 0.924(4) 0
Nd1 Nd3+ 8 a 0.125 0.125 0.125 0.0236(10) 0.076(4) 0
Na2 Na1+ 16 g 0.125 0.125 0.28453(5) 0.0097(4) 0.846(2) 0
Nd2 Nd3+ 16 g 0.125 0.125 0.28453(5) 0.0097(4) 0.154(2) 0
Na3 Na1+ 16 g 0.125 0.125 0.45785(6) 0.0078(5) 0.909(2) 0
Nd3 Nd3+ 16 g 0.125 0.125 0.45785(6) 0.0078(5) 0.091(2) 0
O1 O2- 16 f 0.125 0.4131(4) 0.125 0.0132(7) 1 0
O2 O2- 32 h 0.3987(4) 0.1282(3) 0.05127(13) 0.0125(5) 1 0
loop_
_atom_site_aniso_label
_atom_site_aniso_type_symbol
_atom_site_aniso_U_11
_atom_site_aniso_U_22
_atom_site_aniso_U_33
_atom_site_aniso_U_12
_atom_site_aniso_U_13
_atom_site_aniso_U_23
U1 U5+ 0.00706(12) 0.00964(12) 0.00807(12) 0. 0. 0.
Na1 Na1+ 0.0097(12) 0.0428(17) 0.0182(13) 0. 0. 0.
Nd1 Nd3+ 0.0097(12) 0.0428(17) 0.0182(13) 0. 0. 0.
Na2 Na1+ 0.0099(5) 0.0084(5) 0.0107(5) -0.0023(9) 0. 0.
Nd2 Nd3+ 0.0099(5) 0.0084(5) 0.0107(5) -0.0023(9) 0. 0.
Na3 Na1+ 0.0070(7) 0.0092(7) 0.0071(6) 0.0007(11) 0. 0.
Nd3 Nd3+ 0.0070(7) 0.0092(7) 0.0071(6) 0.0007(11) 0. 0.
O1 O2- 0.0122(17) 0.0151(17) 0.0124(16) 0. -0.0017(17) 0.
O2 O2- 0.0165(13) 0.0108(12) 0.0103(12) -0.0001(16) 0.0013(9) -0.0007(9)
#End of TTdata_425505-ICSD