
#(C) 2019 by FIZ Karlsruhe - Leibniz Institute for Information Infrastructure.  All rights reserved.
data_425698-ICSD
_database_code_ICSD 425698
_audit_creation_date 2014-02-01
_chemical_name_systematic 'Disodium trinickel dihydroxide diphosphate'
_chemical_formula_structural 'Na2 Ni3 (O H)2 (P O4)2'
_chemical_formula_sum 'H2 Na2 Ni3 O10 P2'
_exptl_crystal_density_diffrn 3.82
_cell_measurement_temperature 293.
_publ_section_title

;
Crystal structure and magnetic properties of a new layered sodium nickel
hydroxide phosphate, Na2 Ni3 (O H)2 (P O4)2
;
loop_
_citation_id
_citation_journal_full
_citation_year
_citation_journal_volume
_citation_page_first
_citation_page_last
_citation_journal_id_ASTM
primary 'Dalton Transactions' 2013 42 14718 14725 DTARAF
loop_
_publ_author_name
'Olga Yakubovich'
'Galina Kiriukhina'
'Olga Dimitrova'
'Anatoly Volkov'
'Alexey Golovanov'
'Olga Volkova'
'Elena Zvereva'
'Santu Baidya'
'Tanusri Saha-Dasgupta'
'Alexander Vasiliev'
_cell_length_a 14.259(5)
_cell_length_b 5.6953(17)
_cell_length_c 4.9331(14)
_cell_angle_alpha 90.
_cell_angle_beta 104.28(3)
_cell_angle_gamma 90.
_cell_volume 388.23
_cell_formula_units_Z 2
_symmetry_space_group_name_H-M 'C 1 2/m 1'
_symmetry_Int_Tables_number 12
_refine_ls_R_factor_all 0.0262
loop_
_symmetry_equiv_pos_site_id
_symmetry_equiv_pos_as_xyz
1 '-x, y, -z'
2 '-x, -y, -z'
3 'x, -y, z'
4 'x, y, z'
5 '-x+1/2, y+1/2, -z'
6 '-x+1/2, -y+1/2, -z'
7 'x+1/2, -y+1/2, z'
8 'x+1/2, y+1/2, z'
loop_
_atom_type_symbol
_atom_type_oxidation_number
Ni2+ 2
P5+ 5
Na1+ 1
O2- -2
H1+ 1
loop_
_atom_site_label
_atom_site_type_symbol
_atom_site_symmetry_multiplicity
_atom_site_Wyckoff_symbol
_atom_site_fract_x
_atom_site_fract_y
_atom_site_fract_z
_atom_site_B_iso_or_equiv
_atom_site_occupancy
_atom_site_attached_hydrogens
Ni1 Ni2+ 2 a 0. 0. 0. 0.00582(19) 1 0
Ni2 Ni2+ 4 h 0.5 -0.23310(8) -0.5 0.00553(17) 1 0
P1 P5+ 4 i 0.62512(7) 0. 0.0969(2) 0.0047(2) 1 0
Na1 Na1+ 4 i 0.26580(14) -0.5 -0.2881(4) 0.0223(4) 1 0
O1 O2- 4 i 0.4064(2) 0. 0.2278(5) 0.0064(5) 1 0
O2 O2- 8 j 0.41223(15) -0.2236(3) -0.2182(4) 0.0072(4) 1 0
O3 O2- 4 i 0.4283(2) -0.5 0.2885(6) 0.0067(5) 1 0
O4 O2- 4 i 0.7350(2) 0. 0.1924(6) 0.0123(6) 1 0
H1 H1+ 4 i 0.376(4) -0.5 0.268(11) 0.028(17) 1 0
loop_
_atom_site_aniso_label
_atom_site_aniso_type_symbol
_atom_site_aniso_U_11
_atom_site_aniso_U_22
_atom_site_aniso_U_33
_atom_site_aniso_U_12
_atom_site_aniso_U_13
_atom_site_aniso_U_23
Ni1 Ni2+ 0.0058(4) 0.0071(3) 0.0049(3) 0. 0.0020(3) 0.
Ni2 Ni2+ 0.0064(3) 0.0053(2) 0.0048(3) 0. 0.0013(2) 0.
P1 P5+ 0.0039(5) 0.0063(4) 0.0039(4) 0. 0.0009(4) 0.
Na1 Na1+ 0.0174(10) 0.0358(11) 0.0135(9) 0. 0.0035(8) 0.
O1 O2- 0.0090(14) 0.0062(12) 0.0039(12) 0. 0.0013(11) 0.
O2 O2- 0.0091(10) 0.0064(9) 0.0068(9) 0.0009(7) 0.0031(8) -0.0004(7)
O3 O2- 0.0047(14) 0.0081(13) 0.0071(13) 0. 0.0011(11) 0.
O4 O2- 0.0027(14) 0.0239(16) 0.0100(14) 0. 0.0009(12) 0.
#End of TTdata_425698-ICSD