
#(C) 2019 by FIZ Karlsruhe - Leibniz Institute for Information Infrastructure.  All rights reserved.
data_425696-ICSD
_database_code_ICSD 425696
_audit_creation_date 2013-08-01
_chemical_name_systematic 'Sodium chlorate(VII) dihydrate'
_chemical_formula_structural 'Na Cl O4 (H2 O)2'
_chemical_formula_sum 'H4 Cl1 Na1 O6'
_exptl_crystal_density_diffrn 1.95
_cell_measurement_temperature 200.
_publ_section_title
'Freezing and hydrate formation in aqueous sodium perchlorate solutions'
loop_
_citation_id
_citation_journal_full
_citation_year
_citation_journal_volume
_citation_page_first
_citation_page_last
_citation_journal_id_ASTM
primary 'Zeitschrift fuer Anorganische und Allgemeine Chemie (1950) (DE)' 2013
639 922 927 ZAACAB
loop_
_publ_author_name
'Hennings, Erik'
'Heinz, Jacob'
'Schmidt, Horst'
'Voigt, Wolfgang'
_cell_length_a 10.1028(9)
_cell_length_b 7.8008(10)
_cell_length_c 13.6773(6)
_cell_angle_alpha 90.
_cell_angle_beta 90.
_cell_angle_gamma 90.
_cell_volume 1077.91
_cell_formula_units_Z 8
_symmetry_space_group_name_H-M 'P b c a'
_symmetry_Int_Tables_number 61
_refine_ls_R_factor_all 0.0285
loop_
_symmetry_equiv_pos_site_id
_symmetry_equiv_pos_as_xyz
1 'x+1/2, y, -z+1/2'
2 'x, -y+1/2, z+1/2'
3 '-x+1/2, y+1/2, z'
4 '-x, -y, -z'
5 '-x+1/2, -y, z+1/2'
6 '-x, y+1/2, -z+1/2'
7 'x+1/2, -y+1/2, -z'
8 'x, y, z'
loop_
_atom_type_symbol
_atom_type_oxidation_number
Na1+ 1
Cl7+ 7
O2- -2
H1+ 1
loop_
_atom_site_label
_atom_site_type_symbol
_atom_site_symmetry_multiplicity
_atom_site_Wyckoff_symbol
_atom_site_fract_x
_atom_site_fract_y
_atom_site_fract_z
_atom_site_B_iso_or_equiv
_atom_site_occupancy
_atom_site_attached_hydrogens
Na1 Na1+ 8 c 0.66448(7) -0.07572(8) 0.48528(6) 0.02972(19) 1 0
Cl1 Cl7+ 8 c 0.90827(4) 0.06842(5) 0.65185(3) 0.02255(14) 1 0
O1 O2- 8 c 0.86226(15) -0.05350(16) 0.58026(10) 0.0368(3) 1 0
O2 O2- 8 c 0.81048(16) 0.0946(2) 0.72495(11) 0.0515(4) 1 0
O3 O2- 8 c 0.93753(18) 0.22620(18) 0.60323(12) 0.0485(4) 1 0
O4 O2- 8 c 1.02814(15) 0.0037(2) 0.69566(11) 0.0460(4) 1 0
O5 O2- 8 c 0.73026(14) 0.18573(18) 0.40119(10) 0.0331(3) 1 0
O6 O2- 8 c 0.54139(13) 0.10304(15) 0.59447(9) 0.0263(3) 1 0
H1 H1+ 8 c 0.549(3) 0.071(3) 0.6503(13) 0.053(8) 1 0
H2 H1+ 8 c 0.567(2) 0.202(2) 0.5933(17) 0.045(7) 1 0
H3 H1+ 8 c 0.778(2) 0.153(4) 0.3596(18) 0.071(10) 1 0
H4 H1+ 8 c 0.666(2) 0.230(4) 0.378(2) 0.068(9) 1 0
loop_
_atom_site_aniso_label
_atom_site_aniso_type_symbol
_atom_site_aniso_U_11
_atom_site_aniso_U_22
_atom_site_aniso_U_33
_atom_site_aniso_U_12
_atom_site_aniso_U_13
_atom_site_aniso_U_23
Na1 Na1+ 0.0254(4) 0.0274(4) 0.0364(4) 0.0015(3) -0.0036(3) -0.0035(3)
Cl1 Cl7+ 0.0213(2) 0.0242(2) 0.0222(2) 0.00188(13) -0.00222(13) -0.00128(13)
O1 O2- 0.0391(8) 0.0286(6) 0.0426(8) 0.0037(5) -0.0166(6) -0.0095(5)
O2 O2- 0.0360(8) 0.0811(12) 0.0374(8) 0.0031(8) 0.0119(7) -0.0096(8)
O3 O2- 0.0615(10) 0.0310(7) 0.0531(9) -0.0111(7) -0.0057(8) 0.0100(7)
O4 O2- 0.0358(8) 0.0648(10) 0.0374(8) 0.0212(7) -0.0171(6) -0.0134(7)
O5 O2- 0.0341(7) 0.0365(7) 0.0286(6) -0.0034(6) 0.0009(5) -0.0003(5)
O6 O2- 0.0312(7) 0.0238(6) 0.0239(6) -0.0025(5) -0.0016(5) -0.0006(5)
#End of TTdata_425696-ICSD