
#(C) 2019 by FIZ Karlsruhe - Leibniz Institute for Information Infrastructure.  All rights reserved.
data_425911-ICSD
_database_code_ICSD 425911
_audit_creation_date 2013-08-01
_chemical_name_systematic 'Sodium boron oxide bromide (11/21/36/2)'
_chemical_formula_structural 'Na11 B21 O36 Br2'
_chemical_formula_sum 'B21 Br2 Na11 O36'
_exptl_crystal_density_diffrn 2.42
_cell_measurement_temperature 296.
_publ_section_title

;
Na11 B21 O36 X2 (X = Cl, Br): halogen sodium borates with a new graphene-like
borate double layer
;
loop_
_citation_id
_citation_journal_full
_citation_year
_citation_journal_volume
_citation_page_first
_citation_page_last
_citation_journal_id_ASTM
primary 'Chemistry - A European Journal' 2013 19 7338 7341 CEUJED
loop_
_publ_author_name
'Dong, Xiaoyu'
'Wu, Hongping'
'Shi, Yunjing'
'Yu, Hongwei'
'Yang, Zhihua'
'Zhang, Bingbing'
'Chen, Zhaohui'
'Yang, Yun'
'Huang, Zhenjun'
'Pan, Shilie'
'Zhou, Zhongxiang'
_cell_length_a 15.7219(17)
_cell_length_b 8.9507(11)
_cell_length_c 24.087(3)
_cell_angle_alpha 90.
_cell_angle_beta 100.728(9)
_cell_angle_gamma 90.
_cell_volume 3330.33
_cell_formula_units_Z 4
_symmetry_space_group_name_H-M 'C 1 2/c 1'
_symmetry_Int_Tables_number 15
_refine_ls_R_factor_all 0.0623
loop_
_symmetry_equiv_pos_site_id
_symmetry_equiv_pos_as_xyz
1 'x, -y, z+1/2'
2 '-x, -y, -z'
3 '-x, y, -z+1/2'
4 'x, y, z'
5 'x+1/2, -y+1/2, z+1/2'
6 '-x+1/2, -y+1/2, -z'
7 '-x+1/2, y+1/2, -z+1/2'
8 'x+1/2, y+1/2, z'
loop_
_atom_type_symbol
_atom_type_oxidation_number
Na1+ 1
B3+ 3
O2- -2
Br1- -1
loop_
_atom_site_label
_atom_site_type_symbol
_atom_site_symmetry_multiplicity
_atom_site_Wyckoff_symbol
_atom_site_fract_x
_atom_site_fract_y
_atom_site_fract_z
_atom_site_B_iso_or_equiv
_atom_site_occupancy
_atom_site_attached_hydrogens
Na1 Na1+ 8 f 0.34741(16) 0.6246(3) 0.65721(12) 0.0327(8) 1 0
Na2 Na1+ 8 f 0.60865(19) 0.6190(3) 0.65672(13) 0.0451(9) 1 0
Na3 Na1+ 8 f 0.57597(18) 0.9040(4) 0.49601(13) 0.0457(9) 1 0
Na4 Na1+ 8 f 0.60115(19) 0.5103(4) 0.49015(14) 0.0524(10) 1 0
Na5 Na1+ 8 f 0.47640(18) 1.0015(3) 0.65761(12) 0.0324(8) 1 0
Na6 Na1+ 4 c 0.75 0.25 0.5 0.0521(14) 1 0
B1 B3+ 8 f 0.8895(5) 0.7728(8) 0.6010(4) 0.022(2) 1 0
B2 B3+ 8 f 0.1965(5) 0.8821(9) 0.5932(3) 0.0172(19) 1 0
B3 B3+ 8 f 0.7365(5) 0.8684(9) 0.5772(3) 0.019(2) 1 0
B4 B3+ 8 f 0.1686(5) 0.6092(8) 0.6074(4) 0.018(2) 1 0
B5 B3+ 8 f 0.7654(5) 0.6063(9) 0.5646(3) 0.019(2) 1 0
B6 B3+ 4 e 0.5 0.5841(14) 0.75 0.024(3) 1 0
B7 B3+ 8 f 0.4558(5) 0.7147(9) 0.4178(3) 0.0160(18) 1 0
B8 B3+ 8 f 0.5803(5) 0.8298(9) 0.7481(4) 0.020(2) 1 0
B9 B3+ 8 f 0.7836(5) 0.4408(9) 0.6943(4) 0.023(2) 1 0
B10 B3+ 8 f 0.9650(5) 0.8330(10) 0.7026(4) 0.024(2) 1 0
B11 B3+ 8 f 0.8165(5) 0.4935(10) 0.7926(4) 0.025(2) 1 0
O1 O2- 4 e 1. 0.7594(8) 0.75 0.039(2) 1 0
O2 O2- 8 f 0.6740(3) 0.9734(5) 0.57136(19) 0.0227(12) 1 0
O3 O2- 8 f 0.7324(2) 0.4679(5) 0.54867(17) 0.0153(10) 1 0
O4 O2- 8 f 0.7224(3) 0.4578(5) 0.64628(18) 0.0205(11) 1 0
O5 O2- 8 f 0.9242(3) 0.7476(5) 0.65902(19) 0.0237(12) 1 0
O6 O2- 4 e 0.5 0.9044(7) 0.75 0.0214(16) 1 0
O7 O2- 8 f 0.2172(3) 0.7286(5) 0.58770(18) 0.0190(11) 1 0
O8 O2- 8 f 0.3576(3) 0.8617(5) 0.69634(18) 0.0233(12) 1 0
O9 O2- 8 f 0.5724(3) 0.6714(5) 0.74096(19) 0.0209(12) 1 0
O10 O2- 8 f 0.6494(3) 0.8679(5) 0.42262(18) 0.0195(11) 1 0
O11 O2- 8 f 0.7073(3) 0.7246(5) 0.5627(2) 0.0304(13) 1 0
O12 O2- 8 f 0.5991(3) 0.4038(5) 0.57872(18) 0.0197(11) 1 0
O13 O2- 8 f 0.4263(3) 0.8539(5) 0.40202(19) 0.0230(12) 1 0
O14 O2- 8 f 0.4720(3) 0.4852(5) 0.69864(19) 0.0231(12) 1 0
O15 O2- 8 f 0.8231(3) 0.8969(5) 0.59251(19) 0.0209(11) 1 0
O16 O2- 8 f 0.6156(3) 0.8940(5) 0.69963(18) 0.0224(12) 1 0
O17 O2- 8 f 0.7657(3) 0.5122(5) 0.7407(2) 0.0318(13) 1 0
O18 O2- 8 f 0.5430(3) 0.6837(5) 0.43116(18) 0.0219(12) 1 0
O19 O2- 8 f 0.2045(3) 0.5794(5) 0.66518(19) 0.0224(12) 1 0
Br1 Br1- 8 f 0.45754(5) 0.76989(9) 0.56089(4) 0.0377(3) 1 0
loop_
_atom_site_aniso_label
_atom_site_aniso_type_symbol
_atom_site_aniso_U_11
_atom_site_aniso_U_22
_atom_site_aniso_U_33
_atom_site_aniso_U_12
_atom_site_aniso_U_13
_atom_site_aniso_U_23
Na1 Na1+ 0.0193(15) 0.0262(18) 0.051(2) 0.0009(13) 0.0027(14) -0.0056(15)
Na2 Na1+ 0.043(2) 0.040(2) 0.057(2) 0.0133(16) 0.0239(17) -0.0044(17)
Na3 Na1+ 0.0280(18) 0.065(2) 0.046(2) -0.0079(16) 0.0112(15) -0.0213(18)
Na4 Na1+ 0.0296(18) 0.053(2) 0.069(3) -0.0056(16) -0.0056(17) 0.0319(19)
Na5 Na1+ 0.0317(17) 0.0260(18) 0.041(2) 0.0026(13) 0.0093(14) 0.0057(15)
Na6 Na1+ 0.099(4) 0.028(3) 0.042(3) 0.006(3) 0.044(3) -0.002(2)
B1 B3+ 0.013(4) 0.006(4) 0.049(7) -0.002(3) 0.009(4) -0.001(4)
B2 B3+ 0.014(4) 0.019(5) 0.020(5) 0.001(3) 0.006(4) 0.007(4)
B3 B3+ 0.015(4) 0.019(5) 0.024(5) 0.006(4) 0.010(4) 0.006(4)
B4 B3+ 0.009(4) 0.011(5) 0.036(6) 0.002(3) 0.009(4) -0.004(4)
B5 B3+ 0.012(4) 0.030(5) 0.016(5) -0.002(4) 0.005(4) -0.008(4)
B6 B3+ 0.025(7) 0.031(8) 0.018(8) 0. 0.007(6) 0.
B7 B3+ 0.016(4) 0.021(5) 0.012(5) 0.003(4) 0.003(3) -0.002(4)
B8 B3+ 0.022(4) 0.015(5) 0.021(5) -0.008(4) -0.002(4) -0.001(4)
B9 B3+ 0.026(5) 0.013(5) 0.031(6) -0.002(4) 0.010(4) -0.006(4)
B10 B3+ 0.029(5) 0.019(5) 0.024(6) -0.003(4) 0.003(4) -0.006(5)
B11 B3+ 0.018(4) 0.040(6) 0.018(5) -0.008(4) 0.006(4) 0.004(5)
O1 O2- 0.062(5) 0.026(5) 0.018(5) 0. -0.017(4) 0.
O2 O2- 0.011(2) 0.019(3) 0.038(3) 0.000(2) 0.004(2) -0.004(2)
O3 O2- 0.0144(13) 0.0147(14) 0.0168(13) -0.0014(9) 0.0034(9) -0.0001(9)
O4 O2- 0.021(3) 0.023(3) 0.017(3) 0.008(2) 0.001(2) -0.002(2)
O5 O2- 0.030(3) 0.019(3) 0.020(3) -0.003(2) -0.001(2) 0.000(2)
O6 O2- 0.014(3) 0.019(4) 0.031(4) 0. 0.004(3) 0.
O7 O2- 0.020(2) 0.013(3) 0.026(3) 0.000(2) 0.009(2) 0.002(2)
O8 O2- 0.020(3) 0.030(3) 0.021(3) 0.005(2) 0.005(2) -0.002(2)
O9 O2- 0.011(2) 0.011(3) 0.042(3) 0.003(2) 0.011(2) 0.002(2)
O10 O2- 0.018(3) 0.016(3) 0.025(3) -0.003(2) 0.005(2) -0.001(2)
O11 O2- 0.016(3) 0.018(3) 0.055(4) 0.003(2) 0.001(2) -0.005(3)
O12 O2- 0.015(2) 0.016(3) 0.028(3) 0.000(2) 0.004(2) 0.002(2)
O13 O2- 0.012(2) 0.016(3) 0.041(3) 0.002(2) 0.007(2) 0.007(2)
O14 O2- 0.028(3) 0.011(3) 0.030(3) -0.005(2) 0.003(2) -0.001(2)
O15 O2- 0.013(2) 0.015(3) 0.034(3) 0.000(2) 0.002(2) -0.005(2)
O16 O2- 0.022(3) 0.028(3) 0.017(3) -0.008(2) 0.003(2) -0.001(2)
O17 O2- 0.023(3) 0.048(4) 0.022(3) 0.014(2) 0.001(2) -0.013(3)
O18 O2- 0.014(2) 0.023(3) 0.028(3) 0.004(2) 0.003(2) 0.006(2)
O19 O2- 0.021(3) 0.027(3) 0.020(3) -0.001(2) 0.005(2) 0.005(2)
Br1 Br1- 0.0345(5) 0.0364(6) 0.0434(6) -0.0041(4) 0.0098(4) -0.0024(4)
#End of TTdata_425911-ICSD