
#(C) 2019 by FIZ Karlsruhe - Leibniz Institute for Information Infrastructure.  All rights reserved.
data_426135-ICSD
_database_code_ICSD 426135
_audit_creation_date 2017-08-01
_chemical_name_systematic
'Sodium trialuminium bis(phosphate(V)) tetrahydroxide dihydrate'
_chemical_formula_structural 'Na Al3 (P O4)2 (O H)4 (H2 O)2'
_chemical_formula_sum 'H8 Al3 Na1 O14 P2'
_chemical_name_mineral Vauxite
_exptl_crystal_density_diffrn 2.76
_cell_measurement_temperature 293.
_publ_section_title

;
Structure refinement and vibrational spectroscopy of vauxite from the type
locality, Llallagua (Bolivia)
;
loop_
_citation_id
_citation_journal_full
_citation_year
_citation_journal_volume
_citation_page_first
_citation_page_last
_citation_journal_id_ASTM
primary 'Canadian Mineralogist' 2016 54 163 176 CAMIA6
loop_
_publ_author_name
'Ventruti, Gennaro'
'Schingaro, Emanuela'
'Monno, Alessandro'
'Lacalamita, Maria'
'Della Ventura, Giancarlo'
'Bellatreccia, Fabio'
'Cuocci, Corrado'
'Rossi, Manuela'
'Capitelli, Francesco'
_cell_length_a 7.0720(6)
_cell_length_b 7.0720(6)
_cell_length_c 19.1260(16)
_cell_angle_alpha 90.
_cell_angle_beta 90.
_cell_angle_gamma 90.
_cell_volume 956.55
_cell_formula_units_Z 4
_symmetry_space_group_name_H-M 'P 43 21 2'
_symmetry_Int_Tables_number 96
_refine_ls_R_factor_all 0.02
loop_
_symmetry_equiv_pos_site_id
_symmetry_equiv_pos_as_xyz
1 'x+1/2, -y+1/2, -z+1/4'
2 '-x+1/2, y+1/2, -z+3/4'
3 '-y, -x, -z+1/2'
4 'y, x, -z'
5 'y+1/2, -x+1/2, z+1/4'
6 '-y+1/2, x+1/2, z+3/4'
7 '-x, -y, z+1/2'
8 'x, y, z'
loop_
_atom_type_symbol
_atom_type_oxidation_number
P5+ 5
Al3+ 3
Na1+ 1
O2- -2
H1+ 1
loop_
_atom_site_label
_atom_site_type_symbol
_atom_site_symmetry_multiplicity
_atom_site_Wyckoff_symbol
_atom_site_fract_x
_atom_site_fract_y
_atom_site_fract_z
_atom_site_B_iso_or_equiv
_atom_site_occupancy
_atom_site_attached_hydrogens
P1 P5+ 8 b 0.85918(5) 0.63410(4) 0.651221(15) 0.00831(9) 1 0
Al1 Al3+ 8 b 0.60375(6) 0.89324(6) 0.74206(2) 0.00895(10) 1 0
Al2 Al3+ 4 a 0.89702(6) 0.89702(6) 0. 0.00865(13) 1 0
Na1 Na1+ 4 a 0.62690(9) 0.62690(9) 0.5 0.01757(19) 1 0
O1 O2- 8 b 0.03747(13) 0.57492(14) 0.69069(5) 0.0130(2) 1 0
O2 O2- 8 b 0.69992(14) 0.48607(13) 0.66246(5) 0.01116(19) 1 0
O3 O2- 8 b 0.79481(14) 0.82585(14) 0.67949(5) 0.0129(2) 1 0
O4 O2- 8 b 0.90066(13) 0.64864(14) 0.57280(5) 0.0123(2) 1 0
O5 O2- 8 b 0.86740(13) 0.64777(15) 0.03900(5) 0.0113(2) 1 0
O6 O2- 8 b 0.81196(15) 0.96721(14) 0.80865(5) 0.0157(2) 1 0
O7 O2- 8 b 0.59141(14) 0.65006(14) 0.78331(5) 0.0121(2) 1 0
H1 H1+ 8 b 0.9173 0.6496 0.0824 0.020(5) 1 0
H2 H1+ 8 b 0.4954 0.6506 0.8153 0.048(7) 1 0
H3 H1+ 8 b 0.8449 1.0981 0.8133 0.030(5) 1 0
H4 H1+ 8 b 0.8637 0.9002 0.8488 0.033(6) 1 0
loop_
_atom_site_aniso_label
_atom_site_aniso_type_symbol
_atom_site_aniso_U_11
_atom_site_aniso_U_22
_atom_site_aniso_U_33
_atom_site_aniso_U_12
_atom_site_aniso_U_13
_atom_site_aniso_U_23
P1 P5+ 0.00773(16) 0.00818(16) 0.00902(18) -0.00002(12) 0.00017(11) 0.00001(11)
Al1 Al3+ 0.00910(19) 0.00765(19) 0.01009(19) 0.00061(13) 0.00039(14)
-0.00016(14)
Al2 Al3+ 0.00781(17) 0.00781(17) 0.0103(3) -0.00027(19) 0.00045(13) -0.00045(13)
Na1 Na1+ 0.0169(3) 0.0169(3) 0.0190(4) 0.0009(3) -0.0009(2) 0.0009(2)
O1 O2- 0.0100(4) 0.0157(5) 0.0134(4) -0.0001(4) -0.0007(4) 0.0027(4)
O2 O2- 0.0097(5) 0.0116(5) 0.0122(4) -0.0025(4) 0.0004(3) -0.0003(4)
O3 O2- 0.0131(4) 0.0104(5) 0.0150(4) 0.0012(4) 0.0038(4) -0.0010(4)
O4 O2- 0.0102(4) 0.0161(5) 0.0106(4) 0.0005(4) 0.0004(3) 0.0001(3)
O5 O2- 0.0137(5) 0.0092(4) 0.0112(4) -0.0001(4) -0.0015(3) -0.0005(3)
O6 O2- 0.0182(5) 0.0128(5) 0.0162(4) -0.0018(4) -0.0056(4) 0.0008(4)
O7 O2- 0.0128(5) 0.0094(4) 0.0141(4) 0.0012(4) 0.0012(4) 0.0001(4)
#End of TTdata_426135-ICSD