
#(C) 2017 by FIZ Karlsruhe - Leibniz Institute for Information Infrastructure.  All rights reserved.
data_426216-ICSD
_database_code_ICSD 426216
_audit_creation_date 2014-08-01
_chemical_name_systematic 'Lithium cerium(IV) fluoride'
_chemical_formula_structural 'Li Ce F5'
_chemical_formula_sum 'Ce1 F5 Li1'
_exptl_crystal_density_diffrn 5.07
_cell_measurement_temperature 293.
_cell_measurement_pressure 9540000.
_publ_section_title

;
Crystal structures and stability of Li Ce F5 and Li Th F5 at high pressures: A
comparative study of the coordination around the Ce(4+) and Th(4+) ions
;
loop_
_citation_id
_citation_journal_full
_citation_year
_citation_journal_volume
_citation_page_first
_citation_page_last
_citation_journal_id_ASTM
primary 'Journal of Fluorine Chemistry' 2013 156 124 129 JFLCAR
loop_
_publ_author_name
'Grzechnik, Andrzej'
'Underwood, Christopher C.'
'Kolis, Joseph W.'
'Friese, Karen'
_cell_length_a 14.1996(11)
_cell_length_b 14.1996(11)
_cell_length_c 6.2974(5)
_cell_angle_alpha 90.
_cell_angle_beta 90.
_cell_angle_gamma 90.
_cell_volume 1269.73
_cell_formula_units_Z 16
_symmetry_space_group_name_H-M 'I 41/a S'
_symmetry_Int_Tables_number 88
_refine_ls_R_factor_all 0.0567
loop_
_symmetry_equiv_pos_site_id
_symmetry_equiv_pos_as_xyz
1 'y, -x+1/2, z+1/4'
2 '-y, x+1/2, z+1/4'
3 'y, -x, -z'
4 '-y, x, -z'
5 '-x, -y+1/2, -z+1/4'
6 'x, y+1/2, -z+1/4'
7 '-x, -y, z'
8 'x, y, z'
9 'y+1/2, -x, z+3/4'
10 '-y+1/2, x, z+3/4'
11 'y+1/2, -x+1/2, -z+1/2'
12 '-y+1/2, x+1/2, -z+1/2'
13 '-x+1/2, -y, -z+3/4'
14 'x+1/2, y, -z+3/4'
15 '-x+1/2, -y+1/2, z+1/2'
16 'x+1/2, y+1/2, z+1/2'
loop_
_atom_type_symbol
_atom_type_oxidation_number
Ce4+ 4
F1- -1
Li1+ 1
loop_
_atom_site_label
_atom_site_type_symbol
_atom_site_symmetry_multiplicity
_atom_site_Wyckoff_symbol
_atom_site_fract_x
_atom_site_fract_y
_atom_site_fract_z
_atom_site_B_iso_or_equiv
_atom_site_occupancy
_atom_site_attached_hydrogens
Ce1 Ce4+ 16 f 0.1955(2) 0.0621(2) 0.1220(5) 0.0134(9) 1 0
F1 F1- 16 f 0.2948(18) 0.0737(17) 0.381(4) 0.021(6) 1 0
F2 F1- 16 f 0.2950(20) 0.166(2) -0.013(3) 0.017(6) 1 0
F3 F1- 16 f 0.0772(17) 0.0540(16) 0.352(4) 0.014(7) 1 0
F4 F1- 16 f 0.302(2) -0.038(2) 0.003(3) 0.020(6) 1 0
F5 F1- 16 f 0.066(2) 0.111(2) -0.048(3) 0.023(7) 1 0
Li1 Li1+ 16 f 0.417(7) -0.059(6) 0.083(12) 0.0285 1 0
#End of TTdata_426216-ICSD