
#(C) 2018 by FIZ Karlsruhe - Leibniz Institute for Information Infrastructure.  All rights reserved.
data_426432-ICSD
_database_code_ICSD 426432
_audit_creation_date 2015-02-01
_chemical_name_systematic 'Lithium manganese nickel phosphate (1/0.95/0.05/1)'
_chemical_formula_structural 'Li (Mn0.95 Ni0.05) (P O4)'
_chemical_formula_sum 'Li1 Mn0.95 Ni0.05 O4 P1'
_chemical_name_structure_type Olivine-Mg2SiO4
_exptl_crystal_density_diffrn 3.48
_cell_measurement_temperature 110.
_publ_section_title

;
Growth, characterization, and magnetic properties of a Li (Mn, Ni) P O4 single
crystal
;
loop_
_citation_id
_citation_journal_full
_citation_year
_citation_journal_volume
_citation_page_first
_citation_page_last
_citation_journal_id_ASTM
primary 'Journal of Crystal Growth' 2014 386 16 21 JCRGAE
loop_
_publ_author_name
'Wang, Kunpeng'
'Maljuk, Andrey'
'Blum, Christian G.F.'
'Kolb, Thomas'
'Jaehne, Carsten'
'Neef, Christoph'
'Grafe, Hans-Joachim'
'Giebeler, Lars'
'Wadepohl, Hubert'
'Meyer, Hans-Peter'
'Wurmehl, Sabine'
'Klingeler, Ruediger'
_cell_length_a 10.41218(16)
_cell_length_b 6.08398(10)
_cell_length_c 4.72553(7)
_cell_angle_alpha 90.
_cell_angle_beta 90.
_cell_angle_gamma 90.
_cell_volume 299.35
_cell_formula_units_Z 4
_symmetry_space_group_name_H-M 'P n m a'
_symmetry_Int_Tables_number 62
_refine_ls_R_factor_all 0.0176
loop_
_symmetry_equiv_pos_site_id
_symmetry_equiv_pos_as_xyz
1 'x+1/2, y, -z+1/2'
2 'x, -y+1/2, z'
3 '-x+1/2, y+1/2, z+1/2'
4 '-x, -y, -z'
5 '-x+1/2, -y, z+1/2'
6 '-x, y+1/2, -z'
7 'x+1/2, -y+1/2, -z+1/2'
8 'x, y, z'
loop_
_atom_type_symbol
_atom_type_oxidation_number
Mn2+ 2
P5+ 5
O2- -2
Li1+ 1
Ni2+ 2
loop_
_atom_site_label
_atom_site_type_symbol
_atom_site_symmetry_multiplicity
_atom_site_Wyckoff_symbol
_atom_site_fract_x
_atom_site_fract_y
_atom_site_fract_z
_atom_site_B_iso_or_equiv
_atom_site_occupancy
_atom_site_attached_hydrogens
Mn1 Mn2+ 4 c 0.28076(2) 0.25 0.47181(6) 0.00926(12) 0.95 0
P1 P5+ 4 c 0.40810(4) -0.25 0.40937(9) 0.00877(13) 1 0
O1 O2- 4 c 0.54520(11) -0.25 0.2881(3) 0.0102(2) 1 0
O2 O2- 8 d 0.33874(8) -0.04884(15) 0.27671(19) 0.01097(19) 1 0
O3 O2- 4 c 0.40391(11) -0.25 0.7313(3) 0.0111(2) 1 0
Li1 Li1+ 4 b 0.5 -0.5 0. 0.0061(5) 1 0
Ni1 Ni2+ 4 c 0.28076(2) 0.25 0.47181(6) 0.00926(12) 0.05 0
loop_
_atom_site_aniso_label
_atom_site_aniso_type_symbol
_atom_site_aniso_U_11
_atom_site_aniso_U_22
_atom_site_aniso_U_33
_atom_site_aniso_U_12
_atom_site_aniso_U_13
_atom_site_aniso_U_23
Mn1 Mn2+ 0.00918(16) 0.01035(17) 0.00824(16) 0. 0.00014(8) 0.
P1 P5+ 0.0090(2) 0.0102(2) 0.0070(2) 0. 0.00000(13) 0.
O1 O2- 0.0100(5) 0.0125(5) 0.0082(5) 0. 0.0004(4) 0.
O2 O2- 0.0124(4) 0.0113(4) 0.0092(4) 0.0013(3) -0.0009(3) -0.0002(3)
O3 O2- 0.0115(5) 0.0140(5) 0.0077(5) 0. -0.0002(4) 0.
Li1 Li1+ 0.0064(11) 0.0079(12) 0.0040(11) 0.0003(10) 0.0016(8) -0.0029(9)
Ni1 Ni2+ 0.00918(16) 0.01035(17) 0.00824(16) 0. 0.00014(8) 0.
#End of TTdata_426432-ICSD