
#(C) 2019 by FIZ Karlsruhe - Leibniz Institute for Information Infrastructure.  All rights reserved.
data_426747-ICSD
_database_code_ICSD 426747
_audit_creation_date 2014-02-01
_chemical_name_systematic 'Trisodium praseodymium cyclotriphosphate hexahydrate'
_chemical_formula_structural 'Na3 Pr (P3 O9)2 (H2 O)6'
_chemical_formula_sum 'H12 Na3 O24 P6 Pr1'
_exptl_crystal_density_diffrn 2.54
_cell_measurement_temperature 293.
_publ_section_title

;
Syntheses and Crystal Structures of the Cyclotriphosphate Hydrates Nd (P3 O9)
* 3 H2 O, Nd (P3 O9) * 4.5 H2 O, RE (P3 O9) * 5 H2 O (RE = Pr, Nd), and Na3 RE
(P3 O9)2 * 6 H2 O (RE = Pr, Nd)
;
loop_
_citation_id
_citation_journal_full
_citation_year
_citation_journal_volume
_citation_page_first
_citation_page_last
_citation_journal_id_ASTM
primary 'Zeitschrift fuer Anorganische und Allgemeine Chemie (1950) (DE)' 2014
640 46 52 ZAACAB
loop_
_publ_author_name
'Daub, Michael'
'Kazmierczak, Karolina'
'Hoeppe, Henning A.'
_cell_length_a 10.6142(16)
_cell_length_b 12.090(2)
_cell_length_c 16.355(3)
_cell_angle_alpha 90.
_cell_angle_beta 99.841(13)
_cell_angle_gamma 90.
_cell_volume 2067.88
_cell_formula_units_Z 4
_symmetry_space_group_name_H-M 'P 1 21/n 1'
_symmetry_Int_Tables_number 14
_refine_ls_R_factor_all 0.0353
loop_
_symmetry_equiv_pos_site_id
_symmetry_equiv_pos_as_xyz
1 '-x+1/2, y+1/2, -z+1/2'
2 '-x, -y, -z'
3 'x+1/2, -y+1/2, z+1/2'
4 'x, y, z'
loop_
_atom_type_symbol
_atom_type_oxidation_number
Pr3+ 3
Na1+ 1
P5+ 5
O2- -2
P5+ 5
O2- -2
P5+ 5
O2- -2
P5+ 5
O2- -2
P5+ 5
O2- -2
P5+ 5
O2- -2
H1+ 1
O2- -2
H1+ 1
O2- -2
H1+ 1
O2- -2
H1+ 1
O2- -2
H1+ 1
O2- -2
H1+ 1
loop_
_atom_site_label
_atom_site_type_symbol
_atom_site_symmetry_multiplicity
_atom_site_Wyckoff_symbol
_atom_site_fract_x
_atom_site_fract_y
_atom_site_fract_z
_atom_site_B_iso_or_equiv
_atom_site_occupancy
_atom_site_attached_hydrogens
Pr1 Pr3+ 4 e 0.49153(6) 0.22378(6) 0.21353(5) 0.0352(2) 1 0
Na1 Na1+ 4 e 0.8051(3) 0.2191(4) 0.1550(3) 0.0490(12) 1 0
Na2 Na1+ 4 e 1.1448(4) 0.2252(5) 0.1323(3) 0.0626(14) 1 0
Na3 Na1+ 2 a 0.5 0.5 0.5 0.063(2) 1 0
Na4 Na1+ 4 e 0.1376(7) 0.5625(7) -0.0313(5) 0.036(2) 0.5 0
P1 P5+ 4 e 0.3286(3) -0.0214(3) 0.12644(19) 0.0263(8) 1 0
O1 O2- 4 e 0.2154(6) -0.0760(6) 0.0791(5) 0.0300(19) 1 0
O2 O2- 4 e 0.3253(7) 0.1005(6) 0.1428(5) 0.031(2) 1 0
P2 P5+ 4 e 0.5990(3) -0.0285(3) 0.1282(2) 0.0255(8) 1 0
O3 O2- 4 e 0.6189(7) 0.0912(6) 0.1452(5) 0.031(2) 1 0
O4 O2- 4 e 0.6813(6) -0.0916(6) 0.0822(4) 0.033(2) 1 0
P3 P5+ 4 e 1.0011(3) 0.4344(2) 0.2244(2) 0.0275(8) 1 0
O5 O2- 4 e 0.9851(7) 0.3489(6) 0.1605(4) 0.0312(19) 1 0
O6 O2- 4 e 0.9930(8) 0.5530(6) 0.2013(5) 0.031(2) 1 0
P4 P5+ 4 e 0.3401(3) 0.4784(3) 0.1418(2) 0.0281(8) 1 0
O7 O2- 4 e 0.3280(7) 0.3569(6) 0.1521(5) 0.033(2) 1 0
O8 O2- 4 e 0.2332(7) 0.5429(6) 0.0968(5) 0.039(2) 1 0
P5 P5+ 4 e 0.6118(3) 0.4782(3) 0.1451(2) 0.0287(9) 1 0
O9 O2- 4 e 0.6275(6) 0.3563(6) 0.1574(4) 0.030(2) 1 0
O10 O2- 4 e 0.7007(7) 0.5387(7) 0.1025(5) 0.043(2) 1 0
P6 P5+ 4 e 0.5110(3) 0.5054(3) 0.2930(2) 0.0257(8) 1 0
O11 O2- 4 e 0.5284(7) 0.5843(6) 0.3634(4) 0.032(2) 1 0
O12 O2- 4 e 0.5159(6) 0.3842(5) 0.3079(4) 0.0267(19) 1 0
O13 O2- 4 e 0.4532(6) -0.0461(6) 0.0860(4) 0.0238(18) 1 0
O14 O2- 4 e 0.9007(6) 0.4084(5) 0.2849(4) 0.0231(18) 1 0
O15 O2- 4 e 1.1331(6) 0.4152(6) 0.2860(5) 0.029(2) 1 0
O16 O2- 4 e 0.4659(7) 0.5026(6) 0.1023(5) 0.034(2) 1 0
O17 O2- 4 e 0.6137(6) 0.5371(5) 0.2347(4) 0.0251(18) 1 0
O18 O2- 4 e 0.3793(6) 0.5346(5) 0.2327(4) 0.0215(17) 1 0
O19 O2- 4 e 0.3254(8) 0.2243(8) 0.3068(6) 0.075(3) 1 0
H1 H1+ 4 e 0.305(9) 0.162(6) 0.341(5) 0.05 1 0
H2 H1+ 4 e 0.358(8) 0.216(10) 0.254(3) 0.05 1 0
O20 O2- 4 e 0.7062(6) 0.2205(8) 0.3038(5) 0.046(2) 1 0
H3 H1+ 4 e 0.733(10) 0.155(5) 0.339(6) 0.05 1 0
H4 H1+ 4 e 0.730(9) 0.276(7) 0.348(5) 0.05 1 0
O21 O2- 4 e 0.7409(8) 0.2602(7) 0.0150(5) 0.059(2) 1 0
H5 H1+ 4 e 0.744(9) 0.199(6) -0.025(5) 0.05 1 0
H6 H1+ 4 e 0.669(5) 0.253(9) 0.046(5) 0.05 1 0
O22 O2- 4 e 0.6132(8) 0.3356(8) 0.4918(6) 0.064(3) 1 0
H7 H1+ 4 e 0.571(8) 0.263(4) 0.494(6) 0.05 1 0
H8 H1+ 4 e 0.689(6) 0.318(8) 0.534(5) 0.05 1 0
O23 O2- 4 e 0.4613(9) 0.2466(8) 0.0330(6) 0.082(3) 1 0
H9 H1+ 4 e 0.415(8) 0.197(7) -0.010(5) 0.05 1 0
H10 H1+ 4 e 0.484(10) 0.286(8) -0.016(4) 0.05 1 0
O24 O2- 4 e 0.5445(11) 0.1097(10) 0.4738(8) 0.092(4) 1 0
H11 H1+ 4 e 0.602(9) 0.045(6) 0.475(7) 0.05 1 0
H12 H1+ 4 e 0.522(10) 0.086(9) 0.415(2) 0.05 1 0
loop_
_atom_site_aniso_label
_atom_site_aniso_type_symbol
_atom_site_aniso_U_11
_atom_site_aniso_U_22
_atom_site_aniso_U_33
_atom_site_aniso_U_12
_atom_site_aniso_U_13
_atom_site_aniso_U_23
Pr1 Pr3+ 0.0223(3) 0.0164(3) 0.0679(5) -0.0015(4) 0.0106(3) -0.0059(5)
Na1 Na1+ 0.035(2) 0.039(2) 0.073(3) 0.008(3) 0.013(2) 0.004(3)
Na2 Na1+ 0.039(2) 0.043(3) 0.112(4) -0.006(3) 0.027(3) -0.028(4)
Na3 Na1+ 0.051(5) 0.082(6) 0.056(5) -0.002(4) 0.010(4) 0.016(4)
Na4 Na1+ 0.029(5) 0.048(6) 0.032(5) 0.014(4) 0.010(4) 0.008(5)
P1 P5+ 0.0210(17) 0.024(2) 0.034(2) -0.0001(13) 0.0039(14) 0.0000(15)
O1 O2- 0.018(4) 0.029(5) 0.042(5) -0.005(3) 0.002(4) -0.006(4)
O2 O2- 0.030(5) 0.022(5) 0.041(5) 0.008(3) 0.002(4) 0.008(4)
P2 P5+ 0.0200(17) 0.026(2) 0.0315(19) -0.0020(13) 0.0064(14) -0.0016(15)
O3 O2- 0.026(5) 0.027(6) 0.044(6) -0.004(4) 0.013(4) 0.005(4)
O4 O2- 0.030(4) 0.046(5) 0.025(5) 0.007(4) 0.010(4) -0.011(4)
P3 P5+ 0.0269(16) 0.0191(17) 0.036(2) 0.0022(15) 0.0037(15) -0.0023(16)
O5 O2- 0.033(4) 0.033(5) 0.030(5) 0.000(4) 0.011(4) -0.019(4)
O6 O2- 0.042(5) 0.019(5) 0.034(5) 0.002(4) 0.011(4) 0.001(4)
P4 P5+ 0.0217(18) 0.025(2) 0.037(2) 0.0004(14) 0.0038(15) -0.0004(16)
O7 O2- 0.031(5) 0.023(5) 0.048(5) -0.001(3) 0.012(4) -0.002(4)
O8 O2- 0.041(5) 0.032(5) 0.037(5) 0.014(4) -0.009(4) -0.008(4)
P5 P5+ 0.026(2) 0.030(2) 0.030(2) -0.0085(15) 0.0050(16) -0.0053(16)
O9 O2- 0.027(5) 0.028(5) 0.035(5) -0.005(3) 0.001(4) -0.007(4)
O10 O2- 0.032(5) 0.064(6) 0.038(5) -0.030(4) 0.014(4) -0.014(4)
P6 P5+ 0.0232(17) 0.028(2) 0.0267(18) -0.0005(17) 0.0078(14) 0.0004(18)
O11 O2- 0.034(4) 0.038(5) 0.027(5) -0.002(4) 0.011(4) -0.010(4)
O12 O2- 0.025(4) 0.026(5) 0.029(5) 0.001(4) 0.003(4) 0.011(4)
O13 O2- 0.010(4) 0.035(5) 0.027(5) 0.001(3) 0.004(3) -0.005(4)
O14 O2- 0.015(4) 0.025(5) 0.028(5) -0.009(3) 0.003(4) 0.000(3)
O15 O2- 0.025(4) 0.022(5) 0.040(5) 0.006(3) 0.005(4) -0.002(4)
O16 O2- 0.030(5) 0.040(5) 0.034(5) -0.009(4) 0.005(4) -0.004(4)
O17 O2- 0.026(4) 0.029(5) 0.021(4) -0.008(3) 0.006(3) -0.009(4)
O18 O2- 0.018(4) 0.017(4) 0.026(4) -0.002(3) -0.003(3) -0.010(3)
O19 O2- 0.094(6) 0.027(4) 0.129(8) 0.005(6) 0.090(6) 0.015(7)
O20 O2- 0.040(4) 0.021(4) 0.069(6) 0.004(5) -0.008(4) 0.000(5)
O21 O2- 0.086(6) 0.045(6) 0.055(6) -0.016(5) 0.039(5) -0.014(5)
O22 O2- 0.041(6) 0.091(7) 0.057(7) -0.015(5) 0.000(5) -0.013(6)
O23 O2- 0.067(6) 0.072(10) 0.107(9) -0.007(5) 0.011(6) -0.034(7)
O24 O2- 0.098(9) 0.094(10) 0.078(9) 0.000(6) 0.000(7) -0.027(7)
#End of TTdata_426747-ICSD