
#(C) 2019 by FIZ Karlsruhe - Leibniz Institute for Information Infrastructure.  All rights reserved.
data_426907-ICSD
_database_code_ICSD 426907
_audit_creation_date 2014-08-01
_chemical_name_systematic 'Tetrasodium hexathiodiphosphate(IV)'
_chemical_formula_structural 'Na4 P2 S6'
_chemical_formula_sum 'Na4 P2 S6'
_exptl_crystal_density_diffrn 2.11
_cell_measurement_temperature 293.
_publ_section_title

;
Synthesis and structural characterization of the alkali thiophosphates Na2 P2
S6, Na4 P2 S6, K4 P2 S6, and Rb4 P2 S6
;
loop_
_citation_id
_citation_journal_full
_citation_year
_citation_journal_volume
_citation_page_first
_citation_page_last
_citation_journal_id_ASTM
primary 'Zeitschrift fuer Anorganische und Allgemeine Chemie (1950) (DE)' 2014
640 689 692 ZAACAB
loop_
_publ_author_name
'Kuhn, Alexander'
'Eger, Roland'
'Nuss, Juergen'
'Lotsch, Bettina V.'
_cell_length_a 6.7250(13)
_cell_length_b 11.222(2)
_cell_length_c 7.5417(15)
_cell_angle_alpha 90.
_cell_angle_beta 107.03(3)
_cell_angle_gamma 90.
_cell_volume 544.2
_cell_formula_units_Z 2
_symmetry_space_group_name_H-M 'C 1 2/m 1'
_symmetry_Int_Tables_number 12
_refine_ls_R_factor_all 0.0353
loop_
_symmetry_equiv_pos_site_id
_symmetry_equiv_pos_as_xyz
1 '-x, y, -z'
2 '-x, -y, -z'
3 'x, -y, z'
4 'x, y, z'
5 '-x+1/2, y+1/2, -z'
6 '-x+1/2, -y+1/2, -z'
7 'x+1/2, -y+1/2, z'
8 'x+1/2, y+1/2, z'
loop_
_atom_type_symbol
_atom_type_oxidation_number
P4+ 4
S2- -2
Na1+ 1
loop_
_atom_site_label
_atom_site_type_symbol
_atom_site_symmetry_multiplicity
_atom_site_Wyckoff_symbol
_atom_site_fract_x
_atom_site_fract_y
_atom_site_fract_z
_atom_site_B_iso_or_equiv
_atom_site_occupancy
_atom_site_attached_hydrogens
P1 P4+ 4 i 0.5532(2) 0.5 0.15610(18) 0.0145(4) 1 0
S1 S2- 4 i 0.2942(2) 0.5 0.2414(2) 0.0199(4) 1 0
S2 S2- 8 j 0.72330(18) 0.34993(8) 0.23122(17) 0.0222(4) 1 0
Na1 Na1+ 4 g 0.5 0.16273(19) 0. 0.0284(7) 1 0
Na2 Na1+ 4 h 0.5 0.3153(3) 0.5 0.0361(8) 1 0
loop_
_atom_site_aniso_label
_atom_site_aniso_type_symbol
_atom_site_aniso_U_11
_atom_site_aniso_U_22
_atom_site_aniso_U_33
_atom_site_aniso_U_12
_atom_site_aniso_U_13
_atom_site_aniso_U_23
P1 P4+ 0.0175(7) 0.0131(5) 0.0136(6) 0. 0.0058(5) 0.
S1 S2- 0.0187(7) 0.0229(6) 0.0201(7) 0. 0.0088(6) 0.
S2 S2- 0.0265(6) 0.0191(5) 0.0219(6) 0.0074(3) 0.0083(4) 0.0039(3)
Na1 Na1+ 0.0292(16) 0.0232(11) 0.0355(18) 0. 0.0134(15) 0.
Na2 Na1+ 0.045(2) 0.0390(14) 0.0295(17) 0. 0.0182(17) 0.
#End of TTdata_426907-ICSD