
#(C) 2019 by FIZ Karlsruhe - Leibniz Institute for Information Infrastructure.  All rights reserved.
data_427360-ICSD
_database_code_ICSD 427360
_audit_creation_date 2015-02-01
_chemical_name_systematic 'Sodium hydrogen selenate(IV) - beta phase'
_chemical_formula_structural 'Na H Se O4'
_chemical_formula_sum 'H1 Na1 O4 Se1'
_exptl_crystal_density_diffrn 3.14
_cell_measurement_temperature 100.
_publ_section_title

;
Polymorphism of H2 Se O3, Na H Se O4 and Na5 H3 (Se O4)4 (H2 O)2, and
Re-refinement of the crystal structure of Te2 O4 (O H)2
;
loop_
_citation_id
_citation_journal_full
_citation_year
_citation_journal_volume
_citation_page_first
_citation_page_last
_citation_journal_id_ASTM
primary 'Zeitschrift fuer Anorganische und Allgemeine Chemie (1950) (DE)' 2014
640 1622 1631 ZAACAB
loop_
_publ_author_name
'Pollitt, Stephan'
'Weil, Matthias'
_cell_length_a 5.0814(2)
_cell_length_b 5.6345(3)
_cell_length_c 6.5125(3)
_cell_angle_alpha 88.352(3)
_cell_angle_beta 73.163(3)
_cell_angle_gamma 82.027(3)
_cell_volume 176.72
_cell_formula_units_Z 2
_symmetry_space_group_name_H-M 'P -1'
_symmetry_Int_Tables_number 2
_refine_ls_R_factor_all 0.0303
loop_
_symmetry_equiv_pos_site_id
_symmetry_equiv_pos_as_xyz
1 '-x, -y, -z'
2 'x, y, z'
loop_
_atom_type_symbol
_atom_type_oxidation_number
Se6+ 6
Na1+ 1
O2- -2
H1+ 1
loop_
_atom_site_label
_atom_site_type_symbol
_atom_site_symmetry_multiplicity
_atom_site_Wyckoff_symbol
_atom_site_fract_x
_atom_site_fract_y
_atom_site_fract_z
_atom_site_B_iso_or_equiv
_atom_site_occupancy
_atom_site_attached_hydrogens
Se1 Se6+ 2 i 0.63005(3) 0.28735(3) 0.73849(3) 0.00496(4) 1 0
Na1 Na1+ 2 i -0.02829(16) 0.25005(14) 0.15372(13) 0.01011(12) 1 0
O1 O2- 2 i 0.6850(3) 0.1368(2) 0.5078(2) 0.01000(18) 1 0
O2 O2- 2 i 0.7730(3) 0.1266(2) 0.8961(2) 0.0112(2) 1 0
O3 O2- 2 i 0.7868(3) 0.5304(3) 0.6621(2) 0.0117(2) 1 0
O4 O2- 2 i 0.3043(3) 0.3754(3) 0.8433(2) 0.0121(2) 1 0
H1 H1+ 2 i 0.514(8) 0.074(13) 0.510(17) 0.041(18) 0.5 0
H2 H1+ 2 i 0.975(8) 0.52(2) 0.562(10) 0.041(18) 0.5 0
loop_
_atom_site_aniso_label
_atom_site_aniso_type_symbol
_atom_site_aniso_U_11
_atom_site_aniso_U_22
_atom_site_aniso_U_33
_atom_site_aniso_U_12
_atom_site_aniso_U_13
_atom_site_aniso_U_23
Se1 Se6+ 0.00444(6) 0.00497(6) 0.00542(6) -0.00048(4) -0.00144(4) 0.00017(4)
Na1 Na1+ 0.0089(3) 0.0094(3) 0.0115(3) -0.0005(2) -0.0028(2) 0.0026(2)
O1 O2- 0.0097(4) 0.0124(5) 0.0082(4) -0.0035(4) -0.0019(4) -0.0017(4)
O2 O2- 0.0122(5) 0.0121(5) 0.0092(4) 0.0031(4) -0.0053(4) 0.0018(4)
O3 O2- 0.0110(5) 0.0141(5) 0.0113(5) -0.0063(4) -0.0033(4) 0.0043(4)
O4 O2- 0.0054(4) 0.0134(5) 0.0137(5) 0.0019(4) 0.0013(4) 0.0046(4)
#End of TTdata_427360-ICSD