
#(C) 2019 by FIZ Karlsruhe - Leibniz Institute for Information Infrastructure.  All rights reserved.
data_427361-ICSD
_database_code_ICSD 427361
_audit_creation_date 2015-02-01
_chemical_name_systematic
'Pentasodium trihydrogen tetrakis(selenate(VI)) dihydrate - beta phase'
_chemical_formula_structural 'Na5 H3 (Se O4)4 (H2 O)2'
_chemical_formula_sum 'H7 Na5 O18 Se4'
_exptl_crystal_density_diffrn 2.96
_cell_measurement_temperature 100.
_publ_section_title

;
Polymorphism of H2 Se O3, Na H Se O4 and Na5 H3 (Se O4)4 (H2 O)2, and
Re-refinement of the crystal structure of Te2 O4 (O H)2
;
loop_
_citation_id
_citation_journal_full
_citation_year
_citation_journal_volume
_citation_page_first
_citation_page_last
_citation_journal_id_ASTM
primary 'Zeitschrift fuer Anorganische und Allgemeine Chemie (1950) (DE)' 2014
640 1622 1631 ZAACAB
loop_
_publ_author_name
'Pollitt, Stephan'
'Weil, Matthias'
_cell_length_a 7.0472(15)
_cell_length_b 13.194(3)
_cell_length_c 17.845(4)
_cell_angle_alpha 90.
_cell_angle_beta 101.345(9)
_cell_angle_gamma 90.
_cell_volume 1626.82
_cell_formula_units_Z 4
_symmetry_space_group_name_H-M 'I 1 2/c 1'
_symmetry_Int_Tables_number 15
_refine_ls_R_factor_all 0.0255
loop_
_symmetry_equiv_pos_site_id
_symmetry_equiv_pos_as_xyz
1 '-x, y, -z+1/2'
2 '-x, -y, -z'
3 'x, -y, z+1/2'
4 'x, y, z'
5 '-x+1/2, y+1/2, -z'
6 '-x+1/2, -y+1/2, -z+1/2'
7 'x+1/2, -y+1/2, z'
8 'x+1/2, y+1/2, z+1/2'
loop_
_atom_type_symbol
_atom_type_oxidation_number
Na1+ 1
Se6+ 6
O2- -2
H1+ 1
loop_
_atom_site_label
_atom_site_type_symbol
_atom_site_symmetry_multiplicity
_atom_site_Wyckoff_symbol
_atom_site_fract_x
_atom_site_fract_y
_atom_site_fract_z
_atom_site_B_iso_or_equiv
_atom_site_occupancy
_atom_site_attached_hydrogens
Na1 Na1+ 8 f 0.58966(14) 0.59356(8) 0.15484(6) 0.0105(2) 1 0
Na2 Na1+ 4 e 0. 0.25471(12) 0.25 0.0139(3) 1 0
Na3 Na1+ 8 f 0.36013(14) 0.07831(8) 0.04767(6) 0.0112(2) 1 0
Se1 Se6+ 8 f 0.10934(3) 0.622531(19) 0.152429(13) 0.00657(7) 1 0
Se2 Se6+ 8 f 0.38524(3) 0.361473(19) 0.059518(13) 0.00723(7) 1 0
O1 O2- 8 f 0.1685(3) 0.65489(14) 0.07151(10) 0.0110(4) 1 0
O2 O2- 8 f -0.0788(2) 0.54960(14) 0.14276(10) 0.0105(4) 1 0
O3 O2- 8 f 0.0551(3) 0.73315(14) 0.18910(10) 0.0107(4) 1 0
O4 O2- 8 f 0.2974(2) 0.57183(14) 0.20737(10) 0.0101(4) 1 0
O5 O2- 8 f 0.3741(3) 0.25567(14) 0.10439(10) 0.0116(4) 1 0
O6 O2- 8 f 0.5715(2) 0.43089(14) 0.09692(10) 0.0100(4) 1 0
O7 O2- 8 f 0.1905(3) 0.42818(14) 0.04600(11) 0.0122(4) 1 0
O8 O2- 8 f 0.4325(3) 0.33204(14) -0.02837(10) 0.0130(4) 1 0
O9 O2- 8 f 0.2440(3) 0.13248(14) 0.24390(11) 0.0135(4) 1 0
H1 H1+ 8 f 0.082 0.7212 0.2445 0.016 0.5 0
H2 H1+ 8 f 0.3799 0.2644 -0.0425 0.019 1 0
H3 H1+ 8 f 0.2736 0.0802 0.2668 0.02 1 0
H4 H1+ 8 f 0.2184 0.1138 0.1992 0.02 1 0
loop_
_atom_site_aniso_label
_atom_site_aniso_type_symbol
_atom_site_aniso_U_11
_atom_site_aniso_U_22
_atom_site_aniso_U_33
_atom_site_aniso_U_12
_atom_site_aniso_U_13
_atom_site_aniso_U_23
Na1 Na1+ 0.0117(5) 0.0107(5) 0.0092(5) -0.0002(4) 0.0024(4) -0.0002(4)
Na2 Na1+ 0.0106(7) 0.0127(8) 0.0178(8) 0. 0.0014(6) 0.
Na3 Na1+ 0.0107(5) 0.0138(6) 0.0093(5) 0.0009(4) 0.0024(4) 0.0018(4)
Se1 Se6+ 0.00681(12) 0.00787(12) 0.00476(12) -0.00025(9) 0.00051(8) 0.00013(9)
Se2 Se6+ 0.00661(12) 0.00844(13) 0.00657(12) -0.00043(9) 0.00113(9) -0.00067(9)
O1 O2- 0.0154(9) 0.0132(10) 0.0052(8) 0.0006(7) 0.0041(7) 0.0006(7)
O2 O2- 0.0092(9) 0.0114(9) 0.0106(9) -0.0020(7) 0.0014(7) -0.0005(7)
O3 O2- 0.0156(9) 0.0089(9) 0.0085(9) 0.0009(7) 0.0043(7) -0.0011(7)
O4 O2- 0.0089(8) 0.0117(9) 0.0086(9) 0.0023(7) -0.0011(7) 0.0017(7)
O5 O2- 0.0147(9) 0.0095(9) 0.0106(9) -0.0001(7) 0.0028(7) 0.0018(7)
O6 O2- 0.0079(9) 0.0106(9) 0.0108(9) -0.0017(7) 0.0001(7) -0.0021(7)
O7 O2- 0.0102(9) 0.0116(10) 0.0144(9) 0.0009(7) 0.0016(7) -0.0003(7)
O8 O2- 0.0213(10) 0.0111(10) 0.0082(9) -0.0023(8) 0.0071(8) -0.0016(7)
O9 O2- 0.0170(10) 0.0110(10) 0.0116(9) 0.0022(8) 0.0003(7) 0.0008(7)
#End of TTdata_427361-ICSD