
#(C) 2018 by FIZ Karlsruhe - Leibniz Institute for Information Infrastructure.  All rights reserved.
data_427401-ICSD
_database_code_ICSD 427401
_audit_creation_date 2015-02-01
_chemical_name_systematic 'Cesium lithium hexaborate'
_chemical_formula_structural 'Cs Li (B6 O10)'
_chemical_formula_sum 'B6 Cs1 Li1 O10'
_exptl_crystal_density_diffrn 2.45
_cell_measurement_temperature 173.
_publ_section_title

;
Temperature- and moisture-dependency of Cs Li B6 O10. A new phase, beta - Cs
Li B6 O10
;
loop_
_citation_id
_citation_journal_full
_citation_year
_citation_journal_volume
_citation_page_first
_citation_page_last
_citation_journal_id_ASTM
primary 'Zeitschrift fuer Kristallographie - Crystalline Materials' 2014 229 741
751 ZKCMAJ
loop_
_publ_author_name
'Sennova, Natalia A.'
'Cordier, Gerhard'
'Albert, Barbara'
'Filatov, Stanislav K.'
'Bubnova, Rimma S.'
'Isaenko, Ludmila I.'
'Gubenko, Lyubov I.'
'Kloeckner, Jan-Peter'
'Prosenc, Marc H.'
_cell_length_a 10.4770(10)
_cell_length_b 10.4770(10)
_cell_length_c 8.9970(10)
_cell_angle_alpha 90.
_cell_angle_beta 90.
_cell_angle_gamma 90.
_cell_volume 987.58
_cell_formula_units_Z 4
_symmetry_space_group_name_H-M 'I -4 2 d'
_symmetry_Int_Tables_number 122
_refine_ls_R_factor_all 0.0496
loop_
_symmetry_equiv_pos_site_id
_symmetry_equiv_pos_as_xyz
1 '-y, -x+1/2, z+1/4'
2 'y, -x, -z'
3 'y, x+1/2, z+1/4'
4 '-y, x, -z'
5 'x, -y+1/2, -z+1/4'
6 '-x, -y, z'
7 '-x, y+1/2, -z+1/4'
8 'x, y, z'
9 '-y+1/2, -x, z+3/4'
10 'y+1/2, -x+1/2, -z+1/2'
11 'y+1/2, x, z+3/4'
12 '-y+1/2, x+1/2, -z+1/2'
13 'x+1/2, -y, -z+3/4'
14 '-x+1/2, -y+1/2, z+1/2'
15 '-x+1/2, y, -z+3/4'
16 'x+1/2, y+1/2, z+1/2'
loop_
_atom_type_symbol
_atom_type_oxidation_number
Cs1+ 1
O2- -2
B3+ 3
Li1+ 1
loop_
_atom_site_label
_atom_site_type_symbol
_atom_site_symmetry_multiplicity
_atom_site_Wyckoff_symbol
_atom_site_fract_x
_atom_site_fract_y
_atom_site_fract_z
_atom_site_B_iso_or_equiv
_atom_site_occupancy
_atom_site_attached_hydrogens
Cs1 Cs1+ 4 a 0. 0. 0. 0.02497(19) 1 0
O1 O2- 8 d 0.7996(5) 0.25 0.125 0.0221(11) 1 0
O2 O2- 16 e 0.8030(3) 0.4432(3) -0.0065(4) 0.0138(5) 1 0
O3 O2- 16 e 0.6028(3) 0.3552(4) 0.0685(4) 0.0148(5) 1 0
B1 B3+ 8 d 0.5234(6) 0.25 0.125 0.0121(9) 1 0
B2 B3+ 16 e 0.7338(5) 0.3503(5) 0.0607(5) 0.0142(7) 1 0
Li1 Li1+ 4 b 0. 0. 0.5 0.0094(19) 1 0
loop_
_atom_site_aniso_label
_atom_site_aniso_type_symbol
_atom_site_aniso_U_11
_atom_site_aniso_U_22
_atom_site_aniso_U_33
_atom_site_aniso_U_12
_atom_site_aniso_U_13
_atom_site_aniso_U_23
Cs1 Cs1+ 0.0250(2) 0.0250(2) 0.0249(2) 0. 0. 0.
O1 O2- 0.0093(15) 0.020(2) 0.037(3) 0. 0. 0.016(2)
O2 O2- 0.0094(9) 0.0135(11) 0.0186(9) -0.0011(14) 0.0004(9) 0.0043(10)
O3 O2- 0.0098(10) 0.0126(11) 0.0220(11) 0.0011(16) 0.0027(9) 0.0057(10)
B1 B3+ 0.011(2) 0.0096(17) 0.0155(16) 0. 0. 0.0016(15)
B2 B3+ 0.0094(14) 0.0151(17) 0.0181(13) 0.000(3) 0.0015(12) 0.0060(14)
Li1 Li1+ 0.006(3) 0.006(3) 0.016(4) 0. 0. 0.
#End of TTdata_427401-ICSD