
#(C) 2018 by FIZ Karlsruhe - Leibniz Institute for Information Infrastructure.  All rights reserved.
data_427659-ICSD
_database_code_ICSD 427659
_audit_creation_date 2018-02-01
_chemical_name_systematic
'Lithium europium(III) yttrium(III) molybdate(VI) (7/2.25/0.75/8)'
_chemical_formula_structural 'Li3.5 Eu1.125 Y0.375 (Mo O4)4'
_chemical_formula_sum 'Eu1.125 Li3.5 Mo4 O16 Y0.375'
_chemical_name_structure_type Li7Ho3(MoO4)8
_exptl_crystal_density_diffrn 4.54
_cell_measurement_temperature 293.
_publ_section_title

;
Solid solution between lithium-rich yttrium and europium molybdate as new
efficient red-emitting phosphors
;
loop_
_citation_id
_citation_journal_full
_citation_year
_citation_journal_volume
_citation_page_first
_citation_page_last
_citation_journal_id_ASTM
primary

;
Journal of Materials Chemistry C: Materials for Optical and Electronic Devices
; 2016 4 596 602 JMCCCX
loop_
_publ_author_name
'Litterscheid, C.'
'Krueger, S.'
'Euler, M.'
'Dreizler, A.'
'Wickleder, C.'
'Albert, B.'
_cell_length_a 5.2198(2)
_cell_length_b 6.7057(3)
_cell_length_c 10.3141(4)
_cell_angle_alpha 100.116(3)
_cell_angle_beta 100.396(3)
_cell_angle_gamma 111.860(2)
_cell_volume 317.68
_cell_formula_units_Z 1
_symmetry_space_group_name_H-M 'P -1'
_symmetry_Int_Tables_number 2
_refine_ls_R_factor_all 0.0306
loop_
_symmetry_equiv_pos_site_id
_symmetry_equiv_pos_as_xyz
1 '-x, -y, -z'
2 'x, y, z'
loop_
_atom_type_symbol
_atom_type_oxidation_number
Li1+ 1
Y3+ 3
Eu3+ 3
Mo6+ 6
O2- -2
loop_
_atom_site_label
_atom_site_type_symbol
_atom_site_symmetry_multiplicity
_atom_site_Wyckoff_symbol
_atom_site_fract_x
_atom_site_fract_y
_atom_site_fract_z
_atom_site_B_iso_or_equiv
_atom_site_occupancy
_atom_site_attached_hydrogens
Li1 Li1+ 1 a 0 0 0 0.064(5) 1 0
Li2 Li1+ 2 i 0.839(3) 0.403(2) 0.1235(14) 0.053(3) 1 0
Li3 Li1+ 2 i 0.12001(6) 0.77183(5) 0.43964(3) 0.00937(11) 0.25 0
Y1 Y3+ 2 i 0.12001(6) 0.77183(5) 0.43964(3) 0.00937(11) 0.19 0
Eu1 Eu3+ 2 i 0.12001(6) 0.77183(5) 0.43964(3) 0.00937(11) 0.56 0
Mo1 Mo6+ 2 i 0.33420(7) 0.29986(5) 0.31873(3) 0.01064(11) 1 0
Mo2 Mo6+ 2 i 0.41808(8) 0.15474(6) 0.80227(3) 0.01234(12) 1 0
O1 O2- 2 i 0.1196(6) 0.1175(5) 0.4049(3) 0.0129(6) 1 0
O2 O2- 2 i 0.3063(7) 0.5643(5) 0.5725(3) 0.0158(6) 1 0
O3 O2- 2 i 0.3562(7) 0.1753(6) 0.1615(3) 0.0192(6) 1 0
O4 O2- 2 i 0.1922(7) 0.4953(5) 0.2921(3) 0.0166(6) 1 0
O5 O2- 2 i 0.2683(8) 0.6894(6) 0.0691(3) 0.0241(7) 1 0
O6 O2- 2 i 0.2320(7) 0.3259(5) 0.7752(3) 0.0193(6) 1 0
O7 O2- 2 i 0.7997(7) 0.0556(6) 0.1368(3) 0.0194(6) 1 0
O8 O2- 2 i 0.4826(7) 0.0445(5) 0.6429(3) 0.0159(6) 1 0
loop_
_atom_site_aniso_label
_atom_site_aniso_type_symbol
_atom_site_aniso_U_11
_atom_site_aniso_U_22
_atom_site_aniso_U_33
_atom_site_aniso_U_12
_atom_site_aniso_U_13
_atom_site_aniso_U_23
Li3 Li1+ 0.01071(17) 0.00821(16) 0.00922(15) 0.00370(12) 0.00345(11) 0.00214(11)
Y1 Y3+ 0.01071(17) 0.00821(16) 0.00922(15) 0.00370(12) 0.00345(11) 0.00214(11)
Eu1 Eu3+ 0.01071(17) 0.00821(16) 0.00922(15) 0.00370(12) 0.00345(11) 0.00214(11)
Mo1 Mo6+ 0.01118(19) 0.01089(19) 0.01052(17) 0.00443(15) 0.00403(13) 0.00367(13)
Mo2 Mo6+ 0.01411(19) 0.01454(19) 0.00907(16) 0.00657(15) 0.00402(13) 0.00254(12)
O1 O2- 0.0133(13) 0.0119(14) 0.0158(12) 0.0056(11) 0.0067(11) 0.0052(10)
O2 O2- 0.0155(15) 0.0130(14) 0.0162(13) 0.0030(12) 0.0039(11) 0.0044(11)
O3 O2- 0.0170(15) 0.0227(17) 0.0162(13) 0.0093(14) 0.0036(11) -0.0002(12)
O4 O2- 0.0197(15) 0.0152(14) 0.0155(13) 0.0084(13) 0.0042(11) 0.0041(11)
O5 O2- 0.0221(17) 0.0264(18) 0.0142(13) 0.0028(15) 0.0016(12) 0.0023(12)
O6 O2- 0.0218(16) 0.0168(16) 0.0205(14) 0.0095(14) 0.0065(12) 0.0036(12)
O7 O2- 0.0207(16) 0.0252(17) 0.0180(13) 0.0116(14) 0.0095(12) 0.0102(12)
O8 O2- 0.0154(15) 0.0156(15) 0.0150(13) 0.0038(12) 0.0067(11) 0.0030(11)
#End of TTdata_427659-ICSD