
#(C) 2019 by FIZ Karlsruhe - Leibniz Institute for Information Infrastructure.  All rights reserved.
data_427951-ICSD
_database_code_ICSD 427951
_audit_creation_date 2017-08-01
_chemical_name_systematic 'Sodium zinc iron(III) tris(molybdate(VI))'
_chemical_formula_structural 'Na Zn Fe (Mo O4)3'
_chemical_formula_sum 'Fe1 Mo3 Na1 O12 Zn1'
_exptl_crystal_density_diffrn 4.05
_cell_measurement_temperature 293.
_publ_section_title

;
Synthesis, crystal structure, magnetic properties and ionic conductivity of Na
M Fe (Mo O4)3 (M = Ni, Zn)
;
loop_
_citation_id
_citation_journal_full
_citation_year
_citation_journal_volume
_citation_page_first
_citation_page_last
_citation_journal_id_ASTM
primary Ionics 2015 21 2511 2522 IONIFA
loop_
_publ_author_name
'Mhiri, Manel'
'Badri, Abdessalem'
'Lopez, Maria Luisa'
'Pico, Carlos'
'Amara, Mongi Ben'
_cell_length_a 6.8200(10)
_cell_length_b 6.8720(10)
_cell_length_c 11.6360(10)
_cell_angle_alpha 75.890(10)
_cell_angle_beta 75.66(2)
_cell_angle_gamma 87.71(2)
_cell_volume 512.29
_cell_formula_units_Z 2
_symmetry_space_group_name_H-M 'P -1'
_symmetry_Int_Tables_number 2
_refine_ls_R_factor_all 0.0341
loop_
_symmetry_equiv_pos_site_id
_symmetry_equiv_pos_as_xyz
1 '-x, -y, -z'
2 'x, y, z'
loop_
_atom_type_symbol
_atom_type_oxidation_number
Na1+ 1
Zn2+ 2
Fe3+ 3
Zn2+ 2
Fe3+ 3
Mo6+ 6
O2- -2
Mo6+ 6
O2- -2
Mo6+ 6
O2- -2
loop_
_atom_site_label
_atom_site_type_symbol
_atom_site_symmetry_multiplicity
_atom_site_Wyckoff_symbol
_atom_site_fract_x
_atom_site_fract_y
_atom_site_fract_z
_atom_site_B_iso_or_equiv
_atom_site_occupancy
_atom_site_attached_hydrogens
Na1 Na1+ 2 i 0.1874(4) 0.6015(4) -0.1445(3) 0.0300(6) 1 0
Zn1 Zn2+ 2 i 0.32806(10) 0.69483(10) 0.19145(6) 0.00994(17) 0.5 0
Fe1 Fe3+ 2 i 0.32806(10) 0.69483(10) 0.19145(6) 0.00994(17) 0.5 0
Zn2 Zn2+ 2 i 0.30567(10) 0.29665(10) 0.40827(6) 0.00986(17) 0.5 0
Fe2 Fe3+ 2 i 0.30567(10) 0.29665(10) 0.40827(6) 0.00986(17) 0.5 0
Mo1 Mo6+ 2 i 0.34944(7) 0.24944(7) 0.10475(4) 0.00904(14) 1 0
O1 O2- 2 i 0.3634(6) 0.3780(6) 0.2233(3) 0.0135(8) 1 0
O2 O2- 2 i 0.3082(7) -0.0076(6) 0.1695(4) 0.0201(9) 1 0
O3 O2- 2 i 0.1525(6) 0.3432(6) 0.0428(4) 0.0159(8) 1 0
O4 O2- 2 i 0.5802(6) 0.2925(7) -0.0094(4) 0.0178(8) 1 0
Mo2 Mo6+ 2 i 0.75150(6) 0.24700(6) 0.50059(4) 0.00816(14) 1 0
O5 O2- 2 i 0.7270(6) 0.3900(6) 0.6152(4) 0.0135(8) 1 0
O6 O2- 2 i 0.6698(6) 0.0014(6) 0.5768(4) 0.0182(9) 1 0
O7 O2- 2 i 0.6111(6) 0.3351(6) 0.3905(4) 0.0172(8) 1 0
O8 O2- 2 i 0.0041(6) 0.2525(7) 0.4210(4) 0.0220(9) 1 0
Mo3 Mo6+ 2 i 0.19339(7) 0.19847(7) -0.25318(4) 0.00988(14) 1 0
O9 O2- 2 i 0.3790(6) 0.2859(6) -0.1955(4) 0.0168(8) 1 0
O10 O2- 2 i -0.0337(6) 0.3207(6) -0.1990(4) 0.0184(9) 1 0
O11 O2- 2 i 0.1739(7) -0.0570(7) -0.2056(5) 0.0286(10) 1 0
O12 O2- 2 i 0.2594(7) 0.2672(8) -0.4146(4) 0.0275(11) 1 0
loop_
_atom_site_aniso_label
_atom_site_aniso_type_symbol
_atom_site_aniso_U_11
_atom_site_aniso_U_22
_atom_site_aniso_U_33
_atom_site_aniso_U_12
_atom_site_aniso_U_13
_atom_site_aniso_U_23
Na1 Na1+ 0.0264(14) 0.0186(13) 0.0384(15) 0.0038(10) -0.0048(12) 0.0018(11)
Zn1 Zn2+ 0.0077(3) 0.0100(3) 0.0119(3) 0.0006(2) -0.0037(3) -0.0010(3)
Fe1 Fe3+ 0.0077(3) 0.0100(3) 0.0119(3) 0.0006(2) -0.0037(3) -0.0010(3)
Zn2 Zn2+ 0.0089(3) 0.0101(4) 0.0103(3) -0.0001(2) -0.0042(3) 0.0001(3)
Fe2 Fe3+ 0.0089(3) 0.0101(4) 0.0103(3) -0.0001(2) -0.0042(3) 0.0001(3)
Mo1 Mo6+ 0.0079(2) 0.0100(2) 0.0099(2) 0.00050(16) -0.00347(17) -0.00240(17)
O1 O2- 0.017(2) 0.0103(19) 0.0134(18) -0.0001(15) -0.0065(15) -0.0010(14)
O2 O2- 0.024(2) 0.010(2) 0.027(2) 0.0001(16) -0.0083(18) -0.0021(17)
O3 O2- 0.0057(17) 0.018(2) 0.022(2) 0.0004(15) -0.0023(15) -0.0028(16)
O4 O2- 0.0139(19) 0.023(2) 0.0151(19) 0.0032(16) -0.0043(16) -0.0025(16)
Mo2 Mo6+ 0.0060(2) 0.0091(2) 0.0098(2) 0.00078(16) -0.00405(17) -0.00110(17)
O5 O2- 0.0142(19) 0.0116(19) 0.0155(19) 0.0011(14) -0.0049(15) -0.0034(15)
O6 O2- 0.025(2) 0.012(2) 0.016(2) 0.0006(16) -0.0081(17) 0.0034(16)
O7 O2- 0.015(2) 0.013(2) 0.022(2) 0.0008(15) -0.0107(17) 0.0030(16)
O8 O2- 0.0109(19) 0.025(2) 0.028(2) 0.0008(17) -0.0036(17) -0.0042(18)
Mo3 Mo6+ 0.0077(2) 0.0111(2) 0.0106(2) 0.00009(16) -0.00373(17) -0.00075(17)
O9 O2- 0.0118(19) 0.023(2) 0.017(2) -0.0015(16) -0.0063(16) -0.0052(16)
O10 O2- 0.0115(19) 0.019(2) 0.027(2) 0.0060(16) -0.0088(17) -0.0057(17)
O11 O2- 0.026(2) 0.013(2) 0.040(3) -0.0006(17) -0.003(2) 0.0004(19)
O12 O2- 0.037(3) 0.034(3) 0.013(2) -0.003(2) -0.008(2) -0.0045(19)
#End of TTdata_427951-ICSD