
#(C) 2019 by FIZ Karlsruhe - Leibniz Institute for Information Infrastructure.  All rights reserved.
data_428061-ICSD
_database_code_ICSD 428061
_audit_creation_date 2016-02-01
_chemical_name_systematic 'Dicesium sodium bismuth tris(molybdate)'
_chemical_formula_structural 'Cs2 Na Bi (Mo O4)3'
_chemical_formula_sum 'Bi1 Cs2 Mo3 Na1 O12'
_exptl_crystal_density_diffrn 4.85
_cell_measurement_temperature 293.
_publ_section_title

;
Synthesis, structural and spectroscopic properties of acentric triple
molybdate Cs2 Na Bi (Mo O4)3
;
loop_
_citation_id
_citation_journal_full
_citation_year
_citation_journal_volume
_citation_page_first
_citation_page_last
_citation_journal_id_ASTM
primary 'Journal of Solid State Chemistry' 2015 225 53 58 JSSCBI
loop_
_publ_author_name
'Savina, A.A.'
'Atuchin, V.V.'
'Solodovnikov, S.F.'
'Solodovnikova, Z.A.'
'Krylov, A.S.'
'Maximovskiy, E.A.'
'Molokeev, M.S.'
'Oreshonkov, A.S.'
'Pugachev, A.M.'
'Khaikina, E.G.'
_cell_length_a 10.6435(2)
_cell_length_b 10.6435(2)
_cell_length_c 40.9524(7)
_cell_angle_alpha 90.
_cell_angle_beta 90.
_cell_angle_gamma 120.
_cell_volume 4017.71
_cell_formula_units_Z 12
_symmetry_space_group_name_H-M 'R 3 c H'
_symmetry_Int_Tables_number 161
_refine_ls_R_factor_all 0.02
loop_
_symmetry_equiv_pos_site_id
_symmetry_equiv_pos_as_xyz
1 '-x+y, y, z+1/2'
2 'x, x-y, z+1/2'
3 '-y, -x, z+1/2'
4 '-x+y, -x, z'
5 '-y, x-y, z'
6 'x, y, z'
7 '-x+y+2/3, y+1/3, z+5/6'
8 'x+2/3, x-y+1/3, z+5/6'
9 '-y+2/3, -x+1/3, z+5/6'
10 '-x+y+2/3, -x+1/3, z+1/3'
11 '-y+2/3, x-y+1/3, z+1/3'
12 'x+2/3, y+1/3, z+1/3'
13 '-x+y+1/3, y+2/3, z+1/6'
14 'x+1/3, x-y+2/3, z+1/6'
15 '-y+1/3, -x+2/3, z+1/6'
16 '-x+y+1/3, -x+2/3, z+2/3'
17 '-y+1/3, x-y+2/3, z+2/3'
18 'x+1/3, y+2/3, z+2/3'
loop_
_atom_type_symbol
_atom_type_oxidation_number
Cs1+ 1
Na1+ 1
Bi3+ 3
Mo6+ 6
O2- -2
loop_
_atom_site_label
_atom_site_type_symbol
_atom_site_symmetry_multiplicity
_atom_site_Wyckoff_symbol
_atom_site_fract_x
_atom_site_fract_y
_atom_site_fract_z
_atom_site_B_iso_or_equiv
_atom_site_occupancy
_atom_site_attached_hydrogens
Cs1 Cs1+ 6 a 0. 0. 0.15480(2) 0.0238(3) 1 0
Cs2 Cs1+ 18 b 0.30535(6) 0.30033(5) 0.07770(3) 0.02284(10) 1 0
Na1 Na1+ 6 a 0. 0. -0.0865(2) 0.0244(13) 1 0
Na2 Na1+ 6 a 0. 0. 0.24568(16) 0.0159(13) 1 0
Bi1 Bi3+ 6 a 0. 0. 0. 0.01792(14) 1 0
Bi2 Bi3+ 6 a 0. 0. 0.327567(16) 0.02065(12) 1 0
Mo1 Mo6+ 18 b 0.30856(8) 0.33086(10) -0.03647(3) 0.01789(15) 1 0
Mo2 Mo6+ 18 b 0.33522(10) 0.32973(7) 0.19413(3) 0.01763(15) 1 0
O1 O2- 18 b 0.3428(10) 0.3101(9) 0.00325(18) 0.058(2) 1 0
O2 O2- 18 b 0.4386(5) 0.3286(5) -0.06085(11) 0.0242(10) 1 0
O3 O2- 18 b 0.1374(7) 0.1810(7) -0.04600(19) 0.0526(18) 1 0
O4 O2- 18 b 0.3097(6) 0.5023(6) -0.04114(14) 0.0308(12) 1 0
O5 O2- 18 b 0.3124(9) 0.2810(9) 0.15346(16) 0.052(2) 1 0
O6 O2- 18 b 0.1941(5) 0.1940(5) 0.21662(10) 0.0238(11) 1 0
O7 O2- 18 b 0.5029(7) 0.3499(8) 0.2064(2) 0.055(2) 1 0
O8 O2- 18 b 0.3392(7) 0.5013(6) 0.19846(12) 0.0269(10) 1 0
loop_
_atom_site_aniso_label
_atom_site_aniso_type_symbol
_atom_site_aniso_U_11
_atom_site_aniso_U_22
_atom_site_aniso_U_33
_atom_site_aniso_U_12
_atom_site_aniso_U_13
_atom_site_aniso_U_23
Cs1 Cs1+ 0.0231(4) 0.0231(4) 0.0253(5) 0.01154(18) 0. 0.
Cs2 Cs1+ 0.0274(3) 0.0273(3) 0.01901(14) 0.01759(19) 0.0018(3) 0.0007(3)
Na1 Na1+ 0.028(2) 0.028(2) 0.018(2) 0.0138(10) 0. 0.
Na2 Na1+ 0.0160(19) 0.0160(19) 0.016(3) 0.0080(9) 0. 0.
Bi1 Bi3+ 0.01981(19) 0.01981(19) 0.0141(2) 0.00990(10) 0. 0.
Bi2 Bi3+ 0.02460(17) 0.02460(17) 0.01275(14) 0.01230(8) 0. 0.
Mo1 Mo6+ 0.0174(3) 0.0105(3) 0.0246(4) 0.0061(3) 0.0070(3) 0.0024(2)
Mo2 Mo6+ 0.0114(3) 0.0122(3) 0.0275(4) 0.0045(3) 0.0045(3) 0.0036(2)
O1 O2- 0.104(7) 0.072(6) 0.024(3) 0.063(6) 0.023(3) 0.016(3)
O2 O2- 0.029(3) 0.018(3) 0.028(2) 0.014(2) 0.008(2) 0.0016(17)
O3 O2- 0.026(4) 0.026(4) 0.098(5) 0.007(3) -0.001(3) -0.019(3)
O4 O2- 0.032(3) 0.018(3) 0.050(3) 0.018(3) -0.002(3) -0.003(2)
O5 O2- 0.089(6) 0.045(4) 0.025(3) 0.036(4) 0.020(3) 0.000(3)
O6 O2- 0.024(3) 0.016(2) 0.024(2) 0.005(2) 0.0053(18) 0.0007(17)
O7 O2- 0.020(3) 0.035(4) 0.112(6) 0.016(3) -0.011(4) 0.009(4)
O8 O2- 0.024(3) 0.015(2) 0.041(2) 0.009(2) 0.002(2) -0.001(2)
#End of TTdata_428061-ICSD