
#(C) 2019 by FIZ Karlsruhe - Leibniz Institute for Information Infrastructure.  All rights reserved.
data_428029-ICSD
_database_code_ICSD 428029
_audit_creation_date 2016-02-01
_chemical_name_systematic 'Disodium tridecaoxodicupropentasilicate trihydrate'
_chemical_formula_structural 'Na2 (Cu2 Si5 O13) (H2 O)3'
_chemical_formula_sum 'H6 Cu2 Na2 O16 Si5'
_exptl_crystal_density_diffrn 2.81
_cell_measurement_temperature 123.
_publ_section_title

;
Structures of dehydrated microporous copper silicate CuSH-6Na, an in situ
single crystal X-ray study
;
loop_
_citation_id
_citation_journal_full
_citation_year
_citation_journal_volume
_citation_page_first
_citation_page_last
_citation_journal_id_ASTM
primary 'Zeitschrift fuer Kristallographie - Crystalline Materials' 2015 230 363
368 ZKCMAJ
loop_
_publ_author_name
'Wang, Xiqu'
'Jacobson, Allan J.'
_cell_length_a 11.1523(6)
_cell_length_b 5.2065(3)
_cell_length_c 11.7576(6)
_cell_angle_alpha 90
_cell_angle_beta 95.1960(13)
_cell_angle_gamma 90
_cell_volume 679.89
_cell_formula_units_Z 2
_symmetry_space_group_name_H-M 'P 1 2/n 1'
_symmetry_Int_Tables_number 13
_refine_ls_R_factor_all 0.0201
loop_
_symmetry_equiv_pos_site_id
_symmetry_equiv_pos_as_xyz
1 'x+1/2, -y, z+1/2'
2 '-x+1/2, y, -z+1/2'
3 '-x, -y, -z'
4 'x, y, z'
loop_
_atom_type_symbol
_atom_type_oxidation_number
Cu2+ 2
Si4+ 4
Na1+ 1
O2- -2
H1+ 1
O2- -2
H1+ 1
Cu2+ 2
Si4+ 4
Na1+ 1
O2- -2
loop_
_atom_site_label
_atom_site_type_symbol
_atom_site_symmetry_multiplicity
_atom_site_Wyckoff_symbol
_atom_site_fract_x
_atom_site_fract_y
_atom_site_fract_z
_atom_site_B_iso_or_equiv
_atom_site_occupancy
_atom_site_attached_hydrogens
Cu1 Cu2+ 4 g 0.57315(2) 0.24288(5) 0.01945(2) 0.00361(8) 0.9734(16) 0
Si1 Si4+ 4 g 0.38420(5) 0.45300(11) 0.21095(5) 0.00276(12) 0.9734(16) 0
Si2 Si4+ 4 g 0.52038(5) 0.94309(11) 0.23387(5) 0.00295(12) 0.9734(16) 0
Si3 Si4+ 2 f 0.75 1.19725(16) 0.25 0.00326(16) 0.9734(16) 0
Na1 Na1+ 4 g 0.26607(9) 0.27615(18) -0.06402(8) 0.0112(2) 0.9734(16) 0
O1 O2- 4 g 0.39320(13) 0.4683(3) 0.07726(12) 0.0056(3) 0.9734(16) 0
O2 O2- 2 e 0.25 0.4854(4) 0.25 0.0076(4) 0.9734(16) 0
O3 O2- 4 g 0.46509(13) 0.6778(3) 0.28064(12) 0.0042(3) 0.9734(16) 0
O4 O2- 4 g 0.43079(13) 1.1760(3) 0.26456(12) 0.0049(3) 0.9734(16) 0
O5 O2- 4 g 0.65189(13) 0.9933(3) 0.30167(12) 0.0048(3) 0.9734(16) 0
O6 O2- 4 g 0.68317(13) 0.3561(3) 0.14702(12) 0.0057(3) 0.9734(16) 0
O7 O2- 4 g 0.46512(12) 0.0752(3) -0.09952(12) 0.0038(3) 0.9734(16) 0
O8 O2- 4 g 0.22006(17) -0.0321(4) 0.06392(16) 0.0182(4) 0.9734(16) 0
H1 H1+ 4 g 0.179(2) 0.012(6) 0.114(2) 0.022 0.9734(16) 0
H2 H1+ 4 g 0.180(3) -0.149(4) 0.034(3) 0.022 0.9734(16) 0
O9 O2- 4 g 0.0834(3) 0.5145(7) -0.0103(3) 0.0138(7) 0.4867(8) 0
H3 H1+ 4 g 0.043(5) 0.487(12) -0.070(3) 0.017 0.4867(8) 0
H4 H1+ 4 g 0.032(4) 0.516(13) 0.034(4) 0.017 0.4867(8) 0
Cu2 Cu2+ 4 g 0.57315(2) 0.75712(5) 0.01945(2) 0.025(4) 0.0266(16) 0
Si4 Si4+ 4 g 0.38420(5) 0.54700(11) 0.21095(5) 0.025(4) 0.0266(16) 0
Si5 Si4+ 4 g 0.52038(5) 0.05691(11) 0.23387(5) 0.025(4) 0.0266(16) 0
Si6 Si4+ 2 f 0.75 -0.19725(16) 0.25 0.025(4) 0.053(3) 0
Na2 Na1+ 4 g 0.26607(9) 0.72385(18) -0.06402(8) 0.025(4) 0.0266(16) 0
O10 O2- 4 g 0.39320(13) 0.5317(3) 0.07726(12) 0.025(4) 0.0266(16) 0
O11 O2- 2 e 0.25 0.5146(4) 0.25 0.025(4) 0.053(3) 0
O12 O2- 4 g 0.46509(13) 0.3222(3) 0.28064(12) 0.025(4) 0.0266(16) 0
O13 O2- 4 g 0.43079(13) -0.1760(3) 0.26456(12) 0.025(4) 0.0266(16) 0
O14 O2- 4 g 0.65189(13) 0.0067(3) 0.30167(12) 0.025(4) 0.0266(16) 0
O15 O2- 4 g 0.68317(13) 0.6439(3) 0.14702(12) 0.025(4) 0.0266(16) 0
O16 O2- 4 g 0.46512(12) 0.9248(3) -0.09952(12) 0.025(4) 0.0266(16) 0
loop_
_atom_site_aniso_label
_atom_site_aniso_type_symbol
_atom_site_aniso_U_11
_atom_site_aniso_U_22
_atom_site_aniso_U_33
_atom_site_aniso_U_12
_atom_site_aniso_U_13
_atom_site_aniso_U_23
Cu1 Cu2+ 0.00462(13) 0.00339(14) 0.00260(13) -0.00134(9) -0.00099(9) 0.00082(9)
Si1 Si4+ 0.0021(2) 0.0034(3) 0.0028(3) -0.0003(2) 0.00060(18) -0.0002(2)
Si2 Si4+ 0.0029(2) 0.0034(3) 0.0025(3) -0.0005(2) 0.00002(18) 0.0002(2)
Si3 Si4+ 0.0031(3) 0.0033(4) 0.0031(4) 0. -0.0014(3) 0.
Na1 Na1+ 0.0147(5) 0.0085(5) 0.0093(4) -0.0047(3) -0.0046(3) 0.0015(3)
O1 O2- 0.0086(7) 0.0049(7) 0.0033(7) -0.0021(6) 0.0010(5) 0.0000(5)
O2 O2- 0.0050(9) 0.0069(11) 0.0114(11) 0. 0.0033(8) 0.
O3 O2- 0.0053(7) 0.0043(7) 0.0029(7) -0.0012(6) 0.0000(5) -0.0006(6)
O4 O2- 0.0061(7) 0.0047(7) 0.0040(7) 0.0013(6) 0.0020(5) 0.0007(6)
O5 O2- 0.0043(6) 0.0048(7) 0.0051(7) -0.0008(5) -0.0006(5) 0.0007(6)
O6 O2- 0.0068(7) 0.0052(7) 0.0046(7) -0.0010(6) -0.0027(5) 0.0003(6)
O7 O2- 0.0051(6) 0.0037(7) 0.0025(7) -0.0013(5) 0.0001(5) 0.0001(5)
O8 O2- 0.0215(9) 0.0160(10) 0.0189(10) -0.0064(7) 0.0113(7) -0.0027(7)
O9 O2- 0.0125(15) 0.0231(19) 0.0056(15) 0.0023(14) -0.0003(12) -0.0026(14)
#End of TTdata_428029-ICSD