
#(C) 2019 by FIZ Karlsruhe - Leibniz Institute for Information Infrastructure.  All rights reserved.
data_428034-ICSD
_database_code_ICSD 428034
_audit_creation_date 2016-02-01
_chemical_name_systematic 'Disodium tridecaoxodicupropentasilicate'
_chemical_formula_structural 'Na2 (Cu2 Si5 O13)'
_chemical_formula_sum 'Cu2 Na2 O13 Si5'
_exptl_crystal_density_diffrn 2.64
_cell_measurement_temperature 343.
_publ_section_title

;
Structures of dehydrated microporous copper silicate CuSH-6Na, an in situ
single crystal X-ray study
;
loop_
_citation_id
_citation_journal_full
_citation_year
_citation_journal_volume
_citation_page_first
_citation_page_last
_citation_journal_id_ASTM
primary 'Zeitschrift fuer Kristallographie - Crystalline Materials' 2015 230 363
368 ZKCMAJ
loop_
_publ_author_name
'Wang, Xiqu'
'Jacobson, Allan J.'
_cell_length_a 11.0983(11)
_cell_length_b 5.2242(6)
_cell_length_c 11.3521(12)
_cell_angle_alpha 90
_cell_angle_beta 94.610(3)
_cell_angle_gamma 90
_cell_volume 656.06
_cell_formula_units_Z 2
_symmetry_space_group_name_H-M 'P 1 2/n 1'
_symmetry_Int_Tables_number 13
_refine_ls_R_factor_all 0.0322
loop_
_symmetry_equiv_pos_site_id
_symmetry_equiv_pos_as_xyz
1 'x+1/2, -y, z+1/2'
2 '-x+1/2, y, -z+1/2'
3 '-x, -y, -z'
4 'x, y, z'
loop_
_atom_type_symbol
_atom_type_oxidation_number
Cu2+ 2
Si4+ 4
Na1+ 1
O2- -2
Cu1+ 1
Si4+ 4
Na1+ 1
O2- -2
loop_
_atom_site_label
_atom_site_type_symbol
_atom_site_symmetry_multiplicity
_atom_site_Wyckoff_symbol
_atom_site_fract_x
_atom_site_fract_y
_atom_site_fract_z
_atom_site_B_iso_or_equiv
_atom_site_occupancy
_atom_site_attached_hydrogens
Cu1 Cu2+ 4 g 0.56776(4) 0.24734(8) 0.01972(4) 0.00759(15) 0.981(2) 0
Si1 Si4+ 4 g 0.38724(9) 0.45455(19) 0.21979(9) 0.0065(2) 0.981(2) 0
Si2 Si4+ 4 g 0.51931(9) 0.94515(18) 0.24339(9) 0.0065(2) 0.981(2) 0
Si3 Si4+ 2 f 0.75 1.1946(3) 0.25 0.0074(3) 0.981(2) 0
Na1 Na1+ 4 g 0.26179(17) 0.2871(3) -0.06175(16) 0.0247(4) 0.981(2) 0
O1 O2- 4 g 0.3974(2) 0.4638(5) 0.0804(2) 0.0098(5) 0.981(2) 0
O2 O2- 2 e 0.25 0.4917(7) 0.25 0.0198(9) 0.981(2) 0
O3 O2- 4 g 0.4664(2) 0.6789(5) 0.2899(2) 0.0092(5) 0.981(2) 0
O4 O2- 4 g 0.4320(2) 1.1787(5) 0.2747(2) 0.0110(6) 0.981(2) 0
O5 O2- 4 g 0.6540(2) 0.9940(5) 0.3088(2) 0.0102(6) 0.981(2) 0
O6 O2- 4 g 0.6817(2) 0.3555(5) 0.1466(2) 0.0114(6) 0.981(2) 0
O7 O2- 4 g 0.4659(2) 0.0715(4) -0.1033(2) 0.0087(5) 0.981(2) 0
Cu2 Cu1+ 4 g 0.56776(4) 0.75266(8) 0.01972(4) 0.021(8) 0.019(2) 0
Si4 Si4+ 4 g 0.38724(9) 0.54545(19) 0.21979(9) 0.021(8) 0.019(2) 0
Si5 Si4+ 4 g 0.51931(9) 0.05485(18) 0.24339(9) 0.021(8) 0.019(2) 0
Si6 Si4+ 2 f 0.75 -0.1946(3) 0.25 0.021(8) 0.037(4) 0
Na2 Na1+ 4 g 0.26179(17) 0.7129(3) -0.06175(16) 0.021(8) 0.019(2) 0
O8 O2- 4 g 0.3974(2) 0.5362(5) 0.0804(2) 0.021(8) 0.019(2) 0
O9 O2- 2 e 0.25 0.5083(7) 0.25 0.021(8) 0.037(4) 0
O10 O2- 4 g 0.4664(2) 0.3211(5) 0.2899(2) 0.021(8) 0.019(2) 0
O11 O2- 4 g 0.4320(2) -0.1787(5) 0.2747(2) 0.021(8) 0.019(2) 0
O12 O2- 4 g 0.6540(2) 0.0060(5) 0.3088(2) 0.021(8) 0.019(2) 0
O13 O2- 4 g 0.6817(2) 0.6445(5) 0.1466(2) 0.021(8) 0.019(2) 0
O14 O2- 4 g 0.4659(2) 0.9285(4) -0.1033(2) 0.021(8) 0.019(2) 0
loop_
_atom_site_aniso_label
_atom_site_aniso_type_symbol
_atom_site_aniso_U_11
_atom_site_aniso_U_22
_atom_site_aniso_U_33
_atom_site_aniso_U_12
_atom_site_aniso_U_13
_atom_site_aniso_U_23
Cu1 Cu2+ 0.0093(2) 0.0050(3) 0.0082(2) -0.00175(18) -0.00127(16) 0.00129(17)
Si1 Si4+ 0.0066(5) 0.0040(5) 0.0091(5) 0.0003(4) 0.0017(4) 0.0007(4)
Si2 Si4+ 0.0071(5) 0.0042(5) 0.0080(5) -0.0012(4) -0.0008(4) 0.0008(4)
Si3 Si4+ 0.0075(7) 0.0036(7) 0.0105(7) 0. -0.0025(5) 0.
Na1 Na1+ 0.0330(11) 0.0150(9) 0.0243(9) -0.0113(7) -0.0079(8) 0.0012(7)
O1 O2- 0.0132(13) 0.0083(13) 0.0080(13) -0.0024(10) 0.0011(10) 0.0011(10)
O2 O2- 0.012(2) 0.014(2) 0.035(3) 0. 0.0106(18) 0.
O3 O2- 0.0132(14) 0.0053(13) 0.0090(13) -0.0033(10) 0.0013(10) 0.0014(10)
O4 O2- 0.0153(14) 0.0053(13) 0.0127(13) 0.0033(10) 0.0039(11) 0.0027(10)
O5 O2- 0.0095(13) 0.0092(14) 0.0115(13) -0.0024(10) -0.0017(10) 0.0029(10)
O6 O2- 0.0120(14) 0.0079(13) 0.0132(13) -0.0018(11) -0.0062(10) 0.0023(11)
O7 O2- 0.0142(13) 0.0050(13) 0.0068(12) -0.0030(11) 0.0005(10) 0.0005(9)
#End of TTdata_428034-ICSD