
#(C) 2018 by FIZ Karlsruhe - Leibniz Institute for Information Infrastructure.  All rights reserved.
data_428056-ICSD
_database_code_ICSD 428056
_audit_creation_date 2015-02-01
_chemical_name_systematic 'Lithium aluminium bis(cyanamide)'
_chemical_formula_structural 'Li Al (C N2)2'
_chemical_formula_sum 'C2 Al1 Li1 N4'
_exptl_crystal_density_diffrn 2.39
_cell_measurement_temperature 293.
_publ_section_title

;
Synthesis of new structurally related cyanamide compounds Li M (C N2)2 where M
is Al(3+), In(3+) or Yb (3+)
;
loop_
_citation_id
_citation_journal_full
_citation_year
_citation_journal_volume
_citation_page_first
_citation_page_last
_citation_journal_id_ASTM
primary 'Materials Research Bulletin' 2015 62 37 41 MRBUAC
loop_
_publ_author_name
'Kubus, Mariusz'
'Heinicke, Robert'
'Stroebele, Markus'
'Enseling, David'
'Juestel, Thomas'
'Meyer, H.-Juergen'
_cell_length_a 9.174(3)
_cell_length_b 6.417(2)
_cell_length_c 5.3906(16)
_cell_angle_alpha 90.
_cell_angle_beta 90.
_cell_angle_gamma 90.
_cell_volume 317.34
_cell_formula_units_Z 4
_symmetry_space_group_name_H-M 'P b c n'
_symmetry_Int_Tables_number 60
_refine_ls_R_factor_all 0.0318
loop_
_symmetry_equiv_pos_site_id
_symmetry_equiv_pos_as_xyz
1 'x, -y, z+1/2'
2 '-x+1/2, y+1/2, z'
3 'x+1/2, y+1/2, -z+1/2'
4 '-x, -y, -z'
5 '-x, y, -z+1/2'
6 'x+1/2, -y+1/2, -z'
7 '-x+1/2, -y+1/2, z+1/2'
8 'x, y, z'
loop_
_atom_type_symbol
_atom_type_oxidation_number
Li1+ 1
Al3+ 3
N3- -3
C4+ 4
N3- -3
loop_
_atom_site_label
_atom_site_type_symbol
_atom_site_symmetry_multiplicity
_atom_site_Wyckoff_symbol
_atom_site_fract_x
_atom_site_fract_y
_atom_site_fract_z
_atom_site_B_iso_or_equiv
_atom_site_occupancy
_atom_site_attached_hydrogens
Li1 Li1+ 4 c 0. 0.6213(11) 0.25 0.0175(12) 1 0
Al1 Al3+ 4 c 0. 0.12021(19) 0.25 0.0112(4) 1 0
N1 N3- 8 d 0.1244(3) 0.3450(3) 0.1086(4) 0.0144(6) 1 0
C1 C4+ 8 d 0.2533(3) 0.3695(6) 0.0879(6) 0.0116(6) 1 0
N2 N3- 8 d 0.3870(2) 0.3984(4) 0.0650(4) 0.0121(5) 1 0
loop_
_atom_site_aniso_label
_atom_site_aniso_type_symbol
_atom_site_aniso_U_11
_atom_site_aniso_U_22
_atom_site_aniso_U_33
_atom_site_aniso_U_12
_atom_site_aniso_U_13
_atom_site_aniso_U_23
Li1 Li1+ 0.013(3) 0.020(3) 0.020(3) 0. 0.001(3) 0.
Al1 Al3+ 0.0097(6) 0.0136(5) 0.0103(6) 0. 0.0002(6) 0.
N1 N3- 0.0108(14) 0.0173(12) 0.0152(13) -0.0027(11) 0.0006(11) 0.0001(9)
C1 C4+ 0.0177(14) 0.0092(11) 0.0078(13) 0.0012(9) -0.0010(10) -0.0009(14)
N2 N3- 0.0102(12) 0.0158(11) 0.0102(10) -0.0017(11) 0.0001(10) -0.0005(9)
#End of TTdata_428056-ICSD