
#(C) 2017 by FIZ Karlsruhe - Leibniz Institute for Information Infrastructure.  All rights reserved.
data_428176-ICSD
_database_code_ICSD 428176
_audit_creation_date 2015-08-01
_chemical_name_systematic 'Lithium diantimony(III) heptafluoride'
_chemical_formula_structural 'Li (Sb2 F7)'
_chemical_formula_sum 'F7 Li1 Sb2'
_chemical_name_structure_type Nd3Br5S2
_exptl_crystal_density_diffrn 4.23
_cell_measurement_temperature 296.
_publ_section_title

;
Synthesis, crystal structure and ion mobility in the complex fluorides of
antimony(III) with the lithium cation
;
loop_
_citation_id
_citation_journal_full
_citation_year
_citation_journal_volume
_citation_page_first
_citation_page_last
_citation_journal_id_ASTM
primary 'Journal of Fluorine Chemistry' 2014 168 184 188 JFLCAR
loop_
_publ_author_name
'Makarenko, N.V.'
'Udovenko, A.A.'
'Zemnukhova, L.A.'
'Kavun, V.Ya.'
'Polyantsev, M.M.'
_cell_length_a 8.7167(11)
_cell_length_b 14.5267(18)
_cell_length_c 4.7551(6)
_cell_angle_alpha 90.
_cell_angle_beta 90.
_cell_angle_gamma 90.
_cell_volume 602.11
_cell_formula_units_Z 4
_symmetry_space_group_name_H-M 'P n m a'
_symmetry_Int_Tables_number 62
_refine_ls_R_factor_all 0.0191
loop_
_symmetry_equiv_pos_site_id
_symmetry_equiv_pos_as_xyz
1 'x+1/2, y, -z+1/2'
2 'x, -y+1/2, z'
3 '-x+1/2, y+1/2, z+1/2'
4 '-x, -y, -z'
5 '-x+1/2, -y, z+1/2'
6 '-x, y+1/2, -z'
7 'x+1/2, -y+1/2, -z+1/2'
8 'x, y, z'
loop_
_atom_type_symbol
_atom_type_oxidation_number
Sb3+ 3
Li1+ 1
F1- -1
loop_
_atom_site_label
_atom_site_type_symbol
_atom_site_symmetry_multiplicity
_atom_site_Wyckoff_symbol
_atom_site_fract_x
_atom_site_fract_y
_atom_site_fract_z
_atom_site_B_iso_or_equiv
_atom_site_occupancy
_atom_site_attached_hydrogens
Sb1 Sb3+ 8 d 0.613725(13) 0.399638(7) 0.19236(2) 0.01402(8) 1 0
Li1 Li1+ 4 c 0.4278(6) 0.25 0.6343(11) 0.0212(7) 1 0
F1 F1- 8 d 0.50359(16) 0.34367(8) -0.1141(3) 0.0308(3) 1 0
F2 F1- 8 d 0.80306(13) 0.34754(7) 0.0489(3) 0.0267(2) 1 0
F3 F1- 8 d 0.65046(16) 0.49882(8) -0.0957(3) 0.0277(2) 1 0
F4 F1- 4 c 0.5912(2) 0.25 0.3547(4) 0.0225(3) 1 0
loop_
_atom_site_aniso_label
_atom_site_aniso_type_symbol
_atom_site_aniso_U_11
_atom_site_aniso_U_22
_atom_site_aniso_U_33
_atom_site_aniso_U_12
_atom_site_aniso_U_13
_atom_site_aniso_U_23
Sb1 Sb3+ 0.01524(10) 0.01262(10) 0.01421(11) 0.00073(2) 0.00105(3) -0.00072(3)
Li1 Li1+ 0.0232(19) 0.0190(17) 0.0213(19) 0. -0.0011(18) 0.
F1 F1- 0.0470(7) 0.0209(4) 0.0245(5) -0.0017(5) -0.0167(5) -0.0033(4)
F2 F1- 0.0229(5) 0.0214(4) 0.0357(6) 0.0048(4) 0.0115(5) -0.0011(4)
F3 F1- 0.0314(5) 0.0231(5) 0.0287(6) -0.0007(4) 0.0024(5) 0.0101(5)
F4 F1- 0.0228(7) 0.0241(7) 0.0204(7) 0. 0.0053(6) 0.
#End of TTdata_428176-ICSD