
#(C) 2019 by FIZ Karlsruhe - Leibniz Institute for Information Infrastructure.  All rights reserved.
data_428147-ICSD
_database_code_ICSD 428147
_audit_creation_date 2015-08-01
_chemical_name_systematic 'Trisodium thulium nonaoxo-trisilicate'
_chemical_formula_structural 'Na3 Tm (Si3 O9)'
_chemical_formula_sum 'Na3 O9 Si3 Tm1'
_chemical_name_structure_type Na3YSi3O9
_exptl_crystal_density_diffrn 3.61
_cell_measurement_temperature 293.
_publ_section_title

;
Crystal growth, structural characterization and high temperature behavior of
Na3 Tm Si3 O9
;
loop_
_citation_id
_citation_journal_full
_citation_year
_citation_journal_volume
_citation_page_first
_citation_page_last
_citation_journal_id_ASTM
primary 'Zeitschrift fuer Kristallographie - Crystalline Materials' 2015 230 87
95 ZKCMAJ
loop_
_publ_author_name
'Kahlenberg, Volker'
'Moertl, Alexander'
'Krueger, Hannes'
_cell_length_a 15.1681(3)
_cell_length_b 15.0855(3)
_cell_length_c 14.9937(3)
_cell_angle_alpha 90
_cell_angle_beta 90
_cell_angle_gamma 90
_cell_volume 3430.83
_cell_formula_units_Z 16
_symmetry_space_group_name_H-M 'P 21 21 21'
_symmetry_Int_Tables_number 19
_refine_ls_R_factor_all 0.0385
loop_
_symmetry_equiv_pos_site_id
_symmetry_equiv_pos_as_xyz
1 '-x, y+1/2, -z+1/2'
2 'x+1/2, -y+1/2, -z'
3 '-x+1/2, -y, z+1/2'
4 'x, y, z'
loop_
_atom_type_symbol
_atom_type_oxidation_number
Tm3+ 3
Si4+ 4
Na1+ 1
O2- -2
loop_
_atom_site_label
_atom_site_type_symbol
_atom_site_symmetry_multiplicity
_atom_site_Wyckoff_symbol
_atom_site_fract_x
_atom_site_fract_y
_atom_site_fract_z
_atom_site_B_iso_or_equiv
_atom_site_occupancy
_atom_site_attached_hydrogens
Tm1 Tm3+ 4 a 0.37804(2) 0.37500(2) 0.36692(2) 0.00982(7) 1 0
Tm2 Tm3+ 4 a 0.12871(2) 0.12982(2) 0.11366(2) 0.00972(8) 1 0
Tm3 Tm3+ 4 a 0.37965(2) 0.11272(2) 0.85894(2) 0.01005(8) 1 0
Tm4 Tm3+ 4 a 0.13443(2) 0.38494(2) 0.62087(2) 0.00949(8) 1 0
Si1 Si4+ 4 a 0.46653(16) 0.46722(15) 0.75589(16) 0.0100(4) 1 0
Si2 Si4+ 4 a 0.47714(18) 0.24720(16) 0.02400(16) 0.0092(4) 1 0
Si3 Si4+ 4 a 0.22881(17) 0.47243(16) 0.01148(16) 0.0095(4) 1 0
Si4 Si4+ 4 a 0.02282(15) 0.03190(15) 0.77734(17) 0.0107(4) 1 0
Si5 Si4+ 4 a 0.49458(16) 0.27384(16) 0.72417(15) 0.0095(4) 1 0
Si6 Si4+ 4 a 0.22446(16) 0.47418(16) 0.22088(16) 0.0101(4) 1 0
Si7 Si4+ 4 a 0.28440(16) 0.00298(14) 0.22313(17) 0.0096(4) 1 0
Si8 Si4+ 4 a 0.27920(16) 0.27564(15) 0.99139(16) 0.0089(4) 1 0
Si9 Si4+ 4 a 0.48922(17) 0.25003(16) 0.52240(17) 0.0098(5) 1 0
Si10 Si4+ 4 a 0.23017(17) 0.02835(15) 0.52181(16) 0.0098(4) 1 0
Si11 Si4+ 4 a 0.01290(16) 0.24040(15) 0.77698(15) 0.0088(4) 1 0
Si12 Si4+ 4 a 0.28314(16) 0.23297(16) 0.51565(17) 0.0105(4) 1 0
Na1 Na1+ 4 a 0.1519(2) 0.3686(3) 0.3897(3) 0.0217(7) 1 0
Na2 Na1+ 4 a 0.1174(3) 0.1678(2) 0.6277(3) 0.0200(7) 1 0
Na3 Na1+ 4 a 0.3925(3) 0.0929(2) 0.6374(3) 0.0238(8) 1 0
Na4 Na1+ 4 a 0.4476(3) 0.4472(3) 0.9967(3) 0.0251(9) 1 0
Na5 Na1+ 4 a 0.1616(3) 0.1231(3) 0.8975(3) 0.0222(8) 1 0
Na6 Na1+ 4 a 0.1209(3) 0.4011(2) 0.8481(2) 0.0195(7) 1 0
Na7 Na1+ 4 a 0.1493(3) 0.1200(3) 0.3535(3) 0.0290(9) 1 0
Na8 Na1+ 4 a 0.0045(4) 0.0073(3) 0.4957(5) 0.0365(12) 1 0
Na9 Na1+ 4 a 0.0986(3) 0.3451(3) 0.1296(3) 0.0277(9) 1 0
Na10 Na1+ 4 a 0.2949(3) 0.2481(3) 0.2019(3) 0.0334(11) 1 0
Na11 Na1+ 4 a 0.4100(3) 0.1286(3) 0.3802(3) 0.0352(10) 1 0
Na12 Na1+ 4 a 0.2890(3) 0.2912(3) 0.7495(3) 0.0246(9) 1 0
O1 O2- 4 a 0.3529(4) 0.4860(4) 0.4593(4) 0.0133(11) 1 0
O2 O2- 4 a 0.0905(4) 0.2921(4) 0.7270(4) 0.0162(12) 1 0
O3 O2- 4 a 0.4232(4) 0.2617(4) 0.2782(5) 0.0162(12) 1 0
O4 O2- 4 a 0.4768(4) 0.1616(4) 0.9594(4) 0.0140(12) 1 0
O5 O2- 4 a 0.3879(4) 0.2129(4) 0.5394(4) 0.0172(12) 1 0
O6 O2- 4 a 0.2732(5) 0.0744(5) 0.7650(5) 0.0205(14) 1 0
O7 O2- 4 a 0.2435(4) 0.3750(4) 0.9639(4) 0.0153(12) 1 0
O8 O2- 4 a 0.2832(4) 0.2166(4) 0.9019(4) 0.0154(12) 1 0
O9 O2- 4 a 0.0431(5) 0.3295(4) 0.5210(5) 0.0193(14) 1 0
O10 O2- 4 a 0.3778(4) 0.0139(4) 0.2776(4) 0.0145(11) 1 0
O11 O2- 4 a 0.0828(4) 0.2204(4) 0.2172(4) 0.0141(12) 1 0
O12 O2- 4 a 0.1847(4) 0.0300(4) 0.6223(4) 0.0198(13) 1 0
O13 O2- 4 a 0.0319(4) 0.2312(4) 0.3785(4) 0.0172(12) 1 0
O14 O2- 4 a 0.2018(4) 0.4511(4) 0.1159(4) 0.0136(11) 1 0
O15 O2- 4 a 0.4783(5) 0.0094(5) 0.8255(4) 0.0198(14) 1 0
O16 O2- 4 a 0.3785(5) 0.2919(4) 0.0327(4) 0.0180(12) 1 0
O17 O2- 4 a 0.4736(4) 0.4752(4) 0.3164(4) 0.0139(12) 1 0
O18 O2- 4 a 0.2236(4) 0.4333(4) 0.7268(4) 0.0154(12) 1 0
O19 O2- 4 a 0.2423(4) 0.1334(4) 0.4945(5) 0.0196(14) 1 0
O20 O2- 4 a 0.0026(4) 0.2884(4) 0.8751(4) 0.0150(11) 1 0
O21 O2- 4 a 0.4360(4) 0.3648(4) 0.7332(4) 0.0145(11) 1 0
O22 O2- 4 a 0.4883(4) 0.3386(4) 0.4625(4) 0.0144(12) 1 0
O23 O2- 4 a 0.1822(4) 0.4709(4) 0.5103(4) 0.0114(11) 1 0
O24 O2- 4 a 0.0204(4) 0.0329(4) 0.1517(4) 0.0148(12) 1 0
O25 O2- 4 a 0.1759(4) 0.0194(4) 0.0266(4) 0.0149(12) 1 0
O26 O2- 4 a 0.0467(4) 0.1375(4) 0.7954(4) 0.0132(11) 1 0
O27 O2- 4 a 0.2332(4) 0.0959(4) 0.2172(4) 0.0154(12) 1 0
O28 O2- 4 a 0.1260(4) 0.4769(4) 0.2699(4) 0.0135(10) 1 0
O29 O2- 4 a 0.0273(4) 0.4851(4) 0.6404(4) 0.0154(12) 1 0
O30 O2- 4 a 0.4300(5) 0.1929(4) 0.7469(4) 0.0162(13) 1 0
O31 O2- 4 a 0.0442(4) 0.1759(4) 1.0056(4) 0.0156(12) 1 0
O32 O2- 4 a 0.2189(5) 0.2348(4) 0.0694(5) 0.0194(14) 1 0
O33 O2- 4 a 0.2719(4) 0.3921(4) 0.2663(4) 0.0141(11) 1 0
O34 O2- 4 a 0.2774(4) 0.2840(4) 0.4235(4) 0.0141(12) 1 0
O35 O2- 4 a 0.3383(5) 0.0085(4) 0.9515(4) 0.0188(14) 1 0
O36 O2- 4 a 0.2314(4) 0.2739(5) 0.5978(4) 0.0182(13) 1 0
loop_
_atom_site_aniso_label
_atom_site_aniso_type_symbol
_atom_site_aniso_U_11
_atom_site_aniso_U_22
_atom_site_aniso_U_33
_atom_site_aniso_U_12
_atom_site_aniso_U_13
_atom_site_aniso_U_23
Tm1 Tm3+ 0.01028(14) 0.00903(14) 0.01013(14) -0.00012(12) 0.00084(13)
0.00016(11)
Tm2 Tm3+ 0.00990(15) 0.00963(14) 0.00963(14) 0.00101(12) -0.00059(12)
0.00076(11)
Tm3 Tm3+ 0.01077(15) 0.00909(15) 0.01029(14) -0.00004(13) 0.00010(13)
0.00015(11)
Tm4 Tm3+ 0.01018(15) 0.00937(14) 0.00893(13) -0.00070(12) 0.00002(12)
-0.00009(11)
Si1 Si4+ 0.0098(10) 0.0076(10) 0.0127(11) -0.0019(8) 0.0003(8) 0.0001(8)
Si2 Si4+ 0.0084(10) 0.0120(10) 0.0071(10) -0.0011(8) 0.0014(8) 0.0005(8)
Si3 Si4+ 0.0096(10) 0.0103(10) 0.0084(10) 0.0001(8) -0.0003(8) 0.0008(8)
Si4 Si4+ 0.0085(10) 0.0102(11) 0.0134(11) -0.0011(8) -0.0001(8) 0.0011(9)
Si5 Si4+ 0.0121(11) 0.0093(10) 0.0071(9) -0.0020(8) -0.0024(8) 0.0006(8)
Si6 Si4+ 0.0105(10) 0.0095(10) 0.0103(10) 0.0007(8) 0.0015(8) -0.0013(9)
Si7 Si4+ 0.0071(10) 0.0073(10) 0.0145(10) -0.0003(7) -0.0010(8) -0.0007(8)
Si8 Si4+ 0.0106(11) 0.0073(10) 0.0088(10) 0.0010(8) -0.0018(8) 0.0010(8)
Si9 Si4+ 0.0072(10) 0.0118(11) 0.0105(11) -0.0001(8) -0.0004(8) 0.0001(8)
Si10 Si4+ 0.0115(10) 0.0077(10) 0.0103(10) 0.0015(8) -0.0046(9) -0.0017(8)
Si11 Si4+ 0.0109(10) 0.0094(10) 0.0059(9) -0.0020(8) 0.0011(8) -0.0015(8)
Si12 Si4+ 0.0096(11) 0.0103(10) 0.0116(11) -0.0012(8) 0.0010(8) -0.0004(8)
Na1 Na1+ 0.0188(16) 0.0263(19) 0.0199(17) 0.0030(15) -0.0011(14) 0.0045(16)
Na2 Na1+ 0.0190(16) 0.0189(16) 0.0223(17) 0.0036(14) 0.0016(17) -0.0046(13)
Na3 Na1+ 0.029(2) 0.0138(16) 0.029(2) -0.0003(14) -0.0069(17) 0.0029(15)
Na4 Na1+ 0.023(2) 0.0238(19) 0.029(2) 0.0103(16) 0.0059(16) 0.0001(17)
Na5 Na1+ 0.0253(18) 0.0225(18) 0.0188(17) -0.0043(16) -0.0002(14) -0.0003(16)
Na6 Na1+ 0.0229(18) 0.0157(15) 0.0197(16) 0.0032(15) -0.0055(15) -0.0038(13)
Na7 Na1+ 0.028(2) 0.038(2) 0.0207(18) 0.0066(19) -0.0028(15) -0.0011(18)
Na8 Na1+ 0.023(2) 0.023(2) 0.064(3) -0.0068(16) 0.019(2) -0.018(2)
Na9 Na1+ 0.026(2) 0.0256(19) 0.032(2) -0.0075(15) -0.0137(18) 0.0116(18)
Na10 Na1+ 0.037(3) 0.027(2) 0.037(3) 0.0034(19) -0.017(2) -0.0027(19)
Na11 Na1+ 0.033(2) 0.032(2) 0.040(2) 0.0044(19) -0.0020(19) -0.011(2)
Na12 Na1+ 0.021(2) 0.025(2) 0.028(2) 0.0042(17) -0.0027(16) 0.0058(16)
O1 O2- 0.011(3) 0.014(3) 0.015(3) 0.002(2) 0.005(2) -0.002(2)
O2 O2- 0.018(3) 0.014(3) 0.017(3) -0.006(2) 0.007(2) 0.000(2)
O3 O2- 0.017(3) 0.013(3) 0.019(3) 0.001(2) 0.002(3) 0.003(2)
O4 O2- 0.012(3) 0.018(3) 0.012(3) 0.003(2) -0.001(2) -0.004(2)
O5 O2- 0.009(3) 0.020(3) 0.023(3) -0.002(2) 0.002(2) 0.006(2)
O6 O2- 0.023(3) 0.018(3) 0.020(3) -0.007(3) -0.005(3) 0.000(3)
O7 O2- 0.022(3) 0.015(3) 0.008(2) -0.001(2) -0.002(2) -0.004(2)
O8 O2- 0.011(3) 0.016(3) 0.019(3) 0.000(2) 0.000(2) -0.009(2)
O9 O2- 0.025(3) 0.011(3) 0.022(3) -0.005(2) -0.004(3) -0.007(2)
O10 O2- 0.011(3) 0.013(2) 0.019(3) 0.004(2) -0.005(2) -0.002(2)
O11 O2- 0.021(3) 0.013(3) 0.009(3) -0.001(2) -0.001(2) -0.005(2)
O12 O2- 0.024(3) 0.024(3) 0.012(3) 0.006(2) 0.003(3) 0.004(3)
O13 O2- 0.013(3) 0.026(3) 0.013(3) 0.001(2) 0.001(2) -0.001(3)
O14 O2- 0.014(3) 0.013(3) 0.014(3) -0.007(2) 0.000(2) 0.002(2)
O15 O2- 0.024(3) 0.022(3) 0.013(3) 0.010(3) 0.005(3) -0.004(2)
O16 O2- 0.015(3) 0.018(3) 0.021(3) 0.002(3) -0.005(3) -0.007(2)
O17 O2- 0.011(3) 0.021(3) 0.010(3) -0.004(2) 0.000(2) -0.002(2)
O18 O2- 0.015(3) 0.016(3) 0.015(3) -0.002(2) 0.002(2) 0.005(2)
O19 O2- 0.025(3) 0.008(3) 0.026(3) 0.000(2) -0.003(3) -0.002(3)
O20 O2- 0.020(3) 0.014(3) 0.012(3) 0.001(2) 0.001(2) -0.002(2)
O21 O2- 0.017(3) 0.009(3) 0.017(3) -0.001(2) -0.001(2) -0.001(2)
O22 O2- 0.013(3) 0.013(3) 0.017(3) 0.001(2) 0.000(2) 0.004(2)
O23 O2- 0.014(3) 0.011(3) 0.009(3) 0.001(2) 0.001(2) 0.000(2)
O24 O2- 0.013(3) 0.016(3) 0.015(3) -0.001(2) 0.003(2) -0.001(2)
O25 O2- 0.010(3) 0.016(3) 0.018(3) 0.004(2) 0.003(2) -0.002(2)
O26 O2- 0.015(3) 0.011(3) 0.014(3) -0.001(2) -0.003(2) -0.001(2)
O27 O2- 0.017(3) 0.013(3) 0.016(3) 0.001(2) -0.003(2) -0.001(2)
O28 O2- 0.010(3) 0.015(3) 0.016(2) 0.002(2) 0.001(2) 0.003(2)
O29 O2- 0.009(3) 0.017(3) 0.020(3) 0.001(2) 0.002(2) -0.003(2)
O30 O2- 0.027(3) 0.009(3) 0.013(3) -0.004(2) 0.000(2) 0.003(2)
O31 O2- 0.006(3) 0.023(3) 0.018(3) 0.002(2) -0.007(2) 0.003(2)
O32 O2- 0.018(3) 0.015(3) 0.025(3) -0.006(2) -0.001(3) 0.006(3)
O33 O2- 0.015(3) 0.016(3) 0.011(2) 0.005(2) -0.002(2) -0.001(2)
O34 O2- 0.012(3) 0.018(3) 0.012(3) 0.000(2) -0.002(2) 0.003(2)
O35 O2- 0.027(4) 0.012(3) 0.017(3) -0.005(2) 0.010(3) 0.005(2)
O36 O2- 0.019(3) 0.023(3) 0.012(3) 0.005(3) 0.004(2) 0.000(3)
#End of TTdata_428147-ICSD