
#(C) 2019 by FIZ Karlsruhe - Leibniz Institute for Information Infrastructure.  All rights reserved.
data_428349-ICSD
_database_code_ICSD 428349
_audit_creation_date 2017-08-01
_chemical_name_systematic '25-Sodium octacesium pentairon(III) 24-molybdate(VI)'
_chemical_formula_structural 'Na25 Cs8 Fe5 (Mo O4)24'
_chemical_formula_sum 'Cs8 Fe5 Mo24 Na25 O96'
_exptl_crystal_density_diffrn 3.84
_cell_measurement_temperature 296.
_publ_section_title

;
Synthesis, crystal structure and properties of alluaudite-like triple
molybdate Na25 Cs8 Fe5 (Mo O4)24
;
loop_
_citation_id
_citation_journal_full
_citation_year
_citation_journal_volume
_citation_page_first
_citation_page_last
_citation_journal_id_ASTM
primary 'Journal of Solid State Chemistry' 2014 220 217 220 JSSCBI
loop_
_publ_author_name
'Savina, Aleksandra A.'
'Solodovnikov, Sergey F.'
'Belov, Dmitry A.'
'Basovich, Olga M.'
'Solodovnikova, Zoya A.'
'Pokholok, Konstantin V.'
'Stefanovich, Sergey Yu.'
'Lazoryak, Bogdan I.'
'Khaikina, Elena G.'
_cell_length_a 12.5814(5)
_cell_length_b 13.8989(5)
_cell_length_c 28.4386(9)
_cell_angle_alpha 90.108(2)
_cell_angle_beta 90.064(2)
_cell_angle_gamma 90.020(2)
_cell_volume 4972.97
_cell_formula_units_Z 2
_symmetry_space_group_name_H-M 'P -1'
_symmetry_Int_Tables_number 2
_refine_ls_R_factor_all 0.044
loop_
_symmetry_equiv_pos_site_id
_symmetry_equiv_pos_as_xyz
1 '-x, -y, -z'
2 'x, y, z'
loop_
_atom_type_symbol
_atom_type_oxidation_number
Cs1+ 1
Mo6+ 6
Fe3+ 3
Na1+ 1
Fe3+ 3
Na1+ 1
O2- -2
loop_
_atom_site_label
_atom_site_type_symbol
_atom_site_symmetry_multiplicity
_atom_site_Wyckoff_symbol
_atom_site_fract_x
_atom_site_fract_y
_atom_site_fract_z
_atom_site_B_iso_or_equiv
_atom_site_occupancy
_atom_site_attached_hydrogens
Cs1 Cs1+ 2 i 0.98247(5) 0.48866(4) 0.56899(2) 0.02448(12) 1 0
Cs2 Cs1+ 2 i 0.51749(5) -0.51135(4) 0.06902(2) 0.02435(12) 1 0
Cs3 Cs1+ 2 i 0.46697(5) 0.00466(5) 0.56808(2) 0.02768(13) 1 0
Cs4 Cs1+ 2 i 0.03302(5) -0.99530(5) 0.06808(2) 0.02796(14) 1 0
Cs5 Cs1+ 2 i 0.45008(5) -0.00928(4) 0.71566(2) 0.02815(14) 1 0
Cs6 Cs1+ 2 i 0.95021(5) 0.00917(4) 0.78422(3) 0.02836(14) 1 0
Cs7 Cs1+ 2 i 0.54286(6) -0.49460(5) 0.21966(3) 0.03815(18) 1 0
Cs8 Cs1+ 2 i 0.95689(6) 0.50555(5) 0.71959(3) 0.03794(18) 1 0
Mo1 Mo6+ 2 i 0.96075(6) 0.20926(5) 0.55359(2) 0.01362(13) 1 0
Mo2 Mo6+ 2 i 0.46083(6) -0.20929(5) 0.94640(2) 0.01358(13) 1 0
Mo3 Mo6+ 2 i 0.72661(6) 0.61418(5) 0.60492(2) 0.01407(13) 1 0
Mo4 Mo6+ 2 i 0.75597(6) 0.38609(5) 0.46914(3) 0.01558(14) 1 0
Mo5 Mo6+ 2 i 0.01709(6) -0.71700(5) 0.05562(2) 0.01463(13) 1 0
Mo6 Mo6+ 2 i 0.18315(6) 0.11277(5) 0.71998(2) 0.01453(13) 1 0
Mo7 Mo6+ 2 i 0.68314(6) -0.11282(5) 0.78001(2) 0.01461(13) 1 0
Mo8 Mo6+ 2 i 0.78476(7) 0.12435(5) 0.39829(2) 0.01664(14) 1 0
Mo9 Mo6+ 2 i 0.77336(6) -0.38580(5) 0.10488(2) 0.01412(13) 1 0
Mo10 Mo6+ 2 i 0.48286(6) 0.28309(5) 0.55557(2) 0.01464(13) 1 0
Mo11 Mo6+ 2 i 0.71552(7) 0.12420(5) 0.89827(3) 0.01670(14) 1 0
Mo12 Mo6+ 2 i 0.69398(6) 0.11415(5) 0.64525(2) 0.01445(13) 1 0
Mo13 Mo6+ 2 i 0.43660(6) 0.71565(5) 0.68559(3) 0.01592(14) 1 0
Mo14 Mo6+ 2 i 0.26546(6) 0.09441(5) 0.47248(3) 0.01588(14) 1 0
Mo15 Mo6+ 2 i 0.20521(6) 0.38874(5) 0.65435(2) 0.01667(14) 1 0
Mo16 Mo6+ 2 i 0.25596(6) -0.38612(5) 0.03091(3) 0.01561(14) 1 0
Mo17 Mo6+ 2 i 0.19412(6) -0.11416(5) 0.85474(2) 0.01453(13) 1 0
Mo18 Mo6+ 2 i 0.70528(6) -0.38870(5) 0.84565(3) 0.01655(14) 1 0
Mo19 Mo6+ 2 i 0.23453(6) 0.09435(5) 0.97250(2) 0.01577(14) 1 0
Mo20 Mo6+ 2 i 0.93668(7) 0.28432(5) 0.81443(3) 0.01596(14) 1 0
Mo21 Mo6+ 2 i 0.68778(6) 0.40671(5) 0.71821(3) 0.01773(14) 1 0
Mo22 Mo6+ 2 i 0.81231(6) -0.59332(5) 0.21817(3) 0.01784(15) 1 0
Mo23 Mo6+ 2 i 0.92939(7) 0.77112(6) 0.68942(3) 0.02016(15) 1 0
Mo24 Mo6+ 2 i 0.42963(7) 0.22884(6) 0.81052(3) 0.02007(16) 1 0
Fe1 Fe3+ 2 i 0.20624(10) -0.16389(8) 0.98163(4) 0.0120(2) 1 0
Fe2 Fe3+ 2 i 0.70628(10) 0.16378(8) 0.51835(4) 0.0123(2) 1 0
Fe3 Fe3+ 2 i 0.19470(11) 0.32850(8) 0.77336(4) 0.0163(2) 1 0
Fe4 Fe3+ 2 i 0.69455(11) 0.67164(8) 0.72666(4) 0.0159(2) 1 0
Fe5 Fe3+ 2 i 0.17379(14) 0.65290(11) 0.65337(6) 0.0117(3) 0.5 0
Na1 Na1+ 2 i 0.17379(14) 0.65290(11) 0.65337(6) 0.0117(3) 0.5 0
Fe6 Fe3+ 2 i 0.32607(14) -0.34718(12) 0.15339(6) 0.0121(3) 0.5 0
Na2 Na1+ 2 i 0.32607(14) -0.34718(12) 0.15339(6) 0.0121(3) 0.5 0
Na3 Na1+ 2 i 0.1744(3) 0.1528(2) 0.85177(11) 0.0104(6) 1 0
Na4 Na1+ 2 i 0.6744(3) 0.8472(2) 0.64832(10) 0.0109(6) 1 0
Na5 Na1+ 2 i 0.0516(3) -0.7355(3) 0.18397(14) 0.0226(8) 1 0
Na6 Na1+ 2 i 0.6998(3) 0.1712(3) 0.76519(13) 0.0177(7) 1 0
Na7 Na1+ 2 i 0.4482(3) 0.2644(3) 0.68405(14) 0.0234(8) 1 0
Na8 Na1+ 2 i 0.9935(4) -0.7375(3) 0.93779(14) 0.0288(10) 1 0
Na9 Na1+ 2 i 0.4642(4) 0.2343(3) 0.93111(14) 0.0301(10) 1 0
Na10 Na1+ 2 i 0.4707(4) 0.5004(3) 0.62393(17) 0.0353(12) 1 0
Na11 Na1+ 2 i 0.4647(4) 0.0012(3) 0.87178(18) 0.0342(10) 1 0
Na12 Na1+ 2 i 0.2380(3) -0.3430(3) 0.89642(13) 0.0218(8) 1 0
Na13 Na1+ 2 i 0.9634(4) -0.0009(3) 0.62824(17) 0.0339(11) 1 0
Na14 Na1+ 2 i 0.7071(3) -0.3320(2) 0.98063(12) 0.0179(7) 1 0
Na15 Na1+ 2 i 0.9642(4) 0.7660(3) 0.56875(15) 0.0315(10) 1 0
Na16 Na1+ 2 i 0.2071(3) 0.3317(3) 0.51906(12) 0.0175(7) 1 0
Na17 Na1+ 2 i 0.9699(4) 0.4991(3) 0.87576(17) 0.0347(11) 1 0
Na18 Na1+ 2 i 0.2283(4) 0.1526(3) 0.60512(13) 0.0237(8) 1 0
Na19 Na1+ 2 i 0.5070(4) 0.2628(3) 0.43763(15) 0.0298(10) 1 0
Na20 Na1+ 2 i 0.9362(3) 0.2306(3) 0.68297(14) 0.0241(8) 1 0
Na21 Na1+ 2 i 0.7280(4) -0.1526(3) 0.89465(13) 0.0236(8) 1 0
Na22 Na1+ 2 i 0.1987(3) -0.1714(3) 0.73477(13) 0.0195(8) 1 0
Na23 Na1+ 2 i 0.4369(3) -0.2308(3) 0.81675(14) 0.0230(8) 1 0
Na24 Na1+ 2 i 0.7365(3) 0.3431(3) 0.60390(14) 0.0219(8) 1 0
Na25 Na1+ 2 i 0.4780(10) 0.4926(8) 0.4900(4) 0.036(4) 0.5 0
Na26 Na1+ 2 i 0.9825(12) 0.0078(12) 0.4900(3) 0.037(3) 0.5 0
Na27 Na1+ 2 i -0.0216(8) -0.4931(7) 0.0105(4) 0.035(3) 0.5 0
Na28 Na1+ 2 i 0.5187(10) 0.0085(9) 0.9903(3) 0.036(3) 0.5 0
O1 O2- 2 i 0.9164(5) 0.2769(5) 0.6008(2) 0.0193(13) 1 0
O2 O2- 2 i 0.7926(5) 0.1658(5) 0.9469(2) 0.0193(13) 1 0
O3 O2- 2 i 0.7058(5) 0.1661(5) 0.4474(2) 0.0190(13) 1 0
O4 O2- 2 i 0.7218(6) -0.4996(4) 0.1180(3) 0.0246(15) 1 0
O5 O2- 2 i 0.4187(6) -0.2771(5) 0.9003(2) 0.0207(13) 1 0
O6 O2- 2 i 0.9463(5) -0.7977(4) 0.0141(2) 0.0177(12) 1 0
O7 O2- 2 i 0.6861(5) -0.3348(4) 0.0622(2) 0.0183(13) 1 0
O8 O2- 2 i 0.3218(6) -0.0237(4) 0.4817(2) 0.0209(13) 1 0
O9 O2- 2 i 0.2588(6) -0.3045(4) 0.9822(2) 0.0205(13) 1 0
O10 O2- 2 i 0.5405(6) 0.6437(5) 0.7058(3) 0.0252(15) 1 0
O11 O2- 2 i 0.1550(6) 0.1549(5) 0.9333(2) 0.0273(16) 1 0
O12 O2- 2 i 0.1786(6) -0.0230(4) 0.9822(2) 0.0211(14) 1 0
O13 O2- 2 i 0.7772(6) 0.5000(5) 0.6174(3) 0.0258(15) 1 0
O14 O2- 2 i 0.0403(6) 0.3571(5) 0.7933(3) 0.0261(16) 1 0
O15 O2- 2 i 0.3870(6) 0.7821(5) 0.7328(2) 0.0218(14) 1 0
O16 O2- 2 i 0.7569(6) 0.3049(5) 0.5182(2) 0.0222(14) 1 0
O17 O2- 2 i 0.7929(6) 0.3491(5) 0.6892(2) 0.0257(16) 1 0
O18 O2- 2 i 0.8134(5) 0.6667(4) 0.5628(2) 0.0199(13) 1 0
O19 O2- 2 i 0.6863(6) 0.1725(5) 0.5883(2) 0.0229(14) 1 0
O20 O2- 2 i 0.6504(6) -0.3267(5) 0.7956(2) 0.0260(15) 1 0
O21 O2- 2 i 0.3450(6) 0.1551(5) 0.4328(2) 0.0274(17) 1 0
O22 O2- 2 i 0.0219(5) 0.2864(4) 0.5128(2) 0.0205(13) 1 0
O23 O2- 2 i 0.3681(6) 0.0848(5) 0.9538(3) 0.0331(19) 1 0
O24 O2- 2 i 0.6269(6) 0.4088(5) 0.4520(3) 0.0259(15) 1 0
O25 O2- 2 i 0.5219(5) -0.2864(4) 0.9872(2) 0.0200(13) 1 0
O26 O2- 2 i 0.8865(6) 0.2192(4) 0.7674(2) 0.0206(13) 1 0
O27 O2- 2 i 0.1488(6) 0.3270(5) 0.7039(2) 0.0268(16) 1 0
O28 O2- 2 i 0.8128(6) 0.4951(4) 0.4874(3) 0.0251(15) 1 0
O29 O2- 2 i 0.5530(5) 0.2036(4) 0.5139(2) 0.0180(12) 1 0
O30 O2- 2 i 0.1579(5) 0.1848(4) 0.7716(2) 0.0192(13) 1 0
O31 O2- 2 i 0.1875(6) -0.1715(5) 0.9123(2) 0.0226(15) 1 0
O32 O2- 2 i 0.5659(6) 0.3742(5) 0.5767(3) 0.0311(18) 1 0
O33 O2- 2 i 0.7397(7) 0.0129(5) 0.3839(3) 0.0315(18) 1 0
O34 O2- 2 i 0.3278(6) -0.0974(5) 0.8408(3) 0.0256(15) 1 0
O35 O2- 2 i 0.8387(6) 0.3405(5) 0.4235(3) 0.034(2) 1 0
O36 O2- 2 i 0.7632(7) 0.0123(5) 0.8833(3) 0.036(2) 1 0
O37 O2- 2 i 0.3127(5) -0.4946(4) 0.0129(3) 0.0217(13) 1 0
O38 O2- 2 i 0.9329(6) -0.6272(5) 0.0760(3) 0.0309(18) 1 0
O39 O2- 2 i 0.7248(6) 0.5289(4) 0.7319(3) 0.0238(15) 1 0
O40 O2- 2 i 0.5494(6) -0.1222(5) 0.9275(2) 0.0250(15) 1 0
O41 O2- 2 i 0.4234(6) 0.2167(5) 0.6001(2) 0.0241(15) 1 0
O42 O2- 2 i 0.1322(6) 0.0842(6) 0.4543(3) 0.0336(18) 1 0
O43 O2- 2 i 0.6571(6) 0.3455(5) 0.7715(3) 0.0279(17) 1 0
O44 O2- 2 i 0.3612(5) -0.1367(4) 0.9758(2) 0.0185(13) 1 0
O45 O2- 2 i 0.2329(6) 0.1558(5) 0.0254(2) 0.0269(16) 1 0
O46 O2- 2 i 0.5694(6) -0.1084(5) 0.8168(3) 0.0280(16) 1 0
O47 O2- 2 i 0.0742(6) -0.7837(5) 0.1011(2) 0.0235(14) 1 0
O48 O2- 2 i 0.3900(6) 0.3454(5) 0.5220(3) 0.0265(15) 1 0
O49 O2- 2 i 0.9203(6) 0.1083(6) 0.4145(3) 0.0305(17) 1 0
O50 O2- 2 i 0.8421(6) -0.4005(5) 0.8403(3) 0.0258(15) 1 0
O51 O2- 2 i 0.6592(6) -0.1851(4) 0.7284(2) 0.0207(13) 1 0
O52 O2- 2 i 0.1096(6) -0.6540(5) 0.0228(3) 0.0291(17) 1 0
O53 O2- 2 i 0.9050(6) -0.3958(5) 0.0845(2) 0.0266(16) 1 0
O54 O2- 2 i 0.0481(6) 0.1212(5) 0.5722(3) 0.0268(16) 1 0
O55 O2- 2 i 0.6425(6) -0.5042(5) 0.8515(3) 0.0303(17) 1 0
O56 O2- 2 i 0.2929(6) 0.1525(5) 0.6877(2) 0.0209(14) 1 0
O57 O2- 2 i 0.7054(6) -0.6507(5) 0.1886(3) 0.0268(15) 1 0
O58 O2- 2 i 0.8533(6) 0.7072(5) 0.7335(2) 0.0233(14) 1 0
O59 O2- 2 i 0.5959(6) 0.6039(5) 0.5848(3) 0.0258(15) 1 0
O60 O2- 2 i 0.2124(6) -0.0039(5) 0.7394(2) 0.0242(15) 1 0
O61 O2- 2 i 0.8608(5) 0.1378(4) 0.5247(2) 0.0190(13) 1 0
O62 O2- 2 i 0.7127(6) 0.0041(5) 0.7609(2) 0.0236(14) 1 0
O63 O2- 2 i 0.4841(6) 0.7974(5) 0.6425(2) 0.0286(17) 1 0
O64 O2- 2 i 0.1257(6) -0.4073(5) 0.0487(3) 0.0303(18) 1 0
O65 O2- 2 i 0.1338(7) -0.0034(5) 0.8590(3) 0.036(2) 1 0
O66 O2- 2 i 0.7760(6) -0.4722(4) 0.2329(3) 0.0241(15) 1 0
O67 O2- 2 i 0.5812(6) 0.1076(5) 0.9143(3) 0.0276(16) 1 0
O68 O2- 2 i 0.7290(6) 0.6874(5) 0.6579(2) 0.0235(15) 1 0
O69 O2- 2 i 0.8252(6) 0.0987(5) 0.6593(3) 0.0265(15) 1 0
O70 O2- 2 i 0.3404(6) 0.4000(5) 0.6604(3) 0.0299(17) 1 0
O71 O2- 2 i 0.1417(6) 0.5022(6) 0.6482(3) 0.0328(19) 1 0
O72 O2- 2 i 0.0679(6) 0.1077(5) 0.6834(3) 0.0298(17) 1 0
O73 O2- 2 i 0.6317(6) 0.0038(5) 0.6415(3) 0.0300(17) 1 0
O74 O2- 2 i 0.2671(7) 0.1552(5) 0.5252(2) 0.0309(18) 1 0
O75 O2- 2 i 0.1720(7) 0.3228(6) 0.6027(2) 0.0316(18) 1 0
O76 O2- 2 i 0.9813(6) 0.2026(5) 0.8575(2) 0.0275(15) 1 0
O77 O2- 2 i 0.7190(7) 0.1979(5) 0.8483(2) 0.0277(16) 1 0
O78 O2- 2 i 0.7795(6) 0.1983(5) 0.3493(2) 0.0269(16) 1 0
O79 O2- 2 i 0.6261(6) 0.1837(5) 0.6867(2) 0.0237(15) 1 0
O80 O2- 2 i 0.3539(6) 0.2919(5) 0.7666(2) 0.0254(15) 1 0
O81 O2- 2 i 0.7928(6) -0.1521(5) 0.8124(2) 0.0237(15) 1 0
O82 O2- 2 i 0.3408(7) -0.3405(5) 0.0755(3) 0.0361(19) 1 0
O83 O2- 2 i 0.1266(6) -0.1840(5) 0.8132(2) 0.0245(15) 1 0
O84 O2- 2 i 0.8614(7) 0.8542(6) 0.6536(3) 0.044(2) 1 0
O85 O2- 2 i 0.5225(7) 0.1595(6) 0.7813(4) 0.053(3) 1 0
O86 O2- 2 i 0.3611(7) 0.1447(6) 0.8459(3) 0.047(3) 1 0
O87 O2- 2 i 0.0191(7) 0.8409(6) 0.7191(4) 0.049(3) 1 0
O88 O2- 2 i 0.6747(7) -0.3221(5) 0.8965(2) 0.0292(16) 1 0
O89 O2- 2 i 0.7689(7) -0.3129(5) 0.1573(2) 0.0269(16) 1 0
O90 O2- 2 i 0.9953(8) 0.6937(6) 0.6491(3) 0.041(2) 1 0
O91 O2- 2 i 0.8427(8) 0.3670(6) 0.8385(3) 0.040(2) 1 0
O92 O2- 2 i 0.5012(8) 0.3067(6) 0.8508(3) 0.038(2) 1 0
O93 O2- 2 i 0.3424(8) 0.6328(6) 0.6601(3) 0.040(2) 1 0
O94 O2- 2 i 0.9262(7) -0.5939(6) 0.1831(3) 0.036(2) 1 0
O95 O2- 2 i 0.5737(7) 0.4062(6) 0.6829(3) 0.0346(18) 1 0
O96 O2- 2 i 0.8426(7) -0.6562(5) 0.2722(3) 0.0293(16) 1 0
loop_
_atom_site_aniso_label
_atom_site_aniso_type_symbol
_atom_site_aniso_U_11
_atom_site_aniso_U_22
_atom_site_aniso_U_33
_atom_site_aniso_U_12
_atom_site_aniso_U_13
_atom_site_aniso_U_23
Cs1 Cs1+ 0.0158(3) 0.0267(3) 0.0310(3) -0.0002(2) -0.0008(2) -0.0008(2)
Cs2 Cs1+ 0.0155(3) 0.0267(3) 0.0309(3) 0.0004(2) 0.0000(2) -0.0008(2)
Cs3 Cs1+ 0.0209(3) 0.0322(3) 0.0299(3) -0.0027(2) 0.0004(3) 0.0025(2)
Cs4 Cs1+ 0.0210(3) 0.0327(3) 0.0303(3) 0.0019(2) 0.0001(3) 0.0029(2)
Cs5 Cs1+ 0.0193(3) 0.0222(3) 0.0429(4) 0.0030(2) 0.0016(3) 0.0025(2)
Cs6 Cs1+ 0.0197(3) 0.0218(3) 0.0436(4) -0.0030(2) -0.0024(3) 0.0023(2)
Cs7 Cs1+ 0.0242(4) 0.0319(3) 0.0584(5) 0.0005(3) 0.0013(3) 0.0017(3)
Cs8 Cs1+ 0.0242(4) 0.0322(3) 0.0574(5) -0.0018(3) 0.0003(3) 0.0014(3)
Mo1 Mo6+ 0.0123(3) 0.0131(3) 0.0154(3) -0.0002(2) 0.0014(3) 0.0003(2)
Mo2 Mo6+ 0.0120(3) 0.0132(3) 0.0156(3) 0.0005(2) -0.0026(3) 0.0006(2)
Mo3 Mo6+ 0.0145(4) 0.0139(3) 0.0138(3) 0.0001(2) 0.0024(3) -0.0001(2)
Mo4 Mo6+ 0.0132(4) 0.0134(3) 0.0202(3) -0.0018(2) 0.0030(3) 0.0007(2)
Mo5 Mo6+ 0.0138(4) 0.0138(3) 0.0163(3) -0.0001(2) -0.0019(3) -0.0011(2)
Mo6 Mo6+ 0.0130(4) 0.0157(3) 0.0148(3) 0.0006(2) -0.0002(3) -0.0009(2)
Mo7 Mo6+ 0.0130(4) 0.0160(3) 0.0149(3) -0.0005(2) -0.0001(3) -0.0008(2)
Mo8 Mo6+ 0.0195(4) 0.0159(3) 0.0145(3) 0.0021(2) 0.0005(3) -0.0011(2)
Mo9 Mo6+ 0.0142(4) 0.0141(3) 0.0141(3) 0.0000(2) -0.0030(3) 0.0001(2)
Mo10 Mo6+ 0.0138(4) 0.0141(3) 0.0160(3) 0.0004(2) 0.0013(3) -0.0009(2)
Mo11 Mo6+ 0.0199(4) 0.0155(3) 0.0146(3) -0.0020(2) -0.0009(3) -0.0010(2)
Mo12 Mo6+ 0.0147(4) 0.0143(3) 0.0143(3) -0.0013(2) 0.0015(3) -0.0010(2)
Mo13 Mo6+ 0.0186(4) 0.0128(3) 0.0163(3) -0.0004(2) 0.0021(3) -0.0008(2)
Mo14 Mo6+ 0.0182(4) 0.0132(3) 0.0163(3) -0.0016(2) 0.0021(3) 0.0002(2)
Mo15 Mo6+ 0.0153(4) 0.0204(3) 0.0143(3) 0.0026(2) 0.0006(3) 0.0016(2)
Mo16 Mo6+ 0.0134(4) 0.0131(3) 0.0203(3) 0.0019(2) -0.0036(3) 0.0008(2)
Mo17 Mo6+ 0.0149(4) 0.0143(3) 0.0143(3) 0.0015(2) -0.0022(3) -0.0009(2)
Mo18 Mo6+ 0.0147(4) 0.0206(3) 0.0144(3) -0.0026(2) -0.0018(3) 0.0017(2)
Mo19 Mo6+ 0.0181(4) 0.0131(3) 0.0160(3) 0.0017(2) -0.0028(3) 0.0001(2)
Mo20 Mo6+ 0.0189(4) 0.0125(3) 0.0165(3) 0.0006(2) -0.0028(3) -0.0006(2)
Mo21 Mo6+ 0.0148(4) 0.0151(3) 0.0233(3) 0.0017(2) -0.0017(3) -0.0030(3)
Mo22 Mo6+ 0.0150(4) 0.0154(3) 0.0231(3) -0.0015(2) 0.0015(3) -0.0027(3)
Mo23 Mo6+ 0.0221(4) 0.0196(3) 0.0187(3) -0.0025(3) -0.0018(3) -0.0023(3)
Mo24 Mo6+ 0.0218(4) 0.0194(3) 0.0190(3) 0.0030(3) 0.0017(3) -0.0022(3)
Fe1 Fe3+ 0.0122(6) 0.0114(5) 0.0124(4) 0.0013(4) -0.0020(4) 0.0001(4)
Fe2 Fe3+ 0.0129(6) 0.0116(5) 0.0123(5) -0.0017(4) 0.0016(4) 0.0001(4)
Fe3 Fe3+ 0.0183(7) 0.0134(5) 0.0173(5) -0.0008(4) -0.0012(5) 0.0022(4)
Fe4 Fe3+ 0.0173(7) 0.0137(5) 0.0168(5) 0.0006(4) 0.0012(5) 0.0018(4)
Fe5 Fe3+ 0.0107(9) 0.0118(7) 0.0126(7) -0.0005(5) -0.0003(6) -0.0003(5)
Na1 Na1+ 0.0107(9) 0.0118(7) 0.0126(7) -0.0005(5) -0.0003(6) -0.0003(5)
Fe6 Fe3+ 0.0108(9) 0.0135(7) 0.0120(7) 0.0005(6) -0.0020(6) 0.0001(5)
Na2 Na1+ 0.0108(9) 0.0135(7) 0.0120(7) 0.0005(6) -0.0020(6) 0.0001(5)
Na3 Na1+ 0.0105(16) 0.0092(13) 0.0115(13) -0.0012(10) -0.0017(12) 0.0004(10)
Na4 Na1+ 0.0122(17) 0.0107(13) 0.0098(12) 0.0029(11) -0.0005(12) 0.0011(10)
Na5 Na1+ 0.022(2) 0.0191(17) 0.0271(18) 0.0000(14) -0.0013(17) 0.0017(14)
Na6 Na1+ 0.0114(19) 0.0205(16) 0.0213(16) -0.0012(12) -0.0064(14) -0.0020(13)
Na7 Na1+ 0.022(2) 0.0204(17) 0.0279(19) 0.0020(14) -0.0032(17) 0.0027(15)
Na8 Na1+ 0.038(3) 0.0212(18) 0.0270(19) 0.0051(17) 0.009(2) 0.0045(16)
Na9 Na1+ 0.037(3) 0.029(2) 0.0239(18) 0.0165(18) 0.0008(19) -0.0029(17)
Na10 Na1+ 0.040(3) 0.0208(19) 0.045(3) -0.0061(17) 0.018(2) -0.0032(18)
Na11 Na1+ 0.033(3) 0.0174(18) 0.052(3) -0.0083(16) -0.017(2) 0.0038(18)
Na12 Na1+ 0.022(2) 0.0206(17) 0.0229(17) 0.0005(14) 0.0024(16) -0.0038(14)
Na13 Na1+ 0.035(3) 0.0162(17) 0.051(3) 0.0065(16) 0.015(2) 0.0032(18)
Na14 Na1+ 0.017(2) 0.0198(16) 0.0174(15) -0.0005(13) 0.0015(14) 0.0004(13)
Na15 Na1+ 0.038(3) 0.032(2) 0.0244(19) -0.0188(18) -0.0067(19) 0.0014(17)
Na16 Na1+ 0.0157(19) 0.0207(17) 0.0161(15) 0.0013(13) -0.0019(14) -0.0003(13)
Na17 Na1+ 0.036(3) 0.024(2) 0.043(3) 0.0046(18) -0.014(2) -0.0015(19)
Na18 Na1+ 0.032(2) 0.0190(17) 0.0200(17) 0.0021(15) 0.0008(17) 0.0001(14)
Na19 Na1+ 0.042(3) 0.0209(19) 0.0264(19) -0.0050(17) -0.011(2) 0.0049(16)
Na20 Na1+ 0.023(2) 0.0224(18) 0.0268(19) 0.0068(15) -0.0007(17) -0.0002(15)
Na21 Na1+ 0.031(2) 0.0215(18) 0.0183(16) -0.0020(15) -0.0004(16) 0.0015(14)
Na22 Na1+ 0.0133(19) 0.0234(17) 0.0220(17) -0.0008(13) 0.0038(15) -0.0019(14)
Na23 Na1+ 0.023(2) 0.0217(18) 0.0240(18) -0.0051(14) -0.0003(17) -0.0007(14)
Na24 Na1+ 0.021(2) 0.0191(17) 0.0253(18) -0.0027(14) -0.0016(16) -0.0042(14)
Na25 Na1+ 0.039(9) 0.018(4) 0.050(9) 0.003(5) 0.020(6) 0.000(5)
Na26 Na1+ 0.040(9) 0.042(6) 0.030(7) -0.009(5) 0.011(6) -0.006(6)
Na27 Na1+ 0.031(7) 0.027(4) 0.046(7) -0.007(5) -0.022(5) 0.008(5)
Na28 Na1+ 0.043(9) 0.031(5) 0.032(6) -0.001(5) -0.025(5) -0.003(5)
O1 O2- 0.016(3) 0.026(3) 0.016(3) -0.001(2) -0.003(2) -0.003(2)
O2 O2- 0.012(3) 0.032(3) 0.014(2) 0.001(2) -0.006(2) 0.003(2)
O3 O2- 0.011(3) 0.027(3) 0.019(3) -0.001(2) 0.003(2) 0.002(2)
O4 O2- 0.026(4) 0.012(3) 0.036(4) -0.002(2) -0.002(3) 0.006(3)
O5 O2- 0.020(4) 0.024(3) 0.018(3) -0.003(2) 0.001(3) -0.005(2)
O6 O2- 0.015(3) 0.021(3) 0.017(3) 0.003(2) -0.003(2) -0.003(2)
O7 O2- 0.018(3) 0.024(3) 0.014(2) 0.006(2) -0.002(2) -0.001(2)
O8 O2- 0.024(4) 0.012(3) 0.027(3) 0.000(2) -0.001(3) 0.004(2)
O9 O2- 0.020(4) 0.019(3) 0.022(3) 0.002(2) -0.002(3) -0.001(2)
O10 O2- 0.019(4) 0.022(3) 0.035(4) -0.002(2) -0.004(3) -0.002(3)
O11 O2- 0.037(5) 0.022(3) 0.023(3) 0.002(3) -0.011(3) 0.005(3)
O12 O2- 0.024(4) 0.011(2) 0.028(3) 0.007(2) 0.002(3) 0.001(2)
O13 O2- 0.028(4) 0.015(3) 0.035(4) 0.004(2) 0.000(3) 0.005(3)
O14 O2- 0.019(4) 0.019(3) 0.041(4) 0.002(2) 0.003(3) -0.002(3)
O15 O2- 0.026(4) 0.024(3) 0.016(3) 0.001(3) -0.001(3) -0.005(2)
O16 O2- 0.025(4) 0.020(3) 0.021(3) -0.002(2) 0.002(3) -0.001(2)
O17 O2- 0.024(4) 0.022(3) 0.031(3) 0.009(3) 0.006(3) 0.002(3)
O18 O2- 0.018(3) 0.024(3) 0.017(3) -0.003(2) 0.002(3) 0.004(2)
O19 O2- 0.024(4) 0.029(3) 0.016(3) -0.008(3) 0.001(3) -0.006(2)
O20 O2- 0.037(5) 0.025(3) 0.016(3) 0.002(3) -0.006(3) -0.002(2)
O21 O2- 0.038(5) 0.019(3) 0.025(3) -0.002(3) 0.014(3) 0.002(3)
O22 O2- 0.019(4) 0.022(3) 0.021(3) -0.003(2) 0.002(3) 0.000(2)
O23 O2- 0.018(4) 0.030(4) 0.051(5) 0.003(3) 0.009(4) 0.006(3)
O24 O2- 0.015(4) 0.031(4) 0.032(4) 0.004(3) -0.006(3) 0.000(3)
O25 O2- 0.015(3) 0.021(3) 0.024(3) 0.003(2) -0.006(3) 0.002(2)
O26 O2- 0.021(4) 0.020(3) 0.021(3) -0.001(2) 0.000(3) -0.008(2)
O27 O2- 0.031(4) 0.023(3) 0.026(3) -0.001(3) 0.002(3) 0.002(3)
O28 O2- 0.024(4) 0.013(3) 0.039(4) -0.001(2) 0.001(3) 0.000(3)
O29 O2- 0.016(3) 0.019(3) 0.019(3) -0.002(2) 0.003(2) -0.002(2)
O30 O2- 0.022(4) 0.016(3) 0.019(3) 0.003(2) 0.001(3) -0.002(2)
O31 O2- 0.021(4) 0.026(3) 0.021(3) 0.011(3) 0.002(3) 0.003(3)
O32 O2- 0.024(4) 0.022(3) 0.047(4) -0.002(3) 0.004(4) -0.014(3)
O33 O2- 0.039(5) 0.020(3) 0.035(4) -0.002(3) 0.001(4) -0.004(3)
O34 O2- 0.018(4) 0.018(3) 0.041(4) 0.000(2) 0.000(3) 0.003(3)
O35 O2- 0.029(4) 0.026(3) 0.048(5) -0.005(3) 0.025(4) 0.000(3)
O36 O2- 0.054(6) 0.019(3) 0.035(4) -0.003(3) 0.003(4) -0.007(3)
O37 O2- 0.018(4) 0.013(3) 0.035(3) 0.002(2) -0.005(3) 0.000(2)
O38 O2- 0.016(4) 0.027(4) 0.050(5) 0.002(3) 0.001(4) -0.012(3)
O39 O2- 0.019(4) 0.013(3) 0.040(4) 0.004(2) 0.001(3) -0.003(3)
O40 O2- 0.020(4) 0.026(3) 0.030(3) -0.005(3) 0.001(3) 0.003(3)
O41 O2- 0.024(4) 0.026(3) 0.022(3) 0.000(3) 0.004(3) 0.001(3)
O42 O2- 0.020(4) 0.034(4) 0.046(5) -0.004(3) -0.009(4) 0.010(4)
O43 O2- 0.029(4) 0.022(3) 0.033(4) -0.002(3) 0.009(3) -0.009(3)
O44 O2- 0.015(3) 0.015(3) 0.026(3) 0.001(2) 0.002(3) -0.004(2)
O45 O2- 0.034(5) 0.030(4) 0.016(3) 0.002(3) -0.011(3) -0.003(3)
O46 O2- 0.017(4) 0.032(4) 0.035(4) -0.004(3) 0.006(3) -0.009(3)
O47 O2- 0.027(4) 0.025(3) 0.018(3) 0.002(3) -0.006(3) -0.001(2)
O48 O2- 0.016(4) 0.026(3) 0.037(4) 0.000(3) -0.009(3) 0.003(3)
O49 O2- 0.018(4) 0.039(4) 0.034(4) 0.000(3) -0.001(3) 0.002(3)
O50 O2- 0.015(4) 0.025(3) 0.037(4) -0.003(2) 0.001(3) -0.003(3)
O51 O2- 0.022(4) 0.015(3) 0.025(3) -0.001(2) -0.004(3) -0.004(2)
O52 O2- 0.021(4) 0.024(3) 0.042(4) -0.001(3) 0.008(3) 0.008(3)
O53 O2- 0.020(4) 0.032(4) 0.029(3) 0.008(3) 0.003(3) 0.003(3)
O54 O2- 0.018(4) 0.028(3) 0.034(4) 0.008(3) -0.004(3) 0.005(3)
O55 O2- 0.018(4) 0.042(4) 0.030(4) -0.015(3) -0.005(3) 0.014(3)
O56 O2- 0.020(4) 0.024(3) 0.018(3) -0.001(2) 0.004(3) -0.002(2)
O57 O2- 0.025(4) 0.021(3) 0.034(4) -0.009(3) -0.003(3) 0.001(3)
O58 O2- 0.025(4) 0.020(3) 0.024(3) 0.000(2) -0.005(3) -0.001(2)
O59 O2- 0.017(4) 0.027(3) 0.033(4) -0.006(3) -0.003(3) 0.006(3)
O60 O2- 0.028(4) 0.019(3) 0.026(3) -0.002(2) 0.005(3) 0.001(2)
O61 O2- 0.016(3) 0.017(3) 0.025(3) 0.000(2) -0.002(3) -0.005(2)
O62 O2- 0.024(4) 0.018(3) 0.029(3) 0.001(2) -0.006(3) 0.001(3)
O63 O2- 0.033(5) 0.028(3) 0.025(3) 0.003(3) 0.011(3) 0.006(3)
O64 O2- 0.032(5) 0.030(4) 0.029(4) -0.001(3) 0.011(3) 0.002(3)
O65 O2- 0.035(5) 0.026(4) 0.048(5) 0.007(3) 0.007(4) -0.001(3)
O66 O2- 0.022(4) 0.013(3) 0.038(4) -0.003(2) 0.000(3) -0.002(3)
O67 O2- 0.017(4) 0.036(4) 0.029(3) -0.001(3) -0.003(3) 0.000(3)
O68 O2- 0.034(4) 0.027(3) 0.009(2) 0.000(3) 0.000(3) 0.000(2)
O69 O2- 0.017(4) 0.022(3) 0.041(4) 0.003(2) -0.002(3) 0.001(3)
O70 O2- 0.022(4) 0.023(3) 0.044(4) -0.004(3) -0.004(3) 0.002(3)
O71 O2- 0.022(4) 0.047(5) 0.030(4) 0.014(3) 0.003(3) 0.014(3)
O72 O2- 0.027(5) 0.028(4) 0.034(4) 0.007(3) -0.008(3) -0.006(3)
O73 O2- 0.028(5) 0.024(3) 0.037(4) -0.005(3) 0.000(3) -0.004(3)
O74 O2- 0.044(5) 0.027(4) 0.022(3) -0.003(3) 0.003(3) -0.005(3)
O75 O2- 0.033(5) 0.043(4) 0.019(3) -0.001(3) 0.002(3) -0.009(3)
O76 O2- 0.027(4) 0.028(3) 0.028(3) -0.002(3) -0.012(3) 0.005(3)
O77 O2- 0.034(5) 0.032(4) 0.017(3) -0.007(3) -0.003(3) -0.004(3)
O78 O2- 0.036(5) 0.032(4) 0.013(3) 0.007(3) 0.002(3) -0.002(3)
O79 O2- 0.027(4) 0.030(3) 0.014(3) 0.012(3) -0.002(3) -0.002(2)
O80 O2- 0.025(4) 0.028(3) 0.023(3) -0.007(3) 0.000(3) -0.002(3)
O81 O2- 0.022(4) 0.027(3) 0.022(3) 0.007(3) 0.000(3) 0.000(3)
O82 O2- 0.034(5) 0.027(4) 0.048(5) 0.005(3) -0.028(4) -0.001(3)
O83 O2- 0.029(4) 0.027(3) 0.018(3) -0.008(3) 0.000(3) 0.000(2)
O84 O2- 0.037(5) 0.042(4) 0.055(5) -0.025(4) -0.024(4) 0.031(4)
O85 O2- 0.026(5) 0.051(5) 0.083(7) -0.007(4) 0.024(5) -0.041(5)
O86 O2- 0.045(6) 0.038(4) 0.057(5) 0.023(4) 0.021(5) 0.034(4)
O87 O2- 0.017(5) 0.044(5) 0.085(7) 0.004(3) -0.008(5) -0.036(5)
O88 O2- 0.031(5) 0.037(4) 0.019(3) -0.004(3) -0.004(3) -0.008(3)
O89 O2- 0.039(5) 0.026(3) 0.016(3) 0.000(3) 0.000(3) -0.001(3)
O90 O2- 0.068(7) 0.029(4) 0.027(4) -0.009(4) 0.013(4) -0.005(3)
O91 O2- 0.049(6) 0.032(4) 0.040(5) 0.003(4) 0.007(4) -0.016(4)
O92 O2- 0.059(7) 0.030(4) 0.025(4) 0.010(4) -0.011(4) -0.011(3)
O93 O2- 0.048(6) 0.029(4) 0.045(5) -0.005(4) 0.005(4) -0.011(4)
O94 O2- 0.030(5) 0.037(4) 0.042(4) 0.000(3) 0.015(4) -0.004(4)
O95 O2- 0.029(5) 0.031(4) 0.044(4) 0.002(3) -0.018(4) -0.009(4)
O96 O2- 0.029(5) 0.022(3) 0.037(4) 0.000(3) -0.011(3) -0.011(3)
#End of TTdata_428349-ICSD