
#(C) 2019 by FIZ Karlsruhe - Leibniz Institute for Information Infrastructure.  All rights reserved.
data_428353-ICSD
_database_code_ICSD 428353
_audit_creation_date 2015-08-01
_chemical_name_systematic 'Calcium disodium thorium octasilicate'
_chemical_formula_structural '(Ca0.5 Na0.5)2 Na Th (Si8 O20)'
_chemical_formula_sum 'Ca1 Na2 O20 Si8 Th1'
_chemical_name_structure_type Ekanite(tP)
_exptl_crystal_density_diffrn 3.42
_cell_measurement_temperature 100.
_publ_section_title

;
Solid-state syntheses and single-crystal characterizations of three
tetravalent thorium and uranium silicates
;
loop_
_citation_id
_citation_journal_full
_citation_year
_citation_journal_volume
_citation_page_first
_citation_page_last
_citation_journal_id_ASTM
primary 'Journal of Solid State Chemistry' 2015 221 405 410 JSSCBI
loop_
_publ_author_name
'Jin, Geng Bang'
'Soderholm, L.'
_cell_length_a 7.497(2)
_cell_length_b 7.497(2)
_cell_length_c 14.886(4)
_cell_angle_alpha 90.
_cell_angle_beta 90.
_cell_angle_gamma 90.
_cell_volume 836.66
_cell_formula_units_Z 2
_symmetry_space_group_name_H-M 'P 4/m c c'
_symmetry_Int_Tables_number 124
_refine_ls_R_factor_all 0.0231
loop_
_symmetry_equiv_pos_site_id
_symmetry_equiv_pos_as_xyz
1 'y, x, -z+1/2'
2 '-y, -x, -z+1/2'
3 '-x, y, -z+1/2'
4 'x, -y, -z+1/2'
5 '-y, x, -z'
6 'y, -x, -z'
7 'x, y, -z'
8 '-x, -y, -z'
9 '-y, -x, z+1/2'
10 'y, x, z+1/2'
11 'x, -y, z+1/2'
12 '-x, y, z+1/2'
13 'y, -x, z'
14 '-y, x, z'
15 '-x, -y, z'
16 'x, y, z'
loop_
_atom_type_symbol
_atom_type_oxidation_number
Ca2+ 2
Na1+ 1
Th4+ 4
Si4+ 4
O2- -2
loop_
_atom_site_label
_atom_site_type_symbol
_atom_site_symmetry_multiplicity
_atom_site_Wyckoff_symbol
_atom_site_fract_x
_atom_site_fract_y
_atom_site_fract_z
_atom_site_B_iso_or_equiv
_atom_site_occupancy
_atom_site_attached_hydrogens
Ca1 Ca2+ 4 f 0. 0.5 0.25 0.0111(3) 0.5 0
Na1 Na1+ 4 f 0. 0.5 0.25 0.0111(3) 0.5 0
Na2 Na1+ 2 b 0. 0. 0. 0.079(3) 1 0
Th1 Th4+ 2 a 0. 0. 0.25 0.00838(9) 1 0
Si1 Si4+ 16 n 0.25735(12) 0.33290(13) 0.10573(6) 0.01036(17) 1 0
O1 O2- 16 n 0.1045(3) 0.2485(4) 0.16396(18) 0.0186(5) 1 0
O2 O2- 16 n 0.4540(3) 0.2550(4) 0.12875(19) 0.0198(6) 1 0
O3 O2- 8 m 0.2204(6) 0.3004(6) 0. 0.0296(10) 1 0
loop_
_atom_site_aniso_label
_atom_site_aniso_type_symbol
_atom_site_aniso_U_11
_atom_site_aniso_U_22
_atom_site_aniso_U_33
_atom_site_aniso_U_12
_atom_site_aniso_U_13
_atom_site_aniso_U_23
Ca1 Ca2+ 0.0124(7) 0.0093(7) 0.0116(7) 0. 0. 0.
Na1 Na1+ 0.0124(7) 0.0093(7) 0.0116(7) 0. 0. 0.
Na2 Na1+ 0.084(4) 0.084(4) 0.069(5) 0. 0. 0.
Th1 Th4+ 0.00810(11) 0.00810(11) 0.00895(14) 0. 0. 0.
Si1 Si4+ 0.0100(4) 0.0086(4) 0.0125(4) 0.0002(3) 0.0018(3) 0.0010(3)
O1 O2- 0.0149(12) 0.0142(12) 0.0266(13) 0.0014(9) 0.0055(11) 0.0063(11)
O2 O2- 0.0096(11) 0.0172(13) 0.0327(15) 0.0010(9) -0.0014(10) -0.0002(12)
O3 O2- 0.044(3) 0.032(2) 0.0126(17) 0.0069(19) 0. 0.
#End of TTdata_428353-ICSD