
#(C) 2019 by FIZ Karlsruhe - Leibniz Institute for Information Infrastructure.  All rights reserved.
data_428489-ICSD
_database_code_ICSD 428489
_audit_creation_date 2016-08-01
_chemical_name_systematic 'Sodium neodymium oxo orthosilicate'
_chemical_formula_structural 'Na0.50 Nd4.50 (Si O4)3 O'
_chemical_formula_sum 'Na0.5 Nd4.5 O13 Si3'
_chemical_name_structure_type Apatite#-(HE,P63/m)
_exptl_crystal_density_diffrn 5.71
_cell_measurement_temperature 296.
_publ_section_title

;
Crystal growth and structure of three new neodymium containing silicates:
Na0.50 Nd4.50 (Si O4)3 O, Na0.63 Nd4.37 (Si O4)3 O0.74 F0.26 and Na4.74 Nd4.26
(O0.52 F0.48) [Si O4]4
;
loop_
_citation_id
_citation_journal_full
_citation_year
_citation_journal_volume
_citation_page_first
_citation_page_last
_citation_journal_id_ASTM
primary 'Solid State Sciences' 2014 35 28 32 SSSCFJ
loop_
_publ_author_name
'Latshaw, Allison M.'
'Smith, Mark D.'
'zur Loye, Hans-Conrad'
_cell_length_a 9.5400(3)
_cell_length_b 9.5400(3)
_cell_length_c 7.0331(5)
_cell_angle_alpha 90
_cell_angle_beta 90
_cell_angle_gamma 120
_cell_volume 554.33
_cell_formula_units_Z 2
_symmetry_space_group_name_H-M 'P 63/m'
_symmetry_Int_Tables_number 176
_refine_ls_R_factor_all 0.0285
loop_
_symmetry_equiv_pos_site_id
_symmetry_equiv_pos_as_xyz
1 '-x+y, -x, -z+1/2'
2 '-y, x-y, -z+1/2'
3 'x, y, -z+1/2'
4 'x-y, x, -z'
5 'y, -x+y, -z'
6 '-x, -y, -z'
7 'x-y, x, z+1/2'
8 'y, -x+y, z+1/2'
9 '-x, -y, z+1/2'
10 '-x+y, -x, z'
11 '-y, x-y, z'
12 'x, y, z'
loop_
_atom_type_symbol
_atom_type_oxidation_number
Nd3+ 3
Na1+ 1
Nd3+ 3
Si4+ 4
O2- -2
loop_
_atom_site_label
_atom_site_type_symbol
_atom_site_symmetry_multiplicity
_atom_site_Wyckoff_symbol
_atom_site_fract_x
_atom_site_fract_y
_atom_site_fract_z
_atom_site_B_iso_or_equiv
_atom_site_occupancy
_atom_site_attached_hydrogens
Nd1 Nd3+ 4 f 0.3333 0.6667 0.00091(8) 0.01637(12) 0.75 0
Na1 Na1+ 4 f 0.3333 0.6667 0.00091(8) 0.01637(12) 0.25 0
Nd2 Nd3+ 6 h 0.24238(4) 0.01171(4) 0.25 0.01422(10) 1 0
Si1 Si4+ 6 h 0.3718(2) 0.4007(2) 0.25 0.0129(3) 1 0
O1 O2- 6 h 0.1233(5) 0.5273(5) 0.25 0.0191(9) 1 0
O2 O2- 6 h 0.4864(6) 0.3200(6) 0.25 0.0200(9) 1 0
O3 O2- 12 i 0.2525(4) 0.3422(5) 0.0654(5) 0.0283(8) 1 0
O4 O2- 2 a 0. 0. 0.25 0.029(2) 1 0
loop_
_atom_site_aniso_label
_atom_site_aniso_type_symbol
_atom_site_aniso_U_11
_atom_site_aniso_U_22
_atom_site_aniso_U_33
_atom_site_aniso_U_12
_atom_site_aniso_U_13
_atom_site_aniso_U_23
Nd1 Nd3+ 0.01465(15) 0.01465(15) 0.0198(3) 0.00732(8) 0. 0.
Na1 Na1+ 0.01465(15) 0.01465(15) 0.0198(3) 0.00732(8) 0. 0.
Nd2 Nd3+ 0.01382(15) 0.01356(15) 0.01428(16) 0.00610(11) 0. 0.
Si1 Si4+ 0.0128(7) 0.0136(7) 0.0132(7) 0.0073(6) 0. 0.
O1 O2- 0.016(2) 0.0115(18) 0.029(3) 0.0069(16) 0. 0.
O2 O2- 0.019(2) 0.025(2) 0.021(2) 0.0153(19) 0. 0.
O3 O2- 0.0196(16) 0.049(2) 0.0207(18) 0.0199(16) -0.0070(14) -0.0156(17)
O4 O2- 0.016(2) 0.016(2) 0.055(7) 0.0082(11) 0. 0.
#End of TTdata_428489-ICSD