
#(C) 2019 by FIZ Karlsruhe - Leibniz Institute for Information Infrastructure.  All rights reserved.
data_4284-ICSD
_database_code_ICSD 4284
_audit_creation_date 1980-01-01
_chemical_name_systematic 'Sodium dihydrogenarsenate hydrate'
_chemical_formula_structural 'Na H2 (As O4) (H2 O)'
_chemical_formula_sum 'H4 As1 Na1 O5'
_exptl_crystal_density_diffrn 2.67
_publ_section_title

;
Hydrogen bonding in the crystalline state. A neutron and X-ray diffraction
study of Na H2 As O4 H2 O, a crystal structure with unusual pseudo-symmetry
;
loop_
_citation_id
_citation_journal_full
_citation_year
_citation_journal_volume
_citation_page_first
_citation_page_last
_citation_journal_id_ASTM
primary

;
Atti della Accademia delle Scienze di Torino, Classe di Scienze Fisiche,
Matematiche e Naturali
; 1974 108 507 527 AATFAA
loop_
_publ_author_name
'Ferraris, G.'
'Jones, D.W.'
'Sowden, J.M.'
_cell_length_a 8.452(2)
_cell_length_b 10.360(2)
_cell_length_c 5.166(2)
_cell_angle_alpha 90.
_cell_angle_beta 90.02(6)
_cell_angle_gamma 90.
_cell_volume 452.35
_cell_formula_units_Z 4
_symmetry_space_group_name_H-M 'P 1 21 1'
_symmetry_Int_Tables_number 4
_refine_ls_R_factor_all 0.041
loop_
_symmetry_equiv_pos_site_id
_symmetry_equiv_pos_as_xyz
1 '-x, y+1/2, -z'
2 'x, y, z'
loop_
_atom_type_symbol
_atom_type_oxidation_number
As5+ 5
Na1+ 1
O2- -2
H1+ 1
loop_
_atom_site_label
_atom_site_type_symbol
_atom_site_symmetry_multiplicity
_atom_site_Wyckoff_symbol
_atom_site_fract_x
_atom_site_fract_y
_atom_site_fract_z
_atom_site_B_iso_or_equiv
_atom_site_occupancy
_atom_site_attached_hydrogens
As1 As5+ 2 a 0.1941(6) 0.0925(5) 0.3314(12) . 1. 0
As2 As5+ 2 a 0.6921(6) -.0925(5) 0.1685(13) . 1. 0
Na1 Na1+ 2 a 0.5950(13) 0.1537(10) 0.6683(26) . 1. 0
Na2 Na1+ 2 a 0.0892(13) -.1586(9) 0.8356(28) . 1. 0
O1 O2- 2 a 0.0762(8) -.0373(6) 0.4293(14) . 1. 0
O2 O2- 2 a 0.1091(8) 0.2286(6) 0.4179(15) . 1. 0
O3 O2- 2 a 0.1936(7) 0.0712(7) 0.0003(7) . 1. 0
O4 O2- 2 a 0.3739(6) 0.0630(6) 0.4432(13) . 1. 0
O5 O2- 2 a 0.5778(9) 0.0331(6) 0.0713(20) . 1. 0
O6 O2- 2 a 0.6941(9) -.0736(6) 0.5043(16) . 1. 0
O7 O2- 2 a 0.6079(7) -.2308(6) 0.0861(15) . 1. 0
O8 O2- 2 a 0.8742(7) -.0657(6) 0.0581(16) . 1. 0
O9 O2- 2 a -.1352(9) 0.1883(7) -.1847(22) . 1. 0
O10 O2- 2 a 0.3618(9) -.1898(6) 0.6767(19) . 1. 0
H1 H1+ 2 a -.0070(13) -.0489(11) 0.2821(31) . 1. 0
H2 H1+ 2 a 0.2593(15) 0.1439(12) -.0633(28) . 1. 0
H3 H1+ 2 a 0.4921(18) 0.0457(11) 0.2065(31) . 1. 0
H4 H1+ 2 a 0.7666(15) -.1398(13) 0.5739(33) . 1. 0
H5 H1+ 2 a -.0595(26) 0.2006(14) -.3020(44) . 1. 0
H6 H1+ 2 a -.1189(17) 0.1021(12) -.1105(17) . 1. 0
H7 H1+ 2 a 0.4481(17) -.2055(13) 0.8008(38) . 1. 0
H8 H1+ 2 a 0.3849(16) -.1062(11) 0.6044(41) . 1. 0
loop_
_atom_site_aniso_label
_atom_site_aniso_type_symbol
_atom_site_aniso_B_11
_atom_site_aniso_B_22
_atom_site_aniso_B_33
_atom_site_aniso_B_12
_atom_site_aniso_B_13
_atom_site_aniso_B_23
As1 As5+ 0.81(21) 0.73(12) 0.96(34) -.21(13) -.42(29) -.27(16)
As2 As5+ 0.82(25) 0.72(14) 1.26(35) 0.14(14) -.49(35) -.18(17)
Na1 Na1+ 0.98(45) 1.75(30) 0.83(59) 0.04(25) 0.74(62) -.14(38)
Na2 Na1+ 1.97(53) 2.03(35) 1.64(70) -.54(32) -.13(74) 0.44(35)
O1 O2- 1.84(27) 0.91(15) 1.74(40) 0.09(17) -.65(38) 0.14(21)
O2 O2- 1.84(27) 0.91(15) 1.74(40) 0.09(17) -.65(38) 0.14(21)
O3 O2- 0.80(28) 1.27(19) 0.47(40) -.02(17) 0.60(38) -.16(21)
O4 O2- 0.5(2) 1.69(17) 1.16(42) 0.15(15) -.18(21) -.14(21)
O5 O2- 1.11(29) 1.28(18) 2.36(57) 0.54(18) -.25(46) 0.79(24)
O6 O2- 2.22(35) 1.62(21) 1.05(38) 0.62(21) -.72(43) -.39(26)
O7 O2- 0.79(21) 1.03(15) 2.12(42) -.20(15) 0.11(36) -.98(21)
O8 O2- 1.42(27) 1.19(26) 2.57(43) 0.14(15) -.83(40) -.27(20)
O9 O2- 0.95(32) 1.29(21) 1.76(72) -.25(22) 0.16(56) 0.25(29)
O10 O2- 2.11(41) 1.40(21) 1.79(51) 0.23(21) -.54(54) 0.01(23)
H1 H1+ 1.08(45) 3.42(45) 1.18(68) 0.40(36) 0.17(61) -.85(49)
H2 H1+ 1.66(46) 2.43(43) 1.33(62) -.63(33) 0.90(66) 0.95(38)
H3 H1+ 2.10(58) 2.01(34) 2.110(11) 0.49(39) -.24(89) 0.21(43)
H4 H1+ 2.41(59) 3.34(48) 2.34(77) -.35(45) -.70(79) 0.59(54)
H5 H1+ 3.78(93) 2.67(49) 2.470(14) -.37(59) -.620(13) -.19(57)
H6 H1+ 3.53(70) 2.47(42) 2.76(89) -.05(43) -.36(92) 0.63(49)
H7 H1+ 1.95(58) 4.02(57) 3.17(99) 0.34(46) -.24(87) 1.06(58)
H8 H1+ 1.86(43) 1.95(43) 4.960(11) -.30(32) 0.73(91) 0.12(50)
#End of TTdata_4284-ICSD