
#(C) 2019 by FIZ Karlsruhe - Leibniz Institute for Information Infrastructure.  All rights reserved.
data_428481-ICSD
_database_code_ICSD 428481
_audit_creation_date 2015-08-01
_chemical_name_systematic 'Sodium arsenate(V) hydroxide'
_chemical_formula_structural 'Na4 (As O4) O H'
_chemical_formula_sum 'H1 As1 Na4 O5'
_exptl_crystal_density_diffrn 3.02
_cell_measurement_temperature 100.
_publ_section_title

;
Synthesis and crystal structure of sodium arsenate oxyhydroxide: Na4 (As O4) O
H
;
loop_
_citation_id
_citation_journal_full
_citation_year
_citation_journal_volume
_citation_page_first
_citation_page_last
_citation_journal_id_ASTM
primary 'Journal of Chemical Crystallography' 2015 45 20 25 JCCYEV
loop_
_publ_author_name
'zur Loye, Karl D.'
'Latshaw, Allison M.'
'Smith, Mark D.'
'Chance, W.Michael'
'zur Loye, Hans-Conrad'
_cell_length_a 8.9467(11)
_cell_length_b 7.3854(9)
_cell_length_c 8.2395(10)
_cell_angle_alpha 90.
_cell_angle_beta 90.
_cell_angle_gamma 90.
_cell_volume 544.42
_cell_formula_units_Z 4
_symmetry_space_group_name_H-M 'P n m a'
_symmetry_Int_Tables_number 62
_refine_ls_R_factor_all 0.0182
loop_
_symmetry_equiv_pos_site_id
_symmetry_equiv_pos_as_xyz
1 'x+1/2, y, -z+1/2'
2 'x, -y+1/2, z'
3 '-x+1/2, y+1/2, z+1/2'
4 '-x, -y, -z'
5 '-x+1/2, -y, z+1/2'
6 '-x, y+1/2, -z'
7 'x+1/2, -y+1/2, -z+1/2'
8 'x, y, z'
loop_
_atom_type_symbol
_atom_type_oxidation_number
As5+ 5
Na1+ 1
O2- -2
H1+ 1
loop_
_atom_site_label
_atom_site_type_symbol
_atom_site_symmetry_multiplicity
_atom_site_Wyckoff_symbol
_atom_site_fract_x
_atom_site_fract_y
_atom_site_fract_z
_atom_site_B_iso_or_equiv
_atom_site_occupancy
_atom_site_attached_hydrogens
As1 As5+ 4 c 0.13685(2) 0.25 0.64920(2) 0.00487(7) 1 0
Na1 Na1+ 8 d 0.12970(5) 0.01415(8) 0.34701(6) 0.00887(12) 1 0
Na2 Na1+ 4 c 0.37261(6) 0.25 0.23785(9) 0.00779(15) 1 0
Na3 Na1+ 4 a 0. 0. 0. 0.01245(15) 1 0
O1 O2- 8 d 0.12897(8) 0.06295(13) 0.76507(11) 0.00802(17) 1 0
O2 O2- 4 c 0.29013(14) 0.25 0.52985(15) 0.0102(2) 1 0
O3 O2- 4 c -0.01549(13) 0.25 0.52494(15) 0.0087(2) 1 0
O4 O2- 4 c 0.11656(14) 0.25 0.15317(16) 0.0075(2) 1 0
H1 H1+ 4 c 0.146(3) 0.25 0.058(4) 0.034(10) 1 0
loop_
_atom_site_aniso_label
_atom_site_aniso_type_symbol
_atom_site_aniso_U_11
_atom_site_aniso_U_22
_atom_site_aniso_U_33
_atom_site_aniso_U_12
_atom_site_aniso_U_13
_atom_site_aniso_U_23
As1 As5+ 0.00535(9) 0.00515(10) 0.00411(10) 0. 0.00014(5) 0.
Na1 Na1+ 0.0082(2) 0.0088(3) 0.0096(3) -0.00035(16) 0.00050(15) 0.00134(19)
Na2 Na1+ 0.0068(3) 0.0070(3) 0.0095(4) 0. 0.0003(2) 0.
Na3 Na1+ 0.0157(3) 0.0147(4) 0.0069(3) -0.0055(3) 0.0026(3) -0.0024(3)
O1 O2- 0.0099(4) 0.0057(4) 0.0084(4) 0.0001(3) 0.0000(3) 0.0021(3)
O2 O2- 0.0093(5) 0.0115(6) 0.0100(6) 0. 0.0047(4) 0.
O3 O2- 0.0085(5) 0.0099(6) 0.0077(6) 0. -0.0030(4) 0.
O4 O2- 0.0080(5) 0.0083(6) 0.0063(6) 0. 0.0005(4) 0.
#End of TTdata_428481-ICSD