
#(C) 2019 by FIZ Karlsruhe - Leibniz Institute for Information Infrastructure.  All rights reserved.
data_428574-ICSD
_database_code_ICSD 428574
_audit_creation_date 2015-08-01
_chemical_name_systematic 'Bis(sodium triammine) hexafluoroplatinate(IV)'
_chemical_formula_structural '(Na (N H3)3)2 (Pt F6)'
_chemical_formula_sum 'H18 F6 N6 Na2 Pt1'
_exptl_crystal_density_diffrn 2.29
_cell_measurement_temperature 123.
_publ_section_title

;
Na2 Pt F6,its crystal structure, characterization, and ammonolysis to [Na (N
H3)3]2 [Pt F6]
;
loop_
_citation_id
_citation_journal_full
_citation_year
_citation_journal_volume
_citation_page_first
_citation_page_last
_citation_journal_id_ASTM
primary 'Zeitschrift fuer Anorganische und Allgemeine Chemie' 2015 641 298 303
ZAACAB
loop_
_publ_author_name
'Rudel, Stefan S.'
'Mueller, Thomas G.'
'Kraus, Florian'
_cell_length_a 14.0508(4)
_cell_length_b 8.48940(10)
_cell_length_c 12.8820(4)
_cell_angle_alpha 90.
_cell_angle_beta 120.495(4)
_cell_angle_gamma 90.
_cell_volume 1324.04
_cell_formula_units_Z 4
_symmetry_space_group_name_H-M 'C 1 2/c 1'
_symmetry_Int_Tables_number 15
_refine_ls_R_factor_all 0.0136
loop_
_symmetry_equiv_pos_site_id
_symmetry_equiv_pos_as_xyz
1 'x, -y, z+1/2'
2 '-x, -y, -z'
3 '-x, y, -z+1/2'
4 'x, y, z'
5 'x+1/2, -y+1/2, z+1/2'
6 '-x+1/2, -y+1/2, -z'
7 '-x+1/2, y+1/2, -z+1/2'
8 'x+1/2, y+1/2, z'
loop_
_atom_type_symbol
_atom_type_oxidation_number
Na1+ 1
N3- -3
Pt4+ 4
F1- -1
N3- -3
H1+ 1
F1- -1
N3- -3
H1+ 1
F1- -1
H1+ 1
loop_
_atom_site_label
_atom_site_type_symbol
_atom_site_symmetry_multiplicity
_atom_site_Wyckoff_symbol
_atom_site_fract_x
_atom_site_fract_y
_atom_site_fract_z
_atom_site_B_iso_or_equiv
_atom_site_occupancy
_atom_site_attached_hydrogens
Na1 Na1+ 8 f 0.14836(6) 0.06412(9) 0.30368(6) 0.02037(13) 1 0
N1 N3- 8 f 0.15386(16) -0.22727(19) 0.32733(17) 0.0257(3) 1 0
Pt1 Pt4+ 4 a 0. 0. 0. 0.01159(2) 1 0
F1 F1- 8 f -0.00842(8) -0.21630(11) 0.04239(9) 0.01961(18) 1 0
N2 N3- 8 f 0.33301(14) 0.0896(2) 0.48023(14) 0.0314(4) 1 0
H1 H1+ 8 f 0.3279 0.1304 0.5426 0.047 1 0
H2 H1+ 8 f 0.3744 0.1548 0.4627 0.047 1 0
H3 H1+ 8 f 0.3656 -0.0069 0.5012 0.047 1 0
H4 H1+ 8 f 0.109(2) 0.306(3) 0.163(2) 0.048(7) 1 0
F2 F1- 8 f -0.03358(8) 0.06959(12) 0.12069(8) 0.01847(18) 1 0
N3 N3- 8 f 0.13058(16) 0.3402(2) 0.23374(18) 0.0278(3) 1 0
H5 H1+ 8 f 0.124(2) -0.246(3) 0.371(3) 0.066(9) 1 0
H6 H1+ 8 f 0.093(2) 0.397(4) 0.236(2) 0.056(9) 1 0
H7 H1+ 8 f 0.191(2) 0.392(3) 0.267(2) 0.037(7) 1 0
F3 F1- 8 f 0.15449(8) 0.01361(10) 0.12304(10) 0.0199(2) 1 0
H8 H1+ 8 f 0.105(3) -0.261(4) 0.259(3) 0.074(10) 1 0
H9 H1+ 8 f 0.215(2) -0.287(3) 0.359(2) 0.065(9) 1 0
loop_
_atom_site_aniso_label
_atom_site_aniso_type_symbol
_atom_site_aniso_U_11
_atom_site_aniso_U_22
_atom_site_aniso_U_33
_atom_site_aniso_U_12
_atom_site_aniso_U_13
_atom_site_aniso_U_23
Na1 Na1+ 0.0207(3) 0.0225(3) 0.0197(3) -0.0042(3) 0.0116(3) -0.0024(3)
N1 N3- 0.0278(8) 0.0222(7) 0.0293(9) 0.0024(6) 0.0160(7) 0.0025(6)
Pt1 Pt4+ 0.01099(3) 0.01396(3) 0.01054(3) -0.00017(3) 0.00598(2) -0.00029(3)
F1 F1- 0.0256(5) 0.0162(4) 0.0200(4) -0.0007(4) 0.0138(4) 0.0015(3)
N2 N3- 0.0318(8) 0.0340(9) 0.0258(8) -0.0105(7) 0.0127(7) -0.0035(7)
F2 F1- 0.0203(4) 0.0225(5) 0.0170(4) -0.0014(4) 0.0127(4) -0.0036(4)
N3 N3- 0.0263(8) 0.0280(8) 0.0290(9) -0.0078(7) 0.0138(7) -0.0067(7)
F3 F1- 0.0127(4) 0.0276(6) 0.0163(4) -0.0003(3) 0.0052(3) -0.0009(3)
#End of TTdata_428574-ICSD