
#(C) 2019 by FIZ Karlsruhe - Leibniz Institute for Information Infrastructure.  All rights reserved.
data_428575-ICSD
_database_code_ICSD 428575
_audit_creation_date 2015-08-01
_chemical_name_systematic 'Disodium hexafluoroplatinate(IV)'
_chemical_formula_structural 'Na2 (Pt F6)'
_chemical_formula_sum 'F6 Na2 Pt1'
_exptl_crystal_density_diffrn 4.62
_cell_measurement_temperature 123.
_publ_section_title

;
Na2 Pt F6,its crystal structure, characterization, and ammonolysis to [Na (N
H3)3]2 [Pt F6]
;
loop_
_citation_id
_citation_journal_full
_citation_year
_citation_journal_volume
_citation_page_first
_citation_page_last
_citation_journal_id_ASTM
primary 'Zeitschrift fuer Anorganische und Allgemeine Chemie' 2015 641 298 303
ZAACAB
loop_
_publ_author_name
'Rudel, Stefan S.'
'Mueller, Thomas G.'
'Kraus, Florian'
_cell_length_a 9.2981(2)
_cell_length_b 9.2981(2)
_cell_length_c 5.11470(10)
_cell_angle_alpha 90.
_cell_angle_beta 90.
_cell_angle_gamma 120.
_cell_volume 382.94
_cell_formula_units_Z 3
_symmetry_space_group_name_H-M 'P 3 2 1'
_symmetry_Int_Tables_number 150
_refine_ls_R_factor_all 0.0133
loop_
_symmetry_equiv_pos_site_id
_symmetry_equiv_pos_as_xyz
1 'x-y, -y, -z'
2 '-x, -x+y, -z'
3 'y, x, -z'
4 '-x+y, -x, z'
5 '-y, x-y, z'
6 'x, y, z'
loop_
_atom_type_symbol
_atom_type_oxidation_number
Pt4+ 4
Na1+ 1
F1- -1
loop_
_atom_site_label
_atom_site_type_symbol
_atom_site_symmetry_multiplicity
_atom_site_Wyckoff_symbol
_atom_site_fract_x
_atom_site_fract_y
_atom_site_fract_z
_atom_site_B_iso_or_equiv
_atom_site_occupancy
_atom_site_attached_hydrogens
Pt1 Pt4+ 1 b 0. 0. 0.5 0.00669(4) 1 0
Pt2 Pt4+ 2 d 0.6667 0.3333 0.99649(2) 0.00629(3) 1 0
Na1 Na1+ 3 f 0.36986(17) 0.36986(17) 0.5 0.0091(3) 1 0
Na2 Na1+ 3 e 0.29580(18) 0. 1. 0.0094(3) 1 0
F1 F1- 6 g 0.19982(19) 0.1060(3) 0.7082(3) 0.0137(3) 1 0
F2 F1- 6 g 0.4681(2) 0.2473(3) 1.2092(3) 0.0121(3) 1 0
F3 F1- 6 g 0.5501(2) 0.1363(2) 0.7832(3) 0.0108(3) 1 0
loop_
_atom_site_aniso_label
_atom_site_aniso_type_symbol
_atom_site_aniso_U_11
_atom_site_aniso_U_22
_atom_site_aniso_U_33
_atom_site_aniso_U_12
_atom_site_aniso_U_13
_atom_site_aniso_U_23
Pt1 Pt4+ 0.00620(4) 0.00620(4) 0.00766(7) 0.00310(2) 0. 0.
Pt2 Pt4+ 0.00595(4) 0.00595(4) 0.00698(5) 0.00297(2) 0. 0.
Na1 Na1+ 0.0086(5) 0.0086(5) 0.0091(6) 0.0037(5) -0.0002(2) 0.0002(2)
Na2 Na1+ 0.0085(4) 0.0088(6) 0.0111(6) 0.0044(3) 0.0006(3) 0.0012(5)
F1 F1- 0.0103(6) 0.0137(9) 0.0147(6) 0.0043(8) -0.0054(5) 0.0016(8)
F2 F1- 0.0101(6) 0.0118(8) 0.0124(6) 0.0039(6) 0.0039(5) -0.0018(6)
F3 F1- 0.0101(8) 0.0086(6) 0.0116(6) 0.0031(5) 0.0009(5) -0.0030(4)
#End of TTdata_428575-ICSD