
#(C) 2019 by FIZ Karlsruhe - Leibniz Institute for Information Infrastructure.  All rights reserved.
data_4288-ICSD
_database_code_ICSD 4288
_audit_creation_date 1980-01-01
_audit_update_record 1987-04-15
_chemical_name_systematic 'Trisodium nitrosodisulfate trihydrate'
_chemical_formula_structural 'Na3 (O N (S O3)2) (H2 O)3'
_chemical_formula_sum 'H6 N1 Na3 O10 S2'
_exptl_crystal_density_diffrn 2.26
_publ_section_title

;
Nitrosodidulfonates and hydroxylamine-N,Nisulfonates. IV. Crystal structure of
sodium nitrosyl-N,N-disulfonate trihydrate
;
loop_
_citation_id
_citation_journal_full
_citation_year
_citation_journal_volume
_citation_page_first
_citation_page_last
_citation_journal_id_ASTM
primary 'Inorganic Chemistry' 1975 14 2537 2540 INOCAJ
loop_
_publ_author_name
'Rutherford, J.S.'
'Robertson, B.E.'
_cell_length_a 14.234(2)
_cell_length_b 11.052(1)
_cell_length_c 5.8607(5)
_cell_angle_alpha 90.
_cell_angle_beta 90.
_cell_angle_gamma 90.
_cell_volume 921.97
_cell_formula_units_Z 4
_symmetry_space_group_name_H-M 'C m c 21'
_symmetry_Int_Tables_number 36
_refine_ls_R_factor_all 0.025
loop_
_symmetry_equiv_pos_site_id
_symmetry_equiv_pos_as_xyz
1 'x, -y, z+1/2'
2 '-x, -y, z+1/2'
3 '-x, y, z'
4 'x, y, z'
5 'x+1/2, -y+1/2, z+1/2'
6 '-x+1/2, -y+1/2, z+1/2'
7 '-x+1/2, y+1/2, z'
8 'x+1/2, y+1/2, z'
loop_
_atom_type_symbol
_atom_type_oxidation_number
S4+ 4
Na1+ 1
O2- -2
N3+ 3
H1+ 1
loop_
_atom_site_label
_atom_site_type_symbol
_atom_site_symmetry_multiplicity
_atom_site_Wyckoff_symbol
_atom_site_fract_x
_atom_site_fract_y
_atom_site_fract_z
_atom_site_B_iso_or_equiv
_atom_site_occupancy
_atom_site_attached_hydrogens
S1 S4+ 8 b 0.10196(4) 0.19490(5) 0 . 1. 0
Na1 Na1+ 8 b 0.14022(9) 0.36343(12) 0.48992(36) . 1. 0
Na2 Na1+ 4 a 0 0.09436(14) 0.48338(44) . 1. 0
O1 O2- 4 a 0 0.29192(28) 0.30574(53) . 1. 0
O2 O2- 8 b 0.09816(15) 0.07543(18) 0.10784(44) . 1. 0
O3 O2- 8 b 0.17497(16) 0.27033(20) 0.09887(44) . 1. 0
O4 O2- 8 b 0.10337(16) 0.19121(21) -.24686(40) . 1. 0
O5 O2- 8 b 0.2817(2) 0.03186(24) 0.31418(53) . 1. 0
O6 O2- 4 a 0 0.53819(36) 0.19368(66) . 1. 0
N1 N3+ 4 a 0 0.27166(31) 0.06728(64) . 1. 0
H1 H1+ 8 b 0.230(3) 0.020(5) 0.287(11) 3.5 1. 0
H2 H1+ 8 b 0.287(3) 0.069(4) 0.375(9) 2. 1. 0
H3 H1+ 4 a 0 0.566(8) 0.350(21) 5.6 1. 0
H4 H1+ 4 a 0 0.469(12) 0.215(21) 7.3 1. 0
loop_
_atom_site_aniso_label
_atom_site_aniso_type_symbol
_atom_site_aniso_U_11
_atom_site_aniso_U_22
_atom_site_aniso_U_33
_atom_site_aniso_U_12
_atom_site_aniso_U_13
_atom_site_aniso_U_23
S1 S4+ 0.142(2) 0.106(2) 0.112(2) -.021(2) -.018(3) 0.008(3)
Na1 Na1+ 0.337(6) 0.297(6) 0.196(6) -.131(6) 0.000(8) 0.021(8)
Na2 Na1+ 0.237(7) 0.138(6) 0.136(7) 0 0 -.016(10)
O1 O2- 0.321(15) 0.187(13) 0.049(9) 0 0 -.033(11)
O2 O2- 0.186(9) 0.116(7) 0.279(12) 0.005(7) -.025(10) 0.060(8)
O3 O2- 0.225(9) 0.225(10) 0.198(10) 0.010(8) -.063(10) 0.006(8)
O4 O2- 0.199(9) 0.255(11) 0.107(8) -.015(8) 0.012(8) -.027(8)
O5 O2- 0.252(12) 0.232(11) 0.199(10) 0.010(8) -.042(10) -.027(10)
O6 O2- 0.351(8) 0.163(12) 0.160(14) 0 0 0.034(13)
N1 N3+ 0.200(5) 0.105(12) 0.093(12) 0 0 -.013(10)
#End of TTdata_4288-ICSD