
#(C) 2019 by FIZ Karlsruhe - Leibniz Institute for Information Infrastructure.  All rights reserved.
data_4289-ICSD
_database_code_ICSD 4289
_audit_creation_date 1980-01-01
_audit_update_record 1999-01-19
_chemical_name_systematic 'Sodium heptakis(sulfate(VI)) hexafluoride chloride'
_chemical_formula_structural 'Na21 (S O4)7 F6 Cl'
_chemical_formula_sum 'Cl1 F6 Na21 O28 S7'
_chemical_name_mineral Schairerite
_exptl_crystal_density_diffrn 2.61
_publ_section_title
'The crystal structure of schairerite and its relationship to sulphohalite'
loop_
_citation_id
_citation_journal_full
_citation_year
_citation_journal_volume
_citation_page_first
_citation_page_last
_citation_journal_id_ASTM
primary 'Mineralogical Magazine' 1975 40 131 139 MNLMBB
loop_
_publ_author_name
'Fanfani, L.'
'Nunzi, A.'
'Zanazzi, P.F.'
'Zanzari, A.R.'
'Sabelli, C.'
_cell_length_a 12.197(4)
_cell_length_b 12.197(4)
_cell_length_c 19.359(11)
_cell_angle_alpha 90.
_cell_angle_beta 90.
_cell_angle_gamma 120.
_cell_volume 2494.13
_cell_formula_units_Z 3
_symmetry_space_group_name_H-M 'P 3 1 m'
_symmetry_Int_Tables_number 157
_refine_ls_R_factor_all 0.07
loop_
_symmetry_equiv_pos_site_id
_symmetry_equiv_pos_as_xyz
1 'x-y, -y, z'
2 '-x, -x+y, z'
3 'y, x, z'
4 '-x+y, -x, z'
5 '-y, x-y, z'
6 'x, y, z'
loop_
_atom_type_symbol
_atom_type_oxidation_number
Cl1- -1
S6+ 6
Na1+ 1
F1- -1
O2- -2
loop_
_atom_site_label
_atom_site_type_symbol
_atom_site_symmetry_multiplicity
_atom_site_Wyckoff_symbol
_atom_site_fract_x
_atom_site_fract_y
_atom_site_fract_z
_atom_site_B_iso_or_equiv
_atom_site_occupancy
_atom_site_attached_hydrogens
Cl1 Cl1- 1 a 0 0 0 0.73(6) 1. 0
Cl2 Cl1- 2 b 0.6667 0.3333 0.0296(2) 1.87(7) 1. 0
S1 S6+ 1 a 0 0 0.2376(4) 1.05(9) 1. 0
S2 S6+ 2 b 0.6667 0.3333 0.2532(4) 1.00(6) 1. 0
S3 S6+ 1 a 0 0 0.7782(5) 0.95(9) 1. 0
S4 S6+ 2 b 0.6667 0.3333 0.7950(4) 0.75(6) 1. 0
S5 S6+ 1 a 0 0 0.5074(4) 0.9(1) 1. 0
S6 S6+ 2 b 0.6667 0.3333 0.5266(4) 0.72(5) 1. 0
S7 S6+ 3 c 0.6699(3) 0 0.6659(4) 0.81(4) 1. 0
S8 S6+ 3 c 0.6672(3) 0 0.9387(4) 0.90(4) 1. 0
S9 S6+ 3 c 0.3366(3) 0 0.3673(4) 0.83(4) 1. 0
S10 S6+ 3 c 0.3344(3) 0 0.0933(4) 0.62(4) 1. 0
Na1 Na1+ 3 c 0.5152(4) 0 0.5166(4) 1.49(9) 1. 0
Na2 Na1+ 6 d 0.1591(4) 0.3340(5) 0.5147(4) 1.25(6) 1. 0
Na3 Na1+ 3 c 0.8128(4) 0 0.3789(4) 1.05(8) 1. 0
Na4 Na1+ 6 d 0.4788(3) 0.3318(4) 0.3846(4) 1.31(6) 1. 0
Na5 Na1+ 3 c 0.1892(4) 0 0.9294(5) 1.23(9) 1. 0
Na6 Na1+ 6 d 0.8470(3) 0.3359(4) 0.9339(4) 1.22(9) 1. 0
Na7 Na1+ 3 c 0.1759(4) 0 0.6468(4) 1.20(9) 1. 0
Na8 Na1+ 6 d 0.8448(3) 0.3337(4) 0.6527(4) 1.25(6) 1. 0
Na9 Na1+ 3 c 0.8236(5) 0 0.0957(5) 1.84(11) 1. 0
Na10 Na1+ 6 d 0.4783(4) 0.3312(4) 0.1034(4) 1.77(7) 1. 0
Na11 Na1+ 3 c 0.4879(5) 0 0.7928(5) 1.22(10) 1. 0
Na12 Na1+ 6 d 0.1515(3) 0.3345(4) 0.7941(4) 0.98(6) 1. 0
Na13 Na1+ 3 c 0.5180(5) 0 0.2357(5) 1.50(11) 1. 0
Na14 Na1+ 6 d 0.1811(4) 0.3334(5) 0.2391(4) 1.58(7) 1. 0
F1 F1- 3 c 0.6858(5) 0 0.4658(5) 1.37(12) 1. 0
F2 F1- 3 c 0.3396(6) 0 0.8636(5) 0.86(10) 1. 0
F3 F1- 3 c 0.3486(5) 0 0.5674(5) 0.98(11) 1. 0
F4 F1- 3 c 0.6620(7) 0 0.3131(6) 1.45(11) 1. 0
F5 F1- 3 c 0.6753(6) 0 0.1666(5) 1.14(11) 1. 0
F6 F1- 3 c 0.3262(6) 0 0.7175(5) 0.74(10) 1. 0
O1 O2- 1 a 0 0 0.1631(12) 3.05(39) 1. 0
O2 O2- 3 c 0.8884(7) 0 0.2636(5) 1.17(14) 1. 0
O3 O2- 2 b 0.6667 0.3333 0.3301(8) 1.89(23) 1. 0
O4 O2- 6 d 0.6683(5) 0.2201(7) 0.2318(5) 1.98(13) 1. 0
O5 O2- 1 a 0 0 0.7026(10) 1.79(29) 1. 0
O6 O2- 3 c 0.1140(7) 0 0.8064(6) 1.22(14) 1. 0
O7 O2- 2 b 0.6667 0.3333 0.8717(6) 0.75(14) 1. 0
O8 O2- 6 d 0.5502(7) 0.2158(7) 0.7701(5) 1.91(12) 1. 0
O9 O2- 1 a 0 0 0.4317(9) 1.15(25) 1. 0
O10 O2- 3 c 0.1130(7) 0 0.5320(5) 1.13(13) 1. 0
O11 O2- 2 b 0.6667 0.3333 0.6043(7) 1.16(17) 1. 0
O12 O2- 6 d 0.6720(5) 0.2209(6) 0.5021(5) 1.76(12) 1. 0
O13 O2- 3 c 0.6771(8) 0 0.7416(6) 1.13(15) 1. 0
O14 O2- 3 c 0.5517(7) 0 0.6460(6) 1.13(14) 1. 0
O15 O2- 6 d 0.7834(6) 0.1167(6) 0.6403(5) 1.36(10) 1. 0
O16 O2- 3 c 0.6678(8) 0 0.0146(6) 0.98(13) 1. 0
O17 O2- 3 c 0.5527(7) 0 0.9142(7) 1.26(17) 1. 0
O18 O2- 6 d 0.7808(6) 0.1154(6) 0.9133(5) 1.14(10) 1. 0
O19 O2- 3 c 0.3384(8) 0 0.2897(6) 1.32(14) 1. 0
O20 O2- 3 c 0.4475(7) 0 0.3971(6) 1.52(17) 1. 0
O21 O2- 6 d 0.3356(8) 0.1125(6) 0.3934(5) 1.51(11) 1. 0
O22 O2- 3 c 0.3358(9) 0 0.0167(6) 1.66(16) 1. 0
O23 O2- 3 c 0.4461(8) 0 0.1203(7) 1.85(20) 1. 0
O24 O2- 6 d 0.3342(9) 0.1123(7) 0.1204(5) 1.83(12) 1. 0
#End of TTdata_4289-ICSD