
#(C) 2019 by FIZ Karlsruhe - Leibniz Institute for Information Infrastructure.  All rights reserved.
data_428956-ICSD
_database_code_ICSD 428956
_audit_creation_date 2018-02-01
_chemical_name_systematic 'Tetrasodium dodecaoxo-hydroxo-tetraboro-trigallate'
_chemical_formula_structural 'Na4 Ga3 B4 O12 (O H)'
_chemical_formula_sum 'H1 B4 Ga3 Na4 O13'
_exptl_crystal_density_diffrn 2.88
_cell_measurement_temperature 293.
_publ_section_title

;
Centrosymmetric (Hdima)2[Ge5B3O15(OH)] and noncentrosymmetric Na4Ga3B4O12(OH).
Solvothermal/surfactant-thermal synthesis of open-framework borogermanate and
galloborate
;
loop_
_citation_id
_citation_journal_full
_citation_year
_citation_journal_volume
_citation_page_first
_citation_page_last
_citation_journal_id_ASTM
primary 'Inorganic Chemistry' 2017 56 12695 12698 INOCAJ
loop_
_publ_author_name
'Yu, Su-Juan'
'Gu, Xiang-Yu'
'Deng, Ting-Ting'
'Huang, Jian-Hao'
'Cheng, Jian-Wen'
'Yang, Guo-Yu'
_cell_length_a 13.6737(2)
_cell_length_b 13.6737(2)
_cell_length_c 13.6737(2)
_cell_angle_alpha 90.
_cell_angle_beta 90.
_cell_angle_gamma 90.
_cell_volume 2556.57
_cell_formula_units_Z 8
_symmetry_space_group_name_H-M 'F -4 3 c'
_symmetry_Int_Tables_number 219
_refine_ls_R_factor_all 0.0233
loop_
_symmetry_equiv_pos_site_id
_symmetry_equiv_pos_as_xyz
1 '-z, y, -x+1/2'
2 '-y, x, -z+1/2'
3 '-x, z, -y+1/2'
4 'z, -y, -x+1/2'
5 'y, -x, -z+1/2'
6 'x, -z, -y+1/2'
7 '-z, -y, x+1/2'
8 '-y, -x, z+1/2'
9 '-x, -z, y+1/2'
10 'z, y, x+1/2'
11 'y, x, z+1/2'
12 'x, z, y+1/2'
13 '-z, -x, y'
14 '-y, -z, x'
15 '-x, -y, z'
16 'z, -x, -y'
17 'y, -z, -x'
18 'x, -y, -z'
19 '-z, x, -y'
20 '-y, z, -x'
21 '-x, y, -z'
22 'z, x, y'
23 'y, z, x'
24 'x, y, z'
25 '-z, y+1/2, -x'
26 '-y, x+1/2, -z'
27 '-x, z+1/2, -y'
28 'z, -y+1/2, -x'
29 'y, -x+1/2, -z'
30 'x, -z+1/2, -y'
31 '-z, -y+1/2, x'
32 '-y, -x+1/2, z'
33 '-x, -z+1/2, y'
34 'z, y+1/2, x'
35 'y, x+1/2, z'
36 'x, z+1/2, y'
37 '-z, -x+1/2, y+1/2'
38 '-y, -z+1/2, x+1/2'
39 '-x, -y+1/2, z+1/2'
40 'z, -x+1/2, -y+1/2'
41 'y, -z+1/2, -x+1/2'
42 'x, -y+1/2, -z+1/2'
43 '-z, x+1/2, -y+1/2'
44 '-y, z+1/2, -x+1/2'
45 '-x, y+1/2, -z+1/2'
46 'z, x+1/2, y+1/2'
47 'y, z+1/2, x+1/2'
48 'x, y+1/2, z+1/2'
49 '-z+1/2, y, -x'
50 '-y+1/2, x, -z'
51 '-x+1/2, z, -y'
52 'z+1/2, -y, -x'
53 'y+1/2, -x, -z'
54 'x+1/2, -z, -y'
55 '-z+1/2, -y, x'
56 '-y+1/2, -x, z'
57 '-x+1/2, -z, y'
58 'z+1/2, y, x'
59 'y+1/2, x, z'
60 'x+1/2, z, y'
61 '-z+1/2, -x, y+1/2'
62 '-y+1/2, -z, x+1/2'
63 '-x+1/2, -y, z+1/2'
64 'z+1/2, -x, -y+1/2'
65 'y+1/2, -z, -x+1/2'
66 'x+1/2, -y, -z+1/2'
67 '-z+1/2, x, -y+1/2'
68 '-y+1/2, z, -x+1/2'
69 '-x+1/2, y, -z+1/2'
70 'z+1/2, x, y+1/2'
71 'y+1/2, z, x+1/2'
72 'x+1/2, y, z+1/2'
73 '-z+1/2, y+1/2, -x+1/2'
74 '-y+1/2, x+1/2, -z+1/2'
75 '-x+1/2, z+1/2, -y+1/2'
76 'z+1/2, -y+1/2, -x+1/2'
77 'y+1/2, -x+1/2, -z+1/2'
78 'x+1/2, -z+1/2, -y+1/2'
79 '-z+1/2, -y+1/2, x+1/2'
80 '-y+1/2, -x+1/2, z+1/2'
81 '-x+1/2, -z+1/2, y+1/2'
82 'z+1/2, y+1/2, x+1/2'
83 'y+1/2, x+1/2, z+1/2'
84 'x+1/2, z+1/2, y+1/2'
85 '-z+1/2, -x+1/2, y'
86 '-y+1/2, -z+1/2, x'
87 '-x+1/2, -y+1/2, z'
88 'z+1/2, -x+1/2, -y'
89 'y+1/2, -z+1/2, -x'
90 'x+1/2, -y+1/2, -z'
91 '-z+1/2, x+1/2, -y'
92 '-y+1/2, z+1/2, -x'
93 '-x+1/2, y+1/2, -z'
94 'z+1/2, x+1/2, y'
95 'y+1/2, z+1/2, x'
96 'x+1/2, y+1/2, z'
loop_
_atom_type_symbol
_atom_type_oxidation_number
Ga3+ 3
Na1+ 1
B3+ 3
O2- -2
H1+ 1
O2- -2
loop_
_atom_site_label
_atom_site_type_symbol
_atom_site_symmetry_multiplicity
_atom_site_Wyckoff_symbol
_atom_site_fract_x
_atom_site_fract_y
_atom_site_fract_z
_atom_site_B_iso_or_equiv
_atom_site_occupancy
_atom_site_attached_hydrogens
Ga1 Ga3+ 24 d 0. 1. 0.75 0.0112(3) 1 0
Na1 Na1+ 48 g -0.0355(4) 0.75 0.75 0.0374(10) 0.5 0
Na2 Na1+ 8 b -0.25 0.75 0.75 0.0271(11) 1 0
B1 B3+ 32 e -0.1033(4) 0.8967(4) 0.6033(4) 0.0192(11) 1 0
O1 O2- 96 h -0.03162(13) 0.89413(13) 0.67390(13) 0.0213(5) 1 0
H1 H1+ 32 e -0.1090(7) 0.6090(7) 0.6090(7) 0.032 0.25 0
O2 O2- 32 e -0.1449(6) 0.6449(6) 0.6449(6) 0.0022(9) 0.25 0
loop_
_atom_site_aniso_label
_atom_site_aniso_type_symbol
_atom_site_aniso_U_11
_atom_site_aniso_U_22
_atom_site_aniso_U_33
_atom_site_aniso_U_12
_atom_site_aniso_U_13
_atom_site_aniso_U_23
Ga1 Ga3+ 0.0112(3) 0.0112(3) 0.0114(3) 0. 0. 0.
Na1 Na1+ 0.076(3) 0.0184(17) 0.0175(16) 0. 0. 0.008(4)
Na2 Na1+ 0.0271(11) 0.0271(11) 0.0271(11) 0. 0. 0.
B1 B3+ 0.0192(11) 0.0192(11) 0.0192(11) 0.0071(19) -0.0071(19) -0.0071(19)
O1 O2- 0.0223(10) 0.0175(10) 0.0240(10) 0.0056(8) -0.0105(7) -0.0064(9)
O2 O2- 0.0022(9) 0.0022(9) 0.0022(9) 0.0001(6) 0.0001(6) -0.0001(6)
#End of TTdata_428956-ICSD