
#(C) 2019 by FIZ Karlsruhe - Leibniz Institute for Information Infrastructure.  All rights reserved.
data_429029-ICSD
_database_code_ICSD 429029
_audit_creation_date 2016-02-01
_chemical_name_systematic 'Disodium zinc heptatitanate (1.85/0.92/7.08/16)'
_chemical_formula_structural 'Na1.85 Zn0.92 Ti7.08 O16'
_chemical_formula_sum 'Na1.85 O16 Ti7.08 Zn0.92'
_chemical_name_structure_type NaTi4O8
_exptl_crystal_density_diffrn 3.97
_cell_measurement_temperature 293.
_publ_section_title

;
Low-temperature synthesis of freudenbergite-type titanate bronzes from metal
halides, crystal growth from molybdate flux, and crystal structure
determination of Na1.84 Zn0.92 Ti7.08 O16
;
loop_
_citation_id
_citation_journal_full
_citation_year
_citation_journal_volume
_citation_page_first
_citation_page_last
_citation_journal_id_ASTM
primary 'Journal of Alloys and Compounds' 2015 644 783 787 JALCEU
loop_
_publ_author_name
'Bruhn, Gerd'
'Beutel, Sebastian'
'Pfaff, Gerhard'
'Albert, Barbara'
_cell_length_a 12.302(2)
_cell_length_b 3.8194(4)
_cell_length_c 6.5016(11)
_cell_angle_alpha 90
_cell_angle_beta 107.089(13)
_cell_angle_gamma 90
_cell_volume 291.99
_cell_formula_units_Z 1
_symmetry_space_group_name_H-M 'C 1 2/m 1'
_symmetry_Int_Tables_number 12
_refine_ls_R_factor_all 0.032
loop_
_symmetry_equiv_pos_site_id
_symmetry_equiv_pos_as_xyz
1 '-x, y, -z'
2 '-x, -y, -z'
3 'x, -y, z'
4 'x, y, z'
5 '-x+1/2, y+1/2, -z'
6 '-x+1/2, -y+1/2, -z'
7 'x+1/2, -y+1/2, z'
8 'x+1/2, y+1/2, z'
loop_
_atom_type_symbol
_atom_type_oxidation_number
Ti4+ 4
Zn2+ 2
Ti4+ 4
Zn2+ 2
Na1+ 1
O2- -2
loop_
_atom_site_label
_atom_site_type_symbol
_atom_site_symmetry_multiplicity
_atom_site_Wyckoff_symbol
_atom_site_fract_x
_atom_site_fract_y
_atom_site_fract_z
_atom_site_B_iso_or_equiv
_atom_site_occupancy
_atom_site_attached_hydrogens
Ti1 Ti4+ 4 i 0.29899(3) 0 0.71083(6) 0.0023(3) 0.824(3) 0
Zn1 Zn2+ 4 i 0.29899(3) 0 0.71083(6) 0.0023(3) 0.176(3) 0
Ti2 Ti4+ 4 i 0.39792(4) 0 0.30085(7) 0.0035(3) 0.945(3) 0
Zn2 Zn2+ 4 i 0.39792(4) 0 0.30085(7) 0.0035(3) 0.055(3) 0
Na1 Na1+ 2 a 0 0 0 0.0233(8) 0.924(10) 0
O1 O2- 4 i 0.3723(2) 0 0.9960(3) 0.0082(5) 1 0
O2 O2- 4 i 0.23680(18) 0 0.3457(3) 0.0057(5) 1 0
O3 O2- 4 i 0.13441(19) 0 0.7088(4) 0.0071(5) 1 0
O4 O2- 4 i 0.44264(18) 0 0.6340(4) 0.0061(5) 1 0
loop_
_atom_site_aniso_label
_atom_site_aniso_type_symbol
_atom_site_aniso_U_11
_atom_site_aniso_U_22
_atom_site_aniso_U_33
_atom_site_aniso_U_12
_atom_site_aniso_U_13
_atom_site_aniso_U_23
Ti1 Ti4+ 0.0041(4) 0.0011(4) 0.0019(4) 0 0.0010(2) 0
Zn1 Zn2+ 0.0041(4) 0.0011(4) 0.0019(4) 0 0.0010(2) 0
Ti2 Ti4+ 0.0033(4) 0.0031(4) 0.0045(4) 0 0.0017(2) 0
Zn2 Zn2+ 0.0033(4) 0.0031(4) 0.0045(4) 0 0.0017(2) 0
Na1 Na1+ 0.0185(12) 0.0073(11) 0.0492(17) 0 0.0180(10) 0
O1 O2- 0.0101(9) 0.0082(10) 0.0068(10) 0 0.0032(7) 0
O2 O2- 0.0066(9) 0.0028(9) 0.0085(11) 0 0.0034(8) 0
O3 O2- 0.0100(10) 0.0028(9) 0.0083(10) 0 0.0025(8) 0
O4 O2- 0.0056(8) 0.0090(10) 0.0039(11) 0 0.0018(7) 0
#End of TTdata_429029-ICSD