
#(C) 2019 by FIZ Karlsruhe - Leibniz Institute for Information Infrastructure.  All rights reserved.
data_429091-ICSD
_database_code_ICSD 429091
_audit_creation_date 2016-02-01
_chemical_name_systematic 'Pentasodium thulium hexahydroxide tetraoxotungstate'
_chemical_formula_structural 'Na5 Tm (O H)6 (W O4)'
_chemical_formula_sum 'H6 Na5 O10 Tm1 W1'
_exptl_crystal_density_diffrn 3.93
_cell_measurement_temperature 100.
_publ_section_title

;
Hydroflux synthesis and crystal structure of new lanthanide tungstate
oxyhydroxides
;
loop_
_citation_id
_citation_journal_full
_citation_year
_citation_journal_volume
_citation_page_first
_citation_page_last
_citation_journal_id_ASTM
primary 'Solid State Sciences' 2015 42 14 19 SSSCFJ
loop_
_publ_author_name
'Latshaw, Allison M.'
'Smith, Mark D.'
'Chance, W. Michael'
'zur Loye, Hans-Conrad'
_cell_length_a 11.2257(7)
_cell_length_b 16.2220(10)
_cell_length_c 12.0133(8)
_cell_angle_alpha 90
_cell_angle_beta 101.999(2)
_cell_angle_gamma 90
_cell_volume 2139.86
_cell_formula_units_Z 8
_symmetry_space_group_name_H-M 'I 1 2/a 1'
_symmetry_Int_Tables_number 15
_refine_ls_R_factor_all 0.0248
loop_
_symmetry_equiv_pos_site_id
_symmetry_equiv_pos_as_xyz
1 'x+1/2, -y, z'
2 '-x, -y, -z'
3 '-x+1/2, y, -z'
4 'x, y, z'
5 'x, -y+1/2, z+1/2'
6 '-x+1/2, -y+1/2, -z+1/2'
7 '-x, y+1/2, -z+1/2'
8 'x+1/2, y+1/2, z+1/2'
loop_
_atom_type_symbol
_atom_type_oxidation_number
W6+ 6
Tm3+ 3
Na1+ 1
O2- -2
H1+ 1
O2- -2
H1+ 1
O2- -2
H1+ 1
O2- -2
H1+ 1
O2- -2
H1+ 1
O2- -2
H1+ 1
O2- -2
loop_
_atom_site_label
_atom_site_type_symbol
_atom_site_symmetry_multiplicity
_atom_site_Wyckoff_symbol
_atom_site_fract_x
_atom_site_fract_y
_atom_site_fract_z
_atom_site_B_iso_or_equiv
_atom_site_occupancy
_atom_site_attached_hydrogens
W1 W6+ 8 f 0.54916(2) 0.24846(2) 0.21523(2) 0.00684(4) 1 0
Tm1 Tm3+ 4 e 0.25 0.04393(2) 0.5 0.00667(5) 1 0
Tm2 Tm3+ 4 e 0.25 0.45590(2) 0.5 0.00632(5) 1 0
Na1 Na1+ 8 f 0.25317(16) -0.06041(9) 0.25070(15) 0.0095(2) 1 0
Na2 Na1+ 8 f 0.25362(16) 0.15328(9) 0.24968(15) 0.0095(3) 1 0
Na3 Na1+ 8 f 0.49453(15) 0.04809(9) 0.37307(14) 0.0104(3) 1 0
Na4 Na1+ 8 f 0.49535(15) 0.44519(10) 0.36892(14) 0.0108(3) 1 0
Na5 Na1+ 4 e 0.25 0.24871(13) 0.5 0.0100(4) 1 0
Na6 Na1+ 4 e 0.75 0.31333(17) 0.5 0.0131(5) 0.839(5) 0
Na7 Na1+ 4 e 0.75 0.1845(9) 0.5 0.0131(5) 0.161(5) 0
O1 O2- 8 f 0.1315(3) 0.04870(16) 0.3225(2) 0.0080(5) 1 0
H1 H1+ 8 f 0.081(4) 0.084(3) 0.332(5) 0.032(17) 1 0
O2 O2- 8 f 0.3658(3) -0.05000(16) 0.4411(2) 0.0095(5) 1 0
H2 H1+ 8 f 0.363(6) -0.1017(13) 0.433(5) 0.030(16) 1 0
O3 O2- 8 f 0.3634(3) 0.14015(16) 0.4397(2) 0.0084(5) 1 0
H3 H1+ 8 f 0.425(3) 0.167(3) 0.468(5) 0.029(16) 1 0
O4 O2- 8 f 0.1321(3) 0.45484(15) 0.3232(2) 0.0087(5) 1 0
H4 H1+ 8 f 0.080(4) 0.420(3) 0.331(5) 0.022(15) 1 0
O5 O2- 8 f 0.3621(3) 0.35888(16) 0.4408(2) 0.0084(5) 1 0
H5 H1+ 8 f 0.421(5) 0.327(4) 0.464(6) 0.06(2) 1 0
O6 O2- 8 f 0.3635(3) 0.55078(17) 0.4431(2) 0.0104(5) 1 0
H6 H1+ 8 f 0.392(6) 0.595(2) 0.425(6) 0.05(2) 1 0
O7 O2- 8 f 0.6153(3) 0.33179(18) 0.3039(3) 0.0174(6) 1 0
O8 O2- 8 f 0.3874(2) 0.25447(17) 0.1906(2) 0.0117(5) 1 0
O9 O2- 8 f 0.5938(3) 0.15155(18) 0.2774(3) 0.0203(7) 1 0
O10 O2- 8 f 0.5918(3) 0.25289(19) 0.0815(2) 0.0157(5) 1 0
loop_
_atom_site_aniso_label
_atom_site_aniso_type_symbol
_atom_site_aniso_U_11
_atom_site_aniso_U_22
_atom_site_aniso_U_33
_atom_site_aniso_U_12
_atom_site_aniso_U_13
_atom_site_aniso_U_23
W1 W6+ 0.00636(6) 0.00680(6) 0.00765(6) 0.00019(6) 0.00209(4) -0.00009(6)
Tm1 Tm3+ 0.00658(11) 0.00761(9) 0.00593(11) 0. 0.00158(8) 0.
Tm2 Tm3+ 0.00613(11) 0.00731(9) 0.00564(11) 0. 0.00150(8) 0.
Na1 Na1+ 0.0100(6) 0.0110(6) 0.0075(6) -0.0005(6) 0.0018(5) -0.0001(6)
Na2 Na1+ 0.0116(6) 0.0085(6) 0.0083(6) -0.0001(6) 0.0016(5) -0.0001(6)
Na3 Na1+ 0.0090(8) 0.0135(7) 0.0092(8) 0.0009(6) 0.0026(6) -0.0010(5)
Na4 Na1+ 0.0083(7) 0.0148(7) 0.0093(8) -0.0018(6) 0.0017(6) 0.0017(6)
Na5 Na1+ 0.0102(9) 0.0101(8) 0.0102(9) 0. 0.0031(7) 0.
Na6 Na1+ 0.0115(12) 0.0167(12) 0.0110(12) 0. 0.0020(9) 0.
Na7 Na1+ 0.0115(12) 0.0167(12) 0.0110(12) 0. 0.0020(9) 0.
O1 O2- 0.0076(13) 0.0088(11) 0.0080(13) 0.0012(9) 0.0028(10) -0.0007(9)
O2 O2- 0.0105(14) 0.0091(11) 0.0083(13) 0.0010(9) 0.0004(11) -0.0001(9)
O3 O2- 0.0070(13) 0.0093(11) 0.0090(13) -0.0018(9) 0.0018(10) -0.0008(9)
O4 O2- 0.0099(14) 0.0092(11) 0.0072(13) -0.0017(9) 0.0020(11) -0.0009(9)
O5 O2- 0.0085(13) 0.0091(10) 0.0085(13) 0.0016(9) 0.0040(10) 0.0000(9)
O6 O2- 0.0117(14) 0.0096(11) 0.0097(13) -0.0050(10) 0.0017(11) 0.0005(9)
O7 O2- 0.0159(15) 0.0174(13) 0.0210(16) -0.0051(11) 0.0086(12) -0.0077(11)
O8 O2- 0.0100(11) 0.0149(11) 0.0106(11) 0.0011(10) 0.0033(9) 0.0005(10)
O9 O2- 0.0157(15) 0.0156(13) 0.0326(18) 0.0077(11) 0.0120(14) 0.0095(12)
O10 O2- 0.0146(12) 0.0226(13) 0.0110(11) -0.0009(12) 0.0054(9) -0.0010(12)
#End of TTdata_429091-ICSD