
#(C) 2018 by FIZ Karlsruhe - Leibniz Institute for Information Infrastructure.  All rights reserved.
data_429150-ICSD
_database_code_ICSD 429150
_audit_creation_date 2015-08-01
_chemical_name_systematic 'Tetralithium (tetraamide zinc) diamide'
_chemical_formula_structural 'Li4 (Zn (N H2)4) (N H2)2'
_chemical_formula_sum 'H12 Li4 N6 Zn1'
_exptl_crystal_density_diffrn 1.61
_cell_measurement_temperature 293.
_publ_section_title
'Ammonothermal synthesis and characterization of Li4 (Zn (N H2)4) (N H2)2'
loop_
_citation_id
_citation_journal_full
_citation_year
_citation_journal_volume
_citation_page_first
_citation_page_last
_citation_journal_id_ASTM
primary 'Zeitschrift fuer Anorganische und Allgemeine Chemie (1950) (DE)' 2015
641 1016 1023 ZAACAB
loop_
_publ_author_name
'Richter, Theresia M.M.'
'Alt, Nicolas S.A.'
'Schluecker, Eberhard'
'Niewa, Rainer'
_cell_length_a 5.0005(3)
_cell_length_b 15.5410(8)
_cell_length_c 10.0712(5)
_cell_angle_alpha 90.
_cell_angle_beta 90.
_cell_angle_gamma 90.
_cell_volume 782.66
_cell_formula_units_Z 4
_symmetry_space_group_name_H-M 'C 2 2 21'
_symmetry_Int_Tables_number 20
_refine_ls_R_factor_all 0.0254
loop_
_symmetry_equiv_pos_site_id
_symmetry_equiv_pos_as_xyz
1 '-x, y, -z+1/2'
2 '-x, -y, z+1/2'
3 'x, -y, -z'
4 'x, y, z'
5 '-x+1/2, y+1/2, -z+1/2'
6 '-x+1/2, -y+1/2, z+1/2'
7 'x+1/2, -y+1/2, -z'
8 'x+1/2, y+1/2, z'
loop_
_atom_type_symbol
_atom_type_oxidation_number
Zn2+ 2
N3- -3
H1+ 1
N3- -3
H1+ 1
N3- -3
H1+ 1
Li1+ 1
loop_
_atom_site_label
_atom_site_type_symbol
_atom_site_symmetry_multiplicity
_atom_site_Wyckoff_symbol
_atom_site_fract_x
_atom_site_fract_y
_atom_site_fract_z
_atom_site_B_iso_or_equiv
_atom_site_occupancy
_atom_site_attached_hydrogens
Zn1 Zn2+ 4 b 0.5 0.16980(2) 0.25 0.0214(2) 1 0
N1 N3- 8 c 0.2560(6) 0.25309(17) 0.3507(3) 0.0221(5) 1 0
H1 H1+ 8 c 0.105(5) 0.224(2) 0.360(4) 0.027 1 0
H2 H1+ 8 c 0.316(8) 0.263(2) 0.430(3) 0.027 1 0
N2 N3- 8 c 0.3008(6) 0.08619(16) 0.1283(3) 0.0230(5) 1 0
H3 H1+ 8 c 0.282(8) 0.114(2) 0.053(3) 0.028 1 0
H4 H1+ 8 c 0.132(5) 0.082(2) 0.155(4) 0.028 1 0
N3 N3- 8 c 0.2357(5) 0.41885(14) 0.1338(3) 0.0210(5) 1 0
H5 H1+ 8 c 0.235(8) 0.384(2) 0.065(3) 0.025 1 0
H6 H1+ 8 c 0.378(5) 0.452(2) 0.120(4) 0.025 1 0
Li1 Li1+ 4 b 0. 0.3379(2) 0.25 0.0075(8) 1 0
Li2 Li1+ 4 a 0.497(2) 0. 0.5 0.0271(11) 1 0
Li3 Li1+ 4 b 0. 0.4967(3) 0.25 0.0258(13) 1 0
Li4 Li1+ 4 b 0.5 0.3440(4) 0.25 0.0255(13) 1 0
loop_
_atom_site_aniso_label
_atom_site_aniso_type_symbol
_atom_site_aniso_U_11
_atom_site_aniso_U_22
_atom_site_aniso_U_33
_atom_site_aniso_U_12
_atom_site_aniso_U_13
_atom_site_aniso_U_23
Zn1 Zn2+ 0.0235(3) 0.0157(2) 0.0249(3) 0. 0.0003(4) 0.
N1 N3- 0.0247(12) 0.0197(11) 0.0220(11) 0.0040(9) 0.0017(9) -0.0010(8)
N2 N3- 0.0260(12) 0.0204(11) 0.0227(12) -0.0005(9) -0.0020(10) -0.0013(9)
N3 N3- 0.0214(12) 0.0213(13) 0.0202(12) -0.0006(10) 0.0000(8) -0.0001(8)
Li1 Li1+ 0.0034(17) 0.0034(16) 0.0159(19) 0. 0.002(5) 0.
Li2 Li1+ 0.028(3) 0.033(3) 0.020(2) 0. 0. 0.0006(18)
Li3 Li1+ 0.036(3) 0.020(3) 0.021(3) 0. -0.011(8) 0.
Li4 Li1+ 0.023(3) 0.021(2) 0.033(3) 0. 0.011(8) 0.
#End of TTdata_429150-ICSD