
#(C) 2019 by FIZ Karlsruhe - Leibniz Institute for Information Infrastructure.  All rights reserved.
data_429222-ICSD
_database_code_ICSD 429222
_audit_creation_date 2016-02-01
_chemical_name_systematic 'Sodium magnesium iridium(IV) oxide (2.4/1/2/6)'
_chemical_formula_structural 'Na2.4 Mg Ir2 O6'
_chemical_formula_sum 'Ir2 Mg1 Na2.4 O6'
_exptl_crystal_density_diffrn 7.14
_cell_measurement_temperature 5.
_publ_section_title

;
Evolution of magnetism in the Na3-delta (Na1-x Mgx) Ir2 O6 series of honeycomb
iridates
;
loop_
_citation_id
_citation_journal_full
_citation_year
_citation_journal_volume
_citation_page_first
_citation_page_last
_citation_journal_id_ASTM
primary 'Journal of Solid State Chemistry' 2015 224 28 35 JSSCBI
loop_
_publ_author_name
'Wallace, David C.'
'Brown, Craig M.'
'McQueen, Tyrel M.'
_cell_length_a 5.3084(6)
_cell_length_b 9.197(1)
_cell_length_c 5.6461(3)
_cell_angle_alpha 90.
_cell_angle_beta 108.440(7)
_cell_angle_gamma 90.
_cell_volume 261.49
_cell_formula_units_Z 2
_symmetry_space_group_name_H-M 'C 1 2/m 1'
_symmetry_Int_Tables_number 12
_refine_ls_R_factor_all 0.0795
loop_
_symmetry_equiv_pos_site_id
_symmetry_equiv_pos_as_xyz
1 '-x, y, -z'
2 '-x, -y, -z'
3 'x, -y, z'
4 'x, y, z'
5 '-x+1/2, y+1/2, -z'
6 '-x+1/2, -y+1/2, -z'
7 'x+1/2, -y+1/2, z'
8 'x+1/2, y+1/2, z'
loop_
_atom_type_symbol
_atom_type_oxidation_number
Na1+ 1
Mg2+ 2
Ir4+ 4
O2- -2
loop_
_atom_site_label
_atom_site_type_symbol
_atom_site_symmetry_multiplicity
_atom_site_Wyckoff_symbol
_atom_site_fract_x
_atom_site_fract_y
_atom_site_fract_z
_atom_site_B_iso_or_equiv
_atom_site_occupancy
_atom_site_attached_hydrogens
Na1 Na1+ 2 d 0.5 0. 0.5 0.025(1) 0.77(1) 0
Na2 Na1+ 4 h 0.5 0.331(3) 0.5 0.025(1) 0.77(1) 0
Mg1 Mg2+ 2 a 0. 0. 0. 0.0220(5) 1. 0
Ir1 Ir4+ 4 g 0.5 0.1634(9) 0. 0.0230(5) 1. 0
O1 O2- 8 j 0.763(2) 0.162(1) 0.802(1) 0.0184(4) 1. 0
O2 O2- 4 i 0.724(3) 0. 0.198(2) 0.0184(4) 1. 0
#End of TTdata_429222-ICSD