
#(C) 2019 by FIZ Karlsruhe - Leibniz Institute for Information Infrastructure.  All rights reserved.
data_429323-ICSD
_database_code_ICSD 429323
_audit_creation_date 2016-02-01
_chemical_name_systematic
'Pentasodium tetrapraseodymium tetrakis(tetraoxosilicate) fluoride'
_chemical_formula_structural 'Na5 Pr4 (Si O4)4 F'
_chemical_formula_sum 'F1 Na5 O16 Pr4 Si4'
_chemical_name_structure_type (NaYSiO4)4NaF
_exptl_crystal_density_diffrn 4.49
_cell_measurement_temperature 294.
_publ_section_title

;
A5 RE4 X (T O4)4 crystal growth and photoluminescence. Fluoride flux synthesis
of sodium and potassium rare earth silicate oxyfluorides
;
loop_
_citation_id
_citation_journal_full
_citation_year
_citation_journal_volume
_citation_page_first
_citation_page_last
_citation_journal_id_ASTM
primary CrystEngComm 2015 17 4654 4661 CRECF4
loop_
_publ_author_name
'Latshaw, Allison M.'
'Wilkins, Branford O.'
'Hughey, Kendall D.'
'Yeon, Jeongho'
'Williams, Derek E.'
'Tran, T. Thao'
'Halasyamanib, P. Shiv'
'Loye, Hans-Conrad zur'
_cell_length_a 12.0109(2)
_cell_length_b 12.0109(2)
_cell_length_c 5.4620(2)
_cell_angle_alpha 90.
_cell_angle_beta 90.
_cell_angle_gamma 90.
_cell_volume 787.96
_cell_formula_units_Z 2
_symmetry_space_group_name_H-M 'I -4'
_symmetry_Int_Tables_number 82
_refine_ls_R_factor_all 0.012
loop_
_symmetry_equiv_pos_site_id
_symmetry_equiv_pos_as_xyz
1 '-y, x, -z'
2 'y, -x, -z'
3 '-x, -y, z'
4 'x, y, z'
5 '-y+1/2, x+1/2, -z+1/2'
6 'y+1/2, -x+1/2, -z+1/2'
7 '-x+1/2, -y+1/2, z+1/2'
8 'x+1/2, y+1/2, z+1/2'
loop_
_atom_type_symbol
_atom_type_oxidation_number
Pr3+ 3
Si4+ 4
Na1+ 1
F1- -1
O2- -2
loop_
_atom_site_label
_atom_site_type_symbol
_atom_site_symmetry_multiplicity
_atom_site_Wyckoff_symbol
_atom_site_fract_x
_atom_site_fract_y
_atom_site_fract_z
_atom_site_B_iso_or_equiv
_atom_site_occupancy
_atom_site_attached_hydrogens
Pr1 Pr3+ 8 g 0.315029(13) 0.382654(12) -0.01556(3) 0.01692(7) 1 0
Si1 Si4+ 8 g 0.10103(7) 0.24744(7) 0.0074(2) 0.01651(17) 1 0
Na1 Na1+ 8 g -0.10472(11) 0.41077(11) -0.0079(4) 0.0296(3) 1 0
Na2 Na1+ 2 a 0. 0. 0. 0.0371(7) 1 0
F1 F1- 2 b 0.5 0.5 0. 0.0274(10) 1 0
O1 O2- 8 g 0.10528(18) 0.38275(18) -0.0152(5) 0.0230(5) 1 0
O2 O2- 8 g 0.0453(2) 0.1912(3) -0.2319(5) 0.0233(6) 1 0
O3 O2- 8 g 0.0372(2) 0.2094(3) 0.2544(5) 0.0239(6) 1 0
O4 O2- 8 g 0.22908(18) 0.20183(19) 0.0417(5) 0.0205(5) 1 0
loop_
_atom_site_aniso_label
_atom_site_aniso_type_symbol
_atom_site_aniso_U_11
_atom_site_aniso_U_22
_atom_site_aniso_U_33
_atom_site_aniso_U_12
_atom_site_aniso_U_13
_atom_site_aniso_U_23
Pr1 Pr3+ 0.01625(10) 0.01571(9) 0.01879(10) 0.00035(5) -0.00002(7) -0.00044(7)
Si1 Si4+ 0.0169(4) 0.0170(3) 0.0156(4) 0.0001(3) 0.0003(4) 0.0003(4)
Na1 Na1+ 0.0256(6) 0.0275(6) 0.0356(8) -0.0006(5) 0.0008(8) -0.0015(9)
Na2 Na1+ 0.0331(9) 0.0331(9) 0.0451(19) 0. 0. 0.
F1 F1- 0.0215(10) 0.0215(10) 0.039(3) 0. 0. 0.
O1 O2- 0.0206(10) 0.0182(10) 0.0302(14) 0.0014(8) 0.0016(13) 0.0015(12)
O2 O2- 0.0183(13) 0.0330(16) 0.0188(12) -0.0001(12) 0.0000(10) -0.0047(11)
O3 O2- 0.0218(14) 0.0334(16) 0.0163(13) 0.0003(11) 0.0023(10) 0.0056(10)
O4 O2- 0.0195(10) 0.0186(10) 0.0235(12) 0.0006(8) 0.0002(10) 0.0005(10)
#End of TTdata_429323-ICSD