
#(C) 2019 by FIZ Karlsruhe - Leibniz Institute for Information Infrastructure.  All rights reserved.
data_429320-ICSD
_database_code_ICSD 429320
_audit_creation_date 2016-02-01
_chemical_name_systematic
'Pentasodium tetraeuropium tetrakis(tetraoxosilicate) fluoride'
_chemical_formula_structural 'Na5 Eu4 (Si O4)4 F'
_chemical_formula_sum 'Eu4 F1 Na5 O16 Si4'
_chemical_name_structure_type (NaYSiO4)4NaF
_exptl_crystal_density_diffrn 4.9
_cell_measurement_temperature 569.
_publ_section_title

;
A5 RE4 X (T O4)4 crystal growth and photoluminescence. Fluoride flux synthesis
of sodium and potassium rare earth silicate oxyfluorides
;
loop_
_citation_id
_citation_journal_full
_citation_year
_citation_journal_volume
_citation_page_first
_citation_page_last
_citation_journal_id_ASTM
primary CrystEngComm 2015 17 4654 4661 CRECF4
loop_
_publ_author_name
'Latshaw, Allison M.'
'Wilkins, Branford O.'
'Hughey, Kendall D.'
'Yeon, Jeongho'
'Williams, Derek E.'
'Tran, T. Thao'
'Halasyamanib, P. Shiv'
'Loye, Hans-Conrad zur'
_cell_length_a 11.7718(3)
_cell_length_b 11.7718(3)
_cell_length_c 5.4349(3)
_cell_angle_alpha 90.
_cell_angle_beta 90.
_cell_angle_gamma 90.
_cell_volume 753.14
_cell_formula_units_Z 2
_symmetry_space_group_name_H-M 'I -4'
_symmetry_Int_Tables_number 82
_refine_ls_R_factor_all 0.0173
loop_
_symmetry_equiv_pos_site_id
_symmetry_equiv_pos_as_xyz
1 '-y, x, -z'
2 'y, -x, -z'
3 '-x, -y, z'
4 'x, y, z'
5 '-y+1/2, x+1/2, -z+1/2'
6 'y+1/2, -x+1/2, -z+1/2'
7 '-x+1/2, -y+1/2, z+1/2'
8 'x+1/2, y+1/2, z+1/2'
loop_
_atom_type_symbol
_atom_type_oxidation_number
Eu3+ 3
Si4+ 4
Na1+ 1
F1- -1
O2- -2
loop_
_atom_site_label
_atom_site_type_symbol
_atom_site_symmetry_multiplicity
_atom_site_Wyckoff_symbol
_atom_site_fract_x
_atom_site_fract_y
_atom_site_fract_z
_atom_site_B_iso_or_equiv
_atom_site_occupancy
_atom_site_attached_hydrogens
Eu1 Eu3+ 8 g 0.81624(2) 0.116141(19) 0.02058(5) 0.00820(8) 1 0
Si1 Si4+ 8 g 0.60276(11) 0.25296(11) -0.0095(3) 0.0075(3) 1 0
Na1 Na1+ 8 g 0.39532(18) 0.08948(17) 0.0075(5) 0.0185(5) 1 0
Na2 Na1+ 2 b 0.5 0.5 0. 0.0253(11) 1 0
F1 F1- 2 a 0. 0. 0. 0.0155(14) 1 0
O1 O2- 8 g 0.6078(3) 0.1156(3) 0.0140(8) 0.0130(7) 1 0
O2 O2- 8 g 0.5482(4) 0.3109(4) 0.2319(7) 0.0138(8) 1 0
O3 O2- 8 g 0.5345(4) 0.2929(4) -0.2563(7) 0.0117(8) 1 0
O4 O2- 8 g 0.7336(3) 0.2971(3) -0.0568(7) 0.0112(7) 1 0
loop_
_atom_site_aniso_label
_atom_site_aniso_type_symbol
_atom_site_aniso_U_11
_atom_site_aniso_U_22
_atom_site_aniso_U_33
_atom_site_aniso_U_12
_atom_site_aniso_U_13
_atom_site_aniso_U_23
Eu1 Eu3+ 0.00818(12) 0.00726(12) 0.00914(11) -0.00029(8) 0.00000(9) -0.00041(9)
Si1 Si4+ 0.0073(5) 0.0089(5) 0.0062(7) -0.0007(4) -0.0004(6) 0.0000(6)
Na1 Na1+ 0.0142(10) 0.0137(9) 0.0275(13) 0.0001(8) -0.0022(11) -0.0008(12)
Na2 Na1+ 0.0221(14) 0.0221(14) 0.032(3) 0. 0. 0.
F1 F1- 0.0122(17) 0.0122(17) 0.022(4) 0. 0. 0.
O1 O2- 0.0126(17) 0.0074(15) 0.019(2) -0.0010(13) -0.0002(18) 0.0020(17)
O2 O2- 0.012(2) 0.017(2) 0.0124(19) 0.0034(18) -0.0002(16) -0.0022(16)
O3 O2- 0.009(2) 0.019(2) 0.0071(18) 0.0012(16) -0.0022(15) 0.0044(15)
O4 O2- 0.0106(16) 0.0106(16) 0.0123(18) 0.0003(13) 0.0017(14) 0.0016(14)
#End of TTdata_429320-ICSD