
#(C) 2019 by FIZ Karlsruhe - Leibniz Institute for Information Infrastructure.  All rights reserved.
data_429317-ICSD
_database_code_ICSD 429317
_audit_creation_date 2016-02-01
_chemical_name_systematic
'Pentasodium tetraholmium terakis(tetraoxosilicate) fluoride'
_chemical_formula_structural 'Na5 Ho4 (Si O4)4 F'
_chemical_formula_sum 'F1 Ho4 Na5 O16 Si4'
_chemical_name_structure_type (NaYSiO4)4NaF
_exptl_crystal_density_diffrn 5.33
_cell_measurement_temperature 294.
_publ_section_title

;
A5 RE4 X (T O4)4 crystal growth and photoluminescence. Fluoride flux synthesis
of sodium and potassium rare earth silicate oxyfluorides
;
loop_
_citation_id
_citation_journal_full
_citation_year
_citation_journal_volume
_citation_page_first
_citation_page_last
_citation_journal_id_ASTM
primary CrystEngComm 2015 17 4654 4661 CRECF4
loop_
_publ_author_name
'Latshaw, Allison M.'
'Wilkins, Branford O.'
'Hughey, Kendall D.'
'Yeon, Jeongho'
'Williams, Derek E.'
'Tran, T. Thao'
'Halasyamanib, P. Shiv'
'Loye, Hans-Conrad zur'
_cell_length_a 11.5844(2)
_cell_length_b 11.5844(2)
_cell_length_c 5.39570(10)
_cell_angle_alpha 90.
_cell_angle_beta 90.
_cell_angle_gamma 90.
_cell_volume 724.09
_cell_formula_units_Z 2
_symmetry_space_group_name_H-M 'I -4'
_symmetry_Int_Tables_number 82
_refine_ls_R_factor_all 0.0133
loop_
_symmetry_equiv_pos_site_id
_symmetry_equiv_pos_as_xyz
1 '-y, x, -z'
2 'y, -x, -z'
3 '-x, -y, z'
4 'x, y, z'
5 '-y+1/2, x+1/2, -z+1/2'
6 'y+1/2, -x+1/2, -z+1/2'
7 '-x+1/2, -y+1/2, z+1/2'
8 'x+1/2, y+1/2, z+1/2'
loop_
_atom_type_symbol
_atom_type_oxidation_number
Ho3+ 3
Si4+ 4
Na1+ 1
F1- -1
O2- -2
loop_
_atom_site_label
_atom_site_type_symbol
_atom_site_symmetry_multiplicity
_atom_site_Wyckoff_symbol
_atom_site_fract_x
_atom_site_fract_y
_atom_site_fract_z
_atom_site_B_iso_or_equiv
_atom_site_occupancy
_atom_site_attached_hydrogens
Ho1 Ho3+ 8 g 0.317274(14) 0.384467(14) -0.02289(4) 0.00714(8) 1 0
Si1 Si4+ 8 g 0.10352(9) 0.24660(9) 0.0106(3) 0.0067(2) 1 0
Na1 Na1+ 8 g -0.10492(15) 0.41086(15) -0.0072(4) 0.0170(4) 1 0
Na2 Na1+ 2 a 0. 0. 0. 0.0205(8) 1 0
F1 F1- 2 b 0.5 0.5 0. 0.0125(11) 1 0
O1 O2- 8 g 0.1096(2) 0.3865(2) -0.0123(6) 0.0109(6) 1 0
O2 O2- 8 g 0.0491(3) 0.1875(3) -0.2339(6) 0.0106(6) 1 0
O3 O2- 8 g 0.0339(3) 0.2050(3) 0.2569(6) 0.0107(6) 1 0
O4 O2- 8 g 0.2357(3) 0.2031(3) 0.0649(6) 0.0099(6) 1 0
loop_
_atom_site_aniso_label
_atom_site_aniso_type_symbol
_atom_site_aniso_U_11
_atom_site_aniso_U_22
_atom_site_aniso_U_33
_atom_site_aniso_U_12
_atom_site_aniso_U_13
_atom_site_aniso_U_23
Ho1 Ho3+ 0.00701(10) 0.00648(10) 0.00794(11) 0.00020(6) 0.00002(7) -0.00017(6)
Si1 Si4+ 0.0076(4) 0.0072(4) 0.0053(6) 0.0004(4) 0.0001(5) 0.0006(5)
Na1 Na1+ 0.0139(8) 0.0127(8) 0.0243(11) -0.0006(6) 0.0009(8) -0.0007(9)
Na2 Na1+ 0.0172(10) 0.0172(10) 0.027(2) 0. 0. 0.
F1 F1- 0.0108(13) 0.0108(13) 0.016(3) 0. 0. 0.
O1 O2- 0.0102(13) 0.0081(12) 0.0143(17) -0.0001(10) 0.0020(14) 0.0025(13)
O2 O2- 0.0085(15) 0.0158(17) 0.0074(15) -0.0020(13) -0.0014(12) -0.0017(12)
O3 O2- 0.0081(15) 0.0165(16) 0.0076(15) -0.0009(12) 0.0010(12) 0.0019(12)
O4 O2- 0.0090(13) 0.0100(13) 0.0107(15) -0.0002(10) -0.0013(12) 0.0010(12)
#End of TTdata_429317-ICSD