
#(C) 2019 by FIZ Karlsruhe - Leibniz Institute for Information Infrastructure.  All rights reserved.
data_429316-ICSD
_database_code_ICSD 429316
_audit_creation_date 2016-02-01
_chemical_name_systematic
'Pentasodium tetraerbium tetrakis(tetraoxosilicate) fluoride'
_chemical_formula_structural 'Na5 Er4 (Si O4)4 F'
_chemical_formula_sum 'Er4 F1 Na5 O16 Si4'
_chemical_name_structure_type (NaYSiO4)4NaF
_exptl_crystal_density_diffrn 5.42
_cell_measurement_temperature 294.
_publ_section_title

;
A5 RE4 X (T O4)4 crystal growth and photoluminescence. Fluoride flux synthesis
of sodium and potassium rare earth silicate oxyfluorides
;
loop_
_citation_id
_citation_journal_full
_citation_year
_citation_journal_volume
_citation_page_first
_citation_page_last
_citation_journal_id_ASTM
primary CrystEngComm 2015 17 4654 4661 CRECF4
loop_
_publ_author_name
'Latshaw, Allison M.'
'Wilkins, Branford O.'
'Hughey, Kendall D.'
'Yeon, Jeongho'
'Williams, Derek E.'
'Tran, T. Thao'
'Halasyamanib, P. Shiv'
'Loye, Hans-Conrad zur'
_cell_length_a 11.5410(2)
_cell_length_b 11.5410(2)
_cell_length_c 5.3850(2)
_cell_angle_alpha 90.
_cell_angle_beta 90.
_cell_angle_gamma 90.
_cell_volume 717.25
_cell_formula_units_Z 2
_symmetry_space_group_name_H-M 'I -4'
_symmetry_Int_Tables_number 82
_refine_ls_R_factor_all 0.0124
loop_
_symmetry_equiv_pos_site_id
_symmetry_equiv_pos_as_xyz
1 '-y, x, -z'
2 'y, -x, -z'
3 '-x, -y, z'
4 'x, y, z'
5 '-y+1/2, x+1/2, -z+1/2'
6 'y+1/2, -x+1/2, -z+1/2'
7 '-x+1/2, -y+1/2, z+1/2'
8 'x+1/2, y+1/2, z+1/2'
loop_
_atom_type_symbol
_atom_type_oxidation_number
Er3+ 3
Si4+ 4
Na1+ 1
F1- -1
O2- -2
loop_
_atom_site_label
_atom_site_type_symbol
_atom_site_symmetry_multiplicity
_atom_site_Wyckoff_symbol
_atom_site_fract_x
_atom_site_fract_y
_atom_site_fract_z
_atom_site_B_iso_or_equiv
_atom_site_occupancy
_atom_site_attached_hydrogens
Er1 Er3+ 8 g 0.317545(14) 0.384643(14) -0.02328(4) 0.00567(8) 1 0
Si1 Si4+ 8 g 0.10372(9) 0.24647(9) 0.0108(3) 0.0054(2) 1 0
Na1 Na1+ 8 g -0.10501(15) 0.41034(15) -0.0073(4) 0.0151(4) 1 0
Na2 Na1+ 2 a 0. 0. 0. 0.0181(8) 1 0
F1 F1- 2 b 0.5 0.5 0. 0.0105(11) 1 0
O1 O2- 8 g 0.1096(2) 0.3867(2) -0.0125(7) 0.0096(6) 1 0
O2 O2- 8 g 0.0494(3) 0.1872(3) -0.2356(6) 0.0081(6) 1 0
O3 O2- 8 g 0.0333(3) 0.2045(3) 0.2555(6) 0.0091(6) 1 0
O4 O2- 8 g 0.2363(2) 0.2026(3) 0.0664(6) 0.0080(6) 1 0
loop_
_atom_site_aniso_label
_atom_site_aniso_type_symbol
_atom_site_aniso_U_11
_atom_site_aniso_U_22
_atom_site_aniso_U_33
_atom_site_aniso_U_12
_atom_site_aniso_U_13
_atom_site_aniso_U_23
Er1 Er3+ 0.00578(10) 0.00497(10) 0.00625(11) 0.00035(5) -0.00003(6) -0.00026(6)
Si1 Si4+ 0.0062(4) 0.0061(4) 0.0039(6) 0.0006(3) -0.0004(5) 0.0003(4)
Na1 Na1+ 0.0138(8) 0.0092(7) 0.0222(11) -0.0023(6) 0.0015(8) -0.0010(9)
Na2 Na1+ 0.0147(10) 0.0147(10) 0.025(2) 0. 0. 0.
F1 F1- 0.0079(13) 0.0079(13) 0.016(3) 0. 0. 0.
O1 O2- 0.0084(13) 0.0051(12) 0.0152(19) 0.0022(10) 0.0022(13) -0.0015(13)
O2 O2- 0.0057(14) 0.0123(16) 0.0064(15) -0.0016(13) 0.0006(12) -0.0011(12)
O3 O2- 0.0072(14) 0.0130(16) 0.0072(15) -0.0007(12) -0.0005(12) -0.0005(12)
O4 O2- 0.0061(12) 0.0073(13) 0.0105(16) 0.0006(10) -0.0025(12) -0.0003(12)
#End of TTdata_429316-ICSD