
#(C) 2019 by FIZ Karlsruhe - Leibniz Institute for Information Infrastructure.  All rights reserved.
data_429319-ICSD
_database_code_ICSD 429319
_audit_creation_date 2016-02-01
_chemical_name_systematic
'Pentasodium tetragadolinium tetrakis(tetraoxosilicate) fluoride'
_chemical_formula_structural 'Na5 Gd4 (Si O4)4 F'
_chemical_formula_sum 'F1 Gd4 Na5 O16 Si4'
_chemical_name_structure_type (NaYSiO4)4NaF
_exptl_crystal_density_diffrn 5.03
_cell_measurement_temperature 294.
_publ_section_title

;
A5 RE4 X (T O4)4 crystal growth and photoluminescence. Fluoride flux synthesis
of sodium and potassium rare earth silicate oxyfluorides
;
loop_
_citation_id
_citation_journal_full
_citation_year
_citation_journal_volume
_citation_page_first
_citation_page_last
_citation_journal_id_ASTM
primary CrystEngComm 2015 17 4654 4661 CRECF4
loop_
_publ_author_name
'Latshaw, Allison M.'
'Wilkins, Branford O.'
'Hughey, Kendall D.'
'Yeon, Jeongho'
'Williams, Derek E.'
'Tran, T. Thao'
'Halasyamanib, P. Shiv'
'Loye, Hans-Conrad zur'
_cell_length_a 11.7244(2)
_cell_length_b 11.7244(2)
_cell_length_c 5.42960(10)
_cell_angle_alpha 90.
_cell_angle_beta 90.
_cell_angle_gamma 90.
_cell_volume 746.36
_cell_formula_units_Z 2
_symmetry_space_group_name_H-M 'I -4'
_symmetry_Int_Tables_number 82
_refine_ls_R_factor_all 0.0131
loop_
_symmetry_equiv_pos_site_id
_symmetry_equiv_pos_as_xyz
1 '-y, x, -z'
2 'y, -x, -z'
3 '-x, -y, z'
4 'x, y, z'
5 '-y+1/2, x+1/2, -z+1/2'
6 'y+1/2, -x+1/2, -z+1/2'
7 '-x+1/2, -y+1/2, z+1/2'
8 'x+1/2, y+1/2, z+1/2'
loop_
_atom_type_symbol
_atom_type_oxidation_number
Gd3+ 3
Si4+ 4
Na1+ 1
F1- -1
O2- -2
loop_
_atom_site_label
_atom_site_type_symbol
_atom_site_symmetry_multiplicity
_atom_site_Wyckoff_symbol
_atom_site_fract_x
_atom_site_fract_y
_atom_site_fract_z
_atom_site_B_iso_or_equiv
_atom_site_occupancy
_atom_site_attached_hydrogens
Gd1 Gd3+ 8 g 0.816601(15) 0.116038(14) 0.02155(3) 0.00764(6) 1 0
Si1 Si4+ 8 g 0.60293(9) 0.25334(8) -0.0099(2) 0.0069(2) 1 0
Na1 Na1+ 8 g 0.39516(14) 0.08951(14) 0.0077(4) 0.0183(4) 1 0
Na2 Na1+ 2 b 0.5 0.5 0. 0.0231(8) 1 0
F1 F1- 2 a 0. 0. 0. 0.0147(11) 1 0
O1 O2- 8 g 0.6083(2) 0.1145(2) 0.0135(6) 0.0116(6) 1 0
O2 O2- 8 g 0.5480(3) 0.3114(3) 0.2336(6) 0.0122(6) 1 0
O3 O2- 8 g 0.5352(3) 0.2933(3) -0.2545(6) 0.0115(6) 1 0
O4 O2- 8 g 0.7339(2) 0.2971(2) -0.0595(6) 0.0100(5) 1 0
loop_
_atom_site_aniso_label
_atom_site_aniso_type_symbol
_atom_site_aniso_U_11
_atom_site_aniso_U_22
_atom_site_aniso_U_33
_atom_site_aniso_U_12
_atom_site_aniso_U_13
_atom_site_aniso_U_23
Gd1 Gd3+ 0.00748(9) 0.00696(9) 0.00849(9) -0.00030(6) 0.00005(7) -0.00013(7)
Si1 Si4+ 0.0072(4) 0.0083(4) 0.0054(5) -0.0005(3) -0.0006(5) 0.0005(4)
Na1 Na1+ 0.0149(8) 0.0139(7) 0.0260(10) 0.0015(6) -0.0012(8) 0.0018(9)
Na2 Na1+ 0.0203(10) 0.0203(10) 0.029(2) 0. 0. 0.
F1 F1- 0.0129(13) 0.0129(13) 0.018(3) 0. 0. 0.
O1 O2- 0.0098(12) 0.0106(12) 0.0145(16) -0.0006(10) -0.0036(13) 0.0012(13)
O2 O2- 0.0115(16) 0.0155(16) 0.0096(14) 0.0007(13) 0.0000(12) -0.0024(12)
O3 O2- 0.0066(15) 0.0182(17) 0.0099(15) 0.0005(12) -0.0032(11) 0.0026(12)
O4 O2- 0.0085(12) 0.0096(12) 0.0117(14) 0.0011(10) 0.0013(11) 0.0010(11)
#End of TTdata_429319-ICSD