
#(C) 2019 by FIZ Karlsruhe - Leibniz Institute for Information Infrastructure.  All rights reserved.
data_429361-ICSD
_database_code_ICSD 429361
_audit_creation_date 2016-08-01
_chemical_name_systematic 'Magnesium sodium uranium(IV) fluoride'
_chemical_formula_structural 'Mg1.43 Na3.13 U6 F30'
_chemical_formula_sum 'F30 Mg1.43 Na3.13 U6'
_exptl_crystal_density_diffrn 6.38
_cell_measurement_temperature 100.
_publ_section_title

;
Mild hydrothermal crystal growth of new uranium(IV) fluorides, Na3.13 Mg1.43
U6 F30 and Na2.50 Mn1.75 U6 F30: Structures, optical and magnetic properties
;
loop_
_citation_id
_citation_journal_full
_citation_year
_citation_journal_volume
_citation_page_first
_citation_page_last
_citation_journal_id_ASTM
primary 'Journal of Solid State Chemistry' 2016 236 83 88 JSSCBI
loop_
_publ_author_name
'Yeon, Jeongho'
'Smith, Mark D.'
'Tapp, Joshua'
'Moeller, Angela'
'zur Loye, Hans-Conrad'
_cell_length_a 9.8594(3)
_cell_length_b 9.8594(3)
_cell_length_c 13.0211(8)
_cell_angle_alpha 90
_cell_angle_beta 90
_cell_angle_gamma 120
_cell_volume 1096.17
_cell_formula_units_Z 2
_symmetry_space_group_name_H-M 'P -3 c 1'
_symmetry_Int_Tables_number 165
_refine_ls_R_factor_all 0.0256
loop_
_symmetry_equiv_pos_site_id
_symmetry_equiv_pos_as_xyz
1 'x-y, -y, -z+1/2'
2 '-x, -x+y, -z+1/2'
3 'y, x, -z+1/2'
4 'x-y, x, -z'
5 'y, -x+y, -z'
6 '-x, -y, -z'
7 '-x+y, y, z+1/2'
8 'x, x-y, z+1/2'
9 '-y, -x, z+1/2'
10 '-x+y, -x, z'
11 '-y, x-y, z'
12 'x, y, z'
loop_
_atom_type_symbol
_atom_type_oxidation_number
U4+ 4
Mg2+ 2
Na1+ 1
Mg2+ 2
Na1+ 1
F1- -1
loop_
_atom_site_label
_atom_site_type_symbol
_atom_site_symmetry_multiplicity
_atom_site_Wyckoff_symbol
_atom_site_fract_x
_atom_site_fract_y
_atom_site_fract_z
_atom_site_B_iso_or_equiv
_atom_site_occupancy
_atom_site_attached_hydrogens
U1 U4+ 12 g 0.39740(2) 0.32101(2) 0.39786(2) 0.00731(6) 1 0
Mg1 Mg2+ 2 a 0. 0. 0.25 0.0074(6) 1 0
Na1 Na1+ 4 d 0.3333 0.6667 0.3377(2) 0.0051(5) 0.7829 0
Mg2 Mg2+ 4 d 0.3333 0.6667 0.3377(2) 0.0051(5) 0.2171 0
Na2 Na1+ 2 b 0. 0. 0.5 0.0161(9) 1 0
Na3 Na1+ 12 g 0.038(3) 0.339(4) 0.284(2) 0.025 0.094(8) 0
F1 F1- 12 g 0.3054(3) 0.4379(3) 0.2841(2) 0.0112(5) 1 0
F2 F1- 12 g 0.1909(3) 0.3104(3) 0.4818(2) 0.0109(5) 1 0
F3 F1- 12 g 0.5339(3) 0.4138(3) 0.5514(2) 0.0117(5) 1 0
F4 F1- 12 g 0.1845(3) 0.1068(3) 0.3397(2) 0.0121(5) 1 0
F5 F1- 12 g 0.5124(4) 0.1699(3) 0.3609(2) 0.0133(5) 1 0
loop_
_atom_site_aniso_label
_atom_site_aniso_type_symbol
_atom_site_aniso_U_11
_atom_site_aniso_U_22
_atom_site_aniso_U_33
_atom_site_aniso_U_12
_atom_site_aniso_U_13
_atom_site_aniso_U_23
U1 U4+ 0.00796(8) 0.00897(8) 0.00489(7) 0.00414(6) -0.00010(4) 0.00010(4)
Mg1 Mg2+ 0.0078(9) 0.0078(9) 0.0065(14) 0.0039(5) 0. 0.
Na1 Na1+ 0.0027(7) 0.0027(7) 0.0098(12) 0.0013(3) 0. 0.
Mg2 Mg2+ 0.0027(7) 0.0027(7) 0.0098(12) 0.0013(3) 0. 0.
Na2 Na1+ 0.0199(15) 0.0199(15) 0.0086(19) 0.0099(7) 0. 0.
F1 F1- 0.0168(13) 0.0130(12) 0.0068(10) 0.0096(11) -0.0018(9) -0.0008(9)
F2 F1- 0.0100(11) 0.0141(12) 0.0093(11) 0.0066(10) 0.0026(9) 0.0012(9)
F3 F1- 0.0135(12) 0.0110(12) 0.0105(11) 0.0061(10) -0.0023(10) -0.0001(9)
F4 F1- 0.0113(12) 0.0121(12) 0.0111(11) 0.0045(10) -0.0018(9) 0.0004(10)
F5 F1- 0.0152(13) 0.0149(13) 0.0129(12) 0.0100(11) 0.0016(10) 0.0019(10)
#End of TTdata_429361-ICSD