
#(C) 2019 by FIZ Karlsruhe - Leibniz Institute for Information Infrastructure.  All rights reserved.
data_429343-ICSD
_database_code_ICSD 429343
_audit_creation_date 2016-02-01
_chemical_name_systematic 'Calcium phosphate silicate (7/3.9/0.1)'
_chemical_formula_structural '(Ca5.1 Na1.9) (P O4)3.9 (Si O4)0.1'
_chemical_formula_sum 'Ca5.1 Na1.9 O16 P3.9 Si0.1'
_chemical_name_mineral Nagelschmidtite
_exptl_crystal_density_diffrn 2.95
_cell_measurement_temperature 296.
_publ_section_title

;
Structural and crystal chemical investigation of intermediate phases in the
system Ca2SiO4-Ca3(PO4)2-CaNaPO4
;
loop_
_citation_id
_citation_journal_full
_citation_year
_citation_journal_volume
_citation_page_first
_citation_page_last
_citation_journal_id_ASTM
primary 'Journal of the American Ceramic Society' 2015 98 3956 3965 JACTAW
loop_
_publ_author_name
'Widmer, Remo'
'Gfeller, Frank'
'Armbruster, Thomas'
_cell_length_a 10.63360(10)
_cell_length_b 10.63360(10)
_cell_length_c 21.6422(3)
_cell_angle_alpha 90
_cell_angle_beta 90
_cell_angle_gamma 120
_cell_volume 2119.3
_cell_formula_units_Z 6
_symmetry_space_group_name_H-M 'P 61'
_symmetry_Int_Tables_number 169
_refine_ls_R_factor_all 0.0443
loop_
_symmetry_equiv_pos_site_id
_symmetry_equiv_pos_as_xyz
1 'x-y, x, z+1/6'
2 'y, -x+y, z+5/6'
3 '-x, -y, z+1/2'
4 '-x+y, -x, z+2/3'
5 '-y, x-y, z+1/3'
6 'x, y, z'
loop_
_atom_type_symbol
_atom_type_oxidation_number
Ca2+ 2
Na1+ 1
Ca2+ 2
Na1+ 1
Ca2+ 2
Na1+ 1
Ca2+ 2
Na1+ 1
P5+ 5
O2- -2
Si4+ 4
loop_
_atom_site_label
_atom_site_type_symbol
_atom_site_symmetry_multiplicity
_atom_site_Wyckoff_symbol
_atom_site_fract_x
_atom_site_fract_y
_atom_site_fract_z
_atom_site_B_iso_or_equiv
_atom_site_occupancy
_atom_site_attached_hydrogens
Ca1 Ca2+ 6 a 0.4367(2) 0.4683(2) 0.85634(12) 0.0265(5) 0.946(17) 0
Na1 Na1+ 6 a 0.4367(2) 0.4683(2) 0.85634(12) 0.0265(5) 0.054(17) 0
Ca2 Ca2+ 6 a 0.8556(2) 0.6711(3) 1.10626(16) 0.0343(7) 0.699(19) 0
Na2 Na1+ 6 a 0.8556(2) 0.6711(3) 1.10626(16) 0.0343(7) 0.301(19) 0
Ca3 Ca2+ 6 a 0.1808(2) 0.8275(2) 0.96739(13) 0.0181(7) 0.474(19) 0
Na3 Na1+ 6 a 0.1808(2) 0.8275(2) 0.96739(13) 0.0181(7) 0.526(19) 0
Ca4 Ca2+ 6 a 0.0485(2) 0.0169(3) 0.85667(13) 0.0389(5) 1 0
Ca5 Ca2+ 6 a 0.53690(19) 0.03440(18) 1.02382(12) 0.0256(4) 1 0
Ca6 Ca2+ 6 a 0.49841(16) 0.46621(14) 1.02694(12) 0.0134(3) 1 0
Na4 Na1+ 6 a 0.6655(4) 0.3209(5) 0.9148(2) 0.0390(8) 1 0
P1 P5+ 6 a 0.8540(2) 0.6559(3) 0.94997(13) 0.0178(4) 0.975 0
P2 P5+ 6 a 0.6822(2) 0.3210(2) 1.09909(12) 0.0127(3) 0.975 0
P3 P5+ 6 a 0.34955(18) 0.1715(2) 0.96076(12) 0.0113(3) 0.975 0
P4 P5+ 6 a 0.8431(2) 0.1526(2) 0.92815(13) 0.0166(4) 0.975 0
O1 O2- 6 a 0.5714(6) 0.1670(6) 0.7960(3) 0.0292(13) 1 0
O2 O2- 6 a 0.4154(6) -0.1973(6) 0.9407(3) 0.0251(13) 1 0
O3 O2- 6 a 0.5827(6) 0.1715(5) 1.1266(3) 0.0206(10) 1 0
O4 O2- 6 a 0.3020(6) -0.4027(7) 0.8636(3) 0.0269(11) 1 0
O5 O2- 6 a 0.4393(6) 0.3167(6) 0.9293(3) 0.0225(11) 1 0
O6 O2- 6 a 0.3594(7) 0.2012(6) 1.0290(2) 0.0308(14) 1 0
O7 O2- 6 a 0.9351(7) 0.6455(8) 1.0059(3) 0.0402(16) 1 0
O8 O2- 6 a 0.6746(4) 0.0620(6) 0.9370(2) 0.0280(14) 1 0
O9 O2- 6 a 0.6978(6) 0.6059(7) 0.9663(3) 0.0301(13) 1 0
O10 O2- 6 a 0.4173(7) 0.0771(7) 0.9457(3) 0.0235(11) 1 0
O11 O2- 6 a 0.1914(7) 0.0918(8) 0.9426(3) 0.0306(15) 1 0
O12 O2- 6 a 0.8616(7) 0.5628(10) 0.8990(3) 0.051(2) 1 0
O13 O2- 6 a 0.9276(10) 0.8125(10) 0.9290(5) 0.081(3) 1 0
O14 O2- 6 a 0.8922(8) 0.2667(9) 0.8787(4) 0.050(3) 0.513(7) 0
O15 O2- 6 a 0.9184(7) 0.2176(11) 0.9934(3) 0.049(3) 0.513(7) 0
O16 O2- 6 a 0.8956(8) 0.0342(10) 0.9099(5) 0.044(2) 0.513(7) 0
O17 O2- 6 a 0.8813(9) 0.3216(6) 0.9130(5) 0.050(3) 0.487(7) 0
O18 O2- 6 a 0.9268(7) 0.1580(12) 0.9868(4) 0.049(3) 0.487(7) 0
O19 O2- 6 a 0.8919(8) 0.1006(12) 0.8701(4) 0.044(2) 0.487(7) 0
Si1 Si4+ 6 a 0.8540(2) 0.6559(3) 0.94997(13) 0.0178(4) 0.025 0
Si2 Si4+ 6 a 0.6822(2) 0.3210(2) 1.09909(12) 0.0127(3) 0.025 0
Si3 Si4+ 6 a 0.34955(18) 0.1715(2) 0.96076(12) 0.0113(3) 0.025 0
Si4 Si4+ 6 a 0.8431(2) 0.1526(2) 0.92815(13) 0.0166(4) 0.025 0
loop_
_atom_site_aniso_label
_atom_site_aniso_type_symbol
_atom_site_aniso_U_11
_atom_site_aniso_U_22
_atom_site_aniso_U_33
_atom_site_aniso_U_12
_atom_site_aniso_U_13
_atom_site_aniso_U_23
Ca1 Ca2+ 0.0384(10) 0.0352(11) 0.0229(8) 0.0311(9) 0.0159(8) 0.0133(7)
Na1 Na1+ 0.0384(10) 0.0352(11) 0.0229(8) 0.0311(9) 0.0159(8) 0.0133(7)
Ca2 Ca2+ 0.0201(10) 0.0305(14) 0.0566(14) 0.0159(10) -0.0017(9) -0.0039(9)
Na2 Na1+ 0.0201(10) 0.0305(14) 0.0566(14) 0.0159(10) -0.0017(9) -0.0039(9)
Ca3 Ca2+ 0.0191(11) 0.0148(10) 0.0141(10) 0.0039(8) 0.0020(7) -0.0011(7)
Na3 Na1+ 0.0191(11) 0.0148(10) 0.0141(10) 0.0039(8) 0.0020(7) -0.0011(7)
Ca4 Ca2+ 0.0450(12) 0.0567(15) 0.0197(7) 0.0291(12) -0.0039(8) -0.0055(8)
Ca5 Ca2+ 0.0282(8) 0.0223(8) 0.0157(6) 0.0046(7) 0.0012(6) 0.0036(6)
Ca6 Ca2+ 0.0128(6) 0.0138(6) 0.0106(5) 0.0045(5) 0.0013(5) 0.0022(5)
Na4 Na1+ 0.0238(17) 0.057(3) 0.0443(19) 0.0259(19) 0.0037(16) 0.0012(18)
P1 P5+ 0.0096(8) 0.0249(11) 0.0181(8) 0.0080(7) 0.0044(6) 0.0053(7)
P2 P5+ 0.0110(8) 0.0113(8) 0.0154(7) 0.0053(6) -0.0012(6) 0.0004(6)
P3 P5+ 0.0124(8) 0.0110(7) 0.0121(6) 0.0069(6) 0.0004(6) -0.0011(6)
P4 P5+ 0.0095(8) 0.0140(9) 0.0263(9) 0.0058(6) -0.0013(7) -0.0035(7)
O1 O2- 0.026(3) 0.011(2) 0.041(3) 0.002(2) 0.010(3) 0.016(2)
O2 O2- 0.021(3) 0.015(3) 0.033(3) 0.004(2) -0.006(2) 0.007(2)
O3 O2- 0.018(2) 0.015(2) 0.026(2) 0.006(2) 0.003(2) 0.010(2)
O4 O2- 0.034(3) 0.040(3) 0.021(2) 0.029(3) 0.000(2) -0.005(2)
O5 O2- 0.022(3) 0.020(2) 0.024(2) 0.009(2) 0.000(2) 0.006(2)
O6 O2- 0.046(4) 0.022(3) 0.013(2) 0.007(3) 0.007(2) -0.0042(19)
O7 O2- 0.030(3) 0.061(5) 0.036(3) 0.027(3) -0.017(3) -0.002(3)
O8 O2- 0.010(2) 0.031(3) 0.036(3) 0.005(2) -0.005(2) -0.014(3)
O9 O2- 0.013(2) 0.030(3) 0.052(3) 0.014(2) 0.023(2) 0.026(3)
O10 O2- 0.026(3) 0.026(3) 0.031(3) 0.022(2) -0.003(2) -0.009(2)
O11 O2- 0.017(3) 0.039(4) 0.040(3) 0.016(3) -0.011(2) -0.018(3)
O12 O2- 0.029(4) 0.093(6) 0.030(3) 0.029(4) 0.003(3) -0.020(4)
O13 O2- 0.049(6) 0.047(5) 0.129(8) 0.011(5) 0.032(6) 0.045(6)
Si1 Si4+ 0.0096(8) 0.0249(11) 0.0181(8) 0.0080(7) 0.0044(6) 0.0053(7)
Si2 Si4+ 0.0110(8) 0.0113(8) 0.0154(7) 0.0053(6) -0.0012(6) 0.0004(6)
Si3 Si4+ 0.0124(8) 0.0110(7) 0.0121(6) 0.0069(6) 0.0004(6) -0.0011(6)
Si4 Si4+ 0.0095(8) 0.0140(9) 0.0263(9) 0.0058(6) -0.0013(7) -0.0035(7)
#End of TTdata_429343-ICSD