
#(C) 2019 by FIZ Karlsruhe - Leibniz Institute for Information Infrastructure.  All rights reserved.
data_429318-ICSD
_database_code_ICSD 429318
_audit_creation_date 2016-02-01
_chemical_name_systematic
'Pentasodium tetradysprosium tetrakis(tetraoxosilicate) fluoride'
_chemical_formula_structural 'Na5 Dy4 (Si O4)4 F'
_chemical_formula_sum 'Dy4 F1 Na5 O16 Si4'
_chemical_name_structure_type (NaYSiO4)4NaF
_exptl_crystal_density_diffrn 5.24
_cell_measurement_temperature 294.
_publ_section_title

;
A5 RE4 X (T O4)4 crystal growth and photoluminescence. Fluoride flux synthesis
of sodium and potassium rare earth silicate oxyfluorides
;
loop_
_citation_id
_citation_journal_full
_citation_year
_citation_journal_volume
_citation_page_first
_citation_page_last
_citation_journal_id_ASTM
primary CrystEngComm 2015 17 4654 4661 CRECF4
loop_
_publ_author_name
'Latshaw, Allison M.'
'Wilkins, Branford O.'
'Hughey, Kendall D.'
'Yeon, Jeongho'
'Williams, Derek E.'
'Tran, T. Thao'
'Halasyamanib, P. Shiv'
'Loye, Hans-Conrad zur'
_cell_length_a 11.6243(2)
_cell_length_b 11.6243(2)
_cell_length_c 5.40420(10)
_cell_angle_alpha 90.
_cell_angle_beta 90.
_cell_angle_gamma 90.
_cell_volume 730.24
_cell_formula_units_Z 2
_symmetry_space_group_name_H-M 'I -4'
_symmetry_Int_Tables_number 82
_refine_ls_R_factor_all 0.0138
loop_
_symmetry_equiv_pos_site_id
_symmetry_equiv_pos_as_xyz
1 '-y, x, -z'
2 'y, -x, -z'
3 '-x, -y, z'
4 'x, y, z'
5 '-y+1/2, x+1/2, -z+1/2'
6 'y+1/2, -x+1/2, -z+1/2'
7 '-x+1/2, -y+1/2, z+1/2'
8 'x+1/2, y+1/2, z+1/2'
loop_
_atom_type_symbol
_atom_type_oxidation_number
Dy3+ 3
Si4+ 4
Na1+ 1
F1- -1
O2- -2
loop_
_atom_site_label
_atom_site_type_symbol
_atom_site_symmetry_multiplicity
_atom_site_Wyckoff_symbol
_atom_site_fract_x
_atom_site_fract_y
_atom_site_fract_z
_atom_site_B_iso_or_equiv
_atom_site_occupancy
_atom_site_attached_hydrogens
Dy1 Dy3+ 8 g 0.817065(15) 0.115493(14) 0.02243(4) 0.00705(9) 1 0
Si1 Si4+ 8 g 0.60328(9) 0.25328(9) -0.0105(3) 0.0065(2) 1 0
Na1 Na1+ 8 g 0.39530(15) 0.08925(15) 0.0069(4) 0.0177(4) 1 0
Na2 Na1+ 2 b 0.5 0.5 0. 0.0198(8) 1 0
F1 F1- 2 a 0. 0. 0. 0.0139(12) 1 0
O1 O2- 8 g 0.6086(3) 0.1136(2) 0.0125(6) 0.0114(6) 1 0
O2 O2- 8 g 0.5487(3) 0.3123(3) 0.2339(6) 0.0102(6) 1 0
O3 O2- 8 g 0.5347(3) 0.2940(3) -0.2562(6) 0.0109(6) 1 0
O4 O2- 8 g 0.7346(3) 0.2967(3) -0.0643(6) 0.0108(6) 1 0
loop_
_atom_site_aniso_label
_atom_site_aniso_type_symbol
_atom_site_aniso_U_11
_atom_site_aniso_U_22
_atom_site_aniso_U_33
_atom_site_aniso_U_12
_atom_site_aniso_U_13
_atom_site_aniso_U_23
Dy1 Dy3+ 0.00668(11) 0.00613(11) 0.00835(11) -0.00026(6) -0.00003(7) -0.00018(7)
Si1 Si4+ 0.0064(4) 0.0064(4) 0.0066(6) -0.0004(3) 0.0005(5) 0.0001(5)
Na1 Na1+ 0.0156(8) 0.0117(8) 0.0259(11) 0.0011(6) -0.0013(9) -0.0013(9)
Na2 Na1+ 0.0176(10) 0.0176(10) 0.024(2) 0. 0. 0.
F1 F1- 0.0093(13) 0.0093(13) 0.023(3) 0. 0. 0.
O1 O2- 0.0138(14) 0.0077(12) 0.0128(17) -0.0018(11) -0.0011(14) -0.0020(13)
O2 O2- 0.0084(15) 0.0137(17) 0.0084(15) 0.0029(13) 0.0004(12) -0.0016(12)
O3 O2- 0.0083(16) 0.0167(17) 0.0077(15) 0.0016(12) -0.0009(12) 0.0015(12)
O4 O2- 0.0104(13) 0.0105(13) 0.0115(15) 0.0029(11) 0.0009(13) 0.0003(12)
#End of TTdata_429318-ICSD