
#(C) 2019 by FIZ Karlsruhe - Leibniz Institute for Information Infrastructure.  All rights reserved.
data_429611-ICSD
_database_code_ICSD 429611
_audit_creation_date 2016-02-01
_chemical_name_systematic 'Tetrasodium heptacadmium hexaarsenate(III)'
_chemical_formula_structural 'Na4 Cd7 (As O3)6'
_chemical_formula_sum 'As6 Cd7 Na4 O18'
_exptl_crystal_density_diffrn 5.32
_cell_measurement_temperature 293.
_publ_section_title

;
Crystal chemistry of the M11+,2+-M22+,3+-(H)-arsenites: the first cadmium(II)
arsenite, Na4 Cd7 (As O3)6
;
loop_
_citation_id
_citation_journal_full
_citation_year
_citation_journal_volume
_citation_page_first
_citation_page_last
_citation_journal_id_ASTM
primary 'Zeitschrift fuer Anorganische und Allgemeine Chemie' 2015 641 1863 1868
ZAACAB
loop_
_publ_author_name
'Dordevic, Tamara'
_cell_length_a 9.5229(13)
_cell_length_b 9.5229(13)
_cell_length_c 19.258(4)
_cell_angle_alpha 90
_cell_angle_beta 90
_cell_angle_gamma 120
_cell_volume 1512.44
_cell_formula_units_Z 3
_symmetry_space_group_name_H-M 'R -3 H'
_symmetry_Int_Tables_number 148
_refine_ls_R_factor_all 0.0189
loop_
_symmetry_equiv_pos_site_id
_symmetry_equiv_pos_as_xyz
1 'x-y, x, -z'
2 'y, -x+y, -z'
3 '-x, -y, -z'
4 '-x+y, -x, z'
5 '-y, x-y, z'
6 'x, y, z'
7 'x-y+2/3, x+1/3, -z+1/3'
8 'y+2/3, -x+y+1/3, -z+1/3'
9 '-x+2/3, -y+1/3, -z+1/3'
10 '-x+y+2/3, -x+1/3, z+1/3'
11 '-y+2/3, x-y+1/3, z+1/3'
12 'x+2/3, y+1/3, z+1/3'
13 'x-y+1/3, x+2/3, -z+2/3'
14 'y+1/3, -x+y+2/3, -z+2/3'
15 '-x+1/3, -y+2/3, -z+2/3'
16 '-x+y+1/3, -x+2/3, z+2/3'
17 '-y+1/3, x-y+2/3, z+2/3'
18 'x+1/3, y+2/3, z+2/3'
loop_
_atom_type_symbol
_atom_type_oxidation_number
Cd2+ 2
Na1+ 1
Cd2+ 2
Na1+ 1
As3+ 3
Na1+ 1
O2- -2
loop_
_atom_site_label
_atom_site_type_symbol
_atom_site_symmetry_multiplicity
_atom_site_Wyckoff_symbol
_atom_site_fract_x
_atom_site_fract_y
_atom_site_fract_z
_atom_site_B_iso_or_equiv
_atom_site_occupancy
_atom_site_attached_hydrogens
Cd1 Cd2+ 18 f 0.33692(2) 0.35045(2) 0.38595(2) 0.01321(4) 0.8647(10) 0
Na1 Na1+ 18 f 0.33692(2) 0.35045(2) 0.38595(2) 0.01321(4) 0.1353(10) 0
Cd2 Cd2+ 6 c 0.3333 0.6667 0.49271(2) 0.00978(5) 0.8981(13) 0
Na2 Na1+ 6 c 0.3333 0.6667 0.49271(2) 0.00978(5) 0.1019(13) 0
As1 As3+ 18 f 0.68444(2) 0.67233(2) 0.44909(2) 0.00869(4) 1 0
Na3 Na1+ 3 a 0.6667 0.3333 0.3333 0.0253(4) 1 0
Na4 Na1+ 6 c 0. 0. 0.33965(5) 0.01221(18) 1 0
O1 O2- 18 f 0.54674(12) 0.72437(12) 0.41196(5) 0.01477(19) 1 0
O2 O2- 18 f 0.58379(12) 0.46364(12) 0.43088(5) 0.01504(19) 1 0
O3 O2- 18 f 0.82837(12) 0.74027(13) 0.38128(5) 0.0155(2) 1 0
loop_
_atom_site_aniso_label
_atom_site_aniso_type_symbol
_atom_site_aniso_U_11
_atom_site_aniso_U_22
_atom_site_aniso_U_33
_atom_site_aniso_U_12
_atom_site_aniso_U_13
_atom_site_aniso_U_23
Cd1 Cd2+ 0.01180(6) 0.01160(6) 0.01788(6) 0.00707(4) 0.00139(4) 0.00201(4)
Na1 Na1+ 0.01180(6) 0.01160(6) 0.01788(6) 0.00707(4) 0.00139(4) 0.00201(4)
Cd2 Cd2+ 0.00953(6) 0.00953(6) 0.01029(7) 0.00476(3) 0. 0.
Na2 Na1+ 0.00953(6) 0.00953(6) 0.01029(7) 0.00476(3) 0. 0.
As1 As3+ 0.00876(6) 0.00980(7) 0.00858(6) 0.00544(5) 0.00018(4) 0.00073(4)
Na3 Na1+ 0.0260(6) 0.0260(6) 0.0238(8) 0.0130(3) 0. 0.
Na4 Na1+ 0.0107(3) 0.0107(3) 0.0153(4) 0.00534(13) 0. 0.
O1 O2- 0.0130(4) 0.0134(5) 0.0199(5) 0.0080(4) -0.0041(4) 0.0004(4)
O2 O2- 0.0135(4) 0.0100(4) 0.0219(5) 0.0061(4) -0.0021(4) 0.0010(4)
O3 O2- 0.0132(4) 0.0178(5) 0.0155(4) 0.0076(4) 0.0048(3) 0.0052(4)
#End of TTdata_429611-ICSD