
#(C) 2019 by FIZ Karlsruhe - Leibniz Institute for Information Infrastructure.  All rights reserved.
data_429829-ICSD
_database_code_ICSD 429829
_audit_creation_date 2016-08-01
_chemical_name_systematic 'Strontium sodium cobalt(II) vanadate(V)'
_chemical_formula_structural 'Sr Na2 Co (V O4)2'
_chemical_formula_sum 'Co1 Na2 O8 Sr1 V2'
_exptl_crystal_density_diffrn 3.89
_cell_measurement_temperature 293.
_publ_section_title

;
Hydrothermal synthesis of single crystals of transition metal vanadates in the
glaserite phase
;
loop_
_citation_id
_citation_journal_full
_citation_year
_citation_journal_volume
_citation_page_first
_citation_page_last
_citation_journal_id_ASTM
primary 'Journal of Solid State Chemistry' 2016 236 61 68 JSSCBI
loop_
_publ_author_name
'Sanjeewa, Liurukara D.'
'McMillen, Colin D.'
'Willett, Daniel'
'Chumanov, George'
'Kolis, Joseph W.'
_cell_length_a 13.677(3)
_cell_length_b 5.5025(11)
_cell_length_c 9.5767(19)
_cell_angle_alpha 90.
_cell_angle_beta 90.01(3)
_cell_angle_gamma 90.
_cell_volume 720.72
_cell_formula_units_Z 4
_symmetry_space_group_name_H-M 'P 1 21/c 1'
_symmetry_Int_Tables_number 14
_refine_ls_R_factor_all 0.0509
loop_
_symmetry_equiv_pos_site_id
_symmetry_equiv_pos_as_xyz
1 'x, -y+1/2, z+1/2'
2 '-x, -y, -z'
3 '-x, y+1/2, -z+1/2'
4 'x, y, z'
loop_
_atom_type_symbol
_atom_type_oxidation_number
Sr2+ 2
Na1+ 1
Co2+ 2
V5+ 5
O2- -2
loop_
_atom_site_label
_atom_site_type_symbol
_atom_site_symmetry_multiplicity
_atom_site_Wyckoff_symbol
_atom_site_fract_x
_atom_site_fract_y
_atom_site_fract_z
_atom_site_B_iso_or_equiv
_atom_site_occupancy
_atom_site_attached_hydrogens
Sr1 Sr2+ 4 e 0.75051(6) 0.05290(15) 0.03704(8) 0.0198(3) 1 0
Na1 Na1+ 4 e 0.9170(3) -0.0183(7) -0.3195(4) 0.0259(9) 1 0
Na2 Na1+ 4 e 0.5830(3) 0.0188(7) 0.3498(4) 0.0258(9) 1 0
Co1 Co2+ 2 b 0.5 0. 0. 0.0154(4) 1 0
Co2 Co2+ 2 a 1. 0. 0. 0.0157(4) 1 0
V1 V5+ 4 e 0.63570(11) -0.0310(3) -0.31701(14) 0.0147(4) 1 0
V2 V5+ 4 e 0.86481(11) -0.0169(3) 0.34985(14) 0.0143(4) 1 0
O1 O2- 4 e 0.6157(5) -0.0075(12) -0.1399(6) 0.0259(15) 1 0
O2 O2- 4 e 0.5776(5) 0.1957(12) -0.4049(6) 0.0234(14) 1 0
O3 O2- 4 e 0.8826(5) -0.3034(12) 0.4192(6) 0.0249(14) 1 0
O4 O2- 4 e 0.9152(5) 0.1963(11) 0.4572(6) 0.0224(14) 1 0
O5 O2- 4 e 0.9237(5) -0.0059(12) 0.1933(6) 0.0250(15) 1 0
O6 O2- 4 e 0.5862(5) -0.3023(12) -0.3723(6) 0.0258(15) 1 0
O7 O2- 4 e 0.7529(5) -0.0223(13) -0.3590(7) 0.0293(16) 1 0
O8 O2- 4 e 0.7485(5) 0.0517(12) 0.3179(7) 0.0251(14) 1 0
loop_
_atom_site_aniso_label
_atom_site_aniso_type_symbol
_atom_site_aniso_U_11
_atom_site_aniso_U_22
_atom_site_aniso_U_33
_atom_site_aniso_U_12
_atom_site_aniso_U_13
_atom_site_aniso_U_23
Sr1 Sr2+ 0.0195(5) 0.0218(5) 0.0181(5) 0.0004(3) -0.0008(3) -0.0023(3)
Na1 Na1+ 0.022(2) 0.031(2) 0.0246(19) 0.0020(15) -0.0031(15) 0.0096(15)
Na2 Na1+ 0.023(2) 0.031(2) 0.0234(18) -0.0023(15) 0.0035(15) -0.0093(15)
Co1 Co2+ 0.0173(9) 0.0147(8) 0.0143(8) 0.0005(6) -0.0017(6) 0.0008(6)
Co2 Co2+ 0.0188(9) 0.0144(8) 0.0139(8) 0.0009(6) 0.0000(6) 0.0001(6)
V1 V5+ 0.0163(8) 0.0136(7) 0.0141(7) -0.0007(5) -0.0008(6) -0.0017(5)
V2 V5+ 0.0163(8) 0.0124(7) 0.0142(7) -0.0005(5) -0.0014(6) -0.0020(5)
O1 O2- 0.023(4) 0.037(4) 0.017(3) 0.000(3) -0.001(3) -0.003(3)
O2 O2- 0.026(4) 0.023(3) 0.022(3) -0.001(3) -0.001(2) 0.004(3)
O3 O2- 0.034(4) 0.020(3) 0.020(3) -0.002(3) 0.004(3) 0.004(3)
O4 O2- 0.032(4) 0.015(3) 0.021(3) 0.000(3) 0.000(3) 0.002(2)
O5 O2- 0.034(4) 0.026(4) 0.014(3) -0.001(3) 0.000(3) 0.000(2)
O6 O2- 0.035(4) 0.018(3) 0.024(3) -0.001(3) 0.000(3) -0.004(3)
O7 O2- 0.023(4) 0.040(4) 0.025(3) -0.001(3) -0.005(3) 0.004(3)
O8 O2- 0.022(4) 0.028(4) 0.026(3) -0.003(3) 0.001(3) 0.003(3)
#End of TTdata_429829-ICSD