
#(C) 2019 by FIZ Karlsruhe - Leibniz Institute for Information Infrastructure.  All rights reserved.
data_430116-ICSD
_database_code_ICSD 430116
_audit_creation_date 2016-08-01
_chemical_name_systematic 'Sodium tribarium trineodymium icosaoxo-hexasilicate'
_chemical_formula_structural 'Na Ba3 Nd3 Si6 O20'
_chemical_formula_sum 'Ba3 Na1 Nd3 O20 Si6'
_chemical_name_structure_type NaBa3Nd3(Si2O7)(Si4O13)
_exptl_crystal_density_diffrn 4.5
_cell_measurement_temperature 293.
_publ_section_title

;
Hydrothermal synthesis, structure, and property characterization of rare earth
silicate compounds: Na Ba3 Ln3 Si6 O20 (Ln=Y, Nd, Sm, Eu, Gd)
;
loop_
_citation_id
_citation_journal_full
_citation_year
_citation_journal_volume
_citation_page_first
_citation_page_last
_citation_journal_id_ASTM
primary 'Solid State Sciences' 2015 48 256 262 SSSCFJ
loop_
_publ_author_name
'Sanjeewa, Liurukara D.'
'Fulle, Kyle'
'McMillen, Colin D.'
'Wang, Fenglin'
'Liu, Yufei'
'He, Jian'
'Anker, Jeffrey N.'
'Kolis, Joseph W.'
_cell_length_a 14.831(3)
_cell_length_b 24.163(5)
_cell_length_c 5.5901(11)
_cell_angle_alpha 90.
_cell_angle_beta 90.
_cell_angle_gamma 90.
_cell_volume 2003.27
_cell_formula_units_Z 4
_symmetry_space_group_name_H-M 'A m a 2'
_symmetry_Int_Tables_number 40
_refine_ls_R_factor_all 0.0125
loop_
_symmetry_equiv_pos_site_id
_symmetry_equiv_pos_as_xyz
1 'x+1/2, -y, z'
2 '-x+1/2, y, z'
3 '-x, -y, z'
4 'x, y, z'
5 'x+1/2, -y+1/2, z+1/2'
6 '-x+1/2, y+1/2, z+1/2'
7 '-x, -y+1/2, z+1/2'
8 'x, y+1/2, z+1/2'
loop_
_atom_type_symbol
_atom_type_oxidation_number
Ba2+ 2
Na1+ 1
Nd3+ 3
Si4+ 4
O2- -2
loop_
_atom_site_label
_atom_site_type_symbol
_atom_site_symmetry_multiplicity
_atom_site_Wyckoff_symbol
_atom_site_fract_x
_atom_site_fract_y
_atom_site_fract_z
_atom_site_B_iso_or_equiv
_atom_site_occupancy
_atom_site_attached_hydrogens
Ba1 Ba2+ 4 b 0.75 0.417693(15) -0.43196(7) 0.00651(10) 1 0
Ba2 Ba2+ 8 c 0.386296(18) 0.243294(11) 0.06915(5) 0.00735(8) 1 0
Na1 Na1+ 4 b 0.25 0.38852(12) 0.1456(6) 0.0217(7) 1 0
Nd1 Nd3+ 8 c 0.531524(15) 0.388557(9) 0.00028(5) 0.00449(8) 1 0
Nd2 Nd3+ 4 a 0.5 0.5 0.49573(7) 0.00472(9) 1 0
Si1 Si4+ 4 b 0.75 0.31843(7) 0.0354(3) 0.0045(4) 1 0
Si2 Si4+ 8 c 0.44214(8) 0.34723(5) -0.4631(2) 0.0046(3) 1 0
Si3 Si4+ 8 c 0.35859(8) 0.50052(5) 0.0573(2) 0.0043(2) 1 0
Si4 Si4+ 4 b 0.25 0.31036(7) -0.4039(4) 0.0051(3) 1 0
O1 O2- 8 c 0.4679(3) 0.40908(15) -0.3827(6) 0.0118(8) 1 0
O2 O2- 8 c 0.4670(2) 0.30993(14) -0.2325(7) 0.0063(7) 1 0
O3 O2- 4 b 0.25 0.48539(19) 0.0518(10) 0.0139(11) 1 0
O4 O2- 8 c 0.3339(2) 0.34226(15) -0.5294(7) 0.0157(8) 1 0
O5 O2- 4 b 0.75 0.25090(19) -0.0323(10) 0.0131(11) 1 0
O6 O2- 8 c 0.3895(2) 0.52700(15) -0.1958(6) 0.0075(8) 1 0
O7 O2- 8 c 0.4957(3) 0.32526(16) -0.6949(7) 0.0104(7) 1 0
O8 O2- 8 c 0.6626(2) 0.34317(14) -0.1040(7) 0.0107(7) 1 0
O9 O2- 8 c 0.6202(2) 0.45206(15) 0.2574(6) 0.0075(8) 1 0
O10 O2- 4 b 0.75 0.3231(2) 0.3213(9) 0.0118(10) 1 0
O11 O2- 8 c 0.4131(2) 0.44633(15) 0.1395(6) 0.0118(7) 1 0
O12 O2- 4 b 0.25 0.30896(19) -0.1211(9) 0.0088(10) 1 0
loop_
_atom_site_aniso_label
_atom_site_aniso_type_symbol
_atom_site_aniso_U_11
_atom_site_aniso_U_22
_atom_site_aniso_U_33
_atom_site_aniso_U_12
_atom_site_aniso_U_13
_atom_site_aniso_U_23
Ba1 Ba2+ 0.00623(18) 0.00615(18) 0.00715(18) 0. 0. 0.00016(15)
Ba2 Ba2+ 0.00669(13) 0.00641(13) 0.00896(14) 0.00027(10) 0.00044(11) 0.00261(12)
Na1 Na1+ 0.036(2) 0.0088(15) 0.0199(17) 0. 0. 0.0044(12)
Nd1 Nd3+ 0.00496(12) 0.00286(11) 0.00567(12) -0.00001(8) 0.00023(10)
-0.00023(10)
Nd2 Nd3+ 0.00679(16) 0.00197(15) 0.00541(16) 0.00076(11) 0. 0.
Si1 Si4+ 0.0050(7) 0.0022(7) 0.0063(10) 0. 0. -0.0008(7)
Si2 Si4+ 0.0058(5) 0.0037(5) 0.0043(7) -0.0010(4) 0.0004(5) 0.0017(5)
Si3 Si4+ 0.0031(6) 0.0035(5) 0.0063(6) 0.0007(4) 0.0008(5) 0.0001(5)
Si4 Si4+ 0.0049(8) 0.0034(8) 0.0071(8) 0. 0. 0.0002(7)
O1 O2- 0.022(2) 0.0062(16) 0.0073(19) -0.0021(14) -0.0022(15) 0.0008(14)
O2 O2- 0.0060(18) 0.0047(18) 0.0082(18) -0.0024(13) -0.0012(13) 0.0001(13)
O3 O2- 0.009(2) 0.011(2) 0.022(3) 0. 0. -0.004(2)
O4 O2- 0.0119(17) 0.0217(18) 0.0134(18) -0.0060(14) 0.0005(15) 0.0105(16)
O5 O2- 0.0185(18) 0.0083(17) 0.0124(18) 0. 0. 0.0007(15)
O6 O2- 0.0105(18) 0.0060(19) 0.0060(17) -0.0001(14) 0.0015(13) 0.0020(14)
O7 O2- 0.0121(19) 0.0087(18) 0.0104(17) -0.0011(15) 0.0006(14) 0.0028(15)
O8 O2- 0.0064(16) 0.0121(17) 0.0134(16) 0.0017(13) 0.0010(15) 0.0011(15)
O9 O2- 0.0100(18) 0.007(2) 0.0050(16) 0.0004(14) 0.0005(13) 0.0015(13)
O10 O2- 0.022(3) 0.006(2) 0.008(2) 0. 0. -0.0010(19)
O11 O2- 0.0114(17) 0.0130(18) 0.0111(18) 0.0051(15) 0.0017(14) 0.0014(14)
O12 O2- 0.012(2) 0.004(2) 0.009(2) 0. 0. -0.0012(19)
#End of TTdata_430116-ICSD