
#(C) 2019 by FIZ Karlsruhe - Leibniz Institute for Information Infrastructure.  All rights reserved.
data_430192-ICSD
_database_code_ICSD 430192
_audit_creation_date 2016-08-01
_chemical_name_systematic 'Trisodium ytterbium heptaoxodisilicate'
_chemical_formula_structural 'Na3 Yb (Si2 O7)'
_chemical_formula_sum 'Na3 O7 Si2 Yb1'
_exptl_crystal_density_diffrn 3.91
_cell_measurement_temperature 294.
_publ_section_title

;
Synthesis, structure, and polymorphism of A3 Ln (Si2 O7)  (A=Na, K; Ln=Sm, Ho,
Yb)
;
loop_
_citation_id
_citation_journal_full
_citation_year
_citation_journal_volume
_citation_page_first
_citation_page_last
_citation_journal_id_ASTM
primary 'Journal of Solid State Chemistry' 2016 235 100 106 JSSCBI
loop_
_publ_author_name
'Latshaw, Allison M.'
'Yeon, Jeongho'
'Smith, Mark D.'
'zur Loye, Hans-Conrad'
_cell_length_a 9.3770(2)
_cell_length_b 9.3770(2)
_cell_length_c 13.7187(4)
_cell_angle_alpha 90.
_cell_angle_beta 90.
_cell_angle_gamma 120.
_cell_volume 1044.65
_cell_formula_units_Z 6
_symmetry_space_group_name_H-M 'P 63/m'
_symmetry_Int_Tables_number 176
_refine_ls_R_factor_all 0.0143
loop_
_symmetry_equiv_pos_site_id
_symmetry_equiv_pos_as_xyz
1 '-x+y, -x, -z+1/2'
2 '-y, x-y, -z+1/2'
3 'x, y, -z+1/2'
4 'x-y, x, -z'
5 'y, -x+y, -z'
6 '-x, -y, -z'
7 'x-y, x, z+1/2'
8 'y, -x+y, z+1/2'
9 '-x, -y, z+1/2'
10 '-x+y, -x, z'
11 '-y, x-y, z'
12 'x, y, z'
loop_
_atom_type_symbol
_atom_type_oxidation_number
Yb3+ 3
Si4+ 4
Na1+ 1
O2- -2
loop_
_atom_site_label
_atom_site_type_symbol
_atom_site_symmetry_multiplicity
_atom_site_Wyckoff_symbol
_atom_site_fract_x
_atom_site_fract_y
_atom_site_fract_z
_atom_site_B_iso_or_equiv
_atom_site_occupancy
_atom_site_attached_hydrogens
Yb1 Yb3+ 2 a 0. 0. 0.25 0.00694(9) 1 0
Yb2 Yb3+ 4 f 0.6667 0.3333 -0.01841(2) 0.00761(9) 1 0
Si1 Si4+ 12 i 0.34703(10) 0.01870(10) 0.14069(6) 0.00790(16) 1 0
Na1 Na1+ 2 b 0. 0. 0. 0.0202(7) 1 0
Na2 Na1+ 2 c 0.6667 0.3333 -0.25 0.0141(6) 1 0
Na3 Na1+ 2 d 0.6667 0.3333 0.25 0.0500(16) 1 0
Na4 Na1+ 12 i 1.01495(16) 0.68374(16) 0.08950(11) 0.0180(3) 1 0
O1 O2- 12 i 0.4427(3) 0.1719(3) 0.06573(17) 0.0160(5) 1 0
O2 O2- 12 i 0.1514(3) -0.0460(3) 0.14043(16) 0.0131(4) 1 0
O3 O2- 12 i 0.3876(3) -0.1264(3) 0.11920(16) 0.0140(4) 1 0
O4 O2- 6 h 0.4219(4) 0.0987(4) 0.25 0.0125(6) 1 0
loop_
_atom_site_aniso_label
_atom_site_aniso_type_symbol
_atom_site_aniso_U_11
_atom_site_aniso_U_22
_atom_site_aniso_U_33
_atom_site_aniso_U_12
_atom_site_aniso_U_13
_atom_site_aniso_U_23
Yb1 Yb3+ 0.00662(10) 0.00662(10) 0.00758(15) 0.00331(5) 0. 0.
Yb2 Yb3+ 0.00738(9) 0.00738(9) 0.00806(13) 0.00369(5) 0. 0.
Si1 Si4+ 0.0083(3) 0.0073(3) 0.0083(4) 0.0040(3) 0.0011(3) 0.0003(3)
Na1 Na1+ 0.0209(10) 0.0209(10) 0.0190(16) 0.0104(5) 0. 0.
Na2 Na1+ 0.0147(9) 0.0147(9) 0.0129(14) 0.0073(5) 0. 0.
Na3 Na1+ 0.0064(10) 0.0064(10) 0.137(5) 0.0032(5) 0. 0.
Na4 Na1+ 0.0146(6) 0.0163(6) 0.0239(7) 0.0084(5) -0.0004(5) -0.0025(5)
O1 O2- 0.0172(11) 0.0160(11) 0.0146(11) 0.0081(9) 0.0049(9) 0.0052(9)
O2 O2- 0.0089(9) 0.0172(10) 0.0139(10) 0.0071(8) -0.0006(8) -0.0022(8)
O3 O2- 0.0151(10) 0.0126(10) 0.0165(11) 0.0087(9) -0.0003(9) -0.0026(8)
O4 O2- 0.0129(14) 0.0122(14) 0.0090(14) 0.0037(12) 0. 0.
#End of TTdata_430192-ICSD