
#(C) 2019 by FIZ Karlsruhe - Leibniz Institute for Information Infrastructure.  All rights reserved.
data_430195-ICSD
_database_code_ICSD 430195
_audit_creation_date 2016-08-01
_chemical_name_systematic 'Trisodium ytterbium heptaoxodisilicate'
_chemical_formula_structural 'Na3 Yb (Si2 O7)'
_chemical_formula_sum 'Na3 O7 Si2 Yb1'
_chemical_name_structure_type Zeolite-LOS-frame
_exptl_crystal_density_diffrn 3.93
_cell_measurement_temperature 296.
_publ_section_title

;
Synthesis, structure, and polymorphism of A3 Ln (Si2 O7)  (A=Na, K; Ln=Sm, Ho,
Yb)
;
loop_
_citation_id
_citation_journal_full
_citation_year
_citation_journal_volume
_citation_page_first
_citation_page_last
_citation_journal_id_ASTM
primary 'Journal of Solid State Chemistry' 2016 235 100 106 JSSCBI
loop_
_publ_author_name
'Latshaw, Allison M.'
'Yeon, Jeongho'
'Smith, Mark D.'
'zur Loye, Hans-Conrad'
_cell_length_a 16.2081(2)
_cell_length_b 16.2081(2)
_cell_length_c 13.7077(4)
_cell_angle_alpha 90.
_cell_angle_beta 90.
_cell_angle_gamma 120.
_cell_volume 3118.6
_cell_formula_units_Z 18
_symmetry_space_group_name_H-M 'P 3 1 c'
_symmetry_Int_Tables_number 159
_refine_ls_R_factor_all 0.0256
loop_
_symmetry_equiv_pos_site_id
_symmetry_equiv_pos_as_xyz
1 '-x, -x+y, z+1/2'
2 'x-y, -y, z+1/2'
3 'y, x, z+1/2'
4 '-x+y, -x, z'
5 '-y, x-y, z'
6 'x, y, z'
loop_
_atom_type_symbol
_atom_type_oxidation_number
Yb3+ 3
Si4+ 4
Na1+ 1
O2- -2
loop_
_atom_site_label
_atom_site_type_symbol
_atom_site_symmetry_multiplicity
_atom_site_Wyckoff_symbol
_atom_site_fract_x
_atom_site_fract_y
_atom_site_fract_z
_atom_site_B_iso_or_equiv
_atom_site_occupancy
_atom_site_attached_hydrogens
Yb1 Yb3+ 6 c 0.00732(2) 0.32807(2) 0.00031(5) 0.00708(9) 1 0
Yb2 Yb3+ 6 c 0.33967(2) 0.34504(3) 0.48557(4) 0.00655(9) 1 0
Yb3 Yb3+ 2 b 0.3333 0.6667 0.25151(6) 0.00681(15) 1 0
Yb4 Yb3+ 2 b 0.6667 0.3333 0.24541(6) 0.00617(13) 1 0
Yb5 Yb3+ 2 a 0. 0. 0.25204(7) 0.00738(15) 1 0
Si1 Si4+ 6 c 0.11962(16) 0.23132(16) 0.35149(19) 0.0068(4) 1 0
Si2 Si4+ 6 c 0.12742(17) 0.22025(16) 0.13316(19) 0.0087(4) 1 0
Si3 Si4+ 6 c 0.10399(15) 0.54374(15) 0.35358(18) 0.0063(4) 1 0
Si4 Si4+ 6 c 0.10895(14) 0.54332(15) 0.13784(18) 0.0073(4) 1 0
Si5 Si4+ 6 c 0.44319(15) 0.22219(15) 0.35383(19) 0.0062(4) 1 0
Si6 Si4+ 6 c 0.44328(14) 0.21460(15) 0.13628(18) 0.0069(4) 1 0
Na1 Na1+ 6 c 0.3418(4) 0.3388(3) 0.2320(10) 0.027(2) 1 0
Na2 Na1+ 6 c 0.2306(3) 0.4539(3) 0.4026(3) 0.0191(8) 1 0
Na3 Na1+ 6 c 0.5454(3) 0.1093(2) 0.4143(3) 0.0196(8) 1 0
Na4 Na1+ 6 c 0.0032(3) 0.3264(3) 0.2496(10) 0.0130(12) 1 0
Na5 Na1+ 6 c 0.2325(3) 0.1127(3) 0.0835(3) 0.0228(9) 1 0
Na6 Na1+ 6 c 0.2157(3) 0.1043(3) 0.3987(3) 0.0172(8) 1 0
Na7 Na1+ 6 c 0.5538(3) 0.1116(2) 0.0882(3) 0.0166(8) 1 0
Na8 Na1+ 6 c 0.2415(3) 0.4414(2) 0.0890(3) 0.0179(7) 1 0
Na9 Na1+ 2 b 0.3333 0.6667 0.4954(11) 0.0114(14) 1 0
Na10 Na1+ 2 b 0.3333 0.6667 -0.0089(12) 0.035(2) 1 0
Na11 Na1+ 2 a 0. 0. 0.0001(15) 0.025(2) 1 0
O1 O2- 6 c 0.1208(4) 0.2675(4) 0.2387(4) 0.0181(11) 1 0
O2 O2- 6 c 0.0404(4) 0.1190(3) 0.3584(4) 0.0107(9) 1 0
O3 O2- 6 c 0.2239(4) 0.2497(4) 0.3830(4) 0.0171(11) 1 0
O4 O2- 6 c 0.0920(4) 0.2971(4) 0.4141(4) 0.0151(10) 1 0
O5 O2- 6 c 0.0998(4) 0.1107(4) 0.1493(4) 0.0107(9) 1 0
O6 O2- 6 c 0.2362(4) 0.2815(4) 0.0987(4) 0.0185(11) 1 0
O7 O2- 6 c 0.0574(4) 0.2325(4) 0.0602(4) 0.0167(10) 1 0
O8 O2- 6 c 0.0660(3) 0.4925(3) 0.2462(3) 0.0112(9) 1 0
O9 O2- 6 c 0.0506(3) 0.4610(3) 0.4336(4) 0.0127(9) 1 0
O10 O2- 6 c 0.2176(3) 0.5868(4) 0.3607(4) 0.0121(9) 1 0
O11 O2- 6 c 0.0739(4) 0.6238(4) 0.3658(4) 0.0144(10) 1 0
O12 O2- 6 c 0.1114(4) 0.4613(4) 0.0733(4) 0.0139(10) 1 0
O13 O2- 6 c 0.2142(4) 0.6361(4) 0.1519(4) 0.0121(10) 1 0
O14 O2- 6 c 0.0367(4) 0.5757(4) 0.0934(4) 0.0121(9) 1 0
O15 O2- 6 c 0.4175(4) 0.2467(3) 0.2431(3) 0.0107(9) 1 0
O16 O2- 6 c 0.3671(4) 0.1124(3) 0.3785(4) 0.0135(10) 1 0
O17 O2- 6 c 0.5512(3) 0.2430(3) 0.3530(4) 0.0079(8) 1 0
O18 O2- 6 c 0.4339(4) 0.2960(4) 0.4276(4) 0.0134(9) 1 0
O19 O2- 6 c 0.3750(4) 0.1007(3) 0.1222(4) 0.0116(9) 1 0
O20 O2- 6 c 0.5541(3) 0.2449(3) 0.1347(4) 0.0107(9) 1 0
O21 O2- 6 c 0.4214(4) 0.2745(4) 0.0551(4) 0.0141(9) 1 0
loop_
_atom_site_aniso_label
_atom_site_aniso_type_symbol
_atom_site_aniso_U_11
_atom_site_aniso_U_22
_atom_site_aniso_U_33
_atom_site_aniso_U_12
_atom_site_aniso_U_13
_atom_site_aniso_U_23
Yb1 Yb3+ 0.00664(13) 0.00800(15) 0.00633(19) 0.00345(11) 0.0007(2) -0.00039(13)
Yb2 Yb3+ 0.00739(15) 0.00745(11) 0.0053(2) 0.00408(11) 0.00052(13) 0.00072(17)
Yb3 Yb3+ 0.00643(16) 0.00643(16) 0.0076(4) 0.00321(8) 0. 0.
Yb4 Yb3+ 0.00682(16) 0.00682(16) 0.0049(3) 0.00341(8) 0. 0.
Yb5 Yb3+ 0.00691(18) 0.00691(18) 0.0083(3) 0.00346(9) 0. 0.
Si1 Si4+ 0.0077(9) 0.0060(9) 0.0066(9) 0.0034(7) -0.0014(7) -0.0008(7)
Si2 Si4+ 0.0099(9) 0.0078(9) 0.0077(9) 0.0039(7) 0.0007(7) 0.0008(7)
Si3 Si4+ 0.0067(10) 0.0059(7) 0.0049(9) 0.0022(7) 0.0014(7) 0.0003(7)
Si4 Si4+ 0.0073(10) 0.0071(8) 0.0075(9) 0.0037(7) -0.0024(7) -0.0018(7)
Si5 Si4+ 0.0071(10) 0.0071(8) 0.0050(8) 0.0040(7) 0.0012(7) -0.0001(7)
Si6 Si4+ 0.0073(10) 0.0074(8) 0.0066(10) 0.0040(7) -0.0019(7) -0.0021(7)
Na1 Na1+ 0.029(3) 0.032(3) 0.026(5) 0.020(2) -0.005(3) -0.010(2)
Na2 Na1+ 0.0217(18) 0.0174(18) 0.0211(19) 0.0119(14) -0.0009(16) 0.0052(15)
Na3 Na1+ 0.0189(16) 0.017(2) 0.0253(19) 0.0107(14) 0.0026(14) 0.0043(14)
Na4 Na1+ 0.0117(19) 0.0133(18) 0.012(3) 0.0046(15) 0.0046(10) 0.0001(19)
Na5 Na1+ 0.020(2) 0.0232(19) 0.030(2) 0.0143(16) 0.0039(16) 0.0000(16)
Na6 Na1+ 0.0169(19) 0.0142(16) 0.0200(18) 0.0073(14) -0.0055(14) -0.0021(14)
Na7 Na1+ 0.0197(16) 0.0091(17) 0.025(2) 0.0099(13) -0.0056(15) -0.0062(14)
Na8 Na1+ 0.0187(16) 0.0163(17) 0.0200(17) 0.0098(14) -0.0021(13) -0.0047(14)
Na9 Na1+ 0.0143(19) 0.0143(19) 0.006(3) 0.0071(9) 0. 0.
Na10 Na1+ 0.050(3) 0.050(3) 0.005(4) 0.0251(17) 0. 0.
Na11 Na1+ 0.021(3) 0.021(3) 0.033(6) 0.0105(14) 0. 0.
O1 O2- 0.033(3) 0.012(2) 0.010(2) 0.012(2) -0.001(2) 0.001(2)
O2 O2- 0.010(2) 0.007(2) 0.008(2) -0.0006(18) 0.0032(17) -0.0019(17)
O3 O2- 0.014(2) 0.012(2) 0.025(3) 0.006(2) -0.009(2) -0.006(2)
O4 O2- 0.016(2) 0.018(2) 0.016(2) 0.011(2) 0.004(2) -0.008(2)
O5 O2- 0.013(2) 0.009(2) 0.012(2) 0.0070(19) 0.0045(18) 0.0020(18)
O6 O2- 0.011(2) 0.023(3) 0.015(2) 0.003(2) 0.0075(18) 0.004(2)
O7 O2- 0.017(2) 0.021(3) 0.016(2) 0.013(2) -0.001(2) 0.007(2)
O8 O2- 0.014(2) 0.0067(18) 0.007(2) 0.0005(17) 0.0007(17) -0.0004(14)
O9 O2- 0.014(2) 0.0090(19) 0.010(2) 0.0024(18) 0.0044(18) 0.0048(16)
O10 O2- 0.005(2) 0.019(2) 0.009(2) 0.0031(19) 0.0028(17) 0.0029(18)
O11 O2- 0.020(3) 0.017(2) 0.011(2) 0.013(2) 0.0017(19) -0.0016(19)
O12 O2- 0.014(2) 0.013(2) 0.013(2) 0.006(2) -0.0013(19) -0.0054(19)
O13 O2- 0.010(2) 0.012(2) 0.013(2) 0.0053(18) -0.0029(18) -0.0016(19)
O14 O2- 0.009(2) 0.012(2) 0.013(2) 0.0036(19) -0.0030(18) 0.0001(18)
O15 O2- 0.015(2) 0.014(2) 0.007(2) 0.010(2) 0.0001(16) -0.0008(16)
O16 O2- 0.013(2) 0.013(2) 0.011(2) 0.0036(19) 0.0033(18) 0.0043(18)
O17 O2- 0.006(2) 0.011(2) 0.0049(19) 0.0027(17) 0.0036(16) 0.0034(16)
O18 O2- 0.016(2) 0.016(2) 0.011(2) 0.011(2) 0.0005(19) -0.0051(18)
O19 O2- 0.014(2) 0.0076(18) 0.011(2) 0.0039(18) -0.0015(18) -0.0029(16)
O20 O2- 0.009(2) 0.013(2) 0.009(2) 0.0054(19) -0.0018(17) -0.0020(18)
O21 O2- 0.027(3) 0.017(2) 0.007(2) 0.017(2) -0.0021(19) 0.0022(18)
#End of TTdata_430195-ICSD