
#(C) 2019 by FIZ Karlsruhe - Leibniz Institute for Information Infrastructure.  All rights reserved.
data_430118-ICSD
_database_code_ICSD 430118
_audit_creation_date 2016-08-01
_chemical_name_systematic 'Sodium tribarium triyttrium icosaoxo-hexasilicate'
_chemical_formula_structural 'Na Ba3 Y3 Si6 O20'
_chemical_formula_sum 'Ba3 Na1 O20 Si6 Y3'
_chemical_name_structure_type NaBa3Nd3(Si2O7)(Si4O13)
_exptl_crystal_density_diffrn 4.14
_cell_measurement_temperature 293.
_publ_section_title

;
Hydrothermal synthesis, structure, and property characterization of rare earth
silicate compounds: Na Ba3 Ln3 Si6 O20 (Ln=Y, Nd, Sm, Eu, Gd)
;
loop_
_citation_id
_citation_journal_full
_citation_year
_citation_journal_volume
_citation_page_first
_citation_page_last
_citation_journal_id_ASTM
primary 'Solid State Sciences' 2015 48 256 262 SSSCFJ
loop_
_publ_author_name
'Sanjeewa, Liurukara D.'
'Fulle, Kyle'
'McMillen, Colin D.'
'Wang, Fenglin'
'Liu, Yufei'
'He, Jian'
'Anker, Jeffrey N.'
'Kolis, Joseph W.'
_cell_length_a 14.656(3)
_cell_length_b 23.631(5)
_cell_length_c 5.5139(11)
_cell_angle_alpha 90.
_cell_angle_beta 90.
_cell_angle_gamma 90.
_cell_volume 1909.66
_cell_formula_units_Z 4
_symmetry_space_group_name_H-M 'A m a 2'
_symmetry_Int_Tables_number 40
_refine_ls_R_factor_all 0.0303
loop_
_symmetry_equiv_pos_site_id
_symmetry_equiv_pos_as_xyz
1 'x+1/2, -y, z'
2 '-x+1/2, y, z'
3 '-x, -y, z'
4 'x, y, z'
5 'x+1/2, -y+1/2, z+1/2'
6 '-x+1/2, y+1/2, z+1/2'
7 '-x, -y+1/2, z+1/2'
8 'x, y+1/2, z+1/2'
loop_
_atom_type_symbol
_atom_type_oxidation_number
Ba2+ 2
Na1+ 1
Y3+ 3
Si4+ 4
O2- -2
loop_
_atom_site_label
_atom_site_type_symbol
_atom_site_symmetry_multiplicity
_atom_site_Wyckoff_symbol
_atom_site_fract_x
_atom_site_fract_y
_atom_site_fract_z
_atom_site_B_iso_or_equiv
_atom_site_occupancy
_atom_site_attached_hydrogens
Ba1 Ba2+ 4 b 0.75 0.42136(3) -0.43054(17) 0.01267(19) 1 0
Ba2 Ba2+ 8 c 0.38618(3) 0.24269(2) 0.06970(12) 0.01312(16) 1 0
Na1 Na1+ 4 b 0.25 0.3890(2) 0.1350(12) 0.0225(14) 1 0
Y1 Y3+ 8 c 0.52943(6) 0.39040(4) -0.00420(18) 0.0110(2) 1 0
Y2 Y3+ 4 a 0.5 0.5 0.5046(2) 0.0111(3) 1 0
Si1 Si4+ 4 b 0.75 0.32238(14) 0.0415(8) 0.0121(8) 1 0
Si2 Si4+ 8 c 0.44297(15) 0.34996(10) -0.4659(5) 0.0113(5) 1 0
Si3 Si4+ 8 c 0.36203(14) 0.49981(9) 0.0600(6) 0.0089(5) 1 0
Si4 Si4+ 4 b 0.25 0.30901(14) -0.4102(8) 0.0103(7) 1 0
O1 O2- 8 c 0.4633(4) 0.4135(3) -0.3767(11) 0.0121(15) 1 0
O2 O2- 8 c 0.4701(5) 0.3122(3) -0.2321(12) 0.0133(15) 1 0
O3 O2- 4 b 0.25 0.4911(4) 0.057(2) 0.020(2) 1 0
O4 O2- 8 c 0.3353(4) 0.3410(3) -0.5415(13) 0.0183(16) 1 0
O5 O2- 4 b 0.75 0.2542(4) -0.038(2) 0.020(2) 1 0
O6 O2- 8 c 0.3944(4) 0.5267(3) -0.1930(12) 0.0132(16) 1 0
O7 O2- 8 c 0.5002(5) 0.3295(3) -0.6979(13) 0.0136(14) 1 0
O8 O2- 8 c 0.6616(4) 0.3485(3) -0.0987(13) 0.0141(14) 1 0
O9 O2- 8 c 0.6101(4) 0.4534(3) 0.2619(14) 0.0159(16) 1 0
O10 O2- 4 b 0.75 0.3245(4) 0.3304(19) 0.017(2) 1 0
O11 O2- 8 c 0.4101(5) 0.4419(3) 0.1349(13) 0.0219(17) 1 0
O12 O2- 4 b 0.25 0.3085(4) -0.1235(16) 0.0095(19) 1 0
loop_
_atom_site_aniso_label
_atom_site_aniso_type_symbol
_atom_site_aniso_U_11
_atom_site_aniso_U_22
_atom_site_aniso_U_33
_atom_site_aniso_U_12
_atom_site_aniso_U_13
_atom_site_aniso_U_23
Ba1 Ba2+ 0.0114(3) 0.0131(4) 0.0135(4) 0. 0. -0.0005(4)
Ba2 Ba2+ 0.0117(2) 0.0139(3) 0.0138(3) 0.00024(19) 0.0005(3) 0.0021(3)
Na1 Na1+ 0.023(3) 0.013(3) 0.032(4) 0. 0. -0.004(2)
Y1 Y3+ 0.0107(4) 0.0107(4) 0.0114(4) 0.0002(3) -0.0005(4) -0.0006(4)
Y2 Y3+ 0.0115(6) 0.0091(6) 0.0129(7) 0.0015(4) 0. 0.
Si1 Si4+ 0.0096(15) 0.0140(16) 0.013(2) 0. 0. -0.0012(17)
Si2 Si4+ 0.0090(11) 0.0114(11) 0.0136(15) -0.0018(9) -0.0049(12) 0.0019(11)
Si3 Si4+ 0.0082(11) 0.0102(11) 0.0085(11) 0.0015(8) 0.0013(11) 0.0048(12)
Si4 Si4+ 0.0083(14) 0.0135(16) 0.0092(16) 0. 0. -0.0009(17)
O1 O2- 0.017(3) 0.008(3) 0.011(4) 0.003(2) -0.009(3) -0.003(3)
O2 O2- 0.019(4) 0.014(4) 0.007(3) 0.002(3) -0.001(3) 0.004(3)
O3 O2- 0.008(4) 0.020(4) 0.033(6) 0. 0. 0.002(6)
O4 O2- 0.014(3) 0.021(4) 0.020(4) -0.008(3) -0.005(3) 0.003(3)
O5 O2- 0.028(6) 0.014(5) 0.017(5) 0. 0. 0.000(4)
O6 O2- 0.011(3) 0.014(4) 0.015(4) 0.000(3) 0.000(3) 0.003(3)
O7 O2- 0.017(4) 0.014(4) 0.009(3) 0.005(3) 0.001(3) 0.005(3)
O8 O2- 0.011(3) 0.015(3) 0.017(3) 0.004(3) 0.000(3) 0.001(3)
O9 O2- 0.010(3) 0.019(5) 0.018(4) -0.003(3) 0.003(3) 0.002(3)
O10 O2- 0.017(5) 0.019(5) 0.015(5) 0. 0. 0.005(4)
O11 O2- 0.020(3) 0.019(4) 0.026(5) 0.013(3) 0.006(3) 0.005(3)
O12 O2- 0.015(4) 0.012(4) 0.002(4) 0. 0. -0.002(3)
#End of TTdata_430118-ICSD