
#(C) 2019 by FIZ Karlsruhe - Leibniz Institute for Information Infrastructure.  All rights reserved.
data_430279-ICSD
_database_code_ICSD 430279
_audit_creation_date 2016-02-01
_chemical_name_systematic 'Sodium manganese(II) sulfate (2.76/1.78/3)'
_chemical_formula_structural 'Na2.76 Mn1.78 (S O4)3'
_chemical_formula_sum 'Mn1.78 Na2.76 O12 S3'
_exptl_crystal_density_diffrn 3.05
_publ_section_title

;
From kroehnkite- to alluaudite-type of structure: Novel method of synthesis of
sodium manganese sulfates with electrochemical properties in alkali-metal ion
batteries
;
loop_
_citation_id
_citation_journal_full
_citation_year
_citation_journal_volume
_citation_page_first
_citation_page_last
_citation_journal_id_ASTM
primary
'Journal of Materials Chemistry A: Materials for Energy and Sustainability' 2015 3 22287 22299 JMCAET
loop_
_publ_author_name
'Marinova, D.'
'Kostov, V.'
'Nikolova, R.'
'Kukeva, R.'
'Zhecheva, E.'
'Sendova-Vasileva, M.'
'Stoyanova, R.'
_cell_length_a 12.7642(13)
_cell_length_b 12.9434(12)
_cell_length_c 6.5871(6)
_cell_angle_alpha 90.
_cell_angle_beta 115.7803(27)
_cell_angle_gamma 90.
_cell_volume 979.95
_cell_formula_units_Z 4
_symmetry_space_group_name_H-M 'C 1 2/c 1'
_symmetry_Int_Tables_number 15
_refine_ls_R_factor_all 0.0501
loop_
_symmetry_equiv_pos_site_id
_symmetry_equiv_pos_as_xyz
1 'x, -y, z+1/2'
2 '-x, -y, -z'
3 '-x, y, -z+1/2'
4 'x, y, z'
5 'x+1/2, -y+1/2, z+1/2'
6 '-x+1/2, -y+1/2, -z'
7 '-x+1/2, y+1/2, -z+1/2'
8 'x+1/2, y+1/2, z'
loop_
_atom_type_symbol
_atom_type_oxidation_number
Na1+ 1
Mn2+ 2
S6+ 6
O2- -2
S6+ 6
O2- -2
loop_
_atom_site_label
_atom_site_type_symbol
_atom_site_symmetry_multiplicity
_atom_site_Wyckoff_symbol
_atom_site_fract_x
_atom_site_fract_y
_atom_site_fract_z
_atom_site_B_iso_or_equiv
_atom_site_occupancy
_atom_site_attached_hydrogens
Na1 Na1+ 4 e 0.5 0.72969 0.75 1.81(33) 1 0
Na2 Na1+ 4 a 0. 0. 0. 17.94(78) 0.839(13) 0
Na3 Na1+ 4 e 0.5 0.97573 0.25 10.07(56) 0.918(11) 0
Mn1 Mn2+ 8 f 0.7269(5) 0.1561(4) 0.1422(9) 4.42(16) 0.892(8) 0
S1 S6+ 4 e 0. 0.7820(7) 0.75 2.06(16) 1 0
O1 O2- 8 f 0.0797(8) 0.8459(10) 0.7100(19) 1.517(16) 1 0
O2 O2- 8 f 0.4451(9) 0.2124(9) 0.5507(21) 1.517(16) 1 0
S2 S6+ 8 f 0.7647(6) 0.6105(5) 0.8661(11) 2.06(16) 1 0
O3 O2- 8 f 0.7706(10) 0.6662(10) 0.6880(18) 1.517(16) 1 0
O4 O2- 8 f 0.3190(9) 0.9928(11) 0.3704(19) 1.517(16) 1 0
O5 O2- 8 f 0.3449(11) 0.5807(9) 0.6504(18) 1.517(16) 1 0
O6 O2- 8 f 0.3362(10) 0.1581(8) 0.0901(22) 1.517(16) 1 0
#End of TTdata_430279-ICSD