
#(C) 2019 by FIZ Karlsruhe - Leibniz Institute for Information Infrastructure.  All rights reserved.
data_430311-ICSD
_database_code_ICSD 430311
_audit_creation_date 2016-02-01
_chemical_name_systematic 'Disodium trithiotellurate(IV)'
_chemical_formula_structural 'Na2 (Te S3)'
_chemical_formula_sum 'Na2 S3 Te1'
_chemical_name_structure_type Ag2SeO3
_exptl_crystal_density_diffrn 3.03
_cell_measurement_temperature 293.
_publ_section_title

;
Na2 Te S3, Na2 Te Se3 - mP24, and Na2 Te Se3 - mC48: crystal structures and
optical and electrical properties of sodium chalcogenidotellurates(IV)
;
loop_
_citation_id
_citation_journal_full
_citation_year
_citation_journal_volume
_citation_page_first
_citation_page_last
_citation_journal_id_ASTM
primary 'Inorganic Chemistry' 2015 54 11457 11464 INOCAJ
loop_
_publ_author_name
'Pompe, Constantin'
'Preitschaft, Christian'
'Weihrich, Richard'
'Pfitzner, Arno'
_cell_length_a 5.7761(14)
_cell_length_b 12.202(3)
_cell_length_c 8.405(3)
_cell_angle_alpha 90
_cell_angle_beta 92.02(2)
_cell_angle_gamma 90
_cell_volume 592.01
_cell_formula_units_Z 4
_symmetry_space_group_name_H-M 'P 1 21/c 1'
_symmetry_Int_Tables_number 14
_refine_ls_R_factor_all 0.0175
loop_
_symmetry_equiv_pos_site_id
_symmetry_equiv_pos_as_xyz
1 'x, -y+1/2, z+1/2'
2 '-x, -y, -z'
3 '-x, y+1/2, -z+1/2'
4 'x, y, z'
loop_
_atom_type_symbol
_atom_type_oxidation_number
Na1+ 1
Te4+ 4
S2- -2
loop_
_atom_site_label
_atom_site_type_symbol
_atom_site_symmetry_multiplicity
_atom_site_Wyckoff_symbol
_atom_site_fract_x
_atom_site_fract_y
_atom_site_fract_z
_atom_site_B_iso_or_equiv
_atom_site_occupancy
_atom_site_attached_hydrogens
Na1 Na1+ 4 e 0.74017(19) 0.76002(9) 0.12400(15) 0.0294(2) 1 0
Na2 Na1+ 4 e 0.2458(2) 0.91664(8) 0.36414(16) 0.0273(2) 1 0
Te1 Te4+ 4 e 0.70928(2) 0.08813(2) 0.18461(2) 0.01804(7) 1 0
S1 S2- 4 e 0.30509(11) 0.09304(5) 0.13899(9) 0.02192(14) 1 0
S2 S2- 4 e 0.76117(10) 0.23360(5) 0.36856(8) 0.02164(13) 1 0
S3 S2- 4 e 0.74816(11) 0.93561(5) 0.35327(8) 0.02267(13) 1 0
loop_
_atom_site_aniso_label
_atom_site_aniso_type_symbol
_atom_site_aniso_U_11
_atom_site_aniso_U_22
_atom_site_aniso_U_33
_atom_site_aniso_U_12
_atom_site_aniso_U_13
_atom_site_aniso_U_23
Na1 Na1+ 0.0268(5) 0.0296(5) 0.0317(6) -0.0002(4) 0.0003(4) 0.0051(5)
Na2 Na1+ 0.0252(5) 0.0282(5) 0.0284(7) -0.0011(4) 0.0010(5) 0.0027(4)
Te1 Te4+ 0.01745(10) 0.01819(10) 0.01852(11) -0.00028(5) 0.00109(6) -0.00015(5)
S1 S2- 0.0190(3) 0.0239(3) 0.0227(3) -0.00005(19) -0.0018(2) 0.0015(2)
S2 S2- 0.0223(3) 0.0193(3) 0.0232(3) -0.0013(2) 0.0004(2) -0.0019(2)
S3 S2- 0.0226(3) 0.0201(3) 0.0251(3) 0.0016(2) -0.0005(2) 0.0024(2)
#End of TTdata_430311-ICSD