
#(C) 2018 by FIZ Karlsruhe - Leibniz Institute for Information Infrastructure.  All rights reserved.
data_430359-ICSD
_database_code_ICSD 430359
_audit_creation_date 2016-08-01
_chemical_name_systematic 'Lithium aluminium dioxide - gamma'
_chemical_formula_structural 'Li Al O2'
_chemical_formula_sum 'Al1 Li1 O2'
_chemical_name_structure_type LiAlO2-gamma
_exptl_crystal_density_diffrn 2.5
_cell_measurement_temperature 1475.
_publ_section_title

;
Unravelling ultraslow lithium-ion diffusion in gamma-LiAlO2: experiments with
tracers, neutrons, and charge carriers
;
loop_
_citation_id
_citation_journal_full
_citation_year
_citation_journal_volume
_citation_page_first
_citation_page_last
_citation_journal_id_ASTM
primary 'Chemistry of Materials' 2016 28 915 924 CMATEX
loop_
_publ_author_name
'Wiedemann, Dennis'
'Nakhal, Suliman'
'Rahn, Johanna'
'Witt, Elena'
'Islam, Mazharul M.'
'Zander, Stefan'
'Heitjans, Paul'
'Schmidt, Harald'
'Bredow, Thomas'
'Wilkening, Martin'
'Lerch, Martin'
_cell_length_a 5.2252(2)
_cell_length_b 5.2252(2)
_cell_length_c 6.4038(3)
_cell_angle_alpha 90
_cell_angle_beta 90
_cell_angle_gamma 90
_cell_volume 174.84
_cell_formula_units_Z 4
_symmetry_space_group_name_H-M 'P 41 21 2'
_symmetry_Int_Tables_number 92
_refine_ls_R_factor_all 0.0115
loop_
_symmetry_equiv_pos_site_id
_symmetry_equiv_pos_as_xyz
1 'x+1/2, -y+1/2, -z+3/4'
2 '-x+1/2, y+1/2, -z+1/4'
3 '-y, -x, -z+1/2'
4 'y, x, -z'
5 'y+1/2, -x+1/2, z+3/4'
6 '-y+1/2, x+1/2, z+1/4'
7 '-x, -y, z+1/2'
8 'x, y, z'
loop_
_atom_type_symbol
_atom_type_oxidation_number
Li1+ 1
Al3+ 3
O2- -2
loop_
_atom_site_label
_atom_site_type_symbol
_atom_site_symmetry_multiplicity
_atom_site_Wyckoff_symbol
_atom_site_fract_x
_atom_site_fract_y
_atom_site_fract_z
_atom_site_B_iso_or_equiv
_atom_site_occupancy
_atom_site_attached_hydrogens
Li1 Li1+ 4 a 0.7959(16) 0.7959(16) 0 0.146(6) 1 0
Al1 Al3+ 4 a 0.1839(9) 0.1839(9) 0 0.0295(17) 1 0
O1 O2- 8 b 0.3421(4) 0.2847(6) 0.7767(5) 0.0435(11) 1 0
loop_
_atom_site_aniso_label
_atom_site_aniso_type_symbol
_atom_site_aniso_U_11
_atom_site_aniso_U_22
_atom_site_aniso_U_33
_atom_site_aniso_U_12
_atom_site_aniso_U_13
_atom_site_aniso_U_23
Li1 Li1+ 0.123(6) 0.123(6) 0.190(15) -0.063(11) 0.023(7) -0.023(7)
Al1 Al3+ 0.0357(18) 0.0357(18) 0.017(4) -0.008(3) -0.001(2) 0.001(2)
O1 O2- 0.0370(18) 0.058(2) 0.035(2) -0.0150(15) -0.0070(12) 0.0001(19)
#End of TTdata_430359-ICSD