
#(C) 2019 by FIZ Karlsruhe - Leibniz Institute for Information Infrastructure.  All rights reserved.
data_430499-ICSD
_database_code_ICSD 430499
_audit_creation_date 2017-08-01
_chemical_name_systematic 'Trisodium lanthanum bis(orthophosphate)'
_chemical_formula_structural 'Na3 La (P O4)2'
_chemical_formula_sum 'La1 Na3 O8 P2'
_exptl_crystal_density_diffrn 3.74
_cell_measurement_temperature 293.
_publ_section_title

;
Four-dimensional incommensurate modulation and luminescent properties of host
material Na3La(PO4)2
;
loop_
_citation_id
_citation_journal_full
_citation_year
_citation_journal_volume
_citation_page_first
_citation_page_last
_citation_journal_id_ASTM
primary 'Inorganic Chemistry' 2017 56 1835 1845 INOCAJ
loop_
_publ_author_name
'Zhao, Dan'
'Ma, Fa-Xue'
'Ma, Shu-Qi'
'Zhang, Ai-Yun'
'Nie, Cong-Kui'
'Huang, Min'
'Zhang, Lei'
'Fan, Yun-Chang'
_cell_length_a 14.0830(4)
_cell_length_b 5.3517(11)
_cell_length_c 18.7291(14)
_cell_angle_alpha 90.
_cell_angle_beta 90.
_cell_angle_gamma 90.
_cell_volume 1411.57
_cell_formula_units_Z 8
_symmetry_space_group_name_H-M 'P c a 21'
_symmetry_Int_Tables_number 29
_refine_ls_R_factor_all 0.0391
loop_
_symmetry_equiv_pos_site_id
_symmetry_equiv_pos_as_xyz
1 'x+1/2, -y, z'
2 '-x+1/2, y, z+1/2'
3 '-x, -y, z+1/2'
4 'x, y, z'
loop_
_atom_type_symbol
_atom_type_oxidation_number
La3+ 3
P5+ 5
Na1+ 1
O2- -2
loop_
_atom_site_label
_atom_site_type_symbol
_atom_site_symmetry_multiplicity
_atom_site_Wyckoff_symbol
_atom_site_fract_x
_atom_site_fract_y
_atom_site_fract_z
_atom_site_B_iso_or_equiv
_atom_site_occupancy
_atom_site_attached_hydrogens
La1 La3+ 4 a 0.38329(3) 0.04942(7) 0.44615(2) 0.01176(11) 1 0
La2 La3+ 4 a 0.63352(3) 0.53793(7) 0.72005(2) 0.01197(11) 1 0
P1 P5+ 4 a 0.26741(17) 0.9881(2) 0.29710(16) 0.0083(6) 1 0
P2 P5+ 4 a 0.77188(15) 0.4707(3) 0.54107(14) 0.0082(5) 1 0
P3 P5+ 4 a 0.98245(17) 0.4809(2) 0.36875(15) 0.0078(6) 1 0
P4 P5+ 4 a 0.52057(15) 0.0227(2) 0.62511(14) 0.0074(5) 1 0
Na1 Na1+ 4 a 0.3836(3) 0.5000(4) 0.69346(19) 0.0128(11) 1 0
Na2 Na1+ 4 a 0.0498(2) 0.9997(3) 0.2926(2) 0.0156(11) 1 0
Na3 Na1+ 4 a 0.5316(2) 0.5305(4) 0.5335(2) 0.0164(9) 1 0
Na4 Na1+ 4 a 0.7018(3) 0.4950(4) 0.3739(3) 0.0267(14) 1 0
Na5 Na1+ 4 a 1.1337(3) 1.0020(4) 0.4722(2) 0.0211(14) 1 0
Na6 Na1+ 4 a 0.7774(3) 0.0013(3) 0.6340(2) 0.0187(10) 1 0
O1 O2- 4 a 0.8747(3) 0.5132(7) 0.3690(4) 0.0118(16) 1 0
O2 O2- 4 a 0.6160(2) -0.0984(7) 0.6400(2) 0.0119(12) 1 0
O3 O2- 4 a 0.6980(3) 0.5976(6) 0.4961(2) 0.0178(12) 1 0
O4 O2- 4 a 0.4987(4) -0.0119(6) 0.5452(3) 0.0121(10) 1 0
O5 O2- 4 a 0.5292(2) 0.2984(6) 0.64281(18) 0.0153(10) 1 0
O6 O2- 4 a 1.0166(4) 0.4781(6) 0.2910(4) 0.0195(12) 1 0
O7 O2- 4 a 1.0116(3) 0.2352(6) 0.4058(2) 0.0126(11) 1 0
O8 O2- 4 a 0.2388(3) 0.7503(6) 0.2613(2) 0.0173(12) 1 0
O9 O2- 4 a 1.0277(3) 0.7072(6) 0.4080(2) 0.0153(11) 1 0
O10 O2- 4 a 0.2333(4) 0.9919(5) 0.3746(3) 0.0102(10) 1 0
O11 O2- 4 a 0.2241(3) 1.2040(5) 0.2560(2) 0.0109(10) 1 0
O12 O2- 4 a 0.7497(5) 0.4863(5) 0.6208(4) 0.0156(12) 1 0
O13 O2- 4 a 0.7775(2) 0.1928(6) 0.52037(18) 0.0166(10) 1 0
O14 O2- 4 a 0.4463(3) -0.0922(7) 0.6703(2) 0.0200(13) 1 0
O15 O2- 4 a 0.3755(4) 1.0143(7) 0.2982(4) 0.0177(18) 1 0
O16 O2- 4 a 0.8635(2) 0.6038(7) 0.5267(3) 0.0266(14) 1 0
loop_
_atom_site_aniso_label
_atom_site_aniso_type_symbol
_atom_site_aniso_U_11
_atom_site_aniso_U_22
_atom_site_aniso_U_33
_atom_site_aniso_U_12
_atom_site_aniso_U_13
_atom_site_aniso_U_23
La1 La3+ 0.00744(16) 0.01688(17) 0.0110(2) -0.00262(14) -0.00097(15) 0.0019(2)
La2 La3+ 0.00795(17) 0.01788(17) 0.0101(2) -0.00234(14) 0.00084(15) -0.0020(2)
P1 P5+ 0.0075(11) 0.0072(7) 0.0101(12) 0.0000(4) -0.0001(9) -0.0009(4)
P2 P5+ 0.0083(9) 0.0083(6) 0.0079(9) 0.0025(5) -0.0019(7) -0.0008(6)
P3 P5+ 0.0080(11) 0.0095(7) 0.0057(11) -0.0008(5) 0.0002(9) -0.0009(5)
P4 P5+ 0.0077(9) 0.0079(6) 0.0067(9) 0.0014(5) -0.0027(7) -0.0003(5)
Na1 Na1+ 0.008(2) 0.0200(11) 0.011(2) -0.0032(7) -0.0037(17) 0.0009(9)
Na2 Na1+ 0.014(2) 0.0213(14) 0.011(2) -0.0004(7) -0.0010(18) -0.0042(7)
Na3 Na1+ 0.0149(18) 0.0177(11) 0.0165(18) -0.0022(9) -0.0027(14) 0.0010(9)
Na4 Na1+ 0.022(3) 0.0294(16) 0.029(3) -0.0011(9) 0.004(2) -0.0054(9)
Na5 Na1+ 0.015(2) 0.0220(13) 0.026(3) -0.0014(7) 0.001(2) 0.0005(10)
Na6 Na1+ 0.0227(19) 0.0206(13) 0.0128(17) 0.0008(8) -0.0019(14) 0.0068(8)
O1 O2- 0.004(3) 0.0179(19) 0.013(3) -0.0011(13) -0.001(2) -0.0062(18)
O2 O2- 0.0047(18) 0.018(2) 0.013(2) 0.0044(15) 0.0004(14) 0.0078(16)
O3 O2- 0.018(2) 0.0216(18) 0.013(2) 0.0063(17) -0.0053(17) -0.0011(17)
O4 O2- 0.0148(19) 0.0180(18) 0.0035(17) 0.0030(12) -0.0031(12) -0.0023(12)
O5 O2- 0.0198(19) 0.0080(16) 0.0182(19) -0.0005(13) 0.0012(15) -0.0040(13)
O7 O2- 0.020(2) 0.0028(15) 0.015(2) -0.0019(14) -0.0077(16) 0.0034(14)
O8 O2- 0.018(2) 0.0171(18) 0.017(2) -0.0004(16) -0.0017(18) -0.0034(16)
O9 O2- 0.0093(18) 0.0161(18) 0.020(2) -0.0019(13) -0.0018(16) -0.0080(16)
O10 O2- 0.0065(17) 0.0218(19) 0.0024(16) 0.0005(11) 0.0030(11) 0.0003(11)
O11 O2- 0.0131(18) 0.0043(15) 0.015(2) -0.0013(12) -0.0010(15) 0.0019(14)
O13 O2- 0.022(2) 0.0138(17) 0.0139(18) 0.0025(14) 0.0040(15) -0.0061(14)
O14 O2- 0.020(2) 0.024(2) 0.016(2) -0.0067(18) 0.0033(18) -0.0029(17)
O15 O2- 0.011(3) 0.020(2) 0.022(4) 0.0014(14) 0.003(2) -0.0011(19)
O16 O2- 0.027(2) 0.030(2) 0.023(3) -0.0141(19) 0.0013(18) 0.005(2)
#End of TTdata_430499-ICSD