
#(C) 2019 by FIZ Karlsruhe - Leibniz Institute for Information Infrastructure.  All rights reserved.
data_430433-ICSD
_database_code_ICSD 430433
_audit_creation_date 2018-08-01
_chemical_name_systematic 'Disodium hydrogen phosphate'
_chemical_formula_structural 'Na2 H P O4'
_chemical_formula_sum 'H1 Na2 O4 P1'
_exptl_crystal_density_diffrn 2.69
_cell_measurement_temperature 293.
_publ_section_title
'High-symmetry polymorph of anhydrous disodium hydrogen phosphate'
loop_
_citation_id
_citation_journal_full
_citation_year
_citation_journal_volume
_citation_page_first
_citation_page_last
_citation_journal_id_ASTM
primary 'Russian Journal of Inorganic Chemistry' 2017 62 172 174 RJICAQ
loop_
_publ_author_name
'Somov, N.V.'
'Chausov, F.F.'
_cell_length_a 5.8426(3)
_cell_length_b 9.7908(5)
_cell_length_c 12.2673(5)
_cell_angle_alpha 90
_cell_angle_beta 90
_cell_angle_gamma 90
_cell_volume 701.73
_cell_formula_units_Z 8
_symmetry_space_group_name_H-M 'F d d d Z'
_symmetry_Int_Tables_number 70
_refine_ls_R_factor_all 0.025
loop_
_symmetry_equiv_pos_site_id
_symmetry_equiv_pos_as_xyz
1 'x+3/4, y+3/4, -z'
2 'x+3/4, -y, z+3/4'
3 '-x, y+3/4, z+3/4'
4 '-x, -y, -z'
5 '-x+1/4, -y+1/4, z'
6 '-x+1/4, y, -z+1/4'
7 'x, -y+1/4, -z+1/4'
8 'x, y, z'
9 'x+3/4, y+1/4, -z+1/2'
10 'x+3/4, -y+1/2, z+1/4'
11 '-x, y+1/4, z+1/4'
12 '-x, -y+1/2, -z+1/2'
13 '-x+1/4, -y+3/4, z+1/2'
14 '-x+1/4, y+1/2, -z+3/4'
15 'x, -y+3/4, -z+3/4'
16 'x, y+1/2, z+1/2'
17 'x+1/4, y+3/4, -z+1/2'
18 'x+1/4, -y, z+1/4'
19 '-x+1/2, y+3/4, z+1/4'
20 '-x+1/2, -y, -z+1/2'
21 '-x+3/4, -y+1/4, z+1/2'
22 '-x+3/4, y, -z+3/4'
23 'x+1/2, -y+1/4, -z+3/4'
24 'x+1/2, y, z+1/2'
25 'x+1/4, y+1/4, -z'
26 'x+1/4, -y+1/2, z+3/4'
27 '-x+1/2, y+1/4, z+3/4'
28 '-x+1/2, -y+1/2, -z'
29 '-x+3/4, -y+3/4, z'
30 '-x+3/4, y+1/2, -z+1/4'
31 'x+1/2, -y+3/4, -z+1/4'
32 'x+1/2, y+1/2, z'
loop_
_atom_type_symbol
_atom_type_oxidation_number
P5+ 5
Na1+ 1
O2- -2
H1+ 1
loop_
_atom_site_label
_atom_site_type_symbol
_atom_site_symmetry_multiplicity
_atom_site_Wyckoff_symbol
_atom_site_fract_x
_atom_site_fract_y
_atom_site_fract_z
_atom_site_B_iso_or_equiv
_atom_site_occupancy
_atom_site_attached_hydrogens
P1 P5+ 8 b 0.125 0.625 0.125 0.00835(17) 1 0
Na1 Na1+ 16 f 0.125 0.94164(9) 0.125 0.0203(2) 1 0
O1 O2- 32 h -0.02031(16) 0.53634(8) 0.19256(7) 0.0196(2) 1 0
H1 H1+ 32 h -0.1536(8) 0.564(2) 0.2091(8) 0.05 0.25 0
loop_
_atom_site_aniso_label
_atom_site_aniso_type_symbol
_atom_site_aniso_U_11
_atom_site_aniso_U_22
_atom_site_aniso_U_33
_atom_site_aniso_U_12
_atom_site_aniso_U_13
_atom_site_aniso_U_23
P1 P5+ 0.0078(3) 0.0093(3) 0.0079(2) 0 0 0
Na1 Na1+ 0.0186(4) 0.0240(4) 0.0182(4) 0 0.0005(2) 0
O1 O2- 0.0199(4) 0.0202(4) 0.0188(4) -0.0052(3) 0.0063(3) 0.0016(3)
#End of TTdata_430433-ICSD