
#(C) 2019 by FIZ Karlsruhe - Leibniz Institute for Information Infrastructure.  All rights reserved.
data_430792-ICSD
_database_code_ICSD 430792
_audit_creation_date 2018-02-01
_chemical_name_systematic
'Sodium hydronium cerium(IV) dodecamolybdate dodecahydrate'
_chemical_formula_structural 'Na7 H (Ce Mo12 O42) (H2 O)12'
_chemical_formula_sum 'H25 Ce1 Mo12 Na7 O54'
_chemical_name_structure_type Na7HCeMo12O42(H2O)12
_exptl_crystal_density_diffrn 3.24
_cell_measurement_temperature 293.
_publ_section_title

;
Synthesis and structure of dodecamolybdates of tetravalent cerium, thorium,
uranium, neptunium, and plutonium
;
loop_
_citation_id
_citation_journal_full
_citation_year
_citation_journal_volume
_citation_page_first
_citation_page_last
_citation_journal_id_ASTM
primary 'Radiochemistry (Moscow, Russian Federation)' 2016 58 457 465 RDIOEO
loop_
_publ_author_name
'Charushnikova, I.A.'
'Gogolev, A.V.'
'Grigor''ev, M.S.'
'Fedoseev, A.M.'
_cell_length_a 19.0462(10)
_cell_length_b 19.0462(10)
_cell_length_c 11.4465(7)
_cell_angle_alpha 90
_cell_angle_beta 90
_cell_angle_gamma 120
_cell_volume 3596.
_cell_formula_units_Z 3
_symmetry_space_group_name_H-M 'R -3 H'
_symmetry_Int_Tables_number 148
_refine_ls_R_factor_all 0.0308
loop_
_symmetry_equiv_pos_site_id
_symmetry_equiv_pos_as_xyz
1 'x-y, x, -z'
2 'y, -x+y, -z'
3 '-x, -y, -z'
4 '-x+y, -x, z'
5 '-y, x-y, z'
6 'x, y, z'
7 'x-y+2/3, x+1/3, -z+1/3'
8 'y+2/3, -x+y+1/3, -z+1/3'
9 '-x+2/3, -y+1/3, -z+1/3'
10 '-x+y+2/3, -x+1/3, z+1/3'
11 '-y+2/3, x-y+1/3, z+1/3'
12 'x+2/3, y+1/3, z+1/3'
13 'x-y+1/3, x+2/3, -z+2/3'
14 'y+1/3, -x+y+2/3, -z+2/3'
15 '-x+1/3, -y+2/3, -z+2/3'
16 '-x+y+1/3, -x+2/3, z+2/3'
17 '-y+1/3, x-y+2/3, z+2/3'
18 'x+1/3, y+2/3, z+2/3'
loop_
_atom_type_symbol
_atom_type_oxidation_number
Ce4+ 4
Mo6+ 6
Na1+ 1
O2- -2
H1+ 1
O2- -2
H1+ 1
O2- -2
H1+ 1
loop_
_atom_site_label
_atom_site_type_symbol
_atom_site_symmetry_multiplicity
_atom_site_Wyckoff_symbol
_atom_site_fract_x
_atom_site_fract_y
_atom_site_fract_z
_atom_site_B_iso_or_equiv
_atom_site_occupancy
_atom_site_attached_hydrogens
Ce1 Ce4+ 3 a 0.6667 0.3333 0.3333 0.01049(4) 1 0
Mo1 Mo6+ 18 f 0.75322(2) 0.28564(2) 0.56924(2) 0.01553(4) 1 0
Mo2 Mo6+ 18 f 0.87282(2) 0.43257(2) 0.41340(2) 0.01612(4) 1 0
Na1 Na1+ 3 b 0.6667 0.3333 0.8333 0.0257(5) 1 0
Na2 Na1+ 18 f 0.99004(13) 0.39452(14) 0.1570(3) 0.0836(8) 1 0
O1 O2- 18 f 0.80804(8) 0.44303(8) 0.29077(13) 0.0148(2) 1 0
O2 O2- 18 f 0.64601(8) 0.24523(9) 0.50682(13) 0.0152(2) 1 0
O3 O2- 18 f 0.86594(9) 0.36872(11) 0.55147(15) 0.0212(3) 1 0
H1 H1+ 18 f 0.905 0.3761 0.5954 0.032 0.1667 0
O4 O2- 18 f 0.76343(13) 0.20165(12) 0.57548(18) 0.0269(3) 1 0
O5 O2- 18 f 0.74074(12) 0.30177(13) 0.71291(15) 0.0271(3) 1 0
O6 O2- 18 f 0.94489(11) 0.42473(14) 0.33570(19) 0.0290(4) 1 0
O7 O2- 18 f 0.92287(12) 0.52844(12) 0.46936(19) 0.0287(4) 1 0
O8 O2- 18 f 1.0932(3) 0.5318(3) 0.2103(4) 0.1005(19) 1 0
H2 H1+ 18 f 1.0764 0.5253 0.2796 0.121 1 0
H3 H1+ 18 f 1.1413 0.5694 0.209 0.121 1 0
O9 O2- 18 f 1.0031(3) 0.3858(3) -0.0691(10) 0.203(5) 1 0
H4 H1+ 18 f 1.0529 0.4072 -0.0841 0.243 1 0
H5 H1+ 18 f 0.9866 0.4164 -0.0991 0.243 1 0
loop_
_atom_site_aniso_label
_atom_site_aniso_type_symbol
_atom_site_aniso_U_11
_atom_site_aniso_U_22
_atom_site_aniso_U_33
_atom_site_aniso_U_12
_atom_site_aniso_U_13
_atom_site_aniso_U_23
Ce1 Ce4+ 0.01049(5) 0.01049(5) 0.01048(8) 0.00525(2) 0. 0.
Mo1 Mo6+ 0.01610(6) 0.01801(6) 0.01378(7) 0.00950(5) -0.00194(4) 0.00187(4)
Mo2 Mo6+ 0.01103(5) 0.01678(6) 0.01851(8) 0.00542(5) -0.00233(4) 0.00028(5)
Na1 Na1+ 0.0301(7) 0.0301(7) 0.0168(10) 0.0151(4) 0. 0.
Na2 Na1+ 0.0432(10) 0.0583(12) 0.158(2) 0.0318(9) 0.0342(13) 0.0186(15)
O1 O2- 0.0142(5) 0.0147(5) 0.0149(5) 0.0067(4) -0.0007(4) 0.0002(4)
O2 O2- 0.0146(5) 0.0159(5) 0.0149(5) 0.0074(4) 0.0007(4) 0.0017(4)
O3 O2- 0.0161(5) 0.0252(7) 0.0219(7) 0.0100(5) -0.0060(5) 0.0024(5)
O4 O2- 0.0333(9) 0.0250(7) 0.0286(9) 0.0193(7) -0.0026(7) 0.0027(6)
O5 O2- 0.0327(9) 0.0382(9) 0.0159(7) 0.0219(8) -0.0024(6) -0.0004(6)
O6 O2- 0.0180(6) 0.0387(10) 0.0308(9) 0.0145(7) 0.0034(6) 0.0025(7)
O7 O2- 0.0234(7) 0.0212(7) 0.0347(10) 0.0060(6) -0.0091(7) -0.0049(6)
O8 O2- 0.056(2) 0.091(3) 0.089(3) -0.013(2) 0.043(2) -0.019(3)
O9 O2- 0.061(3) 0.044(2) 0.457(14) -0.0084(19) 0.116(5) -0.048(5)
#End of TTdata_430792-ICSD