
#(C) 2019 by FIZ Karlsruhe - Leibniz Institute for Information Infrastructure.  All rights reserved.
data_430796-ICSD
_database_code_ICSD 430796
_audit_creation_date 2018-02-01
_chemical_name_systematic
'Sodium hydronium plutonium(IV) dodecamolybdate dodecahydrate'
_chemical_formula_structural 'Na7 H (Pu Mo12 O42) (H2 O)12'
_chemical_formula_sum 'H25 Mo12 Na7 O54 Pu1'
_chemical_name_structure_type Na7HCeMo12O42(H2O)12
_exptl_crystal_density_diffrn 3.43
_cell_measurement_temperature 100.
_publ_section_title

;
Synthesis and structure of dodecamolybdates of tetravalent cerium, thorium,
uranium, neptunium, and plutonium
;
loop_
_citation_id
_citation_journal_full
_citation_year
_citation_journal_volume
_citation_page_first
_citation_page_last
_citation_journal_id_ASTM
primary 'Radiochemistry (Moscow, Russian Federation)' 2016 58 457 465 RDIOEO
loop_
_publ_author_name
'Charushnikova, I.A.'
'Gogolev, A.V.'
'Grigor''ev, M.S.'
'Fedoseev, A.M.'
_cell_length_a 18.944(2)
_cell_length_b 18.944(2)
_cell_length_c 11.4263(17)
_cell_angle_alpha 90
_cell_angle_beta 90
_cell_angle_gamma 120
_cell_volume 3551.23
_cell_formula_units_Z 3
_symmetry_space_group_name_H-M 'R -3 H'
_symmetry_Int_Tables_number 148
_refine_ls_R_factor_all 0.0411
loop_
_symmetry_equiv_pos_site_id
_symmetry_equiv_pos_as_xyz
1 'x-y, x, -z'
2 'y, -x+y, -z'
3 '-x, -y, -z'
4 '-x+y, -x, z'
5 '-y, x-y, z'
6 'x, y, z'
7 'x-y+2/3, x+1/3, -z+1/3'
8 'y+2/3, -x+y+1/3, -z+1/3'
9 '-x+2/3, -y+1/3, -z+1/3'
10 '-x+y+2/3, -x+1/3, z+1/3'
11 '-y+2/3, x-y+1/3, z+1/3'
12 'x+2/3, y+1/3, z+1/3'
13 'x-y+1/3, x+2/3, -z+2/3'
14 'y+1/3, -x+y+2/3, -z+2/3'
15 '-x+1/3, -y+2/3, -z+2/3'
16 '-x+y+1/3, -x+2/3, z+2/3'
17 '-y+1/3, x-y+2/3, z+2/3'
18 'x+1/3, y+2/3, z+2/3'
loop_
_atom_type_symbol
_atom_type_oxidation_number
Pu0+ 0
Mo6+ 6
Na1+ 1
O2- -2
H1+ 1
O2- -2
H1+ 1
O2- -2
H1+ 1
loop_
_atom_site_label
_atom_site_type_symbol
_atom_site_symmetry_multiplicity
_atom_site_Wyckoff_symbol
_atom_site_fract_x
_atom_site_fract_y
_atom_site_fract_z
_atom_site_B_iso_or_equiv
_atom_site_occupancy
_atom_site_attached_hydrogens
Pu1 Pu0+ 3 a 0.6667 0.3333 0.3333 0.00722(14) 1 0
Mo1 Mo6+ 18 f 0.75370(4) 0.28575(4) 0.56945(5) 0.01181(15) 1 0
Mo2 Mo6+ 18 f 0.87326(4) 0.43330(4) 0.41375(6) 0.01217(15) 1 0
Na1 Na1+ 3 b 0.6667 0.3333 0.8333 0.0205(16) 1 0
Na2 Na1+ 18 f 0.9912(3) 0.3964(3) 0.1555(6) 0.076(2) 1 0
O1 O2- 18 f 0.8074(3) 0.4432(3) 0.2907(4) 0.0116(10) 1 0
O2 O2- 18 f 0.6458(3) 0.2450(3) 0.5075(4) 0.0124(10) 1 0
O3 O2- 18 f 0.8672(3) 0.3699(3) 0.5522(5) 0.0164(11) 1 0
H1 H1+ 18 f 0.9067 0.3777 0.5971 0.025 0.1667 0
O4 O2- 18 f 0.7639(3) 0.2010(3) 0.5749(5) 0.0177(11) 1 0
O5 O2- 18 f 0.7409(3) 0.3015(4) 0.7144(5) 0.0202(12) 1 0
O6 O2- 18 f 0.9460(3) 0.4258(3) 0.3356(5) 0.0190(11) 1 0
O7 O2- 18 f 0.9230(3) 0.5295(3) 0.4697(5) 0.0201(12) 1 0
O8 O2- 18 f 1.0928(5) 0.5336(6) 0.2096(8) 0.080(4) 1 0
H2 H1+ 18 f 1.0764 0.5253 0.2796 0.096 1 0
H3 H1+ 18 f 1.1413 0.5694 0.209 0.096 1 0
O9 O2- 18 f 1.0025(6) 0.3847(6) -0.0729(18) 0.214(12) 1 0
H4 H1+ 18 f 1.0529 0.4072 -0.0841 0.256 1 0
H5 H1+ 18 f 0.9866 0.4164 -0.0991 0.256 1 0
loop_
_atom_site_aniso_label
_atom_site_aniso_type_symbol
_atom_site_aniso_U_11
_atom_site_aniso_U_22
_atom_site_aniso_U_33
_atom_site_aniso_U_12
_atom_site_aniso_U_13
_atom_site_aniso_U_23
Pu1 Pu0+ 0.00674(18) 0.00674(18) 0.0082(3) 0.00337(9) 0. 0.
Mo1 Mo6+ 0.0119(3) 0.0134(3) 0.0112(3) 0.0071(2) -0.0015(2) 0.0014(2)
Mo2 Mo6+ 0.0082(3) 0.0121(3) 0.0151(3) 0.0042(2) -0.0019(2) -0.0002(2)
Na1 Na1+ 0.020(2) 0.020(2) 0.021(4) 0.0102(12) 0. 0.
Na2 Na1+ 0.043(3) 0.045(3) 0.148(6) 0.028(2) 0.040(3) 0.027(3)
O1 O2- 0.011(2) 0.009(2) 0.014(3) 0.0040(19) 0.0014(19) -0.0002(18)
O2 O2- 0.012(2) 0.013(2) 0.011(3) 0.006(2) 0.0006(19) -0.0006(19)
O3 O2- 0.011(2) 0.020(3) 0.020(3) 0.009(2) -0.003(2) 0.002(2)
O4 O2- 0.022(3) 0.022(3) 0.012(3) 0.012(2) -0.001(2) 0.001(2)
O5 O2- 0.020(3) 0.030(3) 0.013(3) 0.013(2) -0.001(2) 0.002(2)
O6 O2- 0.014(3) 0.021(3) 0.022(3) 0.009(2) 0.000(2) 0.001(2)
O7 O2- 0.010(2) 0.017(3) 0.028(3) 0.003(2) -0.006(2) -0.004(2)
O8 O2- 0.036(5) 0.070(6) 0.081(7) -0.013(4) 0.036(5) -0.029(5)
O9 O2- 0.063(7) 0.033(6) 0.49(3) -0.020(5) 0.142(13) -0.066(11)
#End of TTdata_430796-ICSD