
#(C) 2019 by FIZ Karlsruhe - Leibniz Institute for Information Infrastructure.  All rights reserved.
data_430831-ICSD
_database_code_ICSD 430831
_audit_creation_date 2017-08-01
_chemical_name_systematic 'Trisodium difluoro-disulfato-chromate(III)'
_chemical_formula_structural 'Na3 Cr F2 (S O4)2'
_chemical_formula_sum 'Cr1 F2 Na3 O8 S2'
_chemical_name_structure_type Na3CrF2(SO4)2
_exptl_crystal_density_diffrn 2.91
_cell_measurement_temperature 150.
_publ_section_title

;
Synthesis and structural characterisation of transition metal fluoride
sulfates
;
loop_
_citation_id
_citation_journal_full
_citation_year
_citation_journal_volume
_citation_page_first
_citation_page_last
_citation_journal_id_ASTM
primary 'Dalton Transactions' 2016 45 8854 8861 DTARAF
loop_
_publ_author_name
'Marshall, Kayleigh L.'
'Wang, Qianlong'
'Sullivan, Hannah S. I.'
'Weller, Mark T.'
_cell_length_a 8.7463(5)
_cell_length_b 13.8814(7)
_cell_length_c 6.6009(3)
_cell_angle_alpha 90
_cell_angle_beta 90
_cell_angle_gamma 90
_cell_volume 801.42
_cell_formula_units_Z 4
_symmetry_space_group_name_H-M 'P b c n'
_symmetry_Int_Tables_number 60
_refine_ls_R_factor_all 0.0458
loop_
_symmetry_equiv_pos_site_id
_symmetry_equiv_pos_as_xyz
1 'x, -y, z+1/2'
2 '-x+1/2, y+1/2, z'
3 'x+1/2, y+1/2, -z+1/2'
4 '-x, -y, -z'
5 '-x, y, -z+1/2'
6 'x+1/2, -y+1/2, -z'
7 '-x+1/2, -y+1/2, z+1/2'
8 'x, y, z'
loop_
_atom_type_symbol
_atom_type_oxidation_number
Cr3+ 3
S6+ 6
Na1+ 1
F1- -1
O2- -2
loop_
_atom_site_label
_atom_site_type_symbol
_atom_site_symmetry_multiplicity
_atom_site_Wyckoff_symbol
_atom_site_fract_x
_atom_site_fract_y
_atom_site_fract_z
_atom_site_B_iso_or_equiv
_atom_site_occupancy
_atom_site_attached_hydrogens
Cr1 Cr3+ 4 c 0.5 1.19628(5) 0.25 0.0085(3) 1 0
S1 S6+ 8 d 0.19367(9) 1.14333(6) 0.50013(11) 0.0084(3) 1 0
Na1 Na1+ 4 c 0.5 0.95455(16) 0.25 0.0148(5) 1 0
Na2 Na1+ 8 d 0.16964(18) 1.09708(13) 0.0180(2) 0.0161(4) 1 0
F1 F1- 8 d 0.4318(2) 1.09754(15) 0.0743(3) 0.0137(5) 1 0
O1 O2- 8 d -0.0544(3) 1.20106(17) -0.0494(4) 0.0130(6) 1 0
O2 O2- 8 d 0.2051(3) 1.29243(19) -0.1219(5) 0.0173(6) 1 0
O3 O2- 8 d 0.7308(3) 0.8880(2) 0.3168(4) 0.0173(6) 1 0
O4 O2- 8 d 0.1439(4) 1.0628(2) 0.3760(4) 0.0220(6) 1 0
loop_
_atom_site_aniso_label
_atom_site_aniso_type_symbol
_atom_site_aniso_U_11
_atom_site_aniso_U_22
_atom_site_aniso_U_33
_atom_site_aniso_U_12
_atom_site_aniso_U_13
_atom_site_aniso_U_23
Cr1 Cr3+ 0.0078(5) 0.0092(5) 0.0085(5) 0. -0.0004(3) 0.
S1 S6+ 0.0095(5) 0.0076(5) 0.0082(5) 0.0000(3) 0.0008(3) 0.0004(3)
Na1 Na1+ 0.0157(10) 0.0157(11) 0.0132(10) 0. -0.0018(7) 0.
Na2 Na1+ 0.0128(8) 0.0222(9) 0.0133(7) 0.0028(6) -0.0005(5) -0.0037(5)
F1 F1- 0.0131(10) 0.0135(10) 0.0144(10) -0.0016(7) -0.0024(8) -0.0013(8)
O1 O2- 0.0114(13) 0.0126(13) 0.0151(13) 0.0000(10) 0.0013(10) 0.0018(9)
O2 O2- 0.0128(13) 0.0160(13) 0.0231(14) 0.0022(10) -0.0061(11) -0.0097(11)
O3 O2- 0.0177(14) 0.0238(15) 0.0103(12) 0.0064(11) -0.0006(10) 0.0063(11)
O4 O2- 0.0303(15) 0.0152(13) 0.0204(13) -0.0032(12) -0.0011(13) -0.0075(12)
#End of TTdata_430831-ICSD