
#(C) 2019 by FIZ Karlsruhe - Leibniz Institute for Information Infrastructure.  All rights reserved.
data_430830-ICSD
_database_code_ICSD 430830
_audit_creation_date 2017-08-01
_chemical_name_systematic 'Disodium trifluoro-sulfato-vanadate(III)'
_chemical_formula_structural 'Na2 V F3 (S O4)'
_chemical_formula_sum 'F3 Na2 O4 S1 V1'
_exptl_crystal_density_diffrn 3.04
_cell_measurement_temperature 150.
_publ_section_title

;
Synthesis and structural characterisation of transition metal fluoride
sulfates
;
loop_
_citation_id
_citation_journal_full
_citation_year
_citation_journal_volume
_citation_page_first
_citation_page_last
_citation_journal_id_ASTM
primary 'Dalton Transactions' 2016 45 8854 8861 DTARAF
loop_
_publ_author_name
'Marshall, Kayleigh L.'
'Wang, Qianlong'
'Sullivan, Hannah S. I.'
'Weller, Mark T.'
_cell_length_a 6.3555(5)
_cell_length_b 6.4255(8)
_cell_length_c 7.3724(7)
_cell_angle_alpha 65.119(11)
_cell_angle_beta 89.696(7)
_cell_angle_gamma 86.853(8)
_cell_volume 272.66
_cell_formula_units_Z 2
_symmetry_space_group_name_H-M 'P -1'
_symmetry_Int_Tables_number 2
_refine_ls_R_factor_all 0.0267
loop_
_symmetry_equiv_pos_site_id
_symmetry_equiv_pos_as_xyz
1 '-x, -y, -z'
2 'x, y, z'
loop_
_atom_type_symbol
_atom_type_oxidation_number
O2- -2
F1- -1
Na1+ 1
S6+ 6
V3+ 3
loop_
_atom_site_label
_atom_site_type_symbol
_atom_site_symmetry_multiplicity
_atom_site_Wyckoff_symbol
_atom_site_fract_x
_atom_site_fract_y
_atom_site_fract_z
_atom_site_B_iso_or_equiv
_atom_site_occupancy
_atom_site_attached_hydrogens
O1 O2- 2 i -0.1482(3) 0.4089(3) 0.6620(3) 0.0136(4) 1 0
O2 O2- 2 i 0.5500(3) 0.2076(3) 0.6374(3) 0.0102(4) 1 0
O3 O2- 2 i -0.1473(3) 1.0004(3) 0.8481(3) 0.0117(4) 1 0
O4 O2- 2 i 0.3824(3) -0.2384(3) 1.0581(3) 0.0110(4) 1 0
F1 F1- 2 i 0.2150(2) 1.0055(3) 0.5765(2) 0.0099(3) 1 0
F2 F1- 2 i -0.4272(3) 0.7309(3) 0.7369(2) 0.0122(3) 1 0
F3 F1- 2 i 0.2312(2) 0.4793(3) 0.9007(2) 0.0115(3) 1 0
Na1 Na1+ 2 i -0.03645(17) 0.72834(18) 0.72312(16) 0.0134(2) 1 0
Na2 Na1+ 2 i 0.20529(18) 0.1953(2) 0.78937(17) 0.0157(3) 1 0
S1 S6+ 2 i 0.27555(10) -0.21541(11) 1.23131(9) 0.00734(15) 1 0
V1 V3+ 1 e 0.5 0.5 1. 0.00615(15) 1 0
V2 V3+ 1 f -0.5 1. 0.5 0.00871(15) 1 0
loop_
_atom_site_aniso_label
_atom_site_aniso_type_symbol
_atom_site_aniso_U_11
_atom_site_aniso_U_22
_atom_site_aniso_U_33
_atom_site_aniso_U_12
_atom_site_aniso_U_13
_atom_site_aniso_U_23
O1 O2- 0.0130(10) 0.0123(10) 0.0167(10) -0.0063(8) 0.0048(8) -0.0066(8)
O2 O2- 0.0119(9) 0.0101(9) 0.0106(9) 0.0003(7) -0.0034(7) -0.0063(7)
O3 O2- 0.0118(10) 0.0126(10) 0.0131(9) 0.0025(7) -0.0017(7) -0.0081(8)
O4 O2- 0.0176(10) 0.0097(9) 0.0064(8) -0.0007(8) 0.0046(7) -0.0041(7)
F1 F1- 0.0092(8) 0.0117(8) 0.0088(7) -0.0007(6) 0.0018(6) -0.0044(6)
F2 F1- 0.0163(8) 0.0124(8) 0.0072(7) -0.0022(6) 0.0016(6) -0.0032(6)
F3 F1- 0.0110(8) 0.0109(8) 0.0119(7) -0.0002(6) -0.0031(6) -0.0040(6)
Na1 Na1+ 0.0122(6) 0.0107(5) 0.0166(6) 0.0011(4) -0.0028(4) -0.0054(4)
Na2 Na1+ 0.0117(6) 0.0222(6) 0.0201(6) -0.0023(5) 0.0030(5) -0.0156(5)
S1 S6+ 0.0074(3) 0.0094(3) 0.0066(3) -0.0010(2) 0.0013(2) -0.0047(2)
V1 V3+ 0.0070(3) 0.0073(3) 0.0044(3) -0.0006(2) 0.0004(2) -0.0028(2)
V2 V3+ 0.0073(3) 0.0136(3) 0.0079(3) -0.0022(2) 0.0025(2) -0.0070(3)
#End of TTdata_430830-ICSD