
#(C) 2019 by FIZ Karlsruhe - Leibniz Institute for Information Infrastructure.  All rights reserved.
data_431205-ICSD
_database_code_ICSD 431205
_audit_creation_date 2017-08-01
_chemical_name_systematic 'Trisodium antimony(V) tetrasulfide'
_chemical_formula_structural 'Na3 Sb S4'
_chemical_formula_sum 'Na3 S4 Sb1'
_chemical_name_structure_type Na3(PS4)
_exptl_crystal_density_diffrn 2.85
_cell_measurement_temperature 298.
_publ_section_title

;
Na3 Sb S4: a solution processable sodium superionic conductor for
all-solid-state sodium-ion batteries
;
loop_
_citation_id
_citation_journal_full
_citation_year
_citation_journal_volume
_citation_page_first
_citation_page_last
_citation_journal_id_ASTM
primary 'Angewandte Chemie, International Edition' 2016 55 9634 9638 ACIEF5
loop_
_publ_author_name
'Banerjee, Abhik'
'Park, Kern Ho'
'Heo, Jongwook W.'
'Nam, Young Jin'
'Moon, Chang Ki'
'Oh, Seung M.'
'Hong, Seung-Tae'
'Jung, Yoon Seok'
_cell_length_a 7.145244
_cell_length_b 7.145244
_cell_length_c 7.27695(5)
_cell_angle_alpha 90.
_cell_angle_beta 90.
_cell_angle_gamma 90.
_cell_volume 371.51
_cell_formula_units_Z 2
_symmetry_space_group_name_H-M 'P -4 21 c'
_symmetry_Int_Tables_number 114
_refine_ls_R_factor_all 0.0831
loop_
_symmetry_equiv_pos_site_id
_symmetry_equiv_pos_as_xyz
1 'y+1/2, x+1/2, z+1/2'
2 'y, -x, -z'
3 '-y+1/2, -x+1/2, z+1/2'
4 '-y, x, -z'
5 'x+1/2, -y+1/2, -z+1/2'
6 '-x, -y, z'
7 '-x+1/2, y+1/2, -z+1/2'
8 'x, y, z'
loop_
_atom_type_symbol
_atom_type_oxidation_number
Sb5+ 5
S2- -2
Na1+ 1
loop_
_atom_site_label
_atom_site_type_symbol
_atom_site_symmetry_multiplicity
_atom_site_Wyckoff_symbol
_atom_site_fract_x
_atom_site_fract_y
_atom_site_fract_z
_atom_site_B_iso_or_equiv
_atom_site_occupancy
_atom_site_attached_hydrogens
Sb1 Sb5+ 2 a 0. 0. 0. 0.00381 1. 0
S1 S2- 8 e 0.2954(4) 0.3292(4) 0.6802(4) 0.01439 1. 0
Na1 Na1+ 4 d 0. 0.5 0.4250(8) 0.02568 1. 0
Na2 Na1+ 2 b 0. 0. 0.5 0.02549 1. 0
loop_
_atom_site_aniso_label
_atom_site_aniso_type_symbol
_atom_site_aniso_U_11
_atom_site_aniso_U_22
_atom_site_aniso_U_33
_atom_site_aniso_U_12
_atom_site_aniso_U_13
_atom_site_aniso_U_23
Sb1 Sb5+ 0.00321(35) 0.00351(35) 0.0047(6) 0. 0. 0.
S1 S2- 0.0165(22) 0.0091(20) 0.0176(19) 0.0001(14) 0.0025(17) 0.0017(17)
Na1 Na1+ 0.020(4) 0.012(4) 0.045(4) -0.001(6) 0. 0.
Na2 Na1+ 0.0299(29) 0.0299(29) 0.017(4) 0. 0. 0.
#End of TTdata_431205-ICSD