
#(C) 2019 by FIZ Karlsruhe - Leibniz Institute for Information Infrastructure.  All rights reserved.
data_431344-ICSD
_database_code_ICSD 431344
_audit_creation_date 2017-08-01
_chemical_name_systematic
'23-Barium undecasodium tetrakis(tetranitridotantalate)'
_chemical_formula_structural 'Ba23 Na11 (Ta N4)4'
_chemical_formula_sum 'Ba23 N16 Na11 Ta4'
_exptl_crystal_density_diffrn 3.74
_cell_measurement_temperature 293.
_publ_section_title

;
Chemical twinning of salt and metal in the subnitridometalates Ba23 Na11 (M
N4)4 with M = V, Nb, Ta
;
loop_
_citation_id
_citation_journal_full
_citation_year
_citation_journal_volume
_citation_page_first
_citation_page_last
_citation_journal_id_ASTM
primary 'Angewandte Chemie, International Edition' 2016 55 10868 10871 ACIEF5
loop_
_publ_author_name
'Woersching, Matthias'
'Tambornino, Frank'
'Datz, Stefan'
'Hoch, Constantin'
_cell_length_a 14.3603(12)
_cell_length_b 14.3603(12)
_cell_length_c 18.7552(17)
_cell_angle_alpha 90.
_cell_angle_beta 90.
_cell_angle_gamma 90.
_cell_volume 3867.66
_cell_formula_units_Z 2
_symmetry_space_group_name_H-M 'P 42/n Z'
_symmetry_Int_Tables_number 86
_refine_ls_R_factor_all 0.0387
loop_
_symmetry_equiv_pos_site_id
_symmetry_equiv_pos_as_xyz
1 '-y+1/2, x, -z+1/2'
2 'y, -x+1/2, -z+1/2'
3 'x+1/2, y+1/2, -z'
4 '-x, -y, -z'
5 'y+1/2, -x, z+1/2'
6 '-y, x+1/2, z+1/2'
7 '-x+1/2, -y+1/2, z'
8 'x, y, z'
loop_
_atom_type_symbol
_atom_type_oxidation_number
Ta0+ 0
Ba0+ 0
Na0+ 0
N0+ 0
loop_
_atom_site_label
_atom_site_type_symbol
_atom_site_symmetry_multiplicity
_atom_site_Wyckoff_symbol
_atom_site_fract_x
_atom_site_fract_y
_atom_site_fract_z
_atom_site_B_iso_or_equiv
_atom_site_occupancy
_atom_site_attached_hydrogens
Ta1 Ta0+ 8 g 0.33950(3) 0.06868(3) 0.14162(2) 0.02366(10) 1 0
Ba1 Ba0+ 8 g 0.03382(5) 0.13469(5) 0.12185(3) 0.03055(15) 1 0
Ba2 Ba0+ 8 g 0.07006(7) 0.63710(6) 0.19620(4) 0.0466(2) 1 0
Ba3 Ba0+ 8 g 0.28603(6) 0.56993(7) 0.03125(4) 0.0481(2) 1 0
Ba4 Ba0+ 8 g 0.51379(6) 0.12281(6) 0.02008(4) 0.0427(2) 1 0
Ba5 Ba0+ 8 g 0.51468(5) 0.16232(5) 0.24710(4) 0.03042(16) 1 0
Ba6 Ba0+ 4 f 0.25 0.25 0.04042(5) 0.0313(2) 1 0
Ba7 Ba0+ 2 a 0.25 0.25 0.25 0.0324(3) 1 0
Na1 Na0+ 8 g 0.0495(7) 0.1943(6) 0.6522(4) 0.105(3) 1 0
Na2 Na0+ 8 g 0.3605(5) 0.0718(5) 0.6201(3) 0.0716(19) 1 0
Na3 Na0+ 4 e 0.75 0.25 0.1374(4) 0.054(2) 1 0
Na4 Na0+ 2 b 0.25 0.25 0.75 0.169(10) 1 0
N1 N0+ 8 g 0.0270(7) 0.1410(8) 0.2609(4) 0.038(2) 1 0
N2 N0+ 8 g 0.1030(7) 0.3099(7) 0.1265(5) 0.031(2) 1 0
N3 N0+ 8 g 0.1094(7) 0.5250(7) 0.0794(5) 0.035(2) 1 0
N4 N0+ 8 g 0.2068(6) 0.0736(7) 0.1217(5) 0.035(2) 1 0
loop_
_atom_site_aniso_label
_atom_site_aniso_type_symbol
_atom_site_aniso_U_11
_atom_site_aniso_U_22
_atom_site_aniso_U_33
_atom_site_aniso_U_12
_atom_site_aniso_U_13
_atom_site_aniso_U_23
Ta1 Ta0+ 0.0249(3) 0.0253(3) 0.02074(17) 0.0016(2) 0.0017(2) -0.0036(2)
Ba1 Ba0+ 0.0305(4) 0.0338(4) 0.0274(3) -0.0016(3) -0.0015(3) -0.0007(3)
Ba2 Ba0+ 0.0611(6) 0.0374(5) 0.0412(4) 0.0154(4) -0.0047(4) -0.0030(4)
Ba3 Ba0+ 0.0403(5) 0.0567(6) 0.0475(4) -0.0032(4) 0.0017(4) 0.0240(4)
Ba4 Ba0+ 0.0448(5) 0.0442(5) 0.0391(4) 0.0025(4) 0.0155(4) -0.0106(4)
Ba5 Ba0+ 0.0289(4) 0.0339(4) 0.0285(3) 0.0019(3) -0.0009(3) -0.0032(3)
Ba6 Ba0+ 0.0318(6) 0.0379(6) 0.0242(4) 0.0030(5) 0. 0.
Ba7 Ba0+ 0.0344(5) 0.0344(5) 0.0285(7) 0. 0. 0.
Na1 Na0+ 0.155(9) 0.082(6) 0.077(5) -0.025(5) 0.022(5) -0.006(4)
Na2 Na0+ 0.061(4) 0.080(5) 0.074(4) 0.000(4) -0.006(3) 0.019(4)
Na3 Na0+ 0.030(4) 0.072(6) 0.061(5) -0.007(4) 0. 0.
Na4 Na0+ 0.133(13) 0.133(13) 0.24(3) 0. 0. 0.
N1 N0+ 0.042(6) 0.054(7) 0.018(4) -0.008(5) 0.001(4) 0.005(5)
N2 N0+ 0.031(5) 0.031(5) 0.032(5) 0.000(4) 0.000(4) 0.005(4)
N3 N0+ 0.043(6) 0.035(6) 0.028(5) 0.002(5) -0.012(4) 0.015(4)
N4 N0+ 0.024(5) 0.048(7) 0.034(5) 0.012(4) 0.000(4) 0.002(5)
#End of TTdata_431344-ICSD