
#(C) 2018 by FIZ Karlsruhe - Leibniz Institute for Information Infrastructure.  All rights reserved.
data_431359-ICSD
_database_code_ICSD 431359
_audit_creation_date 2017-08-01
_chemical_name_systematic 'Lithium pentasulfate(VI)'
_chemical_formula_structural 'Li2 (S5 O16)'
_chemical_formula_sum 'Li2 O16 S5'
_exptl_crystal_density_diffrn 2.44
_cell_measurement_temperature 100.
_publ_section_title

;
The pentasulfates A2[S5O16] (a = li, na, cs, ag): rare species by reactions in
SO3
;
loop_
_citation_id
_citation_journal_full
_citation_year
_citation_journal_volume
_citation_page_first
_citation_page_last
_citation_journal_id_ASTM
primary 'European Journal of Inorganic Chemistry' 2017 2017 958 964 EJICFO
loop_
_publ_author_name
'Schindler, Lisa Verena'
'Struckmann, Mona'
'Becker, Anna'
'Wickleder, Mathias S.'
_cell_length_a 18.5071(7)
_cell_length_b 6.6545(2)
_cell_length_c 9.9280(4)
_cell_angle_alpha 90
_cell_angle_beta 106.764(2)
_cell_angle_gamma 90
_cell_volume 1170.72
_cell_formula_units_Z 4
_symmetry_space_group_name_H-M 'C 1 2/c 1'
_symmetry_Int_Tables_number 15
_refine_ls_R_factor_all 0.0161
loop_
_symmetry_equiv_pos_site_id
_symmetry_equiv_pos_as_xyz
1 'x, -y, z+1/2'
2 '-x, -y, -z'
3 '-x, y, -z+1/2'
4 'x, y, z'
5 'x+1/2, -y+1/2, z+1/2'
6 '-x+1/2, -y+1/2, -z'
7 '-x+1/2, y+1/2, -z+1/2'
8 'x+1/2, y+1/2, z'
loop_
_atom_type_symbol
_atom_type_oxidation_number
S6+ 6
O2- -2
Li1+ 1
loop_
_atom_site_label
_atom_site_type_symbol
_atom_site_symmetry_multiplicity
_atom_site_Wyckoff_symbol
_atom_site_fract_x
_atom_site_fract_y
_atom_site_fract_z
_atom_site_B_iso_or_equiv
_atom_site_occupancy
_atom_site_attached_hydrogens
S1 S6+ 8 f 0.62221(2) 0.12694(2) 0.89388(2) 0.00657(3) 1 0
S2 S6+ 8 f 0.65955(2) 0.44596(2) 0.72504(2) 0.00562(3) 1 0
S3 S6+ 4 e 0.5 -0.13047(3) 0.75 0.00670(3) 1 0
O1 O2- 8 f 0.67769(2) 0.22178(6) 0.82579(5) 0.00854(6) 1 0
O2 O2- 8 f 0.48314(3) -0.23036(7) 0.61939(5) 0.01155(7) 1 0
O3 O2- 8 f 0.58097(3) 0.42365(7) 0.65441(5) 0.01142(7) 1 0
O4 O2- 8 f 0.71082(3) 0.41501(7) 0.64444(5) 0.01136(7) 1 0
O5 O2- 8 f 0.57664(3) 0.26821(7) 0.93805(5) 0.01119(7) 1 0
O6 O2- 8 f 0.56717(2) 0.01811(7) 0.74960(4) 0.00850(6) 1 0
O7 O2- 8 f 0.67801(3) 0.59722(7) 0.83110(5) 0.01123(7) 1 0
O8 O2- 8 f 0.66006(3) -0.02685(7) 0.98578(5) 0.01098(7) 1 0
Li1 Li1+ 4 c 0.75 0.75 1. 0.0128(3) 1 0
Li2 Li1+ 4 a 0.5 0.5 0.5 0.0227(4) 1 0
loop_
_atom_site_aniso_label
_atom_site_aniso_type_symbol
_atom_site_aniso_U_11
_atom_site_aniso_U_22
_atom_site_aniso_U_33
_atom_site_aniso_U_12
_atom_site_aniso_U_13
_atom_site_aniso_U_23
S1 S6+ 0.00639(5) 0.00670(5) 0.00680(5) 0.00036(3) 0.00218(4) 0.00111(3)
S2 S6+ 0.00553(5) 0.00531(5) 0.00583(5) -0.00053(3) 0.00137(3) -0.00027(3)
S3 S6+ 0.00725(7) 0.00540(6) 0.00804(7) 0. 0.00316(5) 0.
O1 O2- 0.00609(14) 0.00807(14) 0.01200(16) 0.00109(11) 0.00346(12) 0.00400(12)
O2 O2- 0.01146(16) 0.01083(16) 0.01271(17) -0.00003(13) 0.00403(13) -0.00569(13)
O3 O2- 0.00658(15) 0.01261(17) 0.01185(16) -0.00099(13) -0.00248(12) 0.00378(13)
O4 O2- 0.01418(18) 0.01040(16) 0.01293(17) -0.00096(13) 0.00935(14) -0.00068(13)
O5 O2- 0.01077(16) 0.01176(17) 0.01250(17) 0.00172(13) 0.00568(13) -0.00221(13)
O6 O2- 0.00898(15) 0.00938(15) 0.00743(14) -0.00268(12) 0.00285(12) 0.00038(11)
O7 O2- 0.01411(18) 0.00882(15) 0.01043(16) -0.00213(13) 0.00301(13) -0.00444(12)
O8 O2- 0.01167(17) 0.01050(16) 0.00969(15) 0.00139(13) 0.00138(13) 0.00472(13)
Li1 Li1+ 0.0138(7) 0.0122(7) 0.0124(7) -0.0012(5) 0.0041(5) -0.0002(5)
Li2 Li1+ 0.0188(9) 0.0262(10) 0.0167(8) 0.0078(8) -0.0052(7) -0.0010(7)
#End of TTdata_431359-ICSD