
#(C) 2018 by FIZ Karlsruhe - Leibniz Institute for Information Infrastructure.  All rights reserved.
data_431426-ICSD
_database_code_ICSD 431426
_audit_creation_date 2017-08-01
_chemical_name_systematic 'Dilithium disulfate dihydrogen sulfate(VI)'
_chemical_formula_structural 'Li2 (S2 O7) (H2 S O4)'
_chemical_formula_sum 'H2 Li2 O11 S3'
_exptl_crystal_density_diffrn 2.32
_cell_measurement_temperature 100.
_publ_section_title

;
Increasing H2SO4 contents in disulfates cresting in the new
hydrogenium-bis-hydrogendisulfate anion [H(HS2O7)2]-: Li2[S2O7]*H2SO4,
Li[HS2O7], and Li[H(HS2O7)2]
;
loop_
_citation_id
_citation_journal_full
_citation_year
_citation_journal_volume
_citation_page_first
_citation_page_last
_citation_journal_id_ASTM
primary 'New Journal of Chemistry' 2017 41 56 62 NJCHE5
loop_
_publ_author_name
'Schindler, Lisa Verena'
'Wickleder, Mathias S.'
_cell_length_a 9.4567(8)
_cell_length_b 4.8577(4)
_cell_length_c 17.9386(14)
_cell_angle_alpha 90
_cell_angle_beta 90
_cell_angle_gamma 90
_cell_volume 824.06
_cell_formula_units_Z 4
_symmetry_space_group_name_H-M 'P c a 21'
_symmetry_Int_Tables_number 29
_refine_ls_R_factor_all 0.0135
loop_
_symmetry_equiv_pos_site_id
_symmetry_equiv_pos_as_xyz
1 'x+1/2, -y, z'
2 '-x+1/2, y, z+1/2'
3 '-x, -y, z+1/2'
4 'x, y, z'
loop_
_atom_type_symbol
_atom_type_oxidation_number
S6+ 6
O2- -2
Li1+ 1
H1+ 1
loop_
_atom_site_label
_atom_site_type_symbol
_atom_site_symmetry_multiplicity
_atom_site_Wyckoff_symbol
_atom_site_fract_x
_atom_site_fract_y
_atom_site_fract_z
_atom_site_B_iso_or_equiv
_atom_site_occupancy
_atom_site_attached_hydrogens
S1 S6+ 4 a 0.79748(2) 0.08630(4) 0.43782(2) 0.00473(3) 1 0
S2 S6+ 4 a 0.63968(2) 0.10949(4) 0.30328(2) 0.00474(3) 1 0
S3 S6+ 4 a 1.07475(2) 0.28063(4) 0.61753(2) 0.00601(3) 1 0
O1 O2- 4 a 1.02864(9) -0.02230(14) 0.62376(4) 0.01274(11) 1 0
O2 O2- 4 a 0.90203(7) 0.26116(13) 0.40260(4) 0.00756(9) 1 0
O3 O2- 4 a 1.01538(8) 0.38214(14) 0.54982(4) 0.01017(10) 1 0
O4 O2- 4 a 0.54476(7) 0.29826(13) 0.34123(4) 0.00795(9) 1 0
O5 O2- 4 a 0.69128(7) 0.22990(14) 0.47955(4) 0.00889(9) 1 0
O6 O2- 4 a 0.75082(7) 0.24107(14) 0.26211(4) 0.00915(10) 1 0
O7 O2- 4 a 1.23682(7) 0.27099(17) 0.61169(4) 0.01375(11) 1 0
O8 O2- 4 a 1.04297(7) 0.41953(13) 0.68558(4) 0.00895(9) 1 0
O9 O2- 4 a 0.71540(7) -0.06829(12) 0.36915(4) 0.00624(8) 1 0
O10 O2- 4 a 0.85473(6) -0.14987(13) 0.47682(3) 0.00733(9) 1 0
O11 O2- 4 a 0.56835(7) -0.10811(13) 0.26290(3) 0.00733(9) 1 0
Li1 Li1+ 4 a 0.93305(19) 0.4059(4) 0.28830(11) 0.0109(3) 1 0
Li2 Li1+ 4 a 0.51082(19) 0.4139(3) 0.45452(11) 0.0109(3) 1 0
H1 H1+ 4 a 1.268(2) 0.246(4) 0.5699(12) 0.026(5) 1 0
H2 H1+ 4 a 1.008(3) -0.047(6) 0.6660(16) 0.042(7) 1 0
loop_
_atom_site_aniso_label
_atom_site_aniso_type_symbol
_atom_site_aniso_U_11
_atom_site_aniso_U_22
_atom_site_aniso_U_33
_atom_site_aniso_U_12
_atom_site_aniso_U_13
_atom_site_aniso_U_23
S1 S6+ 0.00446(6) 0.00514(6) 0.00459(6) 0.00030(5) -0.00001(5) 0.00015(5)
S2 S6+ 0.00446(6) 0.00495(6) 0.00480(6) -0.00022(5) -0.00032(5) 0.00007(5)
S3 S6+ 0.00724(6) 0.00623(6) 0.00454(6) -0.00051(5) 0.00023(5) 0.00004(5)
O1 O2- 0.0237(3) 0.0062(2) 0.0083(2) -0.0030(2) 0.0034(2) 0.00007(18)
O2 O2- 0.0080(2) 0.0078(2) 0.0069(2) -0.00308(17) 0.00051(18) 0.00061(17)
O3 O2- 0.0126(2) 0.0106(2) 0.0073(2) -0.00159(19) -0.00209(19) 0.00320(18)
O4 O2- 0.0093(2) 0.0076(2) 0.0069(2) 0.00350(16) -0.00021(18) -0.00102(17)
O5 O2- 0.0076(2) 0.0116(2) 0.0075(2) 0.00364(17) 0.00041(17) -0.00225(18)
O6 O2- 0.0067(2) 0.0126(2) 0.0082(2) -0.00321(18) 0.00017(18) 0.00303(17)
O7 O2- 0.0071(2) 0.0247(3) 0.0095(2) 0.0008(2) 0.0010(2) -0.0035(2)
O8 O2- 0.0115(2) 0.0086(2) 0.0067(2) -0.00104(18) 0.00189(19) -0.00206(17)
O9 O2- 0.00704(18) 0.00546(19) 0.00622(19) 0.00017(16) -0.00210(15) 0.00015(16)
O10 O2- 0.0076(2) 0.0073(2) 0.0071(2) 0.00162(16) -0.00049(16) 0.00198(17)
O11 O2- 0.0087(2) 0.0065(2) 0.0068(2) -0.00157(16) -0.00211(17) -0.00071(16)
Li1 Li1+ 0.0103(7) 0.0094(7) 0.0130(7) -0.0010(5) -0.0008(5) -0.0005(5)
Li2 Li1+ 0.0106(7) 0.0107(6) 0.0113(7) 0.0003(5) 0.0002(5) -0.0018(5)
#End of TTdata_431426-ICSD