
#(C) 2019 by FIZ Karlsruhe - Leibniz Institute for Information Infrastructure.  All rights reserved.
data_431430-ICSD
_database_code_ICSD 431430
_audit_creation_date 2017-08-01
_chemical_name_systematic 'Disodium cadmium fluorophosphate'
_chemical_formula_structural 'Na2 Cd P O4 F'
_chemical_formula_sum 'Cd1 F1 Na2 O4 P1'
_chemical_name_structure_type Ca2NaFSiO4
_exptl_crystal_density_diffrn 4.
_cell_measurement_temperature 298.
_publ_section_title

;
Phase equilibria in the NaF-CdO-NaPO3 system at 873 K and crystal structure
and physico-chemical characterizations of the new Na2CdPO4F fluorophosphate
;
loop_
_citation_id
_citation_journal_full
_citation_year
_citation_journal_volume
_citation_page_first
_citation_page_last
_citation_journal_id_ASTM
primary 'Journal of Solid State Chemistry' 2017 248 75 86 JSSCBI
loop_
_publ_author_name
'Aboussatar, Mohamed'
'Mbarek, Aicha'
'Naili, Houcine'
'El-Ghozzi, Malika'
'Chadeyron, Genevieve'
'Avignant, Daniel'
'Zambon, Daniel'
_cell_length_a 5.37308(9)
_cell_length_b 6.85297(11)
_cell_length_c 12.2691(2)
_cell_angle_alpha 90.
_cell_angle_beta 90.
_cell_angle_gamma 90.
_cell_volume 451.77
_cell_formula_units_Z 4
_symmetry_space_group_name_H-M 'P n m a'
_symmetry_Int_Tables_number 62
_refine_ls_R_factor_all 0.0282
loop_
_symmetry_equiv_pos_site_id
_symmetry_equiv_pos_as_xyz
1 'x+1/2, y, -z+1/2'
2 'x, -y+1/2, z'
3 '-x+1/2, y+1/2, z+1/2'
4 '-x, -y, -z'
5 '-x+1/2, -y, z+1/2'
6 '-x, y+1/2, -z'
7 'x+1/2, -y+1/2, -z+1/2'
8 'x, y, z'
loop_
_atom_type_symbol
_atom_type_oxidation_number
Na1+ 1
Cd2+ 2
P5+ 5
O2- -2
F1- -1
loop_
_atom_site_label
_atom_site_type_symbol
_atom_site_symmetry_multiplicity
_atom_site_Wyckoff_symbol
_atom_site_fract_x
_atom_site_fract_y
_atom_site_fract_z
_atom_site_B_iso_or_equiv
_atom_site_occupancy
_atom_site_attached_hydrogens
Na1 Na1+ 8 d 0.7620(12) 0.0076(4) 0.1734(2) 0.0055(8) 1. 0
Cd1 Cd2+ 4 c 0.2260(2) 0.25 0.09134(8) 0.0142(3) 1. 0
P1 P5+ 4 c 0.2138(8) 0.25 0.5771(3) 0.0046(9) 1. 0
O1 O2- 4 c 0.5720(12) 0.75 0.0664(7) 0.007(3) 1. 0
O2 O2- 4 c 0.8058(18) 0.25 0.0405(6) 0.014(3) 1. 0
O3 O2- 8 d 0.2948(11) 0.4304(7) 0.6400(3) 0.0083(17) 1. 0
F1 F1- 4 c -0.002(2) 0.25 0.2678(7) 0.022(2) 1. 0
#End of TTdata_431430-ICSD