
#(C) 2019 by FIZ Karlsruhe - Leibniz Institute for Information Infrastructure.  All rights reserved.
data_431571-ICSD
_database_code_ICSD 431571
_audit_creation_date 2016-08-01
_chemical_name_systematic 'Calcium-0.85 sodium-0.15 silicate-0.85 borate-0.15'
_chemical_formula_structural 'Ca1.85 Na0.15 (Si O4)0.85 (B O4)0.15'
_chemical_formula_sum 'B0.15 Ca1.85 Na0.15 O4 Si0.85'
_chemical_name_structure_type K2SO4(beta)
_chemical_name_mineral Belite
_exptl_crystal_density_diffrn 3.22
_cell_measurement_temperature 298.
_publ_section_title
'Reactive belite stabilization mechanisms by boron-bearing dopants'
loop_
_citation_id
_citation_journal_full
_citation_year
_citation_journal_volume
_citation_page_first
_citation_page_last
_citation_journal_id_ASTM
primary 'Cement and Concrete Research' 2012 42 598 606 CCNRAI
loop_
_publ_author_name
'Cuesta, Ana'
'Losilla, Enrique R.'
'Aranda, Miguel A.G.'
'Sanz, Jesus'
'De la Torre, Angeles G.'
_cell_length_a 6.84319(16)
_cell_length_b 5.45548(14)
_cell_length_c 9.23464(21)
_cell_angle_alpha 90.
_cell_angle_beta 90.
_cell_angle_gamma 90.
_cell_volume 344.75
_cell_formula_units_Z 4
_symmetry_space_group_name_H-M 'P n m a'
_symmetry_Int_Tables_number 62
_refine_ls_R_factor_all 0.0652
loop_
_symmetry_equiv_pos_site_id
_symmetry_equiv_pos_as_xyz
1 'x+1/2, y, -z+1/2'
2 'x, -y+1/2, z'
3 '-x+1/2, y+1/2, z+1/2'
4 '-x, -y, -z'
5 '-x+1/2, -y, z+1/2'
6 '-x, y+1/2, -z'
7 'x+1/2, -y+1/2, -z+1/2'
8 'x, y, z'
loop_
_atom_type_symbol
_atom_type_oxidation_number
Ca2+ 2
Si4+ 4
O2- -2
Na1+ 1
B3+ 3
loop_
_atom_site_label
_atom_site_type_symbol
_atom_site_symmetry_multiplicity
_atom_site_Wyckoff_symbol
_atom_site_fract_x
_atom_site_fract_y
_atom_site_fract_z
_atom_site_B_iso_or_equiv
_atom_site_occupancy
_atom_site_attached_hydrogens
Ca1 Ca2+ 8 d 0.32702(22) 0.2850(8) 0.57019(19) 0.0260(7) 0.4625 0
Ca2 Ca2+ 8 d 0.99117(18) 0.2709(9) 0.29384(15) 0.0107(6) 0.4625 0
Si1 Si4+ 4 c 0.77454(31) 0.25 0.59009(29) 0.0175(7) 0.85 0
O1 O2- 8 d 1.0027(7) 0.3246(11) 0.5427(5) 0.0375(22) 0.5 0
O2 O2- 8 d 0.7555(8) 0.0258(10) 0.7086(7) 0.0054(20) 0.5 0
O3 O2- 8 d 0.6517(7) 0.1838(13) 0.4439(5) 0.0279(19) 0.5 0
O4 O2- 8 d 0.6973(9) 0.4868(13) 0.6600(7) 0.0182(23) 0.5 0
Na1 Na1+ 8 d 0.32702(22) 0.2850(8) 0.57019(19) 0.0260(7) 0.0375 0
Na2 Na1+ 8 d 0.99117(18) 0.2709(9) 0.29384(15) 0.0107(6) 0.0375 0
B1 B3+ 4 c 0.77454(31) 0.25 0.59009(29) 0.0175(7) 0.15 0
#End of TTdata_431571-ICSD