
#(C) 2019 by FIZ Karlsruhe - Leibniz Institute for Information Infrastructure.  All rights reserved.
data_431958-ICSD
_database_code_ICSD 431958
_audit_creation_date 2017-08-01
_chemical_name_systematic 'Trisodium tetrafluoro-phosphat-germanate'
_chemical_formula_structural 'Na3 (Ge F4 (P O4))'
_chemical_formula_sum 'F4 Ge1 Na3 O4 P1'
_exptl_crystal_density_diffrn 3.24
_cell_measurement_temperature 203.
_publ_section_title

;
Multiple fluorine-substituted phosphate germanium fluorides and their thermal
stabilities
;
loop_
_citation_id
_citation_journal_full
_citation_year
_citation_journal_volume
_citation_page_first
_citation_page_last
_citation_journal_id_ASTM
primary 'Inorganic Chemistry' 2016 55 12376 12382 INOCAJ
loop_
_publ_author_name
'Huang, Xia'
'Liu, Biao'
'Zhuang, Rong-Chuan'
'Pan, Yuanming'
'Mi, Jin-Xiao'
'Huang, Ya-Xi'
_cell_length_a 10.952(7)
_cell_length_b 11.343(7)
_cell_length_c 5.159(3)
_cell_angle_alpha 90
_cell_angle_beta 90
_cell_angle_gamma 90
_cell_volume 640.89
_cell_formula_units_Z 4
_symmetry_space_group_name_H-M 'P n m a'
_symmetry_Int_Tables_number 62
_refine_ls_R_factor_all 0.0262
loop_
_symmetry_equiv_pos_site_id
_symmetry_equiv_pos_as_xyz
1 'x+1/2, y, -z+1/2'
2 'x, -y+1/2, z'
3 '-x+1/2, y+1/2, z+1/2'
4 '-x, -y, -z'
5 '-x+1/2, -y, z+1/2'
6 '-x, y+1/2, -z'
7 'x+1/2, -y+1/2, -z+1/2'
8 'x, y, z'
loop_
_atom_type_symbol
_atom_type_oxidation_number
Ge4+ 4
P5+ 5
F1- -1
O2- -2
Na1+ 1
loop_
_atom_site_label
_atom_site_type_symbol
_atom_site_symmetry_multiplicity
_atom_site_Wyckoff_symbol
_atom_site_fract_x
_atom_site_fract_y
_atom_site_fract_z
_atom_site_B_iso_or_equiv
_atom_site_occupancy
_atom_site_attached_hydrogens
Ge1 Ge4+ 4 b 0.5 0.5 0. 0.00728(13) 1 0
P1 P5+ 4 c 0.37821(8) 0.75 0.01605(17) 0.0070(2) 1 0
F1 F1- 8 d 0.62744(14) 0.50547(12) 0.2177(3) 0.0134(3) 1 0
F2 F1- 8 d 0.40389(14) 0.42851(13) 0.2372(3) 0.0146(3) 1 0
O1 O2- 8 d 0.45245(17) 0.64366(16) 0.1315(3) 0.0126(4) 1 0
O2 O2- 4 c 0.3773(2) 0.75 -0.2734(5) 0.0100(5) 1 0
O3 O2- 4 c 0.2564(2) 0.75 0.1469(5) 0.0136(6) 1 0
Na1 Na1+ 8 d -0.21104(10) 0.60075(10) 0.0302(2) 0.0165(3) 1 0
Na2 Na1+ 4 c 0.06487(15) 0.75 0.0010(3) 0.0210(4) 1 0
loop_
_atom_site_aniso_label
_atom_site_aniso_type_symbol
_atom_site_aniso_U_11
_atom_site_aniso_U_22
_atom_site_aniso_U_33
_atom_site_aniso_U_12
_atom_site_aniso_U_13
_atom_site_aniso_U_23
Ge1 Ge4+ 0.0071(2) 0.0069(2) 0.0078(2) 0.00083(12) 0.00020(13) -0.00043(13)
P1 P5+ 0.0083(4) 0.0061(4) 0.0067(4) 0. -0.0008(3) 0.
F1 F1- 0.0123(7) 0.0134(8) 0.0147(8) -0.0009(6) -0.0057(6) 0.0011(6)
F2 F1- 0.0143(8) 0.0158(8) 0.0137(8) -0.0009(6) 0.0046(6) 0.0028(6)
O1 O2- 0.0196(10) 0.0107(8) 0.0076(9) 0.0067(7) -0.0020(8) -0.0006(7)
O2 O2- 0.0134(12) 0.0113(12) 0.0051(12) 0. -0.0006(10) 0.
O3 O2- 0.0093(13) 0.0188(13) 0.0126(13) 0. 0.0000(10) 0.
Na1 Na1+ 0.0187(6) 0.0184(6) 0.0125(6) -0.0073(4) 0.0039(4) -0.0036(4)
Na2 Na1+ 0.0109(8) 0.0375(10) 0.0144(8) 0. -0.0013(6) 0.
#End of TTdata_431958-ICSD