
#(C) 2018 by FIZ Karlsruhe - Leibniz Institute for Information Infrastructure.  All rights reserved.
data_432186-ICSD
_database_code_ICSD 432186
_audit_creation_date 2017-08-01
_chemical_name_systematic 'Lithium cobalt phosphate'
_chemical_formula_structural 'Li Co P O4'
_chemical_formula_sum 'Co1 Li1 O4 P1'
_chemical_name_structure_type Na2CrO4
_exptl_crystal_density_diffrn 3.87
_cell_measurement_temperature 298.
_publ_section_title

;
In situ studies and magnetic properties of the Cmcm polymorph of LiCoPO4 with
a hierarchical dumbbell-like morphology synthesized by easy single-step polyol
synthesis
;
loop_
_citation_id
_citation_journal_full
_citation_year
_citation_journal_volume
_citation_page_first
_citation_page_last
_citation_journal_id_ASTM
primary Inorganics 2016 4 4040035-1 15 INORCW
loop_
_publ_author_name
'Alarcon-Suesca, Carlos'
'Ludwig, Jennifer'
'Hlukhyy, Viktor'
'Stinner, Christoph'
'Nilges, Tom'
_cell_length_a 5.4433(3)
_cell_length_b 8.1694(4)
_cell_length_c 6.2129(3)
_cell_angle_alpha 90
_cell_angle_beta 90
_cell_angle_gamma 90
_cell_volume 276.27
_cell_formula_units_Z 4
_symmetry_space_group_name_H-M 'C m c m'
_symmetry_Int_Tables_number 63
_refine_ls_R_factor_all 0.0128
loop_
_symmetry_equiv_pos_site_id
_symmetry_equiv_pos_as_xyz
1 '-x, y, -z+1/2'
2 '-x, -y, z+1/2'
3 '-x, y, z'
4 '-x, -y, -z'
5 'x, -y, z+1/2'
6 'x, y, -z+1/2'
7 'x, -y, -z'
8 'x, y, z'
9 '-x+1/2, y+1/2, -z+1/2'
10 '-x+1/2, -y+1/2, z+1/2'
11 '-x+1/2, y+1/2, z'
12 '-x+1/2, -y+1/2, -z'
13 'x+1/2, -y+1/2, z+1/2'
14 'x+1/2, y+1/2, -z+1/2'
15 'x+1/2, -y+1/2, -z'
16 'x+1/2, y+1/2, z'
loop_
_atom_type_symbol
_atom_type_oxidation_number
Li1+ 1
Co2+ 2
P5+ 5
O2- -2
loop_
_atom_site_label
_atom_site_type_symbol
_atom_site_symmetry_multiplicity
_atom_site_Wyckoff_symbol
_atom_site_fract_x
_atom_site_fract_y
_atom_site_fract_z
_atom_site_B_iso_or_equiv
_atom_site_occupancy
_atom_site_attached_hydrogens
Li1 Li1+ 4 c 0 0.675 0.25 0.019 1 0
Co1 Co2+ 4 a 0 0 0 0.0107(5) 1 0
P1 P5+ 4 c 0 0.3523(4) 0.25 0.0064(8) 1 0
O1 O2- 8 f 0 0.2474(4) 0.0500(7) 0.0039(13) 1 0
O2 O2- 8 g 0.2255(6) 0.4653(5) 0.25 0.0028(12) 1 0
#End of TTdata_432186-ICSD