
#(C) 2017 by FIZ Karlsruhe - Leibniz Institute for Information Infrastructure.  All rights reserved.
data_432269-ICSD
_database_code_ICSD 432269
_audit_creation_date 2017-08-01
_chemical_name_systematic
'Lithium tetrastrontium tetrasilicium octanitride fluoride'
_chemical_formula_structural 'Li Sr4 Si4 N8 F'
_chemical_formula_sum 'F1 Li1 N8 Si4 Sr4'
_exptl_crystal_density_diffrn 4.17
_cell_measurement_temperature 293.
_publ_section_title

;
LiCa4Si4N8F and LiSr4Si4N8F. Nitridosilicate fluorides with a BCT-zeolite-type
network structure
;
loop_
_citation_id
_citation_journal_full
_citation_year
_citation_journal_volume
_citation_page_first
_citation_page_last
_citation_journal_id_ASTM
primary 'European Journal of Inorganic Chemistry  (online)' 2017 2017 1107 1112
EJICFO
loop_
_publ_author_name
'Horky, Katrin'
'Schnick, Wolfgang'
_cell_length_a 9.3118(4)
_cell_length_b 9.3118(4)
_cell_length_c 5.5216(2)
_cell_angle_alpha 90
_cell_angle_beta 90
_cell_angle_gamma 90
_cell_volume 478.77
_cell_formula_units_Z 2
_symmetry_space_group_name_H-M 'P 4 n c'
_symmetry_Int_Tables_number 104
_refine_ls_R_factor_all 0.016
loop_
_symmetry_equiv_pos_site_id
_symmetry_equiv_pos_as_xyz
1 'y+1/2, x+1/2, z+1/2'
2 '-y+1/2, -x+1/2, z+1/2'
3 '-x+1/2, y+1/2, z+1/2'
4 'x+1/2, -y+1/2, z+1/2'
5 'y, -x, z'
6 '-y, x, z'
7 '-x, -y, z'
8 'x, y, z'
loop_
_atom_type_symbol
_atom_type_oxidation_number
Sr2+ 2
Si4+ 4
Li1+ 1
N3- -3
F1- -1
loop_
_atom_site_label
_atom_site_type_symbol
_atom_site_symmetry_multiplicity
_atom_site_Wyckoff_symbol
_atom_site_fract_x
_atom_site_fract_y
_atom_site_fract_z
_atom_site_B_iso_or_equiv
_atom_site_occupancy
_atom_site_attached_hydrogens
Sr1 Sr2+ 8 c 0.44336(3) 0.23358(3) 0.8985(4) 0.00600(17) 1 0
Si1 Si4+ 8 c 0.11931(10) 0.23038(10) 0.9031(9) 0.0025(2) 1 0
Li1 Li1+ 2 a 0.5 0.5 1.264(4) 0.020(4) 1 0
N1 N3- 8 c 0.175(2) 0.327(2) 0.648(4) 0.0054(6) 1 0
N2 N3- 8 c 0.9361(3) 0.2077(3) 0.901(4) 0.0062(6) 1 0
F1 F1- 2 a 0.5 0.5 0.907(6) 0.0171(13) 1 0
loop_
_atom_site_aniso_label
_atom_site_aniso_type_symbol
_atom_site_aniso_U_11
_atom_site_aniso_U_22
_atom_site_aniso_U_33
_atom_site_aniso_U_12
_atom_site_aniso_U_13
_atom_site_aniso_U_23
Sr1 Sr2+ 0.0032(2) 0.0072(2) 0.0074(2) -0.00013(11) -0.0001(9) -0.0014(12)
Si1 Si4+ 0.0024(5) 0.0024(4) 0.0027(6) -0.0001(3) 0.000(3) 0.002(3)
F1 F1- 0.0110(14) 0.0110(14) 0.029(4) 0. 0. 0.
#End of TTdata_432269-ICSD