
#(C) 2019 by FIZ Karlsruhe - Leibniz Institute for Information Infrastructure.  All rights reserved.
data_432497-ICSD
_database_code_ICSD 432497
_audit_creation_date 2018-08-01
_chemical_name_systematic
'Cesium sodium dodecachloro-closo-dodecaborate octasulfur'
_chemical_formula_structural 'Cs0.73 Na0.27 (B12 Cl12) (S8)'
_chemical_formula_sum 'B12 Cl12 Cs0.73 Na0.27 S8'
_exptl_crystal_density_diffrn 2.19
_cell_measurement_temperature 100.
_publ_section_title

;
The first step of the oxidation of elemental sulfur: crystal structure of the
homopolyatomic sulfur radical cation [S8].+
;
loop_
_citation_id
_citation_journal_full
_citation_year
_citation_journal_volume
_citation_page_first
_citation_page_last
_citation_journal_id_ASTM
primary 'Angewandte Chemie, International Edition' 2017 56 8281 8284 ACIEF5
loop_
_publ_author_name
'Derendorf, Janis'
'Jenne, Carsten'
'Kessler, Mathias'
_cell_length_a 10.4070(2)
_cell_length_b 17.7168(3)
_cell_length_c 15.0611(2)
_cell_angle_alpha 90
_cell_angle_beta 91.5510(10)
_cell_angle_gamma 90
_cell_volume 2775.92
_cell_formula_units_Z 4
_symmetry_space_group_name_H-M 'P 1 21/n 1'
_symmetry_Int_Tables_number 14
_refine_ls_R_factor_all 0.0477
loop_
_symmetry_equiv_pos_site_id
_symmetry_equiv_pos_as_xyz
1 '-x+1/2, y+1/2, -z+1/2'
2 '-x, -y, -z'
3 'x+1/2, -y+1/2, z+1/2'
4 'x, y, z'
loop_
_atom_type_symbol
_atom_type_oxidation_number
Cs0+ 0
Cl0+ 0
Na0+ 0
B0+ 0
S0+ 0
loop_
_atom_site_label
_atom_site_type_symbol
_atom_site_symmetry_multiplicity
_atom_site_Wyckoff_symbol
_atom_site_fract_x
_atom_site_fract_y
_atom_site_fract_z
_atom_site_B_iso_or_equiv
_atom_site_occupancy
_atom_site_attached_hydrogens
Cs1 Cs0+ 4 e 1.26745(8) 0.37497(4) 0.46174(5) 0.0334(2) 0.730(2) 0
Cl1 Cl0+ 4 e 0.63678(13) 0.15043(7) 0.71945(10) 0.0310(3) 1 0
Cl2 Cl0+ 4 e 0.65093(15) 0.31246(8) 0.87020(9) 0.0352(4) 1 0
Cl3 Cl0+ 4 e 0.44969(12) 0.32155(8) 0.66396(10) 0.0331(3) 1 0
Cl4 Cl0+ 4 e 0.61881(13) 0.22183(8) 0.49152(9) 0.0325(3) 1 0
Cl5 Cl0+ 4 e 0.92636(13) 0.15352(8) 0.58625(10) 0.0365(4) 1 0
Cl6 Cl0+ 4 e 0.94871(15) 0.20861(10) 0.81616(10) 0.0430(4) 1 0
Cl7 Cl0+ 4 e 0.64607(16) 0.48656(8) 0.73293(11) 0.0433(4) 1 0
Cl8 Cl0+ 4 e 0.62383(13) 0.43001(8) 0.50083(10) 0.0351(4) 1 0
Cl9 Cl0+ 4 e 0.91950(13) 0.32531(9) 0.45018(9) 0.0332(3) 1 0
Cl10 Cl0+ 4 e 1.11859(12) 0.31687(10) 0.65450(11) 0.0398(4) 1 0
Cl11 Cl0+ 4 e 0.94992(15) 0.41388(10) 0.83002(10) 0.0441(4) 1 0
Cl12 Cl0+ 4 e 0.93872(14) 0.48583(8) 0.60402(10) 0.0370(4) 1 0
Na1 Na0+ 4 e 1.227(2) 0.3681(14) 0.4406(17) 0.104(10) 0.270(2) 0
B1 B0+ 4 e 0.7119(5) 0.2373(3) 0.6885(4) 0.0221(13) 1 0
B2 B0+ 4 e 0.7190(6) 0.3161(3) 0.7622(4) 0.0235(13) 1 0
B3 B0+ 4 e 0.6216(5) 0.3202(3) 0.6625(4) 0.0221(13) 1 0
B4 B0+ 4 e 0.7038(5) 0.2721(3) 0.5770(4) 0.0216(12) 1 0
B5 B0+ 4 e 0.8526(5) 0.2387(3) 0.6229(4) 0.0213(13) 1 0
B6 B0+ 4 e 0.8610(6) 0.2653(4) 0.7373(4) 0.0245(13) 1 0
B7 B0+ 4 e 0.7158(6) 0.4000(3) 0.6961(4) 0.0240(13) 1 0
B8 B0+ 4 e 0.7072(6) 0.3728(3) 0.5821(4) 0.0229(13) 1 0
B9 B0+ 4 e 0.8492(5) 0.3221(4) 0.5579(4) 0.0230(13) 1 0
B10 B0+ 4 e 0.9463(5) 0.3178(4) 0.6567(4) 0.0249(13) 1 0
B11 B0+ 4 e 0.8638(6) 0.3655(4) 0.7424(4) 0.0276(14) 1 0
B12 B0+ 4 e 0.8565(6) 0.4005(3) 0.6319(4) 0.0242(13) 1 0
S1 S0+ 4 e 0.6782(3) 0.58566(12) 0.16787(18) 0.0552(7) 0.730(2) 0
S2 S0+ 4 e 0.61181(18) 0.51320(12) 0.07446(15) 0.0401(6) 0.730(2) 0
S3 S0+ 4 e 0.77103(19) 0.50577(10) -0.00435(11) 0.0504(5) 1 0
S4 S0+ 4 e 0.6463(6) 0.4944(4) 0.2804(4) 0.056(2) 0.270(2) 0
S5 S0+ 4 e 0.8258(4) 0.4503(2) 0.2712(3) 0.0320(14) 0.270(2) 0
S6 S0+ 4 e 0.78872(17) 0.34471(10) 0.22987(11) 0.0427(4) 1 0
S7 S0+ 4 e 0.6565(2) 0.42328(13) 0.26357(15) 0.0387(5) 0.730(2) 0
S8 S0+ 4 e 0.7615(2) 0.51856(14) 0.26031(19) 0.0527(7) 0.730(2) 0
S9 S0+ 4 e 0.5901(6) 0.5238(4) 0.1509(5) 0.0473(17) 0.270(2) 0
S10 S0+ 4 e 0.7436(6) 0.5800(4) 0.1086(4) 0.0437(16) 0.270(2) 0
S11 S0+ 4 e 0.89238(14) 0.43437(9) 0.06280(10) 0.0366(4) 1 0
S12 S0+ 4 e 0.77711(18) 0.34658(10) 0.09453(11) 0.0440(4) 1 0
loop_
_atom_site_aniso_label
_atom_site_aniso_type_symbol
_atom_site_aniso_U_11
_atom_site_aniso_U_22
_atom_site_aniso_U_33
_atom_site_aniso_U_12
_atom_site_aniso_U_13
_atom_site_aniso_U_23
Cs1 Cs0+ 0.0415(4) 0.0284(3) 0.0306(3) -0.0025(2) 0.0075(3) -0.0030(2)
Cl1 Cl0+ 0.0361(7) 0.0185(7) 0.0378(8) -0.0036(5) -0.0083(6) 0.0052(6)
Cl2 Cl0+ 0.0454(8) 0.0354(8) 0.0256(7) -0.0083(6) 0.0133(6) -0.0016(6)
Cl3 Cl0+ 0.0172(6) 0.0283(7) 0.0540(9) 0.0022(5) 0.0072(6) 0.0068(7)
Cl4 Cl0+ 0.0321(7) 0.0355(8) 0.0289(8) -0.0013(6) -0.0170(6) -0.0040(6)
Cl5 Cl0+ 0.0316(7) 0.0329(8) 0.0443(9) 0.0164(6) -0.0112(6) -0.0152(7)
Cl6 Cl0+ 0.0440(9) 0.0507(10) 0.0330(9) 0.0045(7) -0.0223(7) 0.0035(7)
Cl7 Cl0+ 0.0575(10) 0.0197(7) 0.0542(10) 0.0026(6) 0.0293(8) -0.0061(7)
Cl8 Cl0+ 0.0301(7) 0.0327(8) 0.0425(9) 0.0072(6) 0.0025(6) 0.0167(7)
Cl9 Cl0+ 0.0268(7) 0.0513(9) 0.0218(7) 0.0031(6) 0.0057(5) -0.0063(6)
Cl10 Cl0+ 0.0155(6) 0.0599(10) 0.0437(9) -0.0020(6) -0.0041(6) -0.0100(8)
Cl11 Cl0+ 0.0489(9) 0.0552(10) 0.0284(8) -0.0272(8) 0.0041(7) -0.0202(7)
Cl12 Cl0+ 0.0375(8) 0.0329(8) 0.0413(9) -0.0145(6) 0.0147(7) -0.0004(7)
Na1 Na0+ 0.109(11) 0.101(11) 0.104(11) 0.000(6) 0.015(6) -0.001(6)
B1 B0+ 0.019(3) 0.019(3) 0.029(3) 0.001(2) -0.003(2) -0.001(3)
B2 B0+ 0.026(3) 0.023(3) 0.021(3) -0.005(2) 0.004(2) -0.003(3)
B3 B0+ 0.013(3) 0.022(3) 0.032(3) 0.000(2) 0.005(2) 0.003(3)
B4 B0+ 0.020(3) 0.022(3) 0.023(3) 0.007(2) -0.006(2) -0.004(3)
B5 B0+ 0.017(3) 0.023(3) 0.023(3) 0.006(2) -0.006(2) -0.009(3)
B6 B0+ 0.025(3) 0.028(3) 0.020(3) -0.001(3) -0.009(2) -0.002(3)
B7 B0+ 0.029(3) 0.016(3) 0.028(3) -0.001(2) 0.012(3) -0.005(3)
B8 B0+ 0.022(3) 0.021(3) 0.025(3) 0.003(2) 0.004(2) -0.001(3)
B9 B0+ 0.019(3) 0.031(3) 0.019(3) 0.003(2) 0.001(2) -0.004(3)
B10 B0+ 0.017(3) 0.033(4) 0.024(3) -0.003(2) -0.002(2) -0.007(3)
B11 B0+ 0.027(3) 0.035(4) 0.021(3) -0.009(3) 0.006(3) -0.010(3)
B12 B0+ 0.023(3) 0.024(3) 0.026(3) -0.005(2) 0.007(3) -0.005(3)
S1 S0+ 0.0785(18) 0.0218(11) 0.0670(17) -0.0051(11) 0.0361(15) -0.0037(11)
S2 S0+ 0.0256(10) 0.0397(12) 0.0548(16) -0.0022(9) -0.0018(10) 0.0198(11)
S3 S0+ 0.0695(12) 0.0476(10) 0.0348(9) 0.0202(9) 0.0148(8) 0.0134(8)
S4 S0+ 0.082(4) 0.050(3) 0.037(3) 0.035(3) 0.021(3) 0.009(3)
S5 S0+ 0.031(2) 0.043(3) 0.021(2) -0.021(2) -0.006(2) 0.007(2)
S6 S0+ 0.0499(10) 0.0405(9) 0.0382(9) 0.0019(7) 0.0105(7) 0.0000(7)
S7 S0+ 0.0359(11) 0.0417(13) 0.0390(12) -0.0041(9) 0.0079(9) -0.0077(10)
S8 S0+ 0.0524(15) 0.0360(13) 0.0689(18) -0.0083(11) -0.0132(13) -0.0189(12)
S9 S0+ 0.039(3) 0.052(3) 0.052(3) 0.003(2) 0.010(3) 0.009(3)
S10 S0+ 0.050(4) 0.038(3) 0.044(4) -0.005(3) 0.007(3) 0.004(3)
S11 S0+ 0.0262(7) 0.0470(9) 0.0370(9) -0.0046(6) 0.0057(6) -0.0039(7)
S12 S0+ 0.0629(11) 0.0383(9) 0.0306(9) -0.0109(8) -0.0031(8) -0.0025(7)
#End of TTdata_432497-ICSD