
#(C) 2019 by FIZ Karlsruhe - Leibniz Institute for Information Infrastructure.  All rights reserved.
data_432675-ICSD
_database_code_ICSD 432675
_audit_creation_date 2018-02-01
_chemical_name_systematic 'Manganese sodium molybdate (1.43/3.13/3)'
_chemical_formula_structural 'Mn1.43 Na3.13 (Mo O4)3'
_chemical_formula_sum 'Mn1.43 Mo3 Na3.13 O12'
_exptl_crystal_density_diffrn 3.62
_cell_measurement_temperature 293.
_publ_section_title

;
Nonstoichiometry in the systems Na2MoO4-MMoO4 (M = Co, Cd), crystal structures
of Na3.36Co1.32(MoO4)3, Na3.13Mn1.43(MoO4)3 and Na3.72Cd1.14(MoO4)3, crystal
chemistry, compositions and ionic conductivity of alluaudite-type double
molybdates and tungstates
;
loop_
_citation_id
_citation_journal_full
_citation_year
_citation_journal_volume
_citation_page_first
_citation_page_last
_citation_journal_id_ASTM
primary 'Journal of Solid State Chemistry' 2017 253 121 128 JSSCBI
loop_
_publ_author_name
'Solodovnikov, Sergey F.'
'Solodovnikova, Zoya A.'
'Zolotova, Evgeniya S.'
'Yudin, Vasiliy N.'
'Gulyaeva, Oksana A.'
'Tushinova, Yunna L.'
'Kuchumov, Boris M.'
_cell_length_a 12.7387(3)
_cell_length_b 13.6716(4)
_cell_length_c 7.1904(2)
_cell_angle_alpha 90.
_cell_angle_beta 112.4040(10)
_cell_angle_gamma 90.
_cell_volume 1157.74
_cell_formula_units_Z 4
_symmetry_space_group_name_H-M 'C 1 2/c 1'
_symmetry_Int_Tables_number 15
_refine_ls_R_factor_all 0.0166
loop_
_symmetry_equiv_pos_site_id
_symmetry_equiv_pos_as_xyz
1 'x, -y, z+1/2'
2 '-x, -y, -z'
3 '-x, y, -z+1/2'
4 'x, y, z'
5 'x+1/2, -y+1/2, z+1/2'
6 '-x+1/2, -y+1/2, -z'
7 '-x+1/2, y+1/2, -z+1/2'
8 'x+1/2, y+1/2, z'
loop_
_atom_type_symbol
_atom_type_oxidation_number
Mo6+ 6
Mn2+ 2
Na1+ 1
O2- -2
loop_
_atom_site_label
_atom_site_type_symbol
_atom_site_symmetry_multiplicity
_atom_site_Wyckoff_symbol
_atom_site_fract_x
_atom_site_fract_y
_atom_site_fract_z
_atom_site_B_iso_or_equiv
_atom_site_occupancy
_atom_site_attached_hydrogens
Mo1 Mo6+ 4 e 0. 0.78908(2) 0.25 0.01616(9) 1 0
Mo2 Mo6+ 8 f 0.230562(17) 0.610167(16) 0.12418(3) 0.01689(8) 1 0
Mn1 Mn2+ 8 f 0.28961(4) 0.84283(4) 0.37808(6) 0.01642(13) 0.7172(13) 0
Na1 Na1+ 8 f 0.28961(4) 0.84283(4) 0.37808(6) 0.01642(13) 0.28 0
Na2 Na1+ 4 a 0. 0. 0. 0.0476(7) 0.952(5) 0
Na3 Na1+ 4 e 0. 0.23301(12) 0.25 0.0239(3) 1 0
Na4 Na1+ 4 e 0. 0.5020(4) 0.25 0.0673(15) 0.614(5) 0
O1 O2- 8 f 0.17031(16) 0.32989(15) 0.3904(3) 0.0258(4) 1 0
O2 O2- 8 f 0.12515(17) 0.08883(16) 0.3148(3) 0.0313(5) 1 0
O3 O2- 8 f 0.39184(17) 0.37047(16) 0.2471(3) 0.0334(5) 1 0
O4 O2- 8 f 0.28348(17) 0.18171(16) 0.1797(3) 0.0282(4) 1 0
O5 O2- 8 f 0.04045(15) 0.71737(15) 0.4706(2) 0.0237(4) 1 0
O6 O2- 8 f 0.16068(19) 0.49689(16) 0.1055(3) 0.0378(5) 1 0
loop_
_atom_site_aniso_label
_atom_site_aniso_type_symbol
_atom_site_aniso_U_11
_atom_site_aniso_U_22
_atom_site_aniso_U_33
_atom_site_aniso_U_12
_atom_site_aniso_U_13
_atom_site_aniso_U_23
Mo1 Mo6+ 0.01707(15) 0.01537(16) 0.01339(13) 0. 0.00285(10) 0.
Mo2 Mo6+ 0.01745(12) 0.01859(13) 0.01377(11) -0.00134(8) 0.00500(8) 0.00094(7)
Mn1 Mn2+ 0.0155(2) 0.0195(3) 0.0143(2) 0.00011(17) 0.00581(16) 0.00158(16)
Na1 Na1+ 0.0155(2) 0.0195(3) 0.0143(2) 0.00011(17) 0.00581(16) 0.00158(16)
Na2 Na1+ 0.0610(14) 0.0249(11) 0.0345(10) -0.0034(9) -0.0072(9) 0.0032(8)
Na3 Na1+ 0.0196(7) 0.0323(9) 0.0227(7) 0. 0.0112(6) 0.
Na4 Na1+ 0.0232(16) 0.130(4) 0.0429(19) 0. 0.0057(14) 0.
O1 O2- 0.0315(10) 0.0273(11) 0.0173(8) -0.0056(8) 0.0077(7) -0.0022(7)
O2 O2- 0.0233(10) 0.0272(11) 0.0412(11) -0.0023(8) 0.0096(9) -0.0051(9)
O3 O2- 0.0259(10) 0.0251(11) 0.0413(11) 0.0047(9) 0.0040(9) -0.0070(9)
O4 O2- 0.0324(10) 0.0343(11) 0.0176(8) 0.0026(9) 0.0093(8) 0.0038(8)
O5 O2- 0.0210(9) 0.0335(11) 0.0170(8) 0.0040(8) 0.0078(7) 0.0066(8)
O6 O2- 0.0364(12) 0.0282(12) 0.0450(12) -0.0101(9) 0.0114(10) 0.0052(10)
#End of TTdata_432675-ICSD