
#(C) 2019 by FIZ Karlsruhe - Leibniz Institute for Information Infrastructure.  All rights reserved.
data_432809-ICSD
_database_code_ICSD 432809
_audit_creation_date 2018-08-01
_chemical_name_systematic 'Undecasodium dodecathio-phospho-distannate'
_chemical_formula_structural 'Na11.11 P S12 Sn2'
_chemical_formula_sum 'Na11.11 P1 S12 Sn2'
_exptl_crystal_density_diffrn 2.36
_cell_measurement_temperature 373.
_publ_section_title 'Vacancy-controlled Na+ superion conduction in Na11Sn2PS12'
loop_
_citation_id
_citation_journal_full
_citation_year
_citation_journal_volume
_citation_page_first
_citation_page_last
_citation_journal_id_ASTM
primary 'Angewandte Chemie, International Edition' 2018 57 1351 1355 ACIEF5
loop_
_publ_author_name
'Duchardt, Marc'
'Ruschewitz, Uwe'
'Adams, Stefan'
'Dehnen, Stefanie'
'Roling, Bernhard'
_cell_length_a 13.67656(13)
_cell_length_b 13.67656(13)
_cell_length_c 27.3347(4)
_cell_angle_alpha 90.
_cell_angle_beta 90.
_cell_angle_gamma 90.
_cell_volume 5112.94
_cell_formula_units_Z 8
_symmetry_space_group_name_H-M 'I 41/a c d Z'
_symmetry_Int_Tables_number 142
_refine_ls_R_factor_all 0.0785
loop_
_symmetry_equiv_pos_site_id
_symmetry_equiv_pos_as_xyz
1 'y+1/4, x+3/4, -z+3/4'
2 '-y+3/4, x+3/4, -z+1/4'
3 'x, y+1/2, -z'
4 '-x, y+1/2, -z+1/2'
5 '-y+3/4, -x+1/4, z+1/4'
6 'y+1/4, -x+1/4, z+3/4'
7 '-x, -y+1/2, z'
8 'x, -y+1/2, z+1/2'
9 'y+1/4, -x+3/4, -z+1/4'
10 '-y+3/4, -x+3/4, -z+3/4'
11 'x, -y, -z+1/2'
12 '-x, -y, -z'
13 '-y+3/4, x+1/4, z+3/4'
14 'y+1/4, x+1/4, z+1/4'
15 '-x, y, z+1/2'
16 'x, y, z'
17 'y+3/4, x+1/4, -z+1/4'
18 '-y+1/4, x+1/4, -z+3/4'
19 'x+1/2, y, -z+1/2'
20 '-x+1/2, y, -z'
21 '-y+1/4, -x+3/4, z+3/4'
22 'y+3/4, -x+3/4, z+1/4'
23 '-x+1/2, -y, z+1/2'
24 'x+1/2, -y, z'
25 'y+3/4, -x+1/4, -z+3/4'
26 '-y+1/4, -x+1/4, -z+1/4'
27 'x+1/2, -y+1/2, -z'
28 '-x+1/2, -y+1/2, -z+1/2'
29 '-y+1/4, x+3/4, z+1/4'
30 'y+3/4, x+3/4, z+3/4'
31 '-x+1/2, y+1/2, z'
32 'x+1/2, y+1/2, z+1/2'
loop_
_atom_type_symbol
_atom_type_oxidation_number
Sn4+ 4
P5+ 5
S2- -2
Na1+ 1
loop_
_atom_site_label
_atom_site_type_symbol
_atom_site_symmetry_multiplicity
_atom_site_Wyckoff_symbol
_atom_site_fract_x
_atom_site_fract_y
_atom_site_fract_z
_atom_site_B_iso_or_equiv
_atom_site_occupancy
_atom_site_attached_hydrogens
Sn1 Sn4+ 16 e 0.22617(13) 0. 0.25 0.0301(6) 1. 0
P1 P5+ 8 a 0. -0.25 0.125 0.0136(21) 1. 0
S1 S2- 32 g 0.3279(5) -0.0994(5) 0.19924(27) 0.0358(10) 1. 0
S2 S2- 32 g 0.1267(5) -0.1019(5) 0.30012(28) 0.0358(10) 1. 0
S3 S2- 32 g 0.4098(5) -0.1671(5) 0.33244(27) 0.0358(10) 1. 0
Na1 Na1+ 16 f 0.2392(6) 0.0108(6) 0.125 0.0910(16) 1. 0
Na2 Na1+ 32 g -0.0089(8) 0.0185(14) 0.1248(8) 0.0910(16) 0.940(27) 0
Na3 Na1+ 16 d 0. 0.25 0.0084(14) 0.0910(16) 0.88(5) 0
Na4 Na1+ 16 c 0. 0. 0. 0.0910(16) 0.852(21) 0
Na5 Na1+ 16 e 0.75 0.2257(12) 0. 0.0910(16) 0.940(20) 0
#End of TTdata_432809-ICSD