
#(C) 2019 by FIZ Karlsruhe - Leibniz Institute for Information Infrastructure.  All rights reserved.
data_432969-ICSD
_database_code_ICSD 432969
_audit_creation_date 2018-02-01
_chemical_name_systematic
'Heptasodium divanadium dialuminium tetrakis(diphosphate) orthophosphate'
_chemical_formula_structural 'Na7 V2 Al2 (P2 O7)4 (P O4)'
_chemical_formula_sum 'Al2 Na7 O32 P9 V2'
_chemical_name_structure_type Na7(InP2O7)4PO4
_exptl_crystal_density_diffrn 2.96
_cell_measurement_temperature 293.
_publ_section_title

;
Structural and electrochemical studies of novel Na7V3Al(P2O7)4(PO4) and
Na7V2Al2(P2O7)4(PO4) high-voltage cathode materials for Na-ion batteries
;
loop_
_citation_id
_citation_journal_full
_citation_year
_citation_journal_volume
_citation_page_first
_citation_page_last
_citation_journal_id_ASTM
primary
'Journal of Materials Chemistry A: Materials for Energy and Sustainability' 2017 5 14365 14376 JMCAET
loop_
_publ_author_name
'Kovrugin, Vadim M.'
'Chotard, Jean-Noel'
'Fauth, Francois'
'Jamali, Arash'
'David, Renald'
'Masquelier, Christian'
_cell_length_a 14.109(3)
_cell_length_b 14.109(3)
_cell_length_c 6.2483(13)
_cell_angle_alpha 90
_cell_angle_beta 90
_cell_angle_gamma 90
_cell_volume 1243.81
_cell_formula_units_Z 2
_symmetry_space_group_name_H-M 'P -4 21 c'
_symmetry_Int_Tables_number 114
_refine_ls_R_factor_all 0.0642
loop_
_symmetry_equiv_pos_site_id
_symmetry_equiv_pos_as_xyz
1 'y+1/2, x+1/2, z+1/2'
2 'y, -x, -z'
3 '-y+1/2, -x+1/2, z+1/2'
4 '-y, x, -z'
5 'x+1/2, -y+1/2, -z+1/2'
6 '-x, -y, z'
7 '-x+1/2, y+1/2, -z+1/2'
8 'x, y, z'
loop_
_atom_type_symbol
_atom_type_oxidation_number
V3+ 3
Al3+ 3
P5+ 5
Na1+ 1
O2- -2
loop_
_atom_site_label
_atom_site_type_symbol
_atom_site_symmetry_multiplicity
_atom_site_Wyckoff_symbol
_atom_site_fract_x
_atom_site_fract_y
_atom_site_fract_z
_atom_site_B_iso_or_equiv
_atom_site_occupancy
_atom_site_attached_hydrogens
V1 V3+ 8 e 0.81818(16) 0.12135(17) 0.1333(2) 0.0095(5) 0.5 0
Al1 Al3+ 8 e 0.81818(16) 0.12135(17) 0.1333(2) 0.0095(5) 0.5 0
P1 P5+ 2 a 0. 0. 0. 0.0068(12) 1 0
P2 P5+ 8 e 0.6239(2) 0.2570(2) 0.1458(3) 0.0078(6) 1 0
P3 P5+ 8 e 0.95804(19) 0.30135(19) 0.1052(3) 0.0090(6) 1 0
Na1 Na1+ 2 b 0. 0. 0.5 0.055(4) 1 0
Na2 Na1+ 4 d 0. 0.5 0.8213(6) 0.0310(19) 1 0
Na3 Na1+ 8 e 0.9197(3) 0.2585(3) 0.5988(5) 0.0240(12) 1 0
O1 O2- 8 e 0.1371(5) 0.1706(6) 0.1807(7) 0.016(2) 1 0
O2 O2- 8 e 0.7032(5) 0.1914(5) 0.1133(8) 0.0194(19) 1 0
O3 O2- 8 e 0.9326(5) 0.0533(5) 0.1488(8) 0.0131(17) 1 0
O4 O2- 8 e 0.5373(5) 0.1890(6) 0.2104(8) 0.0174(19) 1 0
O5 O2- 8 e 0.5913(6) 0.3071(5) 0.9431(7) 0.018(2) 1 0
O6 O2- 8 e 0.0067(5) 0.2558(5) 0.9148(7) 0.0130(17) 1 0
O7 O2- 8 e 0.9278(5) 0.4004(5) 0.0669(7) 0.0117(18) 1 0
O8 O2- 8 e 0.8813(7) 0.2410(6) 0.2020(8) 0.022(2) 1 0
loop_
_atom_site_aniso_label
_atom_site_aniso_type_symbol
_atom_site_aniso_U_11
_atom_site_aniso_U_22
_atom_site_aniso_U_33
_atom_site_aniso_U_12
_atom_site_aniso_U_13
_atom_site_aniso_U_23
V1 V3+ 0.0112(14) 0.0109(13) 0.0063(9) 0.0019(12) 0.0005(8) 0.0007(9)
Al1 Al3+ 0.0112(14) 0.0109(13) 0.0063(9) 0.0019(12) 0.0005(8) 0.0007(9)
P1 P5+ 0.006(2) 0.006(2) 0.008(2) 0. 0. 0.
P2 P5+ 0.0057(15) 0.0091(17) 0.0086(10) -0.0004(13) 0.0008(10) 0.0010(10)
P3 P5+ 0.0072(16) 0.0098(16) 0.0099(10) 0.0022(12) -0.0019(9) -0.0008(10)
Na1 Na1+ 0.072(6) 0.072(6) 0.020(4) 0. 0. 0.
Na2 Na1+ 0.035(5) 0.047(5) 0.011(3) -0.031(5) 0. 0.
Na3 Na1+ 0.027(3) 0.029(3) 0.0154(15) -0.010(2) -0.0051(17) 0.0026(18)
O1 O2- 0.020(5) 0.020(5) 0.008(3) 0.002(4) -0.001(3) 0.001(3)
O2 O2- 0.026(5) 0.022(5) 0.011(3) 0.007(4) 0.008(3) -0.003(3)
O3 O2- 0.011(4) 0.021(5) 0.007(3) 0.005(4) 0.001(3) -0.005(3)
O4 O2- 0.008(5) 0.024(5) 0.020(3) -0.005(4) 0.010(3) -0.013(3)
O5 O2- 0.029(6) 0.018(5) 0.009(3) 0.001(4) -0.003(3) 0.003(3)
O6 O2- 0.014(4) 0.019(5) 0.006(3) 0.002(4) 0.001(3) -0.001(3)
O7 O2- 0.022(5) 0.005(5) 0.008(3) 0.001(4) -0.004(3) 0.003(2)
O8 O2- 0.027(5) 0.020(5) 0.020(3) -0.009(5) 0.011(3) -0.005(3)
#End of TTdata_432969-ICSD