
#(C) 2019 by FIZ Karlsruhe - Leibniz Institute for Information Infrastructure.  All rights reserved.
data_433159-ICSD
_database_code_ICSD 433159
_audit_creation_date 2018-02-01
_chemical_name_systematic
'Disodium triholmium trichloride tetrakis(tellurate(IV))'
_chemical_formula_structural 'Na2 Ho3 Cl3 (Te O3)4'
_chemical_formula_sum 'Cl3 Ho3 Na2 O12 Te4'
_chemical_name_structure_type Na2Y3Cl3(TeO3)4
_exptl_crystal_density_diffrn 5.7
_cell_measurement_temperature 293.
_publ_section_title

;
Synthesis, structures, and luminescent properties of sodium rare-earth
metal(III) chloride oxotellurates(IV), Na2Ln3Cl3[TeO3]4 (Ln = Sm, Eu, Gd, Tb,
Dy, and Ho)
;
loop_
_citation_id
_citation_journal_full
_citation_year
_citation_journal_volume
_citation_page_first
_citation_page_last
_citation_journal_id_ASTM
primary 'Zeitschrift fuer Anorganische und Allgemeine Chemie' 2017 643 1654 1660
ZAACAB
loop_
_publ_author_name
'Charkin, Dmitri O.'
'Zitzer, Sabine'
'Greiner, Stefan'
'Dorofeev, Sergey G.'
'Olenev, Andrei V.'
'Berdonosov, Peter S.'
'Schleid, Thomas'
'Dolgikh, Valery A.'
_cell_length_a 23.8140(14)
_cell_length_b 5.5261(3)
_cell_length_c 16.6260(10)
_cell_angle_alpha 90.
_cell_angle_beta 134.016(3)
_cell_angle_gamma 90.
_cell_volume 1573.46
_cell_formula_units_Z 4
_symmetry_space_group_name_H-M 'C 1 2/c 1'
_symmetry_Int_Tables_number 15
_refine_ls_R_factor_all 0.0188
loop_
_symmetry_equiv_pos_site_id
_symmetry_equiv_pos_as_xyz
1 'x, -y, z+1/2'
2 '-x, -y, -z'
3 '-x, y, -z+1/2'
4 'x, y, z'
5 'x+1/2, -y+1/2, z+1/2'
6 '-x+1/2, -y+1/2, -z'
7 '-x+1/2, y+1/2, -z+1/2'
8 'x+1/2, y+1/2, z'
loop_
_atom_type_symbol
_atom_type_oxidation_number
Na1+ 1
Ho3+ 3
Cl1- -1
Te4+ 4
O2- -2
loop_
_atom_site_label
_atom_site_type_symbol
_atom_site_symmetry_multiplicity
_atom_site_Wyckoff_symbol
_atom_site_fract_x
_atom_site_fract_y
_atom_site_fract_z
_atom_site_B_iso_or_equiv
_atom_site_occupancy
_atom_site_attached_hydrogens
Na1 Na1+ 8 f 0.16598(15) 0.2718(4) 0.57479(19) 0.0308(6) 1 0
Ho1 Ho3+ 4 e 0. 0.24783(5) 0.25 0.00909(9) 1 0
Ho2 Ho3+ 8 f 0.000659(13) 0.25151(4) 0.585164(17) 0.00922(8) 1 0
Cl1 Cl1- 4 d 0.25 0.25 0.5 0.0249(5) 1 0
Cl2 Cl1- 8 f 0.25019(8) 0.2534(2) 0.16893(10) 0.0217(3) 1 0
Te1 Te4+ 8 f 0.135933(18) 0.79995(6) 0.40406(2) 0.00950(9) 1 0
Te2 Te4+ 8 f 0.133074(19) 0.29486(6) 0.19734(2) 0.00980(9) 1 0
O1 O2- 8 f 0.0739(2) 0.5508(6) 0.3851(3) 0.0130(8) 1 0
O2 O2- 8 f 0.0720(2) 0.0770(6) 0.7583(3) 0.0125(7) 1 0
O3 O2- 8 f 0.0868(2) 0.0167(6) 0.4275(3) 0.0129(8) 1 0
O4 O2- 8 f 0.0702(2) 0.0516(6) 0.0919(3) 0.0140(8) 1 0
O5 O2- 8 f 0.0668(2) 0.4181(6) 0.2110(3) 0.0155(8) 1 0
O6 O2- 8 f 0.0853(2) 0.4851(5) 0.5775(3) 0.0117(7) 1 0
loop_
_atom_site_aniso_label
_atom_site_aniso_type_symbol
_atom_site_aniso_U_11
_atom_site_aniso_U_22
_atom_site_aniso_U_33
_atom_site_aniso_U_12
_atom_site_aniso_U_13
_atom_site_aniso_U_23
Na1 Na1+ 0.0225(13) 0.0327(14) 0.0306(14) -0.0005(10) 0.0160(12) -0.0168(10)
Ho1 Ho3+ 0.01218(18) 0.00758(19) 0.01065(17) 0. 0.00910(16) 0.
Ho2 Ho3+ 0.01219(14) 0.00787(14) 0.00994(13) 0.00020(8) 0.00856(11) 0.00009(8)
Cl1 Cl1- 0.0283(12) 0.0182(11) 0.0342(12) -0.0023(8) 0.0239(11) -0.0020(8)
Cl2 Cl1- 0.0234(8) 0.0231(8) 0.0210(7) 0.0023(6) 0.0163(7) 0.0010(5)
Te1 Te4+ 0.01025(18) 0.00930(16) 0.01027(17) 0.00028(13) 0.00762(16) 0.00037(13)
Te2 Te4+ 0.01024(18) 0.01006(17) 0.00986(17) 0.00062(13) 0.00727(15) 0.00012(13)
O1 O2- 0.014(2) 0.0138(19) 0.0131(18) -0.0023(15) 0.0100(17) -0.0005(14)
O2 O2- 0.016(2) 0.0129(18) 0.0108(18) -0.0038(15) 0.0104(17) -0.0021(14)
O3 O2- 0.015(2) 0.0120(19) 0.0141(19) 0.0020(15) 0.0112(18) -0.0003(14)
O4 O2- 0.018(2) 0.0131(19) 0.0109(18) -0.0044(15) 0.0100(18) -0.0013(14)
O5 O2- 0.022(2) 0.0118(18) 0.023(2) 0.0014(16) 0.0198(19) 0.0022(15)
O6 O2- 0.014(2) 0.0078(17) 0.0108(18) -0.0011(14) 0.0076(17) -0.0026(13)
#End of TTdata_433159-ICSD