
#(C) 2019 by FIZ Karlsruhe - Leibniz Institute for Information Infrastructure.  All rights reserved.
data_433157-ICSD
_database_code_ICSD 433157
_audit_creation_date 2018-02-01
_chemical_name_systematic
'Disodium triterbium trichloride tetrakis(tellurate(IV))'
_chemical_formula_structural 'Na2 Tb3 Cl3 (Te O3)4'
_chemical_formula_sum 'Cl3 Na2 O12 Tb3 Te4'
_chemical_name_structure_type Na2Y3Cl3(TeO3)4
_exptl_crystal_density_diffrn 5.53
_cell_measurement_temperature 293.
_publ_section_title

;
Synthesis, structures, and luminescent properties of sodium rare-earth
metal(III) chloride oxotellurates(IV), Na2Ln3Cl3[TeO3]4 (Ln = Sm, Eu, Gd, Tb,
Dy, and Ho)
;
loop_
_citation_id
_citation_journal_full
_citation_year
_citation_journal_volume
_citation_page_first
_citation_page_last
_citation_journal_id_ASTM
primary 'Zeitschrift fuer Anorganische und Allgemeine Chemie' 2017 643 1654 1660
ZAACAB
loop_
_publ_author_name
'Charkin, Dmitri O.'
'Zitzer, Sabine'
'Greiner, Stefan'
'Dorofeev, Sergey G.'
'Olenev, Andrei V.'
'Berdonosov, Peter S.'
'Schleid, Thomas'
'Dolgikh, Valery A.'
_cell_length_a 23.9070(14)
_cell_length_b 5.5687(3)
_cell_length_c 16.7450(10)
_cell_angle_alpha 90.
_cell_angle_beta 134.205(3)
_cell_angle_gamma 90.
_cell_volume 1598.05
_cell_formula_units_Z 4
_symmetry_space_group_name_H-M 'C 1 2/c 1'
_symmetry_Int_Tables_number 15
_refine_ls_R_factor_all 0.0206
loop_
_symmetry_equiv_pos_site_id
_symmetry_equiv_pos_as_xyz
1 'x, -y, z+1/2'
2 '-x, -y, -z'
3 '-x, y, -z+1/2'
4 'x, y, z'
5 'x+1/2, -y+1/2, z+1/2'
6 '-x+1/2, -y+1/2, -z'
7 '-x+1/2, y+1/2, -z+1/2'
8 'x+1/2, y+1/2, z'
loop_
_atom_type_symbol
_atom_type_oxidation_number
Na1+ 1
Tb3+ 3
Cl1- -1
Te4+ 4
O2- -2
loop_
_atom_site_label
_atom_site_type_symbol
_atom_site_symmetry_multiplicity
_atom_site_Wyckoff_symbol
_atom_site_fract_x
_atom_site_fract_y
_atom_site_fract_z
_atom_site_B_iso_or_equiv
_atom_site_occupancy
_atom_site_attached_hydrogens
Na1 Na1+ 8 f 0.16612(19) 0.2727(7) 0.2583(3) 0.0271(9) 1 0
Tb1 Tb3+ 4 e 0. 0.24920(12) 0.25 0.00728(13) 1 0
Tb2 Tb3+ 8 f 0.49900(2) 0.24991(10) 0.08362(4) 0.00757(10) 1 0
Cl1 Cl1- 4 d 0.25 0.25 0.5 0.0251(8) 1 0
Cl2 Cl1- 8 f 0.24976(12) 0.2471(7) 0.1684(2) 0.0217(5) 1 0
Te1 Te4+ 8 f 0.36346(4) 0.30258(7) 0.13190(4) 0.00827(12) 1 0
Te2 Te4+ 8 f 0.36636(3) 0.20287(8) 0.42994(4) 0.00883(11) 1 0
O1 O2- 8 f 0.4259(3) 0.0556(9) 0.2363(5) 0.0117(13) 1 0
O2 O2- 8 f 0.4273(3) 0.4249(9) 0.1141(4) 0.0095(12) 1 0
O3 O2- 8 f 0.0879(3) 0.0187(9) 0.2465(4) 0.0093(11) 1 0
O4 O2- 8 f 0.4297(3) 0.4444(9) 0.4515(4) 0.0096(12) 1 0
O5 O2- 8 f 0.0677(3) 0.4156(9) 0.4249(4) 0.0129(12) 1 0
O6 O2- 8 f 0.0859(3) 0.4827(10) 0.0941(4) 0.0112(11) 1 0
loop_
_atom_site_aniso_label
_atom_site_aniso_type_symbol
_atom_site_aniso_U_11
_atom_site_aniso_U_22
_atom_site_aniso_U_33
_atom_site_aniso_U_12
_atom_site_aniso_U_13
_atom_site_aniso_U_23
Na1 Na1+ 0.0137(15) 0.0317(19) 0.022(2) -0.0016(14) 0.0071(16) 0.0181(14)
Tb1 Tb3+ 0.0096(3) 0.0051(2) 0.0081(4) 0. 0.0065(4) 0.
Tb2 Tb3+ 0.00962(18) 0.00568(18) 0.0093(4) -0.00014(17) 0.0073(3) -0.00003(16)
Cl1 Cl1- 0.0256(19) 0.0183(15) 0.023(3) -0.0018(15) 0.014(2) -0.0001(14)
Cl2 Cl1- 0.0194(11) 0.0255(12) 0.021(2) 0.0038(13) 0.0146(19) 0.0026(10)
Te1 Te4+ 0.0075(2) 0.0076(2) 0.0086(3) -0.0007(2) 0.0051(2) -0.00008(19)
Te2 Te4+ 0.0080(2) 0.0089(2) 0.0095(2) 0.0008(2) 0.0061(2) 0.00116(18)
O1 O2- 0.011(3) 0.009(3) 0.012(3) 0.002(2) 0.007(2) 0.001(2)
O2 O2- 0.015(3) 0.009(3) 0.011(3) -0.002(2) 0.012(3) 0.000(2)
O3 O2- 0.011(3) 0.007(2) 0.006(3) 0.004(2) 0.005(2) 0.003(2)
O4 O2- 0.018(3) 0.005(3) 0.013(3) -0.005(2) 0.014(3) -0.006(2)
O5 O2- 0.012(3) 0.009(3) 0.008(3) 0.000(2) 0.004(2) 0.002(2)
O6 O2- 0.012(3) 0.010(2) 0.013(3) 0.003(2) 0.010(3) 0.003(2)
#End of TTdata_433157-ICSD