
#(C) 2019 by FIZ Karlsruhe - Leibniz Institute for Information Infrastructure.  All rights reserved.
data_433134-ICSD
_database_code_ICSD 433134
_audit_creation_date 2018-02-01
_chemical_name_systematic 'Disodium hexafluoro silicate'
_chemical_formula_structural 'Na2 Si F6'
_chemical_formula_sum 'F6 Na2 Si1'
_chemical_name_structure_type Na2SiF6
_exptl_crystal_density_diffrn 2.72
_cell_measurement_temperature 296.
_publ_section_title
'Synthesis, structure, and properties of nonlinear optical crystal Na2SiF6'
loop_
_citation_id
_citation_journal_full
_citation_year
_citation_journal_volume
_citation_page_first
_citation_page_last
_citation_journal_id_ASTM
primary 'Zeitschrift fuer Anorganische und Allgemeine Chemie' 2017 643 1739 1743
ZAACAB
loop_
_publ_author_name
'Zhang, Wenyao'
'Jing, Qun'
'Fang, Yuan'
'Chen, Zhaohui'
_cell_length_a 8.8715(3)
_cell_length_b 8.8715(3)
_cell_length_c 5.0484(5)
_cell_angle_alpha 90.
_cell_angle_beta 90.
_cell_angle_gamma 120.
_cell_volume 344.09
_cell_formula_units_Z 3
_symmetry_space_group_name_H-M 'P 3 2 1'
_symmetry_Int_Tables_number 150
_refine_ls_R_factor_all 0.016
loop_
_symmetry_equiv_pos_site_id
_symmetry_equiv_pos_as_xyz
1 'x-y, -y, -z'
2 '-x, -x+y, -z'
3 'y, x, -z'
4 '-x+y, -x, z'
5 '-y, x-y, z'
6 'x, y, z'
loop_
_atom_type_symbol
_atom_type_oxidation_number
Si4+ 4
Na1+ 1
F1- -1
loop_
_atom_site_label
_atom_site_type_symbol
_atom_site_symmetry_multiplicity
_atom_site_Wyckoff_symbol
_atom_site_fract_x
_atom_site_fract_y
_atom_site_fract_z
_atom_site_B_iso_or_equiv
_atom_site_occupancy
_atom_site_attached_hydrogens
Si1 Si4+ 1 a 0. 0. 0. 0.0140(2) 1 0
Si2 Si4+ 2 d 0.3333 0.6667 0.4929(2) 0.01377(18) 1 0
Na1 Na1+ 3 f 0. 0.28455(11) 0.5 0.0202(3) 1 0
Na2 Na1+ 3 e 0.38140(13) 0.38140(13) 0. 0.0204(3) 1 0
F1 F1- 6 g 0.0943(2) 0.17880(17) 0.1898(3) 0.0357(3) 1 0
F2 F1- 6 g 0.44402(16) 0.59942(18) 0.2992(2) 0.0210(3) 1 0
F3 F1- 6 g 0.2615(2) 0.48796(18) 0.6859(3) 0.0235(3) 1 0
loop_
_atom_site_aniso_label
_atom_site_aniso_type_symbol
_atom_site_aniso_U_11
_atom_site_aniso_U_22
_atom_site_aniso_U_33
_atom_site_aniso_U_12
_atom_site_aniso_U_13
_atom_site_aniso_U_23
Si1 Si4+ 0.0130(3) 0.0130(3) 0.0161(6) 0.00648(16) 0. 0.
Si2 Si4+ 0.0125(2) 0.0125(2) 0.0163(4) 0.00624(11) 0. 0.
Na1 Na1+ 0.0187(5) 0.0187(4) 0.0234(6) 0.0093(3) 0.0056(9) 0.0028(5)
Na2 Na1+ 0.0205(4) 0.0205(4) 0.0182(5) 0.0089(4) -0.0009(4) 0.0009(4)
F1 F1- 0.0385(9) 0.0251(7) 0.0380(7) 0.0119(7) 0.0021(11) -0.0156(8)
F2 F1- 0.0190(8) 0.0255(8) 0.0230(6) 0.0145(7) -0.0037(5) -0.0091(6)
F3 F1- 0.0258(7) 0.0182(6) 0.0236(5) 0.0088(6) -0.0049(7) 0.0062(7)
#End of TTdata_433134-ICSD