
#(C) 2019 by FIZ Karlsruhe - Leibniz Institute for Information Infrastructure.  All rights reserved.
data_433291-ICSD
_database_code_ICSD 433291
_audit_creation_date 2018-02-01
_chemical_name_systematic
'Tetrasodium hexaoxo-tetrahydroxo-ditellurate(VI) hexahydrate'
_chemical_formula_structural 'Na4 (Te2 O6 (O H)4) (H2 O)6'
_chemical_formula_sum 'H16 Na4 O16 Te2'
_exptl_crystal_density_diffrn 2.95
_cell_measurement_temperature 100.
_publ_section_title

;
The hydrous sodium oxotellurates(VI) Na[TeO(OH)5], Na2[TeO2(OH)4],
Na4[Te2O6(OH)4](H2O)6, and a third polymorph of anhydrous Na2[TeO4]
;
loop_
_citation_id
_citation_journal_full
_citation_year
_citation_journal_volume
_citation_page_first
_citation_page_last
_citation_journal_id_ASTM
primary 'Zeitschrift fuer Anorganische und Allgemeine Chemie' 2017 643 1888 1897
ZAACAB
loop_
_publ_author_name
'Weil, Matthias'
'Stoeger, Berthold'
'Larvor, Carla'
'Raih, Ilyes'
'Gierl-Mayer, Christian'
_cell_length_a 5.0778(5)
_cell_length_b 12.3774(12)
_cell_length_c 12.6473(13)
_cell_angle_alpha 118.563(2)
_cell_angle_beta 91.186(3)
_cell_angle_gamma 92.916(2)
_cell_volume 696.31
_cell_formula_units_Z 2
_symmetry_space_group_name_H-M 'P -1'
_symmetry_Int_Tables_number 2
_refine_ls_R_factor_all 0.0317
loop_
_symmetry_equiv_pos_site_id
_symmetry_equiv_pos_as_xyz
1 '-x, -y, -z'
2 'x, y, z'
loop_
_atom_type_symbol
_atom_type_oxidation_number
Te6+ 6
Na1+ 1
O2- -2
H1+ 1
loop_
_atom_site_label
_atom_site_type_symbol
_atom_site_symmetry_multiplicity
_atom_site_Wyckoff_symbol
_atom_site_fract_x
_atom_site_fract_y
_atom_site_fract_z
_atom_site_B_iso_or_equiv
_atom_site_occupancy
_atom_site_attached_hydrogens
Te1 Te6+ 2 i -0.05004(4) 0.62408(2) 0.61445(2) 0.00575(5) 1 0
Te2 Te6+ 2 i -0.58144(4) 0.37225(2) 0.88692(2) 0.00597(5) 1 0
Na1 Na1+ 2 i 0.4399(3) 0.62263(13) 0.83959(13) 0.0100(3) 1 0
Na2 Na1+ 2 i -0.0982(3) 0.35921(13) 0.64787(13) 0.0099(3) 1 0
Na3 Na1+ 1 b 1. 1. 0.5 0.0106(4) 1 0
Na4 Na1+ 1 a 1. 1. 1. 0.0155(5) 1 0
Na5 Na1+ 2 i 1.4279(4) 1.07035(16) 0.83572(17) 0.0264(4) 1 0
O1 O2- 2 i 0.1082(5) 0.6919(2) 0.7672(2) 0.0090(5) 1 0
O2 O2- 2 i -0.2862(5) 0.7405(2) 0.6325(2) 0.0081(5) 1 0
O3 O2- 2 i 0.2140(5) 0.7065(2) 0.5616(2) 0.0080(5) 1 0
O4 O2- 2 i -0.3104(5) 0.5332(2) 0.6612(2) 0.0088(5) 1 0
O5 O2- 2 i -0.1722(4) 0.5212(2) 0.4417(2) 0.0066(5) 1 0
O6 O2- 2 i -0.4483(5) 0.3026(2) 0.7356(2) 0.0079(5) 1 0
O7 O2- 2 i -0.8368(5) 0.2522(2) 0.8720(2) 0.0088(5) 1 0
O8 O2- 2 i -0.3382(5) 0.2949(2) 0.9488(2) 0.0087(5) 1 0
O9 O2- 2 i -0.8317(5) 0.4541(2) 0.8328(2) 0.0085(5) 1 0
O10 O2- 2 i -0.6739(4) 0.4801(2) 1.0571(2) 0.0069(5) 1 0
O11 O2- 2 i 1.1755(6) 0.8903(2) 0.3152(3) 0.0140(5) 1 0
O12 O2- 2 i 1.2159(6) 1.1907(3) 0.5407(3) 0.0148(6) 1 0
O13 O2- 2 i 1.3172(6) 0.9538(3) 0.6216(3) 0.0150(6) 1 0
O14 O2- 2 i 1.3557(6) 0.9120(3) 0.8887(3) 0.0172(6) 1 0
O15 O2- 2 i 0.8566(6) 0.9743(3) 0.8066(3) 0.0192(6) 1 0
O16 O2- 2 i 0.7837(5) 0.7969(2) 0.9413(2) 0.0110(5) 1 0
H1 H1+ 2 i 0.368(5) 0.701(5) 0.583(5) 0.042(17) 1 0
H2 H1+ 2 i -0.445(6) 0.514(4) 0.616(3) 0.017(12) 1 0
H3 H1+ 2 i -0.185(5) 0.294(5) 0.925(4) 0.031(15) 1 0
H4 H1+ 2 i -0.954(6) 0.485(4) 0.878(3) 0.013(11) 1 0
H5 H1+ 2 i 1.294(7) 0.848(4) 0.319(5) 0.036(16) 1 0
H6 H1+ 2 i 1.040(8) 0.854(5) 0.273(5) 0.08(3) 1 0
H7 H1+ 2 i 1.235(9) 1.215(4) 0.491(3) 0.020(13) 1 0
H8 H1+ 2 i 1.334(8) 1.221(5) 0.598(3) 0.037(16) 1 0
H9 H1+ 2 i 1.248(9) 0.885(3) 0.606(5) 0.039(16) 1 0
H10 H1+ 2 i 1.460(7) 0.952(6) 0.591(5) 0.06(2) 1 0
H11 H1+ 2 i 1.268(12) 0.846(4) 0.834(5) 0.08(3) 1 0
H12 H1+ 2 i 1.480(8) 0.883(5) 0.910(5) 0.05(2) 1 0
H13 H1+ 2 i 0.874(10) 1.013(4) 0.765(4) 0.035(16) 1 0
H14 H1+ 2 i 0.820(10) 0.899(2) 0.751(3) 0.043(17) 1 0
H15 H1+ 2 i 0.871(10) 0.757(5) 0.879(3) 0.051(18) 1 0
H16 H1+ 2 i 0.817(11) 0.775(5) 0.994(4) 0.051(19) 1 0
loop_
_atom_site_aniso_label
_atom_site_aniso_type_symbol
_atom_site_aniso_U_11
_atom_site_aniso_U_22
_atom_site_aniso_U_33
_atom_site_aniso_U_12
_atom_site_aniso_U_13
_atom_site_aniso_U_23
Te1 Te6+ 0.00564(10) 0.00511(10) 0.00531(11) 0.00065(8) 0.00040(8) 0.00150(9)
Te2 Te6+ 0.00559(10) 0.00610(11) 0.00523(11) 0.00061(8) 0.00035(8) 0.00192(9)
Na1 Na1+ 0.0099(6) 0.0108(7) 0.0097(7) 0.0005(5) 0.0001(5) 0.0051(6)
Na2 Na1+ 0.0101(6) 0.0102(7) 0.0097(7) 0.0010(5) 0.0016(5) 0.0048(6)
Na3 Na1+ 0.0120(9) 0.0091(10) 0.0103(10) 0.0019(8) 0.0015(8) 0.0043(8)
Na4 Na1+ 0.0173(11) 0.0124(11) 0.0140(11) -0.0001(8) -0.0002(9) 0.0043(9)
Na5 Na1+ 0.0343(10) 0.0182(9) 0.0253(10) 0.0075(8) 0.0014(8) 0.0087(8)
O1 O2- 0.0105(11) 0.0081(12) 0.0062(12) 0.0006(9) -0.0023(9) 0.0017(10)
O2 O2- 0.0057(10) 0.0075(11) 0.0103(12) 0.0032(9) 0.0017(9) 0.0033(10)
O3 O2- 0.0064(11) 0.0083(11) 0.0093(12) -0.0004(9) 0.0004(9) 0.0043(10)
O4 O2- 0.0073(11) 0.0098(12) 0.0100(13) -0.0015(9) -0.0001(9) 0.0056(11)
O5 O2- 0.0063(10) 0.0059(11) 0.0064(11) 0.0005(9) -0.0015(9) 0.0020(10)
O6 O2- 0.0087(11) 0.0095(12) 0.0034(11) 0.0013(9) 0.0026(9) 0.0014(10)
O7 O2- 0.0073(11) 0.0088(12) 0.0082(12) -0.0015(9) 0.0003(9) 0.0024(10)
O8 O2- 0.0055(11) 0.0119(12) 0.0091(12) 0.0027(9) 0.0021(9) 0.0052(10)
O9 O2- 0.0057(11) 0.0110(12) 0.0094(12) 0.0028(9) 0.0010(9) 0.0051(10)
O10 O2- 0.0063(10) 0.0064(11) 0.0060(11) 0.0011(9) 0.0013(9) 0.0012(9)
O11 O2- 0.0147(13) 0.0114(13) 0.0131(14) 0.0035(11) -0.0014(11) 0.0035(11)
O12 O2- 0.0182(14) 0.0143(13) 0.0138(14) -0.0039(11) -0.0053(11) 0.0090(12)
O13 O2- 0.0141(13) 0.0129(14) 0.0192(15) -0.0004(11) -0.0013(12) 0.0087(12)
O14 O2- 0.0156(14) 0.0142(14) 0.0161(15) -0.0002(11) -0.0012(11) 0.0030(12)
O15 O2- 0.0292(16) 0.0122(14) 0.0144(15) -0.0011(12) -0.0010(13) 0.0054(13)
O16 O2- 0.0115(12) 0.0103(12) 0.0103(13) 0.0011(10) 0.0024(10) 0.0042(11)
#End of TTdata_433291-ICSD