
#(C) 2019 by FIZ Karlsruhe - Leibniz Institute for Information Infrastructure.  All rights reserved.
data_433334-ICSD
_database_code_ICSD 433334
_audit_creation_date 2018-02-01
_chemical_name_systematic 'Disodium dicesium lead tricosaoxo-octadecaborate'
_chemical_formula_structural 'Na2 Cs2 Pb B18 O30'
_chemical_formula_sum 'B18 Cs2 Na2 O30 Pb1'
_chemical_name_structure_type Na2Cs2Sr(B9O15)2
_exptl_crystal_density_diffrn 3.17
_cell_measurement_temperature 296.
_publ_section_title

;
Structural insights into borates with an anion-templated open-framework
configuration. Asymmetric K2BaB16O26 versus centrosymmetric K3CsB20O32 and
Na2M2NB18O30 (M=Rb, Cs; N=Ba, Pb)
;
loop_
_citation_id
_citation_journal_full
_citation_year
_citation_journal_volume
_citation_page_first
_citation_page_last
_citation_journal_id_ASTM
primary 'Chemistry - A European Journal' 2017 23 13910 13918 CEUJED
loop_
_publ_author_name
'Mutailipu, Miriding'
'Zhang, Min'
'Su, Xin'
'Yang, Zhihua'
'Chen, Yanna'
'Pan, Shilie'
_cell_length_a 8.492(3)
_cell_length_b 8.552(3)
_cell_length_c 17.226(7)
_cell_angle_alpha 90.
_cell_angle_beta 92.223(4)
_cell_angle_gamma 90.
_cell_volume 1250.07
_cell_formula_units_Z 2
_symmetry_space_group_name_H-M 'P 1 21/c 1'
_symmetry_Int_Tables_number 14
_refine_ls_R_factor_all 0.0279
loop_
_symmetry_equiv_pos_site_id
_symmetry_equiv_pos_as_xyz
1 'x, -y+1/2, z+1/2'
2 '-x, -y, -z'
3 '-x, y+1/2, -z+1/2'
4 'x, y, z'
loop_
_atom_type_symbol
_atom_type_oxidation_number
Pb2+ 2
Cs1+ 1
Na1+ 1
B3+ 3
O2- -2
loop_
_atom_site_label
_atom_site_type_symbol
_atom_site_symmetry_multiplicity
_atom_site_Wyckoff_symbol
_atom_site_fract_x
_atom_site_fract_y
_atom_site_fract_z
_atom_site_B_iso_or_equiv
_atom_site_occupancy
_atom_site_attached_hydrogens
Pb1 Pb2+ 2 a 0. 0.5 0.5 0.01987(10) 1 0
Cs1 Cs1+ 4 e 0.50057(4) 0.46491(4) 0.196943(19) 0.02178(11) 1 0
Na1 Na1+ 4 e 0.2243(2) 0.2636(2) 0.38200(11) 0.0163(4) 1 0
B1 B3+ 4 e -0.3319(6) 0.6431(6) 0.4159(3) 0.0090(10) 1 0
B2 B3+ 4 e -0.1794(6) 0.1199(6) 0.5601(3) 0.0108(10) 1 0
B3 B3+ 4 e -0.0459(6) 0.1927(6) 0.2903(3) 0.0104(10) 1 0
B4 B3+ 4 e 0.6220(6) 0.3593(6) 0.4079(3) 0.0106(10) 1 0
B5 B3+ 4 e 0.4019(6) 0.5411(6) 0.3962(3) 0.0094(10) 1 0
B6 B3+ 4 e -0.1718(6) 0.1514(6) 0.4190(3) 0.0093(10) 1 0
B7 B3+ 4 e 0.1363(6) 0.1749(6) 0.1856(3) 0.0110(10) 1 0
B8 B3+ 4 e 0.1487(6) 0.6665(6) 0.3430(3) 0.0086(10) 1 0
B9 B3+ 4 e 0.2219(6) 0.1034(6) 0.5254(3) 0.0105(10) 1 0
O1 O2- 4 e 0.4664(4) 0.3907(3) 0.38522(18) 0.0130(7) 1 0
O2 O2- 4 e 0.2434(4) 0.5447(3) 0.38238(19) 0.0118(7) 1 0
O3 O2- 4 e -0.2548(4) 0.7397(3) 0.47507(17) 0.0111(6) 1 0
O4 O2- 4 e -0.2864(4) 0.4799(3) 0.43524(19) 0.0109(7) 1 0
O5 O2- 4 e -0.1214(4) 0.2016(3) 0.49883(17) 0.0106(6) 1 0
O6 O2- 4 e -0.0514(4) 0.2133(4) 0.36863(17) 0.0110(6) 1 0
O7 O2- 4 e 0.1063(4) 0.2126(4) 0.26231(18) 0.0155(7) 1 0
O8 O2- 4 e 0.1832(4) 0.4800(3) 0.08748(18) 0.0112(7) 1 0
O9 O2- 4 e 0.3296(4) 0.7115(3) 0.10046(18) 0.0112(7) 1 0
O10 O2- 4 e 0.5052(4) 0.1619(3) 0.08371(18) 0.0116(7) 1 0
O11 O2- 4 e 0.7674(4) 0.5327(3) 0.04772(19) 0.0129(7) 1 0
O12 O2- 4 e 0.2878(4) 0.1779(4) 0.16453(17) 0.0115(7) 1 0
O13 O2- 4 e -0.0145(4) 0.6313(4) 0.36250(17) 0.0112(6) 1 0
O14 O2- 4 e 0.8087(4) 0.3248(3) 0.13240(17) 0.0110(6) 1 0
O15 O2- 4 e 0.1690(4) 0.6590(4) 0.25832(17) 0.0120(7) 1 0
loop_
_atom_site_aniso_label
_atom_site_aniso_type_symbol
_atom_site_aniso_U_11
_atom_site_aniso_U_22
_atom_site_aniso_U_33
_atom_site_aniso_U_12
_atom_site_aniso_U_13
_atom_site_aniso_U_23
Pb1 Pb2+ 0.01691(16) 0.02561(17) 0.01702(16) 0.00092(11) -0.00030(11)
0.00225(11)
Cs1 Cs1+ 0.0234(2) 0.02160(18) 0.02017(18) -0.00017(12) -0.00212(14)
-0.00142(12)
Na1 Na1+ 0.0167(11) 0.0172(9) 0.0147(9) -0.0057(8) -0.0017(8) 0.0004(7)
B1 B3+ 0.007(2) 0.010(2) 0.009(2) 0.0030(18) -0.0023(19) 0.0012(18)
B2 B3+ 0.008(2) 0.012(2) 0.012(2) 0.0020(18) -0.001(2) 0.0019(19)
B3 B3+ 0.011(3) 0.009(2) 0.011(2) 0.0019(18) 0.000(2) 0.0018(18)
B4 B3+ 0.012(3) 0.011(2) 0.010(2) 0.0007(19) 0.002(2) 0.0002(18)
B5 B3+ 0.011(3) 0.013(2) 0.004(2) -0.0011(19) 0.0009(19) 0.0008(18)
B6 B3+ 0.007(2) 0.011(2) 0.010(2) 0.0003(18) 0.0014(19) -0.0010(19)
B7 B3+ 0.012(3) 0.009(2) 0.012(2) -0.0017(19) -0.002(2) 0.0017(19)
B8 B3+ 0.009(3) 0.012(2) 0.004(2) 0.0033(18) 0.0013(18) -0.0003(18)
B9 B3+ 0.009(2) 0.011(2) 0.011(2) 0.0009(19) -0.0003(19) 0.0008(19)
O1 O2- 0.0089(17) 0.0104(15) 0.0193(17) 0.0007(12) -0.0032(13) -0.0023(13)
O2 O2- 0.0086(17) 0.0119(15) 0.0149(17) -0.0003(12) -0.0026(13) 0.0006(13)
O3 O2- 0.0131(17) 0.0093(14) 0.0108(16) -0.0036(12) -0.0001(13) -0.0013(12)
O4 O2- 0.0064(16) 0.0103(15) 0.0158(17) 0.0007(12) -0.0039(13) 0.0006(12)
O5 O2- 0.0128(17) 0.0117(15) 0.0073(15) -0.0015(12) 0.0002(12) -0.0010(12)
O6 O2- 0.0076(16) 0.0154(15) 0.0100(15) -0.0011(12) 0.0014(12) 0.0007(12)
O7 O2- 0.0093(17) 0.0260(18) 0.0112(16) -0.0044(13) 0.0021(13) -0.0039(13)
O8 O2- 0.0149(18) 0.0098(15) 0.0091(16) 0.0003(12) 0.0022(13) -0.0001(12)
O9 O2- 0.0097(17) 0.0086(14) 0.0153(17) -0.0005(12) -0.0002(13) 0.0030(12)
O10 O2- 0.0080(16) 0.0113(15) 0.0158(16) 0.0009(12) 0.0037(13) 0.0002(12)
O11 O2- 0.0207(19) 0.0090(15) 0.0090(16) 0.0040(13) 0.0026(14) -0.0009(12)
O12 O2- 0.0063(16) 0.0181(16) 0.0103(16) -0.0009(12) 0.0020(12) -0.0018(12)
O13 O2- 0.0090(16) 0.0168(15) 0.0078(15) 0.0013(12) 0.0005(12) 0.0035(12)
O14 O2- 0.0132(17) 0.0109(15) 0.0092(15) 0.0013(12) 0.0039(13) 0.0019(12)
O15 O2- 0.0088(16) 0.0196(16) 0.0077(15) -0.0001(13) 0.0001(12) -0.0011(13)
#End of TTdata_433334-ICSD