
#(C) 2019 by FIZ Karlsruhe - Leibniz Institute for Information Infrastructure.  All rights reserved.
data_433333-ICSD
_database_code_ICSD 433333
_audit_creation_date 2018-02-01
_chemical_name_systematic 'Disodium dicesium barium tricosaoxo-octadecaborate'
_chemical_formula_structural 'Na2 Cs2 Ba B18 O30'
_chemical_formula_sum 'B18 Ba1 Cs2 Na2 O30'
_chemical_name_structure_type Na2Cs2Sr(B9O15)2
_exptl_crystal_density_diffrn 2.96
_cell_measurement_temperature 296.
_publ_section_title

;
Structural insights into borates with an anion-templated open-framework
configuration. Asymmetric K2BaB16O26 versus centrosymmetric K3CsB20O32 and
Na2M2NB18O30 (M=Rb, Cs; N=Ba, Pb)
;
loop_
_citation_id
_citation_journal_full
_citation_year
_citation_journal_volume
_citation_page_first
_citation_page_last
_citation_journal_id_ASTM
primary 'Chemistry - A European Journal' 2017 23 13910 13918 CEUJED
loop_
_publ_author_name
'Mutailipu, Miriding'
'Zhang, Min'
'Su, Xin'
'Yang, Zhihua'
'Chen, Yanna'
'Pan, Shilie'
_cell_length_a 8.523(2)
_cell_length_b 8.582(2)
_cell_length_c 17.271(5)
_cell_angle_alpha 90.
_cell_angle_beta 91.745(3)
_cell_angle_gamma 90.
_cell_volume 1262.69
_cell_formula_units_Z 2
_symmetry_space_group_name_H-M 'P 1 21/c 1'
_symmetry_Int_Tables_number 14
_refine_ls_R_factor_all 0.0296
loop_
_symmetry_equiv_pos_site_id
_symmetry_equiv_pos_as_xyz
1 'x, -y+1/2, z+1/2'
2 '-x, -y, -z'
3 '-x, y+1/2, -z+1/2'
4 'x, y, z'
loop_
_atom_type_symbol
_atom_type_oxidation_number
Ba2+ 2
Cs1+ 1
Na1+ 1
B3+ 3
O2- -2
loop_
_atom_site_label
_atom_site_type_symbol
_atom_site_symmetry_multiplicity
_atom_site_Wyckoff_symbol
_atom_site_fract_x
_atom_site_fract_y
_atom_site_fract_z
_atom_site_B_iso_or_equiv
_atom_site_occupancy
_atom_site_attached_hydrogens
Ba1 Ba2+ 2 a 0. 0.5 0.5 0.01083(10) 1 0
Cs1 Cs1+ 4 e 0.49888(3) 0.47000(3) 0.197917(16) 0.02066(10) 1 0
Na1 Na1+ 4 e 0.22678(18) 0.26313(18) 0.38220(10) 0.0158(3) 1 0
B1 B3+ 4 e -0.3336(5) 0.6469(5) 0.4108(3) 0.0102(9) 1 0
B2 B3+ 4 e -0.1854(5) 0.1163(5) 0.5608(3) 0.0115(9) 1 0
B3 B3+ 4 e -0.0496(5) 0.2012(5) 0.2937(3) 0.0099(9) 1 0
B4 B3+ 4 e 0.6174(5) 0.3636(5) 0.4064(3) 0.0100(8) 1 0
B5 B3+ 4 e 0.4004(5) 0.5453(5) 0.3927(3) 0.0102(8) 1 0
B6 B3+ 4 e -0.1793(5) 0.1549(5) 0.4203(3) 0.0092(8) 1 0
B7 B3+ 4 e 0.1334(5) 0.1842(5) 0.1891(3) 0.0113(9) 1 0
B8 B3+ 4 e 0.1495(5) 0.6768(5) 0.3401(3) 0.0098(9) 1 0
B9 B3+ 4 e 0.2279(5) 0.1027(5) 0.5260(3) 0.0101(8) 1 0
O1 O2- 4 e 0.4615(3) 0.3957(3) 0.38391(17) 0.0136(6) 1 0
O2 O2- 4 e 0.2420(3) 0.5518(3) 0.37942(17) 0.0114(6) 1 0
O3 O2- 4 e -0.2580(3) 0.7409(3) 0.47181(15) 0.0103(5) 1 0
O4 O2- 4 e -0.2896(3) 0.4840(3) 0.43012(17) 0.0124(6) 1 0
O5 O2- 4 e -0.1327(3) 0.2010(3) 0.50023(15) 0.0106(5) 1 0
O6 O2- 4 e -0.0569(3) 0.2174(3) 0.37086(15) 0.0117(6) 1 0
O7 O2- 4 e 0.1027(3) 0.2212(3) 0.26553(16) 0.0164(6) 1 0
O8 O2- 4 e 0.1906(3) 0.4844(3) 0.08778(16) 0.0108(6) 1 0
O9 O2- 4 e 0.3360(3) 0.7155(3) 0.09977(16) 0.0115(6) 1 0
O10 O2- 4 e 0.5055(3) 0.1668(3) 0.08974(16) 0.0105(6) 1 0
O11 O2- 4 e 0.7629(3) 0.5366(3) 0.04735(16) 0.0142(6) 1 0
O12 O2- 4 e 0.2853(3) 0.1841(3) 0.16823(16) 0.0110(6) 1 0
O13 O2- 4 e -0.0133(3) 0.6430(3) 0.35967(15) 0.0107(5) 1 0
O14 O2- 4 e 0.8052(3) 0.3322(3) 0.13388(15) 0.0111(6) 1 0
O15 O2- 4 e 0.1714(3) 0.6697(3) 0.25606(15) 0.0119(6) 1 0
loop_
_atom_site_aniso_label
_atom_site_aniso_type_symbol
_atom_site_aniso_U_11
_atom_site_aniso_U_22
_atom_site_aniso_U_33
_atom_site_aniso_U_12
_atom_site_aniso_U_13
_atom_site_aniso_U_23
Ba1 Ba2+ 0.00889(16) 0.01181(17) 0.01166(19) -0.00141(11) -0.00173(12)
0.00284(13)
Cs1 Cs1+ 0.02239(15) 0.01999(16) 0.01942(17) 0.00031(10) -0.00196(11)
-0.00154(11)
Na1 Na1+ 0.0168(8) 0.0172(8) 0.0132(9) -0.0045(6) -0.0023(6) 0.0013(7)
B1 B3+ 0.0081(19) 0.010(2) 0.012(2) -0.0005(15) -0.0007(16) 0.0002(17)
B2 B3+ 0.0059(18) 0.014(2) 0.015(2) 0.0009(15) -0.0015(16) -0.0029(18)
B3 B3+ 0.0107(19) 0.0068(19) 0.012(2) -0.0006(14) 0.0007(16) 0.0040(16)
B4 B3+ 0.0097(19) 0.010(2) 0.010(2) -0.0020(15) -0.0003(16) -0.0006(17)
B5 B3+ 0.012(2) 0.013(2) 0.006(2) -0.0011(15) 0.0013(16) 0.0025(17)
B6 B3+ 0.0096(19) 0.0064(19) 0.012(2) -0.0011(14) 0.0020(16) 0.0005(16)
B7 B3+ 0.012(2) 0.0076(19) 0.014(2) -0.0009(15) 0.0000(17) 0.0017(17)
B8 B3+ 0.0066(18) 0.009(2) 0.014(2) -0.0003(14) -0.0006(16) 0.0010(17)
B9 B3+ 0.0085(18) 0.011(2) 0.010(2) -0.0006(15) -0.0020(16) -0.0019(17)
O1 O2- 0.0085(12) 0.0121(14) 0.0200(16) -0.0003(10) -0.0025(11) -0.0034(12)
O2 O2- 0.0078(12) 0.0113(13) 0.0149(15) 0.0007(10) -0.0013(10) 0.0007(11)
O3 O2- 0.0119(12) 0.0090(13) 0.0099(14) -0.0011(10) -0.0011(10) 0.0004(11)
O4 O2- 0.0081(12) 0.0088(13) 0.0201(16) 0.0008(10) -0.0049(11) -0.0004(11)
O5 O2- 0.0143(13) 0.0112(13) 0.0062(14) -0.0019(10) 0.0009(10) -0.0011(11)
O6 O2- 0.0102(12) 0.0159(14) 0.0089(15) -0.0034(10) -0.0002(10) 0.0016(11)
O7 O2- 0.0108(13) 0.0303(17) 0.0079(15) -0.0039(11) -0.0008(11) -0.0022(12)
O8 O2- 0.0163(13) 0.0077(13) 0.0085(14) -0.0001(10) 0.0021(11) 0.0007(10)
O9 O2- 0.0081(12) 0.0106(13) 0.0157(16) -0.0002(10) -0.0016(11) 0.0011(11)
O10 O2- 0.0082(12) 0.0095(13) 0.0137(15) -0.0019(10) -0.0004(10) 0.0001(11)
O11 O2- 0.0234(15) 0.0103(14) 0.0091(15) 0.0055(11) 0.0016(12) -0.0001(11)
O12 O2- 0.0064(12) 0.0177(14) 0.0088(14) 0.0004(10) -0.0015(10) 0.0023(11)
O13 O2- 0.0073(12) 0.0170(14) 0.0079(14) 0.0000(10) 0.0000(10) 0.0025(11)
O14 O2- 0.0127(13) 0.0105(13) 0.0099(15) 0.0000(10) -0.0005(11) 0.0006(11)
O15 O2- 0.0092(12) 0.0196(15) 0.0069(14) 0.0020(10) 0.0007(10) -0.0015(11)
#End of TTdata_433333-ICSD