
#(C) 2019 by FIZ Karlsruhe - Leibniz Institute for Information Infrastructure.  All rights reserved.
data_433335-ICSD
_database_code_ICSD 433335
_audit_creation_date 2018-02-01
_chemical_name_systematic 'Disodium dirubidium lead tricosaoxo-octadecaborate'
_chemical_formula_structural 'Na2 Rb2 Pb B18 O30'
_chemical_formula_sum 'B18 Na2 O30 Pb1 Rb2'
_chemical_name_structure_type Na2Cs2Sr(B9O15)2
_exptl_crystal_density_diffrn 2.96
_cell_measurement_temperature 296.
_publ_section_title

;
Structural insights into borates with an anion-templated open-framework
configuration. Asymmetric K2BaB16O26 versus centrosymmetric K3CsB20O32 and
Na2M2NB18O30 (M=Rb, Cs; N=Ba, Pb)
;
loop_
_citation_id
_citation_journal_full
_citation_year
_citation_journal_volume
_citation_page_first
_citation_page_last
_citation_journal_id_ASTM
primary 'Chemistry - A European Journal' 2017 23 13910 13918 CEUJED
loop_
_publ_author_name
'Mutailipu, Miriding'
'Zhang, Min'
'Su, Xin'
'Yang, Zhihua'
'Chen, Yanna'
'Pan, Shilie'
_cell_length_a 8.4568(8)
_cell_length_b 8.5226(8)
_cell_length_c 17.1080(16)
_cell_angle_alpha 90.
_cell_angle_beta 91.7120(10)
_cell_angle_gamma 90.
_cell_volume 1232.49
_cell_formula_units_Z 2
_symmetry_space_group_name_H-M 'P 1 21/c 1'
_symmetry_Int_Tables_number 14
_refine_ls_R_factor_all 0.0232
loop_
_symmetry_equiv_pos_site_id
_symmetry_equiv_pos_as_xyz
1 'x, -y+1/2, z+1/2'
2 '-x, -y, -z'
3 '-x, y+1/2, -z+1/2'
4 'x, y, z'
loop_
_atom_type_symbol
_atom_type_oxidation_number
Pb2+ 2
Rb1+ 1
Na1+ 1
B3+ 3
O2- -2
loop_
_atom_site_label
_atom_site_type_symbol
_atom_site_symmetry_multiplicity
_atom_site_Wyckoff_symbol
_atom_site_fract_x
_atom_site_fract_y
_atom_site_fract_z
_atom_site_B_iso_or_equiv
_atom_site_occupancy
_atom_site_attached_hydrogens
Pb1 Pb2+ 2 a 0. 0.5 0.5 0.01932(8) 1 0
Rb1 Rb1+ 4 e 0.48404(5) 0.46022(5) 0.19048(2) 0.02829(11) 1 0
Na1 Na1+ 4 e 0.22698(16) 0.26572(16) 0.38033(8) 0.0157(3) 1 0
B1 B3+ 4 e -0.3323(4) 0.6421(4) 0.4150(2) 0.0089(7) 1 0
B2 B3+ 4 e -0.1857(4) 0.1191(4) 0.5624(2) 0.0090(7) 1 0
B3 B3+ 4 e -0.0483(4) 0.1949(4) 0.2920(2) 0.0110(7) 1 0
B4 B3+ 4 e 0.6221(4) 0.3604(4) 0.4056(2) 0.0100(7) 1 0
B5 B3+ 4 e 0.4031(4) 0.5427(4) 0.3939(2) 0.0103(7) 1 0
B6 B3+ 4 e -0.1745(4) 0.1509(4) 0.4207(2) 0.0090(7) 1 0
B7 B3+ 4 e 0.1346(4) 0.1811(4) 0.1863(2) 0.0116(7) 1 0
B8 B3+ 4 e 0.1509(4) 0.6687(4) 0.3406(2) 0.0096(7) 1 0
B9 B3+ 4 e 0.2240(4) 0.1057(4) 0.5234(2) 0.0105(7) 1 0
O1 O2- 4 e 0.4683(3) 0.3945(3) 0.37919(14) 0.0144(5) 1 0
O2 O2- 4 e 0.2443(3) 0.5461(3) 0.38102(14) 0.0122(5) 1 0
O3 O2- 4 e -0.2545(3) 0.7376(3) 0.47633(12) 0.0101(4) 1 0
O4 O2- 4 e -0.2855(3) 0.4794(3) 0.43323(14) 0.0123(5) 1 0
O5 O2- 4 e -0.1288(3) 0.2009(3) 0.50096(12) 0.0105(4) 1 0
O6 O2- 4 e -0.0527(3) 0.2129(3) 0.37059(12) 0.0112(5) 1 0
O7 O2- 4 e 0.1033(3) 0.2193(3) 0.26282(13) 0.0164(5) 1 0
O8 O2- 4 e 0.1856(3) 0.4796(3) 0.08570(13) 0.0124(5) 1 0
O9 O2- 4 e 0.3328(3) 0.7103(3) 0.10058(13) 0.0114(5) 1 0
O10 O2- 4 e 0.5046(3) 0.1634(3) 0.08331(13) 0.0114(5) 1 0
O11 O2- 4 e 0.7613(3) 0.5348(3) 0.04988(13) 0.0139(5) 1 0
O12 O2- 4 e 0.2871(3) 0.1829(3) 0.16495(12) 0.0115(5) 1 0
O13 O2- 4 e -0.0132(3) 0.6361(3) 0.36246(12) 0.0110(5) 1 0
O14 O2- 4 e 0.8022(3) 0.3268(3) 0.13561(12) 0.0115(5) 1 0
O15 O2- 4 e 0.1705(3) 0.6567(3) 0.25611(12) 0.0125(5) 1 0
loop_
_atom_site_aniso_label
_atom_site_aniso_type_symbol
_atom_site_aniso_U_11
_atom_site_aniso_U_22
_atom_site_aniso_U_33
_atom_site_aniso_U_12
_atom_site_aniso_U_13
_atom_site_aniso_U_23
Pb1 Pb2+ 0.01608(12) 0.02491(13) 0.01689(11) 0.00207(8) -0.00086(7) 0.00236(7)
Rb1 Rb1+ 0.0327(2) 0.0216(2) 0.0300(2) -0.00234(15) -0.00753(16) 0.00099(15)
Na1 Na1+ 0.0166(7) 0.0146(7) 0.0158(7) -0.0042(5) -0.0027(5) 0.0007(5)
B1 B3+ 0.0076(17) 0.0064(17) 0.0125(17) 0.0004(13) -0.0015(13) -0.0010(13)
B2 B3+ 0.0062(17) 0.0094(17) 0.0113(17) 0.0008(13) 0.0011(13) 0.0005(13)
B3 B3+ 0.0101(18) 0.0110(18) 0.0119(17) -0.0002(13) -0.0001(13) 0.0025(13)
B4 B3+ 0.0083(18) 0.0105(18) 0.0114(17) -0.0017(13) 0.0013(13) 0.0003(13)
B5 B3+ 0.0116(18) 0.0123(17) 0.0071(15) 0.0013(14) 0.0007(12) 0.0007(13)
B6 B3+ 0.0107(18) 0.0067(17) 0.0097(16) -0.0001(13) 0.0012(13) -0.0012(12)
B7 B3+ 0.0121(18) 0.0103(18) 0.0122(17) -0.0001(14) -0.0014(13) 0.0027(13)
B8 B3+ 0.0095(17) 0.0102(17) 0.0091(16) 0.0016(13) -0.0013(13) 0.0015(13)
B9 B3+ 0.0064(17) 0.0127(18) 0.0123(17) 0.0006(13) -0.0020(13) -0.0010(13)
O1 O2- 0.0084(12) 0.0113(12) 0.0231(13) 0.0003(9) -0.0053(9) -0.0042(9)
O2 O2- 0.0090(12) 0.0098(11) 0.0175(12) 0.0000(9) -0.0033(9) 0.0005(9)
O3 O2- 0.0130(12) 0.0067(11) 0.0106(10) -0.0022(9) -0.0024(8) 0.0005(8)
O4 O2- 0.0092(12) 0.0083(12) 0.0192(12) 0.0003(8) -0.0040(9) 0.0003(9)
O5 O2- 0.0134(12) 0.0099(11) 0.0081(10) -0.0030(9) -0.0006(8) -0.0002(8)
O6 O2- 0.0087(11) 0.0154(12) 0.0095(10) -0.0019(9) 0.0012(8) 0.0006(9)
O7 O2- 0.0104(12) 0.0287(14) 0.0103(11) -0.0063(10) 0.0023(9) -0.0052(10)
O8 O2- 0.0194(13) 0.0078(12) 0.0098(11) -0.0008(9) 0.0009(9) 0.0007(8)
O9 O2- 0.0090(11) 0.0071(11) 0.0181(11) -0.0012(8) -0.0006(8) 0.0022(9)
O10 O2- 0.0067(11) 0.0098(11) 0.0177(12) -0.0011(9) 0.0009(9) 0.0012(9)
O11 O2- 0.0228(14) 0.0088(11) 0.0100(11) 0.0030(9) 0.0022(9) 0.0001(9)
O12 O2- 0.0069(11) 0.0164(12) 0.0111(11) -0.0018(9) -0.0006(8) 0.0003(9)
O13 O2- 0.0067(11) 0.0152(12) 0.0112(11) 0.0007(9) 0.0006(8) 0.0022(9)
O14 O2- 0.0153(12) 0.0087(11) 0.0105(11) 0.0014(9) 0.0017(9) -0.0002(9)
O15 O2- 0.0075(11) 0.0209(13) 0.0090(11) 0.0010(9) 0.0007(8) -0.0037(9)
#End of TTdata_433335-ICSD