
#(C) 2019 by FIZ Karlsruhe - Leibniz Institute for Information Infrastructure.  All rights reserved.
data_433788-ICSD
_database_code_ICSD 433788
_audit_creation_date 2019-02-01
_chemical_name_systematic 'Trisodium hexafluorogallate'
_chemical_formula_structural 'Na3 Ga F6'
_chemical_formula_sum 'F6 Ga1 Na3'
_chemical_name_structure_type Perovskite-Na3AlF6
_exptl_crystal_density_diffrn 3.36
_cell_measurement_temperature 500.
_publ_section_title
'Na3GaF6 - A crystal chemical and solid state NMR spectroscopic study'
loop_
_citation_id
_citation_journal_full
_citation_year
_citation_journal_volume
_citation_page_first
_citation_page_last
_citation_journal_id_ASTM
primary 'Zeitschrift fuer Kristallographie - Crystalline Materials' 2018 233 479
487 ZKCMAJ
loop_
_publ_author_name
'Boehnisch, David'
'Seidel, Stefan'
'Benndorf, Christopher'
'Jansen, Thomas'
'Funke, Lena'
'Hoffmann, Rolf-Dieter'
'Heletta, Lukas'
'Stahl, Juliane'
'Johrendt, Dirk'
'Eckert, Hellmut'
'Juestel, Thomas'
'Poettgen, Rainer'
_cell_length_a 5.522(1)
_cell_length_b 5.697(1)
_cell_length_c 9.630(2)
_cell_angle_alpha 90
_cell_angle_beta 124.49(1)
_cell_angle_gamma 90
_cell_volume 249.69
_cell_formula_units_Z 2
_symmetry_space_group_name_H-M 'P 1 21/c 1'
_symmetry_Int_Tables_number 14
_refine_ls_R_factor_all 0.019
loop_
_symmetry_equiv_pos_site_id
_symmetry_equiv_pos_as_xyz
1 'x, -y+1/2, z+1/2'
2 '-x, -y, -z'
3 '-x, y+1/2, -z+1/2'
4 'x, y, z'
loop_
_atom_type_symbol
_atom_type_oxidation_number
Ga3+ 3
Na1+ 1
F1- -1
loop_
_atom_site_label
_atom_site_type_symbol
_atom_site_symmetry_multiplicity
_atom_site_Wyckoff_symbol
_atom_site_fract_x
_atom_site_fract_y
_atom_site_fract_z
_atom_site_B_iso_or_equiv
_atom_site_occupancy
_atom_site_attached_hydrogens
Ga1 Ga3+ 2 a 0 0 0 0.02114(12) 1 0
Na1 Na1+ 2 d 0.5 0 0.5 0.0309(5) 1 0
Na2 Na1+ 4 e 0.2647(3) 0.44925(18) 0.25282(15) 0.0419(5) 1 0
F1 F1- 4 e 0.1170(3) 0.0497(2) 0.22337(17) 0.0362(7) 1 0
F2 F1- 4 e 0.2301(4) 0.7243(2) 0.0650(2) 0.0388(8) 1 0
F3 F1- 4 e 0.3282(3) 0.1751(3) 0.0476(2) 0.0378(7) 1 0
loop_
_atom_site_aniso_label
_atom_site_aniso_type_symbol
_atom_site_aniso_U_11
_atom_site_aniso_U_22
_atom_site_aniso_U_33
_atom_site_aniso_U_12
_atom_site_aniso_U_13
_atom_site_aniso_U_23
Ga1 Ga3+ 0.02072(13) 0.02091(13) 0.02085(13) -0.00015(18) 0.01120(11)
-0.00010(17)
Na1 Na1+ 0.0332(5) 0.0298(5) 0.0310(5) 0.0030(8) 0.0189(5) 0.0013(7)
Na2 Na1+ 0.0415(5) 0.0378(6) 0.0486(6) -0.0038(4) 0.0269(5) -0.0004(4)
F1 F1- 0.0408(7) 0.0440(9) 0.0233(6) -0.0038(6) 0.0178(6) -0.0026(5)
F2 F1- 0.0446(8) 0.0298(7) 0.0493(9) 0.0141(6) 0.0308(8) 0.0106(6)
F3 F1- 0.0290(6) 0.0378(7) 0.0437(9) -0.0072(6) 0.0188(7) 0.0046(6)
#End of TTdata_433788-ICSD