
#(C) 2019 by FIZ Karlsruhe - Leibniz Institute for Information Infrastructure.  All rights reserved.
data_4369-ICSD
_database_code_ICSD 4369
_audit_creation_date 1986-08-07
_audit_update_record 2007-08-01
_chemical_name_systematic 'Hexasodium iron tetraalumooctasilicate'
_chemical_formula_structural 'Na6 Fe (Al4 Si8 O26)'
_chemical_formula_sum 'Al4 Fe1 Na6 O26 Si8'
_chemical_name_mineral Naujakasite
_exptl_crystal_density_diffrn 2.72
_publ_section_title
'The crystal structure of naujakasite, a double sheet silicate'
loop_
_citation_id
_citation_journal_full
_citation_year
_citation_journal_volume
_citation_page_first
_citation_page_last
_citation_journal_id_ASTM
primary 'Bulletin - Groenlands Geologiske Undersoegelse' 1975 116 11 24 BGGUA9
loop_
_publ_author_name
'Basso, R.'
'dal Negro, A.'
'Giusta, A.D.'
'Ungaretti, L.'
_cell_length_a 15.025(1)
_cell_length_b 7.991(2)
_cell_length_c 10.468(1)
_cell_angle_alpha 90.
_cell_angle_beta 113.67(8)
_cell_angle_gamma 90.
_cell_volume 1151.1
_cell_formula_units_Z 2
_symmetry_space_group_name_H-M 'C 1 2/m 1'
_symmetry_Int_Tables_number 12
_refine_ls_R_factor_all 0.041
loop_
_symmetry_equiv_pos_site_id
_symmetry_equiv_pos_as_xyz
1 '-x, y, -z'
2 '-x, -y, -z'
3 'x, -y, z'
4 'x, y, z'
5 '-x+1/2, y+1/2, -z'
6 '-x+1/2, -y+1/2, -z'
7 'x+1/2, -y+1/2, z'
8 'x+1/2, y+1/2, z'
loop_
_atom_type_symbol
_atom_type_oxidation_number
Fe2+ 2
Si4+ 4
Al3+ 3
O2- -2
Na1+ 1
loop_
_atom_site_label
_atom_site_type_symbol
_atom_site_symmetry_multiplicity
_atom_site_Wyckoff_symbol
_atom_site_fract_x
_atom_site_fract_y
_atom_site_fract_z
_atom_site_B_iso_or_equiv
_atom_site_occupancy
_atom_site_attached_hydrogens
Fe1 Fe2+ 2 a 0 0 0 . 1. 0
Si1 Si4+ 8 j 0.1505(1) 0.3081(1) 0.1315(1) . 1. 0
Si2 Si4+ 8 j 0.0584(1) 0.1953(1) 0.3415(1) . 0.5 0
Si3 Si4+ 8 j 0.1463(1) 0.3014(1) 0.6507(1) . 0.5 0
Al1 Al3+ 8 j 0.0584(1) 0.1953(1) 0.3415(1) . 0.5 0
Al2 Al3+ 8 j 0.1463(1) 0.3014(1) 0.6507(1) . 0.5 0
O1 O2- 8 j 0.1010(1) 0.1789(3) 0.0102(2) . 1. 0
O2 O2- 8 j 0.2681(1) 0.2937(3) 0.2103(2) . 1. 0
O3 O2- 8 j 0.1070(1) 0.3120(3) 0.2509(2) . 1. 0
O4 O2- 4 i 0.1318(1) 0.5 0.0647(3) . 1. 0
O5 O2- 8 j 0.1393(1) 0.1973(3) 0.5071(2) . 1. 0
O6 O2- 4 i 0.0360(2) 0 0.2759(3) . 1. 0
O7 O2- 8 j 0.0445(1) 0.2932(3) 0.6771(2) . 1. 0
O8 O2- 4 i 0.1769(2) 0.5 0.6338(3) . 1. 0
Na1 Na1+ 4 i 0.2299(1) 0.5 0.4403(2) . 1. 0
Na2 Na1+ 4 i 0.3430(1) 0.5 0.1126(2) . 1. 0
Na3 Na1+ 4 i 0.4643(1) 0 0.1650(2) . 1. 0
loop_
_atom_site_aniso_label
_atom_site_aniso_type_symbol
_atom_site_aniso_beta_11
_atom_site_aniso_beta_22
_atom_site_aniso_beta_33
_atom_site_aniso_beta_12
_atom_site_aniso_beta_13
_atom_site_aniso_beta_23
Fe1 Fe2+ 0.0008(1) 0.0011(1) 0.0059(1) 0 0.0012(1) 0
Si1 Si4+ 0.0007(1) 0.0017(1) 0.0026(1) -.0001(1) 0.0005(1) -.0003(1)
Si2 Si4+ 0.0008(1) 0.0028(1) 0.0030(1) -.0001(1) 0.0007(1) -.0008(1)
Si3 Si4+ 0.0007(1) 0.0022(1) 0.0028(1) -.0002(1) 0.0005(1) -.0003(1)
Al1 Al3+ 0.0008(1) 0.0028(1) 0.0030(1) -.0001(1) 0.0007(1) -.0008(1)
Al2 Al3+ 0.0007(1) 0.0022(1) 0.0028(1) -.0002(1) 0.0005(1) -.0003(1)
O1 O2- 0.0018(1) 0.0059(4) 0.0061(3) -.0020(2) 0.0019(2) -.0037(3)
O2 O2- 0.0011(1) 0.0047(4) 0.0037(2) 0.0002(2) 0.0004(1) 0.0012(3)
O3 O2- 0.0018(1) 0.0036(3) 0.0046(3) -.0003(2) 0.0018(1) -.0001(3)
O4 O2- 0.0015(2) 0.0040(5) 0.0025(3) 0 0.0004(2) 0
O5 O2- 0.0014(1) 0.0061(4) 0.0065(3) 0.0002(2) 0.0011(2) -.0033(3)
O6 O2- 0.0019(2) 0.0073(6) 0.0044(4) 0 0.0001(2) 0
O7 O2- 0.0015(1) 0.0042(4) 0.0045(3) -.0004(2) 0.0012(1) -.0001(3)
O8 O2- 0.0015(2) 0.0070(6) 0.0057(4) 0 0.0016(2) 0
Na1 Na1+ 0.0016(1) 0.0059(3) 0.0050(2) 0 0.0008(1) 0
Na2 Na1+ 0.0030(1) 0.0049(3) 0.0075(3) 0 0.0034(1) 0
Na3 Na1+ 0.0020(1) 0.0104(4) 0.0032(2) 0 0.0004(1) 0
#End of TTdata_4369-ICSD