
#(C) 2019 by FIZ Karlsruhe - Leibniz Institute for Information Infrastructure.  All rights reserved.
data_46004-ICSD
_database_code_ICSD 46004
_audit_creation_date 1984-09-03
_audit_update_record 2007-04-01
_chemical_name_systematic 'Sodium nickel arsenate(V)'
_chemical_formula_structural 'Na Ni (As O4)'
_chemical_formula_sum 'As1 Na1 Ni1 O4'
_exptl_crystal_density_diffrn 3.91
_publ_section_title
'The crystal structure of sodium nickel arsenate, Na Ni As O4'
loop_
_citation_id
_citation_journal_full
_citation_year
_citation_journal_volume
_citation_page_first
_citation_page_last
_citation_journal_id_ASTM
primary

;
Zeitschrift fuer Naturforschung, Teil B: Anorganische Chemie, Organische
Chemie
; 1984 39 118 120 ZNBAD2
loop_
_publ_author_name
'Range, K.G.'
'Meister, H.'
_cell_length_a 4.955(3)
_cell_length_b 4.955(3)
_cell_length_c 26.470(30)
_cell_angle_alpha 90.
_cell_angle_beta 90.
_cell_angle_gamma 120.
_cell_volume 562.82
_cell_formula_units_Z 6
_symmetry_space_group_name_H-M 'R 3 H'
_symmetry_Int_Tables_number 146
_refine_ls_R_factor_all 0.045
loop_
_symmetry_equiv_pos_site_id
_symmetry_equiv_pos_as_xyz
1 '-x+y, -x, z'
2 '-y, x-y, z'
3 'x, y, z'
4 '-x+y+2/3, -x+1/3, z+1/3'
5 '-y+2/3, x-y+1/3, z+1/3'
6 'x+2/3, y+1/3, z+1/3'
7 '-x+y+1/3, -x+2/3, z+2/3'
8 '-y+1/3, x-y+2/3, z+2/3'
9 'x+1/3, y+2/3, z+2/3'
loop_
_atom_type_symbol
_atom_type_oxidation_number
Ni2+ 2
As5+ 5
O2- -2
Na1+ 1
loop_
_atom_site_label
_atom_site_type_symbol
_atom_site_symmetry_multiplicity
_atom_site_Wyckoff_symbol
_atom_site_fract_x
_atom_site_fract_y
_atom_site_fract_z
_atom_site_B_iso_or_equiv
_atom_site_occupancy
_atom_site_attached_hydrogens
Ni1 Ni2+ 3 a 0 0 0.1240(3) 0.67(9) 1. 0
Ni2 Ni2+ 3 a 0 0 0.4528(3) 0.41(7) 1. 0
As1 As5+ 3 a 0 0 0.7214(3) 0.69(7) 1. 0
As2 As5+ 3 a 0 0 0.8534(4) 0.35(6) 1. 0
O1 O2- 9 b 0.0015(12) 0.3506(12) 0.4083(3) 0.58(6) 1. 0
O2 O2- 9 b 0.6625(13) 0.9956(12) 0.4994(3) 0.66(6) 1. 0
O3 O2- 3 a 0 0 0.6597(4) 2.7(4) 1. 0
O4 O2- 3 a 0 0 0.9163(4) 1.0(3) 1. 0
Na1 Na1+ 3 a 0 0 0 2.0(3) 1. 0
Na2 Na1+ 3 a 0 0 0.5774(4) 2.5(2) 1. 0
#End of TTdata_46004-ICSD