
#(C) 2019 by FIZ Karlsruhe - Leibniz Institute for Information Infrastructure.  All rights reserved.
data_47105-ICSD
_database_code_ICSD 47105
_audit_creation_date 1985-02-12
_chemical_name_systematic 'Potassium disodium dioxocuprate(I)'
_chemical_formula_structural 'K Na2 (Cu O2)'
_chemical_formula_sum 'Cu1 K1 Na2 O2'
_exptl_crystal_density_diffrn 2.94
_publ_section_title
'Das erste Oxocuprat(I) mit hantelfoermigem Anion: K Na2 (Cu O2)'
loop_
_citation_id
_citation_journal_full
_citation_year
_citation_journal_volume
_citation_page_first
_citation_page_last
_citation_journal_id_ASTM
primary 'Zeitschrift fuer Anorganische und Allgemeine Chemie (1950) (DE)' 1984
515 87 94 ZAACAB
loop_
_publ_author_name
'Losert, W.'
'Hoppe, R.'
_cell_length_a 4.327(3)
_cell_length_b 4.327(3)
_cell_length_c 10.891(5)
_cell_angle_alpha 90.
_cell_angle_beta 90.
_cell_angle_gamma 90.
_cell_volume 203.91
_cell_formula_units_Z 2
_symmetry_space_group_name_H-M 'I 4 m m'
_symmetry_Int_Tables_number 107
_refine_ls_R_factor_all 0.0737
loop_
_symmetry_equiv_pos_site_id
_symmetry_equiv_pos_as_xyz
1 '-y, x, z'
2 'y, -x, z'
3 '-y, -x, z'
4 'y, x, z'
5 'x, -y, z'
6 '-x, y, z'
7 '-x, -y, z'
8 'x, y, z'
9 '-y+1/2, x+1/2, z+1/2'
10 'y+1/2, -x+1/2, z+1/2'
11 '-y+1/2, -x+1/2, z+1/2'
12 'y+1/2, x+1/2, z+1/2'
13 'x+1/2, -y+1/2, z+1/2'
14 '-x+1/2, y+1/2, z+1/2'
15 '-x+1/2, -y+1/2, z+1/2'
16 'x+1/2, y+1/2, z+1/2'
loop_
_atom_type_symbol
_atom_type_oxidation_number
Cu1+ 1
K1+ 1
Na1+ 1
O2- -2
loop_
_atom_site_label
_atom_site_type_symbol
_atom_site_symmetry_multiplicity
_atom_site_Wyckoff_symbol
_atom_site_fract_x
_atom_site_fract_y
_atom_site_fract_z
_atom_site_B_iso_or_equiv
_atom_site_occupancy
_atom_site_attached_hydrogens
Cu1 Cu1+ 2 a 0 0 0 . 1. 0
K1 K1+ 2 a 0 0 0.5810(11) . 1. 0
Na1 Na1+ 4 b 0.5 0 0.26622(21) . 1. 0
O1 O2- 2 a 0 0 0.8327(28) . 1. 0
O2 O2- 2 a 0 0 0.1588(31) . 1. 0
loop_
_atom_site_aniso_label
_atom_site_aniso_type_symbol
_atom_site_aniso_U_11
_atom_site_aniso_U_22
_atom_site_aniso_U_33
_atom_site_aniso_U_12
_atom_site_aniso_U_13
_atom_site_aniso_U_23
Cu1 Cu1+ 0.0164(13) 0.0164(13) 0.0184(20) 0 0 0
K1 K1+ 0.0251(27) 0.0251(27) 0.0227(48) 0 0 0
Na1 Na1+ 0.0258(72) 0.0152(64) 0.0491(98) 0 0 0
O1 O2- 0.0088(66) 0.0088(66) 0.005(12) 0 0 0
O2 O2- 0.0140(81) 0.0140(81) 0.019(16) 0 0 0
#End of TTdata_47105-ICSD