
#(C) 2019 by FIZ Karlsruhe - Leibniz Institute for Information Infrastructure.  All rights reserved.
data_48117-ICSD
_database_code_ICSD 48117
_audit_creation_date 1984-12-31
_audit_update_record 2003-04-01
_chemical_name_systematic 'Sodium dodecatungstatotetraphosphate(V) (1.7/1)'
_chemical_formula_structural 'Na1.7 (P4 W12 O44)'
_chemical_formula_sum 'Na1.7 O44 P4 W12'
_exptl_crystal_density_diffrn 6.17
_publ_section_title

;
Two new members of a series of monoclinic sodium phosphate tungsten bronzes
Nax P4 O8 (W O3)2m: Nax P4 W8 O32 (m= 4) and Nax P4 W12 O44 (m=6)
;
loop_
_citation_id
_citation_journal_full
_citation_year
_citation_journal_volume
_citation_page_first
_citation_page_last
_citation_journal_id_ASTM
primary 'Acta Crystallographica, Section C: Crystal Structure Communications'
1984 40 573 576 ACSCEE
loop_
_publ_author_name
'Benmoussa, A.'
'Groult, D.'
'Labbe, P.'
'Raveau, B.'
_cell_length_a 23.775(17)
_cell_length_b 5.291(1)
_cell_length_c 6.588(2)
_cell_angle_alpha 90.
_cell_angle_beta 93.47(4)
_cell_angle_gamma 90.
_cell_volume 827.21
_cell_formula_units_Z 1
_symmetry_space_group_name_H-M 'P 1 21/a 1'
_symmetry_Int_Tables_number 14
_refine_ls_R_factor_all 0.043
loop_
_symmetry_equiv_pos_site_id
_symmetry_equiv_pos_as_xyz
1 'x+1/2, -y+1/2, z'
2 '-x, -y, -z'
3 '-x+1/2, y+1/2, -z'
4 'x, y, z'
loop_
_atom_type_symbol
_atom_type_oxidation_number
W5+ 5.525
P5+ 5
O2- -2
Na1+ 1
loop_
_atom_site_label
_atom_site_type_symbol
_atom_site_symmetry_multiplicity
_atom_site_Wyckoff_symbol
_atom_site_fract_x
_atom_site_fract_y
_atom_site_fract_z
_atom_site_B_iso_or_equiv
_atom_site_occupancy
_atom_site_attached_hydrogens
W1 W5+ 4 e 0.27960(1) 0.24069(13) 0.67190(13) . 1. 0
W2 W5+ 4 e 0.40705(1) 0.24121(11) 0.35909(10) . 1. 0
W3 W5+ 4 e 0.15480(1) 0.23644(11) 0.99311(12) . 1. 0
P1 P5+ 4 e 0.04687(8) 0.2256(4) 0.3261(8) 0.21(2) 1. 0
O1 O2- 4 e 0.2541(3) 0.5255(15) 0.530(3) 0.66(9) 1. 0
O2 O2- 4 e 0.3468(3) 0.2308(19) 0.510(3) 0.75(10) 1. 0
O3 O2- 4 e 0.3221(3) 0.4535(15) 0.866(3) 0.57(8) 1. 0
O4 O2- 4 e 0.3116(4) 0.9548(17) 0.823(3) 0.69(9) 1. 0
O5 O2- 4 e 0.0819(4) 0.259(3) 0.140(3) 1.01(10) 1. 0
O6 O2- 4 e 0.4464(3) 0.4588(15) 0.589(3) 0.63(9) 1. 0
O7 O2- 4 e 0.4393(4) -.0667(19) 0.514(3) 0.95(11) 1. 0
O8 O2- 4 e 0.2151(3) 0.2395(18) 0.828(2) 0.67(8) 1. 0
O9 O2- 4 e 0.1103(4) 0.0219(16) 0.789(3) 0.67(9) 1. 0
O10 O2- 4 e 0.1190(3) 0.5226(15) 0.836(3) 0.61(9) 1. 0
O11 O2- 4 e 0.4852(2) 0.2318(14) 0.248(2) 0.42(7) 1. 0
Na1 Na1+ 4 e 0.5086(12) 0.215(6) 0.862(7) 2.3(6) 0.425 0
loop_
_atom_site_aniso_label
_atom_site_aniso_type_symbol
_atom_site_aniso_U_11
_atom_site_aniso_U_22
_atom_site_aniso_U_33
_atom_site_aniso_U_12
_atom_site_aniso_U_13
_atom_site_aniso_U_23
W1 W5+ 0.00403(6) 0.00356(8) 0.00407(39) 0.00015(12) 0.00013(10) -0.00040(25)
W2 W5+ 0.00349(9) 0.00354(10) 0.00300(41) -0.00005(8) -0.00007(10) -0.00007(15)
W3 W5+ 0.00360(9) 0.00334(11) 0.00335(42) -0.00008(10) 0.00042(10) -0.00012(19)
#End of TTdata_48117-ICSD