
#(C) 2019 by FIZ Karlsruhe - Leibniz Institute for Information Infrastructure.  All rights reserved.
data_48139-ICSD
_database_code_ICSD 48139
_audit_creation_date 1984-11-30
_audit_update_record 2007-08-01
_chemical_name_systematic 'Disodium tecto-dialumotrisilicate dihydrate'
_chemical_formula_structural 'Na2 (Al2 Si3 O10) (H2 O)2'
_chemical_formula_sum 'H4 Al2 Na2 O12 Si3'
_chemical_name_structure_type Natrolite-frame
_chemical_name_mineral Natrolite
_exptl_crystal_density_diffrn 2.25
_publ_section_title
'Neutron diffraction study of natrolite, Na2 Al2 Si3 O10 (H2 O)2, at 20 K'
loop_
_citation_id
_citation_journal_full
_citation_year
_citation_journal_volume
_citation_page_first
_citation_page_last
_citation_journal_id_ASTM
primary 'Acta Crystallographica, Section C: Crystal Structure Communications'
1984 40 1658 1662 ACSCEE
loop_
_publ_author_name
'Artioli, G.'
'Smith, J.V.'
'Kvick, A.'
_cell_length_a 18.2720(60)
_cell_length_b 18.6130(60)
_cell_length_c 6.593(2)
_cell_angle_alpha 90.
_cell_angle_beta 90.
_cell_angle_gamma 90.
_cell_volume 2242.26
_cell_formula_units_Z 8
_symmetry_space_group_name_H-M 'F d d 2'
_symmetry_Int_Tables_number 43
_refine_ls_R_factor_all 0.044
loop_
_symmetry_equiv_pos_site_id
_symmetry_equiv_pos_as_xyz
1 'x+1/4, -y+1/4, z+1/4'
2 '-x+1/4, y+1/4, z+1/4'
3 '-x, -y, z'
4 'x, y, z'
5 'x+1/4, -y+3/4, z+3/4'
6 '-x+1/4, y+3/4, z+3/4'
7 '-x, -y+1/2, z+1/2'
8 'x, y+1/2, z+1/2'
9 'x+3/4, -y+1/4, z+3/4'
10 '-x+3/4, y+1/4, z+3/4'
11 '-x+1/2, -y, z+1/2'
12 'x+1/2, y, z+1/2'
13 'x+3/4, -y+3/4, z+1/4'
14 '-x+3/4, y+3/4, z+1/4'
15 '-x+1/2, -y+1/2, z'
16 'x+1/2, y+1/2, z'
loop_
_atom_type_symbol
_atom_type_oxidation_number
Si4+ 4
Al3+ 3
O2- -2
Na1+ 1
O2- -2
H1+ 1
loop_
_atom_site_label
_atom_site_type_symbol
_atom_site_symmetry_multiplicity
_atom_site_Wyckoff_symbol
_atom_site_fract_x
_atom_site_fract_y
_atom_site_fract_z
_atom_site_B_iso_or_equiv
_atom_site_occupancy
_atom_site_attached_hydrogens
Si1 Si4+ 8 a 0 0 0 . 1. 0
Si2 Si4+ 16 b 0.15274(4) 0.21171(4) 0.62264(19) . 1. 0
Al1 Al3+ 16 b 0.03683(4) 0.09422(4) 0.61509(21) . 1. 0
O1 O2- 16 b 0.02206(3) 0.06903(3) 0.86671(19) . 1. 0
O2 O2- 16 b 0.06922(3) 0.18280(3) 0.60942(19) . 1. 0
O3 O2- 16 b 0.09839(3) 0.03544(3) 0.50079(19) . 1. 0
O4 O2- 16 b 0.20566(3) 0.15246(3) 0.72465(18) . 1. 0
O5 O2- 16 b 0.17986(3) 0.22790(3) 0.38987(18) . 1. 0
Na1 Na1+ 16 b 0.22072(5) 0.03063(5) 0.61735(22) . 1. 0
O6 O2- 16 b 0.05631(3) 0.18948(3) 0.11087(19) . 1. 0
H1 H1+ 16 b 0.05139(9) 0.14423(8) 0.03797(31) . 1. 0
H2 H1+ 16 b 0.10291(8) 0.18912(10) 0.17941(34) . 1. 0
loop_
_atom_site_aniso_label
_atom_site_aniso_type_symbol
_atom_site_aniso_beta_11
_atom_site_aniso_beta_22
_atom_site_aniso_beta_33
_atom_site_aniso_beta_12
_atom_site_aniso_beta_13
_atom_site_aniso_beta_23
Si1 Si4+ 0.00025(2) 0.00016(2) 0.00139(15) 0.00001(1) 0 0
Si2 Si4+ 0.00025(1) 0.00014(1) 0.00150(11) -.00001(1) -.00001(3) 0.00004(3)
Al1 Al3+ 0.00024(1) 0.00014(1) 0.00179(13) 0.00001(1) -.00001(4) 0.00002(4)
O1 O2- 0.00046(1) 0.00026(1) 0.00198(8) -.00003(1) 0.00006(3) 0.00016(2)
O2 O2- 0.00027(1) 0.00020(1) 0.00267(8) -.00004(1) -.00003(3) 0.00002(2)
O3 O2- 0.00037(1) 0.00022(1) 0.00287(9) 0.00004(1) 0.00000(3) -.00023(2)
O4 O2- 0.00034(1) 0.00025(1) 0.00278(8) -.00002(1) -.00022(2) 0.00002(2)
O5 O2- 0.00035(1) 0.00035(1) 0.00196(9) -.00005(1) 0.00021(2) 0.00009(2)
Na1 Na1+ 0.00044(2) 0.00032(1) 0.00301(14) -.00004(1) -.00008(4) -.00005(4)
O6 O2- 0.00052(1) 0.00041(1) 0.00349(9) 0.00003(1) 0.00001(3) -.00001(3)
H1 H1+ 0.00188(4) 0.00086(3) 0.01099(29) 0.00001(3) -.00005(9) -.00077(7)
H2 H1+ 0.00100(3) 0.00180(4) 0.01428(36) 0.00008(1) -.00131(8) -.00009(9)
#End of TTdata_48139-ICSD