
#(C) 2019 by FIZ Karlsruhe - Leibniz Institute for Information Infrastructure.  All rights reserved.
data_5-ICSD
_database_code_ICSD 5
_audit_creation_date 1980-01-01
_audit_update_record 2011-08-01
_chemical_name_systematic 'Sodium dihydrogenphosphate(V) hydrate'
_chemical_formula_structural 'Na (H2 P O4) (H2 O)'
_chemical_formula_sum 'H4 Na1 O5 P1'
_exptl_crystal_density_diffrn 2.06
_publ_section_title

;
Hydrogen bonding in the cristalline state. Structure of Na H2 P O4 * (H2 O)
(orthorhombic phase), and crystal chemistry of the Na H2 P O4 * n(H2 O) series
;
loop_
_citation_id
_citation_journal_full
_citation_year
_citation_journal_volume
_citation_page_first
_citation_page_last
_citation_journal_id_ASTM
primary

;
Acta Crystallographica, Section B: Structural Crystallography and Crystal
Chemistry
; 1976 32 359 363 ACBCAR
loop_
_publ_author_name
'Catti, M.'
'Ferraris, G.'
_cell_length_a 7.616(5)
_cell_length_b 7.899(3)
_cell_length_c 7.382(2)
_cell_angle_alpha 90.
_cell_angle_beta 90.
_cell_angle_gamma 90.
_cell_volume 444.09
_cell_formula_units_Z 4
_symmetry_space_group_name_H-M 'P n a 21'
_symmetry_Int_Tables_number 33
_refine_ls_R_factor_all 0.034
loop_
_symmetry_equiv_pos_site_id
_symmetry_equiv_pos_as_xyz
1 'x+1/2, -y+1/2, z'
2 '-x+1/2, y+1/2, z+1/2'
3 '-x, -y, z+1/2'
4 'x, y, z'
loop_
_atom_type_symbol
_atom_type_oxidation_number
P5+ 5
Na1+ 1
O2- -2
H1+ 1
loop_
_atom_site_label
_atom_site_type_symbol
_atom_site_symmetry_multiplicity
_atom_site_Wyckoff_symbol
_atom_site_fract_x
_atom_site_fract_y
_atom_site_fract_z
_atom_site_B_iso_or_equiv
_atom_site_occupancy
_atom_site_attached_hydrogens
P1 P5+ 4 a 0.1262(1) 0.3732(1) 0.25 . 1. 0
Na1 Na1+ 4 a -.0007(3) -.0179(2) 0.4857(3) . 1. 0
O1 O2- 4 a 0.2817(3) 0.4887(3) 0.2389(5) . 1. 0
O2 O2- 4 a -.0373(3) 0.4497(3) 0.3346(5) . 1. 0
O3 O2- 4 a 0.1662(3) 0.2070(3) 0.3602(4) . 1. 0
O4 O2- 4 a 0.0744(4) 0.3009(3) 0.0580(4) . 1. 0
O5 O2- 4 a 0.1630(4) 0.8492(4) 0.2129(5) . 1. 0
H1 H1+ 4 a 0.255 0.17 0.32 4. 1. 0
H2 H1+ 4 a 0.05 0.365 -.04 4. 1. 0
H3 H1+ 4 a 0.185 0.75 0.21 4. 1. 0
H4 H1+ 4 a 0.27 0.88 0.23 4. 1. 0
loop_
_atom_site_aniso_label
_atom_site_aniso_type_symbol
_atom_site_aniso_B_11
_atom_site_aniso_B_22
_atom_site_aniso_B_33
_atom_site_aniso_B_12
_atom_site_aniso_B_13
_atom_site_aniso_B_23
P1 P5+ 0.78(2) 0.80(2) 1.10(3) -.04(2) 0.06(3) -.01(3)
Na1 Na1+ 1.69(5) 1.48(5) 1.76(6) -.15(5) 0.05(5) 0.23(5)
O1 O2- 1.20(8) 1.40(8) 2.12(10) -.53(7) -.06(11) 0.02(10)
O2 O2- 1.14(9) 1.57(9) 2.44(12) 0.15(7) 0.17(9) -.64(10)
O3 O2- 1.31(8) 1.49(10) 2.06(11) 0.07(7) 0.08(9) 0.60(9)
O4 O2- 2.48(11) 1.35(9) 1.30(9) -.33(9) -.24(9) -.13(8)
O5 O2- 2.04(11) 1.86(10) 2.58(15) 0.14(8) -.16(10) -.26(10)
#End of TTdata_5-ICSD