
#(C) 2019 by FIZ Karlsruhe - Leibniz Institute for Information Infrastructure.  All rights reserved.
data_50168-ICSD
_database_code_ICSD 50168
_audit_creation_date 1999-01-19
_chemical_name_systematic 'Disodium tetraamidomanganate(II)'
_chemical_formula_structural 'Na2 (Mn (N H2)4)'
_chemical_formula_sum 'H8 Mn1 N4 Na2'
_exptl_crystal_density_diffrn 1.84
_publ_section_title 'Na2 Mn (N H2)4: Ein neuer Schichtenstrukturtyp'
loop_
_citation_id
_citation_journal_full
_citation_year
_citation_journal_volume
_citation_page_first
_citation_page_last
_citation_journal_id_ASTM
primary 'Zeitschrift fuer Anorganische und Allgemeine Chemie (1950) (DE)' 1997
623 1108 1112 ZAACAB
loop_
_publ_author_name
'Froehling, B.'
'Jacobs, H.'
_cell_length_a 6.331(1)
_cell_length_b 14.542(3)
_cell_length_c 7.212(1)
_cell_angle_alpha 90.
_cell_angle_beta 116.29(1)
_cell_angle_gamma 90.
_cell_volume 595.3
_cell_formula_units_Z 4
_symmetry_space_group_name_H-M 'P 1 21/c 1'
_symmetry_Int_Tables_number 14
_refine_ls_R_factor_all 0.023
loop_
_symmetry_equiv_pos_site_id
_symmetry_equiv_pos_as_xyz
1 'x, -y+1/2, z+1/2'
2 '-x, -y, -z'
3 '-x, y+1/2, -z+1/2'
4 'x, y, z'
loop_
_atom_type_symbol
_atom_type_oxidation_number
Mn2+ 2
Na1+ 1
N3- -3
H1+ 1
loop_
_atom_site_label
_atom_site_type_symbol
_atom_site_symmetry_multiplicity
_atom_site_Wyckoff_symbol
_atom_site_fract_x
_atom_site_fract_y
_atom_site_fract_z
_atom_site_B_iso_or_equiv
_atom_site_occupancy
_atom_site_attached_hydrogens
Mn1 Mn2+ 4 e 0.26210(6) 0.11440(3) 0.33642(6) . 1. 0
Na1 Na1+ 4 e 0.7477(2) 0.060(1) 0.9625(2) . 1. 0
Na2 Na1+ 4 e 0.2195(2) 0.1478(1) 0.8569(2) . 1. 0
N1 N3- 4 e 0.4571(4) 0.1574(2) 0.6483(3) . 1. 0
N2 N3- 4 e 0.4949(4) 0.0880(2) 0.1950(3) . 1. 0
N3 N3- 4 e 0.0092(4) 0.2117(2) 0.1529(4) . 1. 0
N4 N3- 4 e 0.9322(4) 0.0110(1) 0.7167(3) . 1. 0
H1 H1+ 4 e 0.590(8) 0.166(3) 0.655(7) 6.(1) 1. 0
H2 H1+ 4 e 0.410(7) 0.213(3) 0.679(6) 4.(1) 1. 0
H3 H1+ 4 e 0.602(7) 0.133(3) 0.256(6) 4.(1) 1. 0
H4 H1+ 4 e 0.574(7) 0.036(3) 0.268(6) 4.(1) 1. 0
H5 H1+ 4 e 0.865(7) 0.279(3) 0.645(6) 4.(1) 1. 0
H6 H1+ 4 e 0.984(7) 0.260(3) 0.518(6) 5.(1) 1. 0
H7 H1+ 4 e 0.036(6) 0.000(2) 0.659(5) 3.(1) 1. 0
H8 H1+ 4 e 0.842(6) 0.045(3) 0.617(6) 3.(1) 1. 0
loop_
_atom_site_aniso_label
_atom_site_aniso_type_symbol
_atom_site_aniso_U_11
_atom_site_aniso_U_22
_atom_site_aniso_U_33
_atom_site_aniso_U_12
_atom_site_aniso_U_13
_atom_site_aniso_U_23
Mn1 Mn2+ 0.0207(2) 0.0184(2) 0.0177(2) 0.0000(1) 0.00078(1) 0.00015(1)
Na1 Na1+ 0.0279(5) 0.0256(5) 0.0263(5) -.00019(4) 0.00884(4) 0.00003(4)
Na2 Na1+ 0.0324(6) 0.0249(5) 0.0335(6) -.00019(4) 0.00095(5) -.00079(5)
N1 N3- 0.0024(1) 0.0025(1) 0.0021(1) 0.0000(1) 0.0009(1) 0.0002(1)
N2 N3- 0.0023(1) 0.0023(1) 0.0024(1) -.0001(1) 0.0011(1) 0.0000(1)
N3 N3- 0.0022(1) 0.0022(1) 0.0031(1) -.0003(1) 0.0008(1) -.0003(1)
N4 N3- 0.0022(1) 0.0020(1) 0.0019(1) 0.0000(1) 0.0009(1) -.0001(1)
#End of TTdata_50168-ICSD