
#(C) 2019 by FIZ Karlsruhe - Leibniz Institute for Information Infrastructure.  All rights reserved.
data_50407-ICSD
_database_code_ICSD 50407
_audit_creation_date 1999-11-30
_audit_update_record 2012-08-01
_chemical_name_systematic 'Sodium magnesium alumogallate *'
_chemical_formula_structural 'Na1.596 Mg0.666 ((Al0.695 Ga0.3054)10.33 O17)'
_chemical_formula_sum 'Al7.17935 Ga3.154782 Mg0.666 Na1.596 O17'
_chemical_name_structure_type KAl10.67O17
_exptl_crystal_density_diffrn 3.9
_publ_section_title

;
The structure of Na(+)beta''-aluminogallate, Na(1+x) Mg(x) (Al(1-y)
Ga(y))(11-x) O17, x= 0.67; y= 0.23, 0.30 and 0.41
;
loop_
_citation_id
_citation_journal_full
_citation_year
_citation_journal_volume
_citation_page_first
_citation_page_last
_citation_journal_id_ASTM
primary 'Solid State Ionics' 1998 110 137 144 SSIOD3
loop_
_publ_author_name
'Edstroem, K.'
'Faltens, T.A.'
'Dunn, B.'
_cell_length_a 5.6820(2)
_cell_length_b 5.6820(2)
_cell_length_c 33.724(3)
_cell_angle_alpha 90.
_cell_angle_beta 90.
_cell_angle_gamma 120.
_cell_volume 942.91
_cell_formula_units_Z 3
_symmetry_space_group_name_H-M 'R -3 m H'
_symmetry_Int_Tables_number 166
_refine_ls_R_factor_all 0.0189
loop_
_symmetry_equiv_pos_site_id
_symmetry_equiv_pos_as_xyz
1 'x-y, -y, -z'
2 '-x, -x+y, -z'
3 'y, x, -z'
4 'x-y, x, -z'
5 'y, -x+y, -z'
6 '-x, -y, -z'
7 '-x+y, y, z'
8 'x, x-y, z'
9 '-y, -x, z'
10 '-x+y, -x, z'
11 '-y, x-y, z'
12 'x, y, z'
13 'x-y+2/3, -y+1/3, -z+1/3'
14 '-x+2/3, -x+y+1/3, -z+1/3'
15 'y+2/3, x+1/3, -z+1/3'
16 'x-y+2/3, x+1/3, -z+1/3'
17 'y+2/3, -x+y+1/3, -z+1/3'
18 '-x+2/3, -y+1/3, -z+1/3'
19 '-x+y+2/3, y+1/3, z+1/3'
20 'x+2/3, x-y+1/3, z+1/3'
21 '-y+2/3, -x+1/3, z+1/3'
22 '-x+y+2/3, -x+1/3, z+1/3'
23 '-y+2/3, x-y+1/3, z+1/3'
24 'x+2/3, y+1/3, z+1/3'
25 'x-y+1/3, -y+2/3, -z+2/3'
26 '-x+1/3, -x+y+2/3, -z+2/3'
27 'y+1/3, x+2/3, -z+2/3'
28 'x-y+1/3, x+2/3, -z+2/3'
29 'y+1/3, -x+y+2/3, -z+2/3'
30 '-x+1/3, -y+2/3, -z+2/3'
31 '-x+y+1/3, y+2/3, z+2/3'
32 'x+1/3, x-y+2/3, z+2/3'
33 '-y+1/3, -x+2/3, z+2/3'
34 '-x+y+1/3, -x+2/3, z+2/3'
35 '-y+1/3, x-y+2/3, z+2/3'
36 'x+1/3, y+2/3, z+2/3'
loop_
_atom_type_symbol
_atom_type_oxidation_number
Na1+ 1
Al3+ 3
Ga3+ 3
Mg2+ 2
Ga3+ 3
Al3+ 3
Ga3+ 3
Al3+ 3
Ga3+ 3
O2- -2
loop_
_atom_site_label
_atom_site_type_symbol
_atom_site_symmetry_multiplicity
_atom_site_Wyckoff_symbol
_atom_site_fract_x
_atom_site_fract_y
_atom_site_fract_z
_atom_site_B_iso_or_equiv
_atom_site_occupancy
_atom_site_attached_hydrogens
Na1 Na1+ 6 c 0 0 0.17390(13) 0.084(3) 0.567(1) 0
Na2 Na1+ 18 h 0.2227(20) 0.1114(10) 0.16922(36) 0.038(4) 0.077(2) 0
Al1 Al3+ 3 a 0 0 0 0.0048(2) 0.909(2) 0
Ga1 Ga3+ 3 a 0 0 0 0.0048(2) 0.091(2) 0
Mg1 Mg2+ 6 c 0 0 0.35023(1) 0.00427(5) 0.333 0
Ga2 Ga3+ 6 c 0 0 0.35023(1) 0.00427(5) 0.667 0
Al2 Al3+ 18 h 0.33372(6) 0.16686(3) 0.07212(1) 0.00549(6) 0.8 0
Ga3 Ga3+ 18 h 0.33372(6) 0.16686(3) 0.07212(1) 0.00549(6) 0.2 0
Al3 Al3+ 6 c 0 0 0.44994(1) 0.00511(9) 0.735 0
Ga4 Ga3+ 6 c 0 0 0.44994(1) 0.00511(9) 0.265 0
O1 O2- 18 h 0.15154(5) 0.30308(9) 0.03493(2) 0.0059(1) 1. 0
O2 O2- 6 c 0 0 0.29416(3) 0.0058(2) 1. 0
O3 O2- 6 c 0 0 0.09834(3) 0.0062(2) 1. 0
O4 O2- 18 h 0.16269(5) 0.32538(9) 0.23444(2) 0.0073(2) 1. 0
O5 O2- 3 b 0.3333 0.6667 0.1667 0.055(2) 1. 0
#End of TTdata_50407-ICSD