
#(C) 2018 by FIZ Karlsruhe - Leibniz Institute for Information Infrastructure.  All rights reserved.
data_50421-ICSD
_database_code_ICSD 50421
_audit_creation_date 1999-11-30
_chemical_name_systematic 'Trilithium discandium tris(phosphate(V))'
_chemical_formula_structural 'Li3.2 Sc2 (P O4)3'
_chemical_formula_sum 'Li3.2 O12 P3 Sc2'
_exptl_crystal_density_diffrn 2.73
_cell_measurement_temperature 573.
_publ_section_title

;
Structure refinement of lithium ion conductors Li3 Sc2 (P O4)3 and Li(3-2x)
(Sc(1-x) M(x))2 (P O4)3 (M = Ti, Zr) with x = 0.10 by neutron diffraction
;
loop_
_citation_id
_citation_journal_full
_citation_year
_citation_journal_volume
_citation_page_first
_citation_page_last
_citation_journal_id_ASTM
primary 'Solid State Ionics' 1998 113 89 96 SSIOD3
loop_
_publ_author_name
'Suzuki, T.'
'Yoshida, K.'
'Uematsu, K.'
'Kodama, T.'
'Toda, K.'
'Ye, Z.-G.'
'Ohashi, M.'
'Sato, M.'
_cell_length_a 12.3998(6)
_cell_length_b 8.8352(4)
_cell_length_c 8.8270(4)
_cell_angle_alpha 90.
_cell_angle_beta 90.
_cell_angle_gamma 90.
_cell_volume 967.04
_cell_formula_units_Z 4
_symmetry_space_group_name_H-M 'P b c n'
_symmetry_Int_Tables_number 60
_refine_ls_R_factor_all 0.0164
loop_
_symmetry_equiv_pos_site_id
_symmetry_equiv_pos_as_xyz
1 'x, -y, z+1/2'
2 '-x+1/2, y+1/2, z'
3 'x+1/2, y+1/2, -z+1/2'
4 '-x, -y, -z'
5 '-x, y, -z+1/2'
6 'x+1/2, -y+1/2, -z'
7 '-x+1/2, -y+1/2, z+1/2'
8 'x, y, z'
loop_
_atom_type_symbol
_atom_type_oxidation_number
Li1+ 1
Sc2+ 2.9
P5+ 5
O2- -2
loop_
_atom_site_label
_atom_site_type_symbol
_atom_site_symmetry_multiplicity
_atom_site_Wyckoff_symbol
_atom_site_fract_x
_atom_site_fract_y
_atom_site_fract_z
_atom_site_B_iso_or_equiv
_atom_site_occupancy
_atom_site_attached_hydrogens
Li1 Li1+ 8 d 0.341(3) 0.290(4) 0.281(5) 0.85(68) 0.65(6) 0
Li2 Li1+ 8 d 0.291(3) 0.068(5) 0.430(4) 0.85(68) 0.57(6) 0
Li3 Li1+ 8 d 0.278(6) 0.433(8) 0.317(7) 0.85(68) 0.38(6) 0
Sc1 Sc2+ 8 d 0.1083(3) 0.2470(8) 0.4594(5) 2.7(1) 1. 0
P1 P5+ 8 d 0.147(1) 0.108(1) 0.102(2) 2.8(3) 1. 0
P2 P5+ 4 c 0.5 0.044(2) 0.25 2.3(3) 1. 0
O1 O2- 8 d 0.3387(9) 0.435(1) 0.096(1) 2.4(2) 1. 0
O2 O2- 8 d 0.2731(9) 0.324(1) 0.481(1) 2.9(2) 1. 0
O3 O2- 8 d 0.0363(9) 0.154(1) 0.074(1) 3.1(3) 1. 0
O4 O2- 8 d 0.0721(8) 0.455(1) 0.356(1) 2.9(2) 1. 0
O5 O2- 8 d 0.423(1) 0.145(1) 0.160(1) 3.5(3) 1. 0
O6 O2- 8 d 0.1867(8) 0.164(1) 0.259(1) 2.5(2) 1. 0
#End of TTdata_50421-ICSD