
#(C) 2019 by FIZ Karlsruhe - Leibniz Institute for Information Infrastructure.  All rights reserved.
data_50490-ICSD
_database_code_ICSD 50490
_audit_creation_date 1999-11-30
_chemical_name_systematic 'Sodium indium oxide (21.5/5/15)'
_chemical_formula_structural 'Na21.49 In4.99 O15'
_chemical_formula_sum 'In4.99 Na21.49 O15'
_exptl_crystal_density_diffrn 3.2
_publ_section_title

;
Zur Existenz tetraedrischer Polykationen (In5)(7+) in der Verbindung "Na23 In5
O15" (=Na24 In5 O15?) einem ungewoehnlichen Oxidationsprodukt der
intermetallischen Phase Na In
;
loop_
_citation_id
_citation_journal_full
_citation_year
_citation_journal_volume
_citation_page_first
_citation_page_last
_citation_journal_id_ASTM
primary 'Zeitschrift fuer Anorganische und Allgemeine Chemie (1950) (DE)' 1998
624 541 549 ZAACAB
loop_
_publ_author_name
'Deiseroth, H.J.'
'Kerber, H.'
'Hoppe, R.'
_cell_length_a 11.075(2)
_cell_length_b 11.075(2)
_cell_length_c 11.075(2)
_cell_angle_alpha 90.
_cell_angle_beta 90.
_cell_angle_gamma 90.
_cell_volume 1358.41
_cell_formula_units_Z 2
_symmetry_space_group_name_H-M 'I -4 3 m'
_symmetry_Int_Tables_number 217
_refine_ls_R_factor_all 0.024
loop_
_symmetry_equiv_pos_site_id
_symmetry_equiv_pos_as_xyz
1 '-z, -y, x'
2 '-y, -x, z'
3 '-x, -z, y'
4 '-z, -x, y'
5 '-y, -z, x'
6 '-x, -y, z'
7 '-z, y, -x'
8 '-y, x, -z'
9 '-x, z, -y'
10 '-z, x, -y'
11 '-y, z, -x'
12 '-x, y, -z'
13 'z, -y, -x'
14 'y, -x, -z'
15 'x, -z, -y'
16 'z, -x, -y'
17 'y, -z, -x'
18 'x, -y, -z'
19 'z, y, x'
20 'y, x, z'
21 'x, z, y'
22 'z, x, y'
23 'y, z, x'
24 'x, y, z'
25 '-z+1/2, -y+1/2, x+1/2'
26 '-y+1/2, -x+1/2, z+1/2'
27 '-x+1/2, -z+1/2, y+1/2'
28 '-z+1/2, -x+1/2, y+1/2'
29 '-y+1/2, -z+1/2, x+1/2'
30 '-x+1/2, -y+1/2, z+1/2'
31 '-z+1/2, y+1/2, -x+1/2'
32 '-y+1/2, x+1/2, -z+1/2'
33 '-x+1/2, z+1/2, -y+1/2'
34 '-z+1/2, x+1/2, -y+1/2'
35 '-y+1/2, z+1/2, -x+1/2'
36 '-x+1/2, y+1/2, -z+1/2'
37 'z+1/2, -y+1/2, -x+1/2'
38 'y+1/2, -x+1/2, -z+1/2'
39 'x+1/2, -z+1/2, -y+1/2'
40 'z+1/2, -x+1/2, -y+1/2'
41 'y+1/2, -z+1/2, -x+1/2'
42 'x+1/2, -y+1/2, -z+1/2'
43 'z+1/2, y+1/2, x+1/2'
44 'y+1/2, x+1/2, z+1/2'
45 'x+1/2, z+1/2, y+1/2'
46 'z+1/2, x+1/2, y+1/2'
47 'y+1/2, z+1/2, x+1/2'
48 'x+1/2, y+1/2, z+1/2'
loop_
_atom_type_symbol
_atom_type_oxidation_number
Na1+ 1
In1+ 1.702
O2- -2
loop_
_atom_site_label
_atom_site_type_symbol
_atom_site_symmetry_multiplicity
_atom_site_Wyckoff_symbol
_atom_site_fract_x
_atom_site_fract_y
_atom_site_fract_z
_atom_site_B_iso_or_equiv
_atom_site_occupancy
_atom_site_attached_hydrogens
Na1 Na1+ 24 g 0.1328(3) 0.1328(3) 0.4170(3) . 0.925(18) 0
Na2 Na1+ 24 g 0.3921(3) 0.3921(3) 0.1768(4) . 0.866(18) 0
In1 In1+ 8 c 0.14351(6) 0.14351(6) 0.14351(6) . 1. 0
In2 In1+ 2 a 0 0 0 . 0.990(15) 0
O1 O2- 6 b 0.5 0.5 0 . 1. 0
O2 O2- 24 g 0.2601(5) 0.2601(5) 0.0510(6) . 1. 0
loop_
_atom_site_aniso_label
_atom_site_aniso_type_symbol
_atom_site_aniso_U_11
_atom_site_aniso_U_22
_atom_site_aniso_U_33
_atom_site_aniso_U_12
_atom_site_aniso_U_13
_atom_site_aniso_U_23
Na1 Na1+ 0.0193(14) 0.0193(14) 0.0136(17) -.0010(16) -.0021(10) -.0021(10)
Na2 Na1+ 0.0174(17) 0.0174(17) 0.0229(24) 0.002(16) 0.0011(11) -.0011(11)
In1 In1+ 0.0111(3) 0.0111(3) 0.0111(3) 0.00310(24) 0.00310(24) 0.00310(24)
In2 In1+ 0.0158(5) 0.0158(5) 0.0158(5) 0 0 0
O1 O2- 0.013(4) 0.013(4) 0.051(10) 0 0 0
O2 O2- 0.0182(19) 0.0182(19) 0.023(3) 0.002(3) 0.0106(20) 0.0106(20)
#End of TTdata_50490-ICSD