
#(C) 2018 by FIZ Karlsruhe - Leibniz Institute for Information Infrastructure.  All rights reserved.
data_50536-ICSD
_database_code_ICSD 50536
_audit_creation_date 1999-11-30
_audit_update_record 2003-04-01
_chemical_name_systematic 'Lithium iron catena-disilicate - LT'
_chemical_formula_structural 'Li Fe (Si2 O6)'
_chemical_formula_sum 'Fe1 Li1 O6 Si2'
_chemical_name_structure_type Pyroxene-MgSiO3-LT
_chemical_name_mineral 'Acmite (Li-exchanged)'
_exptl_crystal_density_diffrn 3.46
_cell_measurement_temperature 35.
_publ_section_title

;
Single crystal Moessbauer and neutron powder diffraction measurements on the
synthetic clinopyroxene Li-acmite Li Fe Si2 O6
;
loop_
_citation_id
_citation_journal_full
_citation_year
_citation_journal_volume
_citation_page_first
_citation_page_last
_citation_journal_id_ASTM
primary 'Zeitschrift fuer Kristallographie (1979-2010)' 1998 213 101 107 ZEKRDZ
loop_
_publ_author_name
'Lottermoser, W.'
'Redhammer, G.J.'
'Forcher, K.'
'Amthauer, G.'
'Paulus, W.'
'Andre, G.'
'Treutmann, W.'
_cell_length_a 9.6221(2)
_cell_length_b 8.6730(1)
_cell_length_c 5.2663(1)
_cell_angle_alpha 90.
_cell_angle_beta 109.98(1)
_cell_angle_gamma 90.
_cell_volume 413.03
_cell_formula_units_Z 4
_symmetry_space_group_name_H-M 'P 1 21/c 1'
_symmetry_Int_Tables_number 14
_refine_ls_R_factor_all 0.026
loop_
_symmetry_equiv_pos_site_id
_symmetry_equiv_pos_as_xyz
1 'x, -y+1/2, z+1/2'
2 '-x, -y, -z'
3 '-x, y+1/2, -z+1/2'
4 'x, y, z'
loop_
_atom_type_symbol
_atom_type_oxidation_number
Fe3+ 3
Li1+ 1
Si4+ 4
O2- -2
loop_
_atom_site_label
_atom_site_type_symbol
_atom_site_symmetry_multiplicity
_atom_site_Wyckoff_symbol
_atom_site_fract_x
_atom_site_fract_y
_atom_site_fract_z
_atom_site_B_iso_or_equiv
_atom_site_occupancy
_atom_site_attached_hydrogens
Fe1 Fe3+ 4 e 0.2499(3) 0.6475(2) 0.2380(5) 0.37(3) 1. 0
Li1 Li1+ 4 e 0.2574(20) 0.0078(10) 0.2399(31) 1.2(1) 1. 0
Si1 Si4+ 4 e 0.0480(6) 0.3402(6) 0.2762(9) 0.40(7) 1. 0
Si2 Si4+ 4 e 0.5482(6) 0.8393(6) 0.2549(8) 0.33(7) 1. 0
O1 O2- 4 e 0.8665(4) 0.3324(5) 0.1640(7) 0.52(5) 1. 0
O2 O2- 4 e 0.3674(4) 0.8355(4) 0.1363(6) 0.26(5) 1. 0
O3 O2- 4 e 0.1159(4) 0.5084(4) 0.3130(6) 0.56(6) 1. 0
O4 O2- 4 e 0.6212(4) 0.0048(5) 0.3508(6) 0.44(6) 1. 0
O5 O2- 4 e 0.1081(4) 0.2666(3) 0.5803(7) 0.41(5) 1. 0
O6 O2- 4 e 0.6053(3) 0.7253(3) 0.5146(6) 0.39(4) 1. 0
#End of TTdata_50536-ICSD