
#(C) 2019 by FIZ Karlsruhe - Leibniz Institute for Information Infrastructure.  All rights reserved.
data_50665-ICSD
_database_code_ICSD 50665
_audit_creation_date 2000-07-15
_audit_update_record 2012-08-01
_chemical_name_systematic 'Trisodium niobium oxide bis(arsenate(V))'
_chemical_formula_structural 'Na3 Nb O (As O4)2'
_chemical_formula_sum 'As2 Na3 Nb1 O9'
_exptl_crystal_density_diffrn 3.68
_publ_section_title 'Synthese et structure cristalline de Na3 Nb O (As O4)2'
loop_
_citation_id
_citation_journal_full
_citation_year
_citation_journal_volume
_citation_page_first
_citation_page_last
_citation_journal_id_ASTM
primary 'Journal of Solid State Chemistry' 1999 144 53 61 JSSCBI
loop_
_publ_author_name
'Hizaoui, K.'
'Jouini, N.'
'Jouini, T.'
_cell_length_a 9.637(3)
_cell_length_b 8.509(2)
_cell_length_c 10.593(2)
_cell_angle_alpha 90.
_cell_angle_beta 108.67
_cell_angle_gamma 90.
_cell_volume 822.93
_cell_formula_units_Z 4
_symmetry_space_group_name_H-M 'P 1 21/c 1'
_symmetry_Int_Tables_number 14
_refine_ls_R_factor_all 0.022
loop_
_symmetry_equiv_pos_site_id
_symmetry_equiv_pos_as_xyz
1 'x, -y+1/2, z+1/2'
2 '-x, -y, -z'
3 '-x, y+1/2, -z+1/2'
4 'x, y, z'
loop_
_atom_type_symbol
_atom_type_oxidation_number
Nb5+ 5
As5+ 5
Na1+ 1
O2- -2
loop_
_atom_site_label
_atom_site_type_symbol
_atom_site_symmetry_multiplicity
_atom_site_Wyckoff_symbol
_atom_site_fract_x
_atom_site_fract_y
_atom_site_fract_z
_atom_site_B_iso_or_equiv
_atom_site_occupancy
_atom_site_attached_hydrogens
Nb1 Nb5+ 4 e 0.22170(4) 0.07772(5) 0.38680(4) . 1. 0
As1 As5+ 4 e 0.57281(5) 0.23694(5) 0.02486(4) . 1. 0
As2 As5+ 4 e 0.06814(4) 0.17444(5) 0.64034(4) . 1. 0
Na1 Na1+ 4 e 0.16576(2) 0.45195(2) 0.49191(2) . 1. 0
Na2 Na1+ 4 e 0.19767(2) -.23327(2) 0.64728(2) . 1. 0
Na3 Na1+ 4 e 0.53393(2) -.45600(3) 0.75918(2) . 1. 0
O1 O2- 4 e 0.01710(3) 0.00150(4) 0.37140(3) . 1. 0
O2 O2- 4 e 0.22440(3) 0.00012(4) 0.23666(3) . 1. 0
O3 O2- 4 e 0.41426(3) -.28385(4) 0.31707(3) . 1. 0
O4 O2- 4 e 0.21778(3) 0.14993(4) 0.59409(3) . 1. 0
O5 O2- 4 e 0.11692(3) 0.28265(3) 0.30693(3) . 1. 0
O6 O2- 4 e 0.03627(3) -.31320(4) 0.45089(3) . 1. 0
O7 O2- 4 e 0.37613(3) -.41051(4) 0.54945(3) . 1. 0
O8 O2- 4 e 0.32804(3) -.10105(4) 0.49880(3) . 1. 0
O9 O2- 4 e 0.40016(3) 0.20789(4) 0.43370(3) . 1. 0
loop_
_atom_site_aniso_label
_atom_site_aniso_type_symbol
_atom_site_aniso_U_11
_atom_site_aniso_U_22
_atom_site_aniso_U_33
_atom_site_aniso_U_12
_atom_site_aniso_U_13
_atom_site_aniso_U_23
Nb1 Nb5+ 0.00645(19) 0.00720(21) 0.00701(20) 0.00032(15) 0.00199(15) 0.00021(15)
As1 As5+ 0.00762(22) 0.00844(24) 0.00887(23) 0.00055(18) 0.00176(17) -.00129(18)
As2 As5+ 0.00691(22) 0.00817(23) 0.00689(23) -.00116(17) 0.00199(17) -.00058(17)
Na1 Na1+ 0.02021(96) 0.01566(99) 0.022(10) 0.00489(78) 0.01054(81) 0.00390(79)
Na2 Na1+ 0.0247(11) 0.0268(11) 0.0157(10) -.00560(91) -.00553(84) 0.00096(85)
Na3 Na1+ 0.0330(12) 0.0334(13) 0.0182(11) -.0158(10) -.0002(9) 0.0049(9)
O1 O2- 0.0113(15) 0.0117(20) 0.0146(16) -.0030(14) 0.0049(12) -.0006(13)
O2 O2- 0.0196(16) 0.0162(17) 0.0128(16) 0.0056(15) 0.0054(13) -.0020(14)
O3 O2- 0.0201(17) 0.0210(18) 0.0083(16) -.0063(15) 0.0022(13) 0.0021(14)
O4 O2- 0.0071(14) 0.0225(2) 0.013(16) -.0053(14) 0.0048(12) -.0062(14)
O5 O2- 0.0152(15) 0.0094(15) 0.0064(15) 0.0026(13) 0.0030(12) 0.0018(12)
O6 O2- 0.0159(16) 0.0116(16) 0.0116(16) 0.0018(13) -.0026(13) 0.006(13)
O7 O2- 0.0161(16) 0.0123(16) 0.0203(18) -.0038(14) 0.0078(14) 0.0033(14)
O8 O2- 0.0199(16) 0.0121(16) 0.0150(17) 0.0092(14) 0.0078(13) 0.0048(13)
O9 O2- 0.009(15) 0.0264(20) 0.0209(18) -.0081(14) 0.0002(14) -.0018(15)
#End of TTdata_50665-ICSD