
#(C) 2019 by FIZ Karlsruhe - Leibniz Institute for Information Infrastructure.  All rights reserved.
data_50764-ICSD
_database_code_ICSD 50764
_audit_creation_date 2000-07-15
_chemical_name_systematic 'Sodium chromium titanium oxide (1.7/1.7/6.3/16)'
_chemical_formula_structural 'Na1.712 Cr1.712 Ti6.288 O16'
_chemical_formula_sum 'Cr1.712 Na1.712 O16 Ti6.288'
_chemical_name_mineral 'Priderite (Na-exchanged)'
_exptl_crystal_density_diffrn 3.82
_cell_measurement_temperature 223.
_publ_section_title

;
Low-temperature phase of dosium prodeite, Na(x) Cr(x) Ti(8-x) O16, with a
monoclinic hollandite structure
;
loop_
_citation_id
_citation_journal_full
_citation_year
_citation_journal_volume
_citation_page_first
_citation_page_last
_citation_journal_id_ASTM
primary 'Journal of Solid State Chemistry' 1999 145 182 185 JSSCBI
loop_
_publ_author_name
'Michiue, Y.'
'Sato, A.'
'Watanabe, M.'
_cell_length_a 10.108(7)
_cell_length_b 2.9530(4)
_cell_length_c 9.975(7)
_cell_angle_alpha 90.
_cell_angle_beta 90.06(4)
_cell_angle_gamma 90.
_cell_volume 297.74
_cell_formula_units_Z 1
_symmetry_space_group_name_H-M 'I 1 2/m 1'
_symmetry_Int_Tables_number 12
_refine_ls_R_factor_all 0.0509
loop_
_symmetry_equiv_pos_site_id
_symmetry_equiv_pos_as_xyz
1 'x, -y, z'
2 '-x, -y, -z'
3 '-x, y, -z'
4 'x, y, z'
5 'x+1/2, -y+1/2, z+1/2'
6 '-x+1/2, -y+1/2, -z+1/2'
7 '-x+1/2, y+1/2, -z+1/2'
8 'x+1/2, y+1/2, z+1/2'
loop_
_atom_type_symbol
_atom_type_oxidation_number
Na1+ 1
Ti4+ 4
Cr3+ 3
Ti4+ 4
Cr3+ 3
O2- -2
loop_
_atom_site_label
_atom_site_type_symbol
_atom_site_symmetry_multiplicity
_atom_site_Wyckoff_symbol
_atom_site_fract_x
_atom_site_fract_y
_atom_site_fract_z
_atom_site_B_iso_or_equiv
_atom_site_occupancy
_atom_site_attached_hydrogens
Na1 Na1+ 4 i 0.079(2) 0.5 0.012(2) . 0.136(5) 0
Na2 Na1+ 4 i 0.987(3) 0.5 0.070(4) . 0.078(7) 0
Na3 Na1+ 8 j 0.020(2) 0.20(1) 0.000(4) . 0.076(6) 0
Na4 Na1+ 2 a 0 0 0 . 0.12(3) 0
Ti1 Ti4+ 4 i 0.35255(5) 0 0.16978(5) . 0.786 0
Cr1 Cr3+ 4 i 0.35255(5) 0 0.16978(5) . 0.214 0
Ti2 Ti4+ 4 i 0.83172(5) 0 0.35105(5) . 0.786 0
Cr2 Cr3+ 4 i 0.83172(5) 0 0.35105(5) . 0.214 0
O1 O2- 4 i 0.1549(2) 0 0.2005(2) . 1. 0
O2 O2- 4 i 0.7968(2) 0 0.1531(2) . 1. 0
O3 O2- 4 i 0.5421(2) 0 0.1672(2) . 1. 0
O4 O2- 4 i 0.8379(2) 0 0.5420(2) . 1. 0
loop_
_atom_site_aniso_label
_atom_site_aniso_type_symbol
_atom_site_aniso_beta_11
_atom_site_aniso_beta_22
_atom_site_aniso_beta_33
_atom_site_aniso_beta_12
_atom_site_aniso_beta_13
_atom_site_aniso_beta_23
Na1 Na1+ 0.057(15) 0.129(32) 0.047(14) 0 0.016(4) 0
Na2 Na1+ 0.055(33) 0.30(14) 0.089(48) 0 -.002(32) 0
Na3 Na1+ 0.025(28) 0.232(88) 0.135(40) 0 0.035(33) 0
Na4 Na1+ 0.01(3) 0.32(27) 0.034(25) 0 0.002(19) 0
Ti1 Ti4+ 0.140(3) 0.044(3) 0.197(4) 0 0.054(3) 0
Cr1 Cr3+ 0.140(3) 0.044(3) 0.197(4) 0 0.054(3) 0
Ti2 Ti4+ 0.165(3) 0.040(3) 0.182(4) 0 -.016(3) 0
Cr2 Cr3+ 0.165(3) 0.040(3) 0.182(4) 0 -.016(3) 0
O1 O2- 0.120(12) 0.013(12) 0.155(14) 0 0.031(10) 0
O2 O2- 0.107(11) 0.016(12) 0.163(13) 0 0.025(10) 0
O3 O2- 0.092(12) 0.050(13) 0.226(15) 0 0.029(11) 0
O4 O2- 0.182(13) 0.040(13) 0.125(13) 0 -.009(10) 0
#End of TTdata_50764-ICSD