
#(C) 2019 by FIZ Karlsruhe - Leibniz Institute for Information Infrastructure.  All rights reserved.
data_50768-ICSD
_database_code_ICSD 50768
_audit_creation_date 2000-12-16
_audit_update_record 2003-04-01
_chemical_name_systematic 'Trisodium oxide nitrate(III) - LT'
_chemical_formula_structural 'Na3 O (N O2)'
_chemical_formula_sum 'N1 Na3 O3'
_exptl_crystal_density_diffrn 2.25
_cell_measurement_temperature 125.
_publ_section_title

;
Neutron diffraction study of the low-temperature phases of sodium oxide
nitrite, Na3 O N O2
;
loop_
_citation_id
_citation_journal_full
_citation_year
_citation_journal_volume
_citation_page_first
_citation_page_last
_citation_journal_id_ASTM
primary 'Journal of Solid State Chemistry' 1999 145 267 275 JSSCBI
loop_
_publ_author_name
'Kloesters, G.'
'Jansen, M.'
_cell_length_a 6.46513(7)
_cell_length_b 6.46513(7)
_cell_length_c 4.6282(6)
_cell_angle_alpha 90.
_cell_angle_beta 90.
_cell_angle_gamma 90.
_cell_volume 193.45
_cell_formula_units_Z 2
_symmetry_space_group_name_H-M 'P 4/m b m'
_symmetry_Int_Tables_number 127
_refine_ls_R_factor_all 0.095
loop_
_symmetry_equiv_pos_site_id
_symmetry_equiv_pos_as_xyz
1 'y+1/2, x+1/2, -z'
2 '-y+1/2, -x+1/2, -z'
3 '-y, x, -z'
4 'y, -x, -z'
5 'x+1/2, -y+1/2, -z'
6 '-x+1/2, y+1/2, -z'
7 'x, y, -z'
8 '-x, -y, -z'
9 '-y+1/2, -x+1/2, z'
10 'y+1/2, x+1/2, z'
11 'y, -x, z'
12 '-y, x, z'
13 '-x+1/2, y+1/2, z'
14 'x+1/2, -y+1/2, z'
15 '-x, -y, z'
16 'x, y, z'
loop_
_atom_type_symbol
_atom_type_oxidation_number
O2- -2
Na1+ 1
N3+ 3
O2- -2
loop_
_atom_site_label
_atom_site_type_symbol
_atom_site_symmetry_multiplicity
_atom_site_Wyckoff_symbol
_atom_site_fract_x
_atom_site_fract_y
_atom_site_fract_z
_atom_site_B_iso_or_equiv
_atom_site_occupancy
_atom_site_attached_hydrogens
O1 O2- 2 b 0 0 0.5 0.230(42) 1. 0
Na1 Na1+ 2 a 0 0 0 0.473(66) 1. 0
Na2 Na1+ 4 h 0.2320(3) 0.2680(3) 0.5 1.097(56) 1. 0
N1 N3+ 4 f 0 0.5 0.8823(4) 1.183(43) 0.5 0
O2 O2- 8 k 0.6168(2) 0.1168(2) 0.9775(13) 1.471(55) 0.5 0
#End of TTdata_50768-ICSD