
#(C) 2019 by FIZ Karlsruhe - Leibniz Institute for Information Infrastructure.  All rights reserved.
data_50785-ICSD
_database_code_ICSD 50785
_audit_creation_date 2000-12-16
_audit_update_record 2012-02-01
_chemical_name_systematic 'Disodium cobalt diphosphate(V)'
_chemical_formula_structural 'Na2 Co (P2 O7)'
_chemical_formula_sum 'Co1 Na2 O7 P2'
_chemical_name_structure_type Na2CoP2O7
_exptl_crystal_density_diffrn 3.03
_cell_measurement_temperature 295.
_publ_section_title
'Studies on tetragonal Na2 Co P2 O7, a novel ionic conductor'
loop_
_citation_id
_citation_journal_full
_citation_year
_citation_journal_volume
_citation_page_first
_citation_page_last
_citation_journal_id_ASTM
primary 'Journal of Solid State Chemistry' 1999 145 604 611 JSSCBI
loop_
_publ_author_name
'Sanz, F.'
'Parada, C.'
'Rojo, J.M.'
'Ruiz Valero, C.'
'Saez-Puche, R.'
_cell_length_a 7.7058(12)
_cell_length_b 7.7058(12)
_cell_length_c 10.301(2)
_cell_angle_alpha 90.
_cell_angle_beta 90.
_cell_angle_gamma 90.
_cell_volume 611.67
_cell_formula_units_Z 4
_symmetry_space_group_name_H-M 'P 42/m n m'
_symmetry_Int_Tables_number 136
_refine_ls_R_factor_all 0.0581
loop_
_symmetry_equiv_pos_site_id
_symmetry_equiv_pos_as_xyz
1 '-y+1/2, x+1/2, -z+1/2'
2 'y+1/2, -x+1/2, -z+1/2'
3 'y, x, -z'
4 '-y, -x, -z'
5 'y+1/2, -x+1/2, z+1/2'
6 '-y+1/2, x+1/2, z+1/2'
7 '-y, -x, z'
8 'y, x, z'
9 'x+1/2, -y+1/2, -z+1/2'
10 '-x+1/2, y+1/2, -z+1/2'
11 'x, y, -z'
12 '-x, -y, -z'
13 '-x+1/2, y+1/2, z+1/2'
14 'x+1/2, -y+1/2, z+1/2'
15 '-x, -y, z'
16 'x, y, z'
loop_
_atom_type_symbol
_atom_type_oxidation_number
Co2+ 2
P5+ 5
Na1+ 1
O2- -2
loop_
_atom_site_label
_atom_site_type_symbol
_atom_site_symmetry_multiplicity
_atom_site_Wyckoff_symbol
_atom_site_fract_x
_atom_site_fract_y
_atom_site_fract_z
_atom_site_B_iso_or_equiv
_atom_site_occupancy
_atom_site_attached_hydrogens
Co1 Co2+ 4 d 0.5 0 0.25 . 1. 0
P1 P5+ 8 j 0.6359(3) 0.3641(2) 0.2113(3) . 1. 0
Na1 Na1+ 4 g 0.8574(7) 0.1426(7) 0 . 1. 0
Na2 Na1+ 4 f 0.8026(7) 0.1974(7) 0.5 . 1. 0
O1 O2- 8 j 0.6362(7) 0.3638(7) 0.3554(8) . 1. 0
O2 O2- 16 k 0.5786(10) 0.1990(8) 0.1478(6) . 1. 0
O3 O2- 4 e 0.5 0.5 0.1575(14) . 1. 0
loop_
_atom_site_aniso_label
_atom_site_aniso_type_symbol
_atom_site_aniso_beta_11
_atom_site_aniso_beta_22
_atom_site_aniso_beta_33
_atom_site_aniso_beta_12
_atom_site_aniso_beta_13
_atom_site_aniso_beta_23
Co1 Co2+ 0.00030(1) 0.00030(1) 0.00027(1) 0 0 0
P1 P5+ 0.00022(2) 0.00022(2) 0.00042(2) 0.00010(2) 0.00001(1) -.00001(1)
Na1 Na1+ 0.00033(3) 0.00033(3) 0.00048(4) 0.00005(4) 0 0
Na2 Na1+ 0.00040(4) 0.00040(4) 0.00038(4) 0.00016(4) 0 0
O1 O2- 0.00032(4) 0.00032(4) 0.00048(5) 0.00019(5) 0.00000(3) 0.00000(3)
O2 O2- 0.00014(8) 0.00033(5) 0.00048(4) -.00013(5) 0.00008(4) -.00003(3)
O3 O2- 0.00144(13) 0.00144(13) 0.00043(9) 0.00134(16) 0 0
#End of TTdata_50785-ICSD