
#(C) 2019 by FIZ Karlsruhe - Leibniz Institute for Information Infrastructure.  All rights reserved.
data_50803-ICSD
_database_code_ICSD 50803
_audit_creation_date 2000-12-16
_chemical_name_systematic 'Sodium lanthanum sulfate(VI) (1.79/0.06/1)'
_chemical_formula_structural '(Na1.788 La0.062) (S O4)'
_chemical_formula_sum 'La0.062 Na1.788 O4 S1'
_chemical_name_structure_type Ca2SiO4(hP14)
_exptl_crystal_density_diffrn 2.74
_publ_section_title 'Defect-structure of ytterbium(III) doped Na2 S O4 phase I'
loop_
_citation_id
_citation_journal_full
_citation_year
_citation_journal_volume
_citation_page_first
_citation_page_last
_citation_journal_id_ASTM
primary 'Journal of Solid State Chemistry' 1999 145 309 316 JSSCBI
loop_
_publ_author_name
'Armbruster, T.'
'Basler, R.'
'Mikhail, P.'
'Hulliger, J.'
_cell_length_a 5.331(1)
_cell_length_b 5.331(1)
_cell_length_c 7.188(1)
_cell_angle_alpha 90.
_cell_angle_beta 90.
_cell_angle_gamma 120.
_cell_volume 176.91
_cell_formula_units_Z 2
_symmetry_space_group_name_H-M 'P 63/m m c'
_symmetry_Int_Tables_number 194
_refine_ls_R_factor_all 0.05
loop_
_symmetry_equiv_pos_site_id
_symmetry_equiv_pos_as_xyz
1 'x, x-y, -z+1/2'
2 '-x+y, y, -z+1/2'
3 '-y, -x, -z+1/2'
4 '-x+y, -x, -z+1/2'
5 '-y, x-y, -z+1/2'
6 'x, y, -z+1/2'
7 '-x, -x+y, z+1/2'
8 'x-y, -y, z+1/2'
9 'y, x, z+1/2'
10 'x-y, x, z+1/2'
11 'y, -x+y, z+1/2'
12 '-x, -y, z+1/2'
13 '-x, -x+y, -z'
14 'x-y, -y, -z'
15 'y, x, -z'
16 'x-y, x, -z'
17 'y, -x+y, -z'
18 '-x, -y, -z'
19 'x, x-y, z'
20 '-x+y, y, z'
21 '-y, -x, z'
22 '-x+y, -x, z'
23 '-y, x-y, z'
24 'x, y, z'
loop_
_atom_type_symbol
_atom_type_oxidation_number
S6+ 6
Na1+ 1
La3+ 3
Na1+ 1
O2- -2
loop_
_atom_site_label
_atom_site_type_symbol
_atom_site_symmetry_multiplicity
_atom_site_Wyckoff_symbol
_atom_site_fract_x
_atom_site_fract_y
_atom_site_fract_z
_atom_site_B_iso_or_equiv
_atom_site_occupancy
_atom_site_attached_hydrogens
S1 S6+ 2 c 0.3333 0.6667 0.25 0.0258(8) 0.62(1) 0
S2 S6+ 4 f 0.3333 0.6667 0.192(1) 0.018(1) 0.19(1) 0
Na1 Na1+ 2 a 0 0 0 . 0.938(2) 0
La1 La3+ 2 a 0 0 0 . 0.062(2) 0
Na2 Na1+ 4 f 0.3333 0.6667 0.69 0.042(4) 0.29(3) 0
Na3 Na1+ 2 d 0.3333 0.6667 0.75 0.042(5) 0.27(6) 0
O1 O2- 6 h 0.1820(3) 0.364 0.25 . 0.785 0
O2 O2- 12 k 0.239(1) 0.478 0.090(2) . 0.212 0
O3 O2- 4 f 0.3333 0.6667 -.001(4) 0.065(5) 0.186 0
loop_
_atom_site_aniso_label
_atom_site_aniso_type_symbol
_atom_site_aniso_U_11
_atom_site_aniso_U_22
_atom_site_aniso_U_33
_atom_site_aniso_U_12
_atom_site_aniso_U_13
_atom_site_aniso_U_23
Na1 Na1+ 0.0369(7) 0.0369(7) 0.0297(8) 0.0185(7) 0 0
La1 La3+ 0.0369(7) 0.0369(7) 0.0297(8) 0.0185(7) 0 0
O1 O2- 0.060(2) 0.020(1) 0.073(3) 0.010(1) 0 0
O2 O2- 0.124(8) 0.074(8) 0.10(1) 0.037(8) -.033(8) -.066(8)
#End of TTdata_50803-ICSD