
#(C) 2019 by FIZ Karlsruhe - Leibniz Institute for Information Infrastructure.  All rights reserved.
data_50838-ICSD
_database_code_ICSD 50838
_audit_creation_date 2000-12-16
_audit_update_record 2006-04-01
_chemical_name_systematic 'Trisodium hexafluoroscandate'
_chemical_formula_structural 'Na3 (Sc F6)'
_chemical_formula_sum 'F6 Na3 Sc1'
_chemical_name_structure_type Perovskite-Na3AlF6
_exptl_crystal_density_diffrn 3.03
_cell_measurement_pressure 2790000.
_publ_section_title 'Single-crystal high-pressure studies of Na3 Sc F6'
loop_
_citation_id
_citation_journal_full
_citation_year
_citation_journal_volume
_citation_page_first
_citation_page_last
_citation_journal_id_ASTM
primary 'Journal of Solid State Chemistry' 1998 135 116 120 JSSCBI
loop_
_publ_author_name
'Carlson, S.'
'Yiqiu, Xu.'
'Norrestam, R.'
_cell_length_a 5.484(1)
_cell_length_b 5.732(1)
_cell_length_c 7.948(2)
_cell_angle_alpha 90.
_cell_angle_beta 90.96(3)
_cell_angle_gamma 90.
_cell_volume 249.8
_cell_formula_units_Z 2
_symmetry_space_group_name_H-M 'P 1 21/n 1'
_symmetry_Int_Tables_number 14
_refine_ls_R_factor_all 0.047
loop_
_symmetry_equiv_pos_site_id
_symmetry_equiv_pos_as_xyz
1 '-x+1/2, y+1/2, -z+1/2'
2 '-x, -y, -z'
3 'x+1/2, -y+1/2, z+1/2'
4 'x, y, z'
loop_
_atom_type_symbol
_atom_type_oxidation_number
Sc3+ 3
Na1+ 1
F1- -1
loop_
_atom_site_label
_atom_site_type_symbol
_atom_site_symmetry_multiplicity
_atom_site_Wyckoff_symbol
_atom_site_fract_x
_atom_site_fract_y
_atom_site_fract_z
_atom_site_B_iso_or_equiv
_atom_site_occupancy
_atom_site_attached_hydrogens
Sc1 Sc3+ 2 a 0 0 0 0.0114(5) 1. 0
Na1 Na1+ 2 b 0 0 0.5 0.0172(11) 1. 0
Na2 Na1+ 4 e 0.5158(18) -.0595(6) 0.2443(6) 0.0237(9) 1. 0
F1 F1- 4 e 0.126(3) 0.0627(8) 0.2349(7) 0.0182(12) 1. 0
F2 F1- 4 e -.300(3) 0.1788(9) 0.0575(8) 0.0233(15) 1. 0
F3 F1- 4 e 0.168(3) 0.2915(9) -.0753(9) 0.0245(13) 1. 0
#End of TTdata_50838-ICSD