
#(C) 2017 by FIZ Karlsruhe - Leibniz Institute for Information Infrastructure.  All rights reserved.
data_50996-ICSD
_database_code_ICSD 50996
_audit_creation_date 2001-07-16
_chemical_name_systematic
'Potassium lithium trifluoromanganate(II) (0.96/0.04/1)'
_chemical_formula_structural '(K0.96 Li0.04) (Mn F3)'
_chemical_formula_sum 'F3 K0.96 Li0.04 Mn1'
_chemical_name_structure_type Perovskite-SrTiO3
_exptl_crystal_density_diffrn 3.4
_cell_measurement_temperature 145.
_publ_section_title

;
Phase transition and structure of a K(1-x) Li(x) Mn F3 single crystal in the
range of 100-298 K
;
loop_
_citation_id
_citation_journal_full
_citation_year
_citation_journal_volume
_citation_page_first
_citation_page_last
_citation_journal_id_ASTM
primary 'Journal of Solid State Chemistry' 1998 137 71 76 JSSCBI
loop_
_publ_author_name
'Waskowska, A.'
'Ratuszna, A.'
_cell_length_a 5.903(1)
_cell_length_b 5.903(1)
_cell_length_c 8.384(1)
_cell_angle_alpha 90.
_cell_angle_beta 90.
_cell_angle_gamma 90.
_cell_volume 292.14
_cell_formula_units_Z 4
_symmetry_space_group_name_H-M 'I 4/m c m'
_symmetry_Int_Tables_number 140
_refine_ls_R_factor_all 0.045
loop_
_symmetry_equiv_pos_site_id
_symmetry_equiv_pos_as_xyz
1 'y, x, -z+1/2'
2 '-y, -x, -z+1/2'
3 '-y, x, -z'
4 'y, -x, -z'
5 'x, -y, -z+1/2'
6 '-x, y, -z+1/2'
7 'x, y, -z'
8 '-x, -y, -z'
9 '-y, -x, z+1/2'
10 'y, x, z+1/2'
11 'y, -x, z'
12 '-y, x, z'
13 '-x, y, z+1/2'
14 'x, -y, z+1/2'
15 '-x, -y, z'
16 'x, y, z'
17 'y+1/2, x+1/2, -z'
18 '-y+1/2, -x+1/2, -z'
19 '-y+1/2, x+1/2, -z+1/2'
20 'y+1/2, -x+1/2, -z+1/2'
21 'x+1/2, -y+1/2, -z'
22 '-x+1/2, y+1/2, -z'
23 'x+1/2, y+1/2, -z+1/2'
24 '-x+1/2, -y+1/2, -z+1/2'
25 '-y+1/2, -x+1/2, z'
26 'y+1/2, x+1/2, z'
27 'y+1/2, -x+1/2, z+1/2'
28 '-y+1/2, x+1/2, z+1/2'
29 '-x+1/2, y+1/2, z'
30 'x+1/2, -y+1/2, z'
31 '-x+1/2, -y+1/2, z+1/2'
32 'x+1/2, y+1/2, z+1/2'
loop_
_atom_type_symbol
_atom_type_oxidation_number
Mn2+ 2
K1+ 1
Li1+ 1
F1- -1
loop_
_atom_site_label
_atom_site_type_symbol
_atom_site_symmetry_multiplicity
_atom_site_Wyckoff_symbol
_atom_site_fract_x
_atom_site_fract_y
_atom_site_fract_z
_atom_site_B_iso_or_equiv
_atom_site_occupancy
_atom_site_attached_hydrogens
Mn1 Mn2+ 4 c 0 0 0 . 1. 0
K1 K1+ 4 b 0.5 0 0.25 0.0115(1) 0.96 0
Li1 Li1+ 4 b 0.5 0 0.25 0.0115(1) 0.04 0
F1 F1- 4 a 0 0 0.25 . 1. 0
F2 F1- 8 h 0.2675(3) 0.7675(3) 0 . 1. 0
loop_
_atom_site_aniso_label
_atom_site_aniso_type_symbol
_atom_site_aniso_U_11
_atom_site_aniso_U_22
_atom_site_aniso_U_33
_atom_site_aniso_U_12
_atom_site_aniso_U_13
_atom_site_aniso_U_23
Mn1 Mn2+ 0.00544(8) 0.00544(8) 0.0057(10) 0 0 0
F1 F1- 0.035(1) 0.035(1) 0.0067(6) 0 0 0
F2 F1- 0.0125(4) 0.0125(4) 0.0317(10) 0 0 0
#End of TTdata_50996-ICSD