
#(C) 2019 by FIZ Karlsruhe - Leibniz Institute for Information Infrastructure.  All rights reserved.
data_51030-ICSD
_database_code_ICSD 51030
_audit_creation_date 2001-07-16
_chemical_name_systematic 'Sodium lanthanum thorium titanate (0.55/0.35/0.1/1)'
_chemical_formula_structural '(Na0.55 La0.35 Th0.1) (Ti O3)'
_chemical_formula_sum 'La0.35 Na0.55 O3 Th0.1 Ti1'
_chemical_name_structure_type Perovskite-GdFeO3
_exptl_crystal_density_diffrn 5.18
_publ_section_title
'A structural study of the perovskite series Na(1/2+x) La(1/2-3x) Th(2x) Ti O3'
loop_
_citation_id
_citation_journal_full
_citation_year
_citation_journal_volume
_citation_page_first
_citation_page_last
_citation_journal_id_ASTM
primary 'Journal of Solid State Chemistry' 1998 138 307 312 JSSCBI
loop_
_publ_author_name
'Mitchell, R.H.'
'Chakhmouradian, A.R.'
_cell_length_a 5.4542(5)
_cell_length_b 7.7478(5)
_cell_length_c 5.4704(4)
_cell_angle_alpha 90.
_cell_angle_beta 90.
_cell_angle_gamma 90.
_cell_volume 231.17
_cell_formula_units_Z 4
_symmetry_space_group_name_H-M 'P n m a'
_symmetry_Int_Tables_number 62
_refine_ls_R_factor_all 0.067
loop_
_symmetry_equiv_pos_site_id
_symmetry_equiv_pos_as_xyz
1 'x+1/2, y, -z+1/2'
2 'x, -y+1/2, z'
3 '-x+1/2, y+1/2, z+1/2'
4 '-x, -y, -z'
5 '-x+1/2, -y, z+1/2'
6 '-x, y+1/2, -z'
7 'x+1/2, -y+1/2, -z+1/2'
8 'x, y, z'
loop_
_atom_type_symbol
_atom_type_oxidation_number
Na1+ 1
La3+ 3
Th4+ 4
Ti4+ 4
O2- -2
loop_
_atom_site_label
_atom_site_type_symbol
_atom_site_symmetry_multiplicity
_atom_site_Wyckoff_symbol
_atom_site_fract_x
_atom_site_fract_y
_atom_site_fract_z
_atom_site_B_iso_or_equiv
_atom_site_occupancy
_atom_site_attached_hydrogens
Na1 Na1+ 4 c -.002(1) 0.25 -.001(1) 1.23(9) 0.55 0
La1 La3+ 4 c -.002(1) 0.25 -.001(1) 1.23(9) 0.35 0
Th1 Th4+ 4 c -.002(1) 0.25 -.001(1) 1.23(9) 0.1 0
Ti1 Ti4+ 4 b 0 0 0.5 1.04(7) 1. 0
O1 O2- 4 c 0.045(1) 0.25 0.463(1) 2.3(2) 1. 0
O2 O2- 8 d 0.234(1) -.022(2) 0.263(2) 2.3(2) 1. 0
#End of TTdata_51030-ICSD