
#(C) 2019 by FIZ Karlsruhe - Leibniz Institute for Information Infrastructure.  All rights reserved.
data_51113-ICSD
_database_code_ICSD 51113
_audit_creation_date 2001-07-16
_chemical_name_systematic 'Trisodium tetrathiotantalate'
_chemical_formula_structural 'Na3 (Ta S4)'
_chemical_formula_sum 'Na3 S4 Ta1'
_chemical_name_structure_type Na3NbS4
_exptl_crystal_density_diffrn 3.26
_publ_section_title

;
Synthesis and crystal structure of ternary sulfides A3 M S4 with A= Na, Rb and
M= Nb, Ta
;
loop_
_citation_id
_citation_journal_full
_citation_year
_citation_journal_volume
_citation_page_first
_citation_page_last
_citation_journal_id_ASTM
primary 'Journal of Solid State Chemistry' 1998 139 404 411 JSSCBI
loop_
_publ_author_name
'Niewa, R.'
'Vajenine, G.V.'
'DiSalvo, F.J.'
_cell_length_a 27.23219(20)
_cell_length_b 28.42639(20)
_cell_length_c 7.9634(6)
_cell_angle_alpha 90.
_cell_angle_beta 90.
_cell_angle_gamma 90.
_cell_volume 6164.57
_cell_formula_units_Z 32
_symmetry_space_group_name_H-M 'F d d 2'
_symmetry_Int_Tables_number 43
_refine_ls_R_factor_all 0.066
loop_
_symmetry_equiv_pos_site_id
_symmetry_equiv_pos_as_xyz
1 'x+1/4, -y+1/4, z+1/4'
2 '-x+1/4, y+1/4, z+1/4'
3 '-x, -y, z'
4 'x, y, z'
5 'x+1/4, -y+3/4, z+3/4'
6 '-x+1/4, y+3/4, z+3/4'
7 '-x, -y+1/2, z+1/2'
8 'x, y+1/2, z+1/2'
9 'x+3/4, -y+1/4, z+3/4'
10 '-x+3/4, y+1/4, z+3/4'
11 '-x+1/2, -y, z+1/2'
12 'x+1/2, y, z+1/2'
13 'x+3/4, -y+3/4, z+1/4'
14 '-x+3/4, y+3/4, z+1/4'
15 '-x+1/2, -y+1/2, z'
16 'x+1/2, y+1/2, z'
loop_
_atom_type_symbol
_atom_type_oxidation_number
Ta5+ 5
S2- -2
Na1+ 1
loop_
_atom_site_label
_atom_site_type_symbol
_atom_site_symmetry_multiplicity
_atom_site_Wyckoff_symbol
_atom_site_fract_x
_atom_site_fract_y
_atom_site_fract_z
_atom_site_B_iso_or_equiv
_atom_site_occupancy
_atom_site_attached_hydrogens
Ta1 Ta5+ 16 b 0.00973(3) 0.11555(3) 0.5528(1) . 1. 0
Ta2 Ta5+ 16 b 0.12245(4) 0.00614(3) 0.0484(1) . 1. 0
S1 S2- 16 b 0.2491(2) 0.0937(2) 0.562(1) . 1. 0
S2 S2- 16 b 0.1864(3) 0.1563(2) 0.9129(9) . 1. 0
S3 S2- 16 b 0.0840(3) 0.2477(2) 0.056(1) . 1. 0
S4 S2- 16 b 0.1556(3) 0.1859(2) 0.4000(9) . 1. 0
S5 S2- 16 b 0.0544(3) 0.0503(2) 0.4973(9) . 1. 0
S6 S2- 16 b 0.0500(3) 0.1594(2) 0.7483(9) . 1. 0
S7 S2- 16 b 0.1722(3) 0.0381(2) 0.2480(9) . 1. 0
S8 S2- 16 b 0.0566(3) 0.0531(2) 0.9997(9) . 1. 0
Na1 Na1+ 16 b 0.0953(6) 0.1375(6) 0.150(3) . 1. 0
Na2 Na1+ 16 b 0.1368(6) 0.0922(5) 0.676(3) . 1. 0
Na3 Na1+ 16 b 0.1297(4) 0.2219(4) 0.728(2) . 1. 0
Na4 Na1+ 16 b 0.0022(5) 0.2463(4) 0.766(2) . 1. 0
Na5 Na1+ 16 b 0.2261(5) 0.1264(4) 0.236(2) . 1. 0
Na6 Na1+ 8 a 0.25 0.25 0.000(2) . 1. 0
Na7 Na1+ 8 a 0.25 0.25 0.488(2) . 1. 0
loop_
_atom_site_aniso_label
_atom_site_aniso_type_symbol
_atom_site_aniso_U_11
_atom_site_aniso_U_22
_atom_site_aniso_U_33
_atom_site_aniso_U_12
_atom_site_aniso_U_13
_atom_site_aniso_U_23
Ta1 Ta5+ 0.0195(5) 0.0089(4) 0.0096(5) -.0006(3) -.0006(5) 0.0005(4)
Ta2 Ta5+ 0.0205(5) 0.0118(4) 0.0096(5) -.0022(3) -.0009(5) -.0003(4)
S1 S2- 0.031(3) 0.020(3) 0.009(3) 0.004(2) -.003(3) -.004(3)
S2 S2- 0.022(3) 0.022(3) 0.014(3) 0.007(3) 0.002(3) 0.000(2)
S3 S2- 0.030(3) 0.032(3) 0.015(4) -.005(3) -.007(3) -.001(3)
S4 S2- 0.036(4) 0.014(3) 0.019(4) 0.010(3) -.002(3) 0.003(2)
S5 S2- 0.028(4) 0.018(3) 0.017(4) 0.004(3) 0.000(3) -.002(2)
S6 S2- 0.027(3) 0.018(3) 0.019(4) -.006(3) 0.001(3) -.007(2)
S7 S2- 0.032(4) 0.028(3) 0.012(4) -.013(3) 0.001(3) -.005(3)
S8 S2- 0.035(4) 0.019(3) 0.011(4) 0.005(3) 0.002(3) 0.001(2)
Na1 Na1+ 0.041(9) 0.07(1) 0.104(17) -.015(8) -.001(9) -.05(1)
Na2 Na1+ 0.056(9) 0.033(7) 0.07(1) -.001(7) -.025(8) -.017(7)
Na3 Na1+ 0.024(6) 0.023(5) 0.020(6) -.002(4) -.003(4) -.002(4)
Na4 Na1+ 0.038(6) 0.025(5) 0.04(1) 0.002(5) -.003(6) 0.000(5)
Na5 Na1+ 0.030(6) 0.032(6) 0.017(6) 0.002(5) -.002(5) 0.002(5)
Na6 Na1+ 0.06(1) 0.033(9) 0.02(1) 0.014(9) 0 0
Na7 Na1+ 0.05(1) 0.05(1) 0.007(9) 0.015(9) 0 0
#End of TTdata_51113-ICSD