
#(C) 2019 by FIZ Karlsruhe - Leibniz Institute for Information Infrastructure.  All rights reserved.
data_51303-ICSD
_database_code_ICSD 51303
_audit_creation_date 2002-10-01
_audit_update_record 2012-08-01
_chemical_name_systematic
'Disodium dodecahydroxo-closo-dodecaborate tetrahydrate'
_chemical_formula_structural 'Na2 (B12 (O H)12) (H2 O)4'
_chemical_formula_sum 'H20 B12 Na2 O16'
_exptl_crystal_density_diffrn 1.84
_publ_section_title Dodecahydroxy-closo-dodecaborate(2-)
loop_
_citation_id
_citation_journal_full
_citation_year
_citation_journal_volume
_citation_page_first
_citation_page_last
_citation_journal_id_ASTM
primary 'Journal of the American Chemical Society' 2001 123 2182 2185 JACSAT
loop_
_publ_author_name
'Peymann, T.'
'Knobler, C.B.'
'Khan, S.I.'
'Hawthorne, M.F.'
_cell_length_a 8.555(11)
_cell_length_b 8.664(12)
_cell_length_c 12.163(16)
_cell_angle_alpha 69.55(2)
_cell_angle_beta 80.13(2)
_cell_angle_gamma 75.67(2)
_cell_volume 814.84
_cell_formula_units_Z 2
_symmetry_space_group_name_H-M 'P -1'
_symmetry_Int_Tables_number 2
_refine_ls_R_factor_all 0.071
loop_
_symmetry_equiv_pos_site_id
_symmetry_equiv_pos_as_xyz
1 '-x, -y, -z'
2 'x, y, z'
loop_
_atom_type_symbol
_atom_type_oxidation_number
Na1+ 1
O2- -2
B0+ 0.833
O2- -2
B0+ 0.833
O2- -2
B0+ 0.833
O2- -2
B0+ 0.833
O2- -2
H1+ 1
loop_
_atom_site_label
_atom_site_type_symbol
_atom_site_symmetry_multiplicity
_atom_site_Wyckoff_symbol
_atom_site_fract_x
_atom_site_fract_y
_atom_site_fract_z
_atom_site_B_iso_or_equiv
_atom_site_occupancy
_atom_site_attached_hydrogens
Na1 Na1+ 2 i 0.4980(2) 0.6312(3) 0.8675(2) . 1. 0
Na2 Na1+ 2 i 0.0024(2) 0.8662(3) 0.6333(2) . 1. 0
O1 O2- 2 i 0.5611(4) 0.8984(5) 0.7674(3) 0.012(1) 0.545 0
O2 O2- 2 i 0.1887(4) 0.0009(5) 0.6831(3) 0.012(1) 0.545 0
O3 O2- 2 i 0.1847(4) 0.2689(5) 0.4164(3) 0.011(1) 0.545 0
O4 O2- 2 i 0.5501(4) 0.3556(5) 0.3259(3) 0.012(1) 0.545 0
O5 O2- 2 i 0.8058(5) 0.1122(5) 0.5409(3) 0.012(1) 0.545 0
O6 O2- 2 i 0.4058(4) 0.3002(4) 0.6069(3) 0.016(1) 0.545 0
B1 B0+ 2 i 0.5359(8) 0.9499(8) 0.6437(6) 0.010(1) 0.545 0
B2 B0+ 2 i 0.3358(8) 0.9972(8) 0.6026(6) 0.010(1) 0.545 0
B3 B0+ 2 i 0.3319(8) 0.1485(8) 0.4546(6) 0.008(1) 0.545 0
B4 B0+ 2 i 0.5320(8) 0.1929(8) 0.4072(6) 0.009(1) 0.545 0
B5 B0+ 2 i 0.6580(8) 0.0690(8) 0.5242(6) 0.009(1) 0.545 0
B6 B0+ 2 i 0.4508(7) 0.1618(7) 0.5593(5) 0.014(1) 0.545 0
O7 O2- 2 i 0.350(3) 0.911(3) 0.768(2) 0.023(3) 0.545 0
O8 O2- 2 i 0.114(3) 0.118(3) 0.539(2) 0.023(3) 0.545 0
O9 O2- 2 i 0.358(3) 0.349(3) 0.312(2) 0.023(3) 0.545 0
O10 O2- 2 i 0.718(3) 0.276(3) 0.406(2) 0.023(3) 0.545 0
O11 O2- 2 i 0.722(3) 0.013(3) 0.675(2) 0.023(3) 0.545 0
B7 B0+ 2 i 0.424(5) 0.961(5) 0.638(3) 0.008(4) 0.545 0
B8 B0+ 2 i 0.300(4) 0.063(5) 0.535(3) 0.008(4) 0.545 0
B9 B0+ 2 i 0.416(5) 0.183(5) 0.409(3) 0.008(4) 0.545 0
B10 B0+ 2 i 0.615(4) 0.141(5) 0.452(3) 0.008(4) 0.545 0
B11 B0+ 2 i 0.617(4) 0.008(5) 0.597(3) 0.008(4) 0.545 0
O12 O2- 2 i 0.1410(4) 0.1498(5) 0.1795(3) 0.011(1) 0.545 0
O13 O2- 2 i 0.3812(5) 0.3835(5) 0.9606(3) 0.012(1) 0.545 0
O14 O2- 2 i 0.1386(5) 0.5815(5) 0.7314(3) 0.014(1) 0.545 0
O15 O2- 2 i -.2237(4) 0.4992(5) 0.8183(3) 0.011(1) 0.545 0
O16 O2- 2 i -.2230(4) 0.2314(5) 0.0876(3) 0.012(1) 0.545 0
O17 O2- 2 i 0.1081(4) 0.1936(4) 0.9006(3) 0.016(1) 0.545 0
B12 B0+ 2 i 0.0804(8) 0.3105(8) 0.0946(6) 0.012(1) 0.545 0
B13 B0+ 2 i 0.2049(8) 0.4278(8) 0.9763(6) 0.011(1) 0.545 0
B14 B0+ 2 i 0.0812(8) 0.5438(8) 0.8557(6) 0.009(1) 0.545 0
B15 B0+ 2 i -.1183(8) 0.4969(8) 0.9022(6) 0.010(1) 0.545 0
B16 B0+ 2 i -.1177(8) 0.3520(8) 0.0494(6) 0.010(1) 0.545 0
B17 B0+ 2 i 0.0597(7) 0.3331(7) 0.9460(5) 0.012(1) 0.545 0
O18 O2- 2 i 0.683(3) 0.773(3) 0.912(2) 0.021(3) 0.545 0
O19 O2- 2 i 0.686(3) 0.503(3) 0.173(2) 0.021(3) 0.545 0
O20 O2- 2 i 0.054(3) 0.403(3) 0.269(2) 0.021(3) 0.545 0
O21 O2- 2 i 0.301(3) 0.619(3) 0.035(2) 0.021(3) 0.545 0
O22 O2- 2 i 0.043(3) 0.866(3) 0.827(2) 0.021(3) 0.545 0
B18 B0+ 2 i 0.831(5) 0.639(5) 0.954(4) 0.013(4) 0.545 0
B19 B0+ 2 i 0.836(5) 0.510(5) 0.090(4) 0.013(4) 0.545 0
B20 B0+ 2 i 0.032(5) 0.461(5) 0.132(4) 0.013(4) 0.545 0
B21 B0+ 2 i 0.151(5) 0.579(5) 0.013(4) 0.013(4) 0.545 0
B22 B0+ 2 i 0.038(5) 0.695(5) 0.908(4) 0.013(4) 0.545 0
O23 O2- 2 i 0.9584(6) 0.6468(7) 0.3760(8) 0.021(1) 0.667 0
O24 O2- 2 i 0.8078(5) 0.1403(6) 0.8790(4) 0.038(1) 0.667 0
O25 O2- 2 i 0.2982(5) 0.5880(6) 0.4144(4) . 0.667 0
O26 O2- 2 i 0.5714(9) 0.863(2) 0.139(2) . 0.667 0
O27 O2- 2 i 0.054(4) 0.325(5) 0.672(5) 0.021(1) 0.667 0
O28 O2- 2 i 0.436(2) 0.074(3) 0.920(3) 0.031(6) 0.667 0
H1 H1+ 2 i 0.6728 0.8977 0.7827 0.017(6) 1. 0
H2 H1+ 2 i 0.2162 0.9358 0.7224 0.018(6) 1. 0
H3 H1+ 2 i 0.1706 0.3156 0.3277 0.017(6) 1. 0
H4 H1+ 2 i 0.4793 0.4754 0.3251 0.018(6) 1. 0
H5 H1+ 2 i 0.7706 0.2238 0.5472 0.017(6) 1. 0
H6 H1+ 2 i 0.3294 0.3713 0.572 0.024(6) 1. 0
H7 H1+ 2 i 0.1664 0.0641 0.1559 0.017(6) 1. 0
H8 H1+ 2 i 0.4449 0.2814 0.938 0.018(6) 1. 0
H9 H1+ 2 i 0.2339 0.6215 0.7226 0.020(6) 1. 0
H10 H1+ 2 i -.1984 0.4103 0.8313 0.016(6) 1. 0
H11 H1+ 2 i -.1821 0.1386 0.1454 0.018(6) 1. 0
H12 H1+ 2 i 0.077 0.2222 0.8349 0.024(6) 1. 0
H13 H1+ 2 i -.3112 0.4329 0.9234 0.031(6) 1. 0
H14 H1+ 2 i 0.9149 0.7817 0.3244 0.025(6) 1. 0
H15 H1+ 2 i 0.9359 0.577 0.3362 0.025(6) 1. 0
H16 H1+ 2 i 0.7064 0.1418 0.8617 0.046(6) 1. 0
H17 H1+ 2 i 0.8127 0.1083 0.9731 0.046(6) 1. 0
H18 H1+ 2 i 0.319 0.669 0.315 0.054(6) 1. 0
H19 H1+ 2 i 0.5817 0.9319 0.0611 0.048(6) 1. 0
H20 H1+ 2 i 0.5758 0.8146 0.1852 0.048(6) 1. 0
loop_
_atom_site_aniso_label
_atom_site_aniso_type_symbol
_atom_site_aniso_U_11
_atom_site_aniso_U_22
_atom_site_aniso_U_33
_atom_site_aniso_U_12
_atom_site_aniso_U_13
_atom_site_aniso_U_23
Na1 Na1+ 0.007(1) 0.021(1) 0.020(1) -.008(1) 0.004(1) -.008(1)
Na2 Na1+ 0.007(1) 0.021(1) 0.019(1) -.009(1) 0.003(1) -.007(1)
O25 O2- 0.040(3) 0.050(3) 0.063(4) -.016(2) 0.004(2) -.038(3)
O26 O2- 0.030(4) 0.053(9) 0.073(13) -.008(4) 0.002(4) -.04(1)
#End of TTdata_51303-ICSD