
#(C) 2018 by FIZ Karlsruhe - Leibniz Institute for Information Infrastructure.  All rights reserved.
data_51442-ICSD
_database_code_ICSD 51442
_audit_creation_date 2003-04-01
_chemical_name_systematic 'Dilithium pentaytterbium tetraoxide tris(borate)'
_chemical_formula_structural 'Li2 Yb5 O4 (B O3)3'
_chemical_formula_sum 'B3 Li2 O13 Yb5'
_exptl_crystal_density_diffrn 6.94
_publ_section_title

;
A new oxyborate in the ternary phase diagrams Li2 O-Ln2 O3-B2 O3: Li2 Ln5 O4
(B O3)3 (Ln = Yb, Lu): Crystal structure of the ytterbium phase
;
loop_
_citation_id
_citation_journal_full
_citation_year
_citation_journal_volume
_citation_page_first
_citation_page_last
_citation_journal_id_ASTM
primary 'Journal of Solid State Chemistry' 2001 156 161 167 JSSCBI
loop_
_publ_author_name
'Jubera, V.'
'Gravereau, P.'
'Chaminade, J.P.'
'Fouassier, C.'
_cell_length_a 10.095(2)
_cell_length_b 3.519(2)
_cell_length_c 15.647(11)
_cell_angle_alpha 90
_cell_angle_beta 105.45(3)
_cell_angle_gamma 90
_cell_volume 535.76
_cell_formula_units_Z 2
_symmetry_space_group_name_H-M 'P 1 21/m 1'
_symmetry_Int_Tables_number 11
_refine_ls_R_factor_all 0.037
loop_
_symmetry_equiv_pos_site_id
_symmetry_equiv_pos_as_xyz
1 'x, -y+1/2, z'
2 '-x, -y, -z'
3 '-x, y+1/2, -z'
4 'x, y, z'
loop_
_atom_type_symbol
_atom_type_oxidation_number
Li1+ 1
Yb3+ 3
B3+ 3
O2- -2
loop_
_atom_site_label
_atom_site_type_symbol
_atom_site_symmetry_multiplicity
_atom_site_Wyckoff_symbol
_atom_site_fract_x
_atom_site_fract_y
_atom_site_fract_z
_atom_site_B_iso_or_equiv
_atom_site_occupancy
_atom_site_attached_hydrogens
Li1 Li1+ 2 e 0.614(2) 0.25 0.053(2) 0.015(4) 1. 0
Li2 Li1+ 2 e 0.246(4) 0.25 0.752(2) 0.034(4) 1. 0
Yb1 Yb3+ 2 e 0.0351(1) 0.25 0.3731(1) 0.0052(1) 1. 0
Yb2 Yb3+ 2 e 0.5195(1) 0.25 0.3018(1) 0.0035(1) 1. 0
Yb3 Yb3+ 2 e 0.1449(1) 0.25 0.9992(1) 0.0029(1) 1. 0
Yb4 Yb3+ 2 e 0.6400(1) 0.25 0.5626(1) 0.0024(1) 1. 0
Yb5 Yb3+ 2 e 0.8134(1) 0.25 0.7941(1) 0.0025(1) 1. 0
B1 B3+ 2 e 0.4100(11) 0.25 0.1104(7) 0.0077(14) 1. 0
B2 B3+ 2 e 0.2144(10) 0.25 0.5760(6) 0.0054(13) 1. 0
B3 B3+ 2 e 0.9061(10) 0.25 0.1824(6) 0.0058(13) 1. 0
O1 O2- 2 e 0.3798(7) 0.25 0.0195(4) 0.0075(10) 1. 0
O2 O2- 2 e 0.2972(7) 0.25 0.1489(4) 0.0065(9) 1. 0
O3 O2- 2 e 0.5417(9) 0.25 0.1634(6) 0.0168(14) 1. 0
O4 O2- 2 e 0.0803(7) 0.25 0.5837(5) 0.0081(10) 1. 0
O5 O2- 2 e 0.2365(7) 0.25 0.4930(5) 0.0075(10) 1. 0
O6 O2- 2 e 0.3221(7) 0.25 0.6528(4) 0.0065(9) 1. 0
O7 O2- 2 e 0.8298(7) 0.25 0.0959(5) 0.0087(10) 1. 0
O8 O2- 2 e 0.8465(8) 0.25 0.2527(5) 0.0106(11) 1. 0
O9 O2- 2 e 0.0448(7) 0.25 0.2065(4) 0.0065(9) 1. 0
O10 O2- 2 e 0.4877(6) 0.25 0.4317(4) 0.0038(8) 1. 0
O11 O2- 2 e 0.6116(6) 0.25 0.7042(4) 0.0046(9) 1. 0
O12 O2- 2 e 0.8519(6) 0.25 0.6541(4) 0.0049(9) 1. 0
O13 O2- 2 e 0.9178(6) 0.25 0.9376(4) 0.0040(8) 1. 0
loop_
_atom_site_aniso_label
_atom_site_aniso_type_symbol
_atom_site_aniso_U_11
_atom_site_aniso_U_22
_atom_site_aniso_U_33
_atom_site_aniso_U_12
_atom_site_aniso_U_13
_atom_site_aniso_U_23
Yb1 Yb3+ 0.0027(1) 0.0027(1) 0.0108(1) 0 0.0030(1) 0
Yb2 Yb3+ 0.0044(1) 0.0025(1) 0.0045(1) 0 0.0029(1) 0
Yb3 Yb3+ 0.0024(1) 0.0023(1) 0.0045(1) 0 0.0016(1) 0
Yb4 Yb3+ 0.0019(1) 0.0022(1) 0.0033(1) 0 0.0009(1) 0
Yb5 Yb3+ 0.0019(1) 0.0025(1) 0.0032(1) 0 0.0010(1) 0
#End of TTdata_51442-ICSD