
#(C) 2019 by FIZ Karlsruhe - Leibniz Institute for Information Infrastructure.  All rights reserved.
data_51447-ICSD
_database_code_ICSD 51447
_audit_creation_date 2003-04-01
_chemical_name_systematic 'Bismuth sodium niobium oxide (2.5/0.5/2/9)'
_chemical_formula_structural 'Bi2 (Bi0.5 Na0.5) Nb2 O9'
_chemical_formula_sum 'Bi2.5 Na0.5 Nb2 O9'
_chemical_name_structure_type TiNbBi3O9
_exptl_crystal_density_diffrn 7.68
_publ_section_title

;
Crystal structure of Bi2.5 Me0.5 Nb2 O9 (Me = Na, K): a powder neutron
diffraction study
;
loop_
_citation_id
_citation_journal_full
_citation_year
_citation_journal_volume
_citation_page_first
_citation_page_last
_citation_journal_id_ASTM
primary 'Journal of Solid State Chemistry' 2001 156 160 165 JSSCBI
loop_
_publ_author_name
'Borg, S.'
'Svensson, G.'
_cell_length_a 5.4937(3)
_cell_length_b 5.4571(4)
_cell_length_c 24.9169(14)
_cell_angle_alpha 90
_cell_angle_beta 90
_cell_angle_gamma 90
_cell_volume 747.
_cell_formula_units_Z 4
_symmetry_space_group_name_H-M 'A 21 a m'
_symmetry_Int_Tables_number 36
_refine_ls_R_factor_all 0.025
loop_
_symmetry_equiv_pos_site_id
_symmetry_equiv_pos_as_xyz
1 'x+1/2, -y, z'
2 'x+1/2, -y, -z'
3 'x, y, -z'
4 'x, y, z'
5 'x+1/2, -y+1/2, z+1/2'
6 'x+1/2, -y+1/2, -z+1/2'
7 'x, y+1/2, -z+1/2'
8 'x, y+1/2, z+1/2'
loop_
_atom_type_symbol
_atom_type_oxidation_number
Bi3+ 3
Na1+ 1
Bi3+ 3
Nb5+ 5
O2- -2
loop_
_atom_site_label
_atom_site_type_symbol
_atom_site_symmetry_multiplicity
_atom_site_Wyckoff_symbol
_atom_site_fract_x
_atom_site_fract_y
_atom_site_fract_z
_atom_site_B_iso_or_equiv
_atom_site_occupancy
_atom_site_attached_hydrogens
Bi1 Bi3+ 4 a 0. 0.2583(11) 0. 0.84(12) 0.5 0
Na1 Na1+ 4 a 0. 0.2583(11) 0. 0.84(12) 0.5 0
Bi2 Bi3+ 8 b 0.5067(14) 0.7283(6) 0.19938(9) 0.91(7) 1. 0
Nb1 Nb5+ 8 b 0.4591(12) 0.7459(9) 0.41549(9) 0.42(6) 1. 0
O1 O2- 4 a 0.4214(17) 0.1751(13) 0. 0.53(12) 1. 0
O2 O2- 8 b 0.4439(16) 0.8059(9) 0.34220(13) 1.26(10) 1. 0
O3 O2- 8 b 0.7301(15) -.0047(8) 0.25040(18) 0.65(8) 1. 0
O4 O2- 8 b 0.6411(13) 0.9446(9) 0.08650(17) 0.63(9) 1. 0
O5 O2- 8 b 0.7235(17) 0.9697(9) 0.56709(15) 0.83(8) 1. 0
#End of TTdata_51447-ICSD