
#(C) 2019 by FIZ Karlsruhe - Leibniz Institute for Information Infrastructure.  All rights reserved.
data_51509-ICSD
_database_code_ICSD 51509
_audit_creation_date 2003-04-01
_audit_update_record 2012-08-01
_chemical_name_systematic 'Hexacesium hexasodium cyclo-hexasilicate'
_chemical_formula_structural 'Cs6 Na6 (Si6 O18)'
_chemical_formula_sum 'Cs6 Na6 O18 Si6'
_exptl_crystal_density_diffrn 3.76
_publ_section_title
'Neue Cyclosilicate der Alkalielemente: Cs5 Ag Si3 O9 und Cs6 Na6 Si6 O18'
loop_
_citation_id
_citation_journal_full
_citation_year
_citation_journal_volume
_citation_page_first
_citation_page_last
_citation_journal_id_ASTM
primary 'Zeitschrift fuer Anorganische und Allgemeine Chemie (1950) (DE)' 2001
627 172 179 ZAACAB
loop_
_publ_author_name
'Moeller, A.'
'Amann, P.'
_cell_length_a 12.080(1)
_cell_length_b 12.080(1)
_cell_length_c 14.589(2)
_cell_angle_alpha 90
_cell_angle_beta 90
_cell_angle_gamma 120
_cell_volume 1843.7
_cell_formula_units_Z 3
_symmetry_space_group_name_H-M 'R -3 m H'
_symmetry_Int_Tables_number 166
_refine_ls_R_factor_all 0.044
loop_
_symmetry_equiv_pos_site_id
_symmetry_equiv_pos_as_xyz
1 'x-y, -y, -z'
2 '-x, -x+y, -z'
3 'y, x, -z'
4 'x-y, x, -z'
5 'y, -x+y, -z'
6 '-x, -y, -z'
7 '-x+y, y, z'
8 'x, x-y, z'
9 '-y, -x, z'
10 '-x+y, -x, z'
11 '-y, x-y, z'
12 'x, y, z'
13 'x-y+2/3, -y+1/3, -z+1/3'
14 '-x+2/3, -x+y+1/3, -z+1/3'
15 'y+2/3, x+1/3, -z+1/3'
16 'x-y+2/3, x+1/3, -z+1/3'
17 'y+2/3, -x+y+1/3, -z+1/3'
18 '-x+2/3, -y+1/3, -z+1/3'
19 '-x+y+2/3, y+1/3, z+1/3'
20 'x+2/3, x-y+1/3, z+1/3'
21 '-y+2/3, -x+1/3, z+1/3'
22 '-x+y+2/3, -x+1/3, z+1/3'
23 '-y+2/3, x-y+1/3, z+1/3'
24 'x+2/3, y+1/3, z+1/3'
25 'x-y+1/3, -y+2/3, -z+2/3'
26 '-x+1/3, -x+y+2/3, -z+2/3'
27 'y+1/3, x+2/3, -z+2/3'
28 'x-y+1/3, x+2/3, -z+2/3'
29 'y+1/3, -x+y+2/3, -z+2/3'
30 '-x+1/3, -y+2/3, -z+2/3'
31 '-x+y+1/3, y+2/3, z+2/3'
32 'x+1/3, x-y+2/3, z+2/3'
33 '-y+1/3, -x+2/3, z+2/3'
34 '-x+y+1/3, -x+2/3, z+2/3'
35 '-y+1/3, x-y+2/3, z+2/3'
36 'x+1/3, y+2/3, z+2/3'
loop_
_atom_type_symbol
_atom_type_oxidation_number
Cs1+ 1
Si4+ 4
Na1+ 1
O2- -2
loop_
_atom_site_label
_atom_site_type_symbol
_atom_site_symmetry_multiplicity
_atom_site_Wyckoff_symbol
_atom_site_fract_x
_atom_site_fract_y
_atom_site_fract_z
_atom_site_B_iso_or_equiv
_atom_site_occupancy
_atom_site_attached_hydrogens
Cs1 Cs1+ 6 c 0. 0 0.34114(5) 0.0281(2) 1. 0
Cs2 Cs1+ 9 d 0.5 0.5 0.5 0.0493(4) 1. 0
Cs3 Cs1+ 6 c 0 0 0.0186(7) 0.0857(28) 0.5 0
Si1 Si4+ 18 h 0.6934(2) 0.8467(1) 0.5176(1) 0.0173(4) 1. 0
Na1 Na1+ 18 f 0.7013(2) 0.6667 0.6667 0.0233(6) 1. 0
O1 O2- 18 h 0.6528(6) 0.8264(3) 0.6222(3) 0.0329(12) 1. 0
O2 O2- 18 g 0.7871(6) 0.7871(6) 0.5 0.0452(15) 1. 0
O3 O2- 18 h 0.5840(6) 0.7920(3) 0.4404(3) 0.0321(11) 1. 0
loop_
_atom_site_aniso_label
_atom_site_aniso_type_symbol
_atom_site_aniso_U_11
_atom_site_aniso_U_22
_atom_site_aniso_U_33
_atom_site_aniso_U_12
_atom_site_aniso_U_13
_atom_site_aniso_U_23
Cs1 Cs1+ 0.0264(4) 0.0264(4) 0.0316(5) 0.0132(2) 0 0
Cs2 Cs1+ 0.0403(4) 0.0403(4) 0.0297(4) -0.0081(4) -0.0118(2) 0.0118(2)
Cs3 Cs1+ 0.0635(9) 0.0635(9) 0.1301(86) 0.0318(5) 0 0
Si1 Si4+ 0.0212(8) 0.0168(6) 0.0154(8) 0.0106(4) 0.0006(6) 0.0003(3)
Na1 Na1+ 0.0235(10) 0.0257(14) 0.0213(11) 0.0129(7) -0.0003(5) -0.0006(9)
O1 O2- 0.0439(31) 0.0382(22) 0.0186(23) 0.0219(16) 0.0067(21) 0.0033(11)
O2 O2- 0.0509(29) 0.0509(29) 0.0578(35) 0.0434(32) 0.0026(12) -0.0026(12)
O3 O2- 0.0348(29) 0.0348(20) 0.0267(22) 0.0174(14) -0.0092(22) -0.0046(11)
#End of TTdata_51509-ICSD