
#(C) 2018 by FIZ Karlsruhe - Leibniz Institute for Information Infrastructure.  All rights reserved.
data_51630-ICSD
_database_code_ICSD 51630
_audit_creation_date 2003-10-01
_chemical_name_systematic 'Lithium phosphate(V)'
_chemical_formula_structural 'Li (P O3)'
_chemical_formula_sum 'Li1 O3 P1'
_exptl_crystal_density_diffrn 2.48
_publ_section_title

;
Synthesis and crystal structures of lithium polyphosphates, Li P O3, Li4 H (P
O3)5, and Li Mn (P O3)3
;
loop_
_citation_id
_citation_journal_full
_citation_year
_citation_journal_volume
_citation_page_first
_citation_page_last
_citation_journal_id_ASTM
primary Kristallografiya 2001 46 1024 1029 KRISAJ
loop_
_publ_author_name
'Murashova, E.V.'
'Chudinova, N.N.'
_cell_length_a 13.074(2)
_cell_length_b 5.4068(8)
_cell_length_c 16.452(2)
_cell_angle_alpha 90
_cell_angle_beta 99.00(2)
_cell_angle_gamma 90
_cell_volume 1148.65
_cell_formula_units_Z 20
_symmetry_space_group_name_H-M 'P 1 2/n 1'
_symmetry_Int_Tables_number 13
_refine_ls_R_factor_all 0.0379
loop_
_symmetry_equiv_pos_site_id
_symmetry_equiv_pos_as_xyz
1 'x+1/2, -y, z+1/2'
2 '-x+1/2, y, -z+1/2'
3 '-x, -y, -z'
4 'x, y, z'
loop_
_atom_type_symbol
_atom_type_oxidation_number
P5+ 5
O2- -2
Li1+ 1
loop_
_atom_site_label
_atom_site_type_symbol
_atom_site_symmetry_multiplicity
_atom_site_Wyckoff_symbol
_atom_site_fract_x
_atom_site_fract_y
_atom_site_fract_z
_atom_site_B_iso_or_equiv
_atom_site_occupancy
_atom_site_attached_hydrogens
P1 P5+ 4 g 0.45202(4) 0.67317(10) 0.31660(4) 0.00988(14) 1. 0
P2 P5+ 4 g 0.35155(4) 0.33960(10) 0.41668(4) 0.00839(14) 1. 0
P3 P5+ 4 g 0.23891(4) 0.68754(10) 0.50907(3) 0.00686(14) 1. 0
P4 P5+ 4 g 0.12646(4) 0.34525(9) 0.60220(4) 0.00885(14) 1. 0
P5 P5+ 4 g 0.03325(4) 0.68770(9) 0.70608(4) 0.00712(13) 1. 0
O1 O2- 4 g 0.35939(12) 0.7562(4) 0.26052(11) 0.0239(4) 1. 0
O2 O2- 4 g 0.54125(12) 0.8437(3) 0.33857(10) 0.0160(4) 1. 0
O3 O2- 4 g 0.49433(14) 0.4164(3) 0.28561(11) 0.0210(4) 1. 0
O4 O2- 4 g 0.42169(11) 0.5774(3) 0.40225(9) 0.0124(3) 1. 0
O5 O2- 4 g 0.42300(12) 0.1449(3) 0.45414(11) 0.0179(4) 1. 0
O6 O2- 4 g 0.27989(12) 0.2827(3) 0.34116(10) 0.0194(4) 1. 0
O7 O2- 4 g 0.29515(13) 0.4356(3) 0.48838(11) 0.0229(4) 1. 0
O8 O2- 4 g 0.31014(12) 0.8193(3) 0.57299(10) 0.0207(4) 1. 0
O9 O2- 4 g 0.19359(12) 0.8258(3) 0.43501(10) 0.0167(4) 1. 0
O10 O2- 4 g 0.14279(12) 0.5835(3) 0.54694(11) 0.0165(3) 1. 0
O11 O2- 4 g 0.07563(12) 0.1497(3) 0.54779(10) 0.0150(4) 1. 0
O12 O2- 4 g 0.22132(10) 0.2962(3) 0.65918(9) 0.0108(3) 1. 0
O13 O2- 4 g 0.03568(12) 0.4449(3) 0.65069(9) 0.0160(4) 1. 0
O14 O2- 4 g 0.13940(11) 0.7790(3) 0.73133(10) 0.0189(4) 1. 0
O15 O2- 4 g -.04738(12) 0.8588(3) 0.66343(10) 0.0172(4) 1. 0
Li1 Li1+ 4 g 0.1835(3) -0.0095(7) 0.3246(2) 0.0150(8) 1. 0
Li2 Li1+ 4 g 0.3233(3) 0.0214(7) 0.6735(3) 0.0197(8) 1. 0
Li3 Li1+ 4 g -0.0610(2) 0.9991(7) 0.5579(2) 0.0113(8) 1. 0
Li4 Li1+ 4 g 0.5576(3) 0.0200(11) 0.4421(3) 0.0333(12) 1. 0
Li5 Li1+ 2 e 0.25 0.5044(11) 0.25 0.0245(13) 1. 0
Li6 Li1+ 2 f 0.25 0.5352(10) 0.75 0.0134(11) 1. 0
#End of TTdata_51630-ICSD