
#(C) 2019 by FIZ Karlsruhe - Leibniz Institute for Information Infrastructure.  All rights reserved.
data_51739-ICSD
_database_code_ICSD 51739
_audit_creation_date 2003-10-01
_chemical_name_systematic
'Sodium calcium sulfate(VI) fluoride (6.35/3.55/6/1.65)'
_chemical_formula_structural 'Na6.35 Ca3.65 (S O4)6 F1.65'
_chemical_formula_sum 'Ca3.65 F1.65 Na6.35 O24 S6'
_chemical_name_structure_type Apatite#-(HE,P63/m)
_exptl_crystal_density_diffrn 2.8
_publ_section_title

;
The solid solution series of the sulfate apatite system Na6.45 Ca3.55 (S O4)6
(F(x) Cl(1-x))1.55
;
loop_
_citation_id
_citation_journal_full
_citation_year
_citation_journal_volume
_citation_page_first
_citation_page_last
_citation_journal_id_ASTM
primary 'Journal of Solid State Chemistry' 2002 163 398 405 JSSCBI
loop_
_publ_author_name
'Piotrowski, A.'
'Kahlenberg, V.'
'Fischer, R.X.'
_cell_length_a 9.4364(21)
_cell_length_b 9.4364(21)
_cell_length_c 6.9186(16)
_cell_angle_alpha 90
_cell_angle_beta 90
_cell_angle_gamma 120
_cell_volume 533.53
_cell_formula_units_Z 1
_symmetry_space_group_name_H-M 'P 63/m'
_symmetry_Int_Tables_number 176
_refine_ls_R_factor_all 0.0409
loop_
_symmetry_equiv_pos_site_id
_symmetry_equiv_pos_as_xyz
1 '-x+y, -x, -z+1/2'
2 '-y, x-y, -z+1/2'
3 'x, y, -z+1/2'
4 'x-y, x, -z'
5 'y, -x+y, -z'
6 '-x, -y, -z'
7 'x-y, x, z+1/2'
8 'y, -x+y, z+1/2'
9 '-x, -y, z+1/2'
10 '-x+y, -x, z'
11 '-y, x-y, z'
12 'x, y, z'
loop_
_atom_type_symbol
_atom_type_oxidation_number
Na1+ 1
Ca2+ 2
Na1+ 1
Ca2+ 2
S6+ 6
O2- -2
F1- -1
loop_
_atom_site_label
_atom_site_type_symbol
_atom_site_symmetry_multiplicity
_atom_site_Wyckoff_symbol
_atom_site_fract_x
_atom_site_fract_y
_atom_site_fract_z
_atom_site_B_iso_or_equiv
_atom_site_occupancy
_atom_site_attached_hydrogens
Na1 Na1+ 6 h 0.2410(3) 0.9897(3) 0.25 0.0298(9) 0.420(10) 0
Ca1 Ca2+ 6 h 0.2410(3) 0.9897(3) 0.25 0.0298(9) 0.580(10) 0
Na2 Na1+ 4 f 0.3333 0.6667 0.0042(6) 0.0362(11) 0.958(8) 0
Ca2 Ca2+ 4 f 0.3333 0.6667 0.0042(6) 0.0362(11) 0.042(8) 0
S1 S6+ 6 h 0.3922(3) 0.3664(3) 0.25 0.0252(6) 1. 0
O1 O2- 6 h 0.3183(7) 0.4701(7) 0.25 0.0317(16) 1. 0
O2 O2- 6 h 0.5709(7) 0.4651(7) 0.25 0.0383(18) 1. 0
O3 O2- 12 i 0.3387(6) 0.2591(5) 0.0800(7) 0.0391(13) 1. 0
F1 F1- 2 a 0. 0. 0.25 0.0550(53) 0.828(9) 0
#End of TTdata_51739-ICSD