
#(C) 2018 by FIZ Karlsruhe - Leibniz Institute for Information Infrastructure.  All rights reserved.
data_51754-ICSD
_database_code_ICSD 51754
_audit_creation_date 2004-04-01
_chemical_name_systematic 'Trilithium catena-alumodiborate'
_chemical_formula_structural 'Li3 (Al B2 O6)'
_chemical_formula_sum 'Al1 B2 Li3 O6'
_chemical_name_structure_type Li3AlB2O6
_exptl_crystal_density_diffrn 2.39
_publ_section_title
'Synthesis, structure, and thermal stability of Li3 Al B3 O6'
loop_
_citation_id
_citation_journal_full
_citation_year
_citation_journal_volume
_citation_page_first
_citation_page_last
_citation_journal_id_ASTM
primary 'Journal of Solid State Chemistry' 2002 163 369 376 JSSCBI
loop_
_publ_author_name
'He, M.'
'Chen, X.-L.'
'Gramlich, V.'
'Baerlocher, C.'
'Zhou, T.'
'Hu, B.Q.'
_cell_length_a 4.876(8)
_cell_length_b 6.191(16)
_cell_length_c 7.910(20)
_cell_angle_alpha 74.46(18)
_cell_angle_beta 89.44(17)
_cell_angle_gamma 89.52(18)
_cell_volume 230.04
_cell_formula_units_Z 2
_symmetry_space_group_name_H-M 'P -1'
_symmetry_Int_Tables_number 2
_refine_ls_R_factor_all 0.0306
loop_
_symmetry_equiv_pos_site_id
_symmetry_equiv_pos_as_xyz
1 '-x, -y, -z'
2 'x, y, z'
loop_
_atom_type_symbol
_atom_type_oxidation_number
Al3+ 3
B3+ 3
O2- -2
Li1+ 1
loop_
_atom_site_label
_atom_site_type_symbol
_atom_site_symmetry_multiplicity
_atom_site_Wyckoff_symbol
_atom_site_fract_x
_atom_site_fract_y
_atom_site_fract_z
_atom_site_B_iso_or_equiv
_atom_site_occupancy
_atom_site_attached_hydrogens
Al1 Al3+ 2 i 0.1491(2) 0.5509(2) 0.27368(14) 0.0106(4) 1. 0
B1 B3+ 2 i -.1588(9) 0.8207(7) 0.4289(5) 0.0103(11) 1. 0
B2 B3+ 2 i 0.6654(9) 0.6723(7) 0.0909(6) 0.0110(11) 1. 0
O1 O2- 2 i 0.1098(5) 0.7555(4) 0.3946(3) 0.0121(7) 1. 0
O2 O2- 2 i -.2897(5) 0.9899(4) 0.3193(3) 0.0125(7) 1. 0
O3 O2- 2 i -.2734(5) 0.7039(4) 0.5893(3) 0.0134(7) 1. 0
O4 O2- 2 i 0.3797(5) 0.6621(4) 0.1063(3) 0.0135(7) 1. 0
O5 O2- 2 i 0.8121(5) 0.5112(4) 0.2160(3) 0.0124(7) 1. 0
O6 O2- 2 i 0.7909(5) 0.8340(4) 0.9692(3) 0.0138(7) 1. 0
Li1 Li1+ 2 i -.3339(13) 0.2594(11) 0.3904(8) 0.017(2) 1. 0
Li2 Li1+ 2 i -.1780(14) 0.1106(11) 0.0740(8) 0.020(2) 1. 0
Li3 Li1+ 2 i 0.6736(14) 0.9777(12) 0.7442(9) 0.024(2) 1. 0
loop_
_atom_site_aniso_label
_atom_site_aniso_type_symbol
_atom_site_aniso_U_11
_atom_site_aniso_U_22
_atom_site_aniso_U_33
_atom_site_aniso_U_12
_atom_site_aniso_U_13
_atom_site_aniso_U_23
Al1 Al3+ 0.0067(7) 0.0112(7) 0.0121(7) 0.0006(5) 0.0011(5) 0.0000(5)
O1 O2- 0.0046(14) 0.0159(14) 0.0136(15) -0.0005(11) 0.0008(11) -0.0004(11)
O2 O2- 0.012(2) 0.0118(14) 0.0117(15) 0.0015(11) 0.0008(11) 0.0000(11)
O3 O2- 0.0076(14) 0.016(2) 0.0138(14) 0.0014(12) 0.0017(11) 0.0016(12)
O4 O2- 0.0064(15) 0.017(2) 0.014(2) 0.0001(12) 0.0021(11) 0.0004(12)
O5 O2- 0.0072(14) 0.0128(15) 0.0145(14) 0.0000(11) -0.0012(11) 0.0009(11)
O6 O2- 0.0093(14) 0.0145(14) 0.0152(14) -0.0011(11) 0.0017(11) 0.0001(11)
#End of TTdata_51754-ICSD