
#(C) 2019 by FIZ Karlsruhe - Leibniz Institute for Information Infrastructure.  All rights reserved.
data_51867-ICSD
_database_code_ICSD 51867
_audit_creation_date 2004-10-01
_chemical_name_systematic 'Bismuth sodium niobium oxide (2.5/2.5/4/15)'
_chemical_formula_structural 'Bi2 (Bi0.5 Na2.5) Nb4 O15'
_chemical_formula_sum 'Bi2.5 Na2.5 Nb4 O15'
_chemical_name_structure_type SrBi4Ti4O15
_exptl_crystal_density_diffrn 6.47
_publ_section_title

;
Structure study of Bi2.5 Na0.5 Ta2 O9 and Bi2.5 Na(m-1.5) Nb(m) O(3m+3)
(M=2-4) by neutron diffraction and electron microscopy
;
loop_
_citation_id
_citation_journal_full
_citation_year
_citation_journal_volume
_citation_page_first
_citation_page_last
_citation_journal_id_ASTM
primary 'Journal of Solid State Chemistry' 2002 167 86 96 JSSCBI
loop_
_publ_author_name
'Borg, S.'
'Svensson, G.'
'Bovin, J.O.'
_cell_length_a 5.5095(5)
_cell_length_b 5.4783(5)
_cell_length_c 40.553(3)
_cell_angle_alpha 90
_cell_angle_beta 90
_cell_angle_gamma 90
_cell_volume 1224.
_cell_formula_units_Z 4
_symmetry_space_group_name_H-M 'A 21 a m'
_symmetry_Int_Tables_number 36
_refine_ls_R_factor_all 0.0311
loop_
_symmetry_equiv_pos_site_id
_symmetry_equiv_pos_as_xyz
1 'x+1/2, -y, z'
2 'x+1/2, -y, -z'
3 'x, y, -z'
4 'x, y, z'
5 'x+1/2, -y+1/2, z+1/2'
6 'x+1/2, -y+1/2, -z+1/2'
7 'x, y+1/2, -z+1/2'
8 'x, y+1/2, z+1/2'
loop_
_atom_type_symbol
_atom_type_oxidation_number
Bi3+ 3
Na1+ 1
Bi3+ 3
Na1+ 1
Bi3+ 3
Nb5+ 5
O2- -2
loop_
_atom_site_label
_atom_site_type_symbol
_atom_site_symmetry_multiplicity
_atom_site_Wyckoff_symbol
_atom_site_fract_x
_atom_site_fract_y
_atom_site_fract_z
_atom_site_B_iso_or_equiv
_atom_site_occupancy
_atom_site_attached_hydrogens
Bi1 Bi3+ 4 a 0. 0.262(4) 0. 0.61(17) 0.1667 0
Na1 Na1+ 4 a 0. 0.262(4) 0. 0.61(17) 0.8333 0
Bi2 Bi3+ 8 b 0.026(6) 0.251(2) 0.0997(2) 0.61(17) 0.1667 0
Na2 Na1+ 8 b 0.026(6) 0.251(2) 0.0997(2) 0.61(17) 0.8333 0
Bi3 Bi3+ 8 b 0.536(5) 0.7293(13) 0.21855(12) 0.92(12) 1. 0
Nb1 Nb5+ 8 b 0.484(6) 0.752(3) 0.45091(14) 0.18(7) 1. 0
Nb2 Nb5+ 8 b 0.484(5) 0.750(2) 0.35162(12) 0.18(7) 1. 0
O1 O2- 4 a 0.492(6) 0.305(3) 0. 0.63(6) 1. 0
O2 O2- 8 b 0.494(6) 0.8138(19) 0.69301(18) 0.63(6) 1. 0
O3 O2- 8 b 0.760(6) -.010(3) 0.2495(3) 1.44(19) 1. 0
O4 O2- 8 b 0.688(6) 0.462(3) 0.4576(3) 0.63(6) 1. 0
O5 O2- 8 b 0.733(6) 0.963(3) 0.4464(2) 0.63(6) 1. 0
O6 O2- 8 b 0.466(5) 0.192(2) 0.0971(2) 0.63(6) 1. 0
O7 O2- 8 b 0.688(5) 0.454(3) 0.3501(3) 0.63(6) 1. 0
O8 O2- 8 b 0.759(5) 0.973(2) 0.3616(2) 0.63(6) 1. 0
#End of TTdata_51867-ICSD