
#(C) 2019 by FIZ Karlsruhe - Leibniz Institute for Information Infrastructure.  All rights reserved.
data_51869-ICSD
_database_code_ICSD 51869
_audit_creation_date 2004-10-01
_chemical_name_systematic 'Sodium strontium niobium oxide (0.6/0.4/1/3)'
_chemical_formula_structural '(Na0.6 Sr0.4) (Nb O3)'
_chemical_formula_sum 'Na0.6 Nb1 O3 Sr0.4'
_chemical_name_structure_type Perovskite-NaNbO3(tP10)
_exptl_crystal_density_diffrn 5.05
_publ_section_title

;
Structures and properties of the perovskite-type compounds Na(1-x) Sr(x) Nb O3
(0.1<=x<=0.9) - from insulating to metallic conductivity
;
loop_
_citation_id
_citation_journal_full
_citation_year
_citation_journal_volume
_citation_page_first
_citation_page_last
_citation_journal_id_ASTM
primary 'Journal of Solid State Chemistry' 2002 167 7 16 JSSCBI
loop_
_publ_author_name
'Istomin, S.Ya.'
'Svensson, G.'
'Koehler, J.'
_cell_length_a 5.60007(7)
_cell_length_b 5.60007(7)
_cell_length_c 3.97721(5)
_cell_angle_alpha 90
_cell_angle_beta 90
_cell_angle_gamma 90
_cell_volume 124.73
_cell_formula_units_Z 2
_symmetry_space_group_name_H-M 'P 4/m b m'
_symmetry_Int_Tables_number 127
_refine_ls_R_factor_all 0.032
loop_
_symmetry_equiv_pos_site_id
_symmetry_equiv_pos_as_xyz
1 'y+1/2, x+1/2, -z'
2 '-y+1/2, -x+1/2, -z'
3 '-y, x, -z'
4 'y, -x, -z'
5 'x+1/2, -y+1/2, -z'
6 '-x+1/2, y+1/2, -z'
7 'x, y, -z'
8 '-x, -y, -z'
9 '-y+1/2, -x+1/2, z'
10 'y+1/2, x+1/2, z'
11 'y, -x, z'
12 '-y, x, z'
13 '-x+1/2, y+1/2, z'
14 'x+1/2, -y+1/2, z'
15 '-x, -y, z'
16 'x, y, z'
loop_
_atom_type_symbol
_atom_type_oxidation_number
Na1+ 1
Sr2+ 2
Nb4+ 4.6
O2- -2
loop_
_atom_site_label
_atom_site_type_symbol
_atom_site_symmetry_multiplicity
_atom_site_Wyckoff_symbol
_atom_site_fract_x
_atom_site_fract_y
_atom_site_fract_z
_atom_site_B_iso_or_equiv
_atom_site_occupancy
_atom_site_attached_hydrogens
Na1 Na1+ 2 c 0. 0.5 0.5 1.15(1) 0.6 0
Sr1 Sr2+ 2 c 0. 0.5 0.5 1.15(1) 0.4 0
Nb1 Nb4+ 2 a 0. 0. 0. 1.19(1) 1. 0
O1 O2- 2 b 0. 0. 0.5 0.4(1) 1. 0
O2 O2- 4 g 0.2737(4) 0.7737 0. 0.74(7) 1. 0
#End of TTdata_51869-ICSD