
#(C) 2019 by FIZ Karlsruhe - Leibniz Institute for Information Infrastructure.  All rights reserved.
data_53267-ICSD
_database_code_ICSD 53267
_audit_creation_date 2002-04-01
_audit_update_record 2012-08-01
_chemical_name_systematic 'Dibarium sodium pentaniobate(V)'
_chemical_formula_structural 'Ba2 Na (Nb5 O15)'
_chemical_formula_sum 'Ba2 Na1 Nb5 O15'
_chemical_name_structure_type Bronze(tet)-Ba3Nb5O15(P4bm)
_exptl_crystal_density_diffrn 5.4
_publ_section_title

;
Obtention of good quality Ba2 Na Nb5 O15 crystals: growth, characterization
and structure of Nd(3+)-doped single-crystal fibres
;
loop_
_citation_id
_citation_journal_full
_citation_year
_citation_journal_volume
_citation_page_first
_citation_page_last
_citation_journal_id_ASTM
primary 'European Journal of Solid State and Inorganic Chemistry' 1996 33 673
686 EJSCE5
loop_
_publ_author_name
'Foulon, G.'
'Ferriol, M.'
'Brenier, A.'
'Boulon, G.'
'Lecocq, S.'
_cell_length_a 12.454(5)
_cell_length_b 12.454
_cell_length_c 3.977(2)
_cell_angle_alpha 90.
_cell_angle_beta 90.
_cell_angle_gamma 90.
_cell_volume 616.84
_cell_formula_units_Z 2
_symmetry_space_group_name_H-M 'P 4 b m'
_symmetry_Int_Tables_number 100
loop_
_symmetry_equiv_pos_site_id
_symmetry_equiv_pos_as_xyz
1 '-y+1/2, -x+1/2, z'
2 'y+1/2, x+1/2, z'
3 'y, -x, z'
4 '-y, x, z'
5 '-x+1/2, y+1/2, z'
6 'x+1/2, -y+1/2, z'
7 '-x, -y, z'
8 'x, y, z'
loop_
_atom_type_symbol
_atom_type_oxidation_number
Ba2+ 2
Nb5+ 5
Na1+ 1
O2- -2
loop_
_atom_site_label
_atom_site_type_symbol
_atom_site_symmetry_multiplicity
_atom_site_Wyckoff_symbol
_atom_site_fract_x
_atom_site_fract_y
_atom_site_fract_z
_atom_site_B_iso_or_equiv
_atom_site_occupancy
_atom_site_attached_hydrogens
Ba1 Ba2+ 4 c 0.17231(6) 0.67231 0.1998(2) 0.0165(2) 1. 0
Nb1 Nb5+ 8 d 0.29074(6) 0.42642(6) 0.6848(4) 0.0046(2) 1. 0
Nb3 Nb5+ 2 b 0 0.5 0.6843(7) 0.0055(2) 1. 0
Na1 Na1+ 2 a 0 0 0.203(3) 0.0010(7) 1. 0
O1 O2- 8 d 0.1565(6) 0.5070(7) 0.738(2) 0.010(2) 1. 0
O3 O2- 4 c 0.2837(6) 0.7837 0.714(4) 0.011(1) 1. 0
O4 O2- 8 d 0.3588(8) 0.5699(8) 0.741(3) 0.017(2) 1. 0
O6 O2- 8 d 0.207(1) 0.9225(10) 0.2025(70) 0.043(3) 1. 0
O7 O2- 2 b 0 0.5 0.193(12) 0.041(4) 1. 0
#End of TTdata_53267-ICSD