
#(C) 2019 by FIZ Karlsruhe - Leibniz Institute for Information Infrastructure.  All rights reserved.
data_54049-ICSD
_database_code_ICSD 54049
_audit_creation_date 1999-06-02
_audit_update_record 2012-08-01
_chemical_name_systematic
'Sodium potassium alumogermanate (0.75/0.25/1) - alpha'
_chemical_formula_structural '(Na0.75 K0.25) (Al Ge O4)'
_chemical_formula_sum 'Al1 Ge1 K0.25 Na0.75 O4'
_exptl_crystal_density_diffrn 3.29
_publ_section_title
'Monoclinic and hexagonal nepheline structures of (Na3/4 K1/4) Al Ge O4'
loop_
_citation_id
_citation_journal_full
_citation_year
_citation_journal_volume
_citation_page_first
_citation_page_last
_citation_journal_id_ASTM
primary 'Acta Crystallographica, Section B: Structural Science' 1998 54 211 220
ASBSDK
loop_
_publ_author_name
'Hammond, R.P.'
'Barbier, J.'
_cell_length_a 10.0477(4)
_cell_length_b 8.5764(4)
_cell_length_c 10.2118(4)
_cell_angle_alpha 90.
_cell_angle_beta 119.035(1)
_cell_angle_gamma 90.
_cell_volume 769.39
_cell_formula_units_Z 8
_symmetry_space_group_name_H-M 'P 1 21 1'
_symmetry_Int_Tables_number 4
_refine_ls_R_factor_all 0.0554
loop_
_symmetry_equiv_pos_site_id
_symmetry_equiv_pos_as_xyz
1 '-x, y+1/2, -z'
2 'x, y, z'
loop_
_atom_type_symbol
_atom_type_oxidation_number
Na1+ 1
K1+ 1
Ge4+ 4
Al3+ 3
O2- -2
loop_
_atom_site_label
_atom_site_type_symbol
_atom_site_symmetry_multiplicity
_atom_site_Wyckoff_symbol
_atom_site_fract_x
_atom_site_fract_y
_atom_site_fract_z
_atom_site_B_iso_or_equiv
_atom_site_occupancy
_atom_site_attached_hydrogens
Na1 Na1+ 2 a 0.4362(5) 0.4289(8) 0.4533(5) 0.0201(9) 1. 0
Na2 Na1+ 2 a 0.5610(5) 0.4288(8) 0.9982(5) 0.0222(9) 1. 0
Na3 Na1+ 2 a 0.0073(5) 0.9293(8) 0.4379(5) 0.0228(10) 1. 0
K1 K1+ 2 a 0.0121(4) 0.4268(6) 0.0077(4) 0.0381(7) 1. 0
Ge1 Ge4+ 2 a 0.34742(13) 0.1227(2) 0.66563(12) 0.0099(3) 1. 0
Ge2 Ge4+ 2 a 0.24343(12) 0.6197(2) 0.90195(12) 0.0095(2) 1. 0
Ge3 Ge4+ 2 a 0.08980(12) 0.6157(2) 0.34079(12) 0.0097(2) 1. 0
Ge4 Ge4+ 2 a 0.68052(12) 0.6112(2) 0.76134(12) 0.0089(2) 1. 0
Al1 Al3+ 2 a 0.3474(4) 0.7380(5) 0.6649(4) 0.0080(7) 1. 0
Al2 Al3+ 2 a 0.2448(4) 0.2388(5) 0.9032(4) 0.0084(7) 1. 0
Al3 Al3+ 2 a 0.0901(4) 0.2422(5) 0.3414(4) 0.0077(7) 1. 0
Al4 Al3+ 2 a 0.6810(4) 0.2457(5) 0.7631(4) 0.0080(7) 1. 0
O1 O2- 2 a 0.4846(10) 0.2334(14) 0.6492(11) 0.018(2) 1. 0
O2 O2- 2 a 0.7341(8) 0.4307(13) 0.7292(8) 0.0127(15) 1. 0
O3 O2- 2 a 0.7384(11) 0.2400(13) 0.9531(10) 0.017(2) 1. 0
O4 O2- 2 a 0.0527(8) 0.6084(16) 0.7721(9) 0.016(2) 1. 0
O5 O2- 2 a 0.7772(10) 0.1033(16) 0.7209(10) 0.017(2) 1. 0
O6 O2- 2 a 0.4863(9) 0.6294(18) 0.6473(10) 0.019(2) 1. 0
O7 O2- 2 a 0.3587(10) 0.1527(11) 0.8405(10) 0.018(3) 1. 0
O8 O2- 2 a 0.7337(9) 0.6212(18) 0.9506(8) 0.017(2) 1. 0
O9 O2- 2 a 0.0511(11) 0.2455(13) 0.7715(10) 0.016(2) 1. 0
O10 O2- 2 a 0.0177(9) 0.4297(13) 0.3332(10) 0.022(2) 1. 0
O11 O2- 2 a 0.3040(9) 0.4293(13) 0.9611(9) 0.023(2) 1. 0
O12 O2- 2 a 0.2252(12) 0.2552(12) 0.2799(11) 0.013(2) 1. 0
O13 O2- 2 a 0.1656(11) 0.6834(12) 0.521(1) 0.020(2) 1. 0
O14 O2- 2 a 0.390(1) -.0675(13) 0.6502(10) 0.027(2) 1. 0
O15 O2- 2 a 0.1674(11) 0.1700(13) 0.5265(12) 0.026(3) 1. 0
O16 O2- 2 a 0.3565(11) 0.7026(12) 0.8363(11) 0.021(2) 1. 0
#End of TTdata_54049-ICSD