
#(C) 2019 by FIZ Karlsruhe - Leibniz Institute for Information Infrastructure.  All rights reserved.
data_54168-ICSD
_database_code_ICSD 54168
_audit_creation_date 1999-11-30
_audit_update_record 2010-08-01
_chemical_name_systematic 'Tripotassium sodium bis(selenate(VI))'
_chemical_formula_structural 'K3 Na (Se O4)2'
_chemical_formula_sum 'K3 Na1 O8 Se2'
_chemical_name_structure_type K3Na(SeO4)2
_exptl_crystal_density_diffrn 3.16
_cell_measurement_temperature 340.
_publ_section_title 'Crystal structure of K3 Na (Se O4)2 at 340 K'
loop_
_citation_id
_citation_journal_full
_citation_year
_citation_journal_volume
_citation_page_first
_citation_page_last
_citation_journal_id_ASTM
primary 'Acta Physica Polonica, A' 1998 94 795 801 ATPLB6
loop_
_publ_author_name
'Fukami, T.'
'Chen, R.-H.'
_cell_length_a 5.8725(5)
_cell_length_b 5.8725(5)
_cell_length_c 7.5092(8)
_cell_angle_alpha 90.
_cell_angle_beta 90.
_cell_angle_gamma 120.
_cell_volume 224.27
_cell_formula_units_Z 1
_symmetry_space_group_name_H-M 'P -3'
_symmetry_Int_Tables_number 147
_refine_ls_R_factor_all 0.0183
loop_
_symmetry_equiv_pos_site_id
_symmetry_equiv_pos_as_xyz
1 'x-y, x, -z'
2 'y, -x+y, -z'
3 '-x, -y, -z'
4 '-x+y, -x, z'
5 '-y, x-y, z'
6 'x, y, z'
loop_
_atom_type_symbol
_atom_type_oxidation_number
Se6+ 6
K1+ 1
Na1+ 1
O2- -2
loop_
_atom_site_label
_atom_site_type_symbol
_atom_site_symmetry_multiplicity
_atom_site_Wyckoff_symbol
_atom_site_fract_x
_atom_site_fract_y
_atom_site_fract_z
_atom_site_B_iso_or_equiv
_atom_site_occupancy
_atom_site_attached_hydrogens
Se1 Se6+ 2 d 0.3333 0.6667 0.27407(3) . 1. 0
K1 K1+ 2 d 0.3333 0.6667 0.82736(7) . 1. 0
K2 K1+ 1 b 0 0 0.5 . 1. 0
Na1 Na1+ 1 a 0 0 0 . 1. 0
O1 O2- 2 d 0.3333 0.6667 0.4884(3) . 1. 0
O2 O2- 6 g 0.1835(2) 0.3666(2) 0.1968(2) . 1. 0
loop_
_atom_site_aniso_label
_atom_site_aniso_type_symbol
_atom_site_aniso_U_11
_atom_site_aniso_U_22
_atom_site_aniso_U_33
_atom_site_aniso_U_12
_atom_site_aniso_U_13
_atom_site_aniso_U_23
Se1 Se6+ 0.01313(4) 0.01313(4) 0.00866(5) 0.00657(2) 0 0
K1 K1+ 0.0227(1) 0.0227(1) 0.0156(1) 0.0113(1) 0 0
K2 K1+ 0.0432(3) 0.0432(3) 0.0164(3) 0.0216(2) 0 0
Na1 Na1+ 0.0187(3) 0.0187(3) 0.0172(5) 0.0093(2) 0 0
O1 O2- 0.0694(13) 0.0694(13) 0.0088(6) 0.0347(7) 0 0
O2 O2- 0.0300(4) 0.0189(3) 0.0461(6) 0.0094(3) -.0076(5) -.0152(4)
#End of TTdata_54168-ICSD