
#(C) 2019 by FIZ Karlsruhe - Leibniz Institute for Information Infrastructure.  All rights reserved.
data_54197-ICSD
_database_code_ICSD 54197
_audit_creation_date 2004-04-01
_chemical_name_systematic 'Sodium terbium germanate'
_chemical_formula_structural 'Na Tb (Ge O4)'
_chemical_formula_sum 'Ge1 Na1 O4 Tb1'
_chemical_name_structure_type Olivine-Mg2SiO4
_exptl_crystal_density_diffrn 5.36
_cell_measurement_temperature 297.
_publ_section_title

;
Hydrothermal synthesis and structural chracterization of Na Ln Ge O4 (Ln= Ho,
Er, Tb, Tm, Yb, Lu) family of lanthanide germanides
;
loop_
_citation_id
_citation_journal_full
_citation_year
_citation_journal_volume
_citation_page_first
_citation_page_last
_citation_journal_id_ASTM
primary 'Journal of Chemical Crystallography' 2001 31 281 285 JCCYEV
loop_
_publ_author_name
'Emirdag-Eanes, M.'
'Krawiec, M.'
'Kolis, J.W.'
_cell_length_a 11.496(1)
_cell_length_b 6.5066(6)
_cell_length_c 5.279(2)
_cell_angle_alpha 90.
_cell_angle_beta 90.
_cell_angle_gamma 90.
_cell_volume 394.87
_cell_formula_units_Z 4
_symmetry_space_group_name_H-M 'P n m a'
_symmetry_Int_Tables_number 62
_refine_ls_R_factor_all 0.0305
loop_
_symmetry_equiv_pos_site_id
_symmetry_equiv_pos_as_xyz
1 'x+1/2, y, -z+1/2'
2 'x, -y+1/2, z'
3 '-x+1/2, y+1/2, z+1/2'
4 '-x, -y, -z'
5 '-x+1/2, -y, z+1/2'
6 '-x, y+1/2, -z'
7 'x+1/2, -y+1/2, -z+1/2'
8 'x, y, z'
loop_
_atom_type_symbol
_atom_type_oxidation_number
Tb3+ 3
Ge4+ 4
Na1+ 1
O2- -2
loop_
_atom_site_label
_atom_site_type_symbol
_atom_site_symmetry_multiplicity
_atom_site_Wyckoff_symbol
_atom_site_fract_x
_atom_site_fract_y
_atom_site_fract_z
_atom_site_B_iso_or_equiv
_atom_site_occupancy
_atom_site_attached_hydrogens
Tb1 Tb3+ 4 c 0.27833(2) 0.25 0.49850(4) . 1. 0
Ge1 Ge4+ 4 c 0.59661(4) 0.25 0.44309(10) . 1. 0
Na1 Na1+ 4 b 0.5 0.5 1 . 1. 0
O1 O2- 4 c 0.6088(3) 0.25 0.7677(6) . 1. 0
O2 O2- 8 d 0.6722(2) 0.4560(4) 0.2919(4) . 1. 0
O3 O2- 4 c 0.4559(3) 0.25 0.3237(6) . 1. 0
loop_
_atom_site_aniso_label
_atom_site_aniso_type_symbol
_atom_site_aniso_U_11
_atom_site_aniso_U_22
_atom_site_aniso_U_33
_atom_site_aniso_U_12
_atom_site_aniso_U_13
_atom_site_aniso_U_23
Tb1 Tb3+ 0.0033(2) 0.0061(2) 0.0048(2) 0 -0.00030(7) 0
Ge1 Ge4+ 0.0040(3) 0.0075(3) 0.0051(3) 0 0.0001(2) 0
Na1 Na1+ 0.0133(10) 0.0128(10) 0.0089(10) 0.0047(9) 0.0011(7) 0.0022(7)
O1 O2- 0.007(2) 0.015(2) 0.004(2) 0 -0.0019(13) 0
O2 O2- 0.0079(11) 0.0077(12) 0.0072(11) -0.0019(9) 0.0021(8) -0.0009(9)
O3 O2- 0.005(2) 0.014(2) 0.007(2) 0 -0.0005(13) 0
#End of TTdata_54197-ICSD