
#(C) 2019 by FIZ Karlsruhe - Leibniz Institute for Information Infrastructure.  All rights reserved.
data_55003-ICSD
_database_code_ICSD 55003
_audit_creation_date 2005-10-01
_chemical_name_systematic 'Dicesium sodium gallium fluoride - Cr(III)-doped'
_chemical_formula_structural 'Cs2 Na Ga F6'
_chemical_formula_sum 'Cs2 F6 Ga1 Na1'
_chemical_name_structure_type Ba2NiTeO6
_chemical_name_mineral Elpasolite
_exptl_crystal_density_diffrn 4.61
_publ_section_title

;
Structure determination and a vibrational study for the hexagonal elpasolite
Cs2 Na Ga F6 : Cr(3+)
;
loop_
_citation_id
_citation_journal_full
_citation_year
_citation_journal_volume
_citation_page_first
_citation_page_last
_citation_journal_id_ASTM
primary 'Journal of Physics: Condensed Matter' 2002 14 12383 12389 JCOMEL
loop_
_publ_author_name
'Bordallo, H.N.'
'Wang, X.'
'Hanif, K.M.'
'Strouse, G.F.'
'da Fonseca, R.J.M.'
'Sosman, L.P.'
'Dias Tavares, A.jr.'
_cell_length_a 6.244(1)
_cell_length_b 6.244(1)
_cell_length_c 30.270(4)
_cell_angle_alpha 90.
_cell_angle_beta 90.
_cell_angle_gamma 120.
_cell_volume 1022.04
_cell_formula_units_Z 6
_symmetry_space_group_name_H-M 'R -3 m H'
_symmetry_Int_Tables_number 166
_refine_ls_R_factor_all 0.0183
loop_
_symmetry_equiv_pos_site_id
_symmetry_equiv_pos_as_xyz
1 'x-y, -y, -z'
2 '-x, -x+y, -z'
3 'y, x, -z'
4 'x-y, x, -z'
5 'y, -x+y, -z'
6 '-x, -y, -z'
7 '-x+y, y, z'
8 'x, x-y, z'
9 '-y, -x, z'
10 '-x+y, -x, z'
11 '-y, x-y, z'
12 'x, y, z'
13 'x-y+2/3, -y+1/3, -z+1/3'
14 '-x+2/3, -x+y+1/3, -z+1/3'
15 'y+2/3, x+1/3, -z+1/3'
16 'x-y+2/3, x+1/3, -z+1/3'
17 'y+2/3, -x+y+1/3, -z+1/3'
18 '-x+2/3, -y+1/3, -z+1/3'
19 '-x+y+2/3, y+1/3, z+1/3'
20 'x+2/3, x-y+1/3, z+1/3'
21 '-y+2/3, -x+1/3, z+1/3'
22 '-x+y+2/3, -x+1/3, z+1/3'
23 '-y+2/3, x-y+1/3, z+1/3'
24 'x+2/3, y+1/3, z+1/3'
25 'x-y+1/3, -y+2/3, -z+2/3'
26 '-x+1/3, -x+y+2/3, -z+2/3'
27 'y+1/3, x+2/3, -z+2/3'
28 'x-y+1/3, x+2/3, -z+2/3'
29 'y+1/3, -x+y+2/3, -z+2/3'
30 '-x+1/3, -y+2/3, -z+2/3'
31 '-x+y+1/3, y+2/3, z+2/3'
32 'x+1/3, x-y+2/3, z+2/3'
33 '-y+1/3, -x+2/3, z+2/3'
34 '-x+y+1/3, -x+2/3, z+2/3'
35 '-y+1/3, x-y+2/3, z+2/3'
36 'x+1/3, y+2/3, z+2/3'
loop_
_atom_type_symbol
_atom_type_oxidation_number
Ga3+ 3
Na1+ 1
F1- -1
Cs1+ 1
loop_
_atom_site_label
_atom_site_type_symbol
_atom_site_symmetry_multiplicity
_atom_site_Wyckoff_symbol
_atom_site_fract_x
_atom_site_fract_y
_atom_site_fract_z
_atom_site_B_iso_or_equiv
_atom_site_occupancy
_atom_site_attached_hydrogens
Ga1 Ga3+ 3 a 0 0 0 0.0113 1. 0
Ga2 Ga3+ 3 b 0 0 0.5 0.0093 1. 0
Na1 Na1+ 6 c 0 0 0.09768(10) 0.0159 1. 0
F1 F1- 18 h 0.1408(2) -0.1408(2) 0.96239(8) 0.017 1. 0
F2 F1- 18 h 0.1888(2) -0.1888(2) 0.13085(8) 0.0199 1. 0
Cs1 Cs1+ 6 c 0 0 0.780875(16) 0.0181 1. 0
Cs2 Cs1+ 6 c 0 0 0.628079(15) 0.0162 1. 0
#End of TTdata_55003-ICSD