
#(C) 2019 by FIZ Karlsruhe - Leibniz Institute for Information Infrastructure.  All rights reserved.
data_55686-ICSD
_database_code_ICSD 55686
_audit_creation_date 2005-10-01
_audit_update_record 2012-08-01
_chemical_name_systematic 'Sodium vanadium oxide (1.29/2/5) - eta, LT'
_chemical_formula_structural 'Na1.286 V2 O5'
_chemical_formula_sum 'Na1.286 O5 V2'
_exptl_crystal_density_diffrn 3.29
_cell_measurement_temperature 15.
_publ_section_title

;
On the low-temperature structure and magnetic behaviour of eta-(Na1.286 V2 O5)
;
loop_
_citation_id
_citation_journal_full
_citation_year
_citation_journal_volume
_citation_page_first
_citation_page_last
_citation_journal_id_ASTM
primary 'Journal of Physics: Condensed Matter' 2004 16 S629 S634 JCOMEL
loop_
_publ_author_name
'Duc, F.'
'Millet, P.'
'Chabre, F.'
'Ghorayeb, A.M.'
'Stepanov, A.'
_cell_length_a 15.2006(8)
_cell_length_b 10.0002(6)
_cell_length_c 20.776(1)
_cell_angle_alpha 90.
_cell_angle_beta 109.128(6)
_cell_angle_gamma 90.
_cell_volume 2983.78
_cell_formula_units_Z 28
_symmetry_space_group_name_H-M 'P 1 2/c 1'
_symmetry_Int_Tables_number 13
_refine_ls_R_factor_all 0.0387
loop_
_symmetry_equiv_pos_site_id
_symmetry_equiv_pos_as_xyz
1 'x, -y, z+1/2'
2 '-x, -y, -z'
3 '-x, y, -z+1/2'
4 'x, y, z'
loop_
_atom_type_symbol
_atom_type_oxidation_number
V4+ 4.357
Na1+ 1
O2- -2
loop_
_atom_site_label
_atom_site_type_symbol
_atom_site_symmetry_multiplicity
_atom_site_Wyckoff_symbol
_atom_site_fract_x
_atom_site_fract_y
_atom_site_fract_z
_atom_site_B_iso_or_equiv
_atom_site_occupancy
_atom_site_attached_hydrogens
V1 V4+ 4 g 0.1447 0.20961 0.81807 . 1. 0
V2 V4+ 4 g 0.1447 0.70961 0.81807 . 1. 0
V3 V4+ 4 g 0.40299 0.17821 0.76864 . 1. 0
V4 V4+ 4 g 0.40299 0.67821 0.76864 . 1. 0
V5 V4+ 4 g 0.48782 0.20035 0.56437 . 1. 0
V6 V4+ 4 g 0.48782 0.70035 0.56437 . 1. 0
V7 V4+ 4 g 0.06343 0.2065 0.65012 . 1. 0
V8 V4+ 4 g 0.06343 0.7065 0.65012 . 1. 0
V9 V4+ 4 g 0.69879 0.1994 0.52283 . 1. 0
V10 V4+ 4 g 0.69879 0.6994 0.52283 . 1. 0
V11 V4+ 4 g 0.27552 0.20025 0.60617 . 1. 0
V12 V4+ 4 g 0.27552 0.70025 0.60617 . 1. 0
V13 V4+ 4 g 0.90614(4) 0.68433(5) 0.47687(3) 0.00468(17) 1. 0
V14 V4+ 4 g 0.90803(4) 0.19647(5) 0.47869(3) 0.00498(17) 1. 0
Na1 Na1+ 2 e 0 0.45095(17) 0.75 0.0070(6) 1. 0
Na2 Na1+ 2 e 0 0.94747(17) 0.75 0.0075(6) 1. 0
Na3 Na1+ 4 g 0.21797 0.9415 0.70038 . 1. 0
Na4 Na1+ 4 g 0.21797 0.4415 0.70038 . 1. 0
Na5 Na1+ 4 g 0.43315 0.9367 0.65425 . 1. 0
Na6 Na1+ 4 g 0.43315 0.4367 0.65425 . 1. 0
Na7 Na1+ 4 g 0.65359 0.9373 0.61796 . 1. 0
Na8 Na1+ 4 g 0.65359 0.4373 0.61796 . 1. 0
Na9 Na1+ 4 g 0.86891(10) 0.43022(13) 0.57919(7) 0.0089(4) 1. 0
Na10 Na1+ 4 g 0.87123(9) 0.92446(13) 0.57775(7) 0.0075(4) 1. 0
O1 O2- 4 g 0.1413 0.0459 0.82015 . 1. 0
O2 O2- 4 g 0.1413 0.5459 0.82015 . 1. 0
O3 O2- 4 g 0.3359 0.0607 0.7808 . 1. 0
O4 O2- 4 g 0.3359 0.5607 0.7808 . 1. 0
O5 O2- 4 g 0.4988 0.0422 0.5792 . 1. 0
O6 O2- 4 g 0.4988 0.5422 0.5792 . 1. 0
O7 O2- 4 g 0.062 0.0459 0.65514 . 1. 0
O8 O2- 4 g 0.062 0.5459 0.65514 . 1. 0
O9 O2- 4 g 0.7077 0.0409 0.53421 . 1. 0
O10 O2- 4 g 0.7077 0.5409 0.53421 . 1. 0
O11 O2- 4 g 0.2862 0.0424 0.62073 . 1. 0
O12 O2- 4 g 0.2862 0.5424 0.62073 . 1. 0
O13 O2- 4 g 0.90013(15) 0.5261(12) 0.48761(11) 0.0063(4) 1. 0
O14 O2- 4 g 0.90465(16) 0.0387(2) 0.48997(12) 0.0099(5) 1. 0
O15 O2- 2 f 0.5 0.0955 0.75 . 1. 0
O16 O2- 2 f 0.5 0.5955 0.75 . 1. 0
O17 O2- 4 g 0.764 0.7712 0.61492 . 1. 0
O18 O2- 4 g 0.764 0.2712 0.61492 . 1. 0
O19 O2- 4 g 0.5534 0.7743 0.65941 . 1. 0
O20 O2- 4 g 0.5534 0.2743 0.65941 . 1. 0
O21 O2- 4 g 0.347 0.7743 0.699 . 1. 0
O22 O2- 4 g 0.347 0.2743 0.699 . 1. 0
O23 O2- 4 g 0.1453 0.2662 0.73845 . 1. 0
O24 O2- 4 g 0.1453 0.7662 0.73845 . 1. 0
O25 O2- 4 g 0.0429 0.2711 0.82765 . 1. 0
O26 O2- 4 g 0.0429 0.7711 0.82765 . 1. 0
O27 O2- 4 g 0.16219(15) 0.2675(2) 0.61703(11) 0.0064(4) 1. 0
O28 O2- 4 g 0.16230(15) 0.7665(2) 0.61617(11) 0.0062(4) 1. 0
O29 O2- 4 g 0.3728 0.2665 0.5738 . 1. 0
O30 O2- 4 g 0.3728 0.7665 0.5738 . 1. 0
O31 O2- 4 g 0.5841 0.7694 0.53233 . 1. 0
O32 O2- 4 g 0.5841 0.2694 0.53233 . 1. 0
O33 O2- 4 g 0.79738(15) 0.7642(2) 0.49095(11) 0.0059(4) 1. 0
O34 O2- 4 g 0.79908(15) 0.2639(2) 0.49044(11) 0.0056(4) 1. 0
O35 O2- 4 g 0.01173(14) 0.2649(2) 0.94324(11) 0.0067(4) 1. 0
O36 O2- 4 g 0.00509(14) 0.7666(2) 0.94216(11) 0.0062(4) 1. 0
#End of TTdata_55686-ICSD