
#(C) 2018 by FIZ Karlsruhe - Leibniz Institute for Information Infrastructure.  All rights reserved.
data_55750-ICSD
_database_code_ICSD 55750
_audit_creation_date 2005-10-01
_chemical_name_systematic 'Lithium nickel manganese oxide (0.5/0.5/0.5/2)'
_chemical_formula_structural 'Li0.5 Ni0.5 Mn0.5 O2'
_chemical_formula_sum 'Li0.5 Mn0.5 Ni0.5 O2'
_chemical_name_structure_type Na.5FeO2
_exptl_crystal_density_diffrn 4.52
_publ_section_title

;
Structural determination of Li1-y Ni0.5 Mn0.5 O2 (y = 0.5) using a combination
of Rietveld analysis and the maximum entropy method
;
loop_
_citation_id
_citation_journal_full
_citation_year
_citation_journal_volume
_citation_page_first
_citation_page_last
_citation_journal_id_ASTM
primary 'Journal of Materials Chemistry' 2004 14 40 42 JMACEP
loop_
_publ_author_name
'Kobayashi, H.'
'Arachi, Y.'
'Kageyama, H.'
'Tatsumi, K.'
_cell_length_a 4.9342(3)
_cell_length_b 2.85220(14)
_cell_length_c 5.09011(15)
_cell_angle_alpha 90.
_cell_angle_beta 108.817(5)
_cell_angle_gamma 90.
_cell_volume 67.81
_cell_formula_units_Z 2
_symmetry_space_group_name_H-M 'C 1 2/m 1'
_symmetry_Int_Tables_number 12
_refine_ls_R_factor_all 0.0122
loop_
_symmetry_equiv_pos_site_id
_symmetry_equiv_pos_as_xyz
1 '-x, y, -z'
2 '-x, -y, -z'
3 'x, -y, z'
4 'x, y, z'
5 '-x+1/2, y+1/2, -z'
6 '-x+1/2, -y+1/2, -z'
7 'x+1/2, -y+1/2, z'
8 'x+1/2, y+1/2, z'
loop_
_atom_type_symbol
_atom_type_oxidation_number
Ni3+ 3.5
Mn3+ 3.5
Li1+ 1
Ni3+ 3.5
O2- -2
loop_
_atom_site_label
_atom_site_type_symbol
_atom_site_symmetry_multiplicity
_atom_site_Wyckoff_symbol
_atom_site_fract_x
_atom_site_fract_y
_atom_site_fract_z
_atom_site_B_iso_or_equiv
_atom_site_occupancy
_atom_site_attached_hydrogens
Ni1 Ni3+ 2 a 0 0 0 0.374(7) 0.0815(2) 0
Ni2 Ni3+ 2 d 0 0.5 0.5 0.374(7) 0.4069 0
Mn1 Mn3+ 2 d 0 0.5 0.5 0.374(7) 0.5 0
Li1 Li1+ 4 i 0.378(12) 0 0.1280(16) 0.374(7) 0.25 0
Ni3 Ni3+ 4 i 0.378(12) 0 0.1280(16) 0.374(7) 0.0058(2) 0
O1 O2- 4 i 0.2386(15) 0 0.71472(19) 0.789(18) 1. 0
#End of TTdata_55750-ICSD