
#(C) 2019 by FIZ Karlsruhe - Leibniz Institute for Information Infrastructure.  All rights reserved.
data_56298-ICSD
_database_code_ICSD 56298
_audit_creation_date 2003-04-01
_audit_update_record 2008-02-01
_chemical_name_systematic
'Heptasodium heptairon hexakis(phosphate(V)) trifluoride'
_chemical_formula_structural 'Na7 Fe7 (P O4)6 F3'
_chemical_formula_sum 'F3 Fe7 Na7 O24 P6'
_exptl_crystal_density_diffrn 3.62
_publ_section_title

;
Crystal structure of Na7 Fe7 (P O4)6 F3, its structural homology with Na Fe P
O4 and homeotypic relation to chlorotile-mixite mineral group
;
loop_
_citation_id
_citation_journal_full
_citation_year
_citation_journal_volume
_citation_page_first
_citation_page_last
_citation_journal_id_ASTM
primary 'Vestnik Moskovskogo Universiteta, Seriya 4: Geologiya' 1990 1990 92 98
VMUGAR
loop_
_publ_author_name
'Yakubovich, O.V.'
'Malinovskii, Yu.A.'
'Mel'nikov, O.K. (Melnikov, O.K.)'
_cell_length_a 13.623(4)
_cell_length_b 13.623
_cell_length_c 6.732(1)
_cell_angle_alpha 90.
_cell_angle_beta 90.
_cell_angle_gamma 120.
_cell_volume 1081.98
_cell_formula_units_Z 2
_symmetry_space_group_name_H-M 'P 63'
_symmetry_Int_Tables_number 173
_refine_ls_R_factor_all 0.0477
loop_
_symmetry_equiv_pos_site_id
_symmetry_equiv_pos_as_xyz
1 'x-y, x, z+1/2'
2 'y, -x+y, z+1/2'
3 '-x, -y, z+1/2'
4 '-x+y, -x, z'
5 '-y, x-y, z'
6 'x, y, z'
loop_
_atom_type_symbol
_atom_type_oxidation_number
Fe2+ 2
Na1+ 1
Fe2+ 2
Na1+ 1
P5+ 5
Na1+ 1
O2- -2
F1- -1
loop_
_atom_site_label
_atom_site_type_symbol
_atom_site_symmetry_multiplicity
_atom_site_Wyckoff_symbol
_atom_site_fract_x
_atom_site_fract_y
_atom_site_fract_z
_atom_site_B_iso_or_equiv
_atom_site_occupancy
_atom_site_attached_hydrogens
Fe1 Fe2+ 6 c 0.2928(2) 0.4189(2) 0.0111(5) 0.66(5) 1. 0
Fe2 Fe2+ 6 c 0.2947(2) 0.4212(2) 0.5206(5) 1.47(7) 1. 0
Fe3 Fe2+ 2 a 0 0 0 1.17(7) 0.5 0
Na3 Na1+ 2 a 0 0 0 1.17(7) 0.5 0
Fe4 Fe2+ 2 b 0.6667 0.3333 -.0007(1) 1.9(1) 0.5 0
Na4 Na1+ 2 b 0.6667 0.3333 -.0007(1) 1.9(1) 0.5 0
P1 P5+ 6 c 0.0657(3) 0.2514(3) 0.270(1) 0.91(9) 1. 0
P2 P5+ 6 c 0.6238(3) 0.1142(3) 0.260(1) 0.95(9) 1. 0
Na1 Na1+ 6 c 0.2452(5) 0.1861(5) 0.257(2) 1.5(2) 1. 0
Na2 Na1+ 6 c 0.1133(5) 0.5035(5) 0.271(2) 2.7(2) 1. 0
O1 O2- 6 c 0.1383(9) 0.3019(9) 0.443(2) 1.7(3) 1. 0
O2 O2- 6 c 0.0021(8) 0.1219(9) 0.226(2) 1.3(3) 1. 0
O3 O2- 6 c 0.1371(8) 0.5700(9) 0.573(1) 0.5(1) 1. 0
O4 O2- 6 c 0.1370(9) 0.2801(9) 0.078(2) 1.4(4) 1. 0
O5 O2- 6 c 0.3816(7) 0.3806(8) 0.247(2) 0.7(3) 1. 0
O6 O2- 6 c 0.5617(8) 0.1155(7) 0.454(2) 1.1(3) 1. 0
O7 O2- 6 c 0.4644(7) 0.2514(7) 0.242(2) 0.3(3) 1. 0
O8 O2- 6 c 0.3178(8) 0.0161(8) 0.264(3) 1.2(3) 1. 0
F1 F1- 6 c 0.2847(7) 0.5171(7) 0.261(2) 1.5(3) 1. 0
#End of TTdata_56298-ICSD