
#(C) 2019 by FIZ Karlsruhe - Leibniz Institute for Information Infrastructure.  All rights reserved.
data_56502-ICSD
_database_code_ICSD 56502
_audit_creation_date 2003-04-01
_chemical_name_systematic
'Octasodium tecto-hexagallohexasilicate dinitrate(III)'
_chemical_formula_structural 'Na8 (Ga Si O4)6 (N O2)2'
_chemical_formula_sum 'Ga6 N2 Na8 O28 Si6'
_chemical_name_structure_type Sodalite-frame
_chemical_name_mineral 'Gallium-Sodalite (nitrate(III)-bearing)'
_exptl_crystal_density_diffrn 2.84
_cell_measurement_temperature 295.
_publ_section_title
'Structure and spectroscopic properties of Na8 (Ga Si O4)6 X2 with X=Cl,Br,NO2'
loop_
_citation_id
_citation_journal_full
_citation_year
_citation_journal_volume
_citation_page_first
_citation_page_last
_citation_journal_id_ASTM
primary 'Zeitschrift fuer Kristallographie, Supplement Issue' 1999 16 31 31
ZKSUP2
loop_
_publ_author_name
'Gesing, T.M.'
'Homeyer, J.'
_cell_length_a 8.99564(7)
_cell_length_b 8.99564
_cell_length_c 8.99564
_cell_angle_alpha 90.
_cell_angle_beta 90.
_cell_angle_gamma 90.
_cell_volume 727.94
_cell_formula_units_Z 1
_symmetry_space_group_name_H-M 'P -4 3 n'
_symmetry_Int_Tables_number 218
_refine_ls_R_factor_all 0.083
loop_
_symmetry_equiv_pos_site_id
_symmetry_equiv_pos_as_xyz
1 '-z+1/2, y+1/2, -x+1/2'
2 '-y+1/2, x+1/2, -z+1/2'
3 '-x+1/2, z+1/2, -y+1/2'
4 'z+1/2, -y+1/2, -x+1/2'
5 'y+1/2, -x+1/2, -z+1/2'
6 'x+1/2, -z+1/2, -y+1/2'
7 '-z+1/2, -y+1/2, x+1/2'
8 '-y+1/2, -x+1/2, z+1/2'
9 '-x+1/2, -z+1/2, y+1/2'
10 'z+1/2, y+1/2, x+1/2'
11 'y+1/2, x+1/2, z+1/2'
12 'x+1/2, z+1/2, y+1/2'
13 '-z, -x, y'
14 '-y, -z, x'
15 '-x, -y, z'
16 'z, -x, -y'
17 'y, -z, -x'
18 'x, -y, -z'
19 '-z, x, -y'
20 '-y, z, -x'
21 '-x, y, -z'
22 'z, x, y'
23 'y, z, x'
24 'x, y, z'
loop_
_atom_type_symbol
_atom_type_oxidation_number
Ga3+ 3
Si4+ 4
O2- -2
Na1+ 1
N3+ 3
O2- -2
loop_
_atom_site_label
_atom_site_type_symbol
_atom_site_symmetry_multiplicity
_atom_site_Wyckoff_symbol
_atom_site_fract_x
_atom_site_fract_y
_atom_site_fract_z
_atom_site_B_iso_or_equiv
_atom_site_occupancy
_atom_site_attached_hydrogens
Ga1 Ga3+ 6 d 0.25 0 0.5 0.9(2) 1. 0
Si1 Si4+ 6 c 0.25 0.5 0 0.5(4) 1. 0
O1 O2- 24 i 0.1357(18) 0.1541(20) 0.4297(23) 1.1(6) 1. 0
Na1 Na1+ 8 e 0.1794(16) 0.1794 0.1794 2.0(6) 1. 0
N1 N3+ 8 e 0.0433(23) 0.0433 0.0433 1.4(26) 0.25 0
O2 O2- 24 i 0.0567(64) 0.9241(68) 0.0944(60) 1.4 0.167 0
#End of TTdata_56502-ICSD