
#(C) 2019 by FIZ Karlsruhe - Leibniz Institute for Information Infrastructure.  All rights reserved.
data_56504-ICSD
_database_code_ICSD 56504
_audit_creation_date 2003-04-01
_audit_update_record 2005-10-01
_chemical_name_systematic
'Potassium sodium lambda-tris(oxalato)ferrate(III) (2.5/0.5/1)'
_chemical_formula_structural 'K2.5 Na0.5 (Fe (C2 O4)3)'
_chemical_formula_sum 'C6 Fe1 K2.5 Na0.5 O12'
_exptl_crystal_density_diffrn 2.3
_publ_section_title
'Crystal structure of potassium sodium lambda-tris(oxalato)ferrate(III)'
loop_
_citation_id
_citation_journal_full
_citation_year
_citation_journal_volume
_citation_page_first
_citation_page_last
_citation_journal_id_ASTM
primary 'Zeitschrift fuer Kristallographie' 1997 212 57 57 ZEKRDZ
loop_
_publ_author_name
'Wartchow, R.'
_cell_length_a 13.536(3)
_cell_length_b 13.536
_cell_length_c 13.536
_cell_angle_alpha 90.
_cell_angle_beta 90.
_cell_angle_gamma 90.
_cell_volume 2480.11
_cell_formula_units_Z 8
_symmetry_space_group_name_H-M 'P 43 3 2'
_symmetry_Int_Tables_number 212
_refine_ls_R_factor_all 0.028
loop_
_symmetry_equiv_pos_site_id
_symmetry_equiv_pos_as_xyz
1 'z+1/4, y+3/4, -x+3/4'
2 '-z+3/4, y+1/4, x+3/4'
3 'y+1/4, x+3/4, -z+3/4'
4 '-y+3/4, x+1/4, z+3/4'
5 'x+1/4, z+3/4, -y+3/4'
6 '-x+3/4, z+1/4, y+3/4'
7 'z+3/4, -y+3/4, x+1/4'
8 '-z+1/4, -y+1/4, -x+1/4'
9 'y+3/4, -x+3/4, z+1/4'
10 '-y+1/4, -x+1/4, -z+1/4'
11 'x+3/4, -z+3/4, y+1/4'
12 '-x+1/4, -z+1/4, -y+1/4'
13 '-y+1/2, -z, x+1/2'
14 '-y, z+1/2, -x+1/2'
15 'y+1/2, -z+1/2, -x'
16 'y, z, x'
17 'z+1/2, -x+1/2, -y'
18 '-z+1/2, -x, y+1/2'
19 '-z, x+1/2, -y+1/2'
20 'z, x, y'
21 '-x+1/2, -y, z+1/2'
22 '-x, y+1/2, -z+1/2'
23 'x+1/2, -y+1/2, -z'
24 'x, y, z'
loop_
_atom_type_symbol
_atom_type_oxidation_number
Fe3+ 3
K1+ 1
Na1+ 1
C0+ 0
O1- -1
O0+ 0
O1- -1
O0+ 0
loop_
_atom_site_label
_atom_site_type_symbol
_atom_site_symmetry_multiplicity
_atom_site_Wyckoff_symbol
_atom_site_fract_x
_atom_site_fract_y
_atom_site_fract_z
_atom_site_B_iso_or_equiv
_atom_site_occupancy
_atom_site_attached_hydrogens
Fe1 Fe3+ 8 c 0.98907(3) 0.98907 0.98907 . 1. 0
K1 K1+ 8 c 0.82915(8) 0.82915 0.82915 . 1. 0
K2 K1+ 12 d 0.875 0.75693(6) 0.50693 . 1. 0
Na1 Na1+ 4 b 0.625 0.625 0.625 . 1. 0
C1 C0+ 24 e 0.7936(3) 0.0507(3) 0.0200(3) . 1. 0
C2 C0+ 24 e 0.8588(3) 0.1376(3) 0.0579(3) . 1. 0
O1 O1- 24 e 0.8424(2) 0.9743(2) 0.9960(2) . 1. 0
O2 O0+ 24 e 0.7044(2) 0.0612(2) 0.0143(2) . 1. 0
O3 O1- 24 e 0.9524(2) 0.1224(2) 0.0459(2) . 1. 0
O4 O0+ 24 e 0.8206(2) 0.2093(2) 0.0955(2) . 1. 0
loop_
_atom_site_aniso_label
_atom_site_aniso_type_symbol
_atom_site_aniso_U_11
_atom_site_aniso_U_22
_atom_site_aniso_U_33
_atom_site_aniso_U_12
_atom_site_aniso_U_13
_atom_site_aniso_U_23
Fe1 Fe3+ 0.0234(2) 0.0234 0.0234 -0.0000(2) -0. -0.
K1 K1+ 0.0489(5) 0.0489 0.048 0.0135(5) 0.0135 0.0135
K2 K1+ 0.0371(7) 0.0310(4) 0.031 0.0061(4) -0.0061 -0.0006(5)
Na1 Na1+ 0.0249(7) 0.0249 0.0249 0.0015(8) 0.0015 0.0015
C1 C0+ 0.025(2) 0.024(2) 0.027(2) -0.003(2) -0.002(2) 0.004(2)
C2 C0+ 0.028(2) 0.023(2) 0.022(2) -0.001(2) -0.003(2) 0.003(2)
O1 O1- 0.024(1) 0.022(1) 0.043(2) -0.003(1) 0.003(1) -0.005(1)
O2 O0+ 0.023(2) 0.035(2) 0.056(2) -0.002(1) -0.004(1) 0.001(1)
O3 O1- 0.027(2) 0.024(1) 0.035(2) -0.002(1) -0.002(1) -0.003(1)
O4 O0+ 0.038(2) 0.025(1) 0.041(2) 0.004(1) 0.004(1) -0.006(1)
#End of TTdata_56504-ICSD