
#(C) 2019 by FIZ Karlsruhe - Leibniz Institute for Information Infrastructure.  All rights reserved.
data_56657-ICSD
_database_code_ICSD 56657
_audit_creation_date 2003-10-01
_audit_update_record 2012-08-01
_chemical_name_systematic 'Disodium tecto-dialumotrisilicate dihydrate'
_chemical_formula_structural 'Na2 (Al2 Si3 O10) (H2 O)2'
_chemical_formula_sum 'H4 Al2 Na2 O12 Si3'
_chemical_name_structure_type Natrolite-frame
_chemical_name_mineral Natrolite
_exptl_crystal_density_diffrn 2.25
_cell_measurement_temperature 298.
_publ_section_title

;
Electrostatic properties in zeolite-type materials from high- resolution X-ray
diffraction: The case of natrolite
;
loop_
_citation_id
_citation_journal_full
_citation_year
_citation_journal_volume
_citation_page_first
_citation_page_last
_citation_journal_id_ASTM
primary 'Physical Review B: Condensed Matter and Materials Physics' 1996 53 5231
5239 PRBMDO
loop_
_publ_author_name
'Ghermani, N.E.'
'Lecomte, C.'
'Dysausoy, Y.'
_cell_length_a 18.288(2)
_cell_length_b 18.631(2)
_cell_length_c 6.583(1)
_cell_angle_alpha 90.
_cell_angle_beta 90.
_cell_angle_gamma 90.
_cell_volume 2242.98
_cell_formula_units_Z 8
_symmetry_space_group_name_H-M 'F d d 2'
_symmetry_Int_Tables_number 43
_refine_ls_R_factor_all 0.0106
loop_
_symmetry_equiv_pos_site_id
_symmetry_equiv_pos_as_xyz
1 'x+1/4, -y+1/4, z+1/4'
2 '-x+1/4, y+1/4, z+1/4'
3 '-x, -y, z'
4 'x, y, z'
5 'x+1/4, -y+3/4, z+3/4'
6 '-x+1/4, y+3/4, z+3/4'
7 '-x, -y+1/2, z+1/2'
8 'x, y+1/2, z+1/2'
9 'x+3/4, -y+1/4, z+3/4'
10 '-x+3/4, y+1/4, z+3/4'
11 '-x+1/2, -y, z+1/2'
12 'x+1/2, y, z+1/2'
13 'x+3/4, -y+3/4, z+1/4'
14 '-x+3/4, y+3/4, z+1/4'
15 '-x+1/2, -y+1/2, z'
16 'x+1/2, y+1/2, z'
loop_
_atom_type_symbol
_atom_type_oxidation_number
Si4+ 4
Al3+ 3
O2- -2
Na1+ 1
O2- -2
H1+ 1
loop_
_atom_site_label
_atom_site_type_symbol
_atom_site_symmetry_multiplicity
_atom_site_Wyckoff_symbol
_atom_site_fract_x
_atom_site_fract_y
_atom_site_fract_z
_atom_site_B_iso_or_equiv
_atom_site_occupancy
_atom_site_attached_hydrogens
Si1 Si4+ 8 a 0 0 0 . 1. 0
Si2 Si4+ 16 b 0.15328(1) 0.21132(1) 0.62294(5) . 1. 0
Al1 Al3+ 16 b 0.03743(1) 0.09372(1) 0.61540(5) . 1. 0
O1 O2- 16 b 0.02272(4) 0.06849(4) 0.86612(13) . 1. 0
O2 O2- 16 b 0.07016(3) 0.18173(3) 0.61007(11) . 1. 0
O3 O2- 16 b 0.09846(3) 0.03516(3) 0.50054(12) . 1. 0
O4 O2- 16 b 0.20648(4) 0.15263(4) 0.72605(13) . 1. 0
O5 O2- 16 b 0.18019(5) 0.22730(6) 0.39016(13) . 1. 0
Na1 Na1+ 16 b 0.22044(2) 0.03073(2) 0.61761(8) . 1. 0
O6 O2- 16 b 0.05655(9) 0.18944(8) 0.11141(27) . 1. 0
H1 H1+ 16 b 0.05175 0.14576 0.033 0.07942 1. 0
H2 H1+ 16 b 0.10293 0.1938 0.18315 0.08003 1. 0
loop_
_atom_site_aniso_label
_atom_site_aniso_type_symbol
_atom_site_aniso_U_11
_atom_site_aniso_U_22
_atom_site_aniso_U_33
_atom_site_aniso_U_12
_atom_site_aniso_U_13
_atom_site_aniso_U_23
Si1 Si4+ 0.00800(8) 0.00782(8) 0.00428(7) 0 0.00000(73) 0
Si2 Si4+ 0.00519(5) 0.00636(5) 0.00631(5) -0.00045(5) -0.00029(5) -0.00063(4)
Al1 Al3+ 0.00661(6) 0.00524(5) 0.00626(6) -0.00037(6) -0.00038(6) -0.00004(5)
O1 O2- 0.02098(25) 0.01147(19) 0.00943(18) 0.00354(19) 0.00177(22) -0.00241(18)
O2 O2- 0.00596(13) 0.00693(13) 0.01177(17) -0.00023(15) -0.00074(15)
-0.00175(11)
O3 O2- 0.01161(18) 0.00943(17) 0.01644(21) -0.00602(17) 0.00039(17) 0.00218(14)
O4 O2- 0.00957(20) 0.01108(21) 0.01649(26) 0.00069(19) -0.00529(19) 0.00214(18)
O5 O2- 0.01212(24) 0.02178(30) 0.00953(25) 0.00234(23) 0.00358(20) -0.00285(23)
Na1 Na1+ 0.01594(12) 0.01635(12) 0.01847(14) -0.00175(13) -0.00306(13)
-0.00160(10)
O6 O2- 0.02345(43) 0.02249(44) 0.01902(42) -0.00082(44) -0.00092(44) 0.00239(39)
#End of TTdata_56657-ICSD