
#(C) 2019 by FIZ Karlsruhe - Leibniz Institute for Information Infrastructure.  All rights reserved.
data_56889-ICSD
_database_code_ICSD 56889
_audit_creation_date 2003-10-01
_chemical_name_systematic 'Sodium strontium barium phosphate(V) *'
_chemical_formula_structural 'Na (Sr0.52 Ba0.48) (Sr0.38 Na0.62)2 (P O4)1.92'
_chemical_formula_sum 'Ba0.48 Na2.24 O7.68 P1.92 Sr1.28'
_chemical_name_structure_type K3Na(SO4)2
_chemical_name_mineral Olgite
_exptl_crystal_density_diffrn 3.62
_publ_section_title

;
The crystal structure of olgite Na (Sr0.52 Ba0.48) (Sr0.58 Na0.42) (Na0.81
Sr0.19) (P O3.40) (P0.76 O3.88)
;
loop_
_citation_id
_citation_journal_full
_citation_year
_citation_journal_volume
_citation_page_first
_citation_page_last
_citation_journal_id_ASTM
primary Kristallografiya 1984 29 1079 1083 KRISAJ
loop_
_publ_author_name
'Sokolova, E.V.'
'Egorov Tismenko, Yu.K.'
'Yamnova, N.A.'
'Simonov, M.A.'
_cell_length_a 5.565(2)
_cell_length_b 5.565(2)
_cell_length_c 7.050(3)
_cell_angle_alpha 90.
_cell_angle_beta 90.
_cell_angle_gamma 120.
_cell_volume 189.08
_cell_formula_units_Z 1
_symmetry_space_group_name_H-M 'P -3 m 1'
_symmetry_Int_Tables_number 164
loop_
_symmetry_equiv_pos_site_id
_symmetry_equiv_pos_as_xyz
1 'x-y, -y, -z'
2 '-x, -x+y, -z'
3 'y, x, -z'
4 'x-y, x, -z'
5 'y, -x+y, -z'
6 '-x, -y, -z'
7 '-x+y, y, z'
8 'x, x-y, z'
9 '-y, -x, z'
10 '-x+y, -x, z'
11 '-y, x-y, z'
12 'x, y, z'
loop_
_atom_type_symbol
_atom_type_oxidation_number
Sr2+ 2
Ba2+ 2
Sr2+ 2
Na1+ 1
P5+ 5
O2- -2
loop_
_atom_site_label
_atom_site_type_symbol
_atom_site_symmetry_multiplicity
_atom_site_Wyckoff_symbol
_atom_site_fract_x
_atom_site_fract_y
_atom_site_fract_z
_atom_site_B_iso_or_equiv
_atom_site_occupancy
_atom_site_attached_hydrogens
Sr1 Sr2+ 1 a 0 0 0 1.96(7) 0.52 0
Ba1 Ba2+ 1 a 0 0 0 1.96(7) 0.48 0
Sr2 Sr2+ 2 d 0.6667 0.3333 0.3389(7) 1.7(1) 0.38 0
Na1 Na1+ 2 d 0.6667 0.3333 0.3389(7) 1.7(1) 0.62 0
Na2 Na1+ 1 b 0 0 0.5 1.5(3) 1. 0
P1 P5+ 2 d 0.3333 0.6667 0.2182(18) 0.55(15) 0.96 0
O1 O2- 6 i 0.813(6) 0.187 0.700(3) 2.2(5) 0.96 0
O2 O2- 2 d 0.3333 0.6667 0.002(4) 1.65(65) 0.96 0
#End of TTdata_56889-ICSD