
#(C) 2019 by FIZ Karlsruhe - Leibniz Institute for Information Infrastructure.  All rights reserved.
data_56906-ICSD
_database_code_ICSD 56906
_audit_creation_date 2003-10-01
_audit_update_record 2015-08-01
_chemical_name_systematic 'Disodium oxalate'
_chemical_formula_structural 'Na2 (C2 O4)'
_chemical_formula_sum 'C2 Na2 O4'
_chemical_name_structure_type Na2C2O4
_chemical_name_mineral Natroxalate
_exptl_crystal_density_diffrn 2.37
_cell_measurement_temperature 140.
_publ_section_title 'Sodium oxalate structure refinement'
loop_
_citation_id
_citation_journal_full
_citation_year
_citation_journal_volume
_citation_page_first
_citation_page_last
_citation_journal_id_ASTM
primary

;
Acta Crystallographica, Section B: Structural Crystallography and Crystal
Chemistry
; 1981 37 938 939 ACBCAR
loop_
_publ_author_name
'Reed, D.A.'
'Olmstead, M.M.'
_cell_length_a 3.449(2)
_cell_length_b 5.243(3)
_cell_length_c 10.375(5)
_cell_angle_alpha 90.
_cell_angle_beta 92.66(4)
_cell_angle_gamma 90.
_cell_volume 187.41
_cell_formula_units_Z 2
_symmetry_space_group_name_H-M 'P 1 21/c 1'
_symmetry_Int_Tables_number 14
_refine_ls_R_factor_all 0.03
loop_
_symmetry_equiv_pos_site_id
_symmetry_equiv_pos_as_xyz
1 'x, -y+1/2, z+1/2'
2 '-x, -y, -z'
3 '-x, y+1/2, -z+1/2'
4 'x, y, z'
loop_
_atom_type_symbol
_atom_type_oxidation_number
Na1+ 1
O0+ 0
O1- -1
C0+ 0
loop_
_atom_site_label
_atom_site_type_symbol
_atom_site_symmetry_multiplicity
_atom_site_Wyckoff_symbol
_atom_site_fract_x
_atom_site_fract_y
_atom_site_fract_z
_atom_site_B_iso_or_equiv
_atom_site_occupancy
_atom_site_attached_hydrogens
Na1 Na1+ 4 e 0.3020(3) 0.0565(2) 0.3552(1) . 1. 0
O1 O0+ 4 e 0.1657(5) -.1222(4) 0.1511(1) . 1. 0
O2 O1- 4 e 0.2274(6) 0.2704(3) 0.0691(2) . 1. 0
C1 C0+ 4 e 0.1135(8) 0.0435(4) 0.0634(3) . 1. 0
loop_
_atom_site_aniso_label
_atom_site_aniso_type_symbol
_atom_site_aniso_B_11
_atom_site_aniso_B_22
_atom_site_aniso_B_33
_atom_site_aniso_B_12
_atom_site_aniso_B_13
_atom_site_aniso_B_23
Na1 Na1+ 1.15(8) 0.61(8) 0.51(8) 0.19(3) -.07(5) -.10(3)
O1 O0+ 1.31(9) 0.86(9) 0.54(11) -.05(7) -.04(7) 0.16(5)
O2 O1- 1.44(9) 0.59(9) 0.74(9) -.13(7) -.04(7) -.06(4)
C1 C0+ 0.63(13) 0.69(14) 0.95(11) 0.16(8) 0.5(1) -.04(7)
#End of TTdata_56906-ICSD