
#(C) 2019 by FIZ Karlsruhe - Leibniz Institute for Information Infrastructure.  All rights reserved.
data_59249-ICSD
_database_code_ICSD 59249
_audit_creation_date 1999-01-19
_audit_update_record 2011-02-01
_chemical_name_systematic 'Trimagnesium trisodium tris(phosphate(V))'
_chemical_formula_structural 'Mg3 Na3 (P O4)3'
_chemical_formula_sum 'Mg3 Na3 O12 P3'
_chemical_name_structure_type NaMgPO4
_exptl_crystal_density_diffrn 3.09
_publ_section_title

;
Structure d'un monophosphate synthetique de magnesium et de sodium: Mg3 Na3 (P
O4)3
;
loop_
_citation_id
_citation_journal_full
_citation_year
_citation_journal_volume
_citation_page_first
_citation_page_last
_citation_journal_id_ASTM
primary 'Acta Crystallographica, Section C: Crystal Structure Communications'
1997 53 1733 1735 ACSCEE
loop_
_publ_author_name
'Imura, H.'
'Kawahara, A.'
_cell_length_a 8.819(1)
_cell_length_b 15.244(2)
_cell_length_c 6.828(2)
_cell_angle_alpha 90.
_cell_angle_beta 90.
_cell_angle_gamma 90.
_cell_volume 917.93
_cell_formula_units_Z 4
_symmetry_space_group_name_H-M 'P 21 21 21'
_symmetry_Int_Tables_number 19
_refine_ls_R_factor_all 0.055
loop_
_symmetry_equiv_pos_site_id
_symmetry_equiv_pos_as_xyz
1 '-x, y+1/2, -z+1/2'
2 'x+1/2, -y+1/2, -z'
3 '-x+1/2, -y, z+1/2'
4 'x, y, z'
loop_
_atom_type_symbol
_atom_type_oxidation_number
P5+ 5
Mg2+ 2
Na1+ 1
O2- -2
loop_
_atom_site_label
_atom_site_type_symbol
_atom_site_symmetry_multiplicity
_atom_site_Wyckoff_symbol
_atom_site_fract_x
_atom_site_fract_y
_atom_site_fract_z
_atom_site_B_iso_or_equiv
_atom_site_occupancy
_atom_site_attached_hydrogens
P1 P5+ 4 a 0.4294(3) 0.3494(2) 0.0333(3) . 1. 0
P2 P5+ 4 a 0.5658(3) 0.1836(2) 0.5064(3) . 1. 0
P3 P5+ 4 a 0.5707(4) 0.5144(2) 0.5263(3) . 1. 0
Mg1 Mg2+ 4 a 0.7295(4) 0.3464(2) 0.2900(4) . 1. 0
Mg2 Mg2+ 4 a 0.2548(4) 0.1719(2) 0.2248(4) . 1. 0
Mg3 Mg2+ 4 a 0.2369(4) 0.4895(2) 0.2989(5) . 1. 0
Na1 Na1+ 4 a 0.3905(5) 0.3430(3) 0.5478(5) . 1. 0
Na2 Na1+ 4 a 0.6013(6) 0.1791(3) 0.0185(5) . 1. 0
Na3 Na1+ 4 a 0.9009(6) 0.4876(3) 0.5305(5) . 1. 0
O1 O2- 4 a 0.6170(8) 0.5658(5) 0.3426(8) . 1. 0
O2 O2- 4 a 0.6051(8) 0.2334(5) 0.6939(8) . 1. 0
O3 O2- 4 a 0.6359(8) 0.2308(4) 0.3308(8) . 1. 0
O4 O2- 4 a 0.3854(8) 0.3999(4) 0.2189(9) . 1. 0
O5 O2- 4 a 0.1356(9) 0.6018(4) 0.3576(9) . 1. 0
O6 O2- 4 a 0.6352(8) 0.5583(5) 0.7088(9) . 1. 0
O7 O2- 4 a 0.3910(8) 0.1832(5) 0.4844(7) . 1. 0
O8 O2- 4 a 0.6053(7) 0.3522(5) 0.0212(8) . 1. 0
O9 O2- 4 a 0.3934(9) 0.5158(6) 0.5408(9) . 1. 0
O10 O2- 4 a 0.3676(9) 0.2553(6) 0.0382(9) . 1. 0
O11 O2- 4 a 0.631(1) 0.4191(5) 0.5185(9) . 1. 0
O12 O2- 4 a 0.6267(9) 0.0891(5) 0.5089(9) . 1. 0
loop_
_atom_site_aniso_label
_atom_site_aniso_type_symbol
_atom_site_aniso_U_11
_atom_site_aniso_U_22
_atom_site_aniso_U_33
_atom_site_aniso_U_12
_atom_site_aniso_U_13
_atom_site_aniso_U_23
P1 P5+ 0.0149(9) 0.0177(11) 0.0142(7) 0.0002(7) 0.0008(7) -.0021(9)
P2 P5+ 0.0147(9) 0.0132(9) 0.0138(7) -.0005(6) 0.0009(6) -.0016(8)
P3 P5+ 0.0129(10) 0.0125(9) 0.0168(7) -.0009(6) 0.0014(7) -.0019(7)
Mg1 Mg2+ 0.0165(11) 0.0193(11) 0.0209(11) 0.0034(10) -.0004(9) -.0009(10)
Mg2 Mg2+ 0.0171(10) 0.0176(10) 0.0172(11) -.0004(8) -.0002(9) 0.0024(9)
Mg3 Mg2+ 0.0178(13) 0.0139(11) 0.0204(10) -.0015(9) -.0018(10) 0.0021(11)
Na1 Na1+ 0.0204(16) 0.0178(17) 0.0221(13) -.0014(12) 0.0009(13) -.0019(15)
Na2 Na1+ 0.0219(17) 0.0239(18) 0.0228(14) 0.0012(13) -.0004(13) 0.0001(14)
Na3 Na1+ 0.0185(17) 0.0189(17) 0.0230(13) -.0029(12) -.0013(13) 0.0011(13)
O1 O2- 0.018(2) 0.023(3) 0.017(2) 0.0030(19) -.0008(19) -.001(2)
O2 O2- 0.026(3) 0.025(3) 0.0183(19) -.0050(19) -.004(2) -.006(2)
O3 O2- 0.018(2) 0.017(2) 0.0152(19) 0.0017(16) -.0011(18) -.004(2)
O4 O2- 0.019(2) 0.017(2) 0.021(2) -.0045(18) 0.000(2) 0.003(2)
O5 O2- 0.026(3) 0.014(3) 0.018(2) 0.0017(18) 0.002(2) 0.006(2)
O6 O2- 0.023(2) 0.024(2) 0.0158(19) -.003(2) -.003(2) 0.000(2)
O7 O2- 0.014(2) 0.020(3) 0.0160(19) -.0018(18) 0.0023(18) 0.004(2)
O8 O2- 0.014(2) 0.017(3) 0.0195(19) 0.0024(19) 0.0024(18) 0.003(2)
O9 O2- 0.018(3) 0.024(3) 0.0176(19) 0.000(2) 0.003(2) -.001(2)
O10 O2- 0.017(3) 0.018(3) 0.024(2) -.001(2) 0.002(2) -.002(2)
O11 O2- 0.027(3) 0.015(3) 0.021(2) 0.0020(18) -.001(2) 0.004(2)
O12 O2- 0.013(3) 0.018(3) 0.026(3) 0.0037(19) -.0042(19) -.001(2)
#End of TTdata_59249-ICSD