
#(C) 2019 by FIZ Karlsruhe - Leibniz Institute for Information Infrastructure.  All rights reserved.
data_59307-ICSD
_database_code_ICSD 59307
_audit_creation_date 1999-01-19
_chemical_name_systematic
'Trisodium cyclo-tri-mue-imido-triphosphate(V) hydrate'
_chemical_formula_structural 'Na3 (P O2 N H)3 (H2 O)'
_chemical_formula_sum 'H5 N3 Na3 O7 P3'
_exptl_crystal_density_diffrn 2.39
_cell_measurement_temperature 173.
_publ_section_title 'Trisodium trimetaphosphimate monohydrate'
loop_
_citation_id
_citation_journal_full
_citation_year
_citation_journal_volume
_citation_page_first
_citation_page_last
_citation_journal_id_ASTM
primary 'Acta Crystallographica, Section C: Crystal Structure Communications'
1997 53 532 534 ACSCEE
loop_
_publ_author_name
'Stock, N.'
'Schnick, W.'
_cell_length_a 9.8797(7)
_cell_length_b 12.2119(8)
_cell_length_c 7.6464(6)
_cell_angle_alpha 90.
_cell_angle_beta 104.394(6)
_cell_angle_gamma 90.
_cell_volume 893.58
_cell_formula_units_Z 4
_symmetry_space_group_name_H-M 'C 1 2 1'
_symmetry_Int_Tables_number 5
_refine_ls_R_factor_all 0.0435
loop_
_symmetry_equiv_pos_site_id
_symmetry_equiv_pos_as_xyz
1 '-x, y, -z'
2 'x, y, z'
3 '-x+1/2, y+1/2, -z'
4 'x+1/2, y+1/2, z'
loop_
_atom_type_symbol
_atom_type_oxidation_number
P5+ 5
Na1+ 1
O2- -2
H1+ 1
O2- -2
H1+ 1
N3- -3
H1+ 1
N3- -3
H1+ 1
N3- -3
H1+ 1
loop_
_atom_site_label
_atom_site_type_symbol
_atom_site_symmetry_multiplicity
_atom_site_Wyckoff_symbol
_atom_site_fract_x
_atom_site_fract_y
_atom_site_fract_z
_atom_site_B_iso_or_equiv
_atom_site_occupancy
_atom_site_attached_hydrogens
P1 P5+ 4 c 0.77111(6) 0.61560(8) 0.15493(8) . 1. 0
P2 P5+ 4 c 0.64506(9) 0.74470(6) -.17148(10) . 1. 0
P3 P5+ 4 c 0.63899(9) 0.50337(6) -.19318(11) . 1. 0
Na1 Na1+ 4 c 0.87932(10) 0.62554(14) 0.61559(13) . 1. 0
Na2 Na1+ 2 a 1 0.7710(2) 0 . 1. 0
Na3 Na1+ 2 a 1 0.4687(2) 0 . 1. 0
Na4 Na1+ 4 c 0.72100(14) 0.41584(10) -.5720(2) . 1. 0
O1 O2- 4 c 0.9208(2) 0.6179(2) 0.1454(2) . 1. 0
O2 O2- 4 c 0.7368(2) 0.6037(2) 0.3330(2) . 1. 0
O3 O2- 4 c 0.7745(3) 0.7624(2) -.2368(3) . 1. 0
O4 O2- 4 c 0.5343(3) 0.8306(2) -.2080(3) . 1. 0
O5 O2- 4 c 0.7623(3) 0.4839(2) -.2697(3) . 1. 0
O6 O2- 4 c 0.5215(3) 0.4204(2) -.2342(3) . 1. 0
O7 O2- 2 b 1 0.7685(3) 0.5 . 1. 0
H1 H1+ 4 c 1.019 0.8149(3) 0.6015 0.024(12) 1. 0
O8 O2- 2 b 1 0.4603(3) 0.5 . 1. 0
H2 H1+ 4 c 1.0152 0.4226(3) 0.6015 0.033(13) 1. 0
N1 N3- 4 c 0.6920(3) 0.7271(2) 0.0529(3) . 1. 0
H3 H1+ 4 c 0.6484(3) 0.7602(2) 0.1222(3) 0.014(9) 1. 0
N2 N3- 4 c 0.5710(2) 0.6269(3) -.2573(3) . 1. 0
H4 H1+ 4 c 0.4778(2) 0.6241(3) -.3010(3) 0.017(8) 1. 0
N3 N3- 4 c 0.6928(3) 0.5092(2) 0.0300(3) . 1. 0
H5 H1+ 4 c 0.6512(3) 0.4938(2) 0.0826(3) 0.06(2) 1. 0
loop_
_atom_site_aniso_label
_atom_site_aniso_type_symbol
_atom_site_aniso_U_11
_atom_site_aniso_U_22
_atom_site_aniso_U_33
_atom_site_aniso_U_12
_atom_site_aniso_U_13
_atom_site_aniso_U_23
P1 P5+ 0.0066(3) 0.0099(3) 0.0065(2) 0.0000(4) 0.0009(2) -.0002(3)
P2 P5+ 0.0075(4) 0.0075(3) 0.0077(3) 0.0010(3) 0.0024(3) 0.0005(3)
P3 P5+ 0.0081(4) 0.0076(3) 0.0088(3) -.0006(3) 0.0021(3) -.0007(3)
Na1 Na1+ 0.0117(4) 0.0138(5) 0.0098(4) -.0012(7) 0.0020(3) 0.0011(6)
Na2 Na1+ 0.0143(11) 0.0131(10) 0.0154(9) 0 0.0042(8) 0
Na3 Na1+ 0.0268(13) 0.0111(9) 0.0181(9) 0 0.0122(9) 0
Na4 Na1+ 0.0218(7) 0.0157(6) 0.0194(6) -.0009(5) 0.0074(5) -.0035(5)
O1 O2- 0.0082(7) 0.0126(8) 0.0097(7) -.0025(12) 0.0019(6) 0.0002(10)
O2 O2- 0.0103(8) 0.0163(12) 0.0090(8) -.0017(8) 0.0013(6) 0.0025(7)
O3 O2- 0.0098(11) 0.0136(11) 0.0132(9) -.0018(9) 0.0053(8) 0.0009(8)
O4 O2- 0.0127(13) 0.0118(11) 0.0123(10) 0.0040(9) 0.0021(9) 0.0018(8)
O5 O2- 0.0143(13) 0.0127(11) 0.0153(10) 0.0014(9) 0.0085(9) 0.0013(8)
O6 O2- 0.0096(12) 0.0115(10) 0.0136(10) -.0031(9) 0.0015(9) -.0024(9)
O7 O2- 0.027(2) 0.011(2) 0.0102(14) 0 0.0074(13) 0
O8 O2- 0.035(2) 0.0089(15) 0.0127(15) 0 0.0054(15) 0
N1 N3- 0.0081(13) 0.0103(13) 0.0076(10) 0.0016(10) 0.0011(9) 0.0001(9)
N2 N3- 0.0065(9) 0.0084(9) 0.0094(9) -.0001(12) -.0007(7) -.0008(11)
N3 N3- 0.0118(14) 0.0079(11) 0.0088(10) 0.0004(11) 0.0009(10) -.0011(9)
#End of TTdata_59307-ICSD