
#(C) 2019 by FIZ Karlsruhe - Leibniz Institute for Information Infrastructure.  All rights reserved.
data_59321-ICSD
_database_code_ICSD 59321
_audit_creation_date 1999-06-02
_chemical_name_systematic 'Tetrasodium tecto-bis(arsenato)oxotitanate'
_chemical_formula_structural 'Na4 (Ti O (As O4)2)'
_chemical_formula_sum 'As2 Na4 O9 Ti1'
_exptl_crystal_density_diffrn 3.25
_publ_section_title 'Na4 Ti As2 O9'
loop_
_citation_id
_citation_journal_full
_citation_year
_citation_journal_volume
_citation_page_first
_citation_page_last
_citation_journal_id_ASTM
primary 'Acta Crystallographica, Section C: Crystal Structure Communications'
1998 54 1200 1202 ACSCEE
loop_
_publ_author_name
'Yaakoubi, A.'
'Jouini, T.'
_cell_length_a 15.883(2)
_cell_length_b 7.233(1)
_cell_length_c 7.718(1)
_cell_angle_alpha 90.
_cell_angle_beta 90.29(1)
_cell_angle_gamma 90.
_cell_volume 886.65
_cell_formula_units_Z 4
_symmetry_space_group_name_H-M 'C 1 2/m 1'
_symmetry_Int_Tables_number 12
_refine_ls_R_factor_all 0.036
loop_
_symmetry_equiv_pos_site_id
_symmetry_equiv_pos_as_xyz
1 '-x, y, -z'
2 '-x, -y, -z'
3 'x, -y, z'
4 'x, y, z'
5 '-x+1/2, y+1/2, -z'
6 '-x+1/2, -y+1/2, -z'
7 'x+1/2, -y+1/2, z'
8 'x+1/2, y+1/2, z'
loop_
_atom_type_symbol
_atom_type_oxidation_number
As5+ 5
Ti4+ 4
Na1+ 1
O2- -2
loop_
_atom_site_label
_atom_site_type_symbol
_atom_site_symmetry_multiplicity
_atom_site_Wyckoff_symbol
_atom_site_fract_x
_atom_site_fract_y
_atom_site_fract_z
_atom_site_B_iso_or_equiv
_atom_site_occupancy
_atom_site_attached_hydrogens
As1 As5+ 4 i 0.12947(6) 0 0.7238(2) . 1. 0
As2 As5+ 4 i 0.38750(6) 0 0.7604(2) . 1. 0
Ti1 Ti4+ 4 e 0.25 0.25 0 . 1. 0
Na1 Na1+ 4 f 0.25 0.25 0.5 . 1. 0
Na2 Na1+ 4 g 0 -.2539(5) 1 . 1. 0
Na3 Na1+ 4 i 0.1057(3) 0 0.2400(5) . 1. 0
Na4 Na1+ 4 i 0.6249(2) 0 0.7194(5) . 1. 0
O1 O2- 4 i 0.0357(4) 0 0.8164(9) . 1. 0
O2 O2- 4 i 0.1404(4) 0 0.5110(9) . 1. 0
O3 O2- 4 i 0.4914(4) 0 0.7833(9) . 1. 0
O4 O2- 4 i 0.3446(4) 0 0.5648(9) . 1. 0
O5 O2- 4 i 0.2412(4) 0 0.0784(8) . 1. 0
O6 O2- 8 j 0.1817(3) 0.1954(6) 0.7901(6) . 1. 0
O7 O2- 8 j 0.3558(3) 0.1930(7) 0.8707(6) . 1. 0
loop_
_atom_site_aniso_label
_atom_site_aniso_type_symbol
_atom_site_aniso_U_11
_atom_site_aniso_U_22
_atom_site_aniso_U_33
_atom_site_aniso_U_12
_atom_site_aniso_U_13
_atom_site_aniso_U_23
As1 As5+ 0.0070(5) 0.0065(5) 0.0105(6) 0 -.0009(4) 0
As2 As5+ 0.0053(5) 0.0061(6) 0.0095(5) 0 -.0004(4) 0
Ti1 Ti4+ 0.0043(7) 0.026(2) 0.0116(8) 0.0005(7) -.0003(6) -.0093(8)
Na1 Na1+ 0.016(2) 0.017(2) 0.019(2) 0.002(2) 0.003(2) 0.008(2)
Na2 Na1+ 0.016(2) 0.009(2) 0.019(2) 0 -.004(2) 0
Na3 Na1+ 0.015(2) 0.017(2) 0.018(2) 0 0.000(2) 0
Na4 Na1+ 0.013(2) 0.018(2) 0.014(2) 0 0.002(2) 0
O1 O2- 0.007(3) 0.012(4) 0.028(4) 0 0.008(3) 0
O2 O2- 0.014(3) 0.017(4) 0.014(3) 0 -.005(3) 0
O3 O2- 0.006(3) 0.021(4) 0.020(4) 0 0.000(3) 0
O4 O2- 0.013(3) 0.018(4) 0.015(4) 0 0.002(3) 0
O5 O2- 0.013(3) 0.004(3) 0.010(3) 0 0.000(3) 0
O6 O2- 0.011(2) 0.007(2) 0.012(2) -.005(2) -.003(2) -.002(2)
O7 O2- 0.011(2) 0.008(2) 0.015(2) -.001(2) 0.004(2) -.003(2)
#End of TTdata_59321-ICSD