
#(C) 2019 by FIZ Karlsruhe - Leibniz Institute for Information Infrastructure.  All rights reserved.
data_59332-ICSD
_database_code_ICSD 59332
_audit_creation_date 1999-06-02
_chemical_name_systematic 'Sodium europium zinc diphosphate(V) (1.94/0.02/1/1)'
_chemical_formula_structural 'Na (Na0.94 Eu0.02) Zn (P2 O7)'
_chemical_formula_sum 'Eu0.02 Na1.94 O7 P2 Zn1'
_chemical_name_structure_type Na2ZnP2O7
_exptl_crystal_density_diffrn 3.17
_publ_section_title
'Disodium zinc pyrophosphate and disodium (europium) zinc pyrophosphate'
loop_
_citation_id
_citation_journal_full
_citation_year
_citation_journal_volume
_citation_page_first
_citation_page_last
_citation_journal_id_ASTM
primary 'Acta Crystallographica, Section C: Crystal Structure Communications'
1998 54 1373 1376 ACSCEE
loop_
_publ_author_name
'Erragh, F.'
'Boukhari, A.'
'Sadel, A.'
'Holt, E.M.'
_cell_length_a 7.664(2)
_cell_length_b 7.664(2)
_cell_length_c 10.241(2)
_cell_angle_alpha 90.
_cell_angle_beta 90.
_cell_angle_gamma 90.
_cell_volume 601.52
_cell_formula_units_Z 4
_symmetry_space_group_name_H-M 'P 42/m n m'
_symmetry_Int_Tables_number 136
_refine_ls_R_factor_all 0.059
loop_
_symmetry_equiv_pos_site_id
_symmetry_equiv_pos_as_xyz
1 '-y+1/2, x+1/2, -z+1/2'
2 'y+1/2, -x+1/2, -z+1/2'
3 'y, x, -z'
4 '-y, -x, -z'
5 'y+1/2, -x+1/2, z+1/2'
6 '-y+1/2, x+1/2, z+1/2'
7 '-y, -x, z'
8 'y, x, z'
9 'x+1/2, -y+1/2, -z+1/2'
10 '-x+1/2, y+1/2, -z+1/2'
11 'x, y, -z'
12 '-x, -y, -z'
13 '-x+1/2, y+1/2, z+1/2'
14 'x+1/2, -y+1/2, z+1/2'
15 '-x, -y, z'
16 'x, y, z'
loop_
_atom_type_symbol
_atom_type_oxidation_number
Zn2+ 2
Na1+ 1
Eu3+ 3
Na1+ 1
P5+ 5
O2- -2
loop_
_atom_site_label
_atom_site_type_symbol
_atom_site_symmetry_multiplicity
_atom_site_Wyckoff_symbol
_atom_site_fract_x
_atom_site_fract_y
_atom_site_fract_z
_atom_site_B_iso_or_equiv
_atom_site_occupancy
_atom_site_attached_hydrogens
Zn1 Zn2+ 4 d 0 0.5 0.25 . 1. 0
Na2 Na1+ 4 g 0.6979(4) 0.6979(4) 0.5 . 0.948(14) 0
Eu1 Eu3+ 4 g 0.6979(4) 0.6979(4) 0.5 . 0.017(5) 0
Na3 Na1+ 4 f 0.6406(4) 0.6406(4) 0 . 1. 0
P1 P5+ 8 j 0.13641(17) 0.13641(17) 0.21157(17) . 1. 0
O1 O2- 8 j 0.1351(6) 0.1351(6) 0.3564(5) . 1. 0
O2 O2- 16 k 0.080(1) 0.3042(6) 0.1489(4) . 1. 0
O3 O2- 8 j 0.5310(9) 0.5310(9) 0.6573(10) . 0.5 0
loop_
_atom_site_aniso_label
_atom_site_aniso_type_symbol
_atom_site_aniso_U_11
_atom_site_aniso_U_22
_atom_site_aniso_U_33
_atom_site_aniso_U_12
_atom_site_aniso_U_13
_atom_site_aniso_U_23
Zn1 Zn2+ 0.0157(4) 0.0157(4) 0.0214(6) 0 0 0
Na2 Na1+ 0.0304(19) 0.0304(19) 0.036(2) -.018(2) 0 0
Eu1 Eu3+ 0.0304(19) 0.0304(19) 0.036(2) -.018(2) 0 0
Na3 Na1+ 0.0214(13) 0.0214(13) 0.027(2) -.0059(19) 0 0
P1 P5+ 0.0146(6) 0.0146(6) 0.0170(8) 0.0021(7) 0.0019(5) 0.0019(5)
O1 O2- 0.0247(18) 0.0247(18) 0.022(2) -.006(2) -.0012(15) -.0012(15)
O2 O2- 0.114(5) 0.022(2) 0.0204(18) 0.033(3) 0.010(3) 0.0026(18)
O3 O2- 0.018(4) 0.018(4) 0.024(5) -.003(4) 0.004(2) 0.004(2)
#End of TTdata_59332-ICSD