
#(C) 2019 by FIZ Karlsruhe - Leibniz Institute for Information Infrastructure.  All rights reserved.
data_59349-ICSD
_database_code_ICSD 59349
_audit_creation_date 1999-06-02
_chemical_name_systematic
'Pentasodium bis(dihydroxytetraoxotellurato)aurate 16-hydrate'
_chemical_formula_structural 'Na5 (Au (Te O4 (O H)2)2) (H2 O)16'
_chemical_formula_sum 'H36 Au1 Na5 O28 Te2'
_exptl_crystal_density_diffrn 2.64
_cell_measurement_temperature 295.
_publ_section_title
'Pentasodium bis(dihydroxytetraoxotellurium(VI))gold(III) hexadecahydrate'
loop_
_citation_id
_citation_journal_full
_citation_year
_citation_journal_volume
_citation_page_first
_citation_page_last
_citation_journal_id_ASTM
primary 'Acta Crystallographica, Section C: Crystal Structure Communications'
1998 54 1729 1731 ACSCEE
loop_
_publ_author_name
'Levason, W.'
'Webster, M.'
_cell_length_a 9.003(2)
_cell_length_b 12.643(3)
_cell_length_c 5.937(1)
_cell_angle_alpha 98.41(2)
_cell_angle_beta 93.13(2)
_cell_angle_gamma 97.95(2)
_cell_volume 660.15
_cell_formula_units_Z 1
_symmetry_space_group_name_H-M 'P -1'
_symmetry_Int_Tables_number 2
_refine_ls_R_factor_all 0.031
loop_
_symmetry_equiv_pos_site_id
_symmetry_equiv_pos_as_xyz
1 '-x, -y, -z'
2 'x, y, z'
loop_
_atom_type_symbol
_atom_type_oxidation_number
Au3+ 3
Te6+ 6
Na1+ 1
O2- -2
H1+ 1
loop_
_atom_site_label
_atom_site_type_symbol
_atom_site_symmetry_multiplicity
_atom_site_Wyckoff_symbol
_atom_site_fract_x
_atom_site_fract_y
_atom_site_fract_z
_atom_site_B_iso_or_equiv
_atom_site_occupancy
_atom_site_attached_hydrogens
Au1 Au3+ 1 a 0 0 0 . 1. 0
Te1 Te6+ 2 i 0.24067(4) 0.19225(3) 0.18010(5) . 1. 0
Na1 Na1+ 1 c 0 0.5 0 . 1. 0
Na2 Na1+ 2 i 0.3271(3) -.04631(19) 0.3457(4) . 1. 0
Na3 Na1+ 2 i 0.2255(3) -.31956(19) 0.3237(4) . 1. 0
O1 O2- 2 i 0.1935(4) 0.2397(3) -.1179(6) . 1. 0
O2 O2- 2 i 0.2253(5) 0.3272(3) 0.3431(7) . 1. 0
O3 O2- 2 i 0.4449(4) 0.2115(3) 0.1429(7) . 1. 0
O4 O2- 2 i 0.2766(4) 0.1309(3) 0.4627(6) . 1. 0
O5 O2- 2 i 0.2216(5) 0.0421(3) 0.0215(8) . 1. 0
O6 O2- 2 i 0.0220(5) 0.1496(3) 0.1761(8) . 1. 0
O7 O2- 2 i 0.5600(5) 0.2083(4) -.2640(7) . 1. 0
O8 O2- 2 i 0.2632(6) 0.5016(3) 0.1357(8) . 1. 0
O9 O2- 2 i 0.3917(5) 0.4219(4) -.2812(7) . 1. 0
O10 O2- 2 i -.1157(5) 0.3262(4) 0.0583(8) . 1. 0
O11 O2- 2 i -.1006(5) 0.1580(4) -.3999(8) . 1. 0
O12 O2- 2 i -.3436(5) 0.3631(4) 0.3490(8) . 1. 0
O13 O2- 2 i -.4237(5) 0.0452(4) -.7250(7) . 1. 0
O14 O2- 2 i 1.0223(7) 0.4077(6) -.3868(11) . 1. 0
H1 H1+ 2 i 0.2801 0.2924 -.1169 0.05 1. 0
H2 H1+ 2 i 0.2347 0.1631 0.5856 0.05 1. 0
H3 H1+ 2 i 0.51 0.2001 -.1267 0.05 1. 0
H4 H1+ 2 i 0.4843 0.1871 -.3652 0.05 1. 0
H5 H1+ 2 i 0.2965 0.479 0.0132 0.05 1. 0
H6 H1+ 2 i 0.2574 0.4417 0.2179 0.05 1. 0
H7 H1+ 2 i 0.3561 0.3922 -.4166 0.05 1. 0
H8 H1+ 2 i 0.4949 0.4177 -.3173 0.05 1. 0
H9 H1+ 2 i -.1833 0.3382 0.1549 0.05 1. 0
H10 H1+ 2 i -.0731 0.2708 0.0952 0.05 1. 0
H11 H1+ 2 i -.063 0.1424 -.5357 0.05 1. 0
H12 H1+ 2 i -.0193 0.1817 -.3178 0.05 1. 0
H13 H1+ 2 i -.4183 0.315 0.2846 0.05 1. 0
H14 H1+ 2 i -.3605 0.4328 0.3364 0.05 1. 0
H15 H1+ 2 i -.4508 0.1019 -.7984 0.05 1. 0
H16 H1+ 2 i -.3566 0.0332 -.8135 0.05 1. 0
H17 H1+ 2 i 1.082 0.3763 -.4734 0.05 1. 0
H18 H1+ 2 i 1.0558 0.4007 -.2863 0.05 1. 0
loop_
_atom_site_aniso_label
_atom_site_aniso_type_symbol
_atom_site_aniso_U_11
_atom_site_aniso_U_22
_atom_site_aniso_U_33
_atom_site_aniso_U_12
_atom_site_aniso_U_13
_atom_site_aniso_U_23
Au1 Au3+ 0.01373(18) 0.01041(18) 0.01401(19) 0.00314(11) -.00191(11) -.00112(12)
Te1 Te6+ 0.0143(2) 0.0102(2) 0.0122(2) 0.00371(14) -.00198(14) -.00115(14)
Na1 Na1+ 0.037(2) 0.057(3) 0.042(2) -.013(2) -.0109(19) 0.011(2)
Na2 Na1+ 0.0284(13) 0.0196(12) 0.0273(12) 0.009(1) -.0009(10) 0.0034(9)
Na3 Na1+ 0.0266(13) 0.0228(12) 0.0267(13) 0.0063(10) -.0022(10) 0.0037(10)
O1 O2- 0.025(2) 0.023(2) 0.0151(19) 0.0065(17) -.0034(16) 0.0050(16)
O2 O2- 0.027(2) 0.012(2) 0.018(2) 0.0049(17) -.0026(16) -.0031(16)
O3 O2- 0.014(2) 0.017(2) 0.021(2) 0.0012(16) -.0006(16) 0.0012(16)
O4 O2- 0.027(2) 0.020(2) 0.0116(18) 0.0129(17) -.0006(15) 0.0028(15)
O5 O2- 0.019(2) 0.013(2) 0.022(2) 0.0048(16) 0.0000(17) 0.0062(17)
O6 O2- 0.016(2) 0.015(2) 0.021(2) 0.0048(16) 0.0008(16) 0.0045(17)
O7 O2- 0.024(2) 0.029(2) 0.024(2) 0.0027(18) 0.0000(17) 0.0000(18)
O8 O2- 0.050(3) 0.019(2) 0.029(2) 0.012(2) 0.004(2) 0.0037(18)
O9 O2- 0.030(2) 0.034(2) 0.021(2) 0.0107(19) -.0015(17) -.0038(18)
O10 O2- 0.031(2) 0.037(3) 0.029(2) 0.017(2) 0.0024(19) 0.0094(19)
O11 O2- 0.029(2) 0.036(3) 0.027(2) 0.005(2) 0.0039(18) 0.0032(19)
O12 O2- 0.034(3) 0.021(2) 0.033(2) 0.0022(19) -.007(2) 0.0032(19)
O13 O2- 0.035(3) 0.032(2) 0.022(2) 0.019(2) 0.0073(18) 0.0080(18)
O14 O2- 0.045(3) 0.073(4) 0.064(4) -.015(3) 0.030(3) -.036(3)
#End of TTdata_59349-ICSD