
#(C) 2019 by FIZ Karlsruhe - Leibniz Institute for Information Infrastructure.  All rights reserved.
data_59350-ICSD
_database_code_ICSD 59350
_audit_creation_date 1999-06-02
_chemical_name_systematic 'Pentasodium dibismuth arsenate(V) bis(diarsenate(V))'
_chemical_formula_structural 'Na5 Bi2 (As O4) (As2 O7)2'
_chemical_formula_sum 'As5 Bi2 Na5 O18'
_exptl_crystal_density_diffrn 4.68
_cell_measurement_temperature 298.
_publ_section_title 'Na5 Bi2 (As O4) (As2 O7)2'
loop_
_citation_id
_citation_journal_full
_citation_year
_citation_journal_volume
_citation_page_first
_citation_page_last
_citation_journal_id_ASTM
primary 'Acta Crystallographica, Section C: Crystal Structure Communications'
1998 54 1731 1733 ACSCEE
loop_
_publ_author_name
'Boughzala, H.'
'Jouini, T.'
_cell_length_a 10.041(3)
_cell_length_b 12.127(3)
_cell_length_c 7.039(2)
_cell_angle_alpha 92.08(2)
_cell_angle_beta 90.67(3)
_cell_angle_gamma 97.72(2)
_cell_volume 848.67
_cell_formula_units_Z 2
_symmetry_space_group_name_H-M 'P -1'
_symmetry_Int_Tables_number 2
_refine_ls_R_factor_all 0.029
loop_
_symmetry_equiv_pos_site_id
_symmetry_equiv_pos_as_xyz
1 '-x, -y, -z'
2 'x, y, z'
loop_
_atom_type_symbol
_atom_type_oxidation_number
As5+ 5
Bi3+ 3
Na1+ 1
O2- -2
loop_
_atom_site_label
_atom_site_type_symbol
_atom_site_symmetry_multiplicity
_atom_site_Wyckoff_symbol
_atom_site_fract_x
_atom_site_fract_y
_atom_site_fract_z
_atom_site_B_iso_or_equiv
_atom_site_occupancy
_atom_site_attached_hydrogens
As1 As5+ 2 i 0.58051(12) 0.15551(10) 0.1695(2) . 1. 0
As2 As5+ 2 i 0.26299(12) 0.10858(10) 0.1786(2) . 1. 0
As3 As5+ 2 i 0.02228(12) 0.3914(1) 0.2255(2) . 1. 0
As4 As5+ 2 i -.06358(12) 0.19581(10) 0.5096(2) . 1. 0
As5 As5+ 2 i 0.42533(12) 0.33865(11) 0.7155(2) . 1. 0
Bi1 Bi3+ 2 i 0.37478(5) 0.39412(4) 0.22969(7) . 1. 0
Bi2 Bi3+ 2 i 0.23566(5) 0.06054(4) 0.67462(7) . 1. 0
Na1 Na1+ 2 i 0.3942(5) -.1185(4) 0.3357(7) . 1. 0
Na2 Na1+ 2 i 0.2690(5) 0.5974(4) 0.5303(7) . 1. 0
Na3 Na1+ 2 i -.2252(6) 0.3452(5) -.0842(8) . 1. 0
Na4 Na1+ 2 i 0.0667(5) -.1280(5) 0.0176(8) . 1. 0
Na5 Na1+ 2 i 0.1237(5) 0.3579(4) -.2303(8) . 1. 0
O1 O2- 2 i 0.6837(9) 0.1556(8) -.0127(12) 0.017(2) 1. 0
O2 O2- 2 i 0.5974(9) 0.0582(8) 0.3257(13) 0.019(2) 1. 0
O3 O2- 2 i 0.5709(9) 0.2830(8) 0.2632(13) 0.020(2) 1. 0
O4 O2- 2 i 0.4160(8) 0.1086(7) 0.0715(12) 0.013(2) 1. 0
O5 O2- 2 i 0.1556(9) 0.0621(8) 0.0043(13) 0.019(2) 1. 0
O6 O2- 2 i 0.2518(9) 0.0207(7) 0.3596(12) 0.014(2) 1. 0
O7 O2- 2 i 0.2491(8) 0.2379(7) 0.2664(12) 0.013(2) 1. 0
O8 O2- 2 i -.0997(10) 0.4648(9) 0.2619(14) 0.026(2) 1. 0
O9 O2- 2 i -.0078(10) 0.3126(8) 0.0310(14) 0.023(2) 1. 0
O10 O2- 2 i 0.1775(9) 0.4671(7) 0.2290(12) 0.015(2) 1. 0
O11 O2- 2 i 0.0332(9) 0.3152(7) 0.4308(12) 0.014(2) 1. 0
O12 O2- 2 i -.1937(9) 0.2410(8) 0.6066(13) 0.020(2) 1. 0
O13 O2- 2 i -.0934(9) 0.1038(8) 0.3256(13) 0.017(2) 1. 0
O14 O2- 2 i 0.0446(10) 0.1583(8) 0.6710(14) 0.025(2) 1. 0
O15 O2- 2 i 0.4149(9) 0.2052(7) 0.6446(12) 0.016(2) 1. 0
O16 O2- 2 i 0.3284(10) 0.3489(9) 0.9055(15) 0.028(2) 1. 0
O17 O2- 2 i 0.5851(9) 0.3969(8) 0.7590(13) 0.021(2) 1. 0
O18 O2- 2 i 0.3581(9) 0.4142(7) 0.5522(12) 0.015(2) 1. 0
loop_
_atom_site_aniso_label
_atom_site_aniso_type_symbol
_atom_site_aniso_U_11
_atom_site_aniso_U_22
_atom_site_aniso_U_33
_atom_site_aniso_U_12
_atom_site_aniso_U_13
_atom_site_aniso_U_23
As1 As5+ 0.0095(6) 0.0105(6) 0.0144(6) 0.0027(5) 0.0007(5) 0.0022(5)
As2 As5+ 0.0113(6) 0.0106(6) 0.0102(6) 0.0018(5) -.0008(5) 0.0009(5)
As3 As5+ 0.0108(6) 0.0098(6) 0.0152(6) 0.0017(5) 0.0003(5) 0.0012(5)
As4 As5+ 0.0120(6) 0.0105(6) 0.0116(6) 0.0017(5) -.0004(5) 0.0006(5)
As5 As5+ 0.0097(6) 0.0119(6) 0.0135(6) 0.0010(5) -.0013(5) 0.0009(5)
Bi1 Bi3+ 0.0124(3) 0.0107(3) 0.0151(3) 0.0025(2) -.0003(2) 0.0005(2)
Bi2 Bi3+ 0.0127(3) 0.0101(3) 0.0136(3) 0.0019(2) 0.0005(2) 0.0000(2)
Na1 Na1+ 0.009(2) 0.024(3) 0.018(3) 0.004(2) -.004(2) 0.000(2)
Na2 Na1+ 0.022(3) 0.016(3) 0.020(3) 0.005(2) 0.005(2) 0.009(2)
Na3 Na1+ 0.019(3) 0.022(3) 0.035(3) 0.002(2) -.005(2) 0.006(3)
Na4 Na1+ 0.021(3) 0.020(3) 0.022(3) 0.002(2) 0.006(2) -.002(2)
Na5 Na1+ 0.018(3) 0.013(3) 0.028(3) 0.005(2) -.002(2) -.005(2)
#End of TTdata_59350-ICSD