
#(C) 2019 by FIZ Karlsruhe - Leibniz Institute for Information Infrastructure.  All rights reserved.
data_59357-ICSD
_database_code_ICSD 59357
_audit_creation_date 1999-06-02
_chemical_name_systematic 'Sodium nickel tris(phosphate(V))'
_chemical_formula_structural 'Na Ni (P O3)3'
_chemical_formula_sum 'Na1 Ni1 O9 P3'
_chemical_name_structure_type ZnAg(PO3)3
_exptl_crystal_density_diffrn 2.97
_cell_measurement_temperature 298.
_publ_section_title 'Sodium Nickel Polyphosphate'
loop_
_citation_id
_citation_journal_full
_citation_year
_citation_journal_volume
_citation_page_first
_citation_page_last
_citation_journal_id_ASTM
primary 'Acta Crystallographica, Section C: Crystal Structure Communications'
1998 54 1746 1747 ACSCEE
loop_
_publ_author_name
'Erragh, F.'
'Boukhari, A.'
'Sadel, A.'
'Holt, E.M.'
_cell_length_a 13.734(2)
_cell_length_b 10.543(2)
_cell_length_c 9.830(2)
_cell_angle_alpha 90.
_cell_angle_beta 90.
_cell_angle_gamma 90.
_cell_volume 1423.36
_cell_formula_units_Z 8
_symmetry_space_group_name_H-M 'P c c a'
_symmetry_Int_Tables_number 54
_refine_ls_R_factor_all 0.03
loop_
_symmetry_equiv_pos_site_id
_symmetry_equiv_pos_as_xyz
1 'x, -y, z+1/2'
2 '-x+1/2, y, z+1/2'
3 'x+1/2, y, -z'
4 '-x, -y, -z'
5 '-x, y, -z+1/2'
6 'x+1/2, -y, -z+1/2'
7 '-x+1/2, -y, z'
8 'x, y, z'
loop_
_atom_type_symbol
_atom_type_oxidation_number
Ni2+ 2
Na1+ 1
P5+ 5
O2- -2
P5+ 5
O2- -2
P5+ 5
O2- -2
loop_
_atom_site_label
_atom_site_type_symbol
_atom_site_symmetry_multiplicity
_atom_site_Wyckoff_symbol
_atom_site_fract_x
_atom_site_fract_y
_atom_site_fract_z
_atom_site_B_iso_or_equiv
_atom_site_occupancy
_atom_site_attached_hydrogens
Ni1 Ni2+ 4 e 0.25 0.5 0.0285(1) . 1. 0
Ni2 Ni2+ 4 a 0.5 0 0 . 1. 0
Na1 Na1+ 8 f 0.3755(1) 0.7517(1) -.0129(1) . 1. 0
P1 P5+ 8 f 0.6478(1) 0.9554(1) 0.2370(1) . 1. 0
O1 O2- 8 f 0.6085(1) 1.0481(2) 0.1383(2) . 1. 0
O2 O2- 4 d 0.75 1 0.2949(3) . 1. 0
O3 O2- 8 f 0.5893(1) 0.9167(2) 0.3563(2) . 1. 0
O4 O2- 8 f 0.6800(1) 0.8300(2) 0.1578(2) . 1. 0
P2 P5+ 8 f 0.6254(1) 0.7476(1) 0.0460(1) . 1. 0
O5 O2- 8 f 0.7027(1) 0.6822(2) -.0310(2) . 1. 0
O6 O2- 8 f 0.5526(1) 0.8234(2) -.0285(2) . 1. 0
O7 O2- 8 f 0.5651(1) 0.6479(2) 0.1329(2) . 1. 0
P3 P5+ 8 f 0.6016(1) 0.5255(1) 0.2146(1) . 1. 0
O8 O2- 4 c 0.5 0.4616(2) 0.25 . 1. 0
O9 O2- 8 f 0.6499(1) 0.5682(2) 0.3400(2) . 1. 0
O10 O2- 8 f 0.6529(1) 0.4390(2) 0.1204(2) . 1. 0
loop_
_atom_site_aniso_label
_atom_site_aniso_type_symbol
_atom_site_aniso_U_11
_atom_site_aniso_U_22
_atom_site_aniso_U_33
_atom_site_aniso_U_12
_atom_site_aniso_U_13
_atom_site_aniso_U_23
Ni1 Ni2+ 0.009(1) 0.009(1) 0.010(1) 0.001(1) 0 0
Ni2 Ni2+ 0.009(1) 0.008(1) 0.010(1) 0.001(1) 0.000(1) 0.000(1)
Na1 Na1+ 0.026(1) 0.017(1) 0.032(1) -.006(1) 0.002(1) -.007(1)
P1 P5+ 0.008(1) 0.009(1) 0.009(1) 0.000(1) 0.000(1) 0.000(1)
O1 O2- 0.016(1) 0.012(1) 0.013(1) 0.001(1) -.004(1) 0.001(1)
O2 O2- 0.010(1) 0.015(1) 0.010(1) -.004(1) 0.008(7) -.006(10)
O3 O2- 0.012(1) 0.015(1) 0.013(1) 0.000(1) 0.002(1) 0.002(1)
O4 O2- 0.013(1) 0.011(1) 0.014(1) 0.000(1) -.002(1) -.004(1)
P2 P5+ 0.010(1) 0.008(1) 0.010(1) 0.002(1) 0.000(1) 0.000(1)
O5 O2- 0.014(1) 0.011(1) 0.015(1) 0.003(1) 0.003(1) -.001(1)
O6 O2- 0.013(1) 0.011(1) 0.014(1) 0.004(1) -.002(1) -.001(1)
O7 O2- 0.013(1) 0.012(1) 0.015(1) 0.001(1) 0.001(1) 0.004(1)
P3 P5+ 0.008(1) 0.009(1) 0.009(1) 0.000(1) 0.000(1) 0.000(1)
O8 O2- 0.008(1) 0.010(1) 0.019(1) 0 0.004(1) 0
O9 O2- 0.015(1) 0.017(1) 0.014(1) 0.001(1) -.005(1) -.003(1)
O10 O2- 0.013(1) 0.011(1) 0.015(1) 0.001(1) 0.004(1) -.001(1)
#End of TTdata_59357-ICSD