
#(C) 2018 by FIZ Karlsruhe - Leibniz Institute for Information Infrastructure.  All rights reserved.
data_59367-ICSD
_database_code_ICSD 59367
_audit_creation_date 1999-06-02
_chemical_name_systematic 'Lithium hexafluoroarsenate hydrate'
_chemical_formula_structural 'Li (As F6) (H2 O)'
_chemical_formula_sum 'H2 As1 F6 Li1 O1'
_chemical_name_structure_type NaPF6H2O
_exptl_crystal_density_diffrn 2.91
_publ_section_title 'Lithium hexafluoroarsenate monohydrate, Li As F6 . (H2 O)'
loop_
_citation_id
_citation_journal_full
_citation_year
_citation_journal_volume
_citation_page_first
_citation_page_last
_citation_journal_id_ASTM
primary 'Acta Crystallographica, Section C: Crystal Structure Communications'
1998 54 567 569 ACSCEE
loop_
_publ_author_name
'Loss, S.'
'Roehr, C.'
_cell_length_a 7.4845(9)
_cell_length_b 10.4936(10)
_cell_length_c 6.2217(5)
_cell_angle_alpha 90.
_cell_angle_beta 90.
_cell_angle_gamma 90.
_cell_volume 488.65
_cell_formula_units_Z 4
_symmetry_space_group_name_H-M 'I m m a'
_symmetry_Int_Tables_number 74
_refine_ls_R_factor_all 0.021
loop_
_symmetry_equiv_pos_site_id
_symmetry_equiv_pos_as_xyz
1 '-x, y+1/2, -z'
2 '-x, -y+1/2, z'
3 '-x, y, z'
4 '-x, -y, -z'
5 'x, -y+1/2, z'
6 'x, y+1/2, -z'
7 'x, -y, -z'
8 'x, y, z'
9 '-x+1/2, y, -z+1/2'
10 '-x+1/2, -y, z+1/2'
11 '-x+1/2, y+1/2, z+1/2'
12 '-x+1/2, -y+1/2, -z+1/2'
13 'x+1/2, -y, z+1/2'
14 'x+1/2, y, -z+1/2'
15 'x+1/2, -y+1/2, -z+1/2'
16 'x+1/2, y+1/2, z+1/2'
loop_
_atom_type_symbol
_atom_type_oxidation_number
As5+ 5
O2- -2
H1+ 1
F1- -1
Li1+ 1
loop_
_atom_site_label
_atom_site_type_symbol
_atom_site_symmetry_multiplicity
_atom_site_Wyckoff_symbol
_atom_site_fract_x
_atom_site_fract_y
_atom_site_fract_z
_atom_site_B_iso_or_equiv
_atom_site_occupancy
_atom_site_attached_hydrogens
As1 As5+ 4 a 0 0 0 . 1. 0
O1 O2- 4 e 0 0.25 0.5796(4) . 1. 0
H1 H1+ 8 h 0 0.193(4) 0.489(5) 0.040(12) 1. 0
F1 F1- 8 h 0 0.0318(2) 0.2690(2) . 1. 0
F2 F1- 16 j 0.16259(14) 0.61379(10) 0.0383(2) . 1. 0
Li1 Li1+ 4 d 0.25 0.25 0.75 . 1. 0
loop_
_atom_site_aniso_label
_atom_site_aniso_type_symbol
_atom_site_aniso_U_11
_atom_site_aniso_U_22
_atom_site_aniso_U_33
_atom_site_aniso_U_12
_atom_site_aniso_U_13
_atom_site_aniso_U_23
As1 As5+ 0.01456(14) 0.01241(14) 0.01637(15) 0 0 0.00217(8)
O1 O2- 0.0233(10) 0.0177(9) 0.0258(11) 0 0 0
F1 F1- 0.0402(8) 0.0346(6) 0.0186(6) 0 0 -.0040(6)
F2 F1- 0.0225(4) 0.0232(4) 0.0395(5) -.0087(4) 0.0005(4) -.0083(4)
Li1 Li1+ 0.022(3) 0.027(2) 0.033(3) 0 0.003(2) 0
#End of TTdata_59367-ICSD