
#(C) 2019 by FIZ Karlsruhe - Leibniz Institute for Information Infrastructure.  All rights reserved.
data_59369-ICSD
_database_code_ICSD 59369
_audit_creation_date 1999-06-02
_chemical_name_systematic 'Tetrasodium heptacobalt hexakis(phosphate(V))'
_chemical_formula_structural 'Na4 Co7 (P O4)6'
_chemical_formula_sum 'Co7 Na4 O24 P6'
_chemical_name_structure_type Na4Ni7(PO4)6
_exptl_crystal_density_diffrn 3.79
_publ_section_title
'Un monophosphate synthetique de sodium et de cobalt: Na4 Co7 (P O4)6'
loop_
_citation_id
_citation_journal_full
_citation_year
_citation_journal_volume
_citation_page_first
_citation_page_last
_citation_journal_id_ASTM
primary 'Acta Crystallographica, Section C: Crystal Structure Communications'
1998 54 7 9 ACSCEE
loop_
_publ_author_name
'Kobashi, D.'
'Kohara, S.'
'Yamakawa, J.'
'Kawahara, A.'
_cell_length_a 10.506(1)
_cell_length_b 14.390(1)
_cell_length_c 6.471(1)
_cell_angle_alpha 90.
_cell_angle_beta 105.79(1)
_cell_angle_gamma 90.
_cell_volume 941.38
_cell_formula_units_Z 2
_symmetry_space_group_name_H-M 'C 1 m 1'
_symmetry_Int_Tables_number 8
_refine_ls_R_factor_all 0.038
loop_
_symmetry_equiv_pos_site_id
_symmetry_equiv_pos_as_xyz
1 'x, -y, z'
2 'x, y, z'
3 'x+1/2, -y+1/2, z'
4 'x+1/2, y+1/2, z'
loop_
_atom_type_symbol
_atom_type_oxidation_number
Co2+ 2
P5+ 5
Na1+ 1
O2- -2
loop_
_atom_site_label
_atom_site_type_symbol
_atom_site_symmetry_multiplicity
_atom_site_Wyckoff_symbol
_atom_site_fract_x
_atom_site_fract_y
_atom_site_fract_z
_atom_site_B_iso_or_equiv
_atom_site_occupancy
_atom_site_attached_hydrogens
Co1 Co2+ 2 a 0 0 0 . 1. 0
Co2 Co2+ 4 b 0.5008(9) 0.1568(1) 0.0040(16) . 1. 0
Co3 Co2+ 4 b 0.8244(8) 0.1829(3) 0.1861(13) . 1. 0
Co4 Co2+ 4 b 0.1785(8) 0.1822(2) 0.8191(13) . 1. 0
P1 P5+ 4 b 0.9071(10) 0.1842(5) 0.7126(14) . 1. 0
P2 P5+ 4 b 0.1013(10) 0.1862(5) 0.2922(16) . 1. 0
P3 P5+ 2 a 0.3331(12) 0 0.067(2) . 1. 0
P4 P5+ 2 a 0.6800(11) 0 0.940(2) . 1. 0
Na1 Na1+ 4 b 0.5913(9) 0.1131(3) 0.5089(14) . 1. 0
Na2 Na1+ 2 a 0.3173(11) 0 0.5591(17) . 1. 0
Na3 Na1+ 2 a 0.0588(12) 0 0.5182(18) . 1. 0
O1 O2- 4 b 0.5062(17) 0.2260(12) 0.277(3) 0.018(9) 1. 0
O2 O2- 4 b 0.4980(16) 0.2307(11) 0.730(3) 0.012(9) 1. 0
O3 O2- 4 b 0.9985(17) 0.1036(11) 0.225(3) 0.010(9) 1. 0
O4 O2- 4 b 0.0034(18) 0.1062(13) 0.789(3) 0.016(9) 1. 0
O5 O2- 4 b 0.1789(15) 0.2111(10) 0.135(3) 0.018(9) 1. 0
O6 O2- 4 b 0.8143(14) 0.2048(9) 0.863(2) 0.010(9) 1. 0
O7 O2- 4 b 0.1908(16) 0.1636(11) 0.518(3) 0.015(9) 1. 0
O8 O2- 4 b 0.8224(16) 0.1613(10) 0.492(3) 0.013(9) 1. 0
O9 O2- 4 b 0.6756(18) 0.0849(11) 0.081(3) 0.022(9) 1. 0
O10 O2- 4 b 0.3379(15) 0.0883(9) 0.921(3) 0.010(8) 1. 0
O11 O2- 2 a 0.1983(19) 0 0.120(3) 0.015(9) 1. 0
O12 O2- 2 a 0.799(2) 0 0.855(3) 0.020(9) 1. 0
O13 O2- 2 a 0.4520(19) 0 0.251(3) 0.011(7) 1. 0
O14 O2- 2 a 0.560(3) 0 0.735(4) 0.030(9) 1. 0
loop_
_atom_site_aniso_label
_atom_site_aniso_type_symbol
_atom_site_aniso_U_11
_atom_site_aniso_U_22
_atom_site_aniso_U_33
_atom_site_aniso_U_12
_atom_site_aniso_U_13
_atom_site_aniso_U_23
Co1 Co2+ 0.0098(10) 0.0104(8) 0.0171(10) 0 0.0036(8) 0
Co2 Co2+ 0.0153(7) 0.0158(6) 0.0186(7) -.001(3) 0.0073(6) 0.000(3)
Co3 Co2+ 0.011(2) 0.015(2) 0.0106(18) -.0029(17) 0.0025(17) 0.0024(18)
Co4 Co2+ 0.011(2) 0.010(2) 0.0109(19) -.0040(17) 0.0027(17) 0.0021(17)
P1 P5+ 0.018(4) 0.010(3) 0.006(3) 0.003(3) 0.005(3) 0.000(3)
P2 P5+ 0.003(3) 0.013(4) 0.019(4) 0.005(3) 0.001(3) -.003(3)
P3 P5+ 0.014(5) 0.015(5) 0.020(5) 0 0.005(4) 0
P4 P5+ 0.004(4) 0.006(5) 0.021(5) 0 -.001(4) 0
Na1 Na1+ 0.036(3) 0.025(3) 0.024(3) 0.005(3) 0.009(3) -.004(3)
Na2 Na1+ 0.037(5) 0.052(5) 0.026(5) 0 0.011(4) 0
Na3 Na1+ 0.082(8) 0.021(4) 0.019(4) 0 0.016(6) 0
#End of TTdata_59369-ICSD