
#(C) 2019 by FIZ Karlsruhe - Leibniz Institute for Information Infrastructure.  All rights reserved.
data_59384-ICSD
_database_code_ICSD 59384
_audit_creation_date 1999-06-02
_chemical_name_systematic 'Trisodium tetramanganese dodecaoxotellurate(VI)'
_chemical_formula_structural 'Na3 Mn4 Te2 O12'
_chemical_formula_sum 'Mn4 Na3 O12 Te2'
_exptl_crystal_density_diffrn 5.16
_cell_measurement_temperature 295.
_publ_section_title 'Na3 Mn4 Te2 O12'
loop_
_citation_id
_citation_journal_full
_citation_year
_citation_journal_volume
_citation_page_first
_citation_page_last
_citation_journal_id_ASTM
primary 'Acta Crystallographica, Section C: Crystal Structure Communications'
1998 54 1055 1057 ACSCEE
loop_
_publ_author_name
'Feger, C.R.'
'Kolis, J.W.'
_cell_length_a 9.384(2)
_cell_length_b 9.182(2)
_cell_length_c 10.997(3)
_cell_angle_alpha 90.
_cell_angle_beta 90.
_cell_angle_gamma 90.
_cell_volume 947.54
_cell_formula_units_Z 4
_symmetry_space_group_name_H-M 'P n m a'
_symmetry_Int_Tables_number 62
_refine_ls_R_factor_all 0.048
loop_
_symmetry_equiv_pos_site_id
_symmetry_equiv_pos_as_xyz
1 'x+1/2, y, -z+1/2'
2 'x, -y+1/2, z'
3 '-x+1/2, y+1/2, z+1/2'
4 '-x, -y, -z'
5 '-x+1/2, -y, z+1/2'
6 '-x, y+1/2, -z'
7 'x+1/2, -y+1/2, -z+1/2'
8 'x, y, z'
loop_
_atom_type_symbol
_atom_type_oxidation_number
Te6+ 6
Mn2+ 2.25
Na1+ 1
O2- -2
loop_
_atom_site_label
_atom_site_type_symbol
_atom_site_symmetry_multiplicity
_atom_site_Wyckoff_symbol
_atom_site_fract_x
_atom_site_fract_y
_atom_site_fract_z
_atom_site_B_iso_or_equiv
_atom_site_occupancy
_atom_site_attached_hydrogens
Te1 Te6+ 4 c 0.0823(1) 0.25 0.3962(1) . 1. 0
Te2 Te6+ 4 c 0.5611(1) 0.25 0.61508(9) . 1. 0
Mn1 Mn2+ 8 d 0.0833(2) -.0856(3) 0.3906(2) . 1. 0
Mn2 Mn2+ 8 d 0.5707(2) -.0876(3) 0.6126(2) . 1. 0
Na1 Na1+ 4 c 0.2403(8) 0.25 0.6542(7) . 1. 0
Na2 Na1+ 8 d 0.2487(6) -.0792(6) 0.6469(5) . 1. 0
O1 O2- 4 c -.106(1) 0.25 0.472(1) . 1. 0
O2 O2- 4 c 0.276(2) 0.25 0.335(1) . 1. 0
O3 O2- 8 d 0.027(1) 0.098(1) 0.2870(8) . 1. 0
O4 O2- 8 d 0.124(1) 0.095(1) 0.5123(8) . 1. 0
O5 O2- 4 c 0.591(2) 0.25 0.439(1) . 1. 0
O6 O2- 4 c 0.490(1) 0.25 0.780(1) . 1. 0
O7 O2- 8 d 0.4255(9) 0.096(1) 0.5831(8) . 1. 0
O8 O2- 8 d 0.699(1) 0.100(1) 0.6539(8) . 1. 0
loop_
_atom_site_aniso_label
_atom_site_aniso_type_symbol
_atom_site_aniso_U_11
_atom_site_aniso_U_22
_atom_site_aniso_U_33
_atom_site_aniso_U_12
_atom_site_aniso_U_13
_atom_site_aniso_U_23
Te1 Te6+ 0.008(1) 0.005(1) 0.007(1) 0 0.001(1) 0
Te2 Te6+ 0.009(1) 0.005(1) 0.005(1) 0 0.001(1) 0
Mn1 Mn2+ 0.009(1) 0.003(1) 0.009(1) 0.000(1) 0.001(1) 0.000(1)
Mn2 Mn2+ 0.019(1) 0.012(1) 0.012(1) 0.000(1) 0.000(1) -.001(1)
Na1 Na1+ 0.019(4) 0.017(4) 0.013(4) 0 0.002(3) 0
Na2 Na1+ 0.018(3) 0.018(3) 0.023(3) 0.003(3) -.001(2) -.001(3)
O1 O2- 0.012(6) 0.010(8) 0.010(6) 0 0.002(5) 0
O2 O2- 0.021(8) 0.013(7) 0.026(8) 0 0.018(6) 0
O3 O2- 0.016(5) 0.024(6) 0.010(4) 0.004(4) 0.004(4) 0.004(4)
O4 O2- 0.024(5) 0.005(5) 0.019(5) 0.002(4) -.007(4) 0.001(4)
O5 O2- 0.030(8) 0.022(9) 0.009(6) 0 -.004(6) 0
O6 O2- 0.012(7) 0.022(8) 0.009(7) 0 0.005(5) 0
O7 O2- 0.010(4) 0.018(5) 0.021(4) -.007(4) -.002(4) -.006(4)
O8 O2- 0.017(5) 0.017(5) 0.020(5) 0.003(4) 0.005(4) 0.002(4)
#End of TTdata_59384-ICSD