
#(C) 2019 by FIZ Karlsruhe - Leibniz Institute for Information Infrastructure.  All rights reserved.
data_59589-ICSD
_database_code_ICSD 59589
_audit_creation_date 2005-04-01
_audit_update_record 2012-08-01
_chemical_name_systematic 'Dibarium sodium dicopper copper(III) oxide'
_chemical_formula_structural 'Ba2 Na Cu3 O6'
_chemical_formula_sum 'Ba2 Cu3 Na1 O6'
_chemical_name_structure_type Ba2NaNi3O6
_exptl_crystal_density_diffrn 5.54
_publ_section_title

;
Polysynthetic twinning characterization and crystallographic refinement in Na
Ba2 M(2+)2 M(3+) (M = Ni, Cu)
;
loop_
_citation_id
_citation_journal_full
_citation_year
_citation_journal_volume
_citation_page_first
_citation_page_last
_citation_journal_id_ASTM
primary 'Journal of Solid State Chemistry' 2002 165 214 227 JSSCBI
loop_
_publ_author_name
'Quarez, E.'
'Huve, M.'
'Roussel, P.'
'Mentre, O.'
_cell_length_a 8.416(2)
_cell_length_b 14.577(5)
_cell_length_c 11.418(3)
_cell_angle_alpha 90.
_cell_angle_beta 90.
_cell_angle_gamma 90.
_cell_volume 1400.76
_cell_formula_units_Z 8
_symmetry_space_group_name_H-M 'F m m m'
_symmetry_Int_Tables_number 69
_refine_ls_R_factor_all 0.0419
loop_
_symmetry_equiv_pos_site_id
_symmetry_equiv_pos_as_xyz
1 'x, y, -z'
2 'x, -y, z'
3 '-x, y, z'
4 '-x, -y, -z'
5 '-x, -y, z'
6 '-x, y, -z'
7 'x, -y, -z'
8 'x, y, z'
9 'x, y+1/2, -z+1/2'
10 'x, -y+1/2, z+1/2'
11 '-x, y+1/2, z+1/2'
12 '-x, -y+1/2, -z+1/2'
13 '-x, -y+1/2, z+1/2'
14 '-x, y+1/2, -z+1/2'
15 'x, -y+1/2, -z+1/2'
16 'x, y+1/2, z+1/2'
17 'x+1/2, y, -z+1/2'
18 'x+1/2, -y, z+1/2'
19 '-x+1/2, y, z+1/2'
20 '-x+1/2, -y, -z+1/2'
21 '-x+1/2, -y, z+1/2'
22 '-x+1/2, y, -z+1/2'
23 'x+1/2, -y, -z+1/2'
24 'x+1/2, y, z+1/2'
25 'x+1/2, y+1/2, -z'
26 'x+1/2, -y+1/2, z'
27 '-x+1/2, y+1/2, z'
28 '-x+1/2, -y+1/2, -z'
29 '-x+1/2, -y+1/2, z'
30 '-x+1/2, y+1/2, -z'
31 'x+1/2, -y+1/2, -z'
32 'x+1/2, y+1/2, z'
loop_
_atom_type_symbol
_atom_type_oxidation_number
Ba2+ 2
Cu3+ 3
Cu2+ 2
Na1+ 1
O2- -2
loop_
_atom_site_label
_atom_site_type_symbol
_atom_site_symmetry_multiplicity
_atom_site_Wyckoff_symbol
_atom_site_fract_x
_atom_site_fract_y
_atom_site_fract_z
_atom_site_B_iso_or_equiv
_atom_site_occupancy
_atom_site_attached_hydrogens
Ba1 Ba2+ 8 i 0 0 .2304(1) .0127(6) 1 0
Ba2 Ba2+ 8 f .25 .25 .25 .101(5) 1 0
Cu1 Cu3+ 8 g .6923(2) 0 0 .0071(8) 1 0
Cu2 Cu2+ 16 o .3493(2) .3537(1) 0 .0096(5) 1 0
Na1 Na1+ 8 h 0 .3314(6) 0 .016(2) 1 0
O1 O2- 16 m 0 .1858(7) .1131(3) .016(2) 1 0
O2 O2- 32 p .2066(5) .4059(5) .8889(5) .017(2) 1 0
loop_
_atom_site_aniso_label
_atom_site_aniso_type_symbol
_atom_site_aniso_U_11
_atom_site_aniso_U_22
_atom_site_aniso_U_33
_atom_site_aniso_U_12
_atom_site_aniso_U_13
_atom_site_aniso_U_23
Ba1 Ba2+ .015(1) .013(1) .0104(5) 0 0 0
Ba2 Ba2+ .012(1) .009(1) .0095(5) 0 0 0
Cu1 Cu3+ .011(1) .005(1) .005(1) 0 0 0
Cu2 Cu2+ .012(1) .012(1) .0051(8) .0023(7) 0 0
Na1 Na1+ .023(5) .001(4) .023(3) 0 0 0
#End of TTdata_59589-ICSD