
#(C) 2019 by FIZ Karlsruhe - Leibniz Institute for Information Infrastructure.  All rights reserved.
data_59706-ICSD
_database_code_ICSD 59706
_audit_creation_date 2005-04-01
_audit_update_record 2012-02-01
_chemical_name_systematic 'Sodium decathiodiniobo(VII)phosphate(V)'
_chemical_formula_structural 'Na (Nb2 P S10)'
_chemical_formula_sum 'Na1 Nb2 P1 S10'
_chemical_name_structure_type NaNb2PS10
_exptl_crystal_density_diffrn 2.96
_publ_section_title

;
Crystal and electronic structures of one-dimensional transition metal
thiophosphates: A Nb2 P S10 (A = Na, Ag)
;
loop_
_citation_id
_citation_journal_full
_citation_year
_citation_journal_volume
_citation_page_first
_citation_page_last
_citation_journal_id_ASTM
primary 'Journal of Solid State Chemistry' 2002 168 119 125 JSSCBI
loop_
_publ_author_name
'Goh Eun-Young'
'Kim Sung Jin'
'Jung Dongwoon'
_cell_length_a 24.7634(10)
_cell_length_b 7.8407(11)
_cell_length_c 12.947(3)
_cell_angle_alpha 90
_cell_angle_beta 90.83(2)
_cell_angle_gamma 90
_cell_volume 2513.56
_cell_formula_units_Z 8
_symmetry_space_group_name_H-M 'C 1 2/c 1'
_symmetry_Int_Tables_number 15
_refine_ls_R_factor_all 0.0495
loop_
_symmetry_equiv_pos_site_id
_symmetry_equiv_pos_as_xyz
1 'x, -y, z+1/2'
2 '-x, -y, -z'
3 '-x, y, -z+1/2'
4 'x, y, z'
5 'x+1/2, -y+1/2, z+1/2'
6 '-x+1/2, -y+1/2, -z'
7 '-x+1/2, y+1/2, -z+1/2'
8 'x+1/2, y+1/2, z'
loop_
_atom_type_symbol
_atom_type_oxidation_number
Na1+ 1
Nb4+ 4
P5+ 5
S2- -2
S1- -1
S2- -2
S1- -1
S2- -2
S1- -1
S2- -2
loop_
_atom_site_label
_atom_site_type_symbol
_atom_site_symmetry_multiplicity
_atom_site_Wyckoff_symbol
_atom_site_fract_x
_atom_site_fract_y
_atom_site_fract_z
_atom_site_B_iso_or_equiv
_atom_site_occupancy
_atom_site_attached_hydrogens
Na1 Na1+ 8 f .4431(1) .4969(5) .3806(3) .039(1) 1. 0
Nb1 Nb4+ 8 f .3582(1) .0661(1) .2769(1) .015(1) 1. 0
Nb2 Nb4+ 8 f .3579(1) .9398(1) .4867(1) .015(1) 1. 0
P1 P5+ 8 f .3955(1) .3927(2) .1293(1) .018(1) 1. 0
S1 S2- 8 f .4290(1) .1508(2) .1332(1) .017(1) 1. 0
S2 S1- 8 f .4306(1) .1222(2) .4188(1) .022(1) 1. 0
S3 S1- 8 f .2882(1) .0497(2) .1297(1) .018(1) 1. 0
S4 S2- 8 f .3499(1) .3937(2) .2604(1) .021(1) 1. 0
S5 S1- 8 f .4316(1) .8869(2) .3512(1) .022(1) 1. 0
S6 S2- 8 f .3491(1) .6122(2) .4974(1) .022(1) 1. 0
S7 S1- 8 f .3414(1) .8488(2) .1333(1) .019(1) 1. 0
S8 S1- 8 f .2871(1) .1285(2) .4041(1) .023(1) 1. 0
S9 S1- 8 f .2868(1) .8837(3) .3561(1) .024(1) 1. 0
S10 S2- 8 f .4475(1) .5858(2) .1287(1) .030(1) 1. 0
#End of TTdata_59706-ICSD