
#(C) 2019 by FIZ Karlsruhe - Leibniz Institute for Information Infrastructure.  All rights reserved.
data_59909-ICSD
_database_code_ICSD 59909
_audit_creation_date 2005-10-01
_chemical_name_systematic 'Disamarium sodium iridium hexaoxide'
_chemical_formula_structural 'Sm2 Na Ir O6'
_chemical_formula_sum 'Ir1 Na1 O6 Sm2'
_chemical_name_structure_type Perovskite-Na3AlF6
_exptl_crystal_density_diffrn 8.04
_cell_measurement_temperature 294.
_publ_section_title 'Sm2 Na Ir O6, a monoclinically distorted double perovskite'
loop_
_citation_id
_citation_journal_full
_citation_year
_citation_journal_volume
_citation_page_first
_citation_page_last
_citation_journal_id_ASTM
primary 'Acta Crystallographica, Section E: Structure Reports Online' 2005 61 i3
i5 ACSEBH
loop_
_publ_author_name
'Mugavero, S.J.'
'Puzdrjakova, I.V.'
'Smith, M.D.'
'zur Loye, H.C.'
_cell_length_a 5.4656(2)
_cell_length_b 5.8880(2)
_cell_length_c 7.8714(3)
_cell_angle_alpha 90.
_cell_angle_beta 91.0970(10)
_cell_angle_gamma 90.
_cell_volume 253.27
_cell_formula_units_Z 2
_symmetry_space_group_name_H-M 'P 1 21/n 1'
_symmetry_Int_Tables_number 14
_refine_ls_R_factor_all 0.029
loop_
_symmetry_equiv_pos_site_id
_symmetry_equiv_pos_as_xyz
1 '-x+1/2, y+1/2, -z+1/2'
2 '-x, -y, -z'
3 'x+1/2, -y+1/2, z+1/2'
4 'x, y, z'
loop_
_atom_type_symbol
_atom_type_oxidation_number
Sm3+ 3
Na1+ 1
Ir5+ 5
O2- -2
loop_
_atom_site_label
_atom_site_type_symbol
_atom_site_symmetry_multiplicity
_atom_site_Wyckoff_symbol
_atom_site_fract_x
_atom_site_fract_y
_atom_site_fract_z
_atom_site_B_iso_or_equiv
_atom_site_occupancy
_atom_site_attached_hydrogens
Sm1 Sm3+ 4 e 0.47863(5) 0.07291(5) 0.25378(4) 0.01000(9) 1 0
Na1 Na1+ 2 a 0. 0. 0. 0.0091(6) 1 0
Ir1 Ir5+ 2 b 0.5 0.5 0. 0.00730(8) 1 0
O1 O2- 4 e 0.2037(8) 0.3260(7) 0.0533(5) 0.0115(7) 1 0
O2 O2- 4 e 0.6253(8) 0.4450(7) 0.2320(5) 0.0106(7) 1 0
O3 O2- 4 e 0.3389(8) 0.7825(8) 0.0719(5) 0.0123(7) 1 0
loop_
_atom_site_aniso_label
_atom_site_aniso_type_symbol
_atom_site_aniso_U_11
_atom_site_aniso_U_22
_atom_site_aniso_U_33
_atom_site_aniso_U_12
_atom_site_aniso_U_13
_atom_site_aniso_U_23
Sm1 Sm3+ 0.01074(14) 0.00799(14) 0.01126(13) -0.00048(9) 0.00014(9) 0.00022(9)
Na1 Na1+ 0.0092(15) 0.0102(15) 0.0078(13) -0.0013(10) -0.0035(11) 0.0008(11)
Ir1 Ir5+ 0.00742(13) 0.00669(14) 0.00777(12) -0.00014(8) 0.00000(9) 0.00014(9)
O1 O2- 0.0153(19) 0.0057(18) 0.0135(17) -0.0026(13) 0.0027(14) -0.0001(14)
O2 O2- 0.0094(18) 0.0124(19) 0.0101(16) -0.0016(14) -0.0002(13) -0.0003(14)
O3 O2- 0.0139(19) 0.0091(18) 0.0137(17) 0.0044(14) -0.0023(14) -0.0025(14)
#End of TTdata_59909-ICSD