
#(C) 2019 by FIZ Karlsruhe - Leibniz Institute for Information Infrastructure.  All rights reserved.
data_59917-ICSD
_database_code_ICSD 59917
_audit_creation_date 2005-10-01
_chemical_name_systematic 'Dipotassium sodium hexacyanocobaltate(III)'
_chemical_formula_structural 'K2 Na (Co (C N)6)'
_chemical_formula_sum 'C6 Co1 K2 N6 Na1'
_exptl_crystal_density_diffrn 1.92
_cell_measurement_temperature 296.
_publ_section_title 'K2 Na [Co (C N)6]'
loop_
_citation_id
_citation_journal_full
_citation_year
_citation_journal_volume
_citation_page_first
_citation_page_last
_citation_journal_id_ASTM
primary 'Acta Crystallographica, Section E: Structure Reports Online' 2005 61
i26 i27 ACSEBH
loop_
_publ_author_name
'Ilyukhin, A.B.'
'Kotova, I.Yu.'
_cell_length_a 7.0276(7)
_cell_length_b 7.5566(6)
_cell_length_c 10.2883(8)
_cell_angle_alpha 90
_cell_angle_beta 90.665(12)
_cell_angle_gamma 90
_cell_volume 546.32
_cell_formula_units_Z 2
_symmetry_space_group_name_H-M 'P 1 21/n 1'
_symmetry_Int_Tables_number 14
_refine_ls_R_factor_all 0.056
loop_
_symmetry_equiv_pos_site_id
_symmetry_equiv_pos_as_xyz
1 '-x+1/2, y+1/2, -z+1/2'
2 '-x, -y, -z'
3 'x+1/2, -y+1/2, z+1/2'
4 'x, y, z'
loop_
_atom_type_symbol
_atom_type_oxidation_number
Co3+ 3
K1+ 1
Na1+ 1
N3- -3
C2+ 2
loop_
_atom_site_label
_atom_site_type_symbol
_atom_site_symmetry_multiplicity
_atom_site_Wyckoff_symbol
_atom_site_fract_x
_atom_site_fract_y
_atom_site_fract_z
_atom_site_B_iso_or_equiv
_atom_site_occupancy
_atom_site_attached_hydrogens
Co1 Co3+ 2 d 0 0.5 0.5 0.01692(8) 1 0
K1 K1+ 4 e 0.02605(5) 0.07903(4) 0.24778(3) 0.03779(10) 1 0
Na1 Na1+ 2 c 0 0.5 0 0.02363(15) 1 0
N1 N3- 4 e 0.35585(18) 0.28980(17) 0.43703(13) 0.0380(3) 1 0
N2 N3- 4 e 0.20696(18) 0.83718(16) 0.42294(13) 0.0359(3) 1 0
N3 N3- 4 e 0.13619(19) 0.54771(18) 0.77915(11) 0.0345(2) 1 0
C1 C2+ 4 e 0.22183(17) 0.36863(15) 0.46199(11) 0.0229(2) 1 0
C2 C2+ 4 e 0.12688(16) 0.71142(15) 0.45273(11) 0.0226(2) 1 0
C3 C2+ 4 e 0.08538(17) 0.52756(15) 0.67371(12) 0.0233(2) 1 0
loop_
_atom_site_aniso_label
_atom_site_aniso_type_symbol
_atom_site_aniso_U_11
_atom_site_aniso_U_22
_atom_site_aniso_U_33
_atom_site_aniso_U_12
_atom_site_aniso_U_13
_atom_site_aniso_U_23
Co1 Co3+ 0.01640(12) 0.01479(11) 0.01958(11) 0.00040(6) 0.00015(7) 0.00050(6)
K1 K1+ 0.03516(17) 0.02944(16) 0.04877(18) 0.00337(11) 0.00082(13) -0.00071(12)
Na1 Na1+ 0.0237(4) 0.0212(3) 0.0260(3) -0.0006(2) -0.0006(3) 0.0009(2)
N1 N3- 0.0326(6) 0.0315(6) 0.0501(7) 0.0119(5) 0.0080(5) 0.0064(5)
N2 N3- 0.0330(6) 0.0283(5) 0.0463(6) -0.0079(5) -0.0046(5) 0.0063(5)
N3 N3- 0.0374(6) 0.0410(6) 0.0250(5) 0.0022(5) -0.0014(4) -0.0015(5)
C1 C2+ 0.0240(5) 0.0188(5) 0.0258(5) 0.0004(4) 0.0004(4) 0.0025(4)
C2 C2+ 0.0209(5) 0.0208(5) 0.0262(5) 0.0003(4) -0.0015(4) 0.0006(4)
C3 C2+ 0.0224(5) 0.0213(5) 0.0262(5) 0.0016(4) 0.0018(4) 0.0006(4)
#End of TTdata_59917-ICSD