
#(C) 2019 by FIZ Karlsruhe - Leibniz Institute for Information Infrastructure.  All rights reserved.
data_59977-ICSD
_database_code_ICSD 59977
_audit_creation_date 2005-10-01
_audit_update_record 2012-08-01
_chemical_name_systematic 'Sodium titaniumm gallium oxide (0.8/1.2/4.8/10)'
_chemical_formula_structural 'Na0.8 (Ti1.2 Ga0.8) Ga4 O10'
_chemical_formula_sum 'Ga4.8 Na0.8 O10 Ti1.2'
_chemical_name_structure_type Na1-xTi1+xGa5-xO10
_exptl_crystal_density_diffrn 5.
_cell_measurement_temperature 299.
_publ_section_title

;
Structure refinements of Na(0.8) Ti(1.2) Ga(4.8) O10: x-ray diffraction
analysis for the sodium ion distribution in a one-dimensional tunnel-like
space
;
loop_
_citation_id
_citation_journal_full
_citation_year
_citation_journal_volume
_citation_page_first
_citation_page_last
_citation_journal_id_ASTM
primary 'Acta Crystallographica, Section B: Structural Science' 2004 60 692 697
ASBSDK
loop_
_publ_author_name
'Michiue, Y.'
'Sato, A.'
_cell_length_a 12.1008(8)
_cell_length_b 3.0113(2)
_cell_length_c 10.4100(6)
_cell_angle_alpha 90
_cell_angle_beta 92.258(4)
_cell_angle_gamma 90
_cell_volume 379.04
_cell_formula_units_Z 2
_symmetry_space_group_name_H-M 'C 1 2/m 1'
_symmetry_Int_Tables_number 12
_refine_ls_R_factor_all 0.0367
loop_
_symmetry_equiv_pos_site_id
_symmetry_equiv_pos_as_xyz
1 '-x, y, -z'
2 '-x, -y, -z'
3 'x, -y, z'
4 'x, y, z'
5 '-x+1/2, y+1/2, -z'
6 '-x+1/2, -y+1/2, -z'
7 'x+1/2, -y+1/2, z'
8 'x+1/2, y+1/2, z'
loop_
_atom_type_symbol
_atom_type_oxidation_number
Na1+ 1
Ga3+ 3
Ti4+ 4
O2- -2
loop_
_atom_site_label
_atom_site_type_symbol
_atom_site_symmetry_multiplicity
_atom_site_Wyckoff_symbol
_atom_site_fract_x
_atom_site_fract_y
_atom_site_fract_z
_atom_site_B_iso_or_equiv
_atom_site_occupancy
_atom_site_attached_hydrogens
Na1 Na1+ 2 c 0 0 0.5 0.1168 0.800(6) 0
Ga1 Ga3+ 4 i 0.063721(18) 0 0.16342(2) 0.00548(5) 1 0
Ga2 Ga3+ 4 i 0.323689(18) 0 0.10155(2) 0.00568(5) 1 0
Ga3 Ga3+ 4 i 0.26463(3) 0 0.62589(3) 0.00755(6) 0.400(3) 0
Ti1 Ti4+ 4 i 0.26463(3) 0 0.62589(3) 0.00755(6) 0.600(3) 0
O1 O2- 4 i 0.16416(12) 0 0.03187(14) 0.0060(3) 1 0
O2 O2- 4 i 0.13005(13) 0 0.32495(14) 0.0078(3) 1 0
O3 O2- 4 i 0.20436(13) 0 0.78849(14) 0.0071(3) 1 0
O4 O2- 4 i 0.32465(13) 0 0.44564(14) 0.0082(3) 1 0
O5 O2- 4 i 0.48027(12) 0 0.14294(16) 0.0081(3) 1 0
loop_
_atom_site_aniso_label
_atom_site_aniso_type_symbol
_atom_site_aniso_U_11
_atom_site_aniso_U_22
_atom_site_aniso_U_33
_atom_site_aniso_U_12
_atom_site_aniso_U_13
_atom_site_aniso_U_23
Na1 Na1+ 0.020832 0.291895 0.038548 0 0.01128 0
Ga1 Ga3+ 0.00490(8) 0.00561(8) 0.00592(7) 0 -0.00005(6) 0
Ga2 Ga3+ 0.00476(9) 0.00526(8) 0.00693(7) 0 -0.00074(6) 0
Ga3 Ga3+ 0.00490(8) 0.00561(8) 0.00592(7) 0 -0.00005(6) 0
Ti1 Ti4+ 0.01014(12) 0.00702(11) 0.00549(8) 0 0.00043(7) 0
O1 O2- 0.0049(5) 0.0071(5) 0.0061(4) 0 0.0001(4) 0
O2 O2- 0.0083(5) 0.0086(6) 0.0064(4) 0 -0.0015(4) 0
O3 O2- 0.0105(6) 0.0056(5) 0.0053(4) 0 0.0017(4) 0
O4 O2- 0.0083(5) 0.0094(6) 0.0070(4) 0 -0.0002(4) 0
O5 O2- 0.0048(5) 0.0055(5) 0.0138(5) 0 -0.0015(4) 0
#End of TTdata_59977-ICSD