
#(C) 2019 by FIZ Karlsruhe - Leibniz Institute for Information Infrastructure.  All rights reserved.
data_60032-ICSD
_database_code_ICSD 60032
_audit_creation_date 1986-04-14
_audit_update_record 2005-10-01
_chemical_name_systematic 'Disodium dithionate dideuteriohydrate'
_chemical_formula_structural 'Na2 (S2 O6) (D2 O)2'
_chemical_formula_sum 'D4 Na2 O8 S2'
_chemical_name_structure_type Na2S2O6(H2O)2
_exptl_crystal_density_diffrn 2.22
_cell_measurement_temperature 294.
_publ_section_title

;
Bonding in (S2 O6)(2-): Refinement and pictorial representation from X-ray
diffraction study of Na2 S2 O6 (H2 O)2 and Na2 S2 O6 (D2 O)2
;
loop_
_citation_id
_citation_journal_full
_citation_year
_citation_journal_volume
_citation_page_first
_citation_page_last
_citation_journal_id_ASTM
primary

;
Acta Crystallographica, Section B: Structural Crystallography and Crystal
Chemistry
; 1980 36 512 523 ACBCAR
loop_
_publ_author_name
'Kirfel, A.'
'Will, G.'
_cell_length_a 6.413(10)
_cell_length_b 10.756(10)
_cell_length_c 10.671(10)
_cell_angle_alpha 90.
_cell_angle_beta 90.
_cell_angle_gamma 90.
_cell_volume 736.07
_cell_formula_units_Z 4
_symmetry_space_group_name_H-M 'P n m a'
_symmetry_Int_Tables_number 62
_refine_ls_R_factor_all 0.0172
loop_
_symmetry_equiv_pos_site_id
_symmetry_equiv_pos_as_xyz
1 'x+1/2, y, -z+1/2'
2 'x, -y+1/2, z'
3 '-x+1/2, y+1/2, z+1/2'
4 '-x, -y, -z'
5 '-x+1/2, -y, z+1/2'
6 '-x, y+1/2, -z'
7 'x+1/2, -y+1/2, -z+1/2'
8 'x, y, z'
loop_
_atom_type_symbol
_atom_type_oxidation_number
S5+ 5
O2- -2
Na1+ 1
D1+ 1
loop_
_atom_site_label
_atom_site_type_symbol
_atom_site_symmetry_multiplicity
_atom_site_Wyckoff_symbol
_atom_site_fract_x
_atom_site_fract_y
_atom_site_fract_z
_atom_site_B_iso_or_equiv
_atom_site_occupancy
_atom_site_attached_hydrogens
S1 S5+ 4 c 0.2495(1) 0.25 0.4586(1) . 1. 0
S2 S5+ 4 c -.0018(1) 0.25 0.5908(1) . 1. 0
O1 O2- 8 d 0.3647(2) 0.1366(1) 0.4832(1) . 1. 0
O2 O2- 4 c 0.1432(3) 0.25 0.3380(2) . 1. 0
O3 O2- 8 d -.1146(2) 0.1365(1) 0.5630(1) . 1. 0
O4 O2- 4 c 0.0955(3) 0.25 0.7138(2) . 1. 0
O5 O2- 8 d 0.2516(2) 0.0442(1) 0.1891(1) . 1. 0
Na1 Na1+ 8 d 0.0687(1) 0.0621(1) 0.8471(1) . 1. 0
D1 D1+ 8 d 0.812(4) 0.443(3) 0.370(3) . 1. 0
D2 D1+ 8 d 0.731(4) 0.393(2) 0.278(2) . 1. 0
loop_
_atom_site_aniso_label
_atom_site_aniso_type_symbol
_atom_site_aniso_U_11
_atom_site_aniso_U_22
_atom_site_aniso_U_33
_atom_site_aniso_U_12
_atom_site_aniso_U_13
_atom_site_aniso_U_23
S1 S5+ 0.0142(1) 0.0146(1) 0.0134(2) 0 0.0006(1) 0
S2 S5+ 0.0137(1) 0.0162(2) 0.0140(2) 0 0.0008(1) 0
O1 O2- 0.0240(4) 0.0231(4) 0.0236(4) 0.0095(4) 0.0011(3) 0.0031(4)
O2 O2- 0.0260(6) 0.0225(6) 0.0138(5) 0 -.0024(5) 0
O3 O2- 0.0235(4) 0.0282(4) 0.0278(4) -.0135(4) 0.0056(4) -.0056(4)
O4 O2- 0.0259(6) 0.0289(6) 0.0142(5) 0 -.0016(5) 0
O5 O2- 0.0286(5) 0.0235(4) 0.0207(4) 0.0005(4) -.0003(4) -.0026(3)
Na1 Na1+ 0.0228(2) 0.0287(2) 0.0272(2) 0.0035(2) -.0033(2) -.0041(2)
#End of TTdata_60032-ICSD