
#(C) 2017 by FIZ Karlsruhe - Leibniz Institute for Information Infrastructure.  All rights reserved.
data_6042-ICSD
_database_code_ICSD 6042
_audit_creation_date 1980-01-01
_audit_update_record 2010-02-01
_chemical_name_systematic 'Barium lithium hexafluorochromate(III)'
_chemical_formula_structural 'Ba Li (Cr F6)'
_chemical_formula_sum 'Ba1 Cr1 F6 Li1'
_chemical_name_structure_type LiBaCrF6
_exptl_crystal_density_diffrn 4.27
_publ_section_title 'Die Kristallstruktur des quaternaeren Fluorids Ba Li Cr F6'
loop_
_citation_id
_citation_journal_full
_citation_year
_citation_journal_volume
_citation_page_first
_citation_page_last
_citation_journal_id_ASTM
primary 'Zeitschrift fuer Anorganische und Allgemeine Chemie (1950) (DE)' 1974
406 23 37 ZAACAB
loop_
_publ_author_name
'Babel, D.'
_cell_length_a 5.397(3)
_cell_length_b 10.355(5)
_cell_length_c 8.638(5)
_cell_angle_alpha 90.
_cell_angle_beta 90.72(5)
_cell_angle_gamma 90.
_cell_volume 482.7
_cell_formula_units_Z 4
_symmetry_space_group_name_H-M 'P 1 21/c 1'
_symmetry_Int_Tables_number 14
_refine_ls_R_factor_all 0.044
loop_
_symmetry_equiv_pos_site_id
_symmetry_equiv_pos_as_xyz
1 'x, -y+1/2, z+1/2'
2 '-x, -y, -z'
3 '-x, y+1/2, -z+1/2'
4 'x, y, z'
loop_
_atom_type_symbol
_atom_type_oxidation_number
Li1+ 1
Ba2+ 2
Cr3+ 3
F1- -1
loop_
_atom_site_label
_atom_site_type_symbol
_atom_site_symmetry_multiplicity
_atom_site_Wyckoff_symbol
_atom_site_fract_x
_atom_site_fract_y
_atom_site_fract_z
_atom_site_B_iso_or_equiv
_atom_site_occupancy
_atom_site_attached_hydrogens
Li1 Li1+ 4 e 0.2434(31) 0.5892(18) 0.1807(21) 0.948 1. 0
Ba1 Ba2+ 4 e 0.30094(10) 0.18774(6) 0.00245(7) . 1. 0
Cr1 Cr3+ 4 e 0.76083(24) 0.41204(15) 0.23047(17) . 1. 0
F1 F1- 4 e 0.46122(95) 0.49334(56) 0.29665(67) . 1. 0
F2 F1- 4 e 0.6038(10) 0.24575(58) 0.25625(66) . 1. 0
F3 F1- 4 e 0.8375(11) 0.40878(63) 0.44615(72) . 1. 0
F4 F1- 4 e 0.6581(11) 0.39850(67) 0.02283(75) . 1. 0
F5 F1- 4 e 0.1054(10) 0.0816(6) 0.29245(73) . 1. 0
F6 F1- 4 e 0.0757(11) 0.34230(62) 0.19327(78) . 1. 0
loop_
_atom_site_aniso_label
_atom_site_aniso_type_symbol
_atom_site_aniso_U_11
_atom_site_aniso_U_22
_atom_site_aniso_U_33
_atom_site_aniso_U_12
_atom_site_aniso_U_13
_atom_site_aniso_U_23
Ba1 Ba2+ 0.592 0.768 0.636 -.011 0.117 -.243
Cr1 Cr3+ 0.205 0.317 0.549 -.036 0.103 -.14
F1 F1- 0.404 0.965 1.432 0.297 0.194 0.111
F2 F1- 1.237 0.313 1.409 -.217 0.067 0.025
F3 F1- 1.49 1.51 1.164 0.212 -.408 -.036
F4 F1- 2.281 1.574 0.859 -.454 0.319 -.476
F5 F1- 1.49 0.412 1.599 0.36 0.27 -.057
F6 F1- 0.916 1.441 2.48 0.219 0.145 -.483
#End of TTdata_6042-ICSD