
#(C) 2019 by FIZ Karlsruhe - Leibniz Institute for Information Infrastructure.  All rights reserved.
data_60508-ICSD
_database_code_ICSD 60508
_audit_creation_date 1986-12-03
_audit_update_record 2007-08-01
_chemical_name_systematic 'Tetraammonium sodium triphosphate(V) tetrahydrate'
_chemical_formula_structural '(N H4)4 Na (P3 O10) (H2 O)4'
_chemical_formula_sum 'H24 N4 Na1 O14 P3'
_exptl_crystal_density_diffrn 1.66
_publ_section_title
'Structure of tetraammonium monosodium triphosphate tetrahydrate'
loop_
_citation_id
_citation_journal_full
_citation_year
_citation_journal_volume
_citation_page_first
_citation_page_last
_citation_journal_id_ASTM
primary 'Acta Crystallographica, Section C: Crystal Structure Communications'
1985 41 1553 1555 ACSCEE
loop_
_publ_author_name
'Averbuch-Pouchot, M.T.'
'Durif, A.'
_cell_length_a 11.813(8)
_cell_length_b 7.292(3)
_cell_length_c 20.20(8)
_cell_angle_alpha 90.
_cell_angle_beta 105.19(5)
_cell_angle_gamma 90.
_cell_volume 1679.24
_cell_formula_units_Z 4
_symmetry_space_group_name_H-M 'C 1 2/c 1'
_symmetry_Int_Tables_number 15
_refine_ls_R_factor_all 0.026
loop_
_symmetry_equiv_pos_site_id
_symmetry_equiv_pos_as_xyz
1 'x, -y, z+1/2'
2 '-x, -y, -z'
3 '-x, y, -z+1/2'
4 'x, y, z'
5 'x+1/2, -y+1/2, z+1/2'
6 '-x+1/2, -y+1/2, -z'
7 '-x+1/2, y+1/2, -z+1/2'
8 'x+1/2, y+1/2, z'
loop_
_atom_type_symbol
_atom_type_oxidation_number
P5+ 5
Na1+ 1
N3- -3
O2- -2
H1+ 1
loop_
_atom_site_label
_atom_site_type_symbol
_atom_site_symmetry_multiplicity
_atom_site_Wyckoff_symbol
_atom_site_fract_x
_atom_site_fract_y
_atom_site_fract_z
_atom_site_B_iso_or_equiv
_atom_site_occupancy
_atom_site_attached_hydrogens
P1 P5+ 4 e 0 0.0763(1) 0.75 . 1. 0
P2 P5+ 8 f 0.966400(5) 0.32500(8) 0.63149(3) . 1. 0
Na1 Na1+ 4 a 0 0 0 . 1. 0
N1 N3- 8 f 0.1799(2) 0.3916(3) 0.2559(1) . 1. 0
N2 N3- 8 f 0.1994(2) 0.4519(3) 0.0448(1) . 1. 0
O1 O2- 8 f 0.4259(1) 0.2894(2) 0.19256(8) . 1. 0
O2 O2- 8 f 0.4131(1) 0.5295(2) 0.27708(8) . 1. 0
O3 O2- 8 f 0.4174(1) 0.2845(3) 0.06652(8) . 1. 0
O4 O2- 8 f 0.3996(2) -.0062(2) 0.13044(9) . 1. 0
O5 O2- 8 f 0.4042(1) 0.1554(2) 0.34785(8) . 1. 0
O6 O2- 8 f 0.3165(2) 0.3576(3) 0.43842(9) . 1. 0
O7 O2- 8 f 0.0329(2) 0.2112(3) 0.09500(9) . 1. 0
H1 H1+ 8 f 0.341(3) 0.307(5) 0.401(2) . 1. 0
H2 H1+ 8 f 0.251(3) 0.407(5) 0.418(2) . 1. 0
H3 H1+ 8 f 0.025(3) 0.273(5) 0.402(2) . 1. 0
H4 H1+ 8 f 0.044(3) 0.132(5) 0.136(2) . 1. 0
H5 H1+ 8 f 0.163(3) 0.421(5) 0.299(2) . 1. 0
H6 H1+ 8 f 0.151(3) 0.279(5) 0.238(2) . 1. 0
H7 H1+ 8 f 0.148(3) 0.466(5) 0.219(2) . 1. 0
H8 H1+ 8 f 0.259(3) 0.395(5) 0.264(2) . 1. 0
H9 H1+ 8 f 0.347(3) 0.108(5) 0.002(2) . 1. 0
H10 H1+ 8 f 0.281(3) 0.416(5) 0.059(2) . 1. 0
H11 H1+ 8 f 0.305(4) 0.062(6) 0.464(2) . 1. 0
H12 H1+ 8 f 0.162(3) 0.417(5) 0.076(2) . 1. 0
loop_
_atom_site_aniso_label
_atom_site_aniso_type_symbol
_atom_site_aniso_beta_11
_atom_site_aniso_beta_22
_atom_site_aniso_beta_33
_atom_site_aniso_beta_12
_atom_site_aniso_beta_13
_atom_site_aniso_beta_23
P1 P5+ 0.00232(4) 0.0050(1) 0.00077(1) 0 0.000285(20) 0
P2 P5+ 0.00228(3) 0.00591(8) 0.00078(1) 0.00030(5) 0.000365(15) 0.000025(30)
Na1 Na1+ 0.00405(9) 0.0091(2) 0.00109(3) 0.00005(15) 0.000665(40) -.00010(5)
N1 N3- 0.0037(1) 0.0079(3) 0.00128(4) 0.00005(20) 0.00055(5) 0.00005(10)
N2 N3- 0.0048(1) 0.0122(4) 0.00136(4) 0.0010(2) 0.00090(5) -.00015(10)
O1 O2- 0.0029(1) 0.0107(3) 0.00115(3) -.00155(1) 0.000660(45) -.0015(1)
O2 O2- 0.0034(1) 0.0068(3) 0.00150(4) 0.00110(15) 0.00070(5) -.0006(1)
O3 O2- 0.0038(1) 0.0122(3) 0.00101(3) 0.00065(15) 0.00045(5) 0.0011(1)
O4 O2- 0.0045(1) 0.0068(3) 0.00185(4) -.0019(15) 0.00120(5) -.00075(10)
O5 O2- 0.00255(9) 0.0097(3) 0.00132(4) -.00035(15) 0.000475(45) -.0006(1)
O6 O2- 0.0039(1) 0.0157(4) 0.00150(4) 0.0011(2) 0.00070(5) -.00035(10)
O7 O2- 0.0085(2) 0.0104(3) 0.00152(4) 0.0017(2) 0.00160(5) 0.00015(10)
#End of TTdata_60508-ICSD