
#(C) 2017 by FIZ Karlsruhe - Leibniz Institute for Information Infrastructure.  All rights reserved.
data_60850-ICSD
_database_code_ICSD 60850
_audit_creation_date 1988-02-22
_chemical_name_systematic 'Lithium tetraiodogallate'
_chemical_formula_structural 'Li Ga I4'
_chemical_formula_sum 'Ga1 I4 Li1'
_chemical_name_structure_type LiAlCl4
_exptl_crystal_density_diffrn 4.36
_publ_section_title 'Darstellung und Kristallstrukturen von LiGaCl4 und LiGaI4'
loop_
_citation_id
_citation_journal_full
_citation_year
_citation_journal_volume
_citation_page_first
_citation_page_last
_citation_journal_id_ASTM
primary 'Zeitschrift fuer Naturforschung, B: Chemical Sciences' 1987 42 248 250
ZNBSEN
loop_
_publ_author_name
'Hoenle, W.'
'Hettich, B.'
'Simon, A.'
_cell_length_a 14.863(5)
_cell_length_b 7.415(1)
_cell_length_c 8.081(3)
_cell_angle_alpha 90.
_cell_angle_beta 92.91(2)
_cell_angle_gamma 90.
_cell_volume 889.45
_cell_formula_units_Z 4
_symmetry_space_group_name_H-M 'P 1 21/a 1'
_symmetry_Int_Tables_number 14
_refine_ls_R_factor_all 0.044
loop_
_symmetry_equiv_pos_site_id
_symmetry_equiv_pos_as_xyz
1 'x+1/2, -y+1/2, z'
2 '-x, -y, -z'
3 '-x+1/2, y+1/2, -z'
4 'x, y, z'
loop_
_atom_type_symbol
_atom_type_oxidation_number
Ga3+ 3
I1- -1
Li1+ 1
loop_
_atom_site_label
_atom_site_type_symbol
_atom_site_symmetry_multiplicity
_atom_site_Wyckoff_symbol
_atom_site_fract_x
_atom_site_fract_y
_atom_site_fract_z
_atom_site_B_iso_or_equiv
_atom_site_occupancy
_atom_site_attached_hydrogens
Ga1 Ga3+ 4 e 0.90108(7) 0.3241(1) 0.7047(1) . 1. 0
I1 I1- 4 e 0.05400(5) 0.1731(1) 0.68914(9) . 1. 0
I2 I1- 4 e 0.93054(5) 0.6487(1) 0.80868(8) . 1. 0
I3 I1- 4 e 0.81472(5) 0.1739(1) 0.93729(8) . 1. 0
I4 I1- 4 e 0.80630(5) 0.3097(1) 0.43531(8) . 1. 0
Li1 Li1+ 4 e 0.3781(17) -.0071(33) 0.1571(32) . 1. 0
loop_
_atom_site_aniso_label
_atom_site_aniso_type_symbol
_atom_site_aniso_U_11
_atom_site_aniso_U_22
_atom_site_aniso_U_33
_atom_site_aniso_U_12
_atom_site_aniso_U_13
_atom_site_aniso_U_23
Ga1 Ga3+ 0.0366(6) 0.0314(6) 0.0296(5) -.0017(4) 0.0006(4) 0.0001(4)
I1 I1- 0.0402(4) 0.0448(4) 0.0461(5) -.0081(3) 0.0002(3) 0.0086(3)
I2 I1- 0.0486(4) 0.0301(3) 0.0396(4) -.0026(3) -.0035(3) -.0001(3)
I3 I1- 0.0469(4) 0.0468(4) 0.0342(4) 0.0024(3) 0.0049(3) -.0099(3)
I4 I1- 0.0435(4) 0.0424(4) 0.0333(4) 0.0000(3) -.0054(3) -.0046(3)
Li1 Li1+ 0.081(17) 0.064(16) 0.086(18) 0.012(13) 0.017(15) 0.027(13)
#End of TTdata_60850-ICSD