
#(C) 2019 by FIZ Karlsruhe - Leibniz Institute for Information Infrastructure.  All rights reserved.
data_61205-ICSD
_database_code_ICSD 61205
_audit_creation_date 1986-12-03
_chemical_name_systematic 'Sodium trihydroxozincate'
_chemical_formula_structural 'Na (Zn (O H)3)'
_chemical_formula_sum 'H3 Na1 O3 Zn1'
_exptl_crystal_density_diffrn 2.97
_cell_measurement_temperature 190.
_publ_section_title

;
Kristallstruktur und Konstitution von Natrium-trihydroxozinkat Na (Zn (O H)3)
bei 190 K
;
loop_
_citation_id
_citation_journal_full
_citation_year
_citation_journal_volume
_citation_page_first
_citation_page_last
_citation_journal_id_ASTM
primary 'Zeitschrift fuer Anorganische und Allgemeine Chemie (1950) (DE)' 1986
536 137 146 ZAACAB
loop_
_publ_author_name
'von Schnering, H.G.'
'Nesper, R.'
'Stoilova, D.'
_cell_length_a 10.839(6)
_cell_length_b 10.839(6)
_cell_length_c 5.308(4)
_cell_angle_alpha 90.
_cell_angle_beta 90.
_cell_angle_gamma 90.
_cell_volume 623.6
_cell_formula_units_Z 8
_symmetry_space_group_name_H-M 'P 42 b c'
_symmetry_Int_Tables_number 106
_refine_ls_R_factor_all 0.06
loop_
_symmetry_equiv_pos_site_id
_symmetry_equiv_pos_as_xyz
1 '-y+1/2, -x+1/2, z+1/2'
2 'y, -x, z+1/2'
3 '-x+1/2, y+1/2, z'
4 '-x, -y, z'
5 'y+1/2, x+1/2, z+1/2'
6 '-y, x, z+1/2'
7 'x+1/2, -y+1/2, z'
8 'x, y, z'
loop_
_atom_type_symbol
_atom_type_oxidation_number
Na1+ 1
Zn2+ 2
O2- -2
H1+ 1
loop_
_atom_site_label
_atom_site_type_symbol
_atom_site_symmetry_multiplicity
_atom_site_Wyckoff_symbol
_atom_site_fract_x
_atom_site_fract_y
_atom_site_fract_z
_atom_site_B_iso_or_equiv
_atom_site_occupancy
_atom_site_attached_hydrogens
Na1 Na1+ 8 c 0.3801(5) 0.4073(5) 0.968(2) . 1. 0
Zn1 Zn2+ 8 c 0.0567(1) 0.3071(1) 0 . 1. 0
O1 O2- 8 c 0.6698(8) 0.0682(9) 0.874(2) . 1. 0
O2 O2- 8 c 0.0971(9) 0.132(1) 0.936(2) . 1. 0
O3 O2- 8 c 0.880(1) 0.3154(9) 0.933(2) . 1. 0
H1 H1+ 8 c 0.602(8) 0.015(8) 0.841(9) 0.025 1. 0
H2 H1+ 8 c 0.161(8) 0.145(8) 0.939(9) 0.025 1. 0
H3 H1+ 8 c 0.863(8) 0.319(8) 0.747(9) 0.025 1. 0
loop_
_atom_site_aniso_label
_atom_site_aniso_type_symbol
_atom_site_aniso_U_11
_atom_site_aniso_U_22
_atom_site_aniso_U_33
_atom_site_aniso_U_12
_atom_site_aniso_U_13
_atom_site_aniso_U_23
Na1 Na1+ 0.0067(26) 0.0133(26) 0.0241(43) -.0011(19) 0.0020(32) 0.0016(29)
Zn1 Zn2+ 0.0107(7) 0.0092(7) 0.0126(6) -.0010(6) -.0013(14) -.0001(17)
O1 O2- 0.0112(43) 0.0046(10) 0.0258(44) -.0024(36) 0.0003(38) 0.0027(39)
O2 O2- 0.0069(43) 0.0135(45) 0.0408(69) 0.0022(39) 0.0033(41) 0.0033(48)
O3 O2- 0.0190(45) 0.0096(40) 0.0095(43) 0.0008(37) -.0038(36) 0.0008(38)
#End of TTdata_61205-ICSD