
#(C) 2019 by FIZ Karlsruhe - Leibniz Institute for Information Infrastructure.  All rights reserved.
data_61402-ICSD
_database_code_ICSD 61402
_audit_creation_date 1988-02-22
_audit_update_record 2012-08-01
_chemical_name_systematic 'Dipotassium trisodium thallate(III)'
_chemical_formula_structural 'K2 Na3 (Tl O4)'
_chemical_formula_sum 'K2 Na3 O4 Tl1'
_chemical_name_structure_type Li3Na2GaO4
_exptl_crystal_density_diffrn 4.04
_publ_section_title

;
Ein neues Oxothallat(III): K2 Na3 (Tl O4) (mit einer Bemerkung zum Begriff der
Isotypie)
;
loop_
_citation_id
_citation_journal_full
_citation_year
_citation_journal_volume
_citation_page_first
_citation_page_last
_citation_journal_id_ASTM
primary 'Journal of the Less-Common Metals' 1985 108 269 278 JCOMAH
loop_
_publ_author_name
'Koehler, J.'
'Hoppe, R.'
_cell_length_a 9.599(2)
_cell_length_b 9.281(2)
_cell_length_c 7.662(2)
_cell_angle_alpha 90.
_cell_angle_beta 90.
_cell_angle_gamma 90.
_cell_volume 682.59
_cell_formula_units_Z 4
_symmetry_space_group_name_H-M 'P n n m'
_symmetry_Int_Tables_number 58
_refine_ls_R_factor_all 0.0649
loop_
_symmetry_equiv_pos_site_id
_symmetry_equiv_pos_as_xyz
1 'x+1/2, -y+1/2, z+1/2'
2 '-x+1/2, y+1/2, z+1/2'
3 'x, y, -z'
4 '-x, -y, -z'
5 '-x+1/2, y+1/2, -z+1/2'
6 'x+1/2, -y+1/2, -z+1/2'
7 '-x, -y, z'
8 'x, y, z'
loop_
_atom_type_symbol
_atom_type_oxidation_number
Tl3+ 3
K1+ 1
Na1+ 1
O2- -2
loop_
_atom_site_label
_atom_site_type_symbol
_atom_site_symmetry_multiplicity
_atom_site_Wyckoff_symbol
_atom_site_fract_x
_atom_site_fract_y
_atom_site_fract_z
_atom_site_B_iso_or_equiv
_atom_site_occupancy
_atom_site_attached_hydrogens
Tl1 Tl3+ 4 g 0.1250(1) 0.2279(1) 0.5 . 1. 0
K1 K1+ 4 g 0.7406(4) 0.7653(3) 0 . 1. 0
K2 K1+ 4 f 0.5 0 0.2535(4) . 1. 0
Na1 Na1+ 8 h 0.6523(4) 0.5171(4) 0.2499(5) . 1. 0
Na2 Na1+ 4 g 0.0769(6) 0.7607(6) 0 . 1. 0
O1 O2- 4 g 0.2213(8) 0.4353(8) 0.5 . 1. 0
O2 O2- 8 h 0.4854(8) 0.7028(8) 0.2376(9) . 1. 0
O3 O2- 4 g 0.2187(7) 0.5525(8) 0 . 1. 0
loop_
_atom_site_aniso_label
_atom_site_aniso_type_symbol
_atom_site_aniso_U_11
_atom_site_aniso_U_22
_atom_site_aniso_U_33
_atom_site_aniso_U_12
_atom_site_aniso_U_13
_atom_site_aniso_U_23
Tl1 Tl3+ 0.0067(2) 0.0086(3) 0.0074(3) 0.0008(1) 0 0
K1 K1+ 0.0158(13) 0.0142(12) 0.0507(23) 0.0033(9) 0 0
K2 K1+ 0.0185(10) 0.0112(9) 0.0153(10) 0.0060(8) 0 0
Na1 Na1+ 0.0140(12) 0.0166(15) 0.0134(15) 0.0023(13) -.0010(13) -.0048(13)
Na2 Na1+ 0.0072(21) 0.0251(22) 0.0061(20) -.0048(18) 0 0
O1 O2- 0.0060(24) 0.0035(23) 0.0143(28) -.0011(21) 0 0
O2 O2- 0.0317(28) 0.0209(23) 0.0079(23) -.0034(23) -.0119(23) -.0051(22)
O3 O2- 0.0350(23) 0.0135(26) 0.0032(24) -.0137(22) 0 0
#End of TTdata_61402-ICSD