
#(C) 2019 by FIZ Karlsruhe - Leibniz Institute for Information Infrastructure.  All rights reserved.
data_6145-ICSD
_database_code_ICSD 6145
_audit_creation_date 1980-01-01
_audit_update_record 2012-08-01
_chemical_name_systematic 'Neodymium pentasodium tungstate'
_chemical_formula_structural 'Nd Na5 (W O4)4'
_chemical_formula_sum 'Na5 Nd1 O16 W4'
_chemical_name_structure_type Na5Lu(WO4)4
_exptl_crystal_density_diffrn 5.43
_publ_section_title

;
Crystal structure and fluorescence lifetime of a laser material Nd Na5 (W O4)4
;
loop_
_citation_id
_citation_journal_full
_citation_year
_citation_journal_volume
_citation_page_first
_citation_page_last
_citation_journal_id_ASTM
primary 'Materials Research Bulletin' 1974 9 775 780 MRBUAC
loop_
_publ_author_name
'Hong, H.Y.-P.'
'Dwight, K.'
_cell_length_a 11.559(2)
_cell_length_b 11.559(2)
_cell_length_c 11.453(2)
_cell_angle_alpha 90.
_cell_angle_beta 90.
_cell_angle_gamma 90.
_cell_volume 1530.24
_cell_formula_units_Z 4
_symmetry_space_group_name_H-M 'I 41/a S'
_symmetry_Int_Tables_number 88
_refine_ls_R_factor_all 0.077
loop_
_symmetry_equiv_pos_site_id
_symmetry_equiv_pos_as_xyz
1 'y, -x+1/2, z+1/4'
2 '-y, x+1/2, z+1/4'
3 'y, -x, -z'
4 '-y, x, -z'
5 '-x, -y+1/2, -z+1/4'
6 'x, y+1/2, -z+1/4'
7 '-x, -y, z'
8 'x, y, z'
9 'y+1/2, -x, z+3/4'
10 '-y+1/2, x, z+3/4'
11 'y+1/2, -x+1/2, -z+1/2'
12 '-y+1/2, x+1/2, -z+1/2'
13 '-x+1/2, -y, -z+3/4'
14 'x+1/2, y, -z+3/4'
15 '-x+1/2, -y+1/2, z+1/2'
16 'x+1/2, y+1/2, z+1/2'
loop_
_atom_type_symbol
_atom_type_oxidation_number
Nd3+ 3
Na1+ 1
W6+ 6
O2- -2
loop_
_atom_site_label
_atom_site_type_symbol
_atom_site_symmetry_multiplicity
_atom_site_Wyckoff_symbol
_atom_site_fract_x
_atom_site_fract_y
_atom_site_fract_z
_atom_site_B_iso_or_equiv
_atom_site_occupancy
_atom_site_attached_hydrogens
Nd1 Nd3+ 4 b 0 0 0.5 . 1. 0
Na1 Na1+ 4 a 0.5 0.5 0.5 . 1. 0
Na2 Na1+ 16 f 0.296(1) 0.125(1) 0.037(1) . 1. 0
W1 W6+ 16 f 0.1814(1) 0.4045(1) 0.0150(1) . 1. 0
O1 O2- 16 f 0.062(2) 0.382(2) 0.921(2) . 1. 0
O2 O2- 16 f 0.180(2) 0.285(2) 0.109(2) . 1. 0
O3 O2- 16 f 0.317(2) 0.415(2) 0.939(2) . 1. 0
O4 O2- 16 f 0.151(2) 0.530(2) 0.098(2) . 1. 0
loop_
_atom_site_aniso_label
_atom_site_aniso_type_symbol
_atom_site_aniso_beta_11
_atom_site_aniso_beta_22
_atom_site_aniso_beta_33
_atom_site_aniso_beta_12
_atom_site_aniso_beta_13
_atom_site_aniso_beta_23
Nd1 Nd3+ 0.0021(1) 0.0021(1) 0.0002(2) 0 0 0
Na1 Na1+ 0.003(1) 0.003(1) 0.002(2) 0 0 0
Na2 Na1+ 0.004(1) 0.004(1) 0.0006(9) 0.000(1) -.0001(9) -.0007(9)
W1 W6+ 0.0018(1) 0.0021(1) 0.00011(8) -.00005(8) 0.00013(7) 0.00024(7)
O1 O2- 0.003(2) 0.003(2) 0.001(2) 0.000(2) 0.001(1) 0.000(2)
O2 O2- 0.003(2) 0.003(2) 0.001(2) 0.001(2) 0.000(1) 0.000(2)
O3 O2- 0.004(2) 0.001(2) 0.001(1) 0.000(1) 0.000(1) 0.000(1)
O4 O2- 0.002(2) 0.002(2) 0.002(2) -.001(2) 0.000(1) 0.001(1)
#End of TTdata_6145-ICSD