
#(C) 2019 by FIZ Karlsruhe - Leibniz Institute for Information Infrastructure.  All rights reserved.
data_6168-ICSD
_database_code_ICSD 6168
_audit_creation_date 1980-01-01
_audit_update_record 1999-06-02
_chemical_name_systematic 'Sodium borate hydrate *'
_chemical_formula_structural 'Na4 (B10 O16 (O H)2) (H2 O)2'
_chemical_formula_sum 'H6 B10 Na4 O20'
_chemical_name_mineral Biringuccite
_exptl_crystal_density_diffrn 2.3
_publ_section_title
'The crystal structure of Biringuccite, Na4 (B10 O16 (O H)2 ) (H2 O)2'
loop_
_citation_id
_citation_journal_full
_citation_year
_citation_journal_volume
_citation_page_first
_citation_page_last
_citation_journal_id_ASTM
primary 'American Mineralogist' 1974 59 1005 1015 AMMIAY
loop_
_publ_author_name
'Corazza, E.'
'Menchetti, S.'
'Sabelli, C.'
_cell_length_a 11.1955(7)
_cell_length_b 6.5607(4)
_cell_length_c 20.75659(90)
_cell_angle_alpha 90.
_cell_angle_beta 93.891(6)
_cell_angle_gamma 90.
_cell_volume 1521.06
_cell_formula_units_Z 4
_symmetry_space_group_name_H-M 'P 1 21/c 1'
_symmetry_Int_Tables_number 14
_refine_ls_R_factor_all 0.073
loop_
_symmetry_equiv_pos_site_id
_symmetry_equiv_pos_as_xyz
1 'x, -y+1/2, z+1/2'
2 '-x, -y, -z'
3 '-x, y+1/2, -z+1/2'
4 'x, y, z'
loop_
_atom_type_symbol
_atom_type_oxidation_number
Na1+ 1
O2- -2
B3+ 3
H1+ 1
loop_
_atom_site_label
_atom_site_type_symbol
_atom_site_symmetry_multiplicity
_atom_site_Wyckoff_symbol
_atom_site_fract_x
_atom_site_fract_y
_atom_site_fract_z
_atom_site_B_iso_or_equiv
_atom_site_occupancy
_atom_site_attached_hydrogens
Na1 Na1+ 4 e 0.0582(3) 0.5021(5) 0.2243(1) . 1. 0
Na2 Na1+ 4 e 0.4394(2) 0.1123(5) 0.2650(1) . 1. 0
Na3 Na1+ 4 e 0.1531(3) 0.5519(6) 0.0447(2) . 1. 0
Na4 Na1+ 4 e 0.4717(3) 0.8478(5) 0.0948(1) . 1. 0
O1 O2- 4 e 0.3509(4) 0.6534(8) 0.1687(2) . 1. 0
O2 O2- 4 e 0.2911(4) 0.9899(8) 0.1748(2) . 1. 0
O3 O2- 4 e 0.2324(4) 0.3425(8) 0.1675(2) . 1. 0
O4 O2- 4 e 0.1444(4) 0.7376(8) 0.1465(2) . 1. 0
O5 O2- 4 e 0.0842(4) 0.0896(8) 0.1657(2) . 1. 0
O6 O2- 4 e 0.9519(4) 0.8115(7) 0.1839(2) . 1. 0
O7 O2- 4 e 0.9987(4) 0.9050(9) 0.0757(2) . 1. 0
O8 O2- 4 e 0.8168(4) 0.7285(8) 0.0905(2) . 1. 0
O9 O2- 4 e 0.8532(4) 0.8572(9) -.0107(2) . 1. 0
O10 O2- 4 e 0.8494(4) 0.4951(8) 0.1792(2) . 1. 0
O11 O2- 4 e 0.7349(4) 0.8029(8) 0.1911(2) . 1. 0
O12 O2- 4 e 0.7901(4) 0.1547(8) 0.1908(2) . 1. 0
O13 O2- 4 e 0.5853(4) 0.0516(8) 0.1735(2) . 1. 0
O14 O2- 4 e 0.6471(4) 0.4022(8) 0.1519(2) . 1. 0
O15 O2- 4 e 0.4504(4) 0.3327(8) 0.1795(2) . 1. 0
O16 O2- 4 e 0.5159(4) 0.2176(8) 0.0761(2) . 1. 0
O17 O2- 4 e 0.4102(4) 0.2959(9) -.0210(2) . 1. 0
O18 O2- 4 e 0.3435(4) 0.4285(8) 0.0778(2) . 1. 0
O19 O2- 4 e 0.3087(5) 0.8243(10) 0.0150(3) . 1. 0
O20 O2- 4 e -.0412(5) 0.3782(10) 0.0613(3) . 1. 0
B1 B3+ 4 e 0.2594(6) 0.7871(14) 0.1648(3) . 1. 0
B2 B3+ 4 e 0.2029(6) 0.1443(13) 0.1691(3) . 1. 0
B3 B3+ 4 e 0.0419(6) 0.8854(13) 0.1448(3) . 1. 0
B4 B3+ 4 e 0.8910(7) 0.8321(13) 0.0527(4) . 1. 0
B5 B3+ 4 e 0.8399(6) 0.7129(13) 0.1623(3) . 1. 0
B6 B3+ 4 e 0.7034(6) 0.0024(14) 0.1852(3) . 1. 0
B7 B3+ 4 e 0.7600(6) 0.3537(14) 0.1740(3) . 1. 0
B8 B3+ 4 e 0.5473(6) 0.2560(13) 0.1454(3) . 1. 0
B9 B3+ 4 e 0.4216(6) 0.3173(14) 0.0448(3) . 1. 0
B10 B3+ 4 e 0.3467(6) 0.4326(13) 0.1491(4) . 1. 0
H1 H1+ 4 e 0.36 0.82 -.015 4. 1. 0
H2 H1+ 4 e 0.28 0.97 0.01 4. 1. 0
H3 H1+ 4 e -.029 0.23 0.067 4. 1. 0
H4 H1+ 4 e -.055 0.415 0.103 4. 1. 0
H5 H1+ 4 e 0.91 0.93 -.035 4. 1. 0
H6 H1+ 4 e 0.343 0.31 -.037 4. 1. 0
loop_
_atom_site_aniso_label
_atom_site_aniso_type_symbol
_atom_site_aniso_beta_11
_atom_site_aniso_beta_22
_atom_site_aniso_beta_33
_atom_site_aniso_beta_12
_atom_site_aniso_beta_13
_atom_site_aniso_beta_23
Na1 Na1+ 0.0027(2) 0.013(1) 0.0011(1) -.0001(4) -.0002(1) 0.0016(2)
Na2 Na1+ 0.0032(2) 0.0100(9) 0.0009(1) -.0002(3) 0.0001(1) 0.0009(2)
Na3 Na1+ 0.0032(2) 0.0181(11) 0.0013(1) 0.0011(4) -.0003(1) -.0013(2)
Na4 Na1+ 0.0037(2) 0.0117(10) 0.0008(1) -.0010(4) 0.0003(1) -.0004(2)
O1 O2- 0.0013(3) 0.0032(14) 0.0011(1) 0.0003(5) 0.0000(1) -.0001(3)
O2 O2- 0.0018(4) 0.0013(15) 0.0018(1) 0.0001(5) 0.0001(2) -.0003(3)
O3 O2- 0.0021(3) 0.0039(5) 0.0009(1) -.0005(5) 0.0002(2) 0.0002(3)
O4 O2- 0.0012(3) 0.0062(15) 0.0009(1) 0.0004(5) -.0002(1) -.0004(3)
O5 O2- 0.0021(3) 0.0042(15) 0.0012(1) -.0004(5) 0.0002(2) 0.0001(3)
O6 O2- 0.0015(3) 0.0033(14) 0.0006(1) -.0004(5) 0.0000(1) -.0001(3)
O7 O2- 0.0022(4) 0.0105(16) 0.0008(1) -.0010(6) 0.0001(2) 0.0006(3)
O8 O2- 0.0018(3) 0.0104(16) 0.0006(1) -.0007(5) 0.0000(1) 0.0002(3)
O9 O2- 0.0026(4) 0.0114(17) 0.0008(1) -.0002(6) 0.0000(2) 0.0002(3)
O10 O2- 0.0011(3) 0.0044(15) 0.0010(1) -.0008(5) 0.0001(1) -.0002(3)
O11 O2- 0.0021(3) 0.0049(15) 0.0010(1) 0.0007(5) 0.0002(2) 0.0000(3)
O12 O2- 0.0023(4) 0.0023(15) 0.0017(1) -.0005(5) 0.0000(2) 0.0003(3)
O13 O2- 0.0014(3) 0.0060(15) 0.0009(1) 0.0000(5) -.0001(1) 0.0001(3)
O14 O2- 0.0016(3) 0.0069(15) 0.0009(1) -.0010(5) -.0003(2) 0.0006(3)
O15 O2- 0.0016(3) 0.0049(14) 0.0006(1) 0.0004(5) 0.0000(1) 0.0001(3)
O16 O2- 0.0018(3) 0.0084(15) 0.0007(1) 0.0010(5) -.0002(1) -.0002(3)
O17 O2- 0.0022(4) 0.0142(17) 0.0007(1) 0.0011(6) -.0001(2) -.0003(3)
O18 O2- 0.0026(4) 0.0087(16) 0.0007(1) 0.0010(6) 0.0001(2) 0.0000(3)
O19 O2- 0.0048(5) 0.0127(19) 0.0016(1) 0.0015(7) 0.0008(2) 0.0008(4)
O20 O2- 0.0064(5) 0.0137(19) 0.0015(1) 0.0017(8) 0.0011(2) 0.0000(4)
B1 B3+ 0.0020(5) 0.0065(25) 0.0004(2) 0.0003(8) 0.0004(2) -.0001(4)
B2 B3+ 0.0018(5) 0.0039(24) 0.0005(2) 0.0016(8) 0.0000(2) -.0002(4)
B3 B3+ 0.0012(5) 0.0013(23) 0.0008(2) -.0002(8) 0.0002(2) -.0003(4)
B4 B3+ 0.0025(5) 0.0022(24) 0.0007(2) 0.0013(8) 0.0001(2) 0.0000(4)
B5 B3+ 0.0009(5) 0.0026(24) 0.0008(2) -.0001(7) 0.0002(2) 0.0001(4)
B6 B3+ 0.0016(5) 0.0065(25) 0.0005(1) -.0004(8) 0.0003(2) 0.0001(4)
B7 B3+ 0.0016(5) 0.0044(25) 0.0007(2) -.0002(8) 0.0004(2) -.0002(4)
B8 B3+ 0.0012(5) 0.0013(23) 0.0008(2) 0.0001(8) 0.0002(2) 0.0003(4)
B9 B3+ 0.0017(5) 0.0064(25) 0.0006(2) -.0018(8) 0.0000(2) 0.0001(4)
B10 B3+ 0.0008(5) 0.0030(24) 0.0009(2) -.0005(7) 0.0002(2) 0.0002(4)
#End of TTdata_6168-ICSD