
#(C) 2019 by FIZ Karlsruhe - Leibniz Institute for Information Infrastructure.  All rights reserved.
data_62072-ICSD
_database_code_ICSD 62072
_audit_creation_date 1988-02-22
_chemical_name_systematic 'Pentasodium indium tetraoxide'
_chemical_formula_structural 'Na5 In O4'
_chemical_formula_sum 'In1 Na5 O4'
_chemical_name_structure_type Li5GaO4-alpha
_exptl_crystal_density_diffrn 3.19
_publ_section_title
'Oxydation intermetallischer Phasen: Na5InO4 aus NaIn und Na2O2'
loop_
_citation_id
_citation_journal_full
_citation_year
_citation_journal_volume
_citation_page_first
_citation_page_last
_citation_journal_id_ASTM
primary 'Zeitschrift fuer Anorganische und Allgemeine Chemie (1950) (DE)' 1987
549 15 25 ZAACAB
loop_
_publ_author_name
'Wagner, G.'
'Hoppe, R.'
_cell_length_a 10.717(3)
_cell_length_b 10.550(3)
_cell_length_c 10.809(3)
_cell_angle_alpha 90.
_cell_angle_beta 90.
_cell_angle_gamma 90.
_cell_volume 1222.11
_cell_formula_units_Z 8
_symmetry_space_group_name_H-M 'P b c a'
_symmetry_Int_Tables_number 61
_refine_ls_R_factor_all 0.063
loop_
_symmetry_equiv_pos_site_id
_symmetry_equiv_pos_as_xyz
1 'x+1/2, y, -z+1/2'
2 'x, -y+1/2, z+1/2'
3 '-x+1/2, y+1/2, z'
4 '-x, -y, -z'
5 '-x+1/2, -y, z+1/2'
6 '-x, y+1/2, -z+1/2'
7 'x+1/2, -y+1/2, -z'
8 'x, y, z'
loop_
_atom_type_symbol
_atom_type_oxidation_number
In3+ 3
Na1+ 1
O2- -2
loop_
_atom_site_label
_atom_site_type_symbol
_atom_site_symmetry_multiplicity
_atom_site_Wyckoff_symbol
_atom_site_fract_x
_atom_site_fract_y
_atom_site_fract_z
_atom_site_B_iso_or_equiv
_atom_site_occupancy
_atom_site_attached_hydrogens
In1 In3+ 8 c 0.1468 0.115 0.1229 . 1. 0
Na1 Na1+ 8 c 0.6506(2) 0.8669(2) 0.1188(2) . 1. 0
Na2 Na1+ 8 c 0.3945(2) 0.3314(2) 0.1181(2) . 1. 0
Na3 Na1+ 8 c 0.8746(2) 0.4063(2) 0.6463(2) . 1. 0
Na4 Na1+ 8 c 0.6137(2) 0.3581(2) 0.6022(2) . 1. 0
Na5 Na1+ 8 c 0.3810(2) 0.8975(2) 0.1619(2) . 1. 0
O1 O2- 8 c 0.0430(4) 0.0010(4) 0.2440(4) . 1. 0
O2 O2- 8 c 0.2475(4) 0.2301(4) 0.2425(4) . 1. 0
O3 O2- 8 c 0.9884(4) 0.7637(4) 0.9559(4) . 1. 0
O4 O2- 8 c 0.7531(4) 0.4931(4) 0.4872(4) . 1. 0
loop_
_atom_site_aniso_label
_atom_site_aniso_type_symbol
_atom_site_aniso_U_11
_atom_site_aniso_U_22
_atom_site_aniso_U_33
_atom_site_aniso_U_12
_atom_site_aniso_U_13
_atom_site_aniso_U_23
In1 In3+ 0.0072(2) 0.0074(2) 0.0092(2) 0 0.0002(2) 0.0001(2)
Na1 Na1+ 0.0140(9) 0.0131(10) 0.0140(9) -.0020(9) -.0005(10) 0.0017(9)
Na2 Na1+ 0.0167(10) 0.0139(10) 0.0156(10) -.0020(9) -.0019(10) 0.0013(10)
Na3 Na1+ 0.0089(10) 0.0166(11) 0.0147(10) -.0011(8) -.0027(8) -.0027(28)
Na4 Na1+ 0.0148(10) 0.0158(11) 0.0126(10) 0.0000(9) -.0014(8) -.0038(8)
Na5 Na1+ 0.0108(10) 0.0144(10) 0.0161(10) -.0013(9) -.0023(8) -.0029(9)
O1 O2- 0.0101(15) 0.0142(15) 0.0124(15) 0.0005(14) 0.0027(13) 0.0026(14)
O2 O2- 0.0108(16) 0.0153(15) 0.0092(15) -.0013(14) -.0007(13) -.0019(14)
O3 O2- 0.0052(15) 0.0093(15) 0.0140(15) 0.0020(13) -.0019(14) 0.0005(13)
O4 O2- 0.0125(16) 0.0099(15) 0.0145(16) -.0031(15) 0.0010(13) 0.0010(13)
#End of TTdata_62072-ICSD