
#(C) 2019 by FIZ Karlsruhe - Leibniz Institute for Information Infrastructure.  All rights reserved.
data_62080-ICSD
_database_code_ICSD 62080
_audit_creation_date 1988-02-22
_chemical_name_systematic 'Sodium trimanganese decafluoride'
_chemical_formula_structural 'Na Mn3 F10'
_chemical_formula_sum 'F10 Mn3 Na1'
_exptl_crystal_density_diffrn 3.34
_publ_section_title 'Zur Kenntnis von NaMn3F10'
loop_
_citation_id
_citation_journal_full
_citation_year
_citation_journal_volume
_citation_page_first
_citation_page_last
_citation_journal_id_ASTM
primary 'Zeitschrift fuer Anorganische und Allgemeine Chemie (1950) (DE)' 1987
549 7 14 ZAACAB
loop_
_publ_author_name
'Wandner, K.H.'
'Hoppe, R.'
_cell_length_a 13.181(3)
_cell_length_b 15.618(3)
_cell_length_c 7.309(2)
_cell_angle_alpha 90.
_cell_angle_beta 90.
_cell_angle_gamma 90.
_cell_volume 1504.64
_cell_formula_units_Z 8
_symmetry_space_group_name_H-M 'F d d 2'
_symmetry_Int_Tables_number 43
_refine_ls_R_factor_all 0.078
loop_
_symmetry_equiv_pos_site_id
_symmetry_equiv_pos_as_xyz
1 'x+1/4, -y+1/4, z+1/4'
2 '-x+1/4, y+1/4, z+1/4'
3 '-x, -y, z'
4 'x, y, z'
5 'x+1/4, -y+3/4, z+3/4'
6 '-x+1/4, y+3/4, z+3/4'
7 '-x, -y+1/2, z+1/2'
8 'x, y+1/2, z+1/2'
9 'x+3/4, -y+1/4, z+3/4'
10 '-x+3/4, y+1/4, z+3/4'
11 '-x+1/2, -y, z+1/2'
12 'x+1/2, y, z+1/2'
13 'x+3/4, -y+3/4, z+1/4'
14 '-x+3/4, y+3/4, z+1/4'
15 '-x+1/2, -y+1/2, z'
16 'x+1/2, y+1/2, z'
loop_
_atom_type_symbol
_atom_type_oxidation_number
Na1+ 1
Mn3+ 3
F1- -1
loop_
_atom_site_label
_atom_site_type_symbol
_atom_site_symmetry_multiplicity
_atom_site_Wyckoff_symbol
_atom_site_fract_x
_atom_site_fract_y
_atom_site_fract_z
_atom_site_B_iso_or_equiv
_atom_site_occupancy
_atom_site_attached_hydrogens
Na1 Na1+ 8 a 0 0 0.9784(21) . 1. 0
Mn1 Mn3+ 8 a 0 0 0.5 . 1. 0
Mn2 Mn3+ 16 b 0.0003(4) 0.2498(1) 0.9988(7) . 1. 0
F1 F1- 16 b 0.0095(9) 0.1388(5) 0.0255(26) . 1. 0
F2 F1- 16 b 0.2046(5) 0.9990(8) 0.0129(21) . 1. 0
F3 F1- 16 b 0.8451(8) 0.2474(4) 0.4462(16) . 1. 0
F4 F1- 16 b 0.9928(9) 0.6352(5) 0.9892(22) . 1. 0
F5 F1- 16 b 0.3502(8) 0.2493(4) 0.5846(16) . 1. 0
loop_
_atom_site_aniso_label
_atom_site_aniso_type_symbol
_atom_site_aniso_U_11
_atom_site_aniso_U_22
_atom_site_aniso_U_33
_atom_site_aniso_U_12
_atom_site_aniso_U_13
_atom_site_aniso_U_23
Na1 Na1+ 0.0461(24) 0.0280(18) 0.0159(46) 0.0172(40) 0 0
Mn1 Mn3+ 0.0096(5) 0.0119(5) 0.0131(5) 0.0060(12) 0 0
Mn2 Mn3+ 0.0131(6) 0.0106(6) 0.0105(8) 0.0007(7) -.0001(8) -.0011(18)
F1 F1- 0.0285(26) 0.0114(17) 0.0433(43) 0.0007(36) 0.0116(36) 0.0014(38)
F2 F1- 0.0234(17) 0.0424(22) 0.0090(17) -.0115(34) 0.0121(37) -.0003(21)
F3 F1- 0.0168(38) 0.0209(33) 0.0156(38) 0.0004(29) -.0031(29) 0.0012(32)
F4 F1- 0.0247(21) 0.0139(15) 0.0197(30) -.0066(35) 0.0095(32) 0.0026(40)
F5 F1- 0.0082(32) 0.0444(48) 0.0105(33) -.0023(30) 0.0052(25) 0.0001(36)
#End of TTdata_62080-ICSD