
#(C) 2018 by FIZ Karlsruhe - Leibniz Institute for Information Infrastructure.  All rights reserved.
data_62124-ICSD
_database_code_ICSD 62124
_audit_creation_date 1988-02-22
_chemical_name_systematic 'Lithium sulfate monohydrate'
_chemical_formula_structural 'Li2 S O4 (H2 O)'
_chemical_formula_sum 'H2 Li2 O5 S1'
_chemical_name_structure_type Li2SO4H2O
_exptl_crystal_density_diffrn 2.08
_cell_measurement_temperature 80.
_publ_section_title
'Charge density in pyroelectric lithium sulfate monohydrate at 80 and 298 K'
loop_
_citation_id
_citation_journal_full
_citation_year
_citation_journal_volume
_citation_page_first
_citation_page_last
_citation_journal_id_ASTM
primary 'Journal of Chemical Physics' 1986 85 5221 5227 JCPSA6
loop_
_publ_author_name
'Karppinen, M.'
'Liminga, R.'
'Lundgren, J.O.'
_cell_length_a 5.449(2)
_cell_length_b 4.832(2)
_cell_length_c 8.141(2)
_cell_angle_alpha 90.
_cell_angle_beta 107.21(1)
_cell_angle_gamma 90.
_cell_volume 204.75
_cell_formula_units_Z 2
_symmetry_space_group_name_H-M 'P 1 21 1'
_symmetry_Int_Tables_number 4
_refine_ls_R_factor_all 0.024
loop_
_symmetry_equiv_pos_site_id
_symmetry_equiv_pos_as_xyz
1 '-x, y+1/2, -z'
2 'x, y, z'
loop_
_atom_type_symbol
_atom_type_oxidation_number
Li1+ 1
S6+ 6
O2- -2
H1+ 1
loop_
_atom_site_label
_atom_site_type_symbol
_atom_site_symmetry_multiplicity
_atom_site_Wyckoff_symbol
_atom_site_fract_x
_atom_site_fract_y
_atom_site_fract_z
_atom_site_B_iso_or_equiv
_atom_site_occupancy
_atom_site_attached_hydrogens
Li1 Li1+ 2 a 0.30325(12) 0.49628(19) 0.99282(9) . 1. 0
Li2 Li1+ 2 a 0.56020(13) 0.48928(20) 0.39499(9) . 1. 0
S1 S6+ 2 a 0.29241(1) 0 0.20806(1) . 1. 0
O1 O2- 2 a 0.02079(9) 0.07384(6) 0.17112(4) . 1. 0
O2 O2- 2 a 0.43705(6) 0.11090(6) 0.37836(5) . 1. 0
O3 O2- 2 a 0.39819(6) 0.12064(6) 0.07643(5) . 1. 0
O4 O2- 2 a 0.32499(5) -.30396(9) 0.20983(3) . 1. 0
O5 O2- 2 a 0.91339(6) 0.46462(6) 0.40363(4) . 1. 0
H1 H1+ 2 a 0.97062(17) 0.39065(31) 0.31130(11) . 1. 0
H2 H1+ 2 a 0.00655(17) 0.63201(28) 0.44600(13) . 1. 0
loop_
_atom_site_aniso_label
_atom_site_aniso_type_symbol
_atom_site_aniso_U_11
_atom_site_aniso_U_22
_atom_site_aniso_U_33
_atom_site_aniso_U_12
_atom_site_aniso_U_13
_atom_site_aniso_U_23
Li1 Li1+ 0.0816(23) 0.0866(23) 0.0871(23) -.0014(28) 0.0227(18) 0.0042(29)
Li2 Li1+ 0.0926(23) 0.0874(25) 0.0931(23) 0.0005(27) 0.0203(18) 0.0013(25)
S1 S6+ 0.0400(4) 0.0335(4) 0.0326(4) 0.0019(2) 0.0098(2) 0.0003(2)
O1 O2- 0.0390(9) 0.0828(9) 0.0718(9) 0.0116(6) 0.0094(6) -.0091(7)
O2 O2- 0.0689(9) 0.0573(9) 0.0382(9) -.0112(8) 0.0029(7) -.0070(6)
O3 O2- 0.0797(10) 0.0589(9) 0.0596(9) 0.0073(7) 0.0394(8) 0.0149(6)
O4 O2- 0.0850(11) 0.0335(10) 0.0576(9) 0.0051(6) 0.0155(7) 0.0004(6)
O5 O2- 0.0837(10) 0.1052(14) 0.1154(10) -.0066(8) 0.0462(8) -.0187
H1 H1+ 0.2917(38) 0.4547(64) 0.2474(34) 0.0381(41) 0.1481(31) -.0648(40)
H2 H1+ 0.2727(37) 0.2459(47) 0.4090(45) -.1091(37) 0.0944(33) -.0593(40)
#End of TTdata_62124-ICSD