
#(C) 2018 by FIZ Karlsruhe - Leibniz Institute for Information Infrastructure.  All rights reserved.
data_62137-ICSD
_database_code_ICSD 62137
_audit_creation_date 1988-02-22
_audit_update_record 2010-08-01
_chemical_name_systematic 'Hexalithium zincate'
_chemical_formula_structural 'Li6 (Zn O4)'
_chemical_formula_sum 'Li6 O4 Zn1'
_chemical_name_structure_type Li6ZnO4
_exptl_crystal_density_diffrn 2.87
_publ_section_title 'Ein neues Oxozincat: Li6 Zn O4'
loop_
_citation_id
_citation_journal_full
_citation_year
_citation_journal_volume
_citation_page_first
_citation_page_last
_citation_journal_id_ASTM
primary 'Zeitschrift fuer Anorganische und Allgemeine Chemie (1950) (DE)' 1987
551 147 150 ZAACAB
loop_
_publ_author_name
'Untenecker, H.'
'Hoppe, R.'
_cell_length_a 6.5276(8)
_cell_length_b 6.5276(8)
_cell_length_c 4.6509(9)
_cell_angle_alpha 90.
_cell_angle_beta 90.
_cell_angle_gamma 90.
_cell_volume 198.17
_cell_formula_units_Z 2
_symmetry_space_group_name_H-M 'P 42/n m c Z'
_symmetry_Int_Tables_number 137
_refine_ls_R_factor_all 0.026
loop_
_symmetry_equiv_pos_site_id
_symmetry_equiv_pos_as_xyz
1 'y+1/2, x+1/2, -z+1/2'
2 '-y, x+1/2, -z+1/2'
3 'y+1/2, -x, -z+1/2'
4 '-y, -x, -z+1/2'
5 'x+1/2, y+1/2, -z'
6 '-x, y+1/2, -z'
7 'x+1/2, -y, -z'
8 '-x, -y, -z'
9 '-y+1/2, -x+1/2, z+1/2'
10 'y, -x+1/2, z+1/2'
11 '-y+1/2, x, z+1/2'
12 'y, x, z+1/2'
13 '-x+1/2, -y+1/2, z'
14 'x, -y+1/2, z'
15 '-x+1/2, y, z'
16 'x, y, z'
loop_
_atom_type_symbol
_atom_type_oxidation_number
Zn2+ 2
Li1+ 1
O2- -2
loop_
_atom_site_label
_atom_site_type_symbol
_atom_site_symmetry_multiplicity
_atom_site_Wyckoff_symbol
_atom_site_fract_x
_atom_site_fract_y
_atom_site_fract_z
_atom_site_B_iso_or_equiv
_atom_site_occupancy
_atom_site_attached_hydrogens
Zn1 Zn2+ 2 a 0.75 0.25 0.75 . 1. 0
Li1 Li1+ 8 f 0.4669(5) 0.5331(5) 0.75 . 1. 0
Li2 Li1+ 4 d 0.25 0.25 0.2033(10) . 1. 0
O1 O2- 8 g 0.25 0.4872(3) 0.4660(4) . 1. 0
loop_
_atom_site_aniso_label
_atom_site_aniso_type_symbol
_atom_site_aniso_U_11
_atom_site_aniso_U_22
_atom_site_aniso_U_33
_atom_site_aniso_U_12
_atom_site_aniso_U_13
_atom_site_aniso_U_23
Zn1 Zn2+ 0.0051(1) 0.0051(1) 0.0070(2) 0 0 0
Li1 Li1+ 0.0101(9) 0.0101(9) 0.0098(11) -.0010(9) -.0025(10) -.0025(10)
Li2 Li1+ 0.0061(12) 0.0106(12) 0.0075(13) 0 0 0
O1 O2- 0.0054(7) 0.0028(7) 0.0036(6) 0 0 0.0005(4)
#End of TTdata_62137-ICSD