
#(C) 2019 by FIZ Karlsruhe - Leibniz Institute for Information Infrastructure.  All rights reserved.
data_62367-ICSD
_database_code_ICSD 62367
_audit_creation_date 1988-12-19
_audit_update_record 2012-08-01
_chemical_name_systematic 'Sodium copper tris(iodate(V))'
_chemical_formula_structural 'Na Cu (I O3)3'
_chemical_formula_sum 'Cu1 I3 Na1 O9'
_chemical_name_structure_type NaCu(IO3)3
_exptl_crystal_density_diffrn 4.88
_publ_section_title

;
The crystal structure and predicted magnetic behavior of NaCu(IO3)3 - a quasi
one-dimensional magnetic system
;
loop_
_citation_id
_citation_journal_full
_citation_year
_citation_journal_volume
_citation_page_first
_citation_page_last
_citation_journal_id_ASTM
primary 'Zeitschrift fuer Kristallographie' 1987 181 167 177 ZEKRDZ
loop_
_publ_author_name
'Sen Gupta, P.K.'
'Ghose, S.'
'Schlemper, E.O.'
_cell_length_a 7.311(2)
_cell_length_b 7.725(2)
_cell_length_c 8.205(2)
_cell_angle_alpha 70.04(1)
_cell_angle_beta 73.27(2)
_cell_angle_gamma 80.81(2)
_cell_volume 416.15
_cell_formula_units_Z 2
_symmetry_space_group_name_H-M 'P -1'
_symmetry_Int_Tables_number 2
_refine_ls_R_factor_all 0.025
loop_
_symmetry_equiv_pos_site_id
_symmetry_equiv_pos_as_xyz
1 '-x, -y, -z'
2 'x, y, z'
loop_
_atom_type_symbol
_atom_type_oxidation_number
I5+ 5
Cu2+ 2
Na1+ 1
O2- -2
loop_
_atom_site_label
_atom_site_type_symbol
_atom_site_symmetry_multiplicity
_atom_site_Wyckoff_symbol
_atom_site_fract_x
_atom_site_fract_y
_atom_site_fract_z
_atom_site_B_iso_or_equiv
_atom_site_occupancy
_atom_site_attached_hydrogens
I1 I5+ 2 i 0.72973(4) 0.26992(4) -.23789(4) . 1. 0
I2 I5+ 2 i 0.70307(4) -.21683(4) 0.40368(4) . 1. 0
I3 I5+ 2 i 0.76593(5) 0.35912(5) 0.20874(5) . 1. 0
Cu1 Cu2+ 1 a 0 0 0 . 1. 0
Cu2 Cu2+ 1 b 0 0 0.5 . 1. 0
Na1 Na1+ 2 i 0.3121(3) 0.2074(4) 0.1366(3) . 1. 0
O1 O2- 2 i 0.5280(5) -.2951(6) 0.1776(5) . 1. 0
O2 O2- 2 i 0.2529(5) -.0659(5) 0.0438(5) . 1. 0
O3 O2- 2 i -.0985(5) -.2141(5) 0.2097(5) . 1. 0
O4 O2- 2 i 0.2428(6) -.1409(6) 0.3947(6) . 1. 0
O5 O2- 2 i 0.9451(6) 0.1656(6) 0.2103(6) . 1. 0
O6 O2- 2 i 0.7803(6) 0.4542(6) -.0271(5) . 1. 0
O7 O2- 2 i 0.1577(6) 0.1969(6) 0.4533(5) . 1. 0
O8 O2- 2 i 0.5548(6) 0.2314(7) 0.2883(6) . 1. 0
O9 O2- 2 i 0.3048(6) 0.4599(6) 0.5109(5) . 1. 0
loop_
_atom_site_aniso_label
_atom_site_aniso_type_symbol
_atom_site_aniso_U_11
_atom_site_aniso_U_22
_atom_site_aniso_U_33
_atom_site_aniso_U_12
_atom_site_aniso_U_13
_atom_site_aniso_U_23
I1 I5+ 0.0106(2) 0.0090(2) 0.0114(2) 0.004(1) -.0035(1) -.0031(1)
I2 I5+ 0.0107(2) 0.0096(2) 0.0124(2) 0.0000(1) -.0029(1) -.0030(1)
I3 I5+ 0.0172(2) 0.0124(2) 0.0153(2) 0.0030(1) -.0047(1) -.0071(1)
Cu1 Cu2+ 0.0111(4) 0.0133(4) 0.0123(4) -.0014(3) -.0037(3) 0.0002(3)
Cu2 Cu2+ 0.0119(4) 0.0103(4) 0.0155(4) -.0019(3) -.0015(3) -.0055(3)
Na1 Na1+ 0.025(1) 0.023(1) 0.020(1) -.002(1) -.0033(9) -.006(1)
O1 O2- 0.009(2) 0.018(2) 0.017(2) 0.000(1) -.002(1) -.004(2)
O2 O2- 0.017(2) 0.012(2) 0.018(2) -.003(1) -.006(1) 0.002(1)
O3 O2- 0.017(2) 0.015(2) 0.014(2) 0.000(1) -.002(1) -.005(1)
O4 O2- 0.022(2) 0.017(2) 0.024(2) 0.005(2) -.007(2) -.014(2)
O5 O2- 0.027(2) 0.013(2) 0.025(2) 0.008(2) -.010(2) -.010(2)
O6 O2- 0.036(2) 0.019(2) 0.013(2) 0.003(2) -.009(2) -.005(2)
O7 O2- 0.023(2) 0.016(2) 0.017(2) -.005(2) -.007(1) -.004(2)
O8 O2- 0.023(2) 0.038(3) 0.020(2) -.004(2) -.003(2) -.010(2)
O9 O2- 0.032(2) 0.012(2) 0.018(2) -.010(2) -.010(2) 0.000(2)
#End of TTdata_62367-ICSD