
#(C) 2019 by FIZ Karlsruhe - Leibniz Institute for Information Infrastructure.  All rights reserved.
data_62370-ICSD
_database_code_ICSD 62370
_audit_creation_date 1988-12-19
_audit_update_record 2002-04-01
_chemical_name_systematic 'Disodium copper chromium heptafluoride'
_chemical_formula_structural 'Na2 Cu Cr F7'
_chemical_formula_sum 'Cr1 Cu1 F7 Na2'
_chemical_name_structure_type Na2CuInF7
_chemical_name_mineral Weberite-(Cu,Cr)
_exptl_crystal_density_diffrn 3.55
_publ_section_title
'Zur Struktur der Kupfer-Weberite Na2 Cu Cr F7 und Na2 Cu Fe F7'
loop_
_citation_id
_citation_journal_full
_citation_year
_citation_journal_volume
_citation_page_first
_citation_page_last
_citation_journal_id_ASTM
primary 'Zeitschrift fuer Naturforschung, B: A Journal of Chemical Sciences'
1988 43 694 701 ZNBSEN
loop_
_publ_author_name
'Kummer, S.'
'Massa, W.'
'Babel, D.'
_cell_length_a 7.100(1)
_cell_length_b 10.338(1)
_cell_length_c 7.518(1)
_cell_angle_alpha 90.
_cell_angle_beta 90.
_cell_angle_gamma 90.
_cell_volume 551.82
_cell_formula_units_Z 4
_symmetry_space_group_name_H-M 'P m n b'
_symmetry_Int_Tables_number 62
_refine_ls_R_factor_all 0.0351
loop_
_symmetry_equiv_pos_site_id
_symmetry_equiv_pos_as_xyz
1 'x, y+1/2, -z+1/2'
2 '-x+1/2, y, z'
3 'x+1/2, -y+1/2, z+1/2'
4 '-x, -y, -z'
5 '-x, -y+1/2, z+1/2'
6 'x+1/2, -y, -z'
7 '-x+1/2, y+1/2, -z+1/2'
8 'x, y, z'
loop_
_atom_type_symbol
_atom_type_oxidation_number
Na1+ 1
Cu2+ 2
Cr3+ 3
F1- -1
loop_
_atom_site_label
_atom_site_type_symbol
_atom_site_symmetry_multiplicity
_atom_site_Wyckoff_symbol
_atom_site_fract_x
_atom_site_fract_y
_atom_site_fract_z
_atom_site_B_iso_or_equiv
_atom_site_occupancy
_atom_site_attached_hydrogens
Na1 Na1+ 4 b 0 0 0.5 . 1. 0
Na2 Na1+ 4 c 0.25 0.2482(1) 0.2284(2) . 1. 0
Cu1 Cu2+ 4 a 0 0 0 . 1. 0
Cr1 Cr3+ 4 c 0.25 0.24173(3) 0.72521(5) . 1. 0
F1 F1- 4 c 0.25 0.0055(2) 0.0937(2) . 1. 0
F2 F1- 4 c 0.25 0.3261(2) 0.9517(2) . 1. 0
F3 F1- 4 c 0.25 0.1594(2) 0.4968(2) . 1. 0
F4 F1- 8 d -.0527(2) 0.1423(1) 0.1602(2) . 1. 0
F5 F1- 8 d 0.0521(2) 0.1261(1) 0.7825(2) . 1. 0
loop_
_atom_site_aniso_label
_atom_site_aniso_type_symbol
_atom_site_aniso_U_11
_atom_site_aniso_U_22
_atom_site_aniso_U_33
_atom_site_aniso_U_12
_atom_site_aniso_U_13
_atom_site_aniso_U_23
Na1 Na1+ 0.0304(7) 0.0336(6) 0.0507(8) -0.0077(7) 0.0037(8) -0.0144(6)
Na2 Na1+ 0.0231(6) 0.0400(7) 0.0199(5) 0 0 0.0107(6)
Cu1 Cu2+ 0.0076(1) 0.0090(1) 0.0104(1) -0.0006(1) 0.0001(1) 0.0005(1)
Cr1 Cr3+ 0.0093(1) 0.0086(1) 0.0118(1) 0 0 0.0027(1)
F1 F1- 0.0078(5) 0.0275(7) 0.0187(6) 0 0 -0.0030(6)
F2 F1- 0.028(1) 0.0250(8) 0.0143(6) 0 0 0.0006(6)
F3 F1- 0.0219(8) 0.0225(7) 0.0151(6) 0 0 0.0000(6)
F4 F1- 0.0146(5) 0.0183(4) 0.0274(5) 0.0039(4) 0.0011(4) -0.0090(4)
F5 F1- 0.0191(5) 0.0196(5) 0.0274(5) -0.0055(4) 0.0035(5) 0.0066(4)
#End of TTdata_62370-ICSD