
#(C) 2019 by FIZ Karlsruhe - Leibniz Institute for Information Infrastructure.  All rights reserved.
data_62384-ICSD
_database_code_ICSD 62384
_audit_creation_date 1988-12-19
_audit_update_record 1999-11-30
_chemical_name_systematic 'Sodium zirconium silicate phosphate *'
_chemical_formula_structural 'Na3.15 Zr2 Si2.15 P.85 O12'
_chemical_formula_sum 'Na3.15 O12 P0.85 Si2.15 Zr2'
_chemical_name_structure_type 'Nasicon high'
_chemical_name_mineral 'Nasicon high'
_exptl_crystal_density_diffrn 3.24
_cell_measurement_temperature 443.
_publ_section_title
'Relation structure-fast ion conduction in the NASICON solid solution'
loop_
_citation_id
_citation_journal_full
_citation_year
_citation_journal_volume
_citation_page_first
_citation_page_last
_citation_journal_id_ASTM
primary 'Journal of Solid State Chemistry' 1988 73 160 171 JSSCBI
loop_
_publ_author_name
'Boilot, J.P.'
'Collin, G.'
'Colomban, P.'
_cell_length_a 9.079(2)
_cell_length_b 9.079(2)
_cell_length_c 22.9640(40)
_cell_angle_alpha 90.
_cell_angle_beta 90.
_cell_angle_gamma 120.
_cell_volume 1639.28
_cell_formula_units_Z 6
_symmetry_space_group_name_H-M 'R -3 c H'
_symmetry_Int_Tables_number 167
_refine_ls_R_factor_all 0.0348
loop_
_symmetry_equiv_pos_site_id
_symmetry_equiv_pos_as_xyz
1 'x-y, -y, -z+1/2'
2 '-x, -x+y, -z+1/2'
3 'y, x, -z+1/2'
4 'x-y, x, -z'
5 'y, -x+y, -z'
6 '-x, -y, -z'
7 '-x+y, y, z+1/2'
8 'x, x-y, z+1/2'
9 '-y, -x, z+1/2'
10 '-x+y, -x, z'
11 '-y, x-y, z'
12 'x, y, z'
13 'x-y+2/3, -y+1/3, -z+5/6'
14 '-x+2/3, -x+y+1/3, -z+5/6'
15 'y+2/3, x+1/3, -z+5/6'
16 'x-y+2/3, x+1/3, -z+1/3'
17 'y+2/3, -x+y+1/3, -z+1/3'
18 '-x+2/3, -y+1/3, -z+1/3'
19 '-x+y+2/3, y+1/3, z+5/6'
20 'x+2/3, x-y+1/3, z+5/6'
21 '-y+2/3, -x+1/3, z+5/6'
22 '-x+y+2/3, -x+1/3, z+1/3'
23 '-y+2/3, x-y+1/3, z+1/3'
24 'x+2/3, y+1/3, z+1/3'
25 'x-y+1/3, -y+2/3, -z+1/6'
26 '-x+1/3, -x+y+2/3, -z+1/6'
27 'y+1/3, x+2/3, -z+1/6'
28 'x-y+1/3, x+2/3, -z+2/3'
29 'y+1/3, -x+y+2/3, -z+2/3'
30 '-x+1/3, -y+2/3, -z+2/3'
31 '-x+y+1/3, y+2/3, z+1/6'
32 'x+1/3, x-y+2/3, z+1/6'
33 '-y+1/3, -x+2/3, z+1/6'
34 '-x+y+1/3, -x+2/3, z+2/3'
35 '-y+1/3, x-y+2/3, z+2/3'
36 'x+1/3, y+2/3, z+2/3'
loop_
_atom_type_symbol
_atom_type_oxidation_number
Zr4+ 4
Si4+ 4
P5+ 5
O2- -2
Na1+ 1
loop_
_atom_site_label
_atom_site_type_symbol
_atom_site_symmetry_multiplicity
_atom_site_Wyckoff_symbol
_atom_site_fract_x
_atom_site_fract_y
_atom_site_fract_z
_atom_site_B_iso_or_equiv
_atom_site_occupancy
_atom_site_attached_hydrogens
Zr1 Zr4+ 12 c 0 0 0.1479(1) 0.0151(1) 1. 0
Si1 Si4+ 18 e 0.2906(1) 0 0.25 0.0142(6) 0.717 0
P1 P5+ 18 e 0.2906(1) 0 0.25 0.0142(6) 0.283 0
O1 O2- 36 f 0.1736(5) -.0333(5) 0.1942(2) 0.0368(16) 1. 0
O2 O2- 36 f 0.1930(4) 0.1698(4) 0.0911(1) 0.0271(12) 1. 0
Na1 Na1+ 6 b 0 0 0 0.094(11) 0.32(1) 0
Na2 Na1+ 18 e 0.6342(7) 0 0.25 0.1112(81) 0.717(10) 0
Na3 Na1+ 36 f 0.9778(58) 0.8082(64) 0.9787(24) 0.198(40) 0.113(8) 0
#End of TTdata_62384-ICSD