
#(C) 2019 by FIZ Karlsruhe - Leibniz Institute for Information Infrastructure.  All rights reserved.
data_62392-ICSD
_database_code_ICSD 62392
_audit_creation_date 1988-12-19
_audit_update_record 2011-02-01
_chemical_name_systematic 'Sodium neodymium tetragallium octasulfide'
_chemical_formula_structural 'Na Nd Ga4 S8'
_chemical_formula_sum 'Ga4 Na1 Nd1 S8'
_chemical_name_structure_type EuGa2S4
_exptl_crystal_density_diffrn 3.79
_publ_section_title

;
Structural study of Na Nd Ga4 S8, a luminescent material with
low-concentration quenching
;
loop_
_citation_id
_citation_journal_full
_citation_year
_citation_journal_volume
_citation_page_first
_citation_page_last
_citation_journal_id_ASTM
primary 'Journal of Solid State Chemistry' 1988 73 252 258 JSSCBI
loop_
_publ_author_name
'Ibanez, R.'
'Gravereau, P.'
'Garcia, A.'
'Fouassier, C.'
_cell_length_a 20.122(2)
_cell_length_b 20.143(2)
_cell_length_c 12.142(1)
_cell_angle_alpha 90.
_cell_angle_beta 90.
_cell_angle_gamma 90.
_cell_volume 4921.36
_cell_formula_units_Z 16
_symmetry_space_group_name_H-M 'F d d d Z'
_symmetry_Int_Tables_number 70
_refine_ls_R_factor_all 0.064
loop_
_symmetry_equiv_pos_site_id
_symmetry_equiv_pos_as_xyz
1 'x+3/4, y+3/4, -z'
2 'x+3/4, -y, z+3/4'
3 '-x, y+3/4, z+3/4'
4 '-x, -y, -z'
5 '-x+1/4, -y+1/4, z'
6 '-x+1/4, y, -z+1/4'
7 'x, -y+1/4, -z+1/4'
8 'x, y, z'
9 'x+3/4, y+1/4, -z+1/2'
10 'x+3/4, -y+1/2, z+1/4'
11 '-x, y+1/4, z+1/4'
12 '-x, -y+1/2, -z+1/2'
13 '-x+1/4, -y+3/4, z+1/2'
14 '-x+1/4, y+1/2, -z+3/4'
15 'x, -y+3/4, -z+3/4'
16 'x, y+1/2, z+1/2'
17 'x+1/4, y+3/4, -z+1/2'
18 'x+1/4, -y, z+1/4'
19 '-x+1/2, y+3/4, z+1/4'
20 '-x+1/2, -y, -z+1/2'
21 '-x+3/4, -y+1/4, z+1/2'
22 '-x+3/4, y, -z+3/4'
23 'x+1/2, -y+1/4, -z+3/4'
24 'x+1/2, y, z+1/2'
25 'x+1/4, y+1/4, -z'
26 'x+1/4, -y+1/2, z+3/4'
27 '-x+1/2, y+1/4, z+3/4'
28 '-x+1/2, -y+1/2, -z'
29 '-x+3/4, -y+3/4, z'
30 '-x+3/4, y+1/2, -z+1/4'
31 'x+1/2, -y+3/4, -z+1/4'
32 'x+1/2, y+1/2, z'
loop_
_atom_type_symbol
_atom_type_oxidation_number
Nd3+ 3
Na1+ 1
Ga3+ 3
S2- -2
loop_
_atom_site_label
_atom_site_type_symbol
_atom_site_symmetry_multiplicity
_atom_site_Wyckoff_symbol
_atom_site_fract_x
_atom_site_fract_y
_atom_site_fract_z
_atom_site_B_iso_or_equiv
_atom_site_occupancy
_atom_site_attached_hydrogens
Nd1 Nd3+ 8 a 0.125 0.125 0.125 . 1. 0
Nd2 Nd3+ 8 b 0.125 0.125 0.625 . 1. 0
Na1 Na1+ 16 e 0.3785(5) 0.125 0.125 . 1. 0
Ga1 Ga3+ 32 h 0.7527(1) 0.4892(1) 0.1254(1) . 1. 0
Ga2 Ga3+ 32 h 0.7496(1) 0.6952(1) 0.4140(1) . 1. 0
S1 S2- 32 h 0.0041(2) 0.5933(2) 0.2514(3) . 1. 0
S2 S2- 32 h 0.7500(2) 0.5821(2) 0.0156(2) . 1. 0
S3 S2- 32 h 0.5850(2) 0.7474(2) 0.2446(3) . 1. 0
S4 S2- 32 h 0.9143(2) 0.4977(2) 0.9963(3) . 1. 0
loop_
_atom_site_aniso_label
_atom_site_aniso_type_symbol
_atom_site_aniso_U_11
_atom_site_aniso_U_22
_atom_site_aniso_U_33
_atom_site_aniso_U_12
_atom_site_aniso_U_13
_atom_site_aniso_U_23
Nd1 Nd3+ 0.0107(7) 0.0048(6) 0.0102(7) 0 0 0
Nd2 Nd3+ 0.0131(7) 0.0063(7) 0.0102(7) 0 0 0
Na1 Na1+ 0.0193(38) 0.0318(46) 0.0351(45) 0 0 -.0032(46)
Ga1 Ga3+ 0.0152(7) 0.0067(7) 0.0091(6) 0.0012(5) 0.0003(9) -.0007(6)
Ga2 Ga3+ 0.0153(7) 0.0065(7) 0.0079(6) -.0005(5) 0.0008(6) -.0005(6)
S1 S2- 0.0179(18) 0.0055(16) 0.0120(15) -.0015(13) 0.0036(14) 0.0022(12)
S2 S2- 0.0176(18) 0.0047(14) 0.0058(15) 0.0006(12) 0.0001(13) 0.0001(11)
S3 S2- 0.0123(17) 0.0093(15) 0.0103(16) 0.0034(13) 0.0017(13) -.0017(12)
S4 S2- 0.0130(17) 0.0090(16) 0.0119(16) -.0005(13) 0.0020(14) 0.0003(13)
#End of TTdata_62392-ICSD