
#(C) 2019 by FIZ Karlsruhe - Leibniz Institute for Information Infrastructure.  All rights reserved.
data_62509-ICSD
_database_code_ICSD 62509
_audit_creation_date 1988-02-22
_audit_update_record 2012-08-01
_chemical_name_systematic 'Disodium yttrium molybdate phosphate(V)'
_chemical_formula_structural 'Na2 Y (Mo O4) (P O4)'
_chemical_formula_sum 'Mo1 Na2 O8 P1 Y1'
_exptl_crystal_density_diffrn 3.47
_publ_section_title
'Structure du molybdophosphate d'yttrium et sodium Na2 Y (Mo O4) (P O4)'
loop_
_citation_id
_citation_journal_full
_citation_year
_citation_journal_volume
_citation_page_first
_citation_page_last
_citation_journal_id_ASTM
primary 'Acta Crystallographica, Section C: Crystal Structure Communications'
1987 43 616 618 ACSCEE
loop_
_publ_author_name
'Ben Amara, M.'
'Dabbabi, B.'
_cell_length_a 13.928(11)
_cell_length_b 18.015(10)
_cell_length_c 6.847(6)
_cell_angle_alpha 90.
_cell_angle_beta 119.62(6)
_cell_angle_gamma 90.
_cell_volume 1493.5
_cell_formula_units_Z 8
_symmetry_space_group_name_H-M 'C 1 2/c 1'
_symmetry_Int_Tables_number 15
_refine_ls_R_factor_all 0.041
loop_
_symmetry_equiv_pos_site_id
_symmetry_equiv_pos_as_xyz
1 'x, -y, z+1/2'
2 '-x, -y, -z'
3 '-x, y, -z+1/2'
4 'x, y, z'
5 'x+1/2, -y+1/2, z+1/2'
6 '-x+1/2, -y+1/2, -z'
7 '-x+1/2, y+1/2, -z+1/2'
8 'x+1/2, y+1/2, z'
loop_
_atom_type_symbol
_atom_type_oxidation_number
Na1+ 1
Y3+ 3
Mo6+ 6
P5+ 5
O2- -2
loop_
_atom_site_label
_atom_site_type_symbol
_atom_site_symmetry_multiplicity
_atom_site_Wyckoff_symbol
_atom_site_fract_x
_atom_site_fract_y
_atom_site_fract_z
_atom_site_B_iso_or_equiv
_atom_site_occupancy
_atom_site_attached_hydrogens
Na1 Na1+ 8 f 0.1875(4) 0.5974(2) 0.4522(7) . 1. 0
Na2 Na1+ 8 f 0.1877(4) 0.0974(3) 0.4232(7) . 1. 0
Y1 Y3+ 8 f 0.07186(4) 0.74995(4) 0.07188(8) . 1. 0
Mo1 Mo6+ 4 e 0 0.42833(5) 0.25 . 1. 0
Mo2 Mo6+ 4 e 0 0.92823(5) 0.25 . 1. 0
P1 P5+ 8 f 0.1811(1) 0.2500(1) 0.1815(2) . 1. 0
O1 O2- 8 f 0.0242(5) 0.3713(3) 0.4837(9) . 1. 0
O2 O2- 8 f 0.1177(6) 0.4815(5) 0.325(1) . 1. 0
O3 O2- 8 f 0.0236(4) 0.8721(3) 0.0639(9) . 1. 0
O4 O2- 8 f 0.1171(6) 0.9822(4) 0.410(1) . 1. 0
O5 O2- 8 f 0.2560(3) 0.1817(3) 0.2411(7) . 1. 0
O6 O2- 8 f 0.2568(4) 0.3186(3) 0.2722(7) . 1. 0
O7 O2- 8 f 0.1022(3) 0.2415(3) 0.2778(6) . 1. 0
O8 O2- 8 f 0.1019(3) 0.2583(3) 0.9270(6) . 1. 0
loop_
_atom_site_aniso_label
_atom_site_aniso_type_symbol
_atom_site_aniso_beta_11
_atom_site_aniso_beta_22
_atom_site_aniso_beta_33
_atom_site_aniso_beta_12
_atom_site_aniso_beta_13
_atom_site_aniso_beta_23
Na1 Na1+ 0.0093(3) 0.0013(1) 0.0220(8) -.0020(2) 0.0094(3) -.0020(3)
Na2 Na1+ 0.0095(3) 0.0016(1) 0.0232(9) -.0020(2) 0.0099(3) -.0022(3)
Y1 Y3+ 0.0006 0.0007 0.0023(1) 0 0.0007 0.0001(1)
Mo1 Mo6+ 0.0025 0.0005 0.0107(1) 0 0.0019(1) 0
Mo2 Mo6+ 0.0025 0.0005 0.0128(1) 0 0.0031(1) 0
P1 P5+ 0.0007 0.0008 0.0030(2) -.0001(1) 0.0000(1) 0.0008(1)
O1 O2- 0.0029(2) 0.0008(1) 0.0119(11) 0.0002(2) 0.0021(4) 0.0002(3)
O2 O2- 0.0060(4) 0.0020(2) 0.0228(17) -.0025(2) 0.0053(6) -.0025(5)
O3 O2- 0.0031(2) 0.0008(1) 0.0170(11) 0.0004(2) 0.0040(4) 0.0005(4)
O4 O2- 0.0063(4) 0.0017(2) 0.0218(6) -.0018(3) 0.0058(6) -.0022(5)
O5 O2- 0.0011(1) 0.0007(1) 0.0053(7) -.0004(1) 0.0007(3) -.0003(3)
O6 O2- 0.0010(1) 0.0008(1) 0.0042(6) 0.0001(2) -.0004(1) 0.0005(2)
O7 O2- 0.0009(1) 0.0014(1) 0.0040(6) -.0001(1) 0.0013(2) 0.0005(2)
O8 O2- 0.0011(1) 0.0014(1) 0.0019(5) -.0001(1) 0.0006(2) -.0004(3)
#End of TTdata_62509-ICSD