
#(C) 2019 by FIZ Karlsruhe - Leibniz Institute for Information Infrastructure.  All rights reserved.
data_62571-ICSD
_database_code_ICSD 62571
_audit_creation_date 1988-02-22
_chemical_name_systematic 'Silver sodium dinitrite - ferroelectric'
_chemical_formula_structural 'Ag Na (N O2)2'
_chemical_formula_sum 'Ag1 N2 Na1 O4'
_chemical_name_structure_type AgNa(NO2)2
_exptl_crystal_density_diffrn 3.22
_cell_measurement_temperature 343.
_publ_section_title
'Temperature dependence of disorder of nitrite ions in Ag Na (N O2)2.'
loop_
_citation_id
_citation_journal_full
_citation_year
_citation_journal_volume
_citation_page_first
_citation_page_last
_citation_journal_id_ASTM
primary 'Acta Crystallographica, Section B: Structural Science' 1987 43 160 164
ASBSDK
loop_
_publ_author_name
'Ishihara, M.'
'Ohba, S.'
'Saito, Y.'
_cell_length_a 8.089(1)
_cell_length_b 10.573(2)
_cell_length_c 10.744(1)
_cell_angle_alpha 90.
_cell_angle_beta 90.
_cell_angle_gamma 90.
_cell_volume 918.88
_cell_formula_units_Z 8
_symmetry_space_group_name_H-M 'F d d d S'
_symmetry_Int_Tables_number 70
_refine_ls_R_factor_all 0.031
loop_
_symmetry_equiv_pos_site_id
_symmetry_equiv_pos_as_xyz
1 'x+1/4, y+1/4, -z+1/4'
2 '-x+1/4, y+1/4, z+1/4'
3 '-x, -y, z'
4 'x, -y, -z'
5 'x+1/4, -y+1/4, z+1/4'
6 '-x+1/4, -y+1/4, -z+1/4'
7 '-x, y, -z'
8 'x, y, z'
9 'x+1/4, y+3/4, -z+3/4'
10 '-x+1/4, y+3/4, z+3/4'
11 '-x, -y+1/2, z+1/2'
12 'x, -y+1/2, -z+1/2'
13 'x+1/4, -y+3/4, z+3/4'
14 '-x+1/4, -y+3/4, -z+3/4'
15 '-x, y+1/2, -z+1/2'
16 'x, y+1/2, z+1/2'
17 'x+3/4, y+1/4, -z+3/4'
18 '-x+3/4, y+1/4, z+3/4'
19 '-x+1/2, -y, z+1/2'
20 'x+1/2, -y, -z+1/2'
21 'x+3/4, -y+1/4, z+3/4'
22 '-x+3/4, -y+1/4, -z+3/4'
23 '-x+1/2, y, -z+1/2'
24 'x+1/2, y, z+1/2'
25 'x+3/4, y+3/4, -z+1/4'
26 '-x+3/4, y+3/4, z+1/4'
27 '-x+1/2, -y+1/2, z'
28 'x+1/2, -y+1/2, -z'
29 'x+3/4, -y+3/4, z+1/4'
30 '-x+3/4, -y+3/4, -z+1/4'
31 '-x+1/2, y+1/2, -z'
32 'x+1/2, y+1/2, z'
loop_
_atom_type_symbol
_atom_type_oxidation_number
Ag1+ 1
Na1+ 1
N3+ 3
O2- -2
loop_
_atom_site_label
_atom_site_type_symbol
_atom_site_symmetry_multiplicity
_atom_site_Wyckoff_symbol
_atom_site_fract_x
_atom_site_fract_y
_atom_site_fract_z
_atom_site_B_iso_or_equiv
_atom_site_occupancy
_atom_site_attached_hydrogens
Ag1 Ag1+ 8 a 0 0 0 4.4(1) 1. 0
Na1 Na1+ 8 b 0 0.5 0 3.2(1) 1. 0
N1 N3+ 16 f 0 0.1969(11) 0 3.2(1) 0.274(7) 0
N2 N3+ 16 f 0 0.2685(5) 0 3.2(1) 0.726(7) 0
O1 O2- 32 h -.0473(5) 0.2598(9) 0.0904(3) 4.3(1) 0.274(7) 0
O2 O2- 32 h -.0473(5) 0.2056(4) 0.0904(3) 4.3(1) 0.726(7) 0
#End of TTdata_62571-ICSD