
#(C) 2019 by FIZ Karlsruhe - Leibniz Institute for Information Infrastructure.  All rights reserved.
data_62645-ICSD
_database_code_ICSD 62645
_audit_creation_date 1988-02-22
_audit_update_record 2015-02-01
_chemical_name_systematic 'Pentasodium aluminium difluoroorthophosphate'
_chemical_formula_structural 'Na5 Al F2 (P O4)2'
_chemical_formula_sum 'Al1 F2 Na5 O8 P2'
_chemical_name_structure_type AlNa5(PO4)2F2
_exptl_crystal_density_diffrn 2.93
_publ_section_title
'Na5 Al F2 (P O4)2: Darstellung, Kristallstruktur und Ionenleitfaehigkeit.'
loop_
_citation_id
_citation_journal_full
_citation_year
_citation_journal_volume
_citation_page_first
_citation_page_last
_citation_journal_id_ASTM
primary 'Zeitschrift fuer Anorganische und Allgemeine Chemie (1950) (DE)' 1987
547 179 187 ZAACAB
loop_
_publ_author_name
'Arlt, J.'
'Jansen, M.'
'Klassen, H.'
'Schimmel, G.'
'Heymer, G.'
_cell_length_a 10.483(1)
_cell_length_b 10.483(1)
_cell_length_c 6.607(1)
_cell_angle_alpha 90.
_cell_angle_beta 90.
_cell_angle_gamma 120.
_cell_volume 628.79
_cell_formula_units_Z 3
_symmetry_space_group_name_H-M 'P -3'
_symmetry_Int_Tables_number 147
_refine_ls_R_factor_all 0.04
loop_
_symmetry_equiv_pos_site_id
_symmetry_equiv_pos_as_xyz
1 'x-y, x, -z'
2 'y, -x+y, -z'
3 '-x, -y, -z'
4 '-x+y, -x, z'
5 '-y, x-y, z'
6 'x, y, z'
loop_
_atom_type_symbol
_atom_type_oxidation_number
P5+ 5
Al3+ 3
Na1+ 1
O2- -2
F1- -1
loop_
_atom_site_label
_atom_site_type_symbol
_atom_site_symmetry_multiplicity
_atom_site_Wyckoff_symbol
_atom_site_fract_x
_atom_site_fract_y
_atom_site_fract_z
_atom_site_B_iso_or_equiv
_atom_site_occupancy
_atom_site_attached_hydrogens
P1 P5+ 6 g 0.8155(1) 0.6293(1) 0.2509(1) . 1. 0
Al1 Al3+ 3 f 0.5 0.5 0.5 . 1. 0
Na1 Na1+ 1 b 0 0 0.5 . 1. 0
Na2 Na1+ 3 e 0.5 0.5 0 . 1. 0
Na3 Na1+ 1 a 0 0 0 . 1. 0
Na4 Na1+ 6 g 0.1688(1) 0.8528(1) 0.2666(2) . 1. 0
Na5 Na1+ 2 d 0.3333 0.6667 0.0842(3) . 1. 0
Na6 Na1+ 2 d 0.3333 0.6667 -.4728(3) . 1. 0
O1 O2- 6 g 0.8247(2) 0.5689(2) 0.0449(3) . 1. 0
O2 O2- 6 g 0.9007(2) 0.7974(2) 0.2561(3) . 1. 0
O3 O2- 6 g 0.6511(2) 0.5700(2) 0.3005(3) . 1. 0
O4 O2- 6 g 0.4306(2) 0.3035(2) 0.4203(3) . 1. 0
F1 F1- 6 g 0.1371(2) 0.6149(2) 0.3107(2) . 1. 0
loop_
_atom_site_aniso_label
_atom_site_aniso_type_symbol
_atom_site_aniso_U_11
_atom_site_aniso_U_22
_atom_site_aniso_U_33
_atom_site_aniso_U_12
_atom_site_aniso_U_13
_atom_site_aniso_U_23
P1 P5+ 0.0090(3) 0.0102(3) 0.0091(3) 0.0053(3) 0.0003(3) 0.0001(3)
Al1 Al3+ 0.0090(5) 0.0101(5) 0.0086(6) 0.0049(4) -.0002(5) -.0002(5)
Na1 Na1+ 0.0170(9) 0.0170(9) 0.0155(17) 0.0085(4) 0 0
Na2 Na1+ 0.0263(9) 0.0152(8) 0.0148(9) 0.0108(7) -.0018(8) 0.0(7)
Na3 Na1+ 0.022(1) 0.022(1) 0.0160(17) 0.0110(5) 0 0
Na4 Na1+ 0.0207(6) 0.0170(6) 0.0181(7) 0.0097(5) -.0004(5) -.0005(5)
Na5 Na1+ 0.0174(6) 0.0174(6) 0.0176(12) 0.0087(3) 0 0
Na6 Na1+ 0.0139(6) 0.0139(6) 0.0218(13) 0.0069(3) 0 0
O1 O2- 0.0173(10) 0.0177(10) 0.0108(11) 0.0109(8) -.0002(8) -.0014(9)
O2 O2- 0.0166(10) 0.0087(9) 0.0192(12) 0.0032(8) -.0009(9) -.0004(8)
O3 O2- 0.0100(9) 0.0203(10) 0.0105(11) 0.0075(8) 0.0014(8) 0.0024(8)
O4 O2- 0.019(1) 0.0105(9) 0.0126(11) 0.0080(8) -.0013(9) -.0027(8)
F1 F1- 0.0118(8) 0.0122(8) 0.0119(9) 0.0045(6) 0.0023(7) 0.0013(7)
#End of TTdata_62645-ICSD