
#(C) 2019 by FIZ Karlsruhe - Leibniz Institute for Information Infrastructure.  All rights reserved.
data_6265-ICSD
_database_code_ICSD 6265
_audit_creation_date 1986-08-08
_audit_update_record 2009-02-01
_chemical_name_systematic 'Disodium alumotrisilicate hydroxide'
_chemical_formula_structural 'Na2 (Al Si3 O8) (O H)'
_chemical_formula_sum 'H1 Al1 Na2 O9 Si3'
_chemical_name_mineral Ussingite
_exptl_crystal_density_diffrn 2.51
_publ_section_title 'The crystal structure of ussingite'
loop_
_citation_id
_citation_journal_full
_citation_year
_citation_journal_volume
_citation_page_first
_citation_page_last
_citation_journal_id_ASTM
primary 'American Mineralogist' 1974 59 335 340 AMMIAY
loop_
_publ_author_name
'Rossi, G.'
'Tazzoli, V.'
'Ungaretti, L.'
_cell_length_a 7.256(3)
_cell_length_b 7.686(3)
_cell_length_c 8.683(3)
_cell_angle_alpha 90.75(3)
_cell_angle_beta 99.75(3)
_cell_angle_gamma 122.48(3)
_cell_volume 399.44
_cell_formula_units_Z 2
_symmetry_space_group_name_H-M 'P -1'
_symmetry_Int_Tables_number 2
_refine_ls_R_factor_all 0.028
loop_
_symmetry_equiv_pos_site_id
_symmetry_equiv_pos_as_xyz
1 '-x, -y, -z'
2 'x, y, z'
loop_
_atom_type_symbol
_atom_type_oxidation_number
Na1+ 1
Al3+ 3
Si4+ 4
O2- -2
H1+ 1
loop_
_atom_site_label
_atom_site_type_symbol
_atom_site_symmetry_multiplicity
_atom_site_Wyckoff_symbol
_atom_site_fract_x
_atom_site_fract_y
_atom_site_fract_z
_atom_site_B_iso_or_equiv
_atom_site_occupancy
_atom_site_attached_hydrogens
Na1 Na1+ 2 i 0.1759(2) 0.3924(2) 0.0555(2) 1.79(5) 1. 0
Na2 Na1+ 2 i 0.8214(2) 0.2342(2) 0.4421(2) 1.65(6) 1. 0
Al1 Al3+ 2 i 0.2422(1) 0.0457(1) 0.8551(1) 0.66(4) 1. 0
Si1 Si4+ 2 i 0.2463(1) 0.1935(1) 0.3626(1) 0.64(4) 1. 0
Si2 Si4+ 2 i 0.3203(1) 0.4147(1) 0.6924(1) 0.68(5) 1. 0
Si3 Si4+ 2 i 0.7014(1) 0.1041(1) 0.8129(1) 0.66(3) 1. 0
O1 O2- 2 i 0.0021(3) 0.1358(3) 0.2792(3) 1.35(10) 1. 0
O2 O2- 2 i 0.1419(4) 0.4749(3) 0.6515(3) 1.49(9) 1. 0
O3 O2- 2 i 0.2767(4) -.0021(3) 0.3473(2) 1.09(9) 1. 0
O4 O2- 2 i 0.3010(3) 0.2970(3) 0.8489(2) 1.06(9) 1. 0
O5 O2- 2 i 0.4442(4) 0.0224(3) 0.7955(3) 1.38(9) 1. 0
O6 O2- 2 i 0.4231(3) 0.3818(3) 0.2768(3) 1.28(10) 1. 0
O7 O2- 2 i 0.7980(4) 0.0344(4) 0.9625(3) 1.56(9) 1. 0
O8 O2- 2 i 0.8580(4) 0.3557(3) 0.8210(3) 1.59(10) 1. 0
O9 O2- 2 i 0.2973(4) 0.2604(3) 0.5485(3) 1.55(10) 1. 0
H1 H1+ 2 i 0.979(9) 0.405(8) 0.765(6) 4.72(10) 1. 0
#End of TTdata_6265-ICSD