
#(C) 2019 by FIZ Karlsruhe - Leibniz Institute for Information Infrastructure.  All rights reserved.
data_62658-ICSD
_database_code_ICSD 62658
_audit_creation_date 1988-02-22
_chemical_name_systematic 'Potassium sodium sulfide'
_chemical_formula_structural 'K Na S'
_chemical_formula_sum 'K1 Na1 S1'
_chemical_name_structure_type TiNiSi-MgSrSi
_exptl_crystal_density_diffrn 2.13
_publ_section_title
'Kaliumnatriumsulfid K Na S, ein neues Interalkalimetallsulfid.'
loop_
_citation_id
_citation_journal_full
_citation_year
_citation_journal_volume
_citation_page_first
_citation_page_last
_citation_journal_id_ASTM
primary 'Zeitschrift fuer Anorganische und Allgemeine Chemie (1950) (DE)' 1987
546 169 176 ZAACAB
loop_
_publ_author_name
'Sabrowsky, H.'
'Thimm, A.'
'Vogt, P.'
'Harbrecht, B.'
_cell_length_a 7.703(1)
_cell_length_b 4.604(1)
_cell_length_c 8.293(1)
_cell_angle_alpha 90.
_cell_angle_beta 90.
_cell_angle_gamma 90.
_cell_volume 294.11
_cell_formula_units_Z 4
_symmetry_space_group_name_H-M 'P n m a'
_symmetry_Int_Tables_number 62
_refine_ls_R_factor_all 0.035
loop_
_symmetry_equiv_pos_site_id
_symmetry_equiv_pos_as_xyz
1 'x+1/2, y, -z+1/2'
2 'x, -y+1/2, z'
3 '-x+1/2, y+1/2, z+1/2'
4 '-x, -y, -z'
5 '-x+1/2, -y, z+1/2'
6 '-x, y+1/2, -z'
7 'x+1/2, -y+1/2, -z+1/2'
8 'x, y, z'
loop_
_atom_type_symbol
_atom_type_oxidation_number
K1+ 1
Na1+ 1
S2- -2
loop_
_atom_site_label
_atom_site_type_symbol
_atom_site_symmetry_multiplicity
_atom_site_Wyckoff_symbol
_atom_site_fract_x
_atom_site_fract_y
_atom_site_fract_z
_atom_site_B_iso_or_equiv
_atom_site_occupancy
_atom_site_attached_hydrogens
K1 K1+ 4 c 0.0133(1) 0.25 0.1847(1) . 1. 0
Na1 Na1+ 4 c 0.1470(2) 0.25 0.5757(1) . 1. 0
S1 S2- 4 c 0.2786(1) 0.25 0.8956(1) . 1. 0
loop_
_atom_site_aniso_label
_atom_site_aniso_type_symbol
_atom_site_aniso_U_11
_atom_site_aniso_U_22
_atom_site_aniso_U_33
_atom_site_aniso_U_12
_atom_site_aniso_U_13
_atom_site_aniso_U_23
K1 K1+ 0.0235(3) 0.0244(3) 0.0284(3) 0 -.001 0
Na1 Na1+ 0.0219(6) 0.0197(5) 0.0203(5) 0 0.001 0
S1 S2- 0.0171(3) 0.0149(3) 0.0182(3) 0 -.001 0
#End of TTdata_62658-ICSD