
#(C) 2019 by FIZ Karlsruhe - Leibniz Institute for Information Infrastructure.  All rights reserved.
data_62765-ICSD
_database_code_ICSD 62765
_audit_creation_date 1988-07-15
_audit_update_record 2008-02-01
_chemical_name_systematic
'Disodium bis(deuteriooxo)dioxosilicate heptakis(dideuterohydrate)'
_chemical_formula_structural 'Na2 (Si O2 (O D)2) (D2 O)7'
_chemical_formula_sum 'D16 Na2 O11 Si1'
_chemical_name_structure_type Na2H2SiO4(H2O)7
_exptl_crystal_density_diffrn 1.78
_publ_section_title

;
Location and anisotropic refinement of deuterium atoms in disodium
dideuteriumsilicate heptahydrate (D2 O) by neutron diffraction; hydrogen
bonding at 296 K and thermal properties.
;
loop_
_citation_id
_citation_journal_full
_citation_year
_citation_journal_volume
_citation_page_first
_citation_page_last
_citation_journal_id_ASTM
primary 'Acta Crystallographica, Section C: Crystal Structure Communications'
1987 43 1015 1019 ACSCEE
loop_
_publ_author_name
'Felsche, J.'
'Ketterer, B.'
'Schmid, R.L.'
'Gregson, D.'
_cell_length_a 8.959(2)
_cell_length_b 13.501(4)
_cell_length_c 10.021(3)
_cell_angle_alpha 90.
_cell_angle_beta 119.65(2)
_cell_angle_gamma 90.
_cell_volume 1053.39
_cell_formula_units_Z 4
_symmetry_space_group_name_H-M 'P 1 21/c 1'
_symmetry_Int_Tables_number 14
_refine_ls_R_factor_all 0.0472
loop_
_symmetry_equiv_pos_site_id
_symmetry_equiv_pos_as_xyz
1 'x, -y+1/2, z+1/2'
2 '-x, -y, -z'
3 '-x, y+1/2, -z+1/2'
4 'x, y, z'
loop_
_atom_type_symbol
_atom_type_oxidation_number
Na1+ 1
Si4+ 4
O2- -2
D1+ 1
loop_
_atom_site_label
_atom_site_type_symbol
_atom_site_symmetry_multiplicity
_atom_site_Wyckoff_symbol
_atom_site_fract_x
_atom_site_fract_y
_atom_site_fract_z
_atom_site_B_iso_or_equiv
_atom_site_occupancy
_atom_site_attached_hydrogens
Na1 Na1+ 4 e 0.3452(5) 0.2379(3) 0.2611(4) . 1. 0
Na2 Na1+ 4 e 0.3444(4) 0.0738(2) 0.9891(4) . 1. 0
Si1 Si4+ 4 e 0.7085(3) 0.0781(2) 0.5017(3) . 1. 0
O1 O2- 4 e 0.6504(3) -.0320(1) 0.4394(2) . 1. 0
O2 O2- 4 e 0.7912(3) 0.1397(1) 0.4172(2) . 1. 0
O3 O2- 4 e 0.8494(3) 0.0739(1) 0.6903(2) . 1. 0
O4 O2- 4 e 0.5446(3) 0.1404(1) 0.4920(2) . 1. 0
O5 O2- 4 e 0.1627(3) 0.2084(2) 0.8483(3) . 1. 0
O6 O2- 4 e 0.5018(3) 0.0787(2) 0.8553(3) . 1. 0
O7 O2- 4 e 0.1928(3) 0.0876(2) 0.1325(3) . 1. 0
O8 O2- 4 e 0.1368(3) 0.1700(1) 0.5280(3) . 1. 0
O9 O2- 4 e 0.5193(3) 0.2013(2) 0.1534(2) . 1. 0
O10 O2- 4 e 0.8525(3) 0.0424(2) 0.2044(3) . 1. 0
O11 O2- 4 e 0.8371(3) 0.1618(1) 0.9489(3) . 1. 0
D1 D1+ 4 e 0.9522(3) 0.0350(2) 0.7177(2) . 1. 0
D2 D1+ 4 e 0.4668(3) 0.0975(1) 0.5141(2) . 1. 0
D3 D1+ 4 e 0.1405(3) 0.2526(2) 0.9133(2) . 1. 0
D4 D1+ 4 e 0.0539(4) 0.1861(2) 0.7689(3) . 1. 0
D5 D1+ 4 e 0.4481(3) 0.0581(2) 0.7452(2) . 1. 0
D6 D1+ 4 e 0.6083(3) 0.1104(2) 0.8803(3) . 1. 0
D7 D1+ 4 e 0.1947(4) 0.0374(2) 0.2008(3) . 1. 0
D8 D1+ 4 e 0.0763(3) 0.1113(2) 0.0769(3) . 1. 0
D9 D1+ 4 e 0.2035(3) 0.1111(1) 0.5422(2) . 1. 0
D10 D1+ 4 e 0.0167(3) 0.1506(2) 0.5042(3) . 1. 0
D11 D1+ 4 e 0.6264(3) 0.1809(2) 0.2463(2) . 1. 0
D12 D1+ 4 e 0.5470(3) 0.2553(2) 0.1053(2) . 1. 0
D13 D1+ 4 e 0.8293(3) 0.0736(2) 0.2815(3) . 1. 0
D14 D1+ 4 e 0.8534(4) 0.0944(2) 0.1403(3) . 1. 0
D15 D1+ 4 e 0.8237(3) 0.2347(2) 0.9401(3) . 1. 0
D16 D1+ 4 e 0.8374(3) 0.1396(2) 0.8577(3) . 1. 0
loop_
_atom_site_aniso_label
_atom_site_aniso_type_symbol
_atom_site_aniso_U_11
_atom_site_aniso_U_22
_atom_site_aniso_U_33
_atom_site_aniso_U_12
_atom_site_aniso_U_13
_atom_site_aniso_U_23
Na1 Na1+ 0.0271(19) 0.0245(17) 0.0252(19) 0.0061(14) 0.0156(15) 0.0033(14)
Na2 Na1+ 0.0192(17) 0.0200(15) 0.0202(17) -.0013(12) 0.0108(13) -.0003(12)
Si1 Si4+ 0.0079(12) 0.0075(10) 0.0085(12) -.0008(8) 0.0037(9) -.0003(8)
O1 O2- 0.019(1) 0.0078(8) 0.0198(10) -.0023(7) 0.0128(8) -.0031(7)
O2 O2- 0.0137(10) 0.0155(9) 0.0161(10) -.0006(7) 0.0093(7) 0.0029(7)
O3 O2- 0.0176(12) 0.022(1) 0.0108(10) 0.0033(9) 0.0048(8) 0.0011(7)
O4 O2- 0.0135(10) 0.0107(8) 0.0211(10) 0.0003(7) 0.0124(8) 0.0005(7)
O5 O2- 0.0227(12) 0.0272(11) 0.0209(11) -.0036(8) 0.0118(9) -.0038(8)
O6 O2- 0.0207(11) 0.0339(12) 0.0169(11) -.0060(9) 0.0106(8) -.0043(8)
O7 O2- 0.0268(12) 0.0270(11) 0.0281(12) 0.0016(9) 0.0195(10) 0.0065(9)
O8 O2- 0.0134(10) 0.0141(9) 0.0270(11) -.0003(7) 0.0074(8) -.0035(8)
O9 O2- 0.0167(10) 0.0192(9) 0.0173(10) -.0017(7) 0.0063(8) 0.0038(7)
O10 O2- 0.0217(11) 0.0219(10) 0.0227(11) 0.0014(8) 0.0112(9) 0.0000(8)
O11 O2- 0.0267(12) 0.0144(9) 0.0229(11) -.0010(8) 0.0141(9) -.0005(8)
D1 D1+ 0.0237(12) 0.0363(11) 0.0219(11) 0.0027(10) 0.0089(8) 0.0031(8)
D2 D1+ 0.0217(10) 0.0222(9) 0.0259(10) 0.0013(7) 0.0124(8) -.0018(7)
D3 D1+ 0.0300(11) 0.0306(10) 0.0318(11) 0.0002(9) 0.0179(9) 0.0009(9)
D4 D1+ 0.0428(16) 0.0554(16) 0.0414(15) 0.0028(12) 0.0069(12) -.0119(12)
D5 D1+ 0.0250(11) 0.0282(10) 0.0249(10) -.0013(8) 0.0131(8) -.0021(8)
D6 D1+ 0.0256(11) 0.0343(11) 0.0304(12) -.0044(8) 0.0129(9) -.0012(9)
D7 D1+ 0.0488(16) 0.0393(13) 0.0474(15) 0.0023(11) 0.0291(12) 0.0141(11)
D8 D1+ 0.0293(12) 0.0490(14) 0.0431(14) 0.0045(10) 0.0185(10) 0.0053(11)
D9 D1+ 0.0241(10) 0.0222(9) 0.0288(11) 0.0014(7) 0.0116(8) -.0022(7)
D10 D1+ 0.0260(11) 0.0263(10) 0.0312(11) -.0001(8) 0.0158(9) 0.0013(8)
D11 D1+ 0.0234(10) 0.0281(10) 0.0270(11) 0.0026(8) 0.0114(8) 0.0041(8)
D12 D1+ 0.0297(11) 0.0286(10) 0.0259(10) -.0038(8) 0.0143(8) 0.0034(8)
D13 D1+ 0.0319(12) 0.0368(11) 0.0287(11) 0.0026(9) 0.0165(9) -.0043(9)
D14 D1+ 0.0443(15) 0.0351(12) 0.0426(14) 0.0007(10) 0.0242(11) 0.0044(10)
D15 D1+ 0.0279(11) 0.0248(9) 0.0301(11) -.0025(8) 0.0127(9) 0.0002(8)
D16 D1+ 0.0323(12) 0.0298(11) 0.0381(13) 0.0007(9) 0.0175(10) 0.0010(9)
#End of TTdata_62765-ICSD