
#(C) 2019 by FIZ Karlsruhe - Leibniz Institute for Information Infrastructure.  All rights reserved.
data_62827-ICSD
_database_code_ICSD 62827
_audit_creation_date 1988-07-15
_audit_update_record 2007-04-01
_chemical_name_systematic 'Sodium calcium cyclo-hexasilicate (5.27/3/1)'
_chemical_formula_structural 'Na5.27 Ca3 (Si6 O18)'
_chemical_formula_sum 'Ca3 Na5.27 O18 Si6'
_chemical_name_structure_type Combeite(HT)
_chemical_name_mineral 'Combeite high'
_exptl_crystal_density_diffrn 2.81
_publ_section_title 'Revised data for combeite Na2 Ca2 Si3 O9.'
loop_
_citation_id
_citation_journal_full
_citation_year
_citation_journal_volume
_citation_page_first
_citation_page_last
_citation_journal_id_ASTM
primary 'Acta Crystallographica, Section C: Crystal Structure Communications'
1987 43 1852 1854 ACSCEE
loop_
_publ_author_name
'Fischer, R.X.'
'Tillmanns, E.'
_cell_length_a 10.429(2)
_cell_length_b 10.429(2)
_cell_length_c 13.149(3)
_cell_angle_alpha 90.
_cell_angle_beta 90.
_cell_angle_gamma 120.
_cell_volume 1238.54
_cell_formula_units_Z 3
_symmetry_space_group_name_H-M 'R -3 m H'
_symmetry_Int_Tables_number 166
_refine_ls_R_factor_all 0.042
loop_
_symmetry_equiv_pos_site_id
_symmetry_equiv_pos_as_xyz
1 'x-y, -y, -z'
2 '-x, -x+y, -z'
3 'y, x, -z'
4 'x-y, x, -z'
5 'y, -x+y, -z'
6 '-x, -y, -z'
7 '-x+y, y, z'
8 'x, x-y, z'
9 '-y, -x, z'
10 '-x+y, -x, z'
11 '-y, x-y, z'
12 'x, y, z'
13 'x-y+2/3, -y+1/3, -z+1/3'
14 '-x+2/3, -x+y+1/3, -z+1/3'
15 'y+2/3, x+1/3, -z+1/3'
16 'x-y+2/3, x+1/3, -z+1/3'
17 'y+2/3, -x+y+1/3, -z+1/3'
18 '-x+2/3, -y+1/3, -z+1/3'
19 '-x+y+2/3, y+1/3, z+1/3'
20 'x+2/3, x-y+1/3, z+1/3'
21 '-y+2/3, -x+1/3, z+1/3'
22 '-x+y+2/3, -x+1/3, z+1/3'
23 '-y+2/3, x-y+1/3, z+1/3'
24 'x+2/3, y+1/3, z+1/3'
25 'x-y+1/3, -y+2/3, -z+2/3'
26 '-x+1/3, -x+y+2/3, -z+2/3'
27 'y+1/3, x+2/3, -z+2/3'
28 'x-y+1/3, x+2/3, -z+2/3'
29 'y+1/3, -x+y+2/3, -z+2/3'
30 '-x+1/3, -y+2/3, -z+2/3'
31 '-x+y+1/3, y+2/3, z+2/3'
32 'x+1/3, x-y+2/3, z+2/3'
33 '-y+1/3, -x+2/3, z+2/3'
34 '-x+y+1/3, -x+2/3, z+2/3'
35 '-y+1/3, x-y+2/3, z+2/3'
36 'x+1/3, y+2/3, z+2/3'
loop_
_atom_type_symbol
_atom_type_oxidation_number
Si4+ 4
O2- -2
Na1+ 1
Ca2+ 2
Na1+ 1
Ca2+ 2
loop_
_atom_site_label
_atom_site_type_symbol
_atom_site_symmetry_multiplicity
_atom_site_Wyckoff_symbol
_atom_site_fract_x
_atom_site_fract_y
_atom_site_fract_z
_atom_site_B_iso_or_equiv
_atom_site_occupancy
_atom_site_attached_hydrogens
Si1 Si4+ 18 h 0.1511(1) -.1511(1) 0.5642(1) . 1. 0
O1 O2- 18 g 0.2511(5) 0 0.5 . 1. 0
O2 O2- 18 h 0.1150(2) -.1150(2) 0.6740(3) . 1. 0
O3 O2- 18 h 0.2385(2) -.2385(2) 0.5548(3) . 1. 0
Na1 Na1+ 6 c 0 0 0.2505(2) . 0.60(2) 0
Ca1 Ca2+ 6 c 0 0 0.2505(2) . 0.40(2) 0
Na2 Na1+ 9 e 0.5 0 0 . 0.755(11) 0
Na3 Na1+ 9 d 0.5 0 0.5 . 0.60(11) 0
Ca2 Ca2+ 9 d 0.5 0 0.5 . 0.40(11) 0
Ca3 Ca2+ 3 a 0 0 0 . 1. 0
loop_
_atom_site_aniso_label
_atom_site_aniso_type_symbol
_atom_site_aniso_U_11
_atom_site_aniso_U_22
_atom_site_aniso_U_33
_atom_site_aniso_U_12
_atom_site_aniso_U_13
_atom_site_aniso_U_23
Si1 Si4+ 0.014(1) 0.014(1) 0.012(1) 0.005(1) 0.0(10) 0.0(10)
O1 O2- 0.068(3) 0.028(2) 0.040(2) 0.014(2) 0.009(2) 0.018(2)
O2 O2- 0.057(2) 0.057(2) 0.014(2) 0.048(2) 0.001(1) -0.001(1)
O3 O2- 0.051(2) 0.051(2) 0.031(2) 0.040(2) 0.004(1) -0.004(1)
Na1 Na1+ 0.015(1) 0.015(1) 0.017(1) 0.0075(1) 0 0
Ca1 Ca2+ 0.015(1) 0.015(1) 0.017(1) 0.0075(1) 0 0
Na2 Na1+ 0.030(2) 0.040(3) 0.017(2) 0.020(3) 0.0035(2) 0.007(2)
Na3 Na1+ 0.022(1) 0.037(1) 0.015(1) 0.0185(1) -0.0055(1) -0.011(1)
Ca2 Ca2+ 0.022(1) 0.037(1) 0.015(1) 0.0185(1) -0.0055(1) -0.011(1)
Ca3 Ca2+ 0.011(1) 0.011(1) 0.005(1) 0.0055(1) 0 0
#End of TTdata_62827-ICSD