
#(C) 2019 by FIZ Karlsruhe - Leibniz Institute for Information Infrastructure.  All rights reserved.
data_62839-ICSD
_database_code_ICSD 62839
_audit_creation_date 1988-07-15
_audit_update_record 2012-02-01
_chemical_name_systematic 'Tetrasodium cyclo-tetraphosphate tetrahydrate'
_chemical_formula_structural 'Na4 (P4 O12) (H2 O)4'
_chemical_formula_sum 'H8 Na4 O16 P4'
_chemical_name_structure_type NaPO3H2O
_exptl_crystal_density_diffrn 2.16
_publ_section_title
'Contribution to the crystal chemistry of tetrametaphosphates (I).'
loop_
_citation_id
_citation_journal_full
_citation_year
_citation_journal_volume
_citation_page_first
_citation_page_last
_citation_journal_id_ASTM
primary 'Journal of Solid State Chemistry' 1985 58 119 132 JSSCBI
loop_
_publ_author_name
'Averbuch-Pouchot, M.T.'
'Durif, A.'
_cell_length_a 9.667
_cell_length_b 12.358
_cell_length_c 6.17
_cell_angle_alpha 90.
_cell_angle_beta 92.27(17)
_cell_angle_gamma 90.
_cell_volume 736.52
_cell_formula_units_Z 2
_symmetry_space_group_name_H-M 'P 1 21/a 1'
_symmetry_Int_Tables_number 14
_refine_ls_R_factor_all 0.021
loop_
_symmetry_equiv_pos_site_id
_symmetry_equiv_pos_as_xyz
1 'x+1/2, -y+1/2, z'
2 '-x, -y, -z'
3 '-x+1/2, y+1/2, -z'
4 'x, y, z'
loop_
_atom_type_symbol
_atom_type_oxidation_number
P5+ 5
Na1+ 1
O2- -2
H1+ 1
loop_
_atom_site_label
_atom_site_type_symbol
_atom_site_symmetry_multiplicity
_atom_site_Wyckoff_symbol
_atom_site_fract_x
_atom_site_fract_y
_atom_site_fract_z
_atom_site_B_iso_or_equiv
_atom_site_occupancy
_atom_site_attached_hydrogens
P1 P5+ 4 e 0.18699(5) -.00348(4) 0.40241(8) 1.07(2) 1. 0
P2 P5+ 4 e 0.4905(5) 0.32181(4) 0.45642(7) 1.16(2) 1. 0
Na1 Na1+ 4 e 0.07184(9) 0.12550(7) 0.9391(1) 1.74(3) 1. 0
Na2 Na1+ 4 e 0.47394(9) 0.06384(7) 0.7368(1) 1.66(3) 1. 0
O1 O2- 4 e 0.1190(1) 0.0993(1) 0.5173(2) 1.63(5) 1. 0
O2 O2- 4 e 0.3618(1) 0.4031(1) 0.4365(2) 1.69(5) 1. 0
O3 O2- 4 e 0.1622(1) 0.5073(1) 0.5666(2) 1.70(5) 1. 0
O4 O2- 4 e 0.3785(1) 0.4800(1) 0.8178(2) 1.46(5) 1. 0
O5 O2- 4 e 0.4801(2) 0.2521(1) 0.6498(2) 1.75(5) 1. 0
O6 O2- 4 e 0.5041(2) 0.2743(1) 0.2384(2) 1.79(5) 1. 0
O7 O2- 4 e 0.1187(2) 0.4160(1) 0.0593(3) 2.15(6) 1. 0
O8 O2- 4 e 0.2957(2) 0.1835(2) 0.9492(3) 2.92(7) 1. 0
H1 H1+ 4 e 0.201(3) 0.417(2) 0.002(5) 3.1(6) 1. 0
H2 H1+ 4 e 0.117(3) 0.360(2) 0.137(5) 3.6(7) 1. 0
H3 H1+ 4 e 0.337(3) 0.195(3) 0.052(5) 3.8(7) 1. 0
H4 H1+ 4 e 0.336(3) 0.221(2) 0.856(5) 3.7(7) 1. 0
#End of TTdata_62839-ICSD