
#(C) 2019 by FIZ Karlsruhe - Leibniz Institute for Information Infrastructure.  All rights reserved.
data_63044-ICSD
_database_code_ICSD 63044
_audit_creation_date 1989-06-19
_chemical_name_systematic 'Sodium ytterbium cyclo-dodecasilicate (11.6/3/1)'
_chemical_formula_structural 'Na11.61 Yb3 (Si12 O36)'
_chemical_formula_sum 'Na11.61 O36 Si12 Yb3'
_exptl_crystal_density_diffrn 3.23
_cell_measurement_temperature 300.
_publ_section_title

;
Conduction channels in solid electrolytes: crystal structures of Na5 Yb Si O12
and Ag5 Yb Si4 O12.
;
loop_
_citation_id
_citation_journal_full
_citation_year
_citation_journal_volume
_citation_page_first
_citation_page_last
_citation_journal_id_ASTM
primary Kristallografiya 1988 33 82 89 KRISAJ
loop_
_publ_author_name
'Filipenko, O.S.'
'Atovmyan, L.O.'
'Ponomarev, V.I.'
'Alimova, L.D.'
'Leonova, L.S.'
'Bakaev, V.A.'
'Ukshe, E.A.'
_cell_length_a 21.960(5)
_cell_length_b 21.960(5)
_cell_length_c 12.566(9)
_cell_angle_alpha 90.
_cell_angle_beta 90.
_cell_angle_gamma 120.
_cell_volume 5247.98
_cell_formula_units_Z 6
_symmetry_space_group_name_H-M 'R -3 c H'
_symmetry_Int_Tables_number 167
_refine_ls_R_factor_all 0.08
loop_
_symmetry_equiv_pos_site_id
_symmetry_equiv_pos_as_xyz
1 'x-y, -y, -z+1/2'
2 '-x, -x+y, -z+1/2'
3 'y, x, -z+1/2'
4 'x-y, x, -z'
5 'y, -x+y, -z'
6 '-x, -y, -z'
7 '-x+y, y, z+1/2'
8 'x, x-y, z+1/2'
9 '-y, -x, z+1/2'
10 '-x+y, -x, z'
11 '-y, x-y, z'
12 'x, y, z'
13 'x-y+2/3, -y+1/3, -z+5/6'
14 '-x+2/3, -x+y+1/3, -z+5/6'
15 'y+2/3, x+1/3, -z+5/6'
16 'x-y+2/3, x+1/3, -z+1/3'
17 'y+2/3, -x+y+1/3, -z+1/3'
18 '-x+2/3, -y+1/3, -z+1/3'
19 '-x+y+2/3, y+1/3, z+5/6'
20 'x+2/3, x-y+1/3, z+5/6'
21 '-y+2/3, -x+1/3, z+5/6'
22 '-x+y+2/3, -x+1/3, z+1/3'
23 '-y+2/3, x-y+1/3, z+1/3'
24 'x+2/3, y+1/3, z+1/3'
25 'x-y+1/3, -y+2/3, -z+1/6'
26 '-x+1/3, -x+y+2/3, -z+1/6'
27 'y+1/3, x+2/3, -z+1/6'
28 'x-y+1/3, x+2/3, -z+2/3'
29 'y+1/3, -x+y+2/3, -z+2/3'
30 '-x+1/3, -y+2/3, -z+2/3'
31 '-x+y+1/3, y+2/3, z+1/6'
32 'x+1/3, x-y+2/3, z+1/6'
33 '-y+1/3, -x+2/3, z+1/6'
34 '-x+y+1/3, -x+2/3, z+2/3'
35 '-y+1/3, x-y+2/3, z+2/3'
36 'x+1/3, y+2/3, z+2/3'
loop_
_atom_type_symbol
_atom_type_oxidation_number
Yb3+ 3
Si4+ 4
O2- -2
Na1+ 1
loop_
_atom_site_label
_atom_site_type_symbol
_atom_site_symmetry_multiplicity
_atom_site_Wyckoff_symbol
_atom_site_fract_x
_atom_site_fract_y
_atom_site_fract_z
_atom_site_B_iso_or_equiv
_atom_site_occupancy
_atom_site_attached_hydrogens
Yb1 Yb3+ 18 e 0.2486(1) 0 0.25 0.39 1. 0
Si1 Si4+ 36 f 0.2360(4) 0.2174(1) 0.0233(1) 0.56 1. 0
Si2 Si4+ 36 f 0.0941(1) 0.1824(1) 0.1230(1) 0.52 1. 0
O1 O2- 36 f 0.2626(2) 0.0245(3) 0.0771(4) 1.29 1. 0
O2 O2- 36 f 0.0736(3) 0.2087(3) 0.0115(3) 1.33 1. 0
O3 O2- 36 f 0.0515(3) 0.0990(2) 0.1305(4) 1.25 1. 0
O4 O2- 36 f 0.3080(2) 0.2464(2) 0.0870(3) 1.1 1. 0
O5 O2- 36 f 0.0827(2) 0.2204(2) 0.2249(3) 0.89 1. 0
O6 O2- 36 f 0.1795(2) 0.2126(2) 0.1143(3) 1.22 1. 0
Na1 Na1+ 6 b 0 0 0 1. 0.179(4) 0
Na2 Na1+ 6 a 0 0 0.25 2.02 0.159(4) 0
Na3 Na1+ 36 f 0.1391(1) 0.0675(2) 0.1393(2) 1.32 0.979(10) 0
Na4 Na1+ 18 e 0.2768(3) 0.2768(3) 0.25 2.46 0.455(10) 0
Na5 Na1+ 36 f 0.3304(7) 0.1448(5) 0.0476(6) 2.44 0.395(26) 0
Na6 Na1+ 36 f 0.3301(7) 0.1601(8) 0.1396(7) 2.65 0.277(22) 0
#End of TTdata_63044-ICSD