
#(C) 2019 by FIZ Karlsruhe - Leibniz Institute for Information Infrastructure.  All rights reserved.
data_63040-ICSD
_database_code_ICSD 63040
_audit_creation_date 1989-06-19
_chemical_name_systematic 'Sodium dysprosium selenate (3.68/1.44/4)'
_chemical_formula_structural 'Na3.68 Dy1.44 (Se O4)4'
_chemical_formula_sum 'Dy1.44 Na3.68 O16 Se4'
_exptl_crystal_density_diffrn 4.24
_publ_section_title 'The Na5-3x Tr1+x (Se O4)4 double selenates'
loop_
_citation_id
_citation_journal_full
_citation_year
_citation_journal_volume
_citation_page_first
_citation_page_last
_citation_journal_id_ASTM
primary Kristallografiya 1988 33 63 68 KRISAJ
loop_
_publ_author_name
'Ovanisyan, S.M.'
'Iskhakova, L.D.'
'Efremov, V.A.'
'Trunov, V.K.'
_cell_length_a 10.655(1)
_cell_length_b 10.655(1)
_cell_length_c 12.290(1)
_cell_angle_alpha 90.
_cell_angle_beta 90.
_cell_angle_gamma 90.
_cell_volume 1395.27
_cell_formula_units_Z 4
_symmetry_space_group_name_H-M 'I 41/a Z'
_symmetry_Int_Tables_number 88
_refine_ls_R_factor_all 0.036
loop_
_symmetry_equiv_pos_site_id
_symmetry_equiv_pos_as_xyz
1 '-y+3/4, x+3/4, -z+3/4'
2 'y+1/4, -x+3/4, -z+3/4'
3 'x, y+1/2, -z'
4 '-x, -y, -z'
5 'y+1/4, -x+1/4, z+1/4'
6 '-y+3/4, x+1/4, z+1/4'
7 '-x, -y+1/2, z'
8 'x, y, z'
9 '-y+1/4, x+1/4, -z+1/4'
10 'y+3/4, -x+1/4, -z+1/4'
11 'x+1/2, y, -z+1/2'
12 '-x+1/2, -y+1/2, -z+1/2'
13 'y+3/4, -x+3/4, z+3/4'
14 '-y+1/4, x+3/4, z+3/4'
15 '-x+1/2, -y, z+1/2'
16 'x+1/2, y+1/2, z+1/2'
loop_
_atom_type_symbol
_atom_type_oxidation_number
Dy3+ 3
Na1+ 1
Dy3+ 3
Se6+ 6
O2- -2
loop_
_atom_site_label
_atom_site_type_symbol
_atom_site_symmetry_multiplicity
_atom_site_Wyckoff_symbol
_atom_site_fract_x
_atom_site_fract_y
_atom_site_fract_z
_atom_site_B_iso_or_equiv
_atom_site_occupancy
_atom_site_attached_hydrogens
Dy1 Dy3+ 4 a 0 0.25 0.125 0.7 1. 0
Na1 Na1+ 4 b 0 0.25 0.625 1.5 0.12(3) 0
Na2 Na1+ 16 f 0.1005(3) 0.0079(3) 0.3485(2) 0.66 0.889(3) 0
Dy2 Dy3+ 16 f 0.1005(3) 0.0079(3) 0.3485(2) 0.66 0.111(3) 0
Se1 Se6+ 16 f 0.1703(1) 0.34514(9) 0.3744(1) 0.59 1. 0
O1 O2- 16 f 0.1491(11) 0.4618(10) 0.4561(7) 1.54 1. 0
O2 O2- 16 f 0.1522(10) 0.2106(9) 0.4373(8) 1.57 1. 0
O3 O2- 16 f 0.0634(8) 0.3637(8) 0.2788(7) 0.78 1. 0
O4 O2- 16 f 0.3095(8) 0.3516(9) 0.3178(8) 1.14 1. 0
#End of TTdata_63040-ICSD