
#(C) 2019 by FIZ Karlsruhe - Leibniz Institute for Information Infrastructure.  All rights reserved.
data_63077-ICSD
_database_code_ICSD 63077
_audit_creation_date 1989-06-19
_audit_update_record 2006-04-01
_chemical_name_systematic 'Disodium sulfate(VI) - I, HT'
_chemical_formula_structural 'Na2 (S O4)'
_chemical_formula_sum 'Na2 O4 S1'
_chemical_name_structure_type K2SO4(alpha)
_chemical_name_mineral Metathenardite
_exptl_crystal_density_diffrn 2.69
_publ_section_title
'Crystal chemistry and structure of Na2 S O4 (I) and its solid solutions.'
loop_
_citation_id
_citation_journal_full
_citation_year
_citation_journal_volume
_citation_page_first
_citation_page_last
_citation_journal_id_ASTM
primary 'Acta Crystallographica, Section B: Structural Science' 1985 41 5 11
ASBSDK
loop_
_publ_author_name
'Eysel, W.'
'Hoefer, H.H.'
'Keester, K.L.'
'Hahn, T.'
_cell_length_a 5.326(2)
_cell_length_b 5.326(2)
_cell_length_c 7.126(3)
_cell_angle_alpha 90.
_cell_angle_beta 90.
_cell_angle_gamma 120.
_cell_volume 175.06
_cell_formula_units_Z 2
_symmetry_space_group_name_H-M 'P 63/m m c'
_symmetry_Int_Tables_number 194
_refine_ls_R_factor_all 0.09
loop_
_symmetry_equiv_pos_site_id
_symmetry_equiv_pos_as_xyz
1 'x, x-y, -z+1/2'
2 '-x+y, y, -z+1/2'
3 '-y, -x, -z+1/2'
4 '-x+y, -x, -z+1/2'
5 '-y, x-y, -z+1/2'
6 'x, y, -z+1/2'
7 '-x, -x+y, z+1/2'
8 'x-y, -y, z+1/2'
9 'y, x, z+1/2'
10 'x-y, x, z+1/2'
11 'y, -x+y, z+1/2'
12 '-x, -y, z+1/2'
13 '-x, -x+y, -z'
14 'x-y, -y, -z'
15 'y, x, -z'
16 'x-y, x, -z'
17 'y, -x+y, -z'
18 '-x, -y, -z'
19 'x, x-y, z'
20 '-x+y, y, z'
21 '-y, -x, z'
22 '-x+y, -x, z'
23 '-y, x-y, z'
24 'x, y, z'
loop_
_atom_type_symbol
_atom_type_oxidation_number
Na1+ 1
S6+ 6
O2- -2
loop_
_atom_site_label
_atom_site_type_symbol
_atom_site_symmetry_multiplicity
_atom_site_Wyckoff_symbol
_atom_site_fract_x
_atom_site_fract_y
_atom_site_fract_z
_atom_site_B_iso_or_equiv
_atom_site_occupancy
_atom_site_attached_hydrogens
Na1 Na1+ 2 d 0.3333 0.6667 0.75 6.2(2) 1. 0
Na2 Na1+ 2 a 0 0 0 3.3(1) 1. 0
S1 S6+ 2 c 0.3333 0.6667 0.25 4.5(2) 1. 0
O1 O2- 12 k 0.242 0.484 0.418 9.1(3) 0.167 0
O2 O2- 12 j 0.199 0.346 0.25 4.8(2) 0.5 0
#End of TTdata_63077-ICSD