
#(C) 2019 by FIZ Karlsruhe - Leibniz Institute for Information Infrastructure.  All rights reserved.
data_63191-ICSD
_database_code_ICSD 63191
_audit_creation_date 1990-06-08
_audit_update_record 2008-02-01
_chemical_name_systematic 'Sodium tecto-alumotrisilicate'
_chemical_formula_structural 'Na (Al Si3 O8)'
_chemical_formula_sum 'Al1 Na1 O8 Si3'
_chemical_name_structure_type Feldspar#-(TC)-Albite-NaAlSi3O8
_chemical_name_mineral 'Albite intermediate'
_exptl_crystal_density_diffrn 2.62
_cell_measurement_temperature 294.
_publ_section_title 'Structure of intermediate albite, Na Al Si3 O8'
loop_
_citation_id
_citation_journal_full
_citation_year
_citation_journal_volume
_citation_page_first
_citation_page_last
_citation_journal_id_ASTM
primary 'Acta Crystallographica, Section C: Crystal Structure Communications'
1989 45 542 545 ACSCEE
loop_
_publ_author_name
'Phillips, M.W.'
'Ribbe, P.H.'
'Pinkerton, A.A.'
_cell_length_a 8.149(1)
_cell_length_b 12.840(1)
_cell_length_c 7.120(1)
_cell_angle_alpha 93.83(1)
_cell_angle_beta 116.47(1)
_cell_angle_gamma 89.51(1)
_cell_volume 665.21
_cell_formula_units_Z 4
_symmetry_space_group_name_H-M 'C -1'
_symmetry_Int_Tables_number 2
_refine_ls_R_factor_all 0.02
loop_
_symmetry_equiv_pos_site_id
_symmetry_equiv_pos_as_xyz
1 '-x, -y, -z'
2 'x, y, z'
3 '-x+1/2, -y+1/2, -z'
4 'x+1/2, y+1/2, z'
loop_
_atom_type_symbol
_atom_type_oxidation_number
Na1+ 1
Si4+ 4
Al3+ 3
Si4+ 4
Al3+ 3
Si4+ 4
Al3+ 3
Si4+ 4
Al3+ 3
O2- -2
loop_
_atom_site_label
_atom_site_type_symbol
_atom_site_symmetry_multiplicity
_atom_site_Wyckoff_symbol
_atom_site_fract_x
_atom_site_fract_y
_atom_site_fract_z
_atom_site_B_iso_or_equiv
_atom_site_occupancy
_atom_site_attached_hydrogens
Na1 Na1+ 4 i 0.2721(2) 0.0017(2) 0.1385(2) . 1. 0
Si1 Si4+ 4 i 0.00880(6) 0.16574(4) 0.21242(7) . 0.49 0
Al1 Al3+ 4 i 0.00880(6) 0.16574(4) 0.21242(7) . 0.51 0
Si2 Si4+ 4 i 0.00427(6) 0.81603(4) 0.23167(7) . 0.85 0
Al2 Al3+ 4 i 0.00427(6) 0.81603(4) 0.23167(7) . 0.15 0
Si3 Si4+ 4 i 0.69086(6) 0.10857(4) 0.31795(7) . 0.84 0
Al3 Al3+ 4 i 0.69086(6) 0.10857(4) 0.31795(7) . 0.16 0
Si4 Si4+ 4 i 0.68395(6) 0.87870(4) 0.35626(7) . 0.83 0
Al4 Al3+ 4 i 0.68395(6) 0.87870(4) 0.35626(7) . 0.17 0
O1 O2- 4 i 0.0052(2) 0.1338(1) 0.9780(2) . 1. 0
O2 O2- 4 i 0.5920(2) 0.9924(1) 0.2791(2) . 1. 0
O3 O2- 4 i 0.8178(2) 0.1086(1) 0.1949(2) . 1. 0
O4 O2- 4 i 0.8188(2) 0.8476(1) 0.2496(2) . 1. 0
O5 O2- 4 i 0.0153(2) 0.2939(1) 0.2757(2) . 1. 0
O6 O2- 4 i 0.0218(2) 0.6888(1) 0.2211(2) . 1. 0
O7 O2- 4 i 0.1991(2) 0.1110(1) 0.3876(2) . 1. 0
O8 O2- 4 i 0.1868(2) 0.8672(1) 0.4305(2) . 1. 0
loop_
_atom_site_aniso_label
_atom_site_aniso_type_symbol
_atom_site_aniso_U_11
_atom_site_aniso_U_22
_atom_site_aniso_U_33
_atom_site_aniso_U_12
_atom_site_aniso_U_13
_atom_site_aniso_U_23
Na1 Na1+ 0.0177(4) 0.138(1) 0.0736(6) 0.0029(6) 0.0053(4) -.0756(6)
Si1 Si4+ 0.0109(2) 0.0103(2) 0.0084(1) -.0016(2) 0.0048(1) 0.0008(1)
Al1 Al3+ 0.0109(2) 0.0103(2) 0.0084(1) -.0016(2) 0.0048(1) 0.0008(1)
Si2 Si4+ 0.0107(1) 0.0109(2) 0.0085(1) 0.0021(1) 0.0047(1) 0.0018(1)
Al2 Al3+ 0.0107(1) 0.0109(2) 0.0085(1) 0.0021(1) 0.0047(1) 0.0018(1)
Si3 Si4+ 0.0100(1) 0.0084(2) 0.0106(2) 0.0000(1) 0.0040(1) 0.0013(1)
Al3 Al3+ 0.0100(1) 0.0084(2) 0.0106(2) 0.0000(1) 0.0040(1) 0.0013(1)
Si4 Si4+ 0.0098(1) 0.0085(2) 0.0102(1) 0.0007(1) 0.0043(1) 0.0016(1)
Al4 Al3+ 0.0098(1) 0.0085(2) 0.0102(1) 0.0007(1) 0.0043(1) 0.0016(1)
O1 O2- 0.0255(5) 0.0186(6) 0.0160(4) 0.0000(5) 0.0118(3) 0.0024(4)
O2 O2- 0.0131(4) 0.0125(5) 0.0170(5) -.0001(4) 0.0047(3) 0.0029(4)
O3 O2- 0.0207(5) 0.0187(6) 0.0221(5) -.0030(5) 0.0129(3) -.0006(5)
O4 O2- 0.0195(5) 0.0247(7) 0.0263(5) 0.0036(5) 0.0145(4) 0.0013(5)
O5 O2- 0.0162(5) 0.0168(6) 0.0200(5) -.0024(4) 0.0079(3) 0.0004(5)
O6 O2- 0.0168(5) 0.0151(6) 0.0182(5) 0.0034(4) 0.0047(4) 0.0023(5)
O7 O2- 0.0185(5) 0.0167(6) 0.0134(5) 0.0026(5) 0.0043(4) 0.0027(4)
O8 O2- 0.0178(5) 0.0185(6) 0.0146(5) -.0011(5) 0.0017(4) -.0005(5)
#End of TTdata_63191-ICSD