
#(C) 2019 by FIZ Karlsruhe - Leibniz Institute for Information Infrastructure.  All rights reserved.
data_63203-ICSD
_database_code_ICSD 63203
_audit_creation_date 1989-12-04
_audit_update_record 2011-02-01
_chemical_name_systematic 'Sodium catena-triniobate'
_chemical_formula_structural 'Na (Nb3 O8)'
_chemical_formula_sum 'Na1 Nb3 O8'
_chemical_name_structure_type NaNb3O8
_exptl_crystal_density_diffrn 5.37
_cell_measurement_temperature 297.
_publ_section_title

;
Extrem kurze nichtbindende Sauerstoff-Sauerstoff-Abstaende: Die
Kristallstrukturen von Nb B O4, Na Nb3 O8 und Na Ta3 O8.
;
loop_
_citation_id
_citation_journal_full
_citation_year
_citation_journal_volume
_citation_page_first
_citation_page_last
_citation_journal_id_ASTM
primary 'Angewandte Chemie' 1988 100 973 975 ANCEAD
loop_
_publ_author_name
'Range, K.J.'
'Wildenauer, M.'
'Heyns, A.M.'
_cell_length_a 7.3244(4)
_cell_length_b 10.3100(5)
_cell_length_c 7.0426(4)
_cell_angle_alpha 90.
_cell_angle_beta 90.
_cell_angle_gamma 90.
_cell_volume 531.82
_cell_formula_units_Z 4
_symmetry_space_group_name_H-M 'I b a m'
_symmetry_Int_Tables_number 72
_refine_ls_R_factor_all 0.04
loop_
_symmetry_equiv_pos_site_id
_symmetry_equiv_pos_as_xyz
1 '-x, y, z+1/2'
2 'x, -y, z+1/2'
3 'x, y, -z'
4 '-x, -y, -z'
5 'x, -y, -z+1/2'
6 '-x, y, -z+1/2'
7 '-x, -y, z'
8 'x, y, z'
9 '-x+1/2, y+1/2, z'
10 'x+1/2, -y+1/2, z'
11 'x+1/2, y+1/2, -z+1/2'
12 '-x+1/2, -y+1/2, -z+1/2'
13 'x+1/2, -y+1/2, -z'
14 '-x+1/2, y+1/2, -z'
15 '-x+1/2, -y+1/2, z+1/2'
16 'x+1/2, y+1/2, z+1/2'
loop_
_atom_type_symbol
_atom_type_oxidation_number
Nb5+ 5
Na1+ 1
O2- -2
loop_
_atom_site_label
_atom_site_type_symbol
_atom_site_symmetry_multiplicity
_atom_site_Wyckoff_symbol
_atom_site_fract_x
_atom_site_fract_y
_atom_site_fract_z
_atom_site_B_iso_or_equiv
_atom_site_occupancy
_atom_site_attached_hydrogens
Nb1 Nb5+ 4 b 0 0.5 0.75 . 1. 0
Nb2 Nb5+ 8 j 0.25239(4) 0.26430(2) 0 . 1. 0
Na1 Na1+ 4 a 0 0 0.25 . 1. 0
O1 O2- 8 j 0.9833(3) 0.1670(2) 0 . 1. 0
O2 O2- 8 j 0.1067(3) 0.4237(2) 0 . 1. 0
O3 O2- 16 k 0.1985(2) 0.3611(1) 0.2996(3) . 1. 0
loop_
_atom_site_aniso_label
_atom_site_aniso_type_symbol
_atom_site_aniso_B_11
_atom_site_aniso_B_22
_atom_site_aniso_B_33
_atom_site_aniso_B_12
_atom_site_aniso_B_13
_atom_site_aniso_B_23
Nb1 Nb5+ 0.321(6) 0.302(6) 0.42(1) 0 0 0
Nb2 Nb5+ 0.306(5) 0.397(5) 0.53(1) 0.040(6) 0 0
Na1 Na1+ 1.65(6) 0.84(5) 1.3(1) 0 0 0
O1 O2- 0.36(5) 0.73(5) 1.2(1) -.05(4) 0 0
O2 O2- 0.55(5) 0.73(5) 0.40(8) 0.19(4) 0 0
O3 O2- 0.65(3) 0.58(3) 0.61(7) 0.19(3) 0.02(4) 0.15(4)
#End of TTdata_63203-ICSD