
#(C) 2019 by FIZ Karlsruhe - Leibniz Institute for Information Infrastructure.  All rights reserved.
data_63218-ICSD
_database_code_ICSD 63218
_audit_creation_date 1989-12-04
_audit_update_record 2015-02-01
_chemical_name_systematic 'Disodium tecto-dialumotrisilicate trihydrate'
_chemical_formula_structural 'Na2 Al2 Si3 O10 (H2 O)3'
_chemical_formula_sum 'H6 Al2 Na2 O13 Si3'
_chemical_name_mineral Paranatrolite
_exptl_crystal_density_diffrn 2.22
_publ_section_title
'Structure refinement of paranatrolite by x-ray diffraction.'
loop_
_citation_id
_citation_journal_full
_citation_year
_citation_journal_volume
_citation_page_first
_citation_page_last
_citation_journal_id_ASTM
primary 'Crystal Research and Technology' 1988 23 647 653 CRTEDF
loop_
_publ_author_name
'Pechar, F.'
_cell_length_a 18.9980(30)
_cell_length_b 19.0810(30)
_cell_length_c 6.579(2)
_cell_angle_alpha 90.
_cell_angle_beta 90.37(1)
_cell_angle_gamma 90.
_cell_volume 2384.84
_cell_formula_units_Z 8
_symmetry_space_group_name_H-M 'F 1 d 1'
_symmetry_Int_Tables_number 9
_refine_ls_R_factor_all 0.036
loop_
_symmetry_equiv_pos_site_id
_symmetry_equiv_pos_as_xyz
1 'x+1/4, -y+1/4, z+1/4'
2 'x, y, z'
3 'x+1/4, -y+3/4, z+3/4'
4 'x, y+1/2, z+1/2'
5 'x+3/4, -y+1/4, z+3/4'
6 'x+1/2, y, z+1/2'
7 'x+3/4, -y+3/4, z+1/4'
8 'x+1/2, y+1/2, z'
loop_
_atom_type_symbol
_atom_type_oxidation_number
Si4+ 4
Al3+ 3
O2- -2
H1+ 1
Na1+ 1
loop_
_atom_site_label
_atom_site_type_symbol
_atom_site_symmetry_multiplicity
_atom_site_Wyckoff_symbol
_atom_site_fract_x
_atom_site_fract_y
_atom_site_fract_z
_atom_site_B_iso_or_equiv
_atom_site_occupancy
_atom_site_attached_hydrogens
Si1 Si4+ 8 a 0 0.0044(3) 0 . 1. 0
Si2 Si4+ 8 a -.1043(2) 0.0443(3) 0.3697(2) . 1. 0
Si3 Si4+ 8 a 0.0887(2) -.0435(3) 0.3750(2) . 1. 0
Al1 Al3+ 8 a 0.0360(2) 0.0912(3) -.3893(2) . 1. 0
Al2 Al3+ 8 a -.0485(2) -.0867(3) -.3866(2) . 1. 0
O1 O2- 8 a 0.0153(3) 0.0740(3) -.1318(3) . 1. 0
O2 O2- 8 a -.0166(3) -.0616(3) -.1443(3) . 1. 0
O3 O2- 8 a 0.0688(3) 0.1736(3) -.4251(3) . 1. 0
O4 O2- 8 a 0.1649(3) -.0801(3) 0.3895(3) . 1. 0
O5 O2- 8 a 0.0897(3) 0.0261(3) 0.5237(3) . 1. 0
O6 O2- 8 a -.1047(3) -.0204(3) 0.5303(3) . 1. 0
O7 O2- 8 a -.0509(3) 0.1045(3) 0.4585(3) . 1. 0
O8 O2- 8 a 0.0256(3) -.0943(3) 0.4569(3) . 1. 0
O9 O2- 8 a -.0705(3) 0.0178(3) 0.1524(3) . 1. 0
O10 O2- 8 a 0.0715(3) -.0162(3) 0.1386(3) . 1. 0
O11 O2- 8 a 0.0288(5) 0.2000(5) 0.0616(5) . 1. 0
O12 O2- 8 a -.0528(5) -.2041(5) 0.1633(5) . 1. 0
O13 O2- 8 a -.1887(5) -.0689(5) 0.1077(5) . 1. 0
H1 H1+ 8 a 0.0254(6) 0.1551(7) -.0056(5) . 1. 0
H2 H1+ 8 a 0.0603(6) 0.2283(6) -.0167(5) . 1. 0
H3 H1+ 8 a -.0902(6) -.2152(6) 0.2548(5) . 1. 0
H4 H1+ 8 a 0.2293(6) -.0749(6) -.0142(5) . 1. 0
H5 H1+ 8 a -.1406(6) -.0644(6) 0.0853(5) . 1. 0
H6 H1+ 8 a -.2019(6) -.1165(6) 0.1279(5) . 1. 0
Na1 Na1+ 8 a 0.2180(2) 0.0181(2) -.3859(3) . 1. 0
Na2 Na1+ 8 a 0.2182(2) 0.0182(2) 0.1140(3) . 1. 0
loop_
_atom_site_aniso_label
_atom_site_aniso_type_symbol
_atom_site_aniso_U_11
_atom_site_aniso_U_22
_atom_site_aniso_U_33
_atom_site_aniso_U_12
_atom_site_aniso_U_13
_atom_site_aniso_U_23
Si1 Si4+ 0.0064(6) 0.0068(6) 0.0061(6) 0.0002(5) 0.0001(5) 0.0000(5)
Si2 Si4+ 0.0049(7) 0.0064(7) 0.0076(7) -.0002(5) -.0003(5) -.0010(5)
Si3 Si4+ 0.0049(6) 0.0064(6) 0.0065(6) -.0018(5) 0.0009(5) 0.0001(5)
Al1 Al3+ 0.0058(8) 0.0056(7) 0.0072(7) 0.0001(6) 0.0005(6) -.0004(6)
Al2 Al3+ 0.0062(8) 0.0053(8) 0.0076(8) -.0005(8) 0.0008(6) -.0003(6)
O1 O2- 0.0172(5) 0.0084(5) 0.0079(5) -.0006(4) 0.0022(4) 0.0018(4)
O2 O2- 0.0197(6) 0.0081(5) 0.0112(5) -.0005(4) -.0027(4) -.0028(4)
O3 O2- 0.0054(5) 0.0070(5) 0.0131(5) -.0013(4) -.0011(4) -.0011(4)
O4 O2- 0.0068(5) 0.0075(5) 0.0142(5) -.0021(4) 0.0002(4) 0.0006(4)
O5 O2- 0.0111(5) 0.0086(5) 0.0130(5) 0.0030(4) 0.0000(4) -.0046(4)
O6 O2- 0.0126(5) 0.0110(5) 0.0140(5) 0.0029(4) 0.0015(4) 0.0051(4)
O7 O2- 0.0080(5) 0.0099(5) 0.0155(3) 0.0018(4) -.0043(4) -.0006(4)
O8 O2- 0.0094(5) 0.0127(5) 0.0136(5) 0.0031(4) 0.0044(4) 0.0008(4)
O9 O2- 0.0095(5) 0.0168(5) 0.0122(5) -.0020(4) 0.0037(4) 0.0018(4)
O10 O2- 0.0080(5) 0.0172(5) 0.0088(5) 0.0000(4) -.0008(4) -.0028(4)
O11 O2- 0.055(1) 0.0228(7) 0.0233(7) -.0055(8) 0.0160(7) -.0099(7)
O12 O2- 0.0281(8) 0.0422(9) 0.0208(7) -.0069(7) 0.0110(6) -.0102(7)
O13 O2- 0.0160(7) 0.0138(7) 0.0434(8) 0.0005(5) -.0045(6) 0.0050(6)
H1 H1+ 0.0566(17) 0.0298(14) 0.0344(14) -.0008(11) 0.0118(12) -.0108(12)
H2 H1+ 0.0738(22) 0.0398(16) 0.0488(18) -.0156(16) 0.0258(16) -.0082(14)
H3 H1+ 0.0402(16) 0.0536(17) 0.0346(14) -.0016(14) 0.0180(12) -.0044(12)
H4 H1+ 0.0464(19) 0.0681(20) 0.0446(16) -.0142(16) 0.0054(14) -.0172(16)
H5 H1+ 0.0264(16) 0.0580(16) 0.0682(22) 0.0012(13) 0.0032(14) 0.0044(16)
H6 H1+ 0.0474(16) 0.0210(14) 0.0476(16) 0.0022(12) -.0088(12) -.0002(12)
Na1 Na1+ 0.0102(8) 0.0104(8) 0.0122(8) -.0008(6) -.0014(6) -.0018(6)
Na2 Na1+ 0.0104(8) 0.0102(8) 0.0124(8) -.0010(6) -.0016(6) -.0020(6)
#End of TTdata_63218-ICSD