
#(C) 2019 by FIZ Karlsruhe - Leibniz Institute for Information Infrastructure.  All rights reserved.
data_63265-ICSD
_database_code_ICSD 63265
_audit_creation_date 1989-12-04
_audit_update_record 2018-08-01
_chemical_name_systematic
'Aluminium magnesium sodium oxide (10.35/0.65/1.65/17)'
_chemical_formula_structural '(Al10.35 Mg0.65 O16) (Na1.65 O)'
_chemical_formula_sum 'Al10.35 Mg0.65 Na1.65 O17'
_chemical_name_structure_type KAl10.67O17
_chemical_name_mineral 'Alumina beta'''
_exptl_crystal_density_diffrn 3.27
_publ_section_title

;
Host lattices and superionic properties in beta- and beta''-alumina. I.
Structures and local correlations.
;
loop_
_citation_id
_citation_journal_full
_citation_year
_citation_journal_volume
_citation_page_first
_citation_page_last
_citation_journal_id_ASTM
primary 'Physical Review B: Condensed Matter and Materials Physics' 1986 34 5838
5849 PRBMDO
loop_
_publ_author_name
'Collin, G.'
'Boilot, J.P.'
'Colomban, P.'
'Comes, R.'
_cell_length_a 5.624(2)
_cell_length_b 5.624(2)
_cell_length_c 33.683(5)
_cell_angle_alpha 90.
_cell_angle_beta 90.
_cell_angle_gamma 120.
_cell_volume 922.64
_cell_formula_units_Z 3
_symmetry_space_group_name_H-M 'R -3 m H'
_symmetry_Int_Tables_number 166
_refine_ls_R_factor_all 0.0283
loop_
_symmetry_equiv_pos_site_id
_symmetry_equiv_pos_as_xyz
1 'x-y, -y, -z'
2 '-x, -x+y, -z'
3 'y, x, -z'
4 'x-y, x, -z'
5 'y, -x+y, -z'
6 '-x, -y, -z'
7 '-x+y, y, z'
8 'x, x-y, z'
9 '-y, -x, z'
10 '-x+y, -x, z'
11 '-y, x-y, z'
12 'x, y, z'
13 'x-y+2/3, -y+1/3, -z+1/3'
14 '-x+2/3, -x+y+1/3, -z+1/3'
15 'y+2/3, x+1/3, -z+1/3'
16 'x-y+2/3, x+1/3, -z+1/3'
17 'y+2/3, -x+y+1/3, -z+1/3'
18 '-x+2/3, -y+1/3, -z+1/3'
19 '-x+y+2/3, y+1/3, z+1/3'
20 'x+2/3, x-y+1/3, z+1/3'
21 '-y+2/3, -x+1/3, z+1/3'
22 '-x+y+2/3, -x+1/3, z+1/3'
23 '-y+2/3, x-y+1/3, z+1/3'
24 'x+2/3, y+1/3, z+1/3'
25 'x-y+1/3, -y+2/3, -z+2/3'
26 '-x+1/3, -x+y+2/3, -z+2/3'
27 'y+1/3, x+2/3, -z+2/3'
28 'x-y+1/3, x+2/3, -z+2/3'
29 'y+1/3, -x+y+2/3, -z+2/3'
30 '-x+1/3, -y+2/3, -z+2/3'
31 '-x+y+1/3, y+2/3, z+2/3'
32 'x+1/3, x-y+2/3, z+2/3'
33 '-y+1/3, -x+2/3, z+2/3'
34 '-x+y+1/3, -x+2/3, z+2/3'
35 '-y+1/3, x-y+2/3, z+2/3'
36 'x+1/3, y+2/3, z+2/3'
loop_
_atom_type_symbol
_atom_type_oxidation_number
Al3+ 3
Mg2+ 2
Al3+ 3
O2- -2
Na1+ 1
loop_
_atom_site_label
_atom_site_type_symbol
_atom_site_symmetry_multiplicity
_atom_site_Wyckoff_symbol
_atom_site_fract_x
_atom_site_fract_y
_atom_site_fract_z
_atom_site_B_iso_or_equiv
_atom_site_occupancy
_atom_site_attached_hydrogens
Al1 Al3+ 18 h 0.16723(4) 0.33446(8) 0.92898(1) . 1. 0
Al2 Al3+ 6 c 0 0 0.35021(2) . 0.675 0
Mg1 Mg2+ 6 c 0 0 0.35021(2) . 0.325 0
Al3 Al3+ 6 c 0 0 0.44988(2) . 1. 0
Al4 Al3+ 3 a 0 0 0 . 1. 0
O1 O2- 18 h 0.16323(10) 0.32646(20) 0.23504(2) . 1. 0
O2 O2- 18 h 0.15371(10) 0.30742(20) 0.03450(2) . 1. 0
O3 O2- 6 c 0 0 0.09726(5) . 1. 0
O4 O2- 6 c 0 0 0.29487(5) . 1. 0
O5 O2- 3 b 0 0 0.5 . 1. 0
Na1 Na1+ 6 c 0 0 -.1743(2) . 0.340(8) 0
Na2 Na1+ 18 h 0.083(1) 0.166(2) -.1721(2) . 0.1616(31) 0
loop_
_atom_site_aniso_label
_atom_site_aniso_type_symbol
_atom_site_aniso_U_11
_atom_site_aniso_U_22
_atom_site_aniso_U_33
_atom_site_aniso_U_12
_atom_site_aniso_U_13
_atom_site_aniso_U_23
Al1 Al3+ 0.0051(1) 0.0053(2) 0.0100(3) 0.00265 0.00015 0.0003(1)
Al2 Al3+ 0.0064(2) 0.0064(2) 0.0104(6) 0.0032 0 0
Mg1 Mg2+ 0.0064 0.0064 0.0104 0.0032 0 0
Al3 Al3+ 0.0061(2) 0.0061(2) 0.0074(6) 0.003005 0 0
Al4 Al3+ 0.0048(3) 0.0048(3) 0.0077(6) 0.0024 0 0
O1 O2- 0.0062(3) 0.0067(4) 0.0118(6) 0.00335 0.00035 0.0007(2)
O2 O2- 0.0082(3) 0.0106(4) 0.0110(6) 0.0053 -.0006 -.0012(2)
O3 O2- 0.0072(4) 0.0072(4) 0.0134(6) 0.0036 0 0
O4 O2- 0.0056(5) 0.0056(5) 0.0147(6) 0.0028 0 0
O5 O2- 0.0441(15) 0.0441(15) 0.0086(10) 0.02205(15) 0 0
Na1 Na1+ 0.0862(30) 0.0862(30) 0.0419(40) 0.0431(30) 0 0
Na2 Na1+ 0.0785(30) 0.187(13) 0.0288(40) 0.09335(65) -.0003(15) -.0006(30)
#End of TTdata_63265-ICSD