
#(C) 2019 by FIZ Karlsruhe - Leibniz Institute for Information Infrastructure.  All rights reserved.
data_63414-ICSD
_database_code_ICSD 63414
_audit_creation_date 1990-12-27
_audit_update_record 2012-08-01
_chemical_name_systematic 'Sodium potassium zinc phosphate (2.7/1.3/4/4)'
_chemical_formula_structural 'Na2.67 K1.33 Zn4 (P O4)4'
_chemical_formula_sum 'K1.33 Na2.67 O16 P4 Zn4'
_chemical_name_structure_type KAlGeO4
_exptl_crystal_density_diffrn 3.45
_publ_section_title 'Crystal structure of (Na,K) (Zn P O4)'
loop_
_citation_id
_citation_journal_full
_citation_year
_citation_journal_volume
_citation_page_first
_citation_page_last
_citation_journal_id_ASTM
primary Kristallografiya 1989 34 62 66 KRISAJ
loop_
_publ_author_name
'Yakubovich, O.V.'
'Mel'nikov, O.K. (Melnikov, O.K.)'
_cell_length_a 17.609(5)
_cell_length_b 17.609(5)
_cell_length_c 8.112(2)
_cell_angle_alpha 90.
_cell_angle_beta 90.
_cell_angle_gamma 120.
_cell_volume 2178.35
_cell_formula_units_Z 6
_symmetry_space_group_name_H-M 'P 63'
_symmetry_Int_Tables_number 173
_refine_ls_R_factor_all 0.0635
loop_
_symmetry_equiv_pos_site_id
_symmetry_equiv_pos_as_xyz
1 'x-y, x, z+1/2'
2 'y, -x+y, z+1/2'
3 '-x, -y, z+1/2'
4 '-x+y, -x, z'
5 '-y, x-y, z'
6 'x, y, z'
loop_
_atom_type_symbol
_atom_type_oxidation_number
Zn2+ 2
P5+ 5
Na1+ 1
K1+ 1
O2- -2
loop_
_atom_site_label
_atom_site_type_symbol
_atom_site_symmetry_multiplicity
_atom_site_Wyckoff_symbol
_atom_site_fract_x
_atom_site_fract_y
_atom_site_fract_z
_atom_site_B_iso_or_equiv
_atom_site_occupancy
_atom_site_attached_hydrogens
Zn1 Zn2+ 6 c 0.16276(9) 0.17120(9) 0 0.22(2) 1. 0
Zn2 Zn2+ 6 c 0.0094(1) 0.3375(1) 0.1630(3) 1.70(4) 1. 0
Zn3 Zn2+ 6 c 0.5117(1) 0.3402(1) 0.1577(3) 1.56(4) 1. 0
Zn4 Zn2+ 6 c 0.3306(1) 0.4955(1) 0.1562(3) 1.46(4) 1. 0
P1 P5+ 6 c 0.1579(3) 0.1703(3) 0.6137(5) 0.73(6) 1. 0
P2 P5+ 6 c 0.0110(3) 0.3392(3) 0.5610(6) 0.96(6) 1. 0
P3 P5+ 6 c 0.1721(3) 0.5128(3) 0.0602(6) 0.73(6) 1. 0
P4 P5+ 6 c 0.3271(3) 0.4863(3) 0.5570(5) 0.58(7) 1. 0
Na1 Na1+ 6 c 0.3227(5) 0.1524(4) 0.8047(9) 1.4(1) 1. 0
Na2 Na1+ 6 c 0.1572(5) 0.3377(5) 0.860(1) 2.3(2) 1. 0
Na3 Na1+ 2 b 0.3333 0.6667 0.370(1) 0.6(2) 1. 0
Na4 Na1+ 2 b 0.3333 0.6667 0.804(2) 2.3(3) 1. 0
K1 K1+ 2 a 0 0 0.3309(9) 1.0(1) 1. 0
K2 K1+ 6 c 0.0014(3) 0.5014(3) 0.3317(8) 1.56(6) 1. 0
O1 O2- 6 c 0.0426(8) 0.2565(8) 0.074(1) 1.2(2) 1. 0
O2 O2- 6 c 0.1176(8) 0.5729(8) 0.571(1) 1.2(2) 1. 0
O3 O2- 6 c 0.1960(7) 0.0537(6) 0.280(1) 1.6(2) 1. 0
O4 O2- 6 c 0.2420(9) 0.2834(9) 0.106(1) 1.0(2) 1. 0
O5 O2- 6 c 0.2143(9) 0.4585(9) 0.080(1) 1.1(2) 1. 0
O6 O2- 6 c 0.1147(7) 0.2007(7) 0.482(1) 1.1(2) 1. 0
O7 O2- 6 c 0.0740(9) 0.4555(9) 0.070(1) 1.0(2) 1. 0
O8 O2- 6 c 0.0487(9) 0.6211(9) 0.050(1) 1.4(2) 1. 0
O9 O2- 6 c 0.1185(8) 0.0700(8) 0.602(1) 0.9(2) 1. 0
O10 O2- 6 c 0.2863(9) 0.5490(9) 0.579(1) 1.2(2) 1. 0
O11 O2- 6 c 0.2076(8) 0.5882(8) 0.188(1) 1.3(2) 1. 0
O12 O2- 6 c 0.0843(7) 0.3884(7) 0.691(1) 0.9(2) 1. 0
O13 O2- 6 c 0.1973(9) 0.5574(9) 0.886(1) 1.8(2) 1. 0
O14 O2- 6 c 0.0563(7) 0.3502(7) 0.391(1) 0.9(2) 1. 0
O15 O2- 6 c 0.2939(7) 0.4113(7) 0.687(1) 1.2(2) 1. 0
O16 O2- 6 c 0.3014(8) 0.4398(8) 0.381(1) 1.5(2) 1. 0
#End of TTdata_63414-ICSD