
#(C) 2019 by FIZ Karlsruhe - Leibniz Institute for Information Infrastructure.  All rights reserved.
data_63479-ICSD
_database_code_ICSD 63479
_audit_creation_date 1992-08-20
_audit_update_record 2006-04-01
_chemical_name_systematic 'Sodium catena-vanadate'
_chemical_formula_structural 'Na (V O3)'
_chemical_formula_sum 'Na1 O3 V1'
_chemical_name_structure_type NaVO3(Cc)
_exptl_crystal_density_diffrn 2.9
_cell_measurement_temperature 298.
_publ_section_title

;
Crystal chemistry of vanadate pyroxenes: crystal structure refinement, na
anisotropy and rigid body analysis of the thermal vibration in ferroelectric
Na V O3
;
loop_
_citation_id
_citation_journal_full
_citation_year
_citation_journal_volume
_citation_page_first
_citation_page_last
_citation_journal_id_ASTM
primary Ferroelectrics 1990 107 219 224 FEROA8
loop_
_publ_author_name
'Shaikh, A.M.'
_cell_length_a 10.557(2)
_cell_length_b 9.469(3)
_cell_length_c 5.880(1)
_cell_angle_alpha 90.
_cell_angle_beta 108.43(2)
_cell_angle_gamma 90.
_cell_volume 557.64
_cell_formula_units_Z 8
_symmetry_space_group_name_H-M 'C 1 c 1'
_symmetry_Int_Tables_number 9
_refine_ls_R_factor_all 0.035
loop_
_symmetry_equiv_pos_site_id
_symmetry_equiv_pos_as_xyz
1 'x, -y, z+1/2'
2 'x, y, z'
3 'x+1/2, -y+1/2, z+1/2'
4 'x+1/2, y+1/2, z'
loop_
_atom_type_symbol
_atom_type_oxidation_number
Na1+ 1
V5+ 5
O2- -2
V5+ 5
O2- -2
loop_
_atom_site_label
_atom_site_type_symbol
_atom_site_symmetry_multiplicity
_atom_site_Wyckoff_symbol
_atom_site_fract_x
_atom_site_fract_y
_atom_site_fract_z
_atom_site_B_iso_or_equiv
_atom_site_occupancy
_atom_site_attached_hydrogens
Na1 Na1+ 4 a 0 0.9124 0.25 1.41 1. 0
Na2 Na1+ 4 a 0 0.2941(1) 0.25 3.125 1. 0
V1 V5+ 4 a 0.2921 0.0898 0.2612(1) 0.987 1. 0
O1 O2- 4 a 0.1283(2) 0.1010(2) 0.1689 1.368 1. 0
O2 O2- 4 a 0.3566(2) 0.2463(2) 0.3257(4) 1.868 1. 0
O3 O2- 4 a 0.3532(2) 0.0084(2) 0.0386(3) 1.643 1. 0
V2 V5+ 4 a -.2923 -.0898 -.2615(1) 0.877 1. 0
O4 O2- 4 a -.1263(2) -.1013(2) -.1638(3) 1.243 1. 0
O5 O2- 4 a -.3565(2) -.2492(2) -.3219(4) 1.728 1. 0
O6 O2- 4 a -.3524(2) -.0066(2) -.0375(3) 1.587 1. 0
#End of TTdata_63479-ICSD