
#(C) 2019 by FIZ Karlsruhe - Leibniz Institute for Information Infrastructure.  All rights reserved.
data_6378-ICSD
_database_code_ICSD 6378
_audit_creation_date 2019-08-01
_chemical_name_systematic 'Dibarium sodium chloride diphosphate'
_chemical_formula_structural 'Ba2 Na Cl P2 O7'
_chemical_formula_sum 'Ba2 Cl1 Na1 O7 P2'
_exptl_crystal_density_diffrn 4.09
_cell_measurement_temperature 293.
_publ_section_title

;
Ba2NaClP2O7. Unprecedented phase matchability induced by symmetry breaking and
its unique fresnoite-type structure
;
loop_
_citation_id
_citation_journal_full
_citation_year
_citation_journal_volume
_citation_page_first
_citation_page_last
_citation_journal_id_ASTM
primary 'Journal of the American Chemical Society' 2018 140 14082 14086 JACSAT
loop_
_publ_author_name
'Chen, Jie'
'Xiong, Lin'
'Chen, Ling'
'Wu, Li-Ming'
_cell_length_a 8.8803(3)
_cell_length_b 8.8803(3)
_cell_length_c 5.22120(10)
_cell_angle_alpha 90
_cell_angle_beta 90
_cell_angle_gamma 90
_cell_volume 411.74
_cell_formula_units_Z 2
_symmetry_space_group_name_H-M 'P 4 b m'
_symmetry_Int_Tables_number 100
_refine_ls_R_factor_all 0.0213
loop_
_symmetry_equiv_pos_site_id
_symmetry_equiv_pos_as_xyz
1 '-y+1/2, -x+1/2, z'
2 'y+1/2, x+1/2, z'
3 'y, -x, z'
4 '-y, x, z'
5 '-x+1/2, y+1/2, z'
6 'x+1/2, -y+1/2, z'
7 '-x, -y, z'
8 'x, y, z'
loop_
_atom_type_symbol
_atom_type_oxidation_number
Ba2+ 2
Na1+ 1
Cl1- -1
P5+ 5
O2- -2
loop_
_atom_site_label
_atom_site_type_symbol
_atom_site_symmetry_multiplicity
_atom_site_Wyckoff_symbol
_atom_site_fract_x
_atom_site_fract_y
_atom_site_fract_z
_atom_site_B_iso_or_equiv
_atom_site_occupancy
_atom_site_attached_hydrogens
Ba1 Ba2+ 4 c 0.81885(4) 0.31885(4) 0.7159(3) 0.0184(3) 1 0
Na1 Na1+ 2 a 0.5 0.5 0.2867(13) 0.0359(16) 1 0
Cl1 Cl1- 2 a 0.5 0.5 0.7940(7) 0.0264(8) 1 0
P1 P5+ 4 c 1.1160(3) 0.3840(3) 0.2151(10) 0.0346(7) 1 0
O1 O2- 4 c 0.9593(14) 0.4593(14) 0.297(3) 0.036(5) 0.5 0
O2 O2- 4 c 1.1183(7) 0.3817(7) -0.0739(18) 0.0316(19) 1 0
O3 O2- 8 d 1.2486(15) 0.449(3) 0.349(4) 0.153(11) 1 0
loop_
_atom_site_aniso_label
_atom_site_aniso_type_symbol
_atom_site_aniso_U_11
_atom_site_aniso_U_22
_atom_site_aniso_U_33
_atom_site_aniso_U_12
_atom_site_aniso_U_13
_atom_site_aniso_U_23
Ba1 Ba2+ 0.0193(3) 0.0193(3) 0.0166(4) -0.00368(15) 0.0008(3) 0.0008(3)
Na1 Na1+ 0.043(2) 0.043(2) 0.021(3) 0. 0. 0.
Cl1 Cl1- 0.0286(11) 0.0286(11) 0.0221(16) 0. 0. 0.
P1 P5+ 0.0393(10) 0.0393(10) 0.0253(12) -0.0065(12) -0.0079(19) 0.0079(19)
O1 O2- 0.045(7) 0.045(7) 0.020(7) -0.026(8) 0.003(4) 0.003(4)
O2 O2- 0.033(3) 0.033(3) 0.029(4) 0.008(4) 0.003(3) -0.003(3)
O3 O2- 0.063(8) 0.30(3) 0.098(11) -0.086(14) -0.008(7) -0.049(14)
#End of TTdata_6378-ICSD