
#(C) 2018 by FIZ Karlsruhe - Leibniz Institute for Information Infrastructure.  All rights reserved.
data_65127-ICSD
_database_code_ICSD 65127
_audit_creation_date 1989-06-19
_chemical_name_systematic 'Lithium gallium germanate - alpha'
_chemical_formula_structural 'Li Ga Ge O4'
_chemical_formula_sum 'Ga1 Ge1 Li1 O4'
_chemical_name_structure_type Be2SiO4
_exptl_crystal_density_diffrn 4.22
_publ_section_title
'Crystal structures of alpha-LiGaSiO4, alpha-LiAlGeO4, and alpha-LiGaGeO4'
loop_
_citation_id
_citation_journal_full
_citation_year
_citation_journal_volume
_citation_page_first
_citation_page_last
_citation_journal_id_ASTM
primary 'Zeitschrift fuer Kristallographie (1979-2010)' 1987 180 63 75 ZEKRDZ
loop_
_publ_author_name
'Fleet, M.E.'
_cell_length_a 13.7683(9)
_cell_length_b 13.7683(9)
_cell_length_c 9.1919(5)
_cell_angle_alpha 90.
_cell_angle_beta 90.
_cell_angle_gamma 120.
_cell_volume 1509.03
_cell_formula_units_Z 18
_symmetry_space_group_name_H-M 'R -3 H'
_symmetry_Int_Tables_number 148
_refine_ls_R_factor_all 0.028
loop_
_symmetry_equiv_pos_site_id
_symmetry_equiv_pos_as_xyz
1 'x-y, x, -z'
2 'y, -x+y, -z'
3 '-x, -y, -z'
4 '-x+y, -x, z'
5 '-y, x-y, z'
6 'x, y, z'
7 'x-y+2/3, x+1/3, -z+1/3'
8 'y+2/3, -x+y+1/3, -z+1/3'
9 '-x+2/3, -y+1/3, -z+1/3'
10 '-x+y+2/3, -x+1/3, z+1/3'
11 '-y+2/3, x-y+1/3, z+1/3'
12 'x+2/3, y+1/3, z+1/3'
13 'x-y+1/3, x+2/3, -z+2/3'
14 'y+1/3, -x+y+2/3, -z+2/3'
15 '-x+1/3, -y+2/3, -z+2/3'
16 '-x+y+1/3, -x+2/3, z+2/3'
17 '-y+1/3, x-y+2/3, z+2/3'
18 'x+1/3, y+2/3, z+2/3'
loop_
_atom_type_symbol
_atom_type_oxidation_number
Li1+ 1
Ga3+ 3
Ge4+ 4
Ga3+ 3
Ge4+ 4
O2- -2
loop_
_atom_site_label
_atom_site_type_symbol
_atom_site_symmetry_multiplicity
_atom_site_Wyckoff_symbol
_atom_site_fract_x
_atom_site_fract_y
_atom_site_fract_z
_atom_site_B_iso_or_equiv
_atom_site_occupancy
_atom_site_attached_hydrogens
Li1 Li1+ 18 f 0.4566(5) 0.1459(5) 0.0844(6) 1.32(7) 1. 0
Ga1 Ga3+ 18 f 0.12123(2) 0.47149(2) 0.08394(2) . 0.5 0
Ge1 Ge4+ 18 f 0.12123(2) 0.47149(2) 0.08394(2) . 0.5 0
Ga2 Ga3+ 18 f 0.01968(2) 0.21484(2) 0.08213(2) . 0.5 0
Ge2 Ge4+ 18 f 0.01968(2) 0.21484(2) 0.08213(2) . 0.5 0
O1 O2- 18 f 0.5393(2) 0.4125(2) 0.0829(2) . 1. 0
O2 O2- 18 f 0.0043(2) 0.3350(2) 0.0821(2) . 1. 0
O3 O2- 18 f 0.2138(2) 0.1171(2) 0.0706(2) . 1. 0
O4 O2- 18 f 0.2403(2) 0.4536(2) 0.0961(2) . 1. 0
loop_
_atom_site_aniso_label
_atom_site_aniso_type_symbol
_atom_site_aniso_U_11
_atom_site_aniso_U_22
_atom_site_aniso_U_33
_atom_site_aniso_U_12
_atom_site_aniso_U_13
_atom_site_aniso_U_23
Ga1 Ga3+ 0.51(1) 0.47(1) 0.39(1) 0.27(1) 0.00(1) 0.01(1)
Ge1 Ge4+ 0.51(1) 0.47(1) 0.39(1) 0.27(1) 0.00(1) 0.01(1)
Ga2 Ga3+ 0.45(1) 0.46(1) 0.38(1) 0.23(1) 0.00(1) 0.00(1)
Ge2 Ge4+ 0.45(1) 0.46(1) 0.38(1) 0.23(1) 0.00(1) 0.00(1)
O1 O2- 0.76(6) 0.72(6) 0.87(6) 0.13(5) 0.13(5) 0.10(5)
O2 O2- 0.64(6) 0.67(6) 1.18(5) 0.28(5) 0.14(5) 0.02(5)
O3 O2- 1.08(6) 0.81(6) 0.42(5) 0.52(5) 0.09(4) 0.10(4)
O4 O2- 1.16(6) 1.52(7) 0.56(5) 0.96(6) 0.03(4) -.02(5)
#End of TTdata_65127-ICSD