
#(C) 2019 by FIZ Karlsruhe - Leibniz Institute for Information Infrastructure.  All rights reserved.
data_65124-ICSD
_database_code_ICSD 65124
_audit_creation_date 1989-06-19
_audit_update_record 2012-08-01
_chemical_name_systematic 'Sodium hydrogen borate hydroxide *'
_chemical_formula_structural 'H Na10 ( B18 O30 (O H)5 )'
_chemical_formula_sum 'H6 B18 Na10 O35'
_exptl_crystal_density_diffrn 2.34
_publ_section_title
'Two different borate groups in the structure of H Na10 ( B18 O30 (O H)5 )'
loop_
_citation_id
_citation_journal_full
_citation_year
_citation_journal_volume
_citation_page_first
_citation_page_last
_citation_journal_id_ASTM
primary 'Zeitschrift fuer Kristallographie' 1987 180 51 62 ZEKRDZ
loop_
_publ_author_name
'Bonazzi, P.'
'Menchetti, S.'
'Sabelli, C.'
'Trosti-Ferroni, R.'
_cell_length_a 9.3259(5)
_cell_length_b 11.851(1)
_cell_length_c 6.6907(7)
_cell_angle_alpha 74.96(1)
_cell_angle_beta 81.40(1)
_cell_angle_gamma 83.25(1)
_cell_volume 703.7
_cell_formula_units_Z 1
_symmetry_space_group_name_H-M 'P -1'
_symmetry_Int_Tables_number 2
_refine_ls_R_factor_all 0.045
loop_
_symmetry_equiv_pos_site_id
_symmetry_equiv_pos_as_xyz
1 '-x, -y, -z'
2 'x, y, z'
loop_
_atom_type_symbol
_atom_type_oxidation_number
O2- -2
B3+ 3
Na1+ 1
H1+ 1
loop_
_atom_site_label
_atom_site_type_symbol
_atom_site_symmetry_multiplicity
_atom_site_Wyckoff_symbol
_atom_site_fract_x
_atom_site_fract_y
_atom_site_fract_z
_atom_site_B_iso_or_equiv
_atom_site_occupancy
_atom_site_attached_hydrogens
O1 O2- 2 i 0.0547(2) 0.2796(1) 0.5687(1) . 1. 0
O2 O2- 2 i 0.2289(2) 0.4227(1) 0.3969(3) . 1. 0
O3 O2- 2 i 0.0893(2) 0.4294(2) 0.7248(3) . 1. 0
O4 O2- 2 i 0.2797(2) 0.2749(1) 0.7069(2) . 1. 0
O5 O2- 2 i 0.2512(2) 0.1303(1) 0.5282(3) . 1. 0
O6 O2- 2 i 0.0225(2) 0.1311(1) 0.4019(3) . 1. 0
O7 O2- 2 i 0.1868(2) 0.2781(1) 0.2281(3) . 1. 0
O8 O2- 2 i 0.4530(2) 0.1091(1) 0.7082(2) . 1. 0
O9 O2- 2 i 0.2861(3) 0.4516(2) 0.0325(3) . 1. 0
O10 O2- 2 i 0.3455(2) 0.5953(1) -.2635(3) . 1. 0
O11 O2- 2 i 0.3038(2) 0.6481(1) 0.0639(3) . 1. 0
O12 O2- 2 i 0.3906(2) 0.7291(1) 0.4208(2) . 1. 0
O13 O2- 2 i 0.3761(2) 0.7918(1) -.2626(2) . 1. 0
O14 O2- 2 i 0.4533(2) 0.8018(1) 0.0560(2) . 1. 0
O15 O2- 2 i 0.2991(2) 0.9263(1) 0.2479(2) . 1. 0
O16 O2- 2 i 0.2025(2) 0.8506(1) -.0006(3) . 1. 0
O17 O2- 2 i 0.0939(2) 0.0226(1) 0.0913(3) . 1. 0
O18 O2- 2 i 0.1083(5) 0.6061(4) -.0541(8) . 0.5 0
B1 B3+ 2 i 0.1603(3) 0.3522(2) 0.5997(4) . 1. 0
B2 B3+ 2 i 0.1225(3) 0.2059(2) 0.4352(4) . 1. 0
B3 B3+ 2 i 0.3274(3) 0.1724(2) 0.6510(4) . 1. 0
B4 B3+ 2 i 0.2314(4) 0.3842(2) 0.2232(4) . 1. 0
B5 B3+ 2 i 0.2944(5) 0.5700(3) -.0457(5) . 1. 0
B6 B3+ 2 i 0.3732(3) 0.7084(2) -.3683(4) . 1. 0
B7 B3+ 2 i 0.3353(3) 0.7713(2) -.0305(4) . 1. 0
B8 B3+ 2 i 0.4247(3) 0.8373(2) 0.2502(4) . 1. 0
B9 B3+ 2 i 0.1983(3) 0.9334(2) 0.1123(4) . 1. 0
Na1 Na1+ 2 i 0.4475(1) 0.3871(1) 0.7778(2) . 1. 0
Na2 Na1+ 2 i 0.4211(1) 0.0936(1) 0.2402(2) . 1. 0
Na3 Na1+ 2 i 0.0399(1) 0.2286(1) 0.9822(2) . 1. 0
Na4 Na1+ 2 i 0.1696(1) 0.6154(1) 0.4128(2) . 1. 0
Na5 Na1+ 2 i 0.1886(1) 0.9408(1) -.3900(2) . 1. 0
H1 H1+ 2 i 0.07 0.08 0.31 5. 1. 0
H2 H1+ 2 i 0.14 0.485 0.77 5. 1. 0
H3 H1+ 2 i 0.056 0.56 0.075 5. 0.5 0
H4 H1+ 1 a 0 0 0 5. 1. 0
loop_
_atom_site_aniso_label
_atom_site_aniso_type_symbol
_atom_site_aniso_beta_11
_atom_site_aniso_beta_22
_atom_site_aniso_beta_33
_atom_site_aniso_beta_12
_atom_site_aniso_beta_13
_atom_site_aniso_beta_23
O1 O2- 0.00262(19) 0.00245(12) 0.00639(39) -.00013(12) -.00005(21) -.00123(18)
O2 O2- 0.00776(25) 0.00205(13) 0.00612(41) -.00187(14) -.00063(25) -.00035(18)
O3 O2- 0.01062(33) 0.00651(21) 0.01760(63) 0.00437(21) -.00647(38) -.00863(30)
O4 O2- 0.00411(20) 0.00200(12) 0.00798(41) 0.00069(12) -.00303(24) -.00225(18)
O5 O2- 0.00332(19) 0.00245(12) 0.00867(42) 0.00018(12) -.00227(23) -.00273(18)
O6 O2- 0.00469(22) 0.00328(14) 0.1257(50) -.00160(14) -.00286(27) -.00216(22)
O7 O2- 0.01238(19) 0.00202(13) 0.00467(41) -.00234(16) 0.00157(28) -.00079(19)
O8 O2- 0.00259(18) 0.00156(11) 0.00880(38) 0.00009(14) -.00203(25) -.0011(2)
O9 O2- 0.02404(46) 0.00219(14) 0.00668(46) -.00455(21) 0.00630(37) -.00142(20)
O10 O2- 0.01547(34) 0.00200(13) 0.00340(39) -.00328(17) 0.00310(29) -.00123(18)
O11 O2- 0.01264(30) 0.00186(13) 0.00411(39) -.00272(16) 0.00276(27) -.00100(18)
O12 O2- 0.00489(21) 0.00177(11) 0.00213(35) -.00077(12) -.00039(21) -.00040(16)
O13 O2- 0.00494(21) 0.00144(11) 0.00221(35) -.00075(12) 0.00021(21) -.00039(16)
O14 O2- 0.00267(18) 0.00202(12) 0.00284(35) 0.00034(12) -.00047(20) -.00078(16)
O15 O2- 0.00256(18) 0.00195(12) 0.00557(38) 0.00050(12) -.00103(21) -.00184(17)
O16 O2- 0.00274(19) 0.00303(13) 0.00844(42) 0.00010(13) -.00135(23) -.00306(19)
O17 O2- 0.00421(21) 0.00293(13) 0.01290(48) 0.00152(13) -.00462(26) -.00346(21)
O18 O2- 0.01149(71) 0.00808(46) 0.0310(17) -.00191(46) -.00655(90) -.00311(71)
B1 B3+ 0.00358(31) 0.00214(19) 0.00547(60) 0.00009(19) -.00061(34) -.00118(27)
B2 B3+ 0.00321(30) 0.00213(18) 0.00573(59) -.00091(19) -.00097(34) -.00031(27)
B3 B3+ 0.00283(29) 0.00196(18) 0.00580(59) -.00038(18) -.00025(33) -.00107(26)
B4 B3+ 0.00933(43) 0.00171(19) 0.00635(66) -.00128(23) 0.00125(42) -.00078(29)
B5 B3+ 0.01953(69) 0.00264(22) 0.00478(66) -.00468(32) 0.00184(54) -.00115(31)
B6 B3+ 0.00383(30) 0.00188(18) 0.00413(56) -.00044(19) 0.00065(33) -.00122(26)
B7 B3+ 0.00223(27) 0.00182(17) 0.00409(54) 0.00017(17) -.00084(30) -.00107(25)
B8 B3+ 0.00454(31) 0.00171(18) 0.00342(55) -.00060(19) 0.00023(33) -.00115(26)
B9 B3+ 0.00283(29) 0.00210(18) 0.00535(58) -.00031(18) -.00071(33) -.00117(26)
Na1 Na1+ 0.00736(15) 0.00285(8) 0.01257(28) 0.00032(8) -.00146(16) -.00277(12)
Na2 Na1+ 0.00731(14) 0.00353(8) 0.01126(27) -.00270(9) 0.00387(16) -.00287(12)
Na3 Na1+ 0.00845(15) 0.00361(8) 0.01064(28) -.00153(9) -.00109(16) 0.00012(12)
Na4 Na1+ 0.00571(13) 0.00298(8) 0.01379(29) 0.00084(8) -.00004(16) -.00173(12)
Na5 Na1+ 0.00600(13) 0.00310(8) 0.01350(28) -.00168(8) -.00323(16) -.00023(12)
#End of TTdata_65124-ICSD