
#(C) 2018 by FIZ Karlsruhe - Leibniz Institute for Information Infrastructure.  All rights reserved.
data_65148-ICSD
_database_code_ICSD 65148
_audit_creation_date 1989-12-04
_audit_update_record 2012-08-01
_chemical_name_systematic 'Potassium dilithium hydroxide'
_chemical_formula_structural 'K Li2 (O H)3'
_chemical_formula_sum 'H3 K1 Li2 O3'
_chemical_name_structure_type KLi2(OH)3
_exptl_crystal_density_diffrn 1.96
_publ_section_title

;
Neue ternaere Alkalimetallhydroxide, M Li2 (O H)3 mit M= K, Rb, Cs sowie ein
Caesiumdilithiumamid, Cs Li2 (N H2)3 - Strukturverwandtschaft zum Ba Ni O3 -
Typ und zu Li O H
;
loop_
_citation_id
_citation_journal_full
_citation_year
_citation_journal_volume
_citation_page_first
_citation_page_last
_citation_journal_id_ASTM
primary 'Zeitschrift fuer Anorganische und Allgemeine Chemie (1950) (DE)' 1987
555 43 56 ZAACAB
loop_
_publ_author_name
'Jacobs, H.'
'Schardey, A.'
'Harbrecht, B.'
_cell_length_a 5.802(1)
_cell_length_b 5.097(6)
_cell_length_c 6.112(1)
_cell_angle_alpha 90.
_cell_angle_beta 103.23(2)
_cell_angle_gamma 90.
_cell_volume 175.95
_cell_formula_units_Z 2
_symmetry_space_group_name_H-M 'P 1 21/m 1'
_symmetry_Int_Tables_number 11
_refine_ls_R_factor_all 0.044
loop_
_symmetry_equiv_pos_site_id
_symmetry_equiv_pos_as_xyz
1 'x, -y+1/2, z'
2 '-x, -y, -z'
3 '-x, y+1/2, -z'
4 'x, y, z'
loop_
_atom_type_symbol
_atom_type_oxidation_number
K1+ 1
Li1+ 1
O2- -2
H1+ 1
loop_
_atom_site_label
_atom_site_type_symbol
_atom_site_symmetry_multiplicity
_atom_site_Wyckoff_symbol
_atom_site_fract_x
_atom_site_fract_y
_atom_site_fract_z
_atom_site_B_iso_or_equiv
_atom_site_occupancy
_atom_site_attached_hydrogens
K1 K1+ 2 e 0.1518(2) 0.25 0.2646(2) . 1. 0
Li1 Li1+ 4 f 0.6501(7) -.005(1) 0.1854(7) . 1. 0
O1 O2- 2 e 0.6149(4) 0.25 0.9270(4) . 1. 0
O2 O2- 2 e 0.0929(4) 0.25 0.7945(5) . 1. 0
O3 O2- 2 e 0.6686(5) 0.25 0.4115(4) . 1. 0
H1 H1+ 2 e 0.75(1) 0.25 0.895(9) 1.(1) 1. 0
H2 H1+ 2 e 0.009(8) 0.25 0.715(8) 0.5(8) 1. 0
H3 H1+ 2 e 0.64(1) 0.25 0.52(1) 4.(2) 1. 0
loop_
_atom_site_aniso_label
_atom_site_aniso_type_symbol
_atom_site_aniso_U_11
_atom_site_aniso_U_22
_atom_site_aniso_U_33
_atom_site_aniso_U_12
_atom_site_aniso_U_13
_atom_site_aniso_U_23
K1 K1+ 0.0231(3) 0.0220(3) 0.0253(3) 0 0.0064(3) 0
Li1 Li1+ 0.015(2) 0.017(2) 0.013(2) 0.001(2) 0.000(1) 0.000(2)
O1 O2- 0.0125(8) 0.018(1) 0.012(1) 0 0.0047(7) 0
O2 O2- 0.0129(9) 0.021(1) 0.022(1) 0 -.0006(9) 0
O3 O2- 0.034(1) 0.025(1) 0.0098(9) 0 0.0061(9) 0
#End of TTdata_65148-ICSD