
#(C) 2019 by FIZ Karlsruhe - Leibniz Institute for Information Infrastructure.  All rights reserved.
data_65161-ICSD
_database_code_ICSD 65161
_audit_creation_date 1989-12-04
_audit_update_record 1999-11-30
_chemical_name_systematic 'Sodium aluminium niobium oxide (3/2/34/64)'
_chemical_formula_structural 'Na3 Al2 Nb34 O64'
_chemical_formula_sum 'Al2 Na3 Nb34 O64'
_exptl_crystal_density_diffrn 5.7
_publ_section_title

;
Na3 Al2 Nb34 O64 und Na (Si, Nb) Nb10 O19: Clusterverbindungen mit isolierten
Nb6 - Oktaedern
;
loop_
_citation_id
_citation_journal_full
_citation_year
_citation_journal_volume
_citation_page_first
_citation_page_last
_citation_journal_id_ASTM
primary 'Zeitschrift fuer Anorganische und Allgemeine Chemie (1950) (DE)' 1987
553 106 122 ZAACAB
loop_
_publ_author_name
'Koehler, J.'
'Simon, A.'
_cell_length_a 7.844(1)
_cell_length_b 7.844(1)
_cell_length_c 70.650(10)
_cell_angle_alpha 90.
_cell_angle_beta 90.
_cell_angle_gamma 120.
_cell_volume 3764.59
_cell_formula_units_Z 3
_symmetry_space_group_name_H-M 'R -3 H'
_symmetry_Int_Tables_number 148
_refine_ls_R_factor_all 0.019
loop_
_symmetry_equiv_pos_site_id
_symmetry_equiv_pos_as_xyz
1 'x-y, x, -z'
2 'y, -x+y, -z'
3 '-x, -y, -z'
4 '-x+y, -x, z'
5 '-y, x-y, z'
6 'x, y, z'
7 'x-y+2/3, x+1/3, -z+1/3'
8 'y+2/3, -x+y+1/3, -z+1/3'
9 '-x+2/3, -y+1/3, -z+1/3'
10 '-x+y+2/3, -x+1/3, z+1/3'
11 '-y+2/3, x-y+1/3, z+1/3'
12 'x+2/3, y+1/3, z+1/3'
13 'x-y+1/3, x+2/3, -z+2/3'
14 'y+1/3, -x+y+2/3, -z+2/3'
15 '-x+1/3, -y+2/3, -z+2/3'
16 '-x+y+1/3, -x+2/3, z+2/3'
17 '-y+1/3, x-y+2/3, z+2/3'
18 'x+1/3, y+2/3, z+2/3'
loop_
_atom_type_symbol
_atom_type_oxidation_number
Na1+ 1
Al3+ 3
Nb2+ 2.5
Nb4+ 4
Nb5+ 5
Nb2+ 2.5
Nb5+ 5
O2- -2
loop_
_atom_site_label
_atom_site_type_symbol
_atom_site_symmetry_multiplicity
_atom_site_Wyckoff_symbol
_atom_site_fract_x
_atom_site_fract_y
_atom_site_fract_z
_atom_site_B_iso_or_equiv
_atom_site_occupancy
_atom_site_attached_hydrogens
Na1 Na1+ 3 b 0 0 0.5 . 1. 0
Na2 Na1+ 6 c 0 0 0.0640(1) . 1. 0
Al1 Al3+ 6 c 0 0 0.2249(1) . 1. 0
Nb1 Nb2+ 18 f 0.2165(1) 0.1927(1) 0.4510(1) . 1. 0
Nb2 Nb2+ 18 f 0.0231(9) 0.2216(1) 0.4183(1) . 1. 0
Nb3 Nb4+ 18 f 0.7960(1) 0.0557(1) 0.1823(1) . 1. 0
Nb4 Nb5+ 6 c 0 0 0.8833(1) . 1. 0
Nb5 Nb5+ 18 f 0.4129(1) 0.1344(1) 0.6172(1) . 1. 0
Nb6 Nb2+ 18 f 0.2179(1) 0.1958(1) 0.9836(1) . 1. 0
Nb7 Nb5+ 6 c 0 0 0.3481(2) . 1. 0
O1 O2- 18 f 0.1975(7) -.0256(7) 0.4686(1) . 1. 0
O2 O2- 18 f 0.7417(7) 0.5674(7) 0.4341(1) . 1. 0
O3 O2- 18 f 0.2484(7) 0.4256(7) 0.4348(1) . 1. 0
O4 O2- 18 f 0.5749(7) -.1543(7) 0.4990(1) . 1. 0
O5 O2- 18 f 0.6005(7) 0.0941(7) 0.4661(1) . 1. 0
O6 O2- 18 f 0.2375(7) 0.2060(7) 0.4008(1) . 1. 0
O7 O2- 18 f 0.0949(7) 0.4702(7) 0.3973(1) . 1. 0
O8 O2- 6 c 0 0 0.1993(1) . 1. 0
O9 O2- 18 f 0.4662(7) 0.3617(7) 0.3674(1) . 1. 0
O10 O2- 18 f 0.2374(7) 0.1635(7) 0.3335(1) . 1. 0
O11 O2- 18 f 0.1713(7) -.0686(7) 0.3649(6) . 1. 0
O12 O2- 6 c 0 0 0.2978(1) . 1. 0
loop_
_atom_site_aniso_label
_atom_site_aniso_type_symbol
_atom_site_aniso_U_11
_atom_site_aniso_U_22
_atom_site_aniso_U_33
_atom_site_aniso_U_12
_atom_site_aniso_U_13
_atom_site_aniso_U_23
Na1 Na1+ 0.0345(48) 0.0345(48) 0.0521(52) 0.0173(24) 0 0
Na2 Na1+ 0.0788(48) 0.0788(48) 0.0562(47) 0.0394(24) 0 0
Al1 Al3+ 0.0103(46) 0.0103(46) 0.0106(17) 0.0051(23) 0 0
Nb1 Nb2+ 0.0104(3) 0.0102(3) 0.0100(3) 0.0050(3) -.0004(2) -.0002(2)
Nb2 Nb2+ 0.0107(3) 0.0103(3) 0.0097(3) 0.0052(3) 0.0005(2) 0.0004(2)
Nb3 Nb4+ 0.0106(3) 0.0106(4) 0.0095(3) 0.0050(3) 0.0001(3) 0.0001(2)
Nb4 Nb5+ 0.0111(44) 0.0111(44) 0.0112(6) 0.0056(22) 0 0
Nb5 Nb5+ 0.0182(4) 0.0149(3) 0.0118(3) 0.0073(3) 0.0005(3) 0.0015(3)
Nb6 Nb2+ 0.0101(3) 0.0108(3) 0.0102(3) 0.0050(3) 0.0004(2) 0.0000(2)
Nb7 Nb5+ 0.0067(18) 0.0067(18) 0.0134(6) 0.0034(9) 0 0
O1 O2- 0.0129(26) 0.0110(26) 0.0147(25) 0.0065(22) -.0017(20) -.0003(19)
O2 O2- 0.0115(25) 0.0103(24) 0.0119(24) 0.0047(21) -.0010(18) -.0013(17)
O3 O2- 0.0110(24) 0.0116(26) 0.0146(24) 0.0044(21) -.0013(19) 0.0007(19)
O4 O2- 0.0097(25) 0.0117(26) 0.0138(22) 0.0056(21) -.0031(18) 0.0001(20)
O5 O2- 0.0165(26) 0.0126(26) 0.0082(23) 0.0093(21) 0.0011(18) 0.0025(18)
O6 O2- 0.0135(26) 0.0110(25) 0.0122(25) 0.0059(22) 0.0001(18) 0.0014(20)
O7 O2- 0.0152(27) 0.0151(26) 0.0145(24) 0.0087(22) -.0009(19) 0.0016(21)
O8 O2- 0.0110(21) 0.0110(21) 0.0141(40) 0.0055 0 0
O9 O2- 0.0154(26) 0.0114(26) 0.0134(24) 0.0086(23) 0.0029(20) 0.0028(19)
O10 O2- 0.0127(26) 0.0150(26) 0.0122(22) 0.0069(21) -.0007(18) 0.0003(19)
O11 O2- 0.0084(25) 0.0107(24) 0.0119(25) 0.0032(20) 0.0021(18) 0.0005(17)
O12 O2- 0.0168(50) 0.0168(50) 0.0174(43) 0.0084(25) 0 0
#End of TTdata_65161-ICSD