
#(C) 2018 by FIZ Karlsruhe - Leibniz Institute for Information Infrastructure.  All rights reserved.
data_65177-ICSD
_database_code_ICSD 65177
_audit_creation_date 1989-12-04
_chemical_name_systematic 'Tetralithium germanate'
_chemical_formula_structural 'Li4 Ge O4'
_chemical_formula_sum 'Ge1 Li4 O4'
_chemical_name_structure_type Li4PbO4
_exptl_crystal_density_diffrn 3.16
_publ_section_title

;
Ein neues Oxogermanat: Li8 Ge O6 = Li8 O2 (Ge O4) (Mit einer Bemerkung ueber
Li8 Si O6 und Li4 Ge O4 )
;
loop_
_citation_id
_citation_journal_full
_citation_year
_citation_journal_volume
_citation_page_first
_citation_page_last
_citation_journal_id_ASTM
primary 'Zeitschrift fuer Anorganische und Allgemeine Chemie (1950) (DE)' 1987
555 118 128 ZAACAB
loop_
_publ_author_name
'Hofmann, R.'
'Hoppe, R.'
_cell_length_a 7.766(2)
_cell_length_b 7.357(3)
_cell_length_c 6.049(2)
_cell_angle_alpha 90.
_cell_angle_beta 90.
_cell_angle_gamma 90.
_cell_volume 345.61
_cell_formula_units_Z 4
_symmetry_space_group_name_H-M 'C m c m'
_symmetry_Int_Tables_number 63
_refine_ls_R_factor_all 0.019
loop_
_symmetry_equiv_pos_site_id
_symmetry_equiv_pos_as_xyz
1 '-x, y, -z+1/2'
2 '-x, -y, z+1/2'
3 '-x, y, z'
4 '-x, -y, -z'
5 'x, -y, z+1/2'
6 'x, y, -z+1/2'
7 'x, -y, -z'
8 'x, y, z'
9 '-x+1/2, y+1/2, -z+1/2'
10 '-x+1/2, -y+1/2, z+1/2'
11 '-x+1/2, y+1/2, z'
12 '-x+1/2, -y+1/2, -z'
13 'x+1/2, -y+1/2, z+1/2'
14 'x+1/2, y+1/2, -z+1/2'
15 'x+1/2, -y+1/2, -z'
16 'x+1/2, y+1/2, z'
loop_
_atom_type_symbol
_atom_type_oxidation_number
Ge4+ 4
Li1+ 1
O2- -2
loop_
_atom_site_label
_atom_site_type_symbol
_atom_site_symmetry_multiplicity
_atom_site_Wyckoff_symbol
_atom_site_fract_x
_atom_site_fract_y
_atom_site_fract_z
_atom_site_B_iso_or_equiv
_atom_site_occupancy
_atom_site_attached_hydrogens
Ge1 Ge4+ 4 c 0 0.3390(1) 0.25 . 1. 0
Li1 Li1+ 8 e 0.1614(6) 0 0 . 1. 0
Li2 Li1+ 8 g 0.3520(6) 0.2272(7) 0.25 . 1. 0
O1 O2- 8 f 0 0.2035(2) 0.0086(3) . 1. 0
O2 O2- 8 g 0.1933(2) 0.4619(2) 0.25 . 1. 0
loop_
_atom_site_aniso_label
_atom_site_aniso_type_symbol
_atom_site_aniso_U_11
_atom_site_aniso_U_22
_atom_site_aniso_U_33
_atom_site_aniso_U_12
_atom_site_aniso_U_13
_atom_site_aniso_U_23
Ge1 Ge4+ 0.0045(2) 0.0049(2) 0.0024(2) 0 0 0
Li1 Li1+ 0.012(2) 0.011(2) 0.008(2) 0 0 0.001(2)
Li2 Li1+ 0.012(2) 0.012(2) 0.012(2) -.001(2) 0 0
O1 O2- 0.0094(8) 0.0073(8) 0.0045(7) 0 0 -.0019(5)
O2 O2- 0.0065(7) 0.0094(8) 0.0055(7) -.0021(6) 0 0
#End of TTdata_65177-ICSD