
#(C) 2019 by FIZ Karlsruhe - Leibniz Institute for Information Infrastructure.  All rights reserved.
data_65247-ICSD
_database_code_ICSD 65247
_audit_creation_date 1989-12-04
_audit_update_record 2012-08-01
_chemical_name_systematic 'Hexasodium octaberyllium oxide'
_chemical_formula_structural 'Na6 Be8 O11'
_chemical_formula_sum 'Be8 Na6 O11'
_exptl_crystal_density_diffrn 2.41
_publ_section_title 'Neue Beryllate der Alkalimetalle: Na6 Be8 O11'
loop_
_citation_id
_citation_journal_full
_citation_year
_citation_journal_volume
_citation_page_first
_citation_page_last
_citation_journal_id_ASTM
primary 'Zeitschrift fuer Anorganische und Allgemeine Chemie (1950) (DE)' 1988
564 61 71 ZAACAB
loop_
_publ_author_name
'Hoppe, R.'
'Schuldt, D.'
_cell_length_a 5.321(1)
_cell_length_b 6.424(2)
_cell_length_c 8.391(2)
_cell_angle_alpha 101.7
_cell_angle_beta 96.4
_cell_angle_gamma 105.8
_cell_volume 265.99
_cell_formula_units_Z 1
_symmetry_space_group_name_H-M 'P -1'
_symmetry_Int_Tables_number 2
_refine_ls_R_factor_all 0.079
loop_
_symmetry_equiv_pos_site_id
_symmetry_equiv_pos_as_xyz
1 '-x, -y, -z'
2 'x, y, z'
loop_
_atom_type_symbol
_atom_type_oxidation_number
Na1+ 1
Be2+ 2
O2- -2
loop_
_atom_site_label
_atom_site_type_symbol
_atom_site_symmetry_multiplicity
_atom_site_Wyckoff_symbol
_atom_site_fract_x
_atom_site_fract_y
_atom_site_fract_z
_atom_site_B_iso_or_equiv
_atom_site_occupancy
_atom_site_attached_hydrogens
Na1 Na1+ 2 i 0.0336(2) 0.2532(2) 0.5685(2) . 1. 0
Na2 Na1+ 2 i 0.2253(2) 0.3895(2) 0.9985(1) . 1. 0
Na3 Na1+ 2 i 0.1906(3) 0.7600(2) 0.7924(2) . 1. 0
Be1 Be2+ 2 i 0.5522(7) 0.5678(6) 0.6376(4) . 1. 0
Be2 Be2+ 2 i 0.5282(7) 0.2537(6) 0.7459(5) . 1. 0
Be3 Be2+ 2 i 0.4806(7) 0.1397(6) 0.4493(4) . 1. 0
Be4 Be2+ 2 i 0.8241(8) 0.0218(6) 0.8523(4) . 1. 0
O1 O2- 2 i 0.3279(4) 0.6019(3) 0.4827(2) . 1. 0
O2 O2- 2 i 0.4253(4) 0.4610(3) 0.7758(2) . 1. 0
O3 O2- 2 i 0.3611(4) 0.0416(3) 0.6047(2) . 1. 0
O4 O2- 2 i 0.2732(4) 0.1691(3) 0.3068(2) . 1. 0
O5 O2- 1 a 0 0 0 . 1. 0
O6 O2- 2 i 0.7653(5) 0.2435(4) 0.8634(3) . 1. 0
loop_
_atom_site_aniso_label
_atom_site_aniso_type_symbol
_atom_site_aniso_U_11
_atom_site_aniso_U_22
_atom_site_aniso_U_33
_atom_site_aniso_U_12
_atom_site_aniso_U_13
_atom_site_aniso_U_23
Na1 Na1+ 0.0146(6) 0.0196(7) 0.0298(7) 0.0062(5) -.0033(5) 0.0012(5)
Na2 Na1+ 0.0171(6) 0.0173(6) 0.0142(6) -.0008(5) -.0009(4) 0.0030(5)
Na3 Na1+ 0.0283(7) 0.0203(7) 0.0211(6) 0.0218(5) 0.0164(5) 0.0108(5)
Be1 Be2+ 0.0099(16) 0.0148(17) 0.0112(15) 0.0018(18) 0.0001(12) 0.0044(13)
Be2 Be2+ 0.0124(17) 0.0158(18) 0.0145(17) 0.0058(14) -.0018(13) -.0030(14)
Be3 Be2+ 0.0123(16) 0.0116(66) 0.0104(15) 0.0018(13) -.0004(12) 0.0038(12)
Be4 Be2+ 0.0178(18) 0.0165(18) 0.0100(13) 0.0013(14) -.0049(13) -.0005(13)
O1 O2- 0.0109(9) 0.0129(9) 0.0113(9) 0.0022(5) -.0011(7) 0.0039(7)
O2 O2- 0.016(1) 0.0019(10) 0.0099(9) 0.0024(8) 0.0016(7) 0.0041(7)
O3 O2- 0.0103(9) 0.0119(9) 0.0100(9) 0.0021(7) 0.0001(7) 0.0019(7)
O4 O2- 0.0146(10) 0.0147(10) 0.0125(9) 0.0011(8) -.0043(7) 0.0033(7)
O5 O2- 0.0491(24) 0.0196(24) 0.0222(17) -.0069(16) -.0223(17) 0.0111(14)
O6 O2- 0.0312(14) 0.0278(13) 0.0232(12) 0.0176(11) -.0173(10) -.0111(10)
#End of TTdata_65247-ICSD