
#(C) 2019 by FIZ Karlsruhe - Leibniz Institute for Information Infrastructure.  All rights reserved.
data_65336-ICSD
_database_code_ICSD 65336
_audit_creation_date 1989-12-04
_audit_update_record 2012-08-01
_chemical_name_systematic
'Calcium sodium tantalum niobium oxide (0.94/0.06/3.86/0.13/10.97)'
_chemical_formula_structural '(Ca0.94 Na0.06) ((Ta3.86 Nb0.13) O10.97)'
_chemical_formula_sum 'Ca0.94 Na0.06 Nb0.13 O10.97 Ta3.86'
_chemical_name_structure_type CaTa4O11
_chemical_name_mineral Ungursaite
_exptl_crystal_density_diffrn 7.38
_publ_section_title
'Identity of ungursaite with calciotantite and synthetic Ca Ta4 O11'
loop_
_citation_id
_citation_journal_full
_citation_year
_citation_journal_volume
_citation_page_first
_citation_page_last
_citation_journal_id_ASTM
primary Kristallografiya 1988 33 845 847 KRISAJ
loop_
_publ_author_name
'Yamnova, N.A.'
'Pushcharovskii, D.Yu.'
'Voloshin, A.V.'
_cell_length_a 6.245(3)
_cell_length_b 6.245(3)
_cell_length_c 12.323(4)
_cell_angle_alpha 90.
_cell_angle_beta 90.
_cell_angle_gamma 120.
_cell_volume 416.21
_cell_formula_units_Z 2
_symmetry_space_group_name_H-M 'P 63 2 2'
_symmetry_Int_Tables_number 182
_refine_ls_R_factor_all 0.032
loop_
_symmetry_equiv_pos_site_id
_symmetry_equiv_pos_as_xyz
1 'x, x-y, -z+1/2'
2 '-x+y, y, -z+1/2'
3 '-y, -x, -z+1/2'
4 'x-y, x, z+1/2'
5 'y, -x+y, z+1/2'
6 '-x, -y, z+1/2'
7 '-x, -x+y, -z'
8 'x-y, -y, -z'
9 'y, x, -z'
10 '-x+y, -x, z'
11 '-y, x-y, z'
12 'x, y, z'
loop_
_atom_type_symbol
_atom_type_oxidation_number
Ta5+ 5
Nb5+ 5
Ca2+ 2
Na1+ 1
O2- -2
loop_
_atom_site_label
_atom_site_type_symbol
_atom_site_symmetry_multiplicity
_atom_site_Wyckoff_symbol
_atom_site_fract_x
_atom_site_fract_y
_atom_site_fract_z
_atom_site_B_iso_or_equiv
_atom_site_occupancy
_atom_site_attached_hydrogens
Ta1 Ta5+ 6 g 0.35897(8) 0 0 . 1. 0
Ta2 Ta5+ 2 c 0.3333 0.6667 0.25 . 0.86 0
Nb1 Nb5+ 2 c 0.3333 0.6667 0.25 . 0.13 0
Ca1 Ca2+ 2 d 0.3333 0.6667 0.75 . 0.94 0
Na1 Na1+ 2 d 0.3333 0.6667 0.75 . 0.06 0
O1 O2- 12 i 0.375(2) 0.943(2) 0.1554(6) . 0.995 0
O2 O2- 6 g 0.757(1) 0 0 . 1. 0
O3 O2- 4 f 0.3333 0.6667 0.9663(9) . 1. 0
loop_
_atom_site_aniso_label
_atom_site_aniso_type_symbol
_atom_site_aniso_B_11
_atom_site_aniso_B_22
_atom_site_aniso_B_33
_atom_site_aniso_B_12
_atom_site_aniso_B_13
_atom_site_aniso_B_23
Ta1 Ta5+ 0.26(1) 0.10(1) 0.19(1) 0.035 -.05(4) -.02
Ta2 Ta5+ 0.22(2) 0.22(2) 0.22(2) 0.11(1) 0 0
Nb1 Nb5+ 0.22(2) 0.22(2) 0.22(2) 0.11(1) 0 0
Ca1 Ca2+ 0.32(9) 0.32(9) 0.4(1) 0.16(5) 0 0
Na1 Na1+ 0.32(9) 0.32(9) 0.4(1) 0.16(5) 0 0
O1 O2- 0.6(3) 0.5(2) 0.2(2) 0.4(2) 0.2(2) 0.3(2)
O2 O2- 0.2(2) 0.1(2) 0.2(2) 0.0(1) 0.09(9) 0.1(2)
O3 O2- 0.1(2) 0.1(2) 0.1(3) 0.06(9) 0 0
#End of TTdata_65336-ICSD