
#(C) 2017 by FIZ Karlsruhe - Leibniz Institute for Information Infrastructure.  All rights reserved.
data_65346-ICSD
_database_code_ICSD 65346
_audit_creation_date 1989-12-04
_chemical_name_systematic 'Lithium iron chloride molybdate'
_chemical_formula_structural 'Li Fe Cl (Mo O4)'
_chemical_formula_sum 'Cl1 Fe1 Li1 Mo1 O4'
_exptl_crystal_density_diffrn 3.56
_publ_section_title

;
Synthesis, structure and low temperature magnetism of the new lithium and
sodium insertion compounds: Li Fe(II) Cl Mo O4 and Na Fe(II) Cl Mo O4
;
loop_
_citation_id
_citation_journal_full
_citation_year
_citation_journal_volume
_citation_page_first
_citation_page_last
_citation_journal_id_ASTM
primary 'Journal of Physics and Chemistry of Solids' 1986 47 741 750 JPCSAW
loop_
_publ_author_name
'Torardi, C.C.'
'Reiff, W.M.'
'Lazar, K.'
'Prince, E.'
_cell_length_a 6.9944(6)
_cell_length_b 6.8712(6)
_cell_length_c 5.0146(5)
_cell_angle_alpha 90.
_cell_angle_beta 92.270(5)
_cell_angle_gamma 90.
_cell_volume 240.81
_cell_formula_units_Z 2
_symmetry_space_group_name_H-M 'P 1 21/m 1'
_symmetry_Int_Tables_number 11
_refine_ls_R_factor_all 0.086
loop_
_symmetry_equiv_pos_site_id
_symmetry_equiv_pos_as_xyz
1 'x, -y+1/2, z'
2 '-x, -y, -z'
3 '-x, y+1/2, -z'
4 'x, y, z'
loop_
_atom_type_symbol
_atom_type_oxidation_number
Mo6+ 6
Fe2+ 2
Cl1- -1
O2- -2
Li1+ 1
loop_
_atom_site_label
_atom_site_type_symbol
_atom_site_symmetry_multiplicity
_atom_site_Wyckoff_symbol
_atom_site_fract_x
_atom_site_fract_y
_atom_site_fract_z
_atom_site_B_iso_or_equiv
_atom_site_occupancy
_atom_site_attached_hydrogens
Mo1 Mo6+ 2 e 0.7387(12) 0.25 0.9995(17) 1.1(2) 1. 0
Fe1 Fe2+ 2 e 0.2506(9) 0.25 0.1852(10) 0.9(1) 1. 0
Cl1 Cl1- 2 e 0.2679(9) 0.25 0.6893(10) 1.6(1) 1. 0
O1 O2- 2 e 0.5627(13) 0.25 0.2442(20) 1.2(2) 1. 0
O2 O2- 2 e 0.9615(13) 0.25 0.1588(18) 1.4(2) 1. 0
O3 O2- 4 f 0.2900(8) 0.9581(7) 0.2048(13) 0.8(1) 1. 0
Li1 Li1+ 2 d 0.5 0 0.5 1.4(9) 1. 0
#End of TTdata_65346-ICSD