
#(C) 2019 by FIZ Karlsruhe - Leibniz Institute for Information Infrastructure.  All rights reserved.
data_65408-ICSD
_database_code_ICSD 65408
_audit_creation_date 1989-12-04
_audit_update_record 2006-04-01
_chemical_name_systematic 'Trisodium discandium tris(phosphate(V)) - gamma, HT'
_chemical_formula_structural 'Na3 Sc2 (P O4)3'
_chemical_formula_sum 'Na3 O12 P3 Sc2'
_chemical_name_structure_type 'Nasicon high'
_chemical_name_mineral 'Nasicon, scandian'
_exptl_crystal_density_diffrn 2.87
_publ_section_title

;
Disorder of tetrahedra in Nasicon-type structure - part I. Na3 Sc2 (P O4)3:
structures and ion-ion correlations
;
loop_
_citation_id
_citation_journal_full
_citation_year
_citation_journal_volume
_citation_page_first
_citation_page_last
_citation_journal_id_ASTM
primary 'Journal of Physics and Chemistry of Solids' 1986 47 843 854 JPCSAW
loop_
_publ_author_name
'Collin, G.'
'Comes, R.'
'Boilot, J.P.'
'Colomban, P.'
_cell_length_a 8.950(2)
_cell_length_b 8.950(2)
_cell_length_c 22.230(4)
_cell_angle_alpha 90.
_cell_angle_beta 90.
_cell_angle_gamma 120.
_cell_volume 1542.11
_cell_formula_units_Z 6
_symmetry_space_group_name_H-M 'R -3 c H'
_symmetry_Int_Tables_number 167
_refine_ls_R_factor_all 0.0293
loop_
_symmetry_equiv_pos_site_id
_symmetry_equiv_pos_as_xyz
1 'x-y, -y, -z+1/2'
2 '-x, -x+y, -z+1/2'
3 'y, x, -z+1/2'
4 'x-y, x, -z'
5 'y, -x+y, -z'
6 '-x, -y, -z'
7 '-x+y, y, z+1/2'
8 'x, x-y, z+1/2'
9 '-y, -x, z+1/2'
10 '-x+y, -x, z'
11 '-y, x-y, z'
12 'x, y, z'
13 'x-y+2/3, -y+1/3, -z+5/6'
14 '-x+2/3, -x+y+1/3, -z+5/6'
15 'y+2/3, x+1/3, -z+5/6'
16 'x-y+2/3, x+1/3, -z+1/3'
17 'y+2/3, -x+y+1/3, -z+1/3'
18 '-x+2/3, -y+1/3, -z+1/3'
19 '-x+y+2/3, y+1/3, z+5/6'
20 'x+2/3, x-y+1/3, z+5/6'
21 '-y+2/3, -x+1/3, z+5/6'
22 '-x+y+2/3, -x+1/3, z+1/3'
23 '-y+2/3, x-y+1/3, z+1/3'
24 'x+2/3, y+1/3, z+1/3'
25 'x-y+1/3, -y+2/3, -z+1/6'
26 '-x+1/3, -x+y+2/3, -z+1/6'
27 'y+1/3, x+2/3, -z+1/6'
28 'x-y+1/3, x+2/3, -z+2/3'
29 'y+1/3, -x+y+2/3, -z+2/3'
30 '-x+1/3, -y+2/3, -z+2/3'
31 '-x+y+1/3, y+2/3, z+1/6'
32 'x+1/3, x-y+2/3, z+1/6'
33 '-y+1/3, -x+2/3, z+1/6'
34 '-x+y+1/3, -x+2/3, z+2/3'
35 '-y+1/3, x-y+2/3, z+2/3'
36 'x+1/3, y+2/3, z+2/3'
loop_
_atom_type_symbol
_atom_type_oxidation_number
Sc3+ 3
P5+ 5
O2- -2
Na1+ 1
loop_
_atom_site_label
_atom_site_type_symbol
_atom_site_symmetry_multiplicity
_atom_site_Wyckoff_symbol
_atom_site_fract_x
_atom_site_fract_y
_atom_site_fract_z
_atom_site_B_iso_or_equiv
_atom_site_occupancy
_atom_site_attached_hydrogens
Sc1 Sc3+ 12 c 0 0 0.14901(2) . 1. 0
P1 P5+ 18 e 0.29612(6) 0 0.25 . 1. 0
O1 O2- 36 f 0.18753(19) -.0219(2) 0.19442(8) . 1. 0
O2 O2- 36 f 0.19163(15) 0.17296(15) 0.08809(6) . 1. 0
Na1 Na1+ 6 b 0 0 0 . 0.79(2) 0
Na2 Na1+ 18 e 0.63778(22) 0 0.25 . 0.73 0
loop_
_atom_site_aniso_label
_atom_site_aniso_type_symbol
_atom_site_aniso_U_11
_atom_site_aniso_U_22
_atom_site_aniso_U_33
_atom_site_aniso_U_12
_atom_site_aniso_U_13
_atom_site_aniso_U_23
Sc1 Sc3+ 0.0100(2) 0.0100(2) 0.0117(2) 0.0050(1) 0 0
P1 P5+ 0.0095(2) 0.0104(2) 0.0198(2) 0.0052(1) 0.0027(1) 0.0052(2)
O1 O2- 0.0290(7) 0.0386(8) 0.0502(9) 0.0163(6) -0.0206(7) 0.0075(7)
O2 O2- 0.0131(5) 0.0145(5) 0.0280(5) 0.0009(5) 0.0054(5) 0.0054(4)
Na1 Na1+ 0.156(4) 0.156(4) 0.0227(40) 0.078(2) 0 0
Na2 Na1+ 0.0212(9) 0.0195(15) 0.0991(30) 0.0098(7) 0.0110(6) 0.0220(12)
#End of TTdata_65408-ICSD