
#(C) 2019 by FIZ Karlsruhe - Leibniz Institute for Information Infrastructure.  All rights reserved.
data_65482-ICSD
_database_code_ICSD 65482
_audit_creation_date 1989-12-04
_audit_update_record 2012-08-01
_chemical_name_systematic 'Rubidium pentasodium octaberyllium oxide'
_chemical_formula_structural 'Rb Na5 Be8 O11'
_chemical_formula_sum 'Be8 Na5 O11 Rb1'
_exptl_crystal_density_diffrn 2.73
_publ_section_title 'Zum Aufbau von Rb Na5 Be8 O11'
loop_
_citation_id
_citation_journal_full
_citation_year
_citation_journal_volume
_citation_page_first
_citation_page_last
_citation_journal_id_ASTM
primary 'Zeitschrift fuer Anorganische und Allgemeine Chemie (1950) (DE)' 1989
575 77 89 ZAACAB
loop_
_publ_author_name
'Schuldt, D.'
'Hoppe, R.'
_cell_length_a 10.634(3)
_cell_length_b 6.456(2)
_cell_length_c 9.488(3)
_cell_angle_alpha 110.2(1)
_cell_angle_beta 114.9(1)
_cell_angle_gamma 90.8(1)
_cell_volume 544.69
_cell_formula_units_Z 2
_symmetry_space_group_name_H-M 'P -1'
_symmetry_Int_Tables_number 2
_refine_ls_R_factor_all 0.051
loop_
_symmetry_equiv_pos_site_id
_symmetry_equiv_pos_as_xyz
1 '-x, -y, -z'
2 'x, y, z'
loop_
_atom_type_symbol
_atom_type_oxidation_number
Rb1+ 1
Na1+ 1
Be2+ 2
O2- -2
loop_
_atom_site_label
_atom_site_type_symbol
_atom_site_symmetry_multiplicity
_atom_site_Wyckoff_symbol
_atom_site_fract_x
_atom_site_fract_y
_atom_site_fract_z
_atom_site_B_iso_or_equiv
_atom_site_occupancy
_atom_site_attached_hydrogens
Rb1 Rb1+ 2 i 0.0615(1) 0.0129(1) 0.7656(1) . 1. 0
Na1 Na1+ 2 i 0.1421(2) 0.5454(3) 0.6371(1) . 1. 0
Na2 Na1+ 2 i 0.4601(2) 0.4775(3) 0.7394(3) . 1. 0
Na3 Na1+ 2 i 0.3724(2) 0.9883(3) 0.8612(2) . 1. 0
Na4 Na1+ 2 i 0.5166(2) 0.2002(3) 0.4472(2) . 1. 0
Na5 Na1+ 2 i 0.9767(2) 0.3058(3) 0.0543(2) . 1. 0
Be1 Be2+ 2 i 0.2699(5) 0.5986(8) 0.2140(6) . 1. 0
Be2 Be2+ 2 i 0.7007(5) 0.7521(8) 0.8428(6) . 1. 0
Be3 Be2+ 2 i 0.6462(6) 0.1096(8) 0.8899(6) . 1. 0
Be4 Be2+ 2 i 0.2394(5) 0.9458(8) 0.2823(6) . 1. 0
Be5 Be2+ 2 i 0.7868(5) 0.6977(8) 0.6562(6) . 1. 0
Be6 Be2+ 2 i 0.2741(5) 0.4617(8) 0.9117(6) . 1. 0
Be7 Be2+ 2 i 0.8532(6) 0.3403(8) 0.6141(6) . 1. 0
Be8 Be2+ 2 i 0.7500(6) 0.9043(8) 0.4076(6) . 1. 0
O1 O2- 2 i 0.2779(3) 0.2851(4) 0.7582(2) . 1. 0
O2 O2- 2 i 0.4280(3) 0.1295(4) 0.1498(3) . 1. 0
O3 O2- 2 i 0.1361(3) 0.7123(4) 0.2308(3) . 1. 0
O4 O2- 2 i 0.6249(3) 0.1703(4) 0.7338(3) . 1. 0
O5 O2- 2 i 0.7562(3) 0.6019(4) 0.9602(3) . 1. 0
O6 O2- 2 i 0.8220(3) 0.9227(4) 0.8479(3) . 1. 0
O7 O2- 2 i 0.6671(3) 0.5339(4) 0.6572(3) . 1. 0
O8 O2- 2 i 0.9161(3) 0.5790(4) 0.6457(3) . 1. 0
O9 O2- 2 i 0.2752(3) 0.1531(4) 0.4594(3) . 1. 0
O10 O2- 2 i 0.7124(3) 0.2916(4) 0.0704(3) . 1. 0
O11 O2- 2 i 0.7931(4) 0.1497(4) 0.4361(3) . 1. 0
loop_
_atom_site_aniso_label
_atom_site_aniso_type_symbol
_atom_site_aniso_U_11
_atom_site_aniso_U_22
_atom_site_aniso_U_33
_atom_site_aniso_U_12
_atom_site_aniso_U_13
_atom_site_aniso_U_23
Rb1 Rb1+ 0.0150(2) 0.0129(2) 0.0267(2) 0.0009(1) 0.0122(2) 0.0035(2)
Na1 Na1+ 0.0130(8) 0.0120(8) 0.0064(7) 0.0018(6) 0.0035(7) 0.0046(6)
Na2 Na1+ 0.0156(10) 0.0206(10) 0.0447(13) -.0034(8) 0.0127(10) 0.0146(9)
Na3 Na1+ 0.0103(8) 0.0143(8) 0.0085(7) 0.0038(6) 0.0050(7) 0.0072(6)
Na4 Na1+ 0.0176(9) 0.0122(8) 0.0071(8) -.0070(7) -.0010(7) 0.0008(7)
Na5 Na1+ 0.0231(10) 0.0213(9) 0.0065(8) -.0003(8) 0.0005(7) 0.0041(7)
Be1 Be2+ 0.0057(22) 0.0034(20) 0.0051(21) 0.0007(16) 0.0027(18) 0.0025(17)
Be2 Be2+ 0.0070(22) 0.0051(20) 0.0055(21) 0.0022(17) 0.0040(18) 0.0020(17)
Be3 Be2+ 0.0077(23) 0.0061(21) 0.0055(22) -.0016(17) 0.0019(19) 0.0018(18)
Be4 Be2+ 0.0051(21) 0.0031(20) 0.0039(20) 0.0010(16) 0.0014(18) 0.0010(17)
Be5 Be2+ 0.0092(32) 0.0028(20) 0.004(2) 0.0012(17) 0.0033(18) 0.0013(17)
Be6 Be2+ 0.0104(23) 0.0038(20) 0.0012(20) 0.0003(17) 0.0020(18) -.0001(16)
Be7 Be2+ 0.0123(24) 0.0058(21) 0.0031(20) 0.0009(18) 0.0046(19) 0.0015(17)
Be8 Be2+ 0.0134(25) 0.0057(21) 0.0028(21) 0.0014(18) 0.0034(19) 0.0019(17)
O1 O2- 0.0170(15) 0.0065(13) 0.0058(12) 0.0023(11) 0.0082(11) 0.0001(10)
O2 O2- 0.0066(12) 0.0024(11) 0.0073(12) 0.0004(9) 0.0056(10) 0.0007(9)
O3 O2- 0.0043(12) 0.0024(11) 0.0038(11) 0.0006(9) 0.0019(10) 0.0017(9)
O4 O2- 0.0036(12) 0.0025(11) 0.0030(11) 0.0004(9) 0.0013(10) 0.0001(9)
O5 O2- 0.0169(14) 0.0023(11) 0.0050(12) 0.0025(10) 0.0063(11) 0.0013(10)
O6 O2- 0.0077(13) 0.0019(11) 0.0030(12) -.0008(9) 0.0015(10) 0.0017(9)
O7 O2- 0.0062(12) 0.0010(11) 0.0020(11) -.0008(9) 0.001(1) 0.0000(9)
O8 O2- 0.0073(12) 0.0027(11) 0.0069(12) 0.0022(9) 0.0053(10) 0.0019(10)
O9 O2- 0.0118(13) 0.0025(11) 0.0032(11) 0.0027(10) 0.0038(10) 0.0020(9)
O10 O2- 0.0279(17) 0.0031(12) 0.0043(12) -.0031(11) 0.0056(12) 0.0011(10)
O11 O2- 0.0377(20) 0.0042(13) 0.0057(13) -.0030(12) 0.0107(13) 0.0012(11)
#End of TTdata_65482-ICSD