
#(C) 2019 by FIZ Karlsruhe - Leibniz Institute for Information Infrastructure.  All rights reserved.
data_65484-ICSD
_database_code_ICSD 65484
_audit_creation_date 1989-12-04
_audit_update_record 1999-11-30
_chemical_name_systematic 'Tetrabarium disodium undecaoxoditungstate'
_chemical_formula_structural 'Ba4 (Na2 W2 O11)'
_chemical_formula_sum 'Ba4 Na2 O11 W2'
_chemical_name_mineral Perovskite-(Ba,Na,W)
_exptl_crystal_density_diffrn 6.54
_publ_section_title
'Ein neuer Perowskit mit Luecken im Anionenteil: Ba4 (Na2 W2 O11)'
loop_
_citation_id
_citation_journal_full
_citation_year
_citation_journal_volume
_citation_page_first
_citation_page_last
_citation_journal_id_ASTM
primary 'Zeitschrift fuer Anorganische und Allgemeine Chemie (1950) (DE)' 1989
575 154 164 ZAACAB
loop_
_publ_author_name
'Hoffmann, R.'
'Hoppe, R.'
_cell_length_a 5.7916(8)
_cell_length_b 5.8085(8)
_cell_length_c 8.594(1)
_cell_angle_alpha 90.
_cell_angle_beta 90.
_cell_angle_gamma 90.
_cell_volume 289.11
_cell_formula_units_Z 1
_symmetry_space_group_name_H-M 'P m m m'
_symmetry_Int_Tables_number 47
_refine_ls_R_factor_all 0.061
loop_
_symmetry_equiv_pos_site_id
_symmetry_equiv_pos_as_xyz
1 'x, -y, z'
2 '-x, y, z'
3 'x, y, -z'
4 '-x, -y, -z'
5 '-x, y, -z'
6 'x, -y, -z'
7 '-x, -y, z'
8 'x, y, z'
loop_
_atom_type_symbol
_atom_type_oxidation_number
W6+ 6
Ba2+ 2
Na1+ 1
O2- -2
loop_
_atom_site_label
_atom_site_type_symbol
_atom_site_symmetry_multiplicity
_atom_site_Wyckoff_symbol
_atom_site_fract_x
_atom_site_fract_y
_atom_site_fract_z
_atom_site_B_iso_or_equiv
_atom_site_occupancy
_atom_site_attached_hydrogens
W1 W6+ 1 f 0.5 0.5 0 . 1. 0
W2 W6+ 1 c 0 0 0.5 . 1. 0
Ba1 Ba2+ 2 s 0.5 0 0.7278(2) . 1. 0
Ba2 Ba2+ 2 r 0 0.5 0.7203(3) . 1. 0
Na1 Na1+ 1 a 0 0 0 . 1. 0
Na2 Na1+ 1 h 0.5 0.5 0.5 . 1. 0
O1 O2- 4 z 0.7690(28) 0.7648(30) 0.5 0.0148(27) 1. 0
O2 O2- 2 t 0.5 0.5 0.2210(27) 0.0105(35) 1. 0
O3 O2- 2 q 0 0 0.7235(29) 0.0154(40) 1. 0
O4 O2- 4 y 0.7289(42) 0.7196(43) 0 0.0324(45) 0.75 0
loop_
_atom_site_aniso_label
_atom_site_aniso_type_symbol
_atom_site_aniso_U_11
_atom_site_aniso_U_22
_atom_site_aniso_U_33
_atom_site_aniso_U_12
_atom_site_aniso_U_13
_atom_site_aniso_U_23
W1 W6+ 0.0123(8) 0.0080(8) 0.0056(7) 0 0 0
W2 W6+ 0.0082(7) 0.0051(7) 0.0066(7) 0 0 0
Ba1 Ba2+ 0.0032(8) 0.0015(8) 0.0113(7) 0 0 0
Ba2 Ba2+ 0.0209(10) 0.0163(10) 0.0088(7) 0 0 0
Na1 Na1+ 0.0386(62) 0.0382(62) 0.0077(53) 0 0 0
Na2 Na1+ 0.0342(62) 0.0502(64) 0.0228(59) 0 0 0
#End of TTdata_65484-ICSD