
#(C) 2019 by FIZ Karlsruhe - Leibniz Institute for Information Infrastructure.  All rights reserved.
data_65519-ICSD
_database_code_ICSD 65519
_audit_creation_date 1990-06-08
_chemical_name_systematic 'Sodium zinc scandium tris(molybdate) (.6/.6/1.4/1)'
_chemical_formula_structural 'Na.625 Zn.625 Sc1.375 (Mo O4)3'
_chemical_formula_sum 'Mo3 Na0.625 O12 Sc1.375 Zn0.625'
_chemical_name_structure_type Na.5Nb2(PO4)3
_exptl_crystal_density_diffrn 3.23
_publ_section_title

;
Phases with variable composition Na2x M(II)2x Sc2(1-x) (Mo O4)3 (M= Zn, Cd,
Mg)
;
loop_
_citation_id
_citation_journal_full
_citation_year
_citation_journal_volume
_citation_page_first
_citation_page_last
_citation_journal_id_ASTM
primary 'Zhurnal Neorganicheskoi Khimii' 1987 32 652 656 ZNOKAQ
loop_
_publ_author_name
'Lazoryak, B.I.'
'Efremov, V.A.'
_cell_length_a 9.526(2)
_cell_length_b 9.526(2)
_cell_length_c 23.392(3)
_cell_angle_alpha 90.
_cell_angle_beta 90.
_cell_angle_gamma 120.
_cell_volume 1838.31
_cell_formula_units_Z 6
_symmetry_space_group_name_H-M 'R -3 c H'
_symmetry_Int_Tables_number 167
_refine_ls_R_factor_all 0.036
loop_
_symmetry_equiv_pos_site_id
_symmetry_equiv_pos_as_xyz
1 'x-y, -y, -z+1/2'
2 '-x, -x+y, -z+1/2'
3 'y, x, -z+1/2'
4 'x-y, x, -z'
5 'y, -x+y, -z'
6 '-x, -y, -z'
7 '-x+y, y, z+1/2'
8 'x, x-y, z+1/2'
9 '-y, -x, z+1/2'
10 '-x+y, -x, z'
11 '-y, x-y, z'
12 'x, y, z'
13 'x-y+2/3, -y+1/3, -z+5/6'
14 '-x+2/3, -x+y+1/3, -z+5/6'
15 'y+2/3, x+1/3, -z+5/6'
16 'x-y+2/3, x+1/3, -z+1/3'
17 'y+2/3, -x+y+1/3, -z+1/3'
18 '-x+2/3, -y+1/3, -z+1/3'
19 '-x+y+2/3, y+1/3, z+5/6'
20 'x+2/3, x-y+1/3, z+5/6'
21 '-y+2/3, -x+1/3, z+5/6'
22 '-x+y+2/3, -x+1/3, z+1/3'
23 '-y+2/3, x-y+1/3, z+1/3'
24 'x+2/3, y+1/3, z+1/3'
25 'x-y+1/3, -y+2/3, -z+1/6'
26 '-x+1/3, -x+y+2/3, -z+1/6'
27 'y+1/3, x+2/3, -z+1/6'
28 'x-y+1/3, x+2/3, -z+2/3'
29 'y+1/3, -x+y+2/3, -z+2/3'
30 '-x+1/3, -y+2/3, -z+2/3'
31 '-x+y+1/3, y+2/3, z+1/6'
32 'x+1/3, x-y+2/3, z+1/6'
33 '-y+1/3, -x+2/3, z+1/6'
34 '-x+y+1/3, -x+2/3, z+2/3'
35 '-y+1/3, x-y+2/3, z+2/3'
36 'x+1/3, y+2/3, z+2/3'
loop_
_atom_type_symbol
_atom_type_oxidation_number
Mo6+ 6
Zn2+ 2
Sc3+ 3
Na1+ 1
O2- -2
loop_
_atom_site_label
_atom_site_type_symbol
_atom_site_symmetry_multiplicity
_atom_site_Wyckoff_symbol
_atom_site_fract_x
_atom_site_fract_y
_atom_site_fract_z
_atom_site_B_iso_or_equiv
_atom_site_occupancy
_atom_site_attached_hydrogens
Mo1 Mo6+ 18 e 0 0.2852(6) 0.25 0.72(2) 1. 0
Zn1 Zn2+ 12 c 0 0 0.1384(4) 0.97(4) 0.3125 0
Sc1 Sc3+ 12 c 0 0 0.1384(4) 0.97(4) 0.6875 0
Na1 Na1+ 6 b 0 0 0 2.43(3) 0.625 0
O1 O2- 36 f 0.1876(7) 0.1594(5) 0.0835(2) 1.9(2) 1. 0
O2 O2- 36 f 0.0090(5) 0.1846(4) 0.1885(3) 1.7(3) 1. 0
#End of TTdata_65519-ICSD