
#(C) 2019 by FIZ Karlsruhe - Leibniz Institute for Information Infrastructure.  All rights reserved.
data_65697-ICSD
_database_code_ICSD 65697
_audit_creation_date 1990-06-08
_chemical_name_systematic 'Sodium dicyanoargentate'
_chemical_formula_structural 'Na (Ag (C N)2)'
_chemical_formula_sum 'C2 Ag1 N2 Na1'
_exptl_crystal_density_diffrn 2.87
_publ_section_title 'Sodium dicyanoargentate(I)'
loop_
_citation_id
_citation_journal_full
_citation_year
_citation_journal_volume
_citation_page_first
_citation_page_last
_citation_journal_id_ASTM
primary 'Acta Crystallographica, Section C: Crystal Structure Communications'
1989 45 1419 1420 ACSCEE
loop_
_publ_author_name
'Range, K.J.'
'Kuehnel, S.'
'Zabel, M.'
_cell_length_a 6.572(1)
_cell_length_b 3.710(1)
_cell_length_c 17.346(2)
_cell_angle_alpha 90.
_cell_angle_beta 92.05(1)
_cell_angle_gamma 90.
_cell_volume 422.66
_cell_formula_units_Z 4
_symmetry_space_group_name_H-M 'C 1 2/c 1'
_symmetry_Int_Tables_number 15
_refine_ls_R_factor_all 0.072
loop_
_symmetry_equiv_pos_site_id
_symmetry_equiv_pos_as_xyz
1 'x, -y, z+1/2'
2 '-x, -y, -z'
3 '-x, y, -z+1/2'
4 'x, y, z'
5 'x+1/2, -y+1/2, z+1/2'
6 '-x+1/2, -y+1/2, -z'
7 '-x+1/2, y+1/2, -z+1/2'
8 'x+1/2, y+1/2, z'
loop_
_atom_type_symbol
_atom_type_oxidation_number
Ag1+ 1
Na1+ 1
C2+ 2
N3- -3
loop_
_atom_site_label
_atom_site_type_symbol
_atom_site_symmetry_multiplicity
_atom_site_Wyckoff_symbol
_atom_site_fract_x
_atom_site_fract_y
_atom_site_fract_z
_atom_site_B_iso_or_equiv
_atom_site_occupancy
_atom_site_attached_hydrogens
Ag1 Ag1+ 4 d 0.25 0.25 0.5 . 1. 0
Na1 Na1+ 4 e 0 -.0389 -.25 . 1. 0
C1 C2+ 8 f -.3069(27) 0.1077(41) -.8911(9) 0.0242(48) 1. 0
N1 N3- 8 f -.3392(22) 0.0322(37) -.8282(7) 0.0288(39) 1. 0
loop_
_atom_site_aniso_label
_atom_site_aniso_type_symbol
_atom_site_aniso_U_11
_atom_site_aniso_U_22
_atom_site_aniso_U_33
_atom_site_aniso_U_12
_atom_site_aniso_U_13
_atom_site_aniso_U_23
Ag1 Ag1+ 0.0499(16) 0.0557(15) 0.0434(13) 0.0007(23) 0.0027(10) -.0081(21)
Na1 Na1+ 0.0187(65) 0.0217(60) 0.0535(68) 0 -.0045(54) 0
#End of TTdata_65697-ICSD