
#(C) 2019 by FIZ Karlsruhe - Leibniz Institute for Information Infrastructure.  All rights reserved.
data_65821-ICSD
_database_code_ICSD 65821
_audit_creation_date 1990-12-27
_audit_update_record 1999-11-30
_chemical_name_systematic

;
Disodium diindium phyllo-mue3-oxo-tri-mue-oxooctaoxotrio-molybdate(IV)
bis-molybdate
;
_chemical_formula_structural 'Na2 In2 (Mo3 O8) (Mo O4)2'
_chemical_formula_sum 'In2 Mo5 Na2 O16'
_exptl_crystal_density_diffrn 5.14
_cell_measurement_temperature 296.
_publ_section_title

;
Crystallographic and magnetic studies of an unusual Mo3 O13 cluster compound,
Na2 In2 Mo5 O16
;
loop_
_citation_id
_citation_journal_full
_citation_year
_citation_journal_volume
_citation_page_first
_citation_page_last
_citation_journal_id_ASTM
primary 'Inorganic Chemistry' 1989 28 2444 2447 INOCAJ
loop_
_publ_author_name
'Collins, B.T.'
'Fine, S.M.'
'Potenza, J.A.'
'Tsai, P.-P.'
'Greenblatt, M.'
_cell_length_a 5.7856(8)
_cell_length_b 5.7856(8)
_cell_length_c 11.266(1)
_cell_angle_alpha 90.
_cell_angle_beta 90.
_cell_angle_gamma 120.
_cell_volume 326.59
_cell_formula_units_Z 1
_symmetry_space_group_name_H-M 'P 3 m 1'
_symmetry_Int_Tables_number 156
_refine_ls_R_factor_all 0.035
loop_
_symmetry_equiv_pos_site_id
_symmetry_equiv_pos_as_xyz
1 '-x+y, y, z'
2 'x, x-y, z'
3 '-y, -x, z'
4 '-x+y, -x, z'
5 '-y, x-y, z'
6 'x, y, z'
loop_
_atom_type_symbol
_atom_type_oxidation_number
In3+ 3
Mo6+ 6
Mo4+ 4
Na1+ 1
O2- -2
loop_
_atom_site_label
_atom_site_type_symbol
_atom_site_symmetry_multiplicity
_atom_site_Wyckoff_symbol
_atom_site_fract_x
_atom_site_fract_y
_atom_site_fract_z
_atom_site_B_iso_or_equiv
_atom_site_occupancy
_atom_site_attached_hydrogens
In1 In3+ 1 a 0 0 0.292 . 1. 0
In2 In3+ 1 a 0 0 -.29369(9) . 1. 0
Mo1 Mo6+ 1 c 0.6667 0.3333 0.1257(1) . 1. 0
Mo2 Mo6+ 1 b 0.3333 0.6667 -.1274(1) . 1. 0
Mo3 Mo4+ 3 d 0.51592(7) -.51592(7) -.50791(8) . 1. 0
Na1 Na1+ 1 a 0 0 -.001(1) 1.8(1) 1. 0
Na2 Na1+ 1 b 0.3333 0.6667 0.227(1) 1.5(2) 0.62(2) 0
Na3 Na1+ 1 c 0.6667 0.3333 0.771(2) 1.8(3) 0.42(2) 0
O1 O2- 3 d 0.342(1) 0.171(1) 0.5988(5) 0.45(7) 1. 0
O2 O2- 3 d 0.1619(8) 0.3238(8) 0.8289(6) 1.3(1) 1. 0
O3 O2- 1 c 0.6667 0.3333 0.972(1) 1.1(2) 1. 0
O4 O2- 1 b 0.3333 0.6667 0.5789(9) 0.3(1) 1. 0
O5 O2- 3 d 0.1753(7) 0.3506(8) 0.3967(5) 0.61(8) 1. 0
O6 O2- 3 d 0.324(2) 0.162(2) 0.1660(6) 1.2(1) 1. 0
O7 O2- 1 b 0.3333 0.6667 0.022(1) 1.4(2) 1. 0
O8 O2- 1 c 0.6667 0.3333 0.365(1) 0.6(1) 1. 0
loop_
_atom_site_aniso_label
_atom_site_aniso_type_symbol
_atom_site_aniso_U_11
_atom_site_aniso_U_22
_atom_site_aniso_U_33
_atom_site_aniso_U_12
_atom_site_aniso_U_13
_atom_site_aniso_U_23
In1 In3+ 0.0061(1) 0.0061(2) 0.0045(3) 0.0031(1) 0 0
In2 In3+ 0.0068(2) 0.0068(2) 0.0042(4) 0.0034(1) 0 0
Mo1 Mo6+ 0.0055(3) 0.0055(3) 0.0066(4) 0.0028(2) 0 0
Mo2 Mo6+ 0.0053(3) 0.0053(3) 0.0070(4) 0.0027(2) 0 0
Mo3 Mo4+ 0.0055(1) 0.0055(1) 0.0078(2) -.0010(2) -.0029(1) 0.0029(1)
#End of TTdata_65821-ICSD