
#(C) 2019 by FIZ Karlsruhe - Leibniz Institute for Information Infrastructure.  All rights reserved.
data_65874-ICSD
_database_code_ICSD 65874
_audit_creation_date 1990-12-27
_chemical_name_systematic 'Lanthanum sodium copper oxide (1.8/.2/1/4)'
_chemical_formula_structural 'La1.83 Na.16 Cu O4'
_chemical_formula_sum 'Cu1 La1.83 Na0.16 O4'
_chemical_name_structure_type CuLa2O4
_exptl_crystal_density_diffrn 6.82
_cell_measurement_temperature 11.
_publ_section_title

;
Alkali-metal substituted La2 Cu O4: Structures of La2-x Mx Cu O4 (M= Na, K: x
ca. 0.2)
;
loop_
_citation_id
_citation_journal_full
_citation_year
_citation_journal_volume
_citation_page_first
_citation_page_last
_citation_journal_id_ASTM
primary
'Physica C: Superconductivity and Ist Application (Amsterdam, Netherlands)' 1989 158 465 470 PHYCE6
loop_
_publ_author_name
'Torardi, C.C.'
'Subramanian, M.A.'
'Gopalakrishnan, J.'
'Sleight, A.W.'
_cell_length_a 5.3626(3)
_cell_length_b 5.3239(2)
_cell_length_c 13.1501(9)
_cell_angle_alpha 90.
_cell_angle_beta 90.
_cell_angle_gamma 90.
_cell_volume 375.43
_cell_formula_units_Z 4
_symmetry_space_group_name_H-M 'A b m a'
_symmetry_Int_Tables_number 64
_refine_ls_R_factor_all 0.047
loop_
_symmetry_equiv_pos_site_id
_symmetry_equiv_pos_as_xyz
1 'x+1/2, -y, -z+1/2'
2 '-x+1/2, -y, z+1/2'
3 'x, -y, z'
4 '-x, -y, -z'
5 '-x+1/2, y, z+1/2'
6 'x+1/2, y, -z+1/2'
7 '-x, y, -z'
8 'x, y, z'
9 'x+1/2, -y+1/2, -z'
10 '-x+1/2, -y+1/2, z'
11 'x, -y+1/2, z+1/2'
12 '-x, -y+1/2, -z+1/2'
13 '-x+1/2, y+1/2, z'
14 'x+1/2, y+1/2, -z'
15 '-x, y+1/2, -z+1/2'
16 'x, y+1/2, z+1/2'
loop_
_atom_type_symbol
_atom_type_oxidation_number
La3+ 3
Na1+ 1
Cu2+ 2.35
O2- -2
loop_
_atom_site_label
_atom_site_type_symbol
_atom_site_symmetry_multiplicity
_atom_site_Wyckoff_symbol
_atom_site_fract_x
_atom_site_fract_y
_atom_site_fract_z
_atom_site_B_iso_or_equiv
_atom_site_occupancy
_atom_site_attached_hydrogens
La1 La3+ 8 f 0.0053 0 0.3609(2) 0.1(1) 0.915(2) 0
Na1 Na1+ 8 f 0.0053 0 0.3609(2) 0.1(1) 0.08(2) 0
Cu1 Cu2+ 4 a 0 0 0 0.5(1) 1. 0
O1 O2- 8 e 0.25 0.25 0.0055(5) 0.4(1) 1. 0
O2 O2- 8 f 0.970(1) 0 0.1830(3) 0.7(1) 1. 0
#End of TTdata_65874-ICSD