
#(C) 2019 by FIZ Karlsruhe - Leibniz Institute for Information Infrastructure.  All rights reserved.
data_65958-ICSD
_database_code_ICSD 65958
_audit_creation_date 1990-12-27
_audit_update_record 2010-08-01
_chemical_name_systematic 'Sodium alumosilicate *'
_chemical_formula_structural 'Na7.11 (Al7.2 Si8.8 O32)'
_chemical_formula_sum 'Al7.2 Na7.11 O32 Si8.8'
_chemical_name_structure_type Na7Al7Si9O32
_chemical_name_mineral 'Nepheline (Si-rich)'
_exptl_crystal_density_diffrn 2.59
_publ_section_title 'Structure investigation on sodium-nephelines'
loop_
_citation_id
_citation_journal_full
_citation_year
_citation_journal_volume
_citation_page_first
_citation_page_last
_citation_journal_id_ASTM
primary 'Zeitschrift fuer Kristallographie' 1989 187 39 53 ZEKRDZ
loop_
_publ_author_name
'Hippler, B.'
'Boehm, H.'
_cell_length_a 9.958(1)
_cell_length_b 9.958(1)
_cell_length_c 8.341(1)
_cell_angle_alpha 90.
_cell_angle_beta 90.
_cell_angle_gamma 120.
_cell_volume 716.3
_cell_formula_units_Z 1
_symmetry_space_group_name_H-M 'P 63'
_symmetry_Int_Tables_number 173
_refine_ls_R_factor_all 0.0249
loop_
_symmetry_equiv_pos_site_id
_symmetry_equiv_pos_as_xyz
1 'x-y, x, z+1/2'
2 'y, -x+y, z+1/2'
3 '-x, -y, z+1/2'
4 '-x+y, -x, z'
5 '-y, x-y, z'
6 'x, y, z'
loop_
_atom_type_symbol
_atom_type_oxidation_number
Al3+ 3
Si4+ 4
Al3+ 3
Si4+ 4
Na1+ 1
O2- -2
loop_
_atom_site_label
_atom_site_type_symbol
_atom_site_symmetry_multiplicity
_atom_site_Wyckoff_symbol
_atom_site_fract_x
_atom_site_fract_y
_atom_site_fract_z
_atom_site_B_iso_or_equiv
_atom_site_occupancy
_atom_site_attached_hydrogens
Al1 Al3+ 2 b 0.6667 0.3333 0.1829 . 0.9 0
Si1 Si4+ 2 b 0.6667 0.3333 0.1829 . 0.1 0
Si2 Si4+ 2 b 0.6667 0.3333 0.7916(1) . 1. 0
Si3 Si4+ 6 c 0.3321(1) 0.0935(1) 0.3034(1) . 1. 0
Al2 Al3+ 6 c 0.3301(1) 0.0933(1) 0.6756(2) . 0.9 0
Si4 Si4+ 6 c 0.3301(1) 0.0933(1) 0.6756(2) . 0.1 0
Na1 Na1+ 6 c 0.4431(1) 0.9978(1) 0.9882(2) . 1. 0
Na2 Na1+ 6 c 0.0286(7) 0.038(1) 0.481(1) . 0.185(2) 0
O1 O2- 6 c 0.7080(3) 0.343(1) 0.9829(6) . 0.333 0
O2 O2- 6 c 0.3134(1) 0.0242(1) 0.4806(2) . 1. 0
O3 O2- 6 c 0.5222(2) 0.1737(2) 0.7255(3) . 1. 0
O4 O2- 6 c 0.5090(2) 0.1635(2) 0.2424(3) . 1. 0
O5 O2- 6 c 0.2855(2) 0.2282(2) 0.3055(2) . 1. 0
O6 O2- 6 c 0.2668(2) 0.2239(2) 0.6794(3) . 1. 0
loop_
_atom_site_aniso_label
_atom_site_aniso_type_symbol
_atom_site_aniso_beta_11
_atom_site_aniso_beta_22
_atom_site_aniso_beta_33
_atom_site_aniso_beta_12
_atom_site_aniso_beta_13
_atom_site_aniso_beta_23
Al1 Al3+ 0.0028(1) 0.0028(1) 0.0040(1) 0.0014(1) 0 0
Si1 Si4+ 0.0028(1) 0.0028(1) 0.0040(1) 0.0014(1) 0 0
Si2 Si4+ 0.0026(1) 0.0026(1) 0.0039(1) 0.0013(1) 0 0
Si3 Si4+ 0.0028(1) 0.0021(1) 0.0035(1) 0.0012(1) 0.0000(1) 0.0001(1)
Al2 Al3+ 0.0028(1) 0.0020(1) 0.0033(1) 0.0010(1) 0.0003(1) 0.0000(1)
Si4 Si4+ 0.0028(1) 0.0020(1) 0.0033(1) 0.0010(1) 0.0003(1) 0.0000(1)
Na1 Na1+ 0.0054(1) 0.0088(1) 0.0061(1) 0.0037(1) -.0003(1) -.0005(2)
Na2 Na1+ 0.0080(8) 0.021(2) 0.0205(9) 0.0078(7) 0.007(1) 0.008(2)
O1 O2- 0.0079(4) 0.0090(3) 0.0041(2) 0.0015(6) 0.0015(5) 0.001(1)
O2 O2- 0.0166(1) 0.0065(1) 0.0030(1) 0.0081(1) 0.0000(2) 0.0002(1)
O3 O2- 0.0026(1) 0.0034(1) 0.0193(3) 0.0012(1) -.0014(1) 0.0021(2)
O4 O2- 0.0032(1) 0.0037(1) 0.0201(3) 0.0014(1) 0.0020(2) -.0004(2)
O5 O2- 0.0070(1) 0.0051(1) 0.0048(1) 0.0045(1) 0.0006(1) 0.0008(1)
O6 O2- 0.0085(2) 0.0070(2) 0.0047(1) 0.0061(1) 0.0000(1) -.0005(1)
#End of TTdata_65958-ICSD