
#(C) 2019 by FIZ Karlsruhe - Leibniz Institute for Information Infrastructure.  All rights reserved.
data_66006-ICSD
_database_code_ICSD 66006
_audit_creation_date 1990-12-27
_chemical_name_systematic 'Rubidium heptasodium bis(trioxocobaltate(II))'
_chemical_formula_structural 'Rb Na7 (Co O3)2'
_chemical_formula_sum 'Co2 Na7 O6 Rb1'
_exptl_crystal_density_diffrn 3.
_publ_section_title
'Ein neues carbonatanaloges Oxocobaltat(II): Rb Na7 (Co O3)2'
loop_
_citation_id
_citation_journal_full
_citation_year
_citation_journal_volume
_citation_page_first
_citation_page_last
_citation_journal_id_ASTM
primary 'Zeitschrift fuer Anorganische und Allgemeine Chemie (1950) (DE)' 1990
588 7 18 ZAACAB
loop_
_publ_author_name
'Birx, J.'
'Hoppe, R.'
_cell_length_a 10.847(5)
_cell_length_b 4.376(2)
_cell_length_c 10.720(5)
_cell_angle_alpha 90.
_cell_angle_beta 91.04(4)
_cell_angle_gamma 90.
_cell_volume 508.76
_cell_formula_units_Z 2
_symmetry_space_group_name_H-M 'C 1 2/m 1'
_symmetry_Int_Tables_number 12
_refine_ls_R_factor_all 0.0636
loop_
_symmetry_equiv_pos_site_id
_symmetry_equiv_pos_as_xyz
1 '-x, y, -z'
2 '-x, -y, -z'
3 'x, -y, z'
4 'x, y, z'
5 '-x+1/2, y+1/2, -z'
6 '-x+1/2, -y+1/2, -z'
7 'x+1/2, -y+1/2, z'
8 'x+1/2, y+1/2, z'
loop_
_atom_type_symbol
_atom_type_oxidation_number
Rb1+ 1
Co2+ 2
Na1+ 1
O2- -2
loop_
_atom_site_label
_atom_site_type_symbol
_atom_site_symmetry_multiplicity
_atom_site_Wyckoff_symbol
_atom_site_fract_x
_atom_site_fract_y
_atom_site_fract_z
_atom_site_B_iso_or_equiv
_atom_site_occupancy
_atom_site_attached_hydrogens
Rb1 Rb1+ 2 a 0 0 0 . 1. 0
Co1 Co2+ 4 i 0.5833(1) 0 0.2411(1) . 1. 0
Na1 Na1+ 4 i 0.2352(3) 0 0.4066(3) . 1. 0
Na2 Na1+ 4 i 0.8531(3) 0 0.2773(3) . 1. 0
Na3 Na1+ 4 i 0.2728(3) 0 0.1033(3) . 1. 0
Na4 Na1+ 2 d 0.5 0 0.5 . 1. 0
O1 O2- 4 i 0.6755(5) 0 0.3942(5) . 1. 0
O2 O2- 4 i 0.4170(6) 0 0.2677(5) . 1. 0
O3 O2- 4 i 0.3158(6) 0 0.8931(6) . 1. 0
loop_
_atom_site_aniso_label
_atom_site_aniso_type_symbol
_atom_site_aniso_U_11
_atom_site_aniso_U_22
_atom_site_aniso_U_33
_atom_site_aniso_U_12
_atom_site_aniso_U_13
_atom_site_aniso_U_23
Rb1 Rb1+ 0.0268(8) 0.0378(9) 0.0242(8) 0 -.0086(6) 0
Co1 Co2+ 0.0118(5) 0.0110(5) 0.0088(5) 0 0.0006(4) 0
Na1 Na1+ 0.0194(18) 0.0141(17) 0.0158(18) 0 -.0017(14) 0
Na2 Na1+ 0.0206(18) 0.0156(18) 0.0193(19) 0 0.0041(15) 0
Na3 Na1+ 0.0168(18) 0.0179(17) 0.0123(18) 0 -.0035(14) 0
Na4 Na1+ 0.0189(27) 0.0378(35) 0.0220(29) 0 0.0106(23) 0
O1 O2- 0.0078(20) 0.0196(30) 0.0131(29) 0 -.0017(23) 0
O2 O2- 0.0172(29) 0.0198(32) 0.0194(31) 0 -.0007(24) 0
O3 O2- 0.0207(31) 0.0195(33) 0.0114(28) 0 0.0035(24) 0
#End of TTdata_66006-ICSD