
#(C) 2019 by FIZ Karlsruhe - Leibniz Institute for Information Infrastructure.  All rights reserved.
data_66159-ICSD
_database_code_ICSD 66159
_audit_creation_date 1992-01-20
_audit_update_record 1999-06-02
_chemical_name_systematic 'Potassium sodium tecto-alumosilicate *'
_chemical_formula_structural 'K57.44 Na42.76 (Al96 Si96 O384)'
_chemical_formula_sum 'Al96 K57.44 Na42.76 O384 Si96'
_chemical_name_structure_type Faujasite-Fd3--frame
_chemical_name_mineral 'Zeolite X (K-exchanged, dehyd.)'
_exptl_crystal_density_diffrn 1.58
_publ_section_title

;
Crystal structures of the partially K-, Rb-, and Cs-exchanged forms of NaX
zeolite in both the hydrated and the dehydrated (400 C) states
;
loop_
_citation_id
_citation_journal_full
_citation_year
_citation_journal_volume
_citation_page_first
_citation_page_last
_citation_journal_id_ASTM
primary Zeolites 1991 11 287 292 ZEOLD3
loop_
_publ_author_name
'Shepelev, Yu.F.'
'Butikova, I.K.'
'Smolin, Yu.I.'
_cell_length_a 24.860(10)
_cell_length_b 24.860(10)
_cell_length_c 24.860(10)
_cell_angle_alpha 90.
_cell_angle_beta 90.
_cell_angle_gamma 90.
_cell_volume 15363.97
_cell_formula_units_Z 1
_symmetry_space_group_name_H-M 'F d -3 Z'
_symmetry_Int_Tables_number 203
_refine_ls_R_factor_all 0.078
loop_
_symmetry_equiv_pos_site_id
_symmetry_equiv_pos_as_xyz
1 '-z, x+3/4, y+3/4'
2 'z+3/4, x+3/4, -y'
3 'z+3/4, -x, y+3/4'
4 '-z, -x, -y'
5 'y+3/4, -z, x+3/4'
6 '-y, z+3/4, x+3/4'
7 'y+3/4, z+3/4, -x'
8 '-y, -z, -x'
9 'x+3/4, y+3/4, -z'
10 'x+3/4, -y, z+3/4'
11 '-x, y+3/4, z+3/4'
12 '-x, -y, -z'
13 'z, -x+1/4, -y+1/4'
14 '-z+1/4, -x+1/4, y'
15 '-z+1/4, x, -y+1/4'
16 'z, x, y'
17 '-y+1/4, z, -x+1/4'
18 'y, -z+1/4, -x+1/4'
19 '-y+1/4, -z+1/4, x'
20 'y, z, x'
21 '-x+1/4, -y+1/4, z'
22 '-x+1/4, y, -z+1/4'
23 'x, -y+1/4, -z+1/4'
24 'x, y, z'
25 '-z, x+1/4, y+1/4'
26 'z+3/4, x+1/4, -y+1/2'
27 'z+3/4, -x+1/2, y+1/4'
28 '-z, -x+1/2, -y+1/2'
29 'y+3/4, -z+1/2, x+1/4'
30 '-y, z+1/4, x+1/4'
31 'y+3/4, z+1/4, -x+1/2'
32 '-y, -z+1/2, -x+1/2'
33 'x+3/4, y+1/4, -z+1/2'
34 'x+3/4, -y+1/2, z+1/4'
35 '-x, y+1/4, z+1/4'
36 '-x, -y+1/2, -z+1/2'
37 'z, -x+3/4, -y+3/4'
38 '-z+1/4, -x+3/4, y+1/2'
39 '-z+1/4, x+1/2, -y+3/4'
40 'z, x+1/2, y+1/2'
41 '-y+1/4, z+1/2, -x+3/4'
42 'y, -z+3/4, -x+3/4'
43 '-y+1/4, -z+3/4, x+1/2'
44 'y, z+1/2, x+1/2'
45 '-x+1/4, -y+3/4, z+1/2'
46 '-x+1/4, y+1/2, -z+3/4'
47 'x, -y+3/4, -z+3/4'
48 'x, y+1/2, z+1/2'
49 '-z+1/2, x+3/4, y+1/4'
50 'z+1/4, x+3/4, -y+1/2'
51 'z+1/4, -x, y+1/4'
52 '-z+1/2, -x, -y+1/2'
53 'y+1/4, -z, x+1/4'
54 '-y+1/2, z+3/4, x+1/4'
55 'y+1/4, z+3/4, -x+1/2'
56 '-y+1/2, -z, -x+1/2'
57 'x+1/4, y+3/4, -z+1/2'
58 'x+1/4, -y, z+1/4'
59 '-x+1/2, y+3/4, z+1/4'
60 '-x+1/2, -y, -z+1/2'
61 'z+1/2, -x+1/4, -y+3/4'
62 '-z+3/4, -x+1/4, y+1/2'
63 '-z+3/4, x, -y+3/4'
64 'z+1/2, x, y+1/2'
65 '-y+3/4, z, -x+3/4'
66 'y+1/2, -z+1/4, -x+3/4'
67 '-y+3/4, -z+1/4, x+1/2'
68 'y+1/2, z, x+1/2'
69 '-x+3/4, -y+1/4, z+1/2'
70 '-x+3/4, y, -z+3/4'
71 'x+1/2, -y+1/4, -z+3/4'
72 'x+1/2, y, z+1/2'
73 '-z+1/2, x+1/4, y+3/4'
74 'z+1/4, x+1/4, -y'
75 'z+1/4, -x+1/2, y+3/4'
76 '-z+1/2, -x+1/2, -y'
77 'y+1/4, -z+1/2, x+3/4'
78 '-y+1/2, z+1/4, x+3/4'
79 'y+1/4, z+1/4, -x'
80 '-y+1/2, -z+1/2, -x'
81 'x+1/4, y+1/4, -z'
82 'x+1/4, -y+1/2, z+3/4'
83 '-x+1/2, y+1/4, z+3/4'
84 '-x+1/2, -y+1/2, -z'
85 'z+1/2, -x+3/4, -y+1/4'
86 '-z+3/4, -x+3/4, y'
87 '-z+3/4, x+1/2, -y+1/4'
88 'z+1/2, x+1/2, y'
89 '-y+3/4, z+1/2, -x+1/4'
90 'y+1/2, -z+3/4, -x+1/4'
91 '-y+3/4, -z+3/4, x'
92 'y+1/2, z+1/2, x'
93 '-x+3/4, -y+3/4, z'
94 '-x+3/4, y+1/2, -z+1/4'
95 'x+1/2, -y+3/4, -z+1/4'
96 'x+1/2, y+1/2, z'
loop_
_atom_type_symbol
_atom_type_oxidation_number
Si4+ 4
Al3+ 3
O2- -2
Na1+ 1
K1+ 1
Na1+ 1
K1+ 1
loop_
_atom_site_label
_atom_site_type_symbol
_atom_site_symmetry_multiplicity
_atom_site_Wyckoff_symbol
_atom_site_fract_x
_atom_site_fract_y
_atom_site_fract_z
_atom_site_B_iso_or_equiv
_atom_site_occupancy
_atom_site_attached_hydrogens
Si1 Si4+ 96 g -.0543(2) 0.0345(2) 0.1242(3) 0.58 1. 0
Al1 Al3+ 96 g -.0544(3) 0.1232(4) 0.0369(3) 0.52 1. 0
O1 O2- 96 g -.1062(8) -.0014(8) 0.1113(7) 1.68 1. 0
O2 O2- 96 g -.0035(9) -.0028(9) 0.1449(8) 1.51 1. 0
O3 O2- 96 g -.0325(9) 0.0633(9) 0.0708(9) 3.95 1. 0
O4 O2- 96 g -.0713(8) 0.0741(8) 0.1721(9) 2.66 1. 0
Na1 Na1+ 16 c 0 0 0 0.93 0.675 0
Na2 Na1+ 32 e 0.063(6) 0.063(6) 0.063(6) 5.83 0.3188 0
Na3 Na1+ 32 e 0.231(2) 0.231(2) 0.231(2) 2.3 0.35(4) 0
K1 K1+ 32 e 0.070(2) 0.070(2) 0.070(2) 3.53 0.19(3) 0
K2 K1+ 32 e 0.156(3) 0.156(3) 0.156(3) 1.17 0.13(2) 0
K3 K1+ 32 e 0.171(3) 0.171(3) 0.171(3) 3.23 0.16(3) 0
K4 K1+ 32 e 0.2567(6) 0.2567(6) 0.2567(6) 1.93 0.58(2) 0
Na4 Na1+ 96 g 0.669(3) 0.044(4) 0.321(3) 0.53 0.11(2) 0
K5 K1+ 96 g 0.824(2) 0.051(2) 0.189(2) 3.44 0.16(2) 0
K6 K1+ 48 f 0.875 0.086(5) 0.375 1.99 0.05 0
K7 K1+ 96 g 0.854(5) 0.046(5) 0.310(5) 2.72 0.06(1) 0
#End of TTdata_66159-ICSD