
#(C) 2019 by FIZ Karlsruhe - Leibniz Institute for Information Infrastructure.  All rights reserved.
data_66326-ICSD
_database_code_ICSD 66326
_audit_creation_date 1993-01-06
_audit_update_record 1999-06-02
_chemical_name_systematic 'Sodium tecto-borotrisilicate'
_chemical_formula_structural 'Na (B Si3 O8)'
_chemical_formula_sum 'B1 Na1 O8 Si3'
_chemical_name_structure_type Feldspar#-(TC)-Albite-NaAlSi3O8
_chemical_name_mineral 'Reedmergnerite high'
_exptl_crystal_density_diffrn 2.75
_publ_section_title

;
Tetrahedral-site occupancies in reedmergnerite and synthetic boron albite (Na
B Si3 O8)
;
loop_
_citation_id
_citation_journal_full
_citation_year
_citation_journal_volume
_citation_page_first
_citation_page_last
_citation_journal_id_ASTM
primary 'American Mineralogist' 1992 77 76 84 AMMIAY
loop_
_publ_author_name
'Fleet, M.E.'
_cell_length_a 7.910(2)
_cell_length_b 12.336(2)
_cell_length_c 6.820(1)
_cell_angle_alpha 93.54(2)
_cell_angle_beta 116.12(2)
_cell_angle_gamma 92.60(2)
_cell_volume 594.42
_cell_formula_units_Z 4
_symmetry_space_group_name_H-M 'C -1'
_symmetry_Int_Tables_number 2
_refine_ls_R_factor_all 0.037
loop_
_symmetry_equiv_pos_site_id
_symmetry_equiv_pos_as_xyz
1 '-x, -y, -z'
2 'x, y, z'
3 '-x+1/2, -y+1/2, -z'
4 'x+1/2, y+1/2, z'
loop_
_atom_type_symbol
_atom_type_oxidation_number
Na1+ 1
B3+ 3
Si4+ 4
B3+ 3
Si4+ 4
B3+ 3
Si4+ 4
B3+ 3
Si4+ 4
O2- -2
loop_
_atom_site_label
_atom_site_type_symbol
_atom_site_symmetry_multiplicity
_atom_site_Wyckoff_symbol
_atom_site_fract_x
_atom_site_fract_y
_atom_site_fract_z
_atom_site_B_iso_or_equiv
_atom_site_occupancy
_atom_site_attached_hydrogens
Na1 Na1+ 4 i 0.2823(2) 0.0075(2) 0.1356(3) . 1. 0
B1 B3+ 4 i 0.0093(1) 0.1681(1) 0.2203(2) . 0.289(3) 0
Si1 Si4+ 4 i 0.0093(1) 0.1681(1) 0.2203(2) . 0.711 0
B2 B3+ 4 i 0.0093(1) 0.8100(1) 0.2305(1) . 0.058(3) 0
Si2 Si4+ 4 i 0.0093(1) 0.8100(1) 0.2305(1) . 0.942 0
B3 B3+ 4 i 0.6995(2) 0.1056(1) 0.3219(2) . 0.384(3) 0
Si3 Si4+ 4 i 0.6995(2) 0.1056(1) 0.3219(2) . 0.616 0
B4 B3+ 4 i 0.6910(1) 0.8758(1) 0.3556(2) . 0.269(3) 0
Si4 Si4+ 4 i 0.6910(1) 0.8758(1) 0.3556(2) . 0.731 0
O1 O2- 4 i 0.0048(2) 0.1390(1) 0.9876(3) . 1. 0
O2 O2- 4 i 0.6050(2) 0.9890(1) 0.2783(3) . 1. 0
O3 O2- 4 i 0.8264(2) 0.1108(1) 0.2042(3) . 1. 0
O4 O2- 4 i 0.8197(2) 0.8392(1) 0.2452(3) . 1. 0
O5 O2- 4 i 0.0189(2) 0.2922(1) 0.2810(3) . 1. 0
O6 O2- 4 i 0.0294(2) 0.6810(1) 0.2215(3) . 1. 0
O7 O2- 4 i 0.1921(2) 0.1134(1) 0.3866(3) . 1. 0
O8 O2- 4 i 0.1895(2) 0.8681(1) 0.4281(3) . 1. 0
loop_
_atom_site_aniso_label
_atom_site_aniso_type_symbol
_atom_site_aniso_B_11
_atom_site_aniso_B_22
_atom_site_aniso_B_33
_atom_site_aniso_B_12
_atom_site_aniso_B_13
_atom_site_aniso_B_23
Na1 Na1+ 2.18(6) 10.72(13) 6.13(10) 0.35(7) 0.62(6) -5.68(9)
B1 B3+ 0.96(4) 0.75(4) 0.59(4) 0.03(3) 0.32(3) 0.05(3)
Si1 Si4+ 0.96(4) 0.75(4) 0.59(4) 0.03(3) 0.32(3) 0.05(3)
B2 B3+ 0.88(3) 0.75(3) 0.84(3) 0.14(2) 0.36(2) 0.19(2)
Si2 Si4+ 0.88(3) 0.75(3) 0.84(3) 0.14(2) 0.36(2) 0.19(2)
B3 B3+ 0.77(5) 0.74(4) 0.71(4) -.01(3) 0.18(3) -.02(3)
Si3 Si4+ 0.77(5) 0.74(4) 0.71(4) -.01(3) 0.18(3) -.02(3)
B4 B3+ 0.63(4) 0.95(4) 0.70(4) 0.23(3) 0.31(3) 0.19(2)
Si4 Si4+ 0.63(4) 0.95(4) 0.70(4) 0.23(3) 0.31(3) 0.19(2)
O1 O2- 2.17(8) 1.27(7) 1.16(7) 0.10(6) 0.85(6) 0.11(5)
O2 O2- 1.01(7) 1.21(7) 1.25(7) 0.11(5) 0.34(5) 0.21(5)
O3 O2- 1.89(8) 1.64(8) 1.82(8) -.51(6) 0.90(6) -.21(6)
O4 O2- 1.38(7) 1.81(8) 2.09(8) 0.33(6) 0.88(6) 0.08(6)
O5 O2- 1.27(7) 1.55(7) 1.59(7) 0.25(6) 0.73(6) 0.26(6)
O6 O2- 1.32(7) 1.05(7) 1.44(7) 0.16(5) 0.30(6) 0.01(5)
O7 O2- 1.52(7) 1.40(7) 1.17(7) 0.25(6) 0.42(6) 0.15(5)
O8 O2- 1.51(7) 1.32(7) 1.45(7) -.07(6) 0.37(6) -.01(6)
#End of TTdata_66326-ICSD