
#(C) 2019 by FIZ Karlsruhe - Leibniz Institute for Information Infrastructure.  All rights reserved.
data_66677-ICSD
_database_code_ICSD 66677
_audit_creation_date 1995-10-17
_chemical_name_systematic 'Sodium potassium gallosilicate (.7/.3/1)'
_chemical_formula_structural '(Na.7 K.3) (Ga Si O4)'
_chemical_formula_sum 'Ga1 K0.3 Na0.7 O4 Si1'
_chemical_name_structure_type BaMgSiO4
_exptl_crystal_density_diffrn 3.35
_publ_section_title 'Crystal chemistry of the (Na,K)GaSiO4 system'
loop_
_citation_id
_citation_journal_full
_citation_year
_citation_journal_volume
_citation_page_first
_citation_page_last
_citation_journal_id_ASTM
primary 'European Journal of Mineralogy' 1993 5 297 305 EJMIER
loop_
_publ_author_name
'Barbier, J.'
'Liu, B.'
'Weber, J.'
_cell_length_a 8.8169(5)
_cell_length_b 8.8169(5)
_cell_length_c 8.3873(3)
_cell_angle_alpha 90.
_cell_angle_beta 90.
_cell_angle_gamma 120.
_cell_volume 564.66
_cell_formula_units_Z 6
_symmetry_space_group_name_H-M 'P 63'
_symmetry_Int_Tables_number 173
_refine_ls_R_factor_all 0.028
loop_
_symmetry_equiv_pos_site_id
_symmetry_equiv_pos_as_xyz
1 'x-y, x, z+1/2'
2 'y, -x+y, z+1/2'
3 '-x, -y, z+1/2'
4 '-x+y, -x, z'
5 '-y, x-y, z'
6 'x, y, z'
loop_
_atom_type_symbol
_atom_type_oxidation_number
Na1+ 1
K1+ 1
Na1+ 1
K1+ 1
Ga3+ 3
Si4+ 4
Ga3+ 3
Si4+ 4
O2- -2
loop_
_atom_site_label
_atom_site_type_symbol
_atom_site_symmetry_multiplicity
_atom_site_Wyckoff_symbol
_atom_site_fract_x
_atom_site_fract_y
_atom_site_fract_z
_atom_site_B_iso_or_equiv
_atom_site_occupancy
_atom_site_attached_hydrogens
Na1 Na1+ 2 a 0 0 0.75 2.7(5) 0.3 0
K1 K1+ 2 a 0 0 0.75 2.7(5) 0.7 0
Na2 Na1+ 2 b 0.6667 0.3333 0.791(4) 4.7(8) 1. 0
Na3 Na1+ 2 b 0.3333 0.6667 0.728(4) 2.8(5) 0.8 0
K2 K1+ 2 b 0.3333 0.6667 0.728(4) 2.8(5) 0.2 0
Ga1 Ga3+ 6 c 0.683(1) 0.657(1) 0.547(2) 2.9(1) 0.95 0
Si1 Si4+ 6 c 0.683(1) 0.657(1) 0.547(2) 2.9(1) 0.05 0
Ga2 Ga3+ 6 c 0.655(2) -.022(1) 0.434(2) 2.9(2) 0.05 0
Si2 Si4+ 6 c 0.655(2) -.022(1) 0.434(2) 2.9(2) 0.95 0
O1 O2- 6 c 0.744(3) 0.878(3) 0.525(5) 3.2(2) 1. 0
O2 O2- 6 c 0.471(2) 0.918(3) 0.524(4) 3.2(2) 1. 0
O3 O2- 6 c 0.777(3) 0.190(3) 0.433(3) 3.2(2) 1. 0
O4 O2- 6 c 0.727(3) 0.636(3) 0.744(4) 5.3(5) 1. 0
#End of TTdata_66677-ICSD