
#(C) 2017 by FIZ Karlsruhe - Leibniz Institute for Information Infrastructure.  All rights reserved.
data_66693-ICSD
_database_code_ICSD 66693
_audit_creation_date 1995-10-17
_chemical_name_systematic 'Lithium phyllo-tetrafluoroindate'
_chemical_formula_structural 'Li (In F4)'
_chemical_formula_sum 'F4 In1 Li1'
_chemical_name_structure_type CrUO4
_exptl_crystal_density_diffrn 4.74
_cell_measurement_temperature 298.
_publ_section_title 'Structure of lithium tetrafluoroindate'
loop_
_citation_id
_citation_journal_full
_citation_year
_citation_journal_volume
_citation_page_first
_citation_page_last
_citation_journal_id_ASTM
primary 'Acta Crystallographica, Section C: Crystal Structure Communications'
1992 48 769 771 ACSCEE
loop_
_publ_author_name
'Gravereau, P.'
'Chaminade, J.P.'
'Gaewdang, T.'
'Gannec, J.'
'Pouchard, M.'
'Hagenmuller, P.'
_cell_length_a 4.752(1)
_cell_length_b 11.721(4)
_cell_length_c 4.971(1)
_cell_angle_alpha 90.
_cell_angle_beta 90.
_cell_angle_gamma 90.
_cell_volume 276.88
_cell_formula_units_Z 4
_symmetry_space_group_name_H-M 'P b c n'
_symmetry_Int_Tables_number 60
_refine_ls_R_factor_all 0.014
loop_
_symmetry_equiv_pos_site_id
_symmetry_equiv_pos_as_xyz
1 'x, -y, z+1/2'
2 '-x+1/2, y+1/2, z'
3 'x+1/2, y+1/2, -z+1/2'
4 '-x, -y, -z'
5 '-x, y, -z+1/2'
6 'x+1/2, -y+1/2, -z'
7 '-x+1/2, -y+1/2, z+1/2'
8 'x, y, z'
loop_
_atom_type_symbol
_atom_type_oxidation_number
Li1+ 1
In3+ 3
F1- -1
loop_
_atom_site_label
_atom_site_type_symbol
_atom_site_symmetry_multiplicity
_atom_site_Wyckoff_symbol
_atom_site_fract_x
_atom_site_fract_y
_atom_site_fract_z
_atom_site_B_iso_or_equiv
_atom_site_occupancy
_atom_site_attached_hydrogens
Li1 Li1+ 4 c 0 0.0561(7) 0.25 1.14(11) 1. 0
In1 In3+ 4 c 0 0.33113(2) 0.25 . 1. 0
F1 F1- 8 d 0.2620(3) 0.4423(2) 0.4308(4) . 1. 0
F2 F1- 8 d 0.2272(4) 0.1928(2) 0.4199(4) . 1. 0
loop_
_atom_site_aniso_label
_atom_site_aniso_type_symbol
_atom_site_aniso_U_11
_atom_site_aniso_U_22
_atom_site_aniso_U_33
_atom_site_aniso_U_12
_atom_site_aniso_U_13
_atom_site_aniso_U_23
In1 In3+ 0.0049(1) 0.0073(1) 0.0064(1) 0 0.0000(1) 0
F1 F1- 0.0122(7) 0.0125(7) 0.0116(7) -.0048(6) -.0035(7) -.0010(7)
F2 F1- 0.0100(7) 0.0123(7) 0.0110(7) 0.0015(6) -.0044(7) 0.0006(7)
#End of TTdata_66693-ICSD