
#(C) 2019 by FIZ Karlsruhe - Leibniz Institute for Information Infrastructure.  All rights reserved.
data_66917-ICSD
_database_code_ICSD 66917
_audit_creation_date 1997-11-10
_audit_update_record 1998-06-26
_chemical_name_systematic 'Tetrasodium tetratellurate(IV)'
_chemical_formula_structural 'Na4 (Te4 O10)'
_chemical_formula_sum 'Na4 O10 Te4'
_exptl_crystal_density_diffrn 4.68
_cell_measurement_temperature 103.
_publ_section_title 'Crystal structure of sodium ditellurite, Na4 Te4 O10'
loop_
_citation_id
_citation_journal_full
_citation_year
_citation_journal_volume
_citation_page_first
_citation_page_last
_citation_journal_id_ASTM
primary 'Acta Chemica Scandinavica' 1997 51 118 121 ACHSE7
loop_
_publ_author_name
'Tagg, S.L.'
'Huffman, J.C.'
'Zwanziger, J.W.'
_cell_length_a 23.465(6)
_cell_length_b 4.877(1)
_cell_length_c 9.691(2)
_cell_angle_alpha 90.
_cell_angle_beta 102.81(1)
_cell_angle_gamma 90.
_cell_volume 1081.42
_cell_formula_units_Z 4
_symmetry_space_group_name_H-M 'C 1 2/c 1'
_symmetry_Int_Tables_number 15
_refine_ls_R_factor_all 0.0446
loop_
_symmetry_equiv_pos_site_id
_symmetry_equiv_pos_as_xyz
1 'x, -y, z+1/2'
2 '-x, -y, -z'
3 '-x, y, -z+1/2'
4 'x, y, z'
5 'x+1/2, -y+1/2, z+1/2'
6 '-x+1/2, -y+1/2, -z'
7 '-x+1/2, y+1/2, -z+1/2'
8 'x+1/2, y+1/2, z'
loop_
_atom_type_symbol
_atom_type_oxidation_number
Te4+ 4
Na1+ 1
O2- -2
loop_
_atom_site_label
_atom_site_type_symbol
_atom_site_symmetry_multiplicity
_atom_site_Wyckoff_symbol
_atom_site_fract_x
_atom_site_fract_y
_atom_site_fract_z
_atom_site_B_iso_or_equiv
_atom_site_occupancy
_atom_site_attached_hydrogens
Te1 Te4+ 8 f 0.31025(4) 0.0886(2) 0.0473(1) 0.48(2) 1. 0
Te2 Te4+ 8 f 0.43945(3) 0.0050(2) 0.3217(1) 0.40(2) 1. 0
Na1 Na1+ 8 f 0.4487(2) 0.4836(12) 0.0884(6) 0.63(11) 1. 0
Na2 Na1+ 8 f 0.3289(2) 0.5043(12) 0.2949(6) 0.87(9) 1. 0
O1 O2- 8 f 0.3524(4) 0.4008(21) 0.039(1) 0.68(18) 1. 0
O2 O2- 8 f 0.4469(4) 0.3815(21) 0.3452(10) 0.61(20) 1. 0
O3 O2- 8 f 0.4532(4) -.0271(20) 0.1377(10) 0.76(20) 1. 0
O4 O2- 8 f 0.3536(4) 0.0037(22) 0.2534(10) 0.74(18) 1. 0
O5 O2- 8 f 0.2527(4) 0.2483(23) 0.1349(10) 0.89(22) 1. 0
#End of TTdata_66917-ICSD