
#(C) 2018 by FIZ Karlsruhe - Leibniz Institute for Information Infrastructure.  All rights reserved.
data_66928-ICSD
_database_code_ICSD 66928
_audit_creation_date 1997-11-10
_audit_update_record 1998-06-26
_chemical_name_systematic
'Lithium magnesium copper catena-disilicate (2/0.87/2.13/2)'
_chemical_formula_structural 'Li2 (Mg0.87 Cu0.13) Cu2 (Si2 O6)2'
_chemical_formula_sum 'Cu2.13 Li2 Mg0.87 O12 Si4'
_chemical_name_structure_type Na2Cu3(GeO3)4
_exptl_crystal_density_diffrn 3.63
_publ_section_title

;
Structure of synthetic Li2 (Mg, Cu) Cu2 (Si2 O6)2: A unique chain silicate
related to pyroxene
;
loop_
_citation_id
_citation_journal_full
_citation_year
_citation_journal_volume
_citation_page_first
_citation_page_last
_citation_journal_id_ASTM
primary 'American Mineralogist' 1997 82 143 148 AMMIAY
loop_
_publ_author_name
'Horiuchi, H.'
'Saito, A.'
'Tachi, T.'
'Nagasawa, H.'
_cell_length_a 5.7068(7)
_cell_length_b 7.4784(9)
_cell_length_c 5.2193(3)
_cell_angle_alpha 99.911(8)
_cell_angle_beta 97.436(8)
_cell_angle_gamma 84.52(1)
_cell_volume 216.97
_cell_formula_units_Z 1
_symmetry_space_group_name_H-M 'P -1'
_symmetry_Int_Tables_number 2
_refine_ls_R_factor_all 0.047
loop_
_symmetry_equiv_pos_site_id
_symmetry_equiv_pos_as_xyz
1 '-x, -y, -z'
2 'x, y, z'
loop_
_atom_type_symbol
_atom_type_oxidation_number
Mg2+ 2
Cu2+ 2
Si4+ 4
Li1+ 1
O2- -2
loop_
_atom_site_label
_atom_site_type_symbol
_atom_site_symmetry_multiplicity
_atom_site_Wyckoff_symbol
_atom_site_fract_x
_atom_site_fract_y
_atom_site_fract_z
_atom_site_B_iso_or_equiv
_atom_site_occupancy
_atom_site_attached_hydrogens
Mg1 Mg2+ 1 a 0 0 0 . 0.87 0
Cu1 Cu2+ 1 a 0 0 0 . 0.13 0
Cu2 Cu2+ 2 i 0.83770(6) 0.18327(5) 0.50890(8) . 1. 0
Si1 Si4+ 2 i 0.4093(1) 0.1859(1) 0.7795(2) . 1. 0
Si2 Si4+ 2 i 0.2224(1) 0.3721(1) 0.3003(2) . 1. 0
Li1 Li1+ 2 i 0.760(1) 0.409(1) 0.073(2) . 1. 0
O1 O2- 2 i 0.6745(3) 0.0955(3) 0.7625(4) . 1. 0
O2 O2- 2 i 0.4109(3) 0.3111(3) 0.0762(4) . 1. 0
O3 O2- 2 i 0.3602(3) 0.3430(3) 0.5862(4) . 1. 0
O4 O2- 2 i 0.1953(3) 0.0543(3) 0.7306(4) . 1. 0
O5 O2- 2 i 0.1354(4) 0.5789(3) 0.2764(4) . 1. 0
O6 O2- 2 i -.0014(3) 0.2467(3) 0.2285(4) . 1. 0
loop_
_atom_site_aniso_label
_atom_site_aniso_type_symbol
_atom_site_aniso_beta_11
_atom_site_aniso_beta_22
_atom_site_aniso_beta_33
_atom_site_aniso_beta_12
_atom_site_aniso_beta_13
_atom_site_aniso_beta_23
Mg1 Mg2+ 0.0038(3) 0.0018(2) 0.0043(4) -.0006(2) 0.0023(3) -.0005(2)
Cu1 Cu2+ 0.0038(3) 0.0018(2) 0.0043(4) -.0006(2) 0.0023(3) -.0005(2)
Cu2 Cu2+ 0.00337(8) 0.00188(4) 0.0048(1) -.00004(4) 0.00181(7) 0.00009(5)
Si1 Si4+ 0.0017(2) 0.0019(1) 0.0035(2) 0.0000(1) 0.0009(2) 0.0002(1)
Si2 Si4+ 0.0017(2) 0.0016(1) 0.0031(2) 0.0001(1) 0.0004(2) 0.0001(1)
Li1 Li1+ 0.005(2) 0.013(1) 0.025(3) 0.000(1) -.002(2) 0.010(2)
O1 O2- 0.0023(4) 0.0041(3) 0.0069(6) 0.0009(3) 0.0018(4) 0.0015(4)
O2 O2- 0.0029(4) 0.0034(3) 0.0044(6) -.0005(3) 0.0019(4) -.0008(3)
O3 O2- 0.0042(4) 0.0032(3) 0.0049(6) -.0008(3) -.0010(4) 0.0019(3)
O4 O2- 0.0032(4) 0.0024(3) 0.0057(6) -.0011(3) 0.0012(4) -.0003(3)
O5 O2- 0.0058(5) 0.0018(3) 0.0069(6) 0.0004(3) 0.0007(5) 0.0002(3)
O6 O2- 0.0028(4) 0.0023(3) 0.0048(6) -.0005(3) 0.0011(4) 0.0001(3)
#End of TTdata_66928-ICSD