
#(C) 2018 by FIZ Karlsruhe - Leibniz Institute for Information Infrastructure.  All rights reserved.
data_67104-ICSD
_database_code_ICSD 67104
_audit_creation_date 1990-12-27
_audit_update_record 1999-06-02
_chemical_name_systematic 'Lithium alumosilicate *'
_chemical_formula_structural 'Li5.04 Si5 Al5 O20 (H2 O)7.92'
_chemical_formula_sum 'H15.84 Al5 Li5.04 O27.92 Si5'
_chemical_name_structure_type Edingtonite-Q-frame
_chemical_name_mineral 'Zeolite F (Li-exchanged)'
_exptl_crystal_density_diffrn 1.99
_publ_section_title 'Crystal structure of the synthetic zeolite Li F'
loop_
_citation_id
_citation_journal_full
_citation_year
_citation_journal_volume
_citation_page_first
_citation_page_last
_citation_journal_id_ASTM
primary Kristallografiya 1989 34 1302 1304 KRISAJ
loop_
_publ_author_name
'Shepelev, Yu.F.'
'Butikova, I.K.'
'Smolin, Yu.I.'
_cell_length_a 9.911(5)
_cell_length_b 9.911(5)
_cell_length_c 6.56(1)
_cell_angle_alpha 90.
_cell_angle_beta 90.
_cell_angle_gamma 90.
_cell_volume 644.38
_cell_formula_units_Z 1
_symmetry_space_group_name_H-M 'P -4 21 m'
_symmetry_Int_Tables_number 113
_refine_ls_R_factor_all 0.032
loop_
_symmetry_equiv_pos_site_id
_symmetry_equiv_pos_as_xyz
1 '-y+1/2, -x+1/2, z'
2 'y, -x, -z'
3 'y+1/2, x+1/2, z'
4 '-y, x, -z'
5 'x+1/2, -y+1/2, -z'
6 '-x, -y, z'
7 '-x+1/2, y+1/2, -z'
8 'x, y, z'
loop_
_atom_type_symbol
_atom_type_oxidation_number
Si4+ 4
Al3+ 3
Si4+ 4
Al3+ 3
O2- -2
Li1+ 1
H1+ 1
loop_
_atom_site_label
_atom_site_type_symbol
_atom_site_symmetry_multiplicity
_atom_site_Wyckoff_symbol
_atom_site_fract_x
_atom_site_fract_y
_atom_site_fract_z
_atom_site_B_iso_or_equiv
_atom_site_occupancy
_atom_site_attached_hydrogens
Si1 Si4+ 2 a 0 0 0 0.62 0.5 0
Al1 Al3+ 2 a 0 0 0 0.62 0.5 0
Si2 Si4+ 8 f 0.1151(1) 0.1529(1) 0.3800(2) 0.84 0.5 0
Al2 Al3+ 8 f 0.1151(1) 0.1529(1) 0.3800(2) 0.84 0.5 0
O1 O2- 8 f 0.1108(2) 0.0872(2) 0.1460(5) 1.67 1. 0
O2 O2- 8 f -.0440(2) 0.1898(2) 0.4564(4) 1.72 1. 0
O3 O2- 4 e 0.2067(2) 0.2933(2) 0.3769(6) 1.67 1. 0
O4 O2- 2 c 0 0.5 0.458(3) 4.55 0.9 0
O5 O2- 4 e 0.347(1) 0.153(1) 0.935 3.95 0.83 0
O6 O2- 4 e 0.120(1) 0.380(1) 0.875(2) 7.2 0.7 0
Li1 Li1+ 4 e 0.364(1) 0.136(1) 0.639(2) 2.83 0.8 0
Li2 Li1+ 4 e 0.241(5) 0.259(5) 0.086(9) 4.83 0.2 0
Li3 Li1+ 8 f 0.318(6) 0.293(6) 0.755(9) 2.47 0.13 0
H1 H1+ 2 c 0 0.5 0.312(9) 4.55 0.9 0
H2 H1+ 4 e 0.061(9) 0.439(9) 0.549(9) 4.55 0.45 0
H3 H1+ 8 f 0.244(9) 0.129(7) 0.987(9) 3.95 0.83 0
H4 H1+ 4 e 0.179(9) 0.321(9) 0.869(9) 7.2 0.7 0
H5 H1+ 4 e 0.104(9) 0.396(9) 0.750(9) 7.2 0.7 0
#End of TTdata_67104-ICSD