
#(C) 2019 by FIZ Karlsruhe - Leibniz Institute for Information Infrastructure.  All rights reserved.
data_67112-ICSD
_database_code_ICSD 67112
_audit_creation_date 1990-12-27
_audit_update_record 2003-04-01
_chemical_name_systematic 'Tetrasodium oxide diiodide'
_chemical_formula_structural 'Na4 O I2'
_chemical_formula_sum 'I2 Na4 O1'
_chemical_name_structure_type K2MgF4
_exptl_crystal_density_diffrn 3.48
_publ_section_title 'Structure of Na4 O I2'
loop_
_citation_id
_citation_journal_full
_citation_year
_citation_journal_volume
_citation_page_first
_citation_page_last
_citation_journal_id_ASTM
primary 'Acta Crystallographica, Section C: Crystal Structure Communications'
1990 46 368 369 ACSCEE
loop_
_publ_author_name
'Sabrowsky, H.'
'Hippler, K.'
'Sitta, S.'
'Vogt, P.'
_cell_length_a 4.655(2)
_cell_length_b 4.655(2)
_cell_length_c 15.940(4)
_cell_angle_alpha 90.
_cell_angle_beta 90.
_cell_angle_gamma 90.
_cell_volume 345.4
_cell_formula_units_Z 2
_symmetry_space_group_name_H-M 'I 4/m m m'
_symmetry_Int_Tables_number 139
_refine_ls_R_factor_all 0.0448
loop_
_symmetry_equiv_pos_site_id
_symmetry_equiv_pos_as_xyz
1 'y, x, -z'
2 '-y, -x, -z'
3 '-y, x, -z'
4 'y, -x, -z'
5 '-x, y, -z'
6 'x, -y, -z'
7 'x, y, -z'
8 '-x, -y, -z'
9 '-y, -x, z'
10 'y, x, z'
11 'y, -x, z'
12 '-y, x, z'
13 'x, -y, z'
14 '-x, y, z'
15 '-x, -y, z'
16 'x, y, z'
17 'y+1/2, x+1/2, -z+1/2'
18 '-y+1/2, -x+1/2, -z+1/2'
19 '-y+1/2, x+1/2, -z+1/2'
20 'y+1/2, -x+1/2, -z+1/2'
21 '-x+1/2, y+1/2, -z+1/2'
22 'x+1/2, -y+1/2, -z+1/2'
23 'x+1/2, y+1/2, -z+1/2'
24 '-x+1/2, -y+1/2, -z+1/2'
25 '-y+1/2, -x+1/2, z+1/2'
26 'y+1/2, x+1/2, z+1/2'
27 'y+1/2, -x+1/2, z+1/2'
28 '-y+1/2, x+1/2, z+1/2'
29 'x+1/2, -y+1/2, z+1/2'
30 '-x+1/2, y+1/2, z+1/2'
31 '-x+1/2, -y+1/2, z+1/2'
32 'x+1/2, y+1/2, z+1/2'
loop_
_atom_type_symbol
_atom_type_oxidation_number
Na1+ 1
O2- -2
I1- -1
loop_
_atom_site_label
_atom_site_type_symbol
_atom_site_symmetry_multiplicity
_atom_site_Wyckoff_symbol
_atom_site_fract_x
_atom_site_fract_y
_atom_site_fract_z
_atom_site_B_iso_or_equiv
_atom_site_occupancy
_atom_site_attached_hydrogens
Na1 Na1+ 4 c 0 0.5 0 . 1. 0
Na2 Na1+ 4 e 0 0 0.1429(6) . 1. 0
O1 O2- 2 a 0 0 0 . 1. 0
I1 I1- 4 e 0 0 0.3467(1) . 1. 0
loop_
_atom_site_aniso_label
_atom_site_aniso_type_symbol
_atom_site_aniso_U_11
_atom_site_aniso_U_22
_atom_site_aniso_U_33
_atom_site_aniso_U_12
_atom_site_aniso_U_13
_atom_site_aniso_U_23
Na1 Na1+ 0.02459(330) 0.01492(289) 0.03550(557) 0 0 0
Na2 Na1+ 0.02979(215) 0.02979(215) 0.02195(525) 0 0 0
O1 O2- 0.02361(488) 0.02361(488) 0.00888(1045) 0 0 0
I1 I1- 0.01974(47) 0.01974(47) 0.02145(86) 0 0 0
#End of TTdata_67112-ICSD