
#(C) 2019 by FIZ Karlsruhe - Leibniz Institute for Information Infrastructure.  All rights reserved.
data_67140-ICSD
_database_code_ICSD 67140
_audit_creation_date 1990-12-27
_chemical_name_systematic 'Sodium vanadium 12-oxo-octahedro-niobate dioxide'
_chemical_formula_structural 'Na (V.942 Nb.152) (Nb6 O12) O2'
_chemical_formula_sum 'Na1 Nb6.152 O14 V0.942'
_exptl_crystal_density_diffrn 5.05
_publ_section_title
'Na(V3-xNbx)Nb6O14 - ein neues Oxoniobat mit (Nb6 O12) - und (M2O9)-Clustern'
loop_
_citation_id
_citation_journal_full
_citation_year
_citation_journal_volume
_citation_page_first
_citation_page_last
_citation_journal_id_ASTM
primary 'Zeitschrift fuer Anorganische und Allgemeine Chemie (1950) (DE)' 1989
568 8 21 ZAACAB
loop_
_publ_author_name
'Koehler, J.'
'Miller, G.'
'Simon, A.'
_cell_length_a 6.034(1)
_cell_length_b 6.034(1)
_cell_length_c 18.079(5)
_cell_angle_alpha 90.
_cell_angle_beta 90.
_cell_angle_gamma 120.
_cell_volume 570.05
_cell_formula_units_Z 2
_symmetry_space_group_name_H-M 'P 63/m'
_symmetry_Int_Tables_number 176
_refine_ls_R_factor_all 0.0288
loop_
_symmetry_equiv_pos_site_id
_symmetry_equiv_pos_as_xyz
1 '-x+y, -x, -z+1/2'
2 '-y, x-y, -z+1/2'
3 'x, y, -z+1/2'
4 'x-y, x, -z'
5 'y, -x+y, -z'
6 '-x, -y, -z'
7 'x-y, x, z+1/2'
8 'y, -x+y, z+1/2'
9 '-x, -y, z+1/2'
10 '-x+y, -x, z'
11 '-y, x-y, z'
12 'x, y, z'
loop_
_atom_type_symbol
_atom_type_oxidation_number
Na1+ 1
Nb3+ 3.8
V3+ 3.8
O2- -2
loop_
_atom_site_label
_atom_site_type_symbol
_atom_site_symmetry_multiplicity
_atom_site_Wyckoff_symbol
_atom_site_fract_x
_atom_site_fract_y
_atom_site_fract_z
_atom_site_B_iso_or_equiv
_atom_site_occupancy
_atom_site_attached_hydrogens
Na1 Na1+ 2 a 0 0 0.25 . 1. 0
Nb1 Nb3+ 12 i 0.3086(1) 0.1542(1) 0.0638(1) . 1. 0
Nb2 Nb3+ 2 d 0.6667 0.3333 0.25 . 0.152(1) 0
V1 V3+ 4 f 0.6667 0.3333 0.8208(1) . 0.471(2) 0
O1 O2- 12 i 0.1638(10) 0.3280(8) 0.1287(2) . 1. 0
O2 O2- 4 f 0.6667 0.3333 0.1355(5) . 1. 0
O3 O2- 6 g 0.5 0.5 0 . 1. 0
O4 O2- 6 h 0.0219(11) 0.5098(16) 0.25 . 1. 0
loop_
_atom_site_aniso_label
_atom_site_aniso_type_symbol
_atom_site_aniso_U_11
_atom_site_aniso_U_22
_atom_site_aniso_U_33
_atom_site_aniso_U_12
_atom_site_aniso_U_13
_atom_site_aniso_U_23
Na1 Na1+ 0.0650(34) 0.0650(34) 0.0558(40) 0.0325(17) 0 0
Nb1 Nb3+ 0.0070(3) 0.0076(3) 0.0073(3) 0.0038(2) 0.0000(2) 0.0000(2)
Nb2 Nb3+ 0.0102(5) 0.0102(5) 0.0096(7) 0.0051(3) 0 0
V1 V3+ 0.0084(5) 0.0084(5) 0.0181(6) 0.0042(3) 0 0
O1 O2- 0.0105(21) 0.0118(22) 0.0117(18) 0.0053(18) 0.0000(19) -.0019(16)
O2 O2- 0.0134(23) 0.0134(23) 0.0116(29) 0.0067(11) 0 0
O3 O2- 0.0102(27) 0.0060(25) 0.0129(24) 0.0033(21) -.0033(24) -.0019(24)
O4 O2- 0.0046(27) 0.0239(31) 0.0117(24) 0.0048(25) 0 0
#End of TTdata_67140-ICSD