
#(C) 2019 by FIZ Karlsruhe - Leibniz Institute for Information Infrastructure.  All rights reserved.
data_67160-ICSD
_database_code_ICSD 67160
_audit_creation_date 1990-12-27
_audit_update_record 1999-11-30
_chemical_name_systematic 'Dicesium sodium hexafluorotitanate(III)'
_chemical_formula_structural 'Cs2 Na (Ti F6)'
_chemical_formula_sum 'Cs2 F6 Na1 Ti1'
_chemical_name_structure_type Ba2InCuO6
_exptl_crystal_density_diffrn 4.28
_publ_section_title
'Neues ueber Cs2 Na (Ti F6) Ein weiterer Vertreter der 6-Layer-Struktur'
loop_
_citation_id
_citation_journal_full
_citation_year
_citation_journal_volume
_citation_page_first
_citation_page_last
_citation_journal_id_ASTM
primary 'Zeitschrift fuer Anorganische und Allgemeine Chemie (1950) (DE)' 1989
579 16 26 ZAACAB
loop_
_publ_author_name
'Becker, S.'
'Hoppe, R.'
_cell_length_a 6.2879(9)
_cell_length_b 6.2879(9)
_cell_length_c 15.309(3)
_cell_angle_alpha 90.
_cell_angle_beta 90.
_cell_angle_gamma 120.
_cell_volume 524.19
_cell_formula_units_Z 3
_symmetry_space_group_name_H-M 'P -3 m 1'
_symmetry_Int_Tables_number 164
_refine_ls_R_factor_all 0.0427
loop_
_symmetry_equiv_pos_site_id
_symmetry_equiv_pos_as_xyz
1 'x-y, -y, -z'
2 '-x, -x+y, -z'
3 'y, x, -z'
4 'x-y, x, -z'
5 'y, -x+y, -z'
6 '-x, -y, -z'
7 '-x+y, y, z'
8 'x, x-y, z'
9 '-y, -x, z'
10 '-x+y, -x, z'
11 '-y, x-y, z'
12 'x, y, z'
loop_
_atom_type_symbol
_atom_type_oxidation_number
Cs1+ 1
Ti3+ 3
Na1+ 1
F1- -1
loop_
_atom_site_label
_atom_site_type_symbol
_atom_site_symmetry_multiplicity
_atom_site_Wyckoff_symbol
_atom_site_fract_x
_atom_site_fract_y
_atom_site_fract_z
_atom_site_B_iso_or_equiv
_atom_site_occupancy
_atom_site_attached_hydrogens
Cs1 Cs1+ 2 c 0 0 0.2479 . 1. 0
Cs2 Cs1+ 2 d 0.3333 0.6667 0.0891 . 1. 0
Cs3 Cs1+ 2 d 0.6667 0.3333 0.6059 . 1. 0
Ti1 Ti3+ 2 d 0.6667 0.3333 0.1603(1) . 1. 0
Ti2 Ti3+ 1 b 0 0 0.5 . 1. 0
Na1 Na1+ 1 a 0 0 0 . 1. 0
Na2 Na1+ 2 d 0.6667 0.3333 0.3587(3) . 1. 0
F1 F1- 6 i 0.5241(3) -.5241(3) 0.2407(2) . 1. 0
F2 F1- 6 i -.1837(3) 0.1837(3) 0.0878(2) . 1. 0
F3 F1- 6 i 0.1496(3) -.1496(3) 0.5734(2) . 1. 0
loop_
_atom_site_aniso_label
_atom_site_aniso_type_symbol
_atom_site_aniso_U_11
_atom_site_aniso_U_22
_atom_site_aniso_U_33
_atom_site_aniso_U_12
_atom_site_aniso_U_13
_atom_site_aniso_U_23
Cs1 Cs1+ 0.0164(2) 0.0164(2) 0.0186(4) 0.0082(1) 0 0
Cs2 Cs1+ 0.0153(2) 0.0153(2) 0.0196(4) 0.0077(1) 0 0
Cs3 Cs1+ 0.0168(2) 0.0168(2) 0.0268(4) 0.0084(1) 0 0
Ti1 Ti3+ 0.0116(5) 0.0116(5) 0.0098(10) 0.0058(2) 0 0
Ti2 Ti3+ 0.0112(6) 0.0112(6) 0.0075(13) 0.0056(3) 0 0
Na1 Na1+ 0.0241(18) 0.0241(18) 0.0130(31) 0.0120(9) 0 0
Na2 Na1+ 0.0161(11) 0.0161(11) 0.0252(25) 0.0080(6) 0 0
F1 F1- 0.0208(12) 0.0208(12) 0.0195(21) 0.0137(14) 0.0020(7) -.0020(7)
F2 F1- 0.0207(12) 0.0207(12) 0.0210(21) 0.0121(14) 0.0030(7) -.0030(7)
F3 F1- 0.0240(11) 0.0240(13) 0.0236(22) 0.0150(15) -.0034(7) 0.0034(7)
#End of TTdata_67160-ICSD