
#(C) 2018 by FIZ Karlsruhe - Leibniz Institute for Information Infrastructure.  All rights reserved.
data_67205-ICSD
_database_code_ICSD 67205
_audit_creation_date 1990-12-27
_audit_update_record 1996-04-22
_chemical_name_systematic 'Dilithium copper oxide'
_chemical_formula_structural 'Li2 Cu O2'
_chemical_formula_sum 'Cu1 Li2 O2'
_chemical_name_structure_type Li2CuO2
_exptl_crystal_density_diffrn 3.69
_cell_measurement_temperature 290.
_publ_section_title 'Crystal and magnetic structure of Li2 Cu O2'
loop_
_citation_id
_citation_journal_full
_citation_year
_citation_journal_volume
_citation_page_first
_citation_page_last
_citation_journal_id_ASTM
primary 'Solid State Communications' 1990 74 779 784 SSCOA4
loop_
_publ_author_name
'Sapina, F.'
'Rodriguez Carvajal, J.'
'Sanchis, M.J.'
'Ibanez, R.'
'Beltran, A.'
'Beltran, D.'
_cell_length_a 3.66153(5)
_cell_length_b 2.86277(2)
_cell_length_c 9.39258(9)
_cell_angle_alpha 90.
_cell_angle_beta 90.
_cell_angle_gamma 90.
_cell_volume 98.45
_cell_formula_units_Z 2
_symmetry_space_group_name_H-M 'I m m m'
_symmetry_Int_Tables_number 71
_refine_ls_R_factor_all 0.0349
loop_
_symmetry_equiv_pos_site_id
_symmetry_equiv_pos_as_xyz
1 'x, y, -z'
2 'x, -y, z'
3 '-x, y, z'
4 '-x, -y, -z'
5 '-x, -y, z'
6 '-x, y, -z'
7 'x, -y, -z'
8 'x, y, z'
9 'x+1/2, y+1/2, -z+1/2'
10 'x+1/2, -y+1/2, z+1/2'
11 '-x+1/2, y+1/2, z+1/2'
12 '-x+1/2, -y+1/2, -z+1/2'
13 '-x+1/2, -y+1/2, z+1/2'
14 '-x+1/2, y+1/2, -z+1/2'
15 'x+1/2, -y+1/2, -z+1/2'
16 'x+1/2, y+1/2, z+1/2'
loop_
_atom_type_symbol
_atom_type_oxidation_number
Li1+ 1
Cu2+ 2
O2- -2
loop_
_atom_site_label
_atom_site_type_symbol
_atom_site_symmetry_multiplicity
_atom_site_Wyckoff_symbol
_atom_site_fract_x
_atom_site_fract_y
_atom_site_fract_z
_atom_site_B_iso_or_equiv
_atom_site_occupancy
_atom_site_attached_hydrogens
Li1 Li1+ 4 j 0.5 0 0.2869(3) . 1. 0
Cu1 Cu2+ 2 b 0 0.5 0.5 . 1. 0
O1 O2- 4 i 0 0 0.3578(1) . 1. 0
loop_
_atom_site_aniso_label
_atom_site_aniso_type_symbol
_atom_site_aniso_beta_11
_atom_site_aniso_beta_22
_atom_site_aniso_beta_33
_atom_site_aniso_beta_12
_atom_site_aniso_beta_13
_atom_site_aniso_beta_23
Li1 Li1+ 0.0075(19) 0.0198(22) 0.0024(3) 0 0 0
Cu1 Cu2+ 0.0102(8) 0.0069(10) 0.0018(1) 0 0 0
O1 O2- 0.0130(8) 0.0125(10) 0.0012(1) 0 0 0
#End of TTdata_67205-ICSD