
#(C) 2019 by FIZ Karlsruhe - Leibniz Institute for Information Infrastructure.  All rights reserved.
data_67249-ICSD
_database_code_ICSD 67249
_audit_creation_date 1990-12-27
_chemical_name_systematic 'Disodium tetrafluorocuprate'
_chemical_formula_structural 'Na2 Cu F4'
_chemical_formula_sum 'Cu1 F4 Na2'
_chemical_name_structure_type Na2CuF4
_exptl_crystal_density_diffrn 3.59
_publ_section_title

;
Die Jahn-Teller-Verzerrung in den Kristallstrukturen der
Dinatrium-Tetrafluorometallate Na2CuF4 und Na/2CrF4
;
loop_
_citation_id
_citation_journal_full
_citation_year
_citation_journal_volume
_citation_page_first
_citation_page_last
_citation_journal_id_ASTM
primary 'Zeitschrift fuer Naturforschung, B: A Journal of Chemical Sciences'
1989 44 715 720 ZNBSEN
loop_
_publ_author_name
'Babel, D.'
'Otto, M.'
_cell_length_a 3.267(1)
_cell_length_b 9.370(2)
_cell_length_c 5.612(1)
_cell_angle_alpha 90.
_cell_angle_beta 92.49(1)
_cell_angle_gamma 90.
_cell_volume 171.63
_cell_formula_units_Z 2
_symmetry_space_group_name_H-M 'P 1 21/c 1'
_symmetry_Int_Tables_number 14
_refine_ls_R_factor_all 0.0238
loop_
_symmetry_equiv_pos_site_id
_symmetry_equiv_pos_as_xyz
1 'x, -y+1/2, z+1/2'
2 '-x, -y, -z'
3 '-x, y+1/2, -z+1/2'
4 'x, y, z'
loop_
_atom_type_symbol
_atom_type_oxidation_number
Na1+ 1
Cu2+ 2
F1- -1
loop_
_atom_site_label
_atom_site_type_symbol
_atom_site_symmetry_multiplicity
_atom_site_Wyckoff_symbol
_atom_site_fract_x
_atom_site_fract_y
_atom_site_fract_z
_atom_site_B_iso_or_equiv
_atom_site_occupancy
_atom_site_attached_hydrogens
Na1 Na1+ 4 e 0.5137(4) 0.1825(2) 0.4230(2) . 1. 0
Cu1 Cu2+ 2 a 0 0 0 . 1. 0
F1 F1- 4 e 0.5671(6) 0.4500(2) 0.2680(4) . 1. 0
F2 F1- 4 e 0.0073(6) 0.1881(2) 0.1283(3) . 1. 0
loop_
_atom_site_aniso_label
_atom_site_aniso_type_symbol
_atom_site_aniso_U_11
_atom_site_aniso_U_22
_atom_site_aniso_U_33
_atom_site_aniso_U_12
_atom_site_aniso_U_13
_atom_site_aniso_U_23
Na1 Na1+ 0.0075(4) 0.0139(4) 0.0079(4) -.0016(3) -.0024(2) 0.0006(3)
Cu1 Cu2+ 0.0126(8) 0.0241(9) 0.0106(8) -.0016(6) -.0016(5) -.0008(6)
F1 F1- 0.0109(11) 0.0199(11) 0.0115(11) -.0028(8) -.0024(8) 0.0002(8)
F2 F1- 0.0106(11) 0.0169(12) 0.0117(11) -.0010(7) -.0009(7) 0.0002(8)
#End of TTdata_67249-ICSD