
#(C) 2019 by FIZ Karlsruhe - Leibniz Institute for Information Infrastructure.  All rights reserved.
data_67250-ICSD
_database_code_ICSD 67250
_audit_creation_date 1990-12-27
_chemical_name_systematic 'Disodium tetrafluorochromate(II)'
_chemical_formula_structural 'Na2 Cr F4'
_chemical_formula_sum 'Cr1 F4 Na2'
_chemical_name_structure_type Na2CuF4
_exptl_crystal_density_diffrn 3.19
_publ_section_title

;
Die Jahn-Teller-Verzerrung in den Kristallstrukturen der
Dinatrium-Tetrafluorometallate Na2CuF4 und Na/2CrF4
;
loop_
_citation_id
_citation_journal_full
_citation_year
_citation_journal_volume
_citation_page_first
_citation_page_last
_citation_journal_id_ASTM
primary 'Zeitschrift fuer Naturforschung, B: A Journal of Chemical Sciences'
1989 44 715 720 ZNBSEN
loop_
_publ_author_name
'Babel, D.'
'Otto, M.'
_cell_length_a 3.348(1)
_cell_length_b 9.549(2)
_cell_length_c 5.665(3)
_cell_angle_alpha 90.
_cell_angle_beta 92.85(3)
_cell_angle_gamma 90.
_cell_volume 180.89
_cell_formula_units_Z 2
_symmetry_space_group_name_H-M 'P 1 21/c 1'
_symmetry_Int_Tables_number 14
_refine_ls_R_factor_all 0.0565
loop_
_symmetry_equiv_pos_site_id
_symmetry_equiv_pos_as_xyz
1 'x, -y+1/2, z+1/2'
2 '-x, -y, -z'
3 '-x, y+1/2, -z+1/2'
4 'x, y, z'
loop_
_atom_type_symbol
_atom_type_oxidation_number
Na1+ 1
Cr2+ 2
F1- -1
loop_
_atom_site_label
_atom_site_type_symbol
_atom_site_symmetry_multiplicity
_atom_site_Wyckoff_symbol
_atom_site_fract_x
_atom_site_fract_y
_atom_site_fract_z
_atom_site_B_iso_or_equiv
_atom_site_occupancy
_atom_site_attached_hydrogens
Na1 Na1+ 4 e 0.5128(7) 0.1826(2) 0.4272(3) . 1. 0
Cr1 Cr2+ 2 a 0 0 0 . 1. 0
F1 F1- 4 e 0.5627(9) 0.4507(3) 0.2619(5) . 1. 0
F2 F1- 4 e 0.0061(9) 0.1922(3) 0.1367(5) . 1. 0
loop_
_atom_site_aniso_label
_atom_site_aniso_type_symbol
_atom_site_aniso_U_11
_atom_site_aniso_U_22
_atom_site_aniso_U_33
_atom_site_aniso_U_12
_atom_site_aniso_U_13
_atom_site_aniso_U_23
Na1 Na1+ 0.0102(6) 0.0093(6) 0.0105(6) -.0017(6) -.0011(4) 0.0005(7)
Cr1 Cr2+ 0.0207(13) 0.0203(12) 0.0148(12) -.0015(9) -.0015(10) 0.0014(11)
F1 F1- 0.0165(18) 0.0187(17) 0.0165(17) -.0050(14) -.0018(14) 0.0008(14)
F2 F1- 0.0189(19) 0.0100(16) 0.0162(17) -.0021(13) 0.0001(14) 0.0014(15)
#End of TTdata_67250-ICSD