
#(C) 2019 by FIZ Karlsruhe - Leibniz Institute for Information Infrastructure.  All rights reserved.
data_67315-ICSD
_database_code_ICSD 67315
_audit_creation_date 1990-12-27
_chemical_name_systematic 'Disodium calcium cyclo-hexagermanate'
_chemical_formula_structural 'Na6 Ca3 (Ge6 O18)'
_chemical_formula_sum 'Ca3 Ge6 Na6 O18'
_exptl_crystal_density_diffrn 3.6
_publ_section_title 'Structure of sodium calcium germanate Na2CaGe2O6'
loop_
_citation_id
_citation_journal_full
_citation_year
_citation_journal_volume
_citation_page_first
_citation_page_last
_citation_journal_id_ASTM
primary 'Acta Crystallographica, Section C: Crystal Structure Communications'
1990 46 544 546 ACSCEE
loop_
_publ_author_name
'Nishi, F.'
'Takeuchi, Y.'
_cell_length_a 10.788(2)
_cell_length_b 10.788(2)
_cell_length_c 13.460(2)
_cell_angle_alpha 90.
_cell_angle_beta 90.
_cell_angle_gamma 120.
_cell_volume 1356.62
_cell_formula_units_Z 3
_symmetry_space_group_name_H-M 'R -3 m H'
_symmetry_Int_Tables_number 166
_refine_ls_R_factor_all 0.051
loop_
_symmetry_equiv_pos_site_id
_symmetry_equiv_pos_as_xyz
1 'x-y, -y, -z'
2 '-x, -x+y, -z'
3 'y, x, -z'
4 'x-y, x, -z'
5 'y, -x+y, -z'
6 '-x, -y, -z'
7 '-x+y, y, z'
8 'x, x-y, z'
9 '-y, -x, z'
10 '-x+y, -x, z'
11 '-y, x-y, z'
12 'x, y, z'
13 'x-y+2/3, -y+1/3, -z+1/3'
14 '-x+2/3, -x+y+1/3, -z+1/3'
15 'y+2/3, x+1/3, -z+1/3'
16 'x-y+2/3, x+1/3, -z+1/3'
17 'y+2/3, -x+y+1/3, -z+1/3'
18 '-x+2/3, -y+1/3, -z+1/3'
19 '-x+y+2/3, y+1/3, z+1/3'
20 'x+2/3, x-y+1/3, z+1/3'
21 '-y+2/3, -x+1/3, z+1/3'
22 '-x+y+2/3, -x+1/3, z+1/3'
23 '-y+2/3, x-y+1/3, z+1/3'
24 'x+2/3, y+1/3, z+1/3'
25 'x-y+1/3, -y+2/3, -z+2/3'
26 '-x+1/3, -x+y+2/3, -z+2/3'
27 'y+1/3, x+2/3, -z+2/3'
28 'x-y+1/3, x+2/3, -z+2/3'
29 'y+1/3, -x+y+2/3, -z+2/3'
30 '-x+1/3, -y+2/3, -z+2/3'
31 '-x+y+1/3, y+2/3, z+2/3'
32 'x+1/3, x-y+2/3, z+2/3'
33 '-y+1/3, -x+2/3, z+2/3'
34 '-x+y+1/3, -x+2/3, z+2/3'
35 '-y+1/3, x-y+2/3, z+2/3'
36 'x+1/3, y+2/3, z+2/3'
loop_
_atom_type_symbol
_atom_type_oxidation_number
Ge4+ 4
Ca2+ 2
Na1+ 1
Ca2+ 2
Na1+ 1
Ca2+ 2
Na1+ 1
Ca2+ 2
Na1+ 1
O2- -2
loop_
_atom_site_label
_atom_site_type_symbol
_atom_site_symmetry_multiplicity
_atom_site_Wyckoff_symbol
_atom_site_fract_x
_atom_site_fract_y
_atom_site_fract_z
_atom_site_B_iso_or_equiv
_atom_site_occupancy
_atom_site_attached_hydrogens
Ge1 Ge4+ 18 h 0.15040(5) -.15040(5) 0.56698(5) . 1. 0
Ca1 Ca2+ 6 c 0 0 0.2473(3) . 0.35(1) 0
Na1 Na1+ 6 c 0 0 0.2473(3) . 0.65(1) 0
Ca2 Ca2+ 9 e 0.5 0 0 . 0.10(2) 0
Na2 Na1+ 9 e 0.5 0 0 . 0.90(2) 0
Ca3 Ca2+ 9 d 0.5 0 0.5 . 0.39(1) 0
Na3 Na1+ 9 d 0.5 0 0.5 . 0.61(1) 0
Ca4 Ca2+ 3 a 0 0 0 . 0.84(2) 0
Na4 Na1+ 3 a 0 0 0 . 0.16(2) 0
O1 O2- 36 i 0.2783(11) 0.0235(12) 0.5267(7) 3.0(2) 0.5 0
O2 O2- 36 i 0.0826(7) -.1451(7) 0.6799(5) 2.0(1) 0.5 0
O3 O2- 36 i 0.2697(9) -.2129(9) 0.5525(6) 2.7(2) 0.5 0
loop_
_atom_site_aniso_label
_atom_site_aniso_type_symbol
_atom_site_aniso_beta_11
_atom_site_aniso_beta_22
_atom_site_aniso_beta_33
_atom_site_aniso_beta_12
_atom_site_aniso_beta_13
_atom_site_aniso_beta_23
Ge1 Ge4+ 0.00323(5) 0.00323(5) 0.00126(3) 0.00057(6) -.00008(2) 0.00008(2)
Ca1 Ca2+ 0.0056(2) 0.0056(2) 0.0026(2) 0.0028(1) 0 0
Na1 Na1+ 0.0056(2) 0.0056(2) 0.0026(2) 0.0028(1) 0 0
Ca2 Ca2+ 0.0111(5) 0.0187(12) 0.0035(3) 0.0093(6) 0.0016(2) 0.0033(4)
Na2 Na1+ 0.0111(5) 0.0187(12) 0.0035(3) 0.0093(6) 0.0016(2) 0.0033(4)
Ca3 Ca2+ 0.0072(3) 0.0095(4) 0.0022(1) 0.0047(2) -.0007(1) -.0014(2)
Na3 Na1+ 0.0072(3) 0.0095(4) 0.0022(1) 0.0047(2) -.0007(1) -.0014(2)
Ca4 Ca2+ 0.0089(3) 0.0089(3) 0.0014(1) 0.0044(2) 0 0
Na4 Na1+ 0.0089(3) 0.0089(3) 0.0014(1) 0.0044(2) 0 0
#End of TTdata_67315-ICSD