
#(C) 2019 by FIZ Karlsruhe - Leibniz Institute for Information Infrastructure.  All rights reserved.
data_67415-ICSD
_database_code_ICSD 67415
_audit_creation_date 1991-07-10
_chemical_name_systematic 'Sodium molybdenum arsenic oxide (2/1.9/.08/7)'
_chemical_formula_structural 'Na2 Mo1.922 As.078 O7'
_chemical_formula_sum 'As0.078 Mo1.922 Na2 O7'
_chemical_name_structure_type Na2Mo2O7
_exptl_crystal_density_diffrn 3.69
_publ_section_title

;
The structure of the compounds Na24As2Z22O83 and its relationship to the
structure of Na2Z2O7 (Z = Mo, W)
;
loop_
_citation_id
_citation_journal_full
_citation_year
_citation_journal_volume
_citation_page_first
_citation_page_last
_citation_journal_id_ASTM
primary 'Collection of Czechoslovak Chemical Communications' 1989 54 645 652
CCCCAK
loop_
_publ_author_name
'Dratovsky, M.'
'Novak, C.'
'Petricek, V.'
'Stengl, V.'
_cell_length_a 7.181(5)
_cell_length_b 11.847(3)
_cell_length_c 14.722(9)
_cell_angle_alpha 90.
_cell_angle_beta 90.
_cell_angle_gamma 90.
_cell_volume 1252.45
_cell_formula_units_Z 8
_symmetry_space_group_name_H-M 'C m c a'
_symmetry_Int_Tables_number 64
_refine_ls_R_factor_all 0.027
loop_
_symmetry_equiv_pos_site_id
_symmetry_equiv_pos_as_xyz
1 '-x, -y+1/2, z+1/2'
2 '-x, y+1/2, -z+1/2'
3 '-x, y, z'
4 '-x, -y, -z'
5 'x, y+1/2, -z+1/2'
6 'x, -y+1/2, z+1/2'
7 'x, -y, -z'
8 'x, y, z'
9 '-x+1/2, -y, z+1/2'
10 '-x+1/2, y, -z+1/2'
11 '-x+1/2, y+1/2, z'
12 '-x+1/2, -y+1/2, -z'
13 'x+1/2, y, -z+1/2'
14 'x+1/2, -y, z+1/2'
15 'x+1/2, -y+1/2, -z'
16 'x+1/2, y+1/2, z'
loop_
_atom_type_symbol
_atom_type_oxidation_number
Mo6+ 6
As5+ 5
Na1+ 1
O2- -2
loop_
_atom_site_label
_atom_site_type_symbol
_atom_site_symmetry_multiplicity
_atom_site_Wyckoff_symbol
_atom_site_fract_x
_atom_site_fract_y
_atom_site_fract_z
_atom_site_B_iso_or_equiv
_atom_site_occupancy
_atom_site_attached_hydrogens
Mo1 Mo6+ 8 e 0.25 0.08185(3) 0.25 0.58(1) 1. 0
Mo2 Mo6+ 8 f 0 0.24635(3) 0.08478(3) 0.59(1) 0.922(10) 0
As1 As5+ 8 f 0 0.24635(3) 0.08478(3) 0.59(1) 0.078 0
Na1 Na1+ 8 d 0.2484(2) 0 0 1.30(5) 1. 0
Na2 Na1+ 8 f 0 0.3177(2) 0.3430(2) 1.41(5) 1. 0
O1 O2- 16 g 0.2015(4) 0.2311(2) 0.1551(2) 1.02(5) 1. 0
O2 O2- 16 g 0.1997(4) 0.4919(3) 0.3375(2) 1.23(5) 1. 0
O3 O2- 8 f 0 0.1216(3) 0.2825(2) 7.87(1) 1. 0
O4 O2- 8 f 0 0.3759(3) 0.0316(3) 1.31(8) 1. 0
O5 O2- 8 f 0 0.3594(3) 0.5021(3) 1.28(7) 1. 0
#End of TTdata_67415-ICSD