
#(C) 2019 by FIZ Karlsruhe - Leibniz Institute for Information Infrastructure.  All rights reserved.
data_67461-ICSD
_database_code_ICSD 67461
_audit_creation_date 1992-08-20
_audit_update_record 2012-08-01
_chemical_name_systematic 'Disodium manganese gallium fluoride'
_chemical_formula_structural 'Na2 Mn Ga F7'
_chemical_formula_sum 'F7 Ga1 Mn1 Na2'
_chemical_name_structure_type Mn2Sb2O7
_exptl_crystal_density_diffrn 3.53
_publ_section_title
'On trigonal weberites: structure refinement of Na2MnCrF7 and Na2MnGaF7'
loop_
_citation_id
_citation_journal_full
_citation_year
_citation_journal_volume
_citation_page_first
_citation_page_last
_citation_journal_id_ASTM
primary 'European Journal of Solid State and Inorganic Chemistry' 1988 25 435
447 EJSCE5
loop_
_publ_author_name
'Courbion, G.'
'Ferey, G.'
'Holler, H.'
'Babel, D.'
_cell_length_a 7.401(1)
_cell_length_b 7.401(1)
_cell_length_c 18.091(2)
_cell_angle_alpha 90.
_cell_angle_beta 90.
_cell_angle_gamma 120.
_cell_volume 858.17
_cell_formula_units_Z 6
_symmetry_space_group_name_H-M 'P 31 2 1'
_symmetry_Int_Tables_number 152
_refine_ls_R_factor_all 0.044
loop_
_symmetry_equiv_pos_site_id
_symmetry_equiv_pos_as_xyz
1 'x-y, -y, -z+2/3'
2 '-x, -x+y, -z+1/3'
3 'y, x, -z'
4 '-x+y, -x, z+2/3'
5 '-y, x-y, z+1/3'
6 'x, y, z'
loop_
_atom_type_symbol
_atom_type_oxidation_number
Na1+ 1
Mn2+ 2
Ga3+ 3
F1- -1
loop_
_atom_site_label
_atom_site_type_symbol
_atom_site_symmetry_multiplicity
_atom_site_Wyckoff_symbol
_atom_site_fract_x
_atom_site_fract_y
_atom_site_fract_z
_atom_site_B_iso_or_equiv
_atom_site_occupancy
_atom_site_attached_hydrogens
Na1 Na1+ 6 c 0.5011(6) 0.8743(4) 0.6686(1) . 1. 0
Na2 Na1+ 3 a 0.8500(9) 0 0.3333 . 1. 0
Na3 Na1+ 3 b 0.8510(8) 0 0.8333 . 1. 0
Mn1 Mn2+ 6 c 0.4961(2) 0.8372(2) 0.1708 . 1. 0
Ga1 Ga3+ 3 a 0.3159(1) 0 0.3333 . 1. 0
Ga2 Ga3+ 3 b 0.3387(1) 0 0.8333 . 1. 0
F1 F1- 6 c 0.7668(5) 0.2013(8) 0.6038(2) . 1. 0
F2 F1- 6 c 0.7934(8) 0.9340(5) 0.9474(2) . 1. 0
F3 F1- 6 c 0.5643(8) 0.4287(5) 0.0526(2) . 1. 0
F4 F1- 6 c 0.8089(4) 0.4292(4) 0.1908(2) . 1. 0
F5 F1- 6 c 0.0757(4) 0.3791(5) 0.2676(1) . 1. 0
F6 F1- 6 c 0.1918(4) 0.2483(4) 0.1429(2) . 1. 0
F7 F1- 6 c 0.0482(4) 0.4266(4) 0.8767(1) . 1. 0
loop_
_atom_site_aniso_label
_atom_site_aniso_type_symbol
_atom_site_aniso_U_11
_atom_site_aniso_U_22
_atom_site_aniso_U_33
_atom_site_aniso_U_12
_atom_site_aniso_U_13
_atom_site_aniso_U_23
Na1 Na1+ 0.0414(12) 0.0317(14) 0.0396(10) 0.0233(12) 0.0027(9) -.0077(9)
Na2 Na1+ 0.0689(21) 0.0932(36) 0.0716(28) 0.0466(18) 0.0063(14) 0.0127(27)
Na3 Na1+ 0.0704(22) 0.1136(37) 0.0384(18) 0.0568(19) 0.0195(11) 0.0389(23)
Mn1 Mn2+ 0.0091(2) 0.0088(2) 0.0126(1) 0.0041(2) -.0004(2) -.0004(2)
Ga1 Ga3+ 0.0203(2) 0.0135(3) 0.0085(1) 0.0068(1) 0.0004(1) 0.0008(2)
Ga2 Ga3+ 0.0111(2) 0.0085(2) 0.0184(2) 0.0042(1) 0.0010(1) 0.0019(2)
F1 F1- 0.0342(14) 0.0497(22) 0.0270(14) 0.0134(18) -.0169(11) -.0071(18)
F2 F1- 0.0539(23) 0.0347(13) 0.0276(13) 0.0277(18) 0.0020(18) 0.0107(10)
F3 F1- 0.0536(26) 0.0391(15) 0.0317(15) 0.0273(20) 0.0110(19) 0.0150(12)
F4 F1- 0.0196(14) 0.0347(15) 0.0447(16) 0.0190(13) -.0054(12) 0.0200(13)
F5 F1- 0.027(1) 0.0344(14) 0.0267(11) 0.0188(11) -.0101(8) -.0122(12)
F6 F1- 0.0190(13) 0.0316(13) 0.0399(15) 0.0166(11) -.0011(12) -.0040(11)
F7 F1- 0.0195(12) 0.0345(12) 0.0382(13) 0.0162(11) 0.0018(11) 0.0057(10)
#End of TTdata_67461-ICSD