
#(C) 2019 by FIZ Karlsruhe - Leibniz Institute for Information Infrastructure.  All rights reserved.
data_67492-ICSD
_database_code_ICSD 67492
_audit_creation_date 1993-08-22
_chemical_name_systematic 'Sodium bismuth molybdate (0.32/0.56/1)'
_chemical_formula_structural 'Na0.32 Bi0.56 (Mo O4)'
_chemical_formula_sum 'Bi0.56 Mo1 Na0.32 O4'
_chemical_name_structure_type Scheelite-CaWO4
_exptl_crystal_density_diffrn 5.82
_publ_section_title

;
Refinement of some Na0.5-xM'0.5+x/3 2x/3MoO4, M = Bi, Ce, La, Scheelite
Structures with Powder Neutron and X-Ray Diffraction Data
;
loop_
_citation_id
_citation_journal_full
_citation_year
_citation_journal_volume
_citation_page_first
_citation_page_last
_citation_journal_id_ASTM
primary 'Acta Crystallographica, Section C: Crystal Structure Communications'
1992 48 2101 2104 ACSCEE
loop_
_publ_author_name
'Teller, R.G.'
_cell_length_a 5.2785(1)
_cell_length_b 5.2785(1)
_cell_length_c 11.6410(2)
_cell_angle_alpha 90.
_cell_angle_beta 90.
_cell_angle_gamma 90.
_cell_volume 324.35
_cell_formula_units_Z 4
_symmetry_space_group_name_H-M 'I 41/a Z'
_symmetry_Int_Tables_number 88
_refine_ls_R_factor_all 0.048
loop_
_symmetry_equiv_pos_site_id
_symmetry_equiv_pos_as_xyz
1 '-y+3/4, x+3/4, -z+3/4'
2 'y+1/4, -x+3/4, -z+3/4'
3 'x, y+1/2, -z'
4 '-x, -y, -z'
5 'y+1/4, -x+1/4, z+1/4'
6 '-y+3/4, x+1/4, z+1/4'
7 '-x, -y+1/2, z'
8 'x, y, z'
9 '-y+1/4, x+1/4, -z+1/4'
10 'y+3/4, -x+1/4, -z+1/4'
11 'x+1/2, y, -z+1/2'
12 '-x+1/2, -y+1/2, -z+1/2'
13 'y+3/4, -x+3/4, z+3/4'
14 '-y+1/4, x+3/4, z+3/4'
15 '-x+1/2, -y, z+1/2'
16 'x+1/2, y+1/2, z+1/2'
loop_
_atom_type_symbol
_atom_type_oxidation_number
Na1+ 1
Bi3+ 3
Mo6+ 6
O2- -2
loop_
_atom_site_label
_atom_site_type_symbol
_atom_site_symmetry_multiplicity
_atom_site_Wyckoff_symbol
_atom_site_fract_x
_atom_site_fract_y
_atom_site_fract_z
_atom_site_B_iso_or_equiv
_atom_site_occupancy
_atom_site_attached_hydrogens
Na1 Na1+ 4 b 0 0.25 0.625 . 0.32 0
Bi1 Bi3+ 4 b 0 0.25 0.625 . 0.56 0
Mo1 Mo6+ 4 a 0 0.25 0.125 . 1. 0
O1 O2- 16 f 0.1483(2) 0.0083(2) 0.2074(1) . 1. 0
loop_
_atom_site_aniso_label
_atom_site_aniso_type_symbol
_atom_site_aniso_beta_11
_atom_site_aniso_beta_22
_atom_site_aniso_beta_33
_atom_site_aniso_beta_12
_atom_site_aniso_beta_13
_atom_site_aniso_beta_23
Na1 Na1+ 0.0100(6) 0.0100(6) 0.0038(2) 0 0 0
Bi1 Bi3+ 0.0100(6) 0.0100(6) 0.0038(2) 0 0 0
Mo1 Mo6+ 0.0061(5) 0.0061(5) 0.0014(2) 0 0 0
O1 O2- 0.0125(5) 0.0161(6) 0.0028(1) 0.0029(5) 0 0
#End of TTdata_67492-ICSD