
#(C) 2019 by FIZ Karlsruhe - Leibniz Institute for Information Infrastructure.  All rights reserved.
data_67539-ICSD
_database_code_ICSD 67539
_audit_creation_date 1993-08-22
_chemical_name_systematic
'Sodium potassium oxotitanium phosphate (.9/.1/1/1) - beta'
_chemical_formula_structural '(Na.95 K.05) (Ti O) (P O4)'
_chemical_formula_sum 'K0.05 Na0.95 O5 P1 Ti1'
_chemical_name_structure_type KTiOPO4
_exptl_crystal_density_diffrn 2.89
_publ_section_title
'Effects of substitution chemistry in the K Ti O P O4 structure field'
loop_
_citation_id
_citation_journal_full
_citation_year
_citation_journal_volume
_citation_page_first
_citation_page_last
_citation_journal_id_ASTM
primary 'Chemistry of Materials' 1992 4 222 233 CMATEX
loop_
_publ_author_name
'Phillips, M.L.F.'
'Harrison, W.T.A.'
'Stucky, G.D.'
'McCarron, E.M.'
'Calabrese, J.C.'
'Gier, T.E.'
_cell_length_a 12.611(2)
_cell_length_b 6.2810(9)
_cell_length_c 10.595(2)
_cell_angle_alpha 90.
_cell_angle_beta 90.(1)
_cell_angle_gamma 90.
_cell_volume 839.23
_cell_formula_units_Z 8
_symmetry_space_group_name_H-M 'P n a 21'
_symmetry_Int_Tables_number 33
_refine_ls_R_factor_all 0.0539
loop_
_symmetry_equiv_pos_site_id
_symmetry_equiv_pos_as_xyz
1 'x+1/2, -y+1/2, z'
2 '-x+1/2, y+1/2, z+1/2'
3 '-x, -y, z+1/2'
4 'x, y, z'
loop_
_atom_type_symbol
_atom_type_oxidation_number
Na1+ 1
K1+ 1
Na1+ 1
K1+ 1
Ti4+ 4
P5+ 5
O2- -2
loop_
_atom_site_label
_atom_site_type_symbol
_atom_site_symmetry_multiplicity
_atom_site_Wyckoff_symbol
_atom_site_fract_x
_atom_site_fract_y
_atom_site_fract_z
_atom_site_B_iso_or_equiv
_atom_site_occupancy
_atom_site_attached_hydrogens
Na1 Na1+ 4 a 0.3485(4) 0.7953(7) 0.2904(4) . 0.95 0
K1 K1+ 4 a 0.3485(4) 0.7953(7) 0.2904(4) . 0.05 0
Na2 Na1+ 4 a 0.1004(4) 0.747(1) 0.0800(5) . 0.95 0
K2 K1+ 4 a 0.1004(4) 0.747(1) 0.0800(5) . 0.05 0
Ti1 Ti4+ 4 a 0.3728(1) 0.5171(2) 0.0091(3) . 1. 0
Ti2 Ti4+ 4 a 0.23164(9) 0.2853(2) 0.2483(2) . 1. 0
P1 P5+ 4 a 0.4842(1) 0.3414(3) 0.2762(2) . 1. 0
P2 P5+ 4 a 0.1831(1) 0.5193(2) 0.5158(2) . 1. 0
O1 O2- 4 a 0.4754(5) 0.519(1) 0.1800(5) . 1. 0
O2 O2- 4 a 0.4960(5) 0.442(1) 0.4098(5) . 1. 0
O3 O2- 4 a 0.3839(4) 0.2019(9) 0.2799(5) . 1. 0
O4 O2- 4 a 0.5794(4) 0.1937(9) 0.2469(6) . 1. 0
O5 O2- 4 a 0.1164(5) 0.3263(9) 0.5522(5) . 1. 0
O6 O2- 4 a 0.1095(4) 0.7109(8) 0.5052(5) . 1. 0
O7 O2- 4 a 0.2673(5) 0.551(1) 0.6220(5) . 1. 0
O8 O2- 4 a 0.2447(5) 0.489(1) 0.3926(5) . 1. 0
O9 O2- 4 a 0.2584(5) 0.4895(9) 0.1394(5) . 1. 0
O10 O2- 4 a 0.2127(5) 0.045(1) 0.3841(5) . 1. 0
loop_
_atom_site_aniso_label
_atom_site_aniso_type_symbol
_atom_site_aniso_U_11
_atom_site_aniso_U_22
_atom_site_aniso_U_33
_atom_site_aniso_U_12
_atom_site_aniso_U_13
_atom_site_aniso_U_23
Na1 Na1+ 0.052(3) 0.022(2) 0.028(2) 0.002(2) 0.015(2) -.001(2)
K1 K1+ 0.052(3) 0.022(2) 0.028(2) 0.002(2) 0.015(2) -.001(2)
Na2 Na1+ 0.029(2) 0.056(3) 0.040(3) 0.014(2) -.007(2) -.006(3)
K2 K1+ 0.029(2) 0.056(3) 0.040(3) 0.014(2) -.007(2) -.006(3)
Ti1 Ti4+ 0.0100(4) 0.0088(5) 0.0062(4) -.0001(1) 0.0001(4) 0.0001(5)
Ti2 Ti4+ 0.0103(5) 0.0104(5) 0.0060(4) -.0002(4) 0.0004(5) -.0008(4)
P1 P5+ 0.0096(7) 0.0125(8) 0.0069(7) -.0008(6) -.0013(6) 0.0016(7)
P2 P5+ 0.0117(6) 0.0081(7) 0.0056(6) 0.0005(6) 0.0004(7) -.0016(7)
O1 O2- 0.017(3) 0.014(3) 0.012(2) -.001(2) -.003(2) 0.005(2)
O2 O2- 0.012(2) 0.023(3) 0.006(2) 0.001(2) 0.002(2) -.004(2)
O3 O2- 0.012(2) 0.014(2) 0.010(2) -.001(2) -.001(2) -.001(2)
O4 O2- 0.013(2) 0.013(2) 0.012(2) 0.005(2) -.003(2) -.004(2)
O5 O2- 0.021(3) 0.007(2) 0.013(2) -.002(2) 0.001(2) 0.003(2)
O6 O2- 0.014(2) 0.011(2) 0.009(2) -.001(2) -.002(2) 0.002(2)
O7 O2- 0.020(3) 0.014(3) 0.007(2) 0.002(2) -.002(2) -.003(2)
O8 O2- 0.017(3) 0.014(3) 0.007(2) -.004(2) 0.002(2) -.005(2)
O9 O2- 0.018(3) 0.008(2) 0.012(2) 0.002(2) 0.005(2) 0.001(2)
O10 O2- 0.022(3) 0.011(3) 0.007(2) 0.001(2) 0.003(2) 0.003(2)
#End of TTdata_67539-ICSD