
#(C) 2019 by FIZ Karlsruhe - Leibniz Institute for Information Infrastructure.  All rights reserved.
data_67545-ICSD
_database_code_ICSD 67545
_audit_creation_date 1993-08-22
_audit_update_record 2008-08-01
_chemical_name_systematic 'Sodium undecaaluminium oxide'
_chemical_formula_structural 'Na Al11 O17'
_chemical_formula_sum 'Al11 Na1 O17'
_chemical_name_structure_type NaAl11O17
_chemical_name_mineral Diaoyudaoite
_exptl_crystal_density_diffrn 3.2
_publ_section_title 'Study on crystal structure of diaoyudaoite'
loop_
_citation_id
_citation_journal_full
_citation_year
_citation_journal_volume
_citation_page_first
_citation_page_last
_citation_journal_id_ASTM
primary 'Huaxue Xuebao' 1992 50 527 532 HHHPA4
loop_
_publ_author_name
'Zhu, N.-J.'
'Guo, F.'
'Li, Y.'
'Shen, S.-X.'
'Chen, L.-R.'
'Li, A.-C.'
_cell_length_a 5.602(1)
_cell_length_b 5.602(1)
_cell_length_c 22.626(5)
_cell_angle_alpha 90.
_cell_angle_beta 90.
_cell_angle_gamma 120.
_cell_volume 614.93
_cell_formula_units_Z 2
_symmetry_space_group_name_H-M 'P 63/m m c'
_symmetry_Int_Tables_number 194
_refine_ls_R_factor_all 0.092
loop_
_symmetry_equiv_pos_site_id
_symmetry_equiv_pos_as_xyz
1 'x, x-y, -z+1/2'
2 '-x+y, y, -z+1/2'
3 '-y, -x, -z+1/2'
4 '-x+y, -x, -z+1/2'
5 '-y, x-y, -z+1/2'
6 'x, y, -z+1/2'
7 '-x, -x+y, z+1/2'
8 'x-y, -y, z+1/2'
9 'y, x, z+1/2'
10 'x-y, x, z+1/2'
11 'y, -x+y, z+1/2'
12 '-x, -y, z+1/2'
13 '-x, -x+y, -z'
14 'x-y, -y, -z'
15 'y, x, -z'
16 'x-y, x, -z'
17 'y, -x+y, -z'
18 '-x, -y, -z'
19 'x, x-y, z'
20 '-x+y, y, z'
21 '-y, -x, z'
22 '-x+y, -x, z'
23 '-y, x-y, z'
24 'x, y, z'
loop_
_atom_type_symbol
_atom_type_oxidation_number
O2- -2
Na1+ 1
Al3+ 3
loop_
_atom_site_label
_atom_site_type_symbol
_atom_site_symmetry_multiplicity
_atom_site_Wyckoff_symbol
_atom_site_fract_x
_atom_site_fract_y
_atom_site_fract_z
_atom_site_B_iso_or_equiv
_atom_site_occupancy
_atom_site_attached_hydrogens
O1 O2- 12 k 0.1667 -.1667 0.0494(4) 0.009(4) 1. 0
O2 O2- 4 f 0.6667 0.3333 0.0548(8) 0.005(5) 1. 0
O3 O2- 4 e 0 0 0.1421(8) 0.004(5) 1. 0
O4 O2- 12 k 0.5 0.5 0.1466(4) 0.006(2) 1. 0
O5 O2- 2 c 0.3333 0.6667 0.25 0.053(16) 1. 0
Na1 Na1+ 2 d 0.6667 0.3333 0.25 0.159(25) 1. 0
Al1 Al3+ 2 a 0 0 0 0.008(4) 1. 0
Al2 Al3+ 4 f 0.3333 0.6667 0.0248(3) 0.003(2) 1. 0
Al3 Al3+ 12 k -.1667 0.1667 0.1062(2) 0.007(2) 1. 0
Al4 Al3+ 4 f 0.3333 0.6667 0.1757(3) 0.004(2) 1. 0
#End of TTdata_67545-ICSD