
#(C) 2019 by FIZ Karlsruhe - Leibniz Institute for Information Infrastructure.  All rights reserved.
data_67547-ICSD
_database_code_ICSD 67547
_audit_creation_date 1993-08-22
_chemical_name_systematic 'Dicesium sodium azidonitridotetracyanorhenate(V)'
_chemical_formula_structural 'Cs2 Na (Re N (N3) (C N)4)'
_chemical_formula_sum 'C4 Cs2 N8 Na1 Re1'
_chemical_name_structure_type Cs2NaMoO(CN)4N3
_exptl_crystal_density_diffrn 3.29
_cell_measurement_temperature 298.
_publ_section_title
'Chemical structure of the azidonitridotetracyanorhenate(V) ion'
loop_
_citation_id
_citation_journal_full
_citation_year
_citation_journal_volume
_citation_page_first
_citation_page_last
_citation_journal_id_ASTM
primary 'Inorganica Chimica Acta' 1992 195 217 220 ICHAA3
loop_
_publ_author_name
'Purcell, W.'
'Damoense, L.J.'
'Leipoldt, J.G.'
_cell_length_a 15.772(3)
_cell_length_b 7.766(4)
_cell_length_c 10.456(3)
_cell_angle_alpha 90.
_cell_angle_beta 90.
_cell_angle_gamma 90.
_cell_volume 1280.71
_cell_formula_units_Z 4
_symmetry_space_group_name_H-M 'P n m a'
_symmetry_Int_Tables_number 62
_refine_ls_R_factor_all 0.054
loop_
_symmetry_equiv_pos_site_id
_symmetry_equiv_pos_as_xyz
1 'x+1/2, y, -z+1/2'
2 'x, -y+1/2, z'
3 '-x+1/2, y+1/2, z+1/2'
4 '-x, -y, -z'
5 '-x+1/2, -y, z+1/2'
6 '-x, y+1/2, -z'
7 'x+1/2, -y+1/2, -z+1/2'
8 'x, y, z'
loop_
_atom_type_symbol
_atom_type_oxidation_number
Re5+ 5
Cs1+ 1
Na1+ 1
C2+ 2
N3- -3
N0+ -0.333
loop_
_atom_site_label
_atom_site_type_symbol
_atom_site_symmetry_multiplicity
_atom_site_Wyckoff_symbol
_atom_site_fract_x
_atom_site_fract_y
_atom_site_fract_z
_atom_site_B_iso_or_equiv
_atom_site_occupancy
_atom_site_attached_hydrogens
Re1 Re5+ 4 c 0.10724(4) 0.25 0.21887(6) 0.0184(1) 1. 0
Cs1 Cs1+ 4 c 0.3626(1) 0.25 0.5395(2) 0.042(1) 1. 0
Cs2 Cs1+ 4 c 0.3585(1) 0.25 1.0736(2) 0.058(1) 1. 0
Na1 Na1+ 4 c 0.1504(4) 0.25 0.8294(8) 0.025(2) 1. 0
C1 C2+ 8 d 0.1906(8) 0.4364(17) 0.2947(13) 0.029(2) 1. 0
C2 C2+ 8 d 0.0107(8) 0.4351(18) 0.1959(14) 0.031(3) 1. 0
N1 N3- 8 d 0.2367(9) 0.5312(2) 0.3371(16) 0.053(4) 1. 0
N2 N3- 8 d -.0441(8) 0.5285(19) 0.1824(16) 0.051(3) 1. 0
N3 N3- 4 c 0.0616(11) 0.25 0.4338(17) 0.053(6) 1. 0
N4 N0+ 4 c 0.1128(11) 0.25 0.5151(18) 0.054(6) 1. 0
N5 N0+ 4 c 0.1601(13) 0.25 0.5971(2) 0.155(20) 1. 0
N6 N0+ 4 c 0.1417(10) 0.25 0.0701(16) 0.032(4) 1. 0
#End of TTdata_67547-ICSD