
#(C) 2019 by FIZ Karlsruhe - Leibniz Institute for Information Infrastructure.  All rights reserved.
data_67558-ICSD
_database_code_ICSD 67558
_audit_creation_date 1993-08-22
_audit_update_record 2011-02-01
_chemical_name_systematic 'Sodium copper(I) copper(II) oxide'
_chemical_formula_structural 'Na Cu2 O2'
_chemical_formula_sum 'Cu2 Na1 O2'
_chemical_name_structure_type NaCu2O2
_exptl_crystal_density_diffrn 5.05
_publ_section_title

;
Synthese und Kristallstruktur eines gemischtvalenten Natrium-Oxycuprats (I,
II): Na Cu2 O2
;
loop_
_citation_id
_citation_journal_full
_citation_year
_citation_journal_volume
_citation_page_first
_citation_page_last
_citation_journal_id_ASTM
primary 'Journal of Alloys and Compounds' 1992 189 241 243 JALCEU
loop_
_publ_author_name
'Tams, G.'
'Mueller Buschbaum, H.'
_cell_length_a 6.1826(22)
_cell_length_b 2.9351(10)
_cell_length_c 13.2085(35)
_cell_angle_alpha 90.
_cell_angle_beta 90.
_cell_angle_gamma 90.
_cell_volume 239.69
_cell_formula_units_Z 4
_symmetry_space_group_name_H-M 'P n m a'
_symmetry_Int_Tables_number 62
_refine_ls_R_factor_all 0.08
loop_
_symmetry_equiv_pos_site_id
_symmetry_equiv_pos_as_xyz
1 'x+1/2, y, -z+1/2'
2 'x, -y+1/2, z'
3 '-x+1/2, y+1/2, z+1/2'
4 '-x, -y, -z'
5 '-x+1/2, -y, z+1/2'
6 '-x, y+1/2, -z'
7 'x+1/2, -y+1/2, -z+1/2'
8 'x, y, z'
loop_
_atom_type_symbol
_atom_type_oxidation_number
Cu1+ 1
Cu2+ 2
Na1+ 1
O2- -2
loop_
_atom_site_label
_atom_site_type_symbol
_atom_site_symmetry_multiplicity
_atom_site_Wyckoff_symbol
_atom_site_fract_x
_atom_site_fract_y
_atom_site_fract_z
_atom_site_B_iso_or_equiv
_atom_site_occupancy
_atom_site_attached_hydrogens
Cu1 Cu1+ 4 c 0.1302(5) 0.25 0.6055(2) 0.92(4) 1. 0
Cu2 Cu2+ 4 c 0.6150(5) 0.25 0.2558(2) 0.77(4) 1. 0
Na1 Na1+ 4 c 0.6435(17) 0.25 0.5764(6) 1.25(13) 1. 0
O1 O2- 4 c 0.6514(19) 0.25 0.3974(10) 0.88(18) 1. 0
O2 O2- 4 c 0.0819(20) 0.25 0.3826(11) 1.22(20) 1. 0
#End of TTdata_67558-ICSD