
#(C) 2019 by FIZ Karlsruhe - Leibniz Institute for Information Infrastructure.  All rights reserved.
data_67565-ICSD
_database_code_ICSD 67565
_audit_creation_date 1993-08-22
_audit_update_record 2012-02-01
_chemical_name_systematic 'Trisodium catena-trinitridomolybdate'
_chemical_formula_structural 'Na3 (Mo N3)'
_chemical_formula_sum 'Mo1 N3 Na3'
_chemical_name_structure_type Na3MoN3
_exptl_crystal_density_diffrn 3.22
_publ_section_title

;
Natriumnitridometallate, Na3 M N3, von Molybdaen(VI) und Wolfram(VI) mit (Cr
O2 O2/2)-isosteren (Mo N2 N2/2)3- - Ketten
;
loop_
_citation_id
_citation_journal_full
_citation_year
_citation_journal_volume
_citation_page_first
_citation_page_last
_citation_journal_id_ASTM
primary 'Journal of Alloys and Compounds' 1992 190 137 140 JALCEU
loop_
_publ_author_name
'Ostermann, D.'
'Zachwieja, U.'
'Jacobs, H.'
_cell_length_a 13.854(5)
_cell_length_b 10.889(2)
_cell_length_c 6.366(2)
_cell_angle_alpha 90.
_cell_angle_beta 117.23(3)
_cell_angle_gamma 90.
_cell_volume 853.92
_cell_formula_units_Z 8
_symmetry_space_group_name_H-M 'C 1 c 1'
_symmetry_Int_Tables_number 9
_refine_ls_R_factor_all 0.065
loop_
_symmetry_equiv_pos_site_id
_symmetry_equiv_pos_as_xyz
1 'x, -y, z+1/2'
2 'x, y, z'
3 'x+1/2, -y+1/2, z+1/2'
4 'x+1/2, y+1/2, z'
loop_
_atom_type_symbol
_atom_type_oxidation_number
Mo6+ 6
N3- -3
Na1+ 1
loop_
_atom_site_label
_atom_site_type_symbol
_atom_site_symmetry_multiplicity
_atom_site_Wyckoff_symbol
_atom_site_fract_x
_atom_site_fract_y
_atom_site_fract_z
_atom_site_B_iso_or_equiv
_atom_site_occupancy
_atom_site_attached_hydrogens
Mo1 Mo6+ 4 a 0 0.23793(8) 0 . 1. 0
Mo2 Mo6+ 4 a 0.25034(9) 0.2511(1) 0.5752(2) . 1. 0
N1 N3- 4 a 0.004(1) 0.393(1) 0.906(3) 2.1(2) 1. 0
N2 N3- 4 a 0.022(1) 0.126(2) 0.822(4) 3.8(4) 1. 0
N3 N3- 4 a 0.242(1) 0.384(2) 0.735(3) 2.4(3) 1. 0
N4 N3- 4 a 0.2920(9) 0.127(1) 0.781(2) 1.0(2) 1. 0
N5 N3- 4 a 0.605(1) 0.285(1) 0.823(3) 2.1(2) 1. 0
N6 N3- 4 a 0.356(1) 0.290(2) 0.469(4) 3.6(4) 1. 0
Na1 Na1+ 4 a 0.4918(5) 0.2163(5) 0.015(1) 1.54(9) 1. 0
Na2 Na1+ 4 a 0.3806(6) 0.0206(6) 0.578(1) 2.0(1) 1. 0
Na3 Na1+ 4 a 0.6249(5) 0.0201(5) 0.814(1) 0.85(7) 1. 0
Na4 Na1+ 4 a 0.2379(7) 0.2483(8) 0.037(2) 3.2(2) 1. 0
Na5 Na1+ 4 a 0.6173(5) 0.5256(6) 0.628(1) 1.6(1) 1. 0
Na6 Na1+ 4 a 0.3641(7) 0.4864(9) 0.120(2) 3.8(2) 1. 0
loop_
_atom_site_aniso_label
_atom_site_aniso_type_symbol
_atom_site_aniso_U_11
_atom_site_aniso_U_22
_atom_site_aniso_U_33
_atom_site_aniso_U_12
_atom_site_aniso_U_13
_atom_site_aniso_U_23
Mo1 Mo6+ 0.0084(3) 0.0027(3) 0.0107(3) -0.0003(4) 0.0068(2) -0.0011(5)
Mo2 Mo6+ 0.0114(4) 0.0104(4) 0.0110(4) 0.0024(4) 0.0026(3) 0.0025(4)
#End of TTdata_67565-ICSD