
#(C) 2019 by FIZ Karlsruhe - Leibniz Institute for Information Infrastructure.  All rights reserved.
data_67683-ICSD
_database_code_ICSD 67683
_audit_creation_date 1994-01-19
_audit_update_record 2012-02-01
_chemical_name_systematic 'Sodium lanthanum silicate fluoride oxide *'
_chemical_formula_structural '(Na1.45 La8.55) (Si O4)6 (F.9 O1.1)'
_chemical_formula_sum 'F0.9 La8.55 Na1.45 O25.1 Si6'
_chemical_name_structure_type Apatite#-(MO,P1121)
_chemical_name_mineral Britholite-(La)
_exptl_crystal_density_diffrn 5.17
_publ_section_title

;
Crystal structures of synthetic Na-REE-Si oxyapatites, synthetic monclinic
britholite
;
loop_
_citation_id
_citation_journal_full
_citation_year
_citation_journal_volume
_citation_page_first
_citation_page_last
_citation_journal_id_ASTM
primary 'Neues Jahrbuch fuer Mineralogie, Monatshefte' 1992 1992 311 319 NJMMAW
loop_
_publ_author_name
'Hughes, J.M.'
'Mariano, A.N.'
'Drexler, J.W.'
_cell_length_a 9.678(1)
_cell_length_b 9.682(3)
_cell_length_c 7.1631(8)
_cell_angle_alpha 90.
_cell_angle_beta 90.
_cell_angle_gamma 120.04(2)
_cell_volume 581.04
_cell_formula_units_Z 1
_symmetry_space_group_name_H-M 'P 1 1 21'
_symmetry_Int_Tables_number 4
_refine_ls_R_factor_all 0.024
loop_
_symmetry_equiv_pos_site_id
_symmetry_equiv_pos_as_xyz
1 '-x, -y, z+1/2'
2 'x, y, z'
loop_
_atom_type_symbol
_atom_type_oxidation_number
Si4+ 4
La3+ 3
Na1+ 1
La3+ 3
Na1+ 1
La3+ 3
Na1+ 1
La3+ 3
Na1+ 1
La3+ 3
Na1+ 1
O2- -2
F1- -1
O2- -2
loop_
_atom_site_label
_atom_site_type_symbol
_atom_site_symmetry_multiplicity
_atom_site_Wyckoff_symbol
_atom_site_fract_x
_atom_site_fract_y
_atom_site_fract_z
_atom_site_B_iso_or_equiv
_atom_site_occupancy
_atom_site_attached_hydrogens
Si1 Si4+ 2 a 0.0289(2) 0.6287(2) 0.25 0.35(3) 1. 0
Si2 Si4+ 2 a 0.3715(2) 0.4004(2) 0.248(1) 0.33(2) 1. 0
Si3 Si4+ 2 a 0.5997(2) 0.9708(2) 0.252(2) 0.37(3) 1. 0
La1 La3+ 2 a 0.33267(7) 0.66656(7) 0.0057(1) 0.22(1) 0.607(2) 0
Na1 Na1+ 2 a 0.33267(7) 0.66656(7) 0.0057(1) 0.22(1) 0.393(2) 0
La2 La3+ 2 a 0.33415(8) 0.66678(8) 0.5002(1) 1.04(1) 0.744(2) 0
Na2 Na1+ 2 a 0.33415(8) 0.66678(8) 0.5002(1) 1.04(1) 0.256(2) 0
La3 La3+ 2 a -.01493(4) 0.23465(4) 0.2513(3) 0.457(6) 0.974(1) 0
Na3 Na1+ 2 a -.01493(4) 0.23465(4) 0.2513(3) 0.457(6) 0.026(1) 0
La4 La3+ 2 a 0.23454(4) 0.24954(4) 0.7484(3) 0.462(6) 0.977(1) 0
Na4 Na1+ 2 a 0.23454(4) 0.24954(4) 0.7484(3) 0.462(6) 0.023(1) 0
La5 La3+ 2 a 0.24944(4) 0.01482(4) 0.2506(3) 0.459(7) 0.975(1) 0
Na5 Na1+ 2 a 0.24944(4) 0.01482(4) 0.2506(3) 0.459(7) 0.025(1) 0
O1 O2- 2 a 0.8366(5) 0.5165(5) 0.245(2) 0.85(8) 1. 0
O2 O2- 2 a 0.4821(5) 0.3200(5) 0.261(2) 0.77(8) 1. 0
O3 O2- 2 a 0.6783(5) 0.1623(5) 0.243(2) 0.88(8) 1. 0
O4 O2- 2 a 0.4068(5) 0.8779(5) 0.267(1) 0.70(8) 1. 0
O5 O2- 2 a 0.4704(5) 0.5933(5) 0.238(2) 0.72(8) 1. 0
O6 O2- 2 a 0.1230(5) 0.5304(5) 0.267(2) 0.73(8) 1. 0
O7 O2- 2 a 0.6364(6) 0.8985(6) 0.0618(9) 0.39(9) 1. 0
O8 O2- 2 a 0.6811(7) 0.9258(7) 0.422(1) 1.0(1) 1. 0
O9 O2- 2 a 0.2615(6) 0.3625(6) 0.063(1) 0.50(9) 1. 0
O10 O2- 2 a 0.2443(7) 0.3189(7) 0.425(1) 0.9(1) 1. 0
O11 O2- 2 a 0.0747(7) 0.7546(7) 0.083(1) 0.9(1) 1. 0
O12 O2- 2 a 0.1017(7) 0.7373(6) 0.444(1) 0.54(9) 1. 0
F1 F1- 2 a -.0007(6) -.0009(7) 0.225(1) 1.9(1) 0.45 0
O13 O2- 2 a -.0007(6) -.0009(7) 0.225(1) 1.9(1) 0.55 0
#End of TTdata_67683-ICSD