
#(C) 2019 by FIZ Karlsruhe - Leibniz Institute for Information Infrastructure.  All rights reserved.
data_67736-ICSD
_database_code_ICSD 67736
_audit_creation_date 1994-06-30
_chemical_name_systematic 'Sodium lanthanum diniobate (1.3/.9/1)'
_chemical_formula_structural 'Na1.26 La.913 (Nb2 O7)'
_chemical_formula_sum 'La0.913 Na1.26 Nb2 O7'
_chemical_name_structure_type AgLaTa2O7
_exptl_crystal_density_diffrn 4.67
_cell_measurement_temperature 573.
_publ_section_title
'Structure examination of NaLaNb2O7 synthesized by soft chemistry'
loop_
_citation_id
_citation_journal_full
_citation_year
_citation_journal_volume
_citation_page_first
_citation_page_last
_citation_journal_id_ASTM
primary 'Solid State Ionics' 1992 57 285 293 SSIOD3
loop_
_publ_author_name
'Sato, M.'
'Jin, T.'
'Abo, J.'
_cell_length_a 3.9022(1)
_cell_length_b 3.9022(1)
_cell_length_c 21.1826(8)
_cell_angle_alpha 90.
_cell_angle_beta 90.
_cell_angle_gamma 90.
_cell_volume 322.55
_cell_formula_units_Z 2
_symmetry_space_group_name_H-M 'I 4/m m m'
_symmetry_Int_Tables_number 139
_refine_ls_R_factor_all 0.024
loop_
_symmetry_equiv_pos_site_id
_symmetry_equiv_pos_as_xyz
1 'y, x, -z'
2 '-y, -x, -z'
3 '-y, x, -z'
4 'y, -x, -z'
5 '-x, y, -z'
6 'x, -y, -z'
7 'x, y, -z'
8 '-x, -y, -z'
9 '-y, -x, z'
10 'y, x, z'
11 'y, -x, z'
12 '-y, x, z'
13 'x, -y, z'
14 '-x, y, z'
15 '-x, -y, z'
16 'x, y, z'
17 'y+1/2, x+1/2, -z+1/2'
18 '-y+1/2, -x+1/2, -z+1/2'
19 '-y+1/2, x+1/2, -z+1/2'
20 'y+1/2, -x+1/2, -z+1/2'
21 '-x+1/2, y+1/2, -z+1/2'
22 'x+1/2, -y+1/2, -z+1/2'
23 'x+1/2, y+1/2, -z+1/2'
24 '-x+1/2, -y+1/2, -z+1/2'
25 '-y+1/2, -x+1/2, z+1/2'
26 'y+1/2, x+1/2, z+1/2'
27 'y+1/2, -x+1/2, z+1/2'
28 '-y+1/2, x+1/2, z+1/2'
29 'x+1/2, -y+1/2, z+1/2'
30 '-x+1/2, y+1/2, z+1/2'
31 '-x+1/2, -y+1/2, z+1/2'
32 'x+1/2, y+1/2, z+1/2'
loop_
_atom_type_symbol
_atom_type_oxidation_number
Na1+ 1
La3+ 3
Nb5+ 5
O2- -2
loop_
_atom_site_label
_atom_site_type_symbol
_atom_site_symmetry_multiplicity
_atom_site_Wyckoff_symbol
_atom_site_fract_x
_atom_site_fract_y
_atom_site_fract_z
_atom_site_B_iso_or_equiv
_atom_site_occupancy
_atom_site_attached_hydrogens
Na1 Na1+ 4 d 0 0.5 0.25 9.60(17) 0.63 0
La1 La3+ 2 a 0 0 0 1.1(2) 0.913 0
Nb1 Nb5+ 4 e 0 0 0.3932(2) 1.5(2) 1. 0
O1 O2- 2 b 0 0 0.5 2.30(14) 1. 0
O2 O2- 8 g 0 0.5 0.0889(11) 3.4(8) 1. 0
O3 O2- 4 e 0 0 0.3109(15) 3.9(1) 1. 0
#End of TTdata_67736-ICSD