
#(C) 2017 by FIZ Karlsruhe - Leibniz Institute for Information Infrastructure.  All rights reserved.
data_67743-ICSD
_database_code_ICSD 67743
_audit_creation_date 1994-06-30
_chemical_name_systematic 'Pentalithium chromium chloride'
_chemical_formula_structural 'Li5 Cr Cl8'
_chemical_formula_sum 'Cl8 Cr1 Li5'
_exptl_crystal_density_diffrn 2.29
_cell_measurement_temperature 295.
_publ_section_title 'Kristallstruktur und Schwingungsspektren von Li5CrCl8'
loop_
_citation_id
_citation_journal_full
_citation_year
_citation_journal_volume
_citation_page_first
_citation_page_last
_citation_journal_id_ASTM
primary 'Zeitschrift fuer Naturforschung, B: Chemical Sciences' 1992 47 1687
1692 ZNBSEN
loop_
_publ_author_name
'Lutz, H.D.'
'Kuske, P.'
'Pfitzner, A.'
'Steiner, H.J.'
_cell_length_a 10.1976(2)
_cell_length_b 7.2390(2)
_cell_length_c 7.2614(2)
_cell_angle_alpha 90.
_cell_angle_beta 90.
_cell_angle_gamma 90.
_cell_volume 536.04
_cell_formula_units_Z 2
_symmetry_space_group_name_H-M 'C m m m'
_symmetry_Int_Tables_number 65
_refine_ls_R_factor_all 0.076
loop_
_symmetry_equiv_pos_site_id
_symmetry_equiv_pos_as_xyz
1 'x, -y, z'
2 '-x, y, z'
3 'x, y, -z'
4 '-x, -y, -z'
5 '-x, y, -z'
6 'x, -y, -z'
7 '-x, -y, z'
8 'x, y, z'
9 'x+1/2, -y+1/2, z'
10 '-x+1/2, y+1/2, z'
11 'x+1/2, y+1/2, -z'
12 '-x+1/2, -y+1/2, -z'
13 '-x+1/2, y+1/2, -z'
14 'x+1/2, -y+1/2, -z'
15 '-x+1/2, -y+1/2, z'
16 'x+1/2, y+1/2, z'
loop_
_atom_type_symbol
_atom_type_oxidation_number
Li1+ 1
Cr3+ 3
Cl1- -1
loop_
_atom_site_label
_atom_site_type_symbol
_atom_site_symmetry_multiplicity
_atom_site_Wyckoff_symbol
_atom_site_fract_x
_atom_site_fract_y
_atom_site_fract_z
_atom_site_B_iso_or_equiv
_atom_site_occupancy
_atom_site_attached_hydrogens
Li1 Li1+ 8 m 0.25 0.25 0.235(1) 2.6(2) 1. 0
Li2 Li1+ 2 b 0.5 0 0 4.4(9) 1. 0
Cr1 Cr3+ 2 c 0 0.5 0.5 0.6(2) 1. 0
Cl1 Cl1- 8 n 0 0.2698(3) 0.2708(3) 1.10(3) 1. 0
Cl2 Cl1- 4 h 0.2689(3) 0 0.5 1.14(5) 1. 0
Cl3 Cl1- 4 g 0.2521(3) 0 0 1.21(6) 1. 0
#End of TTdata_67743-ICSD