
#(C) 2019 by FIZ Karlsruhe - Leibniz Institute for Information Infrastructure.  All rights reserved.
data_67826-ICSD
_database_code_ICSD 67826
_audit_creation_date 1995-01-10
_chemical_name_systematic 'Sodium iridate(IV)'
_chemical_formula_structural 'Na4 (Ir O4)'
_chemical_formula_sum 'Ir1 Na4 O4'
_chemical_name_structure_type H4Li4Rh
_exptl_crystal_density_diffrn 4.79
_publ_section_title

;
Zu Oxoiridaten mit quadratisch-planaren (IrO4)(4-)-Gruppen: Na4IrO4, eine
MgO-Ersetzungsvariante mit geordneten Luecken im Anionenteilgitter (1)
;
loop_
_citation_id
_citation_journal_full
_citation_year
_citation_journal_volume
_citation_page_first
_citation_page_last
_citation_journal_id_ASTM
primary 'Zeitschrift fuer Anorganische und Allgemeine Chemie (1950) (DE)' 1993
619 1647 1654 ZAACAB
loop_
_publ_author_name
'Mader, K.'
'Hoppe, R.'
_cell_length_a 7.1670(4)
_cell_length_b 7.1670(4)
_cell_length_c 4.7132(4)
_cell_angle_alpha 90.
_cell_angle_beta 90.
_cell_angle_gamma 90.
_cell_volume 242.1
_cell_formula_units_Z 2
_symmetry_space_group_name_H-M 'I 4/m'
_symmetry_Int_Tables_number 87
_refine_ls_R_factor_all 0.0179
loop_
_symmetry_equiv_pos_site_id
_symmetry_equiv_pos_as_xyz
1 '-y, x, -z'
2 'y, -x, -z'
3 'x, y, -z'
4 '-x, -y, -z'
5 'y, -x, z'
6 '-y, x, z'
7 '-x, -y, z'
8 'x, y, z'
9 '-y+1/2, x+1/2, -z+1/2'
10 'y+1/2, -x+1/2, -z+1/2'
11 'x+1/2, y+1/2, -z+1/2'
12 '-x+1/2, -y+1/2, -z+1/2'
13 'y+1/2, -x+1/2, z+1/2'
14 '-y+1/2, x+1/2, z+1/2'
15 '-x+1/2, -y+1/2, z+1/2'
16 'x+1/2, y+1/2, z+1/2'
loop_
_atom_type_symbol
_atom_type_oxidation_number
Ir4+ 4
Na1+ 1
O2- -2
loop_
_atom_site_label
_atom_site_type_symbol
_atom_site_symmetry_multiplicity
_atom_site_Wyckoff_symbol
_atom_site_fract_x
_atom_site_fract_y
_atom_site_fract_z
_atom_site_B_iso_or_equiv
_atom_site_occupancy
_atom_site_attached_hydrogens
Ir1 Ir4+ 2 a 0 0 0 . 1. 0
Na1 Na1+ 8 h 0.5941(3) 0.8038(3) 0 . 1. 0
O1 O2- 8 h 0.2526(5) 0.9185(5) 0 . 1. 0
loop_
_atom_site_aniso_label
_atom_site_aniso_type_symbol
_atom_site_aniso_U_11
_atom_site_aniso_U_22
_atom_site_aniso_U_33
_atom_site_aniso_U_12
_atom_site_aniso_U_13
_atom_site_aniso_U_23
Ir1 Ir4+ 0.0106(1) 0.0106(1) 0.0128(1) 0 0 0
Na1 Na1+ 0.0188(9) 0.0172(9) 0.0217(11) -.0019(7) 0 0
O1 O2- 0.0133(13) 0.0151(13) 0.0201(15) 0.0004(11) 0 0
#End of TTdata_67826-ICSD