
#(C) 2019 by FIZ Karlsruhe - Leibniz Institute for Information Infrastructure.  All rights reserved.
data_67886-ICSD
_database_code_ICSD 67886
_audit_creation_date 1995-01-10
_chemical_name_systematic 'Disodium catena-dithiotitanate'
_chemical_formula_structural 'Na2 (Ti O S2)'
_chemical_formula_sum 'Na2 O1 S2 Ti1'
_exptl_crystal_density_diffrn 2.35
_publ_section_title
'Na2TiOS2 - Ein Oxothiotitanat(IV) mit unendlichen Tetraederketten'
loop_
_citation_id
_citation_journal_full
_citation_year
_citation_journal_volume
_citation_page_first
_citation_page_last
_citation_journal_id_ASTM
primary 'Zeitschrift fuer Naturforschung, B: A Journal of Chemical Sciences'
1993 48 545 547 ZNBSEN
loop_
_publ_author_name
'Klepp, K.O.'
_cell_length_a 6.861(3)
_cell_length_b 13.610(9)
_cell_length_c 5.733(9)
_cell_angle_alpha 90.
_cell_angle_beta 113.24(2)
_cell_angle_gamma 90.
_cell_volume 491.9
_cell_formula_units_Z 4
_symmetry_space_group_name_H-M 'P 1 21/c 1'
_symmetry_Int_Tables_number 14
_refine_ls_R_factor_all 0.032
loop_
_symmetry_equiv_pos_site_id
_symmetry_equiv_pos_as_xyz
1 'x, -y+1/2, z+1/2'
2 '-x, -y, -z'
3 '-x, y+1/2, -z+1/2'
4 'x, y, z'
loop_
_atom_type_symbol
_atom_type_oxidation_number
Na1+ 1
Ti4+ 4
O2- -2
S2- -2
loop_
_atom_site_label
_atom_site_type_symbol
_atom_site_symmetry_multiplicity
_atom_site_Wyckoff_symbol
_atom_site_fract_x
_atom_site_fract_y
_atom_site_fract_z
_atom_site_B_iso_or_equiv
_atom_site_occupancy
_atom_site_attached_hydrogens
Na1 Na1+ 4 e 0.7861(3) 0.4418(2) 0.1479(4) . 1. 0
Na2 Na1+ 4 e 0.3957(3) 0.3604(2) 0.4552(4) . 1. 0
Ti1 Ti4+ 4 e 0.0211(1) 0.18323(7) 0.3374(2) . 1. 0
O1 O2- 4 e 0.9803(5) 0.2910(2) 0.1317(6) . 1. 0
S1 S2- 4 e 0.8086(2) 0.0584(2) 0.1479(4) . 1. 0
S2 S2- 4 e 0.3602(2) 0.1429(1) 0.4408(2) . 1. 0
loop_
_atom_site_aniso_label
_atom_site_aniso_type_symbol
_atom_site_aniso_U_11
_atom_site_aniso_U_22
_atom_site_aniso_U_33
_atom_site_aniso_U_12
_atom_site_aniso_U_13
_atom_site_aniso_U_23
Na1 Na1+ 0.024(1) 0.031(1) 0.0172(9) -.007(1) 0.0109(7) 0.000(1)
Na2 Na1+ 0.0208(9) 0.023(1) 0.0180(9) -.0011(9) 0.0127(6) 0.0000(9)
Ti1 Ti4+ 0.0110(3) 0.0146(3) 0.0052(3) 0.0001(4) 0.0067(2) 0.0002(4)
O1 O2- 0.019(1) 0.016(2) 0.009(1) -.006(1) 0.011(1) -.005(1)
S1 S2- 0.0150(5) 0.0189(7) 0.0107(5) 0.0034(6) 0.0066(4) 0.0036(5)
S2 S2- 0.0114(5) 0.0225(7) 0.0129(5) 0.0011(6) 0.0074(4) 0.0000(6)
#End of TTdata_67886-ICSD