
#(C) 2019 by FIZ Karlsruhe - Leibniz Institute for Information Infrastructure.  All rights reserved.
data_68137-ICSD
_database_code_ICSD 68137
_audit_creation_date 1991-07-10
_audit_update_record 2008-08-01
_chemical_name_systematic 'Lanthanum sodium iron oxide (0.7/0.3/12/19)'
_chemical_formula_structural '(La0.7 Na0.3) Fe12 O19'
_chemical_formula_sum 'Fe12 La0.7 Na0.3 O19'
_chemical_name_structure_type M-type-ferrite#BaFe12O19
_exptl_crystal_density_diffrn 5.21
_publ_section_title

;
Crystal growth, structure determination and room temperature resistivity of
the lanthanum - sodium hexaferrite La.7 Na.3 Fe12 O19
;
loop_
_citation_id
_citation_journal_full
_citation_year
_citation_journal_volume
_citation_page_first
_citation_page_last
_citation_journal_id_ASTM
primary 'Materials Research Bulletin' 1988 23 299 305 MRBUAC
loop_
_publ_author_name
'le Roux, D.'
'Vincent, H.'
'Joubert, J.C.'
'Vallet Regi, M.'
_cell_length_a 5.883(2)
_cell_length_b 5.883(2)
_cell_length_c 22.955(5)
_cell_angle_alpha 90.
_cell_angle_beta 90.
_cell_angle_gamma 120.
_cell_volume 688.03
_cell_formula_units_Z 2
_symmetry_space_group_name_H-M 'P 63/m m c'
_symmetry_Int_Tables_number 194
_refine_ls_R_factor_all 0.016
loop_
_symmetry_equiv_pos_site_id
_symmetry_equiv_pos_as_xyz
1 'x, x-y, -z+1/2'
2 '-x+y, y, -z+1/2'
3 '-y, -x, -z+1/2'
4 '-x+y, -x, -z+1/2'
5 '-y, x-y, -z+1/2'
6 'x, y, -z+1/2'
7 '-x, -x+y, z+1/2'
8 'x-y, -y, z+1/2'
9 'y, x, z+1/2'
10 'x-y, x, z+1/2'
11 'y, -x+y, z+1/2'
12 '-x, -y, z+1/2'
13 '-x, -x+y, -z'
14 'x-y, -y, -z'
15 'y, x, -z'
16 'x-y, x, -z'
17 'y, -x+y, -z'
18 '-x, -y, -z'
19 'x, x-y, z'
20 '-x+y, y, z'
21 '-y, -x, z'
22 '-x+y, -x, z'
23 '-y, x-y, z'
24 'x, y, z'
loop_
_atom_type_symbol
_atom_type_oxidation_number
La3+ 3
Na1+ 1
Fe2+ 2.967
O2- -2
loop_
_atom_site_label
_atom_site_type_symbol
_atom_site_symmetry_multiplicity
_atom_site_Wyckoff_symbol
_atom_site_fract_x
_atom_site_fract_y
_atom_site_fract_z
_atom_site_B_iso_or_equiv
_atom_site_occupancy
_atom_site_attached_hydrogens
La1 La3+ 6 h 0.6763(2) 0.3526(4) 0.25 . 0.233 0
Na1 Na1+ 6 h 0.6763(2) 0.3526(4) 0.25 . 0.099 0
Fe1 Fe2+ 2 a 0 0 0 . 1. 0
Fe2 Fe2+ 4 e 0 0 0.2533(2) . 0.5 0
Fe3 Fe2+ 4 f 0.3333 0.6667 0.02709(3) . 1. 0
Fe4 Fe2+ 4 f 0.3333 0.6667 0.19033(3) . 1. 0
Fe5 Fe2+ 12 k 0.16845(5) 0.3369(1) -.1092 . 1. 0
O1 O2- 4 e 0 0 0.1522(2) . 1. 0
O2 O2- 4 f 0.3333 0.6667 -.0560(2) . 1. 0
O3 O2- 6 h 0.1913(4) 0.3826(8) 0.25 . 1. 0
O4 O2- 12 k 0.1564(3) 0.3128(5) 0.05315(8) . 1. 0
O5 O2- 12 k 0.50615(30) 0.0123(6) 0.15280(8) . 1. 0
loop_
_atom_site_aniso_label
_atom_site_aniso_type_symbol
_atom_site_aniso_U_11
_atom_site_aniso_U_22
_atom_site_aniso_U_33
_atom_site_aniso_U_12
_atom_site_aniso_U_13
_atom_site_aniso_U_23
La1 La3+ 0.0187(3) 0.0230(7) 0.0113(3) 0.0115(3) 0 0
Na1 Na1+ 0.0187(3) 0.0230(7) 0.0113(3) 0.0115(3) 0 0
Fe1 Fe2+ 0.0067(2) 0.0067(2) 0.0050(4) 0.0033(1) 0 0
Fe2 Fe2+ 0.0060(3) 0.0060(3) 0.0187(6) 0.0030(2) 0 0
Fe3 Fe2+ 0.0060(2) 0.0060(2) 0.0054(3) 0.0030(1) 0 0
Fe4 Fe2+ 0.0049(2) 0.0049(2) 0.0050(3) 0.0024(1) 0 0
Fe5 Fe2+ 0.0052(12) 0.0045(1) 0.0066(1) 0.0022(1) 0.0001(1) 0.0002(2)
O1 O2- 0.0053(8) 0.0053(8) 0.006(2) 0.0026(4) 0 0
O2 O2- 0.0069(9) 0.0069(9) 0.005(1) 0.0034(5) 0 0
O3 O2- 0.032(2) 0.008(2) 0.0031(9) 0.004(1) 0 0
O4 O2- 0.0068(6) 0.0056(9) 0.0064(6) 0.0034(3) 0 0
O5 O2- 0.0072(5) 0.0087(9) 0.0075(7) 0.0043(5) 0.0015(5) 0.003(1)
#End of TTdata_68137-ICSD