
#(C) 2019 by FIZ Karlsruhe - Leibniz Institute for Information Infrastructure.  All rights reserved.
data_68360-ICSD
_database_code_ICSD 68360
_audit_creation_date 1991-07-10
_audit_update_record 2006-04-01
_chemical_name_systematic 'Tetrasodium catena-pentaoxouranate'
_chemical_formula_structural 'Na4 (U O5)'
_chemical_formula_sum 'Na4 O5 U1'
_chemical_name_structure_type Na4UO5
_exptl_crystal_density_diffrn 5.14
_publ_section_title 'Neues ueber Oxouranate(VI): Na4 UO5 und K74 UO5'
loop_
_citation_id
_citation_journal_full
_citation_year
_citation_journal_volume
_citation_page_first
_citation_page_last
_citation_journal_id_ASTM
primary 'Revue de Chimie Minerale' 1986 23 828 848 RVCMA8
loop_
_publ_author_name
'Wolf, R.'
'Hoppe, R.'
_cell_length_a 7.5571(5)
_cell_length_b 7.5571(5)
_cell_length_c 4.6411(4)
_cell_angle_alpha 90.
_cell_angle_beta 90.
_cell_angle_gamma 90.
_cell_volume 265.05
_cell_formula_units_Z 2
_symmetry_space_group_name_H-M 'I 4/m'
_symmetry_Int_Tables_number 87
_refine_ls_R_factor_all 0.033
loop_
_symmetry_equiv_pos_site_id
_symmetry_equiv_pos_as_xyz
1 '-y, x, -z'
2 'y, -x, -z'
3 'x, y, -z'
4 '-x, -y, -z'
5 'y, -x, z'
6 '-y, x, z'
7 '-x, -y, z'
8 'x, y, z'
9 '-y+1/2, x+1/2, -z+1/2'
10 'y+1/2, -x+1/2, -z+1/2'
11 'x+1/2, y+1/2, -z+1/2'
12 '-x+1/2, -y+1/2, -z+1/2'
13 'y+1/2, -x+1/2, z+1/2'
14 '-y+1/2, x+1/2, z+1/2'
15 '-x+1/2, -y+1/2, z+1/2'
16 'x+1/2, y+1/2, z+1/2'
loop_
_atom_type_symbol
_atom_type_oxidation_number
U6+ 6
Na1+ 1
O2- -2
loop_
_atom_site_label
_atom_site_type_symbol
_atom_site_symmetry_multiplicity
_atom_site_Wyckoff_symbol
_atom_site_fract_x
_atom_site_fract_y
_atom_site_fract_z
_atom_site_B_iso_or_equiv
_atom_site_occupancy
_atom_site_attached_hydrogens
U1 U6+ 2 a 0 0 0 . 1. 0
Na1 Na1+ 8 h 0.1960(6) 0.4037(7) 0 . 1. 0
O1 O2- 2 b 0 0 0.5 . 1. 0
O2 O2- 8 h 0.2570(11) 0.076(1) 0 . 1. 0
loop_
_atom_site_aniso_label
_atom_site_aniso_type_symbol
_atom_site_aniso_U_11
_atom_site_aniso_U_22
_atom_site_aniso_U_33
_atom_site_aniso_U_12
_atom_site_aniso_U_13
_atom_site_aniso_U_23
U1 U6+ 0.0052(2) 0.0052(2) 0.0052(3) 0 0 0
Na1 Na1+ 0.0170(19) 0.0241(22) 0.0175(21) -.0056(16) 0 0
O1 O2- 0.0146(31) 0.0146(31) 0.0106(43) 0 0 0
O2 O2- 0.0137(26) 0.0157(27) 0.0139(27) 0.0001(23) 0 0
#End of TTdata_68360-ICSD