
#(C) 2017 by FIZ Karlsruhe - Leibniz Institute for Information Infrastructure.  All rights reserved.
data_68427-ICSD
_database_code_ICSD 68427
_audit_creation_date 1991-07-10
_audit_update_record 1999-01-19
_chemical_name_systematic 'Octalithium hexakis(alumosilicate) dichloride'
_chemical_formula_structural 'Li8 (Al Si O4)6 Cl2'
_chemical_formula_sum 'Al6 Cl2 Li8 O24 Si6'
_chemical_name_structure_type Sodalite-frame
_chemical_name_mineral 'Sodalite, lithian'
_exptl_crystal_density_diffrn 2.32
_publ_section_title

;
Characterization of novel sodalites by neutron diffraction and solid state NMR
;
loop_
_citation_id
_citation_journal_full
_citation_year
_citation_journal_volume
_citation_page_first
_citation_page_last
_citation_journal_id_ASTM
primary 'Solid State Ionics' 1989 32 430 435 SSIOD3
loop_
_publ_author_name
'Weller, M.T.'
'Wong, G.'
_cell_length_a 8.4440(3)
_cell_length_b 8.4440(3)
_cell_length_c 8.4440(3)
_cell_angle_alpha 90.
_cell_angle_beta 90.
_cell_angle_gamma 90.
_cell_volume 602.07
_cell_formula_units_Z 1
_symmetry_space_group_name_H-M 'P -4 3 n'
_symmetry_Int_Tables_number 218
_refine_ls_R_factor_all 0.0453
loop_
_symmetry_equiv_pos_site_id
_symmetry_equiv_pos_as_xyz
1 '-z+1/2, y+1/2, -x+1/2'
2 '-y+1/2, x+1/2, -z+1/2'
3 '-x+1/2, z+1/2, -y+1/2'
4 'z+1/2, -y+1/2, -x+1/2'
5 'y+1/2, -x+1/2, -z+1/2'
6 'x+1/2, -z+1/2, -y+1/2'
7 '-z+1/2, -y+1/2, x+1/2'
8 '-y+1/2, -x+1/2, z+1/2'
9 '-x+1/2, -z+1/2, y+1/2'
10 'z+1/2, y+1/2, x+1/2'
11 'y+1/2, x+1/2, z+1/2'
12 'x+1/2, z+1/2, y+1/2'
13 '-z, -x, y'
14 '-y, -z, x'
15 '-x, -y, z'
16 'z, -x, -y'
17 'y, -z, -x'
18 'x, -y, -z'
19 '-z, x, -y'
20 '-y, z, -x'
21 '-x, y, -z'
22 'z, x, y'
23 'y, z, x'
24 'x, y, z'
loop_
_atom_type_symbol
_atom_type_oxidation_number
Cl1- -1
Li1+ 1
Al3+ 3
Si4+ 4
O2- -2
loop_
_atom_site_label
_atom_site_type_symbol
_atom_site_symmetry_multiplicity
_atom_site_Wyckoff_symbol
_atom_site_fract_x
_atom_site_fract_y
_atom_site_fract_z
_atom_site_B_iso_or_equiv
_atom_site_occupancy
_atom_site_attached_hydrogens
Cl1 Cl1- 2 a 0 0 0 1.77(7) 1. 0
Li1 Li1+ 8 e 0.1748(5) 0.1748(5) 0.1748(5) 1.96(14) 1. 0
Al1 Al3+ 6 c 0.25 0.5 0 1.06(16) 1. 0
Si1 Si4+ 6 d 0.25 0 0.5 0.59(12) 1. 0
O1 O2- 24 i 0.1329(2) 0.4089(2) 0.1423(2) 0.73(3) 1. 0
#End of TTdata_68427-ICSD