
#(C) 2019 by FIZ Karlsruhe - Leibniz Institute for Information Infrastructure.  All rights reserved.
data_68464-ICSD
_database_code_ICSD 68464
_audit_creation_date 1991-07-10
_audit_update_record 2003-04-01
_chemical_name_systematic 'Tripotassium sodium chromate'
_chemical_formula_structural 'K3 Na (Cr O4)2'
_chemical_formula_sum 'Cr2 K3 Na1 O8'
_chemical_name_structure_type K3Na(SO4)2
_exptl_crystal_density_diffrn 2.77
_publ_section_title 'Structure and phase transition of K3 Na (Cr O4)2'
loop_
_citation_id
_citation_journal_full
_citation_year
_citation_journal_volume
_citation_page_first
_citation_page_last
_citation_journal_id_ASTM
primary 'Acta Crystallographica, Section C: Crystal Structure Communications'
1990 46 2019 2021 ACSCEE
loop_
_publ_author_name
'Madariaga, G.'
'Breczewski, T.'
_cell_length_a 5.8580(6)
_cell_length_b 5.8580(6)
_cell_length_c 7.523(2)
_cell_angle_alpha 90.
_cell_angle_beta 90.
_cell_angle_gamma 120.
_cell_volume 223.57
_cell_formula_units_Z 1
_symmetry_space_group_name_H-M 'P -3 m 1'
_symmetry_Int_Tables_number 164
_refine_ls_R_factor_all 0.03
loop_
_symmetry_equiv_pos_site_id
_symmetry_equiv_pos_as_xyz
1 'x-y, -y, -z'
2 '-x, -x+y, -z'
3 'y, x, -z'
4 'x-y, x, -z'
5 'y, -x+y, -z'
6 '-x, -y, -z'
7 '-x+y, y, z'
8 'x, x-y, z'
9 '-y, -x, z'
10 '-x+y, -x, z'
11 '-y, x-y, z'
12 'x, y, z'
loop_
_atom_type_symbol
_atom_type_oxidation_number
O2- -2
Cr6+ 6
K1+ 1
Na1+ 1
K1+ 1
loop_
_atom_site_label
_atom_site_type_symbol
_atom_site_symmetry_multiplicity
_atom_site_Wyckoff_symbol
_atom_site_fract_x
_atom_site_fract_y
_atom_site_fract_z
_atom_site_B_iso_or_equiv
_atom_site_occupancy
_atom_site_attached_hydrogens
O1 O2- 6 i -.8188(1) 0.8188(1) 0.3025(2) . 1. 0
O2 O2- 2 d 0.3333 0.6667 0.0114(4) . 1. 0
Cr1 Cr6+ 2 d 0.3333 0.6667 0.22657(5) . 1. 0
K1 K1+ 2 d 0.3333 0.6667 0.66767(8) . 1. 0
Na1 Na1+ 1 b 0 0 0.5 . 1. 0
K2 K1+ 1 a 0 0 0 . 1. 0
loop_
_atom_site_aniso_label
_atom_site_aniso_type_symbol
_atom_site_aniso_U_11
_atom_site_aniso_U_22
_atom_site_aniso_U_33
_atom_site_aniso_U_12
_atom_site_aniso_U_13
_atom_site_aniso_U_23
O1 O2- 0.0538 0.0538 0.008(1) 0.0269(6) 0 0
O2 O2- 0.0235(4) 0.0235(4) 0.0393(8) 0.0167(5) 0.0056(2) -0.0056(2)
Cr1 Cr6+ 0.00898 0.00898 0.0068(2) 0.00449(5) 0 0
K1 K1+ 0.01752 0.01752 0.0121(2) 0.00876(7) 0 0
Na1 Na1+ 0.011 0.011 0.0130(7) 0.0055(2) 0 0
K2 K1+ 0.0414 0.0414 0.0148(4) 0.0207(2) 0 0
#End of TTdata_68464-ICSD