
#(C) 2019 by FIZ Karlsruhe - Leibniz Institute for Information Infrastructure.  All rights reserved.
data_68489-ICSD
_database_code_ICSD 68489
_audit_creation_date 1991-07-10
_chemical_name_systematic 'Rubidium sodium sulfide'
_chemical_formula_structural 'Rb Na S'
_chemical_formula_sum 'Na1 Rb1 S1'
_chemical_name_structure_type PbClF
_exptl_crystal_density_diffrn 2.8
_publ_section_title 'Structure of RbNaS'
loop_
_citation_id
_citation_journal_full
_citation_year
_citation_journal_volume
_citation_page_first
_citation_page_last
_citation_journal_id_ASTM
primary 'Acta Crystallographica, Section C: Crystal Structure Communications'
1990 46 1596 1597 ACSCEE
loop_
_publ_author_name
'Hippler, K.'
'Hitzbleck, R.D.'
'Sitta, S.'
'Vogt, P.'
'Wortmann, R.'
'Sabrowsky, H.'
_cell_length_a 4.696(1)
_cell_length_b 4.696(1)
_cell_length_c 7.559(1)
_cell_angle_alpha 90.
_cell_angle_beta 90.
_cell_angle_gamma 90.
_cell_volume 166.69
_cell_formula_units_Z 2
_symmetry_space_group_name_H-M 'P 4/n m m S'
_symmetry_Int_Tables_number 129
_refine_ls_R_factor_all 0.022
loop_
_symmetry_equiv_pos_site_id
_symmetry_equiv_pos_as_xyz
1 '-y+1/2, -x+1/2, z'
2 'y+1/2, x+1/2, z'
3 '-y, -x, -z'
4 'y, x, -z'
5 'y+1/2, -x+1/2, z'
6 '-y+1/2, x+1/2, z'
7 'y, -x, -z'
8 '-y, x, -z'
9 'x+1/2, -y+1/2, -z'
10 '-x+1/2, y+1/2, -z'
11 'x, -y, z'
12 '-x, y, z'
13 '-x+1/2, -y+1/2, -z'
14 'x+1/2, y+1/2, -z'
15 '-x, -y, z'
16 'x, y, z'
loop_
_atom_type_symbol
_atom_type_oxidation_number
Rb1+ 1
Na1+ 1
S2- -2
loop_
_atom_site_label
_atom_site_type_symbol
_atom_site_symmetry_multiplicity
_atom_site_Wyckoff_symbol
_atom_site_fract_x
_atom_site_fract_y
_atom_site_fract_z
_atom_site_B_iso_or_equiv
_atom_site_occupancy
_atom_site_attached_hydrogens
Rb1 Rb1+ 2 c 0 0.5 0.6493(1) . 1. 0
Na1 Na1+ 2 a 0 0 0 . 1. 0
S1 S2- 2 c 0 0.5 0.2056(3) . 1. 0
loop_
_atom_site_aniso_label
_atom_site_aniso_type_symbol
_atom_site_aniso_U_11
_atom_site_aniso_U_22
_atom_site_aniso_U_33
_atom_site_aniso_U_12
_atom_site_aniso_U_13
_atom_site_aniso_U_23
Rb1 Rb1+ 0.0224(3) 0.0224(3) 0.0224(4) 0 0 0
Na1 Na1+ 0.0150(8) 0.0150(8) 0.0125(11) 0 0 0
S1 S2- 0.0171(5) 0.0171(5) 0.0188(8) 0 0 0
#End of TTdata_68489-ICSD