
#(C) 2019 by FIZ Karlsruhe - Leibniz Institute for Information Infrastructure.  All rights reserved.
data_68492-ICSD
_database_code_ICSD 68492
_audit_creation_date 1991-07-10
_audit_update_record 2015-02-01
_chemical_name_systematic 'Heptasodium triiron(III) tetrakis(diarsenate(V))'
_chemical_formula_structural 'Na7 Fe3 (As2 O7)4'
_chemical_formula_sum 'As8 Fe3 Na7 O28'
_chemical_name_structure_type Na7Fe3(As2O7)4
_exptl_crystal_density_diffrn 3.75
_cell_measurement_temperature 294.
_publ_section_title 'Structure of the sodium ion conductor Na7 Fe3 (As2 O7)4'
loop_
_citation_id
_citation_journal_full
_citation_year
_citation_journal_volume
_citation_page_first
_citation_page_last
_citation_journal_id_ASTM
primary 'Acta Crystallographica, Section C: Crystal Structure Communications'
1990 46 1584 1587 ACSCEE
loop_
_publ_author_name
'Masquelier, C.'
'd'Yvoire, F.'
'Rodier, N.'
_cell_length_a 9.940(1)
_cell_length_b 8.5483(7)
_cell_length_c 28.762(2)
_cell_angle_alpha 90.
_cell_angle_beta 93.683(8)
_cell_angle_gamma 90.
_cell_volume 2438.86
_cell_formula_units_Z 4
_symmetry_space_group_name_H-M 'C 1 2/c 1'
_symmetry_Int_Tables_number 15
_refine_ls_R_factor_all 0.033
loop_
_symmetry_equiv_pos_site_id
_symmetry_equiv_pos_as_xyz
1 'x, -y, z+1/2'
2 '-x, -y, -z'
3 '-x, y, -z+1/2'
4 'x, y, z'
5 'x+1/2, -y+1/2, z+1/2'
6 '-x+1/2, -y+1/2, -z'
7 '-x+1/2, y+1/2, -z+1/2'
8 'x+1/2, y+1/2, z'
loop_
_atom_type_symbol
_atom_type_oxidation_number
As5+ 5
Fe3+ 3
Na1+ 1
O2- -2
loop_
_atom_site_label
_atom_site_type_symbol
_atom_site_symmetry_multiplicity
_atom_site_Wyckoff_symbol
_atom_site_fract_x
_atom_site_fract_y
_atom_site_fract_z
_atom_site_B_iso_or_equiv
_atom_site_occupancy
_atom_site_attached_hydrogens
As1 As5+ 8 f 0.29984(6) 0.29537(7) 0.24664(2) . 1. 0
As2 As5+ 8 f 0.21985(6) 0.16184(7) 0.33893(2) . 1. 0
As3 As5+ 8 f 0.51105(5) 0.66258(7) 0.44285(2) . 1. 0
As4 As5+ 8 f 0.41229(5) 0.79584(7) 0.53617(2) . 1. 0
Fe1 Fe3+ 4 e 0 0.1202(1) 0.25 . 1. 0
Fe2 Fe3+ 8 f 0.31751(8) 0.9771(1) 0.43648(3) . 1. 0
Na1 Na1+ 8 f 0.2783(3) 0.3808(3) 0.4457(1) . 1. 0
Na2 Na1+ 8 f 0.5211(4) 0.3577(4) 0.3561(1) . 0.88 0
Na3 Na1+ 8 f 0.475(2) 0.384(2) 0.3447(7) 2.0(3) 0.16 0
Na4 Na1+ 4 e 0.5 0.0168(8) 0.25 . 0.6 0
Na5 Na1+ 8 f 0.525(2) 0.961(2) 0.3094(6) 2.4(3) 0.2 0
Na6 Na1+ 8 f 0.2957(6) 0.6031(8) 0.3461(2) . 0.63 0
Na7 Na1+ 8 f 0.339(1) 0.719(2) 0.3510(5) 3.6(2) 0.31 0
O1 O2- 8 f 0.3742(4) 0.2214(6) 0.2019(2) . 1. 0
O2 O2- 8 f 0.3623(4) 0.4638(5) 0.2685(2) . 1. 0
O3 O2- 8 f 0.1313(4) 0.2994(5) 0.2385(2) . 1. 0
O4 O2- 8 f 0.3294(4) 0.1598(5) 0.2926(2) . 1. 0
O5 O2- 8 f 0.0632(4) 0.1199(5) 0.3172(2) . 1. 0
O6 O2- 8 f 0.2371(5) 0.3355(6) 0.3626(2) . 1. 0
O7 O2- 8 f 0.2751(5) 0.0041(5) 0.3690(2) . 1. 0
O8 O2- 8 f 0.4772(4) 0.8462(5) 0.4254(2) . 1. 0
O9 O2- 8 f 0.6768(4) 0.6382(5) 0.4532(2) . 1. 0
O10 O2- 8 f 0.4353(4) 0.5292(5) 0.4100(2) . 1. 0
O11 O2- 8 f 0.4463(4) 0.6451(5) 0.4982(2) . 1. 0
O12 O2- 8 f 0.3425(4) 0.9450(5) 0.5056(1) . 1. 0
O13 O2- 8 f 0.5593(4) 0.8364(5) 0.5642(2) . 1. 0
O14 O2- 8 f 0.3086(4) 0.7141(5) 0.5722(1) . 1. 0
loop_
_atom_site_aniso_label
_atom_site_aniso_type_symbol
_atom_site_aniso_beta_11
_atom_site_aniso_beta_22
_atom_site_aniso_beta_33
_atom_site_aniso_beta_12
_atom_site_aniso_beta_13
_atom_site_aniso_beta_23
As1 As5+ 0.00120(4) 0.00241(7) 0.00025(1) -.00055(5) 0.00002(2) 0.00019(2)
As2 As5+ 0.00174(5) 0.00235(7) 0.00017(1) -.00035(5) -.00012(2) 0.00013(2)
As3 As5+ 0.00099(4) 0.00123(6) 0.00024(1) 0.00010(5) 0.00005(2) -.00003(2)
As4 As5+ 0.00083(4) 0.00137(6) 0.00021(1) 0.00000(5) 0.00000(2) 0.00008(2)
Fe1 Fe3+ 0.00101(9) 0.0019(1) 0.00024(1) 0 -.00005(3) 0
Fe2 Fe3+ 0.00110(6) 0.00139(9) 0.00023(1) 0.00005(5) -.00001(2) 0.00008(3)
Na1 Na1+ 0.0041(2) 0.0027(3) 0.00076(3) 0.0009(3) 0.0008(1) 0.0001(1)
Na2 Na1+ 0.0101(4) 0.0063(5) 0.00083(4) 0.0018(4) 0.0012(1) 0.0010(2)
Na4 Na1+ 0.0042(6) 0.0023(8) 0.0020(1) 0 0.0010(3) 0
Na6 Na1+ 0.0110(7) 0.0119(9) 0.00110(8) -.0005(5) -.0014(2) -.0013(3)
O1 O2- 0.0035(4) 0.0039(6) 0.00043(5) 0.0002(4) 0.0005(1) -.0004(2)
O2 O2- 0.0023(4) 0.0032(5) 0.00045(5) -.0012(4) 0.0002(1) -.0001(2)
O3 O2- 0.0016(3) 0.0021(5) 0.00049(5) -.0004(4) -.0001(1) 0.0004(2)
O4 O2- 0.0019(3) 0.0039(5) 0.00026(4) 0.0002(4) 0.0001(1) 0.0006(2)
O5 O2- 0.0012(3) 0.0060(6) 0.00037(5) -.0014(4) -.0003(1) 0.0001(2)
O6 O2- 0.0068(5) 0.0027(5) 0.00047(5) -.0006(3) 0.0002(1) -.0003(2)
O7 O2- 0.0051(4) 0.0020(5) 0.00033(5) -.0003(4) -.0005(1) 0.0002(1)
O8 O2- 0.0017(3) 0.0010(5) 0.00065(5) 0.0004(4) 0.0004(1) 0.0002(2)
O9 O2- 0.0011(3) 0.0021(5) 0.00043(5) 0.0002(4) -.0001(1) -.0001(2)
O10 O2- 0.0025(4) 0.0028(5) 0.00036(5) -.0008(4) -.0002(1) -.0005(2)
O11 O2- 0.0032(4) 0.0021(5) 0.00026(4) 0.0005(4) 0.0004(1) 0.0002(2)
O12 O2- 0.0025(4) 0.0030(5) 0.00016(4) 0.0012(4) 0.0000(1) 0.0002(2)
O13 O2- 0.0021(4) 0.0018(5) 0.00043(5) -.0010(4) -.0004(1) 0.0004(2)
O14 O2- 0.0019(3) 0.0031(5) 0.00026(4) -.0011(4) 0.0003(1) 0.0001(2)
#End of TTdata_68492-ICSD