
#(C) 2019 by FIZ Karlsruhe - Leibniz Institute for Information Infrastructure.  All rights reserved.
data_68619-ICSD
_database_code_ICSD 68619
_audit_creation_date 1991-07-10
_audit_update_record 2012-02-01
_chemical_name_systematic 'Trisodium dinitridoborate'
_chemical_formula_structural 'Na3 (B N2)'
_chemical_formula_sum 'B1 N2 Na3'
_chemical_name_structure_type Na3BN2
_exptl_crystal_density_diffrn 2.15
_publ_section_title

;
Natriumdinitridoborat mit dem linear gebauten, symmetrischen (B N2)(3-) -Anion
;
loop_
_citation_id
_citation_journal_full
_citation_year
_citation_journal_volume
_citation_page_first
_citation_page_last
_citation_journal_id_ASTM
primary 'Journal of the Less-Common Metals' 1990 162 17 22 JCOMAH
loop_
_publ_author_name
'Evers, J.'
'Muensterkoetter, M.'
'Oehlinger, G.'
'Polborn, K.'
'Sendlinger, B.'
_cell_length_a 5.717(1)
_cell_length_b 7.931(1)
_cell_length_c 7.883(1)
_cell_angle_alpha 90.
_cell_angle_beta 111.32(1)
_cell_angle_gamma 90.
_cell_volume 332.97
_cell_formula_units_Z 4
_symmetry_space_group_name_H-M 'P 1 21/c 1'
_symmetry_Int_Tables_number 14
_refine_ls_R_factor_all 0.03
loop_
_symmetry_equiv_pos_site_id
_symmetry_equiv_pos_as_xyz
1 'x, -y+1/2, z+1/2'
2 '-x, -y, -z'
3 '-x, y+1/2, -z+1/2'
4 'x, y, z'
loop_
_atom_type_symbol
_atom_type_oxidation_number
Na1+ 1
B3+ 3
N3- -3
loop_
_atom_site_label
_atom_site_type_symbol
_atom_site_symmetry_multiplicity
_atom_site_Wyckoff_symbol
_atom_site_fract_x
_atom_site_fract_y
_atom_site_fract_z
_atom_site_B_iso_or_equiv
_atom_site_occupancy
_atom_site_attached_hydrogens
Na1 Na1+ 4 e 0.2511(3) 0.4687(2) 0.4921(2) . 1. 0
Na2 Na1+ 4 e 0.2413(3) 0.0218(2) 0.3778(2) . 1. 0
Na3 Na1+ 4 e 0.7424(3) 0.2080(2) 0.3131(3) . 1. 0
B1 B3+ 4 e 0.2133(9) 0.3226(6) 0.1760(7) . 1. 0
N1 N3- 4 e 0.4158(7) 0.4237(4) 0.2241(5) . 1. 0
N2 N3- 4 e 0.0120(6) 0.2206(4) 0.1303(5) . 1. 0
loop_
_atom_site_aniso_label
_atom_site_aniso_type_symbol
_atom_site_aniso_U_11
_atom_site_aniso_U_22
_atom_site_aniso_U_33
_atom_site_aniso_U_12
_atom_site_aniso_U_13
_atom_site_aniso_U_23
Na1 Na1+ 0.0173(11) 0.0224(10) 0.0174(11) -.0004(9) 0.0068(8) -.0012(9)
Na2 Na1+ 0.0205(11) 0.0250(11) 0.0178(11) 0.0029(9) 0.0051(9) 0.0021(9)
Na3 Na1+ 0.0182(10) 0.0158(10) 0.0205(9) -.0010(9) 0.0063(8) -.0007(9)
B1 B3+ 0.0151(31) 0.0130(27) 0.0089(27) 0.0099(26) 0.0038(22) -.0002(24)
N1 N3- 0.0154(22) 0.0150(21) 0.0184(22) 0.0002(18) 0.0067(18) 0.0017(18)
N2 N3- 0.0124(21) 0.0175(21) 0.0153(22) -.0017(22) 0.0036(17) 0.0003(19)
#End of TTdata_68619-ICSD