
#(C) 2019 by FIZ Karlsruhe - Leibniz Institute for Information Infrastructure.  All rights reserved.
data_68913-ICSD
_database_code_ICSD 68913
_audit_creation_date 1992-01-20
_audit_update_record 1999-06-02
_chemical_name_systematic 'Sodium tecto-alumotrisilicate'
_chemical_formula_structural 'Na Al Si3 O8'
_chemical_formula_sum 'Al1 Na1 O8 Si3'
_chemical_name_structure_type Feldspar#-(TC)-Albite-NaAlSi3O8
_chemical_name_mineral 'Albite low'
_exptl_crystal_density_diffrn 2.62
_publ_section_title
'Variation of displacement parameters in structure refinements of low albite'
loop_
_citation_id
_citation_journal_full
_citation_year
_citation_journal_volume
_citation_page_first
_citation_page_last
_citation_journal_id_ASTM
primary 'American Mineralogist' 1990 75 135 140 AMMIAY
loop_
_publ_author_name
'Armbruster, T.'
'Buergi, H.B.'
'Kunz, M.'
'Gnos, E.'
'Broennimann, S.'
'Lienert, C.'
_cell_length_a 8.137(1)
_cell_length_b 12.785(1)
_cell_length_c 7.1583(4)
_cell_angle_alpha 94.26(1)
_cell_angle_beta 116.60(1)
_cell_angle_gamma 87.71(1)
_cell_volume 664.01
_cell_formula_units_Z 4
_symmetry_space_group_name_H-M 'C -1'
_symmetry_Int_Tables_number 2
_refine_ls_R_factor_all 0.02
loop_
_symmetry_equiv_pos_site_id
_symmetry_equiv_pos_as_xyz
1 '-x, -y, -z'
2 'x, y, z'
3 '-x+1/2, -y+1/2, -z'
4 'x+1/2, y+1/2, z'
loop_
_atom_type_symbol
_atom_type_oxidation_number
Al3+ 3
Si4+ 4
Na1+ 1
O2- -2
loop_
_atom_site_label
_atom_site_type_symbol
_atom_site_symmetry_multiplicity
_atom_site_Wyckoff_symbol
_atom_site_fract_x
_atom_site_fract_y
_atom_site_fract_z
_atom_site_B_iso_or_equiv
_atom_site_occupancy
_atom_site_attached_hydrogens
Al1 Al3+ 4 i 0.00887(4) 0.16846(2) 0.20805(4) . 1. 0
Si1 Si4+ 4 i 0.00375(3) 0.82051(2) 0.23737(3) . 1. 0
Si2 Si4+ 4 i 0.69162(3) 0.11021(2) 0.31466(4) . 1. 0
Si3 Si4+ 4 i 0.68129(3) 0.88190(2) 0.36076(4) . 1. 0
Na1 Na1+ 4 i 0.26799(8) 0.98865(6) 0.1465(1) . 1. 0
O1 O2- 4 i 0.0049(1) 0.13103(5) 0.9666(1) . 1. 0
O2 O2- 4 i 0.59176(8) 0.99756(5) 0.2804(1) . 1. 0
O3 O2- 4 i 0.8123(1) 0.10966(6) 0.1901(1) . 1. 0
O4 O2- 4 i 0.8200(1) 0.85101(6) 0.2587(1) . 1. 0
O5 O2- 4 i 0.01288(9) 0.30238(5) 0.2706(1) . 1. 0
O6 O2- 4 i 0.02329(9) 0.69368(5) 0.2291(1) . 1. 0
O7 O2- 4 i 0.20780(9) 0.10896(5) 0.3890(1) . 1. 0
O8 O2- 4 i 0.1840(1) 0.86817(6) 0.4362(1) . 1. 0
loop_
_atom_site_aniso_label
_atom_site_aniso_type_symbol
_atom_site_aniso_U_11
_atom_site_aniso_U_22
_atom_site_aniso_U_33
_atom_site_aniso_U_12
_atom_site_aniso_U_13
_atom_site_aniso_U_23
Al1 Al3+ 0.0074(1) 0.0068(1) 0.0061(1) -.00086(7) 0.00310(8) 0.00045(7)
Si1 Si4+ 0.00679(9) 0.00646(9) 0.00552(8) 0.00111(6) 0.00299(7) 0.00080(6)
Si2 Si4+ 0.00612(9) 0.00548 0.00729(9) -.00023(6) 0.00247(7) 0.00040(6)
Si3 Si4+ 0.00602(9) 0.00554(9) 0.00744(9) 0.00063(6) 0.00280(7) 0.00090(6)
Na1 Na1+ 0.0136(2) 0.0471(4) 0.0315(3) -.0050(2) 0.0084(2) -.0219(3)
O1 O2- 0.0164(3) 0.0122(2) 0.0074(2) -.0002(2) 0.0067(2) 0.0014(2)
O2 O2- 0.0074(2) 0.0056(2) 0.0119(2) 0.0003(2) 0.0033(2) 0.0020(2)
O3 O2- 0.0117(2) 0.0130(3) 0.0162(3) -.0040(2) 0.0093(2) -.0017(2)
O4 O2- 0.0134(3) 0.0179(3) 0.0216(3) 0.0046(2) 0.0129(3) 0.0020(6)
O5 O2- 0.0103(2) 0.0076(2) 0.0150(3) -.0020(2) 0.0052(2) -.0009(2)
O6 O2- 0.0101(2) 0.0071(2) 0.0145(3) 0.0022(2) 0.0034(2) 0.0012(2)
O7 O2- 0.0120(3) 0.0129(3) 0.0080(2) 0.0024(2) 0.0013(2) 0.0015(2)
O8 O2- 0.0140(3) 0.0140(3) 0.0084(2) -.0026(2) -.0002(2) -.0006(2)
#End of TTdata_68913-ICSD