
#(C) 2019 by FIZ Karlsruhe - Leibniz Institute for Information Infrastructure.  All rights reserved.
data_68981-ICSD
_database_code_ICSD 68981
_audit_creation_date 1992-01-20
_audit_update_record 2013-08-01
_chemical_name_systematic 'Sodium iron fluoride'
_chemical_formula_structural 'Na Fe F3'
_chemical_formula_sum 'F3 Fe1 Na1'
_chemical_name_structure_type Perovskite-GdFeO3
_exptl_crystal_density_diffrn 3.69
_publ_section_title
'Ueber Fluoride des zweiwertigen Eisens : zum Aufbau von NaFeF3'
loop_
_citation_id
_citation_journal_full
_citation_year
_citation_journal_volume
_citation_page_first
_citation_page_last
_citation_journal_id_ASTM
primary 'Journal of Fluorine Chemistry' 1990 46 283 295 JFLCAR
loop_
_publ_author_name
'Benner, G.'
'Hoppe, R.'
_cell_length_a 5.6575(9)
_cell_length_b 7.8754(13)
_cell_length_c 5.4833(11)
_cell_angle_alpha 90.
_cell_angle_beta 90.
_cell_angle_gamma 90.
_cell_volume 244.31
_cell_formula_units_Z 4
_symmetry_space_group_name_H-M 'P n m a'
_symmetry_Int_Tables_number 62
_refine_ls_R_factor_all 0.029
loop_
_symmetry_equiv_pos_site_id
_symmetry_equiv_pos_as_xyz
1 'x+1/2, y, -z+1/2'
2 'x, -y+1/2, z'
3 '-x+1/2, y+1/2, z+1/2'
4 '-x, -y, -z'
5 '-x+1/2, -y, z+1/2'
6 '-x, y+1/2, -z'
7 'x+1/2, -y+1/2, -z+1/2'
8 'x, y, z'
loop_
_atom_type_symbol
_atom_type_oxidation_number
Na1+ 1
Fe2+ 2
F1- -1
loop_
_atom_site_label
_atom_site_type_symbol
_atom_site_symmetry_multiplicity
_atom_site_Wyckoff_symbol
_atom_site_fract_x
_atom_site_fract_y
_atom_site_fract_z
_atom_site_B_iso_or_equiv
_atom_site_occupancy
_atom_site_attached_hydrogens
Na1 Na1+ 4 c 0.0543(2) 0.25 0.9865(2) . 1. 0
Fe1 Fe2+ 4 b 0.5 0 0 . 1. 0
F1 F1- 4 c 0.4559(3) 0.25 0.1087(3) . 1. 0
F2 F1- 8 d 0.3011(2) 0.0566(2) 0.6920(2) . 1. 0
loop_
_atom_site_aniso_label
_atom_site_aniso_type_symbol
_atom_site_aniso_U_11
_atom_site_aniso_U_22
_atom_site_aniso_U_33
_atom_site_aniso_U_12
_atom_site_aniso_U_13
_atom_site_aniso_U_23
Na1 Na1+ 0.0132(5) 0.0250(6) 0.0217(6) 0 -.0033(5) 0
Fe1 Fe2+ 0.0053(2) 0.0078(2) 0.0095(2) 0.0003(3) 0.0003(1) 0.0002(2)
F1 F1- 0.0146(37) 0.0093(7) 0.0189(8) 0 -.0005(7) 0
F2 F1- 0.0111(5) 0.0221(6) 0.0182(6) -.0047(5) -.0055(5) 0.0046(5)
#End of TTdata_68981-ICSD