
#(C) 2019 by FIZ Karlsruhe - Leibniz Institute for Information Infrastructure.  All rights reserved.
data_68992-ICSD
_database_code_ICSD 68992
_audit_creation_date 1992-01-20
_chemical_name_systematic 'Sodium iron(III) silicon oxide (0.8/0.8/0.2/2)'
_chemical_formula_structural 'Na0.82 (Fe0.83 Si0.17) O2'
_chemical_formula_sum 'Fe0.83 Na0.82 O2 Si0.17'
_chemical_name_structure_type (NaFe)1-xSixO2
_exptl_crystal_density_diffrn 3.21
_publ_section_title

;
A structural study of the incorporation of silica into sodium ferrites, Na1-x
(Fe1-x Six O2), x= O to 0.20
;
loop_
_citation_id
_citation_journal_full
_citation_year
_citation_journal_volume
_citation_page_first
_citation_page_last
_citation_journal_id_ASTM
primary 'Journal of Solid State Chemistry' 1990 85 202 219 JSSCBI
loop_
_publ_author_name
'Grey, I.E.'
'Hoskins, B.F.'
'Madsen, I.C.'
_cell_length_a 5.3804(2)
_cell_length_b 10.7438(4)
_cell_length_c 14.6014(4)
_cell_angle_alpha 90.
_cell_angle_beta 90.
_cell_angle_gamma 90.
_cell_volume 844.05
_cell_formula_units_Z 16
_symmetry_space_group_name_H-M 'P b c a'
_symmetry_Int_Tables_number 61
_refine_ls_R_factor_all 0.037
loop_
_symmetry_equiv_pos_site_id
_symmetry_equiv_pos_as_xyz
1 'x+1/2, y, -z+1/2'
2 'x, -y+1/2, z+1/2'
3 '-x+1/2, y+1/2, z'
4 '-x, -y, -z'
5 '-x+1/2, -y, z+1/2'
6 '-x, y+1/2, -z+1/2'
7 'x+1/2, -y+1/2, -z'
8 'x, y, z'
loop_
_atom_type_symbol
_atom_type_oxidation_number
Fe3+ 3
Si4+ 4
Fe3+ 3
Si4+ 4
Na1+ 1
O2- -2
loop_
_atom_site_label
_atom_site_type_symbol
_atom_site_symmetry_multiplicity
_atom_site_Wyckoff_symbol
_atom_site_fract_x
_atom_site_fract_y
_atom_site_fract_z
_atom_site_B_iso_or_equiv
_atom_site_occupancy
_atom_site_attached_hydrogens
Fe1 Fe3+ 8 c 0.1953(7) 0.0273(4) 0.1877(4) 0.41(7) 0.81(2) 0
Si1 Si4+ 8 c 0.1953(7) 0.0273(4) 0.1877(4) 0.41(7) 0.19(2) 0
Fe2 Fe3+ 8 c 0.3055(7) 0.2766(4) 0.0598(3) 0.41(7) 0.85(1) 0
Si2 Si4+ 8 c 0.3055(7) 0.2766(4) 0.0598(3) 0.41(7) 0.15(1) 0
Na1 Na1+ 8 c 0.710(2) -.012(1) 0.061(1) 1.28(14) 0.88(1) 0
Na2 Na1+ 8 c 0.826(2) 0.281(1) 0.194(1) 1.28(14) 0.76(1) 0
O1 O2- 8 c 0.639(2) 0.272(1) 0.040(1) 1.22(12) 1. 0
O2 O2- 8 c 0.196(3) 0.438(1) 0.086(1) 1.22(12) 1. 0
O3 O2- 8 c 0.222(2) 0.190(1) 0.167(1) 1.22(12) 1. 0
O4 O2- 8 c 0.129(2) 0.485(1) 0.284(1) 1.22(12) 1. 0
#End of TTdata_68992-ICSD