
#(C) 2019 by FIZ Karlsruhe - Leibniz Institute for Information Infrastructure.  All rights reserved.
data_69009-ICSD
_database_code_ICSD 69009
_audit_creation_date 1992-01-20
_audit_update_record 2010-02-01
_chemical_name_systematic 'Disodium beryllium silicate'
_chemical_formula_structural 'Na2 Be (Si O4)'
_chemical_formula_sum 'Be1 Na2 O4 Si1'
_chemical_name_structure_type Na2BeSiO4
_exptl_crystal_density_diffrn 2.91
_cell_measurement_temperature 295.
_publ_section_title

;
The crystal structure and twinning laws of the orthorhombic modification of
Na2 Be Si O4
;
loop_
_citation_id
_citation_journal_full
_citation_year
_citation_journal_volume
_citation_page_first
_citation_page_last
_citation_journal_id_ASTM
primary 'Journal of Solid State Chemistry' 1990 86 64 74 JSSCBI
loop_
_publ_author_name
'Maksimov, B.'
'Tamazyan, R.'
'Sirota, M.I.'
'Frostaeng, S.'
'Grins, J.'
'Nygren, M.'
_cell_length_a 9.861(2)
_cell_length_b 4.911(1)
_cell_length_c 13.875(3)
_cell_angle_alpha 90.
_cell_angle_beta 90.
_cell_angle_gamma 90.
_cell_volume 671.93
_cell_formula_units_Z 8
_symmetry_space_group_name_H-M 'P c a 21'
_symmetry_Int_Tables_number 29
_refine_ls_R_factor_all 0.049
loop_
_symmetry_equiv_pos_site_id
_symmetry_equiv_pos_as_xyz
1 'x+1/2, -y, z'
2 '-x+1/2, y, z+1/2'
3 '-x, -y, z+1/2'
4 'x, y, z'
loop_
_atom_type_symbol
_atom_type_oxidation_number
Be2+ 2
Si4+ 4
Na1+ 1
O2- -2
loop_
_atom_site_label
_atom_site_type_symbol
_atom_site_symmetry_multiplicity
_atom_site_Wyckoff_symbol
_atom_site_fract_x
_atom_site_fract_y
_atom_site_fract_z
_atom_site_B_iso_or_equiv
_atom_site_occupancy
_atom_site_attached_hydrogens
Be1 Be2+ 4 a 0.2464(19) 0.9954(52) 0.4449(22) 0.4 1. 0
Be2 Be2+ 4 a 0.0314(13) 0.5206(36) 0.6928(19) 0.4 1. 0
Si1 Si4+ 4 a 0.0122(5) 0.0281(8) 0.8184(5) 0.71(4) 1. 0
Si2 Si4+ 4 a 0.2297(3) 0.5144(11) 0.0739 0.28(2) 1. 0
Na1 Na1+ 4 a 0.0045(7) 0.5187(15) 0.9496(7) 2.07(8) 1. 0
Na2 Na1+ 4 a 0.0080(6) 0.0147(15) 0.5664(6) 1.52(8) 1. 0
Na3 Na1+ 4 a 0.2265(7) 0.5334(14) 0.3226(7) 2.16(7) 1. 0
Na4 Na1+ 4 a 0.2352(6) 0.0347(15) 0.1925(8) 2.10(9) 1. 0
O1 O2- 4 a 0.1705(11) 0.0831(24) 0.8512(9) 1.80(6) 1. 0
O2 O2- 4 a 0.1725(10) 0.5965(21) 0.6639(8) 0.88(9) 1. 0
O3 O2- 4 a 0.1946(9) 0.2852(22) 0.5060(8) 1.01(11) 1. 0
O4 O2- 4 a 0.1932(10) 0.7674(20) 0.0068(9) 1.16(8) 1. 0
O5 O2- 4 a 0.0876(12) 0.8772(15) 0.4065(9) 1.56(6) 1. 0
O6 O2- 4 a 0.0918(10) 0.3859(20) 0.1157(8) 0.69(8) 1. 0
O7 O2- 4 a 0.0118(11) 0.7999(19) 0.2209(8) 1.10(7) 1. 0
O8 O2- 4 a 0.012(1) 0.3008(8) 0.2980(9) 0.88(8) 1. 0
#End of TTdata_69009-ICSD