
#(C) 2017 by FIZ Karlsruhe - Leibniz Institute for Information Infrastructure.  All rights reserved.
data_69046-ICSD
_database_code_ICSD 69046
_audit_creation_date 1992-01-20
_chemical_name_systematic
'Lithium titanium(III) nickel fluoride (0.9/0.9/1.2/6)'
_chemical_formula_structural '(Li0.9 Ti0.9 Ni.2) Ni F6'
_chemical_formula_sum 'F6 Li0.9 Ni1.2 Ti0.9'
_chemical_name_structure_type ZnSb2O6
_exptl_crystal_density_diffrn 3.88
_publ_section_title

;
High-pressure synthesis of LiTiMF6(M=Mn,Fe,Co,Ni) with trirutile, Na2SiF6, and
PbSb2O6 structures
;
loop_
_citation_id
_citation_journal_full
_citation_year
_citation_journal_volume
_citation_page_first
_citation_page_last
_citation_journal_id_ASTM
primary 'Journal of Solid State Chemistry' 1990 88 505 512 JSSCBI
loop_
_publ_author_name
'Sekino, T.'
'Endo, T.'
'Sato, T.'
'Shimada, M.'
_cell_length_a 4.664
_cell_length_b 4.664
_cell_length_c 9.21
_cell_angle_alpha 90.
_cell_angle_beta 90.
_cell_angle_gamma 90.
_cell_volume 200.34
_cell_formula_units_Z 2
_symmetry_space_group_name_H-M 'P 42/m n m'
_symmetry_Int_Tables_number 136
_refine_ls_R_factor_all 0.037
loop_
_symmetry_equiv_pos_site_id
_symmetry_equiv_pos_as_xyz
1 '-y+1/2, x+1/2, -z+1/2'
2 'y+1/2, -x+1/2, -z+1/2'
3 'y, x, -z'
4 '-y, -x, -z'
5 'y+1/2, -x+1/2, z+1/2'
6 '-y+1/2, x+1/2, z+1/2'
7 '-y, -x, z'
8 'y, x, z'
9 'x+1/2, -y+1/2, -z+1/2'
10 '-x+1/2, y+1/2, -z+1/2'
11 'x, y, -z'
12 '-x, -y, -z'
13 '-x+1/2, y+1/2, z+1/2'
14 'x+1/2, -y+1/2, z+1/2'
15 '-x, -y, z'
16 'x, y, z'
loop_
_atom_type_symbol
_atom_type_oxidation_number
Ni2+ 2
Li1+ 1
Ti3+ 3
Ni2+ 2
F1- -1
loop_
_atom_site_label
_atom_site_type_symbol
_atom_site_symmetry_multiplicity
_atom_site_Wyckoff_symbol
_atom_site_fract_x
_atom_site_fract_y
_atom_site_fract_z
_atom_site_B_iso_or_equiv
_atom_site_occupancy
_atom_site_attached_hydrogens
Ni1 Ni2+ 2 a 0 0 0 0.585 1. 0
Li1 Li1+ 4 e 0 0 0.3316 0.73 0.45 0
Ti1 Ti3+ 4 e 0 0 0.3316 0.73 0.45 0
Ni2 Ni2+ 4 e 0 0 0.3316 0.73 0.1 0
F1 F1- 4 f 0.299 0.299 0 0.945 1. 0
F2 F1- 8 j 0.3005 0.3005 0.3393 0.458 1. 0
#End of TTdata_69046-ICSD