
#(C) 2019 by FIZ Karlsruhe - Leibniz Institute for Information Infrastructure.  All rights reserved.
data_69107-ICSD
_database_code_ICSD 69107
_audit_creation_date 1992-01-20
_chemical_name_systematic 'Sodium titanium oxide (0.6/2/4)'
_chemical_formula_structural 'Na0.57 Ti2 O4'
_chemical_formula_sum 'Na0.57 O4 Ti2'
_exptl_crystal_density_diffrn 3.64
_publ_section_title 'Crystal structure of NaxTi2O4 with 0.50<x<0.57'
loop_
_citation_id
_citation_journal_full
_citation_year
_citation_journal_volume
_citation_page_first
_citation_page_last
_citation_journal_id_ASTM
primary 'Journal of Solid State Chemistry' 1991 90 92 101 JSSCBI
loop_
_publ_author_name
'Akimoto, J.'
'Takei, H.'
_cell_length_a 9.486(2)
_cell_length_b 11.307(3)
_cell_length_c 2.9450(8)
_cell_angle_alpha 90.
_cell_angle_beta 90.
_cell_angle_gamma 90.
_cell_volume 315.88
_cell_formula_units_Z 4
_symmetry_space_group_name_H-M 'P n a m'
_symmetry_Int_Tables_number 62
_refine_ls_R_factor_all 0.054
loop_
_symmetry_equiv_pos_site_id
_symmetry_equiv_pos_as_xyz
1 'x+1/2, -y+1/2, z'
2 'x, y, -z+1/2'
3 '-x+1/2, y+1/2, z+1/2'
4 '-x, -y, -z'
5 '-x+1/2, y+1/2, -z'
6 '-x, -y, z+1/2'
7 'x+1/2, -y+1/2, -z+1/2'
8 'x, y, z'
loop_
_atom_type_symbol
_atom_type_oxidation_number
Na1+ 1
Ti3+ 3.715
O2- -2
loop_
_atom_site_label
_atom_site_type_symbol
_atom_site_symmetry_multiplicity
_atom_site_Wyckoff_symbol
_atom_site_fract_x
_atom_site_fract_y
_atom_site_fract_z
_atom_site_B_iso_or_equiv
_atom_site_occupancy
_atom_site_attached_hydrogens
Na1 Na1+ 4 c 0.0914(9) 0.6059(8) 0.25 . 0.34(1) 0
Na2 Na1+ 4 c 0.3958(15) 0.0672(14) 0.25 . 0.23(1) 0
Ti1 Ti3+ 4 c 0.26365(10) 0.83821(9) 0.25 . 1. 0
Ti2 Ti3+ 4 c 0.02034(9) 0.12121(8) 0.25 . 1. 0
O1 O2- 4 c 0.3696(4) 0.6921(3) 0.25 . 1. 0
O2 O2- 4 c 0.1421(4) 0.4074(3) 0.25 . 1. 0
O3 O2- 4 c 0.3635(4) 0.2706(3) 0.25 . 1. 0
O4 O2- 4 c 0.1033(3) 0.9608(3) 0.25 . 1. 0
loop_
_atom_site_aniso_label
_atom_site_aniso_type_symbol
_atom_site_aniso_beta_11
_atom_site_aniso_beta_22
_atom_site_aniso_beta_33
_atom_site_aniso_beta_12
_atom_site_aniso_beta_13
_atom_site_aniso_beta_23
Na1 Na1+ 0.0042(9) 0.0014(6) 0.14(2) 0.0007(5) 0 0
Na2 Na1+ 0.0043(16) 0.0036(13) 0.49(9) -.0019(11) 0 0
Ti1 Ti3+ 0.00144(7) 0.00261(7) 0.0133(8) 0.00059(6) 0 0
Ti2 Ti3+ 0.00103(6) 0.00142(5) 0.0167(8) 0.00003(5) 0 0
O1 O2- 0.0020(3) 0.0022(3) 0.016(4) 0.0008(2) 0 0
O2 O2- 0.0013(3) 0.0022(3) 0.014(3) 0.0005(2) 0 0
O3 O2- 0.0013(3) 0.0012(2) 0.015(3) -.0001(2) 0 0
O4 O2- 0.0008(3) 0.0015(2) 0.017(3) 0.0004(2) 0 0
#End of TTdata_69107-ICSD