
#(C) 2019 by FIZ Karlsruhe - Leibniz Institute for Information Infrastructure.  All rights reserved.
data_69110-ICSD
_database_code_ICSD 69110
_audit_creation_date 1992-01-20
_audit_update_record 2012-08-01
_chemical_name_systematic 'Sodium titanium oxide (1/8/13)'
_chemical_formula_structural 'Na Ti8 O13'
_chemical_formula_sum 'Na1 O13 Ti8'
_exptl_crystal_density_diffrn 4.17
_publ_section_title 'Synthesis and crystal structure of NaTi8O13'
loop_
_citation_id
_citation_journal_full
_citation_year
_citation_journal_volume
_citation_page_first
_citation_page_last
_citation_journal_id_ASTM
primary 'Journal of Solid State Chemistry' 1991 90 147 154 JSSCBI
loop_
_publ_author_name
'Akimoto, J.'
'Takei, H.'
_cell_length_a 7.7544(7)
_cell_length_b 7.7544(7)
_cell_length_c 14.073(3)
_cell_angle_alpha 90.
_cell_angle_beta 90.
_cell_angle_gamma 120.
_cell_volume 732.85
_cell_formula_units_Z 3
_symmetry_space_group_name_H-M 'R -3 H'
_symmetry_Int_Tables_number 148
_refine_ls_R_factor_all 0.033
loop_
_symmetry_equiv_pos_site_id
_symmetry_equiv_pos_as_xyz
1 'x-y, x, -z'
2 'y, -x+y, -z'
3 '-x, -y, -z'
4 '-x+y, -x, z'
5 '-y, x-y, z'
6 'x, y, z'
7 'x-y+2/3, x+1/3, -z+1/3'
8 'y+2/3, -x+y+1/3, -z+1/3'
9 '-x+2/3, -y+1/3, -z+1/3'
10 '-x+y+2/3, -x+1/3, z+1/3'
11 '-y+2/3, x-y+1/3, z+1/3'
12 'x+2/3, y+1/3, z+1/3'
13 'x-y+1/3, x+2/3, -z+2/3'
14 'y+1/3, -x+y+2/3, -z+2/3'
15 '-x+1/3, -y+2/3, -z+2/3'
16 '-x+y+1/3, -x+2/3, z+2/3'
17 '-y+1/3, x-y+2/3, z+2/3'
18 'x+1/3, y+2/3, z+2/3'
loop_
_atom_type_symbol
_atom_type_oxidation_number
Na1+ 1
Ti3+ 3.125
O2- -2
loop_
_atom_site_label
_atom_site_type_symbol
_atom_site_symmetry_multiplicity
_atom_site_Wyckoff_symbol
_atom_site_fract_x
_atom_site_fract_y
_atom_site_fract_z
_atom_site_B_iso_or_equiv
_atom_site_occupancy
_atom_site_attached_hydrogens
Na1 Na1+ 3 b 0 0 0.5 . 1. 0
Ti1 Ti3+ 18 f 0.22984(7) 0.02680(7) 0.08112(3) . 1. 0
Ti2 Ti3+ 6 c 0 0 0.72759(5) . 1. 0
O1 O2- 3 a 0 0 0 . 1. 0
O2 O2- 18 f 0.1575(3) 0.2381(3) 0.66147(13) . 1. 0
O3 O2- 18 f 0.4843(3) 0.1177(3) 0.16088(12) . 1. 0
loop_
_atom_site_aniso_label
_atom_site_aniso_type_symbol
_atom_site_aniso_beta_11
_atom_site_aniso_beta_22
_atom_site_aniso_beta_33
_atom_site_aniso_beta_12
_atom_site_aniso_beta_13
_atom_site_aniso_beta_23
Na1 Na1+ 0.0377(13) 0.0377(13) 0.0019(2) 0.0188(7) 0 0
Ti1 Ti3+ 0.00181(7) 0.00222(8) 0.00042(2) 0.00097(6) -.0008(3) -.00014(3)
Ti2 Ti3+ 0.00185(8) 0.00185(8) 0.00054(3) 0.00093(4) 0 0
O1 O2- 0.0080(7) 0.0080(7) 0.0013(2) 0.0040(4) 0 0
O2 O2- 0.0033(3) 0.0021(3) 0.00068(7) 0.0010(3) 0.0005(1) 0.0003(1)
O3 O2- 0.0020(3) 0.0029(3) 0.00046(6) 0.0011(3) -.0001(1) -.0001(1)
#End of TTdata_69110-ICSD