
#(C) 2019 by FIZ Karlsruhe - Leibniz Institute for Information Infrastructure.  All rights reserved.
data_69122-ICSD
_database_code_ICSD 69122
_audit_creation_date 1992-01-20
_chemical_name_systematic 'Disodium hexacalcium disilicate bis(silicate)'
_chemical_formula_structural 'Na2 Ca6 (Si2 O7) (Si O4)2'
_chemical_formula_sum 'Ca6 Na2 O15 Si4'
_exptl_crystal_density_diffrn 3.04
_publ_section_title

;
Crystal growth and structures of mixed-anion silicates-germanates: Ca5((Ge,
Si)2O7)(Ge, Si)O4) and Na2Ca6(Si2O7)(SiO4)2
;
loop_
_citation_id
_citation_journal_full
_citation_year
_citation_journal_volume
_citation_page_first
_citation_page_last
_citation_journal_id_ASTM
primary 'American Mineralogist' 1990 75 963 969 AMMIAY
loop_
_publ_author_name
'Armbruster, T.'
'Roethlisberger, F.'
_cell_length_a 5.525(1)
_cell_length_b 17.413(5)
_cell_length_c 14.489(2)
_cell_angle_alpha 90.
_cell_angle_beta 90.57(1)
_cell_angle_gamma 90.
_cell_volume 1393.87
_cell_formula_units_Z 4
_symmetry_space_group_name_H-M 'P 1 21/c 1'
_symmetry_Int_Tables_number 14
_refine_ls_R_factor_all 0.025
loop_
_symmetry_equiv_pos_site_id
_symmetry_equiv_pos_as_xyz
1 'x, -y+1/2, z+1/2'
2 '-x, -y, -z'
3 '-x, y+1/2, -z+1/2'
4 'x, y, z'
loop_
_atom_type_symbol
_atom_type_oxidation_number
Na1+ 1
Ca2+ 2
Na1+ 1
Ca2+ 2
Na1+ 1
Ca2+ 2
Si4+ 4
O2- -2
loop_
_atom_site_label
_atom_site_type_symbol
_atom_site_symmetry_multiplicity
_atom_site_Wyckoff_symbol
_atom_site_fract_x
_atom_site_fract_y
_atom_site_fract_z
_atom_site_B_iso_or_equiv
_atom_site_occupancy
_atom_site_attached_hydrogens
Na1 Na1+ 4 e 0.7174(1) 0.43889(4) 0.4516(1) . 0.35(1) 0
Ca1 Ca2+ 4 e 0.7174(1) 0.43889(4) 0.4516(1) . 0.65(1) 0
Na2 Na1+ 4 e 0.2481(2) 0.2755(1) 0.1549(1) . 0.65(1) 0
Ca2 Ca2+ 4 e 0.2481(12) 0.2755(1) 0.1549(1) . 0.35(1) 0
Na3 Na1+ 4 e 0.2274(2) 0.6503(1) 0.2985(1) . 1. 0
Ca3 Ca2+ 4 e 0.2446(1) 0.74221(3) 0.98536(4) . 1. 0
Ca4 Ca2+ 4 e 0.1948(1) 0.56255(3) 0.09917(4) . 1. 0
Ca5 Ca2+ 4 e 0.7049(1) 0.73337(3) 0.12063(4) . 1. 0
Ca6 Ca2+ 4 e 0.2888(1) 0.56823(4) 0.85372(3) . 1. 0
Ca7 Ca2+ 4 e 0.2538(1) 0.44438(3) 0.29060(4) . 1. 0
Si1 Si4+ 4 e 0.7302(1) 0.59724(4) 0.98371(5) . 1. 0
Si2 Si4+ 4 e 0.2044(1) 0.80792(4) 0.21690(5) . 1. 0
Si3 Si4+ 4 e 0.7257(1) 0.57795(4) 0.2677(1) . 1. 0
Si4 Si4+ 4 e 0.7812(1) 0.61555(4) 0.4710(1) . 1. 0
O1 O2- 4 e 0.6865(3) 0.5639(1) 0.3805(1) . 1. 0
O2 O2- 4 e 0.4700(3) 0.6346(1) 0.0073(1) . 1. 0
O3 O2- 4 e 0.4800(3) 0.5464(1) 0.2202(1) . 1. 0
O4 O2- 4 e -.0622(3) 0.6581(1) 0.0163(1) . 1. 0
O5 O2- 4 e 0.2598(4) 0.4171(1) 0.1272(1) . 1. 0
O6 O2- 4 e 0.0556(3) 0.8563(1) 0.9557(1) . 1. 0
O7 O2- 4 e 0.2902(4) 0.7382(1) 0.1509(1) . 1. 0
O8 O2- 4 e -.0437(3) 0.5287(1) 0.2342(1) . 1. 0
O9 O2- 4 e 0.3571(4) 0.6132(1) 0.6975(1) . 1. 0
O10 O2- 4 e 0.2245(3) 0.4832(1) 0.9643(1) . 1. 0
O11 O2- 4 e 0.217(3) 0.7118(3) 0.8282(3) 0.8(1) 0.52(5) 0
O12 O2- 4 e 0.282(3) 0.7111(3) 0.8259(4) 0.9(1) 0.48(5) 0
O13 O2- 4 e 0.6014(4) 0.8128(1) 0.9865(2) . 1. 0
O14 O2- 4 e 0.9175(3) 0.8248(1) 0.2009(1) . 1. 0
O15 O2- 4 e 0.7703(4) 0.6680(1) 0.2539(1) . 1. 0
O16 O2- 4 e 0.199(3) 0.4506(3) 0.4493(4) 0.5(2) 0.38(4) 0
O17 O2- 4 e 0.268(2) 0.4492(2) 0.4495(3) 1.1(1) 0.62(4) 0
loop_
_atom_site_aniso_label
_atom_site_aniso_type_symbol
_atom_site_aniso_U_11
_atom_site_aniso_U_22
_atom_site_aniso_U_33
_atom_site_aniso_U_12
_atom_site_aniso_U_13
_atom_site_aniso_U_23
Na1 Na1+ 0.0216(4) 0.0115(4) 0.0135(4) 0.0015(3) -.0053(3) 0.0001(3)
Ca1 Ca2+ 0.0216(4) 0.0115(4) 0.0135(4) 0.0015(3) -.0053(3) 0.0001(3)
Na2 Na1+ 0.0295(6) 0.0122(5) 0.0154(5) 0.0022(4) 0.0052(4) 0.0034(4)
Ca2 Ca2+ 0.0295(6) 0.0122(5) 0.0154(5) 0.0022(4) 0.0052(4) 0.0034(4)
Na3 Na1+ 0.0220(6) 0.0154(6) 0.0224(6) 0.0002(5) 0.0036(5) -.0061(5)
Ca3 Ca2+ 0.0089(2) 0.0083(2) 0.0112(3) 0.0006(2) 0.0008(2) 0.0008(2)
Ca4 Ca2+ 0.0098(2) 0.0146(3) 0.0080(2) 0.0004(2) 0.0001(2) 0.0026(2)
Ca5 Ca2+ 0.0129(2) 0.0103(3) 0.0103(3) 0.0000(2) 0.0008(2) 0.0001(2)
Ca6 Ca2+ 0.0155(3) 0.0122(3) 0.0099(3) -.0014(2) -.0003(2) 0.0024(2)
Ca7 Ca2+ 0.0098(2) 0.0089(2) 0.0079(2) 0.0004(2) 0.0006(2) 0.0012(2)
Si1 Si4+ 0.0066(3) 0.0064(3) 0.0061(3) 0.0002(3) 0.0000(2) 0.0003(3)
Si2 Si4+ 0.0105(3) 0.0086(3) 0.0054(3) 0.0000(3) 0.0001(3) -.0006(3)
Si3 Si4+ 0.0066(3) 0.0063(3) 0.0060(3) -.0006(3) 0.0003(2) 0.0004(2)
Si4 Si4+ 0.0092(3) 0.0069(3) 0.0070(3) 0.0002(3) 0.0003(3) -.0007(3)
O1 O2- 0.017(1) 0.0128(9) 0.0057(9) -.0052(8) 0.0012(7) -.0010(7)
O2 O2- 0.0072(8) 0.0117(9) 0.019(1) 0.0032(7) 0.0037(8) 0.0016(8)
O3 O2- 0.0083(8) 0.0135(9) 0.0106(9) -.0018(7) -.0019(7) 0.0014(7)
O4 O2- 0.0097(9) 0.0125(9) 0.017(1) -.0029(7) -.0009(7) -.0038(8)
O5 O2- 0.024(1) 0.013(1) 0.0072(9) 0.0001(8) 0.0008(8) -.0007(7)
O6 O2- 0.013(1) 0.016(1) 0.018(1) 0.0042(8) -.0006(8) 0.0003(8)
O7 O2- 0.019(1) 0.018(1) 0.012(1) 0.0045(8) 0.0014(8) -.0055(8)
O8 O2- 0.0098(9) 0.019(1) 0.012(1) 0.0055(8) 0.0013(7) 0.0020(8)
O9 O2- 0.016(1) 0.016(1) 0.013(1) 0.0083(8) 0.0009(8) -.0004(8)
O10 O2- 0.0151(9) 0.0099(9) 0.013(1) 0.0018(8) -.0006(8) 0.0028(8)
O13 O2- 0.020(1) 0.021(1) 0.024(1) -.0112(9) -.0041(9) 0.0094(9)
O14 O2- 0.0113(9) 0.0110(9) 0.023(1) 0.0010(8) -.0011(8) -.0003(8)
O15 O2- 0.029(1) 0.0088(9) 0.014(1) -.0050(8) -.0019(9) 0.0021(8)
#End of TTdata_69122-ICSD