
#(C) 2019 by FIZ Karlsruhe - Leibniz Institute for Information Infrastructure.  All rights reserved.
data_69166-ICSD
_database_code_ICSD 69166
_audit_creation_date 1992-01-20
_chemical_name_systematic 'Sodium potassium zinc germanate (1.4/0.6/1/1)'
_chemical_formula_structural '(Na1.4 K0.6) Zn (Ge O4)'
_chemical_formula_sum 'Ge1 K0.6 Na1.4 O4 Zn1'
_chemical_name_structure_type Na2BeSiO4
_exptl_crystal_density_diffrn 3.97
_publ_section_title

;
The crystal structure in relation to the mixed-alkali effect of the filled
cristobalite-type ionic conductor (Na1.4K0.6)ZnGeO4
;
loop_
_citation_id
_citation_journal_full
_citation_year
_citation_journal_volume
_citation_page_first
_citation_page_last
_citation_journal_id_ASTM
primary 'Materials Research Bulletin' 1990 25 371 379 MRBUAC
loop_
_publ_author_name
'Grins, J.'
_cell_length_a 10.7399(11)
_cell_length_b 5.3616(5)
_cell_length_c 14.9796(16)
_cell_angle_alpha 90.
_cell_angle_beta 90.
_cell_angle_gamma 90.
_cell_volume 862.57
_cell_formula_units_Z 8
_symmetry_space_group_name_H-M 'P c a 21'
_symmetry_Int_Tables_number 29
_refine_ls_R_factor_all 0.086
loop_
_symmetry_equiv_pos_site_id
_symmetry_equiv_pos_as_xyz
1 'x+1/2, -y, z'
2 '-x+1/2, y, z+1/2'
3 '-x, -y, z+1/2'
4 'x, y, z'
loop_
_atom_type_symbol
_atom_type_oxidation_number
Zn2+ 2
Ge4+ 4
Na1+ 1
K1+ 1
Na1+ 1
K1+ 1
O2- -2
loop_
_atom_site_label
_atom_site_type_symbol
_atom_site_symmetry_multiplicity
_atom_site_Wyckoff_symbol
_atom_site_fract_x
_atom_site_fract_y
_atom_site_fract_z
_atom_site_B_iso_or_equiv
_atom_site_occupancy
_atom_site_attached_hydrogens
Zn1 Zn2+ 4 a 0.2336(10) 0.0113(18) 0.4356(8) 1.0(1) 1. 0
Zn2 Zn2+ 4 a 0.0167(10) 0.5239(15) 0.6894(8) 1.0(1) 1. 0
Ge1 Ge4+ 4 a 0.0167(10) 0.0239(15) 0.8106(8) 1.0(1) 1. 0
Ge2 Ge4+ 4 a 0.2336(10) 0.5113(18) 0.0644(8) 1.0(1) 1. 0
Na1 Na1+ 4 a 0.9990(28) 0.5193(65) 0.9343(25) 1.8(3) 1. 0
Na2 Na1+ 4 a 0.9990(28) 0.0193(65) 0.5657(25) 1.8(3) 1. 0
Na3 Na1+ 4 a 0.2260(18) 0.5382(33) 0.3189(15) 0.2(2) 0.4 0
K1 K1+ 4 a 0.2260(18) 0.5382(33) 0.3189(15) 0.2(2) 0.6 0
Na4 Na1+ 4 a 0.2260(18) 0.0382(33) 0.1811(15) 0.2(2) 0.4 0
K2 K1+ 4 a 0.2260(18) 0.0382(33) 0.1811(15) 0.2(2) 0.6 0
O1 O2- 4 a 0.1747(38) 0.1413(83) 0.8482(28) 1.4(2) 1. 0
O2 O2- 4 a 0.1747(38) 0.6413(83) 0.6518(28) 1.4(2) 1. 0
O3 O2- 4 a 0.1707(38) 0.2698(73) 0.5012(35) 1.4(2) 1. 0
O4 O2- 4 a 0.1707(38) 0.7698(73) 0.9988(35) 1.4(2) 1. 0
O5 O2- 4 a 0.0825(38) 0.8546(83) 0.4023(28) 1.4(2) 1. 0
O6 O2- 4 a 0.0825(38) 0.3546(83) 0.0977(28) 1.4(2) 1. 0
O7 O2- 4 a 0.0078(38) 0.8062(68) 0.2017(30) 1.4(2) 1. 0
O8 O2- 4 a 0.0078(38) 0.3062(68) 0.2983(30) 1.4(2) 1. 0
#End of TTdata_69166-ICSD