
#(C) 2018 by FIZ Karlsruhe - Leibniz Institute for Information Infrastructure.  All rights reserved.
data_69197-ICSD
_database_code_ICSD 69197
_audit_creation_date 1992-01-20
_chemical_name_systematic 'Lithium iron(III) diphosphate'
_chemical_formula_structural 'Li Fe (P2 O7)'
_chemical_formula_sum 'Fe1 Li1 O7 P2'
_chemical_name_structure_type LiInP2O7
_exptl_crystal_density_diffrn 3.08
_publ_section_title 'LiFeP2O7: Structure and magnetic properties'
loop_
_citation_id
_citation_journal_full
_citation_year
_citation_journal_volume
_citation_page_first
_citation_page_last
_citation_journal_id_ASTM
primary 'Materials Research Bulletin' 1990 25 1363 1369 MRBUAC
loop_
_publ_author_name
'Riou, D.'
'Nguyen, N.'
'Benloucif, R.'
'Raveau, B.'
_cell_length_a 4.8229(2)
_cell_length_b 8.0813(5)
_cell_length_c 6.9419(6)
_cell_angle_alpha 90.
_cell_angle_beta 109.387(5)
_cell_angle_gamma 90.
_cell_volume 255.22
_cell_formula_units_Z 2
_symmetry_space_group_name_H-M 'P 1 21 1'
_symmetry_Int_Tables_number 4
_refine_ls_R_factor_all 0.028
loop_
_symmetry_equiv_pos_site_id
_symmetry_equiv_pos_as_xyz
1 '-x, y+1/2, -z'
2 'x, y, z'
loop_
_atom_type_symbol
_atom_type_oxidation_number
Li1+ 1
Fe3+ 3
P5+ 5
O2- -2
loop_
_atom_site_label
_atom_site_type_symbol
_atom_site_symmetry_multiplicity
_atom_site_Wyckoff_symbol
_atom_site_fract_x
_atom_site_fract_y
_atom_site_fract_z
_atom_site_B_iso_or_equiv
_atom_site_occupancy
_atom_site_attached_hydrogens
Li1 Li1+ 2 a 0.803(2) 0.384(1) 0.819(1) 2.0(1) 1. 0
Fe1 Fe3+ 2 a 0.21948(7) 0.25 0.23398(5) 0.387(3) 1. 0
P1 P5+ 2 a 0.7939(1) 0.47040(9) 0.41633(9) 0.406(7) 1. 0
P2 P5+ 2 a 0.6008(1) 0.07093(9) 0.98019(9) 0.368(7) 1. 0
O1 O2- 2 a 0.4029(4) 0.0722(3) 0.1099(3) 0.68(2) 1. 0
O2 O2- 2 a 0.8141(4) 0.2156(2) 0.0198(3) 0.61(2) 1. 0
O3 O2- 2 a 0.1318(4) 0.0616(3) 0.3813(3) 0.70(2) 1. 0
O4 O2- 2 a 0.0619(4) 0.4302(3) 0.3611(3) 0.84(3) 1. 0
O5 O2- 2 a 0.2481(4) 0.4056(2) 0.0103(3) 0.58(2) 1. 0
O6 O2- 2 a 0.3985(4) 0.1016(3) 0.7475(3) 0.73(3) 1. 0
O7 O2- 2 a 0.6082(4) 0.3197(3) 0.4183(3) 0.78(3) 1. 0
#End of TTdata_69197-ICSD