
#(C) 2018 by FIZ Karlsruhe - Leibniz Institute for Information Infrastructure.  All rights reserved.
data_69412-ICSD
_database_code_ICSD 69412
_audit_creation_date 1992-08-20
_audit_update_record 2005-10-01
_chemical_name_systematic 'Dilithium tecto-dialumotrisilicate dihydrate'
_chemical_formula_structural 'Li2 (Al2 Si3 O10) (H2 O)2'
_chemical_formula_sum 'H4 Al2 Li2 O12 Si3'
_chemical_name_structure_type Natrolite-frame
_chemical_name_mineral 'Natrolite (Li-exchanged)'
_exptl_crystal_density_diffrn 2.17
_publ_section_title

;
Disorder in natrolites: structure determinations of three disordered
natrolites and one lithium-exchanged disordered natrolite
;
loop_
_citation_id
_citation_journal_full
_citation_year
_citation_journal_volume
_citation_page_first
_citation_page_last
_citation_journal_id_ASTM
primary 'European Journal of Mineralogy' 1990 2 799 807 EJMIER
loop_
_publ_author_name
'Krogh Andersen, E.'
'Krogh Andersen, I.G.'
'Ploug-Sorensen, G.'
_cell_length_a 17.7040(40)
_cell_length_b 18.5400(50)
_cell_length_c 6.495(2)
_cell_angle_alpha 90.
_cell_angle_beta 90.
_cell_angle_gamma 90.
_cell_volume 2131.87
_cell_formula_units_Z 8
_symmetry_space_group_name_H-M 'F d d 2'
_symmetry_Int_Tables_number 43
_refine_ls_R_factor_all 0.029
loop_
_symmetry_equiv_pos_site_id
_symmetry_equiv_pos_as_xyz
1 'x+1/4, -y+1/4, z+1/4'
2 '-x+1/4, y+1/4, z+1/4'
3 '-x, -y, z'
4 'x, y, z'
5 'x+1/4, -y+3/4, z+3/4'
6 '-x+1/4, y+3/4, z+3/4'
7 '-x, -y+1/2, z+1/2'
8 'x, y+1/2, z+1/2'
9 'x+3/4, -y+1/4, z+3/4'
10 '-x+3/4, y+1/4, z+3/4'
11 '-x+1/2, -y, z+1/2'
12 'x+1/2, y, z+1/2'
13 'x+3/4, -y+3/4, z+1/4'
14 '-x+3/4, y+3/4, z+1/4'
15 '-x+1/2, -y+1/2, z'
16 'x+1/2, y+1/2, z'
loop_
_atom_type_symbol
_atom_type_oxidation_number
Li1+ 1
Si4+ 4
Al3+ 3
Si4+ 4
Al3+ 3
Si4+ 4
Al3+ 3
O2- -2
H1+ 1
loop_
_atom_site_label
_atom_site_type_symbol
_atom_site_symmetry_multiplicity
_atom_site_Wyckoff_symbol
_atom_site_fract_x
_atom_site_fract_y
_atom_site_fract_z
_atom_site_B_iso_or_equiv
_atom_site_occupancy
_atom_site_attached_hydrogens
Li1 Li1+ 16 b 0.21741(40) 0.04133(40) 0.6291(16) 0.0338(15) 1. 0
Si1 Si4+ 8 a 0 0 0 0.0109(2) 0.8 0
Al1 Al3+ 8 a 0 0 0 0.0109(2) 0.2 0
Si2 Si4+ 16 b 0.14928(4) 0.21576(4) 0.62275(23) . 0.8 0
Al2 Al3+ 16 b 0.14928(4) 0.21576(4) 0.62275(23) . 0.2 0
Si3 Si4+ 16 b 0.03634(5) 0.09378(4) 0.61732(24) . 0.3 0
Al3 Al3+ 16 b 0.03634(5) 0.09378(4) 0.61732(24) . 0.7 0
O1 O2- 16 b 0.01118(14) 0.07259(12) 0.86229(48) . 1. 0
O2 O2- 16 b 0.06507(12) 0.18149(11) 0.6057(5) . 1. 0
O3 O2- 16 b 0.10470(13) 0.03534(13) 0.52832(45) . 1. 0
O4 O2- 16 b 0.20910(13) 0.15562(12) 0.70626(46) . 1. 0
O5 O2- 16 b 0.17395(14) 0.24112(13) 0.39022(49) . 1. 0
O6 O2- 16 b 0.04165(15) 0.20075(15) 0.11604(62) . 1. 0
H1 H1+ 16 b 0.0409 0.1595 0.0211 0.0083 1. 0
H2 H1+ 16 b 0.0909 0.1973 0.1579 0.0083 1. 0
loop_
_atom_site_aniso_label
_atom_site_aniso_type_symbol
_atom_site_aniso_U_11
_atom_site_aniso_U_22
_atom_site_aniso_U_33
_atom_site_aniso_U_12
_atom_site_aniso_U_13
_atom_site_aniso_U_23
Si2 Si4+ 0.0104(3) 0.0106(3) 0.0078(3) -.0002(2) -.0002(3) -.0006(3)
Al2 Al3+ 0.0104(3) 0.0106(3) 0.0078(3) -.0002(2) -.0002(3) -.0006(3)
Si3 Si4+ 0.0109(3) 0.0063(3) 0.0070(4) -.0001(3) -.0006(3) -.0001(3)
Al3 Al3+ 0.0109(3) 0.0063(3) 0.0070(4) -.0001(3) -.0006(3) -.0001(3)
O1 O2- 0.0303(12) 0.0144(10) 0.0157(11) 0.0036(9) 0.0027(11) 0.0023(10)
O2 O2- 0.0120(9) 0.0099(9) 0.0240(12) -.0019(7) -.0004(10) 0.0003(10)
O3 O2- 0.0177(10) 0.0167(10) 0.0164(12) 0.0025(8) -.0021(9) -.0050(9)
O4 O2- 0.0189(10) 0.016(1) 0.0169(12) 0.0041(8) -.0050(9) -.0009(9)
O5 O2- 0.0176(11) 0.0246(11) 0.0162(12) 0.0015(9) 0.0043(9) 0.0039(11)
O6 O2- 0.0263(11) 0.0290(13) 0.0285(14) 0.0053(10) 0.0006(14) 0.0017(14)
#End of TTdata_69412-ICSD