
#(C) 2019 by FIZ Karlsruhe - Leibniz Institute for Information Infrastructure.  All rights reserved.
data_69451-ICSD
_database_code_ICSD 69451
_audit_creation_date 1992-08-20
_audit_update_record 2012-02-01
_chemical_name_systematic 'Sodium potassium tricopper oxide tris(sulfate(VI))'
_chemical_formula_structural 'Na K Cu3 O (S O4)3'
_chemical_formula_sum 'Cu3 K1 Na1 O13 S3'
_chemical_name_structure_type NaKCu3O(SO4)3
_chemical_name_mineral Euchlorine
_exptl_crystal_density_diffrn 3.28
_publ_section_title 'The crystal structure of euchlorine, Na K Cu3 O (S O4)3'
loop_
_citation_id
_citation_journal_full
_citation_year
_citation_journal_volume
_citation_page_first
_citation_page_last
_citation_journal_id_ASTM
primary 'Neues Jahrbuch fuer Mineralogie, Abhandlungen' 1990 161 241 253 NJMIAK
loop_
_publ_author_name
'Scordari, F.'
'Stasi, F.'
_cell_length_a 18.410(50)
_cell_length_b 9.43(3)
_cell_length_c 14.21(5)
_cell_angle_alpha 90.
_cell_angle_beta 113.7(3)
_cell_angle_gamma 90.
_cell_volume 2258.89
_cell_formula_units_Z 8
_symmetry_space_group_name_H-M 'C 1 2/c 1'
_symmetry_Int_Tables_number 15
_refine_ls_R_factor_all 0.048
loop_
_symmetry_equiv_pos_site_id
_symmetry_equiv_pos_as_xyz
1 'x, -y, z+1/2'
2 '-x, -y, -z'
3 '-x, y, -z+1/2'
4 'x, y, z'
5 'x+1/2, -y+1/2, z+1/2'
6 '-x+1/2, -y+1/2, -z'
7 '-x+1/2, y+1/2, -z+1/2'
8 'x+1/2, y+1/2, z'
loop_
_atom_type_symbol
_atom_type_oxidation_number
Cu2+ 2
S6+ 6
K1+ 1
Na1+ 1
O2- -2
loop_
_atom_site_label
_atom_site_type_symbol
_atom_site_symmetry_multiplicity
_atom_site_Wyckoff_symbol
_atom_site_fract_x
_atom_site_fract_y
_atom_site_fract_z
_atom_site_B_iso_or_equiv
_atom_site_occupancy
_atom_site_attached_hydrogens
Cu1 Cu2+ 8 f 0.5831(2) 0.2551(4) 0.2947(2) . 1. 0
Cu2 Cu2+ 8 f 0.4831(2) 0.9817(4) 0.3440(2) . 1. 0
Cu3 Cu2+ 8 f 0.5163(2) 0.5258(4) 0.3612(2) . 1. 0
S1 S6+ 8 f 0.6557(4) 0.9693(8) 0.3692(5) . 1. 0
S2 S6+ 8 f 0.6542(4) 0.5428(7) 0.2926(5) . 1. 0
S3 S6+ 8 f 0.5018(4) 0.7520(9) 0.5157(4) . 1. 0
K1 K1+ 8 f 0.6932(3) 0.2382(10) 0.6287(5) . 1. 0
Na1 Na1+ 8 f 0.6750(6) 0.7639(16) 0.5467(8) . 1. 0
O1 O2- 4 e 0.5 0.1138(31) 0.25 0.011(6) 1. 0
O2 O2- 4 e 0.5 0.3978(30) 0.25 0.009(6) 1. 0
O3 O2- 8 f 0.5983(11) 0.9410(19) 0.4153(14) 0.019(4) 1. 0
O4 O2- 8 f 0.7289(10) 0.9001(21) 0.4300(14) 0.021(4) 1. 0
O5 O2- 8 f 0.6225(10) 0.9216(19) 0.2622(13) 0.013(4) 1. 0
O6 O2- 8 f 0.6691(11) 0.1206(21) 0.3685(14) 0.021(5) 1. 0
O7 O2- 8 f 0.6666(11) 0.3888(22) 0.3106(14) 0.022(5) 1. 0
O8 O2- 8 f 0.7294(10) 0.6130(22) 0.3117(14) 0.024(5) 1. 0
O9 O2- 8 f 0.6193(10) 0.6006(20) 0.3593(13) 0.017(4) 1. 0
O10 O2- 8 f 0.5989(10) 0.5676(18) 0.1863(13) 0.016(4) 1. 0
O11 O2- 8 f 0.4576(9) 0.8540(17) 0.4340(11) 0.003(3) 1. 0
O12 O2- 8 f 0.444(1) 0.6771(20) 0.5456(13) 0.016(4) 1. 0
O13 O2- 8 f 0.5613(9) 0.8252(19) 0.6058(13) 0.012(4) 1. 0
O14 O2- 8 f 0.5469(10) 0.6474(19) 0.4790(13) 0.014(4) 1. 0
loop_
_atom_site_aniso_label
_atom_site_aniso_type_symbol
_atom_site_aniso_U_11
_atom_site_aniso_U_22
_atom_site_aniso_U_33
_atom_site_aniso_U_12
_atom_site_aniso_U_13
_atom_site_aniso_U_23
Cu1 Cu2+ 0.009(2) 0.009(1) 0.017(2) 0.001(2) 0.005(1) 0.001(1)
Cu2 Cu2+ 0.014(2) 0.012(2) 0.010(2) 0.001(2) 0.007(1) 0.005(2)
Cu3 Cu2+ 0.011(1) 0.014(2) 0.011(2) -.001(2) 0.004(1) -.006(2)
S1 S6+ 0.008(3) 0.015(3) 0.014(3) 0.004(3) 0.008(3) 0.005(3)
S2 S6+ 0.011(3) 0.013(4) 0.010(3) 0.002(3) 0.003(3) 0.002(3)
S3 S6+ 0.013(3) 0.009(3) 0.010(3) 0.003(3) 0.003(3) 0.001(4)
K1 K1+ 0.009(3) 0.049(5) 0.034(3) 0.004(3) 0.004(3) -.009(4)
Na1 Na1+ 0.016(6) 0.021(7) 0.031(6) 0.008(5) 0.010(5) 0.009(6)
#End of TTdata_69451-ICSD