
#(C) 2019 by FIZ Karlsruhe - Leibniz Institute for Information Infrastructure.  All rights reserved.
data_69490-ICSD
_database_code_ICSD 69490
_audit_creation_date 1992-08-20
_chemical_name_systematic 'Trisodium tetraselenidoarsenate nonahydrate'
_chemical_formula_structural 'Na3 (As Se4) (H2 O)9'
_chemical_formula_sum 'H18 As1 Na3 O9 Se4'
_chemical_name_structure_type Na3SbS4(H2O)9
_exptl_crystal_density_diffrn 2.3
_publ_section_title

;
Selenoarsenate aus waessriger Loesung. Die Kristallstruktur von Na3AsO3Se .
12H2O und Na3AsSe4 . 9H2O
;
loop_
_citation_id
_citation_journal_full
_citation_year
_citation_journal_volume
_citation_page_first
_citation_page_last
_citation_journal_id_ASTM
primary 'Zeitschrift fuer Anorganische und Allgemeine Chemie (1950) (DE)' 1990
581 141 152 ZAACAB
loop_
_publ_author_name
'Krebs, B.'
'Huerter, H.U.'
'Enax, J.'
'Froehlich, R.'
_cell_length_a 12.149(3)
_cell_length_b 12.149(3)
_cell_length_c 12.149(3)
_cell_angle_alpha 90.
_cell_angle_beta 90.
_cell_angle_gamma 90.
_cell_volume 1793.17
_cell_formula_units_Z 4
_symmetry_space_group_name_H-M 'P 21 3'
_symmetry_Int_Tables_number 198
_refine_ls_R_factor_all 0.045
loop_
_symmetry_equiv_pos_site_id
_symmetry_equiv_pos_as_xyz
1 '-z+1/2, -x, y+1/2'
2 '-y+1/2, -z, x+1/2'
3 '-x+1/2, -y, z+1/2'
4 '-z, x+1/2, -y+1/2'
5 '-y, z+1/2, -x+1/2'
6 '-x, y+1/2, -z+1/2'
7 'z+1/2, -x+1/2, -y'
8 'y+1/2, -z+1/2, -x'
9 'x+1/2, -y+1/2, -z'
10 'z, x, y'
11 'y, z, x'
12 'x, y, z'
loop_
_atom_type_symbol
_atom_type_oxidation_number
As5+ 5
Se2- -2
Na1+ 1
O2- -2
H1+ 1
loop_
_atom_site_label
_atom_site_type_symbol
_atom_site_symmetry_multiplicity
_atom_site_Wyckoff_symbol
_atom_site_fract_x
_atom_site_fract_y
_atom_site_fract_z
_atom_site_B_iso_or_equiv
_atom_site_occupancy
_atom_site_attached_hydrogens
As1 As5+ 4 a 0.03895(8) 0.03895(8) 0.03895(8) . 1. 0
Se1 Se2- 4 a 0.92864(9) 0.92864(9) 0.92864(9) . 1. 0
Se2 Se2- 12 b 0.14868(9) 0.14713(9) 0.92675(9) . 1. 0
Na1 Na1+ 4 a 0.2938(9) 0.2938(9) 0.2938(9) . 1. 0
Na2 Na1+ 4 a 0.4489(9) 0.4489(9) 0.4489(9) . 1. 0
Na3 Na1+ 4 a 0.5997(9) 0.5997(9) 0.5997(9) . 1. 0
O1 O2- 12 b -.0260(6) 0.3721(5) 0.9222(6) . 1. 0
O2 O2- 12 b 0.1791(6) 0.6970(6) 0.9900(6) . 1. 0
O3 O2- 12 b 0.1066(7) 0.2606(7) 0.3311(6) . 1. 0
H1 H1+ 12 b 0.022 0.309 0.916 3.48(27) 1. 0
H2 H1+ 12 b 0.923 0.367 0.861 3.48(27) 1. 0
H3 H1+ 12 b 0.244 0.668 0.023 4.75(32) 1. 0
H4 H1+ 12 b 0.155 0.758 0.037 4.75(32) 1. 0
H5 H1+ 12 b 0.057 0.236 0.27 3.79(28) 1. 0
H6 H1+ 12 b 0.064 0.318 0.37 3.79(28) 1. 0
loop_
_atom_site_aniso_label
_atom_site_aniso_type_symbol
_atom_site_aniso_B_11
_atom_site_aniso_B_22
_atom_site_aniso_B_33
_atom_site_aniso_B_12
_atom_site_aniso_B_13
_atom_site_aniso_B_23
As1 As5+ 1.82(3) 1.82(3) 1.82(3) 0 0 0
Se1 Se2- 2.86(4) 2.86(4) 2.86(4) 0 0 0
Se2 Se2- 2.06(4) 2.52(5) 2.85(5) 0.27(4) 0.00(4) 0.52(4)
Na1 Na1+ 2.83(14) 2.83(14) 2.83(14) 0 0 0
Na2 Na1+ 2.62(12) 2.62(12) 2.62(12) 0 0 0
Na3 Na1+ 2.87(14) 2.87(14) 2.87(14) 0 0 0
O1 O2- 2.6(3) 3.0(3) 3.0(3) 0.7(3) 0.3(3) -.6(3)
O2 O2- 4.3(4) 4.1(4) 3.5(4) 0.3(4) -.5(3) -.4(3)
O3 O2- 3.1(3) 2.8(3) 3.7(4) -.5(3) -.1(3) 0.1(3)
#End of TTdata_69490-ICSD