
#(C) 2019 by FIZ Karlsruhe - Leibniz Institute for Information Infrastructure.  All rights reserved.
data_69544-ICSD
_database_code_ICSD 69544
_audit_creation_date 1992-08-20
_audit_update_record 2012-08-01
_chemical_name_systematic 'Disodium tetraammonium cyclo-hexaphosphate dihydrate'
_chemical_formula_structural 'Na2 (N H4)4 (P6 O18) (H2 O)2'
_chemical_formula_sum 'H20 N4 Na2 O20 P6'
_exptl_crystal_density_diffrn 2.02
_publ_section_title

;
Crystal chemistry of cyclo-hexaphosphates. XV.Structures of sodium ammonium
cyclo-hexaphosphate dihydrate and sodium rubidium cyclo-hexaphosphate
hexahydrate
;
loop_
_citation_id
_citation_journal_full
_citation_year
_citation_journal_volume
_citation_page_first
_citation_page_last
_citation_journal_id_ASTM
primary 'Acta Crystallographica, Section C: Crystal Structure Communications'
1991 47 932 936 ACSCEE
loop_
_publ_author_name
'Averbuch-Pouchot, M.T.'
'Durif, A.'
_cell_length_a 13.363(7)
_cell_length_b 11.580(12)
_cell_length_c 6.809(5)
_cell_angle_alpha 90.
_cell_angle_beta 101.87(5)
_cell_angle_gamma 90.
_cell_volume 1031.12
_cell_formula_units_Z 2
_symmetry_space_group_name_H-M 'P 1 21/n 1'
_symmetry_Int_Tables_number 14
_refine_ls_R_factor_all 0.023
loop_
_symmetry_equiv_pos_site_id
_symmetry_equiv_pos_as_xyz
1 '-x+1/2, y+1/2, -z+1/2'
2 '-x, -y, -z'
3 'x+1/2, -y+1/2, z+1/2'
4 'x, y, z'
loop_
_atom_type_symbol
_atom_type_oxidation_number
P5+ 5
Na1+ 1
N3- -3
O2- -2
H1+ 1
loop_
_atom_site_label
_atom_site_type_symbol
_atom_site_symmetry_multiplicity
_atom_site_Wyckoff_symbol
_atom_site_fract_x
_atom_site_fract_y
_atom_site_fract_z
_atom_site_B_iso_or_equiv
_atom_site_occupancy
_atom_site_attached_hydrogens
P1 P5+ 4 e 0.34893(2) 0.46059(3) 0.17916(5) . 1. 0
P2 P5+ 4 e 0.64252(2) 0.33170(3) 0.04981(5) . 1. 0
P3 P5+ 4 e 0.48112(2) 0.25573(3) 0.25302(5) . 1. 0
Na1 Na1+ 4 e 0.21742(4) 0.20204(5) 0.07810(8) . 1. 0
N1 N3- 4 e 0.3615(1) 0.3627(1) 0.6722(2) . 1. 0
N2 N3- 4 e 0.4228(1) 0.9419(1) 0.2449(2) . 1. 0
O1 O2- 4 e 0.19563(8) 0.01024(9) 0.1591(2) . 1. 0
O2 O2- 4 e 0.21796(8) 0.89388(9) 0.4819(2) . 1. 0
O3 O2- 4 e 0.40730(7) 0.55918(8) 0.0805(2) . 1. 0
O4 O2- 4 e 0.05342(7) 0.88645(8) 0.2186(2) . 1. 0
O5 O2- 4 e 0.30563(8) 0.74226(9) 0.0757(2) . 1. 0
O6 O2- 4 e 0.30041(8) 0.6299(1) 0.7528(2) . 1. 0
O7 O2- 4 e 0.03826(7) 0.23126(9) 0.5683(2) . 1. 0
O8 O2- 4 e 0.44628(8) 0.7746(1) 0.5604(2) . 1. 0
O9 O2- 4 e 0.39182(7) 0.18145(8) 0.1808(2) . 1. 0
O10 O2- 4 e 0.3760(1) -.0035(1) 0.7902(2) . 1. 0
H1 H1+ 4 e 0.338(2) 0.365(3) 0.807(5) 3.8(7) 1. 0
H2 H1+ 4 e 0.428(2) 0.343(3) 0.685(5) 3.4(7) 1. 0
H3 H1+ 4 e 0.319(2) 0.313(3) 0.593(5) 3.6(7) 1. 0
H4 H1+ 4 e 0.154(3) 0.924(3) 0.898(5) 4.6(8) 1. 0
H5 H1+ 4 e 0.069(2) 0.399(3) 0.139(5) 3.4(7) 1. 0
H6 H1+ 4 e 0.479(2) 0.953(3) 0.225(5) 4.0(7) 1. 0
H7 H1+ 4 e 0.113(2) 0.501(3) 0.237(5) 3.8(7) 1. 0
H8 H1+ 4 e 0.384(2) 0.897(3) 0.175(5) 3.7(7) 1. 0
H9 H1+ 4 e 0.178(3) 0.553(3) 0.718(5) 4.5(8) 1. 0
H10 H1+ 4 e 0.157(3) 0.452(3) 0.812(5) 4.6(8) 1. 0
loop_
_atom_site_aniso_label
_atom_site_aniso_type_symbol
_atom_site_aniso_beta_11
_atom_site_aniso_beta_22
_atom_site_aniso_beta_33
_atom_site_aniso_beta_12
_atom_site_aniso_beta_13
_atom_site_aniso_beta_23
P1 P5+ 0.00192(1) 0.00193(1) 0.00779(5) 0.00018(1) 0.00115(2) 0.00005(3)
P2 P5+ 0.00189(1) 0.00262(2) 0.00695(5) -.00032(2) 0.00128(2) 0.00016(3)
P3 P5+ 0.00160(1) 0.00199(1) 0.00981(5) 0.00012(1) 0.00129(2) 0.00149(3)
Na1 Na1+ 0.00221(2) 0.00288(3) 0.00901(9) -.00022(3) 0.00113(4) 0.0000(1)
N1 N3- 0.00374(7) 0.0059(1) 0.0106(2) -.00030(5) 0.0010(1) 0.0008(2)
N2 N3- 0.00386(6) 0.00322(7) 0.00164(3) -.00015(5) 0.0013(1) 0.0009(2)
O1 O2- 0.00409(5) 0.00313(6) 0.0120(2) -.00075(5) 0.0041(1) -.0002(1)
O2 O2- 0.00288(5) 0.00314(6) 0.0101(2) 0.00053(5) -.0004(1) -.0004(1)
O3 O2- 0.00225(4) 0.00262(5) 0.0124(2) 0.00003(4) 0.0019(1) 0.0011(1)
O4 O2- 0.00250(4) 0.00262(5) 0.0119(2) -.00066(4) -.0002(1) 0.0006(1)
O5 O2- 0.00329(4) 0.00335(6) 0.0122(2) 0.00076(5) 0.0033(1) 0.0007(1)
O6 O2- 0.00355(5) 0.00578(8) 0.0075(2) -.00205(5) 0.0005(1) 0.0004(1)
O7 O2- 0.00244(4) 0.00351(6) 0.0101(2) 0.00104(4) 0.0022(1) 0.0008(1)
O8 O2- 0.00258(5) 0.00467(7) 0.0133(2) 0.00015(5) 0.0008(1) 0.0044(1)
O9 O2- 0.00188(4) 0.00247(5) 0.0208(3) -.00033(4) 0.0018(1) 0.0013(1)
O10 O2- 0.00347(6) 0.0075(1) 0.0243(4) 0.00130(5) 0.0005(2) -.0026(2)
#End of TTdata_69544-ICSD