
#(C) 2019 by FIZ Karlsruhe - Leibniz Institute for Information Infrastructure.  All rights reserved.
data_69602-ICSD
_database_code_ICSD 69602
_audit_creation_date 1992-08-20
_audit_update_record 2012-08-01
_chemical_name_systematic 'Sodium tecto-gallotrisilicate - low-form'
_chemical_formula_structural 'Na (Ga Si3 O8)'
_chemical_formula_sum 'Ga1 Na1 O8 Si3'
_chemical_name_structure_type Feldspar#-(TC)-Albite-NaAlSi3O8
_chemical_name_mineral Unnamed_Feldspar
_exptl_crystal_density_diffrn 3.01
_publ_section_title

;
Structures of low gallium albite (NaGaSi3O4) and intermediate germanium albite
(NaAlGe3O8): tetrahedral-site ordering in sodium feldspar
;
loop_
_citation_id
_citation_journal_full
_citation_year
_citation_journal_volume
_citation_page_first
_citation_page_last
_citation_journal_id_ASTM
primary 'American Mineralogist' 1991 76 92 99 AMMIAY
loop_
_publ_author_name
'Fleet, M.E.'
_cell_length_a 8.161(2)
_cell_length_b 12.851(2)
_cell_length_c 7.191(1)
_cell_angle_alpha 94.39(1)
_cell_angle_beta 116.52(1)
_cell_angle_gamma 87.38(1)
_cell_volume 672.78
_cell_formula_units_Z 4
_symmetry_space_group_name_H-M 'C -1'
_symmetry_Int_Tables_number 2
_refine_ls_R_factor_all 0.023
loop_
_symmetry_equiv_pos_site_id
_symmetry_equiv_pos_as_xyz
1 '-x, -y, -z'
2 'x, y, z'
3 '-x+1/2, -y+1/2, -z'
4 'x+1/2, y+1/2, z'
loop_
_atom_type_symbol
_atom_type_oxidation_number
Na1+ 1
Ga3+ 3
Si4+ 4
Ga3+ 3
Si4+ 4
Ga3+ 3
Si4+ 4
Ga3+ 3
Si4+ 4
O2- -2
loop_
_atom_site_label
_atom_site_type_symbol
_atom_site_symmetry_multiplicity
_atom_site_Wyckoff_symbol
_atom_site_fract_x
_atom_site_fract_y
_atom_site_fract_z
_atom_site_B_iso_or_equiv
_atom_site_occupancy
_atom_site_attached_hydrogens
Na1 Na1+ 4 i 0.2689(2) 0.9877(1) 0.1484(2) . 1. 0
Ga1 Ga3+ 4 i 0.00922(5) 0.16994(3) 0.20489(6) . 0.935(1) 0
Si1 Si4+ 4 i 0.00922(5) 0.16994(3) 0.20489(6) . 0.065(1) 0
Ga2 Ga3+ 4 i 0.0013(1) 0.8197(1) 0.2414(1) . 0.016(1) 0
Si2 Si4+ 4 i 0.0013(1) 0.8197(1) 0.2414(1) . 0.984(1) 0
Ga3 Ga3+ 4 i 0.6929(1) 0.1098(1) 0.3118(1) . 0.025(1) 0
Si3 Si4+ 4 i 0.6929(1) 0.1098(1) 0.3118(1) . 0.975(1) 0
Ga4 Ga3+ 4 i 0.6782(1) 0.8826(1) 0.3618(1) . 0.025(1) 0
Si4 Si4+ 4 i 0.6782(1) 0.8826(1) 0.3618(1) . 0.975(1) 0
O1 O2- 4 i 0.0092(3) 0.1280(2) 0.9581(3) . 1. 0
O2 O2- 4 i 0.5921(3) 0.9980(2) 0.2809(3) . 1. 0
O3 O2- 4 i 0.8082(3) 0.1049(2) 0.1810(3) . 1. 0
O4 O2- 4 i 0.8174(3) 0.8454(2) 0.2648(3) . 1. 0
O5 O2- 4 i 0.0042(3) 0.3072(2) 0.2711(3) . 1. 0
O6 O2- 4 i 0.0280(3) 0.6940(2) 0.2288(3) . 1. 0
O7 O2- 4 i 0.2153(3) 0.1073(2) 0.3878(3) . 1. 0
O8 O2- 4 i 0.1779(3) 0.8678(2) 0.4423(3) . 1. 0
loop_
_atom_site_aniso_label
_atom_site_aniso_type_symbol
_atom_site_aniso_B_11
_atom_site_aniso_B_22
_atom_site_aniso_B_33
_atom_site_aniso_B_12
_atom_site_aniso_B_13
_atom_site_aniso_B_23
Na1 Na1+ 1.53(7) 4.36(8) 2.76(7) -.59(6) 0.79(6) -2.19(6)
Ga1 Ga3+ 0.92(2) 0.69(1) 0.56(1) -.21(1) 0.34(1) -.01(1)
Si1 Si4+ 0.92(2) 0.69(1) 0.56(1) -.21(1) 0.34(1) -.01(1)
Ga2 Ga3+ 0.78(3) 0.61(3) 0.48(3) -.01(3) 0.30(3) -.05(3)
Si2 Si4+ 0.78(3) 0.61(3) 0.48(3) -.01(3) 0.30(3) -.05(3)
Ga3 Ga3+ 0.71(3) 0.52(3) 0.63(3) -.16(3) 0.23(3) -.01(2)
Si3 Si4+ 0.71(3) 0.52(3) 0.63(3) -.16(3) 0.23(3) -.01(2)
Ga4 Ga3+ 0.71(3) 0.59(3) 0.63(2) -.07(3) 0.25(3) 0.06(3)
Si4 Si4+ 0.71(3) 0.59(3) 0.63(2) -.07(3) 0.25(3) 0.06(3)
O1 O2- 2.05(11) 1.08(9) 0.90(8) -.13(8) 0.85(8) 0.11(7)
O2 O2- 0.97(9) 0.63(8) 1.10(8) -.11(6) 0.28(7) 0.21(6)
O3 O2- 1.32(10) 1.32(9) 1.38(9) -.49(7) 0.80(8) -.28(7)
O4 O2- 1.28(10) 1.45(9) 1.84(10) 0.12(7) 0.96(8) -.02(8)
O5 O2- 1.13(9) 0.98(9) 1.37(9) -.34(7) 0.50(8) -.10(7)
O6 O2- 1.22(9) 0.83(8) 1.08(9) 0.04(7) 0.36(8) -.05(7)
O7 O2- 1.44(10) 1.05(9) 0.77(8) 0.02(7) 0.15(7) 0.04(7)
O8 O2- 1.39(10) 1.21(9) 1.05(9) -.36(7) -.04(8) 0.00(7)
#End of TTdata_69602-ICSD