
#(C) 2019 by FIZ Karlsruhe - Leibniz Institute for Information Infrastructure.  All rights reserved.
data_69621-ICSD
_database_code_ICSD 69621
_audit_creation_date 1992-08-20
_chemical_name_systematic 'Sodium titanate'
_chemical_formula_structural 'Na4 (Ti O4)'
_chemical_formula_sum 'Na4 O4 Ti1'
_chemical_name_structure_type Na4SiO4
_exptl_crystal_density_diffrn 2.65
_publ_section_title 'Zum Aufbau von Na4TiO4'
loop_
_citation_id
_citation_journal_full
_citation_year
_citation_journal_volume
_citation_page_first
_citation_page_last
_citation_journal_id_ASTM
primary 'Zeitschrift fuer Anorganische und Allgemeine Chemie (1950) (DE)' 1990
582 103 110 ZAACAB
loop_
_publ_author_name
'Kissel, J.'
'Hoppe, R.'
_cell_length_a 8.783(1)
_cell_length_b 5.785(1)
_cell_length_c 6.476(1)
_cell_angle_alpha 124.24(1)
_cell_angle_beta 102.31(1)
_cell_angle_gamma 95.87(1)
_cell_volume 255.5
_cell_formula_units_Z 2
_symmetry_space_group_name_H-M 'P -1'
_symmetry_Int_Tables_number 2
_refine_ls_R_factor_all 0.092
loop_
_symmetry_equiv_pos_site_id
_symmetry_equiv_pos_as_xyz
1 '-x, -y, -z'
2 'x, y, z'
loop_
_atom_type_symbol
_atom_type_oxidation_number
Ti4+ 4
Na1+ 1
O2- -2
loop_
_atom_site_label
_atom_site_type_symbol
_atom_site_symmetry_multiplicity
_atom_site_Wyckoff_symbol
_atom_site_fract_x
_atom_site_fract_y
_atom_site_fract_z
_atom_site_B_iso_or_equiv
_atom_site_occupancy
_atom_site_attached_hydrogens
Ti1 Ti4+ 2 i 0.7431(2) 0.1789(3) 0.3998(3) . 1. 0
Na1 Na1+ 2 i 0.0651(5) 0.2793(7) 0.0448(7) . 1. 0
Na2 Na1+ 2 i 0.1018(5) 0.2880(7) 0.5463(8) . 1. 0
Na3 Na1+ 2 i 0.3175(3) 0.9815(7) 0.2081(8) . 1. 0
Na4 Na1+ 2 i 0.5123(5) 0.5144(8) 0.7708(7) . 1. 0
O1 O2- 2 i 0.1254(7) 0.8002(10) 0.3272(10) . 1. 0
O2 O2- 2 i 0.1379(7) 0.8341(10) 0.8045(10) . 1. 0
O3 O2- 2 i 0.4371(9) 0.1306(11) 0.7864(11) . 1. 0
O4 O2- 2 i 0.6948(6) 0.5297(9) 0.5557(10) . 1. 0
loop_
_atom_site_aniso_label
_atom_site_aniso_type_symbol
_atom_site_aniso_U_11
_atom_site_aniso_U_22
_atom_site_aniso_U_33
_atom_site_aniso_U_12
_atom_site_aniso_U_13
_atom_site_aniso_U_23
Ti1 Ti4+ 0.0173(6) 0.0152(5) 0.0159(6) -.0001(4) 0.0027(5) 0.0072(5)
Na1 Na1+ 0.0243(12) 0.0214(11) 0.0240(12) 0.0105(10) 0.0102(10) 0.0119(10)
Na2 Na1+ 0.0263(12) 0.0258(11) 0.0299(13) 0.0119(10) 0.0149(11) 0.0167(19)
Na3 Na1+ 0.0341(13) 0.0204(11) 0.0288(13) 0.014(1) 0.0157(11) 0.0125(10)
Na4 Na1+ 0.0240(12) 0.0303(12) 0.0251(12) 0.0097(10) 0.0101(11) 0.0166(10)
O1 O2- 0.0163(14) 0.0190(13) 0.0263(15) 0.0105(12) 0.0101(13) 0.0111(12)
O2 O2- 0.0265(14) 0.0189(13) 0.0235(14) 0.0139(11) 0.0194(12) 0.0110(12)
O3 O2- 0.0328(16) 0.0266(14) 0.0322(15) 0.0070(14) 0.0137(15) 0.0169(13)
O4 O2- 0.0219(14) 0.0127(12) 0.0277(14) 0.0085(11) 0.0064(13) 0.0092(12)
#End of TTdata_69621-ICSD