
#(C) 2019 by FIZ Karlsruhe - Leibniz Institute for Information Infrastructure.  All rights reserved.
data_69630-ICSD
_database_code_ICSD 69630
_audit_creation_date 1992-08-20
_chemical_name_systematic 'Pentasodium indate - beta'
_chemical_formula_structural 'Na5 (In O4)'
_chemical_formula_sum 'In1 Na5 O4'
_chemical_name_structure_type Li5AlO4
_exptl_crystal_density_diffrn 3.17
_publ_section_title 'Eine neue Li2O-Variante: beta-Na5InO4'
loop_
_citation_id
_citation_journal_full
_citation_year
_citation_journal_volume
_citation_page_first
_citation_page_last
_citation_journal_id_ASTM
primary 'Zeitschrift fuer Anorganische und Allgemeine Chemie (1950) (DE)' 1990
583 24 30 ZAACAB
loop_
_publ_author_name
'Glaum, H.'
'Hoppe, R.'
_cell_length_a 7.610(2)
_cell_length_b 7.387(2)
_cell_length_c 5.478(1)
_cell_angle_alpha 90.
_cell_angle_beta 90.
_cell_angle_gamma 90.
_cell_volume 307.95
_cell_formula_units_Z 2
_symmetry_space_group_name_H-M 'P m m n Z'
_symmetry_Int_Tables_number 59
_refine_ls_R_factor_all 0.049
loop_
_symmetry_equiv_pos_site_id
_symmetry_equiv_pos_as_xyz
1 'x+1/2, y+1/2, -z'
2 '-x, y+1/2, -z'
3 'x+1/2, -y, -z'
4 '-x, -y, -z'
5 '-x+1/2, -y+1/2, z'
6 'x, -y+1/2, z'
7 '-x+1/2, y, z'
8 'x, y, z'
loop_
_atom_type_symbol
_atom_type_oxidation_number
In3+ 3
Na1+ 1
O2- -2
loop_
_atom_site_label
_atom_site_type_symbol
_atom_site_symmetry_multiplicity
_atom_site_Wyckoff_symbol
_atom_site_fract_x
_atom_site_fract_y
_atom_site_fract_z
_atom_site_B_iso_or_equiv
_atom_site_occupancy
_atom_site_attached_hydrogens
In1 In3+ 2 a 0.25 0.25 0.2215(1) . 1. 0
Na1 Na1+ 8 g 0.5563(2) 0.5111(2) 0.2554(2) . 1. 0
Na2 Na1+ 2 b 0.25 0.75 0.1970(6) . 1. 0
O1 O2- 4 e 0.25 0.0143(4) 0.4212(6) . 1. 0
O2 O2- 4 f 0.0196(4) 0.25 0.0188(6) . 1. 0
loop_
_atom_site_aniso_label
_atom_site_aniso_type_symbol
_atom_site_aniso_U_11
_atom_site_aniso_U_22
_atom_site_aniso_U_33
_atom_site_aniso_U_12
_atom_site_aniso_U_13
_atom_site_aniso_U_23
In1 In3+ 0.0074(2) 0.0086(2) 0.0116(2) 0 0 0
Na1 Na1+ 0.0156(6) 0.0185(6) 0.0144(8) -.0029(5) -.0015(5) 0.0009(6)
Na2 Na1+ 0.0110(11) 0.0129(12) 0.0204(14) 0 0 0
O1 O2- 0.0122(15) 0.0092(14) 0.0138(15) 0 0 0.0036(12)
O2 O2- 0.0112(15) 0.0121(14) 0.0139(15) 0 -.0034(12) 0
#End of TTdata_69630-ICSD