
#(C) 2019 by FIZ Karlsruhe - Leibniz Institute for Information Infrastructure.  All rights reserved.
data_69648-ICSD
_database_code_ICSD 69648
_audit_creation_date 1994-01-19
_audit_update_record 2012-02-01
_chemical_name_systematic 'Disodium dititanium(III) diantimonide oxide'
_chemical_formula_structural 'Na2 Ti2 Sb2 O'
_chemical_formula_sum 'Na2 O1 Sb2 Ti2'
_chemical_name_structure_type Na2Ti2Sb2O
_exptl_crystal_density_diffrn 4.69
_publ_section_title

;
Darstellung und Kristallstruktur der Pnictidoxide Na2 Ti2 As2 O und Na2 Ti2
Sb2 O
;
loop_
_citation_id
_citation_journal_full
_citation_year
_citation_journal_volume
_citation_page_first
_citation_page_last
_citation_journal_id_ASTM
primary 'Zeitschrift fuer Anorganische und Allgemeine Chemie (1950) (DE)' 1990
584 150 158 ZAACAB
loop_
_publ_author_name
'Adam, A.'
'Schuster, H.U.'
_cell_length_a 4.144(1)
_cell_length_b 4.144(1)
_cell_length_c 16.5610(10)
_cell_angle_alpha 90.
_cell_angle_beta 90.
_cell_angle_gamma 90.
_cell_volume 284.4
_cell_formula_units_Z 2
_symmetry_space_group_name_H-M 'I 4/m m m'
_symmetry_Int_Tables_number 139
_refine_ls_R_factor_all 0.026
loop_
_symmetry_equiv_pos_site_id
_symmetry_equiv_pos_as_xyz
1 'y, x, -z'
2 '-y, -x, -z'
3 '-y, x, -z'
4 'y, -x, -z'
5 '-x, y, -z'
6 'x, -y, -z'
7 'x, y, -z'
8 '-x, -y, -z'
9 '-y, -x, z'
10 'y, x, z'
11 'y, -x, z'
12 '-y, x, z'
13 'x, -y, z'
14 '-x, y, z'
15 '-x, -y, z'
16 'x, y, z'
17 'y+1/2, x+1/2, -z+1/2'
18 '-y+1/2, -x+1/2, -z+1/2'
19 '-y+1/2, x+1/2, -z+1/2'
20 'y+1/2, -x+1/2, -z+1/2'
21 '-x+1/2, y+1/2, -z+1/2'
22 'x+1/2, -y+1/2, -z+1/2'
23 'x+1/2, y+1/2, -z+1/2'
24 '-x+1/2, -y+1/2, -z+1/2'
25 '-y+1/2, -x+1/2, z+1/2'
26 'y+1/2, x+1/2, z+1/2'
27 'y+1/2, -x+1/2, z+1/2'
28 '-y+1/2, x+1/2, z+1/2'
29 'x+1/2, -y+1/2, z+1/2'
30 '-x+1/2, y+1/2, z+1/2'
31 '-x+1/2, -y+1/2, z+1/2'
32 'x+1/2, y+1/2, z+1/2'
loop_
_atom_type_symbol
_atom_type_oxidation_number
O2- -2
Ti3+ 3
Sb3- -3
Na1+ 1
loop_
_atom_site_label
_atom_site_type_symbol
_atom_site_symmetry_multiplicity
_atom_site_Wyckoff_symbol
_atom_site_fract_x
_atom_site_fract_y
_atom_site_fract_z
_atom_site_B_iso_or_equiv
_atom_site_occupancy
_atom_site_attached_hydrogens
O1 O2- 2 b 0 0 0.5 . 1. 0
Ti1 Ti3+ 4 c 0 0.5 0 . 1. 0
Sb1 Sb3- 4 e 0 0 0.1212 . 1. 0
Na1 Na1+ 4 e 0 0 0.3179(2) . 1. 0
loop_
_atom_site_aniso_label
_atom_site_aniso_type_symbol
_atom_site_aniso_U_11
_atom_site_aniso_U_22
_atom_site_aniso_U_33
_atom_site_aniso_U_12
_atom_site_aniso_U_13
_atom_site_aniso_U_23
O1 O2- 0.0067(16) 0.0067(16) 0.0161(32) 0 0 0
Ti1 Ti3+ 0.0059(4) 0.0108(5) 0.0081(5) 0 0 0
Sb1 Sb3- 0.0096(1) 0.0096(1) 0.0096(1) 0 0 0
Na1 Na1+ 0.0157(9) 0.0157(9) 0.0224(17) 0 0 0
#End of TTdata_69648-ICSD