
#(C) 2019 by FIZ Karlsruhe - Leibniz Institute for Information Infrastructure.  All rights reserved.
data_69693-ICSD
_database_code_ICSD 69693
_audit_creation_date 1994-01-19
_chemical_name_systematic 'Trisodium tripotassium tetraoxonitrate'
_chemical_formula_structural 'Na3 K3 (N O4)2'
_chemical_formula_sum 'K3 N2 Na3 O8'
_exptl_crystal_density_diffrn 2.78
_publ_section_title

;
Synthese und Strukturanalyse des gemischten Alkalimetallorthonitrats
Na3K3(NO4)2
;
loop_
_citation_id
_citation_journal_full
_citation_year
_citation_journal_volume
_citation_page_first
_citation_page_last
_citation_journal_id_ASTM
primary 'Zeitschrift fuer Naturforschung, B: A Journal of Chemical Sciences'
1991 46 1031 1034 ZNBSEN
loop_
_publ_author_name
'Bremm, T.'
'Jansen, M.'
_cell_length_a 7.296(1)
_cell_length_b 15.997(4)
_cell_length_c 7.016(1)
_cell_angle_alpha 90.
_cell_angle_beta 90.
_cell_angle_gamma 90.
_cell_volume 818.87
_cell_formula_units_Z 4
_symmetry_space_group_name_H-M 'P b c n'
_symmetry_Int_Tables_number 60
_refine_ls_R_factor_all 0.04
loop_
_symmetry_equiv_pos_site_id
_symmetry_equiv_pos_as_xyz
1 'x, -y, z+1/2'
2 '-x+1/2, y+1/2, z'
3 'x+1/2, y+1/2, -z+1/2'
4 '-x, -y, -z'
5 '-x, y, -z+1/2'
6 'x+1/2, -y+1/2, -z'
7 '-x+1/2, -y+1/2, z+1/2'
8 'x, y, z'
loop_
_atom_type_symbol
_atom_type_oxidation_number
K1+ 1
Na1+ 1
N5+ 5
O2- -2
loop_
_atom_site_label
_atom_site_type_symbol
_atom_site_symmetry_multiplicity
_atom_site_Wyckoff_symbol
_atom_site_fract_x
_atom_site_fract_y
_atom_site_fract_z
_atom_site_B_iso_or_equiv
_atom_site_occupancy
_atom_site_attached_hydrogens
K1 K1+ 8 d 0.29115(7) 0.36741(4) 0.08372(8) . 1. 0
K2 K1+ 4 c 0.5 0.00995(4) 0.25 . 1. 0
Na1 Na1+ 4 c 0.5 0.20812(7) 0.25 . 1. 0
Na2 Na1+ 4 c 0 0.24328(8) 0.25 . 1. 0
Na3 Na1+ 4 c 0 0.02999(7) 0.25 . 1. 0
N1 N5+ 8 d 0.24121(23) 0.12969(12) 0.01650(24) . 1. 0
O1 O2- 8 d 0.23092(20) 0.13124(10) 0.21404(21) . 1. 0
O2 O2- 8 d 0.14653(25) 0.19755(11) 0.94654(26) . 1. 0
O3 O2- 8 d 0.42198(20) 0.13464(11) 0.96045(23) . 1. 0
O4 O2- 8 d 0.16619(24) 0.05587(11) 0.95102(24) . 1. 0
loop_
_atom_site_aniso_label
_atom_site_aniso_type_symbol
_atom_site_aniso_U_11
_atom_site_aniso_U_22
_atom_site_aniso_U_33
_atom_site_aniso_U_12
_atom_site_aniso_U_13
_atom_site_aniso_U_23
K1 K1+ 0.0171(2) 0.0328(3) 0.0137(2) 0.0006(2) -.0012(2) 0.0002(2)
K2 K1+ 0.0202(3) 0.0133(3) 0.0198(3) 0 0.0014(3) 0
Na1 Na1+ 0.0144(6) 0.0120(5) 0.0160(6) 0 -.0004(6) 0
Na2 Na1+ 0.0271(7) 0.0145(6) 0.0207(7) 0 0.0086(7) 0
Na3 Na1+ 0.0116(5) 0.0139(5) 0.0160(6) 0 -.0004(6) 0
N1 N5+ 0.0104(7) 0.0080(8) 0.0098(7) 0.0006(7) -.0004(6) -.0003(7)
O1 O2- 0.0128(7) 0.0177(7) 0.0078(6) -.0020(6) 0.0009(5) 0.0001(6)
O2 O2- 0.0273(9) 0.0192(9) 0.0197(9) 0.0122(7) -.0040(7) 0.0058(7)
O3 O2- 0.0102(7) 0.0255(8) 0.0171(8) -.0034(7) 0.0052(6) -.0025(7)
O4 O2- 0.0259(9) 0.0143(8) 0.0188(10) -.0105(6) 0.0007(7) -.0061(6)
#End of TTdata_69693-ICSD