
#(C) 2019 by FIZ Karlsruhe - Leibniz Institute for Information Infrastructure.  All rights reserved.
data_69783-ICSD
_database_code_ICSD 69783
_audit_creation_date 1993-01-06
_chemical_name_systematic 'Sodium fluoroantimony arsenate'
_chemical_formula_structural 'Na (Sb F) (As O4)'
_chemical_formula_sum 'As1 F1 Na1 O4 Sb1'
_exptl_crystal_density_diffrn 2.54
_cell_measurement_temperature 200.
_publ_section_title

;
Compounds containing layers of composition ((Sb(III)F)XO4) (X=P,As). Crystal
structures of Na(SbF)PO4 . 1.5H2O, Na(SbF)AsO4,NH4(SbF)PO4.H2O and
NH4(SbF)AsO4 . 3H2O
;
loop_
_citation_id
_citation_journal_full
_citation_year
_citation_journal_volume
_citation_page_first
_citation_page_last
_citation_journal_id_ASTM
primary 'Journal of Solid State Chemistry' 1991 90 353 360 JSSCBI
loop_
_publ_author_name
'Holz, K.'
'Obst, F.'
'Mattes, R.'
_cell_length_a 6.718(1)
_cell_length_b 6.718(1)
_cell_length_c 17.564(4)
_cell_angle_alpha 90.
_cell_angle_beta 90.(1)
_cell_angle_gamma 90.
_cell_volume 792.69
_cell_formula_units_Z 4
_symmetry_space_group_name_H-M 'P 4/n c c Z'
_symmetry_Int_Tables_number 130
_refine_ls_R_factor_all 0.052
loop_
_symmetry_equiv_pos_site_id
_symmetry_equiv_pos_as_xyz
1 'y+1/2, x+1/2, -z+1/2'
2 '-y, x+1/2, -z'
3 'y+1/2, -x, -z'
4 '-y, -x, -z+1/2'
5 'x+1/2, y+1/2, -z'
6 '-x, y+1/2, -z+1/2'
7 'x+1/2, -y, -z+1/2'
8 '-x, -y, -z'
9 '-y+1/2, -x+1/2, z+1/2'
10 'y, -x+1/2, z'
11 '-y+1/2, x, z'
12 'y, x, z+1/2'
13 '-x+1/2, -y+1/2, z'
14 'x, -y+1/2, z+1/2'
15 '-x+1/2, y, z+1/2'
16 'x, y, z'
loop_
_atom_type_symbol
_atom_type_oxidation_number
Sb3+ 3
As5+ 5
F1- -1
O2- -2
Na1+ 1
loop_
_atom_site_label
_atom_site_type_symbol
_atom_site_symmetry_multiplicity
_atom_site_Wyckoff_symbol
_atom_site_fract_x
_atom_site_fract_y
_atom_site_fract_z
_atom_site_B_iso_or_equiv
_atom_site_occupancy
_atom_site_attached_hydrogens
Sb1 Sb3+ 4 c 0.25 0.25 0.03073(6) 0.00131(4) 1. 0
As1 As5+ 4 b 0.75 0.25 0 0.00140(5) 1. 0
F1 F1- 4 c 0.25 0.25 0.1406(6) 0.00192(22) 1. 0
O1 O2- 16 g 0.1838(10) -.0603(9) 0.0571(3) 0.00193(16) 1. 0
Na1 Na1+ 16 g 0.610(6) 0.0335(41) 0.1854(6) 0.0091(12) 0.25 0
#End of TTdata_69783-ICSD