
#(C) 2019 by FIZ Karlsruhe - Leibniz Institute for Information Infrastructure.  All rights reserved.
data_69809-ICSD
_database_code_ICSD 69809
_audit_creation_date 1993-01-06
_audit_update_record 2015-02-01
_chemical_name_systematic 'Sodium phyllo-niobatophosphate *'
_chemical_formula_structural 'Na6 (Nb8 P2 O29) (P3 O6)'
_chemical_formula_sum 'Na6 Nb8 O35 P5'
_chemical_name_structure_type Na6Nb8P2O29P3O6
_exptl_crystal_density_diffrn 3.84
_cell_measurement_temperature 294.
_publ_section_title

;
A niobium phosphate "bronze" closely related to the Ba4/3Nb6Si4/4O26
structure: Na6Nb8P5O35
;
loop_
_citation_id
_citation_journal_full
_citation_year
_citation_journal_volume
_citation_page_first
_citation_page_last
_citation_journal_id_ASTM
primary 'Journal of Solid State Chemistry' 1991 92 51 56 JSSCBI
loop_
_publ_author_name
'Benabbas, A.'
'Borel, M.M.'
'Grandin, A.'
'Leclaire, A.'
'Raveau, B.'
_cell_length_a 8.9185(5)
_cell_length_b 8.9185(5)
_cell_length_c 30.055(11)
_cell_angle_alpha 90.
_cell_angle_beta 90.
_cell_angle_gamma 120.
_cell_volume 2070.29
_cell_formula_units_Z 3
_symmetry_space_group_name_H-M 'R 3 2 H'
_symmetry_Int_Tables_number 155
_refine_ls_R_factor_all 0.037
loop_
_symmetry_equiv_pos_site_id
_symmetry_equiv_pos_as_xyz
1 '-x, -x+y, -z'
2 'x-y, -y, -z'
3 'y, x, -z'
4 '-x+y, -x, z'
5 '-y, x-y, z'
6 'x, y, z'
7 '-x+2/3, -x+y+1/3, -z+1/3'
8 'x-y+2/3, -y+1/3, -z+1/3'
9 'y+2/3, x+1/3, -z+1/3'
10 '-x+y+2/3, -x+1/3, z+1/3'
11 '-y+2/3, x-y+1/3, z+1/3'
12 'x+2/3, y+1/3, z+1/3'
13 '-x+1/3, -x+y+2/3, -z+2/3'
14 'x-y+1/3, -y+2/3, -z+2/3'
15 'y+1/3, x+2/3, -z+2/3'
16 '-x+y+1/3, -x+2/3, z+2/3'
17 '-y+1/3, x-y+2/3, z+2/3'
18 'x+1/3, y+2/3, z+2/3'
loop_
_atom_type_symbol
_atom_type_oxidation_number
Nb4+ 4.875
P5+ 5
Na1+ 1
O2- -2
loop_
_atom_site_label
_atom_site_type_symbol
_atom_site_symmetry_multiplicity
_atom_site_Wyckoff_symbol
_atom_site_fract_x
_atom_site_fract_y
_atom_site_fract_z
_atom_site_B_iso_or_equiv
_atom_site_occupancy
_atom_site_attached_hydrogens
Nb1 Nb4+ 18 f 0.2341(1) -.0090(1) 0.06328(3) 0.49(1) 1. 0
Nb2 Nb4+ 6 c 0 0 0.23608(5) 0.42(2) 1. 0
P1 P5+ 6 c 0.3333 0.6667 0.0711(2) 0.57(5) 1. 0
P2 P5+ 9 e 0.4413(4) 0 0.5 0.38(7) 1. 0
Na1 Na1+ 9 e 0.7862(9) 0 0.5 1.4(2) 1. 0
Na2 Na1+ 9 d 0.583(2) 0 0 4.1(3) 1. 0
O1 O2- 9 d 0.229(1) 0 0 0.9(1) 1. 0
O2 O2- 18 f 0.2526(9) -.0364(9) 0.1314(2) 0.7(1) 1. 0
O3 O2- 18 f 0.4933(9) 0.140(1) 0.0658(2) 0.8(1) 1. 0
O4 O2- 18 f 0.261(1) 0.7782(9) 0.0514(2) 1.0(1) 1. 0
O5 O2- 18 f 0.187(1) 0.171(1) 0.0696(3) 0.7(1) 1. 0
O6 O2- 18 f 0.1996(9) 0.1422(9) 0.1897(3) 0.7(1) 1. 0
O7 O2- 6 c 0.3333 0.6667 0.1212(5) 1.0(2) 1. 0
#End of TTdata_69809-ICSD