
#(C) 2019 by FIZ Karlsruhe - Leibniz Institute for Information Infrastructure.  All rights reserved.
data_710032-ICSD
_database_code_ICSD 710032
_audit_creation_date 2010-08-01
_chemical_name_systematic
'Tetrasodium heptaammonium tetradecamolybdate tridecahydrate'
_chemical_formula_structural 'Na4 (N H4)7 (Mo14 O48) (H2 O)13'
_chemical_formula_sum 'H54 Mo14 N7 Na4 O61'
_exptl_crystal_density_diffrn 2.78
_cell_measurement_temperature 293.
_publ_section_title

;
Crystal structure of tetrasodium heptaammonium molybdate Na4 (N H4)7 (Mo14
O48) * 13 (H2 O)
;
loop_
_citation_id
_citation_journal_full
_citation_year
_citation_journal_volume
_citation_page_first
_citation_page_last
_citation_journal_id_ASTM
primary 'Zeitschrift fuer Kristallographie - New Crystal Structures' 2010 225 10
12 ZKNSFT
loop_
_publ_author_name
'Liu Haixing'
_cell_length_a 30.118(3)
_cell_length_b 10.7699(12)
_cell_length_c 20.135(2)
_cell_angle_alpha 90.
_cell_angle_beta 110.035(2)
_cell_angle_gamma 90.
_cell_volume 6135.9
_cell_formula_units_Z 4
_symmetry_space_group_name_H-M 'C 1 2/c 1'
_symmetry_Int_Tables_number 15
_refine_ls_R_factor_all 0.0261
loop_
_symmetry_equiv_pos_site_id
_symmetry_equiv_pos_as_xyz
1 'x, -y, z+1/2'
2 '-x, -y, -z'
3 '-x, y, -z+1/2'
4 'x, y, z'
5 'x+1/2, -y+1/2, z+1/2'
6 '-x+1/2, -y+1/2, -z'
7 '-x+1/2, y+1/2, -z+1/2'
8 'x+1/2, y+1/2, z'
loop_
_atom_type_symbol
_atom_type_oxidation_number
Mo6+ 6
Na1+ 1
Mo6+ 6
Na1+ 1
N3- -3
H1+ 1
N3- -3
H1+ 1
N3- -3
H1+ 1
N3- -3
H1+ 1
N3- -3
H1+ 1
O2- -2
H1+ 1
O2- -2
H1+ 1
O2- -2
H1+ 1
O2- -2
H1+ 1
O2- -2
H1+ 1
O2- -2
H1+ 1
O2- -2
H1+ 1
loop_
_atom_site_label
_atom_site_type_symbol
_atom_site_symmetry_multiplicity
_atom_site_Wyckoff_symbol
_atom_site_fract_x
_atom_site_fract_y
_atom_site_fract_z
_atom_site_B_iso_or_equiv
_atom_site_occupancy
_atom_site_attached_hydrogens
Mo1 Mo6+ 8 f 0.580873(12) 0.56892(3) 0.744703(18) 0.01677(9) 1 0
Mo2 Mo6+ 8 f 0.653778(13) 0.32399(4) 0.749005(19) 0.02138(10) 1 0
Na1 Na1+ 8 f 0.5368(3) 0.5859(11) 0.9209(4) 0.085(4) 0.425(12) 0
Mo3 Mo6+ 8 f 0.682019(13) 0.51793(4) 0.883501(18) 0.01875(10) 1 0
Mo4 Mo6+ 8 f 0.627704(13) 0.77312(4) 0.881856(19) 0.01995(10) 1 0
Mo5 Mo6+ 8 f 0.649779(14) 0.81934(4) 0.73950(2) 0.02221(10) 1 0
Mo6 Mo6+ 8 f 0.619123(14) 0.62246(4) 0.606484(19) 0.02331(10) 1 0
Mo7 Mo6+ 8 f 0.566402(14) 0.36683(4) 0.60702(2) 0.02661(11) 1 0
Na2 Na1+ 8 f 0.69332(8) 1.02636(19) 1.00726(10) 0.0365(5) 1 0
Na3 Na1+ 8 f 0.5626(2) 0.4726(8) 0.9211(3) 0.086(3) 0.575(12) 0
N1 N3- 8 f 0.75411(15) 0.5778(4) 0.7495(3) 0.0366(10) 1 0
H1 H1+ 8 f 0.7385 0.5428 0.7756 0.044 1 0
H2 H1+ 8 f 0.7714 0.6417 0.7739 0.044 1 0
H3 H1+ 8 f 0.7337 0.604 0.7077 0.044 1 0
H4 H1+ 8 f 0.7728 0.5216 0.7389 0.044 1 0
N2 N3- 8 f 0.71530(15) 0.3391(4) 0.5702(2) 0.0331(10) 1 0
H5 H1+ 8 f 0.7033 0.3239 0.6047 0.04 1 0
H6 H1+ 8 f 0.6912 0.3527 0.5296 0.04 1 0
H7 H1+ 8 f 0.7328 0.2744 0.5653 0.04 1 0
H8 H1+ 8 f 0.7346 0.4055 0.5813 0.04 1 0
N3 N3- 4 e 0.5 0.2804(7) 0.75 0.071(3) 1 0
H9 H1+ 8 f 0.5117 0.3429 0.7313 0.085 0.5 0
H10 H1+ 8 f 0.5232 0.2246 0.7688 0.085 0.5 0
H11 H1+ 8 f 0.4755 0.2443 0.7164 0.085 0.5 0
H12 H1+ 8 f 0.4892 0.3097 0.7835 0.085 0.5 0
N4 N3- 8 f 0.4968(6) 0.8709(8) 0.7706(6) 0.057(4) 0.5 0
H13 H1+ 8 f 0.5115 0.7968 0.7777 0.069 0.5 0
H14 H1+ 8 f 0.4655 0.8583 0.7512 0.069 0.5 0
H15 H1+ 8 f 0.5072 0.9186 0.7422 0.069 0.5 0
H16 H1+ 8 f 0.5037 0.9125 0.8117 0.069 0.5 0
N5 N3- 8 f 0.9548(6) 0.5407(15) 0.5260(9) 0.112(6) 0.5 0
H17 H1+ 8 f 0.9392 0.4842 0.5425 0.134 0.5 0
H18 H1+ 8 f 0.9346 0.6015 0.5041 0.134 0.5 0
H19 H1+ 8 f 0.9673 0.505 0.496 0.134 0.5 0
H20 H1+ 8 f 0.9793 0.5721 0.5615 0.134 0.5 0
O1 O2- 8 f 0.61486(10) 0.4409(3) 0.80479(15) 0.0197(6) 1 0
O2 O2- 8 f 0.62072(10) 0.4790(3) 0.68078(15) 0.0203(6) 1 0
O3 O2- 8 f 0.53307(11) 0.4872(3) 0.68776(17) 0.0283(7) 1 0
O4 O2- 8 f 0.64951(10) 0.6630(3) 0.80925(14) 0.0175(6) 1 0
O5 O2- 8 f 0.55873(11) 0.6491(3) 0.80137(16) 0.0249(7) 1 0
O6 O2- 8 f 0.58648(10) 0.6993(3) 0.68461(15) 0.0203(6) 1 0
O7 O2- 8 f 0.59082(12) 0.2683(3) 0.69197(17) 0.0283(7) 1 0
O8 O2- 8 f 0.69974(10) 0.4418(3) 0.80814(16) 0.0225(7) 1 0
O9 O2- 8 f 0.68614(12) 0.2855(3) 0.69604(17) 0.0330(8) 1 0
O10 O2- 8 f 0.66428(13) 0.2053(3) 0.80884(18) 0.0358(8) 1 0
O11 O2- 8 f 0.64129(11) 0.6105(3) 0.92447(15) 0.0214(6) 1 0
O12 O2- 8 f 0.73475(11) 0.5938(3) 0.92254(17) 0.0288(7) 1 0
O13 O2- 8 f 0.68552(12) 0.3892(3) 0.93466(17) 0.0304(8) 1 0
O14 O2- 8 f 0.61261(12) 0.8721(3) 0.79761(16) 0.0255(7) 1 0
O15 O2- 8 f 0.67804(12) 0.8455(3) 0.93418(17) 0.0328(8) 1 0
O16 O2- 8 f 0.58374(13) 0.8223(4) 0.91200(18) 0.0348(8) 1 0
O17 O2- 8 f 0.67015(11) 0.7031(3) 0.68116(16) 0.0245(7) 1 0
O18 O2- 8 f 0.63010(15) 0.9370(3) 0.67930(19) 0.0405(9) 1 0
O19 O2- 8 f 0.70547(13) 0.8635(4) 0.79145(19) 0.0372(9) 1 0
O20 O2- 8 f 0.55956(12) 0.5287(3) 0.56549(16) 0.0286(7) 1 0
O21 O2- 8 f 0.65412(14) 0.5474(4) 0.56860(19) 0.0397(9) 1 0
O22 O2- 8 f 0.59754(13) 0.7487(3) 0.55207(17) 0.0354(8) 1 0
O23 O2- 8 f 0.59451(14) 0.2960(4) 0.55683(19) 0.0425(10) 1 0
O24 O2- 8 f 0.50932(13) 0.3120(4) 0.5750(2) 0.0432(10) 1 0
O25 O2- 8 f 0.6476(2) 0.9333(5) 1.0667(3) 0.095(2) 1 0
H21 H1+ 8 f 0.6432 0.9746 1.0998 0.113 1 0
H22 H1+ 8 f 0.6326 0.8652 1.0622 0.113 1 0
O26 O2- 8 f 0.73413(14) 1.0811(4) 0.9264(2) 0.0438(10) 1 0
H23 H1+ 8 f 0.7088 1.0988 0.8928 0.053 1 0
H24 H1+ 8 f 0.7538 1.1392 0.9296 0.053 1 0
O27 O2- 8 f 0.63275(15) 1.1797(4) 0.9448(2) 0.0522(11) 1 0
H25 H1+ 8 f 0.6491 1.2411 0.9399 0.063 1 0
H26 H1+ 8 f 0.6214 1.1974 0.9769 0.063 1 0
O28 O2- 8 f 0.71860(13) 1.1787(4) 1.0981(2) 0.0440(10) 1 0
H27 H1+ 8 f 0.743 1.1427 1.1261 0.053 1 0
H28 H1+ 8 f 0.7042 1.2138 1.1227 0.053 1 0
O29 O2- 8 f 0.4957(2) 0.7880(8) 0.9272(3) 0.107(2) 1 0
H29 H1+ 8 f 0.4704 0.77 0.935 0.128 1 0
H30 H1+ 8 f 0.4917 0.8579 0.9063 0.128 1 0
O30 O2- 8 f 0.4308(3) 0.0965(7) 0.6899(5) 0.151(4) 1 0
H31 H1+ 8 f 0.4192 0.0277 0.6966 0.181 1 0
H32 H1+ 8 f 0.4132 0.1258 0.6504 0.181 1 0
O31 O2- 8 f 0.4723(7) 0.0490(16) 0.8481(10) 0.158(7) 0.5 0
H33 H1+ 8 f 0.4617 0.1222 0.8377 0.19 0.5 0
H34 H1+ 8 f 0.4489 0.0012 0.843 0.19 0.5 0
loop_
_atom_site_aniso_label
_atom_site_aniso_type_symbol
_atom_site_aniso_U_11
_atom_site_aniso_U_22
_atom_site_aniso_U_33
_atom_site_aniso_U_12
_atom_site_aniso_U_13
_atom_site_aniso_U_23
Mo1 Mo6+ 0.01379(18) 0.0200(2) 0.01617(18) -0.00031(14) 0.00470(14) -0.00189(15)
Mo2 Mo6+ 0.0231(2) 0.0207(2) 0.01873(19) 0.00503(15) 0.00504(15) 0.00001(16)
Na1 Na1+ 0.060(5) 0.134(10) 0.053(4) -0.034(6) 0.008(3) 0.021(5)
Mo3 Mo6+ 0.01711(19) 0.0219(2) 0.01563(18) -0.00014(15) 0.00354(14) 0.00046(15)
Mo4 Mo6+ 0.0226(2) 0.0213(2) 0.01671(18) -0.00037(15) 0.00768(15) -0.00307(15)
Mo5 Mo6+ 0.0274(2) 0.0212(2) 0.01983(19) -0.00377(16) 0.01038(16) 0.00123(16)
Mo6 Mo6+ 0.0268(2) 0.0286(2) 0.01559(18) 0.00456(17) 0.00864(15) 0.00103(16)
Mo7 Mo6+ 0.0238(2) 0.0276(2) 0.0227(2) 0.00317(17) 0.00054(16) -0.00882(17)
Na2 Na1+ 0.0439(12) 0.0331(11) 0.0322(10) -0.0017(9) 0.0128(9) -0.0039(9)
Na3 Na1+ 0.060(5) 0.134(10) 0.053(4) -0.034(6) 0.008(3) 0.021(5)
N1 N3- 0.030(2) 0.028(2) 0.055(3) -0.0011(18) 0.019(2) 0.005(2)
N2 N3- 0.034(2) 0.037(2) 0.027(2) 0.0062(19) 0.0087(18) -0.0013(19)
N3 N3- 0.084(6) 0.042(4) 0.110(7) 0. 0.062(6) 0.
N4 N3- 0.039(6) 0.032(5) 0.079(12) 0.004(5) -0.007(9) -0.003(5)
N5 N3- 0.111(14) 0.083(11) 0.137(15) 0.020(10) 0.037(12) 0.044(11)
O1 O2- 0.0195(15) 0.0186(15) 0.0202(15) -0.0031(12) 0.0059(12) -0.0003(12)
O2 O2- 0.0195(15) 0.0221(16) 0.0175(14) 0.0039(12) 0.0042(12) -0.0027(13)
O3 O2- 0.0194(16) 0.0319(18) 0.0304(17) -0.0033(14) 0.0043(13) -0.0040(15)
O4 O2- 0.0164(14) 0.0208(15) 0.0158(14) -0.0032(12) 0.0060(11) -0.0025(12)
O5 O2- 0.0225(16) 0.0280(17) 0.0263(16) 0.0021(14) 0.0112(13) -0.0005(14)
O6 O2- 0.0195(15) 0.0240(16) 0.0169(14) 0.0041(12) 0.0057(12) 0.0002(13)
O7 O2- 0.0296(18) 0.0209(16) 0.0317(17) -0.0033(14) 0.0070(14) -0.0033(14)
O8 O2- 0.0184(15) 0.0284(17) 0.0212(15) 0.0024(13) 0.0076(12) 0.0006(13)
O9 O2- 0.0324(19) 0.040(2) 0.0257(17) 0.0091(16) 0.0087(14) -0.0049(16)
O10 O2- 0.045(2) 0.0261(18) 0.0313(18) 0.0041(16) 0.0071(16) 0.0062(15)
O11 O2- 0.0243(16) 0.0251(16) 0.0167(14) -0.0005(13) 0.0094(12) 0.0004(13)
O12 O2- 0.0227(17) 0.0309(18) 0.0284(17) -0.0034(14) 0.0032(14) -0.0033(15)
O13 O2- 0.040(2) 0.0276(18) 0.0224(16) 0.0024(15) 0.0085(15) 0.0049(14)
O14 O2- 0.0352(18) 0.0198(16) 0.0221(15) 0.0039(14) 0.0107(14) 0.0004(13)
O15 O2- 0.037(2) 0.0301(19) 0.0281(17) -0.0091(16) 0.0073(15) -0.0087(15)
O16 O2- 0.0339(19) 0.045(2) 0.0300(18) 0.0069(16) 0.0171(15) -0.0034(16)
O17 O2- 0.0213(16) 0.0307(18) 0.0237(16) -0.0001(13) 0.0105(13) 0.0016(14)
O18 O2- 0.061(3) 0.031(2) 0.0334(19) 0.0102(18) 0.0218(18) 0.0115(16)
O19 O2- 0.036(2) 0.043(2) 0.0347(19) -0.0163(17) 0.0144(16) -0.0019(17)
O20 O2- 0.0278(17) 0.0333(19) 0.0184(15) 0.0055(15) -0.0003(13) -0.0039(14)
O21 O2- 0.042(2) 0.051(2) 0.0329(19) 0.0082(18) 0.0215(17) -0.0066(18)
O22 O2- 0.041(2) 0.041(2) 0.0226(17) 0.0088(17) 0.0097(15) 0.0106(16)
O23 O2- 0.053(2) 0.043(2) 0.0296(19) 0.0157(19) 0.0115(17) -0.0089(17)
O24 O2- 0.031(2) 0.037(2) 0.048(2) -0.0039(16) -0.0038(17) -0.0180(18)
O25 O2- 0.158(6) 0.069(3) 0.098(4) -0.064(4) 0.098(4) -0.045(3)
O26 O2- 0.037(2) 0.043(2) 0.046(2) -0.0030(18) 0.0061(18) 0.0086(19)
O27 O2- 0.054(3) 0.058(3) 0.049(2) -0.011(2) 0.024(2) 0.000(2)
O28 O2- 0.033(2) 0.055(3) 0.041(2) 0.0152(18) 0.0092(17) -0.0096(19)
O29 O2- 0.060(4) 0.162(7) 0.092(4) -0.039(4) 0.018(3) -0.001(5)
O30 O2- 0.116(6) 0.092(5) 0.201(9) -0.031(5) -0.002(6) 0.027(6)
O31 O2- 0.173(18) 0.116(14) 0.184(18) 0.030(13) 0.060(15) -0.002(13)
#End of TTdata_710032-ICSD