
#(C) 2018 by FIZ Karlsruhe - Leibniz Institute for Information Infrastructure.  All rights reserved.
data_71060-ICSD
_database_code_ICSD 71060
_audit_creation_date 1993-01-06
_audit_update_record 2013-02-01
_chemical_name_systematic 'Dibarium lithium trinitridodiferrate(II)'
_chemical_formula_structural 'Ba2 Li (Fe2 N3)'
_chemical_formula_sum 'Ba2 Fe2 Li1 N3'
_chemical_name_structure_type Sr2LiFe2N3
_exptl_crystal_density_diffrn 5.25
_publ_section_title

;
Sr2Li(Fe2N3) und Ba2Li(Fe2N3): Isotype nitridoferrate (II) mit
((FeN3/2)2(5-))-Anionen
;
loop_
_citation_id
_citation_journal_full
_citation_year
_citation_journal_volume
_citation_page_first
_citation_page_last
_citation_journal_id_ASTM
primary 'Angewandte Chemie' 1991 103 874 875 ANCEAD
loop_
_publ_author_name
'Hoehn, P.'
'Haag, S.'
'Milius, W.'
'Kniep, R.'
_cell_length_a 6.875(2)
_cell_length_b 11.781(4)
_cell_length_c 6.809(2)
_cell_angle_alpha 90.
_cell_angle_beta 92.39(2)
_cell_angle_gamma 90.
_cell_volume 551.01
_cell_formula_units_Z 4
_symmetry_space_group_name_H-M 'C 1 2/c 1'
_symmetry_Int_Tables_number 15
_refine_ls_R_factor_all 0.037
loop_
_symmetry_equiv_pos_site_id
_symmetry_equiv_pos_as_xyz
1 'x, -y, z+1/2'
2 '-x, -y, -z'
3 '-x, y, -z+1/2'
4 'x, y, z'
5 'x+1/2, -y+1/2, z+1/2'
6 '-x+1/2, -y+1/2, -z'
7 '-x+1/2, y+1/2, -z+1/2'
8 'x+1/2, y+1/2, z'
loop_
_atom_type_symbol
_atom_type_oxidation_number
Ba2+ 2
Fe2+ 2
N3- -3
Li1+ 1
loop_
_atom_site_label
_atom_site_type_symbol
_atom_site_symmetry_multiplicity
_atom_site_Wyckoff_symbol
_atom_site_fract_x
_atom_site_fract_y
_atom_site_fract_z
_atom_site_B_iso_or_equiv
_atom_site_occupancy
_atom_site_attached_hydrogens
Ba1 Ba2+ 8 f 0.2471(1) 0.0695(1) 0.4008(1) . 1. 0
Fe1 Fe2+ 8 f 0.1351(2) 0.2946(1) 0.1074(2) . 1. 0
N1 N3- 8 f 0.1346(10) 0.1445(6) 0.0018(10) . 1. 0
N2 N3- 4 e 0 0.4014(10) 0.25 . 1. 0
Li1 Li1+ 4 e 0.5 0.3131(23) 0.25 . 1. 0
loop_
_atom_site_aniso_label
_atom_site_aniso_type_symbol
_atom_site_aniso_U_11
_atom_site_aniso_U_22
_atom_site_aniso_U_33
_atom_site_aniso_U_12
_atom_site_aniso_U_13
_atom_site_aniso_U_23
Ba1 Ba2+ 0.0176(4) 0.0154(4) 0.0185(4) 0.0001(2) 0.0011(3) 0.0007(2)
Fe1 Fe2+ 0.0164(6) 0.0138(6) 0.0177(6) 0.0003(5) 0.0023(5) -.0001(4)
N1 N3- 0.0210(33) 0.0143(35) 0.0222(35) 0.0046(32) 0.0018(28) -.0023(26)
N2 N3- 0.0271(52) 0.0171(50) 0.0257(51) 0 0.0034(44) 0
Li1 Li1+ 0.026(11) 0.036(15) 0.035(12) 0 -0.005(10) 0
#End of TTdata_71060-ICSD