
#(C) 2019 by FIZ Karlsruhe - Leibniz Institute for Information Infrastructure.  All rights reserved.
data_71102-ICSD
_database_code_ICSD 71102
_audit_creation_date 1993-01-06
_chemical_name_systematic 'Sodium palladium fluoride (1.04/0.96/3)'
_chemical_formula_structural 'Na1.04 Pd0.96 F3'
_chemical_formula_sum 'F3 Na1.04 Pd0.96'
_exptl_crystal_density_diffrn 4.3
_publ_section_title

;
Structure cristalline de nouveaux composes fluores a base de palladium(II) et
de sodium
;
loop_
_citation_id
_citation_journal_full
_citation_year
_citation_journal_volume
_citation_page_first
_citation_page_last
_citation_journal_id_ASTM
primary

;
Comptes Rendus de l'Academie des Sciences, Serie II: Mecanique, Physique,
Chimie, Sciences de la Terre et de l'Univers
; 1991 313 1519 1525 CRAMED
loop_
_publ_author_name
'Ruchaud, N.'
'Grannec, J.'
'Tressaud, A.'
'Massa, W.'
'Hagenmuller, P.'
_cell_length_a 13.174(5)
_cell_length_b 6.772(1)
_cell_length_c 6.677(2)
_cell_angle_alpha 90.
_cell_angle_beta 108.41(2)
_cell_angle_gamma 90.
_cell_volume 565.2
_cell_formula_units_Z 8
_symmetry_space_group_name_H-M 'C 1 2/m 1'
_symmetry_Int_Tables_number 12
_refine_ls_R_factor_all 0.063
loop_
_symmetry_equiv_pos_site_id
_symmetry_equiv_pos_as_xyz
1 '-x, y, -z'
2 '-x, -y, -z'
3 'x, -y, z'
4 'x, y, z'
5 '-x+1/2, y+1/2, -z'
6 '-x+1/2, -y+1/2, -z'
7 'x+1/2, -y+1/2, z'
8 'x+1/2, y+1/2, z'
loop_
_atom_type_symbol
_atom_type_oxidation_number
Pd2+ 2.042
Na1+ 1
F1- -1
loop_
_atom_site_label
_atom_site_type_symbol
_atom_site_symmetry_multiplicity
_atom_site_Wyckoff_symbol
_atom_site_fract_x
_atom_site_fract_y
_atom_site_fract_z
_atom_site_B_iso_or_equiv
_atom_site_occupancy
_atom_site_attached_hydrogens
Pd1 Pd2+ 2 a 0 0 0 0.0158(3) 1. 0
Pd2 Pd2+ 4 i 0.26574(7) 0 0.52342(12) 0.0152(3) 1. 0
Pd3 Pd2+ 4 e 0.25 0.25 0 0.0146(5) 0.422 0
Na1 Na1+ 4 e 0.25 0.25 0 0.0146(5) 0.578 0
Na2 Na1+ 4 h 0 0.2348(10) 0.5 0.0154(14) 1. 0
Na3 Na1+ 2 b 0.5 0 0 0.034(3) 1. 0
F1 F1- 4 i 0.4193(6) 0 0.6009(11) 0.027(3) 1. 0
F2 F1- 4 i 0.2537(6) 0 0.2211(9) 0.023(2) 1. 0
F3 F1- 4 i 0.2865(7) 0 0.8280(9) 0.022(2) 1. 0
F4 F1- 4 i 0.1112(6) 0 0.4596(11) 0.025(3) 1. 0
F5 F1- 8 j -.0718(4) 0.2114(12) 0.1156(6) 0.024(2) 1. 0
#End of TTdata_71102-ICSD