
#(C) 2019 by FIZ Karlsruhe - Leibniz Institute for Information Infrastructure.  All rights reserved.
data_71101-ICSD
_database_code_ICSD 71101
_audit_creation_date 1993-01-06
_chemical_name_systematic 'Disodium tetrafluoropalladate'
_chemical_formula_structural 'Na2 (Pd F4)'
_chemical_formula_sum 'F4 Na2 Pd1'
_chemical_name_structure_type Na2PdF4
_exptl_crystal_density_diffrn 3.97
_publ_section_title

;
Structure cristalline de nouveaux composes fluores a base de palladium(II) et
de sodium
;
loop_
_citation_id
_citation_journal_full
_citation_year
_citation_journal_volume
_citation_page_first
_citation_page_last
_citation_journal_id_ASTM
primary

;
Comptes Rendus de l'Academie des Sciences, Serie II: Mecanique, Physique,
Chimie, Sciences de la Terre et de l'Univers
; 1991 313 1519 1525 CRAMED
loop_
_publ_author_name
'Ruchaud, N.'
'Grannec, J.'
'Tressaud, A.'
'Massa, W.'
'Hagenmuller, P.'
_cell_length_a 3.409(1)
_cell_length_b 5.615(1)
_cell_length_c 9.993(2)
_cell_angle_alpha 90.
_cell_angle_beta 93.94(1)
_cell_angle_gamma 90.
_cell_volume 190.83
_cell_formula_units_Z 2
_symmetry_space_group_name_H-M 'P 1 21/c 1'
_symmetry_Int_Tables_number 14
_refine_ls_R_factor_all 0.035
loop_
_symmetry_equiv_pos_site_id
_symmetry_equiv_pos_as_xyz
1 'x, -y+1/2, z+1/2'
2 '-x, -y, -z'
3 '-x, y+1/2, -z+1/2'
4 'x, y, z'
loop_
_atom_type_symbol
_atom_type_oxidation_number
Pd2+ 2
Na1+ 1
F1- -1
loop_
_atom_site_label
_atom_site_type_symbol
_atom_site_symmetry_multiplicity
_atom_site_Wyckoff_symbol
_atom_site_fract_x
_atom_site_fract_y
_atom_site_fract_z
_atom_site_B_iso_or_equiv
_atom_site_occupancy
_atom_site_attached_hydrogens
Pd1 Pd2+ 2 a 0 0 0 . 1. 0
Na1 Na1+ 4 e 0.2825(8) 0.5396(6) 0.8465(2) . 1. 0
F1 F1- 4 e 0.779(1) 0.3001(6) -.0765(3) . 1. 0
F2 F1- 4 e 0.214(1) 0.1809(6) 0.1584(3) . 1. 0
loop_
_atom_site_aniso_label
_atom_site_aniso_type_symbol
_atom_site_aniso_U_11
_atom_site_aniso_U_22
_atom_site_aniso_U_33
_atom_site_aniso_U_12
_atom_site_aniso_U_13
_atom_site_aniso_U_23
Pd1 Pd2+ 0.0123(3) 0.0033(3) 0.0108(2) 0.0006(2) -.0010(2) 0.0006(2)
Na1 Na1+ 0.017(1) 0.008(1) 0.022(1) 0.001(1) -.001(1) -.002(1)
F1 F1- 0.020(2) 0.007(2) 0.026(2) 0.003(2) -.004(1) 0.007(1)
F2 F1- 0.021(2) 0.010(2) 0.013(1) -.002(2) -.005(1) -.003(1)
#End of TTdata_71101-ICSD