
#(C) 2019 by FIZ Karlsruhe - Leibniz Institute for Information Infrastructure.  All rights reserved.
data_71229-ICSD
_database_code_ICSD 71229
_audit_creation_date 1993-01-06
_audit_update_record 2019-02-01
_chemical_name_systematic 'Disodium cobalt diphosphate(V) - rose, LT'
_chemical_formula_structural 'Na2 Co (P2 O7)'
_chemical_formula_sum 'Co1 Na2 O7 P2'
_chemical_name_structure_type Na2CoP2O7(aP48)
_exptl_crystal_density_diffrn 3.27
_cell_measurement_temperature 298.
_publ_section_title
'Crystal structures of two allotropic forms of Na2  Co P2 O7'
loop_
_citation_id
_citation_journal_full
_citation_year
_citation_journal_volume
_citation_page_first
_citation_page_last
_citation_journal_id_ASTM
primary 'Journal of Crystallographic and Spectroscopic Research' 1991 21 321 326
JCREDB
loop_
_publ_author_name
'Erragh, F.'
'Boukhari, A.'
'Elouadi, B.'
'Holt, E.M.'
_cell_length_a 9.735(2)
_cell_length_b 10.940(3)
_cell_length_c 12.289(4)
_cell_angle_alpha 148.78
_cell_angle_beta 121.76(1)
_cell_angle_gamma 68.38(2)
_cell_volume 566.8
_cell_formula_units_Z 4
_symmetry_space_group_name_H-M 'P 1'
_symmetry_Int_Tables_number 1
_refine_ls_R_factor_all 0.054
loop_
_symmetry_equiv_pos_site_id
_symmetry_equiv_pos_as_xyz
1 'x, y, z'
loop_
_atom_type_symbol
_atom_type_oxidation_number
Co2+ 2
P5+ 5
Na1+ 1
O2- -2
loop_
_atom_site_label
_atom_site_type_symbol
_atom_site_symmetry_multiplicity
_atom_site_Wyckoff_symbol
_atom_site_fract_x
_atom_site_fract_y
_atom_site_fract_z
_atom_site_B_iso_or_equiv
_atom_site_occupancy
_atom_site_attached_hydrogens
Co1 Co2+ 1 a 0.4999 0.4055 0.1417 . 1. 0
Co2 Co2+ 1 a 0.8915(3) 0.8346(5) 0.6161(5) . 1. 0
Co3 Co2+ 1 a 0.4996(2) 0.5942(2) 0.8580(2) . 1. 0
Co4 Co2+ 1 a 0.1077(3) 0.1672(5) 0.3843(5) . 1. 0
P1 P5+ 1 a 0.1762(6) 0.3168(9) 0.1012(9) 0.014(1) 1. 0
P2 P5+ 1 a 0.7042(5) 0.7333(7) 0.2778(7) 0.007(2) 1. 0
P3 P5+ 1 a 0.1920(5) 0.5228(8) 0.4813(8) 0.007(1) 1. 0
P4 P5+ 1 a 0.4541(5) 0.0199(7) 0.3336(7) 0.007(1) 1. 0
P5 P5+ 1 a 0.8190(6) 0.6771(8) 0.8891(8) 0.011(1) 1. 0
P6 P5+ 1 a 0.2954(5) 0.2688(7) 0.7225(7) 0.008(2) 1. 0
P7 P5+ 1 a 0.8077(6) 0.4798(8) 0.5154(8) 0.011(1) 1. 0
P8 P5+ 1 a 0.5427(5) -.0133(8) 0.6658(8) 0.011(1) 1. 0
Na1 Na1+ 1 a 0.858(1) 0.103(2) 0.444(2) . 1. 0
Na2 Na1+ 1 a 0.149(1) 0.913(2) 0.578(2) . 1. 0
Na3 Na1+ 1 a 0.845(1) 0.153(2) 0.052(2) . 1. 0
Na4 Na1+ 1 a 0.149(1) 0.822(12) 0.934(12) . 1. 0
Na5 Na1+ 1 a 0.189(1) 0.688(1) 0.165(1) . 1. 0
Na6 Na1+ 1 a 0.811(1) 0.320(1) 0.839(1) . 1. 0
Na7 Na1+ 1 a 0.510(2) -.036(3) -.049(4) . 1. 0
Na8 Na1+ 1 a 0.486(1) 0.246(3) 0.289(3) . 1. 0
O1 O2- 1 a 0.276(1) 0.447(2) 0.348(2) 0.018(2) 1. 0
O2 O2- 1 a 0.321(1) 0.660(2) 0.712(2) 0.020(2) 1. 0
O3 O2- 1 a 0.111(1) 0.288(2) 0.322(2) 0.007(1) 1. 0
O4 O2- 1 a 0.060(1) 0.657(1) 0.491(1) 0.017(1) 1. 0
O5 O2- 1 a 0.304(2) 0.228(2) 0.023(2) 0.020(2) 1. 0
O6 O2- 1 a 0.081(1) 0.470(2) 0.119(2) 0.029(2) 1. 0
O7 O2- 1 a 0.047(1) 0.140(2) -.043(2) 0.023(1) 1. 0
O8 O2- 1 a 0.540(1) 0.843(1) 0.310(1) 0.011(1) 1. 0
O9 O2- 1 a 0.704(1) 0.573(2) 0.253(2) 0.005(1) 1. 0
O10 O2- 1 a 0.852(1) 0.933(2) 0.495(2) 0.009(2) 1. 0
O11 O2- 1 a 0.683(1) 0.601(1) 0.061(1) 0.007(1) 1. 0
O12 O2- 1 a 0.459(1) 0.930(2) 0.151(2) 0.015(2) 1. 0
O13 O2- 1 a 0.282(1) 0.964(2) 0.265(2) 0.021(1) 1. 0
O14 O2- 1 a 0.547(1) 0.274(2) 0.585(2) 0.014(2) 1. 0
O15 O2- 1 a 0.723(1) 0.535(2) 0.638(2) 0.007(1) 1. 0
O16 O2- 1 a 0.661(1) 0.345(2) 0.290(2) 0.012(2) 1. 0
O17 O2- 1 a 0.922(1) 0.320(1) 0.477(1) 0.017(1) 1. 0
O18 O2- 1 a 0.887(2) 0.710(3) 0.676(3) 0.039(4) 1. 0
O19 O2- 1 a 0.683(1) 0.773(2) 0.966(2) 0.009(2) 1. 0
O20 O2- 1 a 0.883(1) 0.479(2) 0.827(2) 0.017(1) 1. 0
O21 O2- 1 a 0.933(1) 0.902(1) 0.049(1) 0.016(1) 1. 0
O22 O2- 1 a 0.445(1) 0.143(1) 0.672(1) 0.015(1) 1. 0
O23 O2- 1 a 0.144(2) 0.060(2) 0.495(2) 0.020(2) 1. 0
O24 O2- 1 a 0.305(1) 0.384(2) 0.923(2) 0.023(1) 1. 0
O25 O2- 1 a 0.290(2) 0.425(2) 0.735(2) 0.019(2) 1. 0
O26 O2- 1 a 0.719(1) 0.039(1) 0.739(1) 0.015(1) 1. 0
O27 O2- 1 a 0.527(2) 0.063(2) 0.836(2) 0.016(2) 1. 0
O28 O2- 1 a 0.455(2) 0.734(2) 0.427(2) 0.029(3) 1. 0
loop_
_atom_site_aniso_label
_atom_site_aniso_type_symbol
_atom_site_aniso_U_11
_atom_site_aniso_U_22
_atom_site_aniso_U_33
_atom_site_aniso_U_12
_atom_site_aniso_U_13
_atom_site_aniso_U_23
Co1 Co2+ 0.0139(10) 0.0106(10) 0.0105(11) 0.0022(8) 0.0059(9) 0.0087(10)
Co2 Co2+ 0.0088(9) 0.0096(9) 0.0074(9) 0.0009(8) 0.0024(8) 0.0074(9)
Co3 Co2+ 0.0069(9) 0.0081(9) 0.0060(9) 0.0008(7) 0.0016(8) 0.0062(9)
Co4 Co2+ 0.0080(9) 0.0133(10) 0.012(1) 0.0024(8) 0.0040(8) 0.011(1)
Na1 Na1+ 0.032(4) 0.049(5) 0.061(5) 0.019(3) 0.030(4) 0.050(5)
Na2 Na1+ 0.067(6) 0.041(4) 0.057(5) 0.011(4) 0.032(4) 0.045(4)
Na3 Na1+ 0.024(4) 0.091(7) 0.052(6) 0.005(4) 0.002(4) 0.065(6)
Na4 Na1+ 0.012(3) 0.071(5) 0.024(3) -.003(3) 0.000(2) 0.038(4)
Na5 Na1+ 0.009(2) 0.002(2) 0.005(3) 0.004(2) 0.007(2) 0.003(2)
Na6 Na1+ 0.003(2) 0.001(2) 0.003(2) 0.002(2) 0.002(2) 0.002(2)
Na7 Na1+ 0.044(5) 0.138(13) 0.266(22) -.026(7) -.035(9) 0.185(17)
Na8 Na1+ 0.037(4) 0.148(10) 0.223(13) 0.017(5) 0.029(6) 0.177(11)
#End of TTdata_71229-ICSD