
#(C) 2018 by FIZ Karlsruhe - Leibniz Institute for Information Infrastructure.  All rights reserved.
data_71221-ICSD
_database_code_ICSD 71221
_audit_creation_date 1993-01-06
_audit_update_record 2011-02-01
_chemical_name_systematic 'Lithium copper(I) copper(II) oxide'
_chemical_formula_structural 'Li Cu2 O2'
_chemical_formula_sum 'Cu2 Li1 O2'
_chemical_name_structure_type NaCu2O2
_exptl_crystal_density_diffrn 5.42
_publ_section_title
'The structure of LiCu2O2 with mixed-valence copper from twin-crystal data'
loop_
_citation_id
_citation_journal_full
_citation_year
_citation_journal_volume
_citation_page_first
_citation_page_last
_citation_journal_id_ASTM
primary 'Journal of the Less-Common Metals' 1991 175 119 129 JCOMAH
loop_
_publ_author_name
'Berger, R.'
'Meetsam, A.'
'van Smalllen, S.'
'Sundberg, M.'
_cell_length_a 5.730(1)
_cell_length_b 2.8606(4)
_cell_length_c 12.417(2)
_cell_angle_alpha 90.
_cell_angle_beta 90.
_cell_angle_gamma 90.
_cell_volume 203.53
_cell_formula_units_Z 4
_symmetry_space_group_name_H-M 'P n m a'
_symmetry_Int_Tables_number 62
_refine_ls_R_factor_all 0.039
loop_
_symmetry_equiv_pos_site_id
_symmetry_equiv_pos_as_xyz
1 'x+1/2, y, -z+1/2'
2 'x, -y+1/2, z'
3 '-x+1/2, y+1/2, z+1/2'
4 '-x, -y, -z'
5 '-x+1/2, -y, z+1/2'
6 '-x, y+1/2, -z'
7 'x+1/2, -y+1/2, -z+1/2'
8 'x, y, z'
loop_
_atom_type_symbol
_atom_type_oxidation_number
Li1+ 1
Cu1+ 1
Cu2+ 2
O2- -2
loop_
_atom_site_label
_atom_site_type_symbol
_atom_site_symmetry_multiplicity
_atom_site_Wyckoff_symbol
_atom_site_fract_x
_atom_site_fract_y
_atom_site_fract_z
_atom_site_B_iso_or_equiv
_atom_site_occupancy
_atom_site_attached_hydrogens
Li1 Li1+ 4 c 0.130(3) 0.25 0.5719(9) 0.48(8) 1. 0
Cu1 Cu1+ 4 c 0.1194(3) 0.25 0.25490(7) . 1. 0
Cu2 Cu2+ 4 c 0.1244(2) 0.25 0.90548(6) . 1. 0
O1 O2- 4 c 0.1365(11) 0.25 0.4052(4) 0.49(3) 1. 0
O2 O2- 4 c 0.1146(12) 0.25 0.1049(4) 0.61(3) 1. 0
loop_
_atom_site_aniso_label
_atom_site_aniso_type_symbol
_atom_site_aniso_U_11
_atom_site_aniso_U_22
_atom_site_aniso_U_33
_atom_site_aniso_U_12
_atom_site_aniso_U_13
_atom_site_aniso_U_23
Cu1 Cu1+ 0.0086(4) 0.0096(4) 0.0071(2) 0 -.0007(27) 0
Cu2 Cu2+ 0.0045(3) 0.0045(3) 0.0081(3) 0 0.0004(32) 0
#End of TTdata_71221-ICSD