
#(C) 2019 by FIZ Karlsruhe - Leibniz Institute for Information Infrastructure.  All rights reserved.
data_71295-ICSD
_database_code_ICSD 71295
_audit_creation_date 1993-01-06
_chemical_name_systematic 'Sodium tungsten(V) dioxide dichloride'
_chemical_formula_structural 'Na W O2 Cl2'
_chemical_formula_sum 'Cl2 Na1 O2 W1'
_exptl_crystal_density_diffrn 4.53
_publ_section_title 'Structure of the intercalate NaWO2Cl2'
loop_
_citation_id
_citation_journal_full
_citation_year
_citation_journal_volume
_citation_page_first
_citation_page_last
_citation_journal_id_ASTM
primary 'Journal of Solid State Chemistry' 1991 94 254 259 JSSCBI
loop_
_publ_author_name
'Abrahams, I.'
'Nowinski, J.L.'
'Bruce, P.G.'
'Gibson, V.C.'
_cell_length_a 3.7943(3)
_cell_length_b 3.8006(4)
_cell_length_c 15.739(1)
_cell_angle_alpha 90.
_cell_angle_beta 90.
_cell_angle_gamma 90.
_cell_volume 226.97
_cell_formula_units_Z 2
_symmetry_space_group_name_H-M 'A m m m'
_symmetry_Int_Tables_number 65
_refine_ls_R_factor_all 0.039
loop_
_symmetry_equiv_pos_site_id
_symmetry_equiv_pos_as_xyz
1 'x, -y, z'
2 'x, y, -z'
3 '-x, y, z'
4 '-x, -y, -z'
5 '-x, y, -z'
6 '-x, -y, z'
7 'x, -y, -z'
8 'x, y, z'
9 'x, -y+1/2, z+1/2'
10 'x, y+1/2, -z+1/2'
11 '-x, y+1/2, z+1/2'
12 '-x, -y+1/2, -z+1/2'
13 '-x, y+1/2, -z+1/2'
14 '-x, -y+1/2, z+1/2'
15 'x, -y+1/2, -z+1/2'
16 'x, y+1/2, z+1/2'
loop_
_atom_type_symbol
_atom_type_oxidation_number
W5+ 5
O2- -2
Cl1- -1
Na1+ 1
loop_
_atom_site_label
_atom_site_type_symbol
_atom_site_symmetry_multiplicity
_atom_site_Wyckoff_symbol
_atom_site_fract_x
_atom_site_fract_y
_atom_site_fract_z
_atom_site_B_iso_or_equiv
_atom_site_occupancy
_atom_site_attached_hydrogens
W1 W5+ 2 a 0 0 0 1.1(1) 1. 0
O1 O2- 2 b 0 0 0.5 1.0(1) 1. 0
O2 O2- 2 d 0.5 0 0 1.0(1) 1. 0
Cl1 Cl1- 4 i 0 0 0.1540(2) . 1. 0
Na1 Na1+ 4 j 0.5 0.5 0.154(2) 2.3(4) 0.315(10) 0
Na2 Na1+ 4 j 0.5 0.5 0.214(3) 2.3(4) 0.185(10) 0
loop_
_atom_site_aniso_label
_atom_site_aniso_type_symbol
_atom_site_aniso_U_11
_atom_site_aniso_U_22
_atom_site_aniso_U_33
_atom_site_aniso_U_12
_atom_site_aniso_U_13
_atom_site_aniso_U_23
Cl1 Cl1- 2.5(2) 2.5(2) 0.34(1) 0 0 0
#End of TTdata_71295-ICSD