
#(C) 2019 by FIZ Karlsruhe - Leibniz Institute for Information Infrastructure.  All rights reserved.
data_71291-ICSD
_database_code_ICSD 71291
_audit_creation_date 1993-01-06
_chemical_name_systematic 'Sodium tecto-galloalumosilicate *'
_chemical_formula_structural 'Na ((Al0.7 Ga0.3) Si3 O8)'
_chemical_formula_sum 'Al0.7 Ga0.3 Na1 O8 Si3'
_chemical_name_structure_type Feldspar#-(TC)-Albite-NaAlSi3O8
_exptl_crystal_density_diffrn 2.73
_publ_section_title

;
Tetrahedral-site occupancies in sodium aluminium-gallium feldspar solid
solutions (Na(Al1-xGax)Si3O8)
;
loop_
_citation_id
_citation_journal_full
_citation_year
_citation_journal_volume
_citation_page_first
_citation_page_last
_citation_journal_id_ASTM
primary 'Journal of Solid State Chemistry' 1991 92 295 300 JSSCBI
loop_
_publ_author_name
'Fleet, M.E.'
_cell_length_a 8.173(2)
_cell_length_b 12.874(2)
_cell_length_c 7.130(2)
_cell_angle_alpha 93.86(2)
_cell_angle_beta 116.48(2)
_cell_angle_gamma 89.52(2)
_cell_volume 669.79
_cell_formula_units_Z 4
_symmetry_space_group_name_H-M 'C -1'
_symmetry_Int_Tables_number 2
_refine_ls_R_factor_all 0.032
loop_
_symmetry_equiv_pos_site_id
_symmetry_equiv_pos_as_xyz
1 '-x, -y, -z'
2 'x, y, z'
3 '-x+1/2, -y+1/2, -z'
4 'x+1/2, y+1/2, z'
loop_
_atom_type_symbol
_atom_type_oxidation_number
Na1+ 1
Ga3+ 3
Al3+ 3
Si4+ 4
Ga3+ 3
Al3+ 3
Si4+ 4
Ga3+ 3
Al3+ 3
Si4+ 4
Ga3+ 3
Al3+ 3
Si4+ 4
O2- -2
loop_
_atom_site_label
_atom_site_type_symbol
_atom_site_symmetry_multiplicity
_atom_site_Wyckoff_symbol
_atom_site_fract_x
_atom_site_fract_y
_atom_site_fract_z
_atom_site_B_iso_or_equiv
_atom_site_occupancy
_atom_site_attached_hydrogens
Na1 Na1+ 4 i 0.2729(2) 0.0024(2) 0.1379(3) . 1. 0
Ga1 Ga3+ 4 i 0.0080(1) 0.1662(1) 0.2115(1) . 0.168 0
Al1 Al3+ 4 i 0.0080(1) 0.1662(1) 0.2115(1) . 0.28 0
Si1 Si4+ 4 i 0.0080(1) 0.1662(1) 0.2115(1) . 0.552 0
Ga2 Ga3+ 4 i 0.0038(1) 0.8155(1) 0.2313(1) . 0.016(1) 0
Al2 Al3+ 4 i 0.0038(1) 0.8155(1) 0.2313(1) . 0.13 0
Si2 Si4+ 4 i 0.0038(1) 0.8155(1) 0.2313(1) . 0.854(1) 0
Ga3 Ga3+ 4 i 0.6910(1) 0.1084(1) 0.3178(1) . 0.053(1) 0
Al3 Al3+ 4 i 0.6910(1) 0.1084(1) 0.3178(1) . 0.14 0
Si3 Si4+ 4 i 0.6910(1) 0.1084(1) 0.3178(1) . 0.807(1) 0
Ga4 Ga3+ 4 i 0.6832(1) 0.8785(1) 0.3559(1) . 0.063(1) 0
Al4 Al3+ 4 i 0.6832(1) 0.8785(1) 0.3559(1) . 0.15 0
Si4 Si4+ 4 i 0.6832(1) 0.8785(1) 0.3559(1) . 0.787(1) 0
O1 O2- 4 i 0.0058(3) 0.1342(2) 0.9776(4) . 1. 0
O2 O2- 4 i 0.5916(3) 0.9924(2) 0.2792(3) . 1. 0
O3 O2- 4 i 0.8186(3) 0.1076(2) 0.1930(4) . 1. 0
O4 O2- 4 i 0.8188(3) 0.8465(2) 0.2497(4) . 1. 0
O5 O2- 4 i 0.0145(3) 0.2932(2) 0.2766(3) . 1. 0
O6 O2- 4 i 0.0226(3) 0.6890(2) 0.2200(3) . 1. 0
O7 O2- 4 i 0.1997(3) 0.1112(2) 0.3862(3) . 1. 0
O8 O2- 4 i 0.1852(3) 0.8669(2) 0.4308(3) . 1. 0
loop_
_atom_site_aniso_label
_atom_site_aniso_type_symbol
_atom_site_aniso_B_11
_atom_site_aniso_B_22
_atom_site_aniso_B_33
_atom_site_aniso_B_12
_atom_site_aniso_B_13
_atom_site_aniso_B_23
Na1 Na1+ 1.49(7) 11.93(18) 6.22(12) 0.22(9) 0.47(8) -6.46(12)
Ga1 Ga3+ 1.03(4) 1.11(4) 0.82(4) -.17(3) 0.44(3) 0.06(3)
Al1 Al3+ 1.03(4) 1.11(4) 0.82(4) -.17(3) 0.44(3) 0.06(3)
Si1 Si4+ 1.03(4) 1.11(4) 0.82(4) -.17(3) 0.44(3) 0.06(3)
Ga2 Ga3+ 0.74(3) 0.91(3) 0.61(3) 0.21(3) 0.30(3) 0.13(3)
Al2 Al3+ 0.74(3) 0.91(3) 0.61(3) 0.21(3) 0.30(3) 0.13(3)
Si2 Si4+ 0.74(3) 0.91(3) 0.61(3) 0.21(3) 0.30(3) 0.13(3)
Ga3 Ga3+ 0.73(3) 0.71(3) 0.84(3) -.01(3) 0.28(3) 0.07(3)
Al3 Al3+ 0.73(3) 0.71(3) 0.84(3) -.01(3) 0.28(3) 0.07(3)
Si3 Si4+ 0.73(3) 0.71(3) 0.84(3) -.01(3) 0.28(3) 0.07(3)
Ga4 Ga3+ 0.74(3) 0.69(3) 0.82(4) 0.08(3) 0.32(3) 0.12(3)
Al4 Al3+ 0.74(3) 0.69(3) 0.82(4) 0.08(3) 0.32(3) 0.12(3)
Si4 Si4+ 0.74(3) 0.69(3) 0.82(4) 0.08(3) 0.32(3) 0.12(3)
O1 O2- 2.55(11) 1.53(10) 1.58(9) 0.08(8) 1.13(8) 0.22(8)
O2 O2- 1.15(9) 1.28(9) 1.62(9) -.07(7) 0.47(7) 0.19(7)
O3 O2- 1.78(10) 1.81(10) 1.99(10) -.40(8) 1.05(8) -.04(8)
O4 O2- 1.52(10) 2.16(11) 2.65(12) 0.24(8) 1.26(9) 0.05(9)
O5 O2- 1.62(10) 1.76(10) 1.73(10) -.19(8) 0.69(8) -.05(8)
O6 O2- 1.54(9) 1.52(10) 1.57(10) 0.33(8) 0.40(8) 0.04(8)
O7 O2- 1.53(9) 1.34(9) 1.37(9) 0.20(7) 0.32(8) 0.26(7)
O8 O2- 1.54(9) 1.71(10) 1.54(10) -.01(8) 0.18(8) -.16(8)
#End of TTdata_71291-ICSD