
#(C) 2019 by FIZ Karlsruhe - Leibniz Institute for Information Infrastructure.  All rights reserved.
data_71329-ICSD
_database_code_ICSD 71329
_audit_creation_date 1993-01-06
_chemical_name_systematic 'Sodium gallium titanium oxide (0.8/0.8/3.2/8)'
_chemical_formula_structural 'Na.81 (Ga.81 Ti3.19) O8'
_chemical_formula_sum 'Ga0.81 Na0.81 O8 Ti3.19'
_chemical_name_structure_type NaTi4O8
_exptl_crystal_density_diffrn 4.12
_publ_section_title 'Flux growth and structure refinement of NaxGaxTi4-xO8'
loop_
_citation_id
_citation_journal_full
_citation_year
_citation_journal_volume
_citation_page_first
_citation_page_last
_citation_journal_id_ASTM
primary 'Materials Research Bulletin' 1991 26 597 603 MRBUAC
loop_
_publ_author_name
'Michiue, Y.'
'Watanabe, M.'
'Fujiki, Y.'
_cell_length_a 12.219(2)
_cell_length_b 3.7927(7)
_cell_length_c 6.4760(8)
_cell_angle_alpha 90.
_cell_angle_beta 107.30(1)
_cell_angle_gamma 90.
_cell_volume 286.54
_cell_formula_units_Z 2
_symmetry_space_group_name_H-M 'C 1 2/m 1'
_symmetry_Int_Tables_number 12
_refine_ls_R_factor_all 0.03
loop_
_symmetry_equiv_pos_site_id
_symmetry_equiv_pos_as_xyz
1 '-x, y, -z'
2 '-x, -y, -z'
3 'x, -y, z'
4 'x, y, z'
5 '-x+1/2, y+1/2, -z'
6 '-x+1/2, -y+1/2, -z'
7 'x+1/2, -y+1/2, z'
8 'x+1/2, y+1/2, z'
loop_
_atom_type_symbol
_atom_type_oxidation_number
Na1+ 1
Ti4+ 4
Ga3+ 3
Ti4+ 4
Ga3+ 3
O2- -2
loop_
_atom_site_label
_atom_site_type_symbol
_atom_site_symmetry_multiplicity
_atom_site_Wyckoff_symbol
_atom_site_fract_x
_atom_site_fract_y
_atom_site_fract_z
_atom_site_B_iso_or_equiv
_atom_site_occupancy
_atom_site_attached_hydrogens
Na1 Na1+ 2 a 0 0 0 . 0.811 0
Ti1 Ti4+ 4 i 0.29942(3) 0 0.70865(6) . 0.731 0
Ga1 Ga3+ 4 i 0.29942(3) 0 0.70865(6) . 0.269 0
Ti2 Ti4+ 4 i 0.39790(3) 0 0.29845(7) . 0.863 0
Ga2 Ga3+ 4 i 0.39790(3) 0 0.29845(7) . 0.137 0
O1 O2- 4 i 0.3713(2) 0 0.9958(3) . 1. 0
O2 O2- 4 i 0.2355(2) 0 0.3461(3) . 1. 0
O3 O2- 4 i 0.4423(1) 0 0.6333(3) . 1. 0
O4 O2- 4 i 0.1364(2) 0 0.7087(3) . 1. 0
loop_
_atom_site_aniso_label
_atom_site_aniso_type_symbol
_atom_site_aniso_beta_11
_atom_site_aniso_beta_22
_atom_site_aniso_beta_33
_atom_site_aniso_beta_12
_atom_site_aniso_beta_13
_atom_site_aniso_beta_23
Na1 Na1+ 0.00272(16) 0.0125(12) 0.02273(89) 0 0.00422(31) 0
Ti1 Ti4+ 0.00086(2) 0.0055(2) 0.00314(7) 0 0.00057(3) 0
Ga1 Ga3+ 0.00086(2) 0.0055(2) 0.00314(7) 0 0.00057(3) 0
Ti2 Ti4+ 0.00082(2) 0.0075(2) 0.00464(8) 0 0.00074(3) 0
Ga2 Ga3+ 0.00082(2) 0.0075(2) 0.00464(8) 0 0.00074(3) 0
O1 O2- 0.00147(9) 0.015(1) 0.00214(29) 0 0.00053(14) 0
O2 O2- 0.00094(8) 0.0054(8) 0.00412(31) 0 0.00057(13) 0
O3 O2- 0.00067(8) 0.0143(9) 0.00304(29) 0 0.00049(13) 0
O4 O2- 0.00097(8) 0.0060(8) 0.00477(33) 0 0.00082(14) 0
#End of TTdata_71329-ICSD