
#(C) 2019 by FIZ Karlsruhe - Leibniz Institute for Information Infrastructure.  All rights reserved.
data_71334-ICSD
_database_code_ICSD 71334
_audit_creation_date 1993-01-06
_audit_update_record 2013-08-01
_chemical_name_systematic 'Potassium sodium hexafluorosilicate'
_chemical_formula_structural 'K Na (Si F6)'
_chemical_formula_sum 'F6 K1 Na1 Si1'
_chemical_name_structure_type KNaSiF6
_exptl_crystal_density_diffrn 2.7
_publ_section_title 'Crystal structure of KNaSiF6'
loop_
_citation_id
_citation_journal_full
_citation_year
_citation_journal_volume
_citation_page_first
_citation_page_last
_citation_journal_id_ASTM
primary 'Materials Research Bulletin' 1991 26 925 930 MRBUAC
loop_
_publ_author_name
'Fischer, J.'
'Kraemer, V.'
_cell_length_a 9.3246(11)
_cell_length_b 5.4992(6)
_cell_length_c 9.7892(13)
_cell_angle_alpha 90.
_cell_angle_beta 90.
_cell_angle_gamma 90.
_cell_volume 501.97
_cell_formula_units_Z 4
_symmetry_space_group_name_H-M 'P n m a'
_symmetry_Int_Tables_number 62
_refine_ls_R_factor_all 0.046
loop_
_symmetry_equiv_pos_site_id
_symmetry_equiv_pos_as_xyz
1 'x+1/2, y, -z+1/2'
2 'x, -y+1/2, z'
3 '-x+1/2, y+1/2, z+1/2'
4 '-x, -y, -z'
5 '-x+1/2, -y, z+1/2'
6 '-x, y+1/2, -z'
7 'x+1/2, -y+1/2, -z+1/2'
8 'x, y, z'
loop_
_atom_type_symbol
_atom_type_oxidation_number
K1+ 1
Na1+ 1
Si4+ 4
F1- -1
loop_
_atom_site_label
_atom_site_type_symbol
_atom_site_symmetry_multiplicity
_atom_site_Wyckoff_symbol
_atom_site_fract_x
_atom_site_fract_y
_atom_site_fract_z
_atom_site_B_iso_or_equiv
_atom_site_occupancy
_atom_site_attached_hydrogens
K1 K1+ 4 c 0.5136(1) 0.25 0.1798(1) . 1. 0
Na1 Na1+ 4 c 0.3718(3) 0.25 0.5596(2) . 1. 0
Si1 Si4+ 4 c 0.2290(1) 0.25 0.9206(1) . 1. 0
F1 F1- 8 d 0.3274(3) 0.4660(5) 0.9941(3) . 1. 0
F2 F1- 8 d 0.1254(4) 0.0367(6) 0.8548(3) . 1. 0
F3 F1- 4 c 0.1244(5) 0.25 0.0601(5) . 1. 0
F4 F1- 4 c 0.3313(5) 0.25 0.7843(4) . 1. 0
loop_
_atom_site_aniso_label
_atom_site_aniso_type_symbol
_atom_site_aniso_U_11
_atom_site_aniso_U_22
_atom_site_aniso_U_33
_atom_site_aniso_U_12
_atom_site_aniso_U_13
_atom_site_aniso_U_23
K1 K1+ 0.0316(6) 0.0277(6) 0.0216(6) 0 0.0028(5) 0
Na1 Na1+ 0.0364(12) 0.0232(11) 0.0279(12) 0 0.0025(10) 0
Si1 Si4+ 0.0192(6) 0.0162(6) 0.0191(6) 0 0.0009(5) 0
F1 F1- 0.0660(18) 0.0350(15) 0.0527(16) -.0218(14) -.0219(14) 0.0020(14)
F2 F1- 0.0892(23) 0.0543(19) 0.0658(21) -.0364(19) -.0381(18) -.0016(17)
F3 F1- 0.0480(25) 0.1252(46) 0.0426(25) 0 0.0260(21) 0
F4 F1- 0.069(3) 0.1162(44) 0.0342(22) 0 0.0261(23) 0
#End of TTdata_71334-ICSD