
#(C) 2019 by FIZ Karlsruhe - Leibniz Institute for Information Infrastructure.  All rights reserved.
data_71455-ICSD
_database_code_ICSD 71455
_audit_creation_date 1993-01-06
_chemical_name_systematic 'Sodium tetrafluoromanganate(III)'
_chemical_formula_structural 'Na (Mn F4)'
_chemical_formula_sum 'F4 Mn1 Na1'
_chemical_name_structure_type LiMnF4
_exptl_crystal_density_diffrn 3.33
_publ_section_title 'Crystal and magnetic structures of NaMnF4'
loop_
_citation_id
_citation_journal_full
_citation_year
_citation_journal_volume
_citation_page_first
_citation_page_last
_citation_journal_id_ASTM
primary 'Zeitschrift fuer Naturforschung, B: A Journal of Chemical Sciences'
1991 46 1669 1673 ZNBSEN
loop_
_publ_author_name
'Molinier, M.'
'Massa, W.'
'Khairoun, S.'
'Tressaud, A.'
'Soubeyroux, J.L.'
_cell_length_a 5.736(2)
_cell_length_b 4.892(1)
_cell_length_c 5.748(2)
_cell_angle_alpha 90.
_cell_angle_beta 108.07(2)
_cell_angle_gamma 90.
_cell_volume 153.34
_cell_formula_units_Z 2
_symmetry_space_group_name_H-M 'P 1 21/c 1'
_symmetry_Int_Tables_number 14
_refine_ls_R_factor_all 0.039
loop_
_symmetry_equiv_pos_site_id
_symmetry_equiv_pos_as_xyz
1 'x, -y+1/2, z+1/2'
2 '-x, -y, -z'
3 '-x, y+1/2, -z+1/2'
4 'x, y, z'
loop_
_atom_type_symbol
_atom_type_oxidation_number
Na1+ 1
Mn3+ 3
F1- -1
loop_
_atom_site_label
_atom_site_type_symbol
_atom_site_symmetry_multiplicity
_atom_site_Wyckoff_symbol
_atom_site_fract_x
_atom_site_fract_y
_atom_site_fract_z
_atom_site_B_iso_or_equiv
_atom_site_occupancy
_atom_site_attached_hydrogens
Na1 Na1+ 2 d 0.5 0.5 0 . 1. 0
Mn1 Mn3+ 2 a 0 0.5 0.5 . 1. 0
F1 F1- 4 e 0.8757(6) 0.7633(6) 0.6655(5) . 1. 0
F2 F1- 4 e 0.3014(5) 0.6529(6) 0.6101(5) . 1. 0
loop_
_atom_site_aniso_label
_atom_site_aniso_type_symbol
_atom_site_aniso_U_11
_atom_site_aniso_U_22
_atom_site_aniso_U_33
_atom_site_aniso_U_12
_atom_site_aniso_U_13
_atom_site_aniso_U_23
Na1 Na1+ 0.0194(14) 0.0196(15) 0.0026(12) 0.0063(17) -.0004(10) -.0023(16)
Mn1 Mn3+ 0.0120(5) 0.0089(5) 0.0043(4) -.0005(56) 0.0026(3) -.0013(5)
F1 F1- 0.0235(17) 0.0157(15) 0.0123(14) 0.0040(14) 0.0061(12) -.0055(12)
F2 F1- 0.0168(16) 0.0182(17) 0.0108(13) -.0064(13) 0.0031(11) 0.0007(12)
#End of TTdata_71455-ICSD