
#(C) 2019 by FIZ Karlsruhe - Leibniz Institute for Information Infrastructure.  All rights reserved.
data_71538-ICSD
_database_code_ICSD 71538
_audit_creation_date 1993-01-06
_chemical_name_systematic 'Sodium bromate(VII) hydrate'
_chemical_formula_structural 'Na (Br O4) (H2 O)'
_chemical_formula_sum 'H2 Br1 Na1 O5'
_chemical_name_structure_type NaClO4(H2O)
_exptl_crystal_density_diffrn 2.57
_cell_measurement_temperature 296.
_publ_section_title 'Structure of sodium perbromate monohydrate'
loop_
_citation_id
_citation_journal_full
_citation_year
_citation_journal_volume
_citation_page_first
_citation_page_last
_citation_journal_id_ASTM
primary 'Acta Crystallographica, Section C: Crystal Structure Communications'
1992 48 419 424 ACSCEE
loop_
_publ_author_name
'Blackburn, A.C.'
'Gallucci, J.C.'
'Gerkin, R.E.'
'Reppart, W.J.'
_cell_length_a 15.7575(19)
_cell_length_b 5.7373(15)
_cell_length_c 11.3390(19)
_cell_angle_alpha 90.
_cell_angle_beta 111.193(10)
_cell_angle_gamma 90.
_cell_volume 955.78
_cell_formula_units_Z 8
_symmetry_space_group_name_H-M 'C 1 2/c 1'
_symmetry_Int_Tables_number 15
_refine_ls_R_factor_all 0.039
loop_
_symmetry_equiv_pos_site_id
_symmetry_equiv_pos_as_xyz
1 'x, -y, z+1/2'
2 '-x, -y, -z'
3 '-x, y, -z+1/2'
4 'x, y, z'
5 'x+1/2, -y+1/2, z+1/2'
6 '-x+1/2, -y+1/2, -z'
7 '-x+1/2, y+1/2, -z+1/2'
8 'x+1/2, y+1/2, z'
loop_
_atom_type_symbol
_atom_type_oxidation_number
Na1+ 1
Br7+ 7
O2- -2
H1+ 1
loop_
_atom_site_label
_atom_site_type_symbol
_atom_site_symmetry_multiplicity
_atom_site_Wyckoff_symbol
_atom_site_fract_x
_atom_site_fract_y
_atom_site_fract_z
_atom_site_B_iso_or_equiv
_atom_site_occupancy
_atom_site_attached_hydrogens
Na1 Na1+ 4 d 0.25 0.25 0.5 . 1. 0
Na2 Na1+ 4 e 0 0.4505(5) 0.25 . 1. 0
Br1 Br7+ 8 f 0.12735(3) 0.96184(7) 0.19885(4) . 1. 0
O1 O2- 8 f 0.1650(3) -.0303(6) 0.3508(3) . 1. 0
O2 O2- 8 f 0.2103(3) -.0248(7) 0.1497(4) . 1. 0
O3 O2- 8 f 0.0618(3) 0.1806(7) 0.1443(4) . 1. 0
O4 O2- 8 f 0.0734(2) 0.7221(6) 0.1538(3) . 1. 0
O5 O2- 8 f 0.3754(3) 0.0112(9) 0.0513(4) . 1. 0
H1 H1+ 8 f 0.392(4) 0.008(11) -.001(7) 4.70(18) 1. 0
H2 H1+ 8 f 0.362(5) 0.122(14) 0.042(7) 7.30(29) 1. 0
loop_
_atom_site_aniso_label
_atom_site_aniso_type_symbol
_atom_site_aniso_U_11
_atom_site_aniso_U_22
_atom_site_aniso_U_33
_atom_site_aniso_U_12
_atom_site_aniso_U_13
_atom_site_aniso_U_23
Na1 Na1+ 0.030(1) 0.033(1) 0.026(1) 0.000(1) 0.006(1) -.001(1)
Na2 Na1+ 0.036(1) 0.033(1) 0.034(1) 0 0.012(1) 0
Br1 Br7+ 0.0325(2) 0.0225(2) 0.0243(2) -.0026(2) 0.0134(2) -.0043(2)
O1 O2- 0.058(2) 0.038(2) 0.025(2) -.014(2) 0.009(2) -.010(1)
O2 O2- 0.056(2) 0.057(2) 0.067(3) -.017(2) 0.043(2) -.020(2)
O3 O2- 0.084(3) 0.043(2) 0.053(2) 0.031(2) 0.026(2) 0.008(2)
O4 O2- 0.050(2) 0.042(2) 0.036(2) -.026(2) 0.014(2) -.012(2)
O5 O2- 0.039(2) 0.044(3) 0.033(2) -.006(2) 0.012(2) 0.001(2)
#End of TTdata_71538-ICSD