
#(C) 2019 by FIZ Karlsruhe - Leibniz Institute for Information Infrastructure.  All rights reserved.
data_71564-ICSD
_database_code_ICSD 71564
_audit_creation_date 1993-01-06
_chemical_name_systematic 'Sodium barium iron fluoride (4/0.8/3.2/12)'
_chemical_formula_structural 'Na4 Ba0.84 Fe3.16 F12'
_chemical_formula_sum 'Ba0.84 F12 Fe3.16 Na4'
_exptl_crystal_density_diffrn 3.86
_publ_section_title
'On the crystal structure of the new perovskite Na4BaxFe4-xF12 (x=0.84)'
loop_
_citation_id
_citation_journal_full
_citation_year
_citation_journal_volume
_citation_page_first
_citation_page_last
_citation_journal_id_ASTM
primary 'European Journal of Solid State and Inorganic Chemistry' 1992 29 395
398 EJSCE5
loop_
_publ_author_name
'Darriet, J.'
'Ducau, M.'
'Tressaud, A.'
_cell_length_a 8.075(2)
_cell_length_b 8.075(2)
_cell_length_c 8.075(2)
_cell_angle_alpha 90.
_cell_angle_beta 90.
_cell_angle_gamma 90.
_cell_volume 526.54
_cell_formula_units_Z 2
_symmetry_space_group_name_H-M 'I m -3'
_symmetry_Int_Tables_number 204
_refine_ls_R_factor_all 0.023
loop_
_symmetry_equiv_pos_site_id
_symmetry_equiv_pos_as_xyz
1 '-z, x, y'
2 'z, x, -y'
3 'z, -x, y'
4 '-z, -x, -y'
5 'y, -z, x'
6 '-y, z, x'
7 'y, z, -x'
8 '-y, -z, -x'
9 'x, y, -z'
10 'x, -y, z'
11 '-x, y, z'
12 '-x, -y, -z'
13 'z, -x, -y'
14 '-z, -x, y'
15 '-z, x, -y'
16 'z, x, y'
17 '-y, z, -x'
18 'y, -z, -x'
19 '-y, -z, x'
20 'y, z, x'
21 '-x, -y, z'
22 '-x, y, -z'
23 'x, -y, -z'
24 'x, y, z'
25 '-z+1/2, x+1/2, y+1/2'
26 'z+1/2, x+1/2, -y+1/2'
27 'z+1/2, -x+1/2, y+1/2'
28 '-z+1/2, -x+1/2, -y+1/2'
29 'y+1/2, -z+1/2, x+1/2'
30 '-y+1/2, z+1/2, x+1/2'
31 'y+1/2, z+1/2, -x+1/2'
32 '-y+1/2, -z+1/2, -x+1/2'
33 'x+1/2, y+1/2, -z+1/2'
34 'x+1/2, -y+1/2, z+1/2'
35 '-x+1/2, y+1/2, z+1/2'
36 '-x+1/2, -y+1/2, -z+1/2'
37 'z+1/2, -x+1/2, -y+1/2'
38 '-z+1/2, -x+1/2, y+1/2'
39 '-z+1/2, x+1/2, -y+1/2'
40 'z+1/2, x+1/2, y+1/2'
41 '-y+1/2, z+1/2, -x+1/2'
42 'y+1/2, -z+1/2, -x+1/2'
43 '-y+1/2, -z+1/2, x+1/2'
44 'y+1/2, z+1/2, x+1/2'
45 '-x+1/2, -y+1/2, z+1/2'
46 '-x+1/2, y+1/2, -z+1/2'
47 'x+1/2, -y+1/2, -z+1/2'
48 'x+1/2, y+1/2, z+1/2'
loop_
_atom_type_symbol
_atom_type_oxidation_number
Na1+ 1
Ba2+ 2
Fe2+ 2
Na1+ 1
F1- -1
loop_
_atom_site_label
_atom_site_type_symbol
_atom_site_symmetry_multiplicity
_atom_site_Wyckoff_symbol
_atom_site_fract_x
_atom_site_fract_y
_atom_site_fract_z
_atom_site_B_iso_or_equiv
_atom_site_occupancy
_atom_site_attached_hydrogens
Na1 Na1+ 12 e 0.9591(9) 0 0.5 . 0.5 0
Na2 Na1+ 2 a 0 0 0 . 0.16 0
Ba1 Ba2+ 2 a 0 0 0 . 0.84 0
Fe1 Fe2+ 8 c 0.25 0.25 0.25 . 0.79 0
Na3 Na1+ 8 c 0.25 0.25 0.25 . 0.21 0
F1 F1- 24 g 0 0.1912(3) 0.2937(3) . 0.9 0
F2 F1- 24 g 0 0.302(4) 0.195(3) . 0.1 0
loop_
_atom_site_aniso_label
_atom_site_aniso_type_symbol
_atom_site_aniso_U_11
_atom_site_aniso_U_22
_atom_site_aniso_U_33
_atom_site_aniso_U_12
_atom_site_aniso_U_13
_atom_site_aniso_U_23
Na1 Na1+ 0.0521(73) 0.0304(29) 0.0279(28) 0 0 0
Na2 Na1+ 0.0129(4) 0.0129(4) 0.0129(4) 0 0 0
Ba1 Ba2+ 0.0129(4) 0.0129(4) 0.0129(4) 0 0 0
Fe1 Fe2+ 0.0116(4) 0.0116(4) 0.0116(4) 0 0 0
Na3 Na1+ 0.0116(4) 0.0116(4) 0.0116(4) 0 0 0
F1 F1- 0.0204(15) 0.0212(16) 0.0242(18) 0 0 0.0069(14)
F2 F1- 0.024(15) 0.033(18) 0.022(16) 0 0 0.007(14)
#End of TTdata_71564-ICSD