
#(C) 2019 by FIZ Karlsruhe - Leibniz Institute for Information Infrastructure.  All rights reserved.
data_71646-ICSD
_database_code_ICSD 71646
_audit_creation_date 1993-08-22
_chemical_name_systematic 'Trisodium phyllo-thiopentaborate'
_chemical_formula_structural 'Na3 (B5 O8 S)'
_chemical_formula_sum 'B5 Na3 O8 S1'
_exptl_crystal_density_diffrn 2.42
_cell_measurement_temperature 150.
_publ_section_title
'Synthesis and structure of Na3B5O8S, the first oxothioborate'
loop_
_citation_id
_citation_journal_full
_citation_year
_citation_journal_volume
_citation_page_first
_citation_page_last
_citation_journal_id_ASTM
primary 'Journal of Alloys and Compounds' 1992 183 393 402 JALCEU
loop_
_publ_author_name
'Hammerschmidt, A.'
'Krebs, B.'
_cell_length_a 11.390(2)
_cell_length_b 6.249(1)
_cell_length_c 10.934(2)
_cell_angle_alpha 90.
_cell_angle_beta 93.94(2)
_cell_angle_gamma 90.
_cell_volume 776.4
_cell_formula_units_Z 4
_symmetry_space_group_name_H-M 'P 1 21/c 1'
_symmetry_Int_Tables_number 14
_refine_ls_R_factor_all 0.053
loop_
_symmetry_equiv_pos_site_id
_symmetry_equiv_pos_as_xyz
1 'x, -y+1/2, z+1/2'
2 '-x, -y, -z'
3 '-x, y+1/2, -z+1/2'
4 'x, y, z'
loop_
_atom_type_symbol
_atom_type_oxidation_number
S2- -2
Na1+ 1
O2- -2
B3+ 3
loop_
_atom_site_label
_atom_site_type_symbol
_atom_site_symmetry_multiplicity
_atom_site_Wyckoff_symbol
_atom_site_fract_x
_atom_site_fract_y
_atom_site_fract_z
_atom_site_B_iso_or_equiv
_atom_site_occupancy
_atom_site_attached_hydrogens
S1 S2- 4 e 0.01046(9) 0.25479(18) 0.36483(9) . 1. 0
Na1 Na1+ 4 e 0.47377(15) 0.80762(26) 0.69721(15) . 1. 0
Na2 Na1+ 4 e 0.97839(16) 0.21732(28) 0.10869(15) . 1. 0
Na3 Na1+ 4 e 0.78817(17) 0.0777(3) 0.35344(18) . 1. 0
O1 O2- 4 e 0.1864(3) 0.1804(5) 0.2095(3) . 1. 0
O2 O2- 4 e 0.3805(3) 0.5527(4) -.0108(3) . 1. 0
O3 O2- 4 e 0.3820(3) 0.1826(4) -.0659(3) . 1. 0
O4 O2- 4 e 0.3635(3) -.0235(4) 0.2669(3) . 1. 0
O5 O2- 4 e 0.2784(3) -.0454(4) 0.0636(3) . 1. 0
O6 O2- 4 e 0.3208(3) 0.8488(4) 0.8597(3) 0.0078(9) 1. 0
O7 O2- 4 e 0.3693(3) 0.2897(4) 0.1409(2) . 1. 0
O8 O2- 4 e 0.1906(3) -.0461(5) 0.3853(3) . 1. 0
B1 B3+ 4 e 0.3796(4) 0.3420(8) 0.0224(5) . 1. 0
B2 B3+ 4 e 0.1405(4) 0.1181(8) 0.3174(4) . 1. 0
B3 B3+ 4 e 0.3258(4) -.0105(8) -.0449(4) . 1. 0
B4 B3+ 4 e 0.3130(5) 0.8857(7) 0.3733(5) . 1. 0
B5 B3+ 4 e 0.2990(4) 0.0952(7) 0.1724(5) . 1. 0
loop_
_atom_site_aniso_label
_atom_site_aniso_type_symbol
_atom_site_aniso_U_11
_atom_site_aniso_U_22
_atom_site_aniso_U_33
_atom_site_aniso_U_12
_atom_site_aniso_U_13
_atom_site_aniso_U_23
S1 S2- 0.0116(5) 0.0082(5) 0.0105(5) 0.0021(5) 0.0060(4) -.0007(5)
Na1 Na1+ 0.0146(9) 0.0079(8) 0.0138(9) -.0018(7) 0.0071(7) 0.0010(7)
Na2 Na1+ 0.0236(11) 0.0131(9) 0.0115(9) 0.0063(8) 0.0060(8) 0.0004(8)
Na3 Na1+ 0.017(1) 0.0136(10) 0.0273(11) -.0038(8) 0.0080(8) 0.0033(8)
O1 O2- 0.0105(15) 0.0039(14) 0.0098(15) 0.0018(12) 0.0075(13) 0.0014(12)
O2 O2- 0.0129(16) 0.0022(14) 0.0097(15) -.0022(12) 0.0045(13) 0.0000(12)
O3 O2- 0.0148(16) 0.0020(13) 0.0092(15) -.0010(12) 0.0070(13) -.0007(12)
O4 O2- 0.0115(15) 0.0046(14) 0.0077(14) 0.0001(12) 0.0063(12) 0.0013(12)
O5 O2- 0.0147(16) 0.0038(14) 0.0100(15) -.0025(13) 0.0073(13) 0.0000(12)
O7 O2- 0.0133(15) 0.0016(14) 0.0096(14) -.0005(12) 0.0049(12) 0.0002(11)
O8 O2- 0.0104(15) 0.0056(14) 0.0104(14) 0.0016(12) 0.0054(12) 0.0016(12)
B1 B3+ 0.008(2) 0.006(2) 0.010(2) 0.0002(19) 0.0016(19) -.004(2)
B2 B3+ 0.010(2) 0.006(2) 0.008(2) -.0017(19) 0.0022(20) -.0024(18)
B3 B3+ 0.008(2) 0.006(2) 0.009(2) 0.0007(19) 0.0025(19) 0.0011(19)
B4 B3+ 0.011(3) 0.002(2) 0.011(3) 0.0004(19) 0.004(2) -.0005(19)
B5 B3+ 0.010(3) 0.004(2) 0.012(2) -.0004(19) 0.0064(20) 0.0009(20)
#End of TTdata_71646-ICSD