
#(C) 2019 by FIZ Karlsruhe - Leibniz Institute for Information Infrastructure.  All rights reserved.
data_71682-ICSD
_database_code_ICSD 71682
_audit_creation_date 1993-08-22
_chemical_name_systematic 'Tetrasodium catena-thiodicuprate'
_chemical_formula_structural 'Na4 (Cu2 S3)'
_chemical_formula_sum 'Cu2 Na4 S3'
_exptl_crystal_density_diffrn 2.55
_publ_section_title

;
Preparation and crystal structure of Na4Cu2S3, a thiocuprate with discrete
anions
;
loop_
_citation_id
_citation_journal_full
_citation_year
_citation_journal_volume
_citation_page_first
_citation_page_last
_citation_journal_id_ASTM
primary 'Journal of Alloys and Compounds' 1992 184 265 273 JALCEU
loop_
_publ_author_name
'Klepp, K.O.'
'Sing, M.'
'Boller, H.'
_cell_length_a 9.468(1)
_cell_length_b 9.468(1)
_cell_length_c 36.64(2)
_cell_angle_alpha 90.
_cell_angle_beta 90.
_cell_angle_gamma 90.
_cell_volume 3284.52
_cell_formula_units_Z 16
_symmetry_space_group_name_H-M 'I 41/a Z'
_symmetry_Int_Tables_number 88
_refine_ls_R_factor_all 0.021
loop_
_symmetry_equiv_pos_site_id
_symmetry_equiv_pos_as_xyz
1 '-y+3/4, x+3/4, -z+3/4'
2 'y+1/4, -x+3/4, -z+3/4'
3 'x, y+1/2, -z'
4 '-x, -y, -z'
5 'y+1/4, -x+1/4, z+1/4'
6 '-y+3/4, x+1/4, z+1/4'
7 '-x, -y+1/2, z'
8 'x, y, z'
9 '-y+1/4, x+1/4, -z+1/4'
10 'y+3/4, -x+1/4, -z+1/4'
11 'x+1/2, y, -z+1/2'
12 '-x+1/2, -y+1/2, -z+1/2'
13 'y+3/4, -x+3/4, z+3/4'
14 '-y+1/4, x+3/4, z+3/4'
15 '-x+1/2, -y, z+1/2'
16 'x+1/2, y+1/2, z+1/2'
loop_
_atom_type_symbol
_atom_type_oxidation_number
Na1+ 1
Cu1+ 1
S2- -2
loop_
_atom_site_label
_atom_site_type_symbol
_atom_site_symmetry_multiplicity
_atom_site_Wyckoff_symbol
_atom_site_fract_x
_atom_site_fract_y
_atom_site_fract_z
_atom_site_B_iso_or_equiv
_atom_site_occupancy
_atom_site_attached_hydrogens
Na1 Na1+ 4 a 0 0.25 0.125 . 1. 0
Na2 Na1+ 4 b 0.5 0.75 0.125 . 1. 0
Na3 Na1+ 8 e 0 0.25 0.03363(4) . 1. 0
Na4 Na1+ 8 e 0 0.75 0.11740(4) . 1. 0
Na5 Na1+ 8 e 0.5 0.25 0.03847(4) . 1. 0
Na6 Na1+ 16 f 0.2534(1) 0.9562(1) 0.03937(3) . 1. 0
Na7 Na1+ 16 f 0.2505(1) 0.4932(1) 0.11859(3) . 1. 0
Cu1 Cu1+ 16 f 0.39582(3) 0.59947(4) 0.04544(1) . 1. 0
Cu2 Cu1+ 16 f 0.11570(3) 0.59426(3) 0.04328(1) . 1. 0
S1 S2- 16 f 0.25733(7) 0.69667(6) 0.00546(2) . 1. 0
S2 S2- 16 f 0.98691(6) 0.48733(6) 0.08267(2) . 1. 0
S3 S2- 16 f 0.48369(6) 0.01114(6) 0.08622(2) . 1. 0
loop_
_atom_site_aniso_label
_atom_site_aniso_type_symbol
_atom_site_aniso_U_11
_atom_site_aniso_U_22
_atom_site_aniso_U_33
_atom_site_aniso_U_12
_atom_site_aniso_U_13
_atom_site_aniso_U_23
Na1 Na1+ 0.0159(6) 0.0159(6) 0.022(1) 0 0 0
Na2 Na1+ 0.0166(6) 0.0166(6) 0.032(1) 0 0 0
Na3 Na1+ 0.0239(7) 0.0242(7) 0.0219(7) 0.0063(6) 0 0
Na4 Na1+ 0.0175(7) 0.0149(6) 0.0274(7) -.0004(6) 0 0
Na5 Na1+ 0.0253(7) 0.0242(7) 0.0225(7) -.0069(6) 0 0
Na6 Na1+ 0.0200(5) 0.0187(5) 0.0221(5) 0.0002(4) -.0002(4) -.0017(4)
Na7 Na1+ 0.0145(4) 0.0181(4) 0.0239(5) 0.0001(4) -.0006(4) 0.0026(4)
Cu1 Cu1+ 0.0166(1) 0.0250(2) 0.0185(1) 0.0043(1) -.0014(1) 0.0042(1)
Cu2 Cu1+ 0.0167(1) 0.0230(2) 0.0173(1) -.0039(1) 0.0017(1) 0.0040(1)
S1 S2- 0.0154(3) 0.0157(3) 0.0152(3) -.0005(2) 0.0003(3) 0.0022(2)
S2 S2- 0.0123(3) 0.0137(3) 0.0163(3) -.0010(2) 0.0005(2) 0.0014(2)
S3 S2- 0.0117(3) 0.0154(3) 0.0172(3) 0.0010(2) 0.0005(2) -.0014(2)
#End of TTdata_71682-ICSD