
#(C) 2019 by FIZ Karlsruhe - Leibniz Institute for Information Infrastructure.  All rights reserved.
data_71869-ICSD
_database_code_ICSD 71869
_audit_creation_date 1993-08-22
_chemical_name_systematic 'Sodium vanadate *'
_chemical_formula_structural 'Na (V6 O11)'
_chemical_formula_sum 'Na1 O11 V6'
_chemical_name_structure_type Ba(Ti2Fe3)FeO11
_exptl_crystal_density_diffrn 4.53
_publ_section_title 'Structures of SrV6O11 and NaV6O11'
loop_
_citation_id
_citation_journal_full
_citation_year
_citation_journal_volume
_citation_page_first
_citation_page_last
_citation_journal_id_ASTM
primary 'Acta Crystallographica, Section C: Crystal Structure Communications'
1992 48 1376 1380 ACSCEE
loop_
_publ_author_name
'Kanke, Y.'
'Kato, K.'
'Takayama Muromachi, E.'
'Isobe, M.'
_cell_length_a 5.7123(1)
_cell_length_b 5.7123(1)
_cell_length_c 13.0974(4)
_cell_angle_alpha 90.
_cell_angle_beta 90.
_cell_angle_gamma 120.
_cell_volume 370.12
_cell_formula_units_Z 2
_symmetry_space_group_name_H-M 'P 63/m m c'
_symmetry_Int_Tables_number 194
_refine_ls_R_factor_all 0.017
loop_
_symmetry_equiv_pos_site_id
_symmetry_equiv_pos_as_xyz
1 'x, x-y, -z+1/2'
2 '-x+y, y, -z+1/2'
3 '-y, -x, -z+1/2'
4 '-x+y, -x, -z+1/2'
5 '-y, x-y, -z+1/2'
6 'x, y, -z+1/2'
7 '-x, -x+y, z+1/2'
8 'x-y, -y, z+1/2'
9 'y, x, z+1/2'
10 'x-y, x, z+1/2'
11 'y, -x+y, z+1/2'
12 '-x, -y, z+1/2'
13 '-x, -x+y, -z'
14 'x-y, -y, -z'
15 'y, x, -z'
16 'x-y, x, -z'
17 'y, -x+y, -z'
18 '-x, -y, -z'
19 'x, x-y, z'
20 '-x+y, y, z'
21 '-y, -x, z'
22 '-x+y, -x, z'
23 '-y, x-y, z'
24 'x, y, z'
loop_
_atom_type_symbol
_atom_type_oxidation_number
V3+ 3
V4+ 4
O2- -2
Na1+ 1
loop_
_atom_site_label
_atom_site_type_symbol
_atom_site_symmetry_multiplicity
_atom_site_Wyckoff_symbol
_atom_site_fract_x
_atom_site_fract_y
_atom_site_fract_z
_atom_site_B_iso_or_equiv
_atom_site_occupancy
_atom_site_attached_hydrogens
V1 V3+ 6 g 0.5 0 0 . 1. 0
V2 V4+ 4 e 0 0 0.14754(2) . 1. 0
V3 V4+ 2 d 0.3333 0.6667 0.75 . 1. 0
O1 O2- 12 k 0.17052(6) 0.34104(8) 0.08043(5) . 1. 0
O2 O2- 6 h 0.15273(9) 0.30546(18) 0.25 . 1. 0
O3 O2- 4 f 0.3333 0.6667 0.59075(8) . 1. 0
Na1 Na1+ 2 c 0.3333 0.6667 0.25 . 1. 0
loop_
_atom_site_aniso_label
_atom_site_aniso_type_symbol
_atom_site_aniso_U_11
_atom_site_aniso_U_22
_atom_site_aniso_U_33
_atom_site_aniso_U_12
_atom_site_aniso_U_13
_atom_site_aniso_U_23
V1 V3+ 0.00528(4) 0.00836(7) 0.00567(7) 0.00418(4) -.00037(2) -.00074(4)
V2 V4+ 0.00493(4) 0.00493(4) 0.0060(1) 0.00247(2) 0 0
V3 V4+ 0.00383(6) 0.00383(6) 0.0101(1) 0.00192(3) 0 0
O1 O2- 0.0061(1) 0.0066(2) 0.0088(2) 0.0033(1) 0.00123(9) 0.00246(18)
O2 O2- 0.0120(3) 0.0045(3) 0.0065(2) 0.0023(2) 0 0
O3 O2- 0.0053(22) 0.0053(2) 0.0063(3) 0.0027(11) 0 0
Na1 Na1+ 0.0251(5) 0.0251(5) 0.0352(8) 0.0126(3) 0 0
#End of TTdata_71869-ICSD