
#(C) 2018 by FIZ Karlsruhe - Leibniz Institute for Information Infrastructure.  All rights reserved.
data_71862-ICSD
_database_code_ICSD 71862
_audit_creation_date 1993-08-22
_chemical_name_systematic 'Lithium cadmium phosphate'
_chemical_formula_structural 'Li Cd (P O4)'
_chemical_formula_sum 'Cd1 Li1 O4 P1'
_chemical_name_structure_type Olivine-Mg2SiO4
_exptl_crystal_density_diffrn 4.39
_cell_measurement_temperature 298.
_publ_section_title 'New refinement of LiCdPO4'
loop_
_citation_id
_citation_journal_full
_citation_year
_citation_journal_volume
_citation_page_first
_citation_page_last
_citation_journal_id_ASTM
primary 'Acta Crystallographica, Section C: Crystal Structure Communications'
1992 48 541 542 ACSCEE
loop_
_publ_author_name
'Elammari, L.'
'Elouadi, B.'
'Depmeier, W.'
_cell_length_a 10.724(4)
_cell_length_b 6.288(1)
_cell_length_c 4.804(1)
_cell_angle_alpha 90.
_cell_angle_beta 90.
_cell_angle_gamma 90.
_cell_volume 323.95
_cell_formula_units_Z 4
_symmetry_space_group_name_H-M 'P n m a'
_symmetry_Int_Tables_number 62
_refine_ls_R_factor_all 0.021
loop_
_symmetry_equiv_pos_site_id
_symmetry_equiv_pos_as_xyz
1 'x+1/2, y, -z+1/2'
2 'x, -y+1/2, z'
3 '-x+1/2, y+1/2, z+1/2'
4 '-x, -y, -z'
5 '-x+1/2, -y, z+1/2'
6 '-x, y+1/2, -z'
7 'x+1/2, -y+1/2, -z+1/2'
8 'x, y, z'
loop_
_atom_type_symbol
_atom_type_oxidation_number
Cd2+ 2
P5+ 5
O2- -2
Li1+ 1
loop_
_atom_site_label
_atom_site_type_symbol
_atom_site_symmetry_multiplicity
_atom_site_Wyckoff_symbol
_atom_site_fract_x
_atom_site_fract_y
_atom_site_fract_z
_atom_site_B_iso_or_equiv
_atom_site_occupancy
_atom_site_attached_hydrogens
Cd1 Cd2+ 4 c 0.2158(1) 0.25 0.0450(1) . 1. 0
P1 P5+ 4 c 0.9108(1) 0.25 0.8952(1) . 1. 0
O1 O2- 4 c 0.9064(2) 0.25 0.2131(4) . 1. 0
O2 O2- 4 c 0.0443(2) 0.25 0.7737(4) . 1. 0
O3 O2- 8 d 0.8443(1) 0.4455(2) 0.7645(3) . 1. 0
Li1 Li1+ 4 b 0 0 0.5 . 1. 0
loop_
_atom_site_aniso_label
_atom_site_aniso_type_symbol
_atom_site_aniso_U_11
_atom_site_aniso_U_22
_atom_site_aniso_U_33
_atom_site_aniso_U_12
_atom_site_aniso_U_13
_atom_site_aniso_U_23
Cd1 Cd2+ 0.011(1) 0.009(1) 0.012(1) 0 0.001 0
P1 P5+ 0.010(1) 0.008(1) 0.009(1) 0 0 0
O1 O2- 0.014(1) 0.017(1) 0.011(1) 0 0.002(1) 0
O2 O2- 0.010(1) 0.015(1) 0.013(1) 0 -.001(1) 0
O3 O2- 0.016(1) 0.010(1) 0.014(1) 0.002(1) -.002(1) 0.001(1)
Li1 Li1+ 0.035(3) 0.025(4) 0.024(2) -.006(3) 0.013(3) -.012(3)
#End of TTdata_71862-ICSD