
#(C) 2019 by FIZ Karlsruhe - Leibniz Institute for Information Infrastructure.  All rights reserved.
data_72061-ICSD
_database_code_ICSD 72061
_audit_creation_date 1993-08-22
_audit_update_record 2007-08-01
_chemical_name_systematic

;
Octasodium tecto-hexaalumohexasilicate bis(deuteriooxide)
bis(dideuteriohydrate)
;
_chemical_formula_structural 'Na8 (Al6 Si6 O24) (O D)2 (D2 O)2'
_chemical_formula_sum 'D6 Al6 Na8 O28 Si6'
_chemical_name_structure_type Sodalite-frame
_chemical_name_mineral 'Sodalite basic, deuterated'
_exptl_crystal_density_diffrn 2.33
_cell_measurement_temperature 173.
_publ_section_title

;
Orientational disorder of the hydrogen dihydroxide anion, O2 H3-, in sodium
hydroxosodalite dihydrate, Na8 (Al6 Si6 O24) (O H)2 . 2 (H2 O): single-crystal
X-ray and powder neutron diffraction and MAS NMR and FT IR spectroscopy
;
loop_
_citation_id
_citation_journal_full
_citation_year
_citation_journal_volume
_citation_page_first
_citation_page_last
_citation_journal_id_ASTM
primary 'Journal of Physical Chemistry' 1992 96 392 397 JPCHAX
loop_
_publ_author_name
'Wiebcke, M.'
'Engelhardt, G.'
'Felsche, J.'
'Kempa, P.B.'
'Sieger, P.'
'Schefer, J.'
'Fischer, P.'
_cell_length_a 8.86(5)
_cell_length_b 8.86(5)
_cell_length_c 8.86(5)
_cell_angle_alpha 90.
_cell_angle_beta 90.
_cell_angle_gamma 90.
_cell_volume 695.51
_cell_formula_units_Z 1
_symmetry_space_group_name_H-M 'P -4 3 n'
_symmetry_Int_Tables_number 218
_refine_ls_R_factor_all 0.047
loop_
_symmetry_equiv_pos_site_id
_symmetry_equiv_pos_as_xyz
1 '-z+1/2, y+1/2, -x+1/2'
2 '-y+1/2, x+1/2, -z+1/2'
3 '-x+1/2, z+1/2, -y+1/2'
4 'z+1/2, -y+1/2, -x+1/2'
5 'y+1/2, -x+1/2, -z+1/2'
6 'x+1/2, -z+1/2, -y+1/2'
7 '-z+1/2, -y+1/2, x+1/2'
8 '-y+1/2, -x+1/2, z+1/2'
9 '-x+1/2, -z+1/2, y+1/2'
10 'z+1/2, y+1/2, x+1/2'
11 'y+1/2, x+1/2, z+1/2'
12 'x+1/2, z+1/2, y+1/2'
13 '-z, -x, y'
14 '-y, -z, x'
15 '-x, -y, z'
16 'z, -x, -y'
17 'y, -z, -x'
18 'x, -y, -z'
19 '-z, x, -y'
20 '-y, z, -x'
21 '-x, y, -z'
22 'z, x, y'
23 'y, z, x'
24 'x, y, z'
loop_
_atom_type_symbol
_atom_type_oxidation_number
Al3+ 3
Si4+ 4
O2- -2
Na1+ 1
O2- -2
D1+ 1
loop_
_atom_site_label
_atom_site_type_symbol
_atom_site_symmetry_multiplicity
_atom_site_Wyckoff_symbol
_atom_site_fract_x
_atom_site_fract_y
_atom_site_fract_z
_atom_site_B_iso_or_equiv
_atom_site_occupancy
_atom_site_attached_hydrogens
Al1 Al3+ 6 d 0.25 0 0.5 0.0067(6) 1. 0
Si1 Si4+ 6 c 0.25 0.5 0 0.0067(6) 1. 0
O1 O2- 24 i 0.1391(2) 0.1499(2) 0.4382(1) 0.0106(4) 1. 0
Na1 Na1+ 8 e 0.1759(3) 0.1759(3) 0.1759(3) 0.018(1) 1. 0
O2 O2- 24 i 0.059(4) -.061(4) 0.114(2) 0.038(4) 0.1667 0
D1 D1+ 12 f 0.061(3) 0 0 0.08(1) 0.1667 0
D2 D1+ 8 e 0.8661(6) 0.8661(6) 0.8661(6) 0.054(1) 0.5 0
#End of TTdata_72061-ICSD