
#(C) 2019 by FIZ Karlsruhe - Leibniz Institute for Information Infrastructure.  All rights reserved.
data_72110-ICSD
_database_code_ICSD 72110
_audit_creation_date 1993-08-22
_chemical_name_systematic 'Disodium nickel indium fluoride'
_chemical_formula_structural 'Na2 Ni In F7'
_chemical_formula_sum 'F7 In1 Na2 Ni1'
_chemical_name_structure_type Na2CuInF7
_exptl_crystal_density_diffrn 4.09
_publ_section_title
'Structure and magnetic behaviour of the Na2 Ni In F7 weberite'
loop_
_citation_id
_citation_journal_full
_citation_year
_citation_journal_volume
_citation_page_first
_citation_page_last
_citation_journal_id_ASTM
primary 'Journal of Solid State Chemistry' 1992 98 121 127 JSSCBI
loop_
_publ_author_name
'Frenzen, G.'
'Massa, W.'
'Babel, D.'
'Ruchaud, N.'
'Grannec, J.'
'Tressaud, A.'
'Hagenmuller, P.'
_cell_length_a 7.356(1)
_cell_length_b 10.334(2)
_cell_length_c 7.523(1)
_cell_angle_alpha 90.
_cell_angle_beta 90.
_cell_angle_gamma 90.
_cell_volume 571.88
_cell_formula_units_Z 4
_symmetry_space_group_name_H-M 'P m n b'
_symmetry_Int_Tables_number 62
_refine_ls_R_factor_all 0.026
loop_
_symmetry_equiv_pos_site_id
_symmetry_equiv_pos_as_xyz
1 'x, y+1/2, -z+1/2'
2 '-x+1/2, y, z'
3 'x+1/2, -y+1/2, z+1/2'
4 '-x, -y, -z'
5 '-x, -y+1/2, z+1/2'
6 'x+1/2, -y, -z'
7 '-x+1/2, y+1/2, -z+1/2'
8 'x, y, z'
loop_
_atom_type_symbol
_atom_type_oxidation_number
Na1+ 1
Ni2+ 2
In3+ 3
F1- -1
loop_
_atom_site_label
_atom_site_type_symbol
_atom_site_symmetry_multiplicity
_atom_site_Wyckoff_symbol
_atom_site_fract_x
_atom_site_fract_y
_atom_site_fract_z
_atom_site_B_iso_or_equiv
_atom_site_occupancy
_atom_site_attached_hydrogens
Na1 Na1+ 4 b 0 0 0.5 . 1. 0
Na2 Na1+ 4 c 0.25 0.2323(2) 0.2475(2) . 1. 0
Ni1 Ni2+ 4 a 0 0 0 . 1. 0
In1 In3+ 4 c 0.25 0.23484(3) 0.76607(4) . 1. 0
F1 F1- 4 c 0.25 0.0575(3) 0.0350(4) . 1. 0
F2 F1- 4 c 0.25 0.3415(2) -.0050(3) . 1. 0
F3 F1- 4 c 0.25 0.1404(2) 0.5227(3) . 1. 0
F4 F1- 8 d -.0556(2) 0.1299(2) 0.1880(3) . 1. 0
F5 F1- 8 d 0.0063(2) 0.1323(2) 0.8053(3) . 1. 0
loop_
_atom_site_aniso_label
_atom_site_aniso_type_symbol
_atom_site_aniso_U_11
_atom_site_aniso_U_22
_atom_site_aniso_U_33
_atom_site_aniso_U_12
_atom_site_aniso_U_13
_atom_site_aniso_U_23
Na1 Na1+ 0.022(1) 0.026(1) 0.044(1) -.004(1) 0.003(1) 0.002(1)
Na2 Na1+ 0.0215(8) 0.0243(8) 0.018(1) 0 0 0.0022(8)
Ni1 Ni2+ 0.0074(2) 0.0100(2) 0.0110(3) -.0011(2) -.0009(2) -.0003(2)
In1 In3+ 0.0097(1) 0.0147(1) 0.0145(2) 0 0 -.0026(1)
F1 F1- 0.007(1) 0.040(2) 0.056(2) 0 0 -.027(2)
F2 F1- 0.028(1) 0.019(1) 0.013(1) 0 0 -.001(1)
F3 F1- 0.023(1) 0.023(1) 0.017(1) 0 0 -.004(1)
F4 F1- 0.019(1) 0.022(1) 0.027(1) 0.0015(7) -.0036(8) -.0114(8)
F5 F1- 0.021(1) 0.021(1) 0.023(1) -.0038(7) -.0016(8) 0.0090(8)
#End of TTdata_72110-ICSD