
#(C) 2019 by FIZ Karlsruhe - Leibniz Institute for Information Infrastructure.  All rights reserved.
data_72126-ICSD
_database_code_ICSD 72126
_audit_creation_date 1993-08-22
_chemical_name_systematic 'Sodium dibarium phyllo-undecafluorotrimanganate(II)'
_chemical_formula_structural 'Na Ba2 (Mn3 F11)'
_chemical_formula_sum 'Ba2 F11 Mn3 Na1'
_exptl_crystal_density_diffrn 4.44
_publ_section_title

;
Crystal structure and magnetic properties of Na Ba2 Mn3 F11: a new layer-type
fluoride compound
;
loop_
_citation_id
_citation_journal_full
_citation_year
_citation_journal_volume
_citation_page_first
_citation_page_last
_citation_journal_id_ASTM
primary 'Journal of Solid State Chemistry' 1992 98 379 385 JSSCBI
loop_
_publ_author_name
'Darriet, J.'
'Ducau, M.'
'Feist, M.'
'Tressaud, A.'
'Hagenmuller, P.'
_cell_length_a 7.003(1)
_cell_length_b 7.003(1)
_cell_length_c 35.4660(60)
_cell_angle_alpha 90.
_cell_angle_beta 90.
_cell_angle_gamma 120.
_cell_volume 1506.3
_cell_formula_units_Z 6
_symmetry_space_group_name_H-M 'R -3 c H'
_symmetry_Int_Tables_number 167
_refine_ls_R_factor_all 0.032
loop_
_symmetry_equiv_pos_site_id
_symmetry_equiv_pos_as_xyz
1 'x-y, -y, -z+1/2'
2 '-x, -x+y, -z+1/2'
3 'y, x, -z+1/2'
4 'x-y, x, -z'
5 'y, -x+y, -z'
6 '-x, -y, -z'
7 '-x+y, y, z+1/2'
8 'x, x-y, z+1/2'
9 '-y, -x, z+1/2'
10 '-x+y, -x, z'
11 '-y, x-y, z'
12 'x, y, z'
13 'x-y+2/3, -y+1/3, -z+5/6'
14 '-x+2/3, -x+y+1/3, -z+5/6'
15 'y+2/3, x+1/3, -z+5/6'
16 'x-y+2/3, x+1/3, -z+1/3'
17 'y+2/3, -x+y+1/3, -z+1/3'
18 '-x+2/3, -y+1/3, -z+1/3'
19 '-x+y+2/3, y+1/3, z+5/6'
20 'x+2/3, x-y+1/3, z+5/6'
21 '-y+2/3, -x+1/3, z+5/6'
22 '-x+y+2/3, -x+1/3, z+1/3'
23 '-y+2/3, x-y+1/3, z+1/3'
24 'x+2/3, y+1/3, z+1/3'
25 'x-y+1/3, -y+2/3, -z+1/6'
26 '-x+1/3, -x+y+2/3, -z+1/6'
27 'y+1/3, x+2/3, -z+1/6'
28 'x-y+1/3, x+2/3, -z+2/3'
29 'y+1/3, -x+y+2/3, -z+2/3'
30 '-x+1/3, -y+2/3, -z+2/3'
31 '-x+y+1/3, y+2/3, z+1/6'
32 'x+1/3, x-y+2/3, z+1/6'
33 '-y+1/3, -x+2/3, z+1/6'
34 '-x+y+1/3, -x+2/3, z+2/3'
35 '-y+1/3, x-y+2/3, z+2/3'
36 'x+1/3, y+2/3, z+2/3'
loop_
_atom_type_symbol
_atom_type_oxidation_number
Na1+ 1
Ba2+ 2
Mn2+ 2
F1- -1
loop_
_atom_site_label
_atom_site_type_symbol
_atom_site_symmetry_multiplicity
_atom_site_Wyckoff_symbol
_atom_site_fract_x
_atom_site_fract_y
_atom_site_fract_z
_atom_site_B_iso_or_equiv
_atom_site_occupancy
_atom_site_attached_hydrogens
Na1 Na1+ 6 b 0 0 0 . 1. 0
Ba1 Ba2+ 12 c 0 0 0.1891(1) . 1. 0
Mn1 Mn2+ 18 e 0.4459(2) 0 0.25 . 1. 0
F1 F1- 36 f 0.2665(12) 0.0466(14) 0.7487(5) . 0.5 0
F2 F1- 12 c 0 0 0.07343(3) . 1. 0
F3 F1- 36 f 0.0270(6) 0.6286(6) 0.8063(1) . 1. 0
loop_
_atom_site_aniso_label
_atom_site_aniso_type_symbol
_atom_site_aniso_U_11
_atom_site_aniso_U_22
_atom_site_aniso_U_33
_atom_site_aniso_U_12
_atom_site_aniso_U_13
_atom_site_aniso_U_23
Na1 Na1+ 0.0156(19) 0.0156(19) 0.0743(90) 0.0078(10) 0 0
Ba1 Ba2+ 0.0104(2) 0.0104(2) 0.0073(7) 0.0052(1) 0 0
Mn1 Mn2+ 0.0363(10) 0.0064(9) 0.0063(13) 0.0032(5) 0.0014(6) 0.0027(11)
F1 F1- 0.0149(36) 0.0293(70) 0.0163(56) 0.0133(42) 0.0075(50) 0.0151(79)
F2 F1- 0.0383(29) 0.0383(29) 0.0257(77) 0.0192(15) 0 0
F3 F1- 0.0275(23) 0.0210(19) 0.0129(36) 0.0135(19) -.0031(19) -.0039(17)
#End of TTdata_72126-ICSD