
#(C) 2019 by FIZ Karlsruhe - Leibniz Institute for Information Infrastructure.  All rights reserved.
data_72187-ICSD
_database_code_ICSD 72187
_audit_creation_date 1994-01-19
_chemical_name_systematic
'Sodium neodymium aluminium oxide (0.06/0.37/10.96/17.26)'
_chemical_formula_structural 'Na0.064 Nd0.371 Al10.96 O17.26'
_chemical_formula_sum 'Al10.96 Na0.064 Nd0.371 O17.26'
_exptl_crystal_density_diffrn 3.44
_cell_measurement_temperature 298.
_publ_section_title 'Crystal structure of neodymium-ion-exchanged beta-alumina'
loop_
_citation_id
_citation_journal_full
_citation_year
_citation_journal_volume
_citation_page_first
_citation_page_last
_citation_journal_id_ASTM
primary 'Journal of Solid State Chemistry' 1992 100 255 261 JSSCBI
loop_
_publ_author_name
'Tietz, F.'
'Urland, W.'
_cell_length_a 5.5848(8)
_cell_length_b 5.5848(8)
_cell_length_c 22.406(5)
_cell_angle_alpha 90.
_cell_angle_beta 90.
_cell_angle_gamma 120.
_cell_volume 605.22
_cell_formula_units_Z 2
_symmetry_space_group_name_H-M 'P 63/m m c'
_symmetry_Int_Tables_number 194
_refine_ls_R_factor_all 0.065
loop_
_symmetry_equiv_pos_site_id
_symmetry_equiv_pos_as_xyz
1 'x, x-y, -z+1/2'
2 '-x+y, y, -z+1/2'
3 '-y, -x, -z+1/2'
4 '-x+y, -x, -z+1/2'
5 '-y, x-y, -z+1/2'
6 'x, y, -z+1/2'
7 '-x, -x+y, z+1/2'
8 'x-y, -y, z+1/2'
9 'y, x, z+1/2'
10 'x-y, x, z+1/2'
11 'y, -x+y, z+1/2'
12 '-x, -y, z+1/2'
13 '-x, -x+y, -z'
14 'x-y, -y, -z'
15 'y, x, -z'
16 'x-y, x, -z'
17 'y, -x+y, -z'
18 '-x, -y, -z'
19 'x, x-y, z'
20 '-x+y, y, z'
21 '-y, -x, z'
22 '-x+y, -x, z'
23 '-y, x-y, z'
24 'x, y, z'
loop_
_atom_type_symbol
_atom_type_oxidation_number
Nd3+ 3
Na1+ 1
Al3+ 3
O1- -1.973
loop_
_atom_site_label
_atom_site_type_symbol
_atom_site_symmetry_multiplicity
_atom_site_Wyckoff_symbol
_atom_site_fract_x
_atom_site_fract_y
_atom_site_fract_z
_atom_site_B_iso_or_equiv
_atom_site_occupancy
_atom_site_attached_hydrogens
Nd1 Nd3+ 2 d 0.6667 0.3333 0.25 . 0.320(5) 0
Nd2 Nd3+ 6 h 0.769(7) 0.231(7) 0.25 0.078(10) 0.017(2) 0
Na1 Na1+ 2 b 0 0 0.25 0.016(9) 0.064(2) 0
Al1 Al3+ 2 b 0 0 0.25 0.016(9) 0.040(8) 0
Al2 Al3+ 12 k 0.8322(2) 0.1678(2) 0.1077(1) 0.0109(7) 1. 0
Al3 Al3+ 4 f 0.3333 0.6667 0.0248(1) 0.0075(7) 0.960(8) 0
Al4 Al3+ 4 f 0.3333 0.6667 0.1776(1) 0.0104(8) 1. 0
Al5 Al3+ 2 a 0 0 0 0.0087(10) 1. 0
O1 O1- 12 k 0.1573(4) 0.8427(4) 0.0502(1) 0.008(2) 1. 0
O2 O1- 12 k 0.5032(4) 0.4968(4) 0.1477(1) 0.009(2) 1. 0
O3 O1- 4 f 0.6667 0.3333 0.0562(2) 0.008(1) 1. 0
O4 O1- 4 e 0 0 0.1427(3) 0.010(2) 1. 0
O5 O1- 6 h 0.392(2) 0.608(2) 0.25 . 0.30(1) 0
O6 O1- 6 h 0.180(5) 0.820(5) 0.25 . 0.12(1) 0
loop_
_atom_site_aniso_label
_atom_site_aniso_type_symbol
_atom_site_aniso_U_11
_atom_site_aniso_U_22
_atom_site_aniso_U_33
_atom_site_aniso_U_12
_atom_site_aniso_U_13
_atom_site_aniso_U_23
Nd1 Nd3+ 0.016(1) 0.016(1) 0.024(1) 0 0 0
O5 O1- 0.034(9) 0.011(9) 0.005(6) 0.0055(45) 0 0
O6 O1- 0.021(10) 0.047(11) 0.01(1) 0.0235(55) 0 0
#End of TTdata_72187-ICSD