
#(C) 2019 by FIZ Karlsruhe - Leibniz Institute for Information Infrastructure.  All rights reserved.
data_72297-ICSD
_database_code_ICSD 72297
_audit_creation_date 1994-01-19
_chemical_name_systematic 'Pentasodium tantalate'
_chemical_formula_structural 'Na5 (Ta O5)'
_chemical_formula_sum 'Na5 O5 Ta1'
_chemical_name_structure_type Na5NbO5
_exptl_crystal_density_diffrn 4.02
_publ_section_title

;
Zur Kenntnis 'Kationen-reicher' Tantalate und Niobate. Ueber Na5TaO5 und
Na5NbO5
;
loop_
_citation_id
_citation_journal_full
_citation_year
_citation_journal_volume
_citation_page_first
_citation_page_last
_citation_journal_id_ASTM
primary 'Zeitschrift fuer Anorganische und Allgemeine Chemie (1950) (DE)' 1992
614 38 46 ZAACAB
loop_
_publ_author_name
'Hoppe, R.'
'Wehrum, G.'
_cell_length_a 6.293(1)
_cell_length_b 10.254(2)
_cell_length_c 10.046(2)
_cell_angle_alpha 90.
_cell_angle_beta 106.80(2)
_cell_angle_gamma 90.
_cell_volume 620.58
_cell_formula_units_Z 4
_symmetry_space_group_name_H-M 'C 1 2/c 1'
_symmetry_Int_Tables_number 15
_refine_ls_R_factor_all 0.049
loop_
_symmetry_equiv_pos_site_id
_symmetry_equiv_pos_as_xyz
1 'x, -y, z+1/2'
2 '-x, -y, -z'
3 '-x, y, -z+1/2'
4 'x, y, z'
5 'x+1/2, -y+1/2, z+1/2'
6 '-x+1/2, -y+1/2, -z'
7 '-x+1/2, y+1/2, -z+1/2'
8 'x+1/2, y+1/2, z'
loop_
_atom_type_symbol
_atom_type_oxidation_number
Ta5+ 5
Na1+ 1
O2- -2
loop_
_atom_site_label
_atom_site_type_symbol
_atom_site_symmetry_multiplicity
_atom_site_Wyckoff_symbol
_atom_site_fract_x
_atom_site_fract_y
_atom_site_fract_z
_atom_site_B_iso_or_equiv
_atom_site_occupancy
_atom_site_attached_hydrogens
Ta1 Ta5+ 4 e 0 0.0926 0.25 . 1. 0
Na1 Na1+ 4 e 0 0.6699(6) 0.25 . 1. 0
Na2 Na1+ 8 f 0.8307(8) 0.6145(4) 0.9505(5) . 1. 0
Na3 Na1+ 8 f 0.3333(8) 0.6578(5) 0.9213(5) . 1. 0
O1 O2- 8 f 0.7950(12) 0.6065(7) 0.3938(8) . 1. 0
O2 O2- 8 f 0.8681(1) 0.8294(8) 0.8821(8) . 1. 0
O3 O2- 4 e 0.5 0.4089(9) 0.25 . 1. 0
loop_
_atom_site_aniso_label
_atom_site_aniso_type_symbol
_atom_site_aniso_U_11
_atom_site_aniso_U_22
_atom_site_aniso_U_33
_atom_site_aniso_U_12
_atom_site_aniso_U_13
_atom_site_aniso_U_23
Ta1 Ta5+ 0.0045(2) 0.0070(3) 0.0087(3) 0 0.0011(2) 0
Na1 Na1+ 0.0086(23) 0.0151(25) 0.0198(27) 0 0.0072(21) 0
Na2 Na1+ 0.0149(20) 0.0127(17) 0.0156(20) -.0016(14) -.0002(16) -.0021(14)
Na3 Na1+ 0.0171(20) 0.0186(20) 0.0153(19) 0.0017(15) 0.0054(16) 0.0001(15)
O1 O2- 0.0070(26) 0.0121(26) 0.0119(28) -.0018(21) 0.0012(22) -.0006(20)
O2 O2- 0.0080(26) 0.0219(33) 0.0153(30) 0.0066(26) 0.0008(23) -.0019(24)
O3 O2- 0.0098(39) 0.0139(40) 0.0042(33) 0 0.0029(29) 0
#End of TTdata_72297-ICSD