
#(C) 2019 by FIZ Karlsruhe - Leibniz Institute for Information Infrastructure.  All rights reserved.
data_72303-ICSD
_database_code_ICSD 72303
_audit_creation_date 1994-01-19
_audit_update_record 1999-11-30
_chemical_name_systematic 'Sodium tetrathioferrate(II)'
_chemical_formula_structural 'Na6 (Fe S4)'
_chemical_formula_sum 'Fe1 Na6 S4'
_chemical_name_structure_type K6HgS4
_exptl_crystal_density_diffrn 2.23
_publ_section_title

;
Darstellung, Struktur und magnetische Eigenschaften der
Natriumeisenchalkogenide Na6 Fe S4 und Na6 Fe Se4
;
loop_
_citation_id
_citation_journal_full
_citation_year
_citation_journal_volume
_citation_page_first
_citation_page_last
_citation_journal_id_ASTM
primary 'Zeitschrift fuer Anorganische und Allgemeine Chemie (1950) (DE)' 1992
616 14 18 ZAACAB
loop_
_publ_author_name
'Bronger, W.'
'Balk-Hardtdegen, H.'
'Ruschewitz, U.'
_cell_length_a 8.952(2)
_cell_length_b 8.952(2)
_cell_length_c 6.905(2)
_cell_angle_alpha 90.
_cell_angle_beta 90.
_cell_angle_gamma 120.
_cell_volume 479.22
_cell_formula_units_Z 2
_symmetry_space_group_name_H-M 'P 63 m c'
_symmetry_Int_Tables_number 186
_refine_ls_R_factor_all 0.037
loop_
_symmetry_equiv_pos_site_id
_symmetry_equiv_pos_as_xyz
1 '-x, -x+y, z+1/2'
2 'x-y, -y, z+1/2'
3 'y, x, z+1/2'
4 'x-y, x, z+1/2'
5 'y, -x+y, z+1/2'
6 '-x, -y, z+1/2'
7 'x, x-y, z'
8 '-x+y, y, z'
9 '-y, -x, z'
10 '-x+y, -x, z'
11 '-y, x-y, z'
12 'x, y, z'
loop_
_atom_type_symbol
_atom_type_oxidation_number
Na1+ 1
Fe2+ 2
S2- -2
loop_
_atom_site_label
_atom_site_type_symbol
_atom_site_symmetry_multiplicity
_atom_site_Wyckoff_symbol
_atom_site_fract_x
_atom_site_fract_y
_atom_site_fract_z
_atom_site_B_iso_or_equiv
_atom_site_occupancy
_atom_site_attached_hydrogens
Na1 Na1+ 6 c 0.1459(2) 0.8541(2) 0.5429(4) . 1. 0
Na2 Na1+ 6 c 0.5318(2) 0.4682(2) 0.3675(5) . 1. 0
Fe1 Fe2+ 2 b 0.3333 0.6667 0.25 . 1. 0
S1 S2- 2 b 0.3333 0.6667 0.5958(4) . 1. 0
S2 S2- 6 c 0.18747(9) 0.81253(9) 0.1433(3) . 1. 0
loop_
_atom_site_aniso_label
_atom_site_aniso_type_symbol
_atom_site_aniso_U_11
_atom_site_aniso_U_22
_atom_site_aniso_U_33
_atom_site_aniso_U_12
_atom_site_aniso_U_13
_atom_site_aniso_U_23
Na1 Na1+ 0.0200(6) 0.0200(6) 0.027(1) 0.0047(8) 0.0011(6) -.0011(6)
Na2 Na1+ 0.0293(6) 0.0293(6) 0.0154(9) 0.0165(7) 0.0000(6) 0.0000(6)
Fe1 Fe2+ 0.0137(3) 0.0137(3) 0.0127(4) 0.0069(2) 0 0
S1 S2- 0.0204(7) 0.0204(7) 0.0096(7) 0.0102(4) 0 0
S2 S2- 0.0161(2) 0.0161(2) 0.0149(4) 0.0098(3) -.0007(3) -.0007(3)
#End of TTdata_72303-ICSD