
#(C) 2019 by FIZ Karlsruhe - Leibniz Institute for Information Infrastructure.  All rights reserved.
data_72319-ICSD
_database_code_ICSD 72319
_audit_creation_date 1994-01-19
_chemical_name_systematic 'Sodium nickel trifluoride'
_chemical_formula_structural 'Na Ni F3'
_chemical_formula_sum 'F3 Na1 Ni1'
_chemical_name_structure_type Perovskite-GdFeO3
_exptl_crystal_density_diffrn 4.03
_publ_section_title

;
Kristallstrukturverfeinerungen an Natriumtrifluorometallaten NaMF3
(M=Mg,Co,Ni,Zn): Oktaederkippung und Toleranzfaktor orthorhombischer
Fluorperowskite
;
loop_
_citation_id
_citation_journal_full
_citation_year
_citation_journal_volume
_citation_page_first
_citation_page_last
_citation_journal_id_ASTM
primary 'Zeitschrift fuer Anorganische und Allgemeine Chemie (1950) (DE)' 1992
616 133 140 ZAACAB
loop_
_publ_author_name
'Luetgert, B.'
'Babel, D.'
_cell_length_a 5.366(1)
_cell_length_b 5.530(1)
_cell_length_c 7.695(1)
_cell_angle_alpha 90.
_cell_angle_beta 90.
_cell_angle_gamma 90.
_cell_volume 228.34
_cell_formula_units_Z 4
_symmetry_space_group_name_H-M 'P b n m'
_symmetry_Int_Tables_number 62
_refine_ls_R_factor_all 0.02
loop_
_symmetry_equiv_pos_site_id
_symmetry_equiv_pos_as_xyz
1 '-x+1/2, y+1/2, z'
2 'x, y, -z+1/2'
3 'x+1/2, -y+1/2, z+1/2'
4 '-x, -y, -z'
5 'x+1/2, -y+1/2, -z'
6 '-x, -y, z+1/2'
7 '-x+1/2, y+1/2, -z+1/2'
8 'x, y, z'
loop_
_atom_type_symbol
_atom_type_oxidation_number
Ni2+ 2
Na1+ 1
F1- -1
loop_
_atom_site_label
_atom_site_type_symbol
_atom_site_symmetry_multiplicity
_atom_site_Wyckoff_symbol
_atom_site_fract_x
_atom_site_fract_y
_atom_site_fract_z
_atom_site_B_iso_or_equiv
_atom_site_occupancy
_atom_site_attached_hydrogens
Ni1 Ni2+ 4 b 0.5 0 0 . 1. 0
Na1 Na1+ 4 c -.0127(3) 0.0530(5) 0.25 . 1. 0
F1 F1- 4 c 0.0974(6) 0.4678(5) 0.25 . 1. 0
F2 F1- 8 d 0.6977(4) 0.2989(4) 0.0508(3) . 1. 0
loop_
_atom_site_aniso_label
_atom_site_aniso_type_symbol
_atom_site_aniso_U_11
_atom_site_aniso_U_22
_atom_site_aniso_U_33
_atom_site_aniso_U_12
_atom_site_aniso_U_13
_atom_site_aniso_U_23
Ni1 Ni2+ 0.0053(5) 0.0044(5) 0.0048(5) -.0003(2) -.0002(3) 0.0000(2)
Na1 Na1+ 0.0134(11) 0.0162(10) 0.0148(12) -.0033(9) 0 0
F1 F1- 0.0115(15) 0.0151(14) 0.0048(14) -.0005(13) 0 0
F2 F1- 0.0113(9) 0.0102(8) 0.0153(10) -.0040(9) 0.0029(10) -.0023(10)
#End of TTdata_72319-ICSD