
#(C) 2019 by FIZ Karlsruhe - Leibniz Institute for Information Infrastructure.  All rights reserved.
data_72393-ICSD
_database_code_ICSD 72393
_audit_creation_date 1994-01-19
_audit_update_record 2012-08-01
_chemical_name_systematic 'Disodium copper iron(III) heptafluoride - II'
_chemical_formula_structural 'Na2 Cu Fe F7'
_chemical_formula_sum 'Cu1 F7 Fe1 Na2'
_chemical_name_structure_type Na2CoFeF7
_exptl_crystal_density_diffrn 3.56
_publ_section_title

;
Die Kristallstrukturen von Na2CoFeF7 und einer zweiten Modifikation von
Na2CuFeF7: eine weitere Weberit-Variante
;
loop_
_citation_id
_citation_journal_full
_citation_year
_citation_journal_volume
_citation_page_first
_citation_page_last
_citation_journal_id_ASTM
primary 'Zeitschrift fuer Naturforschung, B: A Journal of Chemical Sciences'
1992 47 685 692 ZNBSEN
loop_
_publ_author_name
'Welsch, M.'
'Babel, D.'
_cell_length_a 12.444(2)
_cell_length_b 7.343(1)
_cell_length_c 24.672(20)
_cell_angle_alpha 90.
_cell_angle_beta 99.27(3)
_cell_angle_gamma 90.
_cell_volume 2224.99
_cell_formula_units_Z 16
_symmetry_space_group_name_H-M 'C 1 2/c 1'
_symmetry_Int_Tables_number 15
_refine_ls_R_factor_all 0.098
loop_
_symmetry_equiv_pos_site_id
_symmetry_equiv_pos_as_xyz
1 'x, -y, z+1/2'
2 '-x, -y, -z'
3 '-x, y, -z+1/2'
4 'x, y, z'
5 'x+1/2, -y+1/2, z+1/2'
6 '-x+1/2, -y+1/2, -z'
7 '-x+1/2, y+1/2, -z+1/2'
8 'x+1/2, y+1/2, z'
loop_
_atom_type_symbol
_atom_type_oxidation_number
Na1+ 1
Cu2+ 2
Fe3+ 3
F1- -1
loop_
_atom_site_label
_atom_site_type_symbol
_atom_site_symmetry_multiplicity
_atom_site_Wyckoff_symbol
_atom_site_fract_x
_atom_site_fract_y
_atom_site_fract_z
_atom_site_B_iso_or_equiv
_atom_site_occupancy
_atom_site_attached_hydrogens
Na1 Na1+ 4 a 0 0 0 . 1. 0
Na2 Na1+ 4 b 0 0.5 0 . 1. 0
Na3 Na1+ 4 d 0.25 0.25 0.5 . 1. 0
Na4 Na1+ 4 e 0 0.780(2) 0.25 . 1. 0
Na5 Na1+ 8 f 0.2538(6) 0.0330(16) 0.2532(4) . 1. 0
Na6 Na1+ 8 f 0.3804(8) 0.4843(13) 0.1210(4) . 1. 0
Cu1 Cu2+ 8 f 0.3793(3) 0.0120(4) 0.1265(2) . 1. 0
Cu2 Cu2+ 8 f 0.1255(3) 0.2591(3) 0.1279(2) . 1. 0
Fe1 Fe3+ 4 c 0.25 0.25 0 . 1. 0
Fe2 Fe3+ 4 e 0 0.2499(6) 0.25 . 1. 0
Fe3 Fe3+ 8 f 0.1250(4) 0.7606(4) 0.1260(2) . 1. 0
F1 F1- 8 f 0.3373(9) 0.0814(18) 0.0439(5) . 1. 0
F2 F1- 8 f 0.4143(11) -.0518(18) 0.2106(6) . 1. 0
F3 F1- 8 f 0.4816(8) 0.2074(13) 0.1409(5) . 1. 0
F4 F1- 8 f 0.2667(10) 0.8216(17) 0.1105(6) . 1. 0
F5 F1- 8 f 0.1388(10) 0.2662(16) 0.0465(6) . 1. 0
F6 F1- 8 f 0.1094(11) 0.2518(15) 0.2038(6) . 1. 0
F7 F1- 8 f 0.0660(8) 0.0042(15) 0.1100(5) . 1. 0
F8 F1- 8 f 0.1828(8) 0.5211(14) 0.1391(5) . 1. 0
F9 F1- 8 f 0.2743(8) 0.1861(14) 0.1491(5) . 1. 0
F10 F1- 8 f -.0224(9) 0.3443(14) 0.1023(5) . 1. 0
F11 F1- 8 f 0.3296(9) 0.4499(17) 0.0340(5) . 1. 0
F12 F1- 8 f 0.0849(10) 0.0569(16) 0.2912(5) . 1. 0
F13 F1- 8 f 0.1673(10) 0.8024(16) 0.2037(5) . 1. 0
F14 F1- 8 f 0.0917(9) 0.7253(15) 0.0478(5) . 1. 0
loop_
_atom_site_aniso_label
_atom_site_aniso_type_symbol
_atom_site_aniso_U_11
_atom_site_aniso_U_22
_atom_site_aniso_U_33
_atom_site_aniso_U_12
_atom_site_aniso_U_13
_atom_site_aniso_U_23
Na1 Na1+ 0.032(9) 0.06(1) 0.06(1) 0.011(9) 0.026(8) 0.034(9)
Na2 Na1+ 0.036(9) 0.038(8) 0.07(1) -.015(8) 0.013(9) -.047(8)
Na3 Na1+ 0.017(7) 0.05(1) 0.015(6) -.014(7) 0.000(5) -.010(7)
Na4 Na1+ 0.08(1) 0.04(1) 0.17(2) 0 0.08(1) 0
Na5 Na1+ 0.019(6) 0.044(7) 0.032(7) 0.003(4) -.001(5) 0.013(5)
Na6 Na1+ 0.013(3) 0.036(5) 0.013(4) 0.016(4) 0.005(3) -.020(5)
Cu1 Cu2+ 0.0066(8) 0.009(1) 0.018(1) -.005(1) 0.0029(7) 0.000(1)
Cu2 Cu2+ 0.0083(7) 0.009(1) 0.007(1) 0.002(1) 0.0025(6) -.004(1)
Fe1 Fe3+ 0.015(3) 0.014(3) 0.026(3) 0.004(2) 0.007(3) 0.005(2)
Fe2 Fe3+ 0.008(2) 0.019(3) 0.002(2) 0 0.001(2) 0
Fe3 Fe3+ 0.0093(8) 0.009(1) 0.018(1) 0.001(1) 0.0030(7) 0.000(1)
F1 F1- 0.020(7) 0.046(8) 0.019(7) -.010(6) -.009(6) -.022(6)
F2 F1- 0.029(9) 0.021(7) 0.06(1) -.005(6) 0.022(7) -.013(7)
F3 F1- 0.006(5) 0.014(5) 0.032(7) -.007(4) 0.010(5) -.004(5)
F4 F1- 0.015(7) 0.030(7) 0.06(1) 0.001(6) 0.008(7) -.015(7)
F5 F1- 0.019(7) 0.040(8) 0.023(8) 0.004(6) 0.020(6) 0.009(6)
F6 F1- 0.021(7) 0.027(7) 0.025(8) 0.008(5) -.001(6) 0.000(6)
F7 F1- 0.024(6) 0.018(6) 0.042(8) -.003(5) 0.017(6) 0.013(6)
F8 F1- 0.019(6) 0.010(5) 0.049(8) -.013(5) 0.003(5) -.002(5)
F9 F1- 0.003(5) 0.021(5) 0.029(7) 0.004(4) 0.001(5) -.004(5)
F10 F1- 0.022(7) 0.020(6) 0.047(9) -.012(5) 0.011(6) 0.001(6)
F11 F1- 0.014(6) 0.037(8) 0.007(6) -.003(5) -.006(5) -.010(5)
F12 F1- 0.021(7) 0.022(7) 0.025(7) -.002(5) 0.007(5) -.009(6)
F13 F1- 0.030(7) 0.030(6) 0.018(7) 0.014(6) 0.007(5) 0.011(6)
F14 F1- 0.012(6) 0.017(6) 0.022(7) 0.000(4) -.006(5) 0.000(5)
#End of TTdata_72393-ICSD