
#(C) 2019 by FIZ Karlsruhe - Leibniz Institute for Information Infrastructure.  All rights reserved.
data_72397-ICSD
_database_code_ICSD 72397
_audit_creation_date 1994-01-19
_chemical_name_systematic 'Sodium catena-pentathiodigallate'
_chemical_formula_structural 'Na4 (Ga2 S5)'
_chemical_formula_sum 'Ga2 Na4 S5'
_exptl_crystal_density_diffrn 2.68
_publ_section_title

;
Darstellung und Kristallstruktur von Na4Ga2S5. Ein Thiogallatmit (Ga2S5)(4-) -
Zweier-Doppelketten
;
loop_
_citation_id
_citation_journal_full
_citation_year
_citation_journal_volume
_citation_page_first
_citation_page_last
_citation_journal_id_ASTM
primary 'Zeitschrift fuer Naturforschung, B: A Journal of Chemical Sciences'
1992 47 937 941 ZNBSEN
loop_
_publ_author_name
'Klepp, K.O.'
_cell_length_a 7.967(1)
_cell_length_b 6.133(2)
_cell_length_c 19.852(9)
_cell_angle_alpha 90.
_cell_angle_beta 91.61(2)
_cell_angle_gamma 90.
_cell_volume 969.62
_cell_formula_units_Z 4
_symmetry_space_group_name_H-M 'P 1 21/c 1'
_symmetry_Int_Tables_number 14
_refine_ls_R_factor_all 0.033
loop_
_symmetry_equiv_pos_site_id
_symmetry_equiv_pos_as_xyz
1 'x, -y+1/2, z+1/2'
2 '-x, -y, -z'
3 '-x, y+1/2, -z+1/2'
4 'x, y, z'
loop_
_atom_type_symbol
_atom_type_oxidation_number
Na1+ 1
Ga3+ 3
S2- -2
loop_
_atom_site_label
_atom_site_type_symbol
_atom_site_symmetry_multiplicity
_atom_site_Wyckoff_symbol
_atom_site_fract_x
_atom_site_fract_y
_atom_site_fract_z
_atom_site_B_iso_or_equiv
_atom_site_occupancy
_atom_site_attached_hydrogens
Na1 Na1+ 4 e 0.0762(5) 0.2555(7) 0.0430(2) . 1. 0
Na2 Na1+ 4 e 0.4012(5) 0.5413(8) 0.1024(2) . 1. 0
Na3 Na1+ 4 e 0.3480(5) 0.5247(8) 0.2832(2) . 1. 0
Na4 Na1+ 4 e 0.8877(6) 0.4984(8) 0.3009(2) . 1. 0
Ga1 Ga3+ 4 e 0.8329(1) 0.5683(2) 0.13376(5) . 1. 0
Ga2 Ga3+ 4 e 0.3456(1) 0.5875(2) 0.46346(5) . 1. 0
S1 S2- 4 e 0.1351(3) 0.4299(4) 0.4027(1) . 1. 0
S2 S2- 4 e 0.7410(3) 0.4360(4) 0.0296(1) . 1. 0
S3 S2- 4 e 0.0903(3) 0.4792(4) 0.1717(1) . 1. 0
S4 S2- 4 e 0.6323(3) 0.5171(4) 0.2069(1) . 1. 0
S5 S2- 4 e 0.6103(3) 0.5250(4) 0.4259(1) . 1. 0
loop_
_atom_site_aniso_label
_atom_site_aniso_type_symbol
_atom_site_aniso_U_11
_atom_site_aniso_U_22
_atom_site_aniso_U_33
_atom_site_aniso_U_12
_atom_site_aniso_U_13
_atom_site_aniso_U_23
Na1 Na1+ 0.019(2) 0.015(2) 0.023(2) 0.000(2) 0.003(2) 0.000(2)
Na2 Na1+ 0.021(2) 0.034(2) 0.018(2) -.004(2) -.005(2) 0.004(2)
Na3 Na1+ 0.030(2) 0.034(2) 0.026(2) -.001(2) 0.012(2) 0.000(2)
Na4 Na1+ 0.031(2) 0.040(2) 0.024(2) 0.002(2) -.012(2) -.001(2)
Ga1 Ga3+ 0.0084(4) 0.0079(4) 0.0087(4) 0.0000(4) 0.0008(4) -.0001(2)
Ga2 Ga3+ 0.0102(4) 0.0069(4) 0.0094(4) 0.0009(4) 0.0000(4) 0.0000(2)
S1 S2- 0.0123(9) 0.007(1) 0.017(1) 0.001(1) -.0054(9) -.002(1)
S2 S2- 0.0180(9) 0.008(1) 0.008(1) -.002(1) -.0026(9) 0.000(1)
S3 S2- 0.0104(9) 0.016(1) 0.013(1) 0.0018(9) -.0013(9) 0.001(1)
S4 S2- 0.0103(9) 0.026(1) 0.013(1) -.001(1) 0.0025(9) 0.002(1)
S5 S2- 0.0101(9) 0.013(1) 0.010(1) 0.0008(9) 0.0025(8) 0.0012(1)
#End of TTdata_72397-ICSD