
#(C) 2019 by FIZ Karlsruhe - Leibniz Institute for Information Infrastructure.  All rights reserved.
data_72677-ICSD
_database_code_ICSD 72677
_audit_creation_date 1994-01-19
_audit_update_record 2015-02-01
_chemical_name_systematic 'Sodium gallium oxide (1.98/10.7/17) - beta"'
_chemical_formula_structural 'Na1.98 (Ga10.673 O17)'
_chemical_formula_sum 'Ga10.673 Na1.98 O17'
_chemical_name_structure_type KAl10.67O17
_exptl_crystal_density_diffrn 5.15
_cell_measurement_temperature 296.
_publ_section_title 'Structure of sodium beta"-gallate'
loop_
_citation_id
_citation_journal_full
_citation_year
_citation_journal_volume
_citation_page_first
_citation_page_last
_citation_journal_id_ASTM
primary 'Acta Crystallographica, Section C: Crystal Structure Communications'
1991 47 495 498 ACSCEE
loop_
_publ_author_name
'Michiue, Y.'
'Watanabe, M.'
'Fujiki, Y.'
_cell_length_a 5.855(1)
_cell_length_b 5.855(1)
_cell_length_c 34.57(1)
_cell_angle_alpha 90.
_cell_angle_beta 90.
_cell_angle_gamma 120.
_cell_volume 1026.32
_cell_formula_units_Z 3
_symmetry_space_group_name_H-M 'R -3 m H'
_symmetry_Int_Tables_number 166
_refine_ls_R_factor_all 0.033
loop_
_symmetry_equiv_pos_site_id
_symmetry_equiv_pos_as_xyz
1 'x-y, -y, -z'
2 '-x, -x+y, -z'
3 'y, x, -z'
4 'x-y, x, -z'
5 'y, -x+y, -z'
6 '-x, -y, -z'
7 '-x+y, y, z'
8 'x, x-y, z'
9 '-y, -x, z'
10 '-x+y, -x, z'
11 '-y, x-y, z'
12 'x, y, z'
13 'x-y+2/3, -y+1/3, -z+1/3'
14 '-x+2/3, -x+y+1/3, -z+1/3'
15 'y+2/3, x+1/3, -z+1/3'
16 'x-y+2/3, x+1/3, -z+1/3'
17 'y+2/3, -x+y+1/3, -z+1/3'
18 '-x+2/3, -y+1/3, -z+1/3'
19 '-x+y+2/3, y+1/3, z+1/3'
20 'x+2/3, x-y+1/3, z+1/3'
21 '-y+2/3, -x+1/3, z+1/3'
22 '-x+y+2/3, -x+1/3, z+1/3'
23 '-y+2/3, x-y+1/3, z+1/3'
24 'x+2/3, y+1/3, z+1/3'
25 'x-y+1/3, -y+2/3, -z+2/3'
26 '-x+1/3, -x+y+2/3, -z+2/3'
27 'y+1/3, x+2/3, -z+2/3'
28 'x-y+1/3, x+2/3, -z+2/3'
29 'y+1/3, -x+y+2/3, -z+2/3'
30 '-x+1/3, -y+2/3, -z+2/3'
31 '-x+y+1/3, y+2/3, z+2/3'
32 'x+1/3, x-y+2/3, z+2/3'
33 '-y+1/3, -x+2/3, z+2/3'
34 '-x+y+1/3, -x+2/3, z+2/3'
35 '-y+1/3, x-y+2/3, z+2/3'
36 'x+1/3, y+2/3, z+2/3'
loop_
_atom_type_symbol
_atom_type_oxidation_number
Ga3+ 3
O2- -2
Na1+ 1
loop_
_atom_site_label
_atom_site_type_symbol
_atom_site_symmetry_multiplicity
_atom_site_Wyckoff_symbol
_atom_site_fract_x
_atom_site_fract_y
_atom_site_fract_z
_atom_site_B_iso_or_equiv
_atom_site_occupancy
_atom_site_attached_hydrogens
Ga1 Ga3+ 18 h 0.16702(6) 0.83298(6) 0.92798(2) . 1. 0
Ga2 Ga3+ 6 c 0 0 0.35010(4) . 0.837 0
Ga3 Ga3+ 6 c 0 0 0.45035(3) . 1. 0
Ga4 Ga3+ 3 a 0 0 0 . 1. 0
O1 O2- 18 h 0.1553(3) 0.8447(3) 0.0348(1) . 1. 0
O2 O2- 18 h 0.1611(4) 0.8389(4) 0.2339(1) . 1. 0
O3 O2- 6 c 0 0 0.2948(2) . 1. 0
O4 O2- 6 c 0 0 0.0983(3) . 1. 0
O5 O2- 18 h 0.0535(45) -.0535(45) 0.5004(40) . 0.1667 0
Na1 Na1+ 6 c 0 0 0.1735(11) . 0.353 0
Na2 Na1+ 18 h -.0659(68) 0.0659(68) 0.1725(12) . 0.158 0
Na3 Na1+ 6 c 0 0 0.35010(4) . 0.163 0
loop_
_atom_site_aniso_label
_atom_site_aniso_type_symbol
_atom_site_aniso_beta_11
_atom_site_aniso_beta_22
_atom_site_aniso_beta_33
_atom_site_aniso_beta_12
_atom_site_aniso_beta_13
_atom_site_aniso_beta_23
Ga1 Ga3+ 0.0039(1) 0.0039(1) 0.0020(1) 0.0021(1) 0.0000(1) 0.0000(1)
Ga2 Ga3+ 0.0032(2) 0.0032(1) 0.0012(1) 0.0016(1) 0 0
Ga3 Ga3+ 0.0052(2) 0.0052(2) 0.0009(1) 0.0026(1) 0 0
Ga4 Ga3+ 0.0039(2) 0.0039(2) 0.0011(1) 0.0020(1) 0 0
O1 O2- 0.0072(8) 0.0072(8) 0.0015(3) 0.002(1) -.0002(1) 0.0002(1)
O2 O2- 0.0049(7) 0.0049(7) 0.0039(4) 0.0028(9) 0.0001(1) -.0001(1)
O3 O2- 0.0030(11) 0.0030(11) 0.0051(9) 0.0015(6) 0 0
O4 O2- 0.0055(12) 0.0055(12) 0.0042(8) 0.0027(6) 0 0
O5 O2- 0.035(28) 0.035(28) 0.0017(17) 0.022(29) 0.0003(20) -.0003(20)
Na1 Na1+ 0.099(35) 0.099(35) 0.0001(23) 0.050(18) 0 0
Na2 Na1+ 0.0511(92) 0.0511(92) 0.0105(40) -0.007(20) 0.0038(15) -.0038(15)
Na3 Na1+ 0.0032(2) 0.0032(2) 0.0012(1) 0.0016(1) 0 0
#End of TTdata_72677-ICSD