
#(C) 2018 by FIZ Karlsruhe - Leibniz Institute for Information Infrastructure.  All rights reserved.
data_72743-ICSD
_database_code_ICSD 72743
_audit_creation_date 1994-01-19
_audit_update_record 2012-02-01
_chemical_name_systematic 'Dilithium titanium tellurium oxide'
_chemical_formula_structural 'Li2 (Ti Te) O6'
_chemical_formula_sum 'Li2 O6 Te1 Ti1'
_chemical_name_structure_type Li2TiTeO6
_exptl_crystal_density_diffrn 4.53
_publ_section_title 'Li+-H+ exchange on Li2TiTeO6'
loop_
_citation_id
_citation_journal_full
_citation_year
_citation_journal_volume
_citation_page_first
_citation_page_last
_citation_journal_id_ASTM
primary 'European Journal of Solid State and Inorganic Chemistry' 1992 29 321
332 EJSCE5
loop_
_publ_author_name
'Crosnier, M.P.'
'Delarue, E.'
'Choisnet, J.'
'Fourquet, J.L.'
_cell_length_a 5.0743(2)
_cell_length_b 4.9067(2)
_cell_length_c 8.4083(4)
_cell_angle_alpha 90.
_cell_angle_beta 90.
_cell_angle_gamma 90.
_cell_volume 209.35
_cell_formula_units_Z 2
_symmetry_space_group_name_H-M 'P n n 2'
_symmetry_Int_Tables_number 34
_refine_ls_R_factor_all 0.027
loop_
_symmetry_equiv_pos_site_id
_symmetry_equiv_pos_as_xyz
1 'x+1/2, -y+1/2, z+1/2'
2 '-x+1/2, y+1/2, z+1/2'
3 '-x, -y, z'
4 'x, y, z'
loop_
_atom_type_symbol
_atom_type_oxidation_number
Li1+ 1
Ti4+ 4
Te6+ 6
Ti4+ 4
O2- -2
loop_
_atom_site_label
_atom_site_type_symbol
_atom_site_symmetry_multiplicity
_atom_site_Wyckoff_symbol
_atom_site_fract_x
_atom_site_fract_y
_atom_site_fract_z
_atom_site_B_iso_or_equiv
_atom_site_occupancy
_atom_site_attached_hydrogens
Li1 Li1+ 2 a 0 0 0.599(3) 0.5 1. 0
Li2 Li1+ 2 b 0 0.5 0.742(5) 0.5 1. 0
Ti1 Ti4+ 2 b 0 0.5 0.3066(3) 0.58(9) 0.915(45) 0
Te1 Te6+ 2 b 0 0.5 0.3066(3) 0.58(9) 0.085(45) 0
Te2 Te6+ 2 a 0 0 0 0.28(2) 0.915(45) 0
Ti2 Ti4+ 2 a 0 0 0 0.28(2) 0.085(45) 0
O1 O2- 4 c 0.153(2) 0.242(6) 0.159(3) 3.15(3) 1. 0
O2 O2- 4 c 0.681(2) 0.208(2) 0.976(2) 3.15(3) 1. 0
O3 O2- 4 c 0.828(4) 0.791(5) 0.815(3) 3.15(3) 1. 0
#End of TTdata_72743-ICSD