
#(C) 2019 by FIZ Karlsruhe - Leibniz Institute for Information Infrastructure.  All rights reserved.
data_72980-ICSD
_database_code_ICSD 72980
_audit_creation_date 1994-06-30
_audit_update_record 2008-08-01
_chemical_name_systematic
'Sodium neodymium magnesium aluminium oxide (0.58/0.35/0.6/10.4/17)'
_chemical_formula_structural 'Na0.58 Nd0.349 Mg0.6 Al10.4 O17'
_chemical_formula_sum 'Al10.4 Mg0.6 Na0.58 Nd0.349 O17'
_chemical_name_structure_type Na2.4Fe11O16
_exptl_crystal_density_diffrn 3.43
_cell_measurement_temperature 295.
_publ_section_title
'Ionic distribution in the solid-state laser material Na+/Nd3+ beta''-alumina'
loop_
_citation_id
_citation_journal_full
_citation_year
_citation_journal_volume
_citation_page_first
_citation_page_last
_citation_journal_id_ASTM
primary 'Acta Crystallographica, Section B: Structural Science' 1993 49 491 496
ASBSDK
loop_
_publ_author_name
'Wolf, M.'
'Thomas, J.O.'
_cell_length_a 5.627(3)
_cell_length_b 5.627(3)
_cell_length_c 33.39(1)
_cell_angle_alpha 90.
_cell_angle_beta 90.
_cell_angle_gamma 120.
_cell_volume 915.59
_cell_formula_units_Z 3
_symmetry_space_group_name_H-M 'R -3 m H'
_symmetry_Int_Tables_number 166
_refine_ls_R_factor_all 0.0294
loop_
_symmetry_equiv_pos_site_id
_symmetry_equiv_pos_as_xyz
1 'x-y, -y, -z'
2 '-x, -x+y, -z'
3 'y, x, -z'
4 'x-y, x, -z'
5 'y, -x+y, -z'
6 '-x, -y, -z'
7 '-x+y, y, z'
8 'x, x-y, z'
9 '-y, -x, z'
10 '-x+y, -x, z'
11 '-y, x-y, z'
12 'x, y, z'
13 'x-y+2/3, -y+1/3, -z+1/3'
14 '-x+2/3, -x+y+1/3, -z+1/3'
15 'y+2/3, x+1/3, -z+1/3'
16 'x-y+2/3, x+1/3, -z+1/3'
17 'y+2/3, -x+y+1/3, -z+1/3'
18 '-x+2/3, -y+1/3, -z+1/3'
19 '-x+y+2/3, y+1/3, z+1/3'
20 'x+2/3, x-y+1/3, z+1/3'
21 '-y+2/3, -x+1/3, z+1/3'
22 '-x+y+2/3, -x+1/3, z+1/3'
23 '-y+2/3, x-y+1/3, z+1/3'
24 'x+2/3, y+1/3, z+1/3'
25 'x-y+1/3, -y+2/3, -z+2/3'
26 '-x+1/3, -x+y+2/3, -z+2/3'
27 'y+1/3, x+2/3, -z+2/3'
28 'x-y+1/3, x+2/3, -z+2/3'
29 'y+1/3, -x+y+2/3, -z+2/3'
30 '-x+1/3, -y+2/3, -z+2/3'
31 '-x+y+1/3, y+2/3, z+2/3'
32 'x+1/3, x-y+2/3, z+2/3'
33 '-y+1/3, -x+2/3, z+2/3'
34 '-x+y+1/3, -x+2/3, z+2/3'
35 '-y+1/3, x-y+2/3, z+2/3'
36 'x+1/3, y+2/3, z+2/3'
loop_
_atom_type_symbol
_atom_type_oxidation_number
Nd3+ 3
Na1+ 1
Al3+ 3
Mg2+ 2
Al3+ 3
O2- -2
loop_
_atom_site_label
_atom_site_type_symbol
_atom_site_symmetry_multiplicity
_atom_site_Wyckoff_symbol
_atom_site_fract_x
_atom_site_fract_y
_atom_site_fract_z
_atom_site_B_iso_or_equiv
_atom_site_occupancy
_atom_site_attached_hydrogens
Nd1 Nd3+ 9 d 0.8333 0.1667 0.1667 . 0.075(1) 0
Nd2 Nd3+ 6 c 0 0 0.1759(1) . 0.062(2) 0
Na1 Na1+ 6 c 0 0 0.1711(3) . 0.29(1) 0
Al1 Al3+ 3 a 0 0 0 . 1. 0
Al2 Al3+ 6 c 0 0 0.35015(1) . 1. 0
Al3 Al3+ 18 h 0.33412(4) 0.16706(2) 0.07182(1) . 0.9 0
Mg1 Mg2+ 18 h 0.33412(4) 0.16706(2) 0.07182(1) . 0.1 0
Al4 Al3+ 6 c 0 0 0.45021(1) . 1. 0
O1 O2- 18 h 0.15372(5) 0.30744(10) 0.03481(1) . 1. 0
O2 O2- 6 c 0 0 0.29449(3) . 1. 0
O3 O2- 6 c 0 0 0.09831(3) . 1. 0
O4 O2- 18 h 0.16300(5) 0.3260(1) 0.23407(1) . 1. 0
O5 O2- 18 h 0.2872(5) 0.5744(10) 0.1667 . 0.1667 0
loop_
_atom_site_aniso_label
_atom_site_aniso_type_symbol
_atom_site_aniso_beta_11
_atom_site_aniso_beta_22
_atom_site_aniso_beta_33
_atom_site_aniso_beta_12
_atom_site_aniso_beta_13
_atom_site_aniso_beta_23
Nd1 Nd3+ 0.0167(7) 0.0167(7) 0.00026(1) -.0039(6) 0.00014(5) -.00014(5)
Nd2 Nd3+ 0.0087(5) 0.0087(5) 0.00009(1) 0.0044(3) 0 0
Na1 Na1+ 0.141(11) 0.141(11) 0.00019(5) 0.0703(52) 0 0
Al1 Al3+ 0.0037(1) 0.0037(1) 0.000090(3) 0.00185(5) 0 0
Al2 Al3+ 0.00446(7) 0.00446(7) 0.000130(2) 0.00223(4) 0 0
Al3 Al3+ 0.00353(7) 0.00362(5) 0.000150(1) 0.00177(3) 0 0
Mg1 Mg2+ 0.00353(7) 0.00362(5) 0.000150(1) 0.00177(3) 0 0
Al4 Al3+ 0.00481(8) 0.00481(8) 0.000080(2) 0.00241(4) 0 0
O1 O2- 0.0055(1) 0.0072(2) 0.000140(2) 0.00362(8) -.00016(1) -.00032(2)
O2 O2- 0.0043(2) 0.0043(2) 0.00021(1) 0.0021(1) 0 0
O3 O2- 0.0047(2) 0.0047(2) 0.00019(1) 0.0023(1) 0 0
O4 O2- 0.0041(1) 0.0048(2) 0.000190(3) 0.00238(7) 0.00005(1) 0.00010(2)
O5 O2- 0.0228(20) 0.0373(21) 0.00008(1) 0.0186(11) 0.00004(11) 0.00009(22)
#End of TTdata_72980-ICSD