
#(C) 2019 by FIZ Karlsruhe - Leibniz Institute for Information Infrastructure.  All rights reserved.
data_73108-ICSD
_database_code_ICSD 73108
_audit_creation_date 1994-06-30
_chemical_name_systematic
'Sodium tecto-hexaalumohexagermanate dihydroxide dihydrate HT'
_chemical_formula_structural 'Na8 (Al6 Ge6 O24) (O H)2 (H2 O)2'
_chemical_formula_sum 'H6 Al6 Ge6 Na8 O28'
_chemical_name_structure_type Sodalite-frame
_exptl_crystal_density_diffrn 2.8
_cell_measurement_temperature 200.
_publ_section_title

;
Sodium aluminogermanate hydroxosodalite hydrate
Na6+x(Al6Ge6O24)(OH)x*nH2O(x=1.6,n=3.0): synthesis, phase transitions and
dynamical disorder of the hydrogendihydroxide anion, H3O2(-), in the cubic
high-temperature form
;
loop_
_citation_id
_citation_journal_full
_citation_year
_citation_journal_volume
_citation_page_first
_citation_page_last
_citation_journal_id_ASTM
primary 'Zeitschrift fuer Anorganische und Allgemeine Chemie (1950) (DE)' 1993
619 1321 1329 ZAACAB
loop_
_publ_author_name
'Wiebcke, M.'
'Sieger, P.'
'Felsche, J.'
'Engelhardt, G.'
'Behrens, P.'
'Schefer, J.'
_cell_length_a 9.02(1)
_cell_length_b 9.02(1)
_cell_length_c 9.02(1)
_cell_angle_alpha 90.
_cell_angle_beta 90.
_cell_angle_gamma 90.
_cell_volume 733.87
_cell_formula_units_Z 1
_symmetry_space_group_name_H-M 'P -4 3 n'
_symmetry_Int_Tables_number 218
_refine_ls_R_factor_all 0.056
loop_
_symmetry_equiv_pos_site_id
_symmetry_equiv_pos_as_xyz
1 '-z+1/2, y+1/2, -x+1/2'
2 '-y+1/2, x+1/2, -z+1/2'
3 '-x+1/2, z+1/2, -y+1/2'
4 'z+1/2, -y+1/2, -x+1/2'
5 'y+1/2, -x+1/2, -z+1/2'
6 'x+1/2, -z+1/2, -y+1/2'
7 '-z+1/2, -y+1/2, x+1/2'
8 '-y+1/2, -x+1/2, z+1/2'
9 '-x+1/2, -z+1/2, y+1/2'
10 'z+1/2, y+1/2, x+1/2'
11 'y+1/2, x+1/2, z+1/2'
12 'x+1/2, z+1/2, y+1/2'
13 '-z, -x, y'
14 '-y, -z, x'
15 '-x, -y, z'
16 'z, -x, -y'
17 'y, -z, -x'
18 'x, -y, -z'
19 '-z, x, -y'
20 '-y, z, -x'
21 '-x, y, -z'
22 'z, x, y'
23 'y, z, x'
24 'x, y, z'
loop_
_atom_type_symbol
_atom_type_oxidation_number
Al3+ 3
Ge4+ 4
O2- -2
Na1+ 1
O2- -2
H1+ 1
loop_
_atom_site_label
_atom_site_type_symbol
_atom_site_symmetry_multiplicity
_atom_site_Wyckoff_symbol
_atom_site_fract_x
_atom_site_fract_y
_atom_site_fract_z
_atom_site_B_iso_or_equiv
_atom_site_occupancy
_atom_site_attached_hydrogens
Al1 Al3+ 6 d 0.25 0 0.5 0.0037(5) 1. 0
Ge1 Ge4+ 6 c 0.25 0.5 0 0.0037(5) 1. 0
O1 O2- 24 i 0.1431(3) 0.1446(3) 0.4270(2) 0.0100(5) 1. 0
Na1 Na1+ 8 e 0.1690(4) 0.1690(4) 0.1690(4) 0.020(1) 1. 0
O2 O2- 24 i 0.074(8) -.080(8) 0.117(2) 0.038(5) 0.1667 0
H1 H1+ 12 f 0.097(4) 0 0 0.10(2) 0.1667 0
H2 H1+ 8 e 0.854(1) 0.854(1) 0.854(1) 0.066(5) 0.5 0
#End of TTdata_73108-ICSD