
#(C) 2018 by FIZ Karlsruhe - Leibniz Institute for Information Infrastructure.  All rights reserved.
data_73150-ICSD
_database_code_ICSD 73150
_audit_creation_date 1994-06-30
_audit_update_record 2008-02-01
_chemical_name_systematic 'Pentalithium tecto-tridecathioheptaborate'
_chemical_formula_structural 'Li5 (B7 S13)'
_chemical_formula_sum 'B7 Li5 S13'
_exptl_crystal_density_diffrn 2.13
_cell_measurement_temperature 140.
_publ_section_title

;
Li5 B7 S13 und Li9 B19 S33: zwei Lithiumthioborate mit neuen hochpolymeren
Anionengeruesten
;
loop_
_citation_id
_citation_journal_full
_citation_year
_citation_journal_volume
_citation_page_first
_citation_page_last
_citation_journal_id_ASTM
primary 'Zeitschrift fuer Anorganische und Allgemeine Chemie (1950) (DE)' 1993
619 293 302 ZAACAB
loop_
_publ_author_name
'Hiltmann, F.'
'zum Hecht, P.'
'Hammerschmidt, A.'
'Krebs, B.'
_cell_length_a 17.304(2)
_cell_length_b 21.922(3)
_cell_length_c 12.233(2)
_cell_angle_alpha 90.
_cell_angle_beta 134.91(1)
_cell_angle_gamma 90.
_cell_volume 3286.44
_cell_formula_units_Z 8
_symmetry_space_group_name_H-M 'C 1 2/c 1'
_symmetry_Int_Tables_number 15
_refine_ls_R_factor_all 0.049
loop_
_symmetry_equiv_pos_site_id
_symmetry_equiv_pos_as_xyz
1 'x, -y, z+1/2'
2 '-x, -y, -z'
3 '-x, y, -z+1/2'
4 'x, y, z'
5 'x+1/2, -y+1/2, z+1/2'
6 '-x+1/2, -y+1/2, -z'
7 '-x+1/2, y+1/2, -z+1/2'
8 'x+1/2, y+1/2, z'
loop_
_atom_type_symbol
_atom_type_oxidation_number
S2- -2
B3+ 3
Li1+ 1
loop_
_atom_site_label
_atom_site_type_symbol
_atom_site_symmetry_multiplicity
_atom_site_Wyckoff_symbol
_atom_site_fract_x
_atom_site_fract_y
_atom_site_fract_z
_atom_site_B_iso_or_equiv
_atom_site_occupancy
_atom_site_attached_hydrogens
S1 S2- 8 f 0.61918(7) 0.17725(4) 0.4267(1) . 1. 0
S2 S2- 8 f 0.55771(7) 0.07301(4) 0.18833(10) . 1. 0
S3 S2- 8 f 0.55023(8) 0.27663(4) 0.18789(11) . 1. 0
S4 S2- 8 f 0.72679(7) 0.17319(4) 0.30302(10) . 1. 0
S5 S2- 8 f 0.78875(8) 0.07528(4) 0.53198(10) . 1. 0
S6 S2- 8 f 0.32661(8) 0.07703(4) 0.8498(1) . 1. 0
S7 S2- 8 f 0.49349(8) 0.17500(4) 0.95464(10) . 1. 0
S8 S2- 8 f 0.38761(7) 0.97366(4) 0.08752(10) . 1. 0
S9 S2- 8 f 0.49527(8) 0.37527(4) 0.93084(10) . 1. 0
S10 S2- 4 e 0.5 0.47708(6) 0.75 . 1. 0
S11 S2- 8 f 0.31459(7) 0.37507(4) 0.56002(10) . 1. 0
S12 S2- 4 e 0.5 0.27343(6) 0.75 . 1. 0
S13 S2- 8 f 0.68338(7) 0.27597(4) 0.10926(10) . 1. 0
S14 S2- 8 f 0.17603(7) 0.97442(4) 0.74258(10) . 1. 0
B1 B3+ 4 e 0.5 0.2253(3) 0.25 . 1. 0
B2 B3+ 8 f 0.6707(3) 0.1241(2) 0.3623(5) . 1. 0
B3 B3+ 8 f 0.4417(3) 0.1250(2) 0.0211(5) . 1. 0
B4 B3+ 4 e 0.5 0.0236(3) 0.25 . 1. 0
B5 B3+ 8 f 0.6080(3) 0.2233(2) 0.1360(5) . 1. 0
B6 B3+ 8 f 0.2781(3) 0.0263(2) -.0796(5) . 1. 0
B7 B3+ 8 f 0.4100(3) 0.4233(2) 0.7449(5) . 1. 0
B8 B3+ 8 f 0.4150(3) 0.3262(2) 0.5749(5) . 1. 0
Li1 Li1+ 8 f 0.6672(10) 0.3613(5) 0.2495(13) . 1. 0
Li2 Li1+ 8 f 0.8961(8) 0.2177(4) 0.3956(16) . 1. 0
Li3 Li1+ 8 f 0.6679(8) 0.1109(5) 0.0865(11) . 1. 0
Li4 Li1+ 8 f 0.2498(13) -.0312(5) 0.1040(15) . 1. 0
Li5 Li1+ 8 f 0.5172(18) 0.5117(14) 0.9605(25) . 0.5 0
Li6 Li1+ 8 f 0.3071(18) 0.2402(15) 0.5756(23) . 0.5 0
loop_
_atom_site_aniso_label
_atom_site_aniso_type_symbol
_atom_site_aniso_U_11
_atom_site_aniso_U_22
_atom_site_aniso_U_33
_atom_site_aniso_U_12
_atom_site_aniso_U_13
_atom_site_aniso_U_23
S1 S2- 0.0082(5) 0.0052(4) 0.0063(4) 0.0007(3) 0.0054(4) 0.0000(3)
S2 S2- 0.0081(5) 0.0054(4) 0.0074(4) 0.0005(3) 0.0060(4) 0.0007(3)
S3 S2- 0.0134(5) 0.0035(4) 0.0150(5) 0.0005(4) 0.0124(4) 0.0012(4)
S4 S2- 0.0077(4) 0.0070(4) 0.0089(4) 0.0014(3) 0.0067(4) 0.0026(3)
S5 S2- 0.0084(4) 0.0073(5) 0.0081(4) 0.0015(3) 0.0062(4) 0.0025(3)
S6 S2- 0.0091(4) 0.0066(4) 0.0064(4) -.0023(3) 0.0057(4) -.0008(3)
S7 S2- 0.0092(5) 0.0086(5) 0.0073(4) -.0025(3) 0.0064(4) -.0006(3)
S8 S2- 0.0104(5) 0.0040(4) 0.0072(4) -.0008(3) 0.0052(4) -.0007(3)
S9 S2- 0.0094(4) 0.0090(4) 0.0069(4) 0.0026(4) 0.0063(4) 0.0021(3)
S10 S2- 0.0140(6) 0.0063(6) 0.0139(7) 0 0.0117(6) 0
S11 S2- 0.0077(4) 0.0087(5) 0.0084(4) -.0001(3) 0.0061(4) -.0015(3)
S12 S2- 0.0113(6) 0.0065(6) 0.0090(6) 0 0.0061(6) 0
S13 S2- 0.0075(4) 0.0068(4) 0.0070(4) 0.0008(3) 0.0055(4) 0.0023(3)
S14 S2- 0.0086(4) 0.0067(4) 0.0061(4) -.0025(3) 0.0058(4) -.0012(3)
B1 B3+ 0.013(3) 0.004(3) 0.008(3) 0 0.009(2) 0
B2 B3+ 0.007(2) 0.006(2) 0.010(2) 0.0038(15) 0.007(2) 0.002(2)
B3 B3+ 0.009(2) 0.005(2) 0.007(2) 0.0002(2) 0.005(2) 0.0043(15)
B4 B3+ 0.007(3) 0.003(3) 0.006(3) 0 0.004(2) 0
B5 B3+ 0.010(2) 0.001(2) 0.010(2) 0.0007(15) 0.0082(2) 0.0010(15)
B6 B3+ 0.009(2) 0.003(2) 0.004(2) -.0002(15) 0.004(2) 0.0001(15)
B7 B3+ 0.008(2) 0.008(2) 0.005(2) 0.002(2) 0.005(2) 0.0000(15)
B8 B3+ 0.008(2) 0.008(2) 0.008(2) -.002(2) 0.007(2) -.002(2)
Li1 Li1+ 0.074(8) 0.053(6) 0.059(7) -.056(6) 0.061(7) -.046(5)
Li2 Li1+ 0.021(5) 0.022(5) 0.092(9) -.005(4) 0.016(6) -.023(5)
Li3 Li1+ 0.030(5) 0.040(6) 0.033(5) 0.010(4) 0.013(4) -.026(4)
Li4 Li1+ 0.134(12) 0.034(6) 0.076(8) -.034(7) 0.096(9) -.020(5)
Li5 Li1+ 0.031(11) 0.11(2) 0.034(12) -.005(13) 0.018(10) -.005(13)
Li6 Li1+ 0.042(13) 0.13(2) 0.024(10) -.029(14) 0.026(10) -.009(12)
#End of TTdata_73150-ICSD