
#(C) 2019 by FIZ Karlsruhe - Leibniz Institute for Information Infrastructure.  All rights reserved.
data_73189-ICSD
_database_code_ICSD 73189
_audit_creation_date 1994-06-30
_audit_update_record 2015-02-01
_chemical_name_systematic 'Sodium tetrabarium diperoxotetraoxoaurate'
_chemical_formula_structural 'Na Ba4 (Au O4 (O2)2)'
_chemical_formula_sum 'Au1 Ba4 Na1 O8'
_chemical_name_structure_type NaAuBa4O8
_exptl_crystal_density_diffrn 5.49
_publ_section_title
'Das erste Alkali-Erdalkalimetall-Oxo/Peroxo-Aurat(III): Na Ba4 Au O4 (O2)2'
loop_
_citation_id
_citation_journal_full
_citation_year
_citation_journal_volume
_citation_page_first
_citation_page_last
_citation_journal_id_ASTM
primary 'Zeitschrift fuer Anorganische und Allgemeine Chemie (1950) (DE)' 1993
619 537 539 ZAACAB
loop_
_publ_author_name
'Weinreich, J.'
'Mueller Buschbaum, H.'
_cell_length_a 5.9394(12)
_cell_length_b 5.9394(12)
_cell_length_c 15.3928(52)
_cell_angle_alpha 90.
_cell_angle_beta 90.
_cell_angle_gamma 90.
_cell_volume 543.
_cell_formula_units_Z 2
_symmetry_space_group_name_H-M 'I 4/m m m'
_symmetry_Int_Tables_number 139
_refine_ls_R_factor_all 0.07
loop_
_symmetry_equiv_pos_site_id
_symmetry_equiv_pos_as_xyz
1 'y, x, -z'
2 '-y, -x, -z'
3 '-y, x, -z'
4 'y, -x, -z'
5 '-x, y, -z'
6 'x, -y, -z'
7 'x, y, -z'
8 '-x, -y, -z'
9 '-y, -x, z'
10 'y, x, z'
11 'y, -x, z'
12 '-y, x, z'
13 'x, -y, z'
14 '-x, y, z'
15 '-x, -y, z'
16 'x, y, z'
17 'y+1/2, x+1/2, -z+1/2'
18 '-y+1/2, -x+1/2, -z+1/2'
19 '-y+1/2, x+1/2, -z+1/2'
20 'y+1/2, -x+1/2, -z+1/2'
21 '-x+1/2, y+1/2, -z+1/2'
22 'x+1/2, -y+1/2, -z+1/2'
23 'x+1/2, y+1/2, -z+1/2'
24 '-x+1/2, -y+1/2, -z+1/2'
25 '-y+1/2, -x+1/2, z+1/2'
26 'y+1/2, x+1/2, z+1/2'
27 'y+1/2, -x+1/2, z+1/2'
28 '-y+1/2, x+1/2, z+1/2'
29 'x+1/2, -y+1/2, z+1/2'
30 '-x+1/2, y+1/2, z+1/2'
31 '-x+1/2, -y+1/2, z+1/2'
32 'x+1/2, y+1/2, z+1/2'
loop_
_atom_type_symbol
_atom_type_oxidation_number
Au3+ 3
Na1+ 1
Ba2+ 2
O1- -1
O2- -2
loop_
_atom_site_label
_atom_site_type_symbol
_atom_site_symmetry_multiplicity
_atom_site_Wyckoff_symbol
_atom_site_fract_x
_atom_site_fract_y
_atom_site_fract_z
_atom_site_B_iso_or_equiv
_atom_site_occupancy
_atom_site_attached_hydrogens
Au1 Au3+ 2 a 0 0 0 0.61(6) 1. 0
Na1 Na1+ 2 b 0 0 0.5 2.86(85) 1. 0
Ba1 Ba2+ 8 g 0 0.5 0.1178(2) 0.86(5) 1. 0
O1 O1- 4 e 0 0 0.350(3) 1.24(67) 1. 0
O2 O1- 4 e 0 0 0.257(4) 2.11(78) 1. 0
O3 O2- 8 h 0.235(4) 0.235(4) 0 0.99(48) 1. 0
#End of TTdata_73189-ICSD