
#(C) 2019 by FIZ Karlsruhe - Leibniz Institute for Information Infrastructure.  All rights reserved.
data_73257-ICSD
_database_code_ICSD 73257
_audit_creation_date 1994-06-30
_chemical_name_systematic 'Sodium aluminium cyclo-alumogermanate *'
_chemical_formula_structural 'Na2.90 Al5 (Al6.16 Ge5.84 O30)'
_chemical_formula_sum 'Al11.16 Ge5.84 Na2.9 O30'
_exptl_crystal_density_diffrn 3.64
_publ_section_title

;
Nonstoichiometric sodium pentaaluminium dodecaaluminogermanate
(Na2.90Al5(Al6.16Ge5.84O29. 87)): a sechser double-ring structure
;
loop_
_citation_id
_citation_journal_full
_citation_year
_citation_journal_volume
_citation_page_first
_citation_page_last
_citation_journal_id_ASTM
primary 'Zeitschrift fuer Kristallographie' 1993 203 215 224 ZEKRDZ
loop_
_publ_author_name
'Fleet, M.E.'
_cell_length_a 9.716(3)
_cell_length_b 9.716(3)
_cell_length_c 14.192(3)
_cell_angle_alpha 90.
_cell_angle_beta 90.
_cell_angle_gamma 120.
_cell_volume 1160.24
_cell_formula_units_Z 2
_symmetry_space_group_name_H-M 'P 63/m c m'
_symmetry_Int_Tables_number 193
_refine_ls_R_factor_all 0.021
loop_
_symmetry_equiv_pos_site_id
_symmetry_equiv_pos_as_xyz
1 '-x, -x+y, -z+1/2'
2 'x-y, -y, -z+1/2'
3 'y, x, -z+1/2'
4 '-x+y, -x, -z+1/2'
5 '-y, x-y, -z+1/2'
6 'x, y, -z+1/2'
7 'x, x-y, z+1/2'
8 '-x+y, y, z+1/2'
9 '-y, -x, z+1/2'
10 'x-y, x, z+1/2'
11 'y, -x+y, z+1/2'
12 '-x, -y, z+1/2'
13 'x, x-y, -z'
14 '-x+y, y, -z'
15 '-y, -x, -z'
16 'x-y, x, -z'
17 'y, -x+y, -z'
18 '-x, -y, -z'
19 '-x, -x+y, z'
20 'x-y, -y, z'
21 'y, x, z'
22 '-x+y, -x, z'
23 '-y, x-y, z'
24 'x, y, z'
loop_
_atom_type_symbol
_atom_type_oxidation_number
Na1+ 1
Ge4+ 4
Al3+ 3
O2- -2
loop_
_atom_site_label
_atom_site_type_symbol
_atom_site_symmetry_multiplicity
_atom_site_Wyckoff_symbol
_atom_site_fract_x
_atom_site_fract_y
_atom_site_fract_z
_atom_site_B_iso_or_equiv
_atom_site_occupancy
_atom_site_attached_hydrogens
Na1 Na1+ 2 a 0 0 0.25 . 1. 0
Na2 Na1+ 2 b 0 0 0 . 1. 0
Na3 Na1+ 4 c 0.3333 0.6667 0.25 . 0.310(8) 0
Na4 Na1+ 6 g 0.500(11) 0 0.25 . 0.094(6) 0
Ge1 Ge4+ 24 l 0.36513(4) 0.18194(16) 0.36523(2) . 0.487 0
Al1 Al3+ 24 l 0.36513(4) 0.18194(16) 0.36523(2) . 0.513 0
Al2 Al3+ 6 f 0.5 0 0 . 1. 0
Al3 Al3+ 4 d 0.3333 0.6667 0 . 1. 0
O1 O2- 12 j 0.2302(4) 0.4189(4) 0.25 . 1. 0
O2 O2- 12 k 0.6735(4) 0 0.0829(2) . 1. 0
O3 O2- 12 k 0.1865(3) 0 0.1275(2) . 1. 0
O4 O2- 24 l 0.5105(3) 0.1654(2) 0.0726(1) . 1. 0
loop_
_atom_site_aniso_label
_atom_site_aniso_type_symbol
_atom_site_aniso_B_11
_atom_site_aniso_B_22
_atom_site_aniso_B_33
_atom_site_aniso_B_12
_atom_site_aniso_B_13
_atom_site_aniso_B_23
Na1 Na1+ 1.54(20) 1.54(20) 1.33(18) 0.77(10) 0 0
Na2 Na1+ 1.65(21) 1.65(21) 1.73(20) 0.83(10) 0 0
Na3 Na1+ 1.39(50) 1.39(50) 7.87(82) 0.69(25) 0 0
Na4 Na1+ 5.040(22) 7.880(33) 4.810(17) 3.940(16) 0 0
Ge1 Ge4+ 0.59(2) 0.42(3) 0.48(1) 0.30(3) -.13(1) -.11(5)
Al1 Al3+ 0.59(2) 0.42(3) 0.48(1) 0.30(3) -.13(1) -.11(5)
Al2 Al3+ 0.53(5) 0.26(6) 0.72(5) 0.13(3) -.04(18) 0
Al3 Al3+ 0.27(7) 0.27(7) 0.48(6) 0.13(4) 0 0
O1 O2- 1.31(18) 2.26(16) 0.64(7) 1.04(12) 0 0
O2 O2- 0.68(11) 0.51(12) 0.59(8) 0.34(6) 0.04(10) 0
O3 O2- 0.64(10) 0.62(11) 1.47(11) 0.32(10) 0.03(11) 0
O4 O2- 0.59(8) 0.37(8) 0.80(5) 0.21(7) 0.34(8) 0.02(7)
#End of TTdata_73257-ICSD