
#(C) 2019 by FIZ Karlsruhe - Leibniz Institute for Information Infrastructure.  All rights reserved.
data_73265-ICSD
_database_code_ICSD 73265
_audit_creation_date 1994-06-30
_audit_update_record 2012-02-01
_chemical_name_systematic 'Sodium dicopper bis(sulfate(VI)) hydroxide hydrate'
_chemical_formula_structural 'Na Cu2 (S O4)2 (O H) (H2 O)'
_chemical_formula_sum 'H3 Cu2 Na1 O10 S2'
_chemical_name_structure_type NaCu2OH(SO4)2H2O
_chemical_name_mineral Natrochalcite
_exptl_crystal_density_diffrn 3.49
_publ_section_title

;
Neutron refinements of NaCu2(H3O2)(SO4)2 and RbCu2(H3O2)(SeO4)2: variation of
the hydrogen bond systemin the natrochalcite-type series
;
loop_
_citation_id
_citation_journal_full
_citation_year
_citation_journal_volume
_citation_page_first
_citation_page_last
_citation_journal_id_ASTM
primary 'Zeitschrift fuer Kristallographie' 1993 206 7 14 ZEKRDZ
loop_
_publ_author_name
'Chevrier, G.'
'Giester, G.'
'Zemann, J.'
_cell_length_a 8.809(1)
_cell_length_b 6.187(1)
_cell_length_c 7.509(1)
_cell_angle_alpha 90.
_cell_angle_beta 118.74(1)
_cell_angle_gamma 90.
_cell_volume 358.83
_cell_formula_units_Z 2
_symmetry_space_group_name_H-M 'C 1 2/m 1'
_symmetry_Int_Tables_number 12
_refine_ls_R_factor_all 0.036
loop_
_symmetry_equiv_pos_site_id
_symmetry_equiv_pos_as_xyz
1 '-x, y, -z'
2 '-x, -y, -z'
3 'x, -y, z'
4 'x, y, z'
5 '-x+1/2, y+1/2, -z'
6 '-x+1/2, -y+1/2, -z'
7 'x+1/2, -y+1/2, z'
8 'x+1/2, y+1/2, z'
loop_
_atom_type_symbol
_atom_type_oxidation_number
Na1+ 1
Cu2+ 2
S6+ 6
O2- -2
H1+ 1
loop_
_atom_site_label
_atom_site_type_symbol
_atom_site_symmetry_multiplicity
_atom_site_Wyckoff_symbol
_atom_site_fract_x
_atom_site_fract_y
_atom_site_fract_z
_atom_site_B_iso_or_equiv
_atom_site_occupancy
_atom_site_attached_hydrogens
Na1 Na1+ 2 d 0 0.5 0.5 . 1. 0
Cu1 Cu2+ 4 e 0.25 0.25 0 . 1. 0
S1 S6+ 4 i 0.0909(2) 0 0.3013(3) . 1. 0
O1 O2- 4 i 0.1931(1) 0 0.1919(2) . 1. 0
O2 O2- 4 i 0.2091(1) 0 0.5177(1) . 1. 0
O3 O2- 8 j -.0201(1) 0.1967(1) 0.2440(1) . 1. 0
O4 O2- 4 i 0.1576(1) 0.5 0.0754(1) . 1. 0
H1 H1+ 4 i 0.0169(16) 0.5 0.0069(42) . 0.5 0
H2 H1+ 4 i 0.2070(2) 0.5 0.2239(3) . 1. 0
loop_
_atom_site_aniso_label
_atom_site_aniso_type_symbol
_atom_site_aniso_U_11
_atom_site_aniso_U_22
_atom_site_aniso_U_33
_atom_site_aniso_U_12
_atom_site_aniso_U_13
_atom_site_aniso_U_23
Na1 Na1+ 0.0152(11) 0.0389(16) 0.0170(11) 0 0.0037(9) 0
Cu1 Cu2+ 0.0053(2) 0.0052(2) 0.0072(2) 0.0003(2) 0.0021(2) -.0011(2)
S1 S6+ 0.0048(6) 0.0059(6) 0.0035(6) 0 0.0012(5) 0
O1 O2- 0.0131(4) 0.0118(4) 0.0145(4) 0 0.0109(3) 0
O2 O2- 0.0137(4) 0.0163(4) 0.0048(4) 0 -.0004(3) 0
O3 O2- 0.0073(2) 0.0077(2) 0.0107(2) 0.0014(2) 0.0020(2) -.0002(2)
O4 O2- 0.0056(3) 0.0069(3) 0.0076(3) 0 0.0033(3) 0
H1 H1+ 0.0072(46) 0.0169(10) 0.0231(33) 0 0.0102(50) 0
H2 H1+ 0.0222(8) 0.0248(9) 0.0148(7) 0 0.0087(6) 0
#End of TTdata_73265-ICSD