
#(C) 2019 by FIZ Karlsruhe - Leibniz Institute for Information Infrastructure.  All rights reserved.
data_73306-ICSD
_database_code_ICSD 73306
_audit_creation_date 1994-06-30
_chemical_name_systematic 'Hexasodium hexamolybdotellurate 22-hydrate'
_chemical_formula_structural 'Na6 (Te Mo6 O24) (H2 O)22'
_chemical_formula_sum 'H44 Mo6 Na6 O46 Te1'
_chemical_name_structure_type Na6TeW6O24(H2O)22
_exptl_crystal_density_diffrn 2.58
_cell_measurement_temperature 295.
_publ_section_title

;
Na6(TeMo6O24)*22H2O - a layered heteropoly compound with the chain-like
polycation (Na3(H2O)11)n(3n+)
;
loop_
_citation_id
_citation_journal_full
_citation_year
_citation_journal_volume
_citation_page_first
_citation_page_last
_citation_journal_id_ASTM
primary 'Zeitschrift fuer Naturforschung, B: A Journal of Chemical Sciences'
1993 48 404 408 ZNBSEN
loop_
_publ_author_name
'Robl, C.'
'Frost, M.'
_cell_length_a 10.3089(9)
_cell_length_b 10.567(1)
_cell_length_c 11.0632(9)
_cell_angle_alpha 90.120(7)
_cell_angle_beta 115.220(6)
_cell_angle_gamma 105.195(7)
_cell_volume 1043.19
_cell_formula_units_Z 1
_symmetry_space_group_name_H-M 'P -1'
_symmetry_Int_Tables_number 2
_refine_ls_R_factor_all 0.024
loop_
_symmetry_equiv_pos_site_id
_symmetry_equiv_pos_as_xyz
1 '-x, -y, -z'
2 'x, y, z'
loop_
_atom_type_symbol
_atom_type_oxidation_number
Te6+ 6
Mo6+ 6
O2- -2
Na1+ 1
O2- -2
H1+ 1
loop_
_atom_site_label
_atom_site_type_symbol
_atom_site_symmetry_multiplicity
_atom_site_Wyckoff_symbol
_atom_site_fract_x
_atom_site_fract_y
_atom_site_fract_z
_atom_site_B_iso_or_equiv
_atom_site_occupancy
_atom_site_attached_hydrogens
Te1 Te6+ 1 a 0 0 0 . 1. 0
Mo1 Mo6+ 2 i 0.2044(1) 0.2400(1) -.0880(1) . 1. 0
Mo2 Mo6+ 2 i -.0500(1) 0.0528(1) 0.2684(1) . 1. 0
Mo3 Mo6+ 2 i 0.1525(1) 0.2941(1) 0.1788(1) . 1. 0
O1 O2- 2 i -.0593(3) 0.8689(3) 0.2600(3) . 1. 0
O2 O2- 2 i 0.2919(3) 0.2848(3) 0.1054(3) . 1. 0
O3 O2- 2 i 0.1667(3) 0.3845(3) 0.8585(3) . 1. 0
O4 O2- 2 i 0.3656(3) 0.2402(3) -.0959(3) . 1. 0
O5 O2- 2 i 0.1663(3) 0.0264(2) -.0443(2) . 1. 0
O6 O2- 2 i -.0093(3) 0.8190(2) 0.0327(2) . 1. 0
O7 O2- 2 i 0.1224(3) 0.0724(2) 0.1866(2) . 1. 0
O8 O2- 2 i -.0283(3) 0.2257(2) 0.2009(3) . 1. 0
O9 O2- 2 i 0.0891(3) 0.1032(3) 0.4298(3) . 1. 0
O10 O2- 2 i 0.7856(3) 0.0475(3) 0.2760(3) . 1. 0
O11 O2- 2 i 0.1213(3) 0.4412(3) 0.1313(3) . 1. 0
O12 O2- 2 i 0.2829(3) 0.3273(3) 0.3452(3) . 1. 0
Na1 Na1+ 2 i 0.4382(2) 0.7600(2) 0.1574(2) . 1. 0
Na2 Na1+ 2 i 0.6096(2) 0.1576(2) 0.5652(2) . 1. 0
Na3 Na1+ 2 i 0.1997(2) 0.5867(2) 0.5485(2) . 1. 0
O13 O2- 2 i 0.5615(4) 0.0201(3) 0.8886(4) . 1. 0
O14 O2- 2 i 0.2607(4) 0.6673(3) -.0576(3) . 1. 0
O15 O2- 2 i 0.4724(4) 0.5630(3) 0.2496(4) . 1. 0
O16 O2- 2 i 0.2246(3) 0.7294(3) 0.2120(3) . 1. 0
O17 O2- 2 i 0.6054(3) 0.8670(3) 0.3811(3) . 1. 0
O18 O2- 2 i 0.4076(4) 0.0509(3) 0.3507(3) . 1. 0
O19 O2- 2 i 0.8265(4) 0.1984(3) 0.5193(3) . 1. 0
O20 O2- 2 i 0.5981(3) 0.3770(3) 0.5193(3) . 1. 0
O21 O2- 2 i 0.0205(4) 0.5312(3) 0.6485(3) . 1. 0
O22 O2- 2 i 0.3915(4) 0.6973(5) 0.7601(4) . 1. 0
O23 O2- 2 i 0.2135(4) 0.3656(3) 0.5890(4) . 1. 0
H1 H1+ 2 i 0.3623(43) 0.0046(41) 0.0669(40) 0.056(3) 1. 0
H2 H1+ 2 i 0.4782(46) 0.0239(43) 0.0915(44) 0.056(3) 1. 0
H3 H1+ 2 i 0.8295(42) 0.2898(39) 0.1025(38) 0.056(3) 1. 0
H4 H1+ 2 i 0.7829(46) 0.3966(40) 0.0685(44) 0.056(3) 1. 0
H5 H1+ 2 i 0.5603(43) 0.5763(42) 0.2768(42) 0.056(3) 1. 0
H6 H1+ 2 i 0.4745(49) 0.5184(43) 0.2043(43) 0.056(3) 1. 0
H7 H1+ 2 i 0.1792(44) 0.6504(39) 0.1771(40) 0.056(3) 1. 0
H8 H1+ 2 i 0.1311(43) 0.7559(39) 0.1513(39) 0.056(3) 1. 0
H9 H1+ 2 i 0.3061(43) 0.1440(39) 0.5424(39) 0.056(3) 1. 0
H10 H1+ 2 i 0.6612(45) -.0800(42) 0.3768(43) 0.056(3) 1. 0
H11 H1+ 2 i 0.3220(43) 0.0679(39) 0.3106(41) 0.056(3) 1. 0
H12 H1+ 2 i 0.4068(46) 0.0512(43) 0.2845(40) 0.056(3) 1. 0
H13 H1+ 2 i 0.1024(43) 0.8164(40) 0.4088(39) 0.056(3) 1. 0
H14 H1+ 2 i 0.1948(43) 0.8566(39) 0.5539(39) 0.056(3) 1. 0
H15 H1+ 2 i 0.4761(45) 0.6266(43) 0.5332(41) 0.056(3) 1. 0
H16 H1+ 2 i 0.4303(45) 0.5855(41) 0.4369(40) 0.056(3) 1. 0
H17 H1+ 2 i -.0270(44) 0.5253(40) 0.301(4) 0.056(3) 1. 0
H18 H1+ 2 i -.0109(43) 0.4067(39) 0.3212(40) 0.056(3) 1. 0
H19 H1+ 2 i 0.4819(43) 0.7159(42) 0.7940(42) 0.056(3) 1. 0
H20 H1+ 2 i 0.3539(44) 0.6739(42) 0.8121(41) 0.056(3) 1. 0
H21 H1+ 2 i 0.1471(43) 0.289(4) 0.5923(39) 0.056(3) 1. 0
H22 H1+ 2 i 0.2281(45) 0.3412(42) 0.5282(40) 0.056(3) 1. 0
loop_
_atom_site_aniso_label
_atom_site_aniso_type_symbol
_atom_site_aniso_U_11
_atom_site_aniso_U_22
_atom_site_aniso_U_33
_atom_site_aniso_U_12
_atom_site_aniso_U_13
_atom_site_aniso_U_23
Te1 Te6+ 0.011(1) 0.011(1) 0.011(1) 0.003(1) 0.005(1) 0.000(1)
Mo1 Mo6+ 0.017(1) 0.016(1) 0.019(1) 0.003(1) 0.010(1) 0.003(1)
Mo2 Mo6+ 0.016(1) 0.019(1) 0.014(1) 0.005(1) 0.007(1) 0.000(1)
Mo3 Mo6+ 0.016(1) 0.014(1) 0.019(1) 0.003(1) 0.007(1) -.003(1)
O1 O2- 0.021(1) 0.023(1) 0.013(1) 0.008(1) 0.005(1) 0.005(1)
O2 O2- 0.014(1) 0.019(1) 0.024(1) 0.002(1) 0.006(1) -.002(1)
O3 O2- 0.038(2) 0.023(2) 0.033(2) 0.011(1) 0.015(1) 0.011(1)
O4 O2- 0.022(2) 0.037(2) 0.035(2) 0.005(1) 0.016(1) 0.002(1)
O5 O2- 0.014(1) 0.015(1) 0.016(1) 0.005(1) 0.008(1) 0.002(1)
O6 O2- 0.013(1) 0.013(1) 0.015(1) 0.003(1) 0.005(1) 0.002(1)
O7 O2- 0.017(1) 0.016(1) 0.014(1) 0.005(1) 0.007(1) 0.000(1)
O8 O2- 0.018(1) 0.017(1) 0.022(1) 0.008(1) 0.011(1) 0.001(1)
O9 O2- 0.030(2) 0.031(2) 0.018(2) 0.007(1) 0.004(1) 0.001(1)
O10 O2- 0.024(2) 0.028(2) 0.033(2) 0.007(1) 0.017(1) 0.000(1)
O11 O2- 0.032(2) 0.021(2) 0.046(2) 0.010(1) 0.019(2) 0.004(1)
O12 O2- 0.023(2) 0.035(2) 0.023(2) 0.004(1) 0.006(1) -.007(1)
Na1 Na1+ 0.026(1) 0.032(1) 0.027(1) 0.010(1) 0.011(1) 0.002(1)
Na2 Na1+ 0.033(1) 0.028(1) 0.033(1) 0.007(1) 0.013(1) 0.003(1)
Na3 Na1+ 0.031(1) 0.032(1) 0.035(1) 0.007(1) 0.012(1) 0.004(1)
O13 O2- 0.030(2) 0.039(2) 0.046(2) 0.016(2) 0.014(2) 0.017(2)
O14 O2- 0.034(2) 0.035(2) 0.033(2) 0.013(2) -.001(2) -.005(2)
O15 O2- 0.035(2) 0.034(2) 0.064(3) 0.010(2) 0.018(2) 0.008(2)
O16 O2- 0.021(2) 0.028(2) 0.029(2) 0.010(1) 0.004(1) 0.002(1)
O17 O2- 0.024(2) 0.047(2) 0.036(2) 0.008(2) 0.008(2) -.001(2)
O18 O2- 0.029(2) 0.040(2) 0.025(2) 0.018(2) 0.006(1) 0.006(1)
O19 O2- 0.040(2) 0.035(2) 0.030(2) 0.020(2) 0.014(2) 0.003(1)
O20 O2- 0.029(2) 0.034(2) 0.034(2) 0.014(2) 0.010(2) 0.003(1)
O21 O2- 0.041(2) 0.040(2) 0.024(2) 0.020(2) 0.011(2) 0.003(1)
O22 O2- 0.029(2) 0.092(3) 0.043(2) 0.015(2) 0.012(2) 0.005(2)
O23 O2- 0.047(2) 0.034(2) 0.048(2) 0.015(2) 0.014(2) 0.001(2)
#End of TTdata_73306-ICSD