
#(C) 2019 by FIZ Karlsruhe - Leibniz Institute for Information Infrastructure.  All rights reserved.
data_73311-ICSD
_database_code_ICSD 73311
_audit_creation_date 1994-06-30
_chemical_name_systematic 'Sodium zinc arsenate'
_chemical_formula_structural 'Na Zn (As O4)'
_chemical_formula_sum 'As1 Na1 O4 Zn1'
_chemical_name_structure_type NaBePO4
_exptl_crystal_density_diffrn 3.93
_cell_measurement_temperature 298.
_publ_section_title 'Die Kristallstruktur von NaZnAsO4'
loop_
_citation_id
_citation_journal_full
_citation_year
_citation_journal_volume
_citation_page_first
_citation_page_last
_citation_journal_id_ASTM
primary 'Zeitschrift fuer Naturforschung, B: A Journal of Chemical Sciences'
1993 48 965 968 ZNBSEN
loop_
_publ_author_name
'Andratschke, M.'
'Range, K.J.'
'Klement, U.'
_cell_length_a 8.951(1)
_cell_length_b 8.2085(9)
_cell_length_c 15.699(2)
_cell_angle_alpha 90.
_cell_angle_beta 90.153(6)
_cell_angle_gamma 90.
_cell_volume 1153.47
_cell_formula_units_Z 12
_symmetry_space_group_name_H-M 'P 1 21/n 1'
_symmetry_Int_Tables_number 14
_refine_ls_R_factor_all 0.036
loop_
_symmetry_equiv_pos_site_id
_symmetry_equiv_pos_as_xyz
1 '-x+1/2, y+1/2, -z+1/2'
2 '-x, -y, -z'
3 'x+1/2, -y+1/2, z+1/2'
4 'x, y, z'
loop_
_atom_type_symbol
_atom_type_oxidation_number
As5+ 5
Zn2+ 2
Na1+ 1
O2- -2
loop_
_atom_site_label
_atom_site_type_symbol
_atom_site_symmetry_multiplicity
_atom_site_Wyckoff_symbol
_atom_site_fract_x
_atom_site_fract_y
_atom_site_fract_z
_atom_site_B_iso_or_equiv
_atom_site_occupancy
_atom_site_attached_hydrogens
As1 As5+ 4 e 0.57724(4) 0.27460(5) 0.26731(2) . 1. 0
As2 As5+ 4 e 0.60907(4) 0.22469(5) 0.58043(2) . 1. 0
As3 As5+ 4 e 0.43744(4) 0.76801(5) 0.09024(2) . 1. 0
Zn1 Zn2+ 4 e 0.58096(5) 0.67270(6) 0.25933(3) . 1. 0
Zn2 Zn2+ 4 e 0.40357(5) 0.16906(6) 0.42223(3) . 1. 0
Zn3 Zn2+ 4 e 0.43824(5) 0.16468(6) 0.09147(3) . 1. 0
Na1 Na1+ 4 e 0.2436(2) 0.9785(3) 0.2446(1) . 1. 0
Na2 Na1+ 4 e 0.7635(2) -.0367(2) 0.4115(1) . 1. 0
Na3 Na1+ 4 e 0.7271(2) 0.5283(2) 0.4295(1) . 1. 0
O1 O2- 4 e 0.5761(3) 0.1384(4) 0.3472(2) . 1. 0
O2 O2- 4 e 0.5700(4) 0.4580(4) 0.3139(2) . 1. 0
O3 O2- 4 e 0.6754(3) 0.0454(4) 0.5472(2) . 1. 0
O4 O2- 4 e 0.4418(3) 0.2633(4) 0.5348(2) . 1. 0
O5 O2- 4 e 0.4105(3) 0.7798(4) 0.3132(2) . 1. 0
O6 O2- 4 e 0.2338(3) 0.1322(4) 0.0525(2) . 1. 0
O7 O2- 4 e 0.5409(3) 0.6264(4) 0.1399(2) . 1. 0
O8 O2- 4 e 0.5250(3) -.0534(4) 0.1058(2) . 1. 0
O9 O2- 4 e 0.2340(3) 0.2732(4) 0.3661(2) . 1. 0
O10 O2- 4 e 0.5805(3) 0.2693(4) 0.0152(2) . 1. 0
O11 O2- 4 e 0.4239(3) 0.2516(4) 0.2060(2) . 1. 0
O12 O2- 4 e 0.7274(3) 0.2572(4) 0.2042(2) . 1. 0
loop_
_atom_site_aniso_label
_atom_site_aniso_type_symbol
_atom_site_aniso_U_11
_atom_site_aniso_U_22
_atom_site_aniso_U_33
_atom_site_aniso_U_12
_atom_site_aniso_U_13
_atom_site_aniso_U_23
As1 As5+ 0.0093(2) 0.0096(2) 0.0086(1) 0.0001(1) 0.0006(1) 0.0005(1)
As2 As5+ 0.0084(1) 0.0090(2) 0.0100(1) 0.0004(1) -.0001(1) -.0007(1)
As3 As5+ 0.0093(2) 0.0091(2) 0.0088(1) -.0004(1) -.0008(1) 0.0000(1)
Zn1 Zn2+ 0.0118(2) 0.0119(2) 0.0113(2) -.0001(2) -.0003(2) -.0003(2)
Zn2 Zn2+ 0.0115(2) 0.0118(2) 0.0111(2) -.0001(2) 0.0000(2) 0.0001(2)
Zn3 Zn2+ 0.0115(2) 0.0127(2) 0.0118(2) -.0005(2) 0.0006(2) -.0002(2)
Na1 Na1+ 0.034(1) 0.028(1) 0.036(1) 0.0004(9) -.0013(9) 0.0002(9)
Na2 Na1+ 0.0198(8) 0.0144(7) 0.0171(7) 0.0019(7) 0.0035(6) 0.0017(7)
Na3 Na1+ 0.0207(8) 0.0189(8) 0.0215(8) 0.0061(7) -.0034(7) -.0006(7)
O1 O2- 0.017(1) 0.011(1) 0.017(1) 0.005(1) 0.004(1) 0.007(1)
O2 O2- 0.038(2) 0.009(1) 0.016(1) -.001(1) -.002(1) -.001(1)
O3 O2- 0.020(1) 0.008(1) 0.022(1) 0.001(1) 0.007(1) -.002(1)
O4 O2- 0.010(1) 0.018(1) 0.017(1) 0.004(1) -.003(1) -.003(1)
O5 O2- 0.016(1) 0.025(1) 0.011(1) 0.006(1) 0.001(1) 0.001(1)
O6 O2- 0.014(1) 0.012(1) 0.024(1) 0.004(1) -.002(1) -.005(1)
O7 O2- 0.024(1) 0.013(1) 0.013(1) 0.006(1) -.005(1) -.001(1)
O8 O2- 0.017(1) 0.009(1) 0.027(1) -.002(1) -.007(1) 0.000(1)
O9 O2- 0.010(1) 0.024(1) 0.015(1) 0.002(1) 0.003(1) 0.007(1)
O10 O2- 0.017(1) 0.018(1) 0.011(1) -.006(1) -.001(1) 0.000(1)
O11 O2- 0.009(1) 0.029(2) 0.013(1) 0.001(1) -.002(1) -.007(1)
O12 O2- 0.011(1) 0.027(2) 0.014(1) 0.003(1) 0.006(1) 0.006(1)
#End of TTdata_73311-ICSD