
#(C) 2019 by FIZ Karlsruhe - Leibniz Institute for Information Infrastructure.  All rights reserved.
data_73398-ICSD
_database_code_ICSD 73398
_audit_creation_date 1994-06-30
_audit_update_record 2006-04-01
_chemical_name_systematic 'Sodium copper phosphate(V) - beta'
_chemical_formula_structural 'Na Cu (P O4)'
_chemical_formula_sum 'Cu1 Na1 O4 P1'
_exptl_crystal_density_diffrn 3.94
_cell_measurement_temperature 297.
_publ_section_title
'Structure du monophosphate synthetique de cuivre et de sodium'
loop_
_citation_id
_citation_journal_full
_citation_year
_citation_journal_volume
_citation_page_first
_citation_page_last
_citation_journal_id_ASTM
primary 'Acta Crystallographica, Section C: Crystal Structure Communications'
1993 49 1275 1277 ACSCEE
loop_
_publ_author_name
'Kawahara, A.'
'Kageyama, T.'
'Watanabe, I.'
'Yamakawa, J.'
_cell_length_a 6.9439(9)
_cell_length_b 8.851(1)
_cell_length_c 5.0143(8)
_cell_angle_alpha 90.
_cell_angle_beta 97.25(1)
_cell_angle_gamma 90.
_cell_volume 305.72
_cell_formula_units_Z 4
_symmetry_space_group_name_H-M 'P 1 21/n 1'
_symmetry_Int_Tables_number 14
_refine_ls_R_factor_all 0.041
loop_
_symmetry_equiv_pos_site_id
_symmetry_equiv_pos_as_xyz
1 '-x+1/2, y+1/2, -z+1/2'
2 '-x, -y, -z'
3 'x+1/2, -y+1/2, z+1/2'
4 'x, y, z'
loop_
_atom_type_symbol
_atom_type_oxidation_number
Cu2+ 2
Na1+ 1
P5+ 5
O2- -2
loop_
_atom_site_label
_atom_site_type_symbol
_atom_site_symmetry_multiplicity
_atom_site_Wyckoff_symbol
_atom_site_fract_x
_atom_site_fract_y
_atom_site_fract_z
_atom_site_B_iso_or_equiv
_atom_site_occupancy
_atom_site_attached_hydrogens
Cu1 Cu2+ 2 a 0 0 0 . 1. 0
Cu2 Cu2+ 2 d 0.5 0 0 . 1. 0
Na1 Na1+ 4 e 0.6984(4) 0.3584(3) 0.0426(6) . 1. 0
P1 P5+ 4 e 0.2023(2) 0.3226(2) 0.0483(3) . 1. 0
O1 O2- 4 e 0.0373(6) 0.3658(5) 0.1989(9) . 1. 0
O2 O2- 4 e 0.2190(7) 0.1474(5) 0.0557(9) . 1. 0
O3 O2- 4 e 0.3951(6) 0.3909(5) 0.1863(9) . 1. 0
O4 O2- 4 e 0.6832(6) 0.1215(5) 0.2551(9) . 1. 0
loop_
_atom_site_aniso_label
_atom_site_aniso_type_symbol
_atom_site_aniso_U_11
_atom_site_aniso_U_22
_atom_site_aniso_U_33
_atom_site_aniso_U_12
_atom_site_aniso_U_13
_atom_site_aniso_U_23
Cu1 Cu2+ 0.0135(8) 0.0081(7) 0.0064(7) -.0003(3) 0.0005(3) -.0014(4)
Cu2 Cu2+ 0.0147(8) 0.0088(8) 0.0061(7) -.0002(3) 0.0006(3) -.0005(3)
Na1 Na1+ 0.0231(20) 0.0181(20) 0.0169(20) 0.0002(8) 0.0021(8) 0.0011(8)
P1 P5+ 0.0127(10) 0.0078(10) 0.0066(10) 0.0000(4) 0.0006(4) -.0002(4)
O1 O2- 0.0108(27) 0.0074(29) 0.0082(28) 0.0012(10) 0.0008(11) -.0007(11)
O2 O2- 0.0143(30) 0.0072(25) 0.0082(28) 0.0000(11) 0.0012(11) 0.0000(11)
O3 O2- 0.0137(31) 0.0081(26) 0.0085(29) -.0016(11) 0.0006(13) -.0018(12)
O4 O2- 0.0159(31) 0.0097(29) 0.0073(27) -.0009(12) 0.0007(13) -.0012(12)
#End of TTdata_73398-ICSD