
#(C) 2019 by FIZ Karlsruhe - Leibniz Institute for Information Infrastructure.  All rights reserved.
data_73502-ICSD
_database_code_ICSD 73502
_audit_creation_date 1994-06-30
_chemical_name_systematic 'Sodium chlorobromate *'
_chemical_formula_structural 'Na ((Cl0.205 Br0.795) O3)'
_chemical_formula_sum 'Br0.795 Cl0.205 Na1 O3'
_chemical_name_structure_type Na(Cl,Br)O3(P1)
_exptl_crystal_density_diffrn 3.16
_publ_section_title

;
Reevaluating structures for mixed crystals of simple isomorphous salts:
NaClxBr1-xO3
;
loop_
_citation_id
_citation_journal_full
_citation_year
_citation_journal_volume
_citation_page_first
_citation_page_last
_citation_journal_id_ASTM
primary 'Journal of the American Chemical Society' 1993 115 3366 3367 JACSAT
loop_
_publ_author_name
'Gopalan, P.'
'Peterson, M.L.'
'Crundwell, G.'
'Kahr, B.'
_cell_length_a 6.683(1)
_cell_length_b 6.682(1)
_cell_length_c 6.683(1)
_cell_angle_alpha 89.97(1)
_cell_angle_beta 90.17(1)
_cell_angle_gamma 90.04(1)
_cell_volume 298.43
_cell_formula_units_Z 4
_symmetry_space_group_name_H-M 'P 1'
_symmetry_Int_Tables_number 1
_refine_ls_R_factor_all 0.029
loop_
_symmetry_equiv_pos_site_id
_symmetry_equiv_pos_as_xyz
1 'x, y, z'
loop_
_atom_type_symbol
_atom_type_oxidation_number
Br5+ 5
Cl5+ 5
Br5+ 5
Cl5+ 5
Br5+ 5
Cl5+ 5
Br5+ 5
Cl5+ 5
Na1+ 1
O2- -2
loop_
_atom_site_label
_atom_site_type_symbol
_atom_site_symmetry_multiplicity
_atom_site_Wyckoff_symbol
_atom_site_fract_x
_atom_site_fract_y
_atom_site_fract_z
_atom_site_B_iso_or_equiv
_atom_site_occupancy
_atom_site_attached_hydrogens
Br1 Br5+ 1 a 0.59640(5) 0.59596(5) 0.59462(5) . 0.89(1) 0
Cl1 Cl5+ 1 a 0.59640(5) 0.59596(5) 0.59462(5) . 0.11(1) 0
Br2 Br5+ 1 a 0.91143(5) 0.41094(5) 0.09380(5) . 0.75(1) 0
Cl2 Cl5+ 1 a 0.91143(5) 0.41094(5) 0.09380(5) . 0.25(1) 0
Br3 Br5+ 1 a 0.41012(5) 0.09602(5) 0.90870(5) . 0.90(1) 0
Cl3 Cl5+ 1 a 0.41012(5) 0.09602(5) 0.90870(5) . 0.10(1) 0
Br4 Br5+ 1 a 0.09477(6) 0.91131(6) 0.41010(6) . 0.64(1) 0
Cl4 Cl5+ 1 a 0.09477(6) 0.91131(6) 0.41010(6) . 0.36(1) 0
Na1 Na1+ 1 a 0.9275 0.9275 0.9275 . 1. 0
Na2 Na1+ 1 a 0.5785(2) 0.0790(2) 0.4257(2) . 1. 0
Na3 Na1+ 1 a 0.0786(2) 0.4274(2) 0.5764(2) . 1. 0
Na4 Na1+ 1 a 0.4269(2) 0.5792(2) 0.0788(2) . 1. 0
O1 O2- 1 a 0.7122(4) 0.4051(4) 0.4947(5) . 1. 0
O2 O2- 1 a 0.7961(4) 0.5977(4) -.0064(4) . 1. 0
O3 O2- 1 a 0.2924(4) -.0949(4) 0.0080(4) . 1. 0
O4 O2- 1 a 0.2103(4) 0.0989(4) 0.5100(4) . 1. 0
O5 O2- 1 a 0.4967(4) 0.7128(4) 0.4053(4) . 1. 0
O6 O2- 1 a -.0043(4) 0.7961(4) 0.5979(4) . 1. 0
O7 O2- 1 a 0.0114(4) 0.2964(4) -.0939(4) . 1. 0
O8 O2- 1 a 0.5101(4) 0.2136(4) 0.0986(4) . 1. 0
O9 O2- 1 a 0.4052(4) 0.4956(4) 0.7107(4) . 1. 0
O10 O2- 1 a 0.5997(4) -.0042(4) 0.7929(4) . 1. 0
O11 O2- 1 a -.0937(4) 0.0121(5) 0.2950(5) . 1. 0
O12 O2- 1 a 0.0992(4) 0.5095(4) 0.2093(4) . 1. 0
loop_
_atom_site_aniso_label
_atom_site_aniso_type_symbol
_atom_site_aniso_B_11
_atom_site_aniso_B_22
_atom_site_aniso_B_33
_atom_site_aniso_B_12
_atom_site_aniso_B_13
_atom_site_aniso_B_23
Br1 Br5+ 0.980(8) 0.958(8) 0.971(8) -.010(7) -.011(7) -.014(7)
Cl1 Cl5+ 0.980(8) 0.958(8) 0.971(8) -.010(7) -.011(7) -.014(7)
Br2 Br5+ 1.029(9) 1.014(9) 1.042(9) 0.007(8) 0.015(8) -.007(8)
Cl2 Cl5+ 1.029(9) 1.014(9) 1.042(9) 0.007(8) 0.015(8) -.007(8)
Br3 Br5+ 1.004(8) 0.952(8) 1.004(8) 0.036(7) -.010(7) 0.032(7)
Cl3 Cl5+ 1.004(8) 0.952(8) 1.004(8) 0.036(7) -.010(7) 0.032(7)
Br4 Br5+ 0.923(9) 0.907(9) 0.948(9) 0.000(8) 0.004(8) -.001(8)
Cl4 Cl5+ 0.923(9) 0.907(9) 0.948(9) 0.000(8) 0.004(8) -.001(8)
Na1 Na1+ 1.64(5) 1.92(5) 1.73(5) -.18(4) -.10(4) -.14(4)
Na2 Na1+ 1.75(5) 1.65(5) 1.70(5) -.16(4) 0.13(4) 0.22(4)
Na3 Na1+ 1.87(5) 1.65(5) 1.88(5) 0.18(4) -.25(4) 0.07(4)
Na4 Na1+ 1.78(5) 1.61(5) 1.72(5) 0.16(4) 0.23(4) -.11(4)
O1 O2- 1.96(9) 1.22(8) 2.5(1) 0.20(7) 0.24(8) -.54(7)
O2 O2- 1.99(9) 1.24(8) 2.3(1) -.05(7) -.15(8) 0.48(7)
O3 O2- 1.83(9) 1.53(8) 2.08(9) -.19(7) 0.21(7) 0.49(7)
O4 O2- 2.08(9) 1.56(8) 2.19(9) 0.12(7) -.22(8) -.51(7)
O5 O2- 2.07(9) 1.84(9) 1.55(8) 0.22(7) -.46(7) 0.24(7)
O6 O2- 2.14(9) 2.09(9) 1.48(8) -.22(8) 0.53(7) 0.04(7)
O7 O2- 2.4(1) 2.06(9) 1.38(8) 0.31(8) 0.40(7) -.14(7)
O8 O2- 2.4(1) 1.79(9) 1.32(8) -.08(8) -.56(7) -.12(7)
O9 O2- 1.27(7) 2.18(9) 1.90(9) -.45(7) 0.25(7) 0.20(8)
O10 O2- 1.29(8) 2.3(1) 2.02(9) 0.47(7) 0.11(7) -.27(8)
O11 O2- 1.62(8) 2.3(1) 2.07(9) 0.54(8) -.08(8) 0.26(8)
O12 O2- 1.85(9) 1.98(9) 1.96(9) -.42(7) -.15(8) -.12(8)
#End of TTdata_73502-ICSD