
#(C) 2019 by FIZ Karlsruhe - Leibniz Institute for Information Infrastructure.  All rights reserved.
data_73500-ICSD
_database_code_ICSD 73500
_audit_creation_date 1994-06-30
_chemical_name_systematic 'Sodium chlorobromate *'
_chemical_formula_structural 'Na ((Cl0.775 Br0.225) O3)'
_chemical_formula_sum 'Br0.225 Cl0.775 Na1 O3'
_chemical_name_structure_type Na(Cl,Br)O3(P1)
_exptl_crystal_density_diffrn 2.68
_publ_section_title

;
Reevaluating structures for mixed crystals of simple isomorphous salts:
NaClxBr1-xO3
;
loop_
_citation_id
_citation_journal_full
_citation_year
_citation_journal_volume
_citation_page_first
_citation_page_last
_citation_journal_id_ASTM
primary 'Journal of the American Chemical Society' 1993 115 3366 3367 JACSAT
loop_
_publ_author_name
'Gopalan, P.'
'Peterson, M.L.'
'Crundwell, G.'
'Kahr, B.'
_cell_length_a 6.600(1)
_cell_length_b 6.610(2)
_cell_length_c 6.605(2)
_cell_angle_alpha 90.01(2)
_cell_angle_beta 90.08(2)
_cell_angle_gamma 90.02(2)
_cell_volume 288.15
_cell_formula_units_Z 4
_symmetry_space_group_name_H-M 'P 1'
_symmetry_Int_Tables_number 1
_refine_ls_R_factor_all 0.039
loop_
_symmetry_equiv_pos_site_id
_symmetry_equiv_pos_as_xyz
1 'x, y, z'
loop_
_atom_type_symbol
_atom_type_oxidation_number
Br5+ 5
Cl5+ 5
Br5+ 5
Cl5+ 5
Br5+ 5
Cl5+ 5
Br5+ 5
Cl5+ 5
Na1+ 1
O2- -2
loop_
_atom_site_label
_atom_site_type_symbol
_atom_site_symmetry_multiplicity
_atom_site_Wyckoff_symbol
_atom_site_fract_x
_atom_site_fract_y
_atom_site_fract_z
_atom_site_B_iso_or_equiv
_atom_site_occupancy
_atom_site_attached_hydrogens
Br1 Br5+ 1 a 0.4071(1) 0.4147(1) 0.4157(1) . 0.30(1) 0
Cl1 Cl5+ 1 a 0.4071(1) 0.4147(1) 0.4157(1) . 0.70(1) 0
Br2 Br5+ 1 a 0.0836(1) 0.5895(1) 0.9170(1) . 0.13(1) 0
Cl2 Cl5+ 1 a 0.0836(1) 0.5895(1) 0.9170(1) . 0.87(1) 0
Br3 Br5+ 1 a 0.5837(1) 0.9147(1) 0.0918(1) . 0.26(1) 0
Cl3 Cl5+ 1 a 0.5837(1) 0.9147(1) 0.0918(1) . 0.74(1) 0
Br4 Br5+ 1 a 0.9096(1) 0.0897(1) 0.5907(1) . 0.21(1) 0
Cl4 Cl5+ 1 a 0.9096(1) 0.0897(1) 0.5907(1) . 0.79(1) 0
Na1 Na1+ 1 a 0.0718(3) 0.0736(3) 0.0742(3) . 1. 0
Na2 Na1+ 1 a 0.4294(3) -.0694(3) 0.5757(3) . 1. 0
Na3 Na1+ 1 a -.0707(3) 0.5733(4) 0.4330(4) . 1. 0
Na4 Na1+ 1 a 0.5726(3) 0.4313(3) -.0682(4) . 1. 0
O1 O2- 1 a 0.3004(6) 0.5961(6) 0.5084(6) . 1. 0
O2 O2- 1 a 0.2026(6) 0.4098(6) 0.0095(7) . 1. 0
O3 O2- 1 a 0.7031(7) 0.0970(6) -.0034(7) . 1. 0
O4 O2- 1 a 0.8008(6) -.0906(6) 0.4972(6) . 1. 0
O5 O2- 1 a 0.5076(7) 0.3018(6) 0.5976(6) . 1. 0
O6 O2- 1 a 0.0084(7) 0.2017(6) 0.4104(6) . 1. 0
O7 O2- 1 a -.0026(7) 0.7046(6) 0.0965(6) . 1. 0
O8 O2- 1 a 0.4948(7) 0.7996(6) -.0889(6) . 1. 0
O9 O2- 1 a 0.5953(6) 0.5060(6) 0.3021(7) . 1. 0
O10 O2- 1 a 0.4081(6) 0.0133(6) 0.2058(6) . 1. 0
O11 O2- 1 a 0.0937(6) 0.0021(6) 0.7063(6) . 1. 0
O12 O2- 1 a -.0916(6) 0.4958(6) 0.8042(7) . 1. 0
loop_
_atom_site_aniso_label
_atom_site_aniso_type_symbol
_atom_site_aniso_B_11
_atom_site_aniso_B_22
_atom_site_aniso_B_33
_atom_site_aniso_B_12
_atom_site_aniso_B_13
_atom_site_aniso_B_23
Br1 Br5+ 1.15(2) 1.06(2) 1.17(2) 0.15(2) 0.07(2) 0.09(2)
Cl1 Cl5+ 1.15(2) 1.06(2) 1.17(2) 0.15(2) 0.07(2) 0.09(2)
Br2 Br5+ 0.82(2) 0.93(2) 0.89(2) -.01(2) -.06(2) -.01(2)
Cl2 Cl5+ 0.82(2) 0.93(2) 0.89(2) -.01(2) -.06(2) -.01(2)
Br3 Br5+ 0.94(2) 1.01(2) 0.99(2) 0.03(2) 0.00(2) -.05(2)
Cl3 Cl5+ 0.94(2) 1.01(2) 0.99(2) 0.03(2) 0.00(2) -.05(2)
Br4 Br5+ 1.16(2) 1.11(2) 1.13(2) -.17(2) -.09(2) 0.09(2)
Cl4 Cl5+ 1.16(2) 1.11(2) 1.13(2) -.17(2) -.09(2) 0.09(2)
Na1 Na1+ 1.87(7) 1.93(7) 1.90(7) -.26(6) -.13(6) -.24(6)
Na2 Na1+ 1.79(7) 1.97(7) 1.71(7) -.01(6) 0.19(6) -.10(6)
Na3 Na1+ 1.78(7) 2.10(7) 2.00(7) -.03(6) -.15(6) 0.32(6)
Na4 Na1+ 1.97(7) 1.64(7) 2.19(8) 0.30(6) 0.01(7) -.08(6)
O1 O2- 2.1(1) 1.6(1) 2.2(1) 0.2(1) 0.2(1) -.3(1)
O2 O2- 2.1(1) 1.3(1) 3.1(2) 0.1(1) -.1(1) 0.2(1)
O3 O2- 2.2(1) 1.4(1) 2.8(2) -.1(1) 0.0(1) 0.2(1)
O4 O2- 1.9(1) 2.1(1) 2.4(1) -.3(1) -.1(1) -.5(1)
O5 O2- 2.5(1) 2.1(1) 1.5(1) 0.2(1) -.3(1) 0.4(1)
O6 O2- 2.4(1) 1.9(1) 1.8(1) -.2(1) 0.4(1) 0.1(1)
O7 O2- 2.6(1) 2.1(1) 1.4(1) 0.4(1) 0.4(1) -.2(1)
O8 O2- 2.8(2) 2.1(1) 1.5(1) 0.0(1) -.5(1) -.3(1)
O9 O2- 1.4(1) 2.5(1) 2.4(1) -.6(1) 0.0(1) 0.0(1)
O10 O2- 1.6(1) 2.5(1) 2.1(1) 0.3(1) 0.3(1) 0.1(1)
O11 O2- 1.5(1) 2.8(1) 2.0(1) 0.6(1) 0.0(1) 0.5(1)
O12 O2- 1.6(1) 2.7(1) 2.2(1) -.4(1) -.3(1) -.6(1)
#End of TTdata_73500-ICSD