
#(C) 2019 by FIZ Karlsruhe - Leibniz Institute for Information Infrastructure.  All rights reserved.
data_73503-ICSD
_database_code_ICSD 73503
_audit_creation_date 1994-06-30
_chemical_name_systematic 'Sodium chlorobromate *'
_chemical_formula_structural 'Na ((Cl0.48 Br0.52) O3)'
_chemical_formula_sum 'Br0.52 Cl0.48 Na1 O3'
_chemical_name_structure_type NaClO3
_exptl_crystal_density_diffrn 2.93
_publ_section_title

;
Reevaluating structures for mixed crystals of simple isomorphous salts:
NaClxBr1-xO3
;
loop_
_citation_id
_citation_journal_full
_citation_year
_citation_journal_volume
_citation_page_first
_citation_page_last
_citation_journal_id_ASTM
primary 'Journal of the American Chemical Society' 1993 115 3366 3367 JACSAT
loop_
_publ_author_name
'Gopalan, P.'
'Peterson, M.L.'
'Crundwell, G.'
'Kahr, B.'
_cell_length_a 6.648(1)
_cell_length_b 6.648(1)
_cell_length_c 6.648(1)
_cell_angle_alpha 90.
_cell_angle_beta 90.
_cell_angle_gamma 90.
_cell_volume 293.81
_cell_formula_units_Z 4
_symmetry_space_group_name_H-M 'P 21 3'
_symmetry_Int_Tables_number 198
_refine_ls_R_factor_all 0.025
loop_
_symmetry_equiv_pos_site_id
_symmetry_equiv_pos_as_xyz
1 '-z+1/2, -x, y+1/2'
2 '-y+1/2, -z, x+1/2'
3 '-x+1/2, -y, z+1/2'
4 '-z, x+1/2, -y+1/2'
5 '-y, z+1/2, -x+1/2'
6 '-x, y+1/2, -z+1/2'
7 'z+1/2, -x+1/2, -y'
8 'y+1/2, -z+1/2, -x'
9 'x+1/2, -y+1/2, -z'
10 'z, x, y'
11 'y, z, x'
12 'x, y, z'
loop_
_atom_type_symbol
_atom_type_oxidation_number
Br5+ 5
Cl5+ 5
Na1+ 1
O2- -2
loop_
_atom_site_label
_atom_site_type_symbol
_atom_site_symmetry_multiplicity
_atom_site_Wyckoff_symbol
_atom_site_fract_x
_atom_site_fract_y
_atom_site_fract_z
_atom_site_B_iso_or_equiv
_atom_site_occupancy
_atom_site_attached_hydrogens
Br1 Br5+ 4 a 0.59041(4) 0.59041(4) 0.59041(4) . 0.52(1) 0
Cl1 Cl5+ 4 a 0.59041(4) 0.59041(4) 0.59041(4) . 0.48(1) 0
Na1 Na1+ 4 a 0.9261(2) 0.9261(2) 0.9261(2) . 1. 0
O1 O2- 12 b 0.7049(3) 0.4052(3) 0.4938(3) . 1. 0
loop_
_atom_site_aniso_label
_atom_site_aniso_type_symbol
_atom_site_aniso_B_11
_atom_site_aniso_B_22
_atom_site_aniso_B_33
_atom_site_aniso_B_12
_atom_site_aniso_B_13
_atom_site_aniso_B_23
Br1 Br5+ 1.133(5) 1.133(5) 1.133(5) 0.041(7) 0.041(7) 0.041(7)
Cl1 Cl5+ 1.133(5) 1.133(5) 1.133(5) 0.041(7) 0.041(7) 0.041(7)
Na1 Na1+ 1.90(2) 1.90(2) 1.90(2) -.20(3) -.20(3) -.20(3)
O1 O2- 2.16(6) 1.53(5) 2.46(6) 0.21(6) 0.07(5) -.48(5)
#End of TTdata_73503-ICSD