
#(C) 2018 by FIZ Karlsruhe - Leibniz Institute for Information Infrastructure.  All rights reserved.
data_73603-ICSD
_database_code_ICSD 73603
_audit_creation_date 1994-06-30
_chemical_name_systematic 'Lithium copper niobium oxide (1.3/1.3/4/12)'
_chemical_formula_structural '(Li1.333 Cu1.333) Nb4 O12'
_chemical_formula_sum 'Cu1.333 Li1.333 Nb4 O12'
_exptl_crystal_density_diffrn 5.12
_publ_section_title
'Structure of new perovskite-related compounds, LiCuM3O9 (M=Nb, Ta)'
loop_
_citation_id
_citation_journal_full
_citation_year
_citation_journal_volume
_citation_page_first
_citation_page_last
_citation_journal_id_ASTM
primary 'Journal of Materials Chemistry' 1993 3 233 236 JMACEP
loop_
_publ_author_name
'Sato, M.'
'Hama, Y.'
_cell_length_a 7.5286(1)
_cell_length_b 7.5286(1)
_cell_length_c 7.5286(1)
_cell_angle_alpha 90.
_cell_angle_beta 90.
_cell_angle_gamma 90.
_cell_volume 426.72
_cell_formula_units_Z 2
_symmetry_space_group_name_H-M 'I 2 3'
_symmetry_Int_Tables_number 197
_refine_ls_R_factor_all 0.027
loop_
_symmetry_equiv_pos_site_id
_symmetry_equiv_pos_as_xyz
1 '-z, -x, y'
2 '-y, -z, x'
3 '-x, -y, z'
4 '-z, x, -y'
5 '-y, z, -x'
6 '-x, y, -z'
7 'z, -x, -y'
8 'y, -z, -x'
9 'x, -y, -z'
10 'z, x, y'
11 'y, z, x'
12 'x, y, z'
13 '-z+1/2, -x+1/2, y+1/2'
14 '-y+1/2, -z+1/2, x+1/2'
15 '-x+1/2, -y+1/2, z+1/2'
16 '-z+1/2, x+1/2, -y+1/2'
17 '-y+1/2, z+1/2, -x+1/2'
18 '-x+1/2, y+1/2, -z+1/2'
19 'z+1/2, -x+1/2, -y+1/2'
20 'y+1/2, -z+1/2, -x+1/2'
21 'x+1/2, -y+1/2, -z+1/2'
22 'z+1/2, x+1/2, y+1/2'
23 'y+1/2, z+1/2, x+1/2'
24 'x+1/2, y+1/2, z+1/2'
loop_
_atom_type_symbol
_atom_type_oxidation_number
Li1+ 1
Cu2+ 2
Nb5+ 5
O2- -2
loop_
_atom_site_label
_atom_site_type_symbol
_atom_site_symmetry_multiplicity
_atom_site_Wyckoff_symbol
_atom_site_fract_x
_atom_site_fract_y
_atom_site_fract_z
_atom_site_B_iso_or_equiv
_atom_site_occupancy
_atom_site_attached_hydrogens
Li1 Li1+ 6 b 0 0.5 0.5 0.03(24) 0.4444 0
Cu1 Cu2+ 6 b 0 0.5 0.5 0.03(24) 0.4444 0
Nb1 Nb5+ 8 c 0.2621(3) 0.2621(3) 0.2621(3) 0.19(8) 1. 0
O1 O2- 24 f 0.0018(32) 0.3067(20) 0.1858(26) 0.01(48) 1. 0
#End of TTdata_73603-ICSD