
#(C) 2019 by FIZ Karlsruhe - Leibniz Institute for Information Infrastructure.  All rights reserved.
data_73886-ICSD
_database_code_ICSD 73886
_audit_creation_date 1995-01-10
_chemical_name_systematic 'Sodium copper(I) titanium sulfide'
_chemical_formula_structural 'Na Cu Ti S3'
_chemical_formula_sum 'Cu1 Na1 S3 Ti1'
_chemical_name_structure_type NaCuTiS3
_exptl_crystal_density_diffrn 3.55
_cell_measurement_temperature 113.
_publ_section_title

;
Synthesis and structures of the new group IV chalcogenides NaCuTiS3 and
NaCuZrQ3 (Q=S,Se,Te)
;
loop_
_citation_id
_citation_journal_full
_citation_year
_citation_journal_volume
_citation_page_first
_citation_page_last
_citation_journal_id_ASTM
primary 'Journal of Solid State Chemistry' 1993 105 580 587 JSSCBI
loop_
_publ_author_name
'Mansuetto, M.F.'
'Keane, P.M.'
'Ibers, J.A.'
_cell_length_a 12.738(10)
_cell_length_b 3.554(3)
_cell_length_c 9.529(8)
_cell_angle_alpha 90.
_cell_angle_beta 90.
_cell_angle_gamma 90.
_cell_volume 431.39
_cell_formula_units_Z 4
_symmetry_space_group_name_H-M 'P n m a'
_symmetry_Int_Tables_number 62
_refine_ls_R_factor_all 0.033
loop_
_symmetry_equiv_pos_site_id
_symmetry_equiv_pos_as_xyz
1 'x+1/2, y, -z+1/2'
2 'x, -y+1/2, z'
3 '-x+1/2, y+1/2, z+1/2'
4 '-x, -y, -z'
5 '-x+1/2, -y, z+1/2'
6 '-x, y+1/2, -z'
7 'x+1/2, -y+1/2, -z+1/2'
8 'x, y, z'
loop_
_atom_type_symbol
_atom_type_oxidation_number
Na1+ 1
Cu1+ 1
Ti4+ 4
S2- -2
loop_
_atom_site_label
_atom_site_type_symbol
_atom_site_symmetry_multiplicity
_atom_site_Wyckoff_symbol
_atom_site_fract_x
_atom_site_fract_y
_atom_site_fract_z
_atom_site_B_iso_or_equiv
_atom_site_occupancy
_atom_site_attached_hydrogens
Na1 Na1+ 4 c 0.2344(2) 0.25 0.0424(3) 0.0147(13) 1. 0
Cu1 Cu1+ 4 c 0.48691(6) 0.25 0.59511(8) 0.0075(4) 1. 0
Ti1 Ti4+ 4 c 0.01255(8) 0.25 0.32621(11) 0.0060(5) 1. 0
S1 S2- 4 c 0.09493(11) 0.25 0.5654(2) 0.0058(7) 1. 0
S2 S2- 4 c 0.39985(11) 0.25 0.3703(2) 0.0061(7) 1. 0
S3 S2- 4 c 0.36357(11) 0.25 0.7637(2) 0.0061(6) 1. 0
#End of TTdata_73886-ICSD