
#(C) 2019 by FIZ Karlsruhe - Leibniz Institute for Information Infrastructure.  All rights reserved.
data_7391-ICSD
_database_code_ICSD 7391
_audit_creation_date 2019-08-01
_chemical_name_systematic 'Calcium sodium palladium oxide (0.84/0.16/3/4)'
_chemical_formula_structural '(Ca0.84 Na0.16) Pd3 O4'
_chemical_formula_sum 'Ca0.84 Na0.16 O4 Pd3'
_chemical_name_structure_type NaPtO4
_exptl_crystal_density_diffrn 7.38
_publ_section_title

;
The role of structural and compositional heterogeneities in the
insulator-to-metal transition in hole-doped APd3O4 (A = Ca, Sr)
;
loop_
_citation_id
_citation_journal_full
_citation_year
_citation_journal_volume
_citation_page_first
_citation_page_last
_citation_journal_id_ASTM
primary 'Inorganic Chemistry' 2017 56 5158 5164 INOCAJ
loop_
_publ_author_name
'Lamontagne, Leo K.'
'Laurita, Geneva'
'Knight, Michael'
'Yusuf, Huma'
'Hu, Jerry'
'Seshadri, Ram'
'Page, Katharine'
_cell_length_a 5.74160(4)
_cell_length_b 5.74160(4)
_cell_length_c 5.74160(4)
_cell_angle_alpha 90
_cell_angle_beta 90
_cell_angle_gamma 90
_cell_volume 189.27
_cell_formula_units_Z 2
_symmetry_space_group_name_H-M 'P m -3 n'
_symmetry_Int_Tables_number 223
loop_
_symmetry_equiv_pos_site_id
_symmetry_equiv_pos_as_xyz
1 'z+1/2, -y+1/2, x+1/2'
2 'y+1/2, -x+1/2, z+1/2'
3 'x+1/2, -z+1/2, y+1/2'
4 '-z+1/2, y+1/2, -x+1/2'
5 '-y+1/2, x+1/2, -z+1/2'
6 '-x+1/2, z+1/2, -y+1/2'
7 'z+1/2, y+1/2, -x+1/2'
8 'y+1/2, x+1/2, -z+1/2'
9 'x+1/2, z+1/2, -y+1/2'
10 '-z+1/2, -y+1/2, x+1/2'
11 '-y+1/2, -x+1/2, z+1/2'
12 '-x+1/2, -z+1/2, y+1/2'
13 '-z+1/2, y+1/2, x+1/2'
14 '-y+1/2, x+1/2, z+1/2'
15 '-x+1/2, z+1/2, y+1/2'
16 'z+1/2, -y+1/2, -x+1/2'
17 'y+1/2, -x+1/2, -z+1/2'
18 'x+1/2, -z+1/2, -y+1/2'
19 '-z+1/2, -y+1/2, -x+1/2'
20 '-y+1/2, -x+1/2, -z+1/2'
21 '-x+1/2, -z+1/2, -y+1/2'
22 'z+1/2, y+1/2, x+1/2'
23 'y+1/2, x+1/2, z+1/2'
24 'x+1/2, z+1/2, y+1/2'
25 'z, x, -y'
26 'y, z, -x'
27 'x, y, -z'
28 '-z, -x, y'
29 '-y, -z, x'
30 '-x, -y, z'
31 'z, -x, y'
32 'y, -z, x'
33 'x, -y, z'
34 '-z, x, -y'
35 '-y, z, -x'
36 '-x, y, -z'
37 '-z, x, y'
38 '-y, z, x'
39 '-x, y, z'
40 'z, -x, -y'
41 'y, -z, -x'
42 'x, -y, -z'
43 '-z, -x, -y'
44 '-y, -z, -x'
45 '-x, -y, -z'
46 'z, x, y'
47 'y, z, x'
48 'x, y, z'
loop_
_atom_type_symbol
_atom_type_oxidation_number
Ca2+ 2
Na1+ 1
Pd2+ 2
O2- -2
loop_
_atom_site_label
_atom_site_type_symbol
_atom_site_symmetry_multiplicity
_atom_site_Wyckoff_symbol
_atom_site_fract_x
_atom_site_fract_y
_atom_site_fract_z
_atom_site_B_iso_or_equiv
_atom_site_occupancy
_atom_site_attached_hydrogens
Ca1 Ca2+ 2 a 0 0 0 0.24(3) 0.837(10) 0
Na1 Na1+ 2 a 0 0 0 0.24(3) 0.163(10) 0
Pd1 Pd2+ 6 c 0.25 0 0.5 0.346(5) 1 0
O1 O2- 8 e 0.25 0.25 0.25 1 1 0
#End of TTdata_7391-ICSD