
#(C) 2019 by FIZ Karlsruhe - Leibniz Institute for Information Infrastructure.  All rights reserved.
data_74201-ICSD
_database_code_ICSD 74201
_audit_creation_date 1995-01-10
_audit_update_record 1997-11-10
_chemical_name_systematic 'Trisodium hexafluoroaluminate - alpha'
_chemical_formula_structural 'Na3 (Al F6)'
_chemical_formula_sum 'Al1 F6 Na3'
_chemical_name_structure_type Perovskite-Na3AlF6
_chemical_name_mineral Cryolite
_exptl_crystal_density_diffrn 2.94
_cell_measurement_temperature 373.
_publ_section_title

;
Ferroelastic phase transition in cryolite, Na3 Al F6, a mixed fluoride
perovskite: high temperature single crystal X-ray diffraction study and
symmetry analysis of the transition mechanism
;
loop_
_citation_id
_citation_journal_full
_citation_year
_citation_journal_volume
_citation_page_first
_citation_page_last
_citation_journal_id_ASTM
primary 'Physics and Chemistry of Minerals' 1993 19 528 544 PCMIDU
loop_
_publ_author_name
'Yang, H.-X.'
'Ghose, S.'
'Hatch, D.M.'
_cell_length_a 5.4306(6)
_cell_length_b 5.6069(4)
_cell_length_c 7.7944(6)
_cell_angle_alpha 90.
_cell_angle_beta 90.155(3)
_cell_angle_gamma 90.
_cell_volume 237.33
_cell_formula_units_Z 2
_symmetry_space_group_name_H-M 'P 1 21/n 1'
_symmetry_Int_Tables_number 14
_refine_ls_R_factor_all 0.047
loop_
_symmetry_equiv_pos_site_id
_symmetry_equiv_pos_as_xyz
1 '-x+1/2, y+1/2, -z+1/2'
2 '-x, -y, -z'
3 'x+1/2, -y+1/2, z+1/2'
4 'x, y, z'
loop_
_atom_type_symbol
_atom_type_oxidation_number
Al3+ 3
Na1+ 1
F1- -1
loop_
_atom_site_label
_atom_site_type_symbol
_atom_site_symmetry_multiplicity
_atom_site_Wyckoff_symbol
_atom_site_fract_x
_atom_site_fract_y
_atom_site_fract_z
_atom_site_B_iso_or_equiv
_atom_site_occupancy
_atom_site_attached_hydrogens
Al1 Al3+ 2 a 0 0 0 . 1. 0
Na1 Na1+ 2 b 0 0 0.5 . 1. 0
Na2 Na1+ 4 e -.0121(3) 0.4492(2) 0.2526(2) . 1. 0
F1 F1- 4 e 0.1016(4) 0.0442(4) 0.2188(2) . 1. 0
F2 F1- 4 e 0.2278(4) 0.3267(4) 0.5450(3) . 1. 0
F3 F1- 4 e 0.1622(4) 0.2687(4) 0.9383(3) . 1. 0
loop_
_atom_site_aniso_label
_atom_site_aniso_type_symbol
_atom_site_aniso_beta_11
_atom_site_aniso_beta_22
_atom_site_aniso_beta_33
_atom_site_aniso_beta_12
_atom_site_aniso_beta_13
_atom_site_aniso_beta_23
Al1 Al3+ 0.01247(59) 0.01059(58) 0.00988(52) 0.00007(50) 0.00044(42) -.00006(46)
Na1 Na1+ 0.01929(90) 0.01716(88) 0.01572(76) -.00281(81) -.00013(67) 0.00220(73)
Na2 Na1+ 0.02666(76) 0.02254(73) 0.02782(69) -.00480(68) 0.00078(57) 0.00036(67)
F1 F1- 0.0271(11) 0.0252(11) 0.01218(79) 0.00032(87) -.00369(74) -.00189(73)
F2 F1- 0.02025(99) 0.01995(98) 0.0267(11) -.00917(84) 0.00381(81) -.00025(79)
F3 F1- 0.0214(10) 0.01783(97) 0.0299(11) -.00599(82) 0.00079(83) 0.00604(83)
#End of TTdata_74201-ICSD