
#(C) 2019 by FIZ Karlsruhe - Leibniz Institute for Information Infrastructure.  All rights reserved.
data_74207-ICSD
_database_code_ICSD 74207
_audit_creation_date 1995-01-10
_audit_update_record 2006-04-01
_chemical_name_systematic 'Trisodium hexafluoroaluminate - alpha'
_chemical_formula_structural 'Na3 (Al F6)'
_chemical_formula_sum 'Al1 F6 Na3'
_chemical_name_structure_type Perovskite-Na3AlF6
_chemical_name_mineral Cryolite
_exptl_crystal_density_diffrn 2.81
_cell_measurement_temperature 840.
_publ_section_title

;
Ferroelastic phase transition in cryolite, Na3 Al F6, a mixed fluoride
perovskite: high temperature single crystal X-ray diffraction study and
symmetry analysis of the transition mechanism
;
loop_
_citation_id
_citation_journal_full
_citation_year
_citation_journal_volume
_citation_page_first
_citation_page_last
_citation_journal_id_ASTM
primary 'Physics and Chemistry of Minerals' 1993 19 528 544 PCMIDU
loop_
_publ_author_name
'Yang, H.-X.'
'Ghose, S.'
'Hatch, D.M.'
_cell_length_a 5.5558(9)
_cell_length_b 5.6437(6)
_cell_length_c 7.9263(9)
_cell_angle_alpha 90.
_cell_angle_beta 90.001(4)
_cell_angle_gamma 90.
_cell_volume 248.53
_cell_formula_units_Z 2
_symmetry_space_group_name_H-M 'P 1 21/n 1'
_symmetry_Int_Tables_number 14
_refine_ls_R_factor_all 0.049
loop_
_symmetry_equiv_pos_site_id
_symmetry_equiv_pos_as_xyz
1 '-x+1/2, y+1/2, -z+1/2'
2 '-x, -y, -z'
3 'x+1/2, -y+1/2, z+1/2'
4 'x, y, z'
loop_
_atom_type_symbol
_atom_type_oxidation_number
Al3+ 3
Na1+ 1
F1- -1
loop_
_atom_site_label
_atom_site_type_symbol
_atom_site_symmetry_multiplicity
_atom_site_Wyckoff_symbol
_atom_site_fract_x
_atom_site_fract_y
_atom_site_fract_z
_atom_site_B_iso_or_equiv
_atom_site_occupancy
_atom_site_attached_hydrogens
Al1 Al3+ 2 a 0 0 0 . 1. 0
Na1 Na1+ 2 b 0 0 0.5 . 1. 0
Na2 Na1+ 4 e -.0072(5) 0.4675(5) 0.2509(3) . 1. 0
F1 F1- 4 e 0.0858(6) 0.0317(8) 0.2179(4) . 1. 0
F2 F1- 4 e 0.2351(5) 0.3240(6) 0.5388(5) . 1. 0
F3 F1- 4 e 0.1684(6) 0.2637(6) 0.9500(5) . 1. 0
loop_
_atom_site_aniso_label
_atom_site_aniso_type_symbol
_atom_site_aniso_beta_11
_atom_site_aniso_beta_22
_atom_site_aniso_beta_33
_atom_site_aniso_beta_12
_atom_site_aniso_beta_13
_atom_site_aniso_beta_23
Al1 Al3+ 0.02563(80) 0.02502(82) 0.02326(77) 0.00082(76) 0.00040(57) 0.00045(78)
Na1 Na1+ 0.0458(15) 0.0431(15) 0.0428(14) -0.0054(14) -0.0012(12) 0.0021(15)
Na2 Na1+ 0.0650(14) 0.0674(16) 0.0688(15) -0.0079(14) 0.0013(11) 0.0031(16)
F1 F1- 0.0735(23) 0.0953(29) 0.0317(15) 0.0033(23) -0.0088(14) -0.0084(20)
F2 F1- 0.0494(17) 0.0557(20) 0.0732(24) -0.0243(16) 0.0127(16) -0.0035(18)
F3 F1- 0.0592(20) 0.0469(18) 0.0873(27) -0.0184(16) 0.0012(18) 0.0165(19)
#End of TTdata_74207-ICSD