
#(C) 2019 by FIZ Karlsruhe - Leibniz Institute for Information Infrastructure.  All rights reserved.
data_74204-ICSD
_database_code_ICSD 74204
_audit_creation_date 1995-01-10
_audit_update_record 2006-04-01
_chemical_name_systematic 'Trisodium hexafluoroaluminate - alpha'
_chemical_formula_structural 'Na3 (Al F6)'
_chemical_formula_sum 'Al1 F6 Na3'
_chemical_name_structure_type Perovskite-Na3AlF6
_chemical_name_mineral Cryolite
_exptl_crystal_density_diffrn 2.86
_cell_measurement_temperature 673.
_publ_section_title

;
Ferroelastic phase transition in cryolite, Na3 Al F6, a mixed fluoride
perovskite: high temperature single crystal X-ray diffraction study and
symmetry analysis of the transition mechanism
;
loop_
_citation_id
_citation_journal_full
_citation_year
_citation_journal_volume
_citation_page_first
_citation_page_last
_citation_journal_id_ASTM
primary 'Physics and Chemistry of Minerals' 1993 19 528 544 PCMIDU
loop_
_publ_author_name
'Yang, H.-X.'
'Ghose, S.'
'Hatch, D.M.'
_cell_length_a 5.5022(6)
_cell_length_b 5.6284(4)
_cell_length_c 7.8725(7)
_cell_angle_alpha 90.
_cell_angle_beta 90.055(3)
_cell_angle_gamma 90.
_cell_volume 243.8
_cell_formula_units_Z 2
_symmetry_space_group_name_H-M 'P 1 21/n 1'
_symmetry_Int_Tables_number 14
_refine_ls_R_factor_all 0.048
loop_
_symmetry_equiv_pos_site_id
_symmetry_equiv_pos_as_xyz
1 '-x+1/2, y+1/2, -z+1/2'
2 '-x, -y, -z'
3 'x+1/2, -y+1/2, z+1/2'
4 'x, y, z'
loop_
_atom_type_symbol
_atom_type_oxidation_number
Al3+ 3
Na1+ 1
F1- -1
loop_
_atom_site_label
_atom_site_type_symbol
_atom_site_symmetry_multiplicity
_atom_site_Wyckoff_symbol
_atom_site_fract_x
_atom_site_fract_y
_atom_site_fract_z
_atom_site_B_iso_or_equiv
_atom_site_occupancy
_atom_site_attached_hydrogens
Al1 Al3+ 2 a 0 0 0 . 1. 0
Na1 Na1+ 2 b 0 0 0.5 . 1. 0
Na2 Na1+ 4 e -.0093(4) 0.4576(3) 0.2517(3) . 1. 0
F1 F1- 4 e 0.0944(5) 0.0398(5) 0.2180(3) . 1. 0
F2 F1- 4 e 0.2310(4) 0.3262(5) 0.5423(4) . 1. 0
F3 F1- 4 e 0.1651(5) 0.2668(5) 0.9430(4) . 1. 0
loop_
_atom_site_aniso_label
_atom_site_aniso_type_symbol
_atom_site_aniso_beta_11
_atom_site_aniso_beta_22
_atom_site_aniso_beta_33
_atom_site_aniso_beta_12
_atom_site_aniso_beta_13
_atom_site_aniso_beta_23
Al1 Al3+ 0.01945(70) 0.01900(73) 0.01648(66) -.00025(61) 0.00024(51) -.00100(62)
Na1 Na1+ 0.0343(13) 0.0311(13) 0.0290(11) -0.0055(11) -.00115(92) 0.0018(11)
Na2 Na1+ 0.0492(11) 0.0443(12) 0.0493(11) -0.0078(10) 0.00013(85) 0.0010(11)
F1 F1- 0.0501(15) 0.0585(19) 0.0206(11) 0.0022(14) -0.0072(10) -0.0053(13)
F2 F1- 0.0350(13) 0.0396(15) 0.0476(17) -0.0159(12) 0.0070(12) -0.0016(13)
F3 F1- 0.0406(14) 0.0335(14) 0.0555(18) -0.0131(12) 0.0013(13) 0.0083(14)
#End of TTdata_74204-ICSD