
#(C) 2019 by FIZ Karlsruhe - Leibniz Institute for Information Infrastructure.  All rights reserved.
data_74202-ICSD
_database_code_ICSD 74202
_audit_creation_date 1995-01-10
_audit_update_record 2006-04-01
_chemical_name_systematic 'Trisodium hexafluoroaluminate - alpha'
_chemical_formula_structural 'Na3 (Al F6)'
_chemical_formula_sum 'Al1 F6 Na3'
_chemical_name_structure_type Perovskite-Na3AlF6
_chemical_name_mineral Cryolite
_exptl_crystal_density_diffrn 2.91
_cell_measurement_temperature 473.
_publ_section_title

;
Ferroelastic phase transition in cryolite, Na3 Al F6, a mixed fluoride
perovskite: high temperature single crystal X-ray diffraction study and
symmetry analysis of the transition mechanism
;
loop_
_citation_id
_citation_journal_full
_citation_year
_citation_journal_volume
_citation_page_first
_citation_page_last
_citation_journal_id_ASTM
primary 'Physics and Chemistry of Minerals' 1993 19 528 544 PCMIDU
loop_
_publ_author_name
'Yang, H.-X.'
'Ghose, S.'
'Hatch, D.M.'
_cell_length_a 5.4544(5)
_cell_length_b 5.6155(4)
_cell_length_c 7.8220(5)
_cell_angle_alpha 90.
_cell_angle_beta 90.1180(2)
_cell_angle_gamma 90.
_cell_volume 239.58
_cell_formula_units_Z 2
_symmetry_space_group_name_H-M 'P 1 21/n 1'
_symmetry_Int_Tables_number 14
_refine_ls_R_factor_all 0.046
loop_
_symmetry_equiv_pos_site_id
_symmetry_equiv_pos_as_xyz
1 '-x+1/2, y+1/2, -z+1/2'
2 '-x, -y, -z'
3 'x+1/2, -y+1/2, z+1/2'
4 'x, y, z'
loop_
_atom_type_symbol
_atom_type_oxidation_number
Al3+ 3
Na1+ 1
F1- -1
loop_
_atom_site_label
_atom_site_type_symbol
_atom_site_symmetry_multiplicity
_atom_site_Wyckoff_symbol
_atom_site_fract_x
_atom_site_fract_y
_atom_site_fract_z
_atom_site_B_iso_or_equiv
_atom_site_occupancy
_atom_site_attached_hydrogens
Al1 Al3+ 2 a 0 0 0 . 1. 0
Na1 Na1+ 2 b 0 0 0.5 . 1. 0
Na2 Na1+ 4 e -.0111(3) 0.4510(3) 0.2521(2) . 1. 0
F1 F1- 4 e 0.0998(4) 0.0432(4) 0.2184(3) . 1. 0
F2 F1- 4 e 0.2286(4) 0.3266(4) 0.5442(3) . 1. 0
F3 F1- 4 e 0.1630(4) 0.2678(4) 0.9398(3) . 1. 0
loop_
_atom_site_aniso_label
_atom_site_aniso_type_symbol
_atom_site_aniso_beta_11
_atom_site_aniso_beta_22
_atom_site_aniso_beta_33
_atom_site_aniso_beta_12
_atom_site_aniso_beta_13
_atom_site_aniso_beta_23
Al1 Al3+ 0.01445(65) 0.01304(63) 0.01227(57) -.00018(56) 0.00065(48) -.00026(51)
Na1 Na1+ 0.0234(10) 0.0216(10) 0.01941(87) -.00373(94) -.00017(77) 0.00232(84)
Na2 Na1+ 0.03310(89) 0.02923(90) 0.03424(82) -.00608(83) 0.00130(67) 0.00122(82)
F1 F1- 0.0335(12) 0.0330(13) 0.01463(88) 0.0006(11) -.00371(84) -.00283(87)
F2 F1- 0.0252(12) 0.0250(11) 0.0325(13) -.01167(98) 0.00488(95) 0.00053(94)
F3 F1- 0.0268(12) 0.0226(11) 0.0382(13) -.00775(97) 0.00202(99) 0.0075(10)
#End of TTdata_74202-ICSD