
#(C) 2019 by FIZ Karlsruhe - Leibniz Institute for Information Infrastructure.  All rights reserved.
data_74219-ICSD
_database_code_ICSD 74219
_audit_creation_date 1995-01-10
_audit_update_record 2007-08-01
_chemical_name_systematic 'Sodium tecto-alumosilicate hydrate *'
_chemical_formula_structural 'Na1.98 (Al1.99 Si2.97 O10.15) (H2 O)2'
_chemical_formula_sum 'H4 Al1.99 Na1.98 O12.15 Si2.97'
_chemical_name_structure_type Natrolite-frame
_chemical_name_mineral Natrolite
_exptl_crystal_density_diffrn 2.25
_publ_section_title

;
Natrolite, Part I: Refinement of high-order data, separation of internal and
external vibrational amplitudes from displacement parameters
;
loop_
_citation_id
_citation_journal_full
_citation_year
_citation_journal_volume
_citation_page_first
_citation_page_last
_citation_journal_id_ASTM
primary 'Physics and Chemistry of Minerals' 1993 19 562 570 PCMIDU
loop_
_publ_author_name
'Stuckenschmidt, E.'
'Joswig, W.'
'Baur, W.H.'
_cell_length_a 18.29289(70)
_cell_length_b 18.64069(90)
_cell_length_c 6.5871(6)
_cell_angle_alpha 90.
_cell_angle_beta 90.
_cell_angle_gamma 90.
_cell_volume 2246.15
_cell_formula_units_Z 8
_symmetry_space_group_name_H-M 'F d d 2'
_symmetry_Int_Tables_number 43
_refine_ls_R_factor_all 0.0086
loop_
_symmetry_equiv_pos_site_id
_symmetry_equiv_pos_as_xyz
1 'x+1/4, -y+1/4, z+1/4'
2 '-x+1/4, y+1/4, z+1/4'
3 '-x, -y, z'
4 'x, y, z'
5 'x+1/4, -y+3/4, z+3/4'
6 '-x+1/4, y+3/4, z+3/4'
7 '-x, -y+1/2, z+1/2'
8 'x, y+1/2, z+1/2'
9 'x+3/4, -y+1/4, z+3/4'
10 '-x+3/4, y+1/4, z+3/4'
11 '-x+1/2, -y, z+1/2'
12 'x+1/2, y, z+1/2'
13 'x+3/4, -y+3/4, z+1/4'
14 '-x+3/4, y+3/4, z+1/4'
15 '-x+1/2, -y+1/2, z'
16 'x+1/2, y+1/2, z'
loop_
_atom_type_symbol
_atom_type_oxidation_number
Si4+ 4
Al3+ 3
O2- -2
Na1+ 1
O2- -2
H1+ 1
loop_
_atom_site_label
_atom_site_type_symbol
_atom_site_symmetry_multiplicity
_atom_site_Wyckoff_symbol
_atom_site_fract_x
_atom_site_fract_y
_atom_site_fract_z
_atom_site_B_iso_or_equiv
_atom_site_occupancy
_atom_site_attached_hydrogens
Si1 Si4+ 8 a 0 0 0 . 0.993(1) 0
Si2 Si4+ 16 b 0.153230(4) 0.211350(4) 0.62273(2) . 0.986(1) 0
Al1 Al3+ 16 b 0.037390(4) 0.093740(4) 0.61525(2) . 0.993(1) 0
O1 O2- 16 b 0.02269(2) 0.06853(1) 0.86619(5) . 1.015(1) 0
O2 O2- 16 b 0.07010(1) 0.18183(1) 0.60974(4) . 1.013(1) 0
O3 O2- 16 b 0.09850(1) 0.03512(1) 0.50019(5) . 1.014(1) 0
O4 O2- 16 b 0.20637(1) 0.15267(1) 0.72579(5) . 1.020(1) 0
O5 O2- 16 b 0.18035(1) 0.22733(2) 0.39022(4) . 1.013(1) 0
Na1 Na1+ 16 b 0.22074(1) 0.03077(1) 0.61761(4) . 0.991(1) 0
O6 O2- 16 b 0.05648(2) 0.18951(2) 0.11087(7) . 1.000(1) 0
H1 H1+ 16 b 0.0520(7) 0.1440(6) 0.057(2) 0.055(4) 1. 0
H2 H1+ 16 b 0.1010(7) 0.1883(6) 0.161(2) 0.055(4) 1. 0
loop_
_atom_site_aniso_label
_atom_site_aniso_type_symbol
_atom_site_aniso_U_11
_atom_site_aniso_U_22
_atom_site_aniso_U_33
_atom_site_aniso_U_12
_atom_site_aniso_U_13
_atom_site_aniso_U_23
Si1 Si4+ 0.00791(4) 0.00776(4) 0.00438(4) 0.00026(3) 0 0
Si2 Si4+ 0.00508(3) 0.00608(3) 0.00620(3) -.00060(2) -.00032(2) -.00043(2)
Al1 Al3+ 0.00660(4) 0.00523(3) 0.00643(4) -.00039(2) -.00031(2) -.00032(2)
O1 O2- 0.02149(9) 0.01220(7) 0.00957(7) -.00240(6) 0.00159(7) 0.00328(7)
O2 O2- 0.00661(6) 0.00712(6) 0.01209(7) -.00147(4) -.00071(5) 0.00001(5)
O3 O2- 0.01203(7) 0.01017(7) 0.01735(9) 0.00224(5) 0.00034(6) -.00632(6)
O4 O2- 0.01049(7) 0.01183(7) 0.01678(9) 0.00227(5) -.00555(6) 0.00081(6)
O5 O2- 0.01287(8) 0.02195(9) 0.00964(8) -.00283(6) 0.00394(6) 0.00214(6)
Na1 Na1+ 0.01581(6) 0.01594(6) 0.01839(7) -.00152(4) -.00284(5) -.00189(5)
O6 O2- 0.0249(1) 0.0225(1) 0.0192(1) 0.00183(9) -.0005(1) -.0013(1)
#End of TTdata_74219-ICSD