
#(C) 2019 by FIZ Karlsruhe - Leibniz Institute for Information Infrastructure.  All rights reserved.
data_74336-ICSD
_database_code_ICSD 74336
_audit_creation_date 1995-10-17
_chemical_name_systematic 'Sodium copper iron sulfide (1/1.1/1.1/2)'
_chemical_formula_structural 'Na (Cu Fe)1.053 S2'
_chemical_formula_sum 'Cu1.053 Fe1.053 Na1 S2'
_chemical_name_structure_type La2O3
_exptl_crystal_density_diffrn 3.98
_publ_section_title

;
Structure refinement of a new sulfide of copper and iron with layered
structure
;
loop_
_citation_id
_citation_journal_full
_citation_year
_citation_journal_volume
_citation_page_first
_citation_page_last
_citation_journal_id_ASTM
primary 'Materials Research Bulletin' 1993 28 39 44 MRBUAC
loop_
_publ_author_name
'Llanos, J.'
'Contreras-Ortega, C.'
'Mujica, C.'
'von Schnering, H.G.'
'Peters, K.'
_cell_length_a 3.863(1)
_cell_length_b 3.863(1)
_cell_length_c 6.873(1)
_cell_angle_alpha 90.
_cell_angle_beta 90.
_cell_angle_gamma 120.
_cell_volume 88.82
_cell_formula_units_Z 1
_symmetry_space_group_name_H-M 'P -3 m 1'
_symmetry_Int_Tables_number 164
_refine_ls_R_factor_all 0.049
loop_
_symmetry_equiv_pos_site_id
_symmetry_equiv_pos_as_xyz
1 'x-y, -y, -z'
2 '-x, -x+y, -z'
3 'y, x, -z'
4 'x-y, x, -z'
5 'y, -x+y, -z'
6 '-x, -y, -z'
7 '-x+y, y, z'
8 'x, x-y, z'
9 '-y, -x, z'
10 '-x+y, -x, z'
11 '-y, x-y, z'
12 'x, y, z'
loop_
_atom_type_symbol
_atom_type_oxidation_number
Na1+ 1
Fe1+ 1.85
Cu1+ 1
S2- -2
loop_
_atom_site_label
_atom_site_type_symbol
_atom_site_symmetry_multiplicity
_atom_site_Wyckoff_symbol
_atom_site_fract_x
_atom_site_fract_y
_atom_site_fract_z
_atom_site_B_iso_or_equiv
_atom_site_occupancy
_atom_site_attached_hydrogens
Na1 Na1+ 1 a 0 0 0 . 1. 0
Fe1 Fe1+ 2 d 0.3333 0.6667 0.6201(3) . 0.5265(85) 0
Cu1 Cu1+ 2 d 0.3333 0.6667 0.6201(3) . 0.5265(85) 0
S1 S2- 2 d 0.6667 0.3333 0.7319(6) . 1. 0
loop_
_atom_site_aniso_label
_atom_site_aniso_type_symbol
_atom_site_aniso_U_11
_atom_site_aniso_U_22
_atom_site_aniso_U_33
_atom_site_aniso_U_12
_atom_site_aniso_U_13
_atom_site_aniso_U_23
Na1 Na1+ 0.0258(25) 0.0258(25) 0.0248(53) 0.0129(12) 0 0
Fe1 Fe1+ 0.0138(70) 0.0138(70) 0.0206(12) 0.0069(35) 0 0
Cu1 Cu1+ 0.0138(70) 0.0138(70) 0.0206(12) 0.0069(35) 0 0
S1 S2- 0.0106(11) 0.0106(11) 0.0154(19) 0.0053(6) 0 0
#End of TTdata_74336-ICSD