
#(C) 2019 by FIZ Karlsruhe - Leibniz Institute for Information Infrastructure.  All rights reserved.
data_74473-ICSD
_database_code_ICSD 74473
_audit_creation_date 1995-10-17
_chemical_name_systematic 'Sodium lithium aluminium oxide (1.8/0.4/10.2/17)'
_chemical_formula_structural 'Na1.77 Al11 O17'
_chemical_formula_sum 'Al11 Na1.77 O17'
_chemical_name_structure_type KAl10.67O17
_exptl_crystal_density_diffrn 3.32
_cell_measurement_temperature 147.
_publ_section_title 'X-ray crystal diffraction study of Zr,Na-beta"-alumina'
loop_
_citation_id
_citation_journal_full
_citation_year
_citation_journal_volume
_citation_page_first
_citation_page_last
_citation_journal_id_ASTM
primary 'Materials Research Society Symposium Proceedings' 1993 293 315 321
MRSPDH
loop_
_publ_author_name
'Pearson, W.H.'
'Lomax, J.F.'
_cell_length_a 5.6037(3)
_cell_length_b 5.6037(3)
_cell_length_c 33.6210(86)
_cell_angle_alpha 90.
_cell_angle_beta 90.
_cell_angle_gamma 120.
_cell_volume 914.3
_cell_formula_units_Z 3
_symmetry_space_group_name_H-M 'R -3 m H'
_symmetry_Int_Tables_number 166
_refine_ls_R_factor_all 0.033
loop_
_symmetry_equiv_pos_site_id
_symmetry_equiv_pos_as_xyz
1 'x-y, -y, -z'
2 '-x, -x+y, -z'
3 'y, x, -z'
4 'x-y, x, -z'
5 'y, -x+y, -z'
6 '-x, -y, -z'
7 '-x+y, y, z'
8 'x, x-y, z'
9 '-y, -x, z'
10 '-x+y, -x, z'
11 '-y, x-y, z'
12 'x, y, z'
13 'x-y+2/3, -y+1/3, -z+1/3'
14 '-x+2/3, -x+y+1/3, -z+1/3'
15 'y+2/3, x+1/3, -z+1/3'
16 'x-y+2/3, x+1/3, -z+1/3'
17 'y+2/3, -x+y+1/3, -z+1/3'
18 '-x+2/3, -y+1/3, -z+1/3'
19 '-x+y+2/3, y+1/3, z+1/3'
20 'x+2/3, x-y+1/3, z+1/3'
21 '-y+2/3, -x+1/3, z+1/3'
22 '-x+y+2/3, -x+1/3, z+1/3'
23 '-y+2/3, x-y+1/3, z+1/3'
24 'x+2/3, y+1/3, z+1/3'
25 'x-y+1/3, -y+2/3, -z+2/3'
26 '-x+1/3, -x+y+2/3, -z+2/3'
27 'y+1/3, x+2/3, -z+2/3'
28 'x-y+1/3, x+2/3, -z+2/3'
29 'y+1/3, -x+y+2/3, -z+2/3'
30 '-x+1/3, -y+2/3, -z+2/3'
31 '-x+y+1/3, y+2/3, z+2/3'
32 'x+1/3, x-y+2/3, z+2/3'
33 '-y+1/3, -x+2/3, z+2/3'
34 '-x+y+1/3, -x+2/3, z+2/3'
35 '-y+1/3, x-y+2/3, z+2/3'
36 'x+1/3, y+2/3, z+2/3'
loop_
_atom_type_symbol
_atom_type_oxidation_number
Al3+ 3
Na1+ 1
O2- -2
loop_
_atom_site_label
_atom_site_type_symbol
_atom_site_symmetry_multiplicity
_atom_site_Wyckoff_symbol
_atom_site_fract_x
_atom_site_fract_y
_atom_site_fract_z
_atom_site_B_iso_or_equiv
_atom_site_occupancy
_atom_site_attached_hydrogens
Al1 Al3+ 18 h 0.1675(1) 0.8325(1) 0.92930(2) 0.407(8) 1. 0
Al2 Al3+ 6 c 0 0 0.35000(4) 0.40(1) 1. 0
Al3 Al3+ 6 c 0 0 0.44984(4) 0.37(1) 1. 0
Al4 Al3+ 3 a 0 0 0 0.34(2) 1. 0
Na1 Na1+ 18 h 0.043(1) -.043(1) 0.8279(1) 8.1(2) 0.295 0
O1 O2- 18 h 0.1631(2) 0.8369(2) 0.23520(4) 0.63(2) 1. 0
O2 O2- 18 h 0.1558(2) 0.8442(2) 0.03411(5) 0.75(2) 1. 0
O3 O2- 6 c 0 0 0.09671(8) 0.73(3) 1. 0
O4 O2- 6 c 0 0 0.29565(9) 0.63(3) 1. 0
O5 O2- 3 b 0 0 0.5 3.30(9) 1. 0
#End of TTdata_74473-ICSD