
#(C) 2019 by FIZ Karlsruhe - Leibniz Institute for Information Infrastructure.  All rights reserved.
data_74553-ICSD
_database_code_ICSD 74553
_audit_creation_date 1995-10-17
_audit_update_record 1999-01-19
_chemical_name_systematic 'Sodium scandium catena-disilicate'
_chemical_formula_structural 'Na Sc (Si2 O6)'
_chemical_formula_sum 'Na1 O6 Sc1 Si2'
_chemical_name_structure_type Pyroxene-CaMg(SiO3)2
_chemical_name_mineral Jervisite
_exptl_crystal_density_diffrn 3.21
_cell_measurement_temperature 298.
_publ_section_title 'Na Sc Si2 O6'
loop_
_citation_id
_citation_journal_full
_citation_year
_citation_journal_volume
_citation_page_first
_citation_page_last
_citation_journal_id_ASTM
primary 'Acta Crystallographica, Section C: Crystal Structure Communications'
1994 50 838 840 ACSCEE
loop_
_publ_author_name
'Ohashi, H.'
'Osawa, T.'
'Sato, A.'
_cell_length_a 9.8372(10)
_cell_length_b 9.0550(5)
_cell_length_c 5.3488(6)
_cell_angle_alpha 90.
_cell_angle_beta 107.175(5)
_cell_angle_gamma 90.
_cell_volume 455.2
_cell_formula_units_Z 4
_symmetry_space_group_name_H-M 'C 1 2/c 1'
_symmetry_Int_Tables_number 15
_refine_ls_R_factor_all 0.018
loop_
_symmetry_equiv_pos_site_id
_symmetry_equiv_pos_as_xyz
1 'x, -y, z+1/2'
2 '-x, -y, -z'
3 '-x, y, -z+1/2'
4 'x, y, z'
5 'x+1/2, -y+1/2, z+1/2'
6 '-x+1/2, -y+1/2, -z'
7 '-x+1/2, y+1/2, -z+1/2'
8 'x+1/2, y+1/2, z'
loop_
_atom_type_symbol
_atom_type_oxidation_number
Na1+ 1
Sc3+ 3
Si4+ 4
O2- -2
loop_
_atom_site_label
_atom_site_type_symbol
_atom_site_symmetry_multiplicity
_atom_site_Wyckoff_symbol
_atom_site_fract_x
_atom_site_fract_y
_atom_site_fract_z
_atom_site_B_iso_or_equiv
_atom_site_occupancy
_atom_site_attached_hydrogens
Na1 Na1+ 4 e 0 0.3036(1) 0.25 . 1. 0
Sc1 Sc3+ 4 e 0 0.89607(4) 0.25 . 1. 0
Si1 Si4+ 8 f 0.29126(4) 0.08712(4) 0.24447(7) . 1. 0
O1 O2- 8 f 0.1182(1) 0.0781(1) 0.1458(2) . 1. 0
O2 O2- 8 f 0.3592(1) 0.2477(1) 0.3073(2) . 1. 0
O3 O2- 8 f 0.3503(1) 0.0081(1) 0.0188(2) . 1. 0
loop_
_atom_site_aniso_label
_atom_site_aniso_type_symbol
_atom_site_aniso_U_11
_atom_site_aniso_U_22
_atom_site_aniso_U_33
_atom_site_aniso_U_12
_atom_site_aniso_U_13
_atom_site_aniso_U_23
Na1 Na1+ 0.0225(4) 0.0115(3) 0.0105(3) 0 -.0034(3) 0
Sc1 Sc3+ 0.0044(1) 0.0045(1) 0.0045(1) 0 0.00048(9) 0
Si1 Si4+ 0.0041(1) 0.0052(1) 0.0042(1) -.0007(1) 0.0004(1) -.0002(1)
O1 O2- 0.0041(3) 0.0075(3) 0.0056(3) -.0006(3) 0.0002(3) 0.0007(3)
O2 O2- 0.0082(3) 0.0066(3) 0.0091(4) -.0027(3) 0.0018(3) -.0006(3)
O3 O2- 0.0064(3) 0.0102(4) 0.0059(3) 0.0002(3) 0.0013(3) -.0021(3)
#End of TTdata_74553-ICSD