
#(C) 2019 by FIZ Karlsruhe - Leibniz Institute for Information Infrastructure.  All rights reserved.
data_74557-ICSD
_database_code_ICSD 74557
_audit_creation_date 1995-10-17
_audit_update_record 2006-04-01
_chemical_name_systematic 'Tripotassium sodium bis(chromate) - HT'
_chemical_formula_structural 'K3 Na (Cr O4)2'
_chemical_formula_sum 'Cr2 K3 Na1 O8'
_chemical_name_structure_type K3Na(SO4)2
_exptl_crystal_density_diffrn 2.77
_cell_measurement_temperature 290.
_publ_section_title

;
Structure determination of the ferroelastic phase of K3 Na (Cr O4)2 at 200 and
230 K and the redetermination of its parent phase at 290 K
;
loop_
_citation_id
_citation_journal_full
_citation_year
_citation_journal_volume
_citation_page_first
_citation_page_last
_citation_journal_id_ASTM
primary 'Acta Crystallographica, Section B: Structural Science' 1994 50 13 22
ASBSDK
loop_
_publ_author_name
'Fabry, J.'
'Breczewski, T.'
'Madariaga, G.'
_cell_length_a 5.857(3)
_cell_length_b 5.857(3)
_cell_length_c 7.521(2)
_cell_angle_alpha 90.
_cell_angle_beta 90.
_cell_angle_gamma 120.
_cell_volume 223.44
_cell_formula_units_Z 1
_symmetry_space_group_name_H-M 'P -3 m 1'
_symmetry_Int_Tables_number 164
_refine_ls_R_factor_all 0.014
loop_
_symmetry_equiv_pos_site_id
_symmetry_equiv_pos_as_xyz
1 'x-y, -y, -z'
2 '-x, -x+y, -z'
3 'y, x, -z'
4 'x-y, x, -z'
5 'y, -x+y, -z'
6 '-x, -y, -z'
7 '-x+y, y, z'
8 'x, x-y, z'
9 '-y, -x, z'
10 '-x+y, -x, z'
11 '-y, x-y, z'
12 'x, y, z'
loop_
_atom_type_symbol
_atom_type_oxidation_number
Cr6+ 6
K1+ 1
Na1+ 1
O2- -2
loop_
_atom_site_label
_atom_site_type_symbol
_atom_site_symmetry_multiplicity
_atom_site_Wyckoff_symbol
_atom_site_fract_x
_atom_site_fract_y
_atom_site_fract_z
_atom_site_B_iso_or_equiv
_atom_site_occupancy
_atom_site_attached_hydrogens
Cr1 Cr6+ 2 d 0.3333 0.6667 0.27344(7) . 1. 0
K1 K1+ 2 d 0.3333 0.6667 0.8326(1) . 1. 0
K2 K1+ 1 b 0 0 0.5 . 1. 0
Na1 Na1+ 1 a 0 0 0 . 1. 0
O1 O2- 2 d 0.3333 0.6667 0.4877(7) . 1. 0
O2 O2- 6 i 0.18136(15) 0.36272(30) 0.1972(3) . 1. 0
loop_
_atom_site_aniso_label
_atom_site_aniso_type_symbol
_atom_site_aniso_U_11
_atom_site_aniso_U_22
_atom_site_aniso_U_33
_atom_site_aniso_U_12
_atom_site_aniso_U_13
_atom_site_aniso_U_23
Cr1 Cr6+ 0.01095(24) 0.01095(24) 0.01100(34) 0.00547(12) 0 0
K1 K1+ 0.02009(28) 0.02009(28) 0.01587(50) 0.01004(14) 0 0
K2 K1+ 0.04253(54) 0.04253(54) 0.01913(73) 0.02126(27) 0 0
Na1 Na1+ 0.01440(59) 0.01440(59) 0.01621(91) 0.00720(29) 0 0
O1 O2- 0.05845(151) 0.05845(151) 0.01376(130) 0.02920(76) 0 0
O2 O2- 0.02628(66) 0.01691(70) 0.04182(88) 0.00846(35) -0.00497(50)
-0.00993(100)
#End of TTdata_74557-ICSD