
#(C) 2017 by FIZ Karlsruhe - Leibniz Institute for Information Infrastructure.  All rights reserved.
data_74565-ICSD
_database_code_ICSD 74565
_audit_creation_date 1995-10-17
_audit_update_record 2006-04-01
_chemical_name_systematic 'Dilithium hexafluoromolybdate(IV)'
_chemical_formula_structural 'Li2 (Mo F6)'
_chemical_formula_sum 'F6 Li2 Mo1'
_chemical_name_structure_type ZnSb2O6
_exptl_crystal_density_diffrn 3.68
_publ_section_title 'Space group of the trirutile type structure of Li2 Mo F6'
loop_
_citation_id
_citation_journal_full
_citation_year
_citation_journal_volume
_citation_page_first
_citation_page_last
_citation_journal_id_ASTM
primary 'Acta Crystallographica, Section B: Structural Science' 1994 50 141 146
ASBSDK
loop_
_publ_author_name
'Baur, W.H.'
_cell_length_a 4.6863(7)
_cell_length_b 4.6863(7)
_cell_length_c 9.191(2)
_cell_angle_alpha 90.
_cell_angle_beta 90.
_cell_angle_gamma 90.
_cell_volume 201.85
_cell_formula_units_Z 2
_symmetry_space_group_name_H-M 'P 42/m n m'
_symmetry_Int_Tables_number 136
_refine_ls_R_factor_all 0.057
loop_
_symmetry_equiv_pos_site_id
_symmetry_equiv_pos_as_xyz
1 '-y+1/2, x+1/2, -z+1/2'
2 'y+1/2, -x+1/2, -z+1/2'
3 'y, x, -z'
4 '-y, -x, -z'
5 'y+1/2, -x+1/2, z+1/2'
6 '-y+1/2, x+1/2, z+1/2'
7 '-y, -x, z'
8 'y, x, z'
9 'x+1/2, -y+1/2, -z+1/2'
10 '-x+1/2, y+1/2, -z+1/2'
11 'x, y, -z'
12 '-x, -y, -z'
13 '-x+1/2, y+1/2, z+1/2'
14 'x+1/2, -y+1/2, z+1/2'
15 '-x, -y, z'
16 'x, y, z'
loop_
_atom_type_symbol
_atom_type_oxidation_number
Mo4+ 4
Li1+ 1
F1- -1
loop_
_atom_site_label
_atom_site_type_symbol
_atom_site_symmetry_multiplicity
_atom_site_Wyckoff_symbol
_atom_site_fract_x
_atom_site_fract_y
_atom_site_fract_z
_atom_site_B_iso_or_equiv
_atom_site_occupancy
_atom_site_attached_hydrogens
Mo1 Mo4+ 2 a 0 0 0 . 1. 0
Li1 Li1+ 4 e 0 0 0.337(2) 0.022(3) 1. 0
F1 F1- 8 j 0.3052(6) 0.3052(6) 0.3424(4) . 1. 0
F2 F1- 4 f 0.2909(8) 0.2909(8) 0 . 1. 0
loop_
_atom_site_aniso_label
_atom_site_aniso_type_symbol
_atom_site_aniso_U_11
_atom_site_aniso_U_22
_atom_site_aniso_U_33
_atom_site_aniso_U_12
_atom_site_aniso_U_13
_atom_site_aniso_U_23
Mo1 Mo4+ 0.0135(2) 0.0135(2) 0.0107(3) 0.0003(3) 0 0
F1 F1- 0.0150(9) 0.0150(9) 0.012(1) -.0010(5) -.0018(4) -.0018(4)
F2 F1- 0.012(1) 0.012(1) 0.017(2) -.002(12) -.0005(10) 0.0005(10)
#End of TTdata_74565-ICSD