
#(C) 2019 by FIZ Karlsruhe - Leibniz Institute for Information Infrastructure.  All rights reserved.
data_74715-ICSD
_database_code_ICSD 74715
_audit_creation_date 1995-10-17
_chemical_name_systematic
'Sodium titanium magnesium oxide fluoride (6.1/4.5/1.4/13.3/0.7)'
_chemical_formula_structural 'Na6.1 (Ti4.54 Mg1.38) (O13.3 F0.7)'
_chemical_formula_sum 'F0.7 Mg1.38 Na6.1 O13.3 Ti4.54'
_exptl_crystal_density_diffrn 3.53
_publ_section_title

;
Composition and structure of new solid electrolyte: nonstoichiometric sodium
magnesium titanium oxyfluoride
;
loop_
_citation_id
_citation_journal_full
_citation_year
_citation_journal_volume
_citation_page_first
_citation_page_last
_citation_journal_id_ASTM
primary 'Zhurnal Neorganicheskoi Khimii' 1989 34 1100 1104 ZNOKAQ
loop_
_publ_author_name
'Filipenko, O.S.'
'Atovmyan, L.O.'
'Nalbandyan, V.B.'
'Bikyashev, E.A.'
_cell_length_a 15.798(4)
_cell_length_b 6.289(4)
_cell_length_c 2.963(2)
_cell_angle_alpha 90.
_cell_angle_beta 90.
_cell_angle_gamma 80.18
_cell_volume 290.07
_cell_formula_units_Z 1
_symmetry_space_group_name_H-M 'P 1 1 2/m'
_symmetry_Int_Tables_number 10
_refine_ls_R_factor_all 0.04
loop_
_symmetry_equiv_pos_site_id
_symmetry_equiv_pos_as_xyz
1 '-x, -y, z'
2 '-x, -y, -z'
3 'x, y, -z'
4 'x, y, z'
loop_
_atom_type_symbol
_atom_type_oxidation_number
Ti4+ 4
Mg2+ 2
Ti4+ 4
Mg2+ 2
Ti4+ 4
Mg2+ 2
Ti4+ 4
Mg2+ 2
Na1+ 1
O2- -2
F1- -1
O2- -2
F1- -1
O2- -2
F1- -1
O2- -2
F1- -1
O2- -2
F1- -1
O2- -2
F1- -1
O2- -2
F1- -1
loop_
_atom_site_label
_atom_site_type_symbol
_atom_site_symmetry_multiplicity
_atom_site_Wyckoff_symbol
_atom_site_fract_x
_atom_site_fract_y
_atom_site_fract_z
_atom_site_B_iso_or_equiv
_atom_site_occupancy
_atom_site_attached_hydrogens
Ti1 Ti4+ 1 a 0 0 0 . 0.767 0
Mg1 Mg2+ 1 a 0 0 0 . 0.233 0
Ti2 Ti4+ 2 m 0.3495(1) 0.8453(1) 0 . 0.7517 0
Mg2 Mg2+ 2 m 0.3495(1) 0.8453(1) 0 . 0.2283 0
Ti3 Ti4+ 2 n 0.1607(1) 0.1352(1) 0.5 . 0.7517 0
Mg3 Mg2+ 2 n 0.1607(1) 0.1352(1) 0.5 . 0.2283 0
Ti4 Ti4+ 1 f 0.5 0 0.5 . 0.767 0
Mg4 Mg2+ 1 f 0.5 0 0.5 . 0.233 0
Na1 Na1+ 2 m 0.3247(2) 0.3444(4) 0 . 0.995 0
Na2 Na1+ 2 m 0.1702(2) 0.6490(5) 0 . 0.775 0
Na3 Na1+ 2 m 0.8992(10) 0.4279(15) 0 . 0.225 0
Na4 Na1+ 1 e 0 0.5 0.5 . 1.11 0
Na5 Na1+ 1 h 0.5 0.5 0.5 . 1. 0
O1 O2- 2 n 0.3497(1) 0.6479(5) 0.5 . 0.95 0
F1 F1- 2 n 0.3497(1) 0.6479(5) 0.5 . 0.05 0
O2 O2- 2 n 0.3751(2) 0.0546(5) 0.5 . 0.95 0
F2 F1- 2 n 0.3751(2) 0.0546(5) 0.5 . 0.05 0
O3 O2- 2 n 0.0722(2) 0.8625(5) 0.5 . 0.95 0
F3 F1- 2 n 0.0722(2) 0.8625(5) 0.5 . 0.05 0
O4 O2- 2 m 0.2286(2) -.0296(5) 0 . 0.95 0
F4 F1- 2 m 0.2286(2) -.0296(5) 0 . 0.05 0
O5 O2- 2 m 0.0742(2) 0.2215(6) 0 . 0.95 0
F5 F1- 2 m 0.0742(2) 0.2215(6) 0 . 0.05 0
O6 O2- 2 n 0.2038(2) 0.3738(5) 0.5 . 0.95 0
F6 F1- 2 n 0.2038(2) 0.3738(5) 0.5 . 0.05 0
O7 O2- 2 m 0.4893(2) 0.7941(4) 0 . 0.95 0
F7 F1- 2 m 0.4893(2) 0.7941(4) 0 . 0.05 0
loop_
_atom_site_aniso_label
_atom_site_aniso_type_symbol
_atom_site_aniso_beta_11
_atom_site_aniso_beta_22
_atom_site_aniso_beta_33
_atom_site_aniso_beta_12
_atom_site_aniso_beta_13
_atom_site_aniso_beta_23
Ti1 Ti4+ 0.0004 0.0078 0.0185 -.001 0 0
Mg1 Mg2+ 0.0004 0.0078 0.0185 -.001 0 0
Ti2 Ti4+ 0.0005 0.0044 0.0174 -.0007 0 0
Mg2 Mg2+ 0.0005 0.0044 0.0174 -.0007 0 0
Ti3 Ti4+ 0.0005 0.0051 0.0116 -.0003 0 0
Mg3 Mg2+ 0.0005 0.0051 0.0116 -.0003 0 0
Ti4 Ti4+ 0.0003 0.0035 0.0182 -.0007 0 0
Mg4 Mg2+ 0.0003 0.0035 0.0182 -.0007 0 0
Na1 Na1+ 0.0015 0.0071 0.0227 -.002 0 0
Na2 Na1+ 0.0013 0.0037 0.0466 0.0005 0 0
Na3 Na1+ 0.0077 0.0266 0.1178 0.0027 0 0
Na4 Na1+ 0.0025 0.0124 0.1352 0.002 0 0
Na5 Na1+ 0.0009 0.0033 0.0237 -.0002 0 0
O1 O2- 0.0007 0.0039 0.0311 -.0008 0 0
F1 F1- 0.0007 0.0039 0.0311 -.0008 0 0
O2 O2- 0.0004 0.0033 0.0208 -.0006 0 0
F2 F1- 0.0004 0.0033 0.0208 -.0006 0 0
O3 O2- 0.0004 0.0082 0.0122 0 0 0
F3 F1- 0.0004 0.0082 0.0122 0 0 0
O4 O2- 0.0005 0.0045 0.0181 0.0004 0 0
F4 F1- 0.0005 0.0045 0.0181 0.0004 0 0
O5 O2- 0.0005 0.0065 0.0159 0.0011 0 0
F5 F1- 0.0005 0.0065 0.0159 0.0011 0 0
O6 O2- 0.0009 0.0052 0.0161 0.0012 0 0
F6 F1- 0.0009 0.0052 0.0161 0.0012 0 0
O7 O2- 0.0007 0.0028 0.0142 0.001 0 0
F7 F1- 0.0007 0.0028 0.0142 0.001 0 0
#End of TTdata_74715-ICSD