
#(C) 2019 by FIZ Karlsruhe - Leibniz Institute for Information Infrastructure.  All rights reserved.
data_74828-ICSD
_database_code_ICSD 74828
_audit_creation_date 1995-10-17
_audit_update_record 2000-07-15
_chemical_name_systematic
'Sodium barium copper platinum(IV) oxide (1/4/0.5/1.5/8)'
_chemical_formula_structural 'Na Ba4 Cu0.5 Pt1.5 O8'
_chemical_formula_sum 'Ba4 Cu0.5 Na1 O8 Pt1.5'
_exptl_crystal_density_diffrn 6.94
_publ_section_title

;
Ein Beitrag zur Kristallchemie der oxidischen
Alkali-Erdalkali-Edelmetall-Perowskite. Synthese und Kristallstruktur von Na
Ba4 Cu0.5 Pt1.5 O8
;
loop_
_citation_id
_citation_journal_full
_citation_year
_citation_journal_volume
_citation_page_first
_citation_page_last
_citation_journal_id_ASTM
primary 'Zeitschrift fuer Naturforschung, B: A Journal of Chemical Sciences'
1994 49 585 588 ZNBSEN
loop_
_publ_author_name
'Tams, G.'
'Mueller Buschbaum, H.'
_cell_length_a 10.0644(30)
_cell_length_b 10.0644(30)
_cell_length_c 8.3911(26)
_cell_angle_alpha 90.
_cell_angle_beta 90.
_cell_angle_gamma 120.
_cell_volume 736.08
_cell_formula_units_Z 3
_symmetry_space_group_name_H-M 'P 3 2 1'
_symmetry_Int_Tables_number 150
_refine_ls_R_factor_all 0.076
loop_
_symmetry_equiv_pos_site_id
_symmetry_equiv_pos_as_xyz
1 'x-y, -y, -z'
2 '-x, -x+y, -z'
3 'y, x, -z'
4 '-x+y, -x, z'
5 '-y, x-y, z'
6 'x, y, z'
loop_
_atom_type_symbol
_atom_type_oxidation_number
Ba2+ 2
Pt4+ 4
Cu2+ 2
Pt4+ 4
Cu2+ 2
Na1+ 1
O2- -2
loop_
_atom_site_label
_atom_site_type_symbol
_atom_site_symmetry_multiplicity
_atom_site_Wyckoff_symbol
_atom_site_fract_x
_atom_site_fract_y
_atom_site_fract_z
_atom_site_B_iso_or_equiv
_atom_site_occupancy
_atom_site_attached_hydrogens
Ba1 Ba2+ 6 g 0.0215(3) 0.6904(3) 0.2447(2) 0.79(3) 1. 0
Ba2 Ba2+ 3 f 0.3283(4) 0 0.5 1.42(5) 1. 0
Ba3 Ba2+ 3 e 0.3551(4) 0 0 1.23(5) 1. 0
Pt1 Pt4+ 2 d 0.3333 0.6667 0.4271(4) 0.68(4) 0.5 0
Cu1 Cu2+ 2 d 0.3333 0.6667 0.4271(4) 0.68(4) 0.5 0
Pt2 Pt4+ 2 d 0.3333 0.6667 0.1020(2) 0.77(3) 1. 0
Pt3 Pt4+ 2 c 0 0 0.3361(3) 0.34(3) 0.75 0
Cu2 Cu2+ 2 c 0 0 0.3361(3) 0.34(3) 0.25 0
Na1 Na1+ 2 d 0.3333 0.6667 0.7810(19) 1.53(18) 1. 0
Na2 Na1+ 1 a 0 0 0 2.03(19) 1. 0
O1 O2- 6 g 0.681(2) 0.176(2) 0.030(2) 1.21(17) 1. 0
O2 O2- 6 g 0.520(2) 0.179(2) 0.731(2) 1.38(17) 1. 0
O3 O2- 6 g 0.336(2) 0.499(2) 0.558(2) 1.28(19) 0.5 0
O4 O2- 3 f 0.155(2) 0.155(2) 0.5 0.68(17) 1. 0
O5 O2- 6 g 0.153(2) 0.004(2) 0.191 1.75(18) 1. 0
#End of TTdata_74828-ICSD