
#(C) 2019 by FIZ Karlsruhe - Leibniz Institute for Information Infrastructure.  All rights reserved.
data_74954-ICSD
_database_code_ICSD 74954
_audit_creation_date 1995-10-17
_audit_update_record 2002-04-01
_chemical_name_systematic 'Sodium tetrahydroxoaluminate chloride'
_chemical_formula_structural 'Na2 (Al (O H)4) Cl'
_chemical_formula_sum 'H4 Al1 Cl1 Na2 O4'
_exptl_crystal_density_diffrn 2.04
_publ_section_title
'Zur Kenntnis des Natrium-tetrahydroxoaluminat-chlorids Na2 (Al (O H)4) Cl'
loop_
_citation_id
_citation_journal_full
_citation_year
_citation_journal_volume
_citation_page_first
_citation_page_last
_citation_journal_id_ASTM
primary 'Zeitschrift fuer Anorganische und Allgemeine Chemie (1950) (DE)' 1994
620 771 776 ZAACAB
loop_
_publ_author_name
'Weinberger, M.'
'Schneider, M.'
'Mueller, D.'
'Gessner, W.'
'Reck, G.'
_cell_length_a 7.541(1)
_cell_length_b 7.541(1)
_cell_length_c 5.059(1)
_cell_angle_alpha 90.
_cell_angle_beta 90.
_cell_angle_gamma 90.
_cell_volume 287.69
_cell_formula_units_Z 2
_symmetry_space_group_name_H-M 'P 4/n m m S'
_symmetry_Int_Tables_number 129
_refine_ls_R_factor_all 0.044
loop_
_symmetry_equiv_pos_site_id
_symmetry_equiv_pos_as_xyz
1 '-y+1/2, -x+1/2, z'
2 'y+1/2, x+1/2, z'
3 '-y, -x, -z'
4 'y, x, -z'
5 'y+1/2, -x+1/2, z'
6 '-y+1/2, x+1/2, z'
7 'y, -x, -z'
8 '-y, x, -z'
9 'x+1/2, -y+1/2, -z'
10 '-x+1/2, y+1/2, -z'
11 'x, -y, z'
12 '-x, y, z'
13 '-x+1/2, -y+1/2, -z'
14 'x+1/2, y+1/2, -z'
15 '-x, -y, z'
16 'x, y, z'
loop_
_atom_type_symbol
_atom_type_oxidation_number
Cl1- -1
Al3+ 3
O2- -2
Na1+ 1
H1+ 1
loop_
_atom_site_label
_atom_site_type_symbol
_atom_site_symmetry_multiplicity
_atom_site_Wyckoff_symbol
_atom_site_fract_x
_atom_site_fract_y
_atom_site_fract_z
_atom_site_B_iso_or_equiv
_atom_site_occupancy
_atom_site_attached_hydrogens
Cl1 Cl1- 2 c 0.5 0 0.7572(3) . 1. 0
Al1 Al3+ 2 a 0 0 0 . 1. 0
O1 O2- 8 i 0.1849(3) 0 0.2111(4) . 1. 0
Na1 Na1+ 4 e 0.25 0.25 0.5 . 1. 0
H1 H1+ 8 i 0.3044 0 0.1539 . 1. 0
loop_
_atom_site_aniso_label
_atom_site_aniso_type_symbol
_atom_site_aniso_U_11
_atom_site_aniso_U_22
_atom_site_aniso_U_33
_atom_site_aniso_U_12
_atom_site_aniso_U_13
_atom_site_aniso_U_23
Cl1 Cl1- 0.0211(5) 0.0211(5) 0.0104(6) 0 0 0
Al1 Al3+ 0.0136(5) 0.0136(5) 0.0035(6) 0 0 0
O1 O2- 0.0162(10) 0.0215(12) 0.0094(8) 0 0.0026(8) 0
Na1 Na1+ 0.0232(7) 0.0232(7) 0.0125(8) 0.0028(7) 0 0.0037(13)
#End of TTdata_74954-ICSD