
#(C) 2019 by FIZ Karlsruhe - Leibniz Institute for Information Infrastructure.  All rights reserved.
data_75135-ICSD
_database_code_ICSD 75135
_audit_creation_date 1995-10-17
_chemical_name_systematic 'Sodium tecto-alumosilicate nitrate(V) nitrate(III) *'
_chemical_formula_structural 'Na7.89 (Al6 Si6 O24) (N O2)0.862 (N O3)1.154'
_chemical_formula_sum 'Al6 N2.016 Na7.89 O29.186 Si6'
_chemical_name_structure_type Sodalite-frame
_exptl_crystal_density_diffrn 2.33
_cell_measurement_temperature 295.
_publ_section_title

;
Orientational disorder and heterogeneous reaction behavior of NO2(-) and
NO3(-) anions inside a sodalite matrix
;
loop_
_citation_id
_citation_journal_full
_citation_year
_citation_journal_volume
_citation_page_first
_citation_page_last
_citation_journal_id_ASTM
primary 'Journal of Solid State Chemistry' 1994 112 243 250 JSSCBI
loop_
_publ_author_name
'Buhl, J.C.'
'Loens, J.'
_cell_length_a 8.958(1)
_cell_length_b 8.958(1)
_cell_length_c 8.958(1)
_cell_angle_alpha 90.
_cell_angle_beta 90.
_cell_angle_gamma 90.
_cell_volume 718.84
_cell_formula_units_Z 1
_symmetry_space_group_name_H-M 'P -4 3 n'
_symmetry_Int_Tables_number 218
_refine_ls_R_factor_all 0.028
loop_
_symmetry_equiv_pos_site_id
_symmetry_equiv_pos_as_xyz
1 '-z+1/2, y+1/2, -x+1/2'
2 '-y+1/2, x+1/2, -z+1/2'
3 '-x+1/2, z+1/2, -y+1/2'
4 'z+1/2, -y+1/2, -x+1/2'
5 'y+1/2, -x+1/2, -z+1/2'
6 'x+1/2, -z+1/2, -y+1/2'
7 '-z+1/2, -y+1/2, x+1/2'
8 '-y+1/2, -x+1/2, z+1/2'
9 '-x+1/2, -z+1/2, y+1/2'
10 'z+1/2, y+1/2, x+1/2'
11 'y+1/2, x+1/2, z+1/2'
12 'x+1/2, z+1/2, y+1/2'
13 '-z, -x, y'
14 '-y, -z, x'
15 '-x, -y, z'
16 'z, -x, -y'
17 'y, -z, -x'
18 'x, -y, -z'
19 '-z, x, -y'
20 '-y, z, -x'
21 '-x, y, -z'
22 'z, x, y'
23 'y, z, x'
24 'x, y, z'
loop_
_atom_type_symbol
_atom_type_oxidation_number
Si4+ 4
Al3+ 3
O2- -2
Na1+ 1
N5+ 5
O2- -2
N3+ 3
O2- -2
loop_
_atom_site_label
_atom_site_type_symbol
_atom_site_symmetry_multiplicity
_atom_site_Wyckoff_symbol
_atom_site_fract_x
_atom_site_fract_y
_atom_site_fract_z
_atom_site_B_iso_or_equiv
_atom_site_occupancy
_atom_site_attached_hydrogens
Si1 Si4+ 6 d 0.25 0 0.5 0.00647(7) 1. 0
Al1 Al3+ 6 c 0.25 0.5 0 0.00666(8) 1. 0
O1 O2- 24 i 0.14101(5) 0.44574(5) 0.1509(1) 0.0123(1) 1. 0
Na1 Na1+ 8 e 0.18229(7) 0.18229(7) 0.18229(7) 0.0259(7) 0.3650(9) 0
Na2 Na1+ 8 e 0.2026(7) 0.2026(7) 0.2026(7) 0.0258(7) 0.1485(6) 0
Na3 Na1+ 8 e 0.1909(5) 0.1909(5) 0.1909(5) 0.0194(6) 0.4729(5) 0
N1 N5+ 24 i 0.4926(10) 0.5174(11) 0.5090(12) 0.131(2) 0.0481(6) 0
O2 O2- 24 i 0.3543(7) 0.4965(12) 0.4757(9) 0.022(1) 0.0481(6) 0
O3 O2- 24 i 0.5571(9) 0.4287(10) 0.6021(9) 0.025(1) 0.0481(6) 0
O4 O2- 24 i 0.5667(11) 0.6243(11) 0.4482(12) 0.093(1) 0.0481(6) 0
N2 N3+ 24 i 0.4943(10) 0.5037(10) 0.4956(13) 0.033(1) 0.0359(7) 0
O5 O2- 24 i 0.3681(10) 0.4581(10) 0.4612(12) 0.025(1) 0.0359(7) 0
O6 O2- 24 i 0.5268(11) 0.6288(10) 0.4458(12) 0.032(2) 0.0359(7) 0
#End of TTdata_75135-ICSD