
#(C) 2019 by FIZ Karlsruhe - Leibniz Institute for Information Infrastructure.  All rights reserved.
data_75131-ICSD
_database_code_ICSD 75131
_audit_creation_date 1995-10-17
_chemical_name_systematic 'Disodium tecto-phosphatovanadate *'
_chemical_formula_structural 'Na2 (P2 V3 O13)'
_chemical_formula_sum 'Na2 O13 P2 V3'
_exptl_crystal_density_diffrn 3.05
_publ_section_title 'Na2V3P2O13: preparation et structure cristalline'
loop_
_citation_id
_citation_journal_full
_citation_year
_citation_journal_volume
_citation_page_first
_citation_page_last
_citation_journal_id_ASTM
primary 'Journal of Solid State Chemistry' 1994 112 218 221 JSSCBI
loop_
_publ_author_name
'Haddad, A.'
'Jouini, T.'
_cell_length_a 10.186(4)
_cell_length_b 11.976(3)
_cell_length_c 8.377(4)
_cell_angle_alpha 90.
_cell_angle_beta 90.
_cell_angle_gamma 90.
_cell_volume 1021.89
_cell_formula_units_Z 4
_symmetry_space_group_name_H-M 'P c c n'
_symmetry_Int_Tables_number 56
_refine_ls_R_factor_all 0.052
loop_
_symmetry_equiv_pos_site_id
_symmetry_equiv_pos_as_xyz
1 'x, -y+1/2, z+1/2'
2 '-x+1/2, y, z+1/2'
3 'x+1/2, y+1/2, -z'
4 '-x, -y, -z'
5 '-x, y+1/2, -z+1/2'
6 'x+1/2, -y, -z+1/2'
7 '-x+1/2, -y+1/2, z'
8 'x, y, z'
loop_
_atom_type_symbol
_atom_type_oxidation_number
V5+ 5
V4+ 4
P5+ 5
Na1+ 1
O2- -2
loop_
_atom_site_label
_atom_site_type_symbol
_atom_site_symmetry_multiplicity
_atom_site_Wyckoff_symbol
_atom_site_fract_x
_atom_site_fract_y
_atom_site_fract_z
_atom_site_B_iso_or_equiv
_atom_site_occupancy
_atom_site_attached_hydrogens
V1 V5+ 8 e 0.4799(1) 0.3469(1) 0.7546(1) . 1. 0
V2 V4+ 4 d 0.25 0.75 0.5610(1) . 1. 0
P1 P5+ 8 e 0.4873(1) 0.1197(1) 0.8711(1) . 1. 0
Na1 Na1+ 8 e 0.2160(2) 0.0438(2) 0.1032(3) . 1. 0
O1 O2- 8 e 0.4380(3) 0.4931(3) 0.3076(4) . 1. 0
O2 O2- 8 e 0.4210(3) 0.1421(3) 0.0322(4) . 1. 0
O3 O2- 8 e 0.3533(3) 0.0884(3) 0.3465(4) . 1. 0
O4 O2- 8 e 0.8628(3) 0.1201(3) 0.3877(4) . 1. 0
O5 O2- 8 e 0.5999(3) 0.1554(3) 0.3925(4) . 1. 0
O6 O2- 4 d 0.75 0.25 0.1301(6) . 1. 0
O7 O2- 8 e 0.0607(3) 0.2063(3) 0.2484(4) . 1. 0
loop_
_atom_site_aniso_label
_atom_site_aniso_type_symbol
_atom_site_aniso_beta_11
_atom_site_aniso_beta_22
_atom_site_aniso_beta_33
_atom_site_aniso_beta_12
_atom_site_aniso_beta_13
_atom_site_aniso_beta_23
V1 V5+ 0.0027(1) 0.0008 0.0028(1) 0.0001(1) 0.0000(1) 0.0002(1)
V2 V4+ 0.0024(1) 0.0010(1) 0.0034(2) 0.0000(1) 0 0
P1 P5+ 0.0028(1) 0.0007(1) 0.0032(2) 0.0000(1) -.0003(1) 0.0001(1)
Na1 Na1+ 0.0043(2) 0.0045(2) 0.0051(3) -.0008(2) 0.0001(2) 0.0007(2)
O1 O2- 0.0037(3) 0.0007(2) 0.0050(5) -.0003(2) -.0003(3) 0.0007(3)
O2 O2- 0.0038(3) 0.0016(2) 0.0034(5) 0.0002(2) -.0005(3) -.0004(3)
O3 O2- 0.0035(4) 0.0023(2) 0.0049(5) -.0006(2) 0.0004(4) 0.0000(3)
O4 O2- 0.0024(3) 0.0012(2) 0.0054(5) 0.0005(2) 0.0005(3) 0.0003(3)
O5 O2- 0.0031(3) 0.0009(2) 0.0049(5) -.0002(2) -.0001(3) -.0002(3)
O6 O2- 0.0053(6) 0.0025(3) 0.0044(7) 0.0012(4) 0 0
O7 O2- 0.0042(4) 0.0012(2) 0.0046(5) 0.0005(2) 0.0005(4) 0.0004(3)
#End of TTdata_75131-ICSD