
#(C) 2019 by FIZ Karlsruhe - Leibniz Institute for Information Infrastructure.  All rights reserved.
data_75159-ICSD
_database_code_ICSD 75159
_audit_creation_date 1995-10-17
_audit_update_record 2010-02-01
_chemical_name_systematic 'Sodium vanadium oxide (1/6/11)'
_chemical_formula_structural 'Na V6 O11'
_chemical_formula_sum 'Na1 O11 V6'
_chemical_name_structure_type NaV6O11
_exptl_crystal_density_diffrn 4.55
_cell_measurement_temperature 200.
_publ_section_title
'Structural phase transitions in the ferromagnetic vanadium oxide Na V6 O11'
loop_
_citation_id
_citation_journal_full
_citation_year
_citation_journal_volume
_citation_page_first
_citation_page_last
_citation_journal_id_ASTM
primary 'Journal of Solid State Chemistry' 1994 112 429 437 JSSCBI
loop_
_publ_author_name
'Kanke, Y.'
'Izumi, F.'
'Morii, Y.'
'Akiba, E.'
'Funahashi, S.'
'Kato, K.'
'Isobe, M.'
'Takayama Muromachi, E.'
'Uchida, Y.'
_cell_length_a 5.7049(2)
_cell_length_b 5.7049(2)
_cell_length_c 13.0796(8)
_cell_angle_alpha 90.
_cell_angle_beta 90.
_cell_angle_gamma 120.
_cell_volume 368.66
_cell_formula_units_Z 2
_symmetry_space_group_name_H-M 'P 63 m c'
_symmetry_Int_Tables_number 186
_refine_ls_R_factor_all 0.022
loop_
_symmetry_equiv_pos_site_id
_symmetry_equiv_pos_as_xyz
1 '-x, -x+y, z+1/2'
2 'x-y, -y, z+1/2'
3 'y, x, z+1/2'
4 'x-y, x, z+1/2'
5 'y, -x+y, z+1/2'
6 '-x, -y, z+1/2'
7 'x, x-y, z'
8 '-x+y, y, z'
9 '-y, -x, z'
10 '-x+y, -x, z'
11 '-y, x-y, z'
12 'x, y, z'
loop_
_atom_type_symbol
_atom_type_oxidation_number
V3+ 3.5
O2- -2
Na1+ 1
loop_
_atom_site_label
_atom_site_type_symbol
_atom_site_symmetry_multiplicity
_atom_site_Wyckoff_symbol
_atom_site_fract_x
_atom_site_fract_y
_atom_site_fract_z
_atom_site_B_iso_or_equiv
_atom_site_occupancy
_atom_site_attached_hydrogens
V1 V3+ 6 c 0.49378(2) 0.98756(4) 0 . 1. 0
V2 V3+ 2 a 0 0 0.14871(4) . 1. 0
V3 V3+ 2 a 0 0 0.35341(4) . 1. 0
V4 V3+ 2 b 0.3333 0.6667 0.74485(5) . 1. 0
O1 O2- 6 c 0.17102(15) 0.34204(30) 0.08319(9) . 1. 0
O2 O2- 6 c 0.16969(11) 0.33938(22) 0.42085(9) . 1. 0
O3 O2- 6 c 0.15282(11) 0.30564(22) 0.74970(12) . 1. 0
O4 O2- 2 b 0.3333 0.6667 0.58907(16) . 1. 0
O5 O2- 2 b 0.3333 0.6667 0.90666(15) . 1. 0
Na1 Na1+ 2 b 0.3333 0.6667 0.2549(2) . 1. 0
loop_
_atom_site_aniso_label
_atom_site_aniso_type_symbol
_atom_site_aniso_U_11
_atom_site_aniso_U_22
_atom_site_aniso_U_33
_atom_site_aniso_U_12
_atom_site_aniso_U_13
_atom_site_aniso_U_23
V1 V3+ 0.00463(3) 0.00463(3) 0.00402(6) 0.00352(4) 0.00054(7) -.00054(7)
V2 V3+ 0.00297(9) 0.00297(9) 0.0054(2) 0.00148(5) 0 0
V3 V3+ 0.00423(9) 0.00423(9) 0.00310(13) 0.00211(5) 0 0
V4 V3+ 0.00301(6) 0.00301(6) 0.00557(10) 0.00150(3) 0 0
O1 O2- 0.0086(2) 0.0086(2) 0.0061(3) 0.0047(3) -.0015(3) 0.0015(3)
O2 O2- 0.00225(14) 0.00225(14) 0.0047(3) 0.0010(2) 0.0010(3) -.0010(3)
O3 O2- 0.0048(2) 0.0048(2) 0.0065(3) -.0040(4) 0.0024(4) -.0024(4)
O4 O2- 0.0058(4) 0.0058(4) 0.0034(5) 0.0029(2) 0 0
O5 O2- 0.0018(3) 0.0018(3) 0.0052(5) 0.0009(2) 0 0
Na1 Na1+ 0.0163(4) 0.0163(4) 0.0395(12) 0.0082(2) 0 0
#End of TTdata_75159-ICSD