
#(C) 2019 by FIZ Karlsruhe - Leibniz Institute for Information Infrastructure.  All rights reserved.
data_75160-ICSD
_database_code_ICSD 75160
_audit_creation_date 1995-10-17
_chemical_name_systematic 'Sodium vanadium oxide (1/6/11)'
_chemical_formula_structural 'Na V6 O11'
_chemical_formula_sum 'Na1 O11 V6'
_exptl_crystal_density_diffrn 4.56
_cell_measurement_temperature 30.
_publ_section_title
'Structural phase transitions in the ferromagnetic vanadium oxide Na V6 O11'
loop_
_citation_id
_citation_journal_full
_citation_year
_citation_journal_volume
_citation_page_first
_citation_page_last
_citation_journal_id_ASTM
primary 'Journal of Solid State Chemistry' 1994 112 429 437 JSSCBI
loop_
_publ_author_name
'Kanke, Y.'
'Izumi, F.'
'Morii, Y.'
'Akiba, E.'
'Funahashi, S.'
'Kato, K.'
'Isobe, M.'
'Takayama Muromachi, E.'
'Uchida, Y.'
_cell_length_a 5.6814(2)
_cell_length_b 9.9040(4)
_cell_length_c 13.0621(5)
_cell_angle_alpha 90.
_cell_angle_beta 90.
_cell_angle_gamma 90.
_cell_volume 734.99
_cell_formula_units_Z 4
_symmetry_space_group_name_H-M 'C m c 21'
_symmetry_Int_Tables_number 36
_refine_ls_R_factor_all 0.035
loop_
_symmetry_equiv_pos_site_id
_symmetry_equiv_pos_as_xyz
1 'x, -y, z+1/2'
2 '-x, -y, z+1/2'
3 '-x, y, z'
4 'x, y, z'
5 'x+1/2, -y+1/2, z+1/2'
6 '-x+1/2, -y+1/2, z+1/2'
7 '-x+1/2, y+1/2, z'
8 'x+1/2, y+1/2, z'
loop_
_atom_type_symbol
_atom_type_oxidation_number
V3+ 3.5
O2- -2
Na1+ 1
loop_
_atom_site_label
_atom_site_type_symbol
_atom_site_symmetry_multiplicity
_atom_site_Wyckoff_symbol
_atom_site_fract_x
_atom_site_fract_y
_atom_site_fract_z
_atom_site_B_iso_or_equiv
_atom_site_occupancy
_atom_site_attached_hydrogens
V1 V3+ 4 a 0 0.508(3) 0.003(4) 0.1 1. 0
V2 V3+ 8 b 0.265(3) 0.254(2) 0 0.1 1. 0
V3 V3+ 4 a 0 -.005(3) 0.147(3) 0.1 1. 0
V4 V3+ 4 a 0 0.000(3) 0.351(3) 0.1 1. 0
V5 V3+ 4 a 0 0.331(2) 0.241(3) 0.1 1. 0
O1 O2- 4 a 0 0.826(4) 0.083(14) 0.10(4) 1. 0
O2 O2- 8 b 0.249(5) 0.088(3) 0.080(14) 0.10(4) 1. 0
O3 O2- 4 a 0 0.830(5) 0.420(14) 0.10(4) 1. 0
O4 O2- 8 b 0.256(4) 0.084(4) 0.420(14) 0.10(4) 1. 0
O5 O2- 4 a 0 0.155(2) 0.256(14) 0.10(4) 1. 0
O6 O2- 8 b 0.230(2) 0.9278(12) 0.248(14) 0.10(4) 1. 0
O7 O2- 4 a 0 0.336(4) 0.093(15) 0.10(4) 1. 0
O8 O2- 4 a 0 0.334(5) 0.406(15) 0.10(4) 1. 0
Na1 Na1+ 4 a 0 0.659(3) 0.260(15) 0.4(5) 1. 0
#End of TTdata_75160-ICSD