
#(C) 2019 by FIZ Karlsruhe - Leibniz Institute for Information Infrastructure.  All rights reserved.
data_75220-ICSD
_database_code_ICSD 75220
_audit_creation_date 1995-10-17
_chemical_name_systematic 'Trisodium vanadium(III) tris(sulfate)'
_chemical_formula_structural 'Na3 V (S O4)3'
_chemical_formula_sum 'Na3 O12 S3 V1'
_chemical_name_structure_type K7Nb(SO4)6
_exptl_crystal_density_diffrn 2.86
_publ_section_title

;
Synthesis and crystal structure of Na3V(SO4)3. Spectroscopic characterization
of Na3V(SO4)3 and NaV(SO4)2
;
loop_
_citation_id
_citation_journal_full
_citation_year
_citation_journal_volume
_citation_page_first
_citation_page_last
_citation_journal_id_ASTM
primary 'Acta Chemica Scandinavica' 1994 48 724 731 ACHSE7
loop_
_publ_author_name
'Boghosian, S.'
'Fehrmann, R.'
'Nielsen, K.'
_cell_length_a 13.439(1)
_cell_length_b 13.439(1)
_cell_length_c 9.091(1)
_cell_angle_alpha 90.
_cell_angle_beta 90.
_cell_angle_gamma 120.
_cell_volume 1421.92
_cell_formula_units_Z 6
_symmetry_space_group_name_H-M 'R -3 H'
_symmetry_Int_Tables_number 148
_refine_ls_R_factor_all 0.027
loop_
_symmetry_equiv_pos_site_id
_symmetry_equiv_pos_as_xyz
1 'x-y, x, -z'
2 'y, -x+y, -z'
3 '-x, -y, -z'
4 '-x+y, -x, z'
5 '-y, x-y, z'
6 'x, y, z'
7 'x-y+2/3, x+1/3, -z+1/3'
8 'y+2/3, -x+y+1/3, -z+1/3'
9 '-x+2/3, -y+1/3, -z+1/3'
10 '-x+y+2/3, -x+1/3, z+1/3'
11 '-y+2/3, x-y+1/3, z+1/3'
12 'x+2/3, y+1/3, z+1/3'
13 'x-y+1/3, x+2/3, -z+2/3'
14 'y+1/3, -x+y+2/3, -z+2/3'
15 '-x+1/3, -y+2/3, -z+2/3'
16 '-x+y+1/3, -x+2/3, z+2/3'
17 '-y+1/3, x-y+2/3, z+2/3'
18 'x+1/3, y+2/3, z+2/3'
loop_
_atom_type_symbol
_atom_type_oxidation_number
V3+ 3
S6+ 6
Na1+ 1
O2- -2
loop_
_atom_site_label
_atom_site_type_symbol
_atom_site_symmetry_multiplicity
_atom_site_Wyckoff_symbol
_atom_site_fract_x
_atom_site_fract_y
_atom_site_fract_z
_atom_site_B_iso_or_equiv
_atom_site_occupancy
_atom_site_attached_hydrogens
V1 V3+ 3 a 0 0 0 0.0092 1. 0
V2 V3+ 3 b 0 0 0.5 0.008 1. 0
S1 S6+ 18 f -.0251(1) 0.1623(1) 0.2599(1) 0.0095 1. 0
Na1 Na1+ 18 f 0.7443(1) 0.1079(1) 0.4914(1) 0.0273 1. 0
O1 O2- 18 f 0.0338(1) 0.1366(1) 0.3801(1) 0.0208 1. 0
O2 O2- 18 f 0.8520(1) 0.1016(1) 0.2802(1) 0.0207 1. 0
O3 O2- 18 f 0.0284(1) 0.2871(1) 0.2573(1) 0.0188 1. 0
O4 O2- 18 f 0.0070(1) 0.1291(1) 0.1182(1) 0.0234 1. 0
#End of TTdata_75220-ICSD