
#(C) 2019 by FIZ Karlsruhe - Leibniz Institute for Information Infrastructure.  All rights reserved.
data_75380-ICSD
_database_code_ICSD 75380
_audit_creation_date 1996-04-22
_chemical_name_systematic 'Sodium manganese zirconium fluoride (5/1/2/15)'
_chemical_formula_structural 'Na5 Mn Zr2 F15'
_chemical_formula_sum 'F15 Mn1 Na5 Zr2'
_exptl_crystal_density_diffrn 3.5
_cell_measurement_temperature 292.
_publ_section_title 'Crystal structure of Na5 Mn Zr2 F15'
loop_
_citation_id
_citation_journal_full
_citation_year
_citation_journal_volume
_citation_page_first
_citation_page_last
_citation_journal_id_ASTM
primary 'European Journal of Solid State and Inorganic Chemistry' 1994 31 137
149 EJSCE5
loop_
_publ_author_name
'Kettani, M.H.'
'Avignant, D.'
'Metin, J.'
_cell_length_a 21.127(3)
_cell_length_b 7.665(1)
_cell_length_c 7.478(1)
_cell_angle_alpha 90.
_cell_angle_beta 90.
_cell_angle_gamma 90.
_cell_volume 1210.98
_cell_formula_units_Z 4
_symmetry_space_group_name_H-M 'C m c m'
_symmetry_Int_Tables_number 63
_refine_ls_R_factor_all 0.031
loop_
_symmetry_equiv_pos_site_id
_symmetry_equiv_pos_as_xyz
1 '-x, y, -z+1/2'
2 '-x, -y, z+1/2'
3 '-x, y, z'
4 '-x, -y, -z'
5 'x, -y, z+1/2'
6 'x, y, -z+1/2'
7 'x, -y, -z'
8 'x, y, z'
9 '-x+1/2, y+1/2, -z+1/2'
10 '-x+1/2, -y+1/2, z+1/2'
11 '-x+1/2, y+1/2, z'
12 '-x+1/2, -y+1/2, -z'
13 'x+1/2, -y+1/2, z+1/2'
14 'x+1/2, y+1/2, -z+1/2'
15 'x+1/2, -y+1/2, -z'
16 'x+1/2, y+1/2, z'
loop_
_atom_type_symbol
_atom_type_oxidation_number
Zr4+ 4
Mn2+ 2
Na1+ 1
F1- -1
loop_
_atom_site_label
_atom_site_type_symbol
_atom_site_symmetry_multiplicity
_atom_site_Wyckoff_symbol
_atom_site_fract_x
_atom_site_fract_y
_atom_site_fract_z
_atom_site_B_iso_or_equiv
_atom_site_occupancy
_atom_site_attached_hydrogens
Zr1 Zr4+ 8 g 0.13442(2) 0.27893(5) 0.75 . 1. 0
Mn1 Mn2+ 4 a 0 0 0 . 1. 0
Na1 Na1+ 8 e 0.24181(7) 0 0 . 1. 0
Na2 Na1+ 8 g 0.3775(1) 0.2539(2) 0.75 . 1. 0
Na3 Na1+ 4 b 0 0.5 0 . 1. 0
F1 F1- 8 g 0.3058(1) 0.0138(4) 0.25 . 1. 0
F2 F1- 16 h 0.18302(9) 0.2612(3) 0.5161(3) . 1. 0
F3 F1- 8 g 0.0740(1) 0.5102(4) 0.25 . 1. 0
F4 F1- 8 g 0.3372(2) 0.4749(4) 0.25 . 1. 0
F5 F1- 4 c 0 0.1119(6) 0.25 . 1. 0
F6 F1- 16 h 0.43349(9) 0.2998(3) 0.0653(3) . 1. 0
loop_
_atom_site_aniso_label
_atom_site_aniso_type_symbol
_atom_site_aniso_U_11
_atom_site_aniso_U_22
_atom_site_aniso_U_33
_atom_site_aniso_U_12
_atom_site_aniso_U_13
_atom_site_aniso_U_23
Zr1 Zr4+ 0.0109(1) 0.0091(1) 0.0126(1) -.0009(1) 0 0
Mn1 Mn2+ 0.0111(2) 0.0126(2) 0.0117(3) 0 0 0.0012(2)
Na1 Na1+ 0.0158(6) 0.0141(6) 0.0165(6) 0 0 -.0004(5)
Na2 Na1+ 0.0345(9) 0.0161(7) 0.0237(8) 0.0062(7) 0 0
Na3 Na1+ 0.020(1) 0.086(3) 0.035(2) 0 0 -.003(2)
F1 F1- 0.029(1) 0.023(1) 0.022(1) -.014(1) 0 0
F2 F1- 0.0276(7) 0.0243(8) 0.0180(7) -.0025(7) 0.0072(7) -.0019(7)
F3 F1- 0.022(1) 0.015(1) 0.053(2) -.002(1) 0 0
F4 F1- 0.043(2) 0.012(1) 0.026(1) 0.003(1) 0 0
F5 F1- 0.072(3) 0.025(2) 0.011(1) 0 0 0
F6 F1- 0.0224(7) 0.038(1) 0.035(1) -.0097(8) 0.0098(7) 0.0091(9)
#End of TTdata_75380-ICSD