
#(C) 2019 by FIZ Karlsruhe - Leibniz Institute for Information Infrastructure.  All rights reserved.
data_75589-ICSD
_database_code_ICSD 75589
_audit_creation_date 1996-04-22
_audit_update_record 2011-02-01
_chemical_name_systematic 'Sodium iron oxide (0.5/1/2)'
_chemical_formula_structural 'Na0.5 Fe O2'
_chemical_formula_sum 'Fe1 Na0.5 O2'
_chemical_name_structure_type Na.5FeO2
_exptl_crystal_density_diffrn 3.88
_publ_section_title 'Sodium deintercalation from sodium iron oxide'
loop_
_citation_id
_citation_journal_full
_citation_year
_citation_journal_volume
_citation_page_first
_citation_page_last
_citation_journal_id_ASTM
primary 'Materials Research Bulletin' 1994 29 659 666 MRBUAC
loop_
_publ_author_name
'Takeda, Y.'
'Nakahara, K.'
'Nishijima, M.'
'Imanishi, N.'
'Yamamoto, O.'
'Takano, M.'
_cell_length_a 5.2603(6)
_cell_length_b 2.8965(2)
_cell_length_c 5.9062(6)
_cell_angle_alpha 90.
_cell_angle_beta 108.919(7)
_cell_angle_gamma 90.
_cell_volume 85.13
_cell_formula_units_Z 2
_symmetry_space_group_name_H-M 'C 1 2/m 1'
_symmetry_Int_Tables_number 12
_refine_ls_R_factor_all 0.028
loop_
_symmetry_equiv_pos_site_id
_symmetry_equiv_pos_as_xyz
1 '-x, y, -z'
2 '-x, -y, -z'
3 'x, -y, z'
4 'x, y, z'
5 '-x+1/2, y+1/2, -z'
6 '-x+1/2, -y+1/2, -z'
7 'x+1/2, -y+1/2, z'
8 'x+1/2, y+1/2, z'
loop_
_atom_type_symbol
_atom_type_oxidation_number
Na1+ 1
Fe3+ 3.5
O2- -2
loop_
_atom_site_label
_atom_site_type_symbol
_atom_site_symmetry_multiplicity
_atom_site_Wyckoff_symbol
_atom_site_fract_x
_atom_site_fract_y
_atom_site_fract_z
_atom_site_B_iso_or_equiv
_atom_site_occupancy
_atom_site_attached_hydrogens
Na1 Na1+ 2 d 0 0.5 0.5 0.5 0.5 0
Fe1 Fe3+ 2 a 0 0 0 0.5 1. 0
O1 O2- 4 i 0.278(9) 0 0.822(6) 0.5 1. 0
#End of TTdata_75589-ICSD