
#(C) 2019 by FIZ Karlsruhe - Leibniz Institute for Information Infrastructure.  All rights reserved.
data_77053-ICSD
_database_code_ICSD 77053
_audit_creation_date 2001-07-16
_audit_update_record 2015-08-01
_chemical_name_systematic 'Trisodium iron phosphate(V) carbonate'
_chemical_formula_structural 'Na3 Fe (P O4) (C O3)'
_chemical_formula_sum 'C1 Fe1 Na3 O7 P1'
_chemical_name_structure_type Na3MnPO4CO3
_chemical_name_mineral Bonshtedtite
_exptl_crystal_density_diffrn 3.04
_publ_section_title
'Crystal chemical characteristics of bradleyite, sidorenkite and bonshtedtite'
loop_
_citation_id
_citation_journal_full
_citation_year
_citation_journal_volume
_citation_page_first
_citation_page_last
_citation_journal_id_ASTM
primary 'Mineralogicheskii Zhurnal ' 1984 6 79 84 MINZDR
loop_
_publ_author_name
'Tjy, C.T.L.'
'Nadezhina, T.N.'
'Pobedimskaya, E.A.'
'Khomyakov, A.P.'
_cell_length_a 8.955(7)
_cell_length_b 5.149(3)
_cell_length_c 6.629(2)
_cell_angle_alpha 90.
_cell_angle_beta 90.
_cell_angle_gamma 90.45(3)
_cell_volume 305.65
_cell_formula_units_Z 2
_symmetry_space_group_name_H-M 'P 1 1 21/m'
_symmetry_Int_Tables_number 11
loop_
_symmetry_equiv_pos_site_id
_symmetry_equiv_pos_as_xyz
1 'x, y, -z+1/2'
2 '-x, -y, -z'
3 '-x, -y, z+1/2'
4 'x, y, z'
loop_
_atom_type_symbol
_atom_type_oxidation_number
Fe2+ 2
Na1+ 1
P5+ 5
C4+ 4
O2- -2
loop_
_atom_site_label
_atom_site_type_symbol
_atom_site_symmetry_multiplicity
_atom_site_Wyckoff_symbol
_atom_site_fract_x
_atom_site_fract_y
_atom_site_fract_z
_atom_site_B_iso_or_equiv
_atom_site_occupancy
_atom_site_attached_hydrogens
Fe1 Fe2+ 2 e 0.6447(1) 0.2217(1) 0.25 0.80(1) 1. 0
Na1 Na1+ 4 f 0.2633(2) 0.2497(3) 0.0032(2) 1.26(2) 1. 0
Na2 Na1+ 2 e 0.9177(3) 0.2346(4) 0.75 1.66(3) 1. 0
P1 P5+ 2 e 0.5859(1) 0.2967(2) 0.75 0.55(1) 1. 0
C1 C4+ 2 e 0.9392(4) 0.2696(7) 0.25 0.75(4) 1. 0
O1 O2- 2 e 0.8741(4) 0.0478(6) 0.25 1.08(4) 1. 0
O2 O2- 2 e 0.8572(4) 0.4753(6) 0.25 1.19(4) 1. 0
O3 O2- 2 e 0.0808(4) 0.2850(7) 0.25 1.41(5) 1. 0
O4 O2- 4 f 0.6805(4) 0.2209(4) 0.563 1.07(3) 1. 0
O5 O2- 2 e 0.4343(3) 0.1630(6) 0.75 0.89(4) 1. 0
O6 O2- 2 e 0.4390(3) 0.4065(6) 0.25 0.95(4) 1. 0
#End of TTdata_77053-ICSD