
#(C) 2019 by FIZ Karlsruhe - Leibniz Institute for Information Infrastructure.  All rights reserved.
data_77140-ICSD
_database_code_ICSD 77140
_audit_creation_date 2003-04-01
_chemical_name_systematic 'Sodium dibismuth gold(III) oxide'
_chemical_formula_structural 'Na Bi2 Au O5'
_chemical_formula_sum 'Au1 Bi2 Na1 O5'
_exptl_crystal_density_diffrn 8.29
_publ_section_title 'Darstellung und Kristallstruktur von N Bi2 Au O5'
loop_
_citation_id
_citation_journal_full
_citation_year
_citation_journal_volume
_citation_page_first
_citation_page_last
_citation_journal_id_ASTM
primary 'Zeitschrift fuer Anorganische und Allgemeine Chemie (1950) (DE)' 1994
620 48 52 ZAACAB
loop_
_publ_author_name
'Geb, J.'
'Jansen, M.'
_cell_length_a 12.2002(6)
_cell_length_b 12.2002
_cell_length_c 3.8668(3)
_cell_angle_alpha 90.
_cell_angle_beta 90.
_cell_angle_gamma 90.
_cell_volume 575.55
_cell_formula_units_Z 4
_symmetry_space_group_name_H-M 'P -4 b 2'
_symmetry_Int_Tables_number 117
_refine_ls_R_factor_all 0.027
loop_
_symmetry_equiv_pos_site_id
_symmetry_equiv_pos_as_xyz
1 '-y+1/2, -x+1/2, -z'
2 'y, -x, -z'
3 'y+1/2, x+1/2, -z'
4 '-y, x, -z'
5 'x+1/2, -y+1/2, z'
6 '-x, -y, z'
7 '-x+1/2, y+1/2, z'
8 'x, y, z'
loop_
_atom_type_symbol
_atom_type_oxidation_number
Bi3+ 3
Au3+ 3
Na1+ 1
O2- -2
loop_
_atom_site_label
_atom_site_type_symbol
_atom_site_symmetry_multiplicity
_atom_site_Wyckoff_symbol
_atom_site_fract_x
_atom_site_fract_y
_atom_site_fract_z
_atom_site_B_iso_or_equiv
_atom_site_occupancy
_atom_site_attached_hydrogens
Bi1 Bi3+ 8 i 0.05019(2) 0.22945(2) 0.99838(6) . 1. 0
Au1 Au3+ 2 d 0 0.5 0.5 . 1. 0
Au2 Au3+ 2 b 0.5 0.5 0.5 . 1. 0
Na1 Na1+ 4 h 0.2027(3) 0.7027(3) 0.5 . 1. 0
O1 O2- 8 i 0.1092(6) 0.1175(6) 0.5977(21) . 1. 0
O2 O2- 8 i 0.0078(6) 0.6667(6) 0.3923(20) . 1. 0
O3 O2- 4 g 0.2862(5) 0.7862(5) 0 . 1. 0
loop_
_atom_site_aniso_label
_atom_site_aniso_type_symbol
_atom_site_aniso_U_11
_atom_site_aniso_U_22
_atom_site_aniso_U_33
_atom_site_aniso_U_12
_atom_site_aniso_U_13
_atom_site_aniso_U_23
Bi1 Bi3+ 0.0090(1) 0.0074(1) 0.0099(2) 0.0002(1) 0.0049(1) 0.0013(1)
Au1 Au3+ 0.0048(1) 0.0048(1) 0.0055(2) 0 0 0
Au2 Au3+ 0.0049(1) 0.0049(1) 0.0076(3) 0 0 0
Na1 Na1+ 0.0140(13) 0.0140(13) 0.0134(22) -0.0025(13) -0.0010(17) -0.0010(17)
O1 O2- 0.0099(25) 0.0111(26) 0.0310(38) -0.0031(20) 0.0008(28) -0.0038(28)
O2 O2- 0.0182(28) 0.0075(24) 0.0229(34) -0.0024(24) -0.0031(27) -0.0005(25)
O3 O2- 0.0082(18) 0.0082(18) 0.0239(35) -0.0005(18) -0.0093(26) -0.0093(26)
#End of TTdata_77140-ICSD