
#(C) 2019 by FIZ Karlsruhe - Leibniz Institute for Information Infrastructure.  All rights reserved.
data_77425-ICSD
_database_code_ICSD 77425
_audit_creation_date 2003-04-01
_chemical_name_systematic 'Sodium tecto-alumotrisilicate'
_chemical_formula_structural 'Na (Al Si3 O8)'
_chemical_formula_sum 'Al1 Na1 O8 Si3'
_chemical_name_structure_type Feldspar#-(TC)-Albite-NaAlSi3O8
_chemical_name_mineral 'Albite low'
_exptl_crystal_density_diffrn 2.78
_cell_measurement_pressure 3780000.
_publ_section_title

;
The high-pressure crystal chemistry of low albite and the origin of the
pressure dependency of Al-Si ordering
;
loop_
_citation_id
_citation_journal_full
_citation_year
_citation_journal_volume
_citation_page_first
_citation_page_last
_citation_journal_id_ASTM
primary 'American Mineralogist' 1994 79 1042 1052 AMMIAY
loop_
_publ_author_name
'Downs, R.T.'
'Hazen, R.M.'
'Finger, L.W.'
_cell_length_a 7.8925(17)
_cell_length_b 12.6400(15)
_cell_length_c 7.0667(39)
_cell_angle_alpha 94.177(29)
_cell_angle_beta 117.074(21)
_cell_angle_gamma 88.128(19)
_cell_volume 626.06
_cell_formula_units_Z 4
_symmetry_space_group_name_H-M 'C -1'
_symmetry_Int_Tables_number 2
_refine_ls_R_factor_all 0.067
loop_
_symmetry_equiv_pos_site_id
_symmetry_equiv_pos_as_xyz
1 '-x, -y, -z'
2 'x, y, z'
3 '-x+1/2, -y+1/2, -z'
4 'x+1/2, y+1/2, z'
loop_
_atom_type_symbol
_atom_type_oxidation_number
Al3+ 3
Si4+ 4
Na1+ 1
O2- -2
loop_
_atom_site_label
_atom_site_type_symbol
_atom_site_symmetry_multiplicity
_atom_site_Wyckoff_symbol
_atom_site_fract_x
_atom_site_fract_y
_atom_site_fract_z
_atom_site_B_iso_or_equiv
_atom_site_occupancy
_atom_site_attached_hydrogens
Al1 Al3+ 4 i 0.0041(6) 0.1657(2) 0.2056(13) 0.62(5) 1. 0
Si2 Si4+ 4 i -.0030(6) 0.8204(2) 0.2351(13) 0.60(5) 1. 0
Si3 Si4+ 4 i 0.6845(7) 0.1071(2) 0.3074(14) 0.57(5) 1. 0
Si4 Si4+ 4 i 0.6657(8) 0.8792(2) 0.3555(17) 0.53(5) 1. 0
Na1 Na1+ 4 i 0.2596(9) 0.9940(3) 0.1462(20) 2.4(6) 1. 0
O1 O2- 4 i 0.0093(16) 0.1274(5) 0.9684(33) 0.85(12) 1. 0
O2 O2- 4 i 0.5778(13) 0.9960(4) 0.2805(24) 0.46(10) 1. 0
O3 O2- 4 i 0.8079(14) 0.0995(5) 0.1853(28) 1.04(12) 1. 0
O4 O2- 4 i 0.8054(14) 0.8484(5) 0.2507(30) 1.31(12) 1. 0
O5 O2- 4 i -.0066(13) 0.2992(5) 0.2704(28) 0.85(11) 1. 0
O6 O2- 4 i 0.0167(14) 0.6933(5) 0.2222(28) 0.87(11) 1. 0
O7 O2- 4 i 0.2124(20) 0.1118(5) 0.3877(41) 1.08(16) 1. 0
O8 O2- 4 i 0.1770(20) 0.8694(5) 0.4341(42) 1.34(13) 1. 0
loop_
_atom_site_aniso_label
_atom_site_aniso_type_symbol
_atom_site_aniso_U_11
_atom_site_aniso_U_22
_atom_site_aniso_U_33
_atom_site_aniso_U_12
_atom_site_aniso_U_13
_atom_site_aniso_U_23
Na1 Na1+ 0.0058(24) 0.0047(3) 0.019(13) -.0007(6) 0.0056(57) -.0056(13)
#End of TTdata_77425-ICSD