
#(C) 2019 by FIZ Karlsruhe - Leibniz Institute for Information Infrastructure.  All rights reserved.
data_77424-ICSD
_database_code_ICSD 77424
_audit_creation_date 2003-04-01
_chemical_name_systematic 'Sodium tecto-alumotrisilicate'
_chemical_formula_structural 'Na (Al Si3 O8)'
_chemical_formula_sum 'Al1 Na1 O8 Si3'
_chemical_name_structure_type Feldspar#-(TC)-Albite-NaAlSi3O8
_chemical_name_mineral 'Albite low'
_exptl_crystal_density_diffrn 2.74
_cell_measurement_pressure 2680000.
_publ_section_title

;
The high-pressure crystal chemistry of low albite and the origin of the
pressure dependency of Al-Si ordering
;
loop_
_citation_id
_citation_journal_full
_citation_year
_citation_journal_volume
_citation_page_first
_citation_page_last
_citation_journal_id_ASTM
primary 'American Mineralogist' 1994 79 1042 1052 AMMIAY
loop_
_publ_author_name
'Downs, R.T.'
'Hazen, R.M.'
'Finger, L.W.'
_cell_length_a 7.9567(21)
_cell_length_b 12.6784(10)
_cell_length_c 7.0897(37)
_cell_angle_alpha 94.217(21)
_cell_angle_beta 116.992(24)
_cell_angle_gamma 88.025(15)
_cell_volume 635.56
_cell_formula_units_Z 4
_symmetry_space_group_name_H-M 'C -1'
_symmetry_Int_Tables_number 2
_refine_ls_R_factor_all 0.065
loop_
_symmetry_equiv_pos_site_id
_symmetry_equiv_pos_as_xyz
1 '-x, -y, -z'
2 'x, y, z'
3 '-x+1/2, -y+1/2, -z'
4 'x+1/2, y+1/2, z'
loop_
_atom_type_symbol
_atom_type_oxidation_number
Al3+ 3
Si4+ 4
Na1+ 1
O2- -2
loop_
_atom_site_label
_atom_site_type_symbol
_atom_site_symmetry_multiplicity
_atom_site_Wyckoff_symbol
_atom_site_fract_x
_atom_site_fract_y
_atom_site_fract_z
_atom_site_B_iso_or_equiv
_atom_site_occupancy
_atom_site_attached_hydrogens
Al1 Al3+ 4 i 0.0058(6) 0.1664(2) 0.2065(13) 0.60(5) 1. 0
Si2 Si4+ 4 i -.0003(6) 0.8206(2) 0.2361(13) 0.54(5) 1. 0
Si3 Si4+ 4 i 0.6873(8) 0.1085(2) 0.3114(16) 0.49(5) 1. 0
Si4 Si4+ 4 i 0.6716(9) 0.8802(2) 0.3599(20) 0.48(5) 1. 0
Na1 Na1+ 4 i 0.2587(9) 0.9930(4) 0.1392(21) 3.8(7) 1. 0
O1 O2- 4 i 0.0073(15) 0.1292(5) 0.9674(32) 0.90(12) 1. 0
O2 O2- 4 i 0.5810(12) 0.9964(4) 0.2824(26) 0.68(11) 1. 0
O3 O2- 4 i 0.8079(14) 0.1020(5) 0.1840(30) 0.99(12) 1. 0
O4 O2- 4 i 0.8116(14) 0.8492(5) 0.2550(30) 1.27(13) 1. 0
O5 O2- 4 i -.0007(14) 0.3002(5) 0.2722(31) 0.88(11) 1. 0
O6 O2- 4 i 0.0193(14) 0.6935(4) 0.2240(30) 0.78(11) 1. 0
O7 O2- 4 i 0.2114(23) 0.1103(5) 0.3863(47) 1.32(18) 1. 0
O8 O2- 4 i 0.1782(22) 0.8681(6) 0.4291(44) 1.59(15) 1. 0
loop_
_atom_site_aniso_label
_atom_site_aniso_type_symbol
_atom_site_aniso_U_11
_atom_site_aniso_U_22
_atom_site_aniso_U_33
_atom_site_aniso_U_12
_atom_site_aniso_U_13
_atom_site_aniso_U_23
Na1 Na1+ 0.0104(24) 0.0048(3) 0.043(14) -.0001(6) 0.0160(59) -.0044(14)
#End of TTdata_77424-ICSD