
#(C) 2019 by FIZ Karlsruhe - Leibniz Institute for Information Infrastructure.  All rights reserved.
data_78011-ICSD
_database_code_ICSD 78011
_audit_creation_date 1995-10-17
_audit_update_record 1999-11-30
_chemical_name_systematic 'Sodium antimonate'
_chemical_formula_structural 'Na (Sb O3)'
_chemical_formula_sum 'Na1 O3 Sb1'
_chemical_name_structure_type FePSe3
_exptl_crystal_density_diffrn 4.98
_cell_measurement_temperature 293.
_publ_section_title

;
The crystal structure and ionic conductivity of the ilmenite polymorph of Na
Sb O3
;
loop_
_citation_id
_citation_journal_full
_citation_year
_citation_journal_volume
_citation_page_first
_citation_page_last
_citation_journal_id_ASTM
primary 'Journal of Solid State Chemistry' 1994 108 184 188 JSSCBI
loop_
_publ_author_name
'Wang, B.'
'Chen, S.C.'
'Greenblatt, M.'
_cell_length_a 5.2901(3)
_cell_length_b 5.2901(3)
_cell_length_c 15.926(2)
_cell_angle_alpha 90.
_cell_angle_beta 90.
_cell_angle_gamma 120.
_cell_volume 385.98
_cell_formula_units_Z 6
_symmetry_space_group_name_H-M 'R -3 H'
_symmetry_Int_Tables_number 148
_refine_ls_R_factor_all 0.025
loop_
_symmetry_equiv_pos_site_id
_symmetry_equiv_pos_as_xyz
1 'x-y, x, -z'
2 'y, -x+y, -z'
3 '-x, -y, -z'
4 '-x+y, -x, z'
5 '-y, x-y, z'
6 'x, y, z'
7 'x-y+2/3, x+1/3, -z+1/3'
8 'y+2/3, -x+y+1/3, -z+1/3'
9 '-x+2/3, -y+1/3, -z+1/3'
10 '-x+y+2/3, -x+1/3, z+1/3'
11 '-y+2/3, x-y+1/3, z+1/3'
12 'x+2/3, y+1/3, z+1/3'
13 'x-y+1/3, x+2/3, -z+2/3'
14 'y+1/3, -x+y+2/3, -z+2/3'
15 '-x+1/3, -y+2/3, -z+2/3'
16 '-x+y+1/3, -x+2/3, z+2/3'
17 '-y+1/3, x-y+2/3, z+2/3'
18 'x+1/3, y+2/3, z+2/3'
loop_
_atom_type_symbol
_atom_type_oxidation_number
Sb5+ 5
Na1+ 1
O2- -2
loop_
_atom_site_label
_atom_site_type_symbol
_atom_site_symmetry_multiplicity
_atom_site_Wyckoff_symbol
_atom_site_fract_x
_atom_site_fract_y
_atom_site_fract_z
_atom_site_B_iso_or_equiv
_atom_site_occupancy
_atom_site_attached_hydrogens
Sb1 Sb5+ 6 c 0 0 0.16096(3) . 1. 0
Na1 Na1+ 6 c 0 0 0.3605(3) . 1. 0
O1 O2- 18 f 0.3444(6) 0.2878(8) 0.0963(2) . 1. 0
loop_
_atom_site_aniso_label
_atom_site_aniso_type_symbol
_atom_site_aniso_U_11
_atom_site_aniso_U_22
_atom_site_aniso_U_33
_atom_site_aniso_U_12
_atom_site_aniso_U_13
_atom_site_aniso_U_23
Sb1 Sb5+ 0.0057(1) 0.0057(1) 0.0060(2) 0.00285 0 0
Na1 Na1+ 0.0136(9) 0.0136(9) 0.011(1) 0.0068 0 0
O1 O2- 0.009(1) 0.0100(9) 0.010(1) 0.0047(6) 0.000(1) 0.002(1)
#End of TTdata_78011-ICSD