
#(C) 2018 by FIZ Karlsruhe - Leibniz Institute for Information Infrastructure.  All rights reserved.
data_78159-ICSD
_database_code_ICSD 78159
_audit_creation_date 1995-10-17
_chemical_name_systematic 'Trilithium arsenate - gamma'
_chemical_formula_structural 'Li3 (As O4)'
_chemical_formula_sum 'As1 Li3 O4'
_exptl_crystal_density_diffrn 2.97
_cell_measurement_temperature 1043.
_publ_section_title
'Structure of gamma-Li3AsO4 by high temperature powder neutron diffraction'
loop_
_citation_id
_citation_journal_full
_citation_year
_citation_journal_volume
_citation_page_first
_citation_page_last
_citation_journal_id_ASTM
primary 'Journal of Solid State Chemistry' 1994 110 243 249 JSSCBI
loop_
_publ_author_name
'Abrahams, I.'
'Bruce, P.G.'
'David, W.I.F.'
'West, A.R.'
_cell_length_a 10.9076(2)
_cell_length_b 6.3694(1)
_cell_length_c 5.1488(1)
_cell_angle_alpha 90.
_cell_angle_beta 90.
_cell_angle_gamma 90.
_cell_volume 357.71
_cell_formula_units_Z 4
_symmetry_space_group_name_H-M 'P n m a'
_symmetry_Int_Tables_number 62
_refine_ls_R_factor_all 0.0478
loop_
_symmetry_equiv_pos_site_id
_symmetry_equiv_pos_as_xyz
1 'x+1/2, y, -z+1/2'
2 'x, -y+1/2, z'
3 '-x+1/2, y+1/2, z+1/2'
4 '-x, -y, -z'
5 '-x+1/2, -y, z+1/2'
6 '-x, y+1/2, -z'
7 'x+1/2, -y+1/2, -z+1/2'
8 'x, y, z'
loop_
_atom_type_symbol
_atom_type_oxidation_number
As5+ 5
O2- -2
Li1+ 1
loop_
_atom_site_label
_atom_site_type_symbol
_atom_site_symmetry_multiplicity
_atom_site_Wyckoff_symbol
_atom_site_fract_x
_atom_site_fract_y
_atom_site_fract_z
_atom_site_B_iso_or_equiv
_atom_site_occupancy
_atom_site_attached_hydrogens
As1 As5+ 4 c 0.4134(2) 0.25 0.3137(4) . 1. 0
O1 O2- 8 d 0.3396(2) 0.0326(3) 0.2212(4) . 1. 0
O2 O2- 4 c 0.0562(2) 0.25 0.2914(7) . 1. 0
O3 O2- 4 c 0.0887(3) 0.75 0.1438(5) . 1. 0
Li1 Li1+ 4 c 0.424(3) 0.75 0.156(14) 2.5(2) 0.40(9) 0
Li2 Li1+ 4 c 0.418(2) 0.75 0.245(9) 2.5(2) 0.60(9) 0
Li3 Li1+ 8 d 0.1645(6) 0.5056(8) 0.297(1) . 0.98(3) 0
loop_
_atom_site_aniso_label
_atom_site_aniso_type_symbol
_atom_site_aniso_B_11
_atom_site_aniso_B_22
_atom_site_aniso_B_33
_atom_site_aniso_B_12
_atom_site_aniso_B_13
_atom_site_aniso_B_23
As1 As5+ 1.44(9) 1.98(10) 1.49(12) 0 0.40(9) 0
O1 O2- 2.38(7) 2.18(8) 4.1(1) -.52(7) -.44(9) -.77(8)
O2 O2- 1.90(11) 2.93(11) 3.67(16) 0 -1.66(12) 0
O3 O2- 2.60(12) 3.15(12) 1.62(14) 0 0.17(10) 0
Li3 Li1+ 1.1(3) 1.05(30) 2.28(37) -.64(20) -1.37(25) 2.23(22)
#End of TTdata_78159-ICSD