
#(C) 2019 by FIZ Karlsruhe - Leibniz Institute for Information Infrastructure.  All rights reserved.
data_78416-ICSD
_database_code_ICSD 78416
_audit_creation_date 1996-04-22
_audit_update_record 2015-02-01
_chemical_name_systematic 'Sodium antimonate'
_chemical_formula_structural 'Na (Sb O3)'
_chemical_formula_sum 'Na1 O3 Sb1'
_chemical_name_structure_type FePSe3
_chemical_name_mineral Brizziite
_exptl_crystal_density_diffrn 4.95
_publ_section_title

;
Brizziite, Na Sb O3, a new mineral from the Cetine mine (Tuscany, Italy):
description and crystal structure
;
loop_
_citation_id
_citation_journal_full
_citation_year
_citation_journal_volume
_citation_page_first
_citation_page_last
_citation_journal_id_ASTM
primary 'European Journal of Mineralogy' 1994 6 667 672 EJMIER
loop_
_publ_author_name
'Olmi, F.'
'Sabelli, C.'
_cell_length_a 5.301(1)
_cell_length_b 5.301(1)
_cell_length_c 15.932(4)
_cell_angle_alpha 90.
_cell_angle_beta 90.
_cell_angle_gamma 120.
_cell_volume 387.72
_cell_formula_units_Z 6
_symmetry_space_group_name_H-M 'R -3 H'
_symmetry_Int_Tables_number 148
_refine_ls_R_factor_all 0.025
loop_
_symmetry_equiv_pos_site_id
_symmetry_equiv_pos_as_xyz
1 'x-y, x, -z'
2 'y, -x+y, -z'
3 '-x, -y, -z'
4 '-x+y, -x, z'
5 '-y, x-y, z'
6 'x, y, z'
7 'x-y+2/3, x+1/3, -z+1/3'
8 'y+2/3, -x+y+1/3, -z+1/3'
9 '-x+2/3, -y+1/3, -z+1/3'
10 '-x+y+2/3, -x+1/3, z+1/3'
11 '-y+2/3, x-y+1/3, z+1/3'
12 'x+2/3, y+1/3, z+1/3'
13 'x-y+1/3, x+2/3, -z+2/3'
14 'y+1/3, -x+y+2/3, -z+2/3'
15 '-x+1/3, -y+2/3, -z+2/3'
16 '-x+y+1/3, -x+2/3, z+2/3'
17 '-y+1/3, x-y+2/3, z+2/3'
18 'x+1/3, y+2/3, z+2/3'
loop_
_atom_type_symbol
_atom_type_oxidation_number
Na1+ 1
Sb5+ 5
O2- -2
loop_
_atom_site_label
_atom_site_type_symbol
_atom_site_symmetry_multiplicity
_atom_site_Wyckoff_symbol
_atom_site_fract_x
_atom_site_fract_y
_atom_site_fract_z
_atom_site_B_iso_or_equiv
_atom_site_occupancy
_atom_site_attached_hydrogens
Na1 Na1+ 6 c 0 0 0.6391(2) . 1. 0
Sb1 Sb5+ 6 c 0 0 0.83904(3) . 1. 0
O2 O2- 18 f 0.0461(5) 0.3236(5) 0.7638(2) . 1. 0
loop_
_atom_site_aniso_label
_atom_site_aniso_type_symbol
_atom_site_aniso_beta_11
_atom_site_aniso_beta_22
_atom_site_aniso_beta_33
_atom_site_aniso_beta_12
_atom_site_aniso_beta_13
_atom_site_aniso_beta_23
Na1 Na1+ 0.0134(5) 0.0134(5) 0.0012(1) 0.00670(25) 0 0
Sb1 Sb5+ 0.0034(1) 0.0034(1) 0.0006(1) 0.00170(5) 0 0
O2 O2- 0.0078(9) 0.0062(9) 0.0004(1) 0.0029(8) -.0004(3) -.0001(2)
#End of TTdata_78416-ICSD