
#(C) 2019 by FIZ Karlsruhe - Leibniz Institute for Information Infrastructure.  All rights reserved.
data_78487-ICSD
_database_code_ICSD 78487
_audit_creation_date 1996-10-14
_audit_update_record 2006-10-01
_chemical_name_systematic 'Disodium dilanthanum trititanate'
_chemical_formula_structural 'Na2 La2 (Ti3 O10)'
_chemical_formula_sum 'La2 Na2 O10 Ti3'
_chemical_name_structure_type Sr4Ti3O10
_exptl_crystal_density_diffrn 4.96
_publ_section_title

;
Crystal structure and ionic conductivity of a layered perovskite, Na2 La2 Ti3
O10
;
loop_
_citation_id
_citation_journal_full
_citation_year
_citation_journal_volume
_citation_page_first
_citation_page_last
_citation_journal_id_ASTM
primary 'Journal of the Ceramic Society of Japan' 1994 102 737 741 JCSJEW
loop_
_publ_author_name
'Toda, K.'
'Kameo, Y.'
'Fujimoto, M.'
'Sato, M.'
_cell_length_a 3.83528(7)
_cell_length_b 3.83528(7)
_cell_length_c 28.5737(7)
_cell_angle_alpha 90.
_cell_angle_beta 90.
_cell_angle_gamma 90.
_cell_volume 420.3
_cell_formula_units_Z 2
_symmetry_space_group_name_H-M 'I 4/m m m'
_symmetry_Int_Tables_number 139
_refine_ls_R_factor_all 0.0214
loop_
_symmetry_equiv_pos_site_id
_symmetry_equiv_pos_as_xyz
1 'y, x, -z'
2 '-y, -x, -z'
3 '-y, x, -z'
4 'y, -x, -z'
5 '-x, y, -z'
6 'x, -y, -z'
7 'x, y, -z'
8 '-x, -y, -z'
9 '-y, -x, z'
10 'y, x, z'
11 'y, -x, z'
12 '-y, x, z'
13 'x, -y, z'
14 '-x, y, z'
15 '-x, -y, z'
16 'x, y, z'
17 'y+1/2, x+1/2, -z+1/2'
18 '-y+1/2, -x+1/2, -z+1/2'
19 '-y+1/2, x+1/2, -z+1/2'
20 'y+1/2, -x+1/2, -z+1/2'
21 '-x+1/2, y+1/2, -z+1/2'
22 'x+1/2, -y+1/2, -z+1/2'
23 'x+1/2, y+1/2, -z+1/2'
24 '-x+1/2, -y+1/2, -z+1/2'
25 '-y+1/2, -x+1/2, z+1/2'
26 'y+1/2, x+1/2, z+1/2'
27 'y+1/2, -x+1/2, z+1/2'
28 '-y+1/2, x+1/2, z+1/2'
29 'x+1/2, -y+1/2, z+1/2'
30 '-x+1/2, y+1/2, z+1/2'
31 '-x+1/2, -y+1/2, z+1/2'
32 'x+1/2, y+1/2, z+1/2'
loop_
_atom_type_symbol
_atom_type_oxidation_number
Na1+ 1
La3+ 3
Ti4+ 4
O2- -2
loop_
_atom_site_label
_atom_site_type_symbol
_atom_site_symmetry_multiplicity
_atom_site_Wyckoff_symbol
_atom_site_fract_x
_atom_site_fract_y
_atom_site_fract_z
_atom_site_B_iso_or_equiv
_atom_site_occupancy
_atom_site_attached_hydrogens
Na1 Na1+ 4 e 0 0 0.2895(9) 0.5 1. 0
La1 La3+ 4 e 0 0 0.4246(1) 0.06(11) 1. 0
Ti1 Ti4+ 2 a 0 0 0 0.10(11) 1. 0
Ti2 Ti4+ 4 e 0 0 0.1491(4) 0.10(11) 1. 0
O1 O2- 4 c 0 0.5 0 0.8(2) 1. 0
O2 O2- 4 e 0 0 0.065(1) 0.5(2) 1. 0
O3 O2- 8 g 0 0.5 0.137(1) 0.4(6) 1. 0
O4 O2- 4 e 0 0 0.210(1) 0.8(8) 1. 0
#End of TTdata_78487-ICSD