
#(C) 2018 by FIZ Karlsruhe - Leibniz Institute for Information Infrastructure.  All rights reserved.
data_78503-ICSD
_database_code_ICSD 78503
_audit_creation_date 1996-10-14
_chemical_name_systematic 'Lithium magnesium aluminium sulfate (0.5/0.5/1.5/3)'
_chemical_formula_structural 'Li0.5 (Mg0.5 Al1.5) (S O4)3'
_chemical_formula_sum 'Al1.5 Li0.5 Mg0.5 O12 S3'
_chemical_name_structure_type LiMgCr3(SO4)6
_exptl_crystal_density_diffrn 2.79
_publ_section_title

;
Neutron diffraction structural study of the Nasicon-related phases Lix M(II)x
M(III)2-x (S O4)3-y (Se O4)y (M(II)= Mg, Ni, Zn; M(III)= Al, Cr)
;
loop_
_citation_id
_citation_journal_full
_citation_year
_citation_journal_volume
_citation_page_first
_citation_page_last
_citation_journal_id_ASTM
primary 'Journal of Materials Chemistry' 1994 4 1463 1467 JMACEP
loop_
_publ_author_name
'Slater, P.R.'
'Greaves, C.'
_cell_length_a 8.1853(2)
_cell_length_b 8.1853(2)
_cell_length_c 21.2010(10)
_cell_angle_alpha 90.
_cell_angle_beta 90.
_cell_angle_gamma 120.
_cell_volume 1230.14
_cell_formula_units_Z 6
_symmetry_space_group_name_H-M 'R -3 H'
_symmetry_Int_Tables_number 148
_refine_ls_R_factor_all 0.0109
loop_
_symmetry_equiv_pos_site_id
_symmetry_equiv_pos_as_xyz
1 'x-y, x, -z'
2 'y, -x+y, -z'
3 '-x, -y, -z'
4 '-x+y, -x, z'
5 '-y, x-y, z'
6 'x, y, z'
7 'x-y+2/3, x+1/3, -z+1/3'
8 'y+2/3, -x+y+1/3, -z+1/3'
9 '-x+2/3, -y+1/3, -z+1/3'
10 '-x+y+2/3, -x+1/3, z+1/3'
11 '-y+2/3, x-y+1/3, z+1/3'
12 'x+2/3, y+1/3, z+1/3'
13 'x-y+1/3, x+2/3, -z+2/3'
14 'y+1/3, -x+y+2/3, -z+2/3'
15 '-x+1/3, -y+2/3, -z+2/3'
16 '-x+y+1/3, -x+2/3, z+2/3'
17 '-y+1/3, x-y+2/3, z+2/3'
18 'x+1/3, y+2/3, z+2/3'
loop_
_atom_type_symbol
_atom_type_oxidation_number
Li1+ 1
Al3+ 3
Mg2+ 2
Al3+ 3
S6+ 6
O2- -2
loop_
_atom_site_label
_atom_site_type_symbol
_atom_site_symmetry_multiplicity
_atom_site_Wyckoff_symbol
_atom_site_fract_x
_atom_site_fract_y
_atom_site_fract_z
_atom_site_B_iso_or_equiv
_atom_site_occupancy
_atom_site_attached_hydrogens
Li1 Li1+ 18 f 0.626(6) -.032(5) 0.216(2) 1.8(6) 0.1667 0
Al1 Al3+ 6 c 0 0 0.1452(9) 1.5(1) 1. 0
Mg2 Mg2+ 6 c 0 0 0.3537(6) 1.5(1) 0.5 0
Al2 Al3+ 6 c 0 0 0.3537(6) 1.5(1) 0.5 0
S1 S6+ 18 f 0.291(1) 0.293(1) 0.7506(6) 1.4(1) 1. 0
O1 O2- 18 f 0.2704(8) 0.4517(9) 0.7615(1) 2.5(1) 1. 0
O2 O2- 18 f 0.2136(8) 0.1613(8) 0.8039(2) 1.8(1) 1. 0
O3 O2- 18 f 0.195(1) 0.196(1) 0.6911(3) 2.6(1) 1. 0
O4 O2- 18 f 0.4871(8) 0.3347(8) 0.7472(2) 1.5(1) 1. 0
#End of TTdata_78503-ICSD