
#(C) 2019 by FIZ Karlsruhe - Leibniz Institute for Information Infrastructure.  All rights reserved.
data_78532-ICSD
_database_code_ICSD 78532
_audit_creation_date 1996-10-14
_chemical_name_systematic 'Sodium lanthanum magnesium tellurium(VI) oxide'
_chemical_formula_structural 'Na La Mg Te O6'
_chemical_formula_sum 'La1 Mg1 Na1 O6 Te1'
_chemical_name_structure_type NaLaMgWO6
_exptl_crystal_density_diffrn 5.6
_cell_measurement_temperature 295.
_publ_section_title
'Cation ordering in distorted perovskites (M La) (Mg Te) O6, M= Na, K'
loop_
_citation_id
_citation_journal_full
_citation_year
_citation_journal_volume
_citation_page_first
_citation_page_last
_citation_journal_id_ASTM
primary 'Journal of Materials Chemistry' 1994 4 547 550 JMACEP
loop_
_publ_author_name
'Lopez, M.L.'
'Veiga, M.L.'
'Pico, C.'
_cell_length_a 5.5526(2)
_cell_length_b 5.5349(2)
_cell_length_c 7.9126(3)
_cell_angle_alpha 90.
_cell_angle_beta 90.22(3)
_cell_angle_gamma 90.
_cell_volume 243.18
_cell_formula_units_Z 2
_symmetry_space_group_name_H-M 'P 1 21/m 1'
_symmetry_Int_Tables_number 11
_refine_ls_R_factor_all 0.0595
loop_
_symmetry_equiv_pos_site_id
_symmetry_equiv_pos_as_xyz
1 'x, -y+1/2, z'
2 '-x, -y, -z'
3 '-x, y+1/2, -z'
4 'x, y, z'
loop_
_atom_type_symbol
_atom_type_oxidation_number
La3+ 3
Na1+ 1
Te6+ 6
Mg2+ 2
O2- -2
loop_
_atom_site_label
_atom_site_type_symbol
_atom_site_symmetry_multiplicity
_atom_site_Wyckoff_symbol
_atom_site_fract_x
_atom_site_fract_y
_atom_site_fract_z
_atom_site_B_iso_or_equiv
_atom_site_occupancy
_atom_site_attached_hydrogens
La1 La3+ 2 e 0.267(2) 0.25 0.011(2) 0.29(1) 1. 0
Na1 Na1+ 2 e 0.226(3) 0.25 0.494(3) 1.23(3) 1. 0
Te1 Te6+ 2 e 0.756(2) 0.25 0.745(2) 0.00(2) 1. 0
Mg1 Mg2+ 2 e 0.751(3) 0.25 0.270(1) 0.71(3) 1. 0
O1 O2- 4 f 0.493(2) 0.486(1) 0.788(1) 1.41(1) 1. 0
O2 O2- 4 f -.010(2) -.034(2) 0.257(1) 1.41(1) 1. 0
O3 O2- 2 e 0.684(2) 0.25 0.507(2) 1.41(1) 1. 0
O4 O2- 2 e 0.798(2) 0.25 0.004(2) 1.41(1) 1. 0
#End of TTdata_78532-ICSD