
#(C) 2019 by FIZ Karlsruhe - Leibniz Institute for Information Infrastructure.  All rights reserved.
data_78601-ICSD
_database_code_ICSD 78601
_audit_creation_date 1997-05-13
_chemical_name_systematic
'Yttrium sodium barium copper oxide (0.9/0.1/2/3/7.06)'
_chemical_formula_structural 'Y0.93 Na0.07 Ba2 Cu3 O7.06'
_chemical_formula_sum 'Ba2 Cu3 Na0.07 O7.06 Y0.93'
_chemical_name_structure_type YBa2Cu3O6+x(orh,oP13)
_exptl_crystal_density_diffrn 6.35
_publ_section_title

;
Neutron powder diffraction study of the crystal structure of Na-doped Y-1-2-3
high-Tc superconductor
;
loop_
_citation_id
_citation_journal_full
_citation_year
_citation_journal_volume
_citation_page_first
_citation_page_last
_citation_journal_id_ASTM
primary
'Physica C: Superconductivity and Ist Application (Amsterdam, Netherlands)' 1995 248 71 77 PHYCE6
loop_
_publ_author_name
'Huang, Q.'
'Chen, C.-H.'
'Kumar, B.'
_cell_length_a 3.82075(6)
_cell_length_b 3.88470(7)
_cell_length_c 11.6762(2)
_cell_angle_alpha 90.
_cell_angle_beta 90.
_cell_angle_gamma 90.
_cell_volume 173.3
_cell_formula_units_Z 1
_symmetry_space_group_name_H-M 'P m m m'
_symmetry_Int_Tables_number 47
_refine_ls_R_factor_all 0.0521
loop_
_symmetry_equiv_pos_site_id
_symmetry_equiv_pos_as_xyz
1 'x, -y, z'
2 '-x, y, z'
3 'x, y, -z'
4 '-x, -y, -z'
5 '-x, y, -z'
6 'x, -y, -z'
7 '-x, -y, z'
8 'x, y, z'
loop_
_atom_type_symbol
_atom_type_oxidation_number
Y3+ 3
Na1+ 1
Ba2+ 2
Cu2+ 2.42
O2- -2
loop_
_atom_site_label
_atom_site_type_symbol
_atom_site_symmetry_multiplicity
_atom_site_Wyckoff_symbol
_atom_site_fract_x
_atom_site_fract_y
_atom_site_fract_z
_atom_site_B_iso_or_equiv
_atom_site_occupancy
_atom_site_attached_hydrogens
Y1 Y3+ 1 h 0.5 0.5 0.5 0.29(5) 0.93(2) 0
Na1 Na1+ 1 h 0.5 0.5 0.5 0.29(5) 0.07(2) 0
Ba1 Ba2+ 2 t 0.5 0.5 0.1845(2) 0.49(4) 1. 0
Cu1 Cu2+ 1 a 0 0 0 0.59(4) 1. 0
Cu2 Cu2+ 2 q 0 0 0.3554(1) 0.43(3) 1. 0
O1 O2- 2 q 0 0 0.1580(2) 0.64(4) 1. 0
O2 O2- 2 s 0.5 0 0.3784(2) 0.57(4) 1. 0
O3 O2- 2 r 0 0.5 0.3775(2) 0.49(4) 1. 0
O4 O2- 4 x 0.041(2) 0.5 0.0107(8) 0.8(1) 0.250(3) 0
O5 O2- 4 v 0.5 0.041(2) 0.0107(2) 0.8(1) 0.015(2) 0
#End of TTdata_78601-ICSD