
#(C) 2019 by FIZ Karlsruhe - Leibniz Institute for Information Infrastructure.  All rights reserved.
data_78732-ICSD
_database_code_ICSD 78732
_audit_creation_date 1997-05-13
_chemical_name_systematic 'Tetrahydroxopentasodium bromide'
_chemical_formula_structural '(Na5 (O H)4) Br'
_chemical_formula_sum 'H4 Br1 Na5 O4'
_exptl_crystal_density_diffrn 2.44
_publ_section_title

;
Na5 Br (O H)4: Darstellung und Kristallstruktur einer Verbindung im System Na
O H/Na Br
;
loop_
_citation_id
_citation_journal_full
_citation_year
_citation_journal_volume
_citation_page_first
_citation_page_last
_citation_journal_id_ASTM
primary 'Zeitschrift fuer Anorganische und Allgemeine Chemie (1950) (DE)' 1995
621 1185 1188 ZAACAB
loop_
_publ_author_name
'Barlage, H.'
'Jacobs, H.'
_cell_length_a 11.846(2)
_cell_length_b 18.782(4)
_cell_length_c 6.431(1)
_cell_angle_alpha 90.
_cell_angle_beta 90.
_cell_angle_gamma 90.
_cell_volume 1430.84
_cell_formula_units_Z 8
_symmetry_space_group_name_H-M 'P n m a'
_symmetry_Int_Tables_number 62
_refine_ls_R_factor_all 0.03
loop_
_symmetry_equiv_pos_site_id
_symmetry_equiv_pos_as_xyz
1 'x+1/2, y, -z+1/2'
2 'x, -y+1/2, z'
3 '-x+1/2, y+1/2, z+1/2'
4 '-x, -y, -z'
5 '-x+1/2, -y, z+1/2'
6 '-x, y+1/2, -z'
7 'x+1/2, -y+1/2, -z+1/2'
8 'x, y, z'
loop_
_atom_type_symbol
_atom_type_oxidation_number
Br1- -1
Na1+ 1
O2- -2
H1+ 1
loop_
_atom_site_label
_atom_site_type_symbol
_atom_site_symmetry_multiplicity
_atom_site_Wyckoff_symbol
_atom_site_fract_x
_atom_site_fract_y
_atom_site_fract_z
_atom_site_B_iso_or_equiv
_atom_site_occupancy
_atom_site_attached_hydrogens
Br1 Br1- 8 d 0.35095(5) 0.13037(3) 0.1237(1) . 1. 0
Na1 Na1+ 4 b 0 0 0.5 . 1. 0
Na2 Na1+ 4 c 0.4846(3) 0.25 0.8520(6) . 1. 0
Na3 Na1+ 4 c 0.4508(3) 0.25 0.3891(6) . 1. 0
Na4 Na1+ 4 c 0.1880(3) 0.25 0.9645(6) . 1. 0
Na5 Na1+ 8 d 0.3491(3) 0.1251(1) 0.6335(4) . 1. 0
Na6 Na1+ 8 d 0.2350(2) 0.0041(1) 0.8760(5) . 1. 0
Na7 Na1+ 8 d 0.1039(2) 0.1241(1) 0.2556(5) . 1. 0
O1 O2- 4 c 0.1004(4) 0.25 0.3410(9) . 1. 0
O2 O2- 4 c 0.3101(5) 0.25 0.6624(9) . 1. 0
O3 O2- 8 d 0.1640(3) 0.0733(2) 0.5876(6) . 1. 0
O4 O2- 8 d 0.0407(3) 0.1667(2) 0.9122(6) . 1. 0
O5 O2- 8 d 0.3971(3) 0.0003(2) 0.6635(6) . 1. 0
H1 H1+ 4 c 0.16 0.25 0.36 2. 1. 0
H2 H1+ 4 c 0.24 0.25 0.61 2. 1. 0
H3 H1+ 8 d 0.11 0.11 0.62 2. 1. 0
H4 H1+ 8 d 0.06 0.13 0.86 2. 1. 0
H5 H1+ 8 d 0.46 0 0.61 2. 1. 0
loop_
_atom_site_aniso_label
_atom_site_aniso_type_symbol
_atom_site_aniso_U_11
_atom_site_aniso_U_22
_atom_site_aniso_U_33
_atom_site_aniso_U_12
_atom_site_aniso_U_13
_atom_site_aniso_U_23
Br1 Br1- 0.0246(2) 0.0261(2) 0.0230(2) 0.0010(3) -.0009(3) 0.0015(3)
Na1 Na1+ 0.026(2) 0.039(2) 0.031(2) 0.002(2) 0.002(2) -.009(2)
Na2 Na1+ 0.030(2) 0.035(2) 0.018(2) 0 -.002(2) 0
Na3 Na1+ 0.024(1) 0.023(1) 0.017(1) 0 -.003(2) 0
Na4 Na1+ 0.022(2) 0.038(2) 0.032(2) 0 -.002(2) 0
Na5 Na1+ 0.049(1) 0.035(1) 0.032(1) 0.017(1) 0.000(1) -.002(2)
Na6 Na1+ 0.025(1) 0.031(1) 0.019(1) -.002(1) 0.002(1) -.004(1)
Na7 Na1+ 0.035(1) 0.032(1) 0.034(1) -.008(1) 0.006(1) -.012(1)
O1 O2- 0.022(3) 0.033(3) 0.023(3) 0 -.005(2) 0
O2 O2- 0.020(2) 0.032(2) 0.025(3) 0 0.000(2) 0
O3 O2- 0.028(2) 0.023(2) 0.016(2) -.006(2) -.003(2) -.001(1)
O4 O2- 0.033(2) 0.017(2) 0.020(2) -.001(1) 0.003(2) 0.004(2)
O5 O2- 0.021(2) 0.035(2) 0.018(2) -.001(2) -.002(2) -.002(2)
#End of TTdata_78732-ICSD