
#(C) 2017 by FIZ Karlsruhe - Leibniz Institute for Information Infrastructure.  All rights reserved.
data_78748-ICSD
_database_code_ICSD 78748
_audit_creation_date 1997-05-13
_chemical_name_systematic 'Lithium palladium gallium fluoride'
_chemical_formula_structural 'Li Pd Ga F6'
_chemical_formula_sum 'F6 Ga1 Li1 Pd1'
_chemical_name_structure_type CaLiAlF6
_exptl_crystal_density_diffrn 4.82
_publ_section_title
'Zur Kristallstruktur von Li Pd Ga F6, Rb Pd Al F6 und K1,06 Pd0,95 Fe1,05 F6'
loop_
_citation_id
_citation_journal_full
_citation_year
_citation_journal_volume
_citation_page_first
_citation_page_last
_citation_journal_id_ASTM
primary 'Zeitschrift fuer Anorganische und Allgemeine Chemie (1950) (DE)' 1995
621 1385 1394 ZAACAB
loop_
_publ_author_name
'Mueller, M.'
'Mueller, B.G.'
_cell_length_a 5.0572(2)
_cell_length_b 5.0572(2)
_cell_length_c 9.237(2)
_cell_angle_alpha 90.
_cell_angle_beta 90.
_cell_angle_gamma 120.
_cell_volume 204.59
_cell_formula_units_Z 2
_symmetry_space_group_name_H-M 'P -3 1 c'
_symmetry_Int_Tables_number 163
_refine_ls_R_factor_all 0.019
loop_
_symmetry_equiv_pos_site_id
_symmetry_equiv_pos_as_xyz
1 '-x+y, y, -z+1/2'
2 'x, x-y, -z+1/2'
3 '-y, -x, -z+1/2'
4 'x-y, x, -z'
5 'y, -x+y, -z'
6 '-x, -y, -z'
7 'x-y, -y, z+1/2'
8 '-x, -x+y, z+1/2'
9 'y, x, z+1/2'
10 '-x+y, -x, z'
11 '-y, x-y, z'
12 'x, y, z'
loop_
_atom_type_symbol
_atom_type_oxidation_number
Li1+ 1
Pd2+ 2
Ga3+ 3
F1- -1
loop_
_atom_site_label
_atom_site_type_symbol
_atom_site_symmetry_multiplicity
_atom_site_Wyckoff_symbol
_atom_site_fract_x
_atom_site_fract_y
_atom_site_fract_z
_atom_site_B_iso_or_equiv
_atom_site_occupancy
_atom_site_attached_hydrogens
Li1 Li1+ 2 d 0.6667 0.3333 0.25 . 1. 0
Pd1 Pd2+ 2 b 0 0 0 . 1. 0
Ga1 Ga3+ 2 c 0.3333 0.6667 0.25 . 1. 0
F1 F1- 12 i 0.0178(3) 0.3618(3) 0.3634(1) . 1. 0
loop_
_atom_site_aniso_label
_atom_site_aniso_type_symbol
_atom_site_aniso_U_11
_atom_site_aniso_U_22
_atom_site_aniso_U_33
_atom_site_aniso_U_12
_atom_site_aniso_U_13
_atom_site_aniso_U_23
Li1 Li1+ 0.012(3) 0.012(3) 0.011(4) 0.006(1) 0 0
Pd1 Pd2+ 0.0065(2) 0.0065(2) 0.0036(2) 0.00325(8) 0 0
Ga1 Ga3+ 0.0060(2) 0.0060(2) 0.0044(2) 0.00301(9) 0 0
F1 F1- 0.0092(5) 0.0108(5) 0.0091(5) 0.0043(4) 0.0017(3) 0.0046(4)
#End of TTdata_78748-ICSD