
#(C) 2019 by FIZ Karlsruhe - Leibniz Institute for Information Infrastructure.  All rights reserved.
data_78762-ICSD
_database_code_ICSD 78762
_audit_creation_date 1997-05-13
_chemical_name_systematic 'Sodium oxonium bis(hydrogensulfate)'
_chemical_formula_structural 'Na (H3 O) (H S O4)2'
_chemical_formula_sum 'H5 Na1 O9 S2'
_chemical_name_structure_type K(H3O)(HSO4)2
_exptl_crystal_density_diffrn 2.21
_publ_section_title

;
Synthese und Struktur neuer Natriumhydrogensulfate Na (H3 O) (H S O4)2; Na2 (H
S O4)2 (H2 S O4) und Na (H S O4) (H2 S O4)2
;
loop_
_citation_id
_citation_journal_full
_citation_year
_citation_journal_volume
_citation_page_first
_citation_page_last
_citation_journal_id_ASTM
primary 'Zeitschrift fuer Anorganische und Allgemeine Chemie (1950) (DE)' 1995
621 1617 1624 ZAACAB
loop_
_publ_author_name
'Troyanov, S.I.'
'Werner, C.'
'Kemnitz, E.'
'Worzala, H.'
_cell_length_a 6.974(2)
_cell_length_b 13.086(2)
_cell_length_c 8.080(3)
_cell_angle_alpha 90.
_cell_angle_beta 105.90(4)
_cell_angle_gamma 90.
_cell_volume 709.18
_cell_formula_units_Z 4
_symmetry_space_group_name_H-M 'P 1 21/c 1'
_symmetry_Int_Tables_number 14
_refine_ls_R_factor_all 0.03
loop_
_symmetry_equiv_pos_site_id
_symmetry_equiv_pos_as_xyz
1 'x, -y+1/2, z+1/2'
2 '-x, -y, -z'
3 '-x, y+1/2, -z+1/2'
4 'x, y, z'
loop_
_atom_type_symbol
_atom_type_oxidation_number
Na1+ 1
S6+ 6
O2- -2
H1+ 1
loop_
_atom_site_label
_atom_site_type_symbol
_atom_site_symmetry_multiplicity
_atom_site_Wyckoff_symbol
_atom_site_fract_x
_atom_site_fract_y
_atom_site_fract_z
_atom_site_B_iso_or_equiv
_atom_site_occupancy
_atom_site_attached_hydrogens
Na1 Na1+ 4 e -.1040(1) 0.5419(1) 0.2170(1) 0.026(1) 1. 0
S1 S6+ 4 e 0.3945(1) 0.5152(1) 0.2322(1) 0.017(1) 1. 0
S2 S6+ 4 e -.0146(1) 0.1944(1) -.1145(1) 0.017(1) 1. 0
O1 O2- 4 e 0.2473(3) 0.4886(1) 0.0770(2) 0.032(1) 1. 0
O2 O2- 4 e 0.4935(3) 0.4256(1) 0.3279(2) 0.030(1) 1. 0
O3 O2- 4 e 0.5406(2) 0.5892(1) 0.2116(2) 0.030(1) 1. 0
O4 O2- 4 e 0.2713(2) 0.5654(1) 0.3449(1) 0.026(1) 1. 0
O5 O2- 4 e -.0975(2) 0.1510(1) -.2847(2) 0.026(1) 1. 0
O6 O2- 4 e 0.0692(2) 0.1186(1) 0.0127(2) 0.029(1) 1. 0
O7 O2- 4 e 0.1260(2) 0.2776(1) -.1151(2) 0.026(1) 1. 0
O8 O2- 4 e -.1979(2) 0.2438(1) -.0718(2) 0.027(1) 1. 0
O9 O2- 4 e 0.4440(2) 0.2633(1) 0.1313(2) 0.027(1) 1. 0
H1 H1+ 4 e 0.339(7) -.067(3) -.080(6) 0.10(2) 1. 0
H2 H1+ 4 e -.163(6) 0.272(3) 0.017(6) 0.06(1) 1. 0
H3 H1+ 4 e -.456(6) -.219(3) -.182(6) 0.05(1) 1. 0
H4 H1+ 4 e 0.465(6) 0.318(3) 0.198(6) 0.07(1) 1. 0
H5 H1+ 4 e 0.336(6) 0.257(3) 0.045(6) 0.06(1) 1. 0
#End of TTdata_78762-ICSD