
#(C) 2019 by FIZ Karlsruhe - Leibniz Institute for Information Infrastructure.  All rights reserved.
data_78867-ICSD
_database_code_ICSD 78867
_audit_creation_date 1997-11-10
_audit_update_record 1998-06-26
_chemical_name_systematic 'Sodium titanium(II) undecafluorodizirconate'
_chemical_formula_structural 'Na Ti (Zr2 F11)'
_chemical_formula_sum 'F11 Na1 Ti1 Zr2'
_chemical_name_structure_type AgPdZr2F11
_exptl_crystal_density_diffrn 3.5
_publ_section_title

;
Synthese, Struktur und magnetische Eigenschaften der Verbindungen Na M(II) Zr2
F11 (M(II) = Ti, V und Cu) und einem Anhang ueber Na Pd Zr2 F11
;
loop_
_citation_id
_citation_journal_full
_citation_year
_citation_journal_volume
_citation_page_first
_citation_page_last
_citation_journal_id_ASTM
primary 'Zeitschrift fuer Anorganische und Allgemeine Chemie (1950) (DE)' 1996
622 1187 1194 ZAACAB
loop_
_publ_author_name
'Bialowons, H.'
'Mueller, B.G.'
_cell_length_a 9.180(1)
_cell_length_b 6.826(1)
_cell_length_c 7.808(1)
_cell_angle_alpha 90.
_cell_angle_beta 116.19(1)
_cell_angle_gamma 90.
_cell_volume 439.04
_cell_formula_units_Z 2
_symmetry_space_group_name_H-M 'C 1 2/m 1'
_symmetry_Int_Tables_number 12
_refine_ls_R_factor_all 0.035
loop_
_symmetry_equiv_pos_site_id
_symmetry_equiv_pos_as_xyz
1 '-x, y, -z'
2 '-x, -y, -z'
3 'x, -y, z'
4 'x, y, z'
5 '-x+1/2, y+1/2, -z'
6 '-x+1/2, -y+1/2, -z'
7 'x+1/2, -y+1/2, z'
8 'x+1/2, y+1/2, z'
loop_
_atom_type_symbol
_atom_type_oxidation_number
Na1+ 1
Ti2+ 2
Zr4+ 4
F1- -1
loop_
_atom_site_label
_atom_site_type_symbol
_atom_site_symmetry_multiplicity
_atom_site_Wyckoff_symbol
_atom_site_fract_x
_atom_site_fract_y
_atom_site_fract_z
_atom_site_B_iso_or_equiv
_atom_site_occupancy
_atom_site_attached_hydrogens
Na1 Na1+ 2 a 0 0 0 . 1. 0
Ti1 Ti2+ 2 c 0 0 0.5 . 1. 0
Zr3 Zr4+ 4 i 0.50060(7) 0 0.23240(8) . 1. 0
F1 F1- 2 d 0 0.5 0.5 . 1. 0
F2 F1- 4 g 0 0.3322(6) 0 . 1. 0
F3 F1- 4 i 0.2547(5) 0 0.6482(7) . 1. 0
F4 F1- 4 i 0.2652(6) 0 0.1086(8) . 1. 0
F5 F1- 8 j 0.0101(4) 0.2115(5) 0.3053(5) . 1. 0
loop_
_atom_site_aniso_label
_atom_site_aniso_type_symbol
_atom_site_aniso_U_11
_atom_site_aniso_U_22
_atom_site_aniso_U_33
_atom_site_aniso_U_12
_atom_site_aniso_U_13
_atom_site_aniso_U_23
Na1 Na1+ 0.019(3) 0.018(3) 0.086(5) 0 0.016(3) 0
Ti1 Ti2+ 0.0147(8) 0.0135(8) 0.0140(8) 0 0.0066(7) 0
Zr3 Zr4+ 0.0142(4) 0.0137(4) 0.0127(4) 0 0.0069(3) 0
F1 F1- 0.064(5) 0.031(4) 0.021(4) 0 0.027(4) 0
F2 F1- 0.042(3) 0.012(2) 0.019(2) 0 0.019(2) 0
F3 F1- 0.011(2) 0.037(3) 0.028(3) 0 0.004(2) 0
F4 F1- 0.013(3) 0.041(4) 0.039(3) 0 0.006(2) 0
F5 F1- 0.040(2) 0.040(2) 0.015(2) 0.0005(13) 0.018(2) 0.005(2)
#End of TTdata_78867-ICSD