
#(C) 2019 by FIZ Karlsruhe - Leibniz Institute for Information Infrastructure.  All rights reserved.
data_78869-ICSD
_database_code_ICSD 78869
_audit_creation_date 1997-11-10
_audit_update_record 1998-06-26
_chemical_name_systematic 'Sodium copper undecafluorodizirconate'
_chemical_formula_structural 'Na Cu (Zr2 F11)'
_chemical_formula_sum 'Cu1 F11 Na1 Zr2'
_chemical_name_structure_type AgNaZr2F11
_exptl_crystal_density_diffrn 3.8
_publ_section_title

;
Synthese, Struktur und magnetische Eigenschaften der Verbindungen Na M(II) Zr2
F11 (M(II) = Ti, V und Cu) und einem Anhang ueber Na Pd Zr2 F11
;
loop_
_citation_id
_citation_journal_full
_citation_year
_citation_journal_volume
_citation_page_first
_citation_page_last
_citation_journal_id_ASTM
primary 'Zeitschrift fuer Anorganische und Allgemeine Chemie (1950) (DE)' 1996
622 1187 1194 ZAACAB
loop_
_publ_author_name
'Bialowons, H.'
'Mueller, B.G.'
_cell_length_a 5.527(1)
_cell_length_b 5.682(1)
_cell_length_c 7.680(1)
_cell_angle_alpha 111.00(1)
_cell_angle_beta 97.41(2)
_cell_angle_gamma 106.41(2)
_cell_volume 208.74
_cell_formula_units_Z 1
_symmetry_space_group_name_H-M 'P -1'
_symmetry_Int_Tables_number 2
_refine_ls_R_factor_all 0.054
loop_
_symmetry_equiv_pos_site_id
_symmetry_equiv_pos_as_xyz
1 '-x, -y, -z'
2 'x, y, z'
loop_
_atom_type_symbol
_atom_type_oxidation_number
Na1+ 1
Cu3+ 3
Zr3+ 3.5
F1- -1
loop_
_atom_site_label
_atom_site_type_symbol
_atom_site_symmetry_multiplicity
_atom_site_Wyckoff_symbol
_atom_site_fract_x
_atom_site_fract_y
_atom_site_fract_z
_atom_site_B_iso_or_equiv
_atom_site_occupancy
_atom_site_attached_hydrogens
Na1 Na1+ 1 a 0 0 0 . 1. 0
Cu1 Cu3+ 1 g 0 0.5 0.5 . 1. 0
Zr3 Zr3+ 2 i 0.4894(1) 0.2682(2) 0.76281(9) . 1. 0
F1 F1- 1 f 0.5 0 0.5 . 1. 0
F2 F1- 2 i 0.2389(8) 0.405(1) 0.648(7) . 1. 0
F3 F1- 2 i 0.2269(8) 0.5139(9) 0.3288(7) . 1. 0
F4 F1- 2 i 0.1874(9) 0.9272(9) 0.6994(8) . 1. 0
F5 F1- 2 i 0.740(1) 0.165(2) 0.8892(9) . 1. 0
F6 F1- 2 i 0.3352(9) 0.3343(9) 0.0110(7) . 1. 0
loop_
_atom_site_aniso_label
_atom_site_aniso_type_symbol
_atom_site_aniso_U_11
_atom_site_aniso_U_22
_atom_site_aniso_U_33
_atom_site_aniso_U_12
_atom_site_aniso_U_13
_atom_site_aniso_U_23
Na1 Na1+ 0.020(2) 0.042(3) 0.072(5) 0.009(2) 0.007(3) 0.043(3)
Cu1 Cu3+ 0.0234(7) 0.0255(7) 0.0224(9) 0.0097(5) 0.0069(5) 0.0116(7)
Zr3 Zr3+ 0.0178(5) 0.0168(5) 0.0158(6) 0.0062(3) 0.0048(3) 0.0071(4)
F1 F1- 0.060(5) 0.027(4) 0.041(5) -.0005(30) 0.032(4) -.0008(31)
F2 F1- 0.030(3) 0.037(3) 0.031(4) 0.018(3) 0.004(2) 0.021(3)
F3 F1- 0.029(2) 0.029(3) 0.026(3) 0.008(2) 0.016(2) 0.013(2)
F4 F1- 0.028(3) 0.022(2) 0.034(3) -.0006(16) 0.009(2) 0.009(2)
F5 F1- 0.035(3) 0.050(3) 0.055(4) 0.024(3) 0.006(3) 0.034(3)
F6 F1- 0.028(2) 0.019(2) 0.024(3) 0.0005(15) 0.012(2) 0.003(2)
#End of TTdata_78869-ICSD