
#(C) 2019 by FIZ Karlsruhe - Leibniz Institute for Information Infrastructure.  All rights reserved.
data_78868-ICSD
_database_code_ICSD 78868
_audit_creation_date 1997-11-10
_audit_update_record 1998-06-26
_chemical_name_systematic 'Sodium vanadium(II) undecafluorodizirconate'
_chemical_formula_structural 'Na V (Zr2 F11)'
_chemical_formula_sum 'F11 Na1 V1 Zr2'
_chemical_name_structure_type AgPdZr2F11
_exptl_crystal_density_diffrn 3.6
_publ_section_title

;
Synthese, Struktur und magnetische Eigenschaften der Verbindungen Na M(II) Zr2
F11 (M(II) = Ti, V und Cu) und einem Anhang ueber Na Pd Zr2 F11
;
loop_
_citation_id
_citation_journal_full
_citation_year
_citation_journal_volume
_citation_page_first
_citation_page_last
_citation_journal_id_ASTM
primary 'Zeitschrift fuer Anorganische und Allgemeine Chemie (1950) (DE)' 1996
622 1187 1194 ZAACAB
loop_
_publ_author_name
'Bialowons, H.'
'Mueller, B.G.'
_cell_length_a 9.115(1)
_cell_length_b 6.757(1)
_cell_length_c 7.7655(7)
_cell_angle_alpha 90.
_cell_angle_beta 116.23(1)
_cell_angle_gamma 90.
_cell_volume 429.03
_cell_formula_units_Z 2
_symmetry_space_group_name_H-M 'C 1 2/m 1'
_symmetry_Int_Tables_number 12
_refine_ls_R_factor_all 0.017
loop_
_symmetry_equiv_pos_site_id
_symmetry_equiv_pos_as_xyz
1 '-x, y, -z'
2 '-x, -y, -z'
3 'x, -y, z'
4 'x, y, z'
5 '-x+1/2, y+1/2, -z'
6 '-x+1/2, -y+1/2, -z'
7 'x+1/2, -y+1/2, z'
8 'x+1/2, y+1/2, z'
loop_
_atom_type_symbol
_atom_type_oxidation_number
Na1+ 1
V4+ 4
Zr3+ 3
F1- -1
loop_
_atom_site_label
_atom_site_type_symbol
_atom_site_symmetry_multiplicity
_atom_site_Wyckoff_symbol
_atom_site_fract_x
_atom_site_fract_y
_atom_site_fract_z
_atom_site_B_iso_or_equiv
_atom_site_occupancy
_atom_site_attached_hydrogens
Na1 Na1+ 2 a 0 0 0 . 1. 0
V1 V4+ 2 c 0 0 0.5 . 1. 0
Zr3 Zr3+ 4 i 0.50284(2) 0 0.23415(3) . 1. 0
F1 F1- 2 d 0 0.5 0.5 . 1. 0
F2 F1- 4 g 0 0.3303(2) 0 . 1. 0
F3 F1- 4 i 0.2526(2) 0 0.6492(3) . 1. 0
F4 F1- 4 i 0.2660(2) 0 0.1087(3) . 1. 0
F5 F1- 8 j 0.0125(2) 0.2083(2) 0.3091(2) . 1. 0
loop_
_atom_site_aniso_label
_atom_site_aniso_type_symbol
_atom_site_aniso_U_11
_atom_site_aniso_U_22
_atom_site_aniso_U_33
_atom_site_aniso_U_12
_atom_site_aniso_U_13
_atom_site_aniso_U_23
Na1 Na1+ 0.0139(8) 0.0104(8) 0.093(2) 0 0.0144(9) 0
V1 V4+ 0.0094(3) 0.0081(3) 0.0066(3) 0 0.0035(2) 0
Zr3 Zr3+ 0.0091(2) 0.0081(2) 0.0053(1) 0 0.00341(8) 0
F1 F1- 0.070(2) 0.021(2) 0.017(2) 0 0.032(2) 0
F2 F1- 0.0351(8) 0.0077(6) 0.0126(6) 0 0.0143(6) 0
F3 F1- 0.0097(7) 0.00285(9) 0.0223(8) 0 0.0030(6) 0
F4 F1- 0.0105(7) 0.036(2) 0.037(1) 0 0.0061(7) 0
F5 F1- 0.0310(6) 0.0110(5) 0.0144(5) 0.0028(4) 0.0131(5) 0.0006(4)
#End of TTdata_78868-ICSD