
#(C) 2017 by FIZ Karlsruhe - Leibniz Institute for Information Infrastructure.  All rights reserved.
data_78928-ICSD
_database_code_ICSD 78928
_audit_creation_date 1998-06-26
_audit_update_record 1999-11-30
_chemical_name_systematic
'Tetracesium potassium lithium bis(hexafluoroferrate(III))'
_chemical_formula_structural 'Cs4 K (Li (Fe F6)2)'
_chemical_formula_sum 'Cs4 F12 Fe2 K1 Li1'
_chemical_name_structure_type Ba2NiTeO6
_exptl_crystal_density_diffrn 4.25
_publ_section_title

;
Die ersten oligomeren Anionen bei Fluoro-Litho-Metallaten mit
Oktaeder-Sandwich-Motiv: Cs4 K ((F3 M(III) F3) Li (F3 M(III) F3)), M(III) =
Ga, Fe
;
loop_
_citation_id
_citation_journal_full
_citation_year
_citation_journal_volume
_citation_page_first
_citation_page_last
_citation_journal_id_ASTM
primary 'Zeitschrift fuer Anorganische und Allgemeine Chemie (1950) (DE)' 1996
622 297 307 ZAACAB
loop_
_publ_author_name
'Bork, M.'
'Hoppe, R.'
_cell_length_a 6.343(1)
_cell_length_b 6.343(1)
_cell_length_c 30.866(7)
_cell_angle_alpha 90.
_cell_angle_beta 90.
_cell_angle_gamma 120.
_cell_volume 1075.48
_cell_formula_units_Z 3
_symmetry_space_group_name_H-M 'R -3 m H'
_symmetry_Int_Tables_number 166
_refine_ls_R_factor_all 0.0186
loop_
_symmetry_equiv_pos_site_id
_symmetry_equiv_pos_as_xyz
1 'x-y, -y, -z'
2 '-x, -x+y, -z'
3 'y, x, -z'
4 'x-y, x, -z'
5 'y, -x+y, -z'
6 '-x, -y, -z'
7 '-x+y, y, z'
8 'x, x-y, z'
9 '-y, -x, z'
10 '-x+y, -x, z'
11 '-y, x-y, z'
12 'x, y, z'
13 'x-y+2/3, -y+1/3, -z+1/3'
14 '-x+2/3, -x+y+1/3, -z+1/3'
15 'y+2/3, x+1/3, -z+1/3'
16 'x-y+2/3, x+1/3, -z+1/3'
17 'y+2/3, -x+y+1/3, -z+1/3'
18 '-x+2/3, -y+1/3, -z+1/3'
19 '-x+y+2/3, y+1/3, z+1/3'
20 'x+2/3, x-y+1/3, z+1/3'
21 '-y+2/3, -x+1/3, z+1/3'
22 '-x+y+2/3, -x+1/3, z+1/3'
23 '-y+2/3, x-y+1/3, z+1/3'
24 'x+2/3, y+1/3, z+1/3'
25 'x-y+1/3, -y+2/3, -z+2/3'
26 '-x+1/3, -x+y+2/3, -z+2/3'
27 'y+1/3, x+2/3, -z+2/3'
28 'x-y+1/3, x+2/3, -z+2/3'
29 'y+1/3, -x+y+2/3, -z+2/3'
30 '-x+1/3, -y+2/3, -z+2/3'
31 '-x+y+1/3, y+2/3, z+2/3'
32 'x+1/3, x-y+2/3, z+2/3'
33 '-y+1/3, -x+2/3, z+2/3'
34 '-x+y+1/3, -x+2/3, z+2/3'
35 '-y+1/3, x-y+2/3, z+2/3'
36 'x+1/3, y+2/3, z+2/3'
loop_
_atom_type_symbol
_atom_type_oxidation_number
Cs1+ 1
K1+ 1
Li1+ 1
Fe3+ 3
F1- -1
loop_
_atom_site_label
_atom_site_type_symbol
_atom_site_symmetry_multiplicity
_atom_site_Wyckoff_symbol
_atom_site_fract_x
_atom_site_fract_y
_atom_site_fract_z
_atom_site_B_iso_or_equiv
_atom_site_occupancy
_atom_site_attached_hydrogens
Cs1 Cs1+ 6 c 0 0 0.13392(2) . 1. 0
Cs2 Cs1+ 6 c 0 0 0.71418(2) . 1. 0
K1 K1+ 3 a 0 0 0 . 1. 0
Li1 Li1+ 3 b 0 0 0.5 . 1. 0
Fe1 Fe3+ 6 c 0 0 0.41531(3) . 1. 0
F1 F1- 18 h 0.1373(2) -.1373(2) 0.45547(8) . 1. 0
F2 F1- 18 h 0.4776(2) -.4776(2) 0.28532(9) . 1. 0
loop_
_atom_site_aniso_label
_atom_site_aniso_type_symbol
_atom_site_aniso_U_11
_atom_site_aniso_U_22
_atom_site_aniso_U_33
_atom_site_aniso_U_12
_atom_site_aniso_U_13
_atom_site_aniso_U_23
Cs1 Cs1+ 0.0211(2) 0.0211(2) 0.0277(3) 0.0105(1) 0 0
Cs2 Cs1+ 0.0213(2) 0.0213(2) 0.0275(3) 0.0107(1) 0 0
K1 K1+ 0.0177(6) 0.0177(6) 0.0161(9) 0.0088(3) 0 0
Li1 Li1+ 0.0294(61) 0.0294(61) 0.0147(83) 0.0147(31) 0 0
Fe1 Fe3+ 0.0146(3) 0.0146(3) 0.0122(4) 0.0073(1) 0 0
F1 F1- 0.0254(10) 0.0254(10) 0.0219(12) 0.0168(11) -.0017(5) 0.0017(5)
F2 F1- 0.0318(11) 0.0318(11) 0.0292(15) 0.0199(13) -.0060(6) 0.0060(6)
#End of TTdata_78928-ICSD