
#(C) 2018 by FIZ Karlsruhe - Leibniz Institute for Information Infrastructure.  All rights reserved.
data_78940-ICSD
_database_code_ICSD 78940
_audit_creation_date 1998-06-26
_audit_update_record 1999-01-19
_chemical_name_systematic
'Lithium hydrogen bis(hydrogensulfate(VI))- sulfuric acid (1/2)'
_chemical_formula_structural '(Li (H (H S O4)2)) (H2 (S O4))2'
_chemical_formula_sum 'H7 Li1 O16 S4'
_exptl_crystal_density_diffrn 2.25
_publ_section_title

;
Hydrogensulfate mit fehlgeordnetetn Wasserstoffatomen Synthese und Struktur
von Li (H (H S O4)2) (H2 S O4)2 sowie Verfeinerung der Struktur von alpha-Na H
S O4
;
loop_
_citation_id
_citation_journal_full
_citation_year
_citation_journal_volume
_citation_page_first
_citation_page_last
_citation_journal_id_ASTM
primary 'Zeitschrift fuer Anorganische und Allgemeine Chemie (1950) (DE)' 1996
622 337 342 ZAACAB
loop_
_publ_author_name
'Werner, C.'
'Troyanov, S.I.'
'Worzala, H.'
'Kemnitz, E.'
_cell_length_a 4.915(3)
_cell_length_b 7.314(4)
_cell_length_c 8.346(4)
_cell_angle_alpha 82.42(5)
_cell_angle_beta 86.10(4)
_cell_angle_gamma 80.93(5)
_cell_volume 293.34
_cell_formula_units_Z 1
_symmetry_space_group_name_H-M 'P -1'
_symmetry_Int_Tables_number 2
_refine_ls_R_factor_all 0.0371
loop_
_symmetry_equiv_pos_site_id
_symmetry_equiv_pos_as_xyz
1 '-x, -y, -z'
2 'x, y, z'
loop_
_atom_type_symbol
_atom_type_oxidation_number
Li1+ 1
S6+ 6
O2- -2
H1+ 1
loop_
_atom_site_label
_atom_site_type_symbol
_atom_site_symmetry_multiplicity
_atom_site_Wyckoff_symbol
_atom_site_fract_x
_atom_site_fract_y
_atom_site_fract_z
_atom_site_B_iso_or_equiv
_atom_site_occupancy
_atom_site_attached_hydrogens
Li1 Li1+ 1 h 0.5 0.5 0.5 0.0206(6) 1. 0
S1 S6+ 2 i 0.31212(5) 0.27754(4) 0.17987(3) 0.0144(1) 1. 0
S2 S6+ 2 i 0.03906(5) 0.23521(4) -.34029(3) 0.0119(1) 1. 0
O1 O2- 2 i 0.4045(3) 0.3543(2) 0.0160(1) 0.0250(2) 1. 0
O2 O2- 2 i 0.4020(2) 0.3676(1) 0.3046(1) 0.0174(2) 1. 0
O3 O2- 2 i 0.3889(2) 0.0752(1) 0.1967(1) 0.0190(2) 1. 0
O4 O2- 2 i -.0056(2) 0.3066(2) 0.1829(1) 0.0231(2) 1. 0
O5 O2- 2 i 0.1991(2) 0.3807(1) 0.6725(1) 0.0160(2) 1. 0
O6 O2- 2 i -.1901(2) 0.2773(1) 0.5591(1) 0.0188(2) 1. 0
O7 O2- 2 i -.0506(2) 0.1679(2) 0.8350(1) 0.0219(2) 1. 0
O8 O2- 2 i 0.2246(2) 0.0681(1) 0.5980(1) 0.0190(2) 1. 0
H1 H1+ 2 i -.032(6) 0.394(4) 0.233(3) 0.031(6) 1. 0
H2 H1+ 2 i 0.162(9) -.095(6) 0.147(5) 0.07(1) 1. 0
H3 H1+ 2 i 0.345(8) 0.022(5) 0.663(5) 0.06(1) 1. 0
H4 H1+ 2 i 0.60(2) 0.55(1) -.02(1) 0.07(3) 0.5 0
#End of TTdata_78940-ICSD