
#(C) 2018 by FIZ Karlsruhe - Leibniz Institute for Information Infrastructure.  All rights reserved.
data_79018-ICSD
_database_code_ICSD 79018
_audit_creation_date 1996-04-22
_chemical_name_systematic 'Lithium dimolybdo(V)molybdotriphosphate'
_chemical_formula_structural 'Li (Mo2 Mo P3 O16)'
_chemical_formula_sum 'Li1 Mo3 O16 P3'
_chemical_name_structure_type NaMo2P3O16
_exptl_crystal_density_diffrn 3.63
_publ_section_title

;
Structure and antiferromagnetic properties of a mixed valent molybdeno
monophosphate of lithium
;
loop_
_citation_id
_citation_journal_full
_citation_year
_citation_journal_volume
_citation_page_first
_citation_page_last
_citation_journal_id_ASTM
primary 'Materials Research Bulletin' 1995 30 523 529 MRBUAC
loop_
_publ_author_name
'Hoareau, T.'
'Borel, M.M.'
'Leclaire, A.'
'Provost, J.'
'Raveau, B.'
_cell_length_a 6.374(1)
_cell_length_b 7.709(1)
_cell_length_c 12.529(1)
_cell_angle_alpha 80.03(1)
_cell_angle_beta 77.62(1)
_cell_angle_gamma 81.80(1)
_cell_volume 588.67
_cell_formula_units_Z 2
_symmetry_space_group_name_H-M 'P -1'
_symmetry_Int_Tables_number 2
_refine_ls_R_factor_all 0.027
loop_
_symmetry_equiv_pos_site_id
_symmetry_equiv_pos_as_xyz
1 '-x, -y, -z'
2 'x, y, z'
loop_
_atom_type_symbol
_atom_type_oxidation_number
Mo5+ 5
Mo6+ 6
Li1+ 1
P5+ 5
O2- -2
loop_
_atom_site_label
_atom_site_type_symbol
_atom_site_symmetry_multiplicity
_atom_site_Wyckoff_symbol
_atom_site_fract_x
_atom_site_fract_y
_atom_site_fract_z
_atom_site_B_iso_or_equiv
_atom_site_occupancy
_atom_site_attached_hydrogens
Mo1 Mo5+ 2 i 0.20441(2) 0.21091(2) 0.53075(1) 0.523(2) 1. 0
Mo2 Mo5+ 2 i 0.40945(3) 0.74102(2) 0.16096(1) 0.560(2) 1. 0
Mo3 Mo6+ 2 i 0.03722(2) 0.19637(2) 0.15127(1) 0.605(2) 1. 0
Li1 Li1+ 2 i 0.586(2) 0.327(3) 0.328(1) 5.5(3) 1. 0
P1 P5+ 2 i 0.55902(8) 0.15595(6) 0.11041(4) 0.529(6) 1. 0
P2 P5+ 2 i 0.31114(7) 0.84135(6) 0.42733(4) 0.530(6) 1. 0
P3 P5+ 2 i 0.05684(8) 0.48506(6) 0.31352(4) 0.521(6) 1. 0
O1 O2- 2 i 0.1981(4) 0.0453(3) 0.6355(2) 1.53(3) 1. 0
O2 O2- 2 i -.0987(3) 0.2284(3) 0.5128(2) 1.21(2) 1. 0
O3 O2- 2 i 0.5244(2) 0.2478(2) 0.5000(1) 0.91(2) 1. 0
O4 O2- 2 i 0.2952(3) 0.0431(2) 0.4150(2) 1.07(2) 1. 0
O5 O2- 2 i 0.1342(3) 0.4158(2) 0.6163(1) 1.01(2) 1. 0
O6 O2- 2 i 0.2327(2) 0.3988(2) 0.3781(1) 0.78(2) 1. 0
O7 O2- 2 i 0.0623(4) 0.2886(4) 0.0190(2) 1.72(3) 1. 0
O8 O2- 2 i -.0490(2) 0.3437(2) 0.2734(1) 0.79(2) 1. 0
O9 O2- 2 i 0.7154(2) 0.1913(2) 0.1819(1) 0.78(2) 1. 0
O10 O2- 2 i 0.1191(3) -.0255(2) 0.1513(2) 1.44(3) 1. 0
O11 O2- 2 i 0.3347(2) 0.2344(2) 0.1655(2) 0.99(2) 1. 0
O12 O2- 2 i 0.6072(3) 0.5774(3) 0.1661(2) 1.51(3) 1. 0
O13 O2- 2 i 0.3728(3) 0.7471(2) 0.0057(1) 1.04(2) 1. 0
O14 O2- 2 i 0.1532(3) 0.6077(2) 0.2097(1) 0.99(2) 1. 0
O15 O2- 2 i 0.3816(4) 0.7895(3) 0.3130(2) 1.53(3) 1. 0
O16 O2- 2 i 0.5671(3) 0.9580(2) 0.1095(2) 0.92(2) 1. 0
#End of TTdata_79018-ICSD