
#(C) 2019 by FIZ Karlsruhe - Leibniz Institute for Information Infrastructure.  All rights reserved.
data_79097-ICSD
_database_code_ICSD 79097
_audit_creation_date 1996-04-22
_audit_update_record 1997-05-13
_chemical_name_systematic 'Hexasodium decaoxotetraphosphate dihydrate'
_chemical_formula_structural 'Na6 (P4 O10) (H2 O)4'
_chemical_formula_sum 'H8 Na6 O14 P4'
_exptl_crystal_density_diffrn 2.25
_publ_section_title

;
Ein neues Oxophosphat(IV/III)-Anion - Darstellung und Kristallstruktur von Na6
P4 O10 . 4(H2 O)
;
loop_
_citation_id
_citation_journal_full
_citation_year
_citation_journal_volume
_citation_page_first
_citation_page_last
_citation_journal_id_ASTM
primary 'Zeitschrift fuer Anorganische und Allgemeine Chemie (1950) (DE)' 1995
621 7 13 ZAACAB
loop_
_publ_author_name
'Hagen, S.'
'Jansen, M.'
_cell_length_a 6.004(1)
_cell_length_b 6.173(2)
_cell_length_c 11.496(2)
_cell_angle_alpha 99.26(2)
_cell_angle_beta 95.92(2)
_cell_angle_gamma 117.63(2)
_cell_volume 364.78
_cell_formula_units_Z 1
_symmetry_space_group_name_H-M 'P -1'
_symmetry_Int_Tables_number 2
_refine_ls_R_factor_all 0.044
loop_
_symmetry_equiv_pos_site_id
_symmetry_equiv_pos_as_xyz
1 '-x, -y, -z'
2 'x, y, z'
loop_
_atom_type_symbol
_atom_type_oxidation_number
Na1+ 1
P3+ 3
P4+ 4
O2- -2
H1+ 1
loop_
_atom_site_label
_atom_site_type_symbol
_atom_site_symmetry_multiplicity
_atom_site_Wyckoff_symbol
_atom_site_fract_x
_atom_site_fract_y
_atom_site_fract_z
_atom_site_B_iso_or_equiv
_atom_site_occupancy
_atom_site_attached_hydrogens
Na1 Na1+ 2 i 0.0769(2) 0.1769(2) 0.8819(1) . 1. 0
Na2 Na1+ 2 i 0.2720(2) 0.3074(2) 0.5855(1) . 1. 0
Na3 Na1+ 2 i 0.6724(2) 0.5080(2) 0.8558(1) . 1. 0
P1 P3+ 2 i 0.3455(1) 0.8361(1) 0.9296 . 1. 0
P2 P4+ 2 i 0.4089(1) 0.9269(1) 0.7541 . 1. 0
O1 O2- 2 i 0.3749(3) 0.6100(3) 0.9418(1) . 1. 0
O2 O2- 2 i 0.3296(3) 0.1271(3) 0.7499(1) . 1. 0
O3 O2- 2 i 0.0886(3) 0.8172(3) 0.9432(1) . 1. 0
O4 O2- 2 i 0.6947(3) 0.0292(4) 0.7562(1) . 1. 0
O5 O2- 2 i 0.2392(3) 0.6832(3) 0.6596(1) . 1. 0
O6 O2- 2 i 0.8153(4) 0.0955(4) 0.5353(2) . 1. 0
O7 O2- 2 i 0.7306(3) 0.6004(3) 0.6391(2) . 1. 0
H1 H1+ 2 i -.196(7) 0.190(6) 0.503(3) 0.0534(56) 1. 0
H2 H1+ 2 i -.229(7) 0.105(7) 0.595(2) 0.0534(56) 1. 0
H3 H1+ 2 i 0.735(3) 0.725(5) 0.662(3) 0.0534(56) 1. 0
H4 H1+ 2 i 0.864(4) 0.626(7) 0.633(3) 0.0534(56) 1. 0
loop_
_atom_site_aniso_label
_atom_site_aniso_type_symbol
_atom_site_aniso_U_11
_atom_site_aniso_U_22
_atom_site_aniso_U_33
_atom_site_aniso_U_12
_atom_site_aniso_U_13
_atom_site_aniso_U_23
Na1 Na1+ 0.0168(4) 0.0195(4) 0.0209(4) 0.0087(3) 0.0069(3) 0.0037(4)
Na2 Na1+ 0.0220(4) 0.0248(4) 0.0250(4) 0.0093(4) 0.0021(3) 0.0048(4)
Na3 Na1+ 0.0170(4) 0.0237(4) 0.0281(5) 0.0026(4) 0.0008(3) 0.0018(4)
P1 P3+ 0.0101(2) 0.0102(2) 0.0115(2) 0.0049(2) 0.0029(1) 0.0027(1)
P2 P4+ 0.0121(2) 0.0158(2) 0.0119(2) 0.0062(2) 0.0029(2) 0.0021(2)
O1 O2- 0.0234(7) 0.0143(6) 0.0254(7) 0.0106(6) 0.0042(6) 0.0058(5)
O2 O2- 0.0262(7) 0.0189(6) 0.0168(6) 0.0127(6) 0.0062(5) 0.0047(5)
O3 O2- 0.0110(5) 0.0212(7) 0.0184(6) 0.0071(5) 0.0047(5) 0.0038(5)
O4 O2- 0.0120(6) 0.046(1) 0.0227(7) 0.0087(7) 0.0061(6) 0.0098(7)
O5 O2- 0.0242(7) 0.0192(7) 0.0197(6) 0.0103(6) 0.0007(6) 0.0016(5)
O6 O2- 0.0287(8) 0.0327(9) 0.0220(7) 0.0161(7) 0.0075(7) 0.0070(7)
O7 O2- 0.0199(8) 0.0239(8) 0.0483(11) 0.0080(7) 0.0044(8) 0.0022(8)
#End of TTdata_79097-ICSD