
#(C) 2019 by FIZ Karlsruhe - Leibniz Institute for Information Infrastructure.  All rights reserved.
data_79157-ICSD
_database_code_ICSD 79157
_audit_creation_date 1996-10-14
_audit_update_record 2015-02-01
_chemical_name_systematic 'Sodium calcium yttrium fluoride (0.9/0.9/1.1/6)'
_chemical_formula_structural 'Na0.9 (Ca0.9 Y1.1) F6'
_chemical_formula_sum 'Ca0.9 F6 Na0.9 Y1.1'
_chemical_name_structure_type Na1-xCa1-xY1+xF6
_chemical_name_mineral Gagarinite-(Y)
_exptl_crystal_density_diffrn 4.06
_publ_section_title
'Refinement of the structure of gagarinite-(Y), Nax (Cax REE2-x) F6'
loop_
_citation_id
_citation_journal_full
_citation_year
_citation_journal_volume
_citation_page_first
_citation_page_last
_citation_journal_id_ASTM
primary 'Canadian Mineralogist' 1994 32 563 565 CAMIA6
loop_
_publ_author_name
'Hughes, J.M.'
'Drexler, J.W.'
_cell_length_a 5.987(1)
_cell_length_b 5.987(1)
_cell_length_c 3.5413(7)
_cell_angle_alpha 90.
_cell_angle_beta 90.
_cell_angle_gamma 120.
_cell_volume 109.93
_cell_formula_units_Z 1
_symmetry_space_group_name_H-M 'P 63/m'
_symmetry_Int_Tables_number 176
_refine_ls_R_factor_all 0.012
loop_
_symmetry_equiv_pos_site_id
_symmetry_equiv_pos_as_xyz
1 '-x+y, -x, -z+1/2'
2 '-y, x-y, -z+1/2'
3 'x, y, -z+1/2'
4 'x-y, x, -z'
5 'y, -x+y, -z'
6 '-x, -y, -z'
7 'x-y, x, z+1/2'
8 'y, -x+y, z+1/2'
9 '-x, -y, z+1/2'
10 '-x+y, -x, z'
11 '-y, x-y, z'
12 'x, y, z'
loop_
_atom_type_symbol
_atom_type_oxidation_number
Ca2+ 2
Y3+ 3
Na1+ 1
F1- -1
loop_
_atom_site_label
_atom_site_type_symbol
_atom_site_symmetry_multiplicity
_atom_site_Wyckoff_symbol
_atom_site_fract_x
_atom_site_fract_y
_atom_site_fract_z
_atom_site_B_iso_or_equiv
_atom_site_occupancy
_atom_site_attached_hydrogens
Ca1 Ca2+ 2 d 0.6667 0.3333 0.25 . 0.450(5) 0
Y1 Y3+ 2 d 0.6667 0.3333 0.25 . 0.550(5) 0
Na1 Na1+ 2 b 0 0 0 . 0.450(5) 0
F1 F1- 6 h 0.3089(3) 0.3933(3) 0.25 . 1. 0
loop_
_atom_site_aniso_label
_atom_site_aniso_type_symbol
_atom_site_aniso_U_11
_atom_site_aniso_U_22
_atom_site_aniso_U_33
_atom_site_aniso_U_12
_atom_site_aniso_U_13
_atom_site_aniso_U_23
Ca1 Ca2+ 0.0065(1) 0.0065(1) 0.0061(2) 0.00325(5) 0 0
Y1 Y3+ 0.0065(1) 0.0065(1) 0.0061(2) 0.00325(5) 0 0
Na1 Na1+ 0.011(1) 0.011(1) 0.048(4) 0.0055(5) 0 0
F1 F1- 0.0117(5) 0.0130(6) 0.0165(8) 0.0062(4) 0 0
#End of TTdata_79157-ICSD