
#(C) 2019 by FIZ Karlsruhe - Leibniz Institute for Information Infrastructure.  All rights reserved.
data_79229-ICSD
_database_code_ICSD 79229
_audit_creation_date 1996-10-14
_audit_update_record 1999-01-19
_chemical_name_systematic 'Sodium europium titanate'
_chemical_formula_structural 'Na Eu (Ti O4)'
_chemical_formula_sum 'Eu1 Na1 O4 Ti1'
_chemical_name_structure_type (La,Sr)2CuO4(oP28)
_exptl_crystal_density_diffrn 5.35
_publ_section_title
'Luminescence properties of layered perovskites activated by Eu(3+) ions'
loop_
_citation_id
_citation_journal_full
_citation_year
_citation_journal_volume
_citation_page_first
_citation_page_last
_citation_journal_id_ASTM
primary 'Journal of Alloys and Compounds' 1995 218 228 232 JALCEU
loop_
_publ_author_name
'Toda, K.'
'Kameo, Y.'
'Ohta, M.'
'Sato, M.'
_cell_length_a 12.5445(2)
_cell_length_b 5.3292(3)
_cell_length_c 5.3279(2)
_cell_angle_alpha 90.
_cell_angle_beta 90.
_cell_angle_gamma 90.
_cell_volume 356.18
_cell_formula_units_Z 4
_symmetry_space_group_name_H-M 'P b c m'
_symmetry_Int_Tables_number 57
_refine_ls_R_factor_all 0.02
loop_
_symmetry_equiv_pos_site_id
_symmetry_equiv_pos_as_xyz
1 'x, -y+1/2, z+1/2'
2 '-x, y+1/2, z'
3 'x, y, -z+1/2'
4 '-x, -y, -z'
5 '-x, y+1/2, -z+1/2'
6 'x, -y+1/2, -z'
7 '-x, -y, z+1/2'
8 'x, y, z'
loop_
_atom_type_symbol
_atom_type_oxidation_number
Na1+ 1
Eu3+ 3
Ti4+ 4
O2- -2
loop_
_atom_site_label
_atom_site_type_symbol
_atom_site_symmetry_multiplicity
_atom_site_Wyckoff_symbol
_atom_site_fract_x
_atom_site_fract_y
_atom_site_fract_z
_atom_site_B_iso_or_equiv
_atom_site_occupancy
_atom_site_attached_hydrogens
Na1 Na1+ 4 d 0.9122(9) 0.0098(37) 0.25 1.27(26) 1. 0
Eu1 Eu3+ 4 d 0.6077(2) 0.0187(5) 0.25 0.31(5) 1. 0
Ti1 Ti4+ 4 d 0.2334(4) 0.0051(17) 0.25 0.5(5) 1. 0
O1 O2- 4 c 0.2792(16) 0.25 0 1.05(59) 1. 0
O2 O2- 4 c 0.7451(17) 0.25 0 0.50(59) 1. 0
O3 O2- 4 d 0.1002(13) 0.0362(46) 0.25 0.33(45) 1. 0
O4 O2- 4 d 0.4308(14) -.0510(54) 0.25 0.19(53) 1. 0
#End of TTdata_79229-ICSD