
#(C) 2019 by FIZ Karlsruhe - Leibniz Institute for Information Infrastructure.  All rights reserved.
data_79403-ICSD
_database_code_ICSD 79403
_audit_creation_date 1996-10-14
_chemical_name_systematic 'Sodium aluminate hydrate (1/1/1.25)'
_chemical_formula_structural 'Na (Al O2) (H2 O)1.25'
_chemical_formula_sum 'H2.5 Al1 Na1 O3.25'
_exptl_crystal_density_diffrn 2.34
_cell_measurement_temperature 300.
_publ_section_title

;
The crystal structure of hydrated sodium aluminate, Na Al O2 . 5/4(H2 O), and
its dehydration product
;
loop_
_citation_id
_citation_journal_full
_citation_year
_citation_journal_volume
_citation_page_first
_citation_page_last
_citation_journal_id_ASTM
primary 'Journal of Solid State Chemistry' 1995 115 126 139 JSSCBI
loop_
_publ_author_name
'Kaduk, J.A.'
'Pei, S.-Y.'
_cell_length_a 10.53396(5)
_cell_length_b 10.53396(5)
_cell_length_c 5.336350(26)
_cell_angle_alpha 90.
_cell_angle_beta 90.
_cell_angle_gamma 90.
_cell_volume 592.14
_cell_formula_units_Z 8
_symmetry_space_group_name_H-M 'P -4 21 m'
_symmetry_Int_Tables_number 113
_refine_ls_R_factor_all 0.075
loop_
_symmetry_equiv_pos_site_id
_symmetry_equiv_pos_as_xyz
1 '-y+1/2, -x+1/2, z'
2 'y, -x, -z'
3 'y+1/2, x+1/2, z'
4 '-y, x, -z'
5 'x+1/2, -y+1/2, -z'
6 '-x, -y, z'
7 '-x+1/2, y+1/2, -z'
8 'x, y, z'
loop_
_atom_type_symbol
_atom_type_oxidation_number
Al3+ 3
Na1+ 1
O2- -2
H1+ 1
loop_
_atom_site_label
_atom_site_type_symbol
_atom_site_symmetry_multiplicity
_atom_site_Wyckoff_symbol
_atom_site_fract_x
_atom_site_fract_y
_atom_site_fract_z
_atom_site_B_iso_or_equiv
_atom_site_occupancy
_atom_site_attached_hydrogens
Al1 Al3+ 8 f 0.81175(13) 0.09450(13) 0.10055(23) . 1. 0
Na1 Na1+ 4 e 0.60138(14) 0.10138(14) 0.59605(35) . 1. 0
Na2 Na1+ 4 e 0.80414(15) 0.30414(15) 0.67529(37) . 1. 0
O1 O2- 8 f 0.81046(23) 0.09109(22) 0.4388(4) 0.0328(8) 1. 0
O2 O2- 8 f 0.93909(20) 0.18870(24) 0.0043(4) 0.0205(6) 1. 0
O3 O2- 4 e 0.66923(20) 0.16923(20) 0.0129(6) 0.0172(10) 1. 0
O4 O2- 4 e 0.38579(20) 0.11421(20) 0.7128(6) 0.0288(10) 1. 0
O5 O2- 2 c 0.5 0 0.2176(9) 0.0354(14) 1. 0
H1 H1+ 8 f 0.83624 0.01713 0.47151 0.05(14) 0.5 0
H2 H1+ 8 f 0.8849 0.11773 0.47151 0.05(14) 0.5 0
H3 H1+ 8 f 0.32216 0.09678 0.80539 0.05(14) 1. 0
H4 H1+ 4 e 0.5524 0.0524 0.15466 0.05(14) 1. 0
loop_
_atom_site_aniso_label
_atom_site_aniso_type_symbol
_atom_site_aniso_U_11
_atom_site_aniso_U_22
_atom_site_aniso_U_33
_atom_site_aniso_U_12
_atom_site_aniso_U_13
_atom_site_aniso_U_23
Al1 Al3+ 0.0355(11) 0.0261(9) 0.0129(7) -.0022(8) 0.0034(8) -.0026(7)
Na1 Na1+ 0.0303(10) 0.0303(10) 0.0246(15) 0.0005(14) -.0055(9) -.0055(9)
Na2 Na1+ 0.047(1) 0.047(1) 0.0314(16) -.0041(15) 0.0054(11) 0.0054(11)
#End of TTdata_79403-ICSD