
#(C) 2019 by FIZ Karlsruhe - Leibniz Institute for Information Infrastructure.  All rights reserved.
data_79417-ICSD
_database_code_ICSD 79417
_audit_creation_date 1996-10-14
_audit_update_record 2000-07-15
_chemical_name_systematic
'Sodium trimangananese phosphate(V) bis(hydrogenphosphate(V))'
_chemical_formula_structural 'Na Mn3 (P O4) (H P O4)2'
_chemical_formula_sum 'H2 Mn3 Na1 O12 P3'
_chemical_name_structure_type AgCo3H2(PO4)3
_chemical_name_mineral Unnamed_Alluaudite
_exptl_crystal_density_diffrn 3.45
_publ_section_title

;
Synthesis and structure of Na Mn3 (P O4) (H P O4)2, an unoxidized variant of
the alluaudite structure type
;
loop_
_citation_id
_citation_journal_full
_citation_year
_citation_journal_volume
_citation_page_first
_citation_page_last
_citation_journal_id_ASTM
primary 'Journal of Solid State Chemistry' 1995 115 240 246 JSSCBI
loop_
_publ_author_name
'Leroux, F.'
'Mar, A.'
'Payen, C.'
'Guyomard, D.'
'Verbaere, A.'
'Piffard, Y.'
_cell_length_a 12.179(2)
_cell_length_b 12.405(1)
_cell_length_c 6.6602(8)
_cell_angle_alpha 90.
_cell_angle_beta 114.616(7)
_cell_angle_gamma 90.
_cell_volume 914.78
_cell_formula_units_Z 4
_symmetry_space_group_name_H-M 'C 1 2/c 1'
_symmetry_Int_Tables_number 15
_refine_ls_R_factor_all 0.044
loop_
_symmetry_equiv_pos_site_id
_symmetry_equiv_pos_as_xyz
1 'x, -y, z+1/2'
2 '-x, -y, -z'
3 '-x, y, -z+1/2'
4 'x, y, z'
5 'x+1/2, -y+1/2, z+1/2'
6 '-x+1/2, -y+1/2, -z'
7 '-x+1/2, y+1/2, -z+1/2'
8 'x+1/2, y+1/2, z'
loop_
_atom_type_symbol
_atom_type_oxidation_number
Na1+ 1
Mn2+ 2
P5+ 5
O2- -2
H1+ 1
loop_
_atom_site_label
_atom_site_type_symbol
_atom_site_symmetry_multiplicity
_atom_site_Wyckoff_symbol
_atom_site_fract_x
_atom_site_fract_y
_atom_site_fract_z
_atom_site_B_iso_or_equiv
_atom_site_occupancy
_atom_site_attached_hydrogens
Na1 Na1+ 4 e 0 0.0203(5) 0.75 . 1. 0
Mn1 Mn2+ 4 e 0 0.2861(1) 0.25 . 1. 0
Mn2 Mn2+ 8 f 0.28949(8) 0.66110(7) 0.3712(2) . 1. 0
P1 P5+ 4 e 0 0.6811(2) 0.25 . 1. 0
P2 P5+ 8 f 0.2141(1) 0.8897(1) 0.1121(3) . 1. 0
O1 O2- 8 f 0.4630(3) 0.7493(3) 0.5418(6) . 1. 0
O2 O2- 8 f 0.1051(3) 0.6067(3) 0.2600(6) . 1. 0
O3 O2- 8 f 0.3480(3) 0.6702(3) 0.1066(6) . 1. 0
O4 O2- 8 f 0.1496(3) 0.4110(3) 0.3479(6) . 1. 0
O5 O2- 8 f 0.2137(3) 0.8225(3) 0.3028(6) . 1. 0
O6 O2- 8 f 0.3482(3) 0.4980(3) 0.4013(6) . 1. 0
H1 H1+ 8 f 0.117(5) 0.491(6) 0.309(11) 0.03(2) 1. 0
loop_
_atom_site_aniso_label
_atom_site_aniso_type_symbol
_atom_site_aniso_U_11
_atom_site_aniso_U_22
_atom_site_aniso_U_33
_atom_site_aniso_U_12
_atom_site_aniso_U_13
_atom_site_aniso_U_23
Na1 Na1+ 0.019(2) 0.110(4) 0.015(2) 0 0.005(2) 0
Mn1 Mn2+ 0.0123(6) 0.0112(6) 0.0128(7) 0 0.0060(6) 0
Mn2 Mn2+ 0.0107(4) 0.0080(4) 0.0107(5) 0.0002(4) 0.0056(4) 0.0000(4)
P1 P5+ 0.0071(9) 0.007(1) 0.007(1) 0 0.0019(8) 0
P2 P5+ 0.0099(7) 0.0063(6) 0.0071(8) -.0008(6) 0.0034(6) -.0001(6)
O1 O2- 0.010(2) 0.012(2) 0.010(2) 0.001(2) 0.005(2) -.002(2)
O2 O2- 0.007(2) 0.010(2) 0.013(2) 0.000(2) 0.001(2) -.004(2)
O3 O2- 0.012(2) 0.011(2) 0.008(2) -.002(2) 0.005(2) -.002(2)
O4 O2- 0.011(2) 0.008(2) 0.016(2) 0.000(2) 0.005(2) -.003(2)
O5 O2- 0.008(2) 0.012(2) 0.009(2) 0.000(2) 0.004(1) -.001(2)
O6 O2- 0.010(2) 0.008(2) 0.014(2) 0.000(1) 0.005(2) 0.002(2)
#End of TTdata_79417-ICSD