
#(C) 2018 by FIZ Karlsruhe - Leibniz Institute for Information Infrastructure.  All rights reserved.
data_79537-ICSD
_database_code_ICSD 79537
_audit_creation_date 1996-10-14
_audit_update_record 2003-04-01
_chemical_name_systematic 'Lithium zinc phosphate(V) - delta1, HT'
_chemical_formula_structural 'Li Zn (P O4)'
_chemical_formula_sum 'Li1 O4 P1 Zn1'
_chemical_name_structure_type KNiPO4
_exptl_crystal_density_diffrn 3.35
_publ_section_title

;
Preparation, structure determination and thermal transformation of a new
lithium zinc phosphate, delta1 Li Zn P O4
;
loop_
_citation_id
_citation_journal_full
_citation_year
_citation_journal_volume
_citation_page_first
_citation_page_last
_citation_journal_id_ASTM
primary 'Journal of Solid State Chemistry' 1995 117 39 47 JSSCBI
loop_
_publ_author_name
'Jensen, T.R.'
'Norby, P.'
'Stein, P.C.'
'Bell, A.M.T.'
_cell_length_a 10.0193(1)
_cell_length_b 4.9657(1)
_cell_length_c 6.6746(1)
_cell_angle_alpha 90.
_cell_angle_beta 90.
_cell_angle_gamma 90.
_cell_volume 332.08
_cell_formula_units_Z 4
_symmetry_space_group_name_H-M 'P n a 21'
_symmetry_Int_Tables_number 33
_refine_ls_R_factor_all 0.047
loop_
_symmetry_equiv_pos_site_id
_symmetry_equiv_pos_as_xyz
1 'x+1/2, -y+1/2, z'
2 '-x+1/2, y+1/2, z+1/2'
3 '-x, -y, z+1/2'
4 'x, y, z'
loop_
_atom_type_symbol
_atom_type_oxidation_number
Zn2+ 2
Li1+ 1
Zn2+ 2
P5+ 5
O2- -2
loop_
_atom_site_label
_atom_site_type_symbol
_atom_site_symmetry_multiplicity
_atom_site_Wyckoff_symbol
_atom_site_fract_x
_atom_site_fract_y
_atom_site_fract_z
_atom_site_B_iso_or_equiv
_atom_site_occupancy
_atom_site_attached_hydrogens
Zn1 Zn2+ 4 a 0.8449(1) 0.1870(1) 0 0.51(3) 0.92 0
Li1 Li1+ 4 a 0.8449(1) 0.1870(1) 0 0.51(3) 0.08 0
Li2 Li1+ 4 a 0.1569(6) 0.825(1) 0.989(4) 1.7(3) 0.92 0
Zn2 Zn2+ 4 a 0.1569(6) 0.825(1) 0.989(4) 1.7(3) 0.08 0
P1 P5+ 4 a 0.0926(1) 0.3164(3) 0.7504(6) 0.32(3) 1. 0
O1 O2- 4 a 0.9439(3) 0.2455(6) 0.757(1) 0.5(1) 1. 0
O2 O2- 4 a 0.8863(3) 0.3849(6) 0.2528(9) 0.9(1) 1. 0
O3 O2- 4 a 0.3389(4) 0.6996(6) 0.4401(7) 0.3(1) 1. 0
O4 O2- 4 a 0.3396(3) 0.6965(6) 0.0552(8) 0.3(1) 1. 0
#End of TTdata_79537-ICSD