
#(C) 2019 by FIZ Karlsruhe - Leibniz Institute for Information Infrastructure.  All rights reserved.
data_79536-ICSD
_database_code_ICSD 79536
_audit_creation_date 1996-10-14
_chemical_name_systematic 'Disodium phyllo-tetrathiodicuprozirconate'
_chemical_formula_structural 'Na2 (Cu2 Zr S4)'
_chemical_formula_sum 'Cu2 Na2 S4 Zr1'
_chemical_name_structure_type Cu2Na2ZrS4
_exptl_crystal_density_diffrn 3.95
_cell_measurement_temperature 113.
_publ_section_title 'Synthesis and structure of Na2 Cu2 Zr S4'
loop_
_citation_id
_citation_journal_full
_citation_year
_citation_journal_volume
_citation_page_first
_citation_page_last
_citation_journal_id_ASTM
primary 'Journal of Solid State Chemistry' 1995 117 30 33 JSSCBI
loop_
_publ_author_name
'Mansuetto, M.F.'
'Ibers, J.A.'
_cell_length_a 13.657(9)
_cell_length_b 3.720(3)
_cell_length_c 7.025(5)
_cell_angle_alpha 90.
_cell_angle_beta 112.44(3)
_cell_angle_gamma 90.
_cell_volume 329.87
_cell_formula_units_Z 2
_symmetry_space_group_name_H-M 'C 1 2/m 1'
_symmetry_Int_Tables_number 12
_refine_ls_R_factor_all 0.031
loop_
_symmetry_equiv_pos_site_id
_symmetry_equiv_pos_as_xyz
1 '-x, y, -z'
2 '-x, -y, -z'
3 'x, -y, z'
4 'x, y, z'
5 '-x+1/2, y+1/2, -z'
6 '-x+1/2, -y+1/2, -z'
7 'x+1/2, -y+1/2, z'
8 'x+1/2, y+1/2, z'
loop_
_atom_type_symbol
_atom_type_oxidation_number
Na1+ 1
Cu1+ 1
Zr4+ 4
S2- -2
loop_
_atom_site_label
_atom_site_type_symbol
_atom_site_symmetry_multiplicity
_atom_site_Wyckoff_symbol
_atom_site_fract_x
_atom_site_fract_y
_atom_site_fract_z
_atom_site_B_iso_or_equiv
_atom_site_occupancy
_atom_site_attached_hydrogens
Na1 Na1+ 4 i 0.1387(3) 0 0.5594(6) 0.016(1) 1. 0
Cu1 Cu1+ 4 i 0.3206(1) 0 0.0137(2) 0.010(1) 1. 0
Zr1 Zr4+ 2 a 0 0 0 0.008(1) 1. 0
S1 S2- 4 i 0.2034(2) 0 0.2019(3) 0.009(1) 1. 0
S2 S2- 4 i 0.4909(2) 0 0.2482(3) 0.008(1) 1. 0
#End of TTdata_79536-ICSD