
#(C) 2019 by FIZ Karlsruhe - Leibniz Institute for Information Infrastructure.  All rights reserved.
data_8008-ICSD
_database_code_ICSD 8008
_audit_creation_date 1980-01-01
_audit_update_record 1985-04-18
_chemical_name_systematic 'Disodium trioxotellurate(IV) pentahydrate'
_chemical_formula_structural 'Na2 Te O3 (H2 O)5'
_chemical_formula_sum 'H10 Na2 O8 Te1'
_exptl_crystal_density_diffrn 2.38
_publ_section_title

;
Etude cristallographique du tellurite de sodium a cinq molecules d'eau, Na2
Te(IV) O3 (H2 O)5
;
loop_
_citation_id
_citation_journal_full
_citation_year
_citation_journal_volume
_citation_page_first
_citation_page_last
_citation_journal_id_ASTM
primary

;
Acta Crystallographica, Section B: Structural Crystallography and Crystal
Chemistry
; 1979 35 1337 1340 ACBCAR
loop_
_publ_author_name
'Philippot, E.'
'Maurin, M.'
'Moret, J.'
_cell_length_a 13.468(2)
_cell_length_b 7.426(1)
_cell_length_c 17.545(3)
_cell_angle_alpha 90.
_cell_angle_beta 97.79(2)
_cell_angle_gamma 90.
_cell_volume 1738.54
_cell_formula_units_Z 8
_symmetry_space_group_name_H-M 'C 1 2/c 1'
_symmetry_Int_Tables_number 15
_refine_ls_R_factor_all 0.026
loop_
_symmetry_equiv_pos_site_id
_symmetry_equiv_pos_as_xyz
1 'x, -y, z+1/2'
2 '-x, -y, -z'
3 '-x, y, -z+1/2'
4 'x, y, z'
5 'x+1/2, -y+1/2, z+1/2'
6 '-x+1/2, -y+1/2, -z'
7 '-x+1/2, y+1/2, -z+1/2'
8 'x+1/2, y+1/2, z'
loop_
_atom_type_symbol
_atom_type_oxidation_number
Te4+ 4
Na1+ 1
O2- -2
H1+ 1
loop_
_atom_site_label
_atom_site_type_symbol
_atom_site_symmetry_multiplicity
_atom_site_Wyckoff_symbol
_atom_site_fract_x
_atom_site_fract_y
_atom_site_fract_z
_atom_site_B_iso_or_equiv
_atom_site_occupancy
_atom_site_attached_hydrogens
Te1 Te4+ 8 f 0.15914(2) 0.98062(3) 0.17582 1.49 1. 0
Na1 Na1+ 8 f 0.4520(2) 0.9789(1) 0.0748(1) 2.46 1. 0
Na2 Na1+ 4 e 0.5 0.9777(3) 0.25 1.83 1. 0
Na3 Na1+ 4 c 0.25 0.25 0 4.89 1. 0
O1 O2- 8 f 0.0290(2) 0.9821(4) 0.1245(2) 2.45 1. 0
O2 O2- 8 f 0.2121(2) 0.7945(4) 0.1227(2) 1.9 1. 0
O3 O2- 8 f 0.2104(3) 0.1767(4) 0.1291(2) 2.46 1. 0
O4 O2- 8 f 0.4117(3) 0.1956(5) 0.1686(2) 2.56 1. 0
O5 O2- 8 f 0.5258(3) 0.7492(5) -.0013(2) 2.79 1. 0
O6 O2- 8 f 0.4145(3) 0.7598(4) 0.1684(2) 2.39 1. 0
O7 O2- 8 f 0.6100(2) 0.9844(4) 0.1554(2) 2.24 1. 0
O8 O2- 8 f 0.2908(3) 0.9539(4) 0.0005(2) 2.37 1. 0
H1 H1+ 8 f 0.649(5) 0.892(10) 0.143(4) 4. 1. 0
H2 H1+ 8 f 0.653(5) 0.075(10) 0.141(4) 4. 1. 0
H3 H1+ 8 f 0.299(5) 0.878(10) 0.971(4) 4. 1. 0
H4 H1+ 8 f 0.251(6) 0.912(10) 0.029(4) 4. 1. 0
H5 H1+ 8 f 0.354(6) 0.222(10) 0.165(4) 4. 1. 0
H6 H1+ 8 f 0.451(5) 0.285(9) 0.161(4) 4. 1. 0
H7 H1+ 8 f 0.510(5) 0.681(9) 0.959(4) 4. 1. 0
H8 H1+ 8 f 0.539(4) 0.679(8) 0.035(3) 4. 1. 0
H9 H1+ 8 f 0.441(4) 0.659(8) 0.134(3) 4. 1. 0
H10 H1+ 8 f 0.351(4) 0.749(7) 0.162(3) 4. 1. 0
#End of TTdata_8008-ICSD