
#(C) 2018 by FIZ Karlsruhe - Leibniz Institute for Information Infrastructure.  All rights reserved.
data_80266-ICSD
_database_code_ICSD 80266
_audit_creation_date 1996-10-14
_chemical_name_systematic 'Lithium magnesium niobium oxide (0.7/0.1/1/3)'
_chemical_formula_structural '(Li0.724 Mg0.138) (Nb O3)'
_chemical_formula_sum 'Li0.724 Mg0.138 Nb1 O3'
_chemical_name_structure_type LiNbO3
_exptl_crystal_density_diffrn 4.64
_publ_section_title

;
Combined X-ray and neutron powder diffraction study of magnesium-doped lithium
niobate
;
loop_
_citation_id
_citation_journal_full
_citation_year
_citation_journal_volume
_citation_page_first
_citation_page_last
_citation_journal_id_ASTM
primary 'Journal of Materials Chemistry' 1995 5 1039 1041 JMACEP
loop_
_publ_author_name
'Thomson, J.B.'
'Small, C.'
'Lightfoot, P.'
'Bruce, P.G.'
_cell_length_a 5.1623(3)
_cell_length_b 5.1623(3)
_cell_length_c 13.8913(8)
_cell_angle_alpha 90.
_cell_angle_beta 90.
_cell_angle_gamma 120.
_cell_volume 320.6
_cell_formula_units_Z 6
_symmetry_space_group_name_H-M 'R 3 c H'
_symmetry_Int_Tables_number 161
_refine_ls_R_factor_all 0.027
loop_
_symmetry_equiv_pos_site_id
_symmetry_equiv_pos_as_xyz
1 '-x+y, y, z+1/2'
2 'x, x-y, z+1/2'
3 '-y, -x, z+1/2'
4 '-x+y, -x, z'
5 '-y, x-y, z'
6 'x, y, z'
7 '-x+y+2/3, y+1/3, z+5/6'
8 'x+2/3, x-y+1/3, z+5/6'
9 '-y+2/3, -x+1/3, z+5/6'
10 '-x+y+2/3, -x+1/3, z+1/3'
11 '-y+2/3, x-y+1/3, z+1/3'
12 'x+2/3, y+1/3, z+1/3'
13 '-x+y+1/3, y+2/3, z+1/6'
14 'x+1/3, x-y+2/3, z+1/6'
15 '-y+1/3, -x+2/3, z+1/6'
16 '-x+y+1/3, -x+2/3, z+2/3'
17 '-y+1/3, x-y+2/3, z+2/3'
18 'x+1/3, y+2/3, z+2/3'
loop_
_atom_type_symbol
_atom_type_oxidation_number
Li1+ 1
Mg2+ 2
Nb5+ 5
O2- -2
loop_
_atom_site_label
_atom_site_type_symbol
_atom_site_symmetry_multiplicity
_atom_site_Wyckoff_symbol
_atom_site_fract_x
_atom_site_fract_y
_atom_site_fract_z
_atom_site_B_iso_or_equiv
_atom_site_occupancy
_atom_site_attached_hydrogens
Li1 Li1+ 6 a 0 0 0.2710(4) 0.0215(9) 0.724(4) 0
Mg1 Mg2+ 6 a 0 0 0.2710(4) 0.0215(9) 0.138(2) 0
Nb1 Nb5+ 6 a 0 0 0 0.0052(1) 1. 0
O1 O2- 18 b 0.04641(6) 0.3432(1) 0.06486(3) 0.0063(1) 1. 0
#End of TTdata_80266-ICSD