
#(C) 2019 by FIZ Karlsruhe - Leibniz Institute for Information Infrastructure.  All rights reserved.
data_80337-ICSD
_database_code_ICSD 80337
_audit_creation_date 1997-05-13
_chemical_name_systematic 'Sodium chlorate(V) - I'
_chemical_formula_structural 'Na (Cl O3)'
_chemical_formula_sum 'Cl1 Na1 O3'
_chemical_name_structure_type NaClO3
_exptl_crystal_density_diffrn 2.49
_publ_section_title 'The high-pressure behavior of Na Cl O3'
loop_
_citation_id
_citation_journal_full
_citation_year
_citation_journal_volume
_citation_page_first
_citation_page_last
_citation_journal_id_ASTM
primary 'Journal of Solid State Chemistry' 1995 118 378 382 JSSCBI
loop_
_publ_author_name
'Sowa, H.'
_cell_length_a 6.5718(3)
_cell_length_b 6.5718(3)
_cell_length_c 6.5718(3)
_cell_angle_alpha 90.
_cell_angle_beta 90.
_cell_angle_gamma 90.
_cell_volume 283.83
_cell_formula_units_Z 4
_symmetry_space_group_name_H-M 'P 21 3'
_symmetry_Int_Tables_number 198
_refine_ls_R_factor_all 0.052
loop_
_symmetry_equiv_pos_site_id
_symmetry_equiv_pos_as_xyz
1 '-z+1/2, -x, y+1/2'
2 '-y+1/2, -z, x+1/2'
3 '-x+1/2, -y, z+1/2'
4 '-z, x+1/2, -y+1/2'
5 '-y, z+1/2, -x+1/2'
6 '-x, y+1/2, -z+1/2'
7 'z+1/2, -x+1/2, -y'
8 'y+1/2, -z+1/2, -x'
9 'x+1/2, -y+1/2, -z'
10 'z, x, y'
11 'y, z, x'
12 'x, y, z'
loop_
_atom_type_symbol
_atom_type_oxidation_number
Na1+ 1
Cl5+ 5
O2- -2
loop_
_atom_site_label
_atom_site_type_symbol
_atom_site_symmetry_multiplicity
_atom_site_Wyckoff_symbol
_atom_site_fract_x
_atom_site_fract_y
_atom_site_fract_z
_atom_site_B_iso_or_equiv
_atom_site_occupancy
_atom_site_attached_hydrogens
Na1 Na1+ 4 a 0.069(1) 0.069(1) 0.069(1) 0.025(1) 1. 0
Cl1 Cl5+ 4 a 0.4179(7) 0.4179(7) 0.4179(7) 0.0197(7) 1. 0
O1 O2- 12 b 0.3033(5) 0.5931(6) 0.5048(6) 0.029(1) 1. 0
#End of TTdata_80337-ICSD