
#(C) 2019 by FIZ Karlsruhe - Leibniz Institute for Information Infrastructure.  All rights reserved.
data_80330-ICSD
_database_code_ICSD 80330
_audit_creation_date 1997-05-13
_audit_update_record 2015-08-01
_chemical_name_systematic
'Sodium iron iron(III) arsenate(V) (6.9/0.95/3.05/6) - II'
_chemical_formula_structural 'Na6.88 Fe4 (As O4)6'
_chemical_formula_sum 'As6 Fe4 Na6.88 O24'
_chemical_name_structure_type Na3+xFe2(AsO4)3
_chemical_name_mineral Yurmarinite
_exptl_crystal_density_diffrn 4.
_cell_measurement_temperature 294.
_publ_section_title

;
Crystal structure of Na7 Fe4 (As O4)6 and alpha-Na3 Al2 (As O4)3,two sodium
ion conductors structurally related to II-Na3 Fe2 (As O4)3
;
loop_
_citation_id
_citation_journal_full
_citation_year
_citation_journal_volume
_citation_page_first
_citation_page_last
_citation_journal_id_ASTM
primary 'Journal of Solid State Chemistry' 1995 118 33 42 JSSCBI
loop_
_publ_author_name
'Masquelier, C.'
'd'Yvoire, F.'
'Collin, G.'
_cell_length_a 13.794(4)
_cell_length_b 13.794(4)
_cell_length_c 18.3600(50)
_cell_angle_alpha 90.
_cell_angle_beta 90.
_cell_angle_gamma 120.
_cell_volume 3025.41
_cell_formula_units_Z 6
_symmetry_space_group_name_H-M 'R -3 c H'
_symmetry_Int_Tables_number 167
_refine_ls_R_factor_all 0.049
loop_
_symmetry_equiv_pos_site_id
_symmetry_equiv_pos_as_xyz
1 'x-y, -y, -z+1/2'
2 '-x, -x+y, -z+1/2'
3 'y, x, -z+1/2'
4 'x-y, x, -z'
5 'y, -x+y, -z'
6 '-x, -y, -z'
7 '-x+y, y, z+1/2'
8 'x, x-y, z+1/2'
9 '-y, -x, z+1/2'
10 '-x+y, -x, z'
11 '-y, x-y, z'
12 'x, y, z'
13 'x-y+2/3, -y+1/3, -z+5/6'
14 '-x+2/3, -x+y+1/3, -z+5/6'
15 'y+2/3, x+1/3, -z+5/6'
16 'x-y+2/3, x+1/3, -z+1/3'
17 'y+2/3, -x+y+1/3, -z+1/3'
18 '-x+2/3, -y+1/3, -z+1/3'
19 '-x+y+2/3, y+1/3, z+5/6'
20 'x+2/3, x-y+1/3, z+5/6'
21 '-y+2/3, -x+1/3, z+5/6'
22 '-x+y+2/3, -x+1/3, z+1/3'
23 '-y+2/3, x-y+1/3, z+1/3'
24 'x+2/3, y+1/3, z+1/3'
25 'x-y+1/3, -y+2/3, -z+1/6'
26 '-x+1/3, -x+y+2/3, -z+1/6'
27 'y+1/3, x+2/3, -z+1/6'
28 'x-y+1/3, x+2/3, -z+2/3'
29 'y+1/3, -x+y+2/3, -z+2/3'
30 '-x+1/3, -y+2/3, -z+2/3'
31 '-x+y+1/3, y+2/3, z+1/6'
32 'x+1/3, x-y+2/3, z+1/6'
33 '-y+1/3, -x+2/3, z+1/6'
34 '-x+y+1/3, -x+2/3, z+2/3'
35 '-y+1/3, x-y+2/3, z+2/3'
36 'x+1/3, y+2/3, z+2/3'
loop_
_atom_type_symbol
_atom_type_oxidation_number
Na1+ 1
Fe2+ 2.12
Fe3+ 3
As5+ 5
O2- -2
loop_
_atom_site_label
_atom_site_type_symbol
_atom_site_symmetry_multiplicity
_atom_site_Wyckoff_symbol
_atom_site_fract_x
_atom_site_fract_y
_atom_site_fract_z
_atom_site_B_iso_or_equiv
_atom_site_occupancy
_atom_site_attached_hydrogens
Na1 Na1+ 6 b 0 0 0 1.31(22) 1. 0
Na2 Na1+ 36 f 0.7915(4) 0.0166(4) 0.0537(2) 1.74(15) 0.98(2) 0
Fe1 Fe2+ 6 a 0 0 0.25 0.59(7) 1. 0
Fe2 Fe3+ 18 e 0.7804(1) 0 0.25 0.47(6) 1. 0
As1 As5+ 36 f 0.18456(6) 0.98870(6) 0.14550(5) 0.56(2) 1. 0
O1 O2- 36 f 0.5279(5) 0.0620(5) 0.1472(3) 0.97(18) 1. 0
O2 O2- 36 f 0.7130(5) 0.0545(5) 0.1781(3) 1.00(19) 1. 0
O3 O2- 36 f 0.5924(5) 0.1874(5) 0.0210(3) 0.88(17) 1. 0
O4 O2- 36 f 0.0251(6) 0.1644(6) 0.0608(3) 1.14(19) 1. 0
#End of TTdata_80330-ICSD