
#(C) 2019 by FIZ Karlsruhe - Leibniz Institute for Information Infrastructure.  All rights reserved.
data_80417-ICSD
_database_code_ICSD 80417
_audit_creation_date 1997-05-13
_audit_update_record 2006-04-01
_chemical_name_systematic 'Disodium copper diphosphate(V) - alpha'
_chemical_formula_structural 'Na2 Cu (P2 O7)'
_chemical_formula_sum 'Cu1 Na2 O7 P2'
_chemical_name_structure_type Li2MnP2O7
_exptl_crystal_density_diffrn 3.1
_cell_measurement_temperature 295.
_publ_section_title 'The crystal structure of alpha- and beta- Na2 Cu P2 O7'
loop_
_citation_id
_citation_journal_full
_citation_year
_citation_journal_volume
_citation_page_first
_citation_page_last
_citation_journal_id_ASTM
primary 'Journal of Solid State Chemistry' 1995 120 23 31 JSSCBI
loop_
_publ_author_name
'Erragh, F.'
'Boukhari, A.'
'Abraham, F.'
'Elouadi, B.'
_cell_length_a 8.823(3)
_cell_length_b 13.494(3)
_cell_length_c 5.108(2)
_cell_angle_alpha 90.
_cell_angle_beta 92.77(3)
_cell_angle_gamma 90.
_cell_volume 607.44
_cell_formula_units_Z 4
_symmetry_space_group_name_H-M 'P 1 21/n 1'
_symmetry_Int_Tables_number 14
_refine_ls_R_factor_all 0.02
loop_
_symmetry_equiv_pos_site_id
_symmetry_equiv_pos_as_xyz
1 '-x+1/2, y+1/2, -z+1/2'
2 '-x, -y, -z'
3 'x+1/2, -y+1/2, z+1/2'
4 'x, y, z'
loop_
_atom_type_symbol
_atom_type_oxidation_number
Cu2+ 2
P5+ 5
Na1+ 1
O2- -2
loop_
_atom_site_label
_atom_site_type_symbol
_atom_site_symmetry_multiplicity
_atom_site_Wyckoff_symbol
_atom_site_fract_x
_atom_site_fract_y
_atom_site_fract_z
_atom_site_B_iso_or_equiv
_atom_site_occupancy
_atom_site_attached_hydrogens
Cu1 Cu2+ 4 e 0.25768(3) 0.15840(2) 0.20512(5) 0.77 1. 0
P1 P5+ 4 e 0.72850(6) 0.46307(4) 0.20705(10) 0.7 1. 0
P2 P5+ 4 e 0.95594(6) 0.31901(4) 0.2288(1) 0.67 1. 0
Na1 Na1+ 4 e 0.6517(1) 0.2082(1) 0.2335(2) 1.22 1. 0
Na2 Na1+ 4 e 0.1308(1) 0.8902(1) 0.2188(2) 1.49 1. 0
O1 O2- 4 e 0.9119(2) 0.2756(1) 0.4915(3) 0.95 1. 0
O2 O2- 4 e 0.8603(2) 0.2741(1) 0.0019(3) 0.89 1. 0
O3 O2- 4 e 0.6785(2) 0.4470(1) -.0808(3) 1.04 1. 0
O4 O2- 4 e 0.6503(2) 0.3873(1) 0.3816(2) 0.89 1. 0
O5 O2- 4 e 0.7153(2) 0.5674(1) 0.2945(3) 1.35 1. 0
O6 O2- 4 e 0.1232(2) 0.3120(1) 0.1925(3) 1.14 1. 0
O7 O2- 4 e 0.9084(2) 0.4344(1) 0.2344(3) 0.93 1. 0
#End of TTdata_80417-ICSD