
#(C) 2019 by FIZ Karlsruhe - Leibniz Institute for Information Infrastructure.  All rights reserved.
data_80544-ICSD
_database_code_ICSD 80544
_audit_creation_date 1997-05-13
_audit_update_record 2012-02-01
_chemical_name_systematic 'Strontium sodium antimony oxide (0.99/0.24/0.73/3)'
_chemical_formula_structural 'Sr0.988 (Na0.243 Sb0.732) O3'
_chemical_formula_sum 'Na0.243 O3 Sb0.732 Sr0.988'
_chemical_name_structure_type Sr(Na,Sb)O3
_exptl_crystal_density_diffrn 5.75
_cell_measurement_temperature 295.
_publ_section_title

;
The distorted perovskite Sr (Na1/4 Sb3/4) O3 : a novel example of 1:3 B-cation
ordering
;
loop_
_citation_id
_citation_journal_full
_citation_year
_citation_journal_volume
_citation_page_first
_citation_page_last
_citation_journal_id_ASTM
primary 'Journal of Solid State Chemistry' 1990 84 16 22 JSSCBI
loop_
_publ_author_name
'Alonso, J.A.'
'Mzayek, E.'
'Rasines, I.'
_cell_length_a 8.0913(2)
_cell_length_b 8.0871(1)
_cell_length_c 8.0918(2)
_cell_angle_alpha 90.
_cell_angle_beta 89.953(1)
_cell_angle_gamma 90.
_cell_volume 529.49
_cell_formula_units_Z 8
_symmetry_space_group_name_H-M 'P 1 21/n 1'
_symmetry_Int_Tables_number 14
_refine_ls_R_factor_all 0.026
loop_
_symmetry_equiv_pos_site_id
_symmetry_equiv_pos_as_xyz
1 '-x+1/2, y+1/2, -z+1/2'
2 '-x, -y, -z'
3 'x+1/2, -y+1/2, z+1/2'
4 'x, y, z'
loop_
_atom_type_symbol
_atom_type_oxidation_number
Sr2+ 2
Na1+ 1
Sb5+ 5
O1- -1.96
loop_
_atom_site_label
_atom_site_type_symbol
_atom_site_symmetry_multiplicity
_atom_site_Wyckoff_symbol
_atom_site_fract_x
_atom_site_fract_y
_atom_site_fract_z
_atom_site_B_iso_or_equiv
_atom_site_occupancy
_atom_site_attached_hydrogens
Sr1 Sr2+ 4 e 0.2514(13) 0.25 0.2401(10) 1.33(3) 0.988(4) 0
Sr2 Sr2+ 4 e 0.2405(10) 0.75 0.7678(7) 1.33(3) 0.988(4) 0
Na1 Na1+ 2 a 0 0 0 1.43(29) 0.972(24) 0
Sb1 Sb5+ 2 b 0 0 0.5 0.41(6) 0.976(8) 0
Sb2 Sb5+ 2 c 0.5 0 0.5 0.41(6) 0.976(8) 0
Sb3 Sb5+ 2 d 0.5 0 0 0.41(6) 0.976(8) 0
O1 O1- 4 e 0.2646(14) -.0316(16) 0.0406(13) 1.68(15) 1. 0
O2 O1- 4 e -.0188(16) -.0259(22) 0.2645(17) 2.69(16) 1. 0
O3 O1- 4 e 0.0228(12) 0.2656(17) 0.0287(11) 1.73(11) 1. 0
O4 O1- 4 e 0.5304(15) 0.0269(26) 0.25 2.16(16) 1. 0
O5 O1- 4 e 0.4529(8) 0.25 -.0253(11) 1.11(11) 1. 0
O6 O1- 4 e 0.25 0.0332(17) 0.4742(16) 0.42(14) 1. 0
#End of TTdata_80544-ICSD