
#(C) 2019 by FIZ Karlsruhe - Leibniz Institute for Information Infrastructure.  All rights reserved.
data_80605-ICSD
_database_code_ICSD 80605
_audit_creation_date 1997-05-13
_chemical_name_systematic 'Sodium niobium phosphorus oxide (2.7/6/4/26)'
_chemical_formula_structural 'Na2.667 Nb6 P4 O26'
_chemical_formula_sum 'Na2.667 Nb6 O26 P4'
_exptl_crystal_density_diffrn 3.75
_publ_section_title

;
Na2+x Nb6 P4 O26 : a novel niobium phosphate bronze isotypic of the m=3 member
of the MPTBp family
;
loop_
_citation_id
_citation_journal_full
_citation_year
_citation_journal_volume
_citation_page_first
_citation_page_last
_citation_journal_id_ASTM
primary 'Journal of Solid State Chemistry' 1991 95 245 252 JSSCBI
loop_
_publ_author_name
'Benabbas, A.'
'Borel, M.M.'
'Grandin, A.'
'Leclaire, A.'
'Raveau, B.'
_cell_length_a 19.8050(10)
_cell_length_b 14.3859(7)
_cell_length_c 5.3960(4)
_cell_angle_alpha 90.
_cell_angle_beta 90.
_cell_angle_gamma 90.
_cell_volume 1537.39
_cell_formula_units_Z 3
_symmetry_space_group_name_H-M 'P 21 21 2'
_symmetry_Int_Tables_number 18
_refine_ls_R_factor_all 0.035
loop_
_symmetry_equiv_pos_site_id
_symmetry_equiv_pos_as_xyz
1 '-x+1/2, y+1/2, -z'
2 'x+1/2, -y+1/2, -z'
3 '-x, -y, z'
4 'x, y, z'
loop_
_atom_type_symbol
_atom_type_oxidation_number
Nb4+ 4.889
P5+ 5
Na1+ 1
O2- -2
loop_
_atom_site_label
_atom_site_type_symbol
_atom_site_symmetry_multiplicity
_atom_site_Wyckoff_symbol
_atom_site_fract_x
_atom_site_fract_y
_atom_site_fract_z
_atom_site_B_iso_or_equiv
_atom_site_occupancy
_atom_site_attached_hydrogens
Nb1 Nb4+ 2 a 0 0 0.2640(6) 0.77(2) 1. 0
Nb2 Nb4+ 4 c 0.33090(5) 0.97971(6) 0.2372(5) 0.71(1) 1. 0
Nb3 Nb4+ 4 c 0.11669(5) 0.10021(6) 0.7647(4) 0.62(1) 1. 0
Nb4 Nb4+ 4 c 0.43601(4) 0.09682(6) 0.7459(5) 0.49(1) 1. 0
Nb5 Nb4+ 4 c 0.77765(6) 0.11139(6) 0.7414(4) 0.65(1) 1. 0
P1 P5+ 4 c 0.2158(1) 0.1654(2) 0.264(1) 0.41(4) 1. 0
P2 P5+ 4 c 0.5369(1) 0.1787(2) 0.253(1) 0.36(4) 1. 0
P3 P5+ 4 c 0.8842(1) 0.1708(2) 0.2332(9) 0.35(4) 1. 0
Na1 Na1+ 4 c 0.0587(3) 0.2161(4) 0.242(3) 1.18(9) 1. 0
Na2 Na1+ 4 c 0.3779(4) 0.2060(5) 0.246(4) 1.4(1) 1. 0
O1 O2- 4 c 0.0642(6) 0.0530(8) 0.023(3) 1.2(2) 1. 0
O2 O2- 4 c -.0453(4) 0.1262(6) 0.271(3) 0.9(1) 1. 0
O3 O2- 4 c 0.0598(5) 0.0459(7) 0.517(2) 0.8(2) 1. 0
O4 O2- 4 c 0.2595(4) 0.0781(5) 0.273(3) 0.7(1) 1. 0
O5 O2- 4 c 0.3915(6) 0.0540(7) 0.474(2) 0.9(2) 1. 0
O6 O2- 4 c 0.2765(6) -.0931(6) 0.026(2) 0.7(1) 1. 0
O7 O2- 4 c 0.4030(5) 0.8874(6) 0.214(2) 1.1(2) 1. 0
O8 O2- 4 c 0.3714(5) 0.0546(7) -.022(2) 0.9(2) 1. 0
O9 O2- 4 c 0.2940(5) -.0832(7) 0.536(2) 0.7(1) 1. 0
O10 O2- 4 c 0.0626(4) 0.2218(5) 0.765(3) 0.7(1) 1. 0
O11 O2- 4 c 0.1737(5) 0.1721(7) 0.493(2) 1.0(2) 1. 0
O12 O2- 4 c 0.1686(6) 0.1680(7) 0.036(2) 1.1(2) 1. 0
O13 O2- 4 c 0.1849(4) 0.0094(5) 0.757(4) 0.7(1) 1. 0
O14 O2- 4 c 0.3910(5) 0.2242(6) 0.712(2) 0.7(1) 1. 0
O15 O2- 2 b 0.5 0 0.780(4) 1.0(2) 1. 0
O16 O2- 4 c 0.4855(5) 0.1653(7) 0.054(2) 0.7(2) 1. 0
O17 O2- 4 c 0.5085(5) 0.1655(7) 0.514(2) 1.0(2) 1. 0
O18 O2- 4 c 0.7627(4) 0.2516(5) 0.725(2) 0.5(1) 1. 0
O19 O2- 4 c 0.8577(5) 0.1543(6) -.024(2) 0.6(1) 1. 0
O20 O2- 4 c 0.8400(5) 0.1315(7) 0.441(2) 0.8(2) 1. 0
#End of TTdata_80605-ICSD