
#(C) 2019 by FIZ Karlsruhe - Leibniz Institute for Information Infrastructure.  All rights reserved.
data_80813-ICSD
_database_code_ICSD 80813
_audit_creation_date 1997-05-13
_audit_update_record 2010-02-01
_chemical_name_systematic 'Sodium vanadium oxide (1/6/15)'
_chemical_formula_structural 'Na V6 O15'
_chemical_formula_sum 'Na1 O15 V6'
_chemical_name_structure_type NaxV2O5
_chemical_name_mineral Bannermanite
_exptl_crystal_density_diffrn 3.56
_publ_section_title 'Refinement of the structure of Na V6 O15'
loop_
_citation_id
_citation_journal_full
_citation_year
_citation_journal_volume
_citation_page_first
_citation_page_last
_citation_journal_id_ASTM
primary 'Zhurnal Neorganicheskoi Khimii' 1989 34 295 298 ZNOKAQ
loop_
_publ_author_name
'Khamaganova, T.N.'
'Trunov, V.K.'
_cell_length_a 10.088(3)
_cell_length_b 3.617(2)
_cell_length_c 15.449(3)
_cell_angle_alpha 90.
_cell_angle_beta 109.57(2)
_cell_angle_gamma 90.
_cell_volume 531.14
_cell_formula_units_Z 2
_symmetry_space_group_name_H-M 'A 1 2/m 1'
_symmetry_Int_Tables_number 12
_refine_ls_R_factor_all 0.046
loop_
_symmetry_equiv_pos_site_id
_symmetry_equiv_pos_as_xyz
1 'x, -y, z'
2 '-x, -y, -z'
3 '-x, y, -z'
4 'x, y, z'
5 'x, -y+1/2, z+1/2'
6 '-x, -y+1/2, -z+1/2'
7 '-x, y+1/2, -z+1/2'
8 'x, y+1/2, z+1/2'
loop_
_atom_type_symbol
_atom_type_oxidation_number
V4+ 4.83
Na1+ 1
O2- -2
loop_
_atom_site_label
_atom_site_type_symbol
_atom_site_symmetry_multiplicity
_atom_site_Wyckoff_symbol
_atom_site_fract_x
_atom_site_fract_y
_atom_site_fract_z
_atom_site_B_iso_or_equiv
_atom_site_occupancy
_atom_site_attached_hydrogens
V1 V4+ 4 i 0.10051(8) 0 0.33753(5) 0.43(1) 1. 0
V2 V4+ 4 i 0.88066(8) 0.5 0.38376(5) 0.51(1) 1. 0
V3 V4+ 4 i 0.40985(8) 0 0.28785(5) 0.47(1) 1. 0
Na1 Na1+ 4 i 0.4039(6) 0.5 0.5011(4) 1.46(9) 0.5 0
O1 O2- 4 i 0.0556(4) 0.5 0.3143(2) 0.62(5) 1. 0
O2 O2- 4 i 0.2201(1) 0 0.4364(3) 1.17(6) 1. 0
O3 O2- 4 i 0.7280(4) 0.5 0.3935(3) 0.96(6) 1. 0
O4 O2- 4 i 0.4255(3) 0.5 0.2568(3) 0.71(5) 1. 0
O5 O2- 4 i 0.9224(3) 0 0.3663(2) 0.54(5) 1. 0
O6 O2- 4 i 0.2233(3) 0 0.2633(2) 0.60(5) 1. 0
O7 O2- 4 i 0.4710(4) 0 0.3977(3) 1.11(6) 1. 0
O8 O2- 2 a 0 0.5 0.5 0.98(8) 1. 0
#End of TTdata_80813-ICSD