
#(C) 2019 by FIZ Karlsruhe - Leibniz Institute for Information Infrastructure.  All rights reserved.
data_80815-ICSD
_database_code_ICSD 80815
_audit_creation_date 1997-05-13
_chemical_name_systematic 'Sodium tetralead tris(vanadate)'
_chemical_formula_structural 'Na Pb4 (V O4)3'
_chemical_formula_sum 'Na1 O12 Pb4 V3'
_chemical_name_structure_type Er3Pb1.5(SiO4)3
_exptl_crystal_density_diffrn 6.19
_publ_section_title 'Alkali metal lead double vanadates'
loop_
_citation_id
_citation_journal_full
_citation_year
_citation_journal_volume
_citation_page_first
_citation_page_last
_citation_journal_id_ASTM
primary 'Zhurnal Neorganicheskoi Khimii' 1989 34 3004 3007 ZNOKAQ
loop_
_publ_author_name
'Sirotinkin, S.P.'
'Oboznenko, Yu.V.'
'Nevskii, N.N.'
_cell_length_a 10.059(1)
_cell_length_b 10.059(1)
_cell_length_c 7.330(1)
_cell_angle_alpha 90.
_cell_angle_beta 90.
_cell_angle_gamma 120.
_cell_volume 642.31
_cell_formula_units_Z 2
_symmetry_space_group_name_H-M 'P 63/m'
_symmetry_Int_Tables_number 176
_refine_ls_R_factor_all 0.047
loop_
_symmetry_equiv_pos_site_id
_symmetry_equiv_pos_as_xyz
1 '-x+y, -x, -z+1/2'
2 '-y, x-y, -z+1/2'
3 'x, y, -z+1/2'
4 'x-y, x, -z'
5 'y, -x+y, -z'
6 '-x, -y, -z'
7 'x-y, x, z+1/2'
8 'y, -x+y, z+1/2'
9 '-x, -y, z+1/2'
10 '-x+y, -x, z'
11 '-y, x-y, z'
12 'x, y, z'
loop_
_atom_type_symbol
_atom_type_oxidation_number
Pb2+ 2
Na1+ 1
V5+ 5
O2- -2
loop_
_atom_site_label
_atom_site_type_symbol
_atom_site_symmetry_multiplicity
_atom_site_Wyckoff_symbol
_atom_site_fract_x
_atom_site_fract_y
_atom_site_fract_z
_atom_site_B_iso_or_equiv
_atom_site_occupancy
_atom_site_attached_hydrogens
Pb1 Pb2+ 6 h 0.2520(1) 0.2527(1) 0.25 1.28(9) 1. 0
Pb2 Pb2+ 4 f 0.3333 0.6667 -.0126(4) 0.98(3) 0.5 0
Na1 Na1+ 4 f 0.3333 0.6667 -.0126(4) 0.98(3) 0.5 0
V1 V5+ 6 h 0.3804(5) 0.9816(5) 0.25 0.55(9) 1. 0
O1 O2- 6 h 0.485(2) 0.180(2) 0.25 0.7(3) 1. 0
O2 O2- 12 i 0.085(2) 0.347(3) 0.430(4) 3.0(4) 1. 0
O3 O2- 6 h 0.403(3) 0.509(3) 0.25 2.0(5) 1. 0
#End of TTdata_80815-ICSD