
#(C) 2019 by FIZ Karlsruhe - Leibniz Institute for Information Infrastructure.  All rights reserved.
data_80833-ICSD
_database_code_ICSD 80833
_audit_creation_date 1997-05-13
_audit_update_record 1999-11-30
_chemical_name_systematic 'Sodium calcium silicon oxide (1.8/1.1/6/14)'
_chemical_formula_structural 'Na1.8 Ca1.1 (Si6 O14)'
_chemical_formula_sum 'Ca1.1 Na1.8 O14 Si6'
_chemical_name_structure_type Ca3Ga2Ge4O14
_exptl_crystal_density_diffrn 3.19
_publ_section_title
'Stability and structure of a new high pressure silicate, Na1.8 Ca1.1 Si6 O14'
loop_
_citation_id
_citation_journal_full
_citation_year
_citation_journal_volume
_citation_page_first
_citation_page_last
_citation_journal_id_ASTM
primary 'American Mineralogist' 1995 80 1269 1276 AMMIAY
loop_
_publ_author_name
'Gasparik, T.'
'Parise, J.B.'
'Eiben, B.A.'
'Hriljac, J.A.'
_cell_length_a 7.903(2)
_cell_length_b 7.903(2)
_cell_length_c 4.595(1)
_cell_angle_alpha 90.
_cell_angle_beta 90.
_cell_angle_gamma 120.
_cell_volume 248.54
_cell_formula_units_Z 1
_symmetry_space_group_name_H-M 'P 3 2 1'
_symmetry_Int_Tables_number 150
_refine_ls_R_factor_all 0.019
loop_
_symmetry_equiv_pos_site_id
_symmetry_equiv_pos_as_xyz
1 'x-y, -y, -z'
2 '-x, -x+y, -z'
3 'y, x, -z'
4 '-x+y, -x, z'
5 '-y, x-y, z'
6 'x, y, z'
loop_
_atom_type_symbol
_atom_type_oxidation_number
Si4+ 4
Na1+ 1
Ca2+ 2
O2- -2
loop_
_atom_site_label
_atom_site_type_symbol
_atom_site_symmetry_multiplicity
_atom_site_Wyckoff_symbol
_atom_site_fract_x
_atom_site_fract_y
_atom_site_fract_z
_atom_site_B_iso_or_equiv
_atom_site_occupancy
_atom_site_attached_hydrogens
Si1 Si4+ 2 d 0.6667 0.3333 0.4899(1) . 1. 0
Si2 Si4+ 3 f 0.74751(6) 0.74751(6) 0.5 . 1. 0
Si3 Si4+ 1 a 0 0 0 . 1. 0
Na1 Na1+ 3 e 0.41485(8) 0.41485(8) 0 . 0.6 0
Ca1 Ca2+ 3 e 0.41485(8) 0.41485(8) 0 . 0.367 0
O1 O2- 6 g 0.7021(2) 0.5394(1) 0.3505(2) . 1. 0
O2 O2- 2 d 0.6667 0.3333 0.8288(4) . 1. 0
O3 O2- 6 g 0.8963(2) 0.7899(1) 0.7684(2) . 1. 0
loop_
_atom_site_aniso_label
_atom_site_aniso_type_symbol
_atom_site_aniso_U_11
_atom_site_aniso_U_22
_atom_site_aniso_U_33
_atom_site_aniso_U_12
_atom_site_aniso_U_13
_atom_site_aniso_U_23
Si1 Si4+ 0.0055(2) 0.0055(2) 0.0056(2) 0.0028(1) 0 0
Si2 Si4+ 0.0050(2) 0.0050(2) 0.0040(2) 0.0025(2) -.0003(1) -.0003(1)
Si3 Si4+ 0.0054(2) 0.0054(2) 0.0033(3) 0.0027(1) 0 0
Na1 Na1+ 0.0107(2) 0.0107(2) 0.0093(2) 0.0040(2) 0.0005(1) 0.0005(1)
Ca1 Ca2+ 0.0107(2) 0.0107(2) 0.0093(2) 0.0040(2) 0.0005(1) 0.0005(1)
O1 O2- 0.0178(5) 0.0067(4) 0.0081(4) 0.0065(4) -.0027(4) -.0011(3)
O2 O2- 0.0206(6) 0.0206(6) 0.0059(6) 0.0103(3) 0 0
O3 O2- 0.0073(4) 0.0069(4) 0.0053(3) 0.0039(4) -.0021(3) -.0011(2)
#End of TTdata_80833-ICSD