
#(C) 2019 by FIZ Karlsruhe - Leibniz Institute for Information Infrastructure.  All rights reserved.
data_81079-ICSD
_database_code_ICSD 81079
_audit_creation_date 1997-05-13
_chemical_name_systematic
'Sodium molybdenum tungsten oxide phosphate (0.75/1.17/0.83/3/2)'
_chemical_formula_structural 'Na0.75 (Mo1.17 W0.83 O3) (P O4)2'
_chemical_formula_sum 'Mo1.17 Na0.75 O11 P2 W0.83'
_exptl_crystal_density_diffrn 4.3
_publ_section_title

;
A mixed-valent molybdenotungsten monophosphate with a tunnel structure : Nax
(Mo, W)2 O3 (P O4)2
;
loop_
_citation_id
_citation_journal_full
_citation_year
_citation_journal_volume
_citation_page_first
_citation_page_last
_citation_journal_id_ASTM
primary 'Journal of Solid State Chemistry' 1995 120 353 357 JSSCBI
loop_
_publ_author_name
'Leclaire, A.'
'Borel, M.M.'
'Chardon, J.'
'Raveau, B.'
_cell_length_a 7.200(1)
_cell_length_b 6.369(1)
_cell_length_c 9.123(1)
_cell_angle_alpha 90.
_cell_angle_beta 106.29(1)
_cell_angle_gamma 90.
_cell_volume 401.56
_cell_formula_units_Z 2
_symmetry_space_group_name_H-M 'P 1 21/m 1'
_symmetry_Int_Tables_number 11
_refine_ls_R_factor_all 0.046
loop_
_symmetry_equiv_pos_site_id
_symmetry_equiv_pos_as_xyz
1 'x, -y+1/2, z'
2 '-x, -y, -z'
3 '-x, y+1/2, -z'
4 'x, y, z'
loop_
_atom_type_symbol
_atom_type_oxidation_number
W6+ 6
Mo6+ 6
W6+ 6
Mo5+ 5
P5+ 5
Na1+ 1
O2- -2
loop_
_atom_site_label
_atom_site_type_symbol
_atom_site_symmetry_multiplicity
_atom_site_Wyckoff_symbol
_atom_site_fract_x
_atom_site_fract_y
_atom_site_fract_z
_atom_site_B_iso_or_equiv
_atom_site_occupancy
_atom_site_attached_hydrogens
W1 W6+ 2 e 0.1099(1) 0.25 0.20000(9) 0.46(2) 0.58 0
Mo1 Mo6+ 2 e 0.1099(1) 0.25 0.20000(9) 0.46(32) 0.42 0
W2 W6+ 2 e 0.3115(1) 0.25 0.6345(1) 0.56(3) 0.25 0
Mo2 Mo5+ 2 e 0.3115(1) 0.25 0.6345(1) 0.56(3) 0.75 0
P1 P5+ 2 e 0.4117(5) 0.75 0.6106(4) 0.63(8) 1. 0
P2 P5+ 2 e 0.0167(5) 0.75 0.1738(4) 0.71(8) 1. 0
Na1 Na1+ 4 f 0.481(5) 0.594(5) 0.959(4) 3.5(6) 0.1875 0
Na2 Na1+ 4 f 0.391(5) 0.496(5) 0.018(4) 3.2(6) 0.1875 0
O1 O2- 2 e 0.864(1) 0.25 0.128(1) 1.18(2) 1. 0
O2 O2- 2 e 0.132(1) 0.25 0.394(1) 0.87(2) 1. 0
O3 O2- 4 f 0.149(1) 0.556(1) 0.184(1) 0.87(2) 1. 0
O4 O2- 2 e 0.144(1) 0.25 -.026(1) 1.11(2) 1. 0
O5 O2- 2 e 0.419(1) 0.25 0.247(1) 0.87(2) 1. 0
O6 O2- 2 e 0.454(2) 0.25 0.816(1) 1.97(3) 1. 0
O7 O2- 2 e 0.067(1) 0.25 0.690(1) 0.95(2) 1. 0
O8 O2- 4 f 0.283(1) 0.557(1) 0.607(1) 1.11(2) 1. 0
O9 O2- 2 e 0.523(1) 0.25 0.535(1) 0.95(2) 1. 0
#End of TTdata_81079-ICSD