
#(C) 2019 by FIZ Karlsruhe - Leibniz Institute for Information Infrastructure.  All rights reserved.
data_81195-ICSD
_database_code_ICSD 81195
_audit_creation_date 1997-11-05
_audit_update_record 2003-04-01
_chemical_name_systematic 'Disodium tecto-dialumotrisilicate dihydrate'
_chemical_formula_structural 'Na2 (Al2 Si3 O10) (H2 O)2'
_chemical_formula_sum 'H4 Al2 Na2 O12 Si3'
_chemical_name_structure_type Natrolite-frame
_chemical_name_mineral Natrolite
_exptl_crystal_density_diffrn 2.26
_publ_section_title
'Powder X-ray characterisation of natrolite, Na2 Al2 Si3 O10 . 2(H2 O)'
loop_
_citation_id
_citation_journal_full
_citation_year
_citation_journal_volume
_citation_page_first
_citation_page_last
_citation_journal_id_ASTM
primary 'Powder Diffraction' 1995 10 243 247 PODIE2
loop_
_publ_author_name
'Finch, A.A.'
'Fletcher, J.G.'
'Kindness, A.'
'Skakle, J.M.S.'
_cell_length_a 18.29839(70)
_cell_length_b 18.65018(80)
_cell_length_c 6.5589(3)
_cell_angle_alpha 90.
_cell_angle_beta 90.
_cell_angle_gamma 90.
_cell_volume 2238.34
_cell_formula_units_Z 8
_symmetry_space_group_name_H-M 'F d d 2'
_symmetry_Int_Tables_number 43
_refine_ls_R_factor_all 0.069
loop_
_symmetry_equiv_pos_site_id
_symmetry_equiv_pos_as_xyz
1 'x+1/4, -y+1/4, z+1/4'
2 '-x+1/4, y+1/4, z+1/4'
3 '-x, -y, z'
4 'x, y, z'
5 'x+1/4, -y+3/4, z+3/4'
6 '-x+1/4, y+3/4, z+3/4'
7 '-x, -y+1/2, z+1/2'
8 'x, y+1/2, z+1/2'
9 'x+3/4, -y+1/4, z+3/4'
10 '-x+3/4, y+1/4, z+3/4'
11 '-x+1/2, -y, z+1/2'
12 'x+1/2, y, z+1/2'
13 'x+3/4, -y+3/4, z+1/4'
14 '-x+3/4, y+3/4, z+1/4'
15 '-x+1/2, -y+1/2, z'
16 'x+1/2, y+1/2, z'
loop_
_atom_type_symbol
_atom_type_oxidation_number
Si4+ 4
Al3+ 3
O2- -2
Na1+ 1
O2- -2
H1+ 1
loop_
_atom_site_label
_atom_site_type_symbol
_atom_site_symmetry_multiplicity
_atom_site_Wyckoff_symbol
_atom_site_fract_x
_atom_site_fract_y
_atom_site_fract_z
_atom_site_B_iso_or_equiv
_atom_site_occupancy
_atom_site_attached_hydrogens
Si1 Si4+ 8 a 0 0 0 0.037(6) 1. 0
Si2 Si4+ 16 b 0.153(1) 0.211(1) 0.615(3) 0.026(4) 1. 0
Al1 Al3+ 16 b 0.039(1) 0.095(1) 0.601(3) 0.030(4) 1. 0
O1 O2- 16 b 0.022(1) 0.069(1) 0.868(5) 0.038(8) 1. 0
O2 O2- 16 b 0.070(1) 0.181(1) 0.604(5) 0.007(6) 1. 0
O3 O2- 16 b 0.098(1) 0.036(1) 0.491(5) 0.027(8) 1. 0
O4 O2- 16 b 0.207(1) 0.155(1) 0.718(4) 0.035(9) 1. 0
O5 O2- 16 b 0.179(1) 0.227(1) 0.389(5) 0.034(8) 1. 0
Na1 Na1+ 16 b 0.219(1) 0.033(1) 0.611(4) 0.036(4) 1. 0
O6 O2- 16 b 0.057(1) 0.188(1) 0.117(5) 0.071(9) 1. 0
H1 H1+ 16 b 0.051(1) 0.148(1) 0.017(6) 0.050(9) 1. 0
H2 H1+ 16 b 0.090(1) 0.188(1) 0.161(5) 0.050(9) 1. 0
#End of TTdata_81195-ICSD