
#(C) 2019 by FIZ Karlsruhe - Leibniz Institute for Information Infrastructure.  All rights reserved.
data_81221-ICSD
_database_code_ICSD 81221
_audit_creation_date 1997-11-05
_chemical_name_systematic 'Sodium cobalt undecafluorodizirconate'
_chemical_formula_structural 'Na Co (Zr2 F11)'
_chemical_formula_sum 'Co1 F11 Na1 Zr2'
_chemical_name_structure_type AgPdZr2F11
_exptl_crystal_density_diffrn 3.75
_publ_section_title 'Na M(II) Zr2 F11 (M(II) = Mn, Fe, Co, Ni, Zn) fluorides'
loop_
_citation_id
_citation_journal_full
_citation_year
_citation_journal_volume
_citation_page_first
_citation_page_last
_citation_journal_id_ASTM
primary 'Acta Crystallographica, Section C: Crystal Structure Communications'
1995 51 2207 2210 ACSCEE
loop_
_publ_author_name
'Kettani, M.H.'
'Avignant, D.'
'Metin, J.'
_cell_length_a 9.037(1)
_cell_length_b 6.700(1)
_cell_length_c 7.725(2)
_cell_angle_alpha 90.
_cell_angle_beta 116.26(1)
_cell_angle_gamma 90.
_cell_volume 419.46
_cell_formula_units_Z 2
_symmetry_space_group_name_H-M 'C 1 2/m 1'
_symmetry_Int_Tables_number 12
_refine_ls_R_factor_all 0.024
loop_
_symmetry_equiv_pos_site_id
_symmetry_equiv_pos_as_xyz
1 '-x, y, -z'
2 '-x, -y, -z'
3 'x, -y, z'
4 'x, y, z'
5 '-x+1/2, y+1/2, -z'
6 '-x+1/2, -y+1/2, -z'
7 'x+1/2, -y+1/2, z'
8 'x+1/2, y+1/2, z'
loop_
_atom_type_symbol
_atom_type_oxidation_number
Na1+ 1
Co2+ 2
Zr4+ 4
F1- -1
loop_
_atom_site_label
_atom_site_type_symbol
_atom_site_symmetry_multiplicity
_atom_site_Wyckoff_symbol
_atom_site_fract_x
_atom_site_fract_y
_atom_site_fract_z
_atom_site_B_iso_or_equiv
_atom_site_occupancy
_atom_site_attached_hydrogens
Na1 Na1+ 2 a 0 0 0 . 1. 0
Co1 Co2+ 2 c 0 0 0.5 . 1. 0
Zr1 Zr4+ 4 i 0.50490(2) 0 0.23574(3) . 1. 0
F1 F1- 2 d 0 0.5 0.5 . 1. 0
F2 F1- 4 g 0 0.3292(3) 0 . 1. 0
F3 F1- 4 i 0.2479(2) 0 0.6494(3) . 1. 0
F4 F1- 4 i 0.2668(3) 0 0.1095(4) . 1. 0
F5 F1- 8 j 0.0154(1) 0.2066(2) 0.3124(2) . 1. 0
loop_
_atom_site_aniso_label
_atom_site_aniso_type_symbol
_atom_site_aniso_U_11
_atom_site_aniso_U_22
_atom_site_aniso_U_33
_atom_site_aniso_U_12
_atom_site_aniso_U_13
_atom_site_aniso_U_23
Na1 Na1+ 0.0128(6) 0.0097(8) 0.107(2) 0 0.0155(8) 0
Co1 Co2+ 0.0084(1) 0.0085(2) 0.0078(1) 0 0.00386(8) 0
Zr1 Zr4+ 0.00770(5) 0.00767(7) 0.00588(5) 0 0.00365(3) 0
F1 F1- 0.089(1) 0.018(1) 0.0251(7) 0 0.0414(6) 0
F2 F1- 0.0321(6) 0.0082(6) 0.0136(4) 0 0.0140(3) 0
F3 F1- 0.0078(5) 0.0292(9) 0.0217(7) 0 0.0026(5) 0
F4 F1- 0.0094(5) 0.035(1) 0.044(1) 0 0.0080(5) 0
F5 F1- 0.0285(4) 0.0115(4) 0.0164(3) -.0003(4) 0.0134(2) 0.0026(3)
#End of TTdata_81221-ICSD