
#(C) 2019 by FIZ Karlsruhe - Leibniz Institute for Information Infrastructure.  All rights reserved.
data_81226-ICSD
_database_code_ICSD 81226
_audit_creation_date 1997-11-05
_audit_update_record 2015-02-01
_chemical_name_systematic 'Magnesium trisodium hydrogen phosphate'
_chemical_formula_structural 'Mg Na3 H (P O4)2'
_chemical_formula_sum 'H1 Mg1 Na3 O8 P2'
_chemical_name_structure_type HMgNa3(PO4)2
_exptl_crystal_density_diffrn 2.88
_publ_section_title
'Synthetic magnesiumsodium hydrogen monophosphate : Mg Na3 H (P O4)2'
loop_
_citation_id
_citation_journal_full
_citation_year
_citation_journal_volume
_citation_page_first
_citation_page_last
_citation_journal_id_ASTM
primary 'Acta Crystallographica, Section C: Crystal Structure Communications'
1995 51 2220 2222 ACSCEE
loop_
_publ_author_name
'Kawahara, A.'
'Yamakawa, J.'
'Yamada, T.'
'Kobashi, D.'
_cell_length_a 5.230(3)
_cell_length_b 6.822(1)
_cell_length_c 5.175(2)
_cell_angle_alpha 91.54(2)
_cell_angle_beta 117.51(3)
_cell_angle_gamma 90.46(3)
_cell_volume 163.66
_cell_formula_units_Z 1
_symmetry_space_group_name_H-M 'P -1'
_symmetry_Int_Tables_number 2
_refine_ls_R_factor_all 0.026
loop_
_symmetry_equiv_pos_site_id
_symmetry_equiv_pos_as_xyz
1 '-x, -y, -z'
2 'x, y, z'
loop_
_atom_type_symbol
_atom_type_oxidation_number
Na1+ 1
Mg2+ 2
P5+ 5
O2- -2
H1+ 1
loop_
_atom_site_label
_atom_site_type_symbol
_atom_site_symmetry_multiplicity
_atom_site_Wyckoff_symbol
_atom_site_fract_x
_atom_site_fract_y
_atom_site_fract_z
_atom_site_B_iso_or_equiv
_atom_site_occupancy
_atom_site_attached_hydrogens
Na1 Na1+ 2 i 0.7000(3) 0.2086(2) 0.3355(2) . 1. 0
Na2 Na1+ 1 c 0 0.5 0 . 1. 0
Mg1 Mg2+ 1 a 0 0 0 . 1. 0
P1 P5+ 2 i 0.6469(1) 0.7562(1) 0.3396(1) . 1. 0
O1 O2- 2 i 0.7854(4) 0.8943(3) 0.2127(4) . 1. 0
O2 O2- 2 i 0.3226(4) 0.7919(3) 0.2125(4) . 1. 0
O3 O2- 2 i 0.6834(4) 0.5415(3) 0.2487(4) . 1. 0
O4 O2- 2 i 0.2039(4) 0.2247(3) 0.3277(4) . 1. 0
H1 H1+ 1 e 0.5 0.5 0 . 1. 0
loop_
_atom_site_aniso_label
_atom_site_aniso_type_symbol
_atom_site_aniso_beta_11
_atom_site_aniso_beta_22
_atom_site_aniso_beta_33
_atom_site_aniso_beta_12
_atom_site_aniso_beta_13
_atom_site_aniso_beta_23
Na1 Na1+ 0.0195(6) 0.0049(2) 0.0155(5) 0.0027(3) 0.0019(2) 0.0113(5)
Na2 Na1+ 0.0146(8) 0.0057(3) 0.0205(8) -.0006(4) 0.0025(4) -.0006(4)
Mg1 Mg2+ 0.0058(5) 0.0025(2) 0.0051(5) 0.0005(3) 0.0009(3) 0.0030(4)
P1 P5+ 0.0041(3) 0.0017(1) 0.0032(3) 0.0002(1) 0.0003(1) 0.0015(2)
O1 O2- 0.0113(9) 0.0048(4) 0.0103(8) -.0008(4) 0.0014(4) 0.0080(7)
O2 O2- 0.0047(8) 0.0045(4) 0.0100(8) 0.0012(4) 0.0020(4) 0.0023(7)
O3 O2- 0.0134(9) 0.0024(3) 0.0096(8) 0.0017(4) -.0015(4) 0.0028(7)
O4 O2- 0.0106(8) 0.0039(3) 0.0032(7) -.0008(4) -.0002(4) 0.0015(7)
#End of TTdata_81226-ICSD