
#(C) 2018 by FIZ Karlsruhe - Leibniz Institute for Information Infrastructure.  All rights reserved.
data_81237-ICSD
_database_code_ICSD 81237
_audit_creation_date 1997-11-05
_chemical_name_systematic 'Lithium niobium oxide (1.02/1.02/3) - LT'
_chemical_formula_structural 'Li1.02 Nb1.02 O3'
_chemical_formula_sum 'Li1.02 Nb1.02 O3'
_chemical_name_structure_type LiNbO3
_exptl_crystal_density_diffrn 4.69
_cell_measurement_temperature 300.
_publ_section_title

;
A neutron powder investigation of the high-temperature structure and phase
transition in Li Nb O3
;
loop_
_citation_id
_citation_journal_full
_citation_year
_citation_journal_volume
_citation_page_first
_citation_page_last
_citation_journal_id_ASTM
primary 'Acta Crystallographica, Section B: Structural Science' 1994 50 405 414
ASBSDK
loop_
_publ_author_name
'Boysen, H.'
'Altorfer, F.'
_cell_length_a 5.1513(8)
_cell_length_b 5.1513(8)
_cell_length_c 13.8654(8)
_cell_angle_alpha 90.
_cell_angle_beta 90.
_cell_angle_gamma 120.
_cell_volume 318.64
_cell_formula_units_Z 6
_symmetry_space_group_name_H-M 'R 3 c H'
_symmetry_Int_Tables_number 161
_refine_ls_R_factor_all 0.048
loop_
_symmetry_equiv_pos_site_id
_symmetry_equiv_pos_as_xyz
1 '-x+y, y, z+1/2'
2 'x, x-y, z+1/2'
3 '-y, -x, z+1/2'
4 '-x+y, -x, z'
5 '-y, x-y, z'
6 'x, y, z'
7 '-x+y+2/3, y+1/3, z+5/6'
8 'x+2/3, x-y+1/3, z+5/6'
9 '-y+2/3, -x+1/3, z+5/6'
10 '-x+y+2/3, -x+1/3, z+1/3'
11 '-y+2/3, x-y+1/3, z+1/3'
12 'x+2/3, y+1/3, z+1/3'
13 '-x+y+1/3, y+2/3, z+1/6'
14 'x+1/3, x-y+2/3, z+1/6'
15 '-y+1/3, -x+2/3, z+1/6'
16 '-x+y+1/3, -x+2/3, z+2/3'
17 '-y+1/3, x-y+2/3, z+2/3'
18 'x+1/3, y+2/3, z+2/3'
loop_
_atom_type_symbol
_atom_type_oxidation_number
Li1+ 1
Nb4+ 4.882
O2- -2
loop_
_atom_site_label
_atom_site_type_symbol
_atom_site_symmetry_multiplicity
_atom_site_Wyckoff_symbol
_atom_site_fract_x
_atom_site_fract_y
_atom_site_fract_z
_atom_site_B_iso_or_equiv
_atom_site_occupancy
_atom_site_attached_hydrogens
Li1 Li1+ 6 a 0 0 0.3021(9) . 1.02(4) 0
Nb1 Nb4+ 6 a 0 0 0.0192(3) . 1.02(1) 0
O1 O2- 18 b 0.0478(4) 0.3428(7) 0.0833 . 1. 0
loop_
_atom_site_aniso_label
_atom_site_aniso_type_symbol
_atom_site_aniso_beta_11
_atom_site_aniso_beta_22
_atom_site_aniso_beta_33
_atom_site_aniso_beta_12
_atom_site_aniso_beta_13
_atom_site_aniso_beta_23
Li1 Li1+ 0.014(6) 0.014(6) 0.006(2) 0.007(4) 0 0
Nb1 Nb4+ 0.003(2) 0.003(2) -.0003 0.0015(10) 0 0
O1 O2- 0.001(2) 0.002(1) 0.0006(1) -.002(1) 0.0005(5) -.0006(3)
#End of TTdata_81237-ICSD