
#(C) 2019 by FIZ Karlsruhe - Leibniz Institute for Information Infrastructure.  All rights reserved.
data_81408-ICSD
_database_code_ICSD 81408
_audit_creation_date 1997-11-05
_chemical_name_systematic
'Cesium sodium lanthanum iodide nitride (0.64/0.36/9/16/4)'
_chemical_formula_structural '(Cs0.64 Na0.36) La9 I16 N4'
_chemical_formula_sum 'Cs0.64 I16 La9 N4 Na0.36'
_exptl_crystal_density_diffrn 5.08
_publ_section_title

;
A new rare-earth-metal nitride halide with unusual structural features: Csx
Na1-x La9 I16 N4 - with a remark about the stoichiometric compounds A La9 I16
N4 (A = Na, Rb, Cs)
;
loop_
_citation_id
_citation_journal_full
_citation_year
_citation_journal_volume
_citation_page_first
_citation_page_last
_citation_journal_id_ASTM
primary 'European Journal of Solid State and Inorganic Chemistry' 1996 33 241
250 EJSCE5
loop_
_publ_author_name
'Lulei, M.'
'Corbett, J.D.'
_cell_length_a 8.980(4)
_cell_length_b 22.910(20)
_cell_length_c 43.610(30)
_cell_angle_alpha 90.
_cell_angle_beta 90.
_cell_angle_gamma 90.
_cell_volume 8971.96
_cell_formula_units_Z 8
_symmetry_space_group_name_H-M 'F d d d Z'
_symmetry_Int_Tables_number 70
_refine_ls_R_factor_all 0.023
loop_
_symmetry_equiv_pos_site_id
_symmetry_equiv_pos_as_xyz
1 'x+3/4, y+3/4, -z'
2 'x+3/4, -y, z+3/4'
3 '-x, y+3/4, z+3/4'
4 '-x, -y, -z'
5 '-x+1/4, -y+1/4, z'
6 '-x+1/4, y, -z+1/4'
7 'x, -y+1/4, -z+1/4'
8 'x, y, z'
9 'x+3/4, y+1/4, -z+1/2'
10 'x+3/4, -y+1/2, z+1/4'
11 '-x, y+1/4, z+1/4'
12 '-x, -y+1/2, -z+1/2'
13 '-x+1/4, -y+3/4, z+1/2'
14 '-x+1/4, y+1/2, -z+3/4'
15 'x, -y+3/4, -z+3/4'
16 'x, y+1/2, z+1/2'
17 'x+1/4, y+3/4, -z+1/2'
18 'x+1/4, -y, z+1/4'
19 '-x+1/2, y+3/4, z+1/4'
20 '-x+1/2, -y, -z+1/2'
21 '-x+3/4, -y+1/4, z+1/2'
22 '-x+3/4, y, -z+3/4'
23 'x+1/2, -y+1/4, -z+3/4'
24 'x+1/2, y, z+1/2'
25 'x+1/4, y+1/4, -z'
26 'x+1/4, -y+1/2, z+3/4'
27 '-x+1/2, y+1/4, z+3/4'
28 '-x+1/2, -y+1/2, -z'
29 '-x+3/4, -y+3/4, z'
30 '-x+3/4, y+1/2, -z+1/4'
31 'x+1/2, -y+3/4, -z+1/4'
32 'x+1/2, y+1/2, z'
loop_
_atom_type_symbol
_atom_type_oxidation_number
La3+ 3
Cs1+ 1
Na1+ 1
I1- -1
N3- -3
loop_
_atom_site_label
_atom_site_type_symbol
_atom_site_symmetry_multiplicity
_atom_site_Wyckoff_symbol
_atom_site_fract_x
_atom_site_fract_y
_atom_site_fract_z
_atom_site_B_iso_or_equiv
_atom_site_occupancy
_atom_site_attached_hydrogens
La1 La3+ 32 h 0.02411(5) 0.01889(2) 0.46164(1) 1.23(2) 1. 0
La2 La3+ 32 h 0.93881(5) 0.15295(2) 0.51797(1) 1.11(2) 1. 0
La3 La3+ 8 b 0.125 0.125 0.625 1.51(4) 1. 0
Cs1 Cs1+ 16 g 0.625 0.125 0.38077(5) 3.0(1) 0.32(1) 0
Na1 Na1+ 16 g 0.625 0.125 0.38077(5) 3.0(1) 0.18(1) 0
I1 I1- 32 h 0.91192(6) 0.15426(2) 0.44192(1) 1.80(2) 1. 0
I2 I1- 32 h 0.16462(6) 0.92006(3) 0.41481(1) 1.94(2) 1. 0
I3 I1- 32 h 0.67351(6) 0.04641(2) 0.50327(1) 1.68(2) 1. 0
I4 I1- 32 h 0.74175(7) 0.98559(3) 0.41585(1) 2.07(3) 1. 0
N1 N3- 32 h 0.0627(7) 0.0622(3) 0.5107(1) 1.2(3) 1. 0
#End of TTdata_81408-ICSD