
#(C) 2019 by FIZ Karlsruhe - Leibniz Institute for Information Infrastructure.  All rights reserved.
data_8143-ICSD
_database_code_ICSD 8143
_audit_creation_date 1980-01-01
_audit_update_record 2006-04-01
_chemical_name_systematic 'Trisodium oxide nitrate(V)'
_chemical_formula_structural 'Na3 O (N O3)'
_chemical_formula_sum 'N1 Na3 O4'
_exptl_crystal_density_diffrn 2.57
_publ_section_title 'Kristallstruktur von Na3 N O4'
loop_
_citation_id
_citation_journal_full
_citation_year
_citation_journal_volume
_citation_page_first
_citation_page_last
_citation_journal_id_ASTM
primary 'Angewandte Chemie' 1979 91 762 762 ANCEAD
loop_
_publ_author_name
'Jansen, M.'
_cell_length_a 8.632(2)
_cell_length_b 9.731(2)
_cell_length_c 9.042(2)
_cell_angle_alpha 90.
_cell_angle_beta 90.
_cell_angle_gamma 90.
_cell_volume 759.51
_cell_formula_units_Z 8
_symmetry_space_group_name_H-M 'P b c a'
_symmetry_Int_Tables_number 61
_refine_ls_R_factor_all 0.0498
loop_
_symmetry_equiv_pos_site_id
_symmetry_equiv_pos_as_xyz
1 'x+1/2, y, -z+1/2'
2 'x, -y+1/2, z+1/2'
3 '-x+1/2, y+1/2, z'
4 '-x, -y, -z'
5 '-x+1/2, -y, z+1/2'
6 '-x, y+1/2, -z+1/2'
7 'x+1/2, -y+1/2, -z'
8 'x, y, z'
loop_
_atom_type_symbol
_atom_type_oxidation_number
Na1+ 1
N5+ 5
O2- -2
loop_
_atom_site_label
_atom_site_type_symbol
_atom_site_symmetry_multiplicity
_atom_site_Wyckoff_symbol
_atom_site_fract_x
_atom_site_fract_y
_atom_site_fract_z
_atom_site_B_iso_or_equiv
_atom_site_occupancy
_atom_site_attached_hydrogens
Na1 Na1+ 8 c -.0486(1) 0.1074(1) 0.8769(1) . 1. 0
Na2 Na1+ 8 c 0.2002(2) -.1136(1) 0.7403(1) . 1. 0
Na3 Na1+ 8 c 0.1179(1) 0.1469(1) 0.5392(1) . 1. 0
N1 N5+ 8 c 0.2886(2) 0.1196(2) 0.9015(2) . 1. 0
O1 O2- 8 c 0.2019(2) 0.1618(2) 0.7810(2) . 1. 0
O2 O2- 8 c 0.3958(2) 0.0219(2) 0.8560(2) . 1. 0
O3 O2- 8 c -.1905(2) -.0627(2) 0.9945(2) . 1. 0
O4 O2- 8 c -.1360(2) 0.2316(2) 0.5381(3) . 1. 0
loop_
_atom_site_aniso_label
_atom_site_aniso_type_symbol
_atom_site_aniso_U_11
_atom_site_aniso_U_22
_atom_site_aniso_U_33
_atom_site_aniso_U_12
_atom_site_aniso_U_13
_atom_site_aniso_U_23
Na1 Na1+ 0.0115(5) 0.0168(5) 0.0145(5) -.0024(4) 0.0007(4) 0.0005(4)
Na2 Na1+ 0.0252(6) 0.0165(5) 0.0214(6) 0.0003(4) -.0025(5) -.0040(5)
Na3 Na1+ 0.0125(5) 0.0197(5) 0.0153(5) -.0016(4) -.0011(4) 0.0007(4)
N1 N5+ 0.0092(8) 0.0096(8) 0.0083(8) -.0004(6) -.0009(7) -.0016(6)
O1 O2- 0.0168(9) 0.0244(9) 0.0128(8) 0.0066(7) -.0051(7) 0.0018(8)
O2 O2- 0.0158(8) 0.0128(8) 0.0162(8) -.0028(6) 0.0011(7) 0.0042(7)
O3 O2- 0.0159(9) 0.0328(11) 0.0166(9) 0.0127(8) 0.0056(7) -.0025(9)
O4 O2- 0.0150(9) 0.0155(9) 0.0362(12) 0.0132(8) 0.0080(9) -.0016(7)
#End of TTdata_8143-ICSD