
#(C) 2019 by FIZ Karlsruhe - Leibniz Institute for Information Infrastructure.  All rights reserved.
data_81477-ICSD
_database_code_ICSD 81477
_audit_creation_date 1997-11-05
_audit_update_record 2012-02-01
_chemical_name_systematic 'Dicesium disodium decaborate'
_chemical_formula_structural 'Cs2 Na2 (B10 O17)'
_chemical_formula_sum 'B10 Cs2 Na2 O17'
_chemical_name_structure_type Cs2Na2B10O17
_exptl_crystal_density_diffrn 3.03
_cell_measurement_temperature 298.
_publ_section_title 'New layered polyborates Cs2 M2 B10 O17 (M = Na, K)'
loop_
_citation_id
_citation_journal_full
_citation_year
_citation_journal_volume
_citation_page_first
_citation_page_last
_citation_journal_id_ASTM
primary 'Inorganic Chemistry' 1996 35 463 466 INOCAJ
loop_
_publ_author_name
'Tu, J.-M.'
'Keszler, D.A.'
_cell_length_a 21.6430(30)
_cell_length_b 6.558(2)
_cell_length_c 11.072(2)
_cell_angle_alpha 90.
_cell_angle_beta 105.43(1)
_cell_angle_gamma 90.
_cell_volume 1514.86
_cell_formula_units_Z 4
_symmetry_space_group_name_H-M 'C 1 2/c 1'
_symmetry_Int_Tables_number 15
_refine_ls_R_factor_all 0.039
loop_
_symmetry_equiv_pos_site_id
_symmetry_equiv_pos_as_xyz
1 'x, -y, z+1/2'
2 '-x, -y, -z'
3 '-x, y, -z+1/2'
4 'x, y, z'
5 'x+1/2, -y+1/2, z+1/2'
6 '-x+1/2, -y+1/2, -z'
7 '-x+1/2, y+1/2, -z+1/2'
8 'x+1/2, y+1/2, z'
loop_
_atom_type_symbol
_atom_type_oxidation_number
Cs1+ 1
Na1+ 1
B3+ 3
O2- -2
loop_
_atom_site_label
_atom_site_type_symbol
_atom_site_symmetry_multiplicity
_atom_site_Wyckoff_symbol
_atom_site_fract_x
_atom_site_fract_y
_atom_site_fract_z
_atom_site_B_iso_or_equiv
_atom_site_occupancy
_atom_site_attached_hydrogens
Cs1 Cs1+ 8 f 0.44159(2) 0.19304(6) 0.40364(4) 2.06(1) 1. 0
Na1 Na1+ 8 f 0.2670(1) 0.0473(4) 0.3162(2) 1.71(9) 1. 0
B1 B3+ 8 f 0.4447(3) 0.695(1) 0.2636(6) 1.2(2) 1. 0
B2 B3+ 8 f 0.3194(3) 0.428(1) 0.4956(5) 1.0(2) 1. 0
B3 B3+ 8 f 0.3343(3) 0.778(1) 0.5631(5) 1.1(2) 1. 0
B4 B3+ 8 f 0.3548(3) 0.677(1) 0.3597(5) 1.1(2) 1. 0
B5 B3+ 8 f 0.3445(3) 0.863(1) 0.1499(6) 1.0(2) 1. 0
O1 O2- 8 f 0.1812(2) 0.2667(6) 0.2563(3) 0.8(1) 1. 0
O2 O2- 8 f 0.3189(2) 0.2267(6) 0.5239(3) 1.2(1) 1. 0
O3 O2- 8 f 0.4163(2) 0.1613(6) 0.6797(4) 1.4(1) 1. 0
O4 O2- 8 f 0.3561(2) 0.8231(6) 0.4626(3) 1.4(1) 1. 0
O5 O2- 8 f 0.1833(2) -.0782(6) 0.4174(3) 1.4(1) 1. 0
O6 O2- 8 f 0.3262(2) 0.4817(6) 0.3811(3) 1.1(1) 1. 0
O7 O2- 8 f 0.4221(2) 0.6346(6) 0.3603(4) 1.3(1) 1. 0
O8 O2- 4 e 0 0.100(1) 0.25 1.9(2) 1. 0
O9 O2- 8 f 0.3293(2) 0.0821(6) 0.1501(3) 1.2(1) 1. 0
#End of TTdata_81477-ICSD