
#(C) 2019 by FIZ Karlsruhe - Leibniz Institute for Information Infrastructure.  All rights reserved.
data_81505-ICSD
_database_code_ICSD 81505
_audit_creation_date 1997-05-13
_audit_update_record 2006-04-01
_chemical_name_systematic 'Sodium sulfate(VI) - III'
_chemical_formula_structural 'Na2 (S O4)'
_chemical_formula_sum 'Na2 O4 S1'
_chemical_name_structure_type Na2CrO4
_exptl_crystal_density_diffrn 2.63
_cell_measurement_temperature 463.
_publ_section_title 'Structures and phase transitions of Na2 S O4'
loop_
_citation_id
_citation_journal_full
_citation_year
_citation_journal_volume
_citation_page_first
_citation_page_last
_citation_journal_id_ASTM
primary 'Journal of Applied Crystallography' 1996 29 42 47 JACGAR
loop_
_publ_author_name
'Rasmussen, S.E.'
'Jorgensen, J.E.'
'Lundtoft, B.'
_cell_length_a 5.63041(21)
_cell_length_b 9.04343(34)
_cell_length_c 7.03771(24)
_cell_angle_alpha 90.
_cell_angle_beta 90.
_cell_angle_gamma 90.
_cell_volume 358.35
_cell_formula_units_Z 4
_symmetry_space_group_name_H-M 'C m c m'
_symmetry_Int_Tables_number 63
_refine_ls_R_factor_all 0.084
loop_
_symmetry_equiv_pos_site_id
_symmetry_equiv_pos_as_xyz
1 '-x, y, -z+1/2'
2 '-x, -y, z+1/2'
3 '-x, y, z'
4 '-x, -y, -z'
5 'x, -y, z+1/2'
6 'x, y, -z+1/2'
7 'x, -y, -z'
8 'x, y, z'
9 '-x+1/2, y+1/2, -z+1/2'
10 '-x+1/2, -y+1/2, z+1/2'
11 '-x+1/2, y+1/2, z'
12 '-x+1/2, -y+1/2, -z'
13 'x+1/2, -y+1/2, z+1/2'
14 'x+1/2, y+1/2, -z+1/2'
15 'x+1/2, -y+1/2, -z'
16 'x+1/2, y+1/2, z'
loop_
_atom_type_symbol
_atom_type_oxidation_number
Na1+ 1
S6+ 6
O2- -2
loop_
_atom_site_label
_atom_site_type_symbol
_atom_site_symmetry_multiplicity
_atom_site_Wyckoff_symbol
_atom_site_fract_x
_atom_site_fract_y
_atom_site_fract_z
_atom_site_B_iso_or_equiv
_atom_site_occupancy
_atom_site_attached_hydrogens
Na1 Na1+ 4 c 0 0.1830(5) 0.25 4.44(15) 1. 0
Na2 Na1+ 4 b 0 0.5 0 3.77(14) 1. 0
S1 S6+ 4 c 0 0.8483(4) 0.25 4.33(13) 1. 0
O1 O2- 8 g 0.2823(8) 0.4385(5) 0.25 2.98(16) 1. 0
O2 O2- 8 f 0 0.2432(6) 0.5684(7) 6.06(18) 1. 0
#End of TTdata_81505-ICSD