
#(C) 2019 by FIZ Karlsruhe - Leibniz Institute for Information Infrastructure.  All rights reserved.
data_81503-ICSD
_database_code_ICSD 81503
_audit_creation_date 1997-05-13
_audit_update_record 2008-08-01
_chemical_name_systematic 'Disodium sulfate(VI) - I, HT'
_chemical_formula_structural 'Na2 (S O4)'
_chemical_formula_sum 'Na2 O4 S1'
_chemical_name_structure_type K2SO4(alpha)
_chemical_name_mineral Metathenardite
_exptl_crystal_density_diffrn 2.58
_cell_measurement_temperature 543.
_publ_section_title 'Structures and phase transitions of Na2 S O4'
loop_
_citation_id
_citation_journal_full
_citation_year
_citation_journal_volume
_citation_page_first
_citation_page_last
_citation_journal_id_ASTM
primary 'Journal of Applied Crystallography' 1996 29 42 47 JACGAR
loop_
_publ_author_name
'Rasmussen, S.E.'
'Jorgensen, J.E.'
'Lundtoft, B.'
_cell_length_a 5.39357(13)
_cell_length_b 5.39357(13)
_cell_length_c 7.24651(22)
_cell_angle_alpha 90.
_cell_angle_beta 90.
_cell_angle_gamma 120.
_cell_volume 182.56
_cell_formula_units_Z 2
_symmetry_space_group_name_H-M 'P 63/m m c'
_symmetry_Int_Tables_number 194
_refine_ls_R_factor_all 0.045
loop_
_symmetry_equiv_pos_site_id
_symmetry_equiv_pos_as_xyz
1 'x, x-y, -z+1/2'
2 '-x+y, y, -z+1/2'
3 '-y, -x, -z+1/2'
4 '-x+y, -x, -z+1/2'
5 '-y, x-y, -z+1/2'
6 'x, y, -z+1/2'
7 '-x, -x+y, z+1/2'
8 'x-y, -y, z+1/2'
9 'y, x, z+1/2'
10 'x-y, x, z+1/2'
11 'y, -x+y, z+1/2'
12 '-x, -y, z+1/2'
13 '-x, -x+y, -z'
14 'x-y, -y, -z'
15 'y, x, -z'
16 'x-y, x, -z'
17 'y, -x+y, -z'
18 '-x, -y, -z'
19 'x, x-y, z'
20 '-x+y, y, z'
21 '-y, -x, z'
22 '-x+y, -x, z'
23 '-y, x-y, z'
24 'x, y, z'
loop_
_atom_type_symbol
_atom_type_oxidation_number
Na1+ 1
S6+ 6
O2- -2
loop_
_atom_site_label
_atom_site_type_symbol
_atom_site_symmetry_multiplicity
_atom_site_Wyckoff_symbol
_atom_site_fract_x
_atom_site_fract_y
_atom_site_fract_z
_atom_site_B_iso_or_equiv
_atom_site_occupancy
_atom_site_attached_hydrogens
Na1 Na1+ 2 a 0 0 0 3.70(18) 1. 0
Na2 Na1+ 2 d 0.3333 0.6667 0.75 4.52(18) 1. 0
S1 S6+ 2 c 0.3333 0.6667 0.25 2.83(13) 1. 0
O1 O2- 12 k 0.7462(6) 0.2538(6) 0.9059(9) 4.07(19) 0.3333 0
O2 O2- 12 j 0.2307(16) 0.366(1) 0.25 0.89(19) 0.3333 0
#End of TTdata_81503-ICSD