
#(C) 2019 by FIZ Karlsruhe - Leibniz Institute for Information Infrastructure.  All rights reserved.
data_81537-ICSD
_database_code_ICSD 81537
_audit_creation_date 1997-05-13
_chemical_name_systematic 'Sodium gadolinium titanate'
_chemical_formula_structural 'Na Gd (Ti O4)'
_chemical_formula_sum 'Gd1 Na1 O4 Ti1'
_chemical_name_structure_type (La,Sr)2CuO4(oP28)
_exptl_crystal_density_diffrn 5.46
_publ_section_title

;
Crystal structure determination and ionic conductivity of layered perovskite
compounds Na Ln Ti O4 (Ln = rare earth)
;
loop_
_citation_id
_citation_journal_full
_citation_year
_citation_journal_volume
_citation_page_first
_citation_page_last
_citation_journal_id_ASTM
primary 'Journal of Alloys and Compounds' 1996 234 19 25 JALCEU
loop_
_publ_author_name
'Toda, K.'
'Kameo, Y.'
'Kurita, S.'
'Sato, M.'
_cell_length_a 12.4727(4)
_cell_length_b 5.3349(6)
_cell_length_c 5.3361(5)
_cell_angle_alpha 90.
_cell_angle_beta 90.
_cell_angle_gamma 90.
_cell_volume 355.07
_cell_formula_units_Z 4
_symmetry_space_group_name_H-M 'P b c m'
_symmetry_Int_Tables_number 57
_refine_ls_R_factor_all 0.017
loop_
_symmetry_equiv_pos_site_id
_symmetry_equiv_pos_as_xyz
1 'x, -y+1/2, z+1/2'
2 '-x, y+1/2, z'
3 'x, y, -z+1/2'
4 '-x, -y, -z'
5 '-x, y+1/2, -z+1/2'
6 'x, -y+1/2, -z'
7 '-x, -y, z+1/2'
8 'x, y, z'
loop_
_atom_type_symbol
_atom_type_oxidation_number
Na1+ 1
Gd3+ 3
Ti4+ 4
O2- -2
loop_
_atom_site_label
_atom_site_type_symbol
_atom_site_symmetry_multiplicity
_atom_site_Wyckoff_symbol
_atom_site_fract_x
_atom_site_fract_y
_atom_site_fract_z
_atom_site_B_iso_or_equiv
_atom_site_occupancy
_atom_site_attached_hydrogens
Na1 Na1+ 4 d 0.5896(11) 0.0157(41) 0.25 0.8(3) 1. 0
Gd1 Gd3+ 4 d 0.8925(2) 0.0217(6) 0.25 0.1(1) 1. 0
Ti1 Ti4+ 4 d 0.2652(5) 0.0075(21) 0.25 0.5(1) 1. 0
O1 O2- 4 c 0.213(2) 0.25 0 1.5(8) 1. 0
O2 O2- 4 c 0.7570(21) 0.25 0 0.5(8) 1. 0
O3 O2- 4 d 0.0716(18) -.0729(63) 0.25 0.7(8) 1. 0
O4 O2- 4 d 0.3970(16) 0.0368(53) 0.25 0.5(8) 1. 0
#End of TTdata_81537-ICSD