
#(C) 2019 by FIZ Karlsruhe - Leibniz Institute for Information Infrastructure.  All rights reserved.
data_81687-ICSD
_database_code_ICSD 81687
_audit_creation_date 1997-05-13
_chemical_name_systematic 'Sodium copper vanadium sulfide (1/1.54/0.46/2)'
_chemical_formula_structural 'Na ((Cu1.54 V0.46) S2)'
_chemical_formula_sum 'Cu1.54 Na1 S2 V0.46'
_chemical_name_structure_type Cu2ErS2-Ce2SO2
_exptl_crystal_density_diffrn 3.93
_cell_measurement_temperature 298.
_publ_section_title 'Synthesis and crystal structure of Na2 Cu3 V S4'
loop_
_citation_id
_citation_journal_full
_citation_year
_citation_journal_volume
_citation_page_first
_citation_page_last
_citation_journal_id_ASTM
primary 'European Journal of Solid State and Inorganic Chemistry' 1996 33 987
992 EJSCE5
loop_
_publ_author_name
'Mujica, C.'
'Llanos, J.'
'Carvajal, G.'
'Wittke, O.'
_cell_length_a 3.862(1)
_cell_length_b 3.862(1)
_cell_length_c 6.822(1)
_cell_angle_alpha 90.
_cell_angle_beta 90.
_cell_angle_gamma 120.
_cell_volume 88.12
_cell_formula_units_Z 1
_symmetry_space_group_name_H-M 'P -3'
_symmetry_Int_Tables_number 147
_refine_ls_R_factor_all 0.054
loop_
_symmetry_equiv_pos_site_id
_symmetry_equiv_pos_as_xyz
1 'x-y, x, -z'
2 'y, -x+y, -z'
3 '-x, -y, -z'
4 '-x+y, -x, z'
5 '-y, x-y, z'
6 'x, y, z'
loop_
_atom_type_symbol
_atom_type_oxidation_number
Cu1+ 1.052
V3+ 3
S2- -2
Na1+ 1
loop_
_atom_site_label
_atom_site_type_symbol
_atom_site_symmetry_multiplicity
_atom_site_Wyckoff_symbol
_atom_site_fract_x
_atom_site_fract_y
_atom_site_fract_z
_atom_site_B_iso_or_equiv
_atom_site_occupancy
_atom_site_attached_hydrogens
Cu1 Cu1+ 2 d 0.3333 0.6667 0.3815(1) 0.020(1) 0.772(9) 0
V1 V3+ 2 d 0.3333 0.6667 0.3815(1) 0.020(1) 0.228(9) 0
S1 S2- 2 d 0.6667 0.3333 0.2701(2) 0.016(1) 1. 0
Na1 Na1+ 1 a 0 0 0 0.023(1) 1. 0
#End of TTdata_81687-ICSD