
#(C) 2019 by FIZ Karlsruhe - Leibniz Institute for Information Infrastructure.  All rights reserved.
data_81695-ICSD
_database_code_ICSD 81695
_audit_creation_date 1997-05-13
_audit_update_record 2008-02-01
_chemical_name_systematic
'Sodium zirconium disilicophosphate(V) (3.29/1.94/2/1)'
_chemical_formula_structural 'Na3.294 Zr1.936 (Si2 P O12)'
_chemical_formula_sum 'Na3.294 O12 P1 Si2 Zr1.936'
_chemical_name_structure_type 'Nasicon low'
_exptl_crystal_density_diffrn 3.27
_publ_section_title
'Crystal structure of NASICON by Rietveld structural refinement'
loop_
_citation_id
_citation_journal_full
_citation_year
_citation_journal_volume
_citation_page_first
_citation_page_last
_citation_journal_id_ASTM
primary 'Han'guk Chaelyo Hakhoechi' 1996 6 504 514 HCHAEU
loop_
_publ_author_name
'Kang, E.-T.'
'Cheong, H.'
'Choi, J.-S.'
'Choi, J.-B.'
_cell_length_a 15.617(2)
_cell_length_b 9.027(1)
_cell_length_c 9.210(1)
_cell_angle_alpha 90.
_cell_angle_beta 123.757(6)
_cell_angle_gamma 90.
_cell_volume 1079.47
_cell_formula_units_Z 4
_symmetry_space_group_name_H-M 'C 1 2/c 1'
_symmetry_Int_Tables_number 15
_refine_ls_R_factor_all 0.046
loop_
_symmetry_equiv_pos_site_id
_symmetry_equiv_pos_as_xyz
1 'x, -y, z+1/2'
2 '-x, -y, -z'
3 '-x, y, -z+1/2'
4 'x, y, z'
5 'x+1/2, -y+1/2, z+1/2'
6 '-x+1/2, -y+1/2, -z'
7 '-x+1/2, y+1/2, -z+1/2'
8 'x+1/2, y+1/2, z'
loop_
_atom_type_symbol
_atom_type_oxidation_number
Zr4+ 4
Si4+ 4
P5+ 5
Si4+ 4
P5+ 5
O2- -2
Na1+ 1
loop_
_atom_site_label
_atom_site_type_symbol
_atom_site_symmetry_multiplicity
_atom_site_Wyckoff_symbol
_atom_site_fract_x
_atom_site_fract_y
_atom_site_fract_z
_atom_site_B_iso_or_equiv
_atom_site_occupancy
_atom_site_attached_hydrogens
Zr1 Zr4+ 8 f 0.101(1) 0.250(2) 0.055(1) 5.064 0.968(4) 0
Si1 Si4+ 8 f 0.355(2) 0.109(3) 0.264(3) 4.975 0.667 0
P1 P5+ 8 f 0.355(2) 0.109(3) 0.264(3) 4.975 0.333 0
Si2 Si4+ 4 e 0 0.034(4) 0.25 6.311 0.667 0
P2 P5+ 4 e 0 0.034(4) 0.25 6.311 0.333 0
O1 O2- 8 f 0.139(4) 0.426(6) 0.227(5) 9.115 1. 0
O2 O2- 8 f 0.447(2) 0.456(4) 0.102(4) 4.968 1. 0
O3 O2- 8 f 0.258(3) 0.169(5) 0.210(4) 3.844 1. 0
O4 O2- 8 f 0.380(3) 0.137(5) 0.099(5) 7.887 1. 0
O5 O2- 8 f 0.447(3) 0.177(4) 0.429(4) 5.862 1. 0
O6 O2- 8 f 0.090(3) 0.144(5) 0.246(5) 7.78 1. 0
Na1 Na1+ 4 d 0.25 0.25 0.5 9.606 0.478(14) 0
Na2 Na1+ 4 e 0.5 0.894(3) 0.25 5.238 1. 0
Na3 Na1+ 8 f 0.828(3) 0.118(6) 0.883(6) 20.75 0.908(3) 0
#End of TTdata_81695-ICSD