
#(C) 2019 by FIZ Karlsruhe - Leibniz Institute for Information Infrastructure.  All rights reserved.
data_81696-ICSD
_database_code_ICSD 81696
_audit_creation_date 1997-05-13
_audit_update_record 1997-11-10
_chemical_name_systematic
'Sodium zirconium silicon phosphorus oxide (3.3/1.9/2/1/12)'
_chemical_formula_structural 'Na3.258 Zr1.938 Si2 P O12'
_chemical_formula_sum 'Na3.258 O12 P1 Si2 Zr1.938'
_chemical_name_structure_type 'Nasicon high'
_exptl_crystal_density_diffrn 3.25
_cell_measurement_temperature 523.
_publ_section_title
'Crystal structure of NASICON by Rietveld structural refinement'
loop_
_citation_id
_citation_journal_full
_citation_year
_citation_journal_volume
_citation_page_first
_citation_page_last
_citation_journal_id_ASTM
primary 'Han'guk Chaelyo Hakhoechi' 1996 6 504 514 HCHAEU
loop_
_publ_author_name
'Kang, E.-T.'
'Cheong, H.'
'Choi, J.-S.'
'Choi, J.-B.'
_cell_length_a 9.0321(6)
_cell_length_b 9.0321(6)
_cell_length_c 23.0110(20)
_cell_angle_alpha 90.
_cell_angle_beta 90.
_cell_angle_gamma 120.
_cell_volume 1625.71
_cell_formula_units_Z 6
_symmetry_space_group_name_H-M 'R -3 c H'
_symmetry_Int_Tables_number 167
_refine_ls_R_factor_all 0.017
loop_
_symmetry_equiv_pos_site_id
_symmetry_equiv_pos_as_xyz
1 'x-y, -y, -z+1/2'
2 '-x, -x+y, -z+1/2'
3 'y, x, -z+1/2'
4 'x-y, x, -z'
5 'y, -x+y, -z'
6 '-x, -y, -z'
7 '-x+y, y, z+1/2'
8 'x, x-y, z+1/2'
9 '-y, -x, z+1/2'
10 '-x+y, -x, z'
11 '-y, x-y, z'
12 'x, y, z'
13 'x-y+2/3, -y+1/3, -z+5/6'
14 '-x+2/3, -x+y+1/3, -z+5/6'
15 'y+2/3, x+1/3, -z+5/6'
16 'x-y+2/3, x+1/3, -z+1/3'
17 'y+2/3, -x+y+1/3, -z+1/3'
18 '-x+2/3, -y+1/3, -z+1/3'
19 '-x+y+2/3, y+1/3, z+5/6'
20 'x+2/3, x-y+1/3, z+5/6'
21 '-y+2/3, -x+1/3, z+5/6'
22 '-x+y+2/3, -x+1/3, z+1/3'
23 '-y+2/3, x-y+1/3, z+1/3'
24 'x+2/3, y+1/3, z+1/3'
25 'x-y+1/3, -y+2/3, -z+1/6'
26 '-x+1/3, -x+y+2/3, -z+1/6'
27 'y+1/3, x+2/3, -z+1/6'
28 'x-y+1/3, x+2/3, -z+2/3'
29 'y+1/3, -x+y+2/3, -z+2/3'
30 '-x+1/3, -y+2/3, -z+2/3'
31 '-x+y+1/3, y+2/3, z+1/6'
32 'x+1/3, x-y+2/3, z+1/6'
33 '-y+1/3, -x+2/3, z+1/6'
34 '-x+y+1/3, -x+2/3, z+2/3'
35 '-y+1/3, x-y+2/3, z+2/3'
36 'x+1/3, y+2/3, z+2/3'
loop_
_atom_type_symbol
_atom_type_oxidation_number
Zr4+ 4
Si4+ 4
P5+ 5
O2- -2
Na1+ 1
loop_
_atom_site_label
_atom_site_type_symbol
_atom_site_symmetry_multiplicity
_atom_site_Wyckoff_symbol
_atom_site_fract_x
_atom_site_fract_y
_atom_site_fract_z
_atom_site_B_iso_or_equiv
_atom_site_occupancy
_atom_site_attached_hydrogens
Zr1 Zr4+ 12 c 0 0 0.147(1) 0.1015 0.969(18) 0
Si1 Si4+ 18 e 0.288(1) 0 0.25 0.0168 0.667 0
P1 P5+ 18 e 0.288(1) 0 0.25 0.0168 0.333 0
O1 O2- 36 f 0.175(1) -.040(2) 0.195(1) 3.037 1. 0
O2 O2- 36 f 0.195(1) 0.174(1) 0.090(1) 1.146 1. 0
Na1 Na1+ 6 b 0 0 0 1.94 0.444(12) 0
Na2 Na1+ 18 e 0.636(2) 0 0.25 2.165 0.670(12) 0
Na3 Na1+ 36 f 0.97(1) 0.817(8) 0.986(3) 3.083 0.134 0
#End of TTdata_81696-ICSD