
#(C) 2019 by FIZ Karlsruhe - Leibniz Institute for Information Infrastructure.  All rights reserved.
data_81737-ICSD
_database_code_ICSD 81737
_audit_creation_date 1997-05-13
_audit_update_record 1999-01-19
_chemical_name_systematic 'Sodium tecto-alumosilicate nitrate(V) (7.9/6/1.9)'
_chemical_formula_structural 'Na7.89 (Al Si O4)6 (N O3)1.92'
_chemical_formula_sum 'Al6 N1.92 Na7.89 O29.76 Si6'
_chemical_name_structure_type Sodalite-frame
_chemical_name_mineral 'Sodalite ((NO3)-exchanged)'
_exptl_crystal_density_diffrn 2.33
_cell_measurement_temperature 295.
_publ_section_title

;
Synthesis and crystal structure of nitrate enclathrated sodalite Na8 (Al Si
O4)6 (N O3)2
;
loop_
_citation_id
_citation_journal_full
_citation_year
_citation_journal_volume
_citation_page_first
_citation_page_last
_citation_journal_id_ASTM
primary 'Journal of Alloys and Compounds' 1996 235 41 47 JALCEU
loop_
_publ_author_name
'Buhl, J.C.'
'Loens, J.'
_cell_length_a 8.978(1)
_cell_length_b 8.978(1)
_cell_length_c 8.978(1)
_cell_angle_alpha 90.
_cell_angle_beta 90.
_cell_angle_gamma 90.
_cell_volume 723.67
_cell_formula_units_Z 1
_symmetry_space_group_name_H-M 'P -4 3 n'
_symmetry_Int_Tables_number 218
_refine_ls_R_factor_all 0.029
loop_
_symmetry_equiv_pos_site_id
_symmetry_equiv_pos_as_xyz
1 '-z+1/2, y+1/2, -x+1/2'
2 '-y+1/2, x+1/2, -z+1/2'
3 '-x+1/2, z+1/2, -y+1/2'
4 'z+1/2, -y+1/2, -x+1/2'
5 'y+1/2, -x+1/2, -z+1/2'
6 'x+1/2, -z+1/2, -y+1/2'
7 '-z+1/2, -y+1/2, x+1/2'
8 '-y+1/2, -x+1/2, z+1/2'
9 '-x+1/2, -z+1/2, y+1/2'
10 'z+1/2, y+1/2, x+1/2'
11 'y+1/2, x+1/2, z+1/2'
12 'x+1/2, z+1/2, y+1/2'
13 '-z, -x, y'
14 '-y, -z, x'
15 '-x, -y, z'
16 'z, -x, -y'
17 'y, -z, -x'
18 'x, -y, -z'
19 '-z, x, -y'
20 '-y, z, -x'
21 '-x, y, -z'
22 'z, x, y'
23 'y, z, x'
24 'x, y, z'
loop_
_atom_type_symbol
_atom_type_oxidation_number
Si4+ 4
Al3+ 3
O2- -2
Na1+ 1
N5+ 5
O2- -2
loop_
_atom_site_label
_atom_site_type_symbol
_atom_site_symmetry_multiplicity
_atom_site_Wyckoff_symbol
_atom_site_fract_x
_atom_site_fract_y
_atom_site_fract_z
_atom_site_B_iso_or_equiv
_atom_site_occupancy
_atom_site_attached_hydrogens
Si1 Si4+ 6 d 0.25 0 0.5 0.0070(4) 1. 0
Al1 Al3+ 6 c 0.25 0.5 0 0.0068(5) 1. 0
O1 O2- 24 i 0.115(2) 0.4484(1) 0.1514(2) 0.0122(5) 1. 0
Na1 Na1+ 8 e 0.6911(3) 0.6911(3) 0.6911(3) 0.0234(4) 0.7769(1) 0
Na2 Na1+ 8 e 0.7040(12) 0.7040(12) 0.7040(12) 0.034(2) 0.2093(1) 0
N1 N5+ 24 i 0.494(2) 0.513(2) 0.509(2) 0.039(3) 0.0800(5) 0
O2 O2- 24 i 0.377(2) 0.449(2) 0.459(2) 0.033(3) 0.0800(5) 0
O3 O2- 24 i 0.572(2) 0.448(2) 0.609(2) 0.050(3) 0.0800(5) 0
O4 O2- 24 i 0.519(2) 0.650(1) 0.478(2) 0.018(3) 0.0800(5) 0
#End of TTdata_81737-ICSD