
#(C) 2019 by FIZ Karlsruhe - Leibniz Institute for Information Infrastructure.  All rights reserved.
data_81774-ICSD
_database_code_ICSD 81774
_audit_creation_date 1997-05-13
_chemical_name_systematic 'Sodium bismuth hexathiodiphosphate (0.16/1.28/1)'
_chemical_formula_structural 'Na0.16 Bi1.28 (P2 S6)'
_chemical_formula_sum 'Bi1.28 Na0.16 P2 S6'
_exptl_crystal_density_diffrn 3.9
_cell_measurement_temperature 296.
_publ_section_title

;
Synthesis in molten alkali metal polythiophosphate fluxes. The new quaternary
bismuth and antimony thiophosphates A Bi P2 S7 (A = K, Rb), A3 M (P S4)2 (A =
K, Rb, Cs; M =Sb, Bi), Cs3 Bi2 (P S4)3, and Na0.16 Bi1.28 P2 S6
;
loop_
_citation_id
_citation_journal_full
_citation_year
_citation_journal_volume
_citation_page_first
_citation_page_last
_citation_journal_id_ASTM
primary 'Journal of Alloys and Compounds' 1996 236 70 85 JALCEU
loop_
_publ_author_name
'McCarthy, T.J.'
'Kanatzidis, M.G.'
_cell_length_a 6.554(2)
_cell_length_b 7.297(2)
_cell_length_c 9.371(1)
_cell_angle_alpha 90.
_cell_angle_beta 92.04(2)
_cell_angle_gamma 90.
_cell_volume 447.88
_cell_formula_units_Z 2
_symmetry_space_group_name_H-M 'P 1 21/n 1'
_symmetry_Int_Tables_number 14
_refine_ls_R_factor_all 0.077
loop_
_symmetry_equiv_pos_site_id
_symmetry_equiv_pos_as_xyz
1 '-x+1/2, y+1/2, -z+1/2'
2 '-x, -y, -z'
3 'x+1/2, -y+1/2, z+1/2'
4 'x, y, z'
loop_
_atom_type_symbol
_atom_type_oxidation_number
Bi3+ 3
S2- -2
P4+ 4
Na1+ 1
loop_
_atom_site_label
_atom_site_type_symbol
_atom_site_symmetry_multiplicity
_atom_site_Wyckoff_symbol
_atom_site_fract_x
_atom_site_fract_y
_atom_site_fract_z
_atom_site_B_iso_or_equiv
_atom_site_occupancy
_atom_site_attached_hydrogens
Bi1 Bi3+ 4 e 0.0377(2) 0.6348(2) 0.2470(2) 4.47(7) 0.64 0
S1 S2- 4 e 0.8853(5) 0.9985(5) 0.2589(4) 1.3(1) 1. 0
S2 S2- 4 e 0.3455(5) 0.8074(4) 0.4350(4) 1.3(1) 1. 0
S3 S2- 4 e 0.6808(5) 0.1981(5) -.0417(4) 1.6(1) 1. 0
P1 P4+ 4 e -.0644(5) 0.1103(4) 0.0664(3) 0.8(3) 1. 0
Na1 Na1+ 4 e 0.0377(2) 0.6348(2) 0.2470(2) 4.47(7) 0.08 0
#End of TTdata_81774-ICSD