
#(C) 2018 by FIZ Karlsruhe - Leibniz Institute for Information Infrastructure.  All rights reserved.
data_81857-ICSD
_database_code_ICSD 81857
_audit_creation_date 1999-11-30
_audit_update_record 2010-08-01
_chemical_name_systematic 'Lithium lanthanum titanate'
_chemical_formula_structural 'Li La (Ti O4)'
_chemical_formula_sum 'La1 Li1 O4 Ti1'
_chemical_name_structure_type LiLaTiO4
_exptl_crystal_density_diffrn 4.98
_publ_section_title
'New layered perovskite compounds, Li La Ti O4 and Li Eu Ti O4'
loop_
_citation_id
_citation_journal_full
_citation_year
_citation_journal_volume
_citation_page_first
_citation_page_last
_citation_journal_id_ASTM
primary 'Journal of the Ceramic Society of Japan' 1996 104 140 142 JCSJEW
loop_
_publ_author_name
'Toda, K.'
'Kurita, S.'
'Sato, M.'
_cell_length_a 3.7718(2)
_cell_length_b 3.7718
_cell_length_c 12.0829(6)
_cell_angle_alpha 90.
_cell_angle_beta 90.
_cell_angle_gamma 90.
_cell_volume 171.9
_cell_formula_units_Z 2
_symmetry_space_group_name_H-M 'P 4/n m m S'
_symmetry_Int_Tables_number 129
_refine_ls_R_factor_all 0.019
loop_
_symmetry_equiv_pos_site_id
_symmetry_equiv_pos_as_xyz
1 '-y+1/2, -x+1/2, z'
2 'y+1/2, x+1/2, z'
3 '-y, -x, -z'
4 'y, x, -z'
5 'y+1/2, -x+1/2, z'
6 '-y+1/2, x+1/2, z'
7 'y, -x, -z'
8 '-y, x, -z'
9 'x+1/2, -y+1/2, -z'
10 '-x+1/2, y+1/2, -z'
11 'x, -y, z'
12 '-x, y, z'
13 '-x+1/2, -y+1/2, -z'
14 'x+1/2, y+1/2, -z'
15 '-x, -y, z'
16 'x, y, z'
loop_
_atom_type_symbol
_atom_type_oxidation_number
Li1+ 1
La3+ 3
Ti4+ 4
O2- -2
loop_
_atom_site_label
_atom_site_type_symbol
_atom_site_symmetry_multiplicity
_atom_site_Wyckoff_symbol
_atom_site_fract_x
_atom_site_fract_y
_atom_site_fract_z
_atom_site_B_iso_or_equiv
_atom_site_occupancy
_atom_site_attached_hydrogens
Li1 Li1+ 2 a 0 0 0 10. 1. 0
La1 La3+ 2 c 0 0.5 0.3802(3) 10. 1. 0
Ti1 Ti4+ 2 c 0 0.5 0.795(1) 10. 1. 0
O1 O2- 4 f 0 0 0.757(2) 10. 1. 0
O2 O2- 2 c 0 0.5 0.582(3) 10. 1. 0
O3 O2- 2 c 0 0.5 0.941(3) 10. 1. 0
#End of TTdata_81857-ICSD