
#(C) 2019 by FIZ Karlsruhe - Leibniz Institute for Information Infrastructure.  All rights reserved.
data_82088-ICSD
_database_code_ICSD 82088
_audit_creation_date 1997-11-10
_chemical_name_systematic
'Sodium lanthanum magnesium aluminium oxide (0.2/0.4/0.7/10.3/17) - beta"'
_chemical_formula_structural 'Na0.27 La0.4 Mg0.73 Al10.2 O16.74'
_chemical_formula_sum 'Al10.2 La0.4 Mg0.73 Na0.27 O16.74'
_exptl_crystal_density_diffrn 3.39
_publ_section_title

;
X-ray and (23)Na NMR investigations on Na(+) - and Na(+)/La(3+) - beta"- Al2
O3 crystals
;
loop_
_citation_id
_citation_journal_full
_citation_year
_citation_journal_volume
_citation_page_first
_citation_page_last
_citation_journal_id_ASTM
primary 'Journal of Solid State Chemistry' 1996 122 315 320 JSSCBI
loop_
_publ_author_name
'Koehler, J.'
'Balzer-Joellenbeck, G.'
'Urland, W.'
_cell_length_a 5.614(1)
_cell_length_b 5.614(1)
_cell_length_c 33.5250(50)
_cell_angle_alpha 90.
_cell_angle_beta 90.
_cell_angle_gamma 120.
_cell_volume 915.05
_cell_formula_units_Z 3
_symmetry_space_group_name_H-M 'R -3 m H'
_symmetry_Int_Tables_number 166
_refine_ls_R_factor_all 0.036
loop_
_symmetry_equiv_pos_site_id
_symmetry_equiv_pos_as_xyz
1 'x-y, -y, -z'
2 '-x, -x+y, -z'
3 'y, x, -z'
4 'x-y, x, -z'
5 'y, -x+y, -z'
6 '-x, -y, -z'
7 '-x+y, y, z'
8 'x, x-y, z'
9 '-y, -x, z'
10 '-x+y, -x, z'
11 '-y, x-y, z'
12 'x, y, z'
13 'x-y+2/3, -y+1/3, -z+1/3'
14 '-x+2/3, -x+y+1/3, -z+1/3'
15 'y+2/3, x+1/3, -z+1/3'
16 'x-y+2/3, x+1/3, -z+1/3'
17 'y+2/3, -x+y+1/3, -z+1/3'
18 '-x+2/3, -y+1/3, -z+1/3'
19 '-x+y+2/3, y+1/3, z+1/3'
20 'x+2/3, x-y+1/3, z+1/3'
21 '-y+2/3, -x+1/3, z+1/3'
22 '-x+y+2/3, -x+1/3, z+1/3'
23 '-y+2/3, x-y+1/3, z+1/3'
24 'x+2/3, y+1/3, z+1/3'
25 'x-y+1/3, -y+2/3, -z+2/3'
26 '-x+1/3, -x+y+2/3, -z+2/3'
27 'y+1/3, x+2/3, -z+2/3'
28 'x-y+1/3, x+2/3, -z+2/3'
29 'y+1/3, -x+y+2/3, -z+2/3'
30 '-x+1/3, -y+2/3, -z+2/3'
31 '-x+y+1/3, y+2/3, z+2/3'
32 'x+1/3, x-y+2/3, z+2/3'
33 '-y+1/3, -x+2/3, z+2/3'
34 '-x+y+1/3, -x+2/3, z+2/3'
35 '-y+1/3, x-y+2/3, z+2/3'
36 'x+1/3, y+2/3, z+2/3'
loop_
_atom_type_symbol
_atom_type_oxidation_number
La3+ 3
Na1+ 1
La3+ 3
Al3+ 3
Mg2+ 2
Al3+ 3
O2- -2
loop_
_atom_site_label
_atom_site_type_symbol
_atom_site_symmetry_multiplicity
_atom_site_Wyckoff_symbol
_atom_site_fract_x
_atom_site_fract_y
_atom_site_fract_z
_atom_site_B_iso_or_equiv
_atom_site_occupancy
_atom_site_attached_hydrogens
La1 La3+ 6 c 0 0 0.1746(1) . 0.085(4) 0
Na1 Na1+ 6 c 0 0 0.1706(16) . 0.136(23) 0
La2 La3+ 9 d 0.8333 0.1667 0.1667 . 0.076(2) 0
Al1 Al3+ 3 a 0 0 0 0.0090(4) 1. 0
Al2 Al3+ 6 c 0 0 0.3501(1) 0.0099(4) 0.6341 0
Mg1 Mg2+ 6 c 0.0(1) 0 0.3501(1) 0.0099(4) 0.3659 0
Al3 Al3+ 18 h 0.3347(1) 0.16735(5) 0.0717(1) 0.0099(4) 0.988(6) 0
Al4 Al3+ 6 c 0 0.0(4) 0.4505(1) 0.0098(3) 1. 0
O1 O2- 18 h 0.1548(2) 0.3096(4) 0.0343(1) 0.0100(4) 0.987(8) 0
O2 O2- 6 c 0 0 0.2951(1) 0.0112(5) 1. 0
O3 O2- 6 c 0 0.0(2) 0.0971(1) 0.0113(5) 1. 0
O4 O2- 18 h 0.1637(1) 0.3274(2) 0.2349(1) 0.0113(6) 0.982(11) 0
O5 O2- 18 g 0.4179(41) 0.6667 0.1667 0.0107(6) 0.155(4) 0
loop_
_atom_site_aniso_label
_atom_site_aniso_type_symbol
_atom_site_aniso_U_11
_atom_site_aniso_U_22
_atom_site_aniso_U_33
_atom_site_aniso_U_12
_atom_site_aniso_U_13
_atom_site_aniso_U_23
La1 La3+ 0.0113(18) 0.0113(18) 0.0103(15) 0.0057(9) 0 0
Na1 Na1+ 0.29(10) 0.29(10) 0.062(28) 0.144(52) 0 0
La2 La3+ 0.0148(13) 0.0148(13) 0.0122(12) -.0080(9) -.0013(4) 0.0013(4)
#End of TTdata_82088-ICSD