
#(C) 2019 by FIZ Karlsruhe - Leibniz Institute for Information Infrastructure.  All rights reserved.
data_82116-ICSD
_database_code_ICSD 82116
_audit_creation_date 1999-11-30
_audit_update_record 2011-02-01
_chemical_name_systematic
'Tetrasodium tricobalt bis(phosphate(V)) diphosphate(V)'
_chemical_formula_structural 'Na4 Co3 (P O4)2 (P2 O7)'
_chemical_formula_sum 'Co3 Na4 O15 P4'
_chemical_name_structure_type Na4Co3(PO4)2P2O7
_exptl_crystal_density_diffrn 3.38
_cell_measurement_temperature 295.
_publ_section_title

;
Na4 Co3 (P O4)2 P2 O7, a new sodium cobalt phosphate containing a
three-dimensional system of large intersecting tunnels
;
loop_
_citation_id
_citation_journal_full
_citation_year
_citation_journal_volume
_citation_page_first
_citation_page_last
_citation_journal_id_ASTM
primary 'Journal of Solid State Chemistry' 1996 123 129 139 JSSCBI
loop_
_publ_author_name
'Sanz, F.'
'Parada, C.'
'Amador, U.'
'Monge, M.A.'
'Ruiz Valero, C.'
_cell_length_a 18.0460(50)
_cell_length_b 6.533(2)
_cell_length_c 10.536(2)
_cell_angle_alpha 90.
_cell_angle_beta 90.
_cell_angle_gamma 90.
_cell_volume 1242.14
_cell_formula_units_Z 4
_symmetry_space_group_name_H-M 'P n 21 a'
_symmetry_Int_Tables_number 33
_refine_ls_R_factor_all 0.039
loop_
_symmetry_equiv_pos_site_id
_symmetry_equiv_pos_as_xyz
1 'x+1/2, y, -z+1/2'
2 '-x+1/2, y+1/2, z+1/2'
3 '-x, y+1/2, -z'
4 'x, y, z'
loop_
_atom_type_symbol
_atom_type_oxidation_number
Co2+ 2
P5+ 5
Na1+ 1
O2- -2
loop_
_atom_site_label
_atom_site_type_symbol
_atom_site_symmetry_multiplicity
_atom_site_Wyckoff_symbol
_atom_site_fract_x
_atom_site_fract_y
_atom_site_fract_z
_atom_site_B_iso_or_equiv
_atom_site_occupancy
_atom_site_attached_hydrogens
Co1 Co2+ 4 a 0.33410(4) 0.10080(1) 0.5028(1) . 1. 0
Co2 Co2+ 4 a 0.13900(4) 0.5901(2) 0.4948(1) . 1. 0
Co3 Co2+ 4 a 0.24290(5) 0.3226(2) 0.7423(1) . 1. 0
P1 P5+ 4 a 0.2925(1) 0.5985(3) 0.5015(1) . 1. 0
P2 P5+ 4 a 0.1791(1) 0.0881(3) 0.4864(1) . 1. 0
P3 P5+ 4 a 0.5680(1) 0.4554(3) 0.7368(1) . 1. 0
P4 P5+ 4 a 0.4486(1) 0.1469(3) 0.7275(1) . 1. 0
Na1 Na1+ 4 a 0.4934(2) 0.8190(5) 0.9768(3) . 1. 0
Na2 Na1+ 4 a 0.2955(2) 0.8520(6) 0.7472(3) . 1. 0
Na3 Na1+ 4 a 0.3941(2) 0.4281(6) 0.2635(3) . 1. 0
Na4 Na1+ 4 a 0.4620(2) 0.6738(6) 0.5410(3) . 1. 0
O1 O2- 4 a 0.2362(3) 0.5603(7) 0.6118(4) . 1. 0
O2 O2- 4 a 0.3440(3) 0.4197(8) 0.4764(5) . 1. 0
O3 O2- 4 a 0.3381(3) 0.7884(8) 0.5351(5) . 1. 0
O4 O2- 4 a 0.2403(3) 0.6286(8) 0.3855(4) . 1. 0
O5 O2- 4 a 0.2320(2) 0.1137(9) 0.6031(4) . 1. 0
O6 O2- 4 a 0.1270(3) -.0919(8) 0.5122(5) . 1. 0
O7 O2- 4 a 0.2340(3) 0.0548(8) 0.3743(5) . 1. 0
O8 O2- 4 a 0.1351(3) 0.2829(9) 0.4573(5) . 1. 0
O9 O2- 4 a 0.4870(3) 0.3696(8) 0.6978(5) . 1. 0
O10 O2- 4 a 0.5575(3) 0.5666(8) 0.8628(4) . 1. 0
O11 O2- 4 a 0.6222(3) 0.2804(8) 0.7430(5) . 1. 0
O12 O2- 4 a 0.5839(2) 0.6058(9) 0.6303(4) . 1. 0
O13 O2- 4 a 0.4566(2) 0.1119(9) 0.8694(4) . 1. 0
O14 O2- 4 a 0.3687(3) 0.1714(9) 0.6889(4) . 1. 0
O15 O2- 4 a 0.4904(3) -.0032(10) 0.6475(5) . 1. 0
loop_
_atom_site_aniso_label
_atom_site_aniso_type_symbol
_atom_site_aniso_U_11
_atom_site_aniso_U_22
_atom_site_aniso_U_33
_atom_site_aniso_U_12
_atom_site_aniso_U_13
_atom_site_aniso_U_23
Co1 Co2+ 0.0042(3) 0.0051(4) 0.0058(3) 0.0000(4) 0.0015(3) -.0002(3)
Co2 Co2+ 0.0038(3) 0.0048(4) 0.0061(3) 0.0003(4) 0.0004(3) 0.0009(3)
Co3 Co2+ 0.0096(4) 0.0049(4) 0.0033(3) -.0010(4) -.0010(3) 0.0006(3)
P1 P5+ 0.0033(6) 0.0049(7) 0.0036(6) -.0003(7) 0.0008(5) 0.0014(6)
P2 P5+ 0.0039(6) 0.0033(7) 0.0040(6) -.0001(7) 0.0000(5) -.0008(6)
P3 P5+ 0.0035(6) 0.0038(7) 0.0046(6) -.0010(6) 0.0001(5) 0.0000(6)
P4 P5+ 0.0055(6) 0.0066(7) 0.0041(6) -.0026(6) -.0007(5) -.0003(6)
Na1 Na1+ 0.0087(12) 0.0116(14) 0.0145(12) 0.0041(12) 0.0022(11) 0.0017(13)
Na2 Na1+ 0.0201(13) 0.0119(15) 0.0129(12) -.0004(12) 0.0017(11) 0.0008(12)
Na3 Na1+ 0.0183(14) 0.0163(16) 0.0160(14) 0.0004(14) -.0002(11) 0.0004(13)
Na4 Na1+ 0.0120(13) 0.0236(13) 0.0173(13) 0.0075(13) -.0019(11) -.0027(14)
O1 O2- 0.0079(19) 0.0019(21) 0.0054(21) -.0010(17) 0.0009(16) -.0001(16)
O2 O2- 0.0100(21) 0.0075(25) 0.0138(22) 0.0071(21) 0.0037(19) 0.0014(19)
O3 O2- 0.0057(20) 0.0088(25) 0.0079(20) 0.0011(18) -.0013(16) 0.0010(19)
O4 O2- 0.0076(19) 0.0073(23) 0.0045(19) -.0041(18) -.0023(15) 0.0042(18)
O5 O2- 0.0043(18) 0.0110(23) 0.0069(19) 0.0025(19) -.0002(16) -.0028(20)
O6 O2- 0.0052(19) 0.0071(24) 0.0174(25) -.0018(18) 0.0014(17) 0.0014(20)
O7 O2- 0.0092(20) 0.0035(22) 0.0076(21) 0.0011(18) 0.0035(17) -.0013(16)
O8 O2- 0.0069(21) 0.0093(24) 0.0127(22) 0.0025(18) -.0005(17) -.0018(20)
O9 O2- 0.0066(19) 0.0030(21) 0.0152(21) -.0007(17) -.0017(17) 0.0044(19)
O10 O2- 0.0083(19) 0.0126(25) 0.0064(18) -.0002(19) -.0037(15) -.0044(19)
O11 O2- 0.0108(21) 0.0051(22) 0.0082(20) 0.0013(18) -.0011(17) 0.0010(18)
O12 O2- 0.0078(19) 0.0078(21) 0.0121(19) 0.002(2) 0.0055(16) 0.0068(20)
O13 O2- 0.0097(19) 0.0098(21) 0.0052(17) 0.0003(19) -.0015(15) 0.0040(18)
O14 O2- 0.0039(19) 0.0202(26) 0.0080(19) -.0011(19) -.0030(15) -.0043(20)
O15 O2- 0.0127(22) 0.0151(26) 0.0130(22) 0.0012(21) 0.0034(18) -.0051(21)
#End of TTdata_82116-ICSD