
#(C) 2019 by FIZ Karlsruhe - Leibniz Institute for Information Infrastructure.  All rights reserved.
data_82187-ICSD
_database_code_ICSD 82187
_audit_creation_date 1999-11-30
_chemical_name_systematic 'Sodium molybdenum(V) oxide diphophate(V)'
_chemical_formula_structural 'Na Mo O (P2 O7)'
_chemical_formula_sum 'Mo1 Na1 O8 P2'
_exptl_crystal_density_diffrn 3.27
_cell_measurement_temperature 294.
_publ_section_title
'A molybdenum V diphosphate with the K Mo O P2 O7 structure: Na Mo O P2 O7'
loop_
_citation_id
_citation_journal_full
_citation_year
_citation_journal_volume
_citation_page_first
_citation_page_last
_citation_journal_id_ASTM
primary 'Journal of Solid State Chemistry' 1996 124 24 28 JSSCBI
loop_
_publ_author_name
'Ledain, S.'
'Leclaire, A.'
'Borel, M.M.'
'Provost, J.'
'Raveau, B.'
_cell_length_a 11.387(2)
_cell_length_b 5.146(1)
_cell_length_c 10.701(2)
_cell_angle_alpha 90.
_cell_angle_beta 90.
_cell_angle_gamma 90.
_cell_volume 627.05
_cell_formula_units_Z 4
_symmetry_space_group_name_H-M 'P 21 21 21'
_symmetry_Int_Tables_number 19
_refine_ls_R_factor_all 0.041
loop_
_symmetry_equiv_pos_site_id
_symmetry_equiv_pos_as_xyz
1 '-x, y+1/2, -z+1/2'
2 'x+1/2, -y+1/2, -z'
3 '-x+1/2, -y, z+1/2'
4 'x, y, z'
loop_
_atom_type_symbol
_atom_type_oxidation_number
Mo5+ 5
P5+ 5
Na1+ 1
O2- -2
loop_
_atom_site_label
_atom_site_type_symbol
_atom_site_symmetry_multiplicity
_atom_site_Wyckoff_symbol
_atom_site_fract_x
_atom_site_fract_y
_atom_site_fract_z
_atom_site_B_iso_or_equiv
_atom_site_occupancy
_atom_site_attached_hydrogens
Mo1 Mo5+ 4 a 0.1386(1) 0.248(1) 0.4110(1) 0.82(2) 1. 0
P1 P5+ 4 a 0.4543(3) 0.756(4) 0.5941(3) 0.89(9) 1. 0
P2 P5+ 4 a 0.3180(3) 0.755(3) 0.3665(3) 0.84(7) 1. 0
Na1 Na1+ 4 a 0.3795(5) 0.269(8) 0.1876(5) 4.5(3) 1. 0
O1 O2- 4 a 0.1920(8) 0.215(4) 0.5528(7) 2.3(3) 1. 0
O2 O2- 4 a 0.222(1) -.062(1) 0.3394(9) 1.6(3) 1. 0
O3 O2- 4 a 0.2756(9) 0.466(2) 0.3412(9) 1.3(3) 1. 0
O4 O2- 4 a 0.0448(8) -.068(2) 0.4571(8) 1.3(3) 1. 0
O5 O2- 4 a -.0091(9) 0.462(2) 0.4350(8) 1.6(3) 1. 0
O6 O2- 4 a 0.0770(8) 0.288(3) 0.2271(7) 1.6(3) 1. 0
O7 O2- 4 a 0.3353(6) 0.774(4) 0.5153(7) 1.0(2) 1. 0
O8 O2- 4 a 0.4282(8) 0.807(2) 0.2988(8) 1.3(2) 1. 0
#End of TTdata_82187-ICSD