
#(C) 2019 by FIZ Karlsruhe - Leibniz Institute for Information Infrastructure.  All rights reserved.
data_8219-ICSD
_database_code_ICSD 8219
_audit_creation_date 1980-01-01
_chemical_name_systematic 'Sodium divanadate 18-hydrate'
_chemical_formula_structural 'Na4 V2 O7 (H2 O)18'
_chemical_formula_sum 'H36 Na4 O25 V2'
_exptl_crystal_density_diffrn 1.7
_publ_section_title
'Multicomponent polyanions. 24. The crystal structure of Na4 V2 O7 (H2 O)18'
loop_
_citation_id
_citation_journal_full
_citation_year
_citation_journal_volume
_citation_page_first
_citation_page_last
_citation_journal_id_ASTM
primary 'Acta Chemica Scandinavica, Series A: Physical and Inorganic Chemistry'
1979 33 539 546 ACAPCT
loop_
_publ_author_name
'Bjoernberg, A.'
_cell_length_a 9.2478(5)
_cell_length_b 9.2478(5)
_cell_length_c 16.591(2)
_cell_angle_alpha 90.
_cell_angle_beta 90.
_cell_angle_gamma 120.
_cell_volume 1228.8
_cell_formula_units_Z 2
_symmetry_space_group_name_H-M 'P 63/m'
_symmetry_Int_Tables_number 176
_refine_ls_R_factor_all 0.072
loop_
_symmetry_equiv_pos_site_id
_symmetry_equiv_pos_as_xyz
1 '-x+y, -x, -z+1/2'
2 '-y, x-y, -z+1/2'
3 'x, y, -z+1/2'
4 'x-y, x, -z'
5 'y, -x+y, -z'
6 '-x, -y, -z'
7 'x-y, x, z+1/2'
8 'y, -x+y, z+1/2'
9 '-x, -y, z+1/2'
10 '-x+y, -x, z'
11 '-y, x-y, z'
12 'x, y, z'
loop_
_atom_type_symbol
_atom_type_oxidation_number
V5+ 5
O2- -2
Na1+ 1
O2- -2
H1+ 1
loop_
_atom_site_label
_atom_site_type_symbol
_atom_site_symmetry_multiplicity
_atom_site_Wyckoff_symbol
_atom_site_fract_x
_atom_site_fract_y
_atom_site_fract_z
_atom_site_B_iso_or_equiv
_atom_site_occupancy
_atom_site_attached_hydrogens
V1 V5+ 4 f 0.3333 0.6667 0.15121(7) . 1. 0
O1 O2- 12 i 0.1931(12) 0.4755(12) 0.1376(9) . 0.3333 0
O2 O2- 12 i 0.1519(19) 0.6248(22) 0.1413(15) . 0.3333 0
O3 O2- 12 i 0.4964(22) 0.7055(22) 0.0824(11) . 0.1667 0
O4 O2- 12 i 0.1589(31) 0.6219(26) 0.0916(10) . 0.1667 0
O5 O2- 6 h 0.2745(27) 0.5596(39) 0.25 . 0.1667 0
O6 O2- 6 h 0.2139(57) 0.5738(29) 0.25 . 0.1667 0
Na1 Na1+ 4 f 0.6667 0.3333 0.3472(1) . 1. 0
Na2 Na1+ 2 b 0 0 0 . 1. 0
Na3 Na1+ 4 e 0 0 0.3172(3) . 0.5 0
O7 O2- 12 i 0.4620(4) 0.1240(4) 0.4291(2) . 1. 0
O8 O2- 6 h 0.4696(4) 0.3301(4) 0.25 . 1. 0
O9 O2- 12 i 0.1996(4) 0.1988(4) 0.0897(2) . 1. 0
O10 O2- 6 h 0.0160(5) 0.2265(5) 0.25 . 1. 0
H1 H1+ 12 i 0.437 0.025 0.405 . 1. 0
H2 H1+ 12 i 0.478 0.115 0.47 . 1. 0
H3 H1+ 6 h 0.402 0.115 0.25 . 1. 0
H4 H1+ 6 h 0.393 0.244 0.25 . 1. 0
H5 H1+ 12 i 0.29 0.194 0.087 . 1. 0
H6 H1+ 12 i 0.239 0.295 0.065 . 1. 0
H7 H1+ 12 i 0.068(6) 0.305(7) 0.213(3) . 1. 0
loop_
_atom_site_aniso_label
_atom_site_aniso_type_symbol
_atom_site_aniso_beta_11
_atom_site_aniso_beta_22
_atom_site_aniso_beta_33
_atom_site_aniso_beta_12
_atom_site_aniso_beta_13
_atom_site_aniso_beta_23
V1 V5+ 0.0136(1) 0.0136(1) 0.0035 0.0068(1) 0 0
O1 O2- 0.0137(16) 0.0112(14) 0.0082(7) 0.0020(12) 0.0015(9) -.0001(9)
O2 O2- 0.0201(25) 0.0368(38) 0.0156(15) 0.0203(26) 0.0028(20) 0.0084(23)
O3 O2- 0.0126(26) 0.0164(31) 0.0038(7) 0.0101(24) -.0002(11) 0.0012(12)
O4 O2- 0.0190(38) 0.0132(28) 0.0027(6) 0.0077(26) -.0023(13) 0.0012(11)
O5 O2- 0.0223(65) 0.0023(25) 0.0056(15) -.0045(42) 0 0
O6 O2- 0.0043(28) 0.0228(81) 0.0030(9) 0.0076(40) 0 0
Na1 Na1+ 0.0140(2) 0.0140(2) 0.0022(1) 0.0070(1) 0 0
Na2 Na1+ 0.0134(3) 0.0134(3) 0.0033(1) 0.0067(2) 0 0
Na3 Na1+ 0.0126(4) 0.0126(4) 0.0025(1) 0.0063(2) 0 0
O7 O2- 0.0218(6) 0.0207(6) 0.0040(1) 0.0114(6) 0.0028(2) 0.0029(2)
O8 O2- 0.0104(5) 0.0152(6) 0.0036(1) 0.0073(5) 0 0
O9 O2- 0.0294(6) 0.0202(6) 0.0051(2) 0.0284(5) -.0025(2) -.0017(2)
O10 O2- 0.0164(7) 0.0178(8) 0.0053(2) 0.0075(6) 0 0
#End of TTdata_8219-ICSD