
#(C) 2019 by FIZ Karlsruhe - Leibniz Institute for Information Infrastructure.  All rights reserved.
data_8223-ICSD
_database_code_ICSD 8223
_audit_creation_date 1980-01-01
_audit_update_record 1985-04-18
_chemical_name_systematic 'Sodium borate hydroxide *'
_chemical_formula_structural 'Na8 (B12 O20 (O H)4)'
_chemical_formula_sum 'H4 B12 Na8 O24'
_exptl_crystal_density_diffrn 2.38
_publ_section_title
'A new borate polyanion in the structure of Na8 (B12 O20 (O H)4)'
loop_
_citation_id
_citation_journal_full
_citation_year
_citation_journal_volume
_citation_page_first
_citation_page_last
_citation_journal_id_ASTM
primary

;
Acta Crystallographica, Section B: Structural Crystallography and Crystal
Chemistry
; 1979 35 2488 2493 ACBCAR
loop_
_publ_author_name
'Menchetti, S.'
'Sabelli, C.'
_cell_length_a 8.709(3)
_cell_length_b 11.917(5)
_cell_length_c 9.468(3)
_cell_angle_alpha 90.
_cell_angle_beta 96.02(2)
_cell_angle_gamma 90.
_cell_volume 977.22
_cell_formula_units_Z 2
_symmetry_space_group_name_H-M 'P 1 21/c 1'
_symmetry_Int_Tables_number 14
_refine_ls_R_factor_all 0.03
loop_
_symmetry_equiv_pos_site_id
_symmetry_equiv_pos_as_xyz
1 'x, -y+1/2, z+1/2'
2 '-x, -y, -z'
3 '-x, y+1/2, -z+1/2'
4 'x, y, z'
loop_
_atom_type_symbol
_atom_type_oxidation_number
Na1+ 1
O2- -2
B3+ 3
H1+ 1
loop_
_atom_site_label
_atom_site_type_symbol
_atom_site_symmetry_multiplicity
_atom_site_Wyckoff_symbol
_atom_site_fract_x
_atom_site_fract_y
_atom_site_fract_z
_atom_site_B_iso_or_equiv
_atom_site_occupancy
_atom_site_attached_hydrogens
Na1 Na1+ 4 e 0.58976(10) 0.15679(7) 0.43046(8) . 1. 0
Na2 Na1+ 4 e 0.08793(9) 0.38199(7) 0.44288(9) . 1. 0
Na3 Na1+ 4 e 0.43318(9) 0.36553(6) 0.56695(8) . 1. 0
Na4 Na1+ 4 e 0.97425(9) 0.14796(8) 0.46194(8) . 1. 0
O1 O2- 4 e 0.7771(1) 0.5832(1) 0.7713(1) . 1. 0
O2 O2- 4 e 0.5332(1) 0.4852(1) 0.7500(1) . 1. 0
O3 O2- 4 e 0.7697(2) 0.3826(1) 0.7648(1) . 1. 0
O4 O2- 4 e 0.6944(2) 0.4924(1) 0.5542(1) . 1. 0
O5 O2- 4 e 0.9775(2) 0.2602(1) 0.7488(1) . 1. 0
O6 O2- 4 e 0.8308(2) 0.3166(1) 0.5369(1) . 1. 0
O7 O2- 4 e 0.6046(1) 0.3560(1) 0.3734(1) . 1. 0
O8 O2- 4 e 0.8447(1) 0.4615(1) 0.3640(1) . 1. 0
O9 O2- 4 e 0.9340(2) 0.4814(1) 0.1362(1) . 1. 0
O10 O2- 4 e 0.6785(2) 0.4286(1) 0.1506(1) . 1. 0
O11 O2- 4 e 0.4455(2) 0.3262(1) 0.1517(1) . 1. 0
O12 O2- 4 e 0.1946(2) 0.2561(1) 0.0823(1) . 1. 0
B1 B3+ 4 e 0.6872(2) 0.4862(2) 0.7066(2) . 1. 0
B2 B3+ 4 e 0.8553(2) 0.3197(2) 0.6811(2) . 1. 0
B3 B3+ 4 e 0.7358(2) 0.4069(2) 0.4567(2) . 1. 0
B4 B3+ 4 e 0.8165(2) 0.4562(2) 0.2196(2) . 1. 0
B5 B3+ 4 e 0.5472(2) 0.4076(2) 0.2363(2) . 1. 0
B6 B3+ 4 e 0.2866(2) 0.3321(2) 0.1514(2) . 1. 0
H1 H1+ 4 e 1.061(4) 0.256(2) 0.687(3) 1.7 1. 0
H2 H1+ 4 e 1.038(3) 0.475(2) 0.182(3) 1.75 1. 0
loop_
_atom_site_aniso_label
_atom_site_aniso_type_symbol
_atom_site_aniso_beta_11
_atom_site_aniso_beta_22
_atom_site_aniso_beta_33
_atom_site_aniso_beta_12
_atom_site_aniso_beta_13
_atom_site_aniso_beta_23
Na1 Na1+ 0.00593(12) 0.00242(6) 0.00304(9) 0.00074(7) 0.00111(8) -.00010(6)
Na2 Na1+ 0.00288(10) 0.00223(6) 0.00432(9) 0.00023(6) 0.00006(8) 0.00130(6)
Na3 Na1+ 0.00377(10) 0.00160(5) 0.00333(9) 0.00008(6) -.00035(8) 0.00027(6)
Na4 Na1+ 0.00532(11) 0.00204(6) 0.00262(9) -.00019(7) -.00002(8) 0.00009(6)
O1 O2- 0.00135(16) 0.00142(9) 0.00334(15) -.00036(10) 0.00036(12) -.00088(9)
O2 O2- 0.00142(16) 0.00114(9) 0.00237(14) 0.00005(9) 0.00031(12) -.00015(9)
O3 O2- 0.00186(17) 0.00135(9) 0.00176(14) 0.00082(10) 0.00037(12) 0.00017(9)
O4 O2- 0.00175(18) 0.00118(9) 0.00140(13) 0.00071(10) 0.00026(12) 0.00017(9)
O5 O2- 0.00290(19) 0.00218(10) 0.00203(15) 0.00114(11) 0.00017(13) 0.00028(10)
O6 O2- 0.00332(18) 0.00158(9) 0.00167(14) 0.00105(10) -.00006(12) -.00014(9)
O7 O2- 0.00165(16) 0.00138(9) 0.00193(14) -.00009(10) -.00011(11) 0.00031(9)
O8 O2- 0.00186(16) 0.00189(10) 0.00157(14) -.00033(10) 0.00008(12) -.00008(9)
O9 O2- 0.00193(17) 0.00239(10) 0.00194(14) -.00028(11) 0.00062(13) 0.0002(1)
O10 O2- 0.00167(10) 0.00234(10) 0.00142(14) -.00014(10) 0.00028(12) -.00015(9)
O11 O2- 0.00148(6) 0.00159(9) 0.00302(15) 0.00001(10) -.00028(12) -.00104(9)
O12 O2- 0.00244(18) 0.00182(10) 0.00351(16) -.0004(1) 0.00001(13) 0.00107(10)
B1 B3+ 0.00206(5) 0.00085(13) 0.00170(21) 0.00008(4) 0.00025(8) 0.00003(13)
B2 B3+ 0.00219(26) 0.00112(14) 0.00220(22) -.00022(14) 0.00047(19) 0.00010(13)
B3 B3+ 0.00185(24) 0.00127(14) 0.00153(20) 0.00015(15) 0.00027(18) 0.00027(13)
B4 B3+ 0.00203(25) 0.00093(13) 0.00231(22) 0.00019(15) 0.00063(18) -.00002(13)
B5 B3+ 0.00163(24) 0.00143(14) 0.00169(21) -.00022(15) 0.00030(18) -.00038(14)
B6 B3+ 0.00241(25) 0.00126(14) 0.00165(21) -.00003(15) 0.00026(18) 0.00004(13)
#End of TTdata_8223-ICSD