
#(C) 2019 by FIZ Karlsruhe - Leibniz Institute for Information Infrastructure.  All rights reserved.
data_8235-ICSD
_database_code_ICSD 8235
_audit_creation_date 1980-01-01
_chemical_name_systematic 'Trisodium zinc hexathorium fluoride'
_chemical_formula_structural 'Na3 Zn Th6 F29'
_chemical_formula_sum 'F29 Na3 Th6 Zn1'
_exptl_crystal_density_diffrn 5.87
_publ_section_title 'Fluorure complexe de thorium, sodium et zinc'
loop_
_citation_id
_citation_journal_full
_citation_year
_citation_journal_volume
_citation_page_first
_citation_page_last
_citation_journal_id_ASTM
primary

;
Acta Crystallographica, Section B: Structural Crystallography and Crystal
Chemistry
; 1979 35 2674 2676 ACBCAR
loop_
_publ_author_name
'Cousson, A.'
'Tabuteau, A.'
'Pages, M.'
'Gasperin, M.'
_cell_length_a 10.116(2)
_cell_length_b 10.116(2)
_cell_length_c 13.255(2)
_cell_angle_alpha 90.
_cell_angle_beta 90.
_cell_angle_gamma 120.
_cell_volume 1174.7
_cell_formula_units_Z 2
_symmetry_space_group_name_H-M 'P 3 2 1'
_symmetry_Int_Tables_number 150
_refine_ls_R_factor_all 0.052
loop_
_symmetry_equiv_pos_site_id
_symmetry_equiv_pos_as_xyz
1 'x-y, -y, -z'
2 '-x, -x+y, -z'
3 'y, x, -z'
4 '-x+y, -x, z'
5 '-y, x-y, z'
6 'x, y, z'
loop_
_atom_type_symbol
_atom_type_oxidation_number
Th4+ 4
Zn2+ 2
Na1+ 1
F1- -1
loop_
_atom_site_label
_atom_site_type_symbol
_atom_site_symmetry_multiplicity
_atom_site_Wyckoff_symbol
_atom_site_fract_x
_atom_site_fract_y
_atom_site_fract_z
_atom_site_B_iso_or_equiv
_atom_site_occupancy
_atom_site_attached_hydrogens
Th1 Th4+ 6 g 0.4028(1) 0.0794(2) 0.1491(1) . 1. 0
Th2 Th4+ 6 g 0.4007(1) 0.3235(2) 0.6484(1) . 1. 0
Zn1 Zn2+ 1 a 0 0 0 2.3 1. 0
Zn2 Zn2+ 1 b 0 0 0.5 2.2 1. 0
Na1 Na1+ 2 c 0 0 0.2624(15) 2.8 1. 0
Na2 Na1+ 2 d 0.3333 0.6667 0.0893(15) 1. 1. 0
Na3 Na1+ 2 d 0.3333 0.6667 0.6012(16) 1.2 1. 0
F1 F1- 6 g 0.1315(27) 0.4369(24) 0.0348(14) 1.1 1. 0
F2 F1- 6 g 0.2040(26) 0.0898(29) 0.0927(17) 0.9 0.66 0
F3 F1- 6 g 0.5228(18) 0.3404(18) 0.1178(12) 1.4 1. 0
F4 F1- 6 g 0.1195(23) 0.5861(21) 0.2005(13) 1.5 1. 0
F5 F1- 6 g 0.1229(22) 0.3166(23) 0.2231(12) 1.2 1. 0
F6 F1- 6 g 0.5244(22) 0.1111(22) 0.3086(13) 1.4 1. 0
F7 F1- 6 g 0.3142(24) 0.1933(23) 0.2652(12) 1.4 1. 0
F8 F1- 6 g 0.1510(16) 0.4948(17) 0.3989(11) 1.1 1. 0
F9 F1- 6 g 0.084(2) 0.8949(22) 0.4104(12) 1. 1. 0
F10 F1- 6 g 0.4433(24) 0.3134(22) 0.4661(14) 1.2 1. 0
loop_
_atom_site_aniso_label
_atom_site_aniso_type_symbol
_atom_site_aniso_beta_11
_atom_site_aniso_beta_22
_atom_site_aniso_beta_33
_atom_site_aniso_beta_12
_atom_site_aniso_beta_13
_atom_site_aniso_beta_23
Th1 Th4+ 0.0027(1) 0.0025(1) 0.0006 0.0018(1) 0.0000(1) -.0002(1)
Th2 Th4+ 0.0025(1) 0.0018(1) 0.0005 0.0010(1) 0.0000(1) -.0002(1)
#End of TTdata_8235-ICSD