
#(C) 2018 by FIZ Karlsruhe - Leibniz Institute for Information Infrastructure.  All rights reserved.
data_8238-ICSD
_database_code_ICSD 8238
_audit_creation_date 1980-01-01
_audit_update_record 2004-10-01
_chemical_name_systematic 'Dilithium cobalt silicate - beta II'
_chemical_formula_structural 'Li2 Co (Si O4)'
_chemical_formula_sum 'Co1 Li2 O4 Si1'
_chemical_name_structure_type Na2ZnSiO4
_exptl_crystal_density_diffrn 3.33
_publ_section_title
'Structure of cobalt dilithium silicate beta II-Li2 Co Si O4'
loop_
_citation_id
_citation_journal_full
_citation_year
_citation_journal_volume
_citation_page_first
_citation_page_last
_citation_journal_id_ASTM
primary

;
Acta Crystallographica, Section B: Structural Crystallography and Crystal
Chemistry
; 1979 35 2680 2682 ACBCAR
loop_
_publ_author_name
'Yamaguchi, H.'
'Akatsuka, K.'
'Setoguchi, M.'
'Takaki, Y.'
_cell_length_a 6.253(5)
_cell_length_b 10.685(9)
_cell_length_c 4.929(9)
_cell_angle_alpha 90.
_cell_angle_beta 90.
_cell_angle_gamma 90.
_cell_volume 329.32
_cell_formula_units_Z 4
_symmetry_space_group_name_H-M 'P b n 21'
_symmetry_Int_Tables_number 33
_refine_ls_R_factor_all 0.044
loop_
_symmetry_equiv_pos_site_id
_symmetry_equiv_pos_as_xyz
1 '-x+1/2, y+1/2, z'
2 'x+1/2, -y+1/2, z+1/2'
3 '-x, -y, z+1/2'
4 'x, y, z'
loop_
_atom_type_symbol
_atom_type_oxidation_number
Co2+ 2
Si4+ 4
Li1+ 1
O2- -2
loop_
_atom_site_label
_atom_site_type_symbol
_atom_site_symmetry_multiplicity
_atom_site_Wyckoff_symbol
_atom_site_fract_x
_atom_site_fract_y
_atom_site_fract_z
_atom_site_B_iso_or_equiv
_atom_site_occupancy
_atom_site_attached_hydrogens
Co1 Co2+ 4 a 0.4930(1) 0.1648(1) 0.2544(5) . 1. 0
Si1 Si4+ 4 a 0.2492(2) 0.4136(1) 0.2611(6) . 1. 0
Li1 Li1+ 4 a -.0094(25) 0.1602(14) 0.2897(43) 2.5 1. 0
Li2 Li1+ 4 a 0.7394(18) 0.4244(11) 0.2553(52) 1.5 1. 0
O1 O2- 4 a 0.2489(8) 0.4105(4) 0.5896(9) . 1. 0
O2 O2- 4 a 0.2533(7) 0.5578(4) 0.1525(10) . 1. 0
O3 O2- 4 a 0.0309(7) 0.3410(4) 0.1521(10) . 1. 0
O4 O2- 4 a 0.4644(7) 0.3420(4) 0.1481(10) . 1. 0
loop_
_atom_site_aniso_label
_atom_site_aniso_type_symbol
_atom_site_aniso_B_11
_atom_site_aniso_B_22
_atom_site_aniso_B_33
_atom_site_aniso_B_12
_atom_site_aniso_B_13
_atom_site_aniso_B_23
Co1 Co2+ 3.5(1) 0.6 7.6(2) 0.0(1) 0.05(7) 0.05(4)
Si1 Si4+ 3.6(2) 0.7(1) 5.8(4) 0.05(2) -.45(16) 0.45(5)
O1 O2- 5.1(8) 1.6(3) 9.3(15) 0.05(9) -.485(20) 0.35(10)
O2 O2- 4.9(8) 1.1(2) 8.3(13) 0.2(8) 0.2(21) 0.2(11)
O3 O2- 4.1(8) 1.1(2) 7.5(14) -.05(7) 0.3(19) 0.1(11)
O4 O2- 4.6(8) 1.3(3) 10.9(16) 0.25(8) 0.3(21) -.15(12)
#End of TTdata_8238-ICSD