
#(C) 2019 by FIZ Karlsruhe - Leibniz Institute for Information Infrastructure.  All rights reserved.
data_82400-ICSD
_database_code_ICSD 82400
_audit_creation_date 1997-11-10
_audit_update_record 2019-02-01
_chemical_name_systematic
'Nonasodium bis(hexahydroxoaluminate) trihydroxide hexahydrate'
_chemical_formula_structural 'Na9 (Al (O H)6)2 (O H)3 (H2 O)6'
_chemical_formula_sum 'H27 Al2 Na9 O21'
_chemical_name_structure_type Na9(Al(OH)6)2(OH)3(H2O)6
_exptl_crystal_density_diffrn 1.99
_publ_section_title
'Nonasodium bis(hexahydroxoaluminate) trihydroxide hexahydrate'
loop_
_citation_id
_citation_journal_full
_citation_year
_citation_journal_volume
_citation_page_first
_citation_page_last
_citation_journal_id_ASTM
primary 'Acta Crystallographica, Section C: Crystal Structure Communications'
1996 52 747 749 ACSCEE
loop_
_publ_author_name
'Zabel, V.'
'Schneider, M.'
'Weinberger, M.'
'Gessner, W.'
_cell_length_a 8.694(1)
_cell_length_b 11.344(2)
_cell_length_c 11.636(3)
_cell_angle_alpha 74.29(2)
_cell_angle_beta 87.43(2)
_cell_angle_gamma 70.66(2)
_cell_volume 1041.12
_cell_formula_units_Z 2
_symmetry_space_group_name_H-M 'P -1'
_symmetry_Int_Tables_number 2
_refine_ls_R_factor_all 0.032
loop_
_symmetry_equiv_pos_site_id
_symmetry_equiv_pos_as_xyz
1 '-x, -y, -z'
2 'x, y, z'
loop_
_atom_type_symbol
_atom_type_oxidation_number
Al3+ 3
Na1+ 1
O2- -2
H1+ 1
loop_
_atom_site_label
_atom_site_type_symbol
_atom_site_symmetry_multiplicity
_atom_site_Wyckoff_symbol
_atom_site_fract_x
_atom_site_fract_y
_atom_site_fract_z
_atom_site_B_iso_or_equiv
_atom_site_occupancy
_atom_site_attached_hydrogens
Al1 Al3+ 2 i 0.40896(5) 0.27366(4) 0.12585(3) . 1. 0
Al2 Al3+ 2 i 0.40252(5) 0.27516(4) 0.62321(3) . 1. 0
Na1 Na1+ 2 i 0.41589(8) 0.03214(6) 0.36236(5) . 1. 0
Na2 Na1+ 2 i 0.60844(8) 0.22505(6) 0.37913(5) . 1. 0
Na3 Na1+ 2 i 0.20520(8) 0.32243(6) 0.36867(5) . 1. 0
Na4 Na1+ 2 i 0.42535(8) 0.50918(6) 0.37142(5) . 1. 0
Na5 Na1+ 2 i 0.40470(8) 0.03347(6) 0.86685(5) . 1. 0
Na6 Na1+ 2 i 0.59262(8) 0.22235(6) 0.88010(5) . 1. 0
Na7 Na1+ 2 i 0.20119(8) 0.31748(6) 0.86914(5) . 1. 0
Na8 Na1+ 2 i 0.40161(8) 0.51492(6) 0.88042(5) . 1. 0
Na9 Na1+ 2 i 0.00374(8) 0.39908(6) 0.62102(5) . 1. 0
O1 O2- 2 i 0.25708(14) 0.21133(11) 0.22234(9) . 1. 0
O2 O2- 2 i 0.57637(14) 0.13393(10) 0.22825(9) . 1. 0
O3 O2- 2 i 0.56192(13) 0.33185(10) 0.02530(9) . 1. 0
O4 O2- 2 i 0.24111(14) 0.42138(11) 0.02545(9) . 1. 0
O5 O2- 2 i 0.40846(13) 0.38586(10) 0.23016(9) . 1. 0
O6 O2- 2 i 0.39831(13) 0.16507(10) 0.01816(9) . 1. 0
O7 O2- 2 i 0.23550(13) 0.22215(11) 0.71534(9) . 1. 0
O8 O2- 2 i 0.56018(14) 0.13442(10) 0.73046(9) . 1. 0
O9 O2- 2 i 0.56511(13) 0.33086(10) 0.53080(9) . 1. 0
O10 O2- 2 i 0.23736(13) 0.42556(10) 0.51320(9) . 1. 0
O11 O2- 2 i 0.39583(14) 0.38360(11) 0.72978(9) . 1. 0
O12 O2- 2 i 0.39822(13) 0.16973(10) 0.51613(9) . 1. 0
O13 O2- 2 i 0.9360(2) 0.1325(2) 0.12919(15) . 1. 0
O14 O2- 2 i 0.9081(2) 0.1158(2) 0.66693(14) . 1. 0
O15 O2- 2 i 0.9728(2) 0.47591(12) 0.25194(11) . 1. 0
O16 O2- 2 i 0.8007(2) 0.0253(2) 0.00535(14) . 1. 0
O17 O2- 2 i 0.8092(2) 0.3258(2) 0.27004(13) . 1. 0
O18 O2- 2 i 0.9864(2) 0.2692(2) 0.48690(15) . 1. 0
O19 O2- 2 i 0.7970(2) 0.02625(15) 0.51161(14) . 1. 0
O20 O2- 2 i 0.8057(2) 0.31625(15) 0.75703(13) . 1. 0
O21 O2- 2 i 0.9520(2) 0.32893(14) 0.96482(12) . 1. 0
H1 H1+ 2 i 0.186(3) 0.218(3) 0.192(2) 0.051(8) 1. 0
H2 H1+ 2 i 0.662(3) 0.132(2) 0.207(2) 0.040(7) 1. 0
H3 H1+ 2 i 0.648(3) 0.292(2) 0.052(2) 0.036(6) 1. 0
H4 H1+ 2 i 0.165(3) 0.408(2) 0.033(2) 0.028(6) 1. 0
H5 H1+ 2 i 0.347(3) 0.444(2) 0.199(2) 0.023(6) 1. 0
H6 H1+ 2 i 0.340(3) 0.134(2) 0.050(2) 0.033(6) 1. 0
H7 H1+ 2 i 0.202(3) 0.182(2) 0.693(2) 0.023(6) 1. 0
H8 H1+ 2 i 0.645(3) 0.125(2) 0.716(2) 0.044(7) 1. 0
H9 H1+ 2 i 0.649(3) 0.291(2) 0.561(2) 0.032(6) 1. 0
H10 H1+ 2 i 0.238(3) 0.484(2) 0.533(2) 0.027(6) 1. 0
H11 H1+ 2 i 0.324(3) 0.434(2) 0.714(2) 0.031(6) 1. 0
H12 H1+ 2 i 0.333(3) 0.140(2) 0.535(2) 0.037(7) 1. 0
H13 H1+ 2 i 0.002(3) 0.102(3) 0.164(2) 0.045(9) 1. 0
H14 H1+ 2 i 0.993(3) 0.075(2) 0.681(2) 0.029(7) 1. 0
H15 H1+ 2 i 0.018(3) 0.475(2) 0.201(2) 0.037(7) 1. 0
H16 H1+ 2 i 0.864(3) -.013(3) -.032(2) 0.057(9) 1. 0
H17 H1+ 2 i 0.850(3) 0.050(3) 0.055(2) 0.053(8) 1. 0
H18 H1+ 2 i 0.841(3) 0.280(3) 0.237(2) 0.050(9) 1. 0
H19 H1+ 2 i 0.885(4) 0.389(3) 0.258(3) 0.097(11) 1. 0
H20 H1+ 2 i 0.973(3) 0.218(3) 0.543(2) 0.056(8) 1. 0
H21 H1+ 2 i 0.934(3) 0.271(3) 0.433(3) 0.066(9) 1. 0
H22 H1+ 2 i 0.861(3) -.023(3) 0.489(2) 0.061(9) 1. 0
H23 H1+ 2 i 0.841(3) 0.047(3) 0.570(2) 0.061(8) 1. 0
H24 H1+ 2 i 0.851(3) 0.312(2) 0.816(2) 0.044(7) 1. 0
H25 H1+ 2 i 0.844(3) 0.251(2) 0.737(2) 0.042(7) 1. 0
H26 H1+ 2 i 0.887(3) 0.398(2) 0.970(2) 0.041(7) 1. 0
H27 H1+ 2 i 0.947(4) 0.262(3) 0.028(3) 0.082(10) 1. 0
loop_
_atom_site_aniso_label
_atom_site_aniso_type_symbol
_atom_site_aniso_U_11
_atom_site_aniso_U_22
_atom_site_aniso_U_33
_atom_site_aniso_U_12
_atom_site_aniso_U_13
_atom_site_aniso_U_23
Al1 Al3+ 0.0132(2) 0.0098(2) 0.0084(2) -0.0036(2) 0.00009(15) -0.00189(15)
Al2 Al3+ 0.0117(2) 0.0101(2) 0.0080(2) -0.0034(2) 0.00030(15) -0.00216(15)
Na1 Na1+ 0.0278(3) 0.0140(3) 0.0157(3) -0.0050(3) 0.0010(2) -0.0022(2)
Na2 Na1+ 0.0239(3) 0.0214(3) 0.0167(3) -0.0062(3) -0.0006(2) -0.0088(2)
Na3 Na1+ 0.0182(3) 0.0195(3) 0.0166(3) -0.0019(2) -0.0015(2) -0.0069(2)
Na4 Na1+ 0.0240(3) 0.0178(3) 0.0154(3) -0.0102(3) 0.0008(2) -0.0038(2)
Na5 Na1+ 0.0248(3) 0.0149(3) 0.0167(3) -0.0058(3) 0.0021(2) -0.0026(2)
Na6 Na1+ 0.0231(3) 0.0207(3) 0.0149(3) -0.0073(3) 0.0010(2) -0.0075(2)
Na7 Na1+ 0.0183(3) 0.0223(3) 0.0141(3) -0.0031(3) 0.0002(2) -0.0052(2)
Na8 Na1+ 0.0239(3) 0.0177(3) 0.0151(3) -0.0097(3) -0.0001(2) -0.0027(2)
Na9 Na1+ 0.0168(3) 0.0247(3) 0.0176(3) -0.0045(3) 0.0005(2) -0.0042(2)
O1 O2- 0.0160(5) 0.0182(5) 0.0137(5) -0.0077(4) 0.0017(4) -0.0025(4)
O2 O2- 0.0151(5) 0.0144(5) 0.0121(5) -0.0040(4) -0.0011(4) -0.0025(4)
O3 O2- 0.0151(5) 0.0149(5) 0.0126(5) -0.0063(4) 0.0018(4) -0.0031(4)
O4 O2- 0.0181(6) 0.0143(5) 0.0151(5) -0.0049(4) -0.0028(4) -0.0014(4)
O5 O2- 0.0169(5) 0.0119(5) 0.0125(5) -0.0037(4) -0.0010(4) -0.0036(4)
O6 O2- 0.0174(5) 0.0147(5) 0.0115(5) -0.0070(4) 0.0008(4) -0.0037(4)
O7 O2- 0.0159(5) 0.0150(5) 0.0134(5) -0.0073(4) 0.0010(4) -0.0045(4)
O8 O2- 0.0156(5) 0.0124(5) 0.0128(5) -0.0028(4) -0.0007(4) -0.0026(4)
O9 O2- 0.0122(5) 0.0156(5) 0.0133(5) -0.0043(4) 0.0007(4) -0.0033(4)
O10 O2- 0.0156(5) 0.0124(5) 0.0131(5) -0.0033(4) -0.0012(4) -0.0036(4)
O11 O2- 0.0139(5) 0.0132(5) 0.0130(5) -0.0025(4) 0.0001(4) -0.0045(4)
O12 O2- 0.0166(5) 0.0133(5) 0.0134(5) -0.0055(4) 0.0001(4) -0.0042(4)
O13 O2- 0.0598(11) 0.0281(8) 0.0351(8) -0.0172(8) -0.0063(8) -0.0004(6)
O14 O2- 0.0572(11) 0.0362(9) 0.0375(8) -0.0202(8) -0.0106(8) 0.0021(7)
O15 O2- 0.0265(7) 0.0208(6) 0.0226(6) -0.0022(5) -0.0058(5) -0.0051(5)
O16 O2- 0.0222(7) 0.0399(8) 0.0389(8) -0.0104(6) 0.0055(6) -0.0139(7)
O17 O2- 0.0230(7) 0.0396(8) 0.0294(7) -0.0104(6) 0.0002(5) -0.0041(6)
O18 O2- 0.0517(10) 0.0819(13) 0.0245(7) -0.0483(10) 0.0054(7) -0.0141(8)
O19 O2- 0.0250(7) 0.0297(8) 0.0432(8) -0.0068(6) 0.0036(6) -0.0118(6)
O20 O2- 0.0279(7) 0.0327(8) 0.0261(7) -0.0103(6) -0.0038(6) -0.0061(6)
O21 O2- 0.0253(7) 0.0255(7) 0.0287(7) -0.0062(5) 0.0097(5) -0.0047(5)
#End of TTdata_82400-ICSD