
#(C) 2018 by FIZ Karlsruhe - Leibniz Institute for Information Infrastructure.  All rights reserved.
data_82457-ICSD
_database_code_ICSD 82457
_audit_creation_date 1997-11-10
_chemical_name_systematic 'Potassium lithium phyllo-disilicate'
_chemical_formula_structural 'K Li (Si2 O5)'
_chemical_formula_sum 'K1 Li1 O5 Si2'
_exptl_crystal_density_diffrn 2.59
_cell_measurement_temperature 150.
_publ_section_title

;
Structure of K Li Si2 O5 and the hygroscopicity of glassy mixed alkali
disilicates
;
loop_
_citation_id
_citation_journal_full
_citation_year
_citation_journal_volume
_citation_page_first
_citation_page_last
_citation_journal_id_ASTM
primary 'Acta Crystallographica, Section B: Structural Science' 1996 52 770 776
ASBSDK
loop_
_publ_author_name
'de Jong, B.H.W.S.'
'Super, H.T.J.'
'Spek, A.L.'
'Veldman, N.'
'van Wezel, W.'
'van der Mee, V.'
_cell_length_a 5.9803(6)
_cell_length_b 4.7996(6)
_cell_length_c 8.1599(11)
_cell_angle_alpha 90.
_cell_angle_beta 93.477(10)
_cell_angle_gamma 90.
_cell_volume 233.78
_cell_formula_units_Z 2
_symmetry_space_group_name_H-M 'P 1 21 1'
_symmetry_Int_Tables_number 4
_refine_ls_R_factor_all 0.033
loop_
_symmetry_equiv_pos_site_id
_symmetry_equiv_pos_as_xyz
1 '-x, y+1/2, -z'
2 'x, y, z'
loop_
_atom_type_symbol
_atom_type_oxidation_number
Si4+ 4
O2- -2
K1+ 1
Li1+ 1
loop_
_atom_site_label
_atom_site_type_symbol
_atom_site_symmetry_multiplicity
_atom_site_Wyckoff_symbol
_atom_site_fract_x
_atom_site_fract_y
_atom_site_fract_z
_atom_site_B_iso_or_equiv
_atom_site_occupancy
_atom_site_attached_hydrogens
Si1 Si4+ 2 a 0.4418(2) 0.6346(2) 0.39418(11) . 1. 0
Si2 Si4+ 2 a 0.63085(15) 0.7191(2) 0.06411(11) . 1. 0
O1 O2- 2 a 0.5191(5) 0.8034(5) 0.5611(3) . 1. 0
O2 O2- 2 a 0.1922(4) 0.6916(6) 0.3292(3) . 1. 0
O3 O2- 2 a 0.6306(4) 0.7083(6) 0.2637(3) . 1. 0
O4 O2- 2 a 0.8531(4) 0.8485(6) 0.0063(3) . 1. 0
O5 O2- 2 a 0.4048(4) 0.8967(5) -.0003(3) . 1. 0
K1 K1+ 2 a 0.96799(13) 0.1875(2) 0.31378(9) . 1. 0
Li1 Li1+ 2 a 0.131(1) 0.7036(15) 0.0940(7) . 1. 0
loop_
_atom_site_aniso_label
_atom_site_aniso_type_symbol
_atom_site_aniso_U_11
_atom_site_aniso_U_22
_atom_site_aniso_U_33
_atom_site_aniso_U_12
_atom_site_aniso_U_13
_atom_site_aniso_U_23
Si1 Si4+ 0.0093(4) 0.0073(5) 0.0058(4) -.0004(4) 0.0007(3) -.0001(4)
Si2 Si4+ 0.0072(4) 0.0057(4) 0.0063(4) -.0003(4) 0.0006(3) 0.0006(4)
O1 O2- 0.0158(13) 0.0070(11) 0.0077(11) -.0003(11) -.0007(9) 0.0013(11)
O2 O2- 0.0098(11) 0.0095(12) 0.010(1) -.0013(12) 0.0020(8) -.0009(12)
O3 O2- 0.0120(11) 0.0116(12) 0.0059(10) 0.0014(12) 0.0015(8) 0.0019(12)
O4 O2- 0.0082(11) 0.0064(11) 0.0106(11) 0.000(1) 0.0001(9) 0.0026(11)
O5 O2- 0.0118(12) 0.0053(12) 0.0091(11) 0.0015(10) 0.0008(9) 0.0028(10)
K1 K1+ 0.0168(4) 0.0122(4) 0.0150(4) 0.0003(4) 0.0021(3) -.0008(4)
Li1 Li1+ 0.018(3) 0.003(2) 0.009(2) -.001(3) 0.001(2) -.002(3)
#End of TTdata_82457-ICSD