
#(C) 2019 by FIZ Karlsruhe - Leibniz Institute for Information Infrastructure.  All rights reserved.
data_82528-ICSD
_database_code_ICSD 82528
_audit_creation_date 1997-11-10
_chemical_name_systematic
'Sodium manganese(VII) phosphorus(V) oxide (4/0.5/0.5/5)'
_chemical_formula_structural 'Na4 ((Mn0.5 P0.5) O4) O'
_chemical_formula_sum 'Mn0.5 Na4 O5 P0.5'
_exptl_crystal_density_diffrn 2.7
_cell_measurement_temperature 296.
_publ_section_title

;
Na4 Mn0.5 P0.5 O5: synthesis of a novel mixed-metal
manganese(VII)/phosphorus(V) oxide via hydroxide flux
;
loop_
_citation_id
_citation_journal_full
_citation_year
_citation_journal_volume
_citation_page_first
_citation_page_last
_citation_journal_id_ASTM
primary 'Inorganic Chemistry' 1996 35 6358 6361 INOCAJ
loop_
_publ_author_name
'Etheredge, K.M.S.'
'Gardberg, A.S.'
'Hwu, S.-J.'
_cell_length_a 8.967(3)
_cell_length_b 7.291(3)
_cell_length_c 8.090(3)
_cell_angle_alpha 90.
_cell_angle_beta 90.
_cell_angle_gamma 90.
_cell_volume 528.91
_cell_formula_units_Z 4
_symmetry_space_group_name_H-M 'P n m a'
_symmetry_Int_Tables_number 62
_refine_ls_R_factor_all 0.033
loop_
_symmetry_equiv_pos_site_id
_symmetry_equiv_pos_as_xyz
1 'x+1/2, y, -z+1/2'
2 'x, -y+1/2, z'
3 '-x+1/2, y+1/2, z+1/2'
4 '-x, -y, -z'
5 '-x+1/2, -y, z+1/2'
6 '-x, y+1/2, -z'
7 'x+1/2, -y+1/2, -z+1/2'
8 'x, y, z'
loop_
_atom_type_symbol
_atom_type_oxidation_number
Mn7+ 7
P5+ 5
Na1+ 1
O2- -2
loop_
_atom_site_label
_atom_site_type_symbol
_atom_site_symmetry_multiplicity
_atom_site_Wyckoff_symbol
_atom_site_fract_x
_atom_site_fract_y
_atom_site_fract_z
_atom_site_B_iso_or_equiv
_atom_site_occupancy
_atom_site_attached_hydrogens
Mn1 Mn7+ 4 c 0.36332(4) 0.25 0.35124(5) 1.04(2) 0.5 0
P1 P5+ 4 c 0.36332(4) 0.25 0.35124(5) 1.04(2) 0.5 0
Na1 Na1+ 8 d 0.36932(7) 0.0081(1) 0.65139(8) 1.52(3) 1. 0
Na2 Na1+ 4 b 0 0 0.5 2.63(5) 1. 0
Na3 Na1+ 4 c 0.12769(9) 0.25 0.7663(1) 1.35(4) 1. 0
O1 O2- 4 c 0.2179(2) 0.25 0.4631(2) 1.86(7) 1. 0
O2 O2- 4 c 0.0064(2) 0.25 0.0279(2) 1.32(7) 1. 0
O3 O2- 8 d 0.3715(1) 0.0707(2) 0.2395(1) 1.46(5) 1. 0
O4 O2- 4 c 0.3833(2) 0.25 0.8508(2) 1.16(6) 1. 0
#End of TTdata_82528-ICSD