
#(C) 2019 by FIZ Karlsruhe - Leibniz Institute for Information Infrastructure.  All rights reserved.
data_82620-ICSD
_database_code_ICSD 82620
_audit_creation_date 1997-11-10
_audit_update_record 2007-08-01
_chemical_name_systematic 'Sodium chromium bis(chromate(VI))'
_chemical_formula_structural 'Na Cr (Cr O4)2'
_chemical_formula_sum 'Cr3 Na1 O8'
_chemical_name_structure_type KFe(SO4)2
_exptl_crystal_density_diffrn 3.22
_publ_section_title

;
Synthesis, thermal decomposition and vibrational spectra of the phases M(I) Cr
(Cr O4)2 (M(I) = Na, K, Rb)
;
loop_
_citation_id
_citation_journal_full
_citation_year
_citation_journal_volume
_citation_page_first
_citation_page_last
_citation_journal_id_ASTM
primary 'Journal of Physics and Chemistry of Solids' 1996 57 1929 1935 JPCSAW
loop_
_publ_author_name
'Saavedra, M.J.'
'Parada, C.'
'Baran, E.J.'
_cell_length_a 8.4945(7)
_cell_length_b 5.4763(5)
_cell_length_c 6.7991(5)
_cell_angle_alpha 90.
_cell_angle_beta 91.412(5)
_cell_angle_gamma 90.
_cell_volume 316.19
_cell_formula_units_Z 2
_symmetry_space_group_name_H-M 'C 1 2/m 1'
_symmetry_Int_Tables_number 12
_refine_ls_R_factor_all 0.065
loop_
_symmetry_equiv_pos_site_id
_symmetry_equiv_pos_as_xyz
1 '-x, y, -z'
2 '-x, -y, -z'
3 'x, -y, z'
4 'x, y, z'
5 '-x+1/2, y+1/2, -z'
6 '-x+1/2, -y+1/2, -z'
7 'x+1/2, -y+1/2, z'
8 'x+1/2, y+1/2, z'
loop_
_atom_type_symbol
_atom_type_oxidation_number
Na1+ 1
Cr3+ 3
Cr6+ 6
O2- -2
loop_
_atom_site_label
_atom_site_type_symbol
_atom_site_symmetry_multiplicity
_atom_site_Wyckoff_symbol
_atom_site_fract_x
_atom_site_fract_y
_atom_site_fract_z
_atom_site_B_iso_or_equiv
_atom_site_occupancy
_atom_site_attached_hydrogens
Na1 Na1+ 2 a 0 0 0 0.498(3) 1. 0
Cr1 Cr3+ 2 c 0 0 0.5 0.288(3) 1. 0
Cr2 Cr6+ 4 i 0.6360(4) 0 0.2709(5) 0.072(4) 1. 0
O1 O2- 4 i 0.2256(14) 0 0.5574(17) 0.3(4) 1. 0
O2 O2- 4 i 0.7118(14) 0 0.0616(15) 0.3(4) 1. 0
O3 O2- 8 j 0.0235(8) 0.2461(18) 0.2861(11) 0.3(4) 1. 0
#End of TTdata_82620-ICSD