
#(C) 2018 by FIZ Karlsruhe - Leibniz Institute for Information Infrastructure.  All rights reserved.
data_82635-ICSD
_database_code_ICSD 82635
_audit_creation_date 1997-11-10
_chemical_name_systematic 'Lithium niobium nitride oxide (16/2/8/1)'
_chemical_formula_structural 'Li16 Nb2 N8 O'
_chemical_formula_sum 'Li16 N8 Nb2 O1'
_chemical_name_structure_type Li16Ta2N8O
_exptl_crystal_density_diffrn 2.68
_publ_section_title 'Crystal structure of the oxynitride, Li16 Nb2 N8 O'
loop_
_citation_id
_citation_journal_full
_citation_year
_citation_journal_volume
_citation_page_first
_citation_page_last
_citation_journal_id_ASTM
primary 'Journal of Solid State Chemistry' 1996 127 19 24 JSSCBI
loop_
_publ_author_name
'Chen, X.-Z.'
'Eick, H.A.'
_cell_length_a 5.984(4)
_cell_length_b 5.984(4)
_cell_length_c 25.4840(80)
_cell_angle_alpha 90.
_cell_angle_beta 90.
_cell_angle_gamma 120.
_cell_volume 790.28
_cell_formula_units_Z 3
_symmetry_space_group_name_H-M 'R -3 H'
_symmetry_Int_Tables_number 148
_refine_ls_R_factor_all 0.024
loop_
_symmetry_equiv_pos_site_id
_symmetry_equiv_pos_as_xyz
1 'x-y, x, -z'
2 'y, -x+y, -z'
3 '-x, -y, -z'
4 '-x+y, -x, z'
5 '-y, x-y, z'
6 'x, y, z'
7 'x-y+2/3, x+1/3, -z+1/3'
8 'y+2/3, -x+y+1/3, -z+1/3'
9 '-x+2/3, -y+1/3, -z+1/3'
10 '-x+y+2/3, -x+1/3, z+1/3'
11 '-y+2/3, x-y+1/3, z+1/3'
12 'x+2/3, y+1/3, z+1/3'
13 'x-y+1/3, x+2/3, -z+2/3'
14 'y+1/3, -x+y+2/3, -z+2/3'
15 '-x+1/3, -y+2/3, -z+2/3'
16 '-x+y+1/3, -x+2/3, z+2/3'
17 '-y+1/3, x-y+2/3, z+2/3'
18 'x+1/3, y+2/3, z+2/3'
loop_
_atom_type_symbol
_atom_type_oxidation_number
Nb5+ 5
N3- -3
O2- -2
Li1+ 1
loop_
_atom_site_label
_atom_site_type_symbol
_atom_site_symmetry_multiplicity
_atom_site_Wyckoff_symbol
_atom_site_fract_x
_atom_site_fract_y
_atom_site_fract_z
_atom_site_B_iso_or_equiv
_atom_site_occupancy
_atom_site_attached_hydrogens
Nb1 Nb5+ 6 c 0 0 0.24944(1) . 1. 0
N1 N3- 18 f 0.3089(4) 0.3110(4) 0.22491(7) . 1. 0
N2 N3- 6 c 0 0 0.3265(1) . 1. 0
O1 O2- 3 a 0 0 0 . 1. 0
Li1 Li1+ 18 f 0.357(1) 0.303(1) 0.4747(1) . 1. 0
Li2 Li1+ 18 f 0.032(1) 0.340(1) 0.0233(2) . 1. 0
Li3 Li1+ 6 c 0 0 0.0769(3) . 1. 0
Li4 Li1+ 6 c 0 0 0.4165(3) . 1. 0
loop_
_atom_site_aniso_label
_atom_site_aniso_type_symbol
_atom_site_aniso_U_11
_atom_site_aniso_U_22
_atom_site_aniso_U_33
_atom_site_aniso_U_12
_atom_site_aniso_U_13
_atom_site_aniso_U_23
Nb1 Nb5+ 0.0034(1) 0.0034(1) 0.0034(2) 0.0017(1) 0 0
N1 N3- 0.0064(9) 0.0060(9) 0.0054(7) 0.0031(8) 0.0007(7) 0.0003(7)
N2 N3- 0.007(1) 0.007(1) 0.005(2) 0.003(1) 0 0
O1 O2- 0.006(1) 0.006(1) 0.006(2) 0.003(1) 0 0
Li1 Li1+ 0.012(2) 0.010(2) 0.010(2) 0.006(2) 0.001(1) 0.000(1)
Li2 Li1+ 0.012(2) 0.012(2) 0.012(2) 0.007(2) 0.003(1) -.001(1)
Li3 Li1+ 0.010(2) 0.010(2) 0.007(4) 0.005(1) 0 0
Li4 Li1+ 0.013(2) 0.013(2) 0.011(3) 0.007(1) 0 0
#End of TTdata_82635-ICSD