
#(C) 2019 by FIZ Karlsruhe - Leibniz Institute for Information Infrastructure.  All rights reserved.
data_82766-ICSD
_database_code_ICSD 82766
_audit_creation_date 1998-06-26
_audit_update_record 1999-01-19
_chemical_name_systematic 'Cesium trisodium heptazinc hexakis(phosphate(V))'
_chemical_formula_structural 'Cs Na3 Zn7 (P O4)6'
_chemical_formula_sum 'Cs1 Na3 O24 P6 Zn7'
_exptl_crystal_density_diffrn 3.87
_publ_section_title
'Crystal structure of a new orthophosphate Cs Na3 Zn7 (P O4)6'
loop_
_citation_id
_citation_journal_full
_citation_year
_citation_journal_volume
_citation_page_first
_citation_page_last
_citation_journal_id_ASTM
primary 'Doklady Akademii Nauk' 1996 348 755 758 DAKNEQ
loop_
_publ_author_name
'Yakubovich, O.V.'
'Mel'nikov, O.K. (Melnikov, O.K.)'
'Urusov, V.S.'
'Massa, V.'
'Vochadlo, S.'
_cell_length_a 13.151(3)
_cell_length_b 10.901(2)
_cell_length_c 15.994(3)
_cell_angle_alpha 90.
_cell_angle_beta 113.20(3)
_cell_angle_gamma 90.
_cell_volume 2107.47
_cell_formula_units_Z 4
_symmetry_space_group_name_H-M 'C 1 2/c 1'
_symmetry_Int_Tables_number 15
_refine_ls_R_factor_all 0.028
loop_
_symmetry_equiv_pos_site_id
_symmetry_equiv_pos_as_xyz
1 'x, -y, z+1/2'
2 '-x, -y, -z'
3 '-x, y, -z+1/2'
4 'x, y, z'
5 'x+1/2, -y+1/2, z+1/2'
6 '-x+1/2, -y+1/2, -z'
7 '-x+1/2, y+1/2, -z+1/2'
8 'x+1/2, y+1/2, z'
loop_
_atom_type_symbol
_atom_type_oxidation_number
Cs1+ 1
Zn2+ 2
Na1+ 1
P5+ 5
O2- -2
loop_
_atom_site_label
_atom_site_type_symbol
_atom_site_symmetry_multiplicity
_atom_site_Wyckoff_symbol
_atom_site_fract_x
_atom_site_fract_y
_atom_site_fract_z
_atom_site_B_iso_or_equiv
_atom_site_occupancy
_atom_site_attached_hydrogens
Cs1 Cs1+ 4 e 0 0.24173(8) 0.75 0.0311(2) 1. 0
Zn1 Zn2+ 4 e 0 0.8809(1) 0.75 0.0150(3) 1. 0
Zn2 Zn2+ 4 e 0 0.5851(1) 0.75 0.0163(3) 1. 0
Zn3 Zn2+ 8 f 0.81555(7) 0.53932(8) 0.37293(6) 0.0150(2) 1. 0
Zn4 Zn2+ 8 f 0.31050(7) 0.50013(8) 0.86138(6) 0.0150(2) 1. 0
Zn5 Zn2+ 8 f 0.7514(3) 0.2467(3) 0.4813(1) 0.0208(5) 0.5 0
Na1 Na1+ 8 f 0.0207(6) 0.7583(3) 0.5212(7) 0.020(1) 0.92 0
Na2 Na1+ 8 f -.010(7) 0.752(5) 0.484(7) 0.020(1) 0.08 0
Na3 Na1+ 8 f 0.745(1) 0.752(1) 0.4786(5) 0.023(2) 0.5 0
P1 P5+ 8 f -.0929(1) 0.4997(1) 0.5716(1) 0.0039(3) 1. 0
P2 P5+ 8 f 0.2113(1) 0.7295(1) 0.7306(1) 0.0060(3) 1. 0
P3 P5+ 8 f -.0887(1) -.0036(1) 0.5773(1) 0.0049(3) 1. 0
O1 O2- 8 f 0.8486(4) 0.5200(5) 0.6374(3) 0.0137(10) 1. 0
O2 O2- 8 f 0.8893(4) 0.6117(5) 0.5096(3) 0.0125(9) 1. 0
O3 O2- 8 f 0.0293(4) 0.4848(5) 0.6367(3) 0.0118(9) 1. 0
O4 O2- 8 f 0.8633(4) 0.3887(5) 0.5103(4) 0.0146(10) 1. 0
O5 O2- 8 f 0.7543(4) 0.4054(4) 0.2697(3) 0.0064(8) 1. 0
O6 O2- 8 f 0.2880(5) 0.2980(5) 0.8534(4) 0.0144(10) 1. 0
O7 O2- 8 f 0.7946(4) 0.7139(5) 0.3176(4) 0.0175(10) 1. 0
O8 O2- 8 f 0.0344(4) -.0171(5) 0.6455(3) 0.0114(9) 1. 0
O9 O2- 8 f 0.8477(4) -.0574(5) 0.6316(3) 0.0143(9) 1. 0
O10 O2- 8 f 0.8846(4) 0.1315(5) 0.5529(4) 0.0154(10) 1. 0
O11 O2- 8 f 0.0916(4) 0.7328(4) 0.7267(4) 0.0111(9) 1. 0
O12 O2- 8 f 0.8870(4) -.0811(5) 0.4919(3) 0.0146(10) 1. 0
#End of TTdata_82766-ICSD