
#(C) 2019 by FIZ Karlsruhe - Leibniz Institute for Information Infrastructure.  All rights reserved.
data_82857-ICSD
_database_code_ICSD 82857
_audit_creation_date 1998-06-26
_audit_update_record 2006-04-01
_chemical_name_systematic 'Sodium nitrate(III)'
_chemical_formula_structural 'Na (N O2)'
_chemical_formula_sum 'N1 Na1 O2'
_chemical_name_structure_type NaNO2
_exptl_crystal_density_diffrn 2.14
_publ_section_title
'The refinement of the structure of ferroelectric sodium nitride'
loop_
_citation_id
_citation_journal_full
_citation_year
_citation_journal_volume
_citation_page_first
_citation_page_last
_citation_journal_id_ASTM
primary 'Journal of the Korean Physical Society' 1996 29 551 554 JKPSDV
loop_
_publ_author_name
'Gohda, T.'
'Ichikawa, M.'
'Gustafsson, T.'
'Olovsson, I.'
_cell_length_a 3.5653(8)
_cell_length_b 5.5728(7)
_cell_length_c 5.3846(13)
_cell_angle_alpha 90.
_cell_angle_beta 90.
_cell_angle_gamma 90.
_cell_volume 106.99
_cell_formula_units_Z 2
_symmetry_space_group_name_H-M 'I m 2 m'
_symmetry_Int_Tables_number 44
_refine_ls_R_factor_all 0.032
loop_
_symmetry_equiv_pos_site_id
_symmetry_equiv_pos_as_xyz
1 'x, y, -z'
2 '-x, y, z'
3 '-x, y, -z'
4 'x, y, z'
5 'x+1/2, y+1/2, -z+1/2'
6 '-x+1/2, y+1/2, z+1/2'
7 '-x+1/2, y+1/2, -z+1/2'
8 'x+1/2, y+1/2, z+1/2'
loop_
_atom_type_symbol
_atom_type_oxidation_number
Na1+ 1
N3+ 3
O2- -2
loop_
_atom_site_label
_atom_site_type_symbol
_atom_site_symmetry_multiplicity
_atom_site_Wyckoff_symbol
_atom_site_fract_x
_atom_site_fract_y
_atom_site_fract_z
_atom_site_B_iso_or_equiv
_atom_site_occupancy
_atom_site_attached_hydrogens
Na1 Na1+ 2 a 0 0.58670(5) 0 . 1. 0
N1 N3+ 2 a 0 0.12112(8) 0 . 1. 0
O1 O2- 4 c 0 0 0.19552(5) . 1. 0
loop_
_atom_site_aniso_label
_atom_site_aniso_type_symbol
_atom_site_aniso_U_11
_atom_site_aniso_U_22
_atom_site_aniso_U_33
_atom_site_aniso_U_12
_atom_site_aniso_U_13
_atom_site_aniso_U_23
Na1 Na1+ 0.02744(9) 0.02169(9) 0.02102(8) 0 0 0
N1 N3+ 0.0313(1) 0.0193(2) 0.0193(1) 0 0 0
O1 O2- 0.0376(1) 0.0275(1) 0.01817(8) 0 0 0.00299(7)
#End of TTdata_82857-ICSD