
#(C) 2019 by FIZ Karlsruhe - Leibniz Institute for Information Infrastructure.  All rights reserved.
data_82889-ICSD
_database_code_ICSD 82889
_audit_creation_date 1998-06-26
_chemical_name_systematic 'Sodium neodymium titanate'
_chemical_formula_structural 'Na Nd (Ti O4)'
_chemical_formula_sum 'Na1 Nd1 O4 Ti1'
_chemical_name_structure_type (La,K)2CuO4
_exptl_crystal_density_diffrn 5.14
_publ_section_title

;
Synthesis and characterization of layered titanium oxides Na R Ti O4 (R = La,
Nd and Gd)
;
loop_
_citation_id
_citation_journal_full
_citation_year
_citation_journal_volume
_citation_page_first
_citation_page_last
_citation_journal_id_ASTM
primary 'Materials Research Bulletin' 1996 31 107 111 MRBUAC
loop_
_publ_author_name
'Zhu, W.-J.'
'Feng, H.H.'
'Hor, P.H.'
_cell_length_a 3.7520(1)
_cell_length_b 3.7520(1)
_cell_length_c 12.8214(5)
_cell_angle_alpha 90.
_cell_angle_beta 90.
_cell_angle_gamma 90.
_cell_volume 180.49
_cell_formula_units_Z 2
_symmetry_space_group_name_H-M 'P 4/n m m Z'
_symmetry_Int_Tables_number 129
_refine_ls_R_factor_all 0.06
loop_
_symmetry_equiv_pos_site_id
_symmetry_equiv_pos_as_xyz
1 'y+1/2, x+1/2, -z'
2 '-y, x+1/2, -z'
3 'y+1/2, -x, -z'
4 '-y, -x, -z'
5 'x+1/2, y+1/2, -z'
6 '-x, y+1/2, -z'
7 'x+1/2, -y, -z'
8 '-x, -y, -z'
9 '-y+1/2, -x+1/2, z'
10 'y, -x+1/2, z'
11 '-y+1/2, x, z'
12 'y, x, z'
13 '-x+1/2, -y+1/2, z'
14 'x, -y+1/2, z'
15 '-x+1/2, y, z'
16 'x, y, z'
loop_
_atom_type_symbol
_atom_type_oxidation_number
Ti4+ 4
Nd3+ 3
Na1+ 1
Nd3+ 3
O2- -2
loop_
_atom_site_label
_atom_site_type_symbol
_atom_site_symmetry_multiplicity
_atom_site_Wyckoff_symbol
_atom_site_fract_x
_atom_site_fract_y
_atom_site_fract_z
_atom_site_B_iso_or_equiv
_atom_site_occupancy
_atom_site_attached_hydrogens
Ti1 Ti4+ 2 c 0.75 0.75 0.2705(3) 0.4(1) 1. 0
Nd1 Nd3+ 2 c 0.25 0.25 0.1083(1) 0.5(1) 0.98(1) 0
Na1 Na1+ 2 c 0.25 0.25 0.1083(1) 0.5(1) 0.02(1) 0
Na2 Na1+ 2 c 0.25 0.25 0.4145(6) 1.2(2) 0.98(1) 0
Nd2 Nd3+ 2 c 0.25 0.25 0.4145(6) 1.2(2) 0.02(1) 0
O1 O2- 2 c 0.75 0.75 0.072(1) 1.6(4) 1. 0
O2 O2- 4 f 0.25 0.75 0.236(1) 1.6(4) 1. 0
O3 O2- 2 c 0.75 0.75 0.406(1) 1.6(4) 1. 0
#End of TTdata_82889-ICSD