
#(C) 2019 by FIZ Karlsruhe - Leibniz Institute for Information Infrastructure.  All rights reserved.
data_83119-ICSD
_database_code_ICSD 83119
_audit_creation_date 1998-06-26
_chemical_name_systematic
'Calcium sodium copper oxide chloride (1.87/0.13/1/2/2)'
_chemical_formula_structural '(Ca1.866 Na0.134) Cu O2 Cl2'
_chemical_formula_sum 'Ca1.866 Cl2 Cu1 Na0.134 O2'
_chemical_name_structure_type Ca2CuCl2O2
_exptl_crystal_density_diffrn 3.61
_publ_section_title
'Synthesis, structure, and superconductivity of Ca2-x Nax Cu O2 Cl2'
loop_
_citation_id
_citation_journal_full
_citation_year
_citation_journal_volume
_citation_page_first
_citation_page_last
_citation_journal_id_ASTM
primary
'Physica C: Superconductivity and Ist Application (Amsterdam, Netherlands)' 1996 266 191 202 PHYCE6
loop_
_publ_author_name
'Hiroi, Z.'
'Kobayashi, N.'
'Takano, M.'
_cell_length_a 3.8459(1)
_cell_length_b 3.8459(1)
_cell_length_c 15.1856(5)
_cell_angle_alpha 90.
_cell_angle_beta 90.
_cell_angle_gamma 90.
_cell_volume 224.61
_cell_formula_units_Z 2
_symmetry_space_group_name_H-M 'I 4/m m m'
_symmetry_Int_Tables_number 139
_refine_ls_R_factor_all 0.063
loop_
_symmetry_equiv_pos_site_id
_symmetry_equiv_pos_as_xyz
1 'y, x, -z'
2 '-y, -x, -z'
3 '-y, x, -z'
4 'y, -x, -z'
5 '-x, y, -z'
6 'x, -y, -z'
7 'x, y, -z'
8 '-x, -y, -z'
9 '-y, -x, z'
10 'y, x, z'
11 'y, -x, z'
12 '-y, x, z'
13 'x, -y, z'
14 '-x, y, z'
15 '-x, -y, z'
16 'x, y, z'
17 'y+1/2, x+1/2, -z+1/2'
18 '-y+1/2, -x+1/2, -z+1/2'
19 '-y+1/2, x+1/2, -z+1/2'
20 'y+1/2, -x+1/2, -z+1/2'
21 '-x+1/2, y+1/2, -z+1/2'
22 'x+1/2, -y+1/2, -z+1/2'
23 'x+1/2, y+1/2, -z+1/2'
24 '-x+1/2, -y+1/2, -z+1/2'
25 '-y+1/2, -x+1/2, z+1/2'
26 'y+1/2, x+1/2, z+1/2'
27 'y+1/2, -x+1/2, z+1/2'
28 '-y+1/2, x+1/2, z+1/2'
29 'x+1/2, -y+1/2, z+1/2'
30 '-x+1/2, y+1/2, z+1/2'
31 '-x+1/2, -y+1/2, z+1/2'
32 'x+1/2, y+1/2, z+1/2'
loop_
_atom_type_symbol
_atom_type_oxidation_number
Ca2+ 2
Na1+ 1
Cu2+ 2.134
O2- -2
Cl1- -1
loop_
_atom_site_label
_atom_site_type_symbol
_atom_site_symmetry_multiplicity
_atom_site_Wyckoff_symbol
_atom_site_fract_x
_atom_site_fract_y
_atom_site_fract_z
_atom_site_B_iso_or_equiv
_atom_site_occupancy
_atom_site_attached_hydrogens
Ca1 Ca2+ 4 e 0 0 0.3944(2) 0.84(7) 0.933(12) 0
Na1 Na1+ 4 e 0 0 0.3944(2) 0.84(7) 0.067(12) 0
Cu1 Cu2+ 2 a 0 0 0 0.43(6) 1. 0
O1 O2- 4 c 0 0.5 0 1.0(6) 1. 0
Cl1 Cl1- 4 e 0 0 0.1813(1) 0.80(7) 1. 0
#End of TTdata_83119-ICSD