
#(C) 2019 by FIZ Karlsruhe - Leibniz Institute for Information Infrastructure.  All rights reserved.
data_83318-ICSD
_database_code_ICSD 83318
_audit_creation_date 1998-06-26
_audit_update_record 2012-08-01
_chemical_name_systematic 'Sodium bismuth bis(tungstate)'
_chemical_formula_structural 'Na Bi (W O4)2'
_chemical_formula_sum 'Bi1 Na1 O8 W2'
_chemical_name_structure_type AgBi(CrO4)2
_exptl_crystal_density_diffrn 7.56
_cell_measurement_temperature 296.
_publ_section_title

;
Structure and vibrational dynamics of tetragonal Na Bi (W O4)2 scheelite
crystal
;
loop_
_citation_id
_citation_journal_full
_citation_year
_citation_journal_volume
_citation_page_first
_citation_page_last
_citation_journal_id_ASTM
primary 'Vibrational Spectroscopy' 1996 12 25 36 VISPEK
loop_
_publ_author_name
'Hanuza, J.'
'Benzar, A.'
'Haznar, A.'
'Maczka, M.'
'Pietraszko, A.'
'van der Maas, J.H.'
_cell_length_a 5.275(1)
_cell_length_b 5.275(1)
_cell_length_c 11.493(2)
_cell_angle_alpha 90.
_cell_angle_beta 90.
_cell_angle_gamma 90.
_cell_volume 319.8
_cell_formula_units_Z 2
_symmetry_space_group_name_H-M 'I -4'
_symmetry_Int_Tables_number 82
_refine_ls_R_factor_all 0.024
loop_
_symmetry_equiv_pos_site_id
_symmetry_equiv_pos_as_xyz
1 '-y, x, -z'
2 'y, -x, -z'
3 '-x, -y, z'
4 'x, y, z'
5 '-y+1/2, x+1/2, -z+1/2'
6 'y+1/2, -x+1/2, -z+1/2'
7 '-x+1/2, -y+1/2, z+1/2'
8 'x+1/2, y+1/2, z+1/2'
loop_
_atom_type_symbol
_atom_type_oxidation_number
W6+ 6
Bi3+ 3
O2- -2
W6+ 6
Na1+ 1
Bi3+ 3
Na1+ 1
O2- -2
loop_
_atom_site_label
_atom_site_type_symbol
_atom_site_symmetry_multiplicity
_atom_site_Wyckoff_symbol
_atom_site_fract_x
_atom_site_fract_y
_atom_site_fract_z
_atom_site_B_iso_or_equiv
_atom_site_occupancy
_atom_site_attached_hydrogens
W1 W6+ 2 a 0 0 0 0.010(1) 1. 0
Bi1 Bi3+ 2 c 0 0.5 0.25 0.014(1) 0.6 0
O1 O2- 8 g 0.3472(28) 0.2318(26) 0.1646(14) 0.021(2) 1. 0
W2 W6+ 2 d 0.5 0 0.25 0.003(1) 1. 0
Na1 Na1+ 2 c 0 0.5 0.25 0.014(1) 0.4 0
Bi2 Bi3+ 2 b 0.5 0.5 0 0.005(1) 0.4 0
Na2 Na1+ 2 b 0.5 0.5 0 0.005(1) 0.6 0
O2 O2- 8 g 0.8456(25) 0.2461(26) 0.0846(13) 0.015(2) 1. 0
#End of TTdata_83318-ICSD