
#(C) 2019 by FIZ Karlsruhe - Leibniz Institute for Information Infrastructure.  All rights reserved.
data_83325-ICSD
_database_code_ICSD 83325
_audit_creation_date 1998-06-26
_audit_update_record 1999-11-30
_chemical_name_systematic 'Octasodium tecto-hexaalumohexasilicate dichloride'
_chemical_formula_structural 'Na8 (Al6 Si6 O24) Cl2'
_chemical_formula_sum 'Al6 Cl2 Na8 O24 Si6'
_chemical_name_structure_type Sodalite-frame
_chemical_name_mineral Sodalite
_exptl_crystal_density_diffrn 2.44
_cell_measurement_pressure 3400000.
_publ_section_title 'Single crystal study of sodalite at high pressure'
loop_
_citation_id
_citation_journal_full
_citation_year
_citation_journal_volume
_citation_page_first
_citation_page_last
_citation_journal_id_ASTM
primary 'Zeitschrift fuer Kristallographie' 1996 211 158 162 ZEKRDZ
loop_
_publ_author_name
'Werner, S.'
'Barth, S.'
'Jordan, R.'
'Schulz, H.'
_cell_length_a 8.706(2)
_cell_length_b 8.706(2)
_cell_length_c 8.706(2)
_cell_angle_alpha 90.
_cell_angle_beta 90.
_cell_angle_gamma 90.
_cell_volume 659.87
_cell_formula_units_Z 1
_symmetry_space_group_name_H-M 'P -4 3 n'
_symmetry_Int_Tables_number 218
_refine_ls_R_factor_all 0.057
loop_
_symmetry_equiv_pos_site_id
_symmetry_equiv_pos_as_xyz
1 '-z+1/2, y+1/2, -x+1/2'
2 '-y+1/2, x+1/2, -z+1/2'
3 '-x+1/2, z+1/2, -y+1/2'
4 'z+1/2, -y+1/2, -x+1/2'
5 'y+1/2, -x+1/2, -z+1/2'
6 'x+1/2, -z+1/2, -y+1/2'
7 '-z+1/2, -y+1/2, x+1/2'
8 '-y+1/2, -x+1/2, z+1/2'
9 '-x+1/2, -z+1/2, y+1/2'
10 'z+1/2, y+1/2, x+1/2'
11 'y+1/2, x+1/2, z+1/2'
12 'x+1/2, z+1/2, y+1/2'
13 '-z, -x, y'
14 '-y, -z, x'
15 '-x, -y, z'
16 'z, -x, -y'
17 'y, -z, -x'
18 'x, -y, -z'
19 '-z, x, -y'
20 '-y, z, -x'
21 '-x, y, -z'
22 'z, x, y'
23 'y, z, x'
24 'x, y, z'
loop_
_atom_type_symbol
_atom_type_oxidation_number
O2- -2
Na1+ 1
Si4+ 4
Al3+ 3
Cl1- -1
loop_
_atom_site_label
_atom_site_type_symbol
_atom_site_symmetry_multiplicity
_atom_site_Wyckoff_symbol
_atom_site_fract_x
_atom_site_fract_y
_atom_site_fract_z
_atom_site_B_iso_or_equiv
_atom_site_occupancy
_atom_site_attached_hydrogens
O1 O2- 24 i 0.133(2) 0.433(1) 0.153(2) 0.010(3) 1. 0
Na1 Na1+ 8 e 0.1742(9) 0.1742(9) 0.1742(9) 0.018(4) 1. 0
Si1 Si4+ 6 d 0.25 0 0.5 0.015(2) 1. 0
Al1 Al3+ 6 c 0.25 0.5 0 0.015(2) 1. 0
Cl1 Cl1- 2 a 0 0 0 0.041(5) 1. 0
#End of TTdata_83325-ICSD