
#(C) 2019 by FIZ Karlsruhe - Leibniz Institute for Information Infrastructure.  All rights reserved.
data_83657-ICSD
_database_code_ICSD 83657
_audit_creation_date 1998-06-26
_chemical_name_systematic 'Sodium yttrium diphosphate'
_chemical_formula_structural 'Na Y (P2 O7)'
_chemical_formula_sum 'Na1 O7 P2 Y1'
_exptl_crystal_density_diffrn 3.09
_publ_section_title 'Na Y P2 O7'
loop_
_citation_id
_citation_journal_full
_citation_year
_citation_journal_volume
_citation_page_first
_citation_page_last
_citation_journal_id_ASTM
primary 'Acta Crystallographica, Section C: Crystal Structure Communications'
1996 52 2949 2951 ACSCEE
loop_
_publ_author_name
'Hamady, A.'
'Jouini, T.'
_cell_length_a 7.004(1)
_cell_length_b 5.3740(8)
_cell_length_c 8.691(1)
_cell_angle_alpha 90.
_cell_angle_beta 110.18(1)
_cell_angle_gamma 90.
_cell_volume 307.04
_cell_formula_units_Z 2
_symmetry_space_group_name_H-M 'P 1 21 1'
_symmetry_Int_Tables_number 4
_refine_ls_R_factor_all 0.042
loop_
_symmetry_equiv_pos_site_id
_symmetry_equiv_pos_as_xyz
1 '-x, y+1/2, -z'
2 'x, y, z'
loop_
_atom_type_symbol
_atom_type_oxidation_number
Y3+ 3
P5+ 5
Na1+ 1
O2- -2
loop_
_atom_site_label
_atom_site_type_symbol
_atom_site_symmetry_multiplicity
_atom_site_Wyckoff_symbol
_atom_site_fract_x
_atom_site_fract_y
_atom_site_fract_z
_atom_site_B_iso_or_equiv
_atom_site_occupancy
_atom_site_attached_hydrogens
Y1 Y3+ 2 a 0.2074(2) -.0043(4) 0.7523(2) . 1. 0
P1 P5+ 2 a 0.5491(5) 0.477(1) 0.8137(4) 0.011(1) 1. 0
P2 P5+ 2 a 0.8742(5) 0.503(2) 0.6854(4) 0.0076(8) 1. 0
Na1 Na1+ 2 a 0.8316(9) -.009(3) 0.9457(7) 0.023(2) 1. 0
O1 O2- 2 a 0.506(2) 0.201(2) 0.810(1) 0.018(3) 1. 0
O2 O2- 2 a 0.713(2) 0.549(3) 0.971(1) 0.017(3) 1. 0
O3 O2- 2 a 0.870(1) 0.518(1) 0.512(1) 0.016(2) 1. 0
O4 O2- 2 a 0.641(1) 0.527(3) 0.671(1) 0.013(2) 1. 0
O5 O2- 2 a 0.980(3) 0.734(4) 0.786(2) 0.018(5) 1. 0
O6 O2- 2 a 0.356(2) 0.629(3) 0.771(2) 0.029(3) 1. 0
O7 O2- 2 a 0.963(3) 0.273(4) 0.776(2) 0.015(5) 1. 0
loop_
_atom_site_aniso_label
_atom_site_aniso_type_symbol
_atom_site_aniso_U_11
_atom_site_aniso_U_22
_atom_site_aniso_U_33
_atom_site_aniso_U_12
_atom_site_aniso_U_13
_atom_site_aniso_U_23
Y1 Y3+ 0.0074(6) 0.0207(8) 0.0076(6) -.002(2) 0.0035(4) -.002(2)
#End of TTdata_83657-ICSD