
#(C) 2019 by FIZ Karlsruhe - Leibniz Institute for Information Infrastructure.  All rights reserved.
data_83870-ICSD
_database_code_ICSD 83870
_audit_creation_date 1999-01-19
_audit_update_record 2012-02-01
_chemical_name_systematic 'Dicesium sodium phyllo-dodecafluorotrimanganate'
_chemical_formula_structural 'Cs2 Na (Mn3 F12)'
_chemical_formula_sum 'Cs2 F12 Mn3 Na1'
_chemical_name_structure_type Cs2NaMn3F12
_exptl_crystal_density_diffrn 3.98
_publ_section_title

;
Jahn-Teller ordering in Kagome-type layers of compounds A2 A' Mn(III)3 F12 (A
=Rb,Cs; A'=Li,Na,K)
;
loop_
_citation_id
_citation_journal_full
_citation_year
_citation_journal_volume
_citation_page_first
_citation_page_last
_citation_journal_id_ASTM
primary 'Journal of Alloys and Compounds' 1997 246 155 165 JALCEU
loop_
_publ_author_name
'Englich, U.'
'Frommen, C.'
'Massa, W.'
_cell_length_a 7.305(1)
_cell_length_b 7.512(1)
_cell_length_c 10.376(2)
_cell_angle_alpha 89.89(3)
_cell_angle_beta 87.32(3)
_cell_angle_gamma 89.89(3)
_cell_volume 568.76
_cell_formula_units_Z 2
_symmetry_space_group_name_H-M 'P -1'
_symmetry_Int_Tables_number 2
_refine_ls_R_factor_all 0.027
loop_
_symmetry_equiv_pos_site_id
_symmetry_equiv_pos_as_xyz
1 '-x, -y, -z'
2 'x, y, z'
loop_
_atom_type_symbol
_atom_type_oxidation_number
Cs1+ 1
Mn3+ 3
Na1+ 1
F1- -1
loop_
_atom_site_label
_atom_site_type_symbol
_atom_site_symmetry_multiplicity
_atom_site_Wyckoff_symbol
_atom_site_fract_x
_atom_site_fract_y
_atom_site_fract_z
_atom_site_B_iso_or_equiv
_atom_site_occupancy
_atom_site_attached_hydrogens
Cs1 Cs1+ 2 i 0.00860(6) 0.75115(6) 0.88190(4) 0.02860(14) 1. 0
Cs2 Cs1+ 2 i 0.48947(6) 0.24360(6) 0.36440(4) 0.02284(13) 1. 0
Mn1 Mn3+ 1 e 0.5 0.5 0 0.0099(3) 1. 0
Mn2 Mn3+ 1 d 0.5 0 0 0.0102(3) 1. 0
Mn3 Mn3+ 1 b 0 0 0.5 0.0096(3) 1. 0
Mn4 Mn3+ 1 g 0 0.5 0.5 0.0107(3) 1. 0
Mn5 Mn3+ 2 i 0.29115(12) 0.24917(11) 0.72775(8) 0.0109(2) 1. 0
Na1 Na1+ 2 i 0.2164(3) 0.7430(3) 0.2516(2) 0.0188(5) 1. 0
F1 F1- 2 i 0.4687(5) 0.2317(4) 0.0627(3) 0.0191(8) 1. 0
F2 F1- 2 i 0.3898(5) 0.4547(5) 0.8450(3) 0.0283(9) 1. 0
F3 F1- 2 i 0.3539(5) 0.0584(5) 0.8337(3) 0.0243(8) 1. 0
F4 F1- 2 i 0.2079(5) 0.0577(4) 0.5907(3) 0.0201(8) 1. 0
F5 F1- 2 i 0.0880(5) 0.7330(4) 0.5006(3) 0.0226(8) 1. 0
F6 F1- 2 i 0.2279(5) 0.4278(4) 0.6119(3) 0.0214(8) 1. 0
F7 F1- 2 i 0.2772(5) 0.5463(5) 0.0761(3) 0.0262(9) 1. 0
F8 F1- 2 i 0.2840(4) -.0608(4) 0.0811(3) 0.0192(8) 1. 0
F9 F1- 2 i 0.1317(5) 0.0263(4) 0.3488(3) 0.0211(8) 1. 0
F10 F1- 2 i 0.1380(5) 0.4612(5) 0.3530(3) 0.0214(8) 1. 0
F11 F1- 2 i 0.5180(4) 0.2368(5) 0.6494(3) 0.0244(9) 1. 0
F12 F1- 2 i 0.0716(5) 0.2636(5) 0.8124(3) 0.0256(9) 1. 0
#End of TTdata_83870-ICSD