
#(C) 2017 by FIZ Karlsruhe - Leibniz Institute for Information Infrastructure.  All rights reserved.
data_83986-ICSD
_database_code_ICSD 83986
_audit_creation_date 1999-01-19
_chemical_name_systematic 'Hexalithium nitride tribromide - II'
_chemical_formula_structural 'Li6 N Br3'
_chemical_formula_sum 'Br3 Li6 N1'
_exptl_crystal_density_diffrn 2.62
_publ_section_title

;
Time-of-flight neutron diffraction study on the Li2 O type phases of Li6 N Br3
;
loop_
_citation_id
_citation_journal_full
_citation_year
_citation_journal_volume
_citation_page_first
_citation_page_last
_citation_journal_id_ASTM
primary 'Journal of Alloys and Compounds' 1997 256 196 206 JALCEU
loop_
_publ_author_name
'Marx, R.'
_cell_length_a 11.50047(4)
_cell_length_b 11.58345(3)
_cell_length_c 22.49776(7)
_cell_angle_alpha 90.
_cell_angle_beta 90.
_cell_angle_gamma 90.
_cell_volume 2997.04
_cell_formula_units_Z 16
_symmetry_space_group_name_H-M 'I b c a'
_symmetry_Int_Tables_number 73
_refine_ls_R_factor_all 0.031
loop_
_symmetry_equiv_pos_site_id
_symmetry_equiv_pos_as_xyz
1 'x, y+1/2, -z'
2 'x+1/2, -y, z'
3 '-x, y, z+1/2'
4 '-x, -y, -z'
5 '-x, -y+1/2, z'
6 '-x+1/2, y, -z'
7 'x, -y, -z+1/2'
8 'x, y, z'
9 'x+1/2, y, -z+1/2'
10 'x, -y+1/2, z+1/2'
11 '-x+1/2, y+1/2, z'
12 '-x+1/2, -y+1/2, -z+1/2'
13 '-x+1/2, -y, z+1/2'
14 '-x, y+1/2, -z+1/2'
15 'x+1/2, -y+1/2, -z'
16 'x+1/2, y+1/2, z+1/2'
loop_
_atom_type_symbol
_atom_type_oxidation_number
N3- -3
Br1- -1
Li1+ 1
loop_
_atom_site_label
_atom_site_type_symbol
_atom_site_symmetry_multiplicity
_atom_site_Wyckoff_symbol
_atom_site_fract_x
_atom_site_fract_y
_atom_site_fract_z
_atom_site_B_iso_or_equiv
_atom_site_occupancy
_atom_site_attached_hydrogens
N1 N3- 8 a 0 0 0 0.0111(10) 1. 0
N2 N3- 8 b 0.25 0.25 0.25 0.0133(10) 1. 0
Br1 Br1- 8 d 0.25 0.2657(5) 0 0.0203(13) 1. 0
Br2 Br1- 8 c 0.0254(4) 0 0.25 0.0174(14) 1. 0
Br3 Br1- 8 e 0 0.25 0.1363(2) 0.0206(15) 1. 0
Br4 Br1- 8 e 0 0.25 0.3849(2) 0.0148(13) 1. 0
Br5 Br1- 16 f 0.2671(3) -.0092(4) 0.1267(2) 0.0162(8) 1. 0
Li1 Li1+ 16 f 0.1139(12) -.0699(11) 0.0558(6) 0.0369(31) 1. 0
Li2 Li1+ 16 f 0.1068(8) 0.1151(9) -.0360(5) 0.0199(24) 1. 0
Li3 Li1+ 16 f 0.0674(11) 0.8943(11) -.0572(5) 0.0320(32) 1. 0
Li4 Li1+ 16 f 0.3171(11) 0.3551(12) 0.3071(6) 0.0358(32) 1. 0
Li5 Li1+ 16 f 0.3653(10) 0.1421(11) 0.2789(5) 0.0308(29) 1. 0
Li6 Li1+ 16 f 0.1485(11) 0.1800(12) 0.3075(6) 0.0385(32) 1. 0
#End of TTdata_83986-ICSD