
#(C) 2019 by FIZ Karlsruhe - Leibniz Institute for Information Infrastructure.  All rights reserved.
data_84035-ICSD
_database_code_ICSD 84035
_audit_creation_date 1999-01-19
_audit_update_record 2006-04-01
_chemical_name_systematic 'Trisodium discandium tris(phosphate(V)) - C'
_chemical_formula_structural 'Na3 Sc2 (P O4)3'
_chemical_formula_sum 'Na3 O12 P3 Sc2'
_chemical_name_structure_type 'Nasicon high'
_exptl_crystal_density_diffrn 2.86
_cell_measurement_temperature 373.
_publ_section_title

;
Fast ion transport in the Nasicon analog Na3 Sc2 (P O4)3 : structure and
conductivity
;
loop_
_citation_id
_citation_journal_full
_citation_year
_citation_journal_volume
_citation_page_first
_citation_page_last
_citation_journal_id_ASTM
primary 'Solid State Ionics' 1983 9 839 844 SSIOD3
loop_
_publ_author_name
'Susman, S.'
'Delbecq, C.J.'
'Brun, T.O.'
'Prince, E.'
_cell_length_a 8.9273(2)
_cell_length_b 8.9273(2)
_cell_length_c 22.36678(60)
_cell_angle_alpha 90.
_cell_angle_beta 90.
_cell_angle_gamma 120.
_cell_volume 1543.74
_cell_formula_units_Z 6
_symmetry_space_group_name_H-M 'R -3 c H'
_symmetry_Int_Tables_number 167
_refine_ls_R_factor_all 0.038
loop_
_symmetry_equiv_pos_site_id
_symmetry_equiv_pos_as_xyz
1 'x-y, -y, -z+1/2'
2 '-x, -x+y, -z+1/2'
3 'y, x, -z+1/2'
4 'x-y, x, -z'
5 'y, -x+y, -z'
6 '-x, -y, -z'
7 '-x+y, y, z+1/2'
8 'x, x-y, z+1/2'
9 '-y, -x, z+1/2'
10 '-x+y, -x, z'
11 '-y, x-y, z'
12 'x, y, z'
13 'x-y+2/3, -y+1/3, -z+5/6'
14 '-x+2/3, -x+y+1/3, -z+5/6'
15 'y+2/3, x+1/3, -z+5/6'
16 'x-y+2/3, x+1/3, -z+1/3'
17 'y+2/3, -x+y+1/3, -z+1/3'
18 '-x+2/3, -y+1/3, -z+1/3'
19 '-x+y+2/3, y+1/3, z+5/6'
20 'x+2/3, x-y+1/3, z+5/6'
21 '-y+2/3, -x+1/3, z+5/6'
22 '-x+y+2/3, -x+1/3, z+1/3'
23 '-y+2/3, x-y+1/3, z+1/3'
24 'x+2/3, y+1/3, z+1/3'
25 'x-y+1/3, -y+2/3, -z+1/6'
26 '-x+1/3, -x+y+2/3, -z+1/6'
27 'y+1/3, x+2/3, -z+1/6'
28 'x-y+1/3, x+2/3, -z+2/3'
29 'y+1/3, -x+y+2/3, -z+2/3'
30 '-x+1/3, -y+2/3, -z+2/3'
31 '-x+y+1/3, y+2/3, z+1/6'
32 'x+1/3, x-y+2/3, z+1/6'
33 '-y+1/3, -x+2/3, z+1/6'
34 '-x+y+1/3, -x+2/3, z+2/3'
35 '-y+1/3, x-y+2/3, z+2/3'
36 'x+1/3, y+2/3, z+2/3'
loop_
_atom_type_symbol
_atom_type_oxidation_number
Na1+ 1
Sc3+ 3
P5+ 5
O2- -2
loop_
_atom_site_label
_atom_site_type_symbol
_atom_site_symmetry_multiplicity
_atom_site_Wyckoff_symbol
_atom_site_fract_x
_atom_site_fract_y
_atom_site_fract_z
_atom_site_B_iso_or_equiv
_atom_site_occupancy
_atom_site_attached_hydrogens
Na1 Na1+ 6 b 0 0 0 . 0.988(29) 0
Na2 Na1+ 18 e 0.6399(9) 0 0.25 . 0.671(10) 0
Sc1 Sc3+ 12 c 0 0 0.1490(1) . 1. 0
P1 P5+ 18 e 0.2929(3) 0 0.25 . 1. 0
O1 O2- 36 f 0.1857(3) -.0250(3) 0.1948(1) . 1. 0
O2 O2- 36 f 0.3138(3) 0.8405(2) 0.2561(1) . 1. 0
loop_
_atom_site_aniso_label
_atom_site_aniso_type_symbol
_atom_site_aniso_B_11
_atom_site_aniso_B_22
_atom_site_aniso_B_33
_atom_site_aniso_B_12
_atom_site_aniso_B_13
_atom_site_aniso_B_23
Na1 Na1+ 26.2(12) 26.2(12) 1.9(10) 13.1(6) 0 0
Na2 Na1+ 1.0(3) 1.3(4) 12.5(10) 0.7(2) 1.4(2) 2.8(5)
Sc1 Sc3+ 0.73(4) 0.73(4) 1.49(8) 0.36(2) 0 0
P1 P5+ 0.82(12) 0.52(14) 1.51(16) 0.26 -.1 -.2(2)
O1 O2- 1.96(12) 2.06(12) 3.78(14) 1.28(11) -1.55(11) 0.63(10)
O2 O2- 1.37(12) 0.45(9) 2.41(12) 0.59(9) -.39(10) 0.40(9)
#End of TTdata_84035-ICSD