
#(C) 2019 by FIZ Karlsruhe - Leibniz Institute for Information Infrastructure.  All rights reserved.
data_84046-ICSD
_database_code_ICSD 84046
_audit_creation_date 1999-01-19
_audit_update_record 2006-04-01
_chemical_name_systematic 'Sodium europium fluoride (1.5/1.5/6)'
_chemical_formula_structural 'Na (Na0.5 Eu0.5) Eu F6'
_chemical_formula_sum 'Eu1.5 F6 Na1.5'
_chemical_name_structure_type NaNdF4
_exptl_crystal_density_diffrn 5.45
_publ_section_title

;
Single-crystal structure refinement and luminescence analysis of beta-Na Eu F4
;
loop_
_citation_id
_citation_journal_full
_citation_year
_citation_journal_volume
_citation_page_first
_citation_page_last
_citation_journal_id_ASTM
primary 'Journal of Alloys and Compounds' 1997 257 65 68 JALCEU
loop_
_publ_author_name
'Zakaria, D.'
'Mahiou, R.'
'Avignant, D.'
'Zahir, M.'
_cell_length_a 6.040(1)
_cell_length_b 6.040(1)
_cell_length_c 3.632(1)
_cell_angle_alpha 90.
_cell_angle_beta 90.
_cell_angle_gamma 120.
_cell_volume 114.75
_cell_formula_units_Z 1
_symmetry_space_group_name_H-M 'P -6'
_symmetry_Int_Tables_number 174
_refine_ls_R_factor_all 0.016
loop_
_symmetry_equiv_pos_site_id
_symmetry_equiv_pos_as_xyz
1 '-x+y, -x, -z'
2 '-y, x-y, -z'
3 'x, y, -z'
4 '-x+y, -x, z'
5 '-y, x-y, z'
6 'x, y, z'
loop_
_atom_type_symbol
_atom_type_oxidation_number
Eu3+ 3
Na1+ 1
F1- -1
loop_
_atom_site_label
_atom_site_type_symbol
_atom_site_symmetry_multiplicity
_atom_site_Wyckoff_symbol
_atom_site_fract_x
_atom_site_fract_y
_atom_site_fract_z
_atom_site_B_iso_or_equiv
_atom_site_occupancy
_atom_site_attached_hydrogens
Eu1 Eu3+ 1 a 0 0 0 . 1. 0
Eu2 Eu3+ 1 f 0.6667 0.3333 0.5 . 0.5 0
Na1 Na1+ 1 f 0.6667 0.3333 0.5 . 0.5 0
Na2 Na1+ 2 h 0.3333 0.6667 0.334(2) . 0.5 0
F1 F1- 3 j 0.6363(5) 0.5929(5) 0 . 1. 0
F2 F1- 3 k 0.2450(4) 0.265(4) 0.5 . 1. 0
loop_
_atom_site_aniso_label
_atom_site_aniso_type_symbol
_atom_site_aniso_U_11
_atom_site_aniso_U_22
_atom_site_aniso_U_33
_atom_site_aniso_U_12
_atom_site_aniso_U_13
_atom_site_aniso_U_23
Eu1 Eu3+ 0.00654(3) 0.00654(3) 0.00348(5) 0.00327(2) 0 0
Eu2 Eu3+ 0.00594(8) 0.00594(8) 0.0088(1) 0.00297(4) 0 0
Na1 Na1+ 0.00594(8) 0.00594(8) 0.0088(1) 0.00297(4) 0 0
Na2 Na1+ 0.021(1) 0.021(1) 0.039(3) 0.010(1) 0 0
F1 F1- 0.0105(7) 0.0086(6) 0.047(2) 0.0018(5) 0 0
F2 F1- 0.0098(5) 0.0125(6) 0.0101(7) 0.0046(4) 0 0
#End of TTdata_84046-ICSD