
#(C) 2018 by FIZ Karlsruhe - Leibniz Institute for Information Infrastructure.  All rights reserved.
data_84226-ICSD
_database_code_ICSD 84226
_audit_creation_date 1999-01-19
_audit_update_record 2006-04-01
_chemical_name_systematic 'Lithium tantalate'
_chemical_formula_structural 'Li (Ta O3)'
_chemical_formula_sum 'Li1 O3 Ta1'
_chemical_name_structure_type LiNbO3
_exptl_crystal_density_diffrn 7.42
_cell_measurement_temperature 296.
_publ_section_title

;
Anharmonic thermal vibration in a crystal of lithium(I) tantalum(V) trioxide,
Li Ta O3
;
loop_
_citation_id
_citation_journal_full
_citation_year
_citation_journal_volume
_citation_page_first
_citation_page_last
_citation_journal_id_ASTM
primary 'Mineralogical Journal' 1989 14 373 382 MJTOAS
loop_
_publ_author_name
'Ohgaki, M.'
'Tanaka, K.'
'Marumo, F.'
_cell_length_a 5.15329(7)
_cell_length_b 5.15329(7)
_cell_length_c 13.7806(5)
_cell_angle_alpha 90.
_cell_angle_beta 90.
_cell_angle_gamma 120.
_cell_volume 316.93
_cell_formula_units_Z 6
_symmetry_space_group_name_H-M 'R 3 c H'
_symmetry_Int_Tables_number 161
_refine_ls_R_factor_all 0.015
loop_
_symmetry_equiv_pos_site_id
_symmetry_equiv_pos_as_xyz
1 '-x+y, y, z+1/2'
2 'x, x-y, z+1/2'
3 '-y, -x, z+1/2'
4 '-x+y, -x, z'
5 '-y, x-y, z'
6 'x, y, z'
7 '-x+y+2/3, y+1/3, z+5/6'
8 'x+2/3, x-y+1/3, z+5/6'
9 '-y+2/3, -x+1/3, z+5/6'
10 '-x+y+2/3, -x+1/3, z+1/3'
11 '-y+2/3, x-y+1/3, z+1/3'
12 'x+2/3, y+1/3, z+1/3'
13 '-x+y+1/3, y+2/3, z+1/6'
14 'x+1/3, x-y+2/3, z+1/6'
15 '-y+1/3, -x+2/3, z+1/6'
16 '-x+y+1/3, -x+2/3, z+2/3'
17 '-y+1/3, x-y+2/3, z+2/3'
18 'x+1/3, y+2/3, z+2/3'
loop_
_atom_type_symbol
_atom_type_oxidation_number
Li1+ 1
Ta5+ 5
O2- -2
loop_
_atom_site_label
_atom_site_type_symbol
_atom_site_symmetry_multiplicity
_atom_site_Wyckoff_symbol
_atom_site_fract_x
_atom_site_fract_y
_atom_site_fract_z
_atom_site_B_iso_or_equiv
_atom_site_occupancy
_atom_site_attached_hydrogens
Li1 Li1+ 6 a 0 0 0.2909(7) 0.21(2) 1. 0
Ta1 Ta5+ 6 a 0 0 0 . 1. 0
O1 O2- 18 b 0.0495(4) 0.3425(4) 0.0749(6) . 1. 0
loop_
_atom_site_aniso_label
_atom_site_aniso_type_symbol
_atom_site_aniso_U_11
_atom_site_aniso_U_22
_atom_site_aniso_U_33
_atom_site_aniso_U_12
_atom_site_aniso_U_13
_atom_site_aniso_U_23
Ta1 Ta5+ 0.00492(2) 0.00492(2) 0.00356(3) 0.00246(1) 0 0
O1 O2- 0.0066(4) 0.0059(4) 0.0055(4) 0.0028(3) -.0016(3) -.0026(4)
#End of TTdata_84226-ICSD