
#(C) 2019 by FIZ Karlsruhe - Leibniz Institute for Information Infrastructure.  All rights reserved.
data_84253-ICSD
_database_code_ICSD 84253
_audit_creation_date 1999-01-19
_audit_update_record 2009-02-01
_chemical_name_systematic 'Sodium diruthenium bis(diphosphate(V))'
_chemical_formula_structural 'Na Ru2 (P2 O7)2'
_chemical_formula_sum 'Na1 O14 P4 Ru2'
_chemical_name_structure_type CdV2(P2O7)2
_exptl_crystal_density_diffrn 3.77
_publ_section_title

;
Mixed-valence ruthenium diphosphates with a tunnel structure: A Ru2 (P2 O7)2
(A= Li, Na, Ag and Cu) and Ru2 (P2 O7)2
;
loop_
_citation_id
_citation_journal_full
_citation_year
_citation_journal_volume
_citation_page_first
_citation_page_last
_citation_journal_id_ASTM
primary 'Bulletin of the Chemical Society of Japan' 1997 70 2703 2708 BCSJA8
loop_
_publ_author_name
'Fukuoka, H.'
'Imoto, H.'
_cell_length_a 4.7802(2)
_cell_length_b 6.9797(2)
_cell_length_c 7.9179(2)
_cell_angle_alpha 91.170(2)
_cell_angle_beta 92.192(2)
_cell_angle_gamma 106.784(2)
_cell_volume 252.6
_cell_formula_units_Z 1
_symmetry_space_group_name_H-M 'P -1'
_symmetry_Int_Tables_number 2
_refine_ls_R_factor_all 0.016
loop_
_symmetry_equiv_pos_site_id
_symmetry_equiv_pos_as_xyz
1 '-x, -y, -z'
2 'x, y, z'
loop_
_atom_type_symbol
_atom_type_oxidation_number
Na1+ 1
Ru4+ 4
Ru3+ 3
P5+ 5
O2- -2
loop_
_atom_site_label
_atom_site_type_symbol
_atom_site_symmetry_multiplicity
_atom_site_Wyckoff_symbol
_atom_site_fract_x
_atom_site_fract_y
_atom_site_fract_z
_atom_site_B_iso_or_equiv
_atom_site_occupancy
_atom_site_attached_hydrogens
Na1 Na1+ 2 i 0.564(5) 0.000(3) -.026(3) 1.7(5) 0.5 0
Ru1 Ru4+ 1 f 0.5 0 0.5 0.31(5) 1. 0
Ru2 Ru3+ 1 c 0 0.5 0 0.31(5) 1. 0
P1 P5+ 2 i 0.123(1) 0.2389(9) 0.6963(8) 0.62(10) 1. 0
P2 P5+ 2 i 0.540(2) 0.6333(9) 0.7612(8) 0.62(10) 1. 0
O1 O2- 2 i 0.384(3) 0.183(2) 0.342(2) 0.52(12) 1. 0
O2 O2- 2 i 0.807(3) 0.566(2) 0.787(2) 0.52(12) 1. 0
O3 O2- 2 i 0.393(3) 0.665(2) 0.916(2) 0.52(12) 1. 0
O4 O2- 2 i 0.990(3) 0.749(2) 0.123(2) 0.52(12) 1. 0
O5 O2- 2 i 0.120(3) 0.797(2) 0.440(2) 0.52(12) 1. 0
O6 O2- 2 i 0.312(3) 0.102(2) 0.687(2) 0.52(12) 1. 0
O7 O2- 2 i 0.686(3) 0.540(2) 0.352(2) 0.52(12) 1. 0
#End of TTdata_84253-ICSD