
#(C) 2019 by FIZ Karlsruhe - Leibniz Institute for Information Infrastructure.  All rights reserved.
data_84254-ICSD
_database_code_ICSD 84254
_audit_creation_date 1999-01-19
_chemical_name_systematic 'Sodium ruthenium diphosphate(V) (0.88/1.75/2)'
_chemical_formula_structural 'Na0.88 Ru1.75 (P2 O7)2'
_chemical_formula_sum 'Na0.88 O14 P4 Ru1.75'
_chemical_name_structure_type CdV2(P2O7)2
_exptl_crystal_density_diffrn 3.65
_cell_measurement_temperature 295.
_publ_section_title

;
Mixed-valence ruthenium diphosphates with a tunnel structure: A Ru2 (P2 O7)2
(A= Li, Na, Ag and Cu) and Ru2 (P2 O7)2
;
loop_
_citation_id
_citation_journal_full
_citation_year
_citation_journal_volume
_citation_page_first
_citation_page_last
_citation_journal_id_ASTM
primary 'Bulletin of the Chemical Society of Japan' 1997 70 2703 2708 BCSJA8
loop_
_publ_author_name
'Fukuoka, H.'
'Imoto, H.'
_cell_length_a 4.7384(8)
_cell_length_b 6.8417(10)
_cell_length_c 7.9526(26)
_cell_angle_alpha 90.72(2)
_cell_angle_beta 92.74(2)
_cell_angle_gamma 105.60(1)
_cell_volume 247.95
_cell_formula_units_Z 1
_symmetry_space_group_name_H-M 'P -1'
_symmetry_Int_Tables_number 2
_refine_ls_R_factor_all 0.058
loop_
_symmetry_equiv_pos_site_id
_symmetry_equiv_pos_as_xyz
1 '-x, -y, -z'
2 'x, y, z'
loop_
_atom_type_symbol
_atom_type_oxidation_number
Na1+ 1
Ru4+ 4.068
P5+ 5
O2- -2
loop_
_atom_site_label
_atom_site_type_symbol
_atom_site_symmetry_multiplicity
_atom_site_Wyckoff_symbol
_atom_site_fract_x
_atom_site_fract_y
_atom_site_fract_z
_atom_site_B_iso_or_equiv
_atom_site_occupancy
_atom_site_attached_hydrogens
Na1 Na1+ 2 i 0.592(4) 0.004(4) 0.001(4) 0.061(9) 0.44(1) 0
Ru1 Ru4+ 1 f 0.5 0 0.5 0.0066(7) 0.804(6) 0
Ru2 Ru4+ 1 c 0 0.5 0 0.0080(6) 0.950(8) 0
P1 P5+ 2 i 0.1134(6) 0.2383(4) 0.6928(3) 0.0108(11) 1. 0
P2 P5+ 2 i 0.5200(6) 0.6300(4) 0.7543(3) 0.0105(11) 1. 0
O1 O2- 2 i 0.618(2) 0.814(1) 0.6474(9) 0.019(3) 1. 0
O2 O2- 2 i 0.218(2) 0.4505(12) 0.2032(9) 0.024(4) 1. 0
O3 O2- 2 i 0.634(2) 0.3239(10) 0.0928(9) 0.015(3) 1. 0
O4 O2- 2 i 0.030(2) 0.2432(10) 0.8735(9) 0.016(3) 1. 0
O5 O2- 2 i 0.861(2) 0.1927(10) 0.5606(9) 0.016(3) 1. 0
O6 O2- 2 i 0.314(2) 0.0936(10) 0.6836(9) 0.016(3) 1. 0
O7 O2- 2 i 0.296(2) 0.4596(10) 0.6419(9) 0.012(3) 1. 0
#End of TTdata_84254-ICSD