
#(C) 2019 by FIZ Karlsruhe - Leibniz Institute for Information Infrastructure.  All rights reserved.
data_84465-ICSD
_database_code_ICSD 84465
_audit_creation_date 1999-01-19
_chemical_name_systematic 'Sodium tecto-alumosilicate *'
_chemical_formula_structural 'Na56.6 (Na42.2) Al92 Si100 O384'
_chemical_formula_sum 'Al92 Na98.8 O384 Si100'
_chemical_name_structure_type Faujasite-Fd3--frame
_chemical_name_mineral 'Zeolite X'
_exptl_crystal_density_diffrn 1.44
_cell_measurement_temperature 294.
_publ_section_title

;
Crystal structure of a sodium sorption complex of zeolite X containing linear
Na3(2+) clusters
;
loop_
_citation_id
_citation_journal_full
_citation_year
_citation_journal_volume
_citation_page_first
_citation_page_last
_citation_journal_id_ASTM
primary 'Journal of Physical Chemistry' 1997 101 9022 9026 JPCHAX
loop_
_publ_author_name
'Shibata, W.'
'Seff, K.'
_cell_length_a 25.100(11)
_cell_length_b 25.100(11)
_cell_length_c 25.100(11)
_cell_angle_alpha 90.
_cell_angle_beta 90.
_cell_angle_gamma 90.
_cell_volume 15813.25
_cell_formula_units_Z 1
_symmetry_space_group_name_H-M 'F d -3 Z'
_symmetry_Int_Tables_number 203
_refine_ls_R_factor_all 0.071
loop_
_symmetry_equiv_pos_site_id
_symmetry_equiv_pos_as_xyz
1 '-z, x+3/4, y+3/4'
2 'z+3/4, x+3/4, -y'
3 'z+3/4, -x, y+3/4'
4 '-z, -x, -y'
5 'y+3/4, -z, x+3/4'
6 '-y, z+3/4, x+3/4'
7 'y+3/4, z+3/4, -x'
8 '-y, -z, -x'
9 'x+3/4, y+3/4, -z'
10 'x+3/4, -y, z+3/4'
11 '-x, y+3/4, z+3/4'
12 '-x, -y, -z'
13 'z, -x+1/4, -y+1/4'
14 '-z+1/4, -x+1/4, y'
15 '-z+1/4, x, -y+1/4'
16 'z, x, y'
17 '-y+1/4, z, -x+1/4'
18 'y, -z+1/4, -x+1/4'
19 '-y+1/4, -z+1/4, x'
20 'y, z, x'
21 '-x+1/4, -y+1/4, z'
22 '-x+1/4, y, -z+1/4'
23 'x, -y+1/4, -z+1/4'
24 'x, y, z'
25 '-z, x+1/4, y+1/4'
26 'z+3/4, x+1/4, -y+1/2'
27 'z+3/4, -x+1/2, y+1/4'
28 '-z, -x+1/2, -y+1/2'
29 'y+3/4, -z+1/2, x+1/4'
30 '-y, z+1/4, x+1/4'
31 'y+3/4, z+1/4, -x+1/2'
32 '-y, -z+1/2, -x+1/2'
33 'x+3/4, y+1/4, -z+1/2'
34 'x+3/4, -y+1/2, z+1/4'
35 '-x, y+1/4, z+1/4'
36 '-x, -y+1/2, -z+1/2'
37 'z, -x+3/4, -y+3/4'
38 '-z+1/4, -x+3/4, y+1/2'
39 '-z+1/4, x+1/2, -y+3/4'
40 'z, x+1/2, y+1/2'
41 '-y+1/4, z+1/2, -x+3/4'
42 'y, -z+3/4, -x+3/4'
43 '-y+1/4, -z+3/4, x+1/2'
44 'y, z+1/2, x+1/2'
45 '-x+1/4, -y+3/4, z+1/2'
46 '-x+1/4, y+1/2, -z+3/4'
47 'x, -y+3/4, -z+3/4'
48 'x, y+1/2, z+1/2'
49 '-z+1/2, x+3/4, y+1/4'
50 'z+1/4, x+3/4, -y+1/2'
51 'z+1/4, -x, y+1/4'
52 '-z+1/2, -x, -y+1/2'
53 'y+1/4, -z, x+1/4'
54 '-y+1/2, z+3/4, x+1/4'
55 'y+1/4, z+3/4, -x+1/2'
56 '-y+1/2, -z, -x+1/2'
57 'x+1/4, y+3/4, -z+1/2'
58 'x+1/4, -y, z+1/4'
59 '-x+1/2, y+3/4, z+1/4'
60 '-x+1/2, -y, -z+1/2'
61 'z+1/2, -x+1/4, -y+3/4'
62 '-z+3/4, -x+1/4, y+1/2'
63 '-z+3/4, x, -y+3/4'
64 'z+1/2, x, y+1/2'
65 '-y+3/4, z, -x+3/4'
66 'y+1/2, -z+1/4, -x+3/4'
67 '-y+3/4, -z+1/4, x+1/2'
68 'y+1/2, z, x+1/2'
69 '-x+3/4, -y+1/4, z+1/2'
70 '-x+3/4, y, -z+3/4'
71 'x+1/2, -y+1/4, -z+3/4'
72 'x+1/2, y, z+1/2'
73 '-z+1/2, x+1/4, y+3/4'
74 'z+1/4, x+1/4, -y'
75 'z+1/4, -x+1/2, y+3/4'
76 '-z+1/2, -x+1/2, -y'
77 'y+1/4, -z+1/2, x+3/4'
78 '-y+1/2, z+1/4, x+3/4'
79 'y+1/4, z+1/4, -x'
80 '-y+1/2, -z+1/2, -x'
81 'x+1/4, y+1/4, -z'
82 'x+1/4, -y+1/2, z+3/4'
83 '-x+1/2, y+1/4, z+3/4'
84 '-x+1/2, -y+1/2, -z'
85 'z+1/2, -x+3/4, -y+1/4'
86 '-z+3/4, -x+3/4, y'
87 '-z+3/4, x+1/2, -y+1/4'
88 'z+1/2, x+1/2, y'
89 '-y+3/4, z+1/2, -x+1/4'
90 'y+1/2, -z+3/4, -x+1/4'
91 '-y+3/4, -z+3/4, x'
92 'y+1/2, z+1/2, x'
93 '-x+3/4, -y+3/4, z'
94 '-x+3/4, y+1/2, -z+1/4'
95 'x+1/2, -y+3/4, -z+1/4'
96 'x+1/2, y+1/2, z'
loop_
_atom_type_symbol
_atom_type_oxidation_number
Si4+ 4
Al3+ 3
O2- -2
Na1+ 1
Na0+ 0.519
loop_
_atom_site_label
_atom_site_type_symbol
_atom_site_symmetry_multiplicity
_atom_site_Wyckoff_symbol
_atom_site_fract_x
_atom_site_fract_y
_atom_site_fract_z
_atom_site_B_iso_or_equiv
_atom_site_occupancy
_atom_site_attached_hydrogens
Si1 Si4+ 96 g -.0545(1) 0.1258(1) 0.0348(1) . 1. 0
Si2 Si4+ 96 g -.0556(1) 0.0363(1) 0.1241(2) . 0.0417 0
Al1 Al3+ 96 g -.0556(1) 0.0363(1) 0.1241(2) . 0.9582 0
O1 O2- 96 g 0.8889(3) 0.0002(3) 0.1062(3) . 1. 0
O2 O2- 96 g -.0013(3) -.0026(3) 0.1407(3) . 1. 0
O3 O2- 96 g -.0356(3) 0.0748(3) 0.0706(3) . 1. 0
O4 O2- 96 g -.0694(3) 0.0721(3) 0.1805(3) . 1. 0
Na1 Na1+ 32 e 0.0480(3) 0.0480(3) 0.0480(3) . 0.853(31) 0
Na2 Na1+ 32 e 0.2292(3) 0.2292(3) 0.2292(3) . 0.916(28) 0
Na3 Na1+ 96 g 0.4076(9) 0.0421(39) 0.0493(19) . 0.293(16) 0
Na4 Na0+ 16 d 0.5 0.5 0.5 0.0162(16) 0.881(50) 0
loop_
_atom_site_aniso_label
_atom_site_aniso_type_symbol
_atom_site_aniso_U_11
_atom_site_aniso_U_22
_atom_site_aniso_U_33
_atom_site_aniso_U_12
_atom_site_aniso_U_13
_atom_site_aniso_U_23
Si1 Si4+ 0.0020(2) 0.0016(2) 0.0014(2) -.0004(2) 0.0001(1) -.0003(2)
Si2 Si4+ 0.0021(2) 0.0014(2) 0.0018(2) 0.0002(1) -.0004(2) -.0004(2)
Al1 Al3+ 0.0021(2) 0.0014(2) 0.0018(2) 0.0002(1) -.0004(2) -.0004(2)
O1 O2- 0.0036(6) 0.0048(6) 0.0029(5) -.0009(5) -.0006(4) -.0003(4)
O2 O2- 0.0019(4) 0.0022(4) 0.0026(5) 0.0001(4) -.0015(4) -.0015(4)
O3 O2- 0.0033(5) 0.0031(5) 0.0032(5) 0.0001(4) 0.0003(4) 0.0010(4)
O4 O2- 0.0033(5) 0.0028(5) 0.0028(5) 0.0012(4) -.0010(4) -.0016(4)
Na1 Na1+ 0.0048(5) 0.0048(5) 0.0048(5) 0.0001(4) 0.0001(4) 0.0001(4)
Na2 Na1+ 0.0035(4) 0.0035(4) 0.0035(4) 0.0017(3) 0.0017(3) 0.0017(3)
Na3 Na1+ 0.0017(3) 0.0199(40) 0.0310(54) 0.0002(18) -.0028(22) -.0136(36)
#End of TTdata_84465-ICSD