
#(C) 2019 by FIZ Karlsruhe - Leibniz Institute for Information Infrastructure.  All rights reserved.
data_84563-ICSD
_database_code_ICSD 84563
_audit_creation_date 1999-01-19
_chemical_name_systematic 'Disodium magnesiosilicate'
_chemical_formula_structural 'Na2 (Mg Si O4)'
_chemical_formula_sum 'Mg1 Na2 O4 Si1'
_chemical_name_structure_type Na2ZnSiO4
_exptl_crystal_density_diffrn 2.67
_publ_section_title

;
A modulation wave approach to the structural characterization of three new
cristobalite - related sodium magnesiosilicates
;
loop_
_citation_id
_citation_journal_full
_citation_year
_citation_journal_volume
_citation_page_first
_citation_page_last
_citation_journal_id_ASTM
primary 'Acta Crystallographica, Section B: Structural Science' 1997 53 203 220
ASBSDK
loop_
_publ_author_name
'Withers, R.L.'
'Lobo, C.'
'Thompson, J.G.'
'Schmid, S.'
'Stranger, R.'
_cell_length_a 10.835(5)
_cell_length_b 5.279(12)
_cell_length_c 7.068(8)
_cell_angle_alpha 90.
_cell_angle_beta 90.
_cell_angle_gamma 90.
_cell_volume 404.28
_cell_formula_units_Z 4
_symmetry_space_group_name_H-M 'P n a 21'
_symmetry_Int_Tables_number 33
_refine_ls_R_factor_all 0.027
loop_
_symmetry_equiv_pos_site_id
_symmetry_equiv_pos_as_xyz
1 'x+1/2, -y+1/2, z'
2 '-x+1/2, y+1/2, z+1/2'
3 '-x, -y, z+1/2'
4 'x, y, z'
loop_
_atom_type_symbol
_atom_type_oxidation_number
Si4+ 4
Mg2+ 2
Na1+ 1
O2- -2
loop_
_atom_site_label
_atom_site_type_symbol
_atom_site_symmetry_multiplicity
_atom_site_Wyckoff_symbol
_atom_site_fract_x
_atom_site_fract_y
_atom_site_fract_z
_atom_site_B_iso_or_equiv
_atom_site_occupancy
_atom_site_attached_hydrogens
Si1 Si4+ 4 a 0.096(1) 0.203(2) 0.623 0.041(2) 1. 0
Mg1 Mg2+ 4 a 0.342(1) 0.204(3) 0.878(2) 0.041(2) 1. 0
Na1 Na1+ 4 a 0.086(1) 0.240(3) 0.153(3) 0.060(3) 1. 0
Na2 Na1+ 4 a 0.352(2) 0.204(4) 0.397(3) 0.060(3) 1. 0
O1 O2- 4 a 0.181(2) 0.281(4) 0.805(2) 0.054(3) 1. 0
O2 O2- 4 a 0.152(2) 0.330(4) 0.431(3) 0.054(3) 1. 0
O3 O2- 4 a 0.948(1) 0.244(5) 0.660(4) 0.054(3) 1. 0
O4 O2- 4 a 0.110(2) 0.895(2) 0.609(4) 0.054(3) 1. 0
#End of TTdata_84563-ICSD