
#(C) 2019 by FIZ Karlsruhe - Leibniz Institute for Information Infrastructure.  All rights reserved.
data_84598-ICSD
_database_code_ICSD 84598
_audit_creation_date 1999-01-19
_chemical_name_systematic 'Potassium sodium molybdate (2.5/1.5/2)'
_chemical_formula_structural '(K2.5 Na0.5) Na (Mo O4)2'
_chemical_formula_sum 'K2.5 Mo2 Na1.5 O8'
_chemical_name_structure_type Na2BaCu(VO4)2
_exptl_crystal_density_diffrn 3.21
_cell_measurement_temperature 290.
_publ_section_title

;
Phase transition in K3 Na (Mo O4)2 and determination of the twinned structures
of K3 Na (Mo O4)2 and K2.5 Na1.5 (Mo O4)2 at room temperature
;
loop_
_citation_id
_citation_journal_full
_citation_year
_citation_journal_volume
_citation_page_first
_citation_page_last
_citation_journal_id_ASTM
primary 'Acta Crystallographica, Section B: Structural Science' 1997 53 596 603
ASBSDK
loop_
_publ_author_name
'Fabry, J.'
'Petricek, V.'
'Vanek, P.'
'Cisarova, I.'
_cell_length_a 10.3849(13)
_cell_length_b 5.9957(8)
_cell_length_c 15.043(2)
_cell_angle_alpha 90.
_cell_angle_beta 90.00(2)
_cell_angle_gamma 90.
_cell_volume 936.65
_cell_formula_units_Z 4
_symmetry_space_group_name_H-M 'C 1 2/c 1'
_symmetry_Int_Tables_number 15
_refine_ls_R_factor_all 0.044
loop_
_symmetry_equiv_pos_site_id
_symmetry_equiv_pos_as_xyz
1 'x, -y, z+1/2'
2 '-x, -y, -z'
3 '-x, y, -z+1/2'
4 'x, y, z'
5 'x+1/2, -y+1/2, z+1/2'
6 '-x+1/2, -y+1/2, -z'
7 '-x+1/2, y+1/2, -z+1/2'
8 'x+1/2, y+1/2, z'
loop_
_atom_type_symbol
_atom_type_oxidation_number
K1+ 1
Na1+ 1
K1+ 1
Na1+ 1
Mo6+ 6
O2- -2
loop_
_atom_site_label
_atom_site_type_symbol
_atom_site_symmetry_multiplicity
_atom_site_Wyckoff_symbol
_atom_site_fract_x
_atom_site_fract_y
_atom_site_fract_z
_atom_site_B_iso_or_equiv
_atom_site_occupancy
_atom_site_attached_hydrogens
K1 K1+ 8 f 0.1686(6) 0.4765(3) 0.4137(2) . 0.76(1) 0
Na1 Na1+ 8 f 0.1686(6) 0.4765(3) 0.4137(2) . 0.24(1) 0
K2 K1+ 4 e 0 0.9487(5) 0.25 . 0.98(2) 0
Na2 Na1+ 4 e 0 0.9487(5) 0.25 . 0.02(2) 0
Na3 Na1+ 4 a 0 0 0 . 1. 0
Mo1 Mo6+ 8 f 0.1660(1) 0.4767(1) 0.13846(3) . 1. 0
O1 O2- 8 f 0.176(2) 0.538(1) 0.2513(5) . 1. 0
O2 O2- 8 f 0.091(1) 0.695(1) 0.0834(5) . 1. 0
O3 O2- 8 f 0.0802(9) 0.232(1) 0.1205(3) . 1. 0
O4 O2- 8 f 0.3200(9) 0.447(2) 0.0914(8) . 1. 0
loop_
_atom_site_aniso_label
_atom_site_aniso_type_symbol
_atom_site_aniso_U_11
_atom_site_aniso_U_22
_atom_site_aniso_U_33
_atom_site_aniso_U_12
_atom_site_aniso_U_13
_atom_site_aniso_U_23
K1 K1+ 0.053(2) 0.024(1) 0.0305(9) 0.002(1) 0.004(2) 0.0035(5)
Na1 Na1+ 0.053(2) 0.024(1) 0.0305(9) 0.002(1) 0.004(2) 0.0035(5)
K2 K1+ 0.077(4) 0.024(1) 0.0248(9) 0 0.001(1) 0
Na2 Na1+ 0.077(4) 0.024(1) 0.0248(9) 0 0.001(1) 0
Na3 Na1+ 0.015(4) 0.013(3) 0.014(3) 0.000(1) 0.003(4) 0.0032(8)
Mo1 Mo6+ 0.0313(8) 0.0124(4) 0.0205(3) -.0041(2) 0.0008(7) 0.0022(1)
O1 O2- 0.1(1) 0.055(5) 0.032(3) -.10(7) -.005(6) -.019(3)
O2 O2- 0.05668(38) 0.030(4) 0.076(3) 0.009(3) -.014(5) 0.10(4)
O3 O2- 0.04568(37) 0.021(3) 0.036(3) -.008(3) -.008(3) 0.001(2)
O4 O2- 0.06628(34) 0.110(7) 0.047(4) -.012(5) 0.022(4) 0.018(6)
#End of TTdata_84598-ICSD