
#(C) 2018 by FIZ Karlsruhe - Leibniz Institute for Information Infrastructure.  All rights reserved.
data_84603-ICSD
_database_code_ICSD 84603
_audit_creation_date 1999-01-19
_audit_update_record 2008-08-01
_chemical_name_systematic 'Lithium sodium aluminium oxide (0.75/0.47/11/17.11)'
_chemical_formula_structural 'Li0.75 Na0.47 Al11 O17.11'
_chemical_formula_sum 'Al11 Li0.75 Na0.47 O17.11'
_chemical_name_structure_type NaAl11O17
_exptl_crystal_density_diffrn 3.18
_cell_measurement_temperature 30.
_publ_section_title

;
Li(+)/Na(+) beta-alumina: a combined single-crystal neutron and X-ray
diffraction study
;
loop_
_citation_id
_citation_journal_full
_citation_year
_citation_journal_volume
_citation_page_first
_citation_page_last
_citation_journal_id_ASTM
primary 'Acta Crystallographica, Section B: Structural Science' 1997 53 631 638
ASBSDK
loop_
_publ_author_name
'Edstroem, K.'
'Gustafsson, T.'
'Thomas, J.O.'
'Farrington, G.C.'
_cell_length_a 5.5900(6)
_cell_length_b 5.5900(6)
_cell_length_c 22.6560(30)
_cell_angle_alpha 90.
_cell_angle_beta 90.
_cell_angle_gamma 120.
_cell_volume 613.11
_cell_formula_units_Z 2
_symmetry_space_group_name_H-M 'P 63/m m c'
_symmetry_Int_Tables_number 194
_refine_ls_R_factor_all 0.036
loop_
_symmetry_equiv_pos_site_id
_symmetry_equiv_pos_as_xyz
1 'x, x-y, -z+1/2'
2 '-x+y, y, -z+1/2'
3 '-y, -x, -z+1/2'
4 '-x+y, -x, -z+1/2'
5 '-y, x-y, -z+1/2'
6 'x, y, -z+1/2'
7 '-x, -x+y, z+1/2'
8 'x-y, -y, z+1/2'
9 'y, x, z+1/2'
10 'x-y, x, z+1/2'
11 'y, -x+y, z+1/2'
12 '-x, -y, z+1/2'
13 '-x, -x+y, -z'
14 'x-y, -y, -z'
15 'y, x, -z'
16 'x-y, x, -z'
17 'y, -x+y, -z'
18 '-x, -y, -z'
19 'x, x-y, z'
20 '-x+y, y, z'
21 '-y, -x, z'
22 '-x+y, -x, z'
23 '-y, x-y, z'
24 'x, y, z'
loop_
_atom_type_symbol
_atom_type_oxidation_number
Al3+ 3
O2- -2
Al3+ 3
Li1+ 1
Na1+ 1
Li1+ 1
Na1+ 1
O2- -2
loop_
_atom_site_label
_atom_site_type_symbol
_atom_site_symmetry_multiplicity
_atom_site_Wyckoff_symbol
_atom_site_fract_x
_atom_site_fract_y
_atom_site_fract_z
_atom_site_B_iso_or_equiv
_atom_site_occupancy
_atom_site_attached_hydrogens
Al1 Al3+ 12 k 0.832120(18) 0.66424(4) 0.105380(9) 0.00417(8) 0.963 0
Al2 Al3+ 4 f 0.3333 0.6667 0.024600(14) 0.00292(8) 1. 0
Al3 Al3+ 4 f 0.3333 0.6667 0.175520(14) 0.00604(9) 1. 0
Al4 Al3+ 2 a 0 0 0 0.00317(11) 1. 0
O1 O2- 12 k 0.15703(4) 0.31406(7) 0.049760(18) 0.00441(12) 1. 0
O2 O2- 12 k 0.50299(4) 0.49701(4) 0.145920(19) 0.00588(10) 1. 0
O3 O2- 4 f 0.6667 0.3333 0.05520(3) 0.00422(16) 1. 0
O4 O2- 4 e 0 0 0.14148(3) 0.00389(16) 1. 0
O5 O2- 6 h 0.312(2) 0.688(2) 0.25 0.051(4) 0.333 0
Al5 Al3+ 12 k 0.8399(5) 0.6798(9) 0.1762(2) 0.00417(8) 0.037 0
Li1 Li1+ 4 f 0.6667 0.3333 0.2043(7) 0.006(4) 0.142(6) 0
Na1 Na1+ 6 h 0.9058(9) 0.0942(9) 0.25 0.065(6) 0.1407(27) 0
Li2 Li1+ 6 h 0.7032(13) 0.2968(13) 0.25 0.023(5) 0.156(9) 0
Na2 Na1+ 6 h 0.7032(13) 0.2968(13) 0.25 0.023(5) 0.016 0
O6 O2- 6 h 0.8333 0.1667 0.25 0.0380(5) 0.037 0
#End of TTdata_84603-ICSD