
#(C) 2019 by FIZ Karlsruhe - Leibniz Institute for Information Infrastructure.  All rights reserved.
data_84644-ICSD
_database_code_ICSD 84644
_audit_creation_date 1999-01-19
_chemical_name_systematic
'Trisodium gallium hydroxide hydrogenphosphate(V) phosphate(V)'
_chemical_formula_structural 'Na3 Ga (O H) (H P O4) (P O4)'
_chemical_formula_sum 'H2 Ga1 Na3 O9 P2'
_chemical_name_structure_type Na3AlOHH(PO4)2
_exptl_crystal_density_diffrn 2.97
_cell_measurement_temperature 296.
_publ_section_title

;
Na3 M (O H) (H P O4) (P O4), M = Al, Ga : two phosphates with a chain
structure
;
loop_
_citation_id
_citation_journal_full
_citation_year
_citation_journal_volume
_citation_page_first
_citation_page_last
_citation_journal_id_ASTM
primary 'Journal of Solid State Chemistry' 1997 128 21 26 JSSCBI
loop_
_publ_author_name
'Lii, K.-H.'
'Wang, S.-L.'
_cell_length_a 15.4319(1)
_cell_length_b 7.1637(3)
_cell_length_c 7.0565(2)
_cell_angle_alpha 90.
_cell_angle_beta 96.637(2)
_cell_angle_gamma 90.
_cell_volume 774.86
_cell_formula_units_Z 4
_symmetry_space_group_name_H-M 'C 1 2/m 1'
_symmetry_Int_Tables_number 12
_refine_ls_R_factor_all 0.023
loop_
_symmetry_equiv_pos_site_id
_symmetry_equiv_pos_as_xyz
1 '-x, y, -z'
2 '-x, -y, -z'
3 'x, -y, z'
4 'x, y, z'
5 '-x+1/2, y+1/2, -z'
6 '-x+1/2, -y+1/2, -z'
7 'x+1/2, -y+1/2, z'
8 'x+1/2, y+1/2, z'
loop_
_atom_type_symbol
_atom_type_oxidation_number
Na1+ 1
Ga3+ 3
P5+ 5
O2- -2
H1+ 1
loop_
_atom_site_label
_atom_site_type_symbol
_atom_site_symmetry_multiplicity
_atom_site_Wyckoff_symbol
_atom_site_fract_x
_atom_site_fract_y
_atom_site_fract_z
_atom_site_B_iso_or_equiv
_atom_site_occupancy
_atom_site_attached_hydrogens
Na1 Na1+ 4 g 0 0.2352(2) 0 0.0162(6) 1. 0
Na2 Na1+ 4 i 0.1103(1) 0.5 0.7067(2) 0.0194(6) 1. 0
Na3 Na1+ 4 f 0.25 0.25 0.5 0.0332(9) 1. 0
Ga1 Ga3+ 4 e 0.25 0.25 0 0.0085(3) 1. 0
P1 P5+ 4 i 0.37870(6) 0 0.7729(1) 0.0084(3) 1. 0
P2 P5+ 4 i 0.11842(7) 0 0.7034(1) 0.0083(4) 1. 0
O1 O2- 4 i 0.4768(2) 0 0.7816(4) 0.0133(8) 1. 0
O2 O2- 4 i 0.3325(2) 0 0.5723(3) 0.0138(8) 1. 0
O3 O2- 8 j 0.3517(1) 0.1759(2) 0.8829(2) 0.0122(6) 1. 0
O4 O2- 8 j 0.1692(1) 0.1769(2) 0.7674(2) 0.0115(6) 1. 0
O5 O2- 4 i 0.0269(2) 0 0.7613(4) 0.0136(8) 1. 0
O6 O2- 4 i 0.1163(2) 0 0.4775(3) 0.0152(8) 1. 0
O7 O2- 4 i 0.2413(1) 0 0.1175(3) 0.0104(8) 1. 0
H1 H1+ 4 i 0.0602 0 0.3996 0.050(8) 1. 0
H2 H1+ 4 i 0.1887 0 0.1748 0.050(8) 1. 0
#End of TTdata_84644-ICSD