
#(C) 2018 by FIZ Karlsruhe - Leibniz Institute for Information Infrastructure.  All rights reserved.
data_84645-ICSD
_database_code_ICSD 84645
_audit_creation_date 1999-01-19
_chemical_name_systematic
'Lithium molybdenum tungsten oxide phosphate(V) (1/0.68/1.32/3/2)'
_chemical_formula_structural 'Li ((Mo0.68 W1.32) O3 (P O4)2)'
_chemical_formula_sum 'Li1 Mo0.68 O11 P2 W1.32'
_exptl_crystal_density_diffrn 4.7
_cell_measurement_temperature 294.
_publ_section_title

;
A mixed valent molybdenotungsten monophosphate with an original intersecting
tunnel structure: Li (Mo, W)2 O3 (P O4)2
;
loop_
_citation_id
_citation_journal_full
_citation_year
_citation_journal_volume
_citation_page_first
_citation_page_last
_citation_journal_id_ASTM
primary 'Journal of Solid State Chemistry' 1997 128 215 219 JSSCBI
loop_
_publ_author_name
'Leclaire, A.'
'Borel, M.M.'
'Chardon, J.'
'Raveau, B.'
_cell_length_a 8.142(1)
_cell_length_b 6.361(1)
_cell_length_c 7.728(1)
_cell_angle_alpha 90.
_cell_angle_beta 102.45(1)
_cell_angle_gamma 90.
_cell_volume 390.83
_cell_formula_units_Z 2
_symmetry_space_group_name_H-M 'C 1 2/m 1'
_symmetry_Int_Tables_number 12
_refine_ls_R_factor_all 0.031
loop_
_symmetry_equiv_pos_site_id
_symmetry_equiv_pos_as_xyz
1 '-x, y, -z'
2 '-x, -y, -z'
3 'x, -y, z'
4 'x, y, z'
5 '-x+1/2, y+1/2, -z'
6 '-x+1/2, -y+1/2, -z'
7 'x+1/2, -y+1/2, z'
8 'x+1/2, y+1/2, z'
loop_
_atom_type_symbol
_atom_type_oxidation_number
Mo5+ 5.5
W5+ 5.5
P5+ 5
Li1+ 1
O2- -2
loop_
_atom_site_label
_atom_site_type_symbol
_atom_site_symmetry_multiplicity
_atom_site_Wyckoff_symbol
_atom_site_fract_x
_atom_site_fract_y
_atom_site_fract_z
_atom_site_B_iso_or_equiv
_atom_site_occupancy
_atom_site_attached_hydrogens
Mo1 Mo5+ 4 i 0.15211(4) 0 0.21944(4) 0.37(1) 0.34 0
W1 W5+ 4 i 0.15211(4) 0 0.21944(4) 0.37(1) 0.66 0
P1 P5+ 4 i 0.2465(2) 0.5 0.3305(2) 0.45(3) 1. 0
Li1 Li1+ 2 b 0 0.5 0 2.6(6) 1. 0
O1 O2- 4 i 0.3271(9) 0 0.1338(7) 1.2(1) 1. 0
O2 O2- 2 a 0 0 0 0.8(2) 1. 0
O3 O2- 4 i 0.2667(7) 0 0.4754(6) 0.9(8) 1. 0
O4 O2- 8 j 0.1460(5) 0.3118(5) 0.2343(4) 0.9(7) 1. 0
O5 O2- 4 i -.0745(7) 0 0.3130(7) 1.2(1) 1. 0
#End of TTdata_84645-ICSD