
#(C) 2019 by FIZ Karlsruhe - Leibniz Institute for Information Infrastructure.  All rights reserved.
data_84776-ICSD
_database_code_ICSD 84776
_audit_creation_date 1999-01-19
_audit_update_record 2006-04-01
_chemical_name_systematic 'Trisodium diindium tris(phosphate(V))'
_chemical_formula_structural 'Na3 In2 (P O4)3'
_chemical_formula_sum 'In2 Na3 O12 P3'
_chemical_name_structure_type Alluaudite
_exptl_crystal_density_diffrn 4.05
_cell_measurement_temperature 296.
_publ_section_title

;
Hydrothermal synthesis and structures of Na3 In2 (P O4)3 and Na3 In2 (As O4)3:
synthetic modifications of the mineral alluaudite
;
loop_
_citation_id
_citation_journal_full
_citation_year
_citation_journal_volume
_citation_page_first
_citation_page_last
_citation_journal_id_ASTM
primary 'Journal of Solid State Chemistry' 1997 131 131 137 JSSCBI
loop_
_publ_author_name
'Lii, K.-H.'
'Ye, J.'
_cell_length_a 12.450(1)
_cell_length_b 12.786(1)
_cell_length_c 6.5920(7)
_cell_angle_alpha 90.
_cell_angle_beta 114.174(2)
_cell_angle_gamma 90.
_cell_volume 957.33
_cell_formula_units_Z 4
_symmetry_space_group_name_H-M 'C 1 2/c 1'
_symmetry_Int_Tables_number 15
_refine_ls_R_factor_all 0.017
loop_
_symmetry_equiv_pos_site_id
_symmetry_equiv_pos_as_xyz
1 'x, -y, z+1/2'
2 '-x, -y, -z'
3 '-x, y, -z+1/2'
4 'x, y, z'
5 'x+1/2, -y+1/2, z+1/2'
6 '-x+1/2, -y+1/2, -z'
7 '-x+1/2, y+1/2, -z+1/2'
8 'x+1/2, y+1/2, z'
loop_
_atom_type_symbol
_atom_type_oxidation_number
Na1+ 1
In3+ 3
P5+ 5
O2- -2
loop_
_atom_site_label
_atom_site_type_symbol
_atom_site_symmetry_multiplicity
_atom_site_Wyckoff_symbol
_atom_site_fract_x
_atom_site_fract_y
_atom_site_fract_z
_atom_site_B_iso_or_equiv
_atom_site_occupancy
_atom_site_attached_hydrogens
Na1 Na1+ 4 e 0 0.2767(2) 0.25 0.0168(8) 1. 0
Na2 Na1+ 4 e 0 0.0071(2) 0.75 0.031(1) 1. 0
Na3 Na1+ 4 b 0.5 0 0.5 0.0203(8) 1. 0
In1 In3+ 8 f 0.22774(2) 0.15589(2) 0.15504(4) 0.0077(2) 1. 0
P1 P5+ 8 f 0.23934(7) 0.89829(7) 0.1347(1) 0.0075(3) 1. 0
P2 P5+ 4 e 0 0.2732(1) 0.75 0.0072(4) 1. 0
O1 O2- 8 f 0.3635(2) -.0766(2) 0.1692(4) 0.0148(9) 1. 0
O2 O2- 8 f 0.2377(2) 0.8291(2) 0.3299(4) 0.0098(9) 1. 0
O3 O2- 8 f 0.1660(2) -.0015(2) 0.1239(4) 0.0097(9) 1. 0
O4 O2- 8 f 0.1712(2) 0.8376(2) -.0848(5) 0.011(1) 1. 0
O5 O2- 8 f 0.0516(2) 0.2028(2) 0.9568(4) 0.0117(9) 1. 0
O6 O2- 8 f 0.0890(2) 0.3474(2) 0.7173(5) 0.011(1) 1. 0
#End of TTdata_84776-ICSD