
#(C) 2019 by FIZ Karlsruhe - Leibniz Institute for Information Infrastructure.  All rights reserved.
data_84911-ICSD
_database_code_ICSD 84911
_audit_creation_date 1999-01-19
_chemical_name_systematic 'Sodium pentanitridotantalo(IV)ditantalate'
_chemical_formula_structural 'Na (Ta3 N5)'
_chemical_formula_sum 'N5 Na1 Ta3'
_exptl_crystal_density_diffrn 10.04
_publ_section_title 'A new conducting ternary nitride : Nax Ta3 N5 (0<x<1.4)'
loop_
_citation_id
_citation_journal_full
_citation_year
_citation_journal_volume
_citation_page_first
_citation_page_last
_citation_journal_id_ASTM
primary 'Journal of Solid State Chemistry' 1997 132 394 398 JSSCBI
loop_
_publ_author_name
'Clarke, S.J.'
'DiSalvo, F.J.'
_cell_length_a 3.995(1)
_cell_length_b 10.197(2)
_cell_length_c 10.331(2)
_cell_angle_alpha 90.
_cell_angle_beta 90.
_cell_angle_gamma 90.
_cell_volume 420.85
_cell_formula_units_Z 4
_symmetry_space_group_name_H-M 'C m c m'
_symmetry_Int_Tables_number 63
_refine_ls_R_factor_all 0.012
loop_
_symmetry_equiv_pos_site_id
_symmetry_equiv_pos_as_xyz
1 '-x, y, -z+1/2'
2 '-x, -y, z+1/2'
3 '-x, y, z'
4 '-x, -y, -z'
5 'x, -y, z+1/2'
6 'x, y, -z+1/2'
7 'x, -y, -z'
8 'x, y, z'
9 '-x+1/2, y+1/2, -z+1/2'
10 '-x+1/2, -y+1/2, z+1/2'
11 '-x+1/2, y+1/2, z'
12 '-x+1/2, -y+1/2, -z'
13 'x+1/2, -y+1/2, z+1/2'
14 'x+1/2, y+1/2, -z+1/2'
15 'x+1/2, -y+1/2, -z'
16 'x+1/2, y+1/2, z'
loop_
_atom_type_symbol
_atom_type_oxidation_number
Ta4+ 4.667
Na1+ 1
N3- -3
loop_
_atom_site_label
_atom_site_type_symbol
_atom_site_symmetry_multiplicity
_atom_site_Wyckoff_symbol
_atom_site_fract_x
_atom_site_fract_y
_atom_site_fract_z
_atom_site_B_iso_or_equiv
_atom_site_occupancy
_atom_site_attached_hydrogens
Ta1 Ta4+ 4 c 0 0.2004(3) 0.25 0.004(1) 1. 0
Ta2 Ta4+ 8 f 0 0.1384(2) 0.5523(3) 0.003(1) 1. 0
Na1 Na1+ 4 c 0 0.501(3) 0.75 0.024(9) 1. 0
N1 N3- 4 c 0 0.754(6) 0.25 0.025(9) 1. 0
N2 N3- 8 f 0 0.043(4) 0.129(3) 0.025(9) 1. 0
N3 N3- 8 f 0 0.344(4) 0.076(4) 0.025(9) 1. 0
#End of TTdata_84911-ICSD