
#(C) 2019 by FIZ Karlsruhe - Leibniz Institute for Information Infrastructure.  All rights reserved.
data_84947-ICSD
_database_code_ICSD 84947
_audit_creation_date 1999-01-19
_chemical_name_systematic 'Sodium tungsten oxide (0.1/1/3)'
_chemical_formula_structural 'Na0.1 (W O3)'
_chemical_formula_sum 'Na0.1 O3 W1'
_exptl_crystal_density_diffrn 7.25
_publ_section_title

;
X-ray and electron diffraction study of the tetragonal sodium tungsten bronze,
Na0.10 W O3, with distorted perovskite structure
;
loop_
_citation_id
_citation_journal_full
_citation_year
_citation_journal_volume
_citation_page_first
_citation_page_last
_citation_journal_id_ASTM
primary 'Journal of Solid State Chemistry' 1997 133 479 485 JSSCBI
loop_
_publ_author_name
'Triantafyllou, S.T.'
'Christidis, P.C.'
'Lioutas, C.B.'
_cell_length_a 7.423(3)
_cell_length_b 7.423(3)
_cell_length_c 7.791(1)
_cell_angle_alpha 90.
_cell_angle_beta 90.
_cell_angle_gamma 90.
_cell_volume 429.29
_cell_formula_units_Z 8
_symmetry_space_group_name_H-M 'P 4'
_symmetry_Int_Tables_number 75
_refine_ls_R_factor_all 0.086
loop_
_symmetry_equiv_pos_site_id
_symmetry_equiv_pos_as_xyz
1 '-y, x, z'
2 'y, -x, z'
3 '-x, -y, z'
4 'x, y, z'
loop_
_atom_type_symbol
_atom_type_oxidation_number
W5+ 5.9
O2- -2
Na1+ 1
loop_
_atom_site_label
_atom_site_type_symbol
_atom_site_symmetry_multiplicity
_atom_site_Wyckoff_symbol
_atom_site_fract_x
_atom_site_fract_y
_atom_site_fract_z
_atom_site_B_iso_or_equiv
_atom_site_occupancy
_atom_site_attached_hydrogens
W1 W5+ 1 a 0 0 0.255(3) . 1. 0
W2 W5+ 1 a 0 0 0.752(3) . 1. 0
W3 W5+ 2 c 0.5 0 0.323(3) . 1. 0
W4 W5+ 2 c 0.5 0 0.823(3) . 1. 0
W5 W5+ 1 b 0.5 0.5 0.250(4) . 1. 0
W6 W5+ 1 b 0.5 0.5 0.759(4) . 1. 0
O1 O2- 1 a 0 0 0.02(1) 0.08 1. 0
O2 O2- 1 a 0 0 0.53(1) 0.08 1. 0
O3 O2- 2 c 0.5 0 0.55(1) 0.08 1. 0
O4 O2- 2 c 0.5 0 0.05(1) 0.08 1. 0
O5 O2- 1 b 0.5 0.5 0.01(1) 0.08 1. 0
O6 O2- 1 b 0.5 0.5 0.52(1) 0.08 1. 0
O7 O2- 4 d 0.245(5) -.038(4) 0.310(5) 0.008(8) 1. 0
O8 O2- 4 d 0.248(6) 0.031(6) 0.810(8) 0.03(1) 1. 0
O9 O2- 4 d 0.475(5) 0.261(5) 0.248(6) 0.020(9) 1. 0
O10 O2- 4 d 0.56(1) 0.275(9) 0.78(1) 0.09(2) 1. 0
Na1 Na1+ 4 d 0.25 0.25 0 0.05(2) 0.1 0
Na2 Na1+ 4 d 0.25 0.25 0.5 0.05(2) 0.1 0
loop_
_atom_site_aniso_label
_atom_site_aniso_type_symbol
_atom_site_aniso_U_11
_atom_site_aniso_U_22
_atom_site_aniso_U_33
_atom_site_aniso_U_12
_atom_site_aniso_U_13
_atom_site_aniso_U_23
W1 W5+ 0.011(1) 0.011(1) 0.013(4) 0 0 0
W2 W5+ 0.019(2) 0.019(2) 0.012(4) 0 0 0
W3 W5+ 0.014(2) 0.033(2) 0.015(3) 0.000(1) 0 0
W4 W5+ 0.008(2) 0.023(2) 0.016(3) 0.000(1) 0 0
W5 W5+ 0.112(5) 0.112(5) 0.014(6) 0 0 0
W6 W5+ 0.035(2) 0.035(2) 0.014(4) 0 0 0
#End of TTdata_84947-ICSD