
#(C) 2018 by FIZ Karlsruhe - Leibniz Institute for Information Infrastructure.  All rights reserved.
data_84957-ICSD
_database_code_ICSD 84957
_audit_creation_date 1999-01-19
_chemical_name_systematic 'Lithium nickel manganese oxide (0.95/0.84/0.21/2)'
_chemical_formula_structural '(Li0.95 Ni0.05) (Ni0.79 Mn0.21) O2'
_chemical_formula_sum 'Li0.95 Mn0.21 Ni0.84 O2'
_chemical_name_structure_type Delafossite-NaCrS2
_exptl_crystal_density_diffrn 4.85
_cell_measurement_temperature 295.
_publ_section_title 'Neutron diffraction study of Li Ni0.8 Mn0.2 O2'
loop_
_citation_id
_citation_journal_full
_citation_year
_citation_journal_volume
_citation_page_first
_citation_page_last
_citation_journal_id_ASTM
primary 'Journal of Solid State Chemistry' 1997 134 1 4 JSSCBI
loop_
_publ_author_name
'Hirano, A.'
'Kanno, R.'
'Kawamoto, Y.'
'Nitta, Y.'
'Okamura, K.'
'Kamiyama, T.'
'Izumi, F.'
_cell_length_a 2.87974(10)
_cell_length_b 2.87974(10)
_cell_length_c 14.2273(3)
_cell_angle_alpha 90.
_cell_angle_beta 90.
_cell_angle_gamma 120.
_cell_volume 102.18
_cell_formula_units_Z 3
_symmetry_space_group_name_H-M 'R -3 m H'
_symmetry_Int_Tables_number 166
_refine_ls_R_factor_all 0.018
loop_
_symmetry_equiv_pos_site_id
_symmetry_equiv_pos_as_xyz
1 'x-y, -y, -z'
2 '-x, -x+y, -z'
3 'y, x, -z'
4 'x-y, x, -z'
5 'y, -x+y, -z'
6 '-x, -y, -z'
7 '-x+y, y, z'
8 'x, x-y, z'
9 '-y, -x, z'
10 '-x+y, -x, z'
11 '-y, x-y, z'
12 'x, y, z'
13 'x-y+2/3, -y+1/3, -z+1/3'
14 '-x+2/3, -x+y+1/3, -z+1/3'
15 'y+2/3, x+1/3, -z+1/3'
16 'x-y+2/3, x+1/3, -z+1/3'
17 'y+2/3, -x+y+1/3, -z+1/3'
18 '-x+2/3, -y+1/3, -z+1/3'
19 '-x+y+2/3, y+1/3, z+1/3'
20 'x+2/3, x-y+1/3, z+1/3'
21 '-y+2/3, -x+1/3, z+1/3'
22 '-x+y+2/3, -x+1/3, z+1/3'
23 '-y+2/3, x-y+1/3, z+1/3'
24 'x+2/3, y+1/3, z+1/3'
25 'x-y+1/3, -y+2/3, -z+2/3'
26 '-x+1/3, -x+y+2/3, -z+2/3'
27 'y+1/3, x+2/3, -z+2/3'
28 'x-y+1/3, x+2/3, -z+2/3'
29 'y+1/3, -x+y+2/3, -z+2/3'
30 '-x+1/3, -y+2/3, -z+2/3'
31 '-x+y+1/3, y+2/3, z+2/3'
32 'x+1/3, x-y+2/3, z+2/3'
33 '-y+1/3, -x+2/3, z+2/3'
34 '-x+y+1/3, -x+2/3, z+2/3'
35 '-y+1/3, x-y+2/3, z+2/3'
36 'x+1/3, y+2/3, z+2/3'
loop_
_atom_type_symbol
_atom_type_oxidation_number
Li1+ 1
Ni2+ 2.905
Mn2+ 2.905
O2- -2
loop_
_atom_site_label
_atom_site_type_symbol
_atom_site_symmetry_multiplicity
_atom_site_Wyckoff_symbol
_atom_site_fract_x
_atom_site_fract_y
_atom_site_fract_z
_atom_site_B_iso_or_equiv
_atom_site_occupancy
_atom_site_attached_hydrogens
Li1 Li1+ 3 a 0 0 0 . 0.9495(17) 0
Ni1 Ni2+ 3 a 0 0 0 . 0.0505(17) 0
Ni2 Ni2+ 3 b 0 0 0.5 . 0.7899 0
Mn1 Mn2+ 3 b 0 0 0.5 . 0.2101 0
O1 O2- 6 c 0 0 0.24173(6) . 1. 0
loop_
_atom_site_aniso_label
_atom_site_aniso_type_symbol
_atom_site_aniso_U_11
_atom_site_aniso_U_22
_atom_site_aniso_U_33
_atom_site_aniso_U_12
_atom_site_aniso_U_13
_atom_site_aniso_U_23
Li1 Li1+ 0.0188(16) 0.0188(16) 0.015(3) 0.0094(8) 0 0
Ni1 Ni2+ 0.0188(16) 0.0188(16) 0.015(3) 0.0094(8) 0 0
Ni2 Ni2+ 0.054(2) 0.054(2) 0.0045(3) 0.027(1) 0 0
Mn1 Mn2+ 0.054(2) 0.054(2) 0.0045(3) 0.0027(1) 0 0
O1 O2- 0.0120(9) 0.0120(9) 0.0061(19) 0.0060(5) 0 0
#End of TTdata_84957-ICSD