
#(C) 2019 by FIZ Karlsruhe - Leibniz Institute for Information Infrastructure.  All rights reserved.
data_84988-ICSD
_database_code_ICSD 84988
_audit_creation_date 1999-06-02
_chemical_name_systematic 'Trisodium diindium tris(arsenate(V))'
_chemical_formula_structural 'Na3 In2 (As O4)3'
_chemical_formula_sum 'As3 In2 Na3 O12'
_chemical_name_structure_type Alluaudite
_exptl_crystal_density_diffrn 4.58
_publ_section_title 'Alluaudite-like structure of the arsenate Na3 In2 (As O4)3'
loop_
_citation_id
_citation_journal_full
_citation_year
_citation_journal_volume
_citation_page_first
_citation_page_last
_citation_journal_id_ASTM
primary 'Journal of Solid State Chemistry' 1997 134 31 37 JSSCBI
loop_
_publ_author_name
'Khorari, S.'
'Rulmont, A.'
'Tarte, P.'
_cell_length_a 12.6025(1)
_cell_length_b 13.1699(1)
_cell_length_c 6.8335(1)
_cell_angle_alpha 90.
_cell_angle_beta 113.7420(5)
_cell_angle_gamma 90.
_cell_volume 1038.19
_cell_formula_units_Z 4
_symmetry_space_group_name_H-M 'C 1 2/c 1'
_symmetry_Int_Tables_number 15
_refine_ls_R_factor_all 0.042
loop_
_symmetry_equiv_pos_site_id
_symmetry_equiv_pos_as_xyz
1 'x, -y, z+1/2'
2 '-x, -y, -z'
3 '-x, y, -z+1/2'
4 'x, y, z'
5 'x+1/2, -y+1/2, z+1/2'
6 '-x+1/2, -y+1/2, -z'
7 '-x+1/2, y+1/2, -z+1/2'
8 'x+1/2, y+1/2, z'
loop_
_atom_type_symbol
_atom_type_oxidation_number
Na1+ 1
In3+ 3
As5+ 5
O2- -2
loop_
_atom_site_label
_atom_site_type_symbol
_atom_site_symmetry_multiplicity
_atom_site_Wyckoff_symbol
_atom_site_fract_x
_atom_site_fract_y
_atom_site_fract_z
_atom_site_B_iso_or_equiv
_atom_site_occupancy
_atom_site_attached_hydrogens
Na1 Na1+ 4 b 0 0.5 0 1.72(40) 1. 0
Na2 Na1+ 4 e 0 0.0047(8) 0.25 1.95(42) 1. 0
Na3 Na1+ 4 e 0 0.2742(8) 0.25 2.98(47) 1. 0
In1 In3+ 8 f 0.2777(1) 0.6563(1) 0.3545(3) 0.48(4) 1. 0
As1 As5+ 4 e 0 0.7228(3) 0.25 0.65(9) 1. 0
As2 As5+ 8 f 0.2393(2) 0.8966(2) 0.1321(4) 0.56(6) 1. 0
O1 O2- 8 f 0.454(1) 0.7014(9) 0.5338(18) 1.(6) 1. 0
O2 O2- 8 f 0.0975(9) 0.6409(8) 0.2244(17) 1.(6) 1. 0
O3 O2- 8 f 0.3344(9) 0.6673(9) 0.0949(17) 1.(6) 1. 0
O4 O2- 8 f 0.1258(9) 0.4201(8) 0.3195(17) 1.(6) 1. 0
O5 O2- 8 f 0.2325(9) 0.8233(8) 0.3297(17) 1.(6) 1. 0
O6 O2- 8 f 0.3408(8) 0.5027(8) 0.3842(15) 1.(6) 1. 0
#End of TTdata_84988-ICSD