
#(C) 2019 by FIZ Karlsruhe - Leibniz Institute for Information Infrastructure.  All rights reserved.
data_85094-ICSD
_database_code_ICSD 85094
_audit_creation_date 1999-06-02
_audit_update_record 2011-02-01
_chemical_name_systematic 'Sodium cadmium phyllo-tris(phosphate(V))'
_chemical_formula_structural 'Na Cd (P O3)3'
_chemical_formula_sum 'Cd1 Na1 O9 P3'
_chemical_name_structure_type NaCd(PO3)3
_exptl_crystal_density_diffrn 3.12
_publ_section_title
'Crystal structures of the polyphosphates Na Cd (P O3)3 and Na Mn (P O3)3'
loop_
_citation_id
_citation_journal_full
_citation_year
_citation_journal_volume
_citation_page_first
_citation_page_last
_citation_journal_id_ASTM
primary Kristallografiya 1997 42 416 420 KRISAJ
loop_
_publ_author_name
'Murashova, E.V.'
'Chudinova, N.N.'
_cell_length_a 14.678(2)
_cell_length_b 14.669(2)
_cell_length_c 14.705(2)
_cell_angle_alpha 90.
_cell_angle_beta 90.
_cell_angle_gamma 90.
_cell_volume 3166.16
_cell_formula_units_Z 16
_symmetry_space_group_name_H-M 'P 21 21 21'
_symmetry_Int_Tables_number 19
_refine_ls_R_factor_all 0.072
loop_
_symmetry_equiv_pos_site_id
_symmetry_equiv_pos_as_xyz
1 '-x, y+1/2, -z+1/2'
2 'x+1/2, -y+1/2, -z'
3 '-x+1/2, -y, z+1/2'
4 'x, y, z'
loop_
_atom_type_symbol
_atom_type_oxidation_number
Cd2+ 2
Na1+ 1
P5+ 5
O2- -2
loop_
_atom_site_label
_atom_site_type_symbol
_atom_site_symmetry_multiplicity
_atom_site_Wyckoff_symbol
_atom_site_fract_x
_atom_site_fract_y
_atom_site_fract_z
_atom_site_B_iso_or_equiv
_atom_site_occupancy
_atom_site_attached_hydrogens
Cd1 Cd2+ 4 a 0.8830(1) 0.3615(1) 0.1240(2) 1.37(2) 1. 0
Cd2 Cd2+ 4 a 0.3786(1) 0.6268(1) 0.1226(2) 1.22(2) 1. 0
Cd3 Cd2+ 4 a 0.3804(2) 0.3736(1) 0.3782(2) 1.58(2) 1. 0
Cd4 Cd2+ 4 a 0.1338(1) 0.1164(1) 0.1291(1) 0.64(1) 1. 0
Na1 Na1+ 4 a 0.001(1) 0.0047(9) -.008(2) 4.4(4) 1. 0
Na2 Na1+ 4 a 0.5019(8) -.0109(8) -.0117(8) 1.7(2) 1. 0
Na3 Na1+ 4 a 0.7389(8) 0.2617(7) 0.2393(7) 1.5(2) 1. 0
Na4 Na1+ 4 a 0.2562(9) 0.2548(7) 0.2385(9) 2.0(2) 1. 0
P1 P5+ 4 a 0.5277(5) 0.5251(6) 0.2678(6) 2.2(1) 1. 0
P2 P5+ 4 a 0.7228(3) 0.5074(3) 0.2216(4) 0.48(6) 1. 0
P3 P5+ 4 a 0.7423(4) 0.5249(4) 0.0197(4) 0.83(7) 1. 0
P4 P5+ 4 a 0.7277(3) 0.7220(3) -.0191(4) 0.53(6) 1. 0
P5 P5+ 4 a 0.5272(3) 0.7334(3) -.0284(3) 0.41(5) 1. 0
P6 P5+ 4 a 0.4978(6) 0.7732(6) 0.7787(6) 2.4(1) 1. 0
P7 P5+ 4 a 0.5259(4) 0.9785(6) 0.7664(5) 1.8(1) 1. 0
P8 P5+ 4 a 0.7275(5) 0.9887(5) 0.7224(5) 1.49(9) 1. 0
P9 P5+ 4 a 0.7382(4) 0.9765(5) 0.5275(5) 1.57(9) 1. 0
P10 P5+ 4 a 0.7775(4) 0.7722(4) 0.5143(5) 1.15(8) 1. 0
P11 P5+ 4 a 0.9721(3) 0.7561(4) 0.5273(4) 0.78(7) 1. 0
P12 P5+ 4 a 0.0158(5) 0.7732(6) 0.7232(4) 1.6(1) 1. 0
O1 O2- 4 a 0.487(1) 0.474(1) 0.347(1) 1.8(3) 1. 0
O2 O2- 4 a 0.627(1) 0.4810(9) 0.259(2) 2.2(3) 1. 0
O3 O2- 4 a 0.557(1) 0.622(1) 0.299(2) 2.1(3) 1. 0
O4 O2- 4 a 0.480(1) 0.526(1) 0.180(1) 2.1(3) 1. 0
O5 O2- 4 a 0.702(1) 0.537(2) 0.116(1) 2.4(4) 1. 0
O6 O2- 4 a 0.779(1) 0.418(1) 0.225(1) 1.9(3) 1. 0
O7 O2- 4 a 0.758(1) 0.587(1) 0.266(1) 1.8(3) 1. 0
O8 O2- 4 a 0.765(2) 0.622(1) -.003(2) 3.0(5) 1. 0
O9 O2- 4 a 0.829(1) 0.474(1) 0.025(1) 1.7(3) 1. 0
O10 O2- 4 a 0.662(2) 0.492(1) -.037(2) 2.5(4) 1. 0
O11 O2- 4 a 0.773(2) 0.766(1) -.093(1) 2.7(4) 1. 0
O12 O2- 4 a 0.7216(9) 0.767(1) 0.072(1) 1.3(2) 1. 0
O13 O2- 4 a 0.628(1) 0.7014(9) -.051(1) 1.4(2) 1. 0
O14 O2- 4 a 0.479(2) 0.736(1) 0.875(1) 2.4(3) 1. 0
O15 O2- 4 a 0.488(1) 0.653(1) 0.023(1) 1.3(2) 1. 0
O16 O2- 4 a 0.525(1) 0.825(1) 0.011(1) 1.4(2) 1. 0
O17 O2- 4 a 0.538(2) 0.873(1) 0.805(2) 4.2(6) 1. 0
O18 O2- 4 a 0.413(2) 0.773(2) 0.727(1) 2.8(4) 1. 0
O19 O2- 4 a 0.581(2) 0.726(3) 0.739(1) 4.4(7) 1. 0
O20 O2- 4 a 0.481(1) 0.969(1) 0.677(1) 2.1(3) 1. 0
O21 O2- 4 a 0.489(2) 0.029(2) 0.831(1) 4.1(6) 1. 0
O22 O2- 4 a 0.626(1) 0.013(2) 0.754(2) 3.1(4) 1. 0
O23 O2- 4 a 0.770(1) 0.0852(9) 0.7164(9) 0.8(2) 1. 0
O24 O2- 4 a 0.765(2) 0.915(1) 0.781(1) 2.2(3) 1. 0
O25 O2- 4 a 0.703(2) 0.956(1) 0.626(2) 4.7(7) 1. 0
O26 O2- 4 a 0.659(1) 0.019(1) 0.485(2) 3.1(5) 1. 0
O27 O2- 4 a 0.830(1) 0.016(2) 0.522(2) 2.5(4) 1. 0
O28 O2- 4 a 0.741(2) 0.876(1) 0.489(2) 3.9(7) 1. 0
O29 O2- 4 a 0.874(1) 0.792(2) 0.552(1) 2.4(4) 1. 0
O30 O2- 4 a 0.772(1) 0.726(1) 0.430(1) 1.3(2) 1. 0
O31 O2- 4 a 0.725(2) 0.742(1) 0.592(2) 3.3(5) 1. 0
O32 O2- 4 a 0.970(1) 0.669(1) 0.477(1) 1.4(2) 1. 0
O33 O2- 4 a 0.017(2) 0.835(2) 0.490(2) 3.9(6) 1. 0
O34 O2- 4 a 0.013(1) 0.727(1) 0.6262(9) 1.3(2) 1. 0
O35 O2- 4 a 0.928(1) 0.778(1) 0.762(1) 1.8(3) 1. 0
O36 O2- 4 a 0.093(1) 0.727(1) 0.773(1) 2.2(3) 1. 0
#End of TTdata_85094-ICSD