
#(C) 2019 by FIZ Karlsruhe - Leibniz Institute for Information Infrastructure.  All rights reserved.
data_85095-ICSD
_database_code_ICSD 85095
_audit_creation_date 1999-06-02
_audit_update_record 2009-02-01
_chemical_name_systematic 'Sodium manganese phyllo-tris(phosphate(V))'
_chemical_formula_structural 'Na Mn (P O3)3'
_chemical_formula_sum 'Mn1 Na1 O9 P3'
_chemical_name_structure_type NaCd(PO3)3
_exptl_crystal_density_diffrn 2.8
_publ_section_title
'Crystal structures of the polyphosphates Na Cd (P O3)3 and Na Mn (P O3)3'
loop_
_citation_id
_citation_journal_full
_citation_year
_citation_journal_volume
_citation_page_first
_citation_page_last
_citation_journal_id_ASTM
primary Kristallografiya 1997 42 416 420 KRISAJ
loop_
_publ_author_name
'Murashova, E.V.'
'Chudinova, N.N.'
_cell_length_a 14.406(4)
_cell_length_b 14.402(5)
_cell_length_c 14.408(4)
_cell_angle_alpha 90.
_cell_angle_beta 90.
_cell_angle_gamma 90.
_cell_volume 2989.3
_cell_formula_units_Z 16
_symmetry_space_group_name_H-M 'P 21 21 21'
_symmetry_Int_Tables_number 19
_refine_ls_R_factor_all 0.078
loop_
_symmetry_equiv_pos_site_id
_symmetry_equiv_pos_as_xyz
1 '-x, y+1/2, -z+1/2'
2 'x+1/2, -y+1/2, -z'
3 '-x+1/2, -y, z+1/2'
4 'x, y, z'
loop_
_atom_type_symbol
_atom_type_oxidation_number
Mn2+ 2
Na1+ 1
P5+ 5
O2- -2
loop_
_atom_site_label
_atom_site_type_symbol
_atom_site_symmetry_multiplicity
_atom_site_Wyckoff_symbol
_atom_site_fract_x
_atom_site_fract_y
_atom_site_fract_z
_atom_site_B_iso_or_equiv
_atom_site_occupancy
_atom_site_attached_hydrogens
Mn1 Mn2+ 4 a 0.8842(4) 0.3613(3) 0.1228(4) 0.77(7) 1. 0
Mn2 Mn2+ 4 a 0.3748(4) 0.6249(4) 0.1224(4) 1.06(8) 1. 0
Mn3 Mn2+ 4 a 0.3747(4) 0.3720(4) 0.3760(4) 1.07(8) 1. 0
Mn4 Mn2+ 4 a 0.1319(4) 0.1131(3) 0.1286(3) 0.35(6) 1. 0
Na1 Na1+ 4 a 0.005(1) 0.001(1) -.017(1) 1.1(3) 1. 0
Na2 Na1+ 4 a 0.503(1) -.006(1) -.001(2) 2.1(4) 1. 0
Na3 Na1+ 4 a 0.754(1) 0.252(1) 0.248(1) 2.3(3) 1. 0
Na4 Na1+ 4 a 0.247(1) 0.259(1) 0.254(1) 2.1(3) 1. 0
P1 P5+ 4 a 0.5273(7) 0.5217(8) 0.2645(7) 1.5(2) 1. 0
P2 P5+ 4 a 0.7258(6) 0.5010(6) 0.2217(5) 0.9(1) 1. 0
P3 P5+ 4 a 0.7456(5) 0.5227(6) 0.0207(6) 0.3(1) 1. 0
P4 P5+ 4 a 0.7229(5) 0.7234(5) -.0196(5) 0.26(9) 1. 0
P5 P5+ 4 a 0.5260(5) 0.7401(6) -.0273(5) 0.6(1) 1. 0
P6 P5+ 4 a 0.4971(6) 0.769(1) 0.7743(8) 2.5(2) 1. 0
P7 P5+ 4 a 0.527(1) 0.985(1) 0.763(1) 5.2(5) 1. 0
P8 P5+ 4 a 0.7224(7) 0.9899(8) 0.7276(9) 2.0(2) 1. 0
P9 P5+ 4 a 0.7380(5) 0.9777(6) 0.5234(7) 0.7(1) 1. 0
P10 P5+ 4 a 0.7709(5) 0.7739(6) 0.5081(4) 0.2(1) 1. 0
P11 P5+ 4 a 0.9675(4) 0.7550(6) 0.5239(5) 0.6(1) 1. 0
P12 P5+ 4 a 0.0130(8) 0.7742(6) 0.7273(6) 1.3(2) 1. 0
O1 O2- 4 a 0.475(2) 0.468(1) 0.335(1) 1.0(3) 1. 0
O2 O2- 4 a 0.631(2) 0.479(2) 0.262(2) 1.8(4) 1. 0
O3 O2- 4 a 0.553(2) 0.626(2) 0.304(2) 1.6(4) 1. 0
O4 O2- 4 a 0.473(2) 0.527(2) 0.177(2) 2.2(5) 1. 0
O5 O2- 4 a 0.702(1) 0.536(1) 0.117(1) 1.3(3) 1. 0
O6 O2- 4 a 0.775(1) 0.410(1) 0.218(1) 0.3(2) 1. 0
O7 O2- 4 a 0.772(1) 0.583(1) 0.273(1) 0.6(3) 1. 0
O8 O2- 4 a 0.772(1) 0.624(1) -.011(1) 0.3(2) 1. 0
O9 O2- 4 a 0.834(2) 0.472(2) 0.029(2) 1.3(4) 1. 0
O10 O2- 4 a 0.670(2) 0.492(2) -.045(2) 1.8(4) 1. 0
O11 O2- 4 a 0.768(1) 0.770(1) -.096(1) 1.0(3) 1. 0
O12 O2- 4 a 0.723(2) 0.767(2) 0.081(1) 1.0(3) 1. 0
O13 O2- 4 a 0.625(1) 0.698(1) -.049(1) 0.2(2) 1. 0
O14 O2- 4 a 0.475(2) 0.748(1) 0.879(2) 1.8(4) 1. 0
O15 O2- 4 a 0.489(1) 0.659(1) 0.029(1) 0.8(3) 1. 0
O16 O2- 4 a 0.534(1) 0.834(1) 0.013(1) 0.3(2) 1. 0
O17 O2- 4 a 0.572(4) 0.874(4) 0.771(4) 0.8(2) 1. 0
O18 O2- 4 a 0.414(3) 0.776(3) 0.721(2) 4.4(7) 1. 0
O19 O2- 4 a 0.570(2) 0.714(2) 0.746(2) 2.0(4) 1. 0
O20 O2- 4 a 0.477(2) 0.976(2) 0.676(1) 0.7(3) 1. 0
O21 O2- 4 a 0.481(2) 0.026(2) 0.836(2) 2.6(5) 1. 0
O22 O2- 4 a 0.620(4) 0.013(3) 0.753(2) 5.4(9) 1. 0
O23 O2- 4 a 0.764(2) 0.083(2) 0.707(2) 1.3(3) 1. 0
O24 O2- 4 a 0.757(3) 0.929(3) 0.785(3) 1.6(1) 1. 0
O25 O2- 4 a 0.701(1) 0.950(1) 0.625(1) 1.4(3) 1. 0
O26 O2- 4 a 0.655(1) 0.022(1) 0.481(1) 0.3(2) 1. 0
O27 O2- 4 a 0.831(1) 0.013(1) 0.534(1) 0.7(3) 1. 0
O28 O2- 4 a 0.737(1) 0.874(1) 0.477(1) 1.1(3) 1. 0
O29 O2- 4 a 0.866(1) 0.788(1) 0.555(1) 0.7(2) 1. 0
O30 O2- 4 a 0.776(1) 0.720(1) 0.422(1) 0.4(2) 1. 0
O31 O2- 4 a 0.709(1) 0.743(1) 0.587(1) 0.7(3) 1. 0
O32 O2- 4 a 0.961(1) 0.662(1) 0.477(2) 0.9(3) 1. 0
O33 O2- 4 a 0.020(2) 0.838(2) 0.493(2) 2.3(5) 1. 0
O34 O2- 4 a 0.006(1) 0.722(1) 0.627(1) 0.8(3) 1. 0
O35 O2- 4 a 0.925(1) 0.776(1) 0.770(1) 0.5(3) 1. 0
O36 O2- 4 a 0.088(1) 0.726(1) 0.776(1) 0.7(2) 1. 0
#End of TTdata_85095-ICSD