
#(C) 2019 by FIZ Karlsruhe - Leibniz Institute for Information Infrastructure.  All rights reserved.
data_85092-ICSD
_database_code_ICSD 85092
_audit_creation_date 1999-06-02
_audit_update_record 2009-02-01
_chemical_name_systematic
'Potassium sodium oxotitanium phosphate(V) (0.85/0.16/1/1)'
_chemical_formula_structural '(K0.845 Na0.155) (Ti O) (P O4)'
_chemical_formula_sum 'K0.845 Na0.155 O5 P1 Ti1'
_chemical_name_structure_type KFePO4F
_exptl_crystal_density_diffrn 3.
_publ_section_title

;
Preparation, structure and electrophysical characteristics of single crystals
of K0.84 Na0.16 Ti O P O4
;
loop_
_citation_id
_citation_journal_full
_citation_year
_citation_journal_volume
_citation_page_first
_citation_page_last
_citation_journal_id_ASTM
primary Kristallografiya 1997 42 255 263 KRISAJ
loop_
_publ_author_name
'Li, D.-Y.'
'Sorokina, N.I.'
'Voronkova, V.I.'
'Yanovskii, V.K.'
'Verin, I.A.'
'Simonov, V.I.'
_cell_length_a 12.7991(14)
_cell_length_b 6.3822(4)
_cell_length_c 10.5858(6)
_cell_angle_alpha 90.
_cell_angle_beta 90.
_cell_angle_gamma 90.
_cell_volume 864.72
_cell_formula_units_Z 8
_symmetry_space_group_name_H-M 'P n a 21'
_symmetry_Int_Tables_number 33
_refine_ls_R_factor_all 0.015
loop_
_symmetry_equiv_pos_site_id
_symmetry_equiv_pos_as_xyz
1 'x+1/2, -y+1/2, z'
2 '-x+1/2, y+1/2, z+1/2'
3 '-x, -y, z+1/2'
4 'x, y, z'
loop_
_atom_type_symbol
_atom_type_oxidation_number
Ti4+ 4
P5+ 5
K1+ 1
Na1+ 1
K1+ 1
Na1+ 1
O2- -2
loop_
_atom_site_label
_atom_site_type_symbol
_atom_site_symmetry_multiplicity
_atom_site_Wyckoff_symbol
_atom_site_fract_x
_atom_site_fract_y
_atom_site_fract_z
_atom_site_B_iso_or_equiv
_atom_site_occupancy
_atom_site_attached_hydrogens
Ti1 Ti4+ 4 a 0.37302(2) 0.49871(5) 0 0.407(1) 1. 0
Ti2 Ti4+ 4 a 0.24656(3) 0.26841(4) 0.25161(4) 0.404(1) 1. 0
P1 P5+ 4 a 0.49770(4) 0.33656(7) 0.26112(6) 0.441(1) 1. 0
P2 P5+ 4 a 0.18149(4) 0.50103(8) 0.51342(5) 0.444(1) 1. 0
K1 K1+ 4 a 0.10402(3) 0.69560(8) 0.06530(4) 1.539(1) 0.94(1) 0
Na1 Na1+ 4 a 0.103(1) 0.694(2) 0.101(2) 0.1(1) 0.06(1) 0
K2 K1+ 4 a 0.37870(4) 0.78029(5) 0.31204(5) 1.387(1) 0.75(2) 0
Na2 Na1+ 4 a 0.3580(3) 0.7746(5) 0.2964(3) 2.402(1) 0.25(2) 0
O1 O2- 4 a 0.4854(1) 0.4873(3) 0.1514(2) 0.77(2) 1. 0
O2 O2- 4 a 0.5094(1) 0.4664(3) 0.3844(1) 0.76(2) 1. 0
O3 O2- 4 a 0.4004(1) 0.1976(2) 0.2804(1) 0.67(2) 1. 0
O4 O2- 4 a 0.5937(1) 0.1940(2) 0.2422(2) 0.70(2) 1. 0
O5 O2- 4 a 0.1130(1) 0.3092(2) 0.5425(1) 0.67(2) 1. 0
O6 O2- 4 a 0.1114(1) 0.6904(2) 0.4891(2) 0.76(2) 1. 0
O7 O2- 4 a 0.2533(1) 0.5385(3) 0.6288(1) 0.75(2) 1. 0
O8 O2- 4 a 0.2537(1) 0.4615(5) 0.3998(1) 0.78(2) 1. 0
O9 O2- 4 a 0.2236(1) 0.0388(3) 0.3904(1) 0.73(2) 1. 0
O10 O2- 4 a 0.2249(1) -.0341(3) 0.6444(1) 0.63(2) 1. 0
#End of TTdata_85092-ICSD