
#(C) 2019 by FIZ Karlsruhe - Leibniz Institute for Information Infrastructure.  All rights reserved.
data_85317-ICSD
_database_code_ICSD 85317
_audit_creation_date 1999-06-02
_audit_update_record 2012-02-01
_chemical_name_systematic 'Sodium niccolate(III)'
_chemical_formula_structural 'Na (Ni O2)'
_chemical_formula_sum 'Na1 Ni1 O2'
_chemical_name_structure_type NaNiO2(mS8)
_exptl_crystal_density_diffrn 4.77
_publ_section_title

;
The structure of monoclinic Na Ni O2 as determined by powder X-ray and neutron
scattering
;
loop_
_citation_id
_citation_journal_full
_citation_year
_citation_journal_volume
_citation_page_first
_citation_page_last
_citation_journal_id_ASTM
primary 'Powder Diffraction' 1997 12 239 241 PODIE2
loop_
_publ_author_name
'Dick, S.'
'Mueller, M.'
'Preissinger, F.'
'Zeiske, T.'
_cell_length_a 5.3192(2)
_cell_length_b 2.8451(1)
_cell_length_c 5.5826(4)
_cell_angle_alpha 90.
_cell_angle_beta 110.449(2)
_cell_angle_gamma 90.
_cell_volume 79.16
_cell_formula_units_Z 2
_symmetry_space_group_name_H-M 'C 1 2/m 1'
_symmetry_Int_Tables_number 12
_refine_ls_R_factor_all 0.059
loop_
_symmetry_equiv_pos_site_id
_symmetry_equiv_pos_as_xyz
1 '-x, y, -z'
2 '-x, -y, -z'
3 'x, -y, z'
4 'x, y, z'
5 '-x+1/2, y+1/2, -z'
6 '-x+1/2, -y+1/2, -z'
7 'x+1/2, -y+1/2, z'
8 'x+1/2, y+1/2, z'
loop_
_atom_type_symbol
_atom_type_oxidation_number
Ni3+ 3
Na1+ 1
O2- -2
loop_
_atom_site_label
_atom_site_type_symbol
_atom_site_symmetry_multiplicity
_atom_site_Wyckoff_symbol
_atom_site_fract_x
_atom_site_fract_y
_atom_site_fract_z
_atom_site_B_iso_or_equiv
_atom_site_occupancy
_atom_site_attached_hydrogens
Ni1 Ni3+ 2 a 0 0 0 0.0077(9) 1. 0
Na1 Na1+ 2 d 0 0.5 0.5 0.013(3) 1. 0
O1 O2- 4 i 0.2838(8) 0 0.8059(6) 0.005(1) 1. 0
#End of TTdata_85317-ICSD