
#(C) 2019 by FIZ Karlsruhe - Leibniz Institute for Information Infrastructure.  All rights reserved.
data_85497-ICSD
_database_code_ICSD 85497
_audit_creation_date 1999-06-02
_chemical_name_systematic 'Sodium yttrium germanate'
_chemical_formula_structural 'Na Y (Ge O4)'
_chemical_formula_sum 'Ge1 Na1 O4 Y1'
_chemical_name_structure_type Olivine-Mg2SiO4
_exptl_crystal_density_diffrn 4.25
_publ_section_title

;
Refinement of Na Gd Ge O4, Na Y Ge O4, and Na Lu Ge O4 single-crystal
structures
;
loop_
_citation_id
_citation_journal_full
_citation_year
_citation_journal_volume
_citation_page_first
_citation_page_last
_citation_journal_id_ASTM
primary 'Physica Status Solidi A: Applied Research' 1986 93 495 502 PSSABA
loop_
_publ_author_name
'Dudka, A.P.'
'Kaminskii, A.A.'
'Simonov, V.I.'
_cell_length_a 11.423(2)
_cell_length_b 6.451(1)
_cell_length_c 5.267(1)
_cell_angle_alpha 90.
_cell_angle_beta 90.
_cell_angle_gamma 90.
_cell_volume 388.12
_cell_formula_units_Z 4
_symmetry_space_group_name_H-M 'P n m a'
_symmetry_Int_Tables_number 62
_refine_ls_R_factor_all 0.024
loop_
_symmetry_equiv_pos_site_id
_symmetry_equiv_pos_as_xyz
1 'x+1/2, y, -z+1/2'
2 'x, -y+1/2, z'
3 '-x+1/2, y+1/2, z+1/2'
4 '-x, -y, -z'
5 '-x+1/2, -y, z+1/2'
6 '-x, y+1/2, -z'
7 'x+1/2, -y+1/2, -z+1/2'
8 'x, y, z'
loop_
_atom_type_symbol
_atom_type_oxidation_number
Na1+ 1
Y3+ 3
Ge4+ 4
O2- -2
loop_
_atom_site_label
_atom_site_type_symbol
_atom_site_symmetry_multiplicity
_atom_site_Wyckoff_symbol
_atom_site_fract_x
_atom_site_fract_y
_atom_site_fract_z
_atom_site_B_iso_or_equiv
_atom_site_occupancy
_atom_site_attached_hydrogens
Na1 Na1+ 4 a 0 0 0 . 1. 0
Y1 Y3+ 4 c 0.27790(2) 0.25 0.99743(4) . 1. 0
Ge1 Ge4+ 4 c 0.09690(2) 0.25 0.55621(7) . 1. 0
O1 O2- 4 c 0.6109(2) 0.25 0.2696(4) . 1. 0
O2 O2- 4 c 0.9557(2) 0.25 0.6740(4) . 1. 0
O3 O2- 8 d 0.1730(1) 0.0430(3) 0.7087(3) . 1. 0
loop_
_atom_site_aniso_label
_atom_site_aniso_type_symbol
_atom_site_aniso_B_11
_atom_site_aniso_B_22
_atom_site_aniso_B_33
_atom_site_aniso_B_12
_atom_site_aniso_B_13
_atom_site_aniso_B_23
Na1 Na1+ 0.3172 0.8173 1.151 -.08524 -.04818 0.09892
Y1 Y3+ 0.1488 0.4861 0.8822 0 -.00803 0
Ge1 Ge4+ 0.158 0.5352 0.8246 0 -.00311 0
O1 O2- 0.2121 0.6509 1.011 0 -.06189 0
O2 O2- 0.134 0.7994 1.451 0 0.06203 0
O3 O2- 0.2389 0.6139 1.044 0.04554 -.05512 -.00435
#End of TTdata_85497-ICSD