
#(C) 2019 by FIZ Karlsruhe - Leibniz Institute for Information Infrastructure.  All rights reserved.
data_85551-ICSD
_database_code_ICSD 85551
_audit_creation_date 1999-06-02
_audit_update_record 2005-10-01
_chemical_name_systematic 'Octasodium silicon cyclo-hexasilicate - HP'
_chemical_formula_structural 'Na8 Si (Si6 O18)'
_chemical_formula_sum 'Na8 O18 Si7'
_exptl_crystal_density_diffrn 3.01
_publ_section_title

;
Sodium heptasilicate: a high-pressure silicate with six-membered rings of
tetrahedra interconnected by Si O6 octahedra: (Na8 Si (Si6 O18))
;
loop_
_citation_id
_citation_journal_full
_citation_year
_citation_journal_volume
_citation_page_first
_citation_page_last
_citation_journal_id_ASTM
primary 'American Mineralogist' 1998 83 618 624 AMMIAY
loop_
_publ_author_name
'Fleet, M.E.'
_cell_length_a 7.180(1)
_cell_length_b 7.180(1)
_cell_length_c 7.180(1)
_cell_angle_alpha 87.26(1)
_cell_angle_beta 87.26(1)
_cell_angle_gamma 87.26(1)
_cell_volume 368.92
_cell_formula_units_Z 1
_symmetry_space_group_name_H-M 'R -3 R'
_symmetry_Int_Tables_number 148
_refine_ls_R_factor_all 0.058
loop_
_symmetry_equiv_pos_site_id
_symmetry_equiv_pos_as_xyz
1 '-z, -x, -y'
2 '-y, -z, -x'
3 '-x, -y, -z'
4 'z, x, y'
5 'y, z, x'
6 'x, y, z'
loop_
_atom_type_symbol
_atom_type_oxidation_number
Na1+ 1
Si4+ 4
O2- -2
loop_
_atom_site_label
_atom_site_type_symbol
_atom_site_symmetry_multiplicity
_atom_site_Wyckoff_symbol
_atom_site_fract_x
_atom_site_fract_y
_atom_site_fract_z
_atom_site_B_iso_or_equiv
_atom_site_occupancy
_atom_site_attached_hydrogens
Na1 Na1+ 2 c 0.2363(5) 0.2363(5) 0.2363(5) 1.27(3) 1. 0
Na2 Na1+ 3 e 0 0.5 0.5 . 1. 0
Na3 Na1+ 3 d 0.5 0 0 . 1. 0
Si1 Si4+ 1 a 0 0 0 0.90(3) 1. 0
Si2 Si4+ 6 f 0.2719(1) 0.7396(1) 0.2715(1) . 1. 0
O1 O2- 6 f 0.2129(2) 0.5451(3) 0.2128(3) . 1. 0
O2 O2- 6 f 0.1690(2) 0.9181(2) 0.1692(2) . 1. 0
O3 O2- 6 f 0.2346(2) 0.7653(2) 0.4995(2) . 1. 0
loop_
_atom_site_aniso_label
_atom_site_aniso_type_symbol
_atom_site_aniso_U_11
_atom_site_aniso_U_22
_atom_site_aniso_U_33
_atom_site_aniso_U_12
_atom_site_aniso_U_13
_atom_site_aniso_U_23
Na2 Na1+ 1.80(7) 1.39(7) 1.58(7) -.20(5) -.25(5) 0.17(5)
Na3 Na1+ 1.11(7) 1.16(7) 2.21(7) 0.06(5) -.15(5) -.10(5)
Si2 Si4+ 0.95(3) 1.04(3) 1.02(3) -.05(2) -.02(2) -.04(2)
O1 O2- 1.82(9) 1.36(8) 1.67(9) -.16(6) -.54(7) -.11(6)
O2 O2- 1.36(8) 1.33(8) 1.07(8) 0.01(6) -.22(6) 0.05(6)
O3 O2- 1.72(9) 1.63(9) 1.08(8) 0.20(7) 0.06(6) -.04(6)
#End of TTdata_85551-ICSD