
#(C) 2019 by FIZ Karlsruhe - Leibniz Institute for Information Infrastructure.  All rights reserved.
data_85553-ICSD
_database_code_ICSD 85553
_audit_creation_date 1999-06-02
_chemical_name_systematic 'Sodium alumosilicate'
_chemical_formula_structural 'Na (Al Si O4)'
_chemical_formula_sum 'Al1 Na1 O4 Si1'
_chemical_name_mineral Nepheline
_exptl_crystal_density_diffrn 2.64
_publ_section_title

;
Crystal structure of hexagonal trinepheline - a new synthetic Na AlSi O4
modification
;
loop_
_citation_id
_citation_journal_full
_citation_year
_citation_journal_volume
_citation_page_first
_citation_page_last
_citation_journal_id_ASTM
primary 'American Mineralogist' 1998 83 631 637 AMMIAY
loop_
_publ_author_name
'Kahlenberg, V.'
'Boehm, H.'
_cell_length_a 9.995(2)
_cell_length_b 9.995(2)
_cell_length_c 24.797(4)
_cell_angle_alpha 90.
_cell_angle_beta 90.
_cell_angle_gamma 120.
_cell_volume 2145.34
_cell_formula_units_Z 24
_symmetry_space_group_name_H-M 'P 61'
_symmetry_Int_Tables_number 169
_refine_ls_R_factor_all 0.021
loop_
_symmetry_equiv_pos_site_id
_symmetry_equiv_pos_as_xyz
1 'x-y, x, z+1/6'
2 'y, -x+y, z+5/6'
3 '-x, -y, z+1/2'
4 '-x+y, -x, z+2/3'
5 '-y, x-y, z+1/3'
6 'x, y, z'
loop_
_atom_type_symbol
_atom_type_oxidation_number
Si4+ 4
Al3+ 3
Na1+ 1
O2- -2
loop_
_atom_site_label
_atom_site_type_symbol
_atom_site_symmetry_multiplicity
_atom_site_Wyckoff_symbol
_atom_site_fract_x
_atom_site_fract_y
_atom_site_fract_z
_atom_site_B_iso_or_equiv
_atom_site_occupancy
_atom_site_attached_hydrogens
Si1 Si4+ 6 a 0.2024(1) 0.3036(1) 0.1279(1) . 1. 0
Si2 Si4+ 6 a 0.3637(1) 0.7023(1) -.0374(1) . 1. 0
Si3 Si4+ 6 a 0.9122(1) 0.2364(1) -.0350(1) . 1. 0
Si4 Si4+ 6 a 0.1334(1) 0.7782(1) 0.1358(1) . 1. 0
Al1 Al3+ 6 a 0.3266(1) 0.0980(1) 0.0864(1) . 1. 0
Al2 Al3+ 6 a 0.8807(1) 0.2456(1) 0.0917(1) . 1. 0
Al3 Al3+ 6 a 0.8111(1) 0.7080(1) 0.0954(1) . 1. 0
Al4 Al3+ 6 a 0.3308(1) 0.6452(1) 0.0906(1) . 1. 0
Na1 Na1+ 6 a 0.0205(2) 0.5648(2) 0.0356(1) . 1. 0
Na2 Na1+ 6 a 0.4735(2) 0.4421(2) 0.0303(1) . 1. 0
Na3 Na1+ 6 a 0.5183(2) 0.5574(2) 0.1864(1) . 1. 0
Na4 Na1+ 6 a 0.0043(3) 0.0149(2) 0.0280(1) . 1. 0
O1 O2- 6 a 0.3137(2) 0.4629(2) 0.0967(1) . 1. 0
O2 O2- 6 a 0.0584(2) 0.3363(3) -.0741(1) . 1. 0
O3 O2- 6 a 0.0281(2) 0.2729(2) 0.1362(1) . 1. 0
O4 O2- 6 a 0.2765(2) 0.3131(3) 0.1869(1) . 1. 0
O5 O2- 6 a 0.0581(3) 0.7541(2) 0.1950(1) . 1. 0
O6 O2- 6 a 0.1918(2) 0.1587(2) 0.0955(1) . 1. 0
O7 O2- 6 a 0.6810(3) 0.5348(2) 0.1264(1) . 1. 0
O8 O2- 6 a 0.8617(3) 0.0543(2) -.0394(1) . 1. 0
O9 O2- 6 a 0.9600(3) 0.2904(2) 0.0271(1) . 1. 0
O10 O2- 6 a 0.7696(3) 0.2587(3) -.0507(1) . 1. 0
O11 O2- 6 a 0.1799(2) 0.6454(2) 0.1262(1) . 1. 0
O12 O2- 6 a 0.5167(2) 0.2485(2) 0.0918(1) . 1. 0
O13 O2- 6 a 0.2881(2) -.0533(2) 0.1303(1) . 1. 0
O14 O2- 6 a 0.3024(3) 0.6774(3) 0.0239(1) . 1. 0
O15 O2- 6 a 0.0045(2) 0.7562(2) 0.0920(1) . 1. 0
O16 O2- 6 a 0.8212(2) 0.3766(2) 0.1086(1) . 1. 0
loop_
_atom_site_aniso_label
_atom_site_aniso_type_symbol
_atom_site_aniso_U_11
_atom_site_aniso_U_22
_atom_site_aniso_U_33
_atom_site_aniso_U_12
_atom_site_aniso_U_13
_atom_site_aniso_U_23
Si1 Si4+ 0.006(1) 0.006(1) 0.007(1) 0.003(1) 0.001(1) 0.000(1)
Si2 Si4+ 0.005(1) 0.007(1) 0.012(1) 0.003(1) 0.001(1) 0.002(1)
Si3 Si4+ 0.004(1) 0.006(1) 0.008(1) 0.002(1) -.001(1) 0.000(1)
Si4 Si4+ 0.007(1) 0.006(1) 0.007(1) 0.003(1) 0.000(1) -.001(1)
Al1 Al3+ 0.007(1) 0.006(1) 0.008(1) 0.003(1) -.001(1) 0.000(1)
Al2 Al3+ 0.006(1) 0.007(1) 0.008(1) 0.003(1) 0.000(1) -.001(1)
Al3 Al3+ 0.006(1) 0.005(1) 0.009(1) 0.003(1) -.001(1) -.001(1)
Al4 Al3+ 0.005(1) 0.005(1) 0.009(1) 0.002(1) 0.001(1) 0.002(1)
Na1 Na1+ 0.018(1) 0.016(1) 0.018(1) 0.011(1) -.004(1) 0.000(1)
Na2 Na1+ 0.016(1) 0.020(1) 0.022(1) 0.007(1) 0.007(1) -.002(1)
Na3 Na1+ 0.019(1) 0.022(1) 0.028(1) 0.001(1) 0.006(1) -.008(1)
Na4 Na1+ 0.036(1) 0.045(1) 0.037(1) 0.017(1) -.019(1) 0.000(1)
O1 O2- 0.011(1) 0.006(1) 0.020(1) 0.003(1) 0.005(1) 0.004(1)
O2 O2- 0.007(1) 0.016(1) 0.013(1) 0.006(1) 0.002(1) 0.004(1)
O3 O2- 0.007(1) 0.014(1) 0.012(1) 0.006(1) -.001(1) -.001(1)
O4 O2- 0.010(1) 0.022(1) 0.008(1) 0.010(1) -.001(1) -.002(1)
O5 O2- 0.012(1) 0.016(1) 0.011(1) 0.000(1) 0.002(1) -.003(1)
O6 O2- 0.010(1) 0.009(1) 0.016(1) 0.006(1) -.002(1) -.005(1)
O7 O2- 0.011(1) 0.007(1) 0.029(1) 0.004(1) 0.007(1) 0.006(1)
O8 O2- 0.011(1) 0.006(1) 0.020(1) 0.003(1) -.007(1) -.002(1)
O9 O2- 0.015(1) 0.014(1) 0.008(1) 0.001(1) 0.001(1) 0.000(1)
O10 O2- 0.016(1) 0.022(1) 0.036(2) 0.015(1) -.005(1) -.001(1)
O11 O2- 0.009(1) 0.009(1) 0.017(1) 0.005(1) 0.003(1) 0.002(1)
O12 O2- 0.007(1) 0.014(1) 0.015(1) 0.000(1) -.002(1) 0.002(1)
O13 O2- 0.009(1) 0.006(1) 0.011(1) 0.001(1) -.003(1) 0.002(1)
O14 O2- 0.019(1) 0.026(1) 0.010(1) 0.013(1) 0.003(1) 0.006(1)
O15 O2- 0.006(1) 0.012(1) 0.011(1) 0.005(1) -.001(1) -.001(1)
O16 O2- 0.007(1) 0.007(1) 0.030(1) 0.004(1) 0.004(1) 0.000(1)
#End of TTdata_85553-ICSD