
#(C) 2017 by FIZ Karlsruhe - Leibniz Institute for Information Infrastructure.  All rights reserved.
data_86231-ICSD
_database_code_ICSD 86231
_audit_creation_date 1999-11-30
_audit_update_record 2005-10-01
_chemical_name_systematic 'Lithium iodide dideuteriohydrate - beta'
_chemical_formula_structural 'Li I (D2 O)'
_chemical_formula_sum 'D2 I1 Li1 O1'
_exptl_crystal_density_diffrn 3.26
_cell_measurement_temperature 196.
_publ_section_title
'Neutron scattering studies of the ionic conductor Li I . (D2 O)'
loop_
_citation_id
_citation_journal_full
_citation_year
_citation_journal_volume
_citation_page_first
_citation_page_last
_citation_journal_id_ASTM
primary 'Physica Scripta' 1982 25 780 784 PHSTBO
loop_
_publ_author_name
'Hessel Andersen, N.'
'Kjems, J.K.'
'Poulsen, F.W.'
_cell_length_a 6.297(1)
_cell_length_b 5.721(1)
_cell_length_c 4.352(1)
_cell_angle_alpha 90.
_cell_angle_beta 90.
_cell_angle_gamma 90.
_cell_volume 156.78
_cell_formula_units_Z 2
_symmetry_space_group_name_H-M 'P 1'
_symmetry_Int_Tables_number 1
_refine_ls_R_factor_all 0.125
loop_
_symmetry_equiv_pos_site_id
_symmetry_equiv_pos_as_xyz
1 'x, y, z'
loop_
_atom_type_symbol
_atom_type_oxidation_number
I1- -1
Li1+ 1
O2- -2
D1+ 1
I1- -1
Li1+ 1
O2- -2
D1+ 1
loop_
_atom_site_label
_atom_site_type_symbol
_atom_site_symmetry_multiplicity
_atom_site_Wyckoff_symbol
_atom_site_fract_x
_atom_site_fract_y
_atom_site_fract_z
_atom_site_B_iso_or_equiv
_atom_site_occupancy
_atom_site_attached_hydrogens
I1 I1- 1 a 0 0 0 -.5(4) 1. 0
Li1 Li1+ 1 a 0.25 0.75 0.5 16.70(24) 1. 0
O1 O2- 1 a 0 0.489 0.5 1.4(9) 1. 0
D1 D1+ 1 a 0 0.393 0.3333 7.0(5) 1. 0
D2 D1+ 1 a 0 0.393 0.6667 7.0(5) 1. 0
I2 I1- 1 a 0.5 0.5 0 -.5(4) 1. 0
Li2 Li1+ 1 a 0.75 0.75 0.5 16.70(24) 1. 0
O2 O2- 1 a 0.511 0 0.5 1.4(9) 1. 0
D3 D1+ 1 a 0.511 0.096 0.3333 7.0(5) 1. 0
D4 D1+ 1 a 0.511 0.096 0.6667 7.0(5) 1. 0
#End of TTdata_86231-ICSD