
#(C) 2019 by FIZ Karlsruhe - Leibniz Institute for Information Infrastructure.  All rights reserved.
data_86325-ICSD
_database_code_ICSD 86325
_audit_creation_date 1999-11-30
_chemical_name_systematic
'Calcium sodium aluminium silicon oxide (0.78/0.22/1.78/2.22/8)'
_chemical_formula_structural '(Ca0.78 Na0.22) (Al1.78 Si0.22) Si2 O8'
_chemical_formula_sum 'Al1.78 Ca0.78 Na0.22 O8 Si2.22'
_chemical_name_structure_type Feldspar#-(TC,I1-,i28)-Bytownite
_chemical_name_mineral Unnamed_Feldspar
_exptl_crystal_density_diffrn 2.73
_publ_section_title

;
Structural variation associated with compositional variation and
order-disorder behavior in anorthite-rich feldspars
;
loop_
_citation_id
_citation_journal_full
_citation_year
_citation_journal_volume
_citation_page_first
_citation_page_last
_citation_journal_id_ASTM
primary 'American Mineralogist' 1990 75 150 162 AMMIAY
loop_
_publ_author_name
'Angel, R.J.'
'Carpenter, M.A.'
'Finger, L.W.'
_cell_length_a 8.174(2)
_cell_length_b 12.866(3)
_cell_length_c 14.187(3)
_cell_angle_alpha 93.43(2)
_cell_angle_beta 116.04(1)
_cell_angle_gamma 90.69(2)
_cell_volume 1336.92
_cell_formula_units_Z 8
_symmetry_space_group_name_H-M 'I -1'
_symmetry_Int_Tables_number 2
_refine_ls_R_factor_all 0.037
loop_
_symmetry_equiv_pos_site_id
_symmetry_equiv_pos_as_xyz
1 '-x, -y, -z'
2 'x, y, z'
3 '-x+1/2, -y+1/2, -z+1/2'
4 'x+1/2, y+1/2, z+1/2'
loop_
_atom_type_symbol
_atom_type_oxidation_number
Ca2+ 2
Na1+ 1
Ca2+ 2
Na1+ 1
Ca2+ 2
Na1+ 1
Ca2+ 2
Na1+ 1
Si4+ 4
Al3+ 3
Si4+ 4
Al3+ 3
Si4+ 4
Al3+ 3
Si4+ 4
Al3+ 3
Si4+ 4
O2- -2
loop_
_atom_site_label
_atom_site_type_symbol
_atom_site_symmetry_multiplicity
_atom_site_Wyckoff_symbol
_atom_site_fract_x
_atom_site_fract_y
_atom_site_fract_z
_atom_site_B_iso_or_equiv
_atom_site_occupancy
_atom_site_attached_hydrogens
Ca1 Ca2+ 4 i 0.2677(2) 0.9836(2) 0.0862(2) . 0.380(2) 0
Na1 Na1+ 4 i 0.2677(2) 0.9836(2) 0.0862(2) . 0.148(1) 0
Ca2 Ca2+ 4 i 0.2683(3) 0.0297(2) 0.5469(4) . 0.554(2) 0
Na2 Na1+ 4 i 0.2683(3) 0.0297(2) 0.5469(4) . 0.138(1) 0
Ca3 Ca2+ 4 i 0.7753(2) 0.5339(2) 0.5460(2) . 0.340(2) 0
Na3 Na1+ 4 i 0.7753(2) 0.5339(2) 0.5460(2) . 0.132(1) 0
Ca4 Ca2+ 4 i 0.7640(6) 0.498(2) 0.077(1) . 0.246(2) 0
Na4 Na1+ 4 i 0.7640(6) 0.498(2) 0.077(1) . 0.062(1) 0
Si1 Si4+ 4 i 0.0077(1) 0.1596(1) 0.1045(1) . 1. 0
Al1 Al3+ 4 i 0.0034(1) 0.1650(1) 0.6109(1) . 0.89 0
Si2 Si4+ 4 i 0.0034(1) 0.1650(1) 0.6109(1) . 0.11 0
Al2 Al3+ 4 i 0.0001(1) 0.8155(1) 0.1186(1) . 0.89 0
Si3 Si4+ 4 i 0.0001(1) 0.8155(1) 0.1186(1) . 0.11 0
Si4 Si4+ 4 i 0.0052(1) 0.8173(1) 0.6128(1) . 1. 0
Al3 Al3+ 4 i 0.6880(1) 0.1116(1) 0.1579(1) . 0.89 0
Si5 Si4+ 4 i 0.6880(1) 0.1116(1) 0.1579(1) . 0.11 0
Si6 Si4+ 4 i 0.6789(1) 0.1063(1) 0.6587(1) . 1. 0
Si7 Si4+ 4 i 0.6777(1) 0.8815(1) 0.1812(1) . 1. 0
Al4 Al3+ 4 i 0.6834(1) 0.8757(1) 0.6766(1) . 0.89 0
Si8 Si4+ 4 i 0.6834(1) 0.8757(1) 0.6766(1) . 0.11 0
O1 O2- 4 i 0.0092(3) 0.1277(2) -.0083(2) . 1. 0
O2 O2- 4 i 0.9956(3) 0.1269(2) 0.4885(2) . 1. 0
O3 O2- 4 i 0.5788(3) 0.9908(2) 0.1399(2) . 1. 0
O4 O2- 4 i 0.5750(3) 0.9914(2) 0.6377(2) . 1. 0
O5 O2- 4 i 0.8194(3) 0.1019(2) 0.0915(2) . 1. 0
O6 O2- 4 i 0.8031(3) 0.1025(2) 0.5955(2) . 1. 0
O7 O2- 4 i 0.8108(3) 0.8542(2) 0.1282(2) . 1. 0
O8 O2- 4 i 0.8199(3) 0.8544(2) 0.6153(2) . 1. 0
O9 O2- 4 i 0.0129(3) 0.2817(2) 0.1362(2) . 1. 0
O10 O2- 4 i 0.0144(3) 0.2944(2) 0.6468(2) . 1. 0
O11 O2- 4 i 0.0100(3) 0.6816(2) 0.1084(2) . 1. 0
O12 O2- 4 i 0.0100(3) 0.6914(2) 0.6014(2) . 1. 0
O13 O2- 4 i 0.1910(3) 0.1072(2) 0.1885(2) . 1. 0
O14 O2- 4 i 0.2030(3) 0.1045(2) 0.6914(2) . 1. 0
O15 O2- 4 i 0.1967(3) 0.8680(2) 0.2180(2) . 1. 0
O16 O2- 4 i 0.1844(3) 0.8624(2) 0.7129(2) . 1. 0
loop_
_atom_site_aniso_label
_atom_site_aniso_type_symbol
_atom_site_aniso_beta_11
_atom_site_aniso_beta_22
_atom_site_aniso_beta_33
_atom_site_aniso_beta_12
_atom_site_aniso_beta_13
_atom_site_aniso_beta_23
Ca1 Ca2+ 0.0051(3) 0.0069(2) 0.0033(1) -.0017(2) 0.0021(2) -.0027(1)
Na1 Na1+ 0.0051(3) 0.0069(2) 0.0033(1) -.0017(2) 0.0021(2) -.0027(1)
Ca2 Ca2+ 0.0037(2) 0.0025(1) 0.0015(1) 0.0008(1) 0.0005(1) -.0005(1)
Na2 Na1+ 0.0037(2) 0.0025(1) 0.0015(1) 0.0008(1) 0.0005(1) -.0005(1)
Ca3 Ca2+ 0.0042(3) 0.0026(1) 0.0022(1) 0.0010(1) 0.0008(1) -.0005(1)
Na3 Na1+ 0.0042(3) 0.0026(1) 0.0022(1) 0.0010(1) 0.0008(3) -.0005(1)
Ca4 Ca2+ 0.0040(5) 0.0085(8) 0.0029(4) -.0003(4) 0.0012(3) -.0027(6)
Na4 Na1+ 0.0040(5) 0.0085(8) 0.0029(4) -.0003(4) 0.0012(3) -.0027(6)
Si1 Si4+ 0.0036(1) 0.0014(1) 0.0010(1) -.0004(1) 0.0008(1) 0.0000(1)
Al1 Al3+ 0.0036(2) 0.0012(1) 0.0010(1) -.0002(1) 0.0009(1) 0.0001(1)
Si2 Si4+ 0.0036(2) 0.0012(1) 0.0010(1) -.0002(1) 0.0009(1) 0.0001(1)
Al2 Al3+ 0.0038(2) 0.0014(1) 0.0009(1) 0.0006(1) 0.0008(1) 0.0001(1)
Si3 Si4+ 0.0038(2) 0.0014(1) 0.0009(1) 0.0006(1) 0.0008(1) 0.0001(1)
Si4 Si4+ 0.0040(1) 0.0015(1) 0.0010(1) 0.0006(1) 0.0009(1) 0.0000(1)
Al3 Al3+ 0.0029(2) 0.0011(1) 0.0014(1) 0.0000(1) 0.0006(1) 0.0001(1)
Si5 Si4+ 0.0029(2) 0.0011(1) 0.0014(1) 0.0000(1) 0.0006(1) 0.0001(1)
Si6 Si4+ 0.0034(1) 0.0010(1) 0.0016(1) 0.0000(1) 0.0008(1) -.0001(1)
Si7 Si4+ 0.0035(1) 0.0010(1) 0.0015(1) 0.0003(1) 0.0007(1) 0.0002(1)
Al4 Al3+ 0.0034(2) 0.0010(1) 0.0014(1) 0.0002(1) 0.0009(1) 0.0002(1)
Si8 Si4+ 0.0034(2) 0.0010(1) 0.0014(1) 0.0002(1) 0.0009(1) 0.0002(1)
O1 O2- 0.0101(5) 0.0023(1) 0.0015(1) 0.0004(2) 0.0025(2) 0.0001(1)
O2 O2- 0.0105(5) 0.0025(1) 0.0016(1) 0.0009(2) 0.0026(2) 0.0003(1)
O3 O2- 0.0040(4) 0.0014(1) 0.0021(1) 0.0004(2) 0.0011(2) 0.0004(1)
O4 O2- 0.0035(4) 0.0012(1) 0.0020(1) -.0003(2) 0.0007(2) 0.0001(1)
O5 O2- 0.0060(4) 0.0018(1) 0.0031(1) -.0008(2) 0.0027(2) -.0003(1)
O6 O2- 0.0058(4) 0.0019(1) 0.0036(2) -.0007(2) 0.0032(2) -.0004(1)
O7 O2- 0.0076(5) 0.0025(1) 0.0052(2) 0.0004(2) 0.0045(3) -.0006(1)
O8 O2- 0.0066(5) 0.0029(1) 0.0044(2) 0.0009(2) 0.0038(2) 0.0000(1)
O9 O2- 0.0065(4) 0.0018(1) 0.0026(1) -.0004(2) 0.0020(2) -.0001(1)
O10 O2- 0.0054(4) 0.0017(1) 0.0026(1) -.0006(3) 0.0015(2) 0.0000(1)
O11 O2- 0.0054(4) 0.0019(1) 0.0019(1) 0.0009(2) 0.0007(2) 0.0000(1)
O12 O2- 0.0078(4) 0.0018(1) 0.0019(1) 0.0013(2) 0.0010(2) -.0001(1)
O13 O2- 0.0056(4) 0.0022(1) 0.0016(1) 0.0005(2) -.0001(2) 0.0002(1)
O14 O2- 0.0059(4) 0.0020(1) 0.0018(1) 0.0003(2) -.0002(2) 0.0001(1)
O15 O2- 0.0060(4) 0.0024(1) 0.0024(1) 0.0003(2) -.0009(2) -.0007(1)
O16 O2- 0.0073(5) 0.0029(2) 0.0027(2) 0.0006(2) -.0010(2) -.0007(1)
#End of TTdata_86325-ICSD