
#(C) 2019 by FIZ Karlsruhe - Leibniz Institute for Information Infrastructure.  All rights reserved.
data_86324-ICSD
_database_code_ICSD 86324
_audit_creation_date 1999-11-30
_chemical_name_systematic
'Calcium sodium aluminium silicon oxide (0.86/0.14/1.86/2.14/8)'
_chemical_formula_structural '(Ca0.86 Na0.14) (Al1.86 Si0.14) Si2 O8'
_chemical_formula_sum 'Al1.86 Ca0.86 Na0.14 O8 Si2.14'
_chemical_name_structure_type Feldspar#-(TC,I1-,i28)-Bytownite
_chemical_name_mineral Unnamed_Feldspar
_exptl_crystal_density_diffrn 2.74
_publ_section_title

;
Structural variation associated with compositional variation and
order-disorder behavior in anorthite-rich feldspars
;
loop_
_citation_id
_citation_journal_full
_citation_year
_citation_journal_volume
_citation_page_first
_citation_page_last
_citation_journal_id_ASTM
primary 'American Mineralogist' 1990 75 150 162 AMMIAY
loop_
_publ_author_name
'Angel, R.J.'
'Carpenter, M.A.'
'Finger, L.W.'
_cell_length_a 8.1824(5)
_cell_length_b 12.8740(6)
_cell_length_c 14.192(1)
_cell_angle_alpha 93.335(4)
_cell_angle_beta 116.057(4)
_cell_angle_gamma 90.860(4)
_cell_volume 1339.39
_cell_formula_units_Z 8
_symmetry_space_group_name_H-M 'I -1'
_symmetry_Int_Tables_number 2
_refine_ls_R_factor_all 0.051
loop_
_symmetry_equiv_pos_site_id
_symmetry_equiv_pos_as_xyz
1 '-x, -y, -z'
2 'x, y, z'
3 '-x+1/2, -y+1/2, -z+1/2'
4 'x+1/2, y+1/2, z+1/2'
loop_
_atom_type_symbol
_atom_type_oxidation_number
Ca2+ 2
Na1+ 1
Ca2+ 2
Na1+ 1
Ca2+ 2
Na1+ 1
Ca2+ 2
Na1+ 1
Si4+ 4
Al3+ 3
Si4+ 4
Al3+ 3
Si4+ 4
Al3+ 3
Si4+ 4
Al3+ 3
Si4+ 4
O2- -2
loop_
_atom_site_label
_atom_site_type_symbol
_atom_site_symmetry_multiplicity
_atom_site_Wyckoff_symbol
_atom_site_fract_x
_atom_site_fract_y
_atom_site_fract_z
_atom_site_B_iso_or_equiv
_atom_site_occupancy
_atom_site_attached_hydrogens
Ca1 Ca2+ 4 i 0.2673(3) 0.9853(3) 0.0865(2) . 0.453(6) 0
Na1 Na1+ 4 i 0.2673(3) 0.9853(3) 0.0865(2) . 0.121(1) 0
Ca2 Ca2+ 4 i 0.2674(3) 0.0294(3) 0.5468(5) . 0.709(2) 0
Na2 Na1+ 4 i 0.2674(3) 0.0294(3) 0.5468(5) . 0.053(1) 0
Ca3 Ca2+ 4 i 0.7747(4) 0.5346(3) 0.5450(3) . 0.336(6) 0
Na3 Na1+ 4 i 0.7747(4) 0.5346(3) 0.5450(3) . 0.089(1) 0
Ca4 Ca2+ 4 i 0.764(1) 0.498(2) 0.079(2) . 0.221(3) 0
Na4 Na1+ 4 i 0.764(1) 0.498(2) 0.079(2) . 0.017(1) 0
Si1 Si4+ 4 i 0.0074(2) 0.1586(1) 0.1043(1) . 1. 0
Al1 Al3+ 4 i 0.0028(2) 0.1648(1) 0.6112(1) . 0.93 0
Si2 Si4+ 4 i 0.0028(2) 0.1648(1) 0.6112(1) . 0.07 0
Al2 Al3+ 4 i -.0005(2) 0.8156(1) 0.1189(1) . 0.93 0
Si3 Si4+ 4 i -.0005(2) 0.8156(1) 0.1189(1) . 0.07 0
Si4 Si4+ 4 i 0.0054(2) 0.8174(1) 0.6123(1) . 1. 0
Al3 Al3+ 4 i 0.6878(2) 0.1118(1) 0.1573(1) . 0.93 0
Si5 Si4+ 4 i 0.6878(2) 0.1118(1) 0.1573(1) . 0.07 0
Si6 Si4+ 4 i 0.6780(2) 0.1060(1) 0.6589(1) . 1. 0
Si7 Si4+ 4 i 0.6774(2) 0.8817(1) 0.1820(1) . 1. 0
Al4 Al3+ 4 i 0.6832(2) 0.8751(1) 0.6756(1) . 0.93 0
Si8 Si4+ 4 i 0.6832(2) 0.8751(1) 0.6756(1) . 0.07 0
O1 O2- 4 i 0.0113(5) 0.1263(3) -.0075(3) . 1. 0
O2 O2- 4 i -.0077(5) 0.1265(3) 0.4878(3) . 1. 0
O3 O2- 4 i 0.5772(4) 0.9899(2) 0.1402(2) . 1. 0
O4 O2- 4 i 0.5735(4) 0.9918(2) 0.6373(2) . 1. 0
O5 O2- 4 i 0.8193(5) 0.1009(3) 0.0903(3) . 1. 0
O6 O2- 4 i 0.8022(5) 0.1021(2) 0.5960(3) . 1. 0
O7 O2- 4 i 0.8118(5) 0.8551(3) 0.1304(3) . 1. 0
O8 O2- 4 i 0.8202(5) 0.8549(3) 0.6128(3) . 1. 0
O9 O2- 4 i 0.0115(5) 0.2800(2) 0.1352(3) . 1. 0
O10 O2- 4 i 0.0155(5) 0.2950(2) 0.6479(3) . 1. 0
O11 O2- 4 i 0.0091(4) 0.6807(3) 0.1082(3) . 1. 0
O12 O2- 4 i 0.0094(5) 0.6914(3) 0.6005(3) . 1. 0
O13 O2- 4 i 0.1900(5) 0.1068(3) 0.1882(3) . 1. 0
O14 O2- 4 i 0.2046(5) 0.1047(3) 0.6905(3) . 1. 0
O15 O2- 4 i 0.1993(5) 0.8691(3) 0.2178(3) . 1. 0
O16 O2- 4 i 0.1836(5) 0.8615(3) 0.7129(3) . 1. 0
loop_
_atom_site_aniso_label
_atom_site_aniso_type_symbol
_atom_site_aniso_beta_11
_atom_site_aniso_beta_22
_atom_site_aniso_beta_33
_atom_site_aniso_beta_12
_atom_site_aniso_beta_13
_atom_site_aniso_beta_23
Ca1 Ca2+ 0.0045(4) 0.0050(2) 0.0025(2) -.0009(2) 0.0016(2) -.0019(2)
Na1 Na1+ 0.0045(4) 0.0050(2) 0.0025(2) -.0009(2) 0.0016(2) -.0019(2)
Ca2 Ca2+ 0.0036(3) 0.0022(2) 0.0015(2) 0.0009(1) 0.0004(1) -.0004(1)
Na2 Na1+ 0.0036(3) 0.0022(2) 0.0015(2) 0.0009(1) 0.0004(1) -.0004(1)
Ca3 Ca2+ 0.0035(5) 0.0025(2) 0.0019(2) 0.0007(2) 0.0007(2) -.0005(2)
Na3 Na1+ 0.0035(5) 0.0025(2) 0.0019(2) 0.0007(2) 0.0007(3) -.0005(2)
Ca4 Ca2+ 0.006(1) 0.0059(9) 0.0019(6) 0.0003(6) 0.0012(5) -.0008(7)
Na4 Na1+ 0.006(1) 0.0059(6) 0.0019(6) 0.0003(6) 0.0012(5) -.0008(7)
Si1 Si4+ 0.0037(2) 0.0012(1) 0.0009(1) -.0004(1) 0.0009(1) 0.0000(1)
Al1 Al3+ 0.0029(2) 0.0011(1) 0.0009(1) -.0002(1) 0.0007(1) -.0001(1)
Si2 Si4+ 0.0029(2) 0.0011(1) 0.0009(1) -.0002(1) 0.0007(1) -.0001(1)
Al2 Al3+ 0.0039(3) 0.0012(1) 0.0009(1) 0.0004(1) 0.0009(1) 0.0000(1)
Si3 Si4+ 0.0039(3) 0.0012(1) 0.0009(1) 0.0004(1) 0.0009(1) 0.0000(1)
Si4 Si4+ 0.0033(2) 0.0012(1) 0.0007(1) 0.0004(1) 0.0007(1) 0.0000(1)
Al3 Al3+ 0.0036(3) 0.0009(1) 0.0014(1) -.0001(1) 0.0008(1) 0.0000(1)
Si5 Si4+ 0.0036(3) 0.0009(1) 0.0014(1) -.0001(1) 0.0008(1) 0.0000(1)
Si6 Si4+ 0.0031(2) 0.0010(1) 0.0015(1) -.0001(1) 0.0009(1) -.0001(1)
Si7 Si4+ 0.0033(2) 0.0009(1) 0.0015(1) 0.0001(1) 0.0006(1) 0.0002(1)
Al4 Al3+ 0.0047(3) 0.0015(1) 0.0014(1) 0.0001(1) 0.0013(1) 0.0002(1)
Si8 Si4+ 0.0047(3) 0.0015(1) 0.0014(1) 0.0001(1) 0.0013(1) 0.0002(1)
O1 O2- 0.0091(8) 0.0020(2) 0.0012(2) -.0005(3) 0.0020(3) 0.0001(2)
O2 O2- 0.0105(8) 0.0022(2) 0.0013(2) 0.0007(3) 0.0026(3) 0.0004(2)
O3 O2- 0.0042(6) 0.0010(2) 0.0018(2) 0.0005(3) 0.0010(3) 0.0003(2)
O4 O2- 0.0023(6) 0.0012(2) 0.0018(2) -.0002(3) 0.0006(3) 0.0002(2)
O5 O2- 0.0054(7) 0.0020(2) 0.0031(2) -.0010(3) 0.0027(3) -.0006(2)
O6 O2- 0.0051(7) 0.0015(2) 0.0039(3) -.0007(3) 0.0032(4) -.0005(2)
O7 O2- 0.0073(7) 0.0022(2) 0.0060(3) 0.0002(3) 0.0050(4) -.0006(2)
O8 O2- 0.0054(7) 0.0025(2) 0.0045(3) 0.0009(3) 0.0038(4) 0.0000(2)
O9 O2- 0.0059(7) 0.0014(2) 0.0021(2) -.0010(3) 0.0017(3) -.0005(2)
O10 O2- 0.0053(6) 0.0013(2) 0.0023(2) -.0006(3) 0.0015(3) -.0002(2)
O11 O2- 0.0046(6) 0.0020(2) 0.0014(2) 0.0001(3) 0.0005(3) -.0003(2)
O12 O2- 0.0072(7) 0.0014(2) 0.0020(2) 0.0012(3) 0.0014(3) 0.0000(2)
O13 O2- 0.0058(7) 0.0020(2) 0.0014(2) 0.0005(3) -.0001(3) 0.0002(2)
O14 O2- 0.0066(7) 0.0016(2) 0.0011(2) 0.0003(3) -.0005(3) 0.0001(2)
O15 O2- 0.0060(7) 0.0021(2) 0.0025(2) 0.0002(3) -.0012(3) -.0007(2)
O16 O2- 0.0078(8) 0.0022(2) 0.0026(2) 0.0004(3) -.0014(3) -.0008(2)
#End of TTdata_86324-ICSD