
#(C) 2019 by FIZ Karlsruhe - Leibniz Institute for Information Infrastructure.  All rights reserved.
data_86334-ICSD
_database_code_ICSD 86334
_audit_creation_date 1999-11-30
_chemical_name_systematic
'Calcium sodium aluminium silicon oxide (0.98/0.02/1.98/2.02/8)'
_chemical_formula_structural '(Ca0.98 Na0.02) (Al1.98 Si0.02) Si2 O8'
_chemical_formula_sum 'Al1.98 Ca0.98 Na0.02 O8 Si2.02'
_chemical_name_structure_type Feldspar#-(TC,I1-,i28)-Bytownite
_chemical_name_mineral 'Anorthite (annealed)'
_exptl_crystal_density_diffrn 2.75
_publ_section_title

;
Structural variation associated with compositional variation and
order-disorder behavior in anorthite-rich feldspars
;
loop_
_citation_id
_citation_journal_full
_citation_year
_citation_journal_volume
_citation_page_first
_citation_page_last
_citation_journal_id_ASTM
primary 'American Mineralogist' 1990 75 150 162 AMMIAY
loop_
_publ_author_name
'Angel, R.J.'
'Carpenter, M.A.'
'Finger, L.W.'
_cell_length_a 8.186(1)
_cell_length_b 12.870(1)
_cell_length_c 14.175(2)
_cell_angle_alpha 93.26(1)
_cell_angle_beta 115.80(1)
_cell_angle_gamma 91.16(1)
_cell_volume 1340.67
_cell_formula_units_Z 8
_symmetry_space_group_name_H-M 'I -1'
_symmetry_Int_Tables_number 2
_refine_ls_R_factor_all 0.057
loop_
_symmetry_equiv_pos_site_id
_symmetry_equiv_pos_as_xyz
1 '-x, -y, -z'
2 'x, y, z'
3 '-x+1/2, -y+1/2, -z+1/2'
4 'x+1/2, y+1/2, z+1/2'
loop_
_atom_type_symbol
_atom_type_oxidation_number
Ca2+ 2
Na1+ 1
Ca2+ 2
Na1+ 1
Si4+ 4
Al3+ 3
Si4+ 4
Al3+ 3
Si4+ 4
Al3+ 3
Si4+ 4
Al3+ 3
Si4+ 4
O2- -2
loop_
_atom_site_label
_atom_site_type_symbol
_atom_site_symmetry_multiplicity
_atom_site_Wyckoff_symbol
_atom_site_fract_x
_atom_site_fract_y
_atom_site_fract_z
_atom_site_B_iso_or_equiv
_atom_site_occupancy
_atom_site_attached_hydrogens
Ca1 Ca2+ 4 i 0.2670(5) 0.9854(5) 0.0862(4) . 0.415(8) 0
Ca2 Ca2+ 4 i 0.2688(5) 0.0298(5) 0.5472(9) . 0.643(4) 0
Na1 Na1+ 4 i 0.2688(5) 0.0298(5) 0.5472(9) . 0.020(1) 0
Ca3 Ca2+ 4 i 0.7742(3) 0.5353(2) 0.5436(2) . 0.585(8) 0
Ca4 Ca2+ 4 i 0.7643(8) 0.500(3) 0.078(2) . 0.327(4) 0
Na4 Na1+ 4 i 0.7643(8) 0.500(3) 0.078(2) . 0.010(1) 0
Si1 Si4+ 4 i 0.0074(2) 0.1585(1) 0.1046(1) . 1. 0
Al1 Al3+ 4 i 0.0032(3) 0.1636(1) 0.6117(1) . 0.99 0
Si2 Si4+ 4 i 0.0032(3) 0.1636(1) 0.6117(1) . 0.01 0
Al2 Al3+ 4 i 0.0002(3) 0.8147(1) 0.1196(1) . 0.99 0
Si3 Si4+ 4 i 0.0002(3) 0.8147(1) 0.1196(1) . 0.01 0
Si4 Si4+ 4 i 0.0038(2) 0.8172(1) 0.6119(1) . 1. 0
Al3 Al3+ 4 i 0.6875(3) 0.1125(1) 0.1595(1) . 0.99 0
Si5 Si4+ 4 i 0.6875(3) 0.1125(1) 0.1595(1) . 0.01 0
Si6 Si4+ 4 i 0.6771(2) 0.1058(1) 0.6574(1) . 1. 0
Si7 Si4+ 4 i 0.6763(2) 0.8816(1) 0.1809(1) . 1. 0
Al4 Al3+ 4 i 0.6831(2) 0.8753(1) 0.6778(1) . 0.99 0
Si8 Si4+ 4 i 0.6831(2) 0.8753(1) 0.6778(1) . 0.01 0
O1 O2- 4 i 0.0062(6) 0.1253(3) -.0095(3) . 1. 0
O2 O2- 4 i 0.0000(6) 0.1263(3) 0.4902(3) . 1. 0
O3 O2- 4 i 0.5749(6) 0.9897(3) 0.1391(3) . 1. 0
O4 O2- 4 i 0.5723(6) 0.9910(3) 0.6381(3) . 1. 0
O5 O2- 4 i 0.8198(6) 0.0991(3) 0.0917(4) . 1. 0
O6 O2- 4 i 0.7997(6) 0.1009(3) 0.5924(4) . 1. 0
O7 O2- 4 i 0.8075(7) 0.8563(3) 0.1247(4) . 1. 0
O8 O2- 4 i 0.8217(7) 0.8546(3) 0.6172(4) . 1. 0
O9 O2- 4 i 0.0141(6) 0.2788(3) 0.1375(3) . 1. 0
O10 O2- 4 i 0.0161(6) 0.2932(3) 0.6491(4) . 1. 0
O11 O2- 4 i 0.0075(6) 0.6803(3) 0.1074(3) . 1. 0
O12 O2- 4 i 0.0050(6) 0.6905(3) 0.5999(3) . 1. 0
O13 O2- 4 i 0.1912(6) 0.1063(3) 0.1860(4) . 1. 0
O14 O2- 4 i 0.2020(6) 0.1025(3) 0.6922(4) . 1. 0
O15 O2- 4 i 0.1968(7) 0.8675(3) 0.2212(4) . 1. 0
O16 O2- 4 i 0.1850(7) 0.8623(4) 0.7095(4) . 1. 0
loop_
_atom_site_aniso_label
_atom_site_aniso_type_symbol
_atom_site_aniso_beta_11
_atom_site_aniso_beta_22
_atom_site_aniso_beta_33
_atom_site_aniso_beta_12
_atom_site_aniso_beta_13
_atom_site_aniso_beta_23
Ca1 Ca2+ 0.0050(7) 0.0069(4) 0.0028(3) -.0012(4) 0.0020(3) -.0026(3)
Ca2 Ca2+ 0.0032(4) 0.0023(2) 0.0018(3) 0.0007(2) 0.0008(3) -.0004(2)
Na1 Na1+ 0.0032(4) 0.0023(2) 0.0018(3) 0.0007(2) 0.0008(2) -.0004(2)
Ca3 Ca2+ 0.0033(4) 0.0018(2) 0.0010(2) 0.0006(2) 0.0006(2) -.0003(1)
Ca4 Ca2+ 0.0012(8) 0.006(1) 0.0019(7) -.0005(5) 0.0005(5) -.0019(8)
Na4 Na1+ 0.0012(8) 0.006(1) 0.0019(7) -.0005(5) 0.0005(5) -.0019(8)
Si1 Si4+ 0.0027(3) 0.0014(1) 0.0010(1) -.0004(1) 0.0007(1) -.0001(1)
Al1 Al3+ 0.0037(3) 0.0011(1) 0.0010(1) -.0003(1) 0.0011(2) 0.0001(1)
Si2 Si4+ 0.0037(3) 0.0011(1) 0.0010(1) -.0003(1) 0.0011(2) 0.0001(1)
Al2 Al3+ 0.0037(4) 0.0012(1) 0.0010(1) 0.0002(1) 0.0009(2) 0.0001(1)
Si3 Si4+ 0.0037(4) 0.0012(1) 0.0010(1) 0.0002(1) 0.0009(2) 0.0001(1)
Si4 Si4+ 0.0032(3) 0.0011(1) 0.0010(1) 0.0006(1) 0.0007(1) 0.0002(1)
Al3 Al3+ 0.0024(3) 0.0009(1) 0.0017(1) 0.0000(1) 0.0008(2) 0.0001(1)
Si5 Si4+ 0.0024(3) 0.0009(1) 0.0017(1) 0.0000(1) 0.0008(2) 0.0001(1)
Si6 Si4+ 0.0031(3) 0.0009(1) 0.0019(1) -.0001(1) 0.0009(1) -.0001(1)
Si7 Si4+ 0.0025(3) 0.0010(1) 0.0018(1) 0.0003(1) 0.0008(2) 0.0003(1)
Al4 Al3+ 0.0030(3) 0.0009(1) 0.0012(1) 0.0001(1) 0.0008(2) 0.0003(1)
Si8 Si4+ 0.0030(3) 0.0009(1) 0.0012(1) 0.0001(1) 0.0008(2) 0.0003(1)
O1 O2- 0.010(1) 0.0027(3) 0.0015(3) 0.0006(4) 0.0028(5) 0.0002(2)
O2 O2- 0.011(1) 0.0011(2) 0.0017(3) 0.0003(4) 0.0027(5) 0.0004(2)
O3 O2- 0.0032(8) 0.0010(2) 0.0018(3) 0.0000(3) 0.0009(4) 0.0002(2)
O4 O2- 0.0035(8) 0.0013(2) 0.0021(3) 0.0002(3) 0.0009(4) 0.0002(2)
O5 O2- 0.0062(9) 0.0018(3) 0.0039(3) -.0011(4) 0.0035(5) -.0005(2)
O6 O2- 0.0058(9) 0.0012(2) 0.0039(3) -.0009(4) 0.0033(5) -.0006(2)
O7 O2- 0.0075(9) 0.0020(3) 0.0062(4) 0.0004(4) 0.0050(6) -.0002(3)
O8 O2- 0.007(1) 0.0025(3) 0.0051(4) 0.0004(4) 0.0041(5) -.0003(3)
O9 O2- 0.0063(9) 0.0014(2) 0.0023(3) -.0006(4) 0.0019(4) -.0002(2)
O10 O2- 0.0051(8) 0.0012(2) 0.0027(3) -.0004(3) 0.0019(4) -.0004(2)
O11 O2- 0.0048(8) 0.0016(2) 0.0017(3) 0.0011(4) 0.0012(4) 0.0001(2)
O12 O2- 0.0051(9) 0.0015(2) 0.0017(3) 0.0003(4) 0.0006(4) 0.0000(2)
O13 O2- 0.0057(9) 0.0019(3) 0.0021(3) 0.0006(4) 0.0005(4) 0.0001(2)
O14 O2- 0.0046(9) 0.0019(3) 0.0021(3) 0.0003(4) -.0013(4) 0.0002(2)
O15 O2- 0.0052(9) 0.0023(3) 0.0032(3) 0.0001(4) -.0016(4) -.0008(2)
O16 O2- 0.006(1) 0.0027(3) 0.0027(3) 0.0010(4) -.0021(4) -.0009(2)
#End of TTdata_86334-ICSD