
#(C) 2019 by FIZ Karlsruhe - Leibniz Institute for Information Infrastructure.  All rights reserved.
data_86335-ICSD
_database_code_ICSD 86335
_audit_creation_date 1999-11-30
_chemical_name_systematic
'Calcium sodium aluminium silicon oxide (0.98/0.02/1.98/2.02/8)'
_chemical_formula_structural '(Ca0.98 Na0.02) (Al1.98 Si0.02) Si2 O8'
_chemical_formula_sum 'Al1.98 Ca0.98 Na0.02 O8 Si2.02'
_chemical_name_structure_type Feldspar#-(TC,I1-,i28)-Bytownite
_chemical_name_mineral 'Anorthite (annealed)'
_exptl_crystal_density_diffrn 2.76
_publ_section_title

;
Structural variation associated with compositional variation and
order-disorder behavior in anorthite-rich feldspars
;
loop_
_citation_id
_citation_journal_full
_citation_year
_citation_journal_volume
_citation_page_first
_citation_page_last
_citation_journal_id_ASTM
primary 'American Mineralogist' 1990 75 150 162 AMMIAY
loop_
_publ_author_name
'Angel, R.J.'
'Carpenter, M.A.'
'Finger, L.W.'
_cell_length_a 8.174(4)
_cell_length_b 12.860(3)
_cell_length_c 14.166(4)
_cell_angle_alpha 93.21(2)
_cell_angle_beta 115.80(2)
_cell_angle_gamma 91.17(4)
_cell_volume 1336.9
_cell_formula_units_Z 8
_symmetry_space_group_name_H-M 'I -1'
_symmetry_Int_Tables_number 2
_refine_ls_R_factor_all 0.054
loop_
_symmetry_equiv_pos_site_id
_symmetry_equiv_pos_as_xyz
1 '-x, -y, -z'
2 'x, y, z'
3 '-x+1/2, -y+1/2, -z+1/2'
4 'x+1/2, y+1/2, z+1/2'
loop_
_atom_type_symbol
_atom_type_oxidation_number
Ca2+ 2
Na1+ 1
Ca2+ 2
Na1+ 1
Ca2+ 2
Na1+ 1
Ca2+ 2
Na1+ 1
Si4+ 4
Al3+ 3
Si4+ 4
Al3+ 3
Si4+ 4
Al3+ 3
Si4+ 4
Al3+ 3
Si4+ 4
O2- -2
loop_
_atom_site_label
_atom_site_type_symbol
_atom_site_symmetry_multiplicity
_atom_site_Wyckoff_symbol
_atom_site_fract_x
_atom_site_fract_y
_atom_site_fract_z
_atom_site_B_iso_or_equiv
_atom_site_occupancy
_atom_site_attached_hydrogens
Ca1 Ca2+ 4 i 0.2662(4) 0.9862(4) 0.0854(3) . 0.416(7) 0
Na1 Na1+ 4 i 0.2662(4) 0.9862(4) 0.0854(3) . 0.004(1) 0
Ca2 Ca2+ 4 i 0.2686(4) 0.0294(5) 0.5473(7) . 0.656(4) 0
Na2 Na1+ 4 i 0.2686(4) 0.0294(5) 0.5473(7) . 0.027(1) 0
Ca3 Ca2+ 4 i 0.7744(2) 0.5353(2) 0.5434(2) . 0.574(7) 0
Na3 Na1+ 4 i 0.7744(2) 0.5353(2) 0.5434(2) . 0.006(1) 0
Ca4 Ca2+ 4 i 0.7629(7) 0.500(2) 0.078(2) . 0.304(4) 0
Na4 Na1+ 4 i 0.7629(7) 0.500(2) 0.078(2) . 0.013(1) 0
Si1 Si4+ 4 i 0.0073(2) 0.1581(1) 0.1044(1) . 1. 0
Al1 Al3+ 4 i 0.0024(2) 0.1636(1) 0.6116(1) . 0.99 0
Si2 Si4+ 4 i 0.0024(2) 0.1636(1) 0.6116(1) . 0.01 0
Al2 Al3+ 4 i 0.0003(2) 0.8147(1) 0.1196(1) . 0.99 0
Si3 Si4+ 4 i 0.0003(2) 0.8147(1) 0.1196(1) . 0.01 0
Si4 Si4+ 4 i 0.0039(2) 0.8173(1) 0.6118(1) . 1. 0
Al3 Al3+ 4 i 0.6878(2) 0.1125(1) 0.1596(1) . 0.99 0
Si5 Si4+ 4 i 0.6878(2) 0.1125(1) 0.1596(1) . 0.01 0
Si6 Si4+ 4 i 0.6766(2) 0.1058(1) 0.6572(1) . 1. 0
Si7 Si4+ 4 i 0.6760(2) 0.8813(1) 0.1808(1) . 1. 0
Al4 Al3+ 4 i 0.6829(2) 0.8752(1) 0.6776(1) . 0.99 0
Si8 Si4+ 4 i 0.6829(2) 0.8752(1) 0.6776(1) . 0.01 0
O1 O2- 4 i 0.0067(5) 0.1250(2) -.0089(2) . 1. 0
O2 O2- 4 i 0.9988(5) 0.1260(2) 0.4898(3) . 1. 0
O3 O2- 4 i 0.5750(5) 0.9899(2) 0.1393(2) . 1. 0
O4 O2- 4 i 0.5722(5) 0.9909(2) 0.6380(2) . 1. 0
O5 O2- 4 i 0.8212(5) 0.0992(2) 0.0924(3) . 1. 0
O6 O2- 4 i 0.7995(5) 0.1011(2) 0.5919(3) . 1. 0
O7 O2- 4 i 0.8080(6) 0.8560(3) 0.1253(3) . 1. 0
O8 O2- 4 i 0.8220(6) 0.8560(3) 0.6163(3) . 1. 0
O9 O2- 4 i 0.0136(5) 0.2790(2) 0.1368(3) . 1. 0
O10 O2- 4 i 0.0155(5) 0.2935(2) 0.6491(3) . 1. 0
O11 O2- 4 i 0.0076(5) 0.6799(2) 0.1074(3) . 1. 0
O12 O2- 4 i 0.0059(5) 0.6910(2) 0.6001(3) . 1. 0
O13 O2- 4 i 0.1911(5) 0.1058(2) 0.1855(3) . 1. 0
O14 O2- 4 i 0.2013(5) 0.1029(3) 0.6919(3) . 1. 0
O15 O2- 4 i 0.1961(6) 0.8675(3) 0.2201(3) . 1. 0
O16 O2- 4 i 0.1860(6) 0.8618(3) 0.7092(3) . 1. 0
loop_
_atom_site_aniso_label
_atom_site_aniso_type_symbol
_atom_site_aniso_beta_11
_atom_site_aniso_beta_22
_atom_site_aniso_beta_33
_atom_site_aniso_beta_12
_atom_site_aniso_beta_13
_atom_site_aniso_beta_23
Ca1 Ca2+ 0.0038(5) 0.0057(3) 0.0023(2) -.0008(2) 0.0012(2) -.0021(2)
Na1 Na1+ 0.0038(5) 0.0057(3) 0.0023(2) -.0008(2) 0.0012(2) -.0021(2)
Ca2 Ca2+ 0.0035(3) 0.0021(2) 0.0018(2) 0.0006(1) 0.0000(2) 0.0000(1)
Na2 Na1+ 0.0035(3) 0.0021(2) 0.0018(2) 0.0006(1) 0.0000(2) 0.0000(1)
Ca3 Ca2+ 0.0028(3) 0.0019(1) 0.0013(1) 0.0007(1) 0.0002(1) -.0002(1)
Na3 Na1+ 0.0028(3) 0.0019(1) 0.0013(1) 0.0007(1) 0.0002(1) -.0002(1)
Ca4 Ca2+ 0.0026(7) 0.0045(7) 0.0014(5) -.0005(4) 0.0007(4) -.0015(5)
Na4 Na1+ 0.0026(7) 0.0045(7) 0.0014(5) -.0005(4) 0.0007(4) -.0015(5)
Si1 Si4+ 0.0028(2) 0.0010(1) 0.0008(1) -.0002(1) 0.0006(1) 0.0000(1)
Al1 Al3+ 0.0034(3) 0.0010(1) 0.0009(1) -.0003(1) 0.0008(1) 0.0000(1)
Si2 Si4+ 0.0034(3) 0.0010(1) 0.0009(1) -.0003(1) 0.0008(1) 0.0000(1)
Al2 Al3+ 0.0039(3) 0.0011(1) 0.0007(1) 0.0004(1) 0.0008(1) 0.0001(1)
Si3 Si4+ 0.0039(2) 0.0011(1) 0.0007(1) 0.0004(1) 0.0008(1) 0.0001(1)
Si4 Si4+ 0.0027(2) 0.0010(1) 0.0007(1) 0.0003(1) 0.0004(1) 0.0000(1)
Al3 Al3+ 0.0023(2) 0.0009(1) 0.0016(1) 0.0000(1) 0.0006(1) 0.0000(1)
Si5 Si4+ 0.0023(2) 0.0009(1) 0.0016(1) 0.0000(1) 0.0006(1) 0.0000(1)
Si6 Si4+ 0.0025(2) 0.0008(1) 0.0017(1) 0.0000(1) 0.0007(1) 0.0000(1)
Si7 Si4+ 0.0030(2) 0.0008(1) 0.0014(1) 0.0003(1) 0.0005(1) 0.0001(1)
Al4 Al3+ 0.0026(3) 0.0009(1) 0.0013(1) 0.0000(1) 0.0008(1) 0.0001(1)
Si8 Si4+ 0.0026(3) 0.0009(1) 0.0013(1) 0.0000(1) 0.0008(1) 0.0001(1)
O1 O2- 0.0095(9) 0.0017(2) 0.0012(2) 0.0001(3) 0.0025(3) 0.0000(1)
O2 O2- 0.011(1) 0.0013(2) 0.0017(2) 0.0001(3) 0.0030(4) 0.0002(1)
O3 O2- 0.0027(7) 0.0008(2) 0.0019(2) -.0001(2) 0.0007(3) 0.0003(1)
O4 O2- 0.0023(6) 0.0009(2) 0.0016(2) 0.0002(2) 0.0001(3) 0.0002(1)
O5 O2- 0.0054(7) 0.0012(2) 0.0035(2) -.0007(3) 0.0028(4) -.0005(2)
O6 O2- 0.0051(7) 0.0018(2) 0.0041(3) -.0012(3) 0.0037(4) -.0009(2)
O7 O2- 0.0069(8) 0.0020(2) 0.0055(3) 0.0007(3) 0.0039(4) -.0002(2)
O8 O2- 0.0078(9) 0.0026(2) 0.0050(3) 0.0006(3) 0.0051(4) 0.0000(2)
O9 O2- 0.0060(7) 0.0013(2) 0.0021(2) -.0004(3) 0.0016(3) -.0002(1)
O10 O2- 0.0046(7) 0.0011(2) 0.0017(2) -.0005(2) 0.0009(3) 0.0000(1)
O11 O2- 0.0049(7) 0.0010(2) 0.0018(2) 0.0006(3) 0.0009(3) -.0001(1)
O12 O2- 0.0053(7) 0.0012(2) 0.0018(2) 0.0006(3) 0.0006(3) 0.0001(1)
O13 O2- 0.0054(8) 0.0018(2) 0.0016(2) 0.0007(3) 0.0000(3) 0.0000(1)
O14 O2- 0.0054(8) 0.0018(2) 0.0018(2) 0.0000(3) -.0010(3) 0.0000(1)
O15 O2- 0.0066(8) 0.0019(2) 0.0034(3) 0.0005(3) -.0013(4) -.0009(2)
O16 O2- 0.0063(8) 0.0025(2) 0.0026(2) 0.0012(3) -.0026(4) -.0010(2)
#End of TTdata_86335-ICSD