
#(C) 2019 by FIZ Karlsruhe - Leibniz Institute for Information Infrastructure.  All rights reserved.
data_86336-ICSD
_database_code_ICSD 86336
_audit_creation_date 1999-11-30
_chemical_name_systematic
'Calcium sodium aluminium silicon oxide (0.96/0.04/1.96/2.04/8)'
_chemical_formula_structural '(Ca0.96 Na0.04) (Al1.96 Si0.04) Si2 O8'
_chemical_formula_sum 'Al1.96 Ca0.96 Na0.04 O8 Si2.04'
_chemical_name_structure_type Feldspar#-(TC,I1-,i28)-Bytownite
_chemical_name_mineral Unnamed_Feldspar
_exptl_crystal_density_diffrn 2.76
_publ_section_title

;
Structural variation associated with compositional variation and
order-disorder behavior in anorthite-rich feldspars
;
loop_
_citation_id
_citation_journal_full
_citation_year
_citation_journal_volume
_citation_page_first
_citation_page_last
_citation_journal_id_ASTM
primary 'American Mineralogist' 1990 75 150 162 AMMIAY
loop_
_publ_author_name
'Angel, R.J.'
'Carpenter, M.A.'
'Finger, L.W.'
_cell_length_a 8.176(2)
_cell_length_b 12.867(3)
_cell_length_c 14.170(2)
_cell_angle_alpha 93.22(1)
_cell_angle_beta 115.83(1)
_cell_angle_gamma 91.19(2)
_cell_volume 1337.94
_cell_formula_units_Z 8
_symmetry_space_group_name_H-M 'I -1'
_symmetry_Int_Tables_number 2
_refine_ls_R_factor_all 0.049
loop_
_symmetry_equiv_pos_site_id
_symmetry_equiv_pos_as_xyz
1 '-x, -y, -z'
2 'x, y, z'
3 '-x+1/2, -y+1/2, -z+1/2'
4 'x+1/2, y+1/2, z+1/2'
loop_
_atom_type_symbol
_atom_type_oxidation_number
Ca2+ 2
Na1+ 1
Ca2+ 2
Na1+ 1
Ca2+ 2
Na1+ 1
Ca2+ 2
Na1+ 1
Si4+ 4
Al3+ 3
Si4+ 4
Al3+ 3
Si4+ 4
Al3+ 3
Si4+ 4
Al3+ 3
Si4+ 4
O2- -2
loop_
_atom_site_label
_atom_site_type_symbol
_atom_site_symmetry_multiplicity
_atom_site_Wyckoff_symbol
_atom_site_fract_x
_atom_site_fract_y
_atom_site_fract_z
_atom_site_B_iso_or_equiv
_atom_site_occupancy
_atom_site_attached_hydrogens
Ca1 Ca2+ 4 i 0.2663(4) 0.9855(4) 0.0860(3) . 0.390(6) 0
Na1 Na1+ 4 i 0.2663(4) 0.9855(4) 0.0860(3) . 0.021(1) 0
Ca2 Ca2+ 4 i 0.2685(4) 0.0305(6) 0.5462(9) . 0.604(4) 0
Na2 Na1+ 4 i 0.2685(4) 0.0305(6) 0.5462(9) . 0.012(1) 0
Ca3 Ca2+ 4 i 0.7746(3) 0.5352(2) 0.5439(2) . 0.560(6) 0
Na3 Na1+ 4 i 0.7746(3) 0.5352(2) 0.5439(2) . 0.029(1) 0
Ca4 Ca2+ 4 i 0.7645(7) 0.503(2) 0.076(2) . 0.376(4) 0
Na4 Na1+ 4 i 0.7645(7) 0.503(2) 0.076(2) . 0.008(1) 0
Si1 Si4+ 4 i 0.0074(2) 0.1583(1) 0.1044(1) . 1. 0
Al1 Al3+ 4 i 0.0028(2) 0.1636(1) 0.6119(1) . 0.98 0
Si2 Si4+ 4 i 0.0028(2) 0.1636(1) 0.6119(1) . 0.02 0
Al2 Al3+ 4 i 0.0004(2) 0.8151(1) 0.1197(1) . 0.98 0
Si3 Si4+ 4 i 0.0004(2) 0.8151(1) 0.1197(1) . 0.02 0
Si4 Si4+ 4 i 0.0044(2) 0.8173(1) 0.6118(1) . 1. 0
Al3 Al3+ 4 i 0.6876(2) 0.1126(1) 0.1594(1) . 0.98 0
Si5 Si4+ 4 i 0.6876(2) 0.1126(1) 0.1594(1) . 0.02 0
Si6 Si4+ 4 i 0.6770(2) 0.1056(1) 0.6576(1) . 1. 0
Si7 Si4+ 4 i 0.6759(2) 0.8815(1) 0.1807(1) . 1. 0
Al4 Al3+ 4 i 0.6834(2) 0.8753(1) 0.6776(1) . 0.98 0
Si8 Si4+ 4 i 0.6834(2) 0.8753(1) 0.6776(1) . 0.02 0
O1 O2- 4 i 0.0068(5) 0.1254(3) -.0087(3) . 1. 0
O2 O2- 4 i 0.9987(5) 0.1259(3) 0.4895(3) . 1. 0
O3 O2- 4 i 0.5752(5) 0.9896(2) 0.1393(2) . 1. 0
O4 O2- 4 i 0.5726(5) 0.9908(2) 0.6381(3) . 1. 0
O5 O2- 4 i 0.8213(5) 0.0996(3) 0.0922(3) . 1. 0
O6 O2- 4 i 0.7989(5) 0.1011(3) 0.5926(3) . 1. 0
O7 O2- 4 i 0.8065(5) 0.8557(3) 0.1256(3) . 1. 0
O8 O2- 4 i 0.8255(5) 0.8557(3) 0.6171(3) . 1. 0
O9 O2- 4 i 0.0129(5) 0.2790(3) 0.1366(3) . 1. 0
O10 O2- 4 i 0.0158(5) 0.2936(2) 0.6489(3) . 1. 0
O11 O2- 4 i 0.0074(5) 0.6801(2) 0.1073(3) . 1. 0
O12 O2- 4 i 0.0058(5) 0.6908(3) 0.5999(3) . 1. 0
O13 O2- 4 i 0.1912(5) 0.1064(3) 0.1856(3) . 1. 0
O14 O2- 4 i 0.2021(5) 0.1032(3) 0.6920(3) . 1. 0
O15 O2- 4 i 0.1965(5) 0.8678(3) 0.2204(3) . 1. 0
O16 O2- 4 i 0.1860(6) 0.8616(3) 0.7092(3) . 1. 0
loop_
_atom_site_aniso_label
_atom_site_aniso_type_symbol
_atom_site_aniso_beta_11
_atom_site_aniso_beta_22
_atom_site_aniso_beta_33
_atom_site_aniso_beta_12
_atom_site_aniso_beta_13
_atom_site_aniso_beta_23
Ca1 Ca2+ 0.0039(5) 0.0050(3) 0.0022(2) -.0008(3) 0.0015(3) -.0019(2)
Na1 Na1+ 0.0039(5) 0.0050(3) 0.0022(2) -.0008(3) 0.0015(3) -.0019(2)
Ca2 Ca2+ 0.0033(3) 0.0020(2) 0.0014(3) 0.0009(2) 0.0007(2) -.00027(2)
Na2 Na1+ 0.0033(3) 0.0020(2) 0.0014(3) 0.0009(2) 0.0007(2) -.00027(2)
Ca3 Ca2+ 0.0040(4) 0.0022(1) 0.0015(1) 0.0010(2) 0.0005(2) -.0005(1)
Na3 Na1+ 0.0040(4) 0.0022(1) 0.0015(1) 0.0010(2) 0.0005(2) -.0005(1)
Ca4 Ca2+ 0.0039(6) 0.0049(7) 0.0025(6) 0.0006(4) 0.0009(4) -.0015(7)
Na4 Na1+ 0.0039(6) 0.0049(7) 0.0025(6) 0.0006(4) 0.0009(4) -.0015(7)
Si1 Si4+ 0.0034(2) 0.0012(1) 0.0007(1) -.0001(1) 0.0009(1) 0.0001(1)
Al1 Al3+ 0.0034(3) 0.0011(1) 0.0008(1) -.0002(1) 0.0009(1) 0.0000(1)
Si2 Si4+ 0.0034(3) 0.0011(1) 0.0008(1) -.0002(1) 0.0009(1) 0.0000(1)
Al2 Al3+ 0.0036(3) 0.0012(1) 0.0007(1) 0.0004(1) 0.0007(1) 0.0000(1)
Si3 Si4+ 0.0036(3) 0.0012(1) 0.0007(1) 0.0004(1) 0.0007(1) 0.0000(1)
Si4 Si4+ 0.0036(2) 0.0012(1) 0.0007(1) 0.0007(1) 0.0007(1) 0.0001(1)
Al3 Al3+ 0.0032(3) 0.0009(1) 0.0016(1) 0.0001(1) 0.0008(1) 0.0000(1)
Si5 Si4+ 0.0032(3) 0.0009(1) 0.0016(1) 0.0001(1) 0.0008(1) 0.0000(1)
Si6 Si4+ 0.0027(2) 0.0009(1) 0.0018(1) 0.0001(1) 0.0010(1) -.0001(1)
Si7 Si4+ 0.0027(2) 0.0010(1) 0.0014(1) 0.0002(1) 0.0006(1) 0.0002(1)
Al4 Al3+ 0.0034(3) 0.0010(1) 0.0013(1) 0.0004(1) 0.0012(1) 0.0004(1)
Si8 Si4+ 0.0034(3) 0.0010(1) 0.0013(1) 0.0004(1) 0.0012(1) 0.0004(1)
O1 O2- 0.0107(9) 0.0020(2) 0.0014(2) 0.0007(3) 0.0026(4) 0.0000(2)
O2 O2- 0.0097(8) 0.0018(2) 0.0012(2) 0.0009(3) 0.0024(4) 0.0003(2)
O3 O2- 0.0025(6) 0.0010(2) 0.0017(2) 0.0002(3) 0.0007(3) 0.0002(2)
O4 O2- 0.0035(6) 0.0009(2) 0.0018(2) 0.0003(3) 0.0008(3) 0.0002(2)
O5 O2- 0.0059(7) 0.0018(2) 0.0035(3) -.0011(2) 0.0033(4) -.0006(2)
O6 O2- 0.0062(7) 0.0016(2) 0.0043(3) -.0005(3) 0.0039(4) -.0003(2)
O7 O2- 0.0061(7) 0.0024(2) 0.0058(3) 0.0002(3) 0.0044(4) 0.0044(4)
O8 O2- 0.0080(8) 0.0021(2) 0.0051(3) 0.0009(3) 0.0047(4) 0.0002(2)
O9 O2- 0.0059(7) 0.0012(2) 0.0023 -.0001(3) 0.0021(3) -.0003(2)
O10 O2- 0.0046(6) 0.0012(2) 0.0020(2) -.0001(3) 0.0013(3) 0.0000(2)
O11 O2- 0.0053(7) 0.0013(2) 0.0017(2) 0.0006(3) 0.0010(3) 0.0000(2)
O12 O2- 0.0051(7) 0.0014(2) 0.0016(2) 0.0009(3) 0.0009(3) -.0001(2)
O13 O2- 0.0050(7) 0.0020(2) 0.0016(2) 0.0003(3) 0.0000(3) -.0002(2)
O14 O2- 0.0066(7) 0.0018(2) 0.0013(2) 0.0012(3) -.0010(3) 0.0004(2)
O15 O2- 0.0061(6) 0.0020(2) 0.0032(3) 0.0008(3) -.0014(4) -.0009(2)
O16 O2- 0.0073(8) 0.0028(2) 0.0024(2) 0.0005(4) -.0022(4) -.0012(2)
#End of TTdata_86336-ICSD