
#(C) 2019 by FIZ Karlsruhe - Leibniz Institute for Information Infrastructure.  All rights reserved.
data_86332-ICSD
_database_code_ICSD 86332
_audit_creation_date 1999-11-30
_chemical_name_systematic
'Calcium sodium aluminium silicon oxide (0.98/0.02/1.98/2.02/8)'
_chemical_formula_structural '(Ca0.98 Na0.02) (Al1.98 Si0.02) Si2 O8'
_chemical_formula_sum 'Al1.98 Ca0.98 Na0.02 O8 Si2.02'
_chemical_name_structure_type Feldspar#-(TC,I1-,i28)-Bytownite
_chemical_name_mineral 'Anorthite (annealed)'
_exptl_crystal_density_diffrn 2.75
_publ_section_title

;
Structural variation associated with compositional variation and
order-disorder behavior in anorthite-rich feldspars
;
loop_
_citation_id
_citation_journal_full
_citation_year
_citation_journal_volume
_citation_page_first
_citation_page_last
_citation_journal_id_ASTM
primary 'American Mineralogist' 1990 75 150 162 AMMIAY
loop_
_publ_author_name
'Angel, R.J.'
'Carpenter, M.A.'
'Finger, L.W.'
_cell_length_a 8.183(1)
_cell_length_b 12.874(1)
_cell_length_c 14.176(1)
_cell_angle_alpha 93.17(1)
_cell_angle_beta 115.85(1)
_cell_angle_gamma 91.23(1)
_cell_volume 1340.2
_cell_formula_units_Z 8
_symmetry_space_group_name_H-M 'I -1'
_symmetry_Int_Tables_number 2
_refine_ls_R_factor_all 0.044
loop_
_symmetry_equiv_pos_site_id
_symmetry_equiv_pos_as_xyz
1 '-x, -y, -z'
2 'x, y, z'
3 '-x+1/2, -y+1/2, -z+1/2'
4 'x+1/2, y+1/2, z+1/2'
loop_
_atom_type_symbol
_atom_type_oxidation_number
Ca2+ 2
Na1+ 1
Ca2+ 2
Na1+ 1
Ca2+ 2
Na1+ 1
Ca2+ 2
Na1+ 1
Si4+ 4
Al3+ 3
Si4+ 4
Al3+ 3
Si4+ 4
Al3+ 3
Si4+ 4
Al3+ 3
Si4+ 4
O2- -2
loop_
_atom_site_label
_atom_site_type_symbol
_atom_site_symmetry_multiplicity
_atom_site_Wyckoff_symbol
_atom_site_fract_x
_atom_site_fract_y
_atom_site_fract_z
_atom_site_B_iso_or_equiv
_atom_site_occupancy
_atom_site_attached_hydrogens
Ca1 Ca2+ 4 i 0.2659(3) 0.9860(2) 0.0862(2) . 0.428(4) 0
Na1 Na1+ 4 i 0.2659(3) 0.9860(2) 0.0862(2) . 0.008(1) 0
Ca2 Ca2+ 4 i 0.2681(3) 0.0292(4) 0.5471(5) . 0.663(2) 0
Na2 Na1+ 4 i 0.2681(3) 0.0292(4) 0.5471(5) . 0.014(1) 0
Ca3 Ca2+ 4 i 0.7740(2) 0.5353(1) 0.5430(1) . 0.552(6) 0
Na3 Na1+ 4 i 0.7740(2) 0.5353(1) 0.5430(1) . 0.012(1) 0
Ca4 Ca2+ 4 i 0.7639(5) 0.501(1) 0.079(1) . 0.317(2) 0
Na4 Na1+ 4 i 0.7639(5) 0.501(1) 0.079(1) . 0.006(1) 0
Si1 Si4+ 4 i 0.0076(1) 0.1580(1) 0.1043(1) . 1. 0
Al1 Al3+ 4 i 0.0027(2) 0.1636(1) 0.6119(1) . 0.99 0
Si2 Si4+ 4 i 0.0027(2) 0.1636(1) 0.6119(1) . 0.01 0
Al2 Al3+ 4 i 0.0000(2) 0.8150(1) 0.1195(1) . 0.99 0
Si3 Si4+ 4 i 0.0000(2) 0.8150(1) 0.1195(1) . 0.01 0
Si4 Si4+ 4 i 0.0046(1) 0.8174(1) 0.6118(1) . 1. 0
Al3 Al3+ 4 i 0.6877(2) 0.1124(1) 0.1597(1) . 0.99 0
Si5 Si4+ 4 i 0.6877(2) 0.1124(1) 0.1597(1) . 0.01 0
Si6 Si4+ 4 i 0.6767(1) 0.1056(1) 0.6574(1) . 1. 0
Si7 Si4+ 4 i 0.6760(1) 0.8816(1) 0.1808(1) . 1. 0
Al4 Al3+ 4 i 0.6831(2) 0.8751(1) 0.6773(1) . 0.99 0
Si8 Si4+ 4 i 0.6831(2) 0.8751(1) 0.6773(1) . 0.01 0
O1 O2- 4 i 0.0073(4) 0.1251(2) -.0090(2) . 1. 0
O2 O2- 4 i 0.9984(4) 0.1254(2) 0.4899(2) . 1. 0
O3 O2- 4 i 0.5743(3) 0.9896(2) 0.1391(2) . 1. 0
O4 O2- 4 i 0.5727(3) 0.9906(2) 0.6381(2) . 1. 0
O5 O2- 4 i 0.8217(4) 0.0993(2) 0.0919(2) . 1. 0
O6 O2- 4 i 0.7984(4) 0.1007(2) 0.5924(2) . 1. 0
O7 O2- 4 i 0.8079(4) 0.8562(2) 0.1261(3) . 1. 0
O8 O2- 4 i 0.8231(4) 0.8558(2) 0.6166(3) . 1. 0
O9 O2- 4 i 0.0129(4) 0.2789(2) 0.1360(2) . 1. 0
O10 O2- 4 i 0.0152(4) 0.2933(2) 0.6490(2) . 1. 0
O11 O2- 4 i 0.0078(4) 0.6797(2) 0.1073(2) . 1. 0
O12 O2- 4 i 0.0058(4) 0.6912(2) 0.5997(2) . 1. 0
O13 O2- 4 i 0.1920(4) 0.1062(2) 0.1863(2) . 1. 0
O14 O2- 4 i 0.2020(4) 0.1032(2) 0.6921(2) . 1. 0
O15 O2- 4 i 0.1970(4) 0.8679(2) 0.2207(2) . 1. 0
O16 O2- 4 i 0.1860(4) 0.8623(2) 0.7088(2) . 1. 0
loop_
_atom_site_aniso_label
_atom_site_aniso_type_symbol
_atom_site_aniso_beta_11
_atom_site_aniso_beta_22
_atom_site_aniso_beta_33
_atom_site_aniso_beta_12
_atom_site_aniso_beta_13
_atom_site_aniso_beta_23
Ca1 Ca2+ 0.0024(3) 0.0040(2) 0.0019(1) -.0007(2) 0.0010(2) -.0014(1)
Na1 Na1+ 0.0024(3) 0.0040(2) 0.0019(1) -.0007(2) 0.0010(2) -.0014(1)
Ca2 Ca2+ 0.0026(2) 0.0022(2) 0.0018(2) 0.0007(1) 0.0005(1) -.0007(1)
Na2 Na1+ 0.0026(2) 0.0022(2) 0.0018(2) 0.0007(1) 0.0005(1) -.0007(1)
Ca3 Ca2+ 0.0027(3) 0.0017(1) 0.0015(1) 0.0006(1) 0.0006(1) -.0003(1)
Na3 Na1+ 0.0027(3) 0.0017(1) 0.0015(1) 0.0006(1) 0.0006(1) -.0003(1)
Ca4 Ca2+ 0.0025(5) 0.0030(4) 0.0011(3) 0.0000(3) 0.0009(3) -.0005(3)
Na4 Na1+ 0.0025(5) 0.0030(4) 0.0011(3) 0.0000(3) 0.0009(3) -.0005(3)
Si1 Si4+ 0.0023(2) 0.0011(1) 0.0008(5) -.0004(8) 0.0006(1) 0.0000(1)
Al1 Al3+ 0.0032(2) 0.0009(1) 0.0009(1) -.0004(1) 0.0008(1) 0.0000(1)
Si2 Si4+ 0.0032(2) 0.0009(1) 0.0009(1) -.0004(1) 0.0008(1) 0.0000(1)
Al2 Al3+ 0.0037(2) 0.0009(1) 0.0009(1) 0.0002(1) 0.0010(1) 0.0000(1)
Si3 Si4+ 0.0037(2) 0.0009(1) 0.0009(1) 0.0002(1) 0.0010(1) 0.0000(1)
Si4 Si4+ 0.0024(2) 0.0011(5) 0.0008(1) 0.0004(1) 0.0006(1) 0.0000(1)
Al3 Al3+ 0.0025(2) 0.0008(1) 0.0018(1) -.0002(1) 0.0009(1) -.0001(1)
Si5 Si4+ 0.0025(2) 0.0008(1) 0.0018(1) -.0002(1) 0.0009(1) -.0001(1)
Si6 Si4+ 0.0024(2) 0.0007(1) 0.0019(1) -.0002(1) 0.0011(1) -.0002(1)
Si7 Si4+ 0.0021(2) 0.0008(1) 0.0016(1) 0.0000(1) 0.0004(1) 0.0002(1)
Al4 Al3+ 0.0026(2) 0.0008(1) 0.0013(1) 0.0003(1) 0.0009(1) 0.0003(1)
Si8 Si4+ 0.0026(2) 0.0008(1) 0.0013(1) 0.0003(1) 0.0009(1) 0.0003(1)
O1 O2- 0.0099(6) 0.0017(2) 0.0013(2) 0.0001(2) 0.0023(3) -.0001(1)
O2 O2- 0.0114(7) 0.0015(2) 0.0016(2) 0.0004(2) 0.0033(3) 0.0004(1)
O3 O2- 0.0021(5) 0.0008(1) 0.0019(2) -.0002(2) 0.0007(2) 0.0002(1)
O4 O2- 0.0021(5) 0.0010(1) 0.0017(2) 0.0000(2) 0.0005(2) 0.0002(1)
O5 O2- 0.0048(5) 0.0013(2) 0.0039(2) -.0014(2) 0.0031(3) -.0007(1)
O6 O2- 0.0058(5) 0.0014(2) 0.0050(2) -.0014(2) 0.0045(3) -.0009(2)
O7 O2- 0.0065(6) 0.0018(2) 0.0071(3) 0.0001(3) 0.0053(4) -.0006(2)
O8 O2- 0.0082(6) 0.0020(2) 0.0058(3) 0.0012(3) 0.0058(3) 0.0005(2)
O9 O2- 0.0044(5) 0.0014(2) 0.0019(2) -.0007(2) 0.0014(2) -.0003(1)
O10 O2- 0.0051(5) 0.0012(1) 0.0020(2) -.0004(2) 0.0014(2) -.0002(1)
O11 O2- 0.0048(5) 0.0010(1) 0.0018(2) 0.0006(2) 0.0011(2) 0.0000(1)
O12 O2- 0.0035(5) 0.0012(1) 0.0015(2) 0.0004(2) 0.0002(2) -.0003(1)
O13 O2- 0.0043(5) 0.0018(2) 0.0017(2) 0.0005(2) -.0004(2) 0.0000(1)
O14 O2- 0.0060(6) 0.0013(2) 0.0023(2) 0.0003(2) -.0010(3) 0.0002(1)
O15 O2- 0.0047(8) 0.0023(2) 0.0037(2) 0.0007(3) -.0012(3) -.0012(2)
O16 O2- 0.0074(6) 0.0025(2) 0.0031(2) 0.0013(3) -.0027(3) -.0014(2)
#End of TTdata_86332-ICSD