
#(C) 2019 by FIZ Karlsruhe - Leibniz Institute for Information Infrastructure.  All rights reserved.
data_86333-ICSD
_database_code_ICSD 86333
_audit_creation_date 1999-11-30
_chemical_name_systematic
'Calcium sodium aluminium silicon oxide (0.98/0.02/1.98/2.02/8)'
_chemical_formula_structural '(Ca0.98 Na0.02) (Al1.98 Si0.02) Si2 O8'
_chemical_formula_sum 'Al1.98 Ca0.98 Na0.02 O8 Si2.02'
_chemical_name_structure_type Feldspar#-(TC,I1-,i28)-Bytownite
_chemical_name_mineral 'Anorthite (annealed)'
_exptl_crystal_density_diffrn 2.75
_publ_section_title

;
Structural variation associated with compositional variation and
order-disorder behavior in anorthite-rich feldspars
;
loop_
_citation_id
_citation_journal_full
_citation_year
_citation_journal_volume
_citation_page_first
_citation_page_last
_citation_journal_id_ASTM
primary 'American Mineralogist' 1990 75 150 162 AMMIAY
loop_
_publ_author_name
'Angel, R.J.'
'Carpenter, M.A.'
'Finger, L.W.'
_cell_length_a 8.185(1)
_cell_length_b 12.869(1)
_cell_length_c 14.173(1)
_cell_angle_alpha 93.25(1)
_cell_angle_beta 115.78(1)
_cell_angle_gamma 91.15(1)
_cell_volume 1340.47
_cell_formula_units_Z 8
_symmetry_space_group_name_H-M 'I -1'
_symmetry_Int_Tables_number 2
_refine_ls_R_factor_all 0.053
loop_
_symmetry_equiv_pos_site_id
_symmetry_equiv_pos_as_xyz
1 '-x, -y, -z'
2 'x, y, z'
3 '-x+1/2, -y+1/2, -z+1/2'
4 'x+1/2, y+1/2, z+1/2'
loop_
_atom_type_symbol
_atom_type_oxidation_number
Ca2+ 2
Na1+ 1
Ca2+ 2
Na1+ 1
Si4+ 4
Al3+ 3
Si4+ 4
Al3+ 3
Si4+ 4
Al3+ 3
Si4+ 4
Al3+ 3
Si4+ 4
O2- -2
loop_
_atom_site_label
_atom_site_type_symbol
_atom_site_symmetry_multiplicity
_atom_site_Wyckoff_symbol
_atom_site_fract_x
_atom_site_fract_y
_atom_site_fract_z
_atom_site_B_iso_or_equiv
_atom_site_occupancy
_atom_site_attached_hydrogens
Ca1 Ca2+ 4 i 0.2665(4) 0.9860(4) 0.0854(4) . 0.432(7) 0
Ca2 Ca2+ 4 i 0.2693(4) 0.0290(5) 0.5481(7) . 0.693(3) 0
Na1 Na1+ 4 i 0.2693(4) 0.0290(5) 0.5481(7) . 0.022(1) 0
Ca3 Ca2+ 4 i 0.7741(3) 0.5356(2) 0.5436(2) . 0.572(7) 0
Ca4 Ca2+ 4 i 0.7631(8) 0.497(2) 0.080(1) . 0.277(3) 0
Na4 Na1+ 4 i 0.7631(8) 0.497(2) 0.080(1) . 0.008(1) 0
Si1 Si4+ 4 i 0.0073(2) 0.1585(1) 0.1047(1) . 1. 0
Al1 Al3+ 4 i 0.0031(2) 0.1637(1) 0.6116(1) . 0.99 0
Si2 Si4+ 4 i 0.0031(2) 0.1637(1) 0.6116(1) . 0.01 0
Al2 Al3+ 4 i 0.0002(2) 0.8150(1) 0.1193(1) . 0.99 0
Si3 Si4+ 4 i 0.0002(2) 0.8150(1) 0.1193(1) . 0.01 0
Si4 Si4+ 4 i 0.0036(2) 0.8170(1) 0.6121(1) . 1. 0
Al3 Al3+ 4 i 0.6874(2) 0.1120(1) 0.1597(1) . 0.99 0
Si5 Si4+ 4 i 0.6874(2) 0.1120(1) 0.1597(1) . 0.01 0
Si6 Si4+ 4 i 0.6772(2) 0.1059(1) 0.6574(1) . 1. 0
Si7 Si4+ 4 i 0.6763(2) 0.8812(1) 0.1809(1) . 1. 0
Al4 Al3+ 4 i 0.6829(2) 0.8755(1) 0.6779(1) . 0.99 0
Si8 Si4+ 4 i 0.6829(2) 0.8755(1) 0.6779(1) . 0.01 0
O1 O2- 4 i 0.0067(6) 0.1257(3) -.0090(3) . 1. 0
O2 O2- 4 i 0.9990(6) 0.1259(3) 0.4897(3) . 1. 0
O3 O2- 4 i 0.5743(5) 0.9895(3) 0.1393(3) . 1. 0
O4 O2- 4 i 0.5739(5) 0.9911(3) 0.6386(3) . 1. 0
O5 O2- 4 i 0.8194(5) 0.0992(3) 0.0913(3) . 1. 0
O6 O2- 4 i 0.8002(6) 0.1013(3) 0.5926(3) . 1. 0
O7 O2- 4 i 0.8069(6) 0.8563(3) 0.1248(4) . 1. 0
O8 O2- 4 i 0.8228(6) 0.8554(3) 0.6171(4) . 1. 0
O9 O2- 4 i 0.0125(5) 0.2796(3) 0.1373(3) . 1. 0
O10 O2- 4 i 0.0165(5) 0.2925(3) 0.6490(3) . 1. 0
O11 O2- 4 i 0.0067(5) 0.6805(3) 0.1071(3) . 1. 0
O12 O2- 4 i 0.0070(6) 0.6908(3) 0.6004(3) . 1. 0
O13 O2- 4 i 0.1922(6) 0.1059(3) 0.1865(3) . 1. 0
O14 O2- 4 i 0.2016(6) 0.1028(3) 0.6921(3) . 1. 0
O15 O2- 4 i 0.1963(6) 0.8672(3) 0.2203(3) . 1. 0
O16 O2- 4 i 0.1868(6) 0.8623(3) 0.7099(3) . 1. 0
loop_
_atom_site_aniso_label
_atom_site_aniso_type_symbol
_atom_site_aniso_beta_11
_atom_site_aniso_beta_22
_atom_site_aniso_beta_33
_atom_site_aniso_beta_12
_atom_site_aniso_beta_13
_atom_site_aniso_beta_23
Ca1 Ca2+ 0.0034(4) 0.0068(4) 0.0030(3) -.0017(3) 0.0015(3) -.0030(3)
Ca2 Ca2+ 0.0031(3) 0.0025(2) 0.0021(3) 0.0006(2) 0.0004(2) -.0010(2)
Na1 Na1+ 0.0031(3) 0.0025(2) 0.0021(3) 0.0006(2) 0.0004(2) -.0010(2)
Ca3 Ca2+ 0.0032(4) 0.0020(1) 0.0018(1) 0.0010(2) 0.0007(2) -.0001(1)
Ca4 Ca2+ 0.0032(8) 0.0051(8) 0.0015(5) -.0001(5) 0.0012(4) -.0012(6)
Na4 Na1+ 0.0032(8) 0.0051(8) 0.0015(5) -.0001(5) 0.0012(4) -.0012(6)
Si1 Si4+ 0.0036(3) 0.0014(1) 0.0009(1) -.0002(1) 0.0009(1) 0.0001(1)
Al1 Al3+ 0.0029(3) 0.0012(1) 0.0009(1) -.0003(1) 0.0006(1) 0.0000(1)
Si2 Si4+ 0.0029(3) 0.0012(1) 0.0009(1) -.0003(1) 0.0006(1) 0.0000(1)
Al2 Al3+ 0.0037(3) 0.0012(1) 0.0009(1) 0.0006(1) 0.0009(1) 0.0000(1)
Si3 Si4+ 0.0037(3) 0.0012(1) 0.0009(1) 0.0006(1) 0.0009(1) 0.0000(1)
Si4 Si4+ 0.0030(3) 0.0014(1) 0.0008(1) 0.0007(1) 0.0004(1) 0.0002(1)
Al3 Al3+ 0.0028(3) 0.0011(1) 0.0016(1) 0.0001(1) 0.0008(1) 0.0001(1)
Si5 Si4+ 0.0028(3) 0.0011(1) 0.0016(1) 0.0001(1) 0.0008(1) 0.0001(1)
Si6 Si4+ 0.0028(3) 0.0012(1) 0.0019(1) 0.0001(1) 0.0008(1) 0.0000(1)
Si7 Si4+ 0.0028(3) 0.0010(1) 0.0017(1) 0.0002(1) 0.0006(1) 0.0002(1)
Al4 Al3+ 0.0027(3) 0.0010(1) 0.0013(1) 0.0004(1) 0.0007(1) 0.0003(1)
Si8 Si4+ 0.0027(3) 0.0010(1) 0.0013(1) 0.0004(1) 0.0007(1) 0.0003(1)
O1 O2- 0.0095(9) 0.0023(2) 0.0014(2) 0.0005(4) 0.0022(4) 0.0000(2)
O2 O2- 0.0099(9) 0.0020(2) 0.0015(2) 0.0005(4) 0.0023(4) 0.0002(2)
O3 O2- 0.0034(7) 0.0013(2) 0.0017(2) 0.0000(3) 0.0006(4) 0.0002(2)
O4 O2- 0.0028(7) 0.0009(2) 0.0020(2) 0.0002(3) 0.0007(4) 0.0001(2)
O5 O2- 0.0054(7) 0.0017(2) 0.0038(3) -.0005(3) 0.0035(4) -.0002(2)
O6 O2- 0.0056(8) 0.0017(2) 0.0044(3) -.0012(3) 0.0038(4) -.0011(2)
O7 O2- 0.0055(8) 0.0021(2) 0.0056(3) -.0001(3) 0.0036(4) -.0009(2)
O8 O2- 0.0071(9) 0.0026(3) 0.0056(3) 0.0011(4) 0.0053(5) 0.0002(2)
O9 O2- 0.0050(7) 0.0018(2) 0.0024(2) -.0005(3) 0.0017(4) -.0002(2)
O10 O2- 0.0062(8) 0.0014(2) 0.0024(2) -.0006(3) 0.0018(4) -.0001(2)
O11 O2- 0.0048(7) 0.0016(2) 0.0020(2) 0.0004(3) 0.0010(4) 0.0002(2)
O12 O2- 0.0054(7) 0.0019(2) 0.0017(2) 0.0011(3) 0.0003(4) -.0002(2)
O13 O2- 0.0055(8) 0.0023(2) 0.0017(2) 0.0010(3) 0.0003(4) 0.0001(2)
O14 O2- 0.0061(8) 0.0015(2) 0.0019(2) 0.0001(3) -.0010(4) 0.0003(2)
O15 O2- 0.0060(5) 0.0025(3) 0.0037(3) 0.0007(4) -.0007(4) -.0008(2)
O16 O2- 0.0078(9) 0.0030(3) 0.0026(3) 0.0009(4) -.0022(4) -.0012(2)
#End of TTdata_86333-ICSD