
#(C) 2019 by FIZ Karlsruhe - Leibniz Institute for Information Infrastructure.  All rights reserved.
data_86339-ICSD
_database_code_ICSD 86339
_audit_creation_date 1999-11-30
_chemical_name_systematic
'Calcium sodium aluminium silicon oxide (0.78/0.22/1.78/2.22/8)'
_chemical_formula_structural '(Ca0.78 Na0.22) (Al1.78 Si0.22) Si2 O8'
_chemical_formula_sum 'Al1.78 Ca0.78 Na0.22 O8 Si2.22'
_chemical_name_structure_type Feldspar#-(TC,I1-,i28)-Bytownite
_chemical_name_mineral Unnamed_Feldspar
_exptl_crystal_density_diffrn 2.73
_publ_section_title

;
Structural variation associated with compositional variation and
order-disorder behavior in anorthite-rich feldspars
;
loop_
_citation_id
_citation_journal_full
_citation_year
_citation_journal_volume
_citation_page_first
_citation_page_last
_citation_journal_id_ASTM
primary 'American Mineralogist' 1990 75 150 162 AMMIAY
loop_
_publ_author_name
'Angel, R.J.'
'Carpenter, M.A.'
'Finger, L.W.'
_cell_length_a 8.174(2)
_cell_length_b 12.870(3)
_cell_length_c 14.184(3)
_cell_angle_alpha 93.45(2)
_cell_angle_beta 115.96(1)
_cell_angle_gamma 90.67(2)
_cell_volume 1337.96
_cell_formula_units_Z 8
_symmetry_space_group_name_H-M 'I -1'
_symmetry_Int_Tables_number 2
_refine_ls_R_factor_all 0.048
loop_
_symmetry_equiv_pos_site_id
_symmetry_equiv_pos_as_xyz
1 '-x, -y, -z'
2 'x, y, z'
3 '-x+1/2, -y+1/2, -z+1/2'
4 'x+1/2, y+1/2, z+1/2'
loop_
_atom_type_symbol
_atom_type_oxidation_number
Ca2+ 2
Na1+ 1
Ca2+ 2
Na1+ 1
Ca2+ 2
Na1+ 1
Ca2+ 2
Na1+ 1
Si4+ 4
Al3+ 3
Si4+ 4
Al3+ 3
Si4+ 4
Al3+ 3
Si4+ 4
Al3+ 3
Si4+ 4
O2- -2
loop_
_atom_site_label
_atom_site_type_symbol
_atom_site_symmetry_multiplicity
_atom_site_Wyckoff_symbol
_atom_site_fract_x
_atom_site_fract_y
_atom_site_fract_z
_atom_site_B_iso_or_equiv
_atom_site_occupancy
_atom_site_attached_hydrogens
Ca1 Ca2+ 4 i 0.2664(6) 0.9842(9) 0.0841(7) . 0.318(10) 0
Na1 Na1+ 4 i 0.2664(6) 0.9842(9) 0.0841(7) . 0.130(5) 0
Ca2 Ca2+ 4 i 0.2709(6) 0.0298(6) 0.5485(6) . 0.51(1) 0
Na2 Na1+ 4 i 0.2709(6) 0.0298(6) 0.5485(6) . 0.127(5) 0
Ca3 Ca2+ 4 i 0.7740(5) 0.5331(4) 0.5457(4) . 0.392(10) 0
Na3 Na1+ 4 i 0.7740(5) 0.5331(4) 0.5457(3) . 0.160(5) 0
Ca4 Ca2+ 4 i 0.765(1) 0.488(2) 0.082(1) . 0.29(1) 0
Na4 Na1+ 4 i 0.765(1) 0.488(2) 0.082(1) . 0.073(5) 0
Si1 Si4+ 4 i 0.0073(3) 0.1604(2) 0.1059(2) . 1. 0
Al1 Al3+ 4 i 0.0046(3) 0.1644(2) 0.6099(2) . 0.89 0
Si2 Si4+ 4 i 0.0046(3) 0.1644(2) 0.6099(2) . 0.11 0
Al2 Al3+ 4 i 0.0004(3) 0.8153(2) 0.1177(2) . 0.89 0
Si3 Si4+ 4 i 0.0004(3) 0.8153(2) 0.1177(2) . 0.11 0
Si4 Si4+ 4 i 0.0042(3) 0.8171(2) 0.6132(2) . 1. 0
Al3 Al3+ 4 i 0.6874(3) 0.1109(2) 0.1592(2) . 0.89 0
Si5 Si4+ 4 i 0.6874(3) 0.1109(2) 0.1592(2) . 0.11 0
Si6 Si4+ 4 i 0.6805(3) 0.1069(2) 0.6583(2) . 1. 0
Si7 Si4+ 4 i 0.6786(3) 0.8805(2) 0.1798(2) . 1. 0
Al4 Al3+ 4 i 0.6821(3) 0.8766(2) 0.6779(2) . 0.89 0
Si8 Si4+ 4 i 0.6821(3) 0.8766(2) 0.6779(2) . 0.11 0
O1 O2- 4 i 0.0073(7) 0.1276(4) -.0090(4) . 1. 0
O2 O2- 4 i 0.0003(7) 0.1280(4) 0.4896(4) . 1. 0
O3 O2- 4 i 0.5765(7) 0.9905(4) 0.1390(4) . 1. 0
O4 O2- 4 i 0.5783(6) 0.9912(4) 0.6389(4) . 1. 0
O5 O2- 4 i 0.8187(7) 0.1021(4) 0.0936(4) . 1. 0
O6 O2- 4 i 0.8043(8) 0.1023(4) 0.5933(4) . 1. 0
O7 O2- 4 i 0.8109(7) 0.8535(4) 0.1239(5) . 1. 0
O8 O2- 4 i 0.8192(7) 0.8550(4) 0.6194(5) . 1. 0
O9 O2- 4 i 0.0125(7) 0.2841(4) 0.1373(4) . 1. 0
O10 O2- 4 i 0.0158(7) 0.2920(4) 0.6454(4) . 1. 0
O11 O2- 4 i 0.0106(7) 0.6822(4) 0.1080(4) . 1. 0
O12 O2- 4 i 0.0109(7) 0.6905(4) 0.6034(4) . 1. 0
O13 O2- 4 i 0.1933(7) 0.1073(4) 0.1883(4) . 1. 0
O14 O2- 4 i 0.2005(3) 0.1048(4) 0.6917(4) . 1. 0
O15 O2- 4 i 0.1918(8) 0.8677(4) 0.2166(4) . 1. 0
O16 O2- 4 i 0.1891(8) 0.8634(4) 0.7125(4) . 1. 0
loop_
_atom_site_aniso_label
_atom_site_aniso_type_symbol
_atom_site_aniso_beta_11
_atom_site_aniso_beta_22
_atom_site_aniso_beta_33
_atom_site_aniso_beta_12
_atom_site_aniso_beta_13
_atom_site_aniso_beta_23
Ca1 Ca2+ 0.0033(8) 0.0086(8) 0.0036(5) -.0026(5) 0.0018(4) 0.0034(5)
Na1 Na1+ 0.0033(8) 0.0086(8) 0.0036(5) -.0026(4) 0.0018(4) 0.0034(5)
Ca2 Ca2+ 0.0039(5) 0.0036(3) 0.0022(3) 0.0015(3) 0.0006(3) -.0009(2)
Na2 Na1+ 0.0039(5) 0.0036(3) 0.0022(3) 0.0015(3) 0.0006(3) -.0009(2)
Ca3 Ca2+ 0.0052(6) 0.0028(3) 0.0024(3) 0.0009(3) 0.0008(3) -.0004(2)
Na3 Na1+ 0.0052(6) 0.0028(3) 0.0024(3) 0.0009(3) 0.0008(3) -.0004(2)
Ca4 Ca2+ 0.009(1) 0.010(1) 0.0037(7) -.0027(9) 0.0034(7) -.0030(9)
Na4 Na1+ 0.009(1) 0.010(1) 0.0037(7) -.0027(9) 0.0034(7) -.0030(9)
Si1 Si4+ 0.0036(3) 0.0014(1) 0.0011(1) -.0002(2) 0.0008(2) 0.0002(1)
Al1 Al3+ 0.0046(4) 0.0018(1) 0.0011(1) -.0007(2) 0.0011(2) 0.0000(1)
Si2 Si4+ 0.0046(4) 0.0018(1) 0.0011(1) -.0007(2) 0.0011(2) 0.0000(1)
Al2 Al3+ 0.0051(4) 0.0015(1) 0.0012(1) 0.0005(2) 0.0012(2) 0.0004(1)
Si3 Si4+ 0.0051(4) 0.0015(1) 0.0012(1) 0.0005(2) 0.0012(2) 0.0004(1)
Si4 Si4+ 0.0036(3) 0.0019(1) 0.0008(1) 0.0009(2) 0.0006(2) -.0001(1)
Al3 Al3+ 0.0036(4) 0.0013(1) 0.0014(1) 0.0005(2) 0.0006(2) 0.0002(1)
Si5 Si4+ 0.0036(4) 0.0013(1) 0.0014(1) 0.0005(2) 0.0006(2) 0.0002(1)
Si6 Si4+ 0.0034(4) 0.0013(1) 0.0016(1) -.0002(2) 0.0009(2) -.0002(1)
Si7 Si4+ 0.0037(4) 0.0012(1) 0.0016(1) 0.0000(2) 0.0009(2) 0.0001(1)
Al4 Al3+ 0.0041(4) 0.0014(1) 0.0014(1) 0.0005(2) 0.0009(2) 0.0005(1)
Si8 Si4+ 0.0041(4) 0.0014(1) 0.0014(1) 0.0005(2) 0.0009(2) 0.0005(1)
O1 O2- 0.011(1) 0.0026(4) 0.0014(3) 0.0011(5) 0.0024(5) 0.0008(3)
O2 O2- 0.010(1) 0.0032(4) 0.0018(3) 0.0008(5) 0.0024(6) -.0001(3)
O3 O2- 0.006(1) 0.0017(3) 0.0020(3) -.0003(4) 0.0013(5) 0.0000(3)
O4 O2- 0.0037(9) 0.0016(3) 0.0021(3) 0.0007(4) 0.0006(5) 0.0007(3)
O5 O2- 0.0061(9) 0.0020(3) 0.0030(3) -.0002(4) 0.0019(5) 0.0002(3)
O6 O2- 0.0074(9) 0.0026(3) 0.0034(4) -.0010(5) 0.0034(5) -.0006(3)
O7 O2- 0.008(1) 0.0028(4) 0.0051(4) -.0002(5) 0.0037(6) -.0006(3)
O8 O2- 0.008(1) 0.0035(4) 0.0050(4) 0.0014(5) 0.0040(6) -.0001(3)
O9 O2- 0.006(1) 0.0034(3) 0.0022(3) 0.0001(5) 0.0019(5) 0.0007(3)
O10 O2- 0.007(1) 0.0017(3) 0.0027(3) -.0017(4) 0.0015(5) -.0004(3)
O11 O2- 0.007(1) 0.0024(3) 0.0022(3) 0.0011(5) 0.0008(5) -.0002(3)
O12 O2- 0.006(1) 0.0025(3) 0.0018(3) 0.0015(4) 0.0007(5) 0.0001(2)
O13 O2- 0.008(1) 0.0024(3) 0.0028(3) 0.0003(5) 0.0015(5) 0.0002(3)
O14 O2- 0.006(1) 0.0028(3) 0.0009(3) 0.0007(5) -.0007(4) 0.0004(2)
O15 O2- 0.009(1) 0.0025(4) 0.0032(4) 0.0001(5) 0.0000(6) 0.0000(3)
O16 O2- 0.007(1) 0.0034(4) 0.0027(3) 0.0009(5) -.0010(5) -.0003(3)
#End of TTdata_86339-ICSD