
#(C) 2019 by FIZ Karlsruhe - Leibniz Institute for Information Infrastructure.  All rights reserved.
data_86338-ICSD
_database_code_ICSD 86338
_audit_creation_date 1999-11-30
_chemical_name_systematic
'Calcium sodium aluminium silicon oxide (0.86/0.14/1.86/2.14/8)'
_chemical_formula_structural '(Ca0.86 Na0.14) (Al1.86 Si0.14) Si2 O8'
_chemical_formula_sum 'Al1.86 Ca0.86 Na0.14 O8 Si2.14'
_chemical_name_structure_type Feldspar#-(TC,I1-,i28)-Bytownite
_chemical_name_mineral Unnamed_Feldspar
_exptl_crystal_density_diffrn 2.74
_publ_section_title

;
Structural variation associated with compositional variation and
order-disorder behavior in anorthite-rich feldspars
;
loop_
_citation_id
_citation_journal_full
_citation_year
_citation_journal_volume
_citation_page_first
_citation_page_last
_citation_journal_id_ASTM
primary 'American Mineralogist' 1990 75 150 162 AMMIAY
loop_
_publ_author_name
'Angel, R.J.'
'Carpenter, M.A.'
'Finger, L.W.'
_cell_length_a 8.1808(4)
_cell_length_b 12.8740(7)
_cell_length_c 14.1895(8)
_cell_angle_alpha 93.378(5)
_cell_angle_beta 115.926(3)
_cell_angle_gamma 90.837(4)
_cell_volume 1340.34
_cell_formula_units_Z 8
_symmetry_space_group_name_H-M 'I -1'
_symmetry_Int_Tables_number 2
_refine_ls_R_factor_all 0.053
loop_
_symmetry_equiv_pos_site_id
_symmetry_equiv_pos_as_xyz
1 '-x, -y, -z'
2 'x, y, z'
3 '-x+1/2, -y+1/2, -z+1/2'
4 'x+1/2, y+1/2, z+1/2'
loop_
_atom_type_symbol
_atom_type_oxidation_number
Ca2+ 2
Na1+ 1
Ca2+ 2
Na1+ 1
Ca2+ 2
Na1+ 1
Ca2+ 2
Na1+ 1
Si4+ 4
Al3+ 3
Si4+ 4
Al3+ 3
Si4+ 4
Al3+ 3
Si4+ 4
Al3+ 3
Si4+ 4
O2- -2
loop_
_atom_site_label
_atom_site_type_symbol
_atom_site_symmetry_multiplicity
_atom_site_Wyckoff_symbol
_atom_site_fract_x
_atom_site_fract_y
_atom_site_fract_z
_atom_site_B_iso_or_equiv
_atom_site_occupancy
_atom_site_attached_hydrogens
Ca1 Ca2+ 4 i 0.2677(6) 0.9828(7) 0.0857(5) . 0.361(10) 0
Na1 Na1+ 4 i 0.2677(6) 0.9828(7) 0.0857(5) . 0.069(1) 0
Ca2 Ca2+ 4 i 0.2697(6) 0.0299(6) 0.5475(7) . 0.581(4) 0
Na2 Na1+ 4 i 0.2697(6) 0.0299(6) 0.5475(7) . 0.072(1) 0
Ca3 Ca2+ 4 i 0.7743(4) 0.5341(3) 0.5451(3) . 0.479(10) 0
Na3 Na1+ 4 i 0.7743(4) 0.5341(3) 0.5451(3) . 0.091(1) 0
Ca4 Ca2+ 4 i 0.763(1) 0.495(3) 0.078(2) . 0.309(4) 0
Na4 Na1+ 4 i 0.763(1) 0.495(3) 0.078(2) . 0.038(1) 0
Si1 Si4+ 4 i 0.0071(2) 0.1597(1) 0.1047(1) . 1. 0
Al1 Al3+ 4 i 0.0040(3) 0.1640(1) 0.6106(1) . 0.93 0
Si2 Si4+ 4 i 0.0040(3) 0.1640(1) 0.6106(1) . 0.07 0
Al2 Al3+ 4 i 0.0003(3) 0.8153(1) 0.1183(2) . 0.93 0
Si3 Si4+ 4 i 0.0003(3) 0.8153(1) 0.1183(2) . 0.07 0
Si4 Si4+ 4 i 0.0040(2) 0.8171(1) 0.6126(1) . 1. 0
Al3 Al3+ 4 i 0.6875(3) 0.1114(1) 0.1592(1) . 0.93 0
Si5 Si4+ 4 i 0.6875(3) 0.1114(1) 0.1592(1) . 0.07 0
Si6 Si4+ 4 i 0.6793(3) 0.1065(1) 0.6583(1) . 1. 0
Si7 Si4+ 4 i 0.6778(3) 0.8810(1) 0.1808(1) . 1. 0
Al4 Al3+ 4 i 0.6830(3) 0.8758(1) 0.6775(1) . 0.93 0
Si8 Si4+ 4 i 0.6830(3) 0.8758(1) 0.6775(1) . 0.07 0
O1 O2- 4 i 0.0073(6) 0.1278(3) -.0084(3) . 1. 0
O2 O2- 4 i -.0010(7) 0.1273(3) 0.4893(3) . 1. 0
O3 O2- 4 i 0.5776(6) -.0098(3) 0.1393(3) . 1. 0
O4 O2- 4 i 0.5749(6) -.0088(3) 0.6383(3) . 1. 0
O5 O2- 4 i 0.8185(7) 0.1018(3) 0.0919(4) . 1. 0
O6 O2- 4 i 0.8023(7) 0.1030(3) 0.5934(4) . 1. 0
O7 O2- 4 i 0.8077(7) 0.8549(4) 0.1247(4) . 1. 0
O8 O2- 4 i 0.8211(7) 0.8548(4) 0.6175(4) . 1. 0
O9 O2- 4 i 0.0142(7) 0.2825(3) 0.1381(4) . 1. 0
O10 O2- 4 i 0.0157(7) 0.2930(3) 0.6473(4) . 1. 0
O11 O2- 4 i 0.0089(6) 0.6816(3) 0.1076(4) . 1. 0
O12 O2- 4 i 0.0084(7) 0.6903(4) 0.6014(4) . 1. 0
O13 O2- 4 i 0.1928(6) 0.1072(3) 0.1881(3) . 1. 0
O14 O2- 4 i 0.2017(7) 0.1044(4) 0.6923(4) . 1. 0
O15 O2- 4 i 0.1966(7) 0.8676(4) 0.2190(4) . 1. 0
O16 O2- 4 i 0.1862(7) 0.8629(4) 0.7118(4) . 1. 0
loop_
_atom_site_aniso_label
_atom_site_aniso_type_symbol
_atom_site_aniso_beta_11
_atom_site_aniso_beta_22
_atom_site_aniso_beta_33
_atom_site_aniso_beta_12
_atom_site_aniso_beta_13
_atom_site_aniso_beta_23
Ca1 Ca2+ 0.0030(7) 0.0076(6) 0.0030(3) -.0014(4) 0.0014(4) 0.0014(4)
Na1 Na1+ 0.0030(7) 0.0076(6) 0.0030(3) -.0014(4) 0.0014(4) 0.0014(3)
Ca2 Ca2+ 0.0032(5) 0.0027(3) 0.0022(3) 0.0014(2) 0.0001(3) -.0004(2)
Na2 Na1+ 0.0032(5) 0.0027(3) 0.0022(3) 0.0014(2) 0.0001(3) -.0004(2)
Ca3 Ca2+ 0.0049(6) 0.0029(2) 0.0022(2) 0.0010(3) 0.0004(3) -.0008(2)
Na3 Na1+ 0.0049(6) 0.0029(2) 0.0022(2) 0.0010(3) 0.0004(3) -.0008(2)
Ca4 Ca2+ 0.006(1) 0.007(1) 0.0039(9) -.0014(7) 0.0018(7) -.003(1)
Na4 Na1+ 0.006(1) 0.007(1) 0.0039(9) -.0014(7) 0.0018(7) -.003(1)
Si1 Si4+ 0.0033(3) 0.0013(1) 0.0011(1) -.0002(1) 0.0008(2) 0.0001(1)
Al1 Al3+ 0.0028(4) 0.0012(1) 0.0008(1) -.0004(1) 0.0006(2) 0.0000(1)
Si2 Si4+ 0.0028(4) 0.0012(1) 0.0008(1) -.0004(1) 0.0006(2) 0.0000(1)
Al2 Al3+ 0.0036(4) 0.0014(1) 0.0010(1) 0.0007(2) 0.0009(2) 0.0001(1)
Si3 Si4+ 0.0036(4) 0.0014(1) 0.0010(1) 0.0007(2) 0.0009(2) 0.0001(1)
Si4 Si4+ 0.0034(4) 0.0014(1) 0.0010(1) 0.0008(1) 0.0006(2) 0.0001(1)
Al3 Al3+ 0.0028(4) 0.0010(1) 0.0014(1) 0.0001(1) 0.0004(2) 0.0001(1)
Si5 Si4+ 0.0028(4) 0.0010(1) 0.0014(1) 0.0001(1) 0.0004(2) 0.0001(1)
Si6 Si4+ 0.0028(3) 0.0011(1) 0.0016(1) 0.0002(1) 0.0007(2) 0.0000(1)
Si7 Si4+ 0.0028(3) 0.0010(1) 0.0015(1) 0.0002(1) 0.0006(2) 0.0001(1)
Al4 Al3+ 0.0029(4) 0.0010(1) 0.0013(1) 0.0004(1) 0.0008(2) 0.0003(1)
Si8 Si4+ 0.0029(4) 0.0010(1) 0.0013(1) 0.0004(1) 0.0008(2) 0.0003(1)
O1 O2- 0.009(1) 0.0024(2) 0.0013(3) 0.0009(4) 0.0019(5) 0.0004(2)
O2 O2- 0.011(1) 0.0023(3) 0.0014(3) 0.0011(5) 0.0022(5) 0.0004(2)
O3 O2- 0.0035(9) 0.0013(3) 0.0020(3) 0.0002(4) 0.0007(4) 0.0003(2)
O4 O2- 0.0028(9) 0.0013(3) 0.0024(3) 0.0005(4) 0.0005(4) 0.0005(2)
O5 O2- 0.0056(9) 0.0017(3) 0.0033(4) -.0005(4) 0.0024(5) -.0007(2)
O6 O2- 0.0057(9) 0.0019(3) 0.0037(3) -.0009(4) 0.0027(5) -.0001(3)
O7 O2- 0.007(1) 0.0023(3) 0.0059(4) 0.0002(4) 0.0046(6) -.0009(3)
O8 O2- 0.0048(9) 0.0028(3) 0.0054(4) 0.0009(4) 0.0036(5) -.0002(3)
O9 O2- 0.0058(9) 0.0020(3) 0.0025(3) -.0003(4) 0.0017(5) 0.0003(2)
O10 O2- 0.0056(9) 0.0019(3) 0.0029(3) -.0007(4) 0.0018(5) -.0001(2)
O11 O2- 0.0047(9) 0.0019(3) 0.0022(3) 0.0013(4) 0.0006(4) 0.0000(2)
O12 O2- 0.0056(9) 0.0020(3) 0.0021(3) 0.0008(4) 0.0007(4) -.0003(2)
O13 O2- 0.0038(9) 0.0021(2) 0.0018(3) 0.0006(4) -.0003(4) 0.0001(2)
O14 O2- 0.007(1) 0.0022(3) 0.0022(3) 0.0005(4) 0.0001(5) 0.0003(2)
O15 O2- 0.0045(9) 0.0023(3) 0.0032(3) 0.0003(4) -.0006(5) -.0010(3)
O16 O2- 0.008(1) 0.0027(3) 0.0027(3) 0.0010(5) -.0012(5) -.0009(3)
#End of TTdata_86338-ICSD