
#(C) 2019 by FIZ Karlsruhe - Leibniz Institute for Information Infrastructure.  All rights reserved.
data_86438-ICSD
_database_code_ICSD 86438
_audit_creation_date 1999-11-30
_audit_update_record 2006-04-01
_chemical_name_systematic
'Heptasodium triiron(III) tetrakis(diphosphate(V)) - alpha'
_chemical_formula_structural 'Na7 Fe3 (P2 O7)4'
_chemical_formula_sum 'Fe3 Na7 O28 P8'
_exptl_crystal_density_diffrn 3.1
_cell_measurement_temperature 294.
_publ_section_title

;
Crystal structure of the sodium ion conductor alpha-(Na7 Fe3 (P2 O7)4) :
evidence for a long-range ordering of the Na(+) ions
;
loop_
_citation_id
_citation_journal_full
_citation_year
_citation_journal_volume
_citation_page_first
_citation_page_last
_citation_journal_id_ASTM
primary 'Journal of Solid State Chemistry' 1991 95 156 167 JSSCBI
loop_
_publ_author_name
'Masquelier, C.'
'd'Yvoire, F.'
'Rodier, N.'
_cell_length_a 28.519(3)
_cell_length_b 8.333(2)
_cell_length_c 29.834(5)
_cell_angle_alpha 90.
_cell_angle_beta 111.88(1)
_cell_angle_gamma 90.
_cell_volume 6579.3
_cell_formula_units_Z 12
_symmetry_space_group_name_H-M 'C 1 2/c 1'
_symmetry_Int_Tables_number 15
_refine_ls_R_factor_all 0.039
loop_
_symmetry_equiv_pos_site_id
_symmetry_equiv_pos_as_xyz
1 'x, -y, z+1/2'
2 '-x, -y, -z'
3 '-x, y, -z+1/2'
4 'x, y, z'
5 'x+1/2, -y+1/2, z+1/2'
6 '-x+1/2, -y+1/2, -z'
7 '-x+1/2, y+1/2, -z+1/2'
8 'x+1/2, y+1/2, z'
loop_
_atom_type_symbol
_atom_type_oxidation_number
Fe3+ 3
P5+ 5
O2- -2
Na1+ 1
loop_
_atom_site_label
_atom_site_type_symbol
_atom_site_symmetry_multiplicity
_atom_site_Wyckoff_symbol
_atom_site_fract_x
_atom_site_fract_y
_atom_site_fract_z
_atom_site_B_iso_or_equiv
_atom_site_occupancy
_atom_site_attached_hydrogens
Fe1 Fe3+ 4 e 0 0.3512(1) 0.25 0.40(2) 1. 0
Fe2 Fe3+ 8 f 0.33278(3) 0.34345(8) 0.25160(3) 0.43(1) 1. 0
Fe3 Fe3+ 8 f 0.16774(3) 0.2255(1) 0.43589(2) 0.33(1) 1. 0
Fe4 Fe3+ 8 f 0.50136(3) 0.2290(1) 0.43838(3) 0.40(1) 1. 0
Fe5 Fe3+ 8 f 0.83526(3) 0.2251(1) 0.43809(3) 0.38(1) 1. 0
P1 P5+ 8 f 0.09886(5) 0.5243(2) 0.24510(5) 0.41(2) 1. 0
P2 P5+ 8 f 0.43115(5) 0.5315(2) 0.24738(5) 0.48(2) 1. 0
P3 P5+ 8 f 0.76584(5) 0.5179(2) 0.24663(5) 0.49(2) 1. 0
P4 P5+ 8 f 0.10480(5) 0.4038(2) 0.33639(5) 0.53(2) 1. 0
P5 P5+ 8 f 0.43736(5) 0.3991(2) 0.33770(5) 0.43(2) 1. 0
P6 P5+ 8 f 0.76880(5) 0.3938(2) 0.33651(5) 0.46(2) 1. 0
P7 P5+ 8 f 0.90077(5) 0.9124(2) 0.44445(5) 0.44(2) 1. 0
P8 P5+ 8 f 0.23441(5) 0.9136(2) 0.44291(5) 0.44(2) 1. 0
P9 P5+ 8 f 0.56762(5) 0.9130(2) 0.44411(5) 0.33(2) 1. 0
P10 P5+ 8 f 0.23268(5) 0.0403(2) 0.53351(5) 0.36(2) 1. 0
P11 P5+ 8 f 0.56710(5) 0.0394(2) 0.53564(5) 0.33(2) 1. 0
P12 P5+ 8 f 0.90031(5) 0.0408(2) 0.53573(5) 0.38(2) 1. 0
O1 O2- 8 f 0.1083(1) 0.4610(5) 0.2023(1) 0.80(8) 1. 0
O2 O2- 8 f 0.4426(1) 0.4609(5) 0.2063(1) 0.95(8) 1. 0
O3 O2- 8 f 0.7768(1) 0.4506(5) 0.2054(1) 0.85(8) 1. 0
O4 O2- 8 f 0.1242(1) 0.6847(5) 0.2654(1) 0.76(8) 1. 0
O5 O2- 8 f 0.4586(1) 0.6876(5) 0.2670(1) 0.69(7) 1. 0
O6 O2- 8 f 0.7929(1) 0.6745(5) 0.2674(1) 0.79(8) 1. 0
O7 O2- 8 f 0.0418(1) 0.5308(5) 0.2355(1) 0.58(7) 1. 0
O8 O2- 8 f 0.3748(1) 0.5346(5) 0.2375(1) 0.89(8) 1. 0
O9 O2- 8 f 0.7092(1) 0.5291(5) 0.2382(1) 0.76(8) 1. 0
O10 O2- 8 f 0.1206(1) 0.3991(5) 0.2895(1) 0.57(7) 1. 0
O11 O2- 8 f 0.4544(1) 0.4035(1) 0.2916(1) 0.53(7) 1. 0
O12 O2- 8 f 0.7873(1) 0.3911(5) 0.2915(1) 0.59(7) 1. 0
O13 O2- 8 f 0.0483(1) 0.3647(5) 0.3186(1) 0.68(7) 1. 0
O14 O2- 8 f 0.3806(1) 0.3611(5) 0.3185(1) 0.69(7) 1. 0
O15 O2- 8 f 0.7123(1) 0.3480(5) 0.3170(1) 0.84(8) 1. 0
O16 O2- 8 f 0.1192(1) 0.5637(5) 0.3594(1) 0.95(8) 1. 0
O17 O2- 8 f 0.4486(1) 0.5602(5) 0.3607(1) 0.89(8) 1. 0
O18 O2- 8 f 0.7781(1) 0.5579(5) 0.3577(1) 0.99(8) 1. 0
O19 O2- 8 f 0.1348(1) 0.2622(3) 0.3655(1) 0.92(8) 1. 0
O20 O2- 8 f 0.4667(1) 0.2575(5) 0.3671(1) 0.87(8) 1. 0
O21 O2- 8 f 0.7997(1) 0.2572(5) 0.3671(1) 0.72(7) 1. 0
O22 O2- 8 f 0.2188(1) 0.0838(5) 0.4249(1) 0.75(8) 1. 0
O23 O2- 8 f 0.5516(1) 0.0839(4) 0.4259(1) 0.66(7) 1. 0
O24 O2- 8 f 0.8858(1) 0.0834(4) 0.4261(1) 0.59(6) 1. 0
O25 O2- 8 f 0.2903(1) 0.8858(5) 0.4532(1) 0.71(7) 1. 0
O26 O2- 8 f 0.6230(1) 0.8845(5) 0.4524(1) 0.78(7) 1. 0
O27 O2- 8 f 0.9572(1) 0.8857(5) 0.4548(1) 0.56(7) 1. 0
O28 O2- 8 f 0.2000(1) 0.7860(5) 0.4125(1) 0.78(5) 1. 0
O29 O2- 8 f 0.5323(1) 0.7902(5) 0.4131(1) 0.78(7) 1. 0
O30 O2- 8 f 0.8673(1) 0.7851(5) 0.4151(1) 0.73(7) 1. 0
O31 O2- 8 f 0.2305(1) 0.9044(4) 0.4951(1) 0.57(7) 1. 0
O32 O2- 8 f 0.5652(1) 0.9049(5) 0.4971(1) 0.66(7) 1. 0
O33 O2- 8 f 0.8970(1) 0.9061(5) 0.4971(1) 0.59(7) 1. 0
O34 O2- 8 f 0.2007(1) 0.1808(5) 0.5064(1) 0.74(7) 1. 0
O35 O2- 8 f 0.5353(1) 0.1790(5) 0.5086(1) 0.46(7) 1. 0
O36 O2- 8 f 0.8686(1) 0.1834(5) 0.5093(1) 0.53(7) 1. 0
O37 O2- 8 f 0.2875(1) 0.0841(5) 0.5603(1) 0.78(8) 1. 0
O38 O2- 8 f 0.6221(1) 0.0838(4) 0.5619(1) 0.54(7) 1. 0
O39 O2- 8 f 0.9555(1) 0.0839(5) 0.5610(1) 0.99(7) 1. 0
O40 O2- 8 f 0.2121(1) 0.9602(5) 0.5679(1) 0.69(7) 1. 0
O41 O2- 8 f 0.5462(1) 0.9594(5) 0.5701(1) 0.57(7) 1. 0
O42 O2- 8 f 0.8804(1) 0.9625(5) 0.5712(1) 0.54(7) 1. 0
Na1 Na1+ 8 f 0.15575(9) 0.6303(3) 0.44497(8) 1.43(5) 1. 0
Na2 Na1+ 8 f 0.48657(8) 0.6329(3) 0.44315(8) 1.15(3) 1. 0
Na3 Na1+ 8 f 0.81635(9) 0.6398(3) 0.43968(8) 1.47(5) 1. 0
Na4 Na1+ 8 f 0.21536(9) 0.5893(3) 0.35965(8) 1.51(5) 1. 0
Na5 Na1+ 8 f 0.53623(9) 0.6072(3) 0.35491(8) 1.62(5) 1. 0
Na6 Na1+ 8 f 0.86107(9) 0.6232(3) 0.35227(9) 1.75(5) 1. 0
Na7 Na1+ 8 f 0.1972(1) 0.1995(4) 0.3088(1) 2.63(7) 1. 0
Na8 Na1+ 4 e 0.5 0.2512(4) 0.25 1.50(7) 1. 0
Na9 Na1+ 8 f 0.8591(1) 0.1648(5) 0.3274(1) 5.3(1) 1. 0
Na10 Na1+ 8 f 0.1308(1) 0.8362(4) 0.3438(1) 2.40(6) 1. 0
Na11 Na1+ 8 f 0.4805(1) 0.9705(4) 0.35204(9) 2.07(6) 1. 0
#End of TTdata_86438-ICSD