
#(C) 2019 by FIZ Karlsruhe - Leibniz Institute for Information Infrastructure.  All rights reserved.
data_86437-ICSD
_database_code_ICSD 86437
_audit_creation_date 1999-11-30
_audit_update_record 2006-04-01
_chemical_name_systematic
'Heptasodium triiron(III) tetrakis(diphosphate(V)) - alpha'
_chemical_formula_structural 'Na7 Fe3 (P2 O7)4'
_chemical_formula_sum 'Fe3 Na7 O28 P8'
_exptl_crystal_density_diffrn 3.1
_cell_measurement_temperature 294.
_publ_section_title

;
Crystal structure of the sodium ion conductor alpha-(Na7 Fe3 (P2 O7)4) :
evidence for a long-range ordering of the Na(+) ions
;
loop_
_citation_id
_citation_journal_full
_citation_year
_citation_journal_volume
_citation_page_first
_citation_page_last
_citation_journal_id_ASTM
primary 'Journal of Solid State Chemistry' 1991 95 156 167 JSSCBI
loop_
_publ_author_name
'Masquelier, C.'
'd'Yvoire, F.'
'Rodier, N.'
_cell_length_a 9.506(3)
_cell_length_b 8.333(2)
_cell_length_c 27.7320(50)
_cell_angle_alpha 90.
_cell_angle_beta 93.33(3)
_cell_angle_gamma 90.
_cell_volume 2193.04
_cell_formula_units_Z 4
_symmetry_space_group_name_H-M 'C 1 2/c 1'
_symmetry_Int_Tables_number 15
_refine_ls_R_factor_all 0.03
loop_
_symmetry_equiv_pos_site_id
_symmetry_equiv_pos_as_xyz
1 'x, -y, z+1/2'
2 '-x, -y, -z'
3 '-x, y, -z+1/2'
4 'x, y, z'
5 'x+1/2, -y+1/2, z+1/2'
6 '-x+1/2, -y+1/2, -z'
7 '-x+1/2, y+1/2, -z+1/2'
8 'x+1/2, y+1/2, z'
loop_
_atom_type_symbol
_atom_type_oxidation_number
P5+ 5
Fe3+ 3
Na1+ 1
O2- -2
loop_
_atom_site_label
_atom_site_type_symbol
_atom_site_symmetry_multiplicity
_atom_site_Wyckoff_symbol
_atom_site_fract_x
_atom_site_fract_y
_atom_site_fract_z
_atom_site_B_iso_or_equiv
_atom_site_occupancy
_atom_site_attached_hydrogens
P1 P5+ 8 f 0.29949(8) 0.27448(9) 0.24637(3) 0.57(1) 1. 0
P2 P5+ 8 f 0.22403(8) 0.14893(9) 0.33686(3) 0.54(1) 1. 0
P3 P5+ 8 f 0.50899(7) 0.66301(9) 0.44384(3) 0.42(1) 1. 0
P4 P5+ 8 f 0.41514(7) 0.79013(9) 0.53496(3) 0.39(1) 1. 0
Fe1 Fe3+ 4 e 0 0.09607(7) 0.25 0.51(1) 1. 0
Fe2 Fe3+ 8 f 0.31691(4) 0.97657(5) 0.43746(1) 0.41(1) 1. 0
Na1 Na1+ 8 f 0.2663(2) 0.3841(2) 0.44268(5) 1.51(2) 1. 0
Na2 Na1+ 8 f 0.5364(5) 0.3402(5) 0.3600(2) 1.36(7) 0.33 0
Na3 Na1+ 8 f 0.4923(3) 0.3647(3) 0.35329(8) 2.08(4) 0.66 0
Na4 Na1+ 4 e 0.5 0.0017(7) 0.25 1.70(9) 0.36 0
Na5 Na1+ 8 f 0.5264(4) 0.9463(4) 0.3123(2) 3.32(8) 0.47 0
Na6 Na1+ 8 f 0.489(1) 0.894(1) 0.3330(3) 2.1(2) 0.17 0
Na7 Na1+ 8 f 0.2986(5) 0.5854(6) 0.3436(2) 2.18(8) 0.33 0
Na8 Na1+ 8 f 0.3407(5) 0.7202(6) 0.3520(2) 2.24(8) 0.37 0
O1 O2- 8 f 0.3731(2) 0.2076(3) 0.20465(8) 0.98(4) 1. 0
O2 O2- 8 f 0.3591(2) 0.4323(3) 0.26661(8) 0.84(4) 1. 0
O3 O2- 8 f 0.1387(2) 0.2815(3) 0.23709(8) 0.79(4) 1. 0
O4 O2- 8 f 0.3214(2) 0.1480(3) 0.29086(7) 0.64(3) 1. 0
O5 O2- 8 f 0.0732(2) 0.1080(3) 0.31805(8) 0.86(4) 1. 0
O6 O2- 8 f 0.2365(3) 0.3107(3) 0.35933(8) 1.17(4) 1. 0
O7 O2- 8 f 0.2846(2) 0.0089(3) 0.36660(8) 0.85(4) 1. 0
O8 O2- 8 f 0.4806(2) 0.8337(3) 0.42564(8) 0.67(3) 1. 0
O9 O2- 8 f 0.6669(2) 0.6354(3) 0.45349(8) 0.69(3) 1. 0
O10 O2- 8 f 0.4360(2) 0.5371(3) 0.41364(8) 0.79(4) 1. 0
O11 O2- 8 f 0.4462(2) 0.6551(3) 0.49645(7) 0.63(3) 1. 0
O12 O2- 8 f 0.3466(2) 0.9312(3) 0.50809(7) 0.62(3) 1. 0
O13 O2- 8 f 0.5543(2) 0.8338(3) 0.56108(8) 0.77(4) 1. 0
O14 O2- 8 f 0.3192(2) 0.7110(3) 0.56981(8) 0.64(3) 1. 0
#End of TTdata_86437-ICSD