
#(C) 2018 by FIZ Karlsruhe - Leibniz Institute for Information Infrastructure.  All rights reserved.
data_86457-ICSD
_database_code_ICSD 86457
_audit_creation_date 1999-11-30
_audit_update_record 2006-04-01
_chemical_name_systematic 'Trilithium discandium tris(phosphate(V)) - alpha'
_chemical_formula_structural 'Li3 Sc2 (P O4)3'
_chemical_formula_sum 'Li3 O12 P3 Sc2'
_chemical_name_structure_type Li3Fe2(PO4)3(P21/n)
_exptl_crystal_density_diffrn 2.75
_publ_section_title

;
Neutron-diffraction refinement of atomic structure of alpha- and gamma-phases
of crystals of Li3 Sc2 (P O4)3 at 293 and 573 K
;
loop_
_citation_id
_citation_journal_full
_citation_year
_citation_journal_volume
_citation_page_first
_citation_page_last
_citation_journal_id_ASTM
primary Kristallografiya 1991 36 1431 1440 KRISAJ
loop_
_publ_author_name
'Maksimov, B.A.'
'Muradyan, L.A.'
'Vydanov, N.N.'
'Sarin, V.A.'
'Bykov, A.B.'
'Timofeeva, V.A.'
'Simonov, V.I.'
_cell_length_a 8.847
_cell_length_b 12.27
_cell_length_c 8.801
_cell_angle_alpha 90.
_cell_angle_beta 90.
_cell_angle_gamma 90.02(2)
_cell_volume 955.37
_cell_formula_units_Z 4
_symmetry_space_group_name_H-M 'P 1 1 21/n'
_symmetry_Int_Tables_number 14
_refine_ls_R_factor_all 0.037
loop_
_symmetry_equiv_pos_site_id
_symmetry_equiv_pos_as_xyz
1 'x+1/2, y+1/2, -z+1/2'
2 '-x, -y, -z'
3 '-x+1/2, -y+1/2, z+1/2'
4 'x, y, z'
loop_
_atom_type_symbol
_atom_type_oxidation_number
Sc3+ 3
P5+ 5
O2- -2
Li1+ 1
loop_
_atom_site_label
_atom_site_type_symbol
_atom_site_symmetry_multiplicity
_atom_site_Wyckoff_symbol
_atom_site_fract_x
_atom_site_fract_y
_atom_site_fract_z
_atom_site_B_iso_or_equiv
_atom_site_occupancy
_atom_site_attached_hydrogens
Sc1 Sc3+ 4 e 0.2454(1) 0.1080(1) 0.4529(1) 0.59(2) 1. 0
Sc2 Sc3+ 4 e 0.7521(1) 0.3935(1) 0.4666(1) 0.61(2) 1. 0
P1 P5+ 4 e 0.1030(2) 0.1525(2) 0.0963(2) 0.38(3) 1. 0
P2 P5+ 4 e 0.6020(2) 0.3471(3) 0.1130(2) 0.41(3) 1. 0
P3 P5+ 4 e 0.0384(2) 0.4896(2) 0.2454(1) 0.34(3) 1. 0
O1 O2- 4 e 0.4308(3) 0.3357(4) 0.0950(3) 0.83(4) 1. 0
O2 O2- 4 e 0.9295(3) 0.1635(4) 0.1003(4) 0.85(7) 1. 0
O3 O2- 4 e 0.3420(4) 0.2688(4) 0.4731(3) 0.86(7) 1. 0
O4 O2- 4 e 0.8193(4) 0.2231(3) 0.4904(4) 0.68(8) 1. 0
O5 O2- 4 e 0.1540(4) 0.0384(4) 0.0596(4) 1.07(7) 1. 0
O6 O2- 4 e 0.6509(4) 0.4645(4) 0.0908(5) 0.88(7) 1. 0
O7 O2- 4 e 0.4572(4) 0.0690(4) 0.3628(4) 0.74(7) 1. 0
O8 O2- 4 e 0.9276(5) 0.4057(4) 0.3100(4) 0.85(6) 1. 0
O9 O2- 4 e 0.1623(4) 0.4274(4) 0.1632(4) 0.79(7) 1. 0
O10 O2- 4 e 0.6099(4) 0.0597(4) 0.1316(4) 1.2(1) 1. 0
O11 O2- 4 e 0.1585(4) 0.1879(4) 0.2549(4) 0.73(7) 1. 0
O12 O2- 4 e 0.6453(4) 0.3096(4) 0.2743(4) 0.71(7) 1. 0
Li1 Li1+ 4 e 0.290(2) 0.323(1) 0.271(1) 1.2(6) 1. 0
Li2 Li1+ 4 e 0.582(5) 0.195(3) 0.407(5) 2.0(5) 1. 0
Li3 Li1+ 4 e 0.922(4) 0.246(4) 0.294(4) 2.1(4) 1. 0
#End of TTdata_86457-ICSD