
#(C) 2019 by FIZ Karlsruhe - Leibniz Institute for Information Infrastructure.  All rights reserved.
data_86460-ICSD
_database_code_ICSD 86460
_audit_creation_date 1999-11-30
_chemical_name_systematic
'Sodium iron(III) phosphorus oxide fluoride (4.7/1/2/8.7/0.3)'
_chemical_formula_structural 'Na4.695 Fe P2 O8.695 F0.305'
_chemical_formula_sum 'F0.305 Fe1 Na4.695 O8.695 P2'
_exptl_crystal_density_diffrn 3.
_publ_section_title
'X-ray study of the acentric modification of Na4+x Fe P2 O8+x F1-x'
loop_
_citation_id
_citation_journal_full
_citation_year
_citation_journal_volume
_citation_page_first
_citation_page_last
_citation_journal_id_ASTM
primary Kristallografiya 1991 36 622 627 KRISAJ
loop_
_publ_author_name
'Klokova, N.E.'
'Andrianov, V.I.'
'Red'ko, S.V. (Redko, S.V.)'
'Popov, A.N.'
'Maksimov, B.A.'
_cell_length_a 15.523(1)
_cell_length_b 14.836(1)
_cell_length_c 7.118(1)
_cell_angle_alpha 90.
_cell_angle_beta 90.
_cell_angle_gamma 90.
_cell_volume 1639.27
_cell_formula_units_Z 8
_symmetry_space_group_name_H-M 'I 2 c m'
_symmetry_Int_Tables_number 46
_refine_ls_R_factor_all 0.061
loop_
_symmetry_equiv_pos_site_id
_symmetry_equiv_pos_as_xyz
1 'x, -y, z+1/2'
2 'x, y, -z+1/2'
3 'x, -y, -z'
4 'x, y, z'
5 'x+1/2, -y+1/2, z'
6 'x+1/2, y+1/2, -z'
7 'x+1/2, -y+1/2, -z+1/2'
8 'x+1/2, y+1/2, z+1/2'
loop_
_atom_type_symbol
_atom_type_oxidation_number
Fe3+ 3
P5+ 5
O2- -2
F1- -1
O2- -2
F1- -1
O2- -2
Na1+ 1
loop_
_atom_site_label
_atom_site_type_symbol
_atom_site_symmetry_multiplicity
_atom_site_Wyckoff_symbol
_atom_site_fract_x
_atom_site_fract_y
_atom_site_fract_z
_atom_site_B_iso_or_equiv
_atom_site_occupancy
_atom_site_attached_hydrogens
Fe1 Fe3+ 8 c 0.25 0.2495(1) 0.0019(2) 2.60(1) 1. 0
P1 P5+ 4 b 0.1169(2) 0.1215(2) 0.75 1.58(1) 1. 0
P2 P5+ 4 b 0.3815(2) 0.3786(2) 0.25 1.90(1) 1. 0
P3 P5+ 4 b 0.1201(2) 0.3788(2) 0.25 2.28(1) 1. 0
P4 P5+ 4 b 0.3799(2) 0.1208(2) 0.75 1.85(1) 1. 0
O1 O2- 4 b 0.2432(5) 0.3067(4) 0.75 1.52(1) 0.695(3) 0
F1 F1- 4 b 0.2432(5) 0.3067(4) 0.75 1.52(1) 0.305(3) 0
O2 O2- 4 b 0.2519(5) 0.1939(4) 0.25 1.47(1) 0.695(3) 0
F2 F1- 4 b 0.2519(5) 0.1939(4) 0.25 1.47(1) 0.305(3) 0
O3 O2- 8 c 0.3322(4) 0.3490(4) 0.0744(6) 3.01(1) 1. 0
O4 O2- 8 c 0.1668(4) 0.1512(4) 0.9320(7) 3.06(1) 1. 0
O5 O2- 8 c 0.1458(4) 0.3230(3) 0.0723(7) 3.11(1) 1. 0
O6 O2- 8 c 0.3521(4) 0.1718(4) 0.9272(7) 3.18(1) 1. 0
O7 O2- 4 b 0.1119(7) 0.0199(5) 0.75 3.88(2) 1. 0
O8 O2- 4 b 0.3846(7) 0.4827(4) 0.25 3.59(2) 1. 0
O9 O2- 4 b 0.0205(6) 0.3862(6) 0.25 4.28(2) 1. 0
O10 O2- 4 b 0.4774(5) 0.1185(5) 0.75 3.00(1) 1. 0
O11 O2- 4 b 0.1579(6) 0.4720(6) 0.25 5.52(3) 1. 0
O12 O2- 4 b 0.3338(5) 0.0282(4) 0.75 4.17(2) 1. 0
O13 O2- 4 b 0.0274(6) 0.1618(5) 0.75 4.02(2) 1. 0
O14 O2- 4 b 0.4713(5) 0.3354(5) 0.25 4.01(2) 1. 0
Na1 Na1+ 4 a 0.2369(5) 0 0 3.24(1) 1. 0
Na2 Na1+ 4 a 0.2627(5) 0.5 0 4.25(2) 1. 0
Na3 Na1+ 8 c 0.0018(4) 0.2653(1) 0.0004(5) 4.35(2) 1. 0
Na4 Na1+ 4 b 0.1165(4) 0.1340(4) 0.25 4.48(3) 1. 0
Na5 Na1+ 4 b 0.3849(4) 0.3669(3) 0.75 4.46(3) 1. 0
Na6 Na1+ 4 b 0.1201(5) 0.3839(4) 0.75 5.95(4) 1. 0
Na7 Na1+ 4 b 0.3798(4) 0.1146(3) 0.25 3.77(2) 1. 0
Na8 Na1+ 4 a -.0014(7) 0 0 4.67(3) 0.81(3) 0
Na9 Na1+ 4 a 0.0046(13) 0.5 0 4.96(3) 0.58(3) 0
#End of TTdata_86460-ICSD