
#(C) 2019 by FIZ Karlsruhe - Leibniz Institute for Information Infrastructure.  All rights reserved.
data_87219-ICSD
_database_code_ICSD 87219
_audit_creation_date 2000-12-16
_audit_update_record 2011-02-01
_chemical_name_systematic 'Disodium platinum sulfide'
_chemical_formula_structural 'Na2 Pt S2'
_chemical_formula_sum 'Na2 Pt1 S2'
_chemical_name_structure_type Na2PtS2
_exptl_crystal_density_diffrn 5.03
_publ_section_title
'Ueber die Kettenstruktur der Verbindungen Na2 Pd S2 und Na Pt S2'
loop_
_citation_id
_citation_journal_full
_citation_year
_citation_journal_volume
_citation_page_first
_citation_page_last
_citation_journal_id_ASTM
primary 'Journal of the Less-Common Metals' 1976 50 49 55 JCOMAH
loop_
_publ_author_name
'Bronger, W.'
'Guenther, O.'
'Huster, J.'
'Spangenberg, M.'
_cell_length_a 3.548(1)
_cell_length_b 10.437(1)
_cell_length_c 10.877(2)
_cell_angle_alpha 90.
_cell_angle_beta 90.
_cell_angle_gamma 90.
_cell_volume 402.78
_cell_formula_units_Z 4
_symmetry_space_group_name_H-M 'C m c 21'
_symmetry_Int_Tables_number 36
_refine_ls_R_factor_all 0.065
loop_
_symmetry_equiv_pos_site_id
_symmetry_equiv_pos_as_xyz
1 'x, -y, z+1/2'
2 '-x, -y, z+1/2'
3 '-x, y, z'
4 'x, y, z'
5 'x+1/2, -y+1/2, z+1/2'
6 '-x+1/2, -y+1/2, z+1/2'
7 '-x+1/2, y+1/2, z'
8 'x+1/2, y+1/2, z'
loop_
_atom_type_symbol
_atom_type_oxidation_number
Pt2+ 2
Na1+ 1
S2- -2
loop_
_atom_site_label
_atom_site_type_symbol
_atom_site_symmetry_multiplicity
_atom_site_Wyckoff_symbol
_atom_site_fract_x
_atom_site_fract_y
_atom_site_fract_z
_atom_site_B_iso_or_equiv
_atom_site_occupancy
_atom_site_attached_hydrogens
Pt1 Pt2+ 4 a 0 0.135 0.25 . 1. 0
Na1 Na1+ 4 a 0 0.431(2) 0.118(2) . 1. 0
Na2 Na1+ 4 a 0 0.829(2) 0.407(3) . 1. 0
S1 S2- 4 a 0 0.719(1) 0.128(1) . 1. 0
S2 S2- 4 a 0 0.549(1) 0.363(1) . 1. 0
loop_
_atom_site_aniso_label
_atom_site_aniso_type_symbol
_atom_site_aniso_U_11
_atom_site_aniso_U_22
_atom_site_aniso_U_33
_atom_site_aniso_U_12
_atom_site_aniso_U_13
_atom_site_aniso_U_23
Pt1 Pt2+ 0.015 0.003 0.012 0 0 0
Na1 Na1+ 0.024 0.006 0.025 0 0 0.008
Na2 Na1+ 0.019 0.007 0.052 0 0 0.005
S1 S2- 0.015 0.007 0.015 0 0 -.003
S2 S2- 0.015 0.008 0.013 0 0 0.005
#End of TTdata_87219-ICSD