
#(C) 2019 by FIZ Karlsruhe - Leibniz Institute for Information Infrastructure.  All rights reserved.
data_87350-ICSD
_database_code_ICSD 87350
_audit_creation_date 2000-12-16
_chemical_name_systematic 'Dicesium sodium hexacyanomanganate(III)'
_chemical_formula_structural 'Cs2 Na (Mn (C N)6)'
_chemical_formula_sum 'C6 Cs2 Mn1 N6 Na1'
_chemical_name_structure_type LiCs2Cr(CN)6
_exptl_crystal_density_diffrn 2.56
_publ_section_title

;
Hexacyanomanganate(III) mit Kryolithstruktur: Cs2 Na Mn (C N)6 und Cs2 K Mn (C
N)6
;
loop_
_citation_id
_citation_journal_full
_citation_year
_citation_journal_volume
_citation_page_first
_citation_page_last
_citation_journal_id_ASTM
primary 'Zeitschrift fuer Naturforschung, B: A Journal of Chemical Sciences'
1989 44 896 902 ZNBSEN
loop_
_publ_author_name
'Ziegler, B.'
'Haegele, R.'
'Babel, D.'
_cell_length_a 7.597(1)
_cell_length_b 7.806(1)
_cell_length_c 10.950(1)
_cell_angle_alpha 90.
_cell_angle_beta 90.07(1)
_cell_angle_gamma 90.
_cell_volume 649.36
_cell_formula_units_Z 2
_symmetry_space_group_name_H-M 'P 1 21/n 1'
_symmetry_Int_Tables_number 14
_refine_ls_R_factor_all 0.05
loop_
_symmetry_equiv_pos_site_id
_symmetry_equiv_pos_as_xyz
1 '-x+1/2, y+1/2, -z+1/2'
2 '-x, -y, -z'
3 'x+1/2, -y+1/2, z+1/2'
4 'x, y, z'
loop_
_atom_type_symbol
_atom_type_oxidation_number
Cs1+ 1
Na1+ 1
Mn3+ 3
C2+ 2
N3- -3
C2+ 2
N3- -3
C2+ 2
N3- -3
loop_
_atom_site_label
_atom_site_type_symbol
_atom_site_symmetry_multiplicity
_atom_site_Wyckoff_symbol
_atom_site_fract_x
_atom_site_fract_y
_atom_site_fract_z
_atom_site_B_iso_or_equiv
_atom_site_occupancy
_atom_site_attached_hydrogens
Cs1 Cs1+ 4 e 0.51179(6) 0.95398(6) 0.25010(4) . 1. 0
Na1 Na1+ 2 b 0 0 0.5 . 1. 0
Mn1 Mn3+ 2 a 0 0 0 . 1. 0
C1 C2+ 4 e 0.0488(7) 0.0087(8) 0.1780(5) . 1. 0
N1 N3- 4 e 0.0754(8) 0.0169(9) 0.2809(5) . 1. 0
C2 C2+ 4 e 0.7872(8) 0.1444(7) 0.0220(5) . 1. 0
N2 N3- 4 e 0.6653(7) 0.2296(8) 0.0368(5) . 1. 0
C3 C2+ 4 e 0.1449(7) 0.2097(8) -.0251(5) . 1. 0
N3 N3- 4 e 0.2281(7) 0.3301(8) -.0406(5) . 1. 0
loop_
_atom_site_aniso_label
_atom_site_aniso_type_symbol
_atom_site_aniso_U_11
_atom_site_aniso_U_22
_atom_site_aniso_U_33
_atom_site_aniso_U_12
_atom_site_aniso_U_13
_atom_site_aniso_U_23
Cs1 Cs1+ 0.0474(3) 0.0520(3) 0.0419(2) -.0116(3) -.0009(2) 0.0020(3)
Na1 Na1+ 0.022(2) 0.026(2) 0.024(2) 0.000(1) -.003(1) -.001(2)
Mn1 Mn3+ 0.0231(6) 0.0158(6) 0.0182(5) 0.0000(4) 0.0001(4) 0.0004(5)
C1 C2+ 0.031(3) 0.030(3) 0.027(3) 0.002(2) 0.003(2) 0.004(3)
N1 N3- 0.057(4) 0.071(5) 0.029(3) 0.005(3) -.002(3) -.002(3)
C2 C2+ 0.035(3) 0.024(3) 0.029(3) -.001(3) 0.001(3) 0.004(2)
N2 N3- 0.038(3) 0.047(4) 0.058(4) 0.014(3) 0.005(3) 0.005(3)
C3 C2+ 0.021(3) 0.034(4) 0.031(3) 0.004(3) -.001(2) -.001(3)
N3 N3- 0.040(3) 0.035(3) 0.063(4) -.009(3) -.006(3) 0.009(3)
#End of TTdata_87350-ICSD