
#(C) 2019 by FIZ Karlsruhe - Leibniz Institute for Information Infrastructure.  All rights reserved.
data_87538-ICSD
_database_code_ICSD 87538
_audit_creation_date 2000-12-16
_audit_update_record 2012-02-01
_chemical_name_systematic 'Tetrasodium trialumononasilicate chloride'
_chemical_formula_structural 'Na4 (Al3 Si9 O24) Cl'
_chemical_formula_sum 'Al3 Cl1 Na4 O24 Si9'
_chemical_name_structure_type Na4Al4Si9O24Cl
_chemical_name_mineral Marialite
_exptl_crystal_density_diffrn 2.57
_publ_section_title 'Refinement of the crystal structure of synthetic marialite'
loop_
_citation_id
_citation_journal_full
_citation_year
_citation_journal_volume
_citation_page_first
_citation_page_last
_citation_journal_id_ASTM
primary Kristallografiya 1998 43 626 631 KRISAJ
loop_
_publ_author_name
'Kabalov, Yu.K.'
'Sokolova, E.V.'
'Sherriff, B.L.'
'Jenkins, D.M.'
_cell_length_a 12.0391(1)
_cell_length_b 12.0391(1)
_cell_length_c 7.5427(2)
_cell_angle_alpha 90.
_cell_angle_beta 90.
_cell_angle_gamma 90.
_cell_volume 1093.24
_cell_formula_units_Z 2
_symmetry_space_group_name_H-M 'I 4/m'
_symmetry_Int_Tables_number 87
_refine_ls_R_factor_all 0.02
loop_
_symmetry_equiv_pos_site_id
_symmetry_equiv_pos_as_xyz
1 '-y, x, -z'
2 'y, -x, -z'
3 'x, y, -z'
4 '-x, -y, -z'
5 'y, -x, z'
6 '-y, x, z'
7 '-x, -y, z'
8 'x, y, z'
9 '-y+1/2, x+1/2, -z+1/2'
10 'y+1/2, -x+1/2, -z+1/2'
11 'x+1/2, y+1/2, -z+1/2'
12 '-x+1/2, -y+1/2, -z+1/2'
13 'y+1/2, -x+1/2, z+1/2'
14 '-y+1/2, x+1/2, z+1/2'
15 '-x+1/2, -y+1/2, z+1/2'
16 'x+1/2, y+1/2, z+1/2'
loop_
_atom_type_symbol
_atom_type_oxidation_number
Na1+ 1
Al3+ 3
Si4+ 4
Al3+ 3
Si4+ 4
O2- -2
Cl1- -1
loop_
_atom_site_label
_atom_site_type_symbol
_atom_site_symmetry_multiplicity
_atom_site_Wyckoff_symbol
_atom_site_fract_x
_atom_site_fract_y
_atom_site_fract_z
_atom_site_B_iso_or_equiv
_atom_site_occupancy
_atom_site_attached_hydrogens
Na1 Na1+ 8 h 0.3718(5) 0.2981(6) 0.5 . 1. 0
Al1 Al3+ 8 h 0.3392(5) 0.4109(5) 0 . 0.25 0
Si1 Si4+ 8 h 0.3392(5) 0.4109(5) 0 . 0.75 0
Al2 Al3+ 16 i 0.6616(3) 0.9149(3) 0.7930(3) . 0.25 0
Si2 Si4+ 16 i 0.6616(3) 0.9149(3) 0.7930(3) . 0.75 0
O1 O2- 8 h 0.4564(6) 0.3507(6) 0 . 1. 0
O2 O2- 8 h 0.6919(8) 0.8789(8) 0 . 1. 0
O3 O2- 16 i 0.3519(9) 0.9495(5) 0.7847(9) . 1. 0
O4 O2- 16 i 0.2681(6) 0.3710(5) 0.8231(9) . 1. 0
Cl1 Cl1- 2 a 0.5 0.5 0.5 . 1. 0
loop_
_atom_site_aniso_label
_atom_site_aniso_type_symbol
_atom_site_aniso_beta_11
_atom_site_aniso_beta_22
_atom_site_aniso_beta_33
_atom_site_aniso_beta_12
_atom_site_aniso_beta_13
_atom_site_aniso_beta_23
Na1 Na1+ 0.0050(8) 0.0056(8) 0.025(1) 0.0025(5) 0 0
Al1 Al3+ 0.0023(5) 0.0019(5) 0.0058(9) 0.0007(3) 0 0
Si1 Si4+ 0.0023(5) 0.0019(5) 0.0058(9) 0.0007(3) 0 0
Al2 Al3+ 0.0030(3) 0.0042(3) 0.0053(6) 0.0001(3) 0.0000(3) 0.0003(3)
Si2 Si4+ 0.0030(3) 0.0042(3) 0.0053(6) 0.0001(3) 0.0000(3) 0.0003(3)
O1 O2- 0.005(1) 0.0020(9) 0.001(1) 0.0001(8) 0 0
O2 O2- 0.0026(9) 0.0045(9) 0.003(1) 0.0020(6) 0 0
O3 O2- 0.0069(6) 0.0053(8) 0.008(1) -.0011(6) 0.006(9) -.0018(8)
O4 O2- 0.0075(9) 0.0023(6) 0.003(1) 0.0024(6) -.0041(8) -.0016(8)
Cl1 Cl1- 0.0086(8) 0.0086(8) 0.031(3) 0 0 0
#End of TTdata_87538-ICSD