
#(C) 2019 by FIZ Karlsruhe - Leibniz Institute for Information Infrastructure.  All rights reserved.
data_87547-ICSD
_database_code_ICSD 87547
_audit_creation_date 2000-12-16
_chemical_name_systematic 'Sodium oxovanadium phosphate(V)'
_chemical_formula_structural 'Na (V O) (P O4)'
_chemical_formula_sum 'Na1 O5 P1 V1'
_chemical_name_structure_type CaTi(SiO4)O
_exptl_crystal_density_diffrn 3.45
_publ_section_title

;
Hydrothermal synthesis and crystal structure of the sodium vanadyl phosphate
Na V P O5
;
loop_
_citation_id
_citation_journal_full
_citation_year
_citation_journal_volume
_citation_page_first
_citation_page_last
_citation_journal_id_ASTM
primary 'Gaodeng Xuexiao Huaxue Xuebao' 1998 19 1891 1894 KTHPDM
loop_
_publ_author_name
'Pang, G.-S.'
'Feng, S.-H.'
'Xu, R.-R.'
'Hong, M.-C.'
_cell_length_a 6.527(2)
_cell_length_b 8.462(2)
_cell_length_c 7.120(2)
_cell_angle_alpha 90.
_cell_angle_beta 115.23(3)
_cell_angle_gamma 90.
_cell_volume 355.73
_cell_formula_units_Z 4
_symmetry_space_group_name_H-M 'P 1 21/c 1'
_symmetry_Int_Tables_number 14
_refine_ls_R_factor_all 0.057
loop_
_symmetry_equiv_pos_site_id
_symmetry_equiv_pos_as_xyz
1 'x, -y+1/2, z+1/2'
2 '-x, -y, -z'
3 '-x, y+1/2, -z+1/2'
4 'x, y, z'
loop_
_atom_type_symbol
_atom_type_oxidation_number
V4+ 4
P5+ 5
Na1+ 1
O2- -2
loop_
_atom_site_label
_atom_site_type_symbol
_atom_site_symmetry_multiplicity
_atom_site_Wyckoff_symbol
_atom_site_fract_x
_atom_site_fract_y
_atom_site_fract_z
_atom_site_B_iso_or_equiv
_atom_site_occupancy
_atom_site_attached_hydrogens
V1 V4+ 4 e 0.7532(1) 0.2608(1) 0.9726(1) 1.15(2) 1. 0
P1 P5+ 4 e 0.7495(2) 0.5658(2) 0.2481(2) 1.22(2) 1. 0
Na1 Na1+ 4 e 0.2523(4) 0.0868(3) 0.7795(5) 2.27(5) 1. 0
O1 O2- 4 e 0.8560(6) 0.4624(5) 0.1331(6) 1.20(7) 1. 0
O2 O2- 4 e 0.4379(6) 0.3277(5) 0.9077(6) 1.26(7) 1. 0
O3 O2- 4 e 0.0705(6) 0.1790(5) 0.0994(6) 1.32(7) 1. 0
O4 O2- 4 e 0.2488(6) 0.8203(5) 0.7478(6) 1.27(7) 1. 0
O5 O2- 4 e 0.6520(6) 0.4606(5) 0.3710(6) 1.23(7) 1. 0
#End of TTdata_87547-ICSD