
#(C) 2019 by FIZ Karlsruhe - Leibniz Institute for Information Infrastructure.  All rights reserved.
data_87649-ICSD
_database_code_ICSD 87649
_audit_creation_date 2000-12-16
_chemical_name_systematic 'Sodium tecto-alumosilicate hydrate *'
_chemical_formula_structural 'Na14.88 Al15.26 Si32.74 O96'
_chemical_formula_sum 'Al15.26 Na14.88 O96 Si32.74'
_chemical_name_structure_type 'Analcime 1Q'
_chemical_name_mineral 'Analcime (dehydrated)'
_exptl_crystal_density_diffrn 2.11
_cell_measurement_temperature 921.
_publ_section_title
'Dehydration dynamics of analcime by in situ synchrotron powder diffraction'
loop_
_citation_id
_citation_journal_full
_citation_year
_citation_journal_volume
_citation_page_first
_citation_page_last
_citation_journal_id_ASTM
primary 'American Mineralogist' 1999 84 112 119 AMMIAY
loop_
_publ_author_name
'Cruciani, G.'
'Gualtieri, A.'
_cell_length_a 13.6251(2)
_cell_length_b 13.6251(2)
_cell_length_c 13.5870(4)
_cell_angle_alpha 90.
_cell_angle_beta 90.
_cell_angle_gamma 90.
_cell_volume 2522.34
_cell_formula_units_Z 1
_symmetry_space_group_name_H-M 'I 41/a c d Z'
_symmetry_Int_Tables_number 142
_refine_ls_R_factor_all 0.028
loop_
_symmetry_equiv_pos_site_id
_symmetry_equiv_pos_as_xyz
1 'y+1/4, x+3/4, -z+3/4'
2 '-y+3/4, x+3/4, -z+1/4'
3 'x, y+1/2, -z'
4 '-x, y+1/2, -z+1/2'
5 '-y+3/4, -x+1/4, z+1/4'
6 'y+1/4, -x+1/4, z+3/4'
7 '-x, -y+1/2, z'
8 'x, -y+1/2, z+1/2'
9 'y+1/4, -x+3/4, -z+1/4'
10 '-y+3/4, -x+3/4, -z+3/4'
11 'x, -y, -z+1/2'
12 '-x, -y, -z'
13 '-y+3/4, x+1/4, z+3/4'
14 'y+1/4, x+1/4, z+1/4'
15 '-x, y, z+1/2'
16 'x, y, z'
17 'y+3/4, x+1/4, -z+1/4'
18 '-y+1/4, x+1/4, -z+3/4'
19 'x+1/2, y, -z+1/2'
20 '-x+1/2, y, -z'
21 '-y+1/4, -x+3/4, z+3/4'
22 'y+3/4, -x+3/4, z+1/4'
23 '-x+1/2, -y, z+1/2'
24 'x+1/2, -y, z'
25 'y+3/4, -x+1/4, -z+3/4'
26 '-y+1/4, -x+1/4, -z+1/4'
27 'x+1/2, -y+1/2, -z'
28 '-x+1/2, -y+1/2, -z+1/2'
29 '-y+1/4, x+3/4, z+1/4'
30 'y+3/4, x+3/4, z+3/4'
31 '-x+1/2, y+1/2, z'
32 'x+1/2, y+1/2, z+1/2'
loop_
_atom_type_symbol
_atom_type_oxidation_number
Al3+ 3
Si4+ 4
O2- -2
Na1+ 1
loop_
_atom_site_label
_atom_site_type_symbol
_atom_site_symmetry_multiplicity
_atom_site_Wyckoff_symbol
_atom_site_fract_x
_atom_site_fract_y
_atom_site_fract_z
_atom_site_B_iso_or_equiv
_atom_site_occupancy
_atom_site_attached_hydrogens
Al1 Al3+ 32 g 0.1222(4) 0.1638(3) 0.4133(3) 0.070(1) 0.477 0
Si1 Si4+ 32 g 0.1222(4) 0.1638(3) 0.4133(3) 0.070(1) 0.523 0
Si2 Si4+ 16 f 0.1595(3) 0.4095(3) 0.125 0.047(1) 1. 0
O1 O2- 32 g 0.0984(4) 0.3741(4) 0.2194(3) 0.066(2) 1. 0
O2 O2- 32 g 0.2225(3) 0.1122(5) 0.3662(5) 0.085(3) 1. 0
O3 O2- 32 g 0.3491(5) 0.2210(4) 0.1100(7) 0.106(3) 1. 0
Na1 Na1+ 32 g 0.2228(15) 0.1055(16) 0.0301(16) 0.104(4) 0.23(2) 0
Na2 Na1+ 32 g 0.1698(14) 0.1736(16) 0.0696(16) 0.104(4) 0.16(1) 0
Na3 Na1+ 8 b 0 0.250(9) 0.125 0.104(3) 0.10(1) 0
Na4 Na1+ 32 g -.005(4) 0.070(5) 0.100(6) 0.104(3) 0.05(4) 0
#End of TTdata_87649-ICSD