
#(C) 2019 by FIZ Karlsruhe - Leibniz Institute for Information Infrastructure.  All rights reserved.
data_87656-ICSD
_database_code_ICSD 87656
_audit_creation_date 2000-12-16
_chemical_name_systematic 'Sodium tecto-alumotrisilicate'
_chemical_formula_structural 'Na (Al Si3 O8)'
_chemical_formula_sum 'Al1 Na1 O8 Si3'
_chemical_name_structure_type Feldspar#-(TC)-Albite-NaAlSi3O8
_chemical_name_mineral 'Albite (heat-treated)'
_exptl_crystal_density_diffrn 2.61
_publ_section_title 'Order-disorder process in the tetrahedral sites of albite'
loop_
_citation_id
_citation_journal_full
_citation_year
_citation_journal_volume
_citation_page_first
_citation_page_last
_citation_journal_id_ASTM
primary 'American Mineralogist' 1999 84 1144 1151 AMMIAY
loop_
_publ_author_name
'Meneghinello, E.'
'Alberti, A.'
'Cruciani, G.'
_cell_length_a 8.170(2)
_cell_length_b 12.811(4)
_cell_length_c 7.141(2)
_cell_angle_alpha 93.79(3)
_cell_angle_beta 116.53(2)
_cell_angle_gamma 88.09(2)
_cell_volume 667.25
_cell_formula_units_Z 4
_symmetry_space_group_name_H-M 'C -1'
_symmetry_Int_Tables_number 2
_refine_ls_R_factor_all 0.048
loop_
_symmetry_equiv_pos_site_id
_symmetry_equiv_pos_as_xyz
1 '-x, -y, -z'
2 'x, y, z'
3 '-x+1/2, -y+1/2, -z'
4 'x+1/2, y+1/2, z'
loop_
_atom_type_symbol
_atom_type_oxidation_number
Si4+ 4
Al3+ 3
Si4+ 4
Al3+ 3
Si4+ 4
Al3+ 3
Si4+ 4
Al3+ 3
O2- -2
Na1+ 1
loop_
_atom_site_label
_atom_site_type_symbol
_atom_site_symmetry_multiplicity
_atom_site_Wyckoff_symbol
_atom_site_fract_x
_atom_site_fract_y
_atom_site_fract_z
_atom_site_B_iso_or_equiv
_atom_site_occupancy
_atom_site_attached_hydrogens
Si1 Si4+ 4 i 0.0091(1) 0.1692(1) 0.2102(2) 0.79(2) 0.16 0
Al1 Al3+ 4 i 0.0091(1) 0.1692(1) 0.2102(2) 0.79(2) 0.84 0
Si2 Si4+ 4 i 0.0042(1) 0.8194(1) 0.2356(1) 0.74(2) 0.93 0
Al2 Al3+ 4 i 0.0042(1) 0.8194(1) 0.2356(1) 0.74(2) 0.07 0
Si3 Si4+ 4 i 0.6930(1) 0.1109(1) 0.3179(1) 0.77(2) 0.95 0
Al3 Al3+ 4 i 0.6930(1) 0.1109(1) 0.3179(1) 0.77(2) 0.05 0
Si4 Si4+ 4 i 0.6842(1) 0.8815(1) 0.3588(1) 0.77(2) 0.96 0
Al4 Al3+ 4 i 0.6842(1) 0.8815(1) 0.3588(1) 0.77(2) 0.04 0
O1 O2- 4 i 0.0046(3) 0.1335(2) 0.9711(4) 1.33(2) 1. 0
O2 O2- 4 i 0.5944(3) 0.9964(2) 0.2813(4) 1.03(2) 1. 0
O3 O2- 4 i 0.8144(3) 0.1126(2) 0.1936(4) 1.44(2) 1. 0
O4 O2- 4 i 0.8211(3) 0.8515(2) 0.2553(4) 1.64(2) 1. 0
O5 O2- 4 i 0.0154(3) 0.3013(2) 0.2697(4) 1.27(2) 1. 0
O6 O2- 4 i 0.0244(3) 0.6926(2) 0.2308(4) 1.22(2) 1. 0
O7 O2- 4 i 0.2036(3) 0.1111(2) 0.3900(4) 1.27(2) 1. 0
O8 O2- 4 i 0.1830(3) 0.8683(2) 0.4330(4) 1.33(2) 1. 0
Na1 Na1+ 4 i 0.2706(2) 0.9912(1) 0.1456(3) 3.46(2) 1. 0
#End of TTdata_87656-ICSD