
#(C) 2019 by FIZ Karlsruhe - Leibniz Institute for Information Infrastructure.  All rights reserved.
data_87655-ICSD
_database_code_ICSD 87655
_audit_creation_date 2000-12-16
_chemical_name_systematic 'Sodium tecto-alumotrisilicate'
_chemical_formula_structural 'Na (Al Si3 O8)'
_chemical_formula_sum 'Al1 Na1 O8 Si3'
_chemical_name_structure_type Feldspar#-(TC)-Albite-NaAlSi3O8
_chemical_name_mineral 'Albite (heat-treated)'
_exptl_crystal_density_diffrn 2.62
_publ_section_title 'Order-disorder process in the tetrahedral sites of albite'
loop_
_citation_id
_citation_journal_full
_citation_year
_citation_journal_volume
_citation_page_first
_citation_page_last
_citation_journal_id_ASTM
primary 'American Mineralogist' 1999 84 1144 1151 AMMIAY
loop_
_publ_author_name
'Meneghinello, E.'
'Alberti, A.'
'Cruciani, G.'
_cell_length_a 8.141(2)
_cell_length_b 12.795(4)
_cell_length_c 7.145(1)
_cell_angle_alpha 94.04(2)
_cell_angle_beta 116.56(2)
_cell_angle_gamma 87.98(2)
_cell_volume 664.05
_cell_formula_units_Z 4
_symmetry_space_group_name_H-M 'C -1'
_symmetry_Int_Tables_number 2
_refine_ls_R_factor_all 0.036
loop_
_symmetry_equiv_pos_site_id
_symmetry_equiv_pos_as_xyz
1 '-x, -y, -z'
2 'x, y, z'
3 '-x+1/2, -y+1/2, -z'
4 'x+1/2, y+1/2, z'
loop_
_atom_type_symbol
_atom_type_oxidation_number
Si4+ 4
Al3+ 3
Si4+ 4
Al3+ 3
Si4+ 4
Al3+ 3
Si4+ 4
Al3+ 3
O2- -2
Na1+ 1
loop_
_atom_site_label
_atom_site_type_symbol
_atom_site_symmetry_multiplicity
_atom_site_Wyckoff_symbol
_atom_site_fract_x
_atom_site_fract_y
_atom_site_fract_z
_atom_site_B_iso_or_equiv
_atom_site_occupancy
_atom_site_attached_hydrogens
Si1 Si4+ 4 i 0.0088(1) 0.169 0.2090(1) 0.72(2) 0.09 0
Al1 Al3+ 4 i 0.0088(1) 0.169 0.2090(1) 0.72(2) 0.91 0
Si2 Si4+ 4 i 0.0039(1) 0.82 0.2366(1) 0.65(2) 0.96 0
Al2 Al3+ 4 i 0.0039(1) 0.82 0.2366(1) 0.65(2) 0.04 0
Si3 Si4+ 4 i 0.6921(1) 0.1104 0.3159(1) 0.70(2) 0.98 0
Al3 Al3+ 4 i 0.6921(1) 0.1104 0.3159(1) 0.70(2) 0.02 0
Si4 Si4+ 4 i 0.6825(1) 0.8816 0.3600(1) 0.69(2) 0.97 0
Al4 Al3+ 4 i 0.6825(1) 0.8816 0.3600(1) 0.69(2) 0.03 0
O1 O2- 4 i 0.0048(2) 0.1320(1) 0.9681(2) 1.15(2) 1. 0
O2 O2- 4 i 0.5935(2) 0.9971(1) 0.2807(2) 0.88(2) 1. 0
O3 O2- 4 i 0.8134(2) 0.1108(1) 0.1911(2) 1.23(2) 1. 0
O4 O2- 4 i 0.8205(2) 0.8513(1) 0.2573(3) 1.44(2) 1. 0
O5 O2- 4 i 0.0142(2) 0.3017(1) 0.2705(2) 1.08(2) 1. 0
O6 O2- 4 i 0.0240(2) 0.6933(1) 0.2296(2) 1.07(2) 1. 0
O7 O2- 4 i 0.2059(2) 0.1094(1) 0.3885(2) 1.15(2) 1. 0
O8 O2- 4 i 0.1833(2) 0.8684(1) 0.4345(2) 1.30(2) 1. 0
Na1 Na1+ 4 i 0.2691(1) 0.9898(1) 0.1460(2) 3.08(2) 1. 0
#End of TTdata_87655-ICSD