
#(C) 2019 by FIZ Karlsruhe - Leibniz Institute for Information Infrastructure.  All rights reserved.
data_87659-ICSD
_database_code_ICSD 87659
_audit_creation_date 2000-12-16
_chemical_name_systematic 'Sodium tecto-alumotrisilicate'
_chemical_formula_structural 'Na (Al Si3 O8)'
_chemical_formula_sum 'Al1 Na1 O8 Si3'
_chemical_name_structure_type Feldspar#-(TC)-Albite-NaAlSi3O8
_chemical_name_mineral 'Albite (heat-treated)'
_exptl_crystal_density_diffrn 2.62
_publ_section_title 'Order-disorder process in the tetrahedral sites of albite'
loop_
_citation_id
_citation_journal_full
_citation_year
_citation_journal_volume
_citation_page_first
_citation_page_last
_citation_journal_id_ASTM
primary 'American Mineralogist' 1999 84 1144 1151 AMMIAY
loop_
_publ_author_name
'Meneghinello, E.'
'Alberti, A.'
'Cruciani, G.'
_cell_length_a 8.154(2)
_cell_length_b 12.794(3)
_cell_length_c 7.129(2)
_cell_angle_alpha 93.81(2)
_cell_angle_beta 116.54(2)
_cell_angle_gamma 88.48(2)
_cell_volume 663.87
_cell_formula_units_Z 4
_symmetry_space_group_name_H-M 'C -1'
_symmetry_Int_Tables_number 2
_refine_ls_R_factor_all 0.056
loop_
_symmetry_equiv_pos_site_id
_symmetry_equiv_pos_as_xyz
1 '-x, -y, -z'
2 'x, y, z'
3 '-x+1/2, -y+1/2, -z'
4 'x+1/2, y+1/2, z'
loop_
_atom_type_symbol
_atom_type_oxidation_number
Si4+ 4
Al3+ 3
Si4+ 4
Al3+ 3
Si4+ 4
Al3+ 3
Si4+ 4
Al3+ 3
O2- -2
Na1+ 1
loop_
_atom_site_label
_atom_site_type_symbol
_atom_site_symmetry_multiplicity
_atom_site_Wyckoff_symbol
_atom_site_fract_x
_atom_site_fract_y
_atom_site_fract_z
_atom_site_B_iso_or_equiv
_atom_site_occupancy
_atom_site_attached_hydrogens
Si1 Si4+ 4 i 0.0095(1) 0.1685(1) 0.2109(1) 0.76(2) 0.22 0
Al1 Al3+ 4 i 0.0095(1) 0.1685(1) 0.2109(1) 0.76(2) 0.78 0
Si2 Si4+ 4 i 0.0045(1) 0.8186(1) 0.2343(1) 0.73(2) 0.9 0
Al2 Al3+ 4 i 0.0045(1) 0.8186(1) 0.2343(1) 0.73(2) 0.1 0
Si3 Si4+ 4 i 0.6922(1) 0.1102(1) 0.3180(1) 0.75(2) 0.94 0
Al3 Al3+ 4 i 0.6922(1) 0.1102(1) 0.3180(1) 0.75(2) 0.06 0
Si4 Si4+ 4 i 0.6843(1) 0.8808(1) 0.3581(1) 0.74(2) 0.94 0
Al4 Al3+ 4 i 0.6843(1) 0.8808(1) 0.3581(1) 0.74(2) 0.06 0
O1 O2- 4 i 0.0052(3) 0.1337(2) 0.9735(4) 1.35(2) 1. 0
O2 O2- 4 i 0.5937(3) 0.9953(2) 0.2805(4) 1.02(2) 1. 0
O3 O2- 4 i 0.8154(3) 0.1113(2) 0.1942(4) 1.48(2) 1. 0
O4 O2- 4 i 0.8199(3) 0.8504(2) 0.2527(4) 1.68(2) 1. 0
O5 O2- 4 i 0.0151(3) 0.2993(2) 0.2705(4) 1.34(2) 1. 0
O6 O2- 4 i 0.0247(3) 0.6920(2) 0.2284(4) 1.27(2) 1. 0
O7 O2- 4 i 0.2027(3) 0.1110(2) 0.3891(4) 1.22(2) 1. 0
O8 O2- 4 i 0.1848(3) 0.8686(2) 0.4315(4) 1.34(2) 1. 0
Na1 Na1+ 4 i 0.2705(1) 0.9932(2) 0.1441(3) 4.07(2) 1. 0
#End of TTdata_87659-ICSD