
#(C) 2019 by FIZ Karlsruhe - Leibniz Institute for Information Infrastructure.  All rights reserved.
data_87798-ICSD
_database_code_ICSD 87798
_audit_creation_date 2001-07-16
_chemical_name_systematic 'Sodium dioxophosphate trioxotungstate (0.96/4/12)'
_chemical_formula_structural 'Na0.96 (P O2)4 (W O3)12'
_chemical_formula_sum 'Na0.96 O44 P4 W12'
_exptl_crystal_density_diffrn 6.15
_publ_section_title

;
Phase relations, crystal structure, and electron transport properties of
phosphate tungsten bronzes (Kx Nay) (P O2)4 (W O3)2m (m=4,6)
;
loop_
_citation_id
_citation_journal_full
_citation_year
_citation_journal_volume
_citation_page_first
_citation_page_last
_citation_journal_id_ASTM
primary 'Chemistry of Materials' 1999 11 2049 2056 CMATEX
loop_
_publ_author_name
'Roussel, P.'
'Groult, D.'
'Maignan, A.'
'Labbe, P.H.'
_cell_length_a 5.3083(3)
_cell_length_b 6.5790(7)
_cell_length_c 23.6360(10)
_cell_angle_alpha 90.
_cell_angle_beta 90.
_cell_angle_gamma 90.
_cell_volume 825.45
_cell_formula_units_Z 1
_symmetry_space_group_name_H-M 'P 21 21 21'
_symmetry_Int_Tables_number 19
_refine_ls_R_factor_all 0.029
loop_
_symmetry_equiv_pos_site_id
_symmetry_equiv_pos_as_xyz
1 '-x, y+1/2, -z+1/2'
2 'x+1/2, -y+1/2, -z'
3 '-x+1/2, -y, z+1/2'
4 'x, y, z'
loop_
_atom_type_symbol
_atom_type_oxidation_number
W5+ 5.587
P5+ 5
O2- -2
Na1+ 1
loop_
_atom_site_label
_atom_site_type_symbol
_atom_site_symmetry_multiplicity
_atom_site_Wyckoff_symbol
_atom_site_fract_x
_atom_site_fract_y
_atom_site_fract_z
_atom_site_B_iso_or_equiv
_atom_site_occupancy
_atom_site_attached_hydrogens
W1 W5+ 4 a 0.2465(1) 0.58393(5) 0.96981(1) . 1. 0
W2 W5+ 4 a 0.2579(1) 0.76120(4) 0.59598(1) . 1. 0
W3 W5+ 4 a 0.2468(1) 0.92220(4) 0.84147(1) . 1. 0
P1 P5+ 4 a 0.2622(6) 0.1152(3) 0.70440(8) . 1. 0
O1 O2- 4 a 0.752(2) 0.257(1) 0.5978(3) . 1. 0
O2 O2- 4 a 0.745(2) 0.085(1) -.0347(3) . 1. 0
O3 O2- 4 a 0.743(3) 0.423(1) 0.8330(3) . 1. 0
O4 O2- 4 a 0.519(1) 0.072(1) 0.8615(4) . 1. 0
O5 O2- 4 a 0.022(2) 0.104(1) 0.8692(4) . 1. 0
O6 O2- 4 a 0.245(3) 0.055(1) 0.7662(3) . 1. 0
O7 O2- 4 a -.033(2) 0.431(2) -.0620(4) . 1. 0
O8 O2- 4 a -.023(1) 0.270(1) 0.4966(4) . 1. 0
O9 O2- 4 a 0.041(2) 0.258(2) 0.6904(4) . 1. 0
O10 O2- 4 a 0.518(2) 0.221(2) 0.6979(5) . 1. 0
O11 O2- 4 a 0.468(2) 0.406(2) -.0703(3) . 1. 0
Na1 Na1+ 4 a 0.773(4) 0.098(3) 0.773(1) . 0.24(2) 0
loop_
_atom_site_aniso_label
_atom_site_aniso_type_symbol
_atom_site_aniso_U_11
_atom_site_aniso_U_22
_atom_site_aniso_U_33
_atom_site_aniso_U_12
_atom_site_aniso_U_13
_atom_site_aniso_U_23
W1 W5+ 0.0049(1) 0.0054(1) 0.0058(1) 0.0003(2) -.0001(2) -.0001(1)
W2 W5+ 0.0041(1) 0.0047(1) 0.0059(1) -.0002(2) 0.0001(2) 0.0000(1)
W3 W5+ 0.0041(1) 0.0046(1) 0.0050(1) 0.0001(2) 0.0000(1) 0.0001(1)
P1 P5+ 0.0042(7) 0.0044(6) 0.0041(5) 0.001(1) -.0003(9) 0.0015(5)
O1 O2- 0.014(2) 0.012(2) 0.008(2) 0.003(5) 0.003(4) -.007(2)
O2 O2- 0.009(2) 0.010(2) 0.008(2) -.006(4) 0.001(4) 0.003(2)
O3 O2- 0.020(3) 0.010(2) 0.014(2) 0.006(5) -.006(4) 0.006(2)
O4 O2- 0.005(2) 0.007(3) 0.013(3) -.003(2) -.002(2) -.003(3)
O5 O2- 0.008(2) 0.008(3) 0.009(3) -.002(3) 0.002(2) -.005(2)
O6 O2- 0.022(3) 0.014(3) 0.005(2) -.011(5) -.003(4) 0.001(2)
O7 O2- 0.005(2) 0.018(4) 0.010(3) -.007(3) 0.000(2) 0.000(3)
O8 O2- 0.006(2) 0.006(3) 0.012(3) 0.000(3) 0.001(2) 0.004(3)
O9 O2- 0.011(3) 0.014(4) 0.015(3) 0.004(3) -.002(3) 0.005(3)
O10 O2- 0.008(3) 0.014(4) 0.021(4) -.003(3) 0.002(3) 0.008(3)
O11 O2- 0.006(2) 0.020(4) 0.006(2) 0.007(3) -.003(2) -.001(3)
Na1 Na1+ 0.004(8) 0.015(8) 0.03(1) 0.000(8) -.007(8) -.005(8)
#End of TTdata_87798-ICSD