
#(C) 2019 by FIZ Karlsruhe - Leibniz Institute for Information Infrastructure.  All rights reserved.
data_88007-ICSD
_database_code_ICSD 88007
_audit_creation_date 2001-07-16
_chemical_name_systematic 'Sodium copper niobium sulfide (8/4/2/21)'
_chemical_formula_structural 'Na8 Cu4 Nb2 S21'
_chemical_formula_sum 'Cu4 Na8 Nb2 S21'
_exptl_crystal_density_diffrn 2.77
_cell_measurement_temperature 220.
_publ_section_title

;
Synthesis and crystal structure of the new quaternary polysulfide Na8 Cu4 Nb2
S21 containing S(2-), S3(2-) and S5(2-) anions in different bridging modes
;
loop_
_citation_id
_citation_journal_full
_citation_year
_citation_journal_volume
_citation_page_first
_citation_page_last
_citation_journal_id_ASTM
primary 'Inorganic Chemistry' 1999 38 4612 4614 INOCAJ
loop_
_publ_author_name
'Rumpf, C.'
'Naether, C.'
'Bensch, W.'
_cell_length_a 7.7899(5)
_cell_length_b 29.8560(20)
_cell_length_c 6.6961(6)
_cell_angle_alpha 90.
_cell_angle_beta 90.
_cell_angle_gamma 90.
_cell_volume 1557.35
_cell_formula_units_Z 2
_symmetry_space_group_name_H-M 'P 21 21 2'
_symmetry_Int_Tables_number 18
_refine_ls_R_factor_all 0.023
loop_
_symmetry_equiv_pos_site_id
_symmetry_equiv_pos_as_xyz
1 '-x+1/2, y+1/2, -z'
2 'x+1/2, -y+1/2, -z'
3 '-x, -y, z'
4 'x, y, z'
loop_
_atom_type_symbol
_atom_type_oxidation_number
Nb5+ 5
Cu1+ 1
S2- -2
S0+ -0.667
S0+ -0.4
Na1+ 1
loop_
_atom_site_label
_atom_site_type_symbol
_atom_site_symmetry_multiplicity
_atom_site_Wyckoff_symbol
_atom_site_fract_x
_atom_site_fract_y
_atom_site_fract_z
_atom_site_B_iso_or_equiv
_atom_site_occupancy
_atom_site_attached_hydrogens
Nb1 Nb5+ 4 c 0.0007(1) 0.3925(1) 0.5389(1) . 1. 0
Cu1 Cu1+ 4 c 0.2510(1) 0.4308(1) 0.7773(1) . 1. 0
Cu2 Cu1+ 4 c 0.7508(1) 0.4319(1) 0.7785(1) . 1. 0
S1 S2- 4 c 0.9992(2) 0.3945(1) 0.8840(1) . 1. 0
S2 S2- 4 c 0.2410(2) 0.4289(1) 0.4308(2) . 1. 0
S3 S2- 4 c 0.7670(2) 0.4322(1) 0.4334(2) . 1. 0
S4 S2- 4 c 0.9945(2) 0.3214(1) 0.4163(1) . 1. 0
S5 S0+ 4 c 0.7182(1) 0.5006(1) 0.9249(1) . 1. 0
S6 S0+ 2 a 0.5 0.5 0.1003(2) . 1. 0
S7 S0+ 4 c 0.5000(2) 0.3928(1) 0.8834(1) . 1. 0
S8 S0+ 4 c 0.4920(2) 0.3392(1) 0.6845(1) . 1. 0
S9 S0+ 4 c 0.6556(1) 0.2918(1) 0.8011(1) . 1. 0
S10 S0+ 4 c 0.5124(2) 0.2519(1) 0.9901(1) . 1. 0
S11 S0+ 4 c 0.4990(2) 0.2887(1) 0.2529(1) . 1. 0
Na1 Na1+ 4 c 0.2505(2) 0.3512(1) 0.1386(3) . 1. 0
Na2 Na1+ 2 a 0.5 0.5 0.5386(3) . 1. 0
Na3 Na1+ 2 b 0 0.5 0.2325(3) . 1. 0
Na4 Na1+ 4 c 0.7614(2) 0.2403(1) 0.4362(3) . 1. 0
Na5 Na1+ 4 c 0.7333(3) 0.3569(1) 0.1633(3) . 1. 0
loop_
_atom_site_aniso_label
_atom_site_aniso_type_symbol
_atom_site_aniso_U_11
_atom_site_aniso_U_22
_atom_site_aniso_U_33
_atom_site_aniso_U_12
_atom_site_aniso_U_13
_atom_site_aniso_U_23
Nb1 Nb5+ 0.010(1) 0.012(1) 0.012(1) -.001(1) 0.000(1) 0.001(1)
Cu1 Cu1+ 0.016(1) 0.016(1) 0.019(1) -.001(1) -.002(1) 0.000(1)
Cu2 Cu1+ 0.017(1) 0.017(1) 0.019(1) 0.001(1) 0.003(1) -.001(1)
S1 S2- 0.012(1) 0.021(1) 0.013(1) -.001(1) 0.000(1) 0.004(1)
S2 S2- 0.017(1) 0.023(1) 0.016(1) 0.002(1) -.006(1) 0.002(1)
S3 S2- 0.018(1) 0.021(1) 0.015(1) -.002(1) 0.006(1) 0.002(1)
S4 S2- 0.018(1) 0.014(1) 0.022(1) -.001(1) 0.000(1) -.001(1)
S5 S0+ 0.013(1) 0.014(1) 0.017(1) 0.002(1) 0.001(1) 0.000(1)
S6 S0+ 0.012(1) 0.068(1) 0.010(1) 0 -.001(1) 0
S7 S0+ 0.012(1) 0.013(1) 0.018(1) -.001(1) 0.002(1) 0.000(1)
S8 S0+ 0.024(1) 0.016(1) 0.020(1) -.007(1) 0.002(1) -.003(1)
S9 S0+ 0.017(1) 0.015(1) 0.021(1) 0.002(1) 0.003(1) -.001(1)
S10 S0+ 0.021(1) 0.016(1) 0.022(1) 0.001(1) -.003(1) -.001(1)
S11 S0+ 0.018(1) 0.020(1) 0.017(1) -.001(1) 0.000(1) 0.002(1)
Na1 Na1+ 0.022(1) 0.048(1) 0.031(1) 0.009(1) 0.014(1) 0.018(1)
Na2 Na1+ 0.020(1) 0.029(1) 0.021(1) 0 0.002(2) 0
Na3 Na1+ 0.027(1) 0.034(1) 0.032(1) 0 -.007(2) 0
Na4 Na1+ 0.023(1) 0.026(1) 0.031(1) -.001(1) 0.006(1) 0.004(1)
Na5 Na1+ 0.032(1) 0.026(1) 0.033(1) -.017(1) -.009(1) 0.007(1)
#End of TTdata_88007-ICSD