
#(C) 2018 by FIZ Karlsruhe - Leibniz Institute for Information Infrastructure.  All rights reserved.
data_88328-ICSD
_database_code_ICSD 88328
_audit_creation_date 2001-07-16
_audit_update_record 2007-04-01
_chemical_name_systematic 'Lithium neodymium titanium oxide (0.48/0.52/1/2.6)'
_chemical_formula_structural '(Li0.479 Nd0.521) Ti O2.604'
_chemical_formula_sum 'Li0.479 Nd0.521 O2.604 Ti1'
_exptl_crystal_density_diffrn 5.06
_publ_section_title

;
Crystal structure and microwave dielectric properties of Ca Ti O3 -(Li1/2
Nd1/2) Ti O3 - (Ln1/3 Nd1/3) Ti O3 (Ln = La, Dy) ceramics
;
loop_
_citation_id
_citation_journal_full
_citation_year
_citation_journal_volume
_citation_page_first
_citation_page_last
_citation_journal_id_ASTM
primary

;
Japanese Journal of Applied Physics, Part 1: Regular Papers, Brief
Communications & Review Papers
; 1999 38 5633 5637 JAPNDE
loop_
_publ_author_name
'Kim, J.-S.'
'Cheon, C.-I.'
'Kang, H.-J.'
'Lee, C.-H.'
'Kim, K.-Y.'
'Nam, S.'
'Byun Jae Dong'
_cell_length_a 5.377(6)
_cell_length_b 5.377(6)
_cell_length_c 7.622(8)
_cell_angle_alpha 90.
_cell_angle_beta 90.
_cell_angle_gamma 90.
_cell_volume 220.37
_cell_formula_units_Z 4
_symmetry_space_group_name_H-M 'P -4 b 2'
_symmetry_Int_Tables_number 117
_refine_ls_R_factor_all 0.036
loop_
_symmetry_equiv_pos_site_id
_symmetry_equiv_pos_as_xyz
1 '-y+1/2, -x+1/2, -z'
2 'y, -x, -z'
3 'y+1/2, x+1/2, -z'
4 '-y, x, -z'
5 'x+1/2, -y+1/2, z'
6 '-x, -y, z'
7 '-x+1/2, y+1/2, z'
8 'x, y, z'
loop_
_atom_type_symbol
_atom_type_oxidation_number
Li1+ 1
Nd3+ 3
Li1+ 1
Ti3+ 3.166
O2- -2
loop_
_atom_site_label
_atom_site_type_symbol
_atom_site_symmetry_multiplicity
_atom_site_Wyckoff_symbol
_atom_site_fract_x
_atom_site_fract_y
_atom_site_fract_z
_atom_site_B_iso_or_equiv
_atom_site_occupancy
_atom_site_attached_hydrogens
Li1 Li1+ 2 a 0 0 0 0.5657 0.7856(20) 0
Nd1 Nd3+ 2 a 0 0 0 0.5657 0.2144(20) 0
Nd2 Nd3+ 2 b 0 0 0.5 0.5666 0.8276(40) 0
Li2 Li1+ 2 b 0 0 0.5 0.5666 0.1724(40) 0
Ti1 Ti3+ 4 f 0.5 0 0.2358(3) 0.546(21) 1. 0
O1 O2- 8 i 0.2829(31) 0.2998(33) 0.2687(6) 1.512(35) 1. 0
O2 O2- 2 d 0.5 0 0.5 1.400000(35) 0.556(22) 0
O3 O2- 2 c 0.5 0 0 1.400000(35) 0.653(22) 0
#End of TTdata_88328-ICSD