
#(C) 2019 by FIZ Karlsruhe - Leibniz Institute for Information Infrastructure.  All rights reserved.
data_88352-ICSD
_database_code_ICSD 88352
_audit_creation_date 2001-07-16
_chemical_name_systematic 'Calcium sodium divanadate (0.95/0.05/1)'
_chemical_formula_structural '(Ca0.95 Na0.05) (V2 O5)'
_chemical_formula_sum 'Ca0.95 Na0.05 O5 V2'
_chemical_name_structure_type CaV2O5
_exptl_crystal_density_diffrn 3.69
_cell_measurement_temperature 298.
_publ_section_title

;
Crystal structures and electronic properties in the crossover region between
the spin-gap system Ca V2 O5 and the linear-chain system Na V2 O5
;
loop_
_citation_id
_citation_journal_full
_citation_year
_citation_journal_volume
_citation_page_first
_citation_page_last
_citation_journal_id_ASTM
primary 'Journal of Physics: Condensed Matter' 1999 11 3475 3488 JCOMEL
loop_
_publ_author_name
'Onoda, M.'
'Kagami, T.'
_cell_length_a 11.328(1)
_cell_length_b 3.600(1)
_cell_length_c 4.881(1)
_cell_angle_alpha 90.
_cell_angle_beta 90.
_cell_angle_gamma 90.
_cell_volume 199.05
_cell_formula_units_Z 2
_symmetry_space_group_name_H-M 'P m m n Z'
_symmetry_Int_Tables_number 59
_refine_ls_R_factor_all 0.039
loop_
_symmetry_equiv_pos_site_id
_symmetry_equiv_pos_as_xyz
1 'x+1/2, y+1/2, -z'
2 '-x, y+1/2, -z'
3 'x+1/2, -y, -z'
4 '-x, -y, -z'
5 '-x+1/2, -y+1/2, z'
6 'x, -y+1/2, z'
7 '-x+1/2, y, z'
8 'x, y, z'
loop_
_atom_type_symbol
_atom_type_oxidation_number
V4+ 4.025
Ca2+ 2
Na1+ 1
O2- -2
loop_
_atom_site_label
_atom_site_type_symbol
_atom_site_symmetry_multiplicity
_atom_site_Wyckoff_symbol
_atom_site_fract_x
_atom_site_fract_y
_atom_site_fract_z
_atom_site_B_iso_or_equiv
_atom_site_occupancy
_atom_site_attached_hydrogens
V1 V4+ 4 f 0.40382(5) 0.25 0.3908(1) 0.561(7) 1. 0
Ca1 Ca2+ 2 b 0.75 0.25 0.1559(2) 0.76(1) 0.95 0
Na1 Na1+ 2 b 0.75 0.25 0.1559(2) 0.76(1) 0.05 0
O1 O2- 4 f 0.3775(2) 0.25 0.0593(5) 1.08(4) 1. 0
O2 O2- 4 f 0.5753(2) 0.25 0.4678(6) 0.77(3) 1. 0
O3 O2- 2 a 0.25 0.25 0.5453(8) 0.72(4) 1. 0
#End of TTdata_88352-ICSD