
#(C) 2019 by FIZ Karlsruhe - Leibniz Institute for Information Infrastructure.  All rights reserved.
data_88354-ICSD
_database_code_ICSD 88354
_audit_creation_date 2001-07-16
_audit_update_record 2006-04-01
_chemical_name_systematic 'Sodium vanadium(IV) vanadium oxide'
_chemical_formula_structural 'Na (V2 O5)'
_chemical_formula_sum 'Na1 O5 V2'
_chemical_name_structure_type CaV2O5
_exptl_crystal_density_diffrn 3.48
_cell_measurement_temperature 298.
_publ_section_title

;
Crystal structures and electronic properties in the crossover region between
the spin-gap system Ca V2 O5 and the linear-chain system Na V2 O5
;
loop_
_citation_id
_citation_journal_full
_citation_year
_citation_journal_volume
_citation_page_first
_citation_page_last
_citation_journal_id_ASTM
primary 'Journal of Physics: Condensed Matter' 1999 11 3475 3488 JCOMEL
loop_
_publ_author_name
'Onoda, M.'
'Kagami, T.'
_cell_length_a 11.295(2)
_cell_length_b 3.605(1)
_cell_length_c 4.795(1)
_cell_angle_alpha 90.
_cell_angle_beta 90.
_cell_angle_gamma 90.
_cell_volume 195.25
_cell_formula_units_Z 2
_symmetry_space_group_name_H-M 'P m m n Z'
_symmetry_Int_Tables_number 59
_refine_ls_R_factor_all 0.023
loop_
_symmetry_equiv_pos_site_id
_symmetry_equiv_pos_as_xyz
1 'x+1/2, y+1/2, -z'
2 '-x, y+1/2, -z'
3 'x+1/2, -y, -z'
4 '-x, -y, -z'
5 '-x+1/2, -y+1/2, z'
6 'x, -y+1/2, z'
7 '-x+1/2, y, z'
8 'x, y, z'
loop_
_atom_type_symbol
_atom_type_oxidation_number
V4+ 4.5
Na1+ 1
O2- -2
loop_
_atom_site_label
_atom_site_type_symbol
_atom_site_symmetry_multiplicity
_atom_site_Wyckoff_symbol
_atom_site_fract_x
_atom_site_fract_y
_atom_site_fract_z
_atom_site_B_iso_or_equiv
_atom_site_occupancy
_atom_site_attached_hydrogens
V1 V4+ 4 f 0.40211(3) 0.25 0.39212(7) 0.642(4) 1. 0
Na1 Na1+ 2 b 0.75 0.25 0.1399(3) 1.41(2) 1. 0
O1 O2- 4 f 0.3854(1) 0.25 0.0586(3) 1.18(2) 1. 0
O2 O2- 4 f 0.5731(1) 0.25 0.4878(3) 0.80(2) 1. 0
O3 O2- 2 a 0.25 0.25 0.5195(4) 0.78(3) 1. 0
#End of TTdata_88354-ICSD