
#(C) 2019 by FIZ Karlsruhe - Leibniz Institute for Information Infrastructure.  All rights reserved.
data_88376-ICSD
_database_code_ICSD 88376
_audit_creation_date 2001-07-16
_audit_update_record 2012-08-01
_chemical_name_systematic 'Sodium tantalate - HT'
_chemical_formula_structural 'Na (Ta O3)'
_chemical_formula_sum 'Na1 O3 Ta1'
_chemical_name_structure_type Perovskite-NaTaO3
_exptl_crystal_density_diffrn 6.93
_cell_measurement_temperature 773.
_publ_section_title

;
Powder neutron diffraction study of the high temperature phase transitions in
Na Ta O3
;
loop_
_citation_id
_citation_journal_full
_citation_year
_citation_journal_volume
_citation_page_first
_citation_page_last
_citation_journal_id_ASTM
primary 'Journal of Physics: Condensed Matter' 1999 11 6319 6327 JCOMEL
loop_
_publ_author_name
'Kennedy, B.J.'
'Prodjosantoso, A.K.'
'Howard, C.J.'
_cell_length_a 7.8337(2)
_cell_length_b 7.8485(3)
_cell_length_c 7.8552(3)
_cell_angle_alpha 90.
_cell_angle_beta 90.
_cell_angle_gamma 90.
_cell_volume 482.96
_cell_formula_units_Z 8
_symmetry_space_group_name_H-M 'C m c m'
_symmetry_Int_Tables_number 63
_refine_ls_R_factor_all 0.018
loop_
_symmetry_equiv_pos_site_id
_symmetry_equiv_pos_as_xyz
1 '-x, y, -z+1/2'
2 '-x, -y, z+1/2'
3 '-x, y, z'
4 '-x, -y, -z'
5 'x, -y, z+1/2'
6 'x, y, -z+1/2'
7 'x, -y, -z'
8 'x, y, z'
9 '-x+1/2, y+1/2, -z+1/2'
10 '-x+1/2, -y+1/2, z+1/2'
11 '-x+1/2, y+1/2, z'
12 '-x+1/2, -y+1/2, -z'
13 'x+1/2, -y+1/2, z+1/2'
14 'x+1/2, y+1/2, -z+1/2'
15 'x+1/2, -y+1/2, -z'
16 'x+1/2, y+1/2, z'
loop_
_atom_type_symbol
_atom_type_oxidation_number
Na1+ 1
Ta5+ 5
O2- -2
loop_
_atom_site_label
_atom_site_type_symbol
_atom_site_symmetry_multiplicity
_atom_site_Wyckoff_symbol
_atom_site_fract_x
_atom_site_fract_y
_atom_site_fract_z
_atom_site_B_iso_or_equiv
_atom_site_occupancy
_atom_site_attached_hydrogens
Na1 Na1+ 4 c 0 0.0021(40) 0.25 4.2(9) 1. 0
Na2 Na1+ 4 c 0 0.4942(31) 0.25 2.6(6) 1. 0
Ta1 Ta5+ 8 d 0.25 0.25 0 0.7(2) 1. 0
O1 O2- 8 e 0.2738(9) 0 0 2.2(3) 1. 0
O2 O2- 8 f 0 0.2229(9) 0.0214(9) 1.7(2) 1. 0
O3 O2- 8 g 0.2750(9) 0.2500(13) 0.25 2.6(3) 1. 0
#End of TTdata_88376-ICSD