
#(C) 2019 by FIZ Karlsruhe - Leibniz Institute for Information Infrastructure.  All rights reserved.
data_88455-ICSD
_database_code_ICSD 88455
_audit_creation_date 2001-07-16
_chemical_name_systematic 'Sodium tribismuth divanadium oxide'
_chemical_formula_structural 'Na Bi3 V2 O10'
_chemical_formula_sum 'Bi3 Na1 O10 V2'
_exptl_crystal_density_diffrn 6.34
_publ_section_title

;
The crystal structure of a new oxide ion conductor Na Bi3 V2 O10 and oxide ion
conductivity in Pb2 Bi2 V2 O10
;
loop_
_citation_id
_citation_journal_full
_citation_year
_citation_journal_volume
_citation_page_first
_citation_page_last
_citation_journal_id_ASTM
primary 'Journal of Materials Chemistry' 1999 9 2617 2621 JMACEP
loop_
_publ_author_name
'Sinclair, D.C.'
'Marinou, E.'
'Skakle, J.M.S.'
_cell_length_a 7.0613(8)
_cell_length_b 7.2086(8)
_cell_length_c 5.5343(10)
_cell_angle_alpha 113.328(4)
_cell_angle_beta 84.4790(14)
_cell_angle_gamma 112.249(3)
_cell_volume 238.94
_cell_formula_units_Z 1
_symmetry_space_group_name_H-M 'P 1'
_symmetry_Int_Tables_number 1
_refine_ls_R_factor_all 0.022
loop_
_symmetry_equiv_pos_site_id
_symmetry_equiv_pos_as_xyz
1 'x, y, z'
loop_
_atom_type_symbol
_atom_type_oxidation_number
Bi3+ 3
Na1+ 1
V5+ 5
O2- -2
loop_
_atom_site_label
_atom_site_type_symbol
_atom_site_symmetry_multiplicity
_atom_site_Wyckoff_symbol
_atom_site_fract_x
_atom_site_fract_y
_atom_site_fract_z
_atom_site_B_iso_or_equiv
_atom_site_occupancy
_atom_site_attached_hydrogens
Bi1 Bi3+ 1 a 0.6188(21) 0.665(2) 0.252(3) 1.55(7) 1. 0
Bi2 Bi3+ 1 a 0.8529 0.2718 0.6059 1.55(7) 1. 0
Bi3 Bi3+ 1 a 0.999(2) 0.995(2) 0.994(3) 1.55(7) 1. 0
Na1 Na1+ 1 a 0.470(3) 0.925(3) 0.885(4) 1.55(7) 1. 0
V1 V5+ 1 a 0.0816 0.6136 0.2632 0.40(8) 1. 0
V2 V5+ 1 a 0.3906 0.31 0.5927 0.40(8) 1. 0
O1 O2- 1 a 0.005(3) 0.332(3) 0.103(4) 1.63(9) 1. 0
O2 O2- 1 a 0.424(3) 0.573(3) 0.780(4) 1.63(9) 1. 0
O3 O2- 1 a 0.330(3) 0.793(3) 0.323(3) 1.63(9) 1. 0
O4 O2- 1 a 0.115(3) 0.092(3) 0.460(3) 1.63(9) 1. 0
O5 O2- 1 a 0.985(3) 0.678(3) 0.058(3) 1.63(9) 1. 0
O6 O2- 1 a 0.553(3) 0.242(3) 0.805(4) 1.63(9) 1. 0
O7 O2- 1 a 0.908(3) 0.642(3) 0.528(3) 1.63(9) 1. 0
O8 O2- 1 a 0.444(3) 0.255(3) 0.309(4) 1.63(9) 1. 0
O9 O2- 1 a 0.716(3) 0.949(3) 0.169(4) 1.63(9) 1. 0
O10 O2- 1 a 0.714(3) 0.972(3) 0.664(4) 1.63(9) 1. 0
#End of TTdata_88455-ICSD