
#(C) 2018 by FIZ Karlsruhe - Leibniz Institute for Information Infrastructure.  All rights reserved.
data_88463-ICSD
_database_code_ICSD 88463
_audit_creation_date 2001-07-16
_chemical_name_systematic 'Dilithium strontium diniobate'
_chemical_formula_structural 'Li2 Sr (Nb2 O7)'
_chemical_formula_sum 'Li2 Nb2 O7 Sr1'
_chemical_name_structure_type SrLa2Sc2O7
_exptl_crystal_density_diffrn 4.7
_publ_section_title

;
Synthesis and structure of novel layered perovskite oxides: Li2 La1.78 Nb0.66
Ti2.34 O10, and a new family, Li2 (A0.5n Bn O3n+1)
;
loop_
_citation_id
_citation_journal_full
_citation_year
_citation_journal_volume
_citation_page_first
_citation_page_last
_citation_journal_id_ASTM
primary 'Journal of Materials Chemistry' 1999 9 3093 3100 JMACEP
loop_
_publ_author_name
'Bhuvanesh, N.S.P.'
'Crosnier-Lopez, M.P.'
'Duroy, H.'
'Fourquet, J.L.'
_cell_length_a 5.5939(1)
_cell_length_b 5.6013(1)
_cell_length_c 18.0110(30)
_cell_angle_alpha 90.
_cell_angle_beta 90.
_cell_angle_gamma 90.
_cell_volume 564.34
_cell_formula_units_Z 4
_symmetry_space_group_name_H-M 'F m m m'
_symmetry_Int_Tables_number 69
_refine_ls_R_factor_all 0.046
loop_
_symmetry_equiv_pos_site_id
_symmetry_equiv_pos_as_xyz
1 'x, y, -z'
2 'x, -y, z'
3 '-x, y, z'
4 '-x, -y, -z'
5 '-x, -y, z'
6 '-x, y, -z'
7 'x, -y, -z'
8 'x, y, z'
9 'x, y+1/2, -z+1/2'
10 'x, -y+1/2, z+1/2'
11 '-x, y+1/2, z+1/2'
12 '-x, -y+1/2, -z+1/2'
13 '-x, -y+1/2, z+1/2'
14 '-x, y+1/2, -z+1/2'
15 'x, -y+1/2, -z+1/2'
16 'x, y+1/2, z+1/2'
17 'x+1/2, y, -z+1/2'
18 'x+1/2, -y, z+1/2'
19 '-x+1/2, y, z+1/2'
20 '-x+1/2, -y, -z+1/2'
21 '-x+1/2, -y, z+1/2'
22 '-x+1/2, y, -z+1/2'
23 'x+1/2, -y, -z+1/2'
24 'x+1/2, y, z+1/2'
25 'x+1/2, y+1/2, -z'
26 'x+1/2, -y+1/2, z'
27 '-x+1/2, y+1/2, z'
28 '-x+1/2, -y+1/2, -z'
29 '-x+1/2, -y+1/2, z'
30 '-x+1/2, y+1/2, -z'
31 'x+1/2, -y+1/2, -z'
32 'x+1/2, y+1/2, z'
loop_
_atom_type_symbol
_atom_type_oxidation_number
Nb5+ 5
Sr2+ 2
O2- -2
Li1+ 1
loop_
_atom_site_label
_atom_site_type_symbol
_atom_site_symmetry_multiplicity
_atom_site_Wyckoff_symbol
_atom_site_fract_x
_atom_site_fract_y
_atom_site_fract_z
_atom_site_B_iso_or_equiv
_atom_site_occupancy
_atom_site_attached_hydrogens
Nb1 Nb5+ 8 i 0 0 0.38456(3) 0.17(1) 1. 0
Sr1 Sr2+ 4 a 0 0 0 0.71(3) 1. 0
O1 O2- 16 j 0.25 0.25 0.1073(2) 1.73(7) 1. 0
O2 O2- 8 i 0 0 0.2855(3) 1.73(7) 1. 0
O3 O2- 4 b 0 0 0.5 1.73(7) 1. 0
Li1 Li1+ 8 f 0.25 0.25 0.25 0.7(3) 1. 0
#End of TTdata_88463-ICSD