
#(C) 2019 by FIZ Karlsruhe - Leibniz Institute for Information Infrastructure.  All rights reserved.
data_88662-ICSD
_database_code_ICSD 88662
_audit_creation_date 2001-07-16
_chemical_name_systematic 'Disodium phyllo-disilicate - delta'
_chemical_formula_structural 'Na2 (Si2 O5)'
_chemical_formula_sum 'Na2 O5 Si2'
_exptl_crystal_density_diffrn 2.46
_publ_section_title 'The crystal structure of delta-(Na2 Si2 O5)'
loop_
_citation_id
_citation_journal_full
_citation_year
_citation_journal_volume
_citation_page_first
_citation_page_last
_citation_journal_id_ASTM
primary 'Journal of Solid State Chemistry' 1999 146 380 386 JSSCBI
loop_
_publ_author_name
'Kahlenberg, V.'
'Doersam, G.'
'Wendschuh-Josties, M.'
'Fischer, R.X.'
_cell_length_a 8.393(2)
_cell_length_b 12.083(3)
_cell_length_c 4.843(1)
_cell_angle_alpha 90.
_cell_angle_beta 90.37(3)
_cell_angle_gamma 90.
_cell_volume 491.13
_cell_formula_units_Z 4
_symmetry_space_group_name_H-M 'P 1 21/n 1'
_symmetry_Int_Tables_number 14
_refine_ls_R_factor_all 0.053
loop_
_symmetry_equiv_pos_site_id
_symmetry_equiv_pos_as_xyz
1 '-x+1/2, y+1/2, -z+1/2'
2 '-x, -y, -z'
3 'x+1/2, -y+1/2, z+1/2'
4 'x, y, z'
loop_
_atom_type_symbol
_atom_type_oxidation_number
Si4+ 4
Na1+ 1
O2- -2
loop_
_atom_site_label
_atom_site_type_symbol
_atom_site_symmetry_multiplicity
_atom_site_Wyckoff_symbol
_atom_site_fract_x
_atom_site_fract_y
_atom_site_fract_z
_atom_site_B_iso_or_equiv
_atom_site_occupancy
_atom_site_attached_hydrogens
Si1 Si4+ 4 e 0.9492(2) 0.1974(2) 0.3006(5) . 1. 0
Si2 Si4+ 4 e 0.6764(2) 0.8207(2) 0.7007(6) . 1. 0
Na1 Na1+ 4 e 0.6303(3) -.0025(2) 0.2435(7) . 1. 0
Na2 Na1+ 4 e 0.8804(3) 0.0381(2) 0.7651(7) . 1. 0
O1 O2- 4 e 0.6356(6) -.0546(4) 0.7585(12) . 1. 0
O2 O2- 4 e 0.8871(6) 0.0762(3) 0.2503(12) . 1. 0
O3 O2- 4 e 0.6383(7) 0.7966(4) 0.3662(11) . 1. 0
O4 O2- 4 e 0.5747(6) 0.7286(4) 0.8654(12) . 1. 0
O5 O2- 4 e 0.1396(6) 0.2088(4) 0.2491(11) . 1. 0
loop_
_atom_site_aniso_label
_atom_site_aniso_type_symbol
_atom_site_aniso_U_11
_atom_site_aniso_U_22
_atom_site_aniso_U_33
_atom_site_aniso_U_12
_atom_site_aniso_U_13
_atom_site_aniso_U_23
Si1 Si4+ 0.007(1) 0.007(1) 0.023(1) 0.002(1) 0.000(1) -.001(1)
Si2 Si4+ 0.008(1) 0.005(1) 0.021(2) 0.000(1) 0.000(1) 0.001(1)
Na1 Na1+ 0.011(1) 0.016(1) 0.012(2) 0.000(1) 0.003(2) 0.000(1)
Na2 Na1+ 0.015(1) 0.014(1) 0.010(2) -.003(1) -.002(1) 0.001(1)
O1 O2- 0.013(2) 0.007(2) 0.008(3) 0.004(2) 0.002(2) -.004(2)
O2 O2- 0.018(2) 0.004(2) 0.008(3) 0.000(2) 0.001(2) 0.000(2)
O3 O2- 0.022(3) 0.013(3) 0.018(4) -.006(2) -.003(2) 0.000(2)
O4 O2- 0.018(3) 0.011(3) 0.016(4) -.006(2) -.003(2) -.002(2)
O5 O2- 0.004(2) 0.025(3) 0.012(3) 0.005(2) 0.003(2) 0.004(2)
#End of TTdata_88662-ICSD