
#(C) 2019 by FIZ Karlsruhe - Leibniz Institute for Information Infrastructure.  All rights reserved.
data_88788-ICSD
_database_code_ICSD 88788
_audit_creation_date 2001-07-16
_chemical_name_systematic 'Sodium tin(IV) tellurium(VI) oxide (1.84/1/1/6)'
_chemical_formula_structural 'Na1.84 (Sn Te O6)'
_chemical_formula_sum 'Na1.84 O6 Sn1 Te1'
_chemical_name_structure_type AgScP2S6
_exptl_crystal_density_diffrn 4.83
_publ_section_title

;
Structural studies and order-disorder phenomenon in a series of new quaternary
tellurates of the type A(2+) M(4+) Te(6+) O6 and A(1+)2 M(4+) Te(6+) O6
;
loop_
_citation_id
_citation_journal_full
_citation_year
_citation_journal_volume
_citation_page_first
_citation_page_last
_citation_journal_id_ASTM
primary 'Journal of Solid State Chemistry' 1999 147 99 116 JSSCBI
loop_
_publ_author_name
'Woodward, P.M.'
'Sleight, A.W.'
'Du, L.-S.'
'Grey, C.P.'
_cell_length_a 5.3416(1)
_cell_length_b 5.3416(1)
_cell_length_c 10.6991(3)
_cell_angle_alpha 90.
_cell_angle_beta 90.
_cell_angle_gamma 120.
_cell_volume 264.38
_cell_formula_units_Z 2
_symmetry_space_group_name_H-M 'P -3 1 c'
_symmetry_Int_Tables_number 163
_refine_ls_R_factor_all 0.069
loop_
_symmetry_equiv_pos_site_id
_symmetry_equiv_pos_as_xyz
1 '-x+y, y, -z+1/2'
2 'x, x-y, -z+1/2'
3 '-y, -x, -z+1/2'
4 'x-y, x, -z'
5 'y, -x+y, -z'
6 '-x, -y, -z'
7 'x-y, -y, z+1/2'
8 '-x, -x+y, z+1/2'
9 'y, x, z+1/2'
10 '-x+y, -x, z'
11 '-y, x-y, z'
12 'x, y, z'
loop_
_atom_type_symbol
_atom_type_oxidation_number
Na1+ 1
Te6+ 6
Sn4+ 4
O2- -2
loop_
_atom_site_label
_atom_site_type_symbol
_atom_site_symmetry_multiplicity
_atom_site_Wyckoff_symbol
_atom_site_fract_x
_atom_site_fract_y
_atom_site_fract_z
_atom_site_B_iso_or_equiv
_atom_site_occupancy
_atom_site_attached_hydrogens
Na1 Na1+ 4 f 0.6667 0.3333 0.9534(2) 0.63(8) 0.92(1) 0
Te1 Te6+ 2 d 0.6667 0.3333 0.25 0.47(5) 1. 0
Sn1 Sn4+ 2 a 0 0 0.25 0.51(4) 1. 0
O1 O2- 12 i 0.0589(2) 0.7069(3) 0.6455(1) 0.66(2) 1. 0
#End of TTdata_88788-ICSD