
#(C) 2019 by FIZ Karlsruhe - Leibniz Institute for Information Infrastructure.  All rights reserved.
data_88780-ICSD
_database_code_ICSD 88780
_audit_creation_date 2001-07-16
_chemical_name_systematic 'Disodium trivanadate(IV)'
_chemical_formula_structural 'Na2 (V3 O7)'
_chemical_formula_sum 'Na2 O7 V3'
_exptl_crystal_density_diffrn 3.16
_publ_section_title

;
Vanadium(IV)-oxide nanotubes: crystal structure of the low-dimensional quantum
magnet Na2 V3 O7
;
loop_
_citation_id
_citation_journal_full
_citation_year
_citation_journal_volume
_citation_page_first
_citation_page_last
_citation_journal_id_ASTM
primary 'Journal of Solid State Chemistry' 1999 147 676 678 JSSCBI
loop_
_publ_author_name
'Millet, P.'
'Henry, J.Y.'
'Mila, F.'
'Galy, J.'
_cell_length_a 10.886(1)
_cell_length_b 10.886(1)
_cell_length_c 9.5380(1)
_cell_angle_alpha 90.
_cell_angle_beta 90.
_cell_angle_gamma 120.
_cell_volume 978.87
_cell_formula_units_Z 6
_symmetry_space_group_name_H-M 'P 3 1 c'
_symmetry_Int_Tables_number 159
_refine_ls_R_factor_all 0.087
loop_
_symmetry_equiv_pos_site_id
_symmetry_equiv_pos_as_xyz
1 '-x, -x+y, z+1/2'
2 'x-y, -y, z+1/2'
3 'y, x, z+1/2'
4 '-x+y, -x, z'
5 '-y, x-y, z'
6 'x, y, z'
loop_
_atom_type_symbol
_atom_type_oxidation_number
V4+ 4
Na1+ 1
O2- -2
loop_
_atom_site_label
_atom_site_type_symbol
_atom_site_symmetry_multiplicity
_atom_site_Wyckoff_symbol
_atom_site_fract_x
_atom_site_fract_y
_atom_site_fract_z
_atom_site_B_iso_or_equiv
_atom_site_occupancy
_atom_site_attached_hydrogens
V1 V4+ 6 c 0.3146(3) 0.1154(3) 0 0.0035(5) 1. 0
V2 V4+ 6 c 0.3154(2) 0.1518(4) 0.3496(5) 0.0069(4) 1. 0
V3 V4+ 6 c 0.3147(5) 0.1918(4) 0.7000(3) 0.0136(8) 1. 0
Na1 Na1+ 2 a 0 0 0.124(2) 0.066(4) 1. 0
Na2 Na1+ 2 b 0.3333 0.6667 0.039(2) 0.030(5) 1. 0
Na3 Na1+ 2 b 0.3333 0.6667 0.6722(14) 0.002(3) 1. 0
Na4 Na1+ 6 c 0.4908(11) 0.5107(11) 0.3364(10) 0.0347(14) 1. 0
O1 O2- 6 c 0.4757(15) 0.1534(15) 0.0420(18) 0.011(3) 1. 0
O2 O2- 6 c 0.4891(7) 0.2371(17) 0.351(2) 0.0121(16) 1. 0
O3 O2- 6 c 0.4766(17) 0.3148(16) 0.665(2) 0.016(4) 1. 0
O4 O2- 6 c 0.3029(13) 0.0380(12) 0.8127(14) 0.006(2) 1. 0
O5 O2- 6 c 0.2506(12) 0.0712(12) 0.5333(14) 0.002(3) 1. 0
O6 O2- 6 c 0.2424(14) 0.1661(14) 0.1671(17) 0.014(3) 1. 0
O7 O2- 6 c 0.2514(13) 0.2924(15) 0.3942(16) 0.0119(18) 1. 0
#End of TTdata_88780-ICSD