
#(C) 2019 by FIZ Karlsruhe - Leibniz Institute for Information Infrastructure.  All rights reserved.
data_88807-ICSD
_database_code_ICSD 88807
_audit_creation_date 2001-07-16
_audit_update_record 2007-08-01
_chemical_name_systematic
'Sodium aluminium phosphate(V) fluoride (3.3/2/2/3) - beta1'
_chemical_formula_structural 'Na3.296 Al2 (P O4)2 F3'
_chemical_formula_sum 'Al2 F3 Na3.296 O8 P2'
_exptl_crystal_density_diffrn 3.14
_cell_measurement_temperature 193.
_publ_section_title

;
Phase transitions in the Na3 M2 (P O4)2 F3 family (M = Al(3+), V(3+), Cr(3+),
Fe(3+), Ga(3+)) : synthesis, thermal, structural and magnetic studies
;
loop_
_citation_id
_citation_journal_full
_citation_year
_citation_journal_volume
_citation_page_first
_citation_page_last
_citation_journal_id_ASTM
primary 'Journal of Solid State Chemistry' 1999 148 260 277 JSSCBI
loop_
_publ_author_name
'le Meins, J.M.'
'Crosnier-Lopez, M.P.'
'Hemon-Ribaud, A.'
'Courbion, G.'
_cell_length_a 12.382(2)
_cell_length_b 12.382(2)
_cell_length_c 10.387(2)
_cell_angle_alpha 90.
_cell_angle_beta 90.
_cell_angle_gamma 90.
_cell_volume 1592.47
_cell_formula_units_Z 8
_symmetry_space_group_name_H-M 'P 42/m b c'
_symmetry_Int_Tables_number 135
_refine_ls_R_factor_all 0.067
loop_
_symmetry_equiv_pos_site_id
_symmetry_equiv_pos_as_xyz
1 '-y+1/2, -x+1/2, z+1/2'
2 '-x+1/2, y+1/2, z'
3 'y, -x, z+1/2'
4 '-x, -y, z'
5 '-y+1/2, -x+1/2, -z+1/2'
6 '-x+1/2, y+1/2, -z'
7 'y, -x, -z+1/2'
8 '-x, -y, -z'
9 'y+1/2, x+1/2, -z+1/2'
10 'x+1/2, -y+1/2, -z'
11 '-y, x, -z+1/2'
12 'x, y, -z'
13 'y+1/2, x+1/2, z+1/2'
14 'x+1/2, -y+1/2, z'
15 '-y, x, z+1/2'
16 'x, y, z'
loop_
_atom_type_symbol
_atom_type_oxidation_number
Na1+ 1
Al3+ 3
P5+ 5
F1- -1
O2- -2
loop_
_atom_site_label
_atom_site_type_symbol
_atom_site_symmetry_multiplicity
_atom_site_Wyckoff_symbol
_atom_site_fract_x
_atom_site_fract_y
_atom_site_fract_z
_atom_site_B_iso_or_equiv
_atom_site_occupancy
_atom_site_attached_hydrogens
Na1 Na1+ 8 h 0.3733(2) 0.5961(3) 0 0.95(5) 0.630(8) 0
Na2 Na1+ 8 h 0.1302(2) 0.5984(3) 0 0.84(5) 0.666(10) 0
Na3 Na1+ 8 h 0.1348(8) 0.3288(25) 0 4.6(6) 0.186(10) 0
Na4 Na1+ 8 h 0.3406(3) 0.3761(3) 0 0.85(6) 0.434(8) 0
Na5 Na1+ 8 h 0.3925(4) 0.5055(3) 0 1.8(1) 0.444(8) 0
Na6 Na1+ 8 h 0.1095(16) 0.5075(3) 0 3.0(7) 0.102(12) 0
Na7 Na1+ 8 h 0.2513(4) 0.3579(2) 0 1.45(7) 0.474(8) 0
Na8 Na1+ 8 h 0.3417(4) 0.6264(4) 0 0.65(8) 0.36(1) 0
Al1 Al3+ 16 i 0.00010(4) 0.2489(6) 0.1793(1) 0.45(2) 1. 0
P1 P5+ 4 b 0 0 0.25 0.44(4) 1. 0
P2 P5+ 4 d 0 0.5 0.25 0.44(4) 1. 0
P3 P5+ 8 g 0.24807(4) 0.74807(4) 0.25 0.39(2) 1. 0
F1 F1- 8 h 0.0023(1) 0.2548(7) 0 0.46(4) 1. 0
F2 F1- 16 i -.0033(1) 0.2451(5) 0.3545(2) 0.71(3) 1. 0
O1 O2- 16 i 0.1022(3) 0.0023(1) 0.3405(4) 0.63(6) 1. 0
O2 O2- 16 i 0.5956(3) 0.0008(1) 0.3369(5) 0.66(6) 1. 0
O3 O2- 16 i 0.2500(3) 0.3488(1) 0.3358(2) 0.70(2) 1. 0
O4 O2- 16 i 0.7564(2) 0.3490(1) 0.3415(2) 0.47(2) 1. 0
#End of TTdata_88807-ICSD