
#(C) 2018 by FIZ Karlsruhe - Leibniz Institute for Information Infrastructure.  All rights reserved.
data_88835-ICSD
_database_code_ICSD 88835
_audit_creation_date 2001-07-16
_chemical_name_systematic 'Lanthanum lithium titanium oxide (1.12/0.62/2/6)'
_chemical_formula_structural '(La1.12 Li0.62) (Ti2 O6)'
_chemical_formula_sum 'La1.12 Li0.62 O6 Ti2'
_chemical_name_structure_type Perovskite_double(layered)#PrBaMn2O5+x
_exptl_crystal_density_diffrn 4.98
_cell_measurement_temperature 600.
_publ_section_title
'Structural refinement by neutron diffraction of La1.12 Li0.62 Ti2 O6'
loop_
_citation_id
_citation_journal_full
_citation_year
_citation_journal_volume
_citation_page_first
_citation_page_last
_citation_journal_id_ASTM
primary 'Journal of Solid State Chemistry' 1999 148 329 332 JSSCBI
loop_
_publ_author_name
'Ruiz, A.I.'
'Lopez, M.L.'
'Veiga, M.L.'
'Pico, C.'
_cell_length_a 3.8787(5)
_cell_length_b 3.8787(5)
_cell_length_c 7.7991(1)
_cell_angle_alpha 90.
_cell_angle_beta 90.
_cell_angle_gamma 90.
_cell_volume 117.33
_cell_formula_units_Z 1
_symmetry_space_group_name_H-M 'P 4/m m m'
_symmetry_Int_Tables_number 123
_refine_ls_R_factor_all 0.039
loop_
_symmetry_equiv_pos_site_id
_symmetry_equiv_pos_as_xyz
1 'y, x, -z'
2 '-y, -x, -z'
3 '-y, x, -z'
4 'y, -x, -z'
5 '-x, y, -z'
6 'x, -y, -z'
7 'x, y, -z'
8 '-x, -y, -z'
9 '-y, -x, z'
10 'y, x, z'
11 'y, -x, z'
12 '-y, x, z'
13 'x, -y, z'
14 '-x, y, z'
15 '-x, -y, z'
16 'x, y, z'
loop_
_atom_type_symbol
_atom_type_oxidation_number
La3+ 3
Li1+ 1
Ti4+ 4
O2- -2
loop_
_atom_site_label
_atom_site_type_symbol
_atom_site_symmetry_multiplicity
_atom_site_Wyckoff_symbol
_atom_site_fract_x
_atom_site_fract_y
_atom_site_fract_z
_atom_site_B_iso_or_equiv
_atom_site_occupancy
_atom_site_attached_hydrogens
La1 La3+ 1 a 0 0 0 0.21(2) 0.814(4) 0
La2 La3+ 1 b 0 0 0.5 0.21(2) 0.306(1) 0
Li1 Li1+ 1 a 0 0 0 2.82(7) 0.186(9) 0
Li2 Li1+ 1 b 0 0 0.5 2.82(7) 0.434(4) 0
Ti1 Ti4+ 2 h 0.5 0.5 0.257(1) . 1. 0
O1 O2- 4 i 0 0.5 0.236(1) . 1. 0
O2 O2- 1 c 0.5 0.5 0 . 1. 0
O3 O2- 1 d 0.5 0.5 0.5 . 1. 0
loop_
_atom_site_aniso_label
_atom_site_aniso_type_symbol
_atom_site_aniso_U_11
_atom_site_aniso_U_22
_atom_site_aniso_U_33
_atom_site_aniso_U_12
_atom_site_aniso_U_13
_atom_site_aniso_U_23
Ti1 Ti4+ 0.0316(1) 0.0316(1) -.0005(2) 0 0 0
O1 O2- 0.0079(8) 0.0383(5) 0.0122(3) 0 0 0
O2 O2- 0.0467(5) 0.0467(5) 0.0111(7) 0 0 0
O3 O2- 0.0601(6) 0.0601(6) 0.0026(4) 0 0 0
#End of TTdata_88835-ICSD