
#(C) 2019 by FIZ Karlsruhe - Leibniz Institute for Information Infrastructure.  All rights reserved.
data_88853-ICSD
_database_code_ICSD 88853
_audit_creation_date 2001-07-16
_audit_update_record 2010-08-01
_chemical_name_systematic 'Rubidium dicalcium sodium tetraniobate(V)'
_chemical_formula_structural 'Rb Ca2 Na (Nb4 O13)'
_chemical_formula_sum 'Ca2 Na1 Nb4 O13 Rb1'
_chemical_name_structure_type RbCa2NaNb4O13
_exptl_crystal_density_diffrn 4.5
_publ_section_title

;
Synthesis and structures of reduced niobates with four perovskite-like layers
and their semiconducting properties
;
loop_
_citation_id
_citation_journal_full
_citation_year
_citation_journal_volume
_citation_page_first
_citation_page_last
_citation_journal_id_ASTM
primary 'Journal of Solid State Chemistry' 1999 148 508 512 JSSCBI
loop_
_publ_author_name
'Sugimoto, W.'
'Ohkawa, H.'
'Naito, M.'
'Sugahara, Y.'
'Kuroda, K.'
_cell_length_a 3.8727(1)
_cell_length_b 3.8727(1)
_cell_length_c 18.91159(60)
_cell_angle_alpha 90.
_cell_angle_beta 90.
_cell_angle_gamma 90.
_cell_volume 283.63
_cell_formula_units_Z 1
_symmetry_space_group_name_H-M 'P 4/m m m'
_symmetry_Int_Tables_number 123
_refine_ls_R_factor_all 0.022
loop_
_symmetry_equiv_pos_site_id
_symmetry_equiv_pos_as_xyz
1 'y, x, -z'
2 '-y, -x, -z'
3 '-y, x, -z'
4 'y, -x, -z'
5 '-x, y, -z'
6 'x, -y, -z'
7 'x, y, -z'
8 '-x, -y, -z'
9 '-y, -x, z'
10 'y, x, z'
11 'y, -x, z'
12 '-y, x, z'
13 'x, -y, z'
14 '-x, y, z'
15 '-x, -y, z'
16 'x, y, z'
loop_
_atom_type_symbol
_atom_type_oxidation_number
Rb1+ 1
Ca2+ 2
Na1+ 1
Ca2+ 2
Na1+ 1
Nb5+ 5
O2- -2
loop_
_atom_site_label
_atom_site_type_symbol
_atom_site_symmetry_multiplicity
_atom_site_Wyckoff_symbol
_atom_site_fract_x
_atom_site_fract_y
_atom_site_fract_z
_atom_site_B_iso_or_equiv
_atom_site_occupancy
_atom_site_attached_hydrogens
Rb1 Rb1+ 1 d 0.5 0.5 0.5 2.8(3) 1. 0
Ca1 Ca2+ 1 c 0.5 0.5 0 1.0(2) 0.667 0
Na1 Na1+ 1 c 0.5 0.5 0 1.0(2) 0.333 0
Ca2 Ca2+ 2 h 0.5 0.5 0.2240(7) 1.0(2) 0.667 0
Na2 Na1+ 2 h 0.5 0.5 0.2240(7) 1.0(2) 0.333 0
Nb1 Nb5+ 2 g 0 0 0.1057(2) 0.28(9) 1. 0
Nb2 Nb5+ 2 g 0 0 0.3293(2) 0.28(9) 1. 0
O1 O2- 1 a 0 0 0 3.6(4) 1. 0
O2 O2- 4 i 0 0.5 0.101(1) 3.6(4) 1. 0
O3 O2- 2 g 0 0 0.205(2) 3.6(4) 1. 0
O4 O2- 4 i 0 0.5 0.309(1) 3.6(4) 1. 0
O5 O2- 2 g 0 0 0.420(2) 3.6(4) 1. 0
#End of TTdata_88853-ICSD