
#(C) 2019 by FIZ Karlsruhe - Leibniz Institute for Information Infrastructure.  All rights reserved.
data_88875-ICSD
_database_code_ICSD 88875
_audit_creation_date 2001-07-16
_audit_update_record 2009-02-01
_chemical_name_systematic 'Tetrasodium trialumononasilicate chloride'
_chemical_formula_structural 'Na4 (Al3 Si9 O24) Cl'
_chemical_formula_sum 'Al3 Cl1 Na4 O24 Si9'
_chemical_name_structure_type Na4Al4Si9O24Cl
_chemical_name_mineral Marialite
_exptl_crystal_density_diffrn 2.55
_cell_measurement_temperature 473.
_publ_section_title
'Changes in the crystal structure of marialite during heating'
loop_
_citation_id
_citation_journal_full
_citation_year
_citation_journal_volume
_citation_page_first
_citation_page_last
_citation_journal_id_ASTM
primary Kristallografiya 1999 44 1049 1053 KRISAJ
loop_
_publ_author_name
'Kabalov, Yu.K.'
'Sokolova, E.V.'
'Kalygina, N.V.'
'Schneider, J.'
_cell_length_a 12.0671(1)
_cell_length_b 12.0671(1)
_cell_length_c 7.5535(1)
_cell_angle_alpha 90.
_cell_angle_beta 90.
_cell_angle_gamma 90.
_cell_volume 1099.9
_cell_formula_units_Z 2
_symmetry_space_group_name_H-M 'I 4/m'
_symmetry_Int_Tables_number 87
_refine_ls_R_factor_all 0.01
loop_
_symmetry_equiv_pos_site_id
_symmetry_equiv_pos_as_xyz
1 '-y, x, -z'
2 'y, -x, -z'
3 'x, y, -z'
4 '-x, -y, -z'
5 'y, -x, z'
6 '-y, x, z'
7 '-x, -y, z'
8 'x, y, z'
9 '-y+1/2, x+1/2, -z+1/2'
10 'y+1/2, -x+1/2, -z+1/2'
11 'x+1/2, y+1/2, -z+1/2'
12 '-x+1/2, -y+1/2, -z+1/2'
13 'y+1/2, -x+1/2, z+1/2'
14 '-y+1/2, x+1/2, z+1/2'
15 '-x+1/2, -y+1/2, z+1/2'
16 'x+1/2, y+1/2, z+1/2'
loop_
_atom_type_symbol
_atom_type_oxidation_number
Na1+ 1
Al3+ 3
Si4+ 4
Al3+ 3
Si4+ 4
O2- -2
Cl1- -1
loop_
_atom_site_label
_atom_site_type_symbol
_atom_site_symmetry_multiplicity
_atom_site_Wyckoff_symbol
_atom_site_fract_x
_atom_site_fract_y
_atom_site_fract_z
_atom_site_B_iso_or_equiv
_atom_site_occupancy
_atom_site_attached_hydrogens
Na1 Na1+ 8 h 0.3727(5) 0.2973(8) 0.5 . 1. 0
Al1 Al3+ 8 h 0.3375(5) 0.4130(4) 0 . 0.25 0
Si1 Si4+ 8 h 0.3375(5) 0.4130(4) 0 . 0.75 0
Al2 Al3+ 16 i 0.6618(3) 0.9161(3) 0.7937(4) . 0.25 0
Si2 Si4+ 16 i 0.6618(3) 0.9161(3) 0.7937(4) . 0.75 0
O1 O2- 8 h 0.4566(8) 0.3527(8) 0 2.8(3) 1. 0
O2 O2- 8 h 0.6911(9) 0.8846(8) 0 2.3(2) 1. 0
O3 O2- 16 i 0.3479(5) 0.9480(7) 0.781(1) 3.0(2) 1. 0
O4 O2- 16 i 0.2706(7) 0.3748(4) 0.8278(9) 3.1(2) 1. 0
Cl1 Cl1- 2 a 0.5 0.5 0.5 6.0(3) 1. 0
loop_
_atom_site_aniso_label
_atom_site_aniso_type_symbol
_atom_site_aniso_beta_11
_atom_site_aniso_beta_22
_atom_site_aniso_beta_33
_atom_site_aniso_beta_12
_atom_site_aniso_beta_13
_atom_site_aniso_beta_23
Na1 Na1+ 0.0072(9) 0.008(1) 0.030(2) 0.0027(5) 0 0
Al1 Al3+ 0.0023(5) 0.0018(5) 0.007(1) 0.0001(5) 0 0
Si1 Si4+ 0.0023(5) 0.0018(5) 0.007(1) 0.0001(5) 0 0
Al2 Al3+ 0.0029(4) 0.0032(4) 0.0050(6) 0.0005(3) -.0003(4) 0.0007(4)
Si2 Si4+ 0.0029(4) 0.0032(4) 0.0050(6) 0.0005(3) -.0003(4) 0.0007(4)
#End of TTdata_88875-ICSD