
#(C) 2019 by FIZ Karlsruhe - Leibniz Institute for Information Infrastructure.  All rights reserved.
data_88893-ICSD
_database_code_ICSD 88893
_audit_creation_date 2001-07-16
_audit_update_record 2009-02-01
_chemical_name_systematic 'Sodium hydrogenselenate(VI)'
_chemical_formula_structural 'Na (H Se O4)'
_chemical_formula_sum 'H1 Na1 O4 Se1'
_chemical_name_structure_type NaHSO4
_exptl_crystal_density_diffrn 3.04
_publ_section_title

;
Synthesis and crystal structure of sodium hydrogen selenates, Na H Se O4 and
Na3 (H (H Se O4)2) (H Se O4)2
;
loop_
_citation_id
_citation_journal_full
_citation_year
_citation_journal_volume
_citation_page_first
_citation_page_last
_citation_journal_id_ASTM
primary Kristallografiya 1999 44 448 453 KRISAJ
loop_
_publ_author_name
'Zakharov, M.A.'
'Troyanov, S.I.'
'Rybakov, V.B.'
'Aslanov, L.A.'
'Kemnitz, E.'
_cell_length_a 5.295(1)
_cell_length_b 7.873(2)
_cell_length_c 8.911(2)
_cell_angle_alpha 90.
_cell_angle_beta 101.35(3)
_cell_angle_gamma 90.
_cell_volume 364.21
_cell_formula_units_Z 4
_symmetry_space_group_name_H-M 'P 1 21/n 1'
_symmetry_Int_Tables_number 14
_refine_ls_R_factor_all 0.028
loop_
_symmetry_equiv_pos_site_id
_symmetry_equiv_pos_as_xyz
1 '-x+1/2, y+1/2, -z+1/2'
2 '-x, -y, -z'
3 'x+1/2, -y+1/2, z+1/2'
4 'x, y, z'
loop_
_atom_type_symbol
_atom_type_oxidation_number
Se6+ 6
Na1+ 1
O2- -2
H1+ 1
loop_
_atom_site_label
_atom_site_type_symbol
_atom_site_symmetry_multiplicity
_atom_site_Wyckoff_symbol
_atom_site_fract_x
_atom_site_fract_y
_atom_site_fract_z
_atom_site_B_iso_or_equiv
_atom_site_occupancy
_atom_site_attached_hydrogens
Se1 Se6+ 4 e 0.14936(5) 0.77497(4) 0.06235(3) 0.0118(2) 1. 0
Na1 Na1+ 4 e 0.7037(2) 0.5001(2) 0.2036(2) 0.0189(3) 1. 0
O1 O2- 4 e 0.3211(4) 0.6098(3) 0.0497(3) 0.021(1) 1. 0
O2 O2- 4 e -.0512(5) 0.7541(3) 0.1769(3) 0.020(1) 1. 0
O3 O2- 4 e 0.0143(4) 0.8421(3) 0.8928(2) 0.020(1) 1. 0
O4 O2- 4 e 0.3650(4) 0.9323(3) 0.1370(3) 0.019(1) 1. 0
H1 H1+ 4 e 0.272(1) 0.035(7) 0.133(7) 0.06(2) 1. 0
#End of TTdata_88893-ICSD