
#(C) 2019 by FIZ Karlsruhe - Leibniz Institute for Information Infrastructure.  All rights reserved.
data_88898-ICSD
_database_code_ICSD 88898
_audit_creation_date 2001-07-16
_audit_update_record 2009-02-01
_chemical_name_systematic 'Sodium tecto-alumotrisilicate'
_chemical_formula_structural 'Na (Al Si3 O8)'
_chemical_formula_sum 'Al1 Na1 O8 Si3'
_chemical_name_structure_type Feldspar#-(MO,C12/m1)-KAlSi3O8
_chemical_name_mineral 'Feldspar (Na-component)'
_exptl_crystal_density_diffrn 2.58
_publ_section_title
'Structures of the K- and Na-components of two-phase feldspar from Primor'e'
loop_
_citation_id
_citation_journal_full
_citation_year
_citation_journal_volume
_citation_page_first
_citation_page_last
_citation_journal_id_ASTM
primary Kristallografiya 1999 44 829 834 KRISAJ
loop_
_publ_author_name
'Organova, N.I.'
'Marsii, I.M.'
'Rozhdestvenskaya, I.V.'
'Ivanova, T.I.'
'Zakharov, N.D.'
'Nasdekin, V.V.'
'Borisovskii, S.B.'
_cell_length_a 8.126(1)
_cell_length_b 12.996(3)
_cell_length_c 7.164(2)
_cell_angle_alpha 90.
_cell_angle_beta 116.65(2)
_cell_angle_gamma 90.
_cell_volume 676.18
_cell_formula_units_Z 4
_symmetry_space_group_name_H-M 'C 1 2/m 1'
_symmetry_Int_Tables_number 12
_refine_ls_R_factor_all 0.036
loop_
_symmetry_equiv_pos_site_id
_symmetry_equiv_pos_as_xyz
1 '-x, y, -z'
2 '-x, -y, -z'
3 'x, -y, z'
4 'x, y, z'
5 '-x+1/2, y+1/2, -z'
6 '-x+1/2, -y+1/2, -z'
7 'x+1/2, -y+1/2, z'
8 'x+1/2, y+1/2, z'
loop_
_atom_type_symbol
_atom_type_oxidation_number
Na1+ 1
Si4+ 4
Al3+ 3
Si4+ 4
Al3+ 3
O2- -2
loop_
_atom_site_label
_atom_site_type_symbol
_atom_site_symmetry_multiplicity
_atom_site_Wyckoff_symbol
_atom_site_fract_x
_atom_site_fract_y
_atom_site_fract_z
_atom_site_B_iso_or_equiv
_atom_site_occupancy
_atom_site_attached_hydrogens
Na1 Na1+ 4 i 0.2691(1) 0 0.131(3) 10.5(1) 1. 0
Si1 Si4+ 8 j 0.0068(5) 0.1738(1) 0.2250(8) 2.3(3) 0.75 0
Al1 Al3+ 8 j 0.0068(5) 0.1738(1) 0.2250(8) 2.3(3) 0.25 0
Si2 Si4+ 8 j 0.1879(5) 0.3819(9) 0.3373(1) 2.6(4) 0.75 0
Al2 Al3+ 8 j 0.1879(5) 0.3819(9) 0.3373(1) 2.6(4) 0.25 0
O1 O2- 4 g 0 0.138(2) 0 0.3(10) 1. 0
O2 O2- 4 i 0.093(2) 0.5 0.270(3) -0.5(6) 1. 0
O3 O2- 8 j 0.320(1) 0.367(2) 0.230(3) 4.3(9) 1. 0
O4 O2- 8 j 0.015(1) 0.296(2) 0.245(3) 3.1(9) 1. 0
O5 O2- 8 j 0.194(1) 0.121(3) 0.402(3) 6.5(11) 1. 0
#End of TTdata_88898-ICSD