
#(C) 2019 by FIZ Karlsruhe - Leibniz Institute for Information Infrastructure.  All rights reserved.
data_88907-ICSD
_database_code_ICSD 88907
_audit_creation_date 2001-07-16
_audit_update_record 2012-02-01
_chemical_name_systematic 'Sodium cesium tecto-alumogermanate *'
_chemical_formula_structural 'Na14.84 Cs7.37 (Al24 Ge24 O96)'
_chemical_formula_sum 'Al24 Cs7.37 Ge24 Na14.84 O96'
_chemical_name_structure_type CsxNayAlGeO4
_exptl_crystal_density_diffrn 2.76
_publ_section_title

;
Synthesis and structure of a microporous aluminogermanate with the zeolite rho
topology
;
loop_
_citation_id
_citation_journal_full
_citation_year
_citation_journal_volume
_citation_page_first
_citation_page_last
_citation_journal_id_ASTM
primary 'Microporous and Mesoporous Materials' 1999 28 139 154 MIMMFJ
loop_
_publ_author_name
'Johnson, G.M.'
'Tripathi, A.'
'Parise, J.B.'
_cell_length_a 14.6734(7)
_cell_length_b 14.6734(7)
_cell_length_c 14.6734(7)
_cell_angle_alpha 90.
_cell_angle_beta 90.
_cell_angle_gamma 90.
_cell_volume 3159.31
_cell_formula_units_Z 1
_symmetry_space_group_name_H-M 'I 2 3'
_symmetry_Int_Tables_number 197
_refine_ls_R_factor_all 0.029
loop_
_symmetry_equiv_pos_site_id
_symmetry_equiv_pos_as_xyz
1 '-z, -x, y'
2 '-y, -z, x'
3 '-x, -y, z'
4 '-z, x, -y'
5 '-y, z, -x'
6 '-x, y, -z'
7 'z, -x, -y'
8 'y, -z, -x'
9 'x, -y, -z'
10 'z, x, y'
11 'y, z, x'
12 'x, y, z'
13 '-z+1/2, -x+1/2, y+1/2'
14 '-y+1/2, -z+1/2, x+1/2'
15 '-x+1/2, -y+1/2, z+1/2'
16 '-z+1/2, x+1/2, -y+1/2'
17 '-y+1/2, z+1/2, -x+1/2'
18 '-x+1/2, y+1/2, -z+1/2'
19 'z+1/2, -x+1/2, -y+1/2'
20 'y+1/2, -z+1/2, -x+1/2'
21 'x+1/2, -y+1/2, -z+1/2'
22 'z+1/2, x+1/2, y+1/2'
23 'y+1/2, z+1/2, x+1/2'
24 'x+1/2, y+1/2, z+1/2'
loop_
_atom_type_symbol
_atom_type_oxidation_number
Al3+ 3
Ge4+ 4
O2- -2
Cs1+ 1
Na1+ 1
loop_
_atom_site_label
_atom_site_type_symbol
_atom_site_symmetry_multiplicity
_atom_site_Wyckoff_symbol
_atom_site_fract_x
_atom_site_fract_y
_atom_site_fract_z
_atom_site_B_iso_or_equiv
_atom_site_occupancy
_atom_site_attached_hydrogens
Al1 Al3+ 24 f 0.2848(14) 0.1290(11) 0.4334(12) 1.61(6) 1. 0
Ge1 Ge4+ 24 f 0.2171(6) -.0681(5) 0.3720(5) 1.61(6) 1. 0
O1 O2- 24 f 0.2430(6) 0.2354(6) 0.4095(4) 1.61(6) 1. 0
O2 O2- 24 f 0.3932(6) 0.1304(3) 0.3908(5) 1.61(6) 1. 0
O3 O2- 24 f 0.2868(5) 0.1214(7) 0.5467(5) 1.61(6) 1. 0
O4 O2- 24 f 0.2130(6) 0.0534(6) 0.3866(6) 1.61(6) 1. 0
Cs1 Cs1+ 6 b 0.5 0 0 3.35(5) 0.429(16) 0
Cs2 Cs1+ 8 c 0.1946(8) 0.1946(8) 0.1946(8) 3.35(5) 0.600(17) 0
Na1 Na1+ 8 c 0.3320(5) 0.3320(5) 0.3320(5) 3.35(5) 1. 0
Na2 Na1+ 24 f 0.3902(23) -.055(4) -.0593(34) 3.35(5) 0.285(8) 0
#End of TTdata_88907-ICSD