
#(C) 2019 by FIZ Karlsruhe - Leibniz Institute for Information Infrastructure.  All rights reserved.
data_88906-ICSD
_database_code_ICSD 88906
_audit_creation_date 2001-07-16
_chemical_name_systematic 'Sodium cesium tecto-alumogermanate *'
_chemical_formula_structural 'Na14.6 Cs8.17 (Al24 Ge24 O96)'
_chemical_formula_sum 'Al24 Cs8.17 Ge24 Na14.6 O96'
_chemical_name_structure_type CsxNayAlGeO4
_exptl_crystal_density_diffrn 2.8
_publ_section_title

;
Synthesis and structure of a microporous aluminogermanate with the zeolite rho
topology
;
loop_
_citation_id
_citation_journal_full
_citation_year
_citation_journal_volume
_citation_page_first
_citation_page_last
_citation_journal_id_ASTM
primary 'Microporous and Mesoporous Materials' 1999 28 139 154 MIMMFJ
loop_
_publ_author_name
'Johnson, G.M.'
'Tripathi, A.'
'Parise, J.B.'
_cell_length_a 14.6977(2)
_cell_length_b 14.6977(2)
_cell_length_c 14.6977(2)
_cell_angle_alpha 90.
_cell_angle_beta 90.
_cell_angle_gamma 90.
_cell_volume 3175.03
_cell_formula_units_Z 1
_symmetry_space_group_name_H-M 'I 2 3'
_symmetry_Int_Tables_number 197
_refine_ls_R_factor_all 0.047
loop_
_symmetry_equiv_pos_site_id
_symmetry_equiv_pos_as_xyz
1 '-z, -x, y'
2 '-y, -z, x'
3 '-x, -y, z'
4 '-z, x, -y'
5 '-y, z, -x'
6 '-x, y, -z'
7 'z, -x, -y'
8 'y, -z, -x'
9 'x, -y, -z'
10 'z, x, y'
11 'y, z, x'
12 'x, y, z'
13 '-z+1/2, -x+1/2, y+1/2'
14 '-y+1/2, -z+1/2, x+1/2'
15 '-x+1/2, -y+1/2, z+1/2'
16 '-z+1/2, x+1/2, -y+1/2'
17 '-y+1/2, z+1/2, -x+1/2'
18 '-x+1/2, y+1/2, -z+1/2'
19 'z+1/2, -x+1/2, -y+1/2'
20 'y+1/2, -z+1/2, -x+1/2'
21 'x+1/2, -y+1/2, -z+1/2'
22 'z+1/2, x+1/2, y+1/2'
23 'y+1/2, z+1/2, x+1/2'
24 'x+1/2, y+1/2, z+1/2'
loop_
_atom_type_symbol
_atom_type_oxidation_number
Al3+ 3
Ge4+ 4
O2- -2
Cs1+ 1
Na1+ 1
loop_
_atom_site_label
_atom_site_type_symbol
_atom_site_symmetry_multiplicity
_atom_site_Wyckoff_symbol
_atom_site_fract_x
_atom_site_fract_y
_atom_site_fract_z
_atom_site_B_iso_or_equiv
_atom_site_occupancy
_atom_site_attached_hydrogens
Al1 Al3+ 24 f 0.2811(7) 0.1336(6) 0.4353(5) 1.22(5) 1. 0
Ge1 Ge4+ 24 f 0.2178(2) -.0655(2) 0.3690(2) 1.22(5) 1. 0
O1 O2- 24 f 0.2320(12) 0.2397(12) 0.4162(8) 1.22(5) 1. 0
O2 O2- 24 f 0.3888(10) 0.1244(8) 0.3983(10) 1.22(5) 1. 0
O3 O2- 24 f 0.2853(8) 0.1130(9) 0.5490(9) 1.22(5) 1. 0
O4 O2- 24 f 0.2026(9) 0.0540(8) 0.3817(10) 1.22(5) 1. 0
Cs1 Cs1+ 6 b 0.5 0 0 3.68(12) 0.451(4) 0
Cs2 Cs1+ 8 c 0.1895(1) 0.1895(1) 0.1895(1) 3.68(12) 0.682(4) 0
Na1 Na1+ 8 c 0.3290(5) 0.3290(5) 0.3290(5) 3.68(12) 1. 0
Na2 Na1+ 24 f 0.3922(17) -.0385(28) -.0465(31) 3.68(12) 0.275(2) 0
#End of TTdata_88906-ICSD