
#(C) 2019 by FIZ Karlsruhe - Leibniz Institute for Information Infrastructure.  All rights reserved.
data_88916-ICSD
_database_code_ICSD 88916
_audit_creation_date 2001-07-16
_chemical_name_systematic 'Sodium carbonate tecto-hexaalumohexasilicate *'
_chemical_formula_structural 'Na7.262 (C O3)0.932 Al6 Si6 O24'
_chemical_formula_sum 'C0.932 Al6 Na7.262 O26.796 Si6'
_chemical_name_structure_type Cancrinite-frame
_chemical_name_mineral Cancrinite
_exptl_crystal_density_diffrn 2.18
_cell_measurement_temperature 295.
_publ_section_title

;
Characterization of cancrinite synthesized in 1,3-butanediol by Rietveld
analysis of powder neutron diffraction data and solid state (23)Na NMR
spectroscopy
;
loop_
_citation_id
_citation_journal_full
_citation_year
_citation_journal_volume
_citation_page_first
_citation_page_last
_citation_journal_id_ASTM
primary 'Microporous and Mesoporous Materials' 1999 30 293 305 MIMMFJ
loop_
_publ_author_name
'Burton, A.'
'Feuerstein, M.'
'Lobo, R.F.'
'Chan, J.C.C.'
_cell_length_a 12.6595(2)
_cell_length_b 12.6595(2)
_cell_length_c 5.1527(1)
_cell_angle_alpha 90.
_cell_angle_beta 90.
_cell_angle_gamma 120.
_cell_volume 715.15
_cell_formula_units_Z 1
_symmetry_space_group_name_H-M 'P 63'
_symmetry_Int_Tables_number 173
_refine_ls_R_factor_all 0.041
loop_
_symmetry_equiv_pos_site_id
_symmetry_equiv_pos_as_xyz
1 'x-y, x, z+1/2'
2 'y, -x+y, z+1/2'
3 '-x, -y, z+1/2'
4 '-x+y, -x, z'
5 '-y, x-y, z'
6 'x, y, z'
loop_
_atom_type_symbol
_atom_type_oxidation_number
Si4+ 4
Al3+ 3
O2- -2
Na1+ 1
C4+ 4
O2- -2
C4+ 4
O2- -2
loop_
_atom_site_label
_atom_site_type_symbol
_atom_site_symmetry_multiplicity
_atom_site_Wyckoff_symbol
_atom_site_fract_x
_atom_site_fract_y
_atom_site_fract_z
_atom_site_B_iso_or_equiv
_atom_site_occupancy
_atom_site_attached_hydrogens
Si1 Si4+ 6 c 0.3268(4) 0.4084(4) 0.7302(17) 0.0111 1. 0
Al1 Al3+ 6 c 0.0768(6) 0.4171(5) 0.7316(12) 0.0111 1. 0
O1 O2- 6 c 0.2009(5) 0.4027(2) 0.6495(12) 0.01901 1. 0
O2 O2- 6 c 0.1216(2) 0.5703(4) 0.7007(11) 0.01901 1. 0
O3 O2- 6 c 0.0300(5) 0.3536(6) 0.0367(6) 0.01901 1. 0
O4 O2- 6 c 0.3230(7) 0.3616(6) 0.0239(18) 0.01901 1. 0
Na1 Na1+ 2 b 0.6667 0.3333 0.0939(17) 0.03943 1. 0
Na2 Na1+ 6 c 0.1324(15) 0.2702(6) 0.2631(13) 0.03686 0.877(7) 0
C1 C4+ 2 a 0 0 -.0483(20) 0.04528 0.329(5) 0
O5 O2- 6 c 0.04019(9) 0.1166(1) -.0483(20) 0.04888 0.329(5) 0
C2 C4+ 2 a 0 0 0.125(6) 0.04528 0.137(5) 0
O6 O2- 6 c -.070(7) 0.8821(10) 0.125(6) 0.04888 0.137(5) 0
#End of TTdata_88916-ICSD