
#(C) 2019 by FIZ Karlsruhe - Leibniz Institute for Information Infrastructure.  All rights reserved.
data_88910-ICSD
_database_code_ICSD 88910
_audit_creation_date 2001-07-16
_chemical_name_systematic 'Octasodium hexakis(alumogermanate) dinitrate(III)'
_chemical_formula_structural 'Na8 (Al Ge O4)6 (N O2)2'
_chemical_formula_sum 'Al6 Ge6 N2 Na8 O28'
_chemical_name_structure_type Sodalite-frame
_exptl_crystal_density_diffrn 2.78
_publ_section_title

;
Crystallisation, characterisation and structure of nitrite aluminogermanate
sodalite Na8 (Al Ge O4)6 (N O2)2
;
loop_
_citation_id
_citation_journal_full
_citation_year
_citation_journal_volume
_citation_page_first
_citation_page_last
_citation_journal_id_ASTM
primary 'Microporous and Mesoporous Materials' 1999 28 35 47 MIMMFJ
loop_
_publ_author_name
'Bachmann, S.'
'Buhl, J.C.'
_cell_length_a 9.08571(1)
_cell_length_b 9.08571(1)
_cell_length_c 9.08571(1)
_cell_angle_alpha 90.
_cell_angle_beta 90.
_cell_angle_gamma 90.
_cell_volume 750.03
_cell_formula_units_Z 1
_symmetry_space_group_name_H-M 'P -4 3 n'
_symmetry_Int_Tables_number 218
_refine_ls_R_factor_all 0.021
loop_
_symmetry_equiv_pos_site_id
_symmetry_equiv_pos_as_xyz
1 '-z+1/2, y+1/2, -x+1/2'
2 '-y+1/2, x+1/2, -z+1/2'
3 '-x+1/2, z+1/2, -y+1/2'
4 'z+1/2, -y+1/2, -x+1/2'
5 'y+1/2, -x+1/2, -z+1/2'
6 'x+1/2, -z+1/2, -y+1/2'
7 '-z+1/2, -y+1/2, x+1/2'
8 '-y+1/2, -x+1/2, z+1/2'
9 '-x+1/2, -z+1/2, y+1/2'
10 'z+1/2, y+1/2, x+1/2'
11 'y+1/2, x+1/2, z+1/2'
12 'x+1/2, z+1/2, y+1/2'
13 '-z, -x, y'
14 '-y, -z, x'
15 '-x, -y, z'
16 'z, -x, -y'
17 'y, -z, -x'
18 'x, -y, -z'
19 '-z, x, -y'
20 '-y, z, -x'
21 '-x, y, -z'
22 'z, x, y'
23 'y, z, x'
24 'x, y, z'
loop_
_atom_type_symbol
_atom_type_oxidation_number
Ge4+ 4
Al3+ 3
O2- -2
Na1+ 1
N3+ 3
O2- -2
loop_
_atom_site_label
_atom_site_type_symbol
_atom_site_symmetry_multiplicity
_atom_site_Wyckoff_symbol
_atom_site_fract_x
_atom_site_fract_y
_atom_site_fract_z
_atom_site_B_iso_or_equiv
_atom_site_occupancy
_atom_site_attached_hydrogens
Ge1 Ge4+ 6 c 0.25 0.5 0 0.45(1) 1. 0
Al1 Al3+ 6 d 0.25 0 0.5 0.25(3) 1. 0
O1 O2- 24 i 0.1451(2) 0.1446(2) 0.4319(3) 0.76(6) 1. 0
Na1 Na1+ 8 e 0.1803(2) 0.1803(2) 0.1803(2) 1.51(7) 0.991(3) 0
N1 N3+ 2 a 0 0 0 8.5(7) 1. 0
O2 O2- 24 i 0.398(2) 0.441(4) 0.474(4) 4.2(8) 0.1675(9) 0
#End of TTdata_88910-ICSD