
#(C) 2019 by FIZ Karlsruhe - Leibniz Institute for Information Infrastructure.  All rights reserved.
data_89033-ICSD
_database_code_ICSD 89033
_audit_creation_date 2001-07-16
_chemical_name_systematic 'Disodium bis(dioxouranium(VI)) silicate difluoride'
_chemical_formula_structural 'Na2 (U O2)2 (Si O4) F2'
_chemical_formula_sum 'F2 Na2 O8 Si1 U2'
_exptl_crystal_density_diffrn 5.34
_publ_section_title

;
The crystal structure of Na2 (U O2)2 Si O4 F2, a compound structurally related
to soddyite, and formed during uranyl silicate synthesis in Teflon-lined bombs
;
loop_
_citation_id
_citation_journal_full
_citation_year
_citation_journal_volume
_citation_page_first
_citation_page_last
_citation_journal_id_ASTM
primary 'Neues Jahrbuch fuer Mineralogie, Monatshefte' 1999 1999 253 264 NJMMAW
loop_
_publ_author_name
'Blaton, N.'
'Vochten, R.'
'Peters, O.M.'
'van Springel, K.'
_cell_length_a 6.975(8)
_cell_length_b 6.975(8)
_cell_length_c 18.31(2)
_cell_angle_alpha 90.
_cell_angle_beta 90.
_cell_angle_gamma 90.
_cell_volume 890.79
_cell_formula_units_Z 4
_symmetry_space_group_name_H-M 'I 41/a m d Z'
_symmetry_Int_Tables_number 141
_refine_ls_R_factor_all 0.03
loop_
_symmetry_equiv_pos_site_id
_symmetry_equiv_pos_as_xyz
1 'y+1/4, x+3/4, -z+1/4'
2 'y+1/4, -x+3/4, -z+1/4'
3 'x, y+1/2, -z'
4 'x, -y, -z'
5 '-y+3/4, x+3/4, -z+1/4'
6 '-y+3/4, -x+3/4, -z+1/4'
7 '-x, y+1/2, -z'
8 '-x, -y, -z'
9 '-y+3/4, -x+1/4, z+3/4'
10 '-y+3/4, x+1/4, z+3/4'
11 '-x, -y+1/2, z'
12 '-x, y, z'
13 'y+1/4, -x+1/4, z+3/4'
14 'y+1/4, x+1/4, z+3/4'
15 'x, -y+1/2, z'
16 'x, y, z'
17 'y+3/4, x+1/4, -z+3/4'
18 'y+3/4, -x+1/4, -z+3/4'
19 'x+1/2, y, -z+1/2'
20 'x+1/2, -y+1/2, -z+1/2'
21 '-y+1/4, x+1/4, -z+3/4'
22 '-y+1/4, -x+1/4, -z+3/4'
23 '-x+1/2, y, -z+1/2'
24 '-x+1/2, -y+1/2, -z+1/2'
25 '-y+1/4, -x+3/4, z+1/4'
26 '-y+1/4, x+3/4, z+1/4'
27 '-x+1/2, -y, z+1/2'
28 '-x+1/2, y+1/2, z+1/2'
29 'y+3/4, -x+3/4, z+1/4'
30 'y+3/4, x+3/4, z+1/4'
31 'x+1/2, -y, z+1/2'
32 'x+1/2, y+1/2, z+1/2'
loop_
_atom_type_symbol
_atom_type_oxidation_number
U6+ 6
Si4+ 4
F1- -1
O2- -2
Na1+ 1
loop_
_atom_site_label
_atom_site_type_symbol
_atom_site_symmetry_multiplicity
_atom_site_Wyckoff_symbol
_atom_site_fract_x
_atom_site_fract_y
_atom_site_fract_z
_atom_site_B_iso_or_equiv
_atom_site_occupancy
_atom_site_attached_hydrogens
U1 U6+ 8 e 0.5 0.25 0.95147(2) 0.0146(3) 1. 0
Si1 Si4+ 4 b 0.5 0.25 0.125 0.0133(11) 1. 0
F1 F1- 8 e 0.5 0.25 0.8292(3) 0.034(4) 1. 0
O1 O2- 16 h 0.2417(15) 0.25 -.0490(2) 0.027(3) 1. 0
O2 O2- 16 h 0.6747(12) 0.25 0.1822(2) 0.019(3) 1. 0
Na1 Na1+ 8 c 0 0 0 0.045(3) 1. 0
#End of TTdata_89033-ICSD