
#(C) 2019 by FIZ Karlsruhe - Leibniz Institute for Information Infrastructure.  All rights reserved.
data_89067-ICSD
_database_code_ICSD 89067
_audit_creation_date 2001-07-16
_audit_update_record 2003-04-01
_chemical_name_systematic
'Sodium lanthanum thorium titanium oxide (0.9/0.68/0.26/2/6)'
_chemical_formula_structural '(Na0.9 La0.68 Th0.26) Ti2 O6'
_chemical_formula_sum 'La0.68 Na0.9 O6 Th0.26 Ti2'
_chemical_name_structure_type Perovskite-SrTiO3
_chemical_name_mineral 'Loparite (Th-rich)'
_exptl_crystal_density_diffrn 5.27
_publ_section_title

;
Solid solubility in the system Na LREE Ti2 O6 - Th Ti2 O6 (LREE, light rare
earth elements) : experimental and analytical data
;
loop_
_citation_id
_citation_journal_full
_citation_year
_citation_journal_volume
_citation_page_first
_citation_page_last
_citation_journal_id_ASTM
primary 'Physics and Chemistry of Minerals' 1999 26 396 405 PCMIDU
loop_
_publ_author_name
'Mitchell, R.H.'
'Chakhmouradian, A.R.'
_cell_length_a 5.4652(1)
_cell_length_b 5.4652(1)
_cell_length_c 7.7476(2)
_cell_angle_alpha 90.
_cell_angle_beta 90.
_cell_angle_gamma 90.
_cell_volume 231.41
_cell_formula_units_Z 2
_symmetry_space_group_name_H-M 'I 4/m c m'
_symmetry_Int_Tables_number 140
_refine_ls_R_factor_all 0.061
loop_
_symmetry_equiv_pos_site_id
_symmetry_equiv_pos_as_xyz
1 'y, x, -z+1/2'
2 '-y, -x, -z+1/2'
3 '-y, x, -z'
4 'y, -x, -z'
5 'x, -y, -z+1/2'
6 '-x, y, -z+1/2'
7 'x, y, -z'
8 '-x, -y, -z'
9 '-y, -x, z+1/2'
10 'y, x, z+1/2'
11 'y, -x, z'
12 '-y, x, z'
13 '-x, y, z+1/2'
14 'x, -y, z+1/2'
15 '-x, -y, z'
16 'x, y, z'
17 'y+1/2, x+1/2, -z'
18 '-y+1/2, -x+1/2, -z'
19 '-y+1/2, x+1/2, -z+1/2'
20 'y+1/2, -x+1/2, -z+1/2'
21 'x+1/2, -y+1/2, -z'
22 '-x+1/2, y+1/2, -z'
23 'x+1/2, y+1/2, -z+1/2'
24 '-x+1/2, -y+1/2, -z+1/2'
25 '-y+1/2, -x+1/2, z'
26 'y+1/2, x+1/2, z'
27 'y+1/2, -x+1/2, z+1/2'
28 '-y+1/2, x+1/2, z+1/2'
29 '-x+1/2, y+1/2, z'
30 'x+1/2, -y+1/2, z'
31 '-x+1/2, -y+1/2, z+1/2'
32 'x+1/2, y+1/2, z+1/2'
loop_
_atom_type_symbol
_atom_type_oxidation_number
Na1+ 1
La3+ 3
Th4+ 4
Ti4+ 4
O2- -2
loop_
_atom_site_label
_atom_site_type_symbol
_atom_site_symmetry_multiplicity
_atom_site_Wyckoff_symbol
_atom_site_fract_x
_atom_site_fract_y
_atom_site_fract_z
_atom_site_B_iso_or_equiv
_atom_site_occupancy
_atom_site_attached_hydrogens
Na1 Na1+ 4 b 0 0.5 0.25 0.85(3) 0.45 0
La1 La3+ 4 b 0 0.5 0.25 0.85(3) 0.34 0
Th1 Th4+ 4 b 0 0.5 0.25 0.85(3) 0.13 0
Ti1 Ti4+ 4 c 0 0 0 0.74(5) 1. 0
O1 O2- 4 a 0 0 0.25 2.8(8) 1. 0
O2 O2- 8 h 0.224(2) 0.724(2) 0 1.7(3) 1. 0
#End of TTdata_89067-ICSD