
#(C) 2019 by FIZ Karlsruhe - Leibniz Institute for Information Infrastructure.  All rights reserved.
data_89258-ICSD
_database_code_ICSD 89258
_audit_creation_date 2001-07-16
_audit_update_record 2014-08-01
_chemical_name_systematic 'Sodium yttrium carbonate difluoride'
_chemical_formula_structural 'Na Y (C O3) F2'
_chemical_formula_sum 'C1 F2 Na1 O3 Y1'
_chemical_name_structure_type NaYCO3F2
_chemical_name_mineral Horvathite-(Y)
_exptl_crystal_density_diffrn 3.47
_publ_section_title

;
Horvathite-(Y), rare earth fluorocarbonate, a new mineral species from Mont
Saint-Hillaire, Quebec
;
loop_
_citation_id
_citation_journal_full
_citation_year
_citation_journal_volume
_citation_page_first
_citation_page_last
_citation_journal_id_ASTM
primary 'Canadian Mineralogist' 1997 35 743 749 CAMIA6
loop_
_publ_author_name
'Grice, J.D.'
'Chao, G.-Y.'
_cell_length_a 6.959(2)
_cell_length_b 9.170(2)
_cell_length_c 6.301(1)
_cell_angle_alpha 90.
_cell_angle_beta 90.
_cell_angle_gamma 90.
_cell_volume 402.09
_cell_formula_units_Z 4
_symmetry_space_group_name_H-M 'P m c n'
_symmetry_Int_Tables_number 62
_refine_ls_R_factor_all 0.016
loop_
_symmetry_equiv_pos_site_id
_symmetry_equiv_pos_as_xyz
1 'x, -y+1/2, z+1/2'
2 '-x+1/2, y, z'
3 'x+1/2, y+1/2, -z+1/2'
4 '-x, -y, -z'
5 '-x, y+1/2, -z+1/2'
6 'x+1/2, -y, -z'
7 '-x+1/2, -y+1/2, z+1/2'
8 'x, y, z'
loop_
_atom_type_symbol
_atom_type_oxidation_number
Na1+ 1
Y3+ 3
C4+ 4
O2- -2
F1- -1
loop_
_atom_site_label
_atom_site_type_symbol
_atom_site_symmetry_multiplicity
_atom_site_Wyckoff_symbol
_atom_site_fract_x
_atom_site_fract_y
_atom_site_fract_z
_atom_site_B_iso_or_equiv
_atom_site_occupancy
_atom_site_attached_hydrogens
Na1 Na1+ 4 c 0.25 0.2175(2) 0.1711(2) 0.023(1) 1. 0
Y1 Y3+ 4 c 0.75 0.42143(3) 0.98695(5) 0.0092(1) 1. 0
C1 C4+ 4 c 0.75 0.0590(4) 0.0401(5) 0.014(1) 1. 0
O1 O2- 4 c 0.25 0.8144(3) 0.8691(4) 0.019(1) 1. 0
O2 O2- 4 c 0.75 0.4554(3) 0.3421(4) 0.026(1) 1. 0
O3 O2- 4 c 0.25 0.0508(3) 0.8375(4) 0.022(1) 1. 0
F1 F1- 8 d 0.5607(2) 0.6300(2) 0.0420(2) 0.018(1) 1. 0
#End of TTdata_89258-ICSD