
#(C) 2018 by FIZ Karlsruhe - Leibniz Institute for Information Infrastructure.  All rights reserved.
data_89379-ICSD
_database_code_ICSD 89379
_audit_creation_date 2001-07-16
_chemical_name_systematic 'Lithium niobium oxide (0.79/1/2)'
_chemical_formula_structural 'Li0.795 Nb O2'
_chemical_formula_sum 'Li0.795 Nb1 O2'
_chemical_name_structure_type Li1-xNbO2
_exptl_crystal_density_diffrn 5.59
_publ_section_title
'Superstructure and superconductivity in Li1-x Nb O2 (x=0.7) single crystals'
loop_
_citation_id
_citation_journal_full
_citation_year
_citation_journal_volume
_citation_page_first
_citation_page_last
_citation_journal_id_ASTM
primary 'Physical Review, Serie 3. B - Condensed Matter (18,1978-)' 1999 59 9590
9599 PRBMDO
loop_
_publ_author_name
'Moshopoulou, E.G.'
'Bordet, P.'
'Capponi, J.J.'
_cell_length_a 2.9239(4)
_cell_length_b 2.9239(4)
_cell_length_c 20.9140(20)
_cell_angle_alpha 90.
_cell_angle_beta 90.
_cell_angle_gamma 120.
_cell_volume 154.84
_cell_formula_units_Z 4
_symmetry_space_group_name_H-M 'P -3 m 1'
_symmetry_Int_Tables_number 164
_refine_ls_R_factor_all 0.013
loop_
_symmetry_equiv_pos_site_id
_symmetry_equiv_pos_as_xyz
1 'x-y, -y, -z'
2 '-x, -x+y, -z'
3 'y, x, -z'
4 'x-y, x, -z'
5 'y, -x+y, -z'
6 '-x, -y, -z'
7 '-x+y, y, z'
8 'x, x-y, z'
9 '-y, -x, z'
10 '-x+y, -x, z'
11 '-y, x-y, z'
12 'x, y, z'
loop_
_atom_type_symbol
_atom_type_oxidation_number
Li1+ 1
Nb3+ 3.21
O2- -2
loop_
_atom_site_label
_atom_site_type_symbol
_atom_site_symmetry_multiplicity
_atom_site_Wyckoff_symbol
_atom_site_fract_x
_atom_site_fract_y
_atom_site_fract_z
_atom_site_B_iso_or_equiv
_atom_site_occupancy
_atom_site_attached_hydrogens
Li1 Li1+ 1 a 0 0 0 . 1. 0
Li2 Li1+ 1 b 0 0 0.5 . 0.50(14) 0
Li3 Li1+ 2 c 0 0 0.248(6) . 0.84(7) 0
Nb1 Nb3+ 2 d 0.3333 0.6667 0.3741(2) . 1. 0
Nb2 Nb3+ 2 d 0.3333 0.6667 0.8755(2) . 1. 0
O1 O2- 2 d 0.3333 0.6667 0.058(1) . 1. 0
O2 O2- 2 d 0.3333 0.6667 0.680(1) . 1. 0
O3 O2- 2 d 0.3333 0.6667 0.188(1) . 1. 0
O4 O2- 2 d 0.3333 0.6667 0.572(1) . 1. 0
loop_
_atom_site_aniso_label
_atom_site_aniso_type_symbol
_atom_site_aniso_U_11
_atom_site_aniso_U_22
_atom_site_aniso_U_33
_atom_site_aniso_U_12
_atom_site_aniso_U_13
_atom_site_aniso_U_23
Li1 Li1+ 0.022(7) 0.022(7) 0.022(7) 0.0110(35) 0 0
Li2 Li1+ 0.022(7) 0.022(7) 0.022(7) 0.0110(35) 0 0
Li3 Li1+ 0.022(7) 0.022(7) 0.022(7) 0.0110(35) 0 0
Nb1 Nb3+ 0.0070(5) 0.0070(5) 0.019(2) 0.00350(25) 0 0
Nb2 Nb3+ 0.0070(5) 0.0070(5) 0.019(2) 0.00350(25) 0 0
O1 O2- 0.013(3) 0.013(3) 0.014(7) 0.0065(15) 0 0
O2 O2- 0.013(3) 0.013(3) 0.014(7) 0.0065(15) 0 0
O3 O2- 0.013(3) 0.013(3) 0.014(7) 0.0065(15) 0 0
O4 O2- 0.013(3) 0.013(3) 0.014(7) 0.0065(15) 0 0
#End of TTdata_89379-ICSD