
#(C) 2019 by FIZ Karlsruhe - Leibniz Institute for Information Infrastructure.  All rights reserved.
data_89468-ICSD
_database_code_ICSD 89468
_audit_creation_date 2002-04-01
_chemical_name_systematic 'Disodium calcium diphosphate(V)'
_chemical_formula_structural 'Na2 Ca (P2 O7)'
_chemical_formula_sum 'Ca1 Na2 O7 P2'
_chemical_name_structure_type Na2ZrSi2O7
_exptl_crystal_density_diffrn 2.8
_publ_section_title 'Synthesis and crystal structure of Na2 Ca P2 O7'
loop_
_citation_id
_citation_journal_full
_citation_year
_citation_journal_volume
_citation_page_first
_citation_page_last
_citation_journal_id_ASTM
primary 'Solid State Sciences' 1999 1 373 380 SSSCFJ
loop_
_publ_author_name
'Bennazha, J.'
'Boukhari, A.'
'Holt, E.M.'
_cell_length_a 5.361(3)
_cell_length_b 7.029(3)
_cell_length_c 8.743(4)
_cell_angle_alpha 69.40(2)
_cell_angle_beta 89.02(3)
_cell_angle_gamma 88.78(4)
_cell_volume 308.31
_cell_formula_units_Z 2
_symmetry_space_group_name_H-M 'P -1'
_symmetry_Int_Tables_number 2
_refine_ls_R_factor_all 0.044
loop_
_symmetry_equiv_pos_site_id
_symmetry_equiv_pos_as_xyz
1 '-x, -y, -z'
2 'x, y, z'
loop_
_atom_type_symbol
_atom_type_oxidation_number
Ca2+ 2
Na1+ 1
P5+ 5
O2- -2
P5+ 5
O2- -2
loop_
_atom_site_label
_atom_site_type_symbol
_atom_site_symmetry_multiplicity
_atom_site_Wyckoff_symbol
_atom_site_fract_x
_atom_site_fract_y
_atom_site_fract_z
_atom_site_B_iso_or_equiv
_atom_site_occupancy
_atom_site_attached_hydrogens
Ca1 Ca2+ 2 i 0.2331(1) 0.2454(1) 0.7219(1) 0.016(1) 1. 0
Na1 Na1+ 2 i 0.2347(3) 0.8612(3) 0.5476(2) 0.024(1) 1. 0
Na2 Na1+ 2 i 0.2641(4) 0.7842(3) 0.9814(2) 0.039(1) 1. 0
P1 P5+ 2 i 0.2477(2) 0.1176(1) 0.1747(1) 0.014(1) 1. 0
O1 O2- 2 i 0.2747(5) 0.1284(4) 0.0016(3) 0.024(1) 1. 0
O2 O2- 2 i 0.4579(5) 0.0049(4) 0.2819(3) 0.020(1) 1. 0
O3 O2- 2 i -.0057(5) 0.0511(4) 0.2459(3) 0.019(1) 1. 0
O4 O2- 2 i 0.2700(5) 0.3514(4) 0.1586(3) 0.018(1) 1. 0
P2 P5+ 2 i 0.2949(2) 0.4317(1) 0.3095(1) 0.015(1) 1. 0
O5 O2- 2 i 0.1756(5) 0.2758(4) 0.4545(3) 0.022(1) 1. 0
O6 O2- 2 i 0.1615(5) 0.6326(4) 0.2489(4) 0.025(1) 1. 0
O7 O2- 2 i 0.5693(5) 0.4510(4) 0.3295(4) 0.024(1) 1. 0
#End of TTdata_89468-ICSD