
#(C) 2019 by FIZ Karlsruhe - Leibniz Institute for Information Infrastructure.  All rights reserved.
data_89464-ICSD
_database_code_ICSD 89464
_audit_creation_date 2002-04-01
_chemical_name_systematic 'Sodium niobium fluoride chloride (1.87/7/13.32/7.68)'
_chemical_formula_structural 'Na1.87 Nb7 F9 (F4.32 Cl7.68)'
_chemical_formula_sum 'Cl7.68 F13.32 Na1.87 Nb7'
_exptl_crystal_density_diffrn 3.67
_cell_measurement_temperature 298.
_publ_section_title

;
The first chlorofluoride in niobium cluster chemistry structure of the double
salt: Nax Nb7 F21-y Cly (x=2; y=8)
;
loop_
_citation_id
_citation_journal_full
_citation_year
_citation_journal_volume
_citation_page_first
_citation_page_last
_citation_journal_id_ASTM
primary 'Solid State Sciences' 1999 1 199 209 SSSCFJ
loop_
_publ_author_name
'Cordier, S.'
'Simon, A.'
_cell_length_a 8.2005(9)
_cell_length_b 8.2005(9)
_cell_length_c 8.2005(9)
_cell_angle_alpha 90.
_cell_angle_beta 90.
_cell_angle_gamma 90.
_cell_volume 551.47
_cell_formula_units_Z 1
_symmetry_space_group_name_H-M 'P m -3 m'
_symmetry_Int_Tables_number 221
_refine_ls_R_factor_all 0.033
loop_
_symmetry_equiv_pos_site_id
_symmetry_equiv_pos_as_xyz
1 'z, y, -x'
2 'y, x, -z'
3 'x, z, -y'
4 'z, x, -y'
5 'y, z, -x'
6 'x, y, -z'
7 'z, -y, x'
8 'y, -x, z'
9 'x, -z, y'
10 'z, -x, y'
11 'y, -z, x'
12 'x, -y, z'
13 '-z, y, x'
14 '-y, x, z'
15 '-x, z, y'
16 '-z, x, y'
17 '-y, z, x'
18 '-x, y, z'
19 '-z, -y, -x'
20 '-y, -x, -z'
21 '-x, -z, -y'
22 '-z, -x, -y'
23 '-y, -z, -x'
24 '-x, -y, -z'
25 '-z, -y, x'
26 '-y, -x, z'
27 '-x, -z, y'
28 '-z, -x, y'
29 '-y, -z, x'
30 '-x, -y, z'
31 '-z, y, -x'
32 '-y, x, -z'
33 '-x, z, -y'
34 '-z, x, -y'
35 '-y, z, -x'
36 '-x, y, -z'
37 'z, -y, -x'
38 'y, -x, -z'
39 'x, -z, -y'
40 'z, -x, -y'
41 'y, -z, -x'
42 'x, -y, -z'
43 'z, y, x'
44 'y, x, z'
45 'x, z, y'
46 'z, x, y'
47 'y, z, x'
48 'x, y, z'
loop_
_atom_type_symbol
_atom_type_oxidation_number
Nb2+ 2.733
Cl1- -1
F1- -1
Na1+ 1
loop_
_atom_site_label
_atom_site_type_symbol
_atom_site_symmetry_multiplicity
_atom_site_Wyckoff_symbol
_atom_site_fract_x
_atom_site_fract_y
_atom_site_fract_z
_atom_site_B_iso_or_equiv
_atom_site_occupancy
_atom_site_attached_hydrogens
Nb1 Nb2+ 6 e 0.2441(1) 0 0 0.84(1) 1. 0
Nb2 Nb2+ 1 b 0.5 0.5 0.5 3.45(2) 1. 0
Cl1 Cl1- 12 i 0 0.2850(4) 0.2850(4) 3.40(5) 0.64 0
F1 F1- 12 i 0 0.2850(4) 0.2850(4) 3.40(5) 0.36 0
F2 F1- 3 d 0.5 0 0 6.6(3) 1. 0
F3 F1- 6 f 0.271(2) 0.5 0.5 11.5(4) 1. 0
Na1 Na1+ 12 h 0.410(3) 0.5 0 2.2(5) 0.156(8) 0
#End of TTdata_89464-ICSD