
#(C) 2019 by FIZ Karlsruhe - Leibniz Institute for Information Infrastructure.  All rights reserved.
data_89569-ICSD
_database_code_ICSD 89569
_audit_creation_date 2002-04-01
_chemical_name_systematic 'Sodium zirconium sulfide (1.91/1.09/3)'
_chemical_formula_structural 'Na1.912 Zr1.088 S3'
_chemical_formula_sum 'Na1.912 S3 Zr1.088'
_chemical_name_structure_type Li5ReO6
_exptl_crystal_density_diffrn 3.15
_publ_section_title

;
Na2 Zr S3 : ein ternaeres Sulfid des Zirconiums mit aufgefuellter (Al
Cl3)-Struktur
;
loop_
_citation_id
_citation_journal_full
_citation_year
_citation_journal_volume
_citation_page_first
_citation_page_last
_citation_journal_id_ASTM
primary 'Zeitschrift fuer Anorganische und Allgemeine Chemie (1950) (DE)' 1999
625 195 196 ZAACAB
loop_
_publ_author_name
'Lissner, F.'
'Schleid, T.'
_cell_length_a 6.6469(6)
_cell_length_b 11.525(1)
_cell_length_c 6.9548(7)
_cell_angle_alpha 90.
_cell_angle_beta 108.78(1)
_cell_angle_gamma 90.
_cell_volume 504.41
_cell_formula_units_Z 4
_symmetry_space_group_name_H-M 'C 1 2/m 1'
_symmetry_Int_Tables_number 12
_refine_ls_R_factor_all 0.041
loop_
_symmetry_equiv_pos_site_id
_symmetry_equiv_pos_as_xyz
1 '-x, y, -z'
2 '-x, -y, -z'
3 'x, -y, z'
4 'x, y, z'
5 '-x+1/2, y+1/2, -z'
6 '-x+1/2, -y+1/2, -z'
7 'x+1/2, -y+1/2, z'
8 'x+1/2, y+1/2, z'
loop_
_atom_type_symbol
_atom_type_oxidation_number
Na1+ 1
Zr3+ 3.758
Na1+ 1
Zr3+ 3.758
S2- -2
loop_
_atom_site_label
_atom_site_type_symbol
_atom_site_symmetry_multiplicity
_atom_site_Wyckoff_symbol
_atom_site_fract_x
_atom_site_fract_y
_atom_site_fract_z
_atom_site_B_iso_or_equiv
_atom_site_occupancy
_atom_site_attached_hydrogens
Na1 Na1+ 2 a 0 0 0 . 0.825(4) 0
Zr1 Zr3+ 2 a 0 0 0 . 0.175(4) 0
Na2 Na1+ 2 d 0 0.5 0.5 . 1. 0
Na3 Na1+ 4 h 0 0.1593(2) 0.5 . 1. 0
Zr2 Zr3+ 4 g 0 0.33213(4) 0 . 1. 0
S1 S2- 4 i 0.2830(2) 0 0.7786(2) . 1. 0
S2 S2- 8 j 0.2534(2) 0.17893(8) 0.2217(1) . 1. 0
loop_
_atom_site_aniso_label
_atom_site_aniso_type_symbol
_atom_site_aniso_U_11
_atom_site_aniso_U_22
_atom_site_aniso_U_33
_atom_site_aniso_U_12
_atom_site_aniso_U_13
_atom_site_aniso_U_23
Na1 Na1+ 0.0109(14) 0.0078(10) 0.0120(11) 0 0.0032(8) 0
Zr1 Zr3+ 0.0109(14) 0.0078(10) 0.0120(11) 0 0.0032(8) 0
Na2 Na1+ 0.0140(18) 0.0155(15) 0.0132(14) 0 0.0069(12) 0
Na3 Na1+ 0.0144(14) 0.0128(11) 0.0118(11) 0 0.0006(9) 0
Zr2 Zr3+ 0.0066(3) 0.0054(3) 0.0094(3) 0 0.0034(2) 0
S1 S2- 0.0113(8) 0.0049(6) 0.0059(5) 0 0.0012(5) 0
S2 S2- 0.0084(6) 0.0107(5) 0.0061(4) 0.0037(3) 0.0023(4) 0.0012(3)
#End of TTdata_89569-ICSD