
#(C) 2017 by FIZ Karlsruhe - Leibniz Institute for Information Infrastructure.  All rights reserved.
data_89617-ICSD
_database_code_ICSD 89617
_audit_creation_date 2002-04-01
_chemical_name_systematic 'Trilithium indium chloride'
_chemical_formula_structural 'Li3 In Cl6'
_chemical_formula_sum 'Cl6 In1 Li3'
_chemical_name_structure_type Li3ScCl6
_exptl_crystal_density_diffrn 2.69
_publ_section_title

;
Ternaere Halogenide vom Typ A3 M X6. VIII. Zur Kristallstruktur von Li3 In Cl6
;
loop_
_citation_id
_citation_journal_full
_citation_year
_citation_journal_volume
_citation_page_first
_citation_page_last
_citation_journal_id_ASTM
primary 'Zeitschrift fuer Anorganische und Allgemeine Chemie (1950) (DE)' 1999
625 539 540 ZAACAB
loop_
_publ_author_name
'Schmidt, M.O.'
'Wickleder, M.S.'
'Meyer, G.'
_cell_length_a 6.432(3)
_cell_length_b 11.093(3)
_cell_length_c 6.398(3)
_cell_angle_alpha 90.
_cell_angle_beta 109.8(1)
_cell_angle_gamma 90.
_cell_volume 429.51
_cell_formula_units_Z 2
_symmetry_space_group_name_H-M 'C 1 2/m 1'
_symmetry_Int_Tables_number 12
_refine_ls_R_factor_all 0.055
loop_
_symmetry_equiv_pos_site_id
_symmetry_equiv_pos_as_xyz
1 '-x, y, -z'
2 '-x, -y, -z'
3 'x, -y, z'
4 'x, y, z'
5 '-x+1/2, y+1/2, -z'
6 '-x+1/2, -y+1/2, -z'
7 'x+1/2, -y+1/2, z'
8 'x+1/2, y+1/2, z'
loop_
_atom_type_symbol
_atom_type_oxidation_number
Li1+ 1
In3+ 3
Cl1- -1
loop_
_atom_site_label
_atom_site_type_symbol
_atom_site_symmetry_multiplicity
_atom_site_Wyckoff_symbol
_atom_site_fract_x
_atom_site_fract_y
_atom_site_fract_z
_atom_site_B_iso_or_equiv
_atom_site_occupancy
_atom_site_attached_hydrogens
Li1 Li1+ 4 h 0 0.1683(8) 0.5 . 1. 0
Li2 Li1+ 2 d 0.5 0 0.5 . 1. 0
In1 In3+ 2 a 0 0 0 . 0.875(5) 0
In2 In3+ 4 g 0 0.3333(15) 0 . 0.070(3) 0
Cl1 Cl1- 8 j 0.2421(4) 0.1622(2) 0.2388(4) . 1. 0
Cl2 Cl1- 4 i 0.2450(5) 0 0.7662(5) . 1. 0
loop_
_atom_site_aniso_label
_atom_site_aniso_type_symbol
_atom_site_aniso_U_11
_atom_site_aniso_U_22
_atom_site_aniso_U_33
_atom_site_aniso_U_12
_atom_site_aniso_U_13
_atom_site_aniso_U_23
Li1 Li1+ 0.054(25) 0.229(86) 0.095(35) 0 0.024(24) 0
Li2 Li1+ 0.087(62) 0.081(60) 0.53(34) 0 -0.06(11) 0
In1 In3+ 0.0181(9) 0.0145(9) 0.0302(10) 0 0.0155(7) 0
In2 In3+ 0.044(10) 0.038(10) 0.049(10) 0 0.0238(9) 0
Cl1 Cl1- 0.032(2) 0.027(2) 0.036(2) -.0043(9) 0.015(1) -.0030(9)
Cl2 Cl1- 0.031(2) 0.033(2) 0.035(2) 0 0.022(2) 0
#End of TTdata_89617-ICSD