
#(C) 2019 by FIZ Karlsruhe - Leibniz Institute for Information Infrastructure.  All rights reserved.
data_89794-ICSD
_database_code_ICSD 89794
_audit_creation_date 2002-04-01
_chemical_name_systematic 'Disodium dicalcium diphosphate(V) difluoride'
_chemical_formula_structural 'Na2 Ca2 (P2 O7) F2'
_chemical_formula_sum 'Ca2 F2 Na2 O7 P2'
_exptl_crystal_density_diffrn 2.8
_publ_section_title
'Na2 Ca2 (P2 O7) F2, the first diphosphate of the cuspidine family'
loop_
_citation_id
_citation_journal_full
_citation_year
_citation_journal_volume
_citation_page_first
_citation_page_last
_citation_journal_id_ASTM
primary 'American Mineralogist' 2000 85 1534 1539 AMMIAY
loop_
_publ_author_name
'Piotrowski, A.'
'Kahlenberg, V.'
'Fischer, R.X.'
_cell_length_a 10.8730(21)
_cell_length_b 10.5516(25)
_cell_length_c 7.4287(13)
_cell_angle_alpha 90.
_cell_angle_beta 109.74(2)
_cell_angle_gamma 90.
_cell_volume 802.19
_cell_formula_units_Z 4
_symmetry_space_group_name_H-M 'P 1 21/n 1'
_symmetry_Int_Tables_number 14
_refine_ls_R_factor_all 0.043
loop_
_symmetry_equiv_pos_site_id
_symmetry_equiv_pos_as_xyz
1 '-x+1/2, y+1/2, -z+1/2'
2 '-x, -y, -z'
3 'x+1/2, -y+1/2, z+1/2'
4 'x, y, z'
loop_
_atom_type_symbol
_atom_type_oxidation_number
Ca2+ 2
Na1+ 1
Ca2+ 2
Na1+ 1
Ca2+ 2
Na1+ 1
Ca2+ 2
Na1+ 1
P5+ 5
F1- -1
O2- -2
loop_
_atom_site_label
_atom_site_type_symbol
_atom_site_symmetry_multiplicity
_atom_site_Wyckoff_symbol
_atom_site_fract_x
_atom_site_fract_y
_atom_site_fract_z
_atom_site_B_iso_or_equiv
_atom_site_occupancy
_atom_site_attached_hydrogens
Ca1 Ca2+ 4 e 0.5754(1) 0.8767(1) 0.6647(2) . 0.825 0
Na1 Na1+ 4 e 0.5754(1) 0.8767(1) 0.6647(2) . 0.175 0
Ca2 Ca2+ 4 e 0.8070(2) 0.1026(2) 0.5277(3) . 0.4525 0
Na2 Na1+ 4 e 0.8070(2) 0.1026(2) 0.5277(3) . 0.5475 0
Ca3 Ca2+ 4 e 0.8174(2) 0.0835(2) 0.0339(3) . 0.535 0
Na3 Na1+ 4 e 0.8174(2) 0.0835(2) 0.0339(3) . 0.465 0
Ca4 Ca2+ 4 e 0.5819(2) 0.8869(2) 0.1625(4) . 0.1875 0
Na4 Na1+ 4 e 0.5819(2) 0.8869(2) 0.1625(4) . 0.8125 0
P1 P5+ 4 e 0.1241(1) 0.1832(2) 0.6435(2) . 1. 0
P2 P5+ 4 e 0.6226(1) 0.3172(2) 0.7296(2) . 1. 0
F1 F1- 4 e 0.6126(4) 0.0022(3) 0.9231(6) . 1. 0
F2 F1- 4 e 0.6097(4) 0.0051(3) 0.4371(6) . 1. 0
O1 O2- 4 e 0.1670(15) 0.2114(13) 0.4546(25) 0.0284(15) 0.5 0
O2 O2- 4 e 0.0752(7) 0.1977(7) 0.4130(12) 0.0287(15) 0.5 0
O3 O2- 4 e 0.8490(7) 0.9541(5) 0.7885(10) . 1. 0
O4 O2- 4 e 0.9975(5) 0.2320(5) 0.6535(11) . 1. 0
O5 O2- 4 e 0.1506(6) 0.0458(4) 0.6888(10) . 1. 0
O6 O2- 4 e 0.9977(5) 0.2300(5) 0.0903(10) . 1. 0
O7 O2- 4 e 0.7392(5) 0.2353(5) 0.7466(12) . 1. 0
O8 O2- 4 e 0.2399(5) 0.2659(5) 0.7412(11) . 1. 0
loop_
_atom_site_aniso_label
_atom_site_aniso_type_symbol
_atom_site_aniso_U_11
_atom_site_aniso_U_22
_atom_site_aniso_U_33
_atom_site_aniso_U_12
_atom_site_aniso_U_13
_atom_site_aniso_U_23
Ca1 Ca2+ 0.0127(8) 0.0105(7) 0.0098(9) 0.0034(6) 0.0043(6) 0.0009(6)
Na1 Na1+ 0.0127(8) 0.0105(7) 0.0098(9) 0.0034(6) 0.0043(6) 0.0009(6)
Ca2 Ca2+ 0.0134(11) 0.0101(9) 0.0140(12) -.0025(6) 0.0058(8) -.0008(7)
Na2 Na1+ 0.0134(11) 0.0101(9) 0.0140(12) -.0025(6) 0.0058(8) -.0008(7)
Ca3 Ca2+ 0.0138(10) 0.0135(9) 0.0146(11) -.0039(6) 0.0046(8) -.0017(7)
Na3 Na1+ 0.0138(10) 0.0135(9) 0.0146(11) -.0039(6) 0.0046(8) -.0017(7)
Ca4 Ca2+ 0.0163(13) 0.0173(13) 0.0142(15) 0.0038(9) 0.0057(10) 0.0011(10)
Na4 Na1+ 0.0163(13) 0.0173(13) 0.0142(15) 0.0038(9) 0.0057(10) 0.0011(10)
P1 P5+ 0.0083(8) 0.0075(7) 0.0073(9) 0.0003(6) 0.0037(6) -.0016(6)
P2 P5+ 0.0072(7) 0.0066(7) 0.0078(9) -.0002(6) 0.0023(6) -.0007(6)
F1 F1- 0.0116(18) 0.0137(17) 0.0161(21) -.0031(15) 0.0039(17) -.0027(18)
F2 F1- 0.0108(21) 0.0130(17) 0.0151(18) 0.0017(18) 0.0052(16) 0.0008(15)
O3 O2- 0.0779(45) 0.0117(27) 0.0353(40) 0.0147(28) 0.0235(34) 0.0028(26)
O4 O2- 0.0125(27) 0.0206(27) 0.0850(56) -.0017(21) 0.0178(30) -.0253(31)
O5 O2- 0.0409(31) 0.0108(24) 0.0385(37) 0.0065(23) 0.0188(28) 0.0074(24)
O6 O2- 0.0194(30) 0.028(3) 0.0606(47) -.0061(24) -.0100(28) 0.0296(30)
O7 O2- 0.0110(27) 0.0252(28) 0.0833(52) 0.0015(22) 0.0086(29) -.0310(33)
O8 O2- 0.0137(28) 0.0246(28) 0.0648(45) 0.0022(22) -.0020(28) -.0217(31)
#End of TTdata_89794-ICSD