
#(C) 2019 by FIZ Karlsruhe - Leibniz Institute for Information Infrastructure.  All rights reserved.
data_89851-ICSD
_database_code_ICSD 89851
_audit_creation_date 2002-10-01
_chemical_name_systematic 'Sodium cerium titanoniobate *'
_chemical_formula_structural '(Na0.632 Ce0.368) ((Ti0.912 Nb0.088) O3)'
_chemical_formula_sum 'Ce0.368 Na0.632 Nb0.088 O3 Ti0.912'
_chemical_name_structure_type Perovskite-SrTiO3
_chemical_name_mineral Loparite-(Ce)
_exptl_crystal_density_diffrn 4.67
_publ_section_title 'The crystal structures of loparite-(Ce)'
loop_
_citation_id
_citation_journal_full
_citation_year
_citation_journal_volume
_citation_page_first
_citation_page_last
_citation_journal_id_ASTM
primary 'Canadian Mineralogist' 2000 38 145 152 CAMIA6
loop_
_publ_author_name
'Mitchell, R.H.'
'Burns, P.C.'
'Chakhmouradian, A.R.'
_cell_length_a 5.5022(11)
_cell_length_b 5.5022(11)
_cell_length_c 7.7967(16)
_cell_angle_alpha 90.
_cell_angle_beta 90.
_cell_angle_gamma 90.
_cell_volume 236.04
_cell_formula_units_Z 4
_symmetry_space_group_name_H-M 'I 4/m c m'
_symmetry_Int_Tables_number 140
_refine_ls_R_factor_all 0.026
loop_
_symmetry_equiv_pos_site_id
_symmetry_equiv_pos_as_xyz
1 'y, x, -z+1/2'
2 '-y, -x, -z+1/2'
3 '-y, x, -z'
4 'y, -x, -z'
5 'x, -y, -z+1/2'
6 '-x, y, -z+1/2'
7 'x, y, -z'
8 '-x, -y, -z'
9 '-y, -x, z+1/2'
10 'y, x, z+1/2'
11 'y, -x, z'
12 '-y, x, z'
13 '-x, y, z+1/2'
14 'x, -y, z+1/2'
15 '-x, -y, z'
16 'x, y, z'
17 'y+1/2, x+1/2, -z'
18 '-y+1/2, -x+1/2, -z'
19 '-y+1/2, x+1/2, -z+1/2'
20 'y+1/2, -x+1/2, -z+1/2'
21 'x+1/2, -y+1/2, -z'
22 '-x+1/2, y+1/2, -z'
23 'x+1/2, y+1/2, -z+1/2'
24 '-x+1/2, -y+1/2, -z+1/2'
25 '-y+1/2, -x+1/2, z'
26 'y+1/2, x+1/2, z'
27 'y+1/2, -x+1/2, z+1/2'
28 '-y+1/2, x+1/2, z+1/2'
29 '-x+1/2, y+1/2, z'
30 'x+1/2, -y+1/2, z'
31 '-x+1/2, -y+1/2, z+1/2'
32 'x+1/2, y+1/2, z+1/2'
loop_
_atom_type_symbol
_atom_type_oxidation_number
Ce3+ 3
Na1+ 1
Ti4+ 4
Nb5+ 5
O2- -2
loop_
_atom_site_label
_atom_site_type_symbol
_atom_site_symmetry_multiplicity
_atom_site_Wyckoff_symbol
_atom_site_fract_x
_atom_site_fract_y
_atom_site_fract_z
_atom_site_B_iso_or_equiv
_atom_site_occupancy
_atom_site_attached_hydrogens
Ce1 Ce3+ 4 b 0 0.5 0.25 . 0.368(8) 0
Na1 Na1+ 4 b 0 0.5 0.25 . 0.632(8) 0
Ti1 Ti4+ 4 c 0 0 0 . 0.912(40) 0
Nb1 Nb5+ 4 c 0 0 0 . 0.088(40) 0
O1 O2- 4 a 0 0 0.25 . 1. 0
O2 O2- 8 h 0.2828(6) 0.7828(6) 0 . 1. 0
loop_
_atom_site_aniso_label
_atom_site_aniso_type_symbol
_atom_site_aniso_U_11
_atom_site_aniso_U_22
_atom_site_aniso_U_33
_atom_site_aniso_U_12
_atom_site_aniso_U_13
_atom_site_aniso_U_23
Ce1 Ce3+ 0.0196(9) 0.0196(9) 0.020(1) 0 0 0
Na1 Na1+ 0.0196(9) 0.0196(9) 0.0196(9) 0 0 0
Ti1 Ti4+ 0.0127(11) 0.0127(11) 0.0113(12) 0 0 0
Nb1 Nb5+ 0.0127(11) 0.0127(11) 0.0113(12) 0 0 0
O1 O2- 0.0856(47) 0.0856(47) 0.021(5) 0 0 0
O2 O2- 0.0261(18) 0.0261(18) 0.0792(39) 0.0053(21) 0 0
#End of TTdata_89851-ICSD