
#(C) 2019 by FIZ Karlsruhe - Leibniz Institute for Information Infrastructure.  All rights reserved.
data_89960-ICSD
_database_code_ICSD 89960
_audit_creation_date 2002-04-01
_audit_update_record 2010-08-01
_chemical_name_systematic
'Sodium lanthanum titanium ruthenium oxide (2/2/2.75/0.25/10)'
_chemical_formula_structural 'Na2 La2 ((Ti2.75 Ru0.25) O10)'
_chemical_formula_sum 'La2 Na2 O10 Ru0.25 Ti2.75'
_chemical_name_structure_type Na2La2Ti2RuO10
_exptl_crystal_density_diffrn 5.05
_publ_section_title

;
Synthesis and characterization of new mixed-metal triple-layered perovskites,
Na2 La2 Ti3-x Rux O10 (x<= 1.0)
;
loop_
_citation_id
_citation_journal_full
_citation_year
_citation_journal_volume
_citation_page_first
_citation_page_last
_citation_journal_id_ASTM
primary 'Chemistry of Materials' 2000 12 2418 2423 CMATEX
loop_
_publ_author_name
'Lalena, J.N.'
'Falster, A.U.'
'Simmons, W.B.jr.'
'Carpenter, E.E.'
'Wiggins, J.'
'Hariharan, S.'
'Wiley, J.B.'
_cell_length_a 3.8412(1)
_cell_length_b 3.8412(1)
_cell_length_c 28.5670(10)
_cell_angle_alpha 90.
_cell_angle_beta 90.
_cell_angle_gamma 90.
_cell_volume 421.5
_cell_formula_units_Z 2
_symmetry_space_group_name_H-M 'I 4/m m m'
_symmetry_Int_Tables_number 139
_refine_ls_R_factor_all 0.097
loop_
_symmetry_equiv_pos_site_id
_symmetry_equiv_pos_as_xyz
1 'y, x, -z'
2 '-y, -x, -z'
3 '-y, x, -z'
4 'y, -x, -z'
5 '-x, y, -z'
6 'x, -y, -z'
7 'x, y, -z'
8 '-x, -y, -z'
9 '-y, -x, z'
10 'y, x, z'
11 'y, -x, z'
12 '-y, x, z'
13 'x, -y, z'
14 '-x, y, z'
15 '-x, -y, z'
16 'x, y, z'
17 'y+1/2, x+1/2, -z+1/2'
18 '-y+1/2, -x+1/2, -z+1/2'
19 '-y+1/2, x+1/2, -z+1/2'
20 'y+1/2, -x+1/2, -z+1/2'
21 '-x+1/2, y+1/2, -z+1/2'
22 'x+1/2, -y+1/2, -z+1/2'
23 'x+1/2, y+1/2, -z+1/2'
24 '-x+1/2, -y+1/2, -z+1/2'
25 '-y+1/2, -x+1/2, z+1/2'
26 'y+1/2, x+1/2, z+1/2'
27 'y+1/2, -x+1/2, z+1/2'
28 '-y+1/2, x+1/2, z+1/2'
29 'x+1/2, -y+1/2, z+1/2'
30 '-x+1/2, y+1/2, z+1/2'
31 '-x+1/2, -y+1/2, z+1/2'
32 'x+1/2, y+1/2, z+1/2'
loop_
_atom_type_symbol
_atom_type_oxidation_number
Na1+ 1
La3+ 3
Ru4+ 4
Ti4+ 4
Ru4+ 4
Ti4+ 4
O2- -2
loop_
_atom_site_label
_atom_site_type_symbol
_atom_site_symmetry_multiplicity
_atom_site_Wyckoff_symbol
_atom_site_fract_x
_atom_site_fract_y
_atom_site_fract_z
_atom_site_B_iso_or_equiv
_atom_site_occupancy
_atom_site_attached_hydrogens
Na1 Na1+ 4 e 0 0 0.2888(2) 0.8(1) 1. 0
La1 La3+ 4 e 0 0 0.42456(5) 1.15(7) 1. 0
Ru1 Ru4+ 2 a 0 0 0 0.8(1) 0.160(6) 0
Ti1 Ti4+ 2 a 0 0 0 0.8(1) 0.839(6) 0
Ru2 Ru4+ 4 e 0 0 0.1489(1) 0.26(8) 0.044(3) 0
Ti2 Ti4+ 4 e 0 0 0.1489(1) 0.26(8) 0.955(3) 0
O1 O2- 8 j 0.097(4) 0.5 0 3.5(6) 0.5 0
O2 O2- 4 e 0 0 0.0653(3) 1.0(6) 1. 0
O3 O2- 8 g 0 0.5 0.1355(2) 1.1(2) 1. 0
O4 O2- 4 e 0 0 0.2103(4) 2.7(2) 1. 0
#End of TTdata_89960-ICSD