
#(C) 2018 by FIZ Karlsruhe - Leibniz Institute for Information Infrastructure.  All rights reserved.
data_89993-ICSD
_database_code_ICSD 89993
_audit_creation_date 2002-04-01
_chemical_name_systematic 'Lithium cobalt diphosphate(V) (5.88/5.06/4)'
_chemical_formula_structural 'Li5.88 Co5.06 (P2 O7)4'
_chemical_formula_sum 'Co5.06 Li5.88 O28 P8'
_exptl_crystal_density_diffrn 3.43
_cell_measurement_temperature 295.
_publ_section_title

;
Crystal growth, crystal structure, and magnetic properties of a new lithium
cobalt diphosphate
;
loop_
_citation_id
_citation_journal_full
_citation_year
_citation_journal_volume
_citation_page_first
_citation_page_last
_citation_journal_id_ASTM
primary 'Chemistry of Materials' 2000 12 671 676 CMATEX
loop_
_publ_author_name
'Sanz, F.'
'Parada, C.'
'Ruiz Valero, C.'
_cell_length_a 6.3009(7)
_cell_length_b 8.413(1)
_cell_length_c 9.937(1)
_cell_angle_alpha 107.894(2)
_cell_angle_beta 90.247(2)
_cell_angle_gamma 92.782(2)
_cell_volume 500.58
_cell_formula_units_Z 1
_symmetry_space_group_name_H-M 'P -1'
_symmetry_Int_Tables_number 2
_refine_ls_R_factor_all 0.046
loop_
_symmetry_equiv_pos_site_id
_symmetry_equiv_pos_as_xyz
1 '-x, -y, -z'
2 'x, y, z'
loop_
_atom_type_symbol
_atom_type_oxidation_number
Co2+ 2
P5+ 5
Li1+ 1
Co2+ 2
O2- -2
loop_
_atom_site_label
_atom_site_type_symbol
_atom_site_symmetry_multiplicity
_atom_site_Wyckoff_symbol
_atom_site_fract_x
_atom_site_fract_y
_atom_site_fract_z
_atom_site_B_iso_or_equiv
_atom_site_occupancy
_atom_site_attached_hydrogens
Co1 Co2+ 1 e 0.5 0.5 0 0.009(1) 1. 0
Co2 Co2+ 2 i 0.6451(2) 0.1194(1) -.0588(1) 0.009(1) 1. 0
Co3 Co2+ 2 i 0.3105(2) 0.8894(1) 0.6454(1) 0.011(1) 1. 0
P1 P5+ 2 i 0.5236(3) 0.2465(2) 0.6803(2) 0.008(1) 1. 0
P2 P5+ 2 i 0.1523(3) 0.2057(2) 0.0161(2) 0.008(1) 1. 0
P3 P5+ 2 i 0.2637(3) 0.5407(2) 0.7377(2) 0.009(1) 1. 0
P4 P5+ 2 i 0.1867(3) 0.1813(2) 0.3106(2) 0.009(1) 1. 0
Li1 Li1+ 2 i 0.020(3) 0.162(2) 0.611(2) 0.034(4) 1. 0
Li2 Li1+ 1 h 0.5 0.5 0.5 0.023(4) 1. 0
Li3 Li1+ 2 i -.089(3) 0.395(2) 0.877(2) 0.036(4) 1. 0
Li4 Li1+ 1 g 0 0.5 0.5 0.043(5) 0.878(5) 0
Co4 Co2+ 1 g 0 0.5 0.5 0.043(5) 0.122(5) 0
O1 O2- 2 i 0.2371(8) 0.3535(6) 0.4095(5) 0.015(1) 1. 0
O2 O2- 2 i 0.4587(8) 0.4233(6) 0.6685(5) 0.009(1) 1. 0
O3 O2- 2 i 0.2237(8) 0.3841(6) 0.0274(6) 0.014(1) 1. 0
O4 O2- 2 i -.0426(9) 0.1594(6) -.0793(5) 0.012(1) 1. 0
O5 O2- 2 i 0.6150(8) -.0811(6) 0.7385(5) 0.010(1) 1. 0
O6 O2- 2 i 0.3954(8) 0.7096(6) 0.1665(5) 0.011(1) 1. 0
O7 O2- 2 i -.0185(8) -.0858(6) 0.6315(5) 0.012(1) 1. 0
O8 O2- 2 i 0.3258(8) 0.0793(6) -.0311(5) 0.011(1) 1. 0
O9 O2- 2 i 0.3265(8) 0.1321(6) 0.6513(6) 0.014(1) 1. 0
O10 O2- 2 i 0.0692(8) 0.4260(6) 0.7226(6) 0.015(1) 1. 0
O11 O2- 2 i 0.3004(8) 0.8053(6) 0.4241(5) 0.013(1) 1. 0
O12 O2- 2 i -.0805(8) 0.7983(6) 0.8315(5) 0.012(1) 1. 0
O13 O2- 2 i 0.3350(8) 0.6332(6) 0.8873(5) 0.013(1) 1. 0
O14 O2- 2 i 0.2596(8) 0.6493(6) 0.6406(5) 0.010(1) 1. 0
#End of TTdata_89993-ICSD