
#(C) 2019 by FIZ Karlsruhe - Leibniz Institute for Information Infrastructure.  All rights reserved.
data_90043-ICSD
_database_code_ICSD 90043
_audit_creation_date 2002-04-01
_chemical_name_systematic 'Sodium manganese iron(III) phosphate(V) *'
_chemical_formula_structural 'Na1.304 Mn0.968 Fe1.9 (P2.842 O11.86)'
_chemical_formula_sum 'Fe1.9 Mn0.968 Na1.304 O11.86 P2.842'
_chemical_name_structure_type Alluaudite
_chemical_name_mineral Unnamed_Alluaudite
_exptl_crystal_density_diffrn 3.51
_publ_section_title

;
First experimental evidence of alluaudite-like phosphates with high
Li-content: the (Na1-x Lix) Mn Fe2 (P O4)3 series (x=0 to 1)
;
loop_
_citation_id
_citation_journal_full
_citation_year
_citation_journal_volume
_citation_page_first
_citation_page_last
_citation_journal_id_ASTM
primary 'European Journal of Mineralogy' 2000 12 847 857 EJMIER
loop_
_publ_author_name
'Hatert, F.'
'Keller, P.'
'Lissner, F.'
'Antenucci, D.'
'Fransolet, A.M.'
_cell_length_a 12.018(2)
_cell_length_b 12.565(3)
_cell_length_c 6.415(1)
_cell_angle_alpha 90.
_cell_angle_beta 114.33(3)
_cell_angle_gamma 90.
_cell_volume 882.67
_cell_formula_units_Z 4
_symmetry_space_group_name_H-M 'C 1 2/c 1'
_symmetry_Int_Tables_number 15
_refine_ls_R_factor_all 0.022
loop_
_symmetry_equiv_pos_site_id
_symmetry_equiv_pos_as_xyz
1 'x, -y, z+1/2'
2 '-x, -y, -z'
3 '-x, y, -z+1/2'
4 'x, y, z'
5 'x+1/2, -y+1/2, z+1/2'
6 '-x+1/2, -y+1/2, -z'
7 '-x+1/2, y+1/2, -z+1/2'
8 'x+1/2, y+1/2, z'
loop_
_atom_type_symbol
_atom_type_oxidation_number
Na1+ 1
Mn2+ 2.599
Fe3+ 3
P5+ 5
O2- -2
loop_
_atom_site_label
_atom_site_type_symbol
_atom_site_symmetry_multiplicity
_atom_site_Wyckoff_symbol
_atom_site_fract_x
_atom_site_fract_y
_atom_site_fract_z
_atom_site_B_iso_or_equiv
_atom_site_occupancy
_atom_site_attached_hydrogens
Na1 Na1+ 4 e 0 -.0107(5) 0.25 . 0.244(8) 0
Na2 Na1+ 4 b 0.5 0 0 . 1.060(18) 0
Mn1 Mn2+ 4 e 0 0.26237(3) 0.25 . 0.968(16) 0
Fe1 Fe3+ 8 f 0.28087(2) 0.65245(2) 0.37081(4) . 0.95(1) 0
P1 P5+ 4 e 0 0.71419(4) 0.25 . 0.942(16) 0
P2 P5+ 8 f 0.24182(3) 0.89132(3) 0.13109(7) . 0.95(1) 0
O1 O2- 8 f 0.4533(1) 0.71552(9) 0.5332(2) . 1. 0
O2 O2- 8 f 0.0998(1) 0.63938(9) 0.2421(2) . 0.98(2) 0
O3 O2- 8 f 0.3289(1) 0.66403(9) 0.1033(2) . 0.99(2) 0
O4 O2- 8 f 0.1224(1) 0.39788(9) 0.3148(2) . 0.99(2) 0
O5 O2- 8 f 0.2251(1) 0.82225(9) 0.3177(2) . 1. 0
O6 O2- 8 f 0.3127(1) 0.50206(9) 0.3763(2) . 0.97(2) 0
loop_
_atom_site_aniso_label
_atom_site_aniso_type_symbol
_atom_site_aniso_U_11
_atom_site_aniso_U_22
_atom_site_aniso_U_33
_atom_site_aniso_U_12
_atom_site_aniso_U_13
_atom_site_aniso_U_23
Na1 Na1+ 0.018(3) 0.042(4) 0.036(4) 0 0.001(2) 0
Na2 Na1+ 0.0430(8) 0.0074(5) 0.0273(7) 0.0004(5) -.0231(6) -.0009(4)
Mn1 Mn2+ 0.0082(2) 0.0097(2) 0.0093(2) 0 0.0056(1) 0
Fe1 Fe3+ 0.0055(1) 0.0061(1) 0.0055(1) -.00118(6) 0.00283(8) -.00128(6)
P1 P5+ 0.0045(3) 0.0049(3) 0.0029(3) 0 0.0010(2) 0
P2 P5+ 0.0060(2) 0.0046(2) 0.0044(2) -.0006(1) 0.0022(1) -.0006(1)
O1 O2- 0.0091(5) 0.0121(5) 0.0069(6) -.0002(4) 0.0027(4) -.0023(4)
O2 O2- 0.0093(5) 0.0105(5) 0.0145(6) 0.0027(4) 0.0033(4) -.0032(4)
O3 O2- 0.0148(6) 0.0099(5) 0.0065(6) -.0023(4) 0.0036(4) -.0014(4)
O4 O2- 0.0096(6) 0.0111(6) 0.0199(7) 0.0012(4) 0.0073(5) -.0001(4)
O5 O2- 0.0120(6) 0.0128(5) 0.0078(6) -.0010(44) 0.0053(4) 0.0018(4)
O6 O2- 0.0161(7) 0.0084(6) 0.0144(7) -.0024(4) 0.0063(5) 0.0022(4)
#End of TTdata_90043-ICSD