
#(C) 2019 by FIZ Karlsruhe - Leibniz Institute for Information Infrastructure.  All rights reserved.
data_905-ICSD
_database_code_ICSD 905
_audit_creation_date 1980-01-01
_audit_update_record 2012-08-01
_chemical_name_systematic 'Copper disodium tetrasilicate'
_chemical_formula_structural 'Cu Na2 (Si4 O10)'
_chemical_formula_sum 'Cu1 Na2 O10 Si4'
_chemical_name_structure_type KNaFeS14O10
_exptl_crystal_density_diffrn 2.97
_publ_section_title 'The crystal structure of synthetic copper sodium silicate'
loop_
_citation_id
_citation_journal_full
_citation_year
_citation_journal_volume
_citation_page_first
_citation_page_last
_citation_journal_id_ASTM
primary

;
Acta Crystallographica, Section B: Structural Crystallography and Crystal
Chemistry
; 1977 33 1071 1075 ACBCAR
loop_
_publ_author_name
'Kawamura, K.'
'Kawahara, A.'
_cell_length_a 10.613(5)
_cell_length_b 7.85(4)
_cell_length_c 6.944(3)
_cell_angle_alpha 118.2(3)
_cell_angle_beta 116.53(3)
_cell_angle_gamma 93.65(3)
_cell_volume 427.58
_cell_formula_units_Z 2
_symmetry_space_group_name_H-M 'P -1'
_symmetry_Int_Tables_number 2
_refine_ls_R_factor_all 0.042
loop_
_symmetry_equiv_pos_site_id
_symmetry_equiv_pos_as_xyz
1 '-x, -y, -z'
2 'x, y, z'
loop_
_atom_type_symbol
_atom_type_oxidation_number
Cu2+ 2
Si4+ 4
Na1+ 1
O2- -2
loop_
_atom_site_label
_atom_site_type_symbol
_atom_site_symmetry_multiplicity
_atom_site_Wyckoff_symbol
_atom_site_fract_x
_atom_site_fract_y
_atom_site_fract_z
_atom_site_B_iso_or_equiv
_atom_site_occupancy
_atom_site_attached_hydrogens
Cu1 Cu2+ 2 i 0.4259(1) 0.2870(1) 0.4702(1) . 1. 0
Si1 Si4+ 2 i 0.8079(1) 0.0601(2) 0.1054(2) . 1. 0
Si2 Si4+ 2 i 0.1461(1) 0.2939(2) 0.5152(2) . 1. 0
Si3 Si4+ 2 i 0.7367(1) 0.3452(2) 0.4918(2) . 1. 0
Si4 Si4+ 2 i 0.7494(1) 0.3777(2) 0.9433(2) . 1. 0
Na1 Na1+ 2 i 0.0209(3) 0.2413(3) 0.9209(4) . 1. 0
Na2 Na1+ 2 i 0.4205(3) 0.2731(5) 0.9564(6) . 1. 0
O1 O2- 2 i 0.9875(3) 0.1047(5) 0.2856(6) . 1. 0
O2 O2- 2 i 0.7399(4) 0.1297(5) 0.2883(6) . 1. 0
O3 O2- 2 i 0.2678(4) 0.1789(5) 0.1096(6) . 1. 0
O4 O2- 2 i 0.2826(4) 0.2183(5) 0.5466(6) . 1. 0
O5 O2- 2 i 0.5731(4) 0.3539(5) 0.3931(6) . 1. 0
O6 O2- 2 i 0.5790(4) 0.3528(5) 0.8167(6) . 1. 0
O7 O2- 2 i 0.1442(4) 0.3959(5) 0.7819(6) . 1. 0
O8 O2- 2 i 0.8189(4) 0.3707(5) 0.7729(6) . 1. 0
O9 O2- 2 i 0.1444(4) 0.4668(5) 0.4481(6) . 1. 0
O10 O2- 2 i 0.7951(4) 0.2040(5) 0.9961(7) . 1. 0
loop_
_atom_site_aniso_label
_atom_site_aniso_type_symbol
_atom_site_aniso_beta_11
_atom_site_aniso_beta_22
_atom_site_aniso_beta_33
_atom_site_aniso_beta_12
_atom_site_aniso_beta_13
_atom_site_aniso_beta_23
Cu1 Cu2+ 0.0046(1) 0.0101(1) 0.0135(2) 0.0022(1) 0.0044(1) 0.0061(1)
Si1 Si4+ 0.0050(1) 0.0078(3) 0.0135(4) 0.0022(2) 0.0044(2) 0.0061(3)
Si2 Si4+ 0.0047(1) 0.0088(3) 0.0138(4) 0.0020(2) 0.0042(2) 0.0059(3)
Si3 Si4+ 0.0052(1) 0.0086(4) 0.0134(4) 0.0023(2) 0.0048(2) 0.0059(3)
Si4 Si4+ 0.0054(2) 0.0090(2) 0.0132(4) 0.0024(2) 0.0049(2) 0.0062(3)
Na1 Na1+ 0.0088(3) 0.0134(5) 0.0326(9) 0.0056(3) 0.0106(4) 0.0129(6)
Na2 Na1+ 0.0072(3) 0.0163(5) 0.0207(7) 0.0034(3) 0.0062(4) 0.0117(5)
O1 O2- 0.0047(4) 0.0089(7) 0.0180(12) 0.0061(4) 0.0032(5) 0.0052(8)
O2 O2- 0.0081(5) 0.0109(8) 0.0184(12) 0.0033(5) 0.0082(6) 0.0066(8)
O3 O2- 0.0059(4) 0.0083(7) 0.0150(11) 0.0018(4) 0.0044(5) 0.0050(7)
O4 O2- 0.0055(4) 0.0133(8) 0.0205(12) 0.0040(5) 0.0067(6) 0.0101(9)
O5 O2- 0.0063(4) 0.0127(8) 0.0180(11) 0.0037(5) 0.0064(6) 0.0095(8)
O6 O2- 0.0055(4) 0.0164(9) 0.0170(12) 0.0033(5) 0.0052(6) 0.0099(9)
O7 O2- 0.0061(4) 0.0098(7) 0.0153(11) 0.0025(4) 0.0059(6) 0.0058(8)
O8 O2- 0.0050(4) 0.0127(7) 0.0160(11) 0.0032(4) 0.0051(5) 0.0084(8)
O9 O2- 0.0062(4) 0.0110(8) 0.0191(12) 0.0036(5) 0.0064(6) 0.0086(8)
O10 O2- 0.0090(5) 0.0112(8) 0.0196(12) 0.0043(5) 0.0077(7) 0.0091(8)
#End of TTdata_905-ICSD