
#(C) 2018 by FIZ Karlsruhe - Leibniz Institute for Information Infrastructure.  All rights reserved.
data_90648-ICSD
_database_code_ICSD 90648
_audit_creation_date 2002-04-01
_chemical_name_systematic 'Dilithium magnesium trimanganese(IV) oxide'
_chemical_formula_structural 'Li2 Mg Mn3 O8'
_chemical_formula_sum 'Li2 Mg1 Mn3 O8'
_chemical_name_structure_type Spinel-LiFe5O8
_exptl_crystal_density_diffrn 4.01
_publ_section_title

;
Structural, magnetic and lithium insertion properties of spinel-type Li2 Mn3 M
O8 oxides (M = Mg, Co, Ni, Cu)
;
loop_
_citation_id
_citation_journal_full
_citation_year
_citation_journal_volume
_citation_page_first
_citation_page_last
_citation_journal_id_ASTM
primary 'Journal of Materials Chemistry' 2000 10 429 436 JMACEP
loop_
_publ_author_name
'Strobel, P.'
'Ibarra Palos, A.'
'Anne, M.'
'le Cras, F.'
_cell_length_a 8.1869(4)
_cell_length_b 8.1869(4)
_cell_length_c 8.1869(4)
_cell_angle_alpha 90.
_cell_angle_beta 90.
_cell_angle_gamma 90.
_cell_volume 548.73
_cell_formula_units_Z 4
_symmetry_space_group_name_H-M 'P 43 3 2'
_symmetry_Int_Tables_number 212
_refine_ls_R_factor_all 0.033
loop_
_symmetry_equiv_pos_site_id
_symmetry_equiv_pos_as_xyz
1 'z+1/4, y+3/4, -x+3/4'
2 '-z+3/4, y+1/4, x+3/4'
3 'y+1/4, x+3/4, -z+3/4'
4 '-y+3/4, x+1/4, z+3/4'
5 'x+1/4, z+3/4, -y+3/4'
6 '-x+3/4, z+1/4, y+3/4'
7 'z+3/4, -y+3/4, x+1/4'
8 '-z+1/4, -y+1/4, -x+1/4'
9 'y+3/4, -x+3/4, z+1/4'
10 '-y+1/4, -x+1/4, -z+1/4'
11 'x+3/4, -z+3/4, y+1/4'
12 '-x+1/4, -z+1/4, -y+1/4'
13 '-y+1/2, -z, x+1/2'
14 '-y, z+1/2, -x+1/2'
15 'y+1/2, -z+1/2, -x'
16 'y, z, x'
17 'z+1/2, -x+1/2, -y'
18 '-z+1/2, -x, y+1/2'
19 '-z, x+1/2, -y+1/2'
20 'z, x, y'
21 '-x+1/2, -y, z+1/2'
22 '-x, y+1/2, -z+1/2'
23 'x+1/2, -y+1/2, -z'
24 'x, y, z'
loop_
_atom_type_symbol
_atom_type_oxidation_number
Li1+ 1
Mg2+ 2
Mn4+ 4
O2- -2
loop_
_atom_site_label
_atom_site_type_symbol
_atom_site_symmetry_multiplicity
_atom_site_Wyckoff_symbol
_atom_site_fract_x
_atom_site_fract_y
_atom_site_fract_z
_atom_site_B_iso_or_equiv
_atom_site_occupancy
_atom_site_attached_hydrogens
Li1 Li1+ 8 c 0.01(3) 0.01(3) 0.01(3) 1.40(5) 1. 0
Mg1 Mg2+ 4 b 0.625 0.625 0.625 2.29(6) 1. 0
Mn1 Mn4+ 12 d 0.125 0.3799(3) 0.8701(3) 2.29(6) 1. 0
O1 O2- 8 c 0.384(1) 0.384(1) 0.384(1) 3.0(1) 1. 0
O2 O2- 24 e 0.1249(5) 0.1500(9) 0.8584(7) 3.0(1) 1. 0
#End of TTdata_90648-ICSD