
#(C) 2019 by FIZ Karlsruhe - Leibniz Institute for Information Infrastructure.  All rights reserved.
data_90682-ICSD
_database_code_ICSD 90682
_audit_creation_date 2002-04-01
_audit_update_record 2012-02-01
_chemical_name_systematic 'Sodium pentahydrogen bis(phosphate(V))'
_chemical_formula_structural '(Na H2 P O4) (H3 P O4)'
_chemical_formula_sum 'H5 Na1 O8 P2'
_chemical_name_structure_type NaH5(PO4)2
_exptl_crystal_density_diffrn 2.12
_cell_measurement_temperature 150.
_publ_section_title

;
Structure, phase transition and vibrational spectra of the Na H5 (P O4)2 and
Na D5 (P O4)2 crystals
;
loop_
_citation_id
_citation_journal_full
_citation_year
_citation_journal_volume
_citation_page_first
_citation_page_last
_citation_journal_id_ASTM
primary 'Journal of Molecular Structure' 2000 516 185 202 JMOSB4
loop_
_publ_author_name
'Baran, J.'
'Lis, T.'
'Drozd, M.'
'Ratajczak, H.'
_cell_length_a 8.464(4)
_cell_length_b 7.817(5)
_cell_length_c 10.337(5)
_cell_angle_alpha 90.
_cell_angle_beta 90.58(4)
_cell_angle_gamma 90.
_cell_volume 683.89
_cell_formula_units_Z 4
_symmetry_space_group_name_H-M 'P 1 21/c 1'
_symmetry_Int_Tables_number 14
_refine_ls_R_factor_all 0.026
loop_
_symmetry_equiv_pos_site_id
_symmetry_equiv_pos_as_xyz
1 'x, -y+1/2, z+1/2'
2 '-x, -y, -z'
3 '-x, y+1/2, -z+1/2'
4 'x, y, z'
loop_
_atom_type_symbol
_atom_type_oxidation_number
P5+ 5
Na1+ 1
O2- -2
H1+ 1
O2- -2
H1+ 1
O2- -2
H1+ 1
O2- -2
H1+ 1
O2- -2
H1+ 1
O2- -2
loop_
_atom_site_label
_atom_site_type_symbol
_atom_site_symmetry_multiplicity
_atom_site_Wyckoff_symbol
_atom_site_fract_x
_atom_site_fract_y
_atom_site_fract_z
_atom_site_B_iso_or_equiv
_atom_site_occupancy
_atom_site_attached_hydrogens
P1 P5+ 4 e 0.46116(3) 0.74188(3) 0.56999(2) 0.00794(6) 1. 0
P2 P5+ 4 e 0.91578(3) 0.50555(3) 0.69381(2) 0.00837(6) 1. 0
Na1 Na1+ 4 e 0.27913(5) 0.91285(5) 0.33671(4) 0.01169(9) 1. 0
O1 O2- 4 e 0.34956(8) 0.89703(9) 0.56043(7) 0.01179(12) 1. 0
H1 H1+ 4 e 0.320(4) 0.956(4) 0.627(3) 0.046(7) 1. 0
O2 O2- 4 e 0.49857(9) 0.71353(9) 0.42421(7) 0.01222(12) 1. 0
H2 H1+ 4 e 0.530(3) 0.622(3) 0.409(3) 0.037(6) 1. 0
O3 O2- 4 e 0.61369(8) 0.80456(9) 0.64211(7) 0.01294(12) 1. 0
H3 H1+ 4 e 0.668(4) 0.706(4) 0.693(3) 0.062(8) 1. 0
O4 O2- 4 e 0.39550(8) 0.58686(9) 0.63454(7) 0.01124(12) 1. 0
O5 O2- 4 e 0.03690(9) 0.45188(10) 0.80126(8) 0.01424(13) 1. 0
H4 H1+ 4 e 0.025(3) 0.361(3) 0.829(3) 0.037(6) 1. 0
O6 O2- 4 e 0.88551(9) 0.34258(9) 0.60904(7) 0.01419(13) 1. 0
H5 H1+ 4 e 0.919(3) 0.349(3) 0.540(3) 0.040(6) 1. 0
O7 O2- 4 e 0.76047(8) 0.55583(10) 0.75498(7) 0.01244(12) 1. 0
O8 O2- 4 e 0.98783(9) 0.64787(9) 0.61587(7) 0.01259(12) 1. 0
#End of TTdata_90682-ICSD