
#(C) 2019 by FIZ Karlsruhe - Leibniz Institute for Information Infrastructure.  All rights reserved.
data_90775-ICSD
_database_code_ICSD 90775
_audit_creation_date 2002-04-01
_chemical_name_systematic 'Sodium erbium bis(sulfate(VI))'
_chemical_formula_structural 'Na Er (S O4)2'
_chemical_formula_sum 'Er1 Na1 O8 S2'
_chemical_name_structure_type NaTm(SO4)2
_exptl_crystal_density_diffrn 4.17
_publ_section_title
'Structure cristalline de sulfates doubles de sodium et de terres rares'
loop_
_citation_id
_citation_journal_full
_citation_year
_citation_journal_volume
_citation_page_first
_citation_page_last
_citation_journal_id_ASTM
primary 'Journal of the Less-Common Metals' 1978 58 101 105 JCOMAH
loop_
_publ_author_name
'Sirotinkin, S.P.'
'Chizhov, S.M.'
'Pokrovskii, A.N.'
'Kovba, L.M.'
_cell_length_a 4.673(3)
_cell_length_b 9.575(6)
_cell_length_c 6.861(4)
_cell_angle_alpha 90.
_cell_angle_beta 90.
_cell_angle_gamma 96.71(3)
_cell_volume 304.89
_cell_formula_units_Z 2
_symmetry_space_group_name_H-M 'P 1 1 21/m'
_symmetry_Int_Tables_number 11
_refine_ls_R_factor_all 0.066
loop_
_symmetry_equiv_pos_site_id
_symmetry_equiv_pos_as_xyz
1 'x, y, -z+1/2'
2 '-x, -y, -z'
3 '-x, -y, z+1/2'
4 'x, y, z'
loop_
_atom_type_symbol
_atom_type_oxidation_number
Er3+ 3
S6+ 6
Na1+ 1
O2- -2
loop_
_atom_site_label
_atom_site_type_symbol
_atom_site_symmetry_multiplicity
_atom_site_Wyckoff_symbol
_atom_site_fract_x
_atom_site_fract_y
_atom_site_fract_z
_atom_site_B_iso_or_equiv
_atom_site_occupancy
_atom_site_attached_hydrogens
Er1 Er3+ 2 e 0.3485(2) 0.1792(1) 0.25 0.568(7) 1. 0
S1 S6+ 2 e 0.8325(10) 0.4095(5) 0.25 0.76(4) 1. 0
S2 S6+ 2 e 0.1395(9) 0.0721(4) 0.75 0.72(4) 1. 0
Na1 Na1+ 2 e 0.6363(19) 0.3486(9) 0.75 1.63(18) 1. 0
O1 O2- 2 e 0.8201(28) 0.0655(13) 0.75 0.98(10) 1. 0
O2 O2- 2 e 0.7965(33) 0.0781(16) 0.25 1.68(19) 1. 0
O3 O2- 4 f 0.6817(18) 0.3413(9) 0.0802(13) 0.95(10) 1. 0
O4 O2- 4 f 0.2597(20) 0.1465(10) 0.9230(14) 1.16(12) 1. 0
O5 O2- 2 e 0.1284(30) 0.3774(14) 0.25 1.29(14) 1. 0
O6 O2- 2 e 0.1735(32) 0.4432(15) 0.75 1.68(19) 1. 0
#End of TTdata_90775-ICSD