
#(C) 2019 by FIZ Karlsruhe - Leibniz Institute for Information Infrastructure.  All rights reserved.
data_91107-ICSD
_database_code_ICSD 91107
_audit_creation_date 2002-10-01
_audit_update_record 2019-02-01
_chemical_name_systematic 'Sodium magnesium diphosphate(V) (3.64/2.18/2)'
_chemical_formula_structural 'Na3.64 Mg2.18 (P2 O7)2'
_chemical_formula_sum 'Mg2.18 Na3.64 O14 P4'
_chemical_name_structure_type Na4-xMg2+y(P2O7)2
_exptl_crystal_density_diffrn 2.84
_cell_measurement_temperature 295.
_publ_section_title

;
Study of the crystal structures of sodium magnesium and sodium nickel
diphosphates
;
loop_
_citation_id
_citation_journal_full
_citation_year
_citation_journal_volume
_citation_page_first
_citation_page_last
_citation_journal_id_ASTM
primary 'Journal of Solid State Chemistry' 2000 152 323 331 JSSCBI
loop_
_publ_author_name
'Erragh, F.'
'Boukhari, A.'
'Abraham, F.'
'Elouadi, B.'
_cell_length_a 10.901(2)
_cell_length_b 9.765(2)
_cell_length_c 6.382(1)
_cell_angle_alpha 112.43(1)
_cell_angle_beta 99.64(1)
_cell_angle_gamma 107.53(1)
_cell_volume 567.23
_cell_formula_units_Z 2
_symmetry_space_group_name_H-M 'P -1'
_symmetry_Int_Tables_number 2
_refine_ls_R_factor_all 0.03
loop_
_symmetry_equiv_pos_site_id
_symmetry_equiv_pos_as_xyz
1 '-x, -y, -z'
2 'x, y, z'
loop_
_atom_type_symbol
_atom_type_oxidation_number
Mg2+ 2
P5+ 5
Na1+ 1
Mg2+ 2
Na1+ 1
O2- -2
loop_
_atom_site_label
_atom_site_type_symbol
_atom_site_symmetry_multiplicity
_atom_site_Wyckoff_symbol
_atom_site_fract_x
_atom_site_fract_y
_atom_site_fract_z
_atom_site_B_iso_or_equiv
_atom_site_occupancy
_atom_site_attached_hydrogens
Mg1 Mg2+ 2 i 0.21569(6) 0.60898(7) 0.8370(1) 0.72(3) 1. 0
Mg2 Mg2+ 2 i 0.26377(6) 0.26235(7) 0.4054(1) 0.69(3) 1. 0
P1 P5+ 2 i 0.45370(4) 0.65669(5) 0.73369(7) 0.59(2) 1. 0
P2 P5+ 2 i 0.68356(4) 0.63893(5) 0.01800(7) 0.67(2) 1. 0
P3 P5+ 2 i 0.21645(5) 0.89454(6) 0.32451(9) 0.97(2) 1. 0
P4 P5+ 2 i 0.96253(4) 0.27051(5) 0.47758(8) 0.70(2) 1. 0
Na1 Na1+ 2 i 0.5239(1) 0.210(1) 0.6798(2) 1.54(5) 0.82 0
Mg3 Mg2+ 2 i 0.5239(1) 0.210(1) 0.6798(2) 1.54(5) 0.18 0
Na2 Na1+ 2 i 0.6602(1) 0.0165(1) 0.0942(2) 2.74(7) 1. 0
Na3 Na1+ 2 i 0.8842(2) 0.5356(2) 0.8137(3) 4.64(11) 1. 0
Na4 Na1+ 1 a 0 0 0 3.2(7) 0.30(4) 0
Na5 Na1+ 2 i 0.9531(5) 0.9396(7) 0.244(2) 4.8(4) 0.42(1) 0
Na6 Na1+ 2 i 0.9711(6) 0.9490(14) 0.0951(43) 3.9(9) 0.25(3) 0
O1 O2- 2 i 0.7028(2) 0.4842(2) 0.9659(3) 1.29(8) 1. 0
O2 O2- 2 i 0.4319(1) 0.7863(2) 0.9332(3) 1.09(7) 1. 0
O3 O2- 2 i 0.7742(1) 0.7415(2) 0.9302(3) 1.23(8) 1. 0
O4 O2- 2 i 0.1739(2) 0.7277(2) 0.1243(4) 2.46(11) 1. 0
O5 O2- 2 i 0.5310(1) 0.5779(2) 0.8547(3) 1.10(7) 1. 0
O6 O2- 2 i 0.2005(2) 0.0122(2) 0.2335(3) 1.07(7) 1. 0
O7 O2- 2 i 0.6933(2) 0.7362(2) 0.2725(3) 1.75(9) 1. 0
O8 O2- 2 i 0.0366(2) 0.4257(2) 0.7074(3) 1.39(8) 1. 0
O9 O2- 2 i 0.8403(1) 0.2710(2) 0.3286(1) 1.47(8) 1. 0
O10 O2- 2 i 0.0560(1) 0.2222(2) 0.3437(3) 1.31(8) 1. 0
O11 O2- 2 i 0.5406(1) 0.7233(2) 0.6077(3) 1.18(7) 1. 0
O12 O2- 2 i 0.3149(1) 0.5192(2) 0.5768(2) 0.81(7) 1. 0
O13 O2- 2 i 0.9004(2) 0.1255(2) 0.5445(3) 1.10(7) 1. 0
O14 O2- 2 i 0.3509(2) 0.9552(3) 0.5099(4) 2.67(12) 1. 0
#End of TTdata_91107-ICSD