
#(C) 2019 by FIZ Karlsruhe - Leibniz Institute for Information Infrastructure.  All rights reserved.
data_91108-ICSD
_database_code_ICSD 91108
_audit_creation_date 2002-10-01
_chemical_name_systematic 'Sodium nickel diphosphate(V) (3.64/2.18/2)'
_chemical_formula_structural 'Na3.64 Ni2.18 (P2 O7)2'
_chemical_formula_sum 'Na3.64 Ni2.18 O14 P4'
_chemical_name_structure_type Na4-xMg2+y(P2O7)2
_exptl_crystal_density_diffrn 3.32
_publ_section_title

;
Study of the crystal structures of sodium magnesium and sodium nickel
diphosphates
;
loop_
_citation_id
_citation_journal_full
_citation_year
_citation_journal_volume
_citation_page_first
_citation_page_last
_citation_journal_id_ASTM
primary 'Journal of Solid State Chemistry' 2000 152 323 331 JSSCBI
loop_
_publ_author_name
'Erragh, F.'
'Boukhari, A.'
'Abraham, F.'
'Elouadi, B.'
_cell_length_a 10.889(5)
_cell_length_b 9.705(4)
_cell_length_c 6.358(4)
_cell_angle_alpha 112.46(4)
_cell_angle_beta 99.92(4)
_cell_angle_gamma 107.54(4)
_cell_volume 559.69
_cell_formula_units_Z 2
_symmetry_space_group_name_H-M 'P -1'
_symmetry_Int_Tables_number 2
_refine_ls_R_factor_all 0.025
loop_
_symmetry_equiv_pos_site_id
_symmetry_equiv_pos_as_xyz
1 '-x, -y, -z'
2 'x, y, z'
loop_
_atom_type_symbol
_atom_type_oxidation_number
Ni2+ 2
P5+ 5
Na1+ 1
Ni2+ 2
Na1+ 1
O2- -2
loop_
_atom_site_label
_atom_site_type_symbol
_atom_site_symmetry_multiplicity
_atom_site_Wyckoff_symbol
_atom_site_fract_x
_atom_site_fract_y
_atom_site_fract_z
_atom_site_B_iso_or_equiv
_atom_site_occupancy
_atom_site_attached_hydrogens
Ni1 Ni2+ 2 i 0.21976(2) 0.61028(3) 0.83379(4) 0.63(3) 1. 0
Ni2 Ni2+ 2 i 0.26356(2) 0.26410(3) 0.40259(4) 0.60(3) 1. 0
P1 P5+ 2 i 0.45391(5) 0.65644(6) 0.73107(9) 0.58(2) 1. 0
P2 P5+ 2 i 0.68389(5) 0.63869(6) 0.01975(9) 0.65(2) 1. 0
P3 P5+ 2 i 0.21379(5) 0.89342(6) 0.31767(10) 0.90(2) 1. 0
P4 P5+ 2 i 0.96376(5) 0.27235(6) 0.48185(9) 0.67(2) 1. 0
Na1 Na1+ 2 i 0.5209(1) 0.2109(1) 0.6840(1) 1.41(5) 0.82 0
Ni3 Ni2+ 2 i 0.5209(1) 0.2109(1) 0.6840(1) 1.41(5) 0.18 0
Na2 Na1+ 2 i 0.6623(1) 0.0175(2) 0.0976(3) 2.64(7) 1. 0
Na3 Na1+ 2 i 0.8929(2) 0.5441(2) 0.8311(3) 3.52(9) 1. 0
Na4 Na1+ 1 a 0 0 0 2.2(6) 0.26(6) 0
Na5 Na1+ 2 i 0.9520(6) 0.9413(4) 0.2487(25) 5.0(4) 0.40(2) 0
Na6 Na1+ 2 i 0.9705(7) 0.9543(15) 0.0878(47) 4.1(4) 0.29(4) 0
O1 O2- 2 i 0.7014(2) 0.4813(2) 0.9634(3) 1.28(8) 1. 0
O2 O2- 2 i 0.4319(2) 0.7879(2) 0.9309(3) 1.00(7) 1. 0
O3 O2- 2 i 0.7759(2) 0.7439(2) 0.9342(4) 1.15(8) 1. 0
O4 O2- 2 i 0.1645(2) 0.7231(2) 0.1127(4) 1.92(9) 1. 0
O5 O2- 2 i 0.5305(2) 0.5770(2) 0.8545(3) 1.05(7) 1. 0
O6 O2- 2 i 0.1990(2) 0.0128(2) 0.2261(3) 1.03(7) 1. 0
O7 O2- 2 i 0.6946(2) 0.7376(2) 0.2758(3) 1.56(7) 1. 0
O8 O2- 2 i 0.0390(2) 0.4269(2) 0.7159(3) 1.47(7) 1. 0
O9 O2- 2 i 0.8390(2) 0.2723(2) 0.3367(3) 1.46(7) 1. 0
O10 O2- 2 i 0.0556(2) 0.2246(2) 0.3416(3) 1.27(7) 1. 0
O11 O2- 2 i 0.5414(2) 0.7231(2) 0.6050(3) 1.11(7) 1. 0
O12 O2- 2 i 0.3139(1) 0.5182(2) 0.5716(3) 0.77(2) 1. 0
O13 O2- 2 i 0.9020(2) 0.1245(2) 0.5466(3) 1.08(7) 1. 0
O14 O2- 2 i 0.3494(2) 0.9511(3) 0.4997(4) 2.36(7) 1. 0
#End of TTdata_91108-ICSD