
#(C) 2019 by FIZ Karlsruhe - Leibniz Institute for Information Infrastructure.  All rights reserved.
data_91138-ICSD
_database_code_ICSD 91138
_audit_creation_date 2002-10-01
_chemical_name_systematic 'Strontium sodium bismuth oxide (3.1/2.9/3/12)'
_chemical_formula_structural 'Sr3.1 Na2.9 Bi3 O12'
_chemical_formula_sum 'Bi3 Na2.9 O12 Sr3.1'
_chemical_name_structure_type Ca2IrO4
_exptl_crystal_density_diffrn 6.5
_publ_section_title

;
Synthesis and characterization of new phases: Sr3.75 K1.75 Bi3 O12 and Sr3.1
Na2.9 Bi3 O12
;
loop_
_citation_id
_citation_journal_full
_citation_year
_citation_journal_volume
_citation_page_first
_citation_page_last
_citation_journal_id_ASTM
primary 'Journal of Solid State Chemistry' 2000 152 492 502 JSSCBI
loop_
_publ_author_name
'Pshirkov, J.S.'
'Kazakov, S.M.'
'Abakumov, A.M.'
'Putilin, S.N.'
'Antipov, E.V.'
'Bougerol-Chaillout, C.'
'Lebedev, O.I.'
'van Tendeloo, G.'
_cell_length_a 10.1102(4)
_cell_length_b 10.1102(4)
_cell_length_c 3.3389(1)
_cell_angle_alpha 90.
_cell_angle_beta 90.
_cell_angle_gamma 120.
_cell_volume 295.57
_cell_formula_units_Z 1
_symmetry_space_group_name_H-M 'P -6 2 m'
_symmetry_Int_Tables_number 189
_refine_ls_R_factor_all 0.024
loop_
_symmetry_equiv_pos_site_id
_symmetry_equiv_pos_as_xyz
1 '-x, -x+y, -z'
2 'x-y, -y, -z'
3 'y, x, -z'
4 '-x, -x+y, z'
5 'x-y, -y, z'
6 'y, x, z'
7 '-x+y, -x, -z'
8 '-y, x-y, -z'
9 'x, y, -z'
10 '-x+y, -x, z'
11 '-y, x-y, z'
12 'x, y, z'
loop_
_atom_type_symbol
_atom_type_oxidation_number
Sr2+ 2
Na1+ 1
Sr2+ 2
Na1+ 1
Sr2+ 2
Bi4+ 4.967
O2- -2
loop_
_atom_site_label
_atom_site_type_symbol
_atom_site_symmetry_multiplicity
_atom_site_Wyckoff_symbol
_atom_site_fract_x
_atom_site_fract_y
_atom_site_fract_z
_atom_site_B_iso_or_equiv
_atom_site_occupancy
_atom_site_attached_hydrogens
Sr1 Sr2+ 1 a 0 0 0 0.4(4) 0.05 0
Na1 Na1+ 1 a 0 0 0 0.4(4) 0.95 0
Sr2 Sr2+ 2 d 0.6667 0.3333 0.5 0.9(2) 0.85 0
Na2 Na1+ 2 d 0.6667 0.3333 0.5 0.9(2) 0.15 0
Na3 Na1+ 3 g 0.6942(6) 0 0.5 1.3(2) 0.55 0
Sr3 Sr2+ 3 g 0.6942(6) 0 0.5 1.3(3) 0.45 0
Bi1 Bi4+ 3 f 0 0.3317(2) 0 0.58(2) 1. 0
O1 O2- 3 g 0.443(2) 0 0.5 0.7(2) 1. 0
O2 O2- 6 j 0.453(2) 0.235(1) 0 0.7(2) 1. 0
O3 O2- 3 g 0.188(2) 0 0.5 0.7(2) 1. 0
#End of TTdata_91138-ICSD