
#(C) 2018 by FIZ Karlsruhe - Leibniz Institute for Information Infrastructure.  All rights reserved.
data_91147-ICSD
_database_code_ICSD 91147
_audit_creation_date 2002-10-01
_audit_update_record 2007-04-01
_chemical_name_systematic
'Lithium titanium niobium oxide (27.84/36.82/1.34/90) - H'
_chemical_formula_structural 'Li27.84 Ti36.816 Nb1.344 O90'
_chemical_formula_sum 'Li27.84 Nb1.344 O90 Ti36.816'
_chemical_name_structure_type Li28Ti37NbO90
_exptl_crystal_density_diffrn 3.75
_cell_measurement_temperature 303.
_publ_section_title

;
Structural characterization of the engineered scavenger compound, H- (Li2 Ti3
O7)
;
loop_
_citation_id
_citation_journal_full
_citation_year
_citation_journal_volume
_citation_page_first
_citation_page_last
_citation_journal_id_ASTM
primary 'Journal of Solid State Chemistry' 2000 152 546 553 JSSCBI
loop_
_publ_author_name
'Bordet, P.'
'Bougerol-Chaillout, C.'
'Grey, I.E.'
'Hodeau, J.L.'
'Isnard, O.'
_cell_length_a 5.0744(1)
_cell_length_b 5.0744(1)
_cell_length_c 69.94049(30)
_cell_angle_alpha 90.
_cell_angle_beta 90.
_cell_angle_gamma 120.
_cell_volume 1559.66
_cell_formula_units_Z 1
_symmetry_space_group_name_H-M 'R -3 c H'
_symmetry_Int_Tables_number 167
_refine_ls_R_factor_all 0.025
loop_
_symmetry_equiv_pos_site_id
_symmetry_equiv_pos_as_xyz
1 'x-y, -y, -z+1/2'
2 '-x, -x+y, -z+1/2'
3 'y, x, -z+1/2'
4 'x-y, x, -z'
5 'y, -x+y, -z'
6 '-x, -y, -z'
7 '-x+y, y, z+1/2'
8 'x, x-y, z+1/2'
9 '-y, -x, z+1/2'
10 '-x+y, -x, z'
11 '-y, x-y, z'
12 'x, y, z'
13 'x-y+2/3, -y+1/3, -z+5/6'
14 '-x+2/3, -x+y+1/3, -z+5/6'
15 'y+2/3, x+1/3, -z+5/6'
16 'x-y+2/3, x+1/3, -z+1/3'
17 'y+2/3, -x+y+1/3, -z+1/3'
18 '-x+2/3, -y+1/3, -z+1/3'
19 '-x+y+2/3, y+1/3, z+5/6'
20 'x+2/3, x-y+1/3, z+5/6'
21 '-y+2/3, -x+1/3, z+5/6'
22 '-x+y+2/3, -x+1/3, z+1/3'
23 '-y+2/3, x-y+1/3, z+1/3'
24 'x+2/3, y+1/3, z+1/3'
25 'x-y+1/3, -y+2/3, -z+1/6'
26 '-x+1/3, -x+y+2/3, -z+1/6'
27 'y+1/3, x+2/3, -z+1/6'
28 'x-y+1/3, x+2/3, -z+2/3'
29 'y+1/3, -x+y+2/3, -z+2/3'
30 '-x+1/3, -y+2/3, -z+2/3'
31 '-x+y+1/3, y+2/3, z+1/6'
32 'x+1/3, x-y+2/3, z+1/6'
33 '-y+1/3, -x+2/3, z+1/6'
34 '-x+y+1/3, -x+2/3, z+2/3'
35 '-y+1/3, x-y+2/3, z+2/3'
36 'x+1/3, y+2/3, z+2/3'
loop_
_atom_type_symbol
_atom_type_oxidation_number
Ti3+ 3.95
Nb5+ 5
Li1+ 1
Nb5+ 5
Li1+ 1
Ti3+ 3.95
Li1+ 1
O2- -2
loop_
_atom_site_label
_atom_site_type_symbol
_atom_site_symmetry_multiplicity
_atom_site_Wyckoff_symbol
_atom_site_fract_x
_atom_site_fract_y
_atom_site_fract_z
_atom_site_B_iso_or_equiv
_atom_site_occupancy
_atom_site_attached_hydrogens
Ti1 Ti3+ 12 c 0.3333 0.6667 0.0048(1) 0.32(1) 1. 0
Ti2 Ti3+ 12 c 0.6667 0.3333 0.0375(1) 0.32(1) 1. 0
Ti3 Ti3+ 12 c 0 0 0.0676(1) 0.32(1) 0.918 0
Nb1 Nb5+ 12 c 0 0 0.0676(1) 0.32(1) 0.082 0
Li1 Li1+ 12 c 0 0 0.0283 0.90(7) 0.97 0
Nb2 Nb5+ 12 c 0 0 0.0283 0.90(7) 0.03 0
Li2 Li1+ 12 c 0.3333 0.6667 0.0596 0.90(7) 0.85 0
Ti4 Ti3+ 12 c 0.3333 0.6667 0.0596 0.90(7) 0.15 0
Li3 Li1+ 12 c 0.6667 0.3333 0.0867(1) 0.90(7) 0.5 0
O1 O2- 36 f -.0217(7) 0.3679(8) 0.0159(1) 0.36(2) 1. 0
O2 O2- 36 f 0.3256(9) 0.2899(7) 0.0505(1) 0.36(2) 1. 0
O3 O2- 18 e 0.618(1) 0 0.25 0.36(2) 1. 0
#End of TTdata_91147-ICSD