
#(C) 2019 by FIZ Karlsruhe - Leibniz Institute for Information Infrastructure.  All rights reserved.
data_91314-ICSD
_database_code_ICSD 91314
_audit_creation_date 2002-10-01
_chemical_name_systematic
'Hexasodium pentakis(dioxouranium(VI)) bis(vanadate) pentaoxide'
_chemical_formula_structural 'Na6 (U O2)5 (V O4)2 O5'
_chemical_formula_sum 'Na6 O23 U5 V2'
_exptl_crystal_density_diffrn 5.62
_publ_section_title

;
Synthesis, crystal structure, and comparison of two new uranyl vanadate
layered compounds: M6 (U O2)5 (V O4)2 O5 with M = Na, K
;
loop_
_citation_id
_citation_journal_full
_citation_year
_citation_journal_volume
_citation_page_first
_citation_page_last
_citation_journal_id_ASTM
primary 'Journal of Solid State Chemistry' 2000 155 342 353 JSSCBI
loop_
_publ_author_name
'Dion, C.'
'Obbade, S.'
'Raekelboom, E.'
'Abraham, F.'
'Saadi, M.'
_cell_length_a 12.584(1)
_cell_length_b 24.3600(20)
_cell_length_c 7.050(1)
_cell_angle_alpha 90.
_cell_angle_beta 100.61(1)
_cell_angle_gamma 90.
_cell_volume 2124.2
_cell_formula_units_Z 4
_symmetry_space_group_name_H-M 'P 1 21/c 1'
_symmetry_Int_Tables_number 14
_refine_ls_R_factor_all 0.039
loop_
_symmetry_equiv_pos_site_id
_symmetry_equiv_pos_as_xyz
1 'x, -y+1/2, z+1/2'
2 '-x, -y, -z'
3 '-x, y+1/2, -z+1/2'
4 'x, y, z'
loop_
_atom_type_symbol
_atom_type_oxidation_number
U6+ 6
V5+ 5
Na1+ 1
O2- -2
loop_
_atom_site_label
_atom_site_type_symbol
_atom_site_symmetry_multiplicity
_atom_site_Wyckoff_symbol
_atom_site_fract_x
_atom_site_fract_y
_atom_site_fract_z
_atom_site_B_iso_or_equiv
_atom_site_occupancy
_atom_site_attached_hydrogens
U1 U6+ 4 e 0.81315(5) 0.07375(2) 0.02283(9) . 1. 0
U2 U6+ 4 e 0.83400(4) 0.36029(2) 0.03880(9) . 1. 0
U3 U6+ 4 e 0.76281(5) 0.50718(2) -.01270(9) . 1. 0
U4 U6+ 4 e 0.70735(5) 0.91180(2) -.01266(9) . 1. 0
U5 U6+ 4 e 0.65359(4) 0.64718(2) -.02754(9) . 1. 0
V1 V5+ 4 e 0.1094(2) 0.7052(1) 0.4516(4) . 1. 0
V2 V5+ 4 e 0.5609(2) 0.7010(1) 0.4502(4) . 1. 0
Na1 Na1+ 4 e 0.0227(5) 0.4619(3) 0.2726(11) . 1. 0
Na2 Na1+ 4 e 0.5739(5) 0.0998(3) 0.2585(11) . 1. 0
Na3 Na1+ 4 e 0.5243(5) 0.4661(3) 0.2620(11) . 1. 0
Na4 Na1+ 4 e 0.0768(5) 0.1222(3) 0.2855(12) . 1. 0
Na5 Na1+ 4 e 0.1155(6) 0.2943(4) 0.2707(13) . 1. 0
Na6 Na1+ 4 e 0.6241(8) 0.3087(6) 0.2504(17) . 1. 0
O1 O2- 4 e -.020(1) 0.718(1) 0.446(2) 2.6(3) 1. 0
O2 O2- 4 e 0.124(1) 0.661(1) 0.264(2) 1.9(2) 1. 0
O3 O2- 4 e 0.171(1) 0.661(1) 0.643(2) 1.5(2) 1. 0
O4 O2- 4 e 0.176(1) 0.765(1) 0.447(2) 2.2(2) 1. 0
O5 O2- 4 e 0.435(1) 0.686(1) 0.455(2) 2.7(3) 1. 0
O6 O2- 4 e 0.646(1) 0.672(1) 0.646(2) 2.1(2) 1. 0
O7 O2- 4 e 0.607(1) 0.660(1) 0.275(2) 1.8(2) 1. 0
O8 O2- 4 e 0.568(1) 0.770(1) 0.425(2) 2.1(2) 1. 0
O9 O2- 4 e 0.666(1) 0.084(1) -.031(2) 1.7(2) 1. 0
O10 O2- 4 e 0.961(1) 0.064(1) 0.071(2) 1.4(2) 1. 0
O11 O2- 4 e 0.795(1) -.014(1) 0.063(2) 1.3(2) 1. 0
O12 O2- 4 e 0.803(1) 0.069(1) 0.334(2) 1.6(2) 1. 0
O13 O2- 4 e 0.818(1) 0.059(1) 0.710(2) 1.3(2) 1. 0
O14 O2- 4 e 0.688(1) 0.350(1) -.010(2) 1.5(2) 1. 0
O15 O2- 4 e 0.981(1) 0.366(1) 0.104(2) 1.4(2) 1. 0
O16 O2- 4 e 0.621(1) 0.485(1) -.048(2) 1.6(2) 1. 0
O17 O2- 4 e 0.902(1) 0.532(1) 0.025(2) 1.1(2) 1. 0
O18 O2- 4 e 0.726(1) 0.577(1) 0.180(2) 1.3(2) 1. 0
O19 O2- 4 e 0.710(1) 0.580(1) 0.805(2) 1.5(2) 1. 0
O20 O2- 4 e 0.835(1) 0.874(1) 0.025(2) 1.6(2) 1. 0
O21 O2- 4 e 0.576(1) 0.948(1) -.059(2) 1.3(2) 1. 0
O22 O2- 4 e 0.786(1) 0.680(1) 0.030(2) 1.8(2) 1. 0
O23 O2- 4 e 0.521(1) 0.616(1) -.084(2) 1.6(2) 1. 0
loop_
_atom_site_aniso_label
_atom_site_aniso_type_symbol
_atom_site_aniso_U_11
_atom_site_aniso_U_22
_atom_site_aniso_U_33
_atom_site_aniso_U_12
_atom_site_aniso_U_13
_atom_site_aniso_U_23
U1 U6+ 0.0118(3) 0.0034(3) 0.0128(3) -.0008(2) 0.0013(2) 0.0001(2)
U2 U6+ 0.0128(3) 0.0033(3) 0.0129(3) 0.0011(2) 0.0009(2) 0.0004(2)
U3 U6+ 0.0115(3) 0.0026(3) 0.0176(4) 0.0018(2) 0.0002(3) 0.0001(2)
U4 U6+ 0.0126(3) 0.0040(3) 0.0127(4) -.0016(2) 0.0008(2) -.0007(2)
U5 U6+ 0.0128(3) 0.0043(3) 0.0127(3) 0.0014(2) 0.0006(2) 0.0001(2)
V1 V5+ 0.0200(14) 0.0021(14) 0.0173(16) 0.0018(10) 0.0027(12) 0.0007(12)
V2 V5+ 0.0198(14) 0.0061(15) 0.0159(16) 0.0022(10) 0.0036(12) 0.0004(12)
Na1 Na1+ 0.0204(36) 0.0313(46) 0.0259(43) -.0092(30) 0.0051(32) -.0043(35)
Na2 Na1+ 0.0243(36) 0.0142(38) 0.0350(46) -.0024(28) -.0033(33) -.0014(34)
Na3 Na1+ 0.0283(38) 0.0163(41) 0.0323(46) 0.0036(29) -.0071(34) -.0004(33)
Na4 Na1+ 0.0202(35) 0.0228(43) 0.0418(51) -.0020(29) -.0071(34) -.0074(37)
Na5 Na1+ 0.0393(45) 0.0407(56) 0.0427(55) -.0103(37) 0.0054(41) -.0118(43)
Na6 Na1+ 0.0497(60) 0.161(14) 0.0460(68) -.0441(71) 0.0057(52) -.0281(76)
#End of TTdata_91314-ICSD