
#(C) 2019 by FIZ Karlsruhe - Leibniz Institute for Information Infrastructure.  All rights reserved.
data_91524-ICSD
_database_code_ICSD 91524
_audit_creation_date 2002-10-01
_audit_update_record 2009-02-01
_chemical_name_systematic 'Decacalcium sodium heptakis(phosphate(V))'
_chemical_formula_structural 'Ca10 Na (P O4)7'
_chemical_formula_sum 'Ca10 Na1 O28 P7'
_chemical_name_structure_type Ca9MgNa(PO4)7
_exptl_crystal_density_diffrn 3.08
_publ_section_title

;
Crystal structure of calcium alkali metal phosphates Ca10 M (P O4)7 (M = Li,
Na, K)
;
loop_
_citation_id
_citation_journal_full
_citation_year
_citation_journal_volume
_citation_page_first
_citation_page_last
_citation_journal_id_ASTM
primary Kristallografiya 2000 45 19 26 KRISAJ
loop_
_publ_author_name
'Morozov, V.A.'
'Belik, V.A.'
'Kotov, R.N.'
'Presniakov, I.A.'
'Khasanov, S.S.'
'Lazoryak, B.I.'
_cell_length_a 10.4391(1)
_cell_length_b 10.4391(1)
_cell_length_c 37.30959(10)
_cell_angle_alpha 90.
_cell_angle_beta 90.
_cell_angle_gamma 120.
_cell_volume 3521.09
_cell_formula_units_Z 6
_symmetry_space_group_name_H-M 'R 3 c H'
_symmetry_Int_Tables_number 161
_refine_ls_R_factor_all 0.013
loop_
_symmetry_equiv_pos_site_id
_symmetry_equiv_pos_as_xyz
1 '-x+y, y, z+1/2'
2 'x, x-y, z+1/2'
3 '-y, -x, z+1/2'
4 '-x+y, -x, z'
5 '-y, x-y, z'
6 'x, y, z'
7 '-x+y+2/3, y+1/3, z+5/6'
8 'x+2/3, x-y+1/3, z+5/6'
9 '-y+2/3, -x+1/3, z+5/6'
10 '-x+y+2/3, -x+1/3, z+1/3'
11 '-y+2/3, x-y+1/3, z+1/3'
12 'x+2/3, y+1/3, z+1/3'
13 '-x+y+1/3, y+2/3, z+1/6'
14 'x+1/3, x-y+2/3, z+1/6'
15 '-y+1/3, -x+2/3, z+1/6'
16 '-x+y+1/3, -x+2/3, z+2/3'
17 '-y+1/3, x-y+2/3, z+2/3'
18 'x+1/3, y+2/3, z+2/3'
loop_
_atom_type_symbol
_atom_type_oxidation_number
Ca2+ 2
Na1+ 1
Ca2+ 2
P5+ 5
O2- -2
loop_
_atom_site_label
_atom_site_type_symbol
_atom_site_symmetry_multiplicity
_atom_site_Wyckoff_symbol
_atom_site_fract_x
_atom_site_fract_y
_atom_site_fract_z
_atom_site_B_iso_or_equiv
_atom_site_occupancy
_atom_site_attached_hydrogens
Ca1 Ca2+ 18 b 0.7260(6) 0.8589(6) 0.4316(3) 0.6(1) 1. 0
Ca2 Ca2+ 18 b 0.6160(5) 0.8244(7) 0.2320(3) 0.6(1) 1. 0
Ca3 Ca2+ 18 b 0.1208(6) 0.2664(4) 0.3254(3) 0.91(1) 1. 0
Na1 Na1+ 6 a 0 0 0.185(1) 2.0(5) 0.8(1) 0
Na2 Na1+ 6 a 0 0 0.169(6) 2.0(5) 0.2(1) 0
Ca5 Ca2+ 6 a 0 0 0 0.5(1) 1. 0
P1 P5+ 6 a 0 0 0.2667(4) 1.0(2) 1. 0
P2 P5+ 18 b 0.6903(7) 0.8645(9) 0.1340(4) 0.7(1) 1. 0
P3 P5+ 18 b 0.6516(8) 0.8469(8) 0.0324(3) 0.7(2) 1. 0
O1 O2- 6 a 0 0 0.3098(8) 0.4(5) 1. 0
O2 O2- 18 b 0.010(2) 0.863(1) 0.2542(6) 0.7(3) 1. 0
O3 O2- 18 b 0.737(2) 0.918(2) 0.1753(5) 1.0(4) 1. 0
O4 O2- 18 b 0.766(2) 0.780(2) 0.1216(6) 0.6(4) 1. 0
O5 O2- 18 b 0.727(2) 0.012(2) 0.1136(6) 0.6(4) 1. 0
O6 O2- 18 b 0.521(2) 0.763(2) 0.1290(6) 0.6(3) 1. 0
O7 O2- 18 b 0.600(2) 0.952(2) 0.0451(6) 0.8(4) 1. 0
O8 O2- 18 b 0.570(2) 0.691(2) 0.0513(6) 1.0(4) 1. 0
O9 O2- 18 b 0.820(1) 0.921(2) 0.0439(6) 0.4(3) 1. 0
O10 O2- 18 b 0.631(1) 0.828(2) 0.9921(5) 0.7(3) 1. 0
#End of TTdata_91524-ICSD