
#(C) 2019 by FIZ Karlsruhe - Leibniz Institute for Information Infrastructure.  All rights reserved.
data_91542-ICSD
_database_code_ICSD 91542
_audit_creation_date 2002-10-01
_audit_update_record 2009-02-01
_chemical_name_systematic
'Sodium dihydrogenphosphate(V) - phosphoric acid (1/1) - alpha'
_chemical_formula_structural 'Na (H2 P O4) (H3 P O4)'
_chemical_formula_sum 'H5 Na1 O8 P2'
_chemical_name_structure_type NaH5(PO4)2
_exptl_crystal_density_diffrn 2.1
_publ_section_title

;
Crystal structure of two modifications of sodium hydrogen phosphate Na H5 (P
O4)2
;
loop_
_citation_id
_citation_journal_full
_citation_year
_citation_journal_volume
_citation_page_first
_citation_page_last
_citation_journal_id_ASTM
primary Kristallografiya 2000 45 620 624 KRISAJ
loop_
_publ_author_name
'Kosterina, E.V.'
'Rybakov, V.B.'
'Kemnitz, E.'
'Troyanov, S.I.'
_cell_length_a 8.484(4)
_cell_length_b 7.842(3)
_cell_length_c 10.353(4)
_cell_angle_alpha 90.
_cell_angle_beta 90.50(3)
_cell_angle_gamma 90.
_cell_volume 688.77
_cell_formula_units_Z 4
_symmetry_space_group_name_H-M 'P 1 21/c 1'
_symmetry_Int_Tables_number 14
_refine_ls_R_factor_all 0.025
loop_
_symmetry_equiv_pos_site_id
_symmetry_equiv_pos_as_xyz
1 'x, -y+1/2, z+1/2'
2 '-x, -y, -z'
3 '-x, y+1/2, -z+1/2'
4 'x, y, z'
loop_
_atom_type_symbol
_atom_type_oxidation_number
Na1+ 1
P5+ 5
O2- -2
H1+ 1
loop_
_atom_site_label
_atom_site_type_symbol
_atom_site_symmetry_multiplicity
_atom_site_Wyckoff_symbol
_atom_site_fract_x
_atom_site_fract_y
_atom_site_fract_z
_atom_site_B_iso_or_equiv
_atom_site_occupancy
_atom_site_attached_hydrogens
Na1 Na1+ 4 e 0.2210(1) 0.5869(1) 0.6633(1) 0.013(1) 1. 0
P1 P5+ 4 e 0.4158(1) 0.0056(1) 0.6939(1) 0.010(1) 1. 0
P2 P5+ 4 e 0.0388(1) 0.7416(1) 0.9299(1) 0.009(1) 1. 0
O1 O2- 4 e 0.4879(2) 0.1474(2) 0.6162(1) 0.014(1) 1. 0
O2 O2- 4 e 0.2607(2) 0.0556(2) 0.7550(1) 0.014(1) 1. 0
O3 O2- 4 e 0.3853(2) 0.8430(2) 0.6096(1) 0.016(1) 1. 0
O4 O2- 4 e 0.5369(2) -.0478(2) 0.8012(2) 0.016(1) 1. 0
O5 O2- 4 e 0.1047(2) 0.5869(2) 0.8656(1) 0.012(1) 1. 0
O6 O2- 4 e 0.1504(2) 0.8965(2) 0.9396(1) 0.013(1) 1. 0
O7 O2- 4 e 0.8863(2) 0.8046(2) 0.8580(1) 0.014(1) 1. 0
O8 O2- 4 e 0.0016(2) 0.7145(2) 0.0756(1) 0.013(1) 1. 0
H1 H1+ 4 e 0.426(3) 0.849(3) 0.548(3) 0.033(8) 1. 0
H2 H1+ 4 e 0.526(4) 0.869(5) 0.832(4) 0.06(1) 1. 0
H3 H1+ 4 e 0.173(4) 0.947(4) 0.868(3) 0.051(9) 1. 0
H4 H1+ 4 e 0.845(3) 0.721(4) 0.818(3) 0.036(8) 1. 0
H5 H1+ 4 e -.023(3) 0.635(4) 0.087(3) 0.017(9) 1. 0
#End of TTdata_91542-ICSD