
#(C) 2019 by FIZ Karlsruhe - Leibniz Institute for Information Infrastructure.  All rights reserved.
data_91776-ICSD
_database_code_ICSD 91776
_audit_creation_date 2002-10-01
_chemical_name_systematic 'Sodium bismuthate(V)'
_chemical_formula_structural 'Na (Bi O3)'
_chemical_formula_sum 'Bi1 Na1 O3'
_chemical_name_structure_type Ilmenite-TiFeO3
_exptl_crystal_density_diffrn 6.5
_publ_section_title

;
Neutron powder diffraction refinement of ilmenite-type bismuth oxides: A Bi O3
(A = Na, Ag)
;
loop_
_citation_id
_citation_journal_full
_citation_year
_citation_journal_volume
_citation_page_first
_citation_page_last
_citation_journal_id_ASTM
primary 'Materials Research Bulletin' 2000 35 2397 2402 MRBUAC
loop_
_publ_author_name
'Kumada, N.'
'Kinomura, N.'
'Sleight, A.W.'
_cell_length_a 5.5672(4)
_cell_length_b 5.5672(4)
_cell_length_c 15.989(1)
_cell_angle_alpha 90.
_cell_angle_beta 90.
_cell_angle_gamma 120.
_cell_volume 429.17
_cell_formula_units_Z 6
_symmetry_space_group_name_H-M 'R -3 H'
_symmetry_Int_Tables_number 148
_refine_ls_R_factor_all 0.092
loop_
_symmetry_equiv_pos_site_id
_symmetry_equiv_pos_as_xyz
1 'x-y, x, -z'
2 'y, -x+y, -z'
3 '-x, -y, -z'
4 '-x+y, -x, z'
5 '-y, x-y, z'
6 'x, y, z'
7 'x-y+2/3, x+1/3, -z+1/3'
8 'y+2/3, -x+y+1/3, -z+1/3'
9 '-x+2/3, -y+1/3, -z+1/3'
10 '-x+y+2/3, -x+1/3, z+1/3'
11 '-y+2/3, x-y+1/3, z+1/3'
12 'x+2/3, y+1/3, z+1/3'
13 'x-y+1/3, x+2/3, -z+2/3'
14 'y+1/3, -x+y+2/3, -z+2/3'
15 '-x+1/3, -y+2/3, -z+2/3'
16 '-x+y+1/3, -x+2/3, z+2/3'
17 '-y+1/3, x-y+2/3, z+2/3'
18 'x+1/3, y+2/3, z+2/3'
loop_
_atom_type_symbol
_atom_type_oxidation_number
Na1+ 1
Bi5+ 5
O2- -2
loop_
_atom_site_label
_atom_site_type_symbol
_atom_site_symmetry_multiplicity
_atom_site_Wyckoff_symbol
_atom_site_fract_x
_atom_site_fract_y
_atom_site_fract_z
_atom_site_B_iso_or_equiv
_atom_site_occupancy
_atom_site_attached_hydrogens
Na1 Na1+ 6 c 0 0 0.1446(9) 2.7(2) 1. 0
Bi1 Bi5+ 6 c 0 0 0.3428(4) 1.3(1) 1. 0
O1 O2- 18 f 0.2779(8) -.038(1) 0.2589(4) 3.0(2) 1. 0
#End of TTdata_91776-ICSD