
#(C) 2019 by FIZ Karlsruhe - Leibniz Institute for Information Infrastructure.  All rights reserved.
data_91793-ICSD
_database_code_ICSD 91793
_audit_creation_date 2002-10-01
_chemical_name_systematic 'Sodium tetralead tris(phosphate(V))'
_chemical_formula_structural 'Na Pb4 (P O4)3'
_chemical_formula_sum 'Na1 O12 P3 Pb4'
_chemical_name_structure_type Er3Pb1.5(SiO4)3
_exptl_crystal_density_diffrn 6.41
_cell_measurement_temperature 296.
_publ_section_title
'The crystal structure of the lacunar apatite Na Pb4 (P O4)3'
loop_
_citation_id
_citation_journal_full
_citation_year
_citation_journal_volume
_citation_page_first
_citation_page_last
_citation_journal_id_ASTM
primary 'Materials Research Bulletin' 2000 35 503 513 MRBUAC
loop_
_publ_author_name
'El Koumiri, M.'
'Oishi, S.'
'Sato, S.'
'El Ammari, L.'
'Elouadi, B.'
_cell_length_a 9.7249(8)
_cell_length_b 9.7249(8)
_cell_length_c 7.190(1)
_cell_angle_alpha 90.
_cell_angle_beta 90.
_cell_angle_gamma 120.
_cell_volume 588.88
_cell_formula_units_Z 2
_symmetry_space_group_name_H-M 'P 63/m'
_symmetry_Int_Tables_number 176
_refine_ls_R_factor_all 0.023
loop_
_symmetry_equiv_pos_site_id
_symmetry_equiv_pos_as_xyz
1 '-x+y, -x, -z+1/2'
2 '-y, x-y, -z+1/2'
3 'x, y, -z+1/2'
4 'x-y, x, -z'
5 'y, -x+y, -z'
6 '-x, -y, -z'
7 'x-y, x, z+1/2'
8 'y, -x+y, z+1/2'
9 '-x, -y, z+1/2'
10 '-x+y, -x, z'
11 '-y, x-y, z'
12 'x, y, z'
loop_
_atom_type_symbol
_atom_type_oxidation_number
Pb2+ 2
Na1+ 1
P5+ 5
O2- -2
loop_
_atom_site_label
_atom_site_type_symbol
_atom_site_symmetry_multiplicity
_atom_site_Wyckoff_symbol
_atom_site_fract_x
_atom_site_fract_y
_atom_site_fract_z
_atom_site_B_iso_or_equiv
_atom_site_occupancy
_atom_site_attached_hydrogens
Pb1 Pb2+ 6 h 0.25642(5) 0.25802(5) 0.25 . 1. 0
Pb2 Pb2+ 4 f 0.6667 0.3333 0.5106(1) . 0.5 0
Na1 Na1+ 4 f 0.6667 0.3333 0.5106(1) . 0.5 0
P1 P5+ 6 h 0.3792(3) 0.3992(3) 0.75 . 1. 0
O1 O2- 6 h 0.4843(11) 0.3218(11) 0.75 . 1. 0
O2 O2- 12 i 0.2681(8) 0.348(1) 0.5800(9) . 1. 0
O3 O2- 6 h 0.4812(12) 0.5837(13) 0.75 . 1. 0
loop_
_atom_site_aniso_label
_atom_site_aniso_type_symbol
_atom_site_aniso_U_11
_atom_site_aniso_U_22
_atom_site_aniso_U_33
_atom_site_aniso_U_12
_atom_site_aniso_U_13
_atom_site_aniso_U_23
Pb1 Pb2+ 0.0109(2) 0.0113(2) 0.0167(2) 0.0054(1) 0 0
Pb2 Pb2+ 0.0110(2) 0.0110(2) 0.0117(4) 0.0055(1) 0 0
Na1 Na1+ 0.0110(2) 0.0110(2) 0.0117(4) 0.0055(1) 0 0
P1 P5+ 0.0066(10) 0.007(1) 0.0087(10) 0.0036(9) 0 0
O1 O2- 0.015(4) 0.020(4) 0.015(4) 0.015(3) 0 0
O2 O2- 0.018(3) 0.039(4) 0.011(3) 0.018(3) -.006(2) -.009(3)
O3 O2- 0.015(4) 0.013(4) 0.056(8) 0.004(3) 0 0
#End of TTdata_91793-ICSD