
#(C) 2018 by FIZ Karlsruhe - Leibniz Institute for Information Infrastructure.  All rights reserved.
data_91983-ICSD
_database_code_ICSD 91983
_audit_creation_date 2002-10-01
_chemical_name_systematic
'Yttrium barium copper lithium oxide (1/2/2.94/0.06/6.91)'
_chemical_formula_structural 'Y Ba2 Cu2.94 Li0.06 O6.91'
_chemical_formula_sum 'Ba2 Cu2.94 Li0.06 O6.91 Y1'
_chemical_name_structure_type YBa2Cu3O6+x(orh)
_exptl_crystal_density_diffrn 6.33
_cell_measurement_temperature 300.
_publ_section_title 'Local structural changes in lithium-doped Y Ba2 Cu3 Oy'
loop_
_citation_id
_citation_journal_full
_citation_year
_citation_journal_volume
_citation_page_first
_citation_page_last
_citation_journal_id_ASTM
primary 'Physica C, Superconductivity' 2000 333 121 132 PHYCE6
loop_
_publ_author_name
'Maury, F.'
'Nicolas-Francillon, M.'
'Bouree, F.'
'Ollitrault-Fichet, R.'
'Nanot, M.'
_cell_length_a 3.8226(1)
_cell_length_b 3.8860(1)
_cell_length_c 11.6737(3)
_cell_angle_alpha 90.
_cell_angle_beta 90.
_cell_angle_gamma 90.
_cell_volume 173.41
_cell_formula_units_Z 1
_symmetry_space_group_name_H-M 'P m m m'
_symmetry_Int_Tables_number 47
_refine_ls_R_factor_all 0.028
loop_
_symmetry_equiv_pos_site_id
_symmetry_equiv_pos_as_xyz
1 'x, -y, z'
2 '-x, y, z'
3 'x, y, -z'
4 '-x, -y, -z'
5 '-x, y, -z'
6 'x, -y, -z'
7 '-x, -y, z'
8 'x, y, z'
loop_
_atom_type_symbol
_atom_type_oxidation_number
Y3+ 3
Ba2+ 2
Cu2+ 2.299
Li1+ 1
Cu2+ 2.299
Li1+ 1
O2- -2
loop_
_atom_site_label
_atom_site_type_symbol
_atom_site_symmetry_multiplicity
_atom_site_Wyckoff_symbol
_atom_site_fract_x
_atom_site_fract_y
_atom_site_fract_z
_atom_site_B_iso_or_equiv
_atom_site_occupancy
_atom_site_attached_hydrogens
Y1 Y3+ 1 h 0.5 0.5 0.5 0.57(3) 1. 0
Ba1 Ba2+ 2 t 0.5 0.5 0.1849(2) 0.42(3) 1. 0
Cu1 Cu2+ 1 a 0 0 0 0.44(3) 0.988 0
Li1 Li1+ 1 a 0 0 0 0.44(3) 0.012 0
Cu2 Cu2+ 2 q 0 0 0.3559(1) 0.40(2) 0.976 0
Li2 Li1+ 2 q 0 0 0.3559(1) 0.40(2) 0.024 0
O1 O2- 2 q 0 0 0.1578(2) 0.80(3) 0.97 0
O2 O2- 2 s 0.5 0 0.3787(2) 0.65(3) 1. 0
O3 O2- 2 r 0 0.5 0.3778(2) 0.49(3) 1. 0
O4 O2- 2 k 0.035(2) 0.5 0 0.8(1) 0.466(10) 0
O5 O2- 2 o 0.5 0.035(2) 0 . 0.019(10) 0
#End of TTdata_91983-ICSD