
#(C) 2018 by FIZ Karlsruhe - Leibniz Institute for Information Infrastructure.  All rights reserved.
data_91982-ICSD
_database_code_ICSD 91982
_audit_creation_date 2002-10-01
_chemical_name_systematic
'Yttrium barium copper lithium oxide (0.98/2/2.82/0.18/6.77)'
_chemical_formula_structural 'Y0.98 Ba2 Cu2.82 Li0.18 O6.77'
_chemical_formula_sum 'Ba2 Cu2.82 Li0.18 O6.77 Y0.98'
_chemical_name_structure_type YBa2Cu3O6+x(orh)
_exptl_crystal_density_diffrn 6.22
_cell_measurement_temperature 300.
_publ_section_title 'Local structural changes in lithium-doped Y Ba2 Cu3 Oy'
loop_
_citation_id
_citation_journal_full
_citation_year
_citation_journal_volume
_citation_page_first
_citation_page_last
_citation_journal_id_ASTM
primary 'Physica C, Superconductivity' 2000 333 121 132 PHYCE6
loop_
_publ_author_name
'Maury, F.'
'Nicolas-Francillon, M.'
'Bouree, F.'
'Ollitrault-Fichet, R.'
'Nanot, M.'
_cell_length_a 3.8281(1)
_cell_length_b 3.8871(1)
_cell_length_c 11.6646(5)
_cell_angle_alpha 90.
_cell_angle_beta 90.
_cell_angle_gamma 90.
_cell_volume 173.57
_cell_formula_units_Z 1
_symmetry_space_group_name_H-M 'P m m m'
_symmetry_Int_Tables_number 47
_refine_ls_R_factor_all 0.042
loop_
_symmetry_equiv_pos_site_id
_symmetry_equiv_pos_as_xyz
1 'x, -y, z'
2 '-x, y, z'
3 'x, y, -z'
4 '-x, -y, -z'
5 '-x, y, -z'
6 'x, -y, -z'
7 '-x, -y, z'
8 'x, y, z'
loop_
_atom_type_symbol
_atom_type_oxidation_number
Y3+ 3
Ba2+ 2
Cu2+ 2.277
Li1+ 1
Cu2+ 2.277
Li1+ 1
O2- -2
loop_
_atom_site_label
_atom_site_type_symbol
_atom_site_symmetry_multiplicity
_atom_site_Wyckoff_symbol
_atom_site_fract_x
_atom_site_fract_y
_atom_site_fract_z
_atom_site_B_iso_or_equiv
_atom_site_occupancy
_atom_site_attached_hydrogens
Y1 Y3+ 1 h 0.5 0.5 0.5 0.64(7) 0.98(1) 0
Ba1 Ba2+ 2 t 0.5 0.5 0.1863(3) 0.57(5) 1. 0
Cu1 Cu2+ 1 a 0 0 0 0.46(4) 0.955 0
Li1 Li1+ 1 a 0 0 0 0.46(4) 0.045 0
Cu2 Cu2+ 2 q 0 0 0.3567(2) 0.40(4) 0.9325 0
Li2 Li1+ 2 q 0 0 0.3567(2) 0.40(4) 0.0675 0
O1 O2- 2 q 0 0 0.1574(3) 0.79(5) 0.91 0
O2 O2- 2 s 0.5 0 0.3772(3) 0.57(5) 1. 0
O3 O2- 2 r 0 0.5 0.3780(3) 0.54(5) 1. 0
O4 O2- 2 k 0.040(2) 0.5 0 1.0(2) 0.456(10) 0
O5 O2- 2 o 0.5 0.040(2) 0 . 0.019(10) 0
#End of TTdata_91982-ICSD