
#(C) 2019 by FIZ Karlsruhe - Leibniz Institute for Information Infrastructure.  All rights reserved.
data_92301-ICSD
_database_code_ICSD 92301
_audit_creation_date 2002-10-01
_chemical_name_systematic 'Trisodium pentabismuth hexakis(phosphate(V))'
_chemical_formula_structural 'Na3 Bi5 (P O4)6'
_chemical_formula_sum 'Bi5 Na3 O24 P6'
_chemical_name_structure_type Eulytite-Bi4(SiO4)3
_chemical_name_mineral Unnamed_Tetrahedrite
_exptl_crystal_density_diffrn 5.43
_cell_measurement_temperature 295.
_publ_section_title 'The crystal structure of eulytite Na3 Bi5 (P O4)6'
loop_
_citation_id
_citation_journal_full
_citation_year
_citation_journal_volume
_citation_page_first
_citation_page_last
_citation_journal_id_ASTM
primary 'Solid State Sciences' 2000 2 243 247 SSSCFJ
loop_
_publ_author_name
'Arbib, E.H.'
'Chaminade, J.P.'
'Darriet, J.'
'Elouadi, B.'
_cell_length_a 10.097(4)
_cell_length_b 10.097(4)
_cell_length_c 10.097(4)
_cell_angle_alpha 90.
_cell_angle_beta 90.
_cell_angle_gamma 90.
_cell_volume 1029.38
_cell_formula_units_Z 2
_symmetry_space_group_name_H-M 'I -4 3 d'
_symmetry_Int_Tables_number 220
_refine_ls_R_factor_all 0.026
loop_
_symmetry_equiv_pos_site_id
_symmetry_equiv_pos_as_xyz
1 '-y+1/4, -x+3/4, z+3/4'
2 'y+3/4, -x+1/4, -z+3/4'
3 '-y+3/4, x+3/4, -z+1/4'
4 'y+1/4, x+1/4, z+1/4'
5 'z+1/2, -x+1/2, -y'
6 '-z+1/2, -x, y+1/2'
7 '-z, x+1/2, -y+1/2'
8 'z, x, y'
9 'z+3/4, -y+1/4, -x+3/4'
10 '-z+3/4, y+3/4, -x+1/4'
11 '-z+1/4, -y+3/4, x+3/4'
12 'z+1/4, y+1/4, x+1/4'
13 '-y, z+1/2, -x+1/2'
14 'y+1/2, -z+1/2, -x'
15 '-y+1/2, -z, x+1/2'
16 'y, z, x'
17 '-x+3/4, z+3/4, -y+1/4'
18 '-x+1/4, -z+3/4, y+3/4'
19 'x+3/4, -z+1/4, -y+3/4'
20 'x+1/4, z+1/4, y+1/4'
21 '-x+1/2, -y, z+1/2'
22 '-x, y+1/2, -z+1/2'
23 'x+1/2, -y+1/2, -z'
24 'x, y, z'
25 '-y+3/4, -x+1/4, z+1/4'
26 'y+1/4, -x+3/4, -z+1/4'
27 '-y+1/4, x+1/4, -z+3/4'
28 'y+3/4, x+3/4, z+3/4'
29 'z, -x, -y+1/2'
30 '-z, -x+1/2, y'
31 '-z+1/2, x, -y'
32 'z+1/2, x+1/2, y+1/2'
33 'z+1/4, -y+3/4, -x+1/4'
34 '-z+1/4, y+1/4, -x+3/4'
35 '-z+3/4, -y+1/4, x+1/4'
36 'z+3/4, y+3/4, x+3/4'
37 '-y+1/2, z, -x'
38 'y, -z, -x+1/2'
39 '-y, -z+1/2, x'
40 'y+1/2, z+1/2, x+1/2'
41 '-x+1/4, z+1/4, -y+3/4'
42 '-x+3/4, -z+1/4, y+1/4'
43 'x+1/4, -z+3/4, -y+1/4'
44 'x+3/4, z+3/4, y+3/4'
45 '-x, -y+1/2, z'
46 '-x+1/2, y, -z'
47 'x, -y, -z+1/2'
48 'x+1/2, y+1/2, z+1/2'
loop_
_atom_type_symbol
_atom_type_oxidation_number
Bi3+ 3
Na1+ 1
P5+ 5
O2- -2
loop_
_atom_site_label
_atom_site_type_symbol
_atom_site_symmetry_multiplicity
_atom_site_Wyckoff_symbol
_atom_site_fract_x
_atom_site_fract_y
_atom_site_fract_z
_atom_site_B_iso_or_equiv
_atom_site_occupancy
_atom_site_attached_hydrogens
Bi1 Bi3+ 16 c 0.07848(6) 0.07848(6) 0.07848(6) . 0.625 0
Na1 Na1+ 16 c 0.0674(11) 0.0674(11) 0.0674(11) . 0.375 0
P1 P5+ 12 a 0.375 0 0.25 . 1. 0
O1 O2- 48 e 0.45933(42) 0.88411(45) 0.20107(56) . 1. 0
loop_
_atom_site_aniso_label
_atom_site_aniso_type_symbol
_atom_site_aniso_U_11
_atom_site_aniso_U_22
_atom_site_aniso_U_33
_atom_site_aniso_U_12
_atom_site_aniso_U_13
_atom_site_aniso_U_23
Bi1 Bi3+ 0.01853(14) 0.01853(14) 0.01853(14) -.00334(11) -.00334(11) -.00334(11)
Na1 Na1+ 0.0451(100) 0.0451(100) 0.0451(100) -0.0218(44) -0.0218(44) -0.0218(44)
P1 P5+ 0.01118(65) 0.01299(45) 0.01299(45) 0 0 0
O1 O2- 0.0224(15) 0.0246(16) 0.0641(31) -0.0226(18) 0.0005(15) 0.0035(13)
#End of TTdata_92301-ICSD