
#(C) 2019 by FIZ Karlsruhe - Leibniz Institute for Information Infrastructure.  All rights reserved.
data_92464-ICSD
_database_code_ICSD 92464
_audit_creation_date 2002-10-01
_chemical_name_systematic 'Disodium hexahydroxostannate'
_chemical_formula_structural 'Na2 (Sn (O H)6)'
_chemical_formula_sum 'H6 Na2 O6 Sn1'
_chemical_name_structure_type K2Pb(OH)6
_exptl_crystal_density_diffrn 3.05
_publ_section_title

;
Neubestimmung der Kristallstrukturen der Hexahydroxometallate Na2 Sn (O H)6,
K2 Sn (O H)6 und K2 Pb (O H)6
;
loop_
_citation_id
_citation_journal_full
_citation_year
_citation_journal_volume
_citation_page_first
_citation_page_last
_citation_journal_id_ASTM
primary 'Zeitschrift fuer Anorganische und Allgemeine Chemie (1950) (DE)' 2000
626 1863 1866 ZAACAB
loop_
_publ_author_name
'Jacobs, H.'
'Stahl, R.'
_cell_length_a 5.951(1)
_cell_length_b 5.951(1)
_cell_length_c 14.191(2)
_cell_angle_alpha 90.
_cell_angle_beta 90.
_cell_angle_gamma 120.
_cell_volume 435.23
_cell_formula_units_Z 3
_symmetry_space_group_name_H-M 'R -3 H'
_symmetry_Int_Tables_number 148
_refine_ls_R_factor_all 0.034
loop_
_symmetry_equiv_pos_site_id
_symmetry_equiv_pos_as_xyz
1 'x-y, x, -z'
2 'y, -x+y, -z'
3 '-x, -y, -z'
4 '-x+y, -x, z'
5 '-y, x-y, z'
6 'x, y, z'
7 'x-y+2/3, x+1/3, -z+1/3'
8 'y+2/3, -x+y+1/3, -z+1/3'
9 '-x+2/3, -y+1/3, -z+1/3'
10 '-x+y+2/3, -x+1/3, z+1/3'
11 '-y+2/3, x-y+1/3, z+1/3'
12 'x+2/3, y+1/3, z+1/3'
13 'x-y+1/3, x+2/3, -z+2/3'
14 'y+1/3, -x+y+2/3, -z+2/3'
15 '-x+1/3, -y+2/3, -z+2/3'
16 '-x+y+1/3, -x+2/3, z+2/3'
17 '-y+1/3, x-y+2/3, z+2/3'
18 'x+1/3, y+2/3, z+2/3'
loop_
_atom_type_symbol
_atom_type_oxidation_number
Sn4+ 4
Na1+ 1
O2- -2
H1+ 1
loop_
_atom_site_label
_atom_site_type_symbol
_atom_site_symmetry_multiplicity
_atom_site_Wyckoff_symbol
_atom_site_fract_x
_atom_site_fract_y
_atom_site_fract_z
_atom_site_B_iso_or_equiv
_atom_site_occupancy
_atom_site_attached_hydrogens
Sn1 Sn4+ 3 a 0 0 0 . 1. 0
Na1 Na1+ 6 c 0 0 0.3322(3) 0.40(6) 1. 0
O1 O2- 18 f 0.2887(9) 0.2919(9) 0.0805(3) . 1. 0
H1 H1+ 18 f 0.27(2) 0.29(2) 0.129(6) 1.(2) 1. 0
loop_
_atom_site_aniso_label
_atom_site_aniso_type_symbol
_atom_site_aniso_U_11
_atom_site_aniso_U_22
_atom_site_aniso_U_33
_atom_site_aniso_U_12
_atom_site_aniso_U_13
_atom_site_aniso_U_23
Sn1 Sn4+ 0.0079(3) 0.0079(3) 0.0125(4) 0.0039(2) 0 0
O1 O2- 0.016(2) 0.016(2) 0.012(2) 0.007(1) -.002(2) -.002(2)
#End of TTdata_92464-ICSD