
#(C) 2019 by FIZ Karlsruhe - Leibniz Institute for Information Infrastructure.  All rights reserved.
data_92534-ICSD
_database_code_ICSD 92534
_audit_creation_date 2003-04-01
_chemical_name_systematic 'Sodium rubidium disilicate'
_chemical_formula_structural 'Na Rb (Si2 O5)'
_chemical_formula_sum 'Na1 O5 Rb1 Si2'
_chemical_name_structure_type NaKSi2O5
_exptl_crystal_density_diffrn 3.2
_cell_measurement_temperature 150.
_publ_section_title

;
Mixed alkali systems: Dietzel's theorem, X-ray structure, hygroscopicity, and
29-Si MAS NMR of Na Rb Si2 O5 and Na Cs Si2 O5
;
loop_
_citation_id
_citation_journal_full
_citation_year
_citation_journal_volume
_citation_page_first
_citation_page_last
_citation_journal_id_ASTM
primary 'Zeitschrift fuer Kristallographie' 2000 215 347 405 ZEKRDZ
loop_
_publ_author_name
'de Jong, B.H.W.S.'
'Super, H.T.J.'
'Frijhoff, R.M.'
'Spek, A.L.'
'Nachtegaal, G.'
_cell_length_a 4.8570(10)
_cell_length_b 13.5403(10)
_cell_length_c 7.7328(10)
_cell_angle_alpha 90
_cell_angle_beta 90.908(10)
_cell_angle_gamma 90
_cell_volume 508.49
_cell_formula_units_Z 4
_symmetry_space_group_name_H-M 'P 1 21/c 1'
_symmetry_Int_Tables_number 14
_refine_ls_R_factor_all 0.09
loop_
_symmetry_equiv_pos_site_id
_symmetry_equiv_pos_as_xyz
1 'x, -y+1/2, z+1/2'
2 '-x, -y, -z'
3 '-x, y+1/2, -z+1/2'
4 'x, y, z'
loop_
_atom_type_symbol
_atom_type_oxidation_number
Si4+ 4
O2- -2
Na1+ 1
Rb1+ 1
loop_
_atom_site_label
_atom_site_type_symbol
_atom_site_symmetry_multiplicity
_atom_site_Wyckoff_symbol
_atom_site_fract_x
_atom_site_fract_y
_atom_site_fract_z
_atom_site_B_iso_or_equiv
_atom_site_occupancy
_atom_site_attached_hydrogens
Si1 Si4+ 4 e 0.2985(10) 0.0452(3) 0.7120(6) 0.0058(11) 1. 0
Si2 Si4+ 4 e 0.7943(9) 0.1314(3) 0.5207(5) 0.0055(11) 1. 0
O1 O2- 4 e 0.241(2) 0.0679(8) 0.9061(13) 0.007(2) 1. 0
O2 O2- 4 e 0.727(2) 0.2421(9) 0.5001(13) 0.009(3) 1. 0
O3 O2- 4 e 0.624(2) 0.0725(8) 0.6667(14) 0.007(2) 1. 0
O4 O2- 4 e 0.119(2) 0.1102(8) 0.5747(14) 0.010(3) 1. 0
O5 O2- 4 e 0.255(2) -0.0709(8) 0.6687(13) 0.008(3) 1. 0
Na1 Na1+ 4 e 0.7700(13) 0.4080(5) 0.4641(8) 0.0093(17) 1. 0
Rb1 Rb1+ 4 e 0.2771(3) 0.19654(12) 0.2172(2) 0.0102(4) 1. 0
#End of TTdata_92534-ICSD