
#(C) 2019 by FIZ Karlsruhe - Leibniz Institute for Information Infrastructure.  All rights reserved.
data_9266-ICSD
_database_code_ICSD 9266
_audit_creation_date 1980-01-01
_audit_update_record 2006-04-01
_chemical_name_systematic 'Sodium nitrate(III)'
_chemical_formula_structural 'Na (N O2)'
_chemical_formula_sum 'N1 Na1 O2'
_chemical_name_structure_type NaNO2
_exptl_crystal_density_diffrn 2.06
_cell_measurement_temperature 458.
_publ_section_title 'The structure of sodium nitrite at 150, 185, 225 C'
loop_
_citation_id
_citation_journal_full
_citation_year
_citation_journal_volume
_citation_page_first
_citation_page_last
_citation_journal_id_ASTM
primary Ferroelectrics 1972 4 235 243 FEROA8
loop_
_publ_author_name
'Kay, M.I.'
_cell_length_a 3.671(12)
_cell_length_b 5.670(8)
_cell_length_c 5.341(18)
_cell_angle_alpha 90.
_cell_angle_beta 90.
_cell_angle_gamma 90.
_cell_volume 111.17
_cell_formula_units_Z 2
_symmetry_space_group_name_H-M 'I m m m'
_symmetry_Int_Tables_number 71
_refine_ls_R_factor_all 0.065
loop_
_symmetry_equiv_pos_site_id
_symmetry_equiv_pos_as_xyz
1 'x, y, -z'
2 'x, -y, z'
3 '-x, y, z'
4 '-x, -y, -z'
5 '-x, -y, z'
6 '-x, y, -z'
7 'x, -y, -z'
8 'x, y, z'
9 'x+1/2, y+1/2, -z+1/2'
10 'x+1/2, -y+1/2, z+1/2'
11 '-x+1/2, y+1/2, z+1/2'
12 '-x+1/2, -y+1/2, -z+1/2'
13 '-x+1/2, -y+1/2, z+1/2'
14 '-x+1/2, y+1/2, -z+1/2'
15 'x+1/2, -y+1/2, -z+1/2'
16 'x+1/2, y+1/2, z+1/2'
loop_
_atom_type_symbol
_atom_type_oxidation_number
Na1+ 1
N3+ 3
O2- -2
loop_
_atom_site_label
_atom_site_type_symbol
_atom_site_symmetry_multiplicity
_atom_site_Wyckoff_symbol
_atom_site_fract_x
_atom_site_fract_y
_atom_site_fract_z
_atom_site_B_iso_or_equiv
_atom_site_occupancy
_atom_site_attached_hydrogens
Na1 Na1+ 4 g 0 0.539(2) 0 . 0.5 0
N1 N3+ 4 g 0 0.0719(4) 0 . 0.5 0
O1 O2- 8 l 0 -.0435(10) 0.1920(4) . 0.5 0
loop_
_atom_site_aniso_label
_atom_site_aniso_type_symbol
_atom_site_aniso_beta_11
_atom_site_aniso_beta_22
_atom_site_aniso_beta_33
_atom_site_aniso_beta_12
_atom_site_aniso_beta_13
_atom_site_aniso_beta_23
Na1 Na1+ 0.069(4) 0.031(6) 0.028(1) 0 0 0
N1 N3+ 0.117(2) 0.032(1) 0.030(1) 0 0 0
O1 O2- 0.116(3) 0.045(3) 0.031(1) 0 0 0.004(1)
#End of TTdata_9266-ICSD