
#(C) 2019 by FIZ Karlsruhe - Leibniz Institute for Information Infrastructure.  All rights reserved.
data_92821-ICSD
_database_code_ICSD 92821
_audit_creation_date 2003-04-01
_chemical_name_systematic
'Sodium calcium beryllium antimony(V) oxide (0.89/0.04/4/1/7)'
_chemical_formula_structural '(Na0.89 Ca0.04) Be4 (Sb O3) O4'
_chemical_formula_sum 'Be4 Ca0.04 Na0.89 O7 Sb1'
_chemical_name_structure_type NaBe4SbO7
_chemical_name_mineral Swedenborgite
_exptl_crystal_density_diffrn 4.28
_publ_section_title 'Refinement of the crystal structure of swedenborgite'
loop_
_citation_id
_citation_journal_full
_citation_year
_citation_journal_volume
_citation_page_first
_citation_page_last
_citation_journal_id_ASTM
primary 'Canadian Mineralogist' 2001 39 153 158 CAMIA6
loop_
_publ_author_name
'Huminicki, D.M.C.'
'Hawthorne, F.C.'
_cell_length_a 5.4317(2)
_cell_length_b 5.4317(2)
_cell_length_c 8.8571(4)
_cell_angle_alpha 90
_cell_angle_beta 90
_cell_angle_gamma 120
_cell_volume 226.3
_cell_formula_units_Z 2
_symmetry_space_group_name_H-M 'P 63 m c'
_symmetry_Int_Tables_number 186
_refine_ls_R_factor_all 0.012
loop_
_symmetry_equiv_pos_site_id
_symmetry_equiv_pos_as_xyz
1 '-x, -x+y, z+1/2'
2 'x-y, -y, z+1/2'
3 'y, x, z+1/2'
4 'x-y, x, z+1/2'
5 'y, -x+y, z+1/2'
6 '-x, -y, z+1/2'
7 'x, x-y, z'
8 '-x+y, y, z'
9 '-y, -x, z'
10 '-x+y, -x, z'
11 '-y, x-y, z'
12 'x, y, z'
loop_
_atom_type_symbol
_atom_type_oxidation_number
Sb5+ 5
Na1+ 1
Ca2+ 2
Be2+ 2
O2- -2
loop_
_atom_site_label
_atom_site_type_symbol
_atom_site_symmetry_multiplicity
_atom_site_Wyckoff_symbol
_atom_site_fract_x
_atom_site_fract_y
_atom_site_fract_z
_atom_site_B_iso_or_equiv
_atom_site_occupancy
_atom_site_attached_hydrogens
Sb1 Sb5+ 2 b 0.3333 0.6667 0 0.0033(1) 1. 0
Na1 Na1+ 2 b 0.3333 0.6667 0.6245(3) 0.0154(6) 0.89 0
Ca1 Ca2+ 2 b 0.3333 0.6667 0.6245(3) 0.0154(6) 0.04 0
Be1 Be2+ 2 a 0 0 0.0629(9) 0.0038(12) 1. 0
Be2 Be2+ 6 c 0.1664(4) 0.8336(4) 0.3126(4) 0.0053(9) 1. 0
O1 O2- 2 a 0 0 0.3728(5) 0.0045(7) 1. 0
O2 O2- 6 c 0.4961(3) 0.5039(3) 0.3706(2) 0.0057(5) 1. 0
O3 O2- 6 c 0.1616(2) 0.8384(2) 0.1269(2) 0.0058(6) 1. 0
loop_
_atom_site_aniso_label
_atom_site_aniso_type_symbol
_atom_site_aniso_U_11
_atom_site_aniso_U_22
_atom_site_aniso_U_33
_atom_site_aniso_U_12
_atom_site_aniso_U_13
_atom_site_aniso_U_23
Sb1 Sb5+ 0.0033(1) 0.0033(1) 0.0032(1) 0.0017(1) 0. 0.
Na1 Na1+ 0.0154(2) 0.0154(6) 0.0152(10) 0.0077(4) 0. 0.
Ca1 Ca2+ 0.0154(2) 0.0154(6) 0.0152(10) 0.0077(4) 0. 0.
Be1 Be2+ 0.0035(14) 0.0035(14) 0.0044(21) 0.0017(7) 0. 0.
Be2 Be2+ 0.0047(10) 0.0047(10) 0.0059(13) 0.0019(20) 0.0009(7) -0.0009(7)
O1 O2- 0.0056(9) 0.0056(9) 0.0056(9) 0.0028(5) 0. 0.
O2 O2- 0.0046(5) 0.0046(5) 0.0080(7) 0.0020(6) -0.0023(5) 0.0023(5)
O3 O2- 0.0077(7) 0.0077(7) 0.0049(8) 0.0060(8) -0.0002(4) 0.0002(4)
#End of TTdata_92821-ICSD