
#(C) 2018 by FIZ Karlsruhe - Leibniz Institute for Information Infrastructure.  All rights reserved.
data_92853-ICSD
_database_code_ICSD 92853
_audit_creation_date 2003-04-01
_chemical_name_systematic 'Dilithium nickel bis(tungstate)'
_chemical_formula_structural 'Li2 Ni (W O4)2'
_chemical_formula_sum 'Li2 Ni1 O8 W2'
_chemical_name_structure_type Cu3(PO4)2(P1-)
_exptl_crystal_density_diffrn 7.02
_publ_section_title

;
Synthesis and characterization of new double tungstates Li2 M(II) (W O4)2 (M =
Co, Ni and Cu)
;
loop_
_citation_id
_citation_journal_full
_citation_year
_citation_journal_volume
_citation_page_first
_citation_page_last
_citation_journal_id_ASTM
primary 'Chemistry of Materials' 2001 13 3871 3875 CMATEX
loop_
_publ_author_name
'Alvarez-Vega, M.'
'Rodriguez Carvajal, J.'
'Reyes-Cardenas, J.G.'
'Fuentes, A.F.'
'Amador, U.'
_cell_length_a 4.9070(1)
_cell_length_b 5.6020(1)
_cell_length_c 5.8403(1)
_cell_angle_alpha 70.92(1)
_cell_angle_beta 88.52(1)
_cell_angle_gamma 115.45(1)
_cell_volume 134.37
_cell_formula_units_Z 1
_symmetry_space_group_name_H-M 'P -1'
_symmetry_Int_Tables_number 2
_refine_ls_R_factor_all 0.045
loop_
_symmetry_equiv_pos_site_id
_symmetry_equiv_pos_as_xyz
1 '-x, -y, -z'
2 'x, y, z'
loop_
_atom_type_symbol
_atom_type_oxidation_number
W6+ 6
Ni2+ 2
O2- -2
Li1+ 1
loop_
_atom_site_label
_atom_site_type_symbol
_atom_site_symmetry_multiplicity
_atom_site_Wyckoff_symbol
_atom_site_fract_x
_atom_site_fract_y
_atom_site_fract_z
_atom_site_B_iso_or_equiv
_atom_site_occupancy
_atom_site_attached_hydrogens
W1 W6+ 2 i 0.2643(7) 0.5337(6) 0.6649(5) 0.05(1) 1. 0
Ni1 Ni2+ 1 d 0.5 0 0 0.12(1) 1. 0
O1 O2- 2 i -0.0322(6) 0.2421(5) 0.9231(4) 0.15(1) 1. 0
O2 O2- 2 i 0.5136(5) 0.7499(5) 0.8100(5) 0.15(1) 1. 0
O3 O2- 2 i 0.5482(6) 0.7218(5) 0.3299(4) 0.15(1) 1. 0
O4 O2- 2 i 0.0437(4) 0.7276(5) 0.5430(4) 0.15(1) 1. 0
Li1 Li1+ 2 i 0.027(2) 0.072(2) 0.254(1) 1.40(1) 1. 0
#End of TTdata_92853-ICSD