
#(C) 2019 by FIZ Karlsruhe - Leibniz Institute for Information Infrastructure.  All rights reserved.
data_92986-ICSD
_database_code_ICSD 92986
_audit_creation_date 2003-04-01
_chemical_name_systematic 'Cesium disodium tris(hydrogensulfate(VI))'
_chemical_formula_structural 'Cs Na2 (H S O4)3'
_chemical_formula_sum 'H3 Cs1 Na2 O12 S3'
_exptl_crystal_density_diffrn 2.65
_cell_measurement_temperature 298.
_publ_section_title

;
Synthesis, structure and properties of compounds in the Na H S O4 - Cs H S O4
system. 1. Crystal structures of Cs2 Na (H S O4)3 and Cs Na2 (H S O4)3
;
loop_
_citation_id
_citation_journal_full
_citation_year
_citation_journal_volume
_citation_page_first
_citation_page_last
_citation_journal_id_ASTM
primary 'Chemistry of Materials' 2001 13 2574 2583 CMATEX
loop_
_publ_author_name
'Chisholm, C.R.I.'
'Cowan, L.A.'
'Haile, S.M.'
'Klooster, W.T.'
_cell_length_a 10.568(2)
_cell_length_b 10.568(2)
_cell_length_c 10.568(2)
_cell_angle_alpha 90
_cell_angle_beta 90
_cell_angle_gamma 90
_cell_volume 1180.26
_cell_formula_units_Z 4
_symmetry_space_group_name_H-M 'P 21 3'
_symmetry_Int_Tables_number 198
_refine_ls_R_factor_all 0.025
loop_
_symmetry_equiv_pos_site_id
_symmetry_equiv_pos_as_xyz
1 '-z+1/2, -x, y+1/2'
2 '-y+1/2, -z, x+1/2'
3 '-x+1/2, -y, z+1/2'
4 '-z, x+1/2, -y+1/2'
5 '-y, z+1/2, -x+1/2'
6 '-x, y+1/2, -z+1/2'
7 'z+1/2, -x+1/2, -y'
8 'y+1/2, -z+1/2, -x'
9 'x+1/2, -y+1/2, -z'
10 'z, x, y'
11 'y, z, x'
12 'x, y, z'
loop_
_atom_type_symbol
_atom_type_oxidation_number
Cs1+ 1
Na1+ 1
S6+ 6
O2- -2
H1+ 1
loop_
_atom_site_label
_atom_site_type_symbol
_atom_site_symmetry_multiplicity
_atom_site_Wyckoff_symbol
_atom_site_fract_x
_atom_site_fract_y
_atom_site_fract_z
_atom_site_B_iso_or_equiv
_atom_site_occupancy
_atom_site_attached_hydrogens
Cs1 Cs1+ 4 a 0.05223(2) 0.94777(2) 0.44777(2) 0.0226(1) 1. 0
Na1 Na1+ 4 a 0.1745(2) 0.3255(2) 0.6745(2) 0.0242(6) 1. 0
Na2 Na1+ 4 a 0.1024(2) 0.1024(2) 0.1024(2) 0.0183(6) 1. 0
S1 S6+ 12 b 0.21156(8) 0.62174(8) 0.51004(9) 0.0160(2) 1. 0
O1 O2- 12 b 0.2252(3) 0.5734(3) 0.3698(3) 0.0256(7) 1. 0
O2 O2- 12 b 0.0790(3) 0.6584(3) 0.5252(3) 0.0228(6) 1. 0
O3 O2- 12 b 0.2972(3) 0.7282(3) 0.5134(3) 0.0296(7) 1. 0
O4 O2- 12 b 0.2480(3) 0.5202(3) 0.5919(4) 0.0325(8) 1. 0
H1 H1+ 12 b 0.188(5) 0.495(5) 0.388(7) 0.05 1. 0
loop_
_atom_site_aniso_label
_atom_site_aniso_type_symbol
_atom_site_aniso_U_11
_atom_site_aniso_U_22
_atom_site_aniso_U_33
_atom_site_aniso_U_12
_atom_site_aniso_U_13
_atom_site_aniso_U_23
Cs1 Cs1+ 0.0226(2) 0.0226(2) 0.0226(2) -0.0031(1) -0.0031(1) 0.0031(1)
Na1 Na1+ 0.0242(6) 0.0242(6) 0.0242(6) 0.0009(7) -0.0009(7) 0.0009(7)
Na2 Na1+ 0.0183(6) 0.0183(6) 0.0183(6) 0.0004(6) 0.0004(6) 0.0004(6)
S1 S6+ 0.0137(4) 0.0148(4) 0.0194(4) -0.0028(3) -0.0007(3) 0.0006(4)
O1 O2- 0.025(1) 0.031(2) 0.021(1) -0.005(1) 0.009(1) -0.007(1)
O2 O2- 0.017(1) 0.028(1) 0.024(1) 0.002(1) 0.004(1) -0.002(1)
O3 O2- 0.027(1) 0.023(2) 0.039(2) -0.012(1) -0.002(1) -0.004(1)
O4 O2- 0.033(2) 0.026(2) 0.038(2) 0.003(1) -0.004(1) 0.011(1)
#End of TTdata_92986-ICSD