
#(C) 2018 by FIZ Karlsruhe - Leibniz Institute for Information Infrastructure.  All rights reserved.
data_93038-ICSD
_database_code_ICSD 93038
_audit_creation_date 2003-04-01
_chemical_name_systematic
'Lithium iron(III) magnesium phosphate(V) (0.83/0.06/1/1)'
_chemical_formula_structural '(Li0.834 Fe0.055) Mg (P O4)'
_chemical_formula_sum 'Fe0.055 Li0.834 Mg1 O4 P1'
_chemical_name_structure_type Olivine-Mg2SiO4
_exptl_crystal_density_diffrn 3.04
_publ_section_title
'Clustering of Fe(3+) in the Li1-3x Fex Mg P O4 (0< x <0.1) solid solution'
loop_
_citation_id
_citation_journal_full
_citation_year
_citation_journal_volume
_citation_page_first
_citation_page_last
_citation_journal_id_ASTM
primary 'International Journal of Inorganic Materials' 2001 3 937 942 IJIMCR
loop_
_publ_author_name
'Goni, A.'
'Lezama, L.'
'Pujana, A.'
'Arriortua, M.I.'
'Rojo, T.'
_cell_length_a 10.1273(3)
_cell_length_b 5.8893(2)
_cell_length_c 4.6974(2)
_cell_angle_alpha 90
_cell_angle_beta 90
_cell_angle_gamma 90
_cell_volume 280.17
_cell_formula_units_Z 4
_symmetry_space_group_name_H-M 'P n m a'
_symmetry_Int_Tables_number 62
_refine_ls_R_factor_all 0.042
loop_
_symmetry_equiv_pos_site_id
_symmetry_equiv_pos_as_xyz
1 'x+1/2, y, -z+1/2'
2 'x, -y+1/2, z'
3 '-x+1/2, y+1/2, z+1/2'
4 '-x, -y, -z'
5 '-x+1/2, -y, z+1/2'
6 '-x, y+1/2, -z'
7 'x+1/2, -y+1/2, -z+1/2'
8 'x, y, z'
loop_
_atom_type_symbol
_atom_type_oxidation_number
Li1+ 1
Fe3+ 3
Mg2+ 2
P5+ 5
O2- -2
loop_
_atom_site_label
_atom_site_type_symbol
_atom_site_symmetry_multiplicity
_atom_site_Wyckoff_symbol
_atom_site_fract_x
_atom_site_fract_y
_atom_site_fract_z
_atom_site_B_iso_or_equiv
_atom_site_occupancy
_atom_site_attached_hydrogens
Li1 Li1+ 4 a 0 0 0 0.8 0.834(1) 0
Fe1 Fe3+ 4 a 0 0 0 0.8 0.055(1) 0
Mg1 Mg2+ 4 c 0.278(1) 0.25 0.981(1) 0.3 1. 0
P1 P5+ 4 c 0.095(1) 0.25 0.417(1) 0.3 1. 0
O1 O2- 4 c 0.104(1) 0.25 0.742(1) 0.2 1. 0
O2 O2- 4 c 0.450(1) 0.25 0.193(1) 0.2 1. 0
O3 O2- 8 d 0.169(1) 0.042(1) 0.281(1) 0.3 1. 0
#End of TTdata_93038-ICSD