
#(C) 2018 by FIZ Karlsruhe - Leibniz Institute for Information Infrastructure.  All rights reserved.
data_93088-ICSD
_database_code_ICSD 93088
_audit_creation_date 2003-04-01
_chemical_name_systematic 'Lithium gallium chromium oxide (1/0.9/0.1/1.97)'
_chemical_formula_structural 'Li (Ga0.9 Cr0.1) O1.97'
_chemical_formula_sum 'Cr0.1 Ga0.9 Li1 O1.97'
_chemical_name_structure_type NaFeO2(beta)
_exptl_crystal_density_diffrn 4.11
_publ_section_title 'Structure and properties of Li Ga O2 crystals'
loop_
_citation_id
_citation_journal_full
_citation_year
_citation_journal_volume
_citation_page_first
_citation_page_last
_citation_journal_id_ASTM
primary 'Inorganic Materials' 2001 37 281 285 INOMAF
loop_
_publ_author_name
'Kuz'micheva, G.M. (Kuzmicheva, G.M.)'
'Rybakov, V.B.'
'Gaister, A.V.'
'Zharikov, E.V.'
_cell_length_a 5.3956(5)
_cell_length_b 6.3675(9)
_cell_length_c 5.0024(6)
_cell_angle_alpha 90
_cell_angle_beta 90
_cell_angle_gamma 90
_cell_volume 171.86
_cell_formula_units_Z 4
_symmetry_space_group_name_H-M 'P n a 21'
_symmetry_Int_Tables_number 33
_refine_ls_R_factor_all 0.04
loop_
_symmetry_equiv_pos_site_id
_symmetry_equiv_pos_as_xyz
1 'x+1/2, -y+1/2, z'
2 '-x+1/2, y+1/2, z+1/2'
3 '-x, -y, z+1/2'
4 'x, y, z'
loop_
_atom_type_symbol
_atom_type_oxidation_number
Ga3+ 3
Cr2+ 2.4
Li1+ 1
O2- -2
loop_
_atom_site_label
_atom_site_type_symbol
_atom_site_symmetry_multiplicity
_atom_site_Wyckoff_symbol
_atom_site_fract_x
_atom_site_fract_y
_atom_site_fract_z
_atom_site_B_iso_or_equiv
_atom_site_occupancy
_atom_site_attached_hydrogens
Ga1 Ga3+ 4 a 0.08231(3) 0.12620(3) 0 0.0052(1) 0.90(4) 0
Cr1 Cr2+ 4 a 0.08231(3) 0.12620(3) 0 0.0052(1) 0.10(4) 0
Li1 Li1+ 4 a 0.418(1) 0.1269(8) 0.494(5) 0.012(1) 1. 0
O1 O2- 4 a 0.4077(3) 0.1389(3) 0.8924(5) 0.0070(3) 0.97(3) 0
O2 O2- 4 a 0.0677(3) 0.1118(3) 0.3696(5) 0.0071(4) 1. 0
loop_
_atom_site_aniso_label
_atom_site_aniso_type_symbol
_atom_site_aniso_U_11
_atom_site_aniso_U_22
_atom_site_aniso_U_33
_atom_site_aniso_U_12
_atom_site_aniso_U_13
_atom_site_aniso_U_23
Ga1 Ga3+ 0.0061(1) 0.0028(1) 0.0067(1) -0.00006(6) -0.0005(1) 0.0001(2)
Cr1 Cr2+ 0.0061(1) 0.0028(1) 0.0067(1) -0.00006(6) -0.0005(1) 0.0001(2)
Li1 Li1+ 0.017(2) 0.004(1) 0.0153(2) -0.001(2) 0.008(4) -0.001(4)
O1 O2- 0.0073(5) 0.0049 0.0089(6) -0.0002(4) 0.0005(4) -0.0011(4)
O2 O2- 0.0089(5) 0.0037(5) 0.0088(7) -0.0012(4) 0.0001(5) 0.0008(5)
#End of TTdata_93088-ICSD