
#(C) 2019 by FIZ Karlsruhe - Leibniz Institute for Information Infrastructure.  All rights reserved.
data_93138-ICSD
_database_code_ICSD 93138
_audit_creation_date 2003-04-01
_chemical_name_systematic
'Heptasodium tetrakis(indodiphosphate(V)) phosphate(V)'
_chemical_formula_structural 'Na7 (In P2 O7)4 (P O4)'
_chemical_formula_sum 'In4 Na7 O32 P9'
_chemical_name_structure_type Na7(InP2O7)4PO4
_exptl_crystal_density_diffrn 3.51
_publ_section_title

;
The crystal structure and ionic conductivity of a novel indium and sodium
phosphate Na7 (In P2 O7)4 P O4
;
loop_
_citation_id
_citation_journal_full
_citation_year
_citation_journal_volume
_citation_page_first
_citation_page_last
_citation_journal_id_ASTM
primary 'Journal of Alloys and Compounds' 2001 314 62 66 JALCEU
loop_
_publ_author_name
'Stus', N.V. (Stus, N.V.)'
'Lisnyak, V.V.'
'Nagornyi, P.G.'
_cell_length_a 14.205(2)
_cell_length_b 14.205(2)
_cell_length_c 6.613(1)
_cell_angle_alpha 90
_cell_angle_beta 90
_cell_angle_gamma 90
_cell_volume 1334.38
_cell_formula_units_Z 2
_symmetry_space_group_name_H-M 'P -4 21 c'
_symmetry_Int_Tables_number 114
_refine_ls_R_factor_all 0.019
loop_
_symmetry_equiv_pos_site_id
_symmetry_equiv_pos_as_xyz
1 'y+1/2, x+1/2, z+1/2'
2 'y, -x, -z'
3 '-y+1/2, -x+1/2, z+1/2'
4 '-y, x, -z'
5 'x+1/2, -y+1/2, -z+1/2'
6 '-x, -y, z'
7 '-x+1/2, y+1/2, -z+1/2'
8 'x, y, z'
loop_
_atom_type_symbol
_atom_type_oxidation_number
In3+ 3
P5+ 5
Na1+ 1
O2- -2
loop_
_atom_site_label
_atom_site_type_symbol
_atom_site_symmetry_multiplicity
_atom_site_Wyckoff_symbol
_atom_site_fract_x
_atom_site_fract_y
_atom_site_fract_z
_atom_site_B_iso_or_equiv
_atom_site_occupancy
_atom_site_attached_hydrogens
In1 In3+ 8 e 0.3042(1) 0.3804(1) 0.1145(1) 0.008(1) 1. 0
P1 P5+ 2 b 0.5 0.5 0 0.009(1) 1. 0
P2 P5+ 8 e -0.0611(1) 0.3047(1) 0.3821(2) 0.010(1) 1. 0
P3 P5+ 8 e 0.1044(1) 0.2498(1) 0.1291(2) 0.09(1) 1. 0
Na1 Na1+ 2 a 0.5 0.5 0.5 0.069(2) 1. 0
Na2 Na1+ 4 d 0 0.5 0.6410(6) 0.066(1) 1. 0
Na3 Na1+ 8 e 0.2560(2) 0.0916(1) 0.1286(3) 0.018(1) 1. 0
O1 O2- 8 e 0.4380(2) 0.4403(2) 0.1425(5) 0.012(1) 1. 0
O2 O2- 8 e -0.0682(2) 0.4095(2) 0.3947(6) 0.015(1) 1. 0
O3 O2- 8 e 0.8430(2) 0.2613(2) 0.3357(5) 0.014(1) 1. 0
O4 O2- 8 e -0.0145(2) 0.2578(2) 0.5620(5) 0.012(1) 1. 0
O5 O2- 8 e -0.0014(3) 0.2794(3) 0.1808(5) 0.016(1) 1. 0
O6 O2- 8 e 0.1390(2) 0.1842(2) 0.2947(5) 0.013(1) 1. 0
O7 O2- 8 e 0.0918(3) 0.1953(3) -0.0666(5) 0.020(1) 1. 0
O8 O2- 8 e 0.1592(3) 0.3400(3) 0.1084(6) 0.018(1) 1. 0
#End of TTdata_93138-ICSD