
#(C) 2018 by FIZ Karlsruhe - Leibniz Institute for Information Infrastructure.  All rights reserved.
data_93259-ICSD
_database_code_ICSD 93259
_audit_creation_date 2003-04-01
_audit_update_record 2013-08-01
_chemical_name_systematic 'Lithium magnesium nitride'
_chemical_formula_structural 'Li Mg N'
_chemical_formula_sum 'Li1 Mg1 N1'
_chemical_name_structure_type LiMgN
_exptl_crystal_density_diffrn 2.39
_publ_section_title
'Ternary nitrides prepared in the (Li3 N)-(Mg3 N2) system at 900 - 1000 K'
loop_
_citation_id
_citation_journal_full
_citation_year
_citation_journal_volume
_citation_page_first
_citation_page_last
_citation_journal_id_ASTM
primary 'Journal of Alloys and Compounds' 2001 319 124 130 JALCEU
loop_
_publ_author_name
'Yamane, H.'
'Okabe, T.H.'
'Ishiyama, O.'
'Waseda, Y.'
'Shimada, M.'
_cell_length_a 7.1586(2)
_cell_length_b 3.50691(8)
_cell_length_c 5.01424(13)
_cell_angle_alpha 90
_cell_angle_beta 90
_cell_angle_gamma 90
_cell_volume 125.88
_cell_formula_units_Z 4
_symmetry_space_group_name_H-M 'P n m a'
_symmetry_Int_Tables_number 62
_refine_ls_R_factor_all 0.026
loop_
_symmetry_equiv_pos_site_id
_symmetry_equiv_pos_as_xyz
1 'x+1/2, y, -z+1/2'
2 'x, -y+1/2, z'
3 '-x+1/2, y+1/2, z+1/2'
4 '-x, -y, -z'
5 '-x+1/2, -y, z+1/2'
6 '-x, y+1/2, -z'
7 'x+1/2, -y+1/2, -z+1/2'
8 'x, y, z'
loop_
_atom_type_symbol
_atom_type_oxidation_number
Li1+ 1
Mg2+ 2
N3- -3
loop_
_atom_site_label
_atom_site_type_symbol
_atom_site_symmetry_multiplicity
_atom_site_Wyckoff_symbol
_atom_site_fract_x
_atom_site_fract_y
_atom_site_fract_z
_atom_site_B_iso_or_equiv
_atom_site_occupancy
_atom_site_attached_hydrogens
Li1 Li1+ 4 c 0.0948(6) 0.25 0.5281(11) 1.20(10) 1. 0
Mg1 Mg2+ 4 c 0.1442(2) 0.25 0.0203(2) 1.15(3) 1. 0
N1 N3- 4 c 0.3792(4) 0.25 0.2690(4) 0.73(5) 1. 0
#End of TTdata_93259-ICSD