
#(C) 2019 by FIZ Karlsruhe - Leibniz Institute for Information Infrastructure.  All rights reserved.
data_9333-ICSD
_database_code_ICSD 9333
_audit_creation_date 1980-01-01
_audit_update_record 1987-06-02
_chemical_name_systematic 'Sodium tetrathiostannate 14-hydrate'
_chemical_formula_structural 'Na4 Sn S4 (H2 O)14'
_chemical_formula_sum 'H28 Na4 O14 S4 Sn1'
_exptl_crystal_density_diffrn 1.82
_publ_section_title 'Darstellung und Struktur von Na4 Sn S4 (H2 O)14'
loop_
_citation_id
_citation_journal_full
_citation_year
_citation_journal_volume
_citation_page_first
_citation_page_last
_citation_journal_id_ASTM
primary 'Zeitschrift fuer Anorganische und Allgemeine Chemie (1950) (DE)' 1973
402 77 86 ZAACAB
loop_
_publ_author_name
'Schiwy, W.'
'Pohl, S.'
'Krebs, B.'
_cell_length_a 8.622(5)
_cell_length_b 23.534(12)
_cell_length_c 11.347(7)
_cell_angle_alpha 90.
_cell_angle_beta 110.53(4)
_cell_angle_gamma 90.
_cell_volume 2156.19
_cell_formula_units_Z 4
_symmetry_space_group_name_H-M 'C 1 2/c 1'
_symmetry_Int_Tables_number 15
_refine_ls_R_factor_all 0.047
loop_
_symmetry_equiv_pos_site_id
_symmetry_equiv_pos_as_xyz
1 'x, -y, z+1/2'
2 '-x, -y, -z'
3 '-x, y, -z+1/2'
4 'x, y, z'
5 'x+1/2, -y+1/2, z+1/2'
6 '-x+1/2, -y+1/2, -z'
7 '-x+1/2, y+1/2, -z+1/2'
8 'x+1/2, y+1/2, z'
loop_
_atom_type_symbol
_atom_type_oxidation_number
Sn4+ 4
S2- -2
Na1+ 1
O2- -2
H1+ 1
loop_
_atom_site_label
_atom_site_type_symbol
_atom_site_symmetry_multiplicity
_atom_site_Wyckoff_symbol
_atom_site_fract_x
_atom_site_fract_y
_atom_site_fract_z
_atom_site_B_iso_or_equiv
_atom_site_occupancy
_atom_site_attached_hydrogens
Sn1 Sn4+ 4 e 0 0.15009(2) 0.25 . 1. 0
S1 S2- 8 f 0.24269(14) 0.20611(5) 0.28607(12) . 1. 0
S2 S2- 8 f 0.03946(17) 0.09442(6) 0.43280(13) . 1. 0
Na1 Na1+ 8 f 0.1887(3) 0.29496(9) 0.1023(2) . 1. 0
Na2 Na1+ 4 e 0 0.38597(13) 0.25 . 1. 0
Na3 Na1+ 8 f 0.4459(5) 0.04007(17) 0.0761(4) . 0.5 0
O1 O2- 8 f 0.4328(4) 0.28543(16) 0.0552(4) . 1. 0
O2 O2- 8 f 0.0889(4) 0.30962(15) 0.4002(3) . 1. 0
O3 O2- 8 f 0.2743(4) 0.37703(18) 0.2431(4) . 1. 0
O4 O2- 8 f 0.4031(4) 0.14160(15) 0.0835(4) . 1. 0
O5 O2- 8 f 0.3445(7) 0.46195(18) 0.0974(5) . 1. 0
O6 O2- 8 f 0.0718(5) 0.44265(19) 0.4375(5) . 1. 0
O7 O2- 8 f 0.3115(6) 0.02910(23) 0.2270(5) . 1. 0
H1 H1+ 8 f 0.53 0.268 0.1 4. 1. 0
H2 H1+ 8 f 0.47 0.317 0.02 4. 1. 0
H3 H1+ 8 f 0.12 0.279 0.37 4. 1. 0
H4 H1+ 8 f 0.14 0.313 0.49 4. 1. 0
H5 H1+ 8 f 0.29 0.41 0.19 4. 1. 0
H6 H1+ 8 f 0.34 0.388 0.32 4. 1. 0
H7 H1+ 8 f 0.35 0.155 0.14 4. 1. 0
H8 H1+ 8 f 0.52 0.155 0.12 4. 1. 0
H9 H1+ 8 f 0.41 0.452 0.05 4. 1. 0
H10 H1+ 8 f 0.38 0.499 0.12 4. 1. 0
H11 H1+ 8 f 0.19 0.433 0.48 4. 1. 0
H12 H1+ 8 f 0.07 0.485 0.43 4. 0.5 0
H13 H1+ 8 f 0.02 0.44 0.49 4. 0.5 0
H14 H1+ 8 f 0.2 0.053 0.19 4. 1. 0
H15 H1+ 8 f 0.28 0.007 0.23 4. 0.33 0
H16 H1+ 8 f 0.37 0.032 0.16 4. 0.33 0
H17 H1+ 8 f 0.35 0.056 0.3 4. 0.33 0
loop_
_atom_site_aniso_label
_atom_site_aniso_type_symbol
_atom_site_aniso_beta_11
_atom_site_aniso_beta_22
_atom_site_aniso_beta_33
_atom_site_aniso_beta_12
_atom_site_aniso_beta_13
_atom_site_aniso_beta_23
Sn1 Sn4+ 0.00623(6) 0.00098(1) 0.00388(4) 0 0.00175(4) 0
S1 S2- 0.00597(18) 0.00111(2) 0.00535(12) -.00032(5) 0.00199(12) -.00003(4)
S2 S2- 0.01226(25) 0.00143(3) 0.00544(13) 0.00021(6) 0.00299(15) 0.00100(5)
Na1 Na1+ 0.01033(35) 0.00156(4) 0.00617(21) 0.00045(10) 0.00392(23) 0.00019(8)
Na2 Na1+ 0.01211(52) 0.00142(6) 0.00632(30) 0 0.00414(35) 0
Na3 Na1+ 0.01243(77) 0.00126(8) 0.00668(43) -.00043(20) 0.00334(50) 0.00001(15)
O1 O2- 0.00955(60) 0.00166(8) 0.00690(39) 0.00072(17) 0.00313(42) 0.00068(14)
O2 O2- 0.00996(59) 0.00134(7) 0.00534(34) 0.00040(16) 0.00352(40) -.00004(13)
O3 O2- 0.01219(69) 0.00185(8) 0.00700(41) -.00104(19) 0.00306(47) -.00003(15)
O4 O2- 0.01155(65) 0.00170(8) 0.00724(40) -.00011(18) 0.00371(44) -.00001(15)
O5 O2- 0.02970(11) 0.00185(10) 0.01590(67) -.00020(27) 0.01583(78) 0.00019(21)
O6 O2- 0.01726(87) 0.00220(11) 0.01164(57) 0.00235(24) -.00024(60) -.00174(20)
O7 O2- 0.01936(95) 0.00327(14) 0.01372(67) 0.00322(31) 0.00270(7) -.00006(25)
#End of TTdata_9333-ICSD