
#(C) 2019 by FIZ Karlsruhe - Leibniz Institute for Information Infrastructure.  All rights reserved.
data_93368-ICSD
_database_code_ICSD 93368
_audit_creation_date 2003-04-01
_chemical_name_systematic 'Sodium ditungsto(V)phosphate(V)'
_chemical_formula_structural 'Na ((W O3)2 (P O2))'
_chemical_formula_sum 'Na1 O8 P1 W2'
_exptl_crystal_density_diffrn 5.98
_publ_section_title

;
Crystal structure of a new monophosphate tungsten(V) bronze with hexagonal
tunnels Na4 (W O3)8 (P O2)4
;
loop_
_citation_id
_citation_journal_full
_citation_year
_citation_journal_volume
_citation_page_first
_citation_page_last
_citation_journal_id_ASTM
primary 'Journal of Alloys and Compounds' 2001 325 73 77 JALCEU
loop_
_publ_author_name
'Stus', N.V. (Stus, N.V.)'
'Lisnyak, V.V.'
'Slobodyanik, N.S.'
_cell_length_a 6.6065(2)
_cell_length_b 5.2711(2)
_cell_length_c 8.8898(2)
_cell_angle_alpha 90
_cell_angle_beta 99.5898(2)
_cell_angle_gamma 90
_cell_volume 305.25
_cell_formula_units_Z 2
_symmetry_space_group_name_H-M 'P 1 21/m 1'
_symmetry_Int_Tables_number 11
_refine_ls_R_factor_all 0.065
loop_
_symmetry_equiv_pos_site_id
_symmetry_equiv_pos_as_xyz
1 'x, -y+1/2, z'
2 '-x, -y, -z'
3 '-x, y+1/2, -z'
4 'x, y, z'
loop_
_atom_type_symbol
_atom_type_oxidation_number
W5+ 5
P5+ 5
O2- -2
Na1+ 1
loop_
_atom_site_label
_atom_site_type_symbol
_atom_site_symmetry_multiplicity
_atom_site_Wyckoff_symbol
_atom_site_fract_x
_atom_site_fract_y
_atom_site_fract_z
_atom_site_B_iso_or_equiv
_atom_site_occupancy
_atom_site_attached_hydrogens
W1 W5+ 2 e 0.06016(7) 0.25 0.24937(5) 0.0029 1. 0
W2 W5+ 2 e 0.64024(7) 0.25 0.91213(5) 0.005 1. 0
P1 P5+ 2 e 0.2142(5) 0.25 0.6282(4) 0.0085 1. 0
O1 O2- 2 e 0.2434(17) 0.25 0.4587(15) 0.0136 1. 0
O2 O2- 2 e 0.8609(15) 0.25 0.0802(7) 0.0064 1. 0
O3 O2- 4 f 0.2118(2) 0.0018(16) 0.1873(11) 0.0208 1. 0
O4 O2- 4 f 0.896(2) -0.010(4) 0.3422(15) 0.082 1. 0
O5 O2- 2 e 0.4289(17) 0.25 0.7202(14) 0.0095 1. 0
O6 O2- 2 b 0.5 0 0 0.0395 1. 0
Na1 Na1+ 2 e 0.645(4) 0.25 0.525(3) 0.0118 1. 0
loop_
_atom_site_aniso_label
_atom_site_aniso_type_symbol
_atom_site_aniso_U_11
_atom_site_aniso_U_22
_atom_site_aniso_U_33
_atom_site_aniso_U_12
_atom_site_aniso_U_13
_atom_site_aniso_U_23
W1 W5+ 0.0031(2) 0.0018(2) 0.0039(3) 0. 0.00079(16) 0.
W2 W5+ 0.0046(2) 0.0049(3) 0.0054(3) 0. 0.00093(19) 0.
P1 P5+ 0.0045(12) 0.0179(17) 0.0030(12) 0. 0.001(1) 0.
O1 O2- 0.011(4) 0.002(4) 0.031(6) 0. 0.010(4) 0.
O2 O2- 0.043(7) -0.003(4) -0.013(3) 0. 0. 0.
O3 O2- 0.020(4) 0.013(4) 0.022(4) 0.017(4) -0.015(3) -0.016(4)
O4 O2- 0.065(8) 0.141(17) 0.028(5) -0.09(1) -0.029(6) 0.051(8)
O5 O2- 0.011(4) 0.008(4) 0.012(4) 0. 0.006(3) 0.
O6 O2- 0.017(6) 0.066(13) 0.031(7) -0.027(7) -0.010(5) 0.029(9)
Na1 Na1+ 0.01(1) 0.002(9) 0.029(14) 0. 0.02(1) 0.
#End of TTdata_93368-ICSD