
#(C) 2019 by FIZ Karlsruhe - Leibniz Institute for Information Infrastructure.  All rights reserved.
data_93389-ICSD
_database_code_ICSD 93389
_audit_creation_date 2003-04-01
_audit_update_record 2015-02-01
_chemical_name_systematic 'Disodium dialuminium diborate'
_chemical_formula_structural 'Na2 Al2 (B2 O7)'
_chemical_formula_sum 'Al2 B2 Na2 O7'
_chemical_name_structure_type Na2Al2B2O7
_exptl_crystal_density_diffrn 2.53
_publ_section_title 'Crystal structure and infrared spectra of Na2 Al2 B2 O7'
loop_
_citation_id
_citation_journal_full
_citation_year
_citation_journal_volume
_citation_page_first
_citation_page_last
_citation_journal_id_ASTM
primary 'Journal of Alloys and Compounds' 2001 327 210 214 JALCEU
loop_
_publ_author_name
'He, M.'
'Chen, X.-L.'
'Zhou, T.'
'Hu, B.Q.'
'Xu, Y.-P.'
'Xu, T.'
_cell_length_a 4.8113(1)
_cell_length_b 4.8113(1)
_cell_length_c 15.2781(3)
_cell_angle_alpha 90
_cell_angle_beta 90
_cell_angle_gamma 120
_cell_volume 306.28
_cell_formula_units_Z 2
_symmetry_space_group_name_H-M 'P -3 1 c'
_symmetry_Int_Tables_number 163
_refine_ls_R_factor_all 0.052
loop_
_symmetry_equiv_pos_site_id
_symmetry_equiv_pos_as_xyz
1 '-x+y, y, -z+1/2'
2 'x, x-y, -z+1/2'
3 '-y, -x, -z+1/2'
4 'x-y, x, -z'
5 'y, -x+y, -z'
6 '-x, -y, -z'
7 'x-y, -y, z+1/2'
8 '-x, -x+y, z+1/2'
9 'y, x, z+1/2'
10 '-x+y, -x, z'
11 '-y, x-y, z'
12 'x, y, z'
loop_
_atom_type_symbol
_atom_type_oxidation_number
Na1+ 1
Al3+ 3
B3+ 3
O2- -2
loop_
_atom_site_label
_atom_site_type_symbol
_atom_site_symmetry_multiplicity
_atom_site_Wyckoff_symbol
_atom_site_fract_x
_atom_site_fract_y
_atom_site_fract_z
_atom_site_B_iso_or_equiv
_atom_site_occupancy
_atom_site_attached_hydrogens
Na1 Na1+ 2 b 0 0 0 1.78 1. 0
Na2 Na1+ 2 a 0 0 0.25 3.7 1. 0
Al1 Al3+ 4 f 0.3333 0.6667 0.6374(3) 1.26 1. 0
B1 B3+ 4 f 0.3333 0.6667 0.0978(9) 2.2 1. 0
O1 O2- 12 i 0.9704(6) 0.6087(6) 0.8916(3) 4.3 1. 0
O2 O2- 2 d 0.6667 0.3333 0.25 3.4 1. 0
#End of TTdata_93389-ICSD