
#(C) 2019 by FIZ Karlsruhe - Leibniz Institute for Information Infrastructure.  All rights reserved.
data_93458-ICSD
_database_code_ICSD 93458
_audit_creation_date 2003-04-01
_chemical_name_systematic 'Dicesium sodium hexafluoroaluminate'
_chemical_formula_structural 'Cs2 Na (Al F6)'
_chemical_formula_sum 'Al1 Cs2 F6 Na1'
_chemical_name_structure_type Ba2NiTeO6
_chemical_name_mineral 'Elpasolite (Cr-doped)'
_exptl_crystal_density_diffrn 4.32
_cell_measurement_temperature 296.
_publ_section_title

;
Structural and vibrational study of chromium doped elpasolite crystals Cs2 Na
Al F6
;
loop_
_citation_id
_citation_journal_full
_citation_year
_citation_journal_volume
_citation_page_first
_citation_page_last
_citation_journal_id_ASTM
primary 'Journal of Chemical Physics' 2001 115 4300 4305 JCPSA6
loop_
_publ_author_name
'Bordallo, H.N.'
'Henning, R.W.'
'Sosman, L.P.'
'da Fonseca, R.J.M.'
'Dias Tavares, A.jr.'
'Hanif, K.M.'
'Strouse, G.F.'
_cell_length_a 6.1920(4)
_cell_length_b 6.1920(4)
_cell_length_c 29.839(4)
_cell_angle_alpha 90
_cell_angle_beta 90
_cell_angle_gamma 120
_cell_volume 990.78
_cell_formula_units_Z 6
_symmetry_space_group_name_H-M 'R -3 m H'
_symmetry_Int_Tables_number 166
_refine_ls_R_factor_all 0.078
loop_
_symmetry_equiv_pos_site_id
_symmetry_equiv_pos_as_xyz
1 'x-y, -y, -z'
2 '-x, -x+y, -z'
3 'y, x, -z'
4 'x-y, x, -z'
5 'y, -x+y, -z'
6 '-x, -y, -z'
7 '-x+y, y, z'
8 'x, x-y, z'
9 '-y, -x, z'
10 '-x+y, -x, z'
11 '-y, x-y, z'
12 'x, y, z'
13 'x-y+2/3, -y+1/3, -z+1/3'
14 '-x+2/3, -x+y+1/3, -z+1/3'
15 'y+2/3, x+1/3, -z+1/3'
16 'x-y+2/3, x+1/3, -z+1/3'
17 'y+2/3, -x+y+1/3, -z+1/3'
18 '-x+2/3, -y+1/3, -z+1/3'
19 '-x+y+2/3, y+1/3, z+1/3'
20 'x+2/3, x-y+1/3, z+1/3'
21 '-y+2/3, -x+1/3, z+1/3'
22 '-x+y+2/3, -x+1/3, z+1/3'
23 '-y+2/3, x-y+1/3, z+1/3'
24 'x+2/3, y+1/3, z+1/3'
25 'x-y+1/3, -y+2/3, -z+2/3'
26 '-x+1/3, -x+y+2/3, -z+2/3'
27 'y+1/3, x+2/3, -z+2/3'
28 'x-y+1/3, x+2/3, -z+2/3'
29 'y+1/3, -x+y+2/3, -z+2/3'
30 '-x+1/3, -y+2/3, -z+2/3'
31 '-x+y+1/3, y+2/3, z+2/3'
32 'x+1/3, x-y+2/3, z+2/3'
33 '-y+1/3, -x+2/3, z+2/3'
34 '-x+y+1/3, -x+2/3, z+2/3'
35 '-y+1/3, x-y+2/3, z+2/3'
36 'x+1/3, y+2/3, z+2/3'
loop_
_atom_type_symbol
_atom_type_oxidation_number
Al3+ 3
Na1+ 1
F1- -1
Cs1+ 1
loop_
_atom_site_label
_atom_site_type_symbol
_atom_site_symmetry_multiplicity
_atom_site_Wyckoff_symbol
_atom_site_fract_x
_atom_site_fract_y
_atom_site_fract_z
_atom_site_B_iso_or_equiv
_atom_site_occupancy
_atom_site_attached_hydrogens
Al1 Al3+ 3 a 0 0 0 0.009 1. 0
Al2 Al3+ 3 b 0 0 0.5 0.0077 1. 0
Na1 Na1+ 6 c 0 0 0.09844(5) 0.0143 1. 0
F1 F1- 18 h 0.13627(4) 0.86373(4) 0.96371(2) 0.0145 1. 0
F2 F1- 18 h 0.19289(5) 0.80711(5) 0.13181(2) 0.0162 1. 0
Cs1 Cs1+ 6 c 0 0 0.77992(3) 0.0158 1. 0
Cs2 Cs1+ 6 c 0 0 0.62811(3) 0.0132 1. 0
loop_
_atom_site_aniso_label
_atom_site_aniso_type_symbol
_atom_site_aniso_U_11
_atom_site_aniso_U_22
_atom_site_aniso_U_33
_atom_site_aniso_U_12
_atom_site_aniso_U_13
_atom_site_aniso_U_23
Al1 Al3+ 0.0091(3) 0.0091(3) 0.0085(6) 0.0046(1) 0. 0.
Al2 Al3+ 0.0074(3) 0.0074(3) 0.0082(5) 0.0037(1) 0. 0.
Na1 Na1+ 0.0155(3) 0.0155(3) 0.0118(5) 0.0077(1) 0. 0.
F1 F1- 0.0161(1) 0.0161(1) 0.0136(2) 0.0101(1) 0.00138(7) -0.00138(7)
F2 F1- 0.0170(1) 0.0170(1) 0.0171(2) 0.0105(2) -0.00273(7) 0.00273(7)
Cs1 Cs1+ 0.0142(2) 0.0142(2) 0.0187(5) 0.00708(9) 0. 0.
Cs2 Cs1+ 0.0124(2) 0.0124(2) 0.0143(3) 0.00622(9) 0. 0.
#End of TTdata_93458-ICSD