
#(C) 2019 by FIZ Karlsruhe - Leibniz Institute for Information Infrastructure.  All rights reserved.
data_93687-ICSD
_database_code_ICSD 93687
_audit_creation_date 2003-04-01
_chemical_name_systematic 'Sodium niobium bromide fluoride (1.87/7/3.65/17.35)'
_chemical_formula_structural '(Na1.87 Nb F6) (Nb6 Br3.65 F8.35) F3'
_chemical_formula_sum 'Br3.65 F17.35 Na1.87 Nb7'
_exptl_crystal_density_diffrn 3.99
_publ_section_title

;
Syntheses and crystal structures of the first bromofluorides in niobium
cluster chemistry: Nb6 Br8 F7 and Na2 Nb F6 - (Nb6 Br4 F11)
;
loop_
_citation_id
_citation_journal_full
_citation_year
_citation_journal_volume
_citation_page_first
_citation_page_last
_citation_journal_id_ASTM
primary 'Journal of Solid State Chemistry' 2001 158 327 333 JSSCBI
loop_
_publ_author_name
'Cordier, S.'
'Hernandez, O.'
'Perrin, C.'
_cell_length_a 8.1765(6)
_cell_length_b 8.1765(6)
_cell_length_c 8.1765(6)
_cell_angle_alpha 90
_cell_angle_beta 90
_cell_angle_gamma 90
_cell_volume 546.64
_cell_formula_units_Z 1
_symmetry_space_group_name_H-M 'P m -3 m'
_symmetry_Int_Tables_number 221
_refine_ls_R_factor_all 0.033
loop_
_symmetry_equiv_pos_site_id
_symmetry_equiv_pos_as_xyz
1 'z, y, -x'
2 'y, x, -z'
3 'x, z, -y'
4 'z, x, -y'
5 'y, z, -x'
6 'x, y, -z'
7 'z, -y, x'
8 'y, -x, z'
9 'x, -z, y'
10 'z, -x, y'
11 'y, -z, x'
12 'x, -y, z'
13 '-z, y, x'
14 '-y, x, z'
15 '-x, z, y'
16 '-z, x, y'
17 '-y, z, x'
18 '-x, y, z'
19 '-z, -y, -x'
20 '-y, -x, -z'
21 '-x, -z, -y'
22 '-z, -x, -y'
23 '-y, -z, -x'
24 '-x, -y, -z'
25 '-z, -y, x'
26 '-y, -x, z'
27 '-x, -z, y'
28 '-z, -x, y'
29 '-y, -z, x'
30 '-x, -y, z'
31 '-z, y, -x'
32 '-y, x, -z'
33 '-x, z, -y'
34 '-z, x, -y'
35 '-y, z, -x'
36 '-x, y, -z'
37 'z, -y, -x'
38 'y, -x, -z'
39 'x, -z, -y'
40 'z, -x, -y'
41 'y, -z, -x'
42 'x, -y, -z'
43 'z, y, x'
44 'y, x, z'
45 'x, z, y'
46 'z, x, y'
47 'y, z, x'
48 'x, y, z'
loop_
_atom_type_symbol
_atom_type_oxidation_number
Nb2+ 2.5
Nb4+ 4.13
F1- -1
Br1- -1
F1- -1
Na1+ 1
loop_
_atom_site_label
_atom_site_type_symbol
_atom_site_symmetry_multiplicity
_atom_site_Wyckoff_symbol
_atom_site_fract_x
_atom_site_fract_y
_atom_site_fract_z
_atom_site_B_iso_or_equiv
_atom_site_occupancy
_atom_site_attached_hydrogens
Nb1 Nb2+ 6 f 0.7434(2) 0.5 0.5 0.0266(5) 1. 0
Nb2 Nb4+ 1 a 0 0 0 0.113(1) 1. 0
F1 F1- 12 j 0.753(1) 0.5 0.753(1) 0.044(2) 0.696(8) 0
Br1 Br1- 12 j 0.8079(4) 0.5 0.8079(4) 0.058(1) 0.304(8) 0
F2 F1- 3 c 0 0.5 0.5 0.102(4) 1. 0
F3 F1- 6 e 0 0 0.774(2) 0.27(1) 1. 0
Na1 Na1+ 12 h 0.082(3) 0.5 0 0.08(1) 0.156(8) 0
#End of TTdata_93687-ICSD