
#(C) 2019 by FIZ Karlsruhe - Leibniz Institute for Information Infrastructure.  All rights reserved.
data_93723-ICSD
_database_code_ICSD 93723
_audit_creation_date 2003-04-01
_chemical_name_systematic 'Disodium magnesium indium fluoride'
_chemical_formula_structural 'Na2 Mg In F7'
_chemical_formula_sum 'F7 In1 Mg1 Na2'
_chemical_name_structure_type Na2CuInF7
_chemical_name_mineral Weberite
_exptl_crystal_density_diffrn 3.65
_publ_section_title 'the crystal structure of the weberite Na2 Mg In F7'
loop_
_citation_id
_citation_journal_full
_citation_year
_citation_journal_volume
_citation_page_first
_citation_page_last
_citation_journal_id_ASTM
primary 'Journal of Solid State Chemistry' 2001 159 234 238 JSSCBI
loop_
_publ_author_name
'Caramanian, A.'
'Souron, J.P.'
'Gredin, P.'
'de Kozak, A.'
_cell_length_a 10.435(1)
_cell_length_b 7.345(1)
_cell_length_c 7.553(1)
_cell_angle_alpha 90
_cell_angle_beta 90
_cell_angle_gamma 90
_cell_volume 578.9
_cell_formula_units_Z 4
_symmetry_space_group_name_H-M 'P n m a'
_symmetry_Int_Tables_number 62
_refine_ls_R_factor_all 0.034
loop_
_symmetry_equiv_pos_site_id
_symmetry_equiv_pos_as_xyz
1 'x+1/2, y, -z+1/2'
2 'x, -y+1/2, z'
3 '-x+1/2, y+1/2, z+1/2'
4 '-x, -y, -z'
5 '-x+1/2, -y, z+1/2'
6 '-x, y+1/2, -z'
7 'x+1/2, -y+1/2, -z+1/2'
8 'x, y, z'
loop_
_atom_type_symbol
_atom_type_oxidation_number
Na1+ 1
Mg2+ 2
In3+ 3
F1- -1
loop_
_atom_site_label
_atom_site_type_symbol
_atom_site_symmetry_multiplicity
_atom_site_Wyckoff_symbol
_atom_site_fract_x
_atom_site_fract_y
_atom_site_fract_z
_atom_site_B_iso_or_equiv
_atom_site_occupancy
_atom_site_attached_hydrogens
Na1 Na1+ 4 a 0 0 0 0.036(1) 1. 0
Na2 Na1+ 4 c 0.2680(2) 0.25 0.2372(2) 0.024(1) 1. 0
Mg1 Mg2+ 4 b 0 0 0.5 0.006(1) 1. 0
In1 In3+ 4 c 0.2619(1) 0.25 0.7495(1) 0.010(1) 1. 0
F1 F1- 4 c 0.3574(3) 0.25 0.5082(3) 0.019(1) 1. 0
F2 F1- 4 c 0.1625(3) 0.25 0.9834(3) 0.020(1) 1. 0
F3 F1- 4 c 0.4706(3) 0.25 0.0569(5) 0.027(1) 1. 0
F4 F1- 8 d 0.3738(2) 0.0241(3) 0.8029(3) 0.021(1) 1. 0
F5 F1- 8 d 0.3648(2) 0.9501(2) 0.1750(3) 0.022(1) 1. 0
loop_
_atom_site_aniso_label
_atom_site_aniso_type_symbol
_atom_site_aniso_U_11
_atom_site_aniso_U_22
_atom_site_aniso_U_33
_atom_site_aniso_U_12
_atom_site_aniso_U_13
_atom_site_aniso_U_23
Na1 Na1+ 0.031(1) 0.022(1) 0.054(2) 0.007(1) -0.005(1) 0.003(1)
Na2 Na1+ 0.035(1) 0.021(1) 0.018(1) 0. -0.008(1) 0.
Mg1 Mg2+ 0.005(1) 0.004(1) 0.008(1) 0.001(1) 0.000(1) -0.001(1)
In1 In3+ 0.011(1) 0.009(1) 0.012(1) 0. 0.000(1) 0.
F1 F1- 0.024(1) 0.021(1) 0.013(1) 0. 0.002(1) 0.
F2 F1- 0.021(1) 0.028(1) 0.012(1) 0. 0.003(1) 0.
F3 F1- 0.036(2) 0.009(1) 0.036(2) 0. 0.015(1) 0.
F4 F1- 0.021(1) 0.020(1) 0.023(1) 0.007(1) -0.008(1) -0.003(1)
F5 F1- 0.021(1) 0.015(1) 0.031(1) -0.004(1) 0.013(1) 0.003(1)
#End of TTdata_93723-ICSD