
#(C) 2019 by FIZ Karlsruhe - Leibniz Institute for Information Infrastructure.  All rights reserved.
data_938-ICSD
_database_code_ICSD 938
_audit_creation_date 1980-01-01
_audit_update_record 2011-08-01
_chemical_name_systematic 'Manganese sodium hexafluorochromate(III)'
_chemical_formula_structural 'Mn Na (Cr F6)'
_chemical_formula_sum 'Cr1 F6 Mn1 Na1'
_chemical_name_structure_type Na2SiF6
_exptl_crystal_density_diffrn 3.47
_publ_section_title 'La structure cristalline de Na Mn Cr F6'
loop_
_citation_id
_citation_journal_full
_citation_year
_citation_journal_volume
_citation_page_first
_citation_page_last
_citation_journal_id_ASTM
primary

;
Acta Crystallographica, Section B: Structural Crystallography and Crystal
Chemistry
; 1977 33 1405 1408 ACBCAR
loop_
_publ_author_name
'Courbion, G.'
'Jacoboni, C.'
'de Pape, R.'
_cell_length_a 8.993(1)
_cell_length_b 8.993(1)
_cell_length_c 5.003(1)
_cell_angle_alpha 90.
_cell_angle_beta 90.
_cell_angle_gamma 120.
_cell_volume 350.41
_cell_formula_units_Z 3
_symmetry_space_group_name_H-M 'P 3 2 1'
_symmetry_Int_Tables_number 150
_refine_ls_R_factor_all 0.026
loop_
_symmetry_equiv_pos_site_id
_symmetry_equiv_pos_as_xyz
1 'x-y, -y, -z'
2 '-x, -x+y, -z'
3 'y, x, -z'
4 '-x+y, -x, z'
5 '-y, x-y, z'
6 'x, y, z'
loop_
_atom_type_symbol
_atom_type_oxidation_number
Na1+ 1
Mn2+ 2
Cr3+ 3
F1- -1
loop_
_atom_site_label
_atom_site_type_symbol
_atom_site_symmetry_multiplicity
_atom_site_Wyckoff_symbol
_atom_site_fract_x
_atom_site_fract_y
_atom_site_fract_z
_atom_site_B_iso_or_equiv
_atom_site_occupancy
_atom_site_attached_hydrogens
Na1 Na1+ 3 e 0.3722(2) 0 0 . 1. 0
Mn1 Mn2+ 3 f 0.70258(4) 0 0.5 . 1. 0
Cr1 Cr3+ 1 a 0 0 0 . 1. 0
Cr2 Cr3+ 2 d 0.3333 0.6667 0.49708(8) . 1. 0
F1 F1- 6 g 0.9031(2) 0.1033(2) 0.7798(2) . 1. 0
F2 F1- 6 g 0.5390(2) 0.4073(2) 0.7131(2) . 1. 0
F3 F1- 6 g 0.2347(2) 0.7744(2) 0.7039(2) . 1. 0
loop_
_atom_site_aniso_label
_atom_site_aniso_type_symbol
_atom_site_aniso_beta_11
_atom_site_aniso_beta_22
_atom_site_aniso_beta_33
_atom_site_aniso_beta_12
_atom_site_aniso_beta_13
_atom_site_aniso_beta_23
Na1 Na1+ 0.00454(12) 0.00451(16) 0.01075(34) 0.00225(12) 0.00004(8) 0.00008(8)
Mn1 Mn2+ 0.00308(4) 0.00294(5) 0.00844(10) 0.00147(5) -.00028(2) -.00056(2)
Cr1 Cr3+ 0.00274(5) 0.00274(5) 0.00622(15) 0.00137(5) 0 0
Cr2 Cr3+ 0.00269(4) 0.00269(4) 0.00818(13) 0.00134(4) 0 0
F1 F1- 0.00591(17) 0.00539(17) 0.01264(31) 0.00335(14) -.00331(20) -.00091(22)
F2 F1- 0.00433(16) 0.00693(20) 0.01237(30) 0.00329(16) -.00105(17) -.00252(19)
F3 F1- 0.00513(17) 0.00594(18) 0.01391(31) 0.00327(14) -.00155(20) -.00334(21)
#End of TTdata_938-ICSD