
#(C) 2019 by FIZ Karlsruhe - Leibniz Institute for Information Infrastructure.  All rights reserved.
data_93812-ICSD
_database_code_ICSD 93812
_audit_creation_date 2003-04-01
_chemical_name_systematic
'Nonasodium pentagadolinium octaantimony bis(persulfide) docosasulfide'
_chemical_formula_structural 'Na9 Gd5 Sb8 (S2)2 S22'
_chemical_formula_sum 'Gd5 Na9 S26 Sb8'
_exptl_crystal_density_diffrn 4.06
_cell_measurement_temperature 150.
_publ_section_title

;
Synthesis and crystal structure of a new quaternary thioantimonate, Na9 Gd5
Sb8 S26
;
loop_
_citation_id
_citation_journal_full
_citation_year
_citation_journal_volume
_citation_page_first
_citation_page_last
_citation_journal_id_ASTM
primary 'Journal of Solid State Chemistry' 2001 161 129 134 JSSCBI
loop_
_publ_author_name
'Park, S.'
'Kim, S.-J.'
_cell_length_a 11.406(3)
_cell_length_b 23.765(2)
_cell_length_c 16.923(5)
_cell_angle_alpha 90
_cell_angle_beta 90
_cell_angle_gamma 90
_cell_volume 4587.21
_cell_formula_units_Z 4
_symmetry_space_group_name_H-M 'P n m a'
_symmetry_Int_Tables_number 62
_refine_ls_R_factor_all 0.044
loop_
_symmetry_equiv_pos_site_id
_symmetry_equiv_pos_as_xyz
1 'x+1/2, y, -z+1/2'
2 'x, -y+1/2, z'
3 '-x+1/2, y+1/2, z+1/2'
4 '-x, -y, -z'
5 '-x+1/2, -y, z+1/2'
6 '-x, y+1/2, -z'
7 'x+1/2, -y+1/2, -z+1/2'
8 'x, y, z'
loop_
_atom_type_symbol
_atom_type_oxidation_number
Gd3+ 3
Sb3+ 3
S2- -2
S1- -1
S2- -2
S1- -1
S2- -2
Na1+ 1
loop_
_atom_site_label
_atom_site_type_symbol
_atom_site_symmetry_multiplicity
_atom_site_Wyckoff_symbol
_atom_site_fract_x
_atom_site_fract_y
_atom_site_fract_z
_atom_site_B_iso_or_equiv
_atom_site_occupancy
_atom_site_attached_hydrogens
Gd1 Gd3+ 8 d 0.9882(1) 0.3311(1) 0.1272(1) 0.007(1) 1. 0
Gd2 Gd3+ 8 d 0.4958(1) 0.3308(1) 0.8731(1) 0.007(1) 1. 0
Gd3 Gd3+ 4 c 0.2417(1) 0.25 0.0001(1) 0.008(1) 1. 0
Sb1 Sb3+ 8 d 0.2604(1) 0.4094(1) 0.9963(1) 0.008(1) 1. 0
Sb2 Sb3+ 8 d 0.2329(1) 0.4213(1) 0.7404(1) 0.009(1) 1. 0
Sb3 Sb3+ 8 d 0.7611(1) 0.4143(1) 0.0047(1) 0.008(1) 1. 0
Sb4 Sb3+ 8 d 0.7609(1) 0.4229(1) 0.2465(1) 0.008(1) 1. 0
S1 S2- 8 d 0.9755(2) 0.4125(1) 0.2473(1) 0.009(1) 1. 0
S2 S2- 8 d 0.9819(2) 0.5873(1) 0.2546(1) 0.009(1) 1. 0
S3 S2- 8 d 0.7553(1) 0.4996(1) 0.3565(1) 0.008(1) 1. 0
S4 S2- 8 d 0.7547(1) 0.5019(1) 0.1496(1) 0.009(1) 1. 0
S5 S2- 8 d 0.2389(1) 0.3401(1) 0.1049(1) 0.010(1) 1. 0
S6 S2- 8 d 0.7460(1) 0.3444(1) 0.1109(1) 0.009(1) 1. 0
S7 S2- 8 d 0.7382(1) 0.3459(1) 0.8967(1) 0.010(1) 1. 0
S8 S2- 4 c 0.9998(2) 0.25 0.0084(2) 0.008(1) 1. 0
S9 S2- 4 c 0.4828(2) 0.25 0.9922(1) 0.009(1) 1. 0
S10 S1- 4 c 0.4187(2) 0.25 0.7616(1) 0.013(1) 1. 0
S11 S1- 4 c 0.0841(2) 0.25 0.2307(1) 0.014(1) 1. 0
S12 S2- 8 d 0.2468(2) 0.3376(1) 0.8901(1) 0.010(1) 1. 0
S13 S1- 4 c 0.8988(2) 0.25 0.2303(1) 0.014(1) 1. 0
S14 S1- 4 c 0.6030(2) 0.25 0.7782(1) 0.012(1) 1. 0
S15 S2- 8 d 0.9768(1) 0.4144(1) 0.0059(1) 0.009(1) 1. 0
S16 S2- 8 d 0.4745(1) 0.4136(1) 0.9941(1) 0.010(1) 1. 0
Na1 Na1+ 8 d 0.4882(2) 0.3311(1) 0.6267(2) 0.011(1) 1. 0
Na2 Na1+ 8 d 0.4951(2) 0.3302(1) 0.1278(2) 0.010(1) 1. 0
Na3 Na1+ 8 d 0.0026(2) 0.5028(2) 0.1232(2) 0.014(1) 1. 0
Na4 Na1+ 8 d 0.4944(2) 0.5030(2) 0.8773(2) 0.013(1) 1. 0
Na5 Na1+ 4 c 0.7416(3) 0.25 0.0017(2) 0.004(1) 1. 0
#End of TTdata_93812-ICSD