
#(C) 2019 by FIZ Karlsruhe - Leibniz Institute for Information Infrastructure.  All rights reserved.
data_9381-ICSD
_database_code_ICSD 9381
_audit_creation_date 1980-01-01
_audit_update_record 2012-08-01
_chemical_name_systematic 'Sodium trihydrogen bis(selenate(IV))'
_chemical_formula_structural 'Na H3 (Se O3)2'
_chemical_formula_sum 'H3 Na1 O6 Se2'
_chemical_name_structure_type NaH3(SeO3)2
_exptl_crystal_density_diffrn 3.21
_publ_section_title 'Neutron diffraction study on paraelectric Na H3 (Se O3)2'
loop_
_citation_id
_citation_journal_full
_citation_year
_citation_journal_volume
_citation_page_first
_citation_page_last
_citation_journal_id_ASTM
primary Ferroelectrics 1970 1 31 36 FEROA8
loop_
_publ_author_name
'Kaplan, S.F.'
'Kay, M.I.'
_cell_length_a 10.3450(4)
_cell_length_b 4.8440(2)
_cell_length_c 5.7866(2)
_cell_angle_alpha 90.
_cell_angle_beta 91.133(4)
_cell_angle_gamma 90.
_cell_volume 289.92
_cell_formula_units_Z 2
_symmetry_space_group_name_H-M 'P 1 21/n 1'
_symmetry_Int_Tables_number 14
loop_
_symmetry_equiv_pos_site_id
_symmetry_equiv_pos_as_xyz
1 '-x+1/2, y+1/2, -z+1/2'
2 '-x, -y, -z'
3 'x+1/2, -y+1/2, z+1/2'
4 'x, y, z'
loop_
_atom_type_symbol
_atom_type_oxidation_number
Na1+ 1
Se4+ 4
O2- -2
H1+ 1
loop_
_atom_site_label
_atom_site_type_symbol
_atom_site_symmetry_multiplicity
_atom_site_Wyckoff_symbol
_atom_site_fract_x
_atom_site_fract_y
_atom_site_fract_z
_atom_site_B_iso_or_equiv
_atom_site_occupancy
_atom_site_attached_hydrogens
Na1 Na1+ 2 a 0 0 0 . 1. 0
Se1 Se4+ 4 e 0.1691(2) 0.3861(6) 0.5060(4) . 1. 0
O1 O2- 4 e 0.4473(4) 0.6904(10) 0.1257(6) . 1. 0
O2 O2- 4 e 0.6443(3) 0.2072(9) 0.2877(6) . 1. 0
O3 O2- 4 e 0.3071(3) 0.2067(9) 0.4509(6) . 1. 0
H1 H1+ 4 e 0.0180(33) 0.021(20) 0.4851(92) . 0.5 0
H2 H1+ 4 e 0.1721(7) 0.4919(21) 0.9152(15) . 1. 0
loop_
_atom_site_aniso_label
_atom_site_aniso_type_symbol
_atom_site_aniso_beta_11
_atom_site_aniso_beta_22
_atom_site_aniso_beta_33
_atom_site_aniso_beta_12
_atom_site_aniso_beta_13
_atom_site_aniso_beta_23
Na1 Na1+ 0.0016(7) 0.0137(4) 0.0069(2) -.0010(08) 0.0000(6) 0.0009(21)
Se1 Se4+ 0.0038(2) 0.0147(12) 0.0093(6) -.0004(3) -.0001(2) 0.0004(5)
O1 O2- 0.0044(3) 0.0220(22) 0.0049(9) 0.0028(4) -.0009(3) -.0007(8)
O2 O2- 0.0040(3) 0.0129(19) 0.0045(8) 0.0014(4) 0.0005(3) 0.0007(7)
O3 O2- 0.0030(3) 0.0149(18) 0.007(1) 0.0009(4) 0.0006(3) 0.0019(8)
H1 H1+ 0.0009(33) 0.043(27) 0.015(10) 0.0015(50) 0.0012(23) 0.0005(8)
H2 H1+ 0.0066(7) 0.0634(65) 0.0206(23) 0.0045(10) 0.0008(6) 0.0072(21)
#End of TTdata_9381-ICSD