
#(C) 2019 by FIZ Karlsruhe - Leibniz Institute for Information Infrastructure.  All rights reserved.
data_93850-ICSD
_database_code_ICSD 93850
_audit_creation_date 2003-04-01
_chemical_name_systematic
'Praseodymium sodium manganese titanium oxide (1.33/0.67/0.67/1.33/6)'
_chemical_formula_structural '(Pr1.333 Na0.667) (Mn0.667 Ti1.333) O6'
_chemical_formula_sum 'Mn0.667 Na0.667 O6 Pr1.333 Ti1.333'
_chemical_name_structure_type Perovskite-GdFeO3
_exptl_crystal_density_diffrn 5.8
_publ_section_title
'Conductivity and magnetic properties of new Ln Mn O3 derivatives'
loop_
_citation_id
_citation_journal_full
_citation_year
_citation_journal_volume
_citation_page_first
_citation_page_last
_citation_journal_id_ASTM
primary 'Journal of Solid State Chemistry' 2001 161 294 299 JSSCBI
loop_
_publ_author_name
'Martin, P.'
'Ruiz, A.I.'
'Campo, J.'
'Lopez, M.L.'
'Veiga, M.L.'
'Pico, C.'
_cell_length_a 5.4539(6)
_cell_length_b 5.4490(3)
_cell_length_c 7.6944(3)
_cell_angle_alpha 90
_cell_angle_beta 90
_cell_angle_gamma 90
_cell_volume 228.66
_cell_formula_units_Z 2
_symmetry_space_group_name_H-M 'P b n m'
_symmetry_Int_Tables_number 62
_refine_ls_R_factor_all 0.063
loop_
_symmetry_equiv_pos_site_id
_symmetry_equiv_pos_as_xyz
1 '-x+1/2, y+1/2, z'
2 'x, y, -z+1/2'
3 'x+1/2, -y+1/2, z+1/2'
4 '-x, -y, -z'
5 'x+1/2, -y+1/2, -z'
6 '-x, -y, z+1/2'
7 '-x+1/2, y+1/2, -z+1/2'
8 'x, y, z'
loop_
_atom_type_symbol
_atom_type_oxidation_number
Na1+ 1
Pr3+ 3
Mn3+ 3
Ti4+ 4
O2- -2
loop_
_atom_site_label
_atom_site_type_symbol
_atom_site_symmetry_multiplicity
_atom_site_Wyckoff_symbol
_atom_site_fract_x
_atom_site_fract_y
_atom_site_fract_z
_atom_site_B_iso_or_equiv
_atom_site_occupancy
_atom_site_attached_hydrogens
Na1 Na1+ 4 c -0.000(3) -0.017(2) 0.25 0.488(2) 0.333 0
Pr1 Pr3+ 4 c -0.000(3) -0.017(2) 0.25 0.488(2) 0.667 0
Mn1 Mn3+ 4 b 0.5 0 0 0.270(2) 0.333 0
Ti1 Ti4+ 4 b 0.5 0 0 0.270(2) 0.667 0
O1 O2- 4 c -0.050(1) 0.511(8) 0.25 1.357(4) 1. 0
O2 O2- 8 d 0.745(4) 0.264(2) -0.030(1) 1.357(4) 1. 0
#End of TTdata_93850-ICSD