
#(C) 2019 by FIZ Karlsruhe - Leibniz Institute for Information Infrastructure.  All rights reserved.
data_93875-ICSD
_database_code_ICSD 93875
_audit_creation_date 2003-04-01
_audit_update_record 2012-02-01
_chemical_name_systematic
'Trisodium catena-dodecathiodichromo(III)triphosphate(V)'
_chemical_formula_structural 'Na3 (Cr2 P3 S12)'
_chemical_formula_sum 'Cr2 Na3 P3 S12'
_chemical_name_structure_type Na3Cr2(PS4)3
_exptl_crystal_density_diffrn 2.29
_publ_section_title

;
Na3 Cr2 P3 S12 and K3 Cr2 P3 S12 : two new one-dimensional thiophosphate
compounds with a novel structure
;
loop_
_citation_id
_citation_journal_full
_citation_year
_citation_journal_volume
_citation_page_first
_citation_page_last
_citation_journal_id_ASTM
primary 'Journal of Solid State Chemistry' 2001 162 195 203 JSSCBI
loop_
_publ_author_name
'Coste, S.'
'Kopnin, E.'
'Evain, M.'
'Jobic, S.'
'Payen, C.'
'Brec, R.'
_cell_length_a 17.4076(10)
_cell_length_b 11.1723(10)
_cell_length_c 19.2502(11)
_cell_angle_alpha 90
_cell_angle_beta 149.731(3)
_cell_angle_gamma 90
_cell_volume 1887.12
_cell_formula_units_Z 4
_symmetry_space_group_name_H-M 'P 1 21/c 1'
_symmetry_Int_Tables_number 14
_refine_ls_R_factor_all 0.042
loop_
_symmetry_equiv_pos_site_id
_symmetry_equiv_pos_as_xyz
1 'x, -y+1/2, z+1/2'
2 '-x, -y, -z'
3 '-x, y+1/2, -z+1/2'
4 'x, y, z'
loop_
_atom_type_symbol
_atom_type_oxidation_number
Na1+ 1
Cr3+ 3
P5+ 5
S2- -2
loop_
_atom_site_label
_atom_site_type_symbol
_atom_site_symmetry_multiplicity
_atom_site_Wyckoff_symbol
_atom_site_fract_x
_atom_site_fract_y
_atom_site_fract_z
_atom_site_B_iso_or_equiv
_atom_site_occupancy
_atom_site_attached_hydrogens
Na1 Na1+ 4 e 0.2005(6) 0.1271(4) -0.0033(4) 0.070(8) 1. 0
Na2 Na1+ 4 e 0.2894(6) 0.0850(4) 0.7387(6) 0.063(10) 1. 0
Na3 Na1+ 4 e 0.3120(7) 0.4168(4) 0.9567(6) 0.093(13) 1. 0
Cr1 Cr3+ 4 e 0.79612(14) 0.28039(12) 0.39642(13) 0.014(2) 1. 0
Cr2 Cr3+ 4 e 0.78330(14) 0.26813(11) 0.57204(13) 0.013(2) 1. 0
P1 P5+ 4 e 0.7799(2) 0.2617(2) 0.2265(2) 0.015(2) 1. 0
P2 P5+ 4 e 0.0578(2) 0.18244(19) 0.6946(2) 0.015(3) 1. 0
P3 P5+ 4 e 0.5258(2) 0.3685(2) 0.2769(2) 0.018(3) 1. 0
S1 S2- 4 e 0.9560(2) 0.35291(18) 0.6184(2) 0.017(3) 1. 0
S2 S2- 4 e 0.6253(2) 0.19745(17) 0.3520(2) 0.015(3) 1. 0
S3 S2- 4 e 0.9590(2) 0.10402(19) 0.7024(2) 0.021(3) 1. 0
S4 S2- 4 e 0.6107(2) 0.4382(2) 0.4332(2) 0.022(3) 1. 0
S5 S2- 4 e 0.9722(2) 0.1157(2) 0.5377(2) 0.022(3) 1. 0
S6 S2- 4 e 0.6248(2) 0.4505(2) 0.2703(2) 0.025(3) 1. 0
S7 S2- 4 e 0.6519(2) 0.1753(2) 0.1990(2) 0.020(3) 1. 0
S8 S2- 4 e 0.9075(2) 0.1482(2) 0.2679(2) 0.020(3) 1. 0
S9 S2- 4 e 0.6391(2) 0.3415(2) 0.0450(2) 0.022(3) 1. 0
S10 S2- 4 e 0.2826(2) 0.1872(2) 0.8738(2) 0.033(3) 1. 0
S11 S2- 4 e 0.9090(2) 0.3776(2) 0.3843(2) 0.025(3) 1. 0
S12 S2- 4 e 0.2993(2) 0.3656(2) 0.0969(2) 0.033(3) 1. 0
loop_
_atom_site_aniso_label
_atom_site_aniso_type_symbol
_atom_site_aniso_U_11
_atom_site_aniso_U_22
_atom_site_aniso_U_33
_atom_site_aniso_U_12
_atom_site_aniso_U_13
_atom_site_aniso_U_23
Na1 Na1+ 0.072(2) 0.035(2) 0.041(2) 0.001(2) 0.040(2) 0.0013(19)
Na2 Na1+ 0.067(2) 0.063(3) 0.098(3) 0.014(2) 0.077(2) 0.017(2)
Na3 Na1+ 0.146(5) 0.043(2) 0.074(3) -0.033(2) 0.093(3) -0.016(2)
Cr1 Cr3+ 0.0164(5) 0.0181(6) 0.0141(6) 0.0013(4) 0.0140(5) 0.0011(4)
Cr2 Cr3+ 0.0162(5) 0.0155(6) 0.0141(6) 0.0012(4) 0.0139(5) 0.0003(4)
P1 P5+ 0.0178(8) 0.0173(10) 0.0162(9) 0.0008(7) 0.0155(8) 0.0012(7)
P2 P5+ 0.0131(8) 0.0182(9) 0.0131(9) 0.0029(7) 0.0112(8) 0.0022(7)
P3 P5+ 0.0157(9) 0.0200(10) 0.0166(10) 0.0055(7) 0.0137(9) 0.0029(8)
S1 S2- 0.0211(8) 0.0146(9) 0.0196(9) 0.0000(7) 0.0184(8) -0.0006(7)
S2 S2- 0.0187(8) 0.0158(8) 0.0171(9) 0.0016(7) 0.0163(8) 0.0011(7)
S3 S2- 0.0256(10) 0.0197(10) 0.0263(1) 0.0046(8) 0.0239(10) 0.0068(8)
S4 S2- 0.0235(9) 0.0253(10) 0.0202(10) 0.0062(8) 0.0194(9) 0.0016(8)
S5 S2- 0.0239(10) 0.0237(10) 0.0202(10) 0.0060(8) 0.0194(9) 0.0014(8)
S6 S2- 0.0323(11) 0.0224(10) 0.0307(12) 0.0099(8) 0.0288(10) 0.0104(8)
S7 S2- 0.0192(9) 0.0296(10) 0.0175(9) -0.0061(7) 0.0167(8) -0.0038(8)
S8 S2- 0.0211(9) 0.0239(10) 0.0190(10) 0.0073(8) 0.0178(9) 0.0062(8)
S9 S2- 0.0232(9) 0.0278(11) 0.0212(9) 0.0096(8) 0.0203(9) 0.0096(8)
S10 S2- 0.0144(9) 0.0382(12) 0.0205(11) 0.0031(8) 0.0113(9) 0.0029(9)
S11 S2- 0.0333(11) 0.0268(11) 0.0289(11) -0.0115(8) 0.0288(10) -0.0100(8)
S12 S2- 0.0185(9) 0.0352(12) 0.0201(11) 0.0057(9) 0.0132(9) 0.0010(9)
#End of TTdata_93875-ICSD