
#(C) 2018 by FIZ Karlsruhe - Leibniz Institute for Information Infrastructure.  All rights reserved.
data_93890-ICSD
_database_code_ICSD 93890
_audit_creation_date 2003-04-01
_chemical_name_systematic 'Lanthanum lithium titanium oxide (24/20/5/56)'
_chemical_formula_structural 'La24 Li20 Ti5 O56'
_chemical_formula_sum 'La24 Li20 O56 Ti5'
_exptl_crystal_density_diffrn 5.85
_publ_section_title

;
Crystal structure of La24 Li20 Ti5 O56: a pseudo-close-packed, columnar
intergrowth structure
;
loop_
_citation_id
_citation_journal_full
_citation_year
_citation_journal_volume
_citation_page_first
_citation_page_last
_citation_journal_id_ASTM
primary 'Journal of Solid State Chemistry' 2001 162 379 388 JSSCBI
loop_
_publ_author_name
'Kirk, C.A.'
'West, A.R.'
_cell_length_a 13.244(1)
_cell_length_b 13.244(1)
_cell_length_c 7.463(1)
_cell_angle_alpha 90
_cell_angle_beta 90
_cell_angle_gamma 90
_cell_volume 1309.04
_cell_formula_units_Z 1
_symmetry_space_group_name_H-M 'P 4/m b m'
_symmetry_Int_Tables_number 127
_refine_ls_R_factor_all 0.036
loop_
_symmetry_equiv_pos_site_id
_symmetry_equiv_pos_as_xyz
1 'y+1/2, x+1/2, -z'
2 '-y+1/2, -x+1/2, -z'
3 '-y, x, -z'
4 'y, -x, -z'
5 'x+1/2, -y+1/2, -z'
6 '-x+1/2, y+1/2, -z'
7 'x, y, -z'
8 '-x, -y, -z'
9 '-y+1/2, -x+1/2, z'
10 'y+1/2, x+1/2, z'
11 'y, -x, z'
12 '-y, x, z'
13 '-x+1/2, y+1/2, z'
14 'x+1/2, -y+1/2, z'
15 '-x, -y, z'
16 'x, y, z'
loop_
_atom_type_symbol
_atom_type_oxidation_number
La3+ 3
Ti4+ 4
O2- -2
Ti4+ 4
Li1+ 1
O2- -2
Li1+ 1
loop_
_atom_site_label
_atom_site_type_symbol
_atom_site_symmetry_multiplicity
_atom_site_Wyckoff_symbol
_atom_site_fract_x
_atom_site_fract_y
_atom_site_fract_z
_atom_site_B_iso_or_equiv
_atom_site_occupancy
_atom_site_attached_hydrogens
La1 La3+ 16 l 0.00891(14) 0.19610(9) 0.25695(29) 0.01879(24) 1. 0
La2 La3+ 4 g 0.26120(15) 0.76120(15) 0 0.01137(49) 1. 0
La3 La3+ 4 h 0.21899(15) 0.71899(15) 0.5 0.01018(47) 1. 0
Ti1 Ti4+ 4 g 0.08561(34) 0.58561(34) 0 0.01269(12) 1. 0
O1 O2- 8 j 0.32056(23) 0.01785(23) 0.5 0.01335(50) 1. 0
O2 O2- 8 j 0.12283(24) 0.11807(28) 0.5 0.01314(52) 1. 0
O3 O2- 8 i 0.12357(32) 0.11299(33) 0 0.02769(86) 1. 0
O4 O2- 4 e 0 0 0.25287(78) 0.01654(59) 1. 0
O5 O2- 4 f 0 0.5 0.18485(51) 0.01281(65) 1. 0
O6 O2- 8 k 0.18469(17) 0.31531(17) 0.28879(45) 0.01841(64) 1. 0
O7 O2- 8 i 0.02838(28) 0.31350(29) 0 0.02308(65) 1. 0
Ti2 Ti4+ 2 a 0 0 0 0.0159(26) 0.5 0
Li1 Li1+ 2 a 0 0 0 0.0159(26) 0.5 0
O8 O2- 8 k 0.15598(19) 0.65598(19) 0.18965(52) 0.02787(66) 1. 0
Li2 Li1+ 2 b 0 0 0.5 0.0110(29) 1. 0
Li3 Li1+ 8 k 0.07629(48) 0.57629(48) 0.3438(12) 0.0066(14) 0.8125 0
Li4 Li1+ 8 k 0.09743(50) 0.40257(50) 0.1682(12) 0.0084(14) 0.8125 0
Li5 Li1+ 4 h 0.12107(51) 0.37893(51) 0.5 0.0079(18) 1. 0
#End of TTdata_93890-ICSD