
#(C) 2019 by FIZ Karlsruhe - Leibniz Institute for Information Infrastructure.  All rights reserved.
data_93931-ICSD
_database_code_ICSD 93931
_audit_creation_date 2003-04-01
_chemical_name_systematic
'Sodium barium copper niobium oxide (2.1/0.9/0.1/4.9/14.3)'
_chemical_formula_structural 'Na (Na1.1 Ba0.9) (Cu0.1 Nb0.9) Nb4 O14.3'
_chemical_formula_sum 'Ba0.9 Cu0.1 Na2.1 Nb4.9 O14.3'
_exptl_crystal_density_diffrn 4.68
_publ_section_title
'Crystal structure of a new compound: Na2.1 Ba0.9 Cu0.1 Nb4.9 O14.3'
loop_
_citation_id
_citation_journal_full
_citation_year
_citation_journal_volume
_citation_page_first
_citation_page_last
_citation_journal_id_ASTM
primary 'Journal of Wuhan University of Technology, Materials Science Edition'
2001 16 30 33 JWUTE8
loop_
_publ_author_name
'Zhang, G.-K.'
'Ouyang, S.-X.'
'Fang, L.'
'Qin, L.-Q.'
'Zhang, Q.'
_cell_length_a 12.442(3)
_cell_length_b 12.442(3)
_cell_length_c 3.954(3)
_cell_angle_alpha 90
_cell_angle_beta 90
_cell_angle_gamma 90
_cell_volume 612.09
_cell_formula_units_Z 2
_symmetry_space_group_name_H-M 'P 4/m b m'
_symmetry_Int_Tables_number 127
_refine_ls_R_factor_all 0.056
loop_
_symmetry_equiv_pos_site_id
_symmetry_equiv_pos_as_xyz
1 'y+1/2, x+1/2, -z'
2 '-y+1/2, -x+1/2, -z'
3 '-y, x, -z'
4 'y, -x, -z'
5 'x+1/2, -y+1/2, -z'
6 '-x+1/2, y+1/2, -z'
7 'x, y, -z'
8 '-x, -y, -z'
9 '-y+1/2, -x+1/2, z'
10 'y+1/2, x+1/2, z'
11 'y, -x, z'
12 '-y, x, z'
13 '-x+1/2, y+1/2, z'
14 'x+1/2, -y+1/2, z'
15 '-x, -y, z'
16 'x, y, z'
loop_
_atom_type_symbol
_atom_type_oxidation_number
Na1+ 1
Ba2+ 2
Nb5+ 5
Cu2+ 2
Na1+ 1
O2- -2
loop_
_atom_site_label
_atom_site_type_symbol
_atom_site_symmetry_multiplicity
_atom_site_Wyckoff_symbol
_atom_site_fract_x
_atom_site_fract_y
_atom_site_fract_z
_atom_site_B_iso_or_equiv
_atom_site_occupancy
_atom_site_attached_hydrogens
Na1 Na1+ 8 i 0.3354(14) 0.1802(14) 0 . 0.275 0
Ba1 Ba2+ 8 i 0.3354(14) 0.1802(14) 0 . 0.225 0
Nb1 Nb5+ 8 j 0.2909(2) 0.4264(2) 0.5 . 1. 0
Nb2 Nb5+ 2 c 0 0.5 0.5 . 0.9 0
Cu1 Cu2+ 2 c 0 0.5 0.5 . 0.1 0
Na2 Na1+ 2 a 0 0 0 . 1. 0
O1 O2- 8 i 0.2919(25) 0.4251(27) 0 . 0.953 0
O2 O2- 8 j 0.1570(15) 0.5069(18) 0.5 . 0.953 0
O3 O2- 2 d 0.5 0 0 . 0.953 0
O4 O2- 8 j 0.3570(19) 0.5697(17) 0.5 . 0.953 0
O5 O2- 4 h 0.2181(82) 0.2819(85) 0.5 . 0.953 0
loop_
_atom_site_aniso_label
_atom_site_aniso_type_symbol
_atom_site_aniso_U_11
_atom_site_aniso_U_22
_atom_site_aniso_U_33
_atom_site_aniso_U_12
_atom_site_aniso_U_13
_atom_site_aniso_U_23
Na1 Na1+ 0.0128(44) 0.0074(43) 0.0225(20) 0.0029(40) 0. 0.
Ba1 Ba2+ 0.0128(44) 0.0074(43) 0.0225(20) 0.0029(40) 0. 0.
Nb1 Nb5+ 0.0045(10) 0.0056(11) 0.0306(15) 0.0046(9) 0. 0.
Nb2 Nb5+ 0.0055(50) 0.0055(50) 0.0432(39) -0.0004(18) 0. 0.
Cu1 Cu2+ 0.0055(50) 0.0055(50) 0.0432(39) -0.0004(48) 0. 0.
Na2 Na1+ 0.0127(80) 0.00127(80) 0.0672(85) 0.0000(0) 0. 0.
O1 O2- 0.0370(90) 0.0617(90) 0.11057(95) -0.0120(80) 0. 0.
O2 O2- 0.0000(60) 0.0046(73) 0.1438(80) 0.0040(71) 0. 0.
O3 O2- 0.0402(80) 0.0402(80) 0.0456(80) 0.0022(90) 0. 0.
O4 O2- 0.0182(70) 0.0009(70) 0.1682(90) -0.0139(71) 0. 0.
O5 O2- 0.0002(90) 0.0041(90) 0.0892(81) 0.0139(80) 0. 0.
#End of TTdata_93931-ICSD