
#(C) 2019 by FIZ Karlsruhe - Leibniz Institute for Information Infrastructure.  All rights reserved.
data_93997-ICSD
_database_code_ICSD 93997
_audit_creation_date 2003-04-01
_chemical_name_systematic 'Sodium potassium phyllo-disilicate (1.55/0.45/1)'
_chemical_formula_structural '(Na0.55 K0.45) Na (Si2 O5)'
_chemical_formula_sum 'K0.45 Na1.55 O5 Si2'
_exptl_crystal_density_diffrn 2.5
_publ_section_title

;
The crystal structure of a mixed alkali phyllosilicate with composition Na1.55
K0.45 Si2 O5
;
loop_
_citation_id
_citation_journal_full
_citation_year
_citation_journal_volume
_citation_page_first
_citation_page_last
_citation_journal_id_ASTM
primary 'European Journal of Mineralogy' 2001 13 1215 1221 EJMIER
loop_
_publ_author_name
'Rakic, S.'
'Kahlenberg, V.'
_cell_length_a 4.845(1)
_cell_length_b 8.647(2)
_cell_length_c 11.992(3)
_cell_angle_alpha 90
_cell_angle_beta 90.31(4)
_cell_angle_gamma 90
_cell_volume 502.39
_cell_formula_units_Z 4
_symmetry_space_group_name_H-M 'P 1 21/c 1'
_symmetry_Int_Tables_number 14
_refine_ls_R_factor_all 0.055
loop_
_symmetry_equiv_pos_site_id
_symmetry_equiv_pos_as_xyz
1 'x, -y+1/2, z+1/2'
2 '-x, -y, -z'
3 '-x, y+1/2, -z+1/2'
4 'x, y, z'
loop_
_atom_type_symbol
_atom_type_oxidation_number
Si4+ 4
Na1+ 1
K1+ 1
Na1+ 1
O2- -2
loop_
_atom_site_label
_atom_site_type_symbol
_atom_site_symmetry_multiplicity
_atom_site_Wyckoff_symbol
_atom_site_fract_x
_atom_site_fract_y
_atom_site_fract_z
_atom_site_B_iso_or_equiv
_atom_site_occupancy
_atom_site_attached_hydrogens
Si1 Si4+ 4 e 0.8016(5) 0.3255(3) 0.8252(2) 0.0163(8) 1. 0
Si2 Si4+ 4 e 0.2976(6) 0.4758(3) 0.7160(2) 0.0147(8) 1. 0
Na1 Na1+ 4 e 0.7474(7) 0.8594(3) 0.4631(3) 0.0227(12) 0.55(2) 0
K1 K1+ 4 e 0.7474(7) 0.8594(3) 0.4631(3) 0.0227(12) 0.45(2) 0
Na2 Na1+ 4 e 0.7531(8) 0.3991(4) 0.5514(3) 0.0237(14) 1. 0
O1 O2- 4 e 0.2408(4) 0.4221(8) 0.5911(5) 0.0313(21) 1. 0
O2 O2- 4 e 0.7313(14) 0.3305(7) -0.0461(5) 0.0230(19) 1. 0
O3 O2- 4 e 0.2381(15) 0.6595(7) 0.7386(5) 0.0250(20) 1. 0
O4 O2- 4 e 0.6251(10) 0.4503(8) 0.7497(5) 0.0270(20) 1. 0
O5 O2- 4 e 0.1227(10) 0.3789(7) 0.8105(6) 0.0263(17) 1. 0
loop_
_atom_site_aniso_label
_atom_site_aniso_type_symbol
_atom_site_aniso_U_11
_atom_site_aniso_U_22
_atom_site_aniso_U_33
_atom_site_aniso_U_12
_atom_site_aniso_U_13
_atom_site_aniso_U_23
Si1 Si4+ 0.013(1) 0.019(2) 0.017(1) -0.001(1) 0.001(1) 0.001(1)
Si2 Si4+ 0.011(1) 0.017(2) 0.016(1) 0.001(1) 0.003(1) 0.001(1)
Na1 Na1+ 0.019(2) 0.023(2) 0.026(2) 0.000(1) -0.004(2) -0.001(1)
K1 K1+ 0.019(2) 0.023(2) 0.026(2) 0.000(1) -0.004(2) -0.001(1)
Na2 Na1+ 0.015(2) 0.031(3) 0.025(2) -0.003(2) 0.002(2) -0.005(2)
O1 O2- 0.022(4) 0.046(4) 0.026(3) 0.008(4) -0.003(3) -0.002(3)
O2 O2- 0.018(3) 0.026(4) 0.025(3) -0.003(3) 0.006(3) 0.006(3)
O3 O2- 0.024(4) 0.030(4) 0.021(4) 0.015(3) 0.000(4) 0.000(3)
O4 O2- 0.028(3) 0.022(4) 0.031(4) -0.004(3) -0.001(3) -0.003(4)
O5 O2- 0.026(3) 0.031(5) 0.022(3) -0.002(3) -0.002(3) -0.003(3)
#End of TTdata_93997-ICSD