
#(C) 2019 by FIZ Karlsruhe - Leibniz Institute for Information Infrastructure.  All rights reserved.
data_94087-ICSD
_database_code_ICSD 94087
_audit_creation_date 2003-04-01
_chemical_name_systematic 'Sodium potassium magnesium fluoride (0.5/0.5/1/3)'
_chemical_formula_structural '(Na0.5 K0.5) Mg F3'
_chemical_formula_sum 'F3 K0.5 Mg1 Na0.5'
_chemical_name_structure_type Perovskite-NaNbO3(tP10)
_chemical_name_mineral 'Neighborite (K-bearing)'
_exptl_crystal_density_diffrn 3.05
_publ_section_title

;
The crystal chemistry of synthetic potassium-bearing neighborite, (Na1-x Kx)
Mg F3
;
loop_
_citation_id
_citation_journal_full
_citation_year
_citation_journal_volume
_citation_page_first
_citation_page_last
_citation_journal_id_ASTM
primary 'Physics and Chemistry of Minerals' 2001 28 277 284 PCMIDU
loop_
_publ_author_name
'Chakhmouradian, A.R.'
'Ross, K.'
'Mitchell, R.H.'
'Swainson, I.'
_cell_length_a 5.566(3)
_cell_length_b 5.566(3)
_cell_length_c 3.953(4)
_cell_angle_alpha 90
_cell_angle_beta 90
_cell_angle_gamma 90
_cell_volume 122.47
_cell_formula_units_Z 2
_symmetry_space_group_name_H-M 'P 4/m b m'
_symmetry_Int_Tables_number 127
_refine_ls_R_factor_all 0.028
loop_
_symmetry_equiv_pos_site_id
_symmetry_equiv_pos_as_xyz
1 'y+1/2, x+1/2, -z'
2 '-y+1/2, -x+1/2, -z'
3 '-y, x, -z'
4 'y, -x, -z'
5 'x+1/2, -y+1/2, -z'
6 '-x+1/2, y+1/2, -z'
7 'x, y, -z'
8 '-x, -y, -z'
9 '-y+1/2, -x+1/2, z'
10 'y+1/2, x+1/2, z'
11 'y, -x, z'
12 '-y, x, z'
13 '-x+1/2, y+1/2, z'
14 'x+1/2, -y+1/2, z'
15 '-x, -y, z'
16 'x, y, z'
loop_
_atom_type_symbol
_atom_type_oxidation_number
Na1+ 1
K1+ 1
Mg2+ 2
F1- -1
loop_
_atom_site_label
_atom_site_type_symbol
_atom_site_symmetry_multiplicity
_atom_site_Wyckoff_symbol
_atom_site_fract_x
_atom_site_fract_y
_atom_site_fract_z
_atom_site_B_iso_or_equiv
_atom_site_occupancy
_atom_site_attached_hydrogens
Na1 Na1+ 2 c 0 0.5 0.5 1.1(1) 0.5 0
K1 K1+ 2 c 0 0.5 0.5 1.1(1) 0.5 0
Mg1 Mg2+ 2 a 0 0 0 -0.5(1) 1. 0
F1 F1- 2 b 0 0 0.5 1.97(8) 1. 0
F2 F1- 4 g 0.2596(10) 0.7596(10) 0 1.96(8) 1. 0
#End of TTdata_94087-ICSD