
#(C) 2018 by FIZ Karlsruhe - Leibniz Institute for Information Infrastructure.  All rights reserved.
data_94317-ICSD
_database_code_ICSD 94317
_audit_creation_date 2003-10-01
_chemical_name_systematic 'Lithium iron borate'
_chemical_formula_structural 'Li Fe (B O3)'
_chemical_formula_sum 'B1 Fe1 Li1 O3'
_chemical_name_structure_type LiCoBO3
_exptl_crystal_density_diffrn 3.46
_publ_section_title

;
Li M B O3 (M = Mn, Fe, Co): synthesis, crystal structure and lithium
deinsertion/insertion properties
;
loop_
_citation_id
_citation_journal_full
_citation_year
_citation_journal_volume
_citation_page_first
_citation_page_last
_citation_journal_id_ASTM
primary 'Solid State Ionics' 2001 139 37 46 SSIOD3
loop_
_publ_author_name
'Legagneur, V.'
'An, Y.'
'Mosbah, A.'
'Portal, R.'
'le Gal la Salle, A.'
'Verbaere, A.'
'Guyomard, D.'
'Piffard, Y.'
_cell_length_a 5.169(1)
_cell_length_b 8.924(2)
_cell_length_c 10.138(3)
_cell_angle_alpha 90
_cell_angle_beta 91.39(2)
_cell_angle_gamma 90
_cell_volume 467.51
_cell_formula_units_Z 8
_symmetry_space_group_name_H-M 'C 1 2/c 1'
_symmetry_Int_Tables_number 15
_refine_ls_R_factor_all 0.05
loop_
_symmetry_equiv_pos_site_id
_symmetry_equiv_pos_as_xyz
1 'x, -y, z+1/2'
2 '-x, -y, -z'
3 '-x, y, -z+1/2'
4 'x, y, z'
5 'x+1/2, -y+1/2, z+1/2'
6 '-x+1/2, -y+1/2, -z'
7 '-x+1/2, y+1/2, -z+1/2'
8 'x+1/2, y+1/2, z'
loop_
_atom_type_symbol
_atom_type_oxidation_number
Fe2+ 2
Li1+ 1
B3+ 3
O2- -2
loop_
_atom_site_label
_atom_site_type_symbol
_atom_site_symmetry_multiplicity
_atom_site_Wyckoff_symbol
_atom_site_fract_x
_atom_site_fract_y
_atom_site_fract_z
_atom_site_B_iso_or_equiv
_atom_site_occupancy
_atom_site_attached_hydrogens
Fe1 Fe2+ 8 f 0.1609(3) 0.3352(3) 0.1308(5) 0.0108(2) 0.72(3) 0
Fe2 Fe2+ 8 f 0.1624(7) 0.3375(7) 0.107(1) 0.0108(2) 0.28(3) 0
Li1 Li1+ 8 f 0.665(5) 0.509(3) 0.165(3) 0.022(2) 0.48(2) 0
Li2 Li1+ 8 f 0.673(24) 0.500(3) 0.107(2) 0.022(2) 0.52(2) 0
B1 B3+ 8 f 0.163(1) 0.6684(8) 0.1258(5) 0.0073(7) 1. 0
O1 O2- 8 f 0.4053(6) 0.1613(5) 0.0918(3) 0.0110(8) 1. 0
O2 O2- 8 f 0.7808(7) 0.3039(4) 0.1568(3) 0.010(1) 1. 0
O3 O2- 8 f 0.3102(8) 0.5406(4) 0.1270(4) 0.021(1) 1. 0
loop_
_atom_site_aniso_label
_atom_site_aniso_type_symbol
_atom_site_aniso_U_11
_atom_site_aniso_U_22
_atom_site_aniso_U_33
_atom_site_aniso_U_12
_atom_site_aniso_U_13
_atom_site_aniso_U_23
O1 O2- 0.0055(15) 0.0093(14) 0.0181(14) 0.0012(20) -0.0025(12) -0.0015(16)
O2 O2- 0.0063(16) 0.0064(18) 0.0182(15) -0.0037(14) 0.0017(13) -0.0030(12)
O3 O2- 0.0066(18) 0.0068(18) 0.0510(23) 0.0001(17) -0.0008(18) -0.0008(18)
#End of TTdata_94317-ICSD