
#(C) 2019 by FIZ Karlsruhe - Leibniz Institute for Information Infrastructure.  All rights reserved.
data_94360-ICSD
_database_code_ICSD 94360
_audit_creation_date 2003-10-01
_chemical_name_systematic 'Sodium potassium phyllo-disilicate'
_chemical_formula_structural 'Na K (Si2 O5)'
_chemical_formula_sum 'K1 Na1 O5 Si2'
_exptl_crystal_density_diffrn 2.52
_publ_section_title

;
Single crystal structure investigation of twinned Na K Si2 O5 - a novel single
layer silicate
;
loop_
_citation_id
_citation_journal_full
_citation_year
_citation_journal_volume
_citation_page_first
_citation_page_last
_citation_journal_id_ASTM
primary 'Solid State Sciences' 2001 3 659 667 SSSCFJ
loop_
_publ_author_name
'Rakic, S.'
'Kahlenberg, V.'
_cell_length_a 7.3005(8)
_cell_length_b 17.3894(18)
_cell_length_c 12.3531(14)
_cell_angle_alpha 90
_cell_angle_beta 91.139(14)
_cell_angle_gamma 90
_cell_volume 1567.93
_cell_formula_units_Z 12
_symmetry_space_group_name_H-M 'P 1 21/n 1'
_symmetry_Int_Tables_number 14
_refine_ls_R_factor_all 0.0697
loop_
_symmetry_equiv_pos_site_id
_symmetry_equiv_pos_as_xyz
1 '-x+1/2, y+1/2, -z+1/2'
2 '-x, -y, -z'
3 'x+1/2, -y+1/2, z+1/2'
4 'x, y, z'
loop_
_atom_type_symbol
_atom_type_oxidation_number
Si4+ 4
Na1+ 1
K1+ 1
O2- -2
loop_
_atom_site_label
_atom_site_type_symbol
_atom_site_symmetry_multiplicity
_atom_site_Wyckoff_symbol
_atom_site_fract_x
_atom_site_fract_y
_atom_site_fract_z
_atom_site_B_iso_or_equiv
_atom_site_occupancy
_atom_site_attached_hydrogens
Si1 Si4+ 4 e 0.0979(3) 0.6384(1) 0.6351(2) 0.0253(6) 1. 0
Si2 Si4+ 4 e 0.7383(3) 0.5575(1) 0.6630(2) 0.0277(7) 1. 0
Si3 Si4+ 4 e 0.7523(3) 0.9285(1) 0.6686(2) 0.0254(6) 1. 0
Si4 Si4+ 4 e 0.4543(3) 0.6691(1) 0.7546(2) 0.0298(6) 1. 0
Si5 Si4+ 4 e 0.0224(3) 0.8048(1) 0.7446(2) 0.0245(6) 1. 0
Si6 Si4+ 4 e 0.3932(3) 0.8312(1) 0.6529(2) 0.0261(6) 1. 0
Na1 Na1+ 4 e 0.2031(4) 0.7477(2) 0.4255(3) 0.0382(8) 1. 0
Na2 Na1+ 4 e 0.3957(4) 0.5846(2) 0.4612(3) 0.0366(9) 1. 0
Na3 Na1+ 4 e 0.0689(4) 0.9112(2) 0.4878(3) 0.0426(10) 1. 0
K1 K1+ 4 e 0.0518(2) 0.5808(1) 0.9027(2) 0.0500(6) 1. 0
K2 K1+ 4 e 0.7294(2) 0.7316(1) 0.5100(2) 0.0407(6) 1. 0
K3 K1+ 4 e 0.1156(3) 0.4364(1) 0.6175(2) 0.0611(7) 1. 0
O1 O2- 4 e 0.0990(7) 0.6384(3) 0.5087(5) 0.0350(14) 1. 0
O2 O2- 4 e 0.0276(7) 0.7202(3) 0.6842(5) 0.0367(15) 1. 0
O3 O2- 4 e -0.0439(7) 0.5730(3) 0.6825(5) 0.0272(14) 1. 0
O4 O2- 4 e 0.2954(8) 0.6194(3) 0.6935(5) 0.0374(16) 1. 0
O5 O2- 4 e 0.3261(7) 0.4409(3) 0.4576(4) 0.0344(14) 1. 0
O6 O2- 4 e 0.6479(8) 0.6206(3) 0.7406(5) 0.0414(16) 1. 0
O7 O2- 4 e 0.3018(6) 0.5269(3) 0.2826(4) 0.0293(13) 1. 0
O8 O2- 4 e 0.8906(7) 0.8535(3) 0.6624(4) 0.0312(13) 1. 0
O9 O2- 4 e 0.5461(3) 0.8952(3) 0.6910(5) 0.0342(16) 1. 0
O10 O2- 4 e -0.0795(8) 0.8161(3) 0.3760(5) 0.0415(15) 1. 0
O11 O2- 4 e 0.4832(7) 0.7481(3) 0.6805(5) 0.0382(14) 1. 0
O12 O2- 4 e -0.0379(7) 0.8037(3) 0.8619(5) 0.0328(14) 1. 0
O13 O2- 4 e 0.2257(8) 0.8456(3) 0.7358(5) 0.0347(15) 1. 0
O14 O2- 4 e 0.3327(7) 0.8410(3) 0.5319(5) 0.0337(13) 1. 0
O15 O2- 4 e 0.2290(6) 0.0230(3) 0.4344(4) 0.0323(13) 1. 0
loop_
_atom_site_aniso_label
_atom_site_aniso_type_symbol
_atom_site_aniso_U_11
_atom_site_aniso_U_22
_atom_site_aniso_U_33
_atom_site_aniso_U_12
_atom_site_aniso_U_13
_atom_site_aniso_U_23
Si1 Si4+ 0.0174(10) 0.0180(11) 0.0404(20) -0.0002(10) 0.0004(12) 0.0007(12)
Si2 Si4+ 0.0163(10) 0.0145(12) 0.0524(21) 0.0014(10) 0.0045(12) 0.0036(12)
Si3 Si4+ 0.0201(10) 0.0173(11) 0.0389(18) 0.0012(10) -0.0004(12) -0.0033(12)
Si4 Si4+ 0.0161(10) 0.0204(12) 0.0529(20) 0.0016(10) -0.0013(1) 0.0005(13)
Si5 Si4+ 0.0135(10) 0.0216(11) 0.0383(18) 0.0017(10) -0.0002(12) -0.0058(12)
Si6 Si4+ 0.0214(10) 0.0155(11) 0.0413(19) -0.0007(10) 0.0019(12) 0.0004(11)
Na1 Na1+ 0.0314(14) 0.0323(17) 0.0512(22) -0.0034(18) 0.0080(18) 0.0006(18)
Na2 Na1+ 0.0324(16) 0.0261(16) 0.0510(26) -0.048(16) -0.0073(20) 0.0100(16)
Na3 Na1+ 0.0351(16) 0.0308(17) 0.0617(28) -0.0130(17) -0.0042(20) 0.0043(18)
K1 K1+ 0.0362(10) 0.0560(12) 0.0579(17) 0.0027(11) 0.0025(12) -0.0068(13)
K2 K1+ 0.0322(9) 0.0302(10) 0.0596(16) 0.0011(9) 0.0038(11) 0.0016(11)
K3 K1+ 0.0581(12) 0.0557(13) 0.0696(19) 0.0099(13) 0.0024(14) 0.0020(13)
#End of TTdata_94360-ICSD