
#(C) 2019 by FIZ Karlsruhe - Leibniz Institute for Information Infrastructure.  All rights reserved.
data_94460-ICSD
_database_code_ICSD 94460
_audit_creation_date 2003-10-01
_chemical_name_systematic 'Sodium phyllo-undecafluorovanado(II)dihafnate'
_chemical_formula_structural 'Na (V Hf2 F11)'
_chemical_formula_sum 'F11 Hf2 Na1 V1'
_chemical_name_structure_type AgPdZr2F11
_exptl_crystal_density_diffrn 4.97
_publ_section_title 'Neue Fluorozirconate und -hafnate mit V(2+) und Ti(2+)'
loop_
_citation_id
_citation_journal_full
_citation_year
_citation_journal_volume
_citation_page_first
_citation_page_last
_citation_journal_id_ASTM
primary 'Zeitschrift fuer Anorganische und Allgemeine Chemie (1950) (DE)' 2001
627 2344 2350 ZAACAB
loop_
_publ_author_name
'Schmidt, R.'
'Kraus, M.'
'Mueller, B.G.'
_cell_length_a 9.105(7)
_cell_length_b 6.759(7)
_cell_length_c 7.736(5)
_cell_angle_alpha 90
_cell_angle_beta 116.10(6)
_cell_angle_gamma 90
_cell_volume 427.53
_cell_formula_units_Z 2
_symmetry_space_group_name_H-M 'C 1 2/m 1'
_symmetry_Int_Tables_number 12
_refine_ls_R_factor_all 0.0255
loop_
_symmetry_equiv_pos_site_id
_symmetry_equiv_pos_as_xyz
1 '-x, y, -z'
2 '-x, -y, -z'
3 'x, -y, z'
4 'x, y, z'
5 '-x+1/2, y+1/2, -z'
6 '-x+1/2, -y+1/2, -z'
7 'x+1/2, -y+1/2, z'
8 'x+1/2, y+1/2, z'
loop_
_atom_type_symbol
_atom_type_oxidation_number
Na1+ 1
V2+ 2
Hf4+ 4
F1- -1
loop_
_atom_site_label
_atom_site_type_symbol
_atom_site_symmetry_multiplicity
_atom_site_Wyckoff_symbol
_atom_site_fract_x
_atom_site_fract_y
_atom_site_fract_z
_atom_site_B_iso_or_equiv
_atom_site_occupancy
_atom_site_attached_hydrogens
Na1 Na1+ 2 a 0 0 0 . 1. 0
V1 V2+ 2 c 0 0 0.5 . 1. 0
Hf1 Hf4+ 4 i 0.50282(2) 0 0.23380(2) . 1. 0
F1 F1- 2 d 0 0.5 0.5 . 1. 0
F2 F1- 4 g 0 0.33117(47) 0 . 1. 0
F3 F1- 4 i 0.25288(39) 0 0.64868(58) . 1. 0
F4 F1- 4 i 0.26589(45) 0 0.10889(74) . 1. 0
F5 F1- 8 j 0.01196(34) 0.20947(35) 0.30803(36) . 1. 0
loop_
_atom_site_aniso_label
_atom_site_aniso_type_symbol
_atom_site_aniso_U_11
_atom_site_aniso_U_22
_atom_site_aniso_U_33
_atom_site_aniso_U_12
_atom_site_aniso_U_13
_atom_site_aniso_U_23
Na1 Na1+ 0.01102(126) 0.00592(109) 0.08525(425) 0. 0.00795(186) 0.
V1 V2+ 0.00922(28) 0.00594(28) 0.00829(28) 0. 0.00389(23) 0.
Hf1 Hf4+ 0.01006(7) 0.00712(7) 0.00771(7) 0. 0.00460(5) 0.
F1 F1- 0.06315(460) 0.01338(182) 0.02300(238) 0. 0.02812(290) 0.
F2 F1- 0.03238(161) 0.00726(87) 0.01371(107) 0. 0.01316(111) 0.
F3 F1- 0.00915(100) 0.02268(151) 0.02274(150) 0. 0.00298(99) 0.
F4 F1- 0.00960(112) 0.03025(200) 0.03593(218) 0. 0.00656(127) 0.
F5 F1- 0.03010(111) 0.00978(70) 0.01591(82) 0.00046(71) 0.01364(79) 0.00295(63)
#End of TTdata_94460-ICSD