
#(C) 2018 by FIZ Karlsruhe - Leibniz Institute for Information Infrastructure.  All rights reserved.
data_94491-ICSD
_database_code_ICSD 94491
_audit_creation_date 2003-10-01
_chemical_name_systematic 'Lithium neodymium bis(molybdate)'
_chemical_formula_structural '(Li Nd) (Mo O4)2'
_chemical_formula_sum 'Li1 Mo2 Nd1 O8'
_chemical_name_structure_type Scheelite-CaWO4
_exptl_crystal_density_diffrn 4.97
_publ_section_title

;
The crystal structures of phenacite-type Li2 (Mo O4), and scheelite-type Li Y
(Mo O4)2 and Li Nd (Mo O4)2
;
loop_
_citation_id
_citation_journal_full
_citation_year
_citation_journal_volume
_citation_page_first
_citation_page_last
_citation_journal_id_ASTM
primary 'Zeitschrift fuer Kristallographie (1979-2010)' 2001 216 449 454 ZEKRDZ
loop_
_publ_author_name
'Kolitsch, U.'
_cell_length_a 5.243(1)
_cell_length_b 5.243(1)
_cell_length_c 11.440(2)
_cell_angle_alpha 90
_cell_angle_beta 90
_cell_angle_gamma 90
_cell_volume 314.47
_cell_formula_units_Z 2
_symmetry_space_group_name_H-M 'I 41/a Z'
_symmetry_Int_Tables_number 88
_refine_ls_R_factor_all 0.0272
loop_
_symmetry_equiv_pos_site_id
_symmetry_equiv_pos_as_xyz
1 '-y+3/4, x+3/4, -z+3/4'
2 'y+1/4, -x+3/4, -z+3/4'
3 'x, y+1/2, -z'
4 '-x, -y, -z'
5 'y+1/4, -x+1/4, z+1/4'
6 '-y+3/4, x+1/4, z+1/4'
7 '-x, -y+1/2, z'
8 'x, y, z'
9 '-y+1/4, x+1/4, -z+1/4'
10 'y+3/4, -x+1/4, -z+1/4'
11 'x+1/2, y, -z+1/2'
12 '-x+1/2, -y+1/2, -z+1/2'
13 'y+3/4, -x+3/4, z+3/4'
14 '-y+1/4, x+3/4, z+3/4'
15 '-x+1/2, -y, z+1/2'
16 'x+1/2, y+1/2, z+1/2'
loop_
_atom_type_symbol
_atom_type_oxidation_number
Nd3+ 3
Li1+ 1
Mo6+ 6
O2- -2
loop_
_atom_site_label
_atom_site_type_symbol
_atom_site_symmetry_multiplicity
_atom_site_Wyckoff_symbol
_atom_site_fract_x
_atom_site_fract_y
_atom_site_fract_z
_atom_site_B_iso_or_equiv
_atom_site_occupancy
_atom_site_attached_hydrogens
Nd1 Nd3+ 4 b 0 0.25 0.625 0.0101(4) 0.503(2) 0
Li1 Li1+ 4 b 0 0.25 0.625 0.0101(4) 0.497(2) 0
Mo1 Mo6+ 4 a 0.5 0.75 0.625 0.0110(4) 1. 0
O1 O2- 16 f 0.7427(5) 0.6018(5) 0.5402(2) 0.0175(8) 1. 0
loop_
_atom_site_aniso_label
_atom_site_aniso_type_symbol
_atom_site_aniso_U_11
_atom_site_aniso_U_22
_atom_site_aniso_U_33
_atom_site_aniso_U_12
_atom_site_aniso_U_13
_atom_site_aniso_U_23
Nd1 Nd3+ 0.0105(5) 0.0105(5) 0.0094(5) 0. 0. 0.
Li1 Li1+ 0.0105(5) 0.0105(5) 0.0094(5) 0. 0. 0.
Mo1 Mo6+ 0.0101(4) 0.0101(4) 0.0129(5) 0. 0. 0.
O1 O2- 0.0205(14) 0.0154(14) 0.0166(13) 0.0020(10) 0.0041(10) 0.0025(11)
#End of TTdata_94491-ICSD