
#(C) 2019 by FIZ Karlsruhe - Leibniz Institute for Information Infrastructure.  All rights reserved.
data_94730-ICSD
_database_code_ICSD 94730
_audit_creation_date 2003-10-01
_chemical_name_systematic 'Disodium tecto-beryllotetrasilicate tetrahydrate'
_chemical_formula_structural 'Na2 (Be Si4 O10) (H2 O)4'
_chemical_formula_sum 'H8 Be1 Na2 O14 Si4'
_chemical_name_mineral Nabesite
_exptl_crystal_density_diffrn 2.25
_publ_section_title

;
Nabesite, Na2 Be Si4 O10 * 4(H2 O), a new mineral species from the Ilimaussaq
alkaline complex, South Greenland
;
loop_
_citation_id
_citation_journal_full
_citation_year
_citation_journal_volume
_citation_page_first
_citation_page_last
_citation_journal_id_ASTM
primary 'Canadian Mineralogist' 2002 40 173 181 CAMIA6
loop_
_publ_author_name
'Petersen, O.V.'
'Giester, G.'
'Brandstaetter, F.'
'Niedermayr, G.'
_cell_length_a 9.748(1)
_cell_length_b 10.133(1)
_cell_length_c 11.954(2)
_cell_angle_alpha 90
_cell_angle_beta 90
_cell_angle_gamma 90
_cell_volume 1180.77
_cell_formula_units_Z 4
_symmetry_space_group_name_H-M 'P 21 21 21'
_symmetry_Int_Tables_number 19
_refine_ls_R_factor_all 0.028
loop_
_symmetry_equiv_pos_site_id
_symmetry_equiv_pos_as_xyz
1 '-x, y+1/2, -z+1/2'
2 'x+1/2, -y+1/2, -z'
3 '-x+1/2, -y, z+1/2'
4 'x, y, z'
loop_
_atom_type_symbol
_atom_type_oxidation_number
Na1+ 1
Be2+ 2
Si4+ 4
O2- -2
H1+ 1
loop_
_atom_site_label
_atom_site_type_symbol
_atom_site_symmetry_multiplicity
_atom_site_Wyckoff_symbol
_atom_site_fract_x
_atom_site_fract_y
_atom_site_fract_z
_atom_site_B_iso_or_equiv
_atom_site_occupancy
_atom_site_attached_hydrogens
Na1 Na1+ 4 a 0.02823(8) 0.19660(8) 0.81506(7) 0.02878(16) 1. 0
Na2 Na1+ 4 a 0.37372(12) 0.25369(9) 0.73922(9) 0.0447(2) 1. 0
Be1 Be2+ 4 a 0.24232(15) 0.26224(16) 0.25678(12) 0.0084(2) 1. 0
Si1 Si4+ 4 a 0.08393(3) 0.35478(3) 0.06419(3) 0.00750(6) 1. 0
Si2 Si4+ 4 a 0.39961(3) 0.36283(3) 0.44722(3) 0.00765(6) 1. 0
Si3 Si4+ 4 a 0.29128(3) 0.14866(3) 0.03408(3) 0.00839(6) 1. 0
Si4 Si4+ 4 a 0.20023(3) 0.14856(3) 0.47842(3) 0.00781(6) 1. 0
O1 O2- 4 a 0.11930(10) 0.34407(10) 0.19374(7) 0.01217(15) 1. 0
O2 O2- 4 a 0.12092(13) 0.49694(9) 0.01041(9) 0.01716(19) 1. 0
O3 O2- 4 a -.07946(10) 0.32732(10) 0.04934(9) 0.01433(17) 1. 0
O4 O2- 4 a 0.16731(10) 0.24433(9) -.00928(8) 0.01126(15) 1. 0
O5 O2- 4 a 0.34741(10) 0.36353(9) 0.32118(8) 0.01214(15) 1. 0
O6 O2- 4 a 0.56197(10) 0.32609(11) 0.44915(9) 0.01601(18) 1. 0
O7 O2- 4 a 0.31580(9) 0.25353(9) 0.52237(7) 0.01135(15) 1. 0
O8 O2- 4 a 0.32791(10) 0.17820(10) 0.16101(8) 0.01294(16) 1. 0
O9 O2- 4 a 0.24094(11) -.00340(8) 0.01423(9) 0.01378(17) 1. 0
O10 O2- 4 a 0.17608(11) 0.15933(10) 0.34733(8) 0.01483(17) 1. 0
O11 O2- 4 a 0.22056(17) 0.07549(13) 0.76168(11) 0.0277(3) 1. 0
O12 O2- 4 a 0.16099(19) 0.37520(14) 0.73814(13) 0.0316(3) 1. 0
O13 O2- 4 a -.05881(17) 0.02080(17) 0.94934(15) 0.0379(3) 1. 0
O14 O2- 4 a 0.47439(19) 0.44438(17) 0.80888(15) 0.0394(4) 1. 0
H1 H1+ 4 a 0.249(4) 0.009(4) 0.807(3) 0.066(10) 1. 0
H2 H1+ 4 a 0.209(4) 0.049(4) 0.689(3) 0.067(11) 1. 0
H3 H1+ 4 a 0.171(3) 0.442(3) 0.759(3) 0.045(8) 1. 0
H4 H1+ 4 a 0.095(4) 0.383(4) 0.699(3) 0.059(10) 1. 0
H5 H1+ 4 a -0.077(3) 0.029(3) 0.0225(18) 0.047(9) 1. 0
H6 H1+ 4 a 0.034(2) 0.011(4) 0.959(4) 0.102(15) 1. 0
H7 H1+ 4 a 0.446(4) 0.527(4) 0.788(3) 0.074(12) 1. 0
H8 H1+ 4 a 0.554(4) 0.404(4) 0.765(3) 0.075(12) 1. 0
loop_
_atom_site_aniso_label
_atom_site_aniso_type_symbol
_atom_site_aniso_U_11
_atom_site_aniso_U_22
_atom_site_aniso_U_33
_atom_site_aniso_U_12
_atom_site_aniso_U_13
_atom_site_aniso_U_23
Na1 Na1+ 0.0224(3) 0.0304(4) 0.0335(4) -0.0083(3) -0.0043(3) 0.0052(3)
Na2 Na1+ 0.0554(6) 0.0330(4) 0.0456(5) 0.0029(4) -0.0111(5) 0.0044(4)
Be1 Be2+ 0.0104(6) 0.0078(6) 0.0070(6) 0.0003(4) -0.0025(5) -0.0009(4)
Si1 Si4+ 0.00767(12) 0.00662(12) 0.00820(12) 0.00026(10) -0.00143(9) 0.00092(10)
Si2 Si4+ 0.00782(12) 0.00677(12) 0.00835(12) -0.00044(10) -0.00094(9)
-0.00128(9)
Si3 Si4+ 0.00822(12) 0.00770(12) 0.00926(12) -0.00077(10) 0.00010(9) 0.00122(10)
Si4 Si4+ 0.00819(12) 0.00702(12) 0.00821(12) 0.00068(10) -0.00033(9)
-0.00160(10)
O1 O2- 0.0143(4) 0.0137(4) 0.0085(3) -0.0007(3) -0.0033(3) 0.0047(3)
O2 O2- 0.0232(5) 0.0085(4) 0.0198(4) 0.0054(3) 0.0002(4) -0.0008(3)
O3 O2- 0.0082(3) 0.0194(4) 0.0153(4) 0.0012(3) -0.0033(3) 0.0002(3)
O4 O2- 0.0130(3) 0.0110(3) 0.0098(3) -0.0017(3) -0.0020(3) 0.0056(3)
O5 O2- 0.0147(4) 0.0123(3) 0.0094(3) 0.0009(3) -0.0039(3) -0.0040(3)
O6 O2- 0.0076(3) 0.0219(4) 0.0185(4) -0.0028(4) -0.0024(3) 0.0012(3)
O7 O2- 0.0133(4) 0.0102(3) 0.0105(3) 0.0011(3) -0.0013(3) -0.0054(3)
O8 O2- 0.0143(4) 0.0156(4) 0.0089(3) -0.0030(3) -0.0028(3) 0.0043(3)
O9 O2- 0.0161(4) 0.0064(3) 0.0189(4) -0.0025(3) 0.0021(3) 0.0000(3)
O10 O2- 0.0207(4) 0.0153(4) 0.0085(3) 0.0024(3) -0.0033(3) -0.0078(3)
O11 O2- 0.0474(7) 0.0182(5) 0.0176(5) -0.0026(4) -0.0078(5) 0.0091(5)
O12 O2- 0.0475(8) 0.0203(5) 0.0270(6) -0.0036(5) -0.0055(6) 0.0033(6)
O13 O2- 0.0354(8) 0.0387(8) 0.0396(9) -0.0047(7) -0.0076(7) -0.0034(6)
O14 O2- 0.0399(8) 0.0361(8) 0.0421(8) 0.0176(7) -0.0003(7) 0.0086(7)
#End of TTdata_94730-ICSD