
#(C) 2019 by FIZ Karlsruhe - Leibniz Institute for Information Infrastructure.  All rights reserved.
data_94744-ICSD
_database_code_ICSD 94744
_audit_creation_date 2003-10-01
_chemical_name_systematic 'Disodium dipotassium tetragadolinium diniobium oxide'
_chemical_formula_structural 'Na2 K2 Gd4 Nb2 O13'
_chemical_formula_sum 'Gd4 K2 Na2 Nb2 O13'
_chemical_name_structure_type K2Na2Gd4Nb2O13
_exptl_crystal_density_diffrn 5.6
_publ_section_title

;
Synthesis and crystal growth of two novel layered structures, Na K La Nb O5
and Na2 K2 Gd4 Nb2 O18, in molten hydroxide salts
;
loop_
_citation_id
_citation_journal_full
_citation_year
_citation_journal_volume
_citation_page_first
_citation_page_last
_citation_journal_id_ASTM
primary 'Crystal Growth & Design' 2002 2 83 85 CGDEFU
loop_
_publ_author_name
'Liao, J.-H.'
'Tsai, M.-C.'
_cell_length_a 24.060(3)
_cell_length_b 5.6464(6)
_cell_length_c 11.181(1)
_cell_angle_alpha 90
_cell_angle_beta 116.40(2)
_cell_angle_gamma 90
_cell_volume 1360.56
_cell_formula_units_Z 4
_symmetry_space_group_name_H-M 'C 1 2/c 1'
_symmetry_Int_Tables_number 15
_refine_ls_R_factor_all 0.049
loop_
_symmetry_equiv_pos_site_id
_symmetry_equiv_pos_as_xyz
1 'x, -y, z+1/2'
2 '-x, -y, -z'
3 '-x, y, -z+1/2'
4 'x, y, z'
5 'x+1/2, -y+1/2, z+1/2'
6 '-x+1/2, -y+1/2, -z'
7 '-x+1/2, y+1/2, -z+1/2'
8 'x+1/2, y+1/2, z'
loop_
_atom_type_symbol
_atom_type_oxidation_number
Gd3+ 3
Nb5+ 5
K1+ 1
Na1+ 1
O2- -2
loop_
_atom_site_label
_atom_site_type_symbol
_atom_site_symmetry_multiplicity
_atom_site_Wyckoff_symbol
_atom_site_fract_x
_atom_site_fract_y
_atom_site_fract_z
_atom_site_B_iso_or_equiv
_atom_site_occupancy
_atom_site_attached_hydrogens
Gd1 Gd3+ 8 f 0.43745(3) 0.04541(11) 0.55081(6) 0.0058(2) 1. 0
Gd2 Gd3+ 8 f 0.06232(3) 0.03625(11) 0.17211(6) 0.0057(2) 1. 0
Nb1 Nb5+ 8 f 0.34955(5) 0.0347(2) 0.21785(10) 0.0047(3) 1. 0
K1 K1+ 8 f 0.25074(14) 0.0550(5) 0.3666(3) 0.0171(7) 1. 0
Na1 Na1+ 8 f 0.1591(2) 0.0393(9) 0.0224(5) 0.0109(11) 1. 0
O1 O2- 8 f 0.3682(4) 0.2748(16) 0.3605(8) 0.0093(18) 1. 0
O2 O2- 8 f 0.3643(4) 0.2296(15) 0.6229(7) 0.0072(17) 1. 0
O3 O2- 8 f 0.1299(4) 0.3117(15) 0.1371(8) 0.0070(17) 1. 0
O4 O2- 8 f 0.2651(4) 0.0659(15) 0.1230(8) 0.0101(18) 1. 0
O5 O2- 4 e 0 0.248(2) 0.25 0.006(2) 1. 0
O6 O2- 8 f 0.4004(4) 0.7714(16) 0.6614(7) 0.0081(18) 1. 0
O7 O2- 8 f 0.5015(4) 0.2535(15) 0.4777(7) 0.0057(16) 1. 0
#End of TTdata_94744-ICSD