
#(C) 2018 by FIZ Karlsruhe - Leibniz Institute for Information Infrastructure.  All rights reserved.
data_95035-ICSD
_database_code_ICSD 95035
_audit_creation_date 2003-10-01
_chemical_name_systematic 'Lithium magnesium iron(III) oxide (0.8/0.4/4.8/8)'
_chemical_formula_structural
'(Li0.54 Fe0.45) (Li0.26 Fe2.4 Mg0.34) (Fe1.94 Mg0.06) O8'
_chemical_formula_sum 'Fe4.79 Li0.8 Mg0.4 O8'
_chemical_name_structure_type Spinel-LiFe5O8
_chemical_name_mineral Unnamed
_exptl_crystal_density_diffrn 4.7
_publ_section_title
'The change of crystal symmetry and cation ordering in Li - Mg ferrites'
loop_
_citation_id
_citation_journal_full
_citation_year
_citation_journal_volume
_citation_page_first
_citation_page_last
_citation_journal_id_ASTM
primary 'Journal of Alloys and Compounds' 2002 336 286 291 JALCEU
loop_
_publ_author_name
'Antic, B.'
'Rodic, D.'
'Nikolic, A.S.'
'Kacarevic-Popovic, Z.'
'Karanovic, Lj.'
_cell_length_a 8.3410(2)
_cell_length_b 8.3410(2)
_cell_length_c 8.3410(2)
_cell_angle_alpha 90
_cell_angle_beta 90
_cell_angle_gamma 90
_cell_volume 580.3
_cell_formula_units_Z 4
_symmetry_space_group_name_H-M 'P 43 3 2'
_symmetry_Int_Tables_number 212
_refine_ls_R_factor_all 0.042
loop_
_symmetry_equiv_pos_site_id
_symmetry_equiv_pos_as_xyz
1 'z+1/4, y+3/4, -x+3/4'
2 '-z+3/4, y+1/4, x+3/4'
3 'y+1/4, x+3/4, -z+3/4'
4 '-y+3/4, x+1/4, z+3/4'
5 'x+1/4, z+3/4, -y+3/4'
6 '-x+3/4, z+1/4, y+3/4'
7 'z+3/4, -y+3/4, x+1/4'
8 '-z+1/4, -y+1/4, -x+1/4'
9 'y+3/4, -x+3/4, z+1/4'
10 '-y+1/4, -x+1/4, -z+1/4'
11 'x+3/4, -z+3/4, y+1/4'
12 '-x+1/4, -z+1/4, -y+1/4'
13 '-y+1/2, -z, x+1/2'
14 '-y, z+1/2, -x+1/2'
15 'y+1/2, -z+1/2, -x'
16 'y, z, x'
17 'z+1/2, -x+1/2, -y'
18 '-z+1/2, -x, y+1/2'
19 '-z, x+1/2, -y+1/2'
20 'z, x, y'
21 '-x+1/2, -y, z+1/2'
22 '-x, y+1/2, -z+1/2'
23 'x+1/2, -y+1/2, -z'
24 'x, y, z'
loop_
_atom_type_symbol
_atom_type_oxidation_number
Li1+ 1
Fe3+ 3
Li1+ 1
Fe3+ 3
Mg2+ 2
Fe3+ 3
Mg2+ 2
O2- -2
loop_
_atom_site_label
_atom_site_type_symbol
_atom_site_symmetry_multiplicity
_atom_site_Wyckoff_symbol
_atom_site_fract_x
_atom_site_fract_y
_atom_site_fract_z
_atom_site_B_iso_or_equiv
_atom_site_occupancy
_atom_site_attached_hydrogens
Li1 Li1+ 4 b 0.625 0.625 0.625 0.4(2) 0.54(1) 0
Fe1 Fe3+ 4 b 0.625 0.625 0.625 0.4(2) 0.45(1) 0
Li2 Li1+ 12 d 0.125 0.3699(2) 0.8801(2) 0.56(6) 0.0867(30) 0
Fe2 Fe3+ 12 d 0.125 0.3699(2) 0.8801(2) 0.56(6) 0.800(3) 0
Mg1 Mg2+ 12 d 0.125 0.3699(2) 0.8801(2) 0.56(6) 0.1133(67) 0
Fe3 Fe3+ 8 c -0.0018(3) -0.0018(3) -0.0018(3) 0.38(4) 0.97(1) 0
Mg2 Mg2+ 8 c -0.0018(3) -0.0018(3) -0.0018(3) 0.38(4) 0.03(1) 0
O1 O2- 8 c 0.3827(9) 0.3827(9) 0.3827(9) 1.0(3) 1. 0
O2 O2- 24 e 0.1180(9) 0.1245(7) 0.3800(7) 0.8(1) 1. 0
#End of TTdata_95035-ICSD