
#(C) 2019 by FIZ Karlsruhe - Leibniz Institute for Information Infrastructure.  All rights reserved.
data_952-ICSD
_database_code_ICSD 952
_audit_creation_date 1980-01-01
_audit_update_record 2011-08-01
_chemical_name_systematic 'Sodium thiocyanate'
_chemical_formula_structural 'Na (S C N)'
_chemical_formula_sum 'C1 N1 Na1 S1'
_chemical_name_structure_type NaSCN
_exptl_crystal_density_diffrn 1.79
_cell_measurement_temperature 150.
_publ_section_title

;
The experimental charge distribution in sulfur-containing molecules. Structure
determination and electron density study of Na S C N at reduced temperatures
;
loop_
_citation_id
_citation_journal_full
_citation_year
_citation_journal_volume
_citation_page_first
_citation_page_last
_citation_journal_id_ASTM
primary

;
Acta Crystallographica, Section B: Structural Crystallography and Crystal
Chemistry
; 1977 33 1534 1542 ACBCAR
loop_
_publ_author_name
'Bats, J.W.'
'Coppens, P.'
'Kvick, A.'
_cell_length_a 4.047(1)
_cell_length_b 5.604(1)
_cell_length_c 13.279(2)
_cell_angle_alpha 90.
_cell_angle_beta 90.
_cell_angle_gamma 90.
_cell_volume 301.16
_cell_formula_units_Z 4
_symmetry_space_group_name_H-M 'P m c n'
_symmetry_Int_Tables_number 62
_refine_ls_R_factor_all 0.034
loop_
_symmetry_equiv_pos_site_id
_symmetry_equiv_pos_as_xyz
1 'x, -y+1/2, z+1/2'
2 '-x+1/2, y, z'
3 'x+1/2, y+1/2, -z+1/2'
4 '-x, -y, -z'
5 '-x, y+1/2, -z+1/2'
6 'x+1/2, -y, -z'
7 '-x+1/2, -y+1/2, z+1/2'
8 'x, y, z'
loop_
_atom_type_symbol
_atom_type_oxidation_number
Na1+ 1
S2- -2
C4+ 4
N3- -3
loop_
_atom_site_label
_atom_site_type_symbol
_atom_site_symmetry_multiplicity
_atom_site_Wyckoff_symbol
_atom_site_fract_x
_atom_site_fract_y
_atom_site_fract_z
_atom_site_B_iso_or_equiv
_atom_site_occupancy
_atom_site_attached_hydrogens
Na1 Na1+ 4 c 0.25 -.06195(8) 0.39253(3) . 1. 0
S1 S2- 4 c 0.25 0.11839(3) 0.18590(1) . 1. 0
C1 C4+ 4 c 0.25 -.12049(13) 0.11421(5) . 1. 0
N1 N3- 4 c 0.25 -.29245(14) 0.06432(5) . 1. 0
loop_
_atom_site_aniso_label
_atom_site_aniso_type_symbol
_atom_site_aniso_U_11
_atom_site_aniso_U_22
_atom_site_aniso_U_33
_atom_site_aniso_U_12
_atom_site_aniso_U_13
_atom_site_aniso_U_23
Na1 Na1+ 0.02168(17) 0.01852(15) 0.01472(13) 0 0 0.00082(11)
S1 S2- 0.02386(10) 0.01285(7) 0.01404(7) 0 0 -.00075(5)
C1 C4+ 0.01580(24) 0.01327(23) 0.01384(21) 0 0 0.00059(17)
N1 N3- 0.02804(33) 0.01593(24) 0.01682(23) 0 0 -.00231(19)
#End of TTdata_952-ICSD