
#(C) 2019 by FIZ Karlsruhe - Leibniz Institute for Information Infrastructure.  All rights reserved.
data_95549-ICSD
_database_code_ICSD 95549
_audit_creation_date 2003-10-01
_audit_update_record 2006-04-01
_chemical_name_systematic 'Sodium carbonate - gamma'
_chemical_formula_structural 'Na2 (C O3)'
_chemical_formula_sum 'C1 Na2 O3'
_chemical_name_structure_type Na2CO3(HT)
_chemical_name_mineral Natrite
_exptl_crystal_density_diffrn 2.55
_publ_section_title 'Crystal structure of natrite, gamma-(Na2 C O3)'
loop_
_citation_id
_citation_journal_full
_citation_year
_citation_journal_volume
_citation_page_first
_citation_page_last
_citation_journal_id_ASTM
primary 'Neues Jahrbuch fuer Mineralogie, Monatshefte' 2002 2002 85 96 NJMMAW
loop_
_publ_author_name
'Zubkova, N.V.'
'Pushcharovskii, D.Yu.'
'Ivaldi, G.'
'Ferraris, G.'
'Pekov, I.V.'
'Chukanov, N.V.'
_cell_length_a 8.905(4)
_cell_length_b 5.237(3)
_cell_length_c 6.045(2)
_cell_angle_alpha 90
_cell_angle_beta 101.32(3)
_cell_angle_gamma 90
_cell_volume 276.43
_cell_formula_units_Z 4
_symmetry_space_group_name_H-M 'C 1 2/m 1'
_symmetry_Int_Tables_number 12
_refine_ls_R_factor_all 0.029
loop_
_symmetry_equiv_pos_site_id
_symmetry_equiv_pos_as_xyz
1 '-x, y, -z'
2 '-x, -y, -z'
3 'x, -y, z'
4 'x, y, z'
5 '-x+1/2, y+1/2, -z'
6 '-x+1/2, -y+1/2, -z'
7 'x+1/2, -y+1/2, z'
8 'x+1/2, y+1/2, z'
loop_
_atom_type_symbol
_atom_type_oxidation_number
Na1+ 1
C4+ 4
O2- -2
loop_
_atom_site_label
_atom_site_type_symbol
_atom_site_symmetry_multiplicity
_atom_site_Wyckoff_symbol
_atom_site_fract_x
_atom_site_fract_y
_atom_site_fract_z
_atom_site_B_iso_or_equiv
_atom_site_occupancy
_atom_site_attached_hydrogens
Na1 Na1+ 2 a 0 0 0 2.27(2) 1. 0
Na2 Na1+ 2 c 0 0 0.5 2.46(2) 1. 0
Na3 Na1+ 4 i 0.17047(6) 0.5 0.7478(1) 3.22(2) 1. 0
C1 C4+ 4 i 0.1645(2) 0.5 0.2497(2) 1.85(5) 1. 0
O1 O2- 8 j 0.1023(1) 0.2944(2) 0.2859(1) 4.58(3) 1. 0
O2 O2- 4 i 0.2894(1) 0.5 0.1781(1) 1.81(2) 1. 0
#End of TTdata_95549-ICSD