
#(C) 2019 by FIZ Karlsruhe - Leibniz Institute for Information Infrastructure.  All rights reserved.
data_95685-ICSD
_database_code_ICSD 95685
_audit_creation_date 2003-10-01
_chemical_name_systematic 'Trisodium tecto-vanado(III)tetrasilicate hydrate'
_chemical_formula_structural 'Na3 (V Si4 O11) (H2 O)'
_chemical_formula_sum 'H2 Na3 O12 Si4 V1'
_exptl_crystal_density_diffrn 2.69
_publ_section_title

;
Synthesis and characterization of an open framework vanadium silicate
(VSH-16Na)
;
loop_
_citation_id
_citation_journal_full
_citation_year
_citation_journal_volume
_citation_page_first
_citation_page_last
_citation_journal_id_ASTM
primary 'Solid State Sciences' 2002 4 1193 1198 SSSCFJ
loop_
_publ_author_name
'Huang, J.'
'Wang, X.-Q.'
'Liu, L.-M.'
'Jacobson, A.J.'
_cell_length_a 7.5238(14)
_cell_length_b 8.755(2)
_cell_length_c 9.055(2)
_cell_angle_alpha 62.486(3)
_cell_angle_beta 83.998(3)
_cell_angle_gamma 88.692(3)
_cell_volume 525.88
_cell_formula_units_Z 2
_symmetry_space_group_name_H-M 'P -1'
_symmetry_Int_Tables_number 2
_refine_ls_R_factor_all 0.0433
loop_
_symmetry_equiv_pos_site_id
_symmetry_equiv_pos_as_xyz
1 '-x, -y, -z'
2 'x, y, z'
loop_
_atom_type_symbol
_atom_type_oxidation_number
V3+ 3
Si4+ 4
Na1+ 1
O2- -2
H1+ 1
loop_
_atom_site_label
_atom_site_type_symbol
_atom_site_symmetry_multiplicity
_atom_site_Wyckoff_symbol
_atom_site_fract_x
_atom_site_fract_y
_atom_site_fract_z
_atom_site_B_iso_or_equiv
_atom_site_occupancy
_atom_site_attached_hydrogens
V1 V3+ 1 c 0 0.5 0 0.009(1) 1. 0
V2 V3+ 1 d 0.5 0 0 0.009(1) 1. 0
Si1 Si4+ 2 i 0.2230(2) 0.2896(2) 0.3188(2) 0.009(1) 1. 0
Si2 Si4+ 2 i 0.1148(2) 0.0925(2) 0.1542(2) 0.009(1) 1. 0
Si3 Si4+ 2 i 0.3946(2) 0.7461(2) 0.8315(2) 0.009(1) 1. 0
Si4 Si4+ 2 i 0.2626(2) 0.0909(2) 0.6951(2) 0.009(1) 1. 0
Na1 Na1+ 2 i 0.1438(3) 0.7355(3) 0.1391(3) 0.022(1) 1. 0
Na2 Na1+ 2 i 0.3408(3) 0.8541(3) 0.4276(3) 0.023(1) 1. 0
Na3 Na1+ 2 i 0.3681(3) 0.3956(3) 0.8266(3) 0.018(1) 1. 0
O1 O2- 2 i 0.2248(5) 0.2489(5) 0.5144(5) 0.014(1) 1. 0
O2 O2- 2 i 0.0963(5) 0.2806(5) 0.0007(4) 0.010(1) 1. 0
O3 O2- 2 i 0.3976(4) 0.1593(4) 0.7778(5) 0.011(1) 1. 0
O4 O2- 2 i 0.4319(5) 0.7865(4) -0.0191(5) 0.012(1) 1. 0
O5 O2- 2 i 0.0963(5) 0.4456(4) 0.2283(5) 0.011(1) 1. 0
O6 O2- 2 i 0.4319(5) 0.3324(5) 0.2363(5) 0.016(1) 1. 0
O7 O2- 2 i 0.2675(4) -0.0284(4) 0.1355(5) 0.010(1) 1. 0
O8 O2- 2 i -0.0708(5) -0.0217(5) 0.1950(5) 0.014(1) 1. 0
O9 O2- 2 i 0.1534(5) 0.1122(4) 0.3218(5) 0.012(1) 1. 0
O10 O2- 2 i 0.3562(5) 0.9329(4) 0.6651(5) 0.012(1) 1. 0
O11 O2- 2 i 0.2306(5) 0.6157(5) 0.8755(5) 0.013(1) 1. 0
O12 O2- 2 i 0.2083(6) 0.5730(6) 0.5550(6) 0.030(2) 1. 0
H1 H1+ 2 i 0.1048(52) 0.5467(70) 0.6318(61) 0.026(18) 1. 0
H2 H1+ 2 i 0.1713(88) 0.6076(85) 0.4476(45) 0.049(25) 1. 0
#End of TTdata_95685-ICSD