
#(C) 2019 by FIZ Karlsruhe - Leibniz Institute for Information Infrastructure.  All rights reserved.
data_95695-ICSD
_database_code_ICSD 95695
_audit_creation_date 2004-04-01
_chemical_name_systematic 'Sodium strontium tantalum oxide (0.78/0.19/1/3)'
_chemical_formula_structural '(Na0.78 Sr0.19) (Ta O3)'
_chemical_formula_sum 'Na0.78 O3 Sr0.19 Ta1'
_chemical_name_structure_type Perovskite-GdFeO3
_exptl_crystal_density_diffrn 7.21
_publ_section_title
'A neutron powder diffraction study of Na1-x Srx Ta O3 (x = 0.2 and 0.3)'
loop_
_citation_id
_citation_journal_full
_citation_year
_citation_journal_volume
_citation_page_first
_citation_page_last
_citation_journal_id_ASTM
primary 'Solid State Sciences' 2002 4 191 195 SSSCFJ
loop_
_publ_author_name
'Istomin, S.Ya.'
'Svensson, G.'
'Koehler, J.'
_cell_length_a 5.554(1)
_cell_length_b 7.8809(6)
_cell_length_c 5.544(1)
_cell_angle_alpha 90
_cell_angle_beta 90
_cell_angle_gamma 90
_cell_volume 242.66
_cell_formula_units_Z 4
_symmetry_space_group_name_H-M 'P n m a'
_symmetry_Int_Tables_number 62
_refine_ls_R_factor_all 0.0403
loop_
_symmetry_equiv_pos_site_id
_symmetry_equiv_pos_as_xyz
1 'x+1/2, y, -z+1/2'
2 'x, -y+1/2, z'
3 '-x+1/2, y+1/2, z+1/2'
4 '-x, -y, -z'
5 '-x+1/2, -y, z+1/2'
6 '-x, y+1/2, -z'
7 'x+1/2, -y+1/2, -z+1/2'
8 'x, y, z'
loop_
_atom_type_symbol
_atom_type_oxidation_number
Na1+ 1
Sr2+ 2
Ta4+ 4.836
O2- -2
loop_
_atom_site_label
_atom_site_type_symbol
_atom_site_symmetry_multiplicity
_atom_site_Wyckoff_symbol
_atom_site_fract_x
_atom_site_fract_y
_atom_site_fract_z
_atom_site_B_iso_or_equiv
_atom_site_occupancy
_atom_site_attached_hydrogens
Na1 Na1+ 4 c -0.007(3) 0.25 -0.005(4) 1.20(6) 0.776(8) 0
Sr1 Sr2+ 4 c -0.007(3) 0.25 -0.005(4) 1.20(6) 0.194(2) 0
Ta1 Ta4+ 4 b 0 0 0.5 0.20(4) 1. 0
O1 O2- 4 c 0.010(2) 0.25 0.468(1) 1.2(1) 1. 0
O2 O2- 8 d 0.280(1) -0.0157(6) 0.281(1) 0.81(5) 1. 0
#End of TTdata_95695-ICSD