
#(C) 2018 by FIZ Karlsruhe - Leibniz Institute for Information Infrastructure.  All rights reserved.
data_95781-ICSD
_database_code_ICSD 95781
_audit_creation_date 2004-04-01
_chemical_name_systematic 'Heptaaquadilithium dodecahydro-closo-dodecaborat'
_chemical_formula_structural '(Li2 (H2 O)7) (B12 H12)'
_chemical_formula_sum 'H26 B12 Li2 O7'
_exptl_crystal_density_diffrn 1.14
_publ_section_title

;
Untersuchungen zur Kristallstruktur von Lithium-dodecahydro-closo-dodecaborat
aus waessriger Loesung: Li2 (H2 O)7 (B12 H12)
;
loop_
_citation_id
_citation_journal_full
_citation_year
_citation_journal_volume
_citation_page_first
_citation_page_last
_citation_journal_id_ASTM
primary 'Zeitschrift fuer Anorganische und Allgemeine Chemie (1950) (DE)' 2002
628 1411 1418 ZAACAB
loop_
_publ_author_name
'Tiritiris, I.'
'Schleid, T.'
_cell_length_a 12.1518(7)
_cell_length_b 9.3431(5)
_cell_length_c 14.4403(9)
_cell_angle_alpha 90
_cell_angle_beta 90
_cell_angle_gamma 90
_cell_volume 1639.49
_cell_formula_units_Z 4
_symmetry_space_group_name_H-M 'C m c m'
_symmetry_Int_Tables_number 63
_refine_ls_R_factor_all 0.037
loop_
_symmetry_equiv_pos_site_id
_symmetry_equiv_pos_as_xyz
1 '-x, y, -z+1/2'
2 '-x, -y, z+1/2'
3 '-x, y, z'
4 '-x, -y, -z'
5 'x, -y, z+1/2'
6 'x, y, -z+1/2'
7 'x, -y, -z'
8 'x, y, z'
9 '-x+1/2, y+1/2, -z+1/2'
10 '-x+1/2, -y+1/2, z+1/2'
11 '-x+1/2, y+1/2, z'
12 '-x+1/2, -y+1/2, -z'
13 'x+1/2, -y+1/2, z+1/2'
14 'x+1/2, y+1/2, -z+1/2'
15 'x+1/2, -y+1/2, -z'
16 'x+1/2, y+1/2, z'
loop_
_atom_type_symbol
_atom_type_oxidation_number
Li1+ 1
O2- -2
B0+ 0.833
H1- -1
H1+ 1
loop_
_atom_site_label
_atom_site_type_symbol
_atom_site_symmetry_multiplicity
_atom_site_Wyckoff_symbol
_atom_site_fract_x
_atom_site_fract_y
_atom_site_fract_z
_atom_site_B_iso_or_equiv
_atom_site_occupancy
_atom_site_attached_hydrogens
Li1 Li1+ 8 g 0.3629(2) 0.4501(3) 0.25 . 1. 0
O1 O2- 4 c 0 0.8297(2) 0.25 . 1. 0
O2 O2- 8 g 0.2718(1) 0.8408(1) 0.25 . 1. 0
O3 O2- 16 h 0.1363(1) 0.0593(1) 0.13557(9) . 1. 0
B1 B0+ 8 f 0 0.3200(2) 0.51633(9) . 1. 0
B2 B0+ 8 f 0 0.3973(2) 0.40358(9) . 1. 0
B3 B0+ 16 h 0.42677(8) 0.0621(1) 0.40896(6) . 1. 0
B4 B0+ 16 h 0.11867(8) 0.4127(1) 0.47519(6) . 1. 0
H1 H1- 8 f 0 0.206(2) 0.525(1) 0.0532(39) 1. 0
H2 H1- 8 f 0 0.331(2) 0.339(1) 0.0606(42) 1. 0
H3 H1- 16 h 0.3806(9) 0.102(1) 0.3504(7) 0.0515(28) 1. 0
H4 H1- 16 h 0.1934(9) 0.358(1) 0.4626(7) 0.0555(28) 1. 0
H5 H1+ 8 f 0 0.776(5) 0.295(4) 0.231(16) 1. 0
H6 H1+ 16 h 0.309(3) 0.847(4) 0.284(3) 0.218(14) 1. 0
H7 H1+ 16 h 0.104(3) 0.101(4) 0.122(3) 0.2007(17) 1. 0
H8 H1+ 16 h 0.198(3) 0.033(4) 0.096(3) 0.203(12) 1. 0
loop_
_atom_site_aniso_label
_atom_site_aniso_type_symbol
_atom_site_aniso_U_11
_atom_site_aniso_U_22
_atom_site_aniso_U_33
_atom_site_aniso_U_12
_atom_site_aniso_U_13
_atom_site_aniso_U_23
Li1 Li1+ 0.0462(13) 0.0626(15) 0.0788(17) 0.0005(11) 0. 0.
O1 O2- 0.0507(8) 0.0427(7) 0.0607(8) 0. 0. 0.
O2 O2- 0.0567(6) 0.0729(7) 0.0676(7) 0.0048(5) 0. 0.
O3 O2- 0.0731(6) 0.0833(7) 0.0961(8) 0.0142(5) 0.0061(5) 0.0270(5)
B1 B0+ 0.0457(7) 0.0385(7) 0.0447(7) 0. 0. 0.0053(545)
B2 B0+ 0.0451(7) 0.0479(7) 0.0350(6) 0. 0. -0.0018(5)
B3 B0+ 0.0392(5) 0.0486(5) 0.0362(5) 0.0013(4) -0.0028(4) 0.0083(4)
B4 B0+ 0.0382(5) 0.0479(6) 0.0397(5) 0.0049(4) 0.0025(4) 0.0040(4)
#End of TTdata_95781-ICSD