
#(C) 2019 by FIZ Karlsruhe - Leibniz Institute for Information Infrastructure.  All rights reserved.
data_9583-ICSD
_database_code_ICSD 9583
_audit_creation_date 1980-01-01
_audit_update_record 2007-08-01
_chemical_name_systematic 'Sodium potassium tecto-tetraalumododecasilicate *'
_chemical_formula_structural '(Na0.56 K3.44) (Al4 Si12 O32)'
_chemical_formula_sum 'Al4 K3.44 Na0.56 O32 Si12'
_chemical_name_structure_type Feldspar#-(MO,C12/m1)-KAlSi3O8
_chemical_name_mineral Sanidine
_exptl_crystal_density_diffrn 2.55
_cell_measurement_temperature 298.
_publ_section_title
'Refinement of the crystal structure of sanidine at 25 and 400 C'
loop_
_citation_id
_citation_journal_full
_citation_year
_citation_journal_volume
_citation_page_first
_citation_page_last
_citation_journal_id_ASTM
primary 'Year Book - Carnegie Institution of Washington' 1974 73 539 544 CIWYAO
loop_
_publ_author_name
'Ohashi, Y.'
'Finger, L.W.'
_cell_length_a 8.543(3)
_cell_length_b 13.021(5)
_cell_length_c 7.183(1)
_cell_angle_alpha 90.
_cell_angle_beta 115.98(3)
_cell_angle_gamma 90.
_cell_volume 718.28
_cell_formula_units_Z 1
_symmetry_space_group_name_H-M 'C 1 2/m 1'
_symmetry_Int_Tables_number 12
_refine_ls_R_factor_all 0.034
loop_
_symmetry_equiv_pos_site_id
_symmetry_equiv_pos_as_xyz
1 '-x, y, -z'
2 '-x, -y, -z'
3 'x, -y, z'
4 'x, y, z'
5 '-x+1/2, y+1/2, -z'
6 '-x+1/2, -y+1/2, -z'
7 'x+1/2, -y+1/2, z'
8 'x+1/2, y+1/2, z'
loop_
_atom_type_symbol
_atom_type_oxidation_number
Na1+ 1
K1+ 1
Al3+ 3
Si4+ 4
O2- -2
loop_
_atom_site_label
_atom_site_type_symbol
_atom_site_symmetry_multiplicity
_atom_site_Wyckoff_symbol
_atom_site_fract_x
_atom_site_fract_y
_atom_site_fract_z
_atom_site_B_iso_or_equiv
_atom_site_occupancy
_atom_site_attached_hydrogens
Na1 Na1+ 4 i 0.2840(1) 0 0.1371(1) 2.15 0.14 0
K1 K1+ 4 i 0.2840(1) 0 0.1371(1) 2.15 0.86 0
Al1 Al3+ 8 j 0.0093(1) 0.1844(1) 0.2238(1) 0.83 0.32 0
Al2 Al3+ 8 j 0.7076(1) 0.1177(1) 0.3443(1) 0.83 0.18 0
Si1 Si4+ 8 j 0.0093(1) 0.1844(1) 0.2238(1) 0.83 0.68 0
Si2 Si4+ 8 j 0.7076(1) 0.1177(1) 0.3443(1) 0.83 0.82 0
O1 O2- 4 g 0 0.1461(2) 0 1.59 1. 0
O2 O2- 4 i 0.6340(3) 0 0.2855(3) 1.59 1. 0
O3 O2- 8 j 0.8277(2) 0.1454(1) 0.2278(2) 1.82 1. 0
O4 O2- 8 j 0.0338(2) 0.3098(1) 0.2577(2) 1.44 1. 0
O5 O2- 8 j 0.1812(2) 0.1264(1) 0.4052(2) 1.49 1. 0
#End of TTdata_9583-ICSD