
#(C) 2018 by FIZ Karlsruhe - Leibniz Institute for Information Infrastructure.  All rights reserved.
data_95908-ICSD
_database_code_ICSD 95908
_audit_creation_date 2004-04-01
_audit_update_record 2011-02-01
_chemical_name_systematic 'Strontium dilithium hexatitanate'
_chemical_formula_structural 'Sr Li2 (Ti6 O14)'
_chemical_formula_sum 'Li2 O14 Sr1 Ti6'
_chemical_name_structure_type Li2Sr(Ti6O14)
_exptl_crystal_density_diffrn 3.85
_publ_section_title

;
A new strontium lithium titanium oxide, Sr Li2 Ti6 O14: crystal growth and
structure determination
;
loop_
_citation_id
_citation_journal_full
_citation_year
_citation_journal_volume
_citation_page_first
_citation_page_last
_citation_journal_id_ASTM
primary 'Zeitschrift fuer Naturforschung, B: Chemical Sciences' 2002 57 512 518
ZNBSEN
loop_
_publ_author_name
'Koseva, I.'
'Peshev, P.'
'Pechev, S.'
'Gravereau, P.'
'Chaminade, J.P.'
_cell_length_a 16.570(5)
_cell_length_b 11.150(2)
_cell_length_c 11.458(2)
_cell_angle_alpha 90
_cell_angle_beta 90
_cell_angle_gamma 90
_cell_volume 2116.93
_cell_formula_units_Z 8
_symmetry_space_group_name_H-M 'C m c a'
_symmetry_Int_Tables_number 64
_refine_ls_R_factor_all 0.039
loop_
_symmetry_equiv_pos_site_id
_symmetry_equiv_pos_as_xyz
1 '-x, -y+1/2, z+1/2'
2 '-x, y+1/2, -z+1/2'
3 '-x, y, z'
4 '-x, -y, -z'
5 'x, y+1/2, -z+1/2'
6 'x, -y+1/2, z+1/2'
7 'x, -y, -z'
8 'x, y, z'
9 '-x+1/2, -y, z+1/2'
10 '-x+1/2, y, -z+1/2'
11 '-x+1/2, y+1/2, z'
12 '-x+1/2, -y+1/2, -z'
13 'x+1/2, y, -z+1/2'
14 'x+1/2, -y, z+1/2'
15 'x+1/2, -y+1/2, -z'
16 'x+1/2, y+1/2, z'
loop_
_atom_type_symbol
_atom_type_oxidation_number
Li1+ 1
Sr2+ 2
Ti4+ 4
O2- -2
loop_
_atom_site_label
_atom_site_type_symbol
_atom_site_symmetry_multiplicity
_atom_site_Wyckoff_symbol
_atom_site_fract_x
_atom_site_fract_y
_atom_site_fract_z
_atom_site_B_iso_or_equiv
_atom_site_occupancy
_atom_site_attached_hydrogens
Li1 Li1+ 16 g 0.1861(4) 0.2436(5) 0.1214(10) 0.0157(11) 1. 0
Sr1 Sr2+ 8 f 0 0.35157(3) 0.12272(4) 0.0101(11) 1. 0
Ti1 Ti4+ 8 e 0.25 0.49264(7) 0.25 0.0064(2) 1. 0
Ti2 Ti4+ 8 d 0.24214(4) 0.5 0 0.0066(2) 1. 0
Ti3 Ti4+ 16 g 0.10877(3) 0.12425(4) 0.36273(5) 0.0062(1) 1. 0
Ti4 Ti4+ 16 g 0.10747(2) 0.38215(4) 0.38389(5) 0.0064(1) 1. 0
O1 O2- 16 g 0.2366(1) 0.3823(2) 0.3779(2) 0.0064(3) 1. 0
O2 O2- 16 g 0.1323(1) 0.4947(2) 0.2491(2) 0.0073(5) 1. 0
O3 O2- 16 g 0.2343(1) 0.1141(2) 0.3721(2) 0.0057(3) 1. 0
O4 O2- 8 d 0.1297(2) 0 0.5 0.0081(6) 1. 0
O5 O2- 8 d 0.1335(2) 0 0 0.0079(6) 1. 0
O6 O2- 16 g 0.1079(1) 0.2514(2) 0.2612(2) 0.0075(5) 1. 0
O7 O2- 8 f 0 0.0828(3) 0.3784(3) 0.0084(4) 1. 0
O8 O2- 16 g 0.1077(1) 0.2478(2) 0.4842(2) 0.0074(5) 1. 0
O9 O2- 8 f 0 0.4104(3) 0.3655(3) 0.0097(5) 1. 0
loop_
_atom_site_aniso_label
_atom_site_aniso_type_symbol
_atom_site_aniso_U_11
_atom_site_aniso_U_22
_atom_site_aniso_U_33
_atom_site_aniso_U_12
_atom_site_aniso_U_13
_atom_site_aniso_U_23
Li1 Li1+ 0.017(2) 0.014(3) 0.017(3) 0.003(2) -0.001(3) -0.001(2)
Sr1 Sr2+ 0.0105(2) 0.0100(2) 0.0097(2) 0. 0. 0.0000(1)
Ti1 Ti4+ 0.0063(2) 0.0075(4) 0.0053(4) 0. 0.0000(2) 0.
Ti2 Ti4+ 0.0061(2) 0.0079(4) 0.0058(4) 0. 0. -0.0001(2)
Ti3 Ti4+ 0.0056(2) 0.0063(2) 0.0068(2) 0.0003(1) 0.0001(1) -0.0004(2)
Ti4 Ti4+ 0.0061(2) 0.0063(2) 0.0070(2) -0.0008(1) -0.0001(1) -0.0003(2)
O1 O2- 0.0069(6) 0.0055(7) 0.0069(8) 0.0000(5) -0.0007(7) -0.0008(8)
O2 O2- 0.0060(7) 0.0088(13) 0.0071(12) 0.0005(5) 0.0006(5) 0.0032(11)
O3 O2- 0.0074(6) 0.0048(7) 0.0050(8) -0.0002(5) -0.0008(7) 0.0021(8)
O4 O2- 0.0080(10) 0.0079(16) 0.0084(15) 0. 0. 0.0037(13)
O5 O2- 0.0063(9) 0.0068(15) 0.0106(15) 0. 0. 0.0029(13)
O6 O2- 0.0097(9) 0.0058(15) 0.0071(11) -0.0001(5) -0.0004(9) -0.0005(6)
O7 O2- 0.0046(9) 0.0080(11) 0.0125(12) 0. 0. -0.0010(13)
O8 O2- 0.0105(9) 0.0058(14) 0.0060(11) -0.0004(5) 0.0004(9) -0.0008(6)
O9 O2- 0.0060(9) 0.0103(12) 0.0127(15) 0. 0. 0.0024(13)
#End of TTdata_95908-ICSD