
#(C) 2018 by FIZ Karlsruhe - Leibniz Institute for Information Infrastructure.  All rights reserved.
data_95939-ICSD
_database_code_ICSD 95939
_audit_creation_date 2004-04-01
_chemical_name_systematic 'Lithium nitride (2.92/1)'
_chemical_formula_structural 'Li2.92 N'
_chemical_formula_sum 'Li2.92 N1'
_chemical_name_structure_type Li3N
_exptl_crystal_density_diffrn 1.27
_cell_measurement_temperature 298.
_publ_section_title

;
Structure of lithium nitride and transition-metal-doped derivatives, Li3-x-y
Mx N (M = Ni, Cu): a powder neutron diffraction study
;
loop_
_citation_id
_citation_journal_full
_citation_year
_citation_journal_volume
_citation_page_first
_citation_page_last
_citation_journal_id_ASTM
primary 'Chemistry of Materials' 2002 14 2063 2070 CMATEX
loop_
_publ_author_name
'Gregory, D.H.'
'O'Meara, P.M.'
'Gordon, A.G.'
'Hodges, J.P.'
'Short, S.'
'Jorgensen, J.D.'
_cell_length_a 3.6576(1)
_cell_length_b 3.6576(1)
_cell_length_c 3.8735(1)
_cell_angle_alpha 90
_cell_angle_beta 90
_cell_angle_gamma 120
_cell_volume 44.88
_cell_formula_units_Z 1
_symmetry_space_group_name_H-M 'P 6/m m m'
_symmetry_Int_Tables_number 191
_refine_ls_R_factor_all 0.0262
loop_
_symmetry_equiv_pos_site_id
_symmetry_equiv_pos_as_xyz
1 '-x, -x+y, -z'
2 'x-y, -y, -z'
3 'y, x, -z'
4 '-x+y, -x, -z'
5 '-y, x-y, -z'
6 'x, y, -z'
7 'x, x-y, -z'
8 '-x+y, y, -z'
9 '-y, -x, -z'
10 'x-y, x, -z'
11 'y, -x+y, -z'
12 '-x, -y, -z'
13 'x, x-y, z'
14 '-x+y, y, z'
15 '-y, -x, z'
16 'x-y, x, z'
17 'y, -x+y, z'
18 '-x, -y, z'
19 '-x, -x+y, z'
20 'x-y, -y, z'
21 'y, x, z'
22 '-x+y, -x, z'
23 '-y, x-y, z'
24 'x, y, z'
loop_
_atom_type_symbol
_atom_type_oxidation_number
Li1+ 1
N3- -3
loop_
_atom_site_label
_atom_site_type_symbol
_atom_site_symmetry_multiplicity
_atom_site_Wyckoff_symbol
_atom_site_fract_x
_atom_site_fract_y
_atom_site_fract_z
_atom_site_B_iso_or_equiv
_atom_site_occupancy
_atom_site_attached_hydrogens
Li1 Li1+ 1 b 0 0 0.5 . 1. 0
Li2 Li1+ 2 c 0.6667 0.3333 0 . 0.96(3) 0
N1 N3- 1 a 0 0 0 . 1. 0
loop_
_atom_site_aniso_label
_atom_site_aniso_type_symbol
_atom_site_aniso_U_11
_atom_site_aniso_U_22
_atom_site_aniso_U_33
_atom_site_aniso_U_12
_atom_site_aniso_U_13
_atom_site_aniso_U_23
Li1 Li1+ 0.031(2) 0.031(2) 0.027(2) 0.016(1) 0. 0.
Li2 Li1+ 0.022(1) 0.022(1) 0.044(3) 0.011(1) 0. 0.
N1 N3- 0.0097(3) 0.0097(3) 0.0130(5) 0.0048(2) 0. 0.
#End of TTdata_95939-ICSD