
#(C) 2019 by FIZ Karlsruhe - Leibniz Institute for Information Infrastructure.  All rights reserved.
data_96099-ICSD
_database_code_ICSD 96099
_audit_creation_date 2004-04-01
_chemical_name_systematic 'Disodium dihydrogendiphosphate(V)'
_chemical_formula_structural 'Na2 (H2 P2 O7)'
_chemical_formula_sum 'H2 Na2 O7 P2'
_chemical_name_structure_type H2Ag2P2O7
_exptl_crystal_density_diffrn 2.53
_publ_section_title

;
Refinement of crystal structure of Na2 H2 P2 O7 using X-ray powder diffraction
data
;
loop_
_citation_id
_citation_journal_full
_citation_year
_citation_journal_volume
_citation_page_first
_citation_page_last
_citation_journal_id_ASTM
primary 'Zhurnal Neorganicheskoi Khimii' 2002 47 1672 1675 ZNOKAQ
loop_
_publ_author_name
'Selevich, K.A.'
'Ivashkevich, L.S.'
'Selevich, A.F.'
'Lyakhov, A.S.'
_cell_length_a 27.521(1)
_cell_length_b 12.3519(4)
_cell_length_c 6.8597(3)
_cell_angle_alpha 90
_cell_angle_beta 90
_cell_angle_gamma 90
_cell_volume 2331.86
_cell_formula_units_Z 16
_symmetry_space_group_name_H-M 'F d d d Z'
_symmetry_Int_Tables_number 70
_refine_ls_R_factor_all 0.07
loop_
_symmetry_equiv_pos_site_id
_symmetry_equiv_pos_as_xyz
1 'x+3/4, y+3/4, -z'
2 'x+3/4, -y, z+3/4'
3 '-x, y+3/4, z+3/4'
4 '-x, -y, -z'
5 '-x+1/4, -y+1/4, z'
6 '-x+1/4, y, -z+1/4'
7 'x, -y+1/4, -z+1/4'
8 'x, y, z'
9 'x+3/4, y+1/4, -z+1/2'
10 'x+3/4, -y+1/2, z+1/4'
11 '-x, y+1/4, z+1/4'
12 '-x, -y+1/2, -z+1/2'
13 '-x+1/4, -y+3/4, z+1/2'
14 '-x+1/4, y+1/2, -z+3/4'
15 'x, -y+3/4, -z+3/4'
16 'x, y+1/2, z+1/2'
17 'x+1/4, y+3/4, -z+1/2'
18 'x+1/4, -y, z+1/4'
19 '-x+1/2, y+3/4, z+1/4'
20 '-x+1/2, -y, -z+1/2'
21 '-x+3/4, -y+1/4, z+1/2'
22 '-x+3/4, y, -z+3/4'
23 'x+1/2, -y+1/4, -z+3/4'
24 'x+1/2, y, z+1/2'
25 'x+1/4, y+1/4, -z'
26 'x+1/4, -y+1/2, z+3/4'
27 '-x+1/2, y+1/4, z+3/4'
28 '-x+1/2, -y+1/2, -z'
29 '-x+3/4, -y+3/4, z'
30 '-x+3/4, y+1/2, -z+1/4'
31 'x+1/2, -y+3/4, -z+1/4'
32 'x+1/2, y+1/2, z'
loop_
_atom_type_symbol
_atom_type_oxidation_number
Na1+ 1
P5+ 5
O2- -2
H1+ 1
loop_
_atom_site_label
_atom_site_type_symbol
_atom_site_symmetry_multiplicity
_atom_site_Wyckoff_symbol
_atom_site_fract_x
_atom_site_fract_y
_atom_site_fract_z
_atom_site_B_iso_or_equiv
_atom_site_occupancy
_atom_site_attached_hydrogens
Na1 Na1+ 32 h 0.42517(8) 0.2677(2) 0.5258(4) 1.76(7) 1. 0
P1 P5+ 32 h 0.44740(6) 0.2334(2) 0.0336(3) 1.99(5) 1. 0
O1 O2- 32 h 0.4936(2) 0.2930(3) -0.0246(5) 2.2(1) 1. 0
O2 O2- 32 h 0.4196(1) 0.1957(3) 0.8494(6) 1.2(1) 1. 0
O3 O2- 32 h 0.4167(1) 0.2850(3) 0.1828(6) 0.6(1) 1. 0
O4 O2- 16 e 0.4711(2) 0.125 0.125 1.1(2) 1. 0
H1 H1+ 16 e 0.488 0.375 0.875 5. 1. 0
H2 H1+ 16 f 0.375 0.2 0.875 2. 1. 0
#End of TTdata_96099-ICSD