
#(C) 2018 by FIZ Karlsruhe - Leibniz Institute for Information Infrastructure.  All rights reserved.
data_96292-ICSD
_database_code_ICSD 96292
_audit_creation_date 2004-04-01
_chemical_name_systematic 'Lithium titanium(III) catena-disilicate'
_chemical_formula_structural 'Li Ti (Si2 O6)'
_chemical_formula_sum 'Li1 O6 Si2 Ti1'
_chemical_name_structure_type Pyroxene-CaMg(SiO3)2
_exptl_crystal_density_diffrn 3.24
_publ_section_title
'High-pressure synthesis and structure refinement of Li Ti Si2 O6'
loop_
_citation_id
_citation_journal_full
_citation_year
_citation_journal_volume
_citation_page_first
_citation_page_last
_citation_journal_id_ASTM
primary 'Journal of Alloys and Compounds' 2003 354 L16 L19 JALCEU
loop_
_publ_author_name
'Kopnin, E.M.'
'Sato, A.'
'Takayama Muromachi, E.'
_cell_length_a 9.6913(4)
_cell_length_b 8.7438(3)
_cell_length_c 5.3175(2)
_cell_angle_alpha 90
_cell_angle_beta 109.824(4)
_cell_angle_gamma 90
_cell_volume 423.9
_cell_formula_units_Z 4
_symmetry_space_group_name_H-M 'C 1 2/c 1'
_symmetry_Int_Tables_number 15
_refine_ls_R_factor_all 0.0287
loop_
_symmetry_equiv_pos_site_id
_symmetry_equiv_pos_as_xyz
1 'x, -y, z+1/2'
2 '-x, -y, -z'
3 '-x, y, -z+1/2'
4 'x, y, z'
5 'x+1/2, -y+1/2, z+1/2'
6 '-x+1/2, -y+1/2, -z'
7 '-x+1/2, y+1/2, -z+1/2'
8 'x+1/2, y+1/2, z'
loop_
_atom_type_symbol
_atom_type_oxidation_number
Ti3+ 3
Si4+ 4
Li1+ 1
O2- -2
loop_
_atom_site_label
_atom_site_type_symbol
_atom_site_symmetry_multiplicity
_atom_site_Wyckoff_symbol
_atom_site_fract_x
_atom_site_fract_y
_atom_site_fract_z
_atom_site_B_iso_or_equiv
_atom_site_occupancy
_atom_site_attached_hydrogens
Ti1 Ti3+ 4 e 0 0.90246(5) 0.25 0.0145(2) 1. 0
Si1 Si4+ 8 f 0.29800(6) 0.08878(6) 0.2715(1) 0.0137(2) 1. 0
Li1 Li1+ 4 e 0 0.264(1) 0.25 0.033(1) 1. 0
O1 O2- 8 f 0.1186(2) 0.0845(2) 0.1567(3) 0.0155(3) 1. 0
O2 O2- 8 f 0.3693(2) 0.2555(2) 0.3280(3) 0.0200(3) 1. 0
O3 O2- 8 f 0.3554(2) -0.0009(2) 0.0584(3) 0.0202(3) 1. 0
loop_
_atom_site_aniso_label
_atom_site_aniso_type_symbol
_atom_site_aniso_U_11
_atom_site_aniso_U_22
_atom_site_aniso_U_33
_atom_site_aniso_U_12
_atom_site_aniso_U_13
_atom_site_aniso_U_23
Ti1 Ti3+ 0.0135(3) 0.0143(3) 0.0152(3) 0. 0.0040(2) 0.
Si1 Si4+ 0.0129(3) 0.0146(3) 0.0135(3) -0.0011(1) 0.0045(2) -0.0003(1)
O1 O2- 0.0131(6) 0.0170(6) 0.0159(6) -0.0001(4) 0.0043(5) 0.0005(4)
O2 O2- 0.0195(7) 0.0174(6) 0.0246(7) -0.0043(5) 0.0095(5) -0.0023(5)
O3 O2- 0.0154(36) 0.0276(8) 0.0175(6) -0.0006(4) 0.0055(4) -0.0067(5)
#End of TTdata_96292-ICSD