
#(C) 2019 by FIZ Karlsruhe - Leibniz Institute for Information Infrastructure.  All rights reserved.
data_9634-ICSD
_database_code_ICSD 9634
_audit_creation_date 1980-01-01
_audit_update_record 1985-04-19
_chemical_name_systematic 'Sodium trioxoantimonate (sodium fluoride) (1/1/.2)'
_chemical_formula_structural 'Na Sb O3 (Na F).1667'
_chemical_formula_sum 'F0.1667 Na1.1667 O3 Sb1'
_exptl_crystal_density_diffrn 4.94
_publ_section_title 'Fast Na+-Ion transport in skeleton structures'
loop_
_citation_id
_citation_journal_full
_citation_year
_citation_journal_volume
_citation_page_first
_citation_page_last
_citation_journal_id_ASTM
primary 'Materials Research Bulletin' 1976 11 203 220 MRBUAC
loop_
_publ_author_name
'Goodenough, J.B.'
'Hong, H.'
'Kafalas, J.A.'
_cell_length_a 9.306(1)
_cell_length_b 9.306(1)
_cell_length_c 9.306(1)
_cell_angle_alpha 90.
_cell_angle_beta 90.
_cell_angle_gamma 90.
_cell_volume 805.91
_cell_formula_units_Z 12
_symmetry_space_group_name_H-M 'I m -3'
_symmetry_Int_Tables_number 204
_refine_ls_R_factor_all 0.064
loop_
_symmetry_equiv_pos_site_id
_symmetry_equiv_pos_as_xyz
1 '-z, x, y'
2 'z, x, -y'
3 'z, -x, y'
4 '-z, -x, -y'
5 'y, -z, x'
6 '-y, z, x'
7 'y, z, -x'
8 '-y, -z, -x'
9 'x, y, -z'
10 'x, -y, z'
11 '-x, y, z'
12 '-x, -y, -z'
13 'z, -x, -y'
14 '-z, -x, y'
15 '-z, x, -y'
16 'z, x, y'
17 '-y, z, -x'
18 'y, -z, -x'
19 '-y, -z, x'
20 'y, z, x'
21 '-x, -y, z'
22 '-x, y, -z'
23 'x, -y, -z'
24 'x, y, z'
25 '-z+1/2, x+1/2, y+1/2'
26 'z+1/2, x+1/2, -y+1/2'
27 'z+1/2, -x+1/2, y+1/2'
28 '-z+1/2, -x+1/2, -y+1/2'
29 'y+1/2, -z+1/2, x+1/2'
30 '-y+1/2, z+1/2, x+1/2'
31 'y+1/2, z+1/2, -x+1/2'
32 '-y+1/2, -z+1/2, -x+1/2'
33 'x+1/2, y+1/2, -z+1/2'
34 'x+1/2, -y+1/2, z+1/2'
35 '-x+1/2, y+1/2, z+1/2'
36 '-x+1/2, -y+1/2, -z+1/2'
37 'z+1/2, -x+1/2, -y+1/2'
38 '-z+1/2, -x+1/2, y+1/2'
39 '-z+1/2, x+1/2, -y+1/2'
40 'z+1/2, x+1/2, y+1/2'
41 '-y+1/2, z+1/2, -x+1/2'
42 'y+1/2, -z+1/2, -x+1/2'
43 '-y+1/2, -z+1/2, x+1/2'
44 'y+1/2, z+1/2, x+1/2'
45 '-x+1/2, -y+1/2, z+1/2'
46 '-x+1/2, y+1/2, -z+1/2'
47 'x+1/2, -y+1/2, -z+1/2'
48 'x+1/2, y+1/2, z+1/2'
loop_
_atom_type_symbol
_atom_type_oxidation_number
Na1+ 1
Sb5+ 5
O2- -2
F1- -1
loop_
_atom_site_label
_atom_site_type_symbol
_atom_site_symmetry_multiplicity
_atom_site_Wyckoff_symbol
_atom_site_fract_x
_atom_site_fract_y
_atom_site_fract_z
_atom_site_B_iso_or_equiv
_atom_site_occupancy
_atom_site_attached_hydrogens
Na1 Na1+ 8 c 0.25 0.25 0.25 . 0.25(4) 0
Na2 Na1+ 16 f 0.154(1) 0.154(1) 0.154(1) . 0.80(4) 0
Sb1 Sb5+ 12 e 0.8381(1) 0 0.5 . 1. 0
O1 O2- 12 d 0.360(1) 0 0 . 1. 0
O2 O2- 24 g 0 0.3325(9) 0.2873(9) . 1. 0
F1 F1- 2 a 0 0 0 . 1. 0
loop_
_atom_site_aniso_label
_atom_site_aniso_type_symbol
_atom_site_aniso_beta_11
_atom_site_aniso_beta_22
_atom_site_aniso_beta_33
_atom_site_aniso_beta_12
_atom_site_aniso_beta_13
_atom_site_aniso_beta_23
Na1 Na1+ 0.009(4) 0.009(4) 0.009(4) 0 0 0
Na2 Na1+ 0.024(2) 0.024(2) 0.024(2) 0.004(1) 0.004(1) 0.004(1)
Sb1 Sb5+ 0.0032(1) 0.0037(1) 0.0033(1) 0 0 0
O1 O2- 0.000(1) 0.006(1) 0.005(1) 0 0 0
O2 O2- 0.006(1) 0.003(1) 0.005(1) 0 0 0.0003(9)
F1 F1- 0.004(1) 0.004(1) 0.024(1) 0 0 0
#End of TTdata_9634-ICSD