
#(C) 2019 by FIZ Karlsruhe - Leibniz Institute for Information Infrastructure.  All rights reserved.
data_96444-ICSD
_database_code_ICSD 96444
_audit_creation_date 2004-04-01
_chemical_name_systematic
'Decasodium octakis(dioxouranium(VI)) pentatungstate octaoxide'
_chemical_formula_structural 'Na10 (U O2)8 (W5 O20) O8'
_chemical_formula_sum 'Na10 O44 U8 W5'
_exptl_crystal_density_diffrn 6.43
_publ_section_title

;
Synthesis and crystal structure of new uranyl tungstates M2 (U O2) (W2 O8) (M
= Na, K), M2 (U O2)2 (W O5) O (M = K, Rb) and Na10 (U O2)8 (W5 O20) O8
;
loop_
_citation_id
_citation_journal_full
_citation_year
_citation_journal_volume
_citation_page_first
_citation_page_last
_citation_journal_id_ASTM
primary 'Journal of Solid State Chemistry' 2003 172 305 318 JSSCBI
loop_
_publ_author_name
'Obbade, S.'
'Dion, C.'
'Bekaert, E.'
'Yagoubi, S.'
'Saadi, M.'
'Abraham, F.'
_cell_length_a 24.359(5)
_cell_length_b 23.506(5)
_cell_length_c 6.8068(14)
_cell_angle_alpha 90
_cell_angle_beta 94.85(3)
_cell_angle_gamma 90
_cell_volume 3883.5
_cell_formula_units_Z 4
_symmetry_space_group_name_H-M 'C 1 2/c 1'
_symmetry_Int_Tables_number 15
_refine_ls_R_factor_all 0.036
loop_
_symmetry_equiv_pos_site_id
_symmetry_equiv_pos_as_xyz
1 'x, -y, z+1/2'
2 '-x, -y, -z'
3 '-x, y, -z+1/2'
4 'x, y, z'
5 'x+1/2, -y+1/2, z+1/2'
6 '-x+1/2, -y+1/2, -z'
7 '-x+1/2, y+1/2, -z+1/2'
8 'x+1/2, y+1/2, z'
loop_
_atom_type_symbol
_atom_type_oxidation_number
U6+ 6
W6+ 6
Na1+ 1
O2- -2
loop_
_atom_site_label
_atom_site_type_symbol
_atom_site_symmetry_multiplicity
_atom_site_Wyckoff_symbol
_atom_site_fract_x
_atom_site_fract_y
_atom_site_fract_z
_atom_site_B_iso_or_equiv
_atom_site_occupancy
_atom_site_attached_hydrogens
U1 U6+ 8 f 0.12684(1) 0.46655(1) 0.95523(5) 0.00972(8) 1. 0
U2 U6+ 8 f 0.12380(1) 0.37279(1) 0.48829(5) 0.01006(8) 1. 0
U3 U6+ 8 f 0.12707(2) 0.03289(1) 0.62564(5) 0.00990(8) 1. 0
U4 U6+ 8 f 0.12431(2) 0.12741(1) 0.09093(5) 0.00995(8) 1. 0
W1 W6+ 8 f 0.13177(2) 0.29932(1) 0.96725(5) 0.01030(9) 1. 0
W2 W6+ 8 f 0.13643(2) 0.20245(1) 0.62015(5) 0.01018(9) 1. 0
W3 W6+ 4 e 0 0.24593(2) 0.75 0.01637(9) 1. 0
Na1 Na1+ 8 f 0.2506(2) 0.12062(19) 0.8151(7) 0.024(2) 1. 0
Na2 Na1+ 4 e 0 0.3896(3) 0.75 0.027(2) 1. 0
Na3 Na1+ 4 e 0 0.4508(3) 0.25 0.029(2) 1. 0
Na4 Na1+ 8 f 0.2515(2) -0.0442(2) 0.8276(7) 0.026(1) 1. 0
Na5 Na1+ 4 e 0 0.1081(3) 0.75 0.025(1) 1. 0
Na6 Na1+ 4 e 0 0.0483(3) 0.25 0.030(2) 1. 0
Na7 Na1+ 8 f 0.2574(3) 0.2897(2) 0.7181(9) 0.045(2) 1. 0
O1 O2- 8 f 0.1285(3) 0.2180(3) 0.9343(9) 0.014(1) 1. 0
O2 O2- 8 f 0.0512(4) 0.4709(3) 0.9210(11) 0.021(2) 1. 0
O3 O2- 8 f 0.2025(3) 0.4586(3) 0.9873(11) 0.018(2) 1. 0
O4 O2- 8 f 0.1163(3) 0.3708(3) 0.8568(10) 0.015(2) 1. 0
O5 O2- 8 f 0.1990(3) 0.1300(3) 0.1242(11) 0.018(2) 1. 0
O6 O2- 8 f 0.0499(3) 0.3779(3) 0.4748(11) 0.018(2) 1. 0
O7 O2- 8 f 0.1249(3) 0.2824(3) 0.6480(9) 0.015(2) 1. 0
O8 O2- 8 f 0.0511(3) 0.0330(3) 0.6061(11) 0.020(2) 1. 0
O9 O2- 8 f 0.0506(3) 0.1246(3) 0.0583(10) 0.019(2) 1. 0
O10 O2- 8 f 0.2032(3) 0.0355(3) 0.6477(11) 0.019(2) 1. 0
O11 O2- 8 f 0.1987(3) 0.3675(3) 0.5021(11) 0.019(2) 1. 0
O12 O2- 8 f 0.1374(3) 0.4558(3) 0.6374(10) 0.016(2) 1. 0
O13 O2- 8 f 0.1216(4) 0.4388(3) 0.2605(10) 0.020(2) 1. 0
O14 O2- 8 f 0.0442(3) 0.2015(3) 0.6258(11) 0.020(2) 1. 0
O15 O2- 8 f 0.1239(3) 0.1900(3) 0.3647(11) 0.019(2) 1. 0
O16 O2- 8 f 0.1286(3) -0.0442(3) 0.4457(10) 0.017(2) 1. 0
O17 O2- 8 f 0.2034(3) 0.3042(3) 0.9861(11) 0.023(2) 1. 0
O18 O2- 8 f 0.0401(3) 0.2906(3) 0.9113(11) 0.022(2) 1. 0
O19 O2- 8 f 0.1280(3) 0.1300(3) 0.7249(10) 0.019(2) 1. 0
O20 O2- 8 f 0.1252(4) 0.0604(3) 0.3168(9) 0.019(2) 1. 0
O21 O2- 8 f 0.1193(4) 0.3114(3) 0.2138(10) 0.024(2) 1. 0
O22 O2- 8 f 0.2081(3) 0.2061(3) 0.6393(11) 0.022(2) 1. 0
#End of TTdata_96444-ICSD