
#(C) 2019 by FIZ Karlsruhe - Leibniz Institute for Information Infrastructure.  All rights reserved.
data_9645-ICSD
_database_code_ICSD 9645
_audit_creation_date 1980-01-01
_audit_update_record 2015-02-01
_chemical_name_systematic 'Sodium niobate - N, LT'
_chemical_formula_structural 'Na (Nb O3)'
_chemical_formula_sum 'Na1 Nb1 O3'
_chemical_name_structure_type LiNbO3
_chemical_name_mineral 'Lueshite low'
_exptl_crystal_density_diffrn 4.56
_cell_measurement_temperature 20.
_publ_section_title

;
Verfeinerung der Kristallstruktur von Na Nb O3 N. Bestimmung der absoluten
Konfiguration und des Zwillingsgesetzes
;
loop_
_citation_id
_citation_journal_full
_citation_year
_citation_journal_volume
_citation_page_first
_citation_page_last
_citation_journal_id_ASTM
primary 'Zeitschrift fuer Kristallographie' 1976 143 444 459 ZEKRDZ
loop_
_publ_author_name
'Seidel, P.'
'Hoffmann, W.'
_cell_length_a 7.8147(4)
_cell_length_b 7.8147(4)
_cell_length_c 7.8147(4)
_cell_angle_alpha 89.17(1)
_cell_angle_beta 89.17(1)
_cell_angle_gamma 89.17(1)
_cell_volume 477.09
_cell_formula_units_Z 8
_symmetry_space_group_name_H-M 'R 3 c R'
_symmetry_Int_Tables_number 161
_refine_ls_R_factor_all 0.0576
loop_
_symmetry_equiv_pos_site_id
_symmetry_equiv_pos_as_xyz
1 'z+1/2, y+1/2, x+1/2'
2 'z, x, y'
3 'x+1/2, z+1/2, y+1/2'
4 'y, z, x'
5 'y+1/2, x+1/2, z+1/2'
6 'x, y, z'
loop_
_atom_type_symbol
_atom_type_oxidation_number
Na1+ 1
Nb5+ 5
O2- -2
loop_
_atom_site_label
_atom_site_type_symbol
_atom_site_symmetry_multiplicity
_atom_site_Wyckoff_symbol
_atom_site_fract_x
_atom_site_fract_y
_atom_site_fract_z
_atom_site_B_iso_or_equiv
_atom_site_occupancy
_atom_site_attached_hydrogens
Na1 Na1+ 2 a 0 0 0 . 1. 0
Na2 Na1+ 6 b 0.5 0.5 0 . 1. 0
Nb1 Nb5+ 2 a 0.258(1) 0.258(1) 0.258(1) . 1. 0
Nb2 Nb5+ 6 b 0.758(1) 0.758(1) 0.258(1) . 1. 0
O1 O2- 6 b 0.243(2) 0.525(2) 0.309(2) . 1. 0
O2 O2- 6 b 0.243(2) 0.025(2) 0.809(2) . 1. 0
O3 O2- 6 b 0.743(2) 0.525(2) 0.809(2) . 1. 0
O4 O2- 6 b 0.743(2) 0.025(2) 0.309(2) . 1. 0
loop_
_atom_site_aniso_label
_atom_site_aniso_type_symbol
_atom_site_aniso_beta_11
_atom_site_aniso_beta_22
_atom_site_aniso_beta_33
_atom_site_aniso_beta_12
_atom_site_aniso_beta_13
_atom_site_aniso_beta_23
Na1 Na1+ 0.0042(7) 0.0042(7) 0.0042(7) -.0003(7) -.0003(7) -.0003(7)
Na2 Na1+ 0.0042(7) 0.0042(7) 0.0042(7) -.0003(7) -.0003(7) -.0003(7)
Nb1 Nb5+ 0.0037(1) 0.0037(1) 0.0037(1) 0.0001(1) 0.0001(1) 0.0001(1)
Nb2 Nb5+ 0.0037(1) 0.0037(1) 0.0037(1) 0.0001(1) 0.0001(1) 0.0001(1)
O1 O2- 0.004(1) 0.002(1) 0.004(1) -.001(1) -.001(1) -.001(1)
O2 O2- 0.004(1) 0.002(1) 0.004(1) -.001(1) -.001(1) -.001(1)
O3 O2- 0.004(1) 0.002(1) 0.004(1) -.001(1) -.001(1) -.001(1)
O4 O2- 0.004(1) 0.002(1) 0.004(1) -.001(1) -.001(1) -.001(1)
#End of TTdata_9645-ICSD