
#(C) 2019 by FIZ Karlsruhe - Leibniz Institute for Information Infrastructure.  All rights reserved.
data_96664-ICSD
_database_code_ICSD 96664
_audit_creation_date 2004-04-01
_audit_update_record 2008-02-01
_chemical_name_systematic 'Disodium cyclo-trisilicate hydrate'
_chemical_formula_structural 'Na2 (Si3 O7) (H2 O)'
_chemical_formula_sum 'H2 Na2 O8 Si3'
_exptl_crystal_density_diffrn 2.34
_publ_section_title

;
Synthesis and characterization of Mu-11: a porous sodium trisilicate Na2 Si3
O7 * (H2 O) with 10-membered ring openings
;
loop_
_citation_id
_citation_journal_full
_citation_year
_citation_journal_volume
_citation_page_first
_citation_page_last
_citation_journal_id_ASTM
primary 'International Journal of Inorganic Materials' 2000 2 209 216 IJIMCR
loop_
_publ_author_name
'Matijasic, A.'
'Marler, B.'
'Patarin, J.'
_cell_length_a 7.3087(8)
_cell_length_b 12.7246(13)
_cell_length_c 9.0913(11)
_cell_angle_alpha 90
_cell_angle_beta 119.01(1)
_cell_angle_gamma 90
_cell_volume 739.41
_cell_formula_units_Z 4
_symmetry_space_group_name_H-M 'P 1 21/c 1'
_symmetry_Int_Tables_number 14
_refine_ls_R_factor_all 0.0334
loop_
_symmetry_equiv_pos_site_id
_symmetry_equiv_pos_as_xyz
1 'x, -y+1/2, z+1/2'
2 '-x, -y, -z'
3 '-x, y+1/2, -z+1/2'
4 'x, y, z'
loop_
_atom_type_symbol
_atom_type_oxidation_number
Si4+ 4
O2- -2
Na1+ 1
O2- -2
H1+ 1
loop_
_atom_site_label
_atom_site_type_symbol
_atom_site_symmetry_multiplicity
_atom_site_Wyckoff_symbol
_atom_site_fract_x
_atom_site_fract_y
_atom_site_fract_z
_atom_site_B_iso_or_equiv
_atom_site_occupancy
_atom_site_attached_hydrogens
Si1 Si4+ 4 e 0.2555(2) 0.6014(1) 0.1754(1) 0.018(1) 1. 0
Si2 Si4+ 4 e 0.3553(2) 0.3050(1) 0.8084(1) 0.018(1) 1. 0
Si3 Si4+ 4 e 0.2192(1) 0.3689(1) 0.0622(1) 0.017(1) 1. 0
O1 O2- 4 e 0.3173(4) 0.5853(2) 0.3643(3) 0.025(1) 1. 0
O2 O2- 4 e 0.2620(4) 0.4925(2) 0.0809(3) 0.024(1) 1. 0
O3 O2- 4 e 0.2061(4) 0.3839(2) 0.6692(3) 0.025(1) 1. 0
O4 O2- 4 e 0.0252(4) 0.6547(2) 0.0589(3) 0.025(1) 1. 0
O5 O2- 4 e 0.3501(4) 0.3110(2) -0.0141(3) 0.023(1) 1. 0
O6 O2- 4 e 0.3980(4) 0.6850(2) 0.1379(3) 0.022(1) 1. 0
O7 O2- 4 e 0.2919(4) 0.1813(2) 0.7464(3) 0.022(1) 1. 0
Na1 Na1+ 4 e 0.1478(2) 0.8305(1) -0.0107(2) 0.031(2) 1. 0
Na2 Na1+ 4 e 0.2982(3) 0.4210(1) 0.4644(2) 0.030(1) 1. 0
O8 O2- 4 e 0.1351(6) 0.9185(3) 0.2097(4) 0.052(1) 1. 0
H1 H1+ 4 e 0.1967(6) 0.9876(3) 0.2306(4) 0.063 1. 0
H2 H1+ 4 e 0.1921(6) 0.8782(3) 0.3123(4) 0.063 1. 0
loop_
_atom_site_aniso_label
_atom_site_aniso_type_symbol
_atom_site_aniso_U_11
_atom_site_aniso_U_22
_atom_site_aniso_U_33
_atom_site_aniso_U_12
_atom_site_aniso_U_13
_atom_site_aniso_U_23
Si1 Si4+ 0.019(1) 0.017(1) 0.018(1) -0.001(1) 0.009(1) 0.001(1)
Si2 Si4+ 0.019(1) 0.017(1) 0.017(1) -0.001(1) 0.010(1) -0.001(1)
Si3 Si4+ 0.019(1) 0.016(1) 0.017(1) 0.001(1) 0.009(1) 0.000(1)
O1 O2- 0.028(1) 0.025(1) 0.022(1) 0.000(1) 0.014(1) 0.000(1)
O2 O2- 0.030(1) 0.018(1) 0.024(1) 0.000(1) 0.014(1) -0.002(1)
O3 O2- 0.027(1) 0.024(1) 0.023(1) 0.003(1) 0.011(1) 0.004(1)
O4 O2- 0.022(1) 0.022(1) 0.028(1) 0.001(1) 0.010(1) 0.002(1)
O5 O2- 0.025(1) 0.026(1) 0.020(1) 0.004(1) 0.013(1) 0.000(1)
O6 O2- 0.022(1) 0.021(1) 0.025(1) -0.002(1) 0.012(1) 0.001(1)
O7 O2- 0.028(1) 0.019(1) 0.021(1) -0.006(1) 0.014(1) -0.003(1)
Na1 Na1+ 0.031(1) 0.027(1) 0.036(1) 0.002(1) 0.018(1) 0.004(1)
Na2 Na1+ 0.041(1) 0.028(1) 0.026(1) 0.001(1) 0.019(1) 0.001(1)
O8 O2- 0.085(3) 0.035(2) 0.037(2) -0.016(2) 0.029(2) -0.007(1)
#End of TTdata_96664-ICSD