
#(C) 2019 by FIZ Karlsruhe - Leibniz Institute for Information Infrastructure.  All rights reserved.
data_96670-ICSD
_database_code_ICSD 96670
_audit_creation_date 2004-04-01
_chemical_name_systematic 'Sodium lithium titanium oxide (0.73/0.56/0.68/2)'
_chemical_formula_structural '(Na0.73 Li0.24) (Li0.32 Ti0.68) O2'
_chemical_formula_sum 'Li0.56 Na0.73 O2 Ti0.68'
_chemical_name_structure_type Delafossite-NaFeO2
_exptl_crystal_density_diffrn 3.41
_publ_section_title

;
Crystal growth and crystal structures of the layered ionic conductors - sodium
lithium titanium oxides
;
loop_
_citation_id
_citation_journal_full
_citation_year
_citation_journal_volume
_citation_page_first
_citation_page_last
_citation_journal_id_ASTM
primary 'International Journal of Inorganic Materials' 2000 2 443 449 IJIMCR
loop_
_publ_author_name
'Shilov, G.V.'
'Nalbandyan, V.B.'
'Volochaev, V.A.'
'Atovmyan, L.O.'
_cell_length_a 2.9930(10)
_cell_length_b 2.9930(10)
_cell_length_c 16.045(5)
_cell_angle_alpha 90
_cell_angle_beta 90
_cell_angle_gamma 120
_cell_volume 124.48
_cell_formula_units_Z 3
_symmetry_space_group_name_H-M 'R -3 m H'
_symmetry_Int_Tables_number 166
_refine_ls_R_factor_all 0.0813
loop_
_symmetry_equiv_pos_site_id
_symmetry_equiv_pos_as_xyz
1 'x-y, -y, -z'
2 '-x, -x+y, -z'
3 'y, x, -z'
4 'x-y, x, -z'
5 'y, -x+y, -z'
6 '-x, -y, -z'
7 '-x+y, y, z'
8 'x, x-y, z'
9 '-y, -x, z'
10 '-x+y, -x, z'
11 '-y, x-y, z'
12 'x, y, z'
13 'x-y+2/3, -y+1/3, -z+1/3'
14 '-x+2/3, -x+y+1/3, -z+1/3'
15 'y+2/3, x+1/3, -z+1/3'
16 'x-y+2/3, x+1/3, -z+1/3'
17 'y+2/3, -x+y+1/3, -z+1/3'
18 '-x+2/3, -y+1/3, -z+1/3'
19 '-x+y+2/3, y+1/3, z+1/3'
20 'x+2/3, x-y+1/3, z+1/3'
21 '-y+2/3, -x+1/3, z+1/3'
22 '-x+y+2/3, -x+1/3, z+1/3'
23 '-y+2/3, x-y+1/3, z+1/3'
24 'x+2/3, y+1/3, z+1/3'
25 'x-y+1/3, -y+2/3, -z+2/3'
26 '-x+1/3, -x+y+2/3, -z+2/3'
27 'y+1/3, x+2/3, -z+2/3'
28 'x-y+1/3, x+2/3, -z+2/3'
29 'y+1/3, -x+y+2/3, -z+2/3'
30 '-x+1/3, -y+2/3, -z+2/3'
31 '-x+y+1/3, y+2/3, z+2/3'
32 'x+1/3, x-y+2/3, z+2/3'
33 '-y+1/3, -x+2/3, z+2/3'
34 '-x+y+1/3, -x+2/3, z+2/3'
35 '-y+1/3, x-y+2/3, z+2/3'
36 'x+1/3, y+2/3, z+2/3'
loop_
_atom_type_symbol
_atom_type_oxidation_number
Ti4+ 4
Li1+ 1
O2- -2
Na1+ 1
Li1+ 1
loop_
_atom_site_label
_atom_site_type_symbol
_atom_site_symmetry_multiplicity
_atom_site_Wyckoff_symbol
_atom_site_fract_x
_atom_site_fract_y
_atom_site_fract_z
_atom_site_B_iso_or_equiv
_atom_site_occupancy
_atom_site_attached_hydrogens
Ti1 Ti4+ 3 a 0 0 0 1.43(3) 0.68 0
Li1 Li1+ 3 a 0 0 0 1.43(3) 0.32 0
O1 O2- 6 c 0 0 0.2661(4) 1.91(7) 1. 0
Na1 Na1+ 3 b 0.3333 0.6667 0.1667 1.66(7) 0.73 0
Li2 Li1+ 3 b 0.3333 0.6667 0.1667 1.66(7) 0.24 0
loop_
_atom_site_aniso_label
_atom_site_aniso_type_symbol
_atom_site_aniso_U_11
_atom_site_aniso_U_22
_atom_site_aniso_U_33
_atom_site_aniso_U_12
_atom_site_aniso_U_13
_atom_site_aniso_U_23
Ti1 Ti4+ 0.0090(3) 0.0090(3) 0.0364(8) 0.0045(2) 0. 0.
Li1 Li1+ 0.0090(3) 0.0090(3) 0.0364(8) 0.0045(2) 0. 0.
O1 O2- 0.0173(8) 0.0173(8) 0.038(2) 0.0087(4) 0. 0.
Na1 Na1+ 0.0155(9) 0.0155(9) 0.032(2) 0.0078(5) 0. 0.
Li2 Li1+ 0.0155(9) 0.0155(9) 0.032(2) 0.0078(5) 0. 0.
#End of TTdata_96670-ICSD