
#(C) 2018 by FIZ Karlsruhe - Leibniz Institute for Information Infrastructure.  All rights reserved.
data_9669-ICSD
_database_code_ICSD 9669
_audit_creation_date 1984-09-04
_audit_update_record 2006-04-01
_chemical_name_systematic 'Lithium iron(III) catena-disilicate'
_chemical_formula_structural 'Li Fe (Si2 O6)'
_chemical_formula_sum 'Fe1 Li1 O6 Si2'
_chemical_name_structure_type Pyroxene-CaMg(SiO3)2
_exptl_crystal_density_diffrn 3.43
_publ_section_title

;
Crystal-chemical characterization of clinopyroxenes based on eight new
structure refinements
;
loop_
_citation_id
_citation_journal_full
_citation_year
_citation_journal_volume
_citation_page_first
_citation_page_last
_citation_journal_id_ASTM
primary 'Mineralogical Society of America, Special Paper' 1969 2 31 50 MSAPAX
loop_
_publ_author_name
'Clark, J.R.'
'Appleman, D.E.'
'Papike, J.J.'
_cell_length_a 9.666(2)
_cell_length_b 8.669(2)
_cell_length_c 5.294(2)
_cell_angle_alpha 90.
_cell_angle_beta 110.15(2)
_cell_angle_gamma 90.
_cell_volume 416.46
_cell_formula_units_Z 4
_symmetry_space_group_name_H-M 'C 1 2/c 1'
_symmetry_Int_Tables_number 15
_refine_ls_R_factor_all 0.035
loop_
_symmetry_equiv_pos_site_id
_symmetry_equiv_pos_as_xyz
1 'x, -y, z+1/2'
2 '-x, -y, -z'
3 '-x, y, -z+1/2'
4 'x, y, z'
5 'x+1/2, -y+1/2, z+1/2'
6 '-x+1/2, -y+1/2, -z'
7 '-x+1/2, y+1/2, -z+1/2'
8 'x+1/2, y+1/2, z'
loop_
_atom_type_symbol
_atom_type_oxidation_number
Li1+ 1
Fe3+ 3
Si4+ 4
O2- -2
loop_
_atom_site_label
_atom_site_type_symbol
_atom_site_symmetry_multiplicity
_atom_site_Wyckoff_symbol
_atom_site_fract_x
_atom_site_fract_y
_atom_site_fract_z
_atom_site_B_iso_or_equiv
_atom_site_occupancy
_atom_site_attached_hydrogens
Li1 Li1+ 4 e 0 0.2685(6) 0.25 . 1. 0
Fe1 Fe3+ 4 e 0 0.89807(7) 0.25 . 1. 0
Si1 Si4+ 8 f 0.29626(9) 0.0895(1) 0.2663(2) . 1. 0
O1 O2- 8 f 0.1168(2) 0.0851(3) 0.1503(4) . 1. 0
O2 O2- 8 f 0.3671(3) 0.2576(3) 0.3290(5) . 1. 0
O3 O2- 8 f 0.3558(3) 0.0000(3) 0.0539(5) . 1. 0
loop_
_atom_site_aniso_label
_atom_site_aniso_type_symbol
_atom_site_aniso_beta_11
_atom_site_aniso_beta_22
_atom_site_aniso_beta_33
_atom_site_aniso_beta_12
_atom_site_aniso_beta_13
_atom_site_aniso_beta_23
Li1 Li1+ 0.0025(6) 0.0022(7) 0.0027(18) 0 0.0007(4) 0
Fe1 Fe3+ 0.00142(6) 0.00099(6) 0.0020(2) 0 0.00040(4) 0
Si1 Si4+ 0.00133(8) 0.00109(8) 0.0014(2) -.00008(3) 0.0005(1) -.0001(1)
O1 O2- 0.0015(2) 0.0017(2) 0.0031(6) -.0001(1) 0.0006(2) -.0002(2)
O2 O2- 0.0028(2) 0.0015(2) 0.0082(8) -.0005(1) 0.0014(2) -.0005(2)
O3 O2- 0.0022(2) 0.0037(3) 0.0037(7) 0.0000(1) 0.0006(2) -.00013(2)
#End of TTdata_9669-ICSD