
#(C) 2019 by FIZ Karlsruhe - Leibniz Institute for Information Infrastructure.  All rights reserved.
data_9670-ICSD
_database_code_ICSD 9670
_audit_creation_date 1980-01-01
_audit_update_record 1998-06-26
_chemical_name_systematic 'Sodium chromium catena-silicate'
_chemical_formula_structural 'Na Cr Si2 O6'
_chemical_formula_sum 'Cr1 Na1 O6 Si2'
_chemical_name_structure_type Pyroxene-CaMg(SiO3)2
_chemical_name_mineral Kosmochlor
_exptl_crystal_density_diffrn 3.61
_publ_section_title

;
Crystal-chemical characterization of clinopyroxenes based on eight new
structure refinements
;
loop_
_citation_id
_citation_journal_full
_citation_year
_citation_journal_volume
_citation_page_first
_citation_page_last
_citation_journal_id_ASTM
primary 'Mineralogical Society of America, Special Paper' 1969 2 31 50 MSAPAX
loop_
_publ_author_name
'Clark, J.R.'
'Appleman, D.E.'
'Papike, J.J.'
_cell_length_a 9.550(16)
_cell_length_b 8.712(7)
_cell_length_c 5.272(8)
_cell_angle_alpha 90.
_cell_angle_beta 107.44(16)
_cell_angle_gamma 90.
_cell_volume 418.47
_cell_formula_units_Z 4
_symmetry_space_group_name_H-M 'C 1 2/c 1'
_symmetry_Int_Tables_number 15
_refine_ls_R_factor_all 0.03
loop_
_symmetry_equiv_pos_site_id
_symmetry_equiv_pos_as_xyz
1 'x, -y, z+1/2'
2 '-x, -y, -z'
3 '-x, y, -z+1/2'
4 'x, y, z'
5 'x+1/2, -y+1/2, z+1/2'
6 '-x+1/2, -y+1/2, -z'
7 '-x+1/2, y+1/2, -z+1/2'
8 'x+1/2, y+1/2, z'
loop_
_atom_type_symbol
_atom_type_oxidation_number
Na1+ 1
Cr3+ 3
Si4+ 4
O2- -2
loop_
_atom_site_label
_atom_site_type_symbol
_atom_site_symmetry_multiplicity
_atom_site_Wyckoff_symbol
_atom_site_fract_x
_atom_site_fract_y
_atom_site_fract_z
_atom_site_B_iso_or_equiv
_atom_site_occupancy
_atom_site_attached_hydrogens
Na1 Na1+ 4 e 0 0.3008(3) 0.25 . 1. 0
Cr1 Cr3+ 4 e 0 0.9076(1) 0.25 . 1. 0
Si1 Si4+ 8 f 0.2921(1) 0.0918(1) 0.2333(2) . 1. 0
O1 O2- 8 f 0.1140(3) 0.0791(3) 0.1374(5) . 1. 0
O2 O2- 8 f 0.3599(3) 0.2583(3) 0.3037(6) . 1. 0
O3 O2- 8 f 0.3531(3) 0.0105(3) 0.0066(6) . 1. 0
loop_
_atom_site_aniso_label
_atom_site_aniso_type_symbol
_atom_site_aniso_beta_11
_atom_site_aniso_beta_22
_atom_site_aniso_beta_33
_atom_site_aniso_beta_12
_atom_site_aniso_beta_13
_atom_site_aniso_beta_23
Na1 Na1+ 0.0035(3) 0.0017(3) 0.0034(7) 0 -.0006(2) 0
Cr1 Cr3+ 0.0017(1) 0.0015(1) 0.0023(2) 0 0.0002(1) 0
Si1 Si4+ 0.0015(1) 0.0013(1) 0.0015(3) -.0001(1) 0.0001(1) -.0001(1)
O1 O2- 0.0016(2) 0.0018(3) 0.0019(7) -.0001(1) 0.0002(2) 0.0002(2)
O2 O2- 0.0022(3) 0.0015(3) 0.0038(8) -.0003(1) 0.0002(2) -.0002(2)
O3 O2- 0.0018(2) 0.0024(3) 0.0025(7) 0.0000(2) 0.0002(2) -.0006(3)
#End of TTdata_9670-ICSD