
#(C) 2019 by FIZ Karlsruhe - Leibniz Institute for Information Infrastructure.  All rights reserved.
data_97011-ICSD
_database_code_ICSD 97011
_audit_creation_date 2004-10-01
_chemical_name_systematic
'Sodium samarium silicate fluoride oxide (1.5/8.5/6/1/1)'
_chemical_formula_structural '(Na1.5 Sm8.5) (Si O4)6 F O'
_chemical_formula_sum 'F1 Na1.5 O25 Si6 Sm8.5'
_chemical_name_structure_type Apatite#-(HE,P63/m)
_exptl_crystal_density_diffrn 5.84
_publ_section_title
'Structure cristalline et spectres Raman polarises de Na1.5 Sm8.5 (Si O4)6 F O'
loop_
_citation_id
_citation_journal_full
_citation_year
_citation_journal_volume
_citation_page_first
_citation_page_last
_citation_journal_id_ASTM
primary 'Annales de Chimie (Cachan, France)' 2002 27 17 26 ANCPAC
loop_
_publ_author_name
'Toumi, M.'
'Smiri-Dogguy, L.'
'Bulou, A.'
_cell_length_a 9.4761(6)
_cell_length_b 9.4761(6)
_cell_length_c 6.9484(4)
_cell_angle_alpha 90
_cell_angle_beta 90
_cell_angle_gamma 120
_cell_volume 540.35
_cell_formula_units_Z 1
_symmetry_space_group_name_H-M 'P 63/m'
_symmetry_Int_Tables_number 176
_refine_ls_R_factor_all 0.022
loop_
_symmetry_equiv_pos_site_id
_symmetry_equiv_pos_as_xyz
1 '-x+y, -x, -z+1/2'
2 '-y, x-y, -z+1/2'
3 'x, y, -z+1/2'
4 'x-y, x, -z'
5 'y, -x+y, -z'
6 '-x, -y, -z'
7 'x-y, x, z+1/2'
8 'y, -x+y, z+1/2'
9 '-x, -y, z+1/2'
10 '-x+y, -x, z'
11 '-y, x-y, z'
12 'x, y, z'
loop_
_atom_type_symbol
_atom_type_oxidation_number
Sm3+ 3
Na1+ 1
Sm3+ 3
Na1+ 1
F1- -1
O2- -2
Si4+ 4
O2- -2
loop_
_atom_site_label
_atom_site_type_symbol
_atom_site_symmetry_multiplicity
_atom_site_Wyckoff_symbol
_atom_site_fract_x
_atom_site_fract_y
_atom_site_fract_z
_atom_site_B_iso_or_equiv
_atom_site_occupancy
_atom_site_attached_hydrogens
Sm1 Sm3+ 4 f 0.6667 0.3333 0.0004(1) 0.0123(3) 0.667(6) 0
Na1 Na1+ 4 f 0.6667 0.3333 0.0004(1) 0.0123(3) 0.333(15) 0
Sm2 Sm3+ 6 h 0.75357(5) 0.76411(5) 0.25 0.0100(3) 0.972(10) 0
Na2 Na1+ 6 h 0.75357(5) 0.76411(5) 0.25 0.0100(3) 0.028(10) 0
F1 F1- 2 a 0 0 0.25 0.043(3) 0.5 0
O1 O2- 2 a 0 0 0.25 0.043(3) 0.5 0
Si1 Si4+ 6 h 0.6020(2) 0.6296(2) 0.75 0.0082(7) 1. 0
O2 O2- 6 h 0.4842(8) 0.1680(7) 0.75 0.017(1) 1. 0
O3 O2- 6 h 0.1210(7) 0.5943(7) 0.75 0.016(1) 1. 0
O4 O2- 12 i 0.3370(7) 0.2488(6) 0.0663(7) 0.025(1) 1. 0
#End of TTdata_97011-ICSD