
#(C) 2019 by FIZ Karlsruhe - Leibniz Institute for Information Infrastructure.  All rights reserved.
data_97306-ICSD
_database_code_ICSD 97306
_audit_creation_date 2004-10-01
_chemical_name_systematic
'Trisodium trithallium tetrakis(molybdato)dioxouranate'
_chemical_formula_structural 'Na3 Tl3 ((U O2) (Mo O4)4)'
_chemical_formula_sum 'Mo4 Na3 O18 Tl3 U1'
_exptl_crystal_density_diffrn 5.26
_publ_section_title

;
Crystal chemistry of uranyl molybdates. VIII. Crystal structures of Na3 Tl3
((U O2) (Mo O4)4), Na13-x Tl3+x ((U O2) (Mo O4)3)4 (H2 O)6+x (x=0.1), Na3 Tl5
((U O2) (Mo O4)3)2 (H2 O)3 and Na2 ((U O2) (Mo O4)2) (H2 O)4
;
loop_
_citation_id
_citation_journal_full
_citation_year
_citation_journal_volume
_citation_page_first
_citation_page_last
_citation_journal_id_ASTM
primary 'Canadian Mineralogist' 2003 41 707 719 CAMIA6
loop_
_publ_author_name
'Krivovichev, S.V.'
'Burns, P.C.'
_cell_length_a 20.5823(14)
_cell_length_b 7.4391(5)
_cell_length_c 26.2514(17)
_cell_angle_alpha 90
_cell_angle_beta 90
_cell_angle_gamma 90
_cell_volume 4019.45
_cell_formula_units_Z 8
_symmetry_space_group_name_H-M 'P b c n'
_symmetry_Int_Tables_number 60
_refine_ls_R_factor_all 0.06
loop_
_symmetry_equiv_pos_site_id
_symmetry_equiv_pos_as_xyz
1 'x, -y, z+1/2'
2 '-x+1/2, y+1/2, z'
3 'x+1/2, y+1/2, -z+1/2'
4 '-x, -y, -z'
5 '-x, y, -z+1/2'
6 'x+1/2, -y+1/2, -z'
7 '-x+1/2, -y+1/2, z+1/2'
8 'x, y, z'
loop_
_atom_type_symbol
_atom_type_oxidation_number
U6+ 6
Mo6+ 6
Tl1+ 1
Na1+ 1
O2- -2
loop_
_atom_site_label
_atom_site_type_symbol
_atom_site_symmetry_multiplicity
_atom_site_Wyckoff_symbol
_atom_site_fract_x
_atom_site_fract_y
_atom_site_fract_z
_atom_site_B_iso_or_equiv
_atom_site_occupancy
_atom_site_attached_hydrogens
U1 U6+ 8 d 0.50971(3) 0.37338(9) 0.12930(2) 0.0155(1) 1. 0
Mo1 Mo6+ 8 d 0.40279(7) 0.7642(2) -.00948(6) 0.0187(3) 1. 0
Mo2 Mo6+ 8 d 0.39264(7) 0.3970(2) 0.24780(5) 0.0170(3) 1. 0
Mo3 Mo6+ 8 d 0.67391(7) 0.6356(2) 0.12343(5) 0.0168(3) 1. 0
Mo4 Mo6+ 8 d 0.34990(8) 0.1179(2) 0.11875(6) 0.0255(3) 1. 0
Tl1 Tl1+ 8 d 0.32829(4) 0.62135(12) 0.11755(3) 0.0348(2) 1. 0
Tl2 Tl1+ 8 d 0.57676(4) 0.74199(11) 0.00878(3) 0.0302(2) 1. 0
Tl3 Tl1+ 8 d 0.21487(4) 0.39732(10) 0.24619(3) 0.0338(2) 1. 0
Na1 Na1+ 8 d 0.8404(3) 0.6305(8) 0.1344(3) 0.022(2) 1. 0
Na2 Na1+ 8 d 0.2590(4) 0.0386(11) -0.0162(3) 0.033(2) 1. 0
Na3 Na1+ 8 d 0.967(2) 0.332(5) 0.1870(16) 0.070(15) 0.35(4) 0
Na4 Na1+ 8 d 0.9949(9) 0.363(2) 0.1622(8) 0.059(7) 0.65(4) 0
O1 O2- 8 d 0.4133(5) 0.2709(17) 0.0954(4) 0.024(3) 1. 0
O2 O2- 8 d 0.3503(6) 0.5992(16) 0.0135(5) 0.024(3) 1. 0
O3 O2- 8 d 0.5411(5) 0.1478(16) 0.1409(4) 0.021(3) 1. 0
O4 O2- 8 d 0.4686(6) 0.6544(15) -0.0438(4) 0.020(3) 1. 0
O5 O2- 8 d 0.3591(7) 0.9173(17) -0.0492(5) 0.031(3) 1. 0
O6 O2- 8 d 0.4387(6) 0.8817(18) 0.0392(5) 0.034(3) 1. 0
O7 O2- 8 d 0.7120(6) 0.6971(17) 0.0666(5) 0.028(3) 1. 0
O8 O2- 8 d 0.3401(7) 0.5621(17) 0.2267(5) 0.032(3) 1. 0
O9 O2- 8 d 0.6207(6) 0.4534(18) 0.1128(5) 0.027(3) 1. 0
O10 O2- 8 d 0.4427(6) 0.4963(17) 0.2954(4) 0.026(3) 1. 0
O11 O2- 8 d 0.6325(7) 0.8187(17) 0.1496(5) 0.035(3) 1. 0
O12 O2- 8 d 0.4820(6) 0.5961(19) 0.1198(5) 0.033(3) 1. 0
O13 O2- 8 d 0.3457(6) 0.2273(18) 0.2763(5) 0.030(3) 1. 0
O14 O2- 8 d 0.2967(7) 0.235(2) 0.1601(6) 0.049(4) 1. 0
O15 O2- 8 d 0.7351(7) 0.572(2) 0.1668(6) 0.043(4) 1. 0
O16 O2- 8 d 0.3808(9) -0.0596(19) 0.1554(6) 0.050(4) 1. 0
O17 O2- 8 d 0.3060(7) 0.034(2) 0.0673(6) 0.044(4) 1. 0
O18 O2- 8 d 0.4397(6) 0.3020(19) 0.1975(5) 0.035(3) 1. 0
loop_
_atom_site_aniso_label
_atom_site_aniso_type_symbol
_atom_site_aniso_U_11
_atom_site_aniso_U_22
_atom_site_aniso_U_33
_atom_site_aniso_U_12
_atom_site_aniso_U_13
_atom_site_aniso_U_23
U1 U6+ 0.0090(2) 0.0218(3) 0.0156(3) -.0010(2) 0.0002(2) -.0018(3)
Mo1 Mo6+ 0.0138(7) 0.0230(8) 0.0192(7) 0.0017(6) 0.0006(5) 0.0012(7)
Mo2 Mo6+ 0.0113(6) 0.0248(7) 0.0150(7) 0.0010(5) 0.0017(5) 0.0011(6)
Mo3 Mo6+ 0.0137(6) 0.0194(7) 0.0174(7) -.0029(6) 0.0005(5) 0.0018(6)
Mo4 Mo6+ 0.0248(8) 0.0275(9) 0.0240(8) -.0069(7) 0.0057(6) -.0056(7)
Tl1 Tl1+ 0.0309(4) 0.0412(5) 0.0323(4) 0.0026(4) -.0017(3) -.0033(4)
Tl2 Tl1+ 0.0239(4) 0.0364(4) 0.0303(4) -.0019(3) -.0096(3) -.0015(4)
Tl3 Tl1+ 0.0291(4) 0.0315(4) 0.0409(5) -.0013(3) -.0018(3) -.0077(4)
Na1 Na1+ 0.013(3) 0.013(3) 0.040(4) -.011(3) 0.014(3) -.013(3)
Na2 Na1+ 0.018(4) 0.037(4) 0.046(5) -.001(3) 0.000(3) -.009(4)
O1 O2- 0.011(6) 0.040(8) 0.022(6) -.004(5) -.001(5) 0.009(6)
O2 O2- 0.018(6) 0.022(7) 0.031(7) -.005(5) 0.003(5) 0.000(6)
O3 O2- 0.012(5) 0.025(7) 0.027(7) -.002(5) 0.006(5) -.004(5)
O4 O2- 0.023(6) 0.018(6) 0.018(6) -.004(5) -.003(5) -.001(5)
O5 O2- 0.034(8) 0.030(8) 0.029(8) 0.008(6) -.005(6) 0.005(6)
O6 O2- 0.023(7) 0.038(8) 0.040(8) 0.009(6) -.010(6) 0.008(7)
O7 O2- 0.023(7) 0.036(8) 0.026(7) -.005(6) 0.007(5) -.005(6)
O8 O2- 0.035(8) 0.024(7) 0.037(8) 0.006(6) -.019(6) 0.001(6)
O9 O2- 0.017(6) 0.033(7) 0.031(7) 0.003(5) 0.007(5) -.001(6)
O10 O2- 0.013(6) 0.040(8) 0.024(7) -.008(5) -.010(5) 0.000(6)
O11 O2- 0.041(9) 0.019(7) 0.044(9) -.002(6) 0.022(7) -.002(6)
O12 O2- 0.015(6) 0.043(9) 0.041(8) 0.010(6) 0.003(5) 0.002(7)
O13 O2- 0.032(8) 0.037(8) 0.021(7) -.010(6) 0.006(5) 0.004(6)
O14 O2- 0.022(8) 0.058(10) 0.068(11) -.007(7) 0.025(7) -.016(9)
O15 O2- 0.029(8) 0.052(10) 0.049(10) -.007(7) 0.013(7) 0.006(8)
O16 O2- 0.085(13) 0.028(8) 0.036(9) -.010(8) 0.017(8) 0.000(7)
O17 O2- 0.018(7) 0.065(10) 0.049(9) -.016(7) 0.011(6) -.025(8)
O18 O2- 0.024(7) 0.051(9) 0.029(8) -.002(7) 0.006(6) -.016(7)
#End of TTdata_97306-ICSD