
#(C) 2019 by FIZ Karlsruhe - Leibniz Institute for Information Infrastructure.  All rights reserved.
data_97538-ICSD
_database_code_ICSD 97538
_audit_creation_date 2004-10-01
_chemical_name_systematic 'Sodium iron(III) molybdenum oxide (3/2/5/16)'
_chemical_formula_structural 'Na3 Fe2 Mo5 O16'
_chemical_formula_sum 'Fe2 Mo5 Na3 O16'
_exptl_crystal_density_diffrn 4.85
_publ_section_title

;
Preparation, crystal structure and magnetic studies of Na3 Fe2 Mo5 O16, a new
oxide containing Mo3 O13 clusters
;
loop_
_citation_id
_citation_journal_full
_citation_year
_citation_journal_volume
_citation_page_first
_citation_page_last
_citation_journal_id_ASTM
primary 'Journal of Solid State Chemistry' 2003 176 192 197 JSSCBI
loop_
_publ_author_name
'Bramnik, K.G.'
'Muessig, E.'
'Ehrenberg, H.'
_cell_length_a 5.7366(6)
_cell_length_b 5.7366(6)
_cell_length_c 22.038(3)
_cell_angle_alpha 90
_cell_angle_beta 90
_cell_angle_gamma 120
_cell_volume 628.08
_cell_formula_units_Z 2
_symmetry_space_group_name_H-M 'P -3 m 1'
_symmetry_Int_Tables_number 164
_refine_ls_R_factor_all 0.0475
loop_
_symmetry_equiv_pos_site_id
_symmetry_equiv_pos_as_xyz
1 'x-y, -y, -z'
2 '-x, -x+y, -z'
3 'y, x, -z'
4 'x-y, x, -z'
5 'y, -x+y, -z'
6 '-x, -y, -z'
7 '-x+y, y, z'
8 'x, x-y, z'
9 '-y, -x, z'
10 '-x+y, -x, z'
11 '-y, x-y, z'
12 'x, y, z'
loop_
_atom_type_symbol
_atom_type_oxidation_number
Mo6+ 6
Mo3+ 3.667
Fe3+ 3
Na1+ 1
O2- -2
loop_
_atom_site_label
_atom_site_type_symbol
_atom_site_symmetry_multiplicity
_atom_site_Wyckoff_symbol
_atom_site_fract_x
_atom_site_fract_y
_atom_site_fract_z
_atom_site_B_iso_or_equiv
_atom_site_occupancy
_atom_site_attached_hydrogens
Mo1 Mo6+ 2 d 0.6667 0.3333 0.56780(8) 0.004(1) 1. 0
Mo2 Mo6+ 2 d 0.6667 0.3333 0.06459(8) 0.005(1) 1. 0
Mo3 Mo3+ 6 i 0.4825(1) 0.9650(2) 0.25603(4) 0.003(1) 1. 0
Fe1 Fe3+ 2 c 0 0 0.6480(1) 0.004(1) 1. 0
Fe2 Fe3+ 2 c 0 0 0.1486(1) 0.005(1) 1. 0
Na1 Na1+ 1 a 0 0 0 0.023(3) 1. 0
Na2 Na1+ 1 b 0 0 0.5 0.014(3) 1. 0
Na3 Na1+ 2 d 0.6667 0.3333 0.3871(4) 0.018(2) 1. 0
Na4 Na1+ 2 d 0.6667 0.3333 0.8837(4) 0.024(2) 1. 0
O1 O2- 2 d 0.6667 0.3333 0.4900(7) 0.012(3) 1. 0
O2 O2- 2 d 0.6667 0.3333 0.6801(6) 0.002(3) 1. 0
O3 O2- 6 i 0.6662(15) 0.8331(8) 0.6953(4) 0.003(2) 1. 0
O4 O2- 6 i 0.3364(16) 0.1682(8) 0.7992(4) 0.005(2) 1. 0
O5 O2- 2 d 0.6667 0.3333 0.9861(8) 0.017(4) 1. 0
O6 O2- 2 d 0.6667 0.3333 0.2097(7) 0.005(3) 1. 0
O7 O2- 6 i 0.8417(9) 0.1583(9) 0.5853(4) 0.012(2) 1. 0
O8 O2- 6 i 0.8362(9) 0.1638(9) 0.0891(4) 0.019(2) 1. 0
#End of TTdata_97538-ICSD