
#(C) 2019 by FIZ Karlsruhe - Leibniz Institute for Information Infrastructure.  All rights reserved.
data_97543-ICSD
_database_code_ICSD 97543
_audit_creation_date 2004-10-01
_audit_update_record 2008-02-01
_chemical_name_systematic 'Sodium erbium oxide'
_chemical_formula_structural 'Na Er O2'
_chemical_formula_sum 'Er1 Na1 O2'
_chemical_name_structure_type NaErO2
_exptl_crystal_density_diffrn 6.85
_publ_section_title
'Magnetic properties of ternary sodium oxides Na Ln O2 (Ln = rare earths)'
loop_
_citation_id
_citation_journal_full
_citation_year
_citation_journal_volume
_citation_page_first
_citation_page_last
_citation_journal_id_ASTM
primary 'Journal of Solid State Chemistry' 2003 176 266 272 JSSCBI
loop_
_publ_author_name
'Hashimoto, Y.'
'Wakeshima, M.'
'Hinatsu, Y.'
_cell_length_a 9.9243(12)
_cell_length_b 13.1369(7)
_cell_length_c 6.0216(7)
_cell_angle_alpha 90
_cell_angle_beta 146.713(14)
_cell_angle_gamma 90
_cell_volume 430.87
_cell_formula_units_Z 8
_symmetry_space_group_name_H-M 'C 1 2/c 1'
_symmetry_Int_Tables_number 15
_refine_ls_R_factor_all 0.0388
loop_
_symmetry_equiv_pos_site_id
_symmetry_equiv_pos_as_xyz
1 'x, -y, z+1/2'
2 '-x, -y, -z'
3 '-x, y, -z+1/2'
4 'x, y, z'
5 'x+1/2, -y+1/2, z+1/2'
6 '-x+1/2, -y+1/2, -z'
7 '-x+1/2, y+1/2, -z+1/2'
8 'x+1/2, y+1/2, z'
loop_
_atom_type_symbol
_atom_type_oxidation_number
Na1+ 1
Er3+ 3
O2- -2
loop_
_atom_site_label
_atom_site_type_symbol
_atom_site_symmetry_multiplicity
_atom_site_Wyckoff_symbol
_atom_site_fract_x
_atom_site_fract_y
_atom_site_fract_z
_atom_site_B_iso_or_equiv
_atom_site_occupancy
_atom_site_attached_hydrogens
Na1 Na1+ 4 e 0 0.572(2) 0.25 0.4 1. 0
Na2 Na1+ 4 e 0 0.811(2) 0.25 0.4 1. 0
Er1 Er3+ 4 e 0 0.057(1) 0.25 0.4 1. 0
Er2 Er3+ 4 e 0 0.317(1) 0.25 0.4 1. 0
O1 O2- 8 f 0.234(2) 0.057(2) 0.256(3) 0.6 1. 0
O2 O2- 8 f 0.256(2) 0.307(2) 0.308(3) 0.6 1. 0
#End of TTdata_97543-ICSD