
#(C) 2019 by FIZ Karlsruhe - Leibniz Institute for Information Infrastructure.  All rights reserved.
data_97669-ICSD
_database_code_ICSD 97669
_audit_creation_date 2004-10-01
_audit_update_record 2006-04-01
_chemical_name_systematic 'Sodium niobate'
_chemical_formula_structural 'Na (Nb O3)'
_chemical_formula_sum 'Na1 Nb1 O3'
_chemical_name_structure_type Perovskite-NaNbO3
_exptl_crystal_density_diffrn 4.57
_publ_section_title

;
A new series of oxygen-deficient perovskites in the Na Tix Nb1-x O3-0.5x
system: synthesis, crystal chemistry and energetics
;
loop_
_citation_id
_citation_journal_full
_citation_year
_citation_journal_volume
_citation_page_first
_citation_page_last
_citation_journal_id_ASTM
primary 'Chemistry of Materials' 2003 15 1872 1878 CMATEX
loop_
_publ_author_name
'Xu Hongwu'
'Su Ya-L'
'Balmer, M.L.'
'Navrotsky, A.'
_cell_length_a 5.5625(4)
_cell_length_b 15.5495(10)
_cell_length_c 5.5138(4)
_cell_angle_alpha 90
_cell_angle_beta 90
_cell_angle_gamma 90
_cell_volume 476.91
_cell_formula_units_Z 8
_symmetry_space_group_name_H-M 'P b m a'
_symmetry_Int_Tables_number 57
_refine_ls_R_factor_all 0.028
loop_
_symmetry_equiv_pos_site_id
_symmetry_equiv_pos_as_xyz
1 '-x+1/2, y+1/2, z'
2 'x+1/2, y, -z'
3 'x, -y+1/2, z'
4 '-x, -y, -z'
5 'x+1/2, -y+1/2, -z'
6 '-x+1/2, -y, z'
7 '-x, y+1/2, -z'
8 'x, y, z'
loop_
_atom_type_symbol
_atom_type_oxidation_number
Na1+ 1
Nb5+ 5
O2- -2
loop_
_atom_site_label
_atom_site_type_symbol
_atom_site_symmetry_multiplicity
_atom_site_Wyckoff_symbol
_atom_site_fract_x
_atom_site_fract_y
_atom_site_fract_z
_atom_site_B_iso_or_equiv
_atom_site_occupancy
_atom_site_attached_hydrogens
Na1 Na1+ 4 c 0.75 0 0.234(2) 0.0149(5) 1. 0
Na2 Na1+ 4 d 0.743(2) 0.25 0.240(2) 0.0149(5) 1. 0
Nb1 Nb5+ 8 e 0.2583(4) 0.1260(2) 0.2462(5) 0.0040(2) 1. 0
O1 O2- 4 c 0.25 0 0.3110(8) 0.0069(2) 1. 0
O2 O2- 4 d 0.2402(12) 0.25 0.1817(8) 0.0069(2) 1. 0
O3 O2- 8 e 0.0679(5) 0.1397(2) 0.5443(6) 0.0069(2) 1. 0
O4 O2- 8 e 0.4919(8) 0.1102(2) -0.0119(8) 0.0069(2) 1. 0
#End of TTdata_97669-ICSD