
#(C) 2019 by FIZ Karlsruhe - Leibniz Institute for Information Infrastructure.  All rights reserved.
data_97842-ICSD
_database_code_ICSD 97842
_audit_creation_date 2004-10-01
_chemical_name_systematic 'Hexasodium tecto-hexaalumotriacontasilicate'
_chemical_formula_structural 'Na6 (Al6 Si30 O72)'
_chemical_formula_sum 'Al6 Na6 O72 Si30'
_chemical_name_structure_type Heulandite-frame
_chemical_name_mineral 'Clinoptilolite (Na-exchanged, dehydrated)'
_exptl_crystal_density_diffrn 1.96
_cell_measurement_temperature 573.
_publ_section_title

;
Cation exchange, dehydration and calcination in clinoptilolite: in situ X-ray
diffraction and computer modelling
;
loop_
_citation_id
_citation_journal_full
_citation_year
_citation_journal_volume
_citation_page_first
_citation_page_last
_citation_journal_id_ASTM
primary 'Journal of Physical Chemistry B' 2003 107 942 951 JPCBFK
loop_
_publ_author_name
'Johnson, M.'
'O'Connor, D.'
'Barnes, P.'
'Catlow, C.R.A.'
'Owens, S.L.'
'Sankar, G.'
'Bell, R.'
'Teat, S.J.'
'Stephenson, R.'
_cell_length_a 17.009(6)
_cell_length_b 17.003(5)
_cell_length_c 7.399(2)
_cell_angle_alpha 90
_cell_angle_beta 114.733(8)
_cell_angle_gamma 90
_cell_volume 1943.53
_cell_formula_units_Z 1
_symmetry_space_group_name_H-M 'C 1 2/m 1'
_symmetry_Int_Tables_number 12
_refine_ls_R_factor_all 0.045
loop_
_symmetry_equiv_pos_site_id
_symmetry_equiv_pos_as_xyz
1 '-x, y, -z'
2 '-x, -y, -z'
3 'x, -y, z'
4 'x, y, z'
5 '-x+1/2, y+1/2, -z'
6 '-x+1/2, -y+1/2, -z'
7 'x+1/2, -y+1/2, z'
8 'x+1/2, y+1/2, z'
loop_
_atom_type_symbol
_atom_type_oxidation_number
Si4+ 4
Al3+ 3
Si4+ 4
O2- -2
Na1+ 1
loop_
_atom_site_label
_atom_site_type_symbol
_atom_site_symmetry_multiplicity
_atom_site_Wyckoff_symbol
_atom_site_fract_x
_atom_site_fract_y
_atom_site_fract_z
_atom_site_B_iso_or_equiv
_atom_site_occupancy
_atom_site_attached_hydrogens
Si1 Si4+ 8 j 0.32117 0.40915 0.63426 0.0197 0.25 0
Al1 Al3+ 8 j 0.32117 0.40915 0.63426 0.0197 0.75 0
Si2 Si4+ 8 j 0.42809 0.26053 0.78646 0.0215 1. 0
Si3 Si4+ 8 j 0.26115 0.17743 0.77356 0.0235 1. 0
Si4 Si4+ 8 j 0.18275 0.34557 0.77892 0.0227 1. 0
Si5 Si4+ 4 h 0 0.31142 0.5 0.0239 1. 0
O1 O2- 4 i 0.3601 0.5 0.6798 0.0329 1. 0
O2 O2- 8 j 0.4041 0.35342 0.7793 0.0423 1. 0
O3 O2- 8 j 0.2092 0.1113 0.6065 0.0371 1. 0
O4 O2- 8 j 0.2399 0.4002 0.6988 0.0424 1. 0
O5 O2- 8 j 0.3418 0.2074 0.7314 0.0494 1. 0
O6 O2- 4 g 0.5 0.2372 0 0.072 1. 0
O7 O2- 8 j 0.4675 0.2454 0.6264 0.0543 1. 0
O8 O2- 8 j 0.19868 0.25089 0.7657 0.033 1. 0
O9 O2- 8 j 0.2912 0.13085 -0.014 0.0372 1. 0
O10 O2- 8 j 0.07981 0.36816 0.6428 0.0382 1. 0
Na1 Na1+ 4 i 0.2456(3) 0 0.8558(6) 0.094(2) 0.705(7) 0
Na2 Na1+ 4 g 0.5 0.4639(5) 0 0.111(3) 0.442(8) 0
Na3 Na1+ 2 d 0 0.5 0.5 0.113(5) 0.39(1) 0
Na4 Na1+ 4 i 0.099(2) 0.5 0.539(3) 0.111(6) 0.160(7) 0
#End of TTdata_97842-ICSD