
#(C) 2019 by FIZ Karlsruhe - Leibniz Institute for Information Infrastructure.  All rights reserved.
data_97911-ICSD
_database_code_ICSD 97911
_audit_creation_date 2004-10-01
_audit_update_record 2008-02-01
_chemical_name_systematic 'Sodium calcium hydroxotrioxosilicate'
_chemical_formula_structural 'Na Ca (Si O3 (O H))'
_chemical_formula_sum 'H1 Ca1 Na1 O4 Si1'
_chemical_name_structure_type NaCaHSiO4
_exptl_crystal_density_diffrn 2.79
_publ_section_title

;
The effect of calcium on phase formation in the sodium aluminium silicate
carbonate system and the structure of Na Ca Si O3 O H
;
loop_
_citation_id
_citation_journal_full
_citation_year
_citation_journal_volume
_citation_page_first
_citation_page_last
_citation_journal_id_ASTM
primary 'Microporous and Mesoporous Materials' 2003 59 185 194 MIMMFJ
loop_
_publ_author_name
'Kenyon, N.J.'
'Weller, M.T.'
_cell_length_a 5.70751(17)
_cell_length_b 7.04953(27)
_cell_length_c 5.46930(18)
_cell_angle_alpha 90
_cell_angle_beta 122.3649(14)
_cell_angle_gamma 90
_cell_volume 185.87
_cell_formula_units_Z 2
_symmetry_space_group_name_H-M 'P 1 21 1'
_symmetry_Int_Tables_number 4
_refine_ls_R_factor_all 0.0125
loop_
_symmetry_equiv_pos_site_id
_symmetry_equiv_pos_as_xyz
1 '-x, y+1/2, -z'
2 'x, y, z'
loop_
_atom_type_symbol
_atom_type_oxidation_number
Ca2+ 2
Si4+ 4
Na1+ 1
O2- -2
H1+ 1
loop_
_atom_site_label
_atom_site_type_symbol
_atom_site_symmetry_multiplicity
_atom_site_Wyckoff_symbol
_atom_site_fract_x
_atom_site_fract_y
_atom_site_fract_z
_atom_site_B_iso_or_equiv
_atom_site_occupancy
_atom_site_attached_hydrogens
Ca1 Ca2+ 2 a -0.0009(21) 0 -0.0069(21) 0.0034(7) 1. 0
Si1 Si4+ 2 a 0.3404(6) 0.2474(25) 0.7134(6) 0.0002(7) 1. 0
Na1 Na1+ 2 a 0.6396(10) 0.244(4) 0.3780(11) 0.0174(9) 1. 0
O1 O2- 2 a 0.2352(5) 0.2414(21) -0.0643(6) 0.0061(6) 1. 0
O2 O2- 2 a 0.6712(5) 0.2420(24) 0.8710(6) 0.0053(6) 1. 0
O3 O2- 2 a 0.2113(15) 0.0552(16) 0.5126(15) 0.0048(13) 1. 0
O4 O2- 2 a 0.2074(17) 0.4296(17) 0.4929(15) 0.0104(17) 1. 0
H1 H1+ 2 a 0.0346(21) 0.4830(20) 0.5114(24) 0.0252(16) 1. 0
#End of TTdata_97911-ICSD