
#(C) 2019 by FIZ Karlsruhe - Leibniz Institute for Information Infrastructure.  All rights reserved.
data_98048-ICSD
_database_code_ICSD 98048
_audit_creation_date 2004-10-01
_chemical_name_systematic 'Sodium potassium bismuth titanate (0.3/0.2/0.5/1)'
_chemical_formula_structural '(Na0.6 K0.4)0.5 Bi0.5 (Ti O3)'
_chemical_formula_sum 'Bi0.5 K0.2 Na0.3 O3 Ti1'
_chemical_name_structure_type LiNbO3
_exptl_crystal_density_diffrn 6.03
_publ_section_title

;
A structural study of the (Na1-x Kx)0.5 Bi0.5 Ti O3 perovskite series as a
function of substitution (x) and temperature
;
loop_
_citation_id
_citation_journal_full
_citation_year
_citation_journal_volume
_citation_page_first
_citation_page_last
_citation_journal_id_ASTM
primary 'Powder Diffraction' 2002 17 301 319 PODIE2
loop_
_publ_author_name
'Jones, G.O.'
'Kreisel, J.'
'Thomas, P.A.'
_cell_length_a 5.5047(2)
_cell_length_b 5.5047(2)
_cell_length_c 13.5341(7)
_cell_angle_alpha 90
_cell_angle_beta 90
_cell_angle_gamma 120
_cell_volume 355.16
_cell_formula_units_Z 6
_symmetry_space_group_name_H-M 'R 3 c H'
_symmetry_Int_Tables_number 161
_refine_ls_R_factor_all 0.098
loop_
_symmetry_equiv_pos_site_id
_symmetry_equiv_pos_as_xyz
1 '-x+y, y, z+1/2'
2 'x, x-y, z+1/2'
3 '-y, -x, z+1/2'
4 '-x+y, -x, z'
5 '-y, x-y, z'
6 'x, y, z'
7 '-x+y+2/3, y+1/3, z+5/6'
8 'x+2/3, x-y+1/3, z+5/6'
9 '-y+2/3, -x+1/3, z+5/6'
10 '-x+y+2/3, -x+1/3, z+1/3'
11 '-y+2/3, x-y+1/3, z+1/3'
12 'x+2/3, y+1/3, z+1/3'
13 '-x+y+1/3, y+2/3, z+1/6'
14 'x+1/3, x-y+2/3, z+1/6'
15 '-y+1/3, -x+2/3, z+1/6'
16 '-x+y+1/3, -x+2/3, z+2/3'
17 '-y+1/3, x-y+2/3, z+2/3'
18 'x+1/3, y+2/3, z+2/3'
loop_
_atom_type_symbol
_atom_type_oxidation_number
Na1+ 1
K1+ 1
Bi3+ 3
Ti4+ 4
O2- -2
loop_
_atom_site_label
_atom_site_type_symbol
_atom_site_symmetry_multiplicity
_atom_site_Wyckoff_symbol
_atom_site_fract_x
_atom_site_fract_y
_atom_site_fract_z
_atom_site_B_iso_or_equiv
_atom_site_occupancy
_atom_site_attached_hydrogens
Na1 Na1+ 6 a 0 0 0.2553(9) . 0.3 0
K1 K1+ 6 a 0 0 0.2553(9) . 0.2 0
Bi1 Bi3+ 6 a 0 0 0.2553(9) . 0.5 0
Ti1 Ti4+ 6 a 0 0 0.0011(4) . 1. 0
O1 O2- 18 b 0.1431(2) 0.3385(4) 0.0833 . 1. 0
loop_
_atom_site_aniso_label
_atom_site_aniso_type_symbol
_atom_site_aniso_U_11
_atom_site_aniso_U_22
_atom_site_aniso_U_33
_atom_site_aniso_U_12
_atom_site_aniso_U_13
_atom_site_aniso_U_23
Na1 Na1+ 0.038(1) 0.038(1) -.019(1) 0.019(6) 0. 0.
K1 K1+ 0.027(2) 0.027(2) -.004(2) 0.013(8) 0. 0.
Bi1 Bi3+ 0.081(6) 0.081(6) 0.048(7) 0.040(3) 0. 0.
Ti1 Ti4+ 0.041(3) 0.041(3) -.038(3) 0.021(1) 0. 0.
O1 O2- 0.017(4) 0.022(6) 0.027(4) 0.026(6) -.011(2) -.012(1)
#End of TTdata_98048-ICSD