
#(C) 2019 by FIZ Karlsruhe - Leibniz Institute for Information Infrastructure.  All rights reserved.
data_9829-ICSD
_database_code_ICSD 9829
_audit_creation_date 1980-01-01
_audit_update_record 1999-06-02
_chemical_name_systematic 'Sodium tecto-alumotrisilicate *'
_chemical_formula_structural 'Na Al Si3 O8'
_chemical_formula_sum 'Al1 Na1 O8 Si3'
_chemical_name_structure_type Feldspar#-(TC)-Albite-NaAlSi3O8
_chemical_name_mineral 'Albite high'
_exptl_crystal_density_diffrn 2.62
_cell_measurement_temperature 297.
_publ_section_title
'The crystal structures of high albite and monalbite at high temperatures'
loop_
_citation_id
_citation_journal_full
_citation_year
_citation_journal_volume
_citation_page_first
_citation_page_last
_citation_journal_id_ASTM
primary 'American Mineralogist' 1976 61 1213 1225 AMMIAY
loop_
_publ_author_name
'Prewitt, C.T.'
'Sueno, S.'
'Papike, J.J.'
_cell_length_a 8.1535(4)
_cell_length_b 12.8694(5)
_cell_length_c 7.1070(4)
_cell_angle_alpha 93.521(4)
_cell_angle_beta 116.458(3)
_cell_angle_gamma 90.257(3)
_cell_volume 665.95
_cell_formula_units_Z 4
_symmetry_space_group_name_H-M 'C -1'
_symmetry_Int_Tables_number 2
_refine_ls_R_factor_all 0.048
loop_
_symmetry_equiv_pos_site_id
_symmetry_equiv_pos_as_xyz
1 '-x, -y, -z'
2 'x, y, z'
3 '-x+1/2, -y+1/2, -z'
4 'x+1/2, y+1/2, z'
loop_
_atom_type_symbol
_atom_type_oxidation_number
Na1+ 1
Al3+ 3
Si4+ 4
O2- -2
loop_
_atom_site_label
_atom_site_type_symbol
_atom_site_symmetry_multiplicity
_atom_site_Wyckoff_symbol
_atom_site_fract_x
_atom_site_fract_y
_atom_site_fract_z
_atom_site_B_iso_or_equiv
_atom_site_occupancy
_atom_site_attached_hydrogens
Na1 Na1+ 4 i 0.2737(3) 0.0073(3) 0.1329(5) 7.62(11) 1. 0
Al1 Al3+ 4 i 0.0090(1) 0.1650(1) 0.2148(1) 0.78(1) 0.25 0
Al2 Al3+ 4 i 0.0048(1) 0.8145(1) 0.2290(1) 0.78(1) 0.25 0
Al3 Al3+ 4 i 0.6902(1) 0.1079(1) 0.3202(1) 0.82(1) 0.25 0
Al4 Al3+ 4 i 0.6849(1) 0.8776(1) 0.3535(1) 0.79(1) 0.25 0
Si1 Si4+ 4 i 0.0090(1) 0.1650(1) 0.2148(1) 0.78(1) 0.75 0
Si2 Si4+ 4 i 0.0048(1) 0.8145(1) 0.2290(1) 0.78(1) 0.75 0
Si3 Si4+ 4 i 0.6902(1) 0.1079(1) 0.3202(1) 0.82(1) 0.75 0
Si4 Si4+ 4 i 0.6849(1) 0.8776(1) 0.3535(1) 0.79(1) 0.75 0
O1 O2- 4 i 0.0055(4) 0.1351(2) 0.9845(4) 1.62(4) 1. 0
O2 O2- 4 i 0.5916(3) 0.9907(2) 0.2783(4) 1.32(4) 1. 0
O3 O2- 4 i 0.8212(4) 0.1084(2) 0.1990(4) 1.65(4) 1. 0
O4 O2- 4 i 0.8184(4) 0.8470(2) 0.2455(4) 1.89(4) 1. 0
O5 O2- 4 i 0.0162(3) 0.2902(2) 0.2770(4) 1.45(4) 1. 0
O6 O2- 4 i 0.0213(3) 0.6873(2) 0.2180(4) 1.49(4) 1. 0
O7 O2- 4 i 0.1959(3) 0.1123(2) 0.3876(4) 1.44(4) 1. 0
O8 O2- 4 i 0.1885(3) 0.8675(2) 0.4266(4) 1.62(4) 1. 0
#End of TTdata_9829-ICSD