
#(C) 2019 by FIZ Karlsruhe - Leibniz Institute for Information Infrastructure.  All rights reserved.
data_9833-ICSD
_database_code_ICSD 9833
_audit_creation_date 1980-01-01
_audit_update_record 1999-06-02
_chemical_name_systematic 'Sodium tecto-alumotrisilicate'
_chemical_formula_structural 'Na Al Si3 O8'
_chemical_formula_sum 'Al1 Na1 O8 Si3'
_chemical_name_structure_type Feldspar#-(TC)-Albite-NaAlSi3O8
_chemical_name_mineral 'Albite high'
_exptl_crystal_density_diffrn 2.54
_cell_measurement_temperature 1223.
_publ_section_title
'The crystal structures of high albite and monalbite at high temperatures'
loop_
_citation_id
_citation_journal_full
_citation_year
_citation_journal_volume
_citation_page_first
_citation_page_last
_citation_journal_id_ASTM
primary 'American Mineralogist' 1976 61 1213 1225 AMMIAY
loop_
_publ_author_name
'Prewitt, C.T.'
'Sueno, S.'
'Papike, J.J.'
_cell_length_a 8.2508(9)
_cell_length_b 12.9489(9)
_cell_length_c 7.1431(4)
_cell_angle_alpha 91.161(5)
_cell_angle_beta 116.169(5)
_cell_angle_gamma 90.030(5)
_cell_volume 684.76
_cell_formula_units_Z 4
_symmetry_space_group_name_H-M 'C -1'
_symmetry_Int_Tables_number 2
_refine_ls_R_factor_all 0.052
loop_
_symmetry_equiv_pos_site_id
_symmetry_equiv_pos_as_xyz
1 '-x, -y, -z'
2 'x, y, z'
3 '-x+1/2, -y+1/2, -z'
4 'x+1/2, y+1/2, z'
loop_
_atom_type_symbol
_atom_type_oxidation_number
Na1+ 1
Al3+ 3
Si4+ 4
O2- -2
loop_
_atom_site_label
_atom_site_type_symbol
_atom_site_symmetry_multiplicity
_atom_site_Wyckoff_symbol
_atom_site_fract_x
_atom_site_fract_y
_atom_site_fract_z
_atom_site_B_iso_or_equiv
_atom_site_occupancy
_atom_site_attached_hydrogens
Na1 Na1+ 4 i 0.2780(5) 0.0019(4) 0.1371(7) 1.66(15) 1. 0
Al1 Al3+ 4 i 0.0086(1) 0.1746(1) 0.2210(2) 2.17(2) 0.25 0
Al2 Al3+ 4 i 0.0072(1) 0.8194(1) 0.2253(2) 2.16(2) 0.25 0
Al3 Al3+ 4 i 0.6951(1) 0.1141(1) 0.3363(2) 2.20(2) 0.25 0
Al4 Al3+ 4 i 0.6938(1) 0.8820(1) 0.3465(2) 2.21(2) 0.25 0
Si1 Si4+ 4 i 0.0086(1) 0.1746(1) 0.2210(2) 2.17(2) 0.75 0
Si2 Si4+ 4 i 0.0072(1) 0.8194(1) 0.2253(2) 2.16(2) 0.75 0
Si3 Si4+ 4 i 0.6951(1) 0.1141(1) 0.3363(2) 2.20(2) 0.75 0
Si4 Si4+ 4 i 0.6938(1) 0.8820(1) 0.3465(2) 2.21(2) 0.75 0
O1 O2- 4 i 0.0016(5) 0.1380(3) 0.9952(5) 3.98(7) 1. 0
O2 O2- 4 i 0.6033(4) 0.9971(2) 0.2831(5) 3.22(6) 1. 0
O3 O2- 4 i 0.8226(5) 0.1282(3) 0.2169(6) 4.52(8) 1. 0
O4 O2- 4 i 0.8222(5) 0.8593(3) 0.2323(6) 4.75(8) 1. 0
O5 O2- 4 i 0.0239(4) 0.3005(2) 0.2619(6) 3.79(6) 1. 0
O6 O2- 4 i 0.0247(5) 0.6933(3) 0.2455(6) 3.89(6) 1. 0
O7 O2- 4 i 0.1894(5) 0.1198(3) 0.4001(5) 4.07(7) 1. 0
O8 O2- 4 i 0.1881(5) 0.8736(3) 0.4117(5) 4.13(7) 1. 0
#End of TTdata_9833-ICSD