
#(C) 2019 by FIZ Karlsruhe - Leibniz Institute for Information Infrastructure.  All rights reserved.
data_98461-ICSD
_database_code_ICSD 98461
_audit_creation_date 2005-04-01
_chemical_name_systematic 'Sodium manganese iron oxide (0.75/0.33/0.67/2)'
_chemical_formula_structural 'Na0.75 ((Mn0.333 Fe0.667) O2)'
_chemical_formula_sum 'Fe0.667 Mn0.333 Na0.75 O2'
_exptl_crystal_density_diffrn 4.16
_publ_section_title

;
Synthesis, structure and electrochemical properties of layered material, Li2/3
(Mn1/3 Fe2/3) O2 with mixed stacking states
;
loop_
_citation_id
_citation_journal_full
_citation_year
_citation_journal_volume
_citation_page_first
_citation_page_last
_citation_journal_id_ASTM
primary 'Solid State Ionics' 2003 161 31 39 SSIOD3
loop_
_publ_author_name
'Matsumura, T.'
'Sonoyama, N.'
'Kanno, R.'
_cell_length_a 2.93750(12)
_cell_length_b 2.93750(12)
_cell_length_c 11.1974(4)
_cell_angle_alpha 90
_cell_angle_beta 90
_cell_angle_gamma 120
_cell_volume 83.68
_cell_formula_units_Z 2
_symmetry_space_group_name_H-M 'P 63/m m c'
_symmetry_Int_Tables_number 194
_refine_ls_R_factor_all 0.0273
loop_
_symmetry_equiv_pos_site_id
_symmetry_equiv_pos_as_xyz
1 'x, x-y, -z+1/2'
2 '-x+y, y, -z+1/2'
3 '-y, -x, -z+1/2'
4 '-x+y, -x, -z+1/2'
5 '-y, x-y, -z+1/2'
6 'x, y, -z+1/2'
7 '-x, -x+y, z+1/2'
8 'x-y, -y, z+1/2'
9 'y, x, z+1/2'
10 'x-y, x, z+1/2'
11 'y, -x+y, z+1/2'
12 '-x, -y, z+1/2'
13 '-x, -x+y, -z'
14 'x-y, -y, -z'
15 'y, x, -z'
16 'x-y, x, -z'
17 'y, -x+y, -z'
18 '-x, -y, -z'
19 'x, x-y, z'
20 '-x+y, y, z'
21 '-y, -x, z'
22 '-x+y, -x, z'
23 '-y, x-y, z'
24 'x, y, z'
loop_
_atom_type_symbol
_atom_type_oxidation_number
Na1+ 1
Fe3+ 3
Mn3+ 3.75
O2- -2
loop_
_atom_site_label
_atom_site_type_symbol
_atom_site_symmetry_multiplicity
_atom_site_Wyckoff_symbol
_atom_site_fract_x
_atom_site_fract_y
_atom_site_fract_z
_atom_site_B_iso_or_equiv
_atom_site_occupancy
_atom_site_attached_hydrogens
Na1 Na1+ 2 b 0 0 0.25 0.47(6) 0.181(5) 0
Na2 Na1+ 2 d 0.6667 0.3333 0.25 0.47(6) 0.358(6) 0
Na3 Na1+ 4 e 0 0 0.439(2) 0.47(6) 0.105(8) 0
Fe1 Fe3+ 2 a 0 0 0 0.47(6) 0.667 0
Mn1 Mn3+ 2 a 0 0 0 0.47(6) 0.333 0
O1 O2- 4 f 0.3333 0.6667 0.890(4) 0.47(6) 1. 0
#End of TTdata_98461-ICSD