
#(C) 2019 by FIZ Karlsruhe - Leibniz Institute for Information Infrastructure.  All rights reserved.
data_98482-ICSD
_database_code_ICSD 98482
_audit_creation_date 2005-04-01
_chemical_name_systematic
'Pentabarium disodium diruthenate(V) ruthenate(VI) - LT'
_chemical_formula_structural 'Ba5 Na2 (Ru2 O9) (Ru O5)'
_chemical_formula_sum 'Ba5 Na2 O14 Ru3'
_exptl_crystal_density_diffrn 5.84
_cell_measurement_temperature 100.
_publ_section_title

;
Electrosynthesis, structural transitions and characterization of the new
10H-(Ba5 Ru3 Na2 O14)
;
loop_
_citation_id
_citation_journal_full
_citation_year
_citation_journal_volume
_citation_page_first
_citation_page_last
_citation_journal_id_ASTM
primary 'Solid State Sciences' 2003 5 1105 1116 SSSCFJ
loop_
_publ_author_name
'Quarez, E.'
'Mentre, O.'
_cell_length_a 5.845(1)
_cell_length_b 10.145(2)
_cell_length_c 24.163(5)
_cell_angle_alpha 90
_cell_angle_beta 90
_cell_angle_gamma 90
_cell_volume 1432.81
_cell_formula_units_Z 4
_symmetry_space_group_name_H-M 'C 2 2 21'
_symmetry_Int_Tables_number 20
_refine_ls_R_factor_all 0.0445
loop_
_symmetry_equiv_pos_site_id
_symmetry_equiv_pos_as_xyz
1 '-x, y, -z+1/2'
2 '-x, -y, z+1/2'
3 'x, -y, -z'
4 'x, y, z'
5 '-x+1/2, y+1/2, -z+1/2'
6 '-x+1/2, -y+1/2, z+1/2'
7 'x+1/2, -y+1/2, -z'
8 'x+1/2, y+1/2, z'
loop_
_atom_type_symbol
_atom_type_oxidation_number
Ba2+ 2
Ru5+ 5
Ru6+ 6
Na1+ 1
O2- -2
loop_
_atom_site_label
_atom_site_type_symbol
_atom_site_symmetry_multiplicity
_atom_site_Wyckoff_symbol
_atom_site_fract_x
_atom_site_fract_y
_atom_site_fract_z
_atom_site_B_iso_or_equiv
_atom_site_occupancy
_atom_site_attached_hydrogens
Ba1 Ba2+ 8 c 0.0075(9) 0.3247(2) 0.05651(4) 0.0236(4) 1. 0
Ba2 Ba2+ 8 c 0.9983(7) 0.9893(1) 0.16238(3) 0.0101(2) 1. 0
Ba3 Ba2+ 4 b 0 0.6563(2) 0.25 0.0074(3) 1. 0
Ru1 Ru5+ 8 c 0.9991(9) 0.3234(1) 0.19462(3) 0.0064(2) 1. 0
Ru2 Ru6+ 4 a 0.005(2) 0 0 0.0161(4) 1. 0
Na1 Na1+ 8 c 0.015(3) 0.6582(9) 0.0983(2) 0.002(1) 1. 0
O1 O2- 8 c 0.001(9) 0.834(1) 0.0373(6) 0.014(3) 1. 0
O2 O2- 8 c 0.810(4) 0.069(3) 0.0544(9) 0.053(6) 1. 0
O3 O2- 8 c 0.297(6) 0.043(4) 0.017(2) 0.04(1) 0.5 0
O4 O2- 8 c 0.780(5) 0.242(3) 0.153(1) 0.01 1. 0
O5 O2- 8 c 0.010(8) 0.476(1) 0.1522(8) 0.013(3) 1. 0
O6 O2- 8 c 0.250(4) 0.251(2) 0.154(1) 0.004(4) 1. 0
O7 O2- 8 c 0.767(2) 0.399(1) 0.246(1) 0.004(2) 1. 0
O8 O2- 4 b 0 0.172(2) 0.25 0.01 1. 0
#End of TTdata_98482-ICSD