
#(C) 2019 by FIZ Karlsruhe - Leibniz Institute for Information Infrastructure.  All rights reserved.
data_98564-ICSD
_database_code_ICSD 98564
_audit_creation_date 2005-04-01
_audit_update_record 2012-02-01
_chemical_name_systematic 'Disodium pentaoxodisilicate - kappa'
_chemical_formula_structural 'Na2 (Si2 O5)'
_chemical_formula_sum 'Na2 O5 Si2'
_chemical_name_structure_type Na2Si2O5(oP36)
_exptl_crystal_density_diffrn 2.57
_publ_section_title

;
Hydrothermal synthesis and structural characterization of kappa-(Na2 Si O5)
and Na1.84 K0.16 Si2 O5
;
loop_
_citation_id
_citation_journal_full
_citation_year
_citation_journal_volume
_citation_page_first
_citation_page_last
_citation_journal_id_ASTM
primary 'Solid State Sciences' 2003 5 473 480 SSSCFJ
loop_
_publ_author_name
'Rakic, S.'
'Kahlenberg, V.'
'Schmidt, B.C.'
_cell_length_a 8.128(1)
_cell_length_b 4.8322(8)
_cell_length_c 11.977(3)
_cell_angle_alpha 90
_cell_angle_beta 90
_cell_angle_gamma 90
_cell_volume 470.41
_cell_formula_units_Z 4
_symmetry_space_group_name_H-M 'P n 21 a'
_symmetry_Int_Tables_number 33
_refine_ls_R_factor_all 0.035
loop_
_symmetry_equiv_pos_site_id
_symmetry_equiv_pos_as_xyz
1 'x+1/2, y, -z+1/2'
2 '-x+1/2, y+1/2, z+1/2'
3 '-x, y+1/2, -z'
4 'x, y, z'
loop_
_atom_type_symbol
_atom_type_oxidation_number
Si4+ 4
Na1+ 1
O2- -2
loop_
_atom_site_label
_atom_site_type_symbol
_atom_site_symmetry_multiplicity
_atom_site_Wyckoff_symbol
_atom_site_fract_x
_atom_site_fract_y
_atom_site_fract_z
_atom_site_B_iso_or_equiv
_atom_site_occupancy
_atom_site_attached_hydrogens
Si1 Si4+ 4 a 0.1081(2) 0.1388(3) 0.5256(1) 0.0168(3) 1. 0
Si2 Si4+ 4 a 0.0528(2) 0.5254(3) 0.9324(1) 0.0160(3) 1. 0
Na1 Na1+ 4 a -0.0650(2) 0.0727(5) 0.7728(2) 0.0264(5) 1. 0
Na2 Na1+ 4 a 0.1890(2) 0.5978(5) 0.6911(2) 0.0242(5) 1. 0
O1 O2- 4 a -0.0273(4) 0.6983(8) 0.0365(3) 0.0216(9) 1. 0
O2 O2- 4 a -0.0263(4) 0.5879(8) 0.8162(3) 0.0204(8) 1. 0
O3 O2- 4 a 0.1644(4) 0.0791(9) 0.6490(3) 0.0217(8) 1. 0
O4 O2- 4 a -0.0553(4) 0.9649(8) 0.4867(3) 0.0203(9) 1. 0
O5 O2- 4 a 0.2509(4) 0.5837(8) 0.9303(3) 0.0205(8) 1. 0
loop_
_atom_site_aniso_label
_atom_site_aniso_type_symbol
_atom_site_aniso_U_11
_atom_site_aniso_U_22
_atom_site_aniso_U_33
_atom_site_aniso_U_12
_atom_site_aniso_U_13
_atom_site_aniso_U_23
Si1 Si4+ .0111(6) .0153(8) .0240(7) -.0001(6) .0011(6) .0006(7)
Si2 Si4+ .0119(6) .0153(8) .0209(7) .0000(6) .0005(6) -.0000(6)
Na1 Na1+ .020(1) .027(1) .032(1) .000(1) .0049(8) -.002(1)
Na2 Na1+ .0172(9) .024(1) .031(1) -.001(1) .0038(7) -.001(1)
O1 O2- .016(2) .026(3) .022(2) -.001(1) .004(1) -.000(2)
O2 O2- .013(2) .021(2) .027(2) -.000(2) -.002(1) -.002(2)
O3 O2- .017(2) .022(2) .026(2) .001(2) -.000(1) -.001(2)
O4 O2- .013(2) .020(2) .028(2) .002(1) -.001(2) .001(2)
O5 O2- .011(2) .028(2) .023(2) -.003(2) .003(1) -.001(2)
#End of TTdata_98564-ICSD