
#(C) 2019 by FIZ Karlsruhe - Leibniz Institute for Information Infrastructure.  All rights reserved.
data_98565-ICSD
_database_code_ICSD 98565
_audit_creation_date 2005-04-01
_chemical_name_systematic 'Sodium potassium pentaoxodisilicate (1.84/0.16/1)'
_chemical_formula_structural '(Na1.84 K0.16) (Si2 O5)'
_chemical_formula_sum 'K0.16 Na1.84 O5 Si2'
_chemical_name_structure_type Na2Si2O5(oP36)
_exptl_crystal_density_diffrn 2.56
_publ_section_title

;
Hydrothermal synthesis and structural characterization of kappa-(Na2 Si O5)
and Na1.84 K0.16 Si2 O5
;
loop_
_citation_id
_citation_journal_full
_citation_year
_citation_journal_volume
_citation_page_first
_citation_page_last
_citation_journal_id_ASTM
primary 'Solid State Sciences' 2003 5 473 480 SSSCFJ
loop_
_publ_author_name
'Rakic, S.'
'Kahlenberg, V.'
'Schmidt, B.C.'
_cell_length_a 8.172(2)
_cell_length_b 4.8493(9)
_cell_length_c 12.078(3)
_cell_angle_alpha 90
_cell_angle_beta 90
_cell_angle_gamma 90
_cell_volume 478.63
_cell_formula_units_Z 4
_symmetry_space_group_name_H-M 'P n 21 a'
_symmetry_Int_Tables_number 33
_refine_ls_R_factor_all 0.054
loop_
_symmetry_equiv_pos_site_id
_symmetry_equiv_pos_as_xyz
1 'x+1/2, y, -z+1/2'
2 '-x+1/2, y+1/2, z+1/2'
3 '-x, y+1/2, -z'
4 'x, y, z'
loop_
_atom_type_symbol
_atom_type_oxidation_number
Si4+ 4
Na1+ 1
K1+ 1
Na1+ 1
O2- -2
loop_
_atom_site_label
_atom_site_type_symbol
_atom_site_symmetry_multiplicity
_atom_site_Wyckoff_symbol
_atom_site_fract_x
_atom_site_fract_y
_atom_site_fract_z
_atom_site_B_iso_or_equiv
_atom_site_occupancy
_atom_site_attached_hydrogens
Si1 Si4+ 4 a 0.1084(4) 0.1373(7) 0.5257(3) 0.0338(9) 1. 0
Si2 Si4+ 4 a 0.0531(3) 0.5272(7) 0.9326(3) 0.0288(8) 1. 0
Na1 Na1+ 4 a -0.0676(5) 0.0739(11) 0.7692(5) 0.0618(21) 0.84(2) 0
K1 K1+ 4 a -0.0676(5) 0.0739(11) 0.7692(5) 0.0618(21) 0.16(2) 0
Na2 Na1+ 4 a 0.1900(5) 0.5955(11) 0.6898(4) 0.0414(19) 1. 0
O1 O2- 4 a -0.0296(9) 0.7006(18) 0.0339(7) 0.0375(24) 1. 0
O2 O2- 4 a -0.0236(8) 0.5881(19) 0.8169(6) 0.0301(21) 1. 0
O3 O2- 4 a 0.1628(10) 0.0750(22) 0.6478(6) 0.0421(21) 1. 0
O4 O2- 4 a -0.0533(9) 0.9613(18) 0.4861(7) 0.0381(23) 1. 0
O5 O2- 4 a 0.2514(8) 0.5857(18) 0.9305(6) 0.0341(19) 1. 0
loop_
_atom_site_aniso_label
_atom_site_aniso_type_symbol
_atom_site_aniso_U_11
_atom_site_aniso_U_22
_atom_site_aniso_U_33
_atom_site_aniso_U_12
_atom_site_aniso_U_13
_atom_site_aniso_U_23
Si1 Si4+ .024(1) .029(2) .049(2) .000(1) .003(2) .000(2)
Si2 Si4+ .024(1) .028(2) .035(2) .000(2) .005(2) .000(2)
Na1 Na1+ .054(3) .038(4) .093(4) -.004(3) .038(3) -.005(3)
K1 K1+ .054(3) .038(4) .093(4) -.004(3) .038(3) -.005(3)
Na2 Na1+ .034(3) .033(3) .058(4) .000(3) .008(2) .000(3)
O1 O2- .027(4) .043(6) .043(6) -.013(4) -.009(4) .003(4)
O2 O2- .026(4) .025(5) .039(5) -.002(4) .002(3) .003(4)
O3 O2- .042(5) .031(5) .053(5) .000(4) .003(4) .001(6)
O4 O2- .029(4) .034(5) .051(5) -.005(3) .007(4) .004(4)
O5 O2- .028(3) .035(5) .039(5) .004(4) -.001(3) .001(5)
#End of TTdata_98565-ICSD