
#(C) 2017 by FIZ Karlsruhe - Leibniz Institute for Information Infrastructure.  All rights reserved.
data_98583-ICSD
_database_code_ICSD 98583
_audit_creation_date 2005-04-01
_chemical_name_systematic 'Lithium cadmium indium chloride (1.25/1.67/0.47/6)'
_chemical_formula_structural '(Li1.25 Cd1.28 In0.47) Cd0.39 Cl6'
_chemical_formula_sum 'Cd1.67 Cl6 In0.47 Li1.25'
_chemical_name_structure_type Delafossite-NaCrS2
_exptl_crystal_density_diffrn 3.49
_publ_section_title

;
Crystal structure of the quaternary compounds Li1.25 Cd1.67 In0.47 Cl6 and
Li0.21 Mn1.71 In0.79 Cl6
;
loop_
_citation_id
_citation_journal_full
_citation_year
_citation_journal_volume
_citation_page_first
_citation_page_last
_citation_journal_id_ASTM
primary 'Solid State Sciences' 2003 5 827 832 SSSCFJ
loop_
_publ_author_name
'Nagel, R.'
'Wickel, C.'
'Lutz, H.D.'
_cell_length_a 3.792(1)
_cell_length_b 3.792(1)
_cell_length_c 17.672(4)
_cell_angle_alpha 90
_cell_angle_beta 90
_cell_angle_gamma 120
_cell_volume 220.07
_cell_formula_units_Z 1
_symmetry_space_group_name_H-M 'R -3 m H'
_symmetry_Int_Tables_number 166
_refine_ls_R_factor_all 0.0623
loop_
_symmetry_equiv_pos_site_id
_symmetry_equiv_pos_as_xyz
1 'x-y, -y, -z'
2 '-x, -x+y, -z'
3 'y, x, -z'
4 'x-y, x, -z'
5 'y, -x+y, -z'
6 '-x, -y, -z'
7 '-x+y, y, z'
8 'x, x-y, z'
9 '-y, -x, z'
10 '-x+y, -x, z'
11 '-y, x-y, z'
12 'x, y, z'
13 'x-y+2/3, -y+1/3, -z+1/3'
14 '-x+2/3, -x+y+1/3, -z+1/3'
15 'y+2/3, x+1/3, -z+1/3'
16 'x-y+2/3, x+1/3, -z+1/3'
17 'y+2/3, -x+y+1/3, -z+1/3'
18 '-x+2/3, -y+1/3, -z+1/3'
19 '-x+y+2/3, y+1/3, z+1/3'
20 'x+2/3, x-y+1/3, z+1/3'
21 '-y+2/3, -x+1/3, z+1/3'
22 '-x+y+2/3, -x+1/3, z+1/3'
23 '-y+2/3, x-y+1/3, z+1/3'
24 'x+2/3, y+1/3, z+1/3'
25 'x-y+1/3, -y+2/3, -z+2/3'
26 '-x+1/3, -x+y+2/3, -z+2/3'
27 'y+1/3, x+2/3, -z+2/3'
28 'x-y+1/3, x+2/3, -z+2/3'
29 'y+1/3, -x+y+2/3, -z+2/3'
30 '-x+1/3, -y+2/3, -z+2/3'
31 '-x+y+1/3, y+2/3, z+2/3'
32 'x+1/3, x-y+2/3, z+2/3'
33 '-y+1/3, -x+2/3, z+2/3'
34 '-x+y+1/3, -x+2/3, z+2/3'
35 '-y+1/3, x-y+2/3, z+2/3'
36 'x+1/3, y+2/3, z+2/3'
loop_
_atom_type_symbol
_atom_type_oxidation_number
Cd2+ 2
In3+ 3
Li1+ 1
Cd2+ 2
Cl1- -1
loop_
_atom_site_label
_atom_site_type_symbol
_atom_site_symmetry_multiplicity
_atom_site_Wyckoff_symbol
_atom_site_fract_x
_atom_site_fract_y
_atom_site_fract_z
_atom_site_B_iso_or_equiv
_atom_site_occupancy
_atom_site_attached_hydrogens
Cd1 Cd2+ 3 a 0 0 0 0.037(1) 0.426 0
In1 In3+ 3 a 0 0 0 0.037(1) 0.157 0
Li1 Li1+ 3 a 0 0 0 0.037(1) 0.417 0
Cd2 Cd2+ 3 b 0 0 0.5 0.099(6) 0.131 0
Cl1 Cl1- 6 c 0 0 0.2531(2) 0.047(1) 1. 0
loop_
_atom_site_aniso_label
_atom_site_aniso_type_symbol
_atom_site_aniso_U_11
_atom_site_aniso_U_22
_atom_site_aniso_U_33
_atom_site_aniso_U_12
_atom_site_aniso_U_13
_atom_site_aniso_U_23
Cd1 Cd2+ .028(1) .028(1) .056(1) .014(1) 0. 0.
In1 In3+ .028(1) .028(1) .056(1) .014(1) 0. 0.
Li1 Li1+ .028(1) .028(1) .056(1) .014(1) 0. 0.
Cd2 Cd2+ .088(8) .088(8) .12(1) .044(4) 0. 0.
Cl1 Cl1- .042(1) .042(1) .057(2) .021(1) 0. 0.
#End of TTdata_98583-ICSD