
#(C) 2019 by FIZ Karlsruhe - Leibniz Institute for Information Infrastructure.  All rights reserved.
data_98651-ICSD
_database_code_ICSD 98651
_audit_creation_date 2005-04-01
_audit_update_record 2011-02-01
_chemical_name_systematic 'Trisodium trithiooxophosphate(V)'
_chemical_formula_structural 'Na3 (P O S3)'
_chemical_formula_sum 'Na3 O1 P1 S3'
_chemical_name_structure_type Na3POS3
_exptl_crystal_density_diffrn 2.16
_publ_section_title
'Natriumtrithiophosphat(V): Kristallstruktur und Natriumionenleitfaehigkeit'
loop_
_citation_id
_citation_journal_full
_citation_year
_citation_journal_volume
_citation_page_first
_citation_page_last
_citation_journal_id_ASTM
primary 'Zeitschrift fuer Anorganische und Allgemeine Chemie (1950) (DE)' 2003
629 1929 1933 ZAACAB
loop_
_publ_author_name
'Pompetzki, M.'
'Jansen, M.'
_cell_length_a 9.5105(1)
_cell_length_b 11.5463(1)
_cell_length_c 5.9323(1)
_cell_angle_alpha 90
_cell_angle_beta 90
_cell_angle_gamma 90
_cell_volume 651.43
_cell_formula_units_Z 4
_symmetry_space_group_name_H-M 'C m c 21'
_symmetry_Int_Tables_number 36
_refine_ls_R_factor_all 0.0447
loop_
_symmetry_equiv_pos_site_id
_symmetry_equiv_pos_as_xyz
1 'x, -y, z+1/2'
2 '-x, -y, z+1/2'
3 '-x, y, z'
4 'x, y, z'
5 'x+1/2, -y+1/2, z+1/2'
6 '-x+1/2, -y+1/2, z+1/2'
7 '-x+1/2, y+1/2, z'
8 'x+1/2, y+1/2, z'
loop_
_atom_type_symbol
_atom_type_oxidation_number
Na1+ 1
S2- -2
Na1+ 1
S2- -2
P5+ 5
O2- -2
loop_
_atom_site_label
_atom_site_type_symbol
_atom_site_symmetry_multiplicity
_atom_site_Wyckoff_symbol
_atom_site_fract_x
_atom_site_fract_y
_atom_site_fract_z
_atom_site_B_iso_or_equiv
_atom_site_occupancy
_atom_site_attached_hydrogens
Na1 Na1+ 8 b 0.1992(2) 0.1158(2) 0.2495(4) 0.0380(8) 1. 0
S1 S2- 8 b 0.3221(1) 0.3673(1) 0.2253(2) 0.0296(4) 1. 0
Na2 Na1+ 4 a 0 0.3684(3) 0.2938(4) 0.040(1) 1. 0
S2 S2- 4 a 0.5 0.1191(2) 0.2721(3) 0.0258(7) 1. 0
P1 P5+ 4 a 0.5 0.2940(2) 0.3550(3) 0.0189(6) 1. 0
O1 O2- 4 a 0.5 0.3030(3) 0.6114(5) 0.017(1) 1. 0
#End of TTdata_98651-ICSD