
#(C) 2019 by FIZ Karlsruhe - Leibniz Institute for Information Infrastructure.  All rights reserved.
data_98675-ICSD
_database_code_ICSD 98675
_audit_creation_date 2005-04-01
_chemical_name_systematic 'Sodium neodymium rhenate(VII) (0.86/0.71/3)'
_chemical_formula_structural 'Na0.564 (Nd0.709 Na0.291) (Re O4)3'
_chemical_formula_sum 'Na0.855 Nd0.709 O12 Re3'
_exptl_crystal_density_diffrn 5.26
_publ_section_title

;
Der (U Cl3)-Typ mit komplexen Anionen und seine Additions - Substitutions -
Variante: Synthese und Kristallstruktur von Nd (Cl O4)3 und Na0.75 Nd0.75 (Re
O4)3
;
loop_
_citation_id
_citation_journal_full
_citation_year
_citation_journal_volume
_citation_page_first
_citation_page_last
_citation_journal_id_ASTM
primary 'Zeitschrift fuer Anorganische und Allgemeine Chemie (1950) (DE)' 2003
629 955 958 ZAACAB
loop_
_publ_author_name
'Grupe, S.'
'Wickleder, M.S.'
_cell_length_a 10.000(1)
_cell_length_b 10.000(1)
_cell_length_c 6.3608(5)
_cell_angle_alpha 90
_cell_angle_beta 90
_cell_angle_gamma 120
_cell_volume 550.86
_cell_formula_units_Z 2
_symmetry_space_group_name_H-M 'P 63/m'
_symmetry_Int_Tables_number 176
_refine_ls_R_factor_all 0.0152
loop_
_symmetry_equiv_pos_site_id
_symmetry_equiv_pos_as_xyz
1 '-x+y, -x, -z+1/2'
2 '-y, x-y, -z+1/2'
3 'x, y, -z+1/2'
4 'x-y, x, -z'
5 'y, -x+y, -z'
6 '-x, -y, -z'
7 'x-y, x, z+1/2'
8 'y, -x+y, z+1/2'
9 '-x, -y, z+1/2'
10 '-x+y, -x, z'
11 '-y, x-y, z'
12 'x, y, z'
loop_
_atom_type_symbol
_atom_type_oxidation_number
Nd3+ 3
Na1+ 1
Re7+ 7
O2- -2
Na1+ 1
loop_
_atom_site_label
_atom_site_type_symbol
_atom_site_symmetry_multiplicity
_atom_site_Wyckoff_symbol
_atom_site_fract_x
_atom_site_fract_y
_atom_site_fract_z
_atom_site_B_iso_or_equiv
_atom_site_occupancy
_atom_site_attached_hydrogens
Nd1 Nd3+ 2 c 0.3333 0.6667 0.25 0.0106(3) 0.7092(36) 0
Na1 Na1+ 2 c 0.3333 0.6667 0.25 0.0106(3) 0.2910(36) 0
Re1 Re7+ 6 h 0.39392(3) 0.29490(3) 0.25 0.0143(1) 1. 0
O1 O2- 6 h 0.4423(6) 0.4860(6) 0.25 0.028(1) 1. 0
O2 O2- 12 i 0.4675(6) 0.2556(5) 0.4701(7) 0.052(1) 1. 0
O3 O2- 6 h 0.1995(7) 0.1787(7) 0.25 0.047(2) 1. 0
Na2 Na1+ 2 b 0 0 0 0.023(3) 0.564(24) 0
#End of TTdata_98675-ICSD