
#(C) 2019 by FIZ Karlsruhe - Leibniz Institute for Information Infrastructure.  All rights reserved.
data_9892-ICSD
_database_code_ICSD 9892
_audit_creation_date 1986-10-02
_chemical_name_systematic 'Potassium sodium hexafluorothorate'
_chemical_formula_structural 'K Na Th F6'
_chemical_formula_sum 'F6 K1 Na1 Th1'
_exptl_crystal_density_diffrn 4.99
_publ_section_title 'The crystal structure of K Na Th F6'
loop_
_citation_id
_citation_journal_full
_citation_year
_citation_journal_volume
_citation_page_first
_citation_page_last
_citation_journal_id_ASTM
primary

;
Acta Crystallographica, Section B: Structural Crystallography and Crystal
Chemistry
; 1970 26 1185 1187 ACBCAR
loop_
_publ_author_name
'Brunton, G.'
_cell_length_a 6.3073(2)
_cell_length_b 6.3073(2)
_cell_length_c 7.8907(2)
_cell_angle_alpha 90.
_cell_angle_beta 90.
_cell_angle_gamma 120.
_cell_volume 271.85
_cell_formula_units_Z 2
_symmetry_space_group_name_H-M 'P -3'
_symmetry_Int_Tables_number 147
_refine_ls_R_factor_all 0.095
loop_
_symmetry_equiv_pos_site_id
_symmetry_equiv_pos_as_xyz
1 'x-y, x, -z'
2 'y, -x+y, -z'
3 '-x, -y, -z'
4 '-x+y, -x, z'
5 '-y, x-y, z'
6 'x, y, z'
loop_
_atom_type_symbol
_atom_type_oxidation_number
K1+ 1
Na1+ 1
Th4+ 4
F1- -1
loop_
_atom_site_label
_atom_site_type_symbol
_atom_site_symmetry_multiplicity
_atom_site_Wyckoff_symbol
_atom_site_fract_x
_atom_site_fract_y
_atom_site_fract_z
_atom_site_B_iso_or_equiv
_atom_site_occupancy
_atom_site_attached_hydrogens
K1 K1+ 2 d 0.3333 0.6667 0.608(2) . 1. 0
Na1 Na1+ 2 c 0 0 0.236(3) 0.014(3) 1. 0
Th1 Th4+ 2 d 0.3333 0.6667 0.1221(2) . 1. 0
F1 F1- 6 g 0.104(3) 0.381(3) 0.322(2) 0.011(2) 1. 0
F2 F1- 6 g 0.395(3) 0.319(3) 0.097(2) 0.010(2) 1. 0
loop_
_atom_site_aniso_label
_atom_site_aniso_type_symbol
_atom_site_aniso_beta_11
_atom_site_aniso_beta_22
_atom_site_aniso_beta_33
_atom_site_aniso_beta_12
_atom_site_aniso_beta_13
_atom_site_aniso_beta_23
K1 K1+ 0.014(2) 0.014(2) 0.004(2) 0.007(1) 0 0
Th1 Th4+ 0.0034(4) 0.0034(4) 0.0039(3) 0.0017(2) 0 0
#End of TTdata_9892-ICSD