
#(C) 2019 by FIZ Karlsruhe - Leibniz Institute for Information Infrastructure.  All rights reserved.
data_98978-ICSD
_database_code_ICSD 98978
_audit_creation_date 2005-04-01
_audit_update_record 2008-02-01
_chemical_name_systematic 'Sodium antimonate - HP'
_chemical_formula_structural 'Na (Sb O3)'
_chemical_formula_sum 'Na1 O3 Sb1'
_chemical_name_structure_type Perovskite-GdFeO3
_exptl_crystal_density_diffrn 5.71
_publ_section_title
'Polymorphism in Na Sb O3: structure and bonding in metal oxides'
loop_
_citation_id
_citation_journal_full
_citation_year
_citation_journal_volume
_citation_page_first
_citation_page_last
_citation_journal_id_ASTM
primary 'Journal of the American Chemical Society' 2004 126 3175 3184 JACSAT
loop_
_publ_author_name
'Mizoguchi, H.'
'Woodward, P.M.'
'Byeon Song-Ho'
'Parise, J.B.'
_cell_length_a 5.43835(6)
_cell_length_b 7.66195(8)
_cell_length_c 5.38201(5)
_cell_angle_alpha 90
_cell_angle_beta 90
_cell_angle_gamma 90
_cell_volume 224.26
_cell_formula_units_Z 4
_symmetry_space_group_name_H-M 'P n m a'
_symmetry_Int_Tables_number 62
_refine_ls_R_factor_all 0.0754
loop_
_symmetry_equiv_pos_site_id
_symmetry_equiv_pos_as_xyz
1 'x+1/2, y, -z+1/2'
2 'x, -y+1/2, z'
3 '-x+1/2, y+1/2, z+1/2'
4 '-x, -y, -z'
5 '-x+1/2, -y, z+1/2'
6 '-x, y+1/2, -z'
7 'x+1/2, -y+1/2, -z+1/2'
8 'x, y, z'
loop_
_atom_type_symbol
_atom_type_oxidation_number
Na1+ 1
Sb5+ 5
O2- -2
loop_
_atom_site_label
_atom_site_type_symbol
_atom_site_symmetry_multiplicity
_atom_site_Wyckoff_symbol
_atom_site_fract_x
_atom_site_fract_y
_atom_site_fract_z
_atom_site_B_iso_or_equiv
_atom_site_occupancy
_atom_site_attached_hydrogens
Na1 Na1+ 4 c 0.532(2) 0.25 0.511(4) 0.056(8) 1. 0
Sb1 Sb5+ 4 b 0.5 0 0 0.027(1) 1. 0
O1 O2- 4 c 0.977(4) 0.25 0.422(2) 0.008(4) 1. 0
O2 O2- 8 d 0.294(2) 0.040(1) 0.712(2) 0.008(4) 1. 0
#End of TTdata_98978-ICSD