
#(C) 2018 by FIZ Karlsruhe - Leibniz Institute for Information Infrastructure.  All rights reserved.
data_99033-ICSD
_database_code_ICSD 99033
_audit_creation_date 2005-04-01
_audit_update_record 2010-08-01
_chemical_name_systematic 'Lithium yttrium titanium oxide sulfide (0.3/2/2/5/2)'
_chemical_formula_structural 'Li0.3 Y2 Ti2 O5 S2'
_chemical_formula_sum 'Li0.3 O5 S2 Ti2 Y2'
_chemical_name_structure_type LixY2Ti2O5S2
_exptl_crystal_density_diffrn 4.26
_cell_measurement_temperature 298.
_publ_section_title

;
Electronically driven structural distortions in lithium intercalates of the n=
2 Ruddlesden-Popper-type host Y2 Ti2 O5 S2: synthesis, structure and
properties of Lix Y2 Ti2 O5 S2 (0< x< 2)
;
loop_
_citation_id
_citation_journal_full
_citation_year
_citation_journal_volume
_citation_page_first
_citation_page_last
_citation_journal_id_ASTM
primary 'Journal of the American Chemical Society' 2004 126 1980 1991 JACSAT
loop_
_publ_author_name
'Hyett, G.'
'Rutt, O.J.'
'Gal, Z.A.'
'Denis, S.G.'
'Hayward, M.A.'
'Clarke, S.J.'
_cell_length_a 3.80002(2)
_cell_length_b 3.80002(2)
_cell_length_c 22.6396(2)
_cell_angle_alpha 90
_cell_angle_beta 90
_cell_angle_gamma 90
_cell_volume 326.92
_cell_formula_units_Z 2
_symmetry_space_group_name_H-M 'I 4/m m m'
_symmetry_Int_Tables_number 139
_refine_ls_R_factor_all 0.0477
loop_
_symmetry_equiv_pos_site_id
_symmetry_equiv_pos_as_xyz
1 'y, x, -z'
2 '-y, -x, -z'
3 '-y, x, -z'
4 'y, -x, -z'
5 '-x, y, -z'
6 'x, -y, -z'
7 'x, y, -z'
8 '-x, -y, -z'
9 '-y, -x, z'
10 'y, x, z'
11 'y, -x, z'
12 '-y, x, z'
13 'x, -y, z'
14 '-x, y, z'
15 '-x, -y, z'
16 'x, y, z'
17 'y+1/2, x+1/2, -z+1/2'
18 '-y+1/2, -x+1/2, -z+1/2'
19 '-y+1/2, x+1/2, -z+1/2'
20 'y+1/2, -x+1/2, -z+1/2'
21 '-x+1/2, y+1/2, -z+1/2'
22 'x+1/2, -y+1/2, -z+1/2'
23 'x+1/2, y+1/2, -z+1/2'
24 '-x+1/2, -y+1/2, -z+1/2'
25 '-y+1/2, -x+1/2, z+1/2'
26 'y+1/2, x+1/2, z+1/2'
27 'y+1/2, -x+1/2, z+1/2'
28 '-y+1/2, x+1/2, z+1/2'
29 'x+1/2, -y+1/2, z+1/2'
30 '-x+1/2, y+1/2, z+1/2'
31 '-x+1/2, -y+1/2, z+1/2'
32 'x+1/2, y+1/2, z+1/2'
loop_
_atom_type_symbol
_atom_type_oxidation_number
Y3+ 3
Ti3+ 3.85
O2- -2
S2- -2
Li1+ 1
loop_
_atom_site_label
_atom_site_type_symbol
_atom_site_symmetry_multiplicity
_atom_site_Wyckoff_symbol
_atom_site_fract_x
_atom_site_fract_y
_atom_site_fract_z
_atom_site_B_iso_or_equiv
_atom_site_occupancy
_atom_site_attached_hydrogens
Y1 Y3+ 4 e 0 0 0.33378(4) 0.0049(2) 1. 0
Ti1 Ti3+ 4 e 0 0 0.08035(8) 0.0035(8) 1. 0
O1 O2- 8 g 0.5 0 0.09905(4) 0.0059(2) 1. 0
O2 O2- 2 a 0 0 0 0.0148(4) 1. 0
S1 S2- 4 e 0 0 0.20448(9) 0.0036(5) 1. 0
Li1 Li1+ 4 c 0 0.5 0 0.042(7) 0.15 0
#End of TTdata_99033-ICSD