
#(C) 2019 by FIZ Karlsruhe - Leibniz Institute for Information Infrastructure.  All rights reserved.
data_99206-ICSD
_database_code_ICSD 99206
_audit_creation_date 2005-04-01
_audit_update_record 2012-02-01
_chemical_name_systematic 'Disodium diyttrium diborate'
_chemical_formula_structural 'Na2 Y2 (B2 O7)'
_chemical_formula_sum 'B2 Na2 O7 Y2'
_chemical_name_structure_type Na2Y2B2O7
_exptl_crystal_density_diffrn 3.97
_publ_section_title

;
Red photoluminescence properties and crystal structure of sodium rare earth
oxyborate
;
loop_
_citation_id
_citation_journal_full
_citation_year
_citation_journal_volume
_citation_page_first
_citation_page_last
_citation_journal_id_ASTM
primary 'Journal of Alloys and Compounds' 2004 370 99 103 JALCEU
loop_
_publ_author_name
'Zhang Yue'
'Li Yadong'
_cell_length_a 10.5993(1)
_cell_length_b 6.2311(1)
_cell_length_c 10.2247(1)
_cell_angle_alpha 90
_cell_angle_beta 117.7560(4)
_cell_angle_gamma 90
_cell_volume 597.59
_cell_formula_units_Z 4
_symmetry_space_group_name_H-M 'P 1 21/c 1'
_symmetry_Int_Tables_number 14
_refine_ls_R_factor_all 0.0363
loop_
_symmetry_equiv_pos_site_id
_symmetry_equiv_pos_as_xyz
1 'x, -y+1/2, z+1/2'
2 '-x, -y, -z'
3 '-x, y+1/2, -z+1/2'
4 'x, y, z'
loop_
_atom_type_symbol
_atom_type_oxidation_number
Y3+ 3
Na1+ 1
B3+ 3
O2- -2
loop_
_atom_site_label
_atom_site_type_symbol
_atom_site_symmetry_multiplicity
_atom_site_Wyckoff_symbol
_atom_site_fract_x
_atom_site_fract_y
_atom_site_fract_z
_atom_site_B_iso_or_equiv
_atom_site_occupancy
_atom_site_attached_hydrogens
Y1 Y3+ 4 e 0.1832(1) 0.0821(1) 0.0874(1) 1.4(1) 1. 0
Y2 Y3+ 4 e 0.9835(1) 0.4601(2) 0.1814(1) 1.3(1) 1. 0
Na1 Na1+ 4 e 0.5255(3) -0.0604(6) 0.2653(3) 1.3(1) 1. 0
Na2 Na1+ 4 e 0.6090(3) 0.2510(7) 0.0433(4) 2.0(1) 1. 0
B1 B3+ 4 e 0.3279(13) 0.2529(19) -0.0743(13) 1.3(3) 1. 0
B2 B3+ 4 e 0.2169(16) 0.6289(20) 0.1599(15) 1.6(2) 1. 0
O1 O2- 4 e 0.9749(5) 0.1249(8) 0.1050(5) 1.0(1) 1. 0
O2 O2- 4 e 0.3134(6) 0.7516(9) 0.1327(6) 1.0(3) 1. 0
O3 O2- 4 e 0.1693(5) 0.2558(8) 0.3665(5) 1.4(2) 1. 0
O4 O2- 4 e 0.1480(5) 0.4492(8) 0.0868(5) 1.0(2) 1. 0
O5 O2- 4 e 0.3968(6) 0.1542(9) 0.0551(6) 2.0(2) 1. 0
O6 O2- 4 e 0.8512(6) 0.2594(9) 0.2795(7) 2.1(2) 1. 0
O7 O2- 4 e 0.3645(6) 0.1561(7) 0.3338(6) 1.4(2) 1. 0
#End of TTdata_99206-ICSD