
#(C) 2019 by FIZ Karlsruhe - Leibniz Institute for Information Infrastructure.  All rights reserved.
data_99462-ICSD
_database_code_ICSD 99462
_audit_creation_date 2005-04-01
_chemical_name_systematic
'Sodium iron iron(III) phosphate(V) (0.12/3.12/3.88/6)'
_chemical_formula_structural 'Na0.122 Fe7 (P O4)6'
_chemical_formula_sum 'Fe7 Na0.122 O24 P6'
_exptl_crystal_density_diffrn 3.86
_cell_measurement_temperature 270.
_publ_section_title

;
The mixed-valence iron compound Na0.1 Fe7 (P O4)6: crystal structure and
(57)Fe Mossbauer spectroscopy between 80 and 295 K
;
loop_
_citation_id
_citation_journal_full
_citation_year
_citation_journal_volume
_citation_page_first
_citation_page_last
_citation_journal_id_ASTM
primary 'Journal of Solid State Chemistry' 2004 177 1607 1618 JSSCBI
loop_
_publ_author_name
'Redhammer, G.J.'
'Roth, G.'
'Tippelt, G.'
'Bernroider, M.'
'Lottermoser, W.'
'Amthauer, G.'
_cell_length_a 6.3944(9)
_cell_length_b 7.9562(11)
_cell_length_c 9.3643(13)
_cell_angle_alpha 105.133(11)
_cell_angle_beta 108.353(11)
_cell_angle_gamma 101.637(11)
_cell_volume 415.01
_cell_formula_units_Z 1
_symmetry_space_group_name_H-M 'P -1'
_symmetry_Int_Tables_number 2
_refine_ls_R_factor_all 0.0229
loop_
_symmetry_equiv_pos_site_id
_symmetry_equiv_pos_as_xyz
1 '-x, -y, -z'
2 'x, y, z'
loop_
_atom_type_symbol
_atom_type_oxidation_number
Fe2+ 2
Fe3+ 3
Fe2+ 2
Fe2+ 2.94
P5+ 5
O2- -2
Na1+ 1
loop_
_atom_site_label
_atom_site_type_symbol
_atom_site_symmetry_multiplicity
_atom_site_Wyckoff_symbol
_atom_site_fract_x
_atom_site_fract_y
_atom_site_fract_z
_atom_site_B_iso_or_equiv
_atom_site_occupancy
_atom_site_attached_hydrogens
Fe1 Fe2+ 1 h 0.5 0.5 0.5 0.0083(1) 1. 0
Fe2 Fe3+ 2 i 0.5441(1) 0.2202(1) 0.0252(1) 0.0059(1) 1. 0
Fe3 Fe2+ 2 i 0.7792(1) 0.3116(1) 0.7846(1) 0.0073(1) 1. 0
Fe4 Fe2+ 2 i 0.1180(1) 0.0480(1) 0.3902(1) 0.0060(1) 1. 0
P1 P5+ 2 i 0.2715(1) 0.3508(1) 0.7313(1) 0.0046(1) 1. 0
P2 P5+ 2 i 0.5916(1) 0.0927(1) 0.3323(1) 0.0048(1) 1. 0
P3 P5+ 2 i 0.0966(1) 0.2665(1) 0.1259(1) 0.0068(1) 1. 0
O1 O2- 2 i 0.0434(3) 0.1289(2) 0.2068(2) 0.0149(3) 1. 0
O2 O2- 2 i 0.2252(2) 0.4556(2) 0.2573(2) 0.0102(2) 1. 0
O3 O2- 2 i 0.2416(3) 0.2119(2) 0.0314(2) 0.0161(3) 1. 0
O4 O2- 2 i 0.8663(2) 0.2651(2) 0.0056(2) 0.0103(3) 1. 0
O5 O2- 2 i 0.3763(2) -0.0342(2) 0.3357(2) 0.0076(2) 1. 0
O6 O2- 2 i 0.6151(2) 0.2882(2) 0.4168(2) 0.0123(3) 1. 0
O7 O2- 2 i 0.8065(2) 0.0402(2) 0.4140(2) 0.0079(2) 1. 0
O8 O2- 2 i 0.5639(2) 0.0510(2) 0.1542(2) 0.0082(2) 1. 0
O9 O2- 2 i 0.2933(2) 0.5516(2) 0.7950(2) 0.0116(3) 1. 0
O10 O2- 2 i 0.2749(2) 0.3033(2) 0.5610(2) 0.0080(2) 1. 0
O11 O2- 2 i 0.4794(2) 0.3126(2) 0.8419(2) 0.0079(2) 1. 0
O12 O2- 2 i 0.0444(2) 0.2357(2) 0.7269(2) 0.0074(2) 1. 0
Na1 Na1+ 1 g 0 0.5 0.5 0.027(3) 0.122(9) 0
#End of TTdata_99462-ICSD