
#(C) 2019 by FIZ Karlsruhe - Leibniz Institute for Information Infrastructure.  All rights reserved.
data_99659-ICSD
_database_code_ICSD 99659
_audit_creation_date 2005-04-01
_audit_update_record 2006-04-01
_chemical_name_systematic 'Trisodium hexafluoroaluminate'
_chemical_formula_structural 'Na3 (Al F6)'
_chemical_formula_sum 'Al1 F6 Na3'
_chemical_name_structure_type Perovskite-Na3AlF6
_chemical_name_mineral Cryolite
_exptl_crystal_density_diffrn 2.98
_publ_section_title

;
High-temperature powder synchrotron diffraction studies of synthetic cryolite
Na3 Al F6
;
loop_
_citation_id
_citation_journal_full
_citation_year
_citation_journal_volume
_citation_page_first
_citation_page_last
_citation_journal_id_ASTM
primary 'Journal of Solid State Chemistry' 2004 177 654 659 JSSCBI
loop_
_publ_author_name
'Zhou Qing Di'
'Kennedy, B.J.'
_cell_length_a 5.3956(2)
_cell_length_b 5.5821(2)
_cell_length_c 7.7568(2)
_cell_angle_alpha 90
_cell_angle_beta 90.181(1)
_cell_angle_gamma 90
_cell_volume 233.62
_cell_formula_units_Z 2
_symmetry_space_group_name_H-M 'P 1 21/n 1'
_symmetry_Int_Tables_number 14
_refine_ls_R_factor_all 0.0233
loop_
_symmetry_equiv_pos_site_id
_symmetry_equiv_pos_as_xyz
1 '-x+1/2, y+1/2, -z+1/2'
2 '-x, -y, -z'
3 'x+1/2, -y+1/2, z+1/2'
4 'x, y, z'
loop_
_atom_type_symbol
_atom_type_oxidation_number
Al3+ 3
Na1+ 1
F1- -1
loop_
_atom_site_label
_atom_site_type_symbol
_atom_site_symmetry_multiplicity
_atom_site_Wyckoff_symbol
_atom_site_fract_x
_atom_site_fract_y
_atom_site_fract_z
_atom_site_B_iso_or_equiv
_atom_site_occupancy
_atom_site_attached_hydrogens
Al1 Al3+ 2 a 0 0 0 1.2(1) 1. 0
Na1 Na1+ 2 b 0 0 0.5 0.8(1) 1. 0
Na2 Na1+ 4 e 0.5140(7) 0.9492(3) 0.2480(6) 1.5(1) 1. 0
F1 F1- 4 e 0.1043(4) 0.0471(4) 0.2197(5) 0.7(1) 1. 0
F2 F1- 4 e 0.7265(7) 0.1773(7) 0.0488(6) 1.1(1) 1. 0
F3 F1- 4 e 0.1645(6) 0.2746(7) 0.9368(5) 0.9(1) 1. 0
#End of TTdata_99659-ICSD