
#(C) 2019 by FIZ Karlsruhe - Leibniz Institute for Information Infrastructure.  All rights reserved.
data_99718-ICSD
_database_code_ICSD 99718
_audit_creation_date 2005-04-01
_audit_update_record 2008-02-01
_chemical_name_systematic 'Cesium sodium tecto-alumosilicate *'
_chemical_formula_structural '(Cs45.3 Na46.7) (Al92 Si100 O384)'
_chemical_formula_sum 'Al92 Cs45.3 Na46.7 O384 Si100'
_chemical_name_structure_type Faujasite-Fd3--frame
_chemical_name_mineral 'Zeolite X (Cs-exchanged, dehydrated)'
_exptl_crystal_density_diffrn 1.99
_cell_measurement_temperature 294.
_publ_section_title

;
Further crystallographic confirmation that Cs(+) ions can occupy sodalite
cavities and double six-rings. Crystal structure of fully dehydrated partially
Cs(+)-exchanged zeolite X, (Cs45 Na47) (Si100 Al92 O384) - FAU
;
loop_
_citation_id
_citation_journal_full
_citation_year
_citation_journal_volume
_citation_page_first
_citation_page_last
_citation_journal_id_ASTM
primary 'Microporous and Mesoporous Materials' 2004 71 65 75 MIMMFJ
loop_
_publ_author_name
'Ryu Kum Sook'
'Bae Myung Nam'
'Kim Yang'
'Seff, K.'
_cell_length_a 24.898(10)
_cell_length_b 24.898(10)
_cell_length_c 24.898(10)
_cell_angle_alpha 90
_cell_angle_beta 90
_cell_angle_gamma 90
_cell_volume 15434.53
_cell_formula_units_Z 1
_symmetry_space_group_name_H-M 'F d -3 Z'
_symmetry_Int_Tables_number 203
_refine_ls_R_factor_all 0.066
loop_
_symmetry_equiv_pos_site_id
_symmetry_equiv_pos_as_xyz
1 '-z, x+3/4, y+3/4'
2 'z+3/4, x+3/4, -y'
3 'z+3/4, -x, y+3/4'
4 '-z, -x, -y'
5 'y+3/4, -z, x+3/4'
6 '-y, z+3/4, x+3/4'
7 'y+3/4, z+3/4, -x'
8 '-y, -z, -x'
9 'x+3/4, y+3/4, -z'
10 'x+3/4, -y, z+3/4'
11 '-x, y+3/4, z+3/4'
12 '-x, -y, -z'
13 'z, -x+1/4, -y+1/4'
14 '-z+1/4, -x+1/4, y'
15 '-z+1/4, x, -y+1/4'
16 'z, x, y'
17 '-y+1/4, z, -x+1/4'
18 'y, -z+1/4, -x+1/4'
19 '-y+1/4, -z+1/4, x'
20 'y, z, x'
21 '-x+1/4, -y+1/4, z'
22 '-x+1/4, y, -z+1/4'
23 'x, -y+1/4, -z+1/4'
24 'x, y, z'
25 '-z, x+1/4, y+1/4'
26 'z+3/4, x+1/4, -y+1/2'
27 'z+3/4, -x+1/2, y+1/4'
28 '-z, -x+1/2, -y+1/2'
29 'y+3/4, -z+1/2, x+1/4'
30 '-y, z+1/4, x+1/4'
31 'y+3/4, z+1/4, -x+1/2'
32 '-y, -z+1/2, -x+1/2'
33 'x+3/4, y+1/4, -z+1/2'
34 'x+3/4, -y+1/2, z+1/4'
35 '-x, y+1/4, z+1/4'
36 '-x, -y+1/2, -z+1/2'
37 'z, -x+3/4, -y+3/4'
38 '-z+1/4, -x+3/4, y+1/2'
39 '-z+1/4, x+1/2, -y+3/4'
40 'z, x+1/2, y+1/2'
41 '-y+1/4, z+1/2, -x+3/4'
42 'y, -z+3/4, -x+3/4'
43 '-y+1/4, -z+3/4, x+1/2'
44 'y, z+1/2, x+1/2'
45 '-x+1/4, -y+3/4, z+1/2'
46 '-x+1/4, y+1/2, -z+3/4'
47 'x, -y+3/4, -z+3/4'
48 'x, y+1/2, z+1/2'
49 '-z+1/2, x+3/4, y+1/4'
50 'z+1/4, x+3/4, -y+1/2'
51 'z+1/4, -x, y+1/4'
52 '-z+1/2, -x, -y+1/2'
53 'y+1/4, -z, x+1/4'
54 '-y+1/2, z+3/4, x+1/4'
55 'y+1/4, z+3/4, -x+1/2'
56 '-y+1/2, -z, -x+1/2'
57 'x+1/4, y+3/4, -z+1/2'
58 'x+1/4, -y, z+1/4'
59 '-x+1/2, y+3/4, z+1/4'
60 '-x+1/2, -y, -z+1/2'
61 'z+1/2, -x+1/4, -y+3/4'
62 '-z+3/4, -x+1/4, y+1/2'
63 '-z+3/4, x, -y+3/4'
64 'z+1/2, x, y+1/2'
65 '-y+3/4, z, -x+3/4'
66 'y+1/2, -z+1/4, -x+3/4'
67 '-y+3/4, -z+1/4, x+1/2'
68 'y+1/2, z, x+1/2'
69 '-x+3/4, -y+1/4, z+1/2'
70 '-x+3/4, y, -z+3/4'
71 'x+1/2, -y+1/4, -z+3/4'
72 'x+1/2, y, z+1/2'
73 '-z+1/2, x+1/4, y+3/4'
74 'z+1/4, x+1/4, -y'
75 'z+1/4, -x+1/2, y+3/4'
76 '-z+1/2, -x+1/2, -y'
77 'y+1/4, -z+1/2, x+3/4'
78 '-y+1/2, z+1/4, x+3/4'
79 'y+1/4, z+1/4, -x'
80 '-y+1/2, -z+1/2, -x'
81 'x+1/4, y+1/4, -z'
82 'x+1/4, -y+1/2, z+3/4'
83 '-x+1/2, y+1/4, z+3/4'
84 '-x+1/2, -y+1/2, -z'
85 'z+1/2, -x+3/4, -y+1/4'
86 '-z+3/4, -x+3/4, y'
87 '-z+3/4, x+1/2, -y+1/4'
88 'z+1/2, x+1/2, y'
89 '-y+3/4, z+1/2, -x+1/4'
90 'y+1/2, -z+3/4, -x+1/4'
91 '-y+3/4, -z+3/4, x'
92 'y+1/2, z+1/2, x'
93 '-x+3/4, -y+3/4, z'
94 '-x+3/4, y+1/2, -z+1/4'
95 'x+1/2, -y+3/4, -z+1/4'
96 'x+1/2, y+1/2, z'
loop_
_atom_type_symbol
_atom_type_oxidation_number
Si4+ 4
Al3+ 3
Si4+ 4
O2- -2
Na1+ 1
Cs1+ 1
loop_
_atom_site_label
_atom_site_type_symbol
_atom_site_symmetry_multiplicity
_atom_site_Wyckoff_symbol
_atom_site_fract_x
_atom_site_fract_y
_atom_site_fract_z
_atom_site_B_iso_or_equiv
_atom_site_occupancy
_atom_site_attached_hydrogens
Si1 Si4+ 96 g -0.0541(2) 0.1231(3) 0.0344(2) . 1. 0
Al1 Al3+ 96 g -0.0544(2) 0.0354(2) 0.1226(3) . 0.9583 0
Si2 Si4+ 96 g -0.0544(2) 0.0354(2) 0.1226(3) . 0.0417 0
O1 O2- 96 g 0.8892(5) 0.0005(6) 0.1085(5) . 1. 0
O2 O2- 96 g -0.0034(5) -0.0044(5) 0.1433(5) . 1. 0
O3 O2- 96 g -0.0352(6) 0.0665(5) 0.0637(5) . 1. 0
O4 O2- 96 g -0.0664(5) 0.0805(6) 0.1711(6) . 1. 0
Na1 Na1+ 16 c 0 0 0 0.0135(44) 0.888(13) 0
Na2 Na1+ 32 e 0.2268(7) 0.2268(7) 0.2268(7) . 0.844 0
Na3 Na1+ 96 g 0.4055(51) 0.0547(54) 0.1208(71) 0.032(36) 0.0573 0
Cs1 Cs1+ 16 c 0 0 0 0.0135(44) 0.112(13) 0
Cs2 Cs1+ 32 e 0.0900(12) 0.0900(12) 0.0900(12) . 0.0625 0
Cs3 Cs1+ 32 e 0.1651(6) 0.1651(6) 0.1651(6) . 0.1563 0
Cs4 Cs1+ 32 e 0.2619(4) 0.2619(4) 0.2619(4) . 0.1563 0
Cs5 Cs1+ 48 f 0.4212(2) 0.125 0.125 . 0.625 0
Cs6 Cs1+ 96 g 0.4515(82) 0.0787(92) 0.0762(91) 0.137(74) 0.0156 0
loop_
_atom_site_aniso_label
_atom_site_aniso_type_symbol
_atom_site_aniso_U_11
_atom_site_aniso_U_22
_atom_site_aniso_U_33
_atom_site_aniso_U_12
_atom_site_aniso_U_13
_atom_site_aniso_U_23
Si1 Si4+ .0144(27) .0155(27) .0099(26) -.0044(29) -.0025(23) -.0062(31)
Al1 Al3+ .0119(28) .0107(29) .0105(28) -.0027(24) -.0036(31) -.0044(33)
Si2 Si4+ .0119(28) .0107(29) .0105(28) -.0027(24) -.0036(31) -.0044(33)
O1 O2- .0248(97) .0401(89) .0250(91) -.0070(70) .0028(60) -.0073(68)
O2 O2- .0196(76) .0274(81) .0117(71) .0045(64) -.0081(57) -.0116(61)
O3 O2- .0271(81) .0152(81) .0199(84) .0114(69) .0051(59) .0003(66)
O4 O2- .0132(76) .0199(81) .0259(86) -.0024(67) -.0016(69) -.0013(64)
Na2 Na1+ .0669(78) .0669(78) .0669(78) .0465(104) .0465(104) .0465(104)
Cs2 Cs1+ .0715(182) .0715(182) .0715(182) -.0239(153) -.0239(153) -.0239(153)
Cs3 Cs1+ .0713(71) .0713(71) .0713(71) -.0013(77) -.0013(77) -.0013(77)
Cs4 Cs1+ .0297(55) .0297(55) .0297(55) .0006(47) .0006(47) .0006(47)
Cs5 Cs1+ .0248(19) .0856(36) .0938(38) 0. 0. -.0145(35)
#End of TTdata_99718-ICSD