
#(C) 2019 by FIZ Karlsruhe - Leibniz Institute for Information Infrastructure.  All rights reserved.
data_99742-ICSD
_database_code_ICSD 99742
_audit_creation_date 2005-04-01
_chemical_name_systematic 'Sodium hexaoxovanado(III)digermanate'
_chemical_formula_structural 'Na (V Ge2 O6)'
_chemical_formula_sum 'Ge2 Na1 O6 V1'
_chemical_name_structure_type Pyroxene-CaMg(SiO3)2
_exptl_crystal_density_diffrn 4.51
_publ_section_title

;
Hydrothermal synthesis, characterization and magnetic properties of Na V Ge2
O6 and Li V Ge2 O6
;
loop_
_citation_id
_citation_journal_full
_citation_year
_citation_journal_volume
_citation_page_first
_citation_page_last
_citation_journal_id_ASTM
primary 'Materials Research Bulletin' 2004 39 1557 1567 MRBUAC
loop_
_publ_author_name
'Emirdag-Eanes, M.'
'Kolis, J.W.'
_cell_length_a 9.960(4)
_cell_length_b 8.853(6)
_cell_length_c 5.486(1)
_cell_angle_alpha 90
_cell_angle_beta 106.403(3)
_cell_angle_gamma 90
_cell_volume 464.04
_cell_formula_units_Z 4
_symmetry_space_group_name_H-M 'C 1 2/c 1'
_symmetry_Int_Tables_number 15
_refine_ls_R_factor_all 0.029
loop_
_symmetry_equiv_pos_site_id
_symmetry_equiv_pos_as_xyz
1 'x, -y, z+1/2'
2 '-x, -y, -z'
3 '-x, y, -z+1/2'
4 'x, y, z'
5 'x+1/2, -y+1/2, z+1/2'
6 '-x+1/2, -y+1/2, -z'
7 '-x+1/2, y+1/2, -z+1/2'
8 'x+1/2, y+1/2, z'
loop_
_atom_type_symbol
_atom_type_oxidation_number
Ge4+ 4
V3+ 3
Na1+ 1
O2- -2
loop_
_atom_site_label
_atom_site_type_symbol
_atom_site_symmetry_multiplicity
_atom_site_Wyckoff_symbol
_atom_site_fract_x
_atom_site_fract_y
_atom_site_fract_z
_atom_site_B_iso_or_equiv
_atom_site_occupancy
_atom_site_attached_hydrogens
Ge1 Ge4+ 8 f 0.21132(3) 0.09549(4) 0.26727(6) 0.00546(12) 1. 0
V1 V3+ 4 e 0 0.40824(9) 0.25 0.0051(2) 1. 0
Na1 Na1+ 4 e 0 0.8055(3) 0.25 0.0140(5) 1. 0
O1 O2- 8 f 0.3932(2) 0.0829(3) 0.3655(5) 0.0061(5) 1. 0
O2 O2- 8 f 0.1393(2) 0.0154(3) 0.4938(4) 0.0106(6) 1. 0
O3 O2- 8 f 0.1385(2) 0.2711(3) 0.1851(5) 0.0097(6) 1. 0
#End of TTdata_99742-ICSD