
#(C) 2019 by FIZ Karlsruhe - Leibniz Institute for Information Infrastructure.  All rights reserved.
data_99814-ICSD
_database_code_ICSD 99814
_audit_creation_date 2005-04-01
_audit_update_record 2008-08-01
_chemical_name_systematic
'Sodium hexadeuteriooxotrivanadate(III) bis(sulfate(VI))'
_chemical_formula_structural 'Na (V3 (O D)6) (S O4)2'
_chemical_formula_sum 'D6 Na1 O14 S2 V3'
_chemical_name_structure_type KAl3(SO4)2(OH)6
_chemical_name_mineral Jarosite-(V)
_exptl_crystal_density_diffrn 3.07
_cell_measurement_temperature 217.
_publ_section_title

;
Powder neutron diffraction analysis and magnetic structure of kagome-type
vanadium jarosite Na V3 (O D)6 (S O4)2
;
loop_
_citation_id
_citation_journal_full
_citation_year
_citation_journal_volume
_citation_page_first
_citation_page_last
_citation_journal_id_ASTM
primary 'Physical Review B: Condensed Matter and Materials Physics' 2003 68
094404-1 094404-7 PRBMDO
loop_
_publ_author_name
'Grohol, D.'
'Huang Qingzhen'
'Toby, B.H.'
'Lynn, J.W.'
'Lee, Y.S.'
'Nocera, D.G.'
_cell_length_a 7.27789(6)
_cell_length_b 7.27789(6)
_cell_length_c 16.8301(3)
_cell_angle_alpha 90
_cell_angle_beta 90
_cell_angle_gamma 120
_cell_volume 772.02
_cell_formula_units_Z 3
_symmetry_space_group_name_H-M 'R -3 m H'
_symmetry_Int_Tables_number 166
_refine_ls_R_factor_all 0.033
loop_
_symmetry_equiv_pos_site_id
_symmetry_equiv_pos_as_xyz
1 'x-y, -y, -z'
2 '-x, -x+y, -z'
3 'y, x, -z'
4 'x-y, x, -z'
5 'y, -x+y, -z'
6 '-x, -y, -z'
7 '-x+y, y, z'
8 'x, x-y, z'
9 '-y, -x, z'
10 '-x+y, -x, z'
11 '-y, x-y, z'
12 'x, y, z'
13 'x-y+2/3, -y+1/3, -z+1/3'
14 '-x+2/3, -x+y+1/3, -z+1/3'
15 'y+2/3, x+1/3, -z+1/3'
16 'x-y+2/3, x+1/3, -z+1/3'
17 'y+2/3, -x+y+1/3, -z+1/3'
18 '-x+2/3, -y+1/3, -z+1/3'
19 '-x+y+2/3, y+1/3, z+1/3'
20 'x+2/3, x-y+1/3, z+1/3'
21 '-y+2/3, -x+1/3, z+1/3'
22 '-x+y+2/3, -x+1/3, z+1/3'
23 '-y+2/3, x-y+1/3, z+1/3'
24 'x+2/3, y+1/3, z+1/3'
25 'x-y+1/3, -y+2/3, -z+2/3'
26 '-x+1/3, -x+y+2/3, -z+2/3'
27 'y+1/3, x+2/3, -z+2/3'
28 'x-y+1/3, x+2/3, -z+2/3'
29 'y+1/3, -x+y+2/3, -z+2/3'
30 '-x+1/3, -y+2/3, -z+2/3'
31 '-x+y+1/3, y+2/3, z+2/3'
32 'x+1/3, x-y+2/3, z+2/3'
33 '-y+1/3, -x+2/3, z+2/3'
34 '-x+y+1/3, -x+2/3, z+2/3'
35 '-y+1/3, x-y+2/3, z+2/3'
36 'x+1/3, y+2/3, z+2/3'
loop_
_atom_type_symbol
_atom_type_oxidation_number
Na1+ 1
S6+ 6
V3+ 3
O2- -2
D1+ 1
loop_
_atom_site_label
_atom_site_type_symbol
_atom_site_symmetry_multiplicity
_atom_site_Wyckoff_symbol
_atom_site_fract_x
_atom_site_fract_y
_atom_site_fract_z
_atom_site_B_iso_or_equiv
_atom_site_occupancy
_atom_site_attached_hydrogens
Na1 Na1+ 3 a 0 0 0 0.0674 1. 0
S1 S6+ 6 c 0 0 0.31017(5) 0.0086 1. 0
V1 V3+ 9 d 0.3333 0.1667 0.1667 0.0112 1. 0
O1 O2- 6 c 0 0 0.39685(9) 0.0099 1. 0
O2 O2- 18 h 0.22052(13) 0.11026(6) 0.28111(5) 0.011 1. 0
O3 O2- 18 h 0.12695(6) 0.25390(13) 0.13295(6) 0.0092 1. 0
D1 D1+ 18 h 0.13887(9) 0.27774(18) 0.56149(9) 0.0188 1. 0
loop_
_atom_site_aniso_label
_atom_site_aniso_type_symbol
_atom_site_aniso_U_11
_atom_site_aniso_U_22
_atom_site_aniso_U_33
_atom_site_aniso_U_12
_atom_site_aniso_U_13
_atom_site_aniso_U_23
Na1 Na1+ .0837(13) .0837(13) .0332(16) .0418(6) 0. 0.
S1 S6+ .0095(3) .0095(3) .0064(5) .00477(14) 0. 0.
V1 V3+ .0097(3) .0117(2) .0108(3) .00486(15) -.0002(2) -.0001(1)
O1 O2- .0118(6) .0118(6) .0061(9) .0059(3) 0. 0.
O2 O2- .0076(4) .0132(4) .0083(5) .0038(2) .0006(4) .0003(2)
O3 O2- .0079(3) .0078(5) .0117(5) .0039(2) .0015(2) .0031(4)
D1 D1+ .0163(6) .0157(7) .0242(9) .0079(4) .0055(3) .0111(6)
#End of TTdata_99814-ICSD