
#(C) 2019 by FIZ Karlsruhe - Leibniz Institute for Information Infrastructure.  All rights reserved.
data_99833-ICSD
_database_code_ICSD 99833
_audit_creation_date 2005-04-01
_chemical_name_systematic
'Sodium cobalt oxide dideuteriohydrate (0.35/1/2/1.43)'
_chemical_formula_structural 'Na0.35 (Co O2) (D2 O)1.43'
_chemical_formula_sum 'D2.86 Co1 Na0.35 O3.43'
_exptl_crystal_density_diffrn 3.11
_cell_measurement_temperature 295.
_publ_section_title

;
Crystal structure of the sodium cobaltate deuterate superconductor Nax Co O2 *
4x(D2 O)
;
loop_
_citation_id
_citation_journal_full
_citation_year
_citation_journal_volume
_citation_page_first
_citation_page_last
_citation_journal_id_ASTM
primary 'Physical Review B: Condensed Matter and Materials Physics' 2003 68
214517-1 214517-10 PRBMDO
loop_
_publ_author_name
'Jorgensen, J.D.'
'Avdeev, M.'
'Hinks, D.G.'
'Burley, J.C.'
'Short, S.'
_cell_length_a 2.82166(5)
_cell_length_b 2.82166(5)
_cell_length_c 19.7681(6)
_cell_angle_alpha 90
_cell_angle_beta 90
_cell_angle_gamma 120
_cell_volume 136.3
_cell_formula_units_Z 2
_symmetry_space_group_name_H-M 'P 63/m m c'
_symmetry_Int_Tables_number 194
loop_
_symmetry_equiv_pos_site_id
_symmetry_equiv_pos_as_xyz
1 'x, x-y, -z+1/2'
2 '-x+y, y, -z+1/2'
3 '-y, -x, -z+1/2'
4 '-x+y, -x, -z+1/2'
5 '-y, x-y, -z+1/2'
6 'x, y, -z+1/2'
7 '-x, -x+y, z+1/2'
8 'x-y, -y, z+1/2'
9 'y, x, z+1/2'
10 'x-y, x, z+1/2'
11 'y, -x+y, z+1/2'
12 '-x, -y, z+1/2'
13 '-x, -x+y, -z'
14 'x-y, -y, -z'
15 'y, x, -z'
16 'x-y, x, -z'
17 'y, -x+y, -z'
18 '-x, -y, -z'
19 'x, x-y, z'
20 '-x+y, y, z'
21 '-y, -x, z'
22 '-x+y, -x, z'
23 '-y, x-y, z'
24 'x, y, z'
loop_
_atom_type_symbol
_atom_type_oxidation_number
Co3+ 3.65
O2- -2
Na1+ 1
O2- -2
D1+ 1
loop_
_atom_site_label
_atom_site_type_symbol
_atom_site_symmetry_multiplicity
_atom_site_Wyckoff_symbol
_atom_site_fract_x
_atom_site_fract_y
_atom_site_fract_z
_atom_site_B_iso_or_equiv
_atom_site_occupancy
_atom_site_attached_hydrogens
Co1 Co3+ 2 a 0 0 0 0.0040(6) 1. 0
O1 O2- 4 f 0.3333 0.6667 0.0469(1) . 1. 0
Na1 Na1+ 6 h 0.525(5) 0.2625(25) 0.25 0.018(5) 0.117(10) 0
O2 O2- 24 l 0.737(4) -0.073(9) 0.1706(2) . 0.119(2) 0
D1 D1+ 24 l 0.579(3) 0.841(10) 0.1240(3) . 0.119(2) 0
D2 D1+ 24 l 0.888(7) 0.325(9) 0.1801(3) . 0.119(2) 0
loop_
_atom_site_aniso_label
_atom_site_aniso_type_symbol
_atom_site_aniso_U_11
_atom_site_aniso_U_22
_atom_site_aniso_U_33
_atom_site_aniso_U_12
_atom_site_aniso_U_13
_atom_site_aniso_U_23
O1 O2- .0046(2) .0046(2) .0226(8) .0023(1) 0. 0.
O2 O2- .105(6) .24(2) .019(2) .10(1) -.031(3) -.065(6)
D1 D1+ .105(6) .24(2) .019(2) .10(1) -.031(3) -.065(6)
D2 D1+ .105(6) .24(2) .019(2) .10(1) -.031(3) -.065(6)
#End of TTdata_99833-ICSD