data_15530-ICSD
_database_code_ICSD                15530
_audit_creation_date               1981/12/31
_audit_update_record               2016/02/01
_chemical_name_systematic          'Lanthanum Silver Oxide Sulfide'
_chemical_formula_structural       'La Ag O S'
_chemical_formula_sum              'Ag1 La1 O1 S1'
_publ_section_title
;
Structure du conducteur ionique La O Ag Y
;
loop_
_citation_id
_citation_journal_abbrev
_citation_year
_citation_journal_volume
_citation_page_first
_citation_page_last
_citation_journal_id_ASTM
primary 'Acta Crystallographica B (24,1968-38,1982)' 1981 37 1337 1339 ACBCAR
2 'Rare Earths in Modern Science and Technology' 1982 3 347 350 REMTDV
_publ_author_name                  'Janek group'
_cell_length_a                     8.48284
_cell_length_b                     8.48284
_cell_length_c                     5.93013
_cell_angle_alpha                  90.
_cell_angle_beta                   90.
_cell_angle_gamma                  90.
_cell_volume                       148.26
_cell_formula_units_Z              2
_symmetry_space_group_name_H-M     'P 4/n m m Z'
_symmetry_Int_Tables_number        129
loop_
_symmetry_equiv_pos_site_id
_symmetry_equiv_pos_as_xyz
  1	'y+1/2, x+1/2, -z'
  2	'-y, x+1/2, -z'
  3	'y+1/2, -x, -z'
  4	'-y, -x, -z'
  5	'x+1/2, y+1/2, -z'
  6	'-x, y+1/2, -z'
  7	'x+1/2, -y, -z'
  8	'-x, -y, -z'
  9	'-y+1/2, -x+1/2, z'
 10	'y, -x+1/2, z'
 11	'-y+1/2, x, z'
 12	'y, x, z'
 13	'-x+1/2, -y+1/2, z'
 14	'x, -y+1/2, z'
 15	'-x+1/2, y, z'
 16	'x, y, z'
loop_
_atom_type_symbol
_atom_type_oxidation_number
Li1+	1
P5+	5
S2-	-2
I1-	-1

loop_
_atom_site_label
_atom_site_type_symbol
_atom_site_symmetry_multiplicity
_atom_site_Wyckoff_symbol
_atom_site_fract_x
_atom_site_fract_y
_atom_site_fract_z
_atom_site_occupancy
I1  I1-  2 c 0.75  0.75    0.15298   1.
S1  S2-  8 i 0.25  0.94412 0.2967    1.
P1  P5+  2 b 0.75  0.25    0.5       1.
Li1 Li1+ 2 c 0.75  0.75    0.594     0.68
Li2 Li1+ 2 a 0.25  0.75    0         0.58
Li3 Li1+ 8 j 0.454 0.454   0.585     0.38
Li4 Li1+ 4 d 0     0       0         0.53
Li5 Li1+ 8 i 0.75  0.12    0.11      0.08 
#End of data_15530-ICSD
