
#(C) 2020 by FIZ Karlsruhe - Leibniz Institute for Information Infrastructure.  All rights reserved.
data_64942-ICSD
_database_code_ICSD 64942
_audit_creation_date 1998-06-26
_chemical_name_common 'Diberyllium silicate'
_chemical_formula_structural 'Be2 (Si O4)'
_chemical_formula_sum 'Be2 O4 Si1'
_chemical_name_structure_type Phenakite#Be2SiO4
_chemical_name_mineral Phenakite
_exptl_crystal_density_diffrn 2.96
_citation_title

;
High-pressure crystal chemistry of phenakite (Be2 Si O4) and bertrandite (Be4
Si2 O7 (O H)2)
;
loop_
_citation_id
_citation_journal_full
_citation_year
_citation_journal_volume
_citation_page_first
_citation_page_last
_citation_journal_id_ASTM
primary 'Physics and Chemistry of Minerals' 1986 13 69 78 PCMIDU
loop_
_citation_author_citation_id
_citation_author_name
primary 'Hazen, R.M.'
primary 'Au, A.Y.'
_cell_length_a 12.4704(9)
_cell_length_b 12.4704(9)
_cell_length_c 8.2504(6)
_cell_angle_alpha 90.
_cell_angle_beta 90.
_cell_angle_gamma 120.
_cell_volume 1111.13
_cell_formula_units_Z 18
_space_group_name_H-M_alt 'R -3 H'
_space_group_IT_number 148
loop_
_space_group_symop_id
_space_group_symop_operation_xyz
1 'x-y, x, -z'
2 'y, -x+y, -z'
3 '-x, -y, -z'
4 '-x+y, -x, z'
5 '-y, x-y, z'
6 'x, y, z'
7 'x-y+2/3, x+1/3, -z+1/3'
8 'y+2/3, -x+y+1/3, -z+1/3'
9 '-x+2/3, -y+1/3, -z+1/3'
10 '-x+y+2/3, -x+1/3, z+1/3'
11 '-y+2/3, x-y+1/3, z+1/3'
12 'x+2/3, y+1/3, z+1/3'
13 'x-y+1/3, x+2/3, -z+2/3'
14 'y+1/3, -x+y+2/3, -z+2/3'
15 '-x+1/3, -y+2/3, -z+2/3'
16 '-x+y+1/3, -x+2/3, z+2/3'
17 '-y+1/3, x-y+2/3, z+2/3'
18 'x+1/3, y+2/3, z+2/3'
loop_
_atom_type_symbol
_atom_type_oxidation_number
Si4+ 4
Be2+ 2
O2- -2
loop_
_atom_site_label
_atom_site_type_symbol
_atom_site_symmetry_multiplicity
_atom_site_Wyckoff_symbol
_atom_site_fract_x
_atom_site_fract_y
_atom_site_fract_z
_atom_site_B_iso_or_equiv
_atom_site_occupancy
Si1 Si4+ 18 f 0.19550(4) 0.21155(4) 0.74996(6) . 1.
Be1 Be2+ 18 f 0.1941(2) 0.2104(2) 0.4155(2) . 1.
Be2 Be2+ 18 f 0.1941(2) 0.2118(2) 0.0841(2) . 1.
O1 O2- 18 f 0.2095(1) 0.0884(1) 0.7503(1) . 1.
O2 O2- 18 f 0.3336(1) 0.3332(1) 0.7501(2) . 1.
O3 O2- 18 f 0.1220(1) 0.2100(1) 0.9146(1) . 1.
O4 O2- 18 f 0.1225(1) 0.2090(1) 0.5850(1) . 1.
#End of TTdata_64942-ICSD