
#(C) 2020 by FIZ Karlsruhe - Leibniz Institute for Information Infrastructure.  All rights reserved.
data_34641-ICSD
_database_code_ICSD 34641
_audit_creation_date 1980-01-01
_audit_update_record 2012-02-01
_chemical_name_common 'Calcium borate *'
_chemical_formula_structural 'Ca B2 O4'
_chemical_formula_sum 'B2 Ca1 O4'
_chemical_name_structure_type CaB2O4
_exptl_crystal_density_diffrn 2.7
_citation_title 'Refinement of the calcium metaborate structure'
loop_
_citation_id
_citation_journal_full
_citation_year
_citation_journal_volume
_citation_page_first
_citation_page_last
_citation_journal_id_ASTM
primary 'Acta Crystallographica' 1963 16 390 392 ACCRA9
loop_
_citation_author_citation_id
_citation_author_name
primary 'Marezio, M.'
primary 'Plettinger, H.A.'
primary 'Zachariasen, W.H.'
_cell_length_a 6.214(3)
_cell_length_b 11.604(4)
_cell_length_c 4.285(1)
_cell_angle_alpha 90.
_cell_angle_beta 90.
_cell_angle_gamma 90.
_cell_volume 308.98
_cell_formula_units_Z 4
_space_group_name_H-M_alt 'P n c a'
_space_group_IT_number 60
loop_
_space_group_symop_id
_space_group_symop_operation_xyz
1 'x+1/2, y, -z'
2 'x, -y+1/2, z+1/2'
3 '-x+1/2, y+1/2, z+1/2'
4 '-x, -y, -z'
5 '-x+1/2, -y, z'
6 '-x, y+1/2, -z+1/2'
7 'x+1/2, -y+1/2, -z+1/2'
8 'x, y, z'
loop_
_atom_type_symbol
_atom_type_oxidation_number
Ca2+ 2
B3+ 3
O2- -2
loop_
_atom_site_label
_atom_site_type_symbol
_atom_site_symmetry_multiplicity
_atom_site_Wyckoff_symbol
_atom_site_fract_x
_atom_site_fract_y
_atom_site_fract_z
_atom_site_B_iso_or_equiv
_atom_site_occupancy
Ca1 Ca2+ 4 c 0.25 0 0.2726(5) . 1.
B1 B3+ 8 d 0.1258(12) 0.1924(8) 0.8296(32) . 1.
O1 O2- 8 d 0.0917(7) 0.0862(3) 0.7268(12) . 1.
O2 O2- 8 d 0.1478(8) 0.2078(4) 0.1485(18) . 1.
#End of TTdata_34641-ICSD