
#(C) 2020 by FIZ Karlsruhe - Leibniz Institute for Information Infrastructure.  All rights reserved.
data_166080-ICSD
_database_code_ICSD 166080
_audit_creation_date 2010-08-01
_chemical_name_common 'Calcium diferrate(III)'
_chemical_formula_structural 'Ca (Fe2 O4)'
_chemical_formula_sum 'Ca1 Fe2 O4'
_chemical_name_structure_type CaV2O4#CaFe2O4
_exptl_crystal_density_diffrn 6.71
_diffrn_ambient_pressure 69600000.
_citation_title 'Fe(3+) spin transition in Ca Fe2 O4 at high pressure'
loop_
_citation_id
_citation_journal_full
_citation_year
_citation_journal_volume
_citation_page_first
_citation_page_last
_citation_journal_id_ASTM
primary 'American Mineralogist' 2010 95 200 203 AMMIAY
loop_
_citation_author_citation_id
_citation_author_name
primary 'Merlini, M.'
primary 'Hanfland, M.'
primary 'Gemmi, M.'
primary 'Huotari, S.'
primary 'Simonelli, L.'
primary 'Strobel, P.'
_cell_length_a 9.4634(9)
_cell_length_b 8.1708(5)
_cell_length_c 2.7619(11)
_cell_angle_alpha 90.
_cell_angle_beta 90.
_cell_angle_gamma 90.
_cell_volume 213.56
_cell_formula_units_Z 4
_space_group_name_H-M_alt 'P b n m'
_space_group_IT_number 62
loop_
_space_group_symop_id
_space_group_symop_operation_xyz
1 '-x+1/2, y+1/2, z'
2 'x, y, -z+1/2'
3 'x+1/2, -y+1/2, z+1/2'
4 '-x, -y, -z'
5 'x+1/2, -y+1/2, -z'
6 '-x, -y, z+1/2'
7 '-x+1/2, y+1/2, -z+1/2'
8 'x, y, z'
loop_
_atom_type_symbol
_atom_type_oxidation_number
Fe3+ 3
Ca2+ 2
O2- -2
loop_
_atom_site_label
_atom_site_type_symbol
_atom_site_symmetry_multiplicity
_atom_site_Wyckoff_symbol
_atom_site_fract_x
_atom_site_fract_y
_atom_site_fract_z
_atom_site_B_iso_or_equiv
_atom_site_occupancy
Fe1 Fe3+ 4 c 0.11242(14) 0.06357(14) 0.25 . 1.
Fe2 Fe3+ 4 c 0.60262(14) 0.08183(12) 0.25 . 1.
Ca1 Ca2+ 4 c 0.34082(19) 0.2430(2) 0.25 . 1.
O1 O2- 4 c 0.6575(6) 0.2947(6) 0.25 . 1.
O2 O2- 4 c 0.9795(6) 0.3770(6) 0.25 . 1.
O3 O2- 4 c 0.2152(6) 0.4782(6) 0.25 . 1.
O4 O2- 4 c 0.9224(7) 0.0821(7) 0.25 . 1.
#End of TTdata_166080-ICSD