
#(C) 2020 by FIZ Karlsruhe - Leibniz Institute for Information Infrastructure.  All rights reserved.
data_4353-ICSD
_database_code_ICSD 4353
_audit_creation_date 1980-01-01
_audit_update_record 1998-06-26
_chemical_name_common 'Iron silicate'
_chemical_formula_structural 'Fe2 Si O4'
_chemical_formula_sum 'Fe2 O4 Si1'
_chemical_name_structure_type Olivine#Mg2SiO4
_exptl_crystal_density_diffrn 4.41
_citation_title 'High temperature crystal chemistry of fayalite'
loop_
_citation_id
_citation_journal_full
_citation_year
_citation_journal_volume
_citation_page_first
_citation_page_last
_citation_journal_id_ASTM
primary 'American Mineralogist' 1975 60 1092 1097 AMMIAY
loop_
_citation_author_citation_id
_citation_author_name
primary 'Smyth, J.R.'
_cell_length_a 4.818(2)
_cell_length_b 10.471(3)
_cell_length_c 6.086(2)
_cell_angle_alpha 90.
_cell_angle_beta 90.
_cell_angle_gamma 90.
_cell_volume 307.03
_cell_formula_units_Z 4
_space_group_name_H-M_alt 'P b n m'
_space_group_IT_number 62
loop_
_space_group_symop_id
_space_group_symop_operation_xyz
1 '-x+1/2, y+1/2, z'
2 'x, y, -z+1/2'
3 'x+1/2, -y+1/2, z+1/2'
4 '-x, -y, -z'
5 'x+1/2, -y+1/2, -z'
6 '-x, -y, z+1/2'
7 '-x+1/2, y+1/2, -z+1/2'
8 'x, y, z'
loop_
_atom_type_symbol
_atom_type_oxidation_number
Fe2+ 2
Si4+ 4
O2- -2
loop_
_atom_site_label
_atom_site_type_symbol
_atom_site_symmetry_multiplicity
_atom_site_Wyckoff_symbol
_atom_site_fract_x
_atom_site_fract_y
_atom_site_fract_z
_atom_site_B_iso_or_equiv
_atom_site_occupancy
Fe1 Fe2+ 4 a 0 0 0 . 1.
Fe2 Fe2+ 4 c 0.9853(2) 0.2800(1) 0.25 . 1.
Si1 Si4+ 4 c 0.4292(4) 0.0975(2) 0.25 . 1.
O1 O2- 4 c 0.7687(10) 0.0928(5) 0.25 . 1.
O2 O2- 4 c 0.2076(9) 0.4529(5) 0.25 . 1.
O3 O2- 8 d 0.2884(7) 0.1637(3) 0.0383(6) . 1.
#End of TTdata_4353-ICSD