
#(C) 2020 by FIZ Karlsruhe - Leibniz Institute for Information Infrastructure.  All rights reserved.
data_2895-ICSD
_database_code_ICSD 2895
_audit_creation_date 1980-01-01
_audit_update_record 2006-04-01
_chemical_name_common 'Diodium sulfate(VI)'
_chemical_formula_structural 'Na2 (S O4)'
_chemical_formula_sum 'Na2 O4 S1'
_chemical_name_structure_type Na2SO4
_exptl_crystal_density_diffrn 2.67
_citation_title
'Refinement of the crystal structure of thenardite, Na2 S O4 (V)'
loop_
_citation_id
_citation_journal_full
_citation_year
_citation_journal_volume
_citation_page_first
_citation_page_last
_citation_journal_id_ASTM
primary 'Acta Chemica Scandinavica ' 1973 27 814 822 ACSAA4
loop_
_citation_author_citation_id
_citation_author_name
primary 'Nord, A.G.'
_cell_length_a 5.8596(5)
_cell_length_b 12.3044(12)
_cell_length_c 9.817(1)
_cell_angle_alpha 90.
_cell_angle_beta 90.
_cell_angle_gamma 90.
_cell_volume 707.79
_cell_formula_units_Z 8
_space_group_name_H-M_alt 'F d d d Z'
_space_group_IT_number 70
loop_
_space_group_symop_id
_space_group_symop_operation_xyz
1 'x+3/4, y+3/4, -z'
2 'x+3/4, -y, z+3/4'
3 '-x, y+3/4, z+3/4'
4 '-x, -y, -z'
5 '-x+1/4, -y+1/4, z'
6 '-x+1/4, y, -z+1/4'
7 'x, -y+1/4, -z+1/4'
8 'x, y, z'
9 'x+3/4, y+1/4, -z+1/2'
10 'x+3/4, -y+1/2, z+1/4'
11 '-x, y+1/4, z+1/4'
12 '-x, -y+1/2, -z+1/2'
13 '-x+1/4, -y+3/4, z+1/2'
14 '-x+1/4, y+1/2, -z+3/4'
15 'x, -y+3/4, -z+3/4'
16 'x, y+1/2, z+1/2'
17 'x+1/4, y+3/4, -z+1/2'
18 'x+1/4, -y, z+1/4'
19 '-x+1/2, y+3/4, z+1/4'
20 '-x+1/2, -y, -z+1/2'
21 '-x+3/4, -y+1/4, z+1/2'
22 '-x+3/4, y, -z+3/4'
23 'x+1/2, -y+1/4, -z+3/4'
24 'x+1/2, y, z+1/2'
25 'x+1/4, y+1/4, -z'
26 'x+1/4, -y+1/2, z+3/4'
27 '-x+1/2, y+1/4, z+3/4'
28 '-x+1/2, -y+1/2, -z'
29 '-x+3/4, -y+3/4, z'
30 '-x+3/4, y+1/2, -z+1/4'
31 'x+1/2, -y+3/4, -z+1/4'
32 'x+1/2, y+1/2, z'
loop_
_atom_type_symbol
_atom_type_oxidation_number
S6+ 6
Na1+ 1
O2- -2
loop_
_atom_site_label
_atom_site_type_symbol
_atom_site_symmetry_multiplicity
_atom_site_Wyckoff_symbol
_atom_site_fract_x
_atom_site_fract_y
_atom_site_fract_z
_atom_site_B_iso_or_equiv
_atom_site_occupancy
S1 S6+ 8 a 0.125 0.125 0.125 . 1.
Na1 Na1+ 16 g 0.125 0.125 0.4414(1) . 1.
O1 O2- 32 h -.0203(2) 0.0572(1) 0.2137(1) . 1.
#End of TTdata_2895-ICSD