
#(C) 2020 by FIZ Karlsruhe - Leibniz Institute for Information Infrastructure.  All rights reserved.
data_16806-ICSD
_database_code_ICSD 16806
_audit_creation_date 1980-01-01
_audit_update_record 2003-10-01
_chemical_name_common 'Distrontium plumbate'
_chemical_formula_structural 'Sr2 (Pb O4)'
_chemical_formula_sum 'O4 Pb1 Sr2'
_chemical_name_structure_type Sr2PbO4
_exptl_crystal_density_diffrn 6.85
_citation_title 'Zur Struktur der Verbindungen vom Sr2 Pb O4-Typ'
loop_
_citation_id
_citation_journal_full
_citation_year
_citation_journal_volume
_citation_page_first
_citation_page_last
_citation_journal_id_ASTM
primary Naturwissenschaften 1965 52 492 493 NATWAY
loop_
_citation_author_citation_id
_citation_author_name
primary 'Troemel, M.'
_cell_length_a 6.155
_cell_length_b 10.06
_cell_length_c 3.498
_cell_angle_alpha 90.
_cell_angle_beta 90.
_cell_angle_gamma 90.
_cell_volume 216.59
_cell_formula_units_Z 2
_space_group_name_H-M_alt 'P b a m'
_space_group_IT_number 55
loop_
_space_group_symop_id
_space_group_symop_operation_xyz
1 'x+1/2, -y+1/2, z'
2 '-x+1/2, y+1/2, z'
3 'x, y, -z'
4 '-x, -y, -z'
5 '-x+1/2, y+1/2, -z'
6 'x+1/2, -y+1/2, -z'
7 '-x, -y, z'
8 'x, y, z'
loop_
_atom_type_symbol
_atom_type_oxidation_number
Pb4+ 4
Sr2+ 2
O2- -2
loop_
_atom_site_label
_atom_site_type_symbol
_atom_site_symmetry_multiplicity
_atom_site_Wyckoff_symbol
_atom_site_fract_x
_atom_site_fract_y
_atom_site_fract_z
_atom_site_B_iso_or_equiv
_atom_site_occupancy
Pb1 Pb4+ 2 a 0 0 0 . 1.
Sr1 Sr2+ 4 h 0.077 0.319 0.5 . 1.
O1 O2- 4 h 0.22 0.05 0.5 . 1.
O2 O2- 4 g 0.36 0.31 0 . 1.
#End of TTdata_16806-ICSD