
#(C) 2020 by FIZ Karlsruhe - Leibniz Institute for Information Infrastructure.  All rights reserved.
data_23836-ICSD
_database_code_ICSD 23836
_audit_creation_date 1980-01-01
_audit_update_record 2011-02-01
_chemical_name_common 'Phosphorus - black'
_chemical_formula_structural P
_chemical_formula_sum P1
_chemical_name_structure_type P(black)
_exptl_crystal_density_diffrn 2.71
_citation_title 'Refinement of the crystal structure of black phosphorus'
loop_
_citation_id
_citation_journal_full
_citation_year
_citation_journal_volume
_citation_page_first
_citation_page_last
_citation_journal_id_ASTM
primary 'Acta Crystallographica' 1965 19 684 685 ACCRA9
loop_
_citation_author_citation_id
_citation_author_name
primary 'Brown, A.'
primary 'Rundqvist, S.'
_cell_length_a 3.3136(5)
_cell_length_b 10.478(1)
_cell_length_c 4.3763(5)
_cell_angle_alpha 90.
_cell_angle_beta 90.
_cell_angle_gamma 90.
_cell_volume 151.94
_cell_formula_units_Z 8
_space_group_name_H-M_alt 'C m c a'
_space_group_IT_number 64
loop_
_space_group_symop_id
_space_group_symop_operation_xyz
1 '-x, -y+1/2, z+1/2'
2 '-x, y+1/2, -z+1/2'
3 '-x, y, z'
4 '-x, -y, -z'
5 'x, y+1/2, -z+1/2'
6 'x, -y+1/2, z+1/2'
7 'x, -y, -z'
8 'x, y, z'
9 '-x+1/2, -y, z+1/2'
10 '-x+1/2, y, -z+1/2'
11 '-x+1/2, y+1/2, z'
12 '-x+1/2, -y+1/2, -z'
13 'x+1/2, y, -z+1/2'
14 'x+1/2, -y, z+1/2'
15 'x+1/2, -y+1/2, -z'
16 'x+1/2, y+1/2, z'
loop_
_atom_type_symbol
_atom_type_oxidation_number
P0+ 0
loop_
_atom_site_label
_atom_site_type_symbol
_atom_site_symmetry_multiplicity
_atom_site_Wyckoff_symbol
_atom_site_fract_x
_atom_site_fract_y
_atom_site_fract_z
_atom_site_B_iso_or_equiv
_atom_site_occupancy
P1 P0+ 8 f 0 0.10168(9) 0.08056(28) 0.798 1.
#End of TTdata_23836-ICSD