
#(C) 2017 by FIZ Karlsruhe - Leibniz Institute for Information Infrastructure.  All rights reserved.
data_100166-ICSD
_database_code_ICSD 100166
_audit_creation_date 1980-01-01
_audit_update_record 2011-02-01
_chemical_name_systematic 'Pentapotassium dilithium neodymium fluoride'
_chemical_formula_structural 'K5 Li2 Nd F10'
_chemical_formula_sum 'F10 K5 Li2 Nd1'
_chemical_name_structure_type K5Li2NdF10
_exptl_crystal_density_diffrn 3.26
_publ_section_title 'Crystal structure of K5 Nd Li2 F10'
loop_
_citation_id
_citation_journal_full
_citation_year
_citation_journal_volume
_citation_page_first
_citation_page_last
_citation_journal_id_ASTM
primary 'Materials Research Bulletin' 1979 14 137 142 MRBUAC
loop_
_publ_author_name
'Hong, H.Y.-P.'
'McCollum, B.C.'
_cell_length_a 20.65
_cell_length_b 7.779
_cell_length_c 6.902
_cell_angle_alpha 90.
_cell_angle_beta 90.
_cell_angle_gamma 90.
_cell_volume 1108.71
_cell_formula_units_Z 4
_symmetry_space_group_name_H-M 'P n m a'
_symmetry_Int_Tables_number 62
_refine_ls_R_factor_all 0.08
loop_
_symmetry_equiv_pos_site_id
_symmetry_equiv_pos_as_xyz
1 'x+1/2, y, -z+1/2'
2 'x, -y+1/2, z'
3 '-x+1/2, y+1/2, z+1/2'
4 '-x, -y, -z'
5 '-x+1/2, -y, z+1/2'
6 '-x, y+1/2, -z'
7 'x+1/2, -y+1/2, -z+1/2'
8 'x, y, z'
loop_
_atom_type_symbol
_atom_type_oxidation_number
K1+ 1
Nd3+ 3
Li1+ 1
F1- -1
loop_
_atom_site_label
_atom_site_type_symbol
_atom_site_symmetry_multiplicity
_atom_site_Wyckoff_symbol
_atom_site_fract_x
_atom_site_fract_y
_atom_site_fract_z
_atom_site_B_iso_or_equiv
_atom_site_occupancy
_atom_site_attached_hydrogens
K1 K1+ 8 d 0.4572(3) 0.981(1) 0.249(1) 1.9 1. 0
K2 K1+ 8 d 0.2823(3) 0.025(1) 0.424(1) 1.6 1. 0
K3 K1+ 4 c 0.3622(5) 0.25 0.938(1) 1.6 1. 0
Nd1 Nd3+ 4 c 0.1070(1) 0.25 0.2350(4) 0.5 1. 0
Li1 Li1+ 4 c 0.922(4) 0.25 0.962(9) 0.3 1. 0
Li2 Li1+ 4 c 0.677(5) 0.25 0.869(9) 0.3 1. 0
F1 F1- 4 c 0.007(1) 0.25 0.046(4) 1.3 1. 0
F2 F1- 4 c 0.021(1) 0.25 0.448(4) 1.4 1. 0
F3 F1- 8 d 0.092(1) 0.961(2) 0.138(2) 2.2 1. 0
F4 F1- 8 d 0.144(1) 0.070(2) 0.509(3) 2.3 1. 0
F5 F1- 4 c 0.223(1) 0.25 0.181(4) 2.2 1. 0
F6 F1- 4 c 0.376(1) 0.25 0.314(4) 1.4 1. 0
F7 F1- 4 c 0.760(1) 0.25 0.799(4) 2. 1. 0
F8 F1- 4 c 0.631(1) 0.25 0.598(4) 2.4 1. 0
#End of TTdata_100166-ICSD