
#(C) 2018 by FIZ Karlsruhe - Leibniz Institute for Information Infrastructure.  All rights reserved.
data_100200-ICSD
_database_code_ICSD 100200
_audit_creation_date 1980-01-01
_chemical_name_systematic 'Lithium dihydrogenphosphate'
_chemical_formula_structural 'Li H2 P O4'
_chemical_formula_sum 'H2 Li1 O4 P1'
_chemical_name_structure_type LiH2AsO4
_exptl_crystal_density_diffrn 2.1
_publ_section_title

;
Crystal structure of Li H2 P O4, structural topology and hydrogen bonding in
the alkaline dihydrogen orthophosphates
;
loop_
_citation_id
_citation_journal_full
_citation_year
_citation_journal_volume
_citation_page_first
_citation_page_last
_citation_journal_id_ASTM
primary

;
Zeitschrift fuer Kristallographie, Kristallgeometrie, Kristallphysik,
Kristallchemie (145,1977-148,1979)
; 1977 146 215 226 ZKKKAJ
loop_
_publ_author_name
'Catti, M.'
'Ivaldi, G.'
_cell_length_a 6.253(4)
_cell_length_b 7.656(4)
_cell_length_c 6.881(4)
_cell_angle_alpha 90.
_cell_angle_beta 90.
_cell_angle_gamma 90.
_cell_volume 329.41
_cell_formula_units_Z 4
_symmetry_space_group_name_H-M 'P n a 21'
_symmetry_Int_Tables_number 33
_refine_ls_R_factor_all 0.022
loop_
_symmetry_equiv_pos_site_id
_symmetry_equiv_pos_as_xyz
1 'x+1/2, -y+1/2, z'
2 '-x+1/2, y+1/2, z+1/2'
3 '-x, -y, z+1/2'
4 'x, y, z'
loop_
_atom_type_symbol
_atom_type_oxidation_number
P5+ 5
Li1+ 1
O2- -2
H1+ 1
loop_
_atom_site_label
_atom_site_type_symbol
_atom_site_symmetry_multiplicity
_atom_site_Wyckoff_symbol
_atom_site_fract_x
_atom_site_fract_y
_atom_site_fract_z
_atom_site_B_iso_or_equiv
_atom_site_occupancy
_atom_site_attached_hydrogens
P1 P5+ 4 a 0.29649(4) 0.42979(3) 0.32683 . 1. 0
Li1 Li1+ 4 a 0.4889(4) 0.7695(3) 0.5000(4) . 1. 0
O1 O2- 4 a 0.2699(1) 0.3164(1) 0.1508(1) . 1. 0
O2 O2- 4 a 0.4317(2) 0.5910(1) 0.3059(1) . 1. 0
O3 O2- 4 a 0.0686(1) 0.4970(1) 0.3993(2) . 1. 0
O4 O2- 4 a 0.3826(2) 0.3074(1) 0.4936(2) . 1. 0
H1 H1+ 4 a 0.005(5) 0.415(3) 0.433(5) . 1. 0
H2 H1+ 4 a 0.437(5) 0.352(4) 0.585(5) . 1. 0
loop_
_atom_site_aniso_label
_atom_site_aniso_type_symbol
_atom_site_aniso_B_11
_atom_site_aniso_B_22
_atom_site_aniso_B_33
_atom_site_aniso_B_12
_atom_site_aniso_B_13
_atom_site_aniso_B_23
P1 P5+ 0.879(6) 0.734(6) 0.659(6) -.015(5) 0.021(8) -.122(7)
Li1 Li1+ 1.36(7) 1.25(6) 1.31(7) -.08(5) 0.04(6) 0.00(6)
O1 O2- 1.10(2) 1.27(2) 0.99(2) 0.73(2) 0.10(2) 0.46(2)
O2 O2- 1.62(2) 1.19(2) 1.03(3) -.54(2) 0.17(2) -.16(2)
O3 O2- 1.19(2) 1.06(2) 1.83(3) 0.04(2) 0.43(2) -.27(2)
O4 O2- 1.84(3) 1.10(2) 1.10(2) 0.11(2) -.45(2) 0.00(2)
H1 H1+ 1.0(5) 1.0(5) 1.0(5) 0 0 0
H2 H1+ 1.4(6) 1.4(6) 1.4(6) 0 0 0
#End of TTdata_100200-ICSD