
#(C) 2017 by FIZ Karlsruhe - Leibniz Institute for Information Infrastructure.  All rights reserved.
data_100300-ICSD
_database_code_ICSD 100300
_audit_creation_date 1980-12-31
_audit_update_record 2003-04-01
_chemical_name_systematic 'Trilithium hexafluorovanadate(III) - beta, HT'
_chemical_formula_structural 'Li3 (V F6)'
_chemical_formula_sum 'F6 Li3 V1'
_chemical_name_structure_type Zn4Ta2O9
_exptl_crystal_density_diffrn 2.95
_publ_section_title 'Die Kristallstruktur von beta - Li3 V F6'
loop_
_citation_id
_citation_journal_full
_citation_year
_citation_journal_volume
_citation_page_first
_citation_page_last
_citation_journal_id_ASTM
primary 'Zeitschrift fuer Kristallographie (1979-2010)' 1980 153 201 210 ZEKRDZ
loop_
_publ_author_name
'Massa, W.'
_cell_length_a 14.405(6)
_cell_length_b 8.688(3)
_cell_length_c 10.082(4)
_cell_angle_alpha 90.
_cell_angle_beta 95.84(3)
_cell_angle_gamma 90.
_cell_volume 1255.22
_cell_formula_units_Z 12
_symmetry_space_group_name_H-M 'C 1 2/c 1'
_symmetry_Int_Tables_number 15
_refine_ls_R_factor_all 0.062
loop_
_symmetry_equiv_pos_site_id
_symmetry_equiv_pos_as_xyz
1 'x, -y, z+1/2'
2 '-x, -y, -z'
3 '-x, y, -z+1/2'
4 'x, y, z'
5 'x+1/2, -y+1/2, z+1/2'
6 '-x+1/2, -y+1/2, -z'
7 '-x+1/2, y+1/2, -z+1/2'
8 'x+1/2, y+1/2, z'
loop_
_atom_type_symbol
_atom_type_oxidation_number
V3+ 3
Li1+ 1
F1- -1
loop_
_atom_site_label
_atom_site_type_symbol
_atom_site_symmetry_multiplicity
_atom_site_Wyckoff_symbol
_atom_site_fract_x
_atom_site_fract_y
_atom_site_fract_z
_atom_site_B_iso_or_equiv
_atom_site_occupancy
_atom_site_attached_hydrogens
V1 V3+ 4 a 0 0 0 . 1. 0
V2 V3+ 8 f 0.33788(3) 0.00146(7) 0.70706(4) . 1. 0
Li1 Li1+ 4 e 0 0.1919(9) 0.25 . 1. 0
Li2 Li1+ 8 f 0.2014(4) 0.1437(6) 0.4296(6) . 1. 0
Li3 Li1+ 8 f 0.1681(4) 0.2936(7) 0.0494(6) . 1. 0
Li4 Li1+ 8 f 0.4776(4) 0.1501(6) 0.4695(6) . 1. 0
Li5 Li1+ 8 f 0.3586(4) 0.3507(7) 0.2293(6) . 1. 0
F1 F1- 8 f 0.0922(1) 0.3398(2) 0.1921(2) . 1. 0
F2 F1- 8 f 0.2315(1) 0.3361(2) 0.8868(2) . 1. 0
F3 F1- 8 f 0.0933(1) 0.3395(2) 0.6908(2) . 1. 0
F4 F1- 8 f 0.2479(1) -.0196(2) 0.3407(2) . 1. 0
F5 F1- 8 f -.0775(1) 0.1613(2) 0.5620(2) . 1. 0
F6 F1- 8 f 0.0731(1) 0.1686(2) 0.4319(2) . 1. 0
F7 F1- 8 f 0.0793(1) 0.4884(2) 0.9335(2) . 1. 0
F8 F1- 8 f 0.2392(1) 0.3460(2) 0.3924(2) . 1. 0
F9 F1- 8 f 0.0729(1) -.0040(2) 0.6679(2) . 1. 0
loop_
_atom_site_aniso_label
_atom_site_aniso_type_symbol
_atom_site_aniso_U_11
_atom_site_aniso_U_22
_atom_site_aniso_U_33
_atom_site_aniso_U_12
_atom_site_aniso_U_13
_atom_site_aniso_U_23
V1 V3+ 0.0086(3) 0.0052(3) 0.0073(3) 0 0.0019(2) 0
V2 V3+ 0.0090(2) 0.0049(2) 0.0061(2) -0.0003(2) 0.0021(1) -0.0001(2)
Li1 Li1+ 0.0178(37) 0.0194(39) 0.0110(39) 0 0.0025(31) 0
Li2 Li1+ 0.0199(26) 0.0094(23) 0.0216(32) -0.0028(24) 0.0006(24) -0.0030(22)
Li3 Li1+ 0.0160(26) 0.0266(30) 0.0136(28) -0.0030(26) 0.0022(22) 0.0074(23)
Li4 Li1+ 0.0170(27) 0.0164(26) 0.0135(30) -0.0016(23) 0.0025(20) 0.0004(21)
Li5 Li1+ 0.0181(25) 0.0145(26) 0.0191(31) -0.0023(23) 0.0011(23) 0.0015(23)
F1 F1- 0.015(1) 0.0104(9) 0.0130(11) -0.0031(9) 0.0044(8) -0.0029(8)
F2 F1- 0.0133(10) 0.0118(9) 0.0138(12) 0.0035(9) 0.0033(8) 0.0045(8)
F3 F1- 0.0175(11) 0.0088(9) 0.0111(11) -0.0012(9) -0.0009(8) -0.0029(8)
F4 F1- 0.0126(7) 0.0101(10) 0.0111(8) -0.0016(7) 0.0055(6) -0.0003(7)
F5 F1- 0.0138(10) 0.0128(9) 0.0113(12) -0.0012(8) 0.0034(8) 0.0048(8)
F6 F1- 0.0108(9) 0.0104(9) 0.0117(12) 0.0018(8) 0.0041(8) -0.0028(8)
F7 F1- 0.0157(7) 0.0128(9) 0.0116(8) -0.0008(9) 0.0069(6) -0.0014(9)
F8 F1- 0.0141(10) 0.0100(9) 0.0125(12) 0.0028(9) -0.0006(8) 0.0002(8)
F9 F1- 0.0162(7) 0.0133(8) 0.0088(7) 0.0004(11) -0.0016(6) -0.0006(9)
#End of TTdata_100300-ICSD