
#(C) 2017 by FIZ Karlsruhe - Leibniz Institute for Information Infrastructure.  All rights reserved.
data_100559-ICSD
_database_code_ICSD 100559
_audit_creation_date 1980-01-01
_chemical_name_systematic 'Dilithium calcium uranium fluoride'
_chemical_formula_structural 'Li2 Ca U F8'
_chemical_formula_sum 'Ca1 F8 Li2 U1'
_exptl_crystal_density_diffrn 4.9
_publ_section_title 'Crystal structure of Li2 Ca U F8'
loop_
_citation_id
_citation_journal_full
_citation_year
_citation_journal_volume
_citation_page_first
_citation_page_last
_citation_journal_id_ASTM
primary 'Materials Research Bulletin' 1979 14 583 587 MRBUAC
loop_
_publ_author_name
'Vedrine, A.'
'Trottier, D.'
'Cousseins, J.C.'
'Chevalier, R.'
_cell_length_a 5.2290(12)
_cell_length_b 5.2290(12)
_cell_length_c 11.0130(18)
_cell_angle_alpha 90.
_cell_angle_beta 90.
_cell_angle_gamma 90.
_cell_volume 301.12
_cell_formula_units_Z 2
_symmetry_space_group_name_H-M 'I -4 m 2'
_symmetry_Int_Tables_number 119
_refine_ls_R_factor_all 0.062
loop_
_symmetry_equiv_pos_site_id
_symmetry_equiv_pos_as_xyz
1 'y, x, -z'
2 '-y, -x, -z'
3 'y, -x, -z'
4 '-y, x, -z'
5 'x, -y, z'
6 '-x, y, z'
7 '-x, -y, z'
8 'x, y, z'
9 'y+1/2, x+1/2, -z+1/2'
10 '-y+1/2, -x+1/2, -z+1/2'
11 'y+1/2, -x+1/2, -z+1/2'
12 '-y+1/2, x+1/2, -z+1/2'
13 'x+1/2, -y+1/2, z+1/2'
14 '-x+1/2, y+1/2, z+1/2'
15 '-x+1/2, -y+1/2, z+1/2'
16 'x+1/2, y+1/2, z+1/2'
loop_
_atom_type_symbol
_atom_type_oxidation_number
Li1+ 1
Ca2+ 2
U4+ 4
F1- -1
loop_
_atom_site_label
_atom_site_type_symbol
_atom_site_symmetry_multiplicity
_atom_site_Wyckoff_symbol
_atom_site_fract_x
_atom_site_fract_y
_atom_site_fract_z
_atom_site_B_iso_or_equiv
_atom_site_occupancy
_atom_site_attached_hydrogens
Li1 Li1+ 2 a 0 0 0 1.558 1. 0
Li2 Li1+ 2 c 0 0.5 0.25 1.216 1. 0
Ca1 Ca2+ 2 b 0 0 0.5 . 1. 0
U1 U4+ 2 d 0 0.5 0.75 . 1. 0
F1 F1- 16 j 0.2754(23) 0.1546(23) 0.8301(10) 2.069 0.5 0
F2 F1- 16 j 0.2197(38) 0.1636(37) 0.8272(16) 2.34 0.5 0
loop_
_atom_site_aniso_label
_atom_site_aniso_type_symbol
_atom_site_aniso_U_11
_atom_site_aniso_U_22
_atom_site_aniso_U_33
_atom_site_aniso_U_12
_atom_site_aniso_U_13
_atom_site_aniso_U_23
Ca1 Ca2+ 0.0068(11) 0.0068(11) 0.0009(3) 0 0 0
U1 U4+ 0.0042(13) 0.0042(13) 0.0007(4) 0 0 0
#End of TTdata_100559-ICSD