
#(C) 2018 by FIZ Karlsruhe - Leibniz Institute for Information Infrastructure.  All rights reserved.
data_100854-ICSD
_database_code_ICSD 100854
_audit_creation_date 1981-12-31
_chemical_name_systematic 'Dilithium tetrahydroxodi-mue-peroxodiborate'
_chemical_formula_structural 'Li2 (B2 (O2)2 (O H)4)'
_chemical_formula_sum 'H4 B2 Li2 O8'
_exptl_crystal_density_diffrn 1.99
_publ_section_title

;
Die Kristallstruktur des Dilithium tetrahydroxo-di-mue-peroxo-diborats
(Lithiumperoxoborats), Li2 (B2 (O2)2 (O H)4)
;
loop_
_citation_id
_citation_journal_full
_citation_year
_citation_journal_volume
_citation_page_first
_citation_page_last
_citation_journal_id_ASTM
primary 'Zeitschrift fuer Kristallographie (1979-2010)' 1981 157 251 257 ZEKRDZ
loop_
_publ_author_name
'Pawel, A.'
'Heller, G.'
'Pickardt, J.'
_cell_length_a 7.040(5)
_cell_length_b 7.880(4)
_cell_length_c 5.085(2)
_cell_angle_alpha 90.
_cell_angle_beta 97.98(5)
_cell_angle_gamma 90.
_cell_volume 279.36
_cell_formula_units_Z 2
_symmetry_space_group_name_H-M 'P 1 21/c 1'
_symmetry_Int_Tables_number 14
_refine_ls_R_factor_all 0.045
loop_
_symmetry_equiv_pos_site_id
_symmetry_equiv_pos_as_xyz
1 'x, -y+1/2, z+1/2'
2 '-x, -y, -z'
3 '-x, y+1/2, -z+1/2'
4 'x, y, z'
loop_
_atom_type_symbol
_atom_type_oxidation_number
B3+ 3
Li1+ 1
O2- -2
O1- -1
H1+ 1
loop_
_atom_site_label
_atom_site_type_symbol
_atom_site_symmetry_multiplicity
_atom_site_Wyckoff_symbol
_atom_site_fract_x
_atom_site_fract_y
_atom_site_fract_z
_atom_site_B_iso_or_equiv
_atom_site_occupancy
_atom_site_attached_hydrogens
B1 B3+ 4 e 0.1993(3) 0.5319(3) 0.0274(4) . 1. 0
Li1 Li1+ 4 e 0.1007(5) 0.3267(4) 0.5634(7) . 1. 0
O1 O2- 4 e 0.3541(2) 0.6484(2) 0.0973(4) . 1. 0
O2 O2- 4 e 0.2540(2) 0.3748(2) -.0903(3) . 1. 0
O3 O1- 4 e 0.0556(2) 0.6246(2) -.1711(3) . 1. 0
O4 O1- 4 e 0.1019(1) 0.4967(1) 0.2653(1) . 1. 0
H1 H1+ 4 e 0.337(4) 0.701(3) 0.209(5) 0.0331 1. 0
H2 H1+ 4 e 0.366(4) 0.368(3) -.086(5) 0.0342 1. 0
loop_
_atom_site_aniso_label
_atom_site_aniso_type_symbol
_atom_site_aniso_U_11
_atom_site_aniso_U_22
_atom_site_aniso_U_33
_atom_site_aniso_U_12
_atom_site_aniso_U_13
_atom_site_aniso_U_23
B1 B3+ 0.0116(10) 0.0154(12) 0.0153(11) 0.0001(9) 0.0026(8) -.0009(9)
Li1 Li1+ 0.0271(18) 0.0189(18) 0.0178(16) -.0054(16) 0.0019(14) 0.0011(14)
O1 O2- 0.0180(7) 0.0220(8) 0.0301(9) -.0038(7) 0.0089(7) -.0138(7)
O2 O2- 0.0109(7) 0.0147(7) 0.0197(7) 0.0006(6) 0.0040(6) -.0051(6)
O3 O1- 0.0171(7) 0.0128(7) 0.0176(7) -.0027(6) 0.0033(5) 0.0001(6)
O4 O1- 0.0164(7) 0.0152(7) 0.0134(6) -.0015(7) 0.0011(5) -.0016(6)
#End of TTdata_100854-ICSD