
#(C) 2018 by FIZ Karlsruhe - Leibniz Institute for Information Infrastructure.  All rights reserved.
data_10251-ICSD
_database_code_ICSD 10251
_audit_creation_date 1980-01-01
_audit_update_record 2003-04-01
_chemical_name_systematic 'Tetralithium chlorododecaoxoheptachloride'
_chemical_formula_structural 'Li4 (B7 O12 Cl)'
_chemical_formula_sum 'B7 Cl1 Li4 O12'
_exptl_crystal_density_diffrn 2.45
_publ_section_title 'Determination structurale de la boracite Li4 B7 O12 Cl'
loop_
_citation_id
_citation_journal_full
_citation_year
_citation_journal_volume
_citation_page_first
_citation_page_last
_citation_journal_id_ASTM
primary 'Journal of Solid State Chemistry' 1973 8 318 324 JSSCBI
loop_
_publ_author_name
'Levasseur, A.'
'Lloyd, D.J.'
'Fouassier, C.'
'Hagenmuller, P.'
_cell_length_a 12.154(4)
_cell_length_b 12.154(4)
_cell_length_c 12.154(4)
_cell_angle_alpha 90.
_cell_angle_beta 90.
_cell_angle_gamma 90.
_cell_volume 1795.39
_cell_formula_units_Z 8
_symmetry_space_group_name_H-M 'F 2 3'
_symmetry_Int_Tables_number 196
_refine_ls_R_factor_all 0.031
loop_
_symmetry_equiv_pos_site_id
_symmetry_equiv_pos_as_xyz
1 '-z, -x, y'
2 '-y, -z, x'
3 '-x, -y, z'
4 '-z, x, -y'
5 '-y, z, -x'
6 '-x, y, -z'
7 'z, -x, -y'
8 'y, -z, -x'
9 'x, -y, -z'
10 'z, x, y'
11 'y, z, x'
12 'x, y, z'
13 '-z, -x+1/2, y+1/2'
14 '-y, -z+1/2, x+1/2'
15 '-x, -y+1/2, z+1/2'
16 '-z, x+1/2, -y+1/2'
17 '-y, z+1/2, -x+1/2'
18 '-x, y+1/2, -z+1/2'
19 'z, -x+1/2, -y+1/2'
20 'y, -z+1/2, -x+1/2'
21 'x, -y+1/2, -z+1/2'
22 'z, x+1/2, y+1/2'
23 'y, z+1/2, x+1/2'
24 'x, y+1/2, z+1/2'
25 '-z+1/2, -x, y+1/2'
26 '-y+1/2, -z, x+1/2'
27 '-x+1/2, -y, z+1/2'
28 '-z+1/2, x, -y+1/2'
29 '-y+1/2, z, -x+1/2'
30 '-x+1/2, y, -z+1/2'
31 'z+1/2, -x, -y+1/2'
32 'y+1/2, -z, -x+1/2'
33 'x+1/2, -y, -z+1/2'
34 'z+1/2, x, y+1/2'
35 'y+1/2, z, x+1/2'
36 'x+1/2, y, z+1/2'
37 '-z+1/2, -x+1/2, y'
38 '-y+1/2, -z+1/2, x'
39 '-x+1/2, -y+1/2, z'
40 '-z+1/2, x+1/2, -y'
41 '-y+1/2, z+1/2, -x'
42 '-x+1/2, y+1/2, -z'
43 'z+1/2, -x+1/2, -y'
44 'y+1/2, -z+1/2, -x'
45 'x+1/2, -y+1/2, -z'
46 'z+1/2, x+1/2, y'
47 'y+1/2, z+1/2, x'
48 'x+1/2, y+1/2, z'
loop_
_atom_type_symbol
_atom_type_oxidation_number
Li1+ 1
B3+ 3
O2- -2
Cl1- -1
loop_
_atom_site_label
_atom_site_type_symbol
_atom_site_symmetry_multiplicity
_atom_site_Wyckoff_symbol
_atom_site_fract_x
_atom_site_fract_y
_atom_site_fract_z
_atom_site_B_iso_or_equiv
_atom_site_occupancy
_atom_site_attached_hydrogens
Li1 Li1+ 24 g 0.25 0.25 0.042(4) 2.1 0.5 0
Li2 Li1+ 24 g 0.25 0.25 -.013(4) 1.5 0.5 0
Li3 Li1+ 16 e 0.361(4) 0.361(4) 0.361(4) 0.3 0.25 0
Li4 Li1+ 16 e 0.371(7) 0.371(7) 0.871(7) 0.3 0.25 0
B1 B3+ 24 f 0 0 0.250(1) 0.35 1. 0
B2 B3+ 16 e 0.0994(8) 0.0994(8) 0.0994(8) 0.62 1. 0
B3 B3+ 16 e 0.1005(13) 0.1005(13) 0.6005(13) 1.09 1. 0
O1 O2- 48 h 0.0232(4) 0.0985(4) 0.1823(4) 0.57 1. 0
O2 O2- 48 h 0.0218(4) 0.1811(4) 0.5978(5) 0.56 1. 0
Cl1 Cl1- 4 c 0.25 0.25 0.25 0.81 1. 0
Cl2 Cl1- 4 d 0.75 0.75 0.75 1.09 1. 0
#End of TTdata_10251-ICSD