
#(C) 2017 by FIZ Karlsruhe - Leibniz Institute for Information Infrastructure.  All rights reserved.
data_1035-ICSD
_database_code_ICSD 1035
_audit_creation_date 1980-01-01
_audit_update_record 2010-02-01
_chemical_name_systematic 'Indium lithium manganese fluoride (1/1/1/6)'
_chemical_formula_structural 'In Li Mn F6'
_chemical_formula_sum 'F6 In1 Li1 Mn1'
_exptl_crystal_density_diffrn 4.47
_publ_section_title

;
Zur Struktur der Li M(II) M(III) F6 - Verbindungen. Neue Verbindungen mit
M(III)= In und Ti
;
loop_
_citation_id
_citation_journal_full
_citation_year
_citation_journal_volume
_citation_page_first
_citation_page_last
_citation_journal_id_ASTM
primary 'Zeitschrift fuer Anorganische und Allgemeine Chemie (1950) (DE)' 1977
430 161 174 ZAACAB
loop_
_publ_author_name
'Gaile, J.'
'Ruedorff, W.'
'Viebahn, W.'
_cell_length_a 8.847
_cell_length_b 8.847
_cell_length_c 4.78
_cell_angle_alpha 90.
_cell_angle_beta 90.
_cell_angle_gamma 120.
_cell_volume 324.
_cell_formula_units_Z 3
_symmetry_space_group_name_H-M 'P 3 2 1'
_symmetry_Int_Tables_number 150
loop_
_symmetry_equiv_pos_site_id
_symmetry_equiv_pos_as_xyz
1 'x-y, -y, -z'
2 '-x, -x+y, -z'
3 'y, x, -z'
4 '-x+y, -x, z'
5 '-y, x-y, z'
6 'x, y, z'
loop_
_atom_type_symbol
_atom_type_oxidation_number
Li1+ 1
In3+ 3
Mn2+ 2
F1- -1
loop_
_atom_site_label
_atom_site_type_symbol
_atom_site_symmetry_multiplicity
_atom_site_Wyckoff_symbol
_atom_site_fract_x
_atom_site_fract_y
_atom_site_fract_z
_atom_site_B_iso_or_equiv
_atom_site_occupancy
_atom_site_attached_hydrogens
Li1 Li1+ 1 a 0 0 0 . 1. 0
Li2 Li1+ 2 d 0.3333 0.6667 0.5 . 1. 0
#End of TTdata_1035-ICSD