
#(C) 2017 by FIZ Karlsruhe - Leibniz Institute for Information Infrastructure.  All rights reserved.
data_1040-ICSD
_database_code_ICSD 1040
_audit_creation_date 1980-01-01
_audit_update_record 2012-08-01
_chemical_name_systematic 'Lithium tetrachloroaluminate'
_chemical_formula_structural 'Li (Al Cl4)'
_chemical_formula_sum 'Al1 Cl4 Li1'
_chemical_name_structure_type LiAlCl4
_exptl_crystal_density_diffrn 1.97
_publ_section_title 'Lithium tetrachloroaluminate, Li Al Cl4'
loop_
_citation_id
_citation_journal_full
_citation_year
_citation_journal_volume
_citation_page_first
_citation_page_last
_citation_journal_id_ASTM
primary 'Crystal Structure Communications' 1977 6 15 18 CSCMCS
loop_
_publ_author_name
'Mairesse, G.'
'Barbier, P.'
'Vignacourt, J.P.'
_cell_length_a 7.007(3)
_cell_length_b 6.504(4)
_cell_length_c 12.995(10)
_cell_angle_alpha 90.
_cell_angle_beta 93.32(5)
_cell_angle_gamma 90.
_cell_volume 591.23
_cell_formula_units_Z 4
_symmetry_space_group_name_H-M 'P 1 21/c 1'
_symmetry_Int_Tables_number 14
_refine_ls_R_factor_all 0.029
loop_
_symmetry_equiv_pos_site_id
_symmetry_equiv_pos_as_xyz
1 'x, -y+1/2, z+1/2'
2 '-x, -y, -z'
3 '-x, y+1/2, -z+1/2'
4 'x, y, z'
loop_
_atom_type_symbol
_atom_type_oxidation_number
Al3+ 3
Cl1- -1
Li1+ 1
loop_
_atom_site_label
_atom_site_type_symbol
_atom_site_symmetry_multiplicity
_atom_site_Wyckoff_symbol
_atom_site_fract_x
_atom_site_fract_y
_atom_site_fract_z
_atom_site_B_iso_or_equiv
_atom_site_occupancy
_atom_site_attached_hydrogens
Al1 Al3+ 4 e 0.70588(7) 0.32198(8) 0.89924(4) . 1. 0
Cl1 Cl1- 4 e 0.69400(6) 0.18329(8) 0.04695(3) . 1. 0
Cl2 Cl1- 4 e 0.80902(6) 0.62835(7) 0.92849(4) . 1. 0
Cl3 Cl1- 4 e 0.92580(6) 0.18160(8) 0.81372(3) . 1. 0
Cl4 Cl1- 4 e 0.43947(6) 0.31364(7) 0.81280(3) . 1. 0
Li1 Li1+ 4 e 0.15688(54) 0.98308(65) 0.36658(29) . 1. 0
loop_
_atom_site_aniso_label
_atom_site_aniso_type_symbol
_atom_site_aniso_beta_11
_atom_site_aniso_beta_22
_atom_site_aniso_beta_33
_atom_site_aniso_beta_12
_atom_site_aniso_beta_13
_atom_site_aniso_beta_23
Al1 Al3+ 0.00969(10) 0.01502(12) 0.00311(3) -.00080(9) 0.00016(4) -.00010(5)
Cl1 Cl1- 0.01729(11) 0.02091(12) 0.00364(2) -.00453(9) 0.00020(4) 0.00179(4)
Cl2 Cl1- 0.0141(1) 0.01408(9) 0.00530(3) -.00157(8) -.00127(4) -.00002(4)
Cl3 Cl1- 0.01146(9) 0.02366(13) 0.00443(3) 0.00144(8) 0.00092(4) -.00225(5)
Cl4 Cl1- 0.01085(9) 0.02080(12) 0.00448(3) -.00011(8) -.00140(4) -.00145(4)
Li1 Li1+ 0.01878(86) 0.0303(13) 0.00696(28) 0.00032(8) 0.00017(39) 0.00171(47)
#End of TTdata_1040-ICSD