
#(C) 2017 by FIZ Karlsruhe - Leibniz Institute for Information Infrastructure.  All rights reserved.
data_108823-ICSD
_database_code_ICSD 108823
_audit_creation_date 2007-04-01
_chemical_name_systematic 'Lithium cobalt titanium fluoride (1.2/0.6/1.2/6)'
_chemical_formula_structural '(Li0.6 Co0.3 Ti0.6)2 F6'
_chemical_formula_sum 'Co0.6 F6 Li1.2 Ti1.2'
_chemical_name_structure_type BiI3(P3-1m)
_exptl_crystal_density_diffrn 3.62
_publ_section_title

;
High-pressure synthesis of Li Ti M F6(M= Mn, Fe, Co, Ni) with trirutile, Na2
Si F6, and Pb Sb2 O6 structures
;
loop_
_citation_id
_citation_journal_full
_citation_year
_citation_journal_volume
_citation_page_first
_citation_page_last
_citation_journal_id_ASTM
primary 'Journal of Solid State Chemistry' 1990 88 505 512 JSSCBI
loop_
_publ_author_name
'Sekino, T.'
'Endo, T.'
'Sato, T.'
'Shimada, M.'
_cell_length_a 4.981(5)
_cell_length_b 4.981(5)
_cell_length_c 4.589(7)
_cell_angle_alpha 90.
_cell_angle_beta 90.
_cell_angle_gamma 120.
_cell_volume 98.6
_cell_formula_units_Z 1
_symmetry_space_group_name_H-M 'P 3 1 2'
_symmetry_Int_Tables_number 149
_refine_ls_R_factor_all 0.026
loop_
_symmetry_equiv_pos_site_id
_symmetry_equiv_pos_as_xyz
1 'x, x-y, -z'
2 '-x+y, y, -z'
3 '-y, -x, -z'
4 '-x+y, -x, z'
5 '-y, x-y, z'
6 'x, y, z'
loop_
_atom_type_symbol
_atom_type_oxidation_number
Li1+ 1
Co2+ 2
Ti3+ 3
Li1+ 1
Ti3+ 3
Co2+ 2
Ti3+ 3
F1- -1
loop_
_atom_site_label
_atom_site_type_symbol
_atom_site_symmetry_multiplicity
_atom_site_Wyckoff_symbol
_atom_site_fract_x
_atom_site_fract_y
_atom_site_fract_z
_atom_site_B_iso_or_equiv
_atom_site_occupancy
_atom_site_attached_hydrogens
Li1 Li1+ 1 a 0 0 0 . .83 0
Co1 Co2+ 1 a 0 0 0 . .13 0
Ti1 Ti3+ 1 a 0 0 0 . .04 0
Li2 Li1+ 1 e 0.6667 0.3333 0 . .37 0
Ti2 Ti3+ 1 e 0.6667 0.3333 0 . .16 0
Co2 Co2+ 1 e 0.6667 0.3333 0 . .47 0
Ti3 Ti3+ 1 d 0.3333 0.6667 0.5 . 1. 0
F1 F1- 6 l 0.33 0 0.26 . 1. 0
#End of TTdata_108823-ICSD