
#(C) 2017 by FIZ Karlsruhe - Leibniz Institute for Information Infrastructure.  All rights reserved.
data_14277-ICSD
_database_code_ICSD 14277
_audit_creation_date 1980-01-01
_audit_update_record 1984-07-05
_chemical_name_systematic 'Lithium hydrazinium tetrafluoroberyllate'
_chemical_formula_structural 'Li (N2 H5) Be F4'
_chemical_formula_sum 'H5 Be1 F4 Li1 N2'
_chemical_name_structure_type LiN2H5SO4
_exptl_crystal_density_diffrn 1.85
_publ_section_title 'Crystal data for Li (N2 H5) Be F4 and Li (N2 H5) S O4'
loop_
_citation_id
_citation_journal_full
_citation_year
_citation_journal_volume
_citation_page_first
_citation_page_last
_citation_journal_id_ASTM
primary 'Acta Crystallographica B (24,1968-38,1982)' 1973 29 2625 2628 ACBCAR
loop_
_publ_author_name
'Anderson, M.R.'
'Brown, I.D.'
'Vilminot, S.'
_cell_length_a 9.811(4)
_cell_length_b 8.880(8)
_cell_length_c 5.139(4)
_cell_angle_alpha 90.
_cell_angle_beta 90.
_cell_angle_gamma 90.
_cell_volume 447.72
_cell_formula_units_Z 4
_symmetry_space_group_name_H-M 'P n a 21'
_symmetry_Int_Tables_number 33
_refine_ls_R_factor_all 0.039
loop_
_symmetry_equiv_pos_site_id
_symmetry_equiv_pos_as_xyz
1 'x+1/2, -y+1/2, z'
2 '-x+1/2, y+1/2, z+1/2'
3 '-x, -y, z+1/2'
4 'x, y, z'
loop_
_atom_type_symbol
_atom_type_oxidation_number
Li1+ 1
N2- -2
Be2+ 2
F1- -1
H1+ 1
loop_
_atom_site_label
_atom_site_type_symbol
_atom_site_symmetry_multiplicity
_atom_site_Wyckoff_symbol
_atom_site_fract_x
_atom_site_fract_y
_atom_site_fract_z
_atom_site_B_iso_or_equiv
_atom_site_occupancy
_atom_site_attached_hydrogens
Li1 Li1+ 4 a 0.322(1) 0.436(1) 0.251(2) . 1. 0
N1 N2- 4 a 0.0225(4) 0.4116(4) 0.7455 . 1. 0
N2 N2- 4 a 0.4422(3) 0.2228(4) 0.742(1) . 1. 0
Be1 Be2+ 4 a 0.1584(4) 0.1270(5) 0.248(1) . 1. 0
F1 F1- 4 a 0.1958(2) 0.1051(2) 0.540(1) . 1. 0
F2 F1- 4 a 0.0002(2) 0.1433(3) 0.231(1) . 1. 0
F3 F1- 4 a 0.2249(2) 0.2701(2) 0.141(1) . 1. 0
F4 F1- 4 a 0.2983(2) 0.4881(2) 0.591(1) . 1. 0
H1 H1+ 4 a 0.097(6) 0.389(6) 0.803(17) 0.049(19) 1. 0
H2 H1+ 4 a 0.011(5) 0.463(5) 0.598(11) 0.013(12) 1. 0
H3 H1+ 4 a 0.362(4) 0.192(5) 0.690(12) 0.018(13) 1. 0
H4 H1+ 4 a 0.450(7) 0.259(8) 0.908(15) 0.033(20) 1. 0
H5 H1+ 4 a 0.472(6) 0.296(7) 0.614(16) 0.025(19) 1. 0
loop_
_atom_site_aniso_label
_atom_site_aniso_type_symbol
_atom_site_aniso_U_11
_atom_site_aniso_U_22
_atom_site_aniso_U_33
_atom_site_aniso_U_12
_atom_site_aniso_U_13
_atom_site_aniso_U_23
Li1 Li1+ 0.019(2) 0.023(3) 0.021(3) -.001(2) -.004(3) -.002(3)
N1 N2- 0.033(2) 0.028(2) 0.034(2) -.007(1) 0.000(2) 0.004(2)
N2 N2- 0.027(1) 0.026(1) 0.026(2) 0.002(1) 0.001(2) 0.004(2)
Be1 Be2+ 0.015(1) 0.020(2) 0.016(2) -.001(1) -.002(2) -.001(2)
F1 F1- 0.035(1) 0.025(1) 0.018(1) -.003(1) -.004(1) 0.002(1)
F2 F1- 0.016(1) 0.040(1) 0.031(1) -.003(1) -.001(1) 0.006(1)
F3 F1- 0.029(1) 0.023(1) 0.026(1) -.010(1) 0.000(1) 0.003(1)
F4 F1- 0.036(1) 0.025(1) 0.022(1) -.006(1) 0.004(1) -.008(1)
#End of TTdata_14277-ICSD