
#(C) 2017 by FIZ Karlsruhe - Leibniz Institute for Information Infrastructure.  All rights reserved.
data_150442-ICSD
_database_code_ICSD 150442
_audit_creation_date 2006-04-01
_audit_update_record 2013-08-01
_chemical_name_systematic 'Lithium lanthanum osmium iodide (0.57/6.43/1/12)'
_chemical_formula_structural '(Li0.57 La0.43) (La6 I12 Os)'
_chemical_formula_sum 'I12 La6.43 Li0.57 Os1'
_chemical_name_structure_type NaLa6OsI12
_exptl_crystal_density_diffrn 5.22
_publ_section_title
'Li La6 I12 Os, a substitutional derivative of rhombohedral La (La6 I12 Os)'
loop_
_citation_id
_citation_journal_full
_citation_year
_citation_journal_volume
_citation_page_first
_citation_page_last
_citation_journal_id_ASTM
primary 'Journal of Solid State Chemistry' 2004 177 4465 4474 JSSCBI
loop_
_publ_author_name
'Jensen, E.A.'
'Corbett, J.D.'
_cell_length_a 16.1709(5)
_cell_length_b 16.1709(5)
_cell_length_c 10.9981(7)
_cell_angle_alpha 90.
_cell_angle_beta 90.
_cell_angle_gamma 120.
_cell_volume 2490.67
_cell_formula_units_Z 3
_symmetry_space_group_name_H-M 'R -3 H'
_symmetry_Int_Tables_number 148
_refine_ls_R_factor_all 0.0533
loop_
_symmetry_equiv_pos_site_id
_symmetry_equiv_pos_as_xyz
1 'x-y, x, -z'
2 'y, -x+y, -z'
3 '-x, -y, -z'
4 '-x+y, -x, z'
5 '-y, x-y, z'
6 'x, y, z'
7 'x-y+2/3, x+1/3, -z+1/3'
8 'y+2/3, -x+y+1/3, -z+1/3'
9 '-x+2/3, -y+1/3, -z+1/3'
10 '-x+y+2/3, -x+1/3, z+1/3'
11 '-y+2/3, x-y+1/3, z+1/3'
12 'x+2/3, y+1/3, z+1/3'
13 'x-y+1/3, x+2/3, -z+2/3'
14 'y+1/3, -x+y+2/3, -z+2/3'
15 '-x+1/3, -y+2/3, -z+2/3'
16 '-x+y+1/3, -x+2/3, z+2/3'
17 '-y+1/3, x-y+2/3, z+2/3'
18 'x+1/3, y+2/3, z+2/3'
loop_
_atom_type_symbol
_atom_type_oxidation_number
La1+ 1.69
Os0+ 0
I1- -1
Li1+ 1
La3+ 3
loop_
_atom_site_label
_atom_site_type_symbol
_atom_site_symmetry_multiplicity
_atom_site_Wyckoff_symbol
_atom_site_fract_x
_atom_site_fract_y
_atom_site_fract_z
_atom_site_B_iso_or_equiv
_atom_site_occupancy
_atom_site_attached_hydrogens
La1 La1+ 18 f 0.8821(5) 0.8376(4) 0.1519(7) 0.0230(9) 1. 0
Os1 Os0+ 3 a 0 0 0 0.0304(3) 1. 0
I1 I1- 18 f 0.6155(10) 0.4644(8) -.008(1) 0.0241(2) 1. 0
I2 I1- 18 f 0.6863(8) 0.7630(10) -.005(1) 0.0355(2) 1. 0
Li1 Li1+ 3 b 0 0 0.5 0.062(2) 0.57(3) 0
La2 La3+ 3 b 0 0 0.5 0.062(2) 0.43(3) 0
#End of TTdata_150442-ICSD