
#(C) 2018 by FIZ Karlsruhe - Leibniz Institute for Information Infrastructure.  All rights reserved.
data_150859-ICSD
_database_code_ICSD 150859
_audit_creation_date 2006-04-01
_audit_update_record 2008-08-01
_chemical_name_systematic
'Tetrapotassium lithium tris(hydrogensulfate(VI)) sulfate(VI)'
_chemical_formula_structural 'K4 Li (H S O4)3 (S O4)'
_chemical_formula_sum 'H3 K4 Li1 O16 S4'
_chemical_name_structure_type K4LiH3(SO4)4
_exptl_crystal_density_diffrn 2.36
_cell_measurement_temperature 100.
_publ_section_title

;
Phase transitions in A4 Li (H S O4)3 (S O4); A = Rb, K: single crystal X-ray
diffraction data
;
loop_
_citation_id
_citation_journal_full
_citation_year
_citation_journal_volume
_citation_page_first
_citation_page_last
_citation_journal_id_ASTM
primary 'Proceedings of the Indian Academy of Sciences, Serie: Chem. Sci.' 2003
115 473 490 PIAADM
loop_
_publ_author_name
'Nalini, G.'
'Guru Row, T.N.'
_cell_length_a 7.371(1)
_cell_length_b 7.371(1)
_cell_length_c 28.522(5)
_cell_angle_alpha 90.
_cell_angle_beta 90.
_cell_angle_gamma 90.
_cell_volume 1549.65
_cell_formula_units_Z 4
_symmetry_space_group_name_H-M 'P 41'
_symmetry_Int_Tables_number 76
_refine_ls_R_factor_all 0.03
loop_
_symmetry_equiv_pos_site_id
_symmetry_equiv_pos_as_xyz
1 'y, -x, z+3/4'
2 '-y, x, z+1/4'
3 '-x, -y, z+1/2'
4 'x, y, z'
loop_
_atom_type_symbol
_atom_type_oxidation_number
K1+ 1
S6+ 6
O2- -2
Li1+ 1
H1+ 1
loop_
_atom_site_label
_atom_site_type_symbol
_atom_site_symmetry_multiplicity
_atom_site_Wyckoff_symbol
_atom_site_fract_x
_atom_site_fract_y
_atom_site_fract_z
_atom_site_B_iso_or_equiv
_atom_site_occupancy
_atom_site_attached_hydrogens
K1 K1+ 4 a 0.5109(1) 0.0098(2) 0.0236(1) 0.0146(2) 1. 0
K2 K1+ 4 a -0.3745(2) 0.3968(2) -0.1024(1) 0.0141(2) 1. 0
K3 K1+ 4 a 0.0969(2) -0.0861(2) 0.1333(1) 0.0126(2) 1. 0
K4 K1+ 4 a 0.2182(1) -0.5012(1) 0.0345(1) 0.0121(2) 1. 0
S1 S6+ 4 a 0.4510(2) -0.1105(2) -0.0991(1) 0.0105(3) 1. 0
S2 S6+ 4 a 0.1064(2) 0.4279(2) -0.0991(1) 0.0105(3) 1. 0
S3 S6+ 4 a 0.0216(2) -0.0136(2) 0.0170(1) 0.0097(3) 1. 0
S4 S6+ 4 a -0.3207(2) -0.4774(2) 0.0211(1) 0.0105(2) 1. 0
O1 O2- 4 a 0.3744(5) -0.1882(5) -0.0527(1) 0.0141(8) 1. 0
O2 O2- 4 a 0.5646(5) -0.2490(5) -0.1213(1) 0.0144(8) 1. 0
O3 O2- 4 a 0.5539(5) 0.0466(5) -0.0846(1) 0.0149(8) 1. 0
O4 O2- 4 a 0.2936(5) -0.0706(5) -0.1289(1) 0.0138(8) 1. 0
O5 O2- 4 a 0.0057(5) 0.2621(5) -0.0796(1) 0.0128(8) 1. 0
O6 O2- 4 a 0.2550(5) 0.3631(5) -0.1301(1) 0.0150(8) 1. 0
O7 O2- 4 a 0.1787(6) 0.5266(5) -0.0586(1) 0.0191(9) 1. 0
O8 O2- 4 a -0.0257(5) 0.5300(5) -0.1253(1) 0.0204(8) 1. 0
O9 O2- 4 a -0.1141(5) 0.0396(5) 0.0520(1) 0.0151(8) 1. 0
O10 O2- 4 a 0.1575(5) -0.1301(5) 0.0383(1) 0.0192(8) 1. 0
O11 O2- 4 a -0.0688(5) -0.1029(5) -0.0227(1) 0.0178(9) 1. 0
O12 O2- 4 a 0.1147(5) 0.1542(5) -0.0013(1) 0.0145(8) 1. 0
O13 O2- 4 a -0.4307(5) -0.3444(5) 0.0457(1) 0.0154(8) 1. 0
O14 O2- 4 a -0.2566(5) -0.3927(6) -0.0261(1) 0.0150(8) 1. 0
O15 O2- 4 a -0.1584(5) -0.5250(5) 0.0474(1) 0.0149(8) 1. 0
O16 O2- 4 a -0.4253(5) -0.6336(5) 0.0061(1) 0.0162(8) 1. 0
Li1 Li1+ 4 a -0.1471(11) -0.7404(10) 0.0846(4) 0.0128(14) 1. 0
H1 H1+ 4 a 0.268(8) -0.315(9) -0.060(21) 0.031(30) 1. 0
H2 H1+ 4 a 0.088(11) 0.189(11) -0.025(3) 0.052(27) 1. 0
H3 H1+ 4 a -0.204(9) -0.302(9) -0.018(3) 0.017(19) 1. 0
#End of TTdata_150859-ICSD