
#(C) 2018 by FIZ Karlsruhe - Leibniz Institute for Information Infrastructure.  All rights reserved.
data_150858-ICSD
_database_code_ICSD 150858
_audit_creation_date 2006-04-01
_audit_update_record 2010-08-01
_chemical_name_systematic
'Tetrapotassium lithium tris(hydrogensulfate(VI)) sulfate(VI)'
_chemical_formula_structural 'K4 Li (H S O4)3 (S O4)'
_chemical_formula_sum 'H3 K4 Li1 O16 S4'
_chemical_name_structure_type K4LiH3(SO4)4
_exptl_crystal_density_diffrn 2.32
_publ_section_title

;
Phase transitions in A4 Li (H S O4)3 (S O4); A= Rb, K: single crystal X-ray
diffraction data
;
loop_
_citation_id
_citation_journal_full
_citation_year
_citation_journal_volume
_citation_page_first
_citation_page_last
_citation_journal_id_ASTM
primary 'Proceedings of the Indian Academy of Sciences, Serie: Chem. Sci.' 2003
115 473 490 PIAADM
loop_
_publ_author_name
'Nalini, G.'
'Guru Row, T.N.'
_cell_length_a 7.405(1)
_cell_length_b 7.405(1)
_cell_length_c 28.712(6)
_cell_angle_alpha 90.
_cell_angle_beta 90.
_cell_angle_gamma 90.
_cell_volume 1574.39
_cell_formula_units_Z 4
_symmetry_space_group_name_H-M 'P 41'
_symmetry_Int_Tables_number 76
_refine_ls_R_factor_all 0.03
loop_
_symmetry_equiv_pos_site_id
_symmetry_equiv_pos_as_xyz
1 'y, -x, z+3/4'
2 '-y, x, z+1/4'
3 '-x, -y, z+1/2'
4 'x, y, z'
loop_
_atom_type_symbol
_atom_type_oxidation_number
K1+ 1
S6+ 6
O2- -2
Li1+ 1
H1+ 1
loop_
_atom_site_label
_atom_site_type_symbol
_atom_site_symmetry_multiplicity
_atom_site_Wyckoff_symbol
_atom_site_fract_x
_atom_site_fract_y
_atom_site_fract_z
_atom_site_B_iso_or_equiv
_atom_site_occupancy
_atom_site_attached_hydrogens
K1 K1+ 4 a 0.5104(2) 0.0146(2) 0.0232(1) 0.0302(2) 1. 0
K2 K1+ 4 a -0.3755(1) 0.3991(1) -0.1018(1) 0.030(2) 1. 0
K3 K1+ 4 a 0.0964(1) -0.0807(1) 0.1343(1) 0.0126(2) 1. 0
K4 K1+ 4 a 0.2132(1) -0.4938(1) 0.0336(1) 0.0264(2) 1. 0
S1 S6+ 4 a 0.4522(1) -0.1090(1) -0.0990(1) 0.0184(1) 1. 0
S2 S6+ 4 a 0.1083(1) 0.4283(1) -0.0995(1) 0.0191(2) 1. 0
S3 S6+ 4 a 0.0207(1) -0.0091(1) 0.0173(1) 0.0186(2) 1. 0
S4 S6+ 4 a -0.3227(1) -0.4729(1) 0.0216(1) 0.0197(1) 1. 0
O1 O2- 4 a 0.3753(4) -0.1867(4) -0.0538(1) 0.0311(6) 1. 0
O2 O2- 4 a 0.5661(4) -0.2451(3) -0.1212(1) 0.0297(5) 1. 0
O3 O2- 4 a 0.5534(4) 0.0467(3) -0.0840(1) 0.0331(6) 1. 0
O4 O2- 4 a 0.2980(3) -0.0678(4) -0.1295(1) 0.0304(6) 1. 0
O5 O2- 4 a 0.0091(4) 0.2643(3) -0.0798(1) 0.0292(5) 1. 0
O6 O2- 4 a 0.2507(4) 0.3656(4) -0.1301(1) 0.0381(7) 1. 0
O7 O2- 4 a 0.1845(4) 0.5264(4) -0.0599(1) 0.0415(8) 1. 0
O8 O2- 4 a -0.0238(4) 0.5332(4) -0.1245(1) 0.0375(7) 1. 0
O9 O2- 4 a -0.1136(3) 0.0465(3) 0.0520(1) 0.0303(6) 1. 0
O10 O2- 4 a 0.1554(3) -0.1221(4) 0.0390(1) 0.0297(6) 1. 0
O11 O2- 4 a -0.0684(4) -0.0996(4) -0.0220(1) 0.0356(7) 1. 0
O12 O2- 4 a 0.1142(4) 0.1559(3) -0.0018(1) 0.0299(6) 1. 0
O13 O2- 4 a -0.4324(4) -0.3408(4) 0.0457(1) 0.0335(6) 1. 0
O14 O2- 4 a -0.2535(4) -0.3887(4) -0.0249(1) 0.0325(6) 1. 0
O15 O2- 4 a -0.1632(4) -0.5196(4) 0.0483(1) 0.0337(6) 1. 0
O16 O2- 4 a -0.4255(4) -0.6275(4) 0.0061(1) 0.0355(6) 1. 0
Li1 Li1+ 4 a -0.1487(7) -0.7348(8) 0.0840(3) 0.0261(9) 1. 0
H1 H1+ 4 a 0.328(6) -0.271(6) -0.061(2) 0.042(15) 1. 0
H2 H1+ 4 a 0.053(9) 0.209(9) -0.042(2) 0.087(27) 1. 0
H3 H1+ 4 a -0.203(6) -0.296(6) -0.018(2) 0.048(14) 1. 0
#End of TTdata_150858-ICSD