
#(C) 2018 by FIZ Karlsruhe - Leibniz Institute for Information Infrastructure.  All rights reserved.
data_151084-ICSD
_database_code_ICSD 151084
_audit_creation_date 2006-04-01
_chemical_name_systematic 'Lithium gallium telluride (0.85/3/5.02)'
_chemical_formula_structural 'Li0.85 (Ga2.999 Te5.018)'
_chemical_formula_sum 'Ga2.999 Li0.85 Te5.018'
_exptl_crystal_density_diffrn 5.42
_cell_measurement_temperature 180.
_publ_section_title

;
M2 Ga6 Te10 (M: Li, Na): two new non-metallic filled beta-manganese phases -
X-ray and NMR studies
;
loop_
_citation_id
_citation_journal_full
_citation_year
_citation_journal_volume
_citation_page_first
_citation_page_last
_citation_journal_id_ASTM
primary 'Zeitschrift fuer Anorganische und Allgemeine Chemie (1950) (DE)' 2000
626 302 308 ZAACAB
loop_
_publ_author_name
'Deiseroth, H.J.'
'Kienle, L.'
'Guenther, H.'
'Hartung, M.'
_cell_length_a 14.369(2)
_cell_length_b 14.369(2)
_cell_length_c 17.590(4)
_cell_angle_alpha 90.
_cell_angle_beta 90.
_cell_angle_gamma 120.
_cell_volume 3145.21
_cell_formula_units_Z 12
_symmetry_space_group_name_H-M 'R 3 2 H'
_symmetry_Int_Tables_number 155
_refine_ls_R_factor_all 0.026
loop_
_symmetry_equiv_pos_site_id
_symmetry_equiv_pos_as_xyz
1 '-x, -x+y, -z'
2 'x-y, -y, -z'
3 'y, x, -z'
4 '-x+y, -x, z'
5 '-y, x-y, z'
6 'x, y, z'
7 '-x+2/3, -x+y+1/3, -z+1/3'
8 'x-y+2/3, -y+1/3, -z+1/3'
9 'y+2/3, x+1/3, -z+1/3'
10 '-x+y+2/3, -x+1/3, z+1/3'
11 '-y+2/3, x-y+1/3, z+1/3'
12 'x+2/3, y+1/3, z+1/3'
13 '-x+1/3, -x+y+2/3, -z+2/3'
14 'x-y+1/3, -y+2/3, -z+2/3'
15 'y+1/3, x+2/3, -z+2/3'
16 '-x+y+1/3, -x+2/3, z+2/3'
17 '-y+1/3, x-y+2/3, z+2/3'
18 'x+1/3, y+2/3, z+2/3'
loop_
_atom_type_symbol
_atom_type_oxidation_number
Li1+ 1
Ga3+ 3.063
Te2- -2
loop_
_atom_site_label
_atom_site_type_symbol
_atom_site_symmetry_multiplicity
_atom_site_Wyckoff_symbol
_atom_site_fract_x
_atom_site_fract_y
_atom_site_fract_z
_atom_site_B_iso_or_equiv
_atom_site_occupancy
_atom_site_attached_hydrogens
Li1 Li1+ 6 c 0.3333 0.6667 0.098(3) 1.5(1) 0.8(2) 0
Li2 Li1+ 9 d 0.729(4) 0.729(4) 0 2.4(2) 0.6(2) 0
Ga1 Ga3+ 18 f 0.5841(1) 0.9981(1) 0.24772(7) 1.16(6) 0.994(8) 0
Ga2 Ga3+ 18 f 0.8889(1) 0.0791(1) 0.23797(7) 1.20(6) 1.005(8) 0
Te1 Te2- 18 f 0.70105(6) 0.90198(6) 0.23177(4) 1.04(3) 1. 0
Te2 Te2- 18 f 0.38884(7) 0.85870(7) 0.28680(5) 1.33(4) 1.004(6) 0
Te3 Te2- 9 e 0.91863(8) 0.25196(8) 0.1667 1.35(4) 1.002(7) 0
Te4 Te2- 9 d 0.16653(8) 0.16653(8) 0 1.33(4) 1.004(8) 0
Te5 Te2- 6 c 0 0 0.17084(7) 1.04(3) 1.014(9) 0
loop_
_atom_site_aniso_label
_atom_site_aniso_type_symbol
_atom_site_aniso_U_11
_atom_site_aniso_U_22
_atom_site_aniso_U_33
_atom_site_aniso_U_12
_atom_site_aniso_U_13
_atom_site_aniso_U_23
Ga1 Ga3+ 0.0147(7) 0.0153(7) 0.0144(6) 0.0077(6) 0.00070(5) -0.00040(5)
Ga2 Ga3+ 0.0147(7) 0.0138(7) 0.0169(6) 0.0067(6) 0.00070(5) -0.00010(5)
Te1 Te2- 0.0127(4) 0.0127(4) 0.0142(4) 0.0063(3) -0.00010(3) 0.00020(3)
Te2 Te2- 0.0130(4) 0.0180(4) 0.0175(4) 0.0062(3) -0.00100(3) 0.00170(3)
Te3 Te2- 0.0143(5) 0.0143(5) 0.0215(6) 0.0063(5) -0.00188(2) 0.00188(2)
Te4 Te2- 0.0152(5) 0.0152(5) 0.1665(5) 0.0047(5) 0.00092(2) -0.00092(2)
Te5 Te2- 0.0123(4) 0.0123(4) 0.0149(6) 0.0062 0. 0.
#End of TTdata_151084-ICSD