
#(C) 2018 by FIZ Karlsruhe - Leibniz Institute for Information Infrastructure.  All rights reserved.
data_151622-ICSD
_database_code_ICSD 151622
_audit_creation_date 2006-10-01
_chemical_name_systematic 'Potassium lithium sulfate(VI) - II'
_chemical_formula_structural 'K Li (S O4)'
_chemical_formula_sum 'K1 Li1 O4 S1'
_chemical_name_structure_type CsLiSO4
_exptl_crystal_density_diffrn 2.29
_cell_measurement_temperature 753.
_publ_section_title

;
High-temperature structure analysis of K Li S O4 by neutron powder diffraction
;
loop_
_citation_id
_citation_journal_full
_citation_year
_citation_journal_volume
_citation_page_first
_citation_page_last
_citation_journal_id_ASTM
primary 'Physica B, Condensed Matter' 2004 348 34 41 PHYBE3
loop_
_publ_author_name
'Lyoo Soo Hyun'
'Park Hyun Min'
'Chung Sujin'
_cell_length_a 5.2177(6)
_cell_length_b 9.1298(11)
_cell_length_c 8.6562(10)
_cell_angle_alpha 90.
_cell_angle_beta 90.
_cell_angle_gamma 90.
_cell_volume 412.35
_cell_formula_units_Z 4
_symmetry_space_group_name_H-M 'P m c n'
_symmetry_Int_Tables_number 62
_refine_ls_R_factor_all 0.028
loop_
_symmetry_equiv_pos_site_id
_symmetry_equiv_pos_as_xyz
1 'x, -y+1/2, z+1/2'
2 '-x+1/2, y, z'
3 'x+1/2, y+1/2, -z+1/2'
4 '-x, -y, -z'
5 '-x, y+1/2, -z+1/2'
6 'x+1/2, -y, -z'
7 '-x+1/2, -y+1/2, z+1/2'
8 'x, y, z'
loop_
_atom_type_symbol
_atom_type_oxidation_number
K1+ 1
Li1+ 1
S6+ 6
O2- -2
loop_
_atom_site_label
_atom_site_type_symbol
_atom_site_symmetry_multiplicity
_atom_site_Wyckoff_symbol
_atom_site_fract_x
_atom_site_fract_y
_atom_site_fract_z
_atom_site_B_iso_or_equiv
_atom_site_occupancy
_atom_site_attached_hydrogens
K1 K1+ 4 c 0.25 0.205(1) 0.009(2) 9.6(2) 1. 0
Li1 Li1+ 4 c 0.25 -0.075(2) -0.668(2) 9.4(5) 1. 0
S1 S6+ 4 c 0.75 0.408(2) 0.785(2) 24.3(11) 1. 0
O1 O2- 8 d 0.678(3) 0.408(3) 0.944(1) 17.0(4) 0.5 0
O2 O2- 8 d 0.015(3) 0.425(2) 0.738(2) 7.9(2) 0.5 0
O3 O2- 8 d 0.619(3) 0.522(2) 0.735(3) 14.3(5) 0.5 0
O4 O2- 8 d 0.674(2) 0.272(1) 0.727(2) 11.2(2) 0.5 0
#End of TTdata_151622-ICSD