
#(C) 2018 by FIZ Karlsruhe - Leibniz Institute for Information Infrastructure.  All rights reserved.
data_151625-ICSD
_database_code_ICSD 151625
_audit_creation_date 2006-10-01
_audit_update_record 2008-08-01
_chemical_name_systematic 'Potassium lithium sulfate(VI) - I'
_chemical_formula_structural 'K Li (S O4)'
_chemical_formula_sum 'K1 Li1 O4 S1'
_exptl_crystal_density_diffrn 2.21
_cell_measurement_temperature 963.
_publ_section_title

;
High-temperature structure analysis of K Li S O4 by neutron powder diffraction
;
loop_
_citation_id
_citation_journal_full
_citation_year
_citation_journal_volume
_citation_page_first
_citation_page_last
_citation_journal_id_ASTM
primary 'Physica B, Condensed Matter' 2004 348 34 41 PHYBE3
loop_
_publ_author_name
'Lyoo Soo Hyun'
'Park Hyun Min'
'Chung Sujin'
_cell_length_a 5.2929(4)
_cell_length_b 5.2929(4)
_cell_length_c 8.7895(7)
_cell_angle_alpha 90.
_cell_angle_beta 90.
_cell_angle_gamma 120.
_cell_volume 213.25
_cell_formula_units_Z 2
_symmetry_space_group_name_H-M 'P 63 m c'
_symmetry_Int_Tables_number 186
_refine_ls_R_factor_all 0.0307
loop_
_symmetry_equiv_pos_site_id
_symmetry_equiv_pos_as_xyz
1 '-x, -x+y, z+1/2'
2 'x-y, -y, z+1/2'
3 'y, x, z+1/2'
4 'x-y, x, z+1/2'
5 'y, -x+y, z+1/2'
6 '-x, -y, z+1/2'
7 'x, x-y, z'
8 '-x+y, y, z'
9 '-y, -x, z'
10 '-x+y, -x, z'
11 '-y, x-y, z'
12 'x, y, z'
loop_
_atom_type_symbol
_atom_type_oxidation_number
K1+ 1
Li1+ 1
S6+ 6
O2- -2
loop_
_atom_site_label
_atom_site_type_symbol
_atom_site_symmetry_multiplicity
_atom_site_Wyckoff_symbol
_atom_site_fract_x
_atom_site_fract_y
_atom_site_fract_z
_atom_site_B_iso_or_equiv
_atom_site_occupancy
_atom_site_attached_hydrogens
K1 K1+ 2 a 0 0 0 27.0(10) 1. 0
Li1 Li1+ 2 b 0.3333 0.6667 0.864(6) 4.3(10) 1. 0
S1 S6+ 2 b 0.3333 0.6667 0.207(4) 7.0(8) 1. 0
O1 O2- 6 c 0.410(5) 0.820(9) 0.060(5) 23.4(17) 0.333 0
O2 O2- 12 d 0.068(2) 0.633(2) 0.272(5) 14.3(3) 0.5 0
#End of TTdata_151625-ICSD