
#(C) 2017 by FIZ Karlsruhe - Leibniz Institute for Information Infrastructure.  All rights reserved.
data_151978-ICSD
_database_code_ICSD 151978
_audit_creation_date 2006-10-01
_chemical_name_systematic 'Lithium trifluoromethylsulfonate - gamma'
_chemical_formula_structural 'Li (S O3 C F3)'
_chemical_formula_sum 'C1 F3 Li1 O3 S1'
_exptl_crystal_density_diffrn 1.88
_cell_measurement_temperature 456.
_publ_section_title

;
The structure of the high temperature modification of lithium triflate
(gamma-(Li S O3 C F3))
;
loop_
_citation_id
_citation_journal_full
_citation_year
_citation_journal_volume
_citation_page_first
_citation_page_last
_citation_journal_id_ASTM
primary 'Zeitschrift fuer Anorganische und Allgemeine Chemie (1950) (DE)' 2004
630 1613 1616 ZAACAB
loop_
_publ_author_name
'Dinnebier, R.'
'Sofina, N.'
'Jansen, M.'
_cell_length_a 6.3022(4)
_cell_length_b 8.6989(5)
_cell_length_c 20.1262(14)
_cell_angle_alpha 90.
_cell_angle_beta 90.
_cell_angle_gamma 90.
_cell_volume 1103.36
_cell_formula_units_Z 8
_symmetry_space_group_name_H-M 'C m c a'
_symmetry_Int_Tables_number 64
_refine_ls_R_factor_all 0.0295
loop_
_symmetry_equiv_pos_site_id
_symmetry_equiv_pos_as_xyz
1 '-x, -y+1/2, z+1/2'
2 '-x, y+1/2, -z+1/2'
3 '-x, y, z'
4 '-x, -y, -z'
5 'x, y+1/2, -z+1/2'
6 'x, -y+1/2, z+1/2'
7 'x, -y, -z'
8 'x, y, z'
9 '-x+1/2, -y, z+1/2'
10 '-x+1/2, y, -z+1/2'
11 '-x+1/2, y+1/2, z'
12 '-x+1/2, -y+1/2, -z'
13 'x+1/2, y, -z+1/2'
14 'x+1/2, -y, z+1/2'
15 'x+1/2, -y+1/2, -z'
16 'x+1/2, y+1/2, z'
loop_
_atom_type_symbol
_atom_type_oxidation_number
S4+ 4
O2- -2
C4+ 4
F1- -1
Li1+ 1
loop_
_atom_site_label
_atom_site_type_symbol
_atom_site_symmetry_multiplicity
_atom_site_Wyckoff_symbol
_atom_site_fract_x
_atom_site_fract_y
_atom_site_fract_z
_atom_site_B_iso_or_equiv
_atom_site_occupancy
_atom_site_attached_hydrogens
S1 S4+ 16 g 0.5298(15) 0.2612(5) 0.4207(1) 0.086(2) 0.5 0
O1 O2- 16 g 0.7519(14) 0.2992(7) 0.4190(2) 0.086(2) 0.5 0
O2 O2- 16 g 0.4144(14) 0.3886(8) 0.4485(2) 0.086(2) 0.5 0
O3 O2- 16 g 0.5010(20) 0.1266(9) 0.4613(2) 0.086(2) 0.5 0
C1 C4+ 16 g 0.4210(15) 0.2249(7) 0.3397(1) 0.101(3) 0.5 0
F1 F1- 16 g 0.2367(16) 0.1550(9) 0.3466(2) 0.101(3) 0.5 0
F2 F1- 16 g 0.5497(17) 0.1372(10) 0.3046(2) 0.101(3) 0.5 0
F3 F1- 16 g 0.3919(17) 0.3564(8) 0.3084(2) 0.101(3) 0.5 0
#End of TTdata_151978-ICSD