
#(C) 2018 by FIZ Karlsruhe - Leibniz Institute for Information Infrastructure.  All rights reserved.
data_151919-ICSD
_database_code_ICSD 151919
_audit_creation_date 2006-10-01
_audit_update_record 2011-02-01
_chemical_name_systematic 'Dilithium titanium iron(III) tris(phosphate(V)) - A'
_chemical_formula_structural 'Li2 Ti Fe (P O4)3'
_chemical_formula_sum 'Fe1 Li2 O12 P3 Ti1'
_chemical_name_structure_type Li2TiFe(PO4)3
_exptl_crystal_density_diffrn 3.03
_cell_measurement_temperature 300.
_publ_section_title

;
Crystal structure and lithium insertion properties of orthorhombic Li2 Ti Fe
(P O4)3 and Li2 Ti Cr (P O4)3
;
loop_
_citation_id
_citation_journal_full
_citation_year
_citation_journal_volume
_citation_page_first
_citation_page_last
_citation_journal_id_ASTM
primary 'Solid State Sciences' 2004 6 1113 1120 SSSCFJ
loop_
_publ_author_name
'Patoux, S.'
'Rousse, G.'
'Leriche, J.B.'
'Masquelier, C.'
_cell_length_a 8.543(1)
_cell_length_b 8.623(1)
_cell_length_c 11.978(1)
_cell_angle_alpha 90.
_cell_angle_beta 90.
_cell_angle_gamma 90.
_cell_volume 882.37
_cell_formula_units_Z 4
_symmetry_space_group_name_H-M 'P b n a'
_symmetry_Int_Tables_number 60
_refine_ls_R_factor_all 0.0239
loop_
_symmetry_equiv_pos_site_id
_symmetry_equiv_pos_as_xyz
1 '-x, y+1/2, z'
2 'x+1/2, y, -z+1/2'
3 'x+1/2, -y+1/2, z+1/2'
4 '-x, -y, -z'
5 'x, -y+1/2, -z'
6 '-x+1/2, -y, z+1/2'
7 '-x+1/2, y+1/2, -z+1/2'
8 'x, y, z'
loop_
_atom_type_symbol
_atom_type_oxidation_number
Li1+ 1
Fe3+ 3
Ti4+ 4
P5+ 5
O2- -2
loop_
_atom_site_label
_atom_site_type_symbol
_atom_site_symmetry_multiplicity
_atom_site_Wyckoff_symbol
_atom_site_fract_x
_atom_site_fract_y
_atom_site_fract_z
_atom_site_B_iso_or_equiv
_atom_site_occupancy
_atom_site_attached_hydrogens
Li1 Li1+ 8 d 0.286(2) 0.284(2) 0.317(1) 1.5(3) 1. 0
Fe1 Fe3+ 8 d 0.252(1) 0.467(1) 0.1112(9) 1.0(1) 0.5 0
Ti1 Ti4+ 8 d 0.252(1) 0.467(1) 0.1112(9) 1.0(1) 0.5 0
P1 P5+ 8 d 0.1042(8) 0.1076(8) 0.1479(6) 0.8(1) 1. 0
P2 P5+ 4 c 0.038(1) 0.25 0.5 0.9(2) 1. 0
O1 O2- 8 d 0.4252(8) 0.1049(7) 0.3438(5) 1.0(1) 1. 0
O2 O2- 8 d 0.3258(8) 0.4878(7) 0.2727(5) 0.9(1) 1. 0
O3 O2- 8 d 0.1572(9) 0.0634(7) 0.0294(5) 1.2(1) 1. 0
O4 O2- 8 d 0.4397(8) 0.3601(8) 0.0704(5) 1.4(1) 1. 0
O5 O2- 8 d 0.1446(8) 0.1618(8) 0.4191(6) 1.2(1) 1. 0
O6 O2- 8 d 0.1619(8) 0.2723(7) 0.1773(5) 1.1(1) 1. 0
#End of TTdata_151919-ICSD