
#(C) 2018 by FIZ Karlsruhe - Leibniz Institute for Information Infrastructure.  All rights reserved.
data_151902-ICSD
_database_code_ICSD 151902
_audit_creation_date 2006-10-01
_chemical_name_systematic
'Lanthanum lithium magnesium tungsten oxide (0.62/0.14/0.5/0.5/3)'
_chemical_formula_structural '(La0.62 Li0.14) ((Mg0.5 W0.5) O3)'
_chemical_formula_sum 'La0.62 Li0.14 Mg0.5 O3 W0.5'
_chemical_name_structure_type La1+xLiyMgWO6
_exptl_crystal_density_diffrn 6.57
_publ_section_title

;
The relationship between Li ion conductivity and crystal structure for ordered
perovskite compounds, (La0.667-0.333p Lip) (Mg0.5 W0.5) O3 (p =0.05, 0.11 and
0.14)
;
loop_
_citation_id
_citation_journal_full
_citation_year
_citation_journal_volume
_citation_page_first
_citation_page_last
_citation_journal_id_ASTM
primary 'Solid State Ionics' 2004 171 191 198 SSIOD3
loop_
_publ_author_name
'Katsumata, T.'
'Takahata, M.'
'Mochizuki, N.'
'Inaguma, Y.'
_cell_length_a 5.533(5)
_cell_length_b 5.533(5)
_cell_length_c 7.903(6)
_cell_angle_alpha 90.
_cell_angle_beta 90.
_cell_angle_gamma 90.
_cell_volume 241.94
_cell_formula_units_Z 4
_symmetry_space_group_name_H-M 'P 4/n m m S'
_symmetry_Int_Tables_number 129
_refine_ls_R_factor_all 0.0277
loop_
_symmetry_equiv_pos_site_id
_symmetry_equiv_pos_as_xyz
1 '-y+1/2, -x+1/2, z'
2 'y+1/2, x+1/2, z'
3 '-y, -x, -z'
4 'y, x, -z'
5 'y+1/2, -x+1/2, z'
6 '-y+1/2, x+1/2, z'
7 'y, -x, -z'
8 '-y, x, -z'
9 'x+1/2, -y+1/2, -z'
10 '-x+1/2, y+1/2, -z'
11 'x, -y, z'
12 '-x, y, z'
13 '-x+1/2, -y+1/2, -z'
14 'x+1/2, y+1/2, -z'
15 '-x, -y, z'
16 'x, y, z'
loop_
_atom_type_symbol
_atom_type_oxidation_number
La3+ 3
Li1+ 1
W6+ 6
Mg2+ 2
O2- -2
loop_
_atom_site_label
_atom_site_type_symbol
_atom_site_symmetry_multiplicity
_atom_site_Wyckoff_symbol
_atom_site_fract_x
_atom_site_fract_y
_atom_site_fract_z
_atom_site_B_iso_or_equiv
_atom_site_occupancy
_atom_site_attached_hydrogens
La1 La3+ 2 a 0 0 0 0.1(1) 0.932(6) 0
La2 La3+ 2 b 0 0 0.5 1.2(3) 0.308(6) 0
Li1 Li1+ 2 b 0 0 0.5 0.5 0.28 0
W1 W6+ 2 c 0 0.5 0.2649(5) 0.23(8) 1. 0
Mg1 Mg2+ 2 c 0 0.5 0.734(3) 0.7(4) 1. 0
O1 O2- 8 j 0.237(2) 0.737(2) 0.254(2) 1. 1. 0
O2 O2- 2 c 0 0.5 0.000(5) 1. 1. 0
O3 O2- 2 c 0 0.5 0.487(5) 1. 1. 0
#End of TTdata_151902-ICSD