
#(C) 2018 by FIZ Karlsruhe - Leibniz Institute for Information Infrastructure.  All rights reserved.
data_152070-ICSD
_database_code_ICSD 152070
_audit_creation_date 2006-10-01
_chemical_name_systematic 'Lithium chromium catena-disilicate - LT'
_chemical_formula_structural 'Li Cr (Si2 O6)'
_chemical_formula_sum 'Cr1 Li1 O6 Si2'
_chemical_name_structure_type Pyroxene-MgSiO3-LT
_chemical_name_mineral Clinopyroxene
_exptl_crystal_density_diffrn 3.46
_cell_measurement_temperature 325.
_publ_section_title

;
Structural changes upon the temperature dependent C2/c - P21/c phase
transition in Li Me(3+) Si2 O6 clinopyroxenes, Me = Cr, Ga, Fe, V, Sc and In
;
loop_
_citation_id
_citation_journal_full
_citation_year
_citation_journal_volume
_citation_page_first
_citation_page_last
_citation_journal_id_ASTM
primary 'Zeitschrift fuer Kristallographie (1979-2010)' 2004 219 585 605 ZEKRDZ
loop_
_publ_author_name
'Redhammer, G.J.'
'Roth, G.'
_cell_length_a 9.5488(4)
_cell_length_b 8.586(3)
_cell_length_c 5.258(2)
_cell_angle_alpha 90.
_cell_angle_beta 110.02(4)
_cell_angle_gamma 90.
_cell_volume 405.03
_cell_formula_units_Z 4
_symmetry_space_group_name_H-M 'P 1 21/c 1'
_symmetry_Int_Tables_number 14
_refine_ls_R_factor_all 0.0373
loop_
_symmetry_equiv_pos_site_id
_symmetry_equiv_pos_as_xyz
1 'x, -y+1/2, z+1/2'
2 '-x, -y, -z'
3 '-x, y+1/2, -z+1/2'
4 'x, y, z'
loop_
_atom_type_symbol
_atom_type_oxidation_number
Li1+ 1
Cr3+ 3
Si4+ 4
O2- -2
loop_
_atom_site_label
_atom_site_type_symbol
_atom_site_symmetry_multiplicity
_atom_site_Wyckoff_symbol
_atom_site_fract_x
_atom_site_fract_y
_atom_site_fract_z
_atom_site_B_iso_or_equiv
_atom_site_occupancy
_atom_site_attached_hydrogens
Li1 Li1+ 4 e 0.2501(4) 0.0139(6) 0.2419(7) 0.019(1) 1. 0
Cr1 Cr3+ 4 e 0.2501(1) 0.6582(1) 0.2398(1) 0.0056(2) 1. 0
Si1 Si4+ 4 e 0.0487(1) 0.3411(1) 0.2692(2) 0.0060(2) 1. 0
Si2 Si4+ 4 e 0.5492(1) 0.8412(1) 0.2538(2) 0.0060(2) 1. 0
O1 O2- 4 e 0.6071(2) 0.7332(2) 0.5241(4) 0.0119(4) 1. 0
O2 O2- 4 e 0.1084(2) 0.2634(2) 0.5706(4) 0.0115(4) 1. 0
O3 O2- 4 e 0.6205(2) 0.0089(2) 0.3417(4) 0.0110(4) 1. 0
O4 O2- 4 e 0.1169(2) 0.5117(2) 0.3125(4) 0.0116(4) 1. 0
O5 O2- 4 e 0.3662(2) 0.8349(1) 0.1372(4) 0.0074(4) 1. 0
O6 O2- 4 e 0.8659(2) 0.3337(1) 0.1562(3) 0.0070(4) 1. 0
#End of TTdata_152070-ICSD