
#(C) 2018 by FIZ Karlsruhe - Leibniz Institute for Information Infrastructure.  All rights reserved.
data_152065-ICSD
_database_code_ICSD 152065
_audit_creation_date 2006-10-01
_chemical_name_systematic 'Lithium gallium catena-disilicate - LT'
_chemical_formula_structural 'Li Ga (Si2 O6)'
_chemical_formula_sum 'Ga1 Li1 O6 Si2'
_chemical_name_structure_type Pyroxene-MgSiO3-LT
_chemical_name_mineral Clinopyroxene
_exptl_crystal_density_diffrn 3.77
_cell_measurement_temperature 90.
_publ_section_title

;
Structural changes upon the temperature dependent C2/c - P21/c phase
transition in Li Me(3+) Si2 O6 clinopyroxenes, Me = Cr, Ga, Fe, V, Sc and In
;
loop_
_citation_id
_citation_journal_full
_citation_year
_citation_journal_volume
_citation_page_first
_citation_page_last
_citation_journal_id_ASTM
primary 'Zeitschrift fuer Kristallographie (1979-2010)' 2004 219 585 605 ZEKRDZ
loop_
_publ_author_name
'Redhammer, G.J.'
'Roth, G.'
_cell_length_a 9.537(3)
_cell_length_b 8.593(2)
_cell_length_c 5.228(2)
_cell_angle_alpha 90.
_cell_angle_beta 109.80(3)
_cell_angle_gamma 90.
_cell_volume 403.11
_cell_formula_units_Z 4
_symmetry_space_group_name_H-M 'P 1 21/c 1'
_symmetry_Int_Tables_number 14
_refine_ls_R_factor_all 0.0257
loop_
_symmetry_equiv_pos_site_id
_symmetry_equiv_pos_as_xyz
1 'x, -y+1/2, z+1/2'
2 '-x, -y, -z'
3 '-x, y+1/2, -z+1/2'
4 'x, y, z'
loop_
_atom_type_symbol
_atom_type_oxidation_number
Li1+ 1
Ga3+ 3
Si4+ 4
O2- -2
loop_
_atom_site_label
_atom_site_type_symbol
_atom_site_symmetry_multiplicity
_atom_site_Wyckoff_symbol
_atom_site_fract_x
_atom_site_fract_y
_atom_site_fract_z
_atom_site_B_iso_or_equiv
_atom_site_occupancy
_atom_site_attached_hydrogens
Li1 Li1+ 4 e 0.2491(13) 0.0106(8) 0.2354(16) 0.006(1) 1. 0
Ga1 Ga3+ 4 e 0.2503(1) 0.6508(1) 0.2332(1) 0.0013(1) 1. 0
Si1 Si4+ 4 e 0.0476(1) 0.3409(2) 0.2733(2) 0.0009(3) 1. 0
Si2 Si4+ 4 e 0.5495(1) 0.8398(2) 0.2469(2) 0.0015(3) 1. 0
O1 O2- 4 e 0.6060(3) 0.7193(4) 0.5039(5) 0.0026(6) 1. 0
O2 O2- 4 e 0.1101(4) 0.2672(4) 0.5809(6) 0.0035(6) 1. 0
O3 O2- 4 e 0.6222(4) 0.0053(4) 0.3551(6) 0.0035(7) 1. 0
O4 O2- 4 e 0.1149(4) 0.5123(4) 0.3100(6) 0.0035(7) 1. 0
O5 O2- 4 e 0.3655(4) 0.8327(5) 0.1292(5) 0.0024(6) 1. 0
O6 O2- 4 e 0.8641(4) 0.3331(5) 0.1596(5) 0.0026(6) 1. 0
#End of TTdata_152065-ICSD