
#(C) 2017 by FIZ Karlsruhe - Leibniz Institute for Information Infrastructure.  All rights reserved.
data_152166-ICSD
_database_code_ICSD 152166
_audit_creation_date 2006-10-01
_chemical_name_systematic
'Lithium tetraammonium heptadecafluorotrizirconate - hydrofluoric acid (1/2)'
_chemical_formula_structural '(Li (N H4)4 (Zr3 F17)) (H F)2'
_chemical_formula_sum 'H18 F19 Li1 N4 Zr3'
_exptl_crystal_density_diffrn 2.67
_cell_measurement_temperature 295.
_publ_section_title

;
Structure and ion mobility in M M'4 A3 F17 * 2(H F) (M= Li, Na; M'= N H4, Rb,
Cs; A = Zr, Hf) compounds
;
loop_
_citation_id
_citation_journal_full
_citation_year
_citation_journal_volume
_citation_page_first
_citation_page_last
_citation_journal_id_ASTM
primary 'Zhurnal Neorganicheskoi Khimii' 2004 49 293 303 ZNOKAQ
loop_
_publ_author_name
'Tkachenko, I.A.'
'Gerasimenko, A.V.'
'Kavun, V.Ya.'
'Antokhina, T.F.'
'Davidovich, R.L.'
'Sergienko, V.I.'
_cell_length_a 11.3956(5)
_cell_length_b 13.1489(6)
_cell_length_c 12.6716(8)
_cell_angle_alpha 90.
_cell_angle_beta 110.178(3)
_cell_angle_gamma 90.
_cell_volume 1782.18
_cell_formula_units_Z 4
_symmetry_space_group_name_H-M 'P 1 21/n 1'
_symmetry_Int_Tables_number 14
_refine_ls_R_factor_all 0.0208
loop_
_symmetry_equiv_pos_site_id
_symmetry_equiv_pos_as_xyz
1 '-x+1/2, y+1/2, -z+1/2'
2 '-x, -y, -z'
3 'x+1/2, -y+1/2, z+1/2'
4 'x, y, z'
loop_
_atom_type_symbol
_atom_type_oxidation_number
Zr4+ 4
F1- -1
N3- -3
Li1+ 1
H1+ 1
loop_
_atom_site_label
_atom_site_type_symbol
_atom_site_symmetry_multiplicity
_atom_site_Wyckoff_symbol
_atom_site_fract_x
_atom_site_fract_y
_atom_site_fract_z
_atom_site_B_iso_or_equiv
_atom_site_occupancy
_atom_site_attached_hydrogens
Zr1 Zr4+ 4 e 0.729127(9) 0.874517(8) 0.749838(8) 0.01693(2) 1. 0
Zr2 Zr4+ 4 e 0.415968(8) 0.873671(7) 0.760504(9) 0.01507(2) 1. 0
Zr3 Zr4+ 4 e 0.088648(8) 0.873598(7) 0.735673(9) 0.01639(2) 1. 0
F1 F1- 4 e 0.89619(6) 0.87364(7) 0.71187(7) 0.0454(2) 1. 0
F2 F1- 4 e 0.82896(7) 0.97808(6) 0.86162(7) 0.0405(2) 1. 0
F3 F1- 4 e 0.68455(7) 0.97760(5) 0.62300(6) 0.0335(2) 1. 0
F4 F1- 4 e 0.82570(7) 0.77167(6) 0.86378(7) 0.0383(2) 1. 0
F5 F1- 4 e 0.68627(7) 0.77326(5) 0.62161(6) 0.0339(2) 1. 0
F6 F1- 4 e 0.58701(6) 0.78408(5) 0.77489(6) 0.0305(2) 1. 0
F7 F1- 4 e 0.59025(6) 0.96316(5) 0.78217(6) 0.0282(2) 1. 0
F8 F1- 4 e 0.21988(6) 0.87629(5) 0.64956(6) 0.0267(2) 1. 0
F9 F1- 4 e 0.27655(6) 0.87182(5) 0.84452(6) 0.0262(2) 1. 0
F10 F1- 4 e 0.51149(7) 0.86811(7) 0.92990(7) 0.0433(2) 1. 0
F11 F1- 4 e 0.42595(7) 0.87892(6) 0.60660(6) 0.0360(2) 1. 0
F12 F1- 4 e 0.37108(6) 0.02096(5) 0.76128(7) 0.0353(2) 1. 0
F13 F1- 4 e 0.36776(6) 0.72710(5) 0.75127(7) 0.0379(2) 1. 0
F14 F1- 4 e 0.08256(7) 0.86660(8) 0.89013(7) 0.0550(3) 1. 0
F15 F1- 4 e -0.01056(7) 0.87896(7) 0.56494(7) 0.0509(3) 1. 0
F16 F1- 4 e 0.09043(7) 0.02494(5) 0.73525(8) 0.0409(2) 1. 0
F17 F1- 4 e 0.08849(7) 0.72244(5) 0.72444(8) 0.0411(2) 1. 0
F18 F1- 4 e 0.21571(9) 0.61097(9) 0.56404(9) 0.0721(4) 1. 0
F19 F1- 4 e 0.28846(8) 0.63021(8) 0.92440(9) 0.0587(3) 1. 0
N1 N3- 4 e 0.5201(1) 0.3719(1) 0.4236(1) 0.0332(3) 1. 0
N2 N3- 4 e 0.8474(1) 0.6352(1) 0.5734(1) 0.0325(3) 1. 0
N3 N3- 4 e 0.5253(1) 0.8786(1) 0.4123(1) 0.0333(3) 1. 0
N4 N3- 4 e 0.6485(1) 0.6132(1) 0.9203(1) 0.0329(3) 1. 0
Li1 Li1+ 4 e 0.2513(2) 0.6229(2) 0.7476(2) 0.0402(8) 1. 0
H1 H1+ 4 e 0.141(2) 0.621(12) 0.520(2) 0.08 1. 0
H2 H1+ 4 e 0.358(2) 0.623(1) 0.971(2) 0.07 1. 0
H3 H1+ 4 e 0.552(2) 0.369(1) 0.486(1) 0.045 1. 0
H4 H1+ 4 e 0.471(1) 0.319(1) 0.393(1) 0.045 1. 0
H5 H1+ 4 e 0.465(1) 0.432(1) 0.398(1) 0.045 1. 0
H6 H1+ 4 e 0.568(2) 0.374(1) 0.400(1) 0.045 1. 0
H7 H1+ 4 e 0.800(1) 0.682(1) 0.594(1) 0.045 1. 0
H8 H1+ 4 e 0.829(1) 0.573(1) 0.600(1) 0.045 1. 0
H9 H1+ 4 e 0.913(1) 0.649(1) 0.604(1) 0.045 1. 0
H10 H1+ 4 e 0.824(2) 0.628(1) 0.501(1) 0.045 1. 0
H11 H1+ 4 e 0.478(1) 0.820(1) 0.396(1) 0.045 1. 0
H12 H1+ 4 e 0.553(2) 0.882(1) 0.377(1) 0.045 1. 0
H13 H1+ 4 e 0.572(2) 0.878(1) 0.473(1) 0.045 1. 0
H14 H1+ 4 e 0.466(1) 0.930(1) 0.392(1) 0.045 1. 0
H15 H1+ 4 e 0.581(1) 0.594(1) 0.895(1) 0.045 1. 0
H16 H1+ 4 e 0.671(1) 0.668(1) 0.891(1) 0.045 1. 0
H17 H1+ 4 e 0.673(2) 0.617(1) 0.997(2) 0.045 1. 0
H18 H1+ 4 e 0.699(1) 0.562(1) 0.904(1) 0.045 1. 0
#End of TTdata_152166-ICSD