
#(C) 2018 by FIZ Karlsruhe - Leibniz Institute for Information Infrastructure.  All rights reserved.
data_152485-ICSD
_database_code_ICSD 152485
_audit_creation_date 2006-10-01
_chemical_name_systematic 'Lithium nickel manganese oxide (1/0.5/0.5/2)'
_chemical_formula_structural 'Li (Ni0.5 Mn0.5) O2'
_chemical_formula_sum 'Li1 Mn0.5 Ni0.5 O2'
_chemical_name_structure_type Delafossite-NaCrS2
_exptl_crystal_density_diffrn 4.61
_publ_section_title

;
Short- and long-range order in the positive electrode material, Li (Ni Mn)0.5
O2: a joint X-ray and neutron diffraction, pair distribution function analysis
and NMR study
;
loop_
_citation_id
_citation_journal_full
_citation_year
_citation_journal_volume
_citation_page_first
_citation_page_last
_citation_journal_id_ASTM
primary 'Journal of the American Chemical Society' 2005 127 7529 7537 JACSAT
loop_
_publ_author_name
'Breger, J.'
'Dupre, N.'
'Chupas, P.J.'
'Lee, P.L.'
'Proffen, T.'
'Parise, J.B.'
'Grey, C.P.'
_cell_length_a 2.8914(2)
_cell_length_b 2.8914(2)
_cell_length_c 14.3006(9)
_cell_angle_alpha 90.
_cell_angle_beta 90.
_cell_angle_gamma 120.
_cell_volume 103.54
_cell_formula_units_Z 3
_symmetry_space_group_name_H-M 'R -3 m H'
_symmetry_Int_Tables_number 166
_refine_ls_R_factor_all 0.0347
loop_
_symmetry_equiv_pos_site_id
_symmetry_equiv_pos_as_xyz
1 'x-y, -y, -z'
2 '-x, -x+y, -z'
3 'y, x, -z'
4 'x-y, x, -z'
5 'y, -x+y, -z'
6 '-x, -y, -z'
7 '-x+y, y, z'
8 'x, x-y, z'
9 '-y, -x, z'
10 '-x+y, -x, z'
11 '-y, x-y, z'
12 'x, y, z'
13 'x-y+2/3, -y+1/3, -z+1/3'
14 '-x+2/3, -x+y+1/3, -z+1/3'
15 'y+2/3, x+1/3, -z+1/3'
16 'x-y+2/3, x+1/3, -z+1/3'
17 'y+2/3, -x+y+1/3, -z+1/3'
18 '-x+2/3, -y+1/3, -z+1/3'
19 '-x+y+2/3, y+1/3, z+1/3'
20 'x+2/3, x-y+1/3, z+1/3'
21 '-y+2/3, -x+1/3, z+1/3'
22 '-x+y+2/3, -x+1/3, z+1/3'
23 '-y+2/3, x-y+1/3, z+1/3'
24 'x+2/3, y+1/3, z+1/3'
25 'x-y+1/3, -y+2/3, -z+2/3'
26 '-x+1/3, -x+y+2/3, -z+2/3'
27 'y+1/3, x+2/3, -z+2/3'
28 'x-y+1/3, x+2/3, -z+2/3'
29 'y+1/3, -x+y+2/3, -z+2/3'
30 '-x+1/3, -y+2/3, -z+2/3'
31 '-x+y+1/3, y+2/3, z+2/3'
32 'x+1/3, x-y+2/3, z+2/3'
33 '-y+1/3, -x+2/3, z+2/3'
34 '-x+y+1/3, -x+2/3, z+2/3'
35 '-y+1/3, x-y+2/3, z+2/3'
36 'x+1/3, y+2/3, z+2/3'
loop_
_atom_type_symbol
_atom_type_oxidation_number
Li1+ 1
Ni2+ 2
Li1+ 1
Mn4+ 4
O2- -2
loop_
_atom_site_label
_atom_site_type_symbol
_atom_site_symmetry_multiplicity
_atom_site_Wyckoff_symbol
_atom_site_fract_x
_atom_site_fract_y
_atom_site_fract_z
_atom_site_B_iso_or_equiv
_atom_site_occupancy
_atom_site_attached_hydrogens
Li1 Li1+ 3 a 0 0 0 0.0258(6) 0.950(4) 0
Ni1 Ni2+ 3 a 0 0 0 0.0258(6) 0.050(4) 0
Ni2 Ni2+ 3 b 0 0 0.5 0.0053(4) 0.450(4) 0
Li2 Li1+ 3 b 0 0 0.5 0.0053(4) 0.050(4) 0
Mn1 Mn4+ 3 b 0 0 0.5 0.0053(4) 0.5 0
O1 O2- 6 c 0 0 0.24235(2) 0.0117(1) 1. 0
#End of TTdata_152485-ICSD