
#(C) 2018 by FIZ Karlsruhe - Leibniz Institute for Information Infrastructure.  All rights reserved.
data_152480-ICSD
_database_code_ICSD 152480
_audit_creation_date 2006-10-01
_audit_update_record 2015-02-01
_chemical_name_systematic 'Lanthanum lithium titanate(IV) (0.62/0.16/1)'
_chemical_formula_structural 'La0.62 Li0.16 (Ti O3)'
_chemical_formula_sum 'La0.62 Li0.16 O3 Ti1'
_chemical_name_structure_type La1-xLiyTiO3
_exptl_crystal_density_diffrn 5.21
_publ_section_title

;
Crystal structure and diffusion path in the fast lithium-ion conductor La0.62
Li0.16 Ti O3
;
loop_
_citation_id
_citation_journal_full
_citation_year
_citation_journal_volume
_citation_page_first
_citation_page_last
_citation_journal_id_ASTM
primary 'Journal of the American Chemical Society' 2005 127 3491 3495 JACSAT
loop_
_publ_author_name
'Yashima, M.'
'Itoh, M.'
'Inaguma, Y.'
'Morii, Y.'
_cell_length_a 7.73355(8)
_cell_length_b 7.75422(8)
_cell_length_c 7.78620(7)
_cell_angle_alpha 90.
_cell_angle_beta 90.
_cell_angle_gamma 90.
_cell_volume 466.92
_cell_formula_units_Z 8
_symmetry_space_group_name_H-M 'C m m m'
_symmetry_Int_Tables_number 65
_refine_ls_R_factor_all 0.028
loop_
_symmetry_equiv_pos_site_id
_symmetry_equiv_pos_as_xyz
1 'x, -y, z'
2 '-x, y, z'
3 'x, y, -z'
4 '-x, -y, -z'
5 '-x, y, -z'
6 'x, -y, -z'
7 '-x, -y, z'
8 'x, y, z'
9 'x+1/2, -y+1/2, z'
10 '-x+1/2, y+1/2, z'
11 'x+1/2, y+1/2, -z'
12 '-x+1/2, -y+1/2, -z'
13 '-x+1/2, y+1/2, -z'
14 'x+1/2, -y+1/2, -z'
15 '-x+1/2, -y+1/2, z'
16 'x+1/2, y+1/2, z'
loop_
_atom_type_symbol
_atom_type_oxidation_number
La3+ 3
Ti4+ 4
Li1+ 1
O2- -2
loop_
_atom_site_label
_atom_site_type_symbol
_atom_site_symmetry_multiplicity
_atom_site_Wyckoff_symbol
_atom_site_fract_x
_atom_site_fract_y
_atom_site_fract_z
_atom_site_B_iso_or_equiv
_atom_site_occupancy
_atom_site_attached_hydrogens
La1 La3+ 4 i 0 0.2529(7) 0 0.0103(5) 0.950(3) 0
La2 La3+ 4 j 0 0.253(3) 0.5 0.016(2) 0.290(3) 0
Ti1 Ti4+ 8 o 0.2478(11) 0 0.2597(4) 0.0116(6) 1. 0
Li1 Li1+ 2 c 0.5 0 0.5 0.18(3) 0.64 0
O1 O2- 4 g 0.2737(8) 0 0 0.019 1. 0
O2 O2- 4 h 0.2310(10) 0 0.5 0.023 1. 0
O3 O2- 8 m 0.25 0.25 0.2356(5) 0.018 1. 0
O4 O2- 4 k 0 0 0.2151(5) 0.012 1. 0
O5 O2- 4 l 0 0.5 0.2575(6) 0.016 1. 0
loop_
_atom_site_aniso_label
_atom_site_aniso_type_symbol
_atom_site_aniso_U_11
_atom_site_aniso_U_22
_atom_site_aniso_U_33
_atom_site_aniso_U_12
_atom_site_aniso_U_13
_atom_site_aniso_U_23
O1 O2- 0.022(3) 0.024(2) 0.0113(15) 0. 0. 0.
O2 O2- 0.026(3) 0.037(3) 0.064(15) 0. 0. 0.
O3 O2- 0.0128(16) 0.0093(12) 0.031(2) -0.002(2) 0. 0.
O4 O2- 0.011(3) 0.011(3) 0.014(2) 0. 0. 0.
O5 O2- 0.003(3) 0.019(4) 0.024(2) 0. 0. 0.
#End of TTdata_152480-ICSD