
#(C) 2018 by FIZ Karlsruhe - Leibniz Institute for Information Infrastructure.  All rights reserved.
data_153128-ICSD
_database_code_ICSD 153128
_audit_creation_date 2006-10-01
_chemical_name_systematic 'Lithium vanadium oxide (4.77/3/8)'
_chemical_formula_structural 'Li4.77 (V3 O8)'
_chemical_formula_sum 'Li4.77 O8 V3'
_exptl_crystal_density_diffrn 3.77
_publ_section_title

;
A combined X-ray and neutron Rietveld study of the chemically lithiated
electrode materials Li2.7 V3 O8 and Li4.8 V3 O8
;
loop_
_citation_id
_citation_journal_full
_citation_year
_citation_journal_volume
_citation_page_first
_citation_page_last
_citation_journal_id_ASTM
primary 'Journal of Solid State Chemistry' 2005 178 22 27 JSSCBI
loop_
_publ_author_name
'Jouanneau, S.'
'Verbaere, A.'
'Guyomard, D.'
_cell_length_a 5.9177(3)
_cell_length_b 4.0283(2)
_cell_length_c 12.1154(6)
_cell_angle_alpha 90.
_cell_angle_beta 106.543(4)
_cell_angle_gamma 90.
_cell_volume 276.86
_cell_formula_units_Z 2
_symmetry_space_group_name_H-M 'P 1 21/m 1'
_symmetry_Int_Tables_number 11
_refine_ls_R_factor_all 0.014
loop_
_symmetry_equiv_pos_site_id
_symmetry_equiv_pos_as_xyz
1 'x, -y+1/2, z'
2 '-x, -y, -z'
3 '-x, y+1/2, -z'
4 'x, y, z'
loop_
_atom_type_symbol
_atom_type_oxidation_number
V3+ 3.74
O2- -2
Li1+ 1
loop_
_atom_site_label
_atom_site_type_symbol
_atom_site_symmetry_multiplicity
_atom_site_Wyckoff_symbol
_atom_site_fract_x
_atom_site_fract_y
_atom_site_fract_z
_atom_site_B_iso_or_equiv
_atom_site_occupancy
_atom_site_attached_hydrogens
V1 V3+ 2 e 0.865(5) 0.25 0.553(3) 0.0073(24) 1. 0
V2 V3+ 2 e 0.177(4) 0.25 0.0699(26) 0.0073(24) 1. 0
V3 V3+ 2 e 0.019(6) 0.25 0.817(3) 0.0073(24) 1. 0
O1 O2- 2 e 0.120(5) 0.25 0.4412(27) 0.0065(10) 1. 0
O2 O2- 2 e 0.836(5) 0.25 0.933(3) 0.0065(10) 1. 0
O3 O2- 2 e 0.752(5) 0.25 0.685(3) 0.0065(10) 1. 0
O4 O2- 2 e 0.468(5) 0.25 0.185(3) 0.0065(10) 1. 0
O5 O2- 2 e 0.606(5) 0.25 0.438(4) 0.0065(10) 1. 0
O6 O2- 2 e 0.316(5) 0.25 0.945(3) 0.0065(10) 1. 0
O7 O2- 2 e 0.179(5) 0.25 0.688(3) 0.0065(10) 1. 0
O8 O2- 2 e 0.014(5) 0.25 0.179(3) 0.0065(10) 1. 0
Li1 Li1+ 2 e 0.262(12) 0.25 0.302(8) 0.021(3) 1. 0
Li2 Li1+ 2 e 0.659(18) 0.25 0.063(11) 0.021(3) 1. 0
Li3 Li1+ 2 e 0.773(12) 0.25 0.321(8) 0.021(3) 1. 0
Li4 Li1+ 2 e 0.429(19) 0.25 0.557(10) 0.021(3) 0.77(7) 0
Li5 Li1+ 2 e 0.542(17) 0.25 0.813(11) 0.021(3) 1. 0
#End of TTdata_153128-ICSD