
#(C) 2018 by FIZ Karlsruhe - Leibniz Institute for Information Infrastructure.  All rights reserved.
data_153127-ICSD
_database_code_ICSD 153127
_audit_creation_date 2006-10-01
_chemical_name_systematic 'Lithium vanadium oxide (2.2/3/8)'
_chemical_formula_structural 'Li2.2 (V3 O8)'
_chemical_formula_sum 'Li2.2 O8 V3'
_exptl_crystal_density_diffrn 3.53
_publ_section_title

;
A combined X-ray and neutron Rietveld study of the chemically lithiated
electrode materials Li2.7 V3 O8 and Li4.8 V3 O8
;
loop_
_citation_id
_citation_journal_full
_citation_year
_citation_journal_volume
_citation_page_first
_citation_page_last
_citation_journal_id_ASTM
primary 'Journal of Solid State Chemistry' 2005 178 22 27 JSSCBI
loop_
_publ_author_name
'Jouanneau, S.'
'Verbaere, A.'
'Guyomard, D.'
_cell_length_a 6.438(2)
_cell_length_b 3.722(1)
_cell_length_c 12.149(4)
_cell_angle_alpha 90.
_cell_angle_beta 106.72(2)
_cell_angle_gamma 90.
_cell_volume 278.81
_cell_formula_units_Z 2
_symmetry_space_group_name_H-M 'P 1 21/m 1'
_symmetry_Int_Tables_number 11
_refine_ls_R_factor_all 0.0161
loop_
_symmetry_equiv_pos_site_id
_symmetry_equiv_pos_as_xyz
1 'x, -y+1/2, z'
2 '-x, -y, -z'
3 '-x, y+1/2, -z'
4 'x, y, z'
loop_
_atom_type_symbol
_atom_type_oxidation_number
V4+ 4.6
O2- -2
Li1+ 1
loop_
_atom_site_label
_atom_site_type_symbol
_atom_site_symmetry_multiplicity
_atom_site_Wyckoff_symbol
_atom_site_fract_x
_atom_site_fract_y
_atom_site_fract_z
_atom_site_B_iso_or_equiv
_atom_site_occupancy
_atom_site_attached_hydrogens
V1 V4+ 2 e 0.838(7) 0.25 0.527(4) 0.013(4) 1. 0
V2 V4+ 2 e 0.189(5) 0.25 0.066(3) 0.013(4) 1. 0
V3 V4+ 2 e 0.060(8) 0.25 0.820(4) 0.013(4) 1. 0
O1 O2- 2 e 0.055(4) 0.25 0.4555(22) 0.0270(11) 1. 0
O2 O2- 2 e 0.904(4) 0.25 0.9247(22) 0.0270(11) 1. 0
O3 O2- 2 e 0.792(4) 0.25 0.6719(22) 0.0270(11) 1. 0
O4 O2- 2 e 0.426(3) 0.25 0.1969(23) 0.0270(11) 1. 0
O5 O2- 2 e 0.581(4) 0.25 0.4233(26) 0.0270(11) 1. 0
O6 O2- 2 e 0.307(4) 0.25 0.9685(24) 0.0270(11) 1. 0
O7 O2- 2 e 0.289(3) 0.25 0.7399(22) 0.0270(11) 1. 0
O8 O2- 2 e 0.985(4) 0.25 0.1869(28) 0.0270(11) 1. 0
Li1 Li1+ 2 e 0.508 0.25 0.696 0.0270(11) 0.69(8) 0
Li2 Li1+ 2 e 0.722(8) 0.25 0.281(5) 0.035 1.00(10) 0
Li3 Li1+ 2 e 0.24(3) 0.25 0.315(18) 0.035 0.32(11) 0
Li4 Li1+ 2 e 0.58 0.25 0.05 0.035 0.20(10) 0
#End of TTdata_153127-ICSD