
#(C) 2018 by FIZ Karlsruhe - Leibniz Institute for Information Infrastructure.  All rights reserved.
data_153321-ICSD
_database_code_ICSD 153321
_audit_creation_date 2006-10-01
_chemical_name_systematic 'Potassium lithium tin(IV) oxide (2/0.66/7.34/16)'
_chemical_formula_structural 'K2 (Li0.66 Sn7.34 O16)'
_chemical_formula_sum 'K2 Li0.66 O16 Sn7.34'
_chemical_name_structure_type KRu4O8
_exptl_crystal_density_diffrn 5.71
_publ_section_title
'Tin oxides with hollandite structure as anodes for lithium ion batteries'
loop_
_citation_id
_citation_journal_full
_citation_year
_citation_journal_volume
_citation_page_first
_citation_page_last
_citation_journal_id_ASTM
primary 'Chemistry of Materials' 2005 17 4700 4710 CMATEX
loop_
_publ_author_name
'Sharma, N.'
'Plevert, J.'
'Subba Rao, G.V.'
'Chowdari, B.W.R.'
'White, T.J.'
_cell_length_a 10.5401(1)
_cell_length_b 10.5401(1)
_cell_length_c 3.1648(1)
_cell_angle_alpha 90.
_cell_angle_beta 90.
_cell_angle_gamma 90.
_cell_volume 351.59
_cell_formula_units_Z 1
_symmetry_space_group_name_H-M 'I 4/m'
_symmetry_Int_Tables_number 87
_refine_ls_R_factor_all 0.02
loop_
_symmetry_equiv_pos_site_id
_symmetry_equiv_pos_as_xyz
1 '-y, x, -z'
2 'y, -x, -z'
3 'x, y, -z'
4 '-x, -y, -z'
5 'y, -x, z'
6 '-y, x, z'
7 '-x, -y, z'
8 'x, y, z'
9 '-y+1/2, x+1/2, -z+1/2'
10 'y+1/2, -x+1/2, -z+1/2'
11 'x+1/2, y+1/2, -z+1/2'
12 '-x+1/2, -y+1/2, -z+1/2'
13 'y+1/2, -x+1/2, z+1/2'
14 '-y+1/2, x+1/2, z+1/2'
15 '-x+1/2, -y+1/2, z+1/2'
16 'x+1/2, y+1/2, z+1/2'
loop_
_atom_type_symbol
_atom_type_oxidation_number
K1+ 1
Sn4+ 4
Li1+ 1
O2- -2
loop_
_atom_site_label
_atom_site_type_symbol
_atom_site_symmetry_multiplicity
_atom_site_Wyckoff_symbol
_atom_site_fract_x
_atom_site_fract_y
_atom_site_fract_z
_atom_site_B_iso_or_equiv
_atom_site_occupancy
_atom_site_attached_hydrogens
K1 K1+ 2 b 0 0 0.5 0.099(4) 1. 0
Sn1 Sn4+ 8 h 0.3494(1) 0.1658(1) 0 0.0063(2) 0.917 0
Li1 Li1+ 8 h 0.3494(1) 0.1658(1) 0 0.0063(2) 0.083 0
O1 O2- 8 h 0.1553(7) 0.2038(7) 0 0.005(1) 1. 0
O2 O2- 8 h 0.5427(8) 0.1665(7) 0 0.005(1) 1. 0
#End of TTdata_153321-ICSD