
#(C) 2018 by FIZ Karlsruhe - Leibniz Institute for Information Infrastructure.  All rights reserved.
data_153806-ICSD
_database_code_ICSD 153806
_audit_creation_date 2007-04-01
_audit_update_record 2013-08-01
_chemical_name_systematic 'Dilithium sulfate(VI) - epsilon (HP)'
_chemical_formula_structural 'Li2 (S O4)'
_chemical_formula_sum 'Li2 O4 S1'
_chemical_name_structure_type Na2CrO4
_exptl_crystal_density_diffrn 2.86
_cell_measurement_temperature 723.
_cell_measurement_pressure 7200000.
_publ_section_title

;
High-pressure forms of lithium sulphate: structural determination and computer
simulation
;
loop_
_citation_id
_citation_journal_full
_citation_year
_citation_journal_volume
_citation_page_first
_citation_page_last
_citation_journal_id_ASTM
primary 'Physical Review, Serie 3. B - Condensed Matter (18,1978-)' 2005 72
054121-1 054121-7 PRBMDO
loop_
_publ_author_name
'Parfitt, D.C.'
'Keen, D.A.'
'Hull, S.'
'Crichton, W.A.'
'Mezouar, M.'
'Wilson, M.'
'Madden, P.A.'
_cell_length_a 5.3452(2)
_cell_length_b 7.9323(3)
_cell_length_c 6.0292(3)
_cell_angle_alpha 90.
_cell_angle_beta 90.
_cell_angle_gamma 90.
_cell_volume 255.64
_cell_formula_units_Z 4
_symmetry_space_group_name_H-M 'C m c m'
_symmetry_Int_Tables_number 63
_refine_ls_R_factor_all 0.04
loop_
_symmetry_equiv_pos_site_id
_symmetry_equiv_pos_as_xyz
1 '-x, y, -z+1/2'
2 '-x, -y, z+1/2'
3 '-x, y, z'
4 '-x, -y, -z'
5 'x, -y, z+1/2'
6 'x, y, -z+1/2'
7 'x, -y, -z'
8 'x, y, z'
9 '-x+1/2, y+1/2, -z+1/2'
10 '-x+1/2, -y+1/2, z+1/2'
11 '-x+1/2, y+1/2, z'
12 '-x+1/2, -y+1/2, -z'
13 'x+1/2, -y+1/2, z+1/2'
14 'x+1/2, y+1/2, -z+1/2'
15 'x+1/2, -y+1/2, -z'
16 'x+1/2, y+1/2, z'
loop_
_atom_type_symbol
_atom_type_oxidation_number
Li1+ 1
S6+ 6
O2- -2
loop_
_atom_site_label
_atom_site_type_symbol
_atom_site_symmetry_multiplicity
_atom_site_Wyckoff_symbol
_atom_site_fract_x
_atom_site_fract_y
_atom_site_fract_z
_atom_site_B_iso_or_equiv
_atom_site_occupancy
_atom_site_attached_hydrogens
Li1 Li1+ 4 b 0 0.5 0 16.0(7) 1. 0
Li2 Li1+ 4 c 0 0.195(2) 0.25 12.23(5) 1. 0
S1 S6+ 4 c 0 0.8570(2) 0.25 3.20(4) 1. 0
O1 O2- 8 f 0 0.2460(3) 0.5575(4) 3.15(8) 1. 0
O2 O2- 8 g 0.2744(4) 0.4610(3) 0.25 2.66(6) 1. 0
#End of TTdata_153806-ICSD