
#(C) 2018 by FIZ Karlsruhe - Leibniz Institute for Information Infrastructure.  All rights reserved.
data_154090-ICSD
_database_code_ICSD 154090
_audit_creation_date 2007-04-01
_chemical_name_systematic 'Lithium manganese nickel oxide (0.81/1.53/0.47/3.85)'
_chemical_formula_structural 'Li0.81 Mn1.53 Ni0.47 O3.85'
_chemical_formula_sum 'Li0.81 Mn1.53 Ni0.47 O3.85'
_chemical_name_structure_type Fe21+xO32
_exptl_crystal_density_diffrn 4.39
_publ_section_title

;
Crystal structural change during charge - discharge process of Li Mn1.5 Ni0.5
O4 as cathode material for 5 V class lithium secondary battery
;
loop_
_citation_id
_citation_journal_full
_citation_year
_citation_journal_volume
_citation_page_first
_citation_page_last
_citation_journal_id_ASTM
primary 'Solid State Ionics' 2005 176 299 306 SSIOD3
loop_
_publ_author_name
'Idemoto, Y.'
'Sekine, H.'
'Ui, K.'
'Koura, N.'
_cell_length_a 8.151(4)
_cell_length_b 8.151(4)
_cell_length_c 8.151(4)
_cell_angle_alpha 90.
_cell_angle_beta 90.
_cell_angle_gamma 90.
_cell_volume 541.54
_cell_formula_units_Z 8
_symmetry_space_group_name_H-M 'P 43 3 2'
_symmetry_Int_Tables_number 212
_refine_ls_R_factor_all 0.0279
loop_
_symmetry_equiv_pos_site_id
_symmetry_equiv_pos_as_xyz
1 'z+1/4, y+3/4, -x+3/4'
2 '-z+3/4, y+1/4, x+3/4'
3 'y+1/4, x+3/4, -z+3/4'
4 '-y+3/4, x+1/4, z+3/4'
5 'x+1/4, z+3/4, -y+3/4'
6 '-x+3/4, z+1/4, y+3/4'
7 'z+3/4, -y+3/4, x+1/4'
8 '-z+1/4, -y+1/4, -x+1/4'
9 'y+3/4, -x+3/4, z+1/4'
10 '-y+1/4, -x+1/4, -z+1/4'
11 'x+3/4, -z+3/4, y+1/4'
12 '-x+1/4, -z+1/4, -y+1/4'
13 '-y+1/2, -z, x+1/2'
14 '-y, z+1/2, -x+1/2'
15 'y+1/2, -z+1/2, -x'
16 'y, z, x'
17 'z+1/2, -x+1/2, -y'
18 '-z+1/2, -x, y+1/2'
19 '-z, x+1/2, -y+1/2'
20 'z, x, y'
21 '-x+1/2, -y, z+1/2'
22 '-x, y+1/2, -z+1/2'
23 'x+1/2, -y+1/2, -z'
24 'x, y, z'
loop_
_atom_type_symbol
_atom_type_oxidation_number
Ni2+ 2
Mn3+ 3.9
Li1+ 1
Mn3+ 3.9
Ni2+ 2
O2- -2
loop_
_atom_site_label
_atom_site_type_symbol
_atom_site_symmetry_multiplicity
_atom_site_Wyckoff_symbol
_atom_site_fract_x
_atom_site_fract_y
_atom_site_fract_z
_atom_site_B_iso_or_equiv
_atom_site_occupancy
_atom_site_attached_hydrogens
Ni1 Ni2+ 4 b 0.625 0.625 0.625 0.3(7) 0.76(5) 0
Mn1 Mn3+ 4 b 0.625 0.625 0.625 0.3(7) 0.24(5) 0
Li1 Li1+ 8 c 0.015(7) 0.015(7) 0.015(7) 1.0(29) 0.81(28) 0
Mn2 Mn3+ 12 d 0.125 0.379(5) -0.129(5) 0.2(9) 0.94(3) 0
Ni2 Ni2+ 12 d 0.125 0.379(5) -0.129(5) 0.2(9) 0.06(3) 0
O1 O2- 8 c 0.386(2) 0.386(2) 0.386(2) 0.4(6) 1. 0
O2 O2- 24 e 0.108(2) 0.123(2) 0.391(1) 0.5(5) 0.95(6) 0
#End of TTdata_154090-ICSD