
#(C) 2018 by FIZ Karlsruhe - Leibniz Institute for Information Infrastructure.  All rights reserved.
data_154097-ICSD
_database_code_ICSD 154097
_audit_creation_date 2007-04-01
_chemical_name_systematic 'Lithium nickel manganese oxide (0.7/0.5/0.5/2)'
_chemical_formula_structural 'Li0.7 Ni0.5 Mn0.5 O2'
_chemical_formula_sum 'Li0.7 Mn0.5 Ni0.5 O2'
_chemical_name_structure_type Na.5FeO2
_exptl_crystal_density_diffrn 4.56
_publ_section_title

;
Li de-intercalation mechanism in Li Ni0.5 Mn0.5 O2 cathode material for Li-ion
batteries
;
loop_
_citation_id
_citation_journal_full
_citation_year
_citation_journal_volume
_citation_page_first
_citation_page_last
_citation_journal_id_ASTM
primary 'Solid State Ionics' 2005 176 895 903 SSIOD3
loop_
_publ_author_name
'Arachi, Y.'
'Kobayashi, H.'
'Emura, S.'
'Nakata, Y.'
'Tanaka, M.'
'Asai, T.'
'Sakaebe, H.'
'Tatsumi, K.'
'Kageyama, H.'
_cell_length_a 4.96477(17)
_cell_length_b 2.86429(8)
_cell_length_c 5.07119(8)
_cell_angle_alpha 90.
_cell_angle_beta 109.029(2)
_cell_angle_gamma 90.
_cell_volume 68.17
_cell_formula_units_Z 2
_symmetry_space_group_name_H-M 'C 1 2/m 1'
_symmetry_Int_Tables_number 12
_refine_ls_R_factor_all 0.012
loop_
_symmetry_equiv_pos_site_id
_symmetry_equiv_pos_as_xyz
1 '-x, y, -z'
2 '-x, -y, -z'
3 'x, -y, z'
4 'x, y, z'
5 '-x+1/2, y+1/2, -z'
6 '-x+1/2, -y+1/2, -z'
7 'x+1/2, -y+1/2, z'
8 'x+1/2, y+1/2, z'
loop_
_atom_type_symbol
_atom_type_oxidation_number
Li1+ 1
Ni2+ 2.6
Li1+ 1
Ni2+ 2.6
Mn4+ 4
Li1+ 1
O2- -2
loop_
_atom_site_label
_atom_site_type_symbol
_atom_site_symmetry_multiplicity
_atom_site_Wyckoff_symbol
_atom_site_fract_x
_atom_site_fract_y
_atom_site_fract_z
_atom_site_B_iso_or_equiv
_atom_site_occupancy
_atom_site_attached_hydrogens
Li1 Li1+ 2 a 0 0 0 0.377(5) 0.2516 0
Ni1 Ni2+ 2 a 0 0 0 0.377(5) 0.0931 0
Li2 Li1+ 2 d 0 0.5 0.5 0.377(5) 0.0931 0
Ni2 Ni2+ 2 d 0 0.5 0.5 0.377(5) 0.4069 0
Mn1 Mn4+ 2 d 0 0.5 0.5 0.377(5) 0.5 0
Li3 Li1+ 4 i 0.370(14) 0 0.124(2) 0.377(5) 0.178(2) 0
O1 O2- 4 i 0.2221(8) 0 0.71796(14) 0.63(3) 1. 0
#End of TTdata_154097-ICSD