
#(C) 2018 by FIZ Karlsruhe - Leibniz Institute for Information Infrastructure.  All rights reserved.
data_154101-ICSD
_database_code_ICSD 154101
_audit_creation_date 2007-04-01
_chemical_name_systematic 'Lithium nickel manganese oxide (0.33/0.5/0.5/2)'
_chemical_formula_structural 'Li0.33 Ni0.5 Mn0.5 O2'
_chemical_formula_sum 'Li0.33 Mn0.5 Ni0.5 O2'
_chemical_name_structure_type Na.5FeO2
_exptl_crystal_density_diffrn 4.5
_publ_section_title

;
Li de-intercalation mechanism in Li Ni0.5 Mn0.5 O2 cathode material for Li-ion
batteries
;
loop_
_citation_id
_citation_journal_full
_citation_year
_citation_journal_volume
_citation_page_first
_citation_page_last
_citation_journal_id_ASTM
primary 'Solid State Ionics' 2005 176 895 903 SSIOD3
loop_
_publ_author_name
'Arachi, Y.'
'Kobayashi, H.'
'Emura, S.'
'Nakata, Y.'
'Tanaka, M.'
'Asai, T.'
'Sakaebe, H.'
'Tatsumi, K.'
'Kageyama, H.'
_cell_length_a 4.91617(5)
_cell_length_b 2.8427(2)
_cell_length_c 5.0825(3)
_cell_angle_alpha 90.
_cell_angle_beta 108.846(8)
_cell_angle_gamma 90.
_cell_volume 67.22
_cell_formula_units_Z 2
_symmetry_space_group_name_H-M 'C 1 2/m 1'
_symmetry_Int_Tables_number 12
_refine_ls_R_factor_all 0.0123
loop_
_symmetry_equiv_pos_site_id
_symmetry_equiv_pos_as_xyz
1 '-x, y, -z'
2 '-x, -y, -z'
3 'x, -y, z'
4 'x, y, z'
5 '-x+1/2, y+1/2, -z'
6 '-x+1/2, -y+1/2, -z'
7 'x+1/2, -y+1/2, z'
8 'x+1/2, y+1/2, z'
loop_
_atom_type_symbol
_atom_type_oxidation_number
Ni3+ 3.33
Li1+ 1
Ni3+ 3.33
Mn4+ 4
Li1+ 1
Ni3+ 3.2
O2- -2
loop_
_atom_site_label
_atom_site_type_symbol
_atom_site_symmetry_multiplicity
_atom_site_Wyckoff_symbol
_atom_site_fract_x
_atom_site_fract_y
_atom_site_fract_z
_atom_site_B_iso_or_equiv
_atom_site_occupancy
_atom_site_attached_hydrogens
Ni1 Ni3+ 2 a 0 0 0 0.346(14) 0.0714 0
Li1 Li1+ 2 d 0 0.5 0.5 0.346(14) 0.0931 0
Ni2 Ni3+ 2 d 0 0.5 0.5 0.346(14) 0.4069 0
Mn1 Mn4+ 2 d 0 0.5 0.5 0.346(14) 0.5 0
Li2 Li1+ 4 i 0.381(17) 0 0.130(4) 0.346(14) 0.1185 0
Ni3 Ni3+ 4 i 0.381(17) 0 0.130(4) 0.346(14) 0.0108(3) 0
O1 O2- 4 i 0.2555(17) 0 0.7114(3) 0.44(6) 1. 0
#End of TTdata_154101-ICSD