
#(C) 2018 by FIZ Karlsruhe - Leibniz Institute for Information Infrastructure.  All rights reserved.
data_154116-ICSD
_database_code_ICSD 154116
_audit_creation_date 2007-04-01
_chemical_name_systematic 'Lithium iron phosphate(V) (0.45/1/1)'
_chemical_formula_structural 'Li0.45 Fe (P O4)'
_chemical_formula_sum 'Fe1 Li0.45 O4 P1'
_chemical_name_structure_type Olivine-Mg2SiO4
_exptl_crystal_density_diffrn 3.54
_cell_measurement_temperature 623.
_publ_section_title

;
Crystal chemistry of the olivine-type Lix Fe P O4 system (0 <= x <= 1) between
5 and 370 C
;
loop_
_citation_id
_citation_journal_full
_citation_year
_citation_journal_volume
_citation_page_first
_citation_page_last
_citation_journal_id_ASTM
primary 'Solid State Sciences' 2005 7 1506 1516 SSSCFJ
loop_
_publ_author_name
'Delacourt, C.'
'Rodriguez Carvajal, J.'
'Schmitt, B.'
'Tarascon, J.-M.'
'Masquelier, C.'
_cell_length_a 5.9595(7)
_cell_length_b 10.130(1)
_cell_length_c 4.7901(6)
_cell_angle_alpha 90.
_cell_angle_beta 90.
_cell_angle_gamma 90.
_cell_volume 289.18
_cell_formula_units_Z 4
_symmetry_space_group_name_H-M 'P m n b'
_symmetry_Int_Tables_number 62
_refine_ls_R_factor_all 0.025
loop_
_symmetry_equiv_pos_site_id
_symmetry_equiv_pos_as_xyz
1 'x, y+1/2, -z+1/2'
2 '-x+1/2, y, z'
3 'x+1/2, -y+1/2, z+1/2'
4 '-x, -y, -z'
5 '-x, -y+1/2, z+1/2'
6 'x+1/2, -y, -z'
7 '-x+1/2, y+1/2, -z+1/2'
8 'x, y, z'
loop_
_atom_type_symbol
_atom_type_oxidation_number
Li1+ 1
Fe2+ 2.55
P5+ 5
O2- -2
loop_
_atom_site_label
_atom_site_type_symbol
_atom_site_symmetry_multiplicity
_atom_site_Wyckoff_symbol
_atom_site_fract_x
_atom_site_fract_y
_atom_site_fract_z
_atom_site_B_iso_or_equiv
_atom_site_occupancy
_atom_site_attached_hydrogens
Li1 Li1+ 4 a 0 0 0 3.(1) 0.45(4) 0
Fe1 Fe2+ 4 c 0.25 0.28018(19) 0.9676(4) 1.25(5) 1. 0
P1 P5+ 4 c 0.25 0.0958(4) 0.4148(6) 0.85(6) 1. 0
O1 O2- 4 c 0.25 0.1120(3) 0.7331(7) 1.7(7) 1. 0
O2 O2- 4 c 0.25 0.4546(4) 0.1787(6) 1.7(7) 1. 0
O3 O2- 8 d 0.0476(4) 0.1691(3) 0.2764(5) 1.6(5) 1. 0
#End of TTdata_154116-ICSD