
#(C) 2018 by FIZ Karlsruhe - Leibniz Institute for Information Infrastructure.  All rights reserved.
data_155364-ICSD
_database_code_ICSD 155364
_audit_creation_date 2007-04-01
_chemical_name_systematic 'Lithium niobium oxide (1/0.97/3)'
_chemical_formula_structural 'Li (Nb0.972 O3)'
_chemical_formula_sum 'Li1 Nb0.972 O3'
_chemical_name_structure_type LiNbO3
_exptl_crystal_density_diffrn 4.51
_cell_measurement_temperature 473.
_publ_section_title
'Relation between X-ray emission mechanism and crystal structure in Li Nb O3'
loop_
_citation_id
_citation_journal_full
_citation_year
_citation_journal_volume
_citation_page_first
_citation_page_last
_citation_journal_id_ASTM
primary 'Physica Scripta' 2006 73 471 477 PHSTBO
loop_
_publ_author_name
'Nakanishi, Y.'
'Mizota, H.'
'Ito, Y.'
'Takano, M.'
'Fukao, S.'
'Yoshikado, S.'
'Ohyama, K.'
'Yamada, K.'
'Fukushima, S.'
_cell_length_a 5.164(3)
_cell_length_b 5.164(3)
_cell_length_c 13.886(6)
_cell_angle_alpha 90.
_cell_angle_beta 90.
_cell_angle_gamma 120.
_cell_volume 320.69
_cell_formula_units_Z 6
_symmetry_space_group_name_H-M 'R 3 c H'
_symmetry_Int_Tables_number 161
_refine_ls_R_factor_all 0.027
loop_
_symmetry_equiv_pos_site_id
_symmetry_equiv_pos_as_xyz
1 '-x+y, y, z+1/2'
2 'x, x-y, z+1/2'
3 '-y, -x, z+1/2'
4 '-x+y, -x, z'
5 '-y, x-y, z'
6 'x, y, z'
7 '-x+y+2/3, y+1/3, z+5/6'
8 'x+2/3, x-y+1/3, z+5/6'
9 '-y+2/3, -x+1/3, z+5/6'
10 '-x+y+2/3, -x+1/3, z+1/3'
11 '-y+2/3, x-y+1/3, z+1/3'
12 'x+2/3, y+1/3, z+1/3'
13 '-x+y+1/3, y+2/3, z+1/6'
14 'x+1/3, x-y+2/3, z+1/6'
15 '-y+1/3, -x+2/3, z+1/6'
16 '-x+y+1/3, -x+2/3, z+2/3'
17 '-y+1/3, x-y+2/3, z+2/3'
18 'x+1/3, y+2/3, z+2/3'
loop_
_atom_type_symbol
_atom_type_oxidation_number
Nb5+ 5
Li1+ 1
O2- -2
loop_
_atom_site_label
_atom_site_type_symbol
_atom_site_symmetry_multiplicity
_atom_site_Wyckoff_symbol
_atom_site_fract_x
_atom_site_fract_y
_atom_site_fract_z
_atom_site_B_iso_or_equiv
_atom_site_occupancy
_atom_site_attached_hydrogens
Nb1 Nb5+ 6 a 0 0 0 0.53 0.972(24) 0
Li1 Li1+ 6 a 0 0 0.2801(24) 0.71 1. 0
O1 O2- 18 b 0.0477(4) 0.3434(4) 0.0643(4) 0.71 1. 0
loop_
_atom_site_aniso_label
_atom_site_aniso_type_symbol
_atom_site_aniso_U_11
_atom_site_aniso_U_22
_atom_site_aniso_U_33
_atom_site_aniso_U_12
_atom_site_aniso_U_13
_atom_site_aniso_U_23
Nb1 Nb5+ 0.0065(2) 0.0065(2) 0.0070(3) 0.0033(1) 0. 0.
Li1 Li1+ 0.0119(52) 0.0119(52) 0.0085(70) 0.0059(26) 0. 0.
O1 O2- 0.0088(7) 0.0074(5) 0.0105(7) 0.0037(7) -0.0016(9) -0.0020(4)
#End of TTdata_155364-ICSD