
#(C) 2018 by FIZ Karlsruhe - Leibniz Institute for Information Infrastructure.  All rights reserved.
data_155724-ICSD
_database_code_ICSD 155724
_audit_creation_date 2007-08-01
_chemical_name_systematic 'Dilithium manganese silicate'
_chemical_formula_structural 'Li2 Mn (Si O4)'
_chemical_formula_sum 'Li2 Mn1 O4 Si1'
_exptl_crystal_density_diffrn 3.17
_publ_section_title

;
Structure and electrochemical performance of Li2 Mn Si O4 and Li2 Fe Si O4 as
potential Li-battery cathode materials
;
loop_
_citation_id
_citation_journal_full
_citation_year
_citation_journal_volume
_citation_page_first
_citation_page_last
_citation_journal_id_ASTM
primary 'Electrochemistry Communications' 2006 8 217 222 ECCMF9
loop_
_publ_author_name
'Dominko, R.'
'Bele, M.'
'Gaberscek, M.'
'Meden, A.'
'Remskar, M.'
'Jamnik, J.'
_cell_length_a 6.3109(9)
_cell_length_b 5.3800(9)
_cell_length_c 4.9662(8)
_cell_angle_alpha 90.
_cell_angle_beta 90.
_cell_angle_gamma 90.
_cell_volume 168.62
_cell_formula_units_Z 2
_symmetry_space_group_name_H-M 'P m n 21'
_symmetry_Int_Tables_number 31
loop_
_symmetry_equiv_pos_site_id
_symmetry_equiv_pos_as_xyz
1 'x+1/2, -y, z+1/2'
2 '-x+1/2, -y, z+1/2'
3 '-x, y, z'
4 'x, y, z'
loop_
_atom_type_symbol
_atom_type_oxidation_number
Li1+ 1
Mn2+ 2
Li1+ 1
Mn2+ 2
Li1+ 1
Mn2+ 2
Si4+ 4
O2- -2
loop_
_atom_site_label
_atom_site_type_symbol
_atom_site_symmetry_multiplicity
_atom_site_Wyckoff_symbol
_atom_site_fract_x
_atom_site_fract_y
_atom_site_fract_z
_atom_site_B_iso_or_equiv
_atom_site_occupancy
_atom_site_attached_hydrogens
Li1 Li1+ 4 b 0.759(6) 0.334(7) 0.960(9) 1.1(1) 0.60(6) 0
Mn1 Mn2+ 4 b 0.759(6) 0.334(7) 0.960(9) 1.1(1) 0.05(2) 0
Li2 Li1+ 4 b 0.759(6) 0.334(7) 0.76(3) 1.1(1) 0.35(6) 0
Mn2 Mn2+ 2 a 0 0.168(3) 0.505(6) 1.1(1) 0.68(3) 0
Li3 Li1+ 2 a 0 0.168(3) 0.505(6) 1.1(1) 0.10(2) 0
Mn3 Mn2+ 2 a 0 0.168(3) 0.40(2) 1.1(1) 0.22(3) 0
Si1 Si4+ 2 a 0 0.822(2) 0 1.1(1) 0.92(9) 0
Si2 Si4+ 2 a 0 0.822(2) 0.78(3) 1.1(1) 0.08(9) 0
O1 O2- 2 a 0 0.821(6) 0.345(6) 1.5(2) 1. 0
O2 O2- 2 a 0 0.119(4) 0.918(6) 1.5(2) 1. 0
O3 O2- 4 b 0.781(2) 0.679(4) 0.902(4) 1.5(2) 1. 0
#End of TTdata_155724-ICSD