
#(C) 2018 by FIZ Karlsruhe - Leibniz Institute for Information Infrastructure.  All rights reserved.
data_155815-ICSD
_database_code_ICSD 155815
_audit_creation_date 2007-08-01
_chemical_name_systematic 'Lithium iron phosphate(V) (0.05/1/1)'
_chemical_formula_structural 'Li0.05 Fe (P O4)'
_chemical_formula_sum 'Fe1 Li0.05 O4 P1'
_chemical_name_structure_type FePO4
_exptl_crystal_density_diffrn 3.69
_publ_section_title 'Room-temperature miscibility gap in Lix Fe P O4'
loop_
_citation_id
_citation_journal_full
_citation_year
_citation_journal_volume
_citation_page_first
_citation_page_last
_citation_journal_id_ASTM
primary 'Nature Materials' 2006 5 357 360 NMAACR
loop_
_publ_author_name
'Yamada, A.'
'Koizumi, H.'
'Nishimura, S.T.'
'Sonoyama, N.'
'Kanno, R.'
'Yonemura, M.'
'Nakamura, T.'
'Kobayashi, Y.'
_cell_length_a 9.82641(28)
_cell_length_b 5.79806(13)
_cell_length_c 4.78131(18)
_cell_angle_alpha 90.
_cell_angle_beta 90.
_cell_angle_gamma 90.
_cell_volume 272.41
_cell_formula_units_Z 4
_symmetry_space_group_name_H-M 'P n m a'
_symmetry_Int_Tables_number 62
_refine_ls_R_factor_all 0.0097
loop_
_symmetry_equiv_pos_site_id
_symmetry_equiv_pos_as_xyz
1 'x+1/2, y, -z+1/2'
2 'x, -y+1/2, z'
3 '-x+1/2, y+1/2, z+1/2'
4 '-x, -y, -z'
5 '-x+1/2, -y, z+1/2'
6 '-x, y+1/2, -z'
7 'x+1/2, -y+1/2, -z+1/2'
8 'x, y, z'
loop_
_atom_type_symbol
_atom_type_oxidation_number
Li1+ 1
Fe2+ 2.95
P5+ 5
O2- -2
loop_
_atom_site_label
_atom_site_type_symbol
_atom_site_symmetry_multiplicity
_atom_site_Wyckoff_symbol
_atom_site_fract_x
_atom_site_fract_y
_atom_site_fract_z
_atom_site_B_iso_or_equiv
_atom_site_occupancy
_atom_site_attached_hydrogens
Li1 Li1+ 4 a 0 0 0 1.18 0.05(1) 0
Fe1 Fe2+ 4 c 0.27564(18) 0.25 0.9499(3) 0.30(3) 1. 0
P1 P5+ 4 c 0.0931(3) 0.25 0.4012(6) 0.25(6) 1. 0
O1 O2- 4 c 0.1187(2) 0.25 0.7098(6) 0.42(6) 1. 0
O2 O2- 4 c 0.4425(3) 0.25 0.1605(6) 0.84(6) 1. 0
O3 O2- 8 d 0.1670(2) 0.0437(3) 0.2517(4) 0.57(3) 1. 0
#End of TTdata_155815-ICSD