
#(C) 2018 by FIZ Karlsruhe - Leibniz Institute for Information Infrastructure.  All rights reserved.
data_155952-ICSD
_database_code_ICSD 155952
_audit_creation_date 2007-08-01
_chemical_name_systematic 'Heptalithium osmate(V)'
_chemical_formula_structural 'Li7 (Os O6)'
_chemical_formula_sum 'Li7 O6 Os1'
_chemical_name_structure_type Li7SbO6
_exptl_crystal_density_diffrn 4.44
_cell_measurement_temperature 295.
_publ_section_title

;
Crystal structures, dimorphism and lithium mobility of Li7 M O6 (M = Bi, Ru,
Os)
;
loop_
_citation_id
_citation_journal_full
_citation_year
_citation_journal_volume
_citation_page_first
_citation_page_last
_citation_journal_id_ASTM
primary 'Zeitschrift fuer Anorganische und Allgemeine Chemie (1950) (DE)' 2005
631 2321 2327 ZAACAB
loop_
_publ_author_name
'Muehle, C.'
'Karpov, A.'
'Verhoeven, A.'
'Jansen, M.'
_cell_length_a 5.3786(1)
_cell_length_b 5.8725(1)
_cell_length_c 5.3591(1)
_cell_angle_alpha 117.193(1)
_cell_angle_beta 119.277(1)
_cell_angle_gamma 62.700(1)
_cell_volume 125.15
_cell_formula_units_Z 1
_symmetry_space_group_name_H-M 'P -1'
_symmetry_Int_Tables_number 2
_refine_ls_R_factor_all 0.0239
loop_
_symmetry_equiv_pos_site_id
_symmetry_equiv_pos_as_xyz
1 '-x, -y, -z'
2 'x, y, z'
loop_
_atom_type_symbol
_atom_type_oxidation_number
Os5+ 5
O2- -2
Li1+ 1
loop_
_atom_site_label
_atom_site_type_symbol
_atom_site_symmetry_multiplicity
_atom_site_Wyckoff_symbol
_atom_site_fract_x
_atom_site_fract_y
_atom_site_fract_z
_atom_site_B_iso_or_equiv
_atom_site_occupancy
_atom_site_attached_hydrogens
Os1 Os5+ 1 a 0 0 0 1.51(1) 1. 0
O1 O2- 2 i 0.912(1) 0.235(1) 0.379(1) 2.13(8) 1. 0
O2 O2- 2 i 0.217(2) 0.243(2) 0.081(2) 2.13(8) 1. 0
O3 O2- 2 i 0.374(1) 0.780(1) 0.232(1) 2.13(8) 1. 0
Li1 Li1+ 2 i 0.501(5) 0.399(5) 0.097(5) 2.9(2) 0.875 0
Li2 Li1+ 2 i 0.109(5) 0.686(5) 0.252(6) 2.9(2) 0.875 0
Li3 Li1+ 2 i 0.764(5) 0.642(5) 0.501(4) 2.9(2) 0.875 0
Li4 Li1+ 2 i 0.651(5) 0.019(3) 0.315(6) 2.9(2) 0.875 0
#End of TTdata_155952-ICSD