
#(C) 2018 by FIZ Karlsruhe - Leibniz Institute for Information Infrastructure.  All rights reserved.
data_155951-ICSD
_database_code_ICSD 155951
_audit_creation_date 2007-08-01
_chemical_name_systematic 'Heptalithium ruthenate(V)'
_chemical_formula_structural 'Li7 (Ru O6)'
_chemical_formula_sum 'Li7 O6 Ru1'
_chemical_name_structure_type Li7SbO6
_exptl_crystal_density_diffrn 3.28
_cell_measurement_temperature 295.
_publ_section_title

;
Crystal structures, dimorphism and lithium mobility of Li7 M O6 (M = Bi, Ru,
Os)
;
loop_
_citation_id
_citation_journal_full
_citation_year
_citation_journal_volume
_citation_page_first
_citation_page_last
_citation_journal_id_ASTM
primary 'Zeitschrift fuer Anorganische und Allgemeine Chemie (1950) (DE)' 2005
631 2321 2327 ZAACAB
loop_
_publ_author_name
'Muehle, C.'
'Karpov, A.'
'Verhoeven, A.'
'Jansen, M.'
_cell_length_a 5.3654(1)
_cell_length_b 5.8584(1)
_cell_length_c 5.3496(1)
_cell_angle_alpha 117.182(1)
_cell_angle_beta 119.117(1)
_cell_angle_gamma 62.632(1)
_cell_volume 124.43
_cell_formula_units_Z 1
_symmetry_space_group_name_H-M 'P -1'
_symmetry_Int_Tables_number 2
_refine_ls_R_factor_all 0.0392
loop_
_symmetry_equiv_pos_site_id
_symmetry_equiv_pos_as_xyz
1 '-x, -y, -z'
2 'x, y, z'
loop_
_atom_type_symbol
_atom_type_oxidation_number
Ru5+ 5
O2- -2
Li1+ 1
loop_
_atom_site_label
_atom_site_type_symbol
_atom_site_symmetry_multiplicity
_atom_site_Wyckoff_symbol
_atom_site_fract_x
_atom_site_fract_y
_atom_site_fract_z
_atom_site_B_iso_or_equiv
_atom_site_occupancy
_atom_site_attached_hydrogens
Ru1 Ru5+ 1 a 0 0 0 1.51(1) 1. 0
O1 O2- 2 i 0.8996(9) 0.2362(9) 0.3695(8) 2.00(6) 1. 0
O2 O2- 2 i 0.225(1) 0.2311(9) 0.081(1) 2.00(6) 1. 0
O3 O2- 2 i 0.3700(9) 0.7835(8) 0.2372(9) 2.00(6) 1. 0
Li1 Li1+ 2 i 0.498(3) 0.378(3) 0.105(3) 3.9(2) 0.875 0
Li2 Li1+ 2 i 0.101(3) 0.649(4) 0.219(3) 3.9(2) 0.875 0
Li3 Li1+ 2 i 0.782(3) 0.655(3) 0.528(3) 3.9(2) 0.875 0
Li4 Li1+ 2 i 0.637(4) 0.013(2) 0.312(4) 3.9(2) 0.875 0
#End of TTdata_155951-ICSD