
#(C) 2018 by FIZ Karlsruhe - Leibniz Institute for Information Infrastructure.  All rights reserved.
data_156182-ICSD
_database_code_ICSD 156182
_audit_creation_date 2007-08-01
_chemical_name_systematic
'Lithium magnesium scandium catena-disilicate (0.52/0.96/0.52/1)'
_chemical_formula_structural '(Li0.52 Mg0.48) (Mg0.48 Sc0.52) (Si2 O6)'
_chemical_formula_sum 'Li0.52 Mg0.96 O6 Sc0.52 Si2'
_chemical_name_structure_type Pyroxene-MgSiO3
_chemical_name_mineral Unnamed_Pyroxene
_exptl_crystal_density_diffrn 3.15
_publ_section_title
'Synthesis and crystal structure of Li0.52 Mg0.96 Sc0.52 Si2 O6 orthopyroxene'
loop_
_citation_id
_citation_journal_full
_citation_year
_citation_journal_volume
_citation_page_first
_citation_page_last
_citation_journal_id_ASTM
primary 'American Mineralogist' 2007 92 225 228 AMMIAY
loop_
_publ_author_name
'Yang He Xiong'
'Downs, R.T.'
_cell_length_a 18.259(4)
_cell_length_b 8.883(2)
_cell_length_c 5.271(1)
_cell_angle_alpha 90.
_cell_angle_beta 90.
_cell_angle_gamma 90.
_cell_volume 854.93
_cell_formula_units_Z 8
_symmetry_space_group_name_H-M 'P b c a'
_symmetry_Int_Tables_number 61
_refine_ls_R_factor_all 0.033
loop_
_symmetry_equiv_pos_site_id
_symmetry_equiv_pos_as_xyz
1 'x+1/2, y, -z+1/2'
2 'x, -y+1/2, z+1/2'
3 '-x+1/2, y+1/2, z'
4 '-x, -y, -z'
5 '-x+1/2, -y, z+1/2'
6 '-x, y+1/2, -z+1/2'
7 'x+1/2, -y+1/2, -z'
8 'x, y, z'
loop_
_atom_type_symbol
_atom_type_oxidation_number
Mg2+ 2
Sc3+ 3
Li1+ 1
Mg2+ 2
Si4+ 4
O2- -2
loop_
_atom_site_label
_atom_site_type_symbol
_atom_site_symmetry_multiplicity
_atom_site_Wyckoff_symbol
_atom_site_fract_x
_atom_site_fract_y
_atom_site_fract_z
_atom_site_B_iso_or_equiv
_atom_site_occupancy
_atom_site_attached_hydrogens
Mg1 Mg2+ 8 c 0.3755(1) 0.6482(1) 0.8860(1) 0.0075(3) 0.48 0
Sc1 Sc3+ 8 c 0.3755(1) 0.6482(1) 0.8860(1) 0.0075(3) 0.52 0
Li1 Li1+ 8 c 0.3745(1) 0.4893(2) 0.3805(4) 0.0164(6) 0.52 0
Mg2 Mg2+ 8 c 0.3745(1) 0.4893(2) 0.3805(4) 0.0164(6) 0.48 0
Si1 Si4+ 8 c 0.2739(1) 0.3385(1) 0.0629(2) 0.0069(3) 1. 0
Si2 Si4+ 8 c 0.4749(1) 0.3373(1) 0.7768(2) 0.0067(3) 1. 0
O1 O2- 8 c 0.1853(1) 0.3349(2) 0.0563(4) 0.0085(5) 1. 0
O2 O2- 8 c 0.5639(1) 0.3383(2) 0.7808(4) 0.0089(5) 1. 0
O3 O2- 8 c 0.3103(1) 0.5011(3) 0.0613(4) 0.0097(5) 1. 0
O4 O2- 8 c 0.4354(1) 0.4903(3) 0.7033(4) 0.0104(5) 1. 0
O5 O2- 8 c 0.3041(1) 0.2310(3) 0.8334(4) 0.0100(5) 1. 0
O6 O2- 8 c 0.4490(1) 0.2129(3) 0.5638(4) 0.0106(5) 1. 0
loop_
_atom_site_aniso_label
_atom_site_aniso_type_symbol
_atom_site_aniso_U_11
_atom_site_aniso_U_22
_atom_site_aniso_U_33
_atom_site_aniso_U_12
_atom_site_aniso_U_13
_atom_site_aniso_U_23
Mg1 Mg2+ 0.0072(4) 0.0071(4) 0.0081(4) -0.0003(3) -0.0006(3) -0.0005(3)
Sc1 Sc3+ 0.0072(4) 0.0071(4) 0.0081(4) -0.0003(3) -0.0006(3) -0.0005(3)
Li1 Li1+ 0.0178(11) 0.0163(12) 0.0152(10) -0.0008(9) -0.0037(8) 0.0022(9)
Mg2 Mg2+ 0.0178(11) 0.0163(12) 0.0152(10) -0.0008(9) -0.0037(8) 0.0022(9)
Si1 Si4+ 0.0071(5) 0.0068(5) 0.0069(4) -0.0004(3) 0.0003(3) -0.0006(3)
Si2 Si4+ 0.0076(5) 0.0060(5) 0.0066(4) 0.0000(3) -0.0010(3) -0.0005(3)
O1 O2- 0.0056(11) 0.0105(12) 0.0093(10) 0.0003(9) -0.0004(8) -0.0010(9)
O2 O2- 0.0048(11) 0.0130(13) 0.0088(10) 0.0001(9) -0.0008(8) 0.0001(9)
O3 O2- 0.0116(12) 0.0072(11) 0.0103(10) -0.0010(10) 0.0004(9) 0.0005(9)
O4 O2- 0.0114(12) 0.0104(12) 0.0093(10) 0.0032(9) 0.0005(9) 0.0020(9)
O5 O2- 0.0092(12) 0.0137(13) 0.0072(9) 0.0003(9) 0.0005(9) -0.0039(9)
O6 O2- 0.0096(12) 0.0140(13) 0.0083(10) -0.0018(9) 0.0004(9) -0.0054(9)
#End of TTdata_156182-ICSD