
#(C) 2018 by FIZ Karlsruhe - Leibniz Institute for Information Infrastructure.  All rights reserved.
data_156424-ICSD
_database_code_ICSD 156424
_audit_creation_date 2007-08-01
_audit_update_record 2013-02-01
_chemical_name_systematic 'Indium(I) aluminium lithium oxide (1.6/10.7/0.3/17)'
_chemical_formula_structural 'In1.6 ((Al10.7 Li0.3) O17)'
_chemical_formula_sum 'Al10.7 In1.6 Li0.3 O17'
_chemical_name_structure_type Na1.7Al11O17
_exptl_crystal_density_diffrn 3.96
_publ_section_title 'Preparation and characterization of In(I)-beta''-alumina'
loop_
_citation_id
_citation_journal_full
_citation_year
_citation_journal_volume
_citation_page_first
_citation_page_last
_citation_journal_id_ASTM
primary 'Materials Research Bulletin' 2007 42 713 719 MRBUAC
loop_
_publ_author_name
'Cetinkol, M.'
'Lee, P.L.'
'Wilkinson, A.P.'
_cell_length_a 5.6044(1)
_cell_length_b 5.6044(1)
_cell_length_c 34.4807(1)
_cell_angle_alpha 90.
_cell_angle_beta 90.
_cell_angle_gamma 120.
_cell_volume 937.92
_cell_formula_units_Z 3
_symmetry_space_group_name_H-M 'R -3 m H'
_symmetry_Int_Tables_number 166
_refine_ls_R_factor_all 0.0326
loop_
_symmetry_equiv_pos_site_id
_symmetry_equiv_pos_as_xyz
1 'x-y, -y, -z'
2 '-x, -x+y, -z'
3 'y, x, -z'
4 'x-y, x, -z'
5 'y, -x+y, -z'
6 '-x, -y, -z'
7 '-x+y, y, z'
8 'x, x-y, z'
9 '-y, -x, z'
10 '-x+y, -x, z'
11 '-y, x-y, z'
12 'x, y, z'
13 'x-y+2/3, -y+1/3, -z+1/3'
14 '-x+2/3, -x+y+1/3, -z+1/3'
15 'y+2/3, x+1/3, -z+1/3'
16 'x-y+2/3, x+1/3, -z+1/3'
17 'y+2/3, -x+y+1/3, -z+1/3'
18 '-x+2/3, -y+1/3, -z+1/3'
19 '-x+y+2/3, y+1/3, z+1/3'
20 'x+2/3, x-y+1/3, z+1/3'
21 '-y+2/3, -x+1/3, z+1/3'
22 '-x+y+2/3, -x+1/3, z+1/3'
23 '-y+2/3, x-y+1/3, z+1/3'
24 'x+2/3, y+1/3, z+1/3'
25 'x-y+1/3, -y+2/3, -z+2/3'
26 '-x+1/3, -x+y+2/3, -z+2/3'
27 'y+1/3, x+2/3, -z+2/3'
28 'x-y+1/3, x+2/3, -z+2/3'
29 'y+1/3, -x+y+2/3, -z+2/3'
30 '-x+1/3, -y+2/3, -z+2/3'
31 '-x+y+1/3, y+2/3, z+2/3'
32 'x+1/3, x-y+2/3, z+2/3'
33 '-y+1/3, -x+2/3, z+2/3'
34 '-x+y+1/3, -x+2/3, z+2/3'
35 '-y+1/3, x-y+2/3, z+2/3'
36 'x+1/3, y+2/3, z+2/3'
loop_
_atom_type_symbol
_atom_type_oxidation_number
In1+ 1
Al3+ 3
O2- -2
Li1+ 1
loop_
_atom_site_label
_atom_site_type_symbol
_atom_site_symmetry_multiplicity
_atom_site_Wyckoff_symbol
_atom_site_fract_x
_atom_site_fract_y
_atom_site_fract_z
_atom_site_B_iso_or_equiv
_atom_site_occupancy
_atom_site_attached_hydrogens
In1 In1+ 18 h 0.0076(4) -0.0076(4) -0.177367(8) . 0.264(0) 0
Al1 Al3+ 3 a 0 0 0 0.00119(13) 1. 0
Al2 Al3+ 6 c 0 0 0.349197(16) 0.00076(10) 0.85 0
Al3 Al3+ 18 h 0.333306(7) 0.166653(33) 0.068876(8) 0.00280(6) 1. 0
Al4 Al3+ 6 c 0 0 0.450016(14) 0.00221(10) 1. 0
O1 O2- 18 h 0.15648(6) 0.31296(12) 0.033202(16) 0.00150(12) 1. 0
O2 O2- 6 c 0 0 0.295988(30) 0.00136(20) 1. 0
O3 O2- 6 c 0 0 0.093421(30) 0.00097(20) 1. 0
O4 O2- 18 h 0.16402(6) 0.32804(12) 0.236835(17) 0.00115(11) 1. 0
O5 O2- 3 b 0 0 0.5 . 1. 0
Li1 Li1+ 6 c 0 0 0.349197(16) 0.00106(10) 0.15 0
loop_
_atom_site_aniso_label
_atom_site_aniso_type_symbol
_atom_site_aniso_U_11
_atom_site_aniso_U_22
_atom_site_aniso_U_33
_atom_site_aniso_U_12
_atom_site_aniso_U_13
_atom_site_aniso_U_23
In1 In1+ 0.01622(20) 0.01622(20) 0.01402(18) 0.0018(5) 0. 0.
O5 O2- 0.01547(51) 0.01547(51) 0.0010(10) 0.0077(2) 0. 0.
#End of TTdata_156424-ICSD