
#(C) 2018 by FIZ Karlsruhe - Leibniz Institute for Information Infrastructure.  All rights reserved.
data_158579-ICSD
_database_code_ICSD 158579
_audit_creation_date 2008-08-01
_audit_update_record 2013-02-01
_chemical_name_systematic 'Lithium iron(III) catena-disilicate - LT'
_chemical_formula_structural 'Li Fe (Si2 O6)'
_chemical_formula_sum 'Fe1 Li1 O6 Si2'
_chemical_name_structure_type Pyroxene-MgSiO3-LT
_chemical_name_mineral Aegirine-Li
_exptl_crystal_density_diffrn 3.47
_cell_measurement_temperature 100.
_publ_section_title

;
The crystal and magnetic structure of Li-aegirine Li Fe(3+) Si2 O6: a
temperature-dependent study
;
loop_
_citation_id
_citation_journal_full
_citation_year
_citation_journal_volume
_citation_page_first
_citation_page_last
_citation_journal_id_ASTM
primary 'Physics and Chemistry of Minerals' 2001 28 337 346 PCMIDU
loop_
_publ_author_name
'Redhammer, G.J.'
'Roth, G.'
'Paulus, W.'
'Andre, G.'
'Lottermoser, W.'
'Amthauer, G.'
'Treutmann, W.'
'Koppelhuber-Bitschnau, B.'
_cell_length_a 9.622(2)
_cell_length_b 8.664(1)
_cell_length_c 5.2555(9)
_cell_angle_alpha 90.
_cell_angle_beta 109.95(2)
_cell_angle_gamma 90.
_cell_volume 411.83
_cell_formula_units_Z 4
_symmetry_space_group_name_H-M 'P 1 21/c 1'
_symmetry_Int_Tables_number 14
_refine_ls_R_factor_all 0.0164
loop_
_symmetry_equiv_pos_site_id
_symmetry_equiv_pos_as_xyz
1 'x, -y+1/2, z+1/2'
2 '-x, -y, -z'
3 '-x, y+1/2, -z+1/2'
4 'x, y, z'
loop_
_atom_type_symbol
_atom_type_oxidation_number
Li1+ 1
Fe3+ 3
Si4+ 4
O2- -2
loop_
_atom_site_label
_atom_site_type_symbol
_atom_site_symmetry_multiplicity
_atom_site_Wyckoff_symbol
_atom_site_fract_x
_atom_site_fract_y
_atom_site_fract_z
_atom_site_B_iso_or_equiv
_atom_site_occupancy
_atom_site_attached_hydrogens
Li1 Li1+ 4 e 0.2504(4) 0.0090(4) 0.2367(5) 0.0010(6) 1. 0
Fe1 Fe3+ 4 e 0.25022(3) 0.64788(3) 0.23528(5) 0.0010(1) 1. 0
Si1 Si4+ 4 e 0.04779(7) 0.33899(6) 0.2776(1) 0.0010(1) 1. 0
Si2 Si4+ 4 e 0.54862(6) 0.83874(6) 0.2527(1) 0.0010(1) 1. 0
O1 O2- 4 e 0.8673(2) 0.3327(2) 0.1636(3) 0.0023(3) 1. 0
O2 O2- 4 e 0.3674(2) 0.8347(2) 0.1351(3) 0.0022(3) 1. 0
O3 O2- 4 e 0.1160(2) 0.5086(2) 0.3123(3) 0.0032(4) 1. 0
O4 O2- 4 e 0.6215(2) 0.0032(2) 0.3537(3) 0.0033(3) 1. 0
O5 O2- 4 e 0.1085(2) 0.2667(2) 0.5821(3) 0.0030(3) 1. 0
O6 O2- 4 e 0.6050(2) 0.7232(2) 0.5120(2) 0.0028(4) 1. 0
#End of TTdata_158579-ICSD