
#(C) 2018 by FIZ Karlsruhe - Leibniz Institute for Information Infrastructure.  All rights reserved.
data_158514-ICSD
_database_code_ICSD 158514
_audit_creation_date 2008-02-01
_chemical_name_systematic 'Lithium scandium catena-disilicate'
_chemical_formula_structural 'Li Sc (Si2 O6)'
_chemical_formula_sum 'Li1 O6 Sc1 Si2'
_chemical_name_structure_type Pyroxene-MgSiO3-LT
_chemical_name_mineral Unnamed_Clinopyroxene
_exptl_crystal_density_diffrn 3.24
_cell_measurement_temperature 293.
_cell_measurement_pressure 4804000.
_publ_section_title

;
Displacive phase transitions in C-centred clinopyroxenes: spodumene, Li Sc Si2
O6 and Zn Si O3
;
loop_
_citation_id
_citation_journal_full
_citation_year
_citation_journal_volume
_citation_page_first
_citation_page_last
_citation_journal_id_ASTM
primary 'Physics and Chemistry of Minerals' 2000 27 719 731 PCMIDU
loop_
_publ_author_name
'Arlt, T.'
'Angel, R.J.'
_cell_length_a 9.5954(5)
_cell_length_b 8.8304(8)
_cell_length_c 5.2448(3)
_cell_angle_alpha 90.
_cell_angle_beta 109.601(5)
_cell_angle_gamma 90.
_cell_volume 418.65
_cell_formula_units_Z 4
_symmetry_space_group_name_H-M 'P 1 21/c 1'
_symmetry_Int_Tables_number 14
_refine_ls_R_factor_all 0.041
loop_
_symmetry_equiv_pos_site_id
_symmetry_equiv_pos_as_xyz
1 'x, -y+1/2, z+1/2'
2 '-x, -y, -z'
3 '-x, y+1/2, -z+1/2'
4 'x, y, z'
loop_
_atom_type_symbol
_atom_type_oxidation_number
Sc3+ 3
Li1+ 1
Si4+ 4
O2- -2
Si4+ 4
O2- -2
loop_
_atom_site_label
_atom_site_type_symbol
_atom_site_symmetry_multiplicity
_atom_site_Wyckoff_symbol
_atom_site_fract_x
_atom_site_fract_y
_atom_site_fract_z
_atom_site_B_iso_or_equiv
_atom_site_occupancy
_atom_site_attached_hydrogens
Sc1 Sc3+ 4 e 0.25121(15) 0.64561(17) 0.2289(2) 0.28(2) 1. 0
Li1 Li1+ 4 e 0.2519(17) 0.011(2) 0.228(2) 2.2(2) 1. 0
Si1 Si4+ 4 e 0.0515(2) 0.3369(3) 0.2966(3) 0.36(3) 1. 0
O1 O2- 4 e 0.8717(5) 0.3303(7) 0.1792(7) 0.43(7) 1. 0
O2 O2- 4 e 0.1165(5) 0.5023(7) 0.3239(8) 0.72(8) 1. 0
O3 O2- 4 e 0.1116(5) 0.2675(6) 0.6006(8) 0.44(7) 1. 0
Si2 Si4+ 4 e 0.5532(2) 0.8352(3) 0.2564(3) 0.38(3) 1. 0
O4 O2- 4 e 0.3728(5) 0.8341(6) 0.1390(7) 0.38(6) 1. 0
O5 O2- 4 e 0.6285(5) 0.9904(7) 0.3811(8) 0.51(6) 1. 0
O6 O2- 4 e 0.6047(5) 0.7067(7) 0.4960(7) 0.53(7) 1. 0
#End of TTdata_158514-ICSD