
#(C) 2018 by FIZ Karlsruhe - Leibniz Institute for Information Infrastructure.  All rights reserved.
data_158580-ICSD
_database_code_ICSD 158580
_audit_creation_date 2008-08-01
_chemical_name_systematic 'Lithium iron(III) catena-disilicate - LT'
_chemical_formula_structural 'Li Fe (Si2 O6)'
_chemical_formula_sum 'Fe1 Li1 O6 Si2'
_chemical_name_structure_type Pyroxene-MgSiO3-LT
_chemical_name_mineral Aegirine-Li
_exptl_crystal_density_diffrn 3.45
_cell_measurement_temperature 200.
_publ_section_title

;
The crystal and magnetic structure of Li-aegirine Li Fe(3+) Si2 O6: a
temperature-dependent study
;
loop_
_citation_id
_citation_journal_full
_citation_year
_citation_journal_volume
_citation_page_first
_citation_page_last
_citation_journal_id_ASTM
primary 'Physics and Chemistry of Minerals' 2001 28 337 346 PCMIDU
loop_
_publ_author_name
'Redhammer, G.J.'
'Roth, G.'
'Paulus, W.'
'Andre, G.'
'Lottermoser, W.'
'Amthauer, G.'
'Treutmann, W.'
'Koppelhuber-Bitschnau, B.'
_cell_length_a 9.635(2)
_cell_length_b 8.665(1)
_cell_length_c 5.275(1)
_cell_angle_alpha 90.
_cell_angle_beta 110.0(2)
_cell_angle_gamma 90.
_cell_volume 413.84
_cell_formula_units_Z 4
_symmetry_space_group_name_H-M 'P 1 21/c 1'
_symmetry_Int_Tables_number 14
_refine_ls_R_factor_all 0.0227
loop_
_symmetry_equiv_pos_site_id
_symmetry_equiv_pos_as_xyz
1 'x, -y+1/2, z+1/2'
2 '-x, -y, -z'
3 '-x, y+1/2, -z+1/2'
4 'x, y, z'
loop_
_atom_type_symbol
_atom_type_oxidation_number
Li1+ 1
Fe3+ 3
Si4+ 4
O2- -2
loop_
_atom_site_label
_atom_site_type_symbol
_atom_site_symmetry_multiplicity
_atom_site_Wyckoff_symbol
_atom_site_fract_x
_atom_site_fract_y
_atom_site_fract_z
_atom_site_B_iso_or_equiv
_atom_site_occupancy
_atom_site_attached_hydrogens
Li1 Li1+ 4 e 0.2505(6) 0.0097(4) 0.2395(8) 0.0072(6) 1. 0
Fe1 Fe3+ 4 e 0.25020(4) 0.64794(6) 0.23841(6) 0.0013(1) 1. 0
Si1 Si4+ 4 e 0.04739(7) 0.33888(7) 0.27481(9) 0.0013(1) 1. 0
Si2 Si4+ 4 e 0.54760(7) 0.83922(7) 0.25575(9) 0.0011(1) 1. 0
O1 O2- 4 e 0.8668(2) 0.3331(2) 0.1602(3) 0.0025(3) 1. 0
O2 O2- 4 e 0.3668(2) 0.8350(2) 0.1384(3) 0.0027(3) 1. 0
O3 O2- 4 e 0.1158(2) 0.5087(2) 0.3145(3) 0.0047(3) 1. 0
O4 O2- 4 e 0.6199(2) 0.0052(2) 0.3473(3) 0.0044(3) 1. 0
O5 O2- 4 e 0.1080(2) 0.2637(2) 0.5775(3) 0.0042(3) 1. 0
O6 O2- 4 e 0.6049(2) 0.7298(2) 0.5219(3) 0.0045(3) 1. 0
#End of TTdata_158580-ICSD