
#(C) 2018 by FIZ Karlsruhe - Leibniz Institute for Information Infrastructure.  All rights reserved.
data_158509-ICSD
_database_code_ICSD 158509
_audit_creation_date 2008-02-01
_chemical_name_systematic 'Lithium aluminium catena-disilicate'
_chemical_formula_structural 'Li Al (Si2 O6)'
_chemical_formula_sum 'Al1 Li1 O6 Si2'
_chemical_name_structure_type Pyroxene-CaMg(SiO3)2
_chemical_name_mineral Spodumene
_exptl_crystal_density_diffrn 3.18
_cell_measurement_temperature 293.
_publ_section_title

;
Displacive phase transitions in C-centred clinopyroxenes: spodumene, Li Sc Si2
O6 and Zn Si O3
;
loop_
_citation_id
_citation_journal_full
_citation_year
_citation_journal_volume
_citation_page_first
_citation_page_last
_citation_journal_id_ASTM
primary 'Physics and Chemistry of Minerals' 2000 27 719 731 PCMIDU
loop_
_publ_author_name
'Arlt, T.'
'Angel, R.J.'
_cell_length_a 9.4628(6)
_cell_length_b 8.3882(9)
_cell_length_c 5.2186(11)
_cell_angle_alpha 90.
_cell_angle_beta 110.187(6)
_cell_angle_gamma 90.
_cell_volume 388.79
_cell_formula_units_Z 4
_symmetry_space_group_name_H-M 'C 1 2/c 1'
_symmetry_Int_Tables_number 15
_refine_ls_R_factor_all 0.033
loop_
_symmetry_equiv_pos_site_id
_symmetry_equiv_pos_as_xyz
1 'x, -y, z+1/2'
2 '-x, -y, -z'
3 '-x, y, -z+1/2'
4 'x, y, z'
5 'x+1/2, -y+1/2, z+1/2'
6 '-x+1/2, -y+1/2, -z'
7 '-x+1/2, y+1/2, -z+1/2'
8 'x+1/2, y+1/2, z'
loop_
_atom_type_symbol
_atom_type_oxidation_number
Al3+ 3
Li1+ 1
Si4+ 4
O2- -2
loop_
_atom_site_label
_atom_site_type_symbol
_atom_site_symmetry_multiplicity
_atom_site_Wyckoff_symbol
_atom_site_fract_x
_atom_site_fract_y
_atom_site_fract_z
_atom_site_B_iso_or_equiv
_atom_site_occupancy
_atom_site_attached_hydrogens
Al1 Al3+ 4 e 0 0.90661(11) 0.25 0.64 1. 0
Li1 Li1+ 4 e 0 0.2750(8) 0.25 2.35 1. 0
Si1 Si4+ 8 f 0.29409(6) 0.09345(7) 0.25619(11) 0.61 1. 0
O1 O2- 8 f 0.10971(17) 0.08236(18) 0.1403(3) 0.7 1. 0
O2 O2- 8 f 0.36453(19) 0.2671(2) 0.3001(3) 0.92 1. 0
O3 O2- 8 f 0.35647(18) 0.9866(2) 0.0586(3) 0.92 1. 0
#End of TTdata_158509-ICSD