
#(C) 2018 by FIZ Karlsruhe - Leibniz Institute for Information Infrastructure.  All rights reserved.
data_158777-ICSD
_database_code_ICSD 158777
_audit_creation_date 2008-08-01
_chemical_name_systematic 'Tricaesium dilithium gallium tetrakis(molybdate)'
_chemical_formula_structural 'Cs3 Li2 Ga (Mo O4)4'
_chemical_formula_sum 'Cs3 Ga1 Li2 Mo4 O16'
_exptl_crystal_density_diffrn 4.12
_publ_section_title

;
New families of lithium-containing triple molybdates and the stabilizing role
of lithium in their structure formulation
;
loop_
_citation_id
_citation_journal_full
_citation_year
_citation_journal_volume
_citation_page_first
_citation_page_last
_citation_journal_id_ASTM
primary 'Doklady Akademii Nauk' 2007 416 60 65 DAKNEQ
loop_
_publ_author_name
'Solodovnikov, S.F.'
'Khaikina, E.G.'
'Solodovnikova, Z.A.'
'Kadyrova, Yu. M.'
'Khal'baeva, K.M. (Khalbaeva, K.M.)'
'Zolotova, E.S.'
_cell_length_a 12.1957(6)
_cell_length_b 12.1957(6)
_cell_length_c 12.1709(5)
_cell_angle_alpha 90.
_cell_angle_beta 90.
_cell_angle_gamma 90.
_cell_volume 1810.24
_cell_formula_units_Z 4
_symmetry_space_group_name_H-M 'I -4 2 d'
_symmetry_Int_Tables_number 122
_refine_ls_R_factor_all 0.0198
loop_
_symmetry_equiv_pos_site_id
_symmetry_equiv_pos_as_xyz
1 '-y, -x+1/2, z+1/4'
2 'y, -x, -z'
3 'y, x+1/2, z+1/4'
4 '-y, x, -z'
5 'x, -y+1/2, -z+1/4'
6 '-x, -y, z'
7 '-x, y+1/2, -z+1/4'
8 'x, y, z'
9 '-y+1/2, -x, z+3/4'
10 'y+1/2, -x+1/2, -z+1/2'
11 'y+1/2, x, z+3/4'
12 '-y+1/2, x+1/2, -z+1/2'
13 'x+1/2, -y, -z+3/4'
14 '-x+1/2, -y+1/2, z+1/2'
15 '-x+1/2, y, -z+3/4'
16 'x+1/2, y+1/2, z+1/2'
loop_
_atom_type_symbol
_atom_type_oxidation_number
Cs1+ 1
Mo6+ 6
Ga3+ 3
Li1+ 1
O2- -2
loop_
_atom_site_label
_atom_site_type_symbol
_atom_site_symmetry_multiplicity
_atom_site_Wyckoff_symbol
_atom_site_fract_x
_atom_site_fract_y
_atom_site_fract_z
_atom_site_B_iso_or_equiv
_atom_site_occupancy
_atom_site_attached_hydrogens
Cs1 Cs1+ 4 a 0 0 0 0.0251(8) 1. 0
Cs2 Cs1+ 8 d 0.36463(2) 0.25 0.125 0.02487(6) 1. 0
Mo1 Mo6+ 16 e 0.09718(2) 0.15077(2) 0.27833(2) 0.01594(5) 1. 0
Ga1 Ga3+ 4 b 0 0 0.5 0.01613(11) 1. 0
Li1 Li1+ 8 d -0.1242(6) 0.25 0.125 0.0252(15) 1. 0
O1 O2- 16 e 0.08881(17) 0.08363(18) 0.41413(16) 0.0268(4) 1. 0
O2 O2- 16 e -0.03114(15) 0.15966(18) 0.21655(17) 0.0280(5) 1. 0
O3 O2- 16 e 0.17987(17) 0.07168(17) 0.19588(18) 0.0279(5) 1. 0
O4 O2- 16 e 0.15791(18) 0.27967(16) 0.28879(16) 0.0279(5) 1. 0
#End of TTdata_158777-ICSD