
#(C) 2018 by FIZ Karlsruhe - Leibniz Institute for Information Infrastructure.  All rights reserved.
data_158775-ICSD
_database_code_ICSD 158775
_audit_creation_date 2008-08-01
_audit_update_record 2015-02-01
_chemical_name_systematic
'Potassium lithium manganese tetraoxomolybdate (3.07/0.93/4/6)'
_chemical_formula_structural 'K3.07 Li0.93 Mn4 (Mo O4)6'
_chemical_formula_sum 'K3.07 Li0.93 Mn4 Mo6 O24'
_chemical_name_structure_type (K,Li)4Mn4(MoO4)6
_exptl_crystal_density_diffrn 3.53
_publ_section_title

;
New families of lithium-containing triple molybdates and the stabilizing role
of lithium in their structure formulation
;
loop_
_citation_id
_citation_journal_full
_citation_year
_citation_journal_volume
_citation_page_first
_citation_page_last
_citation_journal_id_ASTM
primary 'Doklady Akademii Nauk' 2007 416 60 65 DAKNEQ
loop_
_publ_author_name
'Solodovnikov, S.F.'
'Khaikina, E.G.'
'Solodovnikova, Z.A.'
'Kadyrova, Yu. M.'
'Khal'baeva, K.M. (Khalbaeva, K.M.)'
'Zolotova, E.S.'
_cell_length_a 14.5896(3)
_cell_length_b 14.5896(3)
_cell_length_c 19.9773(8)
_cell_angle_alpha 90.
_cell_angle_beta 90.
_cell_angle_gamma 120.
_cell_volume 3682.6
_cell_formula_units_Z 6
_symmetry_space_group_name_H-M 'R -3 c H'
_symmetry_Int_Tables_number 167
_refine_ls_R_factor_all 0.0306
loop_
_symmetry_equiv_pos_site_id
_symmetry_equiv_pos_as_xyz
1 'x-y, -y, -z+1/2'
2 '-x, -x+y, -z+1/2'
3 'y, x, -z+1/2'
4 'x-y, x, -z'
5 'y, -x+y, -z'
6 '-x, -y, -z'
7 '-x+y, y, z+1/2'
8 'x, x-y, z+1/2'
9 '-y, -x, z+1/2'
10 '-x+y, -x, z'
11 '-y, x-y, z'
12 'x, y, z'
13 'x-y+2/3, -y+1/3, -z+5/6'
14 '-x+2/3, -x+y+1/3, -z+5/6'
15 'y+2/3, x+1/3, -z+5/6'
16 'x-y+2/3, x+1/3, -z+1/3'
17 'y+2/3, -x+y+1/3, -z+1/3'
18 '-x+2/3, -y+1/3, -z+1/3'
19 '-x+y+2/3, y+1/3, z+5/6'
20 'x+2/3, x-y+1/3, z+5/6'
21 '-y+2/3, -x+1/3, z+5/6'
22 '-x+y+2/3, -x+1/3, z+1/3'
23 '-y+2/3, x-y+1/3, z+1/3'
24 'x+2/3, y+1/3, z+1/3'
25 'x-y+1/3, -y+2/3, -z+1/6'
26 '-x+1/3, -x+y+2/3, -z+1/6'
27 'y+1/3, x+2/3, -z+1/6'
28 'x-y+1/3, x+2/3, -z+2/3'
29 'y+1/3, -x+y+2/3, -z+2/3'
30 '-x+1/3, -y+2/3, -z+2/3'
31 '-x+y+1/3, y+2/3, z+1/6'
32 'x+1/3, x-y+2/3, z+1/6'
33 '-y+1/3, -x+2/3, z+1/6'
34 '-x+y+1/3, -x+2/3, z+2/3'
35 '-y+1/3, x-y+2/3, z+2/3'
36 'x+1/3, y+2/3, z+2/3'
loop_
_atom_type_symbol
_atom_type_oxidation_number
Mo6+ 6
K1+ 1
Mn2+ 2
K1+ 1
Li1+ 1
Mn2+ 2
O2- -2
loop_
_atom_site_label
_atom_site_type_symbol
_atom_site_symmetry_multiplicity
_atom_site_Wyckoff_symbol
_atom_site_fract_x
_atom_site_fract_y
_atom_site_fract_z
_atom_site_B_iso_or_equiv
_atom_site_occupancy
_atom_site_attached_hydrogens
Mo1 Mo6+ 36 f 0.51398(2) 0.67478(2) 0.02521(1) 0.0169(1) 1. 0
K1 K1+ 36 f 0.7553(2) 0.7464(2) -0.0559(1) 0.0337(4) 0.5 0
Mn1 Mn2+ 6 b 0 0 0.5 0.0276(3) 0.933(4) 0
K2 K1+ 6 b 0 0 0.5 0.0276(3) 0.067(4) 0
Li1 Li1+ 6 a 0 0 0.25 0.040(3) 0.933(4) 0
Mn2 Mn2+ 6 a 0 0 0.25 0.040(3) 0.067(4) 0
Mn3 Mn2+ 18 e 0.78577(4) 0 0.25 0.0139(2) 1. 0
O1 O2- 36 f 0.4016(2) 0.5971(2) -0.0249(1) 0.0195(5) 1. 0
O2 O2- 36 f 0.5958(2) 0.8020(2) -0.0097(1) 0.0243(5) 1. 0
O3 O2- 36 f 0.5904(3) 0.6127(2) 0.0278(2) 0.0389(8) 1. 0
O4 O2- 36 f 0.4717(3) 0.6858(3) 0.1057(2) 0.0428(9) 1. 0
#End of TTdata_158775-ICSD