
#(C) 2018 by FIZ Karlsruhe - Leibniz Institute for Information Infrastructure.  All rights reserved.
data_159792-ICSD
_database_code_ICSD 159792
_audit_creation_date 2008-08-01
_chemical_name_systematic 'Lithium cobalt oxide (0.5/1/2)'
_chemical_formula_structural 'Li0.5 (Co O2)'
_chemical_formula_sum 'Co1 Li0.5 O2'
_exptl_crystal_density_diffrn 4.78
_cell_measurement_temperature 296.
_publ_section_title

;
Single-crystal synthesis, structure refinement and electrical properties of
Li0.5 Co O2
;
loop_
_citation_id
_citation_journal_full
_citation_year
_citation_journal_volume
_citation_page_first
_citation_page_last
_citation_journal_id_ASTM
primary 'Journal of Physics: Condensed Matter' 2007 19 436202-1 436202-12 JCOMEL
loop_
_publ_author_name
'Takahashi, Y.'
'Kijima, N.'
'Tokiwa, K.'
'Watanabe, T.'
'Akimoto, J.'
_cell_length_a 4.865(3)
_cell_length_b 2.809(3)
_cell_length_c 5.063(3)
_cell_angle_alpha 90.
_cell_angle_beta 108.68(5)
_cell_angle_gamma 90.
_cell_volume 65.55
_cell_formula_units_Z 2
_symmetry_space_group_name_H-M 'P 1 2/m 1'
_symmetry_Int_Tables_number 10
_refine_ls_R_factor_all 0.0307
loop_
_symmetry_equiv_pos_site_id
_symmetry_equiv_pos_as_xyz
1 '-x, y, -z'
2 '-x, -y, -z'
3 'x, -y, z'
4 'x, y, z'
loop_
_atom_type_symbol
_atom_type_oxidation_number
Li1+ 1
Co3+ 3.5
O2- -2
loop_
_atom_site_label
_atom_site_type_symbol
_atom_site_symmetry_multiplicity
_atom_site_Wyckoff_symbol
_atom_site_fract_x
_atom_site_fract_y
_atom_site_fract_z
_atom_site_B_iso_or_equiv
_atom_site_occupancy
_atom_site_attached_hydrogens
Li1 Li1+ 1 a 0 0 0 0.024(3) 1. 0
Co1 Co3+ 1 g 0.5 0 0.5 0.0051(2) 1. 0
Co2 Co3+ 1 f 0 0.5 0.5 0.0052(3) 1. 0
O1 O2- 2 m 0.2336(6) 0 0.7065(7) 0.0067(9) 1. 0
O2 O2- 2 n 0.7354(6) 0.5 0.7057(8) 0.0085(10) 1. 0
loop_
_atom_site_aniso_label
_atom_site_aniso_type_symbol
_atom_site_aniso_U_11
_atom_site_aniso_U_22
_atom_site_aniso_U_33
_atom_site_aniso_U_12
_atom_site_aniso_U_13
_atom_site_aniso_U_23
Li1 Li1+ 0.033(10) 0.028(9) 0.014(5) 0. 0.014(8) 0.
Co1 Co3+ 0.0054(4) 0.0048(3) 0.0056(6) 0. 0.0024(4) 0.
Co2 Co3+ 0.0027(3) 0.0034(3) 0.0098(7) 0. 0.0023(4) 0.
O1 O2- 0.0074(13) 0.0021(9) 0.009(2) 0. -0.0005(10) 0.
O2 O2- 0.0064(14) 0.0115(16) 0.010(3) 0. 0.0058(14) 0.
#End of TTdata_159792-ICSD