
#(C) 2018 by FIZ Karlsruhe - Leibniz Institute for Information Infrastructure.  All rights reserved.
data_160049-ICSD
_database_code_ICSD 160049
_audit_creation_date 2008-08-01
_chemical_name_systematic
'Lithium magnesium imide deuterioimide (2/1/0.61/1.39) - alpha'
_chemical_formula_structural 'Li2 Mg (N H)0.606 (N D)1.394'
_chemical_formula_sum 'H0.606 D1.394 Li2 Mg1 N2'
_chemical_name_structure_type (Li,Mg)3(NH)2
_exptl_crystal_density_diffrn 1.82
_cell_measurement_temperature 293.
_publ_section_title

;
Crystal structure determination and reaction pathway of amide - hydride
mixtures
;
loop_
_citation_id
_citation_journal_full
_citation_year
_citation_journal_volume
_citation_page_first
_citation_page_last
_citation_journal_id_ASTM
primary 'Journal of Alloys and Compounds' 2008 454 233 244 JALCEU
loop_
_publ_author_name
'Rijssenbeek, J.'
'Gao, Y.'
'Hanson, J.'
'Huang Qingzhen'
'Jones, C.'
'Toby, B.'
_cell_length_a 9.7871(2)
_cell_length_b 4.9927(1)
_cell_length_c 5.2019(1)
_cell_angle_alpha 90.
_cell_angle_beta 90.
_cell_angle_gamma 90.
_cell_volume 254.19
_cell_formula_units_Z 4
_symmetry_space_group_name_H-M 'I b a 2'
_symmetry_Int_Tables_number 45
_refine_ls_R_factor_all 0.0297
loop_
_symmetry_equiv_pos_site_id
_symmetry_equiv_pos_as_xyz
1 'x, -y, z+1/2'
2 '-x, y, z+1/2'
3 '-x, -y, z'
4 'x, y, z'
5 'x+1/2, -y+1/2, z'
6 '-x+1/2, y+1/2, z'
7 '-x+1/2, -y+1/2, z+1/2'
8 'x+1/2, y+1/2, z+1/2'
loop_
_atom_type_symbol
_atom_type_oxidation_number
N3- -3
Li1+ 1
Mg2+ 2
Li1+ 1
Mg2+ 2
H1+ 1
D1+ 1
loop_
_atom_site_label
_atom_site_type_symbol
_atom_site_symmetry_multiplicity
_atom_site_Wyckoff_symbol
_atom_site_fract_x
_atom_site_fract_y
_atom_site_fract_z
_atom_site_B_iso_or_equiv
_atom_site_occupancy
_atom_site_attached_hydrogens
N1 N3- 8 c 0.1357(1) 0.2785(2) 0 0.0197(4) 1. 0
Li1 Li1+ 4 b 0 0.5 0.25 0.0125 0.589(5) 0
Mg1 Mg2+ 4 b 0 0.5 0.25 0.0125 0.411(5) 0
Li2 Li1+ 8 c 0.25 0 0.75 0.0125 0.706(3) 0
Mg2 Mg2+ 8 c 0.25 0 0.75 0.0125 0.294(3) 0
H1 H1+ 8 c 0.0644(5) 0.1427(7) -0.0440(10) 0.0412(18) 0.303(8) 0
D1 D1+ 8 c 0.0644(5) 0.1427(7) -0.0440(10) 0.0412(18) 0.697(8) 0
#End of TTdata_160049-ICSD