
#(C) 2018 by FIZ Karlsruhe - Leibniz Institute for Information Infrastructure.  All rights reserved.
data_160779-ICSD
_database_code_ICSD 160779
_audit_creation_date 2009-02-01
_chemical_name_systematic 'Lithium titanium iron phosphate(V) (0.98/0.02/1/1)'
_chemical_formula_structural '(Li0.977 Ti0.023) Fe (P O4)'
_chemical_formula_sum 'Fe1 Li0.977 O4 P1 Ti0.023'
_chemical_name_structure_type Olivine-Mg2SiO4
_exptl_crystal_density_diffrn 3.62
_publ_section_title

;
Structure and performance of doped lithium iron phosphate by chemical
precipitation
;
loop_
_citation_id
_citation_journal_full
_citation_year
_citation_journal_volume
_citation_page_first
_citation_page_last
_citation_journal_id_ASTM
primary 'Rare metal materials and engineering (China)' 2007 36 954 958 XJCGEA
loop_
_publ_author_name
'Zhang Peixin'
'Wen Yanxuan'
'Liu Jianhong'
'Xu Qiming'
'Ren Xiangzhong'
'Zhang Qianling'
'Luo Zhongkuan'
_cell_length_a 10.3258(3)
_cell_length_b 6.0089(2)
_cell_length_c 4.6985(1)
_cell_angle_alpha 90.
_cell_angle_beta 90.
_cell_angle_gamma 90.
_cell_volume 291.53
_cell_formula_units_Z 4
_symmetry_space_group_name_H-M 'P n m a'
_symmetry_Int_Tables_number 62
_refine_ls_R_factor_all 0.0463
loop_
_symmetry_equiv_pos_site_id
_symmetry_equiv_pos_as_xyz
1 'x+1/2, y, -z+1/2'
2 'x, -y+1/2, z'
3 '-x+1/2, y+1/2, z+1/2'
4 '-x, -y, -z'
5 '-x+1/2, -y, z+1/2'
6 '-x, y+1/2, -z'
7 'x+1/2, -y+1/2, -z+1/2'
8 'x, y, z'
loop_
_atom_type_symbol
_atom_type_oxidation_number
Li1+ 1
Ti4+ 4
Fe1+ 1.93
P5+ 5
O2- -2
loop_
_atom_site_label
_atom_site_type_symbol
_atom_site_symmetry_multiplicity
_atom_site_Wyckoff_symbol
_atom_site_fract_x
_atom_site_fract_y
_atom_site_fract_z
_atom_site_B_iso_or_equiv
_atom_site_occupancy
_atom_site_attached_hydrogens
Li1 Li1+ 4 a 0 0 0 0.35 0.977 0
Ti1 Ti4+ 4 a 0 0 0 0.38 0.023 0
Fe1 Fe1+ 4 c 0.2825(5) 0.25 0.9735(4) 0.16 1. 0
P1 P5+ 4 c 0.0941(6) 0.25 0.4181(5) 0.17 1. 0
O1 O2- 4 c 0.0966(5) 0.25 0.7422(5) 0.17 1. 0
O2 O2- 4 c 0.4572(6) 0.25 0.2048(3) 0.13 1. 0
O3 O2- 8 d 0.1669(4) 0.0472(6) 0.2844(6) 0.13 1. 0
#End of TTdata_160779-ICSD