
#(C) 2018 by FIZ Karlsruhe - Leibniz Institute for Information Infrastructure.  All rights reserved.
data_160719-ICSD
_database_code_ICSD 160719
_audit_creation_date 2009-02-01
_chemical_name_systematic 'Lithium cobalt oxide (0.51/1/2)'
_chemical_formula_structural 'Li0.51 (Co O2)'
_chemical_formula_sum 'Co1 Li0.51 O2'
_exptl_crystal_density_diffrn 4.77
_cell_measurement_temperature 295.
_publ_section_title
'Magnetism and structure of Lix Co O2 and comparison to Nax Co O2'
loop_
_citation_id
_citation_journal_full
_citation_year
_citation_journal_volume
_citation_page_first
_citation_page_last
_citation_journal_id_ASTM
primary 'Physical Review, Serie 3. B - Condensed Matter (18,1978-)' 2008 77
075119-1 075119-12 PRBMDO
loop_
_publ_author_name
'Hertz, J.T.'
'Huang, Q.'
'McQueen, T.'
'Klimczuk, T.'
'Bos, J.W.G.'
'Viciu, L.'
'Cava, R.J.'
_cell_length_a 4.8645(1)
_cell_length_b 2.80964(7)
_cell_length_c 5.0551(1)
_cell_angle_alpha 90.
_cell_angle_beta 107.908(1)
_cell_angle_gamma 90.
_cell_volume 65.74
_cell_formula_units_Z 2
_symmetry_space_group_name_H-M 'C 1 2/m 1'
_symmetry_Int_Tables_number 12
_refine_ls_R_factor_all 0.0332
loop_
_symmetry_equiv_pos_site_id
_symmetry_equiv_pos_as_xyz
1 '-x, y, -z'
2 '-x, -y, -z'
3 'x, -y, z'
4 'x, y, z'
5 '-x+1/2, y+1/2, -z'
6 '-x+1/2, -y+1/2, -z'
7 'x+1/2, -y+1/2, z'
8 'x+1/2, y+1/2, z'
loop_
_atom_type_symbol
_atom_type_oxidation_number
Li1+ 1
Co3+ 3.49
O2- -2
loop_
_atom_site_label
_atom_site_type_symbol
_atom_site_symmetry_multiplicity
_atom_site_Wyckoff_symbol
_atom_site_fract_x
_atom_site_fract_y
_atom_site_fract_z
_atom_site_B_iso_or_equiv
_atom_site_occupancy
_atom_site_attached_hydrogens
Li1 Li1+ 4 h 0 0.582(3) 0.5 0.018(3) 0.255 0
Co1 Co3+ 2 a 0 0 0 . 1. 0
O1 O2- 4 i 0.7312(2) 0 0.2042(2) . 1. 0
loop_
_atom_site_aniso_label
_atom_site_aniso_type_symbol
_atom_site_aniso_U_11
_atom_site_aniso_U_22
_atom_site_aniso_U_33
_atom_site_aniso_U_12
_atom_site_aniso_U_13
_atom_site_aniso_U_23
Co1 Co3+ 0.006(1) 0.011(1) 0.019(2) 0. 0.004(1) 0.
O1 O2- 0.0093(6) 0.012(5) 0.0197(6) 0. 0.0058(4) 0.
#End of TTdata_160719-ICSD