
#(C) 2018 by FIZ Karlsruhe - Leibniz Institute for Information Infrastructure.  All rights reserved.
data_160966-ICSD
_database_code_ICSD 160966
_audit_creation_date 2009-02-01
_chemical_name_systematic 'Lithium manganese nickel oxide (0.99/1.54/0.46/4)'
_chemical_formula_structural 'Li0.99 (Mn1.541 Ni0.46) O4'
_chemical_formula_sum 'Li0.99 Mn1.541 Ni0.46 O4'
_chemical_name_structure_type Spinel-LiFe5O8
_exptl_crystal_density_diffrn 4.53
_cell_measurement_temperature 293.
_publ_section_title
'Oxygen nonstoichiometry and phase transitions in Li Mn1.5 Ni0.5 O4-d'
loop_
_citation_id
_citation_journal_full
_citation_year
_citation_journal_volume
_citation_page_first
_citation_page_last
_citation_journal_id_ASTM
primary 'Journal of the Electrochemical Society' 2008 155 A282 A291 JESOAN
loop_
_publ_author_name
'Pasero, D.'
'Reeves, N.'
'Pralong, V.'
'West, A.R.'
_cell_length_a 8.12184(3)
_cell_length_b 8.12184(3)
_cell_length_c 8.12184(3)
_cell_angle_alpha 90.
_cell_angle_beta 90.
_cell_angle_gamma 90.
_cell_volume 535.75
_cell_formula_units_Z 8
_symmetry_space_group_name_H-M 'P 43 3 2'
_symmetry_Int_Tables_number 212
_refine_ls_R_factor_all 0.0284
loop_
_symmetry_equiv_pos_site_id
_symmetry_equiv_pos_as_xyz
1 'z+1/4, y+3/4, -x+3/4'
2 '-z+3/4, y+1/4, x+3/4'
3 'y+1/4, x+3/4, -z+3/4'
4 '-y+3/4, x+1/4, z+3/4'
5 'x+1/4, z+3/4, -y+3/4'
6 '-x+3/4, z+1/4, y+3/4'
7 'z+3/4, -y+3/4, x+1/4'
8 '-z+1/4, -y+1/4, -x+1/4'
9 'y+3/4, -x+3/4, z+1/4'
10 '-y+1/4, -x+1/4, -z+1/4'
11 'x+3/4, -z+3/4, y+1/4'
12 '-x+1/4, -z+1/4, -y+1/4'
13 '-y+1/2, -z, x+1/2'
14 '-y, z+1/2, -x+1/2'
15 'y+1/2, -z+1/2, -x'
16 'y, z, x'
17 'z+1/2, -x+1/2, -y'
18 '-z+1/2, -x, y+1/2'
19 '-z, x+1/2, -y+1/2'
20 'z, x, y'
21 '-x+1/2, -y, z+1/2'
22 '-x, y+1/2, -z+1/2'
23 'x+1/2, -y+1/2, -z'
24 'x, y, z'
loop_
_atom_type_symbol
_atom_type_oxidation_number
Li1+ 1
Mn3+ 3.5
Ni3+ 3.5
Mn3+ 3.5
O2- -2
loop_
_atom_site_label
_atom_site_type_symbol
_atom_site_symmetry_multiplicity
_atom_site_Wyckoff_symbol
_atom_site_fract_x
_atom_site_fract_y
_atom_site_fract_z
_atom_site_B_iso_or_equiv
_atom_site_occupancy
_atom_site_attached_hydrogens
Li1 Li1+ 8 c 0.003(1) 0.003(1) 0.003(1) 0.008(7) 0.99(8) 0
Mn1 Mn3+ 12 d 0.125 0.3795(9) -0.1295(9) 0.004(2) 0.997(6) 0
Ni1 Ni3+ 12 d 0.125 0.3795(9) -0.1295(9) 0.004(2) 0.003(6) 0
Ni2 Ni3+ 4 b 0.625 0.625 0.625 0.014(2) 0.91(1) 0
Mn2 Mn3+ 4 b 0.625 0.625 0.625 0.014(2) 0.09(1) 0
O1 O2- 8 c 0.3859(3) 0.3859(3) 0.3859(3) 0.009(2) 1.00(1) 0
O2 O2- 24 e 0.1482(3) -0.1423(3) 0.1247(4) 0.0126(8) 1.00(1) 0
#End of TTdata_160966-ICSD