
#(C) 2018 by FIZ Karlsruhe - Leibniz Institute for Information Infrastructure.  All rights reserved.
data_161500-ICSD
_database_code_ICSD 161500
_audit_creation_date 2009-02-01
_chemical_name_systematic 'Lithium gallium diarsenate(V)'
_chemical_formula_structural 'Li Ga (As2 O7)'
_chemical_formula_sum 'As2 Ga1 Li1 O7'
_chemical_name_structure_type LiFeAs2O7
_exptl_crystal_density_diffrn 4.54
_cell_measurement_temperature 293.
_publ_section_title

;
Gittinsite-type M(1+)-M(3+)-diarsenates (M(1+)= Li, Na; M(3+)= Al, Sc, Ga):
insights into an unexpected isotypy and crystal chemistry of diarsenates
;
loop_
_citation_id
_citation_journal_full
_citation_year
_citation_journal_volume
_citation_page_first
_citation_page_last
_citation_journal_id_ASTM
primary 'Mineralogical Magazine' 2007 71 249 263 MNLMBB
loop_
_publ_author_name
'Schwendtner, K.'
'Kolitsch, U.'
_cell_length_a 6.638(1)
_cell_length_b 8.181(2)
_cell_length_c 4.696(1)
_cell_angle_alpha 90.
_cell_angle_beta 104.01(3)
_cell_angle_gamma 90.
_cell_volume 247.43
_cell_formula_units_Z 2
_symmetry_space_group_name_H-M 'C 1 2 1'
_symmetry_Int_Tables_number 5
_refine_ls_R_factor_all 0.0157
loop_
_symmetry_equiv_pos_site_id
_symmetry_equiv_pos_as_xyz
1 '-x, y, -z'
2 'x, y, z'
3 '-x+1/2, y+1/2, -z'
4 'x+1/2, y+1/2, z'
loop_
_atom_type_symbol
_atom_type_oxidation_number
Li1+ 1
Ga3+ 3
As5+ 5
O2- -2
loop_
_atom_site_label
_atom_site_type_symbol
_atom_site_symmetry_multiplicity
_atom_site_Wyckoff_symbol
_atom_site_fract_x
_atom_site_fract_y
_atom_site_fract_z
_atom_site_B_iso_or_equiv
_atom_site_occupancy
_atom_site_attached_hydrogens
Li1 Li1+ 2 b 0 0.7497(14) 0.5 0.039(3) 1. 0
Ga1 Ga3+ 2 b 0 0.37576(5) 0.5 0.00457(10) 1. 0
As1 As5+ 4 c 0.21572(3) 0.03658(2) 0.90703(5) 0.00425(7) 1. 0
O1 O2- 2 a 0 0.9529(3) 0 0.0110(5) 1. 0
O2 O2- 4 c 0.3927(3) 0.0562(2) 0.2266(4) 0.0067(3) 1. 0
O3 O2- 4 c 0.1655(3) 0.2198(3) 0.7602(4) 0.0129(4) 1. 0
O4 O2- 4 c 0.2510(3) 0.8929(2) 0.6697(4) 0.0074(3) 1. 0
loop_
_atom_site_aniso_label
_atom_site_aniso_type_symbol
_atom_site_aniso_U_11
_atom_site_aniso_U_22
_atom_site_aniso_U_33
_atom_site_aniso_U_12
_atom_site_aniso_U_13
_atom_site_aniso_U_23
Li1 Li1+ 0.037(6) 0.019(5) 0.049(6) 0. -0.012(5) 0.
Ga1 Ga3+ 0.00516(17) 0.00490(17) 0.00348(15) 0. 0.00074(11) 0.
As1 As5+ 0.00440(11) 0.00494(11) 0.00327(10) 0.00027(9) 0.00069(7) 0.00037(8)
O1 O2- 0.0058(11) 0.0105(12) 0.0187(12) 0. 0.0072(9) 0.
O2 O2- 0.0080(7) 0.0061(9) 0.0041(6) 0.0006(7) -0.0020(5) 0.0005(6)
O3 O2- 0.0179(10) 0.0055(9) 0.0114(8) 0.0021(7) -0.0041(7) 0.0030(7)
O4 O2- 0.0081(7) 0.0075(8) 0.0076(7) -0.0012(6) 0.0038(6) -0.0032(6)
#End of TTdata_161500-ICSD