
#(C) 2018 by FIZ Karlsruhe - Leibniz Institute for Information Infrastructure.  All rights reserved.
data_162065-ICSD
_database_code_ICSD 162065
_audit_creation_date 2009-02-01
_chemical_name_systematic
'Lithium iron zirconium phosphate(V) (0.9/0.99/0.03/1)'
_chemical_formula_structural
'(Li0.891 Zr0.022) (Li0.004 Zr0.009 Fe0.987) (P O4)'
_chemical_formula_sum 'Fe0.987 Li0.895 O4 P1 Zr0.031'
_chemical_name_structure_type Olivine-Mg2SiO4
_exptl_crystal_density_diffrn 3.63
_publ_section_title 'Proof of supervalent doping in olivine Li Fe P O4'
loop_
_citation_id
_citation_journal_full
_citation_year
_citation_journal_volume
_citation_page_first
_citation_page_last
_citation_journal_id_ASTM
primary 'Chemistry of Materials' 2008 20 6313 6315 CMATEX
loop_
_publ_author_name
'Wagemaker, M.'
'Ellis, B.L.'
'Luetzenkirchen-Hecht, D.'
'Mulder, F.M.'
'Nazar, L.F.'
_cell_length_a 10.32421(13)
_cell_length_b 6.00449(7)
_cell_length_c 4.69830(6)
_cell_angle_alpha 90.
_cell_angle_beta 90.
_cell_angle_gamma 90.
_cell_volume 291.26
_cell_formula_units_Z 4
_symmetry_space_group_name_H-M 'P n m a'
_symmetry_Int_Tables_number 62
loop_
_symmetry_equiv_pos_site_id
_symmetry_equiv_pos_as_xyz
1 'x+1/2, y, -z+1/2'
2 'x, -y+1/2, z'
3 '-x+1/2, y+1/2, z+1/2'
4 '-x, -y, -z'
5 '-x+1/2, -y, z+1/2'
6 '-x, y+1/2, -z'
7 'x+1/2, -y+1/2, -z+1/2'
8 'x, y, z'
loop_
_atom_type_symbol
_atom_type_oxidation_number
Fe2+ 2
Zr4+ 4
Li1+ 1
Zr4+ 4
P5+ 5
O2- -2
loop_
_atom_site_label
_atom_site_type_symbol
_atom_site_symmetry_multiplicity
_atom_site_Wyckoff_symbol
_atom_site_fract_x
_atom_site_fract_y
_atom_site_fract_z
_atom_site_B_iso_or_equiv
_atom_site_occupancy
_atom_site_attached_hydrogens
Fe1 Fe2+ 4 c 0.28197(4) 0.25 0.97459(4) 0.00609 0.987(4) 0
Zr1 Zr4+ 4 c 0.28197(4) 0.25 0.97459(4) 0.005 0.0093(12) 0
Li1 Li1+ 4 c 0.28197(4) 0.25 0.97459(4) 0.016 0.0043(9) 0
Li2 Li1+ 4 a 0. 0. 0. 0.01647 0.891(8) 0
Zr2 Zr4+ 4 a 0. 0. 0. 0.005 0.0223(11) 0
P1 P5+ 4 c 0.09504(7) 0.25 0.41740(15) 0.00515 1. 0
O1 O2- 4 c 0.09792(8) 0.25 0.74243(16) 0.00865 1. 0
O2 O2- 4 c 0.45739(6) 0.25 0.20379(17) 0.0074 1. 0
O3 O2- 8 d 0.16572(6) 0.04744(8) 0.28499(10) 0.00774 1. 0
loop_
_atom_site_aniso_label
_atom_site_aniso_type_symbol
_atom_site_aniso_U_11
_atom_site_aniso_U_22
_atom_site_aniso_U_33
_atom_site_aniso_U_12
_atom_site_aniso_U_13
_atom_site_aniso_U_23
Fe1 Fe2+ 0.00526(12) 0.00466(12) 0.00836(13) 0. -0.00017(15) 0.
Li2 Li1+ 0.01948 0.01074 0.0192 -0.005 0.00036 -0.00005
P1 P5+ 0.00489(24) 0.00735(25) 0.00321(24) 0. 0.00049(23) 0.
O1 O2- 0.01093(27) 0.01108(27) 0.00392(25) 0. -0.00144(25) 0.
O2 O2- 0.00322(22) 0.01157(25) 0.00742(28) 0. -0.00079(23) 0.
O3 O2- 0.01032(16) 0.00485(14) 0.00804(17) 0.00348(17) 0.00140(17) 0.00120(15)
#End of TTdata_162065-ICSD