
#(C) 2018 by FIZ Karlsruhe - Leibniz Institute for Information Infrastructure.  All rights reserved.
data_162064-ICSD
_database_code_ICSD 162064
_audit_creation_date 2009-02-01
_audit_update_record 2013-02-01
_chemical_name_systematic 'Lithium iron phosphate(V)'
_chemical_formula_structural 'Li Fe (P O4)'
_chemical_formula_sum 'Fe1 Li1 O4 P1'
_exptl_crystal_density_diffrn 3.6
_publ_section_title 'Proof of supervalent doping in olivine Li Fe P O4'
loop_
_citation_id
_citation_journal_full
_citation_year
_citation_journal_volume
_citation_page_first
_citation_page_last
_citation_journal_id_ASTM
primary 'Chemistry of Materials' 2008 20 6313 6315 CMATEX
loop_
_publ_author_name
'Wagemaker, M.'
'Ellis, B.L.'
'Luetzenkirchen-Hecht, D.'
'Mulder, F.M.'
'Nazar, L.F.'
_cell_length_a 10.31817(7)
_cell_length_b 6.00373(5)
_cell_length_c 4.693682(34)
_cell_angle_alpha 90.
_cell_angle_beta 90.
_cell_angle_gamma 90.
_cell_volume 290.76
_cell_formula_units_Z 4
_symmetry_space_group_name_H-M 'P n m a'
_symmetry_Int_Tables_number 62
loop_
_symmetry_equiv_pos_site_id
_symmetry_equiv_pos_as_xyz
1 'x+1/2, y, -z+1/2'
2 'x, -y+1/2, z'
3 '-x+1/2, y+1/2, z+1/2'
4 '-x, -y, -z'
5 '-x+1/2, -y, z+1/2'
6 '-x, y+1/2, -z'
7 'x+1/2, -y+1/2, -z+1/2'
8 'x, y, z'
loop_
_atom_type_symbol
_atom_type_oxidation_number
Li1+ 1
Fe2+ 2
P5+ 5
O2- -2
Li1+ 1
loop_
_atom_site_label
_atom_site_type_symbol
_atom_site_symmetry_multiplicity
_atom_site_Wyckoff_symbol
_atom_site_fract_x
_atom_site_fract_y
_atom_site_fract_z
_atom_site_B_iso_or_equiv
_atom_site_occupancy
_atom_site_attached_hydrogens
Li1 Li1+ 4 a 0. 0. 0. 0.01647 1.001(4) 0
Fe1 Fe2+ 4 c 0.28219(3) 0.25 0.97469(3) 0.00501 0.999(1) 0
P1 P5+ 4 c 0.09489(6) 0.25 0.41781(12) 0.00351 1. 0
O1 O2- 4 c 0.09702(6) 0.25 0.74213(13) 0.00629 1. 0
O2 O2- 4 c 0.45717(5) 0.25 0.20549(13) 0.00596 1. 0
O3 O2- 8 d 0.16553(5) 0.04719(6) 0.28493(8) 0.00613 1. 0
Li2 Li1+ 4 c 0.28221(3) 0.25 0.97470(3) 0.015 0.001(1) 0
loop_
_atom_site_aniso_label
_atom_site_aniso_type_symbol
_atom_site_aniso_U_11
_atom_site_aniso_U_22
_atom_site_aniso_U_33
_atom_site_aniso_U_12
_atom_site_aniso_U_13
_atom_site_aniso_U_23
Li1 Li1+ 0.01949(23) 0.01074(20) 0.01921(22) -0.00521(14) -0.00005(21)
0.00036(1)
Fe1 Fe2+ 0.00562(10) 0.00399(9) 0.00541(10) 0. 0.00041(14) 0.
P1 P5+ 0.00376(20) 0.00293(19) 0.00385(20) 0. 0.00010(23) 0.
O1 O2- 0.00863(21) 0.00947(22) 0.00108(18) 0. -0.00070(21) 0.
O2 O2- 0.00133(18) 0.00915(21) 0.00741(24) 0. 0.00017(21) 0.
O3 O2- 0.00826(13) 0.00381(11) 0.00632(13) 0.00283(15) 0.00163(15) 0.00048(13)
#End of TTdata_162064-ICSD