
#(C) 2018 by FIZ Karlsruhe - Leibniz Institute for Information Infrastructure.  All rights reserved.
data_162944-ICSD
_database_code_ICSD 162944
_audit_creation_date 2009-08-01
_chemical_name_systematic 'Lithium iron(III) digermanate'
_chemical_formula_structural 'Li Fe (Ge2 O6)'
_chemical_formula_sum 'Fe1 Ge2 Li1 O6'
_chemical_name_structure_type Pyroxene-MgSiO3-LT
_exptl_crystal_density_diffrn 4.53
_cell_measurement_temperature 293.
_publ_section_title
'High-pressure phase transformation in Li Fe Ge2 O6 pyroxene'
loop_
_citation_id
_citation_journal_full
_citation_year
_citation_journal_volume
_citation_page_first
_citation_page_last
_citation_journal_id_ASTM
primary 'American Mineralogist' 2009 94 616 621 AMMIAY
loop_
_publ_author_name
'Nestola, F.'
'Redhammer, G.J.'
'Pamato, M.G.'
'Secco, L.'
'dal Negro, A.'
_cell_length_a 9.9043(7)
_cell_length_b 8.8298(5)
_cell_length_c 5.3804(4)
_cell_angle_alpha 90.
_cell_angle_beta 108.841(7)
_cell_angle_gamma 90.
_cell_volume 445.32
_cell_formula_units_Z 4
_symmetry_space_group_name_H-M 'P 1 21/c 1'
_symmetry_Int_Tables_number 14
_refine_ls_R_factor_all 0.0432
loop_
_symmetry_equiv_pos_site_id
_symmetry_equiv_pos_as_xyz
1 'x, -y+1/2, z+1/2'
2 '-x, -y, -z'
3 '-x, y+1/2, -z+1/2'
4 'x, y, z'
loop_
_atom_type_symbol
_atom_type_oxidation_number
Ge4+ 4
O2- -2
Ge4+ 4
O2- -2
Fe3+ 3
Li1+ 1
loop_
_atom_site_label
_atom_site_type_symbol
_atom_site_symmetry_multiplicity
_atom_site_Wyckoff_symbol
_atom_site_fract_x
_atom_site_fract_y
_atom_site_fract_z
_atom_site_B_iso_or_equiv
_atom_site_occupancy
_atom_site_attached_hydrogens
Ge1 Ge4+ 4 e 0.04580(4) 0.34195(4) 0.27975(7) 0.00550(11) 1 0
O1 O2- 4 e 0.8591(3) 0.3320(3) 0.1758(5) 0.0068(4) 1 0
O2 O2- 4 e 0.1146(3) 0.5210(3) 0.2863(6) 0.0120(5) 1 0
O3 O2- 4 e 0.1171(3) 0.2902(3) 0.6133(5) 0.0096(5) 1 0
Ge2 Ge4+ 4 e 0.55212(4) 0.83963(4) 0.23053(7) 0.00540(11) 1 0
O4 O2- 4 e 0.3646(3) 0.8319(3) 0.1074(5) 0.0065(4) 1 0
O5 O2- 4 e 0.6284(3) 1.0043(3) 0.3829(5) 0.0091(4) 1 0
O6 O2- 4 e 0.6124(3) 0.6906(3) 0.4591(5) 0.0078(4) 1 0
Fe1 Fe3+ 4 e 0.25083(5) 0.65070(6) 0.21476(10) 0.00532(15) 0.999(4) 0
Li1 Li1+ 4 e 0.2583(8) 0.0136(10) 0.2213(14) 0.016(2) 1.00(5) 0
loop_
_atom_site_aniso_label
_atom_site_aniso_type_symbol
_atom_site_aniso_U_11
_atom_site_aniso_U_22
_atom_site_aniso_U_33
_atom_site_aniso_U_12
_atom_site_aniso_U_13
_atom_site_aniso_U_23
Ge1 Ge4+ 0.00432(19) 0.00492(19) 0.00664(15) -0.00099(11) 0.00091(12)
-0.00025(11)
O1 O2- 0.0045(11) 0.0068(11) 0.0079(9) 0.0012(8) 0.0005(8) 0.0017(8)
O2 O2- 0.0128(13) 0.0062(12) 0.0179(12) -0.0052(9) 0.0063(10) -0.0023(9)
O3 O2- 0.0087(12) 0.0103(12) 0.0102(10) -0.0029(9) 0.0037(9) 0.0016(9)
Ge2 Ge4+ 0.00447(19) 0.00452(18) 0.00653(15) -0.00082(11) 0.00086(12)
-0.00025(11)
O4 O2- 0.0042(10) 0.0070(11) 0.0073(9) -0.0008(8) 0.0005(8) 0.0002(8)
O5 O2- 0.0110(12) 0.0071(11) 0.0098(9) -0.0046(9) 0.0044(9) -0.0036(8)
O6 O2- 0.0073(11) 0.0083(11) 0.0083(9) 0.0014(8) 0.0033(8) 0.0033(8)
Fe1 Fe3+ 0.0047(3) 0.0041(2) 0.00651(19) 0.00000(15) 0.00079(16) 0.00011(15)
Li1 Li1+ 0.011(4) 0.019(4) 0.013(3) 0.004(3) -0.002(3) -0.001(3)
#End of TTdata_162944-ICSD