
#(C) 2018 by FIZ Karlsruhe - Leibniz Institute for Information Infrastructure.  All rights reserved.
data_163706-ICSD
_database_code_ICSD 163706
_audit_creation_date 2009-08-01
_chemical_name_systematic 'Trilithium dibarium trigadolinium octakis(tungstate)'
_chemical_formula_structural 'Li3 Ba2 Gd3 (W O4)8'
_chemical_formula_sum 'Ba2 Gd3 Li3 O32 W8'
_chemical_name_structure_type Li3Ba2Tm3(MoO4)8
_exptl_crystal_density_diffrn 7.15
_cell_measurement_temperature 293.
_publ_section_title

;
Growth, structure and spectroscopic characterization of a new laser crystal
Nd3+: Li3 Ba2 Gd3 (W O4)8
;
loop_
_citation_id
_citation_journal_full
_citation_year
_citation_journal_volume
_citation_page_first
_citation_page_last
_citation_journal_id_ASTM
primary 'Journal of Alloys and Compounds' 2009 478 484 488 JALCEU
loop_
_publ_author_name
'Li Hao'
'Zhang Lizhen'
'Wang Guofu'
_cell_length_a 5.217(3)
_cell_length_b 12.763(9)
_cell_length_c 19.204(13)
_cell_angle_alpha 90.
_cell_angle_beta 91.928(17)
_cell_angle_gamma 90.
_cell_volume 1277.97
_cell_formula_units_Z 2
_symmetry_space_group_name_H-M 'C 1 2/c 1'
_symmetry_Int_Tables_number 15
_refine_ls_R_factor_all 0.045
loop_
_symmetry_equiv_pos_site_id
_symmetry_equiv_pos_as_xyz
1 'x, -y, z+1/2'
2 '-x, -y, -z'
3 '-x, y, -z+1/2'
4 'x, y, z'
5 'x+1/2, -y+1/2, z+1/2'
6 '-x+1/2, -y+1/2, -z'
7 '-x+1/2, y+1/2, -z+1/2'
8 'x+1/2, y+1/2, z'
loop_
_atom_type_symbol
_atom_type_oxidation_number
W6+ 6
Gd3+ 3
Li1+ 1
Ba2+ 2
Li1+ 1
O2- -2
loop_
_atom_site_label
_atom_site_type_symbol
_atom_site_symmetry_multiplicity
_atom_site_Wyckoff_symbol
_atom_site_fract_x
_atom_site_fract_y
_atom_site_fract_z
_atom_site_B_iso_or_equiv
_atom_site_occupancy
_atom_site_attached_hydrogens
W1 W6+ 8 f -0.0119 0.4395 0.4057 0.0044(1) 1. 0
W2 W6+ 8 f -0.4975 0.2429 0.3492 0.0043(1) 1. 0
Gd1 Gd3+ 8 f 0.0023 0.1467 0.4676 0.0027(1) 0.75 0
Li1 Li1+ 8 f 0.0023 0.1467 0.4676 0.0027(1) 0.25 0
Ba1 Ba2+ 4 e 0. 0.032 0.25 0.0066(1) 1. 0
Li2 Li1+ 4 e 0. 0.3224(9) 0.25 0.0024(3) 1. 0
O1 O2- 8 f 0.1316(5) 0.4150(2) 0.3257(1) 0.0095(6) 1. 0
O2 O2- 8 f -0.6640(6) 0.2619(2) 0.4294(1) 0.0099(8) 1. 0
O3 O2- 8 f -0.2311(5) 0.5448(2) 0.3937(1) 0.0086(8) 1. 0
O4 O2- 8 f -0.2484(5) 0.1479(2) 0.3627(1) 0.0075(6) 1. 0
O5 O2- 8 f -0.1566(6) 0.3312(2) 0.4527(1) 0.0094(6) 1. 0
O6 O2- 8 f -0.3494(5) 0.3594(2) 0.3211(1) 0.0088(8) 1. 0
O7 O2- 8 f 0.2494(5) 0.4829(2) 0.4621(1) 0.0097(6) 1. 0
O8 O2- 8 f -0.7295(5) 0.2036(2) 0.2855(1) 0.0085(6) 1. 0
#End of TTdata_163706-ICSD