
#(C) 2018 by FIZ Karlsruhe - Leibniz Institute for Information Infrastructure.  All rights reserved.
data_163914-ICSD
_database_code_ICSD 163914
_audit_creation_date 2009-08-01
_audit_update_record 2013-08-01
_chemical_name_systematic 'Heptalithium trilanthanum ditin(IV) oxide'
_chemical_formula_structural 'Li7 La3 Sn2 O12'
_chemical_formula_sum 'La3 Li7 O12 Sn2'
_chemical_name_structure_type Li7La3Sn2O12
_exptl_crystal_density_diffrn 5.5
_cell_measurement_temperature 293.
_publ_section_title

;
Cation ordering in Li containing garnets: synthesis and structural
characterisation of the tetragonal system, Li7 La3 Sn2 O12
;
loop_
_citation_id
_citation_journal_full
_citation_year
_citation_journal_volume
_citation_page_first
_citation_page_last
_citation_journal_id_ASTM
primary 'Dalton Transactions' 2009 2009 5177 5181 DTARAF
loop_
_publ_author_name
'Percival, J.'
'Kendrick, E.'
'Smith, R.I.'
'Slater, P.R.'
_cell_length_a 13.1206(1)
_cell_length_b 13.1206(1)
_cell_length_c 12.5467(1)
_cell_angle_alpha 90.
_cell_angle_beta 90.
_cell_angle_gamma 90.
_cell_volume 2159.92
_cell_formula_units_Z 8
_symmetry_space_group_name_H-M 'I 41/a c d Z'
_symmetry_Int_Tables_number 142
_refine_ls_R_factor_all 0.0152
loop_
_symmetry_equiv_pos_site_id
_symmetry_equiv_pos_as_xyz
1 'y+1/4, x+3/4, -z+3/4'
2 '-y+3/4, x+3/4, -z+1/4'
3 'x, y+1/2, -z'
4 '-x, y+1/2, -z+1/2'
5 '-y+3/4, -x+1/4, z+1/4'
6 'y+1/4, -x+1/4, z+3/4'
7 '-x, -y+1/2, z'
8 'x, -y+1/2, z+1/2'
9 'y+1/4, -x+3/4, -z+1/4'
10 '-y+3/4, -x+3/4, -z+3/4'
11 'x, -y, -z+1/2'
12 '-x, -y, -z'
13 '-y+3/4, x+1/4, z+3/4'
14 'y+1/4, x+1/4, z+1/4'
15 '-x, y, z+1/2'
16 'x, y, z'
17 'y+3/4, x+1/4, -z+1/4'
18 '-y+1/4, x+1/4, -z+3/4'
19 'x+1/2, y, -z+1/2'
20 '-x+1/2, y, -z'
21 '-y+1/4, -x+3/4, z+3/4'
22 'y+3/4, -x+3/4, z+1/4'
23 '-x+1/2, -y, z+1/2'
24 'x+1/2, -y, z'
25 'y+3/4, -x+1/4, -z+3/4'
26 '-y+1/4, -x+1/4, -z+1/4'
27 'x+1/2, -y+1/2, -z'
28 '-x+1/2, -y+1/2, -z+1/2'
29 '-y+1/4, x+3/4, z+1/4'
30 'y+3/4, x+3/4, z+3/4'
31 '-x+1/2, y+1/2, z'
32 'x+1/2, y+1/2, z+1/2'
loop_
_atom_type_symbol
_atom_type_oxidation_number
La3+ 3
Sn4+ 4
Li1+ 1
O2- -2
loop_
_atom_site_label
_atom_site_type_symbol
_atom_site_symmetry_multiplicity
_atom_site_Wyckoff_symbol
_atom_site_fract_x
_atom_site_fract_y
_atom_site_fract_z
_atom_site_B_iso_or_equiv
_atom_site_occupancy
_atom_site_attached_hydrogens
La1 La3+ 16 e 0.12637(8) 0 0.25 0.0036(2) 1. 0
La2 La3+ 8 b 0 0.25 0.125 0.0026(2) 1. 0
Sn1 Sn4+ 16 c 0 0 0 0.0015(2) 1. 0
Li1 Li1+ 8 a 0 0.25 0.375 0.0028(8) 1. 0
Li2 Li1+ 32 g 0.1617(3) -0.1693(2) 0.0569(2) 0.016(1) 1. 0
Li3 Li1+ 16 f 0.3231(3) -0.0731(2) 0.125 0.013(1) 1. 0
O1 O2- 32 g 0.27701(7) 0.10167(8) 0.19945(8) 0.0040(2) 1. 0
O2 O2- 32 g 0.19513(8) 0.28353(8) 0.09770(8) 0.0048(2) 1. 0
O3 O2- 32 g 0.10406(8) 0.19856(8) 0.28491(8) 0.0059(2) 1. 0
#End of TTdata_163914-ICSD