
#(C) 2018 by FIZ Karlsruhe - Leibniz Institute for Information Infrastructure.  All rights reserved.
data_16408-ICSD
_database_code_ICSD 16408
_audit_creation_date 1984-09-04
_audit_update_record 1985-04-25
_chemical_name_systematic
'Catena-tris(sulfur(IV)-oxide)lithium tetrachloroaluminate'
_chemical_formula_structural 'Li Al Cl4 (S O2)3'
_chemical_formula_sum 'Al1 Cl4 Li1 O6 S3'
_exptl_crystal_density_diffrn 1.9
_publ_section_title 'Die Kristallstruktur von Li Al Cl4 (S O2)3'
loop_
_citation_id
_citation_journal_full
_citation_year
_citation_journal_volume
_citation_page_first
_citation_page_last
_citation_journal_id_ASTM
primary 'Zeitschrift fuer Anorganische und Allgemeine Chemie (1950) (DE)' 1980
469 94 100 ZAACAB
loop_
_publ_author_name
'Simon, A.'
'Peters, K.'
'Peters, E.M.'
_cell_length_a 9.516(5)
_cell_length_b 13.271(9)
_cell_length_c 10.174(8)
_cell_angle_alpha 90.
_cell_angle_beta 90.
_cell_angle_gamma 90.
_cell_volume 1284.84
_cell_formula_units_Z 4
_symmetry_space_group_name_H-M 'P n a m'
_symmetry_Int_Tables_number 62
_refine_ls_R_factor_all 0.049
loop_
_symmetry_equiv_pos_site_id
_symmetry_equiv_pos_as_xyz
1 'x+1/2, -y+1/2, z'
2 'x, y, -z+1/2'
3 '-x+1/2, y+1/2, z+1/2'
4 '-x, -y, -z'
5 '-x+1/2, y+1/2, -z'
6 '-x, -y, z+1/2'
7 'x+1/2, -y+1/2, -z+1/2'
8 'x, y, z'
loop_
_atom_type_symbol
_atom_type_oxidation_number
Al3+ 3
Cl1- -1
S4+ 4
O2- -2
Li1+ 1
loop_
_atom_site_label
_atom_site_type_symbol
_atom_site_symmetry_multiplicity
_atom_site_Wyckoff_symbol
_atom_site_fract_x
_atom_site_fract_y
_atom_site_fract_z
_atom_site_B_iso_or_equiv
_atom_site_occupancy
_atom_site_attached_hydrogens
Al1 Al3+ 4 c 0.7562(2) 0.1307(2) 0.25 . 1. 0
Cl1 Cl1- 8 d 0.8730(2) 0.0919(1) 0.4207(1) . 1. 0
Cl2 Cl1- 4 c 0.2081(3) 0.2132(2) 0.25 . 1. 0
Cl3 Cl1- 4 c 0.5636(2) 0.0465(2) 0.25 . 1. 0
S1 S4+ 4 c 0.8753(2) 0.0621(1) 0.75 . 1. 0
S2 S4+ 8 d 0.3742(1) 0.1492(1) 0.5393(3) . 1. 0
O1 O2- 8 d 0.5070(4) 0.1798(3) 0.5905(4) . 1. 0
O2 O2- 8 d 0.2495(4) 0.1822(3) 0.6045(4) . 1. 0
O3 O2- 4 c 0.7413(5) 0.1080(5) 0.75 . 1. 0
O4 O2- 4 c 0.9947(5) 0.1267(4) 0.75 . 1. 0
Li1 Li1+ 4 c 0.1242(14) 0.2563(11) 0.75 . 1. 0
loop_
_atom_site_aniso_label
_atom_site_aniso_type_symbol
_atom_site_aniso_B_11
_atom_site_aniso_B_22
_atom_site_aniso_B_33
_atom_site_aniso_B_12
_atom_site_aniso_B_13
_atom_site_aniso_B_23
Al1 Al3+ 4.18(9) 3.28(8) 3.04(8) 0.43(7) 0 0
Cl1 Cl1- 6.47(8) 6.25(8) 3.09(5) 1.39(6) -.59(6) -.11(5)
Cl2 Cl1- 7.92(14) 3.29(7) 5.80(11) -.77(9) 0 0
Cl3 Cl1- 4.79(9) 4.71(9) 6.42(12) -.43(8) 0 0
S1 S4+ 3.75(7) 3.40(7) 4.95(9) -.08(6) 0 0
S2 S4+ 3.97(5) 5.45(7) 3.51(5) 0.47(5) -.05(5) -.71(5)
O1 O2- 5.16(18) 5.16(18) 4.79(19) -.14(16) -.08(17) -.49(16)
O2 O2- 4.33(16) 5.61(19) 4.58(18) 0.78(15) 0.80(15) 0.20(16)
O3 O2- 3.87(22) 5.51(27) 4.30(24) 0.62(21) 0 0
O4 O2- 3.49(20) 4.83(25) 4.57(24) -.75(19) 0 0
Li1 Li1+ 3.64(51) 4.47(57) 5.58(66) -.42(45) 0 0
#End of TTdata_16408-ICSD