
#(C) 2018 by FIZ Karlsruhe - Leibniz Institute for Information Infrastructure.  All rights reserved.
data_164145-ICSD
_database_code_ICSD 164145
_audit_creation_date 2010-02-01
_chemical_name_systematic 'Hexalithium neodymium tris(borate)'
_chemical_formula_structural 'Li6 Nd (B O3)3'
_chemical_formula_sum 'B3 Li6 Nd1 O9'
_chemical_name_structure_type Li6HoB3O9
_exptl_crystal_density_diffrn 3.06
_cell_measurement_temperature 293.
_publ_section_title

;
Crystal structure determination of new compounds Li6 M B3 O9 (M= Nd, Sm, Eu,
Tm, Er)
;
loop_
_citation_id
_citation_journal_full
_citation_year
_citation_journal_volume
_citation_page_first
_citation_page_last
_citation_journal_id_ASTM
primary 'Powder Diffraction' 2008 23 3 9 PODIE2
loop_
_publ_author_name
'Lou, Y.F.'
'Wang, W.-Y.'
'Cai, G.-M.'
'Sun, Y.P.'
'Wang, C.'
_cell_length_a 7.2712(4)
_cell_length_b 16.6268(9)
_cell_length_c 6.7484(4)
_cell_angle_alpha 90.
_cell_angle_beta 105.411(1)
_cell_angle_gamma 90.
_cell_volume 786.53
_cell_formula_units_Z 4
_symmetry_space_group_name_H-M 'P 1 21/c 1'
_symmetry_Int_Tables_number 14
_refine_ls_R_factor_all 0.021
loop_
_symmetry_equiv_pos_site_id
_symmetry_equiv_pos_as_xyz
1 'x, -y+1/2, z+1/2'
2 '-x, -y, -z'
3 '-x, y+1/2, -z+1/2'
4 'x, y, z'
loop_
_atom_type_symbol
_atom_type_oxidation_number
Nd3+ 3
O2- -2
B3+ 3
Li1+ 1
loop_
_atom_site_label
_atom_site_type_symbol
_atom_site_symmetry_multiplicity
_atom_site_Wyckoff_symbol
_atom_site_fract_x
_atom_site_fract_y
_atom_site_fract_z
_atom_site_B_iso_or_equiv
_atom_site_occupancy
_atom_site_attached_hydrogens
Nd1 Nd3+ 4 e 0.079476(14) 0.310570(6) 0.153309(16) 0.00609(6) 1. 0
O1 O2- 4 e 0.6059(2) 0.42421(10) 0.4240(3) 0.0123(3) 1. 0
O2 O2- 4 e 0.4275(3) 0.30526(9) 0.2806(3) 0.0123(3) 1. 0
O3 O2- 4 e 0.2803(2) 0.06715(9) 0.7312(3) 0.0102(3) 1. 0
O4 O2- 4 e 0.5348(2) 0.08644(10) 0.4096(3) 0.0121(3) 1. 0
O5 O2- 4 e 0.7336(2) 0.30099(10) 0.0481(3) 0.0118(3) 1. 0
O6 O2- 4 e 0.8736(2) 0.07121(10) 0.5414(3) 0.0130(3) 1. 0
O7 O2- 4 e 0.0809(2) 0.05327(11) 0.1735(3) 0.0110(3) 1. 0
O8 O2- 4 e 0.1563(3) 0.18233(9) 0.3317(3) 0.0093(3) 1. 0
O9 O2- 4 e -0.0010(2) 0.32657(10) 0.4764(3) 0.0105(3) 1. 0
B1 B3+ 4 e 0.4420(3) 0.38729(14) 0.3142(4) 0.0086(4) 1. 0
B2 B3+ 4 e 0.7101(3) 0.11791(14) 0.4963(4) 0.0083(4) 1. 0
B3 B3+ 4 e 0.0813(3) 0.13423(15) 0.1609(3) 0.0076(4) 1. 0
Li1 Li1+ 4 e 0.0727(6) 0.5035(3) 0.1761(7) 0.0147(8) 1. 0
Li2 Li1+ 4 e 0.5463(7) 0.4703(3) 0.6695(7) 0.0172(8) 1. 0
Li3 Li1+ 4 e 0.7109(7) 0.2038(3) 0.8728(8) 0.0179(9) 1. 0
Li4 Li1+ 4 e 0.3069(7) 0.4637(3) 0.9433(8) 0.0210(9) 1. 0
Li5 Li1+ 4 e 0.4429(7) 0.2967(3) 0.9451(9) 0.0193(9) 1. 0
Li6 Li1+ 4 e 0.8583(6) 0.0496(3) 0.9168(8) 0.0184(9) 1. 0
loop_
_atom_site_aniso_label
_atom_site_aniso_type_symbol
_atom_site_aniso_U_11
_atom_site_aniso_U_22
_atom_site_aniso_U_33
_atom_site_aniso_U_12
_atom_site_aniso_U_13
_atom_site_aniso_U_23
Nd1 Nd3+ 0.00658(7) 0.00463(7) 0.00723(7) 0.00007(3) 0.00210(5) 0.00016(3)
O1 O2- 0.0079(6) 0.0132(7) 0.0146(7) -0.0018(5) 0.0012(6) -0.0022(6)
O2 O2- 0.0095(7) 0.0066(7) 0.0199(9) 0.0008(5) 0.0021(7) 0.0009(6)
O3 O2- 0.0079(6) 0.0072(6) 0.0145(7) -0.0015(5) 0.0011(5) -0.0005(6)
O4 O2- 0.0078(6) 0.0132(7) 0.0153(8) -0.0024(5) 0.0031(6) -0.0041(6)
O5 O2- 0.0089(7) 0.0064(6) 0.0189(8) -0.0001(5) 0.0017(6) -0.0002(6)
O6 O2- 0.0089(7) 0.0074(6) 0.0213(8) 0.0020(5) 0.0016(6) -0.0023(6)
O7 O2- 0.0140(7) 0.0070(7) 0.0126(7) -0.0002(5) 0.0047(6) -0.0002(5)
O8 O2- 0.0121(7) 0.0078(7) 0.0080(7) -0.0010(5) 0.0025(6) -0.0011(5)
O9 O2- 0.0127(7) 0.0107(6) 0.0082(7) -0.0005(5) 0.0027(6) -0.0018(6)
B1 B3+ 0.0069(9) 0.0078(9) 0.0111(10) -0.0011(7) 0.0022(8) 0.0000(8)
B2 B3+ 0.0086(9) 0.0065(9) 0.0102(10) -0.0006(7) 0.0029(8) 0.0002(7)
B3 B3+ 0.0091(10) 0.0055(9) 0.0088(10) -0.0010(6) 0.0037(8) -0.0004(7)
Li1 Li1+ 0.0132(19) 0.0091(18) 0.022(2) 0.0024(13) 0.0056(17) 0.0005(15)
Li2 Li1+ 0.022(2) 0.0132(19) 0.016(2) 0.0004(16) 0.0041(17) 0.0018(15)
Li3 Li1+ 0.0098(18) 0.0188(19) 0.025(2) -0.0026(16) 0.0038(17) -0.0099(19)
Li4 Li1+ 0.017(2) 0.027(2) 0.020(2) 0.0053(17) 0.0060(18) 0.0023(19)
Li5 Li1+ 0.0132(19) 0.0150(19) 0.029(3) -0.0009(16) 0.0044(19) -0.0035(19)
Li6 Li1+ 0.0137(18) 0.017(2) 0.022(2) 0.0047(15) 0.0003(17) -0.0039(17)
#End of TTdata_164145-ICSD