
#(C) 2017 by FIZ Karlsruhe - Leibniz Institute for Information Infrastructure.  All rights reserved.
data_164563-ICSD
_database_code_ICSD 164563
_audit_creation_date 2010-02-01
_chemical_name_systematic 'Lithium strontium hexafluoroaluminate - II'
_chemical_formula_structural 'Li Sr (Al F6)'
_chemical_formula_sum 'Al1 F6 Li1 Sr1'
_exptl_crystal_density_diffrn 3.51
_cell_measurement_pressure 1600000.
_publ_section_title

;
The crystal structures of pressure-induced Li Sr Al F6 - II and Li Ca Al F6 -
II
;
loop_
_citation_id
_citation_journal_full
_citation_year
_citation_journal_volume
_citation_page_first
_citation_page_last
_citation_journal_id_ASTM
primary 'Journal of Physics: Condensed Matter' 2004 16 1033 1043 JCOMEL
loop_
_publ_author_name
'Grzechnik, A.'
'Dmitriev, V.'
'Weber, H.-P.'
'Gesland, J.Y.'
'van Smaalen, S.'
_cell_length_a 5.1346(6)
_cell_length_b 8.6283(11)
_cell_length_c 10.0598(12)
_cell_angle_alpha 90.
_cell_angle_beta 88.362(8)
_cell_angle_gamma 90.
_cell_volume 445.5
_cell_formula_units_Z 4
_symmetry_space_group_name_H-M 'P 1 21/c 1'
_symmetry_Int_Tables_number 14
loop_
_symmetry_equiv_pos_site_id
_symmetry_equiv_pos_as_xyz
1 'x, -y+1/2, z+1/2'
2 '-x, -y, -z'
3 '-x, y+1/2, -z+1/2'
4 'x, y, z'
loop_
_atom_type_symbol
_atom_type_oxidation_number
Li1+ 1
Sr2+ 2
Al3+ 3
F1- -1
loop_
_atom_site_label
_atom_site_type_symbol
_atom_site_symmetry_multiplicity
_atom_site_Wyckoff_symbol
_atom_site_fract_x
_atom_site_fract_y
_atom_site_fract_z
_atom_site_B_iso_or_equiv
_atom_site_occupancy
_atom_site_attached_hydrogens
Li1 Li1+ 4 e 0.25(6) 0.581(24) 0.249(27) . 1. 0
Sr1 Sr2+ 4 e 0.2613(24) 0.2195(9) 0.5024(18) . 1. 0
Al1 Al3+ 4 e 0.271(5) 0.5804(28) 0.7594(19) . 1. 0
F1 F1- 4 e 0.169(6) 0.7392(34) 0.8654(31) . 1. 0
F2 F1- 4 e 0.549(6) 0.5476(40) 0.8621(25) . 1. 0
F3 F1- 4 e 0.444(6) 0.7141(35) 0.6565(28) . 1. 0
F4 F1- 4 e -0.010(6) 0.6045(41) 0.6563(25) . 1. 0
F5 F1- 4 e 0.079(6) 0.4483(34) 0.8614(27) . 1. 0
F6 F1- 4 e 0.382(7) 0.4259(35) 0.6559(29) . 1. 0
#End of TTdata_164563-ICSD