
#(C) 2018 by FIZ Karlsruhe - Leibniz Institute for Information Infrastructure.  All rights reserved.
data_165000-ICSD
_database_code_ICSD 165000
_audit_creation_date 2010-02-01
_chemical_name_systematic 'Lithium iron phosphate(V)'
_chemical_formula_structural 'Li Fe (P O4)'
_chemical_formula_sum 'Fe1 Li1 O4 P1'
_chemical_name_structure_type Olivine-Mg2SiO4
_exptl_crystal_density_diffrn 3.6
_cell_measurement_temperature 293.
_publ_section_title
'Experimental visualization of lithium diffusion in Lix Fe P O4'
loop_
_citation_id
_citation_journal_full
_citation_year
_citation_journal_volume
_citation_page_first
_citation_page_last
_citation_journal_id_ASTM
primary 'Nippon Kessho Gakkaishi' 2009 51 175 181 NKEGAF
loop_
_publ_author_name
'Yamada, A.'
'Yashima, M.'
_cell_length_a 10.32884(19)
_cell_length_b 6.00684
_cell_length_c 4.69236(8)
_cell_angle_alpha 90.
_cell_angle_beta 90.
_cell_angle_gamma 90.
_cell_volume 291.13
_cell_formula_units_Z 4
_symmetry_space_group_name_H-M 'P n m a'
_symmetry_Int_Tables_number 62
_refine_ls_R_factor_all 0.0046
loop_
_symmetry_equiv_pos_site_id
_symmetry_equiv_pos_as_xyz
1 'x+1/2, y, -z+1/2'
2 'x, -y+1/2, z'
3 '-x+1/2, y+1/2, z+1/2'
4 '-x, -y, -z'
5 '-x+1/2, -y, z+1/2'
6 '-x, y+1/2, -z'
7 'x+1/2, -y+1/2, -z+1/2'
8 'x, y, z'
loop_
_atom_type_symbol
_atom_type_oxidation_number
Li1+ 1
Fe2+ 2
P5+ 5
O2- -2
loop_
_atom_site_label
_atom_site_type_symbol
_atom_site_symmetry_multiplicity
_atom_site_Wyckoff_symbol
_atom_site_fract_x
_atom_site_fract_y
_atom_site_fract_z
_atom_site_B_iso_or_equiv
_atom_site_occupancy
_atom_site_attached_hydrogens
Li1 Li1+ 4 a 0 0 0 1.51 1. 0
Fe1 Fe2+ 4 c 0.28210(6) 0.25 0.97535(19) 0.4 1. 0
P1 P5+ 4 c 0.09512(12) 0.25 0.4180(3) 0.28 1. 0
O1 O2- 4 c 0.09709(12) 0.25 0.7418(3) 0.49 1. 0
O2 O2- 4 c 0.45693(11) 0.25 0.2060(3) 0.48 1. 0
O3 O2- 8 d 0.15474(9) 0.04636(14) 0.28508(16) 0.52 1. 0
loop_
_atom_site_aniso_label
_atom_site_aniso_type_symbol
_atom_site_aniso_U_11
_atom_site_aniso_U_22
_atom_site_aniso_U_33
_atom_site_aniso_U_12
_atom_site_aniso_U_13
_atom_site_aniso_U_23
Li1 Li1+ 0.022(2) 0.0190(18) 0.0156(19) -0.0027(15) -0.002(2) -0.0053(19)
Fe1 Fe2+ 0.0043(4) 0.0045(4) 0.0062(4) 0. 0.0003(3) 0.
P1 P5+ 0.0036(6) 0.0036(6) 0.0035(7) 0. 0.0003(3) 0.
O1 O2- 0.0084(6) 0.0075(7) 0.0029(7) 0. -0.0005(5) 0.
O2 O2- 0.0038(7) 0.0080(6) 0.0065(7) 0. 0.0003(5) 0.
O3 O2- 0.0085(5) 0.0048(4) 0.0064(5) 0.0034(4) 0.0011(4) -0.0005(4)
#End of TTdata_165000-ICSD