
#(C) 2018 by FIZ Karlsruhe - Leibniz Institute for Information Infrastructure.  All rights reserved.
data_165579-ICSD
_database_code_ICSD 165579
_audit_creation_date 2010-02-01
_audit_update_record 2013-08-01
_chemical_name_systematic 'Lithium chlorate(VII)'
_chemical_formula_structural 'Li (Cl O4)'
_chemical_formula_sum 'Cl1 Li1 O4'
_chemical_name_structure_type LiClO4
_exptl_crystal_density_diffrn 2.47
_cell_measurement_temperature 173.
_publ_section_title

;
Crystals from concentrated glyme mixtures. The single-crystal structure of Li
Cl O4
;
loop_
_citation_id
_citation_journal_full
_citation_year
_citation_journal_volume
_citation_page_first
_citation_page_last
_citation_journal_id_ASTM
primary 'Inorganic Chemistry' 2003 42 4522 4524 INOCAJ
loop_
_publ_author_name
'Henderson, W.A.'
'Brooks, N.R.'
_cell_length_a 8.6447(12)
_cell_length_b 6.8512(10)
_cell_length_c 4.8254(7)
_cell_angle_alpha 90.
_cell_angle_beta 90.
_cell_angle_gamma 90.
_cell_volume 285.79
_cell_formula_units_Z 4
_symmetry_space_group_name_H-M 'P n m a'
_symmetry_Int_Tables_number 62
_refine_ls_R_factor_all 0.0266
loop_
_symmetry_equiv_pos_site_id
_symmetry_equiv_pos_as_xyz
1 'x+1/2, y, -z+1/2'
2 'x, -y+1/2, z'
3 '-x+1/2, y+1/2, z+1/2'
4 '-x, -y, -z'
5 '-x+1/2, -y, z+1/2'
6 '-x, y+1/2, -z'
7 'x+1/2, -y+1/2, -z+1/2'
8 'x, y, z'
loop_
_atom_type_symbol
_atom_type_oxidation_number
Cl7+ 7
O2- -2
Li1+ 1
loop_
_atom_site_label
_atom_site_type_symbol
_atom_site_symmetry_multiplicity
_atom_site_Wyckoff_symbol
_atom_site_fract_x
_atom_site_fract_y
_atom_site_fract_z
_atom_site_B_iso_or_equiv
_atom_site_occupancy
_atom_site_attached_hydrogens
Cl1 Cl7+ 4 c 0.81703(5) 0.25 0.03882(11) 0.0086(3) 1 0
O1 O2- 8 d 0.87118(12) 0.42319(16) 0.1753(2) 0.0140(4) 1 0
O2 O2- 4 c 0.6490(2) 0.25 0.0464(3) 0.0131(4) 1 0
O3 O2- 4 c 0.86955(17) 0.25 -0.2451(3) 0.0148(4) 1 0
Li1 Li1+ 4 b 1. 0.5 0.5 0.0344(13) 1 0
loop_
_atom_site_aniso_label
_atom_site_aniso_type_symbol
_atom_site_aniso_U_11
_atom_site_aniso_U_22
_atom_site_aniso_U_33
_atom_site_aniso_U_12
_atom_site_aniso_U_13
_atom_site_aniso_U_23
Cl1 Cl7+ 0.0083(4) 0.0101(4) 0.0075(4) 0. -0.00014(16) 0.
O1 O2- 0.0156(6) 0.0118(7) 0.0145(6) -0.0026(4) -0.0026(5) -0.0027(4)
O2 O2- 0.0091(8) 0.0137(9) 0.0163(9) 0. 0.0003(6) 0.
O3 O2- 0.0160(8) 0.0204(9) 0.0079(8) 0. 0.0034(6) 0.
Li1 Li1+ 0.033(3) 0.033(3) 0.037(3) 0.017(2) -0.023(2) -0.020(2)
#End of TTdata_165579-ICSD