
#(C) 2018 by FIZ Karlsruhe - Leibniz Institute for Information Infrastructure.  All rights reserved.
data_16568-ICSD
_database_code_ICSD 16568
_audit_creation_date 1980-01-01
_audit_update_record 2010-08-01
_chemical_name_systematic 'Lithium closo-dioxoborate'
_chemical_formula_structural 'Li (B O2)'
_chemical_formula_sum 'B1 Li1 O2'
_chemical_name_structure_type LiBO2
_exptl_crystal_density_diffrn 2.23
_publ_section_title 'The crystal structure of lithium metaborate'
loop_
_citation_id
_citation_journal_full
_citation_year
_citation_journal_volume
_citation_page_first
_citation_page_last
_citation_journal_id_ASTM
primary 'Acta Crystallographica' 1964 17 749 751 ACCRA9
loop_
_publ_author_name
'Zachariasen, W.H.'
_cell_length_a 5.838(2)
_cell_length_b 4.348(1)
_cell_length_c 6.449(2)
_cell_angle_alpha 90.
_cell_angle_beta 115.12(2)
_cell_angle_gamma 90.
_cell_volume 148.22
_cell_formula_units_Z 4
_symmetry_space_group_name_H-M 'P 1 21/c 1'
_symmetry_Int_Tables_number 14
_refine_ls_R_factor_all 0.046
loop_
_symmetry_equiv_pos_site_id
_symmetry_equiv_pos_as_xyz
1 'x, -y+1/2, z+1/2'
2 '-x, -y, -z'
3 '-x, y+1/2, -z+1/2'
4 'x, y, z'
loop_
_atom_type_symbol
_atom_type_oxidation_number
Li1+ 1
B3+ 3
O2- -2
loop_
_atom_site_label
_atom_site_type_symbol
_atom_site_symmetry_multiplicity
_atom_site_Wyckoff_symbol
_atom_site_fract_x
_atom_site_fract_y
_atom_site_fract_z
_atom_site_B_iso_or_equiv
_atom_site_occupancy
_atom_site_attached_hydrogens
Li1 Li1+ 4 e 0.4322(12) 0.2131(21) 0.3437(11) . 1. 0
B1 B3+ 4 e 0.1233(9) 0.6735(14) 0.2720(7) . 1. 0
O1 O2- 4 e 0.0846(5) 0.3550(8) 0.2592(5) . 1. 0
O2 O2- 4 e 0.3548(5) 0.7741(8) 0.3169(4) . 1. 0
loop_
_atom_site_aniso_label
_atom_site_aniso_type_symbol
_atom_site_aniso_beta_11
_atom_site_aniso_beta_22
_atom_site_aniso_beta_33
_atom_site_aniso_beta_12
_atom_site_aniso_beta_13
_atom_site_aniso_beta_23
Li1 Li1+ 0.0121(21) 0.0213(42) 0.0164(18) 0.0019(51) 0.0074(17) -.001(3)
B1 B3+ 0.0097(15) 0.013(3) 0.0091(10) 0.0008(41) 0.0045(10) -.001(2)
O1 O2- 0.0092(10) 0.0080(17) 0.0177(8) -.001(3) 0.0067(7) 0.0012(10)
O2 O2- 0.0083(9) 0.0139(19) 0.0118(7) -.002(2) 0.0055(7) 0.000(1)
#End of TTdata_16568-ICSD