
#(C) 2018 by FIZ Karlsruhe - Leibniz Institute for Information Infrastructure.  All rights reserved.
data_166164-ICSD
_database_code_ICSD 166164
_audit_creation_date 2010-08-01
_chemical_name_systematic 'Lithium titanium(III) diphosphate(V)'
_chemical_formula_structural 'Li Ti (P2 O7)'
_chemical_formula_sum 'Li1 O7 P2 Ti1'
_chemical_name_structure_type LiInP2O7
_exptl_crystal_density_diffrn 2.88
_cell_measurement_temperature 293.
_publ_section_title 'Synthesis and structure of double diphosphate Li Ti P2 O7'
loop_
_citation_id
_citation_journal_full
_citation_year
_citation_journal_volume
_citation_page_first
_citation_page_last
_citation_journal_id_ASTM
primary 'Dopovidi Natsional'noi Akademii Nauk Ukraini' 2008 2008 129 133 DNAUFL
loop_
_publ_author_name
'Zatovs'kii, I.V.'
_cell_length_a 4.8882(10)
_cell_length_b 8.209(2)
_cell_length_c 6.9550(10)
_cell_angle_alpha 90.
_cell_angle_beta 108.80(3)
_cell_angle_gamma 90.
_cell_volume 264.2
_cell_formula_units_Z 2
_symmetry_space_group_name_H-M 'P 1 21 1'
_symmetry_Int_Tables_number 4
_refine_ls_R_factor_all 0.024
loop_
_symmetry_equiv_pos_site_id
_symmetry_equiv_pos_as_xyz
1 '-x, y+1/2, -z'
2 'x, y, z'
loop_
_atom_type_symbol
_atom_type_oxidation_number
Ti3+ 3
Li1+ 1
P5+ 5
O2- -2
loop_
_atom_site_label
_atom_site_type_symbol
_atom_site_symmetry_multiplicity
_atom_site_Wyckoff_symbol
_atom_site_fract_x
_atom_site_fract_y
_atom_site_fract_z
_atom_site_B_iso_or_equiv
_atom_site_occupancy
_atom_site_attached_hydrogens
Ti1 Ti3+ 2 a -0.71049(13) 0.19864(7) -0.22778(8) 0.00871(19) 1. 0
Li1 Li1+ 2 a 0.696(2) 0.0645(10) 0.1816(3) 0.0298(17) 1. 0
P1 P5+ 2 a -0.09774(19) 0.37955(10) 0.02514(12) 0.0087(2) 1. 0
P2 P5+ 2 a 0.28524(19) 0.48499(11) 0.41778(13) 0.0094(2) 1. 0
O1 O2- 2 a -0.3062(5) 0.2383(3) -0.0118(4) 0.0118(6) 1. 0
O2 O2- 2 a -0.2493(6) 0.5424(3) 0.0082(4) 0.0117(5) 1. 0
O3 O2- 2 a 0.1014(6) 0.3750(4) -0.1039(4) 0.0128(5) 1. 0
O4 O2- 2 a 0.0983(6) 0.3549(3) 0.2567(4) 0.0130(5) 1. 0
O5 O2- 2 a 0.1000(6) 0.6310(4) 0.4244(4) 0.0161(6) 1. 0
O6 O2- 2 a 0.5410(6) 0.5294(4) 0.3521(4) 0.0153(6) 1. 0
O7 O2- 2 a 0.3719(6) 0.3953(3) 0.6184(4) 0.0133(6) 1. 0
#End of TTdata_166164-ICSD