
#(C) 2018 by FIZ Karlsruhe - Leibniz Institute for Information Infrastructure.  All rights reserved.
data_166451-ICSD
_database_code_ICSD 166451
_audit_creation_date 2010-08-01
_chemical_name_systematic 'Dilithium scandium hydrogenbis(phosphate(V))'
_chemical_formula_structural 'Li2 Sc (H (P O4)2)'
_chemical_formula_sum 'H1 Li2 O8 P2 Sc1'
_chemical_name_structure_type Li2FeH(PO4)2
_exptl_crystal_density_diffrn 2.8
_publ_section_title

;
Hydrothermal synthesis and crystal structure of lithium scandium
orthophosphate Li2 Sc (H (P O4)2). The Li2 M(III) (H (P O4)2) family (M(III)=
Fe, Sc, In)
;
loop_
_citation_id
_citation_journal_full
_citation_year
_citation_journal_volume
_citation_page_first
_citation_page_last
_citation_journal_id_ASTM
primary 'Zhurnal Neorganicheskoi Khimii' 2009 54 1829 1841 ZNOKAQ
loop_
_publ_author_name
'Filaretov, A.A.'
'Rusakov, D.A.'
'Simonov, S.V.'
'Khasanov, S.S.'
'Komissarova, L.N.'
_cell_length_a 4.857(1)
_cell_length_b 8.198(2)
_cell_length_c 7.664(2)
_cell_angle_alpha 90.
_cell_angle_beta 104.097(5)
_cell_angle_gamma 90.
_cell_volume 295.97
_cell_formula_units_Z 2
_symmetry_space_group_name_H-M 'P 1 21/n 1'
_symmetry_Int_Tables_number 14
_refine_ls_R_factor_all 0.0215
loop_
_symmetry_equiv_pos_site_id
_symmetry_equiv_pos_as_xyz
1 '-x+1/2, y+1/2, -z+1/2'
2 '-x, -y, -z'
3 'x+1/2, -y+1/2, z+1/2'
4 'x, y, z'
loop_
_atom_type_symbol
_atom_type_oxidation_number
Li1+ 1
Sc3+ 3
P5+ 5
O2- -2
H1+ 1
loop_
_atom_site_label
_atom_site_type_symbol
_atom_site_symmetry_multiplicity
_atom_site_Wyckoff_symbol
_atom_site_fract_x
_atom_site_fract_y
_atom_site_fract_z
_atom_site_B_iso_or_equiv
_atom_site_occupancy
_atom_site_attached_hydrogens
Li1 Li1+ 4 e 0.1090(7) 0.3648(4) 0.6581(4) 0.0179(8) 1. 0
Sc1 Sc3+ 2 b 0.5 0.5 0 0.0057(1) 1. 0
P1 P5+ 4 e 0.63731(7) 0.15229(4) 0.77195(5) 0.0055(1) 1. 0
O1 O2- 4 e 0.8592(2) 0.17624(13) 0.66323(14) 0.0087(3) 1. 0
O2 O2- 4 e 0.5168(2) 0.31525(13) 0.81675(16) 0.0102(3) 1. 0
O3 O2- 4 e 0.3966(2) 0.04397(14) 0.66683(14) 0.0099(3) 1. 0
O4 O2- 4 e 0.7619(2) 0.06321(15) 0.95242(15) 0.0125(3) 1. 0
H1 H1+ 4 e 0.924(13) 0.041(7) 0.969(9) 0.037 0.5 0
#End of TTdata_166451-ICSD