
#(C) 2018 by FIZ Karlsruhe - Leibniz Institute for Information Infrastructure.  All rights reserved.
data_167055-ICSD
_database_code_ICSD 167055
_audit_creation_date 2010-08-01
_chemical_name_systematic 'Lithium deuterium strontium ditantalate'
_chemical_formula_structural 'Li D Sr (Ta2 O7)'
_chemical_formula_sum 'D1 Li1 O7 Sr1 Ta2'
_exptl_crystal_density_diffrn 6.58
_publ_section_title

;
Structural characterization of a new acentric Ruddlesden-Popper layered
perovskite compound: Li H Sr Ta2 O7
;
loop_
_citation_id
_citation_journal_full
_citation_year
_citation_journal_volume
_citation_page_first
_citation_page_last
_citation_journal_id_ASTM
primary 'Dalton Transactions' 2010 39 3212 3218 DTARAF
loop_
_publ_author_name
'Galven, C.'
'Fourquet, J.L.'
'Suard, E.'
'Crosnier-Lopez, M.P.'
'le Berre, F.'
_cell_length_a 5.5522(1)
_cell_length_b 5.5248(1)
_cell_length_c 18.7745(4)
_cell_angle_alpha 90.
_cell_angle_beta 90.
_cell_angle_gamma 90.
_cell_volume 575.9
_cell_formula_units_Z 4
_symmetry_space_group_name_H-M 'A m a 2'
_symmetry_Int_Tables_number 40
_refine_ls_R_factor_all 0.03
loop_
_symmetry_equiv_pos_site_id
_symmetry_equiv_pos_as_xyz
1 'x+1/2, -y, z'
2 '-x+1/2, y, z'
3 '-x, -y, z'
4 'x, y, z'
5 'x+1/2, -y+1/2, z+1/2'
6 '-x+1/2, y+1/2, z+1/2'
7 '-x, -y+1/2, z+1/2'
8 'x, y+1/2, z+1/2'
loop_
_atom_type_symbol
_atom_type_oxidation_number
Ta5+ 5
Sr2+ 2
O2- -2
Li1+ 1
D1+ 1
loop_
_atom_site_label
_atom_site_type_symbol
_atom_site_symmetry_multiplicity
_atom_site_Wyckoff_symbol
_atom_site_fract_x
_atom_site_fract_y
_atom_site_fract_z
_atom_site_B_iso_or_equiv
_atom_site_occupancy
_atom_site_attached_hydrogens
Ta1 Ta5+ 4 b 0.25 0.745(1) 0.113 0.67(8) 1. 0
Ta2 Ta5+ 4 b 0.25 0.752(1) 0.8874(3) 0.45(8) 1. 0
Sr1 Sr2+ 4 b 0.25 0.259(1) -0.0017(3) 0.77(5) 1. 0
O1 O2- 4 b 0.25 0.727(1) 0.0096(5) 1.09(9) 1. 0
O2 O2- 4 b 0.25 0.753(2) 0.2222(4) 0.51(9) 1. 0
O3 O2- 4 b 0.25 0.786(1) 0.7966(4) 1.4(1) 1. 0
O4 O2- 4 a 0 0 0.6202(5) 0.8(1) 1. 0
O5 O2- 4 a 0 0 0.4026(5) 0.8(1) 1. 0
O6 O2- 4 a 0 0 0.1022(5) 0.8(2) 1. 0
O7 O2- 4 a 0 0 0.9081(4) 0.9(1) 1. 0
Li1 Li1+ 4 a 0 0 0.264(1) 0.5(3) 0.69(6) 0
Li2 Li1+ 4 a 0 0 0.762(3) 0.5(3) 0.31(6) 0
D1 D1+ 4 b 0.25 0.426(3) 0.260(1) 5.2(3) 0.60(2) 0
D2 D1+ 4 b 0.25 0.388(5) 0.745(2) 5.2(3) 0.40(2) 0
#End of TTdata_167055-ICSD