
#(C) 2018 by FIZ Karlsruhe - Leibniz Institute for Information Infrastructure.  All rights reserved.
data_168500-ICSD
_database_code_ICSD 168500
_audit_creation_date 2011-02-01
_chemical_name_systematic
'Dilithium octakis(sulfur dioxide) closo-(dodecachlorododecaborate)'
_chemical_formula_structural '(Li2 (S O2)8) (B12 Cl12)'
_chemical_formula_sum 'B12 Cl12 Li2 O16 S8'
_exptl_crystal_density_diffrn 1.97
_cell_measurement_temperature 120.
_publ_section_title

;
Alkali metal-sulfur dioxide complexes stabilized by halogenated
closo-dodecaborate anions
;
loop_
_citation_id
_citation_journal_full
_citation_year
_citation_journal_volume
_citation_page_first
_citation_page_last
_citation_journal_id_ASTM
primary 'Dalton Transactions' 2010 39 8671 8678 DTARAF
loop_
_publ_author_name
'Derendorf, J.'
'Kessler, M.'
'Knapp, C.'
'Ruehle, M.'
'Schulz, C.'
_cell_length_a 9.964(2)
_cell_length_b 10.285(2)
_cell_length_c 10.325(2)
_cell_angle_alpha 116.41(3)
_cell_angle_beta 94.82(3)
_cell_angle_gamma 101.32(3)
_cell_volume 911.38
_cell_formula_units_Z 1
_symmetry_space_group_name_H-M 'P -1'
_symmetry_Int_Tables_number 2
_refine_ls_R_factor_all 0.0476
loop_
_symmetry_equiv_pos_site_id
_symmetry_equiv_pos_as_xyz
1 '-x, -y, -z'
2 'x, y, z'
loop_
_atom_type_symbol
_atom_type_oxidation_number
B0+ 0.833
Cl1- -1
B0+ 0.833
Cl1- -1
B0+ 0.833
Cl1- -1
B0+ 0.833
Cl1- -1
B0+ 0.833
Cl1- -1
B0+ 0.833
Cl1- -1
Li1+ 1
O2- -2
S4+ 4
O2- -2
S4+ 4
O2- -2
S4+ 4
O2- -2
S4+ 4
O2- -2
loop_
_atom_site_label
_atom_site_type_symbol
_atom_site_symmetry_multiplicity
_atom_site_Wyckoff_symbol
_atom_site_fract_x
_atom_site_fract_y
_atom_site_fract_z
_atom_site_B_iso_or_equiv
_atom_site_occupancy
_atom_site_attached_hydrogens
B1 B0+ 2 i 0.4021(5) 0.3466(5) 0.3456(4) 0.0167(9) 1 0
Cl1 Cl1- 2 i 0.30069(10) 0.18087(10) 0.18216(10) 0.0213(2) 1 0
B2 B0+ 2 i 0.3440(4) 0.4108(5) 0.5177(4) 0.0165(9) 1 0
Cl2 Cl1- 2 i 0.18118(10) 0.31533(11) 0.53484(10) 0.0226(2) 1 0
B3 B0+ 2 i 0.4897(4) 0.3310(5) 0.4936(4) 0.0167(9) 1 0
Cl3 Cl1- 2 i 0.48114(10) 0.15114(10) 0.48622(10) 0.0223(2) 1 0
B4 B0+ 2 i 0.5881(4) 0.3884(5) 0.3839(4) 0.0151(8) 1 0
Cl4 Cl1- 2 i 0.67854(10) 0.26958(11) 0.25752(10) 0.0243(2) 1 0
B5 B0+ 2 i 0.5039(4) 0.5052(5) 0.3377(4) 0.0157(8) 1 0
Cl5 Cl1- 2 i 0.51020(10) 0.50910(11) 0.16692(10) 0.0229(2) 1 0
B6 B0+ 2 i 0.3543(4) 0.5201(5) 0.4211(4) 0.0146(8) 1 0
Cl6 Cl1- 2 i 0.19979(10) 0.54352(10) 0.33862(10) 0.0221(2) 1 0
Li1 Li1+ 2 i 0.1608(8) 0.0885(8) 0.7573(8) 0.0354(18) 1 0
O1 O2- 2 i 0.1717(3) -0.0447(3) 0.5457(3) 0.0352(7) 1 0
S1 S4+ 2 i 0.17089(11) -0.10003(12) 0.39294(11) 0.0267(2) 1 0
O2 O2- 2 i 0.0528(3) -0.0990(4) 0.3062(3) 0.0413(8) 1 0
O3 O2- 2 i 0.0912(3) -0.0543(3) 0.8296(4) 0.0358(7) 1 0
S2 S4+ 2 i 0.03141(11) -0.19364(12) 0.82856(12) 0.0264(2) 1 0
O4 O2- 2 i 0.0474(3) -0.1942(4) 0.9658(4) 0.0454(9) 1 0
O5 O2- 2 i 0.3761(3) 0.1156(3) 0.8148(3) 0.0334(7) 1 0
S3 S4+ 2 i 0.50701(12) 0.11583(12) 0.88201(12) 0.0302(3) 1 0
O6 O2- 2 i 0.6307(3) 0.1952(3) 0.8630(3) 0.0380(8) 1 0
O7 O2- 2 i 0.1974(3) 0.3056(3) 0.9041(3) 0.0301(7) 1 0
S4 S4+ 2 i 0.18109(12) 0.45383(12) 0.95159(12) 0.0302(3) 1 0
O8 O2- 2 i 0.0734(4) 0.4708(4) 0.8668(4) 0.0520(10) 1 0
loop_
_atom_site_aniso_label
_atom_site_aniso_type_symbol
_atom_site_aniso_U_11
_atom_site_aniso_U_22
_atom_site_aniso_U_33
_atom_site_aniso_U_12
_atom_site_aniso_U_13
_atom_site_aniso_U_23
B1 B0+ 0.023(2) 0.018(2) 0.0101(19) 0.0084(18) 0.0044(17) 0.0064(17)
Cl1 Cl1- 0.0212(5) 0.0174(5) 0.0170(4) 0.0020(4) -0.0003(4) 0.0029(4)
B2 B0+ 0.020(2) 0.014(2) 0.017(2) 0.0059(17) 0.0069(17) 0.0073(17)
Cl2 Cl1- 0.0192(5) 0.0240(5) 0.0244(5) 0.0010(4) 0.0056(4) 0.0130(4)
B3 B0+ 0.020(2) 0.019(2) 0.014(2) 0.0063(18) 0.0014(17) 0.0095(17)
Cl3 Cl1- 0.0257(5) 0.0171(5) 0.0269(5) 0.0058(4) 0.0028(4) 0.0130(4)
B4 B0+ 0.014(2) 0.017(2) 0.015(2) 0.0053(17) 0.0033(16) 0.0070(17)
Cl4 Cl1- 0.0232(5) 0.0229(5) 0.0228(5) 0.0090(4) 0.0076(4) 0.0056(4)
B5 B0+ 0.018(2) 0.015(2) 0.017(2) 0.0060(17) 0.0047(17) 0.0091(17)
Cl5 Cl1- 0.0264(5) 0.0286(5) 0.0176(5) 0.0055(4) 0.0049(4) 0.0148(4)
B6 B0+ 0.015(2) 0.020(2) 0.0121(19) 0.0070(17) 0.0033(16) 0.0091(17)
Cl6 Cl1- 0.0193(5) 0.0222(5) 0.0258(5) 0.0067(4) -0.0011(4) 0.0127(4)
Li1 Li1+ 0.040(4) 0.027(4) 0.035(4) 0.002(3) 0.003(3) 0.013(3)
O1 O2- 0.0417(19) 0.0362(18) 0.0271(16) 0.0071(15) 0.0050(14) 0.0158(14)
S1 S4+ 0.0254(6) 0.0264(6) 0.0260(5) 0.0060(4) 0.0055(4) 0.0105(5)
O2 O2- 0.0375(19) 0.044(2) 0.0329(17) 0.0027(16) -0.0081(14) 0.0162(16)
O3 O2- 0.0319(17) 0.0288(17) 0.053(2) 0.0113(14) 0.0139(15) 0.0220(16)
S2 S4+ 0.0236(5) 0.0249(5) 0.0284(5) 0.0052(4) 0.0061(4) 0.0109(5)
O4 O2- 0.047(2) 0.061(2) 0.0406(19) 0.0198(18) 0.0124(16) 0.0319(18)
O5 O2- 0.0285(17) 0.0339(17) 0.0321(17) 0.0099(14) 0.0047(13) 0.0102(14)
S3 S4+ 0.0333(6) 0.0273(6) 0.0278(6) 0.0052(5) 0.0028(5) 0.0126(5)
O6 O2- 0.0316(17) 0.0334(18) 0.0389(18) 0.0026(14) 0.0079(14) 0.0107(15)
O7 O2- 0.0288(16) 0.0265(16) 0.0336(16) 0.0066(13) 0.0046(13) 0.0136(14)
S4 S4+ 0.0332(6) 0.0308(6) 0.0273(6) 0.0122(5) 0.0062(5) 0.0127(5)
O8 O2- 0.051(2) 0.069(3) 0.051(2) 0.035(2) 0.0093(18) 0.033(2)
#End of TTdata_168500-ICSD