
#(C) 2018 by FIZ Karlsruhe - Leibniz Institute for Information Infrastructure.  All rights reserved.
data_169175-ICSD
_database_code_ICSD 169175
_audit_creation_date 2011-02-01
_chemical_name_systematic 'Lithium iron arsenide'
_chemical_formula_structural 'Li Fe As'
_chemical_formula_sum 'As1 Fe1 Li1'
_chemical_name_structure_type PbClF
_exptl_crystal_density_diffrn 5.1
_cell_measurement_temperature 100.
_publ_section_title
'Single crystal growth and characterization of superconducting Li Fe As'
loop_
_citation_id
_citation_journal_full
_citation_year
_citation_journal_volume
_citation_page_first
_citation_page_last
_citation_journal_id_ASTM
primary 'Crystal Growth & Design' 2010 10 4428 4432 CGDEFU
loop_
_publ_author_name
'Morozov, I.'
'Boltalin, A.'
'Volkova, O.'
'Vasiliev, A.'
'Kataeva, O.'
'Stockert, U.'
'Abdel Hafiez, M.'
'Bombor, D.'
'Bachmann, A.'
'Harnagea, L.'
'Fuchs, M.'
'Grafe, H.-J.'
'Behr, G.'
'Klingeler, R.'
'Borisenko, S.'
'Hess, C.'
'Wurmehl, S.'
'Buechner, B.'
_cell_length_a 3.7678(4)
_cell_length_b 3.7678(4)
_cell_length_c 6.3151(8)
_cell_angle_alpha 90.
_cell_angle_beta 90.
_cell_angle_gamma 90.
_cell_volume 89.65
_cell_formula_units_Z 2
_symmetry_space_group_name_H-M 'P 4/n m m Z'
_symmetry_Int_Tables_number 129
_refine_ls_R_factor_all 0.0173
loop_
_symmetry_equiv_pos_site_id
_symmetry_equiv_pos_as_xyz
1 'y+1/2, x+1/2, -z'
2 '-y, x+1/2, -z'
3 'y+1/2, -x, -z'
4 '-y, -x, -z'
5 'x+1/2, y+1/2, -z'
6 '-x, y+1/2, -z'
7 'x+1/2, -y, -z'
8 '-x, -y, -z'
9 '-y+1/2, -x+1/2, z'
10 'y, -x+1/2, z'
11 '-y+1/2, x, z'
12 'y, x, z'
13 '-x+1/2, -y+1/2, z'
14 'x, -y+1/2, z'
15 '-x+1/2, y, z'
16 'x, y, z'
loop_
_atom_type_symbol
_atom_type_oxidation_number
As3- -3
Fe2+ 2
Li1+ 1
loop_
_atom_site_label
_atom_site_type_symbol
_atom_site_symmetry_multiplicity
_atom_site_Wyckoff_symbol
_atom_site_fract_x
_atom_site_fract_y
_atom_site_fract_z
_atom_site_B_iso_or_equiv
_atom_site_occupancy
_atom_site_attached_hydrogens
As1 As3- 2 c 0.25 0.25 0.23626(9) 0.0069(2) 1 0
Fe1 Fe2+ 2 a -0.25 0.25 0. 0.0071(3) 1 0
Li1 Li1+ 2 c 0.25 0.25 0.655(2) 0.014(2) 1 0
loop_
_atom_site_aniso_label
_atom_site_aniso_type_symbol
_atom_site_aniso_U_11
_atom_site_aniso_U_22
_atom_site_aniso_U_33
_atom_site_aniso_U_12
_atom_site_aniso_U_13
_atom_site_aniso_U_23
As1 As3- 0.0048(3) 0.0048(3) 0.0109(4) 0. 0. 0.
Fe1 Fe2+ 0.0051(3) 0.0051(3) 0.0109(5) 0. 0. 0.
Li1 Li1+ 0.007(3) 0.007(3) 0.027(7) 0. 0. 0.
#End of TTdata_169175-ICSD