
#(C) 2018 by FIZ Karlsruhe - Leibniz Institute for Information Infrastructure.  All rights reserved.
data_169480-ICSD
_database_code_ICSD 169480
_audit_creation_date 2011-08-01
_chemical_name_systematic 'Lithium iron digermanate - HT'
_chemical_formula_structural 'Li Fe (Ge2 O6)'
_chemical_formula_sum 'Fe1 Ge2 Li1 O6'
_chemical_name_structure_type Pyroxene-CaMg(SiO3)2
_exptl_crystal_density_diffrn 4.36
_cell_measurement_temperature 1134.
_publ_section_title

;
Thermal expansion and high-temperature P21/c - C2/c phase transition in
clinopyroxene-type Li Fe Ge2 O6 and comparison to Na Fe (Si, Ge)2 O6
;
loop_
_citation_id
_citation_journal_full
_citation_year
_citation_journal_volume
_citation_page_first
_citation_page_last
_citation_journal_id_ASTM
primary 'Physics and Chemistry of Minerals' 2010 37 685 704 PCMIDU
loop_
_publ_author_name
'Redhammer, G.J.'
'Camara, F.'
'Alvaro, M.'
'Nestola, F.'
'Tippelt, G.'
'Prinz, S.'
'Simons, J.'
'Roth, G.'
'Amthauer, G.'
_cell_length_a 10.0927(11)
_cell_length_b 8.7920(7)
_cell_length_c 5.5368(7)
_cell_angle_alpha 90.
_cell_angle_beta 109.540(7)
_cell_angle_gamma 90.
_cell_volume 463.01
_cell_formula_units_Z 4
_symmetry_space_group_name_H-M 'C 1 2/c 1'
_symmetry_Int_Tables_number 15
_refine_ls_R_factor_all 0.05
loop_
_symmetry_equiv_pos_site_id
_symmetry_equiv_pos_as_xyz
1 'x, -y, z+1/2'
2 '-x, -y, -z'
3 '-x, y, -z+1/2'
4 'x, y, z'
5 'x+1/2, -y+1/2, z+1/2'
6 '-x+1/2, -y+1/2, -z'
7 '-x+1/2, y+1/2, -z+1/2'
8 'x+1/2, y+1/2, z'
loop_
_atom_type_symbol
_atom_type_oxidation_number
Li1+ 1
Fe3+ 3
Ge4+ 4
O2- -2
loop_
_atom_site_label
_atom_site_type_symbol
_atom_site_symmetry_multiplicity
_atom_site_Wyckoff_symbol
_atom_site_fract_x
_atom_site_fract_y
_atom_site_fract_z
_atom_site_B_iso_or_equiv
_atom_site_occupancy
_atom_site_attached_hydrogens
Li1 Li1+ 4 e 0 0.2870(41) 0.25 0.0816(88) 1. 0
Fe1 Fe3+ 4 e 0 0.9029(2) 0.25 0.0381(7) 1. 0
Ge1 Ge4+ 8 f 0.29047(9) 0.0928(1) 0.2465(2) 0.0389(6) 1. 0
O1 O2- 8 f 0.1069(7) 0.0851(7) 0.1427(12) 0.0414(14) 1. 0
O2 O2- 8 f 0.3597(9) 0.2713(9) 0.2956(16) 0.0662(21) 1. 0
O3 O2- 8 f 0.3608(7) -0.0165(9) 0.0546(14) 0.0618(21) 1. 0
#End of TTdata_169480-ICSD