
#(C) 2018 by FIZ Karlsruhe - Leibniz Institute for Information Infrastructure.  All rights reserved.
data_169560-ICSD
_database_code_ICSD 169560
_audit_creation_date 2011-08-01
_chemical_name_systematic 'Lithium ammonia borohydride'
_chemical_formula_structural 'Li (N H3) B H4'
_chemical_formula_sum 'H7 B1 Li1 N1'
_chemical_name_structure_type LiNH3BH4
_exptl_crystal_density_diffrn 0.67
_publ_section_title

;
The monoammoniate of lithium borohydride, Li (N H3) B H4 : an effective
ammonia storage compound
;
loop_
_citation_id
_citation_journal_full
_citation_year
_citation_journal_volume
_citation_page_first
_citation_page_last
_citation_journal_id_ASTM
primary 'Chemistry - an Asian Journal' 2009 4 849 854 CAAJBI
loop_
_publ_author_name
'Johnson, S.R.'
'David, W.I.F.'
'Royse, D.M.'
'Sommariva, M.'
'Tang, C.Y.'
'Fabbiani, F.P.A.'
'Jones, M.O.'
'Edwards, P.P.'
_cell_length_a 5.96910(3)
_cell_length_b 4.46355(2)
_cell_length_c 14.34199(8)
_cell_angle_alpha 90.
_cell_angle_beta 90.
_cell_angle_gamma 90.
_cell_volume 382.12
_cell_formula_units_Z 4
_symmetry_space_group_name_H-M 'P n m a'
_symmetry_Int_Tables_number 62
_refine_ls_R_factor_all 0.026
loop_
_symmetry_equiv_pos_site_id
_symmetry_equiv_pos_as_xyz
1 'x+1/2, y, -z+1/2'
2 'x, -y+1/2, z'
3 '-x+1/2, y+1/2, z+1/2'
4 '-x, -y, -z'
5 '-x+1/2, -y, z+1/2'
6 '-x, y+1/2, -z'
7 'x+1/2, -y+1/2, -z+1/2'
8 'x, y, z'
loop_
_atom_type_symbol
_atom_type_oxidation_number
Li1+ 1
B3+ 3
H1- -1
N3- -3
H1+ 1
loop_
_atom_site_label
_atom_site_type_symbol
_atom_site_symmetry_multiplicity
_atom_site_Wyckoff_symbol
_atom_site_fract_x
_atom_site_fract_y
_atom_site_fract_z
_atom_site_B_iso_or_equiv
_atom_site_occupancy
_atom_site_attached_hydrogens
Li1 Li1+ 4 c 0.8903(8) 0.75 0.5752(3) 4.7(2) 1. 0
B1 B3+ 4 c 0.9059(4) 0.75 0.3993(1) 4.6(1) 1. 0
H1 H1- 4 c 0.754(2) 0.75 0.451(1) 5.5(3) 1. 0
H2 H1- 4 c 0.073(2) 0.75 0.442(1) 5.5(3) 1. 0
H3 H1- 8 d 0.898(1) 0.536(2) 0.352(1) 5.5(3) 1. 0
N1 N3- 4 c 0.6081(4) 0.75 0.6514(1) 5.9(1) 1. 0
H4 H1+ 4 c 0.585(3) 0.75 0.717(1) 5.5(3) 1. 0
H5 H1+ 8 d 0.519(2) 0.584(1) 0.632(2) 5.5(3) 1. 0
#End of TTdata_169560-ICSD