
#(C) 2018 by FIZ Karlsruhe - Leibniz Institute for Information Infrastructure.  All rights reserved.
data_170569-ICSD
_database_code_ICSD 170569
_audit_creation_date 2006-04-01
_chemical_name_systematic
'Lithium magnesium manganese nickel oxide (0.60/0.03/0.44/0.03/1)'
_chemical_formula_structural 'Li0.60 Mg0.03 Mn0.44 Ni0.03 O'
_chemical_formula_sum 'Li0.6 Mg0.03 Mn0.44 Ni0.03 O1'
_chemical_name_mineral Spinel
_exptl_crystal_density_diffrn 4.37
_publ_section_title

;
Extensive migration of Ni and Mn by lithiation of ordered Li Mg(0.1) Ni(0.4)
Mn(1.5) O4 spinel
;
loop_
_citation_id
_citation_journal_full
_citation_year
_citation_journal_volume
_citation_page_first
_citation_page_last
_citation_journal_id_ASTM
primary 'Journal of the American Chemical Society' 2004 126 13526 13533 JACSAT
loop_
_publ_author_name
'Wagemaker, M.'
'Ooms, F.G.B.'
'Kelder, E.M.'
'Schoonman, J.'
'Kearley, G.J.'
'Mulder, F.M.'
_cell_length_a 5.7375
_cell_length_b 5.7375
_cell_length_c 8.6575(14)
_cell_angle_alpha 90.
_cell_angle_beta 90.
_cell_angle_gamma 90.
_cell_volume 285.
_cell_formula_units_Z 16
_symmetry_space_group_name_H-M 'I 41/a m d Z'
_symmetry_Int_Tables_number 141
_refine_ls_R_factor_all 0.05
loop_
_symmetry_equiv_pos_site_id
_symmetry_equiv_pos_as_xyz
1 'y+1/4, x+3/4, -z+1/4'
2 'y+1/4, -x+3/4, -z+1/4'
3 'x, y+1/2, -z'
4 'x, -y, -z'
5 '-y+3/4, x+3/4, -z+1/4'
6 '-y+3/4, -x+3/4, -z+1/4'
7 '-x, y+1/2, -z'
8 '-x, -y, -z'
9 '-y+3/4, -x+1/4, z+3/4'
10 '-y+3/4, x+1/4, z+3/4'
11 '-x, -y+1/2, z'
12 '-x, y, z'
13 'y+1/4, -x+1/4, z+3/4'
14 'y+1/4, x+1/4, z+3/4'
15 'x, -y+1/2, z'
16 'x, y, z'
17 'y+3/4, x+1/4, -z+3/4'
18 'y+3/4, -x+1/4, -z+3/4'
19 'x+1/2, y, -z+1/2'
20 'x+1/2, -y+1/2, -z+1/2'
21 '-y+1/4, x+1/4, -z+3/4'
22 '-y+1/4, -x+1/4, -z+3/4'
23 '-x+1/2, y, -z+1/2'
24 '-x+1/2, -y+1/2, -z+1/2'
25 '-y+1/4, -x+3/4, z+1/4'
26 '-y+1/4, x+3/4, z+1/4'
27 '-x+1/2, -y, z+1/2'
28 '-x+1/2, y+1/2, z+1/2'
29 'y+3/4, -x+3/4, z+1/4'
30 'y+3/4, x+3/4, z+1/4'
31 'x+1/2, -y, z+1/2'
32 'x+1/2, y+1/2, z+1/2'
loop_
_atom_type_symbol
_atom_type_oxidation_number
Li1+ 1
Mg2+ 2
Ni2+ 2
Mn2+ 2.9091
O2- -2
Li1+ 1
loop_
_atom_site_label
_atom_site_type_symbol
_atom_site_symmetry_multiplicity
_atom_site_Wyckoff_symbol
_atom_site_fract_x
_atom_site_fract_y
_atom_site_fract_z
_atom_site_B_iso_or_equiv
_atom_site_occupancy
_atom_site_attached_hydrogens
Li1 Li1+ 4 a 0. 0.75 0.125 0.0054(6) 0.39612 0
Mg1 Mg2+ 8 d 0. 0. 0.5 0.0054(6) 0.05 0
Ni1 Ni2+ 8 d 0. 0. 0.5 0.0054(6) 0.06231 0
Mn1 Mn2+ 8 d 0. 0. 0.5 0.0054(6) 0.88769 0
O1 O2- 16 h 0. -0.01512 0.73204 0.0054(6) 1. 0
Li2 Li1+ 16 h 0. 0.02354 0.05582 0.0054(6) 0.5 0
#End of TTdata_170569-ICSD