
#(C) 2018 by FIZ Karlsruhe - Leibniz Institute for Information Infrastructure.  All rights reserved.
data_171161-ICSD
_database_code_ICSD 171161
_audit_creation_date 2006-10-01
_audit_update_record 2012-02-01
_chemical_name_systematic 'Lithium magnesium calcium antimonide (1/2/10/9)'
_chemical_formula_structural 'Li Mg Ca10 Sb9'
_chemical_formula_sum 'Ca10 Li1 Mg1 Sb9'
_chemical_name_structure_type LiMgCa10Sb9
_exptl_crystal_density_diffrn 4.2
_cell_measurement_temperature 273.
_publ_section_title

;
New tetragonal structure type for A2 Ca10 Sb9 (A= Li, Mg). Electronic
variability around a Zintl phase
;
loop_
_citation_id
_citation_journal_full
_citation_year
_citation_journal_volume
_citation_page_first
_citation_page_last
_citation_journal_id_ASTM
primary 'Inorganic Chemistry' 2006 45 196 200 INOCAJ
loop_
_publ_author_name
'Ganguli, A.K.'
'Gupta, S.'
'Corbett, J.D.'
_cell_length_a 11.8658(5)
_cell_length_b 11.8658(5)
_cell_length_c 17.181(2)
_cell_angle_alpha 90.
_cell_angle_beta 90.
_cell_angle_gamma 90.
_cell_volume 2419.04
_cell_formula_units_Z 4
_symmetry_space_group_name_H-M 'P 42/m n m'
_symmetry_Int_Tables_number 136
_refine_ls_R_factor_all 0.026
loop_
_symmetry_equiv_pos_site_id
_symmetry_equiv_pos_as_xyz
1 '-y+1/2, x+1/2, -z+1/2'
2 'y+1/2, -x+1/2, -z+1/2'
3 'y, x, -z'
4 '-y, -x, -z'
5 'y+1/2, -x+1/2, z+1/2'
6 '-y+1/2, x+1/2, z+1/2'
7 '-y, -x, z'
8 'y, x, z'
9 'x+1/2, -y+1/2, -z+1/2'
10 '-x+1/2, y+1/2, -z+1/2'
11 'x, y, -z'
12 '-x, -y, -z'
13 '-x+1/2, y+1/2, z+1/2'
14 'x+1/2, -y+1/2, z+1/2'
15 '-x, -y, z'
16 'x, y, z'
loop_
_atom_type_symbol
_atom_type_oxidation_number
Ca2+ 2
Sb2- -2
Sb3- -3
Ca2+ 2
Sb3- -3
Mg2+ 2
Li1+ 1
Sb3- -3
Ca2+ 2
Sb3- -3
loop_
_atom_site_label
_atom_site_type_symbol
_atom_site_symmetry_multiplicity
_atom_site_Wyckoff_symbol
_atom_site_fract_x
_atom_site_fract_y
_atom_site_fract_z
_atom_site_B_iso_or_equiv
_atom_site_occupancy
_atom_site_attached_hydrogens
Ca1 Ca2+ 16 k 0.0126(1) 0.2515(1) 0.1893(1) .016(1) 1. 0
Ca2 Ca2+ 16 k 0.0153(1) 0.3384(1) 0.3967(1) .015(1) 1. 0
Sb1 Sb2- 8 j 0.2237(1) 0.2237(1) 0.3188(1) .015(1) 1. 0
Sb2 Sb2- 8 j 0.3128(1) 0.3128(1) 0.1725(1) .015(1) 1. 0
Sb3 Sb3- 8 i 0.0314(1) 0.3341(1) 0 .013(1) 1. 0
Ca3 Ca2+ 4 g 0.1821(1) 0.8179(1) 0 .018(1) 1. 0
Sb4 Sb3- 4 g 0.3729(1) 0.6271(1) 0 .018(1) 1. 0
Mg1 Mg2+ 4 f 0.1041(2) 0.1041(2) 0 .022(1) 1. 0
Li1 Li1+ 4 f 0.3072(13) 0.3072(13) 0 .016(4) 1. 0
Sb5 Sb3- 4 e 0 0 0.1327(1) .013(1) 1. 0
Ca4 Ca2+ 4 e 0 0 0.3547(1) .021(1) 1. 0
Sb6 Sb3- 4 d 0 .5 .25 .013(1) 1. 0
loop_
_atom_site_aniso_label
_atom_site_aniso_type_symbol
_atom_site_aniso_U_11
_atom_site_aniso_U_22
_atom_site_aniso_U_33
_atom_site_aniso_U_12
_atom_site_aniso_U_13
_atom_site_aniso_U_23
Ca1 Ca2+ 0.011(1) 0.021(1) 0.016(1) 0.001(1) 0.001(1) 0.002(1)
Ca2 Ca2+ 0.015(1) 0.016(1) 0.015(1) -0.001(1) .000(1) -0.001(1)
Sb1 Sb2- 0.013(1) 0.013(1) 0.019(1) 0.003(1) 0.002(1) 0.002(1)
Sb2 Sb2- 0.015(1) 0.015(1) 0.016(1) 0.003(1) -0.002(1) -0.002(1)
Sb3 Sb3- 0.011(1) 0.014(1) 0.013(1) -0.002(1) 0 0
Ca3 Ca2+ 0.014(1) 0.014(1) 0.024(1) -0.003(1) 0 0
Sb4 Sb3- 0.019(1) 0.019(1) 0.014(1) 0.003(1) 0 0
Mg1 Mg2+ 0.023(1) 0.023(1) 0.020(1) 0.005(1) 0 0
Li1 Li1+ 0.024(7) 0.024(7) .005(7) 0.022(4) 0 0
Sb5 Sb3- 0.011(1) 0.011(1) 0.016(1) -0.001(1) 0 0
Ca4 Ca2+ 0.018(1) 0.018(1) 0.027(1) -0.001(1) 0 0
Sb6 Sb3- 0.009(1) 0.009(1) 0.011(1) 0 0 0
#End of TTdata_171161-ICSD