
#(C) 2017 by FIZ Karlsruhe - Leibniz Institute for Information Infrastructure.  All rights reserved.
data_171375-ICSD
_database_code_ICSD 171375
_audit_creation_date 2006-10-01
_chemical_name_systematic 'Lithium tetrafluoroborate'
_chemical_formula_structural 'Li B F4'
_chemical_formula_sum 'B1 F4 Li1'
_chemical_name_structure_type Berlinite-AlPO4
_exptl_crystal_density_diffrn 2.05
_cell_measurement_temperature 200.
_publ_section_title

;
Anomalously large formula unit volume and its effect on the thermal behavior
of Li B F4
;
loop_
_citation_id
_citation_journal_full
_citation_year
_citation_journal_volume
_citation_page_first
_citation_page_last
_citation_journal_id_ASTM
primary 'Journal of Physical Chemistry B' 2006 110 2138 2141 JPCBFK
loop_
_publ_author_name
'Matsumoto, K.'
'Hagiwara, R.'
'Mazej, Z.'
'Goreshnik, E.'
'Zemva, B.'
_cell_length_a 4.892(5)
_cell_length_b 4.892(5)
_cell_length_c 11.002(12)
_cell_angle_alpha 90
_cell_angle_beta 90
_cell_angle_gamma 120
_cell_volume 228.02
_cell_formula_units_Z 3
_symmetry_space_group_name_H-M 'P 31 2 1'
_symmetry_Int_Tables_number 152
_refine_ls_R_factor_all 0.0413
loop_
_symmetry_equiv_pos_site_id
_symmetry_equiv_pos_as_xyz
1 'x-y, -y, -z+2/3'
2 '-x, -x+y, -z+1/3'
3 'y, x, -z'
4 '-x+y, -x, z+2/3'
5 '-y, x-y, z+1/3'
6 'x, y, z'
loop_
_atom_type_symbol
_atom_type_oxidation_number
F1- -1
B3+ 3
Li1+ 1
loop_
_atom_site_label
_atom_site_type_symbol
_atom_site_symmetry_multiplicity
_atom_site_Wyckoff_symbol
_atom_site_fract_x
_atom_site_fract_y
_atom_site_fract_z
_atom_site_B_iso_or_equiv
_atom_site_occupancy
_atom_site_attached_hydrogens
F1 F1- 6 c 0.4214(6) 0.2458(5) 0.87424(16) 0.0517(6) 1 0
F2 F1- 6 c 0.5740(6) -0.1045(4) 0.92817(14) 0.0497(6) 1 0
B1 B3+ 3 b 0.4616(9) 0. 0.8333 0.0330(9) 1 0
Li1 Li1+ 3 a 0.5378(16) 0.5378(16) 1. 0.0427(15) 1 0
loop_
_atom_site_aniso_label
_atom_site_aniso_type_symbol
_atom_site_aniso_U_11
_atom_site_aniso_U_22
_atom_site_aniso_U_33
_atom_site_aniso_U_12
_atom_site_aniso_U_13
_atom_site_aniso_U_23
F1 F1- 0.0687(14) 0.0475(10) 0.0490(10) 0.0366(10) -0.0123(10) -0.0131(8)
F2 F1- 0.0657(12) 0.0452(10) 0.0427(9) 0.0311(10) -0.0070(9) 0.0040(8)
B1 B3+ 0.0364(18) 0.0267(18) 0.0326(19) 0.0133(9) -0.0012(8) -0.0024(16)
Li1 Li1+ 0.050(3) 0.050(3) 0.036(3) 0.031(4) -0.0015(15) 0.0015(15)
#End of TTdata_171375-ICSD