
#(C) 2018 by FIZ Karlsruhe - Leibniz Institute for Information Infrastructure.  All rights reserved.
data_172040-ICSD
_database_code_ICSD 172040
_audit_creation_date 2007-04-01
_audit_update_record 2008-02-01
_chemical_name_systematic 'Dipraseodymium barium lithium ruthenium(V) oxide'
_chemical_formula_structural 'Pr2 Ba Li Ru O7'
_chemical_formula_sum 'Ba1 Li1 O7 Pr2 Ru1'
_chemical_name_structure_type BaLiPr2RuO7
_exptl_crystal_density_diffrn 6.61
_publ_section_title 'Structural chemistry of Ln2 Ba Li Ru O7 (Ln = La, Pr)'
loop_
_citation_id
_citation_journal_full
_citation_year
_citation_journal_volume
_citation_page_first
_citation_page_last
_citation_journal_id_ASTM
primary 'Solid State Sciences' 2006 8 280 288 SSSCFJ
loop_
_publ_author_name
'Battle, P.D.'
'Grey, C.P.'
'Rodgers, J.A.'
'Sloan, J.'
_cell_length_a 5.59656(7)
_cell_length_b 5.58147(8)
_cell_length_c 20.5643(3)
_cell_angle_alpha 90
_cell_angle_beta 90.007(2)
_cell_angle_gamma 90
_cell_volume 642.37
_cell_formula_units_Z 4
_symmetry_space_group_name_H-M 'B 1 21 1'
_symmetry_Int_Tables_number 4
_refine_ls_R_factor_all 0.0471
loop_
_symmetry_equiv_pos_site_id
_symmetry_equiv_pos_as_xyz
1 '-x, -y+1/2, -z'
2 'x, y, z'
3 '-x+1/2, -y+1/2, -z+1/2'
4 'x+1/2, y, z+1/2'
loop_
_atom_type_symbol
_atom_type_oxidation_number
Ba2+ 2
Pr3+ 3
Li1+ 1
Ru5+ 5
Li1+ 1
Ru5+ 5
O2- -2
loop_
_atom_site_label
_atom_site_type_symbol
_atom_site_symmetry_multiplicity
_atom_site_Wyckoff_symbol
_atom_site_fract_x
_atom_site_fract_y
_atom_site_fract_z
_atom_site_B_iso_or_equiv
_atom_site_occupancy
_atom_site_attached_hydrogens
Ba1 Ba2+ 4 a 0.7461(8) 0.75 0.0013(2) 0.0066(7) 1. 0
Pr1 Pr3+ 4 a 0.722(1) 0.734(3) 0.1821(2) 0.0029(1) 1. 0
Pr2 Pr3+ 4 a 0.256(1) 0.255(3) 0.1817(2) .006(1) 1. 0
Li1 Li1+ 4 a 0.238(5) 0.770(4) 0.1051(8) 0.0017(7) .915(4) 0
Ru1 Ru5+ 4 a 0.238(5) 0.770(4) 0.1051(8) 0.0017(7) .085(4) 0
Li2 Li1+ 4 a 0.748(1) 0.240(3) 0.1023(2) 0.0017(7) .085(4) 0
Ru2 Ru5+ 4 a 0.748(1) 0.240(3) 0.1023(2) 0.0017(7) .915(4) 0
O1 O2- 4 a 0.2285(9) 0.746(3) -.0088(2) 0.0107(3) 1. 0
O2 O2- 4 a 0.499(2) 0.491(3) 0.1010(5) 0.0107(3) 1. 0
O3 O2- 4 a -0.012(2) 0.490(3) 0.1134(5) 0.0107(3) 1. 0
O4 O2- 4 a 0.7075(9) 0.244(3) 0.2049(2) 0.0107(3) 1. 0
O5 O2- 4 a 0.000(2) 0.997(3) 0.1155(5) 0.0107(3) 1. 0
O6 O2- 4 a 0.313(1) 0.800(2) 0.2108(3) 0.0107(3) 1. 0
O7 O2- 4 a 0.506(2) 0.000(3) 0.1024(5) 0.0107(3) 1. 0
#End of TTdata_172040-ICSD