
#(C) 2018 by FIZ Karlsruhe - Leibniz Institute for Information Infrastructure.  All rights reserved.
data_172988-ICSD
_database_code_ICSD 172988
_audit_creation_date 2008-02-01
_chemical_name_systematic 'Lithium trihydrogen diarsenate(V)'
_chemical_formula_structural 'Li H3 As2 O7'
_chemical_formula_sum 'H3 As2 Li1 O7'
_exptl_crystal_density_diffrn 3.4
_cell_measurement_temperature 293.
_publ_section_title
'Octahedral As in M(+) arsenates - architecture and seven new members'
loop_
_citation_id
_citation_journal_full
_citation_year
_citation_journal_volume
_citation_page_first
_citation_page_last
_citation_journal_id_ASTM
primary 'Acta Crystallographica, Section B: Structural Science' 2007 63 205 215
ASBSDK
loop_
_publ_author_name
'Schwendtner, K.'
'Kolitsch, U.'
_cell_length_a 11.456(2)
_cell_length_b 9.133(2)
_cell_length_c 5.6300(10)
_cell_angle_alpha 90.
_cell_angle_beta 115.56(3)
_cell_angle_gamma 90.
_cell_volume 531.41
_cell_formula_units_Z 4
_symmetry_space_group_name_H-M 'C 1 2/m 1'
_symmetry_Int_Tables_number 12
_refine_ls_R_factor_all 0.0198
loop_
_symmetry_equiv_pos_site_id
_symmetry_equiv_pos_as_xyz
1 '-x, y, -z'
2 '-x, -y, -z'
3 'x, -y, z'
4 'x, y, z'
5 '-x+1/2, y+1/2, -z'
6 '-x+1/2, -y+1/2, -z'
7 'x+1/2, -y+1/2, z'
8 'x+1/2, y+1/2, z'
loop_
_atom_type_symbol
_atom_type_oxidation_number
Li1+ 1
As5+ 5
O2- -2
H1+ 1
loop_
_atom_site_label
_atom_site_type_symbol
_atom_site_symmetry_multiplicity
_atom_site_Wyckoff_symbol
_atom_site_fract_x
_atom_site_fract_y
_atom_site_fract_z
_atom_site_B_iso_or_equiv
_atom_site_occupancy
_atom_site_attached_hydrogens
Li1 Li1+ 4 g 0.5 0.3467(5) 1. 0.0192(9) 1 0
As1 As5+ 4 i 0.27148(2) 0. 0.04473(4) 0.00887(7) 1 0
As2 As5+ 4 h 0.5 0.15318(2) 0.5 0.00829(7) 1 0
O1 O2- 4 i 0.13472(17) 0. 0.0696(4) 0.0144(3) 1 0
O2 O2- 8 j 0.36385(12) 0.15401(13) 0.1637(2) 0.0127(2) 1 0
O3 O2- 4 i 0.23459(17) 0. -0.2852(3) 0.0122(3) 1 0
O4 O2- 8 j 0.42544(13) 0.28002(15) 0.6282(2) 0.0157(2) 1 0
O5 O2- 4 i 0.42362(16) 0. 0.5892(3) 0.0105(3) 1 0
H1 H1+ 8 j 0.384(3) 0.334(3) 0.531(6) 0.036(9) 1 0
H2 H1+ 4 i 0.290(5) 0. -0.303(9) 0.045(14) 1 0
loop_
_atom_site_aniso_label
_atom_site_aniso_type_symbol
_atom_site_aniso_U_11
_atom_site_aniso_U_22
_atom_site_aniso_U_33
_atom_site_aniso_U_12
_atom_site_aniso_U_13
_atom_site_aniso_U_23
Li1 Li1+ 0.018(2) 0.020(2) 0.016(2) 0. 0.0042(18) 0.
As1 As5+ 0.00689(11) 0.01061(12) 0.00783(11) 0. 0.00198(8) 0.
As2 As5+ 0.00846(11) 0.00755(11) 0.00799(11) 0. 0.00273(8) 0.
O1 O2- 0.0100(7) 0.0167(8) 0.0191(8) 0. 0.0088(7) 0.
O2 O2- 0.0113(5) 0.0106(5) 0.0105(5) -0.0011(4) -0.0007(4) 0.0008(4)
O3 O2- 0.0102(8) 0.0182(8) 0.0086(7) 0. 0.0044(6) 0.
O4 O2- 0.0189(6) 0.0141(6) 0.0122(5) 0.0079(5) 0.0050(5) -0.0009(5)
O5 O2- 0.0112(7) 0.0082(7) 0.0147(7) 0. 0.0080(6) 0.
#End of TTdata_172988-ICSD