
#(C) 2017 by FIZ Karlsruhe - Leibniz Institute for Information Infrastructure.  All rights reserved.
data_173704-ICSD
_database_code_ICSD 173704
_audit_creation_date 2009-08-01
_chemical_name_systematic 'Rubidium potassium lithium hexafluoroaluminate'
_chemical_formula_structural '(Rb0.96 K1.04) Li Al F6'
_chemical_formula_sum 'Al1 F6 K1.04 Li1 Rb0.96'
_chemical_name_structure_type Ba2NiTeO6
_chemical_name_mineral Elpasolite
_exptl_crystal_density_diffrn 3.42
_publ_section_title

;
Synthesis and crystal structure of Rb K Li Al F6 - the first Al-elpasolite
with three different alkali metals
;
loop_
_citation_id
_citation_journal_full
_citation_year
_citation_journal_volume
_citation_page_first
_citation_page_last
_citation_journal_id_ASTM
primary 'Zeitschrift fuer Anorganische und Allgemeine Chemie (1950) (DE)' 2008
634 2978 2981 ZAACAB
loop_
_publ_author_name
'Ahrens, M.'
'Scholz, G.'
'Kemnitz, E.'
_cell_length_a 5.71942(7)
_cell_length_b 5.71942(7)
_cell_length_c 27.8655(4)
_cell_angle_alpha 90.
_cell_angle_beta 90.
_cell_angle_gamma 120.
_cell_volume 789.41
_cell_formula_units_Z 6
_symmetry_space_group_name_H-M 'R -3 m H'
_symmetry_Int_Tables_number 166
_refine_ls_R_factor_all 0.0547
loop_
_symmetry_equiv_pos_site_id
_symmetry_equiv_pos_as_xyz
1 'x-y, -y, -z'
2 '-x, -x+y, -z'
3 'y, x, -z'
4 'x-y, x, -z'
5 'y, -x+y, -z'
6 '-x, -y, -z'
7 '-x+y, y, z'
8 'x, x-y, z'
9 '-y, -x, z'
10 '-x+y, -x, z'
11 '-y, x-y, z'
12 'x, y, z'
13 'x-y+2/3, -y+1/3, -z+1/3'
14 '-x+2/3, -x+y+1/3, -z+1/3'
15 'y+2/3, x+1/3, -z+1/3'
16 'x-y+2/3, x+1/3, -z+1/3'
17 'y+2/3, -x+y+1/3, -z+1/3'
18 '-x+2/3, -y+1/3, -z+1/3'
19 '-x+y+2/3, y+1/3, z+1/3'
20 'x+2/3, x-y+1/3, z+1/3'
21 '-y+2/3, -x+1/3, z+1/3'
22 '-x+y+2/3, -x+1/3, z+1/3'
23 '-y+2/3, x-y+1/3, z+1/3'
24 'x+2/3, y+1/3, z+1/3'
25 'x-y+1/3, -y+2/3, -z+2/3'
26 '-x+1/3, -x+y+2/3, -z+2/3'
27 'y+1/3, x+2/3, -z+2/3'
28 'x-y+1/3, x+2/3, -z+2/3'
29 'y+1/3, -x+y+2/3, -z+2/3'
30 '-x+1/3, -y+2/3, -z+2/3'
31 '-x+y+1/3, y+2/3, z+2/3'
32 'x+1/3, x-y+2/3, z+2/3'
33 '-y+1/3, -x+2/3, z+2/3'
34 '-x+y+1/3, -x+2/3, z+2/3'
35 '-y+1/3, x-y+2/3, z+2/3'
36 'x+1/3, y+2/3, z+2/3'
loop_
_atom_type_symbol
_atom_type_oxidation_number
Rb1+ 1
K1+ 1
Rb1+ 1
K1+ 1
Li1+ 1
Al3+ 3
F1- -1
loop_
_atom_site_label
_atom_site_type_symbol
_atom_site_symmetry_multiplicity
_atom_site_Wyckoff_symbol
_atom_site_fract_x
_atom_site_fract_y
_atom_site_fract_z
_atom_site_B_iso_or_equiv
_atom_site_occupancy
_atom_site_attached_hydrogens
Rb1 Rb1+ 6 c 0 0 0.12746(4) 1.88(4) 0.378 0
K1 K1+ 6 c 0 0 0.12746(4) 1.88(4) 0.624 0
Rb2 Rb1+ 6 c 0 0 0.28160(3) 1.66(3) 0.582(6) 0
K2 K1+ 6 c 0 0 0.28160(3) 1.66(3) 0.420(6) 0
Li1 Li1+ 6 c 0 0 0.4034(6) 4.9(5) 1. 0
Al1 Al3+ 3 a 0 0 0 0.73(6) 1. 0
Al2 Al3+ 3 b 0 0 0.5 1.46(7) 1. 0
F1 F1- 18 h 0.1444(2) -0.1444(2) 0.46065(6) 1.80(7) 1. 0
F2 F1- 18 h 0.1824(2) -0.1824(2) 0.62998(7) 1.51(7) 1. 0
#End of TTdata_173704-ICSD