
#(C) 2018 by FIZ Karlsruhe - Leibniz Institute for Information Infrastructure.  All rights reserved.
data_173799-ICSD
_database_code_ICSD 173799
_audit_creation_date 2009-08-01
_chemical_name_systematic 'Trilithium heptauranyl pentakis(vanadate) oxide'
_chemical_formula_structural 'Li3 (U O2)7 (V O4)5 O'
_chemical_formula_sum 'Li3 O35 U7 V5'
_exptl_crystal_density_diffrn 5.4
_cell_measurement_temperature 296.
_publ_section_title

;
New open-framework in the uranyl vanadates A3 (U O2)7 (V O4)5 O (A = Li, Ag)
with intergrowth structure between A (U O2)4 (V O4)3 and A2 (U O2)3 (V O4)2 O
;
loop_
_citation_id
_citation_journal_full
_citation_year
_citation_journal_volume
_citation_page_first
_citation_page_last
_citation_journal_id_ASTM
primary 'Journal of Solid State Chemistry' 2009 182 413 420 JSSCBI
loop_
_publ_author_name
'Obbade, S.'
'Renard, C.'
'Abraham, F.'
_cell_length_a 7.2794(9)
_cell_length_b 7.2794(9)
_cell_length_c 14.514(4)
_cell_angle_alpha 90.
_cell_angle_beta 90.
_cell_angle_gamma 90.
_cell_volume 769.09
_cell_formula_units_Z 1
_symmetry_space_group_name_H-M 'P -4 m 2'
_symmetry_Int_Tables_number 115
_refine_ls_R_factor_all 0.021
loop_
_symmetry_equiv_pos_site_id
_symmetry_equiv_pos_as_xyz
1 '-y, -x, -z'
2 'x, -y, z'
3 'y, x, -z'
4 '-x, y, z'
5 'y, -x, -z'
6 '-x, -y, z'
7 '-y, x, -z'
8 'x, y, z'
loop_
_atom_type_symbol
_atom_type_oxidation_number
U6+ 6
V5+ 5
O2- -2
Li1+ 1
loop_
_atom_site_label
_atom_site_type_symbol
_atom_site_symmetry_multiplicity
_atom_site_Wyckoff_symbol
_atom_site_fract_x
_atom_site_fract_y
_atom_site_fract_z
_atom_site_B_iso_or_equiv
_atom_site_occupancy
_atom_site_attached_hydrogens
U1 U6+ 1 b 0.5 0.5 0 0.0148(4) 1. 0
U2 U6+ 2 g 0.5 0 0.43218(5) 0.0086(3) 1. 0
U3 U6+ 2 e 0 0 0.14504(6) 0.0108(3) 1. 0
U4 U6+ 2 g 0.5 0 0.72515(5) 0.0136(2) 1. 0
V1 V5+ 2 e 0 0 0.3711(2) 0.0103(7) 1. 0
V2 V5+ 2 g 0.5 0 0.9471(2) 0.0092(7) 1. 0
V3 V5+ 1 c 0.5 0.5 0.5 0.0278(9) 1. 0
O1 O2- 1 a 0 0 0 0.009(4) 1. 0
O2 O2- 4 j 0.800(2) 0 0.4328(9) 0.025(3) 1. 0
O3 O2- 4 k 0.5 0.814(2) 0.0159(8) 0.022(2) 1. 0
O4 O2- 2 f 0.5 0.5 0.8750(12) 0.027(4) 1. 0
O5 O2- 4 j 0.325(2) 0 0.8710(7) 0.024(3) 1. 0
O6 O2- 2 g 0.5 0 0.3084(11) 0.034(4) 1. 0
O7 O2- 4 j 0 0.820(1) 0.2944(8) 0.020(2) 1. 0
O8 O2- 4 k 0.694(2) 0.5 0.5673(9) 0.031(3) 1. 0
O9 O2- 2 g 0.5 0 0.5603(11) 0.028(5) 1. 0
O10 O2- 4 k 0.5 0.761(1) 0.7242(8) 0.020(2) 1. 0
O11 O2- 4 j 0.754(1) 0 0.1497(8) 0.026(3) 1. 0
Li1 Li1+ 2 f 0.5 0.5 0.711(10) 0.028(8) 0.75 0
Li2 Li1+ 2 g 0.5 0 0.161(11) 0.039(9) 0.75 0
#End of TTdata_173799-ICSD