
#(C) 2018 by FIZ Karlsruhe - Leibniz Institute for Information Infrastructure.  All rights reserved.
data_173883-ICSD
_database_code_ICSD 173883
_audit_creation_date 2009-08-01
_audit_update_record 2013-02-01
_chemical_name_systematic
'Trilithium heptakis(uranyl) pentakis(phosphate(V)) oxide'
_chemical_formula_structural 'Li3 (U O2)7 (P O4)5 O'
_chemical_formula_sum 'Li3 O35 P5 U7'
_exptl_crystal_density_diffrn 5.55
_cell_measurement_temperature 293.
_publ_section_title

;
Channels occupany and distortion in new lithium uranyl phosphates with
three-dimensional open-frameworks
;
loop_
_citation_id
_citation_journal_full
_citation_year
_citation_journal_volume
_citation_page_first
_citation_page_last
_citation_journal_id_ASTM
primary 'Journal of Solid State Chemistry' 2009 182 1377 1386 JSSCBI
loop_
_publ_author_name
'Renard, C.'
'Obbade, S.'
'Abraham, F.'
_cell_length_a 9.9305(2)
_cell_length_b 9.9305(2)
_cell_length_c 14.5741(3)
_cell_angle_alpha 90.
_cell_angle_beta 90.
_cell_angle_gamma 90.
_cell_volume 1437.22
_cell_formula_units_Z 2
_symmetry_space_group_name_H-M 'P -4 21 m'
_symmetry_Int_Tables_number 113
_refine_ls_R_factor_all 0.0348
loop_
_symmetry_equiv_pos_site_id
_symmetry_equiv_pos_as_xyz
1 '-y+1/2, -x+1/2, z'
2 'y, -x, -z'
3 'y+1/2, x+1/2, z'
4 '-y, x, -z'
5 'x+1/2, -y+1/2, -z'
6 '-x, -y, z'
7 '-x+1/2, y+1/2, -z'
8 'x, y, z'
loop_
_atom_type_symbol
_atom_type_oxidation_number
U6+ 6
P5+ 5
O2- -2
Li1+ 1
loop_
_atom_site_label
_atom_site_type_symbol
_atom_site_symmetry_multiplicity
_atom_site_Wyckoff_symbol
_atom_site_fract_x
_atom_site_fract_y
_atom_site_fract_z
_atom_site_B_iso_or_equiv
_atom_site_occupancy
_atom_site_attached_hydrogens
U1 U6+ 2 c 0 0.5 0.01069(3) 0.00466(7) 1. 0
U2 U6+ 4 d 0 0 0.14388(2) 0.00359(6) 1. 0
U3 U6+ 4 e 0.26226(2) 0.76226(2) 0.27987(2) 0.00339(5) 1. 0
U4 U6+ 4 e 0.24833(2) 0.74833(2) 0.56959(2) 0.00167(5) 1. 0
P1 P5+ 4 d 0 0 0.3648(1) 0.0017(4) 1. 0
P2 P5+ 4 e 0.2541(2) 0.7541(2) 0.0623(2) 0.0043(4) 1. 0
P3 P5+ 2 c 0.5 0 0.5129(2) 0.0047(4) 1. 0
O1 O2- 4 e 0.3375(4) 0.8375(4) -0.0040(5) 0.014(2) 1. 0
O2 O2- 4 e 0.1641(1) 0.6641(4) 0.0044(5) 0.012(2) 1. 0
O3 O2- 4 e 0.5870(4) 0.0870(4) 0.5790(4) 0.013(2) 1. 0
O4 O2- 8 f 0.0918(4) -0.0778(4) 0.2982(3) 0.0083(9) 1. 0
O5 O2- 8 f 0.3401(4) 0.6729(4) 0.1303(3) 0.011(1) 1. 0
O6 O2- 4 e 0.2343(4) 0.7343(4) 0.6923(4) 0.017(2) 1. 0
O7 O2- 8 f -0.0834(4) -0.0960(4) 0.4226(3) 0.008(1) 1. 0
O8 O2- 4 e 0.5903(4) 0.9097(4) 0.4547(3) 0.011(2) 1. 0
O9 O2- 2 c 0 0.5 0.1301(5) 0.017(2) 1. 0
O10 O2- 4 e 0.2631(4) 0.7631(4) 0.4426(4) 0.010(1) 1. 0
O11 O2- 2 c 0 0.5 0.8888(5) 0.036(2) 1. 0
O12 O2- 4 e 0.3868(4) 0.8868(4) 0.2787(4) 0.014(2) 1. 0
O13 O2- 8 f 0.1230(4) 0.1318(4) 0.1487(3) 0.015(2) 1. 0
O14 O2- 4 e 0.1355(4) 0.6355(4) 0.2803(4) 0.012(2) 1. 0
O15 O2- 2 a 0 0 0 0.012(2) 1. 0
Li1 Li1+ 4 e 0.290(2) 0.210(2) 0.132(2) 0.063(7) 1. 0
Li2 Li1+ 2 c 0 0.5 0.305(2) 0.08(2) 1. 0
loop_
_atom_site_aniso_label
_atom_site_aniso_type_symbol
_atom_site_aniso_U_11
_atom_site_aniso_U_22
_atom_site_aniso_U_33
_atom_site_aniso_U_12
_atom_site_aniso_U_13
_atom_site_aniso_U_23
U1 U6+ 0.0048(2) 0.0048(2) 0.0044(2) 0.0010(2) 0 0
U2 U6+ 0.0045(2) 0.0047(1) 0.0015(2) 0.0037(2) 0 0
U3 U6+ 0.00363(6) 0.00363(6) 0.0029(2) 0.00242(8) 0.00070(5) 0.00070(5)
U4 U6+ 0.00116(7) 0.00116(7) 0.0027(2) 0.00040(9) 0.00003(4) 0.00003(4)
P1 P5+ 0.0026(6) 0.0019(6) 0.0010(7) 0.0003(6) 0 0
P2 P5+ 0.0043(5) 0.0043(5) 0.0044(8) 0.0024(7) 0.0007(2) 0.0007(3)
P3 P5+ 0.0030(6) 0.0030(6) 0.0082(9) 0.0010(7) 0 0
O1 O2- 0.012(2) 0.012(2) 0.017(3) -0.007(2) -0.002(2) -0.002(2)
O2 O2- 0.012(2) 0.012(2) 0.011(3) -0.008(2) 0.003(2) 0.003(2)
O3 O2- 0.008(2) 0.008(2) 0.025(3) -0.003(2) -0.004(2) -0.004(2)
O4 O2- 0.014(2) 0.010(2) 0.001(2) 0.009(2) 0.002(2) -0.002(2)
O5 O2- 0.015(2) 0.011(2) 0.007(2) 0.012(2) -0.000(2) 0.001(2)
O6 O2- 0.023(2) 0.023(2) 0.005(3) 0.008(3) 0.010(2) 0.010(2)
O7 O2- 0.010(2) 0.008(2) 0.008(2) -0.008(2) 0.004(2) 0.003(2)
O8 O2- 0.011(2) 0.011(2) 0.010(2) 0.007(2) 0.001(2) -0.001(2)
O9 O2- 0.022(3) 0.022(3) 0.007(3) 0.004(4) 0 0
O10 O2- 0.012(2) 0.012(2) 0.006(2) -0.002(2) 0.000(2) 0.000(2)
O11 O2- 0.055(5) 0.055(5) 0.002(3) 0.035(6) 0 0
O12 O2- 0.018(2) 0.018(2) 0.006(2) -0.008(2) -0.001(2) -0.001(2)
O13 O2- 0.016(2) 0.013(2) 0.017(2) -0.013(2) -0.001(2) 0.000(2)
O14 O2- 0.014(2) 0.014(2) 0.008(2) -0.006(2) 0.001(2) 0.001(2)
O15 O2- 0.018(3) 0.018(3) 0.002(4) 0 0 0
#End of TTdata_173883-ICSD