
#(C) 2018 by FIZ Karlsruhe - Leibniz Institute for Information Infrastructure.  All rights reserved.
data_173993-ICSD
_database_code_ICSD 173993
_audit_creation_date 2010-02-01
_chemical_name_systematic 'Lithium oxalate'
_chemical_formula_structural 'Li2 (C2 O4)'
_chemical_formula_sum 'C2 Li2 O4'
_exptl_crystal_density_diffrn 2.14
_publ_section_title 'The structure of lithium oxalate'
loop_
_citation_id
_citation_journal_full
_citation_year
_citation_journal_volume
_citation_page_first
_citation_page_last
_citation_journal_id_ASTM
primary 'Acta Crystallographica' 1964 17 783 788 ACCRA9
loop_
_publ_author_name
'Beagley, B.'
'Small, R.W.H.'
_cell_length_a 3.400(1)
_cell_length_b 5.156(2)
_cell_length_c 9.055(3)
_cell_angle_alpha 90
_cell_angle_beta 95.36(1)
_cell_angle_gamma 90
_cell_volume 158.04
_cell_formula_units_Z 2
_symmetry_space_group_name_H-M 'P 1 21/n 1'
_symmetry_Int_Tables_number 14
loop_
_symmetry_equiv_pos_site_id
_symmetry_equiv_pos_as_xyz
1 '-x+1/2, y+1/2, -z+1/2'
2 '-x, -y, -z'
3 'x+1/2, -y+1/2, z+1/2'
4 'x, y, z'
loop_
_atom_type_symbol
_atom_type_oxidation_number
C3+ 3
O2- -2
Li1+ 1
loop_
_atom_site_label
_atom_site_type_symbol
_atom_site_symmetry_multiplicity
_atom_site_Wyckoff_symbol
_atom_site_fract_x
_atom_site_fract_y
_atom_site_fract_z
_atom_site_B_iso_or_equiv
_atom_site_occupancy
_atom_site_attached_hydrogens
C1 C3+ 4 e 0.10582 0.13418 0.00738 . 1. 0
O1 O2- 4 e 0.13313 0.23698 0.13379 . 1. 0
O2 O2- 4 e 0.23847 0.22028 -0.10649 . 1. 0
Li1 Li1+ 4 e -0.0567 -0.01344 0.29179 . 1. 0
loop_
_atom_site_aniso_label
_atom_site_aniso_type_symbol
_atom_site_aniso_beta_11
_atom_site_aniso_beta_22
_atom_site_aniso_beta_33
_atom_site_aniso_beta_12
_atom_site_aniso_beta_13
_atom_site_aniso_beta_23
C1 C3+ 0.0437 0.01649 0.0056 -0.002 0.00564 0.00124
O1 O2- 0.07504 0.02191 0.00553 -0.01896 0.00848 -0.00414
O2 O2- 0.0632 0.02119 0.00608 0.00832 0.01508 0.002
Li1 Li1+ 0.1081 0.02654 0.00693 0.03937 0.00312 -0.00285
#End of TTdata_173993-ICSD