
#(C) 2018 by FIZ Karlsruhe - Leibniz Institute for Information Infrastructure.  All rights reserved.
data_174128-ICSD
_database_code_ICSD 174128
_audit_creation_date 2010-02-01
_audit_update_record 2011-02-01
_chemical_name_systematic
'Hexalithium dodecakis(uranyl) octakis(phosphate(V)) tetraphosphate(V)'
_chemical_formula_structural 'Li6 ((U O2)12 (P O4)8 (P4 O13))'
_chemical_formula_sum 'Li6 O69 P12 U12'
_exptl_crystal_density_diffrn 4.86
_publ_section_title

;
Crystal chemistry of anhydrous Li uranyl phosphates and arsenates. II. Tubular
fragments and cation-cation interactions in the 3D framework structures of Li6
[(U O2)12 (P O4)8 (P4 O13)], Li5 [(U O2)13 (As O4)90 (As2 O7)], Li [(U O2)4
(As O4)3] and Li3 [(U O2)7 (As O4)5 O]
;
loop_
_citation_id
_citation_journal_full
_citation_year
_citation_journal_volume
_citation_page_first
_citation_page_last
_citation_journal_id_ASTM
primary 'Journal of Solid State Chemistry' 2009 182 2977 2984 JSSCBI
loop_
_publ_author_name
'Alekseev, E.V.'
'Krivovichev, S.V.'
'Depmeier, W.'
_cell_length_a 26.963(3)
_cell_length_b 7.063(1)
_cell_length_c 19.639(1)
_cell_angle_alpha 90
_cell_angle_beta 126.890(4)
_cell_angle_gamma 90
_cell_volume 2991.25
_cell_formula_units_Z 2
_symmetry_space_group_name_H-M 'C 1 2/m 1'
_symmetry_Int_Tables_number 12
_refine_ls_R_factor_all 0.0357
loop_
_symmetry_equiv_pos_site_id
_symmetry_equiv_pos_as_xyz
1 '-x, y, -z'
2 '-x, -y, -z'
3 'x, -y, z'
4 'x, y, z'
5 '-x+1/2, y+1/2, -z'
6 '-x+1/2, -y+1/2, -z'
7 'x+1/2, -y+1/2, z'
8 'x+1/2, y+1/2, z'
loop_
_atom_type_symbol
_atom_type_oxidation_number
U6+ 6
P5+ 5
O2- -2
Li1+ 1
loop_
_atom_site_label
_atom_site_type_symbol
_atom_site_symmetry_multiplicity
_atom_site_Wyckoff_symbol
_atom_site_fract_x
_atom_site_fract_y
_atom_site_fract_z
_atom_site_B_iso_or_equiv
_atom_site_occupancy
_atom_site_attached_hydrogens
U1 U6+ 4 i 0.41018(2) 0 0.09083(2) 0.01423(8) 1. 0
U2 U6+ 4 i 0.84192(1) 0.5 0.48070(2) 0.01269(8) 1. 0
U3 U6+ 4 i 0.34731(2) 0.5 -0.03225(2) 0.01312(8) 1. 0
U4 U6+ 4 i 0.59134(1) 0.5 0.24543(2) 0.01294(8) 1. 0
U5 U6+ 4 i 0.65867(1) 0 0.23599(2) 0.01310(8) 1. 0
U6 U6+ 4 i 0.65175(1) 0.5 0.73919(2) 0.01501(8) 1. 0
P1 P5+ 4 i 0.7116(1) 0.5 0.24926(1) 0.0120(5) 1. 0
P2 P5+ 4 i 0.5636(1) 0 0.2800(1) 0.0128(5) 1. 0
P3 P5+ 4 i 0.4354(1) 0.5 0.1684(1) 0.0122(5) 1. 0
P4 P5+ 4 i 0.8634(1) 0 0.4614(1) 0.0148(6) 1. 0
P5 P5+ 4 i 0.2934(1) 0 -0.1030(1) 0.0147(6) 1. 0
P6 P5+ 8 j 0.9978(2) -0.1064(6) 0.5731(2) 0.0179(9) 0.5 0
O1 O2- 8 j 0.4152(2) -0.6671(7) 0.1056(3) 0.022(1) 1. 0
O2 O2- 8 j 0.8415(2) -0.1715(7) 0.4841(3) 0.020(1) 1. 0
O3 O2- 8 j 0.5869(2) -0.1684(6) 0.2555(3) 0.014(1) 1. 0
O4 O2- 8 j 0.3354(2) 0.1687(7) -0.0491(3) 0.024(2) 1. 0
O5 O2- 4 i 0.5932(3) 0 0.3744(4) 0.020(2) 1. 0
O6 O2- 4 i 0.4122(3) 0.5 -0.0366(5) 0.031(2) 1. 0
O7 O2- 8 j 0.6711(2) -0.3323(7) 0.2396(3) 0.017(1) 1. 0
O8 O2- 4 i 0.4932(3) 0 0.2303(4) 0.017(2) 1. 0
O9 O2- 4 i 0.4005(3) 0.5 0.2051(4) 0.031(2) 1. 0
O10 O2- 4 i 0.7197(3) 0.5 0.1787(4) 0.016(2) 1. 0
O11 O2- 4 i 0.5988(3) 0 0.1265(5) 0.026(2) 1. 0
O12 O2- 4 i 0.2819(3) 0.5 -0.0331(5) 0.029(2) 1. 0
O13 O2- 4 i 0.8411(3) 0 0.3704(4) 0.027(2) 1. 0
O14 O2- 4 i 0.7782(3) 0.5 0.4870(4) 0.020(2) 1. 0
O15 O2- 4 i 0.9020(3) 0.5 0.4700(5) 0.027(2) 1. 0
O16 O2- 4 i 0.7747(3) 0.5 0.3351(4) 0.022(2) 1. 0
O17 O2- 4 i 0.5058(3) 0.5 0.2390(4) 0.018(2) 1. 0
O18 O2- 4 i 0.5418(3) 0.5 0.1319(5) 0.024(2) 1. 0
O19 O2- 4 i 0.4633(3) 0 0.0662(5) 0.027(2) 1. 0
O20 O2- 4 i 0.6416(3) 0.5 0.3570(5) 0.021(2) 1. 0
O21 O2- 4 i 0.3581(4) 0 0.1155(5) 0.032(2) 1. 0
O22 O2- 4 i 0.2752(3) 0 -0.1947(4) 0.015(2) 1. 0
O23 O2- 4 i 0.7169(3) 0 0.3485(5) 0.024(2) 1. 0
O24 O2- 4 i 0.9363(3) 0 0.5239(5) 0.029(2) 1. 0
O25 O2- 8 j 0.6537(3) -0.2453(9) 0.7397(4) 0.035(1) 1. 0
O26 O2- 4 i 0.2335(3) 0 -0.1144(4) 0.032(2) 1. 0
O27 O2- 4 h 0 -0.189(2) 0.5 0.024(4) 0.5 0
O28 O2- 4 i 0.0488(4) 0 0.6208(6) 0.052(3) 1. 0
O29 O2- 8 j 0.9934(5) -0.265(2) 0.6186(7) 0.031(3) 0.5 0
Li1 Li1+ 4 i 0.708(1) 0.5 0.492(1) 0.041(6) 1. 0
Li2 Li1+ 2 a 0.5 0.5 0 0.08(1) 1. 0
Li3 Li1+ 4 i 0.687(1) 0 0.807(2) 0.043(8) 0.75 0
Li4 Li1+ 4 i 0.997(2) 0.5 0.654(2) 0.051(9) 0.75 0
#End of TTdata_174128-ICSD