
#(C) 2018 by FIZ Karlsruhe - Leibniz Institute for Information Infrastructure.  All rights reserved.
data_174381-ICSD
_database_code_ICSD 174381
_audit_creation_date 2010-08-01
_chemical_name_systematic
'Lithium phosphorous germanium molybdenum oxide (3.17/0.69/0.24/0.07/4)'
_chemical_formula_structural 'Li3.17 (P0.69 Ge0.24 Mo0.07) O4'
_chemical_formula_sum 'Ge0.24 Li3.17 Mo0.07 O4 P0.69'
_exptl_crystal_density_diffrn 2.65
_cell_measurement_temperature 298.
_publ_section_title

;
Change in the crystal structure of germanium - containing lithiophosphate upon
heating
;
loop_
_citation_id
_citation_journal_full
_citation_year
_citation_journal_volume
_citation_page_first
_citation_page_last
_citation_journal_id_ASTM
primary Kristallografiya 2010 55 261 266 KRISAJ
loop_
_publ_author_name
'Ksenofontov, D.A.'
'Kabalov, Yu.K.'
'Dem'yanets, L.N. (Demyanets, L.N.)'
_cell_length_a 10.6338(8)
_cell_length_b 6.1791(5)
_cell_length_c 5.0090(2)
_cell_angle_alpha 90.
_cell_angle_beta 90.
_cell_angle_gamma 90.
_cell_volume 329.13
_cell_formula_units_Z 4
_symmetry_space_group_name_H-M 'P n m a'
_symmetry_Int_Tables_number 62
_refine_ls_R_factor_all 0.0162
loop_
_symmetry_equiv_pos_site_id
_symmetry_equiv_pos_as_xyz
1 'x+1/2, y, -z+1/2'
2 'x, -y+1/2, z'
3 '-x+1/2, y+1/2, z+1/2'
4 '-x, -y, -z'
5 '-x+1/2, -y, z+1/2'
6 '-x, y+1/2, -z'
7 'x+1/2, -y+1/2, -z+1/2'
8 'x, y, z'
loop_
_atom_type_symbol
_atom_type_oxidation_number
P5+ 5
Ge4+ 4
Mo6+ 6
O2- -2
Li1+ 1
loop_
_atom_site_label
_atom_site_type_symbol
_atom_site_symmetry_multiplicity
_atom_site_Wyckoff_symbol
_atom_site_fract_x
_atom_site_fract_y
_atom_site_fract_z
_atom_site_B_iso_or_equiv
_atom_site_occupancy
_atom_site_attached_hydrogens
P1 P5+ 4 c 0.0869(2) 0.75 0.1812(5) 0.94(7) 0.7 0
Ge1 Ge4+ 4 c 0.0869(2) 0.75 0.1812(5) 0.94(7) 0.23 0
Mo1 Mo6+ 4 c 0.0869(2) 0.75 0.1812(5) 0.94(7) 0.07 0
O1 O2- 8 d 0.1602(5) 0.5371(7) 0.2873(9) 1.4(2) 1. 0
O2 O2- 4 c -0.0564(7) 0.75 0.2898(12) 1.98(19) 1. 0
O3 O2- 4 c 0.0886(7) 0.75 -0.1410(20) 2.0(2) 1. 0
Li1 Li1+ 8 d 0.166(15) 0.506(2) -0.313(4) 1.1(5) 0.87(3) 0
Li2 Li1+ 4 c -0.075(19) 0.75 -0.306(4) 1.5(6) 0.89(4) 0
Li3 Li1+ 8 d 0.169(12) 0.474(17) -0.153(3) 1.1(5) 0.11(8) 0
Li4 Li1+ 4 c -0.109(2) 0.75 -0.148(5) 1.5(6) 0.09(3) 0
Li5 Li1+ 4 c -0.215 0.75 -0.03 4.07 0.109 0
Li6 Li1+ 8 d 0.494 0.418 0.02 1.32 0.054 0
#End of TTdata_174381-ICSD