
#(C) 2018 by FIZ Karlsruhe - Leibniz Institute for Information Infrastructure.  All rights reserved.
data_174446-ICSD
_database_code_ICSD 174446
_audit_creation_date 2011-02-01
_chemical_name_systematic
'Lanthanum lithium rhodium ruthenium oxide (18/8/4/1/39)'
_chemical_formula_structural 'La18 Li8 Rh4 Ru O39'
_chemical_formula_sum 'La18 Li8 O39 Rh4 Ru1'
_chemical_name_structure_type Nd18Li8Fe5O39
_exptl_crystal_density_diffrn 6.68
_cell_measurement_temperature 293.
_publ_section_title
'Synthesis and structural chemistry of La18 Li8 Rh4 M O39 (M = Ti, Mn, Ru)'
loop_
_citation_id
_citation_journal_full
_citation_year
_citation_journal_volume
_citation_page_first
_citation_page_last
_citation_journal_id_ASTM
primary 'Journal of Solid State Chemistry' 2010 183 1620 1624 JSSCBI
loop_
_publ_author_name
'Battle, P.D.'
'Dutton, S.E.'
'van Daesdonk, P.A.'
_cell_length_a 12.2382(1)
_cell_length_b 12.2382(1)
_cell_length_c 12.2382(1)
_cell_angle_alpha 90.
_cell_angle_beta 90.
_cell_angle_gamma 90.
_cell_volume 1832.96
_cell_formula_units_Z 2
_symmetry_space_group_name_H-M 'P m -3 n'
_symmetry_Int_Tables_number 223
_refine_ls_R_factor_all 0.0278
loop_
_symmetry_equiv_pos_site_id
_symmetry_equiv_pos_as_xyz
1 'z+1/2, -y+1/2, x+1/2'
2 'y+1/2, -x+1/2, z+1/2'
3 'x+1/2, -z+1/2, y+1/2'
4 '-z+1/2, y+1/2, -x+1/2'
5 '-y+1/2, x+1/2, -z+1/2'
6 '-x+1/2, z+1/2, -y+1/2'
7 'z+1/2, y+1/2, -x+1/2'
8 'y+1/2, x+1/2, -z+1/2'
9 'x+1/2, z+1/2, -y+1/2'
10 '-z+1/2, -y+1/2, x+1/2'
11 '-y+1/2, -x+1/2, z+1/2'
12 '-x+1/2, -z+1/2, y+1/2'
13 '-z+1/2, y+1/2, x+1/2'
14 '-y+1/2, x+1/2, z+1/2'
15 '-x+1/2, z+1/2, y+1/2'
16 'z+1/2, -y+1/2, -x+1/2'
17 'y+1/2, -x+1/2, -z+1/2'
18 'x+1/2, -z+1/2, -y+1/2'
19 '-z+1/2, -y+1/2, -x+1/2'
20 '-y+1/2, -x+1/2, -z+1/2'
21 '-x+1/2, -z+1/2, -y+1/2'
22 'z+1/2, y+1/2, x+1/2'
23 'y+1/2, x+1/2, z+1/2'
24 'x+1/2, z+1/2, y+1/2'
25 'z, x, -y'
26 'y, z, -x'
27 'x, y, -z'
28 '-z, -x, y'
29 '-y, -z, x'
30 '-x, -y, z'
31 'z, -x, y'
32 'y, -z, x'
33 'x, -y, z'
34 '-z, x, -y'
35 '-y, z, -x'
36 '-x, y, -z'
37 '-z, x, y'
38 '-y, z, x'
39 '-x, y, z'
40 'z, -x, -y'
41 'y, -z, -x'
42 'x, -y, -z'
43 '-z, -x, -y'
44 '-y, -z, -x'
45 '-x, -y, -z'
46 'z, x, y'
47 'y, z, x'
48 'x, y, z'
loop_
_atom_type_symbol
_atom_type_oxidation_number
La3+ 3
Rh3+ 3
Ru4+ 4
Rh3+ 3
Ru4+ 4
Li1+ 1
O2- -2
loop_
_atom_site_label
_atom_site_type_symbol
_atom_site_symmetry_multiplicity
_atom_site_Wyckoff_symbol
_atom_site_fract_x
_atom_site_fract_y
_atom_site_fract_z
_atom_site_B_iso_or_equiv
_atom_site_occupancy
_atom_site_attached_hydrogens
La1 La3+ 24 k 0 0.30773(8) 0.30401(8) 0.54(1) 1. 0
La2 La3+ 12 f 0.34700(7) 0 0 0.29(2) 1. 0
Rh1 Rh3+ 2 a 0 0 0 0.12(4) 0.41(4) 0
Ru1 Ru4+ 2 a 0 0 0 0.12(4) 0.59(4) 0
Rh2 Rh3+ 8 e 0.25 0.25 0.25 0.26(2) 0.90(1) 0
Ru2 Ru4+ 8 e 0.25 0.25 0.25 0.26(2) 0.10(1) 0
Li1 Li1+ 16 i 0.3721(2) 0.3721(2) 0.372162 1.24(8) 1. 0
O1 O2- 48 l 0.86338(9) 0.85881(9) 0.69324(6) 0.59(2) 1. 0
O2 O2- 6 d 0.25 0.5 0 0.78(3) 1. 0
O3 O2- 12 g 0.6308(1) 0 0.5 0.52(2) 1. 0
O4 O2- 48 l 0.1556(1) 0.0707(5) 0.0159(4) 0.94(5) 0.25 0
#End of TTdata_174446-ICSD