
#(C) 2017 by FIZ Karlsruhe - Leibniz Institute for Information Infrastructure.  All rights reserved.
data_18004-ICSD
_database_code_ICSD 18004
_audit_creation_date 1986-10-06
_chemical_name_systematic 'Lithium tetrafluoroberyllate octafluorozirconate'
_chemical_formula_structural 'Li6 Be F4 Zr F8'
_chemical_formula_sum 'Be1 F12 Li6 Zr1'
_exptl_crystal_density_diffrn 3.06
_publ_section_title 'Crystal structure of Li6 Be F4 Zr F8'
loop_
_citation_id
_citation_journal_full
_citation_year
_citation_journal_volume
_citation_page_first
_citation_page_last
_citation_journal_id_ASTM
primary 'Journal of Chemical Physics' 1964 41 3478 3483 JCPSA6
loop_
_publ_author_name
'Sears, D.R.'
'Burns, J.H.'
_cell_length_a 6.57(2)
_cell_length_b 6.57(2)
_cell_length_c 18.62(6)
_cell_angle_alpha 90.
_cell_angle_beta 90.
_cell_angle_gamma 90.
_cell_volume 803.73
_cell_formula_units_Z 4
_symmetry_space_group_name_H-M 'I 41/a m d Z'
_symmetry_Int_Tables_number 141
_refine_ls_R_factor_all 0.089
loop_
_symmetry_equiv_pos_site_id
_symmetry_equiv_pos_as_xyz
1 'y+1/4, x+3/4, -z+1/4'
2 'y+1/4, -x+3/4, -z+1/4'
3 'x, y+1/2, -z'
4 'x, -y, -z'
5 '-y+3/4, x+3/4, -z+1/4'
6 '-y+3/4, -x+3/4, -z+1/4'
7 '-x, y+1/2, -z'
8 '-x, -y, -z'
9 '-y+3/4, -x+1/4, z+3/4'
10 '-y+3/4, x+1/4, z+3/4'
11 '-x, -y+1/2, z'
12 '-x, y, z'
13 'y+1/4, -x+1/4, z+3/4'
14 'y+1/4, x+1/4, z+3/4'
15 'x, -y+1/2, z'
16 'x, y, z'
17 'y+3/4, x+1/4, -z+3/4'
18 'y+3/4, -x+1/4, -z+3/4'
19 'x+1/2, y, -z+1/2'
20 'x+1/2, -y+1/2, -z+1/2'
21 '-y+1/4, x+1/4, -z+3/4'
22 '-y+1/4, -x+1/4, -z+3/4'
23 '-x+1/2, y, -z+1/2'
24 '-x+1/2, -y+1/2, -z+1/2'
25 '-y+1/4, -x+3/4, z+1/4'
26 '-y+1/4, x+3/4, z+1/4'
27 '-x+1/2, -y, z+1/2'
28 '-x+1/2, y+1/2, z+1/2'
29 'y+3/4, -x+3/4, z+1/4'
30 'y+3/4, x+3/4, z+1/4'
31 'x+1/2, -y, z+1/2'
32 'x+1/2, y+1/2, z+1/2'
loop_
_atom_type_symbol
_atom_type_oxidation_number
Zr4+ 4
Be2+ 2
F1- -1
Li1+ 1
loop_
_atom_site_label
_atom_site_type_symbol
_atom_site_symmetry_multiplicity
_atom_site_Wyckoff_symbol
_atom_site_fract_x
_atom_site_fract_y
_atom_site_fract_z
_atom_site_B_iso_or_equiv
_atom_site_occupancy
_atom_site_attached_hydrogens
Zr1 Zr4+ 4 b 0.5 0.25 0.125 0.3 1. 0
Be1 Be2+ 4 a 0 0.75 0.125 4.6 1. 0
F1 F1- 16 h 0 0.534(2) 0.4207(4) 1.3 1. 0
F2 F1- 16 h 0 0.0260(18) 0.2903(4) 1. 1. 0
F3 F1- 16 h 0 -.0568(18) 0.0754(4) 1.3 1. 0
Li1 Li1+ 16 f 0.2303(64) 0 0 2.6 1. 0
Li2 Li1+ 8 e 0 0.25 0.1034(22) 1.8 1. 0
#End of TTdata_18004-ICSD