
#(C) 2018 by FIZ Karlsruhe - Leibniz Institute for Information Infrastructure.  All rights reserved.
data_180278-ICSD
_database_code_ICSD 180278
_audit_creation_date 2011-08-01
_chemical_name_systematic
'Lead potassium lithium trioxoniobate (0.91/1.72/1.46/5)'
_chemical_formula_structural 'Pb0.91 K1.72 Li1.46 (Nb O3)5'
_chemical_formula_sum 'K1.72 Li1.46 Nb5 O15 Pb0.91'
_exptl_crystal_density_diffrn 5.06
_cell_measurement_temperature 293.
_publ_section_title

;
Synthesis and single crystal X-ray structure of the tetragonal tungsten bronze
Pb0.91 K1.72 Li1.46 Nb5 O15
;
loop_
_citation_id
_citation_journal_full
_citation_year
_citation_journal_volume
_citation_page_first
_citation_page_last
_citation_journal_id_ASTM
primary 'Crystal Research and Technology' 2010 45 1204 1208 CRTEDF
loop_
_publ_author_name
'Capitelli, F.'
'Rossi, M.'
'Elaatmani, M.'
'Zegzouti, A.'
_cell_length_a 12.548(5)
_cell_length_b 12.548(5)
_cell_length_c 4.042(5)
_cell_angle_alpha 90.
_cell_angle_beta 90.
_cell_angle_gamma 90.
_cell_volume 636.42
_cell_formula_units_Z 2
_symmetry_space_group_name_H-M 'P 4 b m'
_symmetry_Int_Tables_number 100
_refine_ls_R_factor_all 0.0454
loop_
_symmetry_equiv_pos_site_id
_symmetry_equiv_pos_as_xyz
1 '-y+1/2, -x+1/2, z'
2 'y+1/2, x+1/2, z'
3 'y, -x, z'
4 '-y, x, z'
5 '-x+1/2, y+1/2, z'
6 'x+1/2, -y+1/2, z'
7 '-x, -y, z'
8 'x, y, z'
loop_
_atom_type_symbol
_atom_type_oxidation_number
Nb5+ 5
Pb2+ 2
K1+ 1
O2- -2
Li1+ 1
loop_
_atom_site_label
_atom_site_type_symbol
_atom_site_symmetry_multiplicity
_atom_site_Wyckoff_symbol
_atom_site_fract_x
_atom_site_fract_y
_atom_site_fract_z
_atom_site_B_iso_or_equiv
_atom_site_occupancy
_atom_site_attached_hydrogens
Nb1 Nb5+ 8 d 0.57541(5) 0.71031(5) 0.5024(3) 0.0317(3) 1. 0
Nb2 Nb5+ 2 b 0.5 0 0.4968(9) 0.0323(4) 1. 0
Pb1 Pb2+ 2 a 0.5 0.5 0.9840(7) 0.0394(4) 0.63(1) 0
Pb2 Pb2+ 4 c 0.83065(13) 0.66935(13) 0.9766(15) 0.0737(12) 0.14(1) 0
K1 K1+ 4 c 0.83065(13) 0.66935(13) 0.9766(15) 0.0737(12) 0.86(1) 0
O1 O2- 2 b 0.5 0 0.036(7) 0.055(5) 1. 0
O2 O2- 8 d 0.5780(6) 0.7101(6) 0.041(4) 0.045(3) 1. 0
O3 O2- 8 d 0.6399(5) 0.5677(4) 0.5612(19) 0.0353(16) 1. 0
O4 O2- 8 d 0.5003(4) 0.8454(5) 0.5648(18) 0.036(2) 1. 0
O5 O2- 4 c 0.7128(5) 0.7872(5) 0.556(2) 0.031(2) 1. 0
Li1 Li1+ 4 c 0.620(3) 0.880(3) 0.943(12) 0.057(11) 0.73(1) 0
#End of TTdata_180278-ICSD