
#(C) 2018 by FIZ Karlsruhe - Leibniz Institute for Information Infrastructure.  All rights reserved.
data_180507-ICSD
_database_code_ICSD 180507
_audit_creation_date 2012-02-01
_audit_update_record 2013-02-01
_chemical_name_systematic 'Dilithium tetraborate'
_chemical_formula_structural 'Li2 (B4 O7)'
_chemical_formula_sum 'B4 Li2 O7'
_chemical_name_structure_type Li2B4O7
_exptl_crystal_density_diffrn 2.43
_cell_measurement_temperature 3.4
_publ_section_title

;
Low-temperature crystal structure, specific heat and dielectric properties of
lithium tetraborate Li2 (B4 O7)
;
loop_
_citation_id
_citation_journal_full
_citation_year
_citation_journal_volume
_citation_page_first
_citation_page_last
_citation_journal_id_ASTM
primary 'Journal of Applied Physics (Melville, NY, United States)' 2010 108
093524-1 093524-9 JAPIAU
loop_
_publ_author_name
'Senyshin, A.'
'Schwarz, B.'
'Lorenz, T.'
'Adamiv, V.T.'
'Burak, Ya.V.'
'Banys, J.'
'Grigalaitis, R.'
'Vasylechko, L.'
'Ehrenberg, H.'
'Fuess, H.'
_cell_length_a 9.45444(6)
_cell_length_b 9.45444(6)
_cell_length_c 10.32360(7)
_cell_angle_alpha 90.
_cell_angle_beta 90.
_cell_angle_gamma 90.
_cell_volume 922.79
_cell_formula_units_Z 8
_symmetry_space_group_name_H-M 'I 41 c d'
_symmetry_Int_Tables_number 110
_refine_ls_R_factor_all 0.0201
loop_
_symmetry_equiv_pos_site_id
_symmetry_equiv_pos_as_xyz
1 '-y, -x+1/2, z+3/4'
2 '-y, x+1/2, z+1/4'
3 'x, -y, z+1/2'
4 '-x, -y, z'
5 'y, x+1/2, z+3/4'
6 'y, -x+1/2, z+1/4'
7 '-x, y, z+1/2'
8 'x, y, z'
9 '-y+1/2, -x, z+1/4'
10 '-y+1/2, x, z+3/4'
11 'x+1/2, -y+1/2, z'
12 '-x+1/2, -y+1/2, z+1/2'
13 'y+1/2, x, z+1/4'
14 'y+1/2, -x, z+3/4'
15 '-x+1/2, y+1/2, z'
16 'x+1/2, y+1/2, z+1/2'
loop_
_atom_type_symbol
_atom_type_oxidation_number
Li1+ 1
B3+ 3
O2- -2
loop_
_atom_site_label
_atom_site_type_symbol
_atom_site_symmetry_multiplicity
_atom_site_Wyckoff_symbol
_atom_site_fract_x
_atom_site_fract_y
_atom_site_fract_z
_atom_site_B_iso_or_equiv
_atom_site_occupancy
_atom_site_attached_hydrogens
Li1 Li1+ 16 b 0.1523(4) 0.1647(4) 0.8476(4) 0.35(6) 1. 0
B1 B3+ 16 b 0.1687(1) 0.0870(1) 0.1993(2) 0.18(2) 1. 0
B2 B3+ 16 b 0.9461(1) 0.1126(1) 0.0812(2) 0.10(2) 1. 0
O1 O2- 16 b 0.2829(1) 0.1392(1) 0.2651(2) 0.10(2) 1. 0
O2 O2- 16 b 0.0673(1) 0.1777(1) 0.1565(2) 0.24(2) 1. 0
O3 O2- 16 b 0.1570(1) 0.9431(1) 0.1804(2) 0.20(2) 1. 0
O4 O2- 8 a 0 0 0 0.10(3) 1. 0
#End of TTdata_180507-ICSD