
#(C) 2018 by FIZ Karlsruhe - Leibniz Institute for Information Infrastructure.  All rights reserved.
data_181261-ICSD
_database_code_ICSD 181261
_audit_creation_date 2012-02-01
_chemical_name_systematic 'Dilithium carbonate'
_chemical_formula_structural 'Li2 (C O3)'
_chemical_formula_sum 'C1 Li2 O3'
_exptl_crystal_density_diffrn 2.07
_publ_section_title

;
Structural characterization of layered Li Ni0.85-x Mnx Co0.15 O2 with
x=0,0.1,0.2 and 0.4 oxide electrodes for Li batteries
;
loop_
_citation_id
_citation_journal_full
_citation_year
_citation_journal_volume
_citation_page_first
_citation_page_last
_citation_journal_id_ASTM
primary 'Journal of Alloys and Compounds' 2011 509 7915 7921 JALCEU
loop_
_publ_author_name
'Gu Yi Jie'
'Chen Yun Bo'
'Liu Hong Quan'
'Wang Yan Ming'
'Wang Cui Ling'
'Wu Hui Kang'
_cell_length_a 8.419(97)
_cell_length_b 4.995(48)
_cell_length_c 6.213(53)
_cell_angle_alpha 90.
_cell_angle_beta 114.980(83)
_cell_angle_gamma 90.
_cell_volume 236.83
_cell_formula_units_Z 4
_symmetry_space_group_name_H-M 'C 1 2/c 1'
_symmetry_Int_Tables_number 15
loop_
_symmetry_equiv_pos_site_id
_symmetry_equiv_pos_as_xyz
1 'x, -y, z+1/2'
2 '-x, -y, -z'
3 '-x, y, -z+1/2'
4 'x, y, z'
5 'x+1/2, -y+1/2, z+1/2'
6 '-x+1/2, -y+1/2, -z'
7 '-x+1/2, y+1/2, -z+1/2'
8 'x+1/2, y+1/2, z'
loop_
_atom_type_symbol
_atom_type_oxidation_number
Li1+ 1
O2- -2
C4+ 4
loop_
_atom_site_label
_atom_site_type_symbol
_atom_site_symmetry_multiplicity
_atom_site_Wyckoff_symbol
_atom_site_fract_x
_atom_site_fract_y
_atom_site_fract_z
_atom_site_B_iso_or_equiv
_atom_site_occupancy
_atom_site_attached_hydrogens
Li1 Li1+ 8 f 0.179(12) 0.336(57) 0.634(94) 0.5 1. 0
O1 O2- 8 f 0.147(70) -0.129(17) 0.334(62) 0.5 1. 0
O2 O2- 4 e 0 0.296(9) 0.25 0.5 1. 0
C1 C4+ 4 e 0 0.296(9) 0.25 0.5 1. 0
#End of TTdata_181261-ICSD