
#(C) 2018 by FIZ Karlsruhe - Leibniz Institute for Information Infrastructure.  All rights reserved.
data_181478-ICSD
_database_code_ICSD 181478
_audit_creation_date 2012-02-01
_chemical_name_systematic 'Trilithium dibarium triyttrium hexamolybdate'
_chemical_formula_structural 'Li3 Ba2 Y3 (W O4)8'
_chemical_formula_sum 'Ba2 Li3 O32 W8 Y3'
_chemical_name_structure_type Li3Ba2Tm3(MoO4)8
_exptl_crystal_density_diffrn 6.72
_cell_measurement_temperature 293.
_publ_section_title

;
Growth and structure of Nd3+-doped Li3 Ba2 Y3 (W O4)8 crystal with a disorder
structure
;
loop_
_citation_id
_citation_journal_full
_citation_year
_citation_journal_volume
_citation_page_first
_citation_page_last
_citation_journal_id_ASTM
primary CrystEngComm 2010 12 1307 1310 CRECF4
loop_
_publ_author_name
'Li Hao'
'Wang Guo Jian'
'Zhang Li Zhen'
'Huang Yi Sheng'
'Wang Guo Fu'
_cell_length_a 5.181(2)
_cell_length_b 12.677(7)
_cell_length_c 19.161(10)
_cell_angle_alpha 90.
_cell_angle_beta 92.237(13)
_cell_angle_gamma 90.
_cell_volume 1257.53
_cell_formula_units_Z 2
_symmetry_space_group_name_H-M 'C 1 2/c 1'
_symmetry_Int_Tables_number 15
_refine_ls_R_factor_all 0.0462
loop_
_symmetry_equiv_pos_site_id
_symmetry_equiv_pos_as_xyz
1 'x, -y, z+1/2'
2 '-x, -y, -z'
3 '-x, y, -z+1/2'
4 'x, y, z'
5 'x+1/2, -y+1/2, z+1/2'
6 '-x+1/2, -y+1/2, -z'
7 '-x+1/2, y+1/2, -z+1/2'
8 'x+1/2, y+1/2, z'
loop_
_atom_type_symbol
_atom_type_oxidation_number
W6+ 6
Ba2+ 2
Y3+ 3
Li1+ 1
O2- -2
loop_
_atom_site_label
_atom_site_type_symbol
_atom_site_symmetry_multiplicity
_atom_site_Wyckoff_symbol
_atom_site_fract_x
_atom_site_fract_y
_atom_site_fract_z
_atom_site_B_iso_or_equiv
_atom_site_occupancy
_atom_site_attached_hydrogens
W1 W6+ 8 f 0.48621(8) 0.43951(3) 0.40646(2) 0.0090(2) 1 0
W2 W6+ 8 f 0.50138(8) 0.74376(3) 0.35103(2) 0.0090(2) 1 0
Ba1 Ba2+ 4 e 1. 0.53277(7) 0.25 0.0114(3) 1 0
Y1 Y3+ 8 f 1.0031(2) 0.64688(10) 0.46818(7) 0.0083(3) 0.75 0
Li1 Li1+ 8 f 1.0031(2) 0.64688(10) 0.46818(7) 0.0083(3) 0.25 0
Li2 Li1+ 4 e 0.5 0.322(3) 0.25 0.024(7) 1 0
O1 O2- 8 f 0.6329(16) 0.4149(7) 0.3263(4) 0.0149(16) 1 0
O2 O2- 8 f 0.2689(16) 0.5470(6) 0.3947(4) 0.0142(17) 1 0
O3 O2- 8 f 0.7519(17) 0.4826(7) 0.4639(4) 0.0176(18) 1 0
O4 O2- 8 f 0.3372(16) 0.3309(6) 0.4534(4) 0.0151(17) 1 0
O5 O2- 8 f 0.2708(15) 0.7048(6) 0.2857(4) 0.0137(17) 1 0
O6 O2- 8 f 0.7536(15) 0.6483(6) 0.3647(4) 0.0125(16) 1 0
O7 O2- 8 f 0.6528(16) 0.8590(6) 0.3232(4) 0.0155(17) 1 0
O8 O2- 8 f 0.3267(17) 0.7626(7) 0.4312(5) 0.0157(18) 1 0
loop_
_atom_site_aniso_label
_atom_site_aniso_type_symbol
_atom_site_aniso_U_11
_atom_site_aniso_U_22
_atom_site_aniso_U_33
_atom_site_aniso_U_12
_atom_site_aniso_U_13
_atom_site_aniso_U_23
W1 W6+ 0.0058(3) 0.0105(3) 0.0108(3) 0.00007(15) 0.00247(19) 0.00123(15)
W2 W6+ 0.0058(3) 0.0105(3) 0.0110(3) -0.00021(14) 0.00236(19) 0.00062(15)
Ba1 Ba2+ 0.0094(5) 0.0091(5) 0.0158(5) 0. 0.0012(4) 0.
Y1 Y3+ 0.0058(7) 0.0091(7) 0.0100(7) -0.0002(5) 0.0016(5) -0.0003(5)
Li1 Li1+ 0.0058(7) 0.0091(7) 0.0100(7) -0.0002(5) 0.0016(5) -0.0003(5)
Li2 Li1+ 0.024(7) 0.024(7) 0.024(7) 0. 0.0008(11) 0.
O1 O2- 0.0148(18) 0.0149(18) 0.0150(18) -0.0005(10) 0.0012(10) -0.0007(10)
O2 O2- 0.015(4) 0.013(4) 0.015(4) 0.002(3) 0.004(3) -0.003(3)
O3 O2- 0.014(4) 0.020(5) 0.019(4) -0.003(3) 0.001(3) -0.002(4)
O4 O2- 0.013(4) 0.012(4) 0.021(4) -0.004(3) 0.004(3) 0.000(3)
O5 O2- 0.009(4) 0.007(4) 0.025(4) -0.003(3) -0.002(3) 0.002(3)
O6 O2- 0.013(4) 0.014(4) 0.010(3) 0.001(3) -0.001(3) 0.003(3)
O7 O2- 0.016(4) 0.015(4) 0.016(4) -0.002(3) -0.004(3) 0.000(3)
O8 O2- 0.011(4) 0.020(4) 0.017(4) 0.002(3) 0.007(3) -0.006(3)
#End of TTdata_181478-ICSD