
#(C) 2018 by FIZ Karlsruhe - Leibniz Institute for Information Infrastructure.  All rights reserved.
data_182944-ICSD
_database_code_ICSD 182944
_audit_creation_date 2012-08-01
_chemical_name_systematic 'Lithium iron sulfate fluoride'
_chemical_formula_structural 'Li Fe (S O4) F'
_chemical_formula_sum 'F1 Fe1 Li1 O4 S1'
_chemical_name_structure_type LiCoSO4F
_exptl_crystal_density_diffrn 3.23
_cell_measurement_temperature 293.
_publ_section_title

;
Magnetic structure and properties of the Li-ion battery materials Fe (S O4) F
and Li Fe (S O4) F
;
loop_
_citation_id
_citation_journal_full
_citation_year
_citation_journal_volume
_citation_page_first
_citation_page_last
_citation_journal_id_ASTM
primary 'Chemistry of Materials' 2011 23 2922 2930 CMATEX
loop_
_publ_author_name
'Melot, B.C.'
'Rousse, G.'
'Chotard, J.N.'
'Ati, M.'
'Rodriguez Carvajal, J.'
'Kemei, M.C.'
'Tarascon, J.M.'
_cell_length_a 5.18003(7)
_cell_length_b 5.49165(6)
_cell_length_c 7.22890(9)
_cell_angle_alpha 106.4864(9)
_cell_angle_beta 107.186(9)
_cell_angle_gamma 97.9098(9)
_cell_volume 182.79
_cell_formula_units_Z 2
_symmetry_space_group_name_H-M 'P -1'
_symmetry_Int_Tables_number 2
_refine_ls_R_factor_all 0.0272
loop_
_symmetry_equiv_pos_site_id
_symmetry_equiv_pos_as_xyz
1 '-x, -y, -z'
2 'x, y, z'
loop_
_atom_type_symbol
_atom_type_oxidation_number
Li1+ 1
Fe2+ 2
S6+ 6
O2- -2
F1- -1
loop_
_atom_site_label
_atom_site_type_symbol
_atom_site_symmetry_multiplicity
_atom_site_Wyckoff_symbol
_atom_site_fract_x
_atom_site_fract_y
_atom_site_fract_z
_atom_site_B_iso_or_equiv
_atom_site_occupancy
_atom_site_attached_hydrogens
Li1 Li1+ 2 i 0.270(1) 0.634(2) 0.757(2) . 1. 0
Fe1 Fe2+ 1 b 0 0 0.5 0.77(4) 1. 0
Fe2 Fe2+ 1 a 0 0 0 0.66(5) 1. 0
S1 S6+ 2 i 0.3244(9) 0.6381(9) 0.2495(8) 0.65(9) 1. 0
O1 O2- 2 i 0.5976(5) 0.7469(5) 0.4119(4) 1.18(3) 1. 0
O2 O2- 2 i 0.1063(5) 0.6407(5) 0.3448(4) 1.18(3) 1. 0
O3 O2- 2 i 0.3198(6) 0.3564(5) 0.1458(4) 1.18(3) 1. 0
O4 O2- 2 i 0.2790(5) 0.7708(5) 0.1016(4) 1.18(3) 1. 0
F1 F1- 2 i 0.1259(5) 0.9144(5) 0.7552(5) 1.18(3) 1. 0
loop_
_atom_site_aniso_label
_atom_site_aniso_type_symbol
_atom_site_aniso_beta_11
_atom_site_aniso_beta_22
_atom_site_aniso_beta_33
_atom_site_aniso_beta_12
_atom_site_aniso_beta_13
_atom_site_aniso_beta_23
Li1 Li1+ 0.0518(75) 0.0180(45) 0.0534(54) 0.0341(46) 0.0289(45) 0.0237(38)
#End of TTdata_182944-ICSD