
#(C) 2018 by FIZ Karlsruhe - Leibniz Institute for Information Infrastructure.  All rights reserved.
data_183486-ICSD
_database_code_ICSD 183486
_audit_creation_date 2012-08-01
_chemical_name_systematic 'Lithium magnesium manganese borate (1/0.5/0.5/1)'
_chemical_formula_structural 'Li (Mg0.5 Mn0.5) (B O3)'
_chemical_formula_sum 'B1 Li1 Mg0.5 Mn0.5 O3'
_chemical_name_structure_type LiCoBO3
_exptl_crystal_density_diffrn 2.98
_cell_measurement_temperature 298.
_publ_section_title

;
Preparation, crystal structure and photoluminescence of lithium magnesium
manganese borate solid solutions, Li Mg1-x Mnx B O3
;
loop_
_citation_id
_citation_journal_full
_citation_year
_citation_journal_volume
_citation_page_first
_citation_page_last
_citation_journal_id_ASTM
primary 'Journal of Alloys and Compounds' 2012 512 223 229 JALCEU
loop_
_publ_author_name
'Yamane, H.'
'Kawano, T.'
'Fukuda, K.'
'Suehiro, T.'
'Sato, T.'
_cell_length_a 5.1820(2)
_cell_length_b 8.9241(4)
_cell_length_c 10.1529(6)
_cell_angle_alpha 90.
_cell_angle_beta 91.5824(18)
_cell_angle_gamma 90.
_cell_volume 469.34
_cell_formula_units_Z 8
_symmetry_space_group_name_H-M 'C 1 2/c 1'
_symmetry_Int_Tables_number 15
_refine_ls_R_factor_all 0.0258
loop_
_symmetry_equiv_pos_site_id
_symmetry_equiv_pos_as_xyz
1 'x, -y, z+1/2'
2 '-x, -y, -z'
3 '-x, y, -z+1/2'
4 'x, y, z'
5 'x+1/2, -y+1/2, z+1/2'
6 '-x+1/2, -y+1/2, -z'
7 '-x+1/2, y+1/2, -z+1/2'
8 'x+1/2, y+1/2, z'
loop_
_atom_type_symbol
_atom_type_oxidation_number
Li1+ 1
Mg2+ 2
Mn2+ 2
B3+ 3
O2- -2
loop_
_atom_site_label
_atom_site_type_symbol
_atom_site_symmetry_multiplicity
_atom_site_Wyckoff_symbol
_atom_site_fract_x
_atom_site_fract_y
_atom_site_fract_z
_atom_site_B_iso_or_equiv
_atom_site_occupancy
_atom_site_attached_hydrogens
Li1 Li1+ 8 f 0.1592(9) -0.0042(5) 0.0932(6) 0.0129(9) 0.5 0
Li2 Li1+ 8 f 0.1649(9) 0.0111(5) 0.1574(5) 0.0098(8) 0.5 0
Mg1 Mg2+ 8 f 0.16278(4) 0.33625(3) 0.12478(2) 0.00978(12) 0.5 0
Mn1 Mn2+ 8 f 0.16278(4) 0.33625(3) 0.12478(2) 0.00978(12) 0.5 0
B1 B3+ 8 f 0.3325(2) 0.17035(13) 0.37479(10) 0.0081(3) 1. 0
O1 O2- 8 f 0.40808(16) 0.16404(8) 0.08721(8) 0.00961(19) 1. 0
O2 O2- 8 f 0.22220(15) 0.30642(9) 0.33787(8) 0.00986(18) 1. 0
O3 O2- 8 f 0.1839(17) 0.0450(9) 0.3907(4) 0.0115(8) 0.5 0
O4 O2- 8 f 0.1897(16) 0.0416(9) 0.3578(4) 0.0093(7) 0.5 0
loop_
_atom_site_aniso_label
_atom_site_aniso_type_symbol
_atom_site_aniso_U_11
_atom_site_aniso_U_22
_atom_site_aniso_U_33
_atom_site_aniso_U_12
_atom_site_aniso_U_13
_atom_site_aniso_U_23
Li1 Li1+ 0.010(2) 0.011(2) 0.017(2) 0.0020(17) 0.0003(18) 0.0003(13)
Li2 Li1+ 0.0072(18) 0.0060(17) 0.016(2) 0.0023(16) -0.0018(18) -0.0004(12)
Mg1 Mg2+ 0.00917(18) 0.00931(17) 0.01093(17) -0.00067(6) 0.00168(11) 0.00036(7)
Mn1 Mn2+ 0.00917(18) 0.00931(17) 0.01093(17) -0.00067(6) 0.00168(11) 0.00036(7)
B1 B3+ 0.0069(6) 0.0080(6) 0.0094(5) -0.0007(3) 0.0005(2) -0.0001(3)
O1 O2- 0.0063(4) 0.0113(4) 0.0112(4) -0.0005(2) -0.0005(3) 0.0004(2)
O2 O2- 0.0096(4) 0.0085(3) 0.0114(4) 0.0003(3) -0.0004(4) 0.0010(3)
O3 O2- 0.0121(11) 0.0101(10) 0.012(2) 0.0006(17) -0.003(19) -0.0022(8)
O4 O2- 0.0095(10) 0.0083(9) 0.010(2) -0.0019(16) -0.0018(18) -0.0030(7)
#End of TTdata_183486-ICSD