
#(C) 2018 by FIZ Karlsruhe - Leibniz Institute for Information Infrastructure.  All rights reserved.
data_183610-ICSD
_database_code_ICSD 183610
_audit_creation_date 2012-08-01
_chemical_name_systematic 'Lithium molybdenum oxide (0.75/1/2)'
_chemical_formula_structural 'Li0.75 (Mo O2)'
_chemical_formula_sum 'Li0.75 Mo1 O2'
_exptl_crystal_density_diffrn 5.92
_cell_measurement_temperature 293.
_publ_section_title

;
Layered Lix Mo O2 phases with different composition for electrochemical
application: structural considerations
;
loop_
_citation_id
_citation_journal_full
_citation_year
_citation_journal_volume
_citation_page_first
_citation_page_last
_citation_journal_id_ASTM
primary 'Chemistry of Materials' 2011 23 3429 3441 CMATEX
loop_
_publ_author_name
'Mikhailova, D.'
'Bramnik, N.N.'
'Bramnik, K.G.'
'Reichel, P.'
'Oswald, S.'
'Senyshyn, A.'
'Trots, D.M.'
'Ehrenberg, H.'
_cell_length_a 10.614(3)
_cell_length_b 2.878(1)
_cell_length_c 4.955(2)
_cell_angle_alpha 90.
_cell_angle_beta 99.37(3)
_cell_angle_gamma 90.
_cell_volume 149.34
_cell_formula_units_Z 4
_symmetry_space_group_name_H-M 'C 1 2/m 1'
_symmetry_Int_Tables_number 12
_refine_ls_R_factor_all 0.0232
loop_
_symmetry_equiv_pos_site_id
_symmetry_equiv_pos_as_xyz
1 '-x, y, -z'
2 '-x, -y, -z'
3 'x, -y, z'
4 'x, y, z'
5 '-x+1/2, y+1/2, -z'
6 '-x+1/2, -y+1/2, -z'
7 'x+1/2, -y+1/2, z'
8 'x+1/2, y+1/2, z'
loop_
_atom_type_symbol
_atom_type_oxidation_number
Mo3+ 3.25
O2- -2
Li1+ 1
loop_
_atom_site_label
_atom_site_type_symbol
_atom_site_symmetry_multiplicity
_atom_site_Wyckoff_symbol
_atom_site_fract_x
_atom_site_fract_y
_atom_site_fract_z
_atom_site_B_iso_or_equiv
_atom_site_occupancy
_atom_site_attached_hydrogens
Mo1 Mo3+ 4 i 0.2520(1) 0.5 0.2142(1) 0.009(1) 1. 0
O1 O2- 4 i 0.1180(4) 0.5 -0.1358(9) 0.007(1) 1. 0
O2 O2- 4 i 0.1433(4) 0 0.3819(9) 0.009(1) 1. 0
Li1 Li1+ 2 d 0 0.5 0.5 0.032(10) 0.9(1) 0
Li2 Li1+ 2 a 0 0 0 0.018(11) 0.6(1) 0
#End of TTdata_183610-ICSD