
#(C) 2018 by FIZ Karlsruhe - Leibniz Institute for Information Infrastructure.  All rights reserved.
data_183601-ICSD
_database_code_ICSD 183601
_audit_creation_date 2012-08-01
_audit_update_record 2014-08-01
_chemical_name_systematic 'Lithium iron pyrophosphate (1.875/1/1)'
_chemical_formula_structural 'Li1.875 Fe (P2 O7)'
_chemical_formula_sum 'Fe1 Li1.875 O7 P2'
_chemical_name_structure_type Li2-xFeP2O7
_exptl_crystal_density_diffrn 3.13
_publ_section_title

;
Neutron and X-ray diffraction study of pyrophosphate-based Li2-x M P2 O7 (M =
Fe,Co) for lithium rechargeable battery electrodes
;
loop_
_citation_id
_citation_journal_full
_citation_year
_citation_journal_volume
_citation_page_first
_citation_page_last
_citation_journal_id_ASTM
primary 'Chemistry of Materials' 2011 23 3930 3937 CMATEX
loop_
_publ_author_name
'Kim, Hyung Sub'
'Lee, Seong Su'
'Park, Young Uk'
'Kim, Haeg Yeom'
'Kim, Jong Soon'
'Jeon, Seok Woo'
'Kang, Ki Suk'
_cell_length_a 11.0192(4)
_cell_length_b 9.7488(3)
_cell_length_c 9.8057(4)
_cell_angle_alpha 90.
_cell_angle_beta 101.569(3)
_cell_angle_gamma 90.
_cell_volume 1031.97
_cell_formula_units_Z 8
_symmetry_space_group_name_H-M 'P 1 21/c 1'
_symmetry_Int_Tables_number 14
_refine_ls_R_factor_all 0.0161
loop_
_symmetry_equiv_pos_site_id
_symmetry_equiv_pos_as_xyz
1 'x, -y+1/2, z+1/2'
2 '-x, -y, -z'
3 '-x, y+1/2, -z+1/2'
4 'x, y, z'
loop_
_atom_type_symbol
_atom_type_oxidation_number
Fe2+ 2.125
Li1+ 1
Fe2+ 2.125
P5+ 5
O2- -2
Li1+ 1
loop_
_atom_site_label
_atom_site_type_symbol
_atom_site_symmetry_multiplicity
_atom_site_Wyckoff_symbol
_atom_site_fract_x
_atom_site_fract_y
_atom_site_fract_z
_atom_site_B_iso_or_equiv
_atom_site_occupancy
_atom_site_attached_hydrogens
Fe1 Fe2+ 4 e 0.6723(4) 0.5715(5) 0.6947(4) 1.19(7) 1. 0
Fe2 Fe2+ 4 e 0.8233(6) 0.3872(6) 0.7557(7) 1.19(7) 0.67(2) 0
Li1 Li1+ 4 e 0.8233(6) 0.3872(6) 0.7557(7) 1.19(7) 0.18(3) 0
Fe3 Fe2+ 4 e 0.0369(17) 0.069(2) 0.655(2) 1.19(7) 0.33(1) 0
P1 P5+ 4 e 0.5737(8) 0.6480(7) 0.3764(7) 0.54(8) 1. 0
P2 P5+ 4 e 0.2456(6) 0.5689(7) 0.5650(7) 0.54(8) 1. 0
P3 P5+ 4 e 0.8894(7) 0.7976(7) 0.6159(8) 0.54(8) 1. 0
P4 P5+ 4 e 0.7877(7) 0.0434(7) 0.5258(8) 0.54(8) 1. 0
O1 O2- 4 e 0.8548(7) 0.1370(6) 0.6183(8) 1.05(4) 1. 0
O2 O2- 4 e 0.7863(7) 0.0319(7) 0.3739(8) 1.05(4) 1. 0
O3 O2- 4 e 0.3750(7) 0.5841(8) 0.9843(7) 1.05(4) 1. 0
O4 O2- 4 e 0.1091(6) 0.5658(8) 0.5693(8) 1.05(4) 1. 0
O5 O2- 4 e 0.6909(6) 0.3244(7) 0.3395(7) 1.05(4) 1. 0
O6 O2- 4 e 0.7335(6) 0.4132(7) 0.5859(7) 1.05(4) 1. 0
O7 O2- 4 e 0.0727(7) 0.2754(6) 0.0159(7) 1.05(4) 1. 0
O8 O2- 4 e 0.4156(7) 0.2902(7) 0.1869(7) 1.05(4) 1. 0
O9 O2- 4 e 0.8459(7) 0.6667(7) 0.6833(7) 1.05(4) 1. 0
O10 O2- 4 e -0.0058(6) 0.8669(6) 0.7157(8) 1.05(4) 1. 0
O11 O2- 4 e 0.4817(7) 0.9339(7) 0.7775(7) 1.05(4) 1. 0
O12 O2- 4 e 0.5528(7) 0.6609(7) 0.5243(8) 1.05(4) 1. 0
O13 O2- 4 e 0.2922(6) 0.0744(7) 0.1168(6) 1.05(4) 1. 0
O14 O2- 4 e 0.2258(6) 0.1038(7) 0.4004(7) 1.05(4) 1. 0
Li2 Li1+ 4 e 0.445(2) 0.727(3) 0.106(2) 2.3(3) 1. 0
Li3 Li1+ 4 e 0.972(2) 0.625(2) 0.429(3) 2.3(3) 1. 0
Li4 Li1+ 4 e 0.436(2) 0.584(3) 0.513(3) 2.3(3) 0.94(3) 0
Li5 Li1+ 4 e 0.0369(17) 0.069(2) 0.655(2) 1.19(7) 0.63(2) 0
#End of TTdata_183601-ICSD