
#(C) 2017 by FIZ Karlsruhe - Leibniz Institute for Information Infrastructure.  All rights reserved.
data_183877-ICSD
_database_code_ICSD 183877
_audit_creation_date 2012-08-01
_chemical_name_systematic 'Dilithium vanadium phosphate fluoride'
_chemical_formula_structural 'Li2 V (P O4) F'
_chemical_formula_sum 'F1 Li2 O4 P1 V1'
_exptl_crystal_density_diffrn 3.17
_publ_section_title

;
Structure and electrochemistry of two-electron redox couples in lithium metal
fluorophosphates based on the tavorite structure
;
loop_
_citation_id
_citation_journal_full
_citation_year
_citation_journal_volume
_citation_page_first
_citation_page_last
_citation_journal_id_ASTM
primary 'Chemistry of Materials' 2011 23 5138 5148 CMATEX
loop_
_publ_author_name
'Ellis, B.L.'
'Ramesh, T.N.'
'Davis, L.J.M.'
'Goward, G.R.'
'Nazar, L.F.'
_cell_length_a 7.2255(1)
_cell_length_b 7.9450(1)
_cell_length_c 7.3075(1)
_cell_angle_alpha 90.
_cell_angle_beta 116.771(1)
_cell_angle_gamma 90.
_cell_volume 374.53
_cell_formula_units_Z 4
_symmetry_space_group_name_H-M 'C 1 2/c 1'
_symmetry_Int_Tables_number 15
_refine_ls_R_factor_all 0.084
loop_
_symmetry_equiv_pos_site_id
_symmetry_equiv_pos_as_xyz
1 'x, -y, z+1/2'
2 '-x, -y, -z'
3 '-x, y, -z+1/2'
4 'x, y, z'
5 'x+1/2, -y+1/2, z+1/2'
6 '-x+1/2, -y+1/2, -z'
7 '-x+1/2, y+1/2, -z+1/2'
8 'x+1/2, y+1/2, z'
loop_
_atom_type_symbol
_atom_type_oxidation_number
V2+ 2
P5+ 5
O2- -2
F1- -1
Li1+ 1
loop_
_atom_site_label
_atom_site_type_symbol
_atom_site_symmetry_multiplicity
_atom_site_Wyckoff_symbol
_atom_site_fract_x
_atom_site_fract_y
_atom_site_fract_z
_atom_site_B_iso_or_equiv
_atom_site_occupancy
_atom_site_attached_hydrogens
V1 V2+ 4 b 0 0.5 0 0.0058(1) 1. 0
P1 P5+ 4 e 0.5 0.3563(1) 0.25 0.0068(1) 1. 0
O1 O2- 8 f 0.3266(2) 0.4700(1) 0.1069(2) 0.0095(1) 1. 0
O2 O2- 8 f 0.0813(3) 0.7447(1) 0.1266(2) 0.0095(1) 1. 0
F1 F1- 4 e 0 0.3640(1) 0.25 0.0088(1) 1. 0
Li1 Li1+ 8 f 0.1174(2) 0.1613(1) 0.1597(2) 0.014(1) 0.5 0
Li2 Li1+ 8 f 0.1791(3) 0.2177(1) 0.4394(2) 0.014(1) 0.5 0
#End of TTdata_183877-ICSD