
#(C) 2018 by FIZ Karlsruhe - Leibniz Institute for Information Infrastructure.  All rights reserved.
data_183829-ICSD
_database_code_ICSD 183829
_audit_creation_date 2012-08-01
_chemical_name_systematic
'Lithium iron manganese tetraoxosilicate (1.98/0.82/0.2/1) - betaII'
_chemical_formula_structural 'Li1.98 Fe0.82 Mn0.2 (Si O4)'
_chemical_formula_sum 'Fe0.82 Li1.98 Mn0.2 O4 Si1'
_chemical_name_structure_type Enargite-Cu3AsS4
_exptl_crystal_density_diffrn 3.24
_cell_measurement_temperature 298.
_publ_section_title
'Polymorphism in Li2 (Fe, Mn) Si O4 : a combined diffraction and NMR study'
loop_
_citation_id
_citation_journal_full
_citation_year
_citation_journal_volume
_citation_page_first
_citation_page_last
_citation_journal_id_ASTM
primary 'Journal of Materials Chemistry' 2011 21 17823 17831 JMACEP
loop_
_publ_author_name
'Sirisopanaporn, C.'
'Dominko, R.'
'Masquelier, C.'
'Armstrong, A.R.'
'Mali, G.'
'Bruce, P.G.'
_cell_length_a 6.2798(2)
_cell_length_b 5.3469(2)
_cell_length_c 4.9681(2)
_cell_angle_alpha 90.
_cell_angle_beta 90.
_cell_angle_gamma 90.
_cell_volume 166.82
_cell_formula_units_Z 2
_symmetry_space_group_name_H-M 'P m n 21'
_symmetry_Int_Tables_number 31
_refine_ls_R_factor_all 0.013
loop_
_symmetry_equiv_pos_site_id
_symmetry_equiv_pos_as_xyz
1 'x+1/2, -y, z+1/2'
2 '-x+1/2, -y, z+1/2'
3 '-x, y, z'
4 'x, y, z'
loop_
_atom_type_symbol
_atom_type_oxidation_number
Li1+ 1
Fe2+ 2
Li1+ 1
Mn2+ 2
Si4+ 4
O2- -2
loop_
_atom_site_label
_atom_site_type_symbol
_atom_site_symmetry_multiplicity
_atom_site_Wyckoff_symbol
_atom_site_fract_x
_atom_site_fract_y
_atom_site_fract_z
_atom_site_B_iso_or_equiv
_atom_site_occupancy
_atom_site_attached_hydrogens
Li1 Li1+ 4 b 0.7462(11) 0.3321(14) -0.0009(18) 0.55(8) 0.978(8) 0
Fe1 Fe2+ 4 b 0.7462(11) 0.3321(14) -0.0009(18) 0.55(8) 0.022(8) 0
Fe2 Fe2+ 2 a 0 0.1700(5) 0.4914(8) 0.49(4) 0.772(9) 0
Li2 Li1+ 2 a 0 0.1700(5) 0.4914(8) 0.49(4) 0.028(9) 0
Mn1 Mn2+ 2 a 0 0.1700(5) 0.4914(8) 0.49(4) 0.200(9) 0
Si1 Si4+ 2 a 0 0.8237(7) 0 0.10(3) 1. 0
O1 O2- 4 b 0.7871(3) 0.6897(3) 0.8954(7) 0.59(3) 1. 0
O2 O2- 2 a 0 0.1247(4) 0.9073(11) 0.54(4) 1. 0
O3 O2- 2 a 0 0.8211(6) 0.3340(8) 0.57(4) 1. 0
#End of TTdata_183829-ICSD