
#(C) 2018 by FIZ Karlsruhe - Leibniz Institute for Information Infrastructure.  All rights reserved.
data_183874-ICSD
_database_code_ICSD 183874
_audit_creation_date 2012-08-01
_chemical_name_systematic 'Lithium iron phosphate'
_chemical_formula_structural 'Li Fe (P O4)'
_chemical_formula_sum 'Fe1 Li1 O4 P1'
_chemical_name_structure_type Olivine-Mg2SiO4
_exptl_crystal_density_diffrn 3.6
_publ_section_title

;
Structural, magnetic and electrochemical study of a new active phase obtained
by oxidation of a Li Fe P O4/C composite
;
loop_
_citation_id
_citation_journal_full
_citation_year
_citation_journal_volume
_citation_page_first
_citation_page_last
_citation_journal_id_ASTM
primary 'Journal of Materials Chemistry' 2012 22 4735 4743 JMACEP
loop_
_publ_author_name
'Palomares, V.'
'Goni, A.'
'Iturrondobeitia, A.'
'Lezama, L.'
'de Meatza, I.'
'Bengoechea, M.'
'Rojo, T.'
_cell_length_a 10.320(1)
_cell_length_b 6.0068(7)
_cell_length_c 4.6993(6)
_cell_angle_alpha 90.
_cell_angle_beta 90.
_cell_angle_gamma 90.
_cell_volume 291.31
_cell_formula_units_Z 4
_symmetry_space_group_name_H-M 'P n m a'
_symmetry_Int_Tables_number 62
_refine_ls_R_factor_all 0.0346
loop_
_symmetry_equiv_pos_site_id
_symmetry_equiv_pos_as_xyz
1 'x+1/2, y, -z+1/2'
2 'x, -y+1/2, z'
3 '-x+1/2, y+1/2, z+1/2'
4 '-x, -y, -z'
5 '-x+1/2, -y, z+1/2'
6 '-x, y+1/2, -z'
7 'x+1/2, -y+1/2, -z+1/2'
8 'x, y, z'
loop_
_atom_type_symbol
_atom_type_oxidation_number
Li1+ 1
Fe2+ 2
P5+ 5
O2- -2
loop_
_atom_site_label
_atom_site_type_symbol
_atom_site_symmetry_multiplicity
_atom_site_Wyckoff_symbol
_atom_site_fract_x
_atom_site_fract_y
_atom_site_fract_z
_atom_site_B_iso_or_equiv
_atom_site_occupancy
_atom_site_attached_hydrogens
Li1 Li1+ 4 a 0 0 0 1.3(1) 1. 0
Fe1 Fe2+ 4 c 0.2823(3) 0.25 0.969(1) 1.4(1) 1. 0
P1 P5+ 4 c 0.0967(6) 0.25 0.429(2) 0.8(2) 1. 0
O1 O2- 4 c 0.087(1) 0.25 0.739(3) 1.9(1) 1. 0
O2 O2- 4 c 0.450(1) 0.25 0.236(2) 1.9(2) 1. 0
O3 O2- 8 d 0.153(1) 0.050(2) 0.269(2) 1.8(1) 1. 0
#End of TTdata_183874-ICSD