
#(C) 2018 by FIZ Karlsruhe - Leibniz Institute for Information Infrastructure.  All rights reserved.
data_184602-ICSD
_database_code_ICSD 184602
_audit_creation_date 2012-08-01
_chemical_name_systematic 'Lithium vanadium phosphate oxide'
_chemical_formula_structural 'Li V (P O4) O'
_chemical_formula_sum 'Li1 O5 P1 V1'
_chemical_name_structure_type LiTiOPO4
_exptl_crystal_density_diffrn 3.28
_publ_section_title

;
Synthesis and crystallographic study of homeotypic Li V P O4 F and Li V P O4 O
;
loop_
_citation_id
_citation_journal_full
_citation_year
_citation_journal_volume
_citation_page_first
_citation_page_last
_citation_journal_id_ASTM
primary 'Chemistry of Materials' 2012 24 1223 1234 CMATEX
loop_
_publ_author_name
'Ateba Mba, J.-M.'
'Masquelier, C.'
'Suard, E.'
'Croguennec, L.'
_cell_length_a 6.7320(1)
_cell_length_b 7.1942(1)
_cell_length_c 7.9204(1)
_cell_angle_alpha 89.843(1)
_cell_angle_beta 91.272(1)
_cell_angle_gamma 116.886(4)
_cell_volume 342.04
_cell_formula_units_Z 4
_symmetry_space_group_name_H-M 'P -1'
_symmetry_Int_Tables_number 2
_refine_ls_R_factor_all 0.0173
loop_
_symmetry_equiv_pos_site_id
_symmetry_equiv_pos_as_xyz
1 '-x, -y, -z'
2 'x, y, z'
loop_
_atom_type_symbol
_atom_type_oxidation_number
V4+ 4
P5+ 5
O2- -2
Li1+ 1
loop_
_atom_site_label
_atom_site_type_symbol
_atom_site_symmetry_multiplicity
_atom_site_Wyckoff_symbol
_atom_site_fract_x
_atom_site_fract_y
_atom_site_fract_z
_atom_site_B_iso_or_equiv
_atom_site_occupancy
_atom_site_attached_hydrogens
V1 V4+ 2 i 0.2534(9) 0.0332(8) 0.7704(6) 0.498(6) 1. 0
V2 V4+ 2 i 0.2440(9) -0.4742(8) 0.7350(7) 0.974(1) 1. 0
P1 P5+ 2 i 0.2317(1) -0.2507(9) 0.0815(9) 0.397(3) 1. 0
P2 P5+ 2 i 0.2548(1) -0.7591(1) 0.4142(1) 0.584(2) 1. 0
O1 O2- 2 i 0.5460(5) 0.0936(4) 0.8274(1) 0.630(3) 1. 0
O2 O2- 2 i 0.1226(5) -0.1535(4) 0.9700(3) 0.609(7) 1. 0
O3 O2- 2 i -0.0680(4) -0.0812(4) 0.6968(1) 0.430(8) 1. 0
O4 O2- 2 i 0.3476(5) 0.1237(3) 0.5345(1) 0.341(2) 1. 0
O5 O2- 2 i 0.2390(7) -0.2514(5) 0.6654(4) 0.685(9) 1. 0
O6 O2- 2 i 0.2702(6) 0.2524(4) 0.8410(3) 0.469(3) 1. 0
O7 O2- 2 i 0.0779(6) -0.3521(3) 0.2300(1) 0.516(1) 1. 0
O8 O2- 2 i 0.2819(4) -0.3981(5) -0.0210(2) 0.550(1) 1. 0
O9 O2- 2 i 0.4303(8) -0.6167(14) 0.2921(2) 0.837(1) 1. 0
O10 O2- 2 i 0.1796(4) -0.6160(5) 0.5194(3) 0.638(3) 1. 0
Li1 Li1+ 2 i 0.204(5) -0.688(5) 0.075(4) 2.636(3) 1. 0
Li2 Li1+ 2 i 0.273(5) -0.207(5) 0.409(4) 2.612(1) 1. 0
#End of TTdata_184602-ICSD