
#(C) 2017 by FIZ Karlsruhe - Leibniz Institute for Information Infrastructure.  All rights reserved.
data_185218-ICSD
_database_code_ICSD 185218
_audit_creation_date 2013-02-01
_chemical_name_systematic 'Lithium cerium tris(tetrahydridoborate) chloride'
_chemical_formula_structural 'Li Ce (B H4)3 Cl'
_chemical_formula_sum 'H12 B3 Ce1 Cl1 Li1'
_exptl_crystal_density_diffrn 1.87
_cell_measurement_temperature 333.
_publ_section_title

;
Li Ce (B H4)3 Cl, a new lithium-ion conductor and hydrogen storage material
with isolated tetranuclear anionic clusters
;
loop_
_citation_id
_citation_journal_full
_citation_year
_citation_journal_volume
_citation_page_first
_citation_page_last
_citation_journal_id_ASTM
primary 'Chemistry of Materials' 2012 12 1654 1663 CMATEX
loop_
_publ_author_name
'Ley, M.B.'
'Ravnsbaek, D.B.'
'Filinchuk, Ya.'
'Lee Young-Su'
'Janot, R.'
'Cho Young Whan'
'Skibsted, J.'
'Jensen, T.R.'
_cell_length_a 11.72041(19)
_cell_length_b 11.72041(19)
_cell_length_c 11.72041(19)
_cell_angle_alpha 90.
_cell_angle_beta 90.
_cell_angle_gamma 90.
_cell_volume 1610.01
_cell_formula_units_Z 8
_symmetry_space_group_name_H-M 'I -4 3 m'
_symmetry_Int_Tables_number 217
_refine_ls_R_factor_all 0.0252
loop_
_symmetry_equiv_pos_site_id
_symmetry_equiv_pos_as_xyz
1 '-z, -y, x'
2 '-y, -x, z'
3 '-x, -z, y'
4 '-z, -x, y'
5 '-y, -z, x'
6 '-x, -y, z'
7 '-z, y, -x'
8 '-y, x, -z'
9 '-x, z, -y'
10 '-z, x, -y'
11 '-y, z, -x'
12 '-x, y, -z'
13 'z, -y, -x'
14 'y, -x, -z'
15 'x, -z, -y'
16 'z, -x, -y'
17 'y, -z, -x'
18 'x, -y, -z'
19 'z, y, x'
20 'y, x, z'
21 'x, z, y'
22 'z, x, y'
23 'y, z, x'
24 'x, y, z'
25 '-z+1/2, -y+1/2, x+1/2'
26 '-y+1/2, -x+1/2, z+1/2'
27 '-x+1/2, -z+1/2, y+1/2'
28 '-z+1/2, -x+1/2, y+1/2'
29 '-y+1/2, -z+1/2, x+1/2'
30 '-x+1/2, -y+1/2, z+1/2'
31 '-z+1/2, y+1/2, -x+1/2'
32 '-y+1/2, x+1/2, -z+1/2'
33 '-x+1/2, z+1/2, -y+1/2'
34 '-z+1/2, x+1/2, -y+1/2'
35 '-y+1/2, z+1/2, -x+1/2'
36 '-x+1/2, y+1/2, -z+1/2'
37 'z+1/2, -y+1/2, -x+1/2'
38 'y+1/2, -x+1/2, -z+1/2'
39 'x+1/2, -z+1/2, -y+1/2'
40 'z+1/2, -x+1/2, -y+1/2'
41 'y+1/2, -z+1/2, -x+1/2'
42 'x+1/2, -y+1/2, -z+1/2'
43 'z+1/2, y+1/2, x+1/2'
44 'y+1/2, x+1/2, z+1/2'
45 'x+1/2, z+1/2, y+1/2'
46 'z+1/2, x+1/2, y+1/2'
47 'y+1/2, z+1/2, x+1/2'
48 'x+1/2, y+1/2, z+1/2'
loop_
_atom_type_symbol
_atom_type_oxidation_number
Ce3+ 3
B3+ 3
Cl1- -1
Li1+ 1
H1- -1
loop_
_atom_site_label
_atom_site_type_symbol
_atom_site_symmetry_multiplicity
_atom_site_Wyckoff_symbol
_atom_site_fract_x
_atom_site_fract_y
_atom_site_fract_z
_atom_site_B_iso_or_equiv
_atom_site_occupancy
_atom_site_attached_hydrogens
Ce1 Ce3+ 8 c 0.64127(7) 0.64127(7) 0.64127(7) 0.0389(5) 1. 0
B1 B3+ 24 g 0.1216(18) 0.1216(18) 0.3735(17) 0.045(4) 1. 0
Cl1 Cl1- 8 c 0.8934(5) 0.8934(5) 0.8934(5) 0.048(2) 1. 0
Li1 Li1+ 12 d 0.25 0.5 0. 0.06333 0.49(5) 0
H1 H1- 48 h 0.1463(18) 0.0258(18) 0.3299(17) 0.07599 1. 0
H2 H1- 24 g 0.1118(18) 0.1118(18) 0.4777(17) 0.07599 1. 0
H3 H1- 24 g 0.1889(18) 0.1889(18) 0.3479(17) 0.07599 1. 0
#End of TTdata_185218-ICSD