
#(C) 2018 by FIZ Karlsruhe - Leibniz Institute for Information Infrastructure.  All rights reserved.
data_185390-ICSD
_database_code_ICSD 185390
_audit_creation_date 2013-02-01
_audit_update_record 2013-08-01
_chemical_name_systematic 'Sodium lithium titanium oxide (1.614/0.386/6/13)'
_chemical_formula_structural '(Na1.614 Li0.386) (Ti6 O13)'
_chemical_formula_sum 'Li0.386 Na1.614 O13 Ti6'
_chemical_name_structure_type Na2Ti6O13
_exptl_crystal_density_diffrn 3.46
_publ_section_title 'Structural reinvestigation of alkali hexatitanate'
loop_
_citation_id
_citation_journal_full
_citation_year
_citation_journal_volume
_citation_page_first
_citation_page_last
_citation_journal_id_ASTM
primary
'Diffusion and Defect Data--Solid State Data, Pt. B: Solid State Phenomena' 2011 170 208 212 DDBPE8
loop_
_publ_author_name
'Kataoka, K.'
'Kijima, N.'
'Hayakawa, H.'
'Akimoto, J.'
_cell_length_a 15.144(2)
_cell_length_b 3.7492(5)
_cell_length_c 9.162(2)
_cell_angle_alpha 90.
_cell_angle_beta 99.0131(9)
_cell_angle_gamma 90.
_cell_volume 513.78
_cell_formula_units_Z 2
_symmetry_space_group_name_H-M 'C 1 2/m 1'
_symmetry_Int_Tables_number 12
_refine_ls_R_factor_all 0.0247
loop_
_symmetry_equiv_pos_site_id
_symmetry_equiv_pos_as_xyz
1 '-x, y, -z'
2 '-x, -y, -z'
3 'x, -y, z'
4 'x, y, z'
5 '-x+1/2, y+1/2, -z'
6 '-x+1/2, -y+1/2, -z'
7 'x+1/2, -y+1/2, z'
8 'x+1/2, y+1/2, z'
loop_
_atom_type_symbol
_atom_type_oxidation_number
Li1+ 1
Na1+ 1
Ti4+ 4
O2- -2
loop_
_atom_site_label
_atom_site_type_symbol
_atom_site_symmetry_multiplicity
_atom_site_Wyckoff_symbol
_atom_site_fract_x
_atom_site_fract_y
_atom_site_fract_z
_atom_site_B_iso_or_equiv
_atom_site_occupancy
_atom_site_attached_hydrogens
Li1 Li1+ 4 i 0.4490(18) 0.5 0.245(3) 0.022(7) 0.193(6) 0
Na1 Na1+ 4 i 0.53847(11) 0 0.7313(3) 0.0401(7) 0.807(6) 0
Ti1 Ti4+ 4 i 0.88559(3) 0 0.90294(5) 0.00767(13) 1. 0
Ti2 Ti4+ 4 i 0.83339(3) 0 0.56354(4) 0.00708(14) 1. 0
Ti3 Ti4+ 4 i 0.77158(3) 0 0.22887(4) 0.00723(13) 1. 0
O1 O2- 2 a 0 0 0 0.0150(7) 1. 0
O2 O2- 4 i 0.92947(12) 0 0.70810(18) 0.0101(5) 1. 0
O3 O2- 4 i 0.87287(12) 0 0.38592(19) 0.0108(5) 1. 0
O4 O2- 4 i 0.70339(12) 0 0.42905(19) 0.0085(5) 1. 0
O5 O2- 4 i 0.83649(12) 0 0.0873(2) 0.0133(5) 1. 0
O6 O2- 4 i 0.64385(12) 0 0.11618(18) 0.0096(5) 1. 0
O7 O2- 4 i 0.76025(12) 0 0.75603(20) 0.0081(4) 1. 0
#End of TTdata_185390-ICSD