
#(C) 2018 by FIZ Karlsruhe - Leibniz Institute for Information Infrastructure.  All rights reserved.
data_185384-ICSD
_database_code_ICSD 185384
_audit_creation_date 2013-02-01
_chemical_name_systematic 'Lithium difluoro(oxalato)borate'
_chemical_formula_structural 'Li B F2 (C2 O4)'
_chemical_formula_sum 'C2 B1 F2 Li1 O4'
_exptl_crystal_density_diffrn 2.12
_cell_measurement_temperature 110.
_publ_section_title

;
Crystal structure and physical properties of lithium difluoro(oxalato)borate
(LiDFOB or Li B F2 Ox)
;
loop_
_citation_id
_citation_journal_full
_citation_year
_citation_journal_volume
_citation_page_first
_citation_page_last
_citation_journal_id_ASTM
primary 'Journal of Power Sources' 2011 196 9737 9742 JPSODZ
loop_
_publ_author_name
'Allen, J.L.'
'Han Sangdon'
'Boyle, P.D.'
'Henderson, W.A.'
_cell_length_a 6.2623(8)
_cell_length_b 11.4366(14)
_cell_length_c 6.3002(7)
_cell_angle_alpha 90.
_cell_angle_beta 90.
_cell_angle_gamma 90.
_cell_volume 451.22
_cell_formula_units_Z 4
_symmetry_space_group_name_H-M 'C m c m'
_symmetry_Int_Tables_number 63
_refine_ls_R_factor_all 0.033
loop_
_symmetry_equiv_pos_site_id
_symmetry_equiv_pos_as_xyz
1 '-x, y, -z+1/2'
2 '-x, -y, z+1/2'
3 '-x, y, z'
4 '-x, -y, -z'
5 'x, -y, z+1/2'
6 'x, y, -z+1/2'
7 'x, -y, -z'
8 'x, y, z'
9 '-x+1/2, y+1/2, -z+1/2'
10 '-x+1/2, -y+1/2, z+1/2'
11 '-x+1/2, y+1/2, z'
12 '-x+1/2, -y+1/2, -z'
13 'x+1/2, -y+1/2, z+1/2'
14 'x+1/2, y+1/2, -z+1/2'
15 'x+1/2, -y+1/2, -z'
16 'x+1/2, y+1/2, z'
loop_
_atom_type_symbol
_atom_type_oxidation_number
Li1+ 1
B3+ 3
F1- -1
C3+ 3
O2- -2
loop_
_atom_site_label
_atom_site_type_symbol
_atom_site_symmetry_multiplicity
_atom_site_Wyckoff_symbol
_atom_site_fract_x
_atom_site_fract_y
_atom_site_fract_z
_atom_site_B_iso_or_equiv
_atom_site_occupancy
_atom_site_attached_hydrogens
Li1 Li1+ 4 c 0.5 0.4691(2) 0.75 0.0137(4) 1 0
B1 B3+ 4 c 0. 0.40119(10) 0.75 0.01017(19) 1 0
F1 F1- 8 g 0.18067(8) 0.46900(4) 0.75 0.01313(12) 1 0
C1 C3+ 8 f 0. 0.21173(6) 0.62873(12) 0.00954(12) 1 0
O1 O2- 8 f 0. 0.12256(5) 0.52495(10) 0.01255(12) 1 0
O2 O2- 8 f 0. 0.31949(5) 0.56157(9) 0.01165(12) 1 0
loop_
_atom_site_aniso_label
_atom_site_aniso_type_symbol
_atom_site_aniso_U_11
_atom_site_aniso_U_22
_atom_site_aniso_U_33
_atom_site_aniso_U_12
_atom_site_aniso_U_13
_atom_site_aniso_U_23
Li1 Li1+ 0.0139(9) 0.0132(9) 0.0141(9) 0. 0. 0.
B1 B3+ 0.0099(4) 0.0085(4) 0.0121(4) 0. 0. 0.
F1 F1- 0.0096(2) 0.0117(2) 0.0180(2) -0.00182(15) 0. 0.
C1 C3+ 0.0080(3) 0.0096(2) 0.0110(3) 0. 0. -0.0005(2)
O1 O2- 0.0120(2) 0.0107(2) 0.0150(3) 0. 0. -0.00387(18)
O2 O2- 0.0153(3) 0.0092(2) 0.0104(2) 0. 0. 0.00043(17)
#End of TTdata_185384-ICSD