
#(C) 2018 by FIZ Karlsruhe - Leibniz Institute for Information Infrastructure.  All rights reserved.
data_186158-ICSD
_database_code_ICSD 186158
_audit_creation_date 2013-02-01
_chemical_name_systematic
'Lithium magnesium silicon aluminium oxide (1/1.5/1.5/6)'
_chemical_formula_structural '(Li0.5 Mg0.5) (Si1.5 Al1.5) O6'
_chemical_formula_sum 'Al1.5 Li0.5 Mg0.5 O6 Si1.5'
_exptl_crystal_density_diffrn 2.54
_cell_measurement_temperature 293.
_publ_section_title
'Crystallisation mechanism of a multicomponent lithium alumino-silicate glass'
loop_
_citation_id
_citation_journal_full
_citation_year
_citation_journal_volume
_citation_page_first
_citation_page_last
_citation_journal_id_ASTM
primary 'Materials Chemistry and Physics' 2012 134 1001 1006 MCHPDR
loop_
_publ_author_name
'Wurth, R.'
'Pascual, M.J.'
'Mather, G.C.'
'Pablos Martin, A.'
'Munoz, F.'
'Duran, A.'
'Cuello, G.J.'
'Ruessel, C.'
_cell_length_a 10.379(3)
_cell_length_b 10.379(3)
_cell_length_c 10.875(3)
_cell_angle_alpha 90.
_cell_angle_beta 90.
_cell_angle_gamma 120.
_cell_volume 1014.54
_cell_formula_units_Z 8
_symmetry_space_group_name_H-M 'P 62 2 2'
_symmetry_Int_Tables_number 180
_refine_ls_R_factor_all 0.0134
loop_
_symmetry_equiv_pos_site_id
_symmetry_equiv_pos_as_xyz
1 'x, x-y, -z+1/3'
2 '-x+y, y, -z'
3 '-y, -x, -z+2/3'
4 '-x, -x+y, -z+1/3'
5 'x-y, -y, -z'
6 'y, x, -z+2/3'
7 'x-y, x, z+1/3'
8 'y, -x+y, z+2/3'
9 '-x, -y, z'
10 '-x+y, -x, z+1/3'
11 '-y, x-y, z+2/3'
12 'x, y, z'
loop_
_atom_type_symbol
_atom_type_oxidation_number
O2- -2
Si4+ 4
Al3+ 3
Si4+ 4
Al3+ 3
Si4+ 4
Al3+ 3
Si4+ 4
Al3+ 3
Li1+ 1
Mg2+ 2
loop_
_atom_site_label
_atom_site_type_symbol
_atom_site_symmetry_multiplicity
_atom_site_Wyckoff_symbol
_atom_site_fract_x
_atom_site_fract_y
_atom_site_fract_z
_atom_site_B_iso_or_equiv
_atom_site_occupancy
_atom_site_attached_hydrogens
O1 O2- 12 k 0.101(4) 0.208(3) 0.254(3) 0.8 1. 0
O2 O2- 12 k 0.102(4) 0.701(3) 0.223(3) 0.8 1. 0
O3 O2- 12 k 0.616(5) 0.708(4) 0.255(3) 0.8 1. 0
O4 O2- 12 k 0.621(5) 0.217(3) 0.257(3) 0.8 1. 0
Si1 Si4+ 6 g 0.237(7) 0 0 0.6 0.5 0
Al1 Al3+ 6 g 0.237(7) 0 0 0.6 0.5 0
Si2 Si4+ 12 k 0.28(1) 0.50(1) -0.028(7) 0.6 0.25 0
Al2 Al3+ 12 k 0.28(1) 0.50(1) -0.028(7) 0.6 0.25 0
Si3 Si4+ 6 h 0.251(8) 0 0.5 0.6 0.5 0
Al3 Al3+ 6 h 0.251(8) 0 0.5 0.6 0.5 0
Si4 Si4+ 6 j 0.268(9) 0.536(18) 0.5 0.6 0.5 0
Al4 Al3+ 6 j 0.268(9) 0.536(18) 0.5 0.6 0.5 0
Li1 Li1+ 3 c 0.5 0 0 0.6 1. 0
Li2 Li1+ 6 f 0.5 0 0.30(1) 0.6 0.167 0
Mg2 Mg2+ 6 f 0.5 0 0.30(1) 0.6 0.667 0
#End of TTdata_186158-ICSD