
#(C) 2018 by FIZ Karlsruhe - Leibniz Institute for Information Infrastructure.  All rights reserved.
data_186497-ICSD
_database_code_ICSD 186497
_audit_creation_date 2013-08-01
_chemical_name_systematic 'Lithium iron silicate'
_chemical_formula_structural 'Li Fe (Si O4)'
_chemical_formula_sum 'Fe1 Li1 O4 Si1'
_exptl_crystal_density_diffrn 3.01
_publ_section_title

;
Structural Analysis during Charge-Discharge Process of Li2 Fe Si O4
Synthesized by Molten Carbonate Flux Method
;
loop_
_citation_id
_citation_journal_full
_citation_year
_citation_journal_volume
_citation_page_first
_citation_page_last
_citation_journal_id_ASTM
primary 'Journal of the Electrochemical Society' 2012 159 A525 A531 JESOAN
loop_
_publ_author_name
'Kojima, Akira'
'Kojima, Toshikatsu'
'Sakai, Tetsuo'
_cell_length_a 8.3811(6)
_cell_length_b 5.0258(2)
_cell_length_c 8.3564(3)
_cell_angle_alpha 90.
_cell_angle_beta 103.459(6)
_cell_angle_gamma 90.
_cell_volume 342.32
_cell_formula_units_Z 4
_symmetry_space_group_name_H-M 'P 1 21/n 1'
_symmetry_Int_Tables_number 14
_refine_ls_R_factor_all 0.0211
loop_
_symmetry_equiv_pos_site_id
_symmetry_equiv_pos_as_xyz
1 '-x+1/2, y+1/2, -z+1/2'
2 '-x, -y, -z'
3 'x+1/2, -y+1/2, z+1/2'
4 'x, y, z'
loop_
_atom_type_symbol
_atom_type_oxidation_number
Fe3+ 3
Li1+ 1
Fe3+ 3
Li1+ 1
Si4+ 4
O2- -2
loop_
_atom_site_label
_atom_site_type_symbol
_atom_site_symmetry_multiplicity
_atom_site_Wyckoff_symbol
_atom_site_fract_x
_atom_site_fract_y
_atom_site_fract_z
_atom_site_B_iso_or_equiv
_atom_site_occupancy
_atom_site_attached_hydrogens
Fe1 Fe3+ 4 e 0.6452(7) 0.831(1) 0.6299(7) 0.76(6) 0.491(4) 0
Li1 Li1+ 4 e 0.6452(7) 0.831(1) 0.6299(7) 0.76(6) 0.509(4) 0
Fe2 Fe3+ 4 e 0.5876(6) 0.188(1) 0.0647(7) 0.76(6) 0.509(4) 0
Li2 Li1+ 4 e 0.5876(6) 0.188(1) 0.0647(7) 0.76(6) 0.491(4) 0
Si1 Si4+ 4 e 0.025(1) 0.792(1) 0.790(1) 0.42(5) 1. 0
O1 O2- 4 e 0.8619(9) 0.694(2) 0.823(1) 0.2(2) 1. 0
O2 O2- 4 e 0.434(1) 0.233(2) 0.885(1) 0.2(2) 1. 0
O3 O2- 4 e 0.691(1) 0.768(2) 0.414(1) 0.2(2) 1. 0
O4 O2- 4 e 0.974(1) 0.888(1) 0.228(1) 0.2(2) 1. 0
#End of TTdata_186497-ICSD