
#(C) 2018 by FIZ Karlsruhe - Leibniz Institute for Information Infrastructure.  All rights reserved.
data_187060-ICSD
_database_code_ICSD 187060
_audit_creation_date 2013-08-01
_chemical_name_systematic 'Pentalithium dirubidium heptaborate'
_chemical_formula_structural 'Li5 Rb2 (B7 O14)'
_chemical_formula_sum 'B7 Li5 O14 Rb2'
_exptl_crystal_density_diffrn 2.78
_cell_measurement_temperature 296.
_publ_section_title

;
Li5 Rb2 B7 O14 : a new congruently melting compound with two kinds of B-O
one-dimensional chains and short UV absorption edge
;
loop_
_citation_id
_citation_journal_full
_citation_year
_citation_journal_volume
_citation_page_first
_citation_page_last
_citation_journal_id_ASTM
primary CrystEngComm 2012 14 6720 6725 CRECF4
loop_
_publ_author_name
'Yang, Yun'
'Pan, Shilie'
'Hou, Xueling'
'Dong, Xiaoyu'
'Su, Xin'
'Yang, Zhihua'
'Zhang, Min'
'Zhao, Wenwu'
'Chen, Zhaohui'
_cell_length_a 20.376(2)
_cell_length_b 13.5114(13)
_cell_length_c 4.3900(4)
_cell_angle_alpha 90.
_cell_angle_beta 90.
_cell_angle_gamma 90.
_cell_volume 1208.6
_cell_formula_units_Z 4
_symmetry_space_group_name_H-M 'A m a 2'
_symmetry_Int_Tables_number 40
_refine_ls_R_factor_all 0.0248
loop_
_symmetry_equiv_pos_site_id
_symmetry_equiv_pos_as_xyz
1 'x+1/2, -y, z'
2 '-x+1/2, y, z'
3 '-x, -y, z'
4 'x, y, z'
5 'x+1/2, -y+1/2, z+1/2'
6 '-x+1/2, y+1/2, z+1/2'
7 '-x, -y+1/2, z+1/2'
8 'x, y+1/2, z+1/2'
loop_
_atom_type_symbol
_atom_type_oxidation_number
Rb1+ 1
O2- -2
B3+ 3
Li1+ 1
loop_
_atom_site_label
_atom_site_type_symbol
_atom_site_symmetry_multiplicity
_atom_site_Wyckoff_symbol
_atom_site_fract_x
_atom_site_fract_y
_atom_site_fract_z
_atom_site_B_iso_or_equiv
_atom_site_occupancy
_atom_site_attached_hydrogens
Rb1 Rb1+ 8 c 0.346185(15) 0.31283(2) 1.03281(18) 0.02044(17) 1 0
O1 O2- 4 b 0.25 0.3134(2) 0.5255(18) 0.0189(8) 1 0
O2 O2- 8 c 0.30879(11) 0.46429(17) 0.5319(9) 0.0157(5) 1 0
O3 O2- 8 c 0.49189(14) 0.2816(2) 0.8560(7) 0.0148(6) 1 0
O4 O2- 4 b 0.25 0.6187(3) 0.4408(8) 0.0096(8) 1 0
O5 O2- 8 c 0.32541(13) 0.60877(19) 0.8525(6) 0.0110(6) 1 0
O6 O2- 8 c 0.36764(13) 0.60309(19) 0.3494(6) 0.0113(6) 1 0
O7 O2- 8 c 0.42679(11) 0.52316(18) 0.9557(5) 0.0120(6) 1 0
O8 O2- 8 c 0.52495(14) 0.1132(2) 0.9425(5) 0.0195(7) 1 0
B1 B3+ 4 b 0.25 0.4120(4) 0.533(2) 0.0144(11) 1 0
B2 B3+ 8 c 0.31087(18) 0.5740(3) 0.5403(16) 0.0096(7) 1 0
B3 B3+ 8 c 0.50873(18) 0.2004(3) 1.0386(19) 0.0121(8) 1 0
B4 B3+ 8 c 0.37414(18) 0.5758(3) 1.0446(16) 0.0092(8) 1 0
Li1 Li1+ 4 b 0.25 0.1748(6) 0.527(4) 0.0148(17) 1 0
Li2 Li1+ 8 c 0.4315(4) 0.5097(5) 0.518(2) 0.0313(16) 1 0
Li3 Li1+ 8 c 0.5120(3) 0.0850(4) 0.519(2) 0.0153(12) 1 0
loop_
_atom_site_aniso_label
_atom_site_aniso_type_symbol
_atom_site_aniso_U_11
_atom_site_aniso_U_22
_atom_site_aniso_U_33
_atom_site_aniso_U_12
_atom_site_aniso_U_13
_atom_site_aniso_U_23
Rb1 Rb1+ 0.0178(2) 0.0197(2) 0.0238(2) 0.00073(13) 0.0010(3) -0.0013(3)
O1 O2- 0.0261(18) 0.0095(18) 0.0209(19) 0. 0. 0.000(2)
O2 O2- 0.0162(12) 0.0103(12) 0.0207(12) 0.0020(9) -0.0014(19) 0.0022(19)
O3 O2- 0.0266(15) 0.0070(13) 0.0106(14) 0.0013(12) 0.0001(12) -0.0014(12)
O4 O2- 0.0104(16) 0.0098(18) 0.0085(19) 0. 0. 0.0009(14)
O5 O2- 0.0105(12) 0.0141(15) 0.0084(13) 0.0033(11) -0.0010(12) -0.0019(12)
O6 O2- 0.0073(13) 0.0172(16) 0.0093(13) -0.0003(11) -0.0011(11) -0.0013(12)
O7 O2- 0.0099(11) 0.0138(13) 0.0123(15) 0.0030(10) -0.0003(11) -0.0008(11)
O8 O2- 0.0285(15) 0.0171(15) 0.0129(17) 0.0111(12) -0.0031(12) -0.0037(11)
B1 B3+ 0.023(3) 0.012(3) 0.008(2) 0. 0. -0.003(4)
B2 B3+ 0.0096(17) 0.0133(19) 0.0060(16) -0.0001(13) 0.004(3) -0.002(2)
B3 B3+ 0.0113(17) 0.015(2) 0.0097(18) 0.0012(14) 0.001(3) -0.005(3)
B4 B3+ 0.0107(17) 0.0077(18) 0.0092(17) -0.0032(14) 0.001(3) -0.001(3)
Li1 Li1+ 0.016(4) 0.011(4) 0.017(4) 0. 0. -0.006(6)
Li2 Li1+ 0.040(4) 0.035(4) 0.019(3) 0.023(3) 0.002(5) -0.005(5)
Li3 Li1+ 0.018(3) 0.011(3) 0.017(3) 0.004(2) 0.001(4) 0.001(4)
#End of TTdata_187060-ICSD