
#(C) 2018 by FIZ Karlsruhe - Leibniz Institute for Information Infrastructure.  All rights reserved.
data_188676-ICSD
_database_code_ICSD 188676
_audit_creation_date 2014-02-01
_chemical_name_systematic 'Lithium dicobalt(II) triarsenate'
_chemical_formula_structural 'Li Co2 (As3 O10)'
_chemical_formula_sum 'As3 Co2 Li1 O10'
_exptl_crystal_density_diffrn 4.35
_cell_measurement_temperature 298.
_publ_section_title
'Li Co2 As3 O10: une nouvelle structure a tunnels interconnectes'
loop_
_citation_id
_citation_journal_full
_citation_year
_citation_journal_volume
_citation_page_first
_citation_page_last
_citation_journal_id_ASTM
primary 'Acta Crystallographica, Section E: Structure Reports Online' 2013 69
i39 i39 ACSEBH
loop_
_publ_author_name
'Youssef Ben Smida'
'Abderrahmen Guesmi'
'Ahmed Driss'
_cell_length_a 4.830(2)
_cell_length_b 8.721(2)
_cell_length_c 9.3269(9)
_cell_angle_alpha 90.
_cell_angle_beta 98.08(3)
_cell_angle_gamma 90.
_cell_volume 388.97
_cell_formula_units_Z 2
_symmetry_space_group_name_H-M 'P 1 21/m 1'
_symmetry_Int_Tables_number 11
_refine_ls_R_factor_all 0.0229
loop_
_symmetry_equiv_pos_site_id
_symmetry_equiv_pos_as_xyz
1 'x, -y+1/2, z'
2 '-x, -y, -z'
3 '-x, y+1/2, -z'
4 'x, y, z'
loop_
_atom_type_symbol
_atom_type_oxidation_number
Co2+ 2
As5+ 5
O2- -2
Li1+ 1
loop_
_atom_site_label
_atom_site_type_symbol
_atom_site_symmetry_multiplicity
_atom_site_Wyckoff_symbol
_atom_site_fract_x
_atom_site_fract_y
_atom_site_fract_z
_atom_site_B_iso_or_equiv
_atom_site_occupancy
_atom_site_attached_hydrogens
Co1 Co2+ 4 f 1.03666(8) 0.93447(6) 0.83555(4) 0.00531(17) 1 0
As1 As5+ 2 e 0.45631(9) 0.75 0.65408(5) 0.00377(16) 1 0
As2 As5+ 2 e 0.61125(9) 0.75 0.02638(5) 0.00327(16) 1 0
As3 As5+ 2 e 0.33999(10) 0.75 0.32284(5) 0.00419(16) 1 0
O1 O2- 2 e 0.5921(7) 0.75 0.2116(4) 0.0104(5) 1 0
O2 O2- 2 e 0.5743(7) 0.75 0.4830(4) 0.0104(5) 1 0
O3 O2- 2 e 1.2865(7) 0.75 0.9368(4) 0.0070(7) 1 0
O4 O2- 2 e 0.7674(7) 0.75 0.7587(4) 0.0070(7) 1 0
O5 O2- 4 f 0.8393(5) 1.0887(3) 0.6836(3) 0.0116(5) 1 0
O6 O2- 4 f 0.7861(5) 0.9132(3) 1.0088(3) 0.0071(5) 1 0
O7 O2- 4 f 1.2675(5) 0.9089(3) 0.6622(3) 0.0086(5) 1 0
Li1 Li1+ 2 c 1. 1. 0.5 0.007(3) 0.54(7) 0
Li2 Li1+ 4 f 0.947(8) 0.973(4) 0.500(3) 0.007(3) 0.23(4) 0
loop_
_atom_site_aniso_label
_atom_site_aniso_type_symbol
_atom_site_aniso_U_11
_atom_site_aniso_U_22
_atom_site_aniso_U_33
_atom_site_aniso_U_12
_atom_site_aniso_U_13
_atom_site_aniso_U_23
Co1 Co2+ 0.0062(3) 0.0054(3) 0.0042(3) -0.00006(14) 0.00014(19) -0.00079(15)
As1 As5+ 0.0035(2) 0.0057(3) 0.0019(3) 0. -0.00053(18) 0.
As2 As5+ 0.0028(2) 0.0041(3) 0.0026(3) 0. -0.00044(18) 0.
As3 As5+ 0.0043(2) 0.0056(3) 0.0024(3) 0. -0.00020(17) 0.
O1 O2- 0.0079(10) 0.0216(13) 0.0021(11) 0. 0.0021(9) 0.
O2 O2- 0.0079(10) 0.0216(13) 0.0021(11) 0. 0.0021(9) 0.
O3 O2- 0.0048(15) 0.0064(15) 0.0083(17) 0. -0.0039(13) 0.
O4 O2- 0.0074(15) 0.0079(15) 0.0045(15) 0. -0.0029(13) 0.
O5 O2- 0.0129(12) 0.0103(11) 0.0111(12) 0.0059(10) -0.0006(10) 0.0012(10)
O6 O2- 0.0071(11) 0.0070(10) 0.0076(12) -0.0045(10) 0.0021(9) -0.0032(10)
O7 O2- 0.0104(11) 0.0088(11) 0.0076(11) 0.0050(10) 0.0047(9) 0.0020(10)
#End of TTdata_188676-ICSD