
#(C) 2018 by FIZ Karlsruhe - Leibniz Institute for Information Infrastructure.  All rights reserved.
data_188772-ICSD
_database_code_ICSD 188772
_audit_creation_date 2014-02-01
_audit_update_record 2017-08-01
_chemical_name_systematic 'Trilithium dichromium(III) tris(orthophosphate)'
_chemical_formula_structural 'Li3 Cr2 (P O4)3'
_chemical_formula_sum 'Cr2 Li3 O12 P3'
_exptl_crystal_density_diffrn 3.16
_cell_measurement_temperature 290.
_publ_section_title
'The monoclinic form of trilithium dichromium(III) tris(orthophosphate)'
loop_
_citation_id
_citation_journal_full
_citation_year
_citation_journal_volume
_citation_page_first
_citation_page_last
_citation_journal_id_ASTM
primary 'Acta Crystallographica, Section E: Structure Reports Online' 2013 69
i72 i72 ACSEBH
loop_
_publ_author_name
'Joobin Sun'
'Pilsoo Kim'
'Hoseop Yun'
_cell_length_a 8.4625(4)
_cell_length_b 8.5560(3)
_cell_length_c 14.5344(5)
_cell_angle_alpha 90
_cell_angle_beta 125.186(2)
_cell_angle_gamma 90
_cell_volume 860.08
_cell_formula_units_Z 4
_symmetry_space_group_name_H-M 'P 1 21/c 1'
_symmetry_Int_Tables_number 14
_refine_ls_R_factor_all 0.0257
loop_
_symmetry_equiv_pos_site_id
_symmetry_equiv_pos_as_xyz
1 'x, -y+1/2, z+1/2'
2 '-x, -y, -z'
3 '-x, y+1/2, -z+1/2'
4 'x, y, z'
loop_
_atom_type_symbol
_atom_type_oxidation_number
Li1+ 1
Cr3+ 3
P5+ 5
O2- -2
loop_
_atom_site_label
_atom_site_type_symbol
_atom_site_symmetry_multiplicity
_atom_site_Wyckoff_symbol
_atom_site_fract_x
_atom_site_fract_y
_atom_site_fract_z
_atom_site_B_iso_or_equiv
_atom_site_occupancy
_atom_site_attached_hydrogens
Li1 Li1+ 4 e 0.4750(10) 0.2119(8) 0.1752(6) 0.022(2) 0.71(2) 0
Li2 Li1+ 4 e 0.104(2) 0.208(2) 0.3364(14) 0.022(6) 0.30(2) 0
Li3 Li1+ 4 e 0.1164(11) 0.5885(9) 0.1920(7) 0.017(3) 0.59(2) 0
Li4 Li1+ 4 e 0.1935(14) 0.1892(12) 0.2627(8) 0.036(3) 0.64(3) 0
Li5 Li1+ 4 e 0.672(3) 0.227(2) 0.2586(15) 0.019(6) 0.27(2) 0
Li6 Li1+ 4 e 0.273(3) 0.059(3) 0.1835(19) 0.072(8) 0.48(3) 0
Cr1 Cr3+ 4 e 0.36305(5) 0.53352(4) 0.11142(3) 0.00608(11) 1 0
Cr2 Cr3+ 4 e 0.13604(5) 0.53218(5) 0.38801(3) 0.00787(11) 1 0
P1 P5+ 4 e 0.46068(8) 0.39077(7) 0.35382(5) 0.00707(13) 1 0
P2 P5+ 4 e 0.75261(8) 0.38724(7) 0.14717(5) 0.00693(13) 1 0
P3 P5+ 4 e 0.04107(8) 0.25059(7) 0.00513(5) 0.00717(13) 1 0
O1 O2- 4 e 0.6057(2) 0.4162(2) 0.17588(15) 0.0129(4) 1 0
O2 O2- 4 e 0.2909(3) 0.3809(2) 0.36484(16) 0.0138(4) 1 0
O3 O2- 4 e 0.5955(3) 0.0119(2) 0.23933(16) 0.0181(4) 1 0
O4 O2- 4 e 0.0766(3) 0.0017(2) 0.27885(15) 0.0124(3) 1 0
O5 O2- 4 e 0.6674(3) 0.4170(2) 0.02547(15) 0.0135(4) 1 0
O6 O2- 4 e 0.3515(3) 0.5558(2) 0.54233(16) 0.0197(4) 1 0
O7 O2- 4 e 0.1224(3) 0.6330(2) 0.06579(16) 0.0135(4) 1 0
O8 O2- 4 e 0.0340(2) 0.1757(2) 0.09856(15) 0.0135(4) 1 0
O9 O2- 4 e 0.2391(2) 0.3295(2) 0.06304(17) 0.0166(4) 1 0
O10 O2- 4 e 0.0217(3) 0.3652(2) 0.41922(16) 0.0156(4) 1 0
O11 O2- 4 e 0.4784(2) 0.2282(2) 0.31441(14) 0.0106(3) 1 0
O12 O2- 4 e 0.1852(3) 0.7155(2) 0.32091(15) 0.0140(4) 1 0
loop_
_atom_site_aniso_label
_atom_site_aniso_type_symbol
_atom_site_aniso_U_11
_atom_site_aniso_U_22
_atom_site_aniso_U_33
_atom_site_aniso_U_12
_atom_site_aniso_U_13
_atom_site_aniso_U_23
Cr1 Cr3+ 0.00427(18) 0.00702(19) 0.00645(19) 0.00016(12) 0.00280(15) 0.00019(13)
Cr2 Cr3+ 0.00503(18) 0.0106(2) 0.00828(19) -0.00115(13) 0.00402(15) -0.00151(14)
P1 P5+ 0.0064(3) 0.0078(3) 0.0061(3) 0.0019(2) 0.0030(2) 0.0007(2)
P2 P5+ 0.0054(3) 0.0085(3) 0.0063(3) 0.0014(2) 0.0031(2) 0.0000(2)
P3 P5+ 0.0053(3) 0.0063(3) 0.0100(3) -0.0001(2) 0.0045(2) -0.0001(2)
O1 O2- 0.0089(8) 0.0216(9) 0.0095(8) 0.0060(7) 0.0060(7) 0.0022(7)
O2 O2- 0.0112(8) 0.0133(8) 0.0197(9) -0.0001(7) 0.0106(7) -0.0023(7)
O3 O2- 0.0348(11) 0.0105(8) 0.0154(9) -0.0066(8) 0.0182(9) -0.0043(7)
O4 O2- 0.0105(8) 0.0128(8) 0.0095(8) 0.0013(7) 0.0033(7) 0.0010(7)
O5 O2- 0.0140(8) 0.0171(9) 0.0089(8) 0.0027(7) 0.0062(7) 0.0018(7)
O6 O2- 0.0117(9) 0.0235(10) 0.0146(9) -0.0025(8) 0.0023(8) -0.0065(8)
O7 O2- 0.0117(8) 0.0122(8) 0.0186(9) 0.0053(7) 0.0099(7) 0.0053(7)
O8 O2- 0.0100(8) 0.0180(9) 0.0108(8) -0.0009(7) 0.0050(7) 0.0038(7)
O9 O2- 0.0076(8) 0.0083(8) 0.0302(11) -0.0018(7) 0.0087(8) -0.0017(8)
O10 O2- 0.0115(8) 0.0191(9) 0.0157(9) -0.0037(7) 0.0075(7) 0.0043(7)
O11 O2- 0.0125(8) 0.0081(8) 0.0086(8) 0.0038(6) 0.0045(7) 0.0002(6)
O12 O2- 0.0216(9) 0.0100(8) 0.0151(8) -0.0057(7) 0.0133(8) -0.0041(7)
#End of TTdata_188772-ICSD