
#(C) 2017 by FIZ Karlsruhe - Leibniz Institute for Information Infrastructure.  All rights reserved.
data_188779-ICSD
_database_code_ICSD 188779
_audit_creation_date 2014-02-01
_chemical_name_systematic
'Lithium aluminium hydroxide bromide hydrate (0.384/1/3/0.387/0.49)'
_chemical_formula_structural '(Li0.384 Al (O H)3) Br0.387 (H2 O)0.49'
_chemical_formula_sum 'H3.98 Al1 Br0.387 Li0.384 O3.49'
_exptl_crystal_density_diffrn 2.33
_publ_section_title

;
Structure of the chloride- and bromide-intercalated layered double hydroxides
of Li and Al - interplay of coulombic and hydrogen-bonding interactions in the
interlayer gallery
;
loop_
_citation_id
_citation_journal_full
_citation_year
_citation_journal_volume
_citation_page_first
_citation_page_last
_citation_journal_id_ASTM
primary 'European Journal of Inorganic Chemistry  (online)' 2013 2013 4686 4693
EJICFO
loop_
_publ_author_name
'Nagendran, Supreeth'
'Kamath, P.Vishnu'
_cell_length_a 5.08815
_cell_length_b 5.08815
_cell_length_c 15.28151
_cell_angle_alpha 90.
_cell_angle_beta 90.
_cell_angle_gamma 120.
_cell_volume 342.62
_cell_formula_units_Z 4
_symmetry_space_group_name_H-M 'P 63/m'
_symmetry_Int_Tables_number 176
_refine_ls_R_factor_all 0.0963
loop_
_symmetry_equiv_pos_site_id
_symmetry_equiv_pos_as_xyz
1 '-x+y, -x, -z+1/2'
2 '-y, x-y, -z+1/2'
3 'x, y, -z+1/2'
4 'x-y, x, -z'
5 'y, -x+y, -z'
6 '-x, -y, -z'
7 'x-y, x, z+1/2'
8 'y, -x+y, z+1/2'
9 '-x, -y, z+1/2'
10 '-x+y, -x, z'
11 '-y, x-y, z'
12 'x, y, z'
loop_
_atom_type_symbol
_atom_type_oxidation_number
O2- -2
Al3+ 3
Li1+ 1
Br1- -1
O2- -2
H1+ 1
loop_
_atom_site_label
_atom_site_type_symbol
_atom_site_symmetry_multiplicity
_atom_site_Wyckoff_symbol
_atom_site_fract_x
_atom_site_fract_y
_atom_site_fract_z
_atom_site_B_iso_or_equiv
_atom_site_occupancy
_atom_site_attached_hydrogens
O1 O2- 12 i 0.6555 0.65037 0.56259 0.01267 1. 0
Al1 Al3+ 4 f 0.3333 0.6667 0. 0.01267 0.99999 0
Li1 Li1+ 2 b 0. 0. 0. 0.01267 0.7686 0
Br1 Br1- 6 h 0.83601 0.33807 0.25 0.01267 0.14172 0
Br2 Br1- 2 a 0. 0. 0.25 0.01267 0.34932 0
O2 O2- 6 h 0.77028 0.12 0.25 0.01267 0.32704 0
#End of TTdata_188779-ICSD