
#(C) 2018 by FIZ Karlsruhe - Leibniz Institute for Information Infrastructure.  All rights reserved.
data_189096-ICSD
_database_code_ICSD 189096
_audit_creation_date 2014-02-01
_chemical_name_systematic 'Lithium manganese phosphate'
_chemical_formula_structural 'Li Mn (P O4)'
_chemical_formula_sum 'Li1 Mn1 O4 P1'
_chemical_name_structure_type Olivine-Mg2SiO4
_chemical_name_mineral Lithiophilite
_exptl_crystal_density_diffrn 3.44
_cell_measurement_temperature 293.
_publ_section_title

;
Topotactic formation of ferrisicklerite from natural triphylite under
hydrothermal conditions
;
loop_
_citation_id
_citation_journal_full
_citation_year
_citation_journal_volume
_citation_page_first
_citation_page_last
_citation_journal_id_ASTM
primary 'Mineralogy and Petrology' 2013 107 501 515 MIPEE9
loop_
_publ_author_name
'Schmid-Beurmann, Peter'
'Ottolini, Luisa'
'Hatert, Frederic'
'Geisler, Thorsten'
'Huyskens, Magdalena'
'Kahlenberg, Volker'
_cell_length_a 4.7438(4)
_cell_length_b 10.4476(8)
_cell_length_c 6.1037(4)
_cell_angle_alpha 90.
_cell_angle_beta 90.
_cell_angle_gamma 90.
_cell_volume 302.51
_cell_formula_units_Z 4
_symmetry_space_group_name_H-M 'P b n m'
_symmetry_Int_Tables_number 62
_refine_ls_R_factor_all 0.0115
loop_
_symmetry_equiv_pos_site_id
_symmetry_equiv_pos_as_xyz
1 '-x+1/2, y+1/2, z'
2 'x, y, -z+1/2'
3 'x+1/2, -y+1/2, z+1/2'
4 '-x, -y, -z'
5 'x+1/2, -y+1/2, -z'
6 '-x, -y, z+1/2'
7 '-x+1/2, y+1/2, -z+1/2'
8 'x, y, z'
loop_
_atom_type_symbol
_atom_type_oxidation_number
Li1+ 1
Mn2+ 2
P5+ 5
O2- -2
loop_
_atom_site_label
_atom_site_type_symbol
_atom_site_symmetry_multiplicity
_atom_site_Wyckoff_symbol
_atom_site_fract_x
_atom_site_fract_y
_atom_site_fract_z
_atom_site_B_iso_or_equiv
_atom_site_occupancy
_atom_site_attached_hydrogens
Li1 Li1+ 4 a 0 0 0 0.41(6) 1. 0
Mn1 Mn2+ 4 c 0.9700(9) 0.2817(3) 0.25 0.41(6) 1. 0
P1 P5+ 4 c 0.411(1) 0.0916(6) 0.25 0.41(6) 1. 0
O1 O2- 4 c 0.724(3) 0.096(2) 0.25 0.41(6) 1. 0
O2 O2- 4 c 0.219(2) 0.455(2) 0.25 0.41(6) 1. 0
O3 O2- 8 d 0.280(2) 0.161(1) 0.049(2) 0.41(6) 1. 0
#End of TTdata_189096-ICSD