
#(C) 2018 by FIZ Karlsruhe - Leibniz Institute for Information Infrastructure.  All rights reserved.
data_189250-ICSD
_database_code_ICSD 189250
_audit_creation_date 2014-02-01
_chemical_name_systematic 'Lithium tetrahydridoborate hemihydrazine'
_chemical_formula_structural 'Li (B H4) (N H2 N H2)0.5'
_chemical_formula_sum 'H6 B1 Li1 N1'
_exptl_crystal_density_diffrn 0.79
_cell_measurement_temperature 298.
_publ_section_title

;
Alkali and alkaline-earth metal borohydride hydrazinates: synthesis,
structures and dehydrogenation
;
loop_
_citation_id
_citation_journal_full
_citation_year
_citation_journal_volume
_citation_page_first
_citation_page_last
_citation_journal_id_ASTM
primary 'Physical Chemistry Chemical Physics' 2013 15 10487 10493 PPCPFQ
loop_
_publ_author_name
'He, Teng'
'Wu, Hui'
'Chen, Juner'
'Zhou, Wei'
'Wu, Guotao'
'Xiong, Zhitao'
'Zhang, Tao'
'Chen, Ping'
_cell_length_a 7.6930(7)
_cell_length_b 11.9132(12)
_cell_length_c 6.8954(11)
_cell_angle_alpha 90.
_cell_angle_beta 90.
_cell_angle_gamma 90.
_cell_volume 631.95
_cell_formula_units_Z 8
_symmetry_space_group_name_H-M 'P 21 21 21'
_symmetry_Int_Tables_number 19
loop_
_symmetry_equiv_pos_site_id
_symmetry_equiv_pos_as_xyz
1 '-x, y+1/2, -z+1/2'
2 'x+1/2, -y+1/2, -z'
3 '-x+1/2, -y, z+1/2'
4 'x, y, z'
loop_
_atom_type_symbol
_atom_type_oxidation_number
B3+ 3
H1- -1
B3+ 3
H1- -1
N0+ 0
H0+ 0
Li1+ 1
loop_
_atom_site_label
_atom_site_type_symbol
_atom_site_symmetry_multiplicity
_atom_site_Wyckoff_symbol
_atom_site_fract_x
_atom_site_fract_y
_atom_site_fract_z
_atom_site_B_iso_or_equiv
_atom_site_occupancy
_atom_site_attached_hydrogens
B1 B3+ 4 a 0.3098(11) 0.7715(10) 0.5265(22) 0.01955 1. 0
H1 H1- 4 a 0.3098(11) 0.7080(10) 0.6662(22) 0.01955 1. 0
H2 H1- 4 a 0.2990(11) 0.7166(10) 0.3767(22) 0.01955 1. 0
H3 H1- 4 a 0.1855(11) 0.8354(10) 0.5379(22) 0.01955 1. 0
H4 H1- 4 a 0.4449(11) 0.8259(10) 0.5251(22) 0.01955 1. 0
B2 B3+ 4 a 0.4656(9) 0.3945(10) 0.5194(24) 0.01955 1. 0
H5 H1- 4 a 0.3770(9) 0.3913(10) 0.6670(24) 0.01955 1. 0
H6 H1- 4 a 0.3711(9) 0.4075(10) 0.3782(24) 0.01955 1. 0
H7 H1- 4 a 0.5682(9) 0.4728(10) 0.5300(24) 0.01955 1. 0
H8 H1- 4 a 0.5460(9) 0.3062(10) 0.5026(24) 0.01955 1. 0
N1 N0+ 4 a 0.4954(8) 0.0957(8) 0.5963(12) 0.02995 1. 0
N2 N0+ 4 a 0.4298(6) 0.0954(8) 0.3977(12) 0.02995 1. 0
H9 H0+ 4 a 0.6290(7) 0.1011(13) 0.5906(16) 0.02995 1. 0
H10 H0+ 4 a 0.4658(20) 0.0193(13) 0.6580(23) 0.02995 1. 0
H11 H0+ 4 a 0.2963(6) 0.0900(13) 0.4034(18) 0.02995 1. 0
H12 H0+ 4 a 0.4859(16) 0.0289(14) 0.3256(21) 0.02995 1. 0
Li1 Li1+ 4 a 0.3944(27) 0.2280(24) 0.7715(31) 0.03909 1. 0
Li2 Li1+ 4 a 0.4774(32) 0.2475(20) 0.2434(35) 0.03909 1. 0
#End of TTdata_189250-ICSD