
#(C) 2018 by FIZ Karlsruhe - Leibniz Institute for Information Infrastructure.  All rights reserved.
data_189247-ICSD
_database_code_ICSD 189247
_audit_creation_date 2014-02-01
_chemical_name_systematic 'Tris(lithium tetrahydridoborate) hydrazine'
_chemical_formula_structural '(Li (B H4))3 (N H2 N H2)'
_chemical_formula_sum 'H16 B3 Li3 N2'
_exptl_crystal_density_diffrn 0.77
_cell_measurement_temperature 298.
_publ_section_title

;
Alkali and alkaline-earth metal borohydride hydrazinates: synthesis,
structures and dehydrogenation
;
loop_
_citation_id
_citation_journal_full
_citation_year
_citation_journal_volume
_citation_page_first
_citation_page_last
_citation_journal_id_ASTM
primary 'Physical Chemistry Chemical Physics' 2013 15 10487 10493 PPCPFQ
loop_
_publ_author_name
'He, Teng'
'Wu, Hui'
'Chen, Juner'
'Zhou, Wei'
'Wu, Guotao'
'Xiong, Zhitao'
'Zhang, Tao'
'Chen, Ping'
_cell_length_a 7.8984(7)
_cell_length_b 7.0663(6)
_cell_length_c 7.4985(6)
_cell_angle_alpha 90.
_cell_angle_beta 93.339(4)
_cell_angle_gamma 90.
_cell_volume 417.8
_cell_formula_units_Z 2
_symmetry_space_group_name_H-M 'P 1 21 1'
_symmetry_Int_Tables_number 4
loop_
_symmetry_equiv_pos_site_id
_symmetry_equiv_pos_as_xyz
1 '-x, y+1/2, -z'
2 'x, y, z'
loop_
_atom_type_symbol
_atom_type_oxidation_number
B3+ 3
H1- -1
B3+ 3
H1- -1
B3+ 3
H1- -1
N0+ 0
H0+ 0
Li1+ 1
N0+ 0
H0+ 0
Li1+ 1
loop_
_atom_site_label
_atom_site_type_symbol
_atom_site_symmetry_multiplicity
_atom_site_Wyckoff_symbol
_atom_site_fract_x
_atom_site_fract_y
_atom_site_fract_z
_atom_site_B_iso_or_equiv
_atom_site_occupancy
_atom_site_attached_hydrogens
B1 B3+ 2 a 0.2661(12) 0.5025(18) 0.8626(16) 0.0205 1. 0
H1 H1- 2 a 0.1583(12) 0.5953(18) 0.9345(16) 0.0205 1. 0
H2 H1- 2 a 0.3141(12) 0.5896(18) 0.7336(16) 0.0205 1. 0
H3 H1- 2 a 0.2054(12) 0.3506(18) 0.8128(16) 0.0205 1. 0
H4 H1- 2 a 0.3868(12) 0.4745(18) 0.9694(16) 0.0205 1. 0
B2 B3+ 2 a 0.0856(9) 0.3663(28) 0.3530(13) 0.0205 1. 0
H5 H1- 2 a 0.0849(9) 0.4015(28) 0.5129(13) 0.0205 1. 0
H6 H1- 2 a 0.0303(9) 0.5025(28) 0.2670(13) 0.0205 1. 0
H7 H1- 2 a -0.0038(9) 0.2279(28) 0.3186(13) 0.0205 1. 0
H8 H1- 2 a 0.2310(9) 0.3332(28) 0.3134(13) 0.0205 1. 0
B3 B3+ 2 a 0.5595(12) 0.5212(16) 0.3836(14) 0.0205 1. 0
H9 H1- 2 a 0.4914(12) 0.4985(16) 0.5247(14) 0.0205 1. 0
H10 H1- 2 a 0.4829(12) 0.6428(16) 0.2948(14) 0.0205 1. 0
H11 H1- 2 a 0.5570(12) 0.3721(16) 0.3002(14) 0.0205 1. 0
H12 H1- 2 a 0.7066(12) 0.5716(16) 0.4147(14) 0.0205 1. 0
N1 N0+ 2 a 0.1860(6) 0.8618(7) 0.1890(7) 0.03046 1. 0
H13 H0+ 2 a 0.2345(15) 0.9202(11) 0.3070(7) 0.03046 1. 0
H14 H0+ 2 a 0.0571(7) 0.8853(12) 0.1827(14) 0.03046 1. 0
Li1 Li1+ 2 a 0.2403(24) 0.5655(5) 0.1793(23) 0.0242 1. 0
N2 N0+ 2 a 0.2573(7) 0.9648(10) 0.0418(8) 0.03046 1. 0
H15 H0+ 2 a 0.3875(6) 0.9597(20) 0.0599(11) 0.03046 1. 0
H16 H0+ 2 a 0.2226(16) 1.1048(8) 0.0514(14) 0.03046 1. 0
Li2 Li1+ 2 a 0.1822(20) 0.8618(25) -0.2193(7) 0.0242 1. 0
Li3 Li1+ 2 a 0.3263(22) 0.3327(29) 0.5809(28) 0.0242 1. 0
#End of TTdata_189247-ICSD