
#(C) 2018 by FIZ Karlsruhe - Leibniz Institute for Information Infrastructure.  All rights reserved.
data_191297-ICSD
_database_code_ICSD 191297
_audit_creation_date 2014-08-01
_chemical_name_systematic 'Cerium lithium antimonide (1/3/2)'
_chemical_formula_structural 'Ce Li3 Sb2'
_chemical_formula_sum 'Ce1 Li3 Sb2'
_chemical_name_structure_type Li3LaSb2
_exptl_crystal_density_diffrn 4.95
_cell_measurement_temperature 200.
_publ_section_title

;
The layered antimonides RE Li3 Sb2 (RE = Ce-Nd, Sm, Gd-Ho). Filled derivatives
of the Ca Al2 Si2 structure type
;
loop_
_citation_id
_citation_journal_full
_citation_year
_citation_journal_volume
_citation_page_first
_citation_page_last
_citation_journal_id_ASTM
primary 'Journal of Solid State Chemistry' 2014 210 89 95 JSSCBI
loop_
_publ_author_name
'Schaefer, Marion C.'
'Suen, Nian-Tzu'
'Raglione, Michaella'
'Bobev, Svilen'
_cell_length_a 4.6065(3)
_cell_length_b 4.6065(3)
_cell_length_c 7.3769(10)
_cell_angle_alpha 90.
_cell_angle_beta 90.
_cell_angle_gamma 120.
_cell_volume 135.56
_cell_formula_units_Z 1
_symmetry_space_group_name_H-M 'P -3 m 1'
_symmetry_Int_Tables_number 164
_refine_ls_R_factor_all 0.0117
loop_
_symmetry_equiv_pos_site_id
_symmetry_equiv_pos_as_xyz
1 'x-y, -y, -z'
2 '-x, -x+y, -z'
3 'y, x, -z'
4 'x-y, x, -z'
5 'y, -x+y, -z'
6 '-x, -y, -z'
7 '-x+y, y, z'
8 'x, x-y, z'
9 '-y, -x, z'
10 '-x+y, -x, z'
11 '-y, x-y, z'
12 'x, y, z'
loop_
_atom_type_symbol
_atom_type_oxidation_number
Ce3+ 3
Sb3- -3
Li1+ 1
loop_
_atom_site_label
_atom_site_type_symbol
_atom_site_symmetry_multiplicity
_atom_site_Wyckoff_symbol
_atom_site_fract_x
_atom_site_fract_y
_atom_site_fract_z
_atom_site_B_iso_or_equiv
_atom_site_occupancy
_atom_site_attached_hydrogens
Ce1 Ce3+ 1 a 0 0 0 0.0066(1) 1. 0
Sb1 Sb3- 2 d 0.3333 0.6667 0.25536(4) 0.0073(2) 1. 0
Li1 Li1+ 2 d 0.3333 0.6667 0.644(1) 0.016(2) 1. 0
Li2 Li1+ 1 b 0 0 0.5 0.023(3) 1. 0
#End of TTdata_191297-ICSD