
#(C) 2018 by FIZ Karlsruhe - Leibniz Institute for Information Infrastructure.  All rights reserved.
data_191543-ICSD
_database_code_ICSD 191543
_audit_creation_date 2014-08-01
_chemical_name_systematic 'Dilithium manganese silicate'
_chemical_formula_structural 'Li2 Mn (Si O4)'
_chemical_formula_sum 'Li2 Mn1 O4 Si1'
_exptl_crystal_density_diffrn 3.15
_cell_measurement_temperature 293.
_publ_section_title

;
Li2 Mn Si O4 cathodes modified by phosphorous substitution and the structural
consequences
;
loop_
_citation_id
_citation_journal_full
_citation_year
_citation_journal_volume
_citation_page_first
_citation_page_last
_citation_journal_id_ASTM
primary 'Solid State Ionics' 2014 259 29 39 SSIOD3
loop_
_publ_author_name
'Gummow, Rosalind J.'
'Han, Guihong'
'Sharma, Neeraj'
'He, Yinghe'
_cell_length_a 6.3118(1)
_cell_length_b 5.3814(1)
_cell_length_c 4.9973(1)
_cell_angle_alpha 90.
_cell_angle_beta 90.
_cell_angle_gamma 90.
_cell_volume 169.74
_cell_formula_units_Z 2
_symmetry_space_group_name_H-M 'P m n 21'
_symmetry_Int_Tables_number 31
_refine_ls_R_factor_all 0.0216
loop_
_symmetry_equiv_pos_site_id
_symmetry_equiv_pos_as_xyz
1 'x+1/2, -y, z+1/2'
2 '-x+1/2, -y, z+1/2'
3 '-x, y, z'
4 'x, y, z'
loop_
_atom_type_symbol
_atom_type_oxidation_number
Li1+ 1
Mn2+ 2
Li1+ 1
Mn2+ 2
Li1+ 1
Mn2+ 2
Si4+ 4
O2- -2
loop_
_atom_site_label
_atom_site_type_symbol
_atom_site_symmetry_multiplicity
_atom_site_Wyckoff_symbol
_atom_site_fract_x
_atom_site_fract_y
_atom_site_fract_z
_atom_site_B_iso_or_equiv
_atom_site_occupancy
_atom_site_attached_hydrogens
Li1 Li1+ 4 b 0.758(1) 0.341(1) 0.885(1) 0.010(1) 0.60(1) 0
Mn1 Mn2+ 4 b 0.758(1) 0.341(1) 0.885(1) 0.004(1) 0.06(1) 0
Li2 Li1+ 4 b 0.758(1) 0.341(1) 0.760(1) 0.010(1) 0.35(1) 0
Mn2 Mn2+ 2 a 0 0.167(1) 0.504(1) 0.004(1) 0.45(1) 0
Li3 Li1+ 2 a 0 0.167(1) 0.504(1) 0.010(1) 0.04(1) 0
Mn3 Mn2+ 2 a 0 0.167(1) 0.371(1) 0.004(1) 0.45(1) 0
Si1 Si4+ 2 a 0 0.819(2) -0.018(2) 0.025(1) 0.92(1) 0
Si2 Si4+ 2 a 0 0.819(1) 0.770(1) 0.025(1) 0.08(1) 0
O1 O2- 2 a 0 0.821(1) 0.345(1) 0.020(1) 1. 0
O2 O2- 2 a 0 0.119(1) 0.918(2) 0.020(1) 1. 0
O3 O2- 4 b 0.781(1) 0.679(1) 0.902(1) 0.020(1) 1. 0
#End of TTdata_191543-ICSD