
#(C) 2018 by FIZ Karlsruhe - Leibniz Institute for Information Infrastructure.  All rights reserved.
data_191593-ICSD
_database_code_ICSD 191593
_audit_creation_date 2014-08-01
_chemical_name_systematic 'Trilithium dibarium trilanthanum octamolybdate'
_chemical_formula_structural 'Li3 Ba2 La3 (Mo O4)8'
_chemical_formula_sum 'Ba2 La3 Li3 Mo8 O32'
_chemical_name_structure_type Li3Ba2Tm3(MoO4)8
_exptl_crystal_density_diffrn 4.95
_cell_measurement_temperature 173.
_publ_section_title

;
Growth, structure and spectral properties of Dy(3+)-doped Li3 Ba2 La3 (Mo O4)8
crystal for potential use in solid-state yellow lasers
;
loop_
_citation_id
_citation_journal_full
_citation_year
_citation_journal_volume
_citation_page_first
_citation_page_last
_citation_journal_id_ASTM
primary 'Journal of Alloys and Compounds' 2014 607 110 117 JALCEU
loop_
_publ_author_name
'Song, Mingjun'
'Wu, Mingyan'
'Zhou, Weiwei'
'Zhou, Xiaojing'
'Wei, Bo'
'Wang, Guofu'
_cell_length_a 5.3091(5)
_cell_length_b 13.0211(11)
_cell_length_c 19.3301(15)
_cell_angle_alpha 90.
_cell_angle_beta 90.891(7)
_cell_angle_gamma 90.
_cell_volume 1336.13
_cell_formula_units_Z 2
_symmetry_space_group_name_H-M 'C 1 2/c 1'
_symmetry_Int_Tables_number 15
_refine_ls_R_factor_all 0.0314
loop_
_symmetry_equiv_pos_site_id
_symmetry_equiv_pos_as_xyz
1 'x, -y, z+1/2'
2 '-x, -y, -z'
3 '-x, y, -z+1/2'
4 'x, y, z'
5 'x+1/2, -y+1/2, z+1/2'
6 '-x+1/2, -y+1/2, -z'
7 '-x+1/2, y+1/2, -z+1/2'
8 'x+1/2, y+1/2, z'
loop_
_atom_type_symbol
_atom_type_oxidation_number
La3+ 3
Li1+ 1
Ba2+ 2
Mo6+ 6
O2- -2
loop_
_atom_site_label
_atom_site_type_symbol
_atom_site_symmetry_multiplicity
_atom_site_Wyckoff_symbol
_atom_site_fract_x
_atom_site_fract_y
_atom_site_fract_z
_atom_site_B_iso_or_equiv
_atom_site_occupancy
_atom_site_attached_hydrogens
La1 La3+ 8 f 0.5020(1) 0.6463(1) 0.4665(1) 0.003(1) 0.75 0
Li1 Li1+ 8 f 0.5020(1) 0.6463(1) 0.4665(1) 0.003(1) 0.25 0
Li2 Li1+ 4 e 0 0.3150(15) 0.25 0.016(5) 1. 0
Ba1 Ba2+ 4 e 0.5 0.5275(1) 0.25 0.004(1) 1. 0
Mo1 Mo6+ 8 f 0.9959(1) 0.4397(1) 0.4041(1) 0.003(1) 1. 0
Mo2 Mo6+ 8 f 0.4937(1) 0.2375(1) 0.1550(1) 0.003(1) 1. 0
O1 O2- 8 f 0.2459(9) 0.4831(4) 0.4598(3) 0.007(1) 1. 0
O2 O2- 8 f 0.7673(9) 0.5371(4) 0.3913(3) 0.007(1) 1. 0
O3 O2- 8 f 0.2528(9) 0.1437(4) 0.1430(3) 0.005(1) 1. 0
O4 O2- 8 f 0.7324(9) 0.1995(4) 0.2141(3) 0.006(1) 1. 0
O5 O2- 8 f 0.6440(9) 0.2567(4) 0.0731(3) 0.007(1) 1. 0
O6 O2- 8 f 0.3525(9) 0.3515(4) 0.1829(3) 0.006(1) 1. 0
O7 O2- 8 f 0.8611(9) 0.3325(4) 0.4486(3) 0.006(1) 1. 0
O8 O2- 8 f 0.1334(9) 0.4121(4) 0.3239(3) 0.007(1) 1. 0
#End of TTdata_191593-ICSD