
#(C) 2018 by FIZ Karlsruhe - Leibniz Institute for Information Infrastructure.  All rights reserved.
data_192496-ICSD
_database_code_ICSD 192496
_audit_creation_date 2015-02-01
_chemical_name_systematic 'Dilithium triborophosphate'
_chemical_formula_structural 'Li2 (B3 P O8)'
_chemical_formula_sum 'B3 Li2 O8 P1'
_exptl_crystal_density_diffrn 2.28
_cell_measurement_temperature 293.
_publ_section_title

;
The crystal structure of Li2 B3 P O8 with the 2D-linkage of B O3, B O4 and P
O4 groups
;
loop_
_citation_id
_citation_journal_full
_citation_year
_citation_journal_volume
_citation_page_first
_citation_page_last
_citation_journal_id_ASTM
primary 'Dalton Transactions' 2014 43 14525 14528 DTARAF
loop_
_publ_author_name
'Hasegawa, Toru'
'Yamane, Hisanori'
_cell_length_a 8.6965(3)
_cell_length_b 10.7354(5)
_cell_length_c 12.8282(5)
_cell_angle_alpha 90.8057(14)
_cell_angle_beta 90.6311(12)
_cell_angle_gamma 90.0940(13)
_cell_volume 1197.45
_cell_formula_units_Z 8
_symmetry_space_group_name_H-M 'P -1'
_symmetry_Int_Tables_number 2
_refine_ls_R_factor_all 0.0396
loop_
_symmetry_equiv_pos_site_id
_symmetry_equiv_pos_as_xyz
1 '-x, -y, -z'
2 'x, y, z'
loop_
_atom_type_symbol
_atom_type_oxidation_number
Li1+ 1
B3+ 3
P5+ 5
O2- -2
loop_
_atom_site_label
_atom_site_type_symbol
_atom_site_symmetry_multiplicity
_atom_site_Wyckoff_symbol
_atom_site_fract_x
_atom_site_fract_y
_atom_site_fract_z
_atom_site_B_iso_or_equiv
_atom_site_occupancy
_atom_site_attached_hydrogens
Li1 Li1+ 2 i 0.1194(7) 0.3435(6) 0.7149(5) 0.0269(13) 1 0
Li2 Li1+ 2 i 0.1349(7) 0.7728(5) 0.2632(5) 0.0229(12) 1 0
Li3 Li1+ 2 i 0.2177(7) 0.2781(5) 0.0384(5) 0.0248(13) 1 0
Li4 Li1+ 2 i 0.2550(7) 0.5441(5) 0.3297(5) 0.0256(13) 1 0
Li5 Li1+ 2 i 0.2578(7) 0.0611(5) 0.8284(5) 0.0253(13) 1 0
Li6 Li1+ 2 i 0.3636(6) 0.5413(5) 0.0092(4) 0.0191(11) 1 0
Li7 Li1+ 2 i 0.4378(9) 0.0430(6) 0.4145(6) 0.0411(18) 1 0
Li8 Li1+ 2 i 0.7620(7) 0.1693(5) 0.3954(5) 0.0267(13) 1 0
B1 B3+ 2 i 0.0485(4) 0.3273(3) 0.3938(3) 0.0159(7) 1 0
B2 B3+ 2 i 0.1188(4) 0.1104(3) 0.4252(3) 0.0129(7) 1 0
B3 B3+ 2 i 0.1895(4) 0.0114(3) 0.1454(3) 0.0132(7) 1 0
B4 B3+ 2 i 0.1998(4) 0.5544(3) 0.6125(3) 0.0142(7) 1 0
B5 B3+ 2 i 0.3018(4) 0.2599(3) 0.3506(3) 0.0134(7) 1 0
B6 B3+ 2 i 0.3936(4) 0.3953(3) 0.6465(3) 0.0131(7) 1 0
B7 B3+ 2 i 0.4455(4) 0.0863(3) 0.1207(3) 0.0126(7) 1 0
B8 B3+ 2 i 0.5442(4) 0.3815(3) 0.3393(3) 0.0138(7) 1 0
B9 B3+ 2 i 0.5910(4) 0.1150(3) 0.7927(3) 0.0135(7) 1 0
B10 B3+ 2 i 0.6894(4) 0.1961(3) 0.0760(3) 0.0137(7) 1 0
B11 B3+ 2 i 0.9067(4) 0.3404(3) 0.0575(3) 0.0138(7) 1 0
B12 B3+ 2 i 0.9459(4) 0.1200(3) 0.1009(3) 0.0142(7) 1 0
P1 P5+ 2 i 0.07737(9) 0.52997(7) 0.12829(6) 0.01285(17) 1 0
P2 P5+ 2 i 0.09892(9) 0.06616(7) 0.63710(6) 0.01323(17) 1 0
P3 P5+ 2 i 0.59107(9) 0.20738(7) 0.59192(6) 0.01129(16) 1 0
P4 P5+ 2 i 0.59190(9) 0.69182(7) 0.14312(6) 0.01225(17) 1 0
O1 O2- 2 i 0.0035(2) 0.20989(19) 0.41305(18) 0.0173(5) 1 0
O2 O2- 2 i 0.0035(2) 0.2347(2) 0.09068(18) 0.0172(5) 1 0
O3 O2- 2 i 0.0345(2) 0.0188(2) 0.12575(18) 0.0171(5) 1 0
O4 O2- 2 i 0.0416(2) 0.6339(2) 0.04828(17) 0.0171(5) 1 0
O5 O2- 2 i 0.0474(2) 0.5746(2) 0.59950(19) 0.0196(5) 1 0
O6 O2- 2 i 0.0622(2) 0.9913(2) 0.38834(18) 0.0173(5) 1 0
O7 O2- 2 i 0.0688(3) 0.1807(2) 0.70236(19) 0.0229(5) 1 0
O8 O2- 2 i 0.0690(2) 0.5546(2) 0.87040(17) 0.0166(5) 1 0
O9 O2- 2 i 0.0853(2) 0.5941(2) 0.23411(17) 0.0170(5) 1 0
O10 O2- 2 i 0.1744(3) 0.1019(2) 0.53217(18) 0.0214(5) 1 0
O11 O2- 2 i 0.1994(2) 0.35617(19) 0.36482(18) 0.0167(5) 1 0
O12 O2- 2 i 0.2173(2) 0.4567(2) 0.09794(18) 0.0173(5) 1 0
O13 O2- 2 i 0.2449(2) 0.90717(19) 0.18980(17) 0.0141(4) 1 0
O14 O2- 2 i 0.2486(2) 0.43693(19) 0.59977(17) 0.0149(4) 1 0
O15 O2- 2 i 0.2600(2) 0.14049(19) 0.36507(17) 0.0145(4) 1 0
O16 O2- 2 i 0.2673(2) 0.7189(2) 0.38041(17) 0.0168(5) 1 0
O17 O2- 2 i 0.2883(2) 0.2233(2) 0.90071(17) 0.0177(5) 1 0
O18 O2- 2 i 0.2885(2) 0.10564(19) 0.11519(17) 0.0162(5) 1 0
O19 O2- 2 i 0.3444(2) 0.3478(2) 0.74722(17) 0.0185(5) 1 0
O20 O2- 2 i 0.4371(2) 0.76109(19) 0.16470(17) 0.0154(5) 1 0
O21 O2- 2 i 0.4502(2) 0.28156(19) 0.32196(18) 0.0162(5) 1 0
O22 O2- 2 i 0.4518(2) 0.29727(19) 0.57872(17) 0.0159(5) 1 0
O23 O2- 2 i 0.4941(2) 0.50111(19) 0.34115(17) 0.0156(5) 1 0
O24 O2- 2 i 0.4954(2) 0.0189(2) 0.83939(17) 0.0157(5) 1 0
O25 O2- 2 i 0.5336(2) 0.1806(2) 0.08336(18) 0.0173(5) 1 0
O26 O2- 2 i 0.5529(2) 0.11031(19) 0.67929(17) 0.0153(5) 1 0
O27 O2- 2 i 0.5538(3) 0.5799(2) 0.07765(18) 0.0204(5) 1 0
O28 O2- 2 i 0.5978(2) 0.1265(2) 0.49453(17) 0.0160(5) 1 0
O29 O2- 2 i 0.6991(2) 0.35095(19) 0.35728(18) 0.0173(5) 1 0
O30 O2- 2 i 0.7430(2) 0.31136(19) 0.05801(18) 0.0166(5) 1 0
O31 O2- 2 i 0.7890(2) 0.09640(19) 0.08840(18) 0.0157(5) 1 0
O32 O2- 2 i 0.7960(3) 0.0252(2) 0.30972(18) 0.0190(5) 1 0
loop_
_atom_site_aniso_label
_atom_site_aniso_type_symbol
_atom_site_aniso_U_11
_atom_site_aniso_U_22
_atom_site_aniso_U_33
_atom_site_aniso_U_12
_atom_site_aniso_U_13
_atom_site_aniso_U_23
Li1 Li1+ 0.019(3) 0.022(3) 0.040(4) -0.006(2) 0.007(3) -0.005(3)
Li2 Li1+ 0.019(3) 0.018(3) 0.031(3) -0.004(2) -0.001(2) -0.001(2)
Li3 Li1+ 0.023(3) 0.023(3) 0.029(3) -0.003(2) 0.011(2) -0.002(2)
Li4 Li1+ 0.025(3) 0.015(3) 0.036(4) 0.002(2) -0.008(3) 0.001(2)
Li5 Li1+ 0.030(3) 0.019(3) 0.026(3) -0.007(2) -0.005(2) 0.001(2)
Li6 Li1+ 0.010(2) 0.021(3) 0.026(3) 0.000(2) 0.001(2) -0.003(2)
Li7 Li1+ 0.046(4) 0.026(3) 0.050(4) 0.009(3) -0.031(4) -0.009(3)
Li8 Li1+ 0.029(3) 0.018(3) 0.034(3) 0.002(2) 0.009(3) 0.000(2)
B1 B3+ 0.0145(17) 0.0151(17) 0.0178(18) 0.0006(14) -0.0011(13) -0.0011(14)
B2 B3+ 0.0105(16) 0.0108(15) 0.0175(17) -0.0014(13) 0.0045(13) -0.0004(13)
B3 B3+ 0.0122(16) 0.0115(15) 0.0158(17) -0.0030(13) 0.0037(13) -0.0001(13)
B4 B3+ 0.0116(16) 0.0152(17) 0.0160(17) -0.0038(13) 0.0013(13) 0.0023(13)
B5 B3+ 0.0117(16) 0.0133(16) 0.0151(17) 0.0020(13) -0.0011(13) 0.0004(13)
B6 B3+ 0.0128(16) 0.0092(15) 0.0173(17) -0.0003(13) -0.0009(13) -0.0001(13)
B7 B3+ 0.0121(16) 0.0125(16) 0.0130(17) -0.0019(13) 0.0005(13) -0.0014(13)
B8 B3+ 0.0116(16) 0.0145(16) 0.0155(17) 0.0011(13) 0.0011(13) 0.0015(13)
B9 B3+ 0.0116(16) 0.0118(16) 0.0173(18) -0.0008(13) 0.0022(13) 0.0012(13)
B10 B3+ 0.0157(17) 0.0136(16) 0.0118(17) -0.0019(13) -0.0020(13) 0.0032(13)
B11 B3+ 0.0108(16) 0.0080(15) 0.0226(19) -0.0039(12) -0.0010(13) 0.0031(13)
B12 B3+ 0.0158(17) 0.0141(16) 0.0127(17) -0.0011(13) -0.0006(13) 0.0018(13)
P1 P5+ 0.0124(4) 0.0108(4) 0.0153(4) -0.0011(3) 0.0002(3) -0.0014(3)
P2 P5+ 0.0120(4) 0.0113(4) 0.0163(4) -0.0020(3) 0.0004(3) -0.0015(3)
P3 P5+ 0.0112(4) 0.0085(3) 0.0142(4) 0.0003(3) 0.0000(3) -0.0006(3)
P4 P5+ 0.0117(4) 0.0111(4) 0.0139(4) 0.0002(3) 0.0005(3) -0.0014(3)
O1 O2- 0.0132(11) 0.0107(10) 0.0281(13) -0.0005(8) 0.0033(9) 0.0015(9)
O2 O2- 0.0101(10) 0.0123(10) 0.0292(13) 0.0007(8) -0.0025(9) 0.0042(9)
O3 O2- 0.0085(10) 0.0143(11) 0.0285(13) 0.0006(8) -0.0019(9) 0.0055(9)
O4 O2- 0.0168(11) 0.0151(11) 0.0196(12) 0.0006(9) 0.0046(9) 0.0010(9)
O5 O2- 0.0124(11) 0.0111(10) 0.0354(14) 0.0022(9) -0.0029(10) 0.0002(10)
O6 O2- 0.0121(11) 0.0114(10) 0.0283(13) -0.0015(8) -0.0018(9) -0.0019(9)
O7 O2- 0.0199(12) 0.0177(12) 0.0308(14) -0.0043(9) 0.0039(10) -0.0091(10)
O8 O2- 0.0132(11) 0.0138(11) 0.0230(12) -0.0025(9) 0.0038(9) -0.0020(9)
O9 O2- 0.0180(11) 0.0157(11) 0.0172(11) -0.0024(9) 0.0012(9) -0.0016(9)
O10 O2- 0.0161(12) 0.0280(13) 0.0200(12) -0.0062(10) -0.0021(9) 0.0032(10)
O11 O2- 0.0114(10) 0.0111(10) 0.0278(13) -0.0004(8) 0.0017(9) 0.0016(9)
O12 O2- 0.0136(11) 0.0146(11) 0.0237(12) -0.0004(9) 0.0032(9) -0.0016(9)
O13 O2- 0.0114(10) 0.0097(10) 0.0214(12) 0.0000(8) 0.0014(8) 0.0037(8)
O14 O2- 0.0134(11) 0.0113(10) 0.0200(12) 0.0006(8) -0.0032(9) -0.0002(9)
O15 O2- 0.0109(10) 0.0097(10) 0.0230(12) -0.0014(8) 0.0052(9) 0.0006(9)
O16 O2- 0.0141(11) 0.0142(11) 0.0221(12) -0.0022(9) -0.0003(9) -0.0011(9)
O17 O2- 0.0164(11) 0.0161(11) 0.0206(12) -0.0022(9) 0.0042(9) 0.0000(9)
O18 O2- 0.0121(11) 0.0127(10) 0.0239(12) 0.0009(8) 0.0005(9) 0.0063(9)
O19 O2- 0.0154(11) 0.0220(12) 0.0181(12) -0.0012(9) -0.0004(9) 0.0031(9)
O20 O2- 0.0118(10) 0.0129(10) 0.0213(12) -0.0003(8) 0.0022(9) -0.0018(9)
O21 O2- 0.0121(10) 0.0115(10) 0.0252(12) -0.0014(8) 0.0048(9) -0.0014(9)
O22 O2- 0.0154(11) 0.0125(10) 0.0197(12) 0.0036(9) -0.0024(9) -0.0019(9)
O23 O2- 0.0108(10) 0.0104(10) 0.0256(12) 0.0012(8) -0.0013(9) 0.0000(9)
O24 O2- 0.0103(10) 0.0156(11) 0.0214(12) -0.0011(8) 0.0012(8) 0.0038(9)
O25 O2- 0.0108(10) 0.0154(11) 0.0258(12) 0.0001(9) 0.0005(9) 0.0065(9)
O26 O2- 0.0193(11) 0.0107(10) 0.0159(11) -0.0005(9) -0.0022(9) 0.0006(8)
O27 O2- 0.0181(12) 0.0172(11) 0.0256(13) 0.0010(9) -0.0019(9) -0.0097(10)
O28 O2- 0.0167(11) 0.0146(11) 0.0166(11) -0.0004(9) 0.0010(9) -0.0034(9)
O29 O2- 0.0107(10) 0.0100(10) 0.0314(13) 0.0005(8) 0.0016(9) 0.0010(9)
O30 O2- 0.0135(11) 0.0109(10) 0.0255(12) -0.0004(8) -0.0014(9) 0.0032(9)
O31 O2- 0.0081(10) 0.0124(10) 0.0269(12) 0.0012(8) 0.0006(9) 0.0046(9)
O32 O2- 0.0188(12) 0.0180(11) 0.0202(12) -0.0008(9) -0.0033(9) 0.0010(9)
#End of TTdata_192496-ICSD