
#(C) 2018 by FIZ Karlsruhe - Leibniz Institute for Information Infrastructure.  All rights reserved.
data_192493-ICSD
_database_code_ICSD 192493
_audit_creation_date 2015-02-01
_chemical_name_systematic 'Lithium deuterium strontium ditantalate'
_chemical_formula_structural 'Li D Sr (Ta2 O7)'
_chemical_formula_sum 'D1 Li1 O7 Sr1 Ta2'
_exptl_crystal_density_diffrn 6.58
_cell_measurement_temperature 293.
_publ_section_title

;
Thermal structural characterization of the acentric layered perovskite Li H Sr
Ta2 O7: X-ray and neutron diffraction, SHG and Raman experiments
;
loop_
_citation_id
_citation_journal_full
_citation_year
_citation_journal_volume
_citation_page_first
_citation_page_last
_citation_journal_id_ASTM
primary 'Dalton Transactions' 2014 43 14841 14850 DTARAF
loop_
_publ_author_name
'Galven, Cyrille'
'Mounier, Denis'
'Pagnier, Thierry'
'Suard, Emmanuelle'
'Le Berre, Francoise'
'Crosnier-Lopez, Marie-Pierre'
_cell_length_a 5.5530(1)
_cell_length_b 5.5258(1)
_cell_length_c 18.7767(4)
_cell_angle_alpha 90.
_cell_angle_beta 90.
_cell_angle_gamma 90.
_cell_volume 576.16
_cell_formula_units_Z 4
_symmetry_space_group_name_H-M 'A m a 2'
_symmetry_Int_Tables_number 40
_refine_ls_R_factor_all 0.0171
loop_
_symmetry_equiv_pos_site_id
_symmetry_equiv_pos_as_xyz
1 'x+1/2, -y, z'
2 '-x+1/2, y, z'
3 '-x, -y, z'
4 'x, y, z'
5 'x+1/2, -y+1/2, z+1/2'
6 '-x+1/2, y+1/2, z+1/2'
7 '-x, -y+1/2, z+1/2'
8 'x, y+1/2, z+1/2'
loop_
_atom_type_symbol
_atom_type_oxidation_number
Ta5+ 5
Sr2+ 2
O2- -2
Li1+ 1
D1+ 1
loop_
_atom_site_label
_atom_site_type_symbol
_atom_site_symmetry_multiplicity
_atom_site_Wyckoff_symbol
_atom_site_fract_x
_atom_site_fract_y
_atom_site_fract_z
_atom_site_B_iso_or_equiv
_atom_site_occupancy
_atom_site_attached_hydrogens
Ta1 Ta5+ 4 b 0.25 0.743(1) 0.113 0.74(7) 1. 0
Ta2 Ta5+ 4 b 0.25 0.753(1) 0.8875(2) 0.54(7) 1. 0
Sr1 Sr2+ 4 b 0.25 0.260(1) -0.0015(3) 0.85(5) 1. 0
O1 O2- 4 b 0.25 0.727(1) 0.0096(4) 1.19(8) 1. 0
O2 O2- 4 b 0.25 0.755(2) 0.2220(4) 0.57(9) 1. 0
O3 O2- 4 b 0.25 0.785(1) 0.7959(4) 1.5(1) 1. 0
O4 O2- 4 a 0 0 0.6200(4) 0.7(1) 1. 0
O5 O2- 4 a 0 0 0.4033(4) 0.9(1) 1. 0
O6 O2- 4 a 0 0 0.1017(4) 0.9(1) 1. 0
O7 O2- 4 a 0 0 0.9077(4) 1.1(1) 1. 0
Li1 Li1+ 4 a 0 0 0.263(1) 0.5(2) 0.67(6) 0
Li2 Li1+ 4 a 0 0 0.762(3) 0.5(2) 0.33(6) 0
D1 D1+ 4 b 0.25 0.426(3) 0.259(1) 5.5(2) 0.58(6) 0
D2 D1+ 4 b 0.25 0.390(5) 0.744(2) 5.5(2) 0.42(2) 0
#End of TTdata_192493-ICSD