
#(C) 2018 by FIZ Karlsruhe - Leibniz Institute for Information Infrastructure.  All rights reserved.
data_193280-ICSD
_database_code_ICSD 193280
_audit_creation_date 2015-08-01
_chemical_name_systematic 'Lithium iron diarsenate'
_chemical_formula_structural 'Li Fe (As2 O7)'
_chemical_formula_sum 'As2 Fe1 Li1 O7'
_chemical_name_structure_type LiFeAs2O7
_exptl_crystal_density_diffrn 4.23
_cell_measurement_temperature 293.
_publ_section_title

;
Spiral magnetic structure in the iron diarsenate Li Fe As2 O7: a neutron
diffraction study
;
loop_
_citation_id
_citation_journal_full
_citation_year
_citation_journal_volume
_citation_page_first
_citation_page_last
_citation_journal_id_ASTM
primary 'Physical Review, Serie 3. B - Condensed Matter (18,1978-)' 2013 88
214433-1 214433-9 PRBMDO
loop_
_publ_author_name
'Rousse, Gwenaelle'
'Rodriguez-Carvajal, Juan'
'Wurm, Calin'
'Masquelier, Christian'
_cell_length_a 6.6786(1)
_cell_length_b 8.2855(1)
_cell_length_c 4.7429(1)
_cell_angle_alpha 90.
_cell_angle_beta 103.950(1)
_cell_angle_gamma 90.
_cell_volume 254.71
_cell_formula_units_Z 2
_symmetry_space_group_name_H-M 'C 1 2 1'
_symmetry_Int_Tables_number 5
_refine_ls_R_factor_all 0.0239
loop_
_symmetry_equiv_pos_site_id
_symmetry_equiv_pos_as_xyz
1 '-x, y, -z'
2 'x, y, z'
3 '-x+1/2, y+1/2, -z'
4 'x+1/2, y+1/2, z'
loop_
_atom_type_symbol
_atom_type_oxidation_number
Li1+ 1
Fe3+ 3
As5+ 5
O2- -2
loop_
_atom_site_label
_atom_site_type_symbol
_atom_site_symmetry_multiplicity
_atom_site_Wyckoff_symbol
_atom_site_fract_x
_atom_site_fract_y
_atom_site_fract_z
_atom_site_B_iso_or_equiv
_atom_site_occupancy
_atom_site_attached_hydrogens
Li1 Li1+ 2 a 0 0.617(2) 0 . 1. 0
Fe1 Fe3+ 2 a 0 0 0 0.21(5) 1. 0
As1 As5+ 4 c 0.7824(3) 0.3370(5) 0.5910(5) 0.35(5) 1. 0
O1 O2- 4 c 0.7497(3) 0.4811(5) 0.8237(5) 0.40(6) 1. 0
O2 O2- 4 c 0.8310(4) 0.1567(5) 0.7473(6) 1.14(6) 1. 0
O3 O2- 4 c 0.6100(4) 0.3170(5) 0.2773(6) 0.25(6) 1. 0
O4 O2- 2 b 0 0.4147(6) 0.5 1.06(9) 1. 0
loop_
_atom_site_aniso_label
_atom_site_aniso_type_symbol
_atom_site_aniso_beta_11
_atom_site_aniso_beta_22
_atom_site_aniso_beta_33
_atom_site_aniso_beta_12
_atom_site_aniso_beta_13
_atom_site_aniso_beta_23
Li1 Li1+ 0.0275(58) 0.0084(29) 0.0178(86) 0. -0.0132(55) 0.
#End of TTdata_193280-ICSD