
#(C) 2018 by FIZ Karlsruhe - Leibniz Institute for Information Infrastructure.  All rights reserved.
data_193838-ICSD
_database_code_ICSD 193838
_audit_creation_date 2015-08-01
_chemical_name_systematic 'Dilithium beryllium silicate'
_chemical_formula_structural 'Li2 Be (Si O4)'
_chemical_formula_sum 'Be1 Li2 O4 Si1'
_chemical_name_structure_type Li2BeSiO4
_chemical_name_mineral Liberite
_exptl_crystal_density_diffrn 2.69
_cell_measurement_temperature 293.
_publ_section_title
'Reinvestigation of the crystal structure of liberite, Li2 Be Si O4'
loop_
_citation_id
_citation_journal_full
_citation_year
_citation_journal_volume
_citation_page_first
_citation_page_last
_citation_journal_id_ASTM
primary 'Neues Jahrbuch fuer Mineralogie. Abhandlungen (Band-Nr) (1950-)' 2014
191 311 316 NJMIAK
loop_
_publ_author_name
'Yang, Zhuming'
'Ding, Kuishou'
'Miyawaki, Ritsuro'
'Li, He'
_cell_length_a 4.7022(9)
_cell_length_b 4.9443(10)
_cell_length_c 6.1026(12)
_cell_angle_alpha 90.
_cell_angle_beta 90.09(3)
_cell_angle_gamma 90.
_cell_volume 141.88
_cell_formula_units_Z 2
_symmetry_space_group_name_H-M 'P 1 n 1'
_symmetry_Int_Tables_number 7
_refine_ls_R_factor_all 0.0235
loop_
_symmetry_equiv_pos_site_id
_symmetry_equiv_pos_as_xyz
1 'x+1/2, -y, z+1/2'
2 'x, y, z'
loop_
_atom_type_symbol
_atom_type_oxidation_number
Li1+ 1
Be2+ 2
Si4+ 4
O2- -2
loop_
_atom_site_label
_atom_site_type_symbol
_atom_site_symmetry_multiplicity
_atom_site_Wyckoff_symbol
_atom_site_fract_x
_atom_site_fract_y
_atom_site_fract_z
_atom_site_B_iso_or_equiv
_atom_site_occupancy
_atom_site_attached_hydrogens
Li1 Li1+ 2 a -0.0096(16) 0.1767(7) 0.5031(11) 0.0132(8) 1. 0
Li2 Li1+ 2 a 0.4880(19) 0.3345(8) 0.7489(14) 0.0103(14) 1. 0
Be1 Be2+ 2 a 0.4982(15) 0.3207(5) 0.2507(10) 0.0111(11) 1. 0
Si1 Si4+ 2 a 0.00000(3) 0.17951(11) 0.00000(2) 0.0075(2) 1. 0
O1 O2- 2 a 0.3436(4) 0.2004(4) 0.0305(4) 0.0086(4) 1. 0
O2 O2- 2 a 0.4104(4) 0.1376(4) 0.4695(3) 0.0096(4) 1. 0
O3 O2- 2 a 0.4087(4) 0.6427(4) 0.2854(3) 0.0099(4) 1. 0
O4 O2- 2 a 0.8469(4) 0.2996(3) 0.2178(3) 0.0089(4) 1. 0
loop_
_atom_site_aniso_label
_atom_site_aniso_type_symbol
_atom_site_aniso_U_11
_atom_site_aniso_U_22
_atom_site_aniso_U_33
_atom_site_aniso_U_12
_atom_site_aniso_U_13
_atom_site_aniso_U_23
Li1 Li1+ 0.0138(19) 0.0146(17) 0.0114(18) -0.0028(17) 0.0017(15) 0.001(2)
Li2 Li1+ 0.010(3) 0.011(2) 0.009(3) 0.0003(16) -0.0011(17) 0.001(2)
Be1 Be2+ 0.014(2) 0.0091(17) 0.0104(19) -0.0020(11) 0.0000(13) 0.0003(16)
Si1 Si4+ 0.0082(3) 0.0073(3) 0.0071(3) -0.0001(2) -0.0003(2) -0.0001(3)
O1 O2- 0.0073(9) 0.0094(9) 0.0090(10) -0.0004(6) -0.0012(7) -0.0005(7)
O2 O2- 0.0105(9) 0.0081(8) 0.0103(11) 0.0005(6) 0.0012(8) 0.0001(7)
O3 O2- 0.0140(10) 0.0080(8) 0.0075(10) -0.0008(6) -0.0008(8) -0.0009(6)
O4 O2- 0.0095(9) 0.0087(9) 0.0084(10) 0.0007(7) -0.0002(7) -0.0010(7)
#End of TTdata_193838-ICSD