
#(C) 2018 by FIZ Karlsruhe - Leibniz Institute for Information Infrastructure.  All rights reserved.
data_194285-ICSD
_database_code_ICSD 194285
_audit_creation_date 2015-08-01
_chemical_name_systematic 'Lithium aluminium decaoxotetrasilicate'
_chemical_formula_structural 'Li Al (Si4 O10)'
_chemical_formula_sum 'Al1 Li1 O10 Si4'
_chemical_name_mineral Petalite
_exptl_crystal_density_diffrn 2.42
_cell_measurement_temperature 295.
_cell_measurement_pressure 320000.
_publ_section_title
'Petalite under pressure: Elastic behavior and phase stability'
loop_
_citation_id
_citation_journal_full
_citation_year
_citation_journal_volume
_citation_page_first
_citation_page_last
_citation_journal_id_ASTM
primary 'American Mineralogist' 2015 100 714 721 AMMIAY
loop_
_publ_author_name
'Ross, Nancy L.'
'Zhao, Jing'
'Slebodnick, Carla'
'Spencer, Elinor C.'
'Chakoumakos, Bryan C.'
_cell_length_a 11.2067(4)
_cell_length_b 5.1228(4)
_cell_length_c 11.7160(7)
_cell_angle_alpha 90.
_cell_angle_beta 141.2429(18)
_cell_angle_gamma 90.
_cell_volume 421.06
_cell_formula_units_Z 2
_symmetry_space_group_name_H-M 'P 1 2/c 1'
_symmetry_Int_Tables_number 13
_refine_ls_R_factor_all 0.0456
loop_
_symmetry_equiv_pos_site_id
_symmetry_equiv_pos_as_xyz
1 'x, -y, z+1/2'
2 '-x, -y, -z'
3 '-x, y, -z+1/2'
4 'x, y, z'
loop_
_atom_type_symbol
_atom_type_oxidation_number
Si4+ 4
Al3+ 3
O2- -2
Li1+ 1
loop_
_atom_site_label
_atom_site_type_symbol
_atom_site_symmetry_multiplicity
_atom_site_Wyckoff_symbol
_atom_site_fract_x
_atom_site_fract_y
_atom_site_fract_z
_atom_site_B_iso_or_equiv
_atom_site_occupancy
_atom_site_attached_hydrogens
Si1 Si4+ 4 g 0.2887(5) 0.0161(2) 0.7911(3) 0.0092(4) 1 0
Si2 Si4+ 4 g 0.2908(5) 0.5137(2) 0.6425(2) 0.0099(4) 1 0
Al1 Al3+ 2 e 0. 0.2549(4) 0.25 0.0101(5) 1 0
O1 O2- 4 g 0.1324(13) -0.0342(7) 0.7722(6) 0.0154(9) 1 0
O2 O2- 4 g 0.2701(10) -0.1931(6) 0.6742(5) 0.0129(9) 1 0
O3 O2- 2 d 0.5 0. 1. 0.0246(17) 1 0
O4 O2- 4 g 0.2551(11) 0.3073(7) 0.7171(6) 0.0178(10) 1 0
O5 O2- 2 f 0.5 0.4652(12) 0.75 0.0303(18) 1 0
O6 O2- 4 g 0.1332(13) 0.4777(6) 0.4268(6) 0.0133(9) 1 0
Li1 Li1+ 2 e 0. 0.761(3) 0.25 0.026(4) 1 0
#End of TTdata_194285-ICSD