
#(C) 2018 by FIZ Karlsruhe - Leibniz Institute for Information Infrastructure.  All rights reserved.
data_194461-ICSD
_database_code_ICSD 194461
_audit_creation_date 2015-08-01
_chemical_name_systematic
'Barium lithium tantalum oxide nitride (1/0.2/0.8/2.8/0.2)'
_chemical_formula_structural 'Ba (Li0.20 Ta0.80) (O2.81 N0.19)'
_chemical_formula_sum 'Ba1 Li0.2 N0.19 O2.81 Ta0.8'
_chemical_name_structure_type Perovskite-CaTiO3
_exptl_crystal_density_diffrn 7.93
_publ_section_title

;
Intercalation route to complex perovskites A M0.2 Ta0.8 O2.8 N0.2 (A = Sr, Ba;
M = Li, Na): neutron diffraction and nuclear magnetic resonance study
;
loop_
_citation_id
_citation_journal_full
_citation_year
_citation_journal_volume
_citation_page_first
_citation_page_last
_citation_journal_id_ASTM
primary 'Crystal Growth & Design' 2015 15 53 61 CGDEFU
loop_
_publ_author_name
'Kim, Young-Il'
'Paik, Younkee'
'Avdeev, Maxim'
_cell_length_a 4.10778(5)
_cell_length_b 4.10778(5)
_cell_length_c 4.10778(5)
_cell_angle_alpha 90.
_cell_angle_beta 90.
_cell_angle_gamma 90.
_cell_volume 69.32
_cell_formula_units_Z 1
_symmetry_space_group_name_H-M 'P m -3 m'
_symmetry_Int_Tables_number 221
_refine_ls_R_factor_all 0.0247
loop_
_symmetry_equiv_pos_site_id
_symmetry_equiv_pos_as_xyz
1 'z, y, -x'
2 'y, x, -z'
3 'x, z, -y'
4 'z, x, -y'
5 'y, z, -x'
6 'x, y, -z'
7 'z, -y, x'
8 'y, -x, z'
9 'x, -z, y'
10 'z, -x, y'
11 'y, -z, x'
12 'x, -y, z'
13 '-z, y, x'
14 '-y, x, z'
15 '-x, z, y'
16 '-z, x, y'
17 '-y, z, x'
18 '-x, y, z'
19 '-z, -y, -x'
20 '-y, -x, -z'
21 '-x, -z, -y'
22 '-z, -x, -y'
23 '-y, -z, -x'
24 '-x, -y, -z'
25 '-z, -y, x'
26 '-y, -x, z'
27 '-x, -z, y'
28 '-z, -x, y'
29 '-y, -z, x'
30 '-x, -y, z'
31 '-z, y, -x'
32 '-y, x, -z'
33 '-x, z, -y'
34 '-z, x, -y'
35 '-y, z, -x'
36 '-x, y, -z'
37 'z, -y, -x'
38 'y, -x, -z'
39 'x, -z, -y'
40 'z, -x, -y'
41 'y, -z, -x'
42 'x, -y, -z'
43 'z, y, x'
44 'y, x, z'
45 'x, z, y'
46 'z, x, y'
47 'y, z, x'
48 'x, y, z'
loop_
_atom_type_symbol
_atom_type_oxidation_number
Ba2+ 2
Li1+ 1
Ta5+ 5
O2- -2
N3- -3
loop_
_atom_site_label
_atom_site_type_symbol
_atom_site_symmetry_multiplicity
_atom_site_Wyckoff_symbol
_atom_site_fract_x
_atom_site_fract_y
_atom_site_fract_z
_atom_site_B_iso_or_equiv
_atom_site_occupancy
_atom_site_attached_hydrogens
Ba1 Ba2+ 1 a 0. 0. 0. 0.0074(4) 1. 0
Li1 Li1+ 1 b 0.5 0.5 0.5 0.0025(4) 0.201(4) 0
Ta1 Ta5+ 1 b 0.5 0.5 0.5 0.0025(4) 0.799(4) 0
O1 O2- 3 c 0.5 0. 0.5 0.01065(19) 0.936(11) 0
N1 N3- 3 c 0.5 0. 0.5 0.01065(19) 0.064(11) 0
#End of TTdata_194461-ICSD