
#(C) 2018 by FIZ Karlsruhe - Leibniz Institute for Information Infrastructure.  All rights reserved.
data_194491-ICSD
_database_code_ICSD 194491
_audit_creation_date 2015-08-01
_chemical_name_systematic 'Lithium ammonium sulfate'
_chemical_formula_structural 'Li (N H4) (S O4)'
_chemical_formula_sum 'H4 Li1 N1 O4 S1'
_exptl_crystal_density_diffrn 1.87
_cell_measurement_temperature 120.
_publ_section_title

;
Polymorphism and polytypism of alpha - Li N H4 S O4 crystals. Monte Carlo
modeling based on X-ray diffuse scattering
;
loop_
_citation_id
_citation_journal_full
_citation_year
_citation_journal_volume
_citation_page_first
_citation_page_last
_citation_journal_id_ASTM
primary 'Crystal Growth & Design' 2014 14 5784 5793 CGDEFU
loop_
_publ_author_name
'Komornicka, Dorota'
'Wolcyrz, Marek'
'Pietraszko, Adam'
_cell_length_a 10.179(2)
_cell_length_b 4.9461(10)
_cell_length_c 17.042(3)
_cell_angle_alpha 90.
_cell_angle_beta 90.
_cell_angle_gamma 90.
_cell_volume 858.
_cell_formula_units_Z 8
_symmetry_space_group_name_H-M 'P c a 21'
_symmetry_Int_Tables_number 29
_refine_ls_R_factor_all 0.032
loop_
_symmetry_equiv_pos_site_id
_symmetry_equiv_pos_as_xyz
1 'x+1/2, -y, z'
2 '-x+1/2, y, z+1/2'
3 '-x, -y, z+1/2'
4 'x, y, z'
loop_
_atom_type_symbol
_atom_type_oxidation_number
S6+ 6
O2- -2
N3- -3
Li1+ 1
H1+ 1
loop_
_atom_site_label
_atom_site_type_symbol
_atom_site_symmetry_multiplicity
_atom_site_Wyckoff_symbol
_atom_site_fract_x
_atom_site_fract_y
_atom_site_fract_z
_atom_site_B_iso_or_equiv
_atom_site_occupancy
_atom_site_attached_hydrogens
S1 S6+ 4 a 0.274495(16) 0.95678(3) -0.097722(8) 0.00923(3) 1 0
S2 S6+ 4 a 0.476087(16) 0.54263(3) 0.099411(8) 0.00910(4) 1 0
O1 O2- 4 a 0.26780(6) 0.65855(11) -0.08892(3) 0.01845(14) 1 0
O2 O2- 4 a 0.19969(5) 0.08311(11) -0.03280(3) 0.01455(13) 1 0
O3 O2- 4 a 0.21869(6) 0.03283(13) -0.17309(3) 0.02016(15) 1 0
O4 O2- 4 a 0.41311(5) 0.03950(12) -0.09197(3) 0.01699(13) 1 0
O5 O2- 4 a 0.48478(5) 0.84016(11) 0.09086(4) 0.01790(13) 1 0
O6 O2- 4 a 0.05288(5) 0.58272(11) 0.03494(3) 0.01379(13) 1 0
O7 O2- 4 a 0.03183(6) 0.53389(14) 0.17576(3) 0.02047(16) 1 0
O8 O2- 4 a 0.33736(5) 0.46172(11) 0.09468(3) 0.01547(13) 1 0
N1 N3- 4 a 0.21897(6) 0.97776(14) 0.16927(4) 0.01263(15) 1 0
N2 N3- 4 a 0.02238(7) 0.47761(15) -0.16389(4) 0.01693(17) 1 0
Li1 Li1+ 4 a 0.02447(15) 0.9512(3) -0.00019(8) 0.0185(3) 1 0
Li2 Li1+ 4 a 0.22374(12) 0.4544(3) 0.00319(8) 0.0138(3) 1 0
H1 H1+ 4 a 0.2263 0.9924 0.2251 0.05 1 0
H2 H1+ 4 a 0.1425 0.0578 0.1484 0.05 1 0
H3 H1+ 4 a 0.2766 0.089 0.1428 0.05 1 0
H4 H1+ 4 a 0.2383 0.7989 0.1573 0.05 1 0
H5 H1+ 4 a 0.0095 0.4865 -0.2191 0.05 1 0
H6 H1+ 4 a 0.0963 0.567 -0.1482 0.05 1 0
H7 H1+ 4 a 0.0071 0.3038 -0.1448 0.05 1 0
H8 H1+ 4 a 0.4612 0.4007 -0.1395 0.05 1 0
loop_
_atom_site_aniso_label
_atom_site_aniso_type_symbol
_atom_site_aniso_U_11
_atom_site_aniso_U_22
_atom_site_aniso_U_33
_atom_site_aniso_U_12
_atom_site_aniso_U_13
_atom_site_aniso_U_23
S1 S6+ 0.00892(6) 0.00877(6) 0.01000(6) -0.00335(6) 0.00060(6) -0.00126(6)
S2 S6+ 0.00874(6) 0.00900(6) 0.00955(6) 0.00303(6) 0.00063(6) 0.00056(7)
O1 O2- 0.0236(2) 0.0093(2) 0.0225(3) 0.0002(2) 0.0061(2) -0.0014(2)
O2 O2- 0.0136(2) 0.0132(2) 0.0169(2) -0.0008(2) 0.0035(2) -0.0025(2)
O3 O2- 0.0195(3) 0.0281(3) 0.0129(2) 0.0089(2) -0.0015(2) -0.0010(2)
O4 O2- 0.0123(2) 0.0205(3) 0.0182(2) 0.0001(2) 0.0008(2) -0.0024(2)
O5 O2- 0.0231(2) 0.0096(2) 0.0209(2) -0.0019(2) 0.0057(2) 0.0006(2)
O6 O2- 0.0124(2) 0.0115(2) 0.0174(2) 0.0006(2) 0.00368(19) 0.0036(2)
O7 O2- 0.0206(3) 0.0264(3) 0.0145(2) -0.0036(3) -0.0013(2) -0.0020(2)
O8 O2- 0.0115(2) 0.0181(2) 0.0168(2) -0.0051(2) 0.0004(2) 0.0011(2)
N1 N3- 0.0090(2) 0.0160(3) 0.0129(3) -0.0049(2) 0.0020(2) 0.0040(2)
N2 N3- 0.0177(3) 0.0161(3) 0.0169(3) -0.0061(3) -0.0019(3) 0.0033(3)
Li1 Li1+ 0.0243(6) 0.0126(6) 0.0185(6) -0.0064(6) 0.0034(5) 0.0030(5)
Li2 Li1+ 0.0071(5) 0.0184(6) 0.0159(6) -0.0071(5) -0.0012(5) 0.0021(5)
#End of TTdata_194491-ICSD