
#(C) 2018 by FIZ Karlsruhe - Leibniz Institute for Information Infrastructure.  All rights reserved.
data_194809-ICSD
_database_code_ICSD 194809
_audit_creation_date 2015-08-01
_chemical_name_systematic 'Lithium chromium hexaoxodigermanate'
_chemical_formula_structural 'Li Cr (Ge2 O6)'
_chemical_formula_sum 'Cr1 Ge2 Li1 O6'
_chemical_name_structure_type Pyroxene-MgSiO3-LT
_exptl_crystal_density_diffrn 4.62
_cell_measurement_temperature 10.
_publ_section_title

;
Structural and magnetic phase transitions in the synthetic clinopyroxene Li Cr
Ge2 O6: a neutron diffraction study between 0.5 and 1473 K
;
loop_
_citation_id
_citation_journal_full
_citation_year
_citation_journal_volume
_citation_page_first
_citation_page_last
_citation_journal_id_ASTM
primary 'Physics and Chemistry of Minerals' 2015 42 491 507 PCMIDU
loop_
_publ_author_name
'Redhammer, Guenther J.'
'Senyshyn, Anatoliy'
'Tippelt, Gerold'
'Prinz, Sebastian'
'Roth, Georg'
_cell_length_a 9.79045(9)
_cell_length_b 8.71647(7)
_cell_length_c 5.33654(5)
_cell_angle_alpha 90.
_cell_angle_beta 108.9315(5)
_cell_angle_gamma 90.
_cell_volume 430.77
_cell_formula_units_Z 4
_symmetry_space_group_name_H-M 'P 1 21/c 1'
_symmetry_Int_Tables_number 14
_refine_ls_R_factor_all 0.0144
loop_
_symmetry_equiv_pos_site_id
_symmetry_equiv_pos_as_xyz
1 'x, -y+1/2, z+1/2'
2 '-x, -y, -z'
3 '-x, y+1/2, -z+1/2'
4 'x, y, z'
loop_
_atom_type_symbol
_atom_type_oxidation_number
Li1+ 1
Cr3+ 3
Ge4+ 4
O2- -2
loop_
_atom_site_label
_atom_site_type_symbol
_atom_site_symmetry_multiplicity
_atom_site_Wyckoff_symbol
_atom_site_fract_x
_atom_site_fract_y
_atom_site_fract_z
_atom_site_B_iso_or_equiv
_atom_site_occupancy
_atom_site_attached_hydrogens
Li1 Li1+ 4 e 0.2587(7) 0.4861(5) 0.7225(11) 0.42(8) 1. 0
Cr1 Cr3+ 4 e 0.2514(3) 0.6579(3) 0.2139(5) 0.10(3) 1. 0
Ge1 Ge4+ 4 e 0.04724(12) 0.34472(14) 0.2758(2) 0.055(17) 1. 0
Ge2 Ge4+ 4 e 0.55453(11) 0.84191(16) 0.2288(2) 0.105(18) 1. 0
O1 O2- 4 e -0.14318(16) 0.3339(2) 0.1738(3) 0.18(3) 1. 0
O2 O2- 4 e 0.11482(17) 0.52704(18) 0.2851(3) 0.19(3) 1. 0
O3 O2- 4 e 0.11728(17) 0.29178(17) 0.6095(3) 0.27(3) 1. 0
O4 O2- 4 e 0.36433(16) 0.8312(2) 0.1048(3) 0.13(2) 1. 0
O5 O2- 4 e 0.63174(19) 0.0057(2) 0.3892(4) 0.40(3) 1. 0
O6 O2- 4 e 0.61343(17) 0.68795(18) 0.4529(3) -0.02(3) 1. 0
#End of TTdata_194809-ICSD