
#(C) 2018 by FIZ Karlsruhe - Leibniz Institute for Information Infrastructure.  All rights reserved.
data_194813-ICSD
_database_code_ICSD 194813
_audit_creation_date 2015-08-01
_chemical_name_systematic 'Lithium chromium hexaoxodigermanate'
_chemical_formula_structural 'Li Cr (Ge2 O6)'
_chemical_formula_sum 'Cr1 Ge2 Li1 O6'
_chemical_name_structure_type Pyroxene-CaMg(SiO3)2
_exptl_crystal_density_diffrn 4.37
_cell_measurement_temperature 1473.
_publ_section_title

;
Structural and magnetic phase transitions in the synthetic clinopyroxene Li Cr
Ge2 O6: a neutron diffraction study between 0.5 and 1473 K
;
loop_
_citation_id
_citation_journal_full
_citation_year
_citation_journal_volume
_citation_page_first
_citation_page_last
_citation_journal_id_ASTM
primary 'Physics and Chemistry of Minerals' 2015 42 491 507 PCMIDU
loop_
_publ_author_name
'Redhammer, Guenther J.'
'Senyshyn, Anatoliy'
'Tippelt, Gerold'
'Prinz, Sebastian'
'Roth, Georg'
_cell_length_a 10.0269(15)
_cell_length_b 8.7863(17)
_cell_length_c 5.5072(9)
_cell_angle_alpha 90.
_cell_angle_beta 109.861(1)
_cell_angle_gamma 90.
_cell_volume 456.32
_cell_formula_units_Z 4
_symmetry_space_group_name_H-M 'C 1 2/c 1'
_symmetry_Int_Tables_number 15
_refine_ls_R_factor_all 0.019
loop_
_symmetry_equiv_pos_site_id
_symmetry_equiv_pos_as_xyz
1 'x, -y, z+1/2'
2 '-x, -y, -z'
3 '-x, y, -z+1/2'
4 'x, y, z'
5 'x+1/2, -y+1/2, z+1/2'
6 '-x+1/2, -y+1/2, -z'
7 '-x+1/2, y+1/2, -z+1/2'
8 'x+1/2, y+1/2, z'
loop_
_atom_type_symbol
_atom_type_oxidation_number
Li1+ 1
Cr3+ 3
Ge4+ 4
O2- -2
loop_
_atom_site_label
_atom_site_type_symbol
_atom_site_symmetry_multiplicity
_atom_site_Wyckoff_symbol
_atom_site_fract_x
_atom_site_fract_y
_atom_site_fract_z
_atom_site_B_iso_or_equiv
_atom_site_occupancy
_atom_site_attached_hydrogens
Li1 Li1+ 4 e 0 0.2767(18) 0.25 8.47(54) 1. 0
Cr1 Cr3+ 4 e 0 0.9130(6) 0.25 1.61(9) 1. 0
Ge1 Ge4+ 8 f 0.29323(14) 0.09560(19) 0.2431(2) 1.88(4) 1. 0
O1 O2- 8 f 0.10718(8) 0.0854(3) 0.1375(3) 2.06(4) 1. 0
O2 O2- 8 f 0.3624(3) 0.2732(3) 0.2983(5) 4.30(7) 1. 0
O3 O2- 8 f 0.3627(2) -0.0127(3) 0.0521(2) 4.18(6) 1. 0
#End of TTdata_194813-ICSD