
#(C) 2018 by FIZ Karlsruhe - Leibniz Institute for Information Infrastructure.  All rights reserved.
data_195433-ICSD
_database_code_ICSD 195433
_audit_creation_date 2016-02-01
_chemical_name_systematic 'Dilithium iron pyrophosphate'
_chemical_formula_structural 'Li2 Fe (P2 O7)'
_chemical_formula_sum 'Fe1 Li2 O7 P2'
_exptl_crystal_density_diffrn 3.13
_publ_section_title

;
Structural and electronic changes in Li2 Fe P2 O7 during electrochemical
cycling
;
loop_
_citation_id
_citation_journal_full
_citation_year
_citation_journal_volume
_citation_page_first
_citation_page_last
_citation_journal_id_ASTM
primary 'Chemistry of Materials' 2015 27 3801 3804 CMATEX
loop_
_publ_author_name
'Blidberg, Andreas'
'Haaggstroem, Lennart'
'Ericsson, Tore'
'Tengstedt, Carl'
'Gustafsson, Torbjoern'
'Bjoerefors, Fredrik'
_cell_length_a 11.0218(2)
_cell_length_b 9.7575(2)
_cell_length_c 9.8076(2)
_cell_angle_alpha 90.
_cell_angle_beta 101.537(1)
_cell_angle_gamma 90.
_cell_volume 1033.45
_cell_formula_units_Z 8
_symmetry_space_group_name_H-M 'P 1 21/c 1'
_symmetry_Int_Tables_number 14
_refine_ls_R_factor_all 0.043
loop_
_symmetry_equiv_pos_site_id
_symmetry_equiv_pos_as_xyz
1 'x, -y+1/2, z+1/2'
2 '-x, -y, -z'
3 '-x, y+1/2, -z+1/2'
4 'x, y, z'
loop_
_atom_type_symbol
_atom_type_oxidation_number
Fe2+ 2
P5+ 5
O2- -2
Li1+ 1
loop_
_atom_site_label
_atom_site_type_symbol
_atom_site_symmetry_multiplicity
_atom_site_Wyckoff_symbol
_atom_site_fract_x
_atom_site_fract_y
_atom_site_fract_z
_atom_site_B_iso_or_equiv
_atom_site_occupancy
_atom_site_attached_hydrogens
Fe1 Fe2+ 4 e 0.6706(3) 0.5738(3) 0.6980(3) 1.19 1. 0
Fe2 Fe2+ 4 e 0.8184(4) 0.2838(4) 0.7479(5) 1.19 0.653(3) 0
Fe3 Fe2+ 4 e 0.0376(6) 0.0816(7) 0.6500(7) 1.19 0.347(3) 0
P1 P5+ 4 e 0.5712(6) 0.6508(6) 0.3773(6) 0.54 1. 0
P2 P5+ 4 e 0.2445(5) 0.5757(6) 0.5551(7) 0.54 1. 0
P3 P5+ 4 e 0.8893(5) 0.7999(6) 0.6139(6) 0.54 1. 0
P4 P5+ 4 e 0.7635(5) 0.0402(6) 0.5195(6) 0.54 1. 0
O1 O2- 4 e 0.8467(10) 0.1453(11) 0.6055(11) 1.05 1. 0
O2 O2- 4 e 0.7803(9) 0.0431(10) 0.3639(11) 1.05 1. 0
O3 O2- 4 e 0.3577(11) 0.5762(13) 0.9998(12) 1.05 1. 0
O4 O2- 4 e 0.1321(10) 0.5576(12) 0.5799(12) 1.05 1. 0
O5 O2- 4 e 0.7041(10) 0.3311(11) 0.3366(12) 1.05 1. 0
O6 O2- 4 e 0.7340(9) 0.4145(11) 0.5926(11) 1.05 1. 0
O7 O2- 4 e 0.0780(10) 0.2770(11) 0.0255(12) 1.05 1. 0
O8 O2- 4 e 0.4097(10) 0.2820(12) 0.1769(12) 1.05 1. 0
O9 O2- 4 e 0.8526(10) 0.6682(11) 0.6840(11) 1.05 1. 0
O10 O2- 4 e -0.0189(10) 0.8681(10) 0.7124(11) 1.05 1. 0
O11 O2- 4 e 0.4961(9) 0.9400(11) 0.7744(11) 1.05 1. 0
O12 O2- 4 e 0.5581(11) 0.6559(10) 0.5205(12) 1.05 1. 0
O13 O2- 4 e 0.2919(11) 0.0645(12) 0.1029(10) 1.05 1. 0
O14 O2- 4 e 0.2342(10) 0.0975(12) 0.4199(10) 1.05 1. 0
Li1 Li1+ 4 e 0.424(3) 0.756(3) 0.079(3) 2.3 1. 0
Li2 Li1+ 4 e 1.047(3) 0.590(4) 0.530(4) 2.3 1. 0
Li3 Li1+ 4 e 0.415(4) 0.595(4) 0.936(4) 2.3 1. 0
Li4 Li1+ 4 e 0.0376(6) 0.0816(7) 0.6500(7) 1.19 0.653(3) 0
Li5 Li1+ 4 e 0.8184(4) 0.2838(4) 0.7479(5) 1.19 0.347(3) 0
#End of TTdata_195433-ICSD