
#(C) 2018 by FIZ Karlsruhe - Leibniz Institute for Information Infrastructure.  All rights reserved.
data_195622-ICSD
_database_code_ICSD 195622
_audit_creation_date 2016-02-01
_chemical_name_systematic 'Sodium lithium zirconium pentadecaoxohexasilicate'
_chemical_formula_structural 'Na Li Zr (Si6 O15)'
_chemical_formula_sum 'Li1 Na1 O15 Si6 Zr1'
_chemical_name_mineral Zektzerite
_exptl_crystal_density_diffrn 2.77
_cell_measurement_temperature 773.
_publ_section_title

;
A first-order phase transition in zektzerite, Na Li Zr Si6 O15:
high-temperature single-crystal X-ray diffraction study
;
loop_
_citation_id
_citation_journal_full
_citation_year
_citation_journal_volume
_citation_page_first
_citation_page_last
_citation_journal_id_ASTM
primary 'Physics and Chemistry of Minerals' 2015 42 747 759 PCMIDU
loop_
_publ_author_name
'Shaikh, A.M.'
'Ghose, Subrata'
_cell_length_a 14.377(3)
_cell_length_b 17.397(4)
_cell_length_c 10.150(2)
_cell_angle_alpha 90.
_cell_angle_beta 90.
_cell_angle_gamma 90.
_cell_volume 2538.68
_cell_formula_units_Z 8
_symmetry_space_group_name_H-M 'C m c a'
_symmetry_Int_Tables_number 64
loop_
_symmetry_equiv_pos_site_id
_symmetry_equiv_pos_as_xyz
1 '-x, -y+1/2, z+1/2'
2 '-x, y+1/2, -z+1/2'
3 '-x, y, z'
4 '-x, -y, -z'
5 'x, y+1/2, -z+1/2'
6 'x, -y+1/2, z+1/2'
7 'x, -y, -z'
8 'x, y, z'
9 '-x+1/2, -y, z+1/2'
10 '-x+1/2, y, -z+1/2'
11 '-x+1/2, y+1/2, z'
12 '-x+1/2, -y+1/2, -z'
13 'x+1/2, y, -z+1/2'
14 'x+1/2, -y, z+1/2'
15 'x+1/2, -y+1/2, -z'
16 'x+1/2, y+1/2, z'
loop_
_atom_type_symbol
_atom_type_oxidation_number
Na1+ 1
Li1+ 1
Zr4+ 4
Si4+ 4
O2- -2
loop_
_atom_site_label
_atom_site_type_symbol
_atom_site_symmetry_multiplicity
_atom_site_Wyckoff_symbol
_atom_site_fract_x
_atom_site_fract_y
_atom_site_fract_z
_atom_site_B_iso_or_equiv
_atom_site_occupancy
_atom_site_attached_hydrogens
Na1 Na1+ 8 e 0.25 0.21776(20) 0.25 . 0.98 0
Na2 Na1+ 8 f 0 0.4099 0.2568 . 0.02 0
Li1 Li1+ 8 d 0.2484(11) 0 0 . 1. 0
Zr1 Zr4+ 8 e 0.25 -0.08718(3) 0.25 . 1. 0
Si1 Si4+ 16 g 0.39149(7) 0.12994(6) 0.01726(10) . 1. 0
Si2 Si4+ 16 g 0.39099(7) 0.07275(6) 0.31113(10) . 1. 0
Si3 Si4+ 16 g 0.39137(7) 0.19233(6) 0.54203(10) . 1. 0
O1 O2- 16 g 0.36778(27) 0.22047(18) -0.00324(37) . 1. 0
O2 O2- 16 g 0.32850(21) 0.08010(16) -0.07853(27) . 1. 0
O3 O2- 16 g 0.36434(26) 0.11105(22) 0.16992(31) . 1. 0
O4 O2- 16 g 0.32913(21) -0.00099(17) 0.33994(30) . 1. 0
O5 O2- 16 g 0.36336(25) 0.14008(18) 0.41571(33) . 1. 0
O6 O2- 16 g 0.33042(23) 0.17219(17) 0.66798(29) . 1. 0
O7 O2- 8 f 0.5 0.11404(33) -0.00721(58) . 1. 0
O8 O2- 8 f 0.5 0.05437(32) 0.31862(57) . 1. 0
O9 O2- 8 f 0.5 0.18353(34) 0.57289(56) . 1. 0
loop_
_atom_site_aniso_label
_atom_site_aniso_type_symbol
_atom_site_aniso_beta_11
_atom_site_aniso_beta_22
_atom_site_aniso_beta_33
_atom_site_aniso_beta_12
_atom_site_aniso_beta_13
_atom_site_aniso_beta_23
Na1 Na1+ 0.00661(25) 0.00185(10) 0.01804(63) 0. 0.00512(39) 0.
Li1 Li1+ 0.0034(5) 0.0027(4) 0.0058(10) 0. 0. 0.0021
Zr1 Zr4+ 0.00125(2) 0.00080(1) 0.00188(3) 0. -0.00002(2) 0.
Si1 Si4+ 0.00133(4) 0.00096(3) 0.00257(8) -0.00013(3) -0.00020(5) -0.00007(4)
Si2 Si4+ 0.00132(4) 0.00104(3) 0.00238(8) -0.00024(3) -0.00011(5) -0.00016(4)
Si3 Si4+ 0.00134(4) 0.00088(2) 0.00288(8) -0.00010(3) 0.00025(5) -0.00020(4)
O1 O2- 0.00436(19) 0.00106(8) 0.00709(35) 0.00012(11) -0.00048(22) -0.00045(14)
O2 O2- 0.00248(13) 0.00135(8) 0.00323(22) -0.00049(9) -0.00108(15) -0.00004(11)
O3 O2- 0.00368(18) 0.00268(12) 0.00299(24) 0.0005(12) -0.00001(17) 0.00073(15)
O4 O2- 0.00217(12) 0.00135(8) 0.00463(26) -0.00075(9) -0.00007(15) -0.00019(12)
O5 O2- 0.00348(17) 0.00162(9) 0.00506(28) 0.00002(10) -0.00033(18) -0.00159(14)
O6 O2- 0.00245(14) 0.00166(9) 0.00413(24) -0.00051(9) 0.00135(16) 0.00001(12)
O7 O2- 0.00125(17) 0.00304(19) 0.00901(57) 0. 0. -0.00063(28)
O8 O2- 0.00130(17) 0.00274(18) 0.00911(58) 0. 0. -0.00066(27)
O9 O2- 0.00109(17) 0.00367(22) 0.00770(52) 0. 0. 0.00032(28)
#End of TTdata_195622-ICSD