
#(C) 2018 by FIZ Karlsruhe - Leibniz Institute for Information Infrastructure.  All rights reserved.
data_195624-ICSD
_database_code_ICSD 195624
_audit_creation_date 2016-02-01
_chemical_name_systematic
'Sodium lithium zirconium tris(pentadecaoxohexasilicate)'
_chemical_formula_structural 'Na Li Zr (Si6 O15)'
_chemical_formula_sum 'Li1 Na1 O15 Si6 Zr1'
_chemical_name_mineral Zektzerite
_exptl_crystal_density_diffrn 2.75
_cell_measurement_temperature 1223.
_publ_section_title

;
A first-order phase transition in zektzerite, Na Li Zr Si6 O15:
high-temperature single-crystal X-ray diffraction study
;
loop_
_citation_id
_citation_journal_full
_citation_year
_citation_journal_volume
_citation_page_first
_citation_page_last
_citation_journal_id_ASTM
primary 'Physics and Chemistry of Minerals' 2015 42 747 759 PCMIDU
loop_
_publ_author_name
'Shaikh, A.M.'
'Ghose, Subrata'
_cell_length_a 14.421(3)
_cell_length_b 17.470(4)
_cell_length_c 10.158(2)
_cell_angle_alpha 90.
_cell_angle_beta 90.
_cell_angle_gamma 90.
_cell_volume 2559.15
_cell_formula_units_Z 8
_symmetry_space_group_name_H-M 'C m c a'
_symmetry_Int_Tables_number 64
loop_
_symmetry_equiv_pos_site_id
_symmetry_equiv_pos_as_xyz
1 '-x, -y+1/2, z+1/2'
2 '-x, y+1/2, -z+1/2'
3 '-x, y, z'
4 '-x, -y, -z'
5 'x, y+1/2, -z+1/2'
6 'x, -y+1/2, z+1/2'
7 'x, -y, -z'
8 'x, y, z'
9 '-x+1/2, -y, z+1/2'
10 '-x+1/2, y, -z+1/2'
11 '-x+1/2, y+1/2, z'
12 '-x+1/2, -y+1/2, -z'
13 'x+1/2, y, -z+1/2'
14 'x+1/2, -y, z+1/2'
15 'x+1/2, -y+1/2, -z'
16 'x+1/2, y+1/2, z'
loop_
_atom_type_symbol
_atom_type_oxidation_number
Na1+ 1
Li1+ 1
Zr4+ 4
Si4+ 4
O2- -2
loop_
_atom_site_label
_atom_site_type_symbol
_atom_site_symmetry_multiplicity
_atom_site_Wyckoff_symbol
_atom_site_fract_x
_atom_site_fract_y
_atom_site_fract_z
_atom_site_B_iso_or_equiv
_atom_site_occupancy
_atom_site_attached_hydrogens
Na1 Na1+ 8 e 0.25 0.21921(33) 0.25 . 0.88 0
Na2 Na1+ 8 f 0 0.4099 0.2568 . 0.12 0
Li1 Li1+ 8 d 0.2542(25) 0 0 . 1. 0
Zr1 Zr4+ 8 e 0.25 -0.08612(4) 0.25 . 1. 0
Si1 Si4+ 16 g 0.39184(10) 0.13121(8) 0.01718(14) . 1. 0
Si2 Si4+ 16 g 0.39155(10) 0.07330(8) 0.31042(15) . 1. 0
Si3 Si4+ 16 g 0.39163(10) 0.19187(8) 0.54142(15) . 1. 0
O1 O2- 16 g 0.36720(40) 0.22118(24) -0.00093(57) . 1. 0
O2 O2- 16 g 0.33002(34) 0.08193(24) -0.07878(42) . 1. 0
O3 O2- 16 g 0.36765(41) 0.11075(33) 0.16875(48) . 1. 0
O4 O2- 16 g 0.32922(34) 0.00007(26) 0.33835(47) . 1. 0
O5 O2- 16 g 0.36429(40) 0.14026(28) 0.41420(53) . 1. 0
O6 O2- 16 g 0.33201(37) 0.17052(27) 0.66750(46) . 1. 0
O7 O2- 8 f 0.5 0.11625(51) -0.00857(84) . 1. 0
O8 O2- 8 f 0.5 0.05345(46) 0.31850(91) . 1. 0
O9 O2- 8 f 0.5 0.18394(47) 0.57275(91) . 1. 0
loop_
_atom_site_aniso_label
_atom_site_aniso_type_symbol
_atom_site_aniso_beta_11
_atom_site_aniso_beta_22
_atom_site_aniso_beta_33
_atom_site_aniso_beta_12
_atom_site_aniso_beta_13
_atom_site_aniso_beta_23
Na1 Na1+ 0.00928(52) 0.00267(18) 0.02656(132) 0. 0.00728(77) 0.
Li1 Li1+ 0.0082(15) 0.0038(7) 0.0088(20) 0. 0. 0.0010(10)
Zr1 Zr4+ 0.00189(2) 0.00115(2) 0.00428(5) 0. 0.00005(4) 0.
Si1 Si4+ 0.00193(6) 0.00124(4) 0.00455(12) -0.00015(4) -0.00034(7) -0.00008(5)
Si2 Si4+ 0.00181(5) 0.00136(4) 0.00470(12) -0.00028(4) -0.00005(7) -0.00030(6)
Si3 Si4+ 0.00186(6) 0.00120(3) 0.00507(12) -0.00018(4) 0.00032(7) -0.00021(6)
O1 O2- 0.00555(31) 0.00123(11) 0.01195(70) 0.00013(16) -0.00120(36) -0.00035(22)
O2 O2- 0.00395(22) 0.00187(12) 0.00622(39) -0.00036(15) -0.00213(26)
-0.00025(18)
O3 O2- 0.00534(31) 0.00394(21) 0.00524(42) -0.00007(21) -0.00001(30) 0.00107(25)
O4 O2- 0.00369(23) 0.00200(12) 0.00732(45) -0.00127(15) -0.00012(27)
-0.00030(19)
O5 O2- 0.00508(30) 0.00248(16) 0.00877(54) -0.00020(18) 0.00068(32) -0.00258(25)
O6 O2- 0.00400(25) 0.00263(15) 0.00688(44) -0.00103(16) 0.00198(28) 0.00013(21)
O7 O2- 0.00162(26) 0.00501(36) 0.01138(96) 0. 0. -0.00055(47)
O8 O2- 0.00213(27) 0.00324(27) 0.0147(11) 0. 0. -0.00063(45)
O9 O2- 0.00180(26) 0.00400(31) 0.0130(10) 0. 0. 0.00065(45)
#End of TTdata_195624-ICSD