
#(C) 2018 by FIZ Karlsruhe - Leibniz Institute for Information Infrastructure.  All rights reserved.
data_195819-ICSD
_database_code_ICSD 195819
_audit_creation_date 2016-02-01
_chemical_name_systematic 'Dilithium digallium germanium hexasulfide'
_chemical_formula_structural 'Li2 Ga2 Ge S6'
_chemical_formula_sum 'Ga2 Ge1 Li2 S6'
_exptl_crystal_density_diffrn 2.96
_cell_measurement_temperature 293.
_publ_section_title
'Structure and optical properties of Li2 Ga2 Ge S6 nonlinear crystal'
loop_
_citation_id
_citation_journal_full
_citation_year
_citation_journal_volume
_citation_page_first
_citation_page_last
_citation_journal_id_ASTM
primary 'Optical Materials, Elsevier' 2015 47 413 419 OMATET
loop_
_publ_author_name
'Isaenko, L.I.'
'Yelisseyev, A.P.'
'Lobanov, S.I.'
'Krinitsin, P.G.'
'Molokeev, M.S.'
_cell_length_a 12.0796(2)
_cell_length_b 22.7300(4)
_cell_length_c 6.84048(11)
_cell_angle_alpha 90.
_cell_angle_beta 90.
_cell_angle_gamma 90.
_cell_volume 1878.19
_cell_formula_units_Z 8
_symmetry_space_group_name_H-M 'F d d 2'
_symmetry_Int_Tables_number 43
_refine_ls_R_factor_all 0.0368
loop_
_symmetry_equiv_pos_site_id
_symmetry_equiv_pos_as_xyz
1 'x+1/4, -y+1/4, z+1/4'
2 '-x+1/4, y+1/4, z+1/4'
3 '-x, -y, z'
4 'x, y, z'
5 'x+1/4, -y+3/4, z+3/4'
6 '-x+1/4, y+3/4, z+3/4'
7 '-x, -y+1/2, z+1/2'
8 'x, y+1/2, z+1/2'
9 'x+3/4, -y+1/4, z+3/4'
10 '-x+3/4, y+1/4, z+3/4'
11 '-x+1/2, -y, z+1/2'
12 'x+1/2, y, z+1/2'
13 'x+3/4, -y+3/4, z+1/4'
14 '-x+3/4, y+3/4, z+1/4'
15 '-x+1/2, -y+1/2, z'
16 'x+1/2, y+1/2, z'
loop_
_atom_type_symbol
_atom_type_oxidation_number
Ge4+ 4
Ga3+ 3
Li1+ 1
S2- -2
loop_
_atom_site_label
_atom_site_type_symbol
_atom_site_symmetry_multiplicity
_atom_site_Wyckoff_symbol
_atom_site_fract_x
_atom_site_fract_y
_atom_site_fract_z
_atom_site_B_iso_or_equiv
_atom_site_occupancy
_atom_site_attached_hydrogens
Ge1 Ge4+ 8 a 0 0 0 2.0(2) 1. 0
Ga1 Ga3+ 16 b 0.1270(2) 0.1375(1) -0.0321(5) 1.0(2) 1. 0
Li1 Li1+ 16 b 0.150(3) 0.061(2) 0.483(5) 3.1(9) 1. 0
S1 S2- 16 b 0.0488(3) 0.0764(2) 0.1889(7) 2.0(2) 1. 0
S2 S2- 16 b 0.3058(4) 0.1190(2) -0.0808(8) 2.0(2) 1. 0
S3 S2- 16 b 0.0965(3) 0.2292(3) 0.0678(8) 2.0(2) 1. 0
#End of TTdata_195819-ICSD