
#(C) 2018 by FIZ Karlsruhe - Leibniz Institute for Information Infrastructure.  All rights reserved.
data_196097-ICSD
_database_code_ICSD 196097
_audit_creation_date 2016-02-01
_chemical_name_systematic 'Lithium-0.8 sodium-0.2 iron hexaoxodigermanate'
_chemical_formula_structural '(Li0.80 Na0.20) Fe (Ge2 O6)'
_chemical_formula_sum 'Fe1 Ge2 Li0.8 Na0.2 O6'
_chemical_name_structure_type Pyroxene-MgSiO3-LT
_chemical_name_mineral 'Clinopyroxene - (Li,Na,Fe,Ge)'
_exptl_crystal_density_diffrn 4.54
_cell_measurement_temperature 293.
_publ_section_title

;
The (Na,Li) Fe Ge2 O6 clinopyroxene-type series: a temperature-dependent
single-crystal X-ray diffraction and (57)Fe Moessbauer spectroscopic study
;
loop_
_citation_id
_citation_journal_full
_citation_year
_citation_journal_volume
_citation_page_first
_citation_page_last
_citation_journal_id_ASTM
primary 'Physics and Chemistry of Minerals' 2016 43 1 22 PCMIDU
loop_
_publ_author_name
'Redhammer, Guenther J.'
'Tippelt, Gerold'
_cell_length_a 9.9217(8)
_cell_length_b 8.8326(8)
_cell_length_c 5.4201(5)
_cell_angle_alpha 90
_cell_angle_beta 108.744(4)
_cell_angle_gamma 90
_cell_volume 449.79
_cell_formula_units_Z 4
_symmetry_space_group_name_H-M 'P 1 21/c 1'
_symmetry_Int_Tables_number 14
_refine_ls_R_factor_all 0.019
loop_
_symmetry_equiv_pos_site_id
_symmetry_equiv_pos_as_xyz
1 'x, -y+1/2, z+1/2'
2 '-x, -y, -z'
3 '-x, y+1/2, -z+1/2'
4 'x, y, z'
loop_
_atom_type_symbol
_atom_type_oxidation_number
Li1+ 1
Na1+ 1
Fe3+ 3
Ge4+ 4
O2- -2
loop_
_atom_site_label
_atom_site_type_symbol
_atom_site_symmetry_multiplicity
_atom_site_Wyckoff_symbol
_atom_site_fract_x
_atom_site_fract_y
_atom_site_fract_z
_atom_site_B_iso_or_equiv
_atom_site_occupancy
_atom_site_attached_hydrogens
Li1 Li1+ 4 e 0.2601(3) 0.4746(4) 0.7307(5) 0.0210(10) 0.801(7) 0
Na1 Na1+ 4 e 0.2601(3) 0.4746(4) 0.7307(5) 0.0210(10) 0.199(7) 0
Fe1 Fe3+ 4 e 0.25070(3) 0.65130(4) 0.22024(7) 0.00616(9) 0.998 0
Ge1 Ge4+ 4 e 0.04384(3) 0.34229(3) 0.26980(5) 0.00675(8) 1 0
Ge2 Ge4+ 4 e 0.54923(3) 0.84058(3) 0.23124(5) 0.00648(8) 1 0
O1 O2- 4 e -0.14234(18) 0.33166(18) 0.1676(3) 0.0077(3) 1 0
O2 O2- 4 e 0.11238(19) 0.52177(19) 0.2833(3) 0.0131(4) 1 0
O3 O2- 4 e 0.11433(18) 0.2848(2) 0.5971(3) 0.0124(4) 1 0
O4 O2- 4 e 0.36241(18) 0.83200(18) 0.1105(3) 0.0078(3) 1 0
O5 O2- 4 e 0.62369(19) 1.0086(2) 0.3678(3) 0.0135(4) 1 0
O6 O2- 4 e 0.61327(18) 0.7007(2) 0.4715(3) 0.0120(4) 1 0
loop_
_atom_site_aniso_label
_atom_site_aniso_type_symbol
_atom_site_aniso_U_11
_atom_site_aniso_U_22
_atom_site_aniso_U_33
_atom_site_aniso_U_12
_atom_site_aniso_U_13
_atom_site_aniso_U_23
Li1 Li1+ 0.0173(17) 0.0296(19) 0.0149(15) -0.0083(12) 0.0035(12) -0.0054(12)
Na1 Na1+ 0.0173(17) 0.0296(19) 0.0149(15) -0.0083(12) 0.0035(12) -0.0054(12)
Fe1 Fe3+ 0.00571(18) 0.00634(18) 0.00595(17) 0.00014(13) 0.00119(13) 0.00043(12)
Ge1 Ge4+ 0.00566(14) 0.00774(14) 0.00670(13) -0.00131(9) 0.00178(10) -0.00031(9)
Ge2 Ge4+ 0.00598(14) 0.00691(14) 0.00614(13) -0.00104(9) 0.00141(9) -0.00044(9)
O1 O2- 0.0061(8) 0.0104(9) 0.0052(7) 0.0004(6) -0.0002(6) 0.0011(6)
O2 O2- 0.0133(9) 0.0093(9) 0.0183(9) -0.0042(7) 0.0074(7) -0.0009(7)
O3 O2- 0.0095(9) 0.0184(10) 0.0093(8) -0.0007(7) 0.0032(7) 0.0042(7)
O4 O2- 0.0057(8) 0.0094(8) 0.0075(8) -0.0012(6) 0.0010(6) 0.0012(6)
O5 O2- 0.0151(9) 0.0118(9) 0.0160(9) -0.0061(7) 0.0085(7) -0.0050(7)
O6 O2- 0.0093(9) 0.0178(10) 0.0097(9) 0.0012(7) 0.0043(7) 0.0054(7)
#End of TTdata_196097-ICSD