
#(C) 2018 by FIZ Karlsruhe - Leibniz Institute for Information Infrastructure.  All rights reserved.
data_196076-ICSD
_database_code_ICSD 196076
_audit_creation_date 2016-02-01
_chemical_name_systematic 'Lithium-0.39 sodium-0.61 iron hexaoxodigermanate'
_chemical_formula_structural '(Li0.39 Na0.61) Fe (Ge2 O6)'
_chemical_formula_sum 'Fe1 Ge2 Li0.39 Na0.61 O6'
_chemical_name_structure_type Pyroxene-MgSiO3-LT
_chemical_name_mineral 'Clinopyroxene - (Li,Na,Fe,Ge)'
_exptl_crystal_density_diffrn 4.52
_cell_measurement_temperature 293.
_publ_section_title

;
The (Na,Li) Fe Ge2 O6 clinopyroxene-type series: a temperature-dependent
single-crystal X-ray diffraction and (57)Fe Moessbauer spectroscopic study
;
loop_
_citation_id
_citation_journal_full
_citation_year
_citation_journal_volume
_citation_page_first
_citation_page_last
_citation_journal_id_ASTM
primary 'Physics and Chemistry of Minerals' 2016 43 1 22 PCMIDU
loop_
_publ_author_name
'Redhammer, Guenther J.'
'Tippelt, Gerold'
_cell_length_a 9.9808(8)
_cell_length_b 8.8652(7)
_cell_length_c 5.4909(5)
_cell_angle_alpha 90
_cell_angle_beta 108.388(7)
_cell_angle_gamma 90
_cell_volume 461.03
_cell_formula_units_Z 4
_symmetry_space_group_name_H-M 'P 1 21/c 1'
_symmetry_Int_Tables_number 14
_refine_ls_R_factor_all 0.0233
loop_
_symmetry_equiv_pos_site_id
_symmetry_equiv_pos_as_xyz
1 'x, -y+1/2, z+1/2'
2 '-x, -y, -z'
3 '-x, y+1/2, -z+1/2'
4 'x, y, z'
loop_
_atom_type_symbol
_atom_type_oxidation_number
Li1+ 1
Na1+ 1
Fe3+ 3
Ge4+ 4
O2- -2
loop_
_atom_site_label
_atom_site_type_symbol
_atom_site_symmetry_multiplicity
_atom_site_Wyckoff_symbol
_atom_site_fract_x
_atom_site_fract_y
_atom_site_fract_z
_atom_site_B_iso_or_equiv
_atom_site_occupancy
_atom_site_attached_hydrogens
Li1 Li1+ 4 e 0.2587(6) 0.4601(5) 0.7422(10) 0.0138(18) 0.391(13) 0
Na1 Na1+ 4 e 0.2587(6) 0.4601(5) 0.7422(10) 0.0138(18) 0.609(12) 0
Fe1 Fe3+ 4 e 0.25085(16) 0.65306(12) 0.2331(3) 0.0054(4) 0.998 0
Ge1 Ge4+ 4 e 0.03992(10) 0.34319(12) 0.25049(18) 0.0064(4) 1 0
Ge2 Ge4+ 4 e 0.54352(10) 0.84240(12) 0.23162(17) 0.0058(4) 1 0
O1 O2- 4 e -0.1449(6) 0.3328(6) 0.1512(10) 0.0037(14) 1 0
O2 O2- 4 e 0.1093(6) 0.5223(6) 0.2852(10) 0.0086(16) 1 0
O3 O2- 4 e 0.1118(7) 0.2705(7) 0.5633(11) 0.0125(16) 1 0
O4 O2- 4 e 0.3587(5) 0.8319(6) 0.1194(6) 0.0067(14) 1 0
O5 O2- 4 e 0.6119(7) 1.0175(6) 0.3313(11) 0.0109(16) 1 0
O6 O2- 4 e 0.6135(6) 0.7227(7) 0.4979(9) 0.0087(16) 1 0
loop_
_atom_site_aniso_label
_atom_site_aniso_type_symbol
_atom_site_aniso_U_11
_atom_site_aniso_U_22
_atom_site_aniso_U_33
_atom_site_aniso_U_12
_atom_site_aniso_U_13
_atom_site_aniso_U_23
Li1 Li1+ 0.010(3) 0.019(3) 0.011(3) -0.004(3) 0.001(2) 0.000(3)
Na1 Na1+ 0.010(3) 0.019(3) 0.011(3) -0.004(3) 0.001(2) 0.000(3)
Fe1 Fe3+ 0.0040(7) 0.0046(7) 0.0079(7) -0.0004(8) 0.0025(5) 0.0001(7)
Ge1 Ge4+ 0.0052(7) 0.0062(7) 0.0090(6) -0.0010(5) 0.0039(5) -0.0009(5)
Ge2 Ge4+ 0.0044(7) 0.0061(7) 0.0073(6) -0.0004(5) 0.0025(5) 0.0001(5)
O1 O2- 0.001(3) 0.003(4) 0.008(3) 0.001(3) 0.003(3) 0.003(3)
O2 O2- 0.009(4) 0.003(4) 0.015(3) -0.004(3) 0.007(3) -0.001(3)
O3 O2- 0.004(4) 0.017(4) 0.018(4) 0.003(3) 0.005(3) 0.011(3)
O4 O2- 0.000(3) 0.010(4) 0.010(3) -0.001(3) 0.002(3) 0.004(3)
O5 O2- 0.013(4) 0.005(4) 0.019(3) -0.002(3) 0.012(3) -0.005(3)
O6 O2- 0.003(4) 0.015(4) 0.007(4) 0.002(3) 0.000(3) 0.006(3)
#End of TTdata_196076-ICSD