
#(C) 2018 by FIZ Karlsruhe - Leibniz Institute for Information Infrastructure.  All rights reserved.
data_196104-ICSD
_database_code_ICSD 196104
_audit_creation_date 2016-02-01
_chemical_name_systematic 'Lithium-0.40 sodium-0.60 iron hexaoxodigermanate'
_chemical_formula_structural '(Li0.40 Na0.60) Fe (Ge2 O6)'
_chemical_formula_sum 'Fe1 Ge2 Li0.4 Na0.6 O6'
_chemical_name_structure_type Pyroxene-CaMg(SiO3)2
_chemical_name_mineral 'Clinopyroxene - (Li,Na,Fe,Ge)'
_exptl_crystal_density_diffrn 4.48
_cell_measurement_temperature 293.
_publ_section_title

;
The (Na,Li) Fe Ge2 O6 clinopyroxene-type series: a temperature-dependent
single-crystal X-ray diffraction and (57)Fe Moessbauer spectroscopic study
;
loop_
_citation_id
_citation_journal_full
_citation_year
_citation_journal_volume
_citation_page_first
_citation_page_last
_citation_journal_id_ASTM
primary 'Physics and Chemistry of Minerals' 2016 43 1 22 PCMIDU
loop_
_publ_author_name
'Redhammer, Guenther J.'
'Tippelt, Gerold'
_cell_length_a 10.0297(9)
_cell_length_b 8.8427(8)
_cell_length_c 5.5314(6)
_cell_angle_alpha 90.
_cell_angle_beta 108.6721(13)
_cell_angle_gamma 90.
_cell_volume 464.75
_cell_formula_units_Z 4
_symmetry_space_group_name_H-M 'C 1 2/c 1'
_symmetry_Int_Tables_number 15
_refine_ls_R_factor_all 0.0143
loop_
_symmetry_equiv_pos_site_id
_symmetry_equiv_pos_as_xyz
1 'x, -y, z+1/2'
2 '-x, -y, -z'
3 '-x, y, -z+1/2'
4 'x, y, z'
5 'x+1/2, -y+1/2, z+1/2'
6 '-x+1/2, -y+1/2, -z'
7 '-x+1/2, y+1/2, -z+1/2'
8 'x+1/2, y+1/2, z'
loop_
_atom_type_symbol
_atom_type_oxidation_number
Na1+ 1
Li1+ 1
Fe3+ 3
Ge4+ 4
O2- -2
loop_
_atom_site_label
_atom_site_type_symbol
_atom_site_symmetry_multiplicity
_atom_site_Wyckoff_symbol
_atom_site_fract_x
_atom_site_fract_y
_atom_site_fract_z
_atom_site_B_iso_or_equiv
_atom_site_occupancy
_atom_site_attached_hydrogens
Na1 Na1+ 4 e 0. 0.2925(2) 0.25 0.0184(5) 0.599(4) 0
Li1 Li1+ 4 e 0. 0.2925(2) 0.25 0.0184(5) 0.401(4) 0
Fe1 Fe3+ 4 e 0. 0.90432(5) 0.25 0.00721(13) 1 0
Ge1 Ge4+ 8 f 0.28937(3) 0.09326(3) 0.23887(4) 0.00827(11) 1 0
O1 O2- 8 f 0.35684(19) 0.2734(2) 0.2942(3) 0.0159(4) 1 0
O2 O2- 8 f 0.10552(17) 0.08329(18) 0.1356(3) 0.0093(3) 1 0
O3 O2- 8 f 0.36228(17) -0.0058(2) 0.0391(3) 0.0176(4) 1 0
loop_
_atom_site_aniso_label
_atom_site_aniso_type_symbol
_atom_site_aniso_U_11
_atom_site_aniso_U_22
_atom_site_aniso_U_33
_atom_site_aniso_U_12
_atom_site_aniso_U_13
_atom_site_aniso_U_23
Na1 Na1+ 0.0201(11) 0.0151(11) 0.0162(10) 0. 0.0007(8) 0.
Li1 Li1+ 0.0201(11) 0.0151(11) 0.0162(10) 0. 0.0007(8) 0.
Fe1 Fe3+ 0.0069(2) 0.0077(2) 0.0068(2) 0. 0.00193(17) 0.
Ge1 Ge4+ 0.00726(15) 0.01030(15) 0.00728(15) -0.00142(9) 0.00235(10) -0.00058(9)
O1 O2- 0.0168(9) 0.0136(8) 0.0193(9) -0.0070(7) 0.0087(7) -0.0040(7)
O2 O2- 0.0063(7) 0.0125(8) 0.0081(7) -0.0012(6) 0.0010(6) 0.0010(6)
O3 O2- 0.0100(9) 0.0291(11) 0.0130(8) 0.0010(7) 0.0026(7) -0.0100(7)
#End of TTdata_196104-ICSD