
#(C) 2018 by FIZ Karlsruhe - Leibniz Institute for Information Infrastructure.  All rights reserved.
data_196283-ICSD
_database_code_ICSD 196283
_audit_creation_date 2016-02-01
_chemical_name_systematic 'Lithium strontium diterbium tris(trioxoborate)'
_chemical_formula_structural 'Li Sr Tb2 (B O3)3'
_chemical_formula_sum 'B3 Li1 O9 Sr1 Tb2'
_exptl_crystal_density_diffrn 4.85
_cell_measurement_temperature 298.
_publ_section_title
'A terbium rich ortho-borate Li Sr Tb2 (B O3)3 and its analogues'
loop_
_citation_id
_citation_journal_full
_citation_year
_citation_journal_volume
_citation_page_first
_citation_page_last
_citation_journal_id_ASTM
primary 'New Journal of Chemistry' 2015 39 9389 9395 NJCHE5
loop_
_publ_author_name
'Chen, Pengyun'
'Xia, Mingjun'
'Li, R.K.'
_cell_length_a 10.3845(9)
_cell_length_b 10.3845(9)
_cell_length_c 6.4739(8)
_cell_angle_alpha 90.
_cell_angle_beta 90.
_cell_angle_gamma 120.
_cell_volume 604.6
_cell_formula_units_Z 3
_symmetry_space_group_name_H-M 'P -3 m 1'
_symmetry_Int_Tables_number 164
_refine_ls_R_factor_all 0.0311
loop_
_symmetry_equiv_pos_site_id
_symmetry_equiv_pos_as_xyz
1 'x-y, -y, -z'
2 '-x, -x+y, -z'
3 'y, x, -z'
4 'x-y, x, -z'
5 'y, -x+y, -z'
6 '-x, -y, -z'
7 '-x+y, y, z'
8 'x, x-y, z'
9 '-y, -x, z'
10 '-x+y, -x, z'
11 '-y, x-y, z'
12 'x, y, z'
loop_
_atom_type_symbol
_atom_type_oxidation_number
Tb3+ 3
Sr2+ 2
O2- -2
B3+ 3
Li1+ 1
loop_
_atom_site_label
_atom_site_type_symbol
_atom_site_symmetry_multiplicity
_atom_site_Wyckoff_symbol
_atom_site_fract_x
_atom_site_fract_y
_atom_site_fract_z
_atom_site_B_iso_or_equiv
_atom_site_occupancy
_atom_site_attached_hydrogens
Tb1 Tb3+ 6 i 0.17709(3) 0.82291(3) 0.35818(8) 0.0123(2) 1 0
Sr1 Sr2+ 3 e 0. 0.5 0. 0.0086(3) 1 0
O1 O2- 6 i 0.1796(8) 0.5898(4) 0.3332(10) 0.0089(15) 1 0
O2 O2- 12 j 0.6260(8) -0.3014(7) 0.6906(8) 0.0192(13) 1 0
O3 O2- 6 i 0.1978(5) 0.8022(5) 0.0100(11) 0.019(2) 1 0
O4 O2- 6 h 0.124(2) 0.124(2) 0.5 0.069(8) 0.5 0
B1 B3+ 2 d 0.3333 0.6667 0.331(3) 0.009(4) 1 0
B2 B3+ 6 i 0.1896(8) 0.8104(8) -0.1965(18) 0.013(3) 1 0
B3 B3+ 1 b 0. 0. 0.5 0.068(17) 1 0
Li1 Li1+ 3 f 0. 0.5 0.5 0.030(8) 1 0
loop_
_atom_site_aniso_label
_atom_site_aniso_type_symbol
_atom_site_aniso_U_11
_atom_site_aniso_U_22
_atom_site_aniso_U_33
_atom_site_aniso_U_12
_atom_site_aniso_U_13
_atom_site_aniso_U_23
Tb1 Tb3+ 0.0140(3) 0.0140(3) 0.0087(3) 0.0067(2) 0.00158(9) -0.00158(9)
Sr1 Sr2+ 0.0087(7) 0.0100(5) 0.0064(6) 0.0044(4) 0.0004(5) 0.0002(2)
O1 O2- 0.009(4) 0.007(3) 0.011(3) 0.0045(19) 0.003(3) 0.0017(14)
O2 O2- 0.043(4) 0.016(3) 0.009(2) 0.023(3) -0.003(2) -0.002(2)
O3 O2- 0.016(3) 0.016(3) 0.008(4) -0.005(4) -0.0029(17) 0.0029(17)
O4 O2- 0.049(11) 0.049(11) 0.086(18) 0.006(12) -0.013(7) 0.013(7)
B1 B3+ 0.008(6) 0.008(6) 0.011(9) 0.004(3) 0. 0.
B2 B3+ 0.013(5) 0.013(5) 0.005(5) 0.001(5) -0.004(2) 0.004(2)
Li1 Li1+ 0.04(2) 0.032(14) 0.018(15) 0.022(11) 0.023(14) 0.011(7)
#End of TTdata_196283-ICSD