
#(C) 2018 by FIZ Karlsruhe - Leibniz Institute for Information Infrastructure.  All rights reserved.
data_196307-ICSD
_database_code_ICSD 196307
_audit_creation_date 2016-02-01
_chemical_name_systematic 'Dilithium dimagnesium nonaoxoditungstate'
_chemical_formula_structural 'Li2 Mg2 (W2 O9)'
_chemical_formula_sum 'Li2 Mg2 O9 W2'
_chemical_name_structure_type Nb2Co4O9
_exptl_crystal_density_diffrn 5.97
_publ_section_title

;
A novel low-firing and low loss microwave dielectric ceramic Li2 Mg2 W2 O9
with corundum structure
;
loop_
_citation_id
_citation_journal_full
_citation_year
_citation_journal_volume
_citation_page_first
_citation_page_last
_citation_journal_id_ASTM
primary 'Journal of the American Ceramic Society' 2015 98 3863 3868 JACTAW
loop_
_publ_author_name
'Guo, Huanhuan'
'Fang, Liang'
'Jiang, Xuewen'
'Li, Jie'
'Lu, Fengqi'
'Li, Chunchun'
_cell_length_a 5.12104(3)
_cell_length_b 5.12104(3)
_cell_length_c 14.06225(8)
_cell_angle_alpha 90.
_cell_angle_beta 90.
_cell_angle_gamma 120.
_cell_volume 319.37
_cell_formula_units_Z 2
_symmetry_space_group_name_H-M 'P -3 c 1'
_symmetry_Int_Tables_number 165
_refine_ls_R_factor_all 0.039
loop_
_symmetry_equiv_pos_site_id
_symmetry_equiv_pos_as_xyz
1 'x-y, -y, -z+1/2'
2 '-x, -x+y, -z+1/2'
3 'y, x, -z+1/2'
4 'x-y, x, -z'
5 'y, -x+y, -z'
6 '-x, -y, -z'
7 '-x+y, y, z+1/2'
8 'x, x-y, z+1/2'
9 '-y, -x, z+1/2'
10 '-x+y, -x, z'
11 '-y, x-y, z'
12 'x, y, z'
loop_
_atom_type_symbol
_atom_type_oxidation_number
Li1+ 1
Mg2+ 2
W6+ 6
O2- -2
loop_
_atom_site_label
_atom_site_type_symbol
_atom_site_symmetry_multiplicity
_atom_site_Wyckoff_symbol
_atom_site_fract_x
_atom_site_fract_y
_atom_site_fract_z
_atom_site_B_iso_or_equiv
_atom_site_occupancy
_atom_site_attached_hydrogens
Li1 Li1+ 4 d 0.3333 0.6667 0.0233(5) 0.020(1) 0.5 0
Li2 Li1+ 4 d 0.3333 0.6667 0.3123(5) 0.022(5) 0.5 0
Mg1 Mg2+ 4 d 0.3333 0.6667 0.0233(5) 0.022(5) 0.5 0
Mg2 Mg2+ 4 d 0.3333 0.6667 0.3123(5) 0.022(5) 0.5 0
W1 W6+ 4 c 0 0 0.35735(3) 0.022(5) 1. 0
O1 O2- 12 g 0.3370(2) 0.3059(2) 0.0912(4) 0.027(1) 1. 0
O2 O2- 6 f 0.3043(1) 0 0.25 0.027(1) 1. 0
#End of TTdata_196307-ICSD