
#(C) 2018 by FIZ Karlsruhe - Leibniz Institute for Information Infrastructure.  All rights reserved.
data_196355-ICSD
_database_code_ICSD 196355
_audit_creation_date 2016-08-01
_chemical_name_systematic 'Lithium magnesium-0.52 cobalt-0.48 trioxoborate'
_chemical_formula_structural 'Li (Mg0.52 Co0.48) (B O3)'
_chemical_formula_sum 'B1 Co0.48 Li1 Mg0.52 O3'
_chemical_name_structure_type LiCoBO3
_exptl_crystal_density_diffrn 3.11
_publ_section_title

;
Exploring the colour of 3d transition-metal ions in trigonal bipy-ramidal
coordination: identification of purple-blue (Co O5) and beige-red (N iO5)
chromophores in Li Mg B O3 host
;
loop_
_citation_id
_citation_journal_full
_citation_year
_citation_journal_volume
_citation_page_first
_citation_page_last
_citation_journal_id_ASTM
primary 'European Journal of Inorganic Chemistry' 2016 2016 288 293 EJICFO
loop_
_publ_author_name
'Tamilarasan, Subramani'
'Laha, Sourav'
'Natarajan, Srinivasan'
'Gopalakrishnan, Jagannatha'
_cell_length_a 5.146(1)
_cell_length_b 8.865(1)
_cell_length_c 10.004(1)
_cell_angle_alpha 90.
_cell_angle_beta 91.28(1)
_cell_angle_gamma 90.
_cell_volume 456.26
_cell_formula_units_Z 8
_symmetry_space_group_name_H-M 'C 1 2/c 1'
_symmetry_Int_Tables_number 15
_refine_ls_R_factor_all 0.01
loop_
_symmetry_equiv_pos_site_id
_symmetry_equiv_pos_as_xyz
1 'x, -y, z+1/2'
2 '-x, -y, -z'
3 '-x, y, -z+1/2'
4 'x, y, z'
5 'x+1/2, -y+1/2, z+1/2'
6 '-x+1/2, -y+1/2, -z'
7 '-x+1/2, y+1/2, -z+1/2'
8 'x+1/2, y+1/2, z'
loop_
_atom_type_symbol
_atom_type_oxidation_number
Li1+ 1
Mg2+ 2
Co2+ 2
B3+ 3
O2- -2
loop_
_atom_site_label
_atom_site_type_symbol
_atom_site_symmetry_multiplicity
_atom_site_Wyckoff_symbol
_atom_site_fract_x
_atom_site_fract_y
_atom_site_fract_z
_atom_site_B_iso_or_equiv
_atom_site_occupancy
_atom_site_attached_hydrogens
Li1 Li1+ 8 f 0.659(4) 0.529(3) 0.153(1) 0.055(7) 0.52(1) 0
Li2 Li1+ 8 f 0.663(4) 0.508(3) 0.104(2) 0.061(8) 0.48(1) 0
Mg1 Mg2+ 8 f 0.154(1) 0.340(1) 0.120(1) 0.062(1) 0.52(1) 0
Co1 Co2+ 8 f 0.154(1) 0.340(1) 0.120(1) 0.062(1) 0.48(1) 0
B1 B3+ 8 f 0.139(2) 0.687(1) 0.116(1) 0.002(2) 1. 0
O1 O2- 8 f 0.418(1) 0.157(1) 0.095(1) 0.049(1) 1. 0
O2 O2- 8 f 0.753(1) 0.307(1) 0.164(1) 0.041(2) 1. 0
O3 O2- 8 f 0.287(1) 0.541(1) 0.136(1) 0.038(1) 1. 0
#End of TTdata_196355-ICSD