
#(C) 2018 by FIZ Karlsruhe - Leibniz Institute for Information Infrastructure.  All rights reserved.
data_196431-ICSD
_database_code_ICSD 196431
_audit_creation_date 2016-08-01
_chemical_name_systematic
'Cesium pentalithium manganese bis(heptaoxodiphosphate)'
_chemical_formula_structural 'Cs Li5 Mn (P2 O7)2'
_chemical_formula_sum 'Cs1 Li5 Mn1 O14 P4'
_exptl_crystal_density_diffrn 3.
_cell_measurement_temperature 296.
_publ_section_title

;
The synthesis, structure and properties of a new lithium-rich manganese(II)
phosphate Li5 Cs Mn (P2 O7)2 : a congruently melting compound with a 'lithium
hamburger' structure
;
loop_
_citation_id
_citation_journal_full
_citation_year
_citation_journal_volume
_citation_page_first
_citation_page_last
_citation_journal_id_ASTM
primary 'Dalton Transactions' 2016 45 2584 2590 DTARAF
loop_
_publ_author_name
'Gao, Jianhua'
'Sha, Xunshan'
'Song, Limei'
'Zhao, Pan'
'Liu, Xi'
_cell_length_a 5.1023(10)
_cell_length_b 19.717(4)
_cell_length_c 12.557(3)
_cell_angle_alpha 90.
_cell_angle_beta 90.
_cell_angle_gamma 90.
_cell_volume 1263.26
_cell_formula_units_Z 4
_symmetry_space_group_name_H-M 'P b c n'
_symmetry_Int_Tables_number 60
_refine_ls_R_factor_all 0.0402
loop_
_symmetry_equiv_pos_site_id
_symmetry_equiv_pos_as_xyz
1 'x, -y, z+1/2'
2 '-x+1/2, y+1/2, z'
3 'x+1/2, y+1/2, -z+1/2'
4 '-x, -y, -z'
5 '-x, y, -z+1/2'
6 'x+1/2, -y+1/2, -z'
7 '-x+1/2, -y+1/2, z+1/2'
8 'x, y, z'
loop_
_atom_type_symbol
_atom_type_oxidation_number
Cs1+ 1
Mn2+ 2
P5+ 5
O2- -2
Li1+ 1
loop_
_atom_site_label
_atom_site_type_symbol
_atom_site_symmetry_multiplicity
_atom_site_Wyckoff_symbol
_atom_site_fract_x
_atom_site_fract_y
_atom_site_fract_z
_atom_site_B_iso_or_equiv
_atom_site_occupancy
_atom_site_attached_hydrogens
Cs1 Cs1+ 4 c 0. 0.19311(2) 0.75 0.0399(3) 1 0
Mn1 Mn2+ 4 c 0. -0.02531(4) 0.75 0.0132(3) 1 0
P1 P5+ 8 d 0.48268(14) 0.05498(4) 0.63541(6) 0.0112(3) 1 0
P2 P5+ 8 d 0.48112(14) 0.32492(5) 0.86507(6) 0.0120(3) 1 0
O1 O2- 8 d -0.3419(4) -0.00755(11) 0.64240(17) 0.0174(5) 1 0
O2 O2- 8 d 0.1959(4) 0.03487(11) 0.62311(16) 0.0174(5) 1 0
O3 O2- 8 d 0.1913(4) 0.33029(12) 0.88641(17) 0.0189(5) 1 0
O4 O2- 8 d -0.1171(5) -0.10676(11) 0.85477(17) 0.0179(5) 1 0
O5 O2- 8 d 0.1248(5) 0.22292(11) 1.06151(18) 0.0200(5) 1 0
O6 O2- 4 c 0.5 0.09290(18) 0.75 0.0146(8) 1 0
O7 O2- 8 d 0.5755(5) 0.10671(12) 0.55685(17) 0.0200(5) 1 0
O8 O2- 4 c 0.5 0.2879(2) 0.75 0.0186(8) 1 0
Li1 Li1+ 8 d -0.0335(11) 0.3002(3) 0.9989(5) 0.0181(12) 1 0
Li2 Li1+ 8 d -0.0224(11) 0.4093(3) 0.8992(6) 0.0198(13) 1 0
Li3 Li1+ 4 a 0. 0. 0.5 0.135(12) 1 0
loop_
_atom_site_aniso_label
_atom_site_aniso_type_symbol
_atom_site_aniso_U_11
_atom_site_aniso_U_22
_atom_site_aniso_U_33
_atom_site_aniso_U_12
_atom_site_aniso_U_13
_atom_site_aniso_U_23
Cs1 Cs1+ 0.0198(3) 0.0206(3) 0.0794(4) 0. -0.00035(14) 0.
Mn1 Mn2+ 0.0135(4) 0.0116(4) 0.0145(4) 0. 0.0013(2) 0.
P1 P5+ 0.0128(4) 0.0104(5) 0.0104(4) -0.0008(2) -0.0004(2) 0.0004(3)
P2 P5+ 0.0129(5) 0.0103(4) 0.0127(4) -0.0005(3) -0.0003(2) 0.0021(3)
O1 O2- 0.0174(11) 0.0135(11) 0.0213(11) 0.0027(9) -0.0028(9) -0.0028(8)
O2 O2- 0.0143(11) 0.0215(12) 0.0165(10) -0.0042(9) -0.0040(8) 0.0001(8)
O3 O2- 0.0151(11) 0.0205(11) 0.0213(11) 0.0007(9) 0.0032(9) 0.0027(9)
O4 O2- 0.0174(12) 0.0147(11) 0.0216(10) 0.0046(9) 0.0057(9) 0.0047(8)
O5 O2- 0.0186(12) 0.0183(11) 0.0232(12) 0.0014(9) 0.0057(9) 0.0074(8)
O6 O2- 0.023(2) 0.0098(16) 0.0113(15) 0. -0.0010(10) 0.
O7 O2- 0.0239(12) 0.0207(12) 0.0152(11) -0.0055(10) 0.0007(10) 0.0046(9)
O8 O2- 0.027(2) 0.0121(17) 0.0167(16) 0. 0.0050(11) 0.
Li1 Li1+ 0.021(3) 0.015(3) 0.018(3) -0.001(2) 0.002(2) 0.005(2)
Li2 Li1+ 0.018(3) 0.014(3) 0.028(3) 0.0001(19) -0.002(2) 0.001(2)
Li3 Li1+ 0.135(12) 0.135(12) 0.135(12) -0.0003(10) -0.0002(10) -0.0002(10)
#End of TTdata_196431-ICSD