
#(C) 2018 by FIZ Karlsruhe - Leibniz Institute for Information Infrastructure.  All rights reserved.
data_200401-ICSD
_database_code_ICSD 200401
_audit_creation_date 1980-01-01
_audit_update_record 1984-11-02
_chemical_name_systematic 'Lithium scandium silicate'
_chemical_formula_structural 'Li Sc Si O4'
_chemical_formula_sum 'Li1 O4 Sc1 Si1'
_chemical_name_structure_type Olivine-Mg2SiO4
_exptl_crystal_density_diffrn 3.18
_publ_section_title

;
Crystal structure of synthetic Li Sc Si O4 olivine and comparison with
isotypic Mg2 Si O4.
;
loop_
_citation_id
_citation_journal_full
_citation_year
_citation_journal_volume
_citation_page_first
_citation_page_last
_citation_journal_id_ASTM
primary

;
Zeitschrift fuer Kristallographie, Kristallgeometrie, Kristallphysik,
Kristallchemie (145,1977-148,1979)
; 1978 147 119 127 ZKKKAJ
loop_
_publ_author_name
'Steele, I.M.'
'Pluth, J.J.'
'Ito, J.'
_cell_length_a 4.8214(7)
_cell_length_b 10.444(1)
_cell_length_c 5.9729(9)
_cell_angle_alpha 90.
_cell_angle_beta 90.
_cell_angle_gamma 90.
_cell_volume 300.76
_cell_formula_units_Z 4
_symmetry_space_group_name_H-M 'P b n m'
_symmetry_Int_Tables_number 62
_refine_ls_R_factor_all 0.016
loop_
_symmetry_equiv_pos_site_id
_symmetry_equiv_pos_as_xyz
1 '-x+1/2, y+1/2, z'
2 'x, y, -z+1/2'
3 'x+1/2, -y+1/2, z+1/2'
4 '-x, -y, -z'
5 'x+1/2, -y+1/2, -z'
6 '-x, -y, z+1/2'
7 '-x+1/2, y+1/2, -z+1/2'
8 'x, y, z'
loop_
_atom_type_symbol
_atom_type_oxidation_number
Li1+ 1
Sc3+ 3
Si4+ 4
O2- -2
loop_
_atom_site_label
_atom_site_type_symbol
_atom_site_symmetry_multiplicity
_atom_site_Wyckoff_symbol
_atom_site_fract_x
_atom_site_fract_y
_atom_site_fract_z
_atom_site_B_iso_or_equiv
_atom_site_occupancy
_atom_site_attached_hydrogens
Li1 Li1+ 4 a 0 0 0 . 1. 0
Sc1 Sc3+ 4 c 0.9922(1) 0.2743(1) 0.25 . 1. 0
Si1 Si4+ 4 c 0.4310(1) 0.0910(1) 0.25 . 1. 0
O1 O2- 4 c 0.7624(3) 0.1014(1) 0.25 . 1. 0
O2 O2- 4 c 0.1959(3) 0.4478(1) 0.25 . 1. 0
O3 O2- 8 d 0.2819(2) 0.1683(1) 0.0396(2) . 1. 0
loop_
_atom_site_aniso_label
_atom_site_aniso_type_symbol
_atom_site_aniso_beta_11
_atom_site_aniso_beta_22
_atom_site_aniso_beta_33
_atom_site_aniso_beta_12
_atom_site_aniso_beta_13
_atom_site_aniso_beta_23
Li1 Li1+ 0.016(2) 0.0036(4) 0.0079(11) -.0003(6) -.0014(10) -.0020(5)
Sc1 Sc3+ 0.0057(2) 0.0008(1) 0.0028(1) 0.0000(1) 0 0
Si1 Si4+ 0.0053(3) 0.0008(1) 0.0032(2) 0.0000(1) 0 0
O1 O2- 0.0070(6) 0.0012(1) 0.0049(4) 0.0000(2) 0 0
O2 O2- 0.0066(3) 0.0010(1) 0.0053(4) 0.0000(2) 0 0
O3 O2- 0.0061(4) 0.0013(1) 0.0034(3) 0.0006(1) 0.0004(3) 0.0003(1)
#End of TTdata_200401-ICSD