
#(C) 2018 by FIZ Karlsruhe - Leibniz Institute for Information Infrastructure.  All rights reserved.
data_200623-ICSD
_database_code_ICSD 200623
_audit_creation_date 1980-01-01
_audit_update_record 2006-04-01
_chemical_name_systematic 'Cesium lithium sulfate(VI) - I'
_chemical_formula_structural 'Cs Li (S O4)'
_chemical_formula_sum 'Cs1 Li1 O4 S1'
_chemical_name_structure_type CsLiSO4
_exptl_crystal_density_diffrn 3.44
_publ_section_title
'Crystal structures of phases I and III of cesium lithium sulfate'
loop_
_citation_id
_citation_journal_full
_citation_year
_citation_journal_volume
_citation_page_first
_citation_page_last
_citation_journal_id_ASTM
primary 'Doklady Akademii Nauk SSSR' 1979 247 1384 1387 DANKAS
loop_
_publ_author_name
'Kruglik, A.I.'
'Simonov, M.A.'
'Zhelezin, E.P.'
'Belov, N.V.'
_cell_length_a 9.456(2)
_cell_length_b 5.456(1)
_cell_length_c 8.820(3)
_cell_angle_alpha 90.
_cell_angle_beta 90.
_cell_angle_gamma 90.
_cell_volume 455.04
_cell_formula_units_Z 4
_symmetry_space_group_name_H-M 'P c m n'
_symmetry_Int_Tables_number 62
_refine_ls_R_factor_all 0.038
loop_
_symmetry_equiv_pos_site_id
_symmetry_equiv_pos_as_xyz
1 '-x+1/2, y, z+1/2'
2 'x, -y+1/2, z'
3 'x+1/2, y+1/2, -z+1/2'
4 '-x, -y, -z'
5 'x+1/2, -y, -z+1/2'
6 '-x, y+1/2, -z'
7 '-x+1/2, -y+1/2, z+1/2'
8 'x, y, z'
loop_
_atom_type_symbol
_atom_type_oxidation_number
Cs1+ 1
S6+ 6
O2- -2
Li1+ 1
loop_
_atom_site_label
_atom_site_type_symbol
_atom_site_symmetry_multiplicity
_atom_site_Wyckoff_symbol
_atom_site_fract_x
_atom_site_fract_y
_atom_site_fract_z
_atom_site_B_iso_or_equiv
_atom_site_occupancy
_atom_site_attached_hydrogens
Cs1 Cs1+ 4 c 0.28432(5) 0.75 0.99848(7) . 1. 0
S1 S6+ 4 c 0.0831(2) 0.25 0.2040(2) . 1. 0
O1 O2- 4 c 0.0940(9) 0.25 0.0412(7) . 1. 0
O2 O2- 8 d 0.0101(5) 0.0325(8) 0.2609(6) . 1. 0
O3 O2- 4 c 0.2260(6) 0.25 0.2632(9) . 1. 0
Li1 Li1+ 4 c 0.416(2) 0.25 0.331(2) . 1. 0
loop_
_atom_site_aniso_label
_atom_site_aniso_type_symbol
_atom_site_aniso_B_11
_atom_site_aniso_B_22
_atom_site_aniso_B_33
_atom_site_aniso_B_12
_atom_site_aniso_B_13
_atom_site_aniso_B_23
Cs1 Cs1+ 1.82(2) 1.79(2) 1.61(1) 0 -.04(2) 0
S1 S6+ 0.90(6) 0.83(5) 0.96(5) 0 -.13(5) 0
O1 O2- 4.3(4) 2.7(3) 0.8(2) 0 0.4(2) 0
O2 O2- 5.0(2) 1.6(2) 2.6(2) 2.1(2) 0.2(2) 0.1(1)
O3 O2- 0.5(2) 9.7(7) 5.6(5) 0 -1.1(3) 0
Li1 Li1+ 3.1(7) 3.0(7) 1.3(5) 0 -.7(6) 0
#End of TTdata_200623-ICSD