
#(C) 2018 by FIZ Karlsruhe - Leibniz Institute for Information Infrastructure.  All rights reserved.
data_200624-ICSD
_database_code_ICSD 200624
_audit_creation_date 1980-01-01
_audit_update_record 2006-04-01
_chemical_name_systematic 'Cesium lithium sulfate(VI) - III'
_chemical_formula_structural 'Cs Li (S O4)'
_chemical_formula_sum 'Cs1 Li1 O4 S1'
_chemical_name_structure_type CsLiBeF4
_exptl_crystal_density_diffrn 3.49
_publ_section_title
'Crystal structures of phases I and III of cesium lithium sulfate'
loop_
_citation_id
_citation_journal_full
_citation_year
_citation_journal_volume
_citation_page_first
_citation_page_last
_citation_journal_id_ASTM
primary 'Doklady Akademii Nauk SSSR' 1979 247 1384 1387 DANKAS
loop_
_publ_author_name
'Kruglik, A.I.'
'Simonov, M.A.'
'Zhelezin, E.P.'
'Belov, N.V.'
_cell_length_a 9.379(2)
_cell_length_b 5.423(1)
_cell_length_c 8.834(3)
_cell_angle_alpha 90.
_cell_angle_beta 90.
_cell_angle_gamma 89.45(1)
_cell_volume 449.3
_cell_formula_units_Z 4
_symmetry_space_group_name_H-M 'P 1 1 21/n'
_symmetry_Int_Tables_number 14
_refine_ls_R_factor_all 0.042
loop_
_symmetry_equiv_pos_site_id
_symmetry_equiv_pos_as_xyz
1 'x+1/2, y+1/2, -z+1/2'
2 '-x, -y, -z'
3 '-x+1/2, -y+1/2, z+1/2'
4 'x, y, z'
loop_
_atom_type_symbol
_atom_type_oxidation_number
Cs1+ 1
S6+ 6
O2- -2
Li1+ 1
loop_
_atom_site_label
_atom_site_type_symbol
_atom_site_symmetry_multiplicity
_atom_site_Wyckoff_symbol
_atom_site_fract_x
_atom_site_fract_y
_atom_site_fract_z
_atom_site_B_iso_or_equiv
_atom_site_occupancy
_atom_site_attached_hydrogens
Cs1 Cs1+ 4 e 0.28113(3) 0.75382(5) 0.99917(5) . 1. 0
S1 S6+ 4 e 0.0818(1) 0.2470(2) 0.2030(1) . 1. 0
O1 O2- 4 e 0.0851(5) 0.2491(8) 0.0379(4) . 1. 0
O2 O2- 4 e 0.9809(5) 0.0552(8) 0.2555(5) . 1. 0
O3 O2- 4 e 0.2239(5) 0.1886(9) 0.2632(6) . 1. 0
O4 O2- 4 e 0.0348(5) 0.4867(8) 0.2612(5) . 1. 0
Li1 Li1+ 4 e 0.416(1) 0.238(2) 0.327(1) . 1. 0
loop_
_atom_site_aniso_label
_atom_site_aniso_type_symbol
_atom_site_aniso_B_11
_atom_site_aniso_B_22
_atom_site_aniso_B_33
_atom_site_aniso_B_12
_atom_site_aniso_B_13
_atom_site_aniso_B_23
Cs1 Cs1+ 1.11(1) 1.05(1) 0.96(1) -.03(1) -.02(1) 0.00(1)
S1 S6+ 0.51(3) 0.48(3) 0.57(3) -.06(2) -.05(3) 0.03(3)
O1 O2- 2.6(2) 1.6(1) 0.5(9) 0.0(1) 0.1(1) 0.2(1)
O2 O2- 1.8(2) 1.2(1) 1.5(2) -.6(1) 0.7(1) -.4(1)
O3 O2- 0.9(1) 2.2(2) 2.0(2) 0.2(1) -.5(1) 0.3(2)
O4 O2- 2.1(2) 1.0(1) 1.1(1) -.03(1) -.2(1) 1.35(8)
Li1 Li1+ 1.6(4) 1.2(4) 0.8(4) 0.2(3) -.1(3) -.5(3)
#End of TTdata_200624-ICSD