
#(C) 2018 by FIZ Karlsruhe - Leibniz Institute for Information Infrastructure.  All rights reserved.
data_200984-ICSD
_database_code_ICSD 200984
_audit_creation_date 1981-12-31
_audit_update_record 2004-04-01
_chemical_name_systematic 'Potassium lithium catena-antimonate (0.1/0.9/1)'
_chemical_formula_structural '(K0.1 Li0.9) (Sb O3)'
_chemical_formula_sum 'K0.1 Li0.9 O3 Sb1'
_chemical_name_structure_type KSbO3
_exptl_crystal_density_diffrn 3.95
_publ_section_title
'Structure et proprietes de conduction du compose K0.1 Li0.9 Sb O3'
loop_
_citation_id
_citation_journal_full
_citation_year
_citation_journal_volume
_citation_page_first
_citation_page_last
_citation_journal_id_ASTM
primary 'Solid State Ionics' 1981 2 191 194 SSIOD3
loop_
_publ_author_name
'Watelet, H.'
'Picard, J.P.'
'Besse, J.P.'
'Baud, G.'
'Chevalier, R.'
_cell_length_a 9.681(3)
_cell_length_b 9.681(3)
_cell_length_c 9.681(3)
_cell_angle_alpha 90.
_cell_angle_beta 90.
_cell_angle_gamma 90.
_cell_volume 907.32
_cell_formula_units_Z 12
_symmetry_space_group_name_H-M 'P n -3 Z'
_symmetry_Int_Tables_number 201
_refine_ls_R_factor_all 0.043
loop_
_symmetry_equiv_pos_site_id
_symmetry_equiv_pos_as_xyz
1 '-z, x+1/2, y+1/2'
2 'z+1/2, x+1/2, -y'
3 'z+1/2, -x, y+1/2'
4 '-z, -x, -y'
5 'y+1/2, -z, x+1/2'
6 '-y, z+1/2, x+1/2'
7 'y+1/2, z+1/2, -x'
8 '-y, -z, -x'
9 'x+1/2, y+1/2, -z'
10 'x+1/2, -y, z+1/2'
11 '-x, y+1/2, z+1/2'
12 '-x, -y, -z'
13 'z, -x+1/2, -y+1/2'
14 '-z+1/2, -x+1/2, y'
15 '-z+1/2, x, -y+1/2'
16 'z, x, y'
17 '-y+1/2, z, -x+1/2'
18 'y, -z+1/2, -x+1/2'
19 '-y+1/2, -z+1/2, x'
20 'y, z, x'
21 '-x+1/2, -y+1/2, z'
22 '-x+1/2, y, -z+1/2'
23 'x, -y+1/2, -z+1/2'
24 'x, y, z'
loop_
_atom_type_symbol
_atom_type_oxidation_number
Sb5+ 5
Li1+ 1
K1+ 1
O2- -2
loop_
_atom_site_label
_atom_site_type_symbol
_atom_site_symmetry_multiplicity
_atom_site_Wyckoff_symbol
_atom_site_fract_x
_atom_site_fract_y
_atom_site_fract_z
_atom_site_B_iso_or_equiv
_atom_site_occupancy
_atom_site_attached_hydrogens
Sb1 Sb5+ 12 g 0.592(1) 0.75 0.25 0.26(1) 1. 0
Li1 Li1+ 4 b 0 0 0 2.0(1) 1. 0
Li2 Li1+ 8 e 0.402(9) 0.402(9) 0.402(9) 1.0(4) 0.85 0
K1 K1+ 8 e 0.402(9) 0.402(9) 0.402(9) 1.0(4) 0.15 0
O1 O2- 12 f 0.617(9) 0.25 0.25 0.2(1) 1. 0
O2 O2- 24 h 0.260(8) 0.599(7) 0.543(7) 0.2(1) 1. 0
#End of TTdata_200984-ICSD