
#(C) 2017 by FIZ Karlsruhe - Leibniz Institute for Information Infrastructure.  All rights reserved.
data_20136-ICSD
_database_code_ICSD 20136
_audit_creation_date 1980-01-01
_audit_update_record 2003-10-01
_chemical_name_systematic 'Lithium chloride dideuteriohydrate'
_chemical_formula_structural 'Li Cl (D2 O)'
_chemical_formula_sum 'D2 Cl1 Li1 O1'
_exptl_crystal_density_diffrn 1.84
_publ_section_title

;
The study of the crystal structure of the crystalline hydrates of salts of
lithium. the study of the water molecule state in the lithium chloride hydrate
Li Cl D2 O by neutron diffraction and nuclear magnetic resonance
;
loop_
_citation_id
_citation_journal_full
_citation_year
_citation_journal_volume
_citation_page_first
_citation_page_last
_citation_journal_id_ASTM
primary Kristallografiya 1971 16 631 634 KRISAJ
loop_
_publ_author_name
'Datt, I.D.'
'Rannev, N.V.'
'Ozerov, R.P.'
'Kuznets, V.M.'
_cell_length_a 3.81
_cell_length_b 3.81
_cell_length_c 3.88
_cell_angle_alpha 90.
_cell_angle_beta 90.
_cell_angle_gamma 90.
_cell_volume 56.32
_cell_formula_units_Z 1
_symmetry_space_group_name_H-M 'P 4/m m m'
_symmetry_Int_Tables_number 123
_refine_ls_R_factor_all 0.157
loop_
_symmetry_equiv_pos_site_id
_symmetry_equiv_pos_as_xyz
1 'y, x, -z'
2 '-y, -x, -z'
3 '-y, x, -z'
4 'y, -x, -z'
5 '-x, y, -z'
6 'x, -y, -z'
7 'x, y, -z'
8 '-x, -y, -z'
9 '-y, -x, z'
10 'y, x, z'
11 'y, -x, z'
12 '-y, x, z'
13 'x, -y, z'
14 '-x, y, z'
15 '-x, -y, z'
16 'x, y, z'
loop_
_atom_type_symbol
_atom_type_oxidation_number
Cl1- -1
O2- -2
D1+ 1
Li1+ 1
loop_
_atom_site_label
_atom_site_type_symbol
_atom_site_symmetry_multiplicity
_atom_site_Wyckoff_symbol
_atom_site_fract_x
_atom_site_fract_y
_atom_site_fract_z
_atom_site_B_iso_or_equiv
_atom_site_occupancy
_atom_site_attached_hydrogens
Cl1 Cl1- 1 a 0 0 0 1.33 1. 0
O1 O2- 1 d 0.5 0.5 0.5000(15) 1.43 1. 0
D1 D1+ 8 r 0.333(4) 0.333(4) 0.329(4) 1.9 0.25 0
Li1 Li1+ 2 e 0 0.5 0.5 6.2 0.5 0
#End of TTdata_20136-ICSD