
#(C) 2018 by FIZ Karlsruhe - Leibniz Institute for Information Infrastructure.  All rights reserved.
data_201390-ICSD
_database_code_ICSD 201390
_audit_creation_date 1982-12-31
_chemical_name_systematic 'Lithium cerium molybdate'
_chemical_formula_structural 'Li Ce (Mo O4)2'
_chemical_formula_sum 'Ce1 Li1 Mo2 O8'
_chemical_name_structure_type Scheelite-CaWO4
_exptl_crystal_density_diffrn 4.8
_publ_section_title 'The crystal structure of Li Ce (Mo O4)2'
loop_
_citation_id
_citation_journal_full
_citation_year
_citation_journal_volume
_citation_page_first
_citation_page_last
_citation_journal_id_ASTM
primary 'Izvestiya Akademii Nauk SSSR, Neorganicheskie Materialy' 1982 18 2036
2038 IVNMAW
loop_
_publ_author_name
'Egorova, A.N.'
'Maier, A.A.'
'Nevskii, N.N.'
'Provotorov, M.V.'
_cell_length_a 5.284(1)
_cell_length_b 5.284(1)
_cell_length_c 11.563(5)
_cell_angle_alpha 90.
_cell_angle_beta 90.
_cell_angle_gamma 90.
_cell_volume 322.85
_cell_formula_units_Z 2
_symmetry_space_group_name_H-M 'I 41/a Z'
_symmetry_Int_Tables_number 88
_refine_ls_R_factor_all 0.028
loop_
_symmetry_equiv_pos_site_id
_symmetry_equiv_pos_as_xyz
1 '-y+3/4, x+3/4, -z+3/4'
2 'y+1/4, -x+3/4, -z+3/4'
3 'x, y+1/2, -z'
4 '-x, -y, -z'
5 'y+1/4, -x+1/4, z+1/4'
6 '-y+3/4, x+1/4, z+1/4'
7 '-x, -y+1/2, z'
8 'x, y, z'
9 '-y+1/4, x+1/4, -z+1/4'
10 'y+3/4, -x+1/4, -z+1/4'
11 'x+1/2, y, -z+1/2'
12 '-x+1/2, -y+1/2, -z+1/2'
13 'y+3/4, -x+3/4, z+3/4'
14 '-y+1/4, x+3/4, z+3/4'
15 '-x+1/2, -y, z+1/2'
16 'x+1/2, y+1/2, z+1/2'
loop_
_atom_type_symbol
_atom_type_oxidation_number
O2- -2
Li1+ 1
Ce3+ 3
Mo6+ 6
loop_
_atom_site_label
_atom_site_type_symbol
_atom_site_symmetry_multiplicity
_atom_site_Wyckoff_symbol
_atom_site_fract_x
_atom_site_fract_y
_atom_site_fract_z
_atom_site_B_iso_or_equiv
_atom_site_occupancy
_atom_site_attached_hydrogens
O1 O2- 16 f 0.1457(8) 0.0087(9) 0.2087(4) . 1. 0
Li1 Li1+ 4 b 0 0.25 0.625 . 0.5 0
Ce1 Ce3+ 4 b 0 0.25 0.625 . 0.5 0
Mo1 Mo6+ 4 a 0 0.25 0.125 . 1. 0
loop_
_atom_site_aniso_label
_atom_site_aniso_type_symbol
_atom_site_aniso_beta_11
_atom_site_aniso_beta_22
_atom_site_aniso_beta_33
_atom_site_aniso_beta_12
_atom_site_aniso_beta_13
_atom_site_aniso_beta_23
O1 O2- 0.0068(13) 0.0090(14) 0.0017(3) 0.0020(24) 0.0009(12) -.0004(11)
Li1 Li1+ 0.0059(76) 0.0059(76) 0.00116(8) 0 0 0
Ce1 Ce3+ 0.0059(76) 0.0059(76) 0.00116(8) 0 0 0
Mo1 Mo6+ 0.0067(60) 0.0067(60) 0.00179(8) 0 0 0
#End of TTdata_201390-ICSD