
#(C) 2018 by FIZ Karlsruhe - Leibniz Institute for Information Infrastructure.  All rights reserved.
data_20155-ICSD
_database_code_ICSD 20155
_audit_creation_date 1981-12-31
_audit_update_record 2012-08-01
_chemical_name_systematic 'Trilithium dihydroxooctaoxopentaborate'
_chemical_formula_structural 'Li3 (B5 O8 (O H)2)'
_chemical_formula_sum 'H2 B5 Li3 O10'
_exptl_crystal_density_diffrn 2.3
_publ_section_title
'The deformation electronic density in lithium borate Li3 B5 O8 (O H)2'
loop_
_citation_id
_citation_journal_full
_citation_year
_citation_journal_volume
_citation_page_first
_citation_page_last
_citation_journal_id_ASTM
primary 'Doklady Akademii Nauk SSSR' 1981 257 111 114 DANKAS
loop_
_publ_author_name
'Sheviren, A.A.'
'Muradyan, L.A.'
'Simonov, V.I.'
'Egorov Tismenko, Yu.K.'
'Simonov, M.A.'
'Belov, N.V.'
_cell_length_a 6.848(2)
_cell_length_b 6.848(2)
_cell_length_c 14.564(6)
_cell_angle_alpha 90.
_cell_angle_beta 90.
_cell_angle_gamma 90.
_cell_volume 682.98
_cell_formula_units_Z 4
_symmetry_space_group_name_H-M 'P 41 21 2'
_symmetry_Int_Tables_number 92
loop_
_symmetry_equiv_pos_site_id
_symmetry_equiv_pos_as_xyz
1 'x+1/2, -y+1/2, -z+3/4'
2 '-x+1/2, y+1/2, -z+1/4'
3 '-y, -x, -z+1/2'
4 'y, x, -z'
5 'y+1/2, -x+1/2, z+3/4'
6 '-y+1/2, x+1/2, z+1/4'
7 '-x, -y, z+1/2'
8 'x, y, z'
loop_
_atom_type_symbol
_atom_type_oxidation_number
O2- -2
B3+ 3
Li1+ 1
H1+ 1
loop_
_atom_site_label
_atom_site_type_symbol
_atom_site_symmetry_multiplicity
_atom_site_Wyckoff_symbol
_atom_site_fract_x
_atom_site_fract_y
_atom_site_fract_z
_atom_site_B_iso_or_equiv
_atom_site_occupancy
_atom_site_attached_hydrogens
O1 O2- 8 b 0.1449(2) 0.0954(2) 0.26959(8) . 1. 0
O2 O2- 8 b 0.1917(2) 0.4500(2) 0.27081(7) . 1. 0
O3 O2- 8 b 0.4603(2) 0.2337(2) 0.23786(8) . 1. 0
O4 O2- 8 b 0.3241(2) 0.3731(2) 0.41789(7) . 1. 0
O5 O2- 8 b 0.1975(2) 0.2796(2) 0.12945(6) . 1. 0
B1 B3+ 8 b 0.2479(2) 0.2606(2) 0.22741(9) . 1. 0
B2 B3+ 8 b 0.0066(2) 0.2534(2) 0.10688(9) . 1. 0
B3 B3+ 4 a 0.5625(2) 0.5625(2) 0 . 1. 0
Li1 Li1+ 8 b 0.1354(7) 0.1504(6) 0.4069(3) . 1. 0
Li2 Li1+ 4 a 0.3038(7) 0.3038(6) 0 . 1. 0
H1 H1+ 8 b 0.377(4) -.015(3) 0.482(2) 2.97 1. 0
loop_
_atom_site_aniso_label
_atom_site_aniso_type_symbol
_atom_site_aniso_beta_11
_atom_site_aniso_beta_22
_atom_site_aniso_beta_33
_atom_site_aniso_beta_12
_atom_site_aniso_beta_13
_atom_site_aniso_beta_23
O1 O2- 0.0026(1) 0.0035(1) 0.00071(2) -.0006(1) 0.0003(1) -.0002(1)
O2 O2- 0.0052(1) 0.0035(1) 0.00054(2) 0.0009(1) -.0005(1) 0.0006(1)
O3 O2- 0.0024(1) 0.0048(1) 0.00097(3) -.0001(1) -.0002(1) -.0002(1)
O4 O2- 0.0049(1) 0.0024(1) 0.00063(2) -.0007(1) -.0002(1) 0.0001(1)
O5 O2- 0.0025(1) 0.0056(1) 0.00047(2) -.0009(1) 0.0001(1) -.0001(1)
B1 B3+ 0.0024(2) 0.0033(2) 0.00055(3) -.0002(2) 0.0000(1) -.0002(1)
B2 B3+ 0.0028(2) 0.0031(2) 0.00051(3) -.0005(2) 0.0002(1) -.0001(1)
B3 B3+ 0.0029(2) 0.0029(2) 0.00043(4) 0.0002(2) -.0002(1) 0.0002(1)
Li1 Li1+ 0.0084(6) 0.0057(5) 0.00116(10) -.0011(5) 0.0004(2) 0.0008(3)
Li2 Li1+ 0.0081(6) 0.0081(5) 0.00098(13) -.0017(9) -.0007(2) 0.0007(3)
#End of TTdata_20155-ICSD