
#(C) 2018 by FIZ Karlsruhe - Leibniz Institute for Information Infrastructure.  All rights reserved.
data_201532-ICSD
_database_code_ICSD 201532
_audit_creation_date 1985-07-17
_audit_update_record 1985-07-27
_chemical_name_systematic 'Dilithium sulfate monohydrate'
_chemical_formula_structural 'Li2 S O4 (H2 O)'
_chemical_formula_sum 'H2 Li2 O5 S1'
_chemical_name_structure_type Li2SO4H2O
_exptl_crystal_density_diffrn 2.08
_cell_measurement_temperature 20.
_publ_section_title

;
Neutron diffraction structural study of pyroelectric Li2 S O4*H2 O at 293,80,
and 20 K
;
loop_
_citation_id
_citation_journal_full
_citation_year
_citation_journal_volume
_citation_page_first
_citation_page_last
_citation_journal_id_ASTM
primary 'Journal of Chemical Physics' 1984 80 423 430 JCPSA6
loop_
_publ_author_name
'Lundgren, J.O.'
'Kvick, A.'
'Karppinen, M.'
'Liminga, R.'
'Abrahams, S.C.'
_cell_length_a 5.449(2)
_cell_length_b 4.832(2)
_cell_length_c 8.137(2)
_cell_angle_alpha 90.
_cell_angle_beta 107.19(1)
_cell_angle_gamma 90.
_cell_volume 204.67
_cell_formula_units_Z 2
_symmetry_space_group_name_H-M 'P 1 21 1'
_symmetry_Int_Tables_number 4
_refine_ls_R_factor_all 0.014
loop_
_symmetry_equiv_pos_site_id
_symmetry_equiv_pos_as_xyz
1 '-x, y+1/2, -z'
2 'x, y, z'
loop_
_atom_type_symbol
_atom_type_oxidation_number
Li1+ 1
S6+ 6
O2- -2
H1+ 1
loop_
_atom_site_label
_atom_site_type_symbol
_atom_site_symmetry_multiplicity
_atom_site_Wyckoff_symbol
_atom_site_fract_x
_atom_site_fract_y
_atom_site_fract_z
_atom_site_B_iso_or_equiv
_atom_site_occupancy
_atom_site_attached_hydrogens
Li1 Li1+ 2 a 0.30310(23) 0.49638(37) 0.99259(17) . 1. 0
Li2 Li1+ 2 a 0.56046(24) 0.48968(39) 0.39524(17) . 1. 0
S1 S6+ 2 a 0.29229(14) 0 0.20805(10) . 1. 0
O1 O2- 2 a 0.02087(8) 0.07409(23) 0.17122(5) . 1. 0
O2 O2- 2 a 0.43724(7) 0.11111(23) 0.37857(5) . 1. 0
O3 O2- 2 a 0.39807(7) 0.12076(23) 0.07634(5) . 1. 0
O4 O2- 2 a 0.32462(8) 0.69627(21) 0.20975(6) . 1. 0
O5 O2- 2 a 0.91365(8) 0.46436(24) 0.40379(6) . 1. 0
H1 H1+ 2 a 0.97067(20) 0.38995(36) 0.31142(14) . 1. 0
H2 H1+ 2 a 0.00673(20) 0.63149(34) 0.44573(16) . 1. 0
loop_
_atom_site_aniso_label
_atom_site_aniso_type_symbol
_atom_site_aniso_U_11
_atom_site_aniso_U_22
_atom_site_aniso_U_33
_atom_site_aniso_U_12
_atom_site_aniso_U_13
_atom_site_aniso_U_23
Li1 Li1+ 0.00724(44) 0.00809(59) 0.00820(48) -.00037(42) 0.00238(39) 0.00000(48)
Li2 Li1+ 0.00762(42) 0.00741(60) 0.00766(46) -.00032(41) 0.00160(37) -.00018(46)
S1 S6+ 0.00227(27) 0.00318(37) 0.0029(3) 0.00011(25) 0.00078(24) -.00015(28)
O1 O2- 0.00299(13) 0.00651(21) 0.00583(14) 0.00072(14) 0.00093(11) -.00033(15)
O2 O2- 0.00510(13) 0.00481(18) 0.00374(14) -.00110(14) 0.00069(11) -.00066(14)
O3 O2- 0.00527(13) 0.00504(19) 0.00482(15) 0.00047(14) 0.00283(12) 0.00119(15)
O4 O2- 0.00605(14) 0.00309(18) 0.00526(16) 0.00033(13) 0.00155(12) -.00017(14)
O5 O2- 0.00634(16) 0.00834(21) 0.00917(17) -.00015(15) 0.00333(13) -.00076(17)
H1 H1+ 0.02665(44) 0.03706(69) 0.02156(40) 0.00297(46) 0.01368(36) -.00653(46)
H2 H1+ 0.02439(41) 0.02129(52) 0.03580(52) -.00987(41) 0.00815(39) -.00639(47)
#End of TTdata_201532-ICSD