
#(C) 2018 by FIZ Karlsruhe - Leibniz Institute for Information Infrastructure.  All rights reserved.
data_20173-ICSD
_database_code_ICSD 20173
_audit_creation_date 1980-01-01
_audit_update_record 1987-11-11
_chemical_name_systematic 'Lithium borate hydroxide'
_chemical_formula_structural 'Li3 (B5 O8 (O H)2)'
_chemical_formula_sum 'H2 B5 Li3 O10'
_exptl_crystal_density_diffrn 2.31
_publ_section_title 'The crystal structure of the Li-borate Li3 (B5 O8 (O H)2)'
loop_
_citation_id
_citation_journal_full
_citation_year
_citation_journal_volume
_citation_page_first
_citation_page_last
_citation_journal_id_ASTM
primary 'Doklady Akademii Nauk SSSR' 1978 243 641 644 DANKAS
loop_
_publ_author_name
'Bondareva, O.S.'
'Egorov Tismenko, Yu.K.'
'Simonov, M.A.'
'Belov, N.V.'
_cell_length_a 6.845(2)
_cell_length_b 6.845(2)
_cell_length_c 14.552(6)
_cell_angle_alpha 90.
_cell_angle_beta 90.
_cell_angle_gamma 90.
_cell_volume 681.82
_cell_formula_units_Z 4
_symmetry_space_group_name_H-M 'P 41 21 2'
_symmetry_Int_Tables_number 92
_refine_ls_R_factor_all 0.046
loop_
_symmetry_equiv_pos_site_id
_symmetry_equiv_pos_as_xyz
1 'x+1/2, -y+1/2, -z+3/4'
2 '-x+1/2, y+1/2, -z+1/4'
3 '-y, -x, -z+1/2'
4 'y, x, -z'
5 'y+1/2, -x+1/2, z+3/4'
6 '-y+1/2, x+1/2, z+1/4'
7 '-x, -y, z+1/2'
8 'x, y, z'
loop_
_atom_type_symbol
_atom_type_oxidation_number
O2- -2
B3+ 3
Li1+ 1
H1+ 1
loop_
_atom_site_label
_atom_site_type_symbol
_atom_site_symmetry_multiplicity
_atom_site_Wyckoff_symbol
_atom_site_fract_x
_atom_site_fract_y
_atom_site_fract_z
_atom_site_B_iso_or_equiv
_atom_site_occupancy
_atom_site_attached_hydrogens
O1 O2- 8 b 0.1445(3) 0.0950(3) 0.2699(1) . 1. 0
O2 O2- 8 b 0.1923(3) 0.4505(3) 0.2709(1) . 1. 0
O3 O2- 8 b 0.4600(3) 0.2346(3) 0.2375(1) . 1. 0
O4 O2- 8 b 0.3242(3) 0.3732(3) 0.4177(1) . 1. 0
O5 O2- 8 b 0.1970(3) 0.2796(3) 0.1294(1) . 1. 0
B1 B3+ 8 b 0.2475(6) 0.2600(4) 0.2274(2) . 1. 0
B2 B3+ 8 b 0.0059(5) 0.2529(4) 0.1068(2) . 1. 0
B3 B3+ 4 a 0.5628 0.5628(4) 0 . 1. 0
Li1 Li1+ 8 b 0.1370(8) 0.1496(8) 0.4067(3) . 1. 0
Li2 Li1+ 4 a 0.3034(10) 0.3034(8) 0 . 1. 0
H1 H1+ 8 b 0.380(5) -.012(5) 0.484(2) 2.5 1. 0
loop_
_atom_site_aniso_label
_atom_site_aniso_type_symbol
_atom_site_aniso_beta_11
_atom_site_aniso_beta_22
_atom_site_aniso_beta_33
_atom_site_aniso_beta_12
_atom_site_aniso_beta_13
_atom_site_aniso_beta_23
O1 O2- 0.59(7) 0.85(7) 0.71(6) -.13(5) -.20(6) 0.06(6)
O2 O2- 1.06(7) 0.72(7) 0.67(6) 0.27(6) -.26(6) -.1(7)
O3 O2- 0.52(7) 1.06(8) 1.08(6) 0.04(5) -.11(6) -.02(7)
O4 O2- 1.07(7) 0.54(7) 0.54(5) -.02(6) -.26(5) 0.06(5)
O5 O2- 0.57(6) 1.08(7) 0.55(5) -.15(6) 0.02(5) 0.03(5)
B1 B3+ 0.8(1) 0.7(1) 0.59(7) 0.07(7) 0.03(8) -.11(8)
B2 B3+ 0.8(1) 0.48(9) 0.64(7) 0.01(8) -.01(8) 0.05(8)
B3 B3+ 0.6 0.66(9) 0.3(1) -.1(1) 0.06(7) -.06
Li1 Li1+ 1.9(2) 1.3(2) 1.1(2) -.1(2) 0.1(2) 0.2(2)
Li2 Li1+ 1.92 1.9(2) 1.3(3) -.8(3) 0.3(2) -.29
#End of TTdata_20173-ICSD