
#(C) 2017 by FIZ Karlsruhe - Leibniz Institute for Information Infrastructure.  All rights reserved.
data_201996-ICSD
_database_code_ICSD 201996
_audit_creation_date 1988-12-19
_audit_update_record 1988-12-29
_chemical_name_systematic 'Lithium dithulium pentachloride'
_chemical_formula_structural 'Li Tm2 Cl5'
_chemical_formula_sum 'Cl5 Li1 Tm2'
_chemical_name_structure_type FeU2S5
_exptl_crystal_density_diffrn 4.9
_publ_section_title

;
The metallothermic reduction of several rare-earth trichlorides with lithium
and sodium
;
loop_
_citation_id
_citation_journal_full
_citation_year
_citation_journal_volume
_citation_page_first
_citation_page_last
_citation_journal_id_ASTM
primary 'Journal of the Less-Common Metals' 1986 116 187 197 JCOMAH
loop_
_publ_author_name
'Meyer, G.'
'Schleid, T.'
_cell_length_a 15.291
_cell_length_b 6.508
_cell_length_c 7.151
_cell_angle_alpha 90.
_cell_angle_beta 95.54
_cell_angle_gamma 90.
_cell_volume 708.3
_cell_formula_units_Z 4
_symmetry_space_group_name_H-M 'C 1 2/c 1'
_symmetry_Int_Tables_number 15
_refine_ls_R_factor_all 0.059
loop_
_symmetry_equiv_pos_site_id
_symmetry_equiv_pos_as_xyz
1 'x, -y, z+1/2'
2 '-x, -y, -z'
3 '-x, y, -z+1/2'
4 'x, y, z'
5 'x+1/2, -y+1/2, z+1/2'
6 '-x+1/2, -y+1/2, -z'
7 '-x+1/2, y+1/2, -z+1/2'
8 'x+1/2, y+1/2, z'
loop_
_atom_type_symbol
_atom_type_oxidation_number
Li1+ 1
Tm2+ 2
Cl1- -1
loop_
_atom_site_label
_atom_site_type_symbol
_atom_site_symmetry_multiplicity
_atom_site_Wyckoff_symbol
_atom_site_fract_x
_atom_site_fract_y
_atom_site_fract_z
_atom_site_B_iso_or_equiv
_atom_site_occupancy
_atom_site_attached_hydrogens
Li1 Li1+ 4 c 0.25 0.25 0 0.019(7) 1. 0
Tm1 Tm2+ 8 f 0.39644(4) 0.27253(9) 0.43239(9) . 1. 0
Cl1 Cl1- 8 f 0.2196(2) 0.0695(5) 0.3148(5) . 1. 0
Cl2 Cl1- 8 f 0.4086(2) 0.1226(5) 0.0733(5) . 1. 0
Cl3 Cl1- 4 e 0 0.0682(7) 0.25 . 1. 0
loop_
_atom_site_aniso_label
_atom_site_aniso_type_symbol
_atom_site_aniso_U_11
_atom_site_aniso_U_22
_atom_site_aniso_U_33
_atom_site_aniso_U_12
_atom_site_aniso_U_13
_atom_site_aniso_U_23
Tm1 Tm2+ 0.0121(3) 0.0177(3) 0.0113(3) -.0017(2) 0.0003(2) -.0007(2)
Cl1 Cl1- 0.0105(13) 0.0203(14) 0.0139(15) 0.0005(10) 0.0006(11) -.0004(11)
Cl2 Cl1- 0.0140(14) 0.0209(15) 0.0141(15) -.0015(11) -.0044(11) -.0044(11)
Cl3 Cl1- 0.0082(1) 0.0178(19) 0.0138(21) 0 -.0021(15) 0
#End of TTdata_201996-ICSD