
#(C) 2018 by FIZ Karlsruhe - Leibniz Institute for Information Infrastructure.  All rights reserved.
data_202190-ICSD
_database_code_ICSD 202190
_audit_creation_date 1988-12-19
_audit_update_record 1997-05-13
_chemical_name_systematic 'Lithium molybdenum oxide (.9/6/17)'
_chemical_formula_structural 'Li.9 Mo6 O17'
_chemical_formula_sum 'Li0.9 Mo6 O17'
_chemical_name_structure_type Li1-xMo6O17
_exptl_crystal_density_diffrn 4.24
_publ_section_title
'Crystal structure of lithium molybdenum purple bronze Li0.9 Mo6 O17'
loop_
_citation_id
_citation_journal_full
_citation_year
_citation_journal_volume
_citation_page_first
_citation_page_last
_citation_journal_id_ASTM
primary 'Journal of Solid State Chemistry' 1987 66 163 170 JSSCBI
loop_
_publ_author_name
'Onoda, M.'
'Toriumi, K.'
'Matsuda, Y.'
'Sato, M.'
_cell_length_a 12.762(2)
_cell_length_b 5.523(1)
_cell_length_c 9.499(1)
_cell_angle_alpha 90.
_cell_angle_beta 90.61(1)
_cell_angle_gamma 90.
_cell_volume 669.49
_cell_formula_units_Z 2
_symmetry_space_group_name_H-M 'P 1 21/m 1'
_symmetry_Int_Tables_number 11
_refine_ls_R_factor_all 0.033
loop_
_symmetry_equiv_pos_site_id
_symmetry_equiv_pos_as_xyz
1 'x, -y+1/2, z'
2 '-x, -y, -z'
3 '-x, y+1/2, -z'
4 'x, y, z'
loop_
_atom_type_symbol
_atom_type_oxidation_number
Mo5+ 5.52
O2- -2
Li1+ 1
loop_
_atom_site_label
_atom_site_type_symbol
_atom_site_symmetry_multiplicity
_atom_site_Wyckoff_symbol
_atom_site_fract_x
_atom_site_fract_y
_atom_site_fract_z
_atom_site_B_iso_or_equiv
_atom_site_occupancy
_atom_site_attached_hydrogens
Mo1 Mo5+ 2 e -.00613(2) 0.25 0.23356(3) . 1. 0
Mo2 Mo5+ 2 e 0.14436(3) 0.75 0.41840(3) . 1. 0
Mo3 Mo5+ 2 e 0.31105(2) 0.25 0.56755(3) . 1. 0
Mo4 Mo5+ 2 e 0.16635(3) 0.25 -.07938(3) . 1. 0
Mo5 Mo5+ 2 e 0.31980(2) 0.75 0.09404(3) . 1. 0
Mo6 Mo5+ 2 e 0.49299(2) 0.25 0.19604(3) . 1. 0
O1 O2- 2 e 0.09143(23) 0.25 0.08766(32) . 1. 0
O2 O2- 2 e 0.54289(25) 0.25 0.02127(32) . 1. 0
O3 O2- 2 e 0.59382(24) 0.25 0.31731(37) . 1. 0
O4 O2- 2 e 0.89915(26) 0.25 0.40477(33) . 1. 0
O5 O2- 2 e 0.23138(24) 0.75 0.23518(35) . 1. 0
O6 O2- 2 e 0.73940(28) 0.75 0.25932(35) . 1. 0
O7 O2- 2 e 0.55358(22) 0.75 0.43731(32) . 1. 0
O8 O2- 4 f 0.07260(16) 0.50315(32) 0.34471(22) . 1. 0
O9 O2- 4 f 0.41409(16) 0.51425(34) 0.22288(23) . 1. 0
O10 O2- 4 f 0.26955(15) 0.50185(32) -.00383(21) . 1. 0
O11 O2- 4 f 0.91393(15) 0.49998(31) 0.15323(20) . 1. 0
O12 O2- 4 f 0.26811(16) 0.51287(35) 0.47264(23) . 1. 0
Li1 Li1+ 2 e 0.40240(83) 0.75 0.4090(15) . 0.9 0
loop_
_atom_site_aniso_label
_atom_site_aniso_type_symbol
_atom_site_aniso_U_11
_atom_site_aniso_U_22
_atom_site_aniso_U_33
_atom_site_aniso_U_12
_atom_site_aniso_U_13
_atom_site_aniso_U_23
Mo1 Mo5+ 0.0065(2) 0.0050(2) 0.0047(2) 0 0.0000(1) 0
Mo2 Mo5+ 0.0053(2) 0.0051(2) 0.0047(2) 0 0.0001(1) 0
Mo3 Mo5+ 0.0066(2) 0.0066(2) 0.0055(2) 0 0.0003(1) 0
Mo4 Mo5+ 0.0062(1) 0.0049(2) 0.0050(2) 0 0.0000(1) 0
Mo5 Mo5+ 0.0054(2) 0.0052(1) 0.0053(2) 0 0.0003(1) 0
Mo6 Mo5+ 0.0061(2) 0.0065(1) 0.0086(2) 0 0.0002(1) 0
O1 O2- 0.0089(10) 0.0100(11) 0.0063(10) 0 0.0033(8) 0
O2 O2- 0.0168(13) 0.0121(11) 0.0089(11) 0 0.007(1) 0
O3 O2- 0.0138(12) 0.0189(13) 0.0221(15) 0 -.0058(11) 0
O4 O2- 0.0128(11) 0.0143(11) 0.006(1) 0 0.0027(8) 0
O5 O2- 0.0102(11) 0.0131(11) 0.0115(11) 0 0.0055(9) 0
O6 O2- 0.0190(14) 0.0162(12) 0.0091(11) 0 0.0049(10) 0
O7 O2- 0.0104(11) 0.0133(11) 0.0147(12) 0 -.0012(9) 0
O8 O2- 0.0115(8) 0.0091(7) 0.0109(7) -.0041(6) -.0011(6) -.0017(6)
O9 O2- 0.0121(8) 0.0128(8) 0.0120(8) 0.0044(6) -.0017(6) 0.0004(7)
O10 O2- 0.0117(8) 0.0097(7) 0.0128(8) -.0030(7) -.0009(7) -.0030(7)
O11 O2- 0.0108(8) 0.0088(7) 0.0087(7) 0.0032(7) -.0011(6) 0.0015(7)
O12 O2- 0.0132(8) 0.0128(8) 0.0138(8) 0.0046(7) -.0015(7) 0.0006(7)
Li1 Li1+ 0.0109(35) 0.0429(57) 0.0381(56) 0 -.0020(35) 0
#End of TTdata_202190-ICSD