
#(C) 2018 by FIZ Karlsruhe - Leibniz Institute for Information Infrastructure.  All rights reserved.
data_202363-ICSD
_database_code_ICSD 202363
_audit_creation_date 1988-05-17
_audit_update_record 2011-02-01
_chemical_name_systematic 'Dilithium trioxopraseodymate(IV)'
_chemical_formula_structural 'Li2 Pr O3'
_chemical_formula_sum 'Li2 O3 Pr1'
_chemical_name_structure_type Li2PrO3
_exptl_crystal_density_diffrn 4.52
_publ_section_title 'Ein neues Oxopraseodymat(IV): Li2 Pr O3'
loop_
_citation_id
_citation_journal_full
_citation_year
_citation_journal_volume
_citation_page_first
_citation_page_last
_citation_journal_id_ASTM
primary 'Journal of Solid State Chemistry' 1987 70 12 18 JSSCBI
loop_
_publ_author_name
'von Wolf, R.'
'Hoppe, R.'
_cell_length_a 9.5737(10)
_cell_length_b 4.4530(4)
_cell_length_c 3.4944(3)
_cell_angle_alpha 90.
_cell_angle_beta 90.
_cell_angle_gamma 90.
_cell_volume 148.97
_cell_formula_units_Z 2
_symmetry_space_group_name_H-M 'C m m m'
_symmetry_Int_Tables_number 65
_refine_ls_R_factor_all 0.0178
loop_
_symmetry_equiv_pos_site_id
_symmetry_equiv_pos_as_xyz
1 'x, -y, z'
2 '-x, y, z'
3 'x, y, -z'
4 '-x, -y, -z'
5 '-x, y, -z'
6 'x, -y, -z'
7 '-x, -y, z'
8 'x, y, z'
9 'x+1/2, -y+1/2, z'
10 '-x+1/2, y+1/2, z'
11 'x+1/2, y+1/2, -z'
12 '-x+1/2, -y+1/2, -z'
13 '-x+1/2, y+1/2, -z'
14 'x+1/2, -y+1/2, -z'
15 '-x+1/2, -y+1/2, z'
16 'x+1/2, y+1/2, z'
loop_
_atom_type_symbol
_atom_type_oxidation_number
Pr4+ 4
Li1+ 1
O2- -2
loop_
_atom_site_label
_atom_site_type_symbol
_atom_site_symmetry_multiplicity
_atom_site_Wyckoff_symbol
_atom_site_fract_x
_atom_site_fract_y
_atom_site_fract_z
_atom_site_B_iso_or_equiv
_atom_site_occupancy
_atom_site_attached_hydrogens
Pr1 Pr4+ 2 a 0 0 0 . 1. 0
Li1 Li1+ 4 h 0.6595(14) 0 0.5 . 1. 0
O1 O2- 4 h 0.8569(6) 0 0.5 . 1. 0
O2 O2- 2 b 0.5 0 0 . 1. 0
loop_
_atom_site_aniso_label
_atom_site_aniso_type_symbol
_atom_site_aniso_U_11
_atom_site_aniso_U_22
_atom_site_aniso_U_33
_atom_site_aniso_U_12
_atom_site_aniso_U_13
_atom_site_aniso_U_23
Pr1 Pr4+ 0.0106(3) 0.0044(3) 0.0059(3) 0 0 0
Li1 Li1+ 0.0100(33) 0.0277(35) 0.0341(36) 0 0 0
O1 O2- 0.0113(21) 0.0186(23) 0.0129(23) 0 0 0
O2 O2- 0.0309(30) 0.0090(26) 0.0158(29) 0 0 0
#End of TTdata_202363-ICSD