
#(C) 2018 by FIZ Karlsruhe - Leibniz Institute for Information Infrastructure.  All rights reserved.
data_202326-ICSD
_database_code_ICSD 202326
_audit_creation_date 1988-12-19
_chemical_name_systematic 'Tetralithium pentaoxotellurate'
_chemical_formula_structural 'Li4 Te O5'
_chemical_formula_sum 'Li4 O5 Te1'
_chemical_name_structure_type Li4TeO5
_exptl_crystal_density_diffrn 4.29
_publ_section_title

;
Ein neues Oxotellurat, Na4 Te O5, und eine Revision der Struktur von Li4 Te O5
;
loop_
_citation_id
_citation_journal_full
_citation_year
_citation_journal_volume
_citation_page_first
_citation_page_last
_citation_journal_id_ASTM
primary 'Journal of the Less-Common Metals' 1987 132 79 92 JCOMAH
loop_
_publ_author_name
'Untenecker, H.'
'Hoppe, R.'
_cell_length_a 5.175(3)
_cell_length_b 7.749(5)
_cell_length_c 5.098(2)
_cell_angle_alpha 101.86(5)
_cell_angle_beta 102.02(5)
_cell_angle_gamma 107.75(6)
_cell_volume 182.32
_cell_formula_units_Z 2
_symmetry_space_group_name_H-M 'P -1'
_symmetry_Int_Tables_number 2
_refine_ls_R_factor_all 0.038
loop_
_symmetry_equiv_pos_site_id
_symmetry_equiv_pos_as_xyz
1 '-x, -y, -z'
2 'x, y, z'
loop_
_atom_type_symbol
_atom_type_oxidation_number
Te6+ 6
Li1+ 1
O2- -2
loop_
_atom_site_label
_atom_site_type_symbol
_atom_site_symmetry_multiplicity
_atom_site_Wyckoff_symbol
_atom_site_fract_x
_atom_site_fract_y
_atom_site_fract_z
_atom_site_B_iso_or_equiv
_atom_site_occupancy
_atom_site_attached_hydrogens
Te1 Te6+ 2 i 0.2090(1) 0.2112(1) 0.1084(1) . 1. 0
Li1 Li1+ 1 c 0 0.5 0 . 1. 0
Li2 Li1+ 1 b 0 0 0.5 . 1. 0
Li3 Li1+ 2 i 0.3982(8) 0.8875(7) 0.2256(8) . 1. 0
Li4 Li1+ 2 i 0.6110(9) 0.6001(7) 0.2885(9) . 1. 0
Li5 Li1+ 2 i 0.8036(8) 0.3180(7) 0.4247(9) . 1. 0
O1 O2- 2 i 0.5561(5) 0.3277(4) 0.0495(6) . 1. 0
O2 O2- 2 i 0.8327(5) 0.0436(4) 0.1323(5) . 1. 0
O3 O2- 2 i 0.9898(5) 0.7516(4) 0.2164(6) . 1. 0
O4 O2- 2 i 0.1819(5) 0.4251(4) 0.3345(6) . 1. 0
O5 O2- 2 i 0.3892(5) 0.1516(4) 0.4228(6) . 1. 0
loop_
_atom_site_aniso_label
_atom_site_aniso_type_symbol
_atom_site_aniso_U_11
_atom_site_aniso_U_22
_atom_site_aniso_U_33
_atom_site_aniso_U_12
_atom_site_aniso_U_13
_atom_site_aniso_U_23
Te1 Te6+ 0.0040(1) 0.0032(1) 0.0036(1) 0.0012(1) 0.0011(1) 0.0003(1)
Li1 Li1+ 0.0087(15) 0.0080(14) 0.0085(15) 0.0056(10) 0.0053(9) 0.0055(9)
Li2 Li1+ 0.0284(16) 0.0299(16) 0.0273(10) 0.0186(10) 0.0064(10) 0.0108(10)
Li3 Li1+ 0.0120(9) 0.0111(9) 0.0085(9) 0.0029(9) -.0006(9) 0.0017(9)
Li4 Li1+ 0.0213(9) 0.0067(9) 0.0219(10) 0.0077(9) 0.0034(9) 0.0019(9)
Li5 Li1+ 0.0152(9) 0.0102(9) 0.0224(9) 0.0063(9) 0.0108(9) 0.0091(9)
O1 O2- 0.0059(8) 0.0123(8) 0.0102(8) 0.0011(7) 0.0015(7) 0.0042(7)
O2 O2- 0.0091(8) 0.0051(7) 0.0076(8) 0.0017(7) 0.0035(7) 0.0025(7)
O3 O2- 0.0115(88) 0.0059(87) 0.0080(8) 0.0032(7) 0.0016(7) 0.0040(87)
O4 O2- 0.0096(8) 0.0065(8) 0.0091(8) 0.0051(7) 0.0018(7) 0.0000(7)
O5 O2- 0.0097(8) 0.0129(8) 0.0059(8) 0.036(7) 0.0006(7) -.0002(7)
#End of TTdata_202326-ICSD