
#(C) 2017 by FIZ Karlsruhe - Leibniz Institute for Information Infrastructure.  All rights reserved.
data_202402-ICSD
_database_code_ICSD 202402
_audit_creation_date 1988-05-17
_audit_update_record 2013-02-01
_chemical_name_systematic 'Dilithium cobalt tetrachloride'
_chemical_formula_structural 'Li2 Co Cl4'
_chemical_formula_sum 'Cl4 Co1 Li2'
_chemical_name_structure_type Li2FeCl4
_exptl_crystal_density_diffrn 2.67
_publ_section_title

;
New double chloride in the Li Cl - Co Cl2 system I. Preparation, crystal
structure, phase transformation and ionic conductivity of Li2 Co Cl4 spinel
;
loop_
_citation_id
_citation_journal_full
_citation_year
_citation_journal_volume
_citation_page_first
_citation_page_last
_citation_journal_id_ASTM
primary 'Journal of Solid State Chemistry' 1987 71 196 204 JSSCBI
loop_
_publ_author_name
'Kanno, R.'
'Takeda, Y.'
'Takahashi, A.'
'Yamamoto, O.'
'Suyama, R.'
'Kume, S.'
_cell_length_a 7.1772(2)
_cell_length_b 7.2478(2)
_cell_length_c 10.2785(3)
_cell_angle_alpha 90.
_cell_angle_beta 90.
_cell_angle_gamma 90.
_cell_volume 534.68
_cell_formula_units_Z 4
_symmetry_space_group_name_H-M 'I m m a'
_symmetry_Int_Tables_number 74
_refine_ls_R_factor_all 0.131
loop_
_symmetry_equiv_pos_site_id
_symmetry_equiv_pos_as_xyz
1 '-x, y+1/2, -z'
2 '-x, -y+1/2, z'
3 '-x, y, z'
4 '-x, -y, -z'
5 'x, -y+1/2, z'
6 'x, y+1/2, -z'
7 'x, -y, -z'
8 'x, y, z'
9 '-x+1/2, y, -z+1/2'
10 '-x+1/2, -y, z+1/2'
11 '-x+1/2, y+1/2, z+1/2'
12 '-x+1/2, -y+1/2, -z+1/2'
13 'x+1/2, -y, z+1/2'
14 'x+1/2, y, -z+1/2'
15 'x+1/2, -y+1/2, -z+1/2'
16 'x+1/2, y+1/2, z+1/2'
loop_
_atom_type_symbol
_atom_type_oxidation_number
Li1+ 1
Co2+ 2
Li1+ 1
Co2+ 2
Cl1- -1
loop_
_atom_site_label
_atom_site_type_symbol
_atom_site_symmetry_multiplicity
_atom_site_Wyckoff_symbol
_atom_site_fract_x
_atom_site_fract_y
_atom_site_fract_z
_atom_site_B_iso_or_equiv
_atom_site_occupancy
_atom_site_attached_hydrogens
Li1 Li1+ 8 i 0.159(8) 0.25 0.213(9) 0.1(21) 0.5 0
Li2 Li1+ 4 b 0 0 0.5 4.5(13) 0.826(17) 0
Co1 Co2+ 4 b 0 0 0.5 4.5(13) 0.174 0
Li3 Li1+ 4 d 0.25 0.25 0.75 0.10(15) 0.174 0
Co2 Co2+ 4 d 0.25 0.25 0.75 0.10(15) 0.826(17) 0
Cl1 Cl1- 8 h 0 -.011(1) 0.2442(1) 1.75(17) 1. 0
Cl2 Cl1- 8 i 0.246(2) 0.25 -.0086(7) 1.78(15) 1. 0
#End of TTdata_202402-ICSD