
#(C) 2017 by FIZ Karlsruhe - Leibniz Institute for Information Infrastructure.  All rights reserved.
data_202641-ICSD
_database_code_ICSD 202641
_audit_creation_date 1989-06-19
_audit_update_record 1990-05-24
_chemical_name_systematic 'Lithium gallium(II) trichloride'
_chemical_formula_structural 'Li Ga Cl3'
_chemical_formula_sum 'Cl3 Ga1 Li1'
_exptl_crystal_density_diffrn 2.69
_cell_measurement_temperature 403.
_publ_section_title

;
Preparation, Crystal Structures, and Electronic Properties of Li Ga Cl3 and Li
Ga I3
;
loop_
_citation_id
_citation_journal_full
_citation_year
_citation_journal_volume
_citation_page_first
_citation_page_last
_citation_journal_id_ASTM
primary 'Journal of Solid State Chemistry' 1988 75 147 155 JSSCBI
loop_
_publ_author_name
'Hoenle, W.'
'Miller, G.'
'Simon, A.'
_cell_length_a 15.137(3)
_cell_length_b 9.730(2)
_cell_length_c 6.132(2)
_cell_angle_alpha 90.
_cell_angle_beta 90.
_cell_angle_gamma 90.
_cell_volume 903.14
_cell_formula_units_Z 8
_symmetry_space_group_name_H-M 'P n m a'
_symmetry_Int_Tables_number 62
_refine_ls_R_factor_all 0.038
loop_
_symmetry_equiv_pos_site_id
_symmetry_equiv_pos_as_xyz
1 'x+1/2, y, -z+1/2'
2 'x, -y+1/2, z'
3 '-x+1/2, y+1/2, z+1/2'
4 '-x, -y, -z'
5 '-x+1/2, -y, z+1/2'
6 '-x, y+1/2, -z'
7 'x+1/2, -y+1/2, -z+1/2'
8 'x, y, z'
loop_
_atom_type_symbol
_atom_type_oxidation_number
Ga2+ 2
Cl1- -1
Li1+ 1
loop_
_atom_site_label
_atom_site_type_symbol
_atom_site_symmetry_multiplicity
_atom_site_Wyckoff_symbol
_atom_site_fract_x
_atom_site_fract_y
_atom_site_fract_z
_atom_site_B_iso_or_equiv
_atom_site_occupancy
_atom_site_attached_hydrogens
Ga1 Ga2+ 4 c 0.64210(4) 0.25 -.0842(1) . 1. 0
Ga2 Ga2+ 4 c 0.49380(4) 0.25 0.0500(1) . 1. 0
Cl1 Cl1- 4 c 0.1563(1) 0.25 -.0545(2) . 1. 0
Cl2 Cl1- 4 c 0.3880(1) 0.25 -.2045(3) . 1. 0
Cl3 Cl1- 8 d 0.72043(7) 0.4270(1) 0.0472(2) . 1. 0
Cl4 Cl1- 8 d 0.46702(7) 0.0675(1) 0.2647(2) . 1. 0
Li1 Li1+ 8 d 0.1326(6) 0.5120(11) 0.1167(20) . 1. 0
loop_
_atom_site_aniso_label
_atom_site_aniso_type_symbol
_atom_site_aniso_U_11
_atom_site_aniso_U_22
_atom_site_aniso_U_33
_atom_site_aniso_U_12
_atom_site_aniso_U_13
_atom_site_aniso_U_23
Ga1 Ga2+ 0.0169(3) 0.0247(4) 0.0219(3) 0 0.0005(2) 0
Ga2 Ga2+ 0.0165(3) 0.0228(4) 0.0221(3) 0 0.0000(2) 0
Cl1 Cl1- 0.0303(8) 0.0324(8) 0.0208(7) 0 -.0001(6) 0
Cl2 Cl1- 0.0233(7) 0.0291(8) 0.0322(8) 0 -.0100(6) 0
Cl3 Cl1- 0.0268(5) 0.0292(5) 0.0299(5) -.0060(4) 0.0031(4) -.0080(4)
Cl4 Cl1- 0.0303(5) 0.0279(5) 0.0272(5) 0.0055(4) 0.0011(4) -.0024(4)
Li1 Li1+ 0.0365(46) 0.0499(58) 0.0598(60) 0.0038(49) -.0008(42) -.0034(44)
#End of TTdata_202641-ICSD