
#(C) 2018 by FIZ Karlsruhe - Leibniz Institute for Information Infrastructure.  All rights reserved.
data_202660-ICSD
_database_code_ICSD 202660
_audit_creation_date 1989-06-19
_audit_update_record 2006-04-01
_chemical_name_systematic 'Lithium lead phosphate(V)'
_chemical_formula_structural 'Li Pb (P O4)'
_chemical_formula_sum 'Li1 O4 P1 Pb1'
_chemical_name_structure_type PbZnSiO4
_exptl_crystal_density_diffrn 5.63
_cell_measurement_temperature 173.
_publ_section_title 'Crystal structure of Li Pb P O4 with "Li4 O13" cluster'
loop_
_citation_id
_citation_journal_full
_citation_year
_citation_journal_volume
_citation_page_first
_citation_page_last
_citation_journal_id_ASTM
primary 'Journal of Solid State Chemistry' 1988 76 266 269 JSSCBI
loop_
_publ_author_name
'Elammari, L.'
'Elouadi, B.'
'Depmeier, W.'
_cell_length_a 7.969(3)
_cell_length_b 18.591(5)
_cell_length_c 4.926(1)
_cell_angle_alpha 90.
_cell_angle_beta 90.
_cell_angle_gamma 90.
_cell_volume 729.8
_cell_formula_units_Z 8
_symmetry_space_group_name_H-M 'P n a 21'
_symmetry_Int_Tables_number 33
_refine_ls_R_factor_all 0.0295
loop_
_symmetry_equiv_pos_site_id
_symmetry_equiv_pos_as_xyz
1 'x+1/2, -y+1/2, z'
2 '-x+1/2, y+1/2, z+1/2'
3 '-x, -y, z+1/2'
4 'x, y, z'
loop_
_atom_type_symbol
_atom_type_oxidation_number
Pb2+ 2
P5+ 5
O2- -2
Li1+ 1
loop_
_atom_site_label
_atom_site_type_symbol
_atom_site_symmetry_multiplicity
_atom_site_Wyckoff_symbol
_atom_site_fract_x
_atom_site_fract_y
_atom_site_fract_z
_atom_site_B_iso_or_equiv
_atom_site_occupancy
_atom_site_attached_hydrogens
Pb1 Pb2+ 4 a 0.1742(1) 0.5539(1) 0.25 . 1. 0
Pb2 Pb2+ 4 a 0.0299(1) 0.7718(1) 0.2305(2) . 1. 0
P1 P5+ 4 a 0.2114(3) 0.6796(2) 0.6924(6) . 1. 0
P2 P5+ 4 a -.2673(4) 0.5715(2) 0.1950(7) . 1. 0
O1 O2- 4 a 0.2297(11) 0.7578(5) 0.5770(17) . 1. 0
O2 O2- 4 a 0.0553(10) 0.6460(5) 0.557(2) . 1. 0
O3 O2- 4 a 0.1907(11) 0.6825(5) 1.0000(21) . 1. 0
O4 O2- 4 a 0.3636(11) 0.6347(5) 0.6165(18) . 1. 0
O5 O2- 4 a -.2833(10) 0.5735(5) 0.5062(18) . 1. 0
O6 O2- 4 a -.4158(11) 0.5331(5) 0.0658(18) . 1. 0
O7 O2- 4 a -.1035(10) 0.5264(5) 0.1156(18) . 1. 0
O8 O2- 4 a -.2474(12) 0.6482(4) 0.0802(18) . 1. 0
Li1 Li1+ 4 a -.0094(22) 1.0575(10) 0.1945(43) 0.017(4) 1. 0
Li2 Li1+ 4 a -.1787(21) 0.6520(9) 0.6873(36) 0.012(4) 1. 0
loop_
_atom_site_aniso_label
_atom_site_aniso_type_symbol
_atom_site_aniso_U_11
_atom_site_aniso_U_22
_atom_site_aniso_U_33
_atom_site_aniso_U_12
_atom_site_aniso_U_13
_atom_site_aniso_U_23
Pb1 Pb2+ 0.017(1) 0.015(1) 0.016(1) 0.000(1) 0.001(1) 0.000(1)
Pb2 Pb2+ 0.017(1) 0.019(1) 0.017(1) 0.000(1) -.001(1) 0.002(1)
P1 P5+ 0.015(1) 0.014(1) 0.015(2) 0.000(1) 0.000(1) -.001(1)
P2 P5+ 0.015(1) 0.014(1) 0.015(2) 0.000(1) 0.002(1) 0.002(1)
O1 O2- 0.021(4) 0.014(4) 0.015(4) 0.001(3) -.003(3) -.006(3)
O2 O2- 0.012(4) 0.021(5) 0.027(5) -.002(4) 0.003(3) 0.000(3)
O3 O2- 0.019(4) 0.024(5) 0.026(5) -.002(4) 0.003(3) -.001(4)
O4 O2- 0.020(4) 0.018(4) 0.018(4) 0.000(3) -.002(3) 0.011(3)
O5 O2- 0.010(3) 0.015(4) 0.021(4) 0.004(3) -.002(3) -.005(3)
O6 O2- 0.021(4) 0.016(4) 0.016(4) -.002(3) 0.001(3) -.001(3)
O7 O2- 0.010(3) 0.018(4) 0.025(4) -.009(3) -.001(3) 0.005(3)
O8 O2- 0.026(4) 0.010(4) 0.017(4) 0.001(3) -.001(3) 0.002(3)
#End of TTdata_202660-ICSD