
#(C) 2017 by FIZ Karlsruhe - Leibniz Institute for Information Infrastructure.  All rights reserved.
data_202919-ICSD
_database_code_ICSD 202919
_audit_creation_date 1990-06-08
_chemical_name_systematic 'Lithium cobalt(III) fluoride'
_chemical_formula_structural 'Li Co F4'
_chemical_formula_sum 'Co1 F4 Li1'
_chemical_name_structure_type LiMnF4
_exptl_crystal_density_diffrn 3.7
_cell_measurement_temperature 5.
_publ_section_title

;
Crystal and Magnetic Structures of Li Co F4: The First Compound with a
Dirutile Structure
;
loop_
_citation_id
_citation_journal_full
_citation_year
_citation_journal_volume
_citation_page_first
_citation_page_last
_citation_journal_id_ASTM
primary 'Journal of Solid State Chemistry' 1989 79 1 11 JSSCBI
loop_
_publ_author_name
'Lacorre, P.'
'Pannetier, J.'
'Averdunk, F.'
'Hoppe, R.'
'Ferey, G.'
_cell_length_a 5.4296(8)
_cell_length_b 4.6462(4)
_cell_length_c 5.5371(4)
_cell_angle_alpha 90.
_cell_angle_beta 114.244(5)
_cell_angle_gamma 90.
_cell_volume 127.36
_cell_formula_units_Z 2
_symmetry_space_group_name_H-M 'P 1 21/c 1'
_symmetry_Int_Tables_number 14
_refine_ls_R_factor_all 0.069
loop_
_symmetry_equiv_pos_site_id
_symmetry_equiv_pos_as_xyz
1 'x, -y+1/2, z+1/2'
2 '-x, -y, -z'
3 '-x, y+1/2, -z+1/2'
4 'x, y, z'
loop_
_atom_type_symbol
_atom_type_oxidation_number
Li1+ 1
Co3+ 3
F1- -1
loop_
_atom_site_label
_atom_site_type_symbol
_atom_site_symmetry_multiplicity
_atom_site_Wyckoff_symbol
_atom_site_fract_x
_atom_site_fract_y
_atom_site_fract_z
_atom_site_B_iso_or_equiv
_atom_site_occupancy
_atom_site_attached_hydrogens
Li1 Li1+ 2 d 0.5 0.5 0 0.1 1. 0
Co1 Co3+ 2 a 0 0 0 0.1 1. 0
F1 F1- 4 e 0.8532(4) 0.7924(10) 0.6668(9) 0.1 1. 0
F2 F1- 4 e 0.3249(3) 0.6844(8) 0.6239(9) 0.1 1. 0
#End of TTdata_202919-ICSD