
#(C) 2018 by FIZ Karlsruhe - Leibniz Institute for Information Infrastructure.  All rights reserved.
data_203219-ICSD
_database_code_ICSD 203219
_audit_creation_date 1996-10-14
_chemical_name_systematic 'Dilanthanum lithium molybdate'
_chemical_formula_structural 'La2 Li (Mo O6)'
_chemical_formula_sum 'La2 Li1 Mo1 O6'
_chemical_name_structure_type Perovskite-Na3AlF6
_exptl_crystal_density_diffrn 6.31
_cell_measurement_temperature 295.
_publ_section_title 'La2 Li Mo O6'
loop_
_citation_id
_citation_journal_full
_citation_year
_citation_journal_volume
_citation_page_first
_citation_page_last
_citation_journal_id_ASTM
primary 'Acta Crystallographica, Section C: Crystal Structure Communications'
1996 52 500 502 ACSCEE
loop_
_publ_author_name
'Tortelier, J.'
'Gougeon, P.'
_cell_length_a 5.590(1)
_cell_length_b 5.6932(8)
_cell_length_c 7.878(2)
_cell_angle_alpha 90.
_cell_angle_beta 90.260(9)
_cell_angle_gamma 90.
_cell_volume 250.71
_cell_formula_units_Z 2
_symmetry_space_group_name_H-M 'P 1 21/n 1'
_symmetry_Int_Tables_number 14
_refine_ls_R_factor_all 0.026
loop_
_symmetry_equiv_pos_site_id
_symmetry_equiv_pos_as_xyz
1 '-x+1/2, y+1/2, -z+1/2'
2 '-x, -y, -z'
3 'x+1/2, -y+1/2, z+1/2'
4 'x, y, z'
loop_
_atom_type_symbol
_atom_type_oxidation_number
Li1+ 1
Mo5+ 5
La3+ 3
O2- -2
loop_
_atom_site_label
_atom_site_type_symbol
_atom_site_symmetry_multiplicity
_atom_site_Wyckoff_symbol
_atom_site_fract_x
_atom_site_fract_y
_atom_site_fract_z
_atom_site_B_iso_or_equiv
_atom_site_occupancy
_atom_site_attached_hydrogens
Li1 Li1+ 2 a 0 0 0 0.36(8) 1. 0
Mo1 Mo5+ 2 b 0.5 0.5 0 0.422(4) 1. 0
La1 La3+ 4 e 0.99084(3) 0.55103(3) 0.75150(2) 0.660(2) 1. 0
O1 O2- 4 e 0.7139(4) 0.8069(4) 0.5420(3) 0.69(3) 1. 0
O2 O2- 4 e 0.9154(5) 0.0205(5) 0.2589(3) 0.82(3) 1. 0
O3 O2- 4 e 0.6917(4) 0.7817(4) 0.9534(3) 0.77(3) 1. 0
#End of TTdata_203219-ICSD