
#(C) 2018 by FIZ Karlsruhe - Leibniz Institute for Information Infrastructure.  All rights reserved.
data_20557-ICSD
_database_code_ICSD 20557
_audit_creation_date 1982-12-31
_chemical_name_systematic 'Sodium lithium catena-vanadate (1.4/1.6/2)'
_chemical_formula_structural 'Na1.4 Li.6 V2 O6'
_chemical_formula_sum 'Li0.6 Na1.4 O6 V2'
_chemical_name_structure_type NaKV2O6
_exptl_crystal_density_diffrn 2.94
_publ_section_title
'The crystal structure of vanadium pyroxenes Nax Li(2-x) V2 O6'
loop_
_citation_id
_citation_journal_full
_citation_year
_citation_journal_volume
_citation_page_first
_citation_page_last
_citation_journal_id_ASTM
primary Kristallografiya 1982 27 1094 1097 KRISAJ
loop_
_publ_author_name
'Bubnova, R.S.'
'Filatov, S.K.'
'Rozhdestvenskaya, I.V.'
'Gronin, V.S.'
'Zonn, Z.N.'
_cell_length_a 10.338(2)
_cell_length_b 9.210(4)
_cell_length_c 5.862(1)
_cell_angle_alpha 90.
_cell_angle_beta 108.59(2)
_cell_angle_gamma 90.
_cell_volume 529.02
_cell_formula_units_Z 4
_symmetry_space_group_name_H-M 'C 1 2/c 1'
_symmetry_Int_Tables_number 15
_refine_ls_R_factor_all 0.022
loop_
_symmetry_equiv_pos_site_id
_symmetry_equiv_pos_as_xyz
1 'x, -y, z+1/2'
2 '-x, -y, -z'
3 '-x, y, -z+1/2'
4 'x, y, z'
5 'x+1/2, -y+1/2, z+1/2'
6 '-x+1/2, -y+1/2, -z'
7 '-x+1/2, y+1/2, -z+1/2'
8 'x+1/2, y+1/2, z'
loop_
_atom_type_symbol
_atom_type_oxidation_number
V5+ 5
Na1+ 1
Li1+ 1
O2- -2
loop_
_atom_site_label
_atom_site_type_symbol
_atom_site_symmetry_multiplicity
_atom_site_Wyckoff_symbol
_atom_site_fract_x
_atom_site_fract_y
_atom_site_fract_z
_atom_site_B_iso_or_equiv
_atom_site_occupancy
_atom_site_attached_hydrogens
V1 V5+ 8 f 0.2903(1) 0.0914(1) 0.2514(1) . 1. 0
Na1 Na1+ 4 e 0.5 0.4142(2) 0.25 . 0.44(2) 0
Na2 Na1+ 4 e 0.5 0.2056(1) 0.75 . 0.97(1) 0
Li1 Li1+ 4 e 0.5 0.2056(1) 0.75 . 0.03(1) 0
Li2 Li1+ 4 e 0.5 0.4142(2) 0.25 . 0.56(2) 0
O1 O2- 8 f 0.1215(1) 0.0975(1) 0.1550(2) . 1. 0
O2 O2- 8 f 0.3524(2) 0.2560(2) 0.3080(2) . 1. 0
O3 O2- 8 f 0.3548(1) 0.0048(1) 0.0329(2) . 1. 0
loop_
_atom_site_aniso_label
_atom_site_aniso_type_symbol
_atom_site_aniso_B_11
_atom_site_aniso_B_22
_atom_site_aniso_B_33
_atom_site_aniso_B_12
_atom_site_aniso_B_13
_atom_site_aniso_B_23
V1 V5+ 1.03 1.14 0.65 0.06 -.25 0.03
Na1 Na1+ 1.65 1.98 1.72 0 0.51 0
Na2 Na1+ 2.1 1.52 1.94 0 0.13 0
Li1 Li1+ 2.1 1.52 1.94 0 0.13 0
Li2 Li1+ 1.65 1.98 1.72 0 0.51 0
O1 O2- 1.34 2.28 1.56 0.45 -.33 -.06
O2 O2- 3.02 1.33 1.95 -.28 -.53 0.15
O3 O2- 1.39 2.21 1.04 -.03 -.4 -.43
#End of TTdata_20557-ICSD