
#(C) 2018 by FIZ Karlsruhe - Leibniz Institute for Information Infrastructure.  All rights reserved.
data_2149-ICSD
_database_code_ICSD 2149
_audit_creation_date 1980-01-01
_audit_update_record 2012-08-01
_chemical_name_systematic 'Dicopper dilithium cyclo-hexaphosphate'
_chemical_formula_structural 'Cu2 Li2 P6 O18'
_chemical_formula_sum 'Cu2 Li2 O18 P6'
_exptl_crystal_density_diffrn 3.04
_publ_section_title
'Structure cristalline de l'hexametaphosphate de cuivrelithium, C U L P6 O18'
loop_
_citation_id
_citation_journal_full
_citation_year
_citation_journal_volume
_citation_page_first
_citation_page_last
_citation_journal_id_ASTM
primary

;
Acta Crystallographica, Section B: Structural Crystallography and Crystal
Chemistry
; 1974 30 2118 2121 ACBCAR
loop_
_publ_author_name
'Laugt, M.'
'Durif, A.'
_cell_length_a 9.485(2)
_cell_length_b 9.419(2)
_cell_length_c 9.379(2)
_cell_angle_alpha 111.73(2)
_cell_angle_beta 106.25(2)
_cell_angle_gamma 106.80(2)
_cell_volume 670.96
_cell_formula_units_Z 2
_symmetry_space_group_name_H-M 'P -1'
_symmetry_Int_Tables_number 2
_refine_ls_R_factor_all 0.034
loop_
_symmetry_equiv_pos_site_id
_symmetry_equiv_pos_as_xyz
1 '-x, -y, -z'
2 'x, y, z'
loop_
_atom_type_symbol
_atom_type_oxidation_number
Cu2+ 2
P5+ 5
O2- -2
Li1+ 1
loop_
_atom_site_label
_atom_site_type_symbol
_atom_site_symmetry_multiplicity
_atom_site_Wyckoff_symbol
_atom_site_fract_x
_atom_site_fract_y
_atom_site_fract_z
_atom_site_B_iso_or_equiv
_atom_site_occupancy
_atom_site_attached_hydrogens
Cu1 Cu2+ 2 i 0.21530(3) 0.29355(3) 0.09956(3) . 1. 0
Cu2 Cu2+ 2 i 0.28215(3) 0.22993(3) 0.74299(3) . 1. 0
P1 P5+ 2 i 0.64763(5) 0.39524(6) 0.00868(6) . 1. 0
P2 P5+ 2 i 0.84434(6) 0.21520(6) 0.95098(6) . 1. 0
P3 P5+ 2 i 0.92277(6) 0.08589(6) 0.18818(6) . 1. 0
P4 P5+ 2 i 0.90004(5) 0.14995(6) 0.51624(6) . 1. 0
P5 P5+ 2 i 0.70537(5) 0.33580(6) 0.57761(6) . 1. 0
P6 P5+ 2 i 0.59043(6) 0.43079(6) 0.31515(6) . 1. 0
O1 O2- 2 i 0.8081(2) 0.3784(2) 0.0106(2) . 1. 0
O2 O2- 2 i 0.8436(2) 0.1775(2) 0.1028(2) . 1. 0
O3 O2- 2 i 0.9217(2) 0.1806(2) 0.3676(2) . 1. 0
O4 O2- 2 i 0.8636(2) 0.3035(2) 0.6104(2) . 1. 0
O5 O2- 2 i 0.7067(2) 0.3887(2) 0.4343(2) . 1. 0
O6 O2- 2 i 0.6322(2) 0.3611(2) 0.1572(2) . 1. 0
O7 O2- 2 i 0.5057(2) 0.2551(2) 0.8442(2) . 1. 0
O8 O2- 2 i 0.3253(2) 0.4275(2) 0.9590(2) . 1. 0
O9 O2- 2 i 0.0098(2) 0.2716(2) 0.9590(2) . 1. 0
O10 O2- 2 i 0.7060(2) 0.0746(2) 0.7866(2) . 1. 0
O11 O2- 2 i 0.1969(2) 0.0975(2) 0.9017(2) . 1. 0
O12 O2- 2 i 0.0928(2) 0.1315(2) 0.2090(2) . 1. 0
O13 O2- 2 i 0.2484(2) 0.0149(2) 0.5586(2) . 1. 0
O14 O2- 2 i 0.0541(2) 0.1717(2) 0.6358(2) . 1. 0
O15 O2- 2 i 0.2584(2) 0.5166(2) 0.2644(2) . 1. 0
O16 O2- 2 i 0.5564(2) 0.1760(2) 0.5066(2) . 1. 0
O17 O2- 2 i 0.3568(2) 0.3837(2) 0.6099(2) . 1. 0
O18 O2- 2 i 0.4175(2) 0.3144(2) 0.2625(2) . 1. 0
Li1 Li1+ 2 i 0.3156(6) 0.1610(7) 0.3626(7) 1.95 1. 0
Li2 Li1+ 2 i 0.4996(5) 0.0662(5) 0.6546(5) 1.264 1. 0
loop_
_atom_site_aniso_label
_atom_site_aniso_type_symbol
_atom_site_aniso_beta_11
_atom_site_aniso_beta_22
_atom_site_aniso_beta_33
_atom_site_aniso_beta_12
_atom_site_aniso_beta_13
_atom_site_aniso_beta_23
Cu1 Cu2+ 0.00255(2) 0.00327(3) 0.00339(3) 0.00148(2) 0.00098(2) 0.00088(2)
Cu2 Cu2+ 0.00239(2) 0.00314(3) 0.00344(3) 0.00135(2) 0.00080(2) 0.00073(2)
P1 P5+ 0.00213(4) 0.00244(5) 0.00257(5) 0.0019(4) 0.00100(4) 0.00089(4)
P2 P5+ 0.00313(4) 0.00306(5) 0.00295(5) 0.00131(4) 0.00145(4) 0.00083(4)
P3 P5+ 0.00274(5) 0.00286(5) 0.00277(5) 0.00132(4) 0.00146(4) 0.00119(4)
P4 P5+ 0.00199(4) 0.00278(5) 0.00246(5) 0.00113(4) 0.00085(4) 0.00064(4)
P5 P5+ 0.00239(5) 0.00246(5) 0.00250(5) 0.00118(4) 0.00103(4) 0.00078(4)
P6 P5+ 0.00235(4) 0.00351(5) 0.00303(5) 0.00133(4) 0.00195(4) 0.00105(4)
O1 O2- 0.00236(13) 0.00329(15) 0.00484(16) 0.00162(11) 0.00196(13) 0.00144(12)
O2 O2- 0.00614(19) 0.00747(22) 0.00684(21) 0.00514(17) 0.00554(19) 0.00438(17)
O3 O2- 0.00957(25) 0.00489(19) 0.00372(18) 0.00283(18) 0.00171(15) 0.00384(18)
O4 O2- 0.00295(14) 0.00305(15) 0.00363(15) 0.00186(11) 0.00087(12) 0.00085(12)
O5 O2- 0.00383(15) 0.00939(24) 0.00685(21) 0.00354(16) 0.00455(19) 0.00247(15)
O6 O2- 0.00801(22) 0.00661(21) 0.00558(19) 0.00468(18) 0.00428(17) 0.00480(18)
O7 O2- 0.00248(13) 0.00355(16) 0.00409(16) 0.00145(12) 0.00065(13) 0.00054(12)
O8 O2- 0.00372(14) 0.00267(14) 0.00398(15) 0.00163(12) 0.00154(12) 0.00194(12)
O9 O2- 0.00294(14) 0.00624(19) 0.00564(19) 0.00255(14) 0.00364(16) 0.00225(13)
O10 O2- 0.00355(16) 0.00464(18) 0.00469(18) 0.00189(14) 0.00024(15) -.00021(14)
O11 O2- 0.00363(15) 0.00315(15) 0.00446(17) 0.00109(12) 0.00127(13) 0.00193(13)
O12 O2- 0.00301(14) 0.00494(18) 0.00603(19) 0.00145(13) 0.00295(16) 0.00166(14)
O13 O2- 0.00260(14) 0.00278(15) 0.00518(18) 0.00085(12) 0.00049(13) 0.00147(13)
O14 O2- 0.00317(15) 0.00633(21) 0.00462(18) 0.00275(14) 0.00148(16) 0.00020(13)
O15 O2- 0.00551(19) 0.00445(18) 0.00473(18) 0.00261(15) 0.00009(15) 0.00168(15)
O16 O2- 0.00292(14) 0.00390(16) 0.00467(17) 0.00118(12) 0.00180(14) 0.00130(12)
O17 O2- 0.00519(18) 0.00394(17) 0.00536(19) 0.00171(14) 0.00227(15) 0.00206(15)
O18 O2- 0.00233(13) 0.00502(18) 0.00572(19) 0.00130(13) 0.00286(15) 0.00109(13)
#End of TTdata_2149-ICSD