
#(C) 2017 by FIZ Karlsruhe - Leibniz Institute for Information Infrastructure.  All rights reserved.
data_23407-ICSD
_database_code_ICSD 23407
_audit_creation_date 1986-10-03
_chemical_name_systematic 'Lithium hexafluorogermanate - beta'
_chemical_formula_structural 'Li2 Ge F6'
_chemical_formula_sum 'F6 Ge1 Li2'
_chemical_name_structure_type Na2SiF6
_exptl_crystal_density_diffrn 3.53
_publ_section_title

;
Ztude radiocristallographique de deux varietes de l'hexafluoro-germanate de
lithium Li2 Ge F6
;
loop_
_citation_id
_citation_journal_full
_citation_year
_citation_journal_volume
_citation_page_first
_citation_page_last
_citation_journal_id_ASTM
primary

;
Comptes Rendus Hebdomadaires des Seances de l'Academie des Sciences, Serie C,
Sciences Chimiques (1966-)
; 1969 269 327 330 CHDCAQ
loop_
_publ_author_name
'Portier, J.'
'Menil, F.'
'Grannec, J.'
_cell_length_a 8.410(5)
_cell_length_b 8.410(5)
_cell_length_c 4.620(5)
_cell_angle_alpha 90.
_cell_angle_beta 90.
_cell_angle_gamma 120.
_cell_volume 282.99
_cell_formula_units_Z 3
_symmetry_space_group_name_H-M 'P 3 2 1'
_symmetry_Int_Tables_number 150
_refine_ls_R_factor_all 0.077
loop_
_symmetry_equiv_pos_site_id
_symmetry_equiv_pos_as_xyz
1 'x-y, -y, -z'
2 '-x, -x+y, -z'
3 'y, x, -z'
4 '-x+y, -x, z'
5 '-y, x-y, z'
6 'x, y, z'
loop_
_atom_type_symbol
_atom_type_oxidation_number
Li1+ 1
Ge4+ 4
F1- -1
loop_
_atom_site_label
_atom_site_type_symbol
_atom_site_symmetry_multiplicity
_atom_site_Wyckoff_symbol
_atom_site_fract_x
_atom_site_fract_y
_atom_site_fract_z
_atom_site_B_iso_or_equiv
_atom_site_occupancy
_atom_site_attached_hydrogens
Li1 Li1+ 3 e 0.34 0.34 0 . 1. 0
Li2 Li1+ 3 f 0.67 0.67 0.5 . 1. 0
Ge1 Ge4+ 1 a 0 0 0 . 1. 0
Ge2 Ge4+ 2 d 0.3333 0.6667 0.51 . 1. 0
F1 F1- 6 g 0.1 0.9 0.78 . 1. 0
F2 F1- 6 g 0.44 0.57 0.73 . 1. 0
F3 F1- 6 g 0.23 0.77 0.29 . 1. 0
#End of TTdata_23407-ICSD