
#(C) 2018 by FIZ Karlsruhe - Leibniz Institute for Information Infrastructure.  All rights reserved.
data_236454-ICSD
_database_code_ICSD 236454
_audit_creation_date 2014-02-01
_chemical_name_systematic 'Lithium lanthanum titanium oxide (0.3/0.567/1/3)'
_chemical_formula_structural 'Li0.3 La0.567 Ti O3'
_chemical_formula_sum 'La0.567 Li0.3 O3 Ti1'
_exptl_crystal_density_diffrn 4.98
_cell_measurement_temperature 823.
_publ_section_title

;
Tetragonal superstructure and thermal history of Li0.3 La0.567 Ti O3 (L L T O)
solid electrolyte by neutron diffraction
;
loop_
_citation_id
_citation_journal_full
_citation_year
_citation_journal_volume
_citation_page_first
_citation_page_last
_citation_journal_id_ASTM
primary 'Journal of Materials Chemistry' 2007 17 1300 1307 JMACEP
loop_
_publ_author_name
'Catti, Michele'
'Sommariva, Marco'
'Ibberson, Richard M.'
_cell_length_a 5.50511(1)
_cell_length_b 5.50511(1)
_cell_length_c 7.78545(1)
_cell_angle_alpha 90.
_cell_angle_beta 90.
_cell_angle_gamma 90.
_cell_volume 235.94
_cell_formula_units_Z 4
_symmetry_space_group_name_H-M 'P 4/n b m Z'
_symmetry_Int_Tables_number 125
_refine_ls_R_factor_all 0.0484
loop_
_symmetry_equiv_pos_site_id
_symmetry_equiv_pos_as_xyz
1 'y+1/2, x+1/2, z'
2 'y, -x+1/2, z'
3 '-y+1/2, x, z'
4 '-y, -x, z'
5 '-y+1/2, -x+1/2, -z'
6 '-y, x+1/2, -z'
7 'y+1/2, -x, -z'
8 'y, x, -z'
9 'x+1/2, y+1/2, -z'
10 '-x+1/2, y, -z'
11 'x, -y+1/2, -z'
12 '-x, -y, -z'
13 '-x+1/2, -y+1/2, z'
14 'x+1/2, -y, z'
15 '-x, y+1/2, z'
16 'x, y, z'
loop_
_atom_type_symbol
_atom_type_oxidation_number
Ti4+ 4
La3+ 3
O2- -2
Li1+ 1
loop_
_atom_site_label
_atom_site_type_symbol
_atom_site_symmetry_multiplicity
_atom_site_Wyckoff_symbol
_atom_site_fract_x
_atom_site_fract_y
_atom_site_fract_z
_atom_site_B_iso_or_equiv
_atom_site_occupancy
_atom_site_attached_hydrogens
Ti1 Ti4+ 4 g 0.25 0.25 0.2487(10) 0.0138(5) 1. 0
La1 La3+ 2 c 0.25 0.75 0. 0.011(4) 0.382(15) 0
La2 La3+ 2 d 0.25 0.75 0.5 0.0145(19) 0.752(15) 0
O1 O2- 8 m 0.5182(3) 0.4818(3) 0.2656(4) 0.0232(6) 1. 0
O2 O2- 2 a 0.25 0.25 0. 0.0183(16) 1. 0
O3 O2- 2 b 0.25 0.25 0.5 0.0266(18) 1. 0
Li1 Li1+ 8 m 0.108(4) -0.108(4) 0.007(8) 0.004(6) 0.15 0
#End of TTdata_236454-ICSD