
#(C) 2018 by FIZ Karlsruhe - Leibniz Institute for Information Infrastructure.  All rights reserved.
data_23694-ICSD
_database_code_ICSD 23694
_audit_creation_date 1980-01-01
_audit_update_record 2012-08-01
_chemical_name_systematic 'Lithium potassium niobium oxide (4.07/5.7/10.23/30)'
_chemical_formula_structural 'Li4.07 K5.7 Nb10.23 O30'
_chemical_formula_sum 'K5.7 Li4.07 Nb10.23 O30'
_exptl_crystal_density_diffrn 4.4
_publ_section_title

;
Ferroelectric tungsten bronze-type crystal structures. III. Potassium lithium
niobate K6-x-y Li4+x Nb10+y O30
;
loop_
_citation_id
_citation_journal_full
_citation_year
_citation_journal_volume
_citation_page_first
_citation_page_last
_citation_journal_id_ASTM
primary 'Journal of Chemical Physics' 1971 54 2355 2364 JCPSA6
loop_
_publ_author_name
'Abrahams, S.C.'
'Jamieson, P.B.'
'Bernstein, J.L.'
_cell_length_a 12.5764(2)
_cell_length_b 12.5764(2)
_cell_length_c 4.0149(1)
_cell_angle_alpha 90.
_cell_angle_beta 90.
_cell_angle_gamma 90.
_cell_volume 635.02
_cell_formula_units_Z 1
_symmetry_space_group_name_H-M 'P 4 b m'
_symmetry_Int_Tables_number 100
_refine_ls_R_factor_all 0.0401
loop_
_symmetry_equiv_pos_site_id
_symmetry_equiv_pos_as_xyz
1 '-y+1/2, -x+1/2, z'
2 'y+1/2, x+1/2, z'
3 'y, -x, z'
4 '-y, x, z'
5 '-x+1/2, y+1/2, z'
6 'x+1/2, -y+1/2, z'
7 '-x, -y, z'
8 'x, y, z'
loop_
_atom_type_symbol
_atom_type_oxidation_number
Li1+ 1
K1+ 1
Nb4+ 4.91
O2- -2
loop_
_atom_site_label
_atom_site_type_symbol
_atom_site_symmetry_multiplicity
_atom_site_Wyckoff_symbol
_atom_site_fract_x
_atom_site_fract_y
_atom_site_fract_z
_atom_site_B_iso_or_equiv
_atom_site_occupancy
_atom_site_attached_hydrogens
Li1 Li1+ 2 a 0 0 0.4965(28) . 0.127 0
Li2 Li1+ 4 c 0.17240(14) 0.67240(14) 0.4894(20) . 0.011 0
Li3 Li1+ 4 c 0.3820(7) 0.8820(7) 0.4886(55) . 0.942 0
K1 K1+ 2 a 0 0 0.4965(28) . 0.873 0
K2 K1+ 4 c 0.17240(14) 0.67240(14) 0.4894(20) . 0.989 0
Nb1 Nb4+ 2 b 0 0.5 0.0019(11) . 1. 0
Nb2 Nb4+ 8 d 0.07476(4) 0.20803(4) 0 . 1. 0
Nb3 Nb4+ 4 c 0.3820(7) 0.8820(7) 0.4886(55) . 0.058 0
O1 O2- 8 d 0.3469(5) 0.9974(5) 0.9571(45) . 1. 0
O2 O2- 8 d 0.1409(1) 0.0690(4) 0.9680(29) . 1. 0
O3 O2- 4 c 0.2898(4) 0.7898(4) 0.9682(59) . 1. 0
O4 O2- 2 b 0 0.5 0.5255(92) . 1. 0
O5 O2- 8 d 0.2861(5) 0.4227(6) 0.4593(7) . 1. 0
loop_
_atom_site_aniso_label
_atom_site_aniso_type_symbol
_atom_site_aniso_beta_11
_atom_site_aniso_beta_22
_atom_site_aniso_beta_33
_atom_site_aniso_beta_12
_atom_site_aniso_beta_13
_atom_site_aniso_beta_23
Li1 Li1+ 0.00127(7) 0.00127(7) 0.0210(12) 0 0 0
Li2 Li1+ 0.00347(8) 0.00347(8) 0.0243(13) -.00075(5) 0.0001(3) 0.0001(3)
Li3 Li1+ 0.0035(4) 0.0035(4) 0.0498(69) -.00005(25) -.0048(9) -.0048(9)
K1 K1+ 0.00127(7) 0.00127(7) 0.0210(12) 0 0 0
K2 K1+ 0.00347(8) 0.00347(8) 0.0243(13) -.00075(5) 0.0001(3) 0.0001(3)
Nb1 Nb4+ 0.00127(3) 0.00127(3) 0.0170(5) -.00005(2) 0 0
Nb2 Nb4+ 0.00139(3) 0.00108(2) 0.0182(3) 0.00002(1) 0.0008(1) -.0002(1)
Nb3 Nb4+ 0.0035(4) 0.0035(4) 0.0498(69) -.00005(25) -.0048(9) -.0048(9)
O1 O2- 0.0011(2) 0.0023(3) 0.094(13) -.00010(15) 0.0003(8) 0.0058(10)
O2 O2- 0.0014(2) 0.0012(2) 0.030(5) 0.00025(10) 0.0010(5) -.0005(4)
O3 O2- 0.0010(2) 0.0010(2) 0.050(11) -.00010(15) -.0007(6) -.00107(6)
O4 O2- 0.0077(9) 0.0077(9) 0.017(13) -.0021(6) 0 0
O5 O2- 0.0039(3) 0.0049(4) 0.014(2) -.0004(2) -.0001(3) -.0003(3)
#End of TTdata_23694-ICSD