
#(C) 2018 by FIZ Karlsruhe - Leibniz Institute for Information Infrastructure.  All rights reserved.
data_237334-ICSD
_database_code_ICSD 237334
_audit_creation_date 2015-02-01
_chemical_name_systematic 'Lithium cobalt(II) borate'
_chemical_formula_structural 'Li Co B O3'
_chemical_formula_sum 'B1 Co1 Li1 O3'
_chemical_name_structure_type LiCoBO3
_exptl_crystal_density_diffrn 3.61
_publ_section_title

;
Magnetic structures of Li M B O3 (M = Mn, Fe, Co) lithiated transition metal
borates
;
loop_
_citation_id
_citation_journal_full
_citation_year
_citation_journal_volume
_citation_page_first
_citation_page_last
_citation_journal_id_ASTM
primary 'Inorganic Chemistry' 2013 52 11966 11974 INOCAJ
loop_
_publ_author_name
'Tao, Liang'
'Neilson, James R.'
'Melot, Brent C.'
'McQueen, Tyrel M.'
'Masquelier, Christian'
'Rousse, Gwenaelle'
_cell_length_a 5.1349(1)
_cell_length_b 8.8537(1)
_cell_length_c 10.1079(1)
_cell_angle_alpha 90
_cell_angle_beta 91.382(1)
_cell_angle_gamma 90
_cell_volume 459.4
_cell_formula_units_Z 8
_symmetry_space_group_name_H-M 'C 1 2/c 1'
_symmetry_Int_Tables_number 15
_refine_ls_R_factor_all 0.0258
loop_
_symmetry_equiv_pos_site_id
_symmetry_equiv_pos_as_xyz
1 'x, -y, z+1/2'
2 '-x, -y, -z'
3 '-x, y, -z+1/2'
4 'x, y, z'
5 'x+1/2, -y+1/2, z+1/2'
6 '-x+1/2, -y+1/2, -z'
7 '-x+1/2, y+1/2, -z+1/2'
8 'x+1/2, y+1/2, z'
loop_
_atom_type_symbol
_atom_type_oxidation_number
Li1+ 1
Co2+ 2
B3+ 3
O2- -2
loop_
_atom_site_label
_atom_site_type_symbol
_atom_site_symmetry_multiplicity
_atom_site_Wyckoff_symbol
_atom_site_fract_x
_atom_site_fract_y
_atom_site_fract_z
_atom_site_B_iso_or_equiv
_atom_site_occupancy
_atom_site_attached_hydrogens
Li1 Li1+ 8 f 0.660(4) 0.510(1) 0.166(1) 0.44(9) 0.52(1) 0
Li2 Li1+ 8 f 0.672(2) 0.500(1) 0.091(1) 0.44(9) 0.48(1) 0
Co1 Co2+ 8 f 0.1593(9) 0.3337(7) 0.1247(6) 0.74(6) 1. 0
B1 B3+ 8 f 0.1665(4) 0.6683(2) 0.1248(2) 0.30(3) 1. 0
O1 O2- 8 f 0.4032(3) 0.1637(3) 0.0907(2) 0.64(3) 1. 0
O2 O2- 8 f 0.7816(3) 0.3058(2) 0.1578(2) 0.51(4) 1. 0
O3 O2- 8 f 0.3087(4) 0.5389(2) 0.1262(3) 0.89(4) 1. 0
#End of TTdata_237334-ICSD