
#(C) 2018 by FIZ Karlsruhe - Leibniz Institute for Information Infrastructure.  All rights reserved.
data_237333-ICSD
_database_code_ICSD 237333
_audit_creation_date 2015-02-01
_chemical_name_systematic 'Lithium iron(II) borate'
_chemical_formula_structural 'Li Fe B O3'
_chemical_formula_sum 'B1 Fe1 Li1 O3'
_chemical_name_structure_type LiCoBO3
_exptl_crystal_density_diffrn 3.46
_publ_section_title

;
Magnetic structures of Li M B O3 (M = Mn, Fe, Co) lithiated transition metal
borates
;
loop_
_citation_id
_citation_journal_full
_citation_year
_citation_journal_volume
_citation_page_first
_citation_page_last
_citation_journal_id_ASTM
primary 'Inorganic Chemistry' 2013 52 11966 11974 INOCAJ
loop_
_publ_author_name
'Tao, Liang'
'Neilson, James R.'
'Melot, Brent C.'
'McQueen, Tyrel M.'
'Masquelier, Christian'
'Rousse, Gwenaelle'
_cell_length_a 5.1614(1)
_cell_length_b 8.9080(2)
_cell_length_c 10.1643(3)
_cell_angle_alpha 90
_cell_angle_beta 91.821(2)
_cell_angle_gamma 90
_cell_volume 467.09
_cell_formula_units_Z 8
_symmetry_space_group_name_H-M 'C 1 2/c 1'
_symmetry_Int_Tables_number 15
_refine_ls_R_factor_all 0.0258
loop_
_symmetry_equiv_pos_site_id
_symmetry_equiv_pos_as_xyz
1 'x, -y, z+1/2'
2 '-x, -y, -z'
3 '-x, y, -z+1/2'
4 'x, y, z'
5 'x+1/2, -y+1/2, z+1/2'
6 '-x+1/2, -y+1/2, -z'
7 '-x+1/2, y+1/2, -z+1/2'
8 'x+1/2, y+1/2, z'
loop_
_atom_type_symbol
_atom_type_oxidation_number
Li1+ 1
Fe2+ 2
B3+ 3
O2- -2
loop_
_atom_site_label
_atom_site_type_symbol
_atom_site_symmetry_multiplicity
_atom_site_Wyckoff_symbol
_atom_site_fract_x
_atom_site_fract_y
_atom_site_fract_z
_atom_site_B_iso_or_equiv
_atom_site_occupancy
_atom_site_attached_hydrogens
Li1 Li1+ 8 f 0.667(4) 0.510(4) 0.170(3) 0.59(23) 0.50(3) 0
Li2 Li1+ 8 f 0.705(5) 0.480(3) 0.086(3) 0.59(23) 0.50(3) 0
Fe1 Fe2+ 8 f 0.1613(9) 0.3329(6) 0.1235(4) . 1. 0
B1 B3+ 8 f 0.165(1) 0.6662(7) 0.1246(5) 0.55(5) 1. 0
O1 O2- 8 f 0.405(1) 0.1638(7) 0.0879(5) 0.46(7) 1. 0
O2 O2- 8 f 0.779(1) 0.3042(6) 0.1607(6) 0.89(9) 1. 0
O3 O2- 8 f 0.3158(1) 0.5404(4) 0.1261(7) 1.42(8) 1. 0
loop_
_atom_site_aniso_label
_atom_site_aniso_type_symbol
_atom_site_aniso_U_11
_atom_site_aniso_U_22
_atom_site_aniso_U_33
_atom_site_aniso_U_12
_atom_site_aniso_U_13
_atom_site_aniso_U_23
Fe1 Fe2+ 0.0186(14) 0.0011(10) 0.0234(14) -0.0009(16) -0.0162(9) -0.0002(18)
#End of TTdata_237333-ICSD