
#(C) 2017 by FIZ Karlsruhe - Leibniz Institute for Information Infrastructure.  All rights reserved.
data_23747-ICSD
_database_code_ICSD 23747
_audit_creation_date 1980-01-01
_audit_update_record 2005-10-01
_chemical_name_systematic 'Lithium bromide hydrate - alpha'
_chemical_formula_structural 'Li Br (H2 O)'
_chemical_formula_sum 'H2 Br1 Li1 O1'
_exptl_crystal_density_diffrn 2.68
_publ_section_title

;
Roentgenographische und kernmagnetische Breitlinienresonanz-Untersuchung der
Lithiumhalogenid - monohydrate
;
loop_
_citation_id
_citation_journal_full
_citation_year
_citation_journal_volume
_citation_page_first
_citation_page_last
_citation_journal_id_ASTM
primary 'Chemische Berichte' 1969 102 632 642 CHBEAM
loop_
_publ_author_name
'Weiss, E.'
'Hensel, H.G.'
'Kuehr, H.'
_cell_length_a 7.974(5)
_cell_length_b 4.054(3)
_cell_length_c 4.015(3)
_cell_angle_alpha 90.
_cell_angle_beta 90.
_cell_angle_gamma 90.
_cell_volume 129.79
_cell_formula_units_Z 2
_symmetry_space_group_name_H-M 'P m m a'
_symmetry_Int_Tables_number 51
_refine_ls_R_factor_all 0.103
loop_
_symmetry_equiv_pos_site_id
_symmetry_equiv_pos_as_xyz
1 '-x+1/2, -y, z'
2 'x+1/2, -y, -z'
3 'x, -y, z'
4 '-x, -y, -z'
5 'x+1/2, y, -z'
6 '-x+1/2, y, z'
7 '-x, y, -z'
8 'x, y, z'
loop_
_atom_type_symbol
_atom_type_oxidation_number
Li1+ 1
Br1- -1
O2- -2
H1+ 1
loop_
_atom_site_label
_atom_site_type_symbol
_atom_site_symmetry_multiplicity
_atom_site_Wyckoff_symbol
_atom_site_fract_x
_atom_site_fract_y
_atom_site_fract_z
_atom_site_B_iso_or_equiv
_atom_site_occupancy
_atom_site_attached_hydrogens
Li1 Li1+ 2 b 0 0.5 0 3.6 0.333 0
Li2 Li1+ 2 c 0 0 0.5 3.6 0.333 0
Li3 Li1+ 2 e 0.25 0 0.95 3.6 0.333 0
Br1 Br1- 2 f 0.25 0.5 0.450(1) 3.6 1. 0
O1 O2- 2 a 0 0 0 3.6 1. 0
#End of TTdata_23747-ICSD