
#(C) 2018 by FIZ Karlsruhe - Leibniz Institute for Information Infrastructure.  All rights reserved.
data_237655-ICSD
_database_code_ICSD 237655
_audit_creation_date 2015-02-01
_chemical_name_systematic 'Copper lithium niobate (0.133/0.867/3)'
_chemical_formula_structural 'Cu0.133 Li0.867 Nb3 O8'
_chemical_formula_sum 'Cu0.133 Li0.867 Nb3 O8'
_exptl_crystal_density_diffrn 5.11
_publ_section_title

;
Crystal chemistry, band engineering, and photocatalytic activity of the Li Nb3
O8- Cu Nb3 O8 solid solution
;
loop_
_citation_id
_citation_journal_full
_citation_year
_citation_journal_volume
_citation_page_first
_citation_page_last
_citation_journal_id_ASTM
primary 'Inorganic Chemistry' 2013 52 4443 4450 INOCAJ
loop_
_publ_author_name
'Sahoo, Prangya Parimita'
'Maggard, Paul A.'
_cell_length_a 15.27073(3)
_cell_length_b 5.03521(4)
_cell_length_c 7.46174(2)
_cell_angle_alpha 90
_cell_angle_beta 107.322(2)
_cell_angle_gamma 90
_cell_volume 547.71
_cell_formula_units_Z 4
_symmetry_space_group_name_H-M 'P 1 21/a 1'
_symmetry_Int_Tables_number 14
_refine_ls_R_factor_all 0.0297
loop_
_symmetry_equiv_pos_site_id
_symmetry_equiv_pos_as_xyz
1 'x+1/2, -y+1/2, z'
2 '-x, -y, -z'
3 '-x+1/2, y+1/2, -z'
4 'x, y, z'
loop_
_atom_type_symbol
_atom_type_oxidation_number
Nb5+ 5
Li1+ 1
Cu1+ 1
O2- -2
loop_
_atom_site_label
_atom_site_type_symbol
_atom_site_symmetry_multiplicity
_atom_site_Wyckoff_symbol
_atom_site_fract_x
_atom_site_fract_y
_atom_site_fract_z
_atom_site_B_iso_or_equiv
_atom_site_occupancy
_atom_site_attached_hydrogens
Nb1 Nb5+ 4 e 0.1681(4) 0.270(2) 0.0068(7) 0.0204(19) 1 0
Nb2 Nb5+ 4 e 0.0744(4) 0.755(2) 0.2490(9) 0.0251(15) 1 0
Nb3 Nb5+ 4 e 0.1642(4) 0.256(2) 0.5156(7) 0.0201(18) 1 0
Li1 Li1+ 4 e 0.419(3) 0.276(15) 0.272(7) 0.023(18) 0.867(16) 0
Cu1 Cu1+ 4 e 0.419343 0.275798 0.272499 0.023(18) 0.133(16) 0
O1 O2- 4 e 0.280(3) 0.433(8) 0.080(6) 0.012(14) 1 0
O2 O2- 4 e 0.149(3) 0.395(7) 0.736(7) 0.014(14) 1 0
O3 O2- 4 e 0.292(3) 0.073(8) 0.591(6) 0.012(14) 1 0
O4 O2- 4 e -0.042(3) 0.889(8) 0.149(5) 0.003(13) 1 0
O5 O2- 4 e 0.093(3) -0.049(8) 0.511(6) 0.015(15) 1 0
O6 O2- 4 e 0.046(3) 0.424(8) 0.355(6) 0.017(14) 1 0
O7 O2- 4 e 0.099(3) 0.575(9) 0.024(7) 0.033(18) 1 0
O8 O2- 4 e 0.154(3) 0.085(8) 0.224(7) 0.032(17) 1 0
#End of TTdata_237655-ICSD