
#(C) 2017 by FIZ Karlsruhe - Leibniz Institute for Information Infrastructure.  All rights reserved.
data_238031-ICSD
_database_code_ICSD 238031
_audit_creation_date 2015-08-01
_chemical_name_systematic 'Lithium uranium pentafluoride'
_chemical_formula_structural 'Li U F5'
_chemical_formula_sum 'F5 Li1 U1'
_exptl_crystal_density_diffrn 6.29
_cell_measurement_temperature 100.
_publ_section_title

;
Mild hydrothermal crystal growth, structure, and magnetic properties of
ternary U(IV) containing fluorides: Li U F5, K U2 F9, K7 U6 F31, Rb U F5, Rb
U2 F9, and Rb U3 F13
;
loop_
_citation_id
_citation_journal_full
_citation_year
_citation_journal_volume
_citation_page_first
_citation_page_last
_citation_journal_id_ASTM
primary 'Inorganic Chemistry' 2014 53 6289 6298 INOCAJ
loop_
_publ_author_name
'Yeon, Jeongho'
'Smith, Mark D.'
'Tapp, Joshua'
'Moeller, Angela'
'zur Loye, Hans-Conrad'
_cell_length_a 14.8467(7)
_cell_length_b 14.8467(7)
_cell_length_c 6.5168(6)
_cell_angle_alpha 90.
_cell_angle_beta 90.
_cell_angle_gamma 90.
_cell_volume 1436.46
_cell_formula_units_Z 16
_symmetry_space_group_name_H-M 'I 41/a Z'
_symmetry_Int_Tables_number 88
_refine_ls_R_factor_all 0.0279
loop_
_symmetry_equiv_pos_site_id
_symmetry_equiv_pos_as_xyz
1 '-y+3/4, x+3/4, -z+3/4'
2 'y+1/4, -x+3/4, -z+3/4'
3 'x, y+1/2, -z'
4 '-x, -y, -z'
5 'y+1/4, -x+1/4, z+1/4'
6 '-y+3/4, x+1/4, z+1/4'
7 '-x, -y+1/2, z'
8 'x, y, z'
9 '-y+1/4, x+1/4, -z+1/4'
10 'y+3/4, -x+1/4, -z+1/4'
11 'x+1/2, y, -z+1/2'
12 '-x+1/2, -y+1/2, -z+1/2'
13 'y+3/4, -x+3/4, z+3/4'
14 '-y+1/4, x+3/4, z+3/4'
15 '-x+1/2, -y, z+1/2'
16 'x+1/2, y+1/2, z+1/2'
loop_
_atom_type_symbol
_atom_type_oxidation_number
U4+ 4
F1- -1
Li1+ 1
loop_
_atom_site_label
_atom_site_type_symbol
_atom_site_symmetry_multiplicity
_atom_site_Wyckoff_symbol
_atom_site_fract_x
_atom_site_fract_y
_atom_site_fract_z
_atom_site_B_iso_or_equiv
_atom_site_occupancy
_atom_site_attached_hydrogens
U1 U4+ 16 f 0.06186(2) 0.05617(2) 0.24797(3) 0.00484(7) 1 0
F1 F1- 16 f 0.3018(2) 0.2128(2) 0.1259(6) 0.0069(6) 1 0
F2 F1- 16 f 0.4272(2) 0.0422(2) 0.0041(6) 0.0097(6) 1 0
F3 F1- 16 f 0.1075(2) 0.1832(2) 0.0750(5) 0.0065(6) 1 0
F4 F1- 16 f 0.2036(2) 0.0929(2) 0.3614(6) 0.0073(6) 1 0
F5 F1- 16 f 0.0484(2) 0.1696(2) 0.4799(5) 0.0069(6) 1 0
Li1 Li1+ 16 f 0.4164(8) 0.1853(8) 0.0220(18) 0.014(2) 1 0
loop_
_atom_site_aniso_label
_atom_site_aniso_type_symbol
_atom_site_aniso_U_11
_atom_site_aniso_U_22
_atom_site_aniso_U_33
_atom_site_aniso_U_12
_atom_site_aniso_U_13
_atom_site_aniso_U_23
U1 U4+ 0.00446(10) 0.00398(10) 0.00607(10) -0.00015(5) -0.00006(6) -0.00007(6)
F1 F1- 0.0054(13) 0.0064(14) 0.0087(14) 0.0003(11) 0.0008(12) 0.0002(11)
F2 F1- 0.0091(14) 0.0065(14) 0.0137(16) 0.0025(12) -0.0014(13) 0.0004(13)
F3 F1- 0.0071(14) 0.0050(14) 0.0076(14) -0.0016(11) 0.0014(11) -0.0001(11)
F4 F1- 0.0047(13) 0.0073(14) 0.0099(15) 0.0004(11) -0.0013(12) -0.0023(12)
F5 F1- 0.0069(13) 0.0071(13) 0.0068(15) 0.0008(11) -0.0012(12) -0.0028(12)
Li1 Li1+ 0.013(5) 0.019(5) 0.010(5) 0.003(4) -0.002(4) 0.003(4)
#End of TTdata_238031-ICSD