
#(C) 2018 by FIZ Karlsruhe - Leibniz Institute for Information Infrastructure.  All rights reserved.
data_238091-ICSD
_database_code_ICSD 238091
_audit_creation_date 2015-08-01
_chemical_name_systematic 'Lithium dodecabarium heptaborate tetrafluoride'
_chemical_formula_structural 'Li Ba12 (B O3)7 F4'
_chemical_formula_sum 'B7 Ba12 F4 Li1 O21'
_exptl_crystal_density_diffrn 5.15
_cell_measurement_temperature 301.
_publ_section_title
'Two new barium borate fluorides A Ba12 (B O3)7 F4 (A = Li and Na)'
loop_
_citation_id
_citation_journal_full
_citation_year
_citation_journal_volume
_citation_page_first
_citation_page_last
_citation_journal_id_ASTM
primary 'Inorganic Chemistry' 2014 53 2501 2505 INOCAJ
loop_
_publ_author_name
'Zhao, Jing'
'Li, R.K.'
_cell_length_a 13.5709(6)
_cell_length_b 13.5709(6)
_cell_length_c 14.9908(13)
_cell_angle_alpha 90
_cell_angle_beta 90
_cell_angle_gamma 90
_cell_volume 2760.84
_cell_formula_units_Z 4
_symmetry_space_group_name_H-M 'I 4/m c m'
_symmetry_Int_Tables_number 140
_refine_ls_R_factor_all 0.0346
loop_
_symmetry_equiv_pos_site_id
_symmetry_equiv_pos_as_xyz
1 'y, x, -z+1/2'
2 '-y, -x, -z+1/2'
3 '-y, x, -z'
4 'y, -x, -z'
5 'x, -y, -z+1/2'
6 '-x, y, -z+1/2'
7 'x, y, -z'
8 '-x, -y, -z'
9 '-y, -x, z+1/2'
10 'y, x, z+1/2'
11 'y, -x, z'
12 '-y, x, z'
13 '-x, y, z+1/2'
14 'x, -y, z+1/2'
15 '-x, -y, z'
16 'x, y, z'
17 'y+1/2, x+1/2, -z'
18 '-y+1/2, -x+1/2, -z'
19 '-y+1/2, x+1/2, -z+1/2'
20 'y+1/2, -x+1/2, -z+1/2'
21 'x+1/2, -y+1/2, -z'
22 '-x+1/2, y+1/2, -z'
23 'x+1/2, y+1/2, -z+1/2'
24 '-x+1/2, -y+1/2, -z+1/2'
25 '-y+1/2, -x+1/2, z'
26 'y+1/2, x+1/2, z'
27 'y+1/2, -x+1/2, z+1/2'
28 '-y+1/2, x+1/2, z+1/2'
29 '-x+1/2, y+1/2, z'
30 'x+1/2, -y+1/2, z'
31 '-x+1/2, -y+1/2, z+1/2'
32 'x+1/2, y+1/2, z+1/2'
loop_
_atom_type_symbol
_atom_type_oxidation_number
Ba2+ 2
Li1+ 1
F1- -1
O2- -2
B3+ 3
O2- -2
loop_
_atom_site_label
_atom_site_type_symbol
_atom_site_symmetry_multiplicity
_atom_site_Wyckoff_symbol
_atom_site_fract_x
_atom_site_fract_y
_atom_site_fract_z
_atom_site_B_iso_or_equiv
_atom_site_occupancy
_atom_site_attached_hydrogens
Ba1 Ba2+ 32 m 0.20230(4) 0.07047(4) 0.13349(3) 0.0154(2) 1 0
Ba2 Ba2+ 8 g 0.5 0. 0.13335(7) 0.0161(3) 1 0
Ba3 Ba2+ 8 h 0.17451(5) 0.32549(5) 0. 0.0157(3) 1 0
Li1 Li1+ 8 f 0. 0. 0.023(5) 0.04(2) 0.5 0
F1 F1- 16 k 0.0700(5) 0.1339(6) 0. 0.0238(18) 1 0
O1 O2- 16 k 0.1466(7) 0.5216(6) 0. 0.0153(18) 1 0
O2 O2- 8 h 0.3081(7) 0.1919(7) 0. 0.021(3) 1 0
O3 O2- 16 l 0.3772(5) 0.1228(5) 0.2093(6) 0.0186(19) 1 0
O4 O2- 32 m 0.2571(6) -0.1176(5) 0.1739(5) 0.0335(19) 1 0
B1 B3+ 16 l 0.3383(8) -0.1617(8) 0.2116(9) 0.019(3) 1 0
B2 B3+ 8 h 0.3804(10) 0.1196(10) 0. 0.010(3) 1 0
B3 B3+ 8 f 0. 0. 0.2293(19) 0.008(7) 0.5 0
O5 O2- 8 f 0. 0. 0.1392(17) 0.020(5) 0.5 0
O6 O2- 32 m 0.0744(16) 0.0474(16) 0.2740(13) 0.010(5) 0.25 0
loop_
_atom_site_aniso_label
_atom_site_aniso_type_symbol
_atom_site_aniso_U_11
_atom_site_aniso_U_22
_atom_site_aniso_U_33
_atom_site_aniso_U_12
_atom_site_aniso_U_13
_atom_site_aniso_U_23
Ba1 Ba2+ 0.0123(3) 0.0206(3) 0.0134(3) 0.00163(19) 0.00093(19) 0.0013(2)
Ba2 Ba2+ 0.0185(4) 0.0185(4) 0.0113(5) 0.0065(4) 0. 0.
Ba3 Ba2+ 0.0167(4) 0.0167(4) 0.0136(5) 0.0083(4) 0. 0.
Li1 Li1+ 0.04(2) 0.04(2) 0.04(7) 0. 0. 0.
F1 F1- 0.014(4) 0.020(4) 0.037(5) 0.006(3) 0. 0.
O1 O2- 0.024(5) 0.007(4) 0.015(4) 0.001(3) 0. 0.
O2 O2- 0.023(4) 0.023(4) 0.015(6) 0.008(5) 0. 0.
O3 O2- 0.017(3) 0.017(3) 0.021(4) 0.003(4) 0.006(3) -0.006(3)
O4 O2- 0.047(5) 0.025(4) 0.028(4) -0.010(3) -0.020(4) 0.008(3)
B1 B3+ 0.023(5) 0.023(5) 0.011(6) -0.006(6) 0.004(4) 0.004(4)
O5 O2- 0.021(8) 0.021(8) 0.016(12) 0. 0. 0.
O6 O2- 0.008(11) 0.013(11) 0.008(11) -0.001(9) 0.005(8) 0.004(8)
#End of TTdata_238091-ICSD