
#(C) 2018 by FIZ Karlsruhe - Leibniz Institute for Information Infrastructure.  All rights reserved.
data_238126-ICSD
_database_code_ICSD 238126
_audit_creation_date 2015-08-01
_chemical_name_systematic
'Strontium europium lithium tungstate (0.67/0.24/0,04/1)'
_chemical_formula_structural '(Sr0.67 Eu0.24 Li0.04) (W O4)'
_chemical_formula_sum 'Eu0.24 Li0.04 O4 Sr0.67 W1'
_chemical_name_structure_type Scheelite-CaWO4
_exptl_crystal_density_diffrn 6.73
_publ_section_title

;
Structural investigation of the A-site vacancy in scheelites and the
luminescence behavior of two continuous solid solutions A1-1.5x Euxsquare 0.5x
W O4 and A0.64-0.5y Eu0.24 Liysquare 0.12-0.5y W O4 (A = Ca, Sr; square =
vacancy)
;
loop_
_citation_id
_citation_journal_full
_citation_year
_citation_journal_volume
_citation_page_first
_citation_page_last
_citation_journal_id_ASTM
primary 'Dalton Transactions' 2015 44 6175 6183 DTARAF
loop_
_publ_author_name
'Jiang, Pengfei'
'Gao, Wenliang'
'Cong, Rihong'
'Yang, Tao'
_cell_length_a 5.3658(1)
_cell_length_b 5.3658(1)
_cell_length_c 11.7751(3)
_cell_angle_alpha 90.
_cell_angle_beta 90.
_cell_angle_gamma 90.
_cell_volume 339.03
_cell_formula_units_Z 4
_symmetry_space_group_name_H-M 'I 41/a S'
_symmetry_Int_Tables_number 88
_refine_ls_R_factor_all 0.0496
loop_
_symmetry_equiv_pos_site_id
_symmetry_equiv_pos_as_xyz
1 'y, -x+1/2, z+1/4'
2 '-y, x+1/2, z+1/4'
3 'y, -x, -z'
4 '-y, x, -z'
5 '-x, -y+1/2, -z+1/4'
6 'x, y+1/2, -z+1/4'
7 '-x, -y, z'
8 'x, y, z'
9 'y+1/2, -x, z+3/4'
10 '-y+1/2, x, z+3/4'
11 'y+1/2, -x+1/2, -z+1/2'
12 '-y+1/2, x+1/2, -z+1/2'
13 '-x+1/2, -y, -z+3/4'
14 'x+1/2, y, -z+3/4'
15 '-x+1/2, -y+1/2, z+1/2'
16 'x+1/2, y+1/2, z+1/2'
loop_
_atom_type_symbol
_atom_type_oxidation_number
Sr2+ 2
Eu3+ 3
Li1+ 1
W6+ 6
O2- -2
loop_
_atom_site_label
_atom_site_type_symbol
_atom_site_symmetry_multiplicity
_atom_site_Wyckoff_symbol
_atom_site_fract_x
_atom_site_fract_y
_atom_site_fract_z
_atom_site_B_iso_or_equiv
_atom_site_occupancy
_atom_site_attached_hydrogens
Sr1 Sr2+ 4 b 0 0 0.5 0.015(1) 0.672 0
Eu1 Eu3+ 4 b 0 0 0.5 0.015(1) 0.24 0
Li2 Li1+ 4 b 0 0 0.5 0.015(1) 0.04 0
W1 W6+ 4 a 0 0 0 0.0114(8) 1. 0
O1 O2- 16 f 0.249(6) 0.1459(9) 0.0844(5) 0.023(3) 1. 0
#End of TTdata_238126-ICSD