
#(C) 2018 by FIZ Karlsruhe - Leibniz Institute for Information Infrastructure.  All rights reserved.
data_238521-ICSD
_database_code_ICSD 238521
_audit_creation_date 2016-02-01
_chemical_name_systematic 'Lithium iron orthosilicate'
_chemical_formula_structural 'Li Fe Si O4'
_chemical_formula_sum 'Fe1 Li1 O4 Si1'
_exptl_crystal_density_diffrn 3.01
_publ_section_title

;
Crystal structural changes and charge compensation mechanism during two
lithium extraction/insertion between Li2 Fe Si O4 and Fe Si O4
;
loop_
_citation_id
_citation_journal_full
_citation_year
_citation_journal_volume
_citation_page_first
_citation_page_last
_citation_journal_id_ASTM
primary 'Journal of Physical Chemistry C' 2015 119 10206 10211 JPCCCK
loop_
_publ_author_name
'Masese, Titus'
'Tassel, Cedric'
'Orikasa, Yuki'
'Koyama, Yukinori'
'Arai, Hajime'
'Hayashi, Naoaki'
'Kim, Jungeun'
'Mori, Takuya'
'Yamamoto, Kentaro'
'Kobayashi, Yoji'
'Kageyama, Hiroshi'
'Ogumi, Zempachi'
'Uchimoto, Yoshiharu'
_cell_length_a 10.3476(12)
_cell_length_b 6.5746(8)
_cell_length_c 5.0202(9)
_cell_angle_alpha 90.
_cell_angle_beta 90.
_cell_angle_gamma 90.
_cell_volume 341.53
_cell_formula_units_Z 4
_symmetry_space_group_name_H-M 'P n m a'
_symmetry_Int_Tables_number 62
_refine_ls_R_factor_all 0.019
loop_
_symmetry_equiv_pos_site_id
_symmetry_equiv_pos_as_xyz
1 'x+1/2, y, -z+1/2'
2 'x, -y+1/2, z'
3 '-x+1/2, y+1/2, z+1/2'
4 '-x, -y, -z'
5 '-x+1/2, -y, z+1/2'
6 '-x, y+1/2, -z'
7 'x+1/2, -y+1/2, -z+1/2'
8 'x, y, z'
loop_
_atom_type_symbol
_atom_type_oxidation_number
Li1+ 1
Fe3+ 3
Si4+ 4
O2- -2
loop_
_atom_site_label
_atom_site_type_symbol
_atom_site_symmetry_multiplicity
_atom_site_Wyckoff_symbol
_atom_site_fract_x
_atom_site_fract_y
_atom_site_fract_z
_atom_site_B_iso_or_equiv
_atom_site_occupancy
_atom_site_attached_hydrogens
Li1 Li1+ 8 d 0.6586(10) 0.5042(11) 0.2086(21) 0.0063 0.501 0
Fe1 Fe3+ 8 d 0.6586(10) 0.5042(11) 0.2086(21) 0.0063 0.499 0
Si1 Si4+ 4 c 0.4266(12) 0.25 0.2708(46) 0.0047 1. 0
O1 O2- 4 c 0.4075(24) 0.25 0.6121(52) 0.0033 1. 0
O2 O2- 4 c 0.5527(25) 0.25 0.3023(96) 0.0179 1. 0
O3 O2- 8 d 0.3506(19) 0.0736(18) 0.2201(49) 0.0104 1. 0
#End of TTdata_238521-ICSD