
#(C) 2018 by FIZ Karlsruhe - Leibniz Institute for Information Infrastructure.  All rights reserved.
data_238783-ICSD
_database_code_ICSD 238783
_audit_creation_date 2016-02-01
_chemical_name_systematic 'Barium niobium lithium oxide (15/12/3/45)'
_chemical_formula_structural 'Ba15 Nb12 Li3 O45'
_chemical_formula_sum 'Ba15 Li3 Nb12 O45'
_chemical_name_structure_type Ba(Ir,Fe)O3-x
_exptl_crystal_density_diffrn 6.25
_cell_measurement_temperature 298.
_publ_section_title
'Reductive lithium insertion into B-cation deficient niobium perovskite oxides'
loop_
_citation_id
_citation_journal_full
_citation_year
_citation_journal_volume
_citation_page_first
_citation_page_last
_citation_journal_id_ASTM
primary 'Dalton Transactions' 2015 44 10636 10643 DTARAF
loop_
_publ_author_name
'Perejon, Antonio'
'Hayward, Michael A.'
_cell_length_a 5.8012(3)
_cell_length_b 5.8012(3)
_cell_length_c 35.675(2)
_cell_angle_alpha 90.
_cell_angle_beta 90.
_cell_angle_gamma 120.
_cell_volume 1039.75
_cell_formula_units_Z 1
_symmetry_space_group_name_H-M 'R -3 m H'
_symmetry_Int_Tables_number 166
_refine_ls_R_factor_all 0.0258
loop_
_symmetry_equiv_pos_site_id
_symmetry_equiv_pos_as_xyz
1 'x-y, -y, -z'
2 '-x, -x+y, -z'
3 'y, x, -z'
4 'x-y, x, -z'
5 'y, -x+y, -z'
6 '-x, -y, -z'
7 '-x+y, y, z'
8 'x, x-y, z'
9 '-y, -x, z'
10 '-x+y, -x, z'
11 '-y, x-y, z'
12 'x, y, z'
13 'x-y+2/3, -y+1/3, -z+1/3'
14 '-x+2/3, -x+y+1/3, -z+1/3'
15 'y+2/3, x+1/3, -z+1/3'
16 'x-y+2/3, x+1/3, -z+1/3'
17 'y+2/3, -x+y+1/3, -z+1/3'
18 '-x+2/3, -y+1/3, -z+1/3'
19 '-x+y+2/3, y+1/3, z+1/3'
20 'x+2/3, x-y+1/3, z+1/3'
21 '-y+2/3, -x+1/3, z+1/3'
22 '-x+y+2/3, -x+1/3, z+1/3'
23 '-y+2/3, x-y+1/3, z+1/3'
24 'x+2/3, y+1/3, z+1/3'
25 'x-y+1/3, -y+2/3, -z+2/3'
26 '-x+1/3, -x+y+2/3, -z+2/3'
27 'y+1/3, x+2/3, -z+2/3'
28 'x-y+1/3, x+2/3, -z+2/3'
29 'y+1/3, -x+y+2/3, -z+2/3'
30 '-x+1/3, -y+2/3, -z+2/3'
31 '-x+y+1/3, y+2/3, z+2/3'
32 'x+1/3, x-y+2/3, z+2/3'
33 '-y+1/3, -x+2/3, z+2/3'
34 '-x+y+1/3, -x+2/3, z+2/3'
35 '-y+1/3, x-y+2/3, z+2/3'
36 'x+1/3, y+2/3, z+2/3'
loop_
_atom_type_symbol
_atom_type_oxidation_number
Ba2+ 2
Nb4+ 4.75
Li1+ 1
O2- -2
loop_
_atom_site_label
_atom_site_type_symbol
_atom_site_symmetry_multiplicity
_atom_site_Wyckoff_symbol
_atom_site_fract_x
_atom_site_fract_y
_atom_site_fract_z
_atom_site_B_iso_or_equiv
_atom_site_occupancy
_atom_site_attached_hydrogens
Ba1 Ba2+ 6 c 0.6667 0.3333 0.0323(1) 0.0040(5) 1. 0
Ba2 Ba2+ 6 c 0. 0. 0.0979(1) 0.0050(7) 1. 0
Ba3 Ba2+ 3 b 0.3333 0.6667 0.1667 0.0083(8) 1. 0
Nb1 Nb4+ 6 c 0.3333 0.6667 0.0646(1) 0.0037(5) 1. 0
Nb2 Nb4+ 6 c 0.6667 0.3333 0.1334(1) 0.0023(4) 1. 0
Li1 Li1+ 3 a 0. 0. 0. 0.0016(8) 1. 0
O1 O2- 18 h 0.1720(1) 0.3440(3) 0.0371(1) 0.0099(4) 1. 0
O2 O2- 18 h 0.5002(1) 0.4997(1) 0.1021(1) 0.0063(5) 1. 0
O3 O2- 9 d 0.8333 0.6667 0.1667 0.0059(5) 1. 0
#End of TTdata_238783-ICSD