
#(C) 2018 by FIZ Karlsruhe - Leibniz Institute for Information Infrastructure.  All rights reserved.
data_238784-ICSD
_database_code_ICSD 238784
_audit_creation_date 2016-02-01
_chemical_name_systematic 'Barium niobium titanium lithium oxide (6/4/1/1/18)'
_chemical_formula_structural 'Ba6 Nb4 Ti Li O18'
_chemical_formula_sum 'Ba6 Li1 Nb4 O18 Ti1'
_exptl_crystal_density_diffrn 6.17
_publ_section_title
'Reductive lithium insertion into B-cation deficient niobium perovskite oxides'
loop_
_citation_id
_citation_journal_full
_citation_year
_citation_journal_volume
_citation_page_first
_citation_page_last
_citation_journal_id_ASTM
primary 'Dalton Transactions' 2015 44 10636 10643 DTARAF
loop_
_publ_author_name
'Perejon, Antonio'
'Hayward, Michael A.'
_cell_length_a 5.790(1)
_cell_length_b 5.790(1)
_cell_length_c 14.255(3)
_cell_angle_alpha 90.
_cell_angle_beta 90.
_cell_angle_gamma 120.
_cell_volume 413.86
_cell_formula_units_Z 1
_symmetry_space_group_name_H-M 'P -3'
_symmetry_Int_Tables_number 147
_refine_ls_R_factor_all 0.0234
loop_
_symmetry_equiv_pos_site_id
_symmetry_equiv_pos_as_xyz
1 'x-y, x, -z'
2 'y, -x+y, -z'
3 '-x, -y, -z'
4 '-x+y, -x, z'
5 '-y, x-y, z'
6 'x, y, z'
loop_
_atom_type_symbol
_atom_type_oxidation_number
Ba2+ 2
Nb4+ 4.75
Ti4+ 4
Nb4+ 4.75
Ti4+ 4
Nb4+ 4.75
Ti4+ 4
Li1+ 1
O2- -2
loop_
_atom_site_label
_atom_site_type_symbol
_atom_site_symmetry_multiplicity
_atom_site_Wyckoff_symbol
_atom_site_fract_x
_atom_site_fract_y
_atom_site_fract_z
_atom_site_B_iso_or_equiv
_atom_site_occupancy
_atom_site_attached_hydrogens
Ba1 Ba2+ 2 c 0. 0. 0.2421(4) 0.0031(2) 1. 0
Ba2 Ba2+ 2 d 0.3333 0.6667 0.4162(5) 0.0031(2) 1. 0
Ba3 Ba2+ 2 d 0.6667 0.3333 0.0767(5) 0.0031(2) 1. 0
Nb1 Nb4+ 2 d 0.3333 0.6667 0.1642(3) 0.0019(1) 0.93 0
Ti1 Ti4+ 2 d 0.3333 0.6667 0.1642(3) 0.0019(1) 0.07 0
Nb2 Nb4+ 2 d 0.6667 0.3333 0.3345(5) 0.0019(1) 0.72 0
Ti2 Ti4+ 2 d 0.6667 0.3333 0.3345(5) 0.0019(1) 0.28 0
Nb3 Nb4+ 1 b 0. 0. 0.5 0.0019(1) 0.7 0
Ti3 Ti4+ 1 b 0. 0. 0.5 0.0019(1) 0.3 0
Li1 Li1+ 1 a 0. 0. 0. 0.0019(1) 1. 0
O1 O2- 6 g 0.1734(31) 0.3450(32) 0.0854(2) 0.0080(1) 1. 0
O2 O2- 6 g 0.4981(22) 0.4927(22) 0.2470(2) 0.0080(1) 1. 0
O3 O2- 6 g 0.8321(43) 0.1633(43) 0.4089(2) 0.0080(1) 1. 0
#End of TTdata_238784-ICSD