
#(C) 2017 by FIZ Karlsruhe - Leibniz Institute for Information Infrastructure.  All rights reserved.
data_23883-ICSD
_database_code_ICSD 23883
_audit_creation_date 1986-09-30
_audit_update_record 2005-10-01
_chemical_name_systematic 'Lithium hydrogendifluoride'
_chemical_formula_structural 'Li (H F2)'
_chemical_formula_sum 'H1 F2 Li1'
_chemical_name_structure_type CrOOH(R3-m)
_exptl_crystal_density_diffrn 2.22
_publ_section_title 'The crystal structure of Li H F2'
loop_
_citation_id
_citation_journal_full
_citation_year
_citation_journal_volume
_citation_page_first
_citation_page_last
_citation_journal_id_ASTM
primary 'Acta Crystallographica (1,1948-23,1967)' 1962 15 286 286 ACCRA9
loop_
_publ_author_name
'Frevel, L.K.'
'Rinn, H.W.'
_cell_length_a 4.725(5)
_cell_length_b 4.725(5)
_cell_length_c 4.725(5)
_cell_angle_alpha 37.05(3)
_cell_angle_beta 37.05(3)
_cell_angle_gamma 37.05(3)
_cell_volume 34.32
_cell_formula_units_Z 1
_symmetry_space_group_name_H-M 'R -3 m R'
_symmetry_Int_Tables_number 166
loop_
_symmetry_equiv_pos_site_id
_symmetry_equiv_pos_as_xyz
1 '-z, -y, -x'
2 '-z, -x, -y'
3 '-x, -z, -y'
4 '-y, -z, -x'
5 '-y, -x, -z'
6 '-x, -y, -z'
7 'z, y, x'
8 'z, x, y'
9 'x, z, y'
10 'y, z, x'
11 'y, x, z'
12 'x, y, z'
loop_
_atom_type_symbol
_atom_type_oxidation_number
Li1+ 1
H1+ 1
F1- -1
loop_
_atom_site_label
_atom_site_type_symbol
_atom_site_symmetry_multiplicity
_atom_site_Wyckoff_symbol
_atom_site_fract_x
_atom_site_fract_y
_atom_site_fract_z
_atom_site_B_iso_or_equiv
_atom_site_occupancy
_atom_site_attached_hydrogens
Li1 Li1+ 1 a 0 0 0 1.5(3) 1. 0
H1 H1+ 1 b 0.5 0.5 0.5 1.5(3) 1. 0
F1 F1- 2 c 0.414(4) 0.414(4) 0.414(4) 1.5(3) 1. 0
#End of TTdata_23883-ICSD