
#(C) 2018 by FIZ Karlsruhe - Leibniz Institute for Information Infrastructure.  All rights reserved.
data_239000-ICSD
_database_code_ICSD 239000
_audit_creation_date 2016-02-01
_chemical_name_systematic 'Tetralithium calcium diborate'
_chemical_formula_structural 'Li4 Ca B2 O6'
_chemical_formula_sum 'B2 Ca1 Li4 O6'
_exptl_crystal_density_diffrn 2.35
_cell_measurement_temperature 296.
_publ_section_title

;
Effect of cation substitution on structural transition: synthesis,
characterization and theoretical studies of Na Ca4 B3 O9, Na Ca B O3, Na Sr B
O3 and Li4 Ca B2 O6
;
loop_
_citation_id
_citation_journal_full
_citation_year
_citation_journal_volume
_citation_page_first
_citation_page_last
_citation_journal_id_ASTM
primary 'Physical Chemistry Chemical Physics' 2015 17 26359 26368 PPCPFQ
loop_
_publ_author_name
'Yang, Yun'
'Su, Xin'
'Pan, Shilie'
'Yang, Zhihua'
_cell_length_a 9.277(12)
_cell_length_b 8.100(10)
_cell_length_c 3.488(5)
_cell_angle_alpha 90.
_cell_angle_beta 90.
_cell_angle_gamma 90.
_cell_volume 262.1
_cell_formula_units_Z 2
_symmetry_space_group_name_H-M 'P n n m'
_symmetry_Int_Tables_number 58
_refine_ls_R_factor_all 0.0209
loop_
_symmetry_equiv_pos_site_id
_symmetry_equiv_pos_as_xyz
1 'x+1/2, -y+1/2, z+1/2'
2 '-x+1/2, y+1/2, z+1/2'
3 'x, y, -z'
4 '-x, -y, -z'
5 '-x+1/2, y+1/2, -z+1/2'
6 'x+1/2, -y+1/2, -z+1/2'
7 '-x, -y, z'
8 'x, y, z'
loop_
_atom_type_symbol
_atom_type_oxidation_number
Li1+ 1
Ca2+ 2
B3+ 3
O2- -2
loop_
_atom_site_label
_atom_site_type_symbol
_atom_site_symmetry_multiplicity
_atom_site_Wyckoff_symbol
_atom_site_fract_x
_atom_site_fract_y
_atom_site_fract_z
_atom_site_B_iso_or_equiv
_atom_site_occupancy
_atom_site_attached_hydrogens
Li1 Li1+ 4 g 0.3023(5) -0.0128(5) 0.5 0.0143(9) 1 0
Li2 Li1+ 4 g 0.5487(5) 0.1690(6) 0. 0.0159(9) 1 0
Ca1 Ca2+ 2 a 0. 0. 1. 0.0091(3) 1 0
B1 B3+ 4 g 0.2909(3) 0.2290(3) 1. 0.0088(6) 1 0
O1 O2- 4 g 0.14238(17) 0.2525(2) 1. 0.0110(4) 1 0
O2 O2- 4 g 0.35075(18) 0.0733(2) 1. 0.0119(4) 1 0
O3 O2- 4 g 0.11901(18) -0.1343(2) 0.5 0.0101(4) 1 0
loop_
_atom_site_aniso_label
_atom_site_aniso_type_symbol
_atom_site_aniso_U_11
_atom_site_aniso_U_22
_atom_site_aniso_U_33
_atom_site_aniso_U_12
_atom_site_aniso_U_13
_atom_site_aniso_U_23
Li1 Li1+ 0.016(2) 0.013(2) 0.014(2) -0.0016(16) 0. 0.
Li2 Li1+ 0.015(2) 0.020(2) 0.013(2) -0.0020(18) 0. 0.
Ca1 Ca2+ 0.0118(4) 0.0084(4) 0.0072(4) 0.0012(2) 0. 0.
B1 B3+ 0.0117(12) 0.0106(12) 0.0042(12) -0.0009(10) 0. 0.
O1 O2- 0.0096(8) 0.0106(9) 0.0129(9) -0.0008(6) 0. 0.
O2 O2- 0.0147(9) 0.0085(8) 0.0127(10) 0.0003(7) 0. 0.
O3 O2- 0.0110(8) 0.0099(8) 0.0094(9) 0.0019(7) 0. 0.
#End of TTdata_239000-ICSD