
#(C) 2018 by FIZ Karlsruhe - Leibniz Institute for Information Infrastructure.  All rights reserved.
data_239378-ICSD
_database_code_ICSD 239378
_audit_creation_date 2016-08-01
_chemical_name_systematic 'Lithium tantalate(V)'
_chemical_formula_structural 'Li Ta O3'
_chemical_formula_sum 'Li1 O3 Ta1'
_chemical_name_structure_type LiNbO3
_exptl_crystal_density_diffrn 8.81
_cell_measurement_pressure 26600000.
_publ_section_title

;
Pressure-induced ferroelectric to paraelectric transition in Li Ta O3 and (Li,
Mg) Ta O3
;
loop_
_citation_id
_citation_journal_full
_citation_year
_citation_journal_volume
_citation_page_first
_citation_page_last
_citation_journal_id_ASTM
primary 'Journal of Applied Physics (Melville, NY, United States)' 2016 119
075902-1 075902-12 JAPIAU
loop_
_publ_author_name
'Yamanaka, Takamitsu'
'Nakamoto, Yuki'
'Takei, Fumihiko'
'Ahart, Muhtar'
'Mao, Ho-Kwang'
'Hemley, Russell J.'
_cell_length_a 4.8649(2)
_cell_length_b 4.8649(2)
_cell_length_c 13.022(10)
_cell_angle_alpha 90.
_cell_angle_beta 90.
_cell_angle_gamma 120.
_cell_volume 266.9
_cell_formula_units_Z 6
_symmetry_space_group_name_H-M 'R 3 c H'
_symmetry_Int_Tables_number 161
_refine_ls_R_factor_all 0.0417
loop_
_symmetry_equiv_pos_site_id
_symmetry_equiv_pos_as_xyz
1 '-x+y, y, z+1/2'
2 'x, x-y, z+1/2'
3 '-y, -x, z+1/2'
4 '-x+y, -x, z'
5 '-y, x-y, z'
6 'x, y, z'
7 '-x+y+2/3, y+1/3, z+5/6'
8 'x+2/3, x-y+1/3, z+5/6'
9 '-y+2/3, -x+1/3, z+5/6'
10 '-x+y+2/3, -x+1/3, z+1/3'
11 '-y+2/3, x-y+1/3, z+1/3'
12 'x+2/3, y+1/3, z+1/3'
13 '-x+y+1/3, y+2/3, z+1/6'
14 'x+1/3, x-y+2/3, z+1/6'
15 '-y+1/3, -x+2/3, z+1/6'
16 '-x+y+1/3, -x+2/3, z+2/3'
17 '-y+1/3, x-y+2/3, z+2/3'
18 'x+1/3, y+2/3, z+2/3'
loop_
_atom_type_symbol
_atom_type_oxidation_number
Li1+ 1
Ta5+ 5
O2- -2
loop_
_atom_site_label
_atom_site_type_symbol
_atom_site_symmetry_multiplicity
_atom_site_Wyckoff_symbol
_atom_site_fract_x
_atom_site_fract_y
_atom_site_fract_z
_atom_site_B_iso_or_equiv
_atom_site_occupancy
_atom_site_attached_hydrogens
Li1 Li1+ 6 a 0 0 0.336(6) 0.46(21) 1. 0
Ta1 Ta5+ 6 a 0 0 0 0.79(2) 1. 0
O1 O2- 18 b 0.007(10) 0.326(12) 0.096(14) 1.21(19) 1. 0
#End of TTdata_239378-ICSD