
#(C) 2018 by FIZ Karlsruhe - Leibniz Institute for Information Infrastructure.  All rights reserved.
data_239791-ICSD
_database_code_ICSD 239791
_audit_creation_date 2016-08-01
_chemical_name_systematic 'Lithium scandium tris(selenate(IV)) hydrate'
_chemical_formula_structural 'Li Sc (Se O3)2 (H2 O)'
_chemical_formula_sum 'H2 Li1 O7 Sc1 Se2'
_exptl_crystal_density_diffrn 3.21
_cell_measurement_temperature 298.
_publ_section_title

;
Li Sc (Se O3)2.x H2 O (0 <= x <= 1): new selenites revealing water
molecule-driven extremely high temperature single-crystal-to-single-crystal
transformations
;
loop_
_citation_id
_citation_journal_full
_citation_year
_citation_journal_volume
_citation_page_first
_citation_page_last
_citation_journal_id_ASTM
primary 'Crystal Growth & Design' 2016 16 3076 3080 CGDEFU
loop_
_publ_author_name
'Song, Seung Yoon'
'Ok, Kang Min'
_cell_length_a 17.2330(2)
_cell_length_b 5.5160(2)
_cell_length_c 15.7647(2)
_cell_angle_alpha 90
_cell_angle_beta 116.523(10)
_cell_angle_gamma 90
_cell_volume 1340.83
_cell_formula_units_Z 8
_symmetry_space_group_name_H-M 'P 1 2/c 1'
_symmetry_Int_Tables_number 13
_refine_ls_R_factor_all 0.0288
loop_
_symmetry_equiv_pos_site_id
_symmetry_equiv_pos_as_xyz
1 'x, -y, z+1/2'
2 '-x, -y, -z'
3 '-x, y, -z+1/2'
4 'x, y, z'
loop_
_atom_type_symbol
_atom_type_oxidation_number
Se4+ 4
Sc3+ 3
O2- -2
Li1+ 1
H1+ 1
loop_
_atom_site_label
_atom_site_type_symbol
_atom_site_symmetry_multiplicity
_atom_site_Wyckoff_symbol
_atom_site_fract_x
_atom_site_fract_y
_atom_site_fract_z
_atom_site_B_iso_or_equiv
_atom_site_occupancy
_atom_site_attached_hydrogens
Se1 Se4+ 4 g 0.64056(3) 1.50078(7) 0.13059(3) 0.01128(11) 1 0
Se2 Se4+ 4 g 0.55895(3) 0.93607(8) -0.09748(3) 0.01280(12) 1 0
Se3 Se4+ 4 g 0.94228(3) 0.99659(7) 0.36610(3) 0.01046(11) 1 0
Se4 Se4+ 4 g 0.87609(3) 0.50730(7) 0.13754(3) 0.01147(11) 1 0
Sc1 Sc3+ 2 f 0.5 1.56450(19) 0.25 0.0097(2) 1 0
Sc2 Sc3+ 4 g 0.75652(5) 1.00203(13) 0.12806(5) 0.00984(17) 1 0
Sc3 Sc3+ 2 c 1 0.5 0 0.0096(2) 1 0
O1 O2- 4 g 0.5862(2) 1.5651(6) 0.1922(2) 0.0271(8) 1 0
O2 O2- 4 g 0.5762(2) 0.6953(5) -0.1528(2) 0.0242(8) 1 0
O3 O2- 4 g 0.57689(19) 1.1652(5) -0.1565(2) 0.0195(7) 1 0
O4 O2- 4 g 0.6509(2) 0.9395(6) 0.0030(2) 0.0285(8) 1 0
O5 O2- 4 g 0.8610(2) 1.0512(5) 0.2593(2) 0.0215(7) 1 0
O6 O2- 4 g 0.79422(19) 0.3086(5) 0.0765(2) 0.0140(7) 1 0
O7 O2- 4 g 0.68318(19) 1.2273(5) 0.1743(2) 0.0166(7) 1 0
O8 O2- 4 g 0.72831(18) 0.6841(5) 0.1858(2) 0.0130(6) 1 0
O9 O2- 4 g 0.83255(19) 0.7750(5) 0.0845(2) 0.0139(7) 1 0
O10 O2- 4 g 0.9432(2) 0.4526(5) 0.0895(2) 0.0219(7) 1 0
O11 O2- 4 g 0.92073(18) 1.1985(5) 0.4357(2) 0.0133(7) 1 0
O12 O2- 4 g 0.90780(18) 0.7357(5) 0.3965(2) 0.0156(7) 1 0
O13 O2- 4 g 0.72920(19) 1.0109(5) -0.1561(2) 0.0151(7) 1 0
O14 O2- 4 g 0.7446(2) 0.5136(6) -0.0982(2) 0.0163(7) 1 0
Li1 Li1+ 4 g 0.7807(5) 1.6883(14) 0.3248(6) 0.0213(18) 1 0
Li2 Li1+ 4 g 0.8114(5) 0.8213(14) -0.0493(5) 0.0203(18) 1 0
H1 H1+ 4 g 0.6835(16) 1.066(8) -0.156(3) 0.037(16) 1 0
H2 H1+ 4 g 0.709(2) 0.927(7) -0.2067(19) 0.028(15) 1 0
H3 H1+ 4 g 0.749(3) 0.430(7) -0.052(2) 0.024(14) 1 0
H4 H1+ 4 g 0.6911(11) 0.553(9) -0.124(3) 0.06(2) 1 0
loop_
_atom_site_aniso_label
_atom_site_aniso_type_symbol
_atom_site_aniso_U_11
_atom_site_aniso_U_22
_atom_site_aniso_U_33
_atom_site_aniso_U_12
_atom_site_aniso_U_13
_atom_site_aniso_U_23
Se1 Se4+ 0.0110(2) 0.0116(2) 0.0114(2) -0.00016(17) 0.00522(17) 0.00029(17)
Se2 Se4+ 0.0119(2) 0.0138(2) 0.0120(2) -0.00082(17) 0.00479(18) 0.00006(17)
Se3 Se4+ 0.0095(2) 0.0111(2) 0.0102(2) -0.00059(16) 0.00388(17) -0.00061(17)
Se4 Se4+ 0.0126(2) 0.0127(2) 0.0109(2) 0.00017(17) 0.00683(17) 0.00076(17)
Sc1 Sc3+ 0.0075(6) 0.0087(5) 0.0116(6) 0 0.0033(5) 0
Sc2 Sc3+ 0.0120(4) 0.0089(4) 0.0090(4) -0.0002(3) 0.0050(3) -0.0001(3)
Sc3 Sc3+ 0.0083(5) 0.0084(5) 0.0113(5) 0.0007(4) 0.0038(4) 0.0005(4)
O1 O2- 0.0248(19) 0.0284(19) 0.042(2) 0.0014(15) 0.0274(18) -0.0036(16)
O2 O2- 0.0195(19) 0.0177(17) 0.0277(19) -0.0010(14) 0.0036(16) -0.0097(14)
O3 O2- 0.0186(18) 0.0174(16) 0.0245(18) 0.0060(13) 0.0116(15) 0.0094(14)
O4 O2- 0.027(2) 0.033(2) 0.0106(16) -0.0042(15) -0.0042(15) 0.0011(14)
O5 O2- 0.0218(18) 0.0249(18) 0.0099(15) -0.0033(14) -0.0002(14) 0.0029(13)
O6 O2- 0.0194(17) 0.0104(15) 0.0116(15) -0.0022(12) 0.0064(14) 0.0030(12)
O7 O2- 0.0231(19) 0.0112(15) 0.0217(18) 0.0044(13) 0.0155(15) 0.0036(13)
O8 O2- 0.0168(17) 0.0114(15) 0.0120(15) -0.0037(12) 0.0073(13) 0.0002(12)
O9 O2- 0.0192(17) 0.0097(15) 0.0177(17) 0.0026(12) 0.0126(14) 0.0009(12)
O10 O2- 0.0212(18) 0.0225(17) 0.0319(19) 0.0046(14) 0.0208(16) 0.0055(14)
O11 O2- 0.0155(17) 0.0116(15) 0.0142(16) -0.0014(12) 0.0078(14) -0.0034(12)
O12 O2- 0.0145(17) 0.0099(15) 0.0190(17) -0.0018(12) 0.0045(14) 0.0027(12)
O13 O2- 0.0138(16) 0.0149(16) 0.0174(17) 0.0028(13) 0.0076(14) 0.0014(14)
O14 O2- 0.0165(18) 0.0171(17) 0.0158(16) 0.0020(14) 0.0076(14) 0.0028(14)
Li1 Li1+ 0.014(4) 0.027(4) 0.023(4) 0.000(3) 0.009(4) -0.006(4)
Li2 Li1+ 0.022(5) 0.023(4) 0.014(4) -0.003(3) 0.007(4) 0.000(3)
#End of TTdata_239791-ICSD