
#(C) 2018 by FIZ Karlsruhe - Leibniz Institute for Information Infrastructure.  All rights reserved.
data_239870-ICSD
_database_code_ICSD 239870
_audit_creation_date 2016-08-01
_chemical_name_systematic
'Lithium manganese cobalt nickel oxide (1.6/0.3/0.2/0.3/2)'
_chemical_formula_structural 'Li1.6 Mn0.3 Co0.2 Ni0.3 O2'
_chemical_formula_sum 'Co0.2 Li1.6 Mn0.3 Ni0.3 O2'
_exptl_crystal_density_diffrn 4.47
_cell_measurement_temperature 300.
_publ_section_title

;
Synthesis, crystal structure, and electrochemical properties of Li1.2+x Mn0.3
Co0.2 Ni0.3 O2 (x > O) for lithium-ion battery cathodes
;
loop_
_citation_id
_citation_journal_full
_citation_year
_citation_journal_volume
_citation_page_first
_citation_page_last
_citation_journal_id_ASTM
primary 'Electrochemistry (Tokyo, Japan)' 2015 83 820 823 EECTFA
loop_
_publ_author_name
'Mizuno, Yoshifumi'
'Matsuda, Yasuaki'
'Suzuki, Kota'
'Yonemura, Masao'
'Hirayamara, Masaaki'
'Kannoa, Ryoji'
_cell_length_a 4.9260(2)
_cell_length_b 8.5165(3)
_cell_length_c 5.0080(2)
_cell_angle_alpha 90
_cell_angle_beta 109.202(2)
_cell_angle_gamma 90
_cell_volume 198.41
_cell_formula_units_Z 6
_symmetry_space_group_name_H-M 'C 1 2/m 1'
_symmetry_Int_Tables_number 12
_refine_ls_R_factor_all 0.0452
loop_
_symmetry_equiv_pos_site_id
_symmetry_equiv_pos_as_xyz
1 '-x, y, -z'
2 '-x, -y, -z'
3 'x, -y, z'
4 'x, y, z'
5 '-x+1/2, y+1/2, -z'
6 '-x+1/2, -y+1/2, -z'
7 'x+1/2, -y+1/2, z'
8 'x+1/2, y+1/2, z'
loop_
_atom_type_symbol
_atom_type_oxidation_number
Li1+ 1
Mn4+ 4.4
Co3+ 3
Ni3+ 3
Li1+ 1
Ni3+ 3
Li1+ 1
Mn4+ 4.4
Co3+ 3
Ni3+ 3
O2- -2
Li1+ 1
loop_
_atom_site_label
_atom_site_type_symbol
_atom_site_symmetry_multiplicity
_atom_site_Wyckoff_symbol
_atom_site_fract_x
_atom_site_fract_y
_atom_site_fract_z
_atom_site_B_iso_or_equiv
_atom_site_occupancy
_atom_site_attached_hydrogens
Li1 Li1+ 2 b 0 0.5 0 0.26(5) 0.059(11) 0
Mn1 Mn4+ 2 b 0 0.5 0 0.26(5) 0.2502(5) 0
Co1 Co3+ 2 b 0 0.5 0 0.26(5) 0.1553(8) 0
Ni1 Ni3+ 2 b 0 0.5 0 0.26(5) 0.1476(2) 0
Li2 Li1+ 2 c 0 0 0.5 1.25(8) 1. 0
Li3 Li1+ 4 h 0 0.6878(3) 0.5 1.27(5) 0.979(15) 0
Ni2 Ni3+ 4 h 0 0.6878(3) 0.5 1.27(5) 0.0207(2) 0
Li4 Li1+ 4 g 0 0.1827(2) 0 0.50(3) 0.1237(6) 0
Mn2 Mn4+ 4 g 0 0.1827(2) 0 0.50(3) 0.3324(3) 0
Co2 Co3+ 4 g 0 0.1827(2) 0 0.50(3) 0.2197(5) 0
Ni3 Ni3+ 4 g 0 0.1827(2) 0 0.50(3) 0.3340(12) 0
O1 O2- 4 i 0.2555(3) 0 0.2247(4) 0.641(6) 1. 0
O2 O2- 8 j 0.2463(2) 0.34142(7) 0.2223(2) 0.641(6) 1. 0
Li5 Li1+ 8 j 0.907(2) 0.670(3) 0.101(2) 1.0(14) 0.096(2) 0
#End of TTdata_239870-ICSD