
#(C) 2018 by FIZ Karlsruhe - Leibniz Institute for Information Infrastructure.  All rights reserved.
data_239821-ICSD
_database_code_ICSD 239821
_audit_creation_date 2016-08-01
_chemical_name_systematic 'Dilithium germanium trimolybdenum octaoxide'
_chemical_formula_structural 'Li2 Ge Mo3 O8'
_chemical_formula_sum 'Ge1 Li2 Mo3 O8'
_exptl_crystal_density_diffrn 5.88
_cell_measurement_temperature 293.
_publ_section_title

;
Li2 Ge Mo3 O8: a novel reduced molybdenum oxide containing Mo3 O13 cluster
units
;
loop_
_citation_id
_citation_journal_full
_citation_year
_citation_journal_volume
_citation_page_first
_citation_page_last
_citation_journal_id_ASTM
primary 'Acta Crystallographica, Section E: Structure Reports Online' 2016 72
995 997 ACSEBH
loop_
_publ_author_name
'Gall, Philippe'
'Gougeon, Patrick'
_cell_length_a 5.7268(3)
_cell_length_b 5.7268(3)
_cell_length_c 9.9841(6)
_cell_angle_alpha 90.
_cell_angle_beta 90.
_cell_angle_gamma 120.
_cell_volume 283.57
_cell_formula_units_Z 2
_symmetry_space_group_name_H-M 'P 63 m c'
_symmetry_Int_Tables_number 186
_refine_ls_R_factor_all 0.0304
loop_
_symmetry_equiv_pos_site_id
_symmetry_equiv_pos_as_xyz
1 '-x, -x+y, z+1/2'
2 'x-y, -y, z+1/2'
3 'y, x, z+1/2'
4 'x-y, x, z+1/2'
5 'y, -x+y, z+1/2'
6 '-x, -y, z+1/2'
7 'x, x-y, z'
8 '-x+y, y, z'
9 '-y, -x, z'
10 '-x+y, -x, z'
11 '-y, x-y, z'
12 'x, y, z'
loop_
_atom_type_symbol
_atom_type_oxidation_number
Li1+ 1
Ge4+ 4
Mo3+ 3.33
O2- -2
loop_
_atom_site_label
_atom_site_type_symbol
_atom_site_symmetry_multiplicity
_atom_site_Wyckoff_symbol
_atom_site_fract_x
_atom_site_fract_y
_atom_site_fract_z
_atom_site_B_iso_or_equiv
_atom_site_occupancy
_atom_site_attached_hydrogens
Li1 Li1+ 2 a 1. 1. 1.581(2) 0.014(3) 1 0
Li2 Li1+ 2 b 1.3333 0.6667 1.490(2) 0.014(3) 1 0
Ge1 Ge4+ 2 b 1.3333 0.6667 1.09391(9) 0.0076(2) 1 0
Mo1 Mo3+ 6 c 1.37881(9) 1.18940(4) 1.30891(9) 0.00660(13) 1 0
O1 O2- 6 c 1.4795(4) 0.5205(4) 1.9536(5) 0.0081(8) 1 0
O2 O2- 6 c 1.1704(6) 0.8296(6) 1.1906(5) 0.0081(8) 1 0
O3 O2- 2 a 1. 1. 1.3974(7) 0.0110(14) 1 0
O4 O2- 2 b 1.3333 0.6667 1.6680(8) 0.0080(13) 1 0
loop_
_atom_site_aniso_label
_atom_site_aniso_type_symbol
_atom_site_aniso_U_11
_atom_site_aniso_U_22
_atom_site_aniso_U_33
_atom_site_aniso_U_12
_atom_site_aniso_U_13
_atom_site_aniso_U_23
Ge1 Ge4+ 0.0076(3) 0.0076(3) 0.0076(4) 0.00381(14) 0. 0.
Mo1 Mo3+ 0.00622(19) 0.00662(16) 0.00683(19) 0.00311(10) -0.00015(18)
-0.00007(9)
O1 O2- 0.0079(13) 0.0079(13) 0.0094(18) 0.0045(14) 0.0007(8) -0.0007(8)
O2 O2- 0.0071(12) 0.0071(12) 0.010(2) 0.0034(13) 0.0017(9) -0.0017(9)
O3 O2- 0.012(2) 0.012(2) 0.010(3) 0.0058(10) 0. 0.
O4 O2- 0.0102(19) 0.0102(19) 0.004(3) 0.0051(9) 0. 0.
#End of TTdata_239821-ICSD