
#(C) 2018 by FIZ Karlsruhe - Leibniz Institute for Information Infrastructure.  All rights reserved.
data_239980-ICSD
_database_code_ICSD 239980
_audit_creation_date 2017-08-01
_chemical_name_systematic 'Lithium strontium lead borate (1/0.5/0.5/1)'
_chemical_formula_structural 'Li (Sr0.5 Pb0.5) B O3'
_chemical_formula_sum 'B1 Li1 O3 Pb0.5 Sr0.5'
_chemical_name_structure_type LiSrBO3
_exptl_crystal_density_diffrn 5.01
_publ_section_title

;
Manipulation of birefringence via substitution of Sr2+ by Pb2+ based on the
structure model of Li Sr1-x Pbx B O3 (0 <= x <= 0.5)
;
loop_
_citation_id
_citation_journal_full
_citation_year
_citation_journal_volume
_citation_page_first
_citation_page_last
_citation_journal_id_ASTM
primary 'New Journal of Chemistry' 2016 40 6120 6126 NJCHE5
loop_
_publ_author_name
'Mutailipu, Miriding'
'Hou, Dianwei'
'Zhang, Min'
'Yang, Zhihua'
'Pan, Shilie'
_cell_length_a 6.315(7)
_cell_length_b 6.891(7)
_cell_length_c 6.936(7)
_cell_angle_alpha 90
_cell_angle_beta 110.500(11)
_cell_angle_gamma 90
_cell_volume 282.72
_cell_formula_units_Z 4
_symmetry_space_group_name_H-M 'P 1 21/n 1'
_symmetry_Int_Tables_number 14
_refine_ls_R_factor_all 0.0298
loop_
_symmetry_equiv_pos_site_id
_symmetry_equiv_pos_as_xyz
1 '-x+1/2, y+1/2, -z+1/2'
2 '-x, -y, -z'
3 'x+1/2, -y+1/2, z+1/2'
4 'x, y, z'
loop_
_atom_type_symbol
_atom_type_oxidation_number
Sr2+ 2
Pb2+ 2
Li1+ 1
B3+ 3
O2- -2
loop_
_atom_site_label
_atom_site_type_symbol
_atom_site_symmetry_multiplicity
_atom_site_Wyckoff_symbol
_atom_site_fract_x
_atom_site_fract_y
_atom_site_fract_z
_atom_site_B_iso_or_equiv
_atom_site_occupancy
_atom_site_attached_hydrogens
Sr1 Sr2+ 4 e 0.2033(7) 0.8650(5) 0.3628(6) 0.0145(2) 0.5 0
Pb1 Pb2+ 4 e 0.2033(7) 0.8650(5) 0.3628(6) 0.0145(2) 0.5 0
Li1 Li1+ 4 e 0.395(2) 0.0725(19) -0.198(2) 0.022(3) 1. 0
B1 B3+ 4 e 0.1924(15) 0.8435(11) -0.0748(14) 0.0114(16) 1. 0
O1 O2- 4 e 0.1019(10) 0.6825(8) -0.0107(9) 0.0181(12) 1. 0
O2 O2- 4 e 0.2894(9) 0.9905(8) 0.0624(9) 0.0170(12) 1. 0
O3 O2- 4 e 0.1949(19) 0.8481(10) -0.2680(12) 0.063(3) 1. 0
#End of TTdata_239980-ICSD