
#(C) 2018 by FIZ Karlsruhe - Leibniz Institute for Information Infrastructure.  All rights reserved.
data_239963-ICSD
_database_code_ICSD 239963
_audit_creation_date 2017-08-01
_chemical_name_systematic 'Dilithium iron(II) bis(sulfate(VI))'
_chemical_formula_structural 'Li2 Fe (S O4)2'
_chemical_formula_sum 'Fe1 Li2 O8 S2'
_exptl_crystal_density_diffrn 2.98
_cell_measurement_temperature 30.
_publ_section_title

;
Unveiling the electrochemical mechanisms of Li2 Fe (S O4)2 polymorphs by
neutron diffraction and density functional theory calculations
;
loop_
_citation_id
_citation_journal_full
_citation_year
_citation_journal_volume
_citation_page_first
_citation_page_last
_citation_journal_id_ASTM
primary 'Physical Chemistry Chemical Physics' 2016 18 14509 14519 PPCPFQ
loop_
_publ_author_name
'Lander, Laura'
'Reynaud, Marine'
'Carrasco, Javier'
'Katcho, Nebil A.'
'Bellin, Christophe'
'Polian, Alain'
'Baptiste, Benoit'
'Rousse, Gwenaelle'
'Tarascon, Jean-Marie'
_cell_length_a 9.2798(9)
_cell_length_b 9.2089(11)
_cell_length_c 13.6765(14)
_cell_angle_alpha 90.
_cell_angle_beta 90.
_cell_angle_gamma 90.
_cell_volume 1168.75
_cell_formula_units_Z 8
_symmetry_space_group_name_H-M 'P b c a'
_symmetry_Int_Tables_number 61
_refine_ls_R_factor_all 0.0123
loop_
_symmetry_equiv_pos_site_id
_symmetry_equiv_pos_as_xyz
1 'x+1/2, y, -z+1/2'
2 'x, -y+1/2, z+1/2'
3 '-x+1/2, y+1/2, z'
4 '-x, -y, -z'
5 '-x+1/2, -y, z+1/2'
6 '-x, y+1/2, -z+1/2'
7 'x+1/2, -y+1/2, -z'
8 'x, y, z'
loop_
_atom_type_symbol
_atom_type_oxidation_number
Li1+ 1
Fe2+ 2
S6+ 6
O2- -2
loop_
_atom_site_label
_atom_site_type_symbol
_atom_site_symmetry_multiplicity
_atom_site_Wyckoff_symbol
_atom_site_fract_x
_atom_site_fract_y
_atom_site_fract_z
_atom_site_B_iso_or_equiv
_atom_site_occupancy
_atom_site_attached_hydrogens
Li1 Li1+ 8 c 0.489(7) 0.712(7) 0.355(5) 1.3(2) 1. 0
Li2 Li1+ 8 c 0.747(6) 0.560(5) 0.624(5) 1.3(2) 1. 0
Fe1 Fe2+ 8 c 0.8635(12) 0.6024(14) 0.3763(10) 0.62(4) 1. 0
S1 S6+ 8 c 0.6600(14) 0.8129(13) 0.5109(10) 1.20(11) 1. 0
S2 S6+ 8 c 0.5777(15) 0.4250(15) 0.2734(10) 1.20(11) 1. 0
O1 O2- 8 c 0.5010(13) 0.8005(19) 0.5198(12) 0.84(2) 1. 0
O2 O2- 8 c 0.7107(17) 0.9667(13) 0.4997(12) 0.84(2) 1. 0
O3 O2- 8 c 0.687(2) 0.7288(16) 0.4193(10) 2.00(8) 1. 0
O4 O2- 8 c 0.7455(17) 0.7411(18) 0.5904(11) 0.84(2) 1. 0
O5 O2- 8 c 0.4847(16) 0.500(2) 0.3470(11) 0.84(2) 1. 0
O6 O2- 8 c 0.533(2) 0.4643(17) 0.1720(9) 0.84(2) 1. 0
O7 O2- 8 c 0.5684(19) 0.2633(12) 0.2786(14) 0.84(2) 1. 0
O8 O2- 8 c 0.7294(15) 0.478(3) 0.2780(13) 0.84(2) 1. 0
#End of TTdata_239963-ICSD