
#(C) 2018 by FIZ Karlsruhe - Leibniz Institute for Information Infrastructure.  All rights reserved.
data_240664-ICSD
_database_code_ICSD 240664
_audit_creation_date 2007-08-01
_audit_update_record 2008-02-01
_chemical_name_systematic 'Lithium pentagadolino(III)diphosphate(V)'
_chemical_formula_structural 'Li (Gd5 P2 O13)'
_chemical_formula_sum 'Gd5 Li1 O13 P2'
_exptl_crystal_density_diffrn 6.32
_publ_section_title

;
Synthesis, crystal structure, and optical properties of Li Gd5 P2 O13, a
layered lithium gadolinium phosphate containing one-dimensional Li chains
;
loop_
_citation_id
_citation_journal_full
_citation_year
_citation_journal_volume
_citation_page_first
_citation_page_last
_citation_journal_id_ASTM
primary 'Inorganic Chemistry' 2007 46 208 212 INOCAJ
loop_
_publ_author_name
'Zhu, J.'
'Cheng, W.-D.'
'Wu, D.-S.'
'Zhang, H.'
'Gong, Y.-J.'
'Tong, H.-N.'
'Zhao, D.'
_cell_length_a 18.645(3)
_cell_length_b 5.6257(5)
_cell_length_c 12.014(2)
_cell_angle_alpha 90.
_cell_angle_beta 117.547(6)
_cell_angle_gamma 90.
_cell_volume 1117.3
_cell_formula_units_Z 4
_symmetry_space_group_name_H-M 'C 1 2/m 1'
_symmetry_Int_Tables_number 12
_refine_ls_R_factor_all 0.046
loop_
_symmetry_equiv_pos_site_id
_symmetry_equiv_pos_as_xyz
1 '-x, y, -z'
2 '-x, -y, -z'
3 'x, -y, z'
4 'x, y, z'
5 '-x+1/2, y+1/2, -z'
6 '-x+1/2, -y+1/2, -z'
7 'x+1/2, -y+1/2, z'
8 'x+1/2, y+1/2, z'
loop_
_atom_type_symbol
_atom_type_oxidation_number
Gd3+ 3
P5+ 5
O2- -2
Li1+ 1
loop_
_atom_site_label
_atom_site_type_symbol
_atom_site_symmetry_multiplicity
_atom_site_Wyckoff_symbol
_atom_site_fract_x
_atom_site_fract_y
_atom_site_fract_z
_atom_site_B_iso_or_equiv
_atom_site_occupancy
_atom_site_attached_hydrogens
Gd1 Gd3+ 4 i 0.38972(4) 0. 0.43507(6) 0.0066(2) 1 0
Gd2 Gd3+ 4 i 0.19042(4) 0. 0.41173(6) 0.0086(2) 1 0
Gd3 Gd3+ 4 i 0.25916(4) -0.5 0.25605(6) 0.0083(2) 1 0
Gd4 Gd3+ 4 i 0.33493(4) 0. 0.10828(6) 0.0084(2) 1 0
Gd5 Gd3+ 4 i 0.52941(4) -0.5 0.66552(6) 0.0094(2) 1 0
P1 P5+ 4 i 0.1529(2) 0. 0.0682(4) 0.0140(8) 1 0
P2 P5+ 4 i 0.5568(2) 0. 0.2450(3) 0.0073(7) 1 0
O1 O2- 8 j 0.5708(4) -0.2216(13) 0.3296(7) 0.0168(16) 1 0
O2 O2- 8 j 0.2025(4) 0.2190(12) 0.0617(6) 0.0119(15) 1 0
O3 O2- 4 i 0.1680(16) 0. 0.207(2) 0.023(7) 0.59(5) 0
O4 O2- 4 i 0.124(2) 0. 0.162(3) 0.023(10) 0.41(5) 0
O5 O2- 4 i 0.6145(6) 0. 0.1898(10) 0.019(2) 1 0
O6 O2- 4 h 0.5 -0.2570(15) 0.5 0.0079(18) 1 0
O7 O2- 8 j 0.2868(3) 0.2560(12) 0.4220(6) 0.0110(15) 1 0
O8 O2- 8 j 0.3626(4) 0.2540(11) 0.2628(6) 0.0079(13) 1 0
O9 O2- 4 i 0.4687(6) 0. 0.1390(10) 0.020(2) 1 0
O10 O2- 4 i 0.0698(9) 0. -0.0318(14) 0.043(3) 1 0
Li1 Li1+ 4 g 0. 0.251(9) 0. 0.078(14) 1 0
loop_
_atom_site_aniso_label
_atom_site_aniso_type_symbol
_atom_site_aniso_U_11
_atom_site_aniso_U_22
_atom_site_aniso_U_33
_atom_site_aniso_U_12
_atom_site_aniso_U_13
_atom_site_aniso_U_23
Gd1 Gd3+ 0.0079(3) 0.0027(3) 0.0094(3) 0. 0.0041(3) 0.
Gd2 Gd3+ 0.0120(4) 0.0026(3) 0.0147(4) 0. 0.0090(3) 0.
Gd3 Gd3+ 0.0093(4) 0.0057(3) 0.0098(4) 0. 0.0045(3) 0.
Gd4 Gd3+ 0.0122(4) 0.0052(3) 0.0072(4) 0. 0.0039(3) 0.
Gd5 Gd3+ 0.0093(4) 0.0032(3) 0.0170(4) 0. 0.0071(3) 0.
#End of TTdata_240664-ICSD