
#(C) 2018 by FIZ Karlsruhe - Leibniz Institute for Information Infrastructure.  All rights reserved.
data_240703-ICSD
_database_code_ICSD 240703
_audit_creation_date 2007-04-01
_audit_update_record 2008-02-01
_chemical_name_systematic 'Lithium terbium tetrakis(catena-phosphate(V))'
_chemical_formula_structural 'Li Tb (P O3)4'
_chemical_formula_sum 'Li1 O12 P4 Tb1'
_chemical_name_structure_type LiYb(PO3)4
_exptl_crystal_density_diffrn 3.57
_publ_section_title 'Li Tb (P O3)4'
loop_
_citation_id
_citation_journal_full
_citation_year
_citation_journal_volume
_citation_page_first
_citation_page_last
_citation_journal_id_ASTM
primary 'Acta Crystallographica, Section E: Structure Reports Online' 2007 63 i1
i2 ACSEBH
loop_
_publ_author_name
'Ben Zarkouna, E.'
'Horchani-Naifer, K.'
'Ferid, M.'
'Driss, A.'
_cell_length_a 16.358(2)
_cell_length_b 7.050(2)
_cell_length_c 9.629(2)
_cell_angle_alpha 90.
_cell_angle_beta 126.150(10)
_cell_angle_gamma 90.
_cell_volume 896.66
_cell_formula_units_Z 4
_symmetry_space_group_name_H-M 'C 1 2/c 1'
_symmetry_Int_Tables_number 15
_refine_ls_R_factor_all 0.0202
loop_
_symmetry_equiv_pos_site_id
_symmetry_equiv_pos_as_xyz
1 'x, -y, z+1/2'
2 '-x, -y, -z'
3 '-x, y, -z+1/2'
4 'x, y, z'
5 'x+1/2, -y+1/2, z+1/2'
6 '-x+1/2, -y+1/2, -z'
7 '-x+1/2, y+1/2, -z+1/2'
8 'x+1/2, y+1/2, z'
loop_
_atom_type_symbol
_atom_type_oxidation_number
Li1+ 1
Tb3+ 3
P5+ 5
O2- -2
loop_
_atom_site_label
_atom_site_type_symbol
_atom_site_symmetry_multiplicity
_atom_site_Wyckoff_symbol
_atom_site_fract_x
_atom_site_fract_y
_atom_site_fract_z
_atom_site_B_iso_or_equiv
_atom_site_occupancy
_atom_site_attached_hydrogens
Li1 Li1+ 4 e 0. 0.7050(10) 0.25 0.018(2) 1 0
Tb1 Tb3+ 4 e 0. 0.20252(3) 0.25 0.00650(10) 1 0
P1 P5+ 8 f 0.13795(7) 0.55300(10) 0.61510(10) 0.0064(2) 1 0
P2 P5+ 8 f 0.14715(7) 0.15200(10) 0.69740(10) 0.0068(2) 1 0
O1 O2- 8 f 0.1137(2) 0.7167(4) 0.6825(4) 0.0121(6) 1 0
O2 O2- 8 f 0.0719(2) 0.0871(4) 0.7268(4) 0.0106(5) 1 0
O3 O2- 8 f 0.1286(2) 0.1149(4) 0.5286(3) 0.0116(5) 1 0
O4 O2- 8 f 0.1578(2) 0.3762(4) 0.7340(3) 0.0108(5) 1 0
O5 O2- 8 f 0.2555(2) 0.0801(4) 0.8536(3) 0.0104(5) 1 0
O6 O2- 8 f 0.0653(2) 0.5027(4) 0.4280(3) 0.0097(5) 1 0
loop_
_atom_site_aniso_label
_atom_site_aniso_type_symbol
_atom_site_aniso_U_11
_atom_site_aniso_U_22
_atom_site_aniso_U_33
_atom_site_aniso_U_12
_atom_site_aniso_U_13
_atom_site_aniso_U_23
Li1 Li1+ 0.024(6) 0.016(6) 0.016(5) 0. 0.013(5) 0.
Tb1 Tb3+ 0.0053(2) 0.0071(2) 0.0066(2) 0. 0.00310(10) 0.
P1 P5+ 0.0045(4) 0.0069(5) 0.0069(4) -0.0004(3) 0.0029(4) -0.0002(3)
P2 P5+ 0.0047(4) 0.0079(4) 0.0075(4) 0.0000(3) 0.0035(4) 0.0011(3)
O1 O2- 0.0110(10) 0.0120(10) 0.0160(10) 0.0000(10) 0.0090(10) -0.0030(10)
O2 O2- 0.0060(10) 0.0110(10) 0.0170(10) 0.0000(10) 0.0080(10) 0.0020(10)
O3 O2- 0.0120(10) 0.0120(10) 0.0090(10) 0.0010(10) 0.0050(10) 0.0000(10)
O4 O2- 0.0160(10) 0.0070(10) 0.0100(10) 0.0000(10) 0.0080(10) 0.0000(10)
O5 O2- 0.0060(10) 0.0160(10) 0.0100(10) 0.0010(10) 0.0050(10) 0.0020(10)
O6 O2- 0.0050(10) 0.0120(10) 0.0080(10) -0.0020(10) 0.0020(10) 0.0000(10)
#End of TTdata_240703-ICSD