
#(C) 2018 by FIZ Karlsruhe - Leibniz Institute for Information Infrastructure.  All rights reserved.
data_240894-ICSD
_database_code_ICSD 240894
_audit_creation_date 2008-08-01
_chemical_name_systematic 'Caesium dilithium tetragadolinium pentaborate'
_chemical_formula_structural 'Cs Li2 Gd4 (B O3)5'
_chemical_formula_sum 'B5 Cs1 Gd4 Li2 O15'
_exptl_crystal_density_diffrn 5.33
_cell_measurement_temperature 295.
_publ_section_title 'A new quaternary rare earth borate, Cs Li2 Gd4 (B O3)5'
loop_
_citation_id
_citation_journal_full
_citation_year
_citation_journal_volume
_citation_page_first
_citation_page_last
_citation_journal_id_ASTM
primary 'Acta Crystallographica, Section E: Structure Reports Online' 2007 63
i173 i173 ACSEBH
loop_
_publ_author_name
'Xia Mingjun'
'Li, R.-K.'
_cell_length_a 10.644(2)
_cell_length_b 6.4661(15)
_cell_length_c 20.093(4)
_cell_angle_alpha 90.
_cell_angle_beta 105.250(16)
_cell_angle_gamma 90.
_cell_volume 1334.21
_cell_formula_units_Z 4
_symmetry_space_group_name_H-M 'P 1 2/n 1'
_symmetry_Int_Tables_number 13
_refine_ls_R_factor_all 0.044
loop_
_symmetry_equiv_pos_site_id
_symmetry_equiv_pos_as_xyz
1 'x+1/2, -y, z+1/2'
2 '-x+1/2, y, -z+1/2'
3 '-x, -y, -z'
4 'x, y, z'
loop_
_atom_type_symbol
_atom_type_oxidation_number
Gd3+ 3
Cs1+ 1
B3+ 3
Li1+ 1
O2- -2
loop_
_atom_site_label
_atom_site_type_symbol
_atom_site_symmetry_multiplicity
_atom_site_Wyckoff_symbol
_atom_site_fract_x
_atom_site_fract_y
_atom_site_fract_z
_atom_site_B_iso_or_equiv
_atom_site_occupancy
_atom_site_attached_hydrogens
Gd1 Gd3+ 4 g 0.45528(3) 0.34144(6) 0.649931(16) 0.01704(15) 1 0
Gd2 Gd3+ 2 f 0.25 0.59641(9) 0.75 0.02208(16) 1 0
Gd3 Gd3+ 2 e 0.75 0.59044(8) 0.75 0.01776(16) 1 0
Gd4 Gd3+ 4 g 0.35686(3) 0.64428(6) 0.946524(18) 0.01724(14) 1 0
Gd5 Gd3+ 4 g 0.84343(3) 0.64848(6) 0.953592(16) 0.01731(15) 1 0
Cs1 Cs1+ 4 g 0.55501(4) 0.09547(9) 0.85836(2) 0.02535(16) 1 0
B1 B3+ 4 g 0.4515(6) 0.7837(16) 0.6497(4) 0.0190(16) 1 0
B2 B3+ 2 f 0.25 0.1655(18) 0.75 0.020(2) 1 0
B3 B3+ 2 e 0.75 0.1618(19) 0.75 0.023(3) 1 0
B4 B3+ 4 g 0.3429(7) 0.1954(19) 0.9500(4) 0.0238(19) 1 0
B5 B3+ 4 g 0.8570(8) 0.2030(17) 0.9562(4) 0.0216(17) 1 0
B6 B3+ 4 g 0.5418(7) 0.5930(13) 0.8231(4) 0.0200(15) 1 0
Li1 Li1+ 4 g 0.6372(11) 0.978(2) 0.6532(7) 0.027(3) 1 0
Li2 Li1+ 4 g 0.2786(11) 0.987(2) 0.6582(6) 0.022(2) 1 0
O1 O2- 4 g 0.4590(4) 0.9903(9) 0.6603(3) 0.0231(11) 1 0
O2 O2- 4 g 0.3386(5) 0.6737(8) 0.6485(3) 0.0198(11) 1 0
O3 O2- 4 g 0.5582(5) 0.6740(8) 0.6405(3) 0.0189(10) 1 0
O4 O2- 2 f 0.25 -0.0436(13) 0.75 0.0252(17) 1 0
O5 O2- 4 g 0.2777(4) 0.2764(8) 0.6974(2) 0.0207(10) 1 0
O6 O2- 2 e 0.75 -0.0510(13) 0.75 0.0226(17) 1 0
O7 O2- 4 g 0.8179(4) 0.2672(9) 0.8072(2) 0.0206(10) 1 0
O8 O2- 4 g 0.3404(4) -0.0048(9) 0.9297(3) 0.0190(10) 1 0
O9 O2- 4 g 0.4550(4) 0.3091(9) 0.9728(3) 0.0237(11) 1 0
O10 O2- 4 g 0.2302(4) 0.3107(8) 0.9469(3) 0.0202(10) 1 0
O11 O2- 4 g 0.8424(5) -0.0004(10) 0.9383(3) 0.0203(10) 1 0
O12 O2- 4 g 0.9664(5) 0.3213(8) 0.9531(3) 0.0191(10) 1 0
O13 O2- 4 g 0.7622(4) 0.3197(8) 0.9754(3) 0.0220(10) 1 0
O14 O2- 4 g 0.5248(5) 0.4966(10) 0.7606(3) 0.0265(11) 1 0
O15 O2- 4 g 0.6689(4) 0.6496(9) 0.8568(3) 0.0219(11) 1 0
O16 O2- 4 g 0.4352(5) 0.6364(9) 0.8473(3) 0.0233(11) 1 0
loop_
_atom_site_aniso_label
_atom_site_aniso_type_symbol
_atom_site_aniso_U_11
_atom_site_aniso_U_22
_atom_site_aniso_U_33
_atom_site_aniso_U_12
_atom_site_aniso_U_13
_atom_site_aniso_U_23
Gd1 Gd3+ 0.0196(2) 0.0201(2) 0.0127(2) 0.00018(11) 0.00648(15) 0.00003(12)
Gd2 Gd3+ 0.0354(3) 0.0193(3) 0.0130(3) 0. 0.0089(2) 0.
Gd3 Gd3+ 0.0211(2) 0.0196(3) 0.0133(3) 0. 0.00573(18) 0.
Gd4 Gd3+ 0.0186(2) 0.0209(2) 0.0129(2) 0.00014(12) 0.00551(14) 0.00020(13)
Gd5 Gd3+ 0.0198(2) 0.0214(3) 0.0120(2) -0.00005(12) 0.00639(15) 0.00026(13)
Cs1 Cs1+ 0.0253(3) 0.0283(3) 0.0243(3) -0.00007(17) 0.00982(19) -0.00019(19)
B1 B3+ 0.021(3) 0.024(4) 0.013(4) 0.003(3) 0.004(3) 0.006(3)
B2 B3+ 0.019(5) 0.016(6) 0.027(6) 0. 0.009(4) 0.
B3 B3+ 0.022(5) 0.021(6) 0.027(6) 0. 0.009(4) 0.
B4 B3+ 0.023(3) 0.037(5) 0.012(4) 0.001(3) 0.004(3) 0.007(3)
B5 B3+ 0.026(3) 0.030(5) 0.009(3) 0.003(3) 0.005(3) -0.001(3)
B6 B3+ 0.020(3) 0.025(4) 0.016(4) -0.004(3) 0.007(3) -0.003(3)
Li1 Li1+ 0.026(5) 0.033(7) 0.023(6) -0.004(5) 0.009(5) -0.010(6)
Li2 Li1+ 0.028(5) 0.024(6) 0.015(5) -0.004(5) 0.009(4) 0.004(5)
O1 O2- 0.023(2) 0.021(3) 0.028(3) 0.001(2) 0.013(2) 0.001(2)
O2 O2- 0.020(2) 0.023(3) 0.018(2) -0.0011(19) 0.0078(19) 0.000(2)
O3 O2- 0.023(2) 0.020(2) 0.016(2) 0.0020(19) 0.0085(18) 0.000(2)
O4 O2- 0.040(4) 0.021(4) 0.019(4) 0. 0.015(3) 0.
O5 O2- 0.028(2) 0.021(2) 0.016(2) 0.000(2) 0.0109(18) 0.000(2)
O6 O2- 0.025(3) 0.028(4) 0.015(3) 0. 0.005(3) 0.
O7 O2- 0.0218(19) 0.027(3) 0.013(2) -0.002(2) 0.0046(17) 0.001(2)
O8 O2- 0.023(2) 0.015(2) 0.018(2) 0.0030(19) 0.0021(18) -0.001(2)
O9 O2- 0.022(2) 0.026(3) 0.023(3) -0.002(2) 0.0060(19) -0.001(2)
O10 O2- 0.022(2) 0.024(2) 0.017(2) 0.003(2) 0.0088(18) 0.001(2)
O11 O2- 0.028(2) 0.016(2) 0.019(2) 0.000(2) 0.0092(19) 0.001(2)
O12 O2- 0.020(2) 0.023(3) 0.015(2) -0.0036(19) 0.0058(18) 0.000(2)
O13 O2- 0.023(2) 0.021(2) 0.025(3) -0.001(2) 0.013(2) 0.000(2)
O14 O2- 0.034(2) 0.032(3) 0.016(2) 0.000(3) 0.011(2) -0.002(2)
O15 O2- 0.018(2) 0.029(3) 0.019(3) -0.0022(19) 0.0048(19) -0.004(2)
O16 O2- 0.021(2) 0.029(3) 0.023(3) 0.000(2) 0.012(2) -0.002(2)
#End of TTdata_240894-ICSD