
#(C) 2018 by FIZ Karlsruhe - Leibniz Institute for Information Infrastructure.  All rights reserved.
data_240965-ICSD
_database_code_ICSD 240965
_audit_creation_date 2008-08-01
_chemical_name_systematic 'Lithium chromium(III) diphosphate(V)'
_chemical_formula_structural 'Li Cr (P2 O7)'
_chemical_formula_sum 'Cr1 Li1 O7 P2'
_chemical_name_structure_type LiInP2O7
_exptl_crystal_density_diffrn 3.1
_cell_measurement_temperature 295.
_publ_section_title 'X-ray powder diffraction study of Li Cr P2 O7'
loop_
_citation_id
_citation_journal_full
_citation_year
_citation_journal_volume
_citation_page_first
_citation_page_last
_citation_journal_id_ASTM
primary 'Acta Crystallographica, Section E: Structure Reports Online' 2007 63
i70 i72 ACSEBH
loop_
_publ_author_name
'Ivashkevich, L.S.'
'Selevich, K.A.'
'Lesnikovich, A.I.'
'Selevich, A.F.'
_cell_length_a 6.9019(10)
_cell_length_b 7.9919(11)
_cell_length_c 4.7807(7)
_cell_angle_alpha 90.
_cell_angle_beta 109.003(4)
_cell_angle_gamma 90.
_cell_volume 249.33
_cell_formula_units_Z 2
_symmetry_space_group_name_H-M 'P 1 21 1'
_symmetry_Int_Tables_number 4
_refine_ls_R_factor_all 0.029
loop_
_symmetry_equiv_pos_site_id
_symmetry_equiv_pos_as_xyz
1 '-x, y+1/2, -z'
2 'x, y, z'
loop_
_atom_type_symbol
_atom_type_oxidation_number
Cr3+ 3
P5+ 5
O2- -2
Li1+ 1
loop_
_atom_site_label
_atom_site_type_symbol
_atom_site_symmetry_multiplicity
_atom_site_Wyckoff_symbol
_atom_site_fract_x
_atom_site_fract_y
_atom_site_fract_z
_atom_site_B_iso_or_equiv
_atom_site_occupancy
_atom_site_attached_hydrogens
Cr1 Cr3+ 2 a 0.2277(13) 0.25 0.216(2) 0.005 1. 0
P1 P5+ 2 a 0.4190(4) 0.4669(3) 0.7984(5) 0.005 1. 0
P2 P5+ 2 a 0.0196(4) 0.5654(3) 0.4005(5) 0.005 1. 0
O1 O2- 2 a 0.422(4) 0.3125(19) 0.611(4) 0.0095 1. 0
O2 O2- 2 a 0.6216(9) 0.5652(9) 0.869(5) 0.0095 1. 0
O3 O2- 2 a 0.351(4) 0.427(3) 1.065(3) 0.0095 1. 0
O4 O2- 2 a 0.006(3) 0.3996(9) 0.254(2) 0.0095 1. 0
O5 O2- 2 a -0.0177(16) 0.711(2) 0.192(4) 0.0095 1. 0
O6 O2- 2 a -0.116(3) 0.5673(11) 0.602(4) 0.0095 1. 0
O7 O2- 2 a 0.2562(9) 0.5994(9) 0.589(4) 0.0095 1. 0
Li1 Li1+ 2 a 0.8226(9) 0.3780(6) 0.8219(11) 0.025 1. 0
#End of TTdata_240965-ICSD