
#(C) 2018 by FIZ Karlsruhe - Leibniz Institute for Information Infrastructure.  All rights reserved.
data_240986-ICSD
_database_code_ICSD 240986
_audit_creation_date 2008-08-01
_audit_update_record 2011-02-01
_chemical_name_systematic 'Lithium heptabismuth triphosphorus nonadecaoxide *'
_chemical_formula_structural 'Li Bi7.37 (P3 O19)'
_chemical_formula_sum 'Bi7.37 Li1 O19 P3'
_exptl_crystal_density_diffrn 7.68
_cell_measurement_temperature 293.
_publ_section_title

;
A new pillared lithium bismuth phosphate, Li Bi7.37 P3 O19, with elliptical
channels
;
loop_
_citation_id
_citation_journal_full
_citation_year
_citation_journal_volume
_citation_page_first
_citation_page_last
_citation_journal_id_ASTM
primary 'Acta Crystallographica, Section C: Crystal Structure Communications'
2007 63 i86 i88 ACSCEE
loop_
_publ_author_name
'Arumugam, N.'
'Lynch, V.'
'Steinfink, H.'
_cell_length_a 30.796(6)
_cell_length_b 5.2836(11)
_cell_length_c 24.594(5)
_cell_angle_alpha 90.
_cell_angle_beta 122.87(3)
_cell_angle_gamma 90.
_cell_volume 3361.11
_cell_formula_units_Z 8
_symmetry_space_group_name_H-M 'C 1 2/c 1'
_symmetry_Int_Tables_number 15
_refine_ls_R_factor_all 0.0493
loop_
_symmetry_equiv_pos_site_id
_symmetry_equiv_pos_as_xyz
1 'x, -y, z+1/2'
2 '-x, -y, -z'
3 '-x, y, -z+1/2'
4 'x, y, z'
5 'x+1/2, -y+1/2, z+1/2'
6 '-x+1/2, -y+1/2, -z'
7 '-x+1/2, y+1/2, -z+1/2'
8 'x+1/2, y+1/2, z'
loop_
_atom_type_symbol
_atom_type_oxidation_number
Bi3+ 3
P5+ 5
Li1+ 1
O2- -2
loop_
_atom_site_label
_atom_site_type_symbol
_atom_site_symmetry_multiplicity
_atom_site_Wyckoff_symbol
_atom_site_fract_x
_atom_site_fract_y
_atom_site_fract_z
_atom_site_B_iso_or_equiv
_atom_site_occupancy
_atom_site_attached_hydrogens
Bi1 Bi3+ 8 f 0.06705(2) 0.97528(12) 0.01639(3) 0.00510(19) 1 0
Bi2 Bi3+ 8 f 0.23997(2) 0.47138(12) 0.29705(3) 0.00537(18) 1 0
Bi3 Bi3+ 8 f 0.02906(3) 0.48930(11) 0.08829(3) 0.00657(19) 1 0
Bi4 Bi3+ 8 f 0.13587(2) 0.00884(11) 0.19803(3) 0.00562(19) 1 0
Bi5 Bi3+ 8 f 0.16158(2) 0.50367(11) 0.11745(3) 0.00493(19) 1 0
Bi6 Bi3+ 8 f 0.28079(3) 0.52892(12) 0.09630(3) 0.0104(2) 1 0
Bi7 Bi3+ 8 f 0.11038(3) 0.54344(13) -0.07078(4) 0.0138(2) 1 0
Bi8 Bi3+ 4 e 0. 0.4882(3) 0.25 0.0185(5) 0.736(6) 0
P1 P5+ 8 f 0.18840(18) 1.0349(9) 0.0315(2) 0.0105(9) 1 0
P2 P5+ 8 f 0.0089(2) -0.0025(9) 0.3431(3) 0.0176(11) 1 0
P3 P5+ 8 f 0.1304(2) 0.5032(10) 0.3010(3) 0.026(2) 1 0
Li1 Li1+ 8 f -0.0878(16) 0.004(7) 0.189(2) 0.028(9) 1 0
O1 O2- 8 f 0.0006(4) 0.748(2) -0.0002(5) 0.004(2) 1 0
O2 O2- 8 f 0.0972(4) 0.752(2) 0.1074(5) 0.005(2) 1 0
O3 O2- 8 f 0.0972(4) 0.253(2) 0.1104(5) 0.006(2) 1 0
O4 O2- 8 f 0.1975(4) 0.254(2) 0.2057(5) 0.004(2) 1 0
O5 O2- 8 f 0.1970(4) 0.761(2) 0.2021(5) 0.002(2) 1 0
O6 O2- 8 f 0.1735(5) 0.987(2) 0.0822(7) 0.013(3) 1 0
O7 O2- 8 f 0.0803(5) 0.565(3) -0.0140(7) 0.021(3) 1 0
O8 O2- 8 f 0.1446(5) 0.247(2) 0.3393(6) 0.019(3) 1 0
O9 O2- 8 f 0.2631(5) 0.572(3) 0.1647(7) 0.019(3) 1 0
O10 O2- 8 f 0.0505(6) 0.190(3) 0.3515(7) 0.027(3) 1 0
O11 O2- 8 f 0.1922(5) 1.321(3) 0.0250(7) 0.021(3) 1 0
O12 O2- 8 f -0.0057(6) 0.028(3) 0.3933(8) 0.023(3) 1 0
O13 O2- 8 f 0.1465(9) 0.937(4) -0.0332(11) 0.054(5) 1 0
O14 O2- 8 f 0.1279(8) 0.464(3) 0.2395(8) 0.057(6) 1 0
O15 O2- 8 f -0.0407(11) 0.070(5) 0.2764(14) 0.078(8) 1 0
O16 O2- 8 f 0.0255(10) -0.264(5) 0.3413(12) 0.080(8) 1 0
O17 O2- 8 f 0.2384(9) 0.906(5) 0.0503(11) 0.066(6) 1 0
O18 O2- 8 f 0.0852(7) 0.621(4) 0.2966(10) 0.077(7) 1 0
O19 O2- 8 f 0.1794(8) 0.680(4) 0.3452(10) 0.098(9) 1 0
loop_
_atom_site_aniso_label
_atom_site_aniso_type_symbol
_atom_site_aniso_U_11
_atom_site_aniso_U_22
_atom_site_aniso_U_33
_atom_site_aniso_U_12
_atom_site_aniso_U_13
_atom_site_aniso_U_23
Bi1 Bi3+ 0.0040(3) 0.0075(3) 0.0056(3) -0.00024(19) 0.0038(3) 0.0013(2)
Bi2 Bi3+ 0.0071(3) 0.0071(3) 0.0050(3) 0.0002(2) 0.0053(3) -0.0008(2)
Bi3 Bi3+ 0.0111(3) 0.0056(3) 0.0073(4) 0.0002(2) 0.0077(3) -0.0001(2)
Bi4 Bi3+ 0.0079(3) 0.0068(3) 0.0063(3) -0.0003(2) 0.0065(3) 0.0002(2)
Bi5 Bi3+ 0.0071(3) 0.0054(3) 0.0043(3) 0.00082(19) 0.0045(3) -0.00021(19)
Bi6 Bi3+ 0.0128(3) 0.0142(4) 0.0111(4) 0.0012(2) 0.0110(3) 0.0009(2)
Bi7 Bi3+ 0.0208(4) 0.0158(4) 0.0169(4) -0.0022(3) 0.0181(3) -0.0022(3)
Bi8 Bi3+ 0.0292(9) 0.0228(8) 0.0110(8) 0. 0.0159(7) 0.
#End of TTdata_240986-ICSD