
#(C) 2018 by FIZ Karlsruhe - Leibniz Institute for Information Infrastructure.  All rights reserved.
data_241439-ICSD
_database_code_ICSD 241439
_audit_creation_date 2017-08-01
_chemical_name_systematic 'Decalithium dodecathiogermanodiphosphate'
_chemical_formula_structural 'Li10 Ge P2 S12'
_chemical_formula_sum 'Ge1 Li10 P2 S12'
_exptl_crystal_density_diffrn 2.05
_publ_section_title

;
Structural insights and 3D diffusion pathways within the lithium superionic
conductor Li10 Ge P2 S12
;
loop_
_citation_id
_citation_journal_full
_citation_year
_citation_journal_volume
_citation_page_first
_citation_page_last
_citation_journal_id_ASTM
primary 'Chemistry of Materials' 2016 28 5905 5915 CMATEX
loop_
_publ_author_name
'Weber, Dominik A.'
'Senyshyn, Anatoliy'
'Weldert, Kai S.'
'Wenzel, Sebastian'
'Zhang, Wenbo'
'Kaiser, Rene'
'Berendts, Stefan'
'Janek, Juergen'
'Zeier, Wolfgang G.'
_cell_length_a 8.7088(6)
_cell_length_b 8.7088(6)
_cell_length_c 12.605(1)
_cell_angle_alpha 90.
_cell_angle_beta 90.
_cell_angle_gamma 90.
_cell_volume 956.
_cell_formula_units_Z 2
_symmetry_space_group_name_H-M 'P 42/n m c Z'
_symmetry_Int_Tables_number 137
_refine_ls_R_factor_all 0.0173
loop_
_symmetry_equiv_pos_site_id
_symmetry_equiv_pos_as_xyz
1 'y+1/2, x+1/2, -z+1/2'
2 '-y, x+1/2, -z+1/2'
3 'y+1/2, -x, -z+1/2'
4 '-y, -x, -z+1/2'
5 'x+1/2, y+1/2, -z'
6 '-x, y+1/2, -z'
7 'x+1/2, -y, -z'
8 '-x, -y, -z'
9 '-y+1/2, -x+1/2, z+1/2'
10 'y, -x+1/2, z+1/2'
11 '-y+1/2, x, z+1/2'
12 'y, x, z+1/2'
13 '-x+1/2, -y+1/2, z'
14 'x, -y+1/2, z'
15 '-x+1/2, y, z'
16 'x, y, z'
loop_
_atom_type_symbol
_atom_type_oxidation_number
Li1+ 1
Ge4+ 4
P5+ 5
S2- -2
loop_
_atom_site_label
_atom_site_type_symbol
_atom_site_symmetry_multiplicity
_atom_site_Wyckoff_symbol
_atom_site_fract_x
_atom_site_fract_y
_atom_site_fract_z
_atom_site_B_iso_or_equiv
_atom_site_occupancy
_atom_site_attached_hydrogens
Li1 Li1+ 16 h 0.498(2) 0.013(2) 0.4469(13) 8.3(8) 0.50(1) 0
Li2 Li1+ 8 g 0.25 0.226(7) 0.195(2) 9.1(9) 0.54(1) 0
Li3 Li1+ 8 f 0.496(2) -0.004(2) 0.25 9.0(9) 0.62(3) 0
Li4 Li1+ 4 c 0.25 0.75 0.499(2) 7.0(9) 0.68(3) 0
Ge1 Ge4+ 4 d 0.25 0.25 0.9422(3) 3.4(8) 0.5 0
P1 P5+ 4 d 0.25 0.25 0.9422(3) 3.4(8) 0.5 0
P2 P5+ 2 b 0.25 0.75 0.75 4.1(2) 1. 0
S1 S2- 8 g 0.25 0.9392(7) 0.6600(5) 3.6(3) 1. 0
S2 S2- 8 g 0.25 0.0452(7) 0.3493(6) 3.6(3) 1. 0
S3 S2- 8 g 0.25 0.4446(8) 0.0395(5) 3.9(4) 1. 0
#End of TTdata_241439-ICSD