
#(C) 2018 by FIZ Karlsruhe - Leibniz Institute for Information Infrastructure.  All rights reserved.
data_242267-ICSD
_database_code_ICSD 242267
_audit_creation_date 2017-08-01
_chemical_name_systematic 'Lithium aluminium iron catena-disilicate'
_chemical_formula_structural 'Li Al0.77 Fe0.23 Si2 O6'
_chemical_formula_sum 'Al0.77 Fe0.23 Li1 O6 Si2'
_chemical_name_structure_type Pyroxene-CaMg(SiO3)2
_chemical_name_mineral Ferri-Spodumene
_exptl_crystal_density_diffrn 3.25
_cell_measurement_temperature 298.
_cell_measurement_pressure 100000.
_publ_section_title

;
Solid solution along the synthetic LiAlSi2O6-LiFeSi2O6
(spodumene-ferri-spodumene) join: A general picture of solid solutions, bond
lengths, lattice strains, steric effects, symmetries, and chemical
compositions of Li clinopyroxenes
;
loop_
_citation_id
_citation_journal_full
_citation_year
_citation_journal_volume
_citation_page_first
_citation_page_last
_citation_journal_id_ASTM
primary 'American Mineralogist' 2016 101 2498 2513 AMMIAY
loop_
_publ_author_name
'Iezzi, Gianluca'
'Bromiley, Geoffrey D.'
'Cavallo, Andrea'
'Das, Partha P.'
'Karavassili, Fotini'
'Margiolaki, Irene'
'Stewart, Andrew A.'
'Tribaudino, Mario'
'Wright, Jonathan P.'
_cell_length_a 9.4992(1)
_cell_length_b 8.4396(1)
_cell_length_c 5.2362(1)
_cell_angle_alpha 90.0000(0)
_cell_angle_beta 110.1280(10)
_cell_angle_gamma 90.0000(0)
_cell_volume 394.14
_cell_formula_units_Z 4
_symmetry_space_group_name_H-M 'C 1 2/c 1'
_symmetry_Int_Tables_number 15
loop_
_symmetry_equiv_pos_site_id
_symmetry_equiv_pos_as_xyz
1 'x, -y, z+1/2'
2 '-x, -y, -z'
3 '-x, y, -z+1/2'
4 'x, y, z'
5 'x+1/2, -y+1/2, z+1/2'
6 '-x+1/2, -y+1/2, -z'
7 '-x+1/2, y+1/2, -z+1/2'
8 'x+1/2, y+1/2, z'
loop_
_atom_type_symbol
_atom_type_oxidation_number
Al3+ 3
Fe3+ 3
Li1+ 1
O2- -2
Si4+ 4
loop_
_atom_site_label
_atom_site_type_symbol
_atom_site_symmetry_multiplicity
_atom_site_Wyckoff_symbol
_atom_site_fract_x
_atom_site_fract_y
_atom_site_fract_z
_atom_site_B_iso_or_equiv
_atom_site_occupancy
_atom_site_attached_hydrogens
Al1 Al3+ 4 e 0. 0.905(1) 0.25 0.002(1) 0.7700(100) 0
Fe1 Fe3+ 4 e 0. 0.905(1) 0.25 0.002(1) 0.2300(100) 0
Li1 Li1+ 4 e 0. 0.271(1) 0.25 0.004(1) 1. 0
O1 O2- 8 f 0.110(1) 0.084(1) 0.141(1) 0.003(1) 1. 0
O2 O2- 8 f 0.363(1) 0.265(1) 0.305(1) 0.004(1) 1. 0
O3 O2- 8 f 0.356(1) 0.990(1) 0.056(1) 0.006(1) 1. 0
Si1 Si4+ 8 f 0.295(1) 0.092(1) 0.257(1) 0.004(1) 1. 0
#End of TTdata_242267-ICSD