
#(C) 2018 by FIZ Karlsruhe - Leibniz Institute for Information Infrastructure.  All rights reserved.
data_243533-ICSD
_database_code_ICSD 243533
_audit_creation_date 2017-08-01
_chemical_name_systematic 'Dilithium cobalt phosphate fluoride'
_chemical_formula_structural 'Li2 Co P O4 F'
_chemical_formula_sum 'Co1 F1 Li2 O4 P1'
_chemical_name_structure_type Li2NiFPO4
_exptl_crystal_density_diffrn 3.42
_cell_measurement_temperature 293.
_publ_section_title

;
Crystal structure and Li-ion transport in Li2CoPO4F high-voltage cathode
material for Li-ion batteries
;
loop_
_citation_id
_citation_journal_full
_citation_year
_citation_journal_volume
_citation_page_first
_citation_page_last
_citation_journal_id_ASTM
primary 'Journal of Physical Chemistry C' 2017 121 3194 3202 JPCCCK
loop_
_publ_author_name
'Fedotov, Stanislav S.'
'Kabanov, Artem A.'
'Kabanova, Natalia A.'
'Blatov, Vladislav A.'
'Zhugayevych, Andriy'
'Abakumov, Artem M.'
'Khasanova, Nellie R.'
'Antipov, Evgeny V.'
_cell_length_a 10.45280(17)
_cell_length_b 6.38673(10)
_cell_length_c 10.87638(19)
_cell_angle_alpha 90
_cell_angle_beta 90
_cell_angle_gamma 90
_cell_volume 726.09
_cell_formula_units_Z 8
_symmetry_space_group_name_H-M 'P n m a'
_symmetry_Int_Tables_number 62
_refine_ls_R_factor_all 0.0145
loop_
_symmetry_equiv_pos_site_id
_symmetry_equiv_pos_as_xyz
1 'x+1/2, y, -z+1/2'
2 'x, -y+1/2, z'
3 '-x+1/2, y+1/2, z+1/2'
4 '-x, -y, -z'
5 '-x+1/2, -y, z+1/2'
6 '-x, y+1/2, -z'
7 'x+1/2, -y+1/2, -z+1/2'
8 'x, y, z'
loop_
_atom_type_symbol
_atom_type_oxidation_number
Li1+ 1
Co2+ 2
P5+ 5
O2- -2
F1- -1
loop_
_atom_site_label
_atom_site_type_symbol
_atom_site_symmetry_multiplicity
_atom_site_Wyckoff_symbol
_atom_site_fract_x
_atom_site_fract_y
_atom_site_fract_z
_atom_site_B_iso_or_equiv
_atom_site_occupancy
_atom_site_attached_hydrogens
Li1 Li1+ 8 d 0.7590(8) 0.9845(11) 0.6627(7) 0.0286(16) 1 0
Li2 Li1+ 4 c 0.9719(9) 0.75 0.7244(8) 0.0170(18) 1 0
Li3 Li1+ 4 c 0.2671(9) 0.25 0.5822(8) 0.014(2) 1 0
Co1 Co2+ 4 a 0 0 0 0.0104(12) 1 0
Co2 Co2+ 4 b 0 0 0.5 0.0096(12) 1 0
P1 P5+ 4 c 0.7559(3) 0.75 0.9206(2) 0.0065(5) 1 0
P2 P5+ 4 c 0.0222(3) 0.25 0.7424(3) 0.0068(6) 1 0
O1 O2- 8 d 0.81047(17) 0.9462(3) 0.98357(15) 0.0081(3) 1 0
O2 O2- 4 c 0.6102(3) 0.75 0.9433(2) 0.0093(5) 1 0
O3 O2- 4 c 0.7835(3) 0.75 0.7841(2) 0.0101(6) 1 0
O4 O2- 8 d -0.03323(16) 0.4457(3) 0.67965(17) 0.0100(4) 1 0
O5 O2- 4 c 0.1696(3) 0.25 0.7432(3) 0.0125(5) 1 0
O6 O2- 4 c -0.0263(3) 0.25 0.8792(2) 0.0059(5) 1 0
F1 F1- 4 c 0.0580(3) 0.75 0.8796(3) 0.0112(6) 1 0
F2 F1- 4 c 0.8650(3) 0.75 0.5331(3) 0.0104(5) 1 0
#End of TTdata_243533-ICSD