
#(C) 2018 by FIZ Karlsruhe - Leibniz Institute for Information Infrastructure.  All rights reserved.
data_243915-ICSD
_database_code_ICSD 243915
_audit_creation_date 2018-02-01
_chemical_name_systematic 'Dilithium dimagnesium triphosphate nitride'
_chemical_formula_structural 'Li2 Mg2 P3 O9 N'
_chemical_formula_sum 'Li2 Mg2 N1 O9 P3'
_chemical_name_structure_type Na3AlN(PO3)3
_exptl_crystal_density_diffrn 2.75
_cell_measurement_temperature 300.
_publ_section_title

;
In situ neutron diffraction studies of the ion exchange synthesis mechanism of
Li2Mg2P3O9N: evidence for a hidden phase transition
;
loop_
_citation_id
_citation_journal_full
_citation_year
_citation_journal_volume
_citation_page_first
_citation_page_last
_citation_journal_id_ASTM
primary 'Journal of the American Chemical Society' 2017 139 9192 9202 JACSAT
loop_
_publ_author_name
'Liu, Jue'
'Whitfield, Pamela S.'
'Saccomanno, Michael R.'
'Bo, Shou-Hang'
'Hu, Enyuan'
'Yu, Xiqian'
'Bai, Jianming'
'Grey, Clare P.'
'Yang, Xiao-Qing'
'Khalifah, Peter G.'
_cell_length_a 9.1173(8)
_cell_length_b 9.1173(8)
_cell_length_c 9.1173(8)
_cell_angle_alpha 90
_cell_angle_beta 90
_cell_angle_gamma 90
_cell_volume 757.87
_cell_formula_units_Z 4
_symmetry_space_group_name_H-M 'P 21 3'
_symmetry_Int_Tables_number 198
loop_
_symmetry_equiv_pos_site_id
_symmetry_equiv_pos_as_xyz
1 '-z+1/2, -x, y+1/2'
2 '-y+1/2, -z, x+1/2'
3 '-x+1/2, -y, z+1/2'
4 '-z, x+1/2, -y+1/2'
5 '-y, z+1/2, -x+1/2'
6 '-x, y+1/2, -z+1/2'
7 'z+1/2, -x+1/2, -y'
8 'y+1/2, -z+1/2, -x'
9 'x+1/2, -y+1/2, -z'
10 'z, x, y'
11 'y, z, x'
12 'x, y, z'
loop_
_atom_type_symbol
_atom_type_oxidation_number
Li1+ 1
Mg2+ 2
P5+ 5
O2- -2
N3- -3
loop_
_atom_site_label
_atom_site_type_symbol
_atom_site_symmetry_multiplicity
_atom_site_Wyckoff_symbol
_atom_site_fract_x
_atom_site_fract_y
_atom_site_fract_z
_atom_site_B_iso_or_equiv
_atom_site_occupancy
_atom_site_attached_hydrogens
Li1 Li1+ 4 a 0.05826(29) 0.05826(29) 0.05826(29) 2.93(22) 1 0
Li2 Li1+ 4 a 0.83101(34) 0.83101(34) 0.83101(34) 2.73(26) 1 0
Mg1 Mg2+ 4 a 0.58095(7) 0.58095(7) 0.58095(7) 0.583(38) 1 0
Mg2 Mg2+ 4 a 0.40120(8) 0.40120(8) 0.40120(8) 0.497(37) 1 0
P1 P5+ 12 b 0.09154(8) 0.26603(8) 0.34697(7) 0.599(27) 1 0
O1 O2- 12 b 0.00970(8) 0.88416(8) 0.21140(9) 0.838(32) 1 0
O2 O2- 12 b 0.00460(9) 0.13455(8) 0.39868(8) 0.725(29) 1 0
O3 O2- 12 b 0.19862(9) 0.32375(10) 0.46095(7) 0.807(30) 1 0
N1 N3- 4 a 0.20307(6) 0.20307(6) 0.20307(6) 0.603(28) 1 0
#End of TTdata_243915-ICSD