
#(C) 2018 by FIZ Karlsruhe - Leibniz Institute for Information Infrastructure.  All rights reserved.
data_243925-ICSD
_database_code_ICSD 243925
_audit_creation_date 2018-02-01
_chemical_name_systematic 'Lithium niobium ruthenium oxide (1.51/0.22/0.27/2)'
_chemical_formula_structural 'Li1.51 (Nb0.22 Ru0.27) O2'
_chemical_formula_sum 'Li1.51 Nb0.22 O2 Ru0.27'
_exptl_crystal_density_diffrn 4.08
_publ_section_title

;
The Li3RuyNb1-yO4 (0 <= Y <= 1) system: structural diversity and Li insertion
and extraction capabilities
;
loop_
_citation_id
_citation_journal_full
_citation_year
_citation_journal_volume
_citation_page_first
_citation_page_last
_citation_journal_id_ASTM
primary 'Chemistry of Materials' 2017 29 5331 5343 CMATEX
loop_
_publ_author_name
'Jacquet, Quentin'
'Perez, Arnaud'
'Batuk, Dmitry'
'Tendeloo, Gustaaf van'
'Rousse, Gwenaelle'
'Tarascon, Jean-Marie'
_cell_length_a 5.91767(3)
_cell_length_b 5.91767(3)
_cell_length_c 8.39379(4)
_cell_angle_alpha 90
_cell_angle_beta 90
_cell_angle_gamma 90
_cell_volume 293.94
_cell_formula_units_Z 8
_symmetry_space_group_name_H-M 'P 41 2 2'
_symmetry_Int_Tables_number 91
loop_
_symmetry_equiv_pos_site_id
_symmetry_equiv_pos_as_xyz
1 'y, x, -z+3/4'
2 '-y, -x, -z+1/4'
3 'x, -y, -z+1/2'
4 '-x, y, -z'
5 'y, -x, z+3/4'
6 '-y, x, z+1/4'
7 '-x, -y, z+1/2'
8 'x, y, z'
loop_
_atom_type_symbol
_atom_type_oxidation_number
O2- -2
Ru6+ 6
Nb5+ 5
Li1+ 1
Ru6+ 6
Nb5+ 5
Li1+ 1
loop_
_atom_site_label
_atom_site_type_symbol
_atom_site_symmetry_multiplicity
_atom_site_Wyckoff_symbol
_atom_site_fract_x
_atom_site_fract_y
_atom_site_fract_z
_atom_site_B_iso_or_equiv
_atom_site_occupancy
_atom_site_attached_hydrogens
O1 O2- 8 d 0.2371(5) 0.4905(8) 0.5053(4) 0.0117 1. 0
O2 O2- 8 d 0.2418(5) 0.9927(7) 0.0130(4) 0.0068 1. 0
Ru1 Ru6+ 4 a 0. 0.27185(17) 0.5 0.0019 0.4966 0
Nb1 Nb5+ 4 a 0. 0.27185(17) 0.5 0.0019 0.4063 0
Li1 Li1+ 4 a 0. 0.27185(17) 0.5 0.0019 0.0972 0
Li2 Li1+ 4 a 0. 0.747(2) 0.5 0.0114 1. 0
Li3 Li1+ 4 b 0.2593(13) 0.5 0.75 0.0114 0.9169 0
Ru2 Ru6+ 4 b 0.2593(13) 0.5 0.75 0.0114 0.0456 0
Nb2 Nb5+ 4 b 0.2593(13) 0.5 0.75 0.0114 0.0374 0
Li4 Li1+ 4 b 0.252(2) 0.5 0.25 0.0114 1. 0
#End of TTdata_243925-ICSD