
#(C) 2018 by FIZ Karlsruhe - Leibniz Institute for Information Infrastructure.  All rights reserved.
data_243923-ICSD
_database_code_ICSD 243923
_audit_creation_date 2018-02-01
_chemical_name_systematic 'Lithium ruthenium niobium oxide (3/0.09/0.91/4)'
_chemical_formula_structural 'Li3 (Ru0.09 Nb0.91) O4'
_chemical_formula_sum 'Li3 Nb0.91 O4 Ru0.09'
_exptl_crystal_density_diffrn 3.97
_publ_section_title

;
The Li3RuyNb1-yO4 (0 <= Y <= 1) system: structural diversity and Li insertion
and extraction capabilities
;
loop_
_citation_id
_citation_journal_full
_citation_year
_citation_journal_volume
_citation_page_first
_citation_page_last
_citation_journal_id_ASTM
primary 'Chemistry of Materials' 2017 29 5331 5343 CMATEX
loop_
_publ_author_name
'Jacquet, Quentin'
'Perez, Arnaud'
'Batuk, Dmitry'
'Tendeloo, Gustaaf van'
'Rousse, Gwenaelle'
'Tarascon, Jean-Marie'
_cell_length_a 8.421860(17)
_cell_length_b 8.421860(17)
_cell_length_c 8.421860(17)
_cell_angle_alpha 90
_cell_angle_beta 90
_cell_angle_gamma 90
_cell_volume 597.35
_cell_formula_units_Z 8
_symmetry_space_group_name_H-M 'I -4 3 m'
_symmetry_Int_Tables_number 217
loop_
_symmetry_equiv_pos_site_id
_symmetry_equiv_pos_as_xyz
1 '-z, -y, x'
2 '-y, -x, z'
3 '-x, -z, y'
4 '-z, -x, y'
5 '-y, -z, x'
6 '-x, -y, z'
7 '-z, y, -x'
8 '-y, x, -z'
9 '-x, z, -y'
10 '-z, x, -y'
11 '-y, z, -x'
12 '-x, y, -z'
13 'z, -y, -x'
14 'y, -x, -z'
15 'x, -z, -y'
16 'z, -x, -y'
17 'y, -z, -x'
18 'x, -y, -z'
19 'z, y, x'
20 'y, x, z'
21 'x, z, y'
22 'z, x, y'
23 'y, z, x'
24 'x, y, z'
25 '-z+1/2, -y+1/2, x+1/2'
26 '-y+1/2, -x+1/2, z+1/2'
27 '-x+1/2, -z+1/2, y+1/2'
28 '-z+1/2, -x+1/2, y+1/2'
29 '-y+1/2, -z+1/2, x+1/2'
30 '-x+1/2, -y+1/2, z+1/2'
31 '-z+1/2, y+1/2, -x+1/2'
32 '-y+1/2, x+1/2, -z+1/2'
33 '-x+1/2, z+1/2, -y+1/2'
34 '-z+1/2, x+1/2, -y+1/2'
35 '-y+1/2, z+1/2, -x+1/2'
36 '-x+1/2, y+1/2, -z+1/2'
37 'z+1/2, -y+1/2, -x+1/2'
38 'y+1/2, -x+1/2, -z+1/2'
39 'x+1/2, -z+1/2, -y+1/2'
40 'z+1/2, -x+1/2, -y+1/2'
41 'y+1/2, -z+1/2, -x+1/2'
42 'x+1/2, -y+1/2, -z+1/2'
43 'z+1/2, y+1/2, x+1/2'
44 'y+1/2, x+1/2, z+1/2'
45 'x+1/2, z+1/2, y+1/2'
46 'z+1/2, x+1/2, y+1/2'
47 'y+1/2, z+1/2, x+1/2'
48 'x+1/2, y+1/2, z+1/2'
loop_
_atom_type_symbol
_atom_type_oxidation_number
O2- -2
Nb5+ 5
Ru6+ 6
O2- -2
Li1+ 1
loop_
_atom_site_label
_atom_site_type_symbol
_atom_site_symmetry_multiplicity
_atom_site_Wyckoff_symbol
_atom_site_fract_x
_atom_site_fract_y
_atom_site_fract_z
_atom_site_B_iso_or_equiv
_atom_site_occupancy
_atom_site_attached_hydrogens
O1 O2- 24 g 0.1239(4) 0.1239(4) 0.3623(4) 0.0064 1. 0
Nb1 Nb5+ 8 c 0.13936(5) 0.13936(5) 0.13936(5) 0.00514 0.91 0
Ru1 Ru6+ 8 c 0.13936(5) 0.13936(5) 0.13936(5) 0.00514 0.09 0
O2 O2- 8 c 0.8881(4) 0.8881(4) 0.8881(4) 0.0069 1. 0
Li1 Li1+ 24 g 0.3714(7) 0.3714(7) 0.1053(7) 0.0061 1. 0
#End of TTdata_243923-ICSD