
#(C) 2017 by FIZ Karlsruhe - Leibniz Institute for Information Infrastructure.  All rights reserved.
data_245622-ICSD
_database_code_ICSD 245622
_audit_creation_date 2008-08-01
_chemical_name_systematic 'Dilithium terbium(IV) hexafluoride'
_chemical_formula_structural 'Li2 (Tb F6)'
_chemical_formula_sum 'F6 Li2 Tb1'
_chemical_name_structure_type Li2TbF6
_exptl_crystal_density_diffrn 4.82
_cell_measurement_temperature 5.
_publ_section_title

;
Magnetic structures of the M2 Tb F6 (M = Li, K, Rb) fluorides: A complex
behavior resulting from frustration
;
loop_
_citation_id
_citation_journal_full
_citation_year
_citation_journal_volume
_citation_page_first
_citation_page_last
_citation_journal_id_ASTM
primary 'Journal of Solid State Chemistry' 2007 180 1623 1635 JSSCBI
loop_
_publ_author_name
'Josse, M.'
'El Ghozzi, M.'
'Avignant, D.'
'Andre, G.'
'Bouree, F.'
_cell_length_a 7.5630(2)
_cell_length_b 4.9361(2)
_cell_length_c 11.0704(5)
_cell_angle_alpha 90
_cell_angle_beta 107.007(3)
_cell_angle_gamma 90
_cell_volume 395.2
_cell_formula_units_Z 4
_symmetry_space_group_name_H-M 'P 1 21/c 1'
_symmetry_Int_Tables_number 14
_refine_ls_R_factor_all 0.0198
loop_
_symmetry_equiv_pos_site_id
_symmetry_equiv_pos_as_xyz
1 'x, -y+1/2, z+1/2'
2 '-x, -y, -z'
3 '-x, y+1/2, -z+1/2'
4 'x, y, z'
loop_
_atom_type_symbol
_atom_type_oxidation_number
Li1+ 1
Tb4+ 4
F1- -1
loop_
_atom_site_label
_atom_site_type_symbol
_atom_site_symmetry_multiplicity
_atom_site_Wyckoff_symbol
_atom_site_fract_x
_atom_site_fract_y
_atom_site_fract_z
_atom_site_B_iso_or_equiv
_atom_site_occupancy
_atom_site_attached_hydrogens
Li1 Li1+ 4 e 0.402(7) 0.49(1) 0.305(5) . 1. 0
Li2 Li1+ 4 e 0.029(8) -0.04(1) 0.152(5) . 1. 0
Tb1 Tb4+ 4 e 0.252(3) 0.512(2) 0.000(1) . 1. 0
F1 F1- 4 e 0.456(2) 0.196(4) 0.422(2) . 1. 0
F2 F1- 4 e 0.105(4) 0.367(3) 0.827(2) . 1. 0
F3 F1- 4 e 0.044(3) 0.223(6) 0.541(1) . 1. 0
F4 F1- 4 e 0.405(4) 0.234(4) 0.657(2) . 1. 0
F5 F1- 4 e 0.249(2) 0.629(4) 0.402(2) . 1. 0
F6 F1- 4 e 0.251(2) 0.750(4) 0.656(2) . 1. 0
#End of TTdata_245622-ICSD