
#(C) 2018 by FIZ Karlsruhe - Leibniz Institute for Information Infrastructure.  All rights reserved.
data_245654-ICSD
_database_code_ICSD 245654
_audit_creation_date 2008-08-01
_chemical_name_systematic 'Dilithium cobalt octaoxotrititanate(IV)'
_chemical_formula_structural '(Li2 Co) (Ti3 O8)'
_chemical_formula_sum 'Co1 Li2 O8 Ti3'
_chemical_name_structure_type Spinel-LiFe5O8
_exptl_crystal_density_diffrn 3.79
_cell_measurement_temperature 973.
_publ_section_title
'Order-disorder transition in the complex lithium spinel Li2 Co Ti3 O8'
loop_
_citation_id
_citation_journal_full
_citation_year
_citation_journal_volume
_citation_page_first
_citation_page_last
_citation_journal_id_ASTM
primary 'Journal of Solid State Chemistry' 2007 180 1894 1901 JSSCBI
loop_
_publ_author_name
'Reeves, N.'
'Pasero, D.'
'West, A.R.'
_cell_length_a 8.45024(4)
_cell_length_b 8.45024(4)
_cell_length_c 8.45024(4)
_cell_angle_alpha 90.
_cell_angle_beta 90.
_cell_angle_gamma 90.
_cell_volume 603.4
_cell_formula_units_Z 4
_symmetry_space_group_name_H-M 'P 43 3 2'
_symmetry_Int_Tables_number 212
_refine_ls_R_factor_all 0.0465
loop_
_symmetry_equiv_pos_site_id
_symmetry_equiv_pos_as_xyz
1 'z+1/4, y+3/4, -x+3/4'
2 '-z+3/4, y+1/4, x+3/4'
3 'y+1/4, x+3/4, -z+3/4'
4 '-y+3/4, x+1/4, z+3/4'
5 'x+1/4, z+3/4, -y+3/4'
6 '-x+3/4, z+1/4, y+3/4'
7 'z+3/4, -y+3/4, x+1/4'
8 '-z+1/4, -y+1/4, -x+1/4'
9 'y+3/4, -x+3/4, z+1/4'
10 '-y+1/4, -x+1/4, -z+1/4'
11 'x+3/4, -z+3/4, y+1/4'
12 '-x+1/4, -z+1/4, -y+1/4'
13 '-y+1/2, -z, x+1/2'
14 '-y, z+1/2, -x+1/2'
15 'y+1/2, -z+1/2, -x'
16 'y, z, x'
17 'z+1/2, -x+1/2, -y'
18 '-z+1/2, -x, y+1/2'
19 '-z, x+1/2, -y+1/2'
20 'z, x, y'
21 '-x+1/2, -y, z+1/2'
22 '-x, y+1/2, -z+1/2'
23 'x+1/2, -y+1/2, -z'
24 'x, y, z'
loop_
_atom_type_symbol
_atom_type_oxidation_number
Li1+ 1
Co2+ 2
Li1+ 1
Co2+ 2
Ti4+ 4
O2- -2
loop_
_atom_site_label
_atom_site_type_symbol
_atom_site_symmetry_multiplicity
_atom_site_Wyckoff_symbol
_atom_site_fract_x
_atom_site_fract_y
_atom_site_fract_z
_atom_site_B_iso_or_equiv
_atom_site_occupancy
_atom_site_attached_hydrogens
Li1 Li1+ 8 c 0.9889(4) 0.9889(4) 0.9889(4) 0.0088(83) 0.520(6) 0
Co1 Co2+ 8 c 0.9889(4) 0.9889(4) 0.9889(4) 0.0088(83) 0.480(6) 0
Li2 Li1+ 4 b 0.625 0.625 0.625 0.0334(22) 0.933(14) 0
Co2 Co2+ 4 b 0.625 0.625 0.625 0.0334(22) 0.067(14) 0
Ti1 Ti4+ 12 d 0.125 0.3688(3) 0.8811(3) 0.0229(3) 0.988(6) 0
O1 O2- 8 c 0.3896(2) 0.3896(2) 0.3896(2) 0.0178(4) 1. 0
O2 O2- 24 e 0.1034(2) 0.1284(1) 0.3919(1) 0.0210(3) 1. 0
#End of TTdata_245654-ICSD