
#(C) 2018 by FIZ Karlsruhe - Leibniz Institute for Information Infrastructure.  All rights reserved.
data_245678-ICSD
_database_code_ICSD 245678
_audit_creation_date 2008-08-01
_chemical_name_systematic 'Lithium manganese niobate'
_chemical_formula_structural 'Li Mn (Nb O4)'
_chemical_formula_sum 'Li1 Mn1 Nb1 O4'
_chemical_name_structure_type TiMn2O4
_exptl_crystal_density_diffrn 4.45
_publ_section_title 'Ordered tetragonal spinel Li Mn Nb O4'
loop_
_citation_id
_citation_journal_full
_citation_year
_citation_journal_volume
_citation_page_first
_citation_page_last
_citation_journal_id_ASTM
primary 'Journal of Solid State Chemistry' 2007 180 2189 2193 JSSCBI
loop_
_publ_author_name
'Shukaev, I.L.'
'Pospelov, A.A.'
'Gannochenko, A.A.'
_cell_length_a 6.1858(1)
_cell_length_b 6.1858(1)
_cell_length_c 8.5312(1)
_cell_angle_alpha 90.
_cell_angle_beta 90.
_cell_angle_gamma 90.
_cell_volume 326.44
_cell_formula_units_Z 4
_symmetry_space_group_name_H-M 'P 43 2 2'
_symmetry_Int_Tables_number 95
_refine_ls_R_factor_all 0.0265
loop_
_symmetry_equiv_pos_site_id
_symmetry_equiv_pos_as_xyz
1 '-y, -x, -z+3/4'
2 'y, x, -z+1/4'
3 'x, -y, -z+1/2'
4 '-x, y, -z'
5 'y, -x, z+1/4'
6 '-y, x, z+3/4'
7 '-x, -y, z+1/2'
8 'x, y, z'
loop_
_atom_type_symbol
_atom_type_oxidation_number
Li1+ 1
Mn2+ 2
Nb5+ 5
O2- -2
Li1+ 1
Mn2+ 2
loop_
_atom_site_label
_atom_site_type_symbol
_atom_site_symmetry_multiplicity
_atom_site_Wyckoff_symbol
_atom_site_fract_x
_atom_site_fract_y
_atom_site_fract_z
_atom_site_B_iso_or_equiv
_atom_site_occupancy
_atom_site_attached_hydrogens
Li1 Li1+ 4 a 0.221(1) 0 0.25 0.018(2) 0.981 0
Mn1 Mn2+ 4 c 0.2555(1) 0.2555(1) 0.625 0.0122(2) 0.981 0
Nb1 Nb5+ 4 b 0.5 0.22204(9) 0 . 1. 0
O1 O2- 8 d 0.2708(3) 0.0335(3) 0.9951(2) 0.0187(7) 1. 0
O2 O2- 8 d 0.2697(3) 0.4806(3) 0.0213(2) 0.0142(7) 1. 0
Li2 Li1+ 4 c 0.2555(1) 0.2555(1) 0.625 0.0122(2) 0.019 0
Mn2 Mn2+ 4 a 0.221(1) 0 0.25 0.018(2) 0.019 0
loop_
_atom_site_aniso_label
_atom_site_aniso_type_symbol
_atom_site_aniso_U_11
_atom_site_aniso_U_22
_atom_site_aniso_U_33
_atom_site_aniso_U_12
_atom_site_aniso_U_13
_atom_site_aniso_U_23
Nb1 Nb5+ 0.0084(3) 0.0095(3) 0.0099(3) 0. 0.0010(4) 0.
#End of TTdata_245678-ICSD