
#(C) 2018 by FIZ Karlsruhe - Leibniz Institute for Information Infrastructure.  All rights reserved.
data_246026-ICSD
_database_code_ICSD 246026
_audit_creation_date 2009-02-01
_chemical_name_systematic 'Lithium platinate(IV)'
_chemical_formula_structural 'Li2 (Pt O3)'
_chemical_formula_sum 'Li2 O3 Pt1'
_chemical_name_structure_type Na5ReO6
_exptl_crystal_density_diffrn 7.63
_publ_section_title
'Structure and properties of ordered Li2 Ir O3 and Li2 Pt O3'
loop_
_citation_id
_citation_journal_full
_citation_year
_citation_journal_volume
_citation_page_first
_citation_page_last
_citation_journal_id_ASTM
primary 'Journal of Solid State Chemistry' 2008 181 1803 1809 JSSCBI
loop_
_publ_author_name
'O'Malley, M.J.'
'Verweij, H.'
'Woodward, P.M.'
_cell_length_a 5.1836(2)
_cell_length_b 8.9726(3)
_cell_length_c 5.1113(1)
_cell_angle_alpha 90
_cell_angle_beta 109.864(2)
_cell_angle_gamma 90
_cell_volume 223.58
_cell_formula_units_Z 4
_symmetry_space_group_name_H-M 'C 1 2/m 1'
_symmetry_Int_Tables_number 12
_refine_ls_R_factor_all 0.0479
loop_
_symmetry_equiv_pos_site_id
_symmetry_equiv_pos_as_xyz
1 '-x, y, -z'
2 '-x, -y, -z'
3 'x, -y, z'
4 'x, y, z'
5 '-x+1/2, y+1/2, -z'
6 '-x+1/2, -y+1/2, -z'
7 'x+1/2, -y+1/2, z'
8 'x+1/2, y+1/2, z'
loop_
_atom_type_symbol
_atom_type_oxidation_number
Pt4+ 4
Li1+ 1
Pt4+ 4
Li1+ 1
O2- -2
loop_
_atom_site_label
_atom_site_type_symbol
_atom_site_symmetry_multiplicity
_atom_site_Wyckoff_symbol
_atom_site_fract_x
_atom_site_fract_y
_atom_site_fract_z
_atom_site_B_iso_or_equiv
_atom_site_occupancy
_atom_site_attached_hydrogens
Pt1 Pt4+ 4 g 0 0.3331(2) 0 0.20(4) 0.917(1) 0
Li1 Li1+ 4 g 0 0.3331(2) 0 0.20(4) 0.083(1) 0
Li2 Li1+ 2 a 0 0 0 0.20(4) 0.834(3) 0
Pt2 Pt4+ 2 a 0 0 0 0.20(4) 0.166(3) 0
Li3 Li1+ 4 h 0 0.823(6) 0.5 0.20(4) 1. 0
Li4 Li1+ 2 d 0 0.5 0.5 0.20(4) 1. 0
O1 O2- 8 j 0.248(4) 0.319(1) 0.763(2) 0.3 1. 0
O2 O2- 4 i 0.260(5) 0 0.771(3) 0.3 1. 0
#End of TTdata_246026-ICSD