
#(C) 2018 by FIZ Karlsruhe - Leibniz Institute for Information Infrastructure.  All rights reserved.
data_246308-ICSD
_database_code_ICSD 246308
_audit_creation_date 2009-08-01
_chemical_name_systematic 'Lithium potassium sulfate(VI)'
_chemical_formula_structural 'Li K (S O4)'
_chemical_formula_sum 'K1 Li1 O4 S1'
_chemical_name_structure_type LiKSO4
_exptl_crystal_density_diffrn 2.38
_cell_measurement_temperature 302.
_publ_section_title

;
Structure of lithium potassium sulphate, Li K S O4: A neutron diffraction
study
;
loop_
_citation_id
_citation_journal_full
_citation_year
_citation_journal_volume
_citation_page_first
_citation_page_last
_citation_journal_id_ASTM
primary 'Acta Crystallographica, Section C: Crystal Structure Communications'
1984 40 1648 1651 ACSCEE
loop_
_publ_author_name
'Bhakay-Tamhane, S.N.'
'Sequeira, A.'
'Chidambaram, R.'
_cell_length_a 5.146(1)
_cell_length_b 5.146(1)
_cell_length_c 8.636(2)
_cell_angle_alpha 90.
_cell_angle_beta 90.
_cell_angle_gamma 120.
_cell_volume 198.05
_cell_formula_units_Z 2
_symmetry_space_group_name_H-M 'P 63'
_symmetry_Int_Tables_number 173
_refine_ls_R_factor_all 0.0338
loop_
_symmetry_equiv_pos_site_id
_symmetry_equiv_pos_as_xyz
1 'x-y, x, z+1/2'
2 'y, -x+y, z+1/2'
3 '-x, -y, z+1/2'
4 '-x+y, -x, z'
5 '-y, x-y, z'
6 'x, y, z'
loop_
_atom_type_symbol
_atom_type_oxidation_number
K1+ 1
S6+ 6
Li1+ 1
O2- -2
loop_
_atom_site_label
_atom_site_type_symbol
_atom_site_symmetry_multiplicity
_atom_site_Wyckoff_symbol
_atom_site_fract_x
_atom_site_fract_y
_atom_site_fract_z
_atom_site_B_iso_or_equiv
_atom_site_occupancy
_atom_site_attached_hydrogens
K1 K1+ 2 a 0 0 0 0.143(3) 1. 0
S1 S6+ 2 b 0.3333 0.6667 0.7045(8) 0.108(5) 1. 0
Li1 Li1+ 2 b 0.3333 0.6667 0.3145(11) 0.139(6) 1. 0
O1 O2- 6 c 0.2828(42) 0.6531(88) 0.5371(4) 0.161(20) 0.3333 0
O2 O2- 6 c 0.3446(4) 0.4031(3) 0.7583(7) 0.171(2) 1. 0
loop_
_atom_site_aniso_label
_atom_site_aniso_type_symbol
_atom_site_aniso_beta_11
_atom_site_aniso_beta_22
_atom_site_aniso_beta_33
_atom_site_aniso_beta_12
_atom_site_aniso_beta_13
_atom_site_aniso_beta_23
K1 K1+ 0.202(11) 0.202(11) 0.055(4) 0.101(11) 0 0
S1 S6+ 0.102(14) 0.102(14) 0.038(5) 0.051(14) 0 0
Li1 Li1+ 0.192(22) 0.192(22) 0.052(7) 0.081(22) 0 0
O1 O2- 0.355(104) 0.313(64) 0.032(2) 0.180(86) -0.049(16) -0.032(32)
O2 O2- 0.241(7) 0.180(7) 0.127(3) 0.124(6) 0.009(6) 0.057(5)
#End of TTdata_246308-ICSD