
#(C) 2018 by FIZ Karlsruhe - Leibniz Institute for Information Infrastructure.  All rights reserved.
data_247058-ICSD
_database_code_ICSD 247058
_audit_creation_date 2010-08-01
_chemical_name_systematic 'Dilithium chromium(III/IV) tris(molybdate(VI)) *'
_chemical_formula_structural 'Li1.8 Cr1.2 (Mo O4)3'
_chemical_formula_sum 'Cr1.2 Li1.8 Mo3 O12'
_exptl_crystal_density_diffrn 3.71
_publ_section_title

;
Crystal structure and magnetic properties of Li, Cr-containing molybdates Li3
Cr (Mo O4)3, Li Cr (Mo O4)2 and Li1.8 Cr1.2 (Mo O4)3
;
loop_
_citation_id
_citation_journal_full
_citation_year
_citation_journal_volume
_citation_page_first
_citation_page_last
_citation_journal_id_ASTM
primary 'Journal of Solid State Chemistry' 2009 182 3262 3268 JSSCBI
loop_
_publ_author_name
'Sarapulova, A.'
'Mikhailova, D.'
'Senyshyn, A.'
'Ehrenberg, H.'
_cell_length_a 6.7191(5)
_cell_length_b 6.8268(6)
_cell_length_c 11.3467(11)
_cell_angle_alpha 77.648(8)
_cell_angle_beta 85.610(7)
_cell_angle_gamma 77.782(7)
_cell_volume 496.64
_cell_formula_units_Z 2
_symmetry_space_group_name_H-M 'P -1'
_symmetry_Int_Tables_number 2
_refine_ls_R_factor_all 0.0245
loop_
_symmetry_equiv_pos_site_id
_symmetry_equiv_pos_as_xyz
1 '-x, -y, -z'
2 'x, y, z'
loop_
_atom_type_symbol
_atom_type_oxidation_number
Mo6+ 6
Cr3+ 3.5
Li1+ 1
Cr3+ 3.5
Li1+ 1
O2- -2
loop_
_atom_site_label
_atom_site_type_symbol
_atom_site_symmetry_multiplicity
_atom_site_Wyckoff_symbol
_atom_site_fract_x
_atom_site_fract_y
_atom_site_fract_z
_atom_site_B_iso_or_equiv
_atom_site_occupancy
_atom_site_attached_hydrogens
Mo1 Mo6+ 2 i -0.24684(6) 0.09542(6) -0.15097(3) 0.0052(1) 1. 0
Mo2 Mo6+ 2 i -0.29701(6) 0.28572(6) 0.19018(4) 0.0073(1) 1. 0
Mo3 Mo6+ 2 i 0.24592(6) 0.30289(6) -0.45005(3) 0.0058(1) 1. 0
Cr1 Cr3+ 2 i -0.1969(2) 0.1599(2) -0.4784(1) 0.0046(4) 0.531(3) 0
Li1 Li1+ 2 i -0.1969(2) 0.1599(2) -0.4784(1) 0.0046(4) 0.469(3) 0
Cr2 Cr3+ 2 i -0.1940(2) -0.2323(2) 0.1258(1) 0.0041(4) 0.680(3) 0
Li2 Li1+ 2 i -0.1940(2) -0.2323(2) 0.1258(1) 0.0041(4) 0.320(3) 0
Li3 Li1+ 2 i -0.176(1) -0.438(1) -0.0876(7) 0.013(2) 1. 0
O1 O2- 2 i -0.2010(5) -0.1491(5) -0.0515(3) 0.0077(7) 1. 0
O2 O2- 2 i -0.1639(5) 0.4809(5) 0.1062(3) 0.0091(7) 1. 0
O3 O2- 2 i -0.1091(5) 0.2685(5) -0.1143(3) 0.0076(7) 1. 0
O4 O2- 2 i -0.5076(5) 0.2004(5) -0.1417(3) 0.0113(7) 1. 0
O5 O2- 2 i -0.2486(5) 0.2450(5) 0.3428(3) 0.0135(8) 1. 0
O6 O2- 2 i -0.1788(5) 0.0586(5) -0.2966(3) 0.0108(7) 1. 0
O7 O2- 2 i 0.5015(5) 0.1904(5) -0.4536(3) 0.0137(8) 1. 0
O8 O2- 2 i 0.1126(5) 0.1366(5) -0.5034(3) 0.0089(7) 1. 0
O9 O2- 2 i 0.1741(5) 0.3205(5) -0.3005(3) 0.0113(7) 1. 0
O10 O2- 2 i 0.2061(5) 0.5506(5) -0.5407(3) 0.0110(7) 1. 0
O11 O2- 2 i -0.5548(5) 0.3595(6) 0.1696(3) 0.0180(8) 1. 0
O12 O2- 2 i -0.2112(5) 0.0536(5) 0.1389(3) 0.0109(7) 1. 0
#End of TTdata_247058-ICSD