
#(C) 2018 by FIZ Karlsruhe - Leibniz Institute for Information Infrastructure.  All rights reserved.
data_247056-ICSD
_database_code_ICSD 247056
_audit_creation_date 2010-08-01
_chemical_name_systematic 'Lithium chromium(III) bis(molybdate(VI))'
_chemical_formula_structural 'Li Cr (Mo O4)2'
_chemical_formula_sum 'Cr1 Li1 Mo2 O8'
_chemical_name_structure_type CuLa(WO4)2
_exptl_crystal_density_diffrn 4.06
_publ_section_title

;
Crystal structure and magnetic properties of Li, Cr-containing molybdates Li3
Cr (Mo O4)3, Li3 Cr (Mo O4)2 and Li1.8 Cr1.2 (Mo O4)3
;
loop_
_citation_id
_citation_journal_full
_citation_year
_citation_journal_volume
_citation_page_first
_citation_page_last
_citation_journal_id_ASTM
primary 'Journal of Solid State Chemistry' 2009 182 3262 3268 JSSCBI
loop_
_publ_author_name
'Sarapulova, A.'
'Mikhailova, D.'
'Senyshyn, A.'
'Ehrenberg, H.'
_cell_length_a 6.703(5)
_cell_length_b 7.148(7)
_cell_length_c 7.224(5)
_cell_angle_alpha 91.09(7)
_cell_angle_beta 110.48(7)
_cell_angle_gamma 105.62(7)
_cell_volume 309.8
_cell_formula_units_Z 2
_symmetry_space_group_name_H-M 'P -1'
_symmetry_Int_Tables_number 2
_refine_ls_R_factor_all 0.0251
loop_
_symmetry_equiv_pos_site_id
_symmetry_equiv_pos_as_xyz
1 '-x, -y, -z'
2 'x, y, z'
loop_
_atom_type_symbol
_atom_type_oxidation_number
Mo6+ 6
Cr3+ 3
Li1+ 1
O2- -2
loop_
_atom_site_label
_atom_site_type_symbol
_atom_site_symmetry_multiplicity
_atom_site_Wyckoff_symbol
_atom_site_fract_x
_atom_site_fract_y
_atom_site_fract_z
_atom_site_B_iso_or_equiv
_atom_site_occupancy
_atom_site_attached_hydrogens
Mo1 Mo6+ 2 i 0.32397(9) 0.46926(7) 0.21820(9) 0.0081(2) 1. 0
Mo2 Mo6+ 2 i -0.16939(9) 0.07426(7) 0.28816(9) 0.0107(2) 1. 0
Cr1 Cr3+ 2 i -0.0906(2) 0.6001(1) 0.3237(2) 0.0099(2) 1. 0
Li1 Li1+ 2 i -0.7308(15) -0.0501(12) 0.2612(17) 0.008(2) 1. 0
O1 O2- 2 i -0.0783(7) 0.3401(6) 0.3873(7) 0.0092(9) 1. 0
O2 O2- 2 i -0.2530(8) 0.0729(6) 0.0386(7) 0.020(1) 1. 0
O3 O2- 2 i 0.6177(7) 0.5544(6) 0.3491(7) 0.011(1) 1. 0
O4 O2- 2 i 0.2582(7) 0.4651(6) -0.0392(7) 0.016(1) 1. 0
O5 O2- 2 i -0.0211(7) -0.1161(6) 0.3440(7) 0.013(1) 1. 0
O6 O2- 2 i 0.1901(7) 0.6332(6) 0.2804(7) 0.010(1) 1. 0
O7 O2- 2 i 0.2197(8) 0.2306(6) 0.2571(7) 0.017(1) 1. 0
O8 O2- 2 i -0.4047(8) -0.0166(6) 0.3372(8) 0.019(1) 1. 0
#End of TTdata_247056-ICSD