
#(C) 2018 by FIZ Karlsruhe - Leibniz Institute for Information Infrastructure.  All rights reserved.
data_247327-ICSD
_database_code_ICSD 247327
_audit_creation_date 2011-02-01
_chemical_name_systematic
'Lanthanum lithium rhodium iron(III/IV) oxide (18/8/2.5/2.5/39)'
_chemical_formula_structural 'La18 Li8 Rh2.5 Fe2.5 O39'
_chemical_formula_sum 'Fe2.5 La18 Li8 O39 Rh2.5'
_chemical_name_structure_type Nd18Li8Fe5O39
_exptl_crystal_density_diffrn 6.53
_cell_measurement_temperature 293.
_publ_section_title

;
Structural chemistry and magnetic properties of Ln18 Li8 Rh(5-x) Fex O39 (Ln =
La, Nd)
;
loop_
_citation_id
_citation_journal_full
_citation_year
_citation_journal_volume
_citation_page_first
_citation_page_last
_citation_journal_id_ASTM
primary 'Inorganic Chemistry' 2010 49 5912 5922 INOCAJ
loop_
_publ_author_name
'Battle, P.D.'
'Dutton, S.E.'
'Thammajak, N.'
'Grandjean F.'
'Sougrati, M.T.'
'Long G.J.'
'Oh-Ishi, K.'
'Nakanishi, S.'
_cell_length_a 12.2023(1)
_cell_length_b 12.2023(1)
_cell_length_c 12.2023(1)
_cell_angle_alpha 90.
_cell_angle_beta 90.
_cell_angle_gamma 90.
_cell_volume 1816.88
_cell_formula_units_Z 2
_symmetry_space_group_name_H-M 'P m -3 n'
_symmetry_Int_Tables_number 223
_refine_ls_R_factor_all 0.049
loop_
_symmetry_equiv_pos_site_id
_symmetry_equiv_pos_as_xyz
1 'z+1/2, -y+1/2, x+1/2'
2 'y+1/2, -x+1/2, z+1/2'
3 'x+1/2, -z+1/2, y+1/2'
4 '-z+1/2, y+1/2, -x+1/2'
5 '-y+1/2, x+1/2, -z+1/2'
6 '-x+1/2, z+1/2, -y+1/2'
7 'z+1/2, y+1/2, -x+1/2'
8 'y+1/2, x+1/2, -z+1/2'
9 'x+1/2, z+1/2, -y+1/2'
10 '-z+1/2, -y+1/2, x+1/2'
11 '-y+1/2, -x+1/2, z+1/2'
12 '-x+1/2, -z+1/2, y+1/2'
13 '-z+1/2, y+1/2, x+1/2'
14 '-y+1/2, x+1/2, z+1/2'
15 '-x+1/2, z+1/2, y+1/2'
16 'z+1/2, -y+1/2, -x+1/2'
17 'y+1/2, -x+1/2, -z+1/2'
18 'x+1/2, -z+1/2, -y+1/2'
19 '-z+1/2, -y+1/2, -x+1/2'
20 '-y+1/2, -x+1/2, -z+1/2'
21 '-x+1/2, -z+1/2, -y+1/2'
22 'z+1/2, y+1/2, x+1/2'
23 'y+1/2, x+1/2, z+1/2'
24 'x+1/2, z+1/2, y+1/2'
25 'z, x, -y'
26 'y, z, -x'
27 'x, y, -z'
28 '-z, -x, y'
29 '-y, -z, x'
30 '-x, -y, z'
31 'z, -x, y'
32 'y, -z, x'
33 'x, -y, z'
34 '-z, x, -y'
35 '-y, z, -x'
36 '-x, y, -z'
37 '-z, x, y'
38 '-y, z, x'
39 '-x, y, z'
40 'z, -x, -y'
41 'y, -z, -x'
42 'x, -y, -z'
43 '-z, -x, -y'
44 '-y, -z, -x'
45 '-x, -y, -z'
46 'z, x, y'
47 'y, z, x'
48 'x, y, z'
loop_
_atom_type_symbol
_atom_type_oxidation_number
La3+ 3
Rh3+ 3
Fe4+ 4
Rh3+ 3
Fe3+ 3
Li1+ 1
Fe3+ 3
O2- -2
loop_
_atom_site_label
_atom_site_type_symbol
_atom_site_symmetry_multiplicity
_atom_site_Wyckoff_symbol
_atom_site_fract_x
_atom_site_fract_y
_atom_site_fract_z
_atom_site_B_iso_or_equiv
_atom_site_occupancy
_atom_site_attached_hydrogens
La1 La3+ 24 k 0 0.3073(3) 0.3040(3) 0.0144(5) 1. 0
La2 La3+ 12 f 0.3471(2) 0 0 0.0089(8) 1. 0
Rh1 Rh3+ 2 a 0 0 0 0.005(2) 0.26(6) 0
Fe1 Fe4+ 2 a 0 0 0 0.005(2) 0.74(6) 0
Rh2 Rh3+ 8 e 0.25 0.25 0.25 0.023(2) 0.56(2) 0
Fe2 Fe3+ 8 e 0.25 0.25 0.25 0.023(2) 0.31(2) 0
Li1 Li1+ 8 e 0.25 0.25 0.25 0.023(2) 0.13(1) 0
Li2 Li1+ 16 i 0.3661(9) 0.3661(9) 0.3661(9) 0.011(5) 0.932(10) 0
Fe3 Fe3+ 16 i 0.3661(9) 0.3661(9) 0.3661(9) 0.011(5) 0.068(10) 0
O1 O2- 48 l 0.8636(3) 0.8610(3) 0.6951(2) 0.0132(5) 1. 0
O2 O2- 6 d 0.25 0.5 0 0.014(1) 1. 0
O3 O2- 12 g 0.6316(5) 0 0.5 0.009(1) 1. 0
O4 O2- 48 l 0.1550(7) 0.016(3) -0.021(2) 0.042(4) 0.25 0
#End of TTdata_247327-ICSD