
#(C) 2018 by FIZ Karlsruhe - Leibniz Institute for Information Infrastructure.  All rights reserved.
data_248024-ICSD
_database_code_ICSD 248024
_audit_creation_date 2010-08-01
_chemical_name_systematic 'Tetralithium dicobalt(II/III) bis(diphosphate)'
_chemical_formula_structural 'Li4.03 Co1.97 (P2 O7)2'
_chemical_formula_sum 'Co1.97 Li4.03 O14 P4'
_exptl_crystal_density_diffrn 3.17
_cell_measurement_temperature 293.
_publ_section_title

;
Le phosphate de cobalt et de lithium a valence mixte Li4+x Co2-x (P2 O7)2 (x =
0,03): etude structurale et analyse de distribution de charge
;
loop_
_citation_id
_citation_journal_full
_citation_year
_citation_journal_volume
_citation_page_first
_citation_page_last
_citation_journal_id_ASTM
primary 'Acta Crystallographica, Section C: Crystal Structure Communications'
2010 66 i4 i6 ACSCEE
loop_
_publ_author_name
'Kouass, S.'
'Guesmi, A.'
'Driss, A.'
_cell_length_a 9.817(2)
_cell_length_b 9.741(3)
_cell_length_c 11.012(2)
_cell_angle_alpha 90.
_cell_angle_beta 101.76(2)
_cell_angle_gamma 90.
_cell_volume 1030.95
_cell_formula_units_Z 4
_symmetry_space_group_name_H-M 'P 1 21/a 1'
_symmetry_Int_Tables_number 14
_refine_ls_R_factor_all 0.0377
loop_
_symmetry_equiv_pos_site_id
_symmetry_equiv_pos_as_xyz
1 'x+1/2, -y+1/2, z'
2 '-x, -y, -z'
3 '-x+1/2, y+1/2, -z'
4 'x, y, z'
loop_
_atom_type_symbol
_atom_type_oxidation_number
P5+ 5
Co2+ 2
Li1+ 1
Co2+ 2
Li1+ 1
Co2+ 2
Li1+ 1
Co2+ 2.05
Li1+ 1
O2- -2
loop_
_atom_site_label
_atom_site_type_symbol
_atom_site_symmetry_multiplicity
_atom_site_Wyckoff_symbol
_atom_site_fract_x
_atom_site_fract_y
_atom_site_fract_z
_atom_site_B_iso_or_equiv
_atom_site_occupancy
_atom_site_attached_hydrogens
P1 P5+ 4 e 0.62275(9) 0.34876(9) 0.42258(8) 0.0063(2) 1 0
P2 P5+ 4 e 0.56244(9) 0.57163(9) 0.24178(8) 0.0071(2) 1 0
P3 P5+ 4 e 0.47904(9) -0.04514(10) 0.24202(8) 0.0069(2) 1 0
P4 P5+ 4 e 0.38331(9) 0.20390(9) 0.11059(8) 0.0074(2) 1 0
Co1 Co2+ 4 e 0.75270(8) 0.78420(8) 0.17967(7) 0.0088(3) 0.597(3) 0
Li1 Li1+ 4 e 0.75270(8) 0.78420(8) 0.17967(7) 0.0088(3) 0.403(12) 0
Co2 Co2+ 4 e 0.65400(14) 0.07191(14) 0.04121(11) 0.0103(5) 0.321(3) 0
Li2 Li1+ 4 e 0.65400(14) 0.07191(14) 0.04121(11) 0.0103(5) 0.679(12) 0
Co3 Co2+ 4 e 0.5869(4) 0.3900(4) 0.0268(4) 0.0120(14) 0.051(3) 0
Li3 Li1+ 4 e 0.5869(4) 0.3900(4) 0.0268(4) 0.0120(14) 0.949(12) 0
Co4 Co2+ 4 e 0.30220(5) 0.43058(5) 0.32789(4) 0.00835(15) 1 0
Li4 Li1+ 4 e 0.6151(7) 0.7758(7) 0.4498(6) 0.0154(14) 1 0
Li5 Li1+ 4 e 0.8259(16) 0.5788(16) 0.4507(14) 0.019(3) 0.61(2) 0
Li6 Li1+ 4 e 0.875(3) 0.553(3) 0.494(2) 0.019(3) 0.38(2) 0
O1 O2- 4 e 0.4742(3) 0.3418(3) 0.4424(2) 0.0092(5) 1 0
O2 O2- 4 e 0.6174(3) 0.4213(2) 0.2905(2) 0.0095(4) 1 0
O3 O2- 4 e 0.6865(3) 0.2071(3) 0.4138(2) 0.0114(5) 1 0
O4 O2- 4 e 0.7229(3) 0.4345(3) 0.5174(2) 0.0101(5) 1 0
O5 O2- 4 e 0.5673(3) 0.5694(3) 0.1061(2) 0.0129(6) 1 0
O6 O2- 4 e 0.6658(3) 0.6762(3) 0.3121(2) 0.0125(5) 1 0
O7 O2- 4 e 0.4160(3) 0.5888(3) 0.2684(2) 0.0105(5) 1 0
O8 O2- 4 e 0.4824(3) -0.0852(3) 0.3751(2) 0.0117(5) 1 0
O9 O2- 4 e 0.6267(2) -0.0287(3) 0.2142(2) 0.0095(5) 1 0
O10 O2- 4 e 0.3893(3) -0.1355(3) 0.1440(2) 0.0105(5) 1 0
O11 O2- 4 e 0.4051(3) 0.1033(3) 0.2288(2) 0.0095(4) 1 0
O12 O2- 4 e 0.5244(3) 0.2202(3) 0.0782(2) 0.0116(5) 1 0
O13 O2- 4 e 0.3204(3) 0.3324(3) 0.1528(2) 0.0117(5) 1 0
O14 O2- 4 e 0.2806(3) 0.1319(3) 0.0032(2) 0.0117(5) 1 0
loop_
_atom_site_aniso_label
_atom_site_aniso_type_symbol
_atom_site_aniso_U_11
_atom_site_aniso_U_22
_atom_site_aniso_U_33
_atom_site_aniso_U_12
_atom_site_aniso_U_13
_atom_site_aniso_U_23
P1 P5+ 0.0073(4) 0.0025(4) 0.0083(4) 0.0006(3) -0.0002(3) 0.0008(3)
P2 P5+ 0.0089(4) 0.0035(5) 0.0085(4) -0.0002(3) 0.0008(3) 0.0001(3)
P3 P5+ 0.0084(4) 0.0036(4) 0.0083(4) 0.0000(3) 0.0010(3) 0.0001(3)
P4 P5+ 0.0083(4) 0.0045(4) 0.0088(4) 0.0010(3) 0.0002(3) -0.0007(3)
Co1 Co2+ 0.0114(4) 0.0050(4) 0.0101(4) -0.0002(3) 0.0024(3) 0.0005(3)
Li1 Li1+ 0.0114(4) 0.0050(4) 0.0101(4) -0.0002(3) 0.0024(3) 0.0005(3)
Co2 Co2+ 0.0123(7) 0.0071(7) 0.0108(7) 0.0016(5) 0.0006(5) -0.0015(5)
Li2 Li1+ 0.0123(7) 0.0071(7) 0.0108(7) 0.0016(5) 0.0006(5) -0.0015(5)
Co3 Co2+ 0.013(2) 0.006(2) 0.017(2) 0.0024(15) 0.0018(15) 0.0019(15)
Li3 Li1+ 0.013(2) 0.006(2) 0.017(2) 0.0024(15) 0.0018(15) 0.0019(15)
Co4 Co2+ 0.0091(3) 0.0056(3) 0.0101(3) 0.00016(18) 0.00132(18) 0.00199(17)
Li4 Li1+ 0.014(3) 0.013(4) 0.018(3) 0.005(3) 0.004(3) 0.005(2)
Li5 Li1+ 0.019(8) 0.023(7) 0.017(8) -0.007(6) 0.010(5) -0.001(5)
Li6 Li1+ 0.019(8) 0.023(7) 0.017(8) -0.007(6) 0.010(5) -0.001(5)
O1 O2- 0.0087(12) 0.0057(12) 0.0127(11) 0.0009(10) 0.0009(10) 0.0024(10)
O2 O2- 0.0149(9) 0.0029(9) 0.0105(8) 0.0033(7) 0.0020(7) 0.0020(6)
O3 O2- 0.0127(12) 0.0093(13) 0.0127(11) 0.0047(10) 0.0040(10) 0.0014(10)
O4 O2- 0.0114(12) 0.0060(13) 0.0117(12) -0.0023(10) -0.0002(10) -0.0036(9)
O5 O2- 0.0176(13) 0.0124(14) 0.0085(11) 0.0048(11) 0.0021(10) 0.0027(10)
O6 O2- 0.0132(13) 0.0088(13) 0.0156(12) -0.0066(11) 0.0032(10) -0.0049(10)
O7 O2- 0.0098(12) 0.0079(13) 0.0139(11) 0.0007(10) 0.0030(10) 0.0027(10)
O8 O2- 0.0117(12) 0.0112(14) 0.0128(12) 0.0050(11) 0.0035(10) 0.0034(10)
O9 O2- 0.0094(12) 0.0080(12) 0.0112(12) -0.0006(10) 0.0023(9) 0.0004(9)
O10 O2- 0.0118(12) 0.0046(12) 0.0141(12) -0.0019(10) 0.0005(10) -0.0025(10)
O11 O2- 0.0149(9) 0.0029(9) 0.0105(8) 0.0033(7) 0.0020(7) 0.0020(6)
O12 O2- 0.0121(12) 0.0076(13) 0.0163(12) 0.0023(10) 0.0057(10) 0.0025(10)
O13 O2- 0.0117(12) 0.0081(13) 0.0144(12) 0.0034(10) 0.0007(10) -0.0003(10)
O14 O2- 0.0107(12) 0.0097(14) 0.0128(12) -0.0002(10) -0.0021(10) -0.0036(10)
#End of TTdata_248024-ICSD