
#(C) 2017 by FIZ Karlsruhe - Leibniz Institute for Information Infrastructure.  All rights reserved.
data_248020-ICSD
_database_code_ICSD 248020
_audit_creation_date 2010-08-01
_chemical_name_systematic 'Pentapotassium europium(III) dilithium decafluoride'
_chemical_formula_structural 'K5 Eu Li2 F10'
_chemical_formula_sum 'Eu1 F10 K5 Li2'
_chemical_name_structure_type K5Li2NdF10
_exptl_crystal_density_diffrn 3.35
_cell_measurement_temperature 295.
_publ_section_title
'Pentapotassium europium(III) dilithium decafluoride, K5 Eu Li2 F10'
loop_
_citation_id
_citation_journal_full
_citation_year
_citation_journal_volume
_citation_page_first
_citation_page_last
_citation_journal_id_ASTM
primary 'Acta Crystallographica, Section E. Structure Reports Online' 2009 65
i82 i82 ACSEBH
loop_
_publ_author_name
'Gagor, A.'
_cell_length_a 20.5539(6)
_cell_length_b 7.7356(2)
_cell_length_c 6.8721(2)
_cell_angle_alpha 90.
_cell_angle_beta 90.
_cell_angle_gamma 90.
_cell_volume 1092.64
_cell_formula_units_Z 4
_symmetry_space_group_name_H-M 'P n m a'
_symmetry_Int_Tables_number 62
_refine_ls_R_factor_all 0.0211
loop_
_symmetry_equiv_pos_site_id
_symmetry_equiv_pos_as_xyz
1 'x+1/2, y, -z+1/2'
2 'x, -y+1/2, z'
3 '-x+1/2, y+1/2, z+1/2'
4 '-x, -y, -z'
5 '-x+1/2, -y, z+1/2'
6 '-x, y+1/2, -z'
7 'x+1/2, -y+1/2, -z+1/2'
8 'x, y, z'
loop_
_atom_type_symbol
_atom_type_oxidation_number
K1+ 1
Eu3+ 3
Li1+ 1
F1- -1
loop_
_atom_site_label
_atom_site_type_symbol
_atom_site_symmetry_multiplicity
_atom_site_Wyckoff_symbol
_atom_site_fract_x
_atom_site_fract_y
_atom_site_fract_z
_atom_site_B_iso_or_equiv
_atom_site_occupancy
_atom_site_attached_hydrogens
K1 K1+ 8 d 0.457104(13) 0.97833(4) 0.25084(4) 0.01525(4) 1 0
K2 K1+ 8 d 0.282845(14) 0.02578(4) 0.42686(4) 0.01675(5) 1 0
K3 K1+ 4 c 0.36036(2) 0.25 0.93720(6) 0.01762(7) 1 0
Eu1 Eu3+ 4 c 0.106855(4) 0.25 0.236787(10) 0.00739(2) 1 0
Li1 Li1+ 4 c 0.92238(15) 0.25 0.9701(4) 0.0131(5) 1 0
Li2 Li1+ 4 c 0.67290(16) 0.25 0.8419(5) 0.0143(6) 1 0
F1 F1- 4 c 0.00915(5) 0.25 0.04773(15) 0.01369(18) 1 0
F2 F1- 4 c 0.01991(5) 0.25 0.45288(15) 0.0174(2) 1 0
F3 F1- 8 d 0.09032(4) 0.96151(9) 0.15506(12) 0.01698(15) 1 0
F4 F1- 8 d 0.14639(4) 0.07571(10) 0.49951(11) 0.01549(14) 1 0
F5 F1- 4 c 0.21739(5) 0.25 0.19250(16) 0.0167(2) 1 0
F6 F1- 4 c 0.37353(6) 0.25 0.31189(16) 0.01580(19) 1 0
F7 F1- 4 c 0.75888(5) 0.25 0.79160(15) 0.0160(2) 1 0
F8 F1- 4 c 0.63085(5) 0.25 0.60493(14) 0.01447(19) 1 0
loop_
_atom_site_aniso_label
_atom_site_aniso_type_symbol
_atom_site_aniso_U_11
_atom_site_aniso_U_22
_atom_site_aniso_U_33
_atom_site_aniso_U_12
_atom_site_aniso_U_13
_atom_site_aniso_U_23
K1 K1+ 0.01483(10) 0.01435(10) 0.01657(10) -0.00139(8) -0.00065(9) -0.00117(9)
K2 K1+ 0.01782(11) 0.01449(11) 0.01795(10) 0.00145(9) -0.00036(9) -0.00152(9)
K3 K1+ 0.0292(2) 0.01074(15) 0.01291(14) 0. -0.00250(14) 0.
Eu1 Eu3+ 0.00789(3) 0.00732(3) 0.00696(3) 0. -0.00052(3) 0.
Li1 Li1+ 0.0131(13) 0.0150(14) 0.0112(12) 0. 0.0005(11) 0.
Li2 Li1+ 0.0160(15) 0.0147(14) 0.0121(12) 0. 0.0002(11) 0.
F1 F1- 0.0096(4) 0.0171(5) 0.0144(4) 0. -0.0018(4) 0.
F2 F1- 0.0163(5) 0.0221(5) 0.0138(4) 0. 0.0025(4) 0.
F3 F1- 0.0219(4) 0.0108(3) 0.0183(3) -0.0001(3) -0.0047(3) -0.0029(3)
F4 F1- 0.0222(4) 0.0104(3) 0.0139(3) -0.0007(3) -0.0029(3) -0.0009(3)
F5 F1- 0.0106(4) 0.0228(5) 0.0168(4) 0. -0.0014(4) 0.
F6 F1- 0.0150(5) 0.0197(5) 0.0127(4) 0. -0.0028(4) 0.
F7 F1- 0.0129(5) 0.0203(5) 0.0147(4) 0. 0.0011(4) 0.
F8 F1- 0.0134(4) 0.0205(5) 0.0095(4) 0. -0.0012(4) 0.
#End of TTdata_248020-ICSD