
#(C) 2018 by FIZ Karlsruhe - Leibniz Institute for Information Infrastructure.  All rights reserved.
data_248206-ICSD
_database_code_ICSD 248206
_audit_creation_date 2011-02-01
_chemical_name_systematic 'Tricalcium lithium hexaoxoosmate(V)'
_chemical_formula_structural 'Ca3 Li Os O6'
_chemical_formula_sum 'Ca3 Li1 O6 Os1'
_chemical_name_structure_type K4CdCl6
_exptl_crystal_density_diffrn 5.13
_cell_measurement_temperature 290.
_publ_section_title

;
Crystal growth and structure and magnetic properties of the 5d oxide Ca3 Li Os
O6: Extended superexchange magnetic interaction in oxide
;
loop_
_citation_id
_citation_journal_full
_citation_year
_citation_journal_volume
_citation_page_first
_citation_page_last
_citation_journal_id_ASTM
primary 'Journal of the American Chemical Society' 2010 132 8474 8483 JACSAT
loop_
_publ_author_name
'Shi, Y.G.'
'Guo, Y.F.'
'Yu, S.'
'Arai, M.'
'Sato, A.'
'Belik, A.A.'
'Yamaura, K.'
'Takayama Muromachi, E.'
_cell_length_a 9.2738(2)
_cell_length_b 9.2738(2)
_cell_length_c 10.7801(4)
_cell_angle_alpha 90.
_cell_angle_beta 90.
_cell_angle_gamma 120.
_cell_volume 802.91
_cell_formula_units_Z 6
_symmetry_space_group_name_H-M 'R -3 c H'
_symmetry_Int_Tables_number 167
_refine_ls_R_factor_all 0.0218
loop_
_symmetry_equiv_pos_site_id
_symmetry_equiv_pos_as_xyz
1 'x-y, -y, -z+1/2'
2 '-x, -x+y, -z+1/2'
3 'y, x, -z+1/2'
4 'x-y, x, -z'
5 'y, -x+y, -z'
6 '-x, -y, -z'
7 '-x+y, y, z+1/2'
8 'x, x-y, z+1/2'
9 '-y, -x, z+1/2'
10 '-x+y, -x, z'
11 '-y, x-y, z'
12 'x, y, z'
13 'x-y+2/3, -y+1/3, -z+5/6'
14 '-x+2/3, -x+y+1/3, -z+5/6'
15 'y+2/3, x+1/3, -z+5/6'
16 'x-y+2/3, x+1/3, -z+1/3'
17 'y+2/3, -x+y+1/3, -z+1/3'
18 '-x+2/3, -y+1/3, -z+1/3'
19 '-x+y+2/3, y+1/3, z+5/6'
20 'x+2/3, x-y+1/3, z+5/6'
21 '-y+2/3, -x+1/3, z+5/6'
22 '-x+y+2/3, -x+1/3, z+1/3'
23 '-y+2/3, x-y+1/3, z+1/3'
24 'x+2/3, y+1/3, z+1/3'
25 'x-y+1/3, -y+2/3, -z+1/6'
26 '-x+1/3, -x+y+2/3, -z+1/6'
27 'y+1/3, x+2/3, -z+1/6'
28 'x-y+1/3, x+2/3, -z+2/3'
29 'y+1/3, -x+y+2/3, -z+2/3'
30 '-x+1/3, -y+2/3, -z+2/3'
31 '-x+y+1/3, y+2/3, z+1/6'
32 'x+1/3, x-y+2/3, z+1/6'
33 '-y+1/3, -x+2/3, z+1/6'
34 '-x+y+1/3, -x+2/3, z+2/3'
35 '-y+1/3, x-y+2/3, z+2/3'
36 'x+1/3, y+2/3, z+2/3'
loop_
_atom_type_symbol
_atom_type_oxidation_number
Os5+ 5
Ca2+ 2
O2- -2
Li1+ 1
loop_
_atom_site_label
_atom_site_type_symbol
_atom_site_symmetry_multiplicity
_atom_site_Wyckoff_symbol
_atom_site_fract_x
_atom_site_fract_y
_atom_site_fract_z
_atom_site_B_iso_or_equiv
_atom_site_occupancy
_atom_site_attached_hydrogens
Os1 Os5+ 6 b 0. 0. 0. 0.00792(9) 1 0
Ca1 Ca2+ 18 e 0.64570(6) 0. 0.25 0.01067(12) 1 0
O1 O2- 36 f 0.0277(2) 0.8442(2) 0.39427(16) 0.0128(3) 1 0
Li1 Li1+ 6 a 0. 0. 0.25 0.025(4) 1 0
loop_
_atom_site_aniso_label
_atom_site_aniso_type_symbol
_atom_site_aniso_U_11
_atom_site_aniso_U_22
_atom_site_aniso_U_33
_atom_site_aniso_U_12
_atom_site_aniso_U_13
_atom_site_aniso_U_23
Os1 Os5+ 0.00836(10) 0.00836(10) 0.00704(12) 0.00418(5) 0. 0.
Ca1 Ca2+ 0.01129(17) 0.0110(2) 0.0096(2) 0.00551(11) -0.00043(7) -0.00087(15)
O1 O2- 0.00836(10) 0.00836(10) 0.00704(12) 0.00418(5) 0. 0.
Li1 Li1+ 0.028(7) 0.028(7) 0.019(9) 0.014(3) 0. 0.
#End of TTdata_248206-ICSD