
#(C) 2018 by FIZ Karlsruhe - Leibniz Institute for Information Infrastructure.  All rights reserved.
data_248343-ICSD
_database_code_ICSD 248343
_audit_creation_date 2014-08-01
_chemical_name_systematic 'Trilithium octaoxoborophosphate(V)'
_chemical_formula_structural 'Li3 B P2 O8'
_chemical_formula_sum 'B1 Li3 O8 P2'
_exptl_crystal_density_diffrn 2.64
_cell_measurement_temperature 293.
_publ_section_title
'Synthesis, crystal structure and lithium ion conduction of Li3BP2O8'
loop_
_citation_id
_citation_journal_full
_citation_year
_citation_journal_volume
_citation_page_first
_citation_page_last
_citation_journal_id_ASTM
primary 'Dalton Transactions' 2014 43 2294 2300 DTARAF
loop_
_publ_author_name
'Hasegawa, Toru'
'Yamane, Hisanori'
_cell_length_a 5.1888(5)
_cell_length_b 7.4118(7)
_cell_length_c 7.6735(7)
_cell_angle_alpha 101.179(3)
_cell_angle_beta 105.067(3)
_cell_angle_gamma 90.335(3)
_cell_volume 279.06
_cell_formula_units_Z 2
_symmetry_space_group_name_H-M 'P -1'
_symmetry_Int_Tables_number 2
_refine_ls_R_factor_all 0.0329
loop_
_symmetry_equiv_pos_site_id
_symmetry_equiv_pos_as_xyz
1 '-x, -y, -z'
2 'x, y, z'
loop_
_atom_type_symbol
_atom_type_oxidation_number
Li1+ 1
B3+ 3
P5+ 5
O2- -2
loop_
_atom_site_label
_atom_site_type_symbol
_atom_site_symmetry_multiplicity
_atom_site_Wyckoff_symbol
_atom_site_fract_x
_atom_site_fract_y
_atom_site_fract_z
_atom_site_B_iso_or_equiv
_atom_site_occupancy
_atom_site_attached_hydrogens
Li1 Li1+ 2 i 0.7757(12) 0.1333(8) 0.3078(8) 0.0311(12) 1 0
Li2 Li1+ 2 i 0.6698(9) 0.4796(7) 0.1455(6) 0.0193(10) 1 0
Li3 Li1+ 2 i 0.1387(11) 0.5327(9) 0.3879(10) 0.0468(18) 1 0
B1 B3+ 2 i 0.2584(5) 0.9615(4) 0.2316(4) 0.0108(6) 1 0
P1 P5+ 2 i 0.37120(12) 0.21492(9) 0.55001(9) 0.01021(18) 1 0
P2 P5+ 2 i 0.11689(12) 0.25094(9) 0.05505(9) 0.01017(18) 1 0
O1 O2- 2 i 0.0529(3) 0.8131(3) 0.1482(2) 0.0137(4) 1 0
O2 O2- 2 i 0.4736(3) 0.1125(2) 0.7151(2) 0.0127(4) 1 0
O3 O2- 2 i 0.9397(4) 0.3047(3) 0.1836(2) 0.0152(4) 1 0
O4 O2- 2 i 0.2023(3) 0.3680(2) 0.6055(2) 0.0135(4) 1 0
O5 O2- 2 i 0.2817(3) 0.0826(2) 0.1061(2) 0.0129(4) 1 0
O6 O2- 2 i 0.3045(4) 0.4066(3) 0.0591(3) 0.0169(4) 1 0
O7 O2- 2 i 0.1831(3) 0.0641(2) 0.3957(2) 0.0113(4) 1 0
O8 O2- 2 i 0.6000(3) 0.2751(3) 0.4847(2) 0.0145(4) 1 0
loop_
_atom_site_aniso_label
_atom_site_aniso_type_symbol
_atom_site_aniso_U_11
_atom_site_aniso_U_22
_atom_site_aniso_U_33
_atom_site_aniso_U_12
_atom_site_aniso_U_13
_atom_site_aniso_U_23
Li1 Li1+ 0.037(3) 0.025(3) 0.039(3) 0.003(2) 0.025(3) 0.006(2)
Li2 Li1+ 0.015(2) 0.025(3) 0.015(2) 0.0041(18) 0.0006(18) 0.0024(19)
Li3 Li1+ 0.020(3) 0.037(4) 0.066(5) -0.001(2) 0.004(3) -0.022(3)
B1 B3+ 0.0093(13) 0.0124(14) 0.0094(13) -0.0001(10) 0.0015(11) 0.0008(11)
P1 P5+ 0.0099(3) 0.0101(3) 0.0104(3) 0.0019(2) 0.0030(2) 0.0012(2)
P2 P5+ 0.0106(3) 0.0096(3) 0.0102(3) 0.0010(2) 0.0028(2) 0.0018(2)
O1 O2- 0.0146(9) 0.0147(10) 0.0106(9) -0.0037(7) 0.0022(7) 0.0013(7)
O2 O2- 0.0119(8) 0.0142(9) 0.0132(9) 0.0043(7) 0.0046(7) 0.0034(7)
O3 O2- 0.0167(9) 0.0166(10) 0.0142(9) 0.0059(7) 0.0071(8) 0.0033(8)
O4 O2- 0.0135(9) 0.0119(9) 0.0148(9) 0.0035(7) 0.0041(7) 0.0010(7)
O5 O2- 0.0146(9) 0.0126(9) 0.0147(9) 0.0045(7) 0.0073(7) 0.0060(7)
O6 O2- 0.0156(9) 0.0138(10) 0.0197(10) -0.0030(7) 0.0004(8) 0.0058(8)
O7 O2- 0.0112(8) 0.0119(9) 0.0109(9) 0.0003(7) 0.0044(7) 0.0004(7)
O8 O2- 0.0129(9) 0.0150(10) 0.0149(9) -0.0004(7) 0.0046(7) 0.0004(7)
#End of TTdata_248343-ICSD