
#(C) 2018 by FIZ Karlsruhe - Leibniz Institute for Information Infrastructure.  All rights reserved.
data_248642-ICSD
_database_code_ICSD 248642
_audit_creation_date 2015-02-01
_chemical_name_systematic 'Dilithium iron(II) orthosilicate'
_chemical_formula_structural 'Li2 Fe Si O4'
_chemical_formula_sum 'Fe1 Li2 O4 Si1'
_chemical_name_structure_type Li2(Fe,Mn)SiO4
_exptl_crystal_density_diffrn 3.19
_publ_section_title

;
Local structural change in Li2FeSiO4 polyanion cathode material during initial
cycling
;
loop_
_citation_id
_citation_journal_full
_citation_year
_citation_journal_volume
_citation_page_first
_citation_page_last
_citation_journal_id_ASTM
primary 'Solid State Ionics' 2014 262 110 114 SSIOD3
loop_
_publ_author_name
'Masese, Titus'
'Orikasa, Yuki'
'Mori, Takuya'
'Yamamoto, Kentaro'
'Ina, Toshiaki'
'Minato, Taketoshi'
'Nakanishi, Koji'
'Ohta, Toshiaki'
'Tassel, Cedric'
'Kobayashi, Yoji'
'Kageyama, Hiroshi'
'Arai, Hajime'
'Ogumi, Zempachi'
'Uchimoto, Yoshiharu'
_cell_length_a 8.2433(4)
_cell_length_b 5.0226(1)
_cell_length_c 8.2373(3)
_cell_angle_alpha 90
_cell_angle_beta 99.09
_cell_angle_gamma 90
_cell_volume 336.76
_cell_formula_units_Z 4
_symmetry_space_group_name_H-M 'P 1 21/n 1'
_symmetry_Int_Tables_number 14
_refine_ls_R_factor_all 0.0442
loop_
_symmetry_equiv_pos_site_id
_symmetry_equiv_pos_as_xyz
1 '-x+1/2, y+1/2, -z+1/2'
2 '-x, -y, -z'
3 'x+1/2, -y+1/2, z+1/2'
4 'x, y, z'
loop_
_atom_type_symbol
_atom_type_oxidation_number
Li1+ 1
Fe2+ 2
Si4+ 4
O2- -2
loop_
_atom_site_label
_atom_site_type_symbol
_atom_site_symmetry_multiplicity
_atom_site_Wyckoff_symbol
_atom_site_fract_x
_atom_site_fract_y
_atom_site_fract_z
_atom_site_B_iso_or_equiv
_atom_site_occupancy
_atom_site_attached_hydrogens
Li1 Li1+ 4 e 0.6637 0.8144 0.6811 0.0093 1. 0
Li2 Li1+ 4 e 0.5913 0.214 0.0768 0.0095 1. 0
Fe1 Fe2+ 4 e 0.2907(3) 0.7916(3) 0.5408(4) 0.0083 0.9835 0
Si1 Si4+ 4 e 0.0452(5) 0.8045(5) 0.7916(5) 0.007 1. 0
O1 O2- 4 e 0.8544(11) 0.7077(15) 0.8199(9) 0.0016 1. 0
O2 O2- 4 e 0.4212(9) 0.2177(9) 0.8749(8) 0.0084 1. 0
O3 O2- 4 e 0.7122(9) 0.7629(8) 0.4317(7) 0.0093 1. 0
O4 O2- 4 e 0.9699(9) 0.8448(8) 0.2142(9) 0.0096 1. 0
#End of TTdata_248642-ICSD