
#(C) 2018 by FIZ Karlsruhe - Leibniz Institute for Information Infrastructure.  All rights reserved.
data_248835-ICSD
_database_code_ICSD 248835
_audit_creation_date 2015-02-01
_chemical_name_systematic 'Lithium copper tellurium oxide (7.4/2.72/1.88/12)'
_chemical_formula_structural 'Li7.40 Cu2.72 Te1.88 O12'
_chemical_formula_sum 'Cu2.72 Li7.4 O12 Te1.88'
_chemical_name_structure_type Na5ReO6
_exptl_crystal_density_diffrn 4.78
_cell_measurement_temperature 293.
_publ_section_title 'Novel lithium-containing honeycomb structures'
loop_
_citation_id
_citation_journal_full
_citation_year
_citation_journal_volume
_citation_page_first
_citation_page_last
_citation_journal_id_ASTM
primary 'Inorganic Chemistry' 2012 51 10471 10473 INOCAJ
loop_
_publ_author_name
'Kumar, Vinod'
'Bhardwaj, Neha'
'Tomar, Nobel'
'Thakral, Vaishali'
'Uma, S.'
_cell_length_a 5.4477(10)
_cell_length_b 8.6822(12)
_cell_length_c 5.3247(10)
_cell_angle_alpha 90
_cell_angle_beta 115.19(2)
_cell_angle_gamma 90
_cell_volume 227.89
_cell_formula_units_Z 1
_symmetry_space_group_name_H-M 'C 1 2/m 1'
_symmetry_Int_Tables_number 12
_refine_ls_R_factor_all 0.013
loop_
_symmetry_equiv_pos_site_id
_symmetry_equiv_pos_as_xyz
1 '-x, y, -z'
2 '-x, -y, -z'
3 'x, -y, z'
4 'x, y, z'
5 '-x+1/2, y+1/2, -z'
6 '-x+1/2, -y+1/2, -z'
7 'x+1/2, -y+1/2, z'
8 'x+1/2, y+1/2, z'
loop_
_atom_type_symbol
_atom_type_oxidation_number
Te6+ 6
Cu2+ 2
Li1+ 1
Cu2+ 2
Li1+ 1
Cu2+ 2
O2- -2
loop_
_atom_site_label
_atom_site_type_symbol
_atom_site_symmetry_multiplicity
_atom_site_Wyckoff_symbol
_atom_site_fract_x
_atom_site_fract_y
_atom_site_fract_z
_atom_site_B_iso_or_equiv
_atom_site_occupancy
_atom_site_attached_hydrogens
Te1 Te6+ 2 a 0 0 0 0.00707(10) 0.94 0
Cu1 Cu2+ 2 a 0 0 0 0.00707(10) 0.06 0
Li1 Li1+ 4 h 0 0.1755(9) 0.5 0.0257(14) 1 0
Li2 Li1+ 2 d 0.5 0 0.5 0.0099(2) 0.68 0
Cu2 Cu2+ 2 d 0.5 0 0.5 0.0099(2) 0.32 0
Li3 Li1+ 4 g 0 0.33450(7) 0 0.00971(14) 0.51 0
Cu3 Cu2+ 4 g 0 0.33450(7) 0 0.00971(14) 0.49 0
O1 O2- 4 i 0.2241(4) 0 0.8006(5) 0.0128(4) 1 0
O2 O2- 8 j 0.2227(3) 0.15786(19) 0.2431(3) 0.0147(3) 1 0
loop_
_atom_site_aniso_label
_atom_site_aniso_type_symbol
_atom_site_aniso_U_11
_atom_site_aniso_U_22
_atom_site_aniso_U_33
_atom_site_aniso_U_12
_atom_site_aniso_U_13
_atom_site_aniso_U_23
Te1 Te6+ 0.00539(13) 0.00513(13) 0.00912(14) 0 0.00156(9) 0
Cu1 Cu2+ 0.00539(13) 0.00513(13) 0.00912(14) 0 0.00156(9) 0
Li1 Li1+ 0.024(3) 0.037(4) 0.017(3) 0 0.010(2) 0
Li2 Li1+ 0.0083(6) 0.0074(6) 0.0083(6) 0 -0.0020(5) 0
Cu2 Cu2+ 0.0083(6) 0.0074(6) 0.0083(6) 0 -0.0020(5) 0
Li3 Li1+ 0.0088(3) 0.0055(3) 0.0120(3) 0 0.0017(2) 0
Cu3 Cu2+ 0.0088(3) 0.0055(3) 0.0120(3) 0 0.0017(2) 0
#End of TTdata_248835-ICSD