
#(C) 2018 by FIZ Karlsruhe - Leibniz Institute for Information Infrastructure.  All rights reserved.
data_249613-ICSD
_database_code_ICSD 249613
_audit_creation_date 2008-08-01
_chemical_name_systematic 'Lithium europium(II) polythioarsenate(III) *'
_chemical_formula_structural 'Li0.73 Eu3 As4.43 S10'
_chemical_formula_sum 'As4.43 Eu3 Li0.73 S10'
_chemical_name_structure_type Pb3As5+xS10
_exptl_crystal_density_diffrn 4.61
_cell_measurement_temperature 293.
_publ_section_title

;
Eu3 (As S4)2 and Ax Eu3-y As5-z S10 (A = Li,Na): Compounds with simple and
complex thioarsenate building blocks
;
loop_
_citation_id
_citation_journal_full
_citation_year
_citation_journal_volume
_citation_page_first
_citation_page_last
_citation_journal_id_ASTM
primary 'Inorganic Chemistry' 2007 46 8466 8468 INOCAJ
loop_
_publ_author_name
'Bera, T.K.'
'Iyer, R.G.'
'Malliakas, C.D.'
'Kanatzidis, M.G.'
_cell_length_a 8.4565(3)
_cell_length_b 7.8249(3)
_cell_length_c 24.6170(11)
_cell_angle_alpha 90.
_cell_angle_beta 99.78(3)
_cell_angle_gamma 90.
_cell_volume 1605.27
_cell_formula_units_Z 4
_symmetry_space_group_name_H-M 'P 1 21/c 1'
_symmetry_Int_Tables_number 14
_refine_ls_R_factor_all 0.0366
loop_
_symmetry_equiv_pos_site_id
_symmetry_equiv_pos_as_xyz
1 'x, -y+1/2, z+1/2'
2 '-x, -y, -z'
3 '-x, y+1/2, -z+1/2'
4 'x, y, z'
loop_
_atom_type_symbol
_atom_type_oxidation_number
Eu2+ 2
As3+ 3
S2- -2
Li1+ 1
loop_
_atom_site_label
_atom_site_type_symbol
_atom_site_symmetry_multiplicity
_atom_site_Wyckoff_symbol
_atom_site_fract_x
_atom_site_fract_y
_atom_site_fract_z
_atom_site_B_iso_or_equiv
_atom_site_occupancy
_atom_site_attached_hydrogens
Eu1 Eu2+ 4 e 0.08642(4) 0.12656(5) 0.432286(14) 0.00826(9) 1 0
Eu2 Eu2+ 4 e 0.47221(4) 0.27368(4) 0.201029(14) 0.00581(9) 1 0
Eu3 Eu2+ 4 e 0.02673(4) 0.77399(4) 0.296921(14) 0.00625(9) 1 0
As1 As3+ 4 e 0.29548(8) 0.34524(9) 0.34003(3) 0.00516(14) 1 0
As2 As3+ 4 e 0.25583(8) 0.82589(9) 0.14875(3) 0.00495(13) 1 0
As3 As3+ 4 e 0.13898(8) 0.16741(9) 0.06044(3) 0.00586(14) 1 0
As4 As3+ 4 e 0.69426(11) 0.16123(11) 0.04509(4) 0.0132(3) 0.908(4) 0
As5 As3+ 4 e 0.43003(18) 0.5240(2) 0.04870(6) 0.0129(5) 0.523(5) 0
S1 S2- 4 e 0.0903(2) 0.1677(2) 0.31752(7) 0.0058(3) 1 0
S2 S2- 4 e 0.5076(2) 0.1719(2) 0.32572(7) 0.0083(3) 1 0
S3 S2- 4 e 0.2616(2) 0.5036(2) 0.26374(7) 0.0061(3) 1 0
S4 S2- 4 e 0.74843(19) 0.4756(2) 0.27553(6) 0.0060(3) 1 0
S5 S2- 4 e 0.3693(2) 0.0174(2) 0.09843(7) 0.0061(3) 1 0
S6 S2- 4 e 0.0466(2) 0.5162(2) 0.40556(7) 0.0071(3) 1 0
S7 S2- 4 e 0.1740(2) 0.3849(2) 0.11922(7) 0.0064(3) 1 0
S8 S2- 4 e 0.6884(2) 0.3460(2) 0.11312(7) 0.0093(3) 1 0
S9 S2- 4 e 0.1795(2) 0.6702(2) 0.00744(7) 0.0088(3) 1 0
S10 S2- 4 e 0.4142(2) 0.2041(2) 0.48911(7) 0.0109(3) 1 0
Li1 Li1+ 4 e 0.642(2) 0.062(2) 0.0308(7) 0.0132(3) 0.729(14) 0
loop_
_atom_site_aniso_label
_atom_site_aniso_type_symbol
_atom_site_aniso_U_11
_atom_site_aniso_U_22
_atom_site_aniso_U_33
_atom_site_aniso_U_12
_atom_site_aniso_U_13
_atom_site_aniso_U_23
Eu1 Eu2+ 0.00889(17) 0.00979(17) 0.00657(16) -0.00097(12) 0.00268(12)
0.00007(12)
Eu2 Eu2+ 0.00495(16) 0.00561(17) 0.00702(16) -0.00002(11) 0.00149(12)
-0.00078(11)
Eu3 Eu2+ 0.00552(17) 0.00685(18) 0.00652(16) 0.00050(11) 0.00143(13)
-0.00180(11)
As1 As3+ 0.0052(3) 0.0053(3) 0.0053(3) -0.0005(2) 0.0020(2) -0.0003(2)
As2 As3+ 0.0055(3) 0.0048(3) 0.0049(3) -0.0006(2) 0.0022(2) -0.0006(2)
As3 As3+ 0.0074(3) 0.0064(3) 0.0044(3) 0.0006(2) 0.0027(2) 0.0007(2)
As4 As3+ 0.0212(5) 0.0062(4) 0.0133(4) -0.0050(3) 0.0063(3) -0.0051(3)
As5 As3+ 0.0131(8) 0.0127(8) 0.0135(8) -0.0005(5) 0.0040(6) 0.0000(5)
S1 S2- 0.0051(7) 0.0058(7) 0.0070(7) 0.0006(5) 0.0024(6) 0.0010(5)
S2 S2- 0.0058(7) 0.0051(7) 0.0151(8) -0.0011(6) 0.0048(6) -0.0018(6)
S3 S2- 0.0071(7) 0.0059(7) 0.0059(6) 0.0000(5) 0.0025(5) 0.0011(5)
S4 S2- 0.0058(7) 0.0079(7) 0.0046(6) 0.0000(6) 0.0019(5) 0.0013(5)
S5 S2- 0.0061(7) 0.0055(7) 0.0073(7) -0.0004(5) 0.0026(6) 0.0006(5)
S6 S2- 0.0063(7) 0.0079(7) 0.0077(7) 0.0018(6) 0.0024(6) -0.0001(6)
S7 S2- 0.0082(7) 0.0051(7) 0.0058(7) 0.0012(6) 0.0006(6) -0.0002(5)
S8 S2- 0.0097(7) 0.0095(8) 0.0078(7) 0.0017(6) -0.0008(6) -0.0014(6)
S9 S2- 0.0095(7) 0.0066(7) 0.0104(7) -0.0016(6) 0.0019(6) -0.0016(6)
S10 S2- 0.0111(8) 0.0115(8) 0.0106(8) 0.0027(6) 0.0032(6) 0.0007(6)
Li1 Li1+ 0.0212(5) 0.0062(4) 0.0133(4) -0.0050(3) 0.0063(3) -0.0051(3)
#End of TTdata_249613-ICSD