
#(C) 2018 by FIZ Karlsruhe - Leibniz Institute for Information Infrastructure.  All rights reserved.
data_249705-ICSD
_database_code_ICSD 249705
_audit_creation_date 2009-02-01
_audit_update_record 2012-02-01
_chemical_name_systematic 'Lithium europium(II) trithioarsenate(III)'
_chemical_formula_structural 'Li Eu (As S3)'
_chemical_formula_sum 'As1 Eu1 Li1 S3'
_exptl_crystal_density_diffrn 4.24
_cell_measurement_temperature 100.
_publ_section_title

;
A Eu As S3 (A = Li, K, Rb, and Cs): New As3+ species from an arsenic-rich
polysulfide flux
;
loop_
_citation_id
_citation_journal_full
_citation_year
_citation_journal_volume
_citation_page_first
_citation_page_last
_citation_journal_id_ASTM
primary 'Inorganic Chemistry' 2008 47 7068 7070 INOCAJ
loop_
_publ_author_name
'Bera, T.K.'
'Kanatzidis, M.G.'
_cell_length_a 5.6862(5)
_cell_length_b 13.1187(11)
_cell_length_c 7.1735(6)
_cell_angle_alpha 90.
_cell_angle_beta 104.858(7)
_cell_angle_gamma 90.00(8)
_cell_volume 517.22
_cell_formula_units_Z 4
_symmetry_space_group_name_H-M 'P 1 21/c 1'
_symmetry_Int_Tables_number 14
_refine_ls_R_factor_all 0.0245
loop_
_symmetry_equiv_pos_site_id
_symmetry_equiv_pos_as_xyz
1 'x, -y+1/2, z+1/2'
2 '-x, -y, -z'
3 '-x, y+1/2, -z+1/2'
4 'x, y, z'
loop_
_atom_type_symbol
_atom_type_oxidation_number
Eu2+ 2
As3+ 3
S2- -2
Li1+ 1
loop_
_atom_site_label
_atom_site_type_symbol
_atom_site_symmetry_multiplicity
_atom_site_Wyckoff_symbol
_atom_site_fract_x
_atom_site_fract_y
_atom_site_fract_z
_atom_site_B_iso_or_equiv
_atom_site_occupancy
_atom_site_attached_hydrogens
Eu1 Eu2+ 4 e 0.33073(5) 0.58001(2) 0.23306(4) 0.00301(12) 1 0
As1 As3+ 4 e 0.12572(11) 0.59737(5) 0.66728(9) 0.00277(16) 1 0
S1 S2- 4 e 0.2766(3) 0.37109(12) 0.3822(2) 0.0041(3) 1 0
S2 S2- 4 e 0.7393(3) 0.28547(12) 0.1062(2) 0.0055(3) 1 0
S3 S2- 4 e 0.1947(3) 0.04403(11) 0.3541(2) 0.0039(3) 1 0
Li1 Li1+ 4 e 0.273(2) 0.2919(9) 0.0704(18) 0.011(2) 1 0
loop_
_atom_site_aniso_label
_atom_site_aniso_type_symbol
_atom_site_aniso_U_11
_atom_site_aniso_U_22
_atom_site_aniso_U_33
_atom_site_aniso_U_12
_atom_site_aniso_U_13
_atom_site_aniso_U_23
Eu1 Eu2+ 0.00222(17) 0.00307(16) 0.00336(16) -0.00007(10) 0.00000(10)
0.00007(10)
As1 As3+ 0.0023(3) 0.0029(3) 0.0027(3) -0.0004(2) -0.0001(2) 0.0003(2)
S1 S2- 0.0029(6) 0.0048(6) 0.0035(6) -0.0001(5) -0.0010(5) 0.0023(5)
S2 S2- 0.0079(7) 0.0030(6) 0.0041(7) -0.0018(5) -0.0015(5) 0.0003(5)
S3 S2- 0.0026(6) 0.0040(6) 0.0052(6) 0.0003(5) 0.0011(5) -0.0019(5)
Li1 Li1+ 0.019(6) 0.008(5) 0.010(5) 0.000(5) 0.007(5) 0.000(4)
#End of TTdata_249705-ICSD