
#(C) 2018 by FIZ Karlsruhe - Leibniz Institute for Information Infrastructure.  All rights reserved.
data_250117-ICSD
_database_code_ICSD 250117
_audit_creation_date 2004-10-01
_audit_update_record 2008-02-01
_chemical_name_systematic 'Lithium iron phosphate(V) hydroxide'
_chemical_formula_structural 'Li Fe (P O4) (O H)'
_chemical_formula_sum 'H1 Fe1 Li1 O5 P1'
_chemical_name_mineral Tavorite
_exptl_crystal_density_diffrn 3.32
_publ_section_title

;
The crystal structure and electron density of Fe2+ bearing tavorite in
relation to the genetic crystal chemistry of secondary phosphates of lithium
pegmatites
;
loop_
_citation_id
_citation_journal_full
_citation_year
_citation_journal_volume
_citation_page_first
_citation_page_last
_citation_journal_id_ASTM
primary Geokhimiya 1997 1997 720 729 GEOKAQ
loop_
_publ_author_name
'Yakubovich, O.V.'
'Urusov, V.S.'
_cell_length_a 5.347(1)
_cell_length_b 7.284(1)
_cell_length_c 5.132(1)
_cell_angle_alpha 109.15(2)
_cell_angle_beta 97.90(2)
_cell_angle_gamma 106.52(2)
_cell_volume 175.05
_cell_formula_units_Z 2
_symmetry_space_group_name_H-M 'P -1'
_symmetry_Int_Tables_number 2
_refine_ls_R_factor_all 0.0243
loop_
_symmetry_equiv_pos_site_id
_symmetry_equiv_pos_as_xyz
1 '-x, -y, -z'
2 'x, y, z'
loop_
_atom_type_symbol
_atom_type_oxidation_number
Fe3+ 3
Fe2+ 2
Li1+ 1
P5+ 5
O2- -2
H1+ 1
loop_
_atom_site_label
_atom_site_type_symbol
_atom_site_symmetry_multiplicity
_atom_site_Wyckoff_symbol
_atom_site_fract_x
_atom_site_fract_y
_atom_site_fract_z
_atom_site_B_iso_or_equiv
_atom_site_occupancy
_atom_site_attached_hydrogens
Fe1 Fe3+ 1 c 0 0.5 0 0.45(1) 1. 0
Fe2 Fe3+ 1 a 0 0 0 0.40(1) 1. 0
Fe3 Fe2+ 1 g 0 0.5 0.5 0.3(2) 0.0039(5) 0
Li1 Li1+ 2 i 0.6071(9) 0.182(1) 0.254(1) 1.4(1) 0.77(1) 0
Li2 Li1+ 2 i 0.631(3) 0.295(2) 0.278(3) 1.2(2) 0.23(1) 0
P1 P5+ 2 i 0.63897(7) 0.76670(5) 0.32444(7) 0.41(1) 1. 0
O1 O2- 2 i 0.6599(2) 0.8780(2) 0.1142(2) 0.69(2) 1. 0
O2 O2- 2 i 0.3413(2) 0.6600(2) 0.3107(2) 0.71(2) 1. 0
O3 O2- 2 i 0.9478(2) 0.2743(2) 0.1521(2) 0.72(2) 1. 0
O4 O2- 2 i 0.7879(2) 0.6122(2) 0.2662(2) 0.85(2) 1. 0
O5 O2- 2 i 0.2424(2) 0.0711(2) 0.3675(2) 0.73(2) 1. 0
H1 H1+ 2 i 0.04(5) 0.27(4) 0.32(5) 2.1(9) 1. 0
loop_
_atom_site_aniso_label
_atom_site_aniso_type_symbol
_atom_site_aniso_B_11
_atom_site_aniso_B_22
_atom_site_aniso_B_33
_atom_site_aniso_B_12
_atom_site_aniso_B_13
_atom_site_aniso_B_23
Fe1 Fe3+ 0.36(1) 0.43(1) 0.53(1) 0.14(1) 0.17(1) 0.08(1)
Fe2 Fe3+ 0.41(1) 0.42(1) 0.36(1) 0.13(1) 0.16(1) 0.07(1)
Li1 Li1+ 0.9(1) 3.1(3) 0.8(1) 0.9(2) 0.4(1) 0.9(1)
P1 P5+ 0.37(1) 0.53(1) 0.34(1) 0.15(1) 0.17(1) 0.11(1)
O1 O2- 0.64(2) 0.99(3) 0.58(2) 0.22(2) 0.50(2) 0.22(2)
O2 O2- 0.39(2) 0.89(3) 0.69(2) 0.06(2) 0.26(2) 0.11(2)
O3 O2- 0.77(3) 0.57(2) 0.92(3) 0.29(2) 0.36(2) 0.28(2)
O4 O2- 0.95(3) 1.05(3) 0.92(3) 0.70(2) 0.47(2) 0.45(2)
O5 O2- 0.76(3) 0.85(3) 0.39(2) 0.25(2) 0.10(2) -0.03(2)
#End of TTdata_250117-ICSD