
#(C) 2018 by FIZ Karlsruhe - Leibniz Institute for Information Infrastructure.  All rights reserved.
data_250567-ICSD
_database_code_ICSD 250567
_audit_creation_date 2014-08-01
_chemical_name_systematic 'Lithium magnesium borate fluoride (0.8/2.1/2/1)'
_chemical_formula_structural 'Li0.8 Mg2.1 B2 O5 F'
_chemical_formula_sum 'B2 F1 Li0.8 Mg2.1 O5'
_exptl_crystal_density_diffrn 2.9
_cell_measurement_temperature 296.
_publ_section_title

;
Li0.8 Mg2.1 B2 O5 F: the first borate fluoride with magnesium-oxygen-fluorine
octahedral chains
;
loop_
_citation_id
_citation_journal_full
_citation_year
_citation_journal_volume
_citation_page_first
_citation_page_last
_citation_journal_id_ASTM
primary 'Dalton Transactions' 2014 43 2828 2834 DTARAF
loop_
_publ_author_name
'Wang, Zheng'
'Zhang, Min'
'Pan, Shilie'
'Wang, Ying'
'Zhang, Hui'
'Chen, Zhaohui'
_cell_length_a 3.0881(4)
_cell_length_b 13.602(2)
_cell_length_c 9.6563(15)
_cell_angle_alpha 90.
_cell_angle_beta 91.744(9)
_cell_angle_gamma 90.
_cell_volume 405.41
_cell_formula_units_Z 4
_symmetry_space_group_name_H-M 'P 1 21/n 1'
_symmetry_Int_Tables_number 14
_refine_ls_R_factor_all 0.0366
loop_
_symmetry_equiv_pos_site_id
_symmetry_equiv_pos_as_xyz
1 '-x+1/2, y+1/2, -z+1/2'
2 '-x, -y, -z'
3 'x+1/2, -y+1/2, z+1/2'
4 'x, y, z'
loop_
_atom_type_symbol
_atom_type_oxidation_number
Mg2+ 2
Li1+ 1
Mg2+ 2
Li1+ 1
B3+ 3
F1- -1
O2- -2
loop_
_atom_site_label
_atom_site_type_symbol
_atom_site_symmetry_multiplicity
_atom_site_Wyckoff_symbol
_atom_site_fract_x
_atom_site_fract_y
_atom_site_fract_z
_atom_site_B_iso_or_equiv
_atom_site_occupancy
_atom_site_attached_hydrogens
Mg1 Mg2+ 4 e 0.9918(2) 0.32464(7) 1.10099(8) 0.0103(3) 1 0
Mg2 Mg2+ 4 e 0.9645(3) 0.35260(6) 0.73653(8) 0.0098(3) 1 0
Li1 Li1+ 2 b 0.5 0.5 1. 0.0143(14) 0.586(17) 0
Mg3 Mg2+ 2 b 0.5 0.5 1. 0.0143(14) 0.207(8) 0
Li2 Li1+ 4 e 0.182(3) -0.0122(7) 1.0097(10) 0.025(2) 0.5 0
B1 B3+ 4 e 0.4290(9) 0.1950(2) 0.9071(3) 0.0069(6) 1 0
B2 B3+ 4 e 0.6091(8) 0.4581(2) 1.2838(3) 0.0080(6) 1 0
F1 F1- 4 e 0.9897(4) 0.40476(11) 0.93035(14) 0.0124(4) 1 0
O1 O2- 4 e 0.4816(5) 0.25058(13) 0.79029(16) 0.0082(4) 1 0
O2 O2- 4 e 1.4802(5) 0.22919(12) 1.03974(17) 0.0083(4) 1 0
O3 O2- 4 e 0.5079(5) 0.41403(12) 1.16351(16) 0.0083(4) 1 0
O4 O2- 4 e 1.4617(5) 0.44584(13) 0.68343(16) 0.0088(4) 1 0
O5 O2- 4 e 0.3111(6) 0.09538(13) 0.89472(16) 0.0110(4) 1 0
loop_
_atom_site_aniso_label
_atom_site_aniso_type_symbol
_atom_site_aniso_U_11
_atom_site_aniso_U_22
_atom_site_aniso_U_33
_atom_site_aniso_U_12
_atom_site_aniso_U_13
_atom_site_aniso_U_23
Mg1 Mg2+ 0.0110(5) 0.0092(5) 0.0105(5) 0.0001(3) 0.0000(4) 0.0004(4)
Mg2 Mg2+ 0.0115(5) 0.0076(5) 0.0103(5) -0.0002(3) 0.0003(3) 0.0004(3)
Li1 Li1+ 0.020(2) 0.011(2) 0.012(2) 0.0000(16) 0.0013(16) 0.0032(16)
Mg3 Mg2+ 0.020(2) 0.011(2) 0.012(2) 0.0000(16) 0.0013(16) 0.0032(16)
Li2 Li1+ 0.032(5) 0.014(5) 0.028(6) 0.002(5) -0.002(5) 0.010(4)
B1 B3+ 0.0071(13) 0.0035(15) 0.0103(13) -0.0005(10) 0.0028(11) -0.0016(10)
B2 B3+ 0.0074(14) 0.0083(15) 0.0086(13) -0.0006(11) 0.0032(11) 0.0017(11)
F1 F1- 0.0167(8) 0.0108(9) 0.0099(8) -0.0002(6) 0.0007(6) 0.0010(6)
O1 O2- 0.0116(9) 0.0072(9) 0.0059(8) -0.0012(7) 0.0004(7) 0.0004(7)
O2 O2- 0.0094(9) 0.0081(10) 0.0075(8) 0.0004(7) 0.0002(7) -0.0003(7)
O3 O2- 0.0095(9) 0.0065(10) 0.0088(8) 0.0003(7) -0.0001(7) 0.0003(7)
O4 O2- 0.0110(9) 0.0068(10) 0.0087(9) 0.0007(7) 0.0007(7) -0.0005(7)
O5 O2- 0.0177(10) 0.0075(10) 0.0077(9) -0.0038(7) -0.0021(7) 0.0005(7)
#End of TTdata_250567-ICSD