
#(C) 2018 by FIZ Karlsruhe - Leibniz Institute for Information Infrastructure.  All rights reserved.
data_250542-ICSD
_database_code_ICSD 250542
_audit_creation_date 2014-08-01
_chemical_name_systematic
'Dilithium magnesium tetrakis(tetrahydridoborate) hexaammonia'
_chemical_formula_structural 'Li2 Mg (B H4)4 (N H3)6'
_chemical_formula_sum 'H34 B4 Li2 Mg1 N6'
_exptl_crystal_density_diffrn 0.83
_cell_measurement_temperature 298.
_publ_section_title

;
An ammonia-stabilized mixed-cation borohydride: synthesis, structure and
thermal decomposition behavior
;
loop_
_citation_id
_citation_journal_full
_citation_year
_citation_journal_volume
_citation_page_first
_citation_page_last
_citation_journal_id_ASTM
primary 'Physical Chemistry Chemical Physics' 2014 16 135 143 PPCPFQ
loop_
_publ_author_name
'Yang, Yanjing'
'Liu, Yongfeng'
'Wu, Hui'
'Zhou, Wei'
'Gao, Mingxia'
'Pan, Hongge'
_cell_length_a 10.7656(8)
_cell_length_b 10.7656(8)
_cell_length_c 13.843(1)
_cell_angle_alpha 90.
_cell_angle_beta 90.
_cell_angle_gamma 90.
_cell_volume 1604.38
_cell_formula_units_Z 4
_symmetry_space_group_name_H-M 'P 43 21 2'
_symmetry_Int_Tables_number 96
_refine_ls_R_factor_all 0.0409
loop_
_symmetry_equiv_pos_site_id
_symmetry_equiv_pos_as_xyz
1 'x+1/2, -y+1/2, -z+1/4'
2 '-x+1/2, y+1/2, -z+3/4'
3 '-y, -x, -z+1/2'
4 'y, x, -z'
5 'y+1/2, -x+1/2, z+1/4'
6 '-y+1/2, x+1/2, z+3/4'
7 '-x, -y, z+1/2'
8 'x, y, z'
loop_
_atom_type_symbol
_atom_type_oxidation_number
Mg2+ 2
Li1+ 1
H1- -1
B3+ 3
H1- -1
N3- -3
H1+ 1
N3- -3
H1+ 1
N3- -3
H1+ 1
loop_
_atom_site_label
_atom_site_type_symbol
_atom_site_symmetry_multiplicity
_atom_site_Wyckoff_symbol
_atom_site_fract_x
_atom_site_fract_y
_atom_site_fract_z
_atom_site_B_iso_or_equiv
_atom_site_occupancy
_atom_site_attached_hydrogens
Mg1 Mg2+ 4 a 0.002(1) 0.998(1) 0.75 0.02(1) 1. 0
Li1 Li1+ 8 b -0.005(4) 0.498(6) 0.880(9) 0.018(1) 1. 0
H1 H1- 8 b 0.887 0.6402 1.075 . 1. 0
H2 H1- 8 b 0.876 0.6274 0.931 . 1. 0
H3 H1- 8 b 0.044 0.6195 0.996 . 1. 0
H4 H1- 8 b 0.948 0.7789 0.993 . 1. 0
H5 H1- 8 b 0.1286 0.604 0.673 . 1. 0
H6 H1- 8 b 0.1221 0.449 0.755 . 1. 0
H7 H1- 8 b 0.1088 0.621 0.815 . 1. 0
B1 B3+ 8 b 0.939(1) 0.6659(8) 0.999(4) 0.022(2) 1. 0
B2 B3+ 8 b 0.1564(8) 0.558(1) 0.751(3) 0.022(2) 1. 0
H8 H1- 8 b 0.2693 0.565 0.759 . 1. 0
N1 N3- 8 b 0.118(2) 0.891(2) 0.8618(4) 0.025(1) 1. 0
H9 H1+ 8 b 0.189 0.84 0.8327 . 1. 0
H10 H1+ 8 b 0.162 0.951 0.9087 . 1. 0
H11 H1+ 8 b 0.068 0.83 0.904 . 1. 0
N2 N3- 8 b 0.919(1) 0.102(1) 0.8637(4) 0.025(1) 1. 0
H12 H1+ 8 b 0.86 0.051 0.9065 . 1. 0
H13 H1+ 8 b 0.865 0.173 0.8363 . 1. 0
H14 H1+ 8 b -0.019 0.146 0.91 . 1. 0
N3 N3- 8 b 0.865(1) 0.837(1) 0.764(1) 0.025(1) 1. 0
H15 H1+ 8 b 0.776 0.868 0.754 . 1. 0
H16 H1+ 8 b 0.876 0.764 0.717 . 1. 0
H17 H1+ 8 b 0.866 0.798 0.832 . 1. 0
#End of TTdata_250542-ICSD