
#(C) 2018 by FIZ Karlsruhe - Leibniz Institute for Information Infrastructure.  All rights reserved.
data_250679-ICSD
_database_code_ICSD 250679
_audit_creation_date 2015-02-01
_chemical_name_systematic
'(Bismuth copper oxide) (lithium) (phosphate(V)) (11.67/2.32/12/2/6/36)'
_chemical_formula_structural '(Bi11.67 Cu2.32 O12) (Li2) (P O4)6'
_chemical_formula_sum 'Bi11.67 Cu2.32 Li2 O36 P6'
_exptl_crystal_density_diffrn 7.17
_cell_measurement_temperature 296.
_publ_section_title 'Inorganic polar blocks into controlled acentric assemblies'
loop_
_citation_id
_citation_journal_full
_citation_year
_citation_journal_volume
_citation_page_first
_citation_page_last
_citation_journal_id_ASTM
primary 'Inorganic Chemistry' 2012 51 9557 9562 INOCAJ
loop_
_publ_author_name
'Endara, D.'
'Colmont, M.'
'Huve, M.'
'Capet, F.'
'Lejay, J.'
'Aschehoug, P.'
'Mentre, O.'
_cell_length_a 11.4096(4)
_cell_length_b 5.4333(2)
_cell_length_c 25.1315(9)
_cell_angle_alpha 90
_cell_angle_beta 90
_cell_angle_gamma 90
_cell_volume 1557.94
_cell_formula_units_Z 2
_symmetry_space_group_name_H-M 'P b n 21'
_symmetry_Int_Tables_number 33
_refine_ls_R_factor_all 0.0459
loop_
_symmetry_equiv_pos_site_id
_symmetry_equiv_pos_as_xyz
1 '-x+1/2, y+1/2, z'
2 'x+1/2, -y+1/2, z+1/2'
3 '-x, -y, z+1/2'
4 'x, y, z'
loop_
_atom_type_symbol
_atom_type_oxidation_number
Bi3+ 3
Cu2+ 2
Bi3+ 3
O2- -2
Cu2+ 2
Bi3+ 3
Li1+ 1
P5+ 5
O2- -2
P5+ 5
O2- -2
P5+ 5
O2- -2
loop_
_atom_site_label
_atom_site_type_symbol
_atom_site_symmetry_multiplicity
_atom_site_Wyckoff_symbol
_atom_site_fract_x
_atom_site_fract_y
_atom_site_fract_z
_atom_site_B_iso_or_equiv
_atom_site_occupancy
_atom_site_attached_hydrogens
Bi1 Bi3+ 4 a 0.13371(4) 0.03813(11) 0 0.01134(13) 1 0
Bi2 Bi3+ 4 a 0.36422(5) -0.00213(15) 0.10364(6) 0.01228(17) 1 0
Bi3 Bi3+ 4 a 0.14122(6) 0.4932(2) -0.10666(6) 0.01507(19) 1 0
Bi4 Bi3+ 4 a -0.12454(4) 0.47781(11) 0.00045(5) 0.01304(14) 1 0
Bi5 Bi3+ 4 a 0.35046(13) 0.5025(3) -0.20566(9) 0.0191(4) 0.2718 0
Cu1 Cu2+ 4 a 0.35046(13) 0.5025(3) -0.20566(9) 0.0191(4) 0.7282 0
Bi6 Bi3+ 4 a 0.13862(6) 0.01431(19) 0.21024(5) 0.0161(2) 1 0
O1 O2- 4 a 0.2471(13) 0.243(3) 0.0517(5) 0.0060(18) 1 0
O2 O2- 4 a 0.2486(13) 0.241(3) -0.0576(5) 0.008(2) 1 0
O3 O2- 4 a 0.2483(14) 0.257(3) -0.1633(5) 0.009(2) 1 0
O4 O2- 4 a 0.2530(14) 0.262(3) 0.1578(6) 0.013(2) 1 0
O5 O2- 4 a 0.2529(15) 0.765(3) 0.2645(7) 0.031(3) 1 0
O6 O2- 4 a 0.0520(10) 0.433(2) -0.0026(8) 0.026(3) 1 0
Cu2 Cu2+ 4 a 0.16414(10) 0.5111(3) 0.32385(7) 0.0299(4) 0.4353 0
Bi7 Bi3+ 4 a 0.16414(10) 0.5111(3) 0.32385(7) 0.0299(4) 0.5647 0
Li1 Li1+ 4 a -0.247(3) 1.232(6) 0.1714(13) 0.015(6) 1 0
P1 P5+ 4 a -0.0840(4) 0.9718(10) 0.0940(2) 0.0175(5) 1 0
O7 O2- 4 a 0.0419(13) 1.049(3) 0.1056(7) 0.048(3) 1 0
O8 O2- 4 a -0.1540(12) 0.994(3) 0.1441(6) 0.036(2) 1 0
O9 O2- 4 a -0.1343(17) 1.137(4) 0.0518(7) 0.078(4) 1 0
O10 O2- 4 a -0.0886(17) 0.716(3) 0.0742(7) 0.068(3) 1 0
P2 P5+ 4 a -0.0810(5) 0.9943(11) -0.09862(19) 0.0175(5) 1 0
O11 O2- 4 a -0.1555(13) 0.959(3) -0.1484(7) 0.048(3) 1 0
O12 O2- 4 a 0.0442(12) 1.024(3) -0.1150(6) 0.036(2) 1 0
O13 O2- 4 a -0.1219(17) 1.220(4) -0.0694(7) 0.078(4) 1 0
O14 O2- 4 a -0.0927(17) 0.781(3) -0.0624(7) 0.068(3) 1 0
P3 P5+ 4 a 0.0543(4) 0.5004(9) -0.25809(19) 0.0175(5) 1 0
O15 O2- 4 a 0.0361(14) 0.264(3) -0.2265(6) 0.048(3) 1 0
O16 O2- 4 a 0.1778(13) 0.507(3) -0.2779(6) 0.036(2) 1 0
O17 O2- 4 a 0.0315(17) 0.718(3) -0.2226(8) 0.078(4) 1 0
O18 O2- 4 a -0.0280(16) 0.514(3) -0.3035(6) 0.068(3) 1 0
loop_
_atom_site_aniso_label
_atom_site_aniso_type_symbol
_atom_site_aniso_U_11
_atom_site_aniso_U_22
_atom_site_aniso_U_33
_atom_site_aniso_U_12
_atom_site_aniso_U_13
_atom_site_aniso_U_23
Bi1 Bi3+ 0.00843(18) 0.0153(3) 0.0103(2) -0.00399(17) 0.0008(3) 0.0008(4)
Bi2 Bi3+ 0.0081(2) 0.0121(3) 0.0166(3) -0.0028(3) -0.0044(2) 0.0024(5)
Bi3 Bi3+ 0.0112(3) 0.0132(4) 0.0208(3) 0.0004(4) -0.0068(2) -0.0028(4)
Bi4 Bi3+ 0.00638(17) 0.0160(3) 0.0168(2) 0.00156(17) -0.0015(2) -0.0008(5)
Bi5 Bi3+ 0.0120(5) 0.0162(8) 0.0292(8) -0.0019(6) 0.0100(5) -0.0019(8)
Cu1 Cu2+ 0.0120(5) 0.0162(8) 0.0292(8) -0.0019(6) 0.0100(5) -0.0019(8)
Bi6 Bi3+ 0.0154(3) 0.0212(4) 0.0117(3) -0.0014(3) 0.0056(2) -0.0009(4)
Cu2 Cu2+ 0.0198(4) 0.0616(9) 0.0084(4) 0.0066(5) 0.0045(4) -0.0006(5)
Bi7 Bi3+ 0.0198(4) 0.0616(9) 0.0084(4) 0.0066(5) 0.0045(4) -0.0006(5)
#End of TTdata_250679-ICSD