
#(C) 2018 by FIZ Karlsruhe - Leibniz Institute for Information Infrastructure.  All rights reserved.
data_250677-ICSD
_database_code_ICSD 250677
_audit_creation_date 2015-02-01
_chemical_name_systematic 'Dilithium molybdate(VI) tellurate(IV)'
_chemical_formula_structural 'Li2 (Mo O3) (Te O3)'
_chemical_formula_sum 'Li2 Mo1 O6 Te1'
_exptl_crystal_density_diffrn 4.55
_cell_measurement_temperature 293.
_publ_section_title

;
Synthesis, structure, and characterization of new Li+ - d0 - lone-pair -
oxides: Noncentrosymmetric polar Li6(Mo2 O5)3 (Se O3)6 and centrosymmetric Li2
(M O3) (Te O3) (M = Mo6+ or W6+)
;
loop_
_citation_id
_citation_journal_full
_citation_year
_citation_journal_volume
_citation_page_first
_citation_page_last
_citation_journal_id_ASTM
primary 'Inorganic Chemistry' 2012 51 9529 9538 INOCAJ
loop_
_publ_author_name
'Nguyen, Sau Doan'
'Halasyamani, P. Shiv'
_cell_length_a 5.3830(5)
_cell_length_b 13.0027(11)
_cell_length_c 6.9814(6)
_cell_angle_alpha 90
_cell_angle_beta 94.7620(10)
_cell_angle_gamma 90
_cell_volume 486.96
_cell_formula_units_Z 4
_symmetry_space_group_name_H-M 'P 1 21/n 1'
_symmetry_Int_Tables_number 14
_refine_ls_R_factor_all 0.0274
loop_
_symmetry_equiv_pos_site_id
_symmetry_equiv_pos_as_xyz
1 '-x+1/2, y+1/2, -z+1/2'
2 '-x, -y, -z'
3 'x+1/2, -y+1/2, z+1/2'
4 'x, y, z'
loop_
_atom_type_symbol
_atom_type_oxidation_number
Li1+ 1
Mo6+ 6
Te4+ 4
O2- -2
loop_
_atom_site_label
_atom_site_type_symbol
_atom_site_symmetry_multiplicity
_atom_site_Wyckoff_symbol
_atom_site_fract_x
_atom_site_fract_y
_atom_site_fract_z
_atom_site_B_iso_or_equiv
_atom_site_occupancy
_atom_site_attached_hydrogens
Li1 Li1+ 4 e 0.2994(15) 0.0700(7) 0.7671(12) 0.0170(16) 1 0
Li2 Li1+ 4 e 0.2583(16) -0.1476(7) 0.0164(14) 0.0198(17) 1 0
Mo1 Mo6+ 4 e 0.21742(6) 0.08974(3) 0.24722(5) 0.00672(16) 1 0
Te1 Te4+ 4 e -0.25152(4) 0.207802(19) 0.43462(4) 0.00680(15) 1 0
O1 O2- 4 e 0.3595(6) -0.0197(2) 0.1633(5) 0.0119(6) 1 0
O2 O2- 4 e 0.3023(7) 0.0909(3) 0.4921(5) 0.0161(7) 1 0
O3 O2- 4 e -0.0999(6) 0.0534(2) 0.2359(5) 0.0130(6) 1 0
O4 O2- 4 e -0.4820(6) 0.1919(2) 0.2115(5) 0.0098(6) 1 0
O5 O2- 4 e -0.3675(6) 0.3441(2) 0.4671(5) 0.0086(5) 1 0
O6 O2- 4 e 0.0248(6) 0.2489(2) 0.3084(5) 0.0109(6) 1 0
loop_
_atom_site_aniso_label
_atom_site_aniso_type_symbol
_atom_site_aniso_U_11
_atom_site_aniso_U_22
_atom_site_aniso_U_33
_atom_site_aniso_U_12
_atom_site_aniso_U_13
_atom_site_aniso_U_23
Li1 Li1+ 0.015(4) 0.021(4) 0.016(4) -0.001(3) 0.009(3) -0.002(3)
Li2 Li1+ 0.016(4) 0.021(4) 0.022(4) 0.001(3) -0.003(3) -0.008(4)
Mo1 Mo6+ 0.0057(2) 0.0064(2) 0.0078(2) -0.00006(11) -0.00128(13) 0.00034(11)
Te1 Te4+ 0.00571(19) 0.0067(2) 0.0077(2) -0.00011(7) -0.00115(11) 0.00029(8)
O1 O2- 0.0103(13) 0.0093(14) 0.0156(15) 0.0024(11) -0.0024(12) -0.0014(12)
O2 O2- 0.0166(16) 0.0215(17) 0.0099(14) -0.0021(12) -0.0014(12) 0.0011(12)
O3 O2- 0.0077(13) 0.0116(14) 0.0195(15) -0.0015(11) 0.0003(12) -0.0015(12)
O4 O2- 0.0094(13) 0.0107(12) 0.0087(13) -0.0021(11) -0.0030(11) -0.0007(11)
O5 O2- 0.0085(12) 0.0074(12) 0.0096(13) 0.0022(10) -0.0017(10) 0.0015(10)
O6 O2- 0.0109(13) 0.0118(15) 0.0105(14) -0.0029(11) 0.0028(11) -0.0014(11)
#End of TTdata_250677-ICSD