
#(C) 2018 by FIZ Karlsruhe - Leibniz Institute for Information Infrastructure.  All rights reserved.
data_250678-ICSD
_database_code_ICSD 250678
_audit_creation_date 2015-02-01
_chemical_name_systematic 'Dilithium tungstate(VI) tellurate(IV)'
_chemical_formula_structural 'Li2 (W O3) (Te O3)'
_chemical_formula_sum 'Li2 O6 Te1 W1'
_exptl_crystal_density_diffrn 5.73
_cell_measurement_temperature 293.
_publ_section_title

;
Synthesis, structure, and characterization of new Li+ - d0 - lone-pair -
oxides: Noncentrosymmetric polar Li6(Mo2 O5)3 (Se O3)6 and centrosymmetric Li2
(M O3) (Te O3) (M = Mo6+ or W6+)
;
loop_
_citation_id
_citation_journal_full
_citation_year
_citation_journal_volume
_citation_page_first
_citation_page_last
_citation_journal_id_ASTM
primary 'Inorganic Chemistry' 2012 51 9529 9538 INOCAJ
loop_
_publ_author_name
'Nguyen, Sau Doan'
'Halasyamani, P. Shiv'
_cell_length_a 5.3950(5)
_cell_length_b 12.9440(12)
_cell_length_c 7.0149(7)
_cell_angle_alpha 90
_cell_angle_beta 94.2510(10)
_cell_angle_gamma 90
_cell_volume 488.52
_cell_formula_units_Z 4
_symmetry_space_group_name_H-M 'P 1 21/n 1'
_symmetry_Int_Tables_number 14
_refine_ls_R_factor_all 0.0209
loop_
_symmetry_equiv_pos_site_id
_symmetry_equiv_pos_as_xyz
1 '-x+1/2, y+1/2, -z+1/2'
2 '-x, -y, -z'
3 'x+1/2, -y+1/2, z+1/2'
4 'x, y, z'
loop_
_atom_type_symbol
_atom_type_oxidation_number
Li1+ 1
W6+ 6
Te4+ 4
O2- -2
loop_
_atom_site_label
_atom_site_type_symbol
_atom_site_symmetry_multiplicity
_atom_site_Wyckoff_symbol
_atom_site_fract_x
_atom_site_fract_y
_atom_site_fract_z
_atom_site_B_iso_or_equiv
_atom_site_occupancy
_atom_site_attached_hydrogens
Li1 Li1+ 4 e 0.3069(17) 0.0680(8) 0.7639(15) 0.0170(19) 1 0
Li2 Li1+ 4 e 0.2562(19) -0.1460(8) 0.0212(17) 0.021(2) 1 0
W1 W6+ 4 e 0.21724(3) 0.092920(14) 0.24512(3) 0.00857(11) 1 0
Te1 Te4+ 4 e -0.25067(5) 0.20421(2) 0.43209(5) 0.00872(12) 1 0
O1 O2- 4 e 0.3550(7) -0.0201(3) 0.1636(6) 0.0145(7) 1 0
O2 O2- 4 e 0.3042(8) 0.0929(3) 0.4919(6) 0.0170(9) 1 0
O3 O2- 4 e -0.1038(7) 0.0557(3) 0.2396(6) 0.0153(8) 1 0
O4 O2- 4 e -0.4847(6) 0.1929(3) 0.2114(5) 0.0115(7) 1 0
O5 O2- 4 e -0.3619(6) 0.3426(3) 0.4691(5) 0.0104(7) 1 0
O6 O2- 4 e 0.0265(7) 0.2482(3) 0.3068(6) 0.0125(7) 1 0
loop_
_atom_site_aniso_label
_atom_site_aniso_type_symbol
_atom_site_aniso_U_11
_atom_site_aniso_U_22
_atom_site_aniso_U_33
_atom_site_aniso_U_12
_atom_site_aniso_U_13
_atom_site_aniso_U_23
Li1 Li1+ 0.017(5) 0.013(4) 0.021(6) -0.002(3) 0.002(4) -0.003(4)
Li2 Li1+ 0.023(5) 0.019(5) 0.019(6) 0.001(4) -0.004(4) 0.001(4)
W1 W6+ 0.00915(14) 0.00896(14) 0.00754(16) 0.00002(6) 0.00016(8) 0.00044(6)
Te1 Te4+ 0.00911(17) 0.00956(18) 0.0074(2) -0.00011(10) 0.00011(12) 0.00036(11)
O1 O2- 0.0147(17) 0.0116(17) 0.017(2) 0.0022(13) 0.0003(14) -0.0028(14)
O2 O2- 0.023(2) 0.022(2) 0.005(2) -0.0025(14) 0.0006(16) 0.0007(13)
O3 O2- 0.0091(15) 0.0158(18) 0.021(2) -0.0046(13) 0.0017(14) -0.0023(15)
O4 O2- 0.0123(16) 0.0142(16) 0.0077(17) -0.0021(13) -0.0021(13) 0.0004(13)
O5 O2- 0.0134(16) 0.0097(16) 0.0080(19) 0.0021(12) -0.0005(13) -0.0006(12)
O6 O2- 0.0113(15) 0.0153(17) 0.011(2) -0.0011(13) 0.0036(13) -0.0006(14)
#End of TTdata_250678-ICSD