
#(C) 2018 by FIZ Karlsruhe - Leibniz Institute for Information Infrastructure.  All rights reserved.
data_250676-ICSD
_database_code_ICSD 250676
_audit_creation_date 2015-02-01
_chemical_name_systematic 'Hexalithium tris(dimolybdate) hexakis(selenate(IV))'
_chemical_formula_structural 'Li6 (Mo2 O5)3 (Se O3)6'
_chemical_formula_sum 'Li6 Mo6 O33 Se6'
_exptl_crystal_density_diffrn 4.06
_cell_measurement_temperature 298.
_publ_section_title

;
Synthesis, structure, and characterization of new Li+ - d0 - lone-pair -
oxides: Noncentrosymmetric polar Li6(Mo2 O5)3 (Se O3)6 and centrosymmetric Li2
(M O3) (Te O3) (M = Mo6+ or W6+)
;
loop_
_citation_id
_citation_journal_full
_citation_year
_citation_journal_volume
_citation_page_first
_citation_page_last
_citation_journal_id_ASTM
primary 'Inorganic Chemistry' 2012 51 9529 9538 INOCAJ
loop_
_publ_author_name
'Nguyen, Sau Doan'
'Halasyamani, P. Shiv'
_cell_length_a 8.2687(4)
_cell_length_b 16.6546(7)
_cell_length_c 19.2321(8)
_cell_angle_alpha 90.
_cell_angle_beta 90.
_cell_angle_gamma 90.
_cell_volume 2648.49
_cell_formula_units_Z 4
_symmetry_space_group_name_H-M 'P m n 21'
_symmetry_Int_Tables_number 31
_refine_ls_R_factor_all 0.0282
loop_
_symmetry_equiv_pos_site_id
_symmetry_equiv_pos_as_xyz
1 'x+1/2, -y, z+1/2'
2 '-x+1/2, -y, z+1/2'
3 '-x, y, z'
4 'x, y, z'
loop_
_atom_type_symbol
_atom_type_oxidation_number
Li1+ 1
Mo6+ 6
Se4+ 4
O2- -2
loop_
_atom_site_label
_atom_site_type_symbol
_atom_site_symmetry_multiplicity
_atom_site_Wyckoff_symbol
_atom_site_fract_x
_atom_site_fract_y
_atom_site_fract_z
_atom_site_B_iso_or_equiv
_atom_site_occupancy
_atom_site_attached_hydrogens
Li1 Li1+ 2 a 0 0.9953(11) 0.2237(12) 0.020(5) 1 0
Li2 Li1+ 2 a 0.5 0.0088(13) 0.2397(12) 0.025(5) 1 0
Li3 Li1+ 2 a 0.5 0.4984(11) -0.0109(12) 0.023(5) 1 0
Li4 Li1+ 2 a 0 0.5117(14) -0.0247(12) 0.026(5) 1 0
Li5 Li1+ 4 b 0.223(2) 0.6666(10) -0.2666(8) 0.027(4) 1 0
Li6 Li1+ 4 b 0.216(2) 0.8392(9) -0.0155(9) 0.031(4) 1 0
Li7 Li1+ 4 b 0.265(3) 0.6620(11) 0.2339(9) 0.044(5) 1 0
Li8 Li1+ 4 b 0.234(3) 0.1741(10) -0.0245(9) 0.040(5) 1 0
Mo1 Mo6+ 4 b 0.29781(8) 0.65723(4) 0.05285(4) 0.01240(15) 1 0
Mo2 Mo6+ 4 b 0.29633(9) 0.49764(4) -0.16323(4) 0.01266(16) 1 0
Mo3 Mo6+ 4 b 0.29392(9) 0.01043(4) 0.08522(4) 0.01313(16) 1 0
Mo4 Mo6+ 4 b 0.20421(9) 0.14778(4) 0.30627(4) 0.01307(14) 1 0
Mo5 Mo6+ 4 b 0.20108(8) 0.36248(4) 0.06237(4) 0.01279(15) 1 0
Mo6 Mo6+ 4 b 0.29335(8) 0.14917(4) -0.19604(4) 0.01211(14) 1 0
Se1 Se4+ 2 a 0 0.28071(6) -0.14165(6) 0.0139(2) 1 0
Se2 Se4+ 2 a 0 0.76420(6) 0.12762(7) 0.0145(2) 1 0
Se3 Se4+ 2 a 0.5 0.32737(6) -0.12951(6) 0.0123(2) 1 0
Se4 Se4+ 2 a 0 0.01831(7) -0.04077(6) 0.0155(3) 1 0
Se5 Se4+ 2 a 0.5 0.84157(6) 0.11481(6) 0.0137(3) 1 0
Se6 Se4+ 2 a 0 0.51065(7) -0.28642(6) 0.0132(2) 1 0
Se7 Se4+ 2 a 0.5 0.03452(6) -0.08245(6) 0.0123(2) 1 0
Se8 Se4+ 2 a 0 0.20579(7) 0.16579(6) 0.0139(2) 1 0
Se9 Se4+ 2 a 0 0.48340(7) 0.16965(7) 0.0137(2) 1 0
Se10 Se4+ 2 a 0.5 0.70171(7) -0.09031(6) 0.0135(2) 1 0
Se11 Se4+ 2 a 0.5 0.26337(7) 0.37947(6) 0.0148(3) 1 0
Se12 Se4+ 2 a 0.5 0.23388(7) 0.10576(7) 0.0154(3) 1 0
O1 O2- 4 b 0.1704(7) 0.5925(3) 0.0138(3) 0.0224(14) 1 0
O2 O2- 4 b 0.3004(7) 0.6270(4) 0.1377(3) 0.0225(14) 1 0
O3 O2- 2 a 0.5 0.6085(4) 0.0217(4) 0.0123(16) 1 0
O4 O2- 4 b 0.1548(7) 0.7505(3) 0.0671(3) 0.0194(13) 1 0
O5 O2- 4 b 0.3380(7) 0.7299(3) -0.0403(3) 0.0191(13) 1 0
O6 O2- 2 a 0.5 0.7456(4) 0.0833(4) 0.0145(17) 1 0
O7 O2- 4 b 0.3428(7) 0.8840(3) 0.0700(3) 0.0154(12) 1 0
O8 O2- 2 a 0.5 0.4922(4) -0.1123(5) 0.0145(18) 1 0
O9 O2- 2 a 0.5 0.7758(5) -0.1505(4) 0.0194(19) 1 0
O10 O2- 4 b 0.1570(7) 0.4625(3) -0.2418(3) 0.0155(12) 1 0
O11 O2- 2 a 0 0.4177(4) 0.0414(4) 0.0146(17) 1 0
O12 O2- 2 a 0.5 0.1874(5) 0.4333(5) 0.022(2) 1 0
O13 O2- 2 a 0 0.3003(5) -0.2252(5) 0.0191(18) 1 0
O14 O2- 2 a 0 0.6024(5) -0.2558(5) 0.0208(19) 1 0
O15 O2- 4 b 0.1613(7) 0.4200(3) 0.1647(3) 0.0172(12) 1 0
O16 O2- 4 b 0.1567(7) 0.9736(3) 0.0073(3) 0.0152(12) 1 0
O17 O2- 2 a 0 0.1130(5) -0.0170(5) 0.023(2) 1 0
O18 O2- 4 b 0.3445(7) 0.2428(3) 0.3208(3) 0.0185(13) 1 0
O19 O2- 4 b 0.1586(6) 0.2119(3) -0.1311(3) 0.0137(12) 1 0
O20 O2- 2 a 0.5 0.0084(4) 0.1346(5) 0.0148(17) 1 0
O21 O2- 2 a 0 0.6826(5) 0.1744(4) 0.023(2) 1 0
O22 O2- 2 a 0.5 0.2307(4) -0.1616(5) 0.0170(18) 1 0
O23 O2- 4 b 0.3396(7) 0.3669(3) -0.1737(3) 0.0139(12) 1 0
O24 O2- 4 b 0.1678(8) 0.4822(4) -0.0958(3) 0.0243(15) 1 0
O25 O2- 2 a 0.5 0.0979(4) -0.2184(4) 0.0121(16) 1 0
O26 O2- 2 a 0 0.5039(5) 0.2564(5) 0.0180(19) 1 0
O27 O2- 4 b 0.3454(6) 0.3029(3) 0.1246(3) 0.0153(12) 1 0
O28 O2- 4 b 0.3410(7) 0.0981(3) -0.0909(3) 0.0152(12) 1 0
O29 O2- 4 b 0.2830(7) 0.5980(3) -0.1775(3) 0.0222(14) 1 0
O30 O2- 4 b 0.1561(7) 0.2279(3) 0.2196(3) 0.0167(12) 1 0
O31 O2- 4 b 0.1720(7) 0.9907(4) 0.1547(3) 0.0211(14) 1 0
O32 O2- 4 b 0.3286(7) 0.4350(3) 0.0326(3) 0.0220(14) 1 0
O33 O2- 2 a 0 0.0989(4) 0.2758(4) 0.0149(17) 1 0
O34 O2- 4 b 0.1712(7) 0.0716(3) -0.2165(3) 0.0218(14) 1 0
O35 O2- 2 a 0.5 0.0199(5) 0.0052(4) 0.0168(18) 1 0
O36 O2- 4 b 0.3304(7) 0.0901(3) 0.2584(3) 0.0228(14) 1 0
O37 O2- 2 a 0 0.2878(4) 0.1130(4) 0.0161(18) 1 0
O38 O2- 4 b 0.2631(7) 0.1111(3) 0.0719(3) 0.0215(14) 1 0
O39 O2- 4 b 0.2223(7) 0.1094(3) 0.3883(3) 0.0207(14) 1 0
O40 O2- 4 b 0.2009(7) 0.2931(4) -0.0033(3) 0.0237(14) 1 0
O41 O2- 4 b 0.2642(7) 0.2109(4) -0.2657(3) 0.0208(14) 1 0
O42 O2- 2 a 0.5 0.2260(5) 0.0213(5) 0.025(2) 1 0
loop_
_atom_site_aniso_label
_atom_site_aniso_type_symbol
_atom_site_aniso_U_11
_atom_site_aniso_U_22
_atom_site_aniso_U_33
_atom_site_aniso_U_12
_atom_site_aniso_U_13
_atom_site_aniso_U_23
Li1 Li1+ 0.035(14) 0.003(9) 0.022(13) 0 0 -0.004(8)
Li2 Li1+ 0.037(15) 0.021(11) 0.016(12) 0 0 -0.001(9)
Li3 Li1+ 0.043(15) 0.011(10) 0.014(12) 0 0 -0.011(8)
Li4 Li1+ 0.017(12) 0.042(14) 0.018(12) 0 0 -0.005(10)
Li5 Li1+ 0.033(10) 0.031(9) 0.018(9) 0.014(7) -0.006(7) 0.001(7)
Li6 Li1+ 0.040(10) 0.025(8) 0.027(9) 0.019(7) 0.009(8) 0.000(7)
Li7 Li1+ 0.088(16) 0.026(9) 0.017(9) 0.014(9) -0.002(10) -0.001(7)
Li8 Li1+ 0.073(14) 0.024(9) 0.023(10) 0.017(9) -0.002(9) 0.001(7)
Mo1 Mo6+ 0.0113(4) 0.0111(3) 0.0148(4) -0.0001(3) 0.0008(3) 0.0004(3)
Mo2 Mo6+ 0.0123(4) 0.0119(3) 0.0137(4) 0.0010(3) 0.0000(3) -0.0009(3)
Mo3 Mo6+ 0.0115(4) 0.0130(3) 0.0148(4) 0.0003(3) 0.0006(3) -0.0011(3)
Mo4 Mo6+ 0.0139(3) 0.0111(3) 0.0142(4) 0.0006(3) -0.0010(3) 0.0010(3)
Mo5 Mo6+ 0.0119(4) 0.0137(3) 0.0127(4) 0.0006(3) 0.0006(3) 0.0004(3)
Mo6 Mo6+ 0.0111(3) 0.0118(3) 0.0134(3) 0.0004(3) -0.0001(3) -0.0006(3)
Se1 Se4+ 0.0129(6) 0.0106(5) 0.0182(6) 0 0 -0.0020(5)
Se2 Se4+ 0.0122(6) 0.0137(5) 0.0176(6) 0 0 -0.0031(5)
Se3 Se4+ 0.0142(6) 0.0094(5) 0.0134(6) 0 0 0.0003(5)
Se4 Se4+ 0.0139(6) 0.0201(6) 0.0125(6) 0 0 0.0009(5)
Se5 Se4+ 0.0154(6) 0.0105(5) 0.0153(7) 0 0 -0.0008(4)
Se6 Se4+ 0.0130(6) 0.0146(6) 0.0120(6) 0 0 0.0010(5)
Se7 Se4+ 0.0134(6) 0.0114(5) 0.0121(6) 0 0 0.0014(5)
Se8 Se4+ 0.0157(6) 0.0131(5) 0.0131(6) 0 0 0.0019(5)
Se9 Se4+ 0.0141(6) 0.0133(5) 0.0138(6) 0 0 -0.0023(5)
Se10 Se4+ 0.0133(6) 0.0139(5) 0.0133(6) 0 0 0.0011(4)
Se11 Se4+ 0.0132(6) 0.0149(6) 0.0162(6) 0 0 -0.0039(5)
Se12 Se4+ 0.0138(6) 0.0129(5) 0.0195(6) 0 0 0.0019(5)
O1 O2- 0.015(3) 0.023(3) 0.029(4) -0.002(3) 0.000(3) -0.009(3)
O2 O2- 0.027(4) 0.023(3) 0.017(3) 0.002(3) 0.008(3) 0.004(3)
O3 O2- 0.005(4) 0.016(4) 0.016(4) 0 0 -0.003(3)
O4 O2- 0.016(3) 0.016(3) 0.026(4) 0.005(2) 0.003(3) 0.004(3)
O5 O2- 0.012(3) 0.025(3) 0.020(3) 0.005(2) 0.003(2) 0.005(3)
O6 O2- 0.016(4) 0.008(4) 0.019(5) 0 0 -0.009(3)
O7 O2- 0.016(3) 0.009(3) 0.021(3) 0.003(2) -0.009(2) 0.001(2)
O8 O2- 0.010(4) 0.014(4) 0.019(5) 0 0 -0.006(3)
O9 O2- 0.016(5) 0.031(5) 0.012(5) 0 0 0.002(4)
O10 O2- 0.019(3) 0.012(3) 0.016(3) 0.000(2) -0.004(2) -0.004(2)
O11 O2- 0.017(4) 0.017(4) 0.011(4) 0 0 0.004(3)
O12 O2- 0.017(5) 0.025(5) 0.025(5) 0 0 -0.002(4)
O13 O2- 0.008(4) 0.026(4) 0.023(5) 0 0 -0.001(4)
O14 O2- 0.021(5) 0.013(4) 0.028(5) 0 0 0.000(4)
O15 O2- 0.015(3) 0.017(3) 0.020(3) 0.004(2) 0.004(2) -0.008(3)
O16 O2- 0.013(3) 0.014(3) 0.018(3) 0.001(2) -0.005(2) 0.000(2)
O17 O2- 0.025(5) 0.010(4) 0.033(6) 0 0 0.006(4)
O18 O2- 0.016(3) 0.019(3) 0.020(3) -0.001(2) -0.006(2) 0.006(3)
O19 O2- 0.013(3) 0.011(3) 0.017(3) 0.005(2) 0.003(2) -0.002(2)
O20 O2- 0.014(4) 0.017(4) 0.014(4) 0 0 -0.003(3)
O21 O2- 0.031(6) 0.026(5) 0.013(5) 0 0 0.001(4)
O22 O2- 0.016(4) 0.007(4) 0.029(5) 0 0 -0.006(3)
O23 O2- 0.015(3) 0.010(3) 0.017(3) -0.001(2) -0.002(2) -0.002(2)
O24 O2- 0.017(3) 0.032(3) 0.024(4) -0.002(3) 0.008(3) -0.007(3)
O25 O2- 0.010(4) 0.012(4) 0.015(4) 0 0 -0.005(3)
O26 O2- 0.014(5) 0.024(5) 0.015(5) 0 0 -0.007(3)
O27 O2- 0.009(3) 0.021(3) 0.016(3) 0.001(2) 0.003(2) -0.002(2)
O28 O2- 0.019(3) 0.012(3) 0.015(3) 0.006(2) -0.003(2) 0.002(2)
O29 O2- 0.026(3) 0.011(3) 0.029(4) -0.004(2) -0.011(3) 0.000(3)
O30 O2- 0.014(3) 0.022(3) 0.014(3) -0.002(2) -0.004(2) 0.004(2)
O31 O2- 0.011(3) 0.029(3) 0.024(4) -0.001(2) 0.005(3) 0.007(3)
O32 O2- 0.015(3) 0.026(3) 0.025(4) -0.002(2) 0.002(3) 0.004(3)
O33 O2- 0.007(4) 0.014(4) 0.023(5) 0 0 -0.003(3)
O34 O2- 0.015(3) 0.021(3) 0.030(4) -0.002(2) -0.005(3) -0.005(3)
O35 O2- 0.007(4) 0.024(4) 0.019(5) 0 0 0.009(4)
O36 O2- 0.019(3) 0.020(3) 0.029(4) 0.002(3) -0.001(3) 0.001(3)
O37 O2- 0.012(4) 0.017(4) 0.019(5) 0 0 0.008(3)
O38 O2- 0.017(3) 0.018(3) 0.030(4) 0.004(2) -0.001(3) 0.000(3)
O39 O2- 0.024(3) 0.019(3) 0.019(3) -0.005(3) -0.004(3) 0.010(2)
O40 O2- 0.029(4) 0.024(3) 0.018(3) 0.005(3) 0.001(3) -0.003(3)
O41 O2- 0.021(3) 0.024(3) 0.017(3) 0.004(3) -0.001(3) 0.007(3)
O42 O2- 0.029(5) 0.021(5) 0.027(5) 0 0 0.004(4)
#End of TTdata_250676-ICSD