
#(C) 2018 by FIZ Karlsruhe - Leibniz Institute for Information Infrastructure.  All rights reserved.
data_250749-ICSD
_database_code_ICSD 250749
_audit_creation_date 2015-02-01
_chemical_name_systematic 'Strontium lithium arsenide (1/0.95/0.98)'
_chemical_formula_structural 'Sr Li0.95 As0.98'
_chemical_formula_sum 'As0.98 Li0.95 Sr1'
_exptl_crystal_density_diffrn 3.93
_cell_measurement_temperature 295.
_publ_section_title

;
Synthesis, structure, and properties of two Zintl phases around the
composition SrLiAs
;
loop_
_citation_id
_citation_journal_full
_citation_year
_citation_journal_volume
_citation_page_first
_citation_page_last
_citation_journal_id_ASTM
primary 'Inorganic Chemistry' 2013 52 8971 8978 INOCAJ
loop_
_publ_author_name
'Feng, Xian-Juan'
'Prots, Yurii'
'Schmidt, Marcus Peter'
'Hoffmann, Stefan'
'Veremchuk, Igor'
'Schnelle, Walter'
'Burkhardt, Ulrich'
'Zhao, Jing-Tai'
'Grin, Yuri'
_cell_length_a 4.49277(9)
_cell_length_b 4.49277(9)
_cell_length_c 8.0970(3)
_cell_angle_alpha 90
_cell_angle_beta 90
_cell_angle_gamma 120
_cell_volume 141.54
_cell_formula_units_Z 2
_symmetry_space_group_name_H-M 'P 63/m m c'
_symmetry_Int_Tables_number 194
_refine_ls_R_factor_all 0.026
loop_
_symmetry_equiv_pos_site_id
_symmetry_equiv_pos_as_xyz
1 'x, x-y, -z+1/2'
2 '-x+y, y, -z+1/2'
3 '-y, -x, -z+1/2'
4 '-x+y, -x, -z+1/2'
5 '-y, x-y, -z+1/2'
6 'x, y, -z+1/2'
7 '-x, -x+y, z+1/2'
8 'x-y, -y, z+1/2'
9 'y, x, z+1/2'
10 'x-y, x, z+1/2'
11 'y, -x+y, z+1/2'
12 '-x, -y, z+1/2'
13 '-x, -x+y, -z'
14 'x-y, -y, -z'
15 'y, x, -z'
16 'x-y, x, -z'
17 'y, -x+y, -z'
18 '-x, -y, -z'
19 'x, x-y, z'
20 '-x+y, y, z'
21 '-y, -x, z'
22 '-x+y, -x, z'
23 '-y, x-y, z'
24 'x, y, z'
loop_
_atom_type_symbol
_atom_type_oxidation_number
Sr2+ 2
Li1+ 1
As3- -3
loop_
_atom_site_label
_atom_site_type_symbol
_atom_site_symmetry_multiplicity
_atom_site_Wyckoff_symbol
_atom_site_fract_x
_atom_site_fract_y
_atom_site_fract_z
_atom_site_B_iso_or_equiv
_atom_site_occupancy
_atom_site_attached_hydrogens
Sr1 Sr2+ 2 a 0 0 0 0.0136(2) 1. 0
Li1 Li1+ 2 d 0.33333 0.66666 0.75 0.0106(6) 0.95(6) 0
As1 As3- 2 c 0.33333 0.66666 0.25 0.0086(3) 0.852(4) 0
As2 As3- 4 f 0.33333 0.66666 0.280(1) 0.0085(6) 0.065(3) 0
loop_
_atom_site_aniso_label
_atom_site_aniso_type_symbol
_atom_site_aniso_U_11
_atom_site_aniso_U_22
_atom_site_aniso_U_33
_atom_site_aniso_U_12
_atom_site_aniso_U_13
_atom_site_aniso_U_23
Sr1 Sr2+ 0.0124(3) 0.0124(3) 0.0124(4) 0.0062(1) 0 0
As1 As3- 0.0072(3) 0.0072(3) 0.0086(4) 0.0036(1) 0 0
#End of TTdata_250749-ICSD