
#(C) 2018 by FIZ Karlsruhe - Leibniz Institute for Information Infrastructure.  All rights reserved.
data_250849-ICSD
_database_code_ICSD 250849
_audit_creation_date 2015-02-01
_chemical_name_systematic 'Barium iron(III) lithium oxide (1/8.62/1.38/15)'
_chemical_formula_structural 'Ba (Fe8.62 Li1.38) O15'
_chemical_formula_sum 'Ba1 Fe8.62 Li1.38 O15'
_chemical_name_structure_type BaV10O15
_exptl_crystal_density_diffrn 5.2
_cell_measurement_temperature 293.
_publ_section_title 'BaFe9LiO15. A new layered antiferromagnetic ferrite'
loop_
_citation_id
_citation_journal_full
_citation_year
_citation_journal_volume
_citation_page_first
_citation_page_last
_citation_journal_id_ASTM
primary 'Inorganic Chemistry' 2013 52 4866 4872 INOCAJ
loop_
_publ_author_name
'Yang, Tao'
'Daoud-Aladine, Aziz'
'Thomas, Michael F.'
'Claridge, John B.'
'Rosseinsky, Matthew J.'
_cell_length_a 11.513327(35)
_cell_length_b 10.221145(31)
_cell_length_c 9.425110(29)
_cell_angle_alpha 90
_cell_angle_beta 90
_cell_angle_gamma 90
_cell_volume 1109.13
_cell_formula_units_Z 4
_symmetry_space_group_name_H-M 'C m c a'
_symmetry_Int_Tables_number 64
_refine_ls_R_factor_all 0.0436
loop_
_symmetry_equiv_pos_site_id
_symmetry_equiv_pos_as_xyz
1 '-x, -y+1/2, z+1/2'
2 '-x, y+1/2, -z+1/2'
3 '-x, y, z'
4 '-x, -y, -z'
5 'x, y+1/2, -z+1/2'
6 'x, -y+1/2, z+1/2'
7 'x, -y, -z'
8 'x, y, z'
9 '-x+1/2, -y, z+1/2'
10 '-x+1/2, y, -z+1/2'
11 '-x+1/2, y+1/2, z'
12 '-x+1/2, -y+1/2, -z'
13 'x+1/2, y, -z+1/2'
14 'x+1/2, -y, z+1/2'
15 'x+1/2, -y+1/2, -z'
16 'x+1/2, y+1/2, z'
loop_
_atom_type_symbol
_atom_type_oxidation_number
Ba2+ 2
Fe3+ 3
Li1+ 1
Fe3+ 3
Li1+ 1
Fe3+ 3
Li1+ 1
O2- -2
O1- -1.25
O2- -2
loop_
_atom_site_label
_atom_site_type_symbol
_atom_site_symmetry_multiplicity
_atom_site_Wyckoff_symbol
_atom_site_fract_x
_atom_site_fract_y
_atom_site_fract_z
_atom_site_B_iso_or_equiv
_atom_site_occupancy
_atom_site_attached_hydrogens
Ba1 Ba2+ 4 b 0 0.5 0 1.7(13) 1 0
Fe1 Fe3+ 16 g 0.261806(96) 0.16066(12) 0.11382(13) 0.2(13) 0.7104(30) 0
Li1 Li1+ 16 g 0.261806(96) 0.16066(12) 0.11382(13) 0.2(13) 0.2896(30) 0
Fe2 Fe3+ 8 f 0 0.18497(12) 0.13639(15) 0.2(13) 0.9668(43) 0
Li2 Li1+ 8 f 0 0.18497(12) 0.13639(15) 0.2(13) 0.0332(43) 0
Fe3 Fe3+ 16 g 0.370268(85) 0.414600(90) 0.146569(90) 0.2(13) 0.9604(35) 0
Li3 Li1+ 16 g 0.370268(85) 0.414600(90) 0.146569(90) 0.2(13) 0.0396(35) 0
O1 O2- 8 e 0.25 0.32255(49) 0.25 0.4(13) 1 0
O2 O1- 4 a 0.5 0 0.5 1.2(13) 1 0
O3 O2- 8 d 0.74312(44) 0.5 0 0.2(13) 1 0
O4 O2- 16 g 0.87273(38) 0.41331(38) 0.74376(40) 0.7(13) 1 0
O5 O2- 16 g 0.12674(31) 0.23433(35) 0.99480(43) 0.3(13) 1 0
O6 O2- 8 f 0 0.65423(52) 0.75888(64) 0.2(13) 1 0
#End of TTdata_250849-ICSD