
#(C) 2018 by FIZ Karlsruhe - Leibniz Institute for Information Infrastructure.  All rights reserved.
data_251155-ICSD
_database_code_ICSD 251155
_audit_creation_date 2015-02-01
_chemical_name_systematic 'Lithium tetralead borate bis(phosphate)'
_chemical_formula_structural 'Li Pb4 (B O3) (P O4)2'
_chemical_formula_sum 'B1 Li1 O11 P2 Pb4'
_exptl_crystal_density_diffrn 6.87
_cell_measurement_temperature 296.
_publ_section_title

;
The effect of the ratio of [M/(B+P)] on the configuration of anionic groups:
synthesis of the borate-phosphate LiPb4(BO3)(PO4)2
;
loop_
_citation_id
_citation_journal_full
_citation_year
_citation_journal_volume
_citation_page_first
_citation_page_last
_citation_journal_id_ASTM
primary 'European Journal of Inorganic Chemistry' 2014 2014 3467 3473 EJICFO
loop_
_publ_author_name
'Huang, Shengshi'
'Yu, Hongwei'
'Han, Jian'
'Pan, Shilie'
'Jing, Qun'
'Wang, Ying'
'Dong, Lingyun'
'Wu, Hongping'
'Yang, Zhihua'
'Wang, Xian'
_cell_length_a 12.613(13)
_cell_length_b 6.551(7)
_cell_length_c 25.36(3)
_cell_angle_alpha 90.
_cell_angle_beta 90.
_cell_angle_gamma 90.
_cell_volume 2095.44
_cell_formula_units_Z 8
_symmetry_space_group_name_H-M 'P b c a'
_symmetry_Int_Tables_number 61
_refine_ls_R_factor_all 0.0424
loop_
_symmetry_equiv_pos_site_id
_symmetry_equiv_pos_as_xyz
1 'x+1/2, y, -z+1/2'
2 'x, -y+1/2, z+1/2'
3 '-x+1/2, y+1/2, z'
4 '-x, -y, -z'
5 '-x+1/2, -y, z+1/2'
6 '-x, y+1/2, -z+1/2'
7 'x+1/2, -y+1/2, -z'
8 'x, y, z'
loop_
_atom_type_symbol
_atom_type_oxidation_number
Pb2+ 2
P5+ 5
B3+ 3
Li1+ 1
O2- -2
loop_
_atom_site_label
_atom_site_type_symbol
_atom_site_symmetry_multiplicity
_atom_site_Wyckoff_symbol
_atom_site_fract_x
_atom_site_fract_y
_atom_site_fract_z
_atom_site_B_iso_or_equiv
_atom_site_occupancy
_atom_site_attached_hydrogens
Pb1 Pb2+ 8 c 0.32057(5) 0.70783(10) -0.00979(3) 0.01440(17) 1 0
Pb2 Pb2+ 8 c 0.46859(5) 0.69539(10) -0.16854(3) 0.01517(17) 1 0
Pb3 Pb2+ 8 c 0.33814(5) 0.30513(11) 0.27727(3) 0.01771(18) 1 0
Pb4 Pb2+ 8 c -0.03372(5) 0.30759(10) 0.08386(3) 0.01656(17) 1 0
P1 P5+ 8 c 0.1187(3) 0.2868(7) 0.20270(16) 0.0105(8) 1 0
P2 P5+ 8 c 0.0923(3) 0.7833(7) 0.05478(17) 0.0129(9) 1 0
B1 B3+ 8 c 0.2576(15) 0.470(3) -0.1207(8) 0.012(4) 1 0
Li1 Li1+ 8 c 0.2522(19) 0.524(3) 0.1273(10) 0.004(5) 1 0
O1 O2- 8 c -0.0208(10) 0.7043(19) 0.0604(5) 0.024(3) 1 0
O2 O2- 8 c 0.0228(10) 0.3930(19) 0.1762(5) 0.022(3) 1 0
O3 O2- 8 c 0.1477(10) 0.4022(19) 0.2541(5) 0.022(3) 1 0
O4 O2- 8 c 0.0813(10) 0.0734(19) 0.2199(5) 0.024(3) 1 0
O5 O2- 8 c 0.1123(9) 0.8630(18) -0.0021(4) 0.015(3) 1 0
O6 O2- 8 c 0.1040(10) 0.963(2) 0.0930(5) 0.023(3) 1 0
O7 O2- 8 c 0.2220(9) 0.5555(18) -0.0739(4) 0.016(3) 1 0
O8 O2- 8 c 0.2157(10) 0.283(2) 0.1674(5) 0.025(3) 1 0
O9 O2- 8 c 0.3662(9) 0.4373(19) -0.1291(5) 0.018(3) 1 0
O10 O2- 8 c 0.3112(10) 0.922(2) -0.1608(5) 0.026(3) 1 0
O11 O2- 8 c 0.1701(9) 0.6104(19) 0.0645(6) 0.024(3) 1 0
loop_
_atom_site_aniso_label
_atom_site_aniso_type_symbol
_atom_site_aniso_U_11
_atom_site_aniso_U_22
_atom_site_aniso_U_33
_atom_site_aniso_U_12
_atom_site_aniso_U_13
_atom_site_aniso_U_23
Pb1 Pb2+ 0.0127(3) 0.0164(3) 0.0140(3) -0.0013(3) 0.0010(2) -0.0022(3)
Pb2 Pb2+ 0.0137(3) 0.0178(3) 0.0141(3) -0.0026(3) 0.0025(2) -0.0001(3)
Pb3 Pb2+ 0.0174(3) 0.0201(3) 0.0157(3) 0.0028(3) 0.0025(3) -0.0021(3)
Pb4 Pb2+ 0.0183(3) 0.0186(3) 0.0128(3) -0.0047(3) 0.0008(3) 0.0015(3)
P1 P5+ 0.0111(19) 0.015(2) 0.0049(19) 0.0001(18) -0.0007(15) -0.0009(17)
P2 P5+ 0.0104(19) 0.017(2) 0.011(2) -0.0034(18) -0.0047(16) -0.0014(18)
B1 B3+ 0.011(9) 0.013(9) 0.012(10) 0.002(7) 0.001(7) -0.003(7)
Li1 Li1+ 0.004(5) 0.004(5) 0.004(5) 0.0000(10) 0.0000(10) 0.0000(10)
O1 O2- 0.025(7) 0.013(6) 0.034(8) -0.008(6) -0.007(6) 0.005(6)
O2 O2- 0.028(7) 0.019(7) 0.017(7) 0.009(6) -0.012(6) -0.003(5)
O3 O2- 0.029(7) 0.023(7) 0.016(7) -0.001(6) 0.001(6) -0.007(6)
O4 O2- 0.037(8) 0.017(7) 0.017(7) -0.013(6) -0.003(6) 0.006(5)
O5 O2- 0.018(6) 0.024(7) 0.003(6) 0.004(5) -0.001(5) 0.004(5)
O6 O2- 0.020(6) 0.030(8) 0.018(7) -0.004(6) -0.005(5) -0.015(6)
O7 O2- 0.013(6) 0.025(7) 0.009(6) 0.001(5) 0.002(5) -0.002(5)
O8 O2- 0.024(7) 0.026(7) 0.026(8) -0.005(6) 0.018(6) -0.014(6)
O9 O2- 0.008(5) 0.029(7) 0.017(7) 0.003(5) 0.001(5) 0.006(5)
O10 O2- 0.023(7) 0.038(8) 0.017(7) 0.016(6) 0.007(6) 0.010(6)
O11 O2- 0.015(6) 0.019(7) 0.038(8) 0.005(5) 0.005(6) -0.009(6)
#End of TTdata_251155-ICSD