
#(C) 2018 by FIZ Karlsruhe - Leibniz Institute for Information Infrastructure.  All rights reserved.
data_251544-ICSD
_database_code_ICSD 251544
_audit_creation_date 2015-08-01
_chemical_name_systematic 'Dilithium thorium(IV) bis(arsenate(V))'
_chemical_formula_structural 'Li2 Th (As O4)2'
_chemical_formula_sum 'As2 Li2 O8 Th1'
_exptl_crystal_density_diffrn 5.1
_cell_measurement_temperature 293.
_publ_section_title

;
Morphotropy and temperature-driven polymorphism in A2 Th (As O4)2 (A = Li, Na,
K, Rb, Cs) series
;
loop_
_citation_id
_citation_journal_full
_citation_year
_citation_journal_volume
_citation_page_first
_citation_page_last
_citation_journal_id_ASTM
primary 'Inorganic Chemistry' 2014 53 11231 11241 INOCAJ
loop_
_publ_author_name
'Yu, Na'
'Klepov, Vladislav V.'
'Modolo, Giuseppe'
'Bosbach, Dirk'
'Suleimanov, Evgeny V.'
'Gesing, Thorsten M.'
'Robben, Lars'
'Alekseev, Evgeny V.'
_cell_length_a 9.1841(3)
_cell_length_b 13.7468(4)
_cell_length_c 5.63541(17)
_cell_angle_alpha 90.
_cell_angle_beta 106.503(3)
_cell_angle_gamma 90.
_cell_volume 682.17
_cell_formula_units_Z 4
_symmetry_space_group_name_H-M 'P 1 21/c 1'
_symmetry_Int_Tables_number 14
_refine_ls_R_factor_all 0.0384
loop_
_symmetry_equiv_pos_site_id
_symmetry_equiv_pos_as_xyz
1 'x, -y+1/2, z+1/2'
2 '-x, -y, -z'
3 '-x, y+1/2, -z+1/2'
4 'x, y, z'
loop_
_atom_type_symbol
_atom_type_oxidation_number
Th4+ 4
As5+ 5
O2- -2
Li1+ 1
loop_
_atom_site_label
_atom_site_type_symbol
_atom_site_symmetry_multiplicity
_atom_site_Wyckoff_symbol
_atom_site_fract_x
_atom_site_fract_y
_atom_site_fract_z
_atom_site_B_iso_or_equiv
_atom_site_occupancy
_atom_site_attached_hydrogens
Th1 Th4+ 4 e 0.61462(5) -0.13333(3) 0.93204(7) 0.00574(16) 1 0
As1 As5+ 4 e 0.85231(15) -0.12836(10) 0.5897(2) 0.0091(3) 1 0
As2 As5+ 4 e 0.37193(15) -0.13117(10) 1.2742(2) 0.0099(3) 1 0
O1 O2- 4 e 0.4928(10) -0.2179(7) 1.2216(17) 0.0117(18) 1 0
O2 O2- 4 e 0.7778(10) -0.0783(6) 0.3118(16) 0.0097(17) 1 0
O3 O2- 4 e 0.7442(11) -0.2231(7) 0.6442(17) 0.0132(19) 1 0
O4 O2- 4 e 0.1970(11) -0.1741(9) 1.1982(19) 0.023(2) 1 0
O5 O2- 4 e 0.8309(13) -0.0567(8) 0.818(2) 0.023(2) 1 0
O6 O2- 4 e 0.3981(12) -0.0501(8) 1.0632(18) 0.019(2) 1 0
O7 O2- 4 e 0.4322(14) -0.0870(8) 1.565(2) 0.026(2) 1 0
O8 O2- 4 e 1.0324(11) -0.1601(9) 0.6351(19) 0.024(3) 1 0
Li1 Li1+ 4 e 0.107(3) -0.2425(19) 1.416(5) 0.026(6) 1 0
Li2 Li1+ 4 e 1.211(5) -0.070(3) 0.688(8) 0.052(10) 1 0
loop_
_atom_site_aniso_label
_atom_site_aniso_type_symbol
_atom_site_aniso_U_11
_atom_site_aniso_U_22
_atom_site_aniso_U_33
_atom_site_aniso_U_12
_atom_site_aniso_U_13
_atom_site_aniso_U_23
Th1 Th4+ 0.0076(2) 0.0049(2) 0.0045(2) 0.00019(16) 0.00132(16) -0.00005(16)
As1 As5+ 0.0099(6) 0.0108(6) 0.0068(6) -0.0018(5) 0.0027(5) -0.0014(5)
As2 As5+ 0.0146(6) 0.0103(6) 0.0053(5) 0.0038(5) 0.0037(5) 0.0009(5)
O1 O2- 0.014(4) 0.012(4) 0.011(4) 0.004(3) 0.006(3) 0.000(3)
O2 O2- 0.014(3) 0.005(3) 0.010(3) 0.000(3) 0.003(3) 0.002(3)
O3 O2- 0.018(5) 0.016(5) 0.007(4) 0.001(4) 0.007(4) 0.000(4)
O4 O2- 0.011(5) 0.041(7) 0.017(5) 0.004(5) 0.004(4) -0.003(5)
O5 O2- 0.030(6) 0.025(6) 0.021(5) -0.012(5) 0.018(5) -0.016(5)
O6 O2- 0.033(4) 0.013(4) 0.015(4) 0.008(3) 0.011(3) 0.004(3)
O7 O2- 0.037(6) 0.019(6) 0.019(5) -0.006(5) 0.006(5) 0.001(5)
O8 O2- 0.010(5) 0.049(8) 0.015(5) 0.007(5) 0.006(4) -0.003(5)
Li1 Li1+ 0.038(16) 0.009(12) 0.041(17) 0.007(11) 0.027(14) -0.002(11)
Li2 Li1+ 0.08(3) 0.027(18) 0.06(2) -0.009(18) 0.03(2) 0.000(17)
#End of TTdata_251544-ICSD