
#(C) 2018 by FIZ Karlsruhe - Leibniz Institute for Information Infrastructure.  All rights reserved.
data_251863-ICSD
_database_code_ICSD 251863
_audit_creation_date 2016-02-01
_chemical_name_systematic 'Pentalithium dicesium tetradecaoxo-heptaborate'
_chemical_formula_structural 'Li5 Cs2 B7 O14'
_chemical_formula_sum 'B7 Cs2 Li5 O14'
_exptl_crystal_density_diffrn 3.1
_cell_measurement_temperature 296.
_publ_section_title

;
Two new crystals in Lim Csn Bm+n O2(m+n) (m + n = 5, 7; m > n) series:
noncentrosymmetric Li5 Cs2 B7 O14 and centrosymmetric Li4 Cs B5 O10
;
loop_
_citation_id
_citation_journal_full
_citation_year
_citation_journal_volume
_citation_page_first
_citation_page_last
_citation_journal_id_ASTM
primary 'Inorganic Chemistry' 2015 54 7381 7387 INOCAJ
loop_
_publ_author_name
'Li, Lin'
'Han, Shujuan'
'Lei, Binghua'
'Dong, Xiaoyu'
'Wu, Hongping'
'Zhou, Zhongxiang'
'Yang, Zhihua'
'Pan, Shilie'
_cell_length_a 21.2775(17)
_cell_length_b 13.6296(11)
_cell_length_c 4.4283(4)
_cell_angle_alpha 90.
_cell_angle_beta 90.
_cell_angle_gamma 90.
_cell_volume 1284.22
_cell_formula_units_Z 4
_symmetry_space_group_name_H-M 'A m a 2'
_symmetry_Int_Tables_number 40
_refine_ls_R_factor_all 0.0192
loop_
_symmetry_equiv_pos_site_id
_symmetry_equiv_pos_as_xyz
1 'x+1/2, -y, z'
2 '-x+1/2, y, z'
3 '-x, -y, z'
4 'x, y, z'
5 'x+1/2, -y+1/2, z+1/2'
6 '-x+1/2, y+1/2, z+1/2'
7 '-x, -y+1/2, z+1/2'
8 'x, y+1/2, z+1/2'
loop_
_atom_type_symbol
_atom_type_oxidation_number
Cs1+ 1
Li1+ 1
B3+ 3
O2- -2
loop_
_atom_site_label
_atom_site_type_symbol
_atom_site_symmetry_multiplicity
_atom_site_Wyckoff_symbol
_atom_site_fract_x
_atom_site_fract_y
_atom_site_fract_z
_atom_site_B_iso_or_equiv
_atom_site_occupancy
_atom_site_attached_hydrogens
Cs1 Cs1+ 8 c 0.349343(9) 0.717310(13) 0.45307(9) 0.02214(9) 1 0
Li1 Li1+ 4 b 0.25 0.8642(5) 0.951(4) 0.0152(14) 1 0
Li2 Li1+ 8 c 0.4387(2) 0.9897(4) 1.430(3) 0.0213(14) 1 0
Li3 Li1+ 8 c 0.4931(3) 1.0851(4) 0.923(3) 0.0191(15) 1 0
B1 B3+ 8 c 0.37196(14) 0.9530(2) 0.9538(19) 0.0099(6) 1 0
B2 B3+ 8 c 0.30859(14) 0.9646(2) 0.4544(19) 0.0108(6) 1 0
B3 B3+ 8 c 0.49492(17) 1.1997(2) 1.445(2) 0.0175(7) 1 0
B4 B3+ 4 b 0.25 0.6245(3) 0.946(3) 0.0169(10) 1 0
O1 O2- 4 b 0.25 0.7230(2) 0.947(3) 0.0246(7) 1 0
O2 O2- 8 c 0.30635(9) 0.57263(14) 0.9461(13) 0.0176(4) 1 0
O3 O2- 8 c 0.50287(16) 1.28283(18) 1.2617(7) 0.0261(7) 1 0
O4 O2- 4 b 0.25 0.9205(2) 0.3518(7) 0.0104(7) 1 0
O5 O2- 8 c 0.48733(11) 1.10856(17) 1.3494(6) 0.0162(6) 1 0
O6 O2- 8 c 0.42821(11) 0.98661(16) 0.8558(5) 0.0131(5) 1 0
O7 O2- 8 c 0.32246(11) 0.92906(17) 0.7613(6) 0.0132(5) 1 0
O8 O2- 8 c 0.36273(11) 0.93464(19) 1.2564(6) 0.0128(5) 1 0
loop_
_atom_site_aniso_label
_atom_site_aniso_type_symbol
_atom_site_aniso_U_11
_atom_site_aniso_U_22
_atom_site_aniso_U_33
_atom_site_aniso_U_12
_atom_site_aniso_U_13
_atom_site_aniso_U_23
Cs1 Cs1+ 0.02454(12) 0.02181(12) 0.02006(13) -0.00153(7) 0.0015(2) 0.00096(19)
Li1 Li1+ 0.013(3) 0.016(3) 0.017(4) 0. 0. 0.011(7)
Li2 Li1+ 0.015(2) 0.020(3) 0.028(4) -0.0065(19) -0.002(4) -0.008(4)
Li3 Li1+ 0.020(2) 0.017(2) 0.020(4) -0.0007(19) 0.002(4) -0.001(4)
B1 B3+ 0.0125(13) 0.0092(13) 0.0080(14) 0.0012(11) -0.002(3) -0.005(3)
B2 B3+ 0.0094(13) 0.0143(14) 0.0088(14) -0.0023(11) -0.001(3) -0.009(3)
B3 B3+ 0.0258(17) 0.0163(17) 0.0105(17) -0.0017(13) -0.002(4) 0.001(4)
B4 B3+ 0.019(2) 0.017(2) 0.014(2) 0. 0. 0.003(5)
O1 O2- 0.0285(16) 0.0123(14) 0.0332(19) 0. 0. 0.003(3)
O2 O2- 0.0156(10) 0.0117(9) 0.0256(12) -0.0015(7) -0.002(2) 0.005(2)
O3 O2- 0.0475(18) 0.0156(13) 0.0152(16) -0.0033(12) -0.0012(14) -0.0007(11)
O4 O2- 0.0098(15) 0.0147(16) 0.0066(16) 0. 0. -0.0012(12)
O5 O2- 0.0194(13) 0.0152(12) 0.0139(13) -0.0035(10) 0.0008(9) 0.0015(9)
O6 O2- 0.0119(11) 0.0168(12) 0.0107(12) -0.0016(9) 0.0006(9) 0.0018(9)
O7 O2- 0.0110(12) 0.0200(13) 0.0085(12) -0.0044(10) -0.0007(10) 0.0014(10)
O8 O2- 0.0091(11) 0.0222(13) 0.0071(12) 0.0006(9) 0.0009(10) -0.0013(10)
#End of TTdata_251863-ICSD