
#(C) 2018 by FIZ Karlsruhe - Leibniz Institute for Information Infrastructure.  All rights reserved.
data_252056-ICSD
_database_code_ICSD 252056
_audit_creation_date 2016-02-01
_chemical_name_systematic 'Barium lithium manganese oxide (7/1.75/3.5/15.75)'
_chemical_formula_structural 'Ba7 Li1.75 Mn3.5 O15.75'
_chemical_formula_sum 'Ba7 Li1.75 Mn3.5 O15.75'
_exptl_crystal_density_diffrn 5.06
_cell_measurement_temperature 298.
_publ_section_title

;
Synthesis and crystal structure of a new hexagonal perovskite 7H - Ba7 Li1.75
Mn3.5 O15.75 with Mn4+/Mn5+ charge distribution
;
loop_
_citation_id
_citation_journal_full
_citation_year
_citation_journal_volume
_citation_page_first
_citation_page_last
_citation_journal_id_ASTM
primary 'Dalton Transactions' 2015 44 18527 18535 DTARAF
loop_
_publ_author_name
'Tarakina, N.V.'
'Tyutyunnik, A.P.'
'Bazuev, G.V.'
'Vasilev, A.D.'
'Gould, C.'
'Nikolaenko, I.V.'
'Berger, I.F.'
_cell_length_a 5.662736
_cell_length_b 5.662736
_cell_length_c 16.74668(12)
_cell_angle_alpha 90.
_cell_angle_beta 90.
_cell_angle_gamma 120.
_cell_volume 465.05
_cell_formula_units_Z 1
_symmetry_space_group_name_H-M 'P -3 m 1'
_symmetry_Int_Tables_number 164
_refine_ls_R_factor_all 0.0156
loop_
_symmetry_equiv_pos_site_id
_symmetry_equiv_pos_as_xyz
1 'x-y, -y, -z'
2 '-x, -x+y, -z'
3 'y, x, -z'
4 'x-y, x, -z'
5 'y, -x+y, -z'
6 '-x, -y, -z'
7 '-x+y, y, z'
8 'x, x-y, z'
9 '-y, -x, z'
10 '-x+y, -x, z'
11 '-y, x-y, z'
12 'x, y, z'
loop_
_atom_type_symbol
_atom_type_oxidation_number
Ba2+ 2
Mn4+ 4
Li1+ 1
Mn5+ 5
Li1+ 1
Mn4+ 4
Li1+ 1
Mn4+ 4
Li1+ 1
O2- -2
loop_
_atom_site_label
_atom_site_type_symbol
_atom_site_symmetry_multiplicity
_atom_site_Wyckoff_symbol
_atom_site_fract_x
_atom_site_fract_y
_atom_site_fract_z
_atom_site_B_iso_or_equiv
_atom_site_occupancy
_atom_site_attached_hydrogens
Ba1 Ba2+ 1 a 0. 0. 0. 0.0378(13) 1. 0
Ba2 Ba2+ 2 d 0.33333 0.66666 0.57252(19) 0.0274(9) 1. 0
Ba3 Ba2+ 2 d 0.66666 0.33333 0.69631(17) 0.0220(10) 1. 0
Ba4 Ba2+ 2 d 0.33333 0.66666 0.82632(14) 0.0186(10) 1. 0
Mn1 Mn4+ 2 c 0. 0. 0.3512(4) 0.0254(26) 0.762(11) 0
Li1 Li1+ 2 c 0. 0. 0.3512(4) 0.0254(26) 0.238(11) 0
Mn2 Mn5+ 1 b 0. 0. 0.5 0.063(6) 0.691(16) 0
Li2 Li1+ 1 b 0. 0. 0.5 0.063(6) 0.309(16) 0
Mn3 Mn4+ 2 d 0.66666 0.33333 0.9081(5) 0.0360(26) 0.795(12) 0
Li3 Li1+ 2 d 0.66666 0.33333 0.9081(5) 0.0360(26) 0.205(12) 0
Mn4 Mn4+ 2 c 0. 0. 0.189(4) 0.130(23) 0.043(12) 0
Li4 Li1+ 2 c 0. 0. 0.189(4) 0.130(23) 0.957(12) 0
O1 O2- 6 i 0.1789(8) 0.8211(8) 0.1311(4) 0.0170(8) 0.857(12) 0
O2 O2- 6 i 0.8443(8) 0.6886(17) 0.5673(6) 0.0170(8) 0.714(8) 0
O3 O2- 6 i 0.1507(7) 0.3014(14) 0.7087(4) 0.0170(8) 1. 0
O4 O2- 2 d 0.66666 0.33333 0.0060(11) 0.0170(8) 0.595(20) 0
#End of TTdata_252056-ICSD