
#(C) 2018 by FIZ Karlsruhe - Leibniz Institute for Information Infrastructure.  All rights reserved.
data_252166-ICSD
_database_code_ICSD 252166
_audit_creation_date 2016-08-01
_chemical_name_systematic 'Calcium lithium aluminium nitride (18.75/10.5/39/55)'
_chemical_formula_structural 'Ca18.75 Li10.5 (Al39 N55)'
_chemical_formula_sum 'Al39 Ca18.75 Li10.5 N55'
_exptl_crystal_density_diffrn 3.12
_cell_measurement_temperature 293.
_publ_section_title

;
Ca18.75 Li10.5 [Al39 N55]:Eu2+-supertetrahedron phosphor for solid-state
lighting
;
loop_
_citation_id
_citation_journal_full
_citation_year
_citation_journal_volume
_citation_page_first
_citation_page_last
_citation_journal_id_ASTM
primary 'Chemistry of Materials' 2016 28 1220 1226 CMATEX
loop_
_publ_author_name
'Wagatha, Peter'
'Pust, Philipp'
'Weiler, Volker'
'Wochnik, Angela S.'
'Schmidt, Peter J.'
'Scheu, Christina'
'Schnick, Wolfgang'
_cell_length_a 22.415(3)
_cell_length_b 22.415(3)
_cell_length_c 22.415(3)
_cell_angle_alpha 90.
_cell_angle_beta 90.
_cell_angle_gamma 90.
_cell_volume 11262.01
_cell_formula_units_Z 8
_symmetry_space_group_name_H-M 'F d -3 m Z'
_symmetry_Int_Tables_number 227
_refine_ls_R_factor_all 0.0257
loop_
_symmetry_equiv_pos_site_id
_symmetry_equiv_pos_as_xyz
1 '-z, y+3/4, x+3/4'
2 'z+3/4, -y, x+3/4'
3 'z+3/4, y+3/4, -x'
4 '-z, -y, -x'
5 'y+3/4, x+3/4, -z'
6 '-y, x+3/4, z+3/4'
7 'y+3/4, -x, z+3/4'
8 '-y, -x, -z'
9 'x+3/4, -z, y+3/4'
10 'x+3/4, z+3/4, -y'
11 '-x, z+3/4, y+3/4'
12 '-x, -z, -y'
13 '-z, x+3/4, y+3/4'
14 'z+3/4, x+3/4, -y'
15 'z+3/4, -x, y+3/4'
16 '-z, -x, -y'
17 'y+3/4, -z, x+3/4'
18 '-y, z+3/4, x+3/4'
19 'y+3/4, z+3/4, -x'
20 '-y, -z, -x'
21 'x+3/4, y+3/4, -z'
22 'x+3/4, -y, z+3/4'
23 '-x, y+3/4, z+3/4'
24 '-x, -y, -z'
25 'z, -y+1/4, -x+1/4'
26 '-z+1/4, y, -x+1/4'
27 '-z+1/4, -y+1/4, x'
28 'z, y, x'
29 '-y+1/4, -x+1/4, z'
30 'y, -x+1/4, -z+1/4'
31 '-y+1/4, x, -z+1/4'
32 'y, x, z'
33 '-x+1/4, z, -y+1/4'
34 '-x+1/4, -z+1/4, y'
35 'x, -z+1/4, -y+1/4'
36 'x, z, y'
37 'z, -x+1/4, -y+1/4'
38 '-z+1/4, -x+1/4, y'
39 '-z+1/4, x, -y+1/4'
40 'z, x, y'
41 '-y+1/4, z, -x+1/4'
42 'y, -z+1/4, -x+1/4'
43 '-y+1/4, -z+1/4, x'
44 'y, z, x'
45 '-x+1/4, -y+1/4, z'
46 '-x+1/4, y, -z+1/4'
47 'x, -y+1/4, -z+1/4'
48 'x, y, z'
49 '-z, y+1/4, x+1/4'
50 'z+3/4, -y+1/2, x+1/4'
51 'z+3/4, y+1/4, -x+1/2'
52 '-z, -y+1/2, -x+1/2'
53 'y+3/4, x+1/4, -z+1/2'
54 '-y, x+1/4, z+1/4'
55 'y+3/4, -x+1/2, z+1/4'
56 '-y, -x+1/2, -z+1/2'
57 'x+3/4, -z+1/2, y+1/4'
58 'x+3/4, z+1/4, -y+1/2'
59 '-x, z+1/4, y+1/4'
60 '-x, -z+1/2, -y+1/2'
61 '-z, x+1/4, y+1/4'
62 'z+3/4, x+1/4, -y+1/2'
63 'z+3/4, -x+1/2, y+1/4'
64 '-z, -x+1/2, -y+1/2'
65 'y+3/4, -z+1/2, x+1/4'
66 '-y, z+1/4, x+1/4'
67 'y+3/4, z+1/4, -x+1/2'
68 '-y, -z+1/2, -x+1/2'
69 'x+3/4, y+1/4, -z+1/2'
70 'x+3/4, -y+1/2, z+1/4'
71 '-x, y+1/4, z+1/4'
72 '-x, -y+1/2, -z+1/2'
73 'z, -y+3/4, -x+3/4'
74 '-z+1/4, y+1/2, -x+3/4'
75 '-z+1/4, -y+3/4, x+1/2'
76 'z, y+1/2, x+1/2'
77 '-y+1/4, -x+3/4, z+1/2'
78 'y, -x+3/4, -z+3/4'
79 '-y+1/4, x+1/2, -z+3/4'
80 'y, x+1/2, z+1/2'
81 '-x+1/4, z+1/2, -y+3/4'
82 '-x+1/4, -z+3/4, y+1/2'
83 'x, -z+3/4, -y+3/4'
84 'x, z+1/2, y+1/2'
85 'z, -x+3/4, -y+3/4'
86 '-z+1/4, -x+3/4, y+1/2'
87 '-z+1/4, x+1/2, -y+3/4'
88 'z, x+1/2, y+1/2'
89 '-y+1/4, z+1/2, -x+3/4'
90 'y, -z+3/4, -x+3/4'
91 '-y+1/4, -z+3/4, x+1/2'
92 'y, z+1/2, x+1/2'
93 '-x+1/4, -y+3/4, z+1/2'
94 '-x+1/4, y+1/2, -z+3/4'
95 'x, -y+3/4, -z+3/4'
96 'x, y+1/2, z+1/2'
97 '-z+1/2, y+3/4, x+1/4'
98 'z+1/4, -y, x+1/4'
99 'z+1/4, y+3/4, -x+1/2'
100 '-z+1/2, -y, -x+1/2'
101 'y+1/4, x+3/4, -z+1/2'
102 '-y+1/2, x+3/4, z+1/4'
103 'y+1/4, -x, z+1/4'
104 '-y+1/2, -x, -z+1/2'
105 'x+1/4, -z, y+1/4'
106 'x+1/4, z+3/4, -y+1/2'
107 '-x+1/2, z+3/4, y+1/4'
108 '-x+1/2, -z, -y+1/2'
109 '-z+1/2, x+3/4, y+1/4'
110 'z+1/4, x+3/4, -y+1/2'
111 'z+1/4, -x, y+1/4'
112 '-z+1/2, -x, -y+1/2'
113 'y+1/4, -z, x+1/4'
114 '-y+1/2, z+3/4, x+1/4'
115 'y+1/4, z+3/4, -x+1/2'
116 '-y+1/2, -z, -x+1/2'
117 'x+1/4, y+3/4, -z+1/2'
118 'x+1/4, -y, z+1/4'
119 '-x+1/2, y+3/4, z+1/4'
120 '-x+1/2, -y, -z+1/2'
121 'z+1/2, -y+1/4, -x+3/4'
122 '-z+3/4, y, -x+3/4'
123 '-z+3/4, -y+1/4, x+1/2'
124 'z+1/2, y, x+1/2'
125 '-y+3/4, -x+1/4, z+1/2'
126 'y+1/2, -x+1/4, -z+3/4'
127 '-y+3/4, x, -z+3/4'
128 'y+1/2, x, z+1/2'
129 '-x+3/4, z, -y+3/4'
130 '-x+3/4, -z+1/4, y+1/2'
131 'x+1/2, -z+1/4, -y+3/4'
132 'x+1/2, z, y+1/2'
133 'z+1/2, -x+1/4, -y+3/4'
134 '-z+3/4, -x+1/4, y+1/2'
135 '-z+3/4, x, -y+3/4'
136 'z+1/2, x, y+1/2'
137 '-y+3/4, z, -x+3/4'
138 'y+1/2, -z+1/4, -x+3/4'
139 '-y+3/4, -z+1/4, x+1/2'
140 'y+1/2, z, x+1/2'
141 '-x+3/4, -y+1/4, z+1/2'
142 '-x+3/4, y, -z+3/4'
143 'x+1/2, -y+1/4, -z+3/4'
144 'x+1/2, y, z+1/2'
145 '-z+1/2, y+1/4, x+3/4'
146 'z+1/4, -y+1/2, x+3/4'
147 'z+1/4, y+1/4, -x'
148 '-z+1/2, -y+1/2, -x'
149 'y+1/4, x+1/4, -z'
150 '-y+1/2, x+1/4, z+3/4'
151 'y+1/4, -x+1/2, z+3/4'
152 '-y+1/2, -x+1/2, -z'
153 'x+1/4, -z+1/2, y+3/4'
154 'x+1/4, z+1/4, -y'
155 '-x+1/2, z+1/4, y+3/4'
156 '-x+1/2, -z+1/2, -y'
157 '-z+1/2, x+1/4, y+3/4'
158 'z+1/4, x+1/4, -y'
159 'z+1/4, -x+1/2, y+3/4'
160 '-z+1/2, -x+1/2, -y'
161 'y+1/4, -z+1/2, x+3/4'
162 '-y+1/2, z+1/4, x+3/4'
163 'y+1/4, z+1/4, -x'
164 '-y+1/2, -z+1/2, -x'
165 'x+1/4, y+1/4, -z'
166 'x+1/4, -y+1/2, z+3/4'
167 '-x+1/2, y+1/4, z+3/4'
168 '-x+1/2, -y+1/2, -z'
169 'z+1/2, -y+3/4, -x+1/4'
170 '-z+3/4, y+1/2, -x+1/4'
171 '-z+3/4, -y+3/4, x'
172 'z+1/2, y+1/2, x'
173 '-y+3/4, -x+3/4, z'
174 'y+1/2, -x+3/4, -z+1/4'
175 '-y+3/4, x+1/2, -z+1/4'
176 'y+1/2, x+1/2, z'
177 '-x+3/4, z+1/2, -y+1/4'
178 '-x+3/4, -z+3/4, y'
179 'x+1/2, -z+3/4, -y+1/4'
180 'x+1/2, z+1/2, y'
181 'z+1/2, -x+3/4, -y+1/4'
182 '-z+3/4, -x+3/4, y'
183 '-z+3/4, x+1/2, -y+1/4'
184 'z+1/2, x+1/2, y'
185 '-y+3/4, z+1/2, -x+1/4'
186 'y+1/2, -z+3/4, -x+1/4'
187 '-y+3/4, -z+3/4, x'
188 'y+1/2, z+1/2, x'
189 '-x+3/4, -y+3/4, z'
190 '-x+3/4, y+1/2, -z+1/4'
191 'x+1/2, -y+3/4, -z+1/4'
192 'x+1/2, y+1/2, z'
loop_
_atom_type_symbol
_atom_type_oxidation_number
Ca2+ 2
Al3+ 3
N3- -3
Li1+ 1
loop_
_atom_site_label
_atom_site_type_symbol
_atom_site_symmetry_multiplicity
_atom_site_Wyckoff_symbol
_atom_site_fract_x
_atom_site_fract_y
_atom_site_fract_z
_atom_site_B_iso_or_equiv
_atom_site_occupancy
_atom_site_attached_hydrogens
Ca1 Ca2+ 96 h 0.101327(18) 0.398673(18) 0. 0.01111(14) 1 0
Ca2 Ca2+ 48 f 0.20520(3) 0.375 -0.125 0.01019(16) 1 0
Ca3 Ca2+ 16 d 0. 0.5 0. 0.0140(7) 0.38 0
Al1 Al3+ 8 b 0.125 0.625 0.125 0.0070(5) 1 0
Al2 Al3+ 96 g 0.02747(2) 0.52747(2) 0.12590(4) 0.00701(17) 1 0
Al3 Al3+ 32 e 0.32399(4) 0.42601(4) -0.07399(4) 0.0071(3) 1 0
Al4 Al3+ 48 f 0.06975(5) 0.375 -0.125 0.0075(2) 1 0
Al5 Al3+ 96 g 0.07175(4) 0.27368(2) -0.02368(2) 0.00713(18) 1 0
Al6 Al3+ 32 e 0.29658(3) 0.29658(3) -0.04658(3) 0.0071(3) 1 0
N1 N3- 16 c 0.25 0.25 0. 0.0088(11) 1 0
N2 N3- 32 e 0.07637(10) 0.57637(10) 0.17363(10) 0.0068(7) 1 0
N3 N3- 8 a 0.375 0.375 -0.125 0.0091(15) 1 0
N4 N3- 96 g 0.02257(10) 0.42525(7) -0.07475(7) 0.0082(4) 1 0
N5 N3- 96 g 0.02342(7) 0.22658(7) -0.07569(10) 0.0078(4) 1 0
N6 N3- 96 g 0.27561(7) 0.47439(7) -0.12321(10) 0.0084(4) 1 0
N7 N3- 96 g 0.11970(10) 0.32479(7) -0.07479(7) 0.0085(4) 1 0
Li1 Li1+ 96 h 0.3152(6) 0.25 0.0652(6) 0.026(6) 0.44(3) 0
Li2 Li1+ 192 i 0.3226(13) 0.2322(14) 0.0438(11) 0.026(6) 0.218(13) 0
loop_
_atom_site_aniso_label
_atom_site_aniso_type_symbol
_atom_site_aniso_U_11
_atom_site_aniso_U_22
_atom_site_aniso_U_33
_atom_site_aniso_U_12
_atom_site_aniso_U_13
_atom_site_aniso_U_23
Ca1 Ca2+ 0.01160(18) 0.01160(18) 0.0101(3) -0.0019(2) -0.00062(13) -0.00062(13)
Ca2 Ca2+ 0.0065(3) 0.0120(2) 0.0120(2) 0. 0. 0.0037(3)
Ca3 Ca2+ 0.0140(7) 0.0140(7) 0.0140(7) 0.0003(8) 0.0003(8) 0.0003(8)
Al1 Al3+ 0.0070(5) 0.0070(5) 0.0070(5) 0. 0. 0.
Al2 Al3+ 0.0072(2) 0.0072(2) 0.0067(4) 0.0001(3) 0.0000(2) 0.0000(2)
Al3 Al3+ 0.0071(3) 0.0071(3) 0.0071(3) 0.0001(3) 0.0001(3) -0.0001(3)
Al4 Al3+ 0.0075(5) 0.0075(3) 0.0075(3) 0. 0. -0.0004(4)
Al5 Al3+ 0.0075(4) 0.0070(2) 0.0070(2) -0.0001(2) 0.0001(2) -0.0004(3)
Al6 Al3+ 0.0071(3) 0.0071(3) 0.0071(3) -0.0002(3) 0.0002(3) 0.0002(3)
N1 N3- 0.0088(11) 0.0088(11) 0.0088(11) -0.0026(11) 0.0026(11) 0.0026(11)
N2 N3- 0.0068(7) 0.0068(7) 0.0068(7) -0.0002(8) 0.0002(8) 0.0002(8)
N3 N3- 0.0091(15) 0.0091(15) 0.0091(15) 0. 0. 0.
N4 N3- 0.0090(11) 0.0078(6) 0.0078(6) -0.0002(6) -0.0002(6) 0.0010(8)
N5 N3- 0.0079(6) 0.0079(6) 0.0076(10) -0.0001(8) 0.0001(6) -0.0001(6)
N6 N3- 0.0090(7) 0.0090(7) 0.0072(11) 0.0017(8) 0.0004(6) -0.0004(6)
N7 N3- 0.0085(10) 0.0085(6) 0.0085(6) -0.0003(6) 0.0003(6) 0.0024(8)
Li1 Li1+ 0.019(6) 0.042(15) 0.019(6) 0.000(7) -0.008(8) 0.000(7)
Li2 Li1+ 0.019(6) 0.042(15) 0.019(6) 0.000(7) -0.008(8) 0.000(7)
#End of TTdata_252166-ICSD