
#(C) 2018 by FIZ Karlsruhe - Leibniz Institute for Information Infrastructure.  All rights reserved.
data_252115-ICSD
_database_code_ICSD 252115
_audit_creation_date 2016-08-01
_chemical_name_systematic
'Tetralithium dicalcium bis(tetrahydroxo-dodecaoxo-octaborate) trihydrate'
_chemical_formula_structural 'Li4 (Ca2 (B8 O12 (O H)4)2) (H2 O)3'
_chemical_formula_sum 'H14 B16 Ca2 Li4 O35'
_exptl_crystal_density_diffrn 2.12
_cell_measurement_temperature 293.
_publ_section_title

;
Two new mixed metal borates made of Mg (B6 O7 (OH)6)2 and B8 O14 (OH)4 cluster
units
;
loop_
_citation_id
_citation_journal_full
_citation_year
_citation_journal_volume
_citation_page_first
_citation_page_last
_citation_journal_id_ASTM
primary 'Journal of Cluster Science' 2015 26 1889 1899 JCSCEB
loop_
_publ_author_name
'Huang, Guang'
'Pan, Rui'
'He, Huan'
'Yang, Bai-Feng'
'Yang, Guo-Yu.'
_cell_length_a 19.8507(5)
_cell_length_b 6.7560(2)
_cell_length_c 20.0454(5)
_cell_angle_alpha 90.
_cell_angle_beta 93.985(2)
_cell_angle_gamma 90.
_cell_volume 2681.81
_cell_formula_units_Z 4
_symmetry_space_group_name_H-M 'C 1 2/c 1'
_symmetry_Int_Tables_number 15
_refine_ls_R_factor_all 0.0265
loop_
_symmetry_equiv_pos_site_id
_symmetry_equiv_pos_as_xyz
1 'x, -y, z+1/2'
2 '-x, -y, -z'
3 '-x, y, -z+1/2'
4 'x, y, z'
5 'x+1/2, -y+1/2, z+1/2'
6 '-x+1/2, -y+1/2, -z'
7 '-x+1/2, y+1/2, -z+1/2'
8 'x+1/2, y+1/2, z'
loop_
_atom_type_symbol
_atom_type_oxidation_number
B3+ 3
Ca2+ 2
H1+ 1
Li1+ 1
O2- -2
H1+ 1
O2- -2
H1+ 1
O2- -2
H1+ 1
O2- -2
H1+ 1
loop_
_atom_site_label
_atom_site_type_symbol
_atom_site_symmetry_multiplicity
_atom_site_Wyckoff_symbol
_atom_site_fract_x
_atom_site_fract_y
_atom_site_fract_z
_atom_site_B_iso_or_equiv
_atom_site_occupancy
_atom_site_attached_hydrogens
B1 B3+ 8 f 0.21233(10) 0.3359(3) 0.19442(10) 0.0123(4) 1 0
B2 B3+ 8 f 0.16969(10) 0.3823(3) 0.30623(10) 0.0115(4) 1 0
B3 B3+ 8 f 0.11056(10) 0.5595(3) 0.20908(10) 0.0130(4) 1 0
B4 B3+ 8 f 0.18045(10) 0.1138(3) 0.09624(10) 0.0121(4) 1 0
B5 B3+ 8 f 0.14647(10) -0.1203(3) 0.00494(10) 0.0119(4) 1 0
B6 B3+ 8 f 0.17202(10) 0.2305(3) -0.01837(10) 0.0116(4) 1 0
B7 B3+ 8 f 0.14752(10) 0.4198(3) 0.43143(10) 0.0099(4) 1 0
B8 B3+ 8 f 0.04052(11) -0.2525(3) -0.04639(11) 0.0171(5) 1 0
Ca1 Ca2+ 8 f 0.234928(17) 0.61711(5) 0.091199(17) 0.00902(11) 1 0
H1 H1+ 8 f -0.0415(15) -0.124(5) -0.0419(15) 0.057(9) 1 0
H2 H1+ 8 f 0.3018(14) 0.297(5) 0.1579(15) 0.049(9) 1 0
Li1 Li1+ 8 f 0.31673(18) 0.4347(6) 0.26931(18) 0.0271(8) 1 0
Li2 Li1+ 8 f 0.04345(17) 0.5643(6) 0.34128(18) 0.0241(8) 1 0
O1 O2- 8 f 0.16968(6) 0.50026(19) 0.17459(6) 0.0127(3) 1 0
O2 O2- 8 f 0.21683(6) 0.30344(19) 0.26679(6) 0.0139(3) 1 0
O3 O2- 8 f 0.11781(6) 0.4980(2) 0.28128(6) 0.0155(3) 1 0
O4 O2- 8 f 0.18208(6) 0.27092(18) 0.05038(6) 0.0133(3) 1 0
O5 O2- 8 f 0.16844(6) -0.07517(18) 0.07495(6) 0.0132(3) 1 0
O6 O2- 8 f 0.17180(6) 0.03744(19) -0.03869(6) 0.0154(3) 1 0
O7 O2- 8 f 0.16571(6) 0.37102(19) -0.06532(6) 0.0151(3) 1 0
O8 O2- 8 f 0.17606(6) -0.30873(18) -0.01104(6) 0.0112(3) 1 0
O9 O2- 8 f 0.07315(6) -0.1215(2) -0.00366(7) 0.0191(3) 1 0
O10 O2- 8 f 0.07353(6) 0.3998(2) 0.42225(6) 0.0164(3) 1 0
O11 O2- 8 f -0.02756(7) -0.2321(3) -0.06009(9) 0.0337(4) 1 0
O12 O2- 8 f 0.19079(6) 0.14515(19) 0.16275(6) 0.0147(3) 1 0
O13 O2- 8 f 0.04853(6) 0.4692(2) 0.17794(7) 0.0203(3) 1 0
H3 H1+ 8 f 0.0575 0.4085 0.1443 0.03 1 0
O14 O2- 8 f 0.10498(6) 0.7758(2) 0.20903(7) 0.0186(3) 1 0
H4 H1+ 8 f 0.0673 0.8082 0.1936 0.028 1 0
O15 O2- 8 f 0.28115(6) 0.3864(2) 0.17446(7) 0.0138(3) 1 0
O16 O2- 8 f 0.17900(6) 0.33604(19) 0.37241(6) 0.0134(3) 1 0
O17 O2- 8 f 0.04376(10) 0.8530(3) 0.35245(11) 0.0474(5) 1 0
H5 H1+ 8 f 0.0342 0.915 0.3875 0.43(7) 1 0
H6 H1+ 8 f 0.0493 0.9382 0.3221 0.18(3) 1 0
O18 O2- 4 e 0. 0.1343(4) 0.25 0.0612(8) 1 0
H7 H1+ 8 f 0.0392 0.1703 0.2388 0.80(14) 1 0
loop_
_atom_site_aniso_label
_atom_site_aniso_type_symbol
_atom_site_aniso_U_11
_atom_site_aniso_U_22
_atom_site_aniso_U_33
_atom_site_aniso_U_12
_atom_site_aniso_U_13
_atom_site_aniso_U_23
B1 B3+ 0.0159(11) 0.0115(11) 0.0096(10) 0.0001(8) 0.0007(8) -0.0012(8)
B2 B3+ 0.0142(10) 0.0088(10) 0.0114(10) -0.0023(8) -0.0008(8) -0.0016(8)
B3 B3+ 0.0125(10) 0.0145(11) 0.0118(11) -0.0002(8) 0.0002(8) 0.0016(9)
B4 B3+ 0.0117(10) 0.0121(11) 0.0125(11) -0.0001(8) 0.0006(8) -0.0002(8)
B5 B3+ 0.0160(11) 0.0094(10) 0.0102(10) 0.0010(8) 0.0008(8) -0.0010(8)
B6 B3+ 0.0099(10) 0.0126(11) 0.0125(11) 0.0005(8) 0.0017(7) 0.0000(8)
B7 B3+ 0.0133(10) 0.0087(10) 0.0078(10) 0.0003(8) 0.0010(7) -0.0001(8)
B8 B3+ 0.0143(11) 0.0195(12) 0.0176(11) -0.0011(9) 0.0019(8) -0.0027(10)
Ca1 Ca2+ 0.01071(19) 0.00846(19) 0.00779(19) -0.00013(13) -0.00006(13)
0.00143(14)
Li1 Li1+ 0.0268(19) 0.029(2) 0.025(2) 0.0046(15) -0.0044(14) -0.0086(16)
Li2 Li1+ 0.0179(17) 0.028(2) 0.0258(19) 0.0044(14) -0.0001(13) 0.0011(16)
O1 O2- 0.0139(6) 0.0139(7) 0.0103(7) 0.0018(5) 0.0015(5) 0.0021(5)
O2 O2- 0.0173(7) 0.0160(7) 0.0084(6) 0.0050(5) 0.0003(5) 0.0002(5)
O3 O2- 0.0157(7) 0.0203(7) 0.0107(7) 0.0045(5) 0.0024(5) 0.0026(6)
O4 O2- 0.0194(7) 0.0102(6) 0.0101(6) -0.0003(5) -0.0008(5) -0.0004(5)
O5 O2- 0.0187(7) 0.0105(7) 0.0102(7) -0.0010(5) -0.0003(5) -0.0010(5)
O6 O2- 0.0260(7) 0.0096(7) 0.0108(7) 0.0001(5) 0.0027(5) -0.0006(5)
O7 O2- 0.0243(7) 0.0106(7) 0.0103(7) 0.0016(5) 0.0008(5) -0.0001(5)
O8 O2- 0.0137(6) 0.0099(6) 0.0097(6) 0.0010(5) -0.0011(5) -0.0004(5)
O9 O2- 0.0136(7) 0.0199(7) 0.0236(8) 0.0024(5) 0.0000(5) -0.0093(6)
O10 O2- 0.0133(7) 0.0191(7) 0.0166(7) 0.0010(5) -0.0006(5) 0.0052(6)
O11 O2- 0.0139(8) 0.0431(11) 0.0435(10) 0.0034(7) -0.0028(7) -0.0240(9)
O12 O2- 0.0222(7) 0.0118(7) 0.0100(7) -0.0025(5) -0.0004(5) -0.0009(5)
O13 O2- 0.0156(7) 0.0271(8) 0.0179(7) -0.0026(6) -0.0006(5) -0.0047(6)
O14 O2- 0.0170(7) 0.0156(7) 0.0228(8) 0.0037(5) -0.0012(5) 0.0013(6)
O15 O2- 0.0139(7) 0.0133(7) 0.0145(7) 0.0018(5) 0.0023(5) -0.0004(6)
O16 O2- 0.0178(7) 0.0132(7) 0.0092(7) 0.0033(5) 0.0007(5) -0.0004(5)
O17 O2- 0.0579(12) 0.0318(10) 0.0518(12) 0.0067(8) -0.0020(9) 0.0002(10)
O18 O2- 0.075(2) 0.0336(16) 0.076(2) 0. 0.0123(17) 0.
#End of TTdata_252115-ICSD