
#(C) 2018 by FIZ Karlsruhe - Leibniz Institute for Information Infrastructure.  All rights reserved.
data_252114-ICSD
_database_code_ICSD 252114
_audit_creation_date 2016-08-01
_chemical_name_systematic
'Dilithium magnesium bis(hexahydroxo-heptaoxo-hexaborate) dihydrate'
_chemical_formula_structural 'Li2 (Mg (B6 O7 (O H)6)2) (H2 O)2'
_chemical_formula_sum 'H16 B12 Li2 Mg1 O28'
_exptl_crystal_density_diffrn 1.99
_cell_measurement_temperature 293.
_publ_section_title

;
Two new mixed metal borates made of Mg (B6 O7 (OH)6)2 and B8 O14 (OH)4 cluster
units
;
loop_
_citation_id
_citation_journal_full
_citation_year
_citation_journal_volume
_citation_page_first
_citation_page_last
_citation_journal_id_ASTM
primary 'Journal of Cluster Science' 2015 26 1889 1899 JCSCEB
loop_
_publ_author_name
'Huang, Guang'
'Pan, Rui'
'He, Huan'
'Yang, Bai-Feng'
'Yang, Guo-Yu.'
_cell_length_a 6.9415(4)
_cell_length_b 9.1626(5)
_cell_length_c 9.4540(6)
_cell_angle_alpha 71.697(6)
_cell_angle_beta 88.431(5)
_cell_angle_gamma 68.409(5)
_cell_volume 528.16
_cell_formula_units_Z 1
_symmetry_space_group_name_H-M 'P -1'
_symmetry_Int_Tables_number 2
_refine_ls_R_factor_all 0.0312
loop_
_symmetry_equiv_pos_site_id
_symmetry_equiv_pos_as_xyz
1 '-x, -y, -z'
2 'x, y, z'
loop_
_atom_type_symbol
_atom_type_oxidation_number
B3+ 3
Li1+ 1
Mg2+ 2
O2- -2
H1+ 1
O2- -2
H1+ 1
O2- -2
H1+ 1
O2- -2
H1+ 1
O2- -2
H1+ 1
O2- -2
H1+ 1
O2- -2
H1+ 1
loop_
_atom_site_label
_atom_site_type_symbol
_atom_site_symmetry_multiplicity
_atom_site_Wyckoff_symbol
_atom_site_fract_x
_atom_site_fract_y
_atom_site_fract_z
_atom_site_B_iso_or_equiv
_atom_site_occupancy
_atom_site_attached_hydrogens
B1 B3+ 2 i 0.1070(3) 0.6067(2) 0.1573(2) 0.0136(4) 1 0
B2 B3+ 2 i 0.4825(3) 0.5498(3) 0.1925(2) 0.0157(4) 1 0
B3 B3+ 2 i 0.2535(3) 0.7064(3) 0.3448(2) 0.0142(4) 1 0
B4 B3+ 2 i 0.0487(3) 0.9919(3) 0.3260(2) 0.0173(4) 1 0
B5 B3+ 2 i -0.1371(3) 0.8406(3) 0.2504(2) 0.0148(4) 1 0
B6 B3+ 2 i -0.2204(3) 0.8071(3) 0.0129(2) 0.0161(4) 1 0
Li1 Li1+ 2 i 0.2603(5) 0.2390(4) 0.2764(4) 0.0287(8) 1 0
Mg1 Mg2+ 1 g 0. 0.5 0.5 0.00860(19) 1 0
O1 O2- 2 i -0.20872(19) 0.73549(15) 0.37568(14) 0.0186(3) 1 0
H1 H1+ 2 i -0.3428 0.7266 0.3332 0.028 1 0
O2 O2- 2 i 0.06266(19) 0.46982(15) 0.26945(14) 0.0167(3) 1 0
H2 H1+ 2 i -0.0506 0.4522 0.229 0.025 1 0
O3 O2- 2 i 0.21775(19) 0.59815(16) 0.48585(14) 0.0188(3) 1 0
H3 H1+ 2 i 0.33 0.5478 0.5464 0.028 1 0
O4 O2- 2 i 0.2369(2) 0.86442(15) 0.35516(14) 0.0181(3) 1 0
O5 O2- 2 i -0.1302(2) 0.98330(15) 0.28137(15) 0.0187(3) 1 0
O6 O2- 2 i 0.08391(18) 0.73720(14) 0.23079(13) 0.0129(3) 1 0
O7 O2- 2 i 0.31943(19) 0.54622(16) 0.11953(14) 0.0170(3) 1 0
O8 O2- 2 i 0.45632(19) 0.62415(16) 0.30045(14) 0.0171(3) 1 0
O9 O2- 2 i -0.27083(19) 0.89093(15) 0.11452(14) 0.0177(3) 1 0
O10 O2- 2 i -0.03654(19) 0.68010(15) 0.02575(14) 0.0166(3) 1 0
O11 O2- 2 i -0.3583(2) 0.85079(17) -0.10792(15) 0.0247(3) 1 0
H4 H1+ 2 i -0.4779 0.931 -0.1136 0.037 1 0
O12 O2- 2 i 0.0434(2) 1.13698(17) 0.34503(16) 0.0256(3) 1 0
H5 H1+ 2 i -0.1091 1.2188 0.3105 0.038 1 0
O13 O2- 2 i 0.6833(2) 0.47782(18) 0.16327(15) 0.0241(3) 1 0
H6 H1+ 2 i 0.6861 0.4434 0.0901 0.036 1 0
O14 O2- 2 i 0.5209(2) 0.1773(2) 0.38151(18) 0.0390(4) 1 0
H7 H1+ 2 i 0.5833 0.1394 0.4704 0.058 1 0
H8 H1+ 2 i 0.6227 0.1189 0.3434 0.058 1 0
loop_
_atom_site_aniso_label
_atom_site_aniso_type_symbol
_atom_site_aniso_U_11
_atom_site_aniso_U_22
_atom_site_aniso_U_33
_atom_site_aniso_U_12
_atom_site_aniso_U_13
_atom_site_aniso_U_23
B1 B3+ 0.0130(10) 0.0148(10) 0.0147(10) -0.0054(8) 0.0021(8) -0.0068(8)
B2 B3+ 0.0154(10) 0.0175(10) 0.0133(10) -0.0066(9) 0.0011(8) -0.0034(8)
B3 B3+ 0.0127(10) 0.0171(10) 0.0143(10) -0.0058(8) 0.0009(8) -0.0068(8)
B4 B3+ 0.0210(11) 0.0172(10) 0.0154(10) -0.0089(9) 0.0042(9) -0.0058(9)
B5 B3+ 0.0135(10) 0.0145(10) 0.0160(10) -0.0038(8) 0.0006(8) -0.0061(8)
B6 B3+ 0.0176(11) 0.0154(10) 0.0154(10) -0.0082(9) 0.0013(8) -0.0029(8)
Li1 Li1+ 0.0239(18) 0.0254(18) 0.039(2) -0.0074(15) 0.0024(15) -0.0163(16)
Mg1 Mg2+ 0.0077(4) 0.0077(4) 0.0094(4) -0.0042(3) 0.0001(3) 0.0002(3)
O1 O2- 0.0169(7) 0.0199(7) 0.0182(7) -0.0074(6) 0.0044(5) -0.0050(6)
O2 O2- 0.0168(7) 0.0155(6) 0.0197(7) -0.0080(5) 0.0015(5) -0.0060(5)
O3 O2- 0.0158(7) 0.0234(7) 0.0145(6) -0.0085(6) -0.0017(5) -0.0011(6)
O4 O2- 0.0180(7) 0.0176(7) 0.0222(7) -0.0081(6) 0.0002(5) -0.0094(6)
O5 O2- 0.0171(7) 0.0160(6) 0.0235(7) -0.0041(5) 0.0020(5) -0.0097(6)
O6 O2- 0.0128(6) 0.0134(6) 0.0134(6) -0.0049(5) 0.0008(5) -0.0055(5)
O7 O2- 0.0130(6) 0.0225(7) 0.0185(7) -0.0060(5) 0.0026(5) -0.0115(6)
O8 O2- 0.0128(7) 0.0230(7) 0.0172(6) -0.0059(5) 0.0014(5) -0.0099(6)
O9 O2- 0.0148(7) 0.0187(7) 0.0175(7) -0.0025(6) -0.0014(5) -0.0073(6)
O10 O2- 0.0157(7) 0.0183(7) 0.0158(6) -0.0046(5) -0.0007(5) -0.0077(5)
O11 O2- 0.0189(7) 0.0279(8) 0.0219(7) 0.0011(6) -0.0064(6) -0.0123(6)
O12 O2- 0.0246(8) 0.0196(7) 0.0393(9) -0.0110(6) 0.0062(6) -0.0155(7)
O13 O2- 0.0146(7) 0.0416(9) 0.0226(7) -0.0095(6) 0.0045(6) -0.0205(7)
O14 O2- 0.0246(8) 0.0565(11) 0.0317(9) -0.0009(8) -0.0020(7) -0.0258(8)
#End of TTdata_252114-ICSD