
#(C) 2018 by FIZ Karlsruhe - Leibniz Institute for Information Infrastructure.  All rights reserved.
data_252185-ICSD
_database_code_ICSD 252185
_audit_creation_date 2016-08-01
_chemical_name_systematic 'Lithium cesium barium diphosphate'
_chemical_formula_structural 'Li Cs Ba (P2 O7)'
_chemical_formula_sum 'Ba1 Cs1 Li1 O7 P2'
_exptl_crystal_density_diffrn 3.79
_cell_measurement_temperature 296.
_publ_section_title

;
Three new phosphates with isolated P2O7 units: noncentrosymmetric
Cs2Ba3(P2O7)2 and centrosymmetric Cs2BaP2O7 and LiCsBaP2O7
;
loop_
_citation_id
_citation_journal_full
_citation_year
_citation_journal_volume
_citation_page_first
_citation_page_last
_citation_journal_id_ASTM
primary 'Dalton Transactions' 2016 45 3936 3942 DTARAF
loop_
_publ_author_name
'Li, Lin'
'Han, Shujuan'
'Lei, Bing-Hua'
'Wang, Ying'
'Li, Hongyi'
'Yang, Zhihua'
'Pan, Shilie'
_cell_length_a 7.0782(7)
_cell_length_b 10.8240(12)
_cell_length_c 10.7132(10)
_cell_angle_alpha 90.
_cell_angle_beta 105.616(6)
_cell_angle_gamma 90.
_cell_volume 790.48
_cell_formula_units_Z 4
_symmetry_space_group_name_H-M 'P 1 21/c 1'
_symmetry_Int_Tables_number 14
_refine_ls_R_factor_all 0.0211
loop_
_symmetry_equiv_pos_site_id
_symmetry_equiv_pos_as_xyz
1 'x, -y+1/2, z+1/2'
2 '-x, -y, -z'
3 '-x, y+1/2, -z+1/2'
4 'x, y, z'
loop_
_atom_type_symbol
_atom_type_oxidation_number
Ba2+ 2
Cs1+ 1
Li1+ 1
P5+ 5
O2- -2
loop_
_atom_site_label
_atom_site_type_symbol
_atom_site_symmetry_multiplicity
_atom_site_Wyckoff_symbol
_atom_site_fract_x
_atom_site_fract_y
_atom_site_fract_z
_atom_site_B_iso_or_equiv
_atom_site_occupancy
_atom_site_attached_hydrogens
Ba1 Ba2+ 4 e 0.80667(3) 0.443208(19) 0.12259(2) 0.01269(8) 1 0
Cs1 Cs1+ 4 e 0.74972(4) 0.82690(2) -0.00398(3) 0.02472(10) 1 0
Li1 Li1+ 4 e 0.6662(10) 0.2599(6) 0.3594(6) 0.0180(14) 1 0
P1 P5+ 4 e 0.37777(14) 0.48491(9) 0.19753(9) 0.0117(2) 1 0
P2 P5+ 4 e 0.83850(14) 0.13558(9) 0.16339(9) 0.0120(2) 1 0
O1 O2- 4 e 0.6559(4) 0.0459(2) 0.1726(2) 0.0161(6) 1 0
O2 O2- 4 e 0.4655(4) 0.5857(2) 0.1299(2) 0.0155(6) 1 0
O3 O2- 4 e 0.1818(4) 0.4419(2) 0.1115(2) 0.0167(6) 1 0
O4 O2- 4 e 0.8804(4) 0.2211(2) 0.2799(2) 0.0175(6) 1 0
O5 O2- 4 e 0.5208(4) 0.3806(2) 0.2447(3) 0.0191(6) 1 0
O6 O2- 4 e 0.7582(4) 0.2062(2) 0.0389(2) 0.0178(6) 1 0
O7 O2- 4 e 1.0055(4) 0.0502(2) 0.1612(3) 0.0201(6) 1 0
loop_
_atom_site_aniso_label
_atom_site_aniso_type_symbol
_atom_site_aniso_U_11
_atom_site_aniso_U_22
_atom_site_aniso_U_33
_atom_site_aniso_U_12
_atom_site_aniso_U_13
_atom_site_aniso_U_23
Ba1 Ba2+ 0.01123(14) 0.01417(13) 0.01201(12) 0.00011(8) 0.00203(9) 0.00045(8)
Cs1 Cs1+ 0.02467(17) 0.02216(16) 0.02751(15) 0.00018(11) 0.00732(12)
-0.00418(10)
Li1 Li1+ 0.024(4) 0.018(3) 0.010(3) 0.003(3) 0.003(3) 0.003(2)
P1 P5+ 0.0116(5) 0.0120(4) 0.0110(4) 0.0014(4) 0.0021(4) 0.0002(3)
P2 P5+ 0.0130(5) 0.0131(4) 0.0097(4) 0.0018(4) 0.0028(4) 0.0018(4)
O1 O2- 0.0158(15) 0.0201(14) 0.0113(12) -0.0034(11) 0.0019(11) 0.0023(10)
O2 O2- 0.0169(15) 0.0148(13) 0.0146(12) -0.0005(11) 0.0040(11) 0.0032(10)
O3 O2- 0.0112(14) 0.0195(14) 0.0185(13) -0.0013(11) 0.0025(11) -0.0023(11)
O4 O2- 0.0193(15) 0.0180(14) 0.0144(12) -0.0035(11) 0.0033(11) -0.0032(10)
O5 O2- 0.0193(15) 0.0179(14) 0.0205(13) 0.0058(12) 0.0061(11) 0.0052(11)
O6 O2- 0.0247(17) 0.0168(14) 0.0104(12) 0.0018(11) 0.0020(11) 0.0037(11)
O7 O2- 0.0181(15) 0.0225(15) 0.0208(14) 0.0067(12) 0.0070(12) 0.0046(11)
#End of TTdata_252185-ICSD