
#(C) 2018 by FIZ Karlsruhe - Leibniz Institute for Information Infrastructure.  All rights reserved.
data_252342-ICSD
_database_code_ICSD 252342
_audit_creation_date 2016-08-01
_chemical_name_systematic 'Lithium copper sulfate fluoride'
_chemical_formula_structural 'Li Cu S O4 F'
_chemical_formula_sum 'Cu1 F1 Li1 O4 S1'
_chemical_name_structure_type Triplite-(Mn,Fe)2PO4F
_exptl_crystal_density_diffrn 3.52
_cell_measurement_temperature 300.
_publ_section_title 'A fully ordered triplite, LiCuSO4F'
loop_
_citation_id
_citation_journal_full
_citation_year
_citation_journal_volume
_citation_page_first
_citation_page_last
_citation_journal_id_ASTM
primary 'Chemistry of Materials' 2016 28 1607 1610 CMATEX
loop_
_publ_author_name
'Sun, Meiling'
'Rousse, Gwenaelle'
'Corte, Daniel Dalla'
'Saubanere, Matthieu'
'Doublet, Marie-Liesse'
'Tarascon, Jean-Marie'
_cell_length_a 12.83161(12)
_cell_length_b 6.13122(6)
_cell_length_c 10.0164(1)
_cell_angle_alpha 90
_cell_angle_beta 117.3550(7)
_cell_angle_gamma 90
_cell_volume 699.9
_cell_formula_units_Z 8
_symmetry_space_group_name_H-M 'C 1 2/c 1'
_symmetry_Int_Tables_number 15
_refine_ls_R_factor_all 0.0324
loop_
_symmetry_equiv_pos_site_id
_symmetry_equiv_pos_as_xyz
1 'x, -y, z+1/2'
2 '-x, -y, -z'
3 '-x, y, -z+1/2'
4 'x, y, z'
5 'x+1/2, -y+1/2, z+1/2'
6 '-x+1/2, -y+1/2, -z'
7 '-x+1/2, y+1/2, -z+1/2'
8 'x+1/2, y+1/2, z'
loop_
_atom_type_symbol
_atom_type_oxidation_number
Cu2+ 2
F1- -1
S6+ 6
O2- -2
Li1+ 1
loop_
_atom_site_label
_atom_site_type_symbol
_atom_site_symmetry_multiplicity
_atom_site_Wyckoff_symbol
_atom_site_fract_x
_atom_site_fract_y
_atom_site_fract_z
_atom_site_B_iso_or_equiv
_atom_site_occupancy
_atom_site_attached_hydrogens
Cu1 Cu2+ 8 f 0.35806(16) 0.1008(4) 0.1650(2) 0.0079 1. 0
F1 F1- 8 f 0.4750(2) 0.0947(5) 0.1009(4) 0.012 1. 0
S1 S6+ 8 f 0.1701(4) 0.0901(8) 0.2948(4) 0.009 1. 0
O1 O2- 8 f 0.2883(2) 0.1260(4) 0.3039(4) 0.0122 1. 0
O2 O2- 8 f 0.1422(2) 0.2843(4) 0.3601(4) 0.0072 1. 0
O3 O2- 8 f 0.3212(2) 0.4081(4) 0.1043(4) 0.012 1. 0
O4 O2- 8 f 0.0851(2) 0.0510(4) 0.1403(4) 0.0156 1. 0
Li1 Li1+ 8 f 0.0448(8) 0.2576(15) 0.4936(10) 0.0163 1. 0
#End of TTdata_252342-ICSD