
#(C) 2018 by FIZ Karlsruhe - Leibniz Institute for Information Infrastructure.  All rights reserved.
data_252877-ICSD
_database_code_ICSD 252877
_audit_creation_date 2017-08-01
_chemical_name_systematic

;
Dodecalead (bis(diphosphato)-bis(tridecaoxo-tetraphosphato)-dilithium)
tridecaoxo-tetraphosphate
;
_chemical_formula_structural 'Pb12 (Li2 (P2 O7)2 (P4 O13)2) (P4 O13)'
_chemical_formula_sum 'Li2 O53 P16 Pb12'
_exptl_crystal_density_diffrn 5.62
_cell_measurement_temperature 296.
_publ_section_title

;
Application of the dimensional reduction formalism to Pb12 [Li2 (P2 O7)2 (P4
O13)2] (P4 O13): a phosphate containing three types of isolated P-O groups
;
loop_
_citation_id
_citation_journal_full
_citation_year
_citation_journal_volume
_citation_page_first
_citation_page_last
_citation_journal_id_ASTM
primary 'Inorganic Chemistry' 2016 55 7329 7331 INOCAJ
loop_
_publ_author_name
'Zhang, Xiangyu'
'Wu, Hongping'
'Wang, Ying'
'Dong, Xiaoyu'
'Han, Shujuan'
'Pan, Shilie'
_cell_length_a 7.3723(4)
_cell_length_b 11.4425(6)
_cell_length_c 14.2163(7)
_cell_angle_alpha 73.020(3)
_cell_angle_beta 81.998(3)
_cell_angle_gamma 85.325(3)
_cell_volume 1134.74
_cell_formula_units_Z 1
_symmetry_space_group_name_H-M 'P -1'
_symmetry_Int_Tables_number 2
_refine_ls_R_factor_all 0.0352
loop_
_symmetry_equiv_pos_site_id
_symmetry_equiv_pos_as_xyz
1 '-x, -y, -z'
2 'x, y, z'
loop_
_atom_type_symbol
_atom_type_oxidation_number
Li1+ 1
Pb2+ 2
P5+ 5
O2- -2
loop_
_atom_site_label
_atom_site_type_symbol
_atom_site_symmetry_multiplicity
_atom_site_Wyckoff_symbol
_atom_site_fract_x
_atom_site_fract_y
_atom_site_fract_z
_atom_site_B_iso_or_equiv
_atom_site_occupancy
_atom_site_attached_hydrogens
Li1 Li1+ 2 i 0.503(2) 0.1808(15) 0.8061(12) 0.015(4) 1 0
Pb1 Pb2+ 2 i 0.47676(5) 0.49306(3) 0.15646(3) 0.01386(10) 1 0
Pb2 Pb2+ 2 i -0.04655(5) 0.64208(4) 0.21791(3) 0.01604(11) 1 0
Pb3 Pb2+ 2 i 0.78498(5) -0.07811(3) -0.03172(3) 0.01310(10) 1 0
Pb4 Pb2+ 2 i 0.67494(5) 0.22360(3) 0.39220(3) 0.01575(11) 1 0
Pb5 Pb2+ 2 i 0.17409(5) 0.38828(3) 0.45586(3) 0.01445(11) 1 0
Pb6 Pb2+ 2 i 0.19186(5) 0.01067(4) 0.34901(3) 0.01600(11) 1 0
P1 P5+ 2 i 0.7556(4) 0.2801(2) 0.61376(19) 0.0109(6) 1 0
P2 P5+ 2 i 0.4347(3) 0.4320(2) 0.64025(19) 0.0095(6) 1 0
P3 P5+ 2 i 0.7049(3) 0.2009(2) -0.03419(19) 0.0109(6) 1 0
P4 P5+ 2 i 0.5451(3) 0.1661(2) 0.17400(18) 0.0096(6) 1 0
P5 P5+ 2 i 0.8259(3) -0.0376(2) 0.21864(19) 0.0110(6) 1 0
P6 P5+ 2 i 0.6810(3) -0.0755(2) 0.42618(19) 0.0103(6) 1 0
P7 P5+ 2 i 0.0191(3) 0.35694(17) 0.23248(14) 0.0127(6) 1 0
P8 P5+ 2 i 0.1500(3) 0.39990(17) 0.02230(14) 0.0150(6) 1 0
O1 O2- 2 i 0.8320(9) 0.2287(6) 0.5288(5) 0.0177(17) 1 0
O2 O2- 2 i 0.7029(9) 0.1786(6) 0.7057(4) 0.0151(16) 1 0
O3 O2- 2 i 0.8792(8) 0.3731(6) 0.6261(5) 0.0178(17) 1 0
O4 O2- 2 i 0.5685(8) 0.3547(5) 0.5799(4) 0.0073(14) 1 0
O5 O2- 2 i 0.4117(8) 0.3558(6) 0.7484(4) 0.0119(15) 1 0
O6 O2- 2 i 0.5266(8) 0.5512(6) 0.6292(4) 0.0133(16) 1 0
O7 O2- 2 i 0.2558(8) 0.4487(6) 0.5954(5) 0.0176(17) 1 0
O8 O2- 2 i 0.5616(8) 0.1298(6) -0.0579(5) 0.0134(15) 1 0
O9 O2- 2 i 0.8757(8) 0.1202(6) -0.0106(5) 0.0159(16) 1 0
O10 O2- 2 i 0.7400(8) 0.3220(6) -0.1107(5) 0.0177(17) 1 0
O11 O2- 2 i 0.6174(8) 0.2397(6) 0.0657(4) 0.0135(15) 1 0
O12 O2- 2 i 0.4023(8) 0.0800(6) 0.1768(4) 0.0168(17) 1 0
O13 O2- 2 i 0.4968(9) 0.2568(6) 0.2310(5) 0.0177(17) 1 0
O14 O2- 2 i 0.7260(8) 0.0913(5) 0.2149(4) 0.0106(15) 1 0
O15 O2- 2 i 0.7477(8) -0.1015(6) 0.1573(5) 0.0161(16) 1 0
O16 O2- 2 i 1.0247(8) -0.0140(6) 0.1986(4) 0.0129(15) 1 0
O17 O2- 2 i 0.7814(8) -0.1175(6) 0.3302(4) 0.0147(16) 1 0
O18 O2- 2 i 0.6589(9) -0.1958(6) 0.5055(5) 0.0195(17) 1 0
O19 O2- 2 i 0.8150(9) 0.0073(6) 0.4446(5) 0.0157(16) 1 0
O20 O2- 2 i 0.5038(9) -0.0108(7) 0.3983(5) 0.0243(19) 1 0
O21 O2- 2 i 0.1606(9) 0.4423(6) 0.2441(5) 0.0168(17) 1 0
O22 O2- 2 i -0.1612(9) 0.4290(6) 0.2218(5) 0.0255(19) 1 0
O23 O2- 2 i 0.0092(9) 0.2380(6) 0.3124(5) 0.0209(18) 1 0
O24 O2- 2 i 0.0824(9) 0.3185(6) 0.1309(4) 0.0144(16) 1 0
O25 O2- 2 i 0.3191(9) 0.4573(6) 0.0212(5) 0.0176(7) 1 0
O26 O2- 2 i 0.1563(8) 0.3231(6) -0.0455(5) 0.0171(7) 1 0
O27 O2- 2 i -0.0323(19) 0.4738(13) -0.0081(11) 0.021(4) 0.5 0
loop_
_atom_site_aniso_label
_atom_site_aniso_type_symbol
_atom_site_aniso_U_11
_atom_site_aniso_U_22
_atom_site_aniso_U_33
_atom_site_aniso_U_12
_atom_site_aniso_U_13
_atom_site_aniso_U_23
Li1 Li1+ 0.015(4) 0.015(4) 0.015(4) -0.0006(10) -0.0018(11) -0.0042(15)
Pb1 Pb2+ 0.0146(2) 0.0143(2) 0.0128(2) -0.00142(17) -0.00156(17) -0.00400(17)
Pb2 Pb2+ 0.0175(2) 0.0158(2) 0.0148(2) -0.00065(17) -0.00102(18) -0.00480(18)
Pb3 Pb2+ 0.0152(2) 0.0130(2) 0.0118(2) -0.00195(17) -0.00177(17) -0.00423(16)
Pb4 Pb2+ 0.0158(2) 0.0173(2) 0.0153(2) -0.00016(18) -0.00275(18) -0.00621(18)
Pb5 Pb2+ 0.0150(2) 0.0133(2) 0.0151(2) -0.00058(17) -0.00169(17) -0.00411(17)
Pb6 Pb2+ 0.0154(2) 0.0140(2) 0.0193(2) 0.00025(17) -0.00518(18) -0.00464(18)
P1 P5+ 0.0108(14) 0.0116(14) 0.0114(15) -0.0009(11) -0.0001(11) -0.0051(12)
P2 P5+ 0.0087(14) 0.0094(14) 0.0100(14) -0.0014(11) -0.0006(11) -0.0023(11)
P3 P5+ 0.0114(14) 0.0105(14) 0.0092(14) -0.0013(11) -0.0015(11) -0.0002(11)
P4 P5+ 0.0118(14) 0.0108(14) 0.0043(14) -0.0004(11) -0.0009(11) 0.0004(11)
P5 P5+ 0.0101(14) 0.0132(14) 0.0089(14) 0.0014(11) 0.0006(11) -0.0035(11)
P6 P5+ 0.0111(14) 0.0117(14) 0.0079(14) -0.0011(11) -0.0023(11) -0.0019(11)
P7 P5+ 0.0138(15) 0.0121(14) 0.0120(15) -0.0005(12) 0.0002(12) -0.0038(12)
P8 P5+ 0.0156(9) 0.0164(9) 0.0140(9) -0.0019(7) -0.0021(8) -0.0053(7)
O1 O2- 0.021(4) 0.020(4) 0.015(4) 0.000(3) -0.001(3) -0.010(3)
O2 O2- 0.021(4) 0.011(4) 0.009(4) 0.004(3) 0.000(3) 0.002(3)
O3 O2- 0.015(4) 0.022(4) 0.017(4) -0.003(3) -0.005(3) -0.004(3)
O4 O2- 0.005(3) 0.008(3) 0.008(4) 0.004(3) -0.002(3) -0.001(3)
O5 O2- 0.016(4) 0.010(4) 0.009(4) 0.003(3) -0.004(3) -0.001(3)
O6 O2- 0.013(4) 0.011(4) 0.015(4) -0.001(3) -0.003(3) -0.002(3)
O7 O2- 0.016(4) 0.011(4) 0.027(4) -0.001(3) -0.010(3) -0.005(3)
O8 O2- 0.0133(18) 0.0143(18) 0.0130(18) -0.0012(10) -0.0025(10) -0.0038(10)
O9 O2- 0.011(4) 0.014(4) 0.020(4) 0.006(3) 0.000(3) -0.002(3)
O10 O2- 0.011(4) 0.018(4) 0.015(4) 0.000(3) 0.003(3) 0.007(3)
O11 O2- 0.016(4) 0.016(4) 0.008(4) 0.001(3) 0.000(3) -0.003(3)
O12 O2- 0.014(4) 0.025(4) 0.012(4) -0.009(3) -0.002(3) -0.003(3)
O13 O2- 0.024(4) 0.020(4) 0.014(4) 0.011(3) -0.006(3) -0.013(3)
O14 O2- 0.009(4) 0.009(4) 0.015(4) 0.000(3) -0.008(3) -0.002(3)
O15 O2- 0.0168(18) 0.0166(18) 0.0158(18) -0.0015(10) -0.0025(10) -0.0053(10)
O16 O2- 0.0128(18) 0.0134(18) 0.0130(18) -0.0013(10) -0.0021(10) -0.0041(10)
O17 O2- 0.021(4) 0.010(4) 0.011(4) 0.002(3) 0.004(3) -0.003(3)
O18 O2- 0.024(4) 0.014(4) 0.016(4) 0.001(3) 0.003(3) -0.002(3)
O19 O2- 0.023(4) 0.007(4) 0.017(4) -0.001(3) -0.005(3) -0.003(3)
O20 O2- 0.017(4) 0.041(5) 0.015(4) 0.010(4) -0.006(3) -0.010(4)
O21 O2- 0.023(4) 0.016(4) 0.013(4) -0.006(3) -0.002(3) -0.005(3)
O22 O2- 0.017(4) 0.030(5) 0.025(5) 0.012(4) -0.004(3) -0.004(4)
O23 O2- 0.034(5) 0.015(4) 0.009(4) -0.006(4) 0.001(3) 0.003(3)
O24 O2- 0.022(4) 0.013(4) 0.010(4) 0.001(3) -0.001(3) -0.007(3)
O25 O2- 0.0173(10) 0.0190(10) 0.0167(10) -0.0033(8) -0.0023(8) -0.0046(8)
O26 O2- 0.0188(10) 0.0175(10) 0.0158(10) -0.0019(8) -0.0017(8) -0.0058(7)
O27 O2- 0.021(4) 0.021(4) 0.021(4) -0.0008(10) -0.0025(11) -0.0057(14)
#End of TTdata_252877-ICSD