
#(C) 2018 by FIZ Karlsruhe - Leibniz Institute for Information Infrastructure.  All rights reserved.
data_253687-ICSD
_database_code_ICSD 253687
_audit_creation_date 2017-08-01
_chemical_name_systematic
'Trilead hexabarium dilithium bis(diphosphate) bis(tridecaoxo-tetraphosphate)'
_chemical_formula_structural 'Pb3 Ba6 (Li2 (P2 O7)2 (P4 O13)2)'
_chemical_formula_sum 'Ba6 Li2 O40 P12 Pb3'
_exptl_crystal_density_diffrn 4.59
_cell_measurement_temperature 293.
_publ_section_title

;
Application of the dimensional reduction formalism to Pb9-x Bax [Li2 (P2O7)2
(P4O13)2] (x = 0, 2, 6, 7). A series of phosphates with two types of isolated
polyphosphate groups
;
loop_
_citation_id
_citation_journal_full
_citation_year
_citation_journal_volume
_citation_page_first
_citation_page_last
_citation_journal_id_ASTM
primary 'Dalton Transactions' 2017 46 4678 4684 DTARAF
loop_
_publ_author_name
'Zhang, Xiangyu'
'Wu, Hongping'
'Liu, Qiong'
'Dong, Xiaoyu'
'Chen, Yunlei'
'Yang, Zhihua'
'Wen, Xiao-Dong'
'Pan, Shilie'
_cell_length_a 7.5293(4)
_cell_length_b 7.8246(4)
_cell_length_c 15.7265(9)
_cell_angle_alpha 80.356(3)
_cell_angle_beta 84.680(3)
_cell_angle_gamma 78.446(3)
_cell_volume 893.22
_cell_formula_units_Z 1
_symmetry_space_group_name_H-M 'P -1'
_symmetry_Int_Tables_number 2
_refine_ls_R_factor_all 0.0452
loop_
_symmetry_equiv_pos_site_id
_symmetry_equiv_pos_as_xyz
1 '-x, -y, -z'
2 'x, y, z'
loop_
_atom_type_symbol
_atom_type_oxidation_number
Li1+ 1
Pb2+ 2
Ba2+ 2
P5+ 5
O2- -2
loop_
_atom_site_label
_atom_site_type_symbol
_atom_site_symmetry_multiplicity
_atom_site_Wyckoff_symbol
_atom_site_fract_x
_atom_site_fract_y
_atom_site_fract_z
_atom_site_B_iso_or_equiv
_atom_site_occupancy
_atom_site_attached_hydrogens
Li1 Li1+ 2 i 0.005(3) 0.494(3) 0.3092(13) 0.020(5) 1 0
Pb1 Pb2+ 1 a 1. 1. 0. 0.0361(2) 1 0
Pb2 Pb2+ 2 i 0.60853(7) 0.69860(6) -0.00391(3) 0.01765(16) 1 0
Ba1 Ba2+ 2 i 0.58947(9) 0.33357(9) 0.25141(4) 0.01128(17) 1 0
Ba2 Ba2+ 2 i 0.23615(9) 0.64561(8) 0.49348(4) 0.00687(16) 1 0
Ba3 Ba2+ 2 i 0.16357(9) 0.00687(9) 0.24507(4) 0.01161(17) 1 0
P1 P5+ 2 i 1.0304(4) 0.5916(4) -0.12274(19) 0.0109(6) 1 0
P2 P5+ 2 i 0.7270(4) 0.7415(4) 0.57548(19) 0.0111(6) 1 0
P3 P5+ 2 i 0.8176(4) 0.9513(4) 0.40843(19) 0.0108(6) 1 0
P4 P5+ 2 i 0.6145(4) 0.7422(4) 0.32400(19) 0.0114(6) 1 0
P5 P5+ 2 i 0.6674(4) 0.9674(4) 0.15836(19) 0.0115(6) 1 0
P6 P5+ 2 i 0.7805(4) 0.3661(4) -0.1450(2) 0.0136(6) 1 0
O1 O2- 2 i 0.9488(12) 0.4116(11) -0.1011(6) 0.0156(17) 1 0
O2 O2- 2 i 0.9055(12) 0.6135(12) 0.5715(6) 0.0168(18) 1 0
O3 O2- 2 i 0.7544(12) 0.9214(11) 0.5074(5) 0.0144(17) 1 0
O4 O2- 2 i 0.8970(12) 0.7324(12) -0.0797(6) 0.0162(17) 1 0
O5 O2- 2 i 0.6565(14) 0.7829(12) 0.2219(6) 0.021(2) 1 0
O6 O2- 2 i 0.4891(13) 1.0912(12) 0.1714(6) 0.0209(19) 1 0
O7 O2- 2 i 0.9933(12) 0.8324(13) 0.3896(6) 0.0207(19) 1 0
O8 O2- 2 i 0.8120(14) 1.1441(12) 0.3818(6) 0.0213(19) 1 0
O9 O2- 2 i 0.6842(14) 0.8062(12) 0.6610(5) 0.0199(19) 1 0
O10 O2- 2 i 0.4166(13) 0.7478(13) 0.3420(6) 0.0214(19) 1 0
O11 O2- 2 i 0.6608(12) 0.9052(11) 0.3603(6) 0.0161(17) 1 0
O12 O2- 2 i 1.2158(13) 0.5470(12) -0.0865(6) 0.0187(18) 1 0
O13 O2- 2 i 1.0409(13) 0.6439(12) -0.2196(5) 0.0173(18) 1 0
O14 O2- 2 i 0.7684(14) 0.1803(12) -0.1029(6) 0.023(2) 1 0
O15 O2- 2 i 0.6139(13) 0.4965(14) -0.1186(7) 0.028(2) 1 0
O16 O2- 2 i 0.5750(13) 0.6698(12) 0.5450(6) 0.0215(19) 1 0
O17 O2- 2 i 0.7410(13) 0.5731(12) 0.3532(6) 0.0184(18) 1 0
O18 O2- 2 i 0.8214(16) 0.3794(16) -0.2401(6) 0.031(3) 1 0
O19 O2- 2 i 0.6945(15) 0.9142(13) 0.0691(6) 0.024(2) 1 0
O20 O2- 2 i 0.8279(14) 1.0359(14) 0.1813(7) 0.027(2) 1 0
loop_
_atom_site_aniso_label
_atom_site_aniso_type_symbol
_atom_site_aniso_U_11
_atom_site_aniso_U_22
_atom_site_aniso_U_33
_atom_site_aniso_U_12
_atom_site_aniso_U_13
_atom_site_aniso_U_23
Li1 Li1+ 0.016(11) 0.038(13) 0.010(10) -0.009(9) 0.002(8) -0.008(9)
Pb1 Pb2+ 0.0199(4) 0.0517(6) 0.0314(4) -0.0067(4) -0.0026(3) 0.0093(4)
Pb2 Pb2+ 0.0196(3) 0.0165(3) 0.0177(3) -0.00532(18) -0.00070(18) -0.00282(18)
Ba1 Ba2+ 0.0099(3) 0.0135(3) 0.0102(3) -0.0043(2) -0.0015(2) 0.0020(2)
Ba2 Ba2+ 0.0065(3) 0.0073(3) 0.0057(3) 0.0010(2) -0.0013(2) 0.0001(2)
Ba3 Ba2+ 0.0100(3) 0.0130(3) 0.0117(3) -0.0033(2) -0.0005(2) -0.0005(2)
P1 P5+ 0.0094(13) 0.0135(13) 0.0097(13) -0.0028(11) 0.0005(10) -0.0011(11)
P2 P5+ 0.0114(14) 0.0126(13) 0.0091(13) -0.0033(11) -0.0002(10) 0.0000(11)
P3 P5+ 0.0115(14) 0.0110(13) 0.0100(13) -0.0043(11) -0.0012(11) 0.0011(10)
P4 P5+ 0.0135(14) 0.0101(13) 0.0107(13) -0.0045(11) -0.0021(11) 0.0016(10)
P5 P5+ 0.0126(14) 0.0124(13) 0.0096(13) -0.0045(11) 0.0015(11) -0.0008(11)
P6 P5+ 0.0137(15) 0.0127(14) 0.0149(14) -0.0033(11) -0.0003(11) -0.0030(11)
O1 O2- 0.015(4) 0.013(4) 0.016(4) 0.000(3) 0.001(3) 0.002(3)
O2 O2- 0.015(4) 0.017(4) 0.017(4) -0.001(3) 0.000(3) -0.001(3)
O3 O2- 0.015(4) 0.017(4) 0.010(4) -0.002(3) 0.000(3) 0.002(3)
O4 O2- 0.015(4) 0.017(4) 0.017(4) -0.002(3) 0.001(3) -0.005(3)
O5 O2- 0.038(6) 0.012(4) 0.013(4) -0.007(4) -0.003(4) 0.002(3)
O6 O2- 0.016(5) 0.022(5) 0.021(5) 0.002(4) 0.004(4) -0.002(4)
O7 O2- 0.009(4) 0.026(5) 0.023(5) 0.000(4) 0.001(3) 0.000(4)
O8 O2- 0.028(5) 0.017(4) 0.020(5) -0.008(4) -0.002(4) -0.001(4)
O9 O2- 0.032(5) 0.020(4) 0.007(4) -0.007(4) 0.004(4) -0.004(3)
O10 O2- 0.017(5) 0.022(5) 0.026(5) -0.006(4) -0.006(4) -0.001(4)
O11 O2- 0.019(4) 0.012(4) 0.018(4) 0.000(3) -0.007(3) -0.004(3)
O12 O2- 0.019(5) 0.018(4) 0.018(4) -0.004(4) -0.005(4) 0.003(3)
O13 O2- 0.023(5) 0.018(4) 0.010(4) -0.007(4) -0.002(3) 0.004(3)
O14 O2- 0.028(5) 0.015(4) 0.027(5) -0.007(4) -0.002(4) 0.002(4)
O15 O2- 0.015(5) 0.026(5) 0.044(6) 0.003(4) -0.006(4) -0.014(5)
O16 O2- 0.019(5) 0.020(4) 0.028(5) -0.007(4) -0.008(4) -0.001(4)
O17 O2- 0.022(5) 0.016(4) 0.013(4) 0.003(4) -0.005(4) 0.001(3)
O18 O2- 0.041(6) 0.049(7) 0.016(5) -0.037(6) 0.005(4) -0.006(4)
O19 O2- 0.035(6) 0.025(5) 0.011(4) -0.009(4) 0.002(4) -0.001(4)
O20 O2- 0.021(5) 0.029(5) 0.035(6) -0.012(4) -0.008(4) 0.000(4)
#End of TTdata_253687-ICSD