
#(C) 2018 by FIZ Karlsruhe - Leibniz Institute for Information Infrastructure.  All rights reserved.
data_253684-ICSD
_database_code_ICSD 253684
_audit_creation_date 2017-08-01
_chemical_name_systematic
'Nonalead dilithium bis(diphosphate) bis(tridecaoxo-tetraphosphate)'
_chemical_formula_structural 'Pb9 (Li2 (P2 O7)2 (P4 O13)2)'
_chemical_formula_sum 'Li2 O40 P12 Pb9'
_exptl_crystal_density_diffrn 5.55
_cell_measurement_temperature 296.
_publ_section_title

;
Application of the dimensional reduction formalism to Pb9-x Bax [Li2 (P2O7)2
(P4O13)2] (x = 0, 2, 6, 7). A series of phosphates with two types of isolated
polyphosphate groups
;
loop_
_citation_id
_citation_journal_full
_citation_year
_citation_journal_volume
_citation_page_first
_citation_page_last
_citation_journal_id_ASTM
primary 'Dalton Transactions' 2017 46 4678 4684 DTARAF
loop_
_publ_author_name
'Zhang, Xiangyu'
'Wu, Hongping'
'Liu, Qiong'
'Dong, Xiaoyu'
'Chen, Yunlei'
'Yang, Zhihua'
'Wen, Xiao-Dong'
'Pan, Shilie'
_cell_length_a 7.4157(2)
_cell_length_b 7.7513(2)
_cell_length_c 15.5667(5)
_cell_angle_alpha 80.452(2)
_cell_angle_beta 85.284(2)
_cell_angle_gamma 79.065(2)
_cell_volume 865.18
_cell_formula_units_Z 1
_symmetry_space_group_name_H-M 'P -1'
_symmetry_Int_Tables_number 2
_refine_ls_R_factor_all 0.0451
loop_
_symmetry_equiv_pos_site_id
_symmetry_equiv_pos_as_xyz
1 '-x, -y, -z'
2 'x, y, z'
loop_
_atom_type_symbol
_atom_type_oxidation_number
Pb2+ 2
P5+ 5
O2- -2
Li1+ 1
loop_
_atom_site_label
_atom_site_type_symbol
_atom_site_symmetry_multiplicity
_atom_site_Wyckoff_symbol
_atom_site_fract_x
_atom_site_fract_y
_atom_site_fract_z
_atom_site_B_iso_or_equiv
_atom_site_occupancy
_atom_site_attached_hydrogens
Pb1 Pb2+ 1 a 1. 0. 1. 0.0203(2) 1 0
Pb2 Pb2+ 2 i 0.23576(7) 0.64083(7) 0.49474(4) 0.01159(15) 1 0
Pb3 Pb2+ 2 i 0.60641(7) 0.69710(7) 0.99530(4) 0.01054(15) 1 0
Pb4 Pb2+ 2 i 0.41031(9) 0.67505(8) 0.75075(4) 0.01893(16) 1 0
Pb5 Pb2+ 2 i 0.83426(9) 1.00097(9) 0.75184(4) 0.02400(18) 1 0
P1 P5+ 2 i 1.0313(4) 0.5975(4) 0.8778(2) 0.0049(6) 1 0
P2 P5+ 2 i 0.7862(5) 0.3639(5) 0.8528(2) 0.0076(7) 1 0
P3 P5+ 2 i 0.3315(5) 1.0354(4) 0.8409(2) 0.0061(6) 1 0
P4 P5+ 2 i 0.3893(5) 1.2596(4) 0.6740(2) 0.0058(6) 1 0
P5 P5+ 2 i 0.1824(5) 1.0448(4) 0.5889(2) 0.0059(6) 1 0
P6 P5+ 2 i 0.2750(5) 1.2631(5) 0.4244(2) 0.0060(6) 1 0
O1 O2- 2 i 1.0394(14) 0.6516(13) 0.7792(7) 0.013(2) 1 0
O2 O2- 2 i 0.8958(13) 0.7366(13) 0.9217(7) 0.0097(19) 1 0
O3 O2- 2 i 1.2223(13) 0.5549(14) 0.9137(7) 0.012(2) 1 0
O4 O2- 2 i 0.9531(13) 0.4136(12) 0.8988(6) 0.0077(18) 1 0
O5 O2- 2 i 0.7655(15) 0.1792(13) 0.8994(8) 0.017(2) 1 0
O6 O2- 2 i 0.6182(14) 0.5019(14) 0.8716(8) 0.018(2) 1 0
O7 O2- 2 i 0.3225(14) 1.2027(13) 0.3374(7) 0.012(2) 1 0
O8 O2- 2 i 0.0917(13) 1.3901(12) 0.4280(6) 0.0084(19) 1 0
O9 O2- 2 i 0.4245(14) 1.3362(14) 0.4582(7) 0.014(2) 1 0
O10 O2- 2 i 0.2474(14) 1.0795(12) 0.4895(6) 0.0091(19) 1 0
O11 O2- 2 i 0.0019(13) 1.1600(15) 0.6072(7) 0.016(2) 1 0
O12 O2- 2 i 0.1924(15) 0.8495(13) 0.6150(7) 0.014(2) 1 0
O13 O2- 2 i 0.3397(13) 1.0937(13) 0.6391(7) 0.0100(19) 1 0
O14 O2- 2 i 0.2608(14) 1.4284(13) 0.6443(7) 0.012(2) 1 0
O15 O2- 2 i 0.3505(14) 1.2195(13) 0.7770(7) 0.012(2) 1 0
O16 O2- 2 i 0.5880(14) 1.2525(14) 0.6561(7) 0.015(2) 1 0
O17 O2- 2 i 0.1672(16) 0.9699(16) 0.8180(8) 0.023(3) 1 0
O18 O2- 2 i 0.5092(15) 0.9055(14) 0.8269(8) 0.018(2) 1 0
O19 O2- 2 i 0.3079(15) 1.0864(14) 0.9312(8) 0.017(2) 1 0
O20 O2- 2 i 0.8432(17) 0.3610(16) 0.7593(7) 0.021(3) 1 0
Li1 Li1+ 2 i 1.000(3) 0.506(4) 0.692(2) 0.018(6) 1 0
loop_
_atom_site_aniso_label
_atom_site_aniso_type_symbol
_atom_site_aniso_U_11
_atom_site_aniso_U_22
_atom_site_aniso_U_33
_atom_site_aniso_U_12
_atom_site_aniso_U_13
_atom_site_aniso_U_23
Pb1 Pb2+ 0.0093(4) 0.0303(5) 0.0169(4) -0.0020(3) -0.0036(3) 0.0085(4)
Pb2 Pb2+ 0.0128(3) 0.0127(3) 0.0081(3) -0.00061(19) -0.00294(19) 0.0007(2)
Pb3 Pb2+ 0.0119(3) 0.0113(3) 0.0087(3) -0.00260(18) -0.00252(18) -0.00074(19)
Pb4 Pb2+ 0.0238(3) 0.0195(3) 0.0139(3) -0.0064(2) -0.0047(2) 0.0009(2)
Pb5 Pb2+ 0.0206(3) 0.0314(4) 0.0196(3) -0.0040(2) -0.0027(2) -0.0029(3)
P1 P5+ 0.0045(9) 0.0060(9) 0.0038(10) -0.0006(8) -0.0015(8) 0.0003(8)
P2 P5+ 0.0085(16) 0.0065(15) 0.0078(17) -0.0026(12) -0.0022(12) 0.0010(13)
P3 P5+ 0.0080(15) 0.0080(15) 0.0017(15) -0.0018(12) -0.0014(12) 0.0021(12)
P4 P5+ 0.0058(10) 0.0064(9) 0.0050(10) -0.0011(8) -0.0013(8) 0.0003(8)
P5 P5+ 0.0058(10) 0.0069(10) 0.0048(10) -0.0010(8) -0.0010(8) -0.0004(8)
P6 P5+ 0.0060(15) 0.0089(15) 0.0019(16) 0.0000(12) -0.0006(12) 0.0016(12)
O1 O2- 0.013(2) 0.013(2) 0.012(2) -0.0024(10) -0.0008(10) -0.0019(10)
O2 O2- 0.007(4) 0.010(5) 0.011(5) 0.002(3) 0.001(4) -0.002(4)
O3 O2- 0.002(4) 0.018(5) 0.015(5) -0.002(4) -0.002(4) -0.003(4)
O4 O2- 0.007(4) 0.008(4) 0.008(5) -0.001(3) -0.005(4) 0.002(4)
O5 O2- 0.021(6) 0.007(5) 0.020(6) -0.003(4) -0.004(5) 0.007(4)
O6 O2- 0.011(5) 0.011(5) 0.030(7) 0.004(4) -0.006(5) -0.002(5)
O7 O2- 0.013(2) 0.013(2) 0.012(2) -0.0019(10) -0.0006(10) -0.0021(10)
O8 O2- 0.008(2) 0.009(2) 0.008(2) -0.0012(10) -0.0005(10) -0.0008(10)
O9 O2- 0.011(5) 0.016(5) 0.018(6) -0.008(4) -0.006(4) 0.000(4)
O10 O2- 0.015(5) 0.006(4) 0.005(5) -0.002(4) 0.002(4) 0.000(4)
O11 O2- 0.005(5) 0.024(6) 0.014(6) 0.006(4) 0.001(4) -0.001(4)
O12 O2- 0.028(6) 0.009(5) 0.005(5) -0.006(4) -0.007(4) 0.002(4)
O13 O2- 0.010(2) 0.010(2) 0.010(2) -0.0019(10) -0.0012(10) -0.0016(10)
O14 O2- 0.016(5) 0.010(5) 0.007(5) 0.001(4) -0.004(4) 0.004(4)
O15 O2- 0.013(2) 0.012(2) 0.012(2) -0.0025(10) -0.0008(10) -0.0016(10)
O16 O2- 0.009(5) 0.019(5) 0.018(6) -0.004(4) -0.004(4) 0.000(4)
O17 O2- 0.023(3) 0.023(3) 0.023(3) -0.0048(11) -0.0018(10) -0.0030(11)
O18 O2- 0.017(5) 0.015(5) 0.016(6) 0.005(4) 0.006(4) 0.002(4)
O19 O2- 0.017(2) 0.017(2) 0.017(2) -0.0032(11) -0.0009(10) -0.0025(10)
O20 O2- 0.030(6) 0.032(7) 0.005(5) -0.021(5) 0.000(4) -0.001(5)
Li1 Li1+ 0.006(11) 0.023(14) 0.027(16) -0.008(10) -0.007(10) 0.000(12)
#End of TTdata_253684-ICSD