
#(C) 2018 by FIZ Karlsruhe - Leibniz Institute for Information Infrastructure.  All rights reserved.
data_253898-ICSD
_database_code_ICSD 253898
_audit_creation_date 2018-02-01
_chemical_name_systematic 'Trilithium heptaphosphido-trisilicate'
_chemical_formula_structural 'Li3 Si3 P7'
_chemical_formula_sum 'Li3 P7 Si3'
_exptl_crystal_density_diffrn 2.26
_cell_measurement_temperature 130.
_publ_section_title

;
Synthesis and characterization of the lithium-rich phosphidosilicates
Li10Si2P6 and Li3Si3P7
;
loop_
_citation_id
_citation_journal_full
_citation_year
_citation_journal_volume
_citation_page_first
_citation_page_last
_citation_journal_id_ASTM
primary 'Inorganic Chemistry' 2017 56 6688 6694 INOCAJ
loop_
_publ_author_name
'Eickhoff, Henrik'
'Toffoletti, Lorenzo'
'Klein, Wilhelm'
'Raudaschl-Sieber, Gabriele'
'Faessler, Thomas F.'
_cell_length_a 6.3356(4)
_cell_length_b 7.2198(4)
_cell_length_c 10.6176(6)
_cell_angle_alpha 90
_cell_angle_beta 102.941(6)
_cell_angle_gamma 90
_cell_volume 473.33
_cell_formula_units_Z 2
_symmetry_space_group_name_H-M 'P 1 21/m 1'
_symmetry_Int_Tables_number 11
_refine_ls_R_factor_all 0.0267
loop_
_symmetry_equiv_pos_site_id
_symmetry_equiv_pos_as_xyz
1 'x, -y+1/2, z'
2 '-x, -y, -z'
3 '-x, y+1/2, -z'
4 'x, y, z'
loop_
_atom_type_symbol
_atom_type_oxidation_number
Li1+ 1
Si4+ 4
P2- -2.143
loop_
_atom_site_label
_atom_site_type_symbol
_atom_site_symmetry_multiplicity
_atom_site_Wyckoff_symbol
_atom_site_fract_x
_atom_site_fract_y
_atom_site_fract_z
_atom_site_B_iso_or_equiv
_atom_site_occupancy
_atom_site_attached_hydrogens
Li1 Li1+ 2 e 0.6567(9) 0.25 0.0621(6) 0.0152(12) 1 0
Li2 Li1+ 2 e 0.7821(10) 0.25 0.3455(6) 0.0193(13) 1 0
Li3 Li1+ 2 e 0.0931(10) 0.25 0.9825(6) 0.0244(14) 1 0
Si1 Si4+ 2 e 0.24353(15) 0.25 0.73562(8) 0.00932(19) 1 0
Si2 Si4+ 4 f 0.23810(10) 0.00081(8) 0.26126(6) 0.00892(14) 1 0
P1 P2- 4 f 0.11733(9) -0.00307(8) 0.81042(6) 0.01004(13) 1 0
P2 P2- 2 e 0.60974(13) 0.25 0.81775(8) 0.00918(18) 1 0
P3 P2- 2 e 0.17695(13) 0.25 0.51693(8) 0.00952(19) 1 0
P4 P2- 4 f 0.32184(9) -0.01654(8) 0.48082(6) 0.00978(14) 1 0
P5 P2- 2 e 0.37892(13) 0.25 0.18848(8) 0.01033(18) 1 0
loop_
_atom_site_aniso_label
_atom_site_aniso_type_symbol
_atom_site_aniso_U_11
_atom_site_aniso_U_22
_atom_site_aniso_U_33
_atom_site_aniso_U_12
_atom_site_aniso_U_13
_atom_site_aniso_U_23
Li1 Li1+ 0.012(3) 0.016(3) 0.019(3) 0. 0.005(2) 0.
Li2 Li1+ 0.021(3) 0.018(3) 0.021(4) 0. 0.007(3) 0.
Li3 Li1+ 0.023(3) 0.034(4) 0.016(3) 0. 0.004(3) 0.
Si1 Si4+ 0.0070(4) 0.0091(4) 0.0118(5) 0. 0.0019(4) 0.
Si2 Si4+ 0.0067(3) 0.0082(3) 0.0116(3) -0.0002(2) 0.0016(2) 0.0000(2)
P1 P2- 0.0070(3) 0.0091(3) 0.0136(3) 0.0001(2) 0.0013(2) 0.0015(2)
P2 P2- 0.0068(4) 0.0093(4) 0.0114(4) 0. 0.0019(3) 0.
P3 P2- 0.0074(4) 0.0090(4) 0.0119(4) 0. 0.0017(3) 0.
P4 P2- 0.0076(3) 0.0093(3) 0.0122(3) 0.0001(2) 0.0018(2) -0.0001(2)
P5 P2- 0.0085(4) 0.0090(4) 0.0139(4) 0. 0.0033(3) 0.
#End of TTdata_253898-ICSD