
#(C) 2018 by FIZ Karlsruhe - Leibniz Institute for Information Infrastructure.  All rights reserved.
data_253896-ICSD
_database_code_ICSD 253896
_audit_creation_date 2018-02-01
_chemical_name_systematic 'Decalithium hexaphosphido-disilicate'
_chemical_formula_structural 'Li10 Si2 P6'
_chemical_formula_sum 'Li10 P6 Si2'
_exptl_crystal_density_diffrn 1.87
_cell_measurement_temperature 123.
_publ_section_title

;
Synthesis and characterization of the lithium-rich phosphidosilicates
Li10Si2P6 and Li3Si3P7
;
loop_
_citation_id
_citation_journal_full
_citation_year
_citation_journal_volume
_citation_page_first
_citation_page_last
_citation_journal_id_ASTM
primary 'Inorganic Chemistry' 2017 56 6688 6694 INOCAJ
loop_
_publ_author_name
'Eickhoff, Henrik'
'Toffoletti, Lorenzo'
'Klein, Wilhelm'
'Raudaschl-Sieber, Gabriele'
'Faessler, Thomas F.'
_cell_length_a 7.2051(4)
_cell_length_b 6.5808(4)
_cell_length_c 11.6405(7)
_cell_angle_alpha 90
_cell_angle_beta 90.580(4)
_cell_angle_gamma 90
_cell_volume 551.9
_cell_formula_units_Z 2
_symmetry_space_group_name_H-M 'P 1 21/n 1'
_symmetry_Int_Tables_number 14
_refine_ls_R_factor_all 0.0264
loop_
_symmetry_equiv_pos_site_id
_symmetry_equiv_pos_as_xyz
1 '-x+1/2, y+1/2, -z+1/2'
2 '-x, -y, -z'
3 'x+1/2, -y+1/2, z+1/2'
4 'x, y, z'
loop_
_atom_type_symbol
_atom_type_oxidation_number
Li1+ 1
Si4+ 4
P3- -3
loop_
_atom_site_label
_atom_site_type_symbol
_atom_site_symmetry_multiplicity
_atom_site_Wyckoff_symbol
_atom_site_fract_x
_atom_site_fract_y
_atom_site_fract_z
_atom_site_B_iso_or_equiv
_atom_site_occupancy
_atom_site_attached_hydrogens
Li1 Li1+ 4 e 0.1620(3) -0.0064(3) 0.26470(19) 0.0142(4) 1 0
Li2 Li1+ 4 e 0.5676(3) 0.1267(3) 0.25685(18) 0.0105(4) 1 0
Li3 Li1+ 4 e 0.1882(3) 0.0657(3) 0.60014(19) 0.0135(4) 1 0
Li4 Li1+ 4 e 0.5769(3) 0.1592(3) 0.58133(18) 0.0110(4) 1 0
Li5 Li1+ 4 e 0.3468(3) 0.5327(3) 0.59086(19) 0.0143(4) 1 0
Si1 Si4+ 4 e 0.07035(4) 0.35061(4) 0.41081(3) 0.00514(7) 1 0
P1 P3- 4 e 0.09689(4) 0.69875(4) 0.42721(2) 0.00568(6) 1 0
P2 P3- 4 e 0.35855(4) 0.22797(4) 0.41599(2) 0.00595(6) 1 0
P3 P3- 4 e -0.09948(4) 0.24458(4) 0.26194(2) 0.00594(6) 1 0
loop_
_atom_site_aniso_label
_atom_site_aniso_type_symbol
_atom_site_aniso_U_11
_atom_site_aniso_U_22
_atom_site_aniso_U_33
_atom_site_aniso_U_12
_atom_site_aniso_U_13
_atom_site_aniso_U_23
Li1 Li1+ 0.0127(10) 0.0139(10) 0.0159(11) 0.0021(7) -0.0019(8) -0.0021(8)
Li2 Li1+ 0.0096(9) 0.0123(10) 0.0096(10) 0.0002(7) 0.0011(7) -0.0005(8)
Li3 Li1+ 0.0107(10) 0.0130(10) 0.0169(11) 0.0011(7) -0.0011(8) 0.0013(8)
Li4 Li1+ 0.0101(9) 0.0117(10) 0.0111(10) 0.0001(7) 0.0000(8) 0.0004(7)
Li5 Li1+ 0.0135(10) 0.0126(10) 0.0166(11) -0.0012(7) -0.0011(8) 0.0013(8)
Si1 Si4+ 0.00510(13) 0.00497(14) 0.00534(14) -0.00010(9) -0.00006(10)
0.00001(10)
P1 P3- 0.00609(12) 0.00497(12) 0.00598(13) -0.00024(9) 0.00037(9) 0.00020(9)
P2 P3- 0.00524(12) 0.00610(12) 0.00652(13) 0.00053(9) -0.00015(9) -0.00003(9)
P3 P3- 0.00637(12) 0.00548(12) 0.00596(13) -0.00031(9) -0.00083(9) -0.00018(9)
#End of TTdata_253896-ICSD