
#(C) 2018 by FIZ Karlsruhe - Leibniz Institute for Information Infrastructure.  All rights reserved.
data_253895-ICSD
_database_code_ICSD 253895
_audit_creation_date 2018-02-01
_chemical_name_systematic 'Decalithium hexaphosphido-disilicate'
_chemical_formula_structural 'Li10 Si2 P6'
_chemical_formula_sum 'Li10 P6 Si2'
_exptl_crystal_density_diffrn 1.86
_cell_measurement_temperature 298.
_publ_section_title

;
Synthesis and characterization of the lithium-rich phosphidosilicates
Li10Si2P6 and Li3Si3P7
;
loop_
_citation_id
_citation_journal_full
_citation_year
_citation_journal_volume
_citation_page_first
_citation_page_last
_citation_journal_id_ASTM
primary 'Inorganic Chemistry' 2017 56 6688 6694 INOCAJ
loop_
_publ_author_name
'Eickhoff, Henrik'
'Toffoletti, Lorenzo'
'Klein, Wilhelm'
'Raudaschl-Sieber, Gabriele'
'Faessler, Thomas F.'
_cell_length_a 7.2167(2)
_cell_length_b 6.5934(3)
_cell_length_c 11.6792(5)
_cell_angle_alpha 90
_cell_angle_beta 90.539(2)
_cell_angle_gamma 90
_cell_volume 555.7
_cell_formula_units_Z 2
_symmetry_space_group_name_H-M 'P 1 21/n 1'
_symmetry_Int_Tables_number 14
_refine_ls_R_factor_all 0.0263
loop_
_symmetry_equiv_pos_site_id
_symmetry_equiv_pos_as_xyz
1 '-x+1/2, y+1/2, -z+1/2'
2 '-x, -y, -z'
3 'x+1/2, -y+1/2, z+1/2'
4 'x, y, z'
loop_
_atom_type_symbol
_atom_type_oxidation_number
Li1+ 1
Si4+ 4
P3- -3
loop_
_atom_site_label
_atom_site_type_symbol
_atom_site_symmetry_multiplicity
_atom_site_Wyckoff_symbol
_atom_site_fract_x
_atom_site_fract_y
_atom_site_fract_z
_atom_site_B_iso_or_equiv
_atom_site_occupancy
_atom_site_attached_hydrogens
Li1 Li1+ 4 e 0.1637(5) -0.0045(5) 0.2639(3) 0.0241(8) 1 0
Li2 Li1+ 4 e 0.5684(4) 0.1281(5) 0.2569(3) 0.0178(7) 1 0
Li3 Li1+ 4 e 0.1883(5) 0.0632(6) 0.5986(3) 0.0261(8) 1 0
Li4 Li1+ 4 e 0.5768(4) 0.1590(5) 0.5811(3) 0.0176(7) 1 0
Li5 Li1+ 4 e 0.3455(5) 0.5313(5) 0.5904(3) 0.0248(8) 1 0
Si1 Si4+ 4 e 0.07078(6) 0.35115(7) 0.41092(4) 0.00845(11) 1 0
P1 P3- 4 e 0.09622(6) 0.69868(7) 0.42737(4) 0.00988(10) 1 0
P2 P3- 4 e 0.35864(6) 0.22858(7) 0.41624(4) 0.01044(10) 1 0
P3 P3- 4 e -0.09830(6) 0.24578(7) 0.26246(4) 0.01067(10) 1 0
loop_
_atom_site_aniso_label
_atom_site_aniso_type_symbol
_atom_site_aniso_U_11
_atom_site_aniso_U_22
_atom_site_aniso_U_33
_atom_site_aniso_U_12
_atom_site_aniso_U_13
_atom_site_aniso_U_23
Li1 Li1+ 0.0231(17) 0.023(2) 0.0259(18) 0.0054(14) -0.0031(13) -0.0063(15)
Li2 Li1+ 0.0183(15) 0.0188(17) 0.0162(15) 0.0015(13) 0.0001(12) -0.0010(13)
Li3 Li1+ 0.0228(17) 0.028(2) 0.0278(18) 0.0031(15) 0.0013(14) 0.0084(16)
Li4 Li1+ 0.0159(14) 0.0221(19) 0.0148(14) 0.0009(12) -0.0009(12) 0.0023(13)
Li5 Li1+ 0.0214(17) 0.0229(19) 0.0301(18) -0.0044(14) -0.0009(14) 0.0015(15)
Si1 Si4+ 0.0083(2) 0.0081(2) 0.0089(2) 0.00009(17) 0.00068(16) 0.00006(17)
P1 P3- 0.0106(2) 0.0088(2) 0.0103(2) -0.00074(16) 0.00150(15) 0.00048(16)
P2 P3- 0.00866(19) 0.0111(2) 0.01156(19) 0.00122(17) 0.00018(15) -0.00028(17)
P3 P3- 0.01115(19) 0.0104(2) 0.01047(19) -0.00033(17) -0.00157(15) -0.00081(17)
#End of TTdata_253895-ICSD