
#(C) 2018 by FIZ Karlsruhe - Leibniz Institute for Information Infrastructure.  All rights reserved.
data_253941-ICSD
_database_code_ICSD 253941
_audit_creation_date 2018-02-01
_chemical_name_systematic 'Trilithium dicesium tetradecaoxo-boro-tetraphosphate'
_chemical_formula_structural 'Li3 Cs2 B P4 O14'
_chemical_formula_sum 'B1 Cs2 Li3 O14 P4'
_exptl_crystal_density_diffrn 3.33
_cell_measurement_temperature 293.
_publ_section_title

;
Synthesis and characterization of mixed alkali borophosphate with a new 1D
chain: Li3Cs2BP4O14
;
loop_
_citation_id
_citation_journal_full
_citation_year
_citation_journal_volume
_citation_page_first
_citation_page_last
_citation_journal_id_ASTM
primary 'Inorganica Chimica Acta' 2017 466 174 179 ICHAA3
loop_
_publ_author_name
'Khan, Muhammad Ali'
'Li, Yan-Yan'
'Huang-Fu, Shang-Xiong'
'Chen, Hong'
'Zhang, Li-Jun'
'Liu, Peng-Fei'
'Yu, Ju-Song'
'Duan, Rui-Huan'
'Chen, Ling'
_cell_length_a 10.3413(5)
_cell_length_b 10.3413(5)
_cell_length_c 12.042(2)
_cell_angle_alpha 90.
_cell_angle_beta 90.
_cell_angle_gamma 90.
_cell_volume 1287.8
_cell_formula_units_Z 4
_symmetry_space_group_name_H-M 'P 42/m b c'
_symmetry_Int_Tables_number 135
_refine_ls_R_factor_all 0.0425
loop_
_symmetry_equiv_pos_site_id
_symmetry_equiv_pos_as_xyz
1 '-y+1/2, -x+1/2, z+1/2'
2 '-x+1/2, y+1/2, z'
3 'y, -x, z+1/2'
4 '-x, -y, z'
5 '-y+1/2, -x+1/2, -z+1/2'
6 '-x+1/2, y+1/2, -z'
7 'y, -x, -z+1/2'
8 '-x, -y, -z'
9 'y+1/2, x+1/2, -z+1/2'
10 'x+1/2, -y+1/2, -z'
11 '-y, x, -z+1/2'
12 'x, y, -z'
13 'y+1/2, x+1/2, z+1/2'
14 'x+1/2, -y+1/2, z'
15 '-y, x, z+1/2'
16 'x, y, z'
loop_
_atom_type_symbol
_atom_type_oxidation_number
Li1+ 1
Cs1+ 1
B3+ 3
P5+ 5
O2- -2
loop_
_atom_site_label
_atom_site_type_symbol
_atom_site_symmetry_multiplicity
_atom_site_Wyckoff_symbol
_atom_site_fract_x
_atom_site_fract_y
_atom_site_fract_z
_atom_site_B_iso_or_equiv
_atom_site_occupancy
_atom_site_attached_hydrogens
Li1 Li1+ 8 g 0.2003(14) 0.2997(14) 0.25 0.023(4) 1 0
Li2 Li1+ 4 d 0. 0.5 0.25 0.014(5) 1 0
Cs1 Cs1+ 8 h 0.27709(7) 0.01505(7) 0. 0.0206(3) 1 0
B1 B3+ 4 b 0. 0. 0.25 0.017(3) 1 0
P1 P5+ 16 i 0.22285(18) 0.03141(18) 0.37509(15) 0.0111(5) 1 0
O1 O2- 16 i 0.2144(5) 0.1748(5) 0.3682(4) 0.0160(11) 1 0
O2 O2- 8 h 0.1964(11) -0.0135(8) 0.5 0.030(2) 1 0
O3 O2- 16 i 0.1095(8) -0.0409(6) 0.3181(6) 0.038(2) 1 0
O4 O2- 16 i 0.3464(7) -0.0302(6) 0.3384(7) 0.0393(19) 1 0
loop_
_atom_site_aniso_label
_atom_site_aniso_type_symbol
_atom_site_aniso_U_11
_atom_site_aniso_U_22
_atom_site_aniso_U_33
_atom_site_aniso_U_12
_atom_site_aniso_U_13
_atom_site_aniso_U_23
Li1 Li1+ 0.022(6) 0.022(6) 0.024(10) 0.000(8) 0.000(6) 0.000(6)
Li2 Li1+ 0.016(7) 0.016(7) 0.012(11) -0.011(10) 0. 0.
Cs1 Cs1+ 0.0205(5) 0.0177(5) 0.0236(4) -0.0038(3) 0. 0.
B1 B3+ 0.018(5) 0.018(5) 0.015(7) 0. 0. 0.
P1 P5+ 0.0151(9) 0.0113(9) 0.0070(8) 0.0006(7) 0.0010(6) 0.0002(6)
O1 O2- 0.021(3) 0.012(3) 0.015(2) -0.002(2) 0.000(2) 0.001(2)
O2 O2- 0.064(7) 0.017(4) 0.008(3) -0.011(4) 0. 0.
O3 O2- 0.059(5) 0.015(3) 0.039(4) -0.008(3) -0.039(4) 0.009(3)
O4 O2- 0.034(4) 0.023(3) 0.061(5) 0.007(3) 0.032(4) 0.005(3)
#End of TTdata_253941-ICSD