
#(C) 2018 by FIZ Karlsruhe - Leibniz Institute for Information Infrastructure.  All rights reserved.
data_254307-ICSD
_database_code_ICSD 254307
_audit_creation_date 2018-02-01
_chemical_name_systematic

;
Lithium cobalt(II/III) hydrogenphosphate(V) pentakis(phosphate(V))
pentahydroxide oxide
;
_chemical_formula_structural 'Co11.094 Li0.906 (O H)5 O (P O3 O H) (P O4)5'
_chemical_formula_sum 'H6 Co11.094 Li0.906 O30 P6'
_exptl_crystal_density_diffrn 4.04
_cell_measurement_temperature 298.
_publ_section_title

;
Co11Li[(OH)5O][(PO3OH)(PO4)5], a lithium-stabilized, mixed-valent
cobalt(II,III) hydroxide phosphate framework
;
loop_
_citation_id
_citation_journal_full
_citation_year
_citation_journal_volume
_citation_page_first
_citation_page_last
_citation_journal_id_ASTM
primary 'Inorganic Chemistry' 2017 56 10950 10961 INOCAJ
loop_
_publ_author_name
'Ludwig, Jennifer'
'Gepraegs, Stephan'
'Nordlund, Dennis'
'Doeff, Marca M.'
'Nilges, Tom'
_cell_length_a 11.2533(4)
_cell_length_b 11.2533(4)
_cell_length_c 4.9940(2)
_cell_angle_alpha 90
_cell_angle_beta 90
_cell_angle_gamma 120
_cell_volume 547.69
_cell_formula_units_Z 1
_symmetry_space_group_name_H-M 'P 3 1 m'
_symmetry_Int_Tables_number 157
_refine_ls_R_factor_all 0.0474
loop_
_symmetry_equiv_pos_site_id
_symmetry_equiv_pos_as_xyz
1 'x-y, -y, z'
2 '-x, -x+y, z'
3 'y, x, z'
4 '-x+y, -x, z'
5 '-y, x-y, z'
6 'x, y, z'
loop_
_atom_type_symbol
_atom_type_oxidation_number
Co2+ 2.082
Li1+ 1
Co2+ 2.082
Li1+ 1
P5+ 5
O2- -2
H1+ 1
loop_
_atom_site_label
_atom_site_type_symbol
_atom_site_symmetry_multiplicity
_atom_site_Wyckoff_symbol
_atom_site_fract_x
_atom_site_fract_y
_atom_site_fract_z
_atom_site_B_iso_or_equiv
_atom_site_occupancy
_atom_site_attached_hydrogens
Co1 Co2+ 6 d 0.1444(5) 0.3217(5) 0.6693(16) 0.0109(19) 0.971(8) 0
Li1 Li1+ 6 d 0.1444(5) 0.3217(5) 0.6693(16) 0.0109(19) 0.029(8) 0
Co2 Co2+ 6 d 0.1467(6) 0.4764(7) 0.206(2) 0.017(2) 0.878(8) 0
Li2 Li1+ 6 d 0.1467(6) 0.4764(7) 0.206(2) 0.017(2) 0.122(8) 0
P1 P5+ 3 c 0.6530(15) 0 0.158(4) 0.012(3) 1 0
P2 P5+ 2 b 0.333333 0.666667 0.720(5) 0.015(2) 1 0
P3 P5+ 1 a 0 0 0.454(5) 0.012(3) 1 0
O1 O2- 6 d 0.255(3) 0.517(3) 0.830(5) 0.011(4) 1 0
O2 O2- 6 d 0.238(3) 0.355(4) 0.327(6) 0.013(4) 1 0
O3 O2- 3 c 0.128(2) 0 0.542(6) 0.010(3) 1 0
O4 O2- 3 c 0.272(3) 0 0.016(6) 0.009(3) 1 0
O5 O2- 3 c 0.372(4) 0 0.517(8) 0.014(4) 1 0
O6 O2- 3 c 0.526(3) 0 0.074(5) 0.013(3) 1 0
O7 O2- 3 c 0.741(3) 0 0.932(7) 0.010(3) 1 0
O8 O2- 2 b 0.333333 0.666667 0.393(7) 0.010(4) 1 0
O9 O2- 1 a 0 0 0.126(8) 0.012(3) 1 0
H1 H1+ 3 c 0.195 0 0.104 0.021 0.833 0
H2 H1+ 3 c 0.437 0 0.616 0.022 0.833 0
H3 H1+ 1 a 0 0 0. 0.022 1 0
#End of TTdata_254307-ICSD