
#(C) 2018 by FIZ Karlsruhe - Leibniz Institute for Information Infrastructure.  All rights reserved.
data_254683-ICSD
_database_code_ICSD 254683
_audit_creation_date 2018-02-01
_chemical_name_systematic 'Lithium germanium selenide (3/3/6)'
_chemical_formula_structural 'Li3 Ge3 Se6'
_chemical_formula_sum 'Ge3 Li3 Se6'
_exptl_crystal_density_diffrn 4.26
_cell_measurement_temperature 296.
_publ_section_title

;
Li3Ge3Se6: the first ternary lithium germanium selenide with interesting
inf[Ge6Se12]n chains constructed by ethane-like [Ge2Se6]6- clusters
;
loop_
_citation_id
_citation_journal_full
_citation_year
_citation_journal_volume
_citation_page_first
_citation_page_last
_citation_journal_id_ASTM
primary 'Dalton Transactions' 2017 46 16399 16403 DTARAF
loop_
_publ_author_name
'Li, Guangmao'
'Zhen, Ni'
'Chu, Yu'
'Zhou, Zhongxiang'
_cell_length_a 6.7728(3)
_cell_length_b 8.6804(5)
_cell_length_c 10.6300(5)
_cell_angle_alpha 74.519(4)
_cell_angle_beta 76.334(4)
_cell_angle_gamma 69.185(4)
_cell_volume 555.98
_cell_formula_units_Z 2
_symmetry_space_group_name_H-M 'P -1'
_symmetry_Int_Tables_number 2
_refine_ls_R_factor_all 0.0265
loop_
_symmetry_equiv_pos_site_id
_symmetry_equiv_pos_as_xyz
1 '-x, -y, -z'
2 'x, y, z'
loop_
_atom_type_symbol
_atom_type_oxidation_number
Se2- -2
Ge3+ 3
Se2- -2
Ge3+ 3
Se2- -2
Li1+ 1
loop_
_atom_site_label
_atom_site_type_symbol
_atom_site_symmetry_multiplicity
_atom_site_Wyckoff_symbol
_atom_site_fract_x
_atom_site_fract_y
_atom_site_fract_z
_atom_site_B_iso_or_equiv
_atom_site_occupancy
_atom_site_attached_hydrogens
Se1 Se2- 2 i 0.25734(7) 0.85751(6) 0.40466(4) 0.01599(12) 1 0
Se2 Se2- 2 i 0.77538(8) 0.52995(6) 0.24387(4) 0.01648(12) 1 0
Se3 Se2- 2 i 0.79862(8) 0.78454(6) -0.10436(4) 0.01822(12) 1 0
Ge1 Ge3+ 2 i 0.56771(8) 0.61650(6) 0.44715(4) 0.01379(12) 1 0
Ge2 Ge3+ 2 i 0.55315(8) 0.74147(6) 0.09507(4) 0.01361(12) 1 0
Se4 Se2- 2 i 0.74589(8) 1.01802(6) 0.24942(5) 0.01903(12) 1 0
Ge3 Ge3+ 2 i 0.45759(8) 0.97254(6) 0.20559(4) 0.01357(12) 1 0
Se5 Se2- 2 i 0.76359(8) 0.66601(6) 0.57205(5) 0.01913(12) 1 0
Se6 Se2- 2 i 0.26720(8) 0.66959(6) 0.07830(5) 0.01918(12) 1 0
Li1 Li1+ 1 a 1. 1. 0. 0.034(3) 1 0
Li2 Li1+ 2 i 0.0301(16) 0.6879(13) 0.3226(9) 0.037(2) 1 0
Li3 Li1+ 1 f 0.5 1. 0.5 0.037(3) 1 0
Li4 Li1+ 2 i 0.5123(17) 0.3509(12) 0.1913(9) 0.038(2) 1 0
loop_
_atom_site_aniso_label
_atom_site_aniso_type_symbol
_atom_site_aniso_U_11
_atom_site_aniso_U_22
_atom_site_aniso_U_33
_atom_site_aniso_U_12
_atom_site_aniso_U_13
_atom_site_aniso_U_23
Se1 Se2- 0.0150(3) 0.0155(3) 0.0137(2) -0.00357(19) 0.00060(18) -0.00082(18)
Se2 Se2- 0.0168(3) 0.0151(3) 0.0130(2) -0.00072(19) -0.00146(18) -0.00226(19)
Se3 Se2- 0.0150(3) 0.0174(3) 0.0147(2) -0.00096(19) 0.00115(18) 0.00048(19)
Ge1 Ge3+ 0.0167(3) 0.0124(3) 0.0112(2) -0.0053(2) -0.00168(19) 0.00021(19)
Ge2 Ge3+ 0.0158(3) 0.0125(3) 0.0115(2) -0.0047(2) -0.00090(19) -0.00150(19)
Se4 Se2- 0.0177(3) 0.0200(3) 0.0202(2) -0.0077(2) -0.0038(2) -0.0023(2)
Ge3 Ge3+ 0.0160(3) 0.0120(3) 0.0111(2) -0.0041(2) -0.00106(18) -0.00109(19)
Se5 Se2- 0.0197(3) 0.0213(3) 0.0177(2) -0.0063(2) -0.0047(2) -0.0046(2)
Se6 Se2- 0.0186(3) 0.0211(3) 0.0195(2) -0.0088(2) -0.0030(2) -0.0033(2)
Li1 Li1+ 0.028(8) 0.041(8) 0.021(6) -0.009(6) 0.004(5) 0.001(6)
Li2 Li1+ 0.030(6) 0.046(7) 0.032(5) -0.015(5) 0.002(4) -0.004(5)
Li3 Li1+ 0.046(9) 0.030(8) 0.029(7) -0.004(7) -0.011(6) -0.005(6)
Li4 Li1+ 0.050(7) 0.028(6) 0.032(5) -0.011(5) -0.007(5) -0.002(4)
#End of TTdata_254683-ICSD