
#(C) 2018 by FIZ Karlsruhe - Leibniz Institute for Information Infrastructure.  All rights reserved.
data_257025-ICSD
_database_code_ICSD 257025
_audit_creation_date 2017-08-01
_chemical_name_systematic 'Lithium copper(II) bismuth(V) oxide'
_chemical_formula_structural 'Li Cu Bi O4'
_chemical_formula_sum 'Bi1 Cu1 Li1 O4'
_exptl_crystal_density_diffrn 7.19
_publ_section_title

;
Hydrothermal synthesis and crystal structure of a new lithium copper bismuth
oxide, Li Cu BiO4
;
loop_
_citation_id
_citation_journal_full
_citation_year
_citation_journal_volume
_citation_page_first
_citation_page_last
_citation_journal_id_ASTM
primary 'Journal of Solid State Chemistry' 2017 245 30 33 JSSCBI
loop_
_publ_author_name
'Kumada, Nobuhiro'
'Nakamura, Ayumi'
'Miura, Akira'
'Takei, Takahiro'
'Azuma, Masaki'
'Yamamoto, Hajime'
'Magome, Eisuke'
'Moriyoshi, Chikako'
'Kuroiwa, Yoshihiro'
_cell_length_a 10.9096(9)
_cell_length_b 5.8113(5)
_cell_length_c 5.0073(5)
_cell_angle_alpha 90.
_cell_angle_beta 90.
_cell_angle_gamma 90.
_cell_volume 317.46
_cell_formula_units_Z 4
_symmetry_space_group_name_H-M 'P n m a'
_symmetry_Int_Tables_number 62
_refine_ls_R_factor_all 0.0358
loop_
_symmetry_equiv_pos_site_id
_symmetry_equiv_pos_as_xyz
1 'x+1/2, y, -z+1/2'
2 'x, -y+1/2, z'
3 '-x+1/2, y+1/2, z+1/2'
4 '-x, -y, -z'
5 '-x+1/2, -y, z+1/2'
6 '-x, y+1/2, -z'
7 'x+1/2, -y+1/2, -z+1/2'
8 'x, y, z'
loop_
_atom_type_symbol
_atom_type_oxidation_number
Li1+ 1
Cu2+ 2
Bi5+ 5
O2- -2
loop_
_atom_site_label
_atom_site_type_symbol
_atom_site_symmetry_multiplicity
_atom_site_Wyckoff_symbol
_atom_site_fract_x
_atom_site_fract_y
_atom_site_fract_z
_atom_site_B_iso_or_equiv
_atom_site_occupancy
_atom_site_attached_hydrogens
Li1 Li1+ 4 b 0 0.5 0.5 1. 1. 0
Cu1 Cu2+ 4 a 0.5 0 0.5 1.3(1) 1. 0
Bi1 Bi5+ 4 c 0.7663(1) 0.25 0.5569(3) 0.50(5) 1. 0
O1 O2- 4 c 0.936(2) 0.25 0.772(4) 1. 1. 0
O2 O2- 4 c 0.588(2) 0.25 0.359(4) 1. 1. 0
O3 O2- 8 d 0.177(1) 0.489(3) 0.693(3) 1. 1. 0
#End of TTdata_257025-ICSD