
#(C) 2018 by FIZ Karlsruhe - Leibniz Institute for Information Infrastructure.  All rights reserved.
data_257370-ICSD
_database_code_ICSD 257370
_audit_creation_date 2018-02-01
_chemical_name_systematic 'Lanthanum strontium lithium hydride oxide'
_chemical_formula_structural 'La1.138 Sr0.862 Li H1.864 O2.136'
_chemical_formula_sum 'H1.864 La1.138 Li1 O2.136 Sr0.862'
_exptl_crystal_density_diffrn 5.22
_publ_section_title
'Ambient pressure synthesis and H- conductivity of LaSrLiH2O2'
loop_
_citation_id
_citation_journal_full
_citation_year
_citation_journal_volume
_citation_page_first
_citation_page_last
_citation_journal_id_ASTM
primary 'Electrochemistry (Tokyo, Japan)' 2017 85 88 92 EECTFA
loop_
_publ_author_name
'Watanabe, Akihiro'
'Kobayashi, Genki'
'Matsui, Naoki'
'Yonemura, Masao'
'Kubota, Akiko'
'Suzuki, Kota'
'Hirayama, Masaaki'
'Kanno, Ryoji'
_cell_length_a 3.63913(1)
_cell_length_b 3.63913(1)
_cell_length_c 13.29601(5)
_cell_angle_alpha 90.
_cell_angle_beta 90.
_cell_angle_gamma 90.
_cell_volume 176.08
_cell_formula_units_Z 2
_symmetry_space_group_name_H-M 'I 4/m m m'
_symmetry_Int_Tables_number 139
_refine_ls_R_factor_all 0.0162
loop_
_symmetry_equiv_pos_site_id
_symmetry_equiv_pos_as_xyz
1 'y, x, -z'
2 '-y, -x, -z'
3 '-y, x, -z'
4 'y, -x, -z'
5 '-x, y, -z'
6 'x, -y, -z'
7 'x, y, -z'
8 '-x, -y, -z'
9 '-y, -x, z'
10 'y, x, z'
11 'y, -x, z'
12 '-y, x, z'
13 'x, -y, z'
14 '-x, y, z'
15 '-x, -y, z'
16 'x, y, z'
17 'y+1/2, x+1/2, -z+1/2'
18 '-y+1/2, -x+1/2, -z+1/2'
19 '-y+1/2, x+1/2, -z+1/2'
20 'y+1/2, -x+1/2, -z+1/2'
21 '-x+1/2, y+1/2, -z+1/2'
22 'x+1/2, -y+1/2, -z+1/2'
23 'x+1/2, y+1/2, -z+1/2'
24 '-x+1/2, -y+1/2, -z+1/2'
25 '-y+1/2, -x+1/2, z+1/2'
26 'y+1/2, x+1/2, z+1/2'
27 'y+1/2, -x+1/2, z+1/2'
28 '-y+1/2, x+1/2, z+1/2'
29 'x+1/2, -y+1/2, z+1/2'
30 '-x+1/2, y+1/2, z+1/2'
31 '-x+1/2, -y+1/2, z+1/2'
32 'x+1/2, y+1/2, z+1/2'
loop_
_atom_type_symbol
_atom_type_oxidation_number
La3+ 3
Sr2+ 2
Li1+ 1
H1- -1
O2- -2
loop_
_atom_site_label
_atom_site_type_symbol
_atom_site_symmetry_multiplicity
_atom_site_Wyckoff_symbol
_atom_site_fract_x
_atom_site_fract_y
_atom_site_fract_z
_atom_site_B_iso_or_equiv
_atom_site_occupancy
_atom_site_attached_hydrogens
La1 La3+ 4 e 0 0 0.35605(2) 0.362(4) 0.569(9) 0
Sr1 Sr2+ 4 e 0 0 0.35605(2) 0.362(4) 0.431(9) 0
Li1 Li1+ 2 a 0 0 0 1 1. 0
H1 H1- 4 c 0 0.5 0 1.5 0.932(3) 0
O1 O2- 4 c 0 0.5 0 1.5 0.068(3) 0
O2 O2- 4 e 0 0 0.17177(13) 0.71(4) 1. 0
#End of TTdata_257370-ICSD