
#(C) 2018 by FIZ Karlsruhe - Leibniz Institute for Information Infrastructure.  All rights reserved.
data_257863-ICSD
_database_code_ICSD 257863
_audit_creation_date 2018-02-01
_chemical_name_systematic 'Lithium vanadate'
_chemical_formula_structural 'Li3 V O4'
_chemical_formula_sum 'Li3 O4 V1'
_chemical_name_structure_type Enargite-Cu3AsS4
_exptl_crystal_density_diffrn 2.65
_publ_section_title

;
Li3VO4: a promising mid-infrared nonlinear optical material with large laser
damage threshold
;
loop_
_citation_id
_citation_journal_full
_citation_year
_citation_journal_volume
_citation_page_first
_citation_page_last
_citation_journal_id_ASTM
primary 'Crystal Growth & Design' 2017 17 2792 2800 CGDEFU
loop_
_publ_author_name
'Chen, Zhaohui'
'Zhang, Zhizhong'
'Dong, Xiaoyu'
'Shi, Yunjing'
'Liu, Yaqin'
'Jing, Qun'
_cell_length_a 6.3253(16)
_cell_length_b 5.4447(14)
_cell_length_c 4.9382(12)
_cell_angle_alpha 90.
_cell_angle_beta 90.
_cell_angle_gamma 90.
_cell_volume 170.07
_cell_formula_units_Z 2
_symmetry_space_group_name_H-M 'P m n 21'
_symmetry_Int_Tables_number 31
_refine_ls_R_factor_all 0.0134
loop_
_symmetry_equiv_pos_site_id
_symmetry_equiv_pos_as_xyz
1 'x+1/2, -y, z+1/2'
2 '-x+1/2, -y, z+1/2'
3 '-x, y, z'
4 'x, y, z'
loop_
_atom_type_symbol
_atom_type_oxidation_number
Li1+ 1
V5+ 5
O2- -2
loop_
_atom_site_label
_atom_site_type_symbol
_atom_site_symmetry_multiplicity
_atom_site_Wyckoff_symbol
_atom_site_fract_x
_atom_site_fract_y
_atom_site_fract_z
_atom_site_B_iso_or_equiv
_atom_site_occupancy
_atom_site_attached_hydrogens
Li1 Li1+ 4 b 0.7472(5) 0.1683(4) 1.1280(40) 0.014(1) 1. 0
Li2 Li1+ 2 a 1 0.6675(6) 1.1350(40) 0.013(2) 1. 0
V1 V5+ 2 a 1 0.3296(1) 0.6173(2) 0.007(1) 1. 0
O1 O2- 2 a 1 0.3264(3) 0.2730(3) 0.010(1) 1. 0
O2 O2- 4 b 0.7766(2) 0.1806(2) 0.7273(3) 0.011(1) 1. 0
O3 O2- 2 a 1 0.6283(3) 0.7257(4) 0.011(1) 1. 0
#End of TTdata_257863-ICSD