
#(C) 2018 by FIZ Karlsruhe - Leibniz Institute for Information Infrastructure.  All rights reserved.
data_258955-ICSD
_database_code_ICSD 258955
_audit_creation_date 2018-02-01
_chemical_name_systematic 'Lithium gallium indium selenide (1/0.5/0.5/2)'
_chemical_formula_structural 'Li Ga0.5 In0.5 Se2'
_chemical_formula_sum 'Ga0.5 In0.5 Li1 Se2'
_exptl_crystal_density_diffrn 4.35
_publ_section_title

;
Properties of LiGa0.5In0.5Se 2: a quaternary chalcogenide crystal for
nonlinear optical applications in the Mid-IR
;
loop_
_citation_id
_citation_journal_full
_citation_year
_citation_journal_volume
_citation_page_first
_citation_page_last
_citation_journal_id_ASTM
primary Crystals 2016 6 85-1 85-10 CRYSBC
loop_
_publ_author_name
'Isaenko, Ludmila'
'Yelisseyev, Alexander'
'Lobanov, Sergei'
'Vedenyapin, Vitaliy'
'Krinitsyn, Pavel'
'Petrov, Valentin'
_cell_length_a 7.0376(2)
_cell_length_b 8.3401(3)
_cell_length_c 6.6855(2)
_cell_angle_alpha 90.
_cell_angle_beta 90.
_cell_angle_gamma 90.
_cell_volume 392.4
_cell_formula_units_Z 4
_symmetry_space_group_name_H-M 'P n a 21'
_symmetry_Int_Tables_number 33
_refine_ls_R_factor_all 0.0183
loop_
_symmetry_equiv_pos_site_id
_symmetry_equiv_pos_as_xyz
1 'x+1/2, -y+1/2, z'
2 '-x+1/2, y+1/2, z+1/2'
3 '-x, -y, z+1/2'
4 'x, y, z'
loop_
_atom_type_symbol
_atom_type_oxidation_number
In3+ 3
Ga3+ 3
Se2- -2
Li1+ 1
loop_
_atom_site_label
_atom_site_type_symbol
_atom_site_symmetry_multiplicity
_atom_site_Wyckoff_symbol
_atom_site_fract_x
_atom_site_fract_y
_atom_site_fract_z
_atom_site_B_iso_or_equiv
_atom_site_occupancy
_atom_site_attached_hydrogens
In1 In3+ 4 a 0.57623(3) 0.62606(2) 0.38637(16) 0.0157(1) 0.52(1) 0
Ga1 Ga3+ 4 a 0.57623(3) 0.62606(2) 0.38637(16) 0.0157(1) 0.48(1) 0
Se1 Se2- 4 a 0.41137(5) 0.87170(4) 0.50826(6) 0.0207(2) 1. 0
Se2 Se2- 4 a 0.57352(4) 0.62421(4) 0.01222(8) 0.0204(2) 1. 0
Li1 Li1+ 4 a 0.5841(10) 0.1209(7) 0.378(4) 0.024(3) 0.90(5) 0
Li2 Li1+ 4 a 0.257(10) 0.114(6) 0.142(11) 0.03(3) 0.10(5) 0
#End of TTdata_258955-ICSD