
#(C) 2018 by FIZ Karlsruhe - Leibniz Institute for Information Infrastructure.  All rights reserved.
data_260001-ICSD
_database_code_ICSD 260001
_audit_creation_date 2009-02-01
_audit_update_record 2011-02-01
_chemical_name_systematic 'Lithium dysprosium tetrakis(phosphate(V))'
_chemical_formula_structural 'Li Dy (P O3)4'
_chemical_formula_sum 'Dy1 Li1 O12 P4'
_chemical_name_structure_type LiYb(PO3)4
_exptl_crystal_density_diffrn 3.65
_cell_measurement_temperature 295.
_publ_section_title 'Li Dy (P O3)4'
loop_
_citation_id
_citation_journal_full
_citation_year
_citation_journal_volume
_citation_page_first
_citation_page_last
_citation_journal_id_ASTM
primary 'Acta Crystallographica, Section E: Structure Reports Online' 2008 64
i45 i45 ACSEBH
loop_
_publ_author_name
'Chehimi-Moumen, F.'
'Ferid, M.'
_cell_length_a 16.2690(10)
_cell_length_b 7.0236(3)
_cell_length_c 9.5781(8)
_cell_angle_alpha 90.
_cell_angle_beta 126.106(3)
_cell_angle_gamma 90.
_cell_volume 884.25
_cell_formula_units_Z 4
_symmetry_space_group_name_H-M 'C 1 2/c 1'
_symmetry_Int_Tables_number 15
_refine_ls_R_factor_all 0.0384
loop_
_symmetry_equiv_pos_site_id
_symmetry_equiv_pos_as_xyz
1 'x, -y, z+1/2'
2 '-x, -y, -z'
3 '-x, y, -z+1/2'
4 'x, y, z'
5 'x+1/2, -y+1/2, z+1/2'
6 '-x+1/2, -y+1/2, -z'
7 '-x+1/2, y+1/2, -z+1/2'
8 'x+1/2, y+1/2, z'
loop_
_atom_type_symbol
_atom_type_oxidation_number
Dy3+ 3
P5+ 5
O2- -2
Li1+ 1
loop_
_atom_site_label
_atom_site_type_symbol
_atom_site_symmetry_multiplicity
_atom_site_Wyckoff_symbol
_atom_site_fract_x
_atom_site_fract_y
_atom_site_fract_z
_atom_site_B_iso_or_equiv
_atom_site_occupancy
_atom_site_attached_hydrogens
Dy1 Dy3+ 4 e 0.5 0.79714(6) 0.75 0.01295(18) 1 0
P1 P5+ 8 f 0.36225(14) 0.5523(2) 0.8849(2) 0.0108(4) 1 0
P2 P5+ 8 f 0.35333(14) 0.1513(3) 0.8039(2) 0.0124(4) 1 0
O1 O2- 8 f 0.3870(4) 0.7158(6) 0.8178(7) 0.0148(11) 1 0
O2 O2- 8 f 0.4353(4) 0.5025(7) 1.0727(6) 0.0142(10) 1 0
O3 O2- 8 f 0.2555(4) 0.5780(7) 0.8535(7) 0.0141(11) 1 0
O4 O2- 8 f 0.3421(4) 0.3778(7) 0.7655(6) 0.0169(11) 1 0
O5 O2- 8 f 0.4287(4) 0.0852(7) 0.7730(7) 0.0147(10) 1 0
O6 O2- 8 f 0.3726(4) 0.1159(6) 0.9727(6) 0.0180(12) 1 0
Li1 Li1+ 4 e 0.5 0.292(2) 0.75 0.012(3) 1 0
loop_
_atom_site_aniso_label
_atom_site_aniso_type_symbol
_atom_site_aniso_U_11
_atom_site_aniso_U_22
_atom_site_aniso_U_33
_atom_site_aniso_U_12
_atom_site_aniso_U_13
_atom_site_aniso_U_23
Dy1 Dy3+ 0.0130(3) 0.0101(3) 0.0150(3) 0. 0.0078(2) 0.
P1 P5+ 0.0103(9) 0.0098(9) 0.0115(9) 0.0003(6) 0.0059(8) -0.0008(6)
P2 P5+ 0.0106(10) 0.0115(9) 0.0123(9) -0.0008(7) 0.0053(8) -0.0007(7)
O1 O2- 0.016(3) 0.013(3) 0.014(3) -0.002(2) 0.008(2) 0.0012(19)
O2 O2- 0.008(3) 0.014(2) 0.016(3) -0.0022(19) 0.004(2) 0.001(2)
O3 O2- 0.007(3) 0.017(3) 0.018(3) 0.0056(19) 0.007(2) 0.006(2)
O4 O2- 0.023(3) 0.012(3) 0.012(2) 0.004(2) 0.008(2) 0.0057(19)
O5 O2- 0.015(3) 0.016(2) 0.020(3) 0.0014(19) 0.014(2) -0.0011(19)
O6 O2- 0.027(3) 0.008(2) 0.019(3) -0.003(2) 0.013(3) -0.0008(19)
Li1 Li1+ 0.015(9) 0.004(8) 0.023(9) 0. 0.015(8) 0.
#End of TTdata_260001-ICSD