
#(C) 2018 by FIZ Karlsruhe - Leibniz Institute for Information Infrastructure.  All rights reserved.
data_260156-ICSD
_database_code_ICSD 260156
_audit_creation_date 2009-08-01
_audit_update_record 2011-02-01
_chemical_name_systematic 'Lithium holmium(III) tetrakis(phosphate(V))'
_chemical_formula_structural 'Li Ho (P O3)4'
_chemical_formula_sum 'Ho1 Li1 O12 P4'
_chemical_name_structure_type LiYb(PO3)4
_exptl_crystal_density_diffrn 3.65
_cell_measurement_temperature 293.
_publ_section_title 'Li Ho (P O3)4'
loop_
_citation_id
_citation_journal_full
_citation_year
_citation_journal_volume
_citation_page_first
_citation_page_last
_citation_journal_id_ASTM
primary 'Acta Crystallographica, Section E: Structure Reports Online' 2009 65
i10 i10 ACSEBH
loop_
_publ_author_name
'Ben Zarkouna, E.'
'Driss, A.'
'Ferid, M.'
_cell_length_a 16.280(3)
_cell_length_b 7.039(2)
_cell_length_c 9.561(2)
_cell_angle_alpha 90.
_cell_angle_beta 125.99(2)
_cell_angle_gamma 90.
_cell_volume 886.51
_cell_formula_units_Z 4
_symmetry_space_group_name_H-M 'C 1 2/c 1'
_symmetry_Int_Tables_number 15
_refine_ls_R_factor_all 0.0252
loop_
_symmetry_equiv_pos_site_id
_symmetry_equiv_pos_as_xyz
1 'x, -y, z+1/2'
2 '-x, -y, -z'
3 '-x, y, -z+1/2'
4 'x, y, z'
5 'x+1/2, -y+1/2, z+1/2'
6 '-x+1/2, -y+1/2, -z'
7 '-x+1/2, y+1/2, -z+1/2'
8 'x+1/2, y+1/2, z'
loop_
_atom_type_symbol
_atom_type_oxidation_number
Li1+ 1
Ho3+ 3
P5+ 5
O2- -2
loop_
_atom_site_label
_atom_site_type_symbol
_atom_site_symmetry_multiplicity
_atom_site_Wyckoff_symbol
_atom_site_fract_x
_atom_site_fract_y
_atom_site_fract_z
_atom_site_B_iso_or_equiv
_atom_site_occupancy
_atom_site_attached_hydrogens
Li1 Li1+ 4 e 0. 0.708(2) 0.25 0.015(3) 1 0
Ho1 Ho3+ 4 e 0. 0.20312(4) 0.25 0.00730(10) 1 0
P1 P5+ 8 f 0.13774(8) 0.5517(2) 0.61570(10) 0.0067(2) 1 0
P2 P5+ 8 f 0.14654(8) 0.1504(2) 0.69610(10) 0.0068(2) 1 0
O1 O2- 8 f 0.1137(3) 0.7154(5) 0.6843(5) 0.0118(7) 1 0
O2 O2- 8 f 0.0711(3) 0.0845(5) 0.7255(5) 0.0116(6) 1 0
O3 O2- 8 f 0.1280(3) 0.1150(5) 0.5262(4) 0.0121(7) 1 0
O4 O2- 8 f 0.1568(3) 0.3740(5) 0.7337(4) 0.0107(6) 1 0
O5 O2- 8 f 0.2552(2) 0.0776(5) 0.8526(4) 0.0105(6) 1 0
O6 O2- 8 f 0.0652(2) 0.5022(5) 0.4280(4) 0.0104(6) 1 0
loop_
_atom_site_aniso_label
_atom_site_aniso_type_symbol
_atom_site_aniso_U_11
_atom_site_aniso_U_22
_atom_site_aniso_U_33
_atom_site_aniso_U_12
_atom_site_aniso_U_13
_atom_site_aniso_U_23
Li1 Li1+ 0.018(6) 0.011(6) 0.020(7) 0. 0.012(6) 0.
Ho1 Ho3+ 0.0063(2) 0.0076(2) 0.0071(2) 0. 0.00340(10) 0.
P1 P5+ 0.0052(5) 0.0069(5) 0.0072(5) -0.0002(4) 0.0031(4) -0.0001(4)
P2 P5+ 0.0051(5) 0.0072(5) 0.0073(5) -0.0001(4) 0.0032(4) 0.0009(4)
O1 O2- 0.012(2) 0.009(2) 0.016(2) 0.0010(10) 0.0090(10) -0.0020(10)
O2 O2- 0.0080(10) 0.012(2) 0.016(2) 0.0010(10) 0.0080(10) 0.0020(10)
O3 O2- 0.012(2) 0.014(2) 0.0080(10) 0.0020(10) 0.0040(10) 0.0000(10)
O4 O2- 0.015(2) 0.0070(10) 0.0090(10) 0.0010(10) 0.0070(10) 0.0020(10)
O5 O2- 0.0050(10) 0.016(2) 0.0100(10) 0.0020(10) 0.0050(10) 0.0020(10)
O6 O2- 0.0070(10) 0.014(2) 0.0060(10) -0.0010(10) 0.0010(10) 0.0000(10)
#End of TTdata_260156-ICSD