
#(C) 2018 by FIZ Karlsruhe - Leibniz Institute for Information Infrastructure.  All rights reserved.
data_260277-ICSD
_database_code_ICSD 260277
_audit_creation_date 2009-08-01
_chemical_name_systematic 'Dilithium titanium hexaiodate'
_chemical_formula_structural 'Li2 Ti (I O3)6'
_chemical_formula_sum 'I6 Li2 O18 Ti1'
_exptl_crystal_density_diffrn 4.73
_publ_section_title

;
Alignment of lone pairs in a new polar material: Synthesis, characterization,
and functional properties of Li2 Ti (I O3)6
;
loop_
_citation_id
_citation_journal_full
_citation_year
_citation_journal_volume
_citation_page_first
_citation_page_last
_citation_journal_id_ASTM
primary 'Journal of the American Chemical Society' 2009 131 2426 2427 JACSAT
loop_
_publ_author_name
'Chang Hong Young'
'Kim Sang-Hwan'
'Halasyamani, P.S.'
'Ok Kang Min'
_cell_length_a 9.3834(11)
_cell_length_b 9.3834(11)
_cell_length_c 5.1183(6)
_cell_angle_alpha 90.
_cell_angle_beta 90.
_cell_angle_gamma 120.
_cell_volume 390.28
_cell_formula_units_Z 1
_symmetry_space_group_name_H-M 'P 63'
_symmetry_Int_Tables_number 173
_refine_ls_R_factor_all 0.0301
loop_
_symmetry_equiv_pos_site_id
_symmetry_equiv_pos_as_xyz
1 'x-y, x, z+1/2'
2 'y, -x+y, z+1/2'
3 '-x, -y, z+1/2'
4 '-x+y, -x, z'
5 '-y, x-y, z'
6 'x, y, z'
loop_
_atom_type_symbol
_atom_type_oxidation_number
Li1+ 1
Ti4+ 4
I5+ 5
O2- -2
loop_
_atom_site_label
_atom_site_type_symbol
_atom_site_symmetry_multiplicity
_atom_site_Wyckoff_symbol
_atom_site_fract_x
_atom_site_fract_y
_atom_site_fract_z
_atom_site_B_iso_or_equiv
_atom_site_occupancy
_atom_site_attached_hydrogens
Li1 Li1+ 2 b 0.3333 0.6667 0.777(4) 0.017(8) 1. 0
Ti1 Ti4+ 2 a 0 0 0.8376(10) 0.014(1) 0.5 0
I1 I5+ 6 c 0.6785(1) 0.6485(1) 0.7113(2) 0.017(1) 1. 0
O1 O2- 6 c 0.8109(7) 0.8623(7) 0.5839(11) 0.027(2) 1. 0
O2 O2- 6 c 0.5508(7) 0.7944(7) 0.0007(11) 0.020(1) 1. 0
O3 O2- 6 c 0.4957(7) 0.6090(8) 0.5374(10) 0.020(1) 1. 0
#End of TTdata_260277-ICSD