
#(C) 2018 by FIZ Karlsruhe - Leibniz Institute for Information Infrastructure.  All rights reserved.
data_260280-ICSD
_database_code_ICSD 260280
_audit_creation_date 2009-08-01
_chemical_name_systematic 'Dilithium(I) trizinc(II) bis(diphosphate)'
_chemical_formula_structural 'Li2 Zn3 (P2 O7)2'
_chemical_formula_sum 'Li2 O14 P4 Zn3'
_exptl_crystal_density_diffrn 3.37
_cell_measurement_temperature 298.
_publ_section_title 'Lithium zincopyrophosphate, Li2 Zn3 (P2 O7)2'
loop_
_citation_id
_citation_journal_full
_citation_year
_citation_journal_volume
_citation_page_first
_citation_page_last
_citation_journal_id_ASTM
primary 'Acta Crystallographica, Section C: Crystal Structure Communications'
2009 65 i30 i32 ACSCEE
loop_
_publ_author_name
'Ji Lina'
'Ma Hong Wei'
'Liang Jing Kui'
_cell_length_a 5.1733(3)
_cell_length_b 13.1797(7)
_cell_length_c 16.1108(9)
_cell_angle_alpha 90.
_cell_angle_beta 90.
_cell_angle_gamma 90.
_cell_volume 1098.48
_cell_formula_units_Z 4
_symmetry_space_group_name_H-M 'P b c m'
_symmetry_Int_Tables_number 57
_refine_ls_R_factor_all 0.0226
loop_
_symmetry_equiv_pos_site_id
_symmetry_equiv_pos_as_xyz
1 'x, -y+1/2, z+1/2'
2 '-x, y+1/2, z'
3 'x, y, -z+1/2'
4 '-x, -y, -z'
5 '-x, y+1/2, -z+1/2'
6 'x, -y+1/2, -z'
7 '-x, -y, z+1/2'
8 'x, y, z'
loop_
_atom_type_symbol
_atom_type_oxidation_number
Zn2+ 2
Li1+ 1
P5+ 5
O2- -2
loop_
_atom_site_label
_atom_site_type_symbol
_atom_site_symmetry_multiplicity
_atom_site_Wyckoff_symbol
_atom_site_fract_x
_atom_site_fract_y
_atom_site_fract_z
_atom_site_B_iso_or_equiv
_atom_site_occupancy
_atom_site_attached_hydrogens
Zn1 Zn2+ 8 e 0.40045(4) 0.551978(13) 0.583844(10) 0.01173(6) 1 0
Zn2 Zn2+ 8 e 1.15622(15) 0.75848(5) 0.83867(4) 0.01006(11) 0.5 0
Li1 Li1+ 8 e 1.203(3) 0.7504(11) 0.8568(8) 0.031(3) 0.5 0
Li2 Li1+ 8 e 0.0908(13) 0.3797(7) 0.6966(5) 0.0330(17) 0.5 0
P1 P5+ 8 e 0.08948(7) 0.35767(3) 0.50417(2) 0.00889(8) 1 0
P2 P5+ 4 d 0.57046(10) 0.44940(4) 0.75 0.00920(10) 1 0
P3 P5+ 4 d 0.65256(10) 0.66147(4) 0.75 0.00891(10) 1 0
O1 O2- 8 e 0.3060(2) 0.43500(8) 0.49561(7) 0.0125(2) 1 0
O2 O2- 8 e -0.0927(2) 0.36027(9) 0.42966(7) 0.0145(2) 1 0
O3 O2- 4 c 0.2349(3) 0.25 0.5 0.0113(3) 1 0
O4 O2- 8 e -0.0492(3) 0.36465(9) 0.58531(6) 0.0160(2) 1 0
O5 O2- 8 e 0.4050(2) 0.45300(9) 0.67297(8) 0.0174(2) 1 0
O6 O2- 4 d 0.7589(3) 0.54661(11) 0.75 0.0123(3) 1 0
O7 O2- 8 e 0.4941(2) 0.67266(8) 0.67131(7) 0.0157(2) 1 0
O8 O2- 4 d 0.8905(3) 0.72789(13) 0.75 0.0148(3) 1 0
O9 O2- 4 d 1.2491(3) 0.85975(11) 0.75 0.0140(3) 1 0
loop_
_atom_site_aniso_label
_atom_site_aniso_type_symbol
_atom_site_aniso_U_11
_atom_site_aniso_U_22
_atom_site_aniso_U_33
_atom_site_aniso_U_12
_atom_site_aniso_U_13
_atom_site_aniso_U_23
Zn1 Zn2+ 0.01255(10) 0.01216(10) 0.01048(10) 0.00154(6) 0.00004(5) 0.00059(5)
Zn2 Zn2+ 0.0114(2) 0.0098(2) 0.0090(3) 0.00094(17) 0.00055(15) 0.00057(17)
Li1 Li1+ 0.044(8) 0.025(4) 0.023(6) 0.023(4) 0.018(5) 0.015(4)
Li2 Li1+ 0.018(3) 0.055(5) 0.026(3) -0.014(3) -0.001(2) 0.008(3)
P1 P5+ 0.00906(16) 0.00845(15) 0.00916(15) -0.00097(11) 0.00008(10) 0.00010(11)
P2 P5+ 0.0093(2) 0.0083(2) 0.0101(2) 0.00085(16) 0. 0.
P3 P5+ 0.0089(2) 0.0089(2) 0.0089(2) -0.00076(16) 0. 0.
O1 O2- 0.0130(5) 0.0115(4) 0.0129(5) -0.0045(4) 0.0019(4) -0.0017(3)
O2 O2- 0.0141(5) 0.0135(5) 0.0159(5) 0.0031(4) -0.0062(4) -0.0019(4)
O3 O2- 0.0093(6) 0.0091(6) 0.0155(7) 0. 0. 0.0006(5)
O4 O2- 0.0197(5) 0.0137(5) 0.0147(5) -0.0004(4) 0.0072(4) -0.0001(3)
O5 O2- 0.0198(6) 0.0157(5) 0.0168(5) -0.0045(4) -0.0077(4) 0.0047(4)
O6 O2- 0.0085(6) 0.0100(6) 0.0182(7) -0.0003(5) 0. 0.
O7 O2- 0.0195(5) 0.0139(5) 0.0138(5) 0.0007(4) -0.0070(4) 0.0000(4)
O8 O2- 0.0136(7) 0.0153(7) 0.0156(7) -0.0058(5) 0. 0.
O9 O2- 0.0137(7) 0.0108(6) 0.0175(7) -0.0033(5) 0. 0.
#End of TTdata_260280-ICSD