
#(C) 2017 by FIZ Karlsruhe - Leibniz Institute for Information Infrastructure.  All rights reserved.
data_26047-ICSD
_database_code_ICSD 26047
_audit_creation_date 1980-01-01
_chemical_name_systematic 'Lithium tetrachlorozincate dihydrate'
_chemical_formula_structural 'Li2 Zn Cl4 (H2 O)2'
_chemical_formula_sum 'H4 Cl4 Li2 O2 Zn1'
_chemical_name_structure_type Li2ZnCl4(H2O)2
_exptl_crystal_density_diffrn 2.16
_publ_section_title 'Die Kristallstruktur des Li2 Zn Cl4 (H2 O)2'
loop_
_citation_id
_citation_journal_full
_citation_year
_citation_journal_volume
_citation_page_first
_citation_page_last
_citation_journal_id_ASTM
primary

;
Zeitschrift fuer Kristallographie, Kristallgeometrie, Kristallphysik,
Kristallchemie (-144,1977)
; 1969 128 390 405 ZEKGAX
loop_
_publ_author_name
'Jacobi, H.'
'Brehler, B.'
_cell_length_a 10.24
_cell_length_b 11.98
_cell_length_c 6.44
_cell_angle_alpha 90.
_cell_angle_beta 90.
_cell_angle_gamma 90.
_cell_volume 790.03
_cell_formula_units_Z 4
_symmetry_space_group_name_H-M 'P 21 21 21'
_symmetry_Int_Tables_number 19
_refine_ls_R_factor_all 0.049
loop_
_symmetry_equiv_pos_site_id
_symmetry_equiv_pos_as_xyz
1 '-x, y+1/2, -z+1/2'
2 'x+1/2, -y+1/2, -z'
3 '-x+1/2, -y, z+1/2'
4 'x, y, z'
loop_
_atom_type_symbol
_atom_type_oxidation_number
Zn2+ 2
Cl1- -1
O2- -2
Li1+ 1
H1+ 1
loop_
_atom_site_label
_atom_site_type_symbol
_atom_site_symmetry_multiplicity
_atom_site_Wyckoff_symbol
_atom_site_fract_x
_atom_site_fract_y
_atom_site_fract_z
_atom_site_B_iso_or_equiv
_atom_site_occupancy
_atom_site_attached_hydrogens
Zn1 Zn2+ 4 a 0.0385(1) 0.0477(1) 0.2223(1) . 1. 0
Cl1 Cl1- 4 a 0.0301(2) 0.0818(2) 0.5704(3) . 1. 0
Cl2 Cl1- 4 a 0.2058(2) 0.1472(2) 0.0918(3) . 1. 0
Cl3 Cl1- 4 a 0.4315(2) 0.1405(2) 0.6684(3) . 1. 0
Cl4 Cl1- 4 a 0.3457(2) 0.4090(2) 0.9369(3) . 1. 0
O1 O2- 4 a 0.0225(5) 0.3176(5) 0.8309(6) . 1. 0
O2 O2- 4 a 0.2258(5) 0.3247(5) 0.4772(9) . 1. 0
Li1 Li1+ 4 a 0.377(2) 0.268(2) 0.312(4) 5. 1. 0
Li2 Li1+ 4 a 0.200(2) 0.247(2) 0.748(3) 4. 1. 0
loop_
_atom_site_aniso_label
_atom_site_aniso_type_symbol
_atom_site_aniso_beta_11
_atom_site_aniso_beta_22
_atom_site_aniso_beta_33
_atom_site_aniso_beta_12
_atom_site_aniso_beta_13
_atom_site_aniso_beta_23
Zn1 Zn2+ 0.0039(1) 0.0024(1) 0.0129(20) 0.0004(1) 0.0004(1) 0.0003(1)
Cl1 Cl1- 0.0073(2) 0.0032(1) 0.0113(20) 0.0006(2) 0.0010(3) -.0007(2)
Cl2 Cl1- 0.0044(2) 0.0044(2) 0.014(2) -.0013(2) 0.0005(3) 0.0008(3)
Cl3 Cl1- 0.0047(2) 0.0025(1) 0.0157(21) 0.0004(1) 0.0016(2) 0.0007(2)
Cl4 Cl1- 0.0044(2) 0.0034(2) 0.017(2) -.0003(1) 0.0012(3) -.0002(2)
O1 O2- 0.0037(5) 0.0046(5) 0.0150(26) -.0003(5) 0.0004(8) -.0012(6)
O2 O2- 0.0037(6) 0.0042(5) 0.0167(25) 0.0007(4) -.0011(8) -.0008(7)
#End of TTdata_26047-ICSD