
#(C) 2018 by FIZ Karlsruhe - Leibniz Institute for Information Infrastructure.  All rights reserved.
data_260609-ICSD
_database_code_ICSD 260609
_audit_creation_date 2010-02-01
_chemical_name_systematic 'Lithium chloride magnesium dichloride heptahydrate'
_chemical_formula_structural '(Li Cl) (Mg Cl2) (H2 O)7'
_chemical_formula_sum 'H14 Cl3 Li1 Mg1 O7'
_exptl_crystal_density_diffrn 1.48
_cell_measurement_temperature 293.
_publ_section_title 'Lithium carnallite, Li Cl * Mg Cl2 * 7H2 O'
loop_
_citation_id
_citation_journal_full
_citation_year
_citation_journal_volume
_citation_page_first
_citation_page_last
_citation_journal_id_ASTM
primary 'Acta Crystallographica, Section C: Crystal Structure Communications'
2009 65 i57 i59 ACSCEE
loop_
_publ_author_name
'Schmidt, H.'
'Euler, B.'
'Voigt, W.'
'Heide, G.'
_cell_length_a 9.2322(3)
_cell_length_b 9.2322(3)
_cell_length_c 12.0541(5)
_cell_angle_alpha 90.
_cell_angle_beta 90.
_cell_angle_gamma 120.
_cell_volume 889.77
_cell_formula_units_Z 3
_symmetry_space_group_name_H-M 'R 3 H'
_symmetry_Int_Tables_number 146
_refine_ls_R_factor_all 0.0156
loop_
_symmetry_equiv_pos_site_id
_symmetry_equiv_pos_as_xyz
1 '-x+y, -x, z'
2 '-y, x-y, z'
3 'x, y, z'
4 '-x+y+2/3, -x+1/3, z+1/3'
5 '-y+2/3, x-y+1/3, z+1/3'
6 'x+2/3, y+1/3, z+1/3'
7 '-x+y+1/3, -x+2/3, z+2/3'
8 '-y+1/3, x-y+2/3, z+2/3'
9 'x+1/3, y+2/3, z+2/3'
loop_
_atom_type_symbol
_atom_type_oxidation_number
Cl1- -1
Li1+ 1
Mg2+ 2
O2- -2
H1+ 1
loop_
_atom_site_label
_atom_site_type_symbol
_atom_site_symmetry_multiplicity
_atom_site_Wyckoff_symbol
_atom_site_fract_x
_atom_site_fract_y
_atom_site_fract_z
_atom_site_B_iso_or_equiv
_atom_site_occupancy
_atom_site_attached_hydrogens
Cl1 Cl1- 9 b 0.28090(3) 0.14521(3) 0.50017(2) 0.02998(7) 1 0
Li1 Li1+ 3 a 0. 0. 0.4348(2) 0.0320(6) 1 0
Mg1 Mg2+ 3 a 0.3333 0.6667 0.51437(4) 0.02086(11) 1 0
O1 O2- 9 b 0.33936(12) 0.48624(11) 0.61057(6) 0.03604(17) 1 0
O2 O2- 9 b 0.51991(10) 0.67841(12) 0.41485(6) 0.03345(16) 1 0
O3 O2- 3 a 0. 0. 0.27800(13) 0.0559(4) 1 0
H1 H1+ 9 b 0.387(3) 0.493(3) 0.664(2) 0.061(6) 1 0
H2 H1+ 9 b 0.309(3) 0.395(3) 0.5826(16) 0.049(4) 1 0
H3 H1+ 9 b 0.597(2) 0.679(2) 0.4376(16) 0.046(4) 1 0
H4 H1+ 9 b 0.543(2) 0.712(2) 0.3523(16) 0.046(4) 1 0
H5 H1+ 9 b 0.052(7) 0.086(5) 0.234(3) 0.103(15) 0.67 0
loop_
_atom_site_aniso_label
_atom_site_aniso_type_symbol
_atom_site_aniso_U_11
_atom_site_aniso_U_22
_atom_site_aniso_U_33
_atom_site_aniso_U_12
_atom_site_aniso_U_13
_atom_site_aniso_U_23
Cl1 Cl1- 0.03165(11) 0.02948(11) 0.02796(10) 0.01464(10) 0.00257(8) 0.00054(7)
Li1 Li1+ 0.0339(9) 0.0339(9) 0.0281(12) 0.0170(4) 0. 0.
Mg1 Mg2+ 0.02171(16) 0.02171(16) 0.01916(19) 0.01085(8) 0. 0.
O1 O2- 0.0527(5) 0.0289(4) 0.0296(4) 0.0227(3) -0.0118(3) -0.0005(3)
O2 O2- 0.0304(3) 0.0503(5) 0.0259(3) 0.0248(3) 0.0044(3) 0.0025(3)
O3 O2- 0.0684(7) 0.0684(7) 0.0307(7) 0.0342(4) 0. 0.
#End of TTdata_260609-ICSD