
#(C) 2018 by FIZ Karlsruhe - Leibniz Institute for Information Infrastructure.  All rights reserved.
data_260791-ICSD
_database_code_ICSD 260791
_audit_creation_date 2010-08-01
_chemical_name_systematic
'Hexaneodymium lithium tris(trioxoborate) tetraoxide difluoride'
_chemical_formula_structural 'Nd6 Li (B O3)3 O4 F2'
_chemical_formula_sum 'B3 F2 Li1 Nd6 O13'
_exptl_crystal_density_diffrn 5.87
_publ_section_title

;
Nd6 Li (B O3)3 O4 F2: A novel neodymium oxyborate fluoride containing
two-dimensional Nd layers
;
loop_
_citation_id
_citation_journal_full
_citation_year
_citation_journal_volume
_citation_page_first
_citation_page_last
_citation_journal_id_ASTM
primary 'Solid State Sciences' 2010 12 73 75 SSSCFJ
loop_
_publ_author_name
'Xia, M.J.'
'Li, R.K.'
_cell_length_a 12.0629(2)
_cell_length_b 6.94650(10)
_cell_length_c 16.0528(3)
_cell_angle_alpha 90
_cell_angle_beta 104.5360(10)
_cell_angle_gamma 90
_cell_volume 1302.09
_cell_formula_units_Z 4
_symmetry_space_group_name_H-M 'C 1 2/c 1'
_symmetry_Int_Tables_number 15
_refine_ls_R_factor_all 0.0436
loop_
_symmetry_equiv_pos_site_id
_symmetry_equiv_pos_as_xyz
1 'x, -y, z+1/2'
2 '-x, -y, -z'
3 '-x, y, -z+1/2'
4 'x, y, z'
5 'x+1/2, -y+1/2, z+1/2'
6 '-x+1/2, -y+1/2, -z'
7 '-x+1/2, y+1/2, -z+1/2'
8 'x+1/2, y+1/2, z'
loop_
_atom_type_symbol
_atom_type_oxidation_number
Nd3+ 3
F1- -1
O2- -2
B3+ 3
Li1+ 1
loop_
_atom_site_label
_atom_site_type_symbol
_atom_site_symmetry_multiplicity
_atom_site_Wyckoff_symbol
_atom_site_fract_x
_atom_site_fract_y
_atom_site_fract_z
_atom_site_B_iso_or_equiv
_atom_site_occupancy
_atom_site_attached_hydrogens
Nd1 Nd3+ 8 f 0.22049(3) 0.08716(6) 0.40320(2) 0.00622(13) 1. 0
Nd2 Nd3+ 8 f 0.54980(3) 0.07087(6) 0.40044(2) 0.00663(13) 1. 0
Nd3 Nd3+ 8 f -0.13033(4) 0.09578(6) 0.39071(3) 0.00819(13) 1. 0
F1 F1- 8 f -0.0673(5) 0.0833(7) 0.5453(4) 0.0118(9) 1. 0
O1 O2- 8 f 0.3972(5) -0.0815(8) 0.0073(9) 0.0073(9) 1. 0
O2 O2- 8 f 0.2322(5) 0.4164(8) 0.4401(4) 0.0073(9) 1. 0
O3 O2- 8 f 0.1671(6) -0.2242(9) 0.3314(4) 0.0140(11) 1. 0
O4 O2- 8 f -0.1015(5) -0.2072(9) 0.3235(4) 0.0144(11) 1. 0
O5 O2- 8 f 0.0252(5) 0.187(1) 0.3278(4) 0.0139(11) 1. 0
O6 O2- 4 e 0.5 -0.0209(13) 0.25 0.017(2) 1. 0
O7 O2- 8 f -0.2243(6) 0.138(1) 0.2437(4) 0.0169(12) 1. 0
B1 B3+ 8 f -0.3205(7) 0.234(13) 0.2491(5) 0.0077(13) 1. 0
B2 B3+ 4 e 0.5 -0.218(2) 0.25 0.011(2) 1. 0
Li1 Li1+ 4 e 0 -0.082(3) 0.25 0.021(5) 1. 0
#End of TTdata_260791-ICSD