
#(C) 2018 by FIZ Karlsruhe - Leibniz Institute for Information Infrastructure.  All rights reserved.
data_261109-ICSD
_database_code_ICSD 261109
_audit_creation_date 2011-02-01
_audit_update_record 2013-02-01
_chemical_name_systematic 'Dilithium rhodium trioxide'
_chemical_formula_structural 'Li2 Rh O3'
_chemical_formula_sum 'Li2 O3 Rh1'
_chemical_name_structure_type Na5ReO6
_exptl_crystal_density_diffrn 4.97
_publ_section_title

;
Synthesis, structural characterization and physical properties of a new member
of ternary lithium layered compounds - Li2 Rh O3
;
loop_
_citation_id
_citation_journal_full
_citation_year
_citation_journal_volume
_citation_page_first
_citation_page_last
_citation_journal_id_ASTM
primary 'Zeitschrift fuer Anorganische und Allgemeine Chemie (1950) (DE)' 2011
637 37 40 ZAACAB
loop_
_publ_author_name
'Todorova, V.'
'Jansen, M.'
_cell_length_a 5.1198(1)
_cell_length_b 8.8497(1)
_cell_length_c 5.1030(1)
_cell_angle_alpha 90
_cell_angle_beta 109.61(2)
_cell_angle_gamma 90
_cell_volume 217.8
_cell_formula_units_Z 4
_symmetry_space_group_name_H-M 'C 1 2/m 1'
_symmetry_Int_Tables_number 12
_refine_ls_R_factor_all 0.0498
loop_
_symmetry_equiv_pos_site_id
_symmetry_equiv_pos_as_xyz
1 '-x, y, -z'
2 '-x, -y, -z'
3 'x, -y, z'
4 'x, y, z'
5 '-x+1/2, y+1/2, -z'
6 '-x+1/2, -y+1/2, -z'
7 'x+1/2, -y+1/2, z'
8 'x+1/2, y+1/2, z'
loop_
_atom_type_symbol
_atom_type_oxidation_number
Rh4+ 4
Li1+ 1
Rh4+ 4
Li1+ 1
O2- -2
loop_
_atom_site_label
_atom_site_type_symbol
_atom_site_symmetry_multiplicity
_atom_site_Wyckoff_symbol
_atom_site_fract_x
_atom_site_fract_y
_atom_site_fract_z
_atom_site_B_iso_or_equiv
_atom_site_occupancy
_atom_site_attached_hydrogens
Rh1 Rh4+ 4 g 0 0.3333 0 0.01 0.869(3) 0
Li1 Li1+ 4 g 0 0.3333 0 0.02 0.131(3) 0
Rh2 Rh4+ 2 a 0 0 0 0.01 0.263(2) 0
Li2 Li1+ 2 a 0 0 0 0.02 0.737(2) 0
Li3 Li1+ 4 h 0 0.819(1) 0.5 0.02 1. 0
Li4 Li1+ 2 d 0 0.5 0.5 0.02 1. 0
O1 O2- 8 j 0.245(1) 0.321(1) 0.759(1) 0.03 1. 0
O2 O2- 4 i 0.255(1) 0 0.773(1) 0.03 1. 0
#End of TTdata_261109-ICSD