
#(C) 2018 by FIZ Karlsruhe - Leibniz Institute for Information Infrastructure.  All rights reserved.
data_261366-ICSD
_database_code_ICSD 261366
_audit_creation_date 2011-08-01
_chemical_name_systematic 'Indium iron lithium diphosphate (0.51/0.49/1/1)'
_chemical_formula_structural '(In0.51 Fe0.49) Li P2 O7'
_chemical_formula_sum 'Fe0.49 In0.51 Li1 O7 P2'
_chemical_name_structure_type LiInP2O7
_exptl_crystal_density_diffrn 3.34
_cell_measurement_temperature 296.
_publ_section_title
'A mixed indium-iron lithium diphosphate, In0.51 Fe0.49 Li P2 O7'
loop_
_citation_id
_citation_journal_full
_citation_year
_citation_journal_volume
_citation_page_first
_citation_page_last
_citation_journal_id_ASTM
primary 'Acta Crystallographica, Section E: Structure Reports Online' 2011 67
i27 i27 ACSEBH
loop_
_publ_author_name
'Zouihri, H.'
'Saadi, M.'
'Jaber, B.'
'El Ammari, L.'
_cell_length_a 4.8698(2)
_cell_length_b 8.2761(4)
_cell_length_c 6.9980(3)
_cell_angle_alpha 90.
_cell_angle_beta 109.650(2)
_cell_angle_gamma 90.
_cell_volume 265.62
_cell_formula_units_Z 2
_symmetry_space_group_name_H-M 'P 1 21 1'
_symmetry_Int_Tables_number 4
_refine_ls_R_factor_all 0.0134
loop_
_symmetry_equiv_pos_site_id
_symmetry_equiv_pos_as_xyz
1 '-x, y+1/2, -z'
2 'x, y, z'
loop_
_atom_type_symbol
_atom_type_oxidation_number
In3+ 3
Fe3+ 3
P5+ 5
O2- -2
Li1+ 1
loop_
_atom_site_label
_atom_site_type_symbol
_atom_site_symmetry_multiplicity
_atom_site_Wyckoff_symbol
_atom_site_fract_x
_atom_site_fract_y
_atom_site_fract_z
_atom_site_B_iso_or_equiv
_atom_site_occupancy
_atom_site_attached_hydrogens
In1 In3+ 2 a 0.279204(12) 0.015329(8) 0.764879(9) 0.00719(2) 0.5138(15) 0
Fe1 Fe3+ 2 a 0.279204(12) 0.015329(8) 0.764879(9) 0.00719(2) 0.4862(15) 0
P1 P5+ 2 a 0.10011(4) 0.33286(3) 0.97617(3) 0.00688(3) 1 0
P2 P5+ 2 a -0.29679(4) 0.23110(3) 0.58018(3) 0.00860(4) 1 0
O1 O2- 2 a -0.09909(15) 0.33270(9) 1.10229(11) 0.01212(10) 1 0
O2 O2- 2 a 0.30388(14) 0.47713(8) 1.01372(10) 0.01034(9) 1 0
O3 O2- 2 a 0.25898(14) 0.17252(8) 0.99381(10) 0.01044(9) 1 0
O4 O2- 2 a -0.56214(17) 0.19541(11) 0.63576(14) 0.01698(14) 1 0
O5 O2- 2 a -0.36828(19) 0.31921(11) 0.37968(11) 0.01694(14) 1 0
O6 O2- 2 a -0.11997(18) 0.08092(10) 0.57623(14) 0.01796(13) 1 0
O7 O2- 2 a -0.09802(15) 0.35652(9) 0.74311(10) 0.01196(10) 1 0
Li1 Li1+ 2 a -0.3013(6) 0.1486(3) 0.1793(4) 0.0222(4) 1 0
loop_
_atom_site_aniso_label
_atom_site_aniso_type_symbol
_atom_site_aniso_U_11
_atom_site_aniso_U_22
_atom_site_aniso_U_33
_atom_site_aniso_U_12
_atom_site_aniso_U_13
_atom_site_aniso_U_23
In1 In3+ 0.00727(2) 0.00677(2) 0.00816(2) 0.00070(2) 0.003410(10) 0.00021(2)
Fe1 Fe3+ 0.00727(2) 0.00677(2) 0.00816(2) 0.00070(2) 0.003410(10) 0.00021(2)
P1 P5+ 0.00698(6) 0.00674(7) 0.00732(7) -0.00058(5) 0.00292(5) -0.00079(5)
P2 P5+ 0.00781(7) 0.01113(9) 0.00698(7) -0.00074(6) 0.00265(5) -0.00012(6)
O1 O2- 0.0138(2) 0.0115(2) 0.0150(2) -0.00187(18) 0.0100(2) -0.0021(2)
O2 O2- 0.00973(19) 0.0089(2) 0.0116(2) -0.00300(15) 0.00246(16) 0.00044(16)
O3 O2- 0.0116(2) 0.0086(2) 0.0107(2) 0.00203(16) 0.00313(17) -0.00045(16)
O4 O2- 0.0118(2) 0.0212(4) 0.0209(3) -0.0004(2) 0.0093(2) 0.0037(3)
O5 O2- 0.0205(3) 0.0217(4) 0.0069(2) -0.0039(3) 0.0023(2) 0.0026(2)
O6 O2- 0.0149(3) 0.0128(3) 0.0271(4) 0.0001(2) 0.0082(2) -0.0071(3)
O7 O2- 0.0137(2) 0.0108(2) 0.0083(2) 0.00030(18) -0.00045(17) -0.00100(17)
Li1 Li1+ 0.0273(11) 0.0189(10) 0.0245(10) -0.0051(8) 0.0140(8) -0.0082(8)
#End of TTdata_261366-ICSD