
#(C) 2017 by FIZ Karlsruhe - Leibniz Institute for Information Infrastructure.  All rights reserved.
data_261526-ICSD
_database_code_ICSD 261526
_audit_creation_date 2011-08-01
_chemical_name_systematic 'Lithium titanium nitride chloride (x/1/1/1)'
_chemical_formula_structural 'Li Ti N Cl'
_chemical_formula_sum 'Cl1 Li1 N1 Ti1'
_exptl_crystal_density_diffrn 3.33
_publ_section_title

;
Structure and superconductivity of the intercalation compounds of Ti N Cl with
pyridine and alkali metals as intercalants
;
loop_
_citation_id
_citation_journal_full
_citation_year
_citation_journal_volume
_citation_page_first
_citation_page_last
_citation_journal_id_ASTM
primary 'Journal of Materials Chemistry' 2009 19 2573 2582 JMACEP
loop_
_publ_author_name
'Yamanaka, S.'
'Yasunaga, T.'
'Yamaguchi, K.'
'Tagawa, M.'
_cell_length_a 4.0114(1)
_cell_length_b 3.2726(1)
_cell_length_c 7.9211(2)
_cell_angle_alpha 90.
_cell_angle_beta 90.
_cell_angle_gamma 90.
_cell_volume 103.99
_cell_formula_units_Z 2
_symmetry_space_group_name_H-M 'P m m n S'
_symmetry_Int_Tables_number 59
_refine_ls_R_factor_all 0.0202
loop_
_symmetry_equiv_pos_site_id
_symmetry_equiv_pos_as_xyz
1 'x+1/2, -y+1/2, -z'
2 'x+1/2, y+1/2, -z'
3 'x, -y, z'
4 '-x, y, z'
5 '-x+1/2, y+1/2, -z'
6 '-x+1/2, -y+1/2, -z'
7 '-x, -y, z'
8 'x, y, z'
loop_
_atom_type_symbol
_atom_type_oxidation_number
Ti3+ 3
N3- -3
Cl1- -1
Li1+ 1
loop_
_atom_site_label
_atom_site_type_symbol
_atom_site_symmetry_multiplicity
_atom_site_Wyckoff_symbol
_atom_site_fract_x
_atom_site_fract_y
_atom_site_fract_z
_atom_site_B_iso_or_equiv
_atom_site_occupancy
_atom_site_attached_hydrogens
Ti1 Ti3+ 2 b 0 0.5 0.0794(1) 1 1. 0
N1 N3- 2 a 0.5 0.5 0.0633(7) 1 1. 0
Cl1 Cl1- 2 a 0 0 0.3240(2) 1 1. 0
Li1 Li1+ 2 a 0.5 0.5 0.334 . 1. 0
#End of TTdata_261526-ICSD