
#(C) 2018 by FIZ Karlsruhe - Leibniz Institute for Information Infrastructure.  All rights reserved.
data_261629-ICSD
_database_code_ICSD 261629
_audit_creation_date 2011-08-01
_audit_update_record 2013-08-01
_chemical_name_systematic 'Tetralanthanum lithium gold(III) octaoxide'
_chemical_formula_structural 'La4 (Li0.9 Au0.1) (Au0.9 Li0.1) O8'
_chemical_formula_sum 'Au1 La4 Li1 O8'
_chemical_name_structure_type AuLa4LiO8
_exptl_crystal_density_diffrn 7.13
_publ_section_title

;
Neutron diffraction study of La4 Li Au O8: Understanding Au(3+) in an oxide
environment
;
loop_
_citation_id
_citation_journal_full
_citation_year
_citation_journal_volume
_citation_page_first
_citation_page_last
_citation_journal_id_ASTM
primary 'Journal of Solid State Chemistry' 2011 184 1439 1444 JSSCBI
loop_
_publ_author_name
'Kurzman, J.A.'
'Moffitt, S.L.'
'Llobet, A.'
'Seshadri, R.'
_cell_length_a 5.76017(1)
_cell_length_b 5.75984(1)
_cell_length_c 12.46453(1)
_cell_angle_alpha 90.
_cell_angle_beta 90.
_cell_angle_gamma 90.
_cell_volume 413.54
_cell_formula_units_Z 2
_symmetry_space_group_name_H-M 'A m m m'
_symmetry_Int_Tables_number 65
_refine_ls_R_factor_all 0.0333
loop_
_symmetry_equiv_pos_site_id
_symmetry_equiv_pos_as_xyz
1 'x, -y, z'
2 'x, y, -z'
3 '-x, y, z'
4 '-x, -y, -z'
5 '-x, y, -z'
6 '-x, -y, z'
7 'x, -y, -z'
8 'x, y, z'
9 'x, -y+1/2, z+1/2'
10 'x, y+1/2, -z+1/2'
11 '-x, y+1/2, z+1/2'
12 '-x, -y+1/2, -z+1/2'
13 '-x, y+1/2, -z+1/2'
14 '-x, -y+1/2, z+1/2'
15 'x, -y+1/2, -z+1/2'
16 'x, y+1/2, z+1/2'
loop_
_atom_type_symbol
_atom_type_oxidation_number
La3+ 3
Li1+ 1
Au3+ 3
Li1+ 1
O2- -2
loop_
_atom_site_label
_atom_site_type_symbol
_atom_site_symmetry_multiplicity
_atom_site_Wyckoff_symbol
_atom_site_fract_x
_atom_site_fract_y
_atom_site_fract_z
_atom_site_B_iso_or_equiv
_atom_site_occupancy
_atom_site_attached_hydrogens
La1 La3+ 4 i 0 0 0.149133(22) 0.00405(6) 1. 0
La2 La3+ 4 i 0 0 0.350588(23) 0.00412(6) 1. 0
Li1 Li1+ 2 b 0 0 0.5 0.0013(7) 0.9 0
Au1 Au3+ 2 b 0 0 0.5 0.0013(7) 0.1 0
Au2 Au3+ 2 d 0.5 0 0 0.00290(6) 0.9 0
Li2 Li1+ 2 d 0.5 0 0 0.00290(6) 0.1 0
O1 O2- 8 o 0.25129(26) 0.24870(26) 0 0.00766(10) 1. 0
O2 O2- 8 m 0.24949(25) 0.25 0.25 0.00558(11) 1. 0
#End of TTdata_261629-ICSD