
#(C) 2018 by FIZ Karlsruhe - Leibniz Institute for Information Infrastructure.  All rights reserved.
data_261834-ICSD
_database_code_ICSD 261834
_audit_creation_date 2012-02-01
_chemical_name_systematic 'Lithium terbium ditungstate'
_chemical_formula_structural 'Li Tb W2 O8'
_chemical_formula_sum 'Li1 O8 Tb1 W2'
_chemical_name_structure_type Scheelite-CaWO4
_exptl_crystal_density_diffrn 7.28
_publ_section_title

;
Crystal structure of Li Ln W2 O8 (Ln=Lanthanides and Y): An X-ray powder
diffraction study
;
loop_
_citation_id
_citation_journal_full
_citation_year
_citation_journal_volume
_citation_page_first
_citation_page_last
_citation_journal_id_ASTM
primary 'Journal of Solid State Chemistry' 2011 184 2004 2008 JSSCBI
loop_
_publ_author_name
'Postema, J.M.'
'Fu, W.T.'
'Ijdo, D.J.W.'
_cell_length_a 5.18468(5)
_cell_length_b 5.18468(5)
_cell_length_c 11.2235(1)
_cell_angle_alpha 90.
_cell_angle_beta 90.
_cell_angle_gamma 90.
_cell_volume 301.7
_cell_formula_units_Z 2
_symmetry_space_group_name_H-M 'I 41/a Z'
_symmetry_Int_Tables_number 88
_refine_ls_R_factor_all 0.005
loop_
_symmetry_equiv_pos_site_id
_symmetry_equiv_pos_as_xyz
1 '-y+3/4, x+3/4, -z+3/4'
2 'y+1/4, -x+3/4, -z+3/4'
3 'x, y+1/2, -z'
4 '-x, -y, -z'
5 'y+1/4, -x+1/4, z+1/4'
6 '-y+3/4, x+1/4, z+1/4'
7 '-x, -y+1/2, z'
8 'x, y, z'
9 '-y+1/4, x+1/4, -z+1/4'
10 'y+3/4, -x+1/4, -z+1/4'
11 'x+1/2, y, -z+1/2'
12 '-x+1/2, -y+1/2, -z+1/2'
13 'y+3/4, -x+3/4, z+3/4'
14 '-y+1/4, x+3/4, z+3/4'
15 '-x+1/2, -y, z+1/2'
16 'x+1/2, y+1/2, z+1/2'
loop_
_atom_type_symbol
_atom_type_oxidation_number
Li1+ 1
Tb3+ 3
W6+ 6
O2- -2
loop_
_atom_site_label
_atom_site_type_symbol
_atom_site_symmetry_multiplicity
_atom_site_Wyckoff_symbol
_atom_site_fract_x
_atom_site_fract_y
_atom_site_fract_z
_atom_site_B_iso_or_equiv
_atom_site_occupancy
_atom_site_attached_hydrogens
Li1 Li1+ 4 a 0 0.25 0.125 0.49(2) 0.5 0
Tb1 Tb3+ 4 a 0 0.25 0.125 0.49(2) 0.5 0
W1 W6+ 4 b 0.5 0.75 0.125 0.49(2) 1. 0
O1 O2- 16 f 0.7524(8) 0.5877(10) 0.0384(4) 0.49(2) 1. 0
#End of TTdata_261834-ICSD