
#(C) 2018 by FIZ Karlsruhe - Leibniz Institute for Information Infrastructure.  All rights reserved.
data_261825-ICSD
_database_code_ICSD 261825
_audit_creation_date 2012-02-01
_chemical_name_systematic 'Dilithium dititanium(III/IV) tris(orthophosphate)'
_chemical_formula_structural 'Li2 Ti2 (P O4)3'
_chemical_formula_sum 'Li2 O12 P3 Ti2'
_chemical_name_structure_type Li2TiFe(PO4)3
_exptl_crystal_density_diffrn 2.92
_cell_measurement_temperature 290.
_publ_section_title

;
The mixed-valent titanium phosphate, Li2 Ti2 (PO 4)3, dilithium
dititanium(III/IV) tris(orthophosphate)
;
loop_
_citation_id
_citation_journal_full
_citation_year
_citation_journal_volume
_citation_page_first
_citation_page_last
_citation_journal_id_ASTM
primary 'Acta Crystallographica, Section E: Structure Reports Online' 2011 67
i49 i49 ACSEBH
loop_
_publ_author_name
'Kee Yongho'
'Lee Seoung-Soo'
'Yun Hoseop'
_cell_length_a 12.0344(5)
_cell_length_b 8.5795(5)
_cell_length_c 8.6794(4)
_cell_angle_alpha 90
_cell_angle_beta 90
_cell_angle_gamma 90
_cell_volume 896.14
_cell_formula_units_Z 4
_symmetry_space_group_name_H-M 'P b c n'
_symmetry_Int_Tables_number 60
_refine_ls_R_factor_all 0.0464
loop_
_symmetry_equiv_pos_site_id
_symmetry_equiv_pos_as_xyz
1 'x, -y, z+1/2'
2 '-x+1/2, y+1/2, z'
3 'x+1/2, y+1/2, -z+1/2'
4 '-x, -y, -z'
5 '-x, y, -z+1/2'
6 'x+1/2, -y+1/2, -z'
7 '-x+1/2, -y+1/2, z+1/2'
8 'x, y, z'
loop_
_atom_type_symbol
_atom_type_oxidation_number
Li1+ 1
Ti3+ 3.5
P5+ 5
O2- -2
loop_
_atom_site_label
_atom_site_type_symbol
_atom_site_symmetry_multiplicity
_atom_site_Wyckoff_symbol
_atom_site_fract_x
_atom_site_fract_y
_atom_site_fract_z
_atom_site_B_iso_or_equiv
_atom_site_occupancy
_atom_site_attached_hydrogens
Li1 Li1+ 8 d 0.1812(9) 0.2861(13) 0.2191(12) 0.020(2) 1 0
Ti1 Ti3+ 8 d 0.38824(7) 0.25295(11) 0.03788(11) 0.0077(2) 1 0
P1 P5+ 4 c 0.5 0.5399(2) 0.25 0.0086(4) 1 0
P2 P5+ 8 d 0.35246(11) 0.10469(15) 0.39437(15) 0.0069(3) 1 0
O1 O2- 8 d 0.4200(3) 0.3537(5) -0.1627(5) 0.0186(9) 1 0
O2 O2- 8 d 0.4304(4) 0.4408(5) 0.1413(5) 0.0219(10) 1 0
O3 O2- 8 d 0.5306(4) 0.1556(5) 0.0618(5) 0.0217(10) 1 0
O4 O2- 8 d 0.2282(3) 0.3271(5) 0.0130(4) 0.0152(8) 1 0
O5 O2- 8 d 0.3221(3) 0.1629(5) 0.2322(4) 0.0137(8) 1 0
O6 O2- 8 d 0.3443(3) 0.0729(4) -0.1040(5) 0.0146(8) 1 0
loop_
_atom_site_aniso_label
_atom_site_aniso_type_symbol
_atom_site_aniso_U_11
_atom_site_aniso_U_22
_atom_site_aniso_U_33
_atom_site_aniso_U_12
_atom_site_aniso_U_13
_atom_site_aniso_U_23
Li1 Li1+ 0.019(5) 0.025(5) 0.017(5) 0.002(4) 0.005(4) -0.004(4)
Ti1 Ti3+ 0.0076(4) 0.0079(4) 0.0078(4) 0.0006(3) 0.0001(3) -0.0007(4)
P1 P5+ 0.0114(9) 0.0075(8) 0.0071(8) 0 0.0023(7) 0
P2 P5+ 0.0060(6) 0.0079(6) 0.0067(6) 0.0001(5) -0.0003(5) -0.0001(5)
O1 O2- 0.018(2) 0.025(2) 0.0126(18) -0.0112(17) 0.0036(17) -0.0017(17)
O2 O2- 0.031(3) 0.018(2) 0.016(2) -0.0095(18) -0.0074(19) 0.0006(17)
O3 O2- 0.021(2) 0.019(2) 0.025(2) 0.0074(17) -0.0096(19) -0.0075(18)
O4 O2- 0.017(2) 0.020(2) 0.0087(17) 0.0098(16) -0.0012(16) 0.0001(15)
O5 O2- 0.0107(18) 0.021(2) 0.0096(17) 0.0007(15) 0.0008(16) 0.0035(16)
O6 O2- 0.0131(19) 0.0084(18) 0.022(2) -0.0007(14) -0.0049(17) 0.0013(16)
#End of TTdata_261825-ICSD