
#(C) 2018 by FIZ Karlsruhe - Leibniz Institute for Information Infrastructure.  All rights reserved.
data_262046-ICSD
_database_code_ICSD 262046
_audit_creation_date 2012-02-01
_audit_update_record 2013-08-01
_chemical_name_systematic 'Lithium manganese(II) manganese(III) tellurate(VI)'
_chemical_formula_structural 'Li Mn2 Te O6'
_chemical_formula_sum 'Li1 Mn2 O6 Te1'
_chemical_name_structure_type LiMn2TeO6
_exptl_crystal_density_diffrn 5.11
_publ_section_title

;
Crystal structure and properties of a new mixed-valence compound Li Mn2 Te O6
and the survey of the Li M M' X O6 family (X = Sb or Te)
;
loop_
_citation_id
_citation_journal_full
_citation_year
_citation_journal_volume
_citation_page_first
_citation_page_last
_citation_journal_id_ASTM
primary 'Solid State Sciences' 2011 13 1931 1937 SSSCFJ
loop_
_publ_author_name
'Pospelov, A.A.'
'Nalbandyan, V.B.'
'Serikova, E.I.'
'Medvedev, B.S.'
'Evstigneeva, M.A.'
'Ni, E.V.'
'Lukov, V.V.'
_cell_length_a 5.1077(1)
_cell_length_b 8.5707(1)
_cell_length_c 5.0589(1)
_cell_angle_alpha 92.515(1)
_cell_angle_beta 92.092(2)
_cell_angle_gamma 89.818(2)
_cell_volume 221.1
_cell_formula_units_Z 2
_symmetry_space_group_name_H-M 'P 1'
_symmetry_Int_Tables_number 1
_refine_ls_R_factor_all 0.0262
loop_
_symmetry_equiv_pos_site_id
_symmetry_equiv_pos_as_xyz
1 'x, y, z'
loop_
_atom_type_symbol
_atom_type_oxidation_number
Te6+ 6
Mn2+ 2.5
Li1+ 1
O2- -2
Li1+ 1
Mn2+ 2.5
loop_
_atom_site_label
_atom_site_type_symbol
_atom_site_symmetry_multiplicity
_atom_site_Wyckoff_symbol
_atom_site_fract_x
_atom_site_fract_y
_atom_site_fract_z
_atom_site_B_iso_or_equiv
_atom_site_occupancy
_atom_site_attached_hydrogens
Te1 Te6+ 1 a 0 0 0 0.0137(3) 1. 0
Te2 Te6+ 1 a 0.5120(7) 0.5016(3) 0.4976(7) 0.0119(3) 1. 0
Mn1 Mn2+ 1 a 0.0169(13) 0.3097(5) 0.4958(12) 0.0021(10) 1. 0
Mn2 Mn2+ 1 a 0.5143(12) 0.8032(5) 0.0085(11) 0.002(1) 1. 0
Mn3 Mn2+ 1 a 0.5038(11) 0.0952(5) 0.4880(11) 0.015(6) 1. 0
Mn4 Mn2+ 1 a 0.045(1) 0.7362(6) 0.4769(13) 0.0166(16) 0.826(4) 0
Li1 Li1+ 1 a 0.045(1) 0.7362(6) 0.4769(13) 0.0166(16) 0.174(4) 0
O1 O2- 1 a 0.663(3) 0.3520(17) 0.249(3) 0.015(6) 1. 0
O2 O2- 1 a 0.207(3) 0.8392(18) 0.177(3) 0.007(6) 1. 0
O3 O2- 1 a 0.227(4) 0.1718(18) 0.155(3) 0.052(7) 1. 0
O4 O2- 1 a 0.855(3) 0.8229(18) 0.773(3) 0.002(2) 1. 0
O5 O2- 1 a 0.282(3) 0.9633(19) 0.780(3) 0.038(6) 1. 0
O6 O2- 1 a 0.359(3) 0.3266(18) 0.692(3) 0.002(2) 1. 0
O7 O2- 1 a 0.232(3) 0.529(2) 0.276(3) 0.019(6) 1. 0
O8 O2- 1 a 0.846(3) 0.5077(19) 0.686(3) 0.014(5) 1. 0
O9 O2- 1 a 0.702(3) -0.0181(18) 0.212(3) 0.002(2) 1. 0
O10 O2- 1 a 0.360(3) 0.6623(17) 0.735(3) 0.002(2) 1. 0
O11 O2- 1 a 0.679(3) 0.6395(15) 0.292(3) 0.003(2) 1. 0
O12 O2- 1 a 0.808(4) 0.1170(19) 0.741(3) 0.044(7) 1. 0
Li2 Li1+ 1 a -0.026(12) 0.595(5) 0.018(11) 0.002(6) 1. 0
Li3 Li1+ 1 a 0.565(4) 0.383(2) 0.951(4) 0.044(6) 0.826(4) 0
Mn5 Mn2+ 1 a 0.565(4) 0.383(2) 0.951(4) 0.044(6) 0.174(4) 0
#End of TTdata_262046-ICSD