
#(C) 2017 by FIZ Karlsruhe - Leibniz Institute for Information Infrastructure.  All rights reserved.
data_26208-ICSD
_database_code_ICSD 26208
_audit_creation_date 1984-09-05
_audit_update_record 2012-08-01
_chemical_name_systematic 'Sodium lithium thorium fluoride (3/4/6/31)'
_chemical_formula_structural 'Na3 Li4 Th6 F31'
_chemical_formula_sum 'F31 Li4 Na3 Th6'
_exptl_crystal_density_diffrn 6.11
_publ_section_title

;
The Neutron and X-ray Crystal Structure of (Na Li)7 Th6 F31 with More Than One
Least-Squares Minimum
;
loop_
_citation_id
_citation_journal_full
_citation_year
_citation_journal_volume
_citation_page_first
_citation_page_last
_citation_journal_id_ASTM
primary 'Acta Crystallographica B (24,1968-38,1982)' 1969 25 2519 2525 ACBCAR
loop_
_publ_author_name
'Brunton, G.'
'Sears, D.R.'
_cell_length_a 9.9056(30)
_cell_length_b 9.9056(30)
_cell_length_c 13.2820(5)
_cell_angle_alpha 90.
_cell_angle_beta 90.
_cell_angle_gamma 120.
_cell_volume 1128.64
_cell_formula_units_Z 2
_symmetry_space_group_name_H-M 'P 3 c 1'
_symmetry_Int_Tables_number 158
_refine_ls_R_factor_all 0.0596
loop_
_symmetry_equiv_pos_site_id
_symmetry_equiv_pos_as_xyz
1 'x, x-y, z+1/2'
2 '-x+y, y, z+1/2'
3 '-y, -x, z+1/2'
4 '-x+y, -x, z'
5 '-y, x-y, z'
6 'x, y, z'
loop_
_atom_type_symbol
_atom_type_oxidation_number
Th4+ 4
F1- -1
Na1+ 1
Li1+ 1
loop_
_atom_site_label
_atom_site_type_symbol
_atom_site_symmetry_multiplicity
_atom_site_Wyckoff_symbol
_atom_site_fract_x
_atom_site_fract_y
_atom_site_fract_z
_atom_site_B_iso_or_equiv
_atom_site_occupancy
_atom_site_attached_hydrogens
Th1 Th4+ 6 d 0.0847(2) 0.4094(2) 0 . 1. 0
Th2 Th4+ 6 d 0.9214(2) 0.6045(2) 0.2061(2) . 1. 0
F1 F1- 6 d 0.139(4) 0.441(4) -.181(3) 0.002(1) 1. 0
F2 F1- 6 d 0.864(4) 0.563(4) 0.388(3) 0.002(1) 1. 0
F3 F1- 6 d 0.129(5) 0.315(4) -.374(3) 0.003(2) 1. 0
F4 F1- 6 d 0.886(5) 0.690(4) 0.587(3) 0.003(2) 1. 0
F5 F1- 6 d 0.357(5) 0.459(5) -.062(3) 0.004(2) 1. 0
F6 F1- 6 d 0.668(4) 0.493(5) 0.249(3) 0.004(2) 1. 0
F7 F1- 6 d 0.079(4) 0.196(4) -.061(3) 0.001(1) 1. 0
F8 F1- 6 d 0.893(4) 0.803(3) 0.267(3) 0.001(1) 1. 0
F9 F1- 6 d 0.117(4) 0.576(4) -.347(3) 0.001(1) 1. 0
F10 F1- 6 d 0.868(5) 0.417(4) 0.555(4) 0.002(1) 1. 0
F11 F1- 2 c 0.6667 0.3333 -.321(8) 0.012(4) 1. 0
Na1 Na1+ 2 c 0.6667 0.3333 -.055(4) 0.001(2) 1. 0
Na2 Na1+ 2 b 0.3333 0.6667 0.248(4) 0.001(1) 1. 0
Na3 Na1+ 2 a 0 0 0.084(5) 0.009(3) 1. 0
Li1 Li1+ 2 a 0 0 -.15(2) 0.008(6) 1. 0
Li2 Li1+ 6 d 0.272(9) 0.310(9) -.221(8) 0.003(3) 1. 0
loop_
_atom_site_aniso_label
_atom_site_aniso_type_symbol
_atom_site_aniso_beta_11
_atom_site_aniso_beta_22
_atom_site_aniso_beta_33
_atom_site_aniso_beta_12
_atom_site_aniso_beta_13
_atom_site_aniso_beta_23
Th1 Th4+ 0.0044(2) 0.0039(3) 0.0007(1) 0.0024(2) 0.0000(2) -.0003(1)
Th2 Th4+ 0.0036(2) 0.0035(2) 0.0035(9) 0.0017(2) 0.0000(1) 0.0002(1)
#End of TTdata_26208-ICSD