
#(C) 2018 by FIZ Karlsruhe - Leibniz Institute for Information Infrastructure.  All rights reserved.
data_262644-ICSD
_database_code_ICSD 262644
_audit_creation_date 2012-08-01
_chemical_name_systematic 'Diindium dilithium silicium hexaselenide'
_chemical_formula_structural 'In2 Li2 Si Se6'
_chemical_formula_sum 'In2 Li2 Se6 Si1'
_chemical_name_structure_type Cd4GeS6
_exptl_crystal_density_diffrn 4.49
_cell_measurement_temperature 296.
_publ_section_title

;
Synthesis, structure, and properties of Li2 In2 M Q6 (M = Si, Ge; Q = S, Se):
a new series of IR nonlinear optical materials
;
loop_
_citation_id
_citation_journal_full
_citation_year
_citation_journal_volume
_citation_page_first
_citation_page_last
_citation_journal_id_ASTM
primary 'Inorganic Chemistry' 2012 51 5839 5843 INOCAJ
loop_
_publ_author_name
'Yin Wenlong'
'Feng Kai'
'Hao Wenyu'
'Yao Jiyong'
'Wu Yicheng'
_cell_length_a 12.6210(4)
_cell_length_b 7.3788(3)
_cell_length_c 12.5800(4)
_cell_angle_alpha 90.
_cell_angle_beta 109.704(2)
_cell_angle_gamma 90.
_cell_volume 1102.95
_cell_formula_units_Z 4
_symmetry_space_group_name_H-M 'C 1 c 1'
_symmetry_Int_Tables_number 9
_refine_ls_R_factor_all 0.0221
loop_
_symmetry_equiv_pos_site_id
_symmetry_equiv_pos_as_xyz
1 'x, -y, z+1/2'
2 'x, y, z'
3 'x+1/2, -y+1/2, z+1/2'
4 'x+1/2, y+1/2, z'
loop_
_atom_type_symbol
_atom_type_oxidation_number
Li1+ 1
In3+ 3
Si4+ 4
Se2- -2
loop_
_atom_site_label
_atom_site_type_symbol
_atom_site_symmetry_multiplicity
_atom_site_Wyckoff_symbol
_atom_site_fract_x
_atom_site_fract_y
_atom_site_fract_z
_atom_site_B_iso_or_equiv
_atom_site_occupancy
_atom_site_attached_hydrogens
Li1 Li1+ 4 a 0.2094(9) 0.188(2) 0.6569(11) 0.039(3) 1 0
Li2 Li1+ 4 a 0.0000(11) 0.4010(18) 0.0000(11) 0.035(3) 1 0
In1 In3+ 4 a 0.02084(3) 0.09472(5) 0.31124(3) 0.01604(11) 1 0
In2 In3+ 4 a 0.34328(3) 0.43276(6) 0.00793(3) 0.01657(10) 1 0
Si1 Si4+ 4 a 0.27446(13) 0.2682(2) 0.25242(13) 0.0111(3) 1 0
Se1 Se2- 4 a 0.01574(5) 0.24373(8) 0.49478(5) 0.01690(14) 1 0
Se2 Se2- 4 a 0.39622(5) 0.26770(8) 0.62133(5) 0.01713(13) 1 0
Se3 Se2- 4 a 0.46309(5) 0.25266(8) 0.30291(6) 0.01698(13) 1 0
Se4 Se2- 4 a 0.20341(5) 0.51858(9) 0.30324(5) 0.01827(14) 1 0
Se5 Se2- 4 a 0.22866(5) 0.02068(9) 0.33310(5) 0.01579(13) 1 0
Se6 Se2- 4 a 0.19952(5) 0.23683(9) 0.06345(5) 0.01716(14) 1 0
loop_
_atom_site_aniso_label
_atom_site_aniso_type_symbol
_atom_site_aniso_U_11
_atom_site_aniso_U_22
_atom_site_aniso_U_33
_atom_site_aniso_U_12
_atom_site_aniso_U_13
_atom_site_aniso_U_23
Li1 Li1+ 0.013(5) 0.055(9) 0.044(7) -0.005(5) 0.004(5) 0.034(7)
Li2 Li1+ 0.046(7) 0.028(7) 0.036(7) -0.010(5) 0.021(6) 0.000(5)
In1 In3+ 0.01511(18) 0.0184(2) 0.01542(19) -0.00112(17) 0.00615(14) -0.00061(16)
In2 In3+ 0.01784(19) 0.0179(2) 0.0152(2) -0.00086(17) 0.00720(15) -0.00019(16)
Si1 Si4+ 0.0114(7) 0.0103(8) 0.0121(7) 0.0003(5) 0.0045(5) 0.0007(5)
Se1 Se2- 0.0178(3) 0.0168(3) 0.0168(3) -0.0018(2) 0.0068(2) -0.0028(2)
Se2 Se2- 0.0194(3) 0.0158(3) 0.0159(3) -0.0005(2) 0.0055(2) -0.0007(2)
Se3 Se2- 0.0099(2) 0.0158(3) 0.0242(3) 0.0001(2) 0.0045(2) 0.0020(2)
Se4 Se2- 0.0196(3) 0.0164(3) 0.0168(3) 0.0069(2) 0.0035(2) -0.0032(2)
Se5 Se2- 0.0150(3) 0.0132(3) 0.0204(3) 0.0002(2) 0.0075(2) 0.0050(2)
Se6 Se2- 0.0183(3) 0.0220(3) 0.0105(3) -0.0067(2) 0.0040(2) -0.0022(2)
#End of TTdata_262644-ICSD