
#(C) 2018 by FIZ Karlsruhe - Leibniz Institute for Information Infrastructure.  All rights reserved.
data_262642-ICSD
_database_code_ICSD 262642
_audit_creation_date 2012-08-01
_chemical_name_systematic 'Diindium dilithium silicon hexasulfide'
_chemical_formula_structural 'In2 Li2 Si S6'
_chemical_formula_sum 'In2 Li2 S6 Si1'
_chemical_name_structure_type Cd4GeS6
_exptl_crystal_density_diffrn 3.2
_cell_measurement_temperature 296.
_publ_section_title

;
Synthesis, structure, and properties of Li2 In2 M Q6 (M = Si, Ge; Q = S, Se):
a new series of IR nonlinear optical materials
;
loop_
_citation_id
_citation_journal_full
_citation_year
_citation_journal_volume
_citation_page_first
_citation_page_last
_citation_journal_id_ASTM
primary 'Inorganic Chemistry' 2012 51 5839 5843 INOCAJ
loop_
_publ_author_name
'Yin Wenlong'
'Feng Kai'
'Hao Wenyu'
'Yao Jiyong'
'Wu Yicheng'
_cell_length_a 12.0741(11)
_cell_length_b 7.0221(5)
_cell_length_c 12.0802(9)
_cell_angle_alpha 90.
_cell_angle_beta 110.060(5)
_cell_angle_gamma 90.
_cell_volume 962.09
_cell_formula_units_Z 4
_symmetry_space_group_name_H-M 'C 1 c 1'
_symmetry_Int_Tables_number 9
_refine_ls_R_factor_all 0.0098
loop_
_symmetry_equiv_pos_site_id
_symmetry_equiv_pos_as_xyz
1 'x, -y, z+1/2'
2 'x, y, z'
3 'x+1/2, -y+1/2, z+1/2'
4 'x+1/2, y+1/2, z'
loop_
_atom_type_symbol
_atom_type_oxidation_number
Li1+ 1
In3+ 3
Si4+ 4
S2- -2
loop_
_atom_site_label
_atom_site_type_symbol
_atom_site_symmetry_multiplicity
_atom_site_Wyckoff_symbol
_atom_site_fract_x
_atom_site_fract_y
_atom_site_fract_z
_atom_site_B_iso_or_equiv
_atom_site_occupancy
_atom_site_attached_hydrogens
Li1 Li1+ 4 a 0.2088(4) 0.1931(7) 0.6569(4) 0.0392(11) 1 0
Li2 Li1+ 4 a -0.0018(4) 0.4021(6) 0.0031(4) 0.0322(10) 1 0
In1 In3+ 4 a 0.021726(10) 0.097965(19) 0.312009(10) 0.01616(4) 1 0
In2 In3+ 4 a 0.342502(10) 0.42968(2) 0.007032(10) 0.01619(4) 1 0
Si1 Si4+ 4 a 0.27434(5) 0.26741(7) 0.25216(5) 0.01157(10) 1 0
S1 S2- 4 a 0.01525(4) 0.24469(7) 0.49428(5) 0.01635(10) 1 0
S2 S2- 4 a 0.39521(4) 0.27134(7) 0.62137(4) 0.01686(10) 1 0
S3 S2- 4 a 0.45976(4) 0.25691(7) 0.30664(5) 0.01737(10) 1 0
S4 S2- 4 a 0.20477(4) 0.51415(7) 0.30246(5) 0.01804(10) 1 0
S5 S2- 4 a 0.22694(4) 0.02240(7) 0.32828(5) 0.01586(10) 1 0
S6 S2- 4 a 0.20050(4) 0.23887(7) 0.06679(4) 0.01709(10) 1 0
loop_
_atom_site_aniso_label
_atom_site_aniso_type_symbol
_atom_site_aniso_U_11
_atom_site_aniso_U_22
_atom_site_aniso_U_33
_atom_site_aniso_U_12
_atom_site_aniso_U_13
_atom_site_aniso_U_23
Li1 Li1+ 0.024(2) 0.054(3) 0.036(2) -0.0073(18) 0.0049(19) 0.023(2)
Li2 Li1+ 0.038(2) 0.022(2) 0.038(3) -0.0024(17) 0.015(2) -0.0010(17)
In1 In3+ 0.01509(7) 0.01964(7) 0.01498(7) -0.00094(6) 0.00675(5) -0.00075(6)
In2 In3+ 0.01693(7) 0.01851(7) 0.01480(7) -0.00072(5) 0.00758(6) -0.00003(6)
Si1 Si4+ 0.0116(2) 0.0122(2) 0.0114(2) -0.00086(18) 0.00453(19) -0.00001(19)
S1 S2- 0.0166(2) 0.0173(2) 0.0159(2) -0.00165(17) 0.00656(18) -0.00219(18)
S2 S2- 0.0186(2) 0.0163(2) 0.0156(2) 0.00027(18) 0.00587(19) -0.00008(18)
S3 S2- 0.0110(2) 0.0174(2) 0.0232(2) -0.00027(17) 0.00516(18) 0.0012(2)
S4 S2- 0.0192(2) 0.0177(2) 0.0158(2) 0.00567(19) 0.00413(18) -0.0022(2)
S5 S2- 0.0149(2) 0.0151(2) 0.0190(2) -0.00034(18) 0.00771(18) 0.00400(19)
S6 S2- 0.0175(2) 0.0223(3) 0.0116(2) -0.00520(18) 0.00524(18) -0.00182(18)
#End of TTdata_262642-ICSD