
#(C) 2018 by FIZ Karlsruhe - Leibniz Institute for Information Infrastructure.  All rights reserved.
data_262962-ICSD
_database_code_ICSD 262962
_audit_creation_date 2013-02-01
_chemical_name_systematic
'Lithium iron(II) iron(III) phosphate (0.97/0.79/0.15/1)'
_chemical_formula_structural 'Li0.97 Fe0.79 Fe0.15 (P O4)'
_chemical_formula_sum 'Fe0.94 Li0.97 O4 P1'
_chemical_name_structure_type Olivine-Mg2SiO4
_exptl_crystal_density_diffrn 3.53
_cell_measurement_temperature 293.
_publ_section_title

;
Li0.97 Fe(II)0.79 Fe(III)0.15 (P O4), a new oxidized triphylite-type phosphate
;
loop_
_citation_id
_citation_journal_full
_citation_year
_citation_journal_volume
_citation_page_first
_citation_page_last
_citation_journal_id_ASTM
primary 'Acta Crystallographica, Section C: Crystal Structure Communications'
2012 68 i53 i54 ACSCEE
loop_
_publ_author_name
'Dal Bo, F.'
'Hatert, F.'
_cell_length_a 10.3060(4)
_cell_length_b 6.0041(2)
_cell_length_c 4.69281(15)
_cell_angle_alpha 90.
_cell_angle_beta 90.
_cell_angle_gamma 90.
_cell_volume 290.38
_cell_formula_units_Z 4
_symmetry_space_group_name_H-M 'P n m a'
_symmetry_Int_Tables_number 62
_refine_ls_R_factor_all 0.0284
loop_
_symmetry_equiv_pos_site_id
_symmetry_equiv_pos_as_xyz
1 'x+1/2, y, -z+1/2'
2 'x, -y+1/2, z'
3 '-x+1/2, y+1/2, z+1/2'
4 '-x, -y, -z'
5 '-x+1/2, -y, z+1/2'
6 '-x, y+1/2, -z'
7 'x+1/2, -y+1/2, -z+1/2'
8 'x, y, z'
loop_
_atom_type_symbol
_atom_type_oxidation_number
Fe2+ 2.2
P5+ 5
O2- -2
Li1+ 1
loop_
_atom_site_label
_atom_site_type_symbol
_atom_site_symmetry_multiplicity
_atom_site_Wyckoff_symbol
_atom_site_fract_x
_atom_site_fract_y
_atom_site_fract_z
_atom_site_B_iso_or_equiv
_atom_site_occupancy
_atom_site_attached_hydrogens
Fe1 Fe2+ 4 c 0.21795(4) 0.75 0.02445(8) 0.00580(15) 0.935(4) 0
P1 P5+ 4 c 0.40493(6) 0.75 -0.41852(13) 0.0051(2) 1 0
O1 O2- 4 c 0.04312(17) 0.75 -0.2049(4) 0.0081(4) 1 0
O2 O2- 4 c 0.40280(17) 0.75 0.2574(4) 0.0087(4) 1 0
O3 O2- 8 d 0.16569(12) 0.4536(2) 0.2149(3) 0.0086(3) 1 0
Li1 Li1+ 4 b 0. 0.5 -0.5 0.0161(19) 0.97(3) 0
loop_
_atom_site_aniso_label
_atom_site_aniso_type_symbol
_atom_site_aniso_U_11
_atom_site_aniso_U_22
_atom_site_aniso_U_33
_atom_site_aniso_U_12
_atom_site_aniso_U_13
_atom_site_aniso_U_23
Fe1 Fe2+ 0.0056(2) 0.0050(2) 0.0068(2) 0. 0.00011(12) 0.
P1 P5+ 0.0059(3) 0.0055(3) 0.0038(3) 0. 0.00006(19) 0.
O1 O2- 0.0058(7) 0.0115(9) 0.0069(8) 0. -0.0003(6) 0.
O2 O2- 0.0110(9) 0.0102(8) 0.0048(8) 0. -0.0005(6) 0.
O3 O2- 0.0111(6) 0.0071(6) 0.0076(6) -0.0021(5) -0.0009(4) -0.0007(5)
Li1 Li1+ 0.021(3) 0.014(3) 0.014(3) 0.004(2) 0.0007(17) -0.0018(19)
#End of TTdata_262962-ICSD