
#(C) 2018 by FIZ Karlsruhe - Leibniz Institute for Information Infrastructure.  All rights reserved.
data_26337-ICSD
_database_code_ICSD 26337
_audit_creation_date 1984-09-05
_audit_update_record 2006-04-01
_chemical_name_systematic 'Lithium rubidium sulfate(VI) - V'
_chemical_formula_structural 'Li Rb (S O4)'
_chemical_formula_sum 'Li1 O4 Rb1 S1'
_chemical_name_structure_type CsLiBeF4
_exptl_crystal_density_diffrn 2.98
_publ_section_title 'Room-temperature phase of lithium rubidium sulphate'
loop_
_citation_id
_citation_journal_full
_citation_year
_citation_journal_volume
_citation_page_first
_citation_page_last
_citation_journal_id_ASTM
primary

;
Acta Crystallographica, Section B: Structural Crystallography and Crystal
Chemistry
; 1980 36 3084 3085 ACBCAR
loop_
_publ_author_name
'Tanisaki, S.'
'Mashiyama, H.'
'Hasebe, K.'
'Shiroishi, Y.'
'Sawada, S.'
_cell_length_a 5.288(1)
_cell_length_b 9.105(1)
_cell_length_c 8.731(1)
_cell_angle_alpha 90.
_cell_angle_beta 90.
_cell_angle_gamma 90.09(2)
_cell_volume 420.37
_cell_formula_units_Z 4
_symmetry_space_group_name_H-M 'P 1 1 21/n'
_symmetry_Int_Tables_number 14
_refine_ls_R_factor_all 0.047
loop_
_symmetry_equiv_pos_site_id
_symmetry_equiv_pos_as_xyz
1 'x+1/2, y+1/2, -z+1/2'
2 '-x, -y, -z'
3 '-x+1/2, -y+1/2, z+1/2'
4 'x, y, z'
loop_
_atom_type_symbol
_atom_type_oxidation_number
Rb1+ 1
Li1+ 1
S6+ 6
O2- -2
loop_
_atom_site_label
_atom_site_type_symbol
_atom_site_symmetry_multiplicity
_atom_site_Wyckoff_symbol
_atom_site_fract_x
_atom_site_fract_y
_atom_site_fract_z
_atom_site_B_iso_or_equiv
_atom_site_occupancy
_atom_site_attached_hydrogens
Rb1 Rb1+ 4 e 0.7355(1) 0.2225(1) 0.5043(1) . 1. 0
Li1 Li1+ 4 e 0.2434(20) 0.4103(11) 0.3242(10) . 1. 0
S1 S6+ 4 e 0.2466(2) 0.0778(1) 0.2064(1) . 1. 0
O1 O2- 4 e 0.2556(8) 0.0932(6) 0.0408(4) . 1. 0
O2 O2- 4 e 0.1491(7) 0.2132(4) 0.2739(5) . 1. 0
O3 O2- 4 e 0.5035(6) 0.0482(4) 0.2655(4) . 1. 0
O4 O2- 4 e 0.0794(7) -.0448(4) 0.2477(5) . 1. 0
loop_
_atom_site_aniso_label
_atom_site_aniso_type_symbol
_atom_site_aniso_beta_11
_atom_site_aniso_beta_22
_atom_site_aniso_beta_33
_atom_site_aniso_beta_12
_atom_site_aniso_beta_13
_atom_site_aniso_beta_23
Rb1 Rb1+ 0.0171(1) 0.0059(1) 0.0051(1) 0.0003(1) -.0004(1) 0.0005(1)
Li1 Li1+ 0.0216(32) 0.0057(10) 0.0041(9) 0.0001(14) 0.0013(14) 0.0009(8)
S1 S6+ 0.0071(2) 0.0025(1) 0.0031(1) 0.0002(1) -.0001(1) -.0004(1)
O1 O2- 0.0178(12) 0.0150(7) 0.0037(4) -.0007(7) 0.0009(6) 0.0007(4)
O2 O2- 0.0164(11) 0.0042(3) 0.0114(6) 0.0017(5) 0.0022(7) -.0027(4)
O3 O2- 0.0106(9) 0.0061(4) 0.0072(5) 0.0015(5) -.0035(5) -.0022(3)
O4 O2- 0.0157(11) 0.0039(3) 0.0095(5) -.0032(5) -.0042(6) 0.0018(3)
#End of TTdata_26337-ICSD