
#(C) 2018 by FIZ Karlsruhe - Leibniz Institute for Information Infrastructure.  All rights reserved.
data_26452-ICSD
_database_code_ICSD 26452
_audit_creation_date 1981-12-31
_audit_update_record 2012-08-01
_chemical_name_systematic 'Dilithium ditellurium oxide - beta'
_chemical_formula_structural 'Li2 Te2 O5'
_chemical_formula_sum 'Li2 O5 Te2'
_exptl_crystal_density_diffrn 4.52
_publ_section_title

;
Etude cristallochimique comparee et conductivite ionique des deux varietes Li2
Te2 O5 alpha et beta
;
loop_
_citation_id
_citation_journal_full
_citation_year
_citation_journal_volume
_citation_page_first
_citation_page_last
_citation_journal_id_ASTM
primary 'Journal of Solid State Chemistry' 1981 37 352 361 JSSCBI
loop_
_publ_author_name
'Cachau-Herreillat, D.'
'Norbert, A.'
'Maurin, M.'
'Philippot, E.'
_cell_length_a 5.194(1)
_cell_length_b 8.170(2)
_cell_length_c 24.165(5)
_cell_angle_alpha 90.
_cell_angle_beta 90.
_cell_angle_gamma 90.
_cell_volume 1025.44
_cell_formula_units_Z 8
_symmetry_space_group_name_H-M 'P n a a'
_symmetry_Int_Tables_number 56
_refine_ls_R_factor_all 0.039
loop_
_symmetry_equiv_pos_site_id
_symmetry_equiv_pos_as_xyz
1 'x+1/2, -y+1/2, z'
2 'x+1/2, y, -z+1/2'
3 '-x, y+1/2, z+1/2'
4 '-x, -y, -z'
5 '-x+1/2, y+1/2, -z'
6 '-x+1/2, -y, z+1/2'
7 'x, -y+1/2, -z+1/2'
8 'x, y, z'
loop_
_atom_type_symbol
_atom_type_oxidation_number
Te4+ 4
O2- -2
Li1+ 1
loop_
_atom_site_label
_atom_site_type_symbol
_atom_site_symmetry_multiplicity
_atom_site_Wyckoff_symbol
_atom_site_fract_x
_atom_site_fract_y
_atom_site_fract_z
_atom_site_B_iso_or_equiv
_atom_site_occupancy
_atom_site_attached_hydrogens
Te1 Te4+ 8 e 0.1636(2) 0.5652(2) 0.19322(5) . 1. 0
Te2 Te4+ 8 e 0.1416(2) 0.4280(2) 0.94418(5) . 1. 0
O1 O2- 8 e -.009(3) 0.651(2) 0.1272(6) . 1. 0
O2 O2- 8 e 0.233(3) 0.126(2) 0.0821(6) . 1. 0
O3 O2- 8 e 0.198(3) 0.509(2) 0.0340(6) . 1. 0
O4 O2- 8 e 0.305(3) 0.381(2) 0.1608(5) . 1. 0
O5 O2- 8 e 0.368(3) 0.028(2) 0.2224(6) . 1. 0
Li1 Li1+ 8 e 0.172(9) 0.164(6) 0.172(2) 2.8 1. 0
Li2 Li1+ 8 e 0.363(6) 0.349(4) 0.081(1) 0.5 1. 0
loop_
_atom_site_aniso_label
_atom_site_aniso_type_symbol
_atom_site_aniso_U_11
_atom_site_aniso_U_22
_atom_site_aniso_U_33
_atom_site_aniso_U_12
_atom_site_aniso_U_13
_atom_site_aniso_U_23
Te1 Te4+ 0.0130(5) 0.0147(5) 0.0079(5) -.0007(7) 0.0016(4) -.0024(5)
Te2 Te4+ 0.0121(5) 0.0145(5) 0.0091(5) 0.0016(7) 0.0003(4) 0.0026(5)
O1 O2- 0.016(7) 0.021(6) 0.006(5) 0.003(6) -.005(5) -.001(6)
O2 O2- 0.011(7) 0.018(6) 0.015(7) 0.010(5) 0.003(6) -.005(6)
O3 O2- 0.013(7) 0.013(5) 0.009(6) -.005(5) 0.003(5) -.002(5)
O4 O2- 0.0150(8) 0.027(7) 0.003(5) 0.008(6) -.001(5) -.004(6)
O5 O2- 0.012(7) 0.019(6) 0.015(7) 0.000(5) 0.005(5) 0.004(6)
#End of TTdata_26452-ICSD