
#(C) 2018 by FIZ Karlsruhe - Leibniz Institute for Information Infrastructure.  All rights reserved.
data_27179-ICSD
_database_code_ICSD 27179
_audit_creation_date 1982-12-31
_audit_update_record 2012-02-01
_chemical_name_systematic 'Lithium trideuterium selenate(IV)'
_chemical_formula_structural 'Li D3 (Se O3)2'
_chemical_formula_sum 'D3 Li1 O6 Se2'
_chemical_name_structure_type LiH3(SeO3)2
_exptl_crystal_density_diffrn 3.41
_publ_section_title

;
A Neutron Diffraction Study of the Ferroelectric State of Deuterated Lithium
Trihydrogenselenite, Li D3 (Se O3)2
;
loop_
_citation_id
_citation_journal_full
_citation_year
_citation_journal_volume
_citation_page_first
_citation_page_last
_citation_journal_id_ASTM
primary

;
Acta Crystallographica, Section B: Structural Crystallography and Crystal
Chemistry
; 1982 38 1551 1554 ACBCAR
loop_
_publ_author_name
'Liminga, R.'
'Tellgren, R.'
_cell_length_a 6.2473(4)
_cell_length_b 7.9030(7)
_cell_length_c 5.4471(3)
_cell_angle_alpha 90.
_cell_angle_beta 104.995(5)
_cell_angle_gamma 90.
_cell_volume 259.78
_cell_formula_units_Z 2
_symmetry_space_group_name_H-M 'P 1 n 1'
_symmetry_Int_Tables_number 7
_refine_ls_R_factor_all 0.034
loop_
_symmetry_equiv_pos_site_id
_symmetry_equiv_pos_as_xyz
1 'x+1/2, -y, z+1/2'
2 'x, y, z'
loop_
_atom_type_symbol
_atom_type_oxidation_number
Li1+ 1
Se4+ 4
O2- -2
D1+ 1
loop_
_atom_site_label
_atom_site_type_symbol
_atom_site_symmetry_multiplicity
_atom_site_Wyckoff_symbol
_atom_site_fract_x
_atom_site_fract_y
_atom_site_fract_z
_atom_site_B_iso_or_equiv
_atom_site_occupancy
_atom_site_attached_hydrogens
Li1 Li1+ 2 a 0.0039(8) 0.2433(7) 0.4778(10) . 1. 0
Se1 Se4+ 2 a 0.233 0.3946(1) 0.088 . 1. 0
Se2 Se4+ 2 a 0.7713(2) 0.1008(1) 0.9157(2) . 1. 0
O1 O2- 2 a 0.1960(3) 0.2299(2) -.1343(3) . 1. 0
O2 O2- 2 a 0.8014(3) 0.2737(2) 1.1036(3) . 1. 0
O3 O2- 2 a 0.3029(3) 0.2912(2) 0.3600(4) . 1. 0
O4 O2- 2 a 0.7160(3) 0.2012(2) 0.6144(4) . 1. 0
O5 O2- 2 a 0.4796(3) 0.4781(2) 0.0530(4) . 1. 0
O6 O2- 2 a 0.5229(3) 0.0248(2) 0.9189(3) . 1. 0
D1 D1+ 2 a 0.3286(3) 0.1484(2) -.0980(3) . 1. 0
D2 D1+ 2 a 0.6116(3) 0.3876(2) 0.0722(3) . 1. 0
D3 D1+ 2 a 0.5581(3) 0.2275(2) 0.5332(3) . 1. 0
loop_
_atom_site_aniso_label
_atom_site_aniso_type_symbol
_atom_site_aniso_beta_11
_atom_site_aniso_beta_22
_atom_site_aniso_beta_33
_atom_site_aniso_beta_12
_atom_site_aniso_beta_13
_atom_site_aniso_beta_23
Li1 Li1+ 0.0094(10) 0.0088(6) 0.0117(13) 0.0006(6) 0.0030(9) -.0002(7)
Se1 Se4+ 0.0046(2) 0.0033(1) 0.0084(3) 0.0005(1) 0.0012(2) 0.0003(1)
Se2 Se4+ 0.0045(2) 0.0030(1) 0.0096(3) 0.0002(1) 0.0015(2) 0.0001(2)
O1 O2- 0.0068(3) 0.0046(2) 0.0111(5) 0.0013(2) 0.0010(3) -.0012(2)
O2 O2- 0.0067(3) 0.0044(2) 0.0112(4) 0.0000(2) 0.0005(3) -.0019(2)
O3 O2- 0.0067(3) 0.0067(2) 0.0087(4) 0.0008(2) 0.0013(3) 0.0016(3)
O4 O2- 0.0066(4) 0.0090(3) 0.0107(5) 0.0000(2) 0.0018(3) 0.0038(3)
O5 O2- 0.0055(3) 0.0043(2) 0.0183(6) 0.0003(2) 0.0039(4) 0.0005(3)
O6 O2- 0.0066(3) 0.0037(2) 0.0151(5) -.0002(2) 0.0036(3) 0.0003(2)
D1 D1+ 0.0151(4) 0.0073(2) 0.0169(5) -.0011(2) 0.0039(3) -.0019(2)
D2 D1+ 0.0200(5) 0.0118(3) 0.0181(5) -.0074(3) 0.0059(4) -.0020(3)
D3 D1+ 0.0099(4) 0.0099(2) 0.0174(5) -.0003(2) 0.0013(3) 0.0019(3)
#End of TTdata_27179-ICSD