
#(C) 2018 by FIZ Karlsruhe - Leibniz Institute for Information Infrastructure.  All rights reserved.
data_279592-ICSD
_database_code_ICSD 279592
_audit_creation_date 2002-10-01
_chemical_name_systematic 'Trilithium antimonate'
_chemical_formula_structural 'Li3 (Sb O4)'
_chemical_formula_sum 'Li3 O4 Sb1'
_chemical_name_structure_type Na3BiO4
_exptl_crystal_density_diffrn 4.52
_publ_section_title

;
Li3 Sb O4, a comparison of the X-ray single-crystal structure with the
Rietveld refinement
;
loop_
_citation_id
_citation_journal_full
_citation_year
_citation_journal_volume
_citation_page_first
_citation_page_last
_citation_journal_id_ASTM
primary 'Acta Crystallographica, Section C: Crystal Structure Communications'
2001 57 883 884 ACSCEE
loop_
_publ_author_name
'Bernes, S.'
'Trujillo Tovar, S.'
'Castellanos, M.A.'
_cell_length_a 5.1456(5)
_cell_length_b 6.0794(5)
_cell_length_c 5.1291(6)
_cell_angle_alpha 90.
_cell_angle_beta 108.859(8)
_cell_angle_gamma 90.
_cell_volume 151.84
_cell_formula_units_Z 2
_symmetry_space_group_name_H-M 'P 1 2/c 1'
_symmetry_Int_Tables_number 13
_refine_ls_R_factor_all 0.0163
loop_
_symmetry_equiv_pos_site_id
_symmetry_equiv_pos_as_xyz
1 'x, -y, z+1/2'
2 '-x, -y, -z'
3 '-x, y, -z+1/2'
4 'x, y, z'
loop_
_atom_type_symbol
_atom_type_oxidation_number
Sb5+ 5
O2- -2
Li1+ 1
loop_
_atom_site_label
_atom_site_type_symbol
_atom_site_symmetry_multiplicity
_atom_site_Wyckoff_symbol
_atom_site_fract_x
_atom_site_fract_y
_atom_site_fract_z
_atom_site_B_iso_or_equiv
_atom_site_occupancy
_atom_site_attached_hydrogens
Sb1 Sb5+ 2 e 0 0.14338(5) 0.25 . 1. 0
O1 O2- 4 g 0.2214(5) 0.1021(4) -.0036(5) . 1. 0
O2 O2- 4 g -.2455(5) 0.3591(4) 0.0231(5) . 1. 0
Li1 Li1+ 2 e 0 0.6161(15) 0.25 . 1. 0
Li2 Li1+ 2 f 0.5 0.1485(15) -.25 . 1. 0
Li3 Li1+ 2 f 0.5 0.4227(19) 0.25 . 1. 0
loop_
_atom_site_aniso_label
_atom_site_aniso_type_symbol
_atom_site_aniso_U_11
_atom_site_aniso_U_22
_atom_site_aniso_U_33
_atom_site_aniso_U_12
_atom_site_aniso_U_13
_atom_site_aniso_U_23
Sb1 Sb5+ 0.00534(19) 0.00371(19) 0.00469(19) 0 0.00130(11) 0
O1 O2- 0.0077(11) 0.0072(12) 0.0088(11) -.0005(9) 0.0034(9) -.0024(8)
O2 O2- 0.0086(11) 0.0062(11) 0.0074(11) 0.0012(9) -.0011(9) 0.0017(8)
Li1 Li1+ 0.026(5) 0.009(5) 0.019(5) 0 0.002(4) 0
Li2 Li1+ 0.015(5) 0.011(4) 0.030(5) 0 0.007(4) 0
Li3 Li1+ 0.018(5) 0.025(5) 0.020(4) 0 0.013(4) 0
#End of TTdata_279592-ICSD