
#(C) 2018 by FIZ Karlsruhe - Leibniz Institute for Information Infrastructure.  All rights reserved.
data_280696-ICSD
_database_code_ICSD 280696
_audit_creation_date 2002-10-01
_chemical_name_systematic 'Lithium manganese(I) nitride (2.33/0.67/1)'
_chemical_formula_structural 'Li2 ((Li0.33 Mn0.67) N)'
_chemical_formula_sum 'Li2.33 Mn0.67 N1'
_chemical_name_structure_type Li3N
_exptl_crystal_density_diffrn 2.44
_publ_section_title

;
Li24 (Mn N3)3 N2 and Li5 ((Li1-x Mnx) N)3, two intermediates in the
decomposition path of Li7 (Mn N4) to Li2 ((Li1-x Mnx) N): an experimental and
theoretical study
;
loop_
_citation_id
_citation_journal_full
_citation_year
_citation_journal_volume
_citation_page_first
_citation_page_last
_citation_journal_id_ASTM
primary 'Inorganic Chemistry' 2001 40 5215 5222 INOCAJ
loop_
_publ_author_name
'Niewa, R.'
'Wagner, F.R.'
'Schnelle, W.'
'Hochrein, O.'
'Kniep, R.'
_cell_length_a 3.7125(4)
_cell_length_b 3.7125(4)
_cell_length_c 3.8212(6)
_cell_angle_alpha 90.
_cell_angle_beta 90.
_cell_angle_gamma 120.
_cell_volume 45.61
_cell_formula_units_Z 1
_symmetry_space_group_name_H-M 'P 6/m m m'
_symmetry_Int_Tables_number 191
_refine_ls_R_factor_all 0.0206
loop_
_symmetry_equiv_pos_site_id
_symmetry_equiv_pos_as_xyz
1 '-x, -x+y, -z'
2 'x-y, -y, -z'
3 'y, x, -z'
4 '-x+y, -x, -z'
5 '-y, x-y, -z'
6 'x, y, -z'
7 'x, x-y, -z'
8 '-x+y, y, -z'
9 '-y, -x, -z'
10 'x-y, x, -z'
11 'y, -x+y, -z'
12 '-x, -y, -z'
13 'x, x-y, z'
14 '-x+y, y, z'
15 '-y, -x, z'
16 'x-y, x, z'
17 'y, -x+y, z'
18 '-x, -y, z'
19 '-x, -x+y, z'
20 'x-y, -y, z'
21 'y, x, z'
22 '-x+y, -x, z'
23 '-y, x-y, z'
24 'x, y, z'
loop_
_atom_type_symbol
_atom_type_oxidation_number
N3- -3
Mn1+ 1
Li1+ 1
loop_
_atom_site_label
_atom_site_type_symbol
_atom_site_symmetry_multiplicity
_atom_site_Wyckoff_symbol
_atom_site_fract_x
_atom_site_fract_y
_atom_site_fract_z
_atom_site_B_iso_or_equiv
_atom_site_occupancy
_atom_site_attached_hydrogens
N1 N3- 1 a 0 0 0 . 1. 0
Mn1 Mn1+ 1 b 0 0 0.5 . 0.671(17) 0
Li1 Li1+ 1 b 0 0 0.5 . 0.329(17) 0
Li2 Li1+ 2 c 0.3333 0.6667 0 . 1. 0
loop_
_atom_site_aniso_label
_atom_site_aniso_type_symbol
_atom_site_aniso_U_11
_atom_site_aniso_U_22
_atom_site_aniso_U_33
_atom_site_aniso_U_12
_atom_site_aniso_U_13
_atom_site_aniso_U_23
N1 N3- 0.021(3) 0.021(3) 0.010(4) 0.0106(15) 0 0
Mn1 Mn1+ 0.0382(16) 0.0382(16) 0.0066(15) 0.0191(8) 0 0
Li1 Li1+ 0.0382(16) 0.0382(16) 0.0066(15) 0.0191(8) 0 0
Li2 Li1+ 0.062(6) 0.062(6) 0.037(7) 0.031(3) 0 0
#End of TTdata_280696-ICSD