
#(C) 2018 by FIZ Karlsruhe - Leibniz Institute for Information Infrastructure.  All rights reserved.
data_280871-ICSD
_database_code_ICSD 280871
_audit_creation_date 2002-10-01
_chemical_name_systematic 'Lithium vanadium oxide (0.67/6/13)'
_chemical_formula_structural 'Li0.67 V6 O13'
_chemical_formula_sum 'Li0.67 O13 V6'
_exptl_crystal_density_diffrn 3.84
_publ_section_title

;
Superlattice formation in the lithiated vanadium oxide phases Li0.67 V6 O13
and Li V6 O13
;
loop_
_citation_id
_citation_journal_full
_citation_year
_citation_journal_volume
_citation_page_first
_citation_page_last
_citation_journal_id_ASTM
primary 'Acta Crystallographica, Section B: Structural Science' 2001 57 759 765
ASBSDK
loop_
_publ_author_name
'Bjoerk, H.'
'Lidin, S.'
'Gustafsson, T.'
'Thomas, J.O.'
_cell_length_a 21.8480(20)
_cell_length_b 3.6904(3)
_cell_length_c 17.245(2)
_cell_angle_alpha 90.
_cell_angle_beta 105.01(1)
_cell_angle_gamma 90.
_cell_volume 1342.99
_cell_formula_units_Z 6
_symmetry_space_group_name_H-M 'C 1 2/m 1'
_symmetry_Int_Tables_number 12
_refine_ls_R_factor_all 0.0356
loop_
_symmetry_equiv_pos_site_id
_symmetry_equiv_pos_as_xyz
1 '-x, y, -z'
2 '-x, -y, -z'
3 'x, -y, z'
4 'x, y, z'
5 '-x+1/2, y+1/2, -z'
6 '-x+1/2, -y+1/2, -z'
7 'x+1/2, -y+1/2, z'
8 'x+1/2, y+1/2, z'
loop_
_atom_type_symbol
_atom_type_oxidation_number
V4+ 4
V4+ 4.67
V4+ 4
O2- -2
Li1+ 1
loop_
_atom_site_label
_atom_site_type_symbol
_atom_site_symmetry_multiplicity
_atom_site_Wyckoff_symbol
_atom_site_fract_x
_atom_site_fract_y
_atom_site_fract_z
_atom_site_B_iso_or_equiv
_atom_site_occupancy
_atom_site_attached_hydrogens
V1 V4+ 4 i 0.12135(3) 0 0.23855(4) . 1. 0
V2 V4+ 4 i 0.44842(3) 0 -.09924(4) . 1. 0
V3 V4+ 4 i 0.79923(3) 0 0.54822(3) . 1. 0
V4 V4+ 4 i 0.25918(3) 0 0.15174(4) . 1. 0
V5 V4+ 4 i 0.58889(3) 0 -.17546(4) . 1. 0
V6 V4+ 4 i 0.94004(3) 0 0.47324(4) . 1. 0
V7 V4+ 4 i 0.36205(3) 0 0.34553(4) . 1. 0
V8 V4+ 4 i 0.69178(3) 0 0.02124(4) . 1. 0
V9 V4+ 4 i 0.02271(3) 0 0.69348(4) . 1. 0
O1 O2- 4 i 0.38940(14) 0 -.2145(2) . 1. 0
O2 O2- 4 i 0.0625(2) 0 0.1202(3) . 1. 0
O3 O2- 4 i 0.7298(2) 0 0.4499(2) . 1. 0
O4 O2- 4 i 0.4251(2) 0 0.4574(3) . 1. 0
O5 O2- 4 i 0.0865(2) 0 0.7966(2) . 1. 0
O6 O2- 4 i 0.7577(2) 0 0.1254(2) . 1. 0
O7 O2- 4 i 0.5485(2) 0 -.2998(2) . 1. 0
O8 O2- 4 i 0.2182(2) 0 0.0309(3) . 1. 0
O9 O2- 4 i 0.8861(2) 0 0.3553(3) . 1. 0
O10 O2- 2 b 0.5 0 0 . 1. 0
O11 O2- 4 i 0.82961(19) 0 0.6653(2) . 1. 0
O12 O2- 4 i 0.52580(15) 0 -.13944(18) . 1. 0
O13 O2- 4 i 0.20042(15) 0 0.19700(18) . 1. 0
O14 O2- 4 i 0.86374(16) 0 0.5180(2) . 1. 0
O15 O2- 4 i 0.62703(16) 0 0.05310(18) . 1. 0
O16 O2- 4 i 0.29444(16) 0 0.3696(2) . 1. 0
O17 O2- 4 i 0.95526(15) 0 0.71941(18) . 1. 0
O18 O2- 4 i 0.6539(2) 0 -.0908(3) . 1. 0
O19 O2- 4 i 0.3280(2) 0 0.2331(2) . 1. 0
O20 O2- 4 i 1.0085(2) 0 0.4234(3) . 1. 0
Li1 Li1+ 4 i 0.7379(6) 0 0.3396(6) . 1. 0
loop_
_atom_site_aniso_label
_atom_site_aniso_type_symbol
_atom_site_aniso_U_11
_atom_site_aniso_U_22
_atom_site_aniso_U_33
_atom_site_aniso_U_12
_atom_site_aniso_U_13
_atom_site_aniso_U_23
V1 V4+ 0.0096(3) 0.0042(4) 0.0049(3) 0 0.0002(2) 0
V2 V4+ 0.0115(3) 0.0055(4) 0.0080(3) 0 0.0030(2) 0
V3 V4+ 0.0095(3) 0.0034(3) 0.0052(3) 0 0.0008(2) 0
V4 V4+ 0.0084(3) 0.0038(3) 0.0036(3) 0 0.0014(2) 0
V5 V4+ 0.0085(3) 0.0035(3) 0.0037(3) 0 0.0015(2) 0
V6 V4+ 0.0095(3) 0.0205(4) 0.0033(3) 0 0.0000(2) 0
V7 V4+ 0.0088(3) 0.0036(3) 0.0062(3) 0 0.0010(2) 0
V8 V4+ 0.0081(3) 0.0037(3) 0.0045(3) 0 0.0017(2) 0
V9 V4+ 0.0073(3) 0.0038(3) 0.0041(3) 0 0.0009(2) 0
O1 O2- 0.006(2) 0.007(2) 0.006(2) 0 -.0004(17) 0
O2 O2- 0.022(2) 0.006(2) 0.012(2) 0 0.0071(15) 0
O3 O2- 0.0127(17) 0.004(2) 0.0046(18) 0 0.0000(13) 0
O4 O2- 0.0056(18) 0.0049(18) 0.0031(19) 0 -.0025(13) 0
O5 O2- 0.011(2) 0.0030(16) 0.0027(15) 0 -.0009(13) 0
O6 O2- 0.010(2) 0.0036(17) 0.0030(17) 0 -.0012(13) 0
O7 O2- 0.0122(18) 0.0030(16) 0.0040(18) 0 0.0009(14) 0
O8 O2- 0.015(2) 0.0024(19) 0.004(2) 0 0.0021(16) 0
O9 O2- 0.022(2) 0.0028(17) 0.0026(16) 0 0.0013(16) 0
O10 O2- 0.017(3) 0.025(4) 0.007(2) 0 0.004(2) 0
O11 O2- 0.008(2) 0.013(3) 0.003(2) 0 -.0006(16) 0
O12 O2- 0.0126(15) 0.0083(16) 0.0101(14) 0 0.0057(11) 0
O13 O2- 0.0103(14) 0.0116(17) 0.0096(13) 0 0.0040(11) 0
O14 O2- 0.0118(14) 0.0150(18) 0.0122(14) 0 0.0034(11) 0
O15 O2- 0.0097(15) 0.0128(17) 0.0085(13) 0 0.0040(11) 0
O16 O2- 0.0158(15) 0.0126(16) 0.0109(14) 0 0.0042(12) 0
O17 O2- 0.0097(14) 0.0097(16) 0.0112(14) 0 0.0042(11) 0
O18 O2- 0.0119(18) 0.004(2) 0.0041(18) 0 -.0004(13) 0
O19 O2- 0.0145(19) 0.0063(17) 0.0044(17) 0 -.0007(14) 0
O20 O2- 0.0078(17) 0.007(2) 0.0039(16) 0 -.0008(12) 0
Li1 Li1+ 0.066(8) 0.036(6) 0.025(5) 0 0.026(4) 0
#End of TTdata_280871-ICSD