
#(C) 2018 by FIZ Karlsruhe - Leibniz Institute for Information Infrastructure.  All rights reserved.
data_280957-ICSD
_database_code_ICSD 280957
_audit_creation_date 2003-04-01
_chemical_name_systematic 'Lithium potassium tungstate hydrate'
_chemical_formula_structural 'Li K (W O4) (H2 O)'
_chemical_formula_sum 'H2 K1 Li1 O5 W1'
_chemical_name_structure_type Ca2SiO3(OH)2
_exptl_crystal_density_diffrn 3.88
_publ_section_title
'Lithium potassium tungstate monohydrate, Li K W O4 * (H2 O)'
loop_
_citation_id
_citation_journal_full
_citation_year
_citation_journal_volume
_citation_page_first
_citation_page_last
_citation_journal_id_ASTM
primary 'Acta Crystallographica, Section E: Structure Reports Online' 2002 58 26
28 ACSEBH
loop_
_publ_author_name
'Radosavljevic Evans, I.'
'Howard, J.A.K.'
_cell_length_a 10.671(2)
_cell_length_b 7.767(2)
_cell_length_c 12.876(3)
_cell_angle_alpha 90.
_cell_angle_beta 90.
_cell_angle_gamma 90.
_cell_volume 1067.18
_cell_formula_units_Z 8
_symmetry_space_group_name_H-M 'P b c a'
_symmetry_Int_Tables_number 61
_refine_ls_R_factor_all 0.02
loop_
_symmetry_equiv_pos_site_id
_symmetry_equiv_pos_as_xyz
1 'x+1/2, y, -z+1/2'
2 'x, -y+1/2, z+1/2'
3 '-x+1/2, y+1/2, z'
4 '-x, -y, -z'
5 '-x+1/2, -y, z+1/2'
6 '-x, y+1/2, -z+1/2'
7 'x+1/2, -y+1/2, -z'
8 'x, y, z'
loop_
_atom_type_symbol
_atom_type_oxidation_number
W6+ 6
O2- -2
K1+ 1
Li1+ 1
H1+ 1
loop_
_atom_site_label
_atom_site_type_symbol
_atom_site_symmetry_multiplicity
_atom_site_Wyckoff_symbol
_atom_site_fract_x
_atom_site_fract_y
_atom_site_fract_z
_atom_site_B_iso_or_equiv
_atom_site_occupancy
_atom_site_attached_hydrogens
W1 W6+ 8 c 0.131040(16) 0.56205(3) 0.124849(19) 0.0159 1. 0
O1 O2- 8 c 0.2668(4) 0.5782(7) 0.2027(4) 0.0304 1. 0
O2 O2- 8 c 0.1694(5) 0.4688(5) 0.0056(4) 0.027 1. 0
O3 O2- 8 c 0.0668(4) 0.7708(5) 0.1022(3) 0.0231 1. 0
O4 O2- 8 c 0.0193(4) 0.4337(6) 0.1933(3) 0.0269 1. 0
O5 O2- 8 c 0.9492(4) 0.1350(6) 0.1037(3) 0.0267 1. 0
K1 K1+ 8 c 0.19690(11) 0.30668(19) 0.36823(11) 0.0274 1. 0
Li1 Li1+ 8 c 0.4315(9) 0.4838(13) 0.1775(7) 0.0181 1. 0
H1 H1+ 8 c 0.947(8) 0.164(9) 0.0345(16) 0.043(18) 1. 0
H2 H1+ 8 c 0.974(8) 0.234(5) 0.137(5) 0.043(18) 1. 0
loop_
_atom_site_aniso_label
_atom_site_aniso_type_symbol
_atom_site_aniso_U_11
_atom_site_aniso_U_22
_atom_site_aniso_U_33
_atom_site_aniso_U_12
_atom_site_aniso_U_13
_atom_site_aniso_U_23
W1 W6+ 0.01885(13) 0.01599(13) 0.01286(13) 0.00162(9) 0.0011(1) -0.00208(9)
O1 O2- 0.023(2) 0.041(3) 0.027(2) 0.006(2) -0.0038(18) -0.004(2)
O2 O2- 0.034(2) 0.021(2) 0.026(2) 0.0042(19) 0.002(2) -0.0066(19)
O3 O2- 0.030(2) 0.019(2) 0.020(3) -0.0027(17) -0.0045(18) 0.0021(15)
O4 O2- 0.032(2) 0.027(2) 0.022(2) -0.008(2) 0.0071(18) -0.0051(19)
O5 O2- 0.035(2) 0.0195(19) 0.025(2) 0.0032(19) -0.0065(19) -0.0019(17)
K1 K1+ 0.0301(5) 0.0276(6) 0.0244(6) 0.0026(5) -0.0012(6) 0.0004(7)
Li1 Li1+ 0.020(5) 0.020(5) 0.014(5) 0.002(4) 0.005(4) 0.002(4)
#End of TTdata_280957-ICSD