
#(C) 2018 by FIZ Karlsruhe - Leibniz Institute for Information Infrastructure.  All rights reserved.
data_28106-ICSD
_database_code_ICSD 28106
_audit_creation_date 1980-01-01
_audit_update_record 2012-08-01
_chemical_name_systematic 'Lithium borogermanate'
_chemical_formula_structural 'Li (B Ge O4)'
_chemical_formula_sum 'B1 Ge1 Li1 O4'
_exptl_crystal_density_diffrn 3.67
_publ_section_title
'The crystal structure of lithium boro-germanate, Li2 O B2 O3 (Ge O2)2'
loop_
_citation_id
_citation_journal_full
_citation_year
_citation_journal_volume
_citation_page_first
_citation_page_last
_citation_journal_id_ASTM
primary 'Yogyo Kyokai Shi (= Journal of the Ceramic Assoc. of Japan)' 1971 79
152 155 YGKSA4
loop_
_publ_author_name
'Ihara, M.'
_cell_length_a 6.371(8)
_cell_length_b 6.365(8)
_cell_length_c 6.885(9)
_cell_angle_alpha 90.
_cell_angle_beta 90.
_cell_angle_gamma 90.
_cell_volume 279.2
_cell_formula_units_Z 4
_symmetry_space_group_name_H-M 'F m m 2'
_symmetry_Int_Tables_number 42
loop_
_symmetry_equiv_pos_site_id
_symmetry_equiv_pos_as_xyz
1 'x, -y, z'
2 '-x, y, z'
3 '-x, -y, z'
4 'x, y, z'
5 'x, -y+1/2, z+1/2'
6 '-x, y+1/2, z+1/2'
7 '-x, -y+1/2, z+1/2'
8 'x, y+1/2, z+1/2'
9 'x+1/2, -y, z+1/2'
10 '-x+1/2, y, z+1/2'
11 '-x+1/2, -y, z+1/2'
12 'x+1/2, y, z+1/2'
13 'x+1/2, -y+1/2, z'
14 '-x+1/2, y+1/2, z'
15 '-x+1/2, -y+1/2, z'
16 'x+1/2, y+1/2, z'
loop_
_atom_type_symbol
_atom_type_oxidation_number
Li1+ 1
B3+ 3
Ge4+ 4
O2- -2
loop_
_atom_site_label
_atom_site_type_symbol
_atom_site_symmetry_multiplicity
_atom_site_Wyckoff_symbol
_atom_site_fract_x
_atom_site_fract_y
_atom_site_fract_z
_atom_site_B_iso_or_equiv
_atom_site_occupancy
_atom_site_attached_hydrogens
Li1 Li1+ 4 a 0 0 0.992 0.1 1. 0
B1 B3+ 4 a 0 0 0.746 0.1 1. 0
Ge1 Ge4+ 4 a 0 0 0.25 1.9 1. 0
O1 O2- 8 d 0.243 0 0.142 1.6 1. 0
O2 O2- 8 c 0 0.247 0.39 0.1 1. 0
#End of TTdata_28106-ICSD