
#(C) 2018 by FIZ Karlsruhe - Leibniz Institute for Information Infrastructure.  All rights reserved.
data_281012-ICSD
_database_code_ICSD 281012
_audit_creation_date 2003-04-01
_chemical_name_systematic 'Dilithium europium(II) germanium sulfide'
_chemical_formula_structural 'Li2 Eu Ge S4'
_chemical_formula_sum 'Eu1 Ge1 Li2 S4'
_chemical_name_structure_type K3VO4
_exptl_crystal_density_diffrn 3.69
_cell_measurement_temperature 173.
_publ_section_title

;
Li2 Pb Ge S4 and Li2 Eu Ge S4: polar chalcopyrites with a severe tetragonal
compression
;
loop_
_citation_id
_citation_journal_full
_citation_year
_citation_journal_volume
_citation_page_first
_citation_page_last
_citation_journal_id_ASTM
primary 'Chemistry of Materials' 2001 13 4714 4721 CMATEX
loop_
_publ_author_name
'Aitken, J.A.'
'Larson, P.'
'Mahanti, S.D.'
'Kanatzidis, M.G.'
_cell_length_a 6.5447(4)
_cell_length_b 6.5447(4)
_cell_length_c 7.6960(6)
_cell_angle_alpha 90.
_cell_angle_beta 90.
_cell_angle_gamma 90.
_cell_volume 329.64
_cell_formula_units_Z 2
_symmetry_space_group_name_H-M 'I -4 2 m'
_symmetry_Int_Tables_number 121
_refine_ls_R_factor_all 0.0224
loop_
_symmetry_equiv_pos_site_id
_symmetry_equiv_pos_as_xyz
1 '-y, -x, z'
2 'y, x, z'
3 'y, -x, -z'
4 '-y, x, -z'
5 'x, -y, -z'
6 '-x, y, -z'
7 '-x, -y, z'
8 'x, y, z'
9 '-y+1/2, -x+1/2, z+1/2'
10 'y+1/2, x+1/2, z+1/2'
11 'y+1/2, -x+1/2, -z+1/2'
12 '-y+1/2, x+1/2, -z+1/2'
13 'x+1/2, -y+1/2, -z+1/2'
14 '-x+1/2, y+1/2, -z+1/2'
15 '-x+1/2, -y+1/2, z+1/2'
16 'x+1/2, y+1/2, z+1/2'
loop_
_atom_type_symbol
_atom_type_oxidation_number
Eu2+ 2
Ge4+ 4
S2- -2
Li1+ 1
loop_
_atom_site_label
_atom_site_type_symbol
_atom_site_symmetry_multiplicity
_atom_site_Wyckoff_symbol
_atom_site_fract_x
_atom_site_fract_y
_atom_site_fract_z
_atom_site_B_iso_or_equiv
_atom_site_occupancy
_atom_site_attached_hydrogens
Eu1 Eu2+ 2 a 0 0 0 0.0089(4) 1. 0
Ge1 Ge4+ 2 b 0 0 0.5 0.0075(4) 1. 0
S1 S2- 8 i 0.30362(17) 0.30362(17) 0.1636(2) 0.0095(5) 1. 0
Li1 Li1+ 4 d 0 0.5 0.25 0.014(5) 1. 0
loop_
_atom_site_aniso_label
_atom_site_aniso_type_symbol
_atom_site_aniso_U_11
_atom_site_aniso_U_22
_atom_site_aniso_U_33
_atom_site_aniso_U_12
_atom_site_aniso_U_13
_atom_site_aniso_U_23
Eu1 Eu2+ 0.0070(4) 0.0070(4) 0.0127(5) 0 0 0
Ge1 Ge4+ 0.0041(5) 0.0041(5) 0.0144(7) 0 0 0
S1 S2- 0.0070(6) 0.0070(6) 0.0143(9) -0.0012(7) 0.0000(5) 0.0000(5)
Li1 Li1+ 0.004(6) 0.004(6) 0.033(13) 0 0 0
#End of TTdata_281012-ICSD