
#(C) 2018 by FIZ Karlsruhe - Leibniz Institute for Information Infrastructure.  All rights reserved.
data_281198-ICSD
_database_code_ICSD 281198
_audit_creation_date 2003-10-01
_audit_update_record 2008-02-01
_chemical_name_systematic 'Lithium chloride hydrate'
_chemical_formula_structural 'Li Cl (H2 O)'
_chemical_formula_sum 'H2 Cl1 Li1 O1'
_exptl_crystal_density_diffrn 1.78
_cell_measurement_temperature 173.
_publ_section_title
'An orthorhombic modification of lithium chloride monohydrate'
loop_
_citation_id
_citation_journal_full
_citation_year
_citation_journal_volume
_citation_page_first
_citation_page_last
_citation_journal_id_ASTM
primary 'Acta Crystallographica, Section E: Structure Reports Online' 2003 59
i20 i21 ACSEBH
loop_
_publ_author_name
'Lerner, H.W.'
'Bolte, M.'
_cell_length_a 7.6259(13)
_cell_length_b 7.7107(16)
_cell_length_c 7.6592(13)
_cell_angle_alpha 90.
_cell_angle_beta 90.
_cell_angle_gamma 90.
_cell_volume 450.37
_cell_formula_units_Z 8
_symmetry_space_group_name_H-M 'C m c m'
_symmetry_Int_Tables_number 63
_refine_ls_R_factor_all 0.019
loop_
_symmetry_equiv_pos_site_id
_symmetry_equiv_pos_as_xyz
1 '-x, y, -z+1/2'
2 '-x, -y, z+1/2'
3 '-x, y, z'
4 '-x, -y, -z'
5 'x, -y, z+1/2'
6 'x, y, -z+1/2'
7 'x, -y, -z'
8 'x, y, z'
9 '-x+1/2, y+1/2, -z+1/2'
10 '-x+1/2, -y+1/2, z+1/2'
11 '-x+1/2, y+1/2, z'
12 '-x+1/2, -y+1/2, -z'
13 'x+1/2, -y+1/2, z+1/2'
14 'x+1/2, y+1/2, -z+1/2'
15 'x+1/2, -y+1/2, -z'
16 'x+1/2, y+1/2, z'
loop_
_atom_type_symbol
_atom_type_oxidation_number
O2- -2
H1+ 1
Cl1- -1
Li1+ 1
loop_
_atom_site_label
_atom_site_type_symbol
_atom_site_symmetry_multiplicity
_atom_site_Wyckoff_symbol
_atom_site_fract_x
_atom_site_fract_y
_atom_site_fract_z
_atom_site_B_iso_or_equiv
_atom_site_occupancy
_atom_site_attached_hydrogens
O1 O2- 8 f 0 0.23543(9) 0.00561(8) 0.0159(2) 1. 0
H1 H1+ 16 h 0.0868(16) 0.1994(15) 0.0598(18) 0.040(3) 1. 0
Cl1 Cl1- 8 g 0.26205(3) 0.02380(4) 0.25 0.01605(15) 1. 0
Li1 Li1+ 4 b 0.5 0 0 0.0270(7) 1. 0
Li2 Li1+ 4 c 0.5 0.3138(4) 0.25 0.0308(6) 1. 0
loop_
_atom_site_aniso_label
_atom_site_aniso_type_symbol
_atom_site_aniso_U_11
_atom_site_aniso_U_22
_atom_site_aniso_U_33
_atom_site_aniso_U_12
_atom_site_aniso_U_13
_atom_site_aniso_U_23
O1 O2- 0.0156(5) 0.0205(4) 0.0117(5) 0 0 0.0022(3)
Cl1 Cl1- 0.01580(19) 0.0200(2) 0.01235(18) 0.00075(7) 0 0
Li1 Li1+ 0.0357(19) 0.0168(10) 0.0284(15) 0 0 -0.004(1)
Li2 Li1+ 0.0454(18) 0.0332(13) 0.0138(12) 0 0 0
#End of TTdata_281198-ICSD