
#(C) 2018 by FIZ Karlsruhe - Leibniz Institute for Information Infrastructure.  All rights reserved.
data_281126-ICSD
_database_code_ICSD 281126
_audit_creation_date 2003-04-01
_chemical_name_systematic 'Tribarium lithium nonaoxodiruthenate'
_chemical_formula_structural 'Ba3 Li (Ru2 O9)'
_chemical_formula_sum 'Ba3 Li1 O9 Ru2'
_chemical_name_structure_type BaFeO2+x
_exptl_crystal_density_diffrn 6.2
_publ_section_title

;
Novel mixed-valent (V/VI) triple perovskite ruthenates: observation  of a
complex low-temperature structural and magnetic transition
;
loop_
_citation_id
_citation_journal_full
_citation_year
_citation_journal_volume
_citation_page_first
_citation_page_last
_citation_journal_id_ASTM
primary 'Journal of the American Chemical Society' 2002 124 13877 13885 JACSAT
loop_
_publ_author_name
'Stitzer, K.E.'
'Smith, M.D.'
'Gemmill, W.R.'
'zur Loye, H.C.'
_cell_length_a 5.7820(2)
_cell_length_b 5.7820(2)
_cell_length_c 14.1490(8)
_cell_angle_alpha 90.
_cell_angle_beta 90.
_cell_angle_gamma 120.
_cell_volume 409.65
_cell_formula_units_Z 2
_symmetry_space_group_name_H-M 'P 63/m m c'
_symmetry_Int_Tables_number 194
_refine_ls_R_factor_all 0.0293
loop_
_symmetry_equiv_pos_site_id
_symmetry_equiv_pos_as_xyz
1 'x, x-y, -z+1/2'
2 '-x+y, y, -z+1/2'
3 '-y, -x, -z+1/2'
4 '-x+y, -x, -z+1/2'
5 '-y, x-y, -z+1/2'
6 'x, y, -z+1/2'
7 '-x, -x+y, z+1/2'
8 'x-y, -y, z+1/2'
9 'y, x, z+1/2'
10 'x-y, x, z+1/2'
11 'y, -x+y, z+1/2'
12 '-x, -y, z+1/2'
13 '-x, -x+y, -z'
14 'x-y, -y, -z'
15 'y, x, -z'
16 'x-y, x, -z'
17 'y, -x+y, -z'
18 '-x, -y, -z'
19 'x, x-y, z'
20 '-x+y, y, z'
21 '-y, -x, z'
22 '-x+y, -x, z'
23 '-y, x-y, z'
24 'x, y, z'
loop_
_atom_type_symbol
_atom_type_oxidation_number
Ba2+ 2
Li1+ 1
Ru5+ 5.5
O2- -2
loop_
_atom_site_label
_atom_site_type_symbol
_atom_site_symmetry_multiplicity
_atom_site_Wyckoff_symbol
_atom_site_fract_x
_atom_site_fract_y
_atom_site_fract_z
_atom_site_B_iso_or_equiv
_atom_site_occupancy
_atom_site_attached_hydrogens
Ba1 Ba2+ 4 f 0.3333 0.6667 0.59070(3) 0.01162(12) 1. 0
Ba2 Ba2+ 2 b 0 0 0.25 0.00928(13) 1. 0
Li1 Li1+ 2 a 0 0 0 0.035(7) 1. 0
Ru1 Ru5+ 4 f 0.3333 0.6667 0.34781(4) 0.00726(12) 1. 0
O1 O2- 6 h 0.4828(4) 0.9656(8) 0.25 0.0093(7) 1. 0
O2 O2- 12 k 0.1744(3) 0.3488(6) 0.4148(2) 0.0126(6) 1. 0
loop_
_atom_site_aniso_label
_atom_site_aniso_type_symbol
_atom_site_aniso_U_11
_atom_site_aniso_U_22
_atom_site_aniso_U_33
_atom_site_aniso_U_12
_atom_site_aniso_U_13
_atom_site_aniso_U_23
Ba1 Ba2+ 0.01050(13) 0.01050(13) 0.01386(19) 0.00525(7) 0 0
Ba2 Ba2+ 0.00874(15) 0.00874(15) 0.0104(3) 0.00437(7) 0 0
Li1 Li1+ 0.024(8) 0.024(8) 0.06(2) 0.012(4) 0 0
Ru1 Ru5+ 0.00676(14) 0.00676(14) 0.0083(2) 0.00338(7) 0 0
O1 O2- 0.0096(11) 0.0040(15) 0.0123(18) 0.0020(7) 0 0
O2 O2- 0.0128(9) 0.0105(12) 0.0138(13) 0.0052(6) 0.0027(6) 0.0055(11)
#End of TTdata_281126-ICSD