
#(C) 2018 by FIZ Karlsruhe - Leibniz Institute for Information Infrastructure.  All rights reserved.
data_281215-ICSD
_database_code_ICSD 281215
_audit_creation_date 2003-10-01
_chemical_name_systematic 'Lithium niobium sulfide (0.63/1/2)'
_chemical_formula_structural 'Li0.63 Nb S2'
_chemical_formula_sum 'Li0.63 Nb1 S2'
_chemical_name_structure_type FeNb2S4
_exptl_crystal_density_diffrn 4.29
_cell_measurement_temperature 150.
_publ_section_title 'Lithium niobium disulfide, Li0.63 Nb S2'
loop_
_citation_id
_citation_journal_full
_citation_year
_citation_journal_volume
_citation_page_first
_citation_page_last
_citation_journal_id_ASTM
primary 'Acta Crystallographica, Section C: Crystal Structure Communications'
2003 59 4 6 ACSCEE
loop_
_publ_author_name
'Salyer, P.A.'
'Barker, M.G.'
'Blake, A.J.'
'Gregory, D.H.'
'Wilson, C.'
_cell_length_a 3.3477(8)
_cell_length_b 3.3477(8)
_cell_length_c 12.875(4)
_cell_angle_alpha 90.
_cell_angle_beta 90.
_cell_angle_gamma 120.
_cell_volume 124.96
_cell_formula_units_Z 2
_symmetry_space_group_name_H-M 'P 63/m m c'
_symmetry_Int_Tables_number 194
_refine_ls_R_factor_all 0.018
loop_
_symmetry_equiv_pos_site_id
_symmetry_equiv_pos_as_xyz
1 'x, x-y, -z+1/2'
2 '-x+y, y, -z+1/2'
3 '-y, -x, -z+1/2'
4 '-x+y, -x, -z+1/2'
5 '-y, x-y, -z+1/2'
6 'x, y, -z+1/2'
7 '-x, -x+y, z+1/2'
8 'x-y, -y, z+1/2'
9 'y, x, z+1/2'
10 'x-y, x, z+1/2'
11 'y, -x+y, z+1/2'
12 '-x, -y, z+1/2'
13 '-x, -x+y, -z'
14 'x-y, -y, -z'
15 'y, x, -z'
16 'x-y, x, -z'
17 'y, -x+y, -z'
18 '-x, -y, -z'
19 'x, x-y, z'
20 '-x+y, y, z'
21 '-y, -x, z'
22 '-x+y, -x, z'
23 '-y, x-y, z'
24 'x, y, z'
loop_
_atom_type_symbol
_atom_type_oxidation_number
Nb3+ 3.37
S2- -2
Li1+ 1
loop_
_atom_site_label
_atom_site_type_symbol
_atom_site_symmetry_multiplicity
_atom_site_Wyckoff_symbol
_atom_site_fract_x
_atom_site_fract_y
_atom_site_fract_z
_atom_site_B_iso_or_equiv
_atom_site_occupancy
_atom_site_attached_hydrogens
Nb1 Nb3+ 2 b 0 0 0.25 0.0063(3) 1. 0
S1 S2- 4 f 0.3333 0.6667 0.12824(9) 0.0071(4) 1. 0
Li1 Li1+ 2 a 0 0 0 0.009(5) 0.63(6) 0
loop_
_atom_site_aniso_label
_atom_site_aniso_type_symbol
_atom_site_aniso_U_11
_atom_site_aniso_U_22
_atom_site_aniso_U_33
_atom_site_aniso_U_12
_atom_site_aniso_U_13
_atom_site_aniso_U_23
Nb1 Nb3+ 0.0053(3) 0.0053(3) 0.0081(4) 0.00267(16) 0 0
S1 S2- 0.0062(5) 0.0062(5) 0.0090(6) 0.0031(2) 0 0
Li1 Li1+ 0.011(8) 0.011(8) 0.006(6) 0.005(4) 0 0
#End of TTdata_281215-ICSD