
#(C) 2018 by FIZ Karlsruhe - Leibniz Institute for Information Infrastructure.  All rights reserved.
data_281247-ICSD
_database_code_ICSD 281247
_audit_creation_date 2003-10-01
_audit_update_record 2008-08-01
_chemical_name_systematic 'Barium lithium osmium oxide (3/1/2/9)'
_chemical_formula_structural 'Ba3 Li Os2 O9'
_chemical_formula_sum 'Ba3 Li1 O9 Os2'
_chemical_name_structure_type BaFeO2+x
_exptl_crystal_density_diffrn 7.6
_publ_section_title
'Crystal growth of novel osmium-containing triple perovskites'
loop_
_citation_id
_citation_journal_full
_citation_year
_citation_journal_volume
_citation_page_first
_citation_page_last
_citation_journal_id_ASTM
primary 'Inorganic Chemistry' 2003 42 947 949 INOCAJ
loop_
_publ_author_name
'Stitzer, K.E.'
'El Abed, A.'
'Smith, M.D.'
'Davis, M.J.'
'Kim, S.-J.'
'Darriet, J.'
'zur Loye, H.C.'
_cell_length_a 5.8025(1)
_cell_length_b 5.8025(1)
_cell_length_c 14.1468(4)
_cell_angle_alpha 90.
_cell_angle_beta 90.
_cell_angle_gamma 120.
_cell_volume 412.5
_cell_formula_units_Z 2
_symmetry_space_group_name_H-M 'P 63/m m c'
_symmetry_Int_Tables_number 194
_refine_ls_R_factor_all 0.0312
loop_
_symmetry_equiv_pos_site_id
_symmetry_equiv_pos_as_xyz
1 'x, x-y, -z+1/2'
2 '-x+y, y, -z+1/2'
3 '-y, -x, -z+1/2'
4 '-x+y, -x, -z+1/2'
5 '-y, x-y, -z+1/2'
6 'x, y, -z+1/2'
7 '-x, -x+y, z+1/2'
8 'x-y, -y, z+1/2'
9 'y, x, z+1/2'
10 'x-y, x, z+1/2'
11 'y, -x+y, z+1/2'
12 '-x, -y, z+1/2'
13 '-x, -x+y, -z'
14 'x-y, -y, -z'
15 'y, x, -z'
16 'x-y, x, -z'
17 'y, -x+y, -z'
18 '-x, -y, -z'
19 'x, x-y, z'
20 '-x+y, y, z'
21 '-y, -x, z'
22 '-x+y, -x, z'
23 '-y, x-y, z'
24 'x, y, z'
loop_
_atom_type_symbol
_atom_type_oxidation_number
Ba2+ 2
Li1+ 1
Os5+ 5.5
O2- -2
loop_
_atom_site_label
_atom_site_type_symbol
_atom_site_symmetry_multiplicity
_atom_site_Wyckoff_symbol
_atom_site_fract_x
_atom_site_fract_y
_atom_site_fract_z
_atom_site_B_iso_or_equiv
_atom_site_occupancy
_atom_site_attached_hydrogens
Ba1 Ba2+ 2 b 0 0 0.25 0.0086(2) 1. 0
Ba2 Ba2+ 4 f 0.333333 0.666667 0.91273(6) 0.0095(2) 1. 0
Li1 Li1+ 2 a 0 0 0 0.006(6) 1. 0
Os1 Os5+ 4 f 0.333333 0.666667 0.15791(2) 0.0058(2) 1. 0
O1 O2- 6 h 0.4887(7) 0.9774(14) 0.25 0.0090(18) 1. 0
O2 O2- 12 k 0.1762(5) 0.3524(10) 0.4137(4) 0.0107(14) 1. 0
loop_
_atom_site_aniso_label
_atom_site_aniso_type_symbol
_atom_site_aniso_U_11
_atom_site_aniso_U_22
_atom_site_aniso_U_33
_atom_site_aniso_U_12
_atom_site_aniso_U_13
_atom_site_aniso_U_23
Ba1 Ba2+ 0.0071(3) 0.0071(3) 0.0115(5) 0.00356(16) 0 0
Ba2 Ba2+ 0.0088(2) 0.0088(2) 0.0109(3) 0.00439(14) 0 0
Li1 Li1+ 0.004(7) 0.004(7) 0.010(14) 0.002(3) 0 0
Os1 Os5+ 0.0052(2) 0.0052(2) 0.0072(3) 0.00258(12) 0 0
O1 O2- 0.011(2) 0.004(2) 0.010(2) 0.0020(13) 0 0
O2 O2- 0.0104(17) 0.007(2) 0.014(2) 0.0033(10) 0.0033(11) 0.007(2)
#End of TTdata_281247-ICSD