
#(C) 2018 by FIZ Karlsruhe - Leibniz Institute for Information Infrastructure.  All rights reserved.
data_281232-ICSD
_database_code_ICSD 281232
_audit_creation_date 2003-10-01
_chemical_name_systematic 'Dilithium tetrathiostannocadmate'
_chemical_formula_structural 'Li2 (Cd Sn S4)'
_chemical_formula_sum 'Cd1 Li2 S4 Sn1'
_exptl_crystal_density_diffrn 3.44
_publ_section_title

;
First examples of sulfides in the quaternary A/Cd/Sn/S (A = Li, Na) systems:
molten flux synthesis and single crystal X-ray structures of Li2 Cd Sn S4, Na2
Cd Sn S4 and Na6 Cd Sn4 S12
;
loop_
_citation_id
_citation_journal_full
_citation_year
_citation_journal_volume
_citation_page_first
_citation_page_last
_citation_journal_id_ASTM
primary 'Journal of the Chemical Society, Dalton Transactions' 2002 2002 2092
2096 JCSDAA
loop_
_publ_author_name
'Suseela Devi, M.'
'Vidyasagar, K.'
_cell_length_a 7.9654(15)
_cell_length_b 6.4917(15)
_cell_length_c 6.9685(12)
_cell_angle_alpha 90.
_cell_angle_beta 90.
_cell_angle_gamma 90.
_cell_volume 360.33
_cell_formula_units_Z 2
_symmetry_space_group_name_H-M 'P m m n Z'
_symmetry_Int_Tables_number 59
_refine_ls_R_factor_all 0.0495
loop_
_symmetry_equiv_pos_site_id
_symmetry_equiv_pos_as_xyz
1 'x+1/2, y+1/2, -z'
2 '-x, y+1/2, -z'
3 'x+1/2, -y, -z'
4 '-x, -y, -z'
5 '-x+1/2, -y+1/2, z'
6 'x, -y+1/2, z'
7 '-x+1/2, y, z'
8 'x, y, z'
loop_
_atom_type_symbol
_atom_type_oxidation_number
Cd2+ 2
Sn4+ 4
S2- -2
Li1+ 1
loop_
_atom_site_label
_atom_site_type_symbol
_atom_site_symmetry_multiplicity
_atom_site_Wyckoff_symbol
_atom_site_fract_x
_atom_site_fract_y
_atom_site_fract_z
_atom_site_B_iso_or_equiv
_atom_site_occupancy
_atom_site_attached_hydrogens
Cd1 Cd2+ 2 a 0.25 0.25 0.6567(2) 0.0221(7) 1. 0
Sn1 Sn4+ 2 b 0.25 0.75 0.3298(2) 0.0129(7) 1. 0
S1 S2- 4 e 0.25 0.1190(14) 0.3152(10) 0.025(2) 0.5 0
S2 S2- 4 e 0.25 0.6355(10) 0.6571(8) 0.014(2) 0.5 0
S3 S2- 8 g 0.5068(5) 0.1234(10) 0.8375(6) 0.0184(13) 0.5 0
Li1 Li1+ 4 f 0.4930(27) 0.25 0.1675(33) 0.02 1. 0
loop_
_atom_site_aniso_label
_atom_site_aniso_type_symbol
_atom_site_aniso_U_11
_atom_site_aniso_U_22
_atom_site_aniso_U_33
_atom_site_aniso_U_12
_atom_site_aniso_U_13
_atom_site_aniso_U_23
Cd1 Cd2+ 0.0222(10) 0.0222(11) 0.0219(10) 0 0 0
Sn1 Sn4+ 0.0111(9) 0.011(1) 0.0166(9) 0 0 0
S1 S2- 0.029(4) 0.023(4) 0.024(3) 0 0 -0.001(3)
S2 S2- 0.019(3) 0.001(4) 0.023(3) 0 0 0.001(2)
S3 S2- 0.019(3) 0.015(3) 0.021(3) 0.000(2) 0.001(2) 0.000(2)
#End of TTdata_281232-ICSD