
#(C) 2018 by FIZ Karlsruhe - Leibniz Institute for Information Infrastructure.  All rights reserved.
data_281318-ICSD
_database_code_ICSD 281318
_audit_creation_date 2004-04-01
_chemical_name_systematic 'Lithium indium silicate'
_chemical_formula_structural 'Li In (Si O4)'
_chemical_formula_sum 'In1 Li1 O4 Si1'
_chemical_name_structure_type Olivine-Mg2SiO4
_chemical_name_mineral Unnamed_Olivine
_exptl_crystal_density_diffrn 4.6
_publ_section_title 'Li In Si O4 : a new monovalent-trivalent olivine'
loop_
_citation_id
_citation_journal_full
_citation_year
_citation_journal_volume
_citation_page_first
_citation_page_last
_citation_journal_id_ASTM
primary 'Acta Crystallographica, Section C: Crystal Structure Communications'
2003 59 i38 i40 ACSCEE
loop_
_publ_author_name
'Redhammer, G.J.'
'Roth, G.'
_cell_length_a 4.8448(9)
_cell_length_b 10.5043(19)
_cell_length_c 6.0634(13)
_cell_angle_alpha 90.
_cell_angle_beta 90.
_cell_angle_gamma 90.
_cell_volume 308.57
_cell_formula_units_Z 4
_symmetry_space_group_name_H-M 'P b n m'
_symmetry_Int_Tables_number 62
_refine_ls_R_factor_all 0.025
loop_
_symmetry_equiv_pos_site_id
_symmetry_equiv_pos_as_xyz
1 '-x+1/2, y+1/2, z'
2 'x, y, -z+1/2'
3 'x+1/2, -y+1/2, z+1/2'
4 '-x, -y, -z'
5 'x+1/2, -y+1/2, -z'
6 '-x, -y, z+1/2'
7 '-x+1/2, y+1/2, -z+1/2'
8 'x, y, z'
loop_
_atom_type_symbol
_atom_type_oxidation_number
Li1+ 1
In3+ 3
Si4+ 4
O2- -2
loop_
_atom_site_label
_atom_site_type_symbol
_atom_site_symmetry_multiplicity
_atom_site_Wyckoff_symbol
_atom_site_fract_x
_atom_site_fract_y
_atom_site_fract_z
_atom_site_B_iso_or_equiv
_atom_site_occupancy
_atom_site_attached_hydrogens
Li1 Li1+ 4 a 0 0 0 0.0196(17) 1. 0
In1 In3+ 4 c 0.97826(5) 0.27571(2) 0.25 0.00495(12) 1. 0
Si1 Si4+ 4 c 0.4241(2) 0.08917(8) 0.25 0.00502(18) 1. 0
O1 O2- 4 c 0.7535(5) 0.0983(2) 0.25 0.0070(4) 1. 0
O2 O2- 4 c 0.2948(5) -.0537(2) 0.25 0.0075(4) 1. 0
O3 O2- 8 d 0.2717(4) 0.16396(15) 0.0422(3) 0.0079(3) 1. 0
loop_
_atom_site_aniso_label
_atom_site_aniso_type_symbol
_atom_site_aniso_U_11
_atom_site_aniso_U_22
_atom_site_aniso_U_33
_atom_site_aniso_U_12
_atom_site_aniso_U_13
_atom_site_aniso_U_23
Li1 Li1+ 0.019(3) 0.022(4) 0.018(4) -0.002(2) -0.006(3) -0.004(4)
In1 In3+ 0.00651(16) 0.00460(17) 0.00373(17) 0.00013(6) 0 0
Si1 Si4+ 0.0065(4) 0.0042(4) 0.0044(4) -0.0003(3) 0 0
O1 O2- 0.0074(10) 0.0058(10) 0.0077(10) -0.0010(8) 0 0
O2 O2- 0.0077(9) 0.0042(9) 0.0107(10) -0.0012(8) 0 0
O3 O2- 0.0085(7) 0.0095(7) 0.0057(6) 0.0018(6) 0.0008(6) 0.0012(5)
#End of TTdata_281318-ICSD