
#(C) 2018 by FIZ Karlsruhe - Leibniz Institute for Information Infrastructure.  All rights reserved.
data_28497-ICSD
_database_code_ICSD 28497
_audit_creation_date 1980-01-01
_audit_update_record 2012-02-01
_chemical_name_systematic 'Lithium dicesium chromium cyanide - III'
_chemical_formula_structural 'Li Cs2 Cr (C N)6'
_chemical_formula_sum 'C6 Cr1 Cs2 Li1 N6'
_chemical_name_structure_type LiCs2Cr(CN)6
_exptl_crystal_density_diffrn 2.57
_cell_measurement_temperature 298.
_publ_section_title 'Phonon-driven phase changes in Cs2 Li Cr (C N)6'
loop_
_citation_id
_citation_journal_full
_citation_year
_citation_journal_volume
_citation_page_first
_citation_page_last
_citation_journal_id_ASTM
primary 'Physical Review, Serie 3. B - Solid State (1,1970-17,1977)' 1976 13
5320 5329 PLRBAQ
loop_
_publ_author_name
'Ryan, R.R.'
'Swanson, B.L.'
_cell_length_a 7.600(2)
_cell_length_b 7.600(2)
_cell_length_c 10.778(3)
_cell_angle_alpha 90.
_cell_angle_beta 90.
_cell_angle_gamma 90.
_cell_volume 622.54
_cell_formula_units_Z 2
_symmetry_space_group_name_H-M 'P 1 21/n 1'
_symmetry_Int_Tables_number 14
_refine_ls_R_factor_all 0.03
loop_
_symmetry_equiv_pos_site_id
_symmetry_equiv_pos_as_xyz
1 '-x+1/2, y+1/2, -z+1/2'
2 '-x, -y, -z'
3 'x+1/2, -y+1/2, z+1/2'
4 'x, y, z'
loop_
_atom_type_symbol
_atom_type_oxidation_number
Li1+ 1
Cs1+ 1
Cr3+ 3
C2+ 2
N3- -3
loop_
_atom_site_label
_atom_site_type_symbol
_atom_site_symmetry_multiplicity
_atom_site_Wyckoff_symbol
_atom_site_fract_x
_atom_site_fract_y
_atom_site_fract_z
_atom_site_B_iso_or_equiv
_atom_site_occupancy
_atom_site_attached_hydrogens
Li1 Li1+ 2 b 0 0 0.5 0.039 1. 0
Cs1 Cs1+ 4 e 0.5000(2) 0.0085(1) 0.2501(5) . 1. 0
Cr1 Cr3+ 2 a 0 0 0 . 1. 0
C1 C2+ 4 e 0.175(1) 0.207(1) -.002(1) . 1. 0
C2 C2+ 4 e -.212(1) 0.163(1) -.004(1) . 1. 0
C3 C2+ 4 e -.003(1) 0.000(1) -.1905(5) . 1. 0
N1 N3- 4 e 0.264(1) 0.330(1) 0.000(1) . 1. 0
N2 N3- 4 e -.325(1) 0.265(2) -.001(1) . 1. 0
N3 N3- 4 e -.004(1) -.004(1) 0.2977(5) . 1. 0
loop_
_atom_site_aniso_label
_atom_site_aniso_type_symbol
_atom_site_aniso_U_11
_atom_site_aniso_U_22
_atom_site_aniso_U_33
_atom_site_aniso_U_12
_atom_site_aniso_U_13
_atom_site_aniso_U_23
Cs1 Cs1+ 0.064(2) 0.057(2) 0.050(1) -0.0164(4) -0.0009(7) -0.0005(7)
Cr1 Cr3+ 0.017(2) 0.030(3) 0.020(1) 0.0011(1) -0.0045(1) -0.0006(1)
C1 C2+ 0.028(4) 0.056(6) 0.047(6) -0.0005(4) -0.014(4) 0.025(4)
C2 C2+ 0.016(3) 0.034(4) 0.046(6) 0.005(3) 0.0006(4) 0.008(4)
C3 C2+ 0.063(4) 0.036(8) 0.024(3) -0.007(5) -0.0002(5) -0.0023(4)
N1 N3- 0.022(3) 0.062(5) 0.074(6) -0.018(3) 0.003(5) 0.007(5)
N2 N3- 0.033(5) 0.108(8) 0.039(5) -0.0141(12) 0.004(8) 0.012(7)
N3 N3- 0.092(17) 0.085(15) 0.021(3) -0.016(8) 0.013(6) 0.003(5)
#End of TTdata_28497-ICSD