
#(C) 2018 by FIZ Karlsruhe - Leibniz Institute for Information Infrastructure.  All rights reserved.
data_28496-ICSD
_database_code_ICSD 28496
_audit_creation_date 1980-01-01
_audit_update_record 2012-02-01
_chemical_name_systematic 'Lithium dicesium hexacyanochromate(III) - III'
_chemical_formula_structural 'Li Cs2 (Cr (C N)6)'
_chemical_formula_sum 'C6 Cr1 Cs2 Li1 N6'
_chemical_name_structure_type LiCs2Cr(CN)6
_exptl_crystal_density_diffrn 2.56
_publ_section_title 'Phonon-driven phase changes in Cs2 Li Cr (C N)6'
loop_
_citation_id
_citation_journal_full
_citation_year
_citation_journal_volume
_citation_page_first
_citation_page_last
_citation_journal_id_ASTM
primary 'Physical Review, Serie 3. B - Solid State (1,1970-17,1977)' 1976 13
5320 5329 PLRBAQ
loop_
_publ_author_name
'Ryan, R.R.'
'Swanson, B.L.'
_cell_length_a 7.604(2)
_cell_length_b 7.604(2)
_cell_length_c 10.777(3)
_cell_angle_alpha 90.
_cell_angle_beta 90.(0)
_cell_angle_gamma 90.
_cell_volume 623.13
_cell_formula_units_Z 2
_symmetry_space_group_name_H-M 'P 1 21/n 1'
_symmetry_Int_Tables_number 14
loop_
_symmetry_equiv_pos_site_id
_symmetry_equiv_pos_as_xyz
1 '-x+1/2, y+1/2, -z+1/2'
2 '-x, -y, -z'
3 'x+1/2, -y+1/2, z+1/2'
4 'x, y, z'
loop_
_atom_type_symbol
_atom_type_oxidation_number
Li1+ 1
Cs1+ 1
Cr3+ 3
C2+ 2
N3- -3
loop_
_atom_site_label
_atom_site_type_symbol
_atom_site_symmetry_multiplicity
_atom_site_Wyckoff_symbol
_atom_site_fract_x
_atom_site_fract_y
_atom_site_fract_z
_atom_site_B_iso_or_equiv
_atom_site_occupancy
_atom_site_attached_hydrogens
Li1 Li1+ 2 b 0 0 0.5 0.039(5) 1. 0
Cs1 Cs1+ 4 e 0.500(2) 0.0085(1) 0.2501(5) . 1. 0
Cr1 Cr3+ 2 a 0 0 0 . 1. 0
C1 C2+ 4 e 0.1685 0.2102 0.0024 0.036(1) 1. 0
C2 C2+ 4 e -.2102 0.1685 -.0019 0.036(1) 1. 0
C3 C2+ 4 e -.0043 -.0009 0.1905 0.036(1) 1. 0
N1 N3- 4 e 0.2617 0.3265 0.0038 0.064(1) 1. 0
N2 N3- 4 e -.3265 0.2617 -.003 0.064(1) 1. 0
N3 N3- 4 e -.0067 -.0015 0.2959 0.064(1) 1. 0
loop_
_atom_site_aniso_label
_atom_site_aniso_type_symbol
_atom_site_aniso_U_11
_atom_site_aniso_U_22
_atom_site_aniso_U_33
_atom_site_aniso_U_12
_atom_site_aniso_U_13
_atom_site_aniso_U_23
Cs1 Cs1+ 0.064(2) 0.067(2) 0.050(1) -0.062(2) 0.005(4) -0.003(4)
Cr1 Cr3+ 0.017(2) 0.030(3) 0.020(1) 0.001(1) -0.003(1) -0.001(1)
#End of TTdata_28496-ICSD