
#(C) 2018 by FIZ Karlsruhe - Leibniz Institute for Information Infrastructure.  All rights reserved.
data_2899-ICSD
_database_code_ICSD 2899
_audit_creation_date 1980-01-01
_audit_update_record 1985-04-16
_chemical_name_systematic 'Lithium catena-vanadate'
_chemical_formula_structural 'Li V O3'
_chemical_formula_sum 'Li1 O3 V1'
_chemical_name_structure_type NaKV2O6
_exptl_crystal_density_diffrn 2.98
_publ_section_title 'Crystal structure of Li V O3'
loop_
_citation_id
_citation_journal_full
_citation_year
_citation_journal_volume
_citation_page_first
_citation_page_last
_citation_journal_id_ASTM
primary 'Canadian Journal of Chemistry' 1973 51 265 273 CJCHAG
loop_
_publ_author_name
'Shannon, R.D.'
'Calvo, C.'
_cell_length_a 10.158(2)
_cell_length_b 8.4175(9)
_cell_length_c 5.8853(9)
_cell_angle_alpha 90.
_cell_angle_beta 110.48(2)
_cell_angle_gamma 90.
_cell_volume 471.42
_cell_formula_units_Z 8
_symmetry_space_group_name_H-M 'C 1 2/c 1'
_symmetry_Int_Tables_number 15
_refine_ls_R_factor_all 0.025
loop_
_symmetry_equiv_pos_site_id
_symmetry_equiv_pos_as_xyz
1 'x, -y, z+1/2'
2 '-x, -y, -z'
3 '-x, y, -z+1/2'
4 'x, y, z'
5 'x+1/2, -y+1/2, z+1/2'
6 '-x+1/2, -y+1/2, -z'
7 '-x+1/2, y+1/2, -z+1/2'
8 'x+1/2, y+1/2, z'
loop_
_atom_type_symbol
_atom_type_oxidation_number
Li1+ 1
V5+ 5
O2- -2
loop_
_atom_site_label
_atom_site_type_symbol
_atom_site_symmetry_multiplicity
_atom_site_Wyckoff_symbol
_atom_site_fract_x
_atom_site_fract_y
_atom_site_fract_z
_atom_site_B_iso_or_equiv
_atom_site_occupancy
_atom_site_attached_hydrogens
Li1 Li1+ 4 e 0 0.9223(6) 0.25 . 1. 0
Li2 Li1+ 4 e 0 0.2847 0.25 . 1. 0
V1 V5+ 8 f 0.28829(3) 0.09485(4) 0.26694(5) . 1. 0
O1 O2- 8 f 0.1143(2) 0.1115(2) 0.1675(3) . 1. 0
O2 O2- 8 f 0.3555(2) 0.2719(2) 0.2824(3) . 1. 0
O3 O2- 8 f 0.3547(2) -.0280(2) 0.0700(3) . 1. 0
loop_
_atom_site_aniso_label
_atom_site_aniso_type_symbol
_atom_site_aniso_U_11
_atom_site_aniso_U_22
_atom_site_aniso_U_33
_atom_site_aniso_U_12
_atom_site_aniso_U_13
_atom_site_aniso_U_23
Li1 Li1+ 0.0181(22) 0.0134(21) 0.0497(35) 0 0.0180(24) 0
Li2 Li1+ 0.0190(22) 0.0165(23) 0.0523(36) 0 0.0146(23) 0
V1 V5+ 0.0082(2) 0.0120(2) 0.0098(2) -.0016(1) 0.0034(1) -.0004(1)
O1 O2- 0.0095(5) 0.0134(6) 0.0178(6) 0.0006(5) 0.0040(5) 0.0002(5)
O2 O2- 0.0236(7) 0.0183(7) 0.0283(8) -.0113(6) 0.0132(6) -.0047(6)
O3 O2- 0.0117(6) 0.0237(6) 0.0117(6) 0.0008(5) 0.0038(5) -.0030(5)
#End of TTdata_2899-ICSD