
#(C) 2018 by FIZ Karlsruhe - Leibniz Institute for Information Infrastructure.  All rights reserved.
data_290183-ICSD
_database_code_ICSD 290183
_audit_creation_date 2013-08-01
_chemical_name_systematic
'Lithium manganese iron phosphate(V) (0.86/0.8/0.18/1)'
_chemical_formula_structural 'Li0.86 (Mn0.800 Fe0.183) (P O4)'
_chemical_formula_sum 'Fe0.183 Li0.86 Mn0.8 O4 P1'
_chemical_name_structure_type Olivine-Mg2SiO4
_chemical_name_mineral Lithiophilite-sicklerite
_exptl_crystal_density_diffrn 3.43
_publ_section_title 'A structural study of the lithiophilite-sicklerite series'
loop_
_citation_id
_citation_journal_full
_citation_year
_citation_journal_volume
_citation_page_first
_citation_page_last
_citation_journal_id_ASTM
primary 'Canadian Mineralogist' 2012 50 843 854 CAMIA6
loop_
_publ_author_name
'Hatert, F.'
'Ottolini, L.'
'Wouters, J.'
'Fontan, F.'
_cell_length_a 4.734(1)
_cell_length_b 10.423(2)
_cell_length_c 6.094(1)
_cell_angle_alpha 90.
_cell_angle_beta 90.
_cell_angle_gamma 90.
_cell_volume 300.69
_cell_formula_units_Z 4
_symmetry_space_group_name_H-M 'P b n m'
_symmetry_Int_Tables_number 62
_refine_ls_R_factor_all 0.0219
loop_
_symmetry_equiv_pos_site_id
_symmetry_equiv_pos_as_xyz
1 '-x+1/2, y+1/2, z'
2 'x, y, -z+1/2'
3 'x+1/2, -y+1/2, z+1/2'
4 '-x, -y, -z'
5 'x+1/2, -y+1/2, -z'
6 '-x, -y, z+1/2'
7 '-x+1/2, y+1/2, -z+1/2'
8 'x, y, z'
loop_
_atom_type_symbol
_atom_type_oxidation_number
Li1+ 1
Mn2+ 2
Fe2+ 2.95
P5+ 5
O2- -2
loop_
_atom_site_label
_atom_site_type_symbol
_atom_site_symmetry_multiplicity
_atom_site_Wyckoff_symbol
_atom_site_fract_x
_atom_site_fract_y
_atom_site_fract_z
_atom_site_B_iso_or_equiv
_atom_site_occupancy
_atom_site_attached_hydrogens
Li1 Li1+ 4 a 0 0 0 0.014(2) 0.86(3) 0
Mn1 Mn2+ 4 c 0.97198(8) 0.28175(3) 0.25 0.0081(1) 0.8 0
Fe1 Fe2+ 4 c 0.97198(8) 0.28175(3) 0.25 0.0081(1) 0.183(3) 0
P1 P5+ 4 c 0.4103(1) 0.09283(6) 0.25 0.0076(2) 1. 0
O1 O2- 4 c 0.7318(4) 0.0971(2) 0.25 0.0114(4) 1. 0
O2 O2- 4 c 0.2106(3) 0.4559(2) 0.25 0.0101(3) 1. 0
O3 O2- 8 d 0.2784(2) 0.1621(1) 0.0490(2) 0.0103(3) 1. 0
#End of TTdata_290183-ICSD