
#(C) 2018 by FIZ Karlsruhe - Leibniz Institute for Information Infrastructure.  All rights reserved.
data_290291-ICSD
_database_code_ICSD 290291
_audit_creation_date 2013-08-01
_chemical_name_systematic 'Lithium triyttrium bis(silicate) difluoride'
_chemical_formula_structural 'Li Y3 (Si O4)2 F2'
_chemical_formula_sum 'F2 Li1 O8 Si2 Y3'
_exptl_crystal_density_diffrn 4.36
_cell_measurement_temperature 293.
_publ_section_title

;
Hydrothermal synthesis of new rare earth silicate fluorides: A novel class of
polar materials
;
loop_
_citation_id
_citation_journal_full
_citation_year
_citation_journal_volume
_citation_page_first
_citation_page_last
_citation_journal_id_ASTM
primary 'Journal of Solid State Chemistry' 2012 195 155 160 JSSCBI
loop_
_publ_author_name
'McMillen, C.D.'
'Emirdag-Eanes, M.'
'Stritzinger, J.T.'
'Kolis, J.W.'
_cell_length_a 17.651(4)
_cell_length_b 4.8868(10)
_cell_length_c 11.625(2)
_cell_angle_alpha 90.
_cell_angle_beta 131.13(3)
_cell_angle_gamma 90.
_cell_volume 755.28
_cell_formula_units_Z 4
_symmetry_space_group_name_H-M 'C 1 2/c 1'
_symmetry_Int_Tables_number 15
_refine_ls_R_factor_all 0.0407
loop_
_symmetry_equiv_pos_site_id
_symmetry_equiv_pos_as_xyz
1 'x, -y, z+1/2'
2 '-x, -y, -z'
3 '-x, y, -z+1/2'
4 'x, y, z'
5 'x+1/2, -y+1/2, z+1/2'
6 '-x+1/2, -y+1/2, -z'
7 '-x+1/2, y+1/2, -z+1/2'
8 'x+1/2, y+1/2, z'
loop_
_atom_type_symbol
_atom_type_oxidation_number
Y3+ 3
Si4+ 4
F1- -1
O2- -2
Li1+ 1
loop_
_atom_site_label
_atom_site_type_symbol
_atom_site_symmetry_multiplicity
_atom_site_Wyckoff_symbol
_atom_site_fract_x
_atom_site_fract_y
_atom_site_fract_z
_atom_site_B_iso_or_equiv
_atom_site_occupancy
_atom_site_attached_hydrogens
Y1 Y3+ 4 e 0. -0.21337(19) 0.25 0.0082(4) 1 0
Y2 Y3+ 8 f 0.12348(6) -0.20306(13) 0.09154(8) 0.0090(4) 1 0
Si1 Si4+ 8 f 0.14007(17) 0.2267(4) 0.2939(2) 0.0100(5) 1 0
F1 F1- 8 f 0.0757(4) -0.3905(9) 0.4786(5) 0.0185(11) 1 0
O1 O2- 8 f 0.1311(4) 0.5581(10) 0.2846(5) 0.0109(12) 1 0
O2 O2- 8 f 0.0350(4) 0.0858(9) 0.1386(6) 0.0083(11) 1 0
O3 O2- 8 f 0.2246(4) 0.1045(9) 0.2906(6) 0.0113(11) 1 0
O4 O2- 8 f 0.1488(4) 0.0809(10) 0.4288(5) 0.0125(11) 1 0
Li1 Li1+ 4 c 0.25 0.25 0. 0.035(6) 1 0
loop_
_atom_site_aniso_label
_atom_site_aniso_type_symbol
_atom_site_aniso_U_11
_atom_site_aniso_U_22
_atom_site_aniso_U_33
_atom_site_aniso_U_12
_atom_site_aniso_U_13
_atom_site_aniso_U_23
Y1 Y3+ 0.0129(7) 0.0076(6) 0.0101(6) 0. 0.0102(6) 0.
Y2 Y3+ 0.0137(6) 0.0085(5) 0.0096(5) 0.0001(2) 0.0097(4) -0.0007(2)
Si1 Si4+ 0.0138(13) 0.0077(10) 0.0126(11) 0.0005(8) 0.0104(10) 0.0006(7)
F1 F1- 0.026(3) 0.016(2) 0.014(2) 0.004(2) 0.013(2) 0.0038(19)
O1 O2- 0.022(3) 0.006(2) 0.013(3) 0.001(2) 0.016(3) 0.002(2)
O2 O2- 0.017(3) 0.005(2) 0.012(2) 0.002(2) 0.014(2) 0.002(2)
O3 O2- 0.014(3) 0.006(2) 0.019(3) -0.003(2) 0.013(3) -0.002(2)
O4 O2- 0.019(3) 0.011(3) 0.012(3) 0.000(2) 0.012(2) -0.001(2)
Li1 Li1+ 0.026(14) 0.016(9) 0.021(12) -0.007(9) -0.002(11) 0.010(9)
#End of TTdata_290291-ICSD