
#(C) 2018 by FIZ Karlsruhe - Leibniz Institute for Information Infrastructure.  All rights reserved.
data_290805-ICSD
_database_code_ICSD 290805
_audit_creation_date 2014-08-01
_chemical_name_systematic 'Trilithium diiron(III) tris(phosphate(V))'
_chemical_formula_structural 'Li3 Fe2 (P O4)3'
_chemical_formula_sum 'Fe2 Li3 O12 P3'
_chemical_name_structure_type Li3In2(PO4)3
_exptl_crystal_density_diffrn 3.1
_cell_measurement_temperature 10.
_publ_section_title
'The magnetic structure and properties of rhombohedral Li3 Fe2 (P O4)3'
loop_
_citation_id
_citation_journal_full
_citation_year
_citation_journal_volume
_citation_page_first
_citation_page_last
_citation_journal_id_ASTM
primary 'Journal of Materials Chemistry' 2000 10 2542 2547 JMACEP
loop_
_publ_author_name
'Andersson, Anna S.'
'Kalska, Beata'
'Jonsson, Petra'
'Haggstrom, Lennart'
'Nordblad, Per'
'Tellgren, Roland'
'Thomas, John O.'
_cell_length_a 8.2772(7)
_cell_length_b 8.2772(7)
_cell_length_c 22.6313(20)
_cell_angle_alpha 90.
_cell_angle_beta 90.
_cell_angle_gamma 120.
_cell_volume 1342.79
_cell_formula_units_Z 6
_symmetry_space_group_name_H-M 'R -3 H'
_symmetry_Int_Tables_number 148
_refine_ls_R_factor_all 0.04
loop_
_symmetry_equiv_pos_site_id
_symmetry_equiv_pos_as_xyz
1 'x-y, x, -z'
2 'y, -x+y, -z'
3 '-x, -y, -z'
4 '-x+y, -x, z'
5 '-y, x-y, z'
6 'x, y, z'
7 'x-y+2/3, x+1/3, -z+1/3'
8 'y+2/3, -x+y+1/3, -z+1/3'
9 '-x+2/3, -y+1/3, -z+1/3'
10 '-x+y+2/3, -x+1/3, z+1/3'
11 '-y+2/3, x-y+1/3, z+1/3'
12 'x+2/3, y+1/3, z+1/3'
13 'x-y+1/3, x+2/3, -z+2/3'
14 'y+1/3, -x+y+2/3, -z+2/3'
15 '-x+1/3, -y+2/3, -z+2/3'
16 '-x+y+1/3, -x+2/3, z+2/3'
17 '-y+1/3, x-y+2/3, z+2/3'
18 'x+1/3, y+2/3, z+2/3'
loop_
_atom_type_symbol
_atom_type_oxidation_number
Li1+ 1
Fe3+ 3
P5+ 5
O2- -2
loop_
_atom_site_label
_atom_site_type_symbol
_atom_site_symmetry_multiplicity
_atom_site_Wyckoff_symbol
_atom_site_fract_x
_atom_site_fract_y
_atom_site_fract_z
_atom_site_B_iso_or_equiv
_atom_site_occupancy
_atom_site_attached_hydrogens
Li1 Li1+ 18 f 0.355(4) 0.045(3) 0.382(1) 2.9(5) 1. 0
Fe1 Fe3+ 6 c 0 0 0.1465(4) 0.15(6) 1. 0
Fe2 Fe3+ 6 c 0 0 0.6513(4) 0.15(6) 1. 0
P1 P5+ 18 f 0.2902(9) -0.0012(11) 0.2509(5) 0.6(1) 1. 0
O1 O2- 18 f 0.1898(8) -0.0126(7) 0.1933(3) 0.4(1) 1. 0
O2 O2- 18 f 0.7677(8) 0.9079(8) 0.7005(3) 0.8(2) 1. 0
O3 O2- 18 f 0.2390(8) -0.1981(7) 0.2680(3) 0.4(2) 1. 0
O4 O2- 18 f 0.4988(7) 0.8818(8) 0.7565(3) 0.2(2) 1. 0
#End of TTdata_290805-ICSD