
#(C) 2018 by FIZ Karlsruhe - Leibniz Institute for Information Infrastructure.  All rights reserved.
data_290979-ICSD
_database_code_ICSD 290979
_audit_creation_date 2014-08-01
_chemical_name_systematic 'Trilithium sulfamate'
_chemical_formula_structural 'Li3 (S O3 N)'
_chemical_formula_sum 'Li3 N1 O3 S1'
_chemical_name_structure_type Enargite-Cu3AsS4
_exptl_crystal_density_diffrn 2.41
_publ_section_title

;
Bronsted acid-base reactions with anhydrous sulfamates as a pathway to [S O3
N](3-)-containing compounds: Preparation of Li3 S O3 N
;
loop_
_citation_id
_citation_journal_full
_citation_year
_citation_journal_volume
_citation_page_first
_citation_page_last
_citation_journal_id_ASTM
primary 'Solid State Sciences' 2013 25 28 32 SSSCFJ
loop_
_publ_author_name
'Kurzman, Joshua A.'
'Jouan, Gauthier'
'Courty, Matthieu'
'Palacin, M.Rosa'
'Armand, Michel'
'Recham, Nadir'
_cell_length_a 6.1759(1)
_cell_length_b 5.3061(1)
_cell_length_c 4.8261(1)
_cell_angle_alpha 90.
_cell_angle_beta 90.
_cell_angle_gamma 90.
_cell_volume 158.15
_cell_formula_units_Z 2
_symmetry_space_group_name_H-M 'P m n 21'
_symmetry_Int_Tables_number 31
_refine_ls_R_factor_all 0.0348
loop_
_symmetry_equiv_pos_site_id
_symmetry_equiv_pos_as_xyz
1 'x+1/2, -y, z+1/2'
2 '-x+1/2, -y, z+1/2'
3 '-x, y, z'
4 'x, y, z'
loop_
_atom_type_symbol
_atom_type_oxidation_number
Li1+ 1
S6+ 6
O2- -2
N3- -3
O2- -2
N3- -3
O2- -2
loop_
_atom_site_label
_atom_site_type_symbol
_atom_site_symmetry_multiplicity
_atom_site_Wyckoff_symbol
_atom_site_fract_x
_atom_site_fract_y
_atom_site_fract_z
_atom_site_B_iso_or_equiv
_atom_site_occupancy
_atom_site_attached_hydrogens
Li1 Li1+ 4 b 0.2445(6) 0.3204(9) 0.9898(9) 0.45(7) 1. 0
Li2 Li1+ 2 a 0.5 0.8516(13) 0.9805(13) 1.09(3) 1. 0
S1 S6+ 2 a 0 0.8233(7) 0 0.16(3) 1. 0
O1 O2- 4 b 0.2018(2) 0.6872(2) 0.9022(7) 0.69(2) 0.676(4) 0
N2 N3- 4 b 0.2018(2) 0.6872(2) 0.9022(7) 0.69(2) 0.324(4) 0
O3 O2- 2 a 0 0.0941(3) 0.9096(8) 0.56(3) 0.647(7) 0
N4 N3- 2 a 0 0.0941(3) 0.9096(8) 0.56(3) 0.353(7) 0
O5 O2- 2 a 0.5 0.1877(4) 0.8125(7) 0.79(3) 1. 0
#End of TTdata_290979-ICSD