
#(C) 2017 by FIZ Karlsruhe - Leibniz Institute for Information Infrastructure.  All rights reserved.
data_291163-ICSD
_database_code_ICSD 291163
_audit_creation_date 2015-08-01
_chemical_name_systematic
'Ammonium lithium hexabromotellurate(IV) (1.26/0.74/1)'
_chemical_formula_structural '((N H4)0.63 Li0.37)2 Te Br6'
_chemical_formula_sum 'H5.04 Br6 Li0.74 N1.26 Te1'
_exptl_crystal_density_diffrn 3.48
_cell_measurement_temperature 173.
_publ_section_title
'Crystal structure at (T = 295 and 173 K) of [(NH4)0.63 Li0.37]2 Te Br6'
loop_
_citation_id
_citation_journal_full
_citation_year
_citation_journal_volume
_citation_page_first
_citation_page_last
_citation_journal_id_ASTM
primary 'Arabian Journal of Chemistry' 2014 7 177 180 AJCRDR
loop_
_publ_author_name
'Karray, R.'
'van der Lee, A.'
'Jarraya, S.'
'Ben Salah, A.'
'Kabadou, A.'
_cell_length_a 7.5170(10)
_cell_length_b 7.5170(10)
_cell_length_c 10.7153(11)
_cell_angle_alpha 90.
_cell_angle_beta 90.
_cell_angle_gamma 90.
_cell_volume 605.47
_cell_formula_units_Z 2
_symmetry_space_group_name_H-M 'P 4/m n c'
_symmetry_Int_Tables_number 128
_refine_ls_R_factor_all 0.049
loop_
_symmetry_equiv_pos_site_id
_symmetry_equiv_pos_as_xyz
1 'y+1/2, x+1/2, -z+1/2'
2 '-y+1/2, -x+1/2, -z+1/2'
3 '-y, x, -z'
4 'y, -x, -z'
5 'x+1/2, -y+1/2, -z+1/2'
6 '-x+1/2, y+1/2, -z+1/2'
7 'x, y, -z'
8 '-x, -y, -z'
9 '-y+1/2, -x+1/2, z+1/2'
10 'y+1/2, x+1/2, z+1/2'
11 'y, -x, z'
12 '-y, x, z'
13 '-x+1/2, y+1/2, z+1/2'
14 'x+1/2, -y+1/2, z+1/2'
15 '-x, -y, z'
16 'x, y, z'
loop_
_atom_type_symbol
_atom_type_oxidation_number
Te4+ 4
Li1+ 1
N3- -3
Br1- -1
H1+ 1
loop_
_atom_site_label
_atom_site_type_symbol
_atom_site_symmetry_multiplicity
_atom_site_Wyckoff_symbol
_atom_site_fract_x
_atom_site_fract_y
_atom_site_fract_z
_atom_site_B_iso_or_equiv
_atom_site_occupancy
_atom_site_attached_hydrogens
Te1 Te4+ 2 a 0 0 0 0.0213(3) 1. 0
Li1 Li1+ 4 d 0 0.5 0.25 0.035(2) 0.37(7) 0
N1 N3- 4 d 0 0.5 0.25 0.035(2) 0.63(4) 0
Br1 Br1- 4 e 0.5 0.5 0.2502(4) 0.050(2) 1. 0
Br2 Br1- 8 h 0.2267(5) 0.7307(5) 0.5 0.045(1) 1. 0
H1 H1+ 16 i 0 0.597(12) 0.202(10) 0.0501 0.63 0
loop_
_atom_site_aniso_label
_atom_site_aniso_type_symbol
_atom_site_aniso_U_11
_atom_site_aniso_U_22
_atom_site_aniso_U_33
_atom_site_aniso_U_12
_atom_site_aniso_U_13
_atom_site_aniso_U_23
Te1 Te4+ 0.010(1) 0.010(1) 0.010(1) 0 0 0
Li1 Li1+ 0.047(2) 0.047(2) 0.047(2) 0.005(3) 0.011(2) 0.011(2)
N1 N3- 0.047(2) 0.047(2) 0.047(2) 0.005(3) 0.011(2) 0.011(2)
Br1 Br1- 0.065(2) 0.065(2) 0.021(1) 0 0 0
Br2 Br1- 0.039(1) 0.032(1) 0.066(2) 0 0 0.0219(8)
#End of TTdata_291163-ICSD