
#(C) 2018 by FIZ Karlsruhe - Leibniz Institute for Information Infrastructure.  All rights reserved.
data_291401-ICSD
_database_code_ICSD 291401
_audit_creation_date 2015-08-01
_chemical_name_systematic 'Lithium cobalt phosphate(V)'
_chemical_formula_structural 'Li Co P O4'
_chemical_formula_sum 'Co1 Li1 O4 P1'
_chemical_name_structure_type Olivine-Mg2SiO4
_exptl_crystal_density_diffrn 3.75
_publ_section_title
'Controlled synthesis of Li Co P O4 by a solvo-thermal method at 220 Ã¸C'
loop_
_citation_id
_citation_journal_full
_citation_year
_citation_journal_volume
_citation_page_first
_citation_page_last
_citation_journal_id_ASTM
primary 'Materials Letters' 2015 145 324 327 MLETDJ
loop_
_publ_author_name
'Brutti, S.'
'Manzi, J.'
'De Bonis, A.'
'Di Lecce, D.'
'Vitucci, F.'
'Paolone, A.'
'Trequattrini, F.'
'Panero, S.'
_cell_length_a 10.219(2)
_cell_length_b 5.926(2)
_cell_length_c 4.707(4)
_cell_angle_alpha 90.
_cell_angle_beta 90.
_cell_angle_gamma 90.
_cell_volume 285.05
_cell_formula_units_Z 4
_symmetry_space_group_name_H-M 'P n m a'
_symmetry_Int_Tables_number 62
_refine_ls_R_factor_all 0.0205
loop_
_symmetry_equiv_pos_site_id
_symmetry_equiv_pos_as_xyz
1 'x+1/2, y, -z+1/2'
2 'x, -y+1/2, z'
3 '-x+1/2, y+1/2, z+1/2'
4 '-x, -y, -z'
5 '-x+1/2, -y, z+1/2'
6 '-x, y+1/2, -z'
7 'x+1/2, -y+1/2, -z+1/2'
8 'x, y, z'
loop_
_atom_type_symbol
_atom_type_oxidation_number
Li1+ 1
Co2+ 2
P5+ 5
O2- -2
loop_
_atom_site_label
_atom_site_type_symbol
_atom_site_symmetry_multiplicity
_atom_site_Wyckoff_symbol
_atom_site_fract_x
_atom_site_fract_y
_atom_site_fract_z
_atom_site_B_iso_or_equiv
_atom_site_occupancy
_atom_site_attached_hydrogens
Li1 Li1+ 4 a 0 0 0 1.5(8) 1. 0
Co1 Co2+ 4 c 0.777(2) 0.25 0.522(1) 1.2(3) 1. 0
P1 P5+ 4 c 0.597(2) 0.25 0.083(3) 0.7(2) 1. 0
O1 O2- 4 c 0.596(1) 0.25 0.763(1) 0.8(1) 1. 0
O2 O2- 4 c 0.954(2) 0.25 0.292(4) 0.8(1) 1. 0
O3 O2- 8 d 0.165(3) 0.044(4) 0.252(2) 0.7(2) 1. 0
#End of TTdata_291401-ICSD