
#(C) 2018 by FIZ Karlsruhe - Leibniz Institute for Information Infrastructure.  All rights reserved.
data_291520-ICSD
_database_code_ICSD 291520
_audit_creation_date 2016-02-01
_chemical_name_systematic
'Lithium strontium gallium tantalum oxide (0.16/0.69/0.25/0.75/3)'
_chemical_formula_structural '(Li0.16 Sr0.69) (Ga0.25 Ta0.75) O3'
_chemical_formula_sum 'Ga0.25 Li0.16 O3 Sr0.69 Ta0.75'
_chemical_name_structure_type Perovskite-CaTiO3
_exptl_crystal_density_diffrn 7.07
_publ_section_title

;
Syntheses, structures, and ionic conductivities of perovskite-structured
lithium-strontium-aluminum/gallium-tantalum-oxides
;
loop_
_citation_id
_citation_journal_full
_citation_year
_citation_journal_volume
_citation_page_first
_citation_page_last
_citation_journal_id_ASTM
primary 'Journal of Solid State Chemistry' 2015 225 431 437 JSSCBI
loop_
_publ_author_name
'Phraewphiphat, Thanya'
'Iqbal, Muhammad'
'Suzuki, Kota'
'Matsuda, Yasuaki'
'Yonemura, Masao'
'Hirayama, Masaaki'
'Kanno, Ryoji'
_cell_length_a 3.951465(7)
_cell_length_b 3.951465(7)
_cell_length_c 3.951465(7)
_cell_angle_alpha 90.
_cell_angle_beta 90.
_cell_angle_gamma 90.
_cell_volume 61.7
_cell_formula_units_Z 1
_symmetry_space_group_name_H-M 'P m -3 m'
_symmetry_Int_Tables_number 221
_refine_ls_R_factor_all 0.042
loop_
_symmetry_equiv_pos_site_id
_symmetry_equiv_pos_as_xyz
1 'z, y, -x'
2 'y, x, -z'
3 'x, z, -y'
4 'z, x, -y'
5 'y, z, -x'
6 'x, y, -z'
7 'z, -y, x'
8 'y, -x, z'
9 'x, -z, y'
10 'z, -x, y'
11 'y, -z, x'
12 'x, -y, z'
13 '-z, y, x'
14 '-y, x, z'
15 '-x, z, y'
16 '-z, x, y'
17 '-y, z, x'
18 '-x, y, z'
19 '-z, -y, -x'
20 '-y, -x, -z'
21 '-x, -z, -y'
22 '-z, -x, -y'
23 '-y, -z, -x'
24 '-x, -y, -z'
25 '-z, -y, x'
26 '-y, -x, z'
27 '-x, -z, y'
28 '-z, -x, y'
29 '-y, -z, x'
30 '-x, -y, z'
31 '-z, y, -x'
32 '-y, x, -z'
33 '-x, z, -y'
34 '-z, x, -y'
35 '-y, z, -x'
36 '-x, y, -z'
37 'z, -y, -x'
38 'y, -x, -z'
39 'x, -z, -y'
40 'z, -x, -y'
41 'y, -z, -x'
42 'x, -y, -z'
43 'z, y, x'
44 'y, x, z'
45 'x, z, y'
46 'z, x, y'
47 'y, z, x'
48 'x, y, z'
loop_
_atom_type_symbol
_atom_type_oxidation_number
Li1+ 1
Sr2+ 2
Ga3+ 3
Ta5+ 5
O2- -2
loop_
_atom_site_label
_atom_site_type_symbol
_atom_site_symmetry_multiplicity
_atom_site_Wyckoff_symbol
_atom_site_fract_x
_atom_site_fract_y
_atom_site_fract_z
_atom_site_B_iso_or_equiv
_atom_site_occupancy
_atom_site_attached_hydrogens
Li1 Li1+ 1 b 0.5 0.5 0.5 0.01050(10) 0.16(8) 0
Sr1 Sr2+ 1 b 0.5 0.5 0.5 0.01050(10) 0.69(2) 0
Ga1 Ga3+ 1 a 0 0 0 0.00752(7) 0.25 0
Ta1 Ta5+ 1 a 0 0 0 0.00752(7) 0.75 0
O1 O2- 3 d 0.5 0 0 0.00494(18) 1. 0
loop_
_atom_site_aniso_label
_atom_site_aniso_type_symbol
_atom_site_aniso_U_11
_atom_site_aniso_U_22
_atom_site_aniso_U_33
_atom_site_aniso_U_12
_atom_site_aniso_U_13
_atom_site_aniso_U_23
Li1 Li1+ 0.0152(19) 0.0152(19) 0.0152(19) 0 0 0
#End of TTdata_291520-ICSD