
#(C) 2018 by FIZ Karlsruhe - Leibniz Institute for Information Infrastructure.  All rights reserved.
data_2921-ICSD
_database_code_ICSD 2921
_audit_creation_date 1980-01-01
_audit_update_record 2013-08-01
_chemical_name_systematic 'Lithium triniobium oxide'
_chemical_formula_structural 'Li Nb3 O8'
_chemical_formula_sum 'Li1 Nb3 O8'
_chemical_name_structure_type LiNb3O8
_exptl_crystal_density_diffrn 5.02
_publ_section_title 'Lithium triniobate(V), Li Nb3 O8'
loop_
_citation_id
_citation_journal_full
_citation_year
_citation_journal_volume
_citation_page_first
_citation_page_last
_citation_journal_id_ASTM
primary 'Crystal Structure Communications' 1972 1 83 86 CSCMCS
loop_
_publ_author_name
'Gatehouse, B.M.'
'Leverett, P.'
_cell_length_a 7.459(4)
_cell_length_b 5.034(4)
_cell_length_c 15.270(7)
_cell_angle_alpha 90.
_cell_angle_beta 107.33(3)
_cell_angle_gamma 90.
_cell_volume 547.34
_cell_formula_units_Z 4
_symmetry_space_group_name_H-M 'P 1 21/c 1'
_symmetry_Int_Tables_number 14
_refine_ls_R_factor_all 0.038
loop_
_symmetry_equiv_pos_site_id
_symmetry_equiv_pos_as_xyz
1 'x, -y+1/2, z+1/2'
2 '-x, -y, -z'
3 '-x, y+1/2, -z+1/2'
4 'x, y, z'
loop_
_atom_type_symbol
_atom_type_oxidation_number
Nb5+ 5
O2- -2
Li1+ 1
loop_
_atom_site_label
_atom_site_type_symbol
_atom_site_symmetry_multiplicity
_atom_site_Wyckoff_symbol
_atom_site_fract_x
_atom_site_fract_y
_atom_site_fract_z
_atom_site_B_iso_or_equiv
_atom_site_occupancy
_atom_site_attached_hydrogens
Nb1 Nb5+ 4 e 0.49156(10) 0.23019(19) 0.33157(5) 0.56 1. 0
Nb2 Nb5+ 4 e 0.74905(11) 0.24547(20) 0.07491(6) 0.6 1. 0
Nb3 Nb5+ 4 e 0.98323(11) 0.24198(19) 0.33549(5) 0.56 1. 0
O1 O2- 4 e 0.9997(9) 0.0592(13) 0.0979(5) 0.27 1. 0
O2 O2- 4 e 0.4147(10) 0.0680(13) 0.2178(5) 0.24 1. 0
O3 O2- 4 e 0.7634(10) 0.0987(14) 0.3444(5) 0.3 1. 0
O4 O2- 4 e 0.5371(11) 0.4202(13) 0.1006(5) 0.44 1. 0
O5 O2- 4 e 0.912(1) 0.4126(13) 0.2148(5) 0.26 1. 0
O6 O2- 4 e 0.6460(9) 0.3958(13) 0.4609(4) 0.16 1. 0
O7 O2- 4 e 0.1467(9) 0.0643(13) 0.4513(4) 0.18 1. 0
O8 O2- 4 e 0.2774(10) 0.4149(13) 0.3445(5) 0.22 1. 0
Li1 Li1+ 4 e 0.2381(38) 0.2317(71) 0.0765(20) 2.95 1. 0
#End of TTdata_2921-ICSD