
#(C) 2018 by FIZ Karlsruhe - Leibniz Institute for Information Infrastructure.  All rights reserved.
data_30020-ICSD
_database_code_ICSD 30020
_audit_creation_date 1980-01-01
_audit_update_record 2012-08-01
_chemical_name_systematic 'Lithium sodium catena-vanadate (0.38/0.62/1)'
_chemical_formula_structural 'Li0.38 Na0.62 (V O3)'
_chemical_formula_sum 'Li0.38 Na0.62 O3 V1'
_chemical_name_structure_type NaKV2O6
_exptl_crystal_density_diffrn 2.97
_publ_section_title

;
Crystallographic studies and structural systematics of the C2/c alkali metal
metavanadates
;
loop_
_citation_id
_citation_journal_full
_citation_year
_citation_journal_volume
_citation_page_first
_citation_page_last
_citation_journal_id_ASTM
primary 'Journal of Solid State Chemistry' 1979 27 357 366 JSSCBI
loop_
_publ_author_name
'Ng, H.N.'
'Calvo, C.'
'Idler, K.L.'
_cell_length_a 10.228(5)
_cell_length_b 9.150(5)
_cell_length_c 5.850(3)
_cell_angle_alpha 90.
_cell_angle_beta 108.75(4)
_cell_angle_gamma 90.
_cell_volume 518.42
_cell_formula_units_Z 8
_symmetry_space_group_name_H-M 'C 1 2/c 1'
_symmetry_Int_Tables_number 15
_refine_ls_R_factor_all 0.039
loop_
_symmetry_equiv_pos_site_id
_symmetry_equiv_pos_as_xyz
1 'x, -y, z+1/2'
2 '-x, -y, -z'
3 '-x, y, -z+1/2'
4 'x, y, z'
5 'x+1/2, -y+1/2, z+1/2'
6 '-x+1/2, -y+1/2, -z'
7 '-x+1/2, y+1/2, -z+1/2'
8 'x+1/2, y+1/2, z'
loop_
_atom_type_symbol
_atom_type_oxidation_number
Li1+ 1
Na1+ 1
V5+ 5
O2- -2
loop_
_atom_site_label
_atom_site_type_symbol
_atom_site_symmetry_multiplicity
_atom_site_Wyckoff_symbol
_atom_site_fract_x
_atom_site_fract_y
_atom_site_fract_z
_atom_site_B_iso_or_equiv
_atom_site_occupancy
_atom_site_attached_hydrogens
Li1 Li1+ 4 e 0 0.9135(4) 0.25 . 0.76 0
Na1 Na1+ 4 e 0 0.9135(4) 0.25 . 0.24 0
Na2 Na1+ 4 e 0 0.2943(2) 0.25 . 1. 0
V1 V5+ 8 f 0.2898 0.0916 0.2492 . 1. 0
O1 O2- 8 f 0.1202(2) 0.0962(2) 0.1530(3) . 1. 0
O2 O2- 8 f 0.3506(2) 0.2573(2) 0.3028(3) . 1. 0
O3 O2- 8 f 0.3551(2) 0.0040(2) 0.0326(2) . 1. 0
loop_
_atom_site_aniso_label
_atom_site_aniso_type_symbol
_atom_site_aniso_U_11
_atom_site_aniso_U_22
_atom_site_aniso_U_33
_atom_site_aniso_U_12
_atom_site_aniso_U_13
_atom_site_aniso_U_23
Li1 Li1+ 0.0192(16) 0.0236(18) 0.0192(15) 0 0.0060(11) 0
Na1 Na1+ 0.0192(16) 0.0236(18) 0.0192(15) 0 0.0060(11) 0
Na2 Na1+ 0.0248(8) 0.0199(8) 0.0257(8) 0 -.0005(6) 0
V1 V5+ 0.0125(1) 0.0152(1) 0.0087(1) 0.0003(2) -.0037(1) 0.0006(2)
O1 O2- 0.0154(7) 0.0301(9) 0.0185(7) 0.0063(9) 0.0043(6) 0.0007(9)
O2 O2- 0.0330(11) 0.0201(9) 0.0248(9) -.0033(8) 0.0084(8) -.0021(7)
O3 O2- 0.0152(7) 0.0282(9) 0.125(7) 0.0013(7) 0.0044(6) -.0047(7)
#End of TTdata_30020-ICSD