
#(C) 2018 by FIZ Karlsruhe - Leibniz Institute for Information Infrastructure.  All rights reserved.
data_30022-ICSD
_database_code_ICSD 30022
_audit_creation_date 1980-01-01
_audit_update_record 2012-08-01
_chemical_name_systematic 'Lithium sodium catena-vanadate (.2/.8/1)'
_chemical_formula_structural 'Na0.84 Li0.16 V O3'
_chemical_formula_sum 'Li0.16 Na0.84 O3 V1'
_exptl_crystal_density_diffrn 2.93
_publ_section_title

;
Crystallographic studies and structural systematics of the C2/c alkali metal
metavanadates
;
loop_
_citation_id
_citation_journal_full
_citation_year
_citation_journal_volume
_citation_page_first
_citation_page_last
_citation_journal_id_ASTM
primary 'Journal of Solid State Chemistry' 1979 27 357 366 JSSCBI
loop_
_publ_author_name
'Ng, H.N.'
'Calvo, C.'
'Idler, K.L.'
_cell_length_a 10.446(4)
_cell_length_b 9.315(4)
_cell_length_c 5.869(2)
_cell_angle_alpha 90.
_cell_angle_beta 108.57(3)
_cell_angle_gamma 90.
_cell_volume 541.35
_cell_formula_units_Z 8
_symmetry_space_group_name_H-M 'C 1 2/c 1'
_symmetry_Int_Tables_number 15
_refine_ls_R_factor_all 0.037
loop_
_symmetry_equiv_pos_site_id
_symmetry_equiv_pos_as_xyz
1 'x, -y, z+1/2'
2 '-x, -y, -z'
3 '-x, y, -z+1/2'
4 'x, y, z'
5 'x+1/2, -y+1/2, z+1/2'
6 '-x+1/2, -y+1/2, -z'
7 '-x+1/2, y+1/2, -z+1/2'
8 'x+1/2, y+1/2, z'
loop_
_atom_type_symbol
_atom_type_oxidation_number
Li1+ 1
Na1+ 1
V5+ 5
O2- -2
loop_
_atom_site_label
_atom_site_type_symbol
_atom_site_symmetry_multiplicity
_atom_site_Wyckoff_symbol
_atom_site_fract_x
_atom_site_fract_y
_atom_site_fract_z
_atom_site_B_iso_or_equiv
_atom_site_occupancy
_atom_site_attached_hydrogens
Li1 Li1+ 4 e 0 0.9135 0.25 . 0.32 0
Na1 Na1+ 4 e 0 0.2943(2) 0.25 . 1. 0
Na2 Na1+ 4 e 0 0.9133 0.25 . 0.68 0
V1 V5+ 8 f 0.2912 0.0906 0.256 . 1. 0
O1 O2- 8 f 0.1250(2) 0.099(3) 0.1594(4) . 1. 0
O2 O2- 8 f 0.3537(3) 0.2524(3) 0.3140(4) . 1. 0
O3 O2- 8 f 0.3533(2) 0.0061(3) 0.0352(4) . 1. 0
loop_
_atom_site_aniso_label
_atom_site_aniso_type_symbol
_atom_site_aniso_U_11
_atom_site_aniso_U_22
_atom_site_aniso_U_33
_atom_site_aniso_U_12
_atom_site_aniso_U_13
_atom_site_aniso_U_23
Li1 Li1+ 0.0201(12) 0.0204(12) 0.0189(11) 0 0.0038(8) 0
Na1 Na1+ 0.0289(11) 0.0206(10) 0.0242(9) 0 -.0044(8) 0
Na2 Na1+ 0.0289(11) 0.0206(10) 0.0242(9) 0 -.0044(8) 0
V1 V5+ 0.0139(2) 0.0156(2) 0.0083(1) 0.0003(2) 0.0021(1) -.0004(2)
O1 O2- 0.0169(10) 0.0269(12) 0.0173(9) 0.0046(11) 0.0029(7) 0.0012(10)
O2 O2- 0.0370(15) 0.0196(12) 0.0257(12) -.0067(11) 0.0035(11) -.0101(9)
O3 O2- 0.018(1) 0.0280(12) 0.0148(9) 0.0012(9) 0.0021(8) -.0070(8)
#End of TTdata_30022-ICSD