
#(C) 2018 by FIZ Karlsruhe - Leibniz Institute for Information Infrastructure.  All rights reserved.
data_31858-ICSD
_database_code_ICSD 31858
_audit_creation_date 1980-01-01
_audit_update_record 1987-04-14
_chemical_name_systematic 'Lithium duo-disulfate dihydrate'
_chemical_formula_structural 'Li2 S2 O6 (H2 O)2'
_chemical_formula_sum 'H4 Li2 O8 S2'
_chemical_name_structure_type Na2S2O6(H2O)2
_exptl_crystal_density_diffrn 2.19
_publ_section_title 'Dynamics of Water in Crystal Hydrates'
loop_
_citation_id
_citation_journal_full
_citation_year
_citation_journal_volume
_citation_page_first
_citation_page_last
_citation_journal_id_ASTM
primary

;
Zeitschrift fuer Naturforschung, Teil A. Physikalische Chemie, Kosmophysik
(2,1947-32,1977)
; 1967 22 1440 1451 ZENAAU
loop_
_publ_author_name
'Berthold, I.'
'Weiss, A.'
_cell_length_a 6.01(1)
_cell_length_b 10.440(5)
_cell_length_c 10.151(5)
_cell_angle_alpha 90.
_cell_angle_beta 90.
_cell_angle_gamma 90.
_cell_volume 636.92
_cell_formula_units_Z 4
_symmetry_space_group_name_H-M 'P n m a'
_symmetry_Int_Tables_number 62
loop_
_symmetry_equiv_pos_site_id
_symmetry_equiv_pos_as_xyz
1 'x+1/2, y, -z+1/2'
2 'x, -y+1/2, z'
3 '-x+1/2, y+1/2, z+1/2'
4 '-x, -y, -z'
5 '-x+1/2, -y, z+1/2'
6 '-x, y+1/2, -z'
7 'x+1/2, -y+1/2, -z+1/2'
8 'x, y, z'
loop_
_atom_type_symbol
_atom_type_oxidation_number
S5+ 5
O2- -2
Li1+ 1
H1+ 1
loop_
_atom_site_label
_atom_site_type_symbol
_atom_site_symmetry_multiplicity
_atom_site_Wyckoff_symbol
_atom_site_fract_x
_atom_site_fract_y
_atom_site_fract_z
_atom_site_B_iso_or_equiv
_atom_site_occupancy
_atom_site_attached_hydrogens
S1 S5+ 4 c 0.256(1) 0.25 0.465(1) 1.02 1. 0
S2 S5+ 4 c -.027(1) 0.25 0.593(1) 0.88 1. 0
O1 O2- 8 d 0.376(1) 0.133(1) 0.493(1) 2.04 1. 0
O2 O2- 4 c 0.153(2) 0.25 0.336(1) 1.73 1. 0
O3 O2- 8 d -.140(1) 0.131(1) 0.559(1) 1.84 1. 0
O4 O2- 4 c 0.057(2) 0.25 0.727(1) 1.95 1. 0
O5 O2- 8 d 0.241(1) 0.024(1) 0.202(1) 1.97 1. 0
Li1 Li1+ 8 d 0.069(3) 0.071(1) 0.840(1) 2.03 1. 0
H1 H1+ 8 d 0.794(5) 0.458(2) 0.385(3) . 1. 0
H2 H1+ 8 d 0.700(5) 0.394(2) 0.263(3) . 1. 0
#End of TTdata_31858-ICSD