
#(C) 2018 by FIZ Karlsruhe - Leibniz Institute for Information Infrastructure.  All rights reserved.
data_33776-ICSD
_database_code_ICSD 33776
_audit_creation_date 1991-07-10
_audit_update_record 1991-11-23
_chemical_name_systematic 'Lithium manganate(VII) trihydrate'
_chemical_formula_structural 'Li Mn O4 (H2 O)3'
_chemical_formula_sum 'H6 Li1 Mn1 O7'
_chemical_name_structure_type LiClO4(H2O)3
_exptl_crystal_density_diffrn 2.09
_publ_section_title 'Ueber den Aufbau von LiMnO4 * 3H2O = (Li(OH2)6/2)(MnO4)'
loop_
_citation_id
_citation_journal_full
_citation_year
_citation_journal_volume
_citation_page_first
_citation_page_last
_citation_journal_id_ASTM
primary 'Zeitschrift fuer Anorganische und Allgemeine Chemie (1950) (DE)' 1990
590 18 22 ZAACAB
loop_
_publ_author_name
'Fischer, D.'
'Hoppe, R.'
_cell_length_a 7.794(1)
_cell_length_b 7.794(1)
_cell_length_c 5.427(1)
_cell_angle_alpha 90.
_cell_angle_beta 90.
_cell_angle_gamma 120.
_cell_volume 285.5
_cell_formula_units_Z 2
_symmetry_space_group_name_H-M 'P 63 m c'
_symmetry_Int_Tables_number 186
_refine_ls_R_factor_all 0.033
loop_
_symmetry_equiv_pos_site_id
_symmetry_equiv_pos_as_xyz
1 '-x, -x+y, z+1/2'
2 'x-y, -y, z+1/2'
3 'y, x, z+1/2'
4 'x-y, x, z+1/2'
5 'y, -x+y, z+1/2'
6 '-x, -y, z+1/2'
7 'x, x-y, z'
8 '-x+y, y, z'
9 '-y, -x, z'
10 '-x+y, -x, z'
11 '-y, x-y, z'
12 'x, y, z'
loop_
_atom_type_symbol
_atom_type_oxidation_number
Mn7+ 7
Li1+ 1
O2- -2
H1+ 1
loop_
_atom_site_label
_atom_site_type_symbol
_atom_site_symmetry_multiplicity
_atom_site_Wyckoff_symbol
_atom_site_fract_x
_atom_site_fract_y
_atom_site_fract_z
_atom_site_B_iso_or_equiv
_atom_site_occupancy
_atom_site_attached_hydrogens
Mn1 Mn7+ 2 b 0.3333 0.6667 0 . 1. 0
Li1 Li1+ 2 a 0 0 0.2264(23) . 1. 0
O1 O2- 2 b 0.3333 0.6667 0.2958(9) . 1. 0
O2 O2- 6 c 0.4463(2) 0.5537(2) 0.9009(6) . 1. 0
O3 O2- 6 c 0.1222(2) 0.8778(2) 0.4898(8) . 1. 0
H1 H1+ 12 d 0.3330(83) 0.2512(83) 0.9244(95) 0.099(27) 1. 0
loop_
_atom_site_aniso_label
_atom_site_aniso_type_symbol
_atom_site_aniso_U_11
_atom_site_aniso_U_22
_atom_site_aniso_U_33
_atom_site_aniso_U_12
_atom_site_aniso_U_13
_atom_site_aniso_U_23
Mn1 Mn7+ 0.0131(2) 0.0131(2) 0.0245(3) 0.0065(1) 0 0
Li1 Li1+ 0.0302(25) 0.0302(25) 0.0095(45) 0.0151(23) 0 0
O1 O2- 0.0352(16) 0.0352(16) 0.0282(20) 0.0176(8) 0 0
O2 O2- 0.0303(11) 0.0303(11) 0.0454(13) 0.0200(12) 0.0038(5) -.0038(5)
O3 O2- 0.0228(6) 0.0228(6) 0.0338(10) 0.0130(7) -.0006(9) 0.0006(9)
#End of TTdata_33776-ICSD