
#(C) 2017 by FIZ Karlsruhe - Leibniz Institute for Information Infrastructure.  All rights reserved.
data_33865-ICSD
_database_code_ICSD 33865
_audit_creation_date 1992-01-20
_audit_update_record 2006-04-01
_chemical_name_systematic 'Dilithium tetrabromomanganate(II)'
_chemical_formula_structural 'Li2 (Mn Br4)'
_chemical_formula_sum 'Br4 Li2 Mn1'
_chemical_name_structure_type Mn2SnS4
_exptl_crystal_density_diffrn 3.86
_publ_section_title
'Li2 Mn Br4(o-rh.) - eine geordnete Na Cl-Defektstruktur des Sn Mn2 S4-Typs'
loop_
_citation_id
_citation_journal_full
_citation_year
_citation_journal_volume
_citation_page_first
_citation_page_last
_citation_journal_id_ASTM
primary 'Zeitschrift fuer Anorganische und Allgemeine Chemie (1950) (DE)' 1991
592 106 114 ZAACAB
loop_
_publ_author_name
'Lutz, H.D.'
'Schneider, M.'
'Kuske, P.'
'Steiner, H.J.'
_cell_length_a 7.7778(4)
_cell_length_b 11.0658(5)
_cell_length_c 3.8818(2)
_cell_angle_alpha 90.
_cell_angle_beta 90.
_cell_angle_gamma 90.
_cell_volume 334.1
_cell_formula_units_Z 2
_symmetry_space_group_name_H-M 'C m m m'
_symmetry_Int_Tables_number 65
_refine_ls_R_factor_all 0.129
loop_
_symmetry_equiv_pos_site_id
_symmetry_equiv_pos_as_xyz
1 'x, -y, z'
2 '-x, y, z'
3 'x, y, -z'
4 '-x, -y, -z'
5 '-x, y, -z'
6 'x, -y, -z'
7 '-x, -y, z'
8 'x, y, z'
9 'x+1/2, -y+1/2, z'
10 '-x+1/2, y+1/2, z'
11 'x+1/2, y+1/2, -z'
12 '-x+1/2, -y+1/2, -z'
13 '-x+1/2, y+1/2, -z'
14 'x+1/2, -y+1/2, -z'
15 '-x+1/2, -y+1/2, z'
16 'x+1/2, y+1/2, z'
loop_
_atom_type_symbol
_atom_type_oxidation_number
Li1+ 1
Mn2+ 2
Br1- -1
loop_
_atom_site_label
_atom_site_type_symbol
_atom_site_symmetry_multiplicity
_atom_site_Wyckoff_symbol
_atom_site_fract_x
_atom_site_fract_y
_atom_site_fract_z
_atom_site_B_iso_or_equiv
_atom_site_occupancy
_atom_site_attached_hydrogens
Li1 Li1+ 4 f 0.25 0.25 0.5 . 1. 0
Mn1 Mn2+ 2 a 0 0 0 1.5(3) 1. 0
Br1 Br1- 4 h 0.2433(8) 0 0.5 1.65(3) 1. 0
Br2 Br1- 4 i 0 0.2415(4) 0 1.65(3) 1. 0
loop_
_atom_site_aniso_label
_atom_site_aniso_type_symbol
_atom_site_aniso_U_11
_atom_site_aniso_U_22
_atom_site_aniso_U_33
_atom_site_aniso_U_12
_atom_site_aniso_U_13
_atom_site_aniso_U_23
Li1 Li1+ 0.024(11) 0.058(10) 0.048(13) -0.008(12) 0 0
#End of TTdata_33865-ICSD