
#(C) 2018 by FIZ Karlsruhe - Leibniz Institute for Information Infrastructure.  All rights reserved.
data_33890-ICSD
_database_code_ICSD 33890
_audit_creation_date 1992-01-20
_chemical_name_systematic 'Disodium trilithium tetraoxocobaltate'
_chemical_formula_structural 'Na2 Li3 Co O4'
_chemical_formula_sum 'Co1 Li3 Na2 O4'
_chemical_name_structure_type Li3Na2GaO4
_exptl_crystal_density_diffrn 2.94
_publ_section_title
'Na2Li3CoO4, das erste quaternaere Oxocobaltat(III) der Alkalimetalle'
loop_
_citation_id
_citation_journal_full
_citation_year
_citation_journal_volume
_citation_page_first
_citation_page_last
_citation_journal_id_ASTM
primary 'Zeitschrift fuer Anorganische und Allgemeine Chemie (1950) (DE)' 1991
597 19 26 ZAACAB
loop_
_publ_author_name
'Birx, J.'
'Hoppe, R.'
_cell_length_a 8.187(3)
_cell_length_b 7.994(2)
_cell_length_c 6.551(2)
_cell_angle_alpha 90.
_cell_angle_beta 90.
_cell_angle_gamma 90.
_cell_volume 428.74
_cell_formula_units_Z 4
_symmetry_space_group_name_H-M 'P n n m'
_symmetry_Int_Tables_number 58
_refine_ls_R_factor_all 0.0198
loop_
_symmetry_equiv_pos_site_id
_symmetry_equiv_pos_as_xyz
1 'x+1/2, -y+1/2, z+1/2'
2 '-x+1/2, y+1/2, z+1/2'
3 'x, y, -z'
4 '-x, -y, -z'
5 '-x+1/2, y+1/2, -z+1/2'
6 'x+1/2, -y+1/2, -z+1/2'
7 '-x, -y, z'
8 'x, y, z'
loop_
_atom_type_symbol
_atom_type_oxidation_number
Co3+ 3
Na1+ 1
Li1+ 1
O2- -2
loop_
_atom_site_label
_atom_site_type_symbol
_atom_site_symmetry_multiplicity
_atom_site_Wyckoff_symbol
_atom_site_fract_x
_atom_site_fract_y
_atom_site_fract_z
_atom_site_B_iso_or_equiv
_atom_site_occupancy
_atom_site_attached_hydrogens
Co1 Co3+ 4 g 0.118 0.2238 0 . 1. 0
Na1 Na1+ 4 g 0.2506(1) 0.7406(1) 0 . 1. 0
Na2 Na1+ 4 f 0 0.5 0.2573(1) . 1. 0
Li1 Li1+ 8 h 0.6499(3) 0.5152(4) 0.2442(4) . 1. 0
Li2 Li1+ 4 g 0.5897(5) 0.7364(5) 0 . 1. 0
O1 O2- 4 g 0.2201(2) 0.4370(2) 0 . 1. 0
O2 O2- 8 h 0.0148(1) 0.1965(1) 0.2467(2) . 1. 0
O3 O2- 4 g 0.2746(2) 0.0463(2) 0 . 1. 0
loop_
_atom_site_aniso_label
_atom_site_aniso_type_symbol
_atom_site_aniso_U_11
_atom_site_aniso_U_22
_atom_site_aniso_U_33
_atom_site_aniso_U_12
_atom_site_aniso_U_13
_atom_site_aniso_U_23
Co1 Co3+ 0.0070(1) 0.0049(1) 0.0055(1) 0.0003(1) 0 0
Na1 Na1+ 0.0168(5) 0.0105(4) 0.0244(5) 0.0004(3) 0 0
Na2 Na1+ 0.0118(4) 0.0085(4) 0.0121(4) 0.0006(3) 0 0
Li1 Li1+ 0.0136(13) 0.0120(12) 0.0125(11) 0.0004(10) 0.0001(9) 0.001(1)
Li2 Li1+ 0.0106(18) 0.0164(20) 0.0102(17) -.0003(14) 0 0
O1 O2- 0.0086(6) 0.0059(6) 0.0085(5) -.0013(5) 0 0
O2 O2- 0.0107(5) 0.0078(5) 0.0090(4) -.0007(3) 0.0035(3) 0.0000(3)
O3 O2- 0.0072(6) 0.0068(6) 0.0090(6) 0.0014(5) 0 0
#End of TTdata_33890-ICSD