
#(C) 2018 by FIZ Karlsruhe - Leibniz Institute for Information Infrastructure.  All rights reserved.
data_33902-ICSD
_database_code_ICSD 33902
_audit_creation_date 1992-01-20
_chemical_name_systematic
'Trilithium tristrontium catena-tetrakis(nitridoniccolate)'
_chemical_formula_structural 'Li3 Sr3 Ni4 N4'
_chemical_formula_sum 'Li3 N4 Ni4 Sr3'
_exptl_crystal_density_diffrn 4.04
_publ_section_title
'Li3Sr3Ni4N4: Ein niedervalentes Nitridoniccolat mit 1(NiN)-Ketten'
loop_
_citation_id
_citation_journal_full
_citation_year
_citation_journal_volume
_citation_page_first
_citation_page_last
_citation_journal_id_ASTM
primary 'Zeitschrift fuer Anorganische und Allgemeine Chemie (1950) (DE)' 1991
597 61 67 ZAACAB
loop_
_publ_author_name
'Gudat, A.'
'Kniep, R.'
'Rabenau, A.'
_cell_length_a 4.011(1)
_cell_length_b 7.088(3)
_cell_length_c 16.630(8)
_cell_angle_alpha 90.
_cell_angle_beta 90.
_cell_angle_gamma 90.
_cell_volume 472.79
_cell_formula_units_Z 2
_symmetry_space_group_name_H-M 'I m m m'
_symmetry_Int_Tables_number 71
_refine_ls_R_factor_all 0.042
loop_
_symmetry_equiv_pos_site_id
_symmetry_equiv_pos_as_xyz
1 'x, y, -z'
2 'x, -y, z'
3 '-x, y, z'
4 '-x, -y, -z'
5 '-x, -y, z'
6 '-x, y, -z'
7 'x, -y, -z'
8 'x, y, z'
9 'x+1/2, y+1/2, -z+1/2'
10 'x+1/2, -y+1/2, z+1/2'
11 '-x+1/2, y+1/2, z+1/2'
12 '-x+1/2, -y+1/2, -z+1/2'
13 '-x+1/2, -y+1/2, z+1/2'
14 '-x+1/2, y+1/2, -z+1/2'
15 'x+1/2, -y+1/2, -z+1/2'
16 'x+1/2, y+1/2, z+1/2'
loop_
_atom_type_symbol
_atom_type_oxidation_number
Sr2+ 2
Ni0+ 0.75
N3- -3
Li1+ 1
loop_
_atom_site_label
_atom_site_type_symbol
_atom_site_symmetry_multiplicity
_atom_site_Wyckoff_symbol
_atom_site_fract_x
_atom_site_fract_y
_atom_site_fract_z
_atom_site_B_iso_or_equiv
_atom_site_occupancy
_atom_site_attached_hydrogens
Sr1 Sr2+ 4 i 0 0 0.2188(1) . 1. 0
Sr2 Sr2+ 2 a 0 0 0 . 1. 0
Ni1 Ni0+ 8 l 0 0.2502(1) 0.3801(1) . 1. 0
N1 N3- 4 j 0.5 0 0.1152(5) . 1. 0
N2 N3- 4 i 0 0 0.3797(4) . 1. 0
Li1 Li1+ 4 j 0.5 0 0.3841(11) 0.0150(34) 1. 0
Li2 Li1+ 2 c 0.5 0.5 0 0.0130(42) 1. 0
loop_
_atom_site_aniso_label
_atom_site_aniso_type_symbol
_atom_site_aniso_U_11
_atom_site_aniso_U_22
_atom_site_aniso_U_33
_atom_site_aniso_U_12
_atom_site_aniso_U_13
_atom_site_aniso_U_23
Sr1 Sr2+ 0.0089(3) 0.0117(4) 0.0088(3) 0 0 0
Sr2 Sr2+ 0.0100(4) 0.0143(5) 0.0095(5) 0 0 0
Ni1 Ni0+ 0.0096(3) 0.0056(4) 0.0105(3) 0.0052(14) 0 0
N1 N3- 0.0049(21) 0.0109(28) 0.0166(34) 0 0 0
N2 N3- 0.0099(24) 0.0083(26) 0.0072(29) 0 0 0
#End of TTdata_33902-ICSD