
#(C) 2018 by FIZ Karlsruhe - Leibniz Institute for Information Infrastructure.  All rights reserved.
data_34073-ICSD
_database_code_ICSD 34073
_audit_creation_date 1980-01-01
_chemical_name_systematic 'Disodium lithium iron(III) phyllo-disilicate'
_chemical_formula_structural 'Na2 Li Fe (Si2 O5)3'
_chemical_formula_sum 'Fe1 Li1 Na2 O15 Si6'
_chemical_name_structure_type Tuhualite
_exptl_crystal_density_diffrn 2.78
_publ_section_title 'Kristallicheskaya struktura Na2 Li Fe (Si2 O3)3'
loop_
_citation_id
_citation_journal_full
_citation_year
_citation_journal_volume
_citation_page_first
_citation_page_last
_citation_journal_id_ASTM
primary 'Doklady Akademii Nauk SSSR' 1975 221 842 845 DANKAS
loop_
_publ_author_name
'Sandomirskii, P.A.'
_cell_length_a 14.036(7)
_cell_length_b 17.404(5)
_cell_length_c 10.113(3)
_cell_angle_alpha 90.
_cell_angle_beta 90.
_cell_angle_gamma 90.
_cell_volume 2470.43
_cell_formula_units_Z 8
_symmetry_space_group_name_H-M 'C m c a'
_symmetry_Int_Tables_number 64
_refine_ls_R_factor_all 0.034
loop_
_symmetry_equiv_pos_site_id
_symmetry_equiv_pos_as_xyz
1 '-x, -y+1/2, z+1/2'
2 '-x, y+1/2, -z+1/2'
3 '-x, y, z'
4 '-x, -y, -z'
5 'x, y+1/2, -z+1/2'
6 'x, -y+1/2, z+1/2'
7 'x, -y, -z'
8 'x, y, z'
9 '-x+1/2, -y, z+1/2'
10 '-x+1/2, y, -z+1/2'
11 '-x+1/2, y+1/2, z'
12 '-x+1/2, -y+1/2, -z'
13 'x+1/2, y, -z+1/2'
14 'x+1/2, -y, z+1/2'
15 'x+1/2, -y+1/2, -z'
16 'x+1/2, y+1/2, z'
loop_
_atom_type_symbol
_atom_type_oxidation_number
Fe3+ 3
Si4+ 4
Na1+ 1
Li1+ 1
O2- -2
loop_
_atom_site_label
_atom_site_type_symbol
_atom_site_symmetry_multiplicity
_atom_site_Wyckoff_symbol
_atom_site_fract_x
_atom_site_fract_y
_atom_site_fract_z
_atom_site_B_iso_or_equiv
_atom_site_occupancy
_atom_site_attached_hydrogens
Fe1 Fe3+ 8 e 0.25 0.08606(3) 0.25 . 1. 0
Si1 Si4+ 16 g 0.11333(6) 0.13203(5) 0.98613(8) . 1. 0
Si2 Si4+ 16 g 0.11363(6) 0.18997(4) 0.45810(8) . 1. 0
Si3 Si4+ 16 g 0.11373(6) 0.07217(4) 0.69188(8) . 1. 0
Na1 Na1+ 8 e 0.25 0.22508(12) 0.75 . 1. 0
Na2 Na1+ 8 f 0 0.08521(14) 0.25144(29) . 1. 0
Li1 Li1+ 8 d 0.24921(61) 0 0.5 . 1. 0
O1 O2- 16 g 0.16647(17) 0.16801(12) 0.32502(21) . 1. 0
O2 O2- 16 g 0.17057(16) 0.07892(12) 0.08568(21) . 1. 0
O3 O2- 16 g 0.16945(16) 0.00479(12) 0.33795(21) . 1. 0
O4 O2- 16 g 0.14309(17) 0.13868(13) 0.58679(22) . 1. 0
O5 O2- 8 f 0 0.18038(21) 0.43361(39) . 1. 0
O6 O2- 16 g 0.13862(18) 0.22290(12) 0.00287(24) . 1. 0
O7 O2- 16 g 0.13986(17) 0.11183(14) 0.83324(21) . 1. 0
O8 O2- 8 f 0 0.12013(22) 0.01263(37) . 1. 0
O9 O2- 8 f 0 0.05465(21) 0.68839(37) . 1. 0
loop_
_atom_site_aniso_label
_atom_site_aniso_type_symbol
_atom_site_aniso_B_11
_atom_site_aniso_B_22
_atom_site_aniso_B_33
_atom_site_aniso_B_12
_atom_site_aniso_B_13
_atom_site_aniso_B_23
Fe1 Fe3+ 0.49(2) 0.49(2) 0.45(2) 0 0.01(2) 0
Si1 Si4+ 0.35(2) 0.40(2) 0.36(2) -.05(2) -.03(2) -.02(2)
Si2 Si4+ 0.38(2) 0.36(2) 0.43(2) -.01(2) 0.07(2) -.04(2)
Si3 Si4+ 0.36(2) 0.43(2) 0.35(2) 0.04(2) 0.02(2) 0.03(2)
Na1 Na1+ 2.23(9) 0.79(8) 3.08(11) 0 1.4(1) 0
Na2 Na1+ 5.86(17) 1.50(8) 1.32(8) 0 0 -.03(9)
Li1 Li1+ 0.5(2) 0.12(18) -.01(17) 0 0 -.32(15)
O1 O2- 0.96(7) 0.76(7) 0.68(6) 0.18(6) 0.27(6) -.03(6)
O2 O2- 0.79(7) 0.76(7) 0.61(6) 0.11(6) -.29(5) 0.07(5)
O3 O2- 0.85(7) 0.57(6) 0.72(6) 0.28(6) 0.00(6) 0.04(5)
O4 O2- 1.10(8) 0.84(7) 0.77(7) 0.00(6) 0.00(6) 0.41(6)
O5 O2- 0.48(10) 1.69(14) 1.64(14) 0 0 -.04(11)
O6 O2- 1.75(9) 0.39(6) 1.19(8) -.04(6) -.23(7) 0.04(6)
O7 O2- 1.26(8) 1.41(8) 0.43(6) 0.00(7) -.02(6) -.22(6)
O8 O2- 0.39(9) 1.85(14) 1.45(13) 0 0 0.24(11)
O9 O2- 0.39(9) 1.47(12) 1.50(13) 0 0 0.18(11)
#End of TTdata_34073-ICSD