
#(C) 2018 by FIZ Karlsruhe - Leibniz Institute for Information Infrastructure.  All rights reserved.
data_34256-ICSD
_database_code_ICSD 34256
_audit_creation_date 1980-01-01
_audit_update_record 2007-04-01
_chemical_name_systematic 'Lithium borate - gamma, HP'
_chemical_formula_structural 'Li (B O2)'
_chemical_formula_sum 'B1 Li1 O2'
_chemical_name_structure_type KCoO2(tP16)
_exptl_crystal_density_diffrn 2.88
_publ_section_title

;
Polymorphism of Li M O2 compounds and high-pressure single-crystal synthetis
of Li B O2
;
loop_
_citation_id
_citation_journal_full
_citation_year
_citation_journal_volume
_citation_page_first
_citation_page_last
_citation_journal_id_ASTM
primary 'Journal of Chemical Physics' 1966 44 3348 3353 JCPSA6
loop_
_publ_author_name
'Marezio, M.'
'Remeika, J.P.'
_cell_length_a 4.1961(4)
_cell_length_b 4.1961(4)
_cell_length_c 6.5112(7)
_cell_angle_alpha 90.
_cell_angle_beta 90.
_cell_angle_gamma 90.
_cell_volume 114.64
_cell_formula_units_Z 4
_symmetry_space_group_name_H-M 'I -4 2 d'
_symmetry_Int_Tables_number 122
_refine_ls_R_factor_all 0.028
loop_
_symmetry_equiv_pos_site_id
_symmetry_equiv_pos_as_xyz
1 '-y, -x+1/2, z+1/4'
2 'y, -x, -z'
3 'y, x+1/2, z+1/4'
4 '-y, x, -z'
5 'x, -y+1/2, -z+1/4'
6 '-x, -y, z'
7 '-x, y+1/2, -z+1/4'
8 'x, y, z'
9 '-y+1/2, -x, z+3/4'
10 'y+1/2, -x+1/2, -z+1/2'
11 'y+1/2, x, z+3/4'
12 '-y+1/2, x+1/2, -z+1/2'
13 'x+1/2, -y, -z+3/4'
14 '-x+1/2, -y+1/2, z+1/2'
15 '-x+1/2, y, -z+3/4'
16 'x+1/2, y+1/2, z+1/2'
loop_
_atom_type_symbol
_atom_type_oxidation_number
O2- -2
Li1+ 1
B3+ 3
loop_
_atom_site_label
_atom_site_type_symbol
_atom_site_symmetry_multiplicity
_atom_site_Wyckoff_symbol
_atom_site_fract_x
_atom_site_fract_y
_atom_site_fract_z
_atom_site_B_iso_or_equiv
_atom_site_occupancy
_atom_site_attached_hydrogens
O1 O2- 8 d 0.1574(6) 0.25 0.125 . 1. 0
Li1 Li1+ 4 b 0 0 0.5 . 1. 0
B1 B3+ 4 a 0 0 0 . 1. 0
loop_
_atom_site_aniso_label
_atom_site_aniso_type_symbol
_atom_site_aniso_beta_11
_atom_site_aniso_beta_22
_atom_site_aniso_beta_33
_atom_site_aniso_beta_12
_atom_site_aniso_beta_13
_atom_site_aniso_beta_23
O1 O2- 0.0039(16) 0.0043(17) 0.0026(6) 0 0 -.0003(9)
Li1 Li1+ 0.0114(35) 0.0114 0.0105(27) 0 0 0
B1 B3+ 0.0039(21) 0.0039 0.0015(13) 0 0 0
#End of TTdata_34256-ICSD