
#(C) 2017 by FIZ Karlsruhe - Leibniz Institute for Information Infrastructure.  All rights reserved.
data_34672-ICSD
_database_code_ICSD 34672
_audit_creation_date 1986-10-02
_audit_update_record 2003-04-01
_chemical_name_systematic 'Trilithium hexafluoroaluminate - alpha'
_chemical_formula_structural 'Li3 (Al F6)'
_chemical_formula_sum 'Al1 F6 Li3'
_exptl_crystal_density_diffrn 2.82
_publ_section_title 'The crystal structure of alpha-Li3 Al F6'
loop_
_citation_id
_citation_journal_full
_citation_year
_citation_journal_volume
_citation_page_first
_citation_page_last
_citation_journal_id_ASTM
primary 'Acta Crystallographica B (24,1968-38,1982)' 1968 24 225 230 ACBCAR
loop_
_publ_author_name
'Burns, J.H.'
'Tennissen, A.C.'
'Brunton, G.D.'
_cell_length_a 9.51
_cell_length_b 8.2295
_cell_length_c 4.8762
_cell_angle_alpha 90.
_cell_angle_beta 90.
_cell_angle_gamma 90.
_cell_volume 381.62
_cell_formula_units_Z 4
_symmetry_space_group_name_H-M 'P n a 21'
_symmetry_Int_Tables_number 33
_refine_ls_R_factor_all 0.017
loop_
_symmetry_equiv_pos_site_id
_symmetry_equiv_pos_as_xyz
1 'x+1/2, -y+1/2, z'
2 '-x+1/2, y+1/2, z+1/2'
3 '-x, -y, z+1/2'
4 'x, y, z'
loop_
_atom_type_symbol
_atom_type_oxidation_number
Al3+ 3
F1- -1
Li1+ 1
loop_
_atom_site_label
_atom_site_type_symbol
_atom_site_symmetry_multiplicity
_atom_site_Wyckoff_symbol
_atom_site_fract_x
_atom_site_fract_y
_atom_site_fract_z
_atom_site_B_iso_or_equiv
_atom_site_occupancy
_atom_site_attached_hydrogens
Al1 Al3+ 4 a 0.12779(4) 0.24031(3) 0 . 1. 0
F1 F1- 4 a 0.22373(7) 0.06821(8) 0.14055(26) . 1. 0
F2 F1- 4 a 0.02326(8) 0.24326(7) 0.30699(23) . 1. 0
F3 F1- 4 a 0.23609(7) 0.23421(8) 0.69815(22) . 1. 0
F4 F1- 4 a 0.02888(7) 0.40216(8) 0.85078(24) . 1. 0
F5 F1- 4 a 0.24358(7) 0.38174(8) 0.17257(25) . 1. 0
F6 F1- 4 a 0.01361(6) 0.09168(8) 0.83164(24) . 1. 0
Li1 Li1+ 4 a 0.37529(21) 0.34902(28) 0.50727(79) . 1. 0
Li2 Li1+ 4 a 0.10546(22) 0.45729(27) 0.49687(93) . 1. 0
Li3 Li1+ 4 a 0.35387(22) 0.54574(26) 0.00235(92) . 1. 0
loop_
_atom_site_aniso_label
_atom_site_aniso_type_symbol
_atom_site_aniso_beta_11
_atom_site_aniso_beta_22
_atom_site_aniso_beta_33
_atom_site_aniso_beta_12
_atom_site_aniso_beta_13
_atom_site_aniso_beta_23
Al1 Al3+ 0.00153(3) 0.00145(4) 0.00398(13) -.00009(2) 0.00000(4) 0.00000(8)
F1 F1- 0.00271(7) 0.00276(9) 0.00804(34) 0.00072(6) 0.00037(14) 0.00088(17)
F2 F1- 0.00258(7) 0.00377(9) 0.00743(40) -.00031(6) 0.00122(15) -.00040(13)
F3 F1- 0.00261(7) 0.00389(10) 0.00632(41) -.00050(6) 0.00122(15) -.00034(15)
F4 F1- 0.00304(7) 0.00319(8) 0.00936(33) 0.00110(7) 0.00026(16) 0.00097(15)
F5 F1- 0.00264(6) 0.00313(9) 0.00877(35) -.00084(6) -.00032(14) -.00052(16)
F6 F1- 0.00269(7) 0.00314(8) 0.00848(35) -.00104(6) -.00001(14) -.00082(14)
Li1 Li1+ 0.00292(20) 0.00663(30) 0.01776(90) -.00015(20) 0.00258(38) -.0006(7)
Li2 Li1+ 0.00311(20) 0.00547(28) 0.01372(88) 0.00022(20) -.00028(58) 0.00218(61)
Li3 Li1+ 0.00386(21) 0.00462(27) 0.00957(81) -.00096(19) 0.00023(58) -.00008(59)
#End of TTdata_34672-ICSD