
#(C) 2018 by FIZ Karlsruhe - Leibniz Institute for Information Infrastructure.  All rights reserved.
data_35018-ICSD
_database_code_ICSD 35018
_audit_creation_date 1982-12-31
_chemical_name_systematic 'Lithium tetrathiophosphate'
_chemical_formula_structural 'Li3 P S4'
_chemical_formula_sum 'Li3 P1 S4'
_exptl_crystal_density_diffrn 1.87
_publ_section_title 'Structure du tetrathiophosphate de lithium'
loop_
_citation_id
_citation_journal_full
_citation_year
_citation_journal_volume
_citation_page_first
_citation_page_last
_citation_journal_id_ASTM
primary

;
Acta Crystallographica, Section B: Structural Crystallography and Crystal
Chemistry
; 1982 38 1887 1890 ACBCAR
loop_
_publ_author_name
'Mercier, R.'
'Malugani, J.P.'
'Fahys, B.'
'Robert, G.'
_cell_length_a 13.066(3)
_cell_length_b 8.015(2)
_cell_length_c 6.101(2)
_cell_angle_alpha 90.
_cell_angle_beta 90.
_cell_angle_gamma 90.
_cell_volume 638.92
_cell_formula_units_Z 4
_symmetry_space_group_name_H-M 'P n m a'
_symmetry_Int_Tables_number 62
_refine_ls_R_factor_all 0.046
loop_
_symmetry_equiv_pos_site_id
_symmetry_equiv_pos_as_xyz
1 'x+1/2, y, -z+1/2'
2 'x, -y+1/2, z'
3 '-x+1/2, y+1/2, z+1/2'
4 '-x, -y, -z'
5 '-x+1/2, -y, z+1/2'
6 '-x, y+1/2, -z'
7 'x+1/2, -y+1/2, -z+1/2'
8 'x, y, z'
loop_
_atom_type_symbol
_atom_type_oxidation_number
S2- -2
P5+ 5
Li1+ 1
loop_
_atom_site_label
_atom_site_type_symbol
_atom_site_symmetry_multiplicity
_atom_site_Wyckoff_symbol
_atom_site_fract_x
_atom_site_fract_y
_atom_site_fract_z
_atom_site_B_iso_or_equiv
_atom_site_occupancy
_atom_site_attached_hydrogens
S1 S2- 8 d 0.1532(3) 0.0367(5) 0.2784(6) . 1. 0
S2 S2- 4 c -.0624(4) 0.25 0.2674(9) . 1. 0
S3 S2- 4 c 0.1012(5) 0.25 -.1758(8) . 1. 0
P1 P5+ 4 c 0.0874(4) 0.25 0.1576(8) . 1. 0
Li1 Li1+ 8 d 0.332(2) 0.033(5) 0.386(5) 5.6 1. 0
Li2 Li1+ 4 b 0 0 0.5 8.00(12) 0.68(12) 0
Li3 Li1+ 4 c -.074(11) 0.25 -.306(29) 4.20(12) 0.28(12) 0
loop_
_atom_site_aniso_label
_atom_site_aniso_type_symbol
_atom_site_aniso_U_11
_atom_site_aniso_U_22
_atom_site_aniso_U_33
_atom_site_aniso_U_12
_atom_site_aniso_U_13
_atom_site_aniso_U_23
S1 S2- 0.0384(17) 0.0330(18) 0.0318(20) 0.0052(20) 0.0000(18) 0.0073(23)
S2 S2- 0.0295(22) 0.0357(25) 0.0248(30) 0 0.0040(24) 0
S3 S2- 0.0560(34) 0.0319(31) 0.0200(31) 0 0.0001(30) 0
P1 P5+ 0.0324(29) 0.0332(37) 0.0203(32) 0 0.0001(25) 0
#End of TTdata_35018-ICSD