
#(C) 2017 by FIZ Karlsruhe - Leibniz Institute for Information Infrastructure.  All rights reserved.
data_35233-ICSD
_database_code_ICSD 35233
_audit_creation_date 1982-12-31
_audit_update_record 2005-10-01
_chemical_name_systematic 'Lithium manganese iron(III) fluoride - beta, HT'
_chemical_formula_structural 'Li Mn Fe F6'
_chemical_formula_sum 'F6 Fe1 Li1 Mn1'
_chemical_name_structure_type Na2SiF6
_exptl_crystal_density_diffrn 3.69
_publ_section_title

;
The dimorphism of Li Mn Fe F6: A new kind of cationic order in the structural
type Na2 Si F6
;
loop_
_citation_id
_citation_journal_full
_citation_year
_citation_journal_volume
_citation_page_first
_citation_page_last
_citation_journal_id_ASTM
primary 'Journal of Solid State Chemistry' 1982 45 127 134 JSSCBI
loop_
_publ_author_name
'Courbion, G.'
'Jacoboni, C.'
'de Pape, R.'
_cell_length_a 8.723(2)
_cell_length_b 8.723(2)
_cell_length_c 4.745(1)
_cell_angle_alpha 90.
_cell_angle_beta 90.
_cell_angle_gamma 120.
_cell_volume 312.68
_cell_formula_units_Z 3
_symmetry_space_group_name_H-M 'P 3 2 1'
_symmetry_Int_Tables_number 150
_refine_ls_R_factor_all 0.027
loop_
_symmetry_equiv_pos_site_id
_symmetry_equiv_pos_as_xyz
1 'x-y, -y, -z'
2 '-x, -x+y, -z'
3 'y, x, -z'
4 '-x+y, -x, z'
5 '-y, x-y, z'
6 'x, y, z'
loop_
_atom_type_symbol
_atom_type_oxidation_number
Fe3+ 3
Mn2+ 2
Li1+ 1
F1- -1
loop_
_atom_site_label
_atom_site_type_symbol
_atom_site_symmetry_multiplicity
_atom_site_Wyckoff_symbol
_atom_site_fract_x
_atom_site_fract_y
_atom_site_fract_z
_atom_site_B_iso_or_equiv
_atom_site_occupancy
_atom_site_attached_hydrogens
Fe1 Fe3+ 1 a 0 0 0 0.6 1. 0
Fe2 Fe3+ 2 d 0.3333 0.6667 0.506(4) 0.6 1. 0
Mn1 Mn2+ 3 e 0.352(4) 0 0 0.6 1. 0
Li1 Li1+ 3 f 0.714(4) 0 0.5 0.6 1. 0
F1 F1- 6 g 0.541(1) 0.420(2) 0.268(4) 0.8 1. 0
F2 F1- 6 g 0.226(4) 0.462(6) 0.270(5) 0.8 1. 0
F3 F1- 6 g 0.221(4) 0.098(6) 0.226(5) 0.8 1. 0
#End of TTdata_35233-ICSD