
#(C) 2017 by FIZ Karlsruhe - Leibniz Institute for Information Infrastructure.  All rights reserved.
data_35277-ICSD
_database_code_ICSD 35277
_audit_creation_date 1982-12-31
_chemical_name_systematic 'Lithium aluminium chloride'
_chemical_formula_structural 'Li Al Cl4'
_chemical_formula_sum 'Al1 Cl4 Li1'
_chemical_name_structure_type LiAlCl4
_exptl_crystal_density_diffrn 1.94
_cell_measurement_temperature 364.
_publ_section_title
'Die Strukturen von Li Al Cl4 und Na Al Cl4 als Funktion der Temperatur'
loop_
_citation_id
_citation_journal_full
_citation_year
_citation_journal_volume
_citation_page_first
_citation_page_last
_citation_journal_id_ASTM
primary 'Zeitschrift fuer Anorganische und Allgemeine Chemie (1950) (DE)' 1982
491 259 265 ZAACAB
loop_
_publ_author_name
'Perenthaler, E.'
'Schulz, H.'
'Rabenau, A.'
_cell_length_a 7.023(7)
_cell_length_b 6.554(6)
_cell_length_c 13.075(9)
_cell_angle_alpha 90.
_cell_angle_beta 93.3(1)
_cell_angle_gamma 90.
_cell_volume 600.83
_cell_formula_units_Z 4
_symmetry_space_group_name_H-M 'P 1 21/c 1'
_symmetry_Int_Tables_number 14
_refine_ls_R_factor_all 0.016
loop_
_symmetry_equiv_pos_site_id
_symmetry_equiv_pos_as_xyz
1 'x, -y+1/2, z+1/2'
2 '-x, -y, -z'
3 '-x, y+1/2, -z+1/2'
4 'x, y, z'
loop_
_atom_type_symbol
_atom_type_oxidation_number
Li1+ 1
Al3+ 3
Cl1- -1
loop_
_atom_site_label
_atom_site_type_symbol
_atom_site_symmetry_multiplicity
_atom_site_Wyckoff_symbol
_atom_site_fract_x
_atom_site_fract_y
_atom_site_fract_z
_atom_site_B_iso_or_equiv
_atom_site_occupancy
_atom_site_attached_hydrogens
Li1 Li1+ 4 e 0.1589(7) 0.9839(9) 0.3646(4) . 1. 0
Al1 Al3+ 4 e 0.7064(1) 0.3216(1) 0.89916(6) . 1. 0
Cl1 Cl1- 4 e 0.69482(9) 0.1843(1) 0.04572(5) . 1. 0
Cl2 Cl1- 4 e 0.8081(1) 0.6258(1) 0.92769(6) . 1. 0
Cl3 Cl1- 4 e 0.92463(9) 0.1815(1) 0.81420(5) . 1. 0
Cl4 Cl1- 4 e 0.44102(9) 0.3134(1) 0.81372(5) . 1. 0
loop_
_atom_site_aniso_label
_atom_site_aniso_type_symbol
_atom_site_aniso_beta_11
_atom_site_aniso_beta_22
_atom_site_aniso_beta_33
_atom_site_aniso_beta_12
_atom_site_aniso_beta_13
_atom_site_aniso_beta_23
Li1 Li1+ 0.025(2) 0.040(2) 0.0084(4) 0.000(2) 0.0006(6) 0.0024(8)
Al1 Al3+ 0.0124(2) 0.0204(2) 0.00410(5) -.00111(2) 0.00023(7) -.0001(1)
Cl1 Cl1- 0.0224(2) 0.0282(2) 0.00486(5) -.0061(2) 0.00046(7) 0.00253(9)
Cl2 Cl1- 0.0187(2) 0.0191(2) 0.00717(5) -.00218(2) -.00179(7) 0.00009(9)
Cl3 Cl1- 0.0155(1) 0.0324(2) 0.00583(5) 0.0020(2) 0.00135(6) -.0029(1)
Cl4 Cl1- 0.0143(1) 0.0275(2) 0.00585(4) -.0002(2) -.00175(6) -.0018(2)
#End of TTdata_35277-ICSD