
#(C) 2017 by FIZ Karlsruhe - Leibniz Institute for Information Infrastructure.  All rights reserved.
data_35655-ICSD
_database_code_ICSD 35655
_audit_creation_date 1983-12-31
_audit_update_record 2012-02-01
_chemical_name_systematic 'Dicesium trilithium iodide'
_chemical_formula_structural 'Cs2 Li3 I5'
_chemical_formula_sum 'Cs2 I5 Li3'
_chemical_name_structure_type Cs2Li3I5
_exptl_crystal_density_diffrn 3.93
_publ_section_title
'Synthesis and crystal structure of the inter-alkali metal iodide Cs2 Li3 I5'
loop_
_citation_id
_citation_journal_full
_citation_year
_citation_journal_volume
_citation_page_first
_citation_page_last
_citation_journal_id_ASTM
primary 'Materials Research Bulletin' 1983 18 1353 1360 MRBUAC
loop_
_publ_author_name
'Meyer, G.'
'Gaebell, H.C.'
_cell_length_a 16.668(6)
_cell_length_b 4.721(1)
_cell_length_c 10.987(4)
_cell_angle_alpha 90.
_cell_angle_beta 115.73(3)
_cell_angle_gamma 90.
_cell_volume 778.84
_cell_formula_units_Z 2
_symmetry_space_group_name_H-M 'C 1 2/m 1'
_symmetry_Int_Tables_number 12
_refine_ls_R_factor_all 0.069
loop_
_symmetry_equiv_pos_site_id
_symmetry_equiv_pos_as_xyz
1 '-x, y, -z'
2 '-x, -y, -z'
3 'x, -y, z'
4 'x, y, z'
5 '-x+1/2, y+1/2, -z'
6 '-x+1/2, -y+1/2, -z'
7 'x+1/2, -y+1/2, z'
8 'x+1/2, y+1/2, z'
loop_
_atom_type_symbol
_atom_type_oxidation_number
Cs1+ 1
Li1+ 1
I1- -1
loop_
_atom_site_label
_atom_site_type_symbol
_atom_site_symmetry_multiplicity
_atom_site_Wyckoff_symbol
_atom_site_fract_x
_atom_site_fract_y
_atom_site_fract_z
_atom_site_B_iso_or_equiv
_atom_site_occupancy
_atom_site_attached_hydrogens
Cs1 Cs1+ 4 i 0.31493(8) 0 0.7748(1) . 1. 0
Li1 Li1+ 2 d 0.5 0 0.5 0.0063 1. 0
Li2 Li1+ 4 i 0.0531(24) 0 0.7947(34) 0.0433 1. 0
I1 I1- 2 a 0 0 0 . 1. 0
I2 I1- 4 i 0.10423(8) 0 0.4365(1) . 1. 0
I3 I1- 4 i 0.64203(9) 0 0.8103(1) . 1. 0
loop_
_atom_site_aniso_label
_atom_site_aniso_type_symbol
_atom_site_aniso_U_11
_atom_site_aniso_U_22
_atom_site_aniso_U_33
_atom_site_aniso_U_12
_atom_site_aniso_U_13
_atom_site_aniso_U_23
Cs1 Cs1+ 0.0288(6) 0.0344(7) 0.0489(7) 0 0.0174(5) 0
I1 I1- 0.0336(9) 0.0415(10) 0.0301(9) 0 0.0177(7) 0
I2 I1- 0.0332(7) 0.0562(9) 0.0342(7) 0 0.0140(5) 0
I3 I1- 0.0405(7) 0.0279(6) 0.0613(9) 0 0.0324(6) 0
#End of TTdata_35655-ICSD