
#(C) 2018 by FIZ Karlsruhe - Leibniz Institute for Information Infrastructure.  All rights reserved.
data_36508-ICSD
_database_code_ICSD 36508
_audit_creation_date 1992-01-20
_chemical_name_systematic 'Lithium nickel phosphide (3.4/10.6/7)'
_chemical_formula_structural 'Li3.4 Ni10.6 P7'
_chemical_formula_sum 'Li3.4 Ni10.6 P7'
_chemical_name_structure_type Zr2Fe12P7
_exptl_crystal_density_diffrn 5.63
_publ_section_title 'Neue ternaere Alkaliphosphide und -arsenide des Nickels'
loop_
_citation_id
_citation_journal_full
_citation_year
_citation_journal_volume
_citation_page_first
_citation_page_last
_citation_journal_id_ASTM
primary 'Zeitschrift fuer Kristallographie (1979-2010)' 1991 196 179 192 ZEKRDZ
loop_
_publ_author_name
'Welzl, C.'
'Schuster, H.U.'
_cell_length_a 9.053(3)
_cell_length_b 9.053(3)
_cell_length_c 3.586(2)
_cell_angle_alpha 90.
_cell_angle_beta 90.
_cell_angle_gamma 120.
_cell_volume 254.52
_cell_formula_units_Z 1
_symmetry_space_group_name_H-M 'P -6'
_symmetry_Int_Tables_number 174
_refine_ls_R_factor_all 0.036
loop_
_symmetry_equiv_pos_site_id
_symmetry_equiv_pos_as_xyz
1 '-x+y, -x, -z'
2 '-y, x-y, -z'
3 'x, y, -z'
4 '-x+y, -x, z'
5 '-y, x-y, z'
6 'x, y, z'
loop_
_atom_type_symbol
_atom_type_oxidation_number
P3- -3
Ni1+ 1.66
Li1+ 1
Ni1+ 1.66
Li1+ 1
loop_
_atom_site_label
_atom_site_type_symbol
_atom_site_symmetry_multiplicity
_atom_site_Wyckoff_symbol
_atom_site_fract_x
_atom_site_fract_y
_atom_site_fract_z
_atom_site_B_iso_or_equiv
_atom_site_occupancy
_atom_site_attached_hydrogens
P1 P3- 1 a 0 0 0 0.0075(11) 1. 0
P2 P3- 3 k 0.1244(4) 0.4149(4) 0.5 0.0095(7) 1. 0
P3 P3- 3 j 0.4205(4) 0.2969(4) 0 0.0054(7) 1. 0
Ni1 Ni1+ 3 k 0.3872(2) 0.4360(2) 0.5 0.0078(4) 1. 0
Ni2 Ni1+ 3 j 0.4315(2) 0.0582(2) 0 0.0063(4) 1. 0
Ni3 Ni1+ 3 j 0.1623(2) 0.2806(2) 0 0.0071(4) 1. 0
Li1 Li1+ 3 k 0.2190(3) 0.0948(3) 0.5 0.0078(6) 0.4667 0
Ni4 Ni1+ 3 k 0.2190(3) 0.0948(3) 0.5 0.0078(6) 0.5333 0
Li2 Li1+ 1 c 0.3333 0.6667 0 0.0275(67) 1. 0
Li3 Li1+ 1 f 0.6667 0.3333 0.5 0.0229(65) 1. 0
#End of TTdata_36508-ICSD