
#(C) 2017 by FIZ Karlsruhe - Leibniz Institute for Information Infrastructure.  All rights reserved.
data_36538-ICSD
_database_code_ICSD 36538
_audit_creation_date 1992-08-20
_audit_update_record 2010-08-01
_chemical_name_systematic 'Lithium samarium hexafluoroaluminate'
_chemical_formula_structural 'Li Sm (Al F6)'
_chemical_formula_sum 'Al1 F6 Li1 Sm1'
_chemical_name_structure_type LiSmAlF6
_exptl_crystal_density_diffrn 4.26
_publ_section_title
'Li Sm Al F6 - das erste Fluoroaluminat mit zweiwertigem Samarium'
loop_
_citation_id
_citation_journal_full
_citation_year
_citation_journal_volume
_citation_page_first
_citation_page_last
_citation_journal_id_ASTM
primary 'Zeitschrift fuer Anorganische und Allgemeine Chemie (1950) (DE)' 1991
606 169 176 ZAACAB
loop_
_publ_author_name
'Koehler, J.'
'Mueller, B.G.'
_cell_length_a 5.079(1)
_cell_length_b 5.079(1)
_cell_length_c 10.405(1)
_cell_angle_alpha 90.
_cell_angle_beta 90.
_cell_angle_gamma 120.
_cell_volume 232.45
_cell_formula_units_Z 2
_symmetry_space_group_name_H-M 'P 63 2 2'
_symmetry_Int_Tables_number 182
_refine_ls_R_factor_all 0.016
loop_
_symmetry_equiv_pos_site_id
_symmetry_equiv_pos_as_xyz
1 'x, x-y, -z+1/2'
2 '-x+y, y, -z+1/2'
3 '-y, -x, -z+1/2'
4 'x-y, x, z+1/2'
5 'y, -x+y, z+1/2'
6 '-x, -y, z+1/2'
7 '-x, -x+y, -z'
8 'x-y, -y, -z'
9 'y, x, -z'
10 '-x+y, -x, z'
11 '-y, x-y, z'
12 'x, y, z'
loop_
_atom_type_symbol
_atom_type_oxidation_number
Sm2+ 2
Al3+ 3
F1- -1
Li1+ 1
loop_
_atom_site_label
_atom_site_type_symbol
_atom_site_symmetry_multiplicity
_atom_site_Wyckoff_symbol
_atom_site_fract_x
_atom_site_fract_y
_atom_site_fract_z
_atom_site_B_iso_or_equiv
_atom_site_occupancy
_atom_site_attached_hydrogens
Sm1 Sm2+ 2 a 0 0 0 . 1. 0
Al1 Al3+ 2 d 0.6667 0.3333 0.25 . 1. 0
F1 F1- 12 i 0.3882(3) 0.0314(3) 0.1502(2) . 1. 0
Li1 Li1+ 2 c 0.3333 0.6667 0.25 0.05 1. 0
loop_
_atom_site_aniso_label
_atom_site_aniso_type_symbol
_atom_site_aniso_U_11
_atom_site_aniso_U_22
_atom_site_aniso_U_33
_atom_site_aniso_U_12
_atom_site_aniso_U_13
_atom_site_aniso_U_23
Sm1 Sm2+ 0.0114(1) 0.0114(1) 0.0076(1) 0.0057 0 0
Al1 Al3+ 0.0069(4) 0.0069(4) 0.0086(7) 0.0035(2) 0 0
F1 F1- 0.0214(6) 0.0183(6) 0.0194(5) 0.0076(5) -.0092(5) -.0011(5)
#End of TTdata_36538-ICSD