
#(C) 2018 by FIZ Karlsruhe - Leibniz Institute for Information Infrastructure.  All rights reserved.
data_36644-ICSD
_database_code_ICSD 36644
_audit_creation_date 1993-01-06
_audit_update_record 2011-02-01
_chemical_name_systematic 'Dirubidium lithium arsenate(V)'
_chemical_formula_structural 'Rb2 Li (As O4)'
_chemical_formula_sum 'As1 Li1 O4 Rb2'
_chemical_name_structure_type Rb2LiAsO4
_exptl_crystal_density_diffrn 3.9
_publ_section_title

;
Neue Alkalioxoarsenate (V): Zur Kenntnis von Rb2 Li (As O4) und Cs2 Li (As O4)
;
loop_
_citation_id
_citation_journal_full
_citation_year
_citation_journal_volume
_citation_page_first
_citation_page_last
_citation_journal_id_ASTM
primary 'Zeitschrift fuer Anorganische und Allgemeine Chemie (1950) (DE)' 1992
610 103 111 ZAACAB
loop_
_publ_author_name
'Schneidersmann, C.'
'Hoppe, R.'
_cell_length_a 5.821(4)
_cell_length_b 11.711(7)
_cell_length_c 7.924(5)
_cell_angle_alpha 90.
_cell_angle_beta 90.
_cell_angle_gamma 90.
_cell_volume 540.18
_cell_formula_units_Z 4
_symmetry_space_group_name_H-M 'C m c 21'
_symmetry_Int_Tables_number 36
_refine_ls_R_factor_all 0.0316
loop_
_symmetry_equiv_pos_site_id
_symmetry_equiv_pos_as_xyz
1 'x, -y, z+1/2'
2 '-x, -y, z+1/2'
3 '-x, y, z'
4 'x, y, z'
5 'x+1/2, -y+1/2, z+1/2'
6 '-x+1/2, -y+1/2, z+1/2'
7 '-x+1/2, y+1/2, z'
8 'x+1/2, y+1/2, z'
loop_
_atom_type_symbol
_atom_type_oxidation_number
Rb1+ 1
As5+ 5
Li1+ 1
O2- -2
loop_
_atom_site_label
_atom_site_type_symbol
_atom_site_symmetry_multiplicity
_atom_site_Wyckoff_symbol
_atom_site_fract_x
_atom_site_fract_y
_atom_site_fract_z
_atom_site_B_iso_or_equiv
_atom_site_occupancy
_atom_site_attached_hydrogens
Rb1 Rb1+ 4 a 0 0.3959(1) 0 . 1. 0
Rb2 Rb1+ 4 a 0 0.9422(1) 0.6535(2) . 1. 0
As1 As5+ 4 a 0 0.3104(1) 0.4449(2) . 1. 0
Li1 Li1+ 4 a 0 0.7935(21) 0.2324(27) . 1. 0
O1 O2- 4 a 0 0.1679(6) 0.4772(10) . 1. 0
O2 O2- 4 a 0 0.3682(6) 0.6419(11) . 1. 0
O3 O2- 8 b 0.7643(10) 0.3539(6) 0.3396(8) . 1. 0
loop_
_atom_site_aniso_label
_atom_site_aniso_type_symbol
_atom_site_aniso_U_11
_atom_site_aniso_U_22
_atom_site_aniso_U_33
_atom_site_aniso_U_12
_atom_site_aniso_U_13
_atom_site_aniso_U_23
Rb1 Rb1+ 0.0271(5) 0.0181(6) 0.0244(4) 0 0 -.0020(4)
Rb2 Rb1+ 0.0270(5) 0.0167(5) 0.0260(4) 0 0 0.0027(4)
As1 As5+ 0.0170(5) 0.0102(5) 0.0172(4) 0 0 -.0013(4)
Li1 Li1+ 0.029(11) 0.027(12) 0.0295(95) 0 0 -.0018(87)
O1 O2- 0.0397(47) 0.0054(37) 0.0300(47) 0 0 -.0006(30)
O2 O2- 0.0366(41) 0.0036(31) 0.0226(33) 0 0 -.0033(29)
O3 O2- 0.0254(29) 0.0268(38) 0.0313(27) 0.0014(23) -.0102(22) 0.0009(25)
#End of TTdata_36644-ICSD