
#(C) 2018 by FIZ Karlsruhe - Leibniz Institute for Information Infrastructure.  All rights reserved.
data_37071-ICSD
_database_code_ICSD 37071
_audit_creation_date 1982-12-31
_audit_update_record 2012-02-01
_chemical_name_systematic 'Trilithium disodium gallate'
_chemical_formula_structural 'Li3 Na2 (Ga O4)'
_chemical_formula_sum 'Ga1 Li3 Na2 O4'
_chemical_name_structure_type Li3Na2GaO4
_exptl_crystal_density_diffrn 3.11
_publ_section_title
'Das erste Inselgallat mit unterschiedlichen Gegen-Kationen: Li3 Na2 (Ga O4)'
loop_
_citation_id
_citation_journal_full
_citation_year
_citation_journal_volume
_citation_page_first
_citation_page_last
_citation_journal_id_ASTM
primary 'Zeitschrift fuer Anorganische und Allgemeine Chemie (1950) (DE)' 1982
495 7 15 ZAACAB
loop_
_publ_author_name
'Koehler, J.'
'Hoppe, R.'
_cell_length_a 8.2660(9)
_cell_length_b 7.9461(7)
_cell_length_c 6.5153(6)
_cell_angle_alpha 90.
_cell_angle_beta 90.
_cell_angle_gamma 90.
_cell_volume 427.94
_cell_formula_units_Z 4
_symmetry_space_group_name_H-M 'P n n m'
_symmetry_Int_Tables_number 58
_refine_ls_R_factor_all 0.0397
loop_
_symmetry_equiv_pos_site_id
_symmetry_equiv_pos_as_xyz
1 'x+1/2, -y+1/2, z+1/2'
2 '-x+1/2, y+1/2, z+1/2'
3 'x, y, -z'
4 '-x, -y, -z'
5 '-x+1/2, y+1/2, -z+1/2'
6 'x+1/2, -y+1/2, -z+1/2'
7 '-x, -y, z'
8 'x, y, z'
loop_
_atom_type_symbol
_atom_type_oxidation_number
Ga3+ 3
Na1+ 1
O2- -2
Li1+ 1
loop_
_atom_site_label
_atom_site_type_symbol
_atom_site_symmetry_multiplicity
_atom_site_Wyckoff_symbol
_atom_site_fract_x
_atom_site_fract_y
_atom_site_fract_z
_atom_site_B_iso_or_equiv
_atom_site_occupancy
_atom_site_attached_hydrogens
Ga1 Ga3+ 4 g 0.1253(1) 0.2246(1) 0 . 1. 0
Na1 Na1+ 4 g 0.2454(4) 0.7405(3) 0 . 1. 0
Na2 Na1+ 4 f 0 0.5 0.2588(4) . 1. 0
O1 O2- 4 g 0.2246(5) 0.4347(5) 0 . 1. 0
O2 O2- 8 h 0.0118(3) 0.1967(4) 0.2407(4) . 1. 0
O3 O2- 4 g 0.2779(5) 0.0495(5) 0 . 1. 0
Li1 Li1+ 8 h 0.6498(9) 0.5158(9) 0.2442(11) . 1. 0
Li2 Li1+ 4 g 0.5767(14) 0.7351(13) 0 . 1. 0
loop_
_atom_site_aniso_label
_atom_site_aniso_type_symbol
_atom_site_aniso_U_11
_atom_site_aniso_U_22
_atom_site_aniso_U_33
_atom_site_aniso_U_12
_atom_site_aniso_U_13
_atom_site_aniso_U_23
Ga1 Ga3+ 0.0083(3) 0.0051(3) 0.0019(3) -.0002(2) 0 0
Na1 Na1+ 0.0242(13) 0.0151(13) 0.0252(16) 0.0008(10) 0 0
Na2 Na1+ 0.0213(11) 0.0123(11) 0.0110(12) -.0002(8) 0 0
O1 O2- 0.0115(16) 0.0058(17) 0.0052(17) -.0029(14) 0 0
O2 O2- 0.0124(12) 0.0066(12) 0.0064(13) -.0013(10) 0.0039(10) 0.0002(10)
O3 O2- 0.0095(16) 0.0064(18) 0.0057(17) 0.0006(14) 0 0
Li1 Li1+ 0.0118(30) 0.0083(29) 0.0077(30) -.0005(23) -.0003(25) 0.0011(25)
Li2 Li1+ 0.0167(41) 0.0132(42) 0.0059(41) 0.0000(34) 0 0
#End of TTdata_37071-ICSD