
#(C) 2017 by FIZ Karlsruhe - Leibniz Institute for Information Infrastructure.  All rights reserved.
data_37250-ICSD
_database_code_ICSD 37250
_audit_creation_date 1986-10-02
_audit_update_record 2013-02-01
_chemical_name_systematic 'Dipotassium lithium hexafluoroaluminate'
_chemical_formula_structural 'K2 Li (Al F6)'
_chemical_formula_sum 'Al1 F6 K2 Li1'
_chemical_name_structure_type Perovskite-K2LiAlF6
_exptl_crystal_density_diffrn 3.07
_publ_section_title

;
Die Struktur des Tief-K2 Li (Al F6) und ihre Beziehung zu Elpasolith, K2 Na
(Al F6) und anderen Strukturen
;
loop_
_citation_id
_citation_journal_full
_citation_year
_citation_journal_volume
_citation_page_first
_citation_page_last
_citation_journal_id_ASTM
primary 'Beitraege zur Mineralogie und Petrographie (-11,1965)' 1952 3 297 306
BMUPA4
loop_
_publ_author_name
'Winkler, H.G.F.'
_cell_length_a 5.574(2)
_cell_length_b 5.574(2)
_cell_length_c 13.648(20)
_cell_angle_alpha 90.
_cell_angle_beta 90.
_cell_angle_gamma 120.
_cell_volume 367.23
_cell_formula_units_Z 3
_symmetry_space_group_name_H-M 'R -3 m HR'
_symmetry_Int_Tables_number 166
loop_
_symmetry_equiv_pos_site_id
_symmetry_equiv_pos_as_xyz
1 'x-y, -y, -z'
2 '-x, -x+y, -z'
3 'y, x, -z'
4 'x-y, x, -z'
5 'y, -x+y, -z'
6 '-x, -y, -z'
7 '-x+y, y, z'
8 'x, x-y, z'
9 '-y, -x, z'
10 '-x+y, -x, z'
11 '-y, x-y, z'
12 'x, y, z'
13 'x-y+1/3, -y+2/3, -z+1/3'
14 '-x+1/3, -x+y+2/3, -z+1/3'
15 'y+1/3, x+2/3, -z+1/3'
16 'x-y+1/3, x+2/3, -z+1/3'
17 'y+1/3, -x+y+2/3, -z+1/3'
18 '-x+1/3, -y+2/3, -z+1/3'
19 '-x+y+1/3, y+2/3, z+1/3'
20 'x+1/3, x-y+2/3, z+1/3'
21 '-y+1/3, -x+2/3, z+1/3'
22 '-x+y+1/3, -x+2/3, z+1/3'
23 '-y+1/3, x-y+2/3, z+1/3'
24 'x+1/3, y+2/3, z+1/3'
25 'x-y+2/3, -y+1/3, -z+2/3'
26 '-x+2/3, -x+y+1/3, -z+2/3'
27 'y+2/3, x+1/3, -z+2/3'
28 'x-y+2/3, x+1/3, -z+2/3'
29 'y+2/3, -x+y+1/3, -z+2/3'
30 '-x+2/3, -y+1/3, -z+2/3'
31 '-x+y+2/3, y+1/3, z+2/3'
32 'x+2/3, x-y+1/3, z+2/3'
33 '-y+2/3, -x+1/3, z+2/3'
34 '-x+y+2/3, -x+1/3, z+2/3'
35 '-y+2/3, x-y+1/3, z+2/3'
36 'x+2/3, y+1/3, z+2/3'
loop_
_atom_type_symbol
_atom_type_oxidation_number
Al3+ 3
Li1+ 1
K1+ 1
F1- -1
loop_
_atom_site_label
_atom_site_type_symbol
_atom_site_symmetry_multiplicity
_atom_site_Wyckoff_symbol
_atom_site_fract_x
_atom_site_fract_y
_atom_site_fract_z
_atom_site_B_iso_or_equiv
_atom_site_occupancy
_atom_site_attached_hydrogens
Al1 Al3+ 3 a 0 0 0 . 1. 0
Li1 Li1+ 3 b 0 0 0.5 . 1. 0
K1 K1+ 6 c 0 0 0.2523 . 1. 0
F1 F1- 18 h -.158(2) 0.158(2) 0.080(1) . 1. 0
#End of TTdata_37250-ICSD