
#(C) 2018 by FIZ Karlsruhe - Leibniz Institute for Information Infrastructure.  All rights reserved.
data_380105-ICSD
_database_code_ICSD 380105
_audit_creation_date 1997-05-13
_chemical_name_systematic 'Lithium strontium trithioborate'
_chemical_formula_structural 'Li Sr (B S3)'
_chemical_formula_sum 'B1 Li1 S3 Sr1'
_exptl_crystal_density_diffrn 2.77
_publ_section_title

;
Li3BS3 und LiSRBS3: Neue Orthothioborate mit trigonal-planar koordiniertem Bor
;
loop_
_citation_id
_citation_journal_full
_citation_year
_citation_journal_volume
_citation_page_first
_citation_page_last
_citation_journal_id_ASTM
primary 'Zeitschrift fuer Anorganische und Allgemeine Chemie (1950) (DE)' 1996
622 1508 1514 ZAACAB
loop_
_publ_author_name
'Hiltmann, F.'
'Jansen, C.'
'Krebs, B.'
_cell_length_a 7.557(1)
_cell_length_b 9.083(2)
_cell_length_c 7.049(1)
_cell_angle_alpha 90.
_cell_angle_beta 90.
_cell_angle_gamma 90.
_cell_volume 483.84
_cell_formula_units_Z 4
_symmetry_space_group_name_H-M 'P n m a'
_symmetry_Int_Tables_number 62
_refine_ls_R_factor_all 0.0368
loop_
_symmetry_equiv_pos_site_id
_symmetry_equiv_pos_as_xyz
1 'x+1/2, y, -z+1/2'
2 'x, -y+1/2, z'
3 '-x+1/2, y+1/2, z+1/2'
4 '-x, -y, -z'
5 '-x+1/2, -y, z+1/2'
6 '-x, y+1/2, -z'
7 'x+1/2, -y+1/2, -z+1/2'
8 'x, y, z'
loop_
_atom_type_symbol
_atom_type_oxidation_number
Sr2+ 2
S2- -2
B3+ 3
Li1+ 1
loop_
_atom_site_label
_atom_site_type_symbol
_atom_site_symmetry_multiplicity
_atom_site_Wyckoff_symbol
_atom_site_fract_x
_atom_site_fract_y
_atom_site_fract_z
_atom_site_B_iso_or_equiv
_atom_site_occupancy
_atom_site_attached_hydrogens
Sr1 Sr2+ 4 c 0.35643(7) 0.75 0.52635(8) . 1. 0
S1 S2- 4 c 0.0226(2) 0.25 0.6220(2) . 1. 0
S2 S2- 8 d 0.30428(14) 0.42128(11) 0.36929(15) . 1. 0
B1 B3+ 4 c 0.2146(9) 0.25 0.4621(9) . 1. 0
Li1 Li1+ 4 b 0 0.5 0.5 . 1. 0
loop_
_atom_site_aniso_label
_atom_site_aniso_type_symbol
_atom_site_aniso_U_11
_atom_site_aniso_U_22
_atom_site_aniso_U_33
_atom_site_aniso_U_12
_atom_site_aniso_U_13
_atom_site_aniso_U_23
Sr1 Sr2+ 0.0106(3) 0.0154(4) 0.0124(4) 0 0.0004(2) 0
S1 S2- 0.0105(6) 0.0127(7) 0.0124(7) 0 0.0001(5) 0
S2 S2- 0.0132(5) 0.0076(5) 0.0167(6) -.0013(4) 0.0014(4) 0.0005(4)
B1 B3+ 0.010(3) 0.013(3) 0.014(3) 0 -.003(2) 0
Li1 Li1+ 0.031(8) 0.015(7) 0.150(21) 0.001(6) 0.035(10) 0.025(9)
#End of TTdata_380105-ICSD