
#(C) 2018 by FIZ Karlsruhe - Leibniz Institute for Information Infrastructure.  All rights reserved.
data_380360-ICSD
_database_code_ICSD 380360
_audit_creation_date 2012-08-01
_chemical_name_systematic 'Lithium tristrontium tantalum hexaoxide'
_chemical_formula_structural 'Li Sr3 Ta O6'
_chemical_formula_sum 'Li1 O6 Sr3 Ta1'
_chemical_name_structure_type K4CdCl6
_exptl_crystal_density_diffrn 5.83
_cell_measurement_temperature 293.
_publ_section_title

;
Crystal growth and structures of new niobium and tantalum oxides : Sr3 Li Nb
O6 and Sr3 Li Ta O6
;
loop_
_citation_id
_citation_journal_full
_citation_year
_citation_journal_volume
_citation_page_first
_citation_page_last
_citation_journal_id_ASTM
primary 'Journal of Chemical Crystallography' 2011 41 1195 1197 JCCYEV
loop_
_publ_author_name
'Zhu, Tian Xiang'
'Chang, Hong Young'
'Halasyamani, P.S.'
_cell_length_a 9.8111(11)
_cell_length_b 9.8111(11)
_cell_length_c 11.2056(12)
_cell_angle_alpha 90.
_cell_angle_beta 90.
_cell_angle_gamma 120.
_cell_volume 934.12
_cell_formula_units_Z 6
_symmetry_space_group_name_H-M 'R -3 c H'
_symmetry_Int_Tables_number 167
_refine_ls_R_factor_all 0.0263
loop_
_symmetry_equiv_pos_site_id
_symmetry_equiv_pos_as_xyz
1 'x-y, -y, -z+1/2'
2 '-x, -x+y, -z+1/2'
3 'y, x, -z+1/2'
4 'x-y, x, -z'
5 'y, -x+y, -z'
6 '-x, -y, -z'
7 '-x+y, y, z+1/2'
8 'x, x-y, z+1/2'
9 '-y, -x, z+1/2'
10 '-x+y, -x, z'
11 '-y, x-y, z'
12 'x, y, z'
13 'x-y+2/3, -y+1/3, -z+5/6'
14 '-x+2/3, -x+y+1/3, -z+5/6'
15 'y+2/3, x+1/3, -z+5/6'
16 'x-y+2/3, x+1/3, -z+1/3'
17 'y+2/3, -x+y+1/3, -z+1/3'
18 '-x+2/3, -y+1/3, -z+1/3'
19 '-x+y+2/3, y+1/3, z+5/6'
20 'x+2/3, x-y+1/3, z+5/6'
21 '-y+2/3, -x+1/3, z+5/6'
22 '-x+y+2/3, -x+1/3, z+1/3'
23 '-y+2/3, x-y+1/3, z+1/3'
24 'x+2/3, y+1/3, z+1/3'
25 'x-y+1/3, -y+2/3, -z+1/6'
26 '-x+1/3, -x+y+2/3, -z+1/6'
27 'y+1/3, x+2/3, -z+1/6'
28 'x-y+1/3, x+2/3, -z+2/3'
29 'y+1/3, -x+y+2/3, -z+2/3'
30 '-x+1/3, -y+2/3, -z+2/3'
31 '-x+y+1/3, y+2/3, z+1/6'
32 'x+1/3, x-y+2/3, z+1/6'
33 '-y+1/3, -x+2/3, z+1/6'
34 '-x+y+1/3, -x+2/3, z+2/3'
35 '-y+1/3, x-y+2/3, z+2/3'
36 'x+1/3, y+2/3, z+2/3'
loop_
_atom_type_symbol
_atom_type_oxidation_number
Ta5+ 5
Sr2+ 2
O2- -2
Li1+ 1
loop_
_atom_site_label
_atom_site_type_symbol
_atom_site_symmetry_multiplicity
_atom_site_Wyckoff_symbol
_atom_site_fract_x
_atom_site_fract_y
_atom_site_fract_z
_atom_site_B_iso_or_equiv
_atom_site_occupancy
_atom_site_attached_hydrogens
Ta1 Ta5+ 6 b 0 0 0 0.0025(4) 1 0
Sr1 Sr2+ 18 e 0.31526(10) -0.01808(10) 0.0833 0.0038(4) 1 0
O1 O2- 36 f 0.1755(7) 0.1517(7) 0.1034(5) 0.0087(12) 1 0
Li1 Li1+ 6 a 0 0 0.25 0.023(10) 1 0
loop_
_atom_site_aniso_label
_atom_site_aniso_type_symbol
_atom_site_aniso_U_11
_atom_site_aniso_U_22
_atom_site_aniso_U_33
_atom_site_aniso_U_12
_atom_site_aniso_U_13
_atom_site_aniso_U_23
Ta1 Ta5+ 0.0018(4) 0.0018(4) 0.0038(5) 0.0009(2) 0 0
Sr1 Sr2+ 0.0038(5) 0.0038(5) 0.0043(7) 0.0023(4) -0.00053(17) 0.00053(17)
O1 O2- 0.008(3) 0.005(3) 0.010(3) 0.001(2) -0.002(3) 0.000(2)
Li1 Li1+ 0.026(15) 0.026(15) 0.02(2) 0.013(8) 0 0
#End of TTdata_380360-ICSD