
#(C) 2018 by FIZ Karlsruhe - Leibniz Institute for Information Infrastructure.  All rights reserved.
data_380451-ICSD
_database_code_ICSD 380451
_audit_creation_date 2011-02-01
_chemical_name_systematic
'Calcium lithium tris(silicate) oxide fluoride (5.45/3.55/1/0.45/1.55)'
_chemical_formula_structural 'Ca5.45 Li3.55 (Si O4)3 O0.45 F1.5'
_chemical_formula_sum 'Ca5.45 F1.5 Li3.55 O12.45 Si3'
_exptl_crystal_density_diffrn 3.02
_cell_measurement_temperature 298.
_publ_section_title

;
Ca5.45 Li3.55 [Si O4]3 O0.45 F1.55 and Ca7 K [Si O4]3 F3: single-crystal
synthesis and structures of two trigonal oxyfluorides
;
loop_
_citation_id
_citation_journal_full
_citation_year
_citation_journal_volume
_citation_page_first
_citation_page_last
_citation_journal_id_ASTM
primary 'Zeitschrift fuer Kristallographie - Crystalline Materials' 2010 225 418
424 ZKCMAJ
loop_
_publ_author_name
'Krueger, H.'
_cell_length_a 7.1365(6)
_cell_length_b 7.1365(6)
_cell_length_c 41.459(3)
_cell_angle_alpha 90.
_cell_angle_beta 90.
_cell_angle_gamma 120.
_cell_volume 1828.61
_cell_formula_units_Z 6
_symmetry_space_group_name_H-M 'R -3 m H'
_symmetry_Int_Tables_number 166
_refine_ls_R_factor_all 0.0301
loop_
_symmetry_equiv_pos_site_id
_symmetry_equiv_pos_as_xyz
1 'x-y, -y, -z'
2 '-x, -x+y, -z'
3 'y, x, -z'
4 'x-y, x, -z'
5 'y, -x+y, -z'
6 '-x, -y, -z'
7 '-x+y, y, z'
8 'x, x-y, z'
9 '-y, -x, z'
10 '-x+y, -x, z'
11 '-y, x-y, z'
12 'x, y, z'
13 'x-y+2/3, -y+1/3, -z+1/3'
14 '-x+2/3, -x+y+1/3, -z+1/3'
15 'y+2/3, x+1/3, -z+1/3'
16 'x-y+2/3, x+1/3, -z+1/3'
17 'y+2/3, -x+y+1/3, -z+1/3'
18 '-x+2/3, -y+1/3, -z+1/3'
19 '-x+y+2/3, y+1/3, z+1/3'
20 'x+2/3, x-y+1/3, z+1/3'
21 '-y+2/3, -x+1/3, z+1/3'
22 '-x+y+2/3, -x+1/3, z+1/3'
23 '-y+2/3, x-y+1/3, z+1/3'
24 'x+2/3, y+1/3, z+1/3'
25 'x-y+1/3, -y+2/3, -z+2/3'
26 '-x+1/3, -x+y+2/3, -z+2/3'
27 'y+1/3, x+2/3, -z+2/3'
28 'x-y+1/3, x+2/3, -z+2/3'
29 'y+1/3, -x+y+2/3, -z+2/3'
30 '-x+1/3, -y+2/3, -z+2/3'
31 '-x+y+1/3, y+2/3, z+2/3'
32 'x+1/3, x-y+2/3, z+2/3'
33 '-y+1/3, -x+2/3, z+2/3'
34 '-x+y+1/3, -x+2/3, z+2/3'
35 '-y+1/3, x-y+2/3, z+2/3'
36 'x+1/3, y+2/3, z+2/3'
loop_
_atom_type_symbol
_atom_type_oxidation_number
Si4+ 4
O2- -2
F1- -1
Ca2+ 2
Li1+ 1
loop_
_atom_site_label
_atom_site_type_symbol
_atom_site_symmetry_multiplicity
_atom_site_Wyckoff_symbol
_atom_site_fract_x
_atom_site_fract_y
_atom_site_fract_z
_atom_site_B_iso_or_equiv
_atom_site_occupancy
_atom_site_attached_hydrogens
Si1 Si4+ 6 c 0.333333 0.666667 0.083220(14) 0.01024(15) 1 0
Si2 Si4+ 6 c -0. 0 0.175482(14) 0.01063(15) 1 0
Si3 Si4+ 6 c 0.666667 0.333333 0.037885(14) 0.00862(15) 1 0
O1 O2- 18 h 0.20704(8) 0.41407(16) 0.09378(3) 0.0182(3) 1 0
O2 O2- 6 c 0.333333 0.666667 0.04367(4) 0.0240(5) 1 0
O3 O2- 6 c -0. 0 0.13589(4) 0.0160(4) 1 0
O4 O2- 18 h 0.12273(8) 0.24546(16) 0.18976(2) 0.0174(3) 1 0
O5 O2- 6 c 0.666667 0.333333 0.07747(4) 0.0152(4) 1 0
O6 O2- 18 h 0.41566(16) 0.20783(8) 0.02572(3) 0.0167(3) 1 0
O7 O2- 3 b 0.333333 0.666667 0.166667 0.0059(4) 1 0
F1 F1- 6 c -0. 0 0.06661(3) 0.0154(3) 1 0
F2 F1- 3 a 0 0 0 0.0124(4) 1 0
Ca1 Ca2+ 18 h 0.33027(4) 0.16513(2) 0.103193(8) 0.01594(12) 1 0
Ca2 Ca2+ 18 h 0.15818(3) 0.31635(5) 0.031464(8) 0.01393(13) 0.815(2) 0
Li1 Li1+ 18 h 0.158177 0.316354 0.031464 0.01393(13) 0.185(2) 0
Li2 Li1+ 18 h 0.2032(3) 0.4065(7) 0.14552(11) 0.0535(16) 1 0
loop_
_atom_site_aniso_label
_atom_site_aniso_type_symbol
_atom_site_aniso_U_11
_atom_site_aniso_U_22
_atom_site_aniso_U_33
_atom_site_aniso_U_12
_atom_site_aniso_U_13
_atom_site_aniso_U_23
Si1 Si4+ 0.01074(18) 0.01074(18) 0.0092(3) 0.00537(9) -0 -0
Si2 Si4+ 0.01245(19) 0.01245(19) 0.0070(3) 0.00622(9) -0 0
Si3 Si4+ 0.00874(18) 0.00874(18) 0.0084(2) 0.00437(9) 0 0
O1 O2- 0.0124(3) 0.0096(4) 0.0317(5) 0.0048(2) 0.00133(19) 0.0027(4)
O2 O2- 0.0311(7) 0.0311(7) 0.0097(7) 0.0155(3) -0 -0
O3 O2- 0.0196(5) 0.0196(5) 0.0087(6) 0.0098(2) -0 0
O4 O2- 0.0235(4) 0.0137(5) 0.0119(4) 0.0068(2) -0.00122(17) -0.0024(3)
O5 O2- 0.0177(5) 0.0177(5) 0.0101(7) 0.0089(2) -0 0
O6 O2- 0.0109(4) 0.0162(3) 0.0212(5) 0.0054(2) -0.0037(3) -0.00184(18)
O7 O2- 0.0045(5) 0.0045(5) 0.0088(8) 0.0023(2) -0 0
F1 F1- 0.0170(4) 0.0170(4) 0.0122(6) 0.0085(2) 0 0
F2 F1- 0.0124(5) 0.0124(5) 0.0125(8) 0.0062(3) -0 -0
Ca1 Ca2+ 0.01070(16) 0.01428(14) 0.02164(17) 0.00535(8) -0.00034(9) -0.00017(5)
Ca2 Ca2+ 0.01437(16) 0.01353(18) 0.01360(18) 0.00677(9) -0.00128(5) -0.00257(10)
Li1 Li1+ 0.01437(16) 0.01353(18) 0.01360(18) 0.00677(9) -0.00128(5) -0.00257(10)
Li2 Li1+ 0.080(3) 0.0271(18) 0.0364(19) 0.0135(9) -0.0032(8) -0.0064(16)
#End of TTdata_380451-ICSD