
#(C) 2018 by FIZ Karlsruhe - Leibniz Institute for Information Infrastructure.  All rights reserved.
data_38250-ICSD
_database_code_ICSD 38250
_audit_creation_date 1985-09-12
_audit_update_record 2012-08-01
_chemical_name_systematic 'Lithium potassium catena-phosphate'
_chemical_formula_structural 'Li K (P O3)2'
_chemical_formula_sum 'K1 Li1 O6 P2'
_exptl_crystal_density_diffrn 2.45
_publ_section_title
'Structure d'un polyphosphate mixte de lithium et de potassium, Li K (P O3)2'
loop_
_citation_id
_citation_journal_full
_citation_year
_citation_journal_volume
_citation_page_first
_citation_page_last
_citation_journal_id_ASTM
primary 'Acta Crystallographica, Section C: Crystal Structure Communications'
1983 39 1597 1599 ACSCEE
loop_
_publ_author_name
'El Horr, N.'
'Bagieu, M.'
'Tordjman, I.'
_cell_length_a 15.43(1)
_cell_length_b 5.512(5)
_cell_length_c 13.72(1)
_cell_angle_alpha 90.
_cell_angle_beta 108.53(5)
_cell_angle_gamma 90.
_cell_volume 1106.39
_cell_formula_units_Z 8
_symmetry_space_group_name_H-M 'P 1 21/a 1'
_symmetry_Int_Tables_number 14
_refine_ls_R_factor_all 0.031
loop_
_symmetry_equiv_pos_site_id
_symmetry_equiv_pos_as_xyz
1 'x+1/2, -y+1/2, z'
2 '-x, -y, -z'
3 '-x+1/2, y+1/2, -z'
4 'x, y, z'
loop_
_atom_type_symbol
_atom_type_oxidation_number
K1+ 1
P5+ 5
O2- -2
Li1+ 1
loop_
_atom_site_label
_atom_site_type_symbol
_atom_site_symmetry_multiplicity
_atom_site_Wyckoff_symbol
_atom_site_fract_x
_atom_site_fract_y
_atom_site_fract_z
_atom_site_B_iso_or_equiv
_atom_site_occupancy
_atom_site_attached_hydrogens
K1 K1+ 4 e 0.14036(5) 0.1661(2) 0.87449(6) . 1. 0
K2 K1+ 4 e 0.36795(5) 0.3244(2) 0.62533(6) . 1. 0
P1 P5+ 4 e 0.48511(5) 0.1507(2) 0.35836(6) . 1. 0
P2 P5+ 4 e 0.02067(5) 0.3312(2) 0.16069(6) . 1. 0
P3 P5+ 4 e 0.19335(5) 0.1919(2) 0.14413(6) . 1. 0
P4 P5+ 4 e 0.30705(5) 0.3163(2) 0.35469(6) . 1. 0
O1 O2- 4 e 0.4784(2) 0.2563(5) 0.2472(2) . 1. 0
O2 O2- 4 e 0.1169(1) 0.1888(5) 0.2008(2) . 1. 0
O3 O2- 4 e 0.2817(2) 0.2765(6) 0.2338(2) . 1. 0
O4 O2- 4 e 0.4164(1) 0.3374(5) 0.3848(2) . 1. 0
O5 O2- 4 e 0.0517(2) 0.4012(5) 0.6509(2) . 1. 0
O6 O2- 4 e 0.0777(2) 0.2976(6) 0.4283(2) . 1. 0
O7 O2- 4 e 0.4613(2) 0.0963(5) 0.8329(2) . 1. 0
O8 O2- 4 e 0.4627(2) 0.2806(5) 0.0649(2) . 1. 0
O9 O2- 4 e 0.2935(2) 0.4410(5) 0.8855(2) . 1. 0
O10 O2- 4 e 0.1730(2) 0.3849(5) 0.0651(2) . 1. 0
O11 O2- 4 e 0.2238(2) 0.0575(5) 0.6244(2) . 1. 0
O12 O2- 4 e 0.2836(2) 0.1001(5) 0.4044(2) . 1. 0
Li1 Li1+ 4 e 0.1381(4) 0.317(1) 0.5721(5) . 1. 0
Li2 Li1+ 4 e 0.3898(4) 0.197(1) 0.9308(4) . 1. 0
loop_
_atom_site_aniso_label
_atom_site_aniso_type_symbol
_atom_site_aniso_beta_11
_atom_site_aniso_beta_22
_atom_site_aniso_beta_33
_atom_site_aniso_beta_12
_atom_site_aniso_beta_13
_atom_site_aniso_beta_23
K1 K1+ 0.00238(3) 0.0158(3) 0.00412(4) -.0022(1) 0.00260(5) -.0042(2)
K2 K1+ 0.00191(3) 0.0132(2) 0.00436(4) 0.0006(2) 0.00274(5) 0.0005(2)
P1 P5+ 0.00110(3) 0.0100(3) 0.00211(3) 0.0012(2) 0.00143(5) 0.0019(2)
P2 P5+ 0.00115(3) 0.0080(2) 0.00166(3) 0.0002(2) 0.00115(5) 0.0006(2)
P3 P5+ 0.00104(3) 0.0083(2) 0.00153(3) 0.0000(2) 0.00089(4) -.0004(2)
P4 P5+ 0.00100(2) 0.0071(2) 0.00173(3) -.0004(2) 0.00125(4) -.0009(2)
O1 O2- 0.00195(9) 0.0117(7) 0.002213 0.0021(4) 0.0019(4) -.0001(5)
O2 O2- 0.00132(8) 0.0132(8) 0.0025(1) 0.0023(5) 0.0020(1) 0.0039(5)
O3 O2- 0.00144(9) 0.0291(11) 0.0018(1) -.0040(5) 0.0012(2) -.0031(6)
O4 O2- 0.00100(7) 0.0116(7) 0.0020(1) -.0009(5) 0.0013(1) -.0020(5)
O5 O2- 0.00276(10) 0.0091(8) 0.0049(1) -.0010(5) 0.0038(2) -.0021(6)
O6 O2- 0.00115(8) 0.0273(11) 0.0028(1) -.0015(6) 0.0007(2) -.0016(7)
O7 O2- 0.00236(10) 0.0083(7) 0.0039(1) 0.0005(5) 0.0030(2) -.0009(5)
O8 O2- 0.00224(10) 0.0181(9) 0.0020(1) 0.0011(6) 0.0007(2) 0.0002(6)
O9 O2- 0.00205(10) 0.0098(8) 0.0041(1) 0.0012(5) 0.0024(2) 0.0052(6)
O10 O2- 0.00226(9) 0.0141(8) 0.0024(1) 0.0030(5) 0.0022(2) 0.0031(6)
O11 O2- 0.00173(9) 0.0106(8) 0.0052(2) -.0003(5) 0.0027(2) 0.0035(6)
O12 O2- 0.00175(9) 0.0126(8) 0.0036(1) 0.0005(5) 0.0022(2) 0.0044(5)
Li1 Li1+ 0.0016(2) 0.014(2) 0.0034(3) 0.002(1) 0.0018(4) -.001(1)
Li2 Li1+ 0.0026(2) 0.006(2) 0.0022(3) 0.001(1) 0.0014(4) 0.000(1)
#End of TTdata_38250-ICSD