
#(C) 2017 by FIZ Karlsruhe - Leibniz Institute for Information Infrastructure.  All rights reserved.
data_38310-ICSD
_database_code_ICSD 38310
_audit_creation_date 1984-12-31
_audit_update_record 2012-08-01
_chemical_name_systematic 'Lithium closo-nonaoxofluorotritungstate'
_chemical_formula_structural 'Li W3 O9 F'
_chemical_formula_sum 'F1 Li1 O9 W3'
_exptl_crystal_density_diffrn 6.79
_publ_section_title
'A structural study of a new lithium oxyfluorotungstate, Li W3 O9 F'
loop_
_citation_id
_citation_journal_full
_citation_year
_citation_journal_volume
_citation_page_first
_citation_page_last
_citation_journal_id_ASTM
primary 'Journal of Solid State Chemistry' 1984 51 190 195 JSSCBI
loop_
_publ_author_name
'Moutou, J.M.'
'Vlasse, M.'
'Cervera-Marzal, M.'
'Chaminade, J.P.'
'Pouchard, M.'
_cell_length_a 12.716(2)
_cell_length_b 15.230(2)
_cell_length_c 7.288(1)
_cell_angle_alpha 90.
_cell_angle_beta 90.
_cell_angle_gamma 90.
_cell_volume 1411.43
_cell_formula_units_Z 8
_symmetry_space_group_name_H-M 'F d d 2'
_symmetry_Int_Tables_number 43
_refine_ls_R_factor_all 0.065
loop_
_symmetry_equiv_pos_site_id
_symmetry_equiv_pos_as_xyz
1 'x+1/4, -y+1/4, z+1/4'
2 '-x+1/4, y+1/4, z+1/4'
3 '-x, -y, z'
4 'x, y, z'
5 'x+1/4, -y+3/4, z+3/4'
6 '-x+1/4, y+3/4, z+3/4'
7 '-x, -y+1/2, z+1/2'
8 'x, y+1/2, z+1/2'
9 'x+3/4, -y+1/4, z+3/4'
10 '-x+3/4, y+1/4, z+3/4'
11 '-x+1/2, -y, z+1/2'
12 'x+1/2, y, z+1/2'
13 'x+3/4, -y+3/4, z+1/4'
14 '-x+3/4, y+3/4, z+1/4'
15 '-x+1/2, -y+1/2, z'
16 'x+1/2, y+1/2, z'
loop_
_atom_type_symbol
_atom_type_oxidation_number
W6+ 6
Li1+ 1
O2- -2
F1- -1
loop_
_atom_site_label
_atom_site_type_symbol
_atom_site_symmetry_multiplicity
_atom_site_Wyckoff_symbol
_atom_site_fract_x
_atom_site_fract_y
_atom_site_fract_z
_atom_site_B_iso_or_equiv
_atom_site_occupancy
_atom_site_attached_hydrogens
W1 W6+ 8 a 0 0 0.2 . 1. 0
W2 W6+ 16 b 0.01010(7) 0.26754(1) 0.2297(1) . 1. 0
Li1 Li1+ 8 a 0 0 0.8012(20) 0.0015 1. 0
O1 O2- 16 b 0.2863(12) -.0016(14) 0.2238(26) . 1. 0
O2 O2- 16 b 0.0029(15) 0.1255(8) 0.2209(52) . 1. 0
O3 O2- 16 b 0.1019(15) -.0011(17) 0.4091(27) . 1. 0
O4 O2- 16 b 0.1420(14) 0.2498(15) 0.2852(27) . 1. 0
O5 O2- 16 b -.0024(24) 0.3841(13) 0.2302(52) . 0.5 0
F1 F1- 16 b -.0024(24) 0.3841(13) 0.2302(52) . 0.5 0
loop_
_atom_site_aniso_label
_atom_site_aniso_type_symbol
_atom_site_aniso_U_11
_atom_site_aniso_U_22
_atom_site_aniso_U_33
_atom_site_aniso_U_12
_atom_site_aniso_U_13
_atom_site_aniso_U_23
W1 W6+ 0.0076(5) 0.0442(9) 0.0076(7) 0.0003(5) 0 0
W2 W6+ 0.0106(3) 0.0206(3) 0.0111(4) 0.0014(3) -.0012(3) -.0013(3)
O1 O2- 0.0109(62) 0.0238(67) 0.0027(47) 0.0068(53) -.0002(52) 0.0016(62)
O2 O2- 0.0157(79) 0.0021(41) 0.0127(65) 0.0025(60) 0.0091(95) -.0020(63)
O3 O2- 0.0105(67) 0.029(14) 0.0112(73) 0.0000(68) -.0068(58) -.0059(79)
O4 O2- 0.0071(59) 0.020(11) 0.0131(73) -.0011(59) -.0008(53) -.0050(71)
O5 O2- 0.0342(87) 0.0191(87) 0.024(14) -.0225(92) -0.014(13) 0.019(14)
F1 F1- 0.0342(87) 0.0191(87) 0.024(14) -.0225(92) -0.014(13) 0.019(14)
#End of TTdata_38310-ICSD