
#(C) 2018 by FIZ Karlsruhe - Leibniz Institute for Information Infrastructure.  All rights reserved.
data_391153-ICSD
_database_code_ICSD 391153
_audit_creation_date 2003-10-01
_chemical_name_systematic 'Lithium chloride hydrate'
_chemical_formula_structural 'Li Cl (H2 O)'
_chemical_formula_sum 'H2 Cl1 Li1 O1'
_chemical_name_structure_type LiClH2O
_exptl_crystal_density_diffrn 1.81
_cell_measurement_temperature 100.
_publ_section_title
'Die Kristallstrukturen der Monohydrate von Lithiumchlorid und Lithiumbromid'
loop_
_citation_id
_citation_journal_full
_citation_year
_citation_journal_volume
_citation_page_first
_citation_page_last
_citation_journal_id_ASTM
primary 'Zeitschrift fuer Anorganische und Allgemeine Chemie (1950) (DE)' 2003
629 312 316 ZAACAB
loop_
_publ_author_name
'Hoennerscheid, A.'
'Nuss, J.'
'Muehle, C.'
'Jansen, M.'
_cell_length_a 7.5835(2)
_cell_length_b 7.6807(2)
_cell_length_c 7.6235(2)
_cell_angle_alpha 90.
_cell_angle_beta 90.
_cell_angle_gamma 90.
_cell_volume 444.04
_cell_formula_units_Z 8
_symmetry_space_group_name_H-M 'C m c m'
_symmetry_Int_Tables_number 63
_refine_ls_R_factor_all 0.0209
loop_
_symmetry_equiv_pos_site_id
_symmetry_equiv_pos_as_xyz
1 '-x, y, -z+1/2'
2 '-x, -y, z+1/2'
3 '-x, y, z'
4 '-x, -y, -z'
5 'x, -y, z+1/2'
6 'x, y, -z+1/2'
7 'x, -y, -z'
8 'x, y, z'
9 '-x+1/2, y+1/2, -z+1/2'
10 '-x+1/2, -y+1/2, z+1/2'
11 '-x+1/2, y+1/2, z'
12 '-x+1/2, -y+1/2, -z'
13 'x+1/2, -y+1/2, z+1/2'
14 'x+1/2, y+1/2, -z+1/2'
15 'x+1/2, -y+1/2, -z'
16 'x+1/2, y+1/2, z'
loop_
_atom_type_symbol
_atom_type_oxidation_number
Cl1- -1
O2- -2
Li1+ 1
H1+ 1
loop_
_atom_site_label
_atom_site_type_symbol
_atom_site_symmetry_multiplicity
_atom_site_Wyckoff_symbol
_atom_site_fract_x
_atom_site_fract_y
_atom_site_fract_z
_atom_site_B_iso_or_equiv
_atom_site_occupancy
_atom_site_attached_hydrogens
Cl1 Cl1- 8 g 0.237834(15) 0.023524(15) 0.25 0.00957(4) 1. 0
O1 O2- 8 f 0 0.26505(4) 0.50602(4) 0.00974(5) 1. 0
Li1 Li1+ 4 a 0 0 0.5 0.0184(3) 1. 0
Li2 Li1+ 4 c 0 0.3144(2) 0.25 0.0204(3) 1. 0
H1 H1+ 16 h 0.0906(11) 0.3039(11) 0.5572(13) 0.0330(20) 1. 0
loop_
_atom_site_aniso_label
_atom_site_aniso_type_symbol
_atom_site_aniso_U_11
_atom_site_aniso_U_22
_atom_site_aniso_U_33
_atom_site_aniso_U_12
_atom_site_aniso_U_13
_atom_site_aniso_U_23
Cl1 Cl1- 0.00877(5) 0.01053(5) 0.00942(5) -0.00050(2) 0 0
O1 O2- 0.00931(12) 0.0108(1) 0.00912(12) 0 0 -0.00101(9)
Li1 Li1+ 0.0218(8) 0.0118(5) 0.0216(7) 0 0 0.0015(5)
Li2 Li1+ 0.0270(8) 0.0224(7) 0.0118(6) 0 0 0
#End of TTdata_391153-ICSD