
#(C) 2018 by FIZ Karlsruhe - Leibniz Institute for Information Infrastructure.  All rights reserved.
data_391276-ICSD
_database_code_ICSD 391276
_audit_creation_date 2011-08-01
_audit_update_record 2013-02-01
_chemical_name_systematic 'Lithium strontium icosaseleno decaborate *'
_chemical_formula_structural 'Li4.42 Sr2.74 B (B10 Se20)'
_chemical_formula_sum 'B11 Li4.42 Se20 Sr2.74'
_exptl_crystal_density_diffrn 4.26
_cell_measurement_temperature 293.
_publ_section_title

;
Isolated B10 Se20 - macrotetrahedra in the novel quaternary selenoborate
Li(6-2x) Sr(2+x) B10 Se20 (x~0.7)
;
loop_
_citation_id
_citation_journal_full
_citation_year
_citation_journal_volume
_citation_page_first
_citation_page_last
_citation_journal_id_ASTM
primary 'Phosphorus, Sulfur, Silicon and Related Elements' 2004 179 933 935
PSSLEC
loop_
_publ_author_name
'Doech, M.'
'Hammerschmidt, A.'
'Puetz, S.'
'Krebs, B.'
_cell_length_a 14.7353(6)
_cell_length_b 14.7353(6)
_cell_length_c 14.1449(12)
_cell_angle_alpha 90.
_cell_angle_beta 90.
_cell_angle_gamma 90.
_cell_volume 3071.27
_cell_formula_units_Z 4
_symmetry_space_group_name_H-M 'I 41/a Z'
_symmetry_Int_Tables_number 88
_refine_ls_R_factor_all 0.0356
loop_
_symmetry_equiv_pos_site_id
_symmetry_equiv_pos_as_xyz
1 '-y+3/4, x+3/4, -z+3/4'
2 'y+1/4, -x+3/4, -z+3/4'
3 'x, y+1/2, -z'
4 '-x, -y, -z'
5 'y+1/4, -x+1/4, z+1/4'
6 '-y+3/4, x+1/4, z+1/4'
7 '-x, -y+1/2, z'
8 'x, y, z'
9 '-y+1/4, x+1/4, -z+1/4'
10 'y+3/4, -x+1/4, -z+1/4'
11 'x+1/2, y, -z+1/2'
12 '-x+1/2, -y+1/2, -z+1/2'
13 'y+3/4, -x+3/4, z+3/4'
14 '-y+1/4, x+3/4, z+3/4'
15 '-x+1/2, -y, z+1/2'
16 'x+1/2, y+1/2, z+1/2'
loop_
_atom_type_symbol
_atom_type_oxidation_number
Se2- -2
Sr2+ 2
B3+ 3
Li1+ 1
loop_
_atom_site_label
_atom_site_type_symbol
_atom_site_symmetry_multiplicity
_atom_site_Wyckoff_symbol
_atom_site_fract_x
_atom_site_fract_y
_atom_site_fract_z
_atom_site_B_iso_or_equiv
_atom_site_occupancy
_atom_site_attached_hydrogens
Se1 Se2- 16 f 0.11539(3) 0.22331(3) 0.71140(3) 0.01246(12) 1 0
Se2 Se2- 16 f 0.19307(3) 0.08456(3) 0.54096(3) 0.01647(13) 1 0
Se3 Se2- 16 f 0.10584(3) 0.22541(3) 0.37288(3) 0.01612(13) 1 0
Se4 Se2- 16 f 0.24735(3) 0.31101(3) 0.54491(3) 0.01569(13) 1 0
Se5 Se2- 16 f 0.32025(4) 0.18152(4) 0.36915(4) 0.02489(15) 1 0
Sr1 Sr2+ 16 f 0.24137(5) 0.38572(5) 0.32544(6) 0.0248(3) 0.686(3) 0
B1 B3+ 16 f 0.0847(4) 0.1147(3) 0.6244(4) 0.0135(10) 1 0
B2 B3+ 8 e 0. 0.25 0.4604(5) 0.0140(14) 1 0
B3 B3+ 16 f 0.2151(4) 0.2003(4) 0.4600(4) 0.0146(10) 1 0
B4 B3+ 4 b 0. 0.25 0.625 0.025(4) 1 0
Li1 Li1+ 8 e 0. 0.25 0.1674(10) 0.037(4) 1.17(5) 0
Li2 Li1+ 16 f 0.3020(13) 0.1717(14) 0.6472(16) 0.037(8) 0.52(4) 0
loop_
_atom_site_aniso_label
_atom_site_aniso_type_symbol
_atom_site_aniso_U_11
_atom_site_aniso_U_22
_atom_site_aniso_U_33
_atom_site_aniso_U_12
_atom_site_aniso_U_13
_atom_site_aniso_U_23
Se1 Se2- 0.0144(2) 0.0135(2) 0.0095(2) 0.00088(16) 0.00046(16) -0.00051(17)
Se2 Se2- 0.0176(2) 0.0177(2) 0.0140(2) 0.00370(18) 0.00509(18) 0.00005(18)
Se3 Se2- 0.0171(2) 0.0221(3) 0.0091(2) -0.00228(19) 0.00291(17) -0.00084(18)
Se4 Se2- 0.0135(2) 0.0194(2) 0.0141(2) -0.00295(18) 0.00362(17) -0.00417(18)
Se5 Se2- 0.0223(3) 0.0282(3) 0.0242(3) -0.0028(2) 0.0132(2) -0.0077(2)
Sr1 Sr2+ 0.0214(4) 0.0246(4) 0.0285(5) -0.0043(3) -0.0032(3) 0.0043(3)
B1 B3+ 0.015(2) 0.010(2) 0.016(3) -0.003(2) 0.0007(19) 0.0003(19)
B2 B3+ 0.014(3) 0.019(4) 0.008(3) -0.002(3) 0. 0.
B3 B3+ 0.016(3) 0.014(2) 0.014(3) 0.000(2) 0.003(2) -0.003(2)
Li1 Li1+ 0.014(6) 0.021(6) 0.076(10) -0.001(5) 0. 0.
Li2 Li1+ 0.028(12) 0.040(13) 0.044(15) 0.006(9) -0.006(9) -0.001(10)
#End of TTdata_391276-ICSD