
#(C) 2018 by FIZ Karlsruhe - Leibniz Institute for Information Infrastructure.  All rights reserved.
data_39499-ICSD
_database_code_ICSD 39499
_audit_creation_date 1992-08-20
_chemical_name_systematic 'Lithium triholmium difluoride bis(germanate)'
_chemical_formula_structural 'Li Ho3 (Ge O4)2 F2'
_chemical_formula_sum 'F2 Ge2 Ho3 Li1 O8'
_exptl_crystal_density_diffrn 6.92
_publ_section_title 'Synthesis and crystal structure of LiHo3(GeO4)2F2'
loop_
_citation_id
_citation_journal_full
_citation_year
_citation_journal_volume
_citation_page_first
_citation_page_last
_citation_journal_id_ASTM
primary 'Zhurnal Strukturnoi Khimii (Issue-No. from 1981)' 1991 32 173 175
ZSTKAI
loop_
_publ_author_name
'Malinovskii, Yu.A.'
'Bondareva, O.S.'
_cell_length_a 13.325(3)
_cell_length_b 11.670(3)
_cell_length_c 5.016(1)
_cell_angle_alpha 90.
_cell_angle_beta 90.
_cell_angle_gamma 89.58
_cell_volume 779.98
_cell_formula_units_Z 4
_symmetry_space_group_name_H-M 'I 1 1 2/b'
_symmetry_Int_Tables_number 15
_refine_ls_R_factor_all 0.043
loop_
_symmetry_equiv_pos_site_id
_symmetry_equiv_pos_as_xyz
1 '-x, -y+1/2, z'
2 'x, y+1/2, -z'
3 '-x, -y, -z'
4 'x, y, z'
5 '-x+1/2, -y, z+1/2'
6 'x+1/2, y, -z+1/2'
7 '-x+1/2, -y+1/2, -z+1/2'
8 'x+1/2, y+1/2, z+1/2'
loop_
_atom_type_symbol
_atom_type_oxidation_number
Ho3+ 3
Ge4+ 4
F1- -1
O2- -2
Li1+ 1
loop_
_atom_site_label
_atom_site_type_symbol
_atom_site_symmetry_multiplicity
_atom_site_Wyckoff_symbol
_atom_site_fract_x
_atom_site_fract_y
_atom_site_fract_z
_atom_site_B_iso_or_equiv
_atom_site_occupancy
_atom_site_attached_hydrogens
Ho1 Ho3+ 4 e 0 0.25 0.2115(1) 0.45 1. 0
Ho2 Ho3+ 8 f 0.1214 0.0294 0.7944 0.48 1. 0
Ge1 Ge4+ 8 f 0.3549(1) 0.1553(1) 0.7346(2) 0.93 1. 0
F1 F1- 8 f 0.0722(5) 0.0956(6) 0.395(2) 1.25 1. 0
O1 O2- 8 f 0.1541(6) 0.2136(7) 0.929(2) 0.98 1. 0
O2 O2- 8 f 0.3689(6) 0.1559(7) 0.074(2) 0.94 1. 0
O3 O2- 8 f 0.4658(6) 0.1047(6) 0.582(2) 0.63 1. 0
O4 O2- 8 f 0.2722(5) 0.0605(6) 0.598(2) 0.71 1. 0
Li1 Li1+ 4 d 0.25 0.25 0.25 3.33 1. 0
#End of TTdata_39499-ICSD