
#(C) 2018 by FIZ Karlsruhe - Leibniz Institute for Information Infrastructure.  All rights reserved.
data_39515-ICSD
_database_code_ICSD 39515
_audit_creation_date 1992-08-20
_chemical_name_systematic 'Trilithium dineodymium nitrate trihydrate'
_chemical_formula_structural 'Li3 (Nd2 (N O3)9) (H2 O)3'
_chemical_formula_sum 'H6 Li3 N9 Nd2 O30'
_chemical_name_structure_type Li3La2(NO3)9(H2O)3
_exptl_crystal_density_diffrn 2.65
_cell_measurement_temperature 268.
_publ_section_title

;
Synthesis and X-ray structural study of lithium rare-earth nitrates
Li3(Ln2(NO3)9)*3H2O, where Ln=La,Nd
;
loop_
_citation_id
_citation_journal_full
_citation_year
_citation_journal_volume
_citation_page_first
_citation_page_last
_citation_journal_id_ASTM
primary Kristallografiya 1991 36 1395 1402 KRISAJ
loop_
_publ_author_name
'Vigdorchik, A.G.'
'Malinovskii, Yu.A.'
'Dryuchko, A.G.'
'Verin, I.A.'
_cell_length_a 13.22(1)
_cell_length_b 13.22(1)
_cell_length_c 13.22(1)
_cell_angle_alpha 90.
_cell_angle_beta 90.
_cell_angle_gamma 90.
_cell_volume 2310.44
_cell_formula_units_Z 4
_symmetry_space_group_name_H-M 'P 21 3'
_symmetry_Int_Tables_number 198
_refine_ls_R_factor_all 0.027
loop_
_symmetry_equiv_pos_site_id
_symmetry_equiv_pos_as_xyz
1 '-z+1/2, -x, y+1/2'
2 '-y+1/2, -z, x+1/2'
3 '-x+1/2, -y, z+1/2'
4 '-z, x+1/2, -y+1/2'
5 '-y, z+1/2, -x+1/2'
6 '-x, y+1/2, -z+1/2'
7 'z+1/2, -x+1/2, -y'
8 'y+1/2, -z+1/2, -x'
9 'x+1/2, -y+1/2, -z'
10 'z, x, y'
11 'y, z, x'
12 'x, y, z'
loop_
_atom_type_symbol
_atom_type_oxidation_number
Nd3+ 3
Li1+ 1
N5+ 5
O2- -2
N5+ 5
O2- -2
N5+ 5
O2- -2
H1+ 1
loop_
_atom_site_label
_atom_site_type_symbol
_atom_site_symmetry_multiplicity
_atom_site_Wyckoff_symbol
_atom_site_fract_x
_atom_site_fract_y
_atom_site_fract_z
_atom_site_B_iso_or_equiv
_atom_site_occupancy
_atom_site_attached_hydrogens
Nd1 Nd3+ 4 a 0.4667(1) 0.4667(1) 0.4667(1) 1.26(1) 1. 0
Nd2 Nd3+ 4 a 0.2210(1) 0.279 0.721 1.28(1) 1. 0
Li1 Li1+ 12 b 0.047(1) 0.281(1) 0.301(1) 3.6(4) 1. 0
N1 N5+ 12 b 0.3729(3) 0.5118(3) 0.2623(3) 1.32(9) 1. 0
O1 O2- 12 b 0.0787(3) 0.1687(3) 0.6268(3) 1.64(8) 1. 0
O2 O2- 12 b 0.4173(3) 0.4310(3) 0.2761(3) 2.0(1) 1. 0
O3 O2- 12 b 0.0298(3) 0.3173(3) 0.6728(3) 1.9(1) 1. 0
N2 N5+ 12 b 0.3942(4) 0.1274(3) 0.1131(4) 1.8(1) 1. 0
O4 O2- 12 b 0.4068(3) 0.0450(3) 0.1600(3) 1.96(9) 1. 0
O5 O2- 12 b 0.1421(3) 0.0366(3) 0.4470(3) 2.08(9) 1. 0
O6 O2- 12 b 0.3324(3) 0.1897(3) 0.1444(4) 2.7(1) 1. 0
N3 N5+ 12 b 0.4215(3) 0.3511(4) 0.7906(3) 1.9(1) 1. 0
O7 O2- 12 b 0.3441(3) 0.4031(3) 0.7969(3) 2.3(1) 1. 0
O8 O2- 12 b 0.4095(3) 0.2611(3) 0.7561(3) 1.9(1) 1. 0
O9 O2- 12 b 0.1183(4) 0.1863(4) 0.0049(3) 3.0(1) 1. 0
O10 O2- 12 b 0.3831(4) 0.0315(4) 0.4010(4) 3.3(1) 1. 0
H1 H1+ 12 b 0.50(1) 0.054(9) 0.64(1) 3.5(1) 1. 0
H2 H1+ 12 b 0.044(1) 0.40(1) 0.46(1) 3.5(1) 1. 0
#End of TTdata_39515-ICSD