
#(C) 2017 by FIZ Karlsruhe - Leibniz Institute for Information Infrastructure.  All rights reserved.
data_39669-ICSD
_database_code_ICSD 39669
_audit_creation_date 1994-01-19
_audit_update_record 2012-08-01
_chemical_name_systematic 'Potassium lithium yttrium fluoride (2/1.39/0.87/6)'
_chemical_formula_structural 'K2 Li1.39 Y0.87 F6'
_chemical_formula_sum 'F6 K2 Li1.39 Y0.87'
_exptl_crystal_density_diffrn 3.33
_publ_section_title
'Investigation of phase structure, formed in the Li F - K F - Y F3 system.'
loop_
_citation_id
_citation_journal_full
_citation_year
_citation_journal_volume
_citation_page_first
_citation_page_last
_citation_journal_id_ASTM
primary 'Zhurnal Neorganicheskoi Khimii' 1992 37 2813 2819 ZNOKAQ
loop_
_publ_author_name
'Goryunov, A.V.'
'Popov, A.I.'
'Khaidukov, N.M.'
'Fedorov, P.P.'
_cell_length_a 8.227(3)
_cell_length_b 5.815(2)
_cell_length_c 10.073(3)
_cell_angle_alpha 90.
_cell_angle_beta 144.75(2)
_cell_angle_gamma 90.
_cell_volume 278.12
_cell_formula_units_Z 2
_symmetry_space_group_name_H-M 'A 1 2/m 1'
_symmetry_Int_Tables_number 12
_refine_ls_R_factor_all 0.029
loop_
_symmetry_equiv_pos_site_id
_symmetry_equiv_pos_as_xyz
1 'x, -y, z'
2 '-x, -y, -z'
3 '-x, y, -z'
4 'x, y, z'
5 'x, -y+1/2, z+1/2'
6 '-x, -y+1/2, -z+1/2'
7 '-x, y+1/2, -z+1/2'
8 'x, y+1/2, z+1/2'
loop_
_atom_type_symbol
_atom_type_oxidation_number
Y3+ 3
K1+ 1
F1- -1
Li1+ 1
loop_
_atom_site_label
_atom_site_type_symbol
_atom_site_symmetry_multiplicity
_atom_site_Wyckoff_symbol
_atom_site_fract_x
_atom_site_fract_y
_atom_site_fract_z
_atom_site_B_iso_or_equiv
_atom_site_occupancy
_atom_site_attached_hydrogens
Y1 Y3+ 2 a 0 0 0 . 0.301(7) 0
Y2 Y3+ 2 d 0.5 0 0 . 0.569(4) 0
K1 K1+ 4 i 0.25008(9) 0 0.5 . 1. 0
F1 F1- 8 j 0.2737(2) 0.2736(2) 0.2738(2) . 1. 0
F2 F1- 4 i 0.2738(3) 0 0.0002(2) . 1. 0
Li1 Li1+ 2 a 0 0 0 . 0.69 0
Li2 Li1+ 2 d 0.5 0 0 . 0.43 0
Li3 Li1+ 2 c 0.5 0 0.5 . 0.261 0
loop_
_atom_site_aniso_label
_atom_site_aniso_type_symbol
_atom_site_aniso_U_11
_atom_site_aniso_U_22
_atom_site_aniso_U_33
_atom_site_aniso_U_12
_atom_site_aniso_U_13
_atom_site_aniso_U_23
Y1 Y3+ 0.0233(6) 0.0238(6) 0.0227(6) 0 0.0189(5) 0
Y2 Y3+ 0.0111(2) 0.0113(2) 0.0107(2) 0 0.0089(2) 0
K1 K1+ 0.0167(3) 0.0166(3) 0.0163(3) 0 0.0135(3) 0
F1 F1- 0.0215(4) 0.0188(5) 0.0182(5) -.0067(3) 0.0151(4) -.0082(3)
F2 F1- 0.0220(7) 0.0263(8) 0.0264(7) 0 0.0219(7) 0
#End of TTdata_39669-ICSD