
#(C) 2018 by FIZ Karlsruhe - Leibniz Institute for Information Infrastructure.  All rights reserved.
data_39849-ICSD
_database_code_ICSD 39849
_audit_creation_date 1995-10-17
_audit_update_record 2010-02-01
_chemical_name_systematic 'Lithium manganese molybdate (1.6/2.2/3)'
_chemical_formula_structural 'Li1.6 Mn2.2 (Mo O4)3'
_chemical_formula_sum 'Li1.6 Mn2.2 Mo3 O12'
_chemical_name_structure_type Li1.6Mn2.2(MoO4)3
_exptl_crystal_density_diffrn 4.11
_publ_section_title

;
Synthesis, characterization and X-ray structure study of double molybdate of
lithium and manganese(II)
;
loop_
_citation_id
_citation_journal_full
_citation_year
_citation_journal_volume
_citation_page_first
_citation_page_last
_citation_journal_id_ASTM
primary 'Zhurnal Strukturnoi Khimii (Issue-No. from 1981)' 1994 35 136 144
ZSTKAI
loop_
_publ_author_name
'Solodovnikov, S.F.'
'Solodovnikova, Z.A.'
'Klevtsova, R.F.'
'Glinskaya, L.A.'
'Klevtsov, P.V.'
'Zolotova, E.S.'
_cell_length_a 5.145(1)
_cell_length_b 10.681(2)
_cell_length_c 17.9850(30)
_cell_angle_alpha 90.
_cell_angle_beta 90.
_cell_angle_gamma 90.
_cell_volume 988.34
_cell_formula_units_Z 4
_symmetry_space_group_name_H-M 'P n m a'
_symmetry_Int_Tables_number 62
_refine_ls_R_factor_all 0.035
loop_
_symmetry_equiv_pos_site_id
_symmetry_equiv_pos_as_xyz
1 'x+1/2, y, -z+1/2'
2 'x, -y+1/2, z'
3 '-x+1/2, y+1/2, z+1/2'
4 '-x, -y, -z'
5 '-x+1/2, -y, z+1/2'
6 '-x, y+1/2, -z'
7 'x+1/2, -y+1/2, -z+1/2'
8 'x, y, z'
loop_
_atom_type_symbol
_atom_type_oxidation_number
Mo6+ 6
Mn2+ 2
Li1+ 1
Mn2+ 2
Li1+ 1
Mn2+ 2
Li1+ 1
O2- -2
loop_
_atom_site_label
_atom_site_type_symbol
_atom_site_symmetry_multiplicity
_atom_site_Wyckoff_symbol
_atom_site_fract_x
_atom_site_fract_y
_atom_site_fract_z
_atom_site_B_iso_or_equiv
_atom_site_occupancy
_atom_site_attached_hydrogens
Mo1 Mo6+ 4 c 0.27745(1) 0.25 0.44333(3) 0.75 1. 0
Mo2 Mo6+ 8 d 0.27482(7) 0.52918(4) 0.15642(2) 0.71 1. 0
Mn1 Mn2+ 4 c 0.1053(7) 0.25 0.2506(1) 2.98 0.57 0
Li1 Li1+ 4 c 0.1053(7) 0.25 0.2506(1) 2.98 0.23 0
Mn2 Mn2+ 8 d 0.2517(2) 0.5772(1) 0.4722(1) 0.81 0.6 0
Li2 Li1+ 8 d 0.2517(2) 0.5772(1) 0.4722(1) 0.81 0.4 0
Mn3 Mn2+ 4 c 0.2437(4) 0.75 0.3014(1) 0.85 0.43 0
Li3 Li1+ 4 c 0.2437(4) 0.75 0.3014(1) 0.85 0.57 0
O1 O2- 4 c 0.3624(11) 0.25 0.3491(3) 1.33 1. 0
O2 O2- 4 c 0.4464 0.75 0.4960(3) 1.07 1. 0
O3 O2- 8 d 0.0845(7) 0.1167(3) 0.4627(2) 1.05 1. 0
O4 O2- 8 d 0.0863(7) 0.4929(3) 0.0766(2) 1.05 1. 0
O5 O2- 8 d 0.0768(7) 0.6250(4) 0.2126(2) 1.39 1. 0
O6 O2- 8 d 0.3542(7) 0.3904(4) 0.2031(2) 1.41 1. 0
O7 O2- 8 d 0.0555(7) 0.6148(4) 0.3714(2) 1.3 1. 0
#End of TTdata_39849-ICSD