
#(C) 2017 by FIZ Karlsruhe - Leibniz Institute for Information Infrastructure.  All rights reserved.
data_39926-ICSD
_database_code_ICSD 39926
_audit_creation_date 1996-10-14
_chemical_name_systematic 'Ammonium lithium hexafluorotitanate'
_chemical_formula_structural '(N H4) Li (Ti F6)'
_chemical_formula_sum 'H4 F6 Li1 N1 Ti1'
_exptl_crystal_density_diffrn 2.52
_publ_section_title

;
Crystal structure and dynamics of complex ions in the N H4 Li Ti F6 compound,
based on X-ray diffraction and nuclear magnetic resonance
;
loop_
_citation_id
_citation_journal_full
_citation_year
_citation_journal_volume
_citation_page_first
_citation_page_last
_citation_journal_id_ASTM
primary 'Zhurnal Neorganicheskoi Khimii' 1995 40 1463 1465 ZNOKAQ
loop_
_publ_author_name
'Gerasimenko, A.V.'
'Kavun, V.Ya.'
'Antokhina, T.F.'
'Sergienko, V.I.'
_cell_length_a 12.321(2)
_cell_length_b 10.325(2)
_cell_length_c 7.745(1)
_cell_angle_alpha 90.
_cell_angle_beta 90.
_cell_angle_gamma 90.
_cell_volume 985.27
_cell_formula_units_Z 8
_symmetry_space_group_name_H-M 'P b n a'
_symmetry_Int_Tables_number 60
_refine_ls_R_factor_all 0.03
loop_
_symmetry_equiv_pos_site_id
_symmetry_equiv_pos_as_xyz
1 '-x, y+1/2, z'
2 'x+1/2, y, -z+1/2'
3 'x+1/2, -y+1/2, z+1/2'
4 '-x, -y, -z'
5 'x, -y+1/2, -z'
6 '-x+1/2, -y, z+1/2'
7 '-x+1/2, y+1/2, -z+1/2'
8 'x, y, z'
loop_
_atom_type_symbol
_atom_type_oxidation_number
Ti4+ 4
F1- -1
N3- -3
Li1+ 1
H1+ 1
loop_
_atom_site_label
_atom_site_type_symbol
_atom_site_symmetry_multiplicity
_atom_site_Wyckoff_symbol
_atom_site_fract_x
_atom_site_fract_y
_atom_site_fract_z
_atom_site_B_iso_or_equiv
_atom_site_occupancy
_atom_site_attached_hydrogens
Ti1 Ti4+ 8 d 0.14114(2) 0.42733(2) 0.25001(3) 0.0095 1. 0
F1 F1- 8 d 0.1958(1) 0.5961(1) 0.2688(1) 0.0185 1. 0
F2 F1- 8 d 0.1483(1) 0.4034(1) 0.4829(1) 0.0218 1. 0
F3 F1- 8 d 0.0905(1) 0.2577(1) 0.2272(1) 0.0196 1. 0
F4 F1- 8 d 0.2865(1) 0.3803(1) 0.2292(1) 0.02 1. 0
F5 F1- 8 d 0.0016(1) 0.4922(1) 0.2769(2) 0.0255 1. 0
F6 F1- 8 d 0.1275(1) 0.4489(1) 0.0171(2) 0.0223 1. 0
N1 N3- 4 c 0.4275(2) 0.25 0 0.022 1. 0
N2 N3- 4 c 0.3986(2) 0.25 0.5 0.0263 1. 0
Li1 Li1+ 8 d 0.3593(2) 0.5756(2) 0.2539(2) 0.0121 1. 0
#End of TTdata_39926-ICSD