
#(C) 2018 by FIZ Karlsruhe - Leibniz Institute for Information Infrastructure.  All rights reserved.
data_400398-ICSD
_database_code_ICSD 400398
_audit_creation_date 1995-01-10
_audit_update_record 2008-02-01
_chemical_name_systematic 'Lithium copper molybdate (1.94/2.06/3)'
_chemical_formula_structural 'Li1.94 Cu2.06 (Mo O4)3'
_chemical_formula_sum 'Cu2.06 Li1.94 Mo3 O12'
_exptl_crystal_density_diffrn 4.51
_cell_measurement_temperature 298.
_publ_section_title
'Crystal structure of lithium copper molybdate, Li2 Cu2 (Mo O4)3'
loop_
_citation_id
_citation_journal_full
_citation_year
_citation_journal_volume
_citation_page_first
_citation_page_last
_citation_journal_id_ASTM
primary 'Zeitschrift fuer Kristallographie (1979-2010)' 1994 209 615 615 ZEKRDZ
loop_
_publ_author_name
'Wiesmann, M.'
'Geselle, M.'
'Weitzel, H.'
'Fuess, H.'
_cell_length_a 10.4796(7)
_cell_length_b 5.0172(7)
_cell_length_c 20.3790(3)
_cell_angle_alpha 90.
_cell_angle_beta 120.941(8)
_cell_angle_gamma 90.
_cell_volume 919.02
_cell_formula_units_Z 4
_symmetry_space_group_name_H-M 'P 1 21/c 1'
_symmetry_Int_Tables_number 14
_refine_ls_R_factor_all 0.035
loop_
_symmetry_equiv_pos_site_id
_symmetry_equiv_pos_as_xyz
1 'x, -y+1/2, z+1/2'
2 '-x, -y, -z'
3 '-x, y+1/2, -z+1/2'
4 'x, y, z'
loop_
_atom_type_symbol
_atom_type_oxidation_number
Mo6+ 6
Cu1+ 1.971
Li1+ 1
O2- -2
loop_
_atom_site_label
_atom_site_type_symbol
_atom_site_symmetry_multiplicity
_atom_site_Wyckoff_symbol
_atom_site_fract_x
_atom_site_fract_y
_atom_site_fract_z
_atom_site_B_iso_or_equiv
_atom_site_occupancy
_atom_site_attached_hydrogens
Mo1 Mo6+ 4 e 0.31703(5) 0.7186(1) 0.34412(3) . 1. 0
Mo2 Mo6+ 4 e 0.87124(5) 0.7185(1) 0.34414(3) . 1. 0
Mo3 Mo6+ 4 e 0.69244(6) 0.2245(1) 0.44246(3) . 1. 0
Cu1 Cu1+ 4 e 0.0740(1) 0.2068(2) 0.32393(6) . 0.28 0
Cu2 Cu1+ 4 e 0.9530(1) 0.7519(3) 0.52594(6) . 0.49 0
Cu3 Cu1+ 4 e 0.5986(1) 0.7520(2) 0.52593(6) . 0.5 0
Cu4 Cu1+ 4 e 0.4998(3) 0.8887(7) 0.2498(2) . 0.79 0
Li1 Li1+ 4 e 0.0740(1) 0.2068(2) 0.32393(6) . 0.72 0
Li2 Li1+ 4 e 0.9530(1) 0.7519(3) 0.52594(6) . 0.51 0
Li3 Li1+ 4 e 0.5986(1) 0.7520(2) 0.52593(6) . 0.5 0
Li4 Li1+ 4 e 0.4998(3) 0.8887(7) 0.2498(2) . 0.21 0
O1 O2- 4 e 0.9150(5) 0.9169(9) 0.4257(3) . 1. 0
O2 O2- 4 e 0.4364(5) 0.9138(9) 0.4255(3) . 1. 0
O3 O2- 4 e 0.2581(5) 0.4304(9) 0.3742(3) . 1. 0
O4 O2- 4 e 0.6828(5) 0.6428(9) 0.2948(2) . 1. 0
O5 O2- 4 e 0.4079(5) 0.639(1) 0.2948(2) . 1. 0
O6 O2- 4 e 0.9912(5) 0.432(1) 0.3744(2) . 1. 0
O7 O2- 4 e 0.1641(5) 0.931(1) 0.2888(3) . 1. 0
O8 O2- 4 e 0.7593(5) 0.955(1) 0.5094(3) . 1. 0
O9 O2- 4 e 0.5960(5) 0.130(1) 0.3463(3) . 1. 0
O10 O2- 4 e 0.9120(5) 0.9313(9) 0.2890(3) . 1. 0
O11 O2- 4 e 0.8464(6) 0.428(1) 0.4609(3) . 1. 0
O12 O2- 4 e 0.5746(6) 0.426(1) 0.4605(3) . 1. 0
loop_
_atom_site_aniso_label
_atom_site_aniso_type_symbol
_atom_site_aniso_U_11
_atom_site_aniso_U_22
_atom_site_aniso_U_33
_atom_site_aniso_U_12
_atom_site_aniso_U_13
_atom_site_aniso_U_23
Mo1 Mo6+ 0.0157(2) 0.0109(2) 0.0139(2) 0.0001(2) 0.0090(2) -.0001(2)
Mo2 Mo6+ 0.0115(2) 0.0113(2) 0.0138(2) -.0002(2) 0.0050(2) -.0002(2)
Mo3 Mo6+ 0.0237(3) 0.0131(2) 0.0119(2) 0.0008(2) 0.0061(2) 0.0014(2)
Cu1 Cu1+ 0.0148(5) 0.0126(6) 0.0197(6) -.0039(4) 0.0102(4) -.0073(4)
Cu2 Cu1+ 0.0132(6) 0.0109(6) 0.0099(6) 0.0004(4) 0.0041(4) 0.0003(4)
Cu3 Cu1+ 0.0148(6) 0.0100(6) 0.0087(6) 0.0002(4) 0.0053(4) 0.0001(4)
Cu4 Cu1+ 0.010(1) 0.030(2) 0.010(1) 0.002(1) 0.0051(9) 0.003(1)
Li1 Li1+ 0.0148(5) 0.0126(6) 0.0197(6) -.0039(4) 0.0102(4) -.0073(4)
Li2 Li1+ 0.0132(6) 0.0109(6) 0.0099(6) 0.0004(4) 0.0041(4) 0.0003(4)
Li3 Li1+ 0.0148(6) 0.0100(6) 0.0087(6) 0.0002(4) 0.0053(4) 0.0001(4)
Li4 Li1+ 0.010(1) 0.030(2) 0.010(1) 0.002(1) 0.0051(9) 0.003(1)
O1 O2- 0.026(2) 0.015(2) 0.018(2) 0.002(2) 0.008(2) 0.003(2)
O2 O2- 0.027(2) 0.015(2) 0.019(2) 0.001(1) 0.009(2) 0.003(2)
O3 O2- 0.024(2) 0.016(2) 0.019(2) -.003(2) 0.011(2) -.002(2)
O4 O2- 0.019(2) 0.018(2) 0.016(2) 0.000(2) 0.008(2) -.002(2)
O5 O2- 0.019(2) 0.022(2) 0.016(2) 0.002(2) 0.010(2) -.001(2)
O6 O2- 0.023(2) 0.021(2) 0.015(2) 0.003(2) 0.009(2) -.002(2)
O7 O2- 0.027(2) 0.018(2) 0.023(2) 0.003(2) 0.010(2) 0.000(2)
O8 O2- 0.025(2) 0.019(2) 0.022(2) 0.001(2) 0.010(2) 0.004(2)
O9 O2- 0.022(2) 0.022(2) 0.020(2) -.003(2) 0.010(2) -.004(2)
O10 O2- 0.028(2) 0.016(2) 0.023(2) -.003(2) 0.013(2) -.001(2)
O11 O2- 0.033(3) 0.019(2) 0.023(2) 0.001(2) 0.006(2) 0.000(2)
O12 O2- 0.046(3) 0.020(2) 0.023(2) 0.000(2) 0.018(2) 0.001(2)
#End of TTdata_400398-ICSD