
#(C) 2018 by FIZ Karlsruhe - Leibniz Institute for Information Infrastructure.  All rights reserved.
data_400349-ICSD
_database_code_ICSD 400349
_audit_creation_date 1994-06-30
_chemical_name_systematic 'Lithium tetrahydrogeniodate(VII) hydrate'
_chemical_formula_structural 'Li (H4 I O6) (H2 O)'
_chemical_formula_sum 'H6 I1 Li1 O7'
_exptl_crystal_density_diffrn 3.06
_publ_section_title

;
Zur Existenz des Tetrahydrogenorthoperiodations. Die Kristallstruktur von
LiH4IO6.H2O
;
loop_
_citation_id
_citation_journal_full
_citation_year
_citation_journal_volume
_citation_page_first
_citation_page_last
_citation_journal_id_ASTM
primary 'Zeitschrift fuer Anorganische und Allgemeine Chemie (1950) (DE)' 1994
620 805 808 ZAACAB
loop_
_publ_author_name
'Kraft, T.'
'Jansen, M.'
_cell_length_a 5.6474(12)
_cell_length_b 5.7441(13)
_cell_length_c 9.703(5)
_cell_angle_alpha 101.37(2)
_cell_angle_beta 96.37(2)
_cell_angle_gamma 114.724(13)
_cell_volume 273.6
_cell_formula_units_Z 2
_symmetry_space_group_name_H-M 'P -1'
_symmetry_Int_Tables_number 2
_refine_ls_R_factor_all 0.038
loop_
_symmetry_equiv_pos_site_id
_symmetry_equiv_pos_as_xyz
1 '-x, -y, -z'
2 'x, y, z'
loop_
_atom_type_symbol
_atom_type_oxidation_number
I7+ 7
O2- -2
Li1+ 1
H1+ 1
loop_
_atom_site_label
_atom_site_type_symbol
_atom_site_symmetry_multiplicity
_atom_site_Wyckoff_symbol
_atom_site_fract_x
_atom_site_fract_y
_atom_site_fract_z
_atom_site_B_iso_or_equiv
_atom_site_occupancy
_atom_site_attached_hydrogens
I1 I7+ 2 i 0.16944(3) 0.11388(3) 0.286230(15) . 1. 0
O1 O2- 2 i -.2124(4) -.0546(5) 0.2292(3) . 1. 0
O2 O2- 2 i 0.3478(5) -.3769(5) -.0451(3) . 1. 0
O3 O2- 2 i 0.5516(4) 0.2581(5) 0.3313(3) . 1. 0
O4 O2- 2 i 0.1655(4) -.0591(4) 0.1092(2) . 1. 0
O5 O2- 2 i 0.1511(6) -.1779(5) 0.3579(3) . 1. 0
O6 O2- 2 i 0.1637(4) 0.3002(4) 0.4588(2) . 1. 0
O7 O2- 2 i 0.1959(6) 0.3975(5) 0.2027(3) . 1. 0
Li1 Li1+ 2 i -.2508(14) -.2652(13) 0.0064(8) . 1. 0
H1 H1+ 2 i 0.198(15) 0.512(15) 0.2586(84) 0.040(18) 1. 0
H2 H1+ 2 i -.257(16) 0.051(16) 0.2592(90) 0.047(21) 1. 0
H3 H1+ 2 i 0.614(15) 0.382(15) 0.3951(83) 0.040(19) 1. 0
H4 H1+ 2 i 0.069(13) -.191(12) 0.4198(71) 0.026(14) 1. 0
H5 H1+ 2 i 0.310(28) -.300(28) -.004(17) 0.119(49) 1. 0
H6 H1+ 2 i 0.318(23) -.360(22) -.126(14) 0.090(36) 1. 0
loop_
_atom_site_aniso_label
_atom_site_aniso_type_symbol
_atom_site_aniso_beta_11
_atom_site_aniso_beta_22
_atom_site_aniso_beta_33
_atom_site_aniso_beta_12
_atom_site_aniso_beta_13
_atom_site_aniso_beta_23
I1 I7+ 0.01224(5) 0.01123(5) 0.01163(5) 0.00581(4) 0.00231(3) 0.00143(3)
O1 O2- 0.0128(6) 0.0233(9) 0.0294(11) 0.0069(6) 0.0009(7) -.0052(8)
O2 O2- 0.0223(8) 0.0215(8) 0.0213(8) 0.0121(7) 0.0046(7) 0.0068(7)
O3 O2- 0.0130(6) 0.0221(8) 0.0212(8) 0.0073(6) 0.0016(6) -.0030(6)
O4 O2- 0.0193(7) 0.0176(6) 0.0125(6) 0.0094(6) 0.0036(5) -.0006(5)
O5 O2- 0.0345(11) 0.0209(8) 0.0253(9) 0.0180(8) 0.0152(9) 0.0122(7)
O6 O2- 0.0197(7) 0.0169(6) 0.0139(6) 0.0068(6) 0.0055(5) -.0009(5)
O7 O2- 0.0402(13) 0.0188(8) 0.0204(8) 0.0183(9) 0.0111(8) 0.0083(7)
Li1 Li1+ 0.021(2) 0.022(2) 0.024(3) 0.007(2) 0.004(2) 0.006(2)
#End of TTdata_400349-ICSD