
#(C) 2018 by FIZ Karlsruhe - Leibniz Institute for Information Infrastructure.  All rights reserved.
data_401554-ICSD
_database_code_ICSD 401554
_audit_creation_date 1996-04-22
_audit_update_record 2003-04-01
_chemical_name_systematic 'Trilithium pentanitrato(V)erbate nitrate(V)'
_chemical_formula_structural 'Li3 (Er (N O3)5) (N O3)'
_chemical_formula_sum 'Er1 Li3 N6 O18'
_exptl_crystal_density_diffrn 2.67
_publ_section_title

;
Ternaere Lithium-Selten-Erd-Nitrate mit einsamen Nitrationen Li3 (M (N O3)5)
(N O3) (M= Gd-Lu, Y). Die Kristallstruktur von Er Li3 (N O3)6
;
loop_
_citation_id
_citation_journal_full
_citation_year
_citation_journal_volume
_citation_page_first
_citation_page_last
_citation_journal_id_ASTM
primary 'Zeitschrift fuer Anorganische und Allgemeine Chemie (1950) (DE)' 1995
621 1903 1906 ZAACAB
loop_
_publ_author_name
'Manek, E.'
'Meyer, G.'
_cell_length_a 7.7596(10)
_cell_length_b 7.4886(8)
_cell_length_c 23.957(13)
_cell_angle_alpha 90.
_cell_angle_beta 90.76(3)
_cell_angle_gamma 90.
_cell_volume 1391.98
_cell_formula_units_Z 4
_symmetry_space_group_name_H-M 'P 1 21/n 1'
_symmetry_Int_Tables_number 14
_refine_ls_R_factor_all 0.029
loop_
_symmetry_equiv_pos_site_id
_symmetry_equiv_pos_as_xyz
1 '-x+1/2, y+1/2, -z+1/2'
2 '-x, -y, -z'
3 'x+1/2, -y+1/2, z+1/2'
4 'x, y, z'
loop_
_atom_type_symbol
_atom_type_oxidation_number
Er3+ 3
N5+ 5
O2- -2
N5+ 5
O2- -2
N5+ 5
O2- -2
N5+ 5
O2- -2
N5+ 5
O2- -2
N5+ 5
O2- -2
Li1+ 1
loop_
_atom_site_label
_atom_site_type_symbol
_atom_site_symmetry_multiplicity
_atom_site_Wyckoff_symbol
_atom_site_fract_x
_atom_site_fract_y
_atom_site_fract_z
_atom_site_B_iso_or_equiv
_atom_site_occupancy
_atom_site_attached_hydrogens
Er1 Er3+ 4 e 0.75702(3) 0.19365(3) 0.890030(9) . 1. 0
N1 N5+ 4 e 1.0746(6) 0.3870(6) 0.8934(2) . 1. 0
O1 O2- 4 e 1.0536(5) 0.2402(6) 0.9194(2) . 1. 0
O2 O2- 4 e 0.9535(5) 0.4374(6) 0.8628(2) . 1. 0
O3 O2- 4 e 1.2095(5) 0.4697(7) 0.9004(2) . 1. 0
N2 N5+ 4 e 0.4457(5) -.0088(7) 0.9019(2) . 1. 0
O4 O2- 4 e 0.5577(5) -.0507(6) 0.8676(2) . 1. 0
O5 O2- 4 e 0.4712(5) 0.1359(5) 0.9293(2) . 1. 0
O6 O2- 4 e 0.3202(5) -.1004(6) 0.9114(2) . 1. 0
N3 N5+ 4 e 0.9019(5) -.1279(6) 0.9359(2) . 1. 0
O7 O2- 4 e 0.8048(5) -.0213(5) 0.9645(2) . 1. 0
O8 O2- 4 e 0.9273(5) -.0841(6) 0.8868(2) . 1. 0
O9 O2- 4 e 0.9582(6) -.2627(6) 0.9576(2) . 1. 0
N4 N5+ 4 e 0.6461(5) 0.5072(6) 0.9465(2) . 1. 0
O10 O2- 4 e 0.5924(5) 0.4777(6) 0.8973(2) . 1. 0
O11 O2- 4 e 0.7452(5) 0.3921(5) 0.9680(2) . 1. 0
O12 O2- 4 e 0.6018(5) 0.6421(5) 0.9712(2) . 1. 0
N5 N5+ 4 e 0.7385(6) 0.1972(7) 0.7709(2) . 1. 0
O13 O2- 4 e 0.6418(5) 0.2930(5) 0.8010(2) . 1. 0
O14 O2- 4 e 0.8452(5) 0.1021(6) 0.7984(2) . 1. 0
O15 O2- 4 e 0.7320(8) 0.1992(8) 0.7207(2) . 1. 0
N6 N5+ 4 e 1.2358(7) 0.2021(9) 0.7346(3) . 1. 0
O16 O2- 4 e 1.1634(8) -.2083(9) 0.7943(2) . 1. 0
O17 O2- 4 e 1.2444(8) 0.2026(10) 0.7854(2) . 1. 0
O18 O2- 4 e 1.1264(7) 0.1101(9) 0.7082(2) . 1. 0
Li1 Li1+ 4 e 0.2580(12) 0.2111(15) 0.9733(4) . 1. 0
Li2 Li1+ 4 e 1.0052(16) -.0552(18) 0.7541(6) . 1. 0
Li3 Li1+ 4 e 1.2057(64) 0.1856(33) 0.6339(8) . 1. 0
loop_
_atom_site_aniso_label
_atom_site_aniso_type_symbol
_atom_site_aniso_U_11
_atom_site_aniso_U_22
_atom_site_aniso_U_33
_atom_site_aniso_U_12
_atom_site_aniso_U_13
_atom_site_aniso_U_23
Er1 Er3+ 0.02303(11) 0.02235(11) 0.03004(12) -0.00052(9) 0.00438(7) -0.00089(10)
N1 N5+ 0.029(2) 0.034(2) 0.033(2) -0.004(2) 0.007(2) -0.003(2)
O1 O2- 0.029(2) 0.035(2) 0.045(2) -0.002(2) 0.002(2) 0.011(2)
O2 O2- 0.033(2) 0.039(2) 0.045(2) -0.003(2) -0.004(2) 0.011(2)
O3 O2- 0.032(2) 0.047(3) 0.060(3) -0.016(2) 0.001(2) -0.001(2)
N2 N5+ 0.022(2) 0.034(2) 0.038(2) -0.001(2) 0.001(2) 0.002(2)
O4 O2- 0.035(2) 0.037(2) 0.048(2) -0.003(2) 0.011(2) -0.015(2)
O5 O2- 0.026(2) 0.029(2) 0.055(2) -0.0059(15) 0.010(2) -0.016(2)
O6 O2- 0.031(2) 0.043(3) 0.065(3) -0.017(2) 0.009(2) -0.009(2)
N3 N5+ 0.024(2) 0.022(2) 0.041(2) -0.001(2) 0.002(2) 0.002(2)
O7 O2- 0.036(2) 0.031(2) 0.032(2) 0.000(2) 0.010(2) 0.002(2)
O8 O2- 0.042(2) 0.038(2) 0.034(2) 0.005(2) 0.011(2) 0.000(2)
O9 O2- 0.050(3) 0.032(2) 0.057(3) 0.011(2) -0.002(2) 0.007(2)
N4 N5+ 0.024(2) 0.023(2) 0.042(3) -0.004(2) 0.008(2) -0.006(2)
O10 O2- 0.034(2) 0.033(2) 0.044(2) 0.003(2) 0.001(2) -0.004(2)
O11 O2- 0.037(2) 0.028(2) 0.039(2) 0.004(2) -0.001(2) -0.003(2)
O12 O2- 0.040(2) 0.029(2) 0.052(2) 0.002(2) 0.009(2) -0.012(2)
N5 N5+ 0.034(2) 0.035(3) 0.036(2) 0.004(2) -0.001(2) -0.002(2)
O13 O2- 0.034(2) 0.035(2) 0.043(2) 0.007(2) -0.002(2) -0.005(2)
O14 O2- 0.041(2) 0.036(2) 0.034(2) 0.011(2) 0.005(2) 0.002(2)
O15 O2- 0.085(4) 0.072(4) 0.030(2) 0.023(3) -0.004(2) -0.002(2)
N6 N5+ 0.040(3) 0.065(4) 0.055(3) -0.002(3) 0.012(3) -0.003(3)
O16 O2- 0.072(4) 0.078(4) 0.064(3) 0.006(3) 0.021(3) -0.014(3)
O17 O2- 0.077(4) 0.114(6) 0.049(3) -0.035(4) 0.005(3) 0.000(3)
O18 O2- 0.064(3) 0.075(4) 0.060(3) -0.008(3) -0.006(3) -0.015(3)
Li1 Li1+ 0.028(4) 0.051(6) 0.039(5) -0.008(4) -0.001(4) -0.003(5)
Li2 Li1+ 0.049(6) 0.052(7) 0.093(10) -0.002(6) 0.009(7) -0.034(7)
Li3 Li1+ 0.566(70) 0.128(21) 0.039(9) 0.213(34) 0.038(19) 0.017(11)
#End of TTdata_401554-ICSD