
#(C) 2018 by FIZ Karlsruhe - Leibniz Institute for Information Infrastructure.  All rights reserved.
data_402083-ICSD
_database_code_ICSD 402083
_audit_creation_date 1996-04-22
_audit_update_record 2012-02-01
_chemical_name_systematic 'Disodium lithium diphosphidoaluminate'
_chemical_formula_structural 'Na2 Li (Al P2)'
_chemical_formula_sum 'Al1 Li1 Na2 P2'
_chemical_name_structure_type Na2LiAlP2
_exptl_crystal_density_diffrn 2.07
_publ_section_title
'Crystal structure of disodium lithium diphosphidoaluminate Na2 Li (Al P2)'
loop_
_citation_id
_citation_journal_full
_citation_year
_citation_journal_volume
_citation_page_first
_citation_page_last
_citation_journal_id_ASTM
primary 'Zeitschrift fuer Kristallographie (1979-2010)' 1995 210 778 778 ZEKRDZ
loop_
_publ_author_name
'Somer, M.'
'Carrillo Cabrera, W.'
'Peters, E.M.'
'Peters, K.'
'von Schnering, H.G.'
_cell_length_a 11.566(3)
_cell_length_b 13.592(3)
_cell_length_c 5.801(1)
_cell_angle_alpha 90.
_cell_angle_beta 90.
_cell_angle_gamma 90.
_cell_volume 911.95
_cell_formula_units_Z 8
_symmetry_space_group_name_H-M 'C m c a'
_symmetry_Int_Tables_number 64
_refine_ls_R_factor_all 0.044
loop_
_symmetry_equiv_pos_site_id
_symmetry_equiv_pos_as_xyz
1 '-x, -y+1/2, z+1/2'
2 '-x, y+1/2, -z+1/2'
3 '-x, y, z'
4 '-x, -y, -z'
5 'x, y+1/2, -z+1/2'
6 'x, -y+1/2, z+1/2'
7 'x, -y, -z'
8 'x, y, z'
9 '-x+1/2, -y, z+1/2'
10 '-x+1/2, y, -z+1/2'
11 '-x+1/2, y+1/2, z'
12 '-x+1/2, -y+1/2, -z'
13 'x+1/2, y, -z+1/2'
14 'x+1/2, -y, z+1/2'
15 'x+1/2, -y+1/2, -z'
16 'x+1/2, y+1/2, z'
loop_
_atom_type_symbol
_atom_type_oxidation_number
Na1+ 1
Al3+ 3
P3- -3
Li1+ 1
loop_
_atom_site_label
_atom_site_type_symbol
_atom_site_symmetry_multiplicity
_atom_site_Wyckoff_symbol
_atom_site_fract_x
_atom_site_fract_y
_atom_site_fract_z
_atom_site_B_iso_or_equiv
_atom_site_occupancy
_atom_site_attached_hydrogens
Na1 Na1+ 8 e 0.25 0.18175(40) 0.25 . 1. 0
Na2 Na1+ 8 f 0 0.32108(39) 0.21465(55) . 1. 0
Al1 Al3+ 8 d 0.13006(29) 0 0 . 1. 0
P1 P3- 8 e 0.25 0.39977(23) 0.25 . 1. 0
P2 P3- 8 f 0 0.10436(21) 0.21345(28) . 1. 0
Li1 Li1+ 8 d 0.379(1) 0 0 0.013(2) 1. 0
loop_
_atom_site_aniso_label
_atom_site_aniso_type_symbol
_atom_site_aniso_U_11
_atom_site_aniso_U_22
_atom_site_aniso_U_33
_atom_site_aniso_U_12
_atom_site_aniso_U_13
_atom_site_aniso_U_23
Na1 Na1+ 0.0306(24) 0.0208(26) 0.0334(15) 0 -.0018(13) 0
Na2 Na1+ 0.0250(23) 0.0241(28) 0.0278(15) 0 0 -.0035(13)
Al1 Al3+ 0.01294(83) 0.01406(85) 0.01138(78) 0 0 0.00012
P1 P3- 0.01002(98) 0.0158(12) 0.01689(69) 0 0.00102(57) 0
P2 P3- 0.0164(11) 0.0120(12) 0.01596(72) 0 0 -.00115(71)
#End of TTdata_402083-ICSD