
#(C) 2018 by FIZ Karlsruhe - Leibniz Institute for Information Infrastructure.  All rights reserved.
data_402220-ICSD
_database_code_ICSD 402220
_audit_creation_date 1997-11-10
_chemical_name_systematic 'Lithium bis(tetranitridoniobate(V)) oxide'
_chemical_formula_structural 'Li16 (Nb N4)2 O'
_chemical_formula_sum 'Li16 N8 Nb2 O1'
_chemical_name_structure_type Li16Ta2N8O
_exptl_crystal_density_diffrn 2.68
_publ_section_title 'Lithium nitrido niobate(V) oxide, Li16 (Nb N4)2 O'
loop_
_citation_id
_citation_journal_full
_citation_year
_citation_journal_volume
_citation_page_first
_citation_page_last
_citation_journal_id_ASTM
primary 'Zeitschrift fuer Kristallographie (1979-2010)' 1996 211 477 477 ZEKRDZ
loop_
_publ_author_name
'Wachsmann, C.'
'Jacobs, H.'
_cell_length_a 5.979(1)
_cell_length_b 5.979(1)
_cell_length_c 25.487(5)
_cell_angle_alpha 90.
_cell_angle_beta 90.
_cell_angle_gamma 120.
_cell_volume 789.05
_cell_formula_units_Z 3
_symmetry_space_group_name_H-M 'R -3 H'
_symmetry_Int_Tables_number 148
_refine_ls_R_factor_all 0.0468
loop_
_symmetry_equiv_pos_site_id
_symmetry_equiv_pos_as_xyz
1 'x-y, x, -z'
2 'y, -x+y, -z'
3 '-x, -y, -z'
4 '-x+y, -x, z'
5 '-y, x-y, z'
6 'x, y, z'
7 'x-y+2/3, x+1/3, -z+1/3'
8 'y+2/3, -x+y+1/3, -z+1/3'
9 '-x+2/3, -y+1/3, -z+1/3'
10 '-x+y+2/3, -x+1/3, z+1/3'
11 '-y+2/3, x-y+1/3, z+1/3'
12 'x+2/3, y+1/3, z+1/3'
13 'x-y+1/3, x+2/3, -z+2/3'
14 'y+1/3, -x+y+2/3, -z+2/3'
15 '-x+1/3, -y+2/3, -z+2/3'
16 '-x+y+1/3, -x+2/3, z+2/3'
17 '-y+1/3, x-y+2/3, z+2/3'
18 'x+1/3, y+2/3, z+2/3'
loop_
_atom_type_symbol
_atom_type_oxidation_number
Nb5+ 5
O2- -2
N3- -3
Li1+ 1
loop_
_atom_site_label
_atom_site_type_symbol
_atom_site_symmetry_multiplicity
_atom_site_Wyckoff_symbol
_atom_site_fract_x
_atom_site_fract_y
_atom_site_fract_z
_atom_site_B_iso_or_equiv
_atom_site_occupancy
_atom_site_attached_hydrogens
Nb1 Nb5+ 6 c 0.6667 0.3333 0.08394(1) . 1. 0
O1 O2- 3 a 0 0 0 . 1. 0
N1 N3- 18 f 0.3576(3) 0.0226(3) 0.10882(7) . 1. 0
N2 N3- 6 c 0.6667 0.3333 0.0073(1) . 1. 0
Li1 Li1+ 18 f 0.279(1) 0.310(1) 0.1417(2) . 1. 0
Li2 Li1+ 18 f 0.033(1) 0.342(1) 0.0236(2) . 1. 0
Li3 Li1+ 6 c 0 0 0.0770(3) . 1. 0
Li4 Li1+ 6 c 0.3333 0.6667 0.0835(3) . 1. 0
loop_
_atom_site_aniso_label
_atom_site_aniso_type_symbol
_atom_site_aniso_U_11
_atom_site_aniso_U_22
_atom_site_aniso_U_33
_atom_site_aniso_U_12
_atom_site_aniso_U_13
_atom_site_aniso_U_23
Nb1 Nb5+ 0.0075(1) 0.0075(1) 0.0067(1) 0.00376(5) 0 0
O1 O2- 0.0094(8) 0.0094(8) 0.011(1) 0.0047(4) 0 0
N1 N3- 0.0103(6) 0.0091(6) 0.0096(5) 0.0041(5) 0.0011(5) 0.0003(5)
N2 N3- 0.0109(7) 0.0109(7) 0.0080(9) 0.0055(3) 0 0
Li1 Li1+ 0.014(2) 0.024(2) 0.016(2) 0.014(2) -.001(1) -.001(1)
Li2 Li1+ 0.017(2) 0.013(2) 0.013(2) 0.005(2) 0.004(1) 0.001(1)
Li3 Li1+ 0.016(2) 0.016(2) 0.012(3) 0.008(1) 0 0
Li4 Li1+ 0.011(2) 0.011(2) 0.011(2) 0.0055(9) 0 0
#End of TTdata_402220-ICSD