
#(C) 2017 by FIZ Karlsruhe - Leibniz Institute for Information Infrastructure.  All rights reserved.
data_402536-ICSD
_database_code_ICSD 402536
_audit_creation_date 1997-11-10
_chemical_name_systematic 'Dirubidium lithium dysprosium bromide'
_chemical_formula_structural 'Rb2 Li Dy Br6'
_chemical_formula_sum 'Br6 Dy1 Li1 Rb2'
_chemical_name_structure_type Cs2Au2Cl6
_exptl_crystal_density_diffrn 4.16
_publ_section_title

;
Crystal structure of dirubidium lithium dysprosium(III) hexabromide, Rb2 Li Dy
Br6
;
loop_
_citation_id
_citation_journal_full
_citation_year
_citation_journal_volume
_citation_page_first
_citation_page_last
_citation_journal_id_ASTM
primary 'Zeitschrift fuer Kristallographie - New Crystal Structures' 1997 212 2
2 ZKNSFT
loop_
_publ_author_name
'Bohnsack, A.'
'Meyer, G.'
_cell_length_a 7.699(5)
_cell_length_b 7.699(5)
_cell_length_c 11.032(6)
_cell_angle_alpha 90.
_cell_angle_beta 90.
_cell_angle_gamma 90.
_cell_volume 653.92
_cell_formula_units_Z 2
_symmetry_space_group_name_H-M 'I 4/m m m'
_symmetry_Int_Tables_number 139
_refine_ls_R_factor_all 0.1072
loop_
_symmetry_equiv_pos_site_id
_symmetry_equiv_pos_as_xyz
1 'y, x, -z'
2 '-y, -x, -z'
3 '-y, x, -z'
4 'y, -x, -z'
5 '-x, y, -z'
6 'x, -y, -z'
7 'x, y, -z'
8 '-x, -y, -z'
9 '-y, -x, z'
10 'y, x, z'
11 'y, -x, z'
12 '-y, x, z'
13 'x, -y, z'
14 '-x, y, z'
15 '-x, -y, z'
16 'x, y, z'
17 'y+1/2, x+1/2, -z+1/2'
18 '-y+1/2, -x+1/2, -z+1/2'
19 '-y+1/2, x+1/2, -z+1/2'
20 'y+1/2, -x+1/2, -z+1/2'
21 '-x+1/2, y+1/2, -z+1/2'
22 'x+1/2, -y+1/2, -z+1/2'
23 'x+1/2, y+1/2, -z+1/2'
24 '-x+1/2, -y+1/2, -z+1/2'
25 '-y+1/2, -x+1/2, z+1/2'
26 'y+1/2, x+1/2, z+1/2'
27 'y+1/2, -x+1/2, z+1/2'
28 '-y+1/2, x+1/2, z+1/2'
29 'x+1/2, -y+1/2, z+1/2'
30 '-x+1/2, y+1/2, z+1/2'
31 '-x+1/2, -y+1/2, z+1/2'
32 'x+1/2, y+1/2, z+1/2'
loop_
_atom_type_symbol
_atom_type_oxidation_number
Dy3+ 3
Br1- -1
Rb1+ 1
Li1+ 1
loop_
_atom_site_label
_atom_site_type_symbol
_atom_site_symmetry_multiplicity
_atom_site_Wyckoff_symbol
_atom_site_fract_x
_atom_site_fract_y
_atom_site_fract_z
_atom_site_B_iso_or_equiv
_atom_site_occupancy
_atom_site_attached_hydrogens
Dy1 Dy3+ 2 a 0 0 0 . 1. 0
Br1 Br1- 4 e 0 0 0.2501(11) . 1. 0
Br2 Br1- 8 h 0.2507(10) 0.2507(10) 0 . 1. 0
Rb1 Rb1+ 4 d 0 0.5 0.25 . 1. 0
Li1 Li1+ 2 b 0 0 0.5 0.066(26) 1. 0
loop_
_atom_site_aniso_label
_atom_site_aniso_type_symbol
_atom_site_aniso_U_11
_atom_site_aniso_U_22
_atom_site_aniso_U_33
_atom_site_aniso_U_12
_atom_site_aniso_U_13
_atom_site_aniso_U_23
Dy1 Dy3+ 0.020(2) 0.020(2) 0.022(3) 0 0 0
Br1 Br1- 0.130(9) 0.130(9) 0.030(6) 0 0 0
Br2 Br1- 0.163(11) 0.163(11) 0.135(10) -.134(12) 0 0
Rb1 Rb1+ 0.086(6) 0.086(6) 0.062(7) 0 0 0
#End of TTdata_402536-ICSD