
#(C) 2018 by FIZ Karlsruhe - Leibniz Institute for Information Infrastructure.  All rights reserved.
data_402881-ICSD
_database_code_ICSD 402881
_audit_creation_date 1998-06-26
_chemical_name_systematic 'Lithium trigallium telluride'
_chemical_formula_structural 'Li Ga3 Te5'
_chemical_formula_sum 'Ga3 Li1 Te5'
_exptl_crystal_density_diffrn 5.41
_publ_section_title
'Crystal structure of lithium trigallium pentatelluride, LiGa3Te5'
loop_
_citation_id
_citation_journal_full
_citation_year
_citation_journal_volume
_citation_page_first
_citation_page_last
_citation_journal_id_ASTM
primary 'Zeitschrift fuer Kristallographie - New Crystal Structures' 1998 213 20
20 ZKNSFT
loop_
_publ_author_name
'Kienle, L.'
'Deiseroth, H.J.'
_cell_length_a 14.369(2)
_cell_length_b 14.369(2)
_cell_length_c 17.590(4)
_cell_angle_alpha 90.
_cell_angle_beta 90.
_cell_angle_gamma 120.
_cell_volume 3145.21
_cell_formula_units_Z 12
_symmetry_space_group_name_H-M 'R 3 2 H'
_symmetry_Int_Tables_number 155
_refine_ls_R_factor_all 0.019
loop_
_symmetry_equiv_pos_site_id
_symmetry_equiv_pos_as_xyz
1 '-x, -x+y, -z'
2 'x-y, -y, -z'
3 'y, x, -z'
4 '-x+y, -x, z'
5 '-y, x-y, z'
6 'x, y, z'
7 '-x+2/3, -x+y+1/3, -z+1/3'
8 'x-y+2/3, -y+1/3, -z+1/3'
9 'y+2/3, x+1/3, -z+1/3'
10 '-x+y+2/3, -x+1/3, z+1/3'
11 '-y+2/3, x-y+1/3, z+1/3'
12 'x+2/3, y+1/3, z+1/3'
13 '-x+1/3, -x+y+2/3, -z+2/3'
14 'x-y+1/3, -y+2/3, -z+2/3'
15 'y+1/3, x+2/3, -z+2/3'
16 '-x+y+1/3, -x+2/3, z+2/3'
17 '-y+1/3, x-y+2/3, z+2/3'
18 'x+1/3, y+2/3, z+2/3'
loop_
_atom_type_symbol
_atom_type_oxidation_number
Te2- -2
Ga3+ 3
Li1+ 1
loop_
_atom_site_label
_atom_site_type_symbol
_atom_site_symmetry_multiplicity
_atom_site_Wyckoff_symbol
_atom_site_fract_x
_atom_site_fract_y
_atom_site_fract_z
_atom_site_B_iso_or_equiv
_atom_site_occupancy
_atom_site_attached_hydrogens
Te1 Te2- 18 f -.70107(3) -.90216(3) -.23166(2) . 1. 0
Te2 Te2- 18 f -.38933(3) -.85887(3) -.28691(2) . 1. 0
Te3 Te2- 9 e -.91829(4) -.25162(4) -.1667 . 1. 0
Te4 Te2- 9 d -.16667(4) -.16667(4) 0 . 1. 0
Te5 Te2- 6 c 0 0 -.17133(3) . 1. 0
Ga1 Ga3+ 18 f -.58437(5) -.99817(5) -.24764(3) . 1. 0
Ga2 Ga3+ 18 f -.88897(5) -.07945(5) -.23820(3) . 1. 0
Li1 Li1+ 6 c -.3333 -.6667 -.2228(27) . 0.8 0
Li2 Li1+ 9 d -.4021(25) -.0688(25) -.3333 . 0.8 0
loop_
_atom_site_aniso_label
_atom_site_aniso_type_symbol
_atom_site_aniso_U_11
_atom_site_aniso_U_22
_atom_site_aniso_U_33
_atom_site_aniso_U_12
_atom_site_aniso_U_13
_atom_site_aniso_U_23
Te1 Te2- 0.0140(2) 0.0143(2) 0.0125(2) 0.00700(13) -.00031(11) 0.00039(11)
Te2 Te2- 0.0144(2) 0.0218(2) 0.0159(2) 0.00686(14) -.00089(13) 0.00246(13)
Te3 Te2- 0.0160(2) 0.0160(2) 0.0235(3) 0.0064(2) -.00298(10) 0.00298(10)
Te4 Te2- 0.0173(2) 0.0173(2) 0.0164(3) 0.0046(2) 0.00116(9) -.00116(9)
Te5 Te2- 0.0126(2) 0.0126(2) 0.0125(3) 0.00628(10) 0 0
Ga1 Ga3+ 0.0162(3) 0.0177(3) 0.0130(3) 0.0085(2) 0.0014(2) -.0001(2)
Ga2 Ga3+ 0.0145(3) 0.0152(3) 0.0169(3) 0.0073(2) 0.0002(2) -.0008(2)
Li1 Li1+ 0.022(6) 0.022(6) 0.332(59) 0.011(3) 0 0
Li2 Li1+ 0.088(20) 0.088(20) 0.091(25) 0.069(21) -.006(7) 0.006(7)
#End of TTdata_402881-ICSD