
#(C) 2017 by FIZ Karlsruhe - Leibniz Institute for Information Infrastructure.  All rights reserved.
data_403035-ICSD
_database_code_ICSD 403035
_audit_creation_date 1997-11-10
_audit_update_record 2003-04-01
_chemical_name_systematic 'Dilithium chromium(II) chloride'
_chemical_formula_structural 'Li2 Cr Cl4'
_chemical_formula_sum 'Cl4 Cr1 Li2'
_exptl_crystal_density_diffrn 2.43
_publ_section_title
'Neutron powder diffraction on monoclinic dilithiumchromium(II)chloride'
loop_
_citation_id
_citation_journal_full
_citation_year
_citation_journal_volume
_citation_page_first
_citation_page_last
_citation_journal_id_ASTM
primary 'Zeitschrift fuer Kristallographie (1979-2010)' 1996 211 8 12 ZEKRDZ
loop_
_publ_author_name
'Lutz, H.D.'
'Wickel, C.'
'Schneider, M.'
_cell_length_a 7.430(1)
_cell_length_b 10.142(2)
_cell_length_c 3.7760(7)
_cell_angle_alpha 90.
_cell_angle_beta 94.89(1)
_cell_angle_gamma 90.
_cell_volume 283.51
_cell_formula_units_Z 2
_symmetry_space_group_name_H-M 'C 1 2/m 1'
_symmetry_Int_Tables_number 12
_refine_ls_R_factor_all 0.024
loop_
_symmetry_equiv_pos_site_id
_symmetry_equiv_pos_as_xyz
1 '-x, y, -z'
2 '-x, -y, -z'
3 'x, -y, z'
4 'x, y, z'
5 '-x+1/2, y+1/2, -z'
6 '-x+1/2, -y+1/2, -z'
7 'x+1/2, -y+1/2, z'
8 'x+1/2, y+1/2, z'
loop_
_atom_type_symbol
_atom_type_oxidation_number
Li1+ 1
Cr2+ 2
Cl1- -1
loop_
_atom_site_label
_atom_site_type_symbol
_atom_site_symmetry_multiplicity
_atom_site_Wyckoff_symbol
_atom_site_fract_x
_atom_site_fract_y
_atom_site_fract_z
_atom_site_B_iso_or_equiv
_atom_site_occupancy
_atom_site_attached_hydrogens
Li1 Li1+ 4 f 0.25 0.25 0.5 0.15(2) 1. 0
Cr1 Cr2+ 2 a 0 0 0 0.024(7) 1. 0
Cl1 Cl1- 4 i 0.242(2) 0 0.475(4) 0.026(4) 1. 0
Cl2 Cl1- 4 g 0 0.234(2) 0 0.036(4) 1. 0
#End of TTdata_403035-ICSD