
#(C) 2018 by FIZ Karlsruhe - Leibniz Institute for Information Infrastructure.  All rights reserved.
data_40455-ICSD
_database_code_ICSD 40455
_audit_creation_date 1999-06-02
_audit_update_record 2012-08-01
_chemical_name_systematic 'Lithium antimony sulfide (1.5/5.5/9)'
_chemical_formula_structural 'Li1.5 Sb5.5 S9'
_chemical_formula_sum 'Li1.5 S9 Sb5.5'
_chemical_name_structure_type LiSb6-xS9
_exptl_crystal_density_diffrn 4.24
_publ_section_title 'Etude cristallochimique du systeme Li2 S - Sb2 S3'
loop_
_citation_id
_citation_journal_full
_citation_year
_citation_journal_volume
_citation_page_first
_citation_page_last
_citation_journal_id_ASTM
primary 'Revue de Chimie Minerale' 1983 20 196 213 RVCMA8
loop_
_publ_author_name
'Olivier Fourcade, J.'
'Maurin, M.'
'Philippot, E.'
_cell_length_a 4.091(1)
_cell_length_b 6.638(2)
_cell_length_c 14.769(4)
_cell_angle_alpha 96.70(2)
_cell_angle_beta 90.79(2)
_cell_angle_gamma 107.47(2)
_cell_volume 379.45
_cell_formula_units_Z 1
_symmetry_space_group_name_H-M 'P -1'
_symmetry_Int_Tables_number 2
_refine_ls_R_factor_all 0.041
loop_
_symmetry_equiv_pos_site_id
_symmetry_equiv_pos_as_xyz
1 '-x, -y, -z'
2 'x, y, z'
loop_
_atom_type_symbol
_atom_type_oxidation_number
Sb3+ 3
Li1+ 1
S2- -2
loop_
_atom_site_label
_atom_site_type_symbol
_atom_site_symmetry_multiplicity
_atom_site_Wyckoff_symbol
_atom_site_fract_x
_atom_site_fract_y
_atom_site_fract_z
_atom_site_B_iso_or_equiv
_atom_site_occupancy
_atom_site_attached_hydrogens
Sb1 Sb3+ 2 i 0.3507(4) 0.7133(2) 0.9243(1) . 1. 0
Sb2 Sb3+ 2 i 0.2703(4) 0.5190(3) 0.3843(1) . 1. 0
Sb3 Sb3+ 2 i 0.9376(5) 0.8769(6) 0.1919(1) . 0.75 0
Li1 Li1+ 2 i 0.9376(5) 0.8769(6) 0.1919(1) . 0.25 0
Li2 Li1+ 1 b 0 0 0.5 6.20(16) 1. 0
S1 S2- 1 a 0 0 0 . 1. 0
S2 S2- 2 i 0.115(2) 0.210(1) 0.6491(3) . 1. 0
S3 S2- 2 i 0.249(4) 0.547(2) 0.1339(8) . 1. 0
S4 S2- 2 i 0.361(1) 0.724(1) 0.5357(3) . 1. 0
S5 S2- 2 i 0.442(2) 0.864(1) 0.7768(4) . 1. 0
loop_
_atom_site_aniso_label
_atom_site_aniso_type_symbol
_atom_site_aniso_U_11
_atom_site_aniso_U_22
_atom_site_aniso_U_33
_atom_site_aniso_U_12
_atom_site_aniso_U_13
_atom_site_aniso_U_23
Sb1 Sb3+ 0.034(1) 0.033(1) 0.050(1) 0.021(1) -.014(1) -.003(1)
Sb2 Sb3+ 0.029(1) 0.043(1) 0.062(1) 0.010(1) -.003(1) -.031(1)
Sb3 Sb3+ 0.051(1) 0.024(1) 0.031(1) 0.016(1) -.005(1) -.005(1)
Li1 Li1+ 0.051(1) 0.024(1) 0.031(1) 0.016(1) -.005(1) -.005(1)
S1 S2- 0.026(2) 0.022(2) 0.021(5) 0.011(2) 0.003(1) 0.005(1)
S2 S2- 0.050(3) 0.024(3) 0.025(3) 0.015(3) 0.009(3) 0.007(2)
S3 S2- 0.021(2) 0.010(1) 0.011(1) 0.009(1) -.004(1) 0.005(1)
S4 S2- 0.026(3) 0.015(3) 0.018(2) 0.000(2) 0.000(2) -.007(2)
S5 S2- 0.146(8) 0.046(4) 0.036(3) 0.059(5) -.039(4) -.010(3)
#End of TTdata_40455-ICSD