
#(C) 2017 by FIZ Karlsruhe - Leibniz Institute for Information Infrastructure.  All rights reserved.
data_40479-ICSD
_database_code_ICSD 40479
_audit_creation_date 1999-06-02
_audit_update_record 2007-08-01
_chemical_name_systematic 'Cesium lithium bromide'
_chemical_formula_structural 'Cs Li Br2'
_chemical_formula_sum 'Br2 Cs1 Li1'
_chemical_name_structure_type BaNiS2
_exptl_crystal_density_diffrn 3.73
_publ_section_title
'Ternaere Bromide mit Lithium und Silber: Rb Li Br2, Cs Li Br2 und Cs Ag Br2'
loop_
_citation_id
_citation_journal_full
_citation_year
_citation_journal_volume
_citation_page_first
_citation_page_last
_citation_journal_id_ASTM
primary 'Zeitschrift fuer Anorganische und Allgemeine Chemie (1950) (DE)' 1984
513 15 21 ZAACAB
loop_
_publ_author_name
'Gaebell, H.C.'
'Meyer, G.'
_cell_length_a 5.1870(5)
_cell_length_b 5.1870(5)
_cell_length_c 9.924(1)
_cell_angle_alpha 90.
_cell_angle_beta 90.
_cell_angle_gamma 90.
_cell_volume 267.
_cell_formula_units_Z 2
_symmetry_space_group_name_H-M 'P 4/n m m Z'
_symmetry_Int_Tables_number 129
loop_
_symmetry_equiv_pos_site_id
_symmetry_equiv_pos_as_xyz
1 'y+1/2, x+1/2, -z'
2 '-y, x+1/2, -z'
3 'y+1/2, -x, -z'
4 '-y, -x, -z'
5 'x+1/2, y+1/2, -z'
6 '-x, y+1/2, -z'
7 'x+1/2, -y, -z'
8 '-x, -y, -z'
9 '-y+1/2, -x+1/2, z'
10 'y, -x+1/2, z'
11 '-y+1/2, x, z'
12 'y, x, z'
13 '-x+1/2, -y+1/2, z'
14 'x, -y+1/2, z'
15 '-x+1/2, y, z'
16 'x, y, z'
loop_
_atom_type_symbol
_atom_type_oxidation_number
Cs1+ 1
Li1+ 1
Br1- -1
loop_
_atom_site_label
_atom_site_type_symbol
_atom_site_symmetry_multiplicity
_atom_site_Wyckoff_symbol
_atom_site_fract_x
_atom_site_fract_y
_atom_site_fract_z
_atom_site_B_iso_or_equiv
_atom_site_occupancy
_atom_site_attached_hydrogens
Cs1 Cs1+ 2 c 0.25 0.25 0.696 0.3 1. 0
Li1 Li1+ 2 c 0.25 0.25 0.088 0.3 1. 0
Br1 Br1- 2 a 0.25 0.75 0 0.4 1. 0
Br2 Br1- 2 c 0.25 0.25 0.332 0.3 1. 0
#End of TTdata_40479-ICSD