
#(C) 2018 by FIZ Karlsruhe - Leibniz Institute for Information Infrastructure.  All rights reserved.
data_406510-ICSD
_database_code_ICSD 406510
_audit_creation_date 1997-11-10
_audit_update_record 2013-02-01
_chemical_name_systematic
'Tris(tetraamminelithium) diamminopentaantimonidodilithiate ammonium (1/1)'
_chemical_formula_structural '((Li (N H3)4)3 (Li2 (N H3)2 Sb5)) (N H3)2'
_chemical_formula_sum 'H48 Li5 N16 Sb5'
_exptl_crystal_density_diffrn 1.92
_cell_measurement_temperature 123.
_publ_section_title

;
Cyclo-(Sb5)5-, a new, highly charged Zintl anion stabilised in the structure
of ((Li(NH3)4)3(Li2Sb5(NH3)2))(NH3)2.
;
loop_
_citation_id
_citation_journal_full
_citation_year
_citation_journal_volume
_citation_page_first
_citation_page_last
_citation_journal_id_ASTM
primary 'Angewandte Chemie, International Edition in English' 1997 36 1512 1514
ACIEAY
loop_
_publ_author_name
'Korber, N.D.'
'Richter, F.D.C.'
_cell_length_a 12.618(5)
_cell_length_b 13.143(3)
_cell_length_c 19.1660(60)
_cell_angle_alpha 90.
_cell_angle_beta 95.14(2)
_cell_angle_gamma 90.
_cell_volume 3165.68
_cell_formula_units_Z 4
_symmetry_space_group_name_H-M 'P 1 21/n 1'
_symmetry_Int_Tables_number 14
_refine_ls_R_factor_all 0.0495
loop_
_symmetry_equiv_pos_site_id
_symmetry_equiv_pos_as_xyz
1 '-x+1/2, y+1/2, -z+1/2'
2 '-x, -y, -z'
3 'x+1/2, -y+1/2, z+1/2'
4 'x, y, z'
loop_
_atom_type_symbol
_atom_type_oxidation_number
Sb1- -1
N3- -3
H1+ 1
N3- -3
H1+ 1
N3- -3
H1+ 1
N3- -3
H1+ 1
N3- -3
H1+ 1
N3- -3
H1+ 1
N3- -3
H1+ 1
N3- -3
H1+ 1
N3- -3
H1+ 1
N3- -3
H1+ 1
N3- -3
H1+ 1
N3- -3
H1+ 1
N3- -3
H1+ 1
N3- -3
H1+ 1
N3- -3
H1+ 1
N3- -3
H1+ 1
Li1+ 1
loop_
_atom_site_label
_atom_site_type_symbol
_atom_site_symmetry_multiplicity
_atom_site_Wyckoff_symbol
_atom_site_fract_x
_atom_site_fract_y
_atom_site_fract_z
_atom_site_B_iso_or_equiv
_atom_site_occupancy
_atom_site_attached_hydrogens
Sb1 Sb1- 4 e 0.03346(4) 0.13620(4) 0.66101(3) . 1. 0
Sb2 Sb1- 4 e -.18044(4) 0.40909(4) 0.64030(3) . 1. 0
Sb3 Sb1- 4 e 0.13179(4) 0.30166(4) 0.73609(3) . 1. 0
Sb4 Sb1- 4 e -.05922(5) 0.38880(4) 0.77391(3) . 1. 0
Sb5 Sb1- 4 e -.08374(5) 0.25321(4) 0.55876(3) . 1. 0
N1 N3- 4 e -.5513(6) 0.4094(6) 0.3535(4) . 1. 0
H1 H1+ 4 e -.5761(20) 0.3493(24) 0.3691(25) 0.025 1. 0
H2 H1+ 4 e -.5496(10) 0.4066(47) 0.3061(4) 0.025 1. 0
H3 H1+ 4 e -.5950(13) 0.4608(25) 0.3647(27) 0.025 1. 0
N2 N3- 4 e -.3689(6) 0.5270(6) 0.4879(4) . 1. 0
H4 H1+ 4 e -.3458(49) 0.5890(17) 0.4746(5) 0.027 1. 0
H5 H1+ 4 e -.3180(37) 0.4974(24) 0.5180(16) 0.027 1. 0
H6 H1+ 4 e -.4297(13) 0.5346(41) 0.5096(19) 0.027 1. 0
N3 N3- 4 e -.3248(7) 0.4885(7) 0.3144(4) . 1. 0
H7 H1+ 4 e -.3742(12) 0.5165(52) 0.2826(18) 0.042 1. 0
H8 H1+ 4 e -.2920(51) 0.4359(13) 0.2942(24) 0.042 1. 0
H9 H1+ 4 e -.2756(43) 0.5364(42) 0.3290(7) 0.042 1. 0
N4 N3- 4 e -.3466(7) 0.2906(6) 0.4284(4) . 1. 0
H10 H1+ 4 e -.3393(53) 0.2532(18) 0.3892(4) 0.035 1. 0
H11 H1+ 4 e -.3947(28) 0.2601(21) 0.4543(31) 0.035 1. 0
H12 H1+ 4 e -.2827(27) 0.2950(7) 0.4543(31) 0.035 1. 0
N5 N3- 4 e -.4126(8) -.1413(8) 0.5297(5) . 1. 0
H13 H1+ 4 e -.4805(9) -.1180(25) 0.5221(42) 0.054 1. 0
H14 H1+ 4 e -.3982(45) -.1568(47) 0.5759(12) 0.054 1. 0
H15 H1+ 4 e -.4049(49) -.1981(24) 0.5035(32) 0.054 1. 0
N6 N3- 4 e -.3375(7) 0.0846(7) 0.5735(5) . 1. 0
H16 H1+ 4 e -.3389(60) 0.0561(12) 0.6167(9) 0.042 1. 0
H17 H1+ 4 e -.4017(28) 0.1137(40) 0.5605(22) 0.042 1. 0
H18 H1+ 4 e -.2857(33) 0.1329(30) 0.5748(29) 0.042 1. 0
N7 N3- 4 e -.3233(7) -.0082(7) 0.3957(4) . 1. 0
H19 H1+ 4 e -.2794(43) -.0519(39) 0.3752(5) 0.036 1. 0
H20 H1+ 4 e -.3063(55) 0.0569(16) 0.3852(5) 0.036 1. 0
H21 H1+ 4 e -.3920(15) -.0210(54) 0.3793(6) 0.036 1. 0
N8 N3- 4 e -.1441(6) -.0542(6) 0.5235(4) . 1. 0
H22 H1+ 4 e -.1343(6) -.1036(37) 0.5567(26) 0.032 1. 0
H23 H1+ 4 e -.1117(10) 0.0041(15) 0.5397(34) 0.032 1. 0
H24 H1+ 4 e -.1155(12) -.0746(50) 0.4839(9) 0.032 1. 0
N9 N3- 4 e 0.1007(6) -.1486(5) 0.6335(4) . 1. 0
H25 H1+ 4 e 0.0862(24) -.0808(7) 0.6322(32) 0.026 1. 0
H26 H1+ 4 e 0.1089(33) -.1712(35) 0.5894(13) 0.026 1. 0
H27 H1+ 4 e 0.1617(12) -.1599(40) 0.6615(19) 0.026 1. 0
N10 N3- 4 e -.1287(6) -.1141(6) 0.7055(4) . 1. 0
H28 H1+ 4 e -.1928(18) -.1200(34) 0.6800(25) 0.033 1. 0
H29 H1+ 4 e -.1012(26) -.0512(6) 0.6988(34) 0.033 1. 0
H30 H1+ 4 e -.1373(43) -.1228(32) 0.7518(10) 0.033 1. 0
N11 N3- 4 e -.1048(6) -.3088(6) 0.5909(4) . 1. 0
H31 H1+ 4 e -.0643(24) -.3118(44) 0.5540(14) 0.032 1. 0
H32 H1+ 4 e -.1677(25) -.2776(29) 0.5773(24) 0.032 1. 0
H33 H1+ 4 e -.1177(48) -.3730(17) 0.6058(12) 0.032 1. 0
N12 N3- 4 e 0.0541(8) -.3229(9) 0.7472(7) . 1. 0
H34 H1+ 4 e 0.0141(42) -.3302(65) 0.7841(26) 0.08 1. 0
H35 H1+ 4 e 0.1185(38) -.2960(41) 0.7625(43) 0.08 1. 0
H36 H1+ 4 e 0.0637(76) -.3848(27) 0.7274(17) 0.08 1. 0
N13 N3- 4 e 0.2663(8) 0.2753(7) 0.5670(5) . 1. 0
H37 H1+ 4 e 0.283(10) 0.2777(56) 0.6108(16) 0.068(49) 1. 0
H38 H1+ 4 e 0.2424(82) 0.2199(31) 0.5494(38) 0.031(31) 1. 0
H39 H1+ 4 e 0.2492(97) 0.3302(30) 0.5458(39) 0.05(4) 1. 0
N14 N3- 4 e -.1143(7) 0.4842(8) 0.4341(5) . 1. 0
H40 H1+ 4 e -.1832(18) 0.4797(48) 0.4159(27) 0.049 1. 0
H41 H1+ 4 e -.1120(56) 0.5058(32) 0.4794(11) 0.049 1. 0
H42 H1+ 4 e -.0829(41) 0.4220(16) 0.4326(35) 0.049 1. 0
N15 N3- 4 e -.2183(6) 0.6549(6) 0.7552(4) . 1. 0
H43 H1+ 4 e -.1590(9) 0.6898(32) 0.7718(27) 0.028 1. 0
H44 H1+ 4 e -.2262(24) 0.6592(45) 0.7076(4) 0.028 1. 0
H45 H1+ 4 e -.2115(30) 0.5885(15) 0.7682(29) 0.028 1. 0
N16 N3- 4 e -.4679(9) 0.3017(8) 0.6035(7) . 1. 0
H46 H1+ 4 e -.5141(45) 0.3458(57) 0.6115(76) 0.07(5) 1. 0
H47 H1+ 4 e -.4029(19) 0.3161(61) 0.6134(48) 0.014(24) 1. 0
H48 H1+ 4 e -.4837(67) 0.258(13) 0.5720(98) 0.034(26) 1. 0
Li1 Li1+ 4 e -.3992(12) 0.4353(12) 0.4001(7) . 1. 0
Li2 Li1+ 4 e -.3060(13) -.0278(12) 0.5012(8) . 1. 0
Li3 Li1+ 4 e -.0237(12) -.2259(12) 0.6730(8) . 1. 0
Li4 Li1+ 4 e -.3474(13) 0.7157(13) 0.7950(8) . 1. 0
Li5 Li1+ 4 e -.0370(12) 0.5832(13) 0.3782(9) . 1. 0
loop_
_atom_site_aniso_label
_atom_site_aniso_type_symbol
_atom_site_aniso_U_11
_atom_site_aniso_U_22
_atom_site_aniso_U_33
_atom_site_aniso_U_12
_atom_site_aniso_U_13
_atom_site_aniso_U_23
Sb1 Sb1- 0.0155(3) 0.0118(3) 0.0162(3) 0.0028(2) -.0024(2) 0.0001(2)
Sb2 Sb1- 0.0139(3) 0.0177(3) 0.0202(3) 0.0062(2) -.0004(2) 0.0054(2)
Sb3 Sb1- 0.0115(3) 0.0190(3) 0.0161(3) -.0012(2) -.0067(2) 0.0020(2)
Sb4 Sb1- 0.0202(3) 0.0183(3) 0.0160(3) 0.0021(2) -.0034(2) -.0051(2)
Sb5 Sb1- 0.0233(3) 0.0164(3) 0.0106(3) 0.0017(2) -.0056(2) -.0007(2)
N1 N3- 0.013(4) 0.028(4) 0.016(3) 0.002(3) -.002(3) -.002(3)
N2 N3- 0.014(4) 0.029(4) 0.019(4) -.001(3) 0.001(3) 0.001(3)
N3 N3- 0.044(5) 0.041(5) 0.012(4) -.022(4) -.003(3) -.002(3)
N4 N3- 0.026(4) 0.026(4) 0.027(4) 0.003(3) -.010(3) -.002(3)
N5 N3- 0.044(6) 0.048(6) 0.034(5) -.024(5) 0.011(4) -.011(4)
N6 N3- 0.034(5) 0.031(5) 0.030(5) 0.002(4) -.011(4) -.001(4)
N7 N3- 0.024(4) 0.032(4) 0.027(4) -.001(3) -.003(3) 0.007(4)
N8 N3- 0.023(4) 0.028(4) 0.022(4) -.005(3) -.003(3) 0.001(3)
N9 N3- 0.018(4) 0.016(3) 0.025(4) 0.002(3) -.001(3) -.002(3)
N10 N3- 0.024(4) 0.026(4) 0.026(4) -.001(3) 0.003(3) -.002(3)
N11 N3- 0.022(4) 0.024(4) 0.026(4) 0.000(3) 0.004(3) 0.004(3)
N12 N3- 0.030(6) 0.051(7) 0.098(10) -.011(5) -.024(6) 0.042(7)
N13 N3- 0.043(6) 0.030(5) 0.030(5) -.012(4) 0.013(4) 0.000(4)
N14 N3- 0.026(5) 0.044(6) 0.051(6) 0.000(4) -.005(4) 0.026(5)
N15 N3- 0.020(4) 0.020(4) 0.028(4) 0.003(3) 0.000(3) 0.001(3)
N16 N3- 0.032(6) 0.042(6) 0.076(8) 0.011(5) -.014(5) -.007(6)
Li1 Li1+ 0.022(8) 0.029(8) 0.009(6) 0.004(6) -.001(5) -.001(6)
Li2 Li1+ 0.030(9) 0.026(8) 0.024(8) 0.002(7) -.001(6) -.006(6)
Li3 Li1+ 0.018(8) 0.028(8) 0.016(7) 0.001(6) 0.003(6) -.001(6)
Li4 Li1+ 0.023(8) 0.029(8) 0.026(8) -.001(6) 0.002(6) -.018(7)
Li5 Li1+ 0.006(7) 0.034(9) 0.042(10) 0.001(6) 0.002(6) 0.011(7)
#End of TTdata_406510-ICSD