
#(C) 2017 by FIZ Karlsruhe - Leibniz Institute for Information Infrastructure.  All rights reserved.
data_40746-ICSD
_database_code_ICSD 40746
_audit_creation_date 1999-11-30
_audit_update_record 2012-08-01
_chemical_name_systematic 'Lithium copper chloride dihydrate'
_chemical_formula_structural 'Li Cu Cl3 (H2 O)2'
_chemical_formula_sum 'H4 Cl3 Cu1 Li1 O2'
_chemical_name_structure_type KZnBr3(H2O)2(mP44)
_exptl_crystal_density_diffrn 2.42
_cell_measurement_temperature 4.2
_publ_section_title
'Antiferromagnetic and crystal structure of lithium cupric chloride dihydrate'
loop_
_citation_id
_citation_journal_full
_citation_year
_citation_journal_volume
_citation_page_first
_citation_page_last
_citation_journal_id_ASTM
primary 'Journal of Chemical Physics' 1963 39 2923 2933 JCPSA6
loop_
_publ_author_name
'Abrahams, S.C.'
'Williams, H.J.'
_cell_length_a 6.06
_cell_length_b 11.22
_cell_length_c 9.07
_cell_angle_alpha 90.
_cell_angle_beta 108.83
_cell_angle_gamma 90.
_cell_volume 583.69
_cell_formula_units_Z 4
_symmetry_space_group_name_H-M 'P 1 21/c 1'
_symmetry_Int_Tables_number 14
_refine_ls_R_factor_all 0.078
loop_
_symmetry_equiv_pos_site_id
_symmetry_equiv_pos_as_xyz
1 'x, -y+1/2, z+1/2'
2 '-x, -y, -z'
3 '-x, y+1/2, -z+1/2'
4 'x, y, z'
loop_
_atom_type_symbol
_atom_type_oxidation_number
Cu2+ 2
Cl1- -1
O2- -2
Li1+ 1
H1+ 1
loop_
_atom_site_label
_atom_site_type_symbol
_atom_site_symmetry_multiplicity
_atom_site_Wyckoff_symbol
_atom_site_fract_x
_atom_site_fract_y
_atom_site_fract_z
_atom_site_B_iso_or_equiv
_atom_site_occupancy
_atom_site_attached_hydrogens
Cu1 Cu2+ 4 e 0.8248 0.0092(3) 0.1170(5) . 1. 0
Cl1 Cl1- 4 e 0.5327 0.1286(3) 0.1213(3) . 1. 0
Cl2 Cl1- 4 e 0.2011 0.3956(2) 0.1817(3) . 1. 0
Cl3 Cl1- 4 e 0.8913 0.3809(2) 0.4165(3) . 1. 0
O1 O2- 4 e 0.1551 0.1330(6) 0.2988(9) . 1. 0
O2 O2- 4 e 0.6466 0.3966(8) 0.0281(11) . 1. 0
Li1 Li1+ 4 e 0.4631 0.0183(33) 0.3275(25) . 1. 0
H1 H1+ 4 e 0.0827 0.1389(9) 0.3831(13) . 1. 0
H2 H1+ 4 e 0.2569 0.1895(13) 0.2634(10) . 1. 0
H3 H1+ 4 e 0.6042 0.3160(12) 0.0578(12) . 1. 0
H4 H1+ 4 e 0.7983 0.3938(16) 0.0082(36) . 1. 0
loop_
_atom_site_aniso_label
_atom_site_aniso_type_symbol
_atom_site_aniso_beta_11
_atom_site_aniso_beta_22
_atom_site_aniso_beta_33
_atom_site_aniso_beta_12
_atom_site_aniso_beta_13
_atom_site_aniso_beta_23
Cu1 Cu2+ 0.0045 0.0015(2) 0.0013(2) 0 0.001 0.0002(2)
Cl1 Cl1- 0.0048 0.0022(2) 0.0005(3) 0 0.001 -.0004(2)
Cl2 Cl1- 0.0021 0.0008(1) 0.0004(2) 0 0.0004 0.0005(2)
Cl3 Cl1- 0.0027 0.0004(2) 0.0016(3) 0 0.0006 0.0006(2)
O1 O2- 0.0094 0.0020(3) 0.0049(6) 0 0.002 -.0028(5)
O2 O2- 0.0042 0.0002(4) 0.0033(5) 0 0.001 -.0005(4)
Li1 Li1+ 0.0254 0.0114(23) 0.0032(20) 0 0.0055 0.0047(21)
H1 H1+ 0.0127 0.0025(5) 0.0071(12) 0 0.0028 0.0034(9)
H2 H1+ 0.0151 0.0074(11) 0.0016(7) 0 0.0032 -.0019(8)
H3 H1+ 0.0157 0.0051(8) 0.0054(10) 0 0.0035 -.0006(7)
H4 H1+ 0.0382 0.0005(10) 0.0335(60) 0 0.0083 0.0039(24)
#End of TTdata_40746-ICSD