
#(C) 2018 by FIZ Karlsruhe - Leibniz Institute for Information Infrastructure.  All rights reserved.
data_408324-ICSD
_database_code_ICSD 408324
_audit_creation_date 1999-11-30
_audit_update_record 2014-08-01
_chemical_name_systematic 'Hexalithium dicalcium hexanitridodimanganate(IV)'
_chemical_formula_structural 'Li6 Ca2 (Mn2 N6)'
_chemical_formula_sum 'Ca2 Li6 Mn2 N6'
_chemical_name_structure_type Li6Ca2Mn2N6
_exptl_crystal_density_diffrn 2.97
_publ_section_title

;
The hexanitridodimanganate(IV) Li6 Ca2 (Mn2 N6): Preparation, crystal
Structure, and chemical bonding
;
loop_
_citation_id
_citation_journal_full
_citation_year
_citation_journal_volume
_citation_page_first
_citation_page_last
_citation_journal_id_ASTM
primary 'Angewandte Chemie, International Edition' 1998 37 1582 1585 ACIEF5
loop_
_publ_author_name
'Hochrein, O.'
'Grin', Yu. (Hrin', Yu.'
' Grin, Yu.'
' Hrin, Yu.)'
'Kniep, R.'
_cell_length_a 5.7443(6)
_cell_length_b 5.7443(6)
_cell_length_c 18.560(2)
_cell_angle_alpha 90.
_cell_angle_beta 90.
_cell_angle_gamma 120.
_cell_volume 530.37
_cell_formula_units_Z 3
_symmetry_space_group_name_H-M 'R -3 H'
_symmetry_Int_Tables_number 148
_refine_ls_R_factor_all 0.0186
loop_
_symmetry_equiv_pos_site_id
_symmetry_equiv_pos_as_xyz
1 'x-y, x, -z'
2 'y, -x+y, -z'
3 '-x, -y, -z'
4 '-x+y, -x, z'
5 '-y, x-y, z'
6 'x, y, z'
7 'x-y+2/3, x+1/3, -z+1/3'
8 'y+2/3, -x+y+1/3, -z+1/3'
9 '-x+2/3, -y+1/3, -z+1/3'
10 '-x+y+2/3, -x+1/3, z+1/3'
11 '-y+2/3, x-y+1/3, z+1/3'
12 'x+2/3, y+1/3, z+1/3'
13 'x-y+1/3, x+2/3, -z+2/3'
14 'y+1/3, -x+y+2/3, -z+2/3'
15 '-x+1/3, -y+2/3, -z+2/3'
16 '-x+y+1/3, -x+2/3, z+2/3'
17 '-y+1/3, x-y+2/3, z+2/3'
18 'x+1/3, y+2/3, z+2/3'
loop_
_atom_type_symbol
_atom_type_oxidation_number
Ca2+ 2
Mn4+ 4
N3- -3
Li1+ 1
loop_
_atom_site_label
_atom_site_type_symbol
_atom_site_symmetry_multiplicity
_atom_site_Wyckoff_symbol
_atom_site_fract_x
_atom_site_fract_y
_atom_site_fract_z
_atom_site_B_iso_or_equiv
_atom_site_occupancy
_atom_site_attached_hydrogens
Ca1 Ca2+ 6 c 0 0 0.33712(3) . 1. 0
Mn1 Mn4+ 6 c 0 0 0.06350(2) . 1. 0
N1 N3- 18 f 0.2981(3) 0.3028(3) 0.08637(8) . 1. 0
Li1 Li1+ 18 f 0.6310(7) 0.6075(7) 0.12882(18) . 1. 0
loop_
_atom_site_aniso_label
_atom_site_aniso_type_symbol
_atom_site_aniso_U_11
_atom_site_aniso_U_22
_atom_site_aniso_U_33
_atom_site_aniso_U_12
_atom_site_aniso_U_13
_atom_site_aniso_U_23
Ca1 Ca2+ 0.0118(2) 0.0118(2) 0.0103(3) 0.00592(12) 0 0
Mn1 Mn4+ 0.0085(2) 0.0085(2) 0.0084(3) 0.00425(11) 0 0
N1 N3- 0.0114(7) 0.0099(7) 0.0105(7) 0.0048(6) -.0001(5) -.0002(5)
Li1 Li1+ 0.0139(16) 0.0161(16) 0.0135(14) 0.0048(13) -.0002(12) -.0013(12)
#End of TTdata_408324-ICSD