
#(C) 2018 by FIZ Karlsruhe - Leibniz Institute for Information Infrastructure.  All rights reserved.
data_409029-ICSD
_database_code_ICSD 409029
_audit_creation_date 1998-06-26
_audit_update_record 2000-12-16
_chemical_name_systematic 'Lithium nitridolithioniccolate *'
_chemical_formula_structural 'Li5 (Li0.23 Ni0.77 N)3'
_chemical_formula_sum 'Li5.69 N3 Ni2.31'
_chemical_name_structure_type Li5Ni3N3
_exptl_crystal_density_diffrn 2.79
_publ_section_title

;
Crystal structure of pentalithium tris (nitridolithiate/niccolate), Li5
((Li1-x Nix) N)3 (x=0.77)
;
loop_
_citation_id
_citation_journal_full
_citation_year
_citation_journal_volume
_citation_page_first
_citation_page_last
_citation_journal_id_ASTM
primary 'Zeitschrift fuer Kristallographie - New Crystal Structures' 1998 213 31
31 ZKNSFT
loop_
_publ_author_name
'Klatyk, J.'
'Hoehn, P.'
'Kniep, R.'
_cell_length_a 6.459(10)
_cell_length_b 6.459
_cell_length_c 3.582(10)
_cell_angle_alpha 90.
_cell_angle_beta 90.
_cell_angle_gamma 120.
_cell_volume 129.42
_cell_formula_units_Z 1
_symmetry_space_group_name_H-M 'P -6 2 m'
_symmetry_Int_Tables_number 189
_refine_ls_R_factor_all 0.0314
loop_
_symmetry_equiv_pos_site_id
_symmetry_equiv_pos_as_xyz
1 '-x, -x+y, -z'
2 'x-y, -y, -z'
3 'y, x, -z'
4 '-x, -x+y, z'
5 'x-y, -y, z'
6 'y, x, z'
7 '-x+y, -x, -z'
8 '-y, x-y, -z'
9 'x, y, -z'
10 '-x+y, -x, z'
11 '-y, x-y, z'
12 'x, y, z'
loop_
_atom_type_symbol
_atom_type_oxidation_number
Ni1+ 1
Li1+ 1
N2- -2.667
Li1+ 1
loop_
_atom_site_label
_atom_site_type_symbol
_atom_site_symmetry_multiplicity
_atom_site_Wyckoff_symbol
_atom_site_fract_x
_atom_site_fract_y
_atom_site_fract_z
_atom_site_B_iso_or_equiv
_atom_site_occupancy
_atom_site_attached_hydrogens
Ni1 Ni1+ 3 f 0.6382(2) 0 0 . 0.77(2) 0
Li1 Li1+ 3 f 0.6382(2) 0 0 . 0.23(2) 0
N1 N2- 3 g 0.6382(2) 0 0.5 . 1. 0
Li2 Li1+ 3 g 0 0.2618(38) 0.5 . 1. 0
Li3 Li1+ 2 d 0.3333 0.6667 0.5 . 1. 0
loop_
_atom_site_aniso_label
_atom_site_aniso_type_symbol
_atom_site_aniso_U_11
_atom_site_aniso_U_22
_atom_site_aniso_U_33
_atom_site_aniso_U_12
_atom_site_aniso_U_13
_atom_site_aniso_U_23
Ni1 Ni1+ 0.0194(5) 0.0147(6) 0.0111(5) 0.0073(3) 0 0
Li1 Li1+ 0.0194(5) 0.0147(6) 0.0111(5) 0.0073(3) 0 0
N1 N2- 0.015(2) 0.007(2) 0.016(2) 0.0037(12) 0 0
Li2 Li1+ 0.015(7) 0.041(9) 0.036(9) 0.007(4) 0 0
Li3 Li1+ 0.014(6) 0.014(6) 0.037(11) 0.007(3) 0 0
#End of TTdata_409029-ICSD