
#(C) 2018 by FIZ Karlsruhe - Leibniz Institute for Information Infrastructure.  All rights reserved.
data_409440-ICSD
_database_code_ICSD 409440
_audit_creation_date 1999-11-30
_chemical_name_systematic 'Calcium lithium iron(I) nitride (1/3.4/0.6/2)'
_chemical_formula_structural 'Ca Li2 ((Li0.7 Fe0.3) N)2'
_chemical_formula_sum 'Ca1 Fe0.6 Li3.4 N2'
_chemical_name_structure_type Li4SrN2
_exptl_crystal_density_diffrn 2.24
_publ_section_title

;
Crystal structure of alkaline earth dilithium
bis(nitridolithiate/ferrates(I)), Ca (Li2 ((Li(1-x) Fe(x)) N)2), x= 0.30 and
Sr (Li2 ((Li(1-x) Fe(x) N))2), x= 0.46
;
loop_
_citation_id
_citation_journal_full
_citation_year
_citation_journal_volume
_citation_page_first
_citation_page_last
_citation_journal_id_ASTM
primary 'Zeitschrift fuer Kristallographie - New Crystal Structures' 1999 214
449 450 ZKNSFT
loop_
_publ_author_name
'Klatyk, J.'
'Kniep, R.'
_cell_length_a 3.7637(3)
_cell_length_b 3.7637(4)
_cell_length_c 26.168(3)
_cell_angle_alpha 90.
_cell_angle_beta 90.
_cell_angle_gamma 90.
_cell_volume 370.68
_cell_formula_units_Z 4
_symmetry_space_group_name_H-M 'I 41/a m d Z'
_symmetry_Int_Tables_number 141
_refine_ls_R_factor_all 0.0223
loop_
_symmetry_equiv_pos_site_id
_symmetry_equiv_pos_as_xyz
1 'y+1/4, x+3/4, -z+1/4'
2 'y+1/4, -x+3/4, -z+1/4'
3 'x, y+1/2, -z'
4 'x, -y, -z'
5 '-y+3/4, x+3/4, -z+1/4'
6 '-y+3/4, -x+3/4, -z+1/4'
7 '-x, y+1/2, -z'
8 '-x, -y, -z'
9 '-y+3/4, -x+1/4, z+3/4'
10 '-y+3/4, x+1/4, z+3/4'
11 '-x, -y+1/2, z'
12 '-x, y, z'
13 'y+1/4, -x+1/4, z+3/4'
14 'y+1/4, x+1/4, z+3/4'
15 'x, -y+1/2, z'
16 'x, y, z'
17 'y+3/4, x+1/4, -z+3/4'
18 'y+3/4, -x+1/4, -z+3/4'
19 'x+1/2, y, -z+1/2'
20 'x+1/2, -y+1/2, -z+1/2'
21 '-y+1/4, x+1/4, -z+3/4'
22 '-y+1/4, -x+1/4, -z+3/4'
23 '-x+1/2, y, -z+1/2'
24 '-x+1/2, -y+1/2, -z+1/2'
25 '-y+1/4, -x+3/4, z+1/4'
26 '-y+1/4, x+3/4, z+1/4'
27 '-x+1/2, -y, z+1/2'
28 '-x+1/2, y+1/2, z+1/2'
29 'y+3/4, -x+3/4, z+1/4'
30 'y+3/4, x+3/4, z+1/4'
31 'x+1/2, -y, z+1/2'
32 'x+1/2, y+1/2, z+1/2'
loop_
_atom_type_symbol
_atom_type_oxidation_number
Ca2+ 2
Fe1+ 1.1
Li1+ 1
N3- -3
loop_
_atom_site_label
_atom_site_type_symbol
_atom_site_symmetry_multiplicity
_atom_site_Wyckoff_symbol
_atom_site_fract_x
_atom_site_fract_y
_atom_site_fract_z
_atom_site_B_iso_or_equiv
_atom_site_occupancy
_atom_site_attached_hydrogens
Ca1 Ca2+ 4 a 0 0.75 0.125 . 1. 0
Fe1 Fe1+ 8 e 0 0.25 0.30796(4) . 0.302(2) 0
Li1 Li1+ 8 e 0 0.25 0.30796(4) . 0.698(2) 0
Li2 Li1+ 8 e 0 0.25 0.77191(18) . 1. 0
N1 N3- 8 e 0 0.25 0.06058(7) . 1. 0
loop_
_atom_site_aniso_label
_atom_site_aniso_type_symbol
_atom_site_aniso_U_11
_atom_site_aniso_U_22
_atom_site_aniso_U_33
_atom_site_aniso_U_12
_atom_site_aniso_U_13
_atom_site_aniso_U_23
Ca1 Ca2+ 0.0185(3) 0.0185(3) 0.0172(3) 0 0 0
Fe1 Fe1+ 0.0177(6) 0.0113(5) 0.0242(6) 0 0 0
Li1 Li1+ 0.0177(6) 0.0113(5) 0.0242(6) 0 0 0
Li2 Li1+ 0.021(2) 0.034(3) 0.026(2) 0 0 0
N1 N3- 0.015(1) 0.0186(10) 0.0181(8) 0 0 0
#End of TTdata_409440-ICSD