
#(C) 2018 by FIZ Karlsruhe - Leibniz Institute for Information Infrastructure.  All rights reserved.
data_409556-ICSD
_database_code_ICSD 409556
_audit_creation_date 2002-10-01
_chemical_name_systematic 'Bis(tetraamminelithium) pertelluride'
_chemical_formula_structural '(Li (N H3)4)2 Te2'
_chemical_formula_sum 'H24 Li2 N8 Te2'
_exptl_crystal_density_diffrn 1.81
_cell_measurement_temperature 123.
_publ_section_title
'Crystal structure of dilithium ditelluride-ammonia(1/8), (Li (N H3)4)2 Te2'
loop_
_citation_id
_citation_journal_full
_citation_year
_citation_journal_volume
_citation_page_first
_citation_page_last
_citation_journal_id_ASTM
primary 'Zeitschrift fuer Kristallographie - New Crystal Structures' 2001 216
333 334 ZKNSFT
loop_
_publ_author_name
'Korber, N.'
'Richter, F.'
_cell_length_a 6.7628(13)
_cell_length_b 7.2717(13)
_cell_length_c 8.4714(16)
_cell_angle_alpha 100.87(2)
_cell_angle_beta 113.54(2)
_cell_angle_gamma 92.18(2)
_cell_volume 372.09
_cell_formula_units_Z 1
_symmetry_space_group_name_H-M 'P -1'
_symmetry_Int_Tables_number 2
_refine_ls_R_factor_all 0.0205
loop_
_symmetry_equiv_pos_site_id
_symmetry_equiv_pos_as_xyz
1 '-x, -y, -z'
2 'x, y, z'
loop_
_atom_type_symbol
_atom_type_oxidation_number
Te1- -1
N3- -3
H1+ 1
N3- -3
H1+ 1
N3- -3
H1+ 1
N3- -3
H1+ 1
Li1+ 1
loop_
_atom_site_label
_atom_site_type_symbol
_atom_site_symmetry_multiplicity
_atom_site_Wyckoff_symbol
_atom_site_fract_x
_atom_site_fract_y
_atom_site_fract_z
_atom_site_B_iso_or_equiv
_atom_site_occupancy
_atom_site_attached_hydrogens
Te1 Te1- 2 i 0.48042(3) 0.54554(2) 0.84331(2) . 1. 0
N1 N3- 2 i 0.8736(5) 0.3313(4) 0.6156(4) . 1. 0
H1 H1+ 2 i 0.7676 0.4035 0.6508 0.028 1. 0
H2 H1+ 2 i 0.8143 0.2936 0.4826 0.028 1. 0
H3 H1+ 2 i 1.0176 0.4136 0.6634 0.028 1. 0
N2 N3- 2 i 1.2271(5) 0.0221(4) 0.7609(4) . 1. 0
H4 H1+ 2 i 1.3388 0.1246 0.8561 0.03 1. 0
H5 H1+ 2 i 1.2479 0.0104 0.6479 0.03 1. 0
H6 H1+ 2 i 1.2452 -.1018 0.7992 0.03 1. 0
N3 N3- 2 i 0.9220(5) 0.2065(4) 0.9598(4) . 1. 0
H7 H1+ 2 i 0.8992 0.1025 1.017 0.032 1. 0
H8 H1+ 2 i 0.8021 0.2894 0.9441 0.032 1. 0
H9 H1+ 2 i 1.0671 0.2848 1.0374 0.032 1. 0
N4 N3- 2 i 0.6913(6) -.1530(5) 0.5967(4) . 1. 0
H10 H1+ 2 i 0.6901 -.2221 0.6892 0.047 1. 0
H11 H1+ 2 i 0.7329 -.2377 0.5089 0.047 1. 0
H12 H1+ 2 i 0.5419 -.1165 0.5334 0.047 1. 0
Li1 Li1+ 2 i 0.9175(9) 0.0906(8) 0.7184(7) . 1. 0
loop_
_atom_site_aniso_label
_atom_site_aniso_type_symbol
_atom_site_aniso_U_11
_atom_site_aniso_U_22
_atom_site_aniso_U_33
_atom_site_aniso_U_12
_atom_site_aniso_U_13
_atom_site_aniso_U_23
Te1 Te1- 0.01453(14) 0.01354(14) 0.01239(14) 0.00247(8) 0.00585(10) 0.00385(8)
N1 N3- 0.0185(14) 0.0179(13) 0.0190(14) 0.0009(11) 0.0062(12) 0.0047(11)
N2 N3- 0.0237(15) 0.0146(13) 0.0258(15) 0.0040(11) 0.0132(13) 0.0048(11)
N3 N3- 0.0225(15) 0.0239(15) 0.0227(15) 0.0099(12) 0.0126(13) 0.0061(12)
N4 N3- 0.0400(19) 0.0288(16) 0.0209(16) -.0115(14) 0.0099(15) 0.0025(13)
Li1 Li1+ 0.023(3) 0.020(3) 0.018(3) -.002(2) 0.008(2) 0.002(2)
#End of TTdata_409556-ICSD