
#(C) 2018 by FIZ Karlsruhe - Leibniz Institute for Information Infrastructure.  All rights reserved.
data_409618-ICSD
_database_code_ICSD 409618
_audit_creation_date 2003-10-01
_chemical_name_systematic 'Dilithium indium phosphate(V) hydrogenphosphate(V)'
_chemical_formula_structural 'Li2 In ((P O4) (H P O4))'
_chemical_formula_sum 'H1 In1 Li2 O8 P2'
_chemical_name_structure_type Li2FeH(PO4)2
_exptl_crystal_density_diffrn 3.55
_cell_measurement_temperature 295.
_publ_section_title

;
Crystal structure of dilithium indium (monophosphate-
monhydrogen-monophosphate), Li2 In ((P O4) (H P O4))
;
loop_
_citation_id
_citation_journal_full
_citation_year
_citation_journal_volume
_citation_page_first
_citation_page_last
_citation_journal_id_ASTM
primary 'Zeitschrift fuer Kristallographie - New Crystal Structures' 2002 217
307 308 ZKNSFT
loop_
_publ_author_name
'Mi Jinxiao'
'Deng, J.-F.'
'Mao, S.-Y.'
'Huang, Y.-X.'
'Borrmann, H.'
'Zhao, J.-T.'
'Kniep, R.'
_cell_length_a 4.8345(7)
_cell_length_b 8.236(1)
_cell_length_c 7.7276(11)
_cell_angle_alpha 90.
_cell_angle_beta 103.466(7)
_cell_angle_gamma 90.
_cell_volume 299.23
_cell_formula_units_Z 2
_symmetry_space_group_name_H-M 'P 1 21/n 1'
_symmetry_Int_Tables_number 14
_refine_ls_R_factor_all 0.022
loop_
_symmetry_equiv_pos_site_id
_symmetry_equiv_pos_as_xyz
1 '-x+1/2, y+1/2, -z+1/2'
2 '-x, -y, -z'
3 'x+1/2, -y+1/2, z+1/2'
4 'x, y, z'
loop_
_atom_type_symbol
_atom_type_oxidation_number
In3+ 3
P5+ 5
Li1+ 1
O2- -2
H1+ 1
loop_
_atom_site_label
_atom_site_type_symbol
_atom_site_symmetry_multiplicity
_atom_site_Wyckoff_symbol
_atom_site_fract_x
_atom_site_fract_y
_atom_site_fract_z
_atom_site_B_iso_or_equiv
_atom_site_occupancy
_atom_site_attached_hydrogens
In1 In3+ 2 b 0.5 0.5 0 0.00776(15) 1. 0
P1 P5+ 4 e 0.86164(18) 0.65248(10) 0.72863(11) 0.0055(2) 1. 0
Li1 Li1+ 4 e 0.3903(15) 0.8665(8) 0.8416(9) 0.0179(13) 1. 0
O1 O2- 4 e 0.6358(5) 0.6794(3) 0.8359(3) 0.0090(5) 1. 0
O2 O2- 4 e 0.9931(5) 0.8131(3) 0.6912(3) 0.0094(5) 1. 0
O3 O2- 4 e 0.0902(5) 0.5373(3) 0.8302(3) 0.0098(5) 1. 0
O4 O2- 4 e 0.7346(5) 0.5698(3) 0.5475(3) 0.0125(5) 1. 0
H1 H1+ 4 e 0.571 0.519 0.518 0.005 0.5 0
loop_
_atom_site_aniso_label
_atom_site_aniso_type_symbol
_atom_site_aniso_U_11
_atom_site_aniso_U_22
_atom_site_aniso_U_33
_atom_site_aniso_U_12
_atom_site_aniso_U_13
_atom_site_aniso_U_23
In1 In3+ 0.0084(2) 0.0074(2) 0.0072(2) 0.00041(11) 0.00140(13) 0.00005(11)
P1 P5+ 0.0051(4) 0.0064(4) 0.0054(4) 0.0001(3) 0.0017(3) 0.0009(3)
Li1 Li1+ 0.021(3) 0.016(3) 0.018(3) 0.004(3) 0.006(3) 0.004(3)
O1 O2- 0.0097(11) 0.0079(11) 0.0120(12) 0.0019(9) 0.0078(9) 0.0021(9)
O2 O2- 0.0106(11) 0.0092(12) 0.0092(12) -0.0034(9) 0.0043(9) 0.0029(9)
O3 O2- 0.0071(11) 0.0099(11) 0.0116(13) 0.0027(9) 0.0002(9) 0.0022(10)
O4 O2- 0.0116(11) 0.0182(14) 0.0084(12) -0.0047(10) 0.0033(9) -0.0027(10)
#End of TTdata_409618-ICSD