
#(C) 2017 by FIZ Karlsruhe - Leibniz Institute for Information Infrastructure.  All rights reserved.
data_409938-ICSD
_database_code_ICSD 409938
_audit_creation_date 2008-08-01
_chemical_name_systematic 'Lithium hexachlorotungstate(V)'
_chemical_formula_structural 'Li (W Cl6)'
_chemical_formula_sum 'Cl6 Li1 W1'
_exptl_crystal_density_diffrn 3.46
_cell_measurement_temperature 293.
_publ_section_title
'Crystal structure of lithium hexachlorotungstate(V), Li W Cl6'
loop_
_citation_id
_citation_journal_full
_citation_year
_citation_journal_volume
_citation_page_first
_citation_page_last
_citation_journal_id_ASTM
primary 'Zeitschrift fuer Kristallographie - New Crystal Structures' 2008 223 5
6 ZKNSFT
loop_
_publ_author_name
'Weisser, M.'
'Tragl, S.'
'Meyer, H.J.'
_cell_length_a 12.457(1)
_cell_length_b 12.457(1)
_cell_length_c 17.308(2)
_cell_angle_alpha 90.
_cell_angle_beta 90.
_cell_angle_gamma 120.
_cell_volume 2325.97
_cell_formula_units_Z 12
_symmetry_space_group_name_H-M 'R 3 H'
_symmetry_Int_Tables_number 146
_refine_ls_R_factor_all 0.0386
loop_
_symmetry_equiv_pos_site_id
_symmetry_equiv_pos_as_xyz
1 '-x+y, -x, z'
2 '-y, x-y, z'
3 'x, y, z'
4 '-x+y+2/3, -x+1/3, z+1/3'
5 '-y+2/3, x-y+1/3, z+1/3'
6 'x+2/3, y+1/3, z+1/3'
7 '-x+y+1/3, -x+2/3, z+2/3'
8 '-y+1/3, x-y+2/3, z+2/3'
9 'x+1/3, y+2/3, z+2/3'
loop_
_atom_type_symbol
_atom_type_oxidation_number
W5+ 5
Cl1- -1
Li1+ 1
loop_
_atom_site_label
_atom_site_type_symbol
_atom_site_symmetry_multiplicity
_atom_site_Wyckoff_symbol
_atom_site_fract_x
_atom_site_fract_y
_atom_site_fract_z
_atom_site_B_iso_or_equiv
_atom_site_occupancy
_atom_site_attached_hydrogens
W1 W5+ 9 b -0.01492(6) 0.49312(6) 1.00009(4) 0.0245(2) 1 0
W2 W5+ 3 a 0. 0. 1.00106(7) 0.0391(7) 1 0
Cl1 Cl1- 9 b 0.1592(11) 0.5028(12) 0.9224(3) 0.038(2) 1 0
Cl2 Cl1- 9 b 0.1503(9) 0.6485(10) 1.0748(3) 0.0292(16) 1 0
Cl3 Cl1- 9 b 0.0077(10) 0.6523(11) 0.9195(3) 0.038(2) 1 0
Cl4 Cl1- 9 b -0.0069(12) 0.3478(12) 1.0772(3) 0.039(2) 1 0
Cl5 Cl1- 9 b 0.0056(10) 0.1579(10) 0.9198(3) 0.0308(16) 1 0
Cl6 Cl1- 9 b -0.1549(10) -0.0012(11) 1.0774(3) 0.0333(18) 1 0
Cl7 Cl1- 9 b -0.1637(12) 0.4891(11) 1.0790(4) 0.045(2) 1 0
Cl8 Cl1- 9 b -0.1543(10) 0.3555(11) 0.9180(3) 0.039(2) 1 0
Li1 Li1+ 9 b 0.168(2) 0.333(2) 1.004(2) 0.025(6) 1 0
Li2 Li1+ 3 a 0.3333 0.6667 1.019(6) 0.09(3) 1 0
loop_
_atom_site_aniso_label
_atom_site_aniso_type_symbol
_atom_site_aniso_U_11
_atom_site_aniso_U_22
_atom_site_aniso_U_33
_atom_site_aniso_U_12
_atom_site_aniso_U_13
_atom_site_aniso_U_23
W1 W5+ 0.0135(3) 0.0273(6) 0.0273(3) 0.0061(3) 0.0010(4) 0.0024(3)
W2 W5+ 0.0381(10) 0.0381(10) 0.0411(8) 0.0191(5) 0. 0.
Cl1 Cl1- 0.034(4) 0.045(5) 0.033(3) 0.018(3) 0.006(3) -0.001(3)
Cl2 Cl1- 0.020(3) 0.033(4) 0.025(2) 0.007(3) -0.002(2) 0.003(2)
Cl3 Cl1- 0.037(4) 0.049(5) 0.037(3) 0.028(4) -0.006(3) 0.011(3)
Cl4 Cl1- 0.046(5) 0.050(5) 0.035(3) 0.034(4) 0.001(3) 0.010(3)
Cl5 Cl1- 0.036(3) 0.030(4) 0.030(2) 0.020(3) -0.002(2) 0.004(2)
Cl6 Cl1- 0.032(4) 0.039(4) 0.035(3) 0.021(3) -0.006(2) -0.004(3)
Cl7 Cl1- 0.044(5) 0.045(4) 0.045(3) 0.020(4) 0.008(3) 0.003(3)
Cl8 Cl1- 0.031(4) 0.037(4) 0.041(3) 0.010(3) -0.012(3) -0.005(3)
Li1 Li1+ 0.014(11) 0.006(9) 0.052(18) 0.002(8) 0.001(9) -0.007(10)
Li2 Li1+ 0.09(4) 0.09(4) 0.08(6) 0.05(2) 0. 0.
#End of TTdata_409938-ICSD