
#(C) 2018 by FIZ Karlsruhe - Leibniz Institute for Information Infrastructure.  All rights reserved.
data_410044-ICSD
_database_code_ICSD 410044
_audit_creation_date 1999-06-02
_chemical_name_systematic 'Lithium dierbium trifluoride bis(sulfate(VI))'
_chemical_formula_structural 'Li Er2 F3 (S O4)2'
_chemical_formula_sum 'Er2 F3 Li1 O8 S2'
_exptl_crystal_density_diffrn 5.14
_publ_section_title

;
Li La2 F3 (S O4)2 und Li Er2 F3 (S O4)2: Fluoridsulfate der
Selten-Erd-Elemente mit Lithium
;
loop_
_citation_id
_citation_journal_full
_citation_year
_citation_journal_volume
_citation_page_first
_citation_page_last
_citation_journal_id_ASTM
primary 'Zeitschrift fuer Anorganische und Allgemeine Chemie (1950) (DE)' 1999
625 302 308 ZAACAB
loop_
_publ_author_name
'Wickleder, M.S.'
_cell_length_a 14.791(3)
_cell_length_b 6.3360(13)
_cell_length_c 8.1372(13)
_cell_angle_alpha 90.
_cell_angle_beta 90.
_cell_angle_gamma 90.
_cell_volume 762.58
_cell_formula_units_Z 4
_symmetry_space_group_name_H-M 'P b c n'
_symmetry_Int_Tables_number 60
_refine_ls_R_factor_all 0.0229
loop_
_symmetry_equiv_pos_site_id
_symmetry_equiv_pos_as_xyz
1 'x, -y, z+1/2'
2 '-x+1/2, y+1/2, z'
3 'x+1/2, y+1/2, -z+1/2'
4 '-x, -y, -z'
5 '-x, y, -z+1/2'
6 'x+1/2, -y+1/2, -z'
7 '-x+1/2, -y+1/2, z+1/2'
8 'x, y, z'
loop_
_atom_type_symbol
_atom_type_oxidation_number
Er3+ 3
S6+ 6
O2- -2
F1- -1
O2- -2
F1- -1
O2- -2
Li1+ 1
loop_
_atom_site_label
_atom_site_type_symbol
_atom_site_symmetry_multiplicity
_atom_site_Wyckoff_symbol
_atom_site_fract_x
_atom_site_fract_y
_atom_site_fract_z
_atom_site_B_iso_or_equiv
_atom_site_occupancy
_atom_site_attached_hydrogens
Er1 Er3+ 8 d 0.101800(13) 0.10778(3) 0.86621(2) . 1. 0
S1 S6+ 8 d 0.16437(8) -.39361(15) 1.00569(15) . 1. 0
O1 O2- 8 d 0.1102(2) -.2606(6) 0.8930(5) . 1. 0
F1 F1- 8 d 0.0509(2) -.0356(5) 0.6251(3) . 1. 0
O2 O2- 8 d 0.1142(2) -.5929(5) 1.0262(5) . 1. 0
F2 F1- 4 c 0 0.3262(6) 0.75 . 1. 0
O3 O2- 8 d 0.1770(2) -.2886(5) 1.1637(4) . 1. 0
O4 O2- 8 d 0.2536(2) -.4379(5) 0.9340(4) . 1. 0
Li1 Li1+ 4 c 0 0.6283(22) 0.75 . 1. 0
loop_
_atom_site_aniso_label
_atom_site_aniso_type_symbol
_atom_site_aniso_U_11
_atom_site_aniso_U_22
_atom_site_aniso_U_33
_atom_site_aniso_U_12
_atom_site_aniso_U_13
_atom_site_aniso_U_23
Er1 Er3+ 0.0064(2) 0.0053(2) 0.0058(2) -.00035(6) -.00043(6) 0.00035(6)
S1 S6+ 0.0058(5) 0.0047(5) 0.0070(6) 0.0006(3) 0.0001(4) -.0004(3)
O1 O2- 0.013(2) 0.005(2) 0.012(2) 0.0019(11) -.0046(11) 0.0013(13)
F1 F1- 0.0100(13) 0.0112(13) 0.0082(15) -.0018(11) 0.0000(8) -.0023(9)
O2 O2- 0.015(2) 0.002(2) 0.014(2) -.0022(11) 0.0017(13) 0.0006(11)
F2 F1- 0.007(2) 0.011(2) 0.014(2) 0 0.0003(13) 0
O3 O2- 0.011(2) 0.009(2) 0.011(2) 0.0019(11) -.0001(12) -.0037(12)
O4 O2- 0.0060(13) 0.0123(15) 0.015(2) 0.0028(12) 0.0047(13) -.0017(14)
Li1 Li1+ 0.059(12) 0.012(6) 0.057(13) 0 -.037(10) 0
#End of TTdata_410044-ICSD