
#(C) 2017 by FIZ Karlsruhe - Leibniz Institute for Information Infrastructure.  All rights reserved.
data_411131-ICSD
_database_code_ICSD 411131
_audit_creation_date 2000-07-15
_chemical_name_systematic 'Lithium ytterbium hexafluoroaluminate'
_chemical_formula_structural 'Li Yb (Al F6)'
_chemical_formula_sum 'Al1 F6 Li1 Yb1'
_chemical_name_structure_type CaLiAlF6
_exptl_crystal_density_diffrn 4.91
_publ_section_title

;
Syntheses and structures of novel complex Yb(II) fluorides: Yb Be F4, Yb Al F5
and Li Yb Al F6
;
loop_
_citation_id
_citation_journal_full
_citation_year
_citation_journal_volume
_citation_page_first
_citation_page_last
_citation_journal_id_ASTM
primary 'Solid State Sciences' 1999 1 545 553 SSSCFJ
loop_
_publ_author_name
'Koehler, J.'
_cell_length_a 5.042(2)
_cell_length_b 5.042(2)
_cell_length_c 9.868(1)
_cell_angle_alpha 90.
_cell_angle_beta 90.
_cell_angle_gamma 120.
_cell_volume 217.25
_cell_formula_units_Z 2
_symmetry_space_group_name_H-M 'P -3 1 c'
_symmetry_Int_Tables_number 163
_refine_ls_R_factor_all 0.0236
loop_
_symmetry_equiv_pos_site_id
_symmetry_equiv_pos_as_xyz
1 '-x+y, y, -z+1/2'
2 'x, x-y, -z+1/2'
3 '-y, -x, -z+1/2'
4 'x-y, x, -z'
5 'y, -x+y, -z'
6 '-x, -y, -z'
7 'x-y, -y, z+1/2'
8 '-x, -x+y, z+1/2'
9 'y, x, z+1/2'
10 '-x+y, -x, z'
11 '-y, x-y, z'
12 'x, y, z'
loop_
_atom_type_symbol
_atom_type_oxidation_number
Yb2+ 2
Al3+ 3
F1- -1
Li1+ 1
loop_
_atom_site_label
_atom_site_type_symbol
_atom_site_symmetry_multiplicity
_atom_site_Wyckoff_symbol
_atom_site_fract_x
_atom_site_fract_y
_atom_site_fract_z
_atom_site_B_iso_or_equiv
_atom_site_occupancy
_atom_site_attached_hydrogens
Yb1 Yb2+ 2 b 0 0 0 . 1. 0
Al1 Al3+ 2 d 0.6667 0.3333 0.25 . 1. 0
F1 F1- 12 i 0.6497(9) 0.0313(4) 0.3545(4) . 1. 0
Li1 Li1+ 2 c 0.3333 0.6667 0.25 . 1. 0
loop_
_atom_site_aniso_label
_atom_site_aniso_type_symbol
_atom_site_aniso_U_11
_atom_site_aniso_U_22
_atom_site_aniso_U_33
_atom_site_aniso_U_12
_atom_site_aniso_U_13
_atom_site_aniso_U_23
Yb1 Yb2+ 0.0108(4) 0.0108(4) 0.0075(4) 0.00541(18) 0 0
Al1 Al3+ 0.0077(9) 0.0077(9) 0.0086(11) 0.0039(4) 0 0
F1 F1- 0.0158(12) 0.0098(9) 0.0162(11) 0.0051(9) -.0055(10) 0.0013(7)
Li1 Li1+ 0.013(6) 0.013(6) 0.032(10) 0.007(3) 0 0
#End of TTdata_411131-ICSD