
#(C) 2018 by FIZ Karlsruhe - Leibniz Institute for Information Infrastructure.  All rights reserved.
data_411410-ICSD
_database_code_ICSD 411410
_audit_creation_date 2003-04-01
_chemical_name_systematic 'Dilithium tecto-perselenotriselenodiborate'
_chemical_formula_structural 'Li2 (B2 Se3 (Se2))'
_chemical_formula_sum 'B2 Li2 Se5'
_exptl_crystal_density_diffrn 4.35
_cell_measurement_temperature 296.
_publ_section_title
'The first perselenoborate with a novel three-dimensional anion network'
loop_
_citation_id
_citation_journal_full
_citation_year
_citation_journal_volume
_citation_page_first
_citation_page_last
_citation_journal_id_ASTM
primary 'Phosphorus, Sulfur, Silicon and Related Elements' 2001 169 169 172
PSSLEC
loop_
_publ_author_name
'Lindemann, A.'
'Kuchinke, J.'
'Koester, C.'
'Hammerschmidt, A.'
'Doech, M.'
'Pruss, T.'
'Krebs, B.'
_cell_length_a 10.616(2)
_cell_length_b 5.3181(11)
_cell_length_c 12.382(3)
_cell_angle_alpha 90.
_cell_angle_beta 109.96(3)
_cell_angle_gamma 90.
_cell_volume 657.06
_cell_formula_units_Z 4
_symmetry_space_group_name_H-M 'C 1 2/c 1'
_symmetry_Int_Tables_number 15
_refine_ls_R_factor_all 0.0207
loop_
_symmetry_equiv_pos_site_id
_symmetry_equiv_pos_as_xyz
1 'x, -y, z+1/2'
2 '-x, -y, -z'
3 '-x, y, -z+1/2'
4 'x, y, z'
5 'x+1/2, -y+1/2, z+1/2'
6 '-x+1/2, -y+1/2, -z'
7 '-x+1/2, y+1/2, -z+1/2'
8 'x+1/2, y+1/2, z'
loop_
_atom_type_symbol
_atom_type_oxidation_number
Se1- -1
Se2- -2
B3+ 3
Li1+ 1
loop_
_atom_site_label
_atom_site_type_symbol
_atom_site_symmetry_multiplicity
_atom_site_Wyckoff_symbol
_atom_site_fract_x
_atom_site_fract_y
_atom_site_fract_z
_atom_site_B_iso_or_equiv
_atom_site_occupancy
_atom_site_attached_hydrogens
Se1 Se1- 8 f 0.06531(4) 0.66020(7) 0.06056(3) 0.02299(16) 1. 0
Se2 Se2- 8 f 0.24422(4) 0.67932(7) 0.33942(3) 0.02070(15) 1. 0
Se3 Se2- 4 e 0 0.24181(11) 0.25 0.02078(18) 1. 0
B1 B3+ 8 f 0.1412(4) 0.4453(8) 0.2076(3) 0.0192(7) 1. 0
Li1 Li1+ 8 f 0.1261(10) 0.9823(17) 0.4321(8) 0.044(2) 1. 0
loop_
_atom_site_aniso_label
_atom_site_aniso_type_symbol
_atom_site_aniso_U_11
_atom_site_aniso_U_22
_atom_site_aniso_U_33
_atom_site_aniso_U_12
_atom_site_aniso_U_13
_atom_site_aniso_U_23
Se1 Se1- 0.0250(2) 0.0209(2) 0.0207(2) -0.00137(13) 0.00465(17) 0.00105(13)
Se2 Se2- 0.0213(2) 0.0207(2) 0.0202(2) -0.00169(13) 0.00723(16) -0.00054(13)
Se3 Se2- 0.0204(3) 0.0201(3) 0.0228(3) 0 0.0087(2) 0
B1 B3+ 0.0190(19) 0.0173(19) 0.0210(18) 0.0011(15) 0.0062(16) 0.0021(14)
Li1 Li1+ 0.056(6) 0.037(5) 0.044(5) 0.016(4) 0.025(4) 0.004(4)
#End of TTdata_411410-ICSD