
#(C) 2018 by FIZ Karlsruhe - Leibniz Institute for Information Infrastructure.  All rights reserved.
data_411530-ICSD
_database_code_ICSD 411530
_audit_creation_date 2003-10-01
_chemical_name_systematic 'Dilithium cesium trithioborate'
_chemical_formula_structural 'Li2 Cs (B S3)'
_chemical_formula_sum 'B1 Cs1 Li2 S3'
_chemical_name_structure_type Li3BS3
_exptl_crystal_density_diffrn 2.61
_publ_section_title 'Novel thioborates of cesium: Cs3 B S3 and Li2 Cs B S3'
loop_
_citation_id
_citation_journal_full
_citation_year
_citation_journal_volume
_citation_page_first
_citation_page_last
_citation_journal_id_ASTM
primary 'Zeitschrift fuer Naturforschung, B: Chemical Sciences' 2002 57 1433
1438 ZNBSEN
loop_
_publ_author_name
'Kuchinke, J.'
'Kueper, J.'
'Krebs, B.'
_cell_length_a 10.004(2)
_cell_length_b 8.000(2)
_cell_length_c 8.082(2)
_cell_angle_alpha 90.
_cell_angle_beta 90.
_cell_angle_gamma 90.
_cell_volume 646.82
_cell_formula_units_Z 4
_symmetry_space_group_name_H-M 'P n m a'
_symmetry_Int_Tables_number 62
_refine_ls_R_factor_all 0.0221
loop_
_symmetry_equiv_pos_site_id
_symmetry_equiv_pos_as_xyz
1 'x+1/2, y, -z+1/2'
2 'x, -y+1/2, z'
3 '-x+1/2, y+1/2, z+1/2'
4 '-x, -y, -z'
5 '-x+1/2, -y, z+1/2'
6 '-x, y+1/2, -z'
7 'x+1/2, -y+1/2, -z+1/2'
8 'x, y, z'
loop_
_atom_type_symbol
_atom_type_oxidation_number
Cs1+ 1
S2- -2
B3+ 3
Li1+ 1
loop_
_atom_site_label
_atom_site_type_symbol
_atom_site_symmetry_multiplicity
_atom_site_Wyckoff_symbol
_atom_site_fract_x
_atom_site_fract_y
_atom_site_fract_z
_atom_site_B_iso_or_equiv
_atom_site_occupancy
_atom_site_attached_hydrogens
Cs1 Cs1+ 4 c 0.00561(3) 0.75 0.55947(4) 0.0346(2) 1. 0
S1 S2- 4 c 0.04087(11) 0.25 1.01155(14) 0.0191(2) 1. 0
S2 S2- 8 d 0.22820(8) 0.45113(10) 0.77414(10) 0.0294(2) 1. 0
B1 B3+ 4 c 0.1670(4) 0.25 0.8427(6) 0.0183(9) 1. 0
Li1 Li1+ 8 d 0.3671(5) 0.4594(6) 0.5373(6) 0.0231(10) 1. 0
loop_
_atom_site_aniso_label
_atom_site_aniso_type_symbol
_atom_site_aniso_U_11
_atom_site_aniso_U_22
_atom_site_aniso_U_33
_atom_site_aniso_U_12
_atom_site_aniso_U_13
_atom_site_aniso_U_23
Cs1 Cs1+ 0.0408(2) 0.0358(2) 0.0274(2) 0 -0.00049(13) 0
S1 S2- 0.0211(5) 0.0152(5) 0.0210(6) 0 0.0067(5) 0
S2 S2- 0.0416(4) 0.0207(4) 0.0259(4) -0.0004(3) 0.0157(4) 0.0042(3)
B1 B3+ 0.019(2) 0.016(2) 0.019(2) 0 0.000(2) 0
Li1 Li1+ 0.025(2) 0.023(2) 0.021(2) 0.002(2) 0.006(2) 0.000(2)
#End of TTdata_411530-ICSD