
#(C) 2017 by FIZ Karlsruhe - Leibniz Institute for Information Infrastructure.  All rights reserved.
data_411688-ICSD
_database_code_ICSD 411688
_audit_creation_date 2002-10-01
_chemical_name_systematic 'Lithium nonadecachlorohexaniobate(III)'
_chemical_formula_structural 'Li (Nb6 Cl19)'
_chemical_formula_sum 'Cl19 Li1 Nb6'
_exptl_crystal_density_diffrn 3.36
_cell_measurement_temperature 215.
_publ_section_title 'Die Leiterstruktur von Li Nb6 Cl19'
loop_
_citation_id
_citation_journal_full
_citation_year
_citation_journal_volume
_citation_page_first
_citation_page_last
_citation_journal_id_ASTM
primary 'Zeitschrift fuer Anorganische und Allgemeine Chemie (1950) (DE)' 2001
627 2005 2010 ZAACAB
loop_
_publ_author_name
'Stroebele, M.'
'Meyer, H.J.'
_cell_length_a 28.1455(14)
_cell_length_b 6.7835(5)
_cell_length_c 6.4139(3)
_cell_angle_alpha 90.
_cell_angle_beta 90.
_cell_angle_gamma 90.
_cell_volume 1224.57
_cell_formula_units_Z 2
_symmetry_space_group_name_H-M 'P m m a'
_symmetry_Int_Tables_number 51
_refine_ls_R_factor_all 0.0359
loop_
_symmetry_equiv_pos_site_id
_symmetry_equiv_pos_as_xyz
1 '-x+1/2, -y, z'
2 'x+1/2, -y, -z'
3 'x, -y, z'
4 '-x, -y, -z'
5 'x+1/2, y, -z'
6 '-x+1/2, y, z'
7 '-x, y, -z'
8 'x, y, z'
loop_
_atom_type_symbol
_atom_type_oxidation_number
Nb3+ 3
Cl1- -1
Li1+ 1
loop_
_atom_site_label
_atom_site_type_symbol
_atom_site_symmetry_multiplicity
_atom_site_Wyckoff_symbol
_atom_site_fract_x
_atom_site_fract_y
_atom_site_fract_z
_atom_site_B_iso_or_equiv
_atom_site_occupancy
_atom_site_attached_hydrogens
Nb1 Nb3+ 4 j 0.31033(2) 0.5 0.21322(10) . 1. 0
Nb2 Nb3+ 8 l 0.39429(2) 0.28582(7) 0.34115(7) . 1. 0
Cl1 Cl1- 4 j 0.34551(5) 0.5 0.5603(3) . 1. 0
Cl2 Cl1- 8 l 0.34913(4) 0.24600(16) 0.01894(19) . 1. 0
Cl3 Cl1- 4 j 0.44891(6) 0.5 0.1611(3) . 1. 0
Cl4 Cl1- 2 f 0.25 0.5 -.0833(4) . 1. 0
Cl5 Cl1- 4 k 0.25 0.2613(2) 0.3605(3) . 1. 0
Cl6 Cl1- 4 i 0.34635(5) 0 0.4848(3) . 1. 0
Cl7 Cl1- 4 i 0.44392(6) 0 0.1871(3) . 1. 0
Cl8 Cl1- 8 l 0.44434(4) 0.25412(17) 0.64021(19) . 1. 0
Li1 Li1+ 2 c 0.5 0 0.5 . 1. 0
loop_
_atom_site_aniso_label
_atom_site_aniso_type_symbol
_atom_site_aniso_U_11
_atom_site_aniso_U_22
_atom_site_aniso_U_33
_atom_site_aniso_U_12
_atom_site_aniso_U_13
_atom_site_aniso_U_23
Nb1 Nb3+ 0.0123(3) 0.0143(4) 0.0171(4) 0 0.0001(2) 0
Nb2 Nb3+ 0.0118(2) 0.0138(3) 0.0157(3) 0.00044(15) 0.00034(15) 0.00034(18)
Cl1 Cl1- 0.0144(8) 0.0144(8) 0.0183(9) 0 -.0001(6) 0
Cl2 Cl1- 0.0168(6) 0.0162(7) 0.0170(6) 0.0013(4) -.0009(4) -.0021(5)
Cl3 Cl1- 0.0154(8) 0.0154(9) 0.0219(9) 0 0.0034(6) 0
Cl4 Cl1- 0.0149(11) 0.0277(14) 0.0194(13) 0 0 0
Cl5 Cl1- 0.0148(8) 0.0145(9) 0.0235(10) 0 0 0.0036(7)
Cl6 Cl1- 0.0131(8) 0.0130(8) 0.0247(9) 0 0.0017(6) 0
Cl7 Cl1- 0.0143(8) 0.0129(8) 0.0217(9) 0 0.0014(6) 0
Cl8 Cl1- 0.0173(6) 0.0178(6) 0.0201(7) 0.0023(4) -.0033(4) -.0010(5)
Li1 Li1+ 0.017(9) 0.027(10) 0.042(12) 0 0.002(8) 0
#End of TTdata_411688-ICSD