
#(C) 2018 by FIZ Karlsruhe - Leibniz Institute for Information Infrastructure.  All rights reserved.
data_41218-ICSD
_database_code_ICSD 41218
_audit_creation_date 1999-11-30
_audit_update_record 2002-04-01
_chemical_name_systematic
'Potassium lithium antimony(V) oxide (1.8/2.45/5.55/16) subcell'
_chemical_formula_structural 'K1.8 (Li2.45 Sb5.55) O16'
_chemical_formula_sum 'K1.8 Li2.45 O16 Sb5.55'
_chemical_name_structure_type Rb1.5Mn8O16
_exptl_crystal_density_diffrn 5.85
_publ_section_title

;
Determination structurale et proprietes de conduction d'un nouveau compose de
type hollandite: K1.8 (Li2.45 Sb5.55) O16 ; mise en evidence d'une
substructure d'ordre 3
;
loop_
_citation_id
_citation_journal_full
_citation_year
_citation_journal_volume
_citation_page_first
_citation_page_last
_citation_journal_id_ASTM
primary 'Materials Research Bulletin' 1982 17 863 871 MRBUAC
loop_
_publ_author_name
'Watelet, H.'
'Besse, J.P.'
'Baud, G.'
'Chevalier, R.'
_cell_length_a 9.930(5)
_cell_length_b 9.930(5)
_cell_length_c 2.936(3)
_cell_angle_alpha 90.
_cell_angle_beta 90.
_cell_angle_gamma 90.
_cell_volume 289.5
_cell_formula_units_Z 1
_symmetry_space_group_name_H-M 'I 4/m'
_symmetry_Int_Tables_number 87
_refine_ls_R_factor_all 0.048
loop_
_symmetry_equiv_pos_site_id
_symmetry_equiv_pos_as_xyz
1 '-y, x, -z'
2 'y, -x, -z'
3 'x, y, -z'
4 '-x, -y, -z'
5 'y, -x, z'
6 '-y, x, z'
7 '-x, -y, z'
8 'x, y, z'
9 '-y+1/2, x+1/2, -z+1/2'
10 'y+1/2, -x+1/2, -z+1/2'
11 'x+1/2, y+1/2, -z+1/2'
12 '-x+1/2, -y+1/2, -z+1/2'
13 'y+1/2, -x+1/2, z+1/2'
14 '-y+1/2, x+1/2, z+1/2'
15 '-x+1/2, -y+1/2, z+1/2'
16 'x+1/2, y+1/2, z+1/2'
loop_
_atom_type_symbol
_atom_type_oxidation_number
K1+ 1
Li1+ 1
Sb5+ 5
O2- -2
loop_
_atom_site_label
_atom_site_type_symbol
_atom_site_symmetry_multiplicity
_atom_site_Wyckoff_symbol
_atom_site_fract_x
_atom_site_fract_y
_atom_site_fract_z
_atom_site_B_iso_or_equiv
_atom_site_occupancy
_atom_site_attached_hydrogens
K1 K1+ 2 b 0 0 0.5 1.1(3) 0.48 0
K2 K1+ 4 e 0 0 0.340(4) 0.8(3) 0.2 0
Li1 Li1+ 8 h 0.165(1) 0.350(1) 0 0.6(1) 0.306 0
Sb1 Sb5+ 8 h 0.165(1) 0.350(1) 0 0.6(1) 0.694 0
O1 O2- 8 h 0.204(8) 0.154(7) 0 0.2(1) 1. 0
O2 O2- 8 h 0.164(6) 0.541(6) 0 0.2(1) 1. 0
#End of TTdata_41218-ICSD