
#(C) 2018 by FIZ Karlsruhe - Leibniz Institute for Information Infrastructure.  All rights reserved.
data_412254-ICSD
_database_code_ICSD 412254
_audit_creation_date 2004-10-01
_audit_update_record 2013-08-01
_chemical_name_systematic 'Lithium azide hydrate'
_chemical_formula_structural 'Li (N3) (H2 O)'
_chemical_formula_sum 'H2 Li1 N3 O1'
_exptl_crystal_density_diffrn 1.61
_publ_section_title 'Azide und Cyanamide - aehnlich und doch anders'
loop_
_citation_id
_citation_journal_full
_citation_year
_citation_journal_volume
_citation_page_first
_citation_page_last
_citation_journal_id_ASTM
primary 'Zeitschrift fuer Naturforschung, B: Chemical Sciences' 2003 58 1097
1104 ZNBSEN
loop_
_publ_author_name
'Reckeweg, O.'
'Simon, A.'
_cell_length_a 9.2401(13)
_cell_length_b 9.2401(13)
_cell_length_c 5.6006(7)
_cell_angle_alpha 90.
_cell_angle_beta 90.
_cell_angle_gamma 120.
_cell_volume 414.11
_cell_formula_units_Z 6
_symmetry_space_group_name_H-M 'P 63/m c m'
_symmetry_Int_Tables_number 193
_refine_ls_R_factor_all 0.04
loop_
_symmetry_equiv_pos_site_id
_symmetry_equiv_pos_as_xyz
1 '-x, -x+y, -z+1/2'
2 'x-y, -y, -z+1/2'
3 'y, x, -z+1/2'
4 '-x+y, -x, -z+1/2'
5 '-y, x-y, -z+1/2'
6 'x, y, -z+1/2'
7 'x, x-y, z+1/2'
8 '-x+y, y, z+1/2'
9 '-y, -x, z+1/2'
10 'x-y, x, z+1/2'
11 'y, -x+y, z+1/2'
12 '-x, -y, z+1/2'
13 'x, x-y, -z'
14 '-x+y, y, -z'
15 '-y, -x, -z'
16 'x-y, x, -z'
17 'y, -x+y, -z'
18 '-x, -y, -z'
19 '-x, -x+y, z'
20 'x-y, -y, z'
21 'y, x, z'
22 '-x+y, -x, z'
23 '-y, x-y, z'
24 'x, y, z'
loop_
_atom_type_symbol
_atom_type_oxidation_number
O2- -2
H1+ 1
N0+ 0
N0+ -0.5
Li1+ 1
loop_
_atom_site_label
_atom_site_type_symbol
_atom_site_symmetry_multiplicity
_atom_site_Wyckoff_symbol
_atom_site_fract_x
_atom_site_fract_y
_atom_site_fract_z
_atom_site_B_iso_or_equiv
_atom_site_occupancy
_atom_site_attached_hydrogens
O1 O2- 6 g 0.17873(15) 0 0.25 0.0340(5) 1. 0
H1 H1+ 12 j 0.196(3) -.079(3) 0.25 0.040(5) 1. 0
N1 N0+ 6 g 0.40873(14) 0.40873(14) 0.25 0.0253(5) 1. 0
N2 N0+ 12 j 0.33280(15) 0.47916(15) 0.25 0.0399(5) 1. 0
Li1 Li1+ 2 b 0 0 0 0.0354(11) 1. 0
Li2 Li1+ 4 d 0.3333 0.6667 0 0.0337(7) 1. 0
loop_
_atom_site_aniso_label
_atom_site_aniso_type_symbol
_atom_site_aniso_U_11
_atom_site_aniso_U_22
_atom_site_aniso_U_33
_atom_site_aniso_U_12
_atom_site_aniso_U_13
_atom_site_aniso_U_23
O1 O2- 0.0290(6) 0.0268(7) 0.0454(8) 0.0134(3) 0 0
N1 N0+ 0.0226(6) 0.0226(6) 0.0268(6) 0.0083(5) 0 0
N2 N0+ 0.0455(7) 0.0316(6) 0.0491(7) 0.0243(5) 0 0
Li1 Li1+ 0.0371(15) 0.0371(15) 0.032(2) 0.0186(7) 0 0
Li2 Li1+ 0.0321(10) 0.0321(10) 0.0370(16) 0.0160(5) 0 0
#End of TTdata_412254-ICSD