
#(C) 2018 by FIZ Karlsruhe - Leibniz Institute for Information Infrastructure.  All rights reserved.
data_412247-ICSD
_database_code_ICSD 412247
_audit_creation_date 2003-04-01
_audit_update_record 2012-02-01
_chemical_name_systematic 'Tetralithium distrontium hexanitridodichromate(V)'
_chemical_formula_structural 'Li4 Sr2 (Cr2 N6)'
_chemical_formula_sum 'Cr2 Li4 N6 Sr2'
_exptl_crystal_density_diffrn 3.67
_cell_measurement_temperature 295.
_publ_section_title 'Li4 Sr2 (Cr2 N6): ein Hexanitridodichromat(V)'
loop_
_citation_id
_citation_journal_full
_citation_year
_citation_journal_volume
_citation_page_first
_citation_page_last
_citation_journal_id_ASTM
primary 'Zeitschrift fuer Anorganische und Allgemeine Chemie (1950) (DE)' 2002
628 2738 2743 ZAACAB
loop_
_publ_author_name
'Hochrein, O.'
'Kohout, M.'
'Schnelle, W.'
'Kniep, R.'
_cell_length_a 9.1400(4)
_cell_length_b 7.3541(3)
_cell_length_c 10.5355(8)
_cell_angle_alpha 90.
_cell_angle_beta 90.
_cell_angle_gamma 90.
_cell_volume 708.16
_cell_formula_units_Z 4
_symmetry_space_group_name_H-M 'P b c a'
_symmetry_Int_Tables_number 61
_refine_ls_R_factor_all 0.0262
loop_
_symmetry_equiv_pos_site_id
_symmetry_equiv_pos_as_xyz
1 'x+1/2, y, -z+1/2'
2 'x, -y+1/2, z+1/2'
3 '-x+1/2, y+1/2, z'
4 '-x, -y, -z'
5 '-x+1/2, -y, z+1/2'
6 '-x, y+1/2, -z+1/2'
7 'x+1/2, -y+1/2, -z'
8 'x, y, z'
loop_
_atom_type_symbol
_atom_type_oxidation_number
Sr2+ 2
Cr5+ 5
N3- -3
Li1+ 1
loop_
_atom_site_label
_atom_site_type_symbol
_atom_site_symmetry_multiplicity
_atom_site_Wyckoff_symbol
_atom_site_fract_x
_atom_site_fract_y
_atom_site_fract_z
_atom_site_B_iso_or_equiv
_atom_site_occupancy
_atom_site_attached_hydrogens
Sr1 Sr2+ 8 c 0.30787(2) 0.08560(3) 0.41831(2) 0.00873(6) 1. 0
Cr2 Cr5+ 8 c -.04778(4) 0.10639(5) 0.41751(4) 0.00546(7) 1. 0
N1 N3- 8 c -.0682(2) 0.1022(3) 0.5967(2) 0.0079(3) 1. 0
N2 N3- 8 c -.2168(2) 0.0778(4) 0.3444(2) 0.0110(4) 1. 0
N3 N3- 8 c 0.0491(3) 0.2946(3) 0.3750(2) 0.0105(4) 1. 0
Li1 Li1+ 8 c -.1181(6) 0.0961(8) 0.7799(5) 0.0154(9) 1. 0
Li2 Li1+ 8 c 0.1198(6) 0.2885(8) 0.1837(6) 0.0171(10) 1. 0
loop_
_atom_site_aniso_label
_atom_site_aniso_type_symbol
_atom_site_aniso_U_11
_atom_site_aniso_U_22
_atom_site_aniso_U_33
_atom_site_aniso_U_12
_atom_site_aniso_U_13
_atom_site_aniso_U_23
Sr1 Sr2+ 0.00808(9) 0.00682(8) 0.01129(9) -0.00097(6) 0.00026(8) -0.00061(8)
Cr2 Cr5+ 0.00568(14) 0.00503(14) 0.00566(13) 0.00020(11) -0.00003(13)
0.00032(12)
N1 N3- 0.0085(7) 0.0071(7) 0.0082(8) 0.0015(6) 0.0001(7) 0.0004(6)
N2 N3- 0.0079(8) 0.0142(9) 0.0111(9) 0.0017(8) -0.0026(6) -0.0004(7)
N3 N3- 0.0100(9) 0.0088(8) 0.0127(9) -0.0036(8) -0.0022(7) 0.0038(7)
Li1 Li1+ 0.011(2) 0.024(3) 0.012(2) -0.006(2) 0.0000(17) -0.0002(19)
Li2 Li1+ 0.014(2) 0.017(2) 0.020(2) 0.002(2) 0.002(2) 0.003(2)
#End of TTdata_412247-ICSD