
#(C) 2017 by FIZ Karlsruhe - Leibniz Institute for Information Infrastructure.  All rights reserved.
data_412730-ICSD
_database_code_ICSD 412730
_audit_creation_date 2003-10-01
_chemical_name_systematic 'Tetralithium trihydroxide bromide'
_chemical_formula_structural 'Li4 (O H)3 Br'
_chemical_formula_sum 'H3 Br1 Li4 O3'
_chemical_name_structure_type Li4Cl(OH)3
_exptl_crystal_density_diffrn 1.96
_publ_section_title
'Die Kristallstrukturen der Hydroxyhalogenide Li4 (O H)3 Br und Li4 (O H)3 I'
loop_
_citation_id
_citation_journal_full
_citation_year
_citation_journal_volume
_citation_page_first
_citation_page_last
_citation_journal_id_ASTM
primary 'Zeitschrift fuer Anorganische und Allgemeine Chemie (1950) (DE)' 2003
629 317 320 ZAACAB
loop_
_publ_author_name
'Hoennerscheid, A.'
'Nuss, J.'
'Muehle, C.'
'Jansen, M.'
_cell_length_a 5.4541(1)
_cell_length_b 7.5813(1)
_cell_length_c 6.5020(1)
_cell_angle_alpha 90.
_cell_angle_beta 93.82(1)
_cell_angle_gamma 90.
_cell_volume 268.25
_cell_formula_units_Z 2
_symmetry_space_group_name_H-M 'P 1 21/m 1'
_symmetry_Int_Tables_number 11
_refine_ls_R_factor_all 0.081
loop_
_symmetry_equiv_pos_site_id
_symmetry_equiv_pos_as_xyz
1 'x, -y+1/2, z'
2 '-x, -y, -z'
3 '-x, y+1/2, -z'
4 'x, y, z'
loop_
_atom_type_symbol
_atom_type_oxidation_number
Li1+ 1
Br1- -1
O2- -2
H1+ 1
loop_
_atom_site_label
_atom_site_type_symbol
_atom_site_symmetry_multiplicity
_atom_site_Wyckoff_symbol
_atom_site_fract_x
_atom_site_fract_y
_atom_site_fract_z
_atom_site_B_iso_or_equiv
_atom_site_occupancy
_atom_site_attached_hydrogens
Li1 Li1+ 2 e 0.077(1) 0.25 0.913(1) 0.0210(15) 1. 0
Li2 Li1+ 2 e 0.404(1) 0.25 0.693(1) 0.0210(15) 1. 0
Li3 Li1+ 4 f 0.650(1) 0.0223(7) 0.865(9) 0.0210(15) 1. 0
Br1 Br1- 2 e 0.1760(1) 0.25 0.3306(1) 0.0282(2) 1. 0
O1 O2- 2 e 0.7487(1) 0.25 0.77002(4) 0.0250(11) 1. 0
O2 O2- 4 f 0.2929(3) 0.0561(2) 0.8519(3) 0.0202(8) 1. 0
H1 H1+ 2 e 0.8125 0.25 0.6543 0.038 1. 0
H2 H1+ 4 f 0.7818 0.0149 0.2095 0.038 1. 0
#End of TTdata_412730-ICSD