
#(C) 2018 by FIZ Karlsruhe - Leibniz Institute for Information Infrastructure.  All rights reserved.
data_412874-ICSD
_database_code_ICSD 412874
_audit_creation_date 2004-04-01
_chemical_name_systematic 'Hexalithium distrontium hexanitridodimanganate(IV)'
_chemical_formula_structural 'Li6 Sr2 (Mn2 N6)'
_chemical_formula_sum 'Li6 Mn2 N6 Sr2'
_chemical_name_structure_type Li6Ca2Mn2N6
_exptl_crystal_density_diffrn 3.61
_cell_measurement_temperature 295.
_publ_section_title

;
Control of oxidation states of transition elements (Cr, Mn) in
nitridometallates and the solid solution series Li6 (Ca1-x Srx)2 (Mn2 N6)
;
loop_
_citation_id
_citation_journal_full
_citation_year
_citation_journal_volume
_citation_page_first
_citation_page_last
_citation_journal_id_ASTM
primary 'Zeitschrift fuer Anorganische und Allgemeine Chemie (1950) (DE)' 2003
629 923 927 ZAACAB
loop_
_publ_author_name
'Hochrein, O.'
'Hoehn, P.'
'Kniep, R.'
_cell_length_a 5.859(3)
_cell_length_b 5.859(3)
_cell_length_c 19.086(4)
_cell_angle_alpha 90.
_cell_angle_beta 90.
_cell_angle_gamma 120.
_cell_volume 567.4
_cell_formula_units_Z 3
_symmetry_space_group_name_H-M 'R -3 H'
_symmetry_Int_Tables_number 148
_refine_ls_R_factor_all 0.0414
loop_
_symmetry_equiv_pos_site_id
_symmetry_equiv_pos_as_xyz
1 'x-y, x, -z'
2 'y, -x+y, -z'
3 '-x, -y, -z'
4 '-x+y, -x, z'
5 '-y, x-y, z'
6 'x, y, z'
7 'x-y+2/3, x+1/3, -z+1/3'
8 'y+2/3, -x+y+1/3, -z+1/3'
9 '-x+2/3, -y+1/3, -z+1/3'
10 '-x+y+2/3, -x+1/3, z+1/3'
11 '-y+2/3, x-y+1/3, z+1/3'
12 'x+2/3, y+1/3, z+1/3'
13 'x-y+1/3, x+2/3, -z+2/3'
14 'y+1/3, -x+y+2/3, -z+2/3'
15 '-x+1/3, -y+2/3, -z+2/3'
16 '-x+y+1/3, -x+2/3, z+2/3'
17 '-y+1/3, x-y+2/3, z+2/3'
18 'x+1/3, y+2/3, z+2/3'
loop_
_atom_type_symbol
_atom_type_oxidation_number
Sr2+ 2
Mn4+ 4
Li1+ 1
N3- -3
loop_
_atom_site_label
_atom_site_type_symbol
_atom_site_symmetry_multiplicity
_atom_site_Wyckoff_symbol
_atom_site_fract_x
_atom_site_fract_y
_atom_site_fract_z
_atom_site_B_iso_or_equiv
_atom_site_occupancy
_atom_site_attached_hydrogens
Sr1 Sr2+ 6 c 0 0 0.33731(2) 0.0110(3) 1. 0
Mn1 Mn4+ 6 c 0 0 0.06643(4) 0.0081(4) 1. 0
Li1 Li1+ 18 f 0.3656(11) 0.3923(13) 0.8693(4) 0.0141(10) 1. 0
N1 N3- 18 f 0.2974(5) 0.0049(5) 0.91027(16) 0.0105(6) 1. 0
loop_
_atom_site_aniso_label
_atom_site_aniso_type_symbol
_atom_site_aniso_U_11
_atom_site_aniso_U_22
_atom_site_aniso_U_33
_atom_site_aniso_U_12
_atom_site_aniso_U_13
_atom_site_aniso_U_23
Sr1 Sr2+ 0.0125(4) 0.0125(4) 0.0080(5) 0.00623(19) 0 0
Mn1 Mn4+ 0.0091(4) 0.0091(4) 0.0060(5) 0.0046(2) 0 0
Li1 Li1+ 0.013(2) 0.014(2) 0.013(2) 0.004(2) 0.001(2) -0.001(3)
N1 N3- 0.0118(11) 0.0127(13) 0.0070(13) 0.0061(10) 0.0001(10) 0.0001(9)
#End of TTdata_412874-ICSD