
#(C) 2018 by FIZ Karlsruhe - Leibniz Institute for Information Infrastructure.  All rights reserved.
data_413367-ICSD
_database_code_ICSD 413367
_audit_creation_date 2005-04-01
_chemical_name_systematic
'Hexa-mue-aqua-hexaaquatrilithium hexachlororuthenate(III)'
_chemical_formula_structural '(Li3 (H2 O)12) (Ru Cl6)'
_chemical_formula_sum 'H24 Cl6 Li3 O12 Ru1'
_exptl_crystal_density_diffrn 1.92
_publ_section_title

;
A novel ruthenium(III) and lithium complex: synthesis, crystal structure and
magnetic properties
;
loop_
_citation_id
_citation_journal_full
_citation_year
_citation_journal_volume
_citation_page_first
_citation_page_last
_citation_journal_id_ASTM
primary 'Zeitschrift fuer Anorganische und Allgemeine Chemie (1950) (DE)' 2004
630 1143 1146 ZAACAB
loop_
_publ_author_name
'Bai, L.-X.'
'Wang, W.-Z.'
'Liao, D.-Z.'
'Wang, Q.-L.'
_cell_length_a 9.948(2)
_cell_length_b 9.948(2)
_cell_length_c 33.376(14)
_cell_angle_alpha 90.
_cell_angle_beta 90.
_cell_angle_gamma 120.
_cell_volume 2860.46
_cell_formula_units_Z 6
_symmetry_space_group_name_H-M 'R -3 c H'
_symmetry_Int_Tables_number 167
_refine_ls_R_factor_all 0.0244
loop_
_symmetry_equiv_pos_site_id
_symmetry_equiv_pos_as_xyz
1 'x-y, -y, -z+1/2'
2 '-x, -x+y, -z+1/2'
3 'y, x, -z+1/2'
4 'x-y, x, -z'
5 'y, -x+y, -z'
6 '-x, -y, -z'
7 '-x+y, y, z+1/2'
8 'x, x-y, z+1/2'
9 '-y, -x, z+1/2'
10 '-x+y, -x, z'
11 '-y, x-y, z'
12 'x, y, z'
13 'x-y+2/3, -y+1/3, -z+5/6'
14 '-x+2/3, -x+y+1/3, -z+5/6'
15 'y+2/3, x+1/3, -z+5/6'
16 'x-y+2/3, x+1/3, -z+1/3'
17 'y+2/3, -x+y+1/3, -z+1/3'
18 '-x+2/3, -y+1/3, -z+1/3'
19 '-x+y+2/3, y+1/3, z+5/6'
20 'x+2/3, x-y+1/3, z+5/6'
21 '-y+2/3, -x+1/3, z+5/6'
22 '-x+y+2/3, -x+1/3, z+1/3'
23 '-y+2/3, x-y+1/3, z+1/3'
24 'x+2/3, y+1/3, z+1/3'
25 'x-y+1/3, -y+2/3, -z+1/6'
26 '-x+1/3, -x+y+2/3, -z+1/6'
27 'y+1/3, x+2/3, -z+1/6'
28 'x-y+1/3, x+2/3, -z+2/3'
29 'y+1/3, -x+y+2/3, -z+2/3'
30 '-x+1/3, -y+2/3, -z+2/3'
31 '-x+y+1/3, y+2/3, z+1/6'
32 'x+1/3, x-y+2/3, z+1/6'
33 '-y+1/3, -x+2/3, z+1/6'
34 '-x+y+1/3, -x+2/3, z+2/3'
35 '-y+1/3, x-y+2/3, z+2/3'
36 'x+1/3, y+2/3, z+2/3'
loop_
_atom_type_symbol
_atom_type_oxidation_number
Ru3+ 3
Cl1- -1
O2- -2
H1+ 1
O2- -2
H1+ 1
Li1+ 1
loop_
_atom_site_label
_atom_site_type_symbol
_atom_site_symmetry_multiplicity
_atom_site_Wyckoff_symbol
_atom_site_fract_x
_atom_site_fract_y
_atom_site_fract_z
_atom_site_B_iso_or_equiv
_atom_site_occupancy
_atom_site_attached_hydrogens
Ru1 Ru3+ 6 b 0. 0. 1. 0.01864(16) 1 0
Cl1 Cl1- 36 f 0.15477(6) 0.21648(6) 0.958302(12) 0.03106(18) 1 0
O1 O2- 36 f 0.18265(18) 0.71303(18) 1.03879(4) 0.0408(4) 1 0
H1 H1+ 36 f 0.1775 0.7874 1.0297 0.049 1 0
H2 H1+ 36 f 0.2153 0.7185 1.0617 0.049 1 0
O2 O2- 36 f 0.43836(16) 0.58229(16) 0.95864(5) 0.0394(4) 1 0
H3 H1+ 36 f 0.3833 0.4894 0.9635 0.047 1 0
H4 H1+ 36 f 0.5331 0.6214 0.9593 0.047 1 0
Li1 Li1+ 12 c 0.3333 0.6667 1.00355(19) 0.0388(16) 1 0
Li2 Li1+ 6 a 0.3333 0.6667 0.9167 0.042(2) 1 0
loop_
_atom_site_aniso_label
_atom_site_aniso_type_symbol
_atom_site_aniso_U_11
_atom_site_aniso_U_22
_atom_site_aniso_U_33
_atom_site_aniso_U_12
_atom_site_aniso_U_13
_atom_site_aniso_U_23
Ru1 Ru3+ 0.01956(19) 0.01956(19) 0.0168(2) 0.00978(9) 0. 0.
Cl1 Cl1- 0.0333(3) 0.0255(3) 0.0282(2) 0.0101(2) 0.00458(19) 0.00646(18)
O1 O2- 0.0537(10) 0.0469(10) 0.0319(7) 0.0328(8) -0.0057(7) -0.0002(6)
O2 O2- 0.0371(9) 0.0416(9) 0.0409(8) 0.0208(8) 0.0044(6) 0.0051(6)
Li1 Li1+ 0.045(3) 0.045(3) 0.027(3) 0.0223(13) 0. 0.
Li2 Li1+ 0.050(4) 0.050(4) 0.027(4) 0.0249(18) 0. 0.
#End of TTdata_413367-ICSD