
#(C) 2018 by FIZ Karlsruhe - Leibniz Institute for Information Infrastructure.  All rights reserved.
data_413716-ICSD
_database_code_ICSD 413716
_audit_creation_date 2006-10-01
_audit_update_record 2007-08-01
_chemical_name_systematic
'Tetrarubidium lithium trihydrogen tetrakis(selenate(VI))'
_chemical_formula_structural 'Rb4 Li H3 (Se O4)4'
_chemical_formula_sum 'H3 Li1 O16 Rb4 Se4'
_chemical_name_structure_type K4LiH3(SO4)4
_exptl_crystal_density_diffrn 3.33
_cell_measurement_temperature 180.
_publ_section_title

;
X-ray and neutron diffraction studies of Rb4 Li H3 (X O4)4 (X = S, Se) single
crystals
;
loop_
_citation_id
_citation_journal_full
_citation_year
_citation_journal_volume
_citation_page_first
_citation_page_last
_citation_journal_id_ASTM
primary Kristallografiya 2004 49 1066 1072 KRISAJ
loop_
_publ_author_name
'Troyanov, S.I.'
'Snigireva, E.M.'
'Ling, C.-D.'
_cell_length_a 7.8180(10)
_cell_length_b 7.8180(10)
_cell_length_c 30.174(6)
_cell_angle_alpha 90.
_cell_angle_beta 90.
_cell_angle_gamma 90.
_cell_volume 1844.27
_cell_formula_units_Z 4
_symmetry_space_group_name_H-M 'P 41'
_symmetry_Int_Tables_number 76
_refine_ls_R_factor_all 0.0445
loop_
_symmetry_equiv_pos_site_id
_symmetry_equiv_pos_as_xyz
1 'y, -x, z+3/4'
2 '-y, x, z+1/4'
3 '-x, -y, z+1/2'
4 'x, y, z'
loop_
_atom_type_symbol
_atom_type_oxidation_number
Rb1+ 1
Se6+ 6
O2- -2
H1+ 1
O2- -2
H1+ 1
O2- -2
H1+ 1
Li1+ 1
loop_
_atom_site_label
_atom_site_type_symbol
_atom_site_symmetry_multiplicity
_atom_site_Wyckoff_symbol
_atom_site_fract_x
_atom_site_fract_y
_atom_site_fract_z
_atom_site_B_iso_or_equiv
_atom_site_occupancy
_atom_site_attached_hydrogens
Rb1 Rb1+ 4 a 0.58054(13) 1.61017(13) 0.77341(3) 0.0198(2) 1 0
Rb2 Rb1+ 4 a 0.86767(13) 1.11322(13) 0.78727(3) 0.0216(2) 1 0
Rb3 Rb1+ 4 a -0.02619(13) 1.48830(13) 0.91107(3) 0.0209(2) 1 0
Rb4 Rb1+ 4 a -0.00234(13) 1.73577(14) 0.67133(3) 0.0202(2) 1 0
Se1 Se6+ 4 a 0.79917(13) .97686(13) 0.90944(3) 0.0155(2) 1 0
Se2 Se6+ 4 a 0.46854(13) 1.50963(14) 0.90612(3) 0.0158(2) 1 0
Se3 Se6+ 4 a 0.37799(14) 1.08784(13) 0.78727(3) 0.0157(2) 1 0
Se4 Se6+ 4 a 0.04841(13) 0.62136(13) 0.78961(3) 0.0147(2) 1 0
O1 O2- 4 a 0.9113(11) 1.8390(11) 0.9359(2) 0.0252(18) 1 0
O2 O2- 4 a 0.9096(10) .1358(10) 0.8910(3) 0.0248(18) 1 0
O3 O2- 4 a 0.6280(10) .0303(11) 0.9372(2) 0.0281(19) 1 0
O4 O2- 4 a 0.7264(12) 1.8864(12) 0.8618(3) 0.034(2) 1 0
H1 H1+ 4 a 0.684(19) 1.80(2) 0.863(5) 0.041 1 0
O5 O2- 4 a 0.3249(11) 1.6298(11) 0.9280(2) 0.0262(18) 1 0
O6 O2- 4 a 0.6044(10) 1.4476(10) 0.9437(2) 0.0215(16) 1 0
O7 O2- 4 a 0.5766(12) 1.6033(10) 0.8662(2) 0.033(2) 1 0
O8 O2- 4 a 0.3709(10) 1.3407(10) 0.8838(2) 0.0251(18) 1 0
O9 O2- 4 a 0.5197(11) 0.9770(11) 0.7618(2) 0.0273(19) 1 0
O10 O2- 4 a 0.2317(11) 1.1563(11) 0.7536(3) 0.0310(19) 1 0
O11 O2- 4 a 0.4807(10) 1.2552(10) 0.8098(2) 0.0236(18) 1 0
H2 H1+ 4 a 0.411(16) 1.304(16) 0.843(4) 0.028 1 0
O12 O2- 4 a 0.2881(13) 0.9868(11) 0.8278(2) 0.042(3) 1 0
O13 O2- 4 a -0.0555(10) 0.4578(10) 0.8075(2) 0.0255(18) 1 0
O14 O2- 4 a -0.0722(10) 0.7633(9) 0.7660(2) 0.0203(16) 1 0
O15 O2- 4 a 0.2101(10) 0.5759(10) 0.7583(2) 0.0232(18) 1 0
O16 O2- 4 a 0.1323(11) 0.7064(11) 0.8369(2) 0.028(2) 1 0
H3 H1+ 4 a 0.155(17) 0.80(2) 0.830(4) 0.034 1 0
Li1 Li1+ 4 a 0.234(2) 0.374(2) 0.7237(6) 0.018(3) 1 0
loop_
_atom_site_aniso_label
_atom_site_aniso_type_symbol
_atom_site_aniso_U_11
_atom_site_aniso_U_22
_atom_site_aniso_U_33
_atom_site_aniso_U_12
_atom_site_aniso_U_13
_atom_site_aniso_U_23
Rb1 Rb1+ 0.0195(5) 0.0257(6) 0.0143(4) -0.0028(4) -0.0012(4) 0.0020(4)
Rb2 Rb1+ 0.0254(6) 0.0172(5) 0.0222(4) -0.0025(4) 0.0020(4) -0.0020(4)
Rb3 Rb1+ 0.0249(6) 0.0174(5) 0.0205(4) -0.0022(4) 0.0012(4) -0.0017(4)
Rb4 Rb1+ 0.0253(6) 0.0198(5) 0.0154(4) 0.0018(4) 0.0032(4) 0.0007(4)
Se1 Se6+ 0.0168(5) 0.0138(5) 0.0161(4) -0.0016(4) 0.0001(4) -0.0021(4)
Se2 Se6+ 0.0220(6) 0.0137(5) 0.0115(4) -0.0039(4) 0.0019(4) -0.0011(4)
Se3 Se6+ 0.0213(6) 0.0137(5) 0.0121(4) -0.0033(4) 0.0015(4) -0.0007(4)
Se4 Se6+ 0.0164(5) 0.0142(5) 0.0134(4) -0.0023(4) -0.0003(4) -0.0003(3)
O1 O2- 0.022(4) 0.028(5) 0.026(4) 0.003(4) -0.006(3) 0.004(3)
O2 O2- 0.021(5) 0.019(4) 0.034(4) -0.009(3) 0.004(3) 0.004(3)
O3 O2- 0.013(4) 0.031(5) 0.040(4) 0.000(3) 0.008(3) -0.013(4)
O4 O2- 0.050(6) 0.032(5) 0.022(4) -0.015(5) -0.003(3) 0.001(3)
O5 O2- 0.026(4) 0.034(5) 0.018(3) 0.009(4) -0.001(3) -0.005(3)
O6 O2- 0.020(4) 0.021(4) 0.024(3) 0.004(3) -0.001(3) -0.002(3)
O7 O2- 0.056(6) 0.030(5) 0.013(3) -0.025(4) 0.007(3) -0.004(3)
O8 O2- 0.036(5) 0.020(4) 0.020(3) -0.008(3) 0.000(3) -0.004(3)
O9 O2- 0.030(5) 0.026(5) 0.025(4) 0.010(4) 0.006(3) -0.014(3)
O10 O2- 0.022(4) 0.028(5) 0.042(4) 0.002(4) -0.009(3) 0.006(3)
O11 O2- 0.029(5) 0.021(4) 0.021(3) -0.015(3) 0.004(3) -0.007(3)
O12 O2- 0.076(7) 0.037(5) 0.011(3) -0.039(5) 0.006(4) 0.001(3)
O13 O2- 0.027(4) 0.018(4) 0.031(4) -0.009(3) 0.004(3) 0.004(3)
O14 O2- 0.020(4) 0.017(4) 0.024(3) 0.001(3) -0.006(3) 0.003(3)
O15 O2- 0.020(4) 0.017(4) 0.033(4) -0.002(3) 0.006(3) -0.012(3)
O16 O2- 0.047(6) 0.026(5) 0.011(4) -0.023(4) -0.007(3) 0.004(3)
Li1 Li1+ 0.013(10) 0.022(11) 0.017(6) -0.001(9) -0.002(6) -0.009(6)
#End of TTdata_413716-ICSD