
#(C) 2018 by FIZ Karlsruhe - Leibniz Institute for Information Infrastructure.  All rights reserved.
data_414150-ICSD
_database_code_ICSD 414150
_audit_creation_date 2005-10-01
_audit_update_record 2007-08-01
_chemical_name_systematic 'Dineodymium lithium iridate(V)'
_chemical_formula_structural 'Nd2 Li (Ir O6)'
_chemical_formula_sum 'Ir1 Li1 Nd2 O6'
_chemical_name_structure_type Perovskite-Na3AlF6
_exptl_crystal_density_diffrn 8.09
_cell_measurement_temperature 294.
_publ_section_title
'Crystal growth and magnetic properties of Ln2 Li Ir O6 (Ln = Pr, Nd, Sm, Eu)'
loop_
_citation_id
_citation_journal_full
_citation_year
_citation_journal_volume
_citation_page_first
_citation_page_last
_citation_journal_id_ASTM
primary 'Journal of Solid State Chemistry' 2005 178 200 206 JSSCBI
loop_
_publ_author_name
'Mugavero, S.J.'
'Smith, M.D.'
'zur Loye, H.C.'
_cell_length_a 5.4290(2)
_cell_length_b 5.7412(2)
_cell_length_c 7.7040(3)
_cell_angle_alpha 90.
_cell_angle_beta 90.5430(10)
_cell_angle_gamma 90.
_cell_volume 240.11
_cell_formula_units_Z 2
_symmetry_space_group_name_H-M 'P 1 21/n 1'
_symmetry_Int_Tables_number 14
_refine_ls_R_factor_all 0.0278
loop_
_symmetry_equiv_pos_site_id
_symmetry_equiv_pos_as_xyz
1 '-x+1/2, y+1/2, -z+1/2'
2 '-x, -y, -z'
3 'x+1/2, -y+1/2, z+1/2'
4 'x, y, z'
loop_
_atom_type_symbol
_atom_type_oxidation_number
Nd3+ 3
Li1+ 1
Ir5+ 5
O2- -2
loop_
_atom_site_label
_atom_site_type_symbol
_atom_site_symmetry_multiplicity
_atom_site_Wyckoff_symbol
_atom_site_fract_x
_atom_site_fract_y
_atom_site_fract_z
_atom_site_B_iso_or_equiv
_atom_site_occupancy
_atom_site_attached_hydrogens
Nd1 Nd3+ 4 e 0.48444(5) 0.06711(5) 0.25131(4) 0.00648(9) 1 0
Li1 Li1+ 2 a 0. 0. 0. 0.014(3) 1 0
Ir1 Ir5+ 2 b 0.5 0.5 0. 0.00442(9) 1 0
O1 O2- 4 e 0.2031(8) 0.3118(8) 0.0467(6) 0.0075(7) 1 0
O2 O2- 4 e 0.5937(8) 0.4723(7) 0.2457(6) 0.0076(7) 1 0
O3 O2- 4 e 0.3181(8) 0.7890(8) 0.0510(6) 0.0081(7) 1 0
loop_
_atom_site_aniso_label
_atom_site_aniso_type_symbol
_atom_site_aniso_U_11
_atom_site_aniso_U_22
_atom_site_aniso_U_33
_atom_site_aniso_U_12
_atom_site_aniso_U_13
_atom_site_aniso_U_23
Nd1 Nd3+ 0.00704(14) 0.00651(15) 0.00588(14) -0.00055(9) 0.00003(9) 0.00052(10)
Li1 Li1+ 0.010(8) 0.014(8) 0.018(9) 0.001(5) -0.002(6) 0.002(6)
Ir1 Ir5+ 0.00417(14) 0.00509(15) 0.00398(14) -0.00007(8) 0.00026(9) 0.00014(9)
O1 O2- 0.0082(17) 0.0070(17) 0.0074(17) -0.0012(14) 0.0018(13) 0.0002(14)
O2 O2- 0.0078(18) 0.0070(18) 0.0081(18) -0.0002(14) -0.0006(14) 0.0001(14)
O3 O2- 0.0088(18) 0.0052(16) 0.0102(18) 0.0014(14) -0.0006(13) -0.0014(15)
#End of TTdata_414150-ICSD