
#(C) 2018 by FIZ Karlsruhe - Leibniz Institute for Information Infrastructure.  All rights reserved.
data_414149-ICSD
_database_code_ICSD 414149
_audit_creation_date 2005-10-01
_chemical_name_systematic 'Praseodymium lithium iridate'
_chemical_formula_structural 'Pr2 Li Ir O6'
_chemical_formula_sum 'Ir1 Li1 O6 Pr2'
_chemical_name_structure_type Perovskite-Na3AlF6
_exptl_crystal_density_diffrn 7.94
_cell_measurement_temperature 294.
_publ_section_title
'Crystal growth and magnetic properties of Ln2 Li Ir O6 (Ln = Pr, Nd, Sm, Eu)'
loop_
_citation_id
_citation_journal_full
_citation_year
_citation_journal_volume
_citation_page_first
_citation_page_last
_citation_journal_id_ASTM
primary 'Journal of Solid State Chemistry' 2005 178 200 206 JSSCBI
loop_
_publ_author_name
'Mugavero, S.J.'
'Smith, M.D.'
'zur Loye, H.C.'
_cell_length_a 5.4593(3)
_cell_length_b 5.7219(3)
_cell_length_c 7.7350(4)
_cell_angle_alpha 90.
_cell_angle_beta 90.222(2)
_cell_angle_gamma 90.
_cell_volume 241.62
_cell_formula_units_Z 2
_symmetry_space_group_name_H-M 'P 1 21/n 1'
_symmetry_Int_Tables_number 14
_refine_ls_R_factor_all 0.0318
loop_
_symmetry_equiv_pos_site_id
_symmetry_equiv_pos_as_xyz
1 '-x+1/2, y+1/2, -z+1/2'
2 '-x, -y, -z'
3 'x+1/2, -y+1/2, z+1/2'
4 'x, y, z'
loop_
_atom_type_symbol
_atom_type_oxidation_number
Pr3+ 3
Li1+ 1
Ir5+ 5
O2- -2
loop_
_atom_site_label
_atom_site_type_symbol
_atom_site_symmetry_multiplicity
_atom_site_Wyckoff_symbol
_atom_site_fract_x
_atom_site_fract_y
_atom_site_fract_z
_atom_site_B_iso_or_equiv
_atom_site_occupancy
_atom_site_attached_hydrogens
Pr1 Pr3+ 4 e 0.48609(8) 0.06283(7) 0.25112(6) 0.00572(12) 1 0
Li1 Li1+ 2 a 0. 0. 0. 0.01 1 0
Ir1 Ir5+ 2 b 0.5 0.5 0. 0.00352(11) 1 0
O1 O2- 4 e 0.2064(12) 0.3115(12) 0.0449(8) 0.0074(11) 1 0
O2 O2- 4 e 0.5903(11) 0.4740(11) 0.2453(9) 0.0073(10) 1 0
O3 O2- 4 e 0.3154(11) 0.7870(12) 0.0485(8) 0.0056(10) 1 0
loop_
_atom_site_aniso_label
_atom_site_aniso_type_symbol
_atom_site_aniso_U_11
_atom_site_aniso_U_22
_atom_site_aniso_U_33
_atom_site_aniso_U_12
_atom_site_aniso_U_13
_atom_site_aniso_U_23
Pr1 Pr3+ 0.00724(18) 0.00394(19) 0.00597(17) -0.00044(14) 0.00049(18)
0.00075(13)
Ir1 Ir5+ 0.00490(17) 0.00174(18) 0.00393(16) -0.00014(11) 0.00138(18)
-0.00005(12)
#End of TTdata_414149-ICSD