
#(C) 2018 by FIZ Karlsruhe - Leibniz Institute for Information Infrastructure.  All rights reserved.
data_414188-ICSD
_database_code_ICSD 414188
_audit_creation_date 2005-10-01
_chemical_name_systematic 'Dirubidium lithium thiotantalate'
_chemical_formula_structural 'Rb2 Li Ta S4'
_chemical_formula_sum 'Li1 Rb2 S4 Ta1'
_chemical_name_structure_type Rb2LiNbS4
_exptl_crystal_density_diffrn 3.61
_cell_measurement_temperature 153.
_publ_section_title

;
Syntheses and structures of six compounds in the A2 Li M S4 (A = K, Rb, Cs; M
= V, Nb, Ta) family
;
loop_
_citation_id
_citation_journal_full
_citation_year
_citation_journal_volume
_citation_page_first
_citation_page_last
_citation_journal_id_ASTM
primary 'Journal of Solid State Chemistry' 2005 178 194 199 JSSCBI
loop_
_publ_author_name
'Huang, F.-Q.'
'Deng, B.'
'Ibers, J.A.'
_cell_length_a 7.0452(5)
_cell_length_b 11.3929(9)
_cell_length_c 11.8205(9)
_cell_angle_alpha 71.7470(10)
_cell_angle_beta 87.7660(10)
_cell_angle_gamma 83.6520(10)
_cell_volume 895.5
_cell_formula_units_Z 4
_symmetry_space_group_name_H-M 'P -1'
_symmetry_Int_Tables_number 2
_refine_ls_R_factor_all 0.0454
loop_
_symmetry_equiv_pos_site_id
_symmetry_equiv_pos_as_xyz
1 '-x, -y, -z'
2 'x, y, z'
loop_
_atom_type_symbol
_atom_type_oxidation_number
Rb1+ 1
Li1+ 1
Ta5+ 5
S2- -2
loop_
_atom_site_label
_atom_site_type_symbol
_atom_site_symmetry_multiplicity
_atom_site_Wyckoff_symbol
_atom_site_fract_x
_atom_site_fract_y
_atom_site_fract_z
_atom_site_B_iso_or_equiv
_atom_site_occupancy
_atom_site_attached_hydrogens
Rb1 Rb1+ 2 i 0.24860(11) 0.84507(7) 0.14373(7) 0.01577(18) 1 0
Rb2 Rb1+ 2 i 0.24902(11) 0.34911(7) 0.65126(7) 0.01530(18) 1 0
Rb3 Rb1+ 2 i 0.26594(12) 0.37590(7) 0.27703(7) 0.01829(18) 1 0
Rb4 Rb1+ 2 i 0.68300(12) 0.09757(7) 0.24961(7) 0.01933(19) 1 0
Li1 Li1+ 2 i 0.177(2) 0.0126(12) 0.4160(12) 0.018(3) 1 0
Li2 Li1+ 2 i 0.777(2) 0.4749(13) 0.0706(12) 0.021(3) 1 0
Ta1 Ta5+ 2 i 0.21665(4) 0.23006(3) 0.01356(3) 0.00971(11) 1 0
Ta2 Ta5+ 2 i 0.22436(4) 0.72668(3) 0.51384(3) 0.00933(11) 1 0
S1 S2- 2 i 0.0354(3) 0.62705(18) 0.06158(18) 0.0163(4) 1 0
S2 S2- 2 i 0.0551(3) 0.14703(18) 0.53401(18) 0.0149(4) 1 0
S3 S2- 2 i 0.1685(3) 0.11729(19) 0.20609(18) 0.0185(4) 1 0
S4 S2- 2 i 0.2533(3) 0.59758(18) 0.40177(17) 0.0151(4) 1 0
S5 S2- 2 i 0.2669(3) 0.10305(18) 0.89982(17) 0.0152(4) 1 0
S6 S2- 2 i 0.4694(3) 0.33931(18) 0.00534(19) 0.0176(4) 1 0
S7 S2- 2 i 0.5426(3) 0.14479(18) 0.53137(19) 0.0179(4) 1 0
S8 S2- 2 i 0.7629(3) 0.37900(18) 0.28900(17) 0.0162(4) 1 0
loop_
_atom_site_aniso_label
_atom_site_aniso_type_symbol
_atom_site_aniso_U_11
_atom_site_aniso_U_22
_atom_site_aniso_U_33
_atom_site_aniso_U_12
_atom_site_aniso_U_13
_atom_site_aniso_U_23
Rb1 Rb1+ 0.0178(4) 0.0126(4) 0.0163(4) -0.0020(3) -0.0005(3) -0.0034(3)
Rb2 Rb1+ 0.0191(4) 0.0119(3) 0.0143(4) -0.0012(3) -0.0016(3) -0.0032(3)
Rb3 Rb1+ 0.0196(4) 0.0187(4) 0.0202(4) 0.0018(3) -0.0035(3) -0.0121(3)
Rb4 Rb1+ 0.0229(4) 0.0181(4) 0.0196(4) 0.0037(3) -0.0057(3) -0.0110(3)
Li1 Li1+ 0.030(8) 0.007(6) 0.013(7) -0.003(6) 0.006(6) 0.002(5)
Li2 Li1+ 0.023(8) 0.021(7) 0.014(7) 0.008(6) 0.006(6) 0.001(6)
Ta1 Ta5+ 0.01162(18) 0.00918(17) 0.00884(17) -0.00077(13) -0.00035(12)
-0.00361(12)
Ta2 Ta5+ 0.01080(18) 0.00883(17) 0.00884(17) -0.00053(13) -0.00075(12)
-0.00352(12)
S1 S2- 0.0141(10) 0.0137(9) 0.0222(11) 0.0022(8) -0.0035(8) -0.0082(8)
S2 S2- 0.0119(9) 0.0141(9) 0.0201(10) 0.0007(8) -0.0037(8) -0.0077(8)
S3 S2- 0.0272(11) 0.0157(9) 0.0123(9) -0.0026(9) 0.0029(8) -0.0041(8)
S4 S2- 0.0222(11) 0.0114(9) 0.0137(9) 0.0005(8) 0.0000(8) -0.0076(7)
S5 S2- 0.0217(11) 0.0131(9) 0.0120(9) 0.0008(8) 0.0000(8) -0.0064(7)
S6 S2- 0.0134(10) 0.0146(9) 0.0257(11) -0.0040(8) 0.0009(8) -0.0067(8)
S7 S2- 0.0120(9) 0.0159(10) 0.0259(11) -0.0043(8) 0.0030(8) -0.0061(8)
S8 S2- 0.0248(11) 0.0140(9) 0.0092(9) -0.0019(8) -0.0001(8) -0.0027(7)
#End of TTdata_414188-ICSD