
#(C) 2018 by FIZ Karlsruhe - Leibniz Institute for Information Infrastructure.  All rights reserved.
data_414187-ICSD
_database_code_ICSD 414187
_audit_creation_date 2005-10-01
_chemical_name_systematic 'Dicesium lithium thioniobate'
_chemical_formula_structural 'Cs2 Li Nb S4'
_chemical_formula_sum 'Cs2 Li1 Nb1 S4'
_exptl_crystal_density_diffrn 3.38
_cell_measurement_temperature 153.
_publ_section_title

;
Syntheses and structures of six compounds in the A2 Li M S4 (A = K, Rb, Cs; M
= V, Nb, Ta) family
;
loop_
_citation_id
_citation_journal_full
_citation_year
_citation_journal_volume
_citation_page_first
_citation_page_last
_citation_journal_id_ASTM
primary 'Journal of Solid State Chemistry' 2005 178 194 199 JSSCBI
loop_
_publ_author_name
'Huang, F.-Q.'
'Deng, B.'
'Ibers, J.A.'
_cell_length_a 6.9186(8)
_cell_length_b 7.2518(8)
_cell_length_c 9.7609(11)
_cell_angle_alpha 96.650(2)
_cell_angle_beta 92.239(2)
_cell_angle_gamma 91.279(2)
_cell_volume 485.88
_cell_formula_units_Z 2
_symmetry_space_group_name_H-M 'P -1'
_symmetry_Int_Tables_number 2
_refine_ls_R_factor_all 0.0281
loop_
_symmetry_equiv_pos_site_id
_symmetry_equiv_pos_as_xyz
1 '-x, -y, -z'
2 'x, y, z'
loop_
_atom_type_symbol
_atom_type_oxidation_number
Cs1+ 1
Li1+ 1
Nb5+ 5
S2- -2
loop_
_atom_site_label
_atom_site_type_symbol
_atom_site_symmetry_multiplicity
_atom_site_Wyckoff_symbol
_atom_site_fract_x
_atom_site_fract_y
_atom_site_fract_z
_atom_site_B_iso_or_equiv
_atom_site_occupancy
_atom_site_attached_hydrogens
Cs1 Cs1+ 2 i 0.12754(4) 0.19975(3) 0.65698(3) 0.01891(9) 1 0
Cs2 Cs1+ 2 i 0.30320(3) 0.75398(3) 0.00533(3) 0.01577(8) 1 0
Li1 Li1+ 2 i 0.5985(10) 0.3198(10) 0.4310(8) 0.0209(15) 1 0
Nb1 Nb5+ 2 i 0.21664(4) 0.29151(5) 0.24869(3) 0.01018(9) 1 0
S1 S2- 2 i 0.08518(13) 0.69982(14) 0.66776(10) 0.0161(2) 1 0
S2 S2- 2 i 0.19719(13) 0.25163(14) 0.01567(10) 0.0156(2) 1 0
S3 S2- 2 i 0.37922(14) 0.05706(13) 0.33012(11) 0.0177(2) 1 0
S4 S2- 2 i 0.39620(14) 0.55635(13) 0.32244(10) 0.0156(2) 1 0
loop_
_atom_site_aniso_label
_atom_site_aniso_type_symbol
_atom_site_aniso_U_11
_atom_site_aniso_U_22
_atom_site_aniso_U_33
_atom_site_aniso_U_12
_atom_site_aniso_U_13
_atom_site_aniso_U_23
Cs1 Cs1+ 0.02554(15) 0.01795(14) 0.01273(14) -0.00262(10) -0.00022(10)
0.00064(10)
Cs2 Cs1+ 0.01262(13) 0.01823(14) 0.01609(15) 0.00047(10) -0.00075(9) 0.00088(10)
Li1 Li1+ 0.019(3) 0.022(4) 0.019(4) -0.001(3) -0.005(3) -0.003(3)
Nb1 Nb5+ 0.00988(16) 0.01106(17) 0.00915(17) 0.00069(12) 0.00008(12)
-0.00075(13)
S1 S2- 0.0127(4) 0.0206(5) 0.0151(5) 0.0012(4) 0.0038(4) 0.0010(4)
S2 S2- 0.0141(4) 0.0219(5) 0.0102(4) 0.0004(4) 0.0004(4) -0.0006(4)
S3 S2- 0.0200(5) 0.0138(5) 0.0185(5) 0.0034(4) -0.0051(4) -0.0001(4)
S4 S2- 0.0183(5) 0.0133(5) 0.0144(5) -0.0028(4) -0.0033(4) 0.0004(4)
#End of TTdata_414187-ICSD