
#(C) 2018 by FIZ Karlsruhe - Leibniz Institute for Information Infrastructure.  All rights reserved.
data_414252-ICSD
_database_code_ICSD 414252
_audit_creation_date 2005-10-01
_audit_update_record 2012-02-01
_chemical_name_systematic Dipotassium-mu-amidolithiumdiamide
_chemical_formula_structural 'K2 Li (N H2)3'
_chemical_formula_sum 'H6 K2 Li1 N3'
_chemical_name_structure_type LiK2(NH2)3
_exptl_crystal_density_diffrn 1.6
_publ_section_title

;
K2 Li (N H2)3 and K2 Na (N H2)3  - Synthesis and crystal structure of two
crystal-chemically isotypic mixed-cationic amides
;
loop_
_citation_id
_citation_journal_full
_citation_year
_citation_journal_volume
_citation_page_first
_citation_page_last
_citation_journal_id_ASTM
primary 'Journal of Solid State Chemistry' 2005 178 1241 1246 JSSCBI
loop_
_publ_author_name
'Kraus, F.'
'Korber, N.'
_cell_length_a 6.8720(5)
_cell_length_b 6.8720(5)
_cell_length_c 11.7060(10)
_cell_angle_alpha 90.
_cell_angle_beta 90.
_cell_angle_gamma 90.
_cell_volume 552.81
_cell_formula_units_Z 4
_symmetry_space_group_name_H-M 'P 42/m'
_symmetry_Int_Tables_number 84
_refine_ls_R_factor_all 0.0266
loop_
_symmetry_equiv_pos_site_id
_symmetry_equiv_pos_as_xyz
1 '-y, x, -z+1/2'
2 'y, -x, -z+1/2'
3 'x, y, -z'
4 '-x, -y, -z'
5 'y, -x, z+1/2'
6 '-y, x, z+1/2'
7 '-x, -y, z'
8 'x, y, z'
loop_
_atom_type_symbol
_atom_type_oxidation_number
N3- -3
H1+ 1
N3- -3
H1+ 1
K1+ 1
Li1+ 1
loop_
_atom_site_label
_atom_site_type_symbol
_atom_site_symmetry_multiplicity
_atom_site_Wyckoff_symbol
_atom_site_fract_x
_atom_site_fract_y
_atom_site_fract_z
_atom_site_B_iso_or_equiv
_atom_site_occupancy
_atom_site_attached_hydrogens
N1 N3- 4 j 0.6442(3) 0.2967(3) 0. 0.0177(4) 1 0
H1 H1+ 8 k 0.718(4) 0.319(4) 0.0560(19) 0.043(7) 1 0
N2 N3- 8 k 0.2007(2) 0.2832(2) 0.14839(13) 0.0164(3) 1 0
H2 H1+ 8 k 0.157(3) 0.191(3) 0.2026(19) 0.030(6) 1 0
H3 H1+ 8 k 0.097(4) 0.333(3) 0.132(2) 0.032(7) 1 0
K1 K1+ 4 i 0.5 0. 0.15304(4) 0.01397(15) 1 0
K2 K1+ 2 a 0. 0. 0. 0.01541(18) 1 0
K3 K1+ 2 f 0.5 0.5 0.25 0.01365(17) 1 0
Li1 Li1+ 4 j 0.3513(6) 0.3577(7) 0. 0.0180(9) 1 0
loop_
_atom_site_aniso_label
_atom_site_aniso_type_symbol
_atom_site_aniso_U_11
_atom_site_aniso_U_22
_atom_site_aniso_U_33
_atom_site_aniso_U_12
_atom_site_aniso_U_13
_atom_site_aniso_U_23
N1 N3- 0.0153(10) 0.0210(11) 0.0169(10) 0.0002(8) 0. 0.
N2 N3- 0.0139(7) 0.0178(7) 0.0175(7) 0.0010(6) -0.0004(6) 0.0007(6)
K1 K1+ 0.0152(3) 0.0125(2) 0.0142(2) 0.00128(18) 0. 0.
K2 K1+ 0.0144(4) 0.0138(4) 0.0180(4) -0.0026(3) 0. 0.
K3 K1+ 0.0119(2) 0.0119(2) 0.0172(4) 0. 0. 0.
Li1 Li1+ 0.014(2) 0.025(2) 0.0144(19) -0.0004(17) 0. 0.
#End of TTdata_414252-ICSD