
#(C) 2017 by FIZ Karlsruhe - Leibniz Institute for Information Infrastructure.  All rights reserved.
data_414242-ICSD
_database_code_ICSD 414242
_audit_creation_date 2006-10-01
_chemical_name_systematic 'Lithium iodide - beta'
_chemical_formula_structural 'Li I'
_chemical_formula_sum 'I1 Li1'
_chemical_name_structure_type Wurtzite-ZnS(2H)
_exptl_crystal_density_diffrn 3.45
_cell_measurement_temperature 298.
_publ_section_title

;
Existiert eine Wurtzit-Modifikation von Lithiumbromid? - Untersuchungen im
System (Li Br)/(Li I)
;
loop_
_citation_id
_citation_journal_full
_citation_year
_citation_journal_volume
_citation_page_first
_citation_page_last
_citation_journal_id_ASTM
primary 'Zeitschrift fuer Anorganische und Allgemeine Chemie (1950) (DE)' 2004
630 2697 2700 ZAACAB
loop_
_publ_author_name
'Fischer, D.'
'Mueller, A.'
'Jansen, M.'
_cell_length_a 4.514(1)
_cell_length_b 4.514(1)
_cell_length_c 7.311(2)
_cell_angle_alpha 90.
_cell_angle_beta 90.
_cell_angle_gamma 120.
_cell_volume 129.01
_cell_formula_units_Z 2
_symmetry_space_group_name_H-M 'P 63 m c'
_symmetry_Int_Tables_number 186
_refine_ls_R_factor_all 0.065
loop_
_symmetry_equiv_pos_site_id
_symmetry_equiv_pos_as_xyz
1 '-x, -x+y, z+1/2'
2 'x-y, -y, z+1/2'
3 'y, x, z+1/2'
4 'x-y, x, z+1/2'
5 'y, -x+y, z+1/2'
6 '-x, -y, z+1/2'
7 'x, x-y, z'
8 '-x+y, y, z'
9 '-y, -x, z'
10 '-x+y, -x, z'
11 '-y, x-y, z'
12 'x, y, z'
loop_
_atom_type_symbol
_atom_type_oxidation_number
Li1+ 1
I1- -1
loop_
_atom_site_label
_atom_site_type_symbol
_atom_site_symmetry_multiplicity
_atom_site_Wyckoff_symbol
_atom_site_fract_x
_atom_site_fract_y
_atom_site_fract_z
_atom_site_B_iso_or_equiv
_atom_site_occupancy
_atom_site_attached_hydrogens
Li1 Li1+ 2 b 0.3333 0.6667 0 1.8(4) 1. 0
I1 I1- 2 b 0.3333 0.6667 0.375 1.8(4) 1. 0
#End of TTdata_414242-ICSD