
#(C) 2018 by FIZ Karlsruhe - Leibniz Institute for Information Infrastructure.  All rights reserved.
data_414558-ICSD
_database_code_ICSD 414558
_audit_creation_date 2005-10-01
_chemical_name_systematic 'Lithium tetracyanoborate'
_chemical_formula_structural 'Li (B (C N)4)'
_chemical_formula_sum 'C4 B1 Li1 N4'
_chemical_name_structure_type Zn(CN)2
_exptl_crystal_density_diffrn 1.23
_publ_section_title

;
Tetracyanoborate salts M [B (C N)4] with M = singly charged cations:
properties and structures
;
loop_
_citation_id
_citation_journal_full
_citation_year
_citation_journal_volume
_citation_page_first
_citation_page_last
_citation_journal_id_ASTM
primary 'Inorganic Chemistry' 2005 44 1015 1022 INOCAJ
loop_
_publ_author_name
'Kueppers, T.'
'Bernhardt, E.'
'Willner, H.'
'Rohm, H.W.'
'Koeckerling, M.'
_cell_length_a 5.48150(10)
_cell_length_b 5.48150(10)
_cell_length_c 5.48150(10)
_cell_angle_alpha 90.
_cell_angle_beta 90.
_cell_angle_gamma 90.
_cell_volume 164.7
_cell_formula_units_Z 1
_symmetry_space_group_name_H-M 'P -4 3 m'
_symmetry_Int_Tables_number 215
_refine_ls_R_factor_all 0.0482
loop_
_symmetry_equiv_pos_site_id
_symmetry_equiv_pos_as_xyz
1 '-z, -y, x'
2 '-y, -x, z'
3 '-x, -z, y'
4 '-z, -x, y'
5 '-y, -z, x'
6 '-x, -y, z'
7 '-z, y, -x'
8 '-y, x, -z'
9 '-x, z, -y'
10 '-z, x, -y'
11 '-y, z, -x'
12 '-x, y, -z'
13 'z, -y, -x'
14 'y, -x, -z'
15 'x, -z, -y'
16 'z, -x, -y'
17 'y, -z, -x'
18 'x, -y, -z'
19 'z, y, x'
20 'y, x, z'
21 'x, z, y'
22 'z, x, y'
23 'y, z, x'
24 'x, y, z'
loop_
_atom_type_symbol
_atom_type_oxidation_number
Li1+ 1
B3+ 3
C2+ 2
N3- -3
loop_
_atom_site_label
_atom_site_type_symbol
_atom_site_symmetry_multiplicity
_atom_site_Wyckoff_symbol
_atom_site_fract_x
_atom_site_fract_y
_atom_site_fract_z
_atom_site_B_iso_or_equiv
_atom_site_occupancy
_atom_site_attached_hydrogens
Li1 Li1+ 1 b 0.5 0.5 0.5 0.0362(6) 1 0
B1 B3+ 1 a 1. 0. 0. 0.0305(3) 1 0
C1 C2+ 4 e 0.83314(9) 0.16686(9) 0.16686(9) 0.0359(2) 1 0
N1 N3- 4 e 0.71290(8) 0.28710(8) 0.28710(8) 0.0479(3) 1 0
loop_
_atom_site_aniso_label
_atom_site_aniso_type_symbol
_atom_site_aniso_U_11
_atom_site_aniso_U_22
_atom_site_aniso_U_33
_atom_site_aniso_U_12
_atom_site_aniso_U_13
_atom_site_aniso_U_23
Li1 Li1+ 0.0362(6) 0.0362(6) 0.0362(6) 0. 0. 0.
B1 B3+ 0.0305(3) 0.0305(3) 0.0305(3) 0. 0. 0.
C1 C2+ 0.0359(2) 0.0359(2) 0.0359(2) 0.00309(13) 0.00309(13) -0.00309(13)
N1 N3- 0.0479(3) 0.0479(3) 0.0479(3) 0.00859(17) 0.00859(17) -0.00859(17)
#End of TTdata_414558-ICSD