
#(C) 2018 by FIZ Karlsruhe - Leibniz Institute for Information Infrastructure.  All rights reserved.
data_414605-ICSD
_database_code_ICSD 414605
_audit_creation_date 2005-10-01
_chemical_name_systematic 'Lanthanum lithium iridate'
_chemical_formula_structural 'La2 Li Ir O6'
_chemical_formula_sum 'Ir1 La2 Li1 O6'
_chemical_name_structure_type Perovskite-Na3AlF6
_exptl_crystal_density_diffrn 7.76
_cell_measurement_temperature 294.
_publ_section_title
'Crystal growth and magnetic properties of Ln2 Li Ir O6 (Ln = Pr, Nd, Sm, Eu)'
loop_
_citation_id
_citation_journal_full
_citation_year
_citation_journal_volume
_citation_page_first
_citation_page_last
_citation_journal_id_ASTM
primary 'Journal of Solid State Chemistry' 2005 178 200 206 JSSCBI
loop_
_publ_author_name
'Mugavero, S.J.'
'Smith, M.D.'
'zur Loye, H.C.'
_cell_length_a 5.5536(3)
_cell_length_b 5.6355(3)
_cell_length_c 7.8528(4)
_cell_angle_alpha 90.
_cell_angle_beta 90.177(2)
_cell_angle_gamma 90.
_cell_volume 245.77
_cell_formula_units_Z 2
_symmetry_space_group_name_H-M 'P 1 21/n 1'
_symmetry_Int_Tables_number 14
_refine_ls_R_factor_all 0.047
loop_
_symmetry_equiv_pos_site_id
_symmetry_equiv_pos_as_xyz
1 '-x+1/2, y+1/2, -z+1/2'
2 '-x, -y, -z'
3 'x+1/2, -y+1/2, z+1/2'
4 'x, y, z'
loop_
_atom_type_symbol
_atom_type_oxidation_number
La3+ 3
Li1+ 1
Ir5+ 5
O2- -2
loop_
_atom_site_label
_atom_site_type_symbol
_atom_site_symmetry_multiplicity
_atom_site_Wyckoff_symbol
_atom_site_fract_x
_atom_site_fract_y
_atom_site_fract_z
_atom_site_B_iso_or_equiv
_atom_site_occupancy
_atom_site_attached_hydrogens
La1 La3+ 4 e 0.49075(12) 0.04563(8) 0.25082(6) 0.00788(14) 1 0
Li1 Li1+ 2 a 0. 0. 0. 0.019(5) 1 0
Ir1 Ir5+ 2 b 0.5 0.5 0. 0.00509(13) 1 0
O1 O2- 4 e 0.2173(11) 0.2984(12) 0.0403(8) 0.0072(11) 1 0
O2 O2- 4 e 0.5767(12) 0.4836(11) 0.2443(8) 0.0082(11) 1 0
O3 O2- 4 e 0.3011(11) 0.7831(12) 0.0419(9) 0.0084(11) 1 0
loop_
_atom_site_aniso_label
_atom_site_aniso_type_symbol
_atom_site_aniso_U_11
_atom_site_aniso_U_22
_atom_site_aniso_U_33
_atom_site_aniso_U_12
_atom_site_aniso_U_13
_atom_site_aniso_U_23
La1 La3+ 0.0076(2) 0.0088(2) 0.0073(2) -0.00106(15) 0.00078(17) 0.00069(15)
Ir1 Ir5+ 0.0054(2) 0.00494(19) 0.00493(18) -0.00023(13) 0.00052(15) 0.00007(14)
O1 O2- 0.005(3) 0.011(3) 0.005(3) -0.002(2) -0.001(2) 0.000(2)
O2 O2- 0.006(3) 0.014(3) 0.005(2) 0.0006(19) -0.002(2) 0.002(2)
O3 O2- 0.007(3) 0.009(3) 0.010(3) 0.000(2) 0.000(2) 0.001(2)
#End of TTdata_414605-ICSD