
#(C) 2017 by FIZ Karlsruhe - Leibniz Institute for Information Infrastructure.  All rights reserved.
data_415135-ICSD
_database_code_ICSD 415135
_audit_creation_date 2006-10-01
_chemical_name_systematic 'Trilithium scandium hexafluoride'
_chemical_formula_structural 'Li3 Sc F6'
_chemical_formula_sum 'F6 Li3 Sc1'
_exptl_crystal_density_diffrn 2.82
_publ_section_title

;
Synthesis and structures of Li3 Sc F6 and high pressure Li Sc F4, luminescence
properties of Li Sc F4, a new phase in the system Li F - Sc F3
;
loop_
_citation_id
_citation_journal_full
_citation_year
_citation_journal_volume
_citation_page_first
_citation_page_last
_citation_journal_id_ASTM
primary 'Journal of Solid State Chemistry' 2005 178 2620 2625 JSSCBI
loop_
_publ_author_name
'Tyagi, A.K.'
'Koehler, J.'
'Balog, P.'
'Weber, J.'
_cell_length_a 8.7830(10)
_cell_length_b 8.7830(10)
_cell_length_c 9.5180(10)
_cell_angle_alpha 90.
_cell_angle_beta 90.
_cell_angle_gamma 120.
_cell_volume 635.86
_cell_formula_units_Z 6
_symmetry_space_group_name_H-M 'P -3 c 1'
_symmetry_Int_Tables_number 165
_refine_ls_R_factor_all 0.0809
loop_
_symmetry_equiv_pos_site_id
_symmetry_equiv_pos_as_xyz
1 'x-y, -y, -z+1/2'
2 '-x, -x+y, -z+1/2'
3 'y, x, -z+1/2'
4 'x-y, x, -z'
5 'y, -x+y, -z'
6 '-x, -y, -z'
7 '-x+y, y, z+1/2'
8 'x, x-y, z+1/2'
9 '-y, -x, z+1/2'
10 '-x+y, -x, z'
11 '-y, x-y, z'
12 'x, y, z'
loop_
_atom_type_symbol
_atom_type_oxidation_number
Li1+ 1
Sc3+ 3
F1- -1
loop_
_atom_site_label
_atom_site_type_symbol
_atom_site_symmetry_multiplicity
_atom_site_Wyckoff_symbol
_atom_site_fract_x
_atom_site_fract_y
_atom_site_fract_z
_atom_site_B_iso_or_equiv
_atom_site_occupancy
_atom_site_attached_hydrogens
Li1 Li1+ 6 f 0. 0.7000(9) 0.25 0.0207(17) 1 0
Li2 Li1+ 12 g 0.6372(8) 0.6574(8) 0.4629(6) 0.0205(13) 1 0
Sc1 Sc3+ 2 b 0. 0. 0. 0.0117(3) 1 0
Sc2 Sc3+ 4 d 0.6667 0.3333 0.26391(9) 0.0108(2) 1 0
F1 F1- 12 g 0.7846(3) 0.5535(2) 0.14500(18) 0.0152(4) 1 0
F2 F1- 12 g 0.5416(3) 0.4298(3) 0.38168(19) 0.0156(4) 1 0
F3 F1- 12 g 0.1179(3) 0.2267(2) 0.10763(17) 0.0157(4) 1 0
loop_
_atom_site_aniso_label
_atom_site_aniso_type_symbol
_atom_site_aniso_U_11
_atom_site_aniso_U_22
_atom_site_aniso_U_33
_atom_site_aniso_U_12
_atom_site_aniso_U_13
_atom_site_aniso_U_23
Li1 Li1+ 0.025(4) 0.025(3) 0.013(4) 0.012(2) -0.002(3) -0.0008(17)
Li2 Li1+ 0.019(3) 0.014(2) 0.023(3) 0.005(2) -0.004(2) 0.000(2)
Sc1 Sc3+ 0.0105(3) 0.0105(3) 0.0142(6) 0.00526(17) 0. 0.
Sc2 Sc3+ 0.0108(3) 0.0108(3) 0.0109(4) 0.00538(14) 0. 0.
F1 F1- 0.0144(10) 0.0141(7) 0.0159(8) 0.0061(8) -0.0011(9) 0.0034(5)
F2 F1- 0.0160(10) 0.0172(11) 0.0161(9) 0.0102(8) 0.0014(9) -0.0019(9)
F3 F1- 0.0179(11) 0.0141(7) 0.0163(8) 0.0090(10) -0.0044(9) -0.0049(6)
#End of TTdata_415135-ICSD