
#(C) 2018 by FIZ Karlsruhe - Leibniz Institute for Information Infrastructure.  All rights reserved.
data_415189-ICSD
_database_code_ICSD 415189
_audit_creation_date 2010-08-01
_chemical_name_systematic 'Tris(tetraamminelithium) heptaarsenide ammonia'
_chemical_formula_structural '(Li (N H3)4)3 (As7) (N H3)'
_chemical_formula_sum 'H39 As7 Li3 N13'
_exptl_crystal_density_diffrn 1.88
_cell_measurement_temperature 293.
_publ_section_title

;
Syntheses and crystal structures of four new ammoniates with heptaarsenide
(As7(3-)) anions
;
loop_
_citation_id
_citation_journal_full
_citation_year
_citation_journal_volume
_citation_page_first
_citation_page_last
_citation_journal_id_ASTM
primary 'Helvetica Chimica Acta' 2005 88 950 961 HCACAV
loop_
_publ_author_name
'Hanauer, T.'
'Grothe, M.'
'Reil, M.'
'Korber, N.'
_cell_length_a 22.326(4)
_cell_length_b 9.596(8)
_cell_length_c 12.628(4)
_cell_angle_alpha 90.
_cell_angle_beta 90.
_cell_angle_gamma 90.
_cell_volume 2705.43
_cell_formula_units_Z 4
_symmetry_space_group_name_H-M 'P n a 21'
_symmetry_Int_Tables_number 33
_refine_ls_R_factor_all 0.04
loop_
_symmetry_equiv_pos_site_id
_symmetry_equiv_pos_as_xyz
1 'x+1/2, -y+1/2, z'
2 '-x+1/2, y+1/2, z+1/2'
3 '-x, -y, z+1/2'
4 'x, y, z'
loop_
_atom_type_symbol
_atom_type_oxidation_number
As0+ -0.43
N3- -3
H1+ 1
N3- -3
H1+ 1
N3- -3
H1+ 1
N3- -3
H1+ 1
N3- -3
H1+ 1
N3- -3
H1+ 1
N3- -3
H1+ 1
N3- -3
H1+ 1
N3- -3
H1+ 1
N3- -3
H1+ 1
N3- -3
H1+ 1
N3- -3
H1+ 1
N3- -3
H1+ 1
Li1+ 1
loop_
_atom_site_label
_atom_site_type_symbol
_atom_site_symmetry_multiplicity
_atom_site_Wyckoff_symbol
_atom_site_fract_x
_atom_site_fract_y
_atom_site_fract_z
_atom_site_B_iso_or_equiv
_atom_site_occupancy
_atom_site_attached_hydrogens
As1 As0+ 4 a 0.93507(6) 0.59653(16) -0.01228(13) 0.0162(4) 1 0
As2 As0+ 4 a 0.90752(7) 0.78431(16) -0.12809(12) 0.0174(4) 1 0
As3 As0+ 4 a 0.86293(7) 0.42274(15) -0.06068(12) 0.0185(4) 1 0
As4 As0+ 4 a 0.89417(7) 0.67565(16) 0.15405(12) 0.0162(3) 1 0
As5 As0+ 4 a 0.80506(7) 0.79499(15) -0.08978(12) 0.0167(4) 1 0
As6 As0+ 4 a 0.77487(7) 0.55200(16) -0.04477(13) 0.0186(4) 1 0
As7 As0+ 4 a 0.79597(6) 0.72227(16) 0.10037(12) 0.0163(4) 1 0
N1 N3- 4 a 1.0788(5) 0.3943(13) -0.0539(10) 0.020(3) 1 0
H1 H1+ 4 a 1.0558 0.3185 -0.0558 0.024 1 0
H2 H1+ 4 a 1.0872 0.421 -0.1197 0.024 1 0
H3 H1+ 4 a 1.0594 0.4624 -0.0205 0.024 1 0
N2 N3- 4 a 0.8608(6) 1.0773(14) 0.0689(11) 0.025(3) 1 0
H4 H1+ 4 a 0.8247 1.0388 0.0743 0.03 1 0
H5 H1+ 4 a 0.8876 1.0117 0.0534 0.03 1 0
H6 H1+ 4 a 0.8605 1.1411 0.0177 0.03 1 0
N3 N3- 4 a 0.7779(5) 0.6522(14) 0.4088(11) 0.023(3) 1 0
H7 H1+ 4 a 0.7961 0.666 0.3469 0.028 1 0
H8 H1+ 4 a 0.7517 0.7203 0.4203 0.028 1 0
H9 H1+ 4 a 0.7589 0.5707 0.4077 0.028 1 0
N4 N3- 4 a 0.6928(6) 1.0361(14) 0.1536(11) 0.027(3) 1 0
H10 H1+ 4 a 0.7033 0.9518 0.131 0.032 1 0
H11 H1+ 4 a 0.6647 1.028 0.2033 0.032 1 0
H12 H1+ 4 a 0.7246 1.0792 0.1806 0.032 1 0
N5 N3- 4 a 0.8784(6) 1.0072(13) 0.3180(11) 0.025(3) 1 0
H13 H1+ 4 a 0.8806 0.9267 0.2832 0.03 1 0
H14 H1+ 4 a 0.8438 1.0115 0.3529 0.03 1 0
H15 H1+ 4 a 0.9086 1.0131 0.3637 0.03 1 0
N6 N3- 4 a 0.6494(6) 0.3440(14) 0.0929(12) 0.031(3) 1 0
H16 H1+ 4 a 0.6129 0.376 0.079 0.037 1 0
H17 H1+ 4 a 0.6766 0.4016 0.0656 0.037 1 0
H18 H1+ 4 a 0.6545 0.3386 0.1627 0.037 1 0
N7 N3- 4 a 0.6262(6) 0.7668(15) -0.0104(11) 0.034(4) 1 0
H19 H1+ 4 a 0.6624 0.7278 -0.0131 0.04 1 0
H20 H1+ 4 a 0.6299 0.8591 -0.0135 0.04 1 0
H21 H1+ 4 a 0.6044 0.7372 -0.0649 0.04 1 0
N8 N3- 4 a 0.6786(6) 0.8293(14) -0.2761(12) 0.028(3) 1 0
H22 H1+ 4 a 0.7073 0.8041 -0.2311 0.034 1 0
H23 H1+ 4 a 0.6606 0.9059 -0.2523 0.034 1 0
H24 H1+ 4 a 0.6946 0.8463 -0.3393 0.034 1 0
N9 N3- 4 a 1.0516(5) 0.6068(12) 0.1938(11) 0.022(3) 1 0
H25 H1+ 4 a 1.0594 0.5349 0.1514 0.026 1 0
H26 H1+ 4 a 1.0122 0.615 0.2023 0.026 1 0
H27 H1+ 4 a 1.0688 0.5927 0.2565 0.026 1 0
N10 N3- 4 a 0.8512(5) 0.1480(13) -0.2644(10) 0.019(3) 1 0
H28 H1+ 4 a 0.8666 0.0811 -0.2239 0.023 1 0
H29 H1+ 4 a 0.8193 0.1154 -0.2986 0.023 1 0
H30 H1+ 4 a 0.8404 0.2198 -0.2241 0.023 1 0
N11 N3- 4 a 1.0182(6) 0.9358(14) 0.1107(11) 0.026(3) 1 0
H31 H1+ 4 a 0.9827 0.8962 0.1218 0.031 1 0
H32 H1+ 4 a 1.0194 0.9712 0.0456 0.031 1 0
H33 H1+ 4 a 1.0239 1.0036 0.1578 0.031 1 0
N12 N3- 4 a 1.0368(6) 0.7182(14) -0.3109(13) 0.038(4) 1 0
H34 H1+ 4 a 1.0447 0.6274 -0.3137 0.045 1 0
H35 H1+ 4 a 1.0196 0.7449 -0.3711 0.045 1 0
H36 H1+ 4 a 1.0121 0.7351 -0.257 0.045 1 0
N13 N3- 4 a 0.9860(6) 1.1387(15) -0.0994(12) 0.030(3) 1 0
H37 H1+ 4 a 0.955(7) 1.216(15) -0.138(13) 0.036 1 0
H38 H1+ 4 a 0.958(6) 1.048(14) -0.092(14) 0.036 1 0
H39 H1+ 4 a 1.006(7) 1.157(17) -0.180(10) 0.036 1 0
Li1 Li1+ 4 a 0.5852(10) 0.713(2) 0.1271(17) 0.009(5) 1 0
Li2 Li1+ 4 a 0.8407(10) 0.651(2) 0.5278(19) 0.012(5) 1 0
Li3 Li1+ 4 a 0.6166(10) 0.671(2) -0.2890(19) 0.014(5) 1 0
loop_
_atom_site_aniso_label
_atom_site_aniso_type_symbol
_atom_site_aniso_U_11
_atom_site_aniso_U_22
_atom_site_aniso_U_33
_atom_site_aniso_U_12
_atom_site_aniso_U_13
_atom_site_aniso_U_23
As1 As0+ 0.0111(7) 0.0200(8) 0.0175(8) 0.0051(6) -0.0003(6) -0.0025(7)
As2 As0+ 0.0195(8) 0.0185(8) 0.0143(8) -0.0040(7) 0.0030(7) 0.0031(7)
As3 As0+ 0.0280(9) 0.0118(7) 0.0157(8) 0.0009(6) 0.0025(7) -0.0033(7)
As4 As0+ 0.0186(7) 0.0176(7) 0.0123(7) 0.0012(7) -0.0021(7) -0.0020(7)
As5 As0+ 0.0160(7) 0.0151(7) 0.0190(9) 0.0028(6) -0.0056(7) 0.0029(7)
As6 As0+ 0.0158(7) 0.0184(7) 0.0216(8) -0.0053(6) -0.0005(7) -0.0016(7)
As7 As0+ 0.0117(7) 0.0181(8) 0.0190(8) 0.0021(6) 0.0044(7) -0.0030(7)
N1 N3- 0.017(6) 0.028(7) 0.015(6) 0.001(6) 0.003(6) -0.009(7)
N2 N3- 0.030(8) 0.021(7) 0.024(8) -0.010(6) 0.005(6) 0.005(6)
N3 N3- 0.015(6) 0.031(8) 0.024(7) -0.005(6) -0.005(6) -0.001(7)
N4 N3- 0.033(8) 0.029(7) 0.019(7) 0.010(6) -0.004(7) -0.004(7)
N5 N3- 0.023(7) 0.020(7) 0.032(8) 0.005(6) -0.001(6) -0.008(7)
N6 N3- 0.031(8) 0.036(8) 0.026(8) -0.001(6) 0.008(7) -0.008(7)
N7 N3- 0.046(9) 0.028(8) 0.026(8) 0.004(7) -0.002(8) -0.016(8)
N8 N3- 0.027(7) 0.030(8) 0.028(8) 0.006(6) -0.003(7) 0.007(7)
N9 N3- 0.014(7) 0.022(7) 0.029(8) 0.001(6) 0.002(6) 0.000(6)
N10 N3- 0.018(7) 0.023(7) 0.018(7) 0.007(6) -0.004(6) -0.003(6)
N11 N3- 0.022(7) 0.035(8) 0.022(8) 0.004(6) -0.009(6) 0.000(7)
N12 N3- 0.039(9) 0.027(8) 0.046(10) -0.012(7) 0.004(8) -0.006(8)
N13 N3- 0.030(8) 0.033(8) 0.028(8) -0.019(7) -0.005(7) 0.007(7)
Li1 Li1+ 0.010(6) 0.010(6) 0.009(6) -0.001(5) -0.001(5) 0.002(5)
Li2 Li1+ 0.013(6) 0.011(6) 0.011(7) -0.002(5) 0.002(5) -0.002(5)
Li3 Li1+ 0.016(7) 0.017(7) 0.010(7) 0.001(5) 0.003(5) 0.005(5)
#End of TTdata_415189-ICSD