
#(C) 2018 by FIZ Karlsruhe - Leibniz Institute for Information Infrastructure.  All rights reserved.
data_415266-ICSD
_database_code_ICSD 415266
_audit_creation_date 2008-08-01
_chemical_name_systematic 'Lithium boride oxide (6.52/18/0.26)'
_chemical_formula_structural 'Li6 B18 (Li2 O)0.26'
_chemical_formula_sum 'B18 Li6.52 O0.26'
_exptl_crystal_density_diffrn 1.67
_cell_measurement_temperature 293.
_publ_section_title
'Li6 B18 (Li2 O)(x) - a boride with a porous framework of B6 octahedra'
loop_
_citation_id
_citation_journal_full
_citation_year
_citation_journal_volume
_citation_page_first
_citation_page_last
_citation_journal_id_ASTM
primary 'Solid State Sciences' 2007 9 459 464 SSSCFJ
loop_
_publ_author_name
'Woerle, M.'
'Nesper, R.'
'Mair, G.'
'von Schnering, H.G.'
_cell_length_a 8.21708(17)
_cell_length_b 8.21708(17)
_cell_length_c 4.15893(16)
_cell_angle_alpha 90.
_cell_angle_beta 90.
_cell_angle_gamma 120.
_cell_volume 243.19
_cell_formula_units_Z 1
_symmetry_space_group_name_H-M 'P 6/m m m'
_symmetry_Int_Tables_number 191
loop_
_symmetry_equiv_pos_site_id
_symmetry_equiv_pos_as_xyz
1 '-x, -x+y, -z'
2 'x-y, -y, -z'
3 'y, x, -z'
4 '-x+y, -x, -z'
5 '-y, x-y, -z'
6 'x, y, -z'
7 'x, x-y, -z'
8 '-x+y, y, -z'
9 '-y, -x, -z'
10 'x-y, x, -z'
11 'y, -x+y, -z'
12 '-x, -y, -z'
13 'x, x-y, z'
14 '-x+y, y, z'
15 '-y, -x, z'
16 'x-y, x, z'
17 'y, -x+y, z'
18 '-x, -y, z'
19 '-x, -x+y, z'
20 'x-y, -y, z'
21 'y, x, z'
22 '-x+y, -x, z'
23 '-y, x-y, z'
24 'x, y, z'
loop_
_atom_type_symbol
_atom_type_oxidation_number
B0+ -0.333
Li1+ 1
O2- -2
Li1+ 1
loop_
_atom_site_label
_atom_site_type_symbol
_atom_site_symmetry_multiplicity
_atom_site_Wyckoff_symbol
_atom_site_fract_x
_atom_site_fract_y
_atom_site_fract_z
_atom_site_B_iso_or_equiv
_atom_site_occupancy
_atom_site_attached_hydrogens
B1 B0+ 12 q 0.44965(25) 0.11947(25) 0.5 0.0088(6) 1. 0
B2 B0+ 6 i 0.5 0. 0.8025(7) 0.0088(6) 1. 0
Li1 Li1+ 2 c 0.3333 0.66667 0. 0.0612(24) 1. 0
O1 O2- 1 a 0. 0. 0. 0.0612(24) 0.264(6) 0
Li2 Li1+ 6 l 0.1485(6) 0.2970(11) 0. 0.0612(24) 0.665(9) 0
Li3 Li1+ 1 b 0. 0. 0.5 0.0612(24) 0.644(17) 0
#End of TTdata_415266-ICSD