
#(C) 2018 by FIZ Karlsruhe - Leibniz Institute for Information Infrastructure.  All rights reserved.
data_415200-ICSD
_database_code_ICSD 415200
_audit_creation_date 2006-10-01
_chemical_name_systematic 'Lithium triborate'
_chemical_formula_structural 'B3 Li O5'
_chemical_formula_sum 'B3 Li1 O5'
_chemical_name_structure_type LiB3O5
_exptl_crystal_density_diffrn 2.45
_cell_measurement_temperature 500.
_publ_section_title 'Li B3 O5 crystal structure at 20, 227, and 377 degree C'
loop_
_citation_id
_citation_journal_full
_citation_year
_citation_journal_volume
_citation_page_first
_citation_page_last
_citation_journal_id_ASTM
primary 'Journal of Solid State Chemistry' 2005 178 2987 2997 JSSCBI
loop_
_publ_author_name
'Shepelev, Yu.F.'
'Bubnova, R.S.'
'Filatov, S.K.'
'Sennova, N.A.'
'Pilneva, N.A.'
_cell_length_a 8.616(5)
_cell_length_b 7.433(5)
_cell_length_c 5.063(3)
_cell_angle_alpha 90.
_cell_angle_beta 90.
_cell_angle_gamma 90.
_cell_volume 324.25
_cell_formula_units_Z 4
_symmetry_space_group_name_H-M 'P n a 21'
_symmetry_Int_Tables_number 33
_refine_ls_R_factor_all 0.0256
loop_
_symmetry_equiv_pos_site_id
_symmetry_equiv_pos_as_xyz
1 'x+1/2, -y+1/2, z'
2 '-x+1/2, y+1/2, z+1/2'
3 '-x, -y, z+1/2'
4 'x, y, z'
loop_
_atom_type_symbol
_atom_type_oxidation_number
Li1+ 1
B3+ 3
O2- -2
loop_
_atom_site_label
_atom_site_type_symbol
_atom_site_symmetry_multiplicity
_atom_site_Wyckoff_symbol
_atom_site_fract_x
_atom_site_fract_y
_atom_site_fract_z
_atom_site_B_iso_or_equiv
_atom_site_occupancy
_atom_site_attached_hydrogens
Li1 Li1+ 4 a .39981(37) .56447(26) .01285(0) 3.984(52) 1. 0
B1 B3+ 4 a .51021(7) .83541(7) .3522(7) .925(8) 1. 0
B2 B3+ 4 a .69169(6) .05537(7) .5485(7) .752(7) 1. 0
B3 B3+ 4 a .65714(6) .75120(7) .7339(7) .790(7) 1. 0
O1 O2- 4 a .58783(6) .99258(5) .3407(7) 1.202(6) 1. 0
O2 O2- 4 a .38549(6) .79730(5) .1964(7) 1.074(6) 1. 0
O3 O2- 4 a .55743(6) .70286(5) .5295(7) 1.166(6) 1. 0
O4 O2- 4 a .73472(5) .90985(5) .7367(7) .914(5) 1. 0
O5 O2- 4 a .66680(5) .62222(5) .9251(7) 1.092(6) 1. 0
loop_
_atom_site_aniso_label
_atom_site_aniso_type_symbol
_atom_site_aniso_beta_11
_atom_site_aniso_beta_22
_atom_site_aniso_beta_33
_atom_site_aniso_beta_12
_atom_site_aniso_beta_13
_atom_site_aniso_beta_23
Li1 Li1+ .02039(37) .00651(19) .04348(132) .00446(49) -.03127(116) -.00752(90)
B1 B3+ .00342(6) .00361(6) .00939(14) .00029(9) -.00313(14) .00061(16)
B2 B3+ .00262(5) .00283(5) .00832(13) -.00006(7) .00094(13) .00225(13)
B3 B3+ .00242(5) .00299(5) .00965(14) -.00019(8) -.00099(13) .00259(15)
O1 O2- .00512(5) .00426(4) .01117(11) -.00234(7) -.00602(12) .00399(13)
O2 O2- .00375(5) .00336(4) .01331(12) .00021(6) -.00589(11) .00041(11)
O3 O2- .00479(5) .00333(4) .01307(12) -.00126(7) -.00706(13) .00259(12)
O4 O2- .00346(4) .00303(3) .01019(10) -.00156(6) -.00255(10) .00388(11)
O5 O2- .00298(4) .00409(4) .01451(13) -.00088(7) -.00399(11) .00799(13)
#End of TTdata_415200-ICSD