
#(C) 2018 by FIZ Karlsruhe - Leibniz Institute for Information Infrastructure.  All rights reserved.
data_415327-ICSD
_database_code_ICSD 415327
_audit_creation_date 2007-08-01
_chemical_name_systematic 'Dilithium tetraborate'
_chemical_formula_structural 'Li2 (B4 O7)'
_chemical_formula_sum 'B4 Li2 O7'
_chemical_name_structure_type Li2B4O7
_exptl_crystal_density_diffrn 2.4
_cell_measurement_temperature 673.
_publ_section_title

;
Li2 B4 O7 crystal structure in anharmonic approximation at 20, 200, 400 and
500 C
;
loop_
_citation_id
_citation_journal_full
_citation_year
_citation_journal_volume
_citation_page_first
_citation_page_last
_citation_journal_id_ASTM
primary 'Journal of Alloys and Compounds' 2007 428 290 296 JALCEU
loop_
_publ_author_name
'Sennova, N.'
'Bubnova, R.'
'Shepelev, Yu.'
'Filatov, S.'
'Yakovleva, O.'
_cell_length_a 9.535(3)
_cell_length_b 9.535(3)
_cell_length_c 10.295(8)
_cell_angle_alpha 90.
_cell_angle_beta 90.
_cell_angle_gamma 90.
_cell_volume 935.98
_cell_formula_units_Z 8
_symmetry_space_group_name_H-M 'I 41 c d'
_symmetry_Int_Tables_number 110
_refine_ls_R_factor_all 0.027
loop_
_symmetry_equiv_pos_site_id
_symmetry_equiv_pos_as_xyz
1 '-y, -x+1/2, z+3/4'
2 '-y, x+1/2, z+1/4'
3 'x, -y, z+1/2'
4 '-x, -y, z'
5 'y, x+1/2, z+3/4'
6 'y, -x+1/2, z+1/4'
7 '-x, y, z+1/2'
8 'x, y, z'
9 '-y+1/2, -x, z+1/4'
10 '-y+1/2, x, z+3/4'
11 'x+1/2, -y+1/2, z'
12 '-x+1/2, -y+1/2, z+1/2'
13 'y+1/2, x, z+1/4'
14 'y+1/2, -x, z+3/4'
15 '-x+1/2, y+1/2, z'
16 'x+1/2, y+1/2, z+1/2'
loop_
_atom_type_symbol
_atom_type_oxidation_number
Li1+ 1
B3+ 3
O2- -2
loop_
_atom_site_label
_atom_site_type_symbol
_atom_site_symmetry_multiplicity
_atom_site_Wyckoff_symbol
_atom_site_fract_x
_atom_site_fract_y
_atom_site_fract_z
_atom_site_B_iso_or_equiv
_atom_site_occupancy
_atom_site_attached_hydrogens
Li1 Li1+ 16 b .3538(3) .3306(4) .35829(0) 4.22(6) 1. 0
B1 B3+ 16 b .08424(7) .33176(7) .4505(4) .983(8) 1. 0
B2 B3+ 16 b .05252(6) .11261(7) .5824(4) .965(7) 1. 0
O1 O2- 16 b .13398(5) .21882(5) .5150(3) 1.355(6) 1. 0
O2 O2- 16 b .17601(5) .43135(5) .4058(4) 1.393(7) 1. 0
O3 O2- 16 b -.05793(5) .34460(6) .4306(3) 1.294(6) 1. 0
O4 O2- 8 a .0(0) .0(0) .5001(3) 1.159(7) 1. 0
loop_
_atom_site_aniso_label
_atom_site_aniso_type_symbol
_atom_site_aniso_beta_11
_atom_site_aniso_beta_22
_atom_site_aniso_beta_33
_atom_site_aniso_beta_12
_atom_site_aniso_beta_13
_atom_site_aniso_beta_23
Li1 Li1+ .00934(25) .01269(34) .01125(34) .01287(51) .00674(52) .001189(62)
B1 B3+ .00223(4) .00274(4) .00275(4) -.00053(7) -.00012(6) .00169(7)
B2 B3+ .00230(4) .00268(4) .00262(4) -.00015(7) .00008(6) .00145(7)
O1 O2- .00236(3) .00366(3) .00450(4) .00029(6) .00083(5) .00452(7)
O2 O2- .00243(3) .00340(4) .00492(4) -.00077(6) .00035(6) .00367(6)
O3 O2- .00214(3) .00433(4) .00369(3) -.00069(6) -.00115(5) .00378(6)
O4 O2- .00286(4) .00419(5) .00223(3) -.00126(9) .0(0) .0(0)
#End of TTdata_415327-ICSD