
#(C) 2018 by FIZ Karlsruhe - Leibniz Institute for Information Infrastructure.  All rights reserved.
data_415325-ICSD
_database_code_ICSD 415325
_audit_creation_date 2007-08-01
_chemical_name_systematic 'Dilithium tetraborate'
_chemical_formula_structural 'Li2 (B4 O7)'
_chemical_formula_sum 'B4 Li2 O7'
_chemical_name_structure_type Li2B4O7
_exptl_crystal_density_diffrn 2.43
_publ_section_title

;
Li2 B4 O7 crystal structure in anharmonic approximation at 20, 200, 400 and
500 C
;
loop_
_citation_id
_citation_journal_full
_citation_year
_citation_journal_volume
_citation_page_first
_citation_page_last
_citation_journal_id_ASTM
primary 'Journal of Alloys and Compounds' 2007 428 290 296 JALCEU
loop_
_publ_author_name
'Sennova, N.'
'Bubnova, R.'
'Shepelev, Yu.'
'Filatov, S.'
'Yakovleva, O.'
_cell_length_a 9.475(3)
_cell_length_b 9.475(3)
_cell_length_c 10.283(6)
_cell_angle_alpha 90.
_cell_angle_beta 90.
_cell_angle_gamma 90.
_cell_volume 923.16
_cell_formula_units_Z 8
_symmetry_space_group_name_H-M 'I 41 c d'
_symmetry_Int_Tables_number 110
_refine_ls_R_factor_all 0.02
loop_
_symmetry_equiv_pos_site_id
_symmetry_equiv_pos_as_xyz
1 '-y, -x+1/2, z+3/4'
2 '-y, x+1/2, z+1/4'
3 'x, -y, z+1/2'
4 '-x, -y, z'
5 'y, x+1/2, z+3/4'
6 'y, -x+1/2, z+1/4'
7 '-x, y, z+1/2'
8 'x, y, z'
9 '-y+1/2, -x, z+1/4'
10 '-y+1/2, x, z+3/4'
11 'x+1/2, -y+1/2, z'
12 '-x+1/2, -y+1/2, z+1/2'
13 'y+1/2, x, z+1/4'
14 'y+1/2, -x, z+3/4'
15 '-x+1/2, y+1/2, z'
16 'x+1/2, y+1/2, z+1/2'
loop_
_atom_type_symbol
_atom_type_oxidation_number
Li1+ 1
B3+ 3
O2- -2
loop_
_atom_site_label
_atom_site_type_symbol
_atom_site_symmetry_multiplicity
_atom_site_Wyckoff_symbol
_atom_site_fract_x
_atom_site_fract_y
_atom_site_fract_z
_atom_site_B_iso_or_equiv
_atom_site_occupancy
_atom_site_attached_hydrogens
Li1 Li1+ 16 b .3517(2) .3353(2) .35190(0) 2.06(2) 1. 0
B1 B3+ 16 b .08616(4) .33181(4) .4506(2) .545(4) 1. 0
B2 B3+ 16 b .05365(4) .11257(4) .5821(2) .549(5) 1. 0
O1 O2- 16 b .13721(3) .21830(3) .5151(2) .688(3) 1. 0
O2 O2- 16 b .17757(3) .43280(3) .4059(2) .711(3) 1. 0
O3 O2- 16 b -.05684(3) .34375(3) .4309(2) .652(3) 1. 0
O4 O2- 8 a .0(0) .0(0) .4998(2) .634(4) 1. 0
loop_
_atom_site_aniso_label
_atom_site_aniso_type_symbol
_atom_site_aniso_beta_11
_atom_site_aniso_beta_22
_atom_site_aniso_beta_33
_atom_site_aniso_beta_12
_atom_site_aniso_beta_13
_atom_site_aniso_beta_23
Li1 Li1+ .00468(11) .00601(13) .00555(13) .00597(21) .00325(19) .00581(23)
B1 B3+ .00123(2) .00152(2) .00153(2) -.00019(5) -.00012(4) .00089(4)
B2 B3+ .00136(3) .00152(3) .00144(2) -.00015(5) -.00003(4) .00072(4)
O1 O2- .00125(2) .00184(2) .00225(2) .00008(3) .00029(3) .00212(3)
O2 O2- .00133(2) .00170(2) .00248(2) -.00026(3) .00027(3) .00167(3)
O3 O2- .00117(2) .00214(2) .00181(2) -.00031(3) -.00055(3) .00170(3)
O4 O2- .00157(2) .00233(2) .00119(2) -.00078(5) .0(0) .0(0)
#End of TTdata_415325-ICSD