
#(C) 2018 by FIZ Karlsruhe - Leibniz Institute for Information Infrastructure.  All rights reserved.
data_415411-ICSD
_database_code_ICSD 415411
_audit_creation_date 2007-04-01
_chemical_name_systematic 'Lithium calcium gallium dinitride'
_chemical_formula_structural 'Ca Ga Li N2'
_chemical_formula_sum 'Ca1 Ga1 Li1 N2'
_exptl_crystal_density_diffrn 4.04
_cell_measurement_temperature 173.
_publ_section_title 'Synthesis and crystal structure of Li Ca Ga N2'
loop_
_citation_id
_citation_journal_full
_citation_year
_citation_journal_volume
_citation_page_first
_citation_page_last
_citation_journal_id_ASTM
primary 'Journal of Alloys and Compounds' 2006 417 50 54 JALCEU
loop_
_publ_author_name
'Bailey, M.S.'
'DiSalvo, F.J.'
_cell_length_a 5.7903(12)
_cell_length_b 6.9690(13)
_cell_length_c 5.8952(11)
_cell_angle_alpha 90.
_cell_angle_beta 90.037(5)
_cell_angle_gamma 90.
_cell_volume 237.89
_cell_formula_units_Z 4
_symmetry_space_group_name_H-M 'P 1 21/c 1'
_symmetry_Int_Tables_number 14
_refine_ls_R_factor_all 0.0452
loop_
_symmetry_equiv_pos_site_id
_symmetry_equiv_pos_as_xyz
1 'x, -y+1/2, z+1/2'
2 '-x, -y, -z'
3 '-x, y+1/2, -z+1/2'
4 'x, y, z'
loop_
_atom_type_symbol
_atom_type_oxidation_number
Ga3+ 3
Ca2+ 2
Li1+ 1
N3- -3
loop_
_atom_site_label
_atom_site_type_symbol
_atom_site_symmetry_multiplicity
_atom_site_Wyckoff_symbol
_atom_site_fract_x
_atom_site_fract_y
_atom_site_fract_z
_atom_site_B_iso_or_equiv
_atom_site_occupancy
_atom_site_attached_hydrogens
Ga1 Ga3+ 4 e 0.62323(7) 0.14055(4) 0.07833(5) 0.00276(18) 1 0
Ca1 Ca2+ 4 e 0.02243(14) 0.37312(6) 0.24208(10) 0.00393(19) 1 0
Li1 Li1+ 4 e 0.3673(12) 0.1068(12) 0.4079(9) 0.0087(12) 1 0
N1 N3- 4 e 0.2600(6) 0.6387(3) 0.0978(4) 0.0047(5) 1 0
N2 N3- 4 e 0.2785(5) 0.1102(3) 0.0695(4) 0.0043(4) 1 0
loop_
_atom_site_aniso_label
_atom_site_aniso_type_symbol
_atom_site_aniso_U_11
_atom_site_aniso_U_22
_atom_site_aniso_U_33
_atom_site_aniso_U_12
_atom_site_aniso_U_13
_atom_site_aniso_U_23
Ga1 Ga3+ 0.0016(3) 0.0016(2) 0.0051(2) -0.00033(8) -0.00166(14) 0.00001(6)
Ca1 Ca2+ 0.0033(4) 0.0025(3) 0.0060(3) -0.00048(15) -0.0023(2) -0.00004(13)
Li1 Li1+ 0.004(3) 0.009(2) 0.013(3) -0.0014(19) -0.001(2) 0.0006(16)
N1 N3- 0.0049(15) 0.0032(9) 0.0061(9) 0.0004(6) -0.0017(9) -0.0001(5)
N2 N3- 0.0027(12) 0.0031(7) 0.0071(9) -0.0005(7) -0.0018(8) -0.0003(6)
#End of TTdata_415411-ICSD