
#(C) 2018 by FIZ Karlsruhe - Leibniz Institute for Information Infrastructure.  All rights reserved.
data_4155-ICSD
_database_code_ICSD 4155
_audit_creation_date 1980-01-01
_chemical_name_systematic 'Dilithium tetramolybdate - high-temperature phase'
_chemical_formula_structural 'Li2 Mo4 O13'
_chemical_formula_sum 'Li2 Mo4 O13'
_exptl_crystal_density_diffrn 4.02
_publ_section_title

;
Structural studies in the Li2 Mo O4 - Mo O3 system. Part 2. The high
temperature form of lithium tetramolybdate, H-Li2 Mo4 O13
;
loop_
_citation_id
_citation_journal_full
_citation_year
_citation_journal_volume
_citation_page_first
_citation_page_last
_citation_journal_id_ASTM
primary 'Journal of Solid State Chemistry' 1975 15 274 282 JSSCBI
loop_
_publ_author_name
'Gatehouse, B.M.'
'Miskin, B.K.'
_cell_length_a 8.612(4)
_cell_length_b 11.562(6)
_cell_length_c 8.213(4)
_cell_angle_alpha 94.45(7)
_cell_angle_beta 96.38(7)
_cell_angle_gamma 111.24(7)
_cell_volume 751.36
_cell_formula_units_Z 3
_symmetry_space_group_name_H-M 'P -1'
_symmetry_Int_Tables_number 2
_refine_ls_R_factor_all 0.031
loop_
_symmetry_equiv_pos_site_id
_symmetry_equiv_pos_as_xyz
1 '-x, -y, -z'
2 'x, y, z'
loop_
_atom_type_symbol
_atom_type_oxidation_number
Mo6+ 6
O2- -2
Li1+ 1
loop_
_atom_site_label
_atom_site_type_symbol
_atom_site_symmetry_multiplicity
_atom_site_Wyckoff_symbol
_atom_site_fract_x
_atom_site_fract_y
_atom_site_fract_z
_atom_site_B_iso_or_equiv
_atom_site_occupancy
_atom_site_attached_hydrogens
Mo1 Mo6+ 2 i 0.3454(1) 0.3650(1) 0.0254(1) . 1. 0
Mo2 Mo6+ 2 i 0.3272(1) 0.3638(1) 0.4157(1) . 1. 0
Mo3 Mo6+ 2 i 0.3048(1) 0.6385(1) 0.6240(1) . 1. 0
Mo4 Mo6+ 2 i 0.3206(1) 0.6332(1) 0.2282(1) . 1. 0
Mo5 Mo6+ 2 i 0.1469(1) 0.9665(1) 0.3661(1) . 1. 0
Mo6 Mo6+ 2 i 0.1639(1) 0.9643(1) 0.9705(1) . 1. 0
O1 O2- 1 b 0 0 0.5 1.14 1. 0
O2 O2- 2 i 0.6724(10) 0.9932(8) 0.4933(10) 1.42 1. 0
O3 O2- 2 i 0.1858(9) 0.6133(7) 0.4060(9) 0.77 1. 0
O4 O2- 2 i 0.4641(9) 0.5989(7) 0.4396(9) 0.72 1. 0
O5 O2- 2 i 0.7843(9) 0.5841(7) 0.4500(9) 0.97 1. 0
O6 O2- 2 i 0.2377(10) 0.2062(7) 0.3887(10) 1.19 1. 0
O7 O2- 2 i 0.6185(11) 0.2037(8) 0.3428(11) 1.52 1. 0
O8 O2- 2 i 0.0651(11) 0.8083(8) 0.3435(11) 1.68 1. 0
O9 O2- 2 i 0.4187(10) 0.7887(7) 0.2461(10) 1.41 1. 0
O10 O2- 2 i 0.2436(9) 0.4095(7) 0.2153(9) 0.69 1. 0
O11 O2- 2 i 0.5106(9) 0.3896(7) 0.2556(9) 0.77 1. 0
O12 O2- 2 i 0.8578(10) 0.4111(7) 0.2624(10) 1.29 1. 0
O13 O2- 2 i 0.0013(9) 0.9918(7) 0.1532(9) 0.99 1. 0
O14 O2- 2 i 0.2887(9) 0.9971(7) 0.1875(10) 1. 1. 0
O15 O2- 2 i 0.6735(10) 0.9982(8) 0.1415(10) 1.44 1. 0
O16 O2- 2 i 0.1448(10) 0.5972(8) 0.0833(10) 1.26 1. 0
O17 O2- 2 i 0.4619(9) 0.5810(7) 0.0884(9) 0.85 1. 0
O18 O2- 2 i 0.805(1) 0.6183(7) 0.1115(9) 1.04 1. 0
O19 O2- 2 i 0.2875(10) 0.2076(7) 0.1553(10) 1.1 1. 0
O20 O2- 2 i 0.9217(11) 0.1943(8) 0.0608(11) 1.6 1. 0
Li1 Li1+ 2 i 0.9909(27) 0.3708(20) 0.1046(27) 1.5 1. 0
Li2 Li1+ 2 i 0.520(3) 0.0038(22) 0.2944(30) 1.9 1. 0
Li3 Li1+ 2 i 0.9679(27) 0.6243(20) 0.3087(27) 1.6 1. 0
loop_
_atom_site_aniso_label
_atom_site_aniso_type_symbol
_atom_site_aniso_U_11
_atom_site_aniso_U_22
_atom_site_aniso_U_33
_atom_site_aniso_U_12
_atom_site_aniso_U_13
_atom_site_aniso_U_23
Mo1 Mo6+ 0.0061(4) 0.0069(4) 0.0054(4) 0.0018(3) 0.0010(3) -.0001(3)
Mo2 Mo6+ 0.0051(4) 0.0073(4) 0.0056(4) 0.0022(3) 0.0010(3) 0.0015(3)
Mo3 Mo6+ 0.0061(4) 0.0087(4) 0.0069(4) 0.0042(3) 0.0007(3) 0.0007(3)
Mo4 Mo6+ 0.0070(4) 0.0084(4) 0.0063(4) 0.0041(3) 0.0014(3) 0.0015(3)
Mo5 Mo6+ 0.0078(4) 0.0091(4) 0.0072(4) 0.0040(3) 0.0013(3) 0.0017(3)
Mo6 Mo6+ 0.0079(4) 0.0094(4) 0.0074(4) 0.0047(4) 0.0009(3) 0.0005(3)
#End of TTdata_4155-ICSD