
#(C) 2018 by FIZ Karlsruhe - Leibniz Institute for Information Infrastructure.  All rights reserved.
data_416442-ICSD
_database_code_ICSD 416442
_audit_creation_date 2007-08-01
_audit_update_record 2013-02-01
_chemical_name_systematic
'Lithium gadolinium(III) tetrakis(catena-phosphate(V))'
_chemical_formula_structural 'Li Gd (P O3)4'
_chemical_formula_sum 'Gd1 Li1 O12 P4'
_chemical_name_structure_type LiYb(PO3)4
_exptl_crystal_density_diffrn 3.53
_publ_section_title

;
The crystal structure, thermal behaviour and ionic conductivity of a novel
lithium gadolinium polyphosphate Li Gd (P O3)4
;
loop_
_citation_id
_citation_journal_full
_citation_year
_citation_journal_volume
_citation_page_first
_citation_page_last
_citation_journal_id_ASTM
primary 'Journal of Solid State Chemistry' 2006 179 3107 3113 JSSCBI
loop_
_publ_author_name
'Ettis, H.'
'Naili, H.'
'Mhiri, T.'
_cell_length_a 16.386(2)
_cell_length_b 7.059(3)
_cell_length_c 9.677(2)
_cell_angle_alpha 90.
_cell_angle_beta 126.12(1)
_cell_angle_gamma 90.
_cell_volume 904.17
_cell_formula_units_Z 4
_symmetry_space_group_name_H-M 'C 1 2/c 1'
_symmetry_Int_Tables_number 15
_refine_ls_R_factor_all 0.0167
loop_
_symmetry_equiv_pos_site_id
_symmetry_equiv_pos_as_xyz
1 'x, -y, z+1/2'
2 '-x, -y, -z'
3 '-x, y, -z+1/2'
4 'x, y, z'
5 'x+1/2, -y+1/2, z+1/2'
6 '-x+1/2, -y+1/2, -z'
7 '-x+1/2, y+1/2, -z+1/2'
8 'x+1/2, y+1/2, z'
loop_
_atom_type_symbol
_atom_type_oxidation_number
Gd3+ 3
Li1+ 1
P5+ 5
O2- -2
loop_
_atom_site_label
_atom_site_type_symbol
_atom_site_symmetry_multiplicity
_atom_site_Wyckoff_symbol
_atom_site_fract_x
_atom_site_fract_y
_atom_site_fract_z
_atom_site_B_iso_or_equiv
_atom_site_occupancy
_atom_site_attached_hydrogens
Gd1 Gd3+ 4 e 0 0.29794(3) 0.75 0.0046(2) 1 0
Li1 Li1+ 4 e 0 -0.2028(12) 0.75 0.010(3) 1 0
P1 P5+ 8 f -0.13792(8) 0.05366(14) 0.33845(13) 0.0053(3) 1 0
P2 P5+ 8 f -0.14748(8) -0.3470(2) 0.40328(14) 0.0053(3) 1 0
O1 O2- 8 f -0.1585(2) -0.1234(5) 0.4160(4) 0.0096(7) 1 0
O2 O2- 8 f -0.2444(2) 0.0815(4) 0.1570(4) 0.0077(6) 1 0
O3 O2- 8 f -0.0720(2) -0.4100(4) 0.5843(4) 0.0094(6) 1 0
O4 O2- 8 f -0.1141(3) 0.2179(4) 0.4540(5) 0.0107(8) 1 0
O5 O2- 8 f -0.1291(2) -0.3854(4) 0.2721(4) 0.0102(6) 1 0
O6 O2- 8 f -0.0653(3) 0.0024(4) 0.2974(4) 0.0096(6) 1 0
loop_
_atom_site_aniso_label
_atom_site_aniso_type_symbol
_atom_site_aniso_U_11
_atom_site_aniso_U_22
_atom_site_aniso_U_33
_atom_site_aniso_U_12
_atom_site_aniso_U_13
_atom_site_aniso_U_23
Gd1 Gd3+ 0.0052(3) 0.0049(3) 0.0042(3) 0. 0.0031(2) 0.
Li1 Li1+ 0.008(6) 0.012(7) 0.002(6) 0. -0.001(5) 0.
P1 P5+ 0.0044(5) 0.0056(6) 0.0036(5) 0.0000(3) 0.0011(4) 0.0005(3)
P2 P5+ 0.0058(5) 0.0058(6) 0.0047(6) -0.0010(5) 0.0033(5) 0.0001(5)
O1 O2- 0.0178(16) 0.0010(16) 0.0185(16) 0.0011(12) 0.0148(14) 0.0024(12)
O2 O2- 0.0039(14) 0.0134(15) 0.0047(14) 0.0036(11) 0.0020(12) 0.0018(10)
O3 O2- 0.0113(15) 0.0073(14) 0.0102(15) -0.0002(12) 0.0066(13) 0.0018(11)
O4 O2- 0.016(2) 0.008(2) 0.0068(18) -0.0023(11) 0.0058(16) 0.0002(10)
O5 O2- 0.0118(15) 0.0131(16) 0.0071(14) -0.0031(11) 0.0063(13) -0.0017(11)
O6 O2- 0.0117(14) 0.0076(13) 0.0124(14) 0.0022(12) 0.0088(12) 0.0023(12)
#End of TTdata_416442-ICSD