
#(C) 2018 by FIZ Karlsruhe - Leibniz Institute for Information Infrastructure.  All rights reserved.
data_416608-ICSD
_database_code_ICSD 416608
_audit_creation_date 2009-02-01
_chemical_name_systematic 'Lithium hexafluoroarsenate(V) trihydrate'
_chemical_formula_structural 'Li (As F6) (H2 O)3'
_chemical_formula_sum 'H6 As1 F6 Li1 O3'
_exptl_crystal_density_diffrn 2.46
_cell_measurement_temperature 213.
_publ_section_title 'Lithium hexafluoroarsenate trihydrate'
loop_
_citation_id
_citation_journal_full
_citation_year
_citation_journal_volume
_citation_page_first
_citation_page_last
_citation_journal_id_ASTM
primary 'Private Communication' 2006 2006 1 1 PRICO6
loop_
_publ_author_name
'Thorn, A.'
'Willett, R.D.'
'Twamley, B.'
_cell_length_a 8.4184(8)
_cell_length_b 8.4184(8)
_cell_length_c 5.4919(6)
_cell_angle_alpha 90.
_cell_angle_beta 90.
_cell_angle_gamma 120.
_cell_volume 337.06
_cell_formula_units_Z 2
_symmetry_space_group_name_H-M 'P 63 m c'
_symmetry_Int_Tables_number 186
_refine_ls_R_factor_all 0.0168
loop_
_symmetry_equiv_pos_site_id
_symmetry_equiv_pos_as_xyz
1 '-x, -x+y, z+1/2'
2 'x-y, -y, z+1/2'
3 'y, x, z+1/2'
4 'x-y, x, z+1/2'
5 'y, -x+y, z+1/2'
6 '-x, -y, z+1/2'
7 'x, x-y, z'
8 '-x+y, y, z'
9 '-y, -x, z'
10 '-x+y, -x, z'
11 '-y, x-y, z'
12 'x, y, z'
loop_
_atom_type_symbol
_atom_type_oxidation_number
As5+ 5
F1- -1
Li1+ 1
O2- -2
H1+ 1
loop_
_atom_site_label
_atom_site_type_symbol
_atom_site_symmetry_multiplicity
_atom_site_Wyckoff_symbol
_atom_site_fract_x
_atom_site_fract_y
_atom_site_fract_z
_atom_site_B_iso_or_equiv
_atom_site_occupancy
_atom_site_attached_hydrogens
As1 As5+ 2 b 0.6667 0.3333 0.9323(3) 0.01933(17) 1 0
F1 F1- 6 c 0.8597(3) 0.42985(14) 0.7510(4) 0.0406(5) 1 0
F2 F1- 6 c 0.76329(14) 0.23671(14) 1.1084(3) 0.0380(5) 1 0
Li1 Li1+ 2 a 0. 0. 0.8035(16) 0.0277(17) 1 0
O1 O2- 6 c 0.11075(14) 0.2215(3) 1.0536(5) 0.0234(4) 1 0
H1 H1+ 12 d 0.082(4) 0.295(5) 1.056(9) 0.063(10) 1 0
loop_
_atom_site_aniso_label
_atom_site_aniso_type_symbol
_atom_site_aniso_U_11
_atom_site_aniso_U_22
_atom_site_aniso_U_33
_atom_site_aniso_U_12
_atom_site_aniso_U_13
_atom_site_aniso_U_23
As1 As5+ 0.01397(19) 0.01397(19) 0.0300(2) 0.00699(10) 0. 0.
F1 F1- 0.0281(9) 0.0343(7) 0.0572(11) 0.0140(4) 0.0190(9) 0.0095(4)
F2 F1- 0.0331(7) 0.0331(7) 0.0531(12) 0.0205(8) -0.0079(4) 0.0079(4)
Li1 Li1+ 0.032(3) 0.032(3) 0.019(4) 0.0160(14) 0. 0.
O1 O2- 0.0248(7) 0.0181(10) 0.0252(9) 0.0090(5) -0.0003(4) -0.0005(8)
#End of TTdata_416608-ICSD