
#(C) 2018 by FIZ Karlsruhe - Leibniz Institute for Information Infrastructure.  All rights reserved.
data_416695-ICSD
_database_code_ICSD 416695
_audit_creation_date 2008-08-01
_audit_update_record 2013-02-01
_chemical_name_systematic 'Hexalithium dodecamolybdate'
_chemical_formula_structural 'Li6 Mo12 O39'
_chemical_formula_sum 'Li6 Mo12 O39'
_exptl_crystal_density_diffrn 4.04
_cell_measurement_temperature 153.
_publ_section_title 'Polymorphism in Li2 Mo4 O13 revisited'
loop_
_citation_id
_citation_journal_full
_citation_year
_citation_journal_volume
_citation_page_first
_citation_page_last
_citation_journal_id_ASTM
primary 'Crystal Growth & Design' 2007 7 521 525 CGDEFU
loop_
_publ_author_name
'Smit, J.P.'
'Stair, P.C.'
'Poeppelmeier, K.R.'
_cell_length_a 8.2178(5)
_cell_length_b 21.2814(13)
_cell_length_c 8.5950(5)
_cell_angle_alpha 90.
_cell_angle_beta 96.0880(10)
_cell_angle_gamma 90.
_cell_volume 1494.67
_cell_formula_units_Z 2
_symmetry_space_group_name_H-M 'P 1 21 1'
_symmetry_Int_Tables_number 4
_refine_ls_R_factor_all 0.0225
loop_
_symmetry_equiv_pos_site_id
_symmetry_equiv_pos_as_xyz
1 '-x, y+1/2, -z'
2 'x, y, z'
loop_
_atom_type_symbol
_atom_type_oxidation_number
Mo6+ 6
O2- -2
Li1+ 1
loop_
_atom_site_label
_atom_site_type_symbol
_atom_site_symmetry_multiplicity
_atom_site_Wyckoff_symbol
_atom_site_fract_x
_atom_site_fract_y
_atom_site_fract_z
_atom_site_B_iso_or_equiv
_atom_site_occupancy
_atom_site_attached_hydrogens
Mo1 Mo6+ 2 a 0.54607(5) 0.50001(2) 0.58227(5) 0.00428(9) 1 0
Mo2 Mo6+ 2 a 0.93801(5) 0.50343(2) 0.56409(5) 0.00420(9) 1 0
Mo3 Mo6+ 2 a 0.89791(5) 0.50182(2) 0.93394(5) 0.00424(9) 1 0
Mo4 Mo6+ 2 a 0.94851(5) 0.69848(2) 0.58585(5) 0.00501(10) 1 0
Mo5 Mo6+ 2 a 0.79161(5) 0.16694(2) 0.74273(5) 0.00512(9) 1 0
Mo6 Mo6+ 2 a 0.28967(6) 0.50161(2) 0.91531(5) 0.00450(9) 1 0
Mo7 Mo6+ 2 a 0.61370(5) 0.86630(2) 0.25950(5) 0.00416(9) 1 0
Mo8 Mo6+ 2 a 0.55392(5) 0.70092(3) 0.60384(5) 0.00538(9) 1 0
Mo9 Mo6+ 2 a 0.60220(5) 0.66605(3) 0.23880(5) 0.00555(10) 1 0
Mo10 Mo6+ 2 a 0.77706(5) 0.36634(2) 0.72296(5) 0.00376(9) 1 0
Mo11 Mo6+ 2 a 0.26399(5) 0.86422(2) 0.90749(5) 0.00425(9) 1 0
Mo12 Mo6+ 2 a 0.86959(5) 0.86718(2) 0.92486(5) 0.00459(8) 1 0
O1 O2- 2 a 0.4127(5) 0.4740(3) 0.7480(4) 0.0044(11) 1 0
O2 O2- 2 a 0.5937(5) 0.9853(2) 0.5761(5) 0.0092(10) 1 0
O3 O2- 2 a 0.5499(5) 0.5788(2) 0.6077(5) 0.0105(10) 1 0
O4 O2- 2 a 0.7625(5) 0.4814(3) 0.7445(5) 0.0056(10) 1 0
O5 O2- 2 a 0.7260(4) 0.48914(19) 0.4540(4) 0.0057(8) 1 0
O6 O2- 2 a 0.9376(5) 0.9806(3) 0.5726(4) 0.0073(10) 1 0
O7 O2- 2 a 0.9342(6) 0.5835(3) 0.5593(5) 0.0088(10) 1 0
O8 O2- 2 a 0.9364(5) 0.9915(2) 0.2379(4) 0.0073(10) 1 0
O9 O2- 2 a 0.2287(5) 0.9748(2) 0.9306(5) 0.0068(9) 1 0
O10 O2- 2 a 0.8919(5) 0.5803(2) 0.9455(5) 0.0094(10) 1 0
O11 O2- 2 a 0.8941(5) 0.9794(2) 0.9509(5) 0.0058(9) 1 0
O12 O2- 2 a 0.0793(5) 0.6811(3) 0.7496(4) 0.0133(11) 1 0
O13 O2- 2 a 0.9175(7) 0.1824(3) 0.5746(6) 0.0080(7) 1 0
O14 O2- 2 a 0.9475(6) 0.7781(3) 0.5792(6) 0.0140(12) 1 0
O15 O2- 2 a 0.9264(5) 0.1877(2) 0.8993(5) 0.0128(10) 1 0
O16 O2- 2 a 0.7932(5) 0.0869(2) 0.7466(5) 0.0102(9) 1 0
O17 O2- 2 a 0.6093(4) 0.18349(19) 0.8700(4) 0.0065(8) 1 0
O18 O2- 2 a 0.4240(5) 0.6792(2) 0.4140(4) 0.0060(9) 1 0
O19 O2- 2 a 0.2814(6) 0.5804(3) 0.8975(5) 0.0103(11) 1 0
O20 O2- 2 a 0.7377(5) 0.8916(3) 0.0951(5) 0.0068(11) 1 0
O21 O2- 2 a 0.5729(4) 0.9900(2) 0.9237(4) 0.0091(9) 1 0
O22 O2- 2 a 0.7511(4) 0.8760(3) 0.4212(4) 0.0083(10) 1 0
O23 O2- 2 a 0.5980(5) 0.7869(3) 0.2413(5) 0.0089(11) 1 0
O24 O2- 2 a 0.4299(5) 0.8889(3) 0.3924(5) 0.0051(9) 1 0
O25 O2- 2 a 0.6114(5) 0.3783(2) 0.8912(5) 0.0060(9) 1 0
O26 O2- 2 a 0.7632(5) 0.6835(3) 0.7124(5) 0.0087(9) 1 0
O27 O2- 2 a 0.4316(5) 0.6826(3) 0.7449(5) 0.0152(11) 1 0
O28 O2- 2 a 0.5517(5) 0.7812(2) 0.5974(5) 0.0136(10) 1 0
O29 O2- 2 a 0.7317(5) 0.6863(2) 0.4283(4) 0.0068(9) 1 0
O30 O2- 2 a 0.6048(5) 0.5857(3) 0.2428(5) 0.0084(11) 1 0
O31 O2- 2 a 0.7221(5) 0.6849(3) 0.0948(4) 0.0091(9) 1 0
O32 O2- 2 a 0.9047(5) 0.3923(3) 0.5844(5) 0.0083(10) 1 0
O33 O2- 2 a 0.7769(5) 0.2870(2) 0.7110(5) 0.0085(9) 1 0
O34 O2- 2 a 0.9155(5) 0.3839(2) 0.9137(5) 0.0064(10) 1 0
O35 O2- 2 a 0.2688(6) 0.7848(3) 0.9057(5) 0.0150(13) 1 0
O36 O2- 2 a 0.3878(5) 0.8880(2) 0.7685(5) 0.0076(9) 1 0
O37 O2- 2 a 0.0495(4) 0.87723(18) 0.7994(4) 0.0077(8) 1 0
O38 O2- 2 a 0.8603(5) 0.7890(2) 0.9424(5) 0.0112(9) 1 0
O39 O2- 2 a 0.7322(5) 0.8860(2) 0.7668(4) 0.0090(8) 1 0
Li1 Li1+ 2 a 0.3796(11) 0.9969(7) 0.7649(11) 0.0098(18) 1 0
Li2 Li1+ 2 a 0.7881(9) 0.9976(6) 0.7314(9) 0.003 1 0
Li3 Li1+ 2 a 0.9501(10) 0.8685(6) 0.5761(10) 0.003 1 0
Li4 Li1+ 2 a 0.5450(9) 0.8689(6) 0.6106(9) 0.0028(15) 1 0
Li5 Li1+ 2 a 0.2835(11) 0.6855(4) 0.9071(10) 0.0033(19) 1 0
Li6 Li1+ 2 a 0.8775(12) 0.6851(4) 0.9342(11) 0.009(2) 1 0
loop_
_atom_site_aniso_label
_atom_site_aniso_type_symbol
_atom_site_aniso_U_11
_atom_site_aniso_U_22
_atom_site_aniso_U_33
_atom_site_aniso_U_12
_atom_site_aniso_U_13
_atom_site_aniso_U_23
Mo1 Mo6+ 0.00281(17) 0.0050(2) 0.00490(18) -0.00002(17) -0.00009(14) 0.00020(19)
Mo2 Mo6+ 0.00311(18) 0.0048(2) 0.00457(18) -0.00011(19) -0.00018(14) 0.00017(19)
Mo3 Mo6+ 0.00328(18) 0.0050(2) 0.00439(18) 0.00000(18) 0.00002(14) -0.00022(18)
Mo4 Mo6+ 0.0042(2) 0.0056(2) 0.00511(19) -0.00027(17) -0.00018(15) -0.00038(18)
Mo5 Mo6+ 0.00443(19) 0.0064(2) 0.00458(19) 0.00069(17) 0.00053(15) -0.00002(18)
Mo6 Mo6+ 0.00314(17) 0.0055(2) 0.00482(19) -0.00049(19) 0.00009(13) -0.00012(18)
Mo7 Mo6+ 0.00263(17) 0.0045(2) 0.00538(19) 0.00043(19) 0.00051(14) 0.0010(2)
Mo8 Mo6+ 0.00449(19) 0.0067(2) 0.0048(2) 0.00035(18) 0.00006(15) -0.00091(18)
Mo9 Mo6+ 0.0046(2) 0.0073(2) 0.0045(2) 0.00051(18) -0.00005(15) -0.00060(18)
Mo10 Mo6+ 0.00239(18) 0.0043(2) 0.00450(18) 0.00010(18) -0.00019(14)
-0.00012(18)
Mo11 Mo6+ 0.00316(19) 0.0054(2) 0.00410(18) 0.00028(17) 0.00007(14) -0.00030(17)
Mo12 Mo6+ 0.00394(17) 0.0053(2) 0.00446(18) -0.00023(17) 0.00002(14)
-0.00073(18)
O1 O2- 0.005(2) 0.004(2) 0.006(2) -0.0014(14) 0.0047(18) -0.0013(14)
O2 O2- 0.0059(18) 0.016(2) 0.0062(19) 0.0021(16) 0.0008(15) -0.0036(17)
O3 O2- 0.011(2) 0.008(2) 0.013(2) -0.0013(14) 0.0025(15) -0.0027(15)
O4 O2- 0.0045(18) 0.011(2) 0.0017(18) -0.0003(16) 0.0010(15) -0.0004(16)
O5 O2- 0.0054(16) 0.009(2) 0.0029(16) 0.0009(14) 0.0017(13) 0.0023(14)
O6 O2- 0.007(2) 0.013(2) 0.004(2) 0.0006(16) 0.0043(16) -0.0011(16)
O7 O2- 0.009(2) 0.008(3) 0.009(2) 0.0010(15) -0.0022(16) 0.0027(17)
O8 O2- 0.0031(16) 0.013(3) 0.0060(18) -0.0003(15) -0.0008(14) 0.0009(15)
O9 O2- 0.0081(19) 0.008(2) 0.0055(19) 0.0020(16) 0.0056(16) -0.0006(16)
O10 O2- 0.008(2) 0.011(2) 0.009(2) -0.0023(15) -0.0005(16) -0.0020(16)
O11 O2- 0.0047(19) 0.009(2) 0.0042(18) -0.0015(15) 0.0024(15) 0.0013(15)
O12 O2- 0.012(2) 0.018(3) 0.009(2) 0.0001(15) 0.0011(17) -0.0024(15)
O13 O2- 0.0071(16) 0.0095(19) 0.0077(16) -0.0013(12) 0.0021(12) -0.0033(12)
O14 O2- 0.019(3) 0.008(3) 0.016(2) 0.0016(17) 0.0042(19) -0.0005(17)
O15 O2- 0.010(2) 0.015(2) 0.013(2) 0.0029(15) -0.0012(16) -0.0019(18)
O16 O2- 0.010(2) 0.009(2) 0.012(2) 0.0009(14) 0.0005(16) 0.0019(15)
O17 O2- 0.0043(17) 0.0108(19) 0.0039(16) -0.0006(13) -0.0019(13) -0.0017(14)
O18 O2- 0.0052(19) 0.012(2) 0.0010(17) -0.0026(14) -0.0016(15) -0.0018(15)
O19 O2- 0.010(2) 0.008(2) 0.012(2) 0.0002(16) 0.0008(17) -0.0003(16)
O20 O2- 0.002(2) 0.007(2) 0.011(2) -0.0013(15) -0.0024(18) 0.0018(16)
O21 O2- 0.0075(18) 0.013(2) 0.0065(19) 0.0013(14) -0.0016(14) 0.0019(15)
O22 O2- 0.009(2) 0.005(2) 0.011(2) -0.0007(14) 0.0010(16) -0.0018(15)
O23 O2- 0.010(2) 0.006(2) 0.011(2) 0.0006(14) 0.0047(17) -0.0009(15)
O24 O2- 0.004(2) 0.004(2) 0.0064(19) 0.0010(16) -0.0019(15) -0.0009(16)
O25 O2- 0.0055(17) 0.005(2) 0.0074(18) 0.0003(15) 0.0005(14) 0.0005(15)
O26 O2- 0.0048(18) 0.017(2) 0.0042(19) -0.0040(14) 0.0002(15) -0.0017(18)
O27 O2- 0.009(2) 0.023(3) 0.015(2) 0.0038(18) 0.0047(17) 0.0007(17)
O28 O2- 0.016(2) 0.004(2) 0.021(2) 0.0015(15) 0.0030(18) -0.0027(17)
O29 O2- 0.0042(18) 0.009(2) 0.0070(19) 0.0007(13) -0.0016(16) -0.0005(14)
O30 O2- 0.008(2) 0.009(3) 0.007(2) 0.0010(15) -0.0037(17) 0.0014(15)
O31 O2- 0.010(2) 0.012(2) 0.0047(19) -0.0027(18) -0.0011(15) 0.0022(14)
O32 O2- 0.002(2) 0.012(2) 0.010(2) 0.0012(17) -0.0042(17) 0.0009(18)
O33 O2- 0.010(2) 0.004(2) 0.0112(19) 0.0015(14) 0.0012(16) 0.0004(16)
O34 O2- 0.0039(18) 0.008(2) 0.007(2) 0.0001(14) 0.0001(15) 0.0003(16)
O35 O2- 0.015(2) 0.014(3) 0.016(3) 0.0004(18) 0.002(2) 0.0046(18)
O36 O2- 0.0062(17) 0.010(2) 0.0065(19) 0.0022(17) -0.0016(15) -0.0001(16)
O37 O2- 0.0079(16) 0.0096(19) 0.0056(17) -0.0003(13) 0.0000(14) 0.0006(14)
O38 O2- 0.0109(19) 0.012(2) 0.0118(19) -0.0008(15) 0.0039(15) -0.0012(15)
O39 O2- 0.0066(18) 0.012(2) 0.0088(19) 0.0001(14) 0.0012(15) 0.0019(15)
#End of TTdata_416695-ICSD