
#(C) 2018 by FIZ Karlsruhe - Leibniz Institute for Information Infrastructure.  All rights reserved.
data_416890-ICSD
_database_code_ICSD 416890
_audit_creation_date 2008-02-01
_chemical_name_systematic 'Lithium barium phosphide'
_chemical_formula_structural 'Li Ba P'
_chemical_formula_sum 'Ba1 Li1 P1'
_chemical_name_structure_type ZrBeSi
_exptl_crystal_density_diffrn 3.86
_cell_measurement_temperature 167.
_publ_section_title

;
Synthesis and single crystal structures of ternary phosphides Li4 Sr P2 and A
Ae P (A = Li, Na; Ae = Sr, Ba)
;
loop_
_citation_id
_citation_journal_full
_citation_year
_citation_journal_volume
_citation_page_first
_citation_page_last
_citation_journal_id_ASTM
primary 'Journal of Solid State Chemistry' 2007 180 432 439 JSSCBI
loop_
_publ_author_name
'Dong Yong-Kwan'
'DiSalvo, F.J.'
_cell_length_a 4.5003(2)
_cell_length_b 4.5003(2)
_cell_length_c 8.6049(7)
_cell_angle_alpha 90
_cell_angle_beta 90
_cell_angle_gamma 120
_cell_volume 150.92
_cell_formula_units_Z 2
_symmetry_space_group_name_H-M 'P 63/m m c'
_symmetry_Int_Tables_number 194
_refine_ls_R_factor_all 0.0098
loop_
_symmetry_equiv_pos_site_id
_symmetry_equiv_pos_as_xyz
1 'x, x-y, -z+1/2'
2 '-x+y, y, -z+1/2'
3 '-y, -x, -z+1/2'
4 '-x+y, -x, -z+1/2'
5 '-y, x-y, -z+1/2'
6 'x, y, -z+1/2'
7 '-x, -x+y, z+1/2'
8 'x-y, -y, z+1/2'
9 'y, x, z+1/2'
10 'x-y, x, z+1/2'
11 'y, -x+y, z+1/2'
12 '-x, -y, z+1/2'
13 '-x, -x+y, -z'
14 'x-y, -y, -z'
15 'y, x, -z'
16 'x-y, x, -z'
17 'y, -x+y, -z'
18 '-x, -y, -z'
19 'x, x-y, z'
20 '-x+y, y, z'
21 '-y, -x, z'
22 '-x+y, -x, z'
23 '-y, x-y, z'
24 'x, y, z'
loop_
_atom_type_symbol
_atom_type_oxidation_number
Li1+ 1
Ba2+ 2
P3- -3
loop_
_atom_site_label
_atom_site_type_symbol
_atom_site_symmetry_multiplicity
_atom_site_Wyckoff_symbol
_atom_site_fract_x
_atom_site_fract_y
_atom_site_fract_z
_atom_site_B_iso_or_equiv
_atom_site_occupancy
_atom_site_attached_hydrogens
Li1 Li1+ 2 c 0.3333 0.6667 0.25 0.0122(8) 1 0
Ba1 Ba2+ 2 a 0. 0. 0. 0.00731(5) 1 0
P1 P3- 2 d 0.3333 0.6667 0.75 0.00687(9) 1 0
loop_
_atom_site_aniso_label
_atom_site_aniso_type_symbol
_atom_site_aniso_U_11
_atom_site_aniso_U_22
_atom_site_aniso_U_33
_atom_site_aniso_U_12
_atom_site_aniso_U_13
_atom_site_aniso_U_23
Li1 Li1+ 0.0103(10) 0.0103(10) 0.0162(18) 0.0051(5) 0. 0.
Ba1 Ba2+ 0.00738(5) 0.00738(5) 0.00717(6) 0.00369(3) 0. 0.
P1 P3- 0.00574(12) 0.00574(12) 0.00913(19) 0.00287(6) 0. 0.
#End of TTdata_416890-ICSD