
#(C) 2018 by FIZ Karlsruhe - Leibniz Institute for Information Infrastructure.  All rights reserved.
data_416878-ICSD
_database_code_ICSD 416878
_audit_creation_date 2007-04-01
_audit_update_record 2008-02-01
_chemical_name_systematic 'Europium lithium tetrakis(catena-phosphate(V))'
_chemical_formula_structural 'Eu Li (P O3)4'
_chemical_formula_sum 'Eu1 Li1 O12 P4'
_chemical_name_structure_type LiYb(PO3)4
_exptl_crystal_density_diffrn 3.52
_publ_section_title

;
A series of lithium rare earth polyphosphates [Li Ln (P O3)4] (Ln = La, Eu,
Gd) and their structural, optical, and electronic propertie
;
loop_
_citation_id
_citation_journal_full
_citation_year
_citation_journal_volume
_citation_page_first
_citation_page_last
_citation_journal_id_ASTM
primary 'European Journal of Inorganic Chemistry' 2007 2007 285 290 EJICFO
loop_
_publ_author_name
'Zhu Jing'
'Cheng Wen Dan'
'Wu Dongsheng'
'Zhang Hao'
'Gong Yajing'
'Tong Huanan'
'Zhao Dan'
_cell_length_a 16.3300(9)
_cell_length_b 7.0330(4)
_cell_length_c 9.6465(6)
_cell_angle_alpha 90.
_cell_angle_beta 126.14(3)
_cell_angle_gamma 90.
_cell_volume 894.71
_cell_formula_units_Z 4
_symmetry_space_group_name_H-M 'C 1 2/c 1'
_symmetry_Int_Tables_number 15
_refine_ls_R_factor_all 0.0279
loop_
_symmetry_equiv_pos_site_id
_symmetry_equiv_pos_as_xyz
1 'x, -y, z+1/2'
2 '-x, -y, -z'
3 '-x, y, -z+1/2'
4 'x, y, z'
5 'x+1/2, -y+1/2, z+1/2'
6 '-x+1/2, -y+1/2, -z'
7 '-x+1/2, y+1/2, -z+1/2'
8 'x+1/2, y+1/2, z'
loop_
_atom_type_symbol
_atom_type_oxidation_number
Eu3+ 3
P5+ 5
O2- -2
Li1+ 1
loop_
_atom_site_label
_atom_site_type_symbol
_atom_site_symmetry_multiplicity
_atom_site_Wyckoff_symbol
_atom_site_fract_x
_atom_site_fract_y
_atom_site_fract_z
_atom_site_B_iso_or_equiv
_atom_site_occupancy
_atom_site_attached_hydrogens
Eu1 Eu3+ 4 e 0.5 0.79844(4) 0.25 0.00648(11) 1 0
P1 P5+ 8 f 0.36159(9) 0.55421(15) -0.16224(14) 0.0063(2) 1 0
P2 P5+ 8 f 0.64790(9) 0.84590(16) 0.09692(14) 0.0064(2) 1 0
O1 O2- 8 f 0.3860(3) 0.7177(4) -0.0470(4) 0.0122(7) 1 0
O2 O2- 8 f 0.6589(3) 0.6216(4) 0.0840(4) 0.0099(6) 1 0
O3 O2- 8 f 0.2561(2) 0.5825(5) -0.3433(4) 0.0105(6) 1 0
O4 O2- 8 f 0.5653(2) 0.4961(4) 0.2020(4) 0.0098(6) 1 0
O5 O2- 8 f 0.5729(2) 0.9080(4) -0.0830(4) 0.0096(6) 1 0
O6 O2- 8 f 0.6295(3) 0.8856(4) 0.2272(4) 0.0109(7) 1 0
Li1 Li1+ 4 e 0.5 0.2966(16) 0.25 0.015(2) 1 0
loop_
_atom_site_aniso_label
_atom_site_aniso_type_symbol
_atom_site_aniso_U_11
_atom_site_aniso_U_22
_atom_site_aniso_U_33
_atom_site_aniso_U_12
_atom_site_aniso_U_13
_atom_site_aniso_U_23
Eu1 Eu3+ 0.00831(18) 0.00626(17) 0.00713(17) 0. 0.00580(14) 0.
P1 P5+ 0.0075(6) 0.0059(5) 0.0073(5) 0.0006(4) 0.0054(5) 0.0007(4)
P2 P5+ 0.0070(6) 0.0068(5) 0.0068(5) -0.0005(4) 0.0048(5) -0.0005(4)
O1 O2- 0.0143(18) 0.0088(16) 0.0111(17) -0.0001(13) 0.0061(15) -0.0027(12)
O2 O2- 0.0149(17) 0.0058(15) 0.0137(16) 0.0009(13) 0.0109(15) 0.0010(12)
O3 O2- 0.0069(16) 0.0174(16) 0.0067(15) 0.0016(13) 0.0038(13) -0.0012(12)
O4 O2- 0.0095(17) 0.0108(15) 0.0123(17) 0.0031(12) 0.0082(15) 0.0027(12)
O5 O2- 0.0094(16) 0.0089(14) 0.0068(15) 0.0008(12) 0.0026(13) 0.0008(12)
O6 O2- 0.0133(17) 0.0123(15) 0.0125(16) -0.0009(14) 0.0106(15) -0.0018(13)
Li1 Li1+ 0.014(6) 0.014(6) 0.013(6) 0. 0.007(5) 0.
#End of TTdata_416878-ICSD