
#(C) 2018 by FIZ Karlsruhe - Leibniz Institute for Information Infrastructure.  All rights reserved.
data_416879-ICSD
_database_code_ICSD 416879
_audit_creation_date 2007-04-01
_audit_update_record 2008-02-01
_chemical_name_systematic 'Gadolinium lithium tetrakis(catena-phosphate(V))'
_chemical_formula_structural 'Gd Li (P O3)4'
_chemical_formula_sum 'Gd1 Li1 O12 P4'
_chemical_name_structure_type LiYb(PO3)4
_exptl_crystal_density_diffrn 3.56
_publ_section_title

;
A series of lithium rare earth polyphosphates [Li Ln (P O3)4] (Ln = La, Eu,
Gd) and their structural, optical, and electronic propertie
;
loop_
_citation_id
_citation_journal_full
_citation_year
_citation_journal_volume
_citation_page_first
_citation_page_last
_citation_journal_id_ASTM
primary 'European Journal of Inorganic Chemistry' 2007 2007 285 290 EJICFO
loop_
_publ_author_name
'Zhu Jing'
'Cheng Wen Dan'
'Wu Dongsheng'
'Zhang Hao'
'Gong Yajing'
'Tong Huanan'
'Zhao Dan'
_cell_length_a 16.3302(13)
_cell_length_b 7.0327(4)
_cell_length_c 9.6450(8)
_cell_angle_alpha 90.
_cell_angle_beta 126.12(4)
_cell_angle_gamma 90.
_cell_volume 894.77
_cell_formula_units_Z 4
_symmetry_space_group_name_H-M 'C 1 2/c 1'
_symmetry_Int_Tables_number 15
_refine_ls_R_factor_all 0.0323
loop_
_symmetry_equiv_pos_site_id
_symmetry_equiv_pos_as_xyz
1 'x, -y, z+1/2'
2 '-x, -y, -z'
3 '-x, y, -z+1/2'
4 'x, y, z'
5 'x+1/2, -y+1/2, z+1/2'
6 '-x+1/2, -y+1/2, -z'
7 '-x+1/2, y+1/2, -z+1/2'
8 'x+1/2, y+1/2, z'
loop_
_atom_type_symbol
_atom_type_oxidation_number
Gd3+ 3
P5+ 5
O2- -2
Li1+ 1
loop_
_atom_site_label
_atom_site_type_symbol
_atom_site_symmetry_multiplicity
_atom_site_Wyckoff_symbol
_atom_site_fract_x
_atom_site_fract_y
_atom_site_fract_z
_atom_site_B_iso_or_equiv
_atom_site_occupancy
_atom_site_attached_hydrogens
Gd1 Gd3+ 4 e 0.5 0.79790(6) 0.25 0.0059(2) 1 0
P1 P5+ 8 f 0.36186(12) 0.5536(2) -0.1618(2) 0.0054(4) 1 0
P2 P5+ 8 f 0.64754(12) 0.8469(2) 0.0971(2) 0.0060(4) 1 0
O1 O2- 8 f 0.3863(4) 0.7169(6) -0.0456(6) 0.0101(10) 1 0
O2 O2- 8 f 0.6581(4) 0.6215(7) 0.0822(6) 0.0104(9) 1 0
O3 O2- 8 f 0.2552(3) 0.5811(7) -0.3436(6) 0.0093(9) 1 0
O4 O2- 8 f 0.5652(4) 0.4967(7) 0.2020(6) 0.0089(9) 1 0
O5 O2- 8 f 0.5723(4) 0.9109(7) -0.0833(6) 0.0099(9) 1 0
O6 O2- 8 f 0.6289(4) 0.8854(7) 0.2278(6) 0.0107(9) 1 0
Li1 Li1+ 4 e 0.5 0.297(2) 0.25 0.014(4) 1 0
loop_
_atom_site_aniso_label
_atom_site_aniso_type_symbol
_atom_site_aniso_U_11
_atom_site_aniso_U_22
_atom_site_aniso_U_33
_atom_site_aniso_U_12
_atom_site_aniso_U_13
_atom_site_aniso_U_23
Gd1 Gd3+ 0.0050(3) 0.0061(3) 0.0041(3) 0. 0.0013(2) 0.
P1 P5+ 0.0042(7) 0.0044(7) 0.0043(7) 0.0004(5) 0.0007(6) 0.0004(5)
P2 P5+ 0.0044(7) 0.0062(7) 0.0042(7) -0.0002(6) 0.0008(6) 0.0005(6)
O1 O2- 0.012(2) 0.005(2) 0.008(2) -0.0013(16) 0.0024(19) -0.0026(16)
O2 O2- 0.014(2) 0.006(2) 0.014(2) 0.0021(18) 0.010(2) -0.0009(17)
O3 O2- 0.006(2) 0.013(2) 0.0053(19) 0.0038(17) 0.0011(17) 0.0004(17)
O4 O2- 0.008(2) 0.009(2) 0.009(2) 0.0010(17) 0.0044(18) 0.0023(17)
O5 O2- 0.009(2) 0.007(2) 0.0044(19) 0.0003(17) -0.0015(17) 0.0018(17)
O6 O2- 0.013(2) 0.009(2) 0.010(2) -0.0014(18) 0.0067(19) -0.0017(17)
Li1 Li1+ 0.009(8) 0.007(8) 0.018(9) 0. 0.004(7) 0.
#End of TTdata_416879-ICSD