
#(C) 2018 by FIZ Karlsruhe - Leibniz Institute for Information Infrastructure.  All rights reserved.
data_417279-ICSD
_database_code_ICSD 417279
_audit_creation_date 2008-02-01
_audit_update_record 2011-02-01
_chemical_name_systematic 'Dilithium oxovanadosilicate'
_chemical_formula_structural 'Li2 (V O) (Si O4)'
_chemical_formula_sum 'Li2 O5 Si1 V1'
_chemical_name_structure_type Li2TiSiO5
_exptl_crystal_density_diffrn 3.17
_cell_measurement_temperature 373.
_publ_section_title 'High temperature structural behaviour of Li2 V O Si O4'
loop_
_citation_id
_citation_journal_full
_citation_year
_citation_journal_volume
_citation_page_first
_citation_page_last
_citation_journal_id_ASTM
primary 'Zeitschrift fuer Kristallographie (1979-2010)' 2007 222 350 355 ZEKRDZ
loop_
_publ_author_name
'Zema, M.'
'Tarantino, S.C.'
'Ghigna, P.'
'Montagna, G.'
_cell_length_a 6.3717(4)
_cell_length_b 6.3717(4)
_cell_length_c 4.4619(5)
_cell_angle_alpha 90.
_cell_angle_beta 90.
_cell_angle_gamma 90.
_cell_volume 181.15
_cell_formula_units_Z 2
_symmetry_space_group_name_H-M 'P 4/n m m Z'
_symmetry_Int_Tables_number 129
_refine_ls_R_factor_all 0.0302
loop_
_symmetry_equiv_pos_site_id
_symmetry_equiv_pos_as_xyz
1 'y+1/2, x+1/2, -z'
2 '-y, x+1/2, -z'
3 'y+1/2, -x, -z'
4 '-y, -x, -z'
5 'x+1/2, y+1/2, -z'
6 '-x, y+1/2, -z'
7 'x+1/2, -y, -z'
8 '-x, -y, -z'
9 '-y+1/2, -x+1/2, z'
10 'y, -x+1/2, z'
11 '-y+1/2, x, z'
12 'y, x, z'
13 '-x+1/2, -y+1/2, z'
14 'x, -y+1/2, z'
15 '-x+1/2, y, z'
16 'x, y, z'
loop_
_atom_type_symbol
_atom_type_oxidation_number
V4+ 4
Si4+ 4
O2- -2
Li1+ 1
loop_
_atom_site_label
_atom_site_type_symbol
_atom_site_symmetry_multiplicity
_atom_site_Wyckoff_symbol
_atom_site_fract_x
_atom_site_fract_y
_atom_site_fract_z
_atom_site_B_iso_or_equiv
_atom_site_occupancy
_atom_site_attached_hydrogens
V1 V4+ 2 c 0.25 0.25 0.4133(3) 0.0070(4) 1 0
Si1 Si4+ 2 b 0.75 0.25 0.5 0.0033(5) 1 0
O1 O2- 8 i 0.5435(3) 0.25 0.2832(5) 0.0090(6) 1 0
O2 O2- 2 c 0.25 0.25 0.7781(13) 0.0161(14) 1 0
Li1 Li1+ 4 d 0.5 0. 0. 0.024(2) 1 0
loop_
_atom_site_aniso_label
_atom_site_aniso_type_symbol
_atom_site_aniso_U_11
_atom_site_aniso_U_22
_atom_site_aniso_U_33
_atom_site_aniso_U_12
_atom_site_aniso_U_13
_atom_site_aniso_U_23
V1 V4+ 0.0066(5) 0.0066(5) 0.0080(7) 0. 0. 0.
Si1 Si4+ 0.0022(7) 0.0022(7) 0.0056(10) 0. 0. 0.
O1 O2- 0.0044(14) 0.0124(12) 0.0102(14) 0. -0.0005(11) 0.
O2 O2- 0.018(2) 0.018(2) 0.012(3) 0. 0. 0.
Li1 Li1+ 0.025(3) 0.025(3) 0.020(6) -0.001(6) 0.007(3) -0.007(3)
#End of TTdata_417279-ICSD