
#(C) 2018 by FIZ Karlsruhe - Leibniz Institute for Information Infrastructure.  All rights reserved.
data_417374-ICSD
_database_code_ICSD 417374
_audit_creation_date 2009-02-01
_audit_update_record 2011-02-01
_chemical_name_systematic 'Lithium dicobalt trihydrogen bis(diphosphate)'
_chemical_formula_structural 'Li Co2 H3 (P2 O7)2'
_chemical_formula_sum 'H3 Co2 Li1 O14 P4'
_exptl_crystal_density_diffrn 2.98
_cell_measurement_temperature 293.
_publ_section_title

;
Two isotypic diphosphates Li M2 H3 (P2 O7)2 (M = Ni, Co) containing
ferromagnetic zigzag M O6 chains
;
loop_
_citation_id
_citation_journal_full
_citation_year
_citation_journal_volume
_citation_page_first
_citation_page_last
_citation_journal_id_ASTM
primary 'Journal of Solid State Chemistry' 2008 181 1347 1353 JSSCBI
loop_
_publ_author_name
'Yang Tao'
'Yang Sihai'
'Liao Fuhui'
'Lin Jian Hua'
_cell_length_a 10.999(2)
_cell_length_b 12.863(3)
_cell_length_c 8.9419(18)
_cell_angle_alpha 90.
_cell_angle_beta 123.00(3)
_cell_angle_gamma 90.
_cell_volume 1061.
_cell_formula_units_Z 4
_symmetry_space_group_name_H-M 'C 1 2/c 1'
_symmetry_Int_Tables_number 15
_refine_ls_R_factor_all 0.0353
loop_
_symmetry_equiv_pos_site_id
_symmetry_equiv_pos_as_xyz
1 'x, -y, z+1/2'
2 '-x, -y, -z'
3 '-x, y, -z+1/2'
4 'x, y, z'
5 'x+1/2, -y+1/2, z+1/2'
6 '-x+1/2, -y+1/2, -z'
7 '-x+1/2, y+1/2, -z+1/2'
8 'x+1/2, y+1/2, z'
loop_
_atom_type_symbol
_atom_type_oxidation_number
Co2+ 2
P5+ 5
O2- -2
H1+ 1
O2- -2
H1+ 1
O2- -2
Li1+ 1
loop_
_atom_site_label
_atom_site_type_symbol
_atom_site_symmetry_multiplicity
_atom_site_Wyckoff_symbol
_atom_site_fract_x
_atom_site_fract_y
_atom_site_fract_z
_atom_site_B_iso_or_equiv
_atom_site_occupancy
_atom_site_attached_hydrogens
Co1 Co2+ 4 e 0. 0.09197(5) 0.75 0.0074(3) 1 0
Co2 Co2+ 4 c 0.25 0.25 1. 0.0080(3) 1 0
P1 P5+ 8 f 0.22529(10) 0.04474(7) 1.18782(12) 0.0066(3) 1 0
P2 P5+ 8 f 0.07134(10) 0.28469(7) 0.56951(12) 0.0066(3) 1 0
O1 O2- 8 f 0.1863(3) 0.10361(19) 1.0201(3) 0.0098(6) 1 0
O2 O2- 8 f 0.3026(3) -0.0561(2) 1.1939(4) 0.0155(6) 1 0
H1 H1+ 8 f 0.3256 -0.0886 1.2847 0.023 1 0
O3 O2- 8 f 0.1145(3) 0.2155(2) 0.7283(3) 0.0081(6) 1 0
O4 O2- 8 f 0.0884(3) 0.3106(2) 1.0373(4) 0.0139(6) 1 0
O5 O2- 8 f -0.0984(3) -0.0295(2) 0.7935(3) 0.0116(6) 1 0
O6 O2- 8 f 0.1196(3) 0.2399(2) 0.4509(4) 0.0124(6) 1 0
H2 H1+ 8 f 0.2075 0.2473 0.5003 0.019 0.5 0
O7 O2- 8 f 0.3428(3) 0.1088(2) 1.3571(4) 0.0180(7) 1 0
Li1 Li1+ 4 e 0. -0.1436(8) 0.75 0.019(2) 1 0
loop_
_atom_site_aniso_label
_atom_site_aniso_type_symbol
_atom_site_aniso_U_11
_atom_site_aniso_U_22
_atom_site_aniso_U_33
_atom_site_aniso_U_12
_atom_site_aniso_U_13
_atom_site_aniso_U_23
Co1 Co2+ 0.0088(5) 0.0040(4) 0.0079(4) 0. 0.0036(4) 0.
Co2 Co2+ 0.0098(5) 0.0056(5) 0.0068(4) -0.0016(3) 0.0033(4) -0.0002(2)
P1 P5+ 0.0083(5) 0.0039(5) 0.0059(5) -0.0010(3) 0.0028(4) 0.0003(3)
P2 P5+ 0.0073(6) 0.0056(5) 0.0053(5) -0.0013(3) 0.0023(4) -0.0001(3)
O1 O2- 0.0125(13) 0.0072(13) 0.0057(12) -0.0034(10) 0.0024(11) 0.0006(10)
O2 O2- 0.0233(16) 0.0101(14) 0.0162(14) 0.0071(12) 0.0127(12) 0.0038(11)
O3 O2- 0.0089(13) 0.0064(12) 0.0075(12) -0.0014(10) 0.0035(11) -0.0001(10)
O4 O2- 0.0090(14) 0.0128(13) 0.0143(13) -0.0015(11) 0.0028(12) -0.0059(11)
O5 O2- 0.0122(15) 0.0088(13) 0.0174(14) -0.0021(11) 0.0104(12) -0.0002(11)
O6 O2- 0.0126(14) 0.0167(14) 0.0086(13) 0.0008(11) 0.0063(13) -0.0016(11)
O7 O2- 0.0227(16) 0.0111(14) 0.0082(13) -0.0121(13) 0.0008(13) -0.0014(11)
Li1 Li1+ 0.015(5) 0.011(4) 0.027(5) 0. 0.010(4) 0.
#End of TTdata_417374-ICSD