
#(C) 2018 by FIZ Karlsruhe - Leibniz Institute for Information Infrastructure.  All rights reserved.
data_417413-ICSD
_database_code_ICSD 417413
_audit_creation_date 2008-08-01
_chemical_name_systematic 'Lithium manganate(VII) trihydrate'
_chemical_formula_structural 'Li (Mn O4) (H2 O)3'
_chemical_formula_sum 'H6 Li1 Mn1 O7'
_chemical_name_structure_type LiClO4(H2O)3
_exptl_crystal_density_diffrn 2.1
_cell_measurement_temperature 293.
_publ_section_title

;
Magnesiumpermanganat - Hexahydrat Mg [Mn O4]2 * 6 H2 O und seine
Schraegbeziehung zum Lithiumpermanganat - Trihydrat Li [Mn O4] * 3 H2 O
;
loop_
_citation_id
_citation_journal_full
_citation_year
_citation_journal_volume
_citation_page_first
_citation_page_last
_citation_journal_id_ASTM
primary 'Zeitschrift fuer Kristallographie, Supplement Issue' 2007 25 20 20
ZKSUP2
loop_
_publ_author_name
'Bauchert, J.M.'
'Glaeser, R.J.'
'Hartenbach, I.'
'Hasse, H.'
'Schleid, T.'
_cell_length_a 7.7702(8)
_cell_length_b 7.7702(8)
_cell_length_c 5.4345(5)
_cell_angle_alpha 90.
_cell_angle_beta 90.
_cell_angle_gamma 120.
_cell_volume 284.15
_cell_formula_units_Z 2
_symmetry_space_group_name_H-M 'P 63 m c'
_symmetry_Int_Tables_number 186
_refine_ls_R_factor_all 0.0265
loop_
_symmetry_equiv_pos_site_id
_symmetry_equiv_pos_as_xyz
1 '-x, -x+y, z+1/2'
2 'x-y, -y, z+1/2'
3 'y, x, z+1/2'
4 'x-y, x, z+1/2'
5 'y, -x+y, z+1/2'
6 '-x, -y, z+1/2'
7 'x, x-y, z'
8 '-x+y, y, z'
9 '-y, -x, z'
10 '-x+y, -x, z'
11 '-y, x-y, z'
12 'x, y, z'
loop_
_atom_type_symbol
_atom_type_oxidation_number
Li1+ 1
Mn7+ 7
O2- -2
H1+ 1
loop_
_atom_site_label
_atom_site_type_symbol
_atom_site_symmetry_multiplicity
_atom_site_Wyckoff_symbol
_atom_site_fract_x
_atom_site_fract_y
_atom_site_fract_z
_atom_site_B_iso_or_equiv
_atom_site_occupancy
_atom_site_attached_hydrogens
Li1 Li1+ 2 a 0. 0. 0.245(3) 0.0326(14) 1 0
Mn1 Mn7+ 2 b 0.3333 0.6667 0.00000(9) 0.02079(16) 1 0
O1 O2- 2 b 0.3333 0.6667 0.3029(8) 0.0371(8) 1 0
O2 O2- 6 c 0.44648(14) 0.55352(14) 0.9021(4) 0.0350(5) 1 0
O3 O2- 6 c 0.12138(13) 0.87862(13) 0.4837(5) 0.0263(4) 1 0
H1 H1+ 12 d 0.314(3) 0.229(3) 0.946(5) 0.028(7) 1 0
loop_
_atom_site_aniso_label
_atom_site_aniso_type_symbol
_atom_site_aniso_U_11
_atom_site_aniso_U_22
_atom_site_aniso_U_33
_atom_site_aniso_U_12
_atom_site_aniso_U_13
_atom_site_aniso_U_23
Li1 Li1+ 0.0288(18) 0.0288(18) 0.040(4) 0.0144(9) 0. 0.
Mn1 Mn7+ 0.01635(16) 0.01635(16) 0.0297(3) 0.00817(8) 0. 0.
O1 O2- 0.0366(12) 0.0366(12) 0.038(2) 0.0183(6) 0. 0.
O2 O2- 0.0308(8) 0.0308(8) 0.0492(13) 0.0198(9) 0.0038(4) -0.0038(4)
O3 O2- 0.0234(5) 0.0234(5) 0.0337(11) 0.0129(6) 0.0027(6) -0.0027(6)
#End of TTdata_417413-ICSD