
#(C) 2017 by FIZ Karlsruhe - Leibniz Institute for Information Infrastructure.  All rights reserved.
data_417512-ICSD
_database_code_ICSD 417512
_audit_creation_date 2008-02-01
_chemical_name_systematic 'Lithium tetrafluoromanganate(III) hydrate'
_chemical_formula_structural 'Li Mn F4 (H2 O)'
_chemical_formula_sum 'H2 F4 Li1 Mn1 O1'
_exptl_crystal_density_diffrn 2.91
_cell_measurement_temperature 193.
_publ_section_title
'Jahn-Teller-Ordnung in der Schichtstruktur von Li [Mn F4] . H2 O'
loop_
_citation_id
_citation_journal_full
_citation_year
_citation_journal_volume
_citation_page_first
_citation_page_last
_citation_journal_id_ASTM
primary 'Zeitschrift fuer Anorganische und Allgemeine Chemie (1950) (DE)' 2007
633 690 692 ZAACAB
loop_
_publ_author_name
'Massa, W.'
_cell_length_a 5.3552(14)
_cell_length_b 12.358(3)
_cell_length_c 5.3810(14)
_cell_angle_alpha 90.
_cell_angle_beta 90.
_cell_angle_gamma 90.
_cell_volume 356.11
_cell_formula_units_Z 4
_symmetry_space_group_name_H-M 'P n m a'
_symmetry_Int_Tables_number 62
_refine_ls_R_factor_all 0.0711
loop_
_symmetry_equiv_pos_site_id
_symmetry_equiv_pos_as_xyz
1 'x+1/2, y, -z+1/2'
2 'x, -y+1/2, z'
3 '-x+1/2, y+1/2, z+1/2'
4 '-x, -y, -z'
5 '-x+1/2, -y, z+1/2'
6 '-x, y+1/2, -z'
7 'x+1/2, -y+1/2, -z+1/2'
8 'x, y, z'
loop_
_atom_type_symbol
_atom_type_oxidation_number
Mn3+ 3
F1- -1
O2- -2
Li1+ 1
H1+ 1
loop_
_atom_site_label
_atom_site_type_symbol
_atom_site_symmetry_multiplicity
_atom_site_Wyckoff_symbol
_atom_site_fract_x
_atom_site_fract_y
_atom_site_fract_z
_atom_site_B_iso_or_equiv
_atom_site_occupancy
_atom_site_attached_hydrogens
Mn1 Mn3+ 4 b 0. 0. 0.5 0.0109(3) 1 0
F1 F1- 8 d 0.2788(6) 0.0409(3) 0.6837(5) 0.0187(7) 1 0
F2 F1- 8 d -0.0328(6) 0.1401(3) 0.3940(5) 0.0170(7) 1 0
O1 O2- 4 c 0.4597(11) 0.25 0.5449(9) 0.0178(13) 1 0
Li1 Li1+ 4 c 0.217(3) 0.25 0.234(2) 0.022(3) 1 0
H1 H1+ 8 d 0.419(12) 0.302(3) 0.623(9) 0.022(18) 1 0
loop_
_atom_site_aniso_label
_atom_site_aniso_type_symbol
_atom_site_aniso_U_11
_atom_site_aniso_U_22
_atom_site_aniso_U_33
_atom_site_aniso_U_12
_atom_site_aniso_U_13
_atom_site_aniso_U_23
Mn1 Mn3+ 0.0140(5) 0.0149(5) 0.0038(5) -0.0002(5) -0.0011(5) -0.0002(4)
F1 F1- 0.0187(18) 0.0245(16) 0.0128(12) -0.0008(15) -0.0058(15) 0.0006(12)
F2 F1- 0.0201(18) 0.0180(15) 0.0131(13) 0.0019(14) -0.0009(13) 0.0026(12)
O1 O2- 0.025(4) 0.016(3) 0.012(3) 0. 0.003(2) 0.
Li1 Li1+ 0.022(8) 0.024(7) 0.021(6) 0. 0.001(6) 0.
#End of TTdata_417512-ICSD