
#(C) 2018 by FIZ Karlsruhe - Leibniz Institute for Information Infrastructure.  All rights reserved.
data_417654-ICSD
_database_code_ICSD 417654
_audit_creation_date 2008-02-01
_chemical_name_systematic
'Hexalithium trigadolinium pentakis(orthothiophosphate(V))'
_chemical_formula_structural 'Li6 Gd3 (P S4)5'
_chemical_formula_sum 'Gd3 Li6 P5 S20'
_exptl_crystal_density_diffrn 2.97
_cell_measurement_temperature 293.
_publ_section_title

;
Neue Thiophosphate: Die Verbindungen Li6 Ln3 (P S4)5 (Ln: Y, Gd, Dy, Yb, Lu)
und Ag3 Y (P S4)2
;
loop_
_citation_id
_citation_journal_full
_citation_year
_citation_journal_volume
_citation_page_first
_citation_page_last
_citation_journal_id_ASTM
primary 'Zeitschrift fuer Anorganische und Allgemeine Chemie (1950) (DE)' 2007
633 1633 1638 ZAACAB
loop_
_publ_author_name
'Mueller, C.'
'Joergens, S.'
'Mewis, A.'
_cell_length_a 28.327(2)
_cell_length_b 10.0740(10)
_cell_length_c 33.822(2)
_cell_angle_alpha 90.
_cell_angle_beta 114.297(7)
_cell_angle_gamma 90.
_cell_volume 8796.76
_cell_formula_units_Z 12
_symmetry_space_group_name_H-M 'C 1 2/c 1'
_symmetry_Int_Tables_number 15
_refine_ls_R_factor_all 0.025
loop_
_symmetry_equiv_pos_site_id
_symmetry_equiv_pos_as_xyz
1 'x, -y, z+1/2'
2 '-x, -y, -z'
3 '-x, y, -z+1/2'
4 'x, y, z'
5 'x+1/2, -y+1/2, z+1/2'
6 '-x+1/2, -y+1/2, -z'
7 '-x+1/2, y+1/2, -z+1/2'
8 'x+1/2, y+1/2, z'
loop_
_atom_type_symbol
_atom_type_oxidation_number
Gd3+ 3
P5+ 5
S2- -2
Li1+ 1
loop_
_atom_site_label
_atom_site_type_symbol
_atom_site_symmetry_multiplicity
_atom_site_Wyckoff_symbol
_atom_site_fract_x
_atom_site_fract_y
_atom_site_fract_z
_atom_site_B_iso_or_equiv
_atom_site_occupancy
_atom_site_attached_hydrogens
Gd1 Gd3+ 8 f 0.129572(11) 0.15435(3) 0.830814(10) 0.01239(8) 1 0
Gd2 Gd3+ 8 f 0.162666(11) 0.35117(3) 0.294372(10) 0.01298(8) 1 0
Gd3 Gd3+ 8 f 0.116378(11) 0.25832(3) 0.432790(10) 0.01223(8) 1 0
Gd4 Gd3+ 8 f 0.037024(12) 0.61789(4) 0.570985(10) 0.01708(9) 1 0
Gd5 Gd3+ 8 f 0.08160(3) 0.13909(8) 0.54931(2) 0.0177(3) 0.4400(17) 0
P1 P5+ 4 e 0. 0.1739(2) 0.75 0.0140(5) 1 0
P2 P5+ 8 f 0.31354(6) 0.53760(17) 0.55906(5) 0.0148(3) 1 0
P3 P5+ 8 f 0.48834(6) 0.44557(18) 0.56849(5) 0.0161(4) 1 0
P4 P5+ 8 f 0.36435(6) 0.97164(17) 0.62490(5) 0.0128(3) 1 0
P5 P5+ 8 f 0.20656(6) 0.15529(18) 0.63106(5) 0.0168(4) 1 0
P6 P5+ 8 f 0.40023(6) 0.05658(17) 0.81604(5) 0.0151(3) 1 0
P7 P5+ 8 f 0.40532(6) 0.03917(18) 0.49016(5) 0.0152(4) 1 0
P8 P5+ 8 f 0.34007(6) 0.47973(17) 0.74484(5) 0.0140(3) 1 0
S1 S2- 8 f 0.28531(6) 0.36313(16) 0.52755(5) 0.0138(3) 1 0
S2 S2- 8 f 0.29916(6) 0.63960(17) 0.71155(5) 0.0164(3) 1 0
S3 S2- 8 f 0.32129(6) 0.90951(16) 0.65724(5) 0.0152(3) 1 0
S4 S2- 8 f 0.50649(6) 0.63509(17) 0.58941(6) 0.0209(4) 1 0
S5 S2- 8 f 0.40370(6) 0.14024(16) 0.65442(5) 0.0154(3) 1 0
S6 S2- 8 f 0.38390(6) 0.48859(17) 0.60733(5) 0.0162(3) 1 0
S7 S2- 8 f 0.43183(6) 0.16109(17) 0.78081(5) 0.0181(4) 1 0
S8 S2- 8 f 0.38728(6) 0.53041(17) 0.80757(5) 0.0185(4) 1 0
S9 S2- 8 f 0.31783(6) 0.01889(16) 0.56214(5) 0.0153(3) 1 0
S10 S2- 8 f 0.23563(6) 0.06020(18) 0.68975(5) 0.0176(4) 1 0
S11 S2- 8 f 0.43937(6) 0.01145(18) 0.55603(5) 0.0176(4) 1 0
S12 S2- 8 f 0.61593(7) 0.13665(19) 0.53999(6) 0.0254(4) 1 0
S13 S2- 8 f 0.62685(6) 0.16464(18) 0.64591(5) 0.0197(4) 1 0
S14 S2- 8 f 0.34037(6) 0.95831(17) 0.76974(5) 0.0191(4) 1 0
S15 S2- 8 f 0.29316(6) 0.32767(17) 0.74569(5) 0.0165(3) 1 0
S16 S2- 8 f 0.54357(6) 0.94043(17) 0.64042(5) 0.0177(3) 1 0
S17 S2- 8 f 0.31922(7) 0.67182(19) 0.51648(6) 0.0253(4) 1 0
S18 S2- 8 f 0.53927(6) 0.87557(18) 0.52695(5) 0.0197(4) 1 0
S19 S2- 8 f 0.26667(6) 0.2557(2) 0.62610(6) 0.0283(4) 1 0
S20 S2- 8 f 0.34487(7) 0.1617(2) 0.47787(6) 0.0306(5) 1 0
S21 S2- 8 f 0.27296(6) 0.62034(17) 0.59117(5) 0.0180(3) 1 0
S22 S2- 8 f 0.47790(6) 0.56504(16) 0.69424(5) 0.0142(3) 1 0
S23 S2- 8 f 0.38398(6) 0.41286(16) 0.71348(5) 0.0154(3) 1 0
S24 S2- 8 f 0.41445(6) 0.82368(17) 0.62830(5) 0.0164(3) 1 0
S25 S2- 8 f 0.53990(11) 0.3816(2) 0.54495(10) 0.0568(8) 1 0
S26 S2- 8 f 0.43862(6) 0.78879(17) 0.74573(5) 0.0194(4) 1 0
S27 S2- 8 f 0.41615(8) 0.4312(3) 0.52186(6) 0.0490(7) 1 0
S28 S2- 8 f 0.49255(6) 0.30744(16) 0.61517(5) 0.0150(3) 1 0
S29 S2- 8 f 0.17664(9) 0.0211(2) 0.58207(7) 0.0514(7) 1 0
S30 S2- 8 f 0.15156(9) 0.2861(3) 0.62858(7) 0.0513(7) 1 0
Li1 Li1+ 8 f 0.4579(4) 0.3912(12) 0.8058(4) 0.021(2) 1 0
Li2 Li1+ 8 f 0.6694(5) 0.3819(15) 0.6726(5) 0.039(3) 1 0
Li3 Li1+ 8 f 0.5393(6) 0.7118(17) 0.6756(5) 0.050(4) 1 0
Li4 Li1+ 8 f 0.1791(6) 0.2315(17) 0.7080(5) 0.050(4) 1 0
Li5 Li1+ 8 f 0.4119(6) 0.7401(18) 0.5550(5) 0.053(4) 1 0
Li6 Li1+ 8 f 0.2655(7) 0.810(2) 0.5433(6) 0.065(5) 1 0
Li7 Li1+ 8 f 0.2398(7) 0.154(2) 0.5555(6) 0.064(5) 1 0
Li8 Li1+ 8 f 0.2053(9) 0.449(3) 0.5962(8) 0.094(7) 1 0
Li9 Li1+ 8 f 0.4905(11) 0.976(3) 0.6906(10) 0.114(9) 1 0
Li10 Li1+ 8 f 0.2848(14) 0.986(4) 0.8147(12) 0.150(12) 1 0
loop_
_atom_site_aniso_label
_atom_site_aniso_type_symbol
_atom_site_aniso_U_11
_atom_site_aniso_U_22
_atom_site_aniso_U_33
_atom_site_aniso_U_12
_atom_site_aniso_U_13
_atom_site_aniso_U_23
Gd1 Gd3+ 0.01212(15) 0.01118(17) 0.01284(15) -0.00040(12) 0.00410(12)
-0.00058(13)
Gd2 Gd3+ 0.01291(15) 0.01172(18) 0.01293(16) -0.00037(12) 0.00390(12)
0.00039(13)
Gd3 Gd3+ 0.01260(15) 0.01175(17) 0.01133(15) -0.00005(13) 0.00390(12)
-0.00023(13)
Gd4 Gd3+ 0.01411(15) 0.02265(19) 0.01410(16) 0.00025(14) 0.00540(12) 0.00080(14)
Gd5 Gd3+ 0.0139(4) 0.0159(5) 0.0223(5) 0.0003(3) 0.0065(3) 0.0011(3)
P1 P5+ 0.0151(11) 0.0111(12) 0.0150(11) 0. 0.0054(9) 0.
P2 P5+ 0.0145(8) 0.0125(9) 0.0137(8) -0.0008(7) 0.0023(7) -0.0009(7)
P3 P5+ 0.0168(8) 0.0172(9) 0.0142(8) -0.0014(7) 0.0065(7) -0.0004(7)
P4 P5+ 0.0118(7) 0.0115(9) 0.0136(8) 0.0019(7) 0.0037(6) 0.0024(7)
P5 P5+ 0.0137(8) 0.0210(10) 0.0137(8) 0.0009(7) 0.0036(7) 0.0042(7)
P6 P5+ 0.0142(8) 0.0140(9) 0.0147(8) -0.0003(7) 0.0035(7) 0.0012(7)
P7 P5+ 0.0140(8) 0.0170(9) 0.0150(8) 0.0002(7) 0.0062(7) 0.0000(7)
P8 P5+ 0.0130(7) 0.0141(9) 0.0142(8) 0.0003(7) 0.0049(7) 0.0000(7)
S1 S2- 0.0145(7) 0.0114(8) 0.0129(7) -0.0016(6) 0.0031(6) -0.0025(6)
S2 S2- 0.0174(8) 0.0141(9) 0.0188(8) 0.0032(7) 0.0084(7) 0.0035(7)
S3 S2- 0.0138(7) 0.0142(9) 0.0183(8) -0.0003(6) 0.0075(6) 0.0001(7)
S4 S2- 0.0260(9) 0.0150(9) 0.0226(9) -0.0018(7) 0.0109(7) -0.0011(7)
S5 S2- 0.0167(7) 0.0146(9) 0.0152(8) -0.0030(7) 0.0068(6) -0.0015(7)
S6 S2- 0.0135(7) 0.0152(9) 0.0143(8) 0.0024(7) 0.0001(6) -0.0012(7)
S7 S2- 0.0196(8) 0.0163(9) 0.0159(8) -0.0032(7) 0.0047(7) 0.0020(7)
S8 S2- 0.0182(8) 0.0200(9) 0.0164(8) -0.0002(7) 0.0061(7) -0.0013(7)
S9 S2- 0.0155(7) 0.0132(9) 0.0142(8) -0.0001(6) 0.0030(6) 0.0001(7)
S10 S2- 0.0138(7) 0.0228(10) 0.0150(8) 0.0002(7) 0.0048(6) 0.0059(7)
S11 S2- 0.0166(8) 0.0216(9) 0.0135(8) 0.0033(7) 0.0051(6) 0.0014(7)
S12 S2- 0.0266(9) 0.0210(10) 0.0353(10) -0.0087(8) 0.0195(8) -0.0119(8)
S13 S2- 0.0198(8) 0.0202(9) 0.0161(8) -0.0028(7) 0.0043(7) -0.0014(7)
S14 S2- 0.0179(8) 0.0159(9) 0.0158(8) -0.0038(7) -0.0009(7) 0.0012(7)
S15 S2- 0.0156(8) 0.0147(9) 0.0201(8) -0.0024(7) 0.0083(7) -0.0005(7)
S16 S2- 0.0185(8) 0.0150(9) 0.0135(8) -0.0015(7) 0.0005(6) -0.0017(7)
S17 S2- 0.0221(9) 0.0233(10) 0.0240(9) -0.0037(8) 0.0029(7) 0.0102(8)
S18 S2- 0.0168(8) 0.0261(10) 0.0158(8) -0.0054(7) 0.0062(7) 0.0028(7)
S19 S2- 0.0172(8) 0.0348(11) 0.0278(10) -0.0041(8) 0.0040(7) 0.0178(9)
S20 S2- 0.0328(10) 0.0340(11) 0.0141(8) 0.0210(9) -0.0013(7) -0.0036(8)
S21 S2- 0.0162(8) 0.0158(9) 0.0177(8) 0.0038(7) 0.0025(7) -0.0027(7)
S22 S2- 0.0129(7) 0.0160(9) 0.0126(8) 0.0003(6) 0.0040(6) -0.0008(7)
S23 S2- 0.0158(8) 0.0140(9) 0.0185(8) 0.0007(7) 0.0091(7) 0.0006(7)
S24 S2- 0.0179(8) 0.0133(9) 0.0188(8) 0.0032(7) 0.0083(7) 0.0016(7)
S25 S2- 0.102(2) 0.0185(11) 0.104(2) 0.0068(12) 0.0962(19) 0.0063(12)
S26 S2- 0.0167(8) 0.0153(9) 0.0216(9) 0.0047(7) 0.0033(7) -0.0031(7)
S27 S2- 0.0298(10) 0.0840(19) 0.0198(10) -0.0325(12) -0.0032(8) 0.0167(11)
S28 S2- 0.0155(7) 0.0147(9) 0.0142(8) 0.0003(7) 0.0053(6) 0.0021(7)
S29 S2- 0.0542(13) 0.0217(12) 0.0358(12) -0.0048(10) -0.0245(10) 0.0024(9)
S30 S2- 0.0504(13) 0.0840(19) 0.0264(11) 0.0536(13) 0.0228(10) 0.0275(12)
#End of TTdata_417654-ICSD