
#(C) 2018 by FIZ Karlsruhe - Leibniz Institute for Information Infrastructure.  All rights reserved.
data_417653-ICSD
_database_code_ICSD 417653
_audit_creation_date 2008-02-01
_audit_update_record 2015-02-01
_chemical_name_systematic
'Hexalithium triyttrium pentakis(orthothiophosphate(V))'
_chemical_formula_structural 'Li6 Y3 (P S4)5'
_chemical_formula_sum 'Li6 P5 S20 Y3'
_chemical_name_structure_type Li6Y3(PS4)5
_exptl_crystal_density_diffrn 2.5
_cell_measurement_temperature 293.
_publ_section_title

;
Neue Thiophosphate: Die Verbindungen Li6 Ln3 (P S4)5 (Ln: Y, Gd, Dy, Yb, Lu)
und Ag3 Y (P S4)2
;
loop_
_citation_id
_citation_journal_full
_citation_year
_citation_journal_volume
_citation_page_first
_citation_page_last
_citation_journal_id_ASTM
primary 'Zeitschrift fuer Anorganische und Allgemeine Chemie (1950) (DE)' 2007
633 1633 1638 ZAACAB
loop_
_publ_author_name
'Mueller, C.'
'Joergens, S.'
'Mewis, A.'
_cell_length_a 28.390(2)
_cell_length_b 10.0680(10)
_cell_length_c 33.715(2)
_cell_angle_alpha 90.
_cell_angle_beta 113.850(10)
_cell_angle_gamma 90.
_cell_volume 8813.86
_cell_formula_units_Z 12
_symmetry_space_group_name_H-M 'C 1 2/c 1'
_symmetry_Int_Tables_number 15
_refine_ls_R_factor_all 0.046
loop_
_symmetry_equiv_pos_site_id
_symmetry_equiv_pos_as_xyz
1 'x, -y, z+1/2'
2 '-x, -y, -z'
3 '-x, y, -z+1/2'
4 'x, y, z'
5 'x+1/2, -y+1/2, z+1/2'
6 '-x+1/2, -y+1/2, -z'
7 '-x+1/2, y+1/2, -z+1/2'
8 'x+1/2, y+1/2, z'
loop_
_atom_type_symbol
_atom_type_oxidation_number
Y3+ 3
P5+ 5
S2- -2
Li1+ 1
loop_
_atom_site_label
_atom_site_type_symbol
_atom_site_symmetry_multiplicity
_atom_site_Wyckoff_symbol
_atom_site_fract_x
_atom_site_fract_y
_atom_site_fract_z
_atom_site_B_iso_or_equiv
_atom_site_occupancy
_atom_site_attached_hydrogens
Y1 Y3+ 8 f 0.12873(4) 0.15625(13) 0.83090(4) 0.0243(3) 1 0
Y2 Y3+ 8 f 0.16316(5) 0.35042(14) 0.29468(4) 0.0256(3) 1 0
Y3 Y3+ 8 f 0.11656(4) 0.25605(13) 0.43258(4) 0.0242(3) 1 0
Y4 Y3+ 8 f 0.03800(5) 0.61865(14) 0.57211(4) 0.0289(3) 1 0
Y5 Y3+ 8 f 0.08411(8) 0.1377(2) 0.55318(7) 0.0298(9) 0.605(5) 0
P1 P5+ 4 e 0. 0.1749(5) 0.75 0.0265(11) 1 0
P2 P5+ 8 f 0.31438(12) 0.5385(4) 0.55957(10) 0.0265(8) 1 0
P3 P5+ 8 f 0.48924(12) 0.4457(3) 0.56870(10) 0.0255(8) 1 0
P4 P5+ 8 f 0.36508(12) 0.9731(3) 0.62445(10) 0.0244(8) 1 0
P5 P5+ 8 f 0.20706(12) 0.1508(4) 0.63181(10) 0.0287(8) 1 0
P6 P5+ 8 f 0.40019(13) 0.0598(3) 0.81549(11) 0.0263(7) 1 0
P7 P5+ 8 f 0.40605(12) 0.0420(4) 0.49007(10) 0.0258(8) 1 0
P8 P5+ 8 f 0.33957(12) 0.4810(4) 0.74364(10) 0.0263(8) 1 0
S1 S2- 8 f 0.28673(11) 0.3639(3) 0.52825(10) 0.0282(8) 1 0
S2 S2- 8 f 0.29995(12) 0.6425(4) 0.71038(11) 0.0306(8) 1 0
S3 S2- 8 f 0.32285(12) 0.9110(3) 0.65778(10) 0.0277(8) 1 0
S4 S2- 8 f 0.50837(13) 0.6348(4) 0.58987(11) 0.0326(8) 1 0
S5 S2- 8 f 0.40376(12) 0.1426(4) 0.65365(10) 0.0289(8) 1 0
S6 S2- 8 f 0.38470(12) 0.4900(4) 0.60726(10) 0.0302(8) 1 0
S7 S2- 8 f 0.43084(12) 0.1628(4) 0.77909(10) 0.0318(8) 1 0
S8 S2- 8 f 0.38643(12) 0.5307(4) 0.80638(11) 0.0338(8) 1 0
S9 S2- 8 f 0.31925(12) 0.0213(3) 0.56171(10) 0.0297(8) 1 0
S10 S2- 8 f 0.23678(12) 0.0587(4) 0.69087(10) 0.0292(8) 1 0
S11 S2- 8 f 0.44037(11) 0.0188(4) 0.55625(10) 0.0278(8) 1 0
S12 S2- 8 f 0.61484(13) 0.1340(4) 0.53963(12) 0.0384(9) 1 0
S13 S2- 8 f 0.62545(13) 0.1687(4) 0.64559(10) 0.0340(9) 1 0
S14 S2- 8 f 0.34046(12) 0.9617(4) 0.76965(10) 0.0342(9) 1 0
S15 S2- 8 f 0.29300(12) 0.3278(4) 0.74434(11) 0.0310(8) 1 0
S16 S2- 8 f 0.54389(12) 0.9444(4) 0.64065(10) 0.0317(8) 1 0
S17 S2- 8 f 0.31947(14) 0.6716(4) 0.51579(12) 0.0416(10) 1 0
S18 S2- 8 f 0.53839(11) 0.8755(4) 0.52768(10) 0.0298(8) 1 0
S19 S2- 8 f 0.26652(12) 0.2508(4) 0.62588(11) 0.0419(10) 1 0
S20 S2- 8 f 0.34691(13) 0.1679(4) 0.47739(10) 0.0386(9) 1 0
S21 S2- 8 f 0.27492(12) 0.6230(4) 0.59215(11) 0.0343(9) 1 0
S22 S2- 8 f 0.47830(11) 0.5669(4) 0.69425(10) 0.0289(8) 1 0
S23 S2- 8 f 0.38237(12) 0.4140(3) 0.71107(11) 0.0301(8) 1 0
S24 S2- 8 f 0.41429(12) 0.8235(3) 0.62774(11) 0.0299(8) 1 0
S25 S2- 8 f 0.54014(17) 0.3808(4) 0.54455(14) 0.0516(11) 1 0
S26 S2- 8 f 0.43845(13) 0.7904(4) 0.74471(11) 0.0361(9) 1 0
S27 S2- 8 f 0.41637(13) 0.4342(4) 0.52244(11) 0.0466(11) 1 0
S28 S2- 8 f 0.49242(12) 0.3075(3) 0.61510(10) 0.0271(8) 1 0
S29 S2- 8 f 0.17567(15) 0.0125(4) 0.58411(13) 0.0600(13) 1 0
S30 S2- 8 f 0.15127(14) 0.2815(5) 0.62871(12) 0.0504(11) 1 0
Li1 Li1+ 8 f 0.4575(10) 0.393(3) 0.8061(9) 0.055(7) 1 0
Li2 Li1+ 8 f 0.6713(10) 0.383(3) 0.6722(9) 0.061(7) 1 0
Li3 Li1+ 8 f 0.5403(14) 0.714(4) 0.6747(12) 0.097(12) 1 0
Li4 Li1+ 8 f 0.1789(12) 0.238(4) 0.7096(11) 0.083(10) 1 0
Li5 Li1+ 8 f 0.4125(16) 0.738(5) 0.5544(14) 0.111(13) 1 0
Li6 Li1+ 8 f 0.2659(18) 0.815(5) 0.5435(16) 0.124(15) 1 0
Li7 Li1+ 8 f 0.2394(19) 0.134(6) 0.5516(17) 0.139(17) 1 0
Li8 Li1+ 8 f 0.2058(19) 0.443(6) 0.5997(17) 0.135(17) 1 0
Li9 Li1+ 8 f 0.492(2) 0.978(7) 0.695(2) 0.18(2) 1 0
loop_
_atom_site_aniso_label
_atom_site_aniso_type_symbol
_atom_site_aniso_U_11
_atom_site_aniso_U_22
_atom_site_aniso_U_33
_atom_site_aniso_U_12
_atom_site_aniso_U_13
_atom_site_aniso_U_23
Y1 Y3+ 0.0248(6) 0.0222(7) 0.0255(6) -0.0011(6) 0.0096(5) -0.0013(6)
Y2 Y3+ 0.0244(6) 0.0240(8) 0.0259(6) -0.0005(6) 0.0077(5) 0.0005(6)
Y3 Y3+ 0.0246(6) 0.0236(7) 0.0238(6) -0.0002(6) 0.0091(5) 0.0001(6)
Y4 Y3+ 0.0274(6) 0.0310(8) 0.0286(7) 0.0006(6) 0.0117(5) 0.0012(6)
Y5 Y3+ 0.0273(13) 0.0252(15) 0.0377(14) 0.0016(10) 0.0140(10) 0.0018(11)
P1 P5+ 0.023(2) 0.024(3) 0.027(2) 0. 0.0043(19) 0.
P2 P5+ 0.0251(17) 0.026(2) 0.0244(18) 0.0007(15) 0.0058(14) -0.0021(16)
P3 P5+ 0.0281(17) 0.0243(19) 0.0256(17) -0.0035(15) 0.0125(14) -0.0005(16)
P4 P5+ 0.0232(17) 0.023(2) 0.0257(18) 0.0013(15) 0.0081(14) 0.0026(16)
P5 P5+ 0.0252(16) 0.033(2) 0.0267(17) 0.0000(16) 0.0094(14) 0.0021(17)
P6 P5+ 0.0275(16) 0.0255(18) 0.0223(16) 0.0007(16) 0.0065(13) 0.0030(17)
P7 P5+ 0.0254(17) 0.028(2) 0.0248(17) 0.0001(15) 0.0105(14) -0.0002(16)
P8 P5+ 0.0271(17) 0.028(2) 0.0249(18) -0.0003(15) 0.0111(14) -0.0001(16)
S1 S2- 0.0259(16) 0.0251(19) 0.0287(17) -0.0018(15) 0.0062(13) -0.0032(16)
S2 S2- 0.0321(17) 0.027(2) 0.0354(18) 0.0062(16) 0.0166(15) 0.0046(17)
S3 S2- 0.0302(17) 0.023(2) 0.0328(18) -0.0008(15) 0.0160(14) 0.0002(16)
S4 S2- 0.0391(19) 0.025(2) 0.0368(19) -0.0029(16) 0.0189(16) -0.0045(17)
S5 S2- 0.0316(17) 0.028(2) 0.0268(17) -0.0083(15) 0.0113(14) -0.0038(16)
S6 S2- 0.0277(17) 0.028(2) 0.0291(17) 0.0045(15) 0.0060(14) -0.0029(16)
S7 S2- 0.0328(17) 0.030(2) 0.0295(18) -0.0056(16) 0.0090(14) 0.0030(16)
S8 S2- 0.0317(19) 0.037(2) 0.0313(19) -0.0027(16) 0.0113(15) -0.0050(17)
S9 S2- 0.0289(17) 0.028(2) 0.0279(18) -0.0002(15) 0.0069(14) 0.0009(16)
S10 S2- 0.0256(16) 0.034(2) 0.0279(17) 0.0011(15) 0.0106(14) 0.0081(16)
S11 S2- 0.0253(16) 0.035(2) 0.0219(16) 0.0047(15) 0.0083(13) 0.0009(15)
S12 S2- 0.0408(19) 0.034(2) 0.049(2) -0.0131(17) 0.0274(17) -0.0162(19)
S13 S2- 0.0369(18) 0.039(2) 0.0249(17) -0.0078(17) 0.0111(15) -0.0020(17)
S14 S2- 0.0341(18) 0.032(2) 0.0257(17) -0.0070(16) 0.0011(14) 0.0021(17)
S15 S2- 0.0312(18) 0.027(2) 0.0389(19) -0.0057(16) 0.0184(15) -0.0054(17)
S16 S2- 0.0321(17) 0.028(2) 0.0267(17) -0.0045(15) 0.0029(14) -0.0015(16)
S17 S2- 0.041(2) 0.038(2) 0.039(2) -0.0013(18) 0.0086(16) 0.0125(19)
S18 S2- 0.0281(16) 0.034(2) 0.0290(17) -0.0023(15) 0.0133(14) 0.0033(16)
S19 S2- 0.0298(17) 0.051(2) 0.041(2) -0.0003(18) 0.0101(15) 0.019(2)
S20 S2- 0.0381(19) 0.045(2) 0.0249(17) 0.0192(18) 0.0043(14) -0.0014(17)
S21 S2- 0.0330(18) 0.031(2) 0.0345(18) 0.0038(16) 0.0094(15) -0.0057(17)
S22 S2- 0.0250(16) 0.031(2) 0.0274(17) 0.0016(15) 0.0073(14) -0.0012(16)
S23 S2- 0.0341(18) 0.025(2) 0.0362(18) 0.0032(15) 0.0196(15) 0.0032(16)
S24 S2- 0.0311(17) 0.027(2) 0.0343(18) 0.0068(15) 0.0165(15) 0.0067(16)
S25 S2- 0.081(3) 0.030(2) 0.076(3) 0.008(2) 0.065(2) 0.006(2)
S26 S2- 0.0323(18) 0.031(2) 0.038(2) 0.0088(16) 0.0077(15) -0.0048(17)
S27 S2- 0.0370(19) 0.069(3) 0.0272(18) -0.018(2) 0.0056(15) 0.0104(19)
S28 S2- 0.0275(16) 0.0256(19) 0.0282(17) -0.0001(14) 0.0115(14) 0.0034(15)
S29 S2- 0.054(2) 0.044(3) 0.049(2) 0.003(2) -0.012(2) -0.010(2)
S30 S2- 0.049(2) 0.067(3) 0.038(2) 0.032(2) 0.0204(17) 0.015(2)
#End of TTdata_417653-ICSD