
#(C) 2018 by FIZ Karlsruhe - Leibniz Institute for Information Infrastructure.  All rights reserved.
data_417755-ICSD
_database_code_ICSD 417755
_audit_creation_date 2008-08-01
_chemical_name_systematic
'Nonalithium trichromium(III) tris(diphosphate) bis(phosphate)'
_chemical_formula_structural 'Li9 Cr3 (P2 O7)3 (P O4)2'
_chemical_formula_sum 'Cr3 Li9 O29 P8'
_chemical_name_structure_type Li9Al3(P2O7)3(PO4)2
_exptl_crystal_density_diffrn 2.8
_cell_measurement_temperature 293.
_publ_section_title

;
New monodiphosphate Li9 Cr3 (P2 O7)3 (P O4)2: X-ray crystal structure and
vibrational spectroscopy
;
loop_
_citation_id
_citation_journal_full
_citation_year
_citation_journal_volume
_citation_page_first
_citation_page_last
_citation_journal_id_ASTM
primary 'Zeitschrift fuer Kristallographie - New Crystal Structures' 2007 222
521 526 ZKNSFT
loop_
_publ_author_name
'Capitelli, F.'
'Dridi, N.'
'Arbib, E.H.'
'Valentini, V.'
'Mattei, G.'
_cell_length_a 9.6840(11)
_cell_length_b 9.6840(11)
_cell_length_c 13.6050(9)
_cell_angle_alpha 90.
_cell_angle_beta 90.
_cell_angle_gamma 120.
_cell_volume 1104.94
_cell_formula_units_Z 2
_symmetry_space_group_name_H-M 'P -3 c 1'
_symmetry_Int_Tables_number 165
_refine_ls_R_factor_all 0.0354
loop_
_symmetry_equiv_pos_site_id
_symmetry_equiv_pos_as_xyz
1 'x-y, -y, -z+1/2'
2 '-x, -x+y, -z+1/2'
3 'y, x, -z+1/2'
4 'x-y, x, -z'
5 'y, -x+y, -z'
6 '-x, -y, -z'
7 '-x+y, y, z+1/2'
8 'x, x-y, z+1/2'
9 '-y, -x, z+1/2'
10 '-x+y, -x, z'
11 '-y, x-y, z'
12 'x, y, z'
loop_
_atom_type_symbol
_atom_type_oxidation_number
Cr3+ 3
P5+ 5
O2- -2
Li1+ 1
loop_
_atom_site_label
_atom_site_type_symbol
_atom_site_symmetry_multiplicity
_atom_site_Wyckoff_symbol
_atom_site_fract_x
_atom_site_fract_y
_atom_site_fract_z
_atom_site_B_iso_or_equiv
_atom_site_occupancy
_atom_site_attached_hydrogens
Cr1 Cr3+ 6 f 0. 0.568 0.25 0.0208(3) 1 0
P1 P5+ 4 d 0.3333 0.6667 0.37380(10) 0.0201(3) 1 0
P2 P5+ 12 g 0.08941(9) 0.31808(9) 0.15604(6) 0.0205(3) 1 0
O1 O2- 12 g 0.1884(3) 0.6770(3) 0.33540(16) 0.0249(5) 1 0
O2 O2- 4 d 0.3333 0.6667 0.4842(3) 0.0381(10) 1 0
O3 O2- 12 g 0.2531(3) 0.3320(3) 0.15580(17) 0.0230(5) 1 0
O4 O2- 12 g -0.0041(3) 0.2283(3) 0.06671(16) 0.0266(5) 1 0
O5 O2- 6 f 0. 0.213 0.25 0.0251(7) 1 0
O6 O2- 12 g 0.1067(3) 0.4827(3) 0.16728(16) 0.0241(5) 1 0
Li1 Li1+ 2 b 0. 0. 0. 0.0040(16) 1 0
Li2 Li1+ 4 d 0.3333 0.6667 0.1190(8) 0.035(2) 1 0
Li3 Li1+ 12 g 0.3381(7) 0.2372(7) 0.0628(5) 0.0302(13) 1 0
loop_
_atom_site_aniso_label
_atom_site_aniso_type_symbol
_atom_site_aniso_U_11
_atom_site_aniso_U_22
_atom_site_aniso_U_33
_atom_site_aniso_U_12
_atom_site_aniso_U_13
_atom_site_aniso_U_23
Cr1 Cr3+ 0.0202(4) 0.0204(3) 0.0217(4) 0.01009(19) 0.0000(2) -0.00001(12)
P1 P5+ 0.0204(4) 0.0204(4) 0.0196(6) 0.0102(2) 0. 0.
P2 P5+ 0.0199(4) 0.0219(4) 0.0198(4) 0.0104(3) 0.0000(3) -0.0006(3)
O1 O2- 0.0211(11) 0.0243(11) 0.0307(11) 0.0125(9) -0.0038(8) -0.0032(8)
O2 O2- 0.0461(17) 0.0461(17) 0.0219(19) 0.0231(8) 0. 0.
O3 O2- 0.0211(11) 0.0241(11) 0.0244(11) 0.0117(9) -0.0010(8) -0.0036(8)
O4 O2- 0.0230(11) 0.0316(12) 0.0222(10) 0.0114(9) -0.0006(9) -0.0035(9)
O5 O2- 0.0287(17) 0.0248(12) 0.0232(15) 0.0143(8) 0.0044(12) 0.0022(6)
O6 O2- 0.0263(11) 0.0247(11) 0.0239(10) 0.0147(9) 0.0036(8) 0.0019(8)
Li1 Li1+ 0.003(2) 0.003(2) 0.006(4) 0.0015(12) 0. 0.
Li2 Li1+ 0.038(4) 0.038(4) 0.029(5) 0.0192(18) 0. 0.
Li3 Li1+ 0.032(3) 0.030(3) 0.030(3) 0.017(3) -0.001(2) 0.000(2)
#End of TTdata_417755-ICSD