
#(C) 2018 by FIZ Karlsruhe - Leibniz Institute for Information Infrastructure.  All rights reserved.
data_417846-ICSD
_database_code_ICSD 417846
_audit_creation_date 2009-02-01
_chemical_name_systematic
'Bis(tetraamminelithium) hexahydroclosohexaborate diammine'
_chemical_formula_structural '(Li (N H3)4)2 (B6 H6) (N H3)2'
_chemical_formula_sum 'H36 B6 Li2 N10'
_exptl_crystal_density_diffrn 0.9
_cell_measurement_temperature 123.
_publ_section_title

;
Multi-centre, hydrogen and dihydrogen bonds in lithium closo-hydroborate
obtained from liquid ammonia
;
loop_
_citation_id
_citation_journal_full
_citation_year
_citation_journal_volume
_citation_page_first
_citation_page_last
_citation_journal_id_ASTM
primary 'Dalton Transactions' 2008 2008 3956 3958 DTARAF
loop_
_publ_author_name
'Panda, M.'
'Hofmann, K.'
'Prosenc, M.H.'
'Albert, B.'
_cell_length_a 7.4832(11)
_cell_length_b 11.8711(18)
_cell_length_c 10.6047(16)
_cell_angle_alpha 90.
_cell_angle_beta 95.371(3)
_cell_angle_gamma 90.
_cell_volume 937.92
_cell_formula_units_Z 2
_symmetry_space_group_name_H-M 'P 1 21/c 1'
_symmetry_Int_Tables_number 14
_refine_ls_R_factor_all 0.0427
loop_
_symmetry_equiv_pos_site_id
_symmetry_equiv_pos_as_xyz
1 'x, -y+1/2, z+1/2'
2 '-x, -y, -z'
3 '-x, y+1/2, -z+1/2'
4 'x, y, z'
loop_
_atom_type_symbol
_atom_type_oxidation_number
N3- -3
B1- -1.333
Li1+ 1
H1+ 1
loop_
_atom_site_label
_atom_site_type_symbol
_atom_site_symmetry_multiplicity
_atom_site_Wyckoff_symbol
_atom_site_fract_x
_atom_site_fract_y
_atom_site_fract_z
_atom_site_B_iso_or_equiv
_atom_site_occupancy
_atom_site_attached_hydrogens
N1 N3- 4 e 0.72761(7) 0.78501(4) 0.30078(5) 0.02978(11) 1 0
N2 N3- 4 e 0.25256(7) 0.79165(5) 0.28977(5) 0.02846(11) 1 0
N3 N3- 4 e 0.49378(7) 0.83812(4) 0.03360(5) 0.02458(10) 1 0
N4 N3- 4 e 0.87039(9) 0.57008(8) 0.08926(6) 0.04587(16) 1 0
N5 N3- 4 e 0.44834(9) 0.57763(5) 0.15635(6) 0.03470(12) 1 0
B1 B1- 4 e -0.09432(7) 1.00463(5) 0.08792(5) 0.02164(11) 1 0
B2 B1- 4 e 0.01132(8) 0.89789(5) 0.01274(5) 0.02130(11) 1 0
B3 B1- 4 e 0.13335(7) 1.01232(4) 0.07431(5) 0.01969(10) 1 0
Li1 Li1+ 4 e 0.48033(13) 0.74935(8) 0.19824(9) 0.02710(19) 1 0
H1 H1+ 4 e -0.17895(9) 1.0097(6) 0.1678(6) 0.0354(19) 1 0
H2 H1+ 4 e 0.2525(9) 1.0225(6) 0.1413(6) 0.0284(16) 1 0
H3 H1+ 4 e 0.0253(10) 0.8064(7) 0.0237(7) 0.038(2) 1 0
H4 H1+ 4 e 0.1945(12) 0.7349(8) 0.3166(8) 0.051(2) 1 0
H5 H1+ 4 e 0.5844(11) 0.8809(7) 0.0347(8) 0.045(2) 1 0
H6 H1+ 4 e 0.7887(12) 0.7274(8) 0.3331(9) 0.054(2) 1 0
H7 H1+ 4 e 0.2543(11) 0.8427(7) 0.3485(8) 0.045(2) 1 0
H8 H1+ 4 e 0.7942(12) 0.8172(8) 0.2494(8) 0.047(2) 1 0
H9 H1+ 4 e 0.3711(13) 0.5548(7) 0.0959(9) 0.051(3) 1 0
H10 H1+ 4 e 0.7318(13) 0.8339(8) 0.3623(9) 0.057(3) 1 0
H11 H1+ 4 e 0.9073(14) 0.5507(9) 0.1669(11) 0.067(3) 1 0
H12 H1+ 4 e 0.4866(12) 0.7996(7) -0.0382(8) 0.046(2) 1 0
H13 H1+ 4 e 0.4031(12) 0.8829(7) 0.0238(8) 0.048(2) 1 0
H14 H1+ 4 e 0.4371(14) 0.5448(10) 0.2198(11) 0.071(3) 1 0
H15 H1+ 4 e 0.5527(19) 0.5475(11) 0.1249(12) 0.102(4) 1 0
H16 H1+ 4 e 0.9117(2) 0.6316(14) 0.0791(15) 0.117(6) 1 0
H17 H1+ 4 e 0.1819(13) 0.8197(9) 0.2294(9) 0.061(3) 1 0
H18 H1+ 4 e 0.9538(3) 0.5411(18) 0.0441(19) 0.180(9) 1 0
loop_
_atom_site_aniso_label
_atom_site_aniso_type_symbol
_atom_site_aniso_U_11
_atom_site_aniso_U_22
_atom_site_aniso_U_33
_atom_site_aniso_U_12
_atom_site_aniso_U_13
_atom_site_aniso_U_23
N1 N3- 0.0295(2) 0.0252(2) 0.0332(3) 0.00111(18) -0.0050(2) 0.0054(2)
N2 N3- 0.0262(2) 0.0323(3) 0.0269(2) 0.00315(19) 0.00283(18) 0.0079(2)
N3 N3- 0.0228(2) 0.0277(2) 0.0233(2) -0.00184(18) 0.00268(17) 0.00108(17)
N4 N3- 0.0409(3) 0.0659(5) 0.0313(3) -0.0055(3) 0.0064(3) 0.0092(3)
N5 N3- 0.0389(3) 0.0288(2) 0.0355(3) -0.0015(2) -0.0011(2) 0.0021(2)
B1 B1- 0.0214(2) 0.0251(3) 0.0186(2) -0.00268(19) 0.00336(18) -0.00137(19)
B2 B1- 0.0256(2) 0.0165(2) 0.0212(2) -0.00210(19) -0.00095(19) 0.00010(18)
B3 B1- 0.0205(2) 0.0195(2) 0.0188(2) -0.00196(18) 0.00007(18) -0.00041(18)
Li1 Li1+ 0.0263(4) 0.0281(4) 0.0270(4) -0.0001(4) 0.0030(4) 0.0043(4)
#End of TTdata_417846-ICSD