
#(C) 2018 by FIZ Karlsruhe - Leibniz Institute for Information Infrastructure.  All rights reserved.
data_417994-ICSD
_database_code_ICSD 417994
_audit_creation_date 2008-08-01
_chemical_name_systematic 'Lithium distrontium dihydride nitride'
_chemical_formula_structural 'Li Sr2 H2 N'
_chemical_formula_sum 'H2 Li1 N1 Sr2'
_exptl_crystal_density_diffrn 3.58
_cell_measurement_temperature 293.
_publ_section_title

;
Synthesis and crystal structure of the lithium strontium hydride nitride Li
Sr2 H2 N
;
loop_
_citation_id
_citation_journal_full
_citation_year
_citation_journal_volume
_citation_page_first
_citation_page_last
_citation_journal_id_ASTM
primary 'Zeitschrift fuer Anorganische und Allgemeine Chemie (1950) (DE)' 2007
633 2644 2648 ZAACAB
loop_
_publ_author_name
'Blaschkowski, B.'
'Schleid, T.'
_cell_length_a 7.4714(5)
_cell_length_b 3.7028(3)
_cell_length_c 13.2986(9)
_cell_angle_alpha 90.
_cell_angle_beta 90.
_cell_angle_gamma 90.
_cell_volume 367.91
_cell_formula_units_Z 4
_symmetry_space_group_name_H-M 'P n m a'
_symmetry_Int_Tables_number 62
_refine_ls_R_factor_all 0.033
loop_
_symmetry_equiv_pos_site_id
_symmetry_equiv_pos_as_xyz
1 'x+1/2, y, -z+1/2'
2 'x, -y+1/2, z'
3 '-x+1/2, y+1/2, z+1/2'
4 '-x, -y, -z'
5 '-x+1/2, -y, z+1/2'
6 '-x, y+1/2, -z'
7 'x+1/2, -y+1/2, -z+1/2'
8 'x, y, z'
loop_
_atom_type_symbol
_atom_type_oxidation_number
Li1+ 1
Sr2+ 2
H1- -1
N3- -3
loop_
_atom_site_label
_atom_site_type_symbol
_atom_site_symmetry_multiplicity
_atom_site_Wyckoff_symbol
_atom_site_fract_x
_atom_site_fract_y
_atom_site_fract_z
_atom_site_B_iso_or_equiv
_atom_site_occupancy
_atom_site_attached_hydrogens
Li1 Li1+ 4 c 0.3742(14) 0.25 0.2622(6) 0.0151(18) 1 0
Sr1 Sr2+ 4 c 0.36217(7) 0.25 0.88529(3) 0.0114(2) 1 0
Sr2 Sr2+ 4 c 0.38634(7) 0.25 0.60452(3) 0.0111(2) 1 0
H1 H1- 4 c 0.361(7) 0.25 0.069(4) 0.011(10) 1 0
H2 H1- 4 c 0.103(8) 0.25 0.743(3) 0.011(10) 1 0
N1 N3- 4 c 0.3692(5) 0.25 0.4185(3) 0.0084(8) 1 0
loop_
_atom_site_aniso_label
_atom_site_aniso_type_symbol
_atom_site_aniso_U_11
_atom_site_aniso_U_22
_atom_site_aniso_U_33
_atom_site_aniso_U_12
_atom_site_aniso_U_13
_atom_site_aniso_U_23
Sr1 Sr2+ 0.0115(3) 0.0118(3) 0.0109(3) 0. 0.00178(14) 0.
Sr2 Sr2+ 0.0105(3) 0.0121(3) 0.0106(3) 0. -0.00140(14) 0.
N1 N3- 0.0084(18) 0.0084(19) 0.0084(16) 0. -0.0012(13) 0.
#End of TTdata_417994-ICSD