
#(C) 2018 by FIZ Karlsruhe - Leibniz Institute for Information Infrastructure.  All rights reserved.
data_418166-ICSD
_database_code_ICSD 418166
_audit_creation_date 2011-02-01
_chemical_name_systematic 'Trilithium dihydroxopentaborate'
_chemical_formula_structural 'Li3 (B5 O8 (O H)2)'
_chemical_formula_sum 'H2 B5 Li3 O10'
_exptl_crystal_density_diffrn 2.3
_cell_measurement_temperature 298.
_publ_section_title

;
Hydrothermal synthesis, characterization and thermodynamic properties of a new
lithium borate, Li3 B5 O8 (O H)2
;
loop_
_citation_id
_citation_journal_full
_citation_year
_citation_journal_volume
_citation_page_first
_citation_page_last
_citation_journal_id_ASTM
primary 'Journal of Chemical & Engineering Data' 2010 55 2682 2686 JCEAAX
loop_
_publ_author_name
'Li Ping'
'Liu Zhi Hong'
_cell_length_a 6.8506(9)
_cell_length_b 6.8506(9)
_cell_length_c 14.5601(15)
_cell_angle_alpha 90.
_cell_angle_beta 90.
_cell_angle_gamma 90.
_cell_volume 683.32
_cell_formula_units_Z 4
_symmetry_space_group_name_H-M 'P 43 21 2'
_symmetry_Int_Tables_number 96
_refine_ls_R_factor_all 0.021
loop_
_symmetry_equiv_pos_site_id
_symmetry_equiv_pos_as_xyz
1 'x+1/2, -y+1/2, -z+1/4'
2 '-x+1/2, y+1/2, -z+3/4'
3 '-y, -x, -z+1/2'
4 'y, x, -z'
5 'y+1/2, -x+1/2, z+1/4'
6 '-y+1/2, x+1/2, z+3/4'
7 '-x, -y, z+1/2'
8 'x, y, z'
loop_
_atom_type_symbol
_atom_type_oxidation_number
Li1+ 1
O2- -2
H1+ 1
B3+ 3
loop_
_atom_site_label
_atom_site_type_symbol
_atom_site_symmetry_multiplicity
_atom_site_Wyckoff_symbol
_atom_site_fract_x
_atom_site_fract_y
_atom_site_fract_z
_atom_site_B_iso_or_equiv
_atom_site_occupancy
_atom_site_attached_hydrogens
Li1 Li1+ 8 b 0.8637(4) 0.1493(4) 0.15679(18) 0.0235(6) 1 0
Li2 Li1+ 4 a 0.8027(4) 0.8027(4) 0. 0.0263(8) 1 0
O1 O2- 8 b 0.77895(15) 0.69704(15) 0.12935(6) 0.0159(3) 1 0
O2 O2- 8 b 0.85504(15) 0.09534(14) 0.01942(7) 0.0151(3) 1 0
O3 O2- 8 b 1.17580(15) 0.12671(14) 0.08227(6) 0.0158(3) 1 0
O4 O2- 8 b 0.80809(16) 0.44991(15) 0.02068(7) 0.0174(3) 1 0
O5 O2- 8 b 0.54001(15) 0.23434(15) -0.01243(7) 0.0169(3) 1 0
H1 H1+ 8 b 0.5134 0.1177 -0.0142 0.025 1 0
B1 B3+ 8 b 0.7538(2) 0.5059(3) 0.10690(10) 0.0141(4) 1 0
B2 B3+ 8 b 0.7520(2) 0.2601(2) -0.02247(10) 0.0149(4) 1 0
B3 B3+ 4 a 1.0620(2) 0.0620(2) 0. 0.0135(5) 1 0
loop_
_atom_site_aniso_label
_atom_site_aniso_type_symbol
_atom_site_aniso_U_11
_atom_site_aniso_U_22
_atom_site_aniso_U_33
_atom_site_aniso_U_12
_atom_site_aniso_U_13
_atom_site_aniso_U_23
Li1 Li1+ 0.0256(15) 0.0224(15) 0.0224(13) 0.0015(11) -0.0003(11) 0.0019(10)
Li2 Li1+ 0.0282(13) 0.0282(13) 0.0224(18) -0.0063(18) -0.0032(11) 0.0032(11)
O1 O2- 0.0200(5) 0.0149(6) 0.0130(5) -0.0026(4) -0.0004(4) 0.0004(4)
O2 O2- 0.0147(6) 0.0146(5) 0.0159(5) 0.0013(4) 0.0013(4) 0.0007(4)
O3 O2- 0.0197(6) 0.0130(5) 0.0148(5) -0.0008(4) -0.0029(4) 0.0000(4)
O4 O2- 0.0195(6) 0.0160(5) 0.0169(5) -0.0027(5) 0.0024(4) -0.0004(4)
O5 O2- 0.0133(5) 0.0172(6) 0.0200(5) -0.0008(4) 0.0006(4) -0.0006(4)
B1 B3+ 0.0114(8) 0.0169(10) 0.0139(8) 0.0018(6) -0.0025(6) -0.0005(7)
B2 B3+ 0.0148(8) 0.0152(9) 0.0146(8) -0.0006(6) 0.0003(7) -0.0013(6)
B3 B3+ 0.0132(7) 0.0132(7) 0.0143(11) -0.0026(8) -0.0015(6) 0.0015(6)
#End of TTdata_418166-ICSD