
#(C) 2017 by FIZ Karlsruhe - Leibniz Institute for Information Infrastructure.  All rights reserved.
data_418676-ICSD
_database_code_ICSD 418676
_audit_creation_date 2009-02-01
_chemical_name_systematic 'Dilithium hexafluorochromate(IV)'
_chemical_formula_structural 'Li2 (Cr F6)'
_chemical_formula_sum 'Cr1 F6 Li2'
_chemical_name_structure_type ZnSb2O6
_exptl_crystal_density_diffrn 3.22
_cell_measurement_temperature 200.
_publ_section_title

;
Alkali metal (Li+ - Cs+) salts with hexafluorochromate(V),
hexafluorochromate(IV), pentafluorochromate(IV), and
undecafluorodichromate(IV) anions
;
loop_
_citation_id
_citation_journal_full
_citation_year
_citation_journal_volume
_citation_page_first
_citation_page_last
_citation_journal_id_ASTM
primary 'European Journal of Inorganic Chemistry  (online)' 2008 2008 1795 1812
EJICFO
loop_
_publ_author_name
'Mazej, Z.'
'Goreshnik, E.'
_cell_length_a 4.5777(4)
_cell_length_b 4.5777(4)
_cell_length_c 8.8649(10)
_cell_angle_alpha 90
_cell_angle_beta 90
_cell_angle_gamma 90
_cell_volume 185.77
_cell_formula_units_Z 2
_symmetry_space_group_name_H-M 'P 42/m n m'
_symmetry_Int_Tables_number 136
_refine_ls_R_factor_all 0.0421
loop_
_symmetry_equiv_pos_site_id
_symmetry_equiv_pos_as_xyz
1 '-y+1/2, x+1/2, -z+1/2'
2 'y+1/2, -x+1/2, -z+1/2'
3 'y, x, -z'
4 '-y, -x, -z'
5 'y+1/2, -x+1/2, z+1/2'
6 '-y+1/2, x+1/2, z+1/2'
7 '-y, -x, z'
8 'y, x, z'
9 'x+1/2, -y+1/2, -z+1/2'
10 '-x+1/2, y+1/2, -z+1/2'
11 'x, y, -z'
12 '-x, -y, -z'
13 '-x+1/2, y+1/2, z+1/2'
14 'x+1/2, -y+1/2, z+1/2'
15 '-x, -y, z'
16 'x, y, z'
loop_
_atom_type_symbol
_atom_type_oxidation_number
Cr4+ 4
F1- -1
Li1+ 1
loop_
_atom_site_label
_atom_site_type_symbol
_atom_site_symmetry_multiplicity
_atom_site_Wyckoff_symbol
_atom_site_fract_x
_atom_site_fract_y
_atom_site_fract_z
_atom_site_B_iso_or_equiv
_atom_site_occupancy
_atom_site_attached_hydrogens
Cr1 Cr4+ 2 b 0 0 0.5 0.0102(7) 1 0
F1 F1- 8 j 0.1923(5) 0.1923(5) 0.3489(3) 0.0144(8) 1 0
F2 F1- 4 f -0.2800(6) 0.2800(6) 0.5 0.0143(10) 1 0
Li1 Li1+ 4 e 0 0 0.1646(13) 0.013(3) 1 0
loop_
_atom_site_aniso_label
_atom_site_aniso_type_symbol
_atom_site_aniso_U_11
_atom_site_aniso_U_22
_atom_site_aniso_U_33
_atom_site_aniso_U_12
_atom_site_aniso_U_13
_atom_site_aniso_U_23
Cr1 Cr4+ 0.0104(7) 0.0104(7) 0.0097(10) 0.0000(4) 0 0
F1 F1- 0.0145(10) 0.0145(10) 0.0143(14) -0.0009(9) 0.0008(7) 0.0008(7)
F2 F1- 0.0133(12) 0.0133(12) 0.016(2) -0.0005(14) 0 0
Li1 Li1+ 0.015(4) 0.015(4) 0.008(6) 0.003(4) 0 0
#End of TTdata_418676-ICSD