
#(C) 2018 by FIZ Karlsruhe - Leibniz Institute for Information Infrastructure.  All rights reserved.
data_418979-ICSD
_database_code_ICSD 418979
_audit_creation_date 2011-02-01
_audit_update_record 2012-02-01
_chemical_name_systematic 'Lithium terbium tetrakis(phosphate(V))'
_chemical_formula_structural 'Li Tb (P O3)4'
_chemical_formula_sum 'Li1 O12 P4 Tb1'
_chemical_name_structure_type LiYb(PO3)4
_exptl_crystal_density_diffrn 3.6
_cell_measurement_temperature 273.
_publ_section_title

;
A series of lithium rare earth polyphosphates [Li Ln (P O3)4] (Ln = Tb, Ho,
Yb) and their structural, optical, and electronic properties
;
loop_
_citation_id
_citation_journal_full
_citation_year
_citation_journal_volume
_citation_page_first
_citation_page_last
_citation_journal_id_ASTM
primary 'Journal of Molecular Structure' 2008 891 25 29 JMOSB4
loop_
_publ_author_name
'Fang Ming'
'Cheng Wen Dan'
'Xie Zhi'
'Zhang Hao'
'Zhao Dan'
'Zhang Wei Long'
'Yang Song Lin'
_cell_length_a 16.28930(10)
_cell_length_b 7.0308(2)
_cell_length_c 9.6042(3)
_cell_angle_alpha 90.
_cell_angle_beta 126.0540(10)
_cell_angle_gamma 90.
_cell_volume 889.26
_cell_formula_units_Z 4
_symmetry_space_group_name_H-M 'C 1 2/c 1'
_symmetry_Int_Tables_number 15
_refine_ls_R_factor_all 0.0216
loop_
_symmetry_equiv_pos_site_id
_symmetry_equiv_pos_as_xyz
1 'x, -y, z+1/2'
2 '-x, -y, -z'
3 '-x, y, -z+1/2'
4 'x, y, z'
5 'x+1/2, -y+1/2, z+1/2'
6 '-x+1/2, -y+1/2, -z'
7 '-x+1/2, y+1/2, -z+1/2'
8 'x+1/2, y+1/2, z'
loop_
_atom_type_symbol
_atom_type_oxidation_number
Tb3+ 3
P5+ 5
O2- -2
Li1+ 1
loop_
_atom_site_label
_atom_site_type_symbol
_atom_site_symmetry_multiplicity
_atom_site_Wyckoff_symbol
_atom_site_fract_x
_atom_site_fract_y
_atom_site_fract_z
_atom_site_B_iso_or_equiv
_atom_site_occupancy
_atom_site_attached_hydrogens
Tb1 Tb3+ 4 e 0.5 0.20247(4) 0.25 0.00686(19) 1 0
P1 P5+ 8 f 0.36211(9) 0.55326(16) 0.33927(15) 0.0068(3) 1 0
P2 P5+ 8 f 0.35278(9) 0.15211(18) 0.40278(15) 0.0070(3) 1 0
O1 O2- 8 f 0.3862(3) 0.7168(5) 0.4546(5) 0.0122(8) 1 0
O2 O2- 8 f 0.4279(2) 0.0880(5) 0.5833(4) 0.0108(7) 1 0
O3 O2- 8 f 0.4341(2) 0.5028(5) 0.2971(4) 0.0111(7) 1 0
O4 O2- 8 f 0.3713(3) 0.1150(5) 0.2713(4) 0.0117(7) 1 0
O5 O2- 8 f 0.2444(2) 0.0805(5) 0.3425(4) 0.0100(7) 1 0
O6 O2- 8 f 0.3420(3) 0.3764(5) 0.4178(4) 0.0107(7) 1 0
Li1 Li1+ 4 e 0.5 0.7062(16) 0.25 0.017(3) 1 0
loop_
_atom_site_aniso_label
_atom_site_aniso_type_symbol
_atom_site_aniso_U_11
_atom_site_aniso_U_22
_atom_site_aniso_U_33
_atom_site_aniso_U_12
_atom_site_aniso_U_13
_atom_site_aniso_U_23
Tb1 Tb3+ 0.0083(2) 0.0064(2) 0.0063(2) 0. 0.00459(17) 0.
P1 P5+ 0.0070(6) 0.0070(6) 0.0059(6) 0.0001(4) 0.0035(5) 0.0006(4)
P2 P5+ 0.0082(6) 0.0070(6) 0.0059(6) -0.0007(5) 0.0043(5) 0.0000(5)
O1 O2- 0.0116(18) 0.0092(18) 0.0103(18) -0.0010(13) 0.0034(15) -0.0029(13)
O2 O2- 0.0101(16) 0.0096(16) 0.0090(17) -0.0008(13) 0.0036(14) 0.0007(13)
O3 O2- 0.0107(16) 0.0117(17) 0.0098(16) 0.0006(13) 0.0054(14) 0.0011(13)
O4 O2- 0.0136(17) 0.0113(17) 0.0145(17) -0.0017(14) 0.0108(14) -0.0022(14)
O5 O2- 0.0075(16) 0.0149(17) 0.0063(15) -0.0003(13) 0.0033(13) 0.0008(13)
O6 O2- 0.0148(17) 0.0064(17) 0.0148(17) 0.0010(13) 0.0108(14) 0.0004(14)
Li1 Li1+ 0.018(7) 0.011(7) 0.016(7) 0. 0.007(6) 0.
#End of TTdata_418979-ICSD