
#(C) 2018 by FIZ Karlsruhe - Leibniz Institute for Information Infrastructure.  All rights reserved.
data_418991-ICSD
_database_code_ICSD 418991
_audit_creation_date 2009-02-01
_chemical_name_systematic 'Distrontium lithium rhenate(VII)'
_chemical_formula_structural 'Sr2 Li (Re O6)'
_chemical_formula_sum 'Li1 O6 Re1 Sr2'
_chemical_name_structure_type Sr2NiWO6
_chemical_name_mineral 'Perovskite, double'
_exptl_crystal_density_diffrn 6.57
_cell_measurement_temperature 298.
_publ_section_title

;
Crystal growth and structural investigation of A2 B Re O6 (A = Sr, Ba; B = Li,
Na)
;
loop_
_citation_id
_citation_journal_full
_citation_year
_citation_journal_volume
_citation_page_first
_citation_page_last
_citation_journal_id_ASTM
primary 'Journal of Solid State Chemistry' 2008 181 2789 2795 JSSCBI
loop_
_publ_author_name
'Bharathy, M.'
'zur Loye, H.C.'
_cell_length_a 5.5030(9)
_cell_length_b 5.5030(9)
_cell_length_c 7.757(2)
_cell_angle_alpha 90
_cell_angle_beta 90
_cell_angle_gamma 90
_cell_volume 234.91
_cell_formula_units_Z 2
_symmetry_space_group_name_H-M 'I 4/m'
_symmetry_Int_Tables_number 87
_refine_ls_R_factor_all 0.0371
loop_
_symmetry_equiv_pos_site_id
_symmetry_equiv_pos_as_xyz
1 '-y, x, -z'
2 'y, -x, -z'
3 'x, y, -z'
4 '-x, -y, -z'
5 'y, -x, z'
6 '-y, x, z'
7 '-x, -y, z'
8 'x, y, z'
9 '-y+1/2, x+1/2, -z+1/2'
10 'y+1/2, -x+1/2, -z+1/2'
11 'x+1/2, y+1/2, -z+1/2'
12 '-x+1/2, -y+1/2, -z+1/2'
13 'y+1/2, -x+1/2, z+1/2'
14 '-y+1/2, x+1/2, z+1/2'
15 '-x+1/2, -y+1/2, z+1/2'
16 'x+1/2, y+1/2, z+1/2'
loop_
_atom_type_symbol
_atom_type_oxidation_number
Re7+ 7
O2- -2
Sr2+ 2
Li1+ 1
loop_
_atom_site_label
_atom_site_type_symbol
_atom_site_symmetry_multiplicity
_atom_site_Wyckoff_symbol
_atom_site_fract_x
_atom_site_fract_y
_atom_site_fract_z
_atom_site_B_iso_or_equiv
_atom_site_occupancy
_atom_site_attached_hydrogens
Re1 Re7+ 2 a 0. 0. 0. 0.0068(3) 1. 0
O1 O2- 8 h 0.237(3) 0.235(3) 0. 0.035(6) 1. 0
O2 O2- 4 e 0. 0. 0.234(6) 0.034(7) 1. 0
Sr1 Sr2+ 4 d 0. 0.5 0.25 0.0123(5) 1. 0
Li1 Li1+ 2 b 0. 0. 0.5 0.020(16) 1. 0
loop_
_atom_site_aniso_label
_atom_site_aniso_type_symbol
_atom_site_aniso_U_11
_atom_site_aniso_U_22
_atom_site_aniso_U_33
_atom_site_aniso_U_12
_atom_site_aniso_U_13
_atom_site_aniso_U_23
Re1 Re7+ 0.0058(5) 0.0058(5) 0.0088(7) 0. 0. 0.
O1 O2- 0.008(5) 0.008(5) 0.0078(18) 0.000(4) 0. 0.
O2 O2- 0.031(8) 0.031(8) 0.041(18) 0. 0. 0.
Sr1 Sr2+ 0.0106(7) 0.0106(7) 0.0157(12) 0. 0. 0.
#End of TTdata_418991-ICSD