
#(C) 2018 by FIZ Karlsruhe - Leibniz Institute for Information Infrastructure.  All rights reserved.
data_420160-ICSD
_database_code_ICSD 420160
_audit_creation_date 2015-08-01
_chemical_name_systematic 'Trisodium lithium bis(molybdate) hexahydrate'
_chemical_formula_structural 'Na3 Li (Mo O4)2 (H2 O)6'
_chemical_formula_sum 'H12 Li1 Mo2 Na3 O14'
_exptl_crystal_density_diffrn 2.43
_cell_measurement_temperature 293.
_publ_section_title

;
Trigonal Na3 Li (Mo O4)2 * 6(H2 O) - a new many-phonon SRS molybdate crystal
offering numerous nonlinear-laser interactions: several cascaded lasing
(chi(3) <-> chi(2)) effects and more than sesqui-octave Stokes and anti-Stokes
comb generation under one-micron picosecond pumping
;
loop_
_citation_id
_citation_journal_full
_citation_year
_citation_journal_volume
_citation_page_first
_citation_page_last
_citation_journal_id_ASTM
primary 'Laser Physics Letters' 2009 6 335 350 LPLABC
loop_
_publ_author_name
'Kaminskii, A.A.'
'Bohaty, L.'
'Becker, P.'
'Held, P.'
'Rhee, H.'
'Eichler, H.J.'
'Hanuza, J.'
_cell_length_a 8.7416(6)
_cell_length_b 8.7416(6)
_cell_length_c 31.2059(19)
_cell_angle_alpha 90.
_cell_angle_beta 90.
_cell_angle_gamma 120.
_cell_volume 2065.14
_cell_formula_units_Z 6
_symmetry_space_group_name_H-M 'R 3 c H'
_symmetry_Int_Tables_number 161
_refine_ls_R_factor_all 0.0141
loop_
_symmetry_equiv_pos_site_id
_symmetry_equiv_pos_as_xyz
1 '-x+y, y, z+1/2'
2 'x, x-y, z+1/2'
3 '-y, -x, z+1/2'
4 '-x+y, -x, z'
5 '-y, x-y, z'
6 'x, y, z'
7 '-x+y+2/3, y+1/3, z+5/6'
8 'x+2/3, x-y+1/3, z+5/6'
9 '-y+2/3, -x+1/3, z+5/6'
10 '-x+y+2/3, -x+1/3, z+1/3'
11 '-y+2/3, x-y+1/3, z+1/3'
12 'x+2/3, y+1/3, z+1/3'
13 '-x+y+1/3, y+2/3, z+1/6'
14 'x+1/3, x-y+2/3, z+1/6'
15 '-y+1/3, -x+2/3, z+1/6'
16 '-x+y+1/3, -x+2/3, z+2/3'
17 '-y+1/3, x-y+2/3, z+2/3'
18 'x+1/3, y+2/3, z+2/3'
loop_
_atom_type_symbol
_atom_type_oxidation_number
Mo6+ 6
Na1+ 1
Li1+ 1
O2- -2
H1+ 1
loop_
_atom_site_label
_atom_site_type_symbol
_atom_site_symmetry_multiplicity
_atom_site_Wyckoff_symbol
_atom_site_fract_x
_atom_site_fract_y
_atom_site_fract_z
_atom_site_B_iso_or_equiv
_atom_site_occupancy
_atom_site_attached_hydrogens
Mo1 Mo6+ 6 a 0. 0. 0.124903(4) 0.01424(7) 1 0
Mo2 Mo6+ 6 a 0. 0. 0.372669(5) 0.01384(8) 1 0
Na1 Na1+ 18 b 0.44439(8) 0.37290(8) 0.10517(4) 0.02302(16) 1 0
Li1 Li1+ 6 a 0. 0. 0.00821(15) 0.0236(12) 1 0
O1 O2- 6 a 0. 0. 0.06927(9) 0.0314(6) 1 0
O2 O2- 18 b 0.17471(16) 0.20281(16) 0.14428(5) 0.0239(3) 1 0
O3 O2- 6 a 0. 0. 0.31611(8) 0.0211(5) 1 0
O4 O2- 18 b 0.21476(16) 0.15215(17) 0.39111(4) 0.0226(3) 1 0
O5 O2- 18 b 0.04503(18) 0.81520(18) -0.01190(5) 0.0231(2) 1 0
O6 O2- 18 b 0.4160(2) 0.1197(2) 0.06627(5) 0.0269(3) 1 0
H1 H1+ 18 b 0.078(3) 0.784(3) 0.0102(9) 0.044(7) 1 0
H2 H1+ 18 b -0.047(3) 0.735(3) -0.0206(7) 0.032(6) 1 0
H3 H1+ 18 b 0.434(4) 0.130(4) 0.0422(10) 0.042(7) 1 0
H4 H1+ 18 b 0.349(4) 0.034(4) 0.0670(9) 0.047(9) 1 0
loop_
_atom_site_aniso_label
_atom_site_aniso_type_symbol
_atom_site_aniso_U_11
_atom_site_aniso_U_22
_atom_site_aniso_U_33
_atom_site_aniso_U_12
_atom_site_aniso_U_13
_atom_site_aniso_U_23
Mo1 Mo6+ 0.01463(8) 0.01463(8) 0.01347(14) 0.00731(4) 0. 0.
Mo2 Mo6+ 0.01360(8) 0.01360(8) 0.01432(15) 0.00680(4) 0. 0.
Na1 Na1+ 0.0220(4) 0.0239(4) 0.0231(3) 0.0114(3) 0.0024(3) 0.0010(3)
Li1 Li1+ 0.0243(15) 0.0243(15) 0.022(3) 0.0122(8) 0. 0.
O1 O2- 0.0387(10) 0.0387(10) 0.0169(11) 0.0194(5) 0. 0.
O2 O2- 0.0205(6) 0.0184(6) 0.0256(5) 0.0044(5) 0.0007(5) -0.0027(4)
O3 O2- 0.0240(8) 0.0240(8) 0.0153(10) 0.0120(4) 0. 0.
O4 O2- 0.0176(5) 0.0220(6) 0.0247(6) 0.0072(5) -0.0025(4) -0.0041(5)
O5 O2- 0.0203(6) 0.0239(6) 0.0244(6) 0.0106(6) -0.0022(5) -0.0007(5)
O6 O2- 0.0296(8) 0.0279(8) 0.0230(6) 0.0141(7) -0.0012(5) -0.0014(6)
#End of TTdata_420160-ICSD