
#(C) 2018 by FIZ Karlsruhe - Leibniz Institute for Information Infrastructure.  All rights reserved.
data_420286-ICSD
_database_code_ICSD 420286
_audit_creation_date 2009-08-01
_chemical_name_systematic 'Lithium fluoro nonaoxohexaborate'
_chemical_formula_structural 'Li F (B6 O9)'
_chemical_formula_sum 'B6 F1 Li1 O9'
_exptl_crystal_density_diffrn 2.21
_cell_measurement_temperature 296.
_publ_section_title

;
Li B6 O9 F, the first lithium fluorooxoborate - Crystal structure and ionic
conductivity
;
loop_
_citation_id
_citation_journal_full
_citation_year
_citation_journal_volume
_citation_page_first
_citation_page_last
_citation_journal_id_ASTM
primary 'Zeitschrift fuer Anorganische und Allgemeine Chemie (1950) (DE)' 2009
635 631 636 ZAACAB
loop_
_publ_author_name
'Cakmak, G.'
'Nuss, J.'
'Jansen, M.'
_cell_length_a 7.65545(13)
_cell_length_b 8.53175(14)
_cell_length_c 10.7894(2)
_cell_angle_alpha 90.
_cell_angle_beta 90.
_cell_angle_gamma 90.
_cell_volume 704.7
_cell_formula_units_Z 4
_symmetry_space_group_name_H-M 'P n a 21'
_symmetry_Int_Tables_number 33
_refine_ls_R_factor_all 0.0184
loop_
_symmetry_equiv_pos_site_id
_symmetry_equiv_pos_as_xyz
1 'x+1/2, -y+1/2, z'
2 '-x+1/2, y+1/2, z+1/2'
3 '-x, -y, z+1/2'
4 'x, y, z'
loop_
_atom_type_symbol
_atom_type_oxidation_number
F1- -1
O2- -2
B3+ 3
Li1+ 1
loop_
_atom_site_label
_atom_site_type_symbol
_atom_site_symmetry_multiplicity
_atom_site_Wyckoff_symbol
_atom_site_fract_x
_atom_site_fract_y
_atom_site_fract_z
_atom_site_B_iso_or_equiv
_atom_site_occupancy
_atom_site_attached_hydrogens
F1 F1- 4 a -0.26577(13) 0.93262(12) 0.69470(11) 0.0316(3) 1 0
O1 O2- 4 a 0.43201(16) 0.95822(15) 0.66386(12) 0.0253(4) 1 0
O2 O2- 4 a 0.06397(18) 0.70596(17) 1.06501(14) 0.0281(4) 1 0
O3 O2- 4 a 0.36401(15) 0.98963(15) 0.99662(15) 0.0260(4) 1 0
O4 O2- 4 a 0.24849(16) 1.16973(13) 0.73026(15) 0.0288(4) 1 0
O5 O2- 4 a 0.08368(14) 0.95472(14) 0.81049(13) 0.0240(4) 1 0
O6 O2- 4 a -0.09992(17) 0.75193(15) 0.88694(13) 0.0242(4) 1 0
O7 O2- 4 a 0.06596(17) 1.21144(16) 0.89853(14) 0.0274(4) 1 0
O8 O2- 4 a -0.10910(16) 1.00514(16) 0.97875(14) 0.0270(4) 1 0
O9 O2- 4 a 0.10530(19) 0.75282(16) 0.58014(15) 0.0250(4) 1 0
B1 B3+ 4 a 0.5986(3) 0.9144(3) 0.6046(2) 0.0224(6) 1 0
B2 B3+ 4 a -0.0614(3) 0.6510(3) 0.9844(2) 0.0223(6) 1 0
B3 B3+ 4 a 0.3715(3) 1.1068(3) 0.6534(2) 0.0246(6) 1 0
B4 B3+ 4 a 0.1353(3) 1.1113(3) 0.8138(2) 0.0243(6) 1 0
B5 B3+ 4 a -0.0423(3) 0.9049(2) 0.8928(2) 0.0223(5) 1 0
B6 B3+ 4 a 0.0499(3) 0.8421(2) 0.4859(2) 0.0226(6) 1 0
Li1 Li1+ 4 a 0.2647(4) 0.8023(3) 0.7265(4) 0.0309(8) 1 0
loop_
_atom_site_aniso_label
_atom_site_aniso_type_symbol
_atom_site_aniso_U_11
_atom_site_aniso_U_22
_atom_site_aniso_U_33
_atom_site_aniso_U_12
_atom_site_aniso_U_13
_atom_site_aniso_U_23
F1 F1- 0.0331(6) 0.0269(5) 0.0346(7) -0.0010(4) -0.0117(6) -0.0020(5)
O1 O2- 0.0279(6) 0.0230(8) 0.0249(9) 0.0023(6) 0.0031(6) 0.0031(6)
O2 O2- 0.0339(9) 0.0204(8) 0.0300(9) -0.0029(7) -0.0090(8) 0.0037(9)
O3 O2- 0.0309(7) 0.0207(7) 0.0264(7) 0.0038(6) -0.0059(8) -0.0030(6)
O4 O2- 0.0328(7) 0.0235(6) 0.0302(8) 0.0005(7) 0.0097(6) 0.0024(7)
O5 O2- 0.0283(8) 0.0201(8) 0.0236(9) 0.0000(5) 0.0018(6) -0.0016(8)
O6 O2- 0.0327(9) 0.0199(9) 0.0200(10) -0.0014(5) -0.0035(8) 0.0009(7)
O7 O2- 0.0325(8) 0.0204(7) 0.0291(9) -0.0019(6) 0.0094(8) -0.0014(8)
O8 O2- 0.0338(7) 0.0217(8) 0.0254(9) -0.0031(6) 0.0078(7) -0.0017(6)
O9 O2- 0.0331(8) 0.0199(11) 0.0220(10) -0.0012(6) -0.0031(7) -0.0004(6)
B1 B3+ 0.0262(12) 0.0159(14) 0.0250(13) -0.0001(11) -0.0012(10) 0.0000(10)
B2 B3+ 0.0260(11) 0.0217(13) 0.0190(14) 0.0026(10) 0.0005(11) -0.0040(13)
B3 B3+ 0.0256(12) 0.0250(15) 0.0231(13) -0.0010(10) 0.0014(12) -0.0007(12)
B4 B3+ 0.0276(12) 0.0211(12) 0.0240(12) 0.0020(10) -0.0025(13) 0.0012(11)
B5 B3+ 0.0262(12) 0.0213(11) 0.0195(12) 0.0012(9) -0.0028(12) 0.0001(11)
B6 B3+ 0.0263(11) 0.0199(12) 0.0217(14) 0.0011(10) 0.0030(12) 0.0017(13)
Li1 Li1+ 0.0333(17) 0.0284(16) 0.0311(18) -0.0017(15) -0.0019(15) 0.0002(19)
#End of TTdata_420286-ICSD