
#(C) 2018 by FIZ Karlsruhe - Leibniz Institute for Information Infrastructure.  All rights reserved.
data_420440-ICSD
_database_code_ICSD 420440
_audit_creation_date 2010-02-01
_chemical_name_systematic 'Lithium lanthanum bis(carbodiimide)'
_chemical_formula_structural 'Li La (C N2)2'
_chemical_formula_sum 'C2 La1 Li1 N4'
_exptl_crystal_density_diffrn 3.67
_cell_measurement_temperature 210.
_publ_section_title 'The many faces of rare earth carbodiimide compounds'
loop_
_citation_id
_citation_journal_full
_citation_year
_citation_journal_volume
_citation_page_first
_citation_page_last
_citation_journal_id_ASTM
primary 'Zeitschrift fuer Anorganische und Allgemeine Chemie (1950) (DE)' 2009
635 1947 1952 ZAACAB
loop_
_publ_author_name
'Unverfehrt, L.'
'Stroebele, M.'
'Glaser, J.'
'Meyer, H.J.'
_cell_length_a 5.424(1)
_cell_length_b 3.7916(7)
_cell_length_c 10.130(3)
_cell_angle_alpha 90.
_cell_angle_beta 101.35(3)
_cell_angle_gamma 90.
_cell_volume 204.26
_cell_formula_units_Z 2
_symmetry_space_group_name_H-M 'P 1 21/m 1'
_symmetry_Int_Tables_number 11
_refine_ls_R_factor_all 0.0188
loop_
_symmetry_equiv_pos_site_id
_symmetry_equiv_pos_as_xyz
1 'x, -y+1/2, z'
2 '-x, -y, -z'
3 '-x, y+1/2, -z'
4 'x, y, z'
loop_
_atom_type_symbol
_atom_type_oxidation_number
La3+ 3
N3- -3
C4+ 4
N3- -3
C4+ 4
N3- -3
Li1+ 1
loop_
_atom_site_label
_atom_site_type_symbol
_atom_site_symmetry_multiplicity
_atom_site_Wyckoff_symbol
_atom_site_fract_x
_atom_site_fract_y
_atom_site_fract_z
_atom_site_B_iso_or_equiv
_atom_site_occupancy
_atom_site_attached_hydrogens
La1 La3+ 2 e 0.98319(5) 0.25 0.19343(3) 0.01018(14) 1 0
N1 N3- 2 e 0.6502(9) -0.25 0.1585(5) 0.0131(9) 1 0
C1 C4+ 2 e 1.4260(11) -0.25 0.1093(6) 0.0135(11) 1 0
N2 N3- 2 e 0.8038(9) 0.25 -0.0658(5) 0.0139(10) 1 0
N3 N3- 2 e 0.7576(9) 0.25 0.4048(5) 0.0155(10) 1 0
C2 C4+ 2 e 1.2203(10) -0.25 0.4741(6) 0.0123(11) 1 0
N4 N3- 2 e 1.2071(9) -0.25 0.3491(5) 0.0138(10) 1 0
Li1 Li1+ 2 e 1.5945(19) -0.25 0.3574(12) 0.020(2) 1 0
loop_
_atom_site_aniso_label
_atom_site_aniso_type_symbol
_atom_site_aniso_U_11
_atom_site_aniso_U_22
_atom_site_aniso_U_33
_atom_site_aniso_U_12
_atom_site_aniso_U_13
_atom_site_aniso_U_23
La1 La3+ 0.01059(18) 0.00841(18) 0.0118(2) 0. 0.00295(13) 0.
N1 N3- 0.013(2) 0.0131(19) 0.014(3) 0. 0.004(2) 0.
C1 C4+ 0.020(3) 0.011(2) 0.011(3) 0. 0.006(2) 0.
N2 N3- 0.017(2) 0.0115(19) 0.014(3) 0. 0.005(2) 0.
N3 N3- 0.018(2) 0.016(2) 0.012(3) 0. 0.002(2) 0.
C2 C4+ 0.012(2) 0.008(2) 0.018(3) 0. 0.005(2) 0.
N4 N3- 0.015(2) 0.0123(19) 0.015(3) 0. 0.005(2) 0.
Li1 Li1+ 0.017(4) 0.016(4) 0.026(6) 0. 0.004(4) 0.
#End of TTdata_420440-ICSD