
#(C) 2018 by FIZ Karlsruhe - Leibniz Institute for Information Infrastructure.  All rights reserved.
data_420842-ICSD
_database_code_ICSD 420842
_audit_creation_date 2010-08-01
_audit_update_record 2013-02-01
_chemical_name_systematic 'Lithium zinc niobium oxide (0.667/0.667/2.667/7.672)'
_chemical_formula_structural 'Li0.667 Zn0.667 Nb2.667 O7.672'
_chemical_formula_sum 'Li0.667 Nb2.667 O7.672 Zn0.667'
_exptl_crystal_density_diffrn 5.11
_cell_measurement_temperature 293.
_publ_section_title

;
Li0.667 Zn0.667 Nb2.667 O7.672: A novel oxygen deficient compound in the
Nb-rich part of Li2 O - Zn O - Nb2 O5 system as a member of the a-Pb O2-Z
(3+1)D structure type
;
loop_
_citation_id
_citation_journal_full
_citation_year
_citation_journal_volume
_citation_page_first
_citation_page_last
_citation_journal_id_ASTM
primary 'Journal of Solid State Chemistry' 2010 183 408 418 JSSCBI
loop_
_publ_author_name
'Morozov, V.A.'
'Arakcheeva, A.V.'
'Konovalova, V.V.'
'Pattison, P.'
'Chapuis, G.'
'Lebedev, O.I.'
'Fomichev, V.V.'
'van Tendeloo, G.'
_cell_length_a 4.72420(3)
_cell_length_b 5.72780(3)
_cell_length_c 5.03320(3)
_cell_angle_alpha 90
_cell_angle_beta 90
_cell_angle_gamma 90.048(2)
_cell_volume 136.19
_cell_formula_units_Z 1
_symmetry_space_group_name_H-M 'P 1 1 21/n'
_symmetry_Int_Tables_number 14
_refine_ls_R_factor_all 0.0169
loop_
_symmetry_equiv_pos_site_id
_symmetry_equiv_pos_as_xyz
1 'x+1/2, y+1/2, -z+1/2'
2 '-x, -y, -z'
3 '-x+1/2, -y+1/2, z+1/2'
4 'x, y, z'
loop_
_atom_type_symbol
_atom_type_oxidation_number
Zn2+ 2
O2- -2
Nb5+ 5
Li1+ 1
Nb5+ 5
Li1+ 1
Nb5+ 5
Li1+ 1
Nb5+ 5
Li1+ 1
Nb5+ 5
Zn2+ 2
loop_
_atom_site_label
_atom_site_type_symbol
_atom_site_symmetry_multiplicity
_atom_site_Wyckoff_symbol
_atom_site_fract_x
_atom_site_fract_y
_atom_site_fract_z
_atom_site_B_iso_or_equiv
_atom_site_occupancy
_atom_site_attached_hydrogens
Zn1 Zn2+ 4 e -0.0005(4) 0.67803(9) -0.2476(3) 0.00348(12) 0.0333 0
Zn2 Zn2+ 4 e -0.0005(4) 0.67803(9) -0.2476(3) 0.00348(12) 0.0333 0
O1 O2- 4 e 0.2281(8) 0.6117(10) 0.0861(12) 0.001 1 0
O2 O2- 4 e -0.2326(9) 0.6180(12) -0.5755(13) 0.001 0.918 0
Nb1 Nb5+ 4 e -0.0005(4) 0.67803(9) -0.2476(3) 0.00348(12) 0.0667 0
Nb2 Nb5+ 4 e -0.0005(4) 0.67803(9) -0.2476(3) 0.00348(12) 0.0667 0
Li1 Li1+ 4 e -0.0005(4) 0.67803(9) -0.2476(3) 0.00348(12) 0.017 0
Nb3 Nb5+ 4 e -0.0005(4) 0.67803(9) -0.2476(3) 0.00348(12) 0.083 0
Li2 Li1+ 4 e -0.0005(4) 0.67803(9) -0.2476(3) 0.00348(12) 0.072 0
Nb4 Nb5+ 4 e -0.0005(4) 0.67803(9) -0.2476(3) 0.00348(12) 0.028 0
Li3 Li1+ 4 e -0.0005(4) 0.67803(9) -0.2476(3) 0.00348(12) 0.028 0
Nb5 Nb5+ 4 e -0.0005(4) 0.67803(9) -0.2476(3) 0.00348(12) 0.072 0
Li4 Li1+ 4 e -0.0005(4) 0.67803(9) -0.2476(3) 0.00348(12) 0.05 0
Nb6 Nb5+ 4 e -0.0005(4) 0.67803(9) -0.2476(3) 0.00348(12) 0.05 0
Nb7 Nb5+ 4 e -0.0005(4) 0.67803(9) -0.2476(3) 0.00348(12) 0.2 0
Nb8 Nb5+ 4 e -0.0005(4) 0.67803(9) -0.2476(3) 0.00348(12) 0.1 0
Zn3 Zn2+ 4 e -0.0005(4) 0.67803(9) -0.2476(3) 0.00348(12) 0.1 0
#End of TTdata_420842-ICSD