
#(C) 2018 by FIZ Karlsruhe - Leibniz Institute for Information Infrastructure.  All rights reserved.
data_422191-ICSD
_database_code_ICSD 422191
_audit_creation_date 2012-02-01
_chemical_name_systematic 'Lithium  technetate(VII) trihydrate'
_chemical_formula_structural 'Li (Tc O4) (H2 O)3'
_chemical_formula_sum 'H6 Li1 O7 Tc1'
_chemical_name_structure_type LiClO4(H2O)3
_exptl_crystal_density_diffrn 2.57
_cell_measurement_temperature 100.
_publ_section_title

;
Lithium pertechnetate trihydrate Li (Tc O4) * 3(H2 O) : synthesis and crystal
structure
;
loop_
_citation_id
_citation_journal_full
_citation_year
_citation_journal_volume
_citation_page_first
_citation_page_last
_citation_journal_id_ASTM
primary 'Koordinatsionnaya Khimiya' 2011 37 442 444 KOKHDC
loop_
_publ_author_name
'Maruk, A.Ya.'
'Grigor'ev, M.S. (Grigorev, M.S.)'
'German, K.E.'
_cell_length_a 7.8604(1)
_cell_length_b 7.8604(1)
_cell_length_c 5.4164(1)
_cell_angle_alpha 90.
_cell_angle_beta 90.
_cell_angle_gamma 120.
_cell_volume 289.82
_cell_formula_units_Z 2
_symmetry_space_group_name_H-M 'P 63 m c'
_symmetry_Int_Tables_number 186
_refine_ls_R_factor_all 0.0068
loop_
_symmetry_equiv_pos_site_id
_symmetry_equiv_pos_as_xyz
1 '-x, -x+y, z+1/2'
2 'x-y, -y, z+1/2'
3 'y, x, z+1/2'
4 'x-y, x, z+1/2'
5 'y, -x+y, z+1/2'
6 '-x, -y, z+1/2'
7 'x, x-y, z'
8 '-x+y, y, z'
9 '-y, -x, z'
10 '-x+y, -x, z'
11 '-y, x-y, z'
12 'x, y, z'
loop_
_atom_type_symbol
_atom_type_oxidation_number
Tc7+ 7
O2- -2
Li1+ 1
O2- -2
H1+ 1
loop_
_atom_site_label
_atom_site_type_symbol
_atom_site_symmetry_multiplicity
_atom_site_Wyckoff_symbol
_atom_site_fract_x
_atom_site_fract_y
_atom_site_fract_z
_atom_site_B_iso_or_equiv
_atom_site_occupancy
_atom_site_attached_hydrogens
Tc1 Tc7+ 2 b 0.6667 0.3333 0.10092(4) 0.00587(2) 1 0
O1 O2- 2 b 0.6667 0.3333 -0.2148(2) 0.01011(15) 1 0
O2 O2- 6 c 0.54704(4) 0.09408(8) 0.20307(11) 0.01166(9) 1 0
Li1 Li1+ 2 a 0. 0. 0.3929(4) 0.0125(6) 1 0
O3 O2- 6 c 0.12091(4) 0.24183(8) 0.14198(8) 0.01000(10) 1 0
H1 H1+ 12 d 0.2423(18) 0.3141(18) 0.148(3) 0.024(4) 1 0
loop_
_atom_site_aniso_label
_atom_site_aniso_type_symbol
_atom_site_aniso_U_11
_atom_site_aniso_U_22
_atom_site_aniso_U_33
_atom_site_aniso_U_12
_atom_site_aniso_U_13
_atom_site_aniso_U_23
Tc1 Tc7+ 0.00493(2) 0.00493(2) 0.00775(3) 0.00246(1) 0. 0.
O1 O2- 0.0108(2) 0.0108(2) 0.0088(4) 0.00538(11) 0. 0.
O2 O2- 0.01169(15) 0.00728(18) 0.0145(2) 0.00364(9) 0.00121(8) 0.00241(16)
Li1 Li1+ 0.0133(5) 0.0133(5) 0.0109(18) 0.0066(2) 0. 0.
O3 O2- 0.00881(12) 0.00800(16) 0.0129(3) 0.00400(8) -0.00036(7) -0.00071(14)
#End of TTdata_422191-ICSD