
#(C) 2018 by FIZ Karlsruhe - Leibniz Institute for Information Infrastructure.  All rights reserved.
data_422558-ICSD
_database_code_ICSD 422558
_audit_creation_date 2011-08-01
_chemical_name_systematic 'Lithium neodymium dioxide'
_chemical_formula_structural 'Li Nd O2'
_chemical_formula_sum 'Li1 Nd1 O2'
_chemical_name_structure_type LiYO2
_exptl_crystal_density_diffrn 6.23
_cell_measurement_temperature 295.
_publ_section_title

;
Crystal growth and optical properties of lithium lanthanide oxides: Li Ln O2
(Ln = Nd, Sm, Eu, Gd and Dy)
;
loop_
_citation_id
_citation_journal_full
_citation_year
_citation_journal_volume
_citation_page_first
_citation_page_last
_citation_journal_id_ASTM
primary 'Solid State Sciences' 2011 13 1006 1012 SSSCFJ
loop_
_publ_author_name
'Cantwell, J.R.'
'Roof, I.P.'
'Smith, M.D.'
'zur Loye, H.C.'
_cell_length_a 5.7654(5)
_cell_length_b 6.0848(5)
_cell_length_c 5.7143(5)
_cell_angle_alpha 90.
_cell_angle_beta 102.924(2)
_cell_angle_gamma 90.
_cell_volume 195.39
_cell_formula_units_Z 4
_symmetry_space_group_name_H-M 'P 1 21/c 1'
_symmetry_Int_Tables_number 14
_refine_ls_R_factor_all 0.0218
loop_
_symmetry_equiv_pos_site_id
_symmetry_equiv_pos_as_xyz
1 'x, -y+1/2, z+1/2'
2 '-x, -y, -z'
3 '-x, y+1/2, -z+1/2'
4 'x, y, z'
loop_
_atom_type_symbol
_atom_type_oxidation_number
Nd3+ 3
Li1+ 1
O2- -2
loop_
_atom_site_label
_atom_site_type_symbol
_atom_site_symmetry_multiplicity
_atom_site_Wyckoff_symbol
_atom_site_fract_x
_atom_site_fract_y
_atom_site_fract_z
_atom_site_B_iso_or_equiv
_atom_site_occupancy
_atom_site_attached_hydrogens
Nd1 Nd3+ 4 e 0.20000(3) 0.56796(3) 0.30730(3) 0.00666(8) 1 0
Li1 Li1+ 4 e 0.332(3) 0.139(3) 0.313(3) 0.012(4) 0.5 0
Li2 Li1+ 4 e 0.366(3) 0.138(3) 0.374(3) 0.011(3) 0.5 0
O1 O2- 4 e 0.0827(5) 0.2606(4) 0.0125(5) 0.0085(5) 1 0
O2 O2- 4 e 0.5700(5) 0.3705(5) 0.2858(5) 0.0092(5) 1 0
loop_
_atom_site_aniso_label
_atom_site_aniso_type_symbol
_atom_site_aniso_U_11
_atom_site_aniso_U_22
_atom_site_aniso_U_33
_atom_site_aniso_U_12
_atom_site_aniso_U_13
_atom_site_aniso_U_23
Nd1 Nd3+ 0.00650(11) 0.00638(11) 0.00699(11) 0.00006(6) 0.00128(6) 0.00008(6)
O1 O2- 0.0071(11) 0.0093(11) 0.0092(11) -0.0001(9) 0.0019(8) 0.0003(9)
O2 O2- 0.0087(12) 0.0073(11) 0.0120(12) 0.0000(9) 0.0028(9) 0.0002(9)
#End of TTdata_422558-ICSD