
#(C) 2018 by FIZ Karlsruhe - Leibniz Institute for Information Infrastructure.  All rights reserved.
data_422560-ICSD
_database_code_ICSD 422560
_audit_creation_date 2011-08-01
_chemical_name_systematic 'Lithium europium dioxide'
_chemical_formula_structural 'Li Eu O2'
_chemical_formula_sum 'Eu1 Li1 O2'
_chemical_name_structure_type SrZnO2
_exptl_crystal_density_diffrn 6.
_cell_measurement_temperature 295.
_publ_section_title

;
Crystal growth and optical properties of lithium lanthanide oxides: Li Ln O2
(Ln = Nd, Sm, Eu, Gd and Dy)
;
loop_
_citation_id
_citation_journal_full
_citation_year
_citation_journal_volume
_citation_page_first
_citation_page_last
_citation_journal_id_ASTM
primary 'Solid State Sciences' 2011 13 1006 1012 SSSCFJ
loop_
_publ_author_name
'Cantwell, J.R.'
'Roof, I.P.'
'Smith, M.D.'
'zur Loye, H.C.'
_cell_length_a 11.409(5)
_cell_length_b 3.4750(15)
_cell_length_c 5.334(2)
_cell_angle_alpha 90.
_cell_angle_beta 90.
_cell_angle_gamma 90.
_cell_volume 211.47
_cell_formula_units_Z 4
_symmetry_space_group_name_H-M 'P n m a'
_symmetry_Int_Tables_number 62
_refine_ls_R_factor_all 0.0184
loop_
_symmetry_equiv_pos_site_id
_symmetry_equiv_pos_as_xyz
1 'x+1/2, y, -z+1/2'
2 'x, -y+1/2, z'
3 '-x+1/2, y+1/2, z+1/2'
4 '-x, -y, -z'
5 '-x+1/2, -y, z+1/2'
6 '-x, y+1/2, -z'
7 'x+1/2, -y+1/2, -z+1/2'
8 'x, y, z'
loop_
_atom_type_symbol
_atom_type_oxidation_number
Eu3+ 3
Li1+ 1
O2- -2
loop_
_atom_site_label
_atom_site_type_symbol
_atom_site_symmetry_multiplicity
_atom_site_Wyckoff_symbol
_atom_site_fract_x
_atom_site_fract_y
_atom_site_fract_z
_atom_site_B_iso_or_equiv
_atom_site_occupancy
_atom_site_attached_hydrogens
Eu1 Eu3+ 4 c 0.359739(15) 0.25 0.04282(4) 0.00762(8) 1 0
Li1 Li1+ 4 c 0.0666(8) 0.25 0.0913(15) 0.0215(17) 1 0
O1 O2- 4 c 0.0276(2) 0.25 0.7431(5) 0.0098(5) 1 0
O2 O2- 4 c 0.2024(2) 0.25 0.2987(5) 0.0099(5) 1 0
loop_
_atom_site_aniso_label
_atom_site_aniso_type_symbol
_atom_site_aniso_U_11
_atom_site_aniso_U_22
_atom_site_aniso_U_33
_atom_site_aniso_U_12
_atom_site_aniso_U_13
_atom_site_aniso_U_23
Eu1 Eu3+ 0.00779(11) 0.00697(10) 0.00808(11) 0. 0.00038(6) 0.
Li1 Li1+ 0.024(4) 0.030(4) 0.011(3) 0. -0.009(3) 0.
O1 O2- 0.0113(12) 0.0116(11) 0.0064(11) 0. 0.0002(10) 0.
O2 O2- 0.0099(11) 0.0104(11) 0.0094(12) 0. 0.0024(10) 0.
#End of TTdata_422560-ICSD