
#(C) 2018 by FIZ Karlsruhe - Leibniz Institute for Information Infrastructure.  All rights reserved.
data_422680-ICSD
_database_code_ICSD 422680
_audit_creation_date 2012-02-01
_chemical_name_systematic 'Lithium cyanate'
_chemical_formula_structural 'Li O C N'
_chemical_formula_sum 'C1 Li1 N1 O1'
_chemical_name_structure_type Delafossite-NaCrS2
_exptl_crystal_density_diffrn 1.89
_cell_measurement_temperature 296.
_publ_section_title 'Structure and thermal properties of lithium cyanate'
loop_
_citation_id
_citation_journal_full
_citation_year
_citation_journal_volume
_citation_page_first
_citation_page_last
_citation_journal_id_ASTM
primary 'Zeitschrift fuer Anorganische und Allgemeine Chemie (1950) (DE)' 2011
637 1199 1202 ZAACAB
loop_
_publ_author_name
'Hennings, E.'
'Schmidt, H.'
'Voigt, W.'
_cell_length_a 3.22980(10)
_cell_length_b 3.22980(10)
_cell_length_c 14.2678(13)
_cell_angle_alpha 90
_cell_angle_beta 90
_cell_angle_gamma 120
_cell_volume 128.9
_cell_formula_units_Z 3
_symmetry_space_group_name_H-M 'R -3 m H'
_symmetry_Int_Tables_number 166
_refine_ls_R_factor_all 0.0276
loop_
_symmetry_equiv_pos_site_id
_symmetry_equiv_pos_as_xyz
1 'x-y, -y, -z'
2 '-x, -x+y, -z'
3 'y, x, -z'
4 'x-y, x, -z'
5 'y, -x+y, -z'
6 '-x, -y, -z'
7 '-x+y, y, z'
8 'x, x-y, z'
9 '-y, -x, z'
10 '-x+y, -x, z'
11 '-y, x-y, z'
12 'x, y, z'
13 'x-y+2/3, -y+1/3, -z+1/3'
14 '-x+2/3, -x+y+1/3, -z+1/3'
15 'y+2/3, x+1/3, -z+1/3'
16 'x-y+2/3, x+1/3, -z+1/3'
17 'y+2/3, -x+y+1/3, -z+1/3'
18 '-x+2/3, -y+1/3, -z+1/3'
19 '-x+y+2/3, y+1/3, z+1/3'
20 'x+2/3, x-y+1/3, z+1/3'
21 '-y+2/3, -x+1/3, z+1/3'
22 '-x+y+2/3, -x+1/3, z+1/3'
23 '-y+2/3, x-y+1/3, z+1/3'
24 'x+2/3, y+1/3, z+1/3'
25 'x-y+1/3, -y+2/3, -z+2/3'
26 '-x+1/3, -x+y+2/3, -z+2/3'
27 'y+1/3, x+2/3, -z+2/3'
28 'x-y+1/3, x+2/3, -z+2/3'
29 'y+1/3, -x+y+2/3, -z+2/3'
30 '-x+1/3, -y+2/3, -z+2/3'
31 '-x+y+1/3, y+2/3, z+2/3'
32 'x+1/3, x-y+2/3, z+2/3'
33 '-y+1/3, -x+2/3, z+2/3'
34 '-x+y+1/3, -x+2/3, z+2/3'
35 '-y+1/3, x-y+2/3, z+2/3'
36 'x+1/3, y+2/3, z+2/3'
loop_
_atom_type_symbol
_atom_type_oxidation_number
C4+ 4
N3- -3
O2- -2
Li1+ 1
loop_
_atom_site_label
_atom_site_type_symbol
_atom_site_symmetry_multiplicity
_atom_site_Wyckoff_symbol
_atom_site_fract_x
_atom_site_fract_y
_atom_site_fract_z
_atom_site_B_iso_or_equiv
_atom_site_occupancy
_atom_site_attached_hydrogens
C1 C4+ 3 b 0 0 0.5 0.0172(3) 1 0
N1 N3- 6 c 0 0 0.41552(4) 0.0267(2) 0.5 0
O1 O2- 6 c 0 0 0.41552(4) 0.0267(2) 0.5 0
Li1 Li1+ 3 a 0 0 0 0.0274(6) 1 0
loop_
_atom_site_aniso_label
_atom_site_aniso_type_symbol
_atom_site_aniso_U_11
_atom_site_aniso_U_22
_atom_site_aniso_U_33
_atom_site_aniso_U_12
_atom_site_aniso_U_13
_atom_site_aniso_U_23
C1 C4+ 0.0140(3) 0.0140(3) 0.0236(6) 0.00698(15) 0 0
N1 N3- 0.0272(3) 0.0272(3) 0.0257(4) 0.01359(15) 0 0
O1 O2- 0.0272(3) 0.0272(3) 0.0257(4) 0.01359(15) 0 0
Li1 Li1+ 0.0297(7) 0.0297(7) 0.0229(11) 0.0149(4) 0 0
#End of TTdata_422680-ICSD