
#(C) 2018 by FIZ Karlsruhe - Leibniz Institute for Information Infrastructure.  All rights reserved.
data_423631-ICSD
_database_code_ICSD 423631
_audit_creation_date 2013-08-01
_chemical_name_systematic 'LIthium tetrahydridoborate hydrazine'
_chemical_formula_structural 'Li (B H4) (N H2 N H2)'
_chemical_formula_sum 'H8 B1 Li1 N2'
_exptl_crystal_density_diffrn 0.87
_cell_measurement_temperature 298.
_publ_section_title

;
Borohydride hydrazinates: high hydrogen content materials for hydrogen storage
;
loop_
_citation_id
_citation_journal_full
_citation_year
_citation_journal_volume
_citation_page_first
_citation_page_last
_citation_journal_id_ASTM
primary 'Energy & Environmental Science' 2012 5 5686 5689 EESNBY
loop_
_publ_author_name
'Teng He'
'Hui Wu'
'Guota Wu'
'Wei Zhou'
'Zhiato Xiong'
'Juner Chen'
'Tao Zhang'
'Junhu Wang'
'Ping Chen'
_cell_length_a 12.1653(16)
_cell_length_b 6.7288(8)
_cell_length_c 10.3724(11)
_cell_angle_alpha 90.
_cell_angle_beta 104.751(5)
_cell_angle_gamma 90.
_cell_volume 821.08
_cell_formula_units_Z 8
_symmetry_space_group_name_H-M 'C 1 c 1'
_symmetry_Int_Tables_number 9
_refine_ls_R_factor_all 0.0371
loop_
_symmetry_equiv_pos_site_id
_symmetry_equiv_pos_as_xyz
1 'x, -y, z+1/2'
2 'x, y, z'
3 'x+1/2, -y+1/2, z+1/2'
4 'x+1/2, y+1/2, z'
loop_
_atom_type_symbol
_atom_type_oxidation_number
B3+ 3
H1- -1
B3+ 3
H1- -1
N0+ 0
H0+ 0
Li1+ 1
N0+ 0
H0+ 0
Li1+ 1
loop_
_atom_site_label
_atom_site_type_symbol
_atom_site_symmetry_multiplicity
_atom_site_Wyckoff_symbol
_atom_site_fract_x
_atom_site_fract_y
_atom_site_fract_z
_atom_site_B_iso_or_equiv
_atom_site_occupancy
_atom_site_attached_hydrogens
B1 B3+ 4 a 0.136(1) 0.209(1) 0.689(1) 0.01086 1. 0
H1 H1- 4 a 0.209(1) 0.111(1) 0.766(1) 0.01086 1. 0
H2 H1- 4 a 0.162(1) 0.386(1) 0.702(1) 0.01086 1. 0
H3 H1- 4 a 0.044(1) 0.184(1) 0.714(1) 0.01086 1. 0
H4 H1- 4 a 0.130(1) 0.157(1) 0.574(1) 0.01086 1. 0
B2 B3+ 4 a 0.385(1) 0.297(1) 0.482(1) 0.01086 1. 0
H5 H1- 4 a 0.330(1) 0.431(1) 0.415(1) 0.01086 1. 0
H6 H1- 4 a 0.327(1) 0.218(1) 0.549(1) 0.01086 1. 0
H7 H1- 4 a 0.471(1) 0.366(1) 0.555(1) 0.01086 1. 0
H8 H1- 4 a 0.410(1) 0.174(1) 0.407(1) 0.01086 1. 0
N1 N0+ 4 a 0.195(1) 0.287(1) 0.0283(8) 0.04895 1. 0
N2 N0+ 4 a 0.307(1) 0.211(1) 0.0917(8) 0.04895 1. 0
H9 H0+ 4 a 0.139(1) 0.231(1) 0.078(1) 0.04895 1. 0
H10 H0+ 4 a 0.171(1) 0.231(1) -0.0671(8) 0.04895 1. 0
H11 H0+ 4 a 0.305(1) 0.058(1) 0.090(1) 0.04895 1. 0
H12 H0+ 4 a 0.331(1) 0.267(1) 0.1872(8) 0.04895 1. 0
Li1 Li1+ 4 a 0.191(1) 0.605(1) 0.026(1) 0.01514 1. 0
N3 N0+ 4 a 0.452(1) 0.803(1) 0.3620(7) 0.04895 1. 0
N4 N0+ 4 a 0.563(1) 0.831(1) 0.3368(7) 0.04895 1. 0
H13 H0+ 4 a 0.399(1) 0.745(1) 0.2771(7) 0.04895 1. 0
H14 H0+ 4 a 0.421(2) 0.941(1) 0.377(1) 0.04895 1. 0
H15 H0+ 4 a 0.555(2) 0.923(1) 0.2555(8) 0.04895 1. 0
H16 H0+ 4 a 0.595(2) 0.693(1) 0.321(1) 0.04895 1. 0
Li2 Li1+ 4 a 0.460(1) 0.614(2) 0.529(1) 0.01514 1. 0
#End of TTdata_423631-ICSD