
#(C) 2018 by FIZ Karlsruhe - Leibniz Institute for Information Infrastructure.  All rights reserved.
data_423661-ICSD
_database_code_ICSD 423661
_audit_creation_date 2012-08-01
_chemical_name_systematic 'Dilithium trifluorotetraoxotriborate'
_chemical_formula_structural 'Li2 B3 O4 F3'
_chemical_formula_sum 'B3 F3 Li2 O4'
_exptl_crystal_density_diffrn 2.11
_cell_measurement_temperature 298.
_publ_section_title 'Li2 B3 O4 F3, a new lithium-rich fluorooxoborate'
loop_
_citation_id
_citation_journal_full
_citation_year
_citation_journal_volume
_citation_page_first
_citation_page_last
_citation_journal_id_ASTM
primary 'Journal of Solid State Chemistry' 2012 186 104 108 JSSCBI
loop_
_publ_author_name
'Pilz, T.'
'Nuss, H.'
'Jansen, M.'
_cell_length_a 4.8915(9)
_cell_length_b 8.7335(16)
_cell_length_c 12.301(2)
_cell_angle_alpha 90.
_cell_angle_beta 90.
_cell_angle_gamma 90.
_cell_volume 525.5
_cell_formula_units_Z 4
_symmetry_space_group_name_H-M 'P 21 21 21'
_symmetry_Int_Tables_number 19
_refine_ls_R_factor_all 0.0347
loop_
_symmetry_equiv_pos_site_id
_symmetry_equiv_pos_as_xyz
1 '-x, y+1/2, -z+1/2'
2 'x+1/2, -y+1/2, -z'
3 '-x+1/2, -y, z+1/2'
4 'x, y, z'
loop_
_atom_type_symbol
_atom_type_oxidation_number
Li1+ 1
B3+ 3
O2- -2
F1- -1
loop_
_atom_site_label
_atom_site_type_symbol
_atom_site_symmetry_multiplicity
_atom_site_Wyckoff_symbol
_atom_site_fract_x
_atom_site_fract_y
_atom_site_fract_z
_atom_site_B_iso_or_equiv
_atom_site_occupancy
_atom_site_attached_hydrogens
Li1 Li1+ 4 a 0.4142(9) 0.6452(4) 0.3966(3) 0.0230(9) 1 0
Li2 Li1+ 4 a 1.6593(9) 0.2063(5) 0.5718(3) 0.0268(9) 1 0
B1 B3+ 4 a 1.0814(5) 0.3182(3) 0.6600(2) 0.0158(5) 1 0
B2 B3+ 4 a 0.9080(6) 0.5316(3) 0.53845(19) 0.0176(6) 1 0
B3 B3+ 4 a 1.0214(5) 0.5792(3) 0.7303(2) 0.0165(5) 1 0
O1 O2- 4 a 0.9647(3) 0.37340(15) 0.55954(11) 0.0200(4) 1 0
O2 O2- 4 a 0.9582(4) 0.63392(15) 0.62888(11) 0.0216(4) 1 0
O3 O2- 4 a 1.0596(3) 0.42657(16) 0.74827(11) 0.0183(4) 1 0
O4 O2- 4 a 1.0526(3) 0.67419(15) 0.81756(12) 0.0196(4) 1 0
F1 F1- 4 a 1.0710(3) 0.57975(15) 0.44770(10) 0.0292(4) 1 0
F2 F1- 4 a 0.6352(3) 0.55046(15) 0.50326(11) 0.0274(4) 1 0
F3 F1- 4 a 1.3673(3) 0.28792(16) 0.64481(11) 0.0310(4) 1 0
loop_
_atom_site_aniso_label
_atom_site_aniso_type_symbol
_atom_site_aniso_U_11
_atom_site_aniso_U_22
_atom_site_aniso_U_33
_atom_site_aniso_U_12
_atom_site_aniso_U_13
_atom_site_aniso_U_23
Li1 Li1+ 0.031(3) 0.0191(19) 0.019(2) 0.0006(18) 0.0011(17) 0.0005(16)
Li2 Li1+ 0.026(2) 0.031(2) 0.023(2) 0.0006(19) -0.0029(17) -0.0046(18)
B1 B3+ 0.0183(14) 0.0140(12) 0.0153(12) -0.0010(10) -0.0009(10) -0.0006(10)
B2 B3+ 0.0190(15) 0.0164(13) 0.0174(13) -0.0010(10) -0.0016(11) 0.0005(10)
B3 B3+ 0.0156(12) 0.0150(13) 0.0190(12) 0.0003(11) 0.0020(11) 0.0008(10)
O1 O2- 0.0316(9) 0.0140(7) 0.0144(8) 0.0020(7) -0.0044(7) -0.0009(6)
O2 O2- 0.0334(10) 0.0113(7) 0.0200(8) 0.0029(7) -0.0058(7) 0.0003(6)
O3 O2- 0.0285(9) 0.0118(8) 0.0147(8) 0.0019(7) -0.0020(7) -0.0009(6)
O4 O2- 0.0284(9) 0.0119(8) 0.0184(8) 0.0033(7) -0.0048(7) -0.0006(6)
F1 F1- 0.0325(8) 0.0331(8) 0.0219(7) -0.0058(7) 0.0057(6) 0.0066(6)
F2 F1- 0.0231(7) 0.0303(8) 0.0288(8) 0.0039(6) -0.0058(6) 0.0010(6)
F3 F1- 0.0213(8) 0.0361(8) 0.0357(8) 0.0050(7) 0.0021(7) -0.0075(7)
#End of TTdata_423661-ICSD