
#(C) 2018 by FIZ Karlsruhe - Leibniz Institute for Information Infrastructure.  All rights reserved.
data_423632-ICSD
_database_code_ICSD 423632
_audit_creation_date 2013-08-01
_chemical_name_systematic 'Lithium tetrahydridoborate bis(hydrazine)'
_chemical_formula_structural 'Li (B H4) (N H2 N H2)2'
_chemical_formula_sum 'H12 B1 Li1 N4'
_exptl_crystal_density_diffrn 0.95
_cell_measurement_temperature 298.
_publ_section_title

;
Borohydride hydrazinates: high hydrogen content materials for hydrogen storage
;
loop_
_citation_id
_citation_journal_full
_citation_year
_citation_journal_volume
_citation_page_first
_citation_page_last
_citation_journal_id_ASTM
primary 'Energy & Environmental Science' 2012 5 5686 5689 EESNBY
loop_
_publ_author_name
'Teng He'
'Hui Wu'
'Guota Wu'
'Wei Zhou'
'Zhiato Xiong'
'Juner Chen'
'Tao Zhang'
'Junhu Wang'
'Ping Chen'
_cell_length_a 12.0187(6)
_cell_length_b 6.49642(32)
_cell_length_c 7.6645(5)
_cell_angle_alpha 90.
_cell_angle_beta 90.
_cell_angle_gamma 90.
_cell_volume 598.43
_cell_formula_units_Z 4
_symmetry_space_group_name_H-M 'P c a 21'
_symmetry_Int_Tables_number 29
_refine_ls_R_factor_all 0.0162
loop_
_symmetry_equiv_pos_site_id
_symmetry_equiv_pos_as_xyz
1 'x+1/2, -y, z'
2 '-x+1/2, y, z+1/2'
3 '-x, -y, z+1/2'
4 'x, y, z'
loop_
_atom_type_symbol
_atom_type_oxidation_number
B3+ 3
H1- -1
N0+ 0
H0+ 0
N0+ 0
H0+ 0
Li1+ 1
loop_
_atom_site_label
_atom_site_type_symbol
_atom_site_symmetry_multiplicity
_atom_site_Wyckoff_symbol
_atom_site_fract_x
_atom_site_fract_y
_atom_site_fract_z
_atom_site_B_iso_or_equiv
_atom_site_occupancy
_atom_site_attached_hydrogens
B1 B3+ 4 a 0.501(2) 0.7956(6) 0.524(2) 0.02635 1. 0
H1 H1- 4 a 0.58769 0.89484 0.52272 0.02635 1. 0
H2 H1- 4 a 0.49571 0.68759 0.39237 0.02635 1. 0
H3 H1- 4 a 0.49793 0.68546 0.65443 0.02635 1. 0
H4 H1- 4 a 0.42091 0.91438 0.52632 0.02635 1. 0
N1 N0+ 4 a 0.3625(3) 0.3133(3) 0.4467(3) 0.02949 1. 0
N2 N0+ 4 a 0.3106(3) 0.2609(3) 0.6119(3) 0.02949 1. 0
H5 H0+ 4 a 0.34531 0.12543 0.6555 0.02949 1. 0
H6 H0+ 4 a 0.2276 0.23201 0.58882 0.02949 1. 0
H7 H0+ 4 a 0.43119 0.40298 0.47267 0.02949 1. 0
H8 H0+ 4 a 0.39093 0.17929 0.39055 0.02949 1. 0
N3 N0+ 4 a 0.1458(3) 0.6410(3) 0.4292(3) 0.02949 1. 0
N4 N0+ 4 a 0.1930(3) 0.7043(3) 0.5951(3) 0.02949 1. 0
H9 H0+ 4 a 0.16093 0.84676 0.62592 0.02949 1. 0
H10 H0+ 4 a 0.27746 0.72291 0.57834 0.02949 1. 0
H11 H0+ 4 a 0.07364 0.56093 0.45424 0.02949 1. 0
H12 H0+ 4 a 0.12367 0.77168 0.36146 0.02949 1. 0
Li1 Li1+ 4 a 0.273(2) 0.483(2) 0.261(4) 0.03521 1. 0
#End of TTdata_423632-ICSD