
#(C) 2018 by FIZ Karlsruhe - Leibniz Institute for Information Infrastructure.  All rights reserved.
data_424079-ICSD
_database_code_ICSD 424079
_audit_creation_date 2014-08-01
_chemical_name_systematic 'Dilithium selenium(IV) octaborate'
_chemical_formula_structural 'Li2 Se B8 O15'
_chemical_formula_sum 'B8 Li2 O15 Se1'
_exptl_crystal_density_diffrn 2.36
_cell_measurement_temperature 293.
_publ_section_title

;
A series of boroselenite-based open frameworks mediated by the cationic sizes
of the alkali metals
;
loop_
_citation_id
_citation_journal_full
_citation_year
_citation_journal_volume
_citation_page_first
_citation_page_last
_citation_journal_id_ASTM
primary CrystEngComm 2012 14 8727 8733 CRECF4
loop_
_publ_author_name
'Jian-Han Zhang'
'Fang Kong'
'Bing-Ping Yang'
'Jiang-Gao Mao'
_cell_length_a 8.641(4)
_cell_length_b 16.282(7)
_cell_length_c 8.415(4)
_cell_angle_alpha 90.
_cell_angle_beta 94.426(6)
_cell_angle_gamma 90.
_cell_volume 1180.39
_cell_formula_units_Z 4
_symmetry_space_group_name_H-M 'P 1 21/c 1'
_symmetry_Int_Tables_number 14
_refine_ls_R_factor_all 0.0362
loop_
_symmetry_equiv_pos_site_id
_symmetry_equiv_pos_as_xyz
1 'x, -y+1/2, z+1/2'
2 '-x, -y, -z'
3 '-x, y+1/2, -z+1/2'
4 'x, y, z'
loop_
_atom_type_symbol
_atom_type_oxidation_number
Li1+ 1
B3+ 3
Se4+ 4
O2- -2
loop_
_atom_site_label
_atom_site_type_symbol
_atom_site_symmetry_multiplicity
_atom_site_Wyckoff_symbol
_atom_site_fract_x
_atom_site_fract_y
_atom_site_fract_z
_atom_site_B_iso_or_equiv
_atom_site_occupancy
_atom_site_attached_hydrogens
Li1 Li1+ 4 e 0.1379(6) 0.1417(3) -0.0038(6) 0.0202(11) 1 0
Li2 Li1+ 4 e 0.6194(7) 0.0001(4) -0.3708(8) 0.0317(13) 1 0
B1 B3+ 4 e 0.4714(4) 0.1839(2) 0.0621(4) 0.0167(7) 1 0
B2 B3+ 4 e 0.4099(4) 0.0704(2) -0.1316(4) 0.0175(7) 1 0
B3 B3+ 4 e 0.6748(4) 0.11021(19) -0.0682(4) 0.0161(7) 1 0
B4 B3+ 4 e 0.1612(4) -0.00216(19) -0.2236(4) 0.0146(6) 1 0
B5 B3+ 4 e 0.9074(4) 0.04203(19) -0.1668(4) 0.0150(6) 1 0
B6 B3+ 4 e 0.9382(4) -0.08397(18) -0.3236(4) 0.0137(6) 1 0
B7 B3+ 4 e 0.8927(4) -0.17899(19) -0.5415(4) 0.0170(7) 1 0
B8 B3+ 4 e 0.9045(4) -0.2322(2) -0.2783(4) 0.0182(7) 1 0
Se1 Se4+ 4 e 0.55518(3) 0.173341(17) 0.39905(4) 0.01613(13) 1 0
O1 O2- 4 e 0.4316(3) 0.17288(15) 0.2287(3) 0.0261(5) 1 0
O2 O2- 4 e 0.4384(2) 0.22912(13) 0.5180(3) 0.0232(5) 1 0
O3 O2- 4 e 0.5236(3) 0.08179(13) 0.4698(3) 0.0239(5) 1 0
O4 O2- 4 e 0.6319(2) 0.16531(12) 0.0388(3) 0.0175(4) 1 0
O5 O2- 4 e 0.3623(2) 0.12902(12) -0.0333(3) 0.0185(4) 1 0
O6 O2- 4 e 0.3182(2) 0.01302(13) -0.2088(3) 0.0218(5) 1 0
O7 O2- 4 e 0.0669(2) 0.04632(12) -0.1328(2) 0.0154(4) 1 0
O8 O2- 4 e 0.1022(2) -0.06322(12) -0.3120(3) 0.0177(4) 1 0
O9 O2- 4 e 0.5672(2) 0.06236(13) -0.1568(3) 0.0203(5) 1 0
O10 O2- 4 e 0.8288(2) 0.10054(12) -0.0880(3) 0.0198(5) 1 0
O11 O2- 4 e 0.8418(2) -0.01510(12) -0.2659(2) 0.0165(4) 1 0
O12 O2- 4 e 0.8850(2) -0.10198(12) -0.4876(2) 0.0185(4) 1 0
O13 O2- 4 e 0.9128(3) -0.24529(12) -0.4399(2) 0.0201(5) 1 0
O14 O2- 4 e 0.8864(3) -0.30466(13) -0.2002(3) 0.0255(5) 1 0
O15 O2- 4 e 0.9141(2) -0.15616(12) -0.2173(2) 0.0164(4) 1 0
loop_
_atom_site_aniso_label
_atom_site_aniso_type_symbol
_atom_site_aniso_U_11
_atom_site_aniso_U_22
_atom_site_aniso_U_33
_atom_site_aniso_U_12
_atom_site_aniso_U_13
_atom_site_aniso_U_23
Li1 Li1+ 0.023(3) 0.017(2) 0.022(3) -0.001(2) 0.006(2) -0.004(2)
Li2 Li1+ 0.028(3) 0.029(3) 0.036(3) 0.003(2) -0.007(3) 0.002(3)
B1 B3+ 0.0149(15) 0.0173(15) 0.0183(17) 0.0016(12) 0.0032(13) 0.0005(13)
B2 B3+ 0.0133(15) 0.0176(15) 0.0214(18) 0.0003(12) -0.0003(13) -0.0018(13)
B3 B3+ 0.0176(15) 0.0118(14) 0.0191(18) -0.0001(11) 0.0016(13) 0.0009(12)
B4 B3+ 0.0135(14) 0.0140(14) 0.0166(17) 0.0009(11) 0.0024(12) 0.0019(12)
B5 B3+ 0.0136(14) 0.0148(14) 0.0167(16) 0.0002(11) 0.0027(12) -0.0002(12)
B6 B3+ 0.0160(15) 0.0115(13) 0.0137(16) -0.0014(11) 0.0019(12) -0.0024(12)
B7 B3+ 0.0189(16) 0.0164(15) 0.0158(17) -0.0004(12) 0.0015(14) 0.0008(12)
B8 B3+ 0.0219(16) 0.0160(15) 0.0168(17) -0.0006(12) 0.0023(14) -0.0013(13)
Se1 Se4+ 0.01532(18) 0.01534(18) 0.0179(2) -0.00033(10) 0.00248(13) -0.00096(10)
O1 O2- 0.0201(11) 0.0430(14) 0.0151(12) -0.0019(9) 0.0010(9) 0.0058(10)
O2 O2- 0.0205(11) 0.0196(10) 0.0308(13) -0.0039(8) 0.0102(10) -0.0043(9)
O3 O2- 0.0297(12) 0.0162(10) 0.0253(12) 0.0033(9) -0.0011(10) 0.0030(9)
O4 O2- 0.0122(9) 0.0182(10) 0.0220(12) 0.0016(7) 0.0009(9) -0.0031(8)
O5 O2- 0.0109(9) 0.0185(10) 0.0258(12) 0.0011(8) 0.0006(8) -0.0054(9)
O6 O2- 0.0116(10) 0.0228(11) 0.0310(13) -0.0012(8) 0.0030(9) -0.0108(9)
O7 O2- 0.0096(9) 0.0178(10) 0.0190(10) 0.0000(7) 0.0018(8) -0.0035(8)
O8 O2- 0.0126(9) 0.0177(10) 0.0229(11) -0.0012(7) 0.0021(8) -0.0054(8)
O9 O2- 0.0119(10) 0.0252(11) 0.0239(12) 0.0001(8) 0.0023(8) -0.0082(9)
O10 O2- 0.0121(9) 0.0196(10) 0.0278(12) 0.0000(8) 0.0029(9) -0.0100(9)
O11 O2- 0.0135(9) 0.0160(9) 0.0198(11) -0.0003(8) 0.0009(8) -0.0046(8)
O12 O2- 0.0268(11) 0.0143(10) 0.0140(11) -0.0019(8) -0.0005(9) -0.0001(8)
O13 O2- 0.0321(12) 0.0142(10) 0.0143(11) 0.0005(8) 0.0036(9) -0.0009(8)
O14 O2- 0.0497(15) 0.0140(10) 0.0127(11) -0.0022(10) 0.0020(10) -0.0010(8)
O15 O2- 0.0213(11) 0.0160(10) 0.0121(11) -0.0020(8) 0.0012(9) -0.0001(8)
#End of TTdata_424079-ICSD