
#(C) 2018 by FIZ Karlsruhe - Leibniz Institute for Information Infrastructure.  All rights reserved.
data_424282-ICSD
_database_code_ICSD 424282
_audit_creation_date 2013-02-01
_audit_update_record 2015-02-01
_chemical_name_systematic 'Trilithium dipotassium borotetraphosphate'
_chemical_formula_structural 'Li3 K2 B P4 O14'
_chemical_formula_sum 'B1 K2 Li3 O14 P4'
_chemical_name_structure_type Li3K2BP4O14
_exptl_crystal_density_diffrn 2.65
_cell_measurement_temperature 296.
_publ_section_title

;
Further examples of the P-O-P connection in borophosphates: synthesis and
characterization of Li2 Cs2 B2 P4 O15, Li K2 B P2 O8, and Li3 M2 B P4 O14 (M =
K, Rb)
;
loop_
_citation_id
_citation_journal_full
_citation_year
_citation_journal_volume
_citation_page_first
_citation_page_last
_citation_journal_id_ASTM
primary 'Chemistry - A European Journal' 2012 18 12046 12051 CEUJED
loop_
_publ_author_name
'Wang Ying'
'Pan Shilie'
'Shi Yunjing'
_cell_length_a 24.044(9)
_cell_length_b 13.902(5)
_cell_length_c 6.874(3)
_cell_angle_alpha 90.
_cell_angle_beta 90.
_cell_angle_gamma 90.
_cell_volume 2297.7
_cell_formula_units_Z 8
_symmetry_space_group_name_H-M 'C m c a'
_symmetry_Int_Tables_number 64
_refine_ls_R_factor_all 0.0281
loop_
_symmetry_equiv_pos_site_id
_symmetry_equiv_pos_as_xyz
1 '-x, -y+1/2, z+1/2'
2 '-x, y+1/2, -z+1/2'
3 '-x, y, z'
4 '-x, -y, -z'
5 'x, y+1/2, -z+1/2'
6 'x, -y+1/2, z+1/2'
7 'x, -y, -z'
8 'x, y, z'
9 '-x+1/2, -y, z+1/2'
10 '-x+1/2, y, -z+1/2'
11 '-x+1/2, y+1/2, z'
12 '-x+1/2, -y+1/2, -z'
13 'x+1/2, y, -z+1/2'
14 'x+1/2, -y, z+1/2'
15 'x+1/2, -y+1/2, -z'
16 'x+1/2, y+1/2, z'
loop_
_atom_type_symbol
_atom_type_oxidation_number
Li1+ 1
K1+ 1
B3+ 3
P5+ 5
O2- -2
loop_
_atom_site_label
_atom_site_type_symbol
_atom_site_symmetry_multiplicity
_atom_site_Wyckoff_symbol
_atom_site_fract_x
_atom_site_fract_y
_atom_site_fract_z
_atom_site_B_iso_or_equiv
_atom_site_occupancy
_atom_site_attached_hydrogens
Li1 Li1+ 16 g 0.36550(16) 0.2358(3) 0.4743(6) 0.0184(8) 1 0
Li2 Li1+ 8 d 0.3823(2) 0. 0.5 0.0199(12) 1 0
K1 K1+ 8 e 0.25 0.15795(5) 0.25 0.01902(19) 1 0
K2 K1+ 8 f 0.5 0.39087(6) 0.19907(11) 0.0213(2) 1 0
B1 B3+ 8 d 0.38132(14) 0. 0. 0.0108(6) 1 0
P1 P5+ 16 g 0.43816(2) 0.13894(4) 0.19714(8) 0.00984(16) 1 0
P2 P5+ 16 g 0.30979(2) 0.40573(4) 0.25653(8) 0.00950(16) 1 0
O1 O2- 16 g 0.44065(6) 0.07592(12) 0.3699(2) 0.0167(4) 1 0
O2 O2- 16 g 0.41718(6) 0.08488(11) 0.0121(2) 0.0152(4) 1 0
O3 O2- 8 f 0.5 0.16901(15) 0.1295(3) 0.0135(5) 1 0
O4 O2- 16 g 0.40719(6) 0.23147(12) 0.2171(2) 0.0175(4) 1 0
O5 O2- 16 g 0.30639(6) 0.32493(11) 0.3980(2) 0.0144(3) 1 0
O6 O2- 8 e 0.25 0.45847(15) 0.25 0.0124(5) 1 0
O7 O2- 16 g 0.34679(6) 0.49197(11) 0.3254(2) 0.0149(4) 1 0
O8 O2- 16 g 0.32699(7) 0.38360(11) 0.0527(2) 0.0162(4) 1 0
loop_
_atom_site_aniso_label
_atom_site_aniso_type_symbol
_atom_site_aniso_U_11
_atom_site_aniso_U_22
_atom_site_aniso_U_33
_atom_site_aniso_U_12
_atom_site_aniso_U_13
_atom_site_aniso_U_23
Li1 Li1+ 0.0148(19) 0.020(2) 0.021(2) 0.0009(15) -0.0006(16) 0.0031(16)
Li2 Li1+ 0.016(3) 0.017(3) 0.026(3) 0. 0. 0.001(2)
K1 K1+ 0.0250(4) 0.0155(4) 0.0166(4) 0. -0.0018(3) 0.
K2 K1+ 0.0231(4) 0.0252(4) 0.0155(4) 0. 0. 0.0005(3)
B1 B3+ 0.0078(15) 0.0108(16) 0.0140(16) 0. 0. -0.0023(13)
P1 P5+ 0.0075(3) 0.0113(3) 0.0108(3) -0.0001(2) 0.00013(19) 0.0002(2)
P2 P5+ 0.0074(3) 0.0094(3) 0.0117(3) -0.00003(19) -0.0003(2) 0.0004(2)
O1 O2- 0.0134(8) 0.0229(9) 0.0137(8) -0.0037(6) -0.0012(6) 0.0069(7)
O2 O2- 0.0166(8) 0.0171(8) 0.0120(8) -0.0087(6) 0.0002(6) -0.0003(6)
O3 O2- 0.0070(10) 0.0166(11) 0.0170(11) 0. 0. 0.0063(9)
O4 O2- 0.0170(9) 0.0171(9) 0.0183(8) 0.0065(6) 0.0013(6) -0.0017(7)
O5 O2- 0.0130(8) 0.0137(8) 0.0163(8) -0.0005(6) -0.0005(6) 0.0038(6)
O6 O2- 0.0068(10) 0.0108(10) 0.0195(11) 0. -0.0011(8) 0.
O7 O2- 0.0132(8) 0.0127(8) 0.0187(8) -0.0035(6) -0.0069(6) 0.0040(6)
O8 O2- 0.0178(8) 0.0156(8) 0.0150(8) 0.0030(7) 0.0030(6) -0.0010(6)
#End of TTdata_424282-ICSD