
#(C) 2018 by FIZ Karlsruhe - Leibniz Institute for Information Infrastructure.  All rights reserved.
data_424281-ICSD
_database_code_ICSD 424281
_audit_creation_date 2013-02-01
_chemical_name_systematic 'Dilithium dicesium diborotetraphosphate'
_chemical_formula_structural 'Li2 Cs2 B2 P4 O15'
_chemical_formula_sum 'B2 Cs2 Li2 O15 P4'
_exptl_crystal_density_diffrn 3.22
_cell_measurement_temperature 293.
_publ_section_title

;
Further examples of the P-O-P connection in borophosphates: synthesis and
characterization of Li2 Cs2 B2 P4 O15, Li K2 B P2 O8, and Li3 M2 B P4 O14 (M =
K, Rb)
;
loop_
_citation_id
_citation_journal_full
_citation_year
_citation_journal_volume
_citation_page_first
_citation_page_last
_citation_journal_id_ASTM
primary 'Chemistry - A European Journal' 2012 18 12046 12051 CEUJED
loop_
_publ_author_name
'Wang Ying'
'Pan Shilie'
'Shi Yunjing'
_cell_length_a 7.092(4)
_cell_length_b 7.788(4)
_cell_length_c 13.974(7)
_cell_angle_alpha 86.287(6)
_cell_angle_beta 75.948(6)
_cell_angle_gamma 66.363(6)
_cell_volume 685.45
_cell_formula_units_Z 2
_symmetry_space_group_name_H-M 'P -1'
_symmetry_Int_Tables_number 2
_refine_ls_R_factor_all 0.033
loop_
_symmetry_equiv_pos_site_id
_symmetry_equiv_pos_as_xyz
1 '-x, -y, -z'
2 'x, y, z'
loop_
_atom_type_symbol
_atom_type_oxidation_number
Cs1+ 1
Li1+ 1
B3+ 3
P5+ 5
O2- -2
loop_
_atom_site_label
_atom_site_type_symbol
_atom_site_symmetry_multiplicity
_atom_site_Wyckoff_symbol
_atom_site_fract_x
_atom_site_fract_y
_atom_site_fract_z
_atom_site_B_iso_or_equiv
_atom_site_occupancy
_atom_site_attached_hydrogens
Cs1 Cs1+ 2 i 0.71776(6) 0.18712(6) 0.13625(3) 0.02531(15) 1 0
Cs2 Cs1+ 2 i 0.09797(8) 0.24045(7) 0.35063(4) 0.03587(16) 1 0
Li1 Li1+ 2 i 0.2214(15) 0.2268(17) 0.0091(8) 0.022(2) 1 0
Li2 Li1+ 2 i 0.7181(16) 0.7423(15) 0.2211(8) 0.019(2) 1 0
B1 B3+ 2 i 0.1372(10) 0.7151(10) 0.2853(5) 0.0159(13) 1 0
B2 B3+ 2 i -0.5416(9) 0.7573(8) 0.5083(4) 0.0108(11) 1 0
P1 P5+ 2 i -0.2619(2) 0.88750(19) 0.40387(10) 0.0111(3) 1 0
P2 P5+ 2 i 0.4885(2) 0.5253(2) 0.35632(10) 0.0124(3) 1 0
P3 P5+ 2 i 0.3425(2) 0.8437(2) 0.12801(10) 0.0131(3) 1 0
P4 P5+ 2 i 0.1662(2) 0.5793(2) 0.10820(10) 0.0129(3) 1 0
O1 O2- 2 i -0.3206(6) 0.7349(5) 0.4672(3) 0.0135(8) 1 0
O2 O2- 2 i -0.3640(6) 0.9449(6) 0.3204(3) 0.0180(8) 1 0
O3 O2- 2 i -0.3105(6) 1.0464(5) 0.4792(3) 0.0124(8) 1 0
O4 O2- 2 i -0.0174(6) 0.8010(6) 0.3754(3) 0.0188(9) 1 0
O5 O2- 2 i 0.3857(6) 0.6674(6) 0.4453(3) 0.0160(8) 1 0
O6 O2- 2 i 0.5584(7) 0.3235(6) 0.3940(3) 0.0186(9) 1 0
O7 O2- 2 i 0.6702(6) 0.5411(6) 0.2839(3) 0.0177(9) 1 0
O8 O2- 2 i 0.5621(6) 0.8287(6) 0.1188(3) 0.0202(9) 1 0
O9 O2- 2 i 0.2253(6) 0.8510(6) 0.2401(3) 0.0189(9) 1 0
O10 O2- 2 i 0.2100(7) 0.9972(6) 0.0744(3) 0.0211(9) 1 0
O11 O2- 2 i 0.3618(6) 0.6432(5) 0.0893(3) 0.0141(8) 1 0
O12 O2- 2 i 0.3038(6) 0.5440(6) 0.3096(3) 0.0181(9) 1 0
O13 O2- 2 i 0.0262(7) 0.6767(6) 0.0413(3) 0.0229(9) 1 0
O14 O2- 2 i 0.0409(6) 0.6602(6) 0.2171(3) 0.0154(8) 1 0
O15 O2- 2 i 0.2577(7) 0.3706(6) 0.1048(3) 0.0207(9) 1 0
loop_
_atom_site_aniso_label
_atom_site_aniso_type_symbol
_atom_site_aniso_U_11
_atom_site_aniso_U_22
_atom_site_aniso_U_33
_atom_site_aniso_U_12
_atom_site_aniso_U_13
_atom_site_aniso_U_23
Cs1 Cs1+ 0.0241(2) 0.0300(3) 0.0213(2) -0.01081(17) -0.00462(16) 0.00211(16)
Cs2 Cs1+ 0.0393(3) 0.0315(3) 0.0447(3) -0.0167(2) -0.0197(2) 0.0027(2)
Li1 Li1+ 0.008(4) 0.039(6) 0.019(5) -0.009(4) -0.003(4) -0.003(4)
Li2 Li1+ 0.020(5) 0.020(5) 0.025(5) -0.012(4) -0.010(4) 0.000(4)
B1 B3+ 0.011(3) 0.024(4) 0.013(3) -0.009(3) 0.001(2) -0.005(2)
B2 B3+ 0.013(3) 0.004(3) 0.016(3) -0.004(2) -0.003(2) -0.003(2)
P1 P5+ 0.0116(7) 0.0097(7) 0.0119(6) -0.0046(5) -0.0012(5) -0.0017(5)
P2 P5+ 0.0136(7) 0.0129(7) 0.0113(6) -0.0066(5) -0.0017(5) 0.0003(5)
P3 P5+ 0.0126(7) 0.0154(7) 0.0130(7) -0.0074(5) -0.0033(5) 0.0015(5)
P4 P5+ 0.0117(7) 0.0149(7) 0.0129(7) -0.0059(5) -0.0031(5) -0.0014(5)
O1 O2- 0.0136(19) 0.0083(18) 0.019(2) -0.0055(15) -0.0022(15) 0.0014(15)
O2 O2- 0.020(2) 0.021(2) 0.014(2) -0.0085(17) -0.0068(16) -0.0001(16)
O3 O2- 0.0154(19) 0.0037(18) 0.0181(19) -0.0026(14) -0.0058(15) -0.0018(14)
O4 O2- 0.0137(19) 0.024(2) 0.015(2) -0.0057(16) 0.0016(15) -0.0073(16)
O5 O2- 0.0143(19) 0.022(2) 0.0143(19) -0.0105(16) -0.0006(15) -0.0053(16)
O6 O2- 0.026(2) 0.017(2) 0.0122(19) -0.0082(17) -0.0035(16) 0.0009(16)
O7 O2- 0.018(2) 0.014(2) 0.019(2) -0.0074(16) -0.0007(16) 0.0015(16)
O8 O2- 0.016(2) 0.034(3) 0.015(2) -0.0160(18) -0.0027(16) 0.0030(17)
O9 O2- 0.020(2) 0.024(2) 0.015(2) -0.0136(18) 0.0013(16) -0.0043(16)
O10 O2- 0.025(2) 0.012(2) 0.029(2) -0.0077(17) -0.0102(18) 0.0054(17)
O11 O2- 0.0131(19) 0.015(2) 0.0153(19) -0.0072(15) -0.0015(15) -0.0017(15)
O12 O2- 0.017(2) 0.021(2) 0.020(2) -0.0103(17) -0.0065(16) -0.0034(16)
O13 O2- 0.026(2) 0.021(2) 0.027(2) -0.0100(18) -0.0143(19) 0.0045(18)
O14 O2- 0.0143(19) 0.018(2) 0.0149(19) -0.0082(16) -0.0011(15) -0.0034(15)
O15 O2- 0.020(2) 0.023(2) 0.022(2) -0.0097(17) -0.0069(17) -0.0026(17)
#End of TTdata_424281-ICSD