
#(C) 2018 by FIZ Karlsruhe - Leibniz Institute for Information Infrastructure.  All rights reserved.
data_424308-ICSD
_database_code_ICSD 424308
_audit_creation_date 2012-08-01
_chemical_name_systematic 'Dilithium tetrastrontium dodecaborate'
_chemical_formula_structural 'Li2 Sr4 B12 O23'
_chemical_formula_sum 'B12 Li2 O23 Sr4'
_exptl_crystal_density_diffrn 3.48
_cell_measurement_temperature 296.
_publ_section_title

;
Li2 Sr4 B12 O23: a new alkali and alkaline-earth metal mixed borate with [B10
O18]6- network and isolated [B2 O5]4- unit
;
loop_
_citation_id
_citation_journal_full
_citation_year
_citation_journal_volume
_citation_page_first
_citation_page_last
_citation_journal_id_ASTM
primary 'Journal of Solid State Chemistry' 2012 190 92 97 JSSCBI
loop_
_publ_author_name
'Zhang Min'
'Pan Shilie'
'Han Jian'
'Yang Zhihua'
'Su Xin'
'Zhao Wenwu'
_cell_length_a 6.4664(4)
_cell_length_b 8.4878(4)
_cell_length_c 15.3337(8)
_cell_angle_alpha 90.
_cell_angle_beta 102.024(3)
_cell_angle_gamma 90.
_cell_volume 823.13
_cell_formula_units_Z 2
_symmetry_space_group_name_H-M 'P 1 21/c 1'
_symmetry_Int_Tables_number 14
_refine_ls_R_factor_all 0.0237
loop_
_symmetry_equiv_pos_site_id
_symmetry_equiv_pos_as_xyz
1 'x, -y+1/2, z+1/2'
2 '-x, -y, -z'
3 '-x, y+1/2, -z+1/2'
4 'x, y, z'
loop_
_atom_type_symbol
_atom_type_oxidation_number
Li1+ 1
Sr2+ 2
B3+ 3
O2- -2
loop_
_atom_site_label
_atom_site_type_symbol
_atom_site_symmetry_multiplicity
_atom_site_Wyckoff_symbol
_atom_site_fract_x
_atom_site_fract_y
_atom_site_fract_z
_atom_site_B_iso_or_equiv
_atom_site_occupancy
_atom_site_attached_hydrogens
Li1 Li1+ 4 e 0.6591(10) 0.3052(7) 0.5243(3) 0.0200(13) 1 0
Sr1 Sr2+ 4 e 1.03080(4) 0.32574(3) 0.725982(18) 0.01138(11) 1 0
Sr2 Sr2+ 4 e 0.60025(5) 0.48279(3) 0.885128(18) 0.01005(11) 1 0
B1 B3+ 4 e 0.9342(6) 0.1549(4) 0.9228(2) 0.0123(7) 1 0
B2 B3+ 4 e 1.2477(6) 0.3276(4) 0.5384(2) 0.0108(7) 1 0
B3 B3+ 4 e 1.5240(6) 0.3786(4) 0.6832(2) 0.0104(7) 1 0
B4 B3+ 4 e 1.2837(6) 0.1034(4) 0.8817(2) 0.0102(7) 1 0
B5 B3+ 4 e 0.5760(6) 0.1621(4) 0.8076(2) 0.0100(7) 1 0
B6 B3+ 4 e 0.0971(6) 0.5386(4) 0.9270(3) 0.0152(8) 1 0
O1 O2- 4 e 0.6711(3) 0.4377(2) 0.62997(14) 0.0116(5) 1 0
O2 O2- 4 e 1.0229(4) 0.0277(3) 0.65581(16) 0.0241(6) 1 0
O3 O2- 4 e 0.7240(3) 0.1760(2) 0.90176(14) 0.0117(5) 1 0
O4 O2- 4 e 1.0283(3) 0.3358(3) 0.51380(14) 0.0151(5) 1 0
O5 O2- 4 e 1.3698(3) 0.2082(2) 0.82412(14) 0.0117(5) 1 0
O6 O2- 4 e 0.2999(3) 0.5843(3) 0.94881(15) 0.0175(5) 1 0
O7 O2- 4 e 0.3648(3) 0.3498(3) 0.47627(14) 0.0135(5) 1 0
O8 O2- 4 e 0.6460(3) 0.2731(3) 0.74875(14) 0.0119(5) 1 0
O9 O2- 4 e 1.4201(4) 0.5026(2) 0.72428(14) 0.0118(5) 1 0
O10 O2- 2 c 0. 0.5 1. 0.0412(11) 1 0
O11 O2- 4 e 1.3376(3) 0.2885(3) 0.62370(14) 0.0123(5) 1 0
O12 O2- 4 e 1.0494(3) 0.1233(3) 0.86022(14) 0.0117(5) 1 0
loop_
_atom_site_aniso_label
_atom_site_aniso_type_symbol
_atom_site_aniso_U_11
_atom_site_aniso_U_22
_atom_site_aniso_U_33
_atom_site_aniso_U_12
_atom_site_aniso_U_13
_atom_site_aniso_U_23
Li1 Li1+ 0.024(3) 0.030(3) 0.007(3) 0.000(3) 0.005(2) -0.005(2)
Sr1 Sr2+ 0.00867(17) 0.01532(18) 0.00999(17) 0.00169(12) 0.00155(12) 0.00299(11)
Sr2 Sr2+ 0.01297(18) 0.00851(16) 0.00835(16) 0.00036(11) 0.00147(12)
-0.00060(10)
B1 B3+ 0.016(2) 0.0069(17) 0.0136(18) -0.0020(15) 0.0032(15) -0.0010(13)
B2 B3+ 0.0126(18) 0.0053(16) 0.0143(17) 0.0012(14) 0.0023(14) -0.0016(13)
B3 B3+ 0.0096(18) 0.0107(17) 0.0109(16) 0.0005(14) 0.0019(14) -0.0009(13)
B4 B3+ 0.0133(19) 0.0109(17) 0.0069(16) 0.0007(14) 0.0032(14) 0.0010(13)
B5 B3+ 0.0106(18) 0.0098(17) 0.0095(16) 0.0024(14) 0.0015(14) 0.0005(13)
B6 B3+ 0.018(2) 0.0102(18) 0.019(2) 0.0024(15) 0.0071(16) -0.0015(14)
O1 O2- 0.0114(11) 0.0112(11) 0.0129(11) 0.0002(9) 0.0042(9) -0.0002(9)
O2 O2- 0.0218(14) 0.0271(14) 0.0206(13) -0.0027(11) -0.0020(11) 0.0066(10)
O3 O2- 0.0104(11) 0.0138(12) 0.0109(11) 0.0010(9) 0.0022(9) 0.0000(8)
O4 O2- 0.0120(12) 0.0224(13) 0.0113(11) -0.0017(10) 0.0036(9) 0.0001(9)
O5 O2- 0.0099(11) 0.0120(11) 0.0133(11) -0.0003(9) 0.0023(9) 0.0008(9)
O6 O2- 0.0162(13) 0.0154(12) 0.0202(12) 0.0009(10) 0.0024(10) -0.0018(10)
O7 O2- 0.0127(12) 0.0178(12) 0.0102(11) 0.0006(10) 0.0029(9) 0.0021(9)
O8 O2- 0.0121(12) 0.0109(11) 0.0127(11) -0.0012(9) 0.0026(9) 0.0017(9)
O9 O2- 0.0139(12) 0.0097(11) 0.0127(11) 0.0013(9) 0.0049(9) 0.0011(8)
O10 O2- 0.056(3) 0.039(2) 0.039(2) -0.009(2) 0.032(2) 0.0077(19)
O11 O2- 0.0138(12) 0.0121(11) 0.0110(11) -0.0016(9) 0.0023(9) 0.0016(9)
O12 O2- 0.0087(11) 0.0152(12) 0.0117(10) 0.0011(9) 0.0033(9) 0.0001(9)
#End of TTdata_424308-ICSD