
#(C) 2018 by FIZ Karlsruhe - Leibniz Institute for Information Infrastructure.  All rights reserved.
data_424473-ICSD
_database_code_ICSD 424473
_audit_creation_date 2013-02-01
_chemical_name_systematic 'Dilithium pentacopper(II) tetrakis(phosphate(V))'
_chemical_formula_structural 'Li2 Cu5 (P O4)4'
_chemical_formula_sum 'Cu5 Li2 O16 P4'
_exptl_crystal_density_diffrn 3.99
_cell_measurement_temperature 293.
_publ_section_title
'Synthesis, crystal structure and properties of Li2 Cu5 (P O4)4'
loop_
_citation_id
_citation_journal_full
_citation_year
_citation_journal_volume
_citation_page_first
_citation_page_last
_citation_journal_id_ASTM
primary 'Zeitschrift fuer Anorganische und Allgemeine Chemie (1950) (DE)' 2012
637 1287 1292 ZAACAB
loop_
_publ_author_name
'Snyder, K.'
'Glaum, R.'
_cell_length_a 6.0502(3)
_cell_length_b 9.2359(4)
_cell_length_c 11.4317(5)
_cell_angle_alpha 75.584(2)
_cell_angle_beta 80.260(2)
_cell_angle_gamma 74.178(2)
_cell_volume 591.71
_cell_formula_units_Z 2
_symmetry_space_group_name_H-M 'P -1'
_symmetry_Int_Tables_number 2
_refine_ls_R_factor_all 0.022
loop_
_symmetry_equiv_pos_site_id
_symmetry_equiv_pos_as_xyz
1 '-x, -y, -z'
2 'x, y, z'
loop_
_atom_type_symbol
_atom_type_oxidation_number
Cu2+ 2
Li1+ 1
Cu2+ 2
Li1+ 1
Cu2+ 2
Li1+ 1
Cu2+ 2
Li1+ 1
P5+ 5
O2- -2
loop_
_atom_site_label
_atom_site_type_symbol
_atom_site_symmetry_multiplicity
_atom_site_Wyckoff_symbol
_atom_site_fract_x
_atom_site_fract_y
_atom_site_fract_z
_atom_site_B_iso_or_equiv
_atom_site_occupancy
_atom_site_attached_hydrogens
Cu1 Cu2+ 2 i 0.63106(5) 0.10968(3) -0.10105(3) 0.01168(7) 0.8796(11) 0
Li1 Li1+ 2 i 0.63106(5) 0.10968(3) -0.10105(3) 0.01168(7) 0.1204(11) 0
Cu2 Cu2+ 2 i 0.69249(6) -0.07244(4) 0.41777(3) 0.00879(8) 0.6815(12) 0
Li2 Li1+ 2 i 0.69249(6) -0.07244(4) 0.41777(3) 0.00879(8) 0.3185(12) 0
Cu3 Cu2+ 2 i 0.80957(9) -0.60186(6) 0.84198(5) 0.01417(14) 0.4389(12) 0
Li3 Li1+ 2 i 0.80957(9) -0.60186(6) 0.84198(5) 0.01417(14) 0.5611(12) 0
Cu4 Cu2+ 2 i -0.00266(4) 0.23200(3) 0.12436(2) 0.01012(5) 1 0
Cu5 Cu2+ 2 i 0.16712(4) -0.28071(3) 0.50788(2) 0.00961(5) 1 0
Cu6 Cu2+ 2 i 0.26777(5) -0.62947(3) 0.67085(2) 0.01194(5) 1 0
Li4 Li1+ 2 i 0.5145(8) -0.2638(5) 0.8342(4) 0.0014(7) 0.665(8) 0
Li5 Li1+ 2 i 0.4794(15) -0.2320(10) 0.7909(9) 0.0014(7) 0.335(8) 0
P1 P5+ 2 i -0.28093(8) 0.57206(5) 0.08220(4) 0.00601(7) 1 0
P2 P5+ 2 i -0.18042(8) -0.06851(5) 0.15122(4) 0.00620(7) 1 0
P3 P5+ 2 i 0.15174(8) 0.04418(5) 0.34742(4) 0.00632(7) 1 0
P4 P5+ 2 i 0.63327(8) -0.43818(5) 0.61065(4) 0.00793(8) 1 0
O1 O2- 2 i 0.3508(2) 0.01573(17) 0.42487(13) 0.0115(2) 1 0
O2 O2- 2 i 0.2460(2) 0.06302(16) 0.21061(12) 0.0092(2) 1 0
O3 O2- 2 i -0.2741(2) 0.40318(15) 0.08619(13) 0.0105(2) 1 0
O4 O2- 2 i 0.0707(2) -0.15069(17) 0.11984(14) 0.0124(2) 1 0
O5 O2- 2 i -0.2147(2) 0.09865(16) 0.16106(13) 0.0108(2) 1 0
O6 O2- 2 i 0.3738(2) -0.44245(15) 0.61409(12) 0.0099(2) 1 0
O7 O2- 2 i 0.5255(2) -0.65930(15) 0.87524(13) 0.0103(2) 1 0
O8 O2- 2 i 0.1204(2) -0.58303(16) 0.82954(12) 0.0089(2) 1 0
O9 O2- 2 i 0.0379(2) -0.09470(16) 0.39167(12) 0.0100(2) 1 0
O10 O2- 2 i 0.2164(2) 0.35271(16) 0.05087(12) 0.0100(2) 1 0
O11 O2- 2 i 0.2837(2) -0.84550(15) 0.72606(12) 0.0089(2) 1 0
O12 O2- 2 i 0.3220(2) 0.07456(16) -0.05319(12) 0.0098(2) 1 0
O13 O2- 2 i -0.0338(3) 0.19203(16) 0.35609(13) 0.0117(2) 1 0
O14 O2- 2 i 0.7864(3) -0.60175(17) 0.61347(13) 0.0148(3) 1 0
O15 O2- 2 i 0.6720(3) -0.38905(19) 0.72082(14) 0.0153(3) 1 0
O16 O2- 2 i 0.6866(3) -0.32498(17) 0.49092(13) 0.0141(3) 1 0
loop_
_atom_site_aniso_label
_atom_site_aniso_type_symbol
_atom_site_aniso_U_11
_atom_site_aniso_U_22
_atom_site_aniso_U_33
_atom_site_aniso_U_12
_atom_site_aniso_U_13
_atom_site_aniso_U_23
Cu1 Cu2+ 0.00574(11) 0.00854(11) 0.02030(14) -0.00190(8) -0.00186(9) -0.00173(9)
Li1 Li1+ 0.00574(11) 0.00854(11) 0.02030(14) -0.00190(8) -0.00186(9) -0.00173(9)
Cu2 Cu2+ 0.00739(14) 0.01264(15) 0.00730(13) -0.00170(11) -0.00057(10)
-0.00482(10)
Li2 Li1+ 0.00739(14) 0.01264(15) 0.00730(13) -0.00170(11) -0.00057(10)
-0.00482(10)
Cu3 Cu2+ 0.0067(2) 0.0148(2) 0.0189(3) -0.00464(17) -0.00283(17) 0.00348(18)
Li3 Li1+ 0.0067(2) 0.0148(2) 0.0189(3) -0.00464(17) -0.00283(17) 0.00348(18)
Cu4 Cu2+ 0.00823(10) 0.00733(9) 0.01352(10) -0.00238(7) -0.00211(8) 0.00127(7)
Cu5 Cu2+ 0.01168(10) 0.00758(9) 0.00774(9) 0.00083(7) -0.00095(7) -0.00185(7)
Cu6 Cu2+ 0.02048(12) 0.00814(9) 0.00764(9) -0.00551(8) 0.00072(8) -0.00171(7)
P1 P5+ 0.00573(17) 0.00559(16) 0.00654(16) -0.00123(13) -0.00010(13)
-0.00150(13)
P2 P5+ 0.00529(17) 0.00650(16) 0.00665(16) -0.00145(13) -0.00043(13)
-0.00127(13)
P3 P5+ 0.00685(17) 0.00658(17) 0.00532(16) -0.00099(14) -0.00085(13)
-0.00148(13)
P4 P5+ 0.00984(19) 0.00788(17) 0.00584(16) -0.00192(14) 0.00032(14) -0.00204(13)
O1 O2- 0.0083(5) 0.0168(6) 0.0097(5) 0.0002(5) -0.0028(4) -0.0060(5)
O2 O2- 0.0095(5) 0.0109(5) 0.0061(5) -0.0012(4) 0.0003(4) -0.0018(4)
O3 O2- 0.0086(5) 0.0060(5) 0.0176(6) -0.0013(4) -0.0028(5) -0.0031(4)
O4 O2- 0.0061(5) 0.0139(6) 0.0181(6) -0.0022(5) 0.0013(5) -0.0071(5)
O5 O2- 0.0106(6) 0.0073(5) 0.0152(6) -0.0035(4) -0.0016(5) -0.0023(4)
O6 O2- 0.0103(6) 0.0078(5) 0.0110(5) -0.0021(4) -0.0019(4) -0.0005(4)
O7 O2- 0.0064(5) 0.0078(5) 0.0156(6) -0.0014(4) 0.0017(4) -0.0025(4)
O8 O2- 0.0078(5) 0.0111(5) 0.0090(5) -0.0025(4) -0.0007(4) -0.0041(4)
O9 O2- 0.0115(6) 0.0082(5) 0.0101(5) -0.0031(4) -0.0017(4) -0.0006(4)
O10 O2- 0.0109(6) 0.0123(6) 0.0070(5) -0.0049(5) 0.0008(4) -0.0010(4)
O11 O2- 0.0126(6) 0.0074(5) 0.0065(5) -0.0032(4) 0.0010(4) -0.0013(4)
O12 O2- 0.0104(6) 0.0111(5) 0.0087(5) -0.0035(5) -0.0039(4) -0.0005(4)
O13 O2- 0.0139(6) 0.0091(5) 0.0099(5) 0.0023(5) -0.0015(5) -0.0036(4)
O14 O2- 0.0181(7) 0.0119(6) 0.0117(6) 0.0049(5) -0.0043(5) -0.0052(5)
O15 O2- 0.0162(7) 0.0228(7) 0.0114(6) -0.0089(6) 0.0017(5) -0.0091(5)
O16 O2- 0.0230(7) 0.0109(6) 0.0090(5) -0.0082(5) 0.0028(5) -0.0019(4)
#End of TTdata_424473-ICSD