
#(C) 2017 by FIZ Karlsruhe - Leibniz Institute for Information Infrastructure.  All rights reserved.
data_42462-ICSD
_database_code_ICSD 42462
_audit_creation_date 2000-07-15
_audit_update_record 2007-08-01
_chemical_name_systematic 'Ammonium lithium tetrafluoroberyllate'
_chemical_formula_structural '(N H4) Li (Be F4)'
_chemical_formula_sum 'H4 Be1 F4 Li1 N1'
_chemical_name_structure_type NH4LiSO4
_exptl_crystal_density_diffrn 1.8
_publ_section_title 'Structure des orthofluoroberyllates de lithium M Li Be F4'
loop_
_citation_id
_citation_journal_full
_citation_year
_citation_journal_volume
_citation_page_first
_citation_page_last
_citation_journal_id_ASTM
primary 'Acta Crystallographica B (24,1968-38,1982)' 1972 28 1383 1387 ACBCAR
loop_
_publ_author_name
'le Roy, J.'
'Aleonard, S.'
_cell_length_a 9.008
_cell_length_b 5.226
_cell_length_c 8.631
_cell_angle_alpha 90.
_cell_angle_beta 90.
_cell_angle_gamma 90.
_cell_volume 406.31
_cell_formula_units_Z 4
_symmetry_space_group_name_H-M 'P c 21 n'
_symmetry_Int_Tables_number 33
_refine_ls_R_factor_all 0.082
loop_
_symmetry_equiv_pos_site_id
_symmetry_equiv_pos_as_xyz
1 '-x+1/2, y, z+1/2'
2 'x+1/2, y+1/2, -z+1/2'
3 '-x, y+1/2, -z'
4 'x, y, z'
loop_
_atom_type_symbol
_atom_type_oxidation_number
N3- -3
Li1+ 1
Be2+ 2
F1- -1
H1+ 1
loop_
_atom_site_label
_atom_site_type_symbol
_atom_site_symmetry_multiplicity
_atom_site_Wyckoff_symbol
_atom_site_fract_x
_atom_site_fract_y
_atom_site_fract_z
_atom_site_B_iso_or_equiv
_atom_site_occupancy
_atom_site_attached_hydrogens
N1 N3- 4 a 0.231(3) 0.537(10) 0.498(6) 0.5 1. 0
Li1 Li1+ 4 a 0.41 0.993 0.317 1.5 1. 0
Be1 Be2+ 4 a 0.082(7) 0 0.225(3) 1.5 1. 0
F1 F1- 4 a 0.088(4) 0.027(10) 0.020(2) 1.3 1. 0
F2 F1- 4 a 0.456(6) 0.670(11) 0.249(5) 2.1 1. 0
F3 F1- 4 a 0.054(5) 0.691(12) 0.257(4) 2.1 1. 0
F4 F1- 4 a 0.218(3) 0.096(13) 0.259(4) 2.1 1. 0
#End of TTdata_42462-ICSD