
#(C) 2018 by FIZ Karlsruhe - Leibniz Institute for Information Infrastructure.  All rights reserved.
data_424700-ICSD
_database_code_ICSD 424700
_audit_creation_date 2014-08-01
_chemical_name_systematic 'trilithium dibarium triholmium octawolframate'
_chemical_formula_structural 'Li3 Ba2 Ho3 (W O4)8'
_chemical_formula_sum 'Ba2 Ho3 Li3 O32 W8'
_chemical_name_structure_type Li3Ba2Tm3(MoO4)8
_exptl_crystal_density_diffrn 7.14
_cell_measurement_temperature 293.
_publ_section_title

;
Crystal structure and spectroscopic properties of a new ternary tungstate Li3
Ba2 Ho3 (W O4)8
;
loop_
_citation_id
_citation_journal_full
_citation_year
_citation_journal_volume
_citation_page_first
_citation_page_last
_citation_journal_id_ASTM
primary 'Chinese Journal of Structural Chemistry' 2013 32 33 38 CJSCBE
loop_
_publ_author_name
'Zeng, Xiao-ling'
'Zhang, Ji-ye'
'Chen, Da-gui'
'Huang, Feng'
_cell_length_a 5.240(4)
_cell_length_b 12.790(10)
_cell_length_c 19.247(15)
_cell_angle_alpha 90.
_cell_angle_beta 91.921(15)
_cell_angle_gamma 90.
_cell_volume 1289.2
_cell_formula_units_Z 2
_symmetry_space_group_name_H-M 'C 1 2/c 1'
_symmetry_Int_Tables_number 15
_refine_ls_R_factor_all 0.0472
loop_
_symmetry_equiv_pos_site_id
_symmetry_equiv_pos_as_xyz
1 'x, -y, z+1/2'
2 '-x, -y, -z'
3 '-x, y, -z+1/2'
4 'x, y, z'
5 'x+1/2, -y+1/2, z+1/2'
6 '-x+1/2, -y+1/2, -z'
7 '-x+1/2, y+1/2, -z+1/2'
8 'x+1/2, y+1/2, z'
loop_
_atom_type_symbol
_atom_type_oxidation_number
W6+ 6
Ba2+ 2
Ho3+ 3
Li1+ 1
O2- -2
Li1+ 1
loop_
_atom_site_label
_atom_site_type_symbol
_atom_site_symmetry_multiplicity
_atom_site_Wyckoff_symbol
_atom_site_fract_x
_atom_site_fract_y
_atom_site_fract_z
_atom_site_B_iso_or_equiv
_atom_site_occupancy
_atom_site_attached_hydrogens
W1 W6+ 8 f 0.00675(11) 0.43941(4) 0.09708(3) 0.0113(2) 1 0
W2 W6+ 8 f 0.49229(12) 0.24060(4) 0.15538(3) 0.0108(2) 1 0
Ba1 Ba2+ 4 e 0. 0.02998(9) 0.25 0.0119(3) 1 0
Ho1 Ho3+ 8 f -0.0027(2) 0.14624(8) 0.03366(5) 0.0197(3) 0.75 0
Li1 Li1+ 8 f -0.0027(2) 0.14624(8) 0.03366(5) 0.0197(3) 0.25 0
O1 O2- 8 f 0.646(2) 0.2588(9) 0.0760(7) 0.018(2) 1 0
O2 O2- 8 f -0.133(2) 0.4135(9) 0.1759(6) 0.014(2) 1 0
O3 O2- 8 f 0.348(2) 0.3552(8) 0.1813(6) 0.014(2) 1 0
O4 O2- 8 f -0.244(2) 0.4830(8) 0.0408(6) 0.013(2) 1 0
O5 O2- 8 f 0.231(2) 0.5388(8) 0.1097(6) 0.014(2) 1 0
O6 O2- 8 f 0.256(2) 0.1458(8) 0.1417(6) 0.015(2) 1 0
O7 O2- 8 f 0.731(2) 0.2027(9) 0.2152(7) 0.019(2) 1 0
O8 O2- 8 f 0.139(2) 0.3339(9) 0.0517(6) 0.018(2) 1 0
Li2 Li1+ 4 e 0. 0.316(3) 0.25 0.012(7) 1 0
loop_
_atom_site_aniso_label
_atom_site_aniso_type_symbol
_atom_site_aniso_U_11
_atom_site_aniso_U_22
_atom_site_aniso_U_33
_atom_site_aniso_U_12
_atom_site_aniso_U_13
_atom_site_aniso_U_23
W1 W6+ 0.0114(4) 0.0133(4) 0.0094(4) -0.0018(2) 0.0019(3) -0.0020(2)
W2 W6+ 0.0108(4) 0.0111(3) 0.0105(4) 0.0005(2) 0.0004(3) -0.0006(2)
Ba1 Ba2+ 0.0130(7) 0.0093(6) 0.0135(7) 0. 0.0002(5) 0.
Ho1 Ho3+ 0.0230(7) 0.0188(6) 0.0173(6) -0.0015(4) 0.0022(5) 0.0002(4)
Li1 Li1+ 0.0230(7) 0.0188(6) 0.0173(6) -0.0015(4) 0.0022(5) 0.0002(4)
O1 O2- 0.014(6) 0.017(6) 0.021(7) 0.001(4) 0.001(5) 0.002(4)
O2 O2- 0.010(5) 0.021(5) 0.010(5) 0.004(4) 0.003(4) -0.005(4)
O3 O2- 0.012(6) 0.019(5) 0.011(5) -0.002(4) -0.004(4) -0.003(4)
O4 O2- 0.010(5) 0.016(5) 0.013(6) 0.001(4) -0.005(4) -0.003(4)
O5 O2- 0.013(6) 0.017(5) 0.014(6) -0.001(4) -0.001(5) 0.000(4)
O6 O2- 0.016(6) 0.014(5) 0.015(6) -0.001(4) 0.002(5) 0.001(4)
O7 O2- 0.017(6) 0.015(5) 0.026(7) 0.002(4) -0.003(5) 0.004(5)
O8 O2- 0.017(6) 0.018(6) 0.018(6) -0.002(4) 0.001(5) -0.001(4)
Li2 Li1+ 0.014(18) 0.001(14) 0.020(19) 0. -0.004(15) 0.
#End of TTdata_424700-ICSD