
#(C) 2018 by FIZ Karlsruhe - Leibniz Institute for Information Infrastructure.  All rights reserved.
data_425113-ICSD
_database_code_ICSD 425113
_audit_creation_date 2014-08-01
_chemical_name_systematic 'Lithium dicyanamide'
_chemical_formula_structural 'Li (N (C N)2)'
_chemical_formula_sum 'C2 Li1 N3'
_exptl_crystal_density_diffrn 1.54
_cell_measurement_temperature 170.
_publ_section_title

;
Synthesis, crystal structure, and vibrational spectra of the anhydrous lithium
dicyanamide Li [N (C N)2]
;
loop_
_citation_id
_citation_journal_full
_citation_year
_citation_journal_volume
_citation_page_first
_citation_page_last
_citation_journal_id_ASTM
primary 'Zeitschrift fuer Anorganische und Allgemeine Chemie (1950) (DE)' 2014
640 851 855 ZAACAB
loop_
_publ_author_name
'Reckeweg, Olaf'
'DiSalvo, Francis J.'
'Schulz, Armin'
'Blaschkowski, Bjoern'
'Jagiella, Stefan'
'Schleid, Thomas'
_cell_length_a 5.3079(8)
_cell_length_b 5.2489(9)
_cell_length_c 11.4977(17)
_cell_angle_alpha 90.
_cell_angle_beta 101.551(7)
_cell_angle_gamma 90.
_cell_volume 313.84
_cell_formula_units_Z 4
_symmetry_space_group_name_H-M 'P 1 2/c 1'
_symmetry_Int_Tables_number 13
_refine_ls_R_factor_all 0.031
loop_
_symmetry_equiv_pos_site_id
_symmetry_equiv_pos_as_xyz
1 'x, -y, z+1/2'
2 '-x, -y, -z'
3 '-x, y, -z+1/2'
4 'x, y, z'
loop_
_atom_type_symbol
_atom_type_oxidation_number
Li1+ 1
N3- -3
C4+ 4
N3- -3
C4+ 4
N3- -3
loop_
_atom_site_label
_atom_site_type_symbol
_atom_site_symmetry_multiplicity
_atom_site_Wyckoff_symbol
_atom_site_fract_x
_atom_site_fract_y
_atom_site_fract_z
_atom_site_B_iso_or_equiv
_atom_site_occupancy
_atom_site_attached_hydrogens
Li1 Li1+ 2 c 0. 0.5 0. 0.0207(4) 1 0
Li2 Li1+ 2 e 0. 0.4176(4) 0.25 0.0190(4) 1 0
N1 N3- 4 g 0.25094(13) 0.61657(15) 0.37549(6) 0.02057(18) 1 0
C1 C4+ 4 g 0.54417(15) 0.29797(15) 0.60938(7) 0.01605(18) 1 0
N2 N3- 4 g 0.30353(14) 0.22553(14) 0.58655(7) 0.02083(18) 1 0
C2 C4+ 4 g 0.24093(14) 0.00303(16) 0.11712(7) 0.01671(18) 1 0
N3 N3- 4 g 0.16238(14) 0.19902(15) 0.13896(7) 0.02216(18) 1 0
loop_
_atom_site_aniso_label
_atom_site_aniso_type_symbol
_atom_site_aniso_U_11
_atom_site_aniso_U_22
_atom_site_aniso_U_33
_atom_site_aniso_U_12
_atom_site_aniso_U_13
_atom_site_aniso_U_23
Li1 Li1+ 0.0183(9) 0.0212(10) 0.0227(10) 0.0016(8) 0.0043(8) -0.0020(8)
Li2 Li1+ 0.0175(9) 0.0191(9) 0.0202(9) 0. 0.0036(7) 0.
N1 N3- 0.0180(3) 0.0194(4) 0.0237(4) -0.0029(3) 0.0028(3) 0.0020(3)
C1 C4+ 0.0183(4) 0.0144(4) 0.0156(3) -0.0008(3) 0.0036(3) 0.0016(3)
N2 N3- 0.0153(3) 0.0171(3) 0.0290(4) -0.0032(3) 0.0019(3) 0.0049(3)
C2 C4+ 0.0137(3) 0.0187(4) 0.0174(4) 0.0013(3) 0.0022(3) 0.0008(3)
N3 N3- 0.0198(4) 0.0187(3) 0.0278(4) 0.0038(3) 0.0044(3) -0.0018(3)
#End of TTdata_425113-ICSD