
#(C) 2018 by FIZ Karlsruhe - Leibniz Institute for Information Infrastructure.  All rights reserved.
data_425562-ICSD
_database_code_ICSD 425562
_audit_creation_date 2014-02-01
_chemical_name_systematic 'Lithium europium borate (6/0.966/3)'
_chemical_formula_structural 'Li6 Eu0.966 (B O3)3'
_chemical_formula_sum 'B3 Eu0.966 Li6 O9'
_chemical_name_structure_type Li6HoB3O9
_exptl_crystal_density_diffrn 3.07
_cell_measurement_temperature 773.
_publ_section_title

;
Growth and spectroscopic properties of (6)Li- and (10)B-enriched crystals for
heat-scintillation cryogenic bolometers used in the rare events searches
;
loop_
_citation_id
_citation_journal_full
_citation_year
_citation_journal_volume
_citation_page_first
_citation_page_last
_citation_journal_id_ASTM
primary CrystEngComm 2013 15 3785 3792 CRECF4
loop_
_publ_author_name
'Rekia Belhoucif'
'Matias Velazquez'
'Yannick Petit'
'Olivier Perez'
'BenoÅ’t Glorieux'
'Oudomsack Viraphong'
'Pierre de Marcillac'
'Noâ€°l Coron'
'Lidia Torres'
'Emmanuel Veron'
'AbdelHamid Kellou'
'Philippe Veber'
'Rodolphe Decourt'
'Hassan El Hafid'
_cell_length_a 7.2770(2)
_cell_length_b 16.6871(4)
_cell_length_c 6.7530(2)
_cell_angle_alpha 90
_cell_angle_beta 105.6652(7)
_cell_angle_gamma 90
_cell_volume 789.57
_cell_formula_units_Z 4
_symmetry_space_group_name_H-M 'P 1 21/c 1'
_symmetry_Int_Tables_number 14
_refine_ls_R_factor_all 0.019
loop_
_symmetry_equiv_pos_site_id
_symmetry_equiv_pos_as_xyz
1 'x, -y+1/2, z+1/2'
2 '-x, -y, -z'
3 '-x, y+1/2, -z+1/2'
4 'x, y, z'
loop_
_atom_type_symbol
_atom_type_oxidation_number
Eu3+ 3
O2- -2
B3+ 3
Li1+ 1
loop_
_atom_site_label
_atom_site_type_symbol
_atom_site_symmetry_multiplicity
_atom_site_Wyckoff_symbol
_atom_site_fract_x
_atom_site_fract_y
_atom_site_fract_z
_atom_site_B_iso_or_equiv
_atom_site_occupancy
_atom_site_attached_hydrogens
Eu1 Eu3+ 4 e 0.57829(3) 0.310366(12) 0.15480(3) 0.01448(8) 0.9657 0
O1 O2- 4 e 0.7771(4) 0.4320(2) 0.2357(5) 0.0279(11) 1 0
O2 O2- 4 e 0.9226(5) 0.30502(19) 0.2798(6) 0.0295(12) 1 0
O3 O2- 4 e 0.2361(4) 0.29977(19) 0.0495(6) 0.0269(11) 1 0
O4 O2- 4 e 0.3732(4) 0.4272(2) 0.0450(6) 0.0332(12) 1 0
O5 O2- 4 e 0.6487(5) 0.31745(18) -0.1663(5) 0.0225(10) 1 0
O6 O2- 4 e 0.5052(5) 0.3253(2) 0.4768(5) 0.0256(11) 1 0
O7 O2- 4 e 0.0354(4) 0.4123(2) -0.0902(5) 0.0316(12) 1 0
O8 O2- 4 e 1.1052(4) 0.4227(2) 0.4222(5) 0.0308(11) 1 0
O9 O2- 4 e 0.5833(5) 0.4455(2) -0.3269(5) 0.0313(13) 1 0
B1 B3+ 4 e 0.9391(6) 0.3865(3) 0.3157(7) 0.0205(16) 1 0
B2 B3+ 4 e 0.2100(7) 0.3806(3) -0.0038(8) 0.0206(16) 1 0
B3 B3+ 4 e 0.5814(6) 0.3650(3) -0.3398(7) 0.0176(15) 1 0
Li1 Li1+ 4 e 0.0400(16) 0.4689(8) -0.3300(17) 0.053(3) 1 0
Li2 Li1+ 4 e -0.1922(14) 0.4627(7) -0.0569(16) 0.047(2) 1 0
Li3 Li1+ 4 e 0.9396(15) 0.2047(6) 0.4492(16) 0.042(2) 1 0
Li4 Li1+ 4 e 1.3615(15) 0.4503(7) 0.4108(17) 0.050(3) 1 0
Li5 Li1+ 4 e 0.5733(13) 0.5036(7) 0.1747(14) 0.041(2) 1 0
Li6 Li1+ 4 e 0.2115(15) 0.2042(6) -0.1277(16) 0.042(2) 1 0
loop_
_atom_site_aniso_label
_atom_site_aniso_type_symbol
_atom_site_aniso_U_11
_atom_site_aniso_U_22
_atom_site_aniso_U_33
_atom_site_aniso_U_12
_atom_site_aniso_U_13
_atom_site_aniso_U_23
Eu1 Eu3+ 0.01555(12) 0.01344(16) 0.01448(13) 0.00015(8) 0.00411(8) 0.00050(8)
O1 O2- 0.0208(14) 0.0196(19) 0.0417(19) 0.0022(13) 0.0058(13) 0.0020(14)
O2 O2- 0.0236(16) 0.020(2) 0.041(2) 0.0010(13) 0.0030(14) 0.0025(14)
O3 O2- 0.0194(15) 0.0187(19) 0.039(2) -0.0001(12) 0.0015(14) -0.0011(13)
O4 O2- 0.0233(15) 0.0214(19) 0.052(2) -0.0037(14) 0.0044(15) 0.0037(16)
O5 O2- 0.0271(15) 0.0221(19) 0.0161(15) 0.0035(12) 0.0019(12) 0.0023(11)
O6 O2- 0.0296(16) 0.030(2) 0.0167(16) -0.0019(13) 0.0047(13) -0.0040(12)
O7 O2- 0.0199(15) 0.037(2) 0.038(2) 0.0058(14) 0.0075(14) 0.0128(15)
O8 O2- 0.0222(15) 0.034(2) 0.0330(19) -0.0057(14) 0.0022(14) -0.0058(15)
O9 O2- 0.042(2) 0.018(2) 0.033(2) 0.0017(14) 0.0082(16) 0.0016(13)
B1 B3+ 0.019(2) 0.019(3) 0.022(3) 0.0003(17) 0.0043(19) 0.0011(17)
B2 B3+ 0.022(2) 0.020(3) 0.021(2) -0.0006(18) 0.0088(19) -0.0015(17)
B3 B3+ 0.018(2) 0.018(3) 0.017(2) 0.0011(17) 0.0049(17) 0.0006(17)
#End of TTdata_425562-ICSD