
#(C) 2018 by FIZ Karlsruhe - Leibniz Institute for Information Infrastructure.  All rights reserved.
data_425563-ICSD
_database_code_ICSD 425563
_audit_creation_date 2014-02-01
_chemical_name_systematic 'Lithium europium borate (6/0.966/3)'
_chemical_formula_structural 'Li6 Eu0.966 (B O3)3'
_chemical_formula_sum 'B3 Eu0.966 Li6 O9'
_chemical_name_structure_type Li6HoB3O9
_exptl_crystal_density_diffrn 3.06
_cell_measurement_temperature 873.
_publ_section_title

;
Growth and spectroscopic properties of (6)Li- and (10)B-enriched crystals for
heat-scintillation cryogenic bolometers used in the rare events searches
;
loop_
_citation_id
_citation_journal_full
_citation_year
_citation_journal_volume
_citation_page_first
_citation_page_last
_citation_journal_id_ASTM
primary CrystEngComm 2013 15 3785 3792 CRECF4
loop_
_publ_author_name
'Rekia Belhoucif'
'Matias Velazquez'
'Yannick Petit'
'Olivier Perez'
'BenoÅ’t Glorieux'
'Oudomsack Viraphong'
'Pierre de Marcillac'
'Noâ€°l Coron'
'Lidia Torres'
'Emmanuel Veron'
'AbdelHamid Kellou'
'Philippe Veber'
'Rodolphe Decourt'
'Hassan El Hafid'
_cell_length_a 7.2887(2)
_cell_length_b 16.7222(4)
_cell_length_c 6.7588(2)
_cell_angle_alpha 90
_cell_angle_beta 105.8069(7)
_cell_angle_gamma 90
_cell_volume 792.63
_cell_formula_units_Z 4
_symmetry_space_group_name_H-M 'P 1 21/c 1'
_symmetry_Int_Tables_number 14
_refine_ls_R_factor_all 0.0192
loop_
_symmetry_equiv_pos_site_id
_symmetry_equiv_pos_as_xyz
1 'x, -y+1/2, z+1/2'
2 '-x, -y, -z'
3 '-x, y+1/2, -z+1/2'
4 'x, y, z'
loop_
_atom_type_symbol
_atom_type_oxidation_number
Eu3+ 3
O2- -2
B3+ 3
Li1+ 1
loop_
_atom_site_label
_atom_site_type_symbol
_atom_site_symmetry_multiplicity
_atom_site_Wyckoff_symbol
_atom_site_fract_x
_atom_site_fract_y
_atom_site_fract_z
_atom_site_B_iso_or_equiv
_atom_site_occupancy
_atom_site_attached_hydrogens
Eu1 Eu3+ 4 e 0.57714(2) 0.310397(11) 0.15497(3) 0.01644(8) 0.9657 0
O1 O2- 4 e 0.7767(4) 0.43205(19) 0.2371(5) 0.0323(10) 1 0
O2 O2- 4 e 0.9213(4) 0.30515(18) 0.2798(6) 0.0334(11) 1 0
O3 O2- 4 e 0.2347(4) 0.29995(18) 0.0492(5) 0.0313(11) 1 0
O4 O2- 4 e 0.3712(4) 0.4269(2) 0.0465(5) 0.0370(11) 1 0
O5 O2- 4 e 0.6476(4) 0.31734(16) -0.1652(4) 0.0259(10) 1 0
O6 O2- 4 e 0.5045(5) 0.32516(18) 0.4768(5) 0.0287(10) 1 0
O7 O2- 4 e 0.0347(4) 0.4121(2) -0.0908(5) 0.0369(12) 1 0
O8 O2- 4 e 1.1054(4) 0.4222(2) 0.4221(5) 0.0361(11) 1 0
O9 O2- 4 e 0.5823(4) 0.4453(2) -0.3277(5) 0.0363(12) 1 0
B1 B3+ 4 e 0.9393(6) 0.3862(3) 0.3170(7) 0.0236(15) 1 0
B2 B3+ 4 e 0.2086(6) 0.3805(3) -0.0035(7) 0.0226(14) 1 0
B3 B3+ 4 e 0.5805(6) 0.3647(3) -0.3393(6) 0.0199(14) 1 0
Li1 Li1+ 4 e 0.0426(16) 0.4686(8) -0.3310(17) 0.065(3) 1 0
Li2 Li1+ 4 e -0.1941(14) 0.4621(7) -0.0571(15) 0.055(2) 1 0
Li3 Li1+ 4 e 0.9373(14) 0.2048(6) 0.4466(16) 0.049(2) 1 0
Li4 Li1+ 4 e 1.3601(16) 0.4494(7) 0.4082(17) 0.061(3) 1 0
Li5 Li1+ 4 e 0.5738(14) 0.5046(8) 0.1739(15) 0.060(3) 1 0
Li6 Li1+ 4 e 0.2109(14) 0.2033(6) -0.1258(16) 0.048(2) 1 0
loop_
_atom_site_aniso_label
_atom_site_aniso_type_symbol
_atom_site_aniso_U_11
_atom_site_aniso_U_22
_atom_site_aniso_U_33
_atom_site_aniso_U_12
_atom_site_aniso_U_13
_atom_site_aniso_U_23
Eu1 Eu3+ 0.01798(11) 0.01501(14) 0.01637(12) 0.00009(7) 0.00477(8) 0.00048(7)
O1 O2- 0.0242(13) 0.0238(18) 0.0472(19) 0.0024(12) 0.0069(13) 0.0013(14)
O2 O2- 0.0260(15) 0.022(2) 0.047(2) 0.0018(12) 0.0027(14) 0.0025(13)
O3 O2- 0.0233(14) 0.0204(18) 0.047(2) -0.0011(11) 0.0032(14) -0.0009(13)
O4 O2- 0.0262(14) 0.0221(18) 0.059(2) -0.0040(13) 0.0048(14) 0.0055(15)
O5 O2- 0.0325(15) 0.0248(18) 0.0192(14) 0.0038(12) 0.0048(12) 0.0037(11)
O6 O2- 0.0359(16) 0.0306(19) 0.0192(15) -0.0030(13) 0.0065(13) -0.0030(11)
O7 O2- 0.0225(14) 0.044(2) 0.0437(19) 0.0074(13) 0.0080(14) 0.0144(15)
O8 O2- 0.0244(14) 0.040(2) 0.0405(19) -0.0074(13) 0.0025(13) -0.0060(15)
O9 O2- 0.050(2) 0.0185(19) 0.0383(19) 0.0020(14) 0.0085(16) 0.0011(13)
B1 B3+ 0.021(2) 0.024(3) 0.026(2) 0.0005(16) 0.0049(18) 0.0015(17)
B2 B3+ 0.0216(19) 0.022(3) 0.024(2) 0.0019(17) 0.0059(17) -0.0021(16)
B3 B3+ 0.0235(19) 0.019(3) 0.018(2) 0.0006(16) 0.0070(17) -0.0003(15)
#End of TTdata_425563-ICSD