
#(C) 2018 by FIZ Karlsruhe - Leibniz Institute for Information Infrastructure.  All rights reserved.
data_425564-ICSD
_database_code_ICSD 425564
_audit_creation_date 2014-02-01
_chemical_name_systematic 'Lithium europium borate (6/0.966/3)'
_chemical_formula_structural 'Li6 Eu0.966 (B O3)3'
_chemical_formula_sum 'B3 Eu0.966 Li6 O9'
_chemical_name_structure_type Li6HoB3O9
_exptl_crystal_density_diffrn 3.05
_cell_measurement_temperature 948.
_publ_section_title

;
Growth and spectroscopic properties of (6)Li- and (10)B-enriched crystals for
heat-scintillation cryogenic bolometers used in the rare events searches
;
loop_
_citation_id
_citation_journal_full
_citation_year
_citation_journal_volume
_citation_page_first
_citation_page_last
_citation_journal_id_ASTM
primary CrystEngComm 2013 15 3785 3792 CRECF4
loop_
_publ_author_name
'Rekia Belhoucif'
'Matias Velazquez'
'Yannick Petit'
'Olivier Perez'
'BenoÅ’t Glorieux'
'Oudomsack Viraphong'
'Pierre de Marcillac'
'Noâ€°l Coron'
'Lidia Torres'
'Emmanuel Veron'
'AbdelHamid Kellou'
'Philippe Veber'
'Rodolphe Decourt'
'Hassan El Hafid'
_cell_length_a 7.2991(2)
_cell_length_b 16.7478(5)
_cell_length_c 6.7629(2)
_cell_angle_alpha 90
_cell_angle_beta 105.8819(8)
_cell_angle_gamma 90
_cell_volume 795.17
_cell_formula_units_Z 4
_symmetry_space_group_name_H-M 'P 1 21/c 1'
_symmetry_Int_Tables_number 14
_refine_ls_R_factor_all 0.0208
loop_
_symmetry_equiv_pos_site_id
_symmetry_equiv_pos_as_xyz
1 'x, -y+1/2, z+1/2'
2 '-x, -y, -z'
3 '-x, y+1/2, -z+1/2'
4 'x, y, z'
loop_
_atom_type_symbol
_atom_type_oxidation_number
Eu3+ 3
O2- -2
B3+ 3
Li1+ 1
loop_
_atom_site_label
_atom_site_type_symbol
_atom_site_symmetry_multiplicity
_atom_site_Wyckoff_symbol
_atom_site_fract_x
_atom_site_fract_y
_atom_site_fract_z
_atom_site_B_iso_or_equiv
_atom_site_occupancy
_atom_site_attached_hydrogens
Eu1 Eu3+ 4 e 0.57598(3) 0.310358(12) 0.15501(3) 0.01818(9) 0.9657 0
O1 O2- 4 e 0.7757(4) 0.4319(2) 0.2385(5) 0.0351(12) 1 0
O2 O2- 4 e 0.9200(5) 0.3054(2) 0.2798(7) 0.0369(13) 1 0
O3 O2- 4 e 0.2332(5) 0.2997(2) 0.0487(6) 0.0353(13) 1 0
O4 O2- 4 e 0.3696(4) 0.4264(2) 0.0476(6) 0.0417(13) 1 0
O5 O2- 4 e 0.6464(5) 0.31761(18) -0.1657(5) 0.0288(11) 1 0
O6 O2- 4 e 0.5042(5) 0.3249(2) 0.4769(5) 0.0315(11) 1 0
O7 O2- 4 e 0.0339(4) 0.4119(2) -0.0916(6) 0.0403(13) 1 0
O8 O2- 4 e 1.1048(4) 0.4218(2) 0.4215(6) 0.0397(12) 1 0
O9 O2- 4 e 0.5820(5) 0.4449(2) -0.3281(5) 0.0415(14) 1 0
B1 B3+ 4 e 0.9389(7) 0.3862(3) 0.3182(8) 0.0254(16) 1 0
B2 B3+ 4 e 0.2073(7) 0.3802(3) -0.0042(8) 0.0247(16) 1 0
B3 B3+ 4 e 0.5798(6) 0.3648(3) -0.3393(7) 0.0219(15) 1 0
Li1 Li1+ 4 e 0.0458(19) 0.4692(10) -0.327(2) 0.077(4) 1 0
Li2 Li1+ 4 e -0.1938(16) 0.4629(8) -0.0560(17) 0.059(3) 1 0
Li3 Li1+ 4 e 0.9366(16) 0.2041(7) 0.4494(18) 0.051(3) 1 0
Li4 Li1+ 4 e 1.3602(18) 0.4485(8) 0.4056(19) 0.067(3) 1 0
Li5 Li1+ 4 e 0.5727(16) 0.5051(10) 0.1721(18) 0.072(4) 1 0
Li6 Li1+ 4 e 0.2088(16) 0.2021(7) -0.1246(18) 0.052(3) 1 0
loop_
_atom_site_aniso_label
_atom_site_aniso_type_symbol
_atom_site_aniso_U_11
_atom_site_aniso_U_22
_atom_site_aniso_U_33
_atom_site_aniso_U_12
_atom_site_aniso_U_13
_atom_site_aniso_U_23
Eu1 Eu3+ 0.01989(12) 0.01653(16) 0.01811(13) 0.00024(8) 0.00516(8) 0.00075(8)
O1 O2- 0.0274(15) 0.0225(19) 0.054(2) 0.0030(13) 0.0083(15) 0.0007(15)
O2 O2- 0.0287(17) 0.024(2) 0.054(2) 0.0013(13) 0.0044(16) 0.0030(15)
O3 O2- 0.0267(16) 0.022(2) 0.052(2) -0.0015(12) 0.0030(16) -0.0019(15)
O4 O2- 0.0297(16) 0.026(2) 0.065(2) -0.0035(15) 0.0054(17) 0.0048(17)
O5 O2- 0.0342(16) 0.028(2) 0.0220(16) 0.0031(13) 0.0043(13) 0.0043(12)
O6 O2- 0.0383(18) 0.033(2) 0.0214(16) -0.0031(14) 0.0056(14) -0.0029(13)
O7 O2- 0.0262(16) 0.046(2) 0.048(2) 0.0081(15) 0.0092(15) 0.0144(17)
O8 O2- 0.0276(16) 0.042(2) 0.045(2) -0.0080(15) 0.0019(15) -0.0081(17)
O9 O2- 0.057(2) 0.022(2) 0.043(2) 0.0028(16) 0.0093(18) 0.0014(14)
B1 B3+ 0.025(2) 0.022(3) 0.028(3) 0.0022(18) 0.007(2) 0.0021(18)
B2 B3+ 0.025(2) 0.024(3) 0.025(2) 0.0018(18) 0.0057(19) -0.0018(18)
B3 B3+ 0.024(2) 0.022(3) 0.019(2) 0.0001(18) 0.0055(18) -0.0011(17)
#End of TTdata_425564-ICSD