
#(C) 2018 by FIZ Karlsruhe - Leibniz Institute for Information Infrastructure.  All rights reserved.
data_425558-ICSD
_database_code_ICSD 425558
_audit_creation_date 2014-02-01
_chemical_name_systematic 'Lithium europium borate (6/0.966/3)'
_chemical_formula_structural 'Li6 Eu0.966 (B O3)3'
_chemical_formula_sum 'B3 Eu0.966 Li6 O9'
_chemical_name_structure_type Li6HoB3O9
_exptl_crystal_density_diffrn 3.12
_cell_measurement_temperature 373.
_publ_section_title

;
Growth and spectroscopic properties of (6)Li- and (10)B-enriched crystals for
heat-scintillation cryogenic bolometers used in the rare events searches
;
loop_
_citation_id
_citation_journal_full
_citation_year
_citation_journal_volume
_citation_page_first
_citation_page_last
_citation_journal_id_ASTM
primary CrystEngComm 2013 15 3785 3792 CRECF4
loop_
_publ_author_name
'Rekia Belhoucif'
'Matias Velazquez'
'Yannick Petit'
'Olivier Perez'
'BenoÅ’t Glorieux'
'Oudomsack Viraphong'
'Pierre de Marcillac'
'Noâ€°l Coron'
'Lidia Torres'
'Emmanuel Veron'
'AbdelHamid Kellou'
'Philippe Veber'
'Rodolphe Decourt'
'Hassan El Hafid'
_cell_length_a 7.2433(2)
_cell_length_b 16.5593(5)
_cell_length_c 6.7152(2)
_cell_angle_alpha 90
_cell_angle_beta 105.3891(7)
_cell_angle_gamma 90
_cell_volume 776.57
_cell_formula_units_Z 4
_symmetry_space_group_name_H-M 'P 1 21/c 1'
_symmetry_Int_Tables_number 14
_refine_ls_R_factor_all 0.0167
loop_
_symmetry_equiv_pos_site_id
_symmetry_equiv_pos_as_xyz
1 'x, -y+1/2, z+1/2'
2 '-x, -y, -z'
3 '-x, y+1/2, -z+1/2'
4 'x, y, z'
loop_
_atom_type_symbol
_atom_type_oxidation_number
Eu3+ 3
O2- -2
B3+ 3
Li1+ 1
loop_
_atom_site_label
_atom_site_type_symbol
_atom_site_symmetry_multiplicity
_atom_site_Wyckoff_symbol
_atom_site_fract_x
_atom_site_fract_y
_atom_site_fract_z
_atom_site_B_iso_or_equiv
_atom_site_occupancy
_atom_site_attached_hydrogens
Eu1 Eu3+ 4 e 0.57981(2) 0.310235(10) 0.15378(2) 0.00739(7) 0.9657 0
O1 O2- 4 e 0.7781(3) 0.43230(16) 0.2317(4) 0.0134(7) 1 0
O2 O2- 4 e 0.9245(4) 0.30408(15) 0.2773(5) 0.0157(8) 1 0
O3 O2- 4 e 0.2370(3) 0.29947(15) 0.0526(4) 0.0139(8) 1 0
O4 O2- 4 e 0.3758(3) 0.42735(16) 0.0418(4) 0.0177(8) 1 0
O5 O2- 4 e 0.6517(3) 0.31683(14) -0.1666(4) 0.0119(8) 1 0
O6 O2- 4 e 0.5043(4) 0.32598(16) 0.4759(4) 0.0136(8) 1 0
O7 O2- 4 e 0.0360(3) 0.41261(16) -0.0885(4) 0.0162(8) 1 0
O8 O2- 4 e 1.1057(3) 0.42314(17) 0.4231(4) 0.0162(8) 1 0
O9 O2- 4 e 0.5834(3) 0.44698(17) -0.3260(4) 0.0162(9) 1 0
B1 B3+ 4 e 0.9407(5) 0.3862(3) 0.3137(6) 0.0114(11) 1 0
B2 B3+ 4 e 0.2119(5) 0.3807(3) -0.0019(6) 0.0122(12) 1 0
B3 B3+ 4 e 0.5822(5) 0.3653(3) -0.3388(5) 0.0105(11) 1 0
Li1 Li1+ 4 e 0.0434(10) 0.4698(5) -0.3308(10) 0.0223(14) 1 0
Li2 Li1+ 4 e -0.1930(10) 0.4638(5) -0.0568(11) 0.0247(15) 1 0
Li3 Li1+ 4 e 0.9417(10) 0.2044(5) 0.4503(12) 0.0233(14) 1 0
Li4 Li1+ 4 e 1.3591(10) 0.4500(5) 0.4156(11) 0.0238(14) 1 0
Li5 Li1+ 4 e 0.5728(9) 0.5031(5) 0.1764(10) 0.0187(13) 1 0
Li6 Li1+ 4 e 0.2132(10) 0.2046(4) -0.1301(11) 0.0222(14) 1 0
loop_
_atom_site_aniso_label
_atom_site_aniso_type_symbol
_atom_site_aniso_U_11
_atom_site_aniso_U_22
_atom_site_aniso_U_33
_atom_site_aniso_U_12
_atom_site_aniso_U_13
_atom_site_aniso_U_23
Eu1 Eu3+ 0.00781(10) 0.00703(12) 0.00736(11) 0.00013(6) 0.00208(7) 0.00026(6)
O1 O2- 0.0113(10) 0.0107(13) 0.0172(12) 0.0003(9) 0.0022(9) 0.0009(9)
O2 O2- 0.0132(12) 0.0116(15) 0.0217(14) 0.0001(9) 0.0034(10) 0.0011(10)
O3 O2- 0.0104(11) 0.0111(14) 0.0188(14) 0.0003(9) 0.0016(10) 0.0000(9)
O4 O2- 0.0126(11) 0.0116(14) 0.0276(14) -0.0011(10) 0.0028(10) 0.0024(11)
O5 O2- 0.0126(11) 0.0125(14) 0.0094(12) 0.0010(9) 0.0010(9) 0.0019(9)
O6 O2- 0.0150(11) 0.0152(14) 0.0103(12) -0.0008(9) 0.0027(10) -0.0014(9)
O7 O2- 0.0105(11) 0.0193(16) 0.0188(13) 0.0029(9) 0.0039(10) 0.0049(10)
O8 O2- 0.0120(11) 0.0189(15) 0.0158(13) -0.0026(10) 0.0004(9) -0.0030(10)
O9 O2- 0.0205(12) 0.0101(15) 0.0186(13) 0.0017(9) 0.0065(11) 0.0010(9)
B1 B3+ 0.0114(16) 0.012(2) 0.0101(18) 0.0010(13) 0.0019(14) 0.0007(13)
B2 B3+ 0.0136(17) 0.011(2) 0.0133(19) 0.0000(13) 0.0056(14) -0.0016(13)
B3 B3+ 0.0088(15) 0.013(2) 0.0098(17) 0.0009(13) 0.0023(13) 0.0005(13)
#End of TTdata_425558-ICSD