
#(C) 2018 by FIZ Karlsruhe - Leibniz Institute for Information Infrastructure.  All rights reserved.
data_425557-ICSD
_database_code_ICSD 425557
_audit_creation_date 2014-02-01
_chemical_name_systematic 'Lithium europium borate (6/0.966/3)'
_chemical_formula_structural 'Li6 Eu0.966 (B O3)3'
_chemical_formula_sum 'B3 Eu0.966 Li6 O9'
_chemical_name_structure_type Li6HoB3O9
_exptl_crystal_density_diffrn 3.14
_cell_measurement_temperature 293.
_publ_section_title

;
Growth and spectroscopic properties of (6)Li- and (10)B-enriched crystals for
heat-scintillation cryogenic bolometers used in the rare events searches
;
loop_
_citation_id
_citation_journal_full
_citation_year
_citation_journal_volume
_citation_page_first
_citation_page_last
_citation_journal_id_ASTM
primary CrystEngComm 2013 15 3785 3792 CRECF4
loop_
_publ_author_name
'Rekia Belhoucif'
'Matias Velazquez'
'Yannick Petit'
'Olivier Perez'
'BenoÅ’t Glorieux'
'Oudomsack Viraphong'
'Pierre de Marcillac'
'Noâ€°l Coron'
'Lidia Torres'
'Emmanuel Veron'
'AbdelHamid Kellou'
'Philippe Veber'
'Rodolphe Decourt'
'Hassan El Hafid'
_cell_length_a 7.23180(10)
_cell_length_b 16.5220(3)
_cell_length_c 6.70330(10)
_cell_angle_alpha 90
_cell_angle_beta 105.3970(6)
_cell_angle_gamma 90
_cell_volume 772.19
_cell_formula_units_Z 4
_symmetry_space_group_name_H-M 'P 1 21/c 1'
_symmetry_Int_Tables_number 14
_refine_ls_R_factor_all 0.0195
loop_
_symmetry_equiv_pos_site_id
_symmetry_equiv_pos_as_xyz
1 'x, -y+1/2, z+1/2'
2 '-x, -y, -z'
3 '-x, y+1/2, -z+1/2'
4 'x, y, z'
loop_
_atom_type_symbol
_atom_type_oxidation_number
Eu3+ 3
O2- -2
B3+ 3
Li1+ 1
loop_
_atom_site_label
_atom_site_type_symbol
_atom_site_symmetry_multiplicity
_atom_site_Wyckoff_symbol
_atom_site_fract_x
_atom_site_fract_y
_atom_site_fract_z
_atom_site_B_iso_or_equiv
_atom_site_occupancy
_atom_site_attached_hydrogens
Eu1 Eu3+ 4 e 0.579949(11) 0.310210(4) 0.153573(11) 0.00568(2) 0.9657(19) 0
O1 O2- 4 e 0.77845(17) 0.43227(7) 0.2311(2) 0.0108(3) 1 0
O2 O2- 4 e 0.92477(19) 0.30383(6) 0.2770(2) 0.0115(3) 1 0
O3 O2- 4 e 0.23667(19) 0.29940(6) 0.0524(2) 0.0107(3) 1 0
O4 O2- 4 e 0.37667(18) 0.42725(7) 0.0415(2) 0.0137(3) 1 0
O5 O2- 4 e 0.6527(2) 0.31650(6) -0.1665(2) 0.0101(3) 1 0
O6 O2- 4 e 0.5035(2) 0.32595(7) 0.4751(2) 0.0109(3) 1 0
O7 O2- 4 e 0.03573(19) 0.41251(7) -0.0883(2) 0.0132(3) 1 0
O8 O2- 4 e 1.10594(18) 0.42287(7) 0.4236(2) 0.0129(3) 1 0
O9 O2- 4 e 0.58400(18) 0.44703(7) -0.32537(20) 0.0123(3) 1 0
B1 B3+ 4 e 0.9410(3) 0.38634(10) 0.3133(3) 0.0090(4) 1 0
B2 B3+ 4 e 0.2120(3) 0.38077(10) -0.0020(3) 0.0087(4) 1 0
B3 B3+ 4 e 0.5827(3) 0.36525(10) -0.3388(3) 0.0081(4) 1 0
Li1 Li1+ 4 e 0.0448(5) 0.4699(2) -0.3297(6) 0.0173(6) 1 0
Li2 Li1+ 4 e -0.1930(6) 0.4640(2) -0.0570(6) 0.0206(7) 1 0
Li3 Li1+ 4 e 0.9419(6) 0.2048(2) 0.4505(6) 0.0180(6) 1 0
Li4 Li1+ 4 e 1.3597(6) 0.4498(2) 0.4156(6) 0.0192(7) 1 0
Li5 Li1+ 4 e 0.5724(5) 0.5035(2) 0.1770(5) 0.0159(7) 1 0
Li6 Li1+ 4 e 0.2138(6) 0.2048(2) -0.1304(6) 0.0187(7) 1 0
loop_
_atom_site_aniso_label
_atom_site_aniso_type_symbol
_atom_site_aniso_U_11
_atom_site_aniso_U_22
_atom_site_aniso_U_33
_atom_site_aniso_U_12
_atom_site_aniso_U_13
_atom_site_aniso_U_23
Eu1 Eu3+ 0.00585(4) 0.00574(4) 0.00544(4) 0.00007(2) 0.00149(3) 0.00018(2)
O1 O2- 0.0085(5) 0.0090(4) 0.0138(5) 0.0005(4) 0.0013(4) 0.0005(4)
O2 O2- 0.0095(6) 0.0083(4) 0.0158(6) 0.0007(3) 0.0015(4) 0.0006(4)
O3 O2- 0.0091(5) 0.0079(4) 0.0142(5) 0.0001(4) 0.0015(4) 0.0002(4)
O4 O2- 0.0089(5) 0.0096(4) 0.0208(6) -0.0021(4) 0.0008(5) 0.0023(4)
O5 O2- 0.0133(6) 0.0092(4) 0.0073(5) 0.0014(4) 0.0021(4) 0.0007(3)
O6 O2- 0.0143(6) 0.0115(4) 0.0072(5) -0.0008(4) 0.0031(4) -0.0012(4)
O7 O2- 0.0086(5) 0.0154(5) 0.0154(6) 0.0030(4) 0.0030(5) 0.0048(4)
O8 O2- 0.0094(5) 0.0142(4) 0.0139(6) -0.0017(4) 0.0012(4) -0.0019(4)
O9 O2- 0.0157(6) 0.0069(4) 0.0143(6) 0.0012(4) 0.0039(5) 0.0000(4)
B1 B3+ 0.0084(7) 0.0090(6) 0.0097(7) 0.0002(5) 0.0023(6) 0.0001(5)
B2 B3+ 0.0083(7) 0.0083(5) 0.0097(7) 0.0008(5) 0.0027(6) -0.0003(5)
B3 B3+ 0.0085(7) 0.0081(5) 0.0079(7) 0.0002(5) 0.0025(6) 0.0006(5)
#End of TTdata_425557-ICSD