
#(C) 2018 by FIZ Karlsruhe - Leibniz Institute for Information Infrastructure.  All rights reserved.
data_425761-ICSD
_database_code_ICSD 425761
_audit_creation_date 2014-02-01
_chemical_name_systematic 'Dilithium iron tin tetrasulfide'
_chemical_formula_structural 'Li2 Fe (Sn S4)'
_chemical_formula_sum 'Fe1 Li2 S4 Sn1'
_exptl_crystal_density_diffrn 3.08
_cell_measurement_temperature 110.
_publ_section_title

;
The impact of three new quaternary sulfides on the current predictive tools
for structure and composition of diamond-like materials
;
loop_
_citation_id
_citation_journal_full
_citation_year
_citation_journal_volume
_citation_page_first
_citation_page_last
_citation_journal_id_ASTM
primary 'Journal of Alloys and Compounds' 2013 574 495 503 JALCEU
loop_
_publ_author_name
'Brunetta, Carl D.'
'Brant, Jacilynn A.'
'Rosmus, Kimberly A.'
'Henline, Kylie M.'
'Karey, Emma'
'MacNeil, Joseph H.'
'Aitken, Jennifer A.'
_cell_length_a 6.3727(3)
_cell_length_b 6.7776(3)
_cell_length_c 7.9113(4)
_cell_angle_alpha 90.
_cell_angle_beta 90.207(3)
_cell_angle_gamma 90.
_cell_volume 341.7
_cell_formula_units_Z 2
_symmetry_space_group_name_H-M 'P 1 n 1'
_symmetry_Int_Tables_number 7
_refine_ls_R_factor_all 0.0254
loop_
_symmetry_equiv_pos_site_id
_symmetry_equiv_pos_as_xyz
1 'x+1/2, -y, z+1/2'
2 'x, y, z'
loop_
_atom_type_symbol
_atom_type_oxidation_number
Li1+ 1
Fe2+ 2
Sn4+ 4
S2- -2
loop_
_atom_site_label
_atom_site_type_symbol
_atom_site_symmetry_multiplicity
_atom_site_Wyckoff_symbol
_atom_site_fract_x
_atom_site_fract_y
_atom_site_fract_z
_atom_site_B_iso_or_equiv
_atom_site_occupancy
_atom_site_attached_hydrogens
Li1 Li1+ 2 a 0.612(6) 0.6601(12) 0.925(4) 0.004(3) 1 0
Li2 Li1+ 2 a 0.120(8) 0.840(5) 0.175(6) 0.103(13) 1 0
Fe1 Fe2+ 2 a 0.1129(3) 0.82881(18) 0.6896(2) 0.0067(3) 1 0
Sn1 Sn4+ 2 a 0.61087(10) 0.67379(6) 0.43434(8) 0.00783(10) 1 0
S1 S2- 2 a 0.2346(3) 0.6794(2) 0.44067(19) 0.0090(3) 1 0
S2 S2- 2 a 0.2311(3) 1.1596(2) 0.6863(2) 0.0091(3) 1 0
S3 S2- 2 a 0.2320(3) 0.6606(2) 0.93135(19) 0.0096(3) 1 0
S4 S2- 2 a 0.7413(3) 0.8299(2) 0.68387(19) 0.0093(3) 1 0
loop_
_atom_site_aniso_label
_atom_site_aniso_type_symbol
_atom_site_aniso_U_11
_atom_site_aniso_U_22
_atom_site_aniso_U_33
_atom_site_aniso_U_12
_atom_site_aniso_U_13
_atom_site_aniso_U_23
Fe1 Fe2+ 0.0065(5) 0.0072(5) 0.0064(5) 0.0005(6) -0.0004(3) 0.0002(5)
Sn1 Sn4+ 0.00622(17) 0.00981(16) 0.00746(19) 0.0002(4) -0.00066(13) -0.0003(4)
S1 S2- 0.0067(8) 0.0114(7) 0.0090(7) 0.0007(8) 0.0005(5) -0.0011(7)
S2 S2- 0.0100(8) 0.0096(7) 0.0077(7) 0.0003(7) 0.0002(6) -0.0009(6)
S3 S2- 0.0099(8) 0.0107(7) 0.0081(8) 0.0004(7) 0.0003(6) 0.0000(6)
S4 S2- 0.0079(7) 0.0127(7) 0.0074(7) -0.0007(8) -0.0012(5) -0.0006(7)
#End of TTdata_425761-ICSD