
#(C) 2018 by FIZ Karlsruhe - Leibniz Institute for Information Infrastructure.  All rights reserved.
data_425762-ICSD
_database_code_ICSD 425762
_audit_creation_date 2014-02-01
_chemical_name_systematic 'Dilithium iron germanium tetrasulfide'
_chemical_formula_structural 'Li2 Fe (Ge S4)'
_chemical_formula_sum 'Fe1 Ge1 Li2 S4'
_chemical_name_structure_type Li2BeSiO4
_exptl_crystal_density_diffrn 2.8
_cell_measurement_temperature 296.
_publ_section_title

;
The impact of three new quaternary sulfides on the current predictive tools
for structure and composition of diamond-like materials
;
loop_
_citation_id
_citation_journal_full
_citation_year
_citation_journal_volume
_citation_page_first
_citation_page_last
_citation_journal_id_ASTM
primary 'Journal of Alloys and Compounds' 2013 574 495 503 JALCEU
loop_
_publ_author_name
'Brunetta, Carl D.'
'Brant, Jacilynn A.'
'Rosmus, Kimberly A.'
'Henline, Kylie M.'
'Karey, Emma'
'MacNeil, Joseph H.'
'Aitken, Jennifer A.'
_cell_length_a 6.2286(2)
_cell_length_b 6.6029(2)
_cell_length_c 7.7938(2)
_cell_angle_alpha 90.
_cell_angle_beta 90.047(2)
_cell_angle_gamma 90.
_cell_volume 320.53
_cell_formula_units_Z 2
_symmetry_space_group_name_H-M 'P 1 n 1'
_symmetry_Int_Tables_number 7
_refine_ls_R_factor_all 0.0287
loop_
_symmetry_equiv_pos_site_id
_symmetry_equiv_pos_as_xyz
1 'x+1/2, -y, z+1/2'
2 'x, y, z'
loop_
_atom_type_symbol
_atom_type_oxidation_number
Ge4+ 4
Fe2+ 2
S2- -2
Li1+ 1
loop_
_atom_site_label
_atom_site_type_symbol
_atom_site_symmetry_multiplicity
_atom_site_Wyckoff_symbol
_atom_site_fract_x
_atom_site_fract_y
_atom_site_fract_z
_atom_site_B_iso_or_equiv
_atom_site_occupancy
_atom_site_attached_hydrogens
Ge1 Ge4+ 2 a 0.48608(12) 0.17805(8) 0.11482(10) 0.00638(19) 1 0
Fe1 Fe2+ 2 a 0.48498(19) 0.67713(12) 0.36046(14) 0.0108(4) 1 0
S1 S2- 2 a 0.8708(3) 0.1427(2) 0.6198(2) 0.0113(3) 1 0
S2 S2- 2 a 0.8442(2) 0.1840(2) 0.1073(2) 0.0127(3) 1 0
S3 S2- 2 a 0.8604(3) 0.6804(2) 0.37542(18) 0.0090(3) 1 0
S4 S2- 2 a 0.3733(3) 0.3396(2) 0.35176(19) 0.0095(4) 1 0
Li1 Li1+ 2 a 0.980(4) 0.340(2) 0.381(3) 0.020(5) 1 0
Li2 Li1+ 2 a 0.488(4) 0.1592(14) 0.606(3) 0.008(3) 1 0
loop_
_atom_site_aniso_label
_atom_site_aniso_type_symbol
_atom_site_aniso_U_11
_atom_site_aniso_U_22
_atom_site_aniso_U_33
_atom_site_aniso_U_12
_atom_site_aniso_U_13
_atom_site_aniso_U_23
Ge1 Ge4+ 0.0049(3) 0.0078(3) 0.0065(3) 0.0002(3) 0.00077(19) 0.0003(3)
Fe1 Fe2+ 0.0108(6) 0.0106(6) 0.0110(6) 0.0010(4) 0.0007(4) 0.0010(4)
S1 S2- 0.0109(8) 0.0138(6) 0.0091(7) 0.0001(6) -0.0023(6) 0.0053(6)
S2 S2- 0.0095(8) 0.0175(8) 0.0111(8) -0.0020(7) -0.0050(6) 0.0033(6)
S3 S2- 0.0097(8) 0.0048(7) 0.0124(8) -0.0020(6) 0.0038(6) -0.0054(6)
S4 S2- 0.0054(7) 0.0131(7) 0.0099(8) -0.0025(6) 0.0044(6) 0.0016(5)
#End of TTdata_425762-ICSD