
#(C) 2018 by FIZ Karlsruhe - Leibniz Institute for Information Infrastructure.  All rights reserved.
data_425764-ICSD
_database_code_ICSD 425764
_audit_creation_date 2014-08-01
_chemical_name_systematic 'Tetralithium manganese heptathiodistannate'
_chemical_formula_structural 'Li4 Mn Sn2 Se7'
_chemical_formula_sum 'Li4 Mn1 Se7 Sn2'
_exptl_crystal_density_diffrn 4.13
_cell_measurement_temperature 100.
_publ_section_title

;
Quaternary diamond-like chalcogenidometalate networks as efficient anode
material in lithium-ion batteries
;
loop_
_citation_id
_citation_journal_full
_citation_year
_citation_journal_volume
_citation_page_first
_citation_page_last
_citation_journal_id_ASTM
primary 'Advanced Functional Materials' 2013 23 5693 5699 AFMDC6
loop_
_publ_author_name
'Thomas Kaib'
'Sima Haddadpour'
'Hanne Flaeten Andersen'
'Leonhard Mayrhofer'
'Tommi T. Jaervi'
'Michael Moseler'
'Kai-Christian Moeller'
'Stefanie Dehnen'
_cell_length_a 18.126(4)
_cell_length_b 7.2209(14)
_cell_length_c 10.740(2)
_cell_angle_alpha 90.
_cell_angle_beta 93.43(3)
_cell_angle_gamma 90.
_cell_volume 1403.19
_cell_formula_units_Z 4
_symmetry_space_group_name_H-M 'C 1 c 1'
_symmetry_Int_Tables_number 9
_refine_ls_R_factor_all 0.0466
loop_
_symmetry_equiv_pos_site_id
_symmetry_equiv_pos_as_xyz
1 'x, -y, z+1/2'
2 'x, y, z'
3 'x+1/2, -y+1/2, z+1/2'
4 'x+1/2, y+1/2, z'
loop_
_atom_type_symbol
_atom_type_oxidation_number
Se2- -2
Li1+ 1
Sn4+ 4
Mn2+ 2
Sn4+ 4
Se2- -2
Li1+ 1
Se2- -2
Li1+ 1
loop_
_atom_site_label
_atom_site_type_symbol
_atom_site_symmetry_multiplicity
_atom_site_Wyckoff_symbol
_atom_site_fract_x
_atom_site_fract_y
_atom_site_fract_z
_atom_site_B_iso_or_equiv
_atom_site_occupancy
_atom_site_attached_hydrogens
Se1 Se2- 4 a 0.02986(7) 0.33875(15) 0.86601(11) 0.0128(3) 1 0
Li1 Li1+ 4 a -0.146(2) -0.327(3) 1.087(4) 0.036(8) 1 0
Sn1 Sn4+ 4 a 0.14036(7) 0.32839(9) 1.02976(11) 0.0115(2) 1 0
Mn1 Mn2+ 4 a -0.2168(2) 0.1470(3) 1.2420(3) 0.0165(4) 1 0
Sn2 Sn4+ 4 a -0.07581(7) 0.15622(11) 0.96178(11) 0.0126(2) 1 0
Se2 Se2- 4 a -0.11329(7) 0.33771(14) 1.14798(12) 0.0138(3) 1 0
Li2 Li1+ 4 a 0.065(2) -0.140(4) 1.165(4) 0.049(11) 1 0
Li3 Li1+ 4 a -0.0038(19) 0.688(4) 0.803(4) 0.040(11) 1 0
Se3 Se2- 4 a -0.17785(7) 0.18452(13) 0.79267(11) 0.0136(3) 1 0
Se4 Se2- 4 a 0.10638(8) 0.16328(14) 1.21985(12) 0.0144(3) 1 0
Se5 Se2- 4 a 0.24453(7) 0.16682(14) 0.93116(12) 0.0137(3) 1 0
Se6 Se2- 4 a 0.17362(7) 0.65751(17) 1.07982(11) 0.0139(3) 1 0
Se7 Se2- 4 a -0.03695(8) -0.1666(2) 1.00164(12) 0.0145(3) 1 0
Li4 Li1+ 4 a 0.213(3) 0.831(6) 0.884(6) 0.076(19) 1 0
loop_
_atom_site_aniso_label
_atom_site_aniso_type_symbol
_atom_site_aniso_U_11
_atom_site_aniso_U_22
_atom_site_aniso_U_33
_atom_site_aniso_U_12
_atom_site_aniso_U_13
_atom_site_aniso_U_23
Se1 Se2- 0.0086(5) 0.0216(5) 0.0079(5) -0.0012(3) -0.0025(4) 0.0012(3)
Sn1 Sn4+ 0.0078(3) 0.0185(3) 0.0079(3) -0.0004(2) -0.0020(2) 0.0003(2)
Mn1 Mn2+ 0.0130(6) 0.0237(8) 0.0126(6) 0.0005(7) -0.0006(5) 0.0005(7)
Sn2 Sn4+ 0.0089(3) 0.0200(3) 0.0086(3) 0.0001(3) -0.0018(2) -0.0004(2)
Se2 Se2- 0.0112(6) 0.0210(5) 0.0089(5) -0.0002(3) -0.0012(4) -0.0004(3)
Se3 Se2- 0.0098(5) 0.0219(5) 0.0087(4) 0.0000(5) -0.0032(4) -0.0006(5)
Se4 Se2- 0.0121(5) 0.0221(5) 0.0087(5) -0.0014(3) -0.0023(4) 0.0011(3)
Se5 Se2- 0.0102(5) 0.0203(5) 0.0103(5) 0.0004(3) -0.0014(4) -0.0005(3)
Se6 Se2- 0.0105(5) 0.0204(6) 0.0104(5) 0.0002(4) -0.0028(4) -0.0006(4)
Se7 Se2- 0.0123(5) 0.0205(5) 0.0104(5) 0.0006(3) -0.0020(4) 0.0000(3)
#End of TTdata_425764-ICSD