
#(C) 2018 by FIZ Karlsruhe - Leibniz Institute for Information Infrastructure.  All rights reserved.
data_426103-ICSD
_database_code_ICSD 426103
_audit_creation_date 2015-02-01
_chemical_name_systematic
'Nonalithium trimagnesium tetrakis(orthophosphate) trifluoride'
_chemical_formula_structural 'Li9 Mg3 (P O4)4 F3'
_chemical_formula_sum 'F3 Li9 Mg3 O16 P4'
_chemical_name_structure_type Cancrinite-frame
_exptl_crystal_density_diffrn 2.75
_cell_measurement_temperature 293.
_publ_section_title

;
Crystal structures of the new fluorophosphates Li9 Mg3 [P O4]4 F3 and Li2 Mg
[P O4] F and ionic conductivities of selected compositions
;
loop_
_citation_id
_citation_journal_full
_citation_year
_citation_journal_volume
_citation_page_first
_citation_page_last
_citation_journal_id_ASTM
primary
'Journal of Materials Chemistry A: Materials for Energy and Sustainability' 2014 2 5858 5869 JMCAET
loop_
_publ_author_name
'Yahia, Hamdi Ben'
'Shikano, Masahiro'
'Takeuchi, Tomonari'
'Kobayashi, Hironori'
'Itoh, Mitsuru'
_cell_length_a 12.6159(6)
_cell_length_b 12.6159(6)
_cell_length_c 5.0082(4)
_cell_angle_alpha 90
_cell_angle_beta 90
_cell_angle_gamma 120
_cell_volume 690.31
_cell_formula_units_Z 2
_symmetry_space_group_name_H-M 'P 63'
_symmetry_Int_Tables_number 173
_refine_ls_R_factor_all 0.022
loop_
_symmetry_equiv_pos_site_id
_symmetry_equiv_pos_as_xyz
1 'x-y, x, z+1/2'
2 'y, -x+y, z+1/2'
3 '-x, -y, z+1/2'
4 '-x+y, -x, z'
5 '-y, x-y, z'
6 'x, y, z'
loop_
_atom_type_symbol
_atom_type_oxidation_number
Li1+ 1
Mg2+ 2
P5+ 5
O2- -2
F1- -1
loop_
_atom_site_label
_atom_site_type_symbol
_atom_site_symmetry_multiplicity
_atom_site_Wyckoff_symbol
_atom_site_fract_x
_atom_site_fract_y
_atom_site_fract_z
_atom_site_B_iso_or_equiv
_atom_site_occupancy
_atom_site_attached_hydrogens
Li1 Li1+ 6 c 0.0835(5) 0.9160(5) 0.3461(12) 0.020(2) 1 0
Li2 Li1+ 6 c 0.5706(6) 0.1748(5) 0.2996(12) 0.027(2) 1 0
Li3 Li1+ 6 c 0.4209(4) 0.0862(3) 0.7711(18) 0.0049(14) 1 0
Mg1 Mg2+ 6 c 0.35849(8) 0.93255(8) 0.2687(4) 0.0091(3) 1 0
P1 P5+ 6 c 0.31899(5) 0.16576(5) 0.254236 0.0077(2) 1 0
P2 P5+ 2 b 0.666667 0.333333 0.7954(2) 0.0077(3) 1 0
O1 O2- 6 c 0.59815(19) 0.39568(20) 0.6860(4) 0.0105(7) 1 0
O2 O2- 6 c 0.17791(13) 0.08608(18) 0.2531(5) 0.0129(7) 1 0
O3 O2- 6 c 0.37792(19) 0.09711(17) 0.3819(4) 0.0121(8) 1 0
O4 O2- 6 c 0.3581(2) 0.28440(17) 0.4062(4) 0.0127(8) 1 0
O5 O2- 6 c 0.36001(17) 0.19409(16) 0.9581(4) 0.0116(7) 1 0
O6 O2- 2 b 0.666667 0.333333 0.1022(7) 0.0133(8) 1 0
F1 F1- 6 c 0.52264(13) 0.03892(12) 0.0741(3) 0.0128(6) 1 0
loop_
_atom_site_aniso_label
_atom_site_aniso_type_symbol
_atom_site_aniso_U_11
_atom_site_aniso_U_22
_atom_site_aniso_U_33
_atom_site_aniso_U_12
_atom_site_aniso_U_13
_atom_site_aniso_U_23
Li1 Li1+ 0.013(3) 0.021(3) 0.021(3) 0.0043(17) 0.002(2) 0.007(2)
Li2 Li1+ 0.035(3) 0.021(2) 0.017(3) 0.008(3) 0.003(3) -0.0047(19)
Li3 Li1+ 0.0028(17) 0.003(2) 0.0064(17) -0.0010(13) 0.0020(18) 0.002(2)
Mg1 Mg2+ 0.0090(3) 0.0082(4) 0.0102(4) 0.0044(3) -0.0001(5) 0.0000(4)
P1 P5+ 0.0085(3) 0.0067(3) 0.0086(3) 0.00422(20) 0.0001(3) 0.0003(4)
P2 P5+ 0.0073(3) 0.0073(3) 0.0085(6) 0.00366(15) 0 0
O1 O2- 0.0110(10) 0.0104(9) 0.0120(8) 0.0069(6) 0.0006(8) 0.0015(8)
O2 O2- 0.0093(8) 0.0130(9) 0.0165(9) 0.0055(9) 0.0009(7) -0.0008(12)
O3 O2- 0.0161(10) 0.0106(9) 0.0116(9) 0.0082(8) -0.0010(7) -0.0014(7)
O4 O2- 0.0172(10) 0.0098(9) 0.0111(11) 0.0068(8) -0.0035(8) -0.0032(7)
O5 O2- 0.0138(8) 0.0109(8) 0.0103(8) 0.0063(7) 0.0020(7) 0.0009(9)
O6 O2- 0.0141(9) 0.0141(9) 0.0117(14) 0.0070(5) 0 0
F1 F1- 0.0115(8) 0.0111(6) 0.0132(6) 0.0036(6) 0.0029(7) 0.0007(5)
#End of TTdata_426103-ICSD