
#(C) 2018 by FIZ Karlsruhe - Leibniz Institute for Information Infrastructure.  All rights reserved.
data_426110-ICSD
_database_code_ICSD 426110
_audit_creation_date 2015-02-01
_chemical_name_systematic 'Lithium barium nonaborate'
_chemical_formula_structural 'Li Ba (B9 O15)'
_chemical_formula_sum 'B9 Ba1 Li1 O15'
_exptl_crystal_density_diffrn 2.71
_cell_measurement_temperature 293.
_publ_section_title

;
Three new mixed-alkali- and alkaline-earth-metal borates: From 1D chain to 2D
layer to 3D framework
;
loop_
_citation_id
_citation_journal_full
_citation_year
_citation_journal_volume
_citation_page_first
_citation_page_last
_citation_journal_id_ASTM
primary 'Inorganic Chemistry' 2013 52 10566 10570 INOCAJ
loop_
_publ_author_name
'Wu, Han-Qing'
'Ju, Ping'
'He, Huan'
'Yang, Bai-Feng'
'Yang, Guo-Yu'
_cell_length_a 10.9642(3)
_cell_length_b 10.9642(3)
_cell_length_c 17.0330(7)
_cell_angle_alpha 90.
_cell_angle_beta 90.
_cell_angle_gamma 120.
_cell_volume 1773.27
_cell_formula_units_Z 6
_symmetry_space_group_name_H-M 'R -3 c H'
_symmetry_Int_Tables_number 167
_refine_ls_R_factor_all 0.0145
loop_
_symmetry_equiv_pos_site_id
_symmetry_equiv_pos_as_xyz
1 'x-y, -y, -z+1/2'
2 '-x, -x+y, -z+1/2'
3 'y, x, -z+1/2'
4 'x-y, x, -z'
5 'y, -x+y, -z'
6 '-x, -y, -z'
7 '-x+y, y, z+1/2'
8 'x, x-y, z+1/2'
9 '-y, -x, z+1/2'
10 '-x+y, -x, z'
11 '-y, x-y, z'
12 'x, y, z'
13 'x-y+2/3, -y+1/3, -z+5/6'
14 '-x+2/3, -x+y+1/3, -z+5/6'
15 'y+2/3, x+1/3, -z+5/6'
16 'x-y+2/3, x+1/3, -z+1/3'
17 'y+2/3, -x+y+1/3, -z+1/3'
18 '-x+2/3, -y+1/3, -z+1/3'
19 '-x+y+2/3, y+1/3, z+5/6'
20 'x+2/3, x-y+1/3, z+5/6'
21 '-y+2/3, -x+1/3, z+5/6'
22 '-x+y+2/3, -x+1/3, z+1/3'
23 '-y+2/3, x-y+1/3, z+1/3'
24 'x+2/3, y+1/3, z+1/3'
25 'x-y+1/3, -y+2/3, -z+1/6'
26 '-x+1/3, -x+y+2/3, -z+1/6'
27 'y+1/3, x+2/3, -z+1/6'
28 'x-y+1/3, x+2/3, -z+2/3'
29 'y+1/3, -x+y+2/3, -z+2/3'
30 '-x+1/3, -y+2/3, -z+2/3'
31 '-x+y+1/3, y+2/3, z+1/6'
32 'x+1/3, x-y+2/3, z+1/6'
33 '-y+1/3, -x+2/3, z+1/6'
34 '-x+y+1/3, -x+2/3, z+2/3'
35 '-y+1/3, x-y+2/3, z+2/3'
36 'x+1/3, y+2/3, z+2/3'
loop_
_atom_type_symbol
_atom_type_oxidation_number
Ba2+ 2
O2- -2
B3+ 3
Li1+ 1
loop_
_atom_site_label
_atom_site_type_symbol
_atom_site_symmetry_multiplicity
_atom_site_Wyckoff_symbol
_atom_site_fract_x
_atom_site_fract_y
_atom_site_fract_z
_atom_site_B_iso_or_equiv
_atom_site_occupancy
_atom_site_attached_hydrogens
Ba1 Ba2+ 6 b 0. 0. 0. 0.01323(11) 1 0
O1 O2- 36 f 0.25279(15) 0.98400(14) 0.97251(8) 0.0126(3) 1 0
O2 O2- 36 f 0.22663(15) 1.11525(14) 0.87335(8) 0.0109(3) 1 0
O3 O2- 18 e 0.3333 0.83828(18) 0.9167 0.0141(4) 1 0
B1 B3+ 18 e 0.3333 1.0973(3) 0.9167 0.0107(6) 1 0
B2 B3+ 36 f 0.2687(2) 0.8700(2) 0.97797(13) 0.0099(5) 1 0
Li1 Li1+ 6 a 0.3333 0.6667 0.9167 0.062(5) 1 0
loop_
_atom_site_aniso_label
_atom_site_aniso_type_symbol
_atom_site_aniso_U_11
_atom_site_aniso_U_22
_atom_site_aniso_U_33
_atom_site_aniso_U_12
_atom_site_aniso_U_13
_atom_site_aniso_U_23
Ba1 Ba2+ 0.00950(12) 0.00950(12) 0.02070(18) 0.00475(6) 0. 0.
O1 O2- 0.0174(8) 0.0126(8) 0.0112(6) 0.0100(6) 0.0076(6) 0.0054(6)
O2 O2- 0.0102(7) 0.0110(7) 0.0097(6) 0.0039(6) 0.0007(5) 0.0037(6)
O3 O2- 0.0225(12) 0.0114(7) 0.0120(9) 0.0113(6) 0.0079(9) 0.0040(4)
B1 B3+ 0.0150(17) 0.0107(11) 0.0077(14) 0.0075(8) 0.0037(13) 0.0018(6)
B2 B3+ 0.0091(11) 0.0096(11) 0.0095(10) 0.0035(9) 0.0001(9) 0.0001(9)
Li1 Li1+ 0.014(3) 0.014(3) 0.158(16) 0.0069(17) 0. 0.
#End of TTdata_426110-ICSD