
#(C) 2018 by FIZ Karlsruhe - Leibniz Institute for Information Infrastructure.  All rights reserved.
data_426134-ICSD
_database_code_ICSD 426134
_audit_creation_date 2014-08-01
_chemical_name_systematic 'Lithium barium-1.5 octaoxopentaborate trihydroxide'
_chemical_formula_structural 'Li Ba1.50 (B5 O8 (O H)3)'
_chemical_formula_sum 'H3 B5 Ba1.5 Li1 O11'
_exptl_crystal_density_diffrn 3.52
_cell_measurement_temperature 293.
_publ_section_title

;
Li Ba1.5 [B5 O8 (OH)3]: A new 1-D metal borate chain constructed from
B5O9(OH)36- cluster units
;
loop_
_citation_id
_citation_journal_full
_citation_year
_citation_journal_volume
_citation_page_first
_citation_page_last
_citation_journal_id_ASTM
primary 'Inorganic Chemistry Communications' 2014 39 10 13 ICCOFP
loop_
_publ_author_name
'Wu, Han-Qing'
'Yang, Bai-Fei'
'He, Huan'
'Yang, Guo-Yu.'
_cell_length_a 11.2839(7)
_cell_length_b 7.3974(4)
_cell_length_c 20.7151(13)
_cell_angle_alpha 90.
_cell_angle_beta 103.392(6)
_cell_angle_gamma 90.
_cell_volume 1682.1
_cell_formula_units_Z 8
_symmetry_space_group_name_H-M 'C 1 2/c 1'
_symmetry_Int_Tables_number 15
_refine_ls_R_factor_all 0.0303
loop_
_symmetry_equiv_pos_site_id
_symmetry_equiv_pos_as_xyz
1 'x, -y, z+1/2'
2 '-x, -y, -z'
3 '-x, y, -z+1/2'
4 'x, y, z'
5 'x+1/2, -y+1/2, z+1/2'
6 '-x+1/2, -y+1/2, -z'
7 '-x+1/2, y+1/2, -z+1/2'
8 'x+1/2, y+1/2, z'
loop_
_atom_type_symbol
_atom_type_oxidation_number
Ba2+ 2
Li1+ 1
B3+ 3
O2- -2
H1+ 1
O2- -2
H1+ 1
O2- -2
H1+ 1
O2- -2
loop_
_atom_site_label
_atom_site_type_symbol
_atom_site_symmetry_multiplicity
_atom_site_Wyckoff_symbol
_atom_site_fract_x
_atom_site_fract_y
_atom_site_fract_z
_atom_site_B_iso_or_equiv
_atom_site_occupancy
_atom_site_attached_hydrogens
Ba1 Ba2+ 8 f 0.10768(3) 0.97433(4) 0.097064(16) 0.01080(11) 1 0
Ba2 Ba2+ 4 e 0.5 0.24453(6) 0.25 0.01329(13) 1 0
Li1 Li1+ 8 f 0.2692(9) 0.5435(15) 0.0383(5) 0.020(2) 1 0
B1 B3+ 8 f 0.1000(5) 0.4886(8) 0.1316(3) 0.0074(11) 1 0
B2 B3+ 8 f 0.2094(5) 0.3925(8) 0.2473(3) 0.0083(12) 1 0
B3 B3+ 8 f -0.1066(5) 0.6478(8) 0.0893(3) 0.0088(12) 1 0
B4 B3+ 8 f -0.0692(5) 0.3360(8) 0.0500(3) 0.0085(12) 1 0
B5 B3+ 8 f 0.3129(5) 0.6044(8) 0.1841(3) 0.0066(11) 1 0
O1 O2- 8 f 0.0209(3) 0.6446(5) 0.12537(17) 0.0068(7) 1 0
O2 O2- 8 f 0.2243(3) 0.5339(5) 0.12630(18) 0.0074(7) 1 0
O3 O2- 8 f -0.1472(3) 0.4791(5) 0.05412(19) 0.0096(8) 1 0
O4 O2- 8 f 0.3109(3) 0.4912(5) 0.24370(19) 0.0100(8) 1 0
O5 O2- 8 f 0.0541(3) 0.3515(5) 0.08154(19) 0.0109(8) 1 0
O6 O2- 8 f -0.1264(3) 0.7999(5) 0.04113(19) 0.0113(8) 1 0
H1 H1+ 8 f -0.126(5) 0.740(7) 0.0045(19) 0.014 1 0
O7 O2- 8 f -0.1843(3) 0.6854(5) 0.13700(18) 0.0097(7) 1 0
H2 H1+ 8 f -0.213(5) 0.799(4) 0.129(3) 0.012 1 0
O8 O2- 8 f 0.2234(3) 0.2897(5) 0.30352(19) 0.0130(8) 1 0
O9 O2- 8 f 0.4341(3) 0.5909(5) 0.17152(19) 0.0108(8) 1 0
H3 H1+ 8 f 0.468(5) 0.696(4) 0.184(3) 0.013 1 0
O10 O2- 8 f -0.1081(3) 0.1884(5) 0.01479(19) 0.0138(8) 1 0
O11 O2- 8 f 0.1044(3) 0.4024(5) 0.19925(19) 0.0119(8) 1 0
loop_
_atom_site_aniso_label
_atom_site_aniso_type_symbol
_atom_site_aniso_U_11
_atom_site_aniso_U_22
_atom_site_aniso_U_33
_atom_site_aniso_U_12
_atom_site_aniso_U_13
_atom_site_aniso_U_23
Ba1 Ba2+ 0.01045(17) 0.00853(17) 0.01303(18) -0.00174(12) 0.00191(12)
-0.00042(13)
Ba2 Ba2+ 0.0133(2) 0.0149(2) 0.0111(2) 0. 0.00154(17) 0.
Li1 Li1+ 0.015(5) 0.029(6) 0.018(5) -0.005(4) 0.004(4) -0.008(5)
B1 B3+ 0.011(3) 0.002(3) 0.008(3) 0.001(2) 0.000(2) 0.000(2)
B2 B3+ 0.007(3) 0.010(3) 0.010(3) -0.001(2) 0.004(2) 0.000(2)
B3 B3+ 0.007(3) 0.007(3) 0.012(3) -0.001(2) 0.001(2) 0.001(2)
B4 B3+ 0.008(3) 0.009(3) 0.008(3) -0.002(2) 0.001(2) 0.000(2)
B5 B3+ 0.009(3) 0.003(3) 0.007(3) 0.000(2) 0.001(2) 0.001(2)
O1 O2- 0.0058(17) 0.0054(17) 0.0079(18) 0.0010(13) -0.0011(14) -0.0009(14)
O2 O2- 0.0052(17) 0.0085(18) 0.0082(19) -0.0008(13) 0.0008(13) -0.0005(15)
O3 O2- 0.0063(17) 0.0076(18) 0.013(2) -0.0012(14) -0.0014(14) -0.0026(15)
O4 O2- 0.0108(18) 0.0088(19) 0.0093(19) -0.0021(14) -0.0001(14) 0.0016(15)
O5 O2- 0.0095(18) 0.0086(19) 0.014(2) 0.0016(14) 0.0009(15) -0.0051(16)
O6 O2- 0.0140(19) 0.0071(18) 0.0124(19) 0.0003(15) 0.0024(15) -0.0002(16)
O7 O2- 0.0077(17) 0.0080(18) 0.0127(19) 0.0009(14) 0.0008(14) 0.0018(16)
O8 O2- 0.0170(19) 0.0098(19) 0.0103(19) -0.0030(15) -0.0008(15) 0.0023(16)
O9 O2- 0.0070(18) 0.0132(19) 0.013(2) -0.0027(14) 0.0036(15) -0.0043(16)
O10 O2- 0.017(2) 0.0133(19) 0.010(2) -0.0032(16) 0.0012(15) -0.0040(17)
O11 O2- 0.0081(18) 0.015(2) 0.012(2) -0.0015(14) 0.0007(15) 0.0071(16)
#End of TTdata_426134-ICSD