
#(C) 2018 by FIZ Karlsruhe - Leibniz Institute for Information Infrastructure.  All rights reserved.
data_426274-ICSD
_database_code_ICSD 426274
_audit_creation_date 2014-02-01
_chemical_name_systematic 'Lithium dibarium tetracyanamidoaluminate'
_chemical_formula_structural 'Li Ba2 (Al (C N2)4)'
_chemical_formula_sum 'C4 Al1 Ba2 Li1 N8'
_exptl_crystal_density_diffrn 3.24
_cell_measurement_temperature 293.
_publ_section_title
'The New Homoleptic Tetracyanamidoaluminate Li Ba2 (Al (C N2)4)'
loop_
_citation_id
_citation_journal_full
_citation_year
_citation_journal_volume
_citation_page_first
_citation_page_last
_citation_journal_id_ASTM
primary 'Zeitschrift fuer Anorganische und Allgemeine Chemie (1950) (DE)' 2013
639 1722 1725 ZAACAB
loop_
_publ_author_name
'Unverfehrt, Leonid'
'Stroebele, Markus'
'Meyer, H.-Juergen'
_cell_length_a 6.8427(10)
_cell_length_b 11.8283(18)
_cell_length_c 11.857(2)
_cell_angle_alpha 90.
_cell_angle_beta 90.
_cell_angle_gamma 90.
_cell_volume 959.68
_cell_formula_units_Z 4
_symmetry_space_group_name_H-M 'P 21 21 21'
_symmetry_Int_Tables_number 19
_refine_ls_R_factor_all 0.0202
loop_
_symmetry_equiv_pos_site_id
_symmetry_equiv_pos_as_xyz
1 '-x, y+1/2, -z+1/2'
2 'x+1/2, -y+1/2, -z'
3 '-x+1/2, -y, z+1/2'
4 'x, y, z'
loop_
_atom_type_symbol
_atom_type_oxidation_number
Ba2+ 2
Al3+ 3
N3- -3
C4+ 4
Li1+ 1
loop_
_atom_site_label
_atom_site_type_symbol
_atom_site_symmetry_multiplicity
_atom_site_Wyckoff_symbol
_atom_site_fract_x
_atom_site_fract_y
_atom_site_fract_z
_atom_site_B_iso_or_equiv
_atom_site_occupancy
_atom_site_attached_hydrogens
Ba1 Ba2+ 4 a 0.28598(6) 0.12116(6) 0.59331(3) 0.01302(11) 1 0
Ba2 Ba2+ 4 a 0.29503(6) 0.62145(6) 0.41319(3) 0.01358(11) 1 0
Al1 Al3+ 4 a 0.0265(3) 0.1217(3) 0.33272(16) 0.0133(4) 1 0
N1 N3- 4 a 0.1432(10) 0.2463(7) 0.3965(5) 0.0155(15) 1 0
N2 N3- 4 a -0.2407(10) 0.1438(6) 0.3329(5) 0.0155(14) 1 0
N3 N3- 4 a 0.0715(9) -0.0030(6) 0.4257(6) 0.0136(15) 1 0
N4 N3- 4 a 0.1070(10) 0.0995(6) 0.1851(5) 0.0158(15) 1 0
N5 N3- 4 a 0.3287(11) 0.2383(7) 0.0979(5) 0.0167(15) 1 0
N6 N3- 4 a -0.4437(11) 0.0119(6) 0.4411(6) 0.0172(15) 1 0
N7 N3- 4 a 0.2413(12) -0.1594(5) 0.3303(5) 0.0153(14) 1 0
N8 N3- 4 a 0.3779(10) 0.3928(7) 0.3367(5) 0.0205(15) 1 0
C1 C4+ 4 a 0.2192(14) 0.1717(7) 0.1413(6) 0.0153(18) 1 0
C2 C4+ 4 a 0.1605(13) -0.0835(8) 0.3766(6) 0.017(2) 1 0
C3 C4+ 4 a -0.3435(12) 0.0768(7) 0.3889(6) 0.0092(16) 1 0
C4 C4+ 4 a 0.2663(14) 0.3195(8) 0.3651(6) 0.0159(18) 1 0
Li1 Li1+ 4 a 0.532(2) -0.124(2) 0.3299(10) 0.017(3) 1 0
loop_
_atom_site_aniso_label
_atom_site_aniso_type_symbol
_atom_site_aniso_U_11
_atom_site_aniso_U_22
_atom_site_aniso_U_33
_atom_site_aniso_U_12
_atom_site_aniso_U_13
_atom_site_aniso_U_23
Ba1 Ba2+ 0.0135(2) 0.0113(3) 0.01423(18) -0.0003(2) -0.00039(15) -0.0005(2)
Ba2 Ba2+ 0.0144(2) 0.0112(2) 0.01505(18) -0.0001(3) -0.00050(15) 0.0003(2)
Al1 Al3+ 0.0146(9) 0.0119(8) 0.0134(8) -0.0002(8) 0.0007(6) 0.0000(8)
N1 N3- 0.010(3) 0.020(4) 0.016(3) -0.004(3) -0.002(2) 0.002(3)
N2 N3- 0.013(3) 0.016(3) 0.017(2) -0.003(3) 0.003(3) 0.001(2)
N3 N3- 0.011(3) 0.013(3) 0.017(3) 0.003(3) 0.005(2) -0.001(2)
N4 N3- 0.018(3) 0.012(4) 0.018(3) 0.002(3) -0.001(2) -0.001(2)
N5 N3- 0.018(3) 0.016(3) 0.016(3) -0.002(3) 0.002(3) 0.000(2)
N6 N3- 0.017(3) 0.019(4) 0.016(3) 0.004(3) -0.001(3) 0.002(2)
N7 N3- 0.022(3) 0.010(3) 0.015(3) 0.003(3) -0.001(3) -0.006(2)
N8 N3- 0.022(3) 0.015(4) 0.025(3) -0.007(3) 0.003(2) -0.006(3)
C1 C4+ 0.021(5) 0.014(4) 0.011(3) 0.006(4) -0.007(3) -0.007(3)
C2 C4+ 0.014(4) 0.026(6) 0.010(3) -0.009(4) -0.001(3) 0.008(3)
C3 C4+ 0.009(4) 0.005(4) 0.014(3) 0.001(3) -0.002(3) -0.001(3)
C4 C4+ 0.015(4) 0.020(4) 0.013(3) 0.006(4) -0.004(3) -0.007(3)
#End of TTdata_426274-ICSD