
#(C) 2017 by FIZ Karlsruhe - Leibniz Institute for Information Infrastructure.  All rights reserved.
data_426217-ICSD
_database_code_ICSD 426217
_audit_creation_date 2014-08-01
_chemical_name_systematic 'Lithium cerium(IV) fluoride'
_chemical_formula_structural 'Li Ce F5'
_chemical_formula_sum 'Ce1 F5 Li1'
_exptl_crystal_density_diffrn 4.58
_cell_measurement_temperature 293.
_cell_measurement_pressure 100.
_publ_section_title

;
Crystal structures and stability of Li Ce F5 and Li Th F5 at high pressures: A
comparative study of the coordination around the Ce(4+) and Th(4+) ions
;
loop_
_citation_id
_citation_journal_full
_citation_year
_citation_journal_volume
_citation_page_first
_citation_page_last
_citation_journal_id_ASTM
primary 'Journal of Fluorine Chemistry' 2013 156 124 129 JFLCAR
loop_
_publ_author_name
'Grzechnik, Andrzej'
'Underwood, Christopher C.'
'Kolis, Joseph W.'
'Friese, Karen'
_cell_length_a 14.6842(5)
_cell_length_b 14.6842(5)
_cell_length_c 6.5069(3)
_cell_angle_alpha 90.
_cell_angle_beta 90.
_cell_angle_gamma 90.
_cell_volume 1403.05
_cell_formula_units_Z 16
_symmetry_space_group_name_H-M 'I 41/a S'
_symmetry_Int_Tables_number 88
_refine_ls_R_factor_all 0.0136
loop_
_symmetry_equiv_pos_site_id
_symmetry_equiv_pos_as_xyz
1 'y, -x+1/2, z+1/4'
2 '-y, x+1/2, z+1/4'
3 'y, -x, -z'
4 '-y, x, -z'
5 '-x, -y+1/2, -z+1/4'
6 'x, y+1/2, -z+1/4'
7 '-x, -y, z'
8 'x, y, z'
9 'y+1/2, -x, z+3/4'
10 '-y+1/2, x, z+3/4'
11 'y+1/2, -x+1/2, -z+1/2'
12 '-y+1/2, x+1/2, -z+1/2'
13 '-x+1/2, -y, -z+3/4'
14 'x+1/2, y, -z+3/4'
15 '-x+1/2, -y+1/2, z+1/2'
16 'x+1/2, y+1/2, z+1/2'
loop_
_atom_type_symbol
_atom_type_oxidation_number
Ce4+ 4
F1- -1
Li1+ 1
loop_
_atom_site_label
_atom_site_type_symbol
_atom_site_symmetry_multiplicity
_atom_site_Wyckoff_symbol
_atom_site_fract_x
_atom_site_fract_y
_atom_site_fract_z
_atom_site_B_iso_or_equiv
_atom_site_occupancy
_atom_site_attached_hydrogens
Ce1 Ce4+ 16 f 0.193804(8) 0.062853(9) 0.11796(2) 0.00862(4) 1 0
F1 F1- 16 f 0.28775(11) 0.07661(13) 0.3724(3) 0.0200(4) 1 0
F2 F1- 16 f 0.29389(11) 0.15770(11) -0.0205(3) 0.0165(4) 1 0
F3 F1- 16 f 0.08488(11) 0.04829(11) 0.3544(3) 0.0143(4) 1 0
F4 F1- 16 f 0.30198(11) -0.03516(11) 0.0032(3) 0.0137(4) 1 0
F5 F1- 16 f 0.06713(11) 0.11042(11) -0.0520(3) 0.0144(4) 1 0
Li1 Li1+ 16 f 0.4151(4) -0.0704(5) 0.1079(9) 0.0285(17) 1 0
loop_
_atom_site_aniso_label
_atom_site_aniso_type_symbol
_atom_site_aniso_U_11
_atom_site_aniso_U_22
_atom_site_aniso_U_33
_atom_site_aniso_U_12
_atom_site_aniso_U_13
_atom_site_aniso_U_23
Ce1 Ce4+ 0.00753(7) 0.00943(7) 0.00891(7) 0.00011(4) 0.00071(5) -0.00120(5)
F1 F1- 0.0170(7) 0.0262(8) 0.0169(8) -0.0001(6) -0.0045(7) -0.0034(7)
F2 F1- 0.0141(7) 0.0136(7) 0.0219(9) -0.0005(6) 0.0051(6) 0.0013(6)
F3 F1- 0.0170(7) 0.0148(7) 0.0112(8) 0.0001(5) 0.0032(6) 0.0004(6)
F4 F1- 0.0133(7) 0.0150(7) 0.0127(7) 0.0032(5) -0.0004(6) -0.0007(6)
F5 F1- 0.0133(7) 0.0164(7) 0.0136(7) 0.0036(6) -0.0014(6) 0.0007(6)
Li1 Li1+ 0.019(2) 0.048(3) 0.018(3) 0.013(2) -0.001(2) -0.008(3)
#End of TTdata_426217-ICSD