
#(C) 2017 by FIZ Karlsruhe - Leibniz Institute for Information Infrastructure.  All rights reserved.
data_426221-ICSD
_database_code_ICSD 426221
_audit_creation_date 2014-08-01
_chemical_name_systematic 'Lithium thorium(IV) fluoride'
_chemical_formula_structural 'Li Th F5'
_chemical_formula_sum 'F5 Li1 Th1'
_exptl_crystal_density_diffrn 5.86
_cell_measurement_temperature 293.
_cell_measurement_pressure 100.
_publ_section_title

;
Crystal structures and stability of Li Ce F5 and Li Th F5 at high pressures: A
comparative study of the coordination around the Ce(4+) and Th(4+) ions
;
loop_
_citation_id
_citation_journal_full
_citation_year
_citation_journal_volume
_citation_page_first
_citation_page_last
_citation_journal_id_ASTM
primary 'Journal of Fluorine Chemistry' 2013 156 124 129 JFLCAR
loop_
_publ_author_name
'Grzechnik, Andrzej'
'Underwood, Christopher C.'
'Kolis, Joseph W.'
'Friese, Karen'
_cell_length_a 15.1132(11)
_cell_length_b 15.1132(11)
_cell_length_c 6.6313(6)
_cell_angle_alpha 90.
_cell_angle_beta 90.
_cell_angle_gamma 90.
_cell_volume 1514.64
_cell_formula_units_Z 16
_symmetry_space_group_name_H-M 'I 41/a S'
_symmetry_Int_Tables_number 88
_refine_ls_R_factor_all 0.0269
loop_
_symmetry_equiv_pos_site_id
_symmetry_equiv_pos_as_xyz
1 'y, -x+1/2, z+1/4'
2 '-y, x+1/2, z+1/4'
3 'y, -x, -z'
4 '-y, x, -z'
5 '-x, -y+1/2, -z+1/4'
6 'x, y+1/2, -z+1/4'
7 '-x, -y, z'
8 'x, y, z'
9 'y+1/2, -x, z+3/4'
10 '-y+1/2, x, z+3/4'
11 'y+1/2, -x+1/2, -z+1/2'
12 '-y+1/2, x+1/2, -z+1/2'
13 '-x+1/2, -y, -z+3/4'
14 'x+1/2, y, -z+3/4'
15 '-x+1/2, -y+1/2, z+1/2'
16 'x+1/2, y+1/2, z+1/2'
loop_
_atom_type_symbol
_atom_type_oxidation_number
Th4+ 4
F1- -1
Li1+ 1
loop_
_atom_site_label
_atom_site_type_symbol
_atom_site_symmetry_multiplicity
_atom_site_Wyckoff_symbol
_atom_site_fract_x
_atom_site_fract_y
_atom_site_fract_z
_atom_site_B_iso_or_equiv
_atom_site_occupancy
_atom_site_attached_hydrogens
Th1 Th4+ 16 f 0.193618(17) 0.060352(19) 0.12377(5) 0.01676(8) 1 0
F1 F1- 16 f 0.2929(4) 0.0711(4) 0.3869(10) 0.0283(15) 1 0
F2 F1- 16 f 0.2978(4) 0.1574(4) -0.0096(9) 0.0275(16) 1 0
F3 F1- 16 f 0.0795(4) 0.0477(3) 0.3573(9) 0.0232(14) 1 0
F4 F1- 16 f 0.3040(4) -0.0369(4) -0.0015(9) 0.0230(14) 1 0
F5 F1- 16 f 0.0660(3) 0.1070(3) -0.0478(8) 0.0217(14) 1 0
Li1 Li1+ 16 f 0.4201(11) -0.0594(13) 0.100(3) 0.032(5) 1 0
loop_
_atom_site_aniso_label
_atom_site_aniso_type_symbol
_atom_site_aniso_U_11
_atom_site_aniso_U_22
_atom_site_aniso_U_33
_atom_site_aniso_U_12
_atom_site_aniso_U_13
_atom_site_aniso_U_23
Th1 Th4+ 0.01722(14) 0.01834(14) 0.01472(13) 0.00032(8) 0.00029(12) -0.00030(12)
F1 F1- 0.029(2) 0.028(2) 0.029(3) -0.0011(19) -0.005(3) 0.003(3)
F2 F1- 0.027(3) 0.026(3) 0.029(3) -0.002(2) 0.003(2) -0.001(2)
F3 F1- 0.023(2) 0.027(2) 0.020(3) -0.0018(18) 0.002(2) -0.002(2)
F4 F1- 0.024(3) 0.026(3) 0.019(2) 0.003(2) -0.003(2) -0.0011(19)
F5 F1- 0.022(2) 0.023(2) 0.021(2) 0.0028(19) -0.0008(19) -0.0001(19)
Li1 Li1+ 0.015(6) 0.048(10) 0.033(10) 0.014(6) 0.006(7) -0.004(8)
#End of TTdata_426221-ICSD