
#(C) 2018 by FIZ Karlsruhe - Leibniz Institute for Information Infrastructure.  All rights reserved.
data_426577-ICSD
_database_code_ICSD 426577
_audit_creation_date 2014-08-01
_chemical_name_systematic 'Lithium distrontium tetracyanamidogallate'
_chemical_formula_structural 'Li Sr2 (Ga (C N2)4)'
_chemical_formula_sum 'C4 Ga1 Li1 N8 Sr2'
_exptl_crystal_density_diffrn 3.
_cell_measurement_temperature 293.
_publ_section_title
'Synthesis and characterization of the first tetracyanamidogallate'
loop_
_citation_id
_citation_journal_full
_citation_year
_citation_journal_volume
_citation_page_first
_citation_page_last
_citation_journal_id_ASTM
primary 'European Journal of Inorganic Chemistry' 2013 2013 6091 6096 EJICFO
loop_
_publ_author_name
'Kalmutzki, Markus'
'Stroebele, Markus'
'Kroeker, Scott'
'Wren, John E.C.'
'Meyer, H.Juergen'
_cell_length_a 7.2718(19)
_cell_length_b 19.857(4)
_cell_length_c 7.2633(19)
_cell_angle_alpha 90.
_cell_angle_beta 119.51(3)
_cell_angle_gamma 90.
_cell_volume 912.73
_cell_formula_units_Z 4
_symmetry_space_group_name_H-M 'C 1 2/c 1'
_symmetry_Int_Tables_number 15
_refine_ls_R_factor_all 0.0259
loop_
_symmetry_equiv_pos_site_id
_symmetry_equiv_pos_as_xyz
1 'x, -y, z+1/2'
2 '-x, -y, -z'
3 '-x, y, -z+1/2'
4 'x, y, z'
5 'x+1/2, -y+1/2, z+1/2'
6 '-x+1/2, -y+1/2, -z'
7 '-x+1/2, y+1/2, -z+1/2'
8 'x+1/2, y+1/2, z'
loop_
_atom_type_symbol
_atom_type_oxidation_number
Sr2+ 2
N3- -3
C4+ 4
N3- -3
C4+ 4
N3- -3
Ga3+ 3
Li1+ 1
Ga3+ 3
Li1+ 1
loop_
_atom_site_label
_atom_site_type_symbol
_atom_site_symmetry_multiplicity
_atom_site_Wyckoff_symbol
_atom_site_fract_x
_atom_site_fract_y
_atom_site_fract_z
_atom_site_B_iso_or_equiv
_atom_site_occupancy
_atom_site_attached_hydrogens
Sr1 Sr2+ 4 e 0. 0.37353(2) 0.75 0.02531(18) 1 0
Sr2 Sr2+ 4 e -0.5 0.37431(2) 0.25 0.02493(18) 1 0
N1 N3- 8 f 0.1264(4) 0.31323(13) 1.1226(4) 0.0289(6) 1 0
C1 C4+ 8 f 0.1265(4) 0.25072(15) 1.1238(4) 0.0225(6) 1 0
N2 N3- 8 f 0.3673(4) 0.30955(14) 0.8818(4) 0.0295(6) 1 0
N3 N3- 8 f -0.7499(4) 0.46253(14) -0.0010(4) 0.0361(6) 1 0
C2 C4+ 8 f -0.7602(4) 0.52177(17) -0.0123(4) 0.0305(7) 1 0
N4 N3- 8 f -0.7666(5) 0.41465(16) 0.4817(5) 0.0444(7) 1 0
Ga1 Ga3+ 4 e -0.5 0.36845(12) 0.75 0.0209(10) 0.161(3) 0
Li1 Li1+ 4 e -0.5 0.36845(12) 0.75 0.0209(10) 0.84 0
Ga2 Ga3+ 4 e 0. 0.36785(3) 0.25 0.0198(2) 0.823(3) 0
Li2 Li1+ 4 e 0. 0.36785(3) 0.25 0.0198(2) 0.18 0
loop_
_atom_site_aniso_label
_atom_site_aniso_type_symbol
_atom_site_aniso_U_11
_atom_site_aniso_U_22
_atom_site_aniso_U_33
_atom_site_aniso_U_12
_atom_site_aniso_U_13
_atom_site_aniso_U_23
Sr1 Sr2+ 0.0235(3) 0.0192(3) 0.0252(3) 0. 0.0059(2) 0.
Sr2 Sr2+ 0.0231(3) 0.0190(3) 0.0250(3) 0. 0.0058(2) 0.
N1 N3- 0.0351(14) 0.0235(14) 0.0349(15) 0.0004(10) 0.0224(13) 0.0017(11)
C1 C4+ 0.0184(13) 0.0301(17) 0.0196(14) 0.0003(11) 0.0098(12) 0.0002(12)
N2 N3- 0.0334(14) 0.0250(14) 0.0350(15) 0.0018(11) 0.0206(12) 0.0008(11)
N3 N3- 0.0355(14) 0.0211(15) 0.0377(15) 0.0017(11) 0.0071(12) -0.0001(11)
C2 C4+ 0.0306(16) 0.0252(18) 0.0293(16) -0.0017(13) 0.0098(14) -0.0003(13)
N4 N3- 0.0478(18) 0.0203(14) 0.0488(19) -0.0012(12) 0.0112(16) -0.0004(13)
Ga1 Ga3+ 0.0213(14) 0.0167(13) 0.0216(14) 0. 0.0082(11) 0.
Li1 Li1+ 0.0213(14) 0.0167(13) 0.0216(14) 0. 0.0082(11) 0.
Ga2 Ga3+ 0.0208(4) 0.0165(3) 0.0226(4) 0. 0.0112(3) 0.
Li2 Li1+ 0.0208(4) 0.0165(3) 0.0226(4) 0. 0.0112(3) 0.
#End of TTdata_426577-ICSD