
#(C) 2018 by FIZ Karlsruhe - Leibniz Institute for Information Infrastructure.  All rights reserved.
data_426849-ICSD
_database_code_ICSD 426849
_audit_creation_date 2016-02-01
_chemical_name_systematic 'Dilithium tin trisulfide'
_chemical_formula_structural 'Li1.5 (Li0.33 Sn0.67)1.5 S3'
_chemical_formula_sum 'Li1.995 S3 Sn1.005'
_chemical_name_structure_type Delafossite-NaCrS2
_exptl_crystal_density_diffrn 3.54
_cell_measurement_temperature 298.
_publ_section_title

;
A facile wet chemistry approach towards unilamellar tin sulfide nanosheets
from Li4x Sn1-x S2 solid solutions
;
loop_
_citation_id
_citation_journal_full
_citation_year
_citation_journal_volume
_citation_page_first
_citation_page_last
_citation_journal_id_ASTM
primary
'Journal of Materials Chemistry A: Materials for Energy and Sustainability' 2014 2 6100 6106 JMCAET
loop_
_publ_author_name
'Kuhn, Alexander'
'Holzmann, Tanja'
'Nuss, Juergen'
'Lotsch, Bettina V.'
_cell_length_a 3.6868(2)
_cell_length_b 3.6868(2)
_cell_length_c 18.300(2)
_cell_angle_alpha 90.
_cell_angle_beta 90.
_cell_angle_gamma 120.
_cell_volume 215.42
_cell_formula_units_Z 2
_symmetry_space_group_name_H-M 'R -3 m H'
_symmetry_Int_Tables_number 166
_refine_ls_R_factor_all 0.0215
loop_
_symmetry_equiv_pos_site_id
_symmetry_equiv_pos_as_xyz
1 'x-y, -y, -z'
2 '-x, -x+y, -z'
3 'y, x, -z'
4 'x-y, x, -z'
5 'y, -x+y, -z'
6 '-x, -y, -z'
7 '-x+y, y, z'
8 'x, x-y, z'
9 '-y, -x, z'
10 '-x+y, -x, z'
11 '-y, x-y, z'
12 'x, y, z'
13 'x-y+2/3, -y+1/3, -z+1/3'
14 '-x+2/3, -x+y+1/3, -z+1/3'
15 'y+2/3, x+1/3, -z+1/3'
16 'x-y+2/3, x+1/3, -z+1/3'
17 'y+2/3, -x+y+1/3, -z+1/3'
18 '-x+2/3, -y+1/3, -z+1/3'
19 '-x+y+2/3, y+1/3, z+1/3'
20 'x+2/3, x-y+1/3, z+1/3'
21 '-y+2/3, -x+1/3, z+1/3'
22 '-x+y+2/3, -x+1/3, z+1/3'
23 '-y+2/3, x-y+1/3, z+1/3'
24 'x+2/3, y+1/3, z+1/3'
25 'x-y+1/3, -y+2/3, -z+2/3'
26 '-x+1/3, -x+y+2/3, -z+2/3'
27 'y+1/3, x+2/3, -z+2/3'
28 'x-y+1/3, x+2/3, -z+2/3'
29 'y+1/3, -x+y+2/3, -z+2/3'
30 '-x+1/3, -y+2/3, -z+2/3'
31 '-x+y+1/3, y+2/3, z+2/3'
32 'x+1/3, x-y+2/3, z+2/3'
33 '-y+1/3, -x+2/3, z+2/3'
34 '-x+y+1/3, -x+2/3, z+2/3'
35 '-y+1/3, x-y+2/3, z+2/3'
36 'x+1/3, y+2/3, z+2/3'
loop_
_atom_type_symbol
_atom_type_oxidation_number
S2- -2
Sn4+ 4
Li1+ 1
loop_
_atom_site_label
_atom_site_type_symbol
_atom_site_symmetry_multiplicity
_atom_site_Wyckoff_symbol
_atom_site_fract_x
_atom_site_fract_y
_atom_site_fract_z
_atom_site_B_iso_or_equiv
_atom_site_occupancy
_atom_site_attached_hydrogens
S1 S2- 6 c 0. 0. 0.24654(6) 0.0094(3) 1 0
Sn1 Sn4+ 3 b 0. 0. 0.5 0.00512(19) 0.6666 0
Li1 Li1+ 3 b 0. 0. 0.5 0.00512(19) 0.3334 0
Li2 Li1+ 3 a 0. 0. 0. 0.014(2) 1 0
loop_
_atom_site_aniso_label
_atom_site_aniso_type_symbol
_atom_site_aniso_U_11
_atom_site_aniso_U_22
_atom_site_aniso_U_33
_atom_site_aniso_U_12
_atom_site_aniso_U_13
_atom_site_aniso_U_23
S1 S2- 0.0108(4) 0.0108(4) 0.0067(4) 0.00540(18) 0. 0.
Sn1 Sn4+ 0.0046(2) 0.0046(2) 0.0062(3) 0.00229(11) 0. 0.
Li1 Li1+ 0.0046(2) 0.0046(2) 0.0062(3) 0.00229(11) 0. 0.
Li2 Li1+ 0.014(4) 0.014(4) 0.015(5) 0.0069(18) 0. 0.
#End of TTdata_426849-ICSD