
#(C) 2018 by FIZ Karlsruhe - Leibniz Institute for Information Infrastructure.  All rights reserved.
data_427067-ICSD
_database_code_ICSD 427067
_audit_creation_date 2016-02-01
_chemical_name_systematic 'Strontium tetranitrido-lithiotrialuminate'
_chemical_formula_structural 'Sr (Li Al3 N4)'
_chemical_formula_sum 'Al3 Li1 N4 Sr1'
_exptl_crystal_density_diffrn 3.66
_cell_measurement_temperature 297.
_publ_section_title

;
Narrow-band red-emitting Sr (Li Al3 N4) : Eu(2+) as a next-generation
LED-phosphor material
;
loop_
_citation_id
_citation_journal_full
_citation_year
_citation_journal_volume
_citation_page_first
_citation_page_last
_citation_journal_id_ASTM
primary 'Nature Materials' 2014 13 891 896 NMAACR
loop_
_publ_author_name
'Pust, Philipp'
'Weiler, Volker'
'Hecht, Cora'
'Tuecks, Andreas'
'Wochnik, Angela S.'
'Henss, Ann-Kathrin'
'Wiechert, Detlef'
'Scheu, Christina'
'Schmidt, Peter J.'
'Schnick, Wolfgang'
_cell_length_a 5.86631(12)
_cell_length_b 7.51099(15)
_cell_length_c 9.96545(17)
_cell_angle_alpha 83.6028(12)
_cell_angle_beta 76.7720(13)
_cell_angle_gamma 79.5650(14)
_cell_volume 419.24
_cell_formula_units_Z 4
_symmetry_space_group_name_H-M 'P -1'
_symmetry_Int_Tables_number 2
_refine_ls_R_factor_all 0.0359
loop_
_symmetry_equiv_pos_site_id
_symmetry_equiv_pos_as_xyz
1 '-x, -y, -z'
2 'x, y, z'
loop_
_atom_type_symbol
_atom_type_oxidation_number
Sr2+ 2
Al3+ 3
N3- -3
Li1+ 1
loop_
_atom_site_label
_atom_site_type_symbol
_atom_site_symmetry_multiplicity
_atom_site_Wyckoff_symbol
_atom_site_fract_x
_atom_site_fract_y
_atom_site_fract_z
_atom_site_B_iso_or_equiv
_atom_site_occupancy
_atom_site_attached_hydrogens
Sr1 Sr2+ 2 i 0.0030(3) 0.1339(3) 0.1271(2) 0.0111(4) 1. 0
Sr2 Sr2+ 2 i 0.0220(2) 0.3824(3) 0.37203(19) 0.0052(4) 1. 0
Al1 Al3+ 2 i 0.5493(8) 0.9556(7) 0.1241(5) 0.0041(4) 1. 0
Al2 Al3+ 2 i 0.1798(8) 0.9432(7) 0.3966(5) 0.0041(4) 1. 0
Al3 Al3+ 2 i 0.1670(9) 0.7066(7) 0.1532(5) 0.0041(4) 1. 0
Al4 Al3+ 2 i 0.8247(9) 0.5563(6) 0.1035(5) 0.0041(4) 1. 0
Al5 Al3+ 2 i 0.4711(8) 0.5580(8) 0.3741(6) 0.0041(4) 1. 0
Al6 Al3+ 2 i 0.5645(9) 0.2044(7) 0.3665(6) 0.0041(4) 1. 0
N1 N3- 2 i 0.3483(16) 0.8678(15) 0.0208(12) 0.0063(8) 1. 0
N2 N3- 2 i 0.3721(18) 0.3465(16) 0.5086(12) 0.0063(8) 1. 0
N3 N3- 2 i 0.3786(17) 0.0849(14) 0.2839(12) 0.0063(8) 1. 0
N4 N3- 2 i 0.1479(18) 0.9372(16) 0.5954(12) 0.0063(8) 1. 0
N5 N3- 2 i 0.8402(18) 0.7987(17) 0.1462(11) 0.0063(8) 1. 0
N6 N3- 2 i 0.175(2) 0.4893(15) 0.0808(12) 0.0063(8) 1. 0
N7 N3- 2 i 0.1918(16) 0.7027(16) 0.3404(12) 0.0063(8) 1. 0
N8 N3- 2 i 0.6612(18) 0.4128(16) 0.2324(12) 0.0063(8) 1. 0
Li1 Li1+ 2 i 0.450(5) 0.325(4) 0.116(3) 0.0089 1. 0
Li2 Li1+ 2 i 0.208(5) 0.172(4) 0.636(3) 0.0089 1. 0
#End of TTdata_427067-ICSD