
#(C) 2018 by FIZ Karlsruhe - Leibniz Institute for Information Infrastructure.  All rights reserved.
data_427080-ICSD
_database_code_ICSD 427080
_audit_creation_date 2016-02-01
_chemical_name_systematic 'Lithium tetraamidogallate'
_chemical_formula_structural 'Li (Ga (N H2)4)'
_chemical_formula_sum 'H8 Ga1 Li1 N4'
_exptl_crystal_density_diffrn 1.8
_cell_measurement_temperature 293.
_publ_section_title

;
Novel alkali metal amidogallates as intermediates in ammonothermal Ga N
crystal growth
;
loop_
_citation_id
_citation_journal_full
_citation_year
_citation_journal_volume
_citation_page_first
_citation_page_last
_citation_journal_id_ASTM
primary 'Journal of Crystal Growth' 2014 403 22 28 JCRGAE
loop_
_publ_author_name
'Zhang, Shiyu'
'Alt, Nicolas S.A.'
'Schluecker, Eberhard'
'Niewa, Rainer'
_cell_length_a 6.0046(12)
_cell_length_b 7.3944(15)
_cell_length_c 6.0046(12)
_cell_angle_alpha 90.
_cell_angle_beta 103.51(3)
_cell_angle_gamma 90.
_cell_volume 259.22
_cell_formula_units_Z 2
_symmetry_space_group_name_H-M 'P 1 21 1'
_symmetry_Int_Tables_number 4
_refine_ls_R_factor_all 0.0265
loop_
_symmetry_equiv_pos_site_id
_symmetry_equiv_pos_as_xyz
1 '-x, y+1/2, -z'
2 'x, y, z'
loop_
_atom_type_symbol
_atom_type_oxidation_number
Ga3+ 3
N3- -3
H1+ 1
N3- -3
H1+ 1
N3- -3
H1+ 1
N3- -3
H1+ 1
Li1+ 1
loop_
_atom_site_label
_atom_site_type_symbol
_atom_site_symmetry_multiplicity
_atom_site_Wyckoff_symbol
_atom_site_fract_x
_atom_site_fract_y
_atom_site_fract_z
_atom_site_B_iso_or_equiv
_atom_site_occupancy
_atom_site_attached_hydrogens
Ga1 Ga3+ 2 a 0.35520(7) 0.6759(13) 0.13928(6) 0.03111(17) 1 0
N1 N3- 2 a 0.2761(9) 0.667(3) 0.8119(8) 0.0371(12) 1 0
H1 H1+ 2 a 0.126(11) 0.636(9) 0.741(11) 0.056 1 0
H2 H1+ 2 a 0.316(12) 0.766(10) 0.802(13) 0.056 1 0
N2 N3- 2 a 0.6825(6) 0.675(4) 0.2410(8) 0.0434(9) 1 0
H3 H1+ 2 a 0.745(11) 0.645(12) 0.382(13) 0.065 1 0
H4 H1+ 2 a 0.754(11) 0.709(12) 0.138(12) 0.065 1 0
N3 N3- 2 a 0.255(3) 0.4655(9) 0.279(3) 0.045(3) 1 0
H5 H1+ 2 a 0.107(14) 0.480(11) 0.314(14) 0.068 1 0
H6 H1+ 2 a 0.250(15) 0.386(9) 0.192(12) 0.068 1 0
N4 N3- 2 a 0.246(3) 0.8851(8) 0.263(3) 0.049(4) 1 0
H7 H1+ 2 a 0.1849 0.8642 0.3835 0.073 1 0
H8 H1+ 2 a 0.157 0.9576 0.1587 0.073 1 0
Li1 Li1+ 2 a 0.3850(17) 0.4614(19) 0.6462(15) 0.046(2) 1 0
loop_
_atom_site_aniso_label
_atom_site_aniso_type_symbol
_atom_site_aniso_U_11
_atom_site_aniso_U_22
_atom_site_aniso_U_33
_atom_site_aniso_U_12
_atom_site_aniso_U_13
_atom_site_aniso_U_23
Ga1 Ga3+ 0.0360(3) 0.0319(2) 0.0252(2) 0.0000(13) 0.00658(16) 0.0004(13)
N1 N3- 0.054(2) 0.027(3) 0.0283(17) 0.004(6) 0.0066(16) -0.001(5)
N2 N3- 0.0332(19) 0.061(2) 0.036(2) 0.011(9) 0.0075(17) 0.002(10)
N3 N3- 0.039(6) 0.047(7) 0.051(7) 0.000(5) 0.012(5) 0.023(5)
N4 N3- 0.058(7) 0.039(6) 0.042(7) 0.017(6) -0.001(5) -0.004(5)
Li1 Li1+ 0.050(6) 0.050(6) 0.035(5) 0.004(4) 0.006(4) 0.009(4)
#End of TTdata_427080-ICSD