
#(C) 2018 by FIZ Karlsruhe - Leibniz Institute for Information Infrastructure.  All rights reserved.
data_427426-ICSD
_database_code_ICSD 427426
_audit_creation_date 2015-08-01
_chemical_name_systematic 'Trilithium undecaborate'
_chemical_formula_structural 'Li3 B11 O18'
_chemical_formula_sum 'B11 Li3 O18'
_exptl_crystal_density_diffrn 2.17
_cell_measurement_temperature 293.
_publ_section_title

;
Crystal structures of Li6 B4 O9 and Li3 B11 O18 and application of the
dimensional reduction formalism to lithium borates
;
loop_
_citation_id
_citation_journal_full
_citation_year
_citation_journal_volume
_citation_page_first
_citation_page_last
_citation_journal_id_ASTM
primary 'Inorganic Chemistry' 2014 53 6034 6041 INOCAJ
loop_
_publ_author_name
'Rousse, Gwenaelle'
'Baptiste, Benoit'
'Lelong, Gerald'
_cell_length_a 17.7607(8)
_cell_length_b 7.7737(4)
_cell_length_c 9.6731(4)
_cell_angle_alpha 90.
_cell_angle_beta 100.906(4)
_cell_angle_gamma 90.
_cell_volume 1311.4
_cell_formula_units_Z 4
_symmetry_space_group_name_H-M 'P 1 21/c 1'
_symmetry_Int_Tables_number 14
_refine_ls_R_factor_all 0.0415
loop_
_symmetry_equiv_pos_site_id
_symmetry_equiv_pos_as_xyz
1 'x, -y+1/2, z+1/2'
2 '-x, -y, -z'
3 '-x, y+1/2, -z+1/2'
4 'x, y, z'
loop_
_atom_type_symbol
_atom_type_oxidation_number
B3+ 3
Li1+ 1
O2- -2
loop_
_atom_site_label
_atom_site_type_symbol
_atom_site_symmetry_multiplicity
_atom_site_Wyckoff_symbol
_atom_site_fract_x
_atom_site_fract_y
_atom_site_fract_z
_atom_site_B_iso_or_equiv
_atom_site_occupancy
_atom_site_attached_hydrogens
B1 B3+ 4 e 0.99262(14) 0.1311(3) 0.7475(2) 0.0193(5) 1 0
B2 B3+ 4 e 0.90442(14) 0.0826(3) 0.9031(2) 0.0200(5) 1 0
B3 B3+ 4 e 0.80635(14) -0.1164(4) 0.5094(2) 0.0196(5) 1 0
B4 B3+ 4 e 0.71251(14) 0.1042(4) 0.4901(2) 0.0203(5) 1 0
B5 B3+ 4 e 0.62469(14) 0.1588(3) 0.6541(2) 0.0204(5) 1 0
B6 B3+ 4 e 0.51359(14) 0.2110(3) 0.7522(2) 0.0194(5) 1 0
B7 B3+ 4 e 0.30702(14) 0.4397(3) 0.4649(2) 0.0202(5) 1 0
B8 B3+ 4 e 0.18284(14) 0.5674(4) 0.4268(2) 0.0212(5) 1 0
B9 B3+ 4 e 0.91217(14) -0.1262(3) 0.7192(2) 0.0183(5) 1 0
B10 B3+ 4 e 0.41305(14) 0.4413(3) 0.6860(2) 0.0193(5) 1 0
B11 B3+ 4 e 0.24175(14) 0.5110(4) 0.2216(2) 0.0221(6) 1 0
Li1 Li1+ 4 e 0.9555(3) -0.3191(7) 0.9896(4) 0.0454(13) 1 0
Li2 Li1+ 4 e 0.7536(2) -0.0802(8) 0.7787(4) 0.0412(12) 1 0
Li3 Li1+ 4 e 0.5789(2) 0.5605(7) 0.6342(4) 0.0397(11) 1 0
O1 O2- 4 e 0.95725(8) -0.2636(2) 0.79919(14) 0.0201(3) 1 0
O2 O2- 4 e 0.96318(8) -0.0025(2) 0.66487(14) 0.0225(4) 1 0
O3 O2- 4 e 0.86946(8) -0.0410(2) 0.81382(13) 0.0198(3) 1 0
O4 O2- 4 e 0.97108(8) 0.1597(2) 0.87764(14) 0.0231(4) 1 0
O5 O2- 4 e 0.86515(8) -0.2004(2) 0.59372(14) 0.0209(3) 1 0
O6 O2- 4 e 0.75531(8) -0.0221(2) 0.57200(14) 0.0250(4) 1 0
O7 O2- 4 e 0.66179(9) 0.2016(2) 0.54717(14) 0.0242(4) 1 0
O8 O2- 4 e 0.64131(8) 0.0143(2) 0.73171(14) 0.0196(3) 1 0
O9 O2- 4 e 0.75720(8) -0.0124(2) 0.98169(13) 0.0209(4) 1 0
O10 O2- 4 e 0.56468(8) 0.2668(2) 0.66943(15) 0.0248(4) 1 0
O11 O2- 4 e 0.52682(8) 0.0641(2) 0.82825(15) 0.0230(4) 1 0
O12 O2- 4 e 0.44730(8) 0.2888(2) 0.75986(15) 0.0241(4) 1 0
O13 O2- 4 e 0.37404(8) 0.3934(2) 0.54498(14) 0.0244(4) 1 0
O14 O2- 4 e 0.30357(9) 0.4305(2) 0.32355(14) 0.0256(4) 1 0
O15 O2- 4 e 0.27754(9) 0.6354(2) 0.14089(14) 0.0249(4) 1 0
O16 O2- 4 e 0.20204(9) 0.3743(2) 0.13015(14) 0.0315(4) 1 0
O17 O2- 4 e 0.18625(8) 0.5960(2) 0.29226(14) 0.0255(4) 1 0
O18 O2- 4 e 0.12043(8) 0.6283(2) 0.47815(14) 0.0238(4) 1 0
loop_
_atom_site_aniso_label
_atom_site_aniso_type_symbol
_atom_site_aniso_U_11
_atom_site_aniso_U_22
_atom_site_aniso_U_33
_atom_site_aniso_U_12
_atom_site_aniso_U_13
_atom_site_aniso_U_23
B1 B3+ 0.0181(12) 0.0241(14) 0.0150(10) 0.0013(11) 0.0013(9) 0.0002(10)
B2 B3+ 0.0195(12) 0.0238(14) 0.0162(10) 0.0003(10) 0.0021(9) -0.0002(10)
B3 B3+ 0.0168(12) 0.0236(14) 0.0176(11) 0.0007(10) 0.0013(9) 0.0014(10)
B4 B3+ 0.0199(13) 0.0229(14) 0.0183(11) 0.0010(11) 0.0040(9) 0.0003(10)
B5 B3+ 0.0194(13) 0.0236(14) 0.0184(11) -0.0030(11) 0.0044(9) -0.0008(10)
B6 B3+ 0.0194(12) 0.0214(14) 0.0169(11) -0.0016(10) 0.0018(9) -0.0003(10)
B7 B3+ 0.0197(12) 0.0226(14) 0.0185(11) -0.0025(11) 0.0038(9) -0.0023(10)
B8 B3+ 0.0182(12) 0.0257(14) 0.0196(11) -0.0032(11) 0.0033(9) -0.0007(10)
B9 B3+ 0.0180(12) 0.0204(13) 0.0155(10) 0.0003(10) 0.0004(9) -0.0017(10)
B10 B3+ 0.0171(12) 0.0219(13) 0.0186(11) 0.0013(10) 0.0027(9) -0.0012(10)
B11 B3+ 0.0229(13) 0.0296(15) 0.0143(10) -0.0065(11) 0.0051(9) -0.0037(10)
Li1 Li1+ 0.056(3) 0.056(3) 0.026(2) -0.016(3) 0.014(2) 0.000(2)
Li2 Li1+ 0.027(2) 0.077(4) 0.0190(18) -0.002(2) 0.0028(16) -0.002(2)
Li3 Li1+ 0.028(2) 0.059(3) 0.034(2) 0.001(2) 0.0133(18) -0.003(2)
O1 O2- 0.0204(8) 0.0244(9) 0.0155(7) 0.0041(7) 0.0030(6) 0.0006(6)
O2 O2- 0.0250(8) 0.0255(9) 0.0178(7) -0.0040(7) 0.0061(6) -0.0014(6)
O3 O2- 0.0190(8) 0.0233(9) 0.0175(7) -0.0014(7) 0.0044(6) -0.0035(6)
O4 O2- 0.0243(8) 0.0295(10) 0.0161(7) -0.0071(7) 0.0059(6) -0.0041(6)
O5 O2- 0.0202(8) 0.0232(9) 0.0172(7) 0.0036(7) -0.0013(6) -0.0036(6)
O6 O2- 0.0235(8) 0.0365(10) 0.0155(7) 0.0099(7) 0.0049(6) 0.0034(7)
O7 O2- 0.0268(8) 0.0261(9) 0.0225(7) 0.0046(7) 0.0121(6) 0.0034(7)
O8 O2- 0.0178(8) 0.0228(9) 0.0182(7) 0.0007(7) 0.0037(6) 0.0020(6)
O9 O2- 0.0188(8) 0.0293(9) 0.0147(7) -0.0014(7) 0.0035(6) -0.0005(6)
O10 O2- 0.0237(8) 0.0277(9) 0.0258(8) 0.0059(7) 0.0117(6) 0.0065(7)
O11 O2- 0.0218(8) 0.0243(9) 0.0249(7) 0.0027(7) 0.0092(6) 0.0036(7)
O12 O2- 0.0206(8) 0.0279(10) 0.0253(8) 0.0043(7) 0.0081(6) 0.0042(7)
O13 O2- 0.0221(8) 0.0305(10) 0.0200(7) 0.0030(7) 0.0023(6) -0.0044(7)
O14 O2- 0.0256(9) 0.0354(10) 0.0162(7) 0.0045(7) 0.0049(6) -0.0025(7)
O15 O2- 0.0305(9) 0.0281(10) 0.0179(7) -0.0083(7) 0.0089(6) -0.0043(7)
O16 O2- 0.0416(10) 0.0386(11) 0.0149(7) -0.0183(9) 0.0070(7) -0.0034(7)
O17 O2- 0.0229(8) 0.0389(10) 0.0148(7) 0.0024(7) 0.0038(6) 0.0023(7)
O18 O2- 0.0239(8) 0.0320(10) 0.0165(7) 0.0062(7) 0.0063(6) 0.0049(7)
#End of TTdata_427426-ICSD