
#(C) 2018 by FIZ Karlsruhe - Leibniz Institute for Information Infrastructure.  All rights reserved.
data_427655-ICSD
_database_code_ICSD 427655
_audit_creation_date 2018-02-01
_chemical_name_systematic 'Lithium yttrium(III) tetramolybdate(VI)'
_chemical_formula_structural 'Li3.50 Y1.50 (Mo O4)4'
_chemical_formula_sum 'Li3.5 Mo4 O16 Y1.5'
_chemical_name_structure_type Li7Ho3(MoO4)8
_exptl_crystal_density_diffrn 4.25
_cell_measurement_temperature 293.
_publ_section_title

;
Solid solution between lithium-rich yttrium and europium molybdate as new
efficient red-emitting phosphors
;
loop_
_citation_id
_citation_journal_full
_citation_year
_citation_journal_volume
_citation_page_first
_citation_page_last
_citation_journal_id_ASTM
primary

;
Journal of Materials Chemistry C: Materials for Optical and Electronic Devices
; 2016 4 596 602 JMCCCX
loop_
_publ_author_name
'Litterscheid, C.'
'Krueger, S.'
'Euler, M.'
'Dreizler, A.'
'Wickleder, C.'
'Albert, B.'
_cell_length_a 5.1875(2)
_cell_length_b 6.6380(2)
_cell_length_c 10.2731(4)
_cell_angle_alpha 100.082(3)
_cell_angle_beta 100.257(2)
_cell_angle_gamma 111.943(2)
_cell_volume 311.36
_cell_formula_units_Z 1
_symmetry_space_group_name_H-M 'P -1'
_symmetry_Int_Tables_number 2
_refine_ls_R_factor_all 0.0342
loop_
_symmetry_equiv_pos_site_id
_symmetry_equiv_pos_as_xyz
1 '-x, -y, -z'
2 'x, y, z'
loop_
_atom_type_symbol
_atom_type_oxidation_number
Li1+ 1
Y3+ 3
Mo6+ 6
O2- -2
loop_
_atom_site_label
_atom_site_type_symbol
_atom_site_symmetry_multiplicity
_atom_site_Wyckoff_symbol
_atom_site_fract_x
_atom_site_fract_y
_atom_site_fract_z
_atom_site_B_iso_or_equiv
_atom_site_occupancy
_atom_site_attached_hydrogens
Li1 Li1+ 1 a 0 0 0 0.053(4) 1 0
Li2 Li1+ 2 i 0.839(3) 0.412(2) 0.1209(15) 0.056(3) 1 0
Li3 Li1+ 2 i 0.12128(9) 0.77267(7) 0.44014(4) 0.01087(15) 0.25 0
Y1 Y3+ 2 i 0.12128(9) 0.77267(7) 0.44014(4) 0.01087(15) 0.75 0
Mo1 Mo6+ 2 i 0.33632(6) 0.29999(5) 0.32035(3) 0.01190(14) 1 0
Mo2 Mo6+ 2 i 0.41737(7) 0.15377(6) 0.80009(3) 0.01353(15) 1 0
O1 O2- 2 i 0.1154(6) 0.1162(5) 0.4072(3) 0.0156(5) 1 0
O2 O2- 2 i 0.3013(6) 0.5639(5) 0.5714(3) 0.0178(5) 1 0
O3 O2- 2 i 0.3567(7) 0.1754(5) 0.1622(3) 0.0209(6) 1 0
O4 O2- 2 i 0.1984(6) 0.4994(5) 0.2944(3) 0.0174(5) 1 0
O5 O2- 2 i 0.2703(7) 0.6860(6) 0.0691(3) 0.0252(6) 1 0
O6 O2- 2 i 0.2268(7) 0.3241(5) 0.7720(3) 0.0206(6) 1 0
O7 O2- 2 i 0.8008(7) 0.0584(5) 0.1382(3) 0.0207(6) 1 0
O8 O2- 2 i 0.4850(6) 0.0419(5) 0.6409(3) 0.0170(5) 1 0
loop_
_atom_site_aniso_label
_atom_site_aniso_type_symbol
_atom_site_aniso_U_11
_atom_site_aniso_U_22
_atom_site_aniso_U_33
_atom_site_aniso_U_12
_atom_site_aniso_U_13
_atom_site_aniso_U_23
Li3 Li1+ 0.0106(3) 0.0122(3) 0.0110(3) 0.0056(2) 0.0037(2) 0.0033(2)
Y1 Y3+ 0.0106(3) 0.0122(3) 0.0110(3) 0.0056(2) 0.0037(2) 0.0033(2)
Mo1 Mo6+ 0.01103(19) 0.0139(2) 0.01217(19) 0.00595(14) 0.00398(13) 0.00431(14)
Mo2 Mo6+ 0.0142(2) 0.0175(2) 0.01087(19) 0.00847(14) 0.00439(12) 0.00308(13)
O1 O2- 0.0183(13) 0.0149(12) 0.0166(12) 0.0090(11) 0.0068(10) 0.0046(10)
O2 O2- 0.0154(13) 0.0182(13) 0.0197(13) 0.0072(11) 0.0035(11) 0.0054(11)
O3 O2- 0.0185(14) 0.0248(15) 0.0190(13) 0.0112(12) 0.0045(11) 0.0008(11)
O4 O2- 0.0214(14) 0.0183(13) 0.0173(12) 0.0126(12) 0.0064(11) 0.0051(11)
O5 O2- 0.0226(16) 0.0293(17) 0.0178(13) 0.0061(13) 0.0019(12) 0.0062(12)
O6 O2- 0.0220(15) 0.0199(14) 0.0237(13) 0.0120(12) 0.0073(12) 0.0066(12)
O7 O2- 0.0231(15) 0.0246(15) 0.0201(13) 0.0129(13) 0.0095(11) 0.0092(12)
O8 O2- 0.0171(13) 0.0176(13) 0.0168(12) 0.0076(11) 0.0076(10) 0.0019(10)
#End of TTdata_427655-ICSD