
#(C) 2018 by FIZ Karlsruhe - Leibniz Institute for Information Infrastructure.  All rights reserved.
data_427619-ICSD
_database_code_ICSD 427619
_audit_creation_date 2015-02-01
_chemical_name_systematic 'Lithium titanium phosphate'
_chemical_formula_structural 'Li1.2 (Al0.2 Ti1.8) (P O4)3'
_chemical_formula_sum 'Al0.2 Li1.2 O12 P3 Ti1.8'
_chemical_name_structure_type NaZr2(PO4)3
_exptl_crystal_density_diffrn 2.94
_cell_measurement_temperature 298.
_publ_section_title
'Neutron diffraction analysis of NASICON-type Li 1+x AlxTi 2-x P3O 12'
loop_
_citation_id
_citation_journal_full
_citation_year
_citation_journal_volume
_citation_page_first
_citation_page_last
_citation_journal_id_ASTM
primary 'Zeitschrift fuer Anorganische und Allgemeine Chemie (1950) (DE)' 2014
640 3070 3073 ZAACAB
loop_
_publ_author_name
'Dashjav, Enkhtsetseg'
'Tietz, Frank'
_cell_length_a 8.51050(8)
_cell_length_b 8.51050(8)
_cell_length_c 20.8275(4)
_cell_angle_alpha 90.
_cell_angle_beta 90.
_cell_angle_gamma 120.
_cell_volume 1306.4
_cell_formula_units_Z 6
_symmetry_space_group_name_H-M 'R -3 c H'
_symmetry_Int_Tables_number 167
_refine_ls_R_factor_all 0.0373
loop_
_symmetry_equiv_pos_site_id
_symmetry_equiv_pos_as_xyz
1 'x-y, -y, -z+1/2'
2 '-x, -x+y, -z+1/2'
3 'y, x, -z+1/2'
4 'x-y, x, -z'
5 'y, -x+y, -z'
6 '-x, -y, -z'
7 '-x+y, y, z+1/2'
8 'x, x-y, z+1/2'
9 '-y, -x, z+1/2'
10 '-x+y, -x, z'
11 '-y, x-y, z'
12 'x, y, z'
13 'x-y+2/3, -y+1/3, -z+5/6'
14 '-x+2/3, -x+y+1/3, -z+5/6'
15 'y+2/3, x+1/3, -z+5/6'
16 'x-y+2/3, x+1/3, -z+1/3'
17 'y+2/3, -x+y+1/3, -z+1/3'
18 '-x+2/3, -y+1/3, -z+1/3'
19 '-x+y+2/3, y+1/3, z+5/6'
20 'x+2/3, x-y+1/3, z+5/6'
21 '-y+2/3, -x+1/3, z+5/6'
22 '-x+y+2/3, -x+1/3, z+1/3'
23 '-y+2/3, x-y+1/3, z+1/3'
24 'x+2/3, y+1/3, z+1/3'
25 'x-y+1/3, -y+2/3, -z+1/6'
26 '-x+1/3, -x+y+2/3, -z+1/6'
27 'y+1/3, x+2/3, -z+1/6'
28 'x-y+1/3, x+2/3, -z+2/3'
29 'y+1/3, -x+y+2/3, -z+2/3'
30 '-x+1/3, -y+2/3, -z+2/3'
31 '-x+y+1/3, y+2/3, z+1/6'
32 'x+1/3, x-y+2/3, z+1/6'
33 '-y+1/3, -x+2/3, z+1/6'
34 '-x+y+1/3, -x+2/3, z+2/3'
35 '-y+1/3, x-y+2/3, z+2/3'
36 'x+1/3, y+2/3, z+2/3'
loop_
_atom_type_symbol
_atom_type_oxidation_number
P5+ 5
O2- -2
Li1+ 1
Ti4+ 4
Al3+ 3
Li1+ 1
loop_
_atom_site_label
_atom_site_type_symbol
_atom_site_symmetry_multiplicity
_atom_site_Wyckoff_symbol
_atom_site_fract_x
_atom_site_fract_y
_atom_site_fract_z
_atom_site_B_iso_or_equiv
_atom_site_occupancy
_atom_site_attached_hydrogens
P1 P5+ 18 e 0.2905(3) 0. 0.25 0.0056(13) 1. 0
O1 O2- 36 f 0.1845(3) 0.9948(4) 0.18993(10) 0.0126(11) 1. 0
O2 O2- 36 f 0.1884(3) 0.1643(3) 0.08119(11) 0.0083(10) 1. 0
Li1 Li1+ 6 b 0. 0. 0. 0.051(8) 1.00002 0
Ti1 Ti4+ 12 c 0. 0. 0.1417(3) 0.0026(8) 0.8992(10) 0
Al1 Al3+ 12 c 0. 0. 0.1417(3) 0.0026(8) 0.1005(10) 0
Li2 Li1+ 6 a 0. 0. 0.25 0.051(8) 0.2010(20) 0
loop_
_atom_site_aniso_label
_atom_site_aniso_type_symbol
_atom_site_aniso_U_11
_atom_site_aniso_U_22
_atom_site_aniso_U_33
_atom_site_aniso_U_12
_atom_site_aniso_U_13
_atom_site_aniso_U_23
P1 P5+ 0.0047(12) 0.0050(12) 0.0072(15) 0.0025(12) 0.00175 0.0035(12)
O1 O2- 0.0112(11) 0.0144(10) 0.0121(11) 0.0074(11) -0.0041(9) 0.0026(10)
O2 O2- 0.0052(8) 0.0086(10) 0.0109(10) -0.0004(7) 0.0018(10) 0.0025(8)
#End of TTdata_427619-ICSD