
#(C) 2018 by FIZ Karlsruhe - Leibniz Institute for Information Infrastructure.  All rights reserved.
data_427746-ICSD
_database_code_ICSD 427746
_audit_creation_date 2015-02-01
_chemical_name_systematic 'Copper lithium sulfide (0.903/1.097/1)'
_chemical_formula_structural '(Cu0.903 Li1.097) S'
_chemical_formula_sum 'Cu0.903 Li1.097 S1'
_chemical_name_structure_type Na3AgO2
_exptl_crystal_density_diffrn 3.46
_cell_measurement_temperature 293.
_publ_section_title

;
Li1.1 Cu0.9 S, a potential environmental- friendly battery and solar cell
material
;
loop_
_citation_id
_citation_journal_full
_citation_year
_citation_journal_volume
_citation_page_first
_citation_page_last
_citation_journal_id_ASTM
primary 'Zeitschrift fuer Anorganische und Allgemeine Chemie (1950) (DE)' 2014
640 2331 2331 ZAACAB
loop_
_publ_author_name
'Beleanu, Andreea'
'Kiss, Janos'
'Baenitz, Michael'
'Majumder, Mayukh'
'Senyshyn, Anatoliy'
'Kreiner, Guido'
'Felser, Claudia'
_cell_length_a 5.6150(7)
_cell_length_b 11.1325(14)
_cell_length_c 5.9644(8)
_cell_angle_alpha 90
_cell_angle_beta 90
_cell_angle_gamma 90
_cell_volume 372.82
_cell_formula_units_Z 8
_symmetry_space_group_name_H-M 'I b a m'
_symmetry_Int_Tables_number 72
_refine_ls_R_factor_all 0.0353
loop_
_symmetry_equiv_pos_site_id
_symmetry_equiv_pos_as_xyz
1 '-x, y, z+1/2'
2 'x, -y, z+1/2'
3 'x, y, -z'
4 '-x, -y, -z'
5 'x, -y, -z+1/2'
6 '-x, y, -z+1/2'
7 '-x, -y, z'
8 'x, y, z'
9 '-x+1/2, y+1/2, z'
10 'x+1/2, -y+1/2, z'
11 'x+1/2, y+1/2, -z+1/2'
12 '-x+1/2, -y+1/2, -z+1/2'
13 'x+1/2, -y+1/2, -z'
14 '-x+1/2, y+1/2, -z'
15 '-x+1/2, -y+1/2, z+1/2'
16 'x+1/2, y+1/2, z+1/2'
loop_
_atom_type_symbol
_atom_type_oxidation_number
S2- -2
Cu1+ 1
Li1+ 1
Cu1+ 1
Li1+ 1
Cu1+ 1
loop_
_atom_site_label
_atom_site_type_symbol
_atom_site_symmetry_multiplicity
_atom_site_Wyckoff_symbol
_atom_site_fract_x
_atom_site_fract_y
_atom_site_fract_z
_atom_site_B_iso_or_equiv
_atom_site_occupancy
_atom_site_attached_hydrogens
S1 S2- 8 j 0.2736(14) 0.1328(8) 0 0.012(3) 1 0
Cu1 Cu1+ 8 g 0 0.2137(7) 0.25 0.008(3) 0.424(10) 0
Li1 Li1+ 8 g 0 0.2137(7) 0.25 0.008(3) 0.576(10) 0
Cu2 Cu1+ 4 c 0 0 0 0.0103(15) 0.87(2) 0
Li2 Li1+ 4 c 0 0 0 0.0103(15) 0.13(2) 0
Li3 Li1+ 4 b 0.5 0 0.25 0.002(7) 0.911(10) 0
Cu3 Cu1+ 4 b 0.5 0 0.25 0.002(7) 0.089(10) 0
#End of TTdata_427746-ICSD