
#(C) 2018 by FIZ Karlsruhe - Leibniz Institute for Information Infrastructure.  All rights reserved.
data_427778-ICSD
_database_code_ICSD 427778
_audit_creation_date 2015-08-01
_chemical_name_systematic 'Tetrabarium dilithium tricadmium hexaarsenide'
_chemical_formula_structural 'Ba4 Li2 Cd3 As6'
_chemical_formula_sum 'As6 Ba4 Cd3 Li2'
_exptl_crystal_density_diffrn 5.6
_cell_measurement_temperature 200.
_publ_section_title

;
New lithium-containing pnictides with 1-d infinite chains of supertetrahedral
clusters: synthesis, crystal and electronic structure of Ba4 Li2 Cd3 Pn6 (Pn =
P, As and Sb)
;
loop_
_citation_id
_citation_journal_full
_citation_year
_citation_journal_volume
_citation_page_first
_citation_page_last
_citation_journal_id_ASTM
primary 'European Journal of Inorganic Chemistry' 2014 2014 5113 5124 EJICFO
loop_
_publ_author_name
'Makongo, Julien P.A.'
'You, Tae-Soo'
'He, Hua'
'Suen, Nian-Tzu'
'Bobev, Svilen'
_cell_length_a 4.6003(7)
_cell_length_b 20.351(3)
_cell_length_c 17.094(2)
_cell_angle_alpha 90.
_cell_angle_beta 90.
_cell_angle_gamma 90.
_cell_volume 1600.35
_cell_formula_units_Z 4
_symmetry_space_group_name_H-M 'C m c m'
_symmetry_Int_Tables_number 63
_refine_ls_R_factor_all 0.0302
loop_
_symmetry_equiv_pos_site_id
_symmetry_equiv_pos_as_xyz
1 '-x, y, -z+1/2'
2 '-x, -y, z+1/2'
3 '-x, y, z'
4 '-x, -y, -z'
5 'x, -y, z+1/2'
6 'x, y, -z+1/2'
7 'x, -y, -z'
8 'x, y, z'
9 '-x+1/2, y+1/2, -z+1/2'
10 '-x+1/2, -y+1/2, z+1/2'
11 '-x+1/2, y+1/2, z'
12 '-x+1/2, -y+1/2, -z'
13 'x+1/2, -y+1/2, z+1/2'
14 'x+1/2, y+1/2, -z+1/2'
15 'x+1/2, -y+1/2, -z'
16 'x+1/2, y+1/2, z'
loop_
_atom_type_symbol
_atom_type_oxidation_number
Ba2+ 2
Cd2+ 2
As2- -2.67
Li1+ 1
loop_
_atom_site_label
_atom_site_type_symbol
_atom_site_symmetry_multiplicity
_atom_site_Wyckoff_symbol
_atom_site_fract_x
_atom_site_fract_y
_atom_site_fract_z
_atom_site_B_iso_or_equiv
_atom_site_occupancy
_atom_site_attached_hydrogens
Ba1 Ba2+ 8 f 0. 0.01657(3) 0.12185(3) 0.01099(16) 1 0
Ba2 Ba2+ 8 f 0. 0.17301(3) 0.56925(3) 0.00987(15) 1 0
Cd1 Cd2+ 8 f 0. 0.64923(4) 0.12348(4) 0.01256(18) 1 0
Cd2 Cd2+ 4 c 0. 0.29590(6) 0.25 0.0162(3) 1 0
As1 As2- 8 f 0. 0.21922(5) 0.11733(6) 0.0089(2) 1 0
As2 As2- 8 f 0. 0.43940(5) 0.01354(6) 0.0099(2) 1 0
As3 As2- 4 c 0. 0.56823(7) 0.25 0.0087(3) 1 0
As4 As2- 4 c 0. 0.87966(7) 0.25 0.0099(3) 1 0
Li1 Li1+ 4 c 0. 0.1486(13) 0.25 0.0148(13) 1 0
Li2 Li1+ 4 c 0. 0.4364(14) 0.25 0.015 1 0
loop_
_atom_site_aniso_label
_atom_site_aniso_type_symbol
_atom_site_aniso_U_11
_atom_site_aniso_U_22
_atom_site_aniso_U_33
_atom_site_aniso_U_12
_atom_site_aniso_U_13
_atom_site_aniso_U_23
Ba1 Ba2+ 0.0109(3) 0.0123(3) 0.0098(3) 0. 0. -0.0021(2)
Ba2 Ba2+ 0.0111(3) 0.0087(3) 0.0098(3) 0. 0. 0.0000(2)
Cd1 Cd2+ 0.0104(4) 0.0118(4) 0.0155(4) 0. 0. 0.0032(3)
Cd2 Cd2+ 0.0230(6) 0.0135(5) 0.0120(5) 0. 0. 0.
As1 As2- 0.0089(5) 0.0092(5) 0.0087(5) 0. 0. -0.0002(4)
As2 As2- 0.0107(5) 0.0075(5) 0.0114(5) 0. 0. 0.0008(4)
As3 As2- 0.0095(7) 0.0088(7) 0.0078(7) 0. 0. 0.
As4 As2- 0.0102(7) 0.0102(7) 0.0094(7) 0. 0. 0.
#End of TTdata_427778-ICSD