
#(C) 2018 by FIZ Karlsruhe - Leibniz Institute for Information Infrastructure.  All rights reserved.
data_427844-ICSD
_database_code_ICSD 427844
_audit_creation_date 2015-02-01
_chemical_name_systematic
'Silver octalithium trivanadium(III) tris(pyrophosphate) bis(phosphate)'
_chemical_formula_structural '(Ag0.94 Li0.06) Li8 V3 (P2 O7)3 (P O4)2'
_chemical_formula_sum 'Ag0.94 Li8.06 O29 P8 V3'
_chemical_name_structure_type Li9Al3(P2O7)3(PO4)2
_exptl_crystal_density_diffrn 3.02
_cell_measurement_temperature 295.
_publ_section_title

;
Crystal structures and electronic properties for the over-lithiated and Li-Ag
substituted phases of Li9V3(P2O7)3(PO4)2 insertion electrode system
;
loop_
_citation_id
_citation_journal_full
_citation_year
_citation_journal_volume
_citation_page_first
_citation_page_last
_citation_journal_id_ASTM
primary 'Journal of Solid State Chemistry' 2014 219 220 227 JSSCBI
loop_
_publ_author_name
'Onoda, Masashige'
'Inagaki, Makoto'
'Saito, Hiroaki'
_cell_length_a 9.7686(3)
_cell_length_b 9.7686(3)
_cell_length_c 13.6156(8)
_cell_angle_alpha 90.
_cell_angle_beta 90.
_cell_angle_gamma 120.
_cell_volume 1125.2
_cell_formula_units_Z 2
_symmetry_space_group_name_H-M 'P -3 c 1'
_symmetry_Int_Tables_number 165
_refine_ls_R_factor_all 0.0284
loop_
_symmetry_equiv_pos_site_id
_symmetry_equiv_pos_as_xyz
1 'x-y, -y, -z+1/2'
2 '-x, -x+y, -z+1/2'
3 'y, x, -z+1/2'
4 'x-y, x, -z'
5 'y, -x+y, -z'
6 '-x, -y, -z'
7 '-x+y, y, z+1/2'
8 'x, x-y, z+1/2'
9 '-y, -x, z+1/2'
10 '-x+y, -x, z'
11 '-y, x-y, z'
12 'x, y, z'
loop_
_atom_type_symbol
_atom_type_oxidation_number
Ag1+ 1
Li1+ 1
V3+ 3
P5+ 5
O2- -2
Li1+ 1
loop_
_atom_site_label
_atom_site_type_symbol
_atom_site_symmetry_multiplicity
_atom_site_Wyckoff_symbol
_atom_site_fract_x
_atom_site_fract_y
_atom_site_fract_z
_atom_site_B_iso_or_equiv
_atom_site_occupancy
_atom_site_attached_hydrogens
Ag1 Ag1+ 2 b 0. 0. 0. 0.02304(15) 0.936(3) 0
Li1 Li1+ 2 b 0. 0. 0. 0.02304(15) 0.064(4) 0
V1 V3+ 6 f 0. 0.43126(5) 0.25 0.00606(8) 1 0
P1 P5+ 4 d 0.6667 0.3333 0.12432(6) 0.00593(13) 1 0
P2 P5+ 12 g 0.23110(6) 0.32094(6) 0.15608(3) 0.00600(9) 1 0
O1 O2- 4 d 0.6667 0.3333 0.0140(2) 0.0226(6) 1 0
O2 O2- 6 f 0.2176(2) 0.2176(2) 0.25 0.0109(4) 1 0
O3 O2- 12 g 0.51397(18) 0.18787(18) 0.16278(11) 0.0103(2) 1 0
O4 O2- 12 g 0.37323(17) 0.48625(18) 0.16907(11) 0.0097(2) 1 0
O5 O2- 12 g 0.07923(17) 0.32792(19) 0.15462(11) 0.0091(2) 1 0
O6 O2- 12 g 0.24391(18) 0.23751(18) 0.06639(11) 0.0109(3) 1 0
Li2 Li1+ 4 d 0.3333 0.6667 0.1191(5) 0.0165(13) 1 0
Li3 Li1+ 12 g 0.3377(6) 0.1005(5) 0.0632(3) 0.0163(7) 1 0
loop_
_atom_site_aniso_label
_atom_site_aniso_type_symbol
_atom_site_aniso_U_11
_atom_site_aniso_U_22
_atom_site_aniso_U_33
_atom_site_aniso_U_12
_atom_site_aniso_U_13
_atom_site_aniso_U_23
Ag1 Ag1+ 0.01199(13) 0.01199(13) 0.0452(4) 0.00599(7) 0. 0.
Li1 Li1+ 0.01199(13) 0.01199(13) 0.0452(4) 0.00599(7) 0. 0.
V1 V3+ 0.00538(17) 0.00529(12) 0.00754(17) 0.00269(9) 0.00012(14) 0.00006(7)
P1 P5+ 0.00571(18) 0.00571(18) 0.0064(3) 0.00285(9) 0. 0.
P2 P5+ 0.00618(19) 0.0066(2) 0.00583(19) 0.00369(17) -0.00082(16) -0.00089(16)
O1 O2- 0.0314(10) 0.0314(10) 0.0052(11) 0.0157(5) 0. 0.
O2 O2- 0.0113(6) 0.0113(6) 0.0078(8) 0.0039(7) -0.0028(3) 0.0028(3)
O3 O2- 0.0069(5) 0.0058(5) 0.0153(6) 0.0010(5) -0.0007(5) 0.0023(5)
O4 O2- 0.0078(5) 0.0079(6) 0.0109(6) 0.0020(5) -0.0009(5) 0.0014(5)
O5 O2- 0.0065(5) 0.0113(6) 0.0110(6) 0.0056(5) -0.0010(5) -0.0013(5)
O6 O2- 0.0136(6) 0.0154(7) 0.0074(5) 0.0100(6) -0.0007(5) -0.0029(5)
Li2 Li1+ 0.021(2) 0.021(2) 0.008(3) 0.0105(10) 0. 0.
Li3 Li1+ 0.0183(19) 0.0168(19) 0.0162(17) 0.0106(17) -0.0044(15) -0.0018(17)
#End of TTdata_427844-ICSD