
#(C) 2018 by FIZ Karlsruhe - Leibniz Institute for Information Infrastructure.  All rights reserved.
data_427806-ICSD
_database_code_ICSD 427806
_audit_creation_date 2015-02-01
_chemical_name_systematic
'Pentalithium trichromium(II/III) tetrakis(ortho-phosphate)'
_chemical_formula_structural 'Li5 Cr3 (P O4)4'
_chemical_formula_sum 'Cr3 Li5 O16 P4'
_exptl_crystal_density_diffrn 3.19
_cell_measurement_temperature 293.
_publ_section_title 'Searching for Li Cr(II) PO4'
loop_
_citation_id
_citation_journal_full
_citation_year
_citation_journal_volume
_citation_page_first
_citation_page_last
_citation_journal_id_ASTM
primary 'Journal of Solid State Chemistry' 2014 218 131 140 JSSCBI
loop_
_publ_author_name
'Mosymow, E.'
'Glaum, R.'
'Kremer, R.K.'
_cell_length_a 4.9379(7)
_cell_length_b 7.9166(17)
_cell_length_c 8.4262(16)
_cell_angle_alpha 109.981(18)
_cell_angle_beta 90.713(15)
_cell_angle_gamma 104.914(14)
_cell_volume 297.3
_cell_formula_units_Z 1
_symmetry_space_group_name_H-M 'P -1'
_symmetry_Int_Tables_number 2
_refine_ls_R_factor_all 0.0222
loop_
_symmetry_equiv_pos_site_id
_symmetry_equiv_pos_as_xyz
1 '-x, -y, -z'
2 'x, y, z'
loop_
_atom_type_symbol
_atom_type_oxidation_number
Cr2+ 2
Cr3+ 3
Li1+ 1
P5+ 5
O2- -2
loop_
_atom_site_label
_atom_site_type_symbol
_atom_site_symmetry_multiplicity
_atom_site_Wyckoff_symbol
_atom_site_fract_x
_atom_site_fract_y
_atom_site_fract_z
_atom_site_B_iso_or_equiv
_atom_site_occupancy
_atom_site_attached_hydrogens
Cr1 Cr2+ 1 h 0.5 0.5 0.5 0.00752(12) 1 0
Cr2 Cr2+ 1 c 1 0.5 0 0.01357(13) 1 0
Cr3 Cr3+ 2 i 0.40652(13) 0.24558(8) 0.72031(7) 0.01178(14) 0.5 0
Li1 Li1+ 2 i 0.40652(13) 0.24558(8) 0.72031(7) 0.01178(14) 0.5 0
Li2 Li1+ 2 i 0.8274(9) 0.1003(6) 0.1036(5) 0.0204(8) 1 0
Li3 Li1+ 2 i -0.2429(11) -0.0168(7) 0.7112(6) 0.0293(10) 1 0
P1 P5+ 2 i 0.41199(10) 0.30355(6) 0.09434(6) 0.00822(13) 1 0
P2 P5+ 2 i -0.12798(10) 0.20734(7) 0.46882(6) 0.00849(13) 1 0
O1 O2- 2 i 0.2581(3) 0.11787(19) 0.11025(18) 0.0124(3) 1 0
O2 O2- 2 i 0.4117(3) 0.4703(2) 0.25764(17) 0.0116(3) 1 0
O3 O2- 2 i 0.7105(3) 0.2980(2) 0.04926(19) 0.0123(3) 1 0
O4 O2- 2 i -0.2452(3) 0.3468(2) 0.42452(18) 0.0121(3) 1 0
O5 O2- 2 i 0.2009(3) 0.26883(19) 0.49188(18) 0.0109(3) 1 0
O6 O2- 2 i -0.2100(3) 0.0246(2) 0.31179(19) 0.0154(3) 1 0
O7 O2- 2 i 0.2546(3) 0.33127(19) -0.05107(17) 0.0104(3) 1 0
O8 O2- 2 i -0.2354(3) 0.1762(2) 0.62832(19) 0.0144(3) 1 0
loop_
_atom_site_aniso_label
_atom_site_aniso_type_symbol
_atom_site_aniso_U_11
_atom_site_aniso_U_22
_atom_site_aniso_U_33
_atom_site_aniso_U_12
_atom_site_aniso_U_13
_atom_site_aniso_U_23
Cr1 Cr2+ 0.0063(2) 0.0076(2) 0.0089(2) 0.00139(15) 0.00112(14) 0.00352(15)
Cr2 Cr2+ 0.0081(2) 0.0115(2) 0.0249(3) 0.00371(17) 0.00615(17) 0.01039(18)
Cr3 Cr3+ 0.0139(3) 0.0088(3) 0.0118(3) 0.0017(2) 0.0048(2) 0.0036(2)
Li1 Li1+ 0.0139(3) 0.0088(3) 0.0118(3) 0.0017(2) 0.0048(2) 0.0036(2)
Li2 Li1+ 0.0228(19) 0.0193(18) 0.0196(17) 0.0060(15) 0.0007(14) 0.0076(14)
Li3 Li1+ 0.041(3) 0.032(2) 0.026(2) 0.006(2) 0.0079(18) 0.0273(18)
P1 P5+ 0.0068(2) 0.0082(2) 0.0095(2) 0.00149(17) 0.00149(16) 0.00330(17)
P2 P5+ 0.0070(2) 0.0084(2) 0.0101(2) 0.00133(17) 0.00155(16) 0.00385(17)
O1 O2- 0.0123(6) 0.0115(6) 0.0129(6) -0.0005(5) 0.0019(5) 0.0064(5)
O2 O2- 0.0142(7) 0.0116(6) 0.0084(6) 0.0044(5) 0.0006(5) 0.0024(5)
O3 O2- 0.0079(6) 0.0126(6) 0.0188(7) 0.0036(5) 0.0047(5) 0.0079(5)
O4 O2- 0.0107(6) 0.0154(7) 0.0140(6) 0.0067(5) 0.0038(5) 0.0075(5)
O5 O2- 0.0066(6) 0.0111(6) 0.0161(6) 0.0013(5) 0.0018(5) 0.0071(5)
O6 O2- 0.0183(7) 0.0100(6) 0.0135(7) -0.0003(6) 0.0017(5) 0.0018(5)
O7 O2- 0.0106(6) 0.0127(6) 0.0093(6) 0.0054(5) 0.0017(5) 0.0040(5)
O8 O2- 0.0135(7) 0.0195(7) 0.0151(7) 0.0065(6) 0.0068(5) 0.0109(6)
#End of TTdata_427806-ICSD