
#(C) 2018 by FIZ Karlsruhe - Leibniz Institute for Information Infrastructure.  All rights reserved.
data_427845-ICSD
_database_code_ICSD 427845
_audit_creation_date 2015-02-01
_chemical_name_systematic
'Decalithium trivanadium(II,III) tris(pyrophosphate) bis(phosphate)'
_chemical_formula_structural 'Li10 V3 (P2 O7)3 (P O4)2'
_chemical_formula_sum 'Li10 O29 P8 V3'
_exptl_crystal_density_diffrn 2.77
_cell_measurement_temperature 295.
_publ_section_title

;
Crystal structures and electronic properties for the over-lithiated and Li-Ag
substituted phases of Li9V3(P2O7)3(PO4)2 insertion electrode system
;
loop_
_citation_id
_citation_journal_full
_citation_year
_citation_journal_volume
_citation_page_first
_citation_page_last
_citation_journal_id_ASTM
primary 'Journal of Solid State Chemistry' 2014 219 220 227 JSSCBI
loop_
_publ_author_name
'Onoda, Masashige'
'Inagaki, Makoto'
'Saito, Hiroaki'
_cell_length_a 9.742(2)
_cell_length_b 9.742(2)
_cell_length_c 13.616(2)
_cell_angle_alpha 90.
_cell_angle_beta 90.
_cell_angle_gamma 120.
_cell_volume 1119.11
_cell_formula_units_Z 2
_symmetry_space_group_name_H-M 'P -3 c 1'
_symmetry_Int_Tables_number 165
_refine_ls_R_factor_all 0.0455
loop_
_symmetry_equiv_pos_site_id
_symmetry_equiv_pos_as_xyz
1 'x-y, -y, -z+1/2'
2 '-x, -x+y, -z+1/2'
3 'y, x, -z+1/2'
4 'x-y, x, -z'
5 'y, -x+y, -z'
6 '-x, -y, -z'
7 '-x+y, y, z+1/2'
8 'x, x-y, z+1/2'
9 '-y, -x, z+1/2'
10 '-x+y, -x, z'
11 '-y, x-y, z'
12 'x, y, z'
loop_
_atom_type_symbol
_atom_type_oxidation_number
V2+ 2.666
P5+ 5
O2- -2
Li1+ 1
loop_
_atom_site_label
_atom_site_type_symbol
_atom_site_symmetry_multiplicity
_atom_site_Wyckoff_symbol
_atom_site_fract_x
_atom_site_fract_y
_atom_site_fract_z
_atom_site_B_iso_or_equiv
_atom_site_occupancy
_atom_site_attached_hydrogens
V1 V2+ 6 f 0. 0.43344(4) 0.25 0.00517(10) 1 0
P1 P5+ 4 d 0.6667 0.3333 0.12516(6) 0.00478(14) 1 0
P2 P5+ 12 g 0.22682(6) 0.31557(6) 0.15547(3) 0.00550(11) 1 0
O1 O2- 4 d 0.6667 0.3333 0.0155(2) 0.0251(7) 1 0
O2 O2- 6 f 0.2132(2) 0.2132(2) 0.25 0.0103(3) 1 0
O3 O2- 12 g 0.51287(17) 0.18920(17) 0.16397(12) 0.0101(2) 1 0
O4 O2- 12 g 0.37247(18) 0.47978(18) 0.16601(11) 0.0099(2) 1 0
O5 O2- 12 g 0.07828(17) 0.32916(17) 0.15477(11) 0.0083(2) 1 0
O6 O2- 12 g 0.2308(2) 0.2251(2) 0.06657(11) 0.0127(3) 1 0
Li1 Li1+ 2 b 0. 0. 0. 0.063(7) 1 0
Li2 Li1+ 4 d 0.3333 0.6667 0.1171(6) 0.0174(14) 1 0
Li3 Li1+ 12 g 0.3355(6) 0.0998(6) 0.0632(4) 0.0155(8) 1 0
Li4 Li1+ 2 a 0. 0. 0.25 0.16(2) 1 0
loop_
_atom_site_aniso_label
_atom_site_aniso_type_symbol
_atom_site_aniso_U_11
_atom_site_aniso_U_22
_atom_site_aniso_U_33
_atom_site_aniso_U_12
_atom_site_aniso_U_13
_atom_site_aniso_U_23
V1 V2+ 0.00407(15) 0.00431(13) 0.00705(17) 0.00204(8) 0.00050(11) 0.00025(5)
P1 P5+ 0.00466(18) 0.00466(18) 0.0050(3) 0.00233(9) 0. 0.
P2 P5+ 0.00589(19) 0.00745(18) 0.00467(18) 0.00447(15) -0.00085(13) -0.00088(13)
O1 O2- 0.0344(12) 0.0344(12) 0.0066(10) 0.0172(6) 0. 0.
O2 O2- 0.0104(6) 0.0104(6) 0.0079(7) 0.0037(6) -0.0025(3) 0.0025(3)
O3 O2- 0.0062(5) 0.0056(5) 0.0166(6) 0.0015(4) 0.0011(4) 0.0032(4)
O4 O2- 0.0069(5) 0.0094(5) 0.0105(5) 0.0019(4) -0.0022(4) 0.0025(4)
O5 O2- 0.0068(5) 0.0111(6) 0.0093(5) 0.0063(4) -0.0023(4) -0.0029(4)
O6 O2- 0.0201(7) 0.0188(7) 0.0071(5) 0.0157(6) -0.0027(5) -0.0047(5)
Li1 Li1+ 0.079(11) 0.079(11) 0.033(9) 0.039(5) 0. 0.
Li2 Li1+ 0.018(2) 0.018(2) 0.016(3) 0.0089(10) 0. 0.
Li3 Li1+ 0.023(2) 0.0145(18) 0.0110(17) 0.0105(16) -0.0003(14) 0.0004(13)
#End of TTdata_427845-ICSD