
#(C) 2018 by FIZ Karlsruhe - Leibniz Institute for Information Infrastructure.  All rights reserved.
data_427805-ICSD
_database_code_ICSD 427805
_audit_creation_date 2015-02-01
_chemical_name_systematic 'Lithium tetrachromium(II) tris(ortho-phosphate)'
_chemical_formula_structural 'Li Cr4 (P O4)3'
_chemical_formula_sum 'Cr4 Li1 O12 P3'
_exptl_crystal_density_diffrn 3.65
_cell_measurement_temperature 293.
_publ_section_title 'Searching for Li Cr(II) PO4'
loop_
_citation_id
_citation_journal_full
_citation_year
_citation_journal_volume
_citation_page_first
_citation_page_last
_citation_journal_id_ASTM
primary 'Journal of Solid State Chemistry' 2014 218 131 140 JSSCBI
loop_
_publ_author_name
'Mosymow, E.'
'Glaum, R.'
'Kremer, R.K.'
_cell_length_a 6.1745(12)
_cell_length_b 14.316(3)
_cell_length_c 10.277(2)
_cell_angle_alpha 90
_cell_angle_beta 90
_cell_angle_gamma 90
_cell_volume 908.42
_cell_formula_units_Z 4
_symmetry_space_group_name_H-M 'P n m a'
_symmetry_Int_Tables_number 62
_refine_ls_R_factor_all 0.028
loop_
_symmetry_equiv_pos_site_id
_symmetry_equiv_pos_as_xyz
1 'x+1/2, y, -z+1/2'
2 'x, -y+1/2, z'
3 '-x+1/2, y+1/2, z+1/2'
4 '-x, -y, -z'
5 '-x+1/2, -y, z+1/2'
6 '-x, y+1/2, -z'
7 'x+1/2, -y+1/2, -z+1/2'
8 'x, y, z'
loop_
_atom_type_symbol
_atom_type_oxidation_number
Cr2+ 2
Li1+ 1
Cr2+ 2
P5+ 5
O2- -2
loop_
_atom_site_label
_atom_site_type_symbol
_atom_site_symmetry_multiplicity
_atom_site_Wyckoff_symbol
_atom_site_fract_x
_atom_site_fract_y
_atom_site_fract_z
_atom_site_B_iso_or_equiv
_atom_site_occupancy
_atom_site_attached_hydrogens
Cr1 Cr2+ 8 d 0.07026(5) 0.63064(2) 0.15293(3) 0.01386(9) 1 0
Cr2 Cr2+ 8 d 0.35451(6) 0.08355(3) 0.05384(4) 0.01384(12) 0.7472(19) 0
Li1 Li1+ 8 d 0.35451(6) 0.08355(3) 0.05384(4) 0.01384(12) 0.2528(19) 0
Li2 Li1+ 4 c 0.06335(12) 0.25 0.25294(7) 0.0112(2) 0.491(3) 0
Cr3 Cr2+ 4 c 0.06335(12) 0.25 0.25294(7) 0.0112(2) 0.509(3) 0
P1 P5+ 8 d 0.36187(7) 0.07409(3) 0.36920(4) 0.00892(10) 1 0
P2 P5+ 4 c 0.00539(11) 0.25 0.59420(6) 0.01024(12) 1 0
O1 O2- 8 d 0.0375(2) 0.11049(10) 0.03525(13) 0.0136(2) 1 0
O2 O2- 8 d 0.0876(3) 0.66156(10) 0.34380(13) 0.0165(3) 1 0
O3 O2- 8 d 0.1682(2) 0.05002(9) 0.45714(13) 0.0132(2) 1 0
O4 O2- 8 d 0.3092(2) 0.15146(9) 0.27072(14) 0.0155(3) 1 0
O5 O2- 8 d 0.4421(2) 0.50985(10) 0.29348(12) 0.0149(2) 1 0
O6 O2- 4 c 0.2568(3) 0.25 0.60988(19) 0.0144(3) 1 0
O7 O2- 4 c 0.4438(4) 0.25 0.04879(19) 0.0279(6) 1 0
loop_
_atom_site_aniso_label
_atom_site_aniso_type_symbol
_atom_site_aniso_U_11
_atom_site_aniso_U_22
_atom_site_aniso_U_33
_atom_site_aniso_U_12
_atom_site_aniso_U_13
_atom_site_aniso_U_23
Cr1 Cr2+ 0.01818(16) 0.01149(14) 0.01190(14) -0.00395(10) 0.00106(10)
-0.00087(9)
Cr2 Cr2+ 0.00769(18) 0.01289(18) 0.0210(2) 0.00042(12) -0.00254(12) -0.00300(13)
Li1 Li1+ 0.00769(18) 0.01289(18) 0.0210(2) 0.00042(12) -0.00254(12) -0.00300(13)
Li2 Li1+ 0.0096(3) 0.0094(3) 0.0145(4) 0 -0.0004(2) 0
Cr3 Cr2+ 0.0096(3) 0.0094(3) 0.0145(4) 0 -0.0004(2) 0
P1 P5+ 0.00819(18) 0.00909(18) 0.00948(18) 0.00040(13) 0.00062(13) 0.00107(13)
P2 P5+ 0.0133(3) 0.0095(2) 0.0079(2) 0 -0.0018(2) 0
O1 O2- 0.0088(5) 0.0186(6) 0.0133(5) -0.0012(4) 0.0005(4) 0.0010(5)
O2 O2- 0.0227(7) 0.0103(6) 0.0167(6) 0.0027(5) 0.0008(5) -0.0009(4)
O3 O2- 0.0091(5) 0.0151(6) 0.0154(6) -0.0001(4) 0.0032(4) 0.0020(4)
O4 O2- 0.0141(6) 0.0131(5) 0.0194(6) 0.0012(4) -0.0010(5) 0.0063(5)
O5 O2- 0.0183(6) 0.0128(6) 0.0136(6) -0.0041(5) 0.0040(5) 0.0001(4)
O6 O2- 0.0147(8) 0.0115(7) 0.0170(8) 0 -0.0038(7) 0
O7 O2- 0.0144(9) 0.0611(18) 0.0081(8) 0 0.0022(7) 0
#End of TTdata_427805-ICSD