
#(C) 2018 by FIZ Karlsruhe - Leibniz Institute for Information Infrastructure.  All rights reserved.
data_428002-ICSD
_database_code_ICSD 428002
_audit_creation_date 2015-02-01
_chemical_name_systematic 'Pentalithium boron tetrasulfate'
_chemical_formula_structural 'Li5 (B (S O4)4)'
_chemical_formula_sum 'B1 Li5 O16 S4'
_exptl_crystal_density_diffrn 2.41
_cell_measurement_temperature 293.
_publ_section_title

;
Further new borosulfates: synthesis, crystal structure, and vibrational
spectra of A (B (S O4)2) (A = Na, K, N H4) and the crystal structures of Li5
(B (S O4)4) and N H4 (B (S2 O7)2)
;
loop_
_citation_id
_citation_journal_full
_citation_year
_citation_journal_volume
_citation_page_first
_citation_page_last
_citation_journal_id_ASTM
primary 'Zeitschrift fuer Anorganische und Allgemeine Chemie (1950) (DE)' 2014
640 2914 2921 ZAACAB
loop_
_publ_author_name
'Daub, Michael'
'Hoeppe, Henning A.'
'Hillebrecht, Harald'
_cell_length_a 8.01912(10)
_cell_length_b 10.12110(13)
_cell_length_c 15.04005(17)
_cell_angle_alpha 90
_cell_angle_beta 104.0331(6)
_cell_angle_gamma 90
_cell_volume 1184.24
_cell_formula_units_Z 4
_symmetry_space_group_name_H-M 'P 1 21/c 1'
_symmetry_Int_Tables_number 14
_refine_ls_R_factor_all 0.025
loop_
_symmetry_equiv_pos_site_id
_symmetry_equiv_pos_as_xyz
1 'x, -y+1/2, z+1/2'
2 '-x, -y, -z'
3 '-x, y+1/2, -z+1/2'
4 'x, y, z'
loop_
_atom_type_symbol
_atom_type_oxidation_number
Li1+ 1
S6+ 6
O2- -2
B3+ 3
loop_
_atom_site_label
_atom_site_type_symbol
_atom_site_symmetry_multiplicity
_atom_site_Wyckoff_symbol
_atom_site_fract_x
_atom_site_fract_y
_atom_site_fract_z
_atom_site_B_iso_or_equiv
_atom_site_occupancy
_atom_site_attached_hydrogens
Li1 Li1+ 4 e 0.0003(3) 0.1646(3) 0.40627(18) 0.0217(5) 1 0
Li2 Li1+ 4 e 0.1006(3) 0.8171(3) 0.29510(18) 0.0213(5) 1 0
Li3 Li1+ 4 e 0.1033(4) 0.1192(3) 0.18282(19) 0.0243(5) 1 0
Li4 Li1+ 4 e 0.3056(3) 0.1339(3) 0.01802(17) 0.0216(5) 1 0
Li5 Li1+ 4 e 0.6260(4) 0.2962(3) 0.01483(17) 0.0224(5) 1 0
S1 S6+ 4 e 0.19769(4) 0.38030(3) 0.11194(2) 0.01034(7) 1 0
S2 S6+ 4 e 0.23619(4) 0.62113(3) 0.62210(2) 0.01149(7) 1 0
S3 S6+ 4 e 0.31706(4) 0.05196(3) 0.36210(2) 0.01101(7) 1 0
S4 S6+ 4 e 0.68908(4) 0.05833(3) 0.13813(2) 0.01040(7) 1 0
O1 O2- 4 e 0.11397(13) 0.31391(10) 0.17293(7) 0.01930(19) 1 0
O2 O2- 4 e 0.18423(12) 0.29989(9) 0.03045(6) 0.01611(18) 1 0
O3 O2- 4 e 0.13815(14) 0.51304(10) 0.08984(7) 0.0210(2) 1 0
O4 O2- 4 e 0.11778(13) 0.83641(12) 0.17331(7) 0.0240(2) 1 0
O5 O2- 4 e 0.20391(13) 0.01684(9) 0.09464(7) 0.01821(18) 1 0
O6 O2- 4 e 0.22325(14) 0.79045(10) 0.04638(7) 0.0224(2) 1 0
O7 O2- 4 e 0.44029(14) 0.11681(11) 0.43592(7) 0.0219(2) 1 0
O8 O2- 4 e 0.15353(12) 0.12323(10) 0.32652(7) 0.01830(19) 1 0
O9 O2- 4 e 0.71688(13) 0.41520(10) 0.11732(7) 0.01777(18) 1 0
O10 O2- 4 e 0.14875(12) 0.63300(10) 0.33411(7) 0.01618(17) 1 0
O11 O2- 4 e 0.28941(14) 0.43017(10) 0.39768(7) 0.02008(19) 1 0
O12 O2- 4 e 0.55308(13) 0.13725(10) 0.07639(7) 0.0200(2) 1 0
O13 O2- 4 e 0.39425(11) 0.38207(9) 0.16214(6) 0.01514(17) 1 0
O14 O2- 4 e 0.57605(12) 0.36632(9) 0.31554(7) 0.01534(17) 1 0
O15 O2- 4 e 0.38823(13) 0.05049(9) 0.27787(6) 0.01599(18) 1 0
O16 O2- 4 e 0.63993(13) 0.04265(10) 0.22773(6) 0.01616(18) 1 0
B1 B3+ 4 e 0.48362(16) 0.45982(14) 0.24338(8) 0.0115(2) 1 0
loop_
_atom_site_aniso_label
_atom_site_aniso_type_symbol
_atom_site_aniso_U_11
_atom_site_aniso_U_22
_atom_site_aniso_U_33
_atom_site_aniso_U_12
_atom_site_aniso_U_13
_atom_site_aniso_U_23
Li1 Li1+ 0.0218(12) 0.0198(11) 0.0238(12) -0.0001(9) 0.0062(9) 0.0004(9)
Li2 Li1+ 0.0220(11) 0.0221(12) 0.0229(11) -0.0008(9) 0.0115(9) 0.0029(9)
Li3 Li1+ 0.0260(13) 0.0214(12) 0.0285(13) 0.0043(10) 0.0126(10) 0.0020(10)
Li4 Li1+ 0.0222(12) 0.0222(12) 0.0210(11) 0.0039(9) 0.0063(9) -0.0031(9)
Li5 Li1+ 0.0265(13) 0.0203(11) 0.0191(11) 0.0046(9) 0.0029(9) -0.0008(9)
S1 S6+ 0.01022(12) 0.01046(13) 0.01093(12) -0.00027(9) 0.00372(9) 0.00010(9)
S2 S6+ 0.01068(12) 0.01188(13) 0.01259(12) 0.00175(9) 0.00414(9) -0.00007(9)
S3 S6+ 0.01045(12) 0.01264(13) 0.01032(12) 0.00022(9) 0.00324(9) 0.00009(9)
S4 S6+ 0.01041(12) 0.01170(13) 0.00976(12) -0.00135(9) 0.00372(9) 0.00074(9)
O1 O2- 0.0188(4) 0.0221(5) 0.0210(4) -0.0040(4) 0.0126(4) 0.0019(4)
O2 O2- 0.0186(4) 0.0167(4) 0.0127(4) 0.0000(3) 0.0034(3) -0.0040(3)
O3 O2- 0.0264(5) 0.0131(4) 0.0222(4) 0.0065(4) 0.0032(4) 0.0019(3)
O4 O2- 0.0160(4) 0.0376(6) 0.0210(5) -0.0063(4) 0.0096(4) 0.0064(4)
O5 O2- 0.0202(5) 0.0125(4) 0.0219(4) 0.0014(3) 0.0049(4) 0.0032(3)
O6 O2- 0.0251(5) 0.0211(5) 0.0200(4) 0.0011(4) 0.0031(4) -0.0085(4)
O7 O2- 0.0223(5) 0.0259(5) 0.0151(4) -0.0057(4) -0.0001(4) -0.0044(4)
O8 O2- 0.0140(4) 0.0233(5) 0.0186(4) 0.0069(3) 0.0059(3) 0.0042(3)
O9 O2- 0.0204(5) 0.0149(4) 0.0189(4) 0.0020(3) 0.0067(4) -0.0042(3)
O10 O2- 0.0119(4) 0.0189(4) 0.0189(4) 0.0051(3) 0.0059(3) 0.0010(3)
O11 O2- 0.0269(5) 0.0156(4) 0.0203(4) 0.0005(4) 0.0105(4) 0.0052(3)
O12 O2- 0.0156(4) 0.0213(5) 0.0208(4) 0.0013(3) 0.0003(3) 0.0077(4)
O13 O2- 0.0094(4) 0.0197(4) 0.0167(4) 0.0000(3) 0.0036(3) -0.0060(3)
O14 O2- 0.0109(4) 0.0138(4) 0.0203(4) -0.0008(3) 0.0019(3) 0.0037(3)
O15 O2- 0.0212(4) 0.0157(4) 0.0147(4) 0.0062(3) 0.0113(3) 0.0034(3)
O16 O2- 0.0194(4) 0.0191(4) 0.0124(4) -0.0077(3) 0.0088(3) -0.0016(3)
B1 B3+ 0.0113(5) 0.0119(5) 0.0122(5) 0.0004(4) 0.0047(4) -0.0010(4)
#End of TTdata_428002-ICSD