
#(C) 2017 by FIZ Karlsruhe - Leibniz Institute for Information Infrastructure.  All rights reserved.
data_428177-ICSD
_database_code_ICSD 428177
_audit_creation_date 2015-08-01
_chemical_name_systematic 'Lithium antimony(III) tetrafluoride'
_chemical_formula_structural 'Li Sb F4'
_chemical_formula_sum 'F4 Li1 Sb1'
_exptl_crystal_density_diffrn 4.14
_cell_measurement_temperature 296.
_publ_section_title

;
Synthesis, crystal structure and ion mobility in the complex fluorides of
antimony(III) with the lithium cation
;
loop_
_citation_id
_citation_journal_full
_citation_year
_citation_journal_volume
_citation_page_first
_citation_page_last
_citation_journal_id_ASTM
primary 'Journal of Fluorine Chemistry' 2014 168 184 188 JFLCAR
loop_
_publ_author_name
'Makarenko, N.V.'
'Udovenko, A.A.'
'Zemnukhova, L.A.'
'Kavun, V.Ya.'
'Polyantsev, M.M.'
_cell_length_a 6.8999(3)
_cell_length_b 6.8999(3)
_cell_length_c 6.8999(3)
_cell_angle_alpha 90.
_cell_angle_beta 90.
_cell_angle_gamma 90.
_cell_volume 328.49
_cell_formula_units_Z 4
_symmetry_space_group_name_H-M 'P 21 3'
_symmetry_Int_Tables_number 198
_refine_ls_R_factor_all 0.0254
loop_
_symmetry_equiv_pos_site_id
_symmetry_equiv_pos_as_xyz
1 '-z+1/2, -x, y+1/2'
2 '-y+1/2, -z, x+1/2'
3 '-x+1/2, -y, z+1/2'
4 '-z, x+1/2, -y+1/2'
5 '-y, z+1/2, -x+1/2'
6 '-x, y+1/2, -z+1/2'
7 'z+1/2, -x+1/2, -y'
8 'y+1/2, -z+1/2, -x'
9 'x+1/2, -y+1/2, -z'
10 'z, x, y'
11 'y, z, x'
12 'x, y, z'
loop_
_atom_type_symbol
_atom_type_oxidation_number
Sb3+ 3
Li1+ 1
F1- -1
loop_
_atom_site_label
_atom_site_type_symbol
_atom_site_symmetry_multiplicity
_atom_site_Wyckoff_symbol
_atom_site_fract_x
_atom_site_fract_y
_atom_site_fract_z
_atom_site_B_iso_or_equiv
_atom_site_occupancy
_atom_site_attached_hydrogens
Sb1 Sb3+ 4 a 0.154851(11) 0.654851(11) 0.845149(11) 0.01727(3) 1 0
Li1 Li1+ 4 a 0.1665(5) 0.8335(5) 0.3335(5) 0.0208(8) 1 0
F1 F1- 12 b 0.1295(3) 0.7124(2) 0.56901(17) 0.0291(2) 1 0
F2 F1- 4 a 0.3223(2) 0.6777(2) 0.1777(2) 0.0380(6) 1 0
loop_
_atom_site_aniso_label
_atom_site_aniso_type_symbol
_atom_site_aniso_U_11
_atom_site_aniso_U_22
_atom_site_aniso_U_33
_atom_site_aniso_U_12
_atom_site_aniso_U_13
_atom_site_aniso_U_23
Sb1 Sb3+ 0.01727(3) 0.01727(3) 0.01727(3) -0.00238(2) 0.00238(2) 0.00238(2)
Li1 Li1+ 0.0208(8) 0.0208(8) 0.0208(8) 0.0011(9) 0.0011(9) -0.0011(9)
F1 F1- 0.0405(7) 0.0300(5) 0.0169(3) -0.0014(5) -0.0017(4) 0.0065(3)
F2 F1- 0.0380(6) 0.0380(6) 0.0380(6) 0.0105(5) 0.0105(5) -0.0105(5)
#End of TTdata_428177-ICSD