
#(C) 2018 by FIZ Karlsruhe - Leibniz Institute for Information Infrastructure.  All rights reserved.
data_428404-ICSD
_database_code_ICSD 428404
_audit_creation_date 2015-08-01
_chemical_name_systematic 'Lithium iron orthophosphate fluoride'
_chemical_formula_structural 'Li Fe (P O4) F'
_chemical_formula_sum 'F1 Fe1 Li1 O4 P1'
_exptl_crystal_density_diffrn 3.38
_cell_measurement_temperature 298.15
_publ_section_title

;
Synthesis, crystal structure and electrochemical properties of Li Fe P O4 F
cathode material for Li-ion batteries
;
loop_
_citation_id
_citation_journal_full
_citation_year
_citation_journal_volume
_citation_page_first
_citation_page_last
_citation_journal_id_ASTM
primary 'Electrochimica Acta' 2014 147 663 668 ELCAAV
loop_
_publ_author_name
'Chen, D.'
'Shao, G.Q.'
'Li, B.'
'Zhao, G.G.'
'Li, J.'
'Liu, J.H.'
'Gao, Z.S.'
'Zhang, H.F.'
_cell_length_a 5.2985(2)
_cell_length_b 7.2580(2)
_cell_length_c 5.1516(2)
_cell_angle_alpha 107.952(3)
_cell_angle_beta 98.493(3)
_cell_angle_gamma 107.316(4)
_cell_volume 173.56
_cell_formula_units_Z 2
_symmetry_space_group_name_H-M 'P -1'
_symmetry_Int_Tables_number 2
_refine_ls_R_factor_all 0.0117
loop_
_symmetry_equiv_pos_site_id
_symmetry_equiv_pos_as_xyz
1 '-x, -y, -z'
2 'x, y, z'
loop_
_atom_type_symbol
_atom_type_oxidation_number
Li1+ 1
Fe3+ 3
P5+ 5
O2- -2
F1- -1
O2- -2
loop_
_atom_site_label
_atom_site_type_symbol
_atom_site_symmetry_multiplicity
_atom_site_Wyckoff_symbol
_atom_site_fract_x
_atom_site_fract_y
_atom_site_fract_z
_atom_site_B_iso_or_equiv
_atom_site_occupancy
_atom_site_attached_hydrogens
Li1 Li1+ 2 i 0.6016(7) 0.1852(6) 0.2289(3) 0.0233(8) 0.25 0
Li2 Li1+ 2 i 0.6288(7) 0.2978(6) 0.2539(3) 0.0233(8) 0.75 0
Fe1 Fe3+ 1 a 0. 0. 0. 0.0174(12) 1. 0
Fe2 Fe3+ 1 c 0. 0.5 0. 0.0174(12) 1. 0
P1 P5+ 2 i 0.6434(13) 0.7500(12) 0.3258(13) 0.026(3) 1. 0
O1 O2- 2 i 0.3531(11) 0.6421(9) 0.3138(8) 0.029(3) 1. 0
O2 O2- 2 i 0.6620(11) 0.8640(9) 0.1032(8) 0.029(3) 1. 0
F1 F1- 2 i 0.9160(11) 0.2620(9) 0.1141(8) 0.029(3) 1. 0
O3 O2- 2 i 0.2375(11) 0.0799(9) 0.3695(8) 0.029(3) 1. 0
O4 O2- 2 i 0.7933(11) 0.5990(9) 0.2751(8) 0.029(3) 1. 0
#End of TTdata_428404-ICSD