
#(C) 2018 by FIZ Karlsruhe - Leibniz Institute for Information Infrastructure.  All rights reserved.
data_428412-ICSD
_database_code_ICSD 428412
_audit_creation_date 2015-08-01
_chemical_name_systematic 'Dilithium iron(II) orthophosphate fluoride'
_chemical_formula_structural 'Li2 Fe (P O4) F'
_chemical_formula_sum 'F1 Fe1 Li2 O4 P1'
_exptl_crystal_density_diffrn 3.23
_cell_measurement_temperature 298.15
_publ_section_title

;
Synthesis, crystal structure and electrochemical properties of Li Fe P O4 F
cathode material for Li-ion batteries
;
loop_
_citation_id
_citation_journal_full
_citation_year
_citation_journal_volume
_citation_page_first
_citation_page_last
_citation_journal_id_ASTM
primary 'Electrochimica Acta' 2014 147 663 668 ELCAAV
loop_
_publ_author_name
'Chen, D.'
'Shao, G.Q.'
'Li, B.'
'Zhao, G.G.'
'Li, J.'
'Liu, J.H.'
'Gao, Z.S.'
'Zhang, H.F.'
_cell_length_a 5.4120(13)
_cell_length_b 7.4492(10)
_cell_length_c 5.3318(12)
_cell_angle_alpha 108.84(2)
_cell_angle_beta 94.19(2)
_cell_angle_gamma 108.75(2)
_cell_volume 188.85
_cell_formula_units_Z 2
_symmetry_space_group_name_H-M 'P -1'
_symmetry_Int_Tables_number 2
_refine_ls_R_factor_all 0.0214
loop_
_symmetry_equiv_pos_site_id
_symmetry_equiv_pos_as_xyz
1 '-x, -y, -z'
2 'x, y, z'
loop_
_atom_type_symbol
_atom_type_oxidation_number
Fe2+ 2
P5+ 5
O2- -2
F1- -1
Li1+ 1
loop_
_atom_site_label
_atom_site_type_symbol
_atom_site_symmetry_multiplicity
_atom_site_Wyckoff_symbol
_atom_site_fract_x
_atom_site_fract_y
_atom_site_fract_z
_atom_site_B_iso_or_equiv
_atom_site_occupancy
_atom_site_attached_hydrogens
Fe1 Fe2+ 1 a 0. 0. 0. 0.023(2) 1. 0
Fe2 Fe2+ 1 c 0. 0.5 0. 0.023(2) 1. 0
P1 P5+ 2 i 0.520(4) 0.740(3) 0.342(4) 0.023(2) 1. 0
O1 O2- 2 i 0.562(3) 0.888(3) 0.145(2) 0.023(2) 1. 0
O2 O2- 2 i 0.240(3) 0.657(3) 0.307(2) 0.023(2) 1. 0
O3 O2- 2 i 0.695(3) 0.642(3) 0.302(2) 0.023(2) 1. 0
O4 O2- 2 i 0.183(3) 0.119(3) 0.363(2) 0.023(2) 1. 0
F1 F1- 2 i 0.793(3) 0.284(3) 0.169(2) 0.023(2) 1. 0
Li1 Li1+ 2 i 0.375(5) 0.653(5) 0.731(3) 0.023(2) 1. 0
Li2 Li1+ 1 g 0. 0.5 0.5 0.023(2) 1. 0
Li3 Li1+ 2 i 0.022(5) 0.798(5) 0.509(3) 0.023(2) 0.5 0
#End of TTdata_428412-ICSD