
#(C) 2017 by FIZ Karlsruhe - Leibniz Institute for Information Infrastructure.  All rights reserved.
data_428536-ICSD
_database_code_ICSD 428536
_audit_creation_date 2015-08-01
_chemical_name_systematic 'Lithium potassium thulium pentafluoride'
_chemical_formula_structural 'Li K Tm F5'
_chemical_formula_sum 'F5 K1 Li1 Tm1'
_exptl_crystal_density_diffrn 5.01
_cell_measurement_temperature 293.
_cell_measurement_pressure 2980000.
_publ_section_title

;
Crystal structure and high-pressure stability of hydrothermally grown Li K Tm
F5
;
loop_
_citation_id
_citation_journal_full
_citation_year
_citation_journal_volume
_citation_page_first
_citation_page_last
_citation_journal_id_ASTM
primary 'Solid State Sciences' 2015 39 40 44 SSSCFJ
loop_
_publ_author_name
'Grzechnik, Andrzej'
'Comer, Sara'
'Kolis, Joseph W.'
'Friese, Karen'
_cell_length_a 6.3320(8)
_cell_length_b 11.489(2)
_cell_length_c 6.1469(8)
_cell_angle_alpha 90
_cell_angle_beta 113.207(9)
_cell_angle_gamma 90
_cell_volume 410.99
_cell_formula_units_Z 4
_symmetry_space_group_name_H-M 'P 1 21/c 1'
_symmetry_Int_Tables_number 14
_refine_ls_R_factor_all 0.0267
loop_
_symmetry_equiv_pos_site_id
_symmetry_equiv_pos_as_xyz
1 'x, -y+1/2, z+1/2'
2 '-x, -y, -z'
3 '-x, y+1/2, -z+1/2'
4 'x, y, z'
loop_
_atom_type_symbol
_atom_type_oxidation_number
Tm3+ 3
K1+ 1
F1- -1
Li1+ 1
loop_
_atom_site_label
_atom_site_type_symbol
_atom_site_symmetry_multiplicity
_atom_site_Wyckoff_symbol
_atom_site_fract_x
_atom_site_fract_y
_atom_site_fract_z
_atom_site_B_iso_or_equiv
_atom_site_occupancy
_atom_site_attached_hydrogens
Tm1 Tm3+ 4 e 0.68386(13) 0.0025(4) 0.32033(13) 0.0094(6) 1 0
K1 K1+ 4 e 1.0578(7) 0.1505(13) 0.0463(7) 0.0145(15) 1 0
F1 F1- 4 e 0.6631(17) 0.031(3) -0.0530(17) 0.0124(15) 1 0
F2 F1- 4 e 1.0458(16) -0.009(4) 0.3257(16) 0.0124(15) 1 0
F3 F1- 4 e 0.7354(19) 0.307(3) -0.2162(18) 0.0124(15) 1 0
F4 F1- 4 e 1.4628(19) 0.109(2) 0.4626(19) 0.0124(15) 1 0
F5 F1- 4 e 1.2940(18) 0.319(3) 0.2848(19) 0.0124(15) 1 0
Li1 Li1+ 4 e 0.564(7) 0.260(9) 0.463(6) 0.021 1 0
#End of TTdata_428536-ICSD