
#(C) 2017 by FIZ Karlsruhe - Leibniz Institute for Information Infrastructure.  All rights reserved.
data_428538-ICSD
_database_code_ICSD 428538
_audit_creation_date 2015-08-01
_chemical_name_systematic 'Lithium potassium thulium pentafluoride'
_chemical_formula_structural 'Li K Tm F5'
_chemical_formula_sum 'F5 K1 Li1 Tm1'
_exptl_crystal_density_diffrn 4.78
_cell_measurement_temperature 293.
_publ_section_title

;
Crystal structure and high-pressure stability of hydrothermally grown Li K Tm
F5
;
loop_
_citation_id
_citation_journal_full
_citation_year
_citation_journal_volume
_citation_page_first
_citation_page_last
_citation_journal_id_ASTM
primary 'Solid State Sciences' 2015 39 40 44 SSSCFJ
loop_
_publ_author_name
'Grzechnik, Andrzej'
'Comer, Sara'
'Kolis, Joseph W.'
'Friese, Karen'
_cell_length_a 6.4220(4)
_cell_length_b 11.7139(5)
_cell_length_c 6.2586(4)
_cell_angle_alpha 90
_cell_angle_beta 113.749(4)
_cell_angle_gamma 90
_cell_volume 430.94
_cell_formula_units_Z 4
_symmetry_space_group_name_H-M 'P 1 21/c 1'
_symmetry_Int_Tables_number 14
_refine_ls_R_factor_all 0.0289
loop_
_symmetry_equiv_pos_site_id
_symmetry_equiv_pos_as_xyz
1 'x, -y+1/2, z+1/2'
2 '-x, -y, -z'
3 '-x, y+1/2, -z+1/2'
4 'x, y, z'
loop_
_atom_type_symbol
_atom_type_oxidation_number
Tm3+ 3
K1+ 1
F1- -1
Li1+ 1
loop_
_atom_site_label
_atom_site_type_symbol
_atom_site_symmetry_multiplicity
_atom_site_Wyckoff_symbol
_atom_site_fract_x
_atom_site_fract_y
_atom_site_fract_z
_atom_site_B_iso_or_equiv
_atom_site_occupancy
_atom_site_attached_hydrogens
Tm1 Tm3+ 4 e 0.68251(3) 0.00199(2) 0.32020(3) 0.00946(7) 1 0
K1 K1+ 4 e 1.0511(2) 0.15129(12) 0.0380(2) 0.0184(4) 1 0
F1 F1- 4 e 0.6644(6) 0.0308(3) -0.0491(6) 0.0174(10) 1 0
F2 F1- 4 e 1.0445(5) -0.0086(3) 0.3266(5) 0.0164(10) 1 0
F3 F1- 4 e 0.7247(6) 0.3060(3) -0.2219(6) 0.0163(11) 1 0
F4 F1- 4 e 1.4664(6) 0.1046(3) 0.4666(6) 0.0166(12) 1 0
F5 F1- 4 e 1.2905(6) 0.3251(3) 0.2800(6) 0.0179(11) 1 0
Li1 Li1+ 4 e 1.558(2) 0.2543(10) 0.461(2) 0.021(3) 1 0
loop_
_atom_site_aniso_label
_atom_site_aniso_type_symbol
_atom_site_aniso_U_11
_atom_site_aniso_U_22
_atom_site_aniso_U_33
_atom_site_aniso_U_12
_atom_site_aniso_U_13
_atom_site_aniso_U_23
Tm1 Tm3+ 0.00893(10) 0.01030(10) 0.00869(10) -0.00025(9) 0.00307(6) -0.00006(10)
K1 K1+ 0.0197(5) 0.0177(5) 0.0195(5) -0.0005(4) 0.0098(4) -0.0005(4)
F1 F1- 0.0138(14) 0.0272(17) 0.0117(13) -0.0036(12) 0.0057(12) 0.0007(12)
F2 F1- 0.0121(12) 0.0255(18) 0.0128(12) -0.0013(14) 0.0062(10) -0.0012(14)
F3 F1- 0.0203(16) 0.0094(14) 0.0193(16) 0.0004(12) 0.0082(14) -0.0011(12)
F4 F1- 0.0212(18) 0.0111(13) 0.0220(18) 0.0006(12) 0.0136(15) 0.0031(12)
F5 F1- 0.0175(16) 0.0149(16) 0.0225(17) 0.0004(13) 0.0092(13) 0.0033(13)
Li1 Li1+ 0.019(5) 0.021(5) 0.021(5) 0.001(4) 0.007(4) -0.002(4)
#End of TTdata_428538-ICSD