
#(C) 2018 by FIZ Karlsruhe - Leibniz Institute for Information Infrastructure.  All rights reserved.
data_429483-ICSD
_database_code_ICSD 429483
_audit_creation_date 2016-08-01
_chemical_name_systematic 'Dicesium lithium neodymium bis(orthoborate)'
_chemical_formula_structural 'Cs2 Li Nd (B O3)2'
_chemical_formula_sum 'B2 Cs2 Li1 Nd1 O6'
_exptl_crystal_density_diffrn 4.78
_cell_measurement_temperature 296.
_publ_section_title

;
Mixed alkali neodymium orthoborates: K9Li3Nd3(BO3)7 and A2LiNd(BO3)2 (A = Rb,
Cs)
;
loop_
_citation_id
_citation_journal_full
_citation_year
_citation_journal_volume
_citation_page_first
_citation_page_last
_citation_journal_id_ASTM
primary 'Zeitschrift fuer Anorganische und Allgemeine Chemie (1950) (DE)' 2016
642 424 430 ZAACAB
loop_
_publ_author_name
'Chen, Pengyun'
'Xia, Mingjun'
'Li, Rukang'
_cell_length_a 7.2113(3)
_cell_length_b 9.9621(4)
_cell_length_c 10.3347(4)
_cell_angle_alpha 90.
_cell_angle_beta 90.
_cell_angle_gamma 90.
_cell_volume 742.44
_cell_formula_units_Z 4
_symmetry_space_group_name_H-M 'P b c m'
_symmetry_Int_Tables_number 57
_refine_ls_R_factor_all 0.0166
loop_
_symmetry_equiv_pos_site_id
_symmetry_equiv_pos_as_xyz
1 'x, -y+1/2, z+1/2'
2 '-x, y+1/2, z'
3 'x, y, -z+1/2'
4 '-x, -y, -z'
5 '-x, y+1/2, -z+1/2'
6 'x, -y+1/2, -z'
7 '-x, -y, z+1/2'
8 'x, y, z'
loop_
_atom_type_symbol
_atom_type_oxidation_number
Nd3+ 3
Cs1+ 1
O2- -2
B3+ 3
Li1+ 1
loop_
_atom_site_label
_atom_site_type_symbol
_atom_site_symmetry_multiplicity
_atom_site_Wyckoff_symbol
_atom_site_fract_x
_atom_site_fract_y
_atom_site_fract_z
_atom_site_B_iso_or_equiv
_atom_site_occupancy
_atom_site_attached_hydrogens
Nd1 Nd3+ 4 d 0.14150(4) 0.22692(3) 0.25 0.00617(14) 1 0
Cs1 Cs1+ 8 e -0.27565(4) 0.07769(3) 0.44692(2) 0.01640(14) 1 0
O1 O2- 4 d -0.0202(5) -0.0126(4) 0.25 0.0142(8) 1 0
O2 O2- 4 c 0.1167(5) 0.25 0.5 0.0139(8) 1 0
O3 O2- 4 d -0.1777(5) 0.2946(4) 0.25 0.0100(8) 1 0
O4 O2- 4 d 0.3073(5) 0.0147(4) 0.25 0.0160(8) 1 0
O5 O2- 8 e 0.3980(4) 0.2883(3) 0.1112(2) 0.0109(6) 1 0
B1 B3+ 4 c 0.3078(9) 0.25 0.5 0.0069(11) 1 0
B2 B3+ 4 d 0.1544(9) -0.0687(6) 0.25 0.0084(12) 1 0
Li1 Li1+ 4 d 0.5515(13) 0.3379(9) 0.25 0.0111(18) 1 0
loop_
_atom_site_aniso_label
_atom_site_aniso_type_symbol
_atom_site_aniso_U_11
_atom_site_aniso_U_22
_atom_site_aniso_U_33
_atom_site_aniso_U_12
_atom_site_aniso_U_13
_atom_site_aniso_U_23
Nd1 Nd3+ 0.00272(19) 0.0076(2) 0.00823(19) -0.00020(10) 0. 0.
Cs1 Cs1+ 0.0198(2) 0.0112(2) 0.0182(2) 0.00078(9) 0.00930(10) -0.00017(8)
O1 O2- 0.011(2) 0.016(2) 0.0153(19) 0.0050(16) 0. 0.
O2 O2- 0.0074(19) 0.023(2) 0.012(2) 0. 0. 0.0035(16)
O3 O2- 0.0039(18) 0.0088(18) 0.0174(19) -0.0009(15) 0. 0.
O4 O2- 0.010(2) 0.0084(19) 0.029(2) 0.0003(16) 0. 0.
O5 O2- 0.0088(13) 0.0157(15) 0.0081(13) -0.0019(11) 0.0002(11) 0.0002(10)
B1 B3+ 0.011(3) 0.004(3) 0.006(3) 0. 0. -0.002(2)
B2 B3+ 0.007(3) 0.010(3) 0.008(3) 0.003(2) 0. 0.
Li1 Li1+ 0.009(4) 0.012(5) 0.012(4) -0.003(3) 0. 0.
#End of TTdata_429483-ICSD