
#(C) 2018 by FIZ Karlsruhe - Leibniz Institute for Information Infrastructure.  All rights reserved.
data_429872-ICSD
_database_code_ICSD 429872
_audit_creation_date 2016-02-01
_chemical_name_systematic Hexanitridodilithiodialumodisilicate
_chemical_formula_structural 'Ba (Li2 (Al2 Si2) N6)'
_chemical_formula_sum 'Al2 Ba1 Li2 N6 Si2'
_exptl_crystal_density_diffrn 3.76
_cell_measurement_temperature 297.
_publ_section_title

;
Narrow-band green emitting nitridolithoalumosilicate Ba [Li2 (Al2 Si2) N6] :
Eu2+ with framework topology whj for LED/LCD-backlighting applications
;
loop_
_citation_id
_citation_journal_full
_citation_year
_citation_journal_volume
_citation_page_first
_citation_page_last
_citation_journal_id_ASTM
primary 'Chemistry of Materials' 2015 27 6109 6115 CMATEX
loop_
_publ_author_name
'Strobel, Philipp'
'Schmiechen, Sebastian'
'Siegert, Markus'
'Tuecks, Andreas'
'Schmidt, Peter J.'
'Schnick, Wolfgang'
_cell_length_a 7.8282(4)
_cell_length_b 7.8282(4)
_cell_length_c 9.9557(5)
_cell_angle_alpha 90
_cell_angle_beta 90
_cell_angle_gamma 90
_cell_volume 610.09
_cell_formula_units_Z 4
_symmetry_space_group_name_H-M 'P 4/n c c Z'
_symmetry_Int_Tables_number 130
_refine_ls_R_factor_all 0.0126
loop_
_symmetry_equiv_pos_site_id
_symmetry_equiv_pos_as_xyz
1 'y+1/2, x+1/2, -z+1/2'
2 '-y, x+1/2, -z'
3 'y+1/2, -x, -z'
4 '-y, -x, -z+1/2'
5 'x+1/2, y+1/2, -z'
6 '-x, y+1/2, -z+1/2'
7 'x+1/2, -y, -z+1/2'
8 '-x, -y, -z'
9 '-y+1/2, -x+1/2, z+1/2'
10 'y, -x+1/2, z'
11 '-y+1/2, x, z'
12 'y, x, z+1/2'
13 '-x+1/2, -y+1/2, z'
14 'x, -y+1/2, z+1/2'
15 '-x+1/2, y, z+1/2'
16 'x, y, z'
loop_
_atom_type_symbol
_atom_type_oxidation_number
Ba2+ 2
Si4+ 4
Al3+ 3
Li1+ 1
N3- -3
loop_
_atom_site_label
_atom_site_type_symbol
_atom_site_symmetry_multiplicity
_atom_site_Wyckoff_symbol
_atom_site_fract_x
_atom_site_fract_y
_atom_site_fract_z
_atom_site_B_iso_or_equiv
_atom_site_occupancy
_atom_site_attached_hydrogens
Ba1 Ba2+ 4 c 0.25 0.25 0.34015(2) 0.01036(11) 1 0
Si1 Si4+ 16 g 0.12181(8) 0.53289(8) 0.08251(5) 0.00523(15) 0.5 0
Al1 Al3+ 16 g 0.12181(8) 0.53289(8) 0.08251(5) 0.00523(15) 0.5 0
Li1 Li1+ 8 f 0.3670(5) 0.6330(5) 0.25 0.0134(10) 1 0
N1 N3- 16 g 0.5056(3) 0.1569(2) 0.04291(17) 0.0107(4) 1 0
N2 N3- 8 f 0.5963(2) 0.4037(2) 0.25 0.0123(5) 1 0
loop_
_atom_site_aniso_label
_atom_site_aniso_type_symbol
_atom_site_aniso_U_11
_atom_site_aniso_U_22
_atom_site_aniso_U_33
_atom_site_aniso_U_12
_atom_site_aniso_U_13
_atom_site_aniso_U_23
Ba1 Ba2+ 0.00936(13) 0.00936(13) 0.01235(16) 0. 0. 0.
Si1 Si4+ 0.0042(3) 0.0067(3) 0.0048(3) -0.0005(2) 0.0003(2) -0.0006(2)
Al1 Al3+ 0.0042(3) 0.0067(3) 0.0048(3) -0.0005(2) 0.0003(2) -0.0006(2)
Li1 Li1+ 0.0129(15) 0.0129(15) 0.015(2) -0.004(2) -0.0001(15) -0.0001(15)
N1 N3- 0.0125(9) 0.0078(8) 0.0119(9) -0.0011(7) -0.0025(7) -0.0007(7)
N2 N3- 0.0134(8) 0.0134(8) 0.0100(12) 0.0019(10) -0.0002(8) -0.0002(8)
#End of TTdata_429872-ICSD