
#(C) 2018 by FIZ Karlsruhe - Leibniz Institute for Information Infrastructure.  All rights reserved.
data_430275-ICSD
_database_code_ICSD 430275
_audit_creation_date 2016-08-01
_chemical_name_systematic 'Lithium potassium bis-dicyanamide'
_chemical_formula_structural 'Li K (N (C N)2)2'
_chemical_formula_sum 'C4 K1 Li1 N6'
_exptl_crystal_density_diffrn 1.7
_cell_measurement_temperature 223.
_publ_section_title

;
Synthesis and single-crystal structure of the pseudo-ternary compounds Li A [N
(C N)2]2 (A = K or Rb)
;
loop_
_citation_id
_citation_journal_full
_citation_year
_citation_journal_volume
_citation_page_first
_citation_page_last
_citation_journal_id_ASTM
primary 'Zeitschrift fuer Naturforschung, B: Chemical Sciences' 2016 71 157 160
ZNBSEN
loop_
_publ_author_name
'Reckeweg, Olaf'
'DiSalvo, Francis J.'
_cell_length_a 7.0153(12)
_cell_length_b 7.0153(12)
_cell_length_c 14.137(5)
_cell_angle_alpha 90.
_cell_angle_beta 90.
_cell_angle_gamma 90.
_cell_volume 695.74
_cell_formula_units_Z 4
_symmetry_space_group_name_H-M 'I 4/m c m'
_symmetry_Int_Tables_number 140
_refine_ls_R_factor_all 0.0467
loop_
_symmetry_equiv_pos_site_id
_symmetry_equiv_pos_as_xyz
1 'y, x, -z+1/2'
2 '-y, -x, -z+1/2'
3 '-y, x, -z'
4 'y, -x, -z'
5 'x, -y, -z+1/2'
6 '-x, y, -z+1/2'
7 'x, y, -z'
8 '-x, -y, -z'
9 '-y, -x, z+1/2'
10 'y, x, z+1/2'
11 'y, -x, z'
12 '-y, x, z'
13 '-x, y, z+1/2'
14 'x, -y, z+1/2'
15 '-x, -y, z'
16 'x, y, z'
17 'y+1/2, x+1/2, -z'
18 '-y+1/2, -x+1/2, -z'
19 '-y+1/2, x+1/2, -z+1/2'
20 'y+1/2, -x+1/2, -z+1/2'
21 'x+1/2, -y+1/2, -z'
22 '-x+1/2, y+1/2, -z'
23 'x+1/2, y+1/2, -z+1/2'
24 '-x+1/2, -y+1/2, -z+1/2'
25 '-y+1/2, -x+1/2, z'
26 'y+1/2, x+1/2, z'
27 'y+1/2, -x+1/2, z+1/2'
28 '-y+1/2, x+1/2, z+1/2'
29 '-x+1/2, y+1/2, z'
30 'x+1/2, -y+1/2, z'
31 '-x+1/2, -y+1/2, z+1/2'
32 'x+1/2, y+1/2, z+1/2'
loop_
_atom_type_symbol
_atom_type_oxidation_number
K1+ 1
Li1+ 1
N3- -3
C4+ 4
loop_
_atom_site_label
_atom_site_type_symbol
_atom_site_symmetry_multiplicity
_atom_site_Wyckoff_symbol
_atom_site_fract_x
_atom_site_fract_y
_atom_site_fract_z
_atom_site_B_iso_or_equiv
_atom_site_occupancy
_atom_site_attached_hydrogens
K1 K1+ 4 a 0. 0. 0.25 0.0286(4) 1 0
Li1 Li1+ 4 b 0.5 0. 0.25 0.030(2) 1 0
N1 N3- 8 h 0.2629(4) 0.2371(4) 0. 0.0366(10) 1 0
N2 N3- 16 l 0.1566(3) 0.3434(3) 0.15655(16) 0.0284(6) 1 0
C1 C4+ 16 l 0.1998(3) 0.3002(3) 0.0805(2) 0.0259(7) 1 0
loop_
_atom_site_aniso_label
_atom_site_aniso_type_symbol
_atom_site_aniso_U_11
_atom_site_aniso_U_22
_atom_site_aniso_U_33
_atom_site_aniso_U_12
_atom_site_aniso_U_13
_atom_site_aniso_U_23
K1 K1+ 0.0266(5) 0.0266(5) 0.0325(8) 0. 0. 0.
Li1 Li1+ 0.034(3) 0.034(3) 0.022(5) 0. 0. 0.
N1 N3- 0.0448(16) 0.0448(16) 0.0202(17) 0.018(2) 0. 0.
N2 N3- 0.0313(9) 0.0313(9) 0.0226(13) 0.0015(13) -0.0023(9) 0.0023(9)
C1 C4+ 0.0256(10) 0.0256(10) 0.0265(15) -0.0011(13) -0.0055(10) 0.0055(10)
#End of TTdata_430275-ICSD