
#(C) 2018 by FIZ Karlsruhe - Leibniz Institute for Information Infrastructure.  All rights reserved.
data_430214-ICSD
_database_code_ICSD 430214
_audit_creation_date 2016-08-01
_chemical_name_systematic 'Lithium tetraoxidochlorate(VII) - water (1/1)'
_chemical_formula_structural 'Li Cl O4 (H2 O)'
_chemical_formula_sum 'H2 Cl1 Li1 O5'
_chemical_name_structure_type NaClO4H2O
_exptl_crystal_density_diffrn 2.28
_cell_measurement_temperature 110.
_publ_section_title 'Synthesis and characterization of Li Cl O4 * H2 O'
loop_
_citation_id
_citation_journal_full
_citation_year
_citation_journal_volume
_citation_page_first
_citation_page_last
_citation_journal_id_ASTM
primary 'Monatshefte fuer Chemie' 2016 147 279 288 MOCMB7
loop_
_publ_author_name
'Ivlev, S.I.'
'Akimov, D.V.'
'Egorov, N.B.'
'Kraus, F.'
_cell_length_a 14.2592(6)
_cell_length_b 5.2921(2)
_cell_length_c 10.3382(4)
_cell_angle_alpha 90
_cell_angle_beta 111.765(2)
_cell_angle_gamma 90
_cell_volume 724.51
_cell_formula_units_Z 8
_symmetry_space_group_name_H-M 'C 1 2/c 1'
_symmetry_Int_Tables_number 15
_refine_ls_R_factor_all 0.0257
loop_
_symmetry_equiv_pos_site_id
_symmetry_equiv_pos_as_xyz
1 'x, -y, z+1/2'
2 '-x, -y, -z'
3 '-x, y, -z+1/2'
4 'x, y, z'
5 'x+1/2, -y+1/2, z+1/2'
6 '-x+1/2, -y+1/2, -z'
7 '-x+1/2, y+1/2, -z+1/2'
8 'x+1/2, y+1/2, z'
loop_
_atom_type_symbol
_atom_type_oxidation_number
Cl7+ 7
O2- -2
Li1+ 1
H1+ 1
loop_
_atom_site_label
_atom_site_type_symbol
_atom_site_symmetry_multiplicity
_atom_site_Wyckoff_symbol
_atom_site_fract_x
_atom_site_fract_y
_atom_site_fract_z
_atom_site_B_iso_or_equiv
_atom_site_occupancy
_atom_site_attached_hydrogens
Cl1 Cl7+ 8 f 0.62859(2) 0.46092(4) 0.20545(2) 0.00478(6) 1 0
O1 O2- 8 f 0.70768(6) 0.46245(14) 0.15081(7) 0.01014(13) 1 0
O2 O2- 8 f 0.56899(5) 0.23353(13) 0.16110(7) 0.00894(13) 1 0
O3 O2- 8 f 0.67161(5) 0.46459(13) 0.35623(6) 0.00820(12) 1 0
O4 O2- 8 f 0.56562(6) 0.67978(14) 0.15542(7) 0.01133(13) 1 0
O5 O2- 8 f 0.62227(5) 0.97569(13) 0.43944(7) 0.00740(12) 1 0
Li1 Li1+ 4 d 0.75 0.75 0.5 0.0115(5) 1 0
Li2 Li1+ 4 e 0.5 0.9402(5) 0.25 0.0122(5) 1 0
H1 H1+ 8 f 0.5978(12) 0.966(3) 0.5095(14) 0.018 1 0
H2 H1+ 8 f 0.6404(12) 1.1407(19) 0.4409(17) 0.018 1 0
loop_
_atom_site_aniso_label
_atom_site_aniso_type_symbol
_atom_site_aniso_U_11
_atom_site_aniso_U_22
_atom_site_aniso_U_33
_atom_site_aniso_U_12
_atom_site_aniso_U_13
_atom_site_aniso_U_23
Cl1 Cl7+ 0.00506(11) 0.00477(8) 0.00469(7) -0.00012(6) 0.00202(6) -0.00037(5)
O1 O2- 0.0099(3) 0.0114(3) 0.0131(3) -0.0029(2) 0.0088(2) -0.0031(2)
O2 O2- 0.0097(3) 0.0096(3) 0.0076(2) -0.0055(2) 0.0034(2) -0.00302(19)
O3 O2- 0.0104(3) 0.0080(3) 0.0043(2) -0.0007(2) 0.0005(2) -0.00064(19)
O4 O2- 0.0137(4) 0.0099(3) 0.0095(3) 0.0068(2) 0.0033(2) 0.0022(2)
O5 O2- 0.0075(3) 0.0074(3) 0.0075(2) 0.0002(2) 0.0030(2) 0.00082(19)
Li1 Li1+ 0.0105(12) 0.0109(11) 0.0116(10) 0.0016(9) 0.0023(8) -0.0010(8)
Li2 Li1+ 0.0124(12) 0.0134(12) 0.0096(10) 0. 0.0028(9) 0.
#End of TTdata_430214-ICSD