
#(C) 2018 by FIZ Karlsruhe - Leibniz Institute for Information Infrastructure.  All rights reserved.
data_430518-ICSD
_database_code_ICSD 430518
_audit_creation_date 2016-02-01
_chemical_name_systematic 'Lithium scandium hexaoxodigermanate'
_chemical_formula_structural 'Li Sc Ge2 O6'
_chemical_formula_sum 'Ge2 Li1 O6 Sc1'
_chemical_name_structure_type Pyroxene-MgSiO3-LT
_exptl_crystal_density_diffrn 4.51
_cell_measurement_temperature 293.
_cell_measurement_pressure 9510000.
_publ_section_title

;
High-pressure crystallography and compression behavior of the
alkali-scandium-germanate end-members LiScGe2O6 and NaScGe2O6
;
loop_
_citation_id
_citation_journal_full
_citation_year
_citation_journal_volume
_citation_page_first
_citation_page_last
_citation_journal_id_ASTM
primary 'Journal of Solid State Chemistry' 2015 229 188 196 JSSCBI
loop_
_publ_author_name
'Hofer, Gregor'
'Kuzel, Johann'
'Scheidl, Katharina S.'
'Redhammer, Guenther'
'Miletich, Ronald'
_cell_length_a 9.697(10)
_cell_length_b 8.829(4)
_cell_length_c 5.295(3)
_cell_angle_alpha 90
_cell_angle_beta 108.17(6)
_cell_angle_gamma 90
_cell_volume 430.72
_cell_formula_units_Z 4
_symmetry_space_group_name_H-M 'P 1 21/c 1'
_symmetry_Int_Tables_number 14
_refine_ls_R_factor_all 0.0391
loop_
_symmetry_equiv_pos_site_id
_symmetry_equiv_pos_as_xyz
1 'x, -y+1/2, z+1/2'
2 '-x, -y, -z'
3 '-x, y+1/2, -z+1/2'
4 'x, y, z'
loop_
_atom_type_symbol
_atom_type_oxidation_number
Ge4+ 4
Sc3+ 3
Li1+ 1
O2- -2
loop_
_atom_site_label
_atom_site_type_symbol
_atom_site_symmetry_multiplicity
_atom_site_Wyckoff_symbol
_atom_site_fract_x
_atom_site_fract_y
_atom_site_fract_z
_atom_site_B_iso_or_equiv
_atom_site_occupancy
_atom_site_attached_hydrogens
Ge1 Ge4+ 4 e 0.9492(3) 0.15950(9) 0.1888(4) 0.0118(13) 1 0
Ge2 Ge4+ 4 e 0.5608(3) 0.16526(9) 0.2374(4) 0.0121(13) 1 0
Sc1 Sc3+ 4 e 0.2513(5) 0.35107(16) 0.2059(7) 0.0054(4) 1 0
Li1 Li1+ 4 e 0.738(5) 0.0103(18) -0.213(7) 0.016(4) 1 0
O1 O2- 4 e 0.8852(18) -0.0187(6) 0.193(3) 0.0093(13) 1 0
O2 O2- 4 e 1.1363(18) 0.1673(6) 0.307(3) 0.0070(12) 1 0
O3 O2- 4 e 0.8733(17) 0.2880(7) 0.355(2) 0.0097(13) 1 0
O4 O2- 4 e 0.6320(17) 0.0089(6) 0.411(2) 0.0077(12) 1 0
O5 O2- 4 e 0.3712(18) 0.1675(6) 0.111(3) 0.0071(12) 1 0
O6 O2- 4 e 0.6146(17) 0.1770(6) -0.050(2) 0.0066(12) 1 0
loop_
_atom_site_aniso_label
_atom_site_aniso_type_symbol
_atom_site_aniso_U_11
_atom_site_aniso_U_22
_atom_site_aniso_U_33
_atom_site_aniso_U_12
_atom_site_aniso_U_13
_atom_site_aniso_U_23
Ge1 Ge4+ 0.022(3) 0.0062(4) 0.013(2) -0.0020(6) 0.013(2) -0.0008(5)
Ge2 Ge4+ 0.024(3) 0.0062(4) 0.0121(19) 0.0011(6) 0.014(2) -0.0002(5)
#End of TTdata_430518-ICSD