
#(C) 2018 by FIZ Karlsruhe - Leibniz Institute for Information Infrastructure.  All rights reserved.
data_430533-ICSD
_database_code_ICSD 430533
_audit_creation_date 2017-08-01
_chemical_name_systematic 'Tetraaqualithium tetrahydroxoborate dihydrate'
_chemical_formula_structural 'Li (H2 O)4 B (O H)4 (H2 O)2'
_chemical_formula_sum 'H16 B1 Li1 O10'
_exptl_crystal_density_diffrn 1.4
_cell_measurement_temperature 293.
_publ_section_title

;
Synthesis, structure and properties of nonlinear optical crystal Li (H2O)4 B
(OH)4 * 2 H2O
;
loop_
_citation_id
_citation_journal_full
_citation_year
_citation_journal_volume
_citation_page_first
_citation_page_last
_citation_journal_id_ASTM
primary 'Materials Research Bulletin' 2016 83 423 427 MRBUAC
loop_
_publ_author_name
'Liu, Yaqin'
'Chen, Zhaohui'
'Zhang, Zhizhong'
'Wang, Ying'
'Dong, Xiaoyu'
'Yang, Zhihua'
_cell_length_a 6.5601(4)
_cell_length_b 6.5601(4)
_cell_length_c 6.1748(3)
_cell_angle_alpha 90.
_cell_angle_beta 90.
_cell_angle_gamma 120.
_cell_volume 230.13
_cell_formula_units_Z 1
_symmetry_space_group_name_H-M 'P 3'
_symmetry_Int_Tables_number 143
_refine_ls_R_factor_all 0.0231
loop_
_symmetry_equiv_pos_site_id
_symmetry_equiv_pos_as_xyz
1 '-x+y, -x, z'
2 '-y, x-y, z'
3 'x, y, z'
loop_
_atom_type_symbol
_atom_type_oxidation_number
O2- -2
H1+ 1
O2- -2
H1+ 1
B3+ 3
O2- -2
H1+ 1
O2- -2
H1+ 1
Li1+ 1
O2- -2
H1+ 1
O2- -2
H1+ 1
loop_
_atom_site_label
_atom_site_type_symbol
_atom_site_symmetry_multiplicity
_atom_site_Wyckoff_symbol
_atom_site_fract_x
_atom_site_fract_y
_atom_site_fract_z
_atom_site_B_iso_or_equiv
_atom_site_occupancy
_atom_site_attached_hydrogens
O1 O2- 3 d 0.22492(13) 0.19444(13) 0.15987(12) 0.0227(2) 1 0
H1 H1+ 3 d 0.242(3) 0.323(3) 0.172(3) 0.027 1 0
O2 O2- 1 a 0. 0. 0.4799(2) 0.0257(3) 1 0
H2 H1+ 3 d -0.039(9) 0.098(7) 0.521(7) 0.031 0.33 0
B1 B3+ 1 a 0. 0. 0.2416(3) 0.0171(4) 1 0
O3 O2- 1 c 0.6667 0.3333 0.3478(2) 0.0259(3) 1 0
H3 H1+ 3 d 0.739(4) 0.462(3) 0.287(4) 0.031 0.67 0
O4 O2- 3 d 0.35970(15) 0.09904(16) 0.76632(14) 0.0297(2) 1 0
H4 H1+ 3 d 0.312(3) 0.117(3) 0.882(3) 0.036 1 0
H5 H1+ 3 d 0.260(3) 0.080(3) 0.671(3) 0.036 1 0
Li1 Li1+ 1 c 0.6667 0.3333 0.6649(5) 0.0232(6) 1 0
O5 O2- 1 b 0.3333 0.6667 0.7053(3) 0.0385(4) 1 0
H6 H1+ 3 d 0.360(5) 0.803(3) 0.728(5) 0.046 0.67 0
O6 O2- 1 b 0.3333 0.6667 0.2485(3) 0.0335(3) 1 0
H7 H1+ 3 d 0.226(8) 0.696(10) 0.212(9) 0.04 0.33 0
H8 H1+ 1 b 0.3333 0.6667 0.386(3) 0.04 1 0
loop_
_atom_site_aniso_label
_atom_site_aniso_type_symbol
_atom_site_aniso_U_11
_atom_site_aniso_U_22
_atom_site_aniso_U_33
_atom_site_aniso_U_12
_atom_site_aniso_U_13
_atom_site_aniso_U_23
O1 O2- 0.0202(4) 0.0195(4) 0.0244(4) 0.0071(3) 0.0021(3) 0.0012(3)
O2 O2- 0.0304(4) 0.0304(4) 0.0163(6) 0.0152(2) 0. 0.
B1 B3+ 0.0180(5) 0.0180(5) 0.0151(8) 0.0090(3) 0. 0.
O3 O2- 0.0275(4) 0.0275(4) 0.0227(7) 0.0137(2) 0. 0.
O4 O2- 0.0252(4) 0.0328(5) 0.0265(4) 0.0111(4) 0.0038(3) 0.0006(3)
Li1 Li1+ 0.0226(9) 0.0226(9) 0.0244(14) 0.0113(4) 0. 0.
O5 O2- 0.0359(5) 0.0359(5) 0.0436(9) 0.0180(3) 0. 0.
O6 O2- 0.0307(5) 0.0307(5) 0.0392(9) 0.0153(2) 0. 0.
#End of TTdata_430533-ICSD