
#(C) 2018 by FIZ Karlsruhe - Leibniz Institute for Information Infrastructure.  All rights reserved.
data_430517-ICSD
_database_code_ICSD 430517
_audit_creation_date 2016-02-01
_chemical_name_systematic 'Lithium scandium hexaoxodigermanate'
_chemical_formula_structural 'Li Sc Ge2 O6'
_chemical_formula_sum 'Ge2 Li1 O6 Sc1'
_chemical_name_structure_type Pyroxene-MgSiO3-LT
_exptl_crystal_density_diffrn 4.34
_cell_measurement_temperature 293.
_cell_measurement_pressure 4950000.
_publ_section_title

;
High-pressure crystallography and compression behavior of the
alkali-scandium-germanate end-members LiScGe2O6 and NaScGe2O6
;
loop_
_citation_id
_citation_journal_full
_citation_year
_citation_journal_volume
_citation_page_first
_citation_page_last
_citation_journal_id_ASTM
primary 'Journal of Solid State Chemistry' 2015 229 188 196 JSSCBI
loop_
_publ_author_name
'Hofer, Gregor'
'Kuzel, Johann'
'Scheidl, Katharina S.'
'Redhammer, Guenther'
'Miletich, Ronald'
_cell_length_a 9.8454(14)
_cell_length_b 8.9535(6)
_cell_length_c 5.3639(7)
_cell_angle_alpha 90
_cell_angle_beta 108.638(12)
_cell_angle_gamma 90
_cell_volume 448.03
_cell_formula_units_Z 4
_symmetry_space_group_name_H-M 'P 1 21/c 1'
_symmetry_Int_Tables_number 14
_refine_ls_R_factor_all 0.038
loop_
_symmetry_equiv_pos_site_id
_symmetry_equiv_pos_as_xyz
1 'x, -y+1/2, z+1/2'
2 '-x, -y, -z'
3 '-x, y+1/2, -z+1/2'
4 'x, y, z'
loop_
_atom_type_symbol
_atom_type_oxidation_number
Ge4+ 4
Sc3+ 3
Li1+ 1
O2- -2
loop_
_atom_site_label
_atom_site_type_symbol
_atom_site_symmetry_multiplicity
_atom_site_Wyckoff_symbol
_atom_site_fract_x
_atom_site_fract_y
_atom_site_fract_z
_atom_site_B_iso_or_equiv
_atom_site_occupancy
_atom_site_attached_hydrogens
Ge1 Ge4+ 4 e 0.9494(3) 0.16009(9) 0.1949(5) 0.0081(13) 1 0
Ge2 Ge4+ 4 e 0.5585(2) 0.16443(9) 0.2398(4) 0.0090(14) 1 0
Sc1 Sc3+ 4 e 0.2509(4) 0.35133(16) 0.2111(8) 0.0060(4) 1 0
Li1 Li1+ 4 e 0.742(4) 0.0111(19) -0.217(8) 0.018(4) 1 0
O1 O2- 4 e 0.8846(16) -0.0164(7) 0.195(3) 0.0103(13) 1 0
O2 O2- 4 e 1.1352(18) 0.1685(6) 0.313(3) 0.0082(13) 1 0
O3 O2- 4 e 0.8775(15) 0.2867(7) 0.364(3) 0.0092(13) 1 0
O4 O2- 4 e 0.6340(16) 0.0074(7) 0.405(3) 0.0105(13) 1 0
O5 O2- 4 e 0.3730(18) 0.1683(6) 0.118(3) 0.0092(13) 1 0
O6 O2- 4 e 0.6151(16) 0.1826(7) -0.040(3) 0.0092(13) 1 0
loop_
_atom_site_aniso_label
_atom_site_aniso_type_symbol
_atom_site_aniso_U_11
_atom_site_aniso_U_22
_atom_site_aniso_U_33
_atom_site_aniso_U_12
_atom_site_aniso_U_13
_atom_site_aniso_U_23
Ge1 Ge4+ 0.013(3) 0.0075(4) 0.005(3) -0.0009(5) 0.005(3) 0.0001(5)
Ge2 Ge4+ 0.015(3) 0.0067(4) 0.008(3) 0.0000(6) 0.007(3) -0.0003(5)
#End of TTdata_430517-ICSD