
#(C) 2018 by FIZ Karlsruhe - Leibniz Institute for Information Infrastructure.  All rights reserved.
data_430567-ICSD
_database_code_ICSD 430567
_audit_creation_date 2016-08-01
_chemical_name_systematic 'Hexaammineiron(II) (dilithium tetrahydridoborate)'
_chemical_formula_structural '(Fe (N H3)6) (Li2 (B H4)4)'
_chemical_formula_sum 'H34 B4 Fe1 Li2 N6'
_exptl_crystal_density_diffrn 0.97
_cell_measurement_temperature 240.
_publ_section_title

;
Ammine-stabilized transition-metal borohydrides of iron, cobalt, and chromium:
synthesis and characterization
;
loop_
_citation_id
_citation_journal_full
_citation_year
_citation_journal_volume
_citation_page_first
_citation_page_last
_citation_journal_id_ASTM
primary 'Inorganic Chemistry' 2015 54 10477 10482 INOCAJ
loop_
_publ_author_name
'Roedern, Elsa'
'Jensen, Torben R.'
_cell_length_a 10.7118(3)
_cell_length_b 10.7118(3)
_cell_length_c 6.8962(2)
_cell_angle_alpha 90.
_cell_angle_beta 90.
_cell_angle_gamma 90.
_cell_volume 791.28
_cell_formula_units_Z 2
_symmetry_space_group_name_H-M 'P 42/m n m'
_symmetry_Int_Tables_number 136
_refine_ls_R_factor_all 0.014
loop_
_symmetry_equiv_pos_site_id
_symmetry_equiv_pos_as_xyz
1 '-y+1/2, x+1/2, -z+1/2'
2 'y+1/2, -x+1/2, -z+1/2'
3 'y, x, -z'
4 '-y, -x, -z'
5 'y+1/2, -x+1/2, z+1/2'
6 '-y+1/2, x+1/2, z+1/2'
7 '-y, -x, z'
8 'y, x, z'
9 'x+1/2, -y+1/2, -z+1/2'
10 '-x+1/2, y+1/2, -z+1/2'
11 'x, y, -z'
12 '-x, -y, -z'
13 '-x+1/2, y+1/2, z+1/2'
14 'x+1/2, -y+1/2, z+1/2'
15 '-x, -y, z'
16 'x, y, z'
loop_
_atom_type_symbol
_atom_type_oxidation_number
Fe2+ 2
Li1+ 1
B3+ 3
H1- -1
N3- -3
H1+ 1
N3- -3
H1+ 1
loop_
_atom_site_label
_atom_site_type_symbol
_atom_site_symmetry_multiplicity
_atom_site_Wyckoff_symbol
_atom_site_fract_x
_atom_site_fract_y
_atom_site_fract_z
_atom_site_B_iso_or_equiv
_atom_site_occupancy
_atom_site_attached_hydrogens
Fe1 Fe2+ 2 b -0.5 0.5 0. 0.01267 1. 0
Li1 Li1+ 4 d -0.5 0. -0.25 0.038 1. 0
B1 B3+ 8 i -0.4322 0.8398 0.5 0.038 1. 0
H1 H1- 16 k -0.4858 0.80975 0.63525 0.06333 1. 0
H2 H1- 8 i -0.421 0.9455 0.5 0.06333 1. 0
H3 H1- 8 i -0.3362 0.794 0.5 0.06333 1. 0
N1 N3- 8 j -0.388 0.388 0.22718 0.038 1. 0
H4 H1+ 16 k -0.34175 0.448 0.29975 0.06333 1. 0
H5 H1+ 8 j -0.338 0.338 0.15628 0.06333 1. 0
N2 N3- 4 f 0.34514 0.34514 0. 0.038 1. 0
H6 H1+ 16 k 0.30504 0.35504 0.1 0.06333 0.5 0
H7 H1+ 8 i 0.27504 0.37504 0. 0.06333 0.5 0
#End of TTdata_430567-ICSD