
#(C) 2018 by FIZ Karlsruhe - Leibniz Institute for Information Infrastructure.  All rights reserved.
data_430828-ICSD
_database_code_ICSD 430828
_audit_creation_date 2017-08-01
_chemical_name_systematic
'Lithium-1.87 titanium-1.13 oxide-0.30 fluoride-1.61 sulfate'
_chemical_formula_structural '(Li1.87 Ti1.13) (O0.39 F1.61) (S O4)2'
_chemical_formula_sum 'F1.61 Li1.87 O8.39 S2 Ti1.13'
_exptl_crystal_density_diffrn 2.94
_cell_measurement_temperature 150.
_publ_section_title

;
Synthesis and structural characterisation of transition metal fluoride
sulfates
;
loop_
_citation_id
_citation_journal_full
_citation_year
_citation_journal_volume
_citation_page_first
_citation_page_last
_citation_journal_id_ASTM
primary 'Dalton Transactions' 2016 45 8854 8861 DTARAF
loop_
_publ_author_name
'Marshall, Kayleigh L.'
'Wang, Qianlong'
'Sullivan, Hannah S. I.'
'Weller, Mark T.'
_cell_length_a 5.1591(2)
_cell_length_b 13.6978(4)
_cell_length_c 9.4631(3)
_cell_angle_alpha 90
_cell_angle_beta 90
_cell_angle_gamma 90
_cell_volume 668.74
_cell_formula_units_Z 4
_symmetry_space_group_name_H-M 'C m c a'
_symmetry_Int_Tables_number 64
_refine_ls_R_factor_all 0.0295
loop_
_symmetry_equiv_pos_site_id
_symmetry_equiv_pos_as_xyz
1 '-x, -y+1/2, z+1/2'
2 '-x, y+1/2, -z+1/2'
3 '-x, y, z'
4 '-x, -y, -z'
5 'x, y+1/2, -z+1/2'
6 'x, -y+1/2, z+1/2'
7 'x, -y, -z'
8 'x, y, z'
9 '-x+1/2, -y, z+1/2'
10 '-x+1/2, y, -z+1/2'
11 '-x+1/2, y+1/2, z'
12 '-x+1/2, -y+1/2, -z'
13 'x+1/2, y, -z+1/2'
14 'x+1/2, -y, z+1/2'
15 'x+1/2, -y+1/2, -z'
16 'x+1/2, y+1/2, z'
loop_
_atom_type_symbol
_atom_type_oxidation_number
O2- -2
F1- -1
S6+ 6
Li1+ 1
Ti4+ 4
loop_
_atom_site_label
_atom_site_type_symbol
_atom_site_symmetry_multiplicity
_atom_site_Wyckoff_symbol
_atom_site_fract_x
_atom_site_fract_y
_atom_site_fract_z
_atom_site_B_iso_or_equiv
_atom_site_occupancy
_atom_site_attached_hydrogens
O1 O2- 16 g 0.2669(4) 0.07880(14) 0.08881(19) 0.0129(4) 1 0
O2 O2- 8 f 0.5 0.22022(18) 0.1654(3) 0.0099(6) 1 0
O3 O2- 8 f 0.5 0.1759(2) -0.0832(3) 0.0117(6) 1 0
O4 O2- 8 f 0. 0.08044(16) -0.1573(2) 0.0115(5) 0.1935 0
F1 F1- 8 f 0. 0.08044(16) -0.1573(2) 0.0115(5) 0.8065 0
S1 S6+ 8 f 0.5 0.14164(6) 0.06295(9) 0.0064(2) 1 0
Li1 Li1+ 8 e 0.25 0.3253(3) 0.25 0.0121(14) 0.937(4) 0
Ti1 Ti4+ 8 e 0.25 0.3253(3) 0.25 0.0121(14) 0.063(4) 0
Ti2 Ti4+ 4 a 0. 0. 0. 0.0061(2) 1 0
loop_
_atom_site_aniso_label
_atom_site_aniso_type_symbol
_atom_site_aniso_U_11
_atom_site_aniso_U_22
_atom_site_aniso_U_33
_atom_site_aniso_U_12
_atom_site_aniso_U_13
_atom_site_aniso_U_23
O1 O2- 0.0136(10) 0.0175(9) 0.0075(8) -0.0103(8) -0.0009(8) -0.0005(7)
O2 O2- 0.0113(13) 0.0071(11) 0.0113(12) 0. 0. -0.0039(10)
O3 O2- 0.0113(13) 0.0169(14) 0.0068(12) 0. 0. 0.0047(10)
O4 O2- 0.0182(12) 0.0086(10) 0.0076(10) 0. 0. 0.0034(8)
F1 F1- 0.0182(12) 0.0086(10) 0.0076(10) 0. 0. 0.0034(8)
S1 S6+ 0.0067(4) 0.0067(4) 0.0060(4) 0. 0. -0.0008(3)
Li1 Li1+ 0.019(2) 0.013(2) 0.005(2) 0. -0.0021(17) 0.
Ti1 Ti4+ 0.019(2) 0.013(2) 0.005(2) 0. -0.0021(17) 0.
Ti2 Ti4+ 0.0044(4) 0.0055(4) 0.0084(5) 0. 0. -0.0006(3)
#End of TTdata_430828-ICSD