
#(C) 2018 by FIZ Karlsruhe - Leibniz Institute for Information Infrastructure.  All rights reserved.
data_431002-ICSD
_database_code_ICSD 431002
_audit_creation_date 2017-08-01
_chemical_name_systematic
'Calcium iron(I) lithium telluride nitride (6/0.52/0.48/2/3)'
_chemical_formula_structural 'Ca6 (Fe0.52 Li0.48) Te2 N3'
_chemical_formula_sum 'Ca6 Fe0.52 Li0.48 N3 Te2'
_exptl_crystal_density_diffrn 3.71
_cell_measurement_temperature 130.
_publ_section_title

;
Metal nitrides grown from Ca/Li flux: Ca6 Te3 N2 and new nitridoferrate(I) Ca6
(Lix Fe1-x) Te2 N3
;
loop_
_citation_id
_citation_journal_full
_citation_year
_citation_journal_volume
_citation_page_first
_citation_page_last
_citation_journal_id_ASTM
primary 'Journal of the American Chemical Society' 2016 138 10636 10644 JACSAT
loop_
_publ_author_name
'Dickman, Matthew J.'
'Latturner, Susan E.'
_cell_length_a 8.718(3)
_cell_length_b 8.718(3)
_cell_length_c 6.719(2)
_cell_angle_alpha 90
_cell_angle_beta 90
_cell_angle_gamma 90
_cell_volume 510.66
_cell_formula_units_Z 2
_symmetry_space_group_name_H-M 'P 42/m'
_symmetry_Int_Tables_number 84
_refine_ls_R_factor_all 0.0194
loop_
_symmetry_equiv_pos_site_id
_symmetry_equiv_pos_as_xyz
1 '-y, x, -z+1/2'
2 'y, -x, -z+1/2'
3 'x, y, -z'
4 '-x, -y, -z'
5 'y, -x, z+1/2'
6 '-y, x, z+1/2'
7 '-x, -y, z'
8 'x, y, z'
loop_
_atom_type_symbol
_atom_type_oxidation_number
Te2- -2
Ca2+ 2
Fe1+ 1
Li1+ 1
N3- -3
loop_
_atom_site_label
_atom_site_type_symbol
_atom_site_symmetry_multiplicity
_atom_site_Wyckoff_symbol
_atom_site_fract_x
_atom_site_fract_y
_atom_site_fract_z
_atom_site_B_iso_or_equiv
_atom_site_occupancy
_atom_site_attached_hydrogens
Te1 Te2- 4 j 0.24961(2) 0.09791(2) 0. 0.00714(12) 1 0
Ca1 Ca2+ 8 k 0.20609(6) 0.45584(6) 0.23854(6) 0.00646(15) 1 0
Ca2 Ca2+ 4 j 0.09443(7) 0.75539(7) 0. 0.00554(18) 1 0
Fe1 Fe1+ 2 b 0.5 0.5 0. 0.0045(4) 0.526(5) 0
Li1 Li1+ 2 b 0.5 0.5 0. 0.0045(4) 0.474(5) 0
N1 N3- 2 c 0. 0.5 0. 0.0062(7) 1 0
N2 N3- 4 j 0.6626(3) 0.3619(3) 0. 0.0068(5) 1 0
loop_
_atom_site_aniso_label
_atom_site_aniso_type_symbol
_atom_site_aniso_U_11
_atom_site_aniso_U_22
_atom_site_aniso_U_33
_atom_site_aniso_U_12
_atom_site_aniso_U_13
_atom_site_aniso_U_23
Te1 Te2- 0.00614(15) 0.00874(15) 0.00656(16) 0.00025(7) 0. 0.
Ca1 Ca2+ 0.0052(2) 0.0087(2) 0.0055(2) -0.00076(19) -0.00059(14) -0.00003(14)
Ca2 Ca2+ 0.0038(3) 0.0047(3) 0.0082(4) -0.0001(2) 0. 0.
Fe1 Fe1+ 0.0035(6) 0.0035(6) 0.0065(6) 0.0000(3) 0. 0.
Li1 Li1+ 0.0035(6) 0.0035(6) 0.0065(6) 0.0000(3) 0. 0.
N1 N3- 0.0072(17) 0.0068(17) 0.0047(17) -0.0011(14) 0. 0.
N2 N3- 0.0059(12) 0.0069(12) 0.0076(13) -0.0001(10) 0. 0.
#End of TTdata_431002-ICSD