
#(C) 2018 by FIZ Karlsruhe - Leibniz Institute for Information Infrastructure.  All rights reserved.
data_431131-ICSD
_database_code_ICSD 431131
_audit_creation_date 2016-08-01
_chemical_name_systematic 'Lithium titanium oxide (2/3/7)'
_chemical_formula_structural 'Li2 Ti3 O7'
_chemical_formula_sum 'Li2 O7 Ti3'
_exptl_crystal_density_diffrn 3.08
_cell_measurement_temperature 885.
_publ_section_title

;
Lithium diffusion pathways in metastable ramsdellite-like Li2 Ti3 O7 from
high-temperature neutron diffraction
;
loop_
_citation_id
_citation_journal_full
_citation_year
_citation_journal_volume
_citation_page_first
_citation_page_last
_citation_journal_id_ASTM
primary 'Solid State Ionics' 2016 293 37 43 SSIOD3
loop_
_publ_author_name
'Wiedemann, Dennis'
'Nakhal, Suliman'
'Franz, Alexandra'
'Lerch, Martin'
_cell_length_a 9.6465(9)
_cell_length_b 2.9710(3)
_cell_length_c 5.0656(5)
_cell_angle_alpha 90
_cell_angle_beta 90
_cell_angle_gamma 90
_cell_volume 145.17
_cell_formula_units_Z 1
_symmetry_space_group_name_H-M 'P n m a'
_symmetry_Int_Tables_number 62
_refine_ls_R_factor_all 0.0273
loop_
_symmetry_equiv_pos_site_id
_symmetry_equiv_pos_as_xyz
1 'x+1/2, y, -z+1/2'
2 'x, -y+1/2, z'
3 '-x+1/2, y+1/2, z+1/2'
4 '-x, -y, -z'
5 '-x+1/2, -y, z+1/2'
6 '-x, y+1/2, -z'
7 'x+1/2, -y+1/2, -z+1/2'
8 'x, y, z'
loop_
_atom_type_symbol
_atom_type_oxidation_number
Ti4+ 4
Li1+ 1
O2- -2
loop_
_atom_site_label
_atom_site_type_symbol
_atom_site_symmetry_multiplicity
_atom_site_Wyckoff_symbol
_atom_site_fract_x
_atom_site_fract_y
_atom_site_fract_z
_atom_site_B_iso_or_equiv
_atom_site_occupancy
_atom_site_attached_hydrogens
Ti1 Ti4+ 4 c 0.3626(7) 0.25 0.0339(12) 0.031(2) 0.8571 0
Li1 Li1+ 4 c 0.069(13) 0.25 0.046(13) 0.08(3) 0.23(7) 0
Li2 Li1+ 4 c 0.486(13) 0.25 0.422(13) 0.08 0.20(5) 0
O1 O2- 4 c 0.2236(4) 0.25 0.3253(7) 0.0399(14) 1 0
O2 O2- 4 c 0.0348(4) 0.25 0.7027(6) 0.0389(14) 1 0
loop_
_atom_site_aniso_label
_atom_site_aniso_type_symbol
_atom_site_aniso_U_11
_atom_site_aniso_U_22
_atom_site_aniso_U_33
_atom_site_aniso_U_12
_atom_site_aniso_U_13
_atom_site_aniso_U_23
Ti1 Ti4+ 0.024(4) 0.033(3) 0.036(4) 0 0.014(3) 0
O1 O2- 0.040(3) 0.029(2) 0.050(2) 0 0.012(2) 0
O2 O2- 0.047(3) 0.039(3) 0.032(2) 0 -0.0049(18) 0
#End of TTdata_431131-ICSD