
#(C) 2018 by FIZ Karlsruhe - Leibniz Institute for Information Infrastructure.  All rights reserved.
data_431203-ICSD
_database_code_ICSD 431203
_audit_creation_date 2017-08-01
_chemical_name_systematic 'Lithium vanadium disilicate'
_chemical_formula_structural 'Li V Si2 O6'
_chemical_formula_sum 'Li1 O6 Si2 V1'
_chemical_name_structure_type Pyroxene-CaMg(SiO3)2
_exptl_crystal_density_diffrn 3.38
_cell_measurement_temperature 293.
_publ_section_title

;
Structural study of quasi-one-dimensional vanadium pyroxene LiVSi2O6 single
crystals
;
loop_
_citation_id
_citation_journal_full
_citation_year
_citation_journal_volume
_citation_page_first
_citation_page_last
_citation_journal_id_ASTM
primary 'Journal of Solid State Chemistry' 2017 246 125 129 JSSCBI
loop_
_publ_author_name
'Ishii, Yuto'
'Matsushita, Yoshitaka'
'Oda, Migaku'
'Yoshida, Hiroyuki'
_cell_length_a 9.6299(4)
_cell_length_b 8.5850(3)
_cell_length_c 5.3077(2)
_cell_angle_alpha 90
_cell_angle_beta 109.7160(10)
_cell_angle_gamma 90
_cell_volume 413.07
_cell_formula_units_Z 4
_symmetry_space_group_name_H-M 'C 1 2/c 1'
_symmetry_Int_Tables_number 15
_refine_ls_R_factor_all 0.033
loop_
_symmetry_equiv_pos_site_id
_symmetry_equiv_pos_as_xyz
1 'x, -y, z+1/2'
2 '-x, -y, -z'
3 '-x, y, -z+1/2'
4 'x, y, z'
5 'x+1/2, -y+1/2, z+1/2'
6 '-x+1/2, -y+1/2, -z'
7 '-x+1/2, y+1/2, -z+1/2'
8 'x+1/2, y+1/2, z'
loop_
_atom_type_symbol
_atom_type_oxidation_number
V3+ 3
Si4+ 4
O2- -2
Li1+ 1
loop_
_atom_site_label
_atom_site_type_symbol
_atom_site_symmetry_multiplicity
_atom_site_Wyckoff_symbol
_atom_site_fract_x
_atom_site_fract_y
_atom_site_fract_z
_atom_site_B_iso_or_equiv
_atom_site_occupancy
_atom_site_attached_hydrogens
V1 V3+ 4 e 0.5 0.40594(2) 0.25 0.00419(6) 1 0
Si1 Si4+ 8 f 0.70317(3) 0.09067(2) 0.23103(5) 0.00433(6) 1 0
O1 O2- 8 f 0.61661(7) 0.58636(6) 0.15523(12) 0.00550(10) 1 0
O2 O2- 8 f 0.63092(7) 0.25976(7) 0.17301(12) 0.00904(10) 1 0
O3 O2- 8 f 0.64428(8) 0.00286(7) -0.05807(12) 0.00989(11) 1 0
Li1 Li1+ 4 e 0.5 -0.2346(4) -0.75 0.0179(5) 1 0
loop_
_atom_site_aniso_label
_atom_site_aniso_type_symbol
_atom_site_aniso_U_11
_atom_site_aniso_U_22
_atom_site_aniso_U_33
_atom_site_aniso_U_12
_atom_site_aniso_U_13
_atom_site_aniso_U_23
V1 V3+ 0.00387(11) 0.00391(7) 0.00472(7) 0. 0.00138(6) 0.
Si1 Si4+ 0.00367(13) 0.00493(9) 0.00432(9) 0.00074(5) 0.00125(8) 0.00027(4)
O1 O2- 0.0041(3) 0.00641(18) 0.00573(18) -0.00046(12) 0.00131(17) 0.00033(11)
O2 O2- 0.0094(3) 0.00652(18) 0.0123(2) 0.00364(15) 0.0051(2) 0.00163(14)
O3 O2- 0.0068(3) 0.0150(2) 0.0079(2) -0.00037(17) 0.00250(18) -0.00552(16)
Li1 Li1+ 0.0216(15) 0.0169(11) 0.0165(11) 0. 0.0082(11) 0.
#End of TTdata_431203-ICSD