
#(C) 2018 by FIZ Karlsruhe - Leibniz Institute for Information Infrastructure.  All rights reserved.
data_431392-ICSD
_database_code_ICSD 431392
_audit_creation_date 2017-08-01
_chemical_name_systematic
'Iron lanthanum lithium zirconium oxide (0.19/2.95/5.57/2/12) - LLZO'
_chemical_formula_structural 'Fe0.19 La2.95 Li5.57 Zr2 O12'
_chemical_formula_sum 'Fe0.19 La2.95 Li5.57 O12 Zr2'
_chemical_name_mineral Garnet
_exptl_crystal_density_diffrn 5.07
_cell_measurement_temperature 293.
_publ_section_title

;
Fast Li-ion-conducting garnet-related Li7-3x Fex La3 Zr2 O12 with uncommon
I43d structure
;
loop_
_citation_id
_citation_journal_full
_citation_year
_citation_journal_volume
_citation_page_first
_citation_page_last
_citation_journal_id_ASTM
primary 'Chemistry of Materials' 2016 28 5943 5951 CMATEX
loop_
_publ_author_name
'Wagner, Reinhard'
'Redhammer, Guenther J.'
'Rettenwander, Daniel'
'Tippelt, Gerold'
'Welzl, Andreas'
'Taibl, Stefanie'
'Fleig, Juergen'
'Franz, Alexandra'
'Lottermoser, Werner'
'Amthauer, Georg'
_cell_length_a 12.97690(10)
_cell_length_b 12.97690(10)
_cell_length_c 12.97690(10)
_cell_angle_alpha 90
_cell_angle_beta 90
_cell_angle_gamma 90
_cell_volume 2185.3
_cell_formula_units_Z 8
_symmetry_space_group_name_H-M 'I -4 3 d'
_symmetry_Int_Tables_number 220
_refine_ls_R_factor_all 0.0134
loop_
_symmetry_equiv_pos_site_id
_symmetry_equiv_pos_as_xyz
1 '-y+1/4, -x+3/4, z+3/4'
2 'y+3/4, -x+1/4, -z+3/4'
3 '-y+3/4, x+3/4, -z+1/4'
4 'y+1/4, x+1/4, z+1/4'
5 'z+1/2, -x+1/2, -y'
6 '-z+1/2, -x, y+1/2'
7 '-z, x+1/2, -y+1/2'
8 'z, x, y'
9 'z+3/4, -y+1/4, -x+3/4'
10 '-z+3/4, y+3/4, -x+1/4'
11 '-z+1/4, -y+3/4, x+3/4'
12 'z+1/4, y+1/4, x+1/4'
13 '-y, z+1/2, -x+1/2'
14 'y+1/2, -z+1/2, -x'
15 '-y+1/2, -z, x+1/2'
16 'y, z, x'
17 '-x+3/4, z+3/4, -y+1/4'
18 '-x+1/4, -z+3/4, y+3/4'
19 'x+3/4, -z+1/4, -y+3/4'
20 'x+1/4, z+1/4, y+1/4'
21 '-x+1/2, -y, z+1/2'
22 '-x, y+1/2, -z+1/2'
23 'x+1/2, -y+1/2, -z'
24 'x, y, z'
25 '-y+3/4, -x+1/4, z+1/4'
26 'y+1/4, -x+3/4, -z+1/4'
27 '-y+1/4, x+1/4, -z+3/4'
28 'y+3/4, x+3/4, z+3/4'
29 'z, -x, -y+1/2'
30 '-z, -x+1/2, y'
31 '-z+1/2, x, -y'
32 'z+1/2, x+1/2, y+1/2'
33 'z+1/4, -y+3/4, -x+1/4'
34 '-z+1/4, y+1/4, -x+3/4'
35 '-z+3/4, -y+1/4, x+1/4'
36 'z+3/4, y+3/4, x+3/4'
37 '-y+1/2, z, -x'
38 'y, -z, -x+1/2'
39 '-y, -z+1/2, x'
40 'y+1/2, z+1/2, x+1/2'
41 '-x+1/4, z+1/4, -y+3/4'
42 '-x+3/4, -z+1/4, y+1/4'
43 'x+1/4, -z+3/4, -y+1/4'
44 'x+3/4, z+3/4, y+3/4'
45 '-x, -y+1/2, z'
46 '-x+1/2, y, -z'
47 'x, -y, -z+1/2'
48 'x+1/2, y+1/2, z+1/2'
loop_
_atom_type_symbol
_atom_type_oxidation_number
La3+ 3
Zr4+ 4
O2- -2
Li1+ 1
Fe3+ 3
Li1+ 1
Fe3+ 3
Li1+ 1
loop_
_atom_site_label
_atom_site_type_symbol
_atom_site_symmetry_multiplicity
_atom_site_Wyckoff_symbol
_atom_site_fract_x
_atom_site_fract_y
_atom_site_fract_z
_atom_site_B_iso_or_equiv
_atom_site_occupancy
_atom_site_attached_hydrogens
La1 La3+ 24 d 0.12012(2) 0 0.25 0.00691(5) 0.984(2) 0
Zr1 Zr4+ 16 c -0.00022(2) -0.00022(2) -0.00022(2) 0.00549(8) 1 0
O1 O2- 48 e 0.09755(17) 0.19619(17) 0.27969(17) 0.0093(3) 1 0
O2 O2- 48 e 0.03357(18) 0.44537(19) 0.14719(16) 0.0111(4) 1 0
Li1 Li1+ 12 a 0.375 0 0.25 0.0043(8) 0.611(3) 0
Fe1 Fe3+ 12 a 0.375 0 0.25 0.0043(8) 0.109(3) 0
Li2 Li1+ 12 b 0.875 0 0.25 0.020(3) 0.703(3) 0
Fe2 Fe3+ 12 b 0.875 0 0.25 0.020(3) 0.017(3) 0
Li3 Li1+ 48 e 0.0969(7) 0.1863(7) 0.4268(7) 0.0126(16) 0.6 0
loop_
_atom_site_aniso_label
_atom_site_aniso_type_symbol
_atom_site_aniso_U_11
_atom_site_aniso_U_22
_atom_site_aniso_U_33
_atom_site_aniso_U_12
_atom_site_aniso_U_13
_atom_site_aniso_U_23
La1 La3+ 0.00740(7) 0.00668(9) 0.00665(9) 0 0 0.00083(5)
Zr1 Zr4+ 0.00549(8) 0.00549(8) 0.00549(8) 0.00008(6) 0.00008(6) 0.00008(6)
O1 O2- 0.0094(8) 0.0084(8) 0.0100(8) -0.0007(6) 0.0008(6) 0.0002(6)
O2 O2- 0.0134(9) 0.0131(9) 0.0068(8) 0.0016(7) -0.0012(6) 0.0012(6)
Li1 Li1+ 0.0063(16) 0.0033(11) 0.0033(11) 0 0 0
Fe1 Fe3+ 0.0063(16) 0.0033(11) 0.0033(11) 0 0 0
Li2 Li1+ 0.015(5) 0.023(4) 0.023(4) 0 0 0
Fe2 Fe3+ 0.015(5) 0.023(4) 0.023(4) 0 0 0
Li3 Li1+ 0.021(4) 0.010(4) 0.007(3) -0.005(3) 0.001(3) -0.001(3)
#End of TTdata_431392-ICSD