
#(C) 2018 by FIZ Karlsruhe - Leibniz Institute for Information Infrastructure.  All rights reserved.
data_431370-ICSD
_database_code_ICSD 431370
_audit_creation_date 2017-08-01
_chemical_name_systematic 'Octalithium tetraphosphidosilicate'
_chemical_formula_structural 'Li8 Si P4'
_chemical_formula_sum 'Li8 P4 Si1'
_exptl_crystal_density_diffrn 1.72
_cell_measurement_temperature 303.
_publ_section_title

;
Lithium ion mobility in lithium phosphidosilicates: Crystal structure, 7Li,
29Si, and 31P MAS NMR spectroscopy, and impedance spectroscopy of Li8SiP4 and
Li2SiP2
;
loop_
_citation_id
_citation_journal_full
_citation_year
_citation_journal_volume
_citation_page_first
_citation_page_last
_citation_journal_id_ASTM
primary 'Chemistry - A European Journal' 2016 22 17635 17645 CEUJED
loop_
_publ_author_name
'Toffoletti, Lorenzo'
'Kirchhain, Holger'
'Landesfeind, Johannes'
'Klein, Wilhelm'
'Wuellen, Leo van'
'Gasteiger, Hubert A.'
'Faessler, Thomas F.'
_cell_length_a 11.71020(10)
_cell_length_b 11.71020(10)
_cell_length_c 11.71020(10)
_cell_angle_alpha 90
_cell_angle_beta 90
_cell_angle_gamma 90
_cell_volume 1605.8
_cell_formula_units_Z 8
_symmetry_space_group_name_H-M 'P a -3'
_symmetry_Int_Tables_number 205
_refine_ls_R_factor_all 0.0153
loop_
_symmetry_equiv_pos_site_id
_symmetry_equiv_pos_as_xyz
1 '-z+1/2, x+1/2, y'
2 'z+1/2, x, -y+1/2'
3 'z, -x+1/2, y+1/2'
4 '-z, -x, -y'
5 'y, -z+1/2, x+1/2'
6 '-y+1/2, z+1/2, x'
7 'y+1/2, z, -x+1/2'
8 '-y, -z, -x'
9 'x+1/2, y, -z+1/2'
10 'x, -y+1/2, z+1/2'
11 '-x+1/2, y+1/2, z'
12 '-x, -y, -z'
13 'z+1/2, -x+1/2, -y'
14 '-z+1/2, -x, y+1/2'
15 '-z, x+1/2, -y+1/2'
16 'z, x, y'
17 '-y, z+1/2, -x+1/2'
18 'y+1/2, -z+1/2, -x'
19 '-y+1/2, -z, x+1/2'
20 'y, z, x'
21 '-x+1/2, -y, z+1/2'
22 '-x, y+1/2, -z+1/2'
23 'x+1/2, -y+1/2, -z'
24 'x, y, z'
loop_
_atom_type_symbol
_atom_type_oxidation_number
Li1+ 1
Si4+ 4
P3- -3
loop_
_atom_site_label
_atom_site_type_symbol
_atom_site_symmetry_multiplicity
_atom_site_Wyckoff_symbol
_atom_site_fract_x
_atom_site_fract_y
_atom_site_fract_z
_atom_site_B_iso_or_equiv
_atom_site_occupancy
_atom_site_attached_hydrogens
Li1 Li1+ 8 c 0.37185(9) 0.37185(9) 0.37185(9) 0.0227(3) 1 0
Li2 Li1+ 24 d 0.38573(9) 0.12788(9) 0.12397(9) 0.02246(18) 1 0
Li3 Li1+ 24 d 0.36641(9) 0.36792(8) 0.12141(9) 0.02142(18) 1 0
Li4 Li1+ 4 a 0. 0. 0. 0.0236(4) 1 0
Li5 Li1+ 24 d 0.2541(6) 0.2538(6) -0.0049(6) 0.0233(12) 0.1667 0
Si1 Si4+ 8 c 0.12954(2) 0.12954(2) 0.12954(2) 0.00822(3) 1 0
P1 P3- 8 c 0.24021(2) 0.24021(2) 0.24021(2) 0.00976(3) 1 0
P2 P3- 24 d 0.01008(2) 0.23862(2) 0.01828(2) 0.01032(2) 1 0
loop_
_atom_site_aniso_label
_atom_site_aniso_type_symbol
_atom_site_aniso_U_11
_atom_site_aniso_U_22
_atom_site_aniso_U_33
_atom_site_aniso_U_12
_atom_site_aniso_U_13
_atom_site_aniso_U_23
Li1 Li1+ 0.0227(3) 0.0227(3) 0.0227(3) -0.0001(3) -0.0001(3) -0.0001(3)
Li2 Li1+ 0.0210(4) 0.0220(4) 0.0244(4) 0.0031(3) -0.0001(3) -0.0015(3)
Li3 Li1+ 0.0209(4) 0.0188(4) 0.0245(4) -0.0020(3) 0.0030(3) 0.0050(3)
Li4 Li1+ 0.0236(4) 0.0236(4) 0.0236(4) -0.0033(5) -0.0033(5) -0.0033(5)
Li5 Li1+ 0.021(2) 0.023(2) 0.026(3) 0.001(2) 0.000(2) 0.004(2)
Si1 Si4+ 0.00822(3) 0.00822(3) 0.00822(3) -0.00062(3) -0.00062(3) -0.00062(3)
P1 P3- 0.00976(3) 0.00976(3) 0.00976(3) -0.00105(3) -0.00105(3) -0.00105(3)
P2 P3- 0.01091(4) 0.00951(4) 0.01055(4) 0.00101(3) -0.00099(3) 0.00079(3)
#End of TTdata_431370-ICSD