
#(C) 2018 by FIZ Karlsruhe - Leibniz Institute for Information Infrastructure.  All rights reserved.
data_431337-ICSD
_database_code_ICSD 431337
_audit_creation_date 2018-02-01
_chemical_name_systematic 'Potassium lithium molybdenum oxide (1/1/3/10)'
_chemical_formula_structural 'K Li Mo3 O10'
_chemical_formula_sum 'K1 Li1 Mo3 O10'
_exptl_crystal_density_diffrn 3.79
_cell_measurement_temperature 296.
_publ_section_title

;
The enhancement of birefringence resulted from anionic dimensionality changes
through adjusting cationic density
;
loop_
_citation_id
_citation_journal_full
_citation_year
_citation_journal_volume
_citation_page_first
_citation_page_last
_citation_journal_id_ASTM
primary 'Journal of Alloys and Compounds' 2017 717 317 325 JALCEU
loop_
_publ_author_name
'Liu, Lili'
'Yang, Yun'
'Yang, Zhihua'
'Pan, Shilie'
_cell_length_a 8.519(11)
_cell_length_b 7.567(9)
_cell_length_c 13.411(17)
_cell_angle_alpha 90.
_cell_angle_beta 90.
_cell_angle_gamma 90.
_cell_volume 864.51
_cell_formula_units_Z 4
_symmetry_space_group_name_H-M 'P n m a'
_symmetry_Int_Tables_number 62
_refine_ls_R_factor_all 0.019
loop_
_symmetry_equiv_pos_site_id
_symmetry_equiv_pos_as_xyz
1 'x+1/2, y, -z+1/2'
2 'x, -y+1/2, z'
3 '-x+1/2, y+1/2, z+1/2'
4 '-x, -y, -z'
5 '-x+1/2, -y, z+1/2'
6 '-x, y+1/2, -z'
7 'x+1/2, -y+1/2, -z+1/2'
8 'x, y, z'
loop_
_atom_type_symbol
_atom_type_oxidation_number
Mo6+ 6
K1+ 1
O2- -2
Li1+ 1
loop_
_atom_site_label
_atom_site_type_symbol
_atom_site_symmetry_multiplicity
_atom_site_Wyckoff_symbol
_atom_site_fract_x
_atom_site_fract_y
_atom_site_fract_z
_atom_site_B_iso_or_equiv
_atom_site_occupancy
_atom_site_attached_hydrogens
Mo1 Mo6+ 4 c 0.31998(4) 0.25 0.40493(2) 0.00900(11) 1 0
Mo2 Mo6+ 8 d 0.62929(3) -0.00177(3) 0.394430(17) 0.00910(10) 1 0
K1 K1+ 4 c 0.89001(17) 0.25 0.59546(9) 0.0379(3) 1 0
O1 O2- 4 c 0.5797(3) 0.25 0.4070(2) 0.0121(6) 1 0
O2 O2- 8 d 0.3811(2) 0.0112(2) 0.43575(16) 0.0109(4) 1 0
O3 O2- 4 c 0.6258(3) -0.25 0.4314(2) 0.0123(6) 1 0
O4 O2- 4 c 0.1207(3) 0.25 0.4320(2) 0.0169(6) 1 0
O5 O2- 4 c 0.3305(3) 0.25 0.2780(2) 0.0151(6) 1 0
O6 O2- 8 d 0.8279(3) 0.0390(3) 0.40365(15) 0.0179(5) 1 0
O7 O2- 8 d 0.5945(2) -0.0339(3) 0.27127(16) 0.0192(4) 1 0
Li1 Li1+ 4 c -0.0521(11) 0.25 0.3426(8) 0.038(2) 1 0
loop_
_atom_site_aniso_label
_atom_site_aniso_type_symbol
_atom_site_aniso_U_11
_atom_site_aniso_U_22
_atom_site_aniso_U_33
_atom_site_aniso_U_12
_atom_site_aniso_U_13
_atom_site_aniso_U_23
Mo1 Mo6+ 0.00940(18) 0.00838(16) 0.00921(18) 0. -0.00157(12) 0.
Mo2 Mo6+ 0.01139(16) 0.00603(15) 0.00989(16) 0.00043(7) 0.00141(8) 0.00058(8)
K1 K1+ 0.0519(8) 0.0400(7) 0.0216(6) 0. -0.0009(5) 0.
O1 O2- 0.0110(14) 0.0084(12) 0.0169(15) 0. 0.0005(11) 0.
O2 O2- 0.0119(10) 0.0087(9) 0.0121(11) -0.0001(7) -0.0014(7) -0.0001(7)
O3 O2- 0.0155(14) 0.0086(13) 0.0129(15) 0. -0.0014(10) 0.
O4 O2- 0.0109(14) 0.0227(16) 0.0173(17) 0. -0.0025(11) 0.
O5 O2- 0.0179(14) 0.0137(13) 0.0137(15) 0. -0.0028(12) 0.
O6 O2- 0.0148(11) 0.0178(9) 0.0211(12) -0.0017(9) 0.0010(9) 0.0035(9)
O7 O2- 0.0235(11) 0.0199(9) 0.0142(11) -0.0025(8) 0.0007(9) -0.0013(9)
#End of TTdata_431337-ICSD