
#(C) 2018 by FIZ Karlsruhe - Leibniz Institute for Information Infrastructure.  All rights reserved.
data_431428-ICSD
_database_code_ICSD 431428
_audit_creation_date 2017-08-01
_chemical_name_systematic 'Lithium hydrogen disulfate'
_chemical_formula_structural 'Li (H S2 O7)'
_chemical_formula_sum 'H1 Li1 O7 S2'
_exptl_crystal_density_diffrn 2.53
_cell_measurement_temperature 100.
_publ_section_title

;
Increasing H2SO4 contents in disulfates cresting in the new
hydrogenium-bis-hydrogendisulfate anion [H(HS2O7)2]-: Li2[S2O7]*H2SO4,
Li[HS2O7], and Li[H(HS2O7)2]
;
loop_
_citation_id
_citation_journal_full
_citation_year
_citation_journal_volume
_citation_page_first
_citation_page_last
_citation_journal_id_ASTM
primary 'New Journal of Chemistry' 2017 41 56 62 NJCHE5
loop_
_publ_author_name
'Schindler, Lisa Verena'
'Wickleder, Mathias S.'
_cell_length_a 6.8587(3)
_cell_length_b 7.8849(4)
_cell_length_c 9.1148(5)
_cell_angle_alpha 90
_cell_angle_beta 101.618(2)
_cell_angle_gamma 90
_cell_volume 482.83
_cell_formula_units_Z 4
_symmetry_space_group_name_H-M 'C 1 c 1'
_symmetry_Int_Tables_number 9
_refine_ls_R_factor_all 0.0144
loop_
_symmetry_equiv_pos_site_id
_symmetry_equiv_pos_as_xyz
1 'x, -y, z+1/2'
2 'x, y, z'
3 'x+1/2, -y+1/2, z+1/2'
4 'x+1/2, y+1/2, z'
loop_
_atom_type_symbol
_atom_type_oxidation_number
S6+ 6
O2- -2
Li1+ 1
H1+ 1
loop_
_atom_site_label
_atom_site_type_symbol
_atom_site_symmetry_multiplicity
_atom_site_Wyckoff_symbol
_atom_site_fract_x
_atom_site_fract_y
_atom_site_fract_z
_atom_site_B_iso_or_equiv
_atom_site_occupancy
_atom_site_attached_hydrogens
S1 S6+ 4 a 0.08385(3) 0.12789(3) 0.90041(2) 0.00460(5) 1 0
S2 S6+ 4 a 0.43579(3) 0.13180(3) 0.77902(2) 0.00452(5) 1 0
O1 O2- 4 a 0.17084(15) 0.27527(13) 0.97889(12) 0.00805(15) 1 0
O2 O2- 4 a 0.35128(15) 0.28114(13) 0.70445(12) 0.00764(15) 1 0
O3 O2- 4 a 0.27017(17) 0.02935(8) 0.83969(15) 0.00653(10) 1 0
O4 O2- 4 a 0.58375(16) 0.17831(13) 0.92398(11) 0.00695(15) 1 0
O5 O2- 4 a -0.06209(17) 0.15714(13) 0.76743(12) 0.00779(14) 1 0
O6 O2- 4 a 0.52659(13) 0.01003(12) 0.70015(11) 0.00713(14) 1 0
O7 O2- 4 a 0.03324(13) -0.00662(12) 0.99617(11) 0.00725(13) 1 0
Li1 Li1+ 4 a 0.2753(4) 0.5173(3) 0.6056(3) 0.0115(4) 1 0
H1 H1+ 4 a 0.562(6) 0.251(5) 0.942(4) 0.063(12) 1 0
loop_
_atom_site_aniso_label
_atom_site_aniso_type_symbol
_atom_site_aniso_U_11
_atom_site_aniso_U_22
_atom_site_aniso_U_33
_atom_site_aniso_U_12
_atom_site_aniso_U_13
_atom_site_aniso_U_23
S1 S6+ 0.00475(10) 0.00432(10) 0.00502(11) -0.00086(8) 0.00167(8) -0.00072(8)
S2 S6+ 0.00449(10) 0.00448(10) 0.00483(11) 0.00019(9) 0.00152(8) 0.00020(9)
O1 O2- 0.0093(4) 0.0064(3) 0.0085(4) -0.0024(3) 0.0019(3) -0.0030(3)
O2 O2- 0.0089(3) 0.0059(3) 0.0083(4) 0.0018(3) 0.0021(3) 0.0028(3)
O3 O2- 0.0059(3) 0.0053(2) 0.0096(2) 0.0000(3) 0.00422(19) 0.0000(3)
O4 O2- 0.0068(3) 0.0069(3) 0.0064(3) -0.0002(3) -0.0004(2) -0.0016(2)
O5 O2- 0.0067(3) 0.0083(3) 0.0076(3) 0.0003(3) -0.0004(3) 0.0005(3)
O6 O2- 0.0077(3) 0.0064(3) 0.0083(3) 0.0007(2) 0.0038(2) -0.0013(2)
O7 O2- 0.0090(3) 0.0063(3) 0.0075(3) -0.0012(2) 0.0042(2) 0.0007(2)
Li1 Li1+ 0.0120(10) 0.0106(10) 0.0115(10) -0.0002(8) 0.0017(8) 0.0000(8)
#End of TTdata_431428-ICSD