
#(C) 2018 by FIZ Karlsruhe - Leibniz Institute for Information Infrastructure.  All rights reserved.
data_431596-ICSD
_database_code_ICSD 431596
_audit_creation_date 2017-08-01
_chemical_name_systematic 'Dilithium triplatinum tetraselenide'
_chemical_formula_structural 'Li2 Pt3 Se4'
_chemical_formula_sum 'Li2 Pt3 Se4'
_chemical_name_structure_type Li2Pt3S4
_exptl_crystal_density_diffrn 9.4
_cell_measurement_temperature 293.
_publ_section_title

;
Li2Pt3Se4. A new lithium platinum selenide with jagueite-type crystal
structure by multianvil high-pressure/high-temperature synthesis
;
loop_
_citation_id
_citation_journal_full
_citation_year
_citation_journal_volume
_citation_page_first
_citation_page_last
_citation_journal_id_ASTM
primary 'Zeitschrift fuer Naturforschung, B: Chemical Sciences' 2016 71 1095
1104 ZNBSEN
loop_
_publ_author_name
'Heymann, Gunter'
'Selb, Elisabeth'
_cell_length_a 5.2588(11)
_cell_length_b 10.406(2)
_cell_length_c 6.3647(13)
_cell_angle_alpha 90
_cell_angle_beta 111.91(3)
_cell_angle_gamma 90
_cell_volume 323.13
_cell_formula_units_Z 2
_symmetry_space_group_name_H-M 'P 1 21/c 1'
_symmetry_Int_Tables_number 14
_refine_ls_R_factor_all 0.0246
loop_
_symmetry_equiv_pos_site_id
_symmetry_equiv_pos_as_xyz
1 'x, -y+1/2, z+1/2'
2 '-x, -y, -z'
3 '-x, y+1/2, -z+1/2'
4 'x, y, z'
loop_
_atom_type_symbol
_atom_type_oxidation_number
Pt2+ 2
Se2- -2
Li1+ 1
loop_
_atom_site_label
_atom_site_type_symbol
_atom_site_symmetry_multiplicity
_atom_site_Wyckoff_symbol
_atom_site_fract_x
_atom_site_fract_y
_atom_site_fract_z
_atom_site_B_iso_or_equiv
_atom_site_occupancy
_atom_site_attached_hydrogens
Pt1 Pt2+ 4 e 0.26919(5) 0.37126(2) 0.02280(4) 0.00643(9) 1 0
Pt2 Pt2+ 2 a 0. 0. 0. 0.00642(9) 1 0
Se1 Se2- 4 e 0.03096(12) 0.31004(6) 0.27666(10) 0.00658(12) 1 0
Se2 Se2- 4 e 0.47279(12) 0.05395(6) 0.25596(11) 0.00696(12) 1 0
Li1 Li1+ 4 e 0.615(3) 0.3012(15) 0.461(2) 0.020(3) 1 0
loop_
_atom_site_aniso_label
_atom_site_aniso_type_symbol
_atom_site_aniso_U_11
_atom_site_aniso_U_22
_atom_site_aniso_U_33
_atom_site_aniso_U_12
_atom_site_aniso_U_13
_atom_site_aniso_U_23
Pt1 Pt2+ 0.00726(12) 0.00597(12) 0.00712(13) -0.00081(7) 0.00390(9) -0.00011(7)
Pt2 Pt2+ 0.00668(15) 0.00594(15) 0.00753(16) -0.00023(9) 0.00368(12) 0.00037(10)
Se1 Se2- 0.0075(3) 0.0060(2) 0.0074(3) 0.00030(18) 0.0042(2) -0.00025(19)
Se2 Se2- 0.0074(3) 0.0066(2) 0.0079(3) 0.00050(19) 0.0040(2) 0.00047(19)
Li1 Li1+ 0.017(6) 0.030(7) 0.014(6) 0.013(5) 0.005(5) 0.004(5)
#End of TTdata_431596-ICSD