
#(C) 2018 by FIZ Karlsruhe - Leibniz Institute for Information Infrastructure.  All rights reserved.
data_432026-ICSD
_database_code_ICSD 432026
_audit_creation_date 2017-08-01
_chemical_name_systematic 'trilithium yttrium bis(borate)'
_chemical_formula_structural 'Li3 Y (B O3)2'
_chemical_formula_sum 'B2 Li3 O6 Y1'
_exptl_crystal_density_diffrn 3.05
_cell_measurement_temperature 286.
_publ_section_title 'Synthesis and structural characterization of Li3Y(BO3)2'
loop_
_citation_id
_citation_journal_full
_citation_year
_citation_journal_volume
_citation_page_first
_citation_page_last
_citation_journal_id_ASTM
primary 'Zeitschrift fuer Naturforschung, B: Chemical Sciences' 2017 72 153 158
ZNBSEN
loop_
_publ_author_name
'Braeuchle, Sebastian'
'Huppertz, Hubert'
_cell_length_a 8.6161(3)
_cell_length_b 6.4160(3)
_cell_length_c 10.0136(3)
_cell_angle_alpha 90
_cell_angle_beta 116.609(2)
_cell_angle_gamma 90
_cell_volume 494.92
_cell_formula_units_Z 4
_symmetry_space_group_name_H-M 'P 1 21/c 1'
_symmetry_Int_Tables_number 14
_refine_ls_R_factor_all 0.0168
loop_
_symmetry_equiv_pos_site_id
_symmetry_equiv_pos_as_xyz
1 'x, -y+1/2, z+1/2'
2 '-x, -y, -z'
3 '-x, y+1/2, -z+1/2'
4 'x, y, z'
loop_
_atom_type_symbol
_atom_type_oxidation_number
Y3+ 3
Li1+ 1
B3+ 3
O2- -2
loop_
_atom_site_label
_atom_site_type_symbol
_atom_site_symmetry_multiplicity
_atom_site_Wyckoff_symbol
_atom_site_fract_x
_atom_site_fract_y
_atom_site_fract_z
_atom_site_B_iso_or_equiv
_atom_site_occupancy
_atom_site_attached_hydrogens
Y1 Y3+ 4 e 0.31898(2) 0.52817(2) 0.30185(2) 0.00514(3) 1 0
Li1 Li1+ 4 e 0.1014(3) 0.7471(3) 0.4786(2) 0.0140(3) 1 0
Li2 Li1+ 4 e 0.2068(3) 0.0596(3) 0.1669(2) 0.0131(3) 1 0
Li3 Li1+ 4 e 0.3346(2) 0.2816(3) 0.0389(2) 0.0104(3) 1 0
B1 B3+ 4 e 0.03936(13) 0.33831(15) 0.31939(11) 0.00641(14) 1 0
B2 B3+ 4 e 0.55482(13) 0.17239(15) 0.39156(11) 0.00596(14) 1 0
O1 O2- 4 e 0.09375(9) 0.29389(11) 0.21134(8) 0.00849(11) 1 0
O2 O2- 4 e 0.12236(9) 0.79000(11) 0.19495(8) 0.00875(11) 1 0
O3 O2- 4 e 0.16192(9) 0.44162(11) 0.44561(8) 0.00752(11) 1 0
O4 O2- 4 e 0.29446(9) 0.56223(11) 0.06164(8) 0.00697(11) 1 0
O5 O2- 4 e 0.44460(9) 0.18014(12) 0.23996(7) 0.00931(11) 1 0
O6 O2- 4 e 0.51095(9) 0.28956(11) 0.48432(7) 0.00727(11) 1 0
loop_
_atom_site_aniso_label
_atom_site_aniso_type_symbol
_atom_site_aniso_U_11
_atom_site_aniso_U_22
_atom_site_aniso_U_33
_atom_site_aniso_U_12
_atom_site_aniso_U_13
_atom_site_aniso_U_23
Y1 Y3+ 0.00476(4) 0.00630(4) 0.00423(4) -0.00031(2) 0.00190(3) 0.00042(2)
Li1 Li1+ 0.0114(8) 0.0152(9) 0.0118(8) -0.0006(7) 0.0019(7) -0.0002(7)
Li2 Li1+ 0.0139(8) 0.0107(8) 0.0160(8) -0.0017(6) 0.0078(7) -0.0014(6)
Li3 Li1+ 0.0114(8) 0.0099(7) 0.0103(7) -0.0003(6) 0.0052(6) -0.0021(6)
B1 B3+ 0.0063(3) 0.0059(4) 0.0070(3) -0.0001(3) 0.0030(3) 0.0000(3)
B2 B3+ 0.0064(3) 0.0058(3) 0.0058(3) -0.0005(3) 0.0028(3) -0.0001(3)
O1 O2- 0.0078(3) 0.0103(3) 0.0086(3) -0.0018(2) 0.0047(2) -0.0030(2)
O2 O2- 0.0071(3) 0.0087(3) 0.0119(3) 0.0023(2) 0.0055(2) 0.0019(2)
O3 O2- 0.0071(3) 0.0082(3) 0.0061(2) -0.0007(2) 0.0020(2) -0.00094(19)
O4 O2- 0.0063(2) 0.0073(3) 0.0073(3) -0.00088(19) 0.0030(2) -0.00035(19)
O5 O2- 0.0076(3) 0.0140(3) 0.0049(2) 0.0014(2) 0.0015(2) 0.0004(2)
O6 O2- 0.0080(3) 0.0075(3) 0.0069(3) 0.0004(2) 0.0038(2) -0.0018(2)
#End of TTdata_432026-ICSD