
#(C) 2018 by FIZ Karlsruhe - Leibniz Institute for Information Infrastructure.  All rights reserved.
data_432136-ICSD
_database_code_ICSD 432136
_audit_creation_date 2018-02-01
_chemical_name_systematic 'Cobalt lithium orthophosphate'
_chemical_formula_structural 'Co Li (P O4)'
_chemical_formula_sum 'Co1 Li1 O4 P1'
_chemical_name_structure_type Olivine-Mg2SiO4
_exptl_crystal_density_diffrn 3.75
_cell_measurement_temperature 298.
_publ_section_title

;
Particle size-controllable microwave-assisted solvothermal synthesis of the
high-voltage cathode material LiCoPO4 using water/ethylene glycol solvent
blends
;
loop_
_citation_id
_citation_journal_full
_citation_year
_citation_journal_volume
_citation_page_first
_citation_page_last
_citation_journal_id_ASTM
primary 'Solid State Sciences' 2017 65 100 109 SSSCFJ
loop_
_publ_author_name
'Ludwig, Jennifer'
'Haering, Dominik'
'Doeff, Marca M.'
'Nilges, Tom'
_cell_length_a 10.2097(2)
_cell_length_b 5.92785(13)
_cell_length_c 4.70315(10)
_cell_angle_alpha 90
_cell_angle_beta 90
_cell_angle_gamma 90
_cell_volume 284.64
_cell_formula_units_Z 4
_symmetry_space_group_name_H-M 'P n m a'
_symmetry_Int_Tables_number 62
_refine_ls_R_factor_all 0.0244
loop_
_symmetry_equiv_pos_site_id
_symmetry_equiv_pos_as_xyz
1 'x+1/2, y, -z+1/2'
2 'x, -y+1/2, z'
3 '-x+1/2, y+1/2, z+1/2'
4 '-x, -y, -z'
5 '-x+1/2, -y, z+1/2'
6 '-x, y+1/2, -z'
7 'x+1/2, -y+1/2, -z+1/2'
8 'x, y, z'
loop_
_atom_type_symbol
_atom_type_oxidation_number
Li1+ 1
Co2+ 2
P5+ 5
O2- -2
loop_
_atom_site_label
_atom_site_type_symbol
_atom_site_symmetry_multiplicity
_atom_site_Wyckoff_symbol
_atom_site_fract_x
_atom_site_fract_y
_atom_site_fract_z
_atom_site_B_iso_or_equiv
_atom_site_occupancy
_atom_site_attached_hydrogens
Li1 Li1+ 4 a 0 0 0 0.0139 1 0
Co1 Co2+ 4 c 0.22131(13) 0.25 0.5210(4) 0.0118(6) 1 0
P1 P5+ 4 c 0.4050(3) 0.25 0.0821(6) 0.0074(8) 1 0
O1 O2- 4 c 0.4040(7) 0.25 0.7661(13) 0.006(2) 1 0
O2 O2- 4 c 0.0450(7) 0.25 0.2942(13) 0.005(2) 1 0
O3 O2- 8 d 0.3351(5) 0.0470(8) 0.2166(8) 0.0049(13) 1 0
#End of TTdata_432136-ICSD