
#(C) 2018 by FIZ Karlsruhe - Leibniz Institute for Information Infrastructure.  All rights reserved.
data_432282-ICSD
_database_code_ICSD 432282
_audit_creation_date 2018-02-01
_chemical_name_systematic 'Cobalt lithium phosphate(V)'
_chemical_formula_structural 'Co0.99 Li1.01 (P O4)'
_chemical_formula_sum 'Co0.99 Li1.01 O4 P1'
_chemical_name_structure_type KNiPO4
_exptl_crystal_density_diffrn 3.19
_cell_measurement_temperature 298.
_publ_section_title

;
Synthesis and characterization of metastable, 20 nm-sized Pna21-LiCoPO4
nanospheres
;
loop_
_citation_id
_citation_journal_full
_citation_year
_citation_journal_volume
_citation_page_first
_citation_page_last
_citation_journal_id_ASTM
primary 'Journal of Solid State Chemistry' 2017 248 9 17 JSSCBI
loop_
_publ_author_name
'Ludwig, Jennifer'
'Nordlund, Dennis'
'Doeff, Marca M.'
'Nilges, Tom'
_cell_length_a 10.0256(6)
_cell_length_b 4.9631(3)
_cell_length_c 6.7157(4)
_cell_angle_alpha 90
_cell_angle_beta 90
_cell_angle_gamma 90
_cell_volume 334.16
_cell_formula_units_Z 4
_symmetry_space_group_name_H-M 'P n a 21'
_symmetry_Int_Tables_number 33
_refine_ls_R_factor_all 0.0261
loop_
_symmetry_equiv_pos_site_id
_symmetry_equiv_pos_as_xyz
1 'x+1/2, -y+1/2, z'
2 '-x+1/2, y+1/2, z+1/2'
3 '-x, -y, z+1/2'
4 'x, y, z'
loop_
_atom_type_symbol
_atom_type_oxidation_number
Li1+ 1
Co2+ 2
Li1+ 1
Co2+ 2
P5+ 5
O2- -2
loop_
_atom_site_label
_atom_site_type_symbol
_atom_site_symmetry_multiplicity
_atom_site_Wyckoff_symbol
_atom_site_fract_x
_atom_site_fract_y
_atom_site_fract_z
_atom_site_B_iso_or_equiv
_atom_site_occupancy
_atom_site_attached_hydrogens
Li1 Li1+ 4 a 0.15412 0.18989 0.518475 0.0139 0.957(5) 0
Co1 Co2+ 4 a 0.15412 0.18989 0.518475 0.0139 0.043(5) 0
Li2 Li1+ 4 a 0.1541(6) 0.1864(11) 0 0.0106(17) 0.056(11) 0
Co2 Co2+ 4 a 0.1541(6) 0.1864(11) 0 0.0106(17) 0.944(11) 0
P1 P5+ 4 a 0.4078(11) 0.189(2) 0.2457(13) 0.009(3) 1 0
O1 O2- 4 a 0.0627(19) 0.255(4) 0.241(4) 0.006(2) 1 0
O2 O2- 4 a 0.1141(19) 0.377(4) 0.780(3) 0.005(2) 1 0
O3 O2- 4 a 0.343(2) 0.292(4) 0.510(5) 0.007(2) 1 0
O4 O2- 4 a 0.331(2) 0.299(4) 0.081(3) 0.006(2) 1 0
#End of TTdata_432282-ICSD