
#(C) 2018 by FIZ Karlsruhe - Leibniz Institute for Information Infrastructure.  All rights reserved.
data_432776-ICSD
_database_code_ICSD 432776
_audit_creation_date 2018-02-01
_chemical_name_systematic 'Lithium dieuropium(II) hydride oxide dichloride'
_chemical_formula_structural 'Li Eu2 H O Cl2'
_chemical_formula_sum 'H1 Cl2 Eu2 Li1 O1'
_exptl_crystal_density_diffrn 5.54
_cell_measurement_temperature 100.
_publ_section_title

;
Crystal structure and luminescence properties of the first hydride oxide
chloride with divalent europium. LiEu2HOCl2
;
loop_
_citation_id
_citation_journal_full
_citation_year
_citation_journal_volume
_citation_page_first
_citation_page_last
_citation_journal_id_ASTM
primary 'Zeitschrift fuer Anorganische und Allgemeine Chemie (1950) (DE)' 2017
643 1525 1530 ZAACAB
loop_
_publ_author_name
'Rudolph, Daniel'
'Enseling, David'
'Juestel, Thomas'
'Schleid, Thomas'
_cell_length_a 14.8674(11)
_cell_length_b 5.6856(4)
_cell_length_c 11.3209(8)
_cell_angle_alpha 90.
_cell_angle_beta 90.
_cell_angle_gamma 90.
_cell_volume 956.95
_cell_formula_units_Z 8
_symmetry_space_group_name_H-M 'C m c m'
_symmetry_Int_Tables_number 63
_refine_ls_R_factor_all 0.0277
loop_
_symmetry_equiv_pos_site_id
_symmetry_equiv_pos_as_xyz
1 '-x, y, -z+1/2'
2 '-x, -y, z+1/2'
3 '-x, y, z'
4 '-x, -y, -z'
5 'x, -y, z+1/2'
6 'x, y, -z+1/2'
7 'x, -y, -z'
8 'x, y, z'
9 '-x+1/2, y+1/2, -z+1/2'
10 '-x+1/2, -y+1/2, z+1/2'
11 '-x+1/2, y+1/2, z'
12 '-x+1/2, -y+1/2, -z'
13 'x+1/2, -y+1/2, z+1/2'
14 'x+1/2, y+1/2, -z+1/2'
15 'x+1/2, -y+1/2, -z'
16 'x+1/2, y+1/2, z'
loop_
_atom_type_symbol
_atom_type_oxidation_number
Li1+ 1
Eu2+ 2
Cl1- -1
O2- -2
H1- -1
loop_
_atom_site_label
_atom_site_type_symbol
_atom_site_symmetry_multiplicity
_atom_site_Wyckoff_symbol
_atom_site_fract_x
_atom_site_fract_y
_atom_site_fract_z
_atom_site_B_iso_or_equiv
_atom_site_occupancy
_atom_site_attached_hydrogens
Li1 Li1+ 4 a 0. 0. 0. 0.020(4) 1 0
Li2 Li1+ 4 c 0. 0.500(3) 0.25 0.016(3) 1 0
Eu1 Eu2+ 8 e 0.389648(17) 0. 0. 0.00509(10) 1 0
Eu2 Eu2+ 8 g 0.390691(17) 0.45805(6) 0.25 0.00645(11) 1 0
Cl1 Cl1- 8 e 0.17927(9) 0. 0. 0.0061(2) 1 0
Cl2 Cl1- 8 g 0.17975(9) 0.4618(2) 0.25 0.0077(2) 1 0
O1 O2- 8 f 0. 0.2682(7) 0.6178(3) 0.0083(7) 1 0
H1 H1- 8 f 0. 0.247(3) 0.1197(16) 0.012 1 0
loop_
_atom_site_aniso_label
_atom_site_aniso_type_symbol
_atom_site_aniso_U_11
_atom_site_aniso_U_22
_atom_site_aniso_U_33
_atom_site_aniso_U_12
_atom_site_aniso_U_13
_atom_site_aniso_U_23
Li1 Li1+ 0.034(13) 0.014(7) 0.010(6) 0. 0. 0.000(5)
Li2 Li1+ 0.025(10) 0.015(7) 0.008(7) 0. 0. 0.
Eu1 Eu2+ 0.00522(15) 0.00414(16) 0.00590(15) 0. 0. -0.00050(8)
Eu2 Eu2+ 0.00522(15) 0.00856(16) 0.00557(15) 0.00002(7) 0. 0.
Cl1 Cl1- 0.0062(5) 0.0056(5) 0.0064(5) 0. 0. 0.0002(3)
Cl2 Cl1- 0.0067(5) 0.0093(5) 0.0072(5) 0.0002(4) 0. 0.
O1 O2- 0.0077(15) 0.0093(16) 0.0078(16) 0. 0. -0.0014(13)
#End of TTdata_432776-ICSD