
#(C) 2018 by FIZ Karlsruhe - Leibniz Institute for Information Infrastructure.  All rights reserved.
data_433117-ICSD
_database_code_ICSD 433117
_audit_creation_date 2018-02-01
_chemical_name_systematic 'Cobalt(II) cobalt(III) trilithium tellurate'
_chemical_formula_structural 'Co Li3 Te O6'
_chemical_formula_sum 'Co1 Li3 O6 Te1'
_exptl_crystal_density_diffrn 4.49
_cell_measurement_temperature 273.
_publ_section_title

;
Li3Co1.06(1)TeO6. Synthesis, single-crystal structure and physical properties
of a new tellurate compound with CoII/CoIII mixed valence and orthogonally
oriented Li-ion channels
;
loop_
_citation_id
_citation_journal_full
_citation_year
_citation_journal_volume
_citation_page_first
_citation_page_last
_citation_journal_id_ASTM
primary 'Dalton Transactions' 2017 46 12663 12674 DTARAF
loop_
_publ_author_name
'Heymann, Gunter'
'Selb, Elisabeth'
'Kogler, Michaela'
'Goetsch, Thomas'
'Koeck, Eva-Maria'
'Penner, Simon'
'Tribus, Martina'
'Janka, Oliver'
_cell_length_a 5.8864(12)
_cell_length_b 8.5671(17)
_cell_length_c 17.815(4)
_cell_angle_alpha 90
_cell_angle_beta 90
_cell_angle_gamma 90
_cell_volume 898.39
_cell_formula_units_Z 8
_symmetry_space_group_name_H-M 'F d d d Z'
_symmetry_Int_Tables_number 70
_refine_ls_R_factor_all 0.0174
loop_
_symmetry_equiv_pos_site_id
_symmetry_equiv_pos_as_xyz
1 'x+3/4, y+3/4, -z'
2 'x+3/4, -y, z+3/4'
3 '-x, y+3/4, z+3/4'
4 '-x, -y, -z'
5 '-x+1/4, -y+1/4, z'
6 '-x+1/4, y, -z+1/4'
7 'x, -y+1/4, -z+1/4'
8 'x, y, z'
9 'x+3/4, y+1/4, -z+1/2'
10 'x+3/4, -y+1/2, z+1/4'
11 '-x, y+1/4, z+1/4'
12 '-x, -y+1/2, -z+1/2'
13 '-x+1/4, -y+3/4, z+1/2'
14 '-x+1/4, y+1/2, -z+3/4'
15 'x, -y+3/4, -z+3/4'
16 'x, y+1/2, z+1/2'
17 'x+1/4, y+3/4, -z+1/2'
18 'x+1/4, -y, z+1/4'
19 '-x+1/2, y+3/4, z+1/4'
20 '-x+1/2, -y, -z+1/2'
21 '-x+3/4, -y+1/4, z+1/2'
22 '-x+3/4, y, -z+3/4'
23 'x+1/2, -y+1/4, -z+3/4'
24 'x+1/2, y, z+1/2'
25 'x+1/4, y+1/4, -z'
26 'x+1/4, -y+1/2, z+3/4'
27 '-x+1/2, y+1/4, z+3/4'
28 '-x+1/2, -y+1/2, -z'
29 '-x+3/4, -y+3/4, z'
30 '-x+3/4, y+1/2, -z+1/4'
31 'x+1/2, -y+3/4, -z+1/4'
32 'x+1/2, y+1/2, z'
loop_
_atom_type_symbol
_atom_type_oxidation_number
Co2+ 2.83
Te6+ 6
O2- -2
Li1+ 1
loop_
_atom_site_label
_atom_site_type_symbol
_atom_site_symmetry_multiplicity
_atom_site_Wyckoff_symbol
_atom_site_fract_x
_atom_site_fract_y
_atom_site_fract_z
_atom_site_B_iso_or_equiv
_atom_site_occupancy
_atom_site_attached_hydrogens
Co1 Co2+ 16 g 0.375 0.375 0.04298(4) 0.0075(2) 0.531(3) 0
Te1 Te6+ 8 a 0.125 0.125 0.125 0.00457(8) 1 0
O1 O2- 16 f 0.125 0.3499(2) 0.125 0.0086(3) 1 0
O2 O2- 32 h 0.1076(3) 0.37417(19) 0.29817(8) 0.0087(2) 1 0
Li1 Li1+ 8 b 0.375 0.375 0.375 0.0168(17) 1 0
Li2 Li1+ 16 g 0.375 0.375 0.2135(7) 0.047(3) 1 0
loop_
_atom_site_aniso_label
_atom_site_aniso_type_symbol
_atom_site_aniso_U_11
_atom_site_aniso_U_22
_atom_site_aniso_U_33
_atom_site_aniso_U_12
_atom_site_aniso_U_13
_atom_site_aniso_U_23
Co1 Co2+ 0.0079(3) 0.0077(3) 0.0068(3) -0.0029(3) 0. 0.
Te1 Te6+ 0.00433(10) 0.00501(10) 0.00437(10) 0. 0. 0.
O1 O2- 0.0088(8) 0.0060(7) 0.0111(8) 0. 0.0013(7) 0.
O2 O2- 0.0075(5) 0.0108(6) 0.0076(5) 0.0008(6) 0.0019(4) -0.0003(4)
Li1 Li1+ 0.008(3) 0.032(5) 0.010(3) 0. 0. 0.
Li2 Li1+ 0.054(7) 0.045(6) 0.041(6) 0.038(6) 0. 0.
#End of TTdata_433117-ICSD