
#(C) 2018 by FIZ Karlsruhe - Leibniz Institute for Information Infrastructure.  All rights reserved.
data_433222-ICSD
_database_code_ICSD 433222
_audit_creation_date 2018-02-01
_chemical_name_systematic 'Lithium lead(II) chloride carbodiimide'
_chemical_formula_structural 'Li Pb Cl (C N2)'
_chemical_formula_sum 'C1 Cl1 Li1 N2 Pb1'
_exptl_crystal_density_diffrn 4.75
_cell_measurement_temperature 298.
_publ_section_title 'Lead carbodiimides related to the mineral Bideauxite'
loop_
_citation_id
_citation_journal_full
_citation_year
_citation_journal_volume
_citation_page_first
_citation_page_last
_citation_journal_id_ASTM
primary 'Zeitschrift fuer Anorganische und Allgemeine Chemie (1950) (DE)' 2017
643 1898 1903 ZAACAB
loop_
_publ_author_name
'Dolabdjian, Konstantin'
'Meyer, Hans-Juergen'
_cell_length_a 5.40785(3)
_cell_length_b 3.96935(2)
_cell_length_c 9.62843(5)
_cell_angle_alpha 90.
_cell_angle_beta 101.6669(4)
_cell_angle_gamma 90.
_cell_volume 202.41
_cell_formula_units_Z 2
_symmetry_space_group_name_H-M 'P 1 21/m 1'
_symmetry_Int_Tables_number 11
_refine_ls_R_factor_all 0.0391
loop_
_symmetry_equiv_pos_site_id
_symmetry_equiv_pos_as_xyz
1 'x, -y+1/2, z'
2 '-x, -y, -z'
3 '-x, y+1/2, -z'
4 'x, y, z'
loop_
_atom_type_symbol
_atom_type_oxidation_number
Pb2+ 2
Li1+ 1
Cl1- -1
C4+ 4
N3- -3
loop_
_atom_site_label
_atom_site_type_symbol
_atom_site_symmetry_multiplicity
_atom_site_Wyckoff_symbol
_atom_site_fract_x
_atom_site_fract_y
_atom_site_fract_z
_atom_site_B_iso_or_equiv
_atom_site_occupancy
_atom_site_attached_hydrogens
Pb1 Pb2+ 2 e 0.95940(17) 0.75 0.17317(10) 0.0304(2) 1. 0
Li1 Li1+ 2 e 0.308(5) 0.75 0.579(3) 0.024(2) 1. 0
Cl1 Cl1- 2 e 0.7741(8) 0.75 0.5563(4) 0.0311(14) 1. 0
C1 C4+ 2 e 0.556(3) 0.75 0.8684(16) 0.024(2) 1. 0
N1 N3- 2 e 0.345(2) 0.75 0.7904 0.024(2) 1. 0
N2 N3- 2 e 0.792(2) 0.75 0.9237(13) 0.024(2) 1. 0
#End of TTdata_433222-ICSD