
#(C) 2018 by FIZ Karlsruhe - Leibniz Institute for Information Infrastructure.  All rights reserved.
data_433210-ICSD
_database_code_ICSD 433210
_audit_creation_date 2018-02-01
_chemical_name_systematic 'Trilithium tripotassium heptaeuropium nonaborate'
_chemical_formula_structural 'Li3 K3 Eu7 (B O3)9'
_chemical_formula_sum 'B9 Eu7 K3 Li3 O27'
_exptl_crystal_density_diffrn 4.75
_cell_measurement_temperature 298.
_publ_section_title
'Synthesis and structural characterization of Li3K3Eu7(BO3)9'
loop_
_citation_id
_citation_journal_full
_citation_year
_citation_journal_volume
_citation_page_first
_citation_page_last
_citation_journal_id_ASTM
primary 'Zeitschrift fuer Naturforschung, B: Chemical Sciences' 2017 72 959 965
ZNBSEN
loop_
_publ_author_name
'Braeuchle, Sebastian'
'Seibald, Markus'
'Huppertz, Hubert'
_cell_length_a 21.1258(10)
_cell_length_b 6.5019(3)
_cell_length_c 17.6192(9)
_cell_angle_alpha 90
_cell_angle_beta 90
_cell_angle_gamma 90
_cell_volume 2420.13
_cell_formula_units_Z 4
_symmetry_space_group_name_H-M 'P c a 21'
_symmetry_Int_Tables_number 29
_refine_ls_R_factor_all 0.0176
loop_
_symmetry_equiv_pos_site_id
_symmetry_equiv_pos_as_xyz
1 'x+1/2, -y, z'
2 '-x+1/2, y, z+1/2'
3 '-x, -y, z+1/2'
4 'x, y, z'
loop_
_atom_type_symbol
_atom_type_oxidation_number
Eu3+ 3
K1+ 1
B3+ 3
Li1+ 1
O2- -2
loop_
_atom_site_label
_atom_site_type_symbol
_atom_site_symmetry_multiplicity
_atom_site_Wyckoff_symbol
_atom_site_fract_x
_atom_site_fract_y
_atom_site_fract_z
_atom_site_B_iso_or_equiv
_atom_site_occupancy
_atom_site_attached_hydrogens
Eu1 Eu3+ 4 a 0.23790(2) 0.32242(3) 0.58715(2) 0.00495(3) 1 0
Eu2 Eu3+ 4 a 0.63159(2) 0.29659(3) 0.51713(2) 0.00564(3) 1 0
Eu3 Eu3+ 4 a 0.36932(2) 0.34489(3) 0.32247(2) 0.00538(3) 1 0
Eu4 Eu3+ 4 a 0.22880(2) 1.06332(3) 0.40978(2) 0.00539(3) 1 0
Eu5 Eu3+ 4 a 0.38535(2) 1.03495(3) 0.66577(2) 0.00534(3) 1 0
Eu6 Eu3+ 4 a 0.52348(2) 0.27681(3) 0.75297(2) 0.00633(3) 1 0
Eu7 Eu3+ 4 a 0.49825(2) 1.07364(3) 0.42209(2) 0.00690(3) 1 0
K1 K1+ 4 a -0.00667(5) 0.37754(17) 0.57638(6) 0.01503(17) 1 0
K2 K1+ 4 a 0.24503(6) 0.70154(17) 0.24685(6) 0.01727(19) 1 0
K3 K1+ 4 a 0.34809(6) 0.67056(19) 0.49025(9) 0.0230(2) 1 0
B1 B3+ 4 a 0.3687(2) 0.9041(7) 0.3219(3) 0.0074(7) 1 0
B2 B3+ 4 a 0.2351(2) 0.8888(7) 0.5915(3) 0.0066(6) 1 0
B3 B3+ 4 a 0.3809(2) 0.4841(7) 0.6743(3) 0.0092(7) 1 0
B4 B3+ 4 a 0.5116(2) 0.5188(7) 0.4007(3) 0.0078(7) 1 0
B5 B3+ 4 a 0.2233(2) 0.5007(7) 0.4068(3) 0.0080(7) 1 0
B6 B3+ 4 a 0.1232(2) 0.3768(7) 0.6647(3) 0.0072(6) 1 0
B7 B3+ 4 a 0.1136(2) 1.0096(8) 0.3324(3) 0.0082(7) 1 0
B8 B3+ 4 a 0.5419(2) 1.0677(7) 0.6115(3) 0.0070(7) 1 0
B9 B3+ 4 a 0.3716(2) 1.1747(8) 0.4918(3) 0.0084(7) 1 0
Li1 Li1+ 4 a 0.2340(6) 1.220(3) 0.2486(8) 0.040(4) 1 0
Li2 Li1+ 4 a 0.6114(5) 0.8084(16) 0.5017(6) 0.0182(19) 1 0
Li3 Li1+ 4 a 0.0023(6) 0.2113(18) 0.7458(6) 0.022(2) 1 0
O1 O2- 4 a 0.22418(18) 0.7083(5) 0.4151(2) 0.0136(6) 1 0
O2 O2- 4 a 0.54934(16) 1.0098(5) 0.53643(17) 0.0088(5) 1 0
O3 O2- 4 a 0.16886(16) 1.0457(5) 0.29292(18) 0.0106(5) 1 0
O4 O2- 4 a 0.25632(17) 0.3939(5) 0.35218(18) 0.0109(5) 1 0
O5 O2- 4 a 0.18114(16) 0.3388(5) 0.70193(19) 0.0099(5) 1 0
O6 O2- 4 a 0.18691(15) 0.3867(5) 0.45840(18) 0.0086(5) 1 0
O7 O2- 4 a 0.23218(15) 0.6797(5) 0.5865(2) 0.0096(5) 1 0
O8 O2- 4 a 0.27147(16) 0.9980(5) 0.6412(2) 0.0109(5) 1 0
O9 O2- 4 a 0.05664(16) 0.9995(6) 0.29610(19) 0.0122(6) 1 0
O10 O2- 4 a 0.07082(14) 0.3966(5) 0.70954(17) 0.0073(5) 1 0
O11 O2- 4 a 0.54377(15) 0.4065(5) 0.45457(18) 0.0090(5) 1 0
O12 O2- 4 a 0.49111(17) 0.4167(5) 0.33557(19) 0.0106(5) 1 0
O13 O2- 4 a 0.58115(19) 1.2216(5) 0.6372(2) 0.0146(6) 1 0
O14 O2- 4 a 0.49767(15) 0.9885(5) 0.66010(17) 0.0082(5) 1 0
O15 O2- 4 a 0.43419(15) 0.3675(5) 0.6879(2) 0.0115(6) 1 0
O16 O2- 4 a 0.32476(17) 0.3698(6) 0.6672(3) 0.0188(7) 1 0
O17 O2- 4 a 0.37190(16) 0.6958(5) 0.3161(2) 0.0116(6) 1 0
O18 O2- 4 a 0.12413(14) 0.3857(5) 0.58720(17) 0.0072(5) 1 0
O19 O2- 4 a 0.42460(15) 1.0168(5) 0.31466(19) 0.0087(5) 1 0
O20 O2- 4 a 0.19637(15) 0.9993(5) 0.54075(17) 0.0071(5) 1 0
O21 O2- 4 a 0.11626(14) 0.9833(5) 0.41057(19) 0.0105(5) 1 0
O22 O2- 4 a 0.38310(19) 0.6890(5) 0.6654(3) 0.0193(7) 1 0
O23 O2- 4 a 0.40198(19) 1.0208(6) 0.5298(2) 0.0144(6) 1 0
O24 O2- 4 a 0.40714(16) 0.3001(5) 0.44511(19) 0.0110(5) 1 0
O25 O2- 4 a 0.31441(16) 1.0142(5) 0.3323(2) 0.0165(7) 1 0
O26 O2- 4 a 0.30752(16) 0.2077(7) 0.4946(2) 0.0188(7) 1 0
O27 O2- 4 a 0.4992(2) 0.7231(6) 0.4076(3) 0.0236(9) 1 0
loop_
_atom_site_aniso_label
_atom_site_aniso_type_symbol
_atom_site_aniso_U_11
_atom_site_aniso_U_22
_atom_site_aniso_U_33
_atom_site_aniso_U_12
_atom_site_aniso_U_13
_atom_site_aniso_U_23
Eu1 Eu3+ 0.00410(7) 0.00506(7) 0.00569(7) 0.00046(5) -0.00008(6) -0.00020(5)
Eu2 Eu3+ 0.00411(7) 0.00558(7) 0.00722(7) 0.00032(5) -0.00113(6) -0.00046(6)
Eu3 Eu3+ 0.00556(7) 0.00460(7) 0.00599(7) -0.00002(6) -0.00042(6) 0.00050(6)
Eu4 Eu3+ 0.00451(7) 0.00560(6) 0.00608(7) -0.00024(5) 0.00107(6) -0.00027(6)
Eu5 Eu3+ 0.00438(7) 0.00471(6) 0.00694(7) -0.00019(6) -0.00042(6) 0.00005(6)
Eu6 Eu3+ 0.00536(7) 0.00591(7) 0.00771(7) -0.00053(6) -0.00174(6) 0.00027(6)
Eu7 Eu3+ 0.00604(7) 0.00592(7) 0.00873(8) 0.00080(5) -0.00323(6) -0.00142(6)
K1 K1+ 0.0123(4) 0.0175(4) 0.0153(4) 0.0021(3) 0.0034(3) 0.0026(3)
K2 K1+ 0.0246(5) 0.0159(4) 0.0114(4) 0.0055(4) -0.0018(4) 0.0016(3)
K3 K1+ 0.0217(5) 0.0155(5) 0.0319(6) -0.0012(4) -0.0012(5) -0.0036(4)
B1 B3+ 0.0069(16) 0.0051(15) 0.0101(17) -0.0005(13) 0.0027(14) -0.0013(14)
B2 B3+ 0.0076(16) 0.0044(14) 0.0079(16) 0.0000(12) -0.0027(13) 0.0003(13)
B3 B3+ 0.0094(17) 0.0054(15) 0.0127(19) -0.0011(13) -0.0023(15) 0.0007(14)
B4 B3+ 0.0095(17) 0.0048(15) 0.0092(17) -0.0012(13) -0.0019(14) 0.0010(13)
B5 B3+ 0.0100(17) 0.0080(15) 0.0059(16) 0.0011(13) 0.0030(13) -0.0002(14)
B6 B3+ 0.0059(15) 0.0077(16) 0.0079(16) 0.0002(13) 0.0022(14) -0.0001(14)
B7 B3+ 0.0042(15) 0.0140(19) 0.0065(16) -0.0029(14) -0.0010(12) -0.0009(14)
B8 B3+ 0.0078(16) 0.0081(16) 0.0051(15) 0.0009(13) 0.0016(13) -0.0018(12)
B9 B3+ 0.0065(16) 0.0115(18) 0.0071(16) 0.0004(14) -0.0021(14) -0.0008(14)
Li1 Li1+ 0.020(5) 0.071(10) 0.029(6) -0.023(6) -0.010(5) 0.016(7)
Li2 Li1+ 0.016(4) 0.018(4) 0.020(5) 0.012(3) 0.008(3) 0.012(3)
Li3 Li1+ 0.028(5) 0.026(5) 0.010(4) -0.019(4) 0.004(4) -0.002(4)
O1 O2- 0.0235(16) 0.0052(11) 0.0122(14) -0.0006(11) 0.0061(13) 0.0003(11)
O2 O2- 0.0093(13) 0.0114(13) 0.0058(11) 0.0008(10) 0.0004(9) 0.0007(9)
O3 O2- 0.0097(13) 0.0160(14) 0.0062(12) -0.0029(11) 0.0007(10) 0.0004(10)
O4 O2- 0.0146(14) 0.0079(12) 0.0102(13) 0.0023(11) 0.0071(11) 0.0013(10)
O5 O2- 0.0055(11) 0.0168(14) 0.0074(11) 0.0009(10) 0.0000(9) 0.0003(10)
O6 O2- 0.0096(12) 0.0074(11) 0.0089(12) -0.0007(10) 0.0044(10) 0.0017(10)
O7 O2- 0.0105(13) 0.0052(11) 0.0130(13) -0.0016(9) -0.0039(11) 0.0010(10)
O8 O2- 0.0127(14) 0.0070(12) 0.0129(14) -0.0020(10) -0.0071(11) 0.0014(10)
O9 O2- 0.0082(12) 0.0182(15) 0.0101(12) -0.0041(11) -0.0049(10) 0.0010(11)
O10 O2- 0.0067(11) 0.0095(12) 0.0058(11) -0.0005(9) 0.0008(9) -0.0006(9)
O11 O2- 0.0075(12) 0.0083(12) 0.0112(12) 0.0014(10) -0.0055(10) 0.0009(10)
O12 O2- 0.0121(13) 0.0127(13) 0.0069(11) -0.0020(11) -0.0025(10) -0.0011(10)
O13 O2- 0.0174(16) 0.0133(14) 0.0131(14) -0.0085(12) 0.0068(12) -0.0048(12)
O14 O2- 0.0075(11) 0.0108(12) 0.0062(12) -0.0004(9) 0.0024(9) 0.0013(10)
O15 O2- 0.0050(11) 0.0075(11) 0.0219(16) 0.0021(9) -0.0036(11) 0.0029(11)
O16 O2- 0.0103(14) 0.0121(13) 0.034(2) -0.0012(11) -0.0098(15) 0.0016(14)
O17 O2- 0.0083(12) 0.0055(11) 0.0209(16) -0.0004(10) 0.0024(12) -0.0018(11)
O18 O2- 0.0086(11) 0.0079(11) 0.0050(11) -0.0001(9) 0.0009(9) 0.0003(9)
O19 O2- 0.0063(11) 0.0053(11) 0.0145(13) -0.0002(9) -0.0013(10) -0.0007(10)
O20 O2- 0.0074(12) 0.0067(11) 0.0070(11) -0.0007(10) -0.0017(9) 0.0007(10)
O21 O2- 0.0073(12) 0.0180(14) 0.0061(12) -0.0025(10) 0.0000(10) 0.0015(11)
O22 O2- 0.0139(14) 0.0045(12) 0.039(2) 0.0005(11) 0.0043(15) 0.0029(15)
O23 O2- 0.0195(17) 0.0118(13) 0.0121(14) 0.0018(12) -0.0051(12) 0.0019(11)
O24 O2- 0.0097(13) 0.0152(14) 0.0081(12) -0.0021(11) 0.0004(10) 0.0027(10)
O25 O2- 0.0077(12) 0.0083(12) 0.033(2) 0.0005(11) 0.0118(13) -0.0036(13)
O26 O2- 0.0041(12) 0.039(2) 0.0135(14) 0.0016(13) 0.0018(11) -0.0013(14)
O27 O2- 0.031(2) 0.0063(14) 0.034(2) 0.0045(12) -0.0153(19) -0.0001(14)
#End of TTdata_433210-ICSD