
#(C) 2018 by FIZ Karlsruhe - Leibniz Institute for Information Infrastructure.  All rights reserved.
data_433369-ICSD
_database_code_ICSD 433369
_audit_creation_date 2018-02-01
_chemical_name_systematic 'Pentalithium aluminium tetrasulfide'
_chemical_formula_structural 'Li5 Al S4'
_chemical_formula_sum 'Al1 Li5 S4'
_exptl_crystal_density_diffrn 1.88
_cell_measurement_temperature 298.
_publ_section_title

;
Structure of Li5AlS4 and comparison with other lithium-containing metal
sulfides
;
loop_
_citation_id
_citation_journal_full
_citation_year
_citation_journal_volume
_citation_page_first
_citation_page_last
_citation_journal_id_ASTM
primary 'Journal of Solid State Chemistry' 2018 257 19 25 JSSCBI
loop_
_publ_author_name
'Lim, Hanjin'
'Kim, Sung-Chul'
'Kim, Jaegyeom'
'Kim, Young-Il'
'Kim, Seung-Joo'
_cell_length_a 6.8583(4)
_cell_length_b 7.8369(4)
_cell_length_c 6.2488(4)
_cell_angle_alpha 90.
_cell_angle_beta 90.333(4)
_cell_angle_gamma 90.
_cell_volume 335.85
_cell_formula_units_Z 2
_symmetry_space_group_name_H-M 'P 1 21/m 1'
_symmetry_Int_Tables_number 11
_refine_ls_R_factor_all 0.0271
loop_
_symmetry_equiv_pos_site_id
_symmetry_equiv_pos_as_xyz
1 'x, -y+1/2, z'
2 '-x, -y, -z'
3 '-x, y+1/2, -z'
4 'x, y, z'
loop_
_atom_type_symbol
_atom_type_oxidation_number
S2- -2
Al3+ 3
Li1+ 1
loop_
_atom_site_label
_atom_site_type_symbol
_atom_site_symmetry_multiplicity
_atom_site_Wyckoff_symbol
_atom_site_fract_x
_atom_site_fract_y
_atom_site_fract_z
_atom_site_B_iso_or_equiv
_atom_site_occupancy
_atom_site_attached_hydrogens
S1 S2- 2 e -0.14086(10) 0.75 0.75728(10) 0.0160(18) 1. 0
S2 S2- 2 e 0.17413(9) 0.75 0.27186(9) 0.0040(15) 1. 0
S3 S2- 4 f 0.33069(7) 0.51518(6) 0.76013(8) 0.0154(11) 1. 0
Al1 Al3+ 2 e 0.16636(9) 0.75 0.63636(8) 0.0050(9) 1. 0
Li1 Li1+ 4 f 0.34330(12) 0.01637(7) 0.35176(14) 0.0140(13) 1. 0
Li2 Li1+ 2 e 0.1679(19) 0.25 0.664(2) 0.018(3) 1. 0
Li3 Li1+ 2 e 0.46223(16) 0.75 0.00487(2) 0.027(3) 1. 0
Li4 Li1+ 2 a 0. 0. 0. 0.028(3) 1. 0
#End of TTdata_433369-ICSD