
#(C) 2018 by FIZ Karlsruhe - Leibniz Institute for Information Infrastructure.  All rights reserved.
data_433468-ICSD
_database_code_ICSD 433468
_audit_creation_date 2018-02-01
_chemical_name_systematic 'Lithium pentayttrium octakis(tungstate)'
_chemical_formula_structural 'Li Y5 (W O4)8'
_chemical_formula_sum 'Li1 O32 W8 Y5'
_chemical_name_structure_type CuDy5(WO4)8
_exptl_crystal_density_diffrn 7.05
_cell_measurement_temperature 293.
_publ_section_title

;
Seven up. The incorporation of Li+ cations in yttrium tungstate and silicate
tungstate
;
loop_
_citation_id
_citation_journal_full
_citation_year
_citation_journal_volume
_citation_page_first
_citation_page_last
_citation_journal_id_ASTM
primary 'Zeitschrift fuer Anorganische und Allgemeine Chemie (1950) (DE)' 2017
643 2050 2056 ZAACAB
loop_
_publ_author_name
'Dorn, Katharina V.'
'Schustereit, Tanja'
'Strobel, Sabine'
'Hartenbach, Ingo'
_cell_length_a 19.0834(5)
_cell_length_b 5.61800(10)
_cell_length_c 11.4722(3)
_cell_angle_alpha 90
_cell_angle_beta 111.255(2)
_cell_angle_gamma 90
_cell_volume 1146.27
_cell_formula_units_Z 2
_symmetry_space_group_name_H-M 'C 1 2/c 1'
_symmetry_Int_Tables_number 15
_refine_ls_R_factor_all 0.0304
loop_
_symmetry_equiv_pos_site_id
_symmetry_equiv_pos_as_xyz
1 'x, -y, z+1/2'
2 '-x, -y, -z'
3 '-x, y, -z+1/2'
4 'x, y, z'
5 'x+1/2, -y+1/2, z+1/2'
6 '-x+1/2, -y+1/2, -z'
7 '-x+1/2, y+1/2, -z+1/2'
8 'x+1/2, y+1/2, z'
loop_
_atom_type_symbol
_atom_type_oxidation_number
Li1+ 1
Y3+ 3
W6+ 6
O2- -2
loop_
_atom_site_label
_atom_site_type_symbol
_atom_site_symmetry_multiplicity
_atom_site_Wyckoff_symbol
_atom_site_fract_x
_atom_site_fract_y
_atom_site_fract_z
_atom_site_B_iso_or_equiv
_atom_site_occupancy
_atom_site_attached_hydrogens
Li1 Li1+ 4 e 0.5 0.2834(3) 0.25 0.0123(3) 0.5 0
Y1 Y3+ 4 e 0.5 0.2834(3) 0.25 0.0123(3) 0.5 0
Y2 Y3+ 8 f 0.14689(3) 0.18387(10) 0.45606(5) 0.01109(11) 1 0
W1 W6+ 8 f 0.31236(2) 0.13140(4) 0.21277(2) 0.01024(7) 1 0
W2 W6+ 8 f 0.05704(2) 0.30855(4) 0.09175(2) 0.01182(7) 1 0
O1 O2- 8 f 0.2452(3) 0.3238(8) 0.2346(4) 0.0147(8) 1 0
O2 O2- 8 f 0.3689(3) 0.3538(7) 0.1731(4) 0.0134(8) 1 0
O3 O2- 8 f 0.2330(2) 0.4738(8) 0.4395(3) 0.0129(8) 1 0
O4 O2- 8 f 0.3675(3) 0.0933(8) 0.3904(4) 0.0136(8) 1 0
O5 O2- 8 f 0.1021(3) 0.3841(8) 0.2694(4) 0.0153(8) 1 0
O6 O2- 8 f 0.1198(3) 0.0956(8) 0.0788(4) 0.0149(8) 1 0
O7 O2- 8 f 0.0147(3) 0.1285(9) 0.3855(4) 0.0165(9) 1 0
O8 O2- 8 f 0.4827(3) 0.1096(9) 0.0778(4) 0.0189(9) 1 0
loop_
_atom_site_aniso_label
_atom_site_aniso_type_symbol
_atom_site_aniso_U_11
_atom_site_aniso_U_22
_atom_site_aniso_U_33
_atom_site_aniso_U_12
_atom_site_aniso_U_13
_atom_site_aniso_U_23
Li1 Li1+ 0.0155(7) 0.0142(7) 0.0058(5) 0. 0.0024(5) 0.
Y1 Y3+ 0.0155(7) 0.0142(7) 0.0058(5) 0. 0.0024(5) 0.
Y2 Y3+ 0.0141(3) 0.0101(2) 0.0086(2) -0.00073(19) 0.00353(19) -0.00003(17)
W1 W6+ 0.01158(11) 0.00983(11) 0.00860(10) -0.00011(7) 0.00282(8) -0.00132(7)
W2 W6+ 0.01170(11) 0.01000(12) 0.01318(11) 0.00104(7) 0.00379(9) 0.00229(7)
O1 O2- 0.014(2) 0.017(2) 0.0152(19) 0.0024(16) 0.0077(17) -0.0030(16)
O2 O2- 0.014(2) 0.0112(19) 0.0144(18) -0.0022(15) 0.0044(17) 0.0028(15)
O3 O2- 0.0141(19) 0.013(2) 0.0094(16) 0.0007(15) 0.0015(15) 0.0023(14)
O4 O2- 0.018(2) 0.0114(19) 0.0079(16) 0.0008(16) 0.0012(15) -0.0001(14)
O5 O2- 0.021(2) 0.015(2) 0.0085(17) -0.0079(17) 0.0036(16) -0.0019(15)
O6 O2- 0.016(2) 0.015(2) 0.0125(18) 0.0010(17) 0.0046(16) -0.0048(15)
O7 O2- 0.017(2) 0.021(2) 0.0120(18) 0.0037(17) 0.0066(17) 0.0005(16)
O8 O2- 0.023(2) 0.025(2) 0.0099(17) 0.009(2) 0.0078(18) 0.0029(17)
#End of TTdata_433468-ICSD