
#(C) 2018 by FIZ Karlsruhe - Leibniz Institute for Information Infrastructure.  All rights reserved.
data_47158-ICSD
_database_code_ICSD 47158
_audit_creation_date 1985-06-13
_chemical_name_systematic 'Lithium nitride hydrate'
_chemical_formula_structural 'Li N O2 H2 O'
_chemical_formula_sum 'H2 Li1 N1 O3'
_chemical_name_structure_type LiNO2H2O
_exptl_crystal_density_diffrn 1.63
_publ_section_title

;
Electron-Density Distribution in Crystals of Lithium Nitride Hydrate, Li N O2
H2 O, at 120 K.
;
loop_
_citation_id
_citation_journal_full
_citation_year
_citation_journal_volume
_citation_page_first
_citation_page_last
_citation_journal_id_ASTM
primary 'Acta Crystallographica, Section C: Crystal Structure Communications'
1985 41 10 13 ACSCEE
loop_
_publ_author_name
'Ohba, S.'
'Kikkawa, T.'
'Saito, Y.'
_cell_length_a 3.306(1)
_cell_length_b 14.242(1)
_cell_length_c 6.396(1)
_cell_angle_alpha 90.
_cell_angle_beta 106.14(1)
_cell_angle_gamma 90.
_cell_volume 289.28
_cell_formula_units_Z 4
_symmetry_space_group_name_H-M 'P 1 21/c 1'
_symmetry_Int_Tables_number 14
_refine_ls_R_factor_all 0.028
loop_
_symmetry_equiv_pos_site_id
_symmetry_equiv_pos_as_xyz
1 'x, -y+1/2, z+1/2'
2 '-x, -y, -z'
3 '-x, y+1/2, -z+1/2'
4 'x, y, z'
loop_
_atom_type_symbol
_atom_type_oxidation_number
Li1+ 1
N3+ 3
O2- -2
H1+ 1
loop_
_atom_site_label
_atom_site_type_symbol
_atom_site_symmetry_multiplicity
_atom_site_Wyckoff_symbol
_atom_site_fract_x
_atom_site_fract_y
_atom_site_fract_z
_atom_site_B_iso_or_equiv
_atom_site_occupancy
_atom_site_attached_hydrogens
Li1 Li1+ 4 e 0.3644(3) 0.8331(1) 0.6322(1) . 1. 0
N1 N3+ 4 e 0.76250(9) 0.36015(2) 0.27788(4) . 1. 0
O1 O2- 4 e 0.63500(9) 0.28263(2) 0.18843(4) . 1. 0
O2 O2- 4 e 0.80494(9) 0.42271(2) 0.14812(4) . 1. 0
O3 O2- 4 e 0.07219(8) 0.39172(2) 0.73843(4) . 1. 0
H1 H1+ 4 e 0.00077(4) 0.00451(1) 0.00760(2) . 1. 0
H2 H1+ 4 e -.00017(4) 0.00384(1) 0.00601(2) . 1. 0
loop_
_atom_site_aniso_label
_atom_site_aniso_type_symbol
_atom_site_aniso_U_11
_atom_site_aniso_U_22
_atom_site_aniso_U_33
_atom_site_aniso_U_12
_atom_site_aniso_U_13
_atom_site_aniso_U_23
Li1 Li1+ 0.01635(28) 0.01324(23) 0.01212(22) 0.00026(19) 0.00431(19) 0.00073(17)
N1 N3+ 0.01299(12) 0.0110(1) 0.00915(10) 0.00006(6) 0.00295(6) -.00041(6)
O1 O2- 0.01773(13) 0.00817(9) 0.01319(10) -.00078(6) 0.00439(7) -.00006(5)
O2 O2- 0.01824(13) 0.00933(10) 0.01233(10) -.00216(6) 0.00453(7) 0.00031(5)
O3 O2- 0.01411(12) 0.00972(10) 0.00949(9) -.00107(6) 0.00254(6) -.00122(5)
#End of TTdata_47158-ICSD