
#(C) 2018 by FIZ Karlsruhe - Leibniz Institute for Information Infrastructure.  All rights reserved.
data_48040-ICSD
_database_code_ICSD 48040
_audit_creation_date 1984-12-31
_chemical_name_systematic 'Lithium nitrate trihydrate'
_chemical_formula_structural 'Li (N O3) (H2 O)3'
_chemical_formula_sum 'H6 Li1 N1 O6'
_chemical_name_structure_type LiNO3(H2O)3
_exptl_crystal_density_diffrn 1.61
_cell_measurement_temperature 120.
_publ_section_title

;
Deformation Electron Density of Lithium Nitrate Trihydrate, Li (N O3) (H2 O)3
at 120 k and 295 K
;
loop_
_citation_id
_citation_journal_full
_citation_year
_citation_journal_volume
_citation_page_first
_citation_page_last
_citation_journal_id_ASTM
primary 'Acta Crystallographica, Section C: Crystal Structure Communications'
1984 40 335 340 ACSCEE
loop_
_publ_author_name
'Hermansson, K.'
'Thomas, J.O.'
'Olovsson, I.'
_cell_length_a 6.713(7)
_cell_length_b 12.669(4)
_cell_length_c 5.968(5)
_cell_angle_alpha 90.
_cell_angle_beta 90.
_cell_angle_gamma 90.
_cell_volume 507.56
_cell_formula_units_Z 4
_symmetry_space_group_name_H-M 'C m c m'
_symmetry_Int_Tables_number 63
_refine_ls_R_factor_all 0.033
loop_
_symmetry_equiv_pos_site_id
_symmetry_equiv_pos_as_xyz
1 '-x, y, -z+1/2'
2 '-x, -y, z+1/2'
3 '-x, y, z'
4 '-x, -y, -z'
5 'x, -y, z+1/2'
6 'x, y, -z+1/2'
7 'x, -y, -z'
8 'x, y, z'
9 '-x+1/2, y+1/2, -z+1/2'
10 '-x+1/2, -y+1/2, z+1/2'
11 '-x+1/2, y+1/2, z'
12 '-x+1/2, -y+1/2, -z'
13 'x+1/2, -y+1/2, z+1/2'
14 'x+1/2, y+1/2, -z+1/2'
15 'x+1/2, -y+1/2, -z'
16 'x+1/2, y+1/2, z'
loop_
_atom_type_symbol
_atom_type_oxidation_number
Li1+ 1
N5+ 5
O2- -2
H1+ 1
loop_
_atom_site_label
_atom_site_type_symbol
_atom_site_symmetry_multiplicity
_atom_site_Wyckoff_symbol
_atom_site_fract_x
_atom_site_fract_y
_atom_site_fract_z
_atom_site_B_iso_or_equiv
_atom_site_occupancy
_atom_site_attached_hydrogens
Li1 Li1+ 4 a 0 0 0 . 1. 0
N1 N5+ 4 c 0 0.21650(11) 0.25 . 1. 0
O1 O2- 8 f 0 0.16903(10) 0.06784(30) . 1. 0
O2 O2- 4 c 0 0.31641(13) 0.25 . 1. 0
O3 O2- 8 g 0.28942(17) 0.47912(10) 0.25 . 1. 0
O4 O2- 4 c 0 0.64059(16) 0.25 . 1. 0
H1 H1+ 8 g 0.21347 0.41467 0.25 . 1. 0
H2 H1+ 8 g 0.19196 0.53582 0.25 . 1. 0
H3 H1+ 8 f 0 0.68587 0.12146 . 1. 0
loop_
_atom_site_aniso_label
_atom_site_aniso_type_symbol
_atom_site_aniso_beta_11
_atom_site_aniso_beta_22
_atom_site_aniso_beta_33
_atom_site_aniso_beta_12
_atom_site_aniso_beta_13
_atom_site_aniso_beta_23
Li1 Li1+ 0.00753(29) 0.00227(9) 0.00713(41) 0 0 0.00001(15)
N1 N5+ 0.00686(15) 0.00112(4) 0.00977(36) 0 0 0
O1 O2- 0.01320(16) 0.00194(4) 0.00831(24) 0 0 0.00015(7)
O2 O2- 0.00855(18) 0.00103(5) 0.02388(50) 0 0 0
O3 O2- 0.00647(12) 0.00161(4) 0.00819(19) -.00035(7) 0 0
O4 O2- 0.00953(19) 0.00220(5) 0.00989(42) 0 0 0
H1 H1+ 0.01581 0.00296 0.0248 -.00235 0 0
H2 H1+ 0.01216 0.00325 0.02073 -.001202 0 0
H3 H1+ 0.01955 0.00616 0.0204 0 0 0.00441
#End of TTdata_48040-ICSD