
#(C) 2018 by FIZ Karlsruhe - Leibniz Institute for Information Infrastructure.  All rights reserved.
data_48106-ICSD
_database_code_ICSD 48106
_audit_creation_date 1984-12-31
_audit_update_record 2006-04-01
_chemical_name_systematic 'Dilithium selenate(VI)'
_chemical_formula_structural 'Li2 (Se O4)'
_chemical_formula_sum 'Li2 O4 Se1'
_chemical_name_structure_type Be2SiO4
_exptl_crystal_density_diffrn 3.
_cell_measurement_temperature 138.
_publ_section_title
'Low-tempereture structural determination of anhydrous Li2 Se O4'
loop_
_citation_id
_citation_journal_full
_citation_year
_citation_journal_volume
_citation_page_first
_citation_page_last
_citation_journal_id_ASTM
primary 'Journal of Solid State Chemistry' 1984 53 87 91 JSSCBI
loop_
_publ_author_name
'Heeg, M.J.'
'Frech, R.E.'
_cell_length_a 13.931(2)
_cell_length_b 13.931(2)
_cell_length_c 9.304(3)
_cell_angle_alpha 90.
_cell_angle_beta 90.
_cell_angle_gamma 120.
_cell_volume 1563.74
_cell_formula_units_Z 18
_symmetry_space_group_name_H-M 'R -3 H'
_symmetry_Int_Tables_number 148
_refine_ls_R_factor_all 0.034
loop_
_symmetry_equiv_pos_site_id
_symmetry_equiv_pos_as_xyz
1 'x-y, x, -z'
2 'y, -x+y, -z'
3 '-x, -y, -z'
4 '-x+y, -x, z'
5 '-y, x-y, z'
6 'x, y, z'
7 'x-y+2/3, x+1/3, -z+1/3'
8 'y+2/3, -x+y+1/3, -z+1/3'
9 '-x+2/3, -y+1/3, -z+1/3'
10 '-x+y+2/3, -x+1/3, z+1/3'
11 '-y+2/3, x-y+1/3, z+1/3'
12 'x+2/3, y+1/3, z+1/3'
13 'x-y+1/3, x+2/3, -z+2/3'
14 'y+1/3, -x+y+2/3, -z+2/3'
15 '-x+1/3, -y+2/3, -z+2/3'
16 '-x+y+1/3, -x+2/3, z+2/3'
17 '-y+1/3, x-y+2/3, z+2/3'
18 'x+1/3, y+2/3, z+2/3'
loop_
_atom_type_symbol
_atom_type_oxidation_number
Se6+ 6
O2- -2
Li1+ 1
loop_
_atom_site_label
_atom_site_type_symbol
_atom_site_symmetry_multiplicity
_atom_site_Wyckoff_symbol
_atom_site_fract_x
_atom_site_fract_y
_atom_site_fract_z
_atom_site_B_iso_or_equiv
_atom_site_occupancy
_atom_site_attached_hydrogens
Se1 Se6+ 18 f 0.19794(3) -.1470(3) 0.25046(5) . 1. 0
O1 O2- 18 f 0.2154(3) 0.1104(3) 0.2492(3) . 1. 0
O2 O2- 18 f 0.3198(3) -.0043(2) 0.2485(4) . 1. 0
O3 O2- 18 f 0.1299(3) -.0786(3) 0.3957(3) . 1. 0
O4 O2- 18 f 0.1277(3) -.0816(3) 0.1072(3) . 1. 0
Li1 Li1+ 18 f 0.1905(7) -.0169(6) 0.5858(10) 0.011(2) 1. 0
Li2 Li1+ 18 f -.0202(6) -.2115(6) 0.0847(10) 0.012(2) 1. 0
loop_
_atom_site_aniso_label
_atom_site_aniso_type_symbol
_atom_site_aniso_U_11
_atom_site_aniso_U_22
_atom_site_aniso_U_33
_atom_site_aniso_U_12
_atom_site_aniso_U_13
_atom_site_aniso_U_23
Se1 Se6+ 0.0030(3) 0.0031(3) 0.0015(3) 0.0012(2) 0.0001(2) 0.0000(2)
O1 O2- 0.012(2) 0.004(2) 0.006(2) 0.005(1) 0.000(1) 0.001(1)
O2 O2- 0.004(2) 0.007(2) 0.010(2) 0.004(1) 0.000(1) 0.000(1)
O3 O2- 0.006(2) 0.008(2) 0.002(2) 0.001(1) 0.003(1) 0.001(1)
O4 O2- 0.005(1) 0.008(2) 0.005(1) 0.001(1) 0.000(1) -0.001(1)
#End of TTdata_48106-ICSD