
#(C) 2017 by FIZ Karlsruhe - Leibniz Institute for Information Infrastructure.  All rights reserved.
data_48149-ICSD
_database_code_ICSD 48149
_audit_creation_date 1984-12-31
_audit_update_record 2013-08-01
_chemical_name_systematic 'Dipotassium lithium hexafluoroaluminate'
_chemical_formula_structural 'K2 Li (Al F6)'
_chemical_formula_sum 'Al1 F6 K2 Li1'
_chemical_name_structure_type K2LiAlF6(hR20)
_exptl_crystal_density_diffrn 2.98
_publ_section_title

;
On new K2 Li Al F6 Phases (M = d-element, Al, Ga, In): crystal structure of
the rhombohedral high-temperature form of K2 Li Al F6
;
loop_
_citation_id
_citation_journal_full
_citation_year
_citation_journal_volume
_citation_page_first
_citation_page_last
_citation_journal_id_ASTM
primary 'Materials Research Bulletin' 1984 19 983 988 MRBUAC
loop_
_publ_author_name
'Tressaud, A.'
'Darriet, J.'
'Lagassie, P.'
'Grannec, J.'
'Hagenmuller, P.'
_cell_length_a 5.62(1)
_cell_length_b 5.62(1)
_cell_length_c 27.62(1)
_cell_angle_alpha 90.
_cell_angle_beta 90.
_cell_angle_gamma 120.
_cell_volume 755.49
_cell_formula_units_Z 6
_symmetry_space_group_name_H-M 'R -3 H'
_symmetry_Int_Tables_number 148
_refine_ls_R_factor_all 0.054
loop_
_symmetry_equiv_pos_site_id
_symmetry_equiv_pos_as_xyz
1 'x-y, x, -z'
2 'y, -x+y, -z'
3 '-x, -y, -z'
4 '-x+y, -x, z'
5 '-y, x-y, z'
6 'x, y, z'
7 'x-y+2/3, x+1/3, -z+1/3'
8 'y+2/3, -x+y+1/3, -z+1/3'
9 '-x+2/3, -y+1/3, -z+1/3'
10 '-x+y+2/3, -x+1/3, z+1/3'
11 '-y+2/3, x-y+1/3, z+1/3'
12 'x+2/3, y+1/3, z+1/3'
13 'x-y+1/3, x+2/3, -z+2/3'
14 'y+1/3, -x+y+2/3, -z+2/3'
15 '-x+1/3, -y+2/3, -z+2/3'
16 '-x+y+1/3, -x+2/3, z+2/3'
17 '-y+1/3, x-y+2/3, z+2/3'
18 'x+1/3, y+2/3, z+2/3'
loop_
_atom_type_symbol
_atom_type_oxidation_number
K1+ 1
Li1+ 1
Al3+ 3
F1- -1
loop_
_atom_site_label
_atom_site_type_symbol
_atom_site_symmetry_multiplicity
_atom_site_Wyckoff_symbol
_atom_site_fract_x
_atom_site_fract_y
_atom_site_fract_z
_atom_site_B_iso_or_equiv
_atom_site_occupancy
_atom_site_attached_hydrogens
K1 K1+ 6 c 0 0 0.1278(1) . 1. 0
K2 K1+ 6 c 0 0 0.2803(1) . 1. 0
Li1 Li1+ 6 c 0 0 0.4033(9) . 1. 0
Al1 Al3+ 3 a 0 0 0 . 1. 0
Al2 Al3+ 3 b 0 0 0.5 . 1. 0
F1 F1- 18 f 0.1474(5) -.1474 0.4608(2) . 1. 0
F2 F1- 18 f 0.1810(5) -.181 0.6289(2) . 1. 0
loop_
_atom_site_aniso_label
_atom_site_aniso_type_symbol
_atom_site_aniso_U_11
_atom_site_aniso_U_22
_atom_site_aniso_U_33
_atom_site_aniso_U_12
_atom_site_aniso_U_13
_atom_site_aniso_U_23
K1 K1+ 0.0085(9) 0.0085 0.0115(15) 0.0043 0 0
K2 K1+ 0.0088(9) 0.0088 0.0150(15) 0.0044 0 0
Li1 Li1+ 0.0167(87) 0.0167 0.0034(10) 0.0084 0 0
Al1 Al3+ 0.0026(16) 0.0026 0.002(1) 0.0013 0 0
Al2 Al3+ 0.0046(16) 0.0046 0.0022(9) 0.0023 0 0
F1 F1- 0.0106(18) 0.0106 0.0102(20) 0.0072(20) 0.0016(9) -0.0016(9)
F2 F1- 0.0116(18) 0.0116 0.0122(20) 0.0075(21) 0.0028(9) -0.0028
#End of TTdata_48149-ICSD