
#(C) 2018 by FIZ Karlsruhe - Leibniz Institute for Information Infrastructure.  All rights reserved.
data_49024-ICSD
_database_code_ICSD 49024
_audit_creation_date 1985-07-17
_audit_update_record 1985-07-26
_chemical_name_systematic 'Octalithium praseodymium(IV) oxide'
_chemical_formula_structural 'Li8 Pr O6'
_chemical_formula_sum 'Li8 O6 Pr1'
_chemical_name_structure_type Li8IrO6
_exptl_crystal_density_diffrn 3.35
_publ_section_title
'Ueber Li8 Pr O6 und Li8 Tb O6 (mit einer Bemerkung ueber Li8 Ce O6)'
loop_
_citation_id
_citation_journal_full
_citation_year
_citation_journal_volume
_citation_page_first
_citation_page_last
_citation_journal_id_ASTM
primary 'Zeitschrift fuer Anorganische und Allgemeine Chemie (1950) (DE)' 1985
522 39 47 ZAACAB
loop_
_publ_author_name
'Wolf, R.'
'Hoppe, R.'
_cell_length_a 5.6085(3)
_cell_length_b 5.6085(3)
_cell_length_c 15.9824(12)
_cell_angle_alpha 90.
_cell_angle_beta 90.
_cell_angle_gamma 120.
_cell_volume 435.38
_cell_formula_units_Z 3
_symmetry_space_group_name_H-M 'R -3 H'
_symmetry_Int_Tables_number 148
_refine_ls_R_factor_all 0.026
loop_
_symmetry_equiv_pos_site_id
_symmetry_equiv_pos_as_xyz
1 'x-y, x, -z'
2 'y, -x+y, -z'
3 '-x, -y, -z'
4 '-x+y, -x, z'
5 '-y, x-y, z'
6 'x, y, z'
7 'x-y+2/3, x+1/3, -z+1/3'
8 'y+2/3, -x+y+1/3, -z+1/3'
9 '-x+2/3, -y+1/3, -z+1/3'
10 '-x+y+2/3, -x+1/3, z+1/3'
11 '-y+2/3, x-y+1/3, z+1/3'
12 'x+2/3, y+1/3, z+1/3'
13 'x-y+1/3, x+2/3, -z+2/3'
14 'y+1/3, -x+y+2/3, -z+2/3'
15 '-x+1/3, -y+2/3, -z+2/3'
16 '-x+y+1/3, -x+2/3, z+2/3'
17 '-y+1/3, x-y+2/3, z+2/3'
18 'x+1/3, y+2/3, z+2/3'
loop_
_atom_type_symbol
_atom_type_oxidation_number
Pr4+ 4
Li1+ 1
O2- -2
loop_
_atom_site_label
_atom_site_type_symbol
_atom_site_symmetry_multiplicity
_atom_site_Wyckoff_symbol
_atom_site_fract_x
_atom_site_fract_y
_atom_site_fract_z
_atom_site_B_iso_or_equiv
_atom_site_occupancy
_atom_site_attached_hydrogens
Pr1 Pr4+ 3 a 0 0 0 . 1. 0
Li1 Li1+ 18 f 0.6211(15) 0.6427(15) 0.8760(4) . 1. 0
Li2 Li1+ 6 c 0 0 0.3487(15) . 1. 0
O1 O2- 18 f 0.6773(8) 0.6563(6) 0.4174(2) . 1. 0
loop_
_atom_site_aniso_label
_atom_site_aniso_type_symbol
_atom_site_aniso_U_11
_atom_site_aniso_U_22
_atom_site_aniso_U_33
_atom_site_aniso_U_12
_atom_site_aniso_U_13
_atom_site_aniso_U_23
Pr1 Pr4+ 0.0052(1) 0.0052(1) 0.0054(2) 0.0026(1) 0 0
Li1 Li1+ 0.0143(25) 0.0123(25) 0.0159(24) 0.0062(21) -.0001(21) -.0007(22)
Li2 Li1+ 0.0224(31) 0.0224(31) 0.0499(38) 0.0112(16) 0 0
O1 O2- 0.0091(11) 0.0087(11) 0.0104(9) 0.0043(9) 0.0019(9) -.0014(9)
#End of TTdata_49024-ICSD