
#(C) 2018 by FIZ Karlsruhe - Leibniz Institute for Information Infrastructure.  All rights reserved.
data_50058-ICSD
_database_code_ICSD 50058
_audit_creation_date 1999-01-19
_audit_update_record 2012-08-01
_chemical_name_systematic 'Trilithium phosphate(V) - beta II'
_chemical_formula_structural 'Li3 (P O4)'
_chemical_formula_sum 'Li3 O4 P1'
_exptl_crystal_density_diffrn 2.43
_publ_section_title
'A re-refinement of the crystal structure of high temperature form of Li3 P O4'
loop_
_citation_id
_citation_journal_full
_citation_year
_citation_journal_volume
_citation_page_first
_citation_page_last
_citation_journal_id_ASTM
primary

;
Osaka Kyoiku Daigaku Kiyo, Dai-3-bumon (Memoirs of Osaka Kyoiku University,
Series III)
; 1997 45 265 272 OKDSBO
loop_
_publ_author_name
'Yamaguchi, H.'
'Matsuhiro, T.'
'Take, S.'
_cell_length_a 6.117(4)
_cell_length_b 10.486(3)
_cell_length_c 4.928(5)
_cell_angle_alpha 90.
_cell_angle_beta 90.
_cell_angle_gamma 90.
_cell_volume 316.1
_cell_formula_units_Z 4
_symmetry_space_group_name_H-M 'P m n b'
_symmetry_Int_Tables_number 62
_refine_ls_R_factor_all 0.04
loop_
_symmetry_equiv_pos_site_id
_symmetry_equiv_pos_as_xyz
1 'x, y+1/2, -z+1/2'
2 '-x+1/2, y, z'
3 'x+1/2, -y+1/2, z+1/2'
4 '-x, -y, -z'
5 '-x, -y+1/2, z+1/2'
6 'x+1/2, -y, -z'
7 '-x+1/2, y+1/2, -z+1/2'
8 'x, y, z'
loop_
_atom_type_symbol
_atom_type_oxidation_number
P5+ 5
O2- -2
Li1+ 1
loop_
_atom_site_label
_atom_site_type_symbol
_atom_site_symmetry_multiplicity
_atom_site_Wyckoff_symbol
_atom_site_fract_x
_atom_site_fract_y
_atom_site_fract_z
_atom_site_B_iso_or_equiv
_atom_site_occupancy
_atom_site_attached_hydrogens
P1 P5+ 4 c 0.25 0.41154(4) 0.30865(7) . 1. 0
O1 O2- 8 d 0.0443(2) 0.3419(1) 0.2053(1) . 1. 0
O2 O2- 4 c 0.25 0.0504(1) 0.2944(2) . 1. 0
O3 O2- 4 c 0.75 0.0896(1) 0.1232(3) . 1. 0
Li1 Li1+ 8 d 0.5008(3) 0.1627(3) 0.3011(3) 1.25(3) 1. 0
Li2 Li1+ 8 d 0.7525(8) 0.4240(4) 0.2068(5) 0.40(3) .5 0
loop_
_atom_site_aniso_label
_atom_site_aniso_type_symbol
_atom_site_aniso_U_11
_atom_site_aniso_U_22
_atom_site_aniso_U_33
_atom_site_aniso_U_12
_atom_site_aniso_U_13
_atom_site_aniso_U_23
P1 P5+ 0.0072(2) 0.0079(3) 0.0099(3) 0 0 -.0002(1)
O1 O2- 0.0094(6) 0.0121(6) 0.0140(5) 0 0 -.0003(4)
O2 O2- 0.0122(6) 0.0074(7) 0.0159(6) 0 0 -.0003(4)
O3 O2- 0.0092(4) 0.0108(4) 0.0147(4) -.0015(4) -.0016(3) 0.0002(3)
#End of TTdata_50058-ICSD