
#(C) 2017 by FIZ Karlsruhe - Leibniz Institute for Information Infrastructure.  All rights reserved.
data_50152-ICSD
_database_code_ICSD 50152
_audit_creation_date 1999-01-19
_audit_update_record 2002-04-01
_chemical_name_systematic 'Trilithium ytterbium chloride'
_chemical_formula_structural 'Li3 Yb Cl6'
_chemical_formula_sum 'Cl6 Li3 Yb1'
_exptl_crystal_density_diffrn 3.13
_publ_section_title

;
Ternaere Halogenide vom Typ A3 M X6. VI. Ternaere Chloride der
Selten-Erd-Elemente mit Lithium, Li3 M Cl6 (M = Tb-Lu, Y, Sc): Synthese,
Kristallstrukturen und Ionenbewegung
;
loop_
_citation_id
_citation_journal_full
_citation_year
_citation_journal_volume
_citation_page_first
_citation_page_last
_citation_journal_id_ASTM
primary 'Zeitschrift fuer Anorganische und Allgemeine Chemie (1950) (DE)' 1997
623 1067 1073 ZAACAB
loop_
_publ_author_name
'Bohnsack, A.'
'Stenzel, F.'
'Zajonc, A.'
'Balzer, G.'
'Wickleder, M.S.'
'Meyer, G.'
_cell_length_a 12.866(1)
_cell_length_b 11.132(1)
_cell_length_c 6.0295(8)
_cell_angle_alpha 90.
_cell_angle_beta 90.
_cell_angle_gamma 90.
_cell_volume 863.57
_cell_formula_units_Z 4
_symmetry_space_group_name_H-M 'P n m a'
_symmetry_Int_Tables_number 62
_refine_ls_R_factor_all 0.0255
loop_
_symmetry_equiv_pos_site_id
_symmetry_equiv_pos_as_xyz
1 'x+1/2, y, -z+1/2'
2 'x, -y+1/2, z'
3 '-x+1/2, y+1/2, z+1/2'
4 '-x, -y, -z'
5 '-x+1/2, -y, z+1/2'
6 '-x, y+1/2, -z'
7 'x+1/2, -y+1/2, -z+1/2'
8 'x, y, z'
loop_
_atom_type_symbol
_atom_type_oxidation_number
Li1+ 1
Yb3+ 3
Cl1- -1
loop_
_atom_site_label
_atom_site_type_symbol
_atom_site_symmetry_multiplicity
_atom_site_Wyckoff_symbol
_atom_site_fract_x
_atom_site_fract_y
_atom_site_fract_z
_atom_site_B_iso_or_equiv
_atom_site_occupancy
_atom_site_attached_hydrogens
Li1 Li1+ 8 d 0.8632(36) 0.5914(20) 0.4939(42) . 0.705 0
Li2 Li1+ 8 d 0.6168(34) 0.4234(19) 0.4943(50) . 0.795 0
Yb1 Yb3+ 4 c 0.3756(1) 0.25 0.0107(1) . 1. 0
Cl1 Cl1- 8 d 0.7908(2) 0.4186(2) 0.7272(3) . 1. 0
Cl2 Cl1- 4 c 0.4568(2) 0.75 0.2287(4) . 1. 0
Cl3 Cl1- 8 d 0.4582(2) 0.4183(2) 0.2503(3) . 1. 0
Cl4 Cl1- 4 c 0.2048(2) 0.25 0.2396(4) . 1. 0
loop_
_atom_site_aniso_label
_atom_site_aniso_type_symbol
_atom_site_aniso_U_11
_atom_site_aniso_U_22
_atom_site_aniso_U_33
_atom_site_aniso_U_12
_atom_site_aniso_U_13
_atom_site_aniso_U_23
Li1 Li1+ 0.063(21) 0.042(11) 0.110(21) 0.003(12) 0.030(15) 0.006(14)
Li2 Li1+ 0.047(14) 0.046(10) 0.188(33) 0.011(11) -0.027(18) -0.024(18)
Yb1 Yb3+ 0.029(1) 0.029(1) 0.031(1) 0 0.000(1) 0
Cl1 Cl1- 0.041(1) 0.036(1) 0.037(1) 0.004(1) 0.004(1) -0.004(1)
Cl2 Cl1- 0.035(2) 0.044(2) 0.039(1) 0 0.006(1) 0
Cl3 Cl1- 0.044(1) 0.038(2) 0.038(1) -0.004(1) -0.004(1) -0.006(1)
Cl4 Cl1- 0.035(2) 0.043(2) 0.043(1) 0 0.008(1) 0
#End of TTdata_50152-ICSD