
#(C) 2017 by FIZ Karlsruhe - Leibniz Institute for Information Infrastructure.  All rights reserved.
data_50151-ICSD
_database_code_ICSD 50151
_audit_creation_date 1999-01-19
_audit_update_record 2012-08-01
_chemical_name_systematic 'Trilithium erbium chloride'
_chemical_formula_structural 'Li3 Er Cl6'
_chemical_formula_sum 'Cl6 Er1 Li3'
_exptl_crystal_density_diffrn 3.06
_publ_section_title

;
Ternaere Halogenide vom Typ A3 M X6. VI. Ternaere Chloride der
Selten-Erd-Elemente mit Lithium, Li3 M Cl6 (M = Tb-Lu, Y, Sc): Synthese,
Kristallstrukturen und Ionenbewegung
;
loop_
_citation_id
_citation_journal_full
_citation_year
_citation_journal_volume
_citation_page_first
_citation_page_last
_citation_journal_id_ASTM
primary 'Zeitschrift fuer Anorganische und Allgemeine Chemie (1950) (DE)' 1997
623 1067 1073 ZAACAB
loop_
_publ_author_name
'Bohnsack, A.'
'Stenzel, F.'
'Zajonc, A.'
'Balzer, G.'
'Wickleder, M.S.'
'Meyer, G.'
_cell_length_a 11.177(2)
_cell_length_b 11.177(2)
_cell_length_c 6.036(2)
_cell_angle_alpha 90.
_cell_angle_beta 90.
_cell_angle_gamma 120.
_cell_volume 653.03
_cell_formula_units_Z 3
_symmetry_space_group_name_H-M 'P -3 m 1'
_symmetry_Int_Tables_number 164
_refine_ls_R_factor_all 0.0398
loop_
_symmetry_equiv_pos_site_id
_symmetry_equiv_pos_as_xyz
1 'x-y, -y, -z'
2 '-x, -x+y, -z'
3 'y, x, -z'
4 'x-y, x, -z'
5 'y, -x+y, -z'
6 '-x, -y, -z'
7 '-x+y, y, z'
8 'x, x-y, z'
9 '-y, -x, z'
10 '-x+y, -x, z'
11 '-y, x-y, z'
12 'x, y, z'
loop_
_atom_type_symbol
_atom_type_oxidation_number
Li1+ 1
Er3+ 3
Cl1- -1
loop_
_atom_site_label
_atom_site_type_symbol
_atom_site_symmetry_multiplicity
_atom_site_Wyckoff_symbol
_atom_site_fract_x
_atom_site_fract_y
_atom_site_fract_z
_atom_site_B_iso_or_equiv
_atom_site_occupancy
_atom_site_attached_hydrogens
Li1 Li1+ 6 g 0.3397(17) 0.3397(17) 0 . 1. 0
Li2 Li1+ 6 h 0.2884(79) 0 0.5 . 0.5 0
Er1 Er3+ 1 a 0 0 0 . 1. 0
Er2 Er3+ 2 d 0.3333 0.6667 0.5100(1) . 0.97 0
Er3 Er3+ 2 d 0.3333 0.6667 0.0506(43) . 0.03 0
Cl1 Cl1- 6 i 0.1135(1) 0.8865(1) 0.7681(4) . 1. 0
Cl2 Cl1- 6 i 0.2215(1) 0.7785(1) 0.2676(4) . 1. 0
Cl3 Cl1- 6 i 0.4454(1) 0.5546(1) 0.7559(4) . 1. 0
loop_
_atom_site_aniso_label
_atom_site_aniso_type_symbol
_atom_site_aniso_U_11
_atom_site_aniso_U_22
_atom_site_aniso_U_33
_atom_site_aniso_U_12
_atom_site_aniso_U_13
_atom_site_aniso_U_23
Li1 Li1+ 0.014(6) 0.014(6) 0.079(15) 0.001(8) -0.012(5) 0.012(5)
Li2 Li1+ 0.080(41) 0.192(122) 0.117(69) 0.096(61) 0.005(35) 0.01(7)
Er1 Er3+ 0.019(1) 0.019(1) 0.023(1) 0.010(12) 0 0
Er2 Er3+ 0.020(1) 0.020(1) 0.023(1) 0.010(1) 0 0
Er3 Er3+ 0.020(12) 0.020(12) 0.002(12) 0.010(6) 0 0
Cl1 Cl1- 0.029(1) 0.029(1) 0.029(1) 0.015(1) -0.004(1) -0.004(1)
Cl2 Cl1- 0.034(1) 0.034(1) 0.026(1) 0.021(1) -0.003(1) 0.003(1)
Cl3 Cl1- 0.036(1) 0.036(1) 0.026(1) 0.022(1) -0.003(1) 0.003(1)
#End of TTdata_50151-ICSD