
#(C) 2017 by FIZ Karlsruhe - Leibniz Institute for Information Infrastructure.  All rights reserved.
data_50153-ICSD
_database_code_ICSD 50153
_audit_creation_date 1999-01-19
_audit_update_record 2012-02-01
_chemical_name_systematic 'Trilithium scandium chloride'
_chemical_formula_structural 'Li3 Sc Cl6'
_chemical_formula_sum 'Cl6 Li3 Sc1'
_chemical_name_structure_type Li3ScCl6
_exptl_crystal_density_diffrn 2.18
_publ_section_title

;
Ternaere Halogenide vom Typ A3 M X6. VI. Ternaere Chloride der
Selten-Erd-Elemente mit Lithium, Li3 M Cl6 (M= Tb-Lu, Y, Sc): Synthese,
Kristallstrukturen und Ionenbewegung
;
loop_
_citation_id
_citation_journal_full
_citation_year
_citation_journal_volume
_citation_page_first
_citation_page_last
_citation_journal_id_ASTM
primary 'Zeitschrift fuer Anorganische und Allgemeine Chemie (1950) (DE)' 1997
623 1067 1073 ZAACAB
loop_
_publ_author_name
'Bohnsack, A.'
'Stenzel, F.'
'Zajonc, A.'
'Balzer, G.'
'Wickleder, M.S.'
'Meyer, G.'
_cell_length_a 6.398(1)
_cell_length_b 11.040(2)
_cell_length_c 6.391(1)
_cell_angle_alpha 90.
_cell_angle_beta 109.89(1)
_cell_angle_gamma 90.
_cell_volume 424.49
_cell_formula_units_Z 2
_symmetry_space_group_name_H-M 'C 1 2/m 1'
_symmetry_Int_Tables_number 12
_refine_ls_R_factor_all 0.0298
loop_
_symmetry_equiv_pos_site_id
_symmetry_equiv_pos_as_xyz
1 '-x, y, -z'
2 '-x, -y, -z'
3 'x, -y, z'
4 'x, y, z'
5 '-x+1/2, y+1/2, -z'
6 '-x+1/2, -y+1/2, -z'
7 'x+1/2, -y+1/2, z'
8 'x+1/2, y+1/2, z'
loop_
_atom_type_symbol
_atom_type_oxidation_number
Li1+ 1
Sc3+ 3
Cl1- -1
loop_
_atom_site_label
_atom_site_type_symbol
_atom_site_symmetry_multiplicity
_atom_site_Wyckoff_symbol
_atom_site_fract_x
_atom_site_fract_y
_atom_site_fract_z
_atom_site_B_iso_or_equiv
_atom_site_occupancy
_atom_site_attached_hydrogens
Li1 Li1+ 4 g 0.5 0.8347(7) 0 . 1. 0
Li2 Li1+ 4 h 0 0.169(2) 0.5 . 0.365 0
Li3 Li1+ 2 d 0.5 0 0.5 . 0.27 0
Sc1 Sc3+ 2 a 0 0 0 . 1. 0
Cl1 Cl1- 4 i 0.7579(2) 0 0.2313(1) . 1. 0
Cl2 Cl1- 8 j 0.2387(1) 0.8391(1) 0.2371(1) . 1. 0
loop_
_atom_site_aniso_label
_atom_site_aniso_type_symbol
_atom_site_aniso_U_11
_atom_site_aniso_U_22
_atom_site_aniso_U_33
_atom_site_aniso_U_12
_atom_site_aniso_U_13
_atom_site_aniso_U_23
Li1 Li1+ 0.045(5) 0.034(5) 0.064(6) 0 0.027(4) 0
Li2 Li1+ 0.051(16) 0.044(17) 0.038(12) 0 0.005(11) 0
Li3 Li1+ 0.021(20) 0.043(27) 0.035(20) 0 0.018(5) 0
Sc1 Sc3+ 0.016(1) 0.015(1) 0.025(1) 0 0.008(1) 0
Cl1 Cl1- 0.022(1) 0.027(1) 0.026(1) 0 0.013(1) 0
Cl2 Cl1- 0.024(1) 0.020(1) 0.027(1) 0.005(1) 0.007(1) 0.004(1)
#End of TTdata_50153-ICSD