
#(C) 2017 by FIZ Karlsruhe - Leibniz Institute for Information Infrastructure.  All rights reserved.
data_50182-ICSD
_database_code_ICSD 50182
_audit_creation_date 1999-01-19
_audit_update_record 2015-02-01
_chemical_name_systematic 'Trilithium erbium bromide'
_chemical_formula_structural 'Li3 Er Br6'
_chemical_formula_sum 'Br6 Er1 Li3'
_chemical_name_structure_type Li3ErBr6
_exptl_crystal_density_diffrn 4.19
_publ_section_title

;
Ternaere Halogenide vom Typ A3 M X6. VII. Die Bromide Li3 M Br6 (M = Sm-Lu,
Y): Synthese, Kristallstruktur, Ionenbeweglichkeit
;
loop_
_citation_id
_citation_journal_full
_citation_year
_citation_journal_volume
_citation_page_first
_citation_page_last
_citation_journal_id_ASTM
primary 'Zeitschrift fuer Anorganische und Allgemeine Chemie (1950) (DE)' 1997
623 1352 1356 ZAACAB
loop_
_publ_author_name
'Bohnsack, A.'
'Balzer, G.'
'Wickleder, M.S.'
'Guedel, H.U.'
'Meyer, G.'
_cell_length_a 6.890(3)
_cell_length_b 11.916(9)
_cell_length_c 6.842(6)
_cell_angle_alpha 90.
_cell_angle_beta 109.77(6)
_cell_angle_gamma 90.
_cell_volume 528.63
_cell_formula_units_Z 2
_symmetry_space_group_name_H-M 'C 1 2/m 1'
_symmetry_Int_Tables_number 12
_refine_ls_R_factor_all 0.0347
loop_
_symmetry_equiv_pos_site_id
_symmetry_equiv_pos_as_xyz
1 '-x, y, -z'
2 '-x, -y, -z'
3 'x, -y, z'
4 'x, y, z'
5 '-x+1/2, y+1/2, -z'
6 '-x+1/2, -y+1/2, -z'
7 'x+1/2, -y+1/2, z'
8 'x+1/2, y+1/2, z'
loop_
_atom_type_symbol
_atom_type_oxidation_number
Li1+ 1
Er3+ 3
Br1- -1
loop_
_atom_site_label
_atom_site_type_symbol
_atom_site_symmetry_multiplicity
_atom_site_Wyckoff_symbol
_atom_site_fract_x
_atom_site_fract_y
_atom_site_fract_z
_atom_site_B_iso_or_equiv
_atom_site_occupancy
_atom_site_attached_hydrogens
Li1 Li1+ 4 g 0.5 0.8349(9) 0 . 1. 0
Li2 Li1+ 4 h 0 0.155(6) 0.5 0.093(23) 0.5 0
Er1 Er3+ 2 a 0 0 0 . 1. 0
Br1 Br1- 4 i 0.7492(1) 0 0.2409(2) . 1. 0
Br2 Br1- 8 j 0.2464(1) 0.8338(1) 0.2438(1) . 1. 0
loop_
_atom_site_aniso_label
_atom_site_aniso_type_symbol
_atom_site_aniso_U_11
_atom_site_aniso_U_22
_atom_site_aniso_U_33
_atom_site_aniso_U_12
_atom_site_aniso_U_13
_atom_site_aniso_U_23
Li1 Li1+ 0.011(6) 0.017(6) 0.024(11) 0 -0.008(6) 0
Er1 Er3+ 0.030(1) 0.029(1) 0.033(1) 0 0.012(1) 0
Br1 Br1- 0.035(1) 0.043(1) 0.032(1) 0.0(1) 0.016(1) 0
Br2 Br1- 0.037(1) 0.035(1) 0.033(1) 0.006(1) 0.009(1) 0.005(1)
#End of TTdata_50182-ICSD