
#(C) 2017 by FIZ Karlsruhe - Leibniz Institute for Information Infrastructure.  All rights reserved.
data_50386-ICSD
_database_code_ICSD 50386
_audit_creation_date 1999-11-30
_audit_update_record 2016-02-01
_chemical_name_systematic 'Lithium uranium bromide (2/1.02/6)'
_chemical_formula_structural 'Li2 U1.02 Br6'
_chemical_formula_sum 'Br6 Li2 U1.02'
_exptl_crystal_density_diffrn 4.41
_cell_measurement_temperature 550.
_publ_section_title

;
Phase transitions in the ionic conductor Li2 U Br6 studied by neutron
diffraction
;
loop_
_citation_id
_citation_journal_full
_citation_year
_citation_journal_volume
_citation_page_first
_citation_page_last
_citation_journal_id_ASTM
primary 'Solid State Ionics' 1998 106 55 69 SSIOD3
loop_
_publ_author_name
'Maletka, K.'
'Ressouche, E.'
'Rundloef, H.'
'Tellgren, R.'
'Delaplane, R.'
'Szczepaniak, W.'
'Zablocka-Malicka, M.'
_cell_length_a 7.061(4)
_cell_length_b 12.148(9)
_cell_length_c 6.877(3)
_cell_angle_alpha 90.
_cell_angle_beta 109.96(5)
_cell_angle_gamma 90.
_cell_volume 554.45
_cell_formula_units_Z 2
_symmetry_space_group_name_H-M 'C 1 2/m 1'
_symmetry_Int_Tables_number 12
_refine_ls_R_factor_all 0.0062
loop_
_symmetry_equiv_pos_site_id
_symmetry_equiv_pos_as_xyz
1 '-x, y, -z'
2 '-x, -y, -z'
3 'x, -y, z'
4 'x, y, z'
5 '-x+1/2, y+1/2, -z'
6 '-x+1/2, -y+1/2, -z'
7 'x+1/2, -y+1/2, z'
8 'x+1/2, y+1/2, z'
loop_
_atom_type_symbol
_atom_type_oxidation_number
Br1- -1
U3+ 3.92
Li1+ 1
loop_
_atom_site_label
_atom_site_type_symbol
_atom_site_symmetry_multiplicity
_atom_site_Wyckoff_symbol
_atom_site_fract_x
_atom_site_fract_y
_atom_site_fract_z
_atom_site_B_iso_or_equiv
_atom_site_occupancy
_atom_site_attached_hydrogens
Br1 Br1- 8 j 0.253(8) 0.175(1) 0.250(3) 5.5(3) 1. 0
Br2 Br1- 4 i 0.2338(2) 0 0.7734(2) 5.5(3) 1. 0
U1 U3+ 4 g 0 0.675(1) 0 29.(9) 0.37(4) 0
U2 U3+ 4 h 0.5 0.675(8) 0.5 29.(1) 0.14(2) 0
Li1 Li1+ 4 i 0.683(7) 0.5 0.082(6) 3.7(5) 1. 0
#End of TTdata_50386-ICSD