
#(C) 2018 by FIZ Karlsruhe - Leibniz Institute for Information Infrastructure.  All rights reserved.
data_50412-ICSD
_database_code_ICSD 50412
_audit_creation_date 1999-11-30
_chemical_name_systematic 'Lithium nickel oxide (0.63/1.02/2)'
_chemical_formula_structural 'Li0.63 Ni1.02 O2'
_chemical_formula_sum 'Li0.63 Ni1.02 O2'
_chemical_name_structure_type Na.5FeO2
_exptl_crystal_density_diffrn 4.75
_publ_section_title

;
Structural investigations on Li(0.65-z) Ni(1+z) O2 cathode material: XRD and
EXAFS studies
;
loop_
_citation_id
_citation_journal_full
_citation_year
_citation_journal_volume
_citation_page_first
_citation_page_last
_citation_journal_id_ASTM
primary 'Solid State Ionics' 1998 111 135 144 SSIOD3
loop_
_publ_author_name
'Peres, J.P.'
'Demourgues, A.'
'Delmas, C.'
_cell_length_a 4.9883(6)
_cell_length_b 2.8282(4)
_cell_length_c 5.0691(8)
_cell_angle_alpha 90.
_cell_angle_beta 109.749(9)
_cell_angle_gamma 90.
_cell_volume 67.31
_cell_formula_units_Z 2
_symmetry_space_group_name_H-M 'C 1 2/m 1'
_symmetry_Int_Tables_number 12
_refine_ls_R_factor_all 0.033
loop_
_symmetry_equiv_pos_site_id
_symmetry_equiv_pos_as_xyz
1 '-x, y, -z'
2 '-x, -y, -z'
3 'x, -y, z'
4 'x, y, z'
5 '-x+1/2, y+1/2, -z'
6 '-x+1/2, -y+1/2, -z'
7 'x+1/2, -y+1/2, z'
8 'x+1/2, y+1/2, z'
loop_
_atom_type_symbol
_atom_type_oxidation_number
Li1+ 1
Ni3+ 3.304
O2- -2
loop_
_atom_site_label
_atom_site_type_symbol
_atom_site_symmetry_multiplicity
_atom_site_Wyckoff_symbol
_atom_site_fract_x
_atom_site_fract_y
_atom_site_fract_z
_atom_site_B_iso_or_equiv
_atom_site_occupancy
_atom_site_attached_hydrogens
Li1 Li1+ 2 d 0 0.5 0.5 0.95(30) 0.633(6) 0
Ni1 Ni3+ 2 d 0 0.5 0.5 0.95(30) 0.017(6) 0
Ni2 Ni3+ 2 a 0 0 0 0.53(5) 1. 0
O1 O2- 4 i 0.737(1) 0 0.211(1) 0.86(7) 1. 0
#End of TTdata_50412-ICSD