
#(C) 2018 by FIZ Karlsruhe - Leibniz Institute for Information Infrastructure.  All rights reserved.
data_50423-ICSD
_database_code_ICSD 50423
_audit_creation_date 1999-11-30
_chemical_name_systematic
'Lithium scandium zirconium phosphate(V) (2.96/1.8/0.2/3)'
_chemical_formula_structural 'Li2.96 (Sc0.9 Zr0.1)2 (P O4)3'
_chemical_formula_sum 'Li2.96 O12 P3 Sc1.8 Zr0.2'
_chemical_name_structure_type Li3Fe2(PO4)3
_exptl_crystal_density_diffrn 2.8
_cell_measurement_temperature 298.
_publ_section_title

;
Structure refinement of lithium ion conductors Li3 Sc2 (P O4)3 and Li(3-2x)
(Sc(1-x) M(x))2 (P O4)3 (M = Ti, Zr) with x = 0.10 by neutron diffraction
;
loop_
_citation_id
_citation_journal_full
_citation_year
_citation_journal_volume
_citation_page_first
_citation_page_last
_citation_journal_id_ASTM
primary 'Solid State Ionics' 1998 113 89 96 SSIOD3
loop_
_publ_author_name
'Suzuki, T.'
'Yoshida, K.'
'Uematsu, K.'
'Kodama, T.'
'Toda, K.'
'Ye, Z.-G.'
'Ohashi, M.'
'Sato, M.'
_cell_length_a 12.3542(5)
_cell_length_b 8.7947(4)
_cell_length_c 8.8202(4)
_cell_angle_alpha 90.
_cell_angle_beta 90.
_cell_angle_gamma 90.
_cell_volume 958.33
_cell_formula_units_Z 4
_symmetry_space_group_name_H-M 'P b c n'
_symmetry_Int_Tables_number 60
_refine_ls_R_factor_all 0.0117
loop_
_symmetry_equiv_pos_site_id
_symmetry_equiv_pos_as_xyz
1 'x, -y, z+1/2'
2 '-x+1/2, y+1/2, z'
3 'x+1/2, y+1/2, -z+1/2'
4 '-x, -y, -z'
5 '-x, y, -z+1/2'
6 'x+1/2, -y+1/2, -z'
7 '-x+1/2, -y+1/2, z+1/2'
8 'x, y, z'
loop_
_atom_type_symbol
_atom_type_oxidation_number
Li1+ 1
Sc2+ 2.91
Zr4+ 4
P5+ 5
O2- -2
loop_
_atom_site_label
_atom_site_type_symbol
_atom_site_symmetry_multiplicity
_atom_site_Wyckoff_symbol
_atom_site_fract_x
_atom_site_fract_y
_atom_site_fract_z
_atom_site_B_iso_or_equiv
_atom_site_occupancy
_atom_site_attached_hydrogens
Li1 Li1+ 8 d 0.334(2) 0.281(3) 0.276(3) 1.1(6) 0.78(5) 0
Li2 Li1+ 8 d 0.304(4) 0.059(6) 0.415(5) 1.1(6) 0.47(5) 0
Li3 Li1+ 8 d 0.264(8) 0.43(1) 0.32(1) 1.1(6) 0.23(5) 0
Sc1 Sc2+ 8 d 0.1087(2) 0.2493(7) 0.4592(4) 2.4(1) 0.9 0
Zr1 Zr4+ 8 d 0.1087(2) 0.2493(7) 0.4592(4) 2.4(1) 0.1 0
P1 P5+ 8 d 0.1465(8) 0.108(1) 0.102(1) 2.2(2) 1. 0
P2 P5+ 4 c 0.5 0.047(2) 0.25 1.9(3) 1. 0
O1 O2- 8 d 0.3387(7) 0.432(1) 0.0991(9) 2.6(2) 1. 0
O2 O2- 8 d 0.2747(6) 0.3238(9) 0.4785(9) 1.9(1) 1. 0
O3 O2- 8 d 0.0356(7) 0.150(1) 0.073(1) 2.4(2) 1. 0
O4 O2- 8 d 0.0716(7) 0.452(1) 0.356(1) 3.0(2) 1. 0
O5 O2- 8 d 0.4237(7) 0.1470(9) 0.1650(9) 2.0(2) 1. 0
O6 O2- 8 d 0.1870(6) 0.164(1) 0.2590(9) 1.6(2) 1. 0
#End of TTdata_50423-ICSD