
#(C) 2018 by FIZ Karlsruhe - Leibniz Institute for Information Infrastructure.  All rights reserved.
data_50442-ICSD
_database_code_ICSD 50442
_audit_creation_date 1999-11-30
_audit_update_record 2014-08-01
_chemical_name_systematic 'Europium(II) dilithosilicate'
_chemical_formula_structural 'Eu ((Li2 Si) O4)'
_chemical_formula_sum 'Eu1 Li2 O4 Si1'
_chemical_name_structure_type Cu2SnSrS4
_exptl_crystal_density_diffrn 4.71
_publ_section_title
'Li2 Eu Si O4, ein Europium(II)-dilithosilicat: Eu ((Li2 Si) O4)'
loop_
_citation_id
_citation_journal_full
_citation_year
_citation_journal_volume
_citation_page_first
_citation_page_last
_citation_journal_id_ASTM
primary 'Zeitschrift fuer Anorganische und Allgemeine Chemie (1950) (DE)' 1998
624 1079 1081 ZAACAB
loop_
_publ_author_name
'Haferkorn, B.'
'Meyer, G.'
_cell_length_a 5.0270(5)
_cell_length_b 5.0270(5)
_cell_length_c 12.470(2)
_cell_angle_alpha 90.
_cell_angle_beta 90.
_cell_angle_gamma 120.
_cell_volume 272.91
_cell_formula_units_Z 3
_symmetry_space_group_name_H-M 'P 31 2 1'
_symmetry_Int_Tables_number 152
_refine_ls_R_factor_all 0.0282
loop_
_symmetry_equiv_pos_site_id
_symmetry_equiv_pos_as_xyz
1 'x-y, -y, -z+2/3'
2 '-x, -x+y, -z+1/3'
3 'y, x, -z'
4 '-x+y, -x, z+2/3'
5 '-y, x-y, z+1/3'
6 'x, y, z'
loop_
_atom_type_symbol
_atom_type_oxidation_number
Li1+ 1
Eu2+ 2
Si4+ 4
O2- -2
loop_
_atom_site_label
_atom_site_type_symbol
_atom_site_symmetry_multiplicity
_atom_site_Wyckoff_symbol
_atom_site_fract_x
_atom_site_fract_y
_atom_site_fract_z
_atom_site_B_iso_or_equiv
_atom_site_occupancy
_atom_site_attached_hydrogens
Li1 Li1+ 6 c 0.406(2) 0.073(2) 0.0794(6) . 1. 0
Eu1 Eu2+ 3 b 0 0.4174(1) 0.1667 . 1. 0
Si1 Si4+ 3 a 0.7228(3) 0.7228(3) 0 . 1. 0
O1 O2- 6 c 0.5494(7) 0.5157(6) 0.1063(2) . 1. 0
O2 O2- 6 c 0.7615(6) 0.0674(6) 0.0035(2) . 1. 0
loop_
_atom_site_aniso_label
_atom_site_aniso_type_symbol
_atom_site_aniso_U_11
_atom_site_aniso_U_22
_atom_site_aniso_U_33
_atom_site_aniso_U_12
_atom_site_aniso_U_13
_atom_site_aniso_U_23
Li1 Li1+ 0.0013(3) 0.0020(4) 0.0018(3) 0.0009(3) -.0002(2) 0.0000(2)
Eu1 Eu2+ 0.0012(1) 0.0013(1) 0.0011(1) 0.0006(1) -.0001(1) 0.0000(1)
Si1 Si4+ 0.0010(1) 0.0010(1) 0.0010(1) 0.0005(1) 0.0000(1) 0.0000(1)
O1 O2- 0.0016(1) 0.0014(1) 0.0011(1) 0.0007(1) 0.0003(1) 0.0003(1)
O2 O2- 0.0014(1) 0.0012(1) 0.0014(1) 0.0007(1) 0.0001(1) 0.0000(1)
#End of TTdata_50442-ICSD