
#(C) 2017 by FIZ Karlsruhe - Leibniz Institute for Information Infrastructure.  All rights reserved.
data_50468-ICSD
_database_code_ICSD 50468
_audit_creation_date 1999-11-30
_chemical_name_systematic 'Dirubidium lithium hexafluorogallate'
_chemical_formula_structural 'Rb2 Li (Ga F6)'
_chemical_formula_sum 'F6 Ga1 Li1 Rb2'
_chemical_name_structure_type Ba2NiTeO6
_exptl_crystal_density_diffrn 4.24
_publ_section_title

;
Roentgenuntersuchungen an den polymorphen Elpasolithen K2 Li Al F6 und Rb2 Li
Ga F6
;
loop_
_citation_id
_citation_journal_full
_citation_year
_citation_journal_volume
_citation_page_first
_citation_page_last
_citation_journal_id_ASTM
primary 'Zeitschrift fuer Anorganische und Allgemeine Chemie (1950) (DE)' 1998
624 1460 1464 ZAACAB
loop_
_publ_author_name
'Graulich, J.'
'Drueeke, S.'
'Babel, D.'
_cell_length_a 5.863(1)
_cell_length_b 5.863(1)
_cell_length_c 28.5630(50)
_cell_angle_alpha 90.
_cell_angle_beta 90.
_cell_angle_gamma 120.
_cell_volume 850.3
_cell_formula_units_Z 6
_symmetry_space_group_name_H-M 'R -3 m H'
_symmetry_Int_Tables_number 166
_refine_ls_R_factor_all 0.018
loop_
_symmetry_equiv_pos_site_id
_symmetry_equiv_pos_as_xyz
1 'x-y, -y, -z'
2 '-x, -x+y, -z'
3 'y, x, -z'
4 'x-y, x, -z'
5 'y, -x+y, -z'
6 '-x, -y, -z'
7 '-x+y, y, z'
8 'x, x-y, z'
9 '-y, -x, z'
10 '-x+y, -x, z'
11 '-y, x-y, z'
12 'x, y, z'
13 'x-y+2/3, -y+1/3, -z+1/3'
14 '-x+2/3, -x+y+1/3, -z+1/3'
15 'y+2/3, x+1/3, -z+1/3'
16 'x-y+2/3, x+1/3, -z+1/3'
17 'y+2/3, -x+y+1/3, -z+1/3'
18 '-x+2/3, -y+1/3, -z+1/3'
19 '-x+y+2/3, y+1/3, z+1/3'
20 'x+2/3, x-y+1/3, z+1/3'
21 '-y+2/3, -x+1/3, z+1/3'
22 '-x+y+2/3, -x+1/3, z+1/3'
23 '-y+2/3, x-y+1/3, z+1/3'
24 'x+2/3, y+1/3, z+1/3'
25 'x-y+1/3, -y+2/3, -z+2/3'
26 '-x+1/3, -x+y+2/3, -z+2/3'
27 'y+1/3, x+2/3, -z+2/3'
28 'x-y+1/3, x+2/3, -z+2/3'
29 'y+1/3, -x+y+2/3, -z+2/3'
30 '-x+1/3, -y+2/3, -z+2/3'
31 '-x+y+1/3, y+2/3, z+2/3'
32 'x+1/3, x-y+2/3, z+2/3'
33 '-y+1/3, -x+2/3, z+2/3'
34 '-x+y+1/3, -x+2/3, z+2/3'
35 '-y+1/3, x-y+2/3, z+2/3'
36 'x+1/3, y+2/3, z+2/3'
loop_
_atom_type_symbol
_atom_type_oxidation_number
Rb1+ 1
Li1+ 1
Ga3+ 3
F1- -1
loop_
_atom_site_label
_atom_site_type_symbol
_atom_site_symmetry_multiplicity
_atom_site_Wyckoff_symbol
_atom_site_fract_x
_atom_site_fract_y
_atom_site_fract_z
_atom_site_B_iso_or_equiv
_atom_site_occupancy
_atom_site_attached_hydrogens
Rb1 Rb1+ 6 c 0 0 0.1274(1) . 1. 0
Rb2 Rb1+ 6 c 0 0 0.2822(1) . 1. 0
Li1 Li1+ 6 c 0 0 0.4016(7) . 1. 0
Ga1 Ga3+ 3 a 0 0 0 . 1. 0
Ga2 Ga3+ 3 b 0 0 0.5 . 1. 0
F1 F1- 18 h 0.1474(4) -.1474(4) 0.4600(1) . 1. 0
F2 F1- 18 h 0.1788(4) -.1788(4) 0.6290(1) . 1. 0
loop_
_atom_site_aniso_label
_atom_site_aniso_type_symbol
_atom_site_aniso_U_11
_atom_site_aniso_U_22
_atom_site_aniso_U_33
_atom_site_aniso_U_12
_atom_site_aniso_U_13
_atom_site_aniso_U_23
Rb1 Rb1+ 0.0164(4) 0.0164(4) 0.0169(5) 0.0082(4) 0 0
Rb2 Rb1+ 0.0161(4) 0.0161(4) 0.0181(5) 0.0081(5) 0 0
Li1 Li1+ 0.048(10) 0.048(10) 0.0198(99) 0.024(10) 0 0
Ga1 Ga3+ 0.0108(5) 0.0108(5) 0.0096(7) 0.0054(5) 0 0
Ga2 Ga3+ 0.0133(5) 0.0133(5) 0.0096(7) 0.0067(5) 0 0
F1 F1- 0.0198(14) 0.0198(14) 0.0211(14) 0.0120(16) 0.0036(7) -.0036(7)
F2 F1- 0.0208(13) 0.0208(13) 0.0173(12) 0.0112(16) -.0027(7) 0.0027(7)
#End of TTdata_50468-ICSD