
#(C) 2018 by FIZ Karlsruhe - Leibniz Institute for Information Infrastructure.  All rights reserved.
data_50578-ICSD
_database_code_ICSD 50578
_audit_creation_date 2000-07-15
_audit_update_record 2012-08-01
_chemical_name_systematic 'Tetralithium tetrathiogermanate'
_chemical_formula_structural 'Li4 (Ge S4)'
_chemical_formula_sum 'Ge1 Li4 S4'
_exptl_crystal_density_diffrn 2.25
_cell_measurement_temperature 295.
_publ_section_title 'Synthesis and structure of Li4 Ge S4'
loop_
_citation_id
_citation_journal_full
_citation_year
_citation_journal_volume
_citation_page_first
_citation_page_last
_citation_journal_id_ASTM
primary 'Zeitschrift fuer Naturforschung, B: Chemical Sciences' 1998 53 23 30
ZNBSEN
loop_
_publ_author_name
'Matsushita, Y.'
'Kanatzidis, M.G.'
_cell_length_a 14.107(6)
_cell_length_b 7.770(3)
_cell_length_c 6.162(2)
_cell_angle_alpha 90.
_cell_angle_beta 90.
_cell_angle_gamma 90.
_cell_volume 675.43
_cell_formula_units_Z 4
_symmetry_space_group_name_H-M 'P n m a'
_symmetry_Int_Tables_number 62
_refine_ls_R_factor_all 0.0165
loop_
_symmetry_equiv_pos_site_id
_symmetry_equiv_pos_as_xyz
1 'x+1/2, y, -z+1/2'
2 'x, -y+1/2, z'
3 '-x+1/2, y+1/2, z+1/2'
4 '-x, -y, -z'
5 '-x+1/2, -y, z+1/2'
6 '-x, y+1/2, -z'
7 'x+1/2, -y+1/2, -z+1/2'
8 'x, y, z'
loop_
_atom_type_symbol
_atom_type_oxidation_number
Ge4+ 4
Li1+ 1
S2- -2
loop_
_atom_site_label
_atom_site_type_symbol
_atom_site_symmetry_multiplicity
_atom_site_Wyckoff_symbol
_atom_site_fract_x
_atom_site_fract_y
_atom_site_fract_z
_atom_site_B_iso_or_equiv
_atom_site_occupancy
_atom_site_attached_hydrogens
Ge1 Ge4+ 4 c 0.589040(21) 0.75 0.148610(49) . 1. 0
Li1 Li1+ 8 d 0.5022(45) 0.9857(71) 0.5262(53) . 0.5 0
Li2 Li1+ 4 c 0.41167(40) 0.75 -.1294(10) . 1. 0
Li3 Li1+ 8 d 0.67765(30) 0.49997(55) -.30753(74) . 1. 0
S1 S2- 4 c 0.586190(52) 0.75 -.20957(11) . 1. 0
S2 S2- 8 d 0.656700(34) 0.985090(64) 0.27875(8) . 1. 0
S3 S2- 4 c 0.439090(49) 0.75 0.26920(12) . 1. 0
loop_
_atom_site_aniso_label
_atom_site_aniso_type_symbol
_atom_site_aniso_U_11
_atom_site_aniso_U_22
_atom_site_aniso_U_33
_atom_site_aniso_U_12
_atom_site_aniso_U_13
_atom_site_aniso_U_23
Ge1 Ge4+ 0.0126(1) 0.0126(1) 0.0097(1) 0 0.0008(1) 0
Li1 Li1+ 0.032(7) 0.03(1) 0.01(1) -.003(9) 0.00(1) -.01(1)
Li2 Li1+ 0.028(3) 0.027(3) 0.033(3) 0 -.004(3) 0
Li3 Li1+ 0.029(2) 0.029(2) 0.050(3) 0.003(2) -.001(2) -.009(2)
S1 S2- 0.0192(4) 0.0166(3) 0.0105(3) 0 0.0010(3) 0
S2 S2- 0.0157(2) 0.0149(2) 0.0169(2) -.0022(2) 0.0002(2) -.0020(2)
S3 S2- 0.0131(3) 0.0136(3) 0.0148(3) 0 0.0021(3) 0
#End of TTdata_50578-ICSD