
#(C) 2018 by FIZ Karlsruhe - Leibniz Institute for Information Infrastructure.  All rights reserved.
data_50957-ICSD
_database_code_ICSD 50957
_audit_creation_date 2000-12-16
_audit_update_record 2011-02-01
_chemical_name_systematic
'Nonalithium trialuminium tris(diphosphate(V)) bis(phosphate(V))'
_chemical_formula_structural 'Li9 Al3 (P2 O7)3 (P O4)2'
_chemical_formula_sum 'Al3 Li9 O29 P8'
_chemical_name_structure_type Li9Al3(P2O7)3(PO4)2
_exptl_crystal_density_diffrn 2.67
_cell_measurement_temperature 294.
_publ_section_title

;
Crystal structure and cation transport properties of the layered
monodiphosphates: Li9 M3 (P2 O7)3 (P O4)3 (M= Al, Ga, Cr, Fe)
;
loop_
_citation_id
_citation_journal_full
_citation_year
_citation_journal_volume
_citation_page_first
_citation_page_last
_citation_journal_id_ASTM
primary 'Journal of Solid State Chemistry' 1998 138 32 40 JSSCBI
loop_
_publ_author_name
'Poisson, S.'
'd'Yvoire, F.'
'Nguyen, H.D.'
'Bretey, E.'
'Berthet, P.'
_cell_length_a 9.551(2)
_cell_length_b 9.551(2)
_cell_length_c 13.486(6)
_cell_angle_alpha 90.
_cell_angle_beta 90.
_cell_angle_gamma 120.
_cell_volume 1065.4
_cell_formula_units_Z 2
_symmetry_space_group_name_H-M 'P -3 c 1'
_symmetry_Int_Tables_number 165
_refine_ls_R_factor_all 0.022
loop_
_symmetry_equiv_pos_site_id
_symmetry_equiv_pos_as_xyz
1 'x-y, -y, -z+1/2'
2 '-x, -x+y, -z+1/2'
3 'y, x, -z+1/2'
4 'x-y, x, -z'
5 'y, -x+y, -z'
6 '-x, -y, -z'
7 '-x+y, y, z+1/2'
8 'x, x-y, z+1/2'
9 '-y, -x, z+1/2'
10 '-x+y, -x, z'
11 '-y, x-y, z'
12 'x, y, z'
loop_
_atom_type_symbol
_atom_type_oxidation_number
P5+ 5
Al3+ 3
Li1+ 1
O2- -2
loop_
_atom_site_label
_atom_site_type_symbol
_atom_site_symmetry_multiplicity
_atom_site_Wyckoff_symbol
_atom_site_fract_x
_atom_site_fract_y
_atom_site_fract_z
_atom_site_B_iso_or_equiv
_atom_site_occupancy
_atom_site_attached_hydrogens
P1 P5+ 4 d 0.6667 0.3333 0.62964(8) 0.44(1) 1. 0
P2 P5+ 12 g 0.31796(7) 0.09144(7) 0.84280(5) 0.47(1) 1. 0
Al1 Al3+ 6 f 0.5659(1) 0 0.75 0.47(2) 1. 0
Li1 Li1+ 2 b 0 0 0 4.2(3) 1. 0
Li2 Li1+ 4 d 0.6667 0.3333 0.8827(6) 1.5(1) 1. 0
Li3 Li1+ 12 g 0.3380(6) 0.1012(5) 0.0631(4) 1.22(9) 1. 0
O1 O2- 4 d 0.6667 0.3333 0.5185(2) 1.71(5) 1. 0
O2 O2- 6 f 0.2078(3) 0 0.75 0.72(5) 1. 0
O3 O2- 12 g 0.6722(2) 0.1847(2) 0.6682(1) 0.75(3) 1. 0
O4 O2- 12 g 0.4809(2) 0.1020(2) 0.8300(1) 0.74(4) 1. 0
O5 O2- 12 g 0.3380(2) 0.2594(2) 0.8408(1) 0.66(3) 1. 0
O6 O2- 12 g 0.2272(2) 0.0002(2) 0.9337(1) 0.87(4) 1. 0
#End of TTdata_50957-ICSD