
#(C) 2018 by FIZ Karlsruhe - Leibniz Institute for Information Infrastructure.  All rights reserved.
data_50980-ICSD
_database_code_ICSD 50980
_audit_creation_date 2000-12-16
_chemical_name_systematic 'Lithium divanadate'
_chemical_formula_structural 'Li (V2 O5)'
_chemical_formula_sum 'Li1 O5 V2'
_chemical_name_structure_type MgV2O5
_exptl_crystal_density_diffrn 3.12
_cell_measurement_temperature 294.
_publ_section_title
'Mg V2 O5 and delta-Li(x) V2 O5: A comparative structural investigation'
loop_
_citation_id
_citation_journal_full
_citation_year
_citation_journal_volume
_citation_page_first
_citation_page_last
_citation_journal_id_ASTM
primary 'Journal of Solid State Chemistry' 1998 136 56 62 JSSCBI
loop_
_publ_author_name
'Millet, P.'
'Satto, C.'
'Sciau, P.'
'Galy, J.'
_cell_length_a 3.6047(2)
_cell_length_b 9.9157(5)
_cell_length_c 11.2479(4)
_cell_angle_alpha 90.
_cell_angle_beta 90.
_cell_angle_gamma 90.
_cell_volume 402.04
_cell_formula_units_Z 4
_symmetry_space_group_name_H-M 'C m c m'
_symmetry_Int_Tables_number 63
_refine_ls_R_factor_all 0.033
loop_
_symmetry_equiv_pos_site_id
_symmetry_equiv_pos_as_xyz
1 '-x, y, -z+1/2'
2 '-x, -y, z+1/2'
3 '-x, y, z'
4 '-x, -y, -z'
5 'x, -y, z+1/2'
6 'x, y, -z+1/2'
7 'x, -y, -z'
8 'x, y, z'
9 '-x+1/2, y+1/2, -z+1/2'
10 '-x+1/2, -y+1/2, z+1/2'
11 '-x+1/2, y+1/2, z'
12 '-x+1/2, -y+1/2, -z'
13 'x+1/2, -y+1/2, z+1/2'
14 'x+1/2, y+1/2, -z+1/2'
15 'x+1/2, -y+1/2, -z'
16 'x+1/2, y+1/2, z'
loop_
_atom_type_symbol
_atom_type_oxidation_number
Li1+ 1
V4+ 4.5
O2- -2
loop_
_atom_site_label
_atom_site_type_symbol
_atom_site_symmetry_multiplicity
_atom_site_Wyckoff_symbol
_atom_site_fract_x
_atom_site_fract_y
_atom_site_fract_z
_atom_site_B_iso_or_equiv
_atom_site_occupancy
_atom_site_attached_hydrogens
Li1 Li1+ 4 c 0.5 0.3992(18) 0.25 2.53(43) 1. 0
V1 V4+ 8 f 0 0.2057(2) 0.3987(2) . 1. 0
O1 O2- 8 f 0 0.0471(4) 0.3728(4) 2.28(12) 1. 0
O2 O2- 8 f 0 0.2449(4) 0.5745(4) 2.13(15) 1. 0
O3 O2- 4 c 0 0.2808(6) 0.25 1.54(16) 1. 0
loop_
_atom_site_aniso_label
_atom_site_aniso_type_symbol
_atom_site_aniso_U_11
_atom_site_aniso_U_22
_atom_site_aniso_U_33
_atom_site_aniso_U_12
_atom_site_aniso_U_13
_atom_site_aniso_U_23
V1 V4+ 0.0398(22) 0.0067(3) 0.0021(2) 0 0 0.0019(4)
#End of TTdata_50980-ICSD