
#(C) 2018 by FIZ Karlsruhe - Leibniz Institute for Information Infrastructure.  All rights reserved.
data_51231-ICSD
_database_code_ICSD 51231
_audit_creation_date 2002-04-01
_audit_update_record 2012-08-01
_chemical_name_systematic 'Lithium iron titanium oxide (2.39/1/3.4/8)'
_chemical_formula_structural 'Li.24 Fe1.16 Ti2.62 O8'
_chemical_formula_sum 'Fe1.16 Li0.24 O8 Ti2.62'
_chemical_name_structure_type VO2
_chemical_name_mineral Pseudobrookite
_exptl_crystal_density_diffrn 3.75
_publ_section_title
'Nonstoichiometric Li-pseudobrookite(ss) in the Li2 O-Fe2 O3-Ti O2 system'
loop_
_citation_id
_citation_journal_full
_citation_year
_citation_journal_volume
_citation_page_first
_citation_page_last
_citation_journal_id_ASTM
primary 'Journal of Solid State Chemistry' 1998 141 221 228 JSSCBI
loop_
_publ_author_name
'Grey, I.E.'
'Li, C.'
'Ness, T.'
_cell_length_a 9.5966(1)
_cell_length_b 2.9514(1)
_cell_length_c 5.0003(1)
_cell_angle_alpha 90.
_cell_angle_beta 90.
_cell_angle_gamma 90.
_cell_volume 141.63
_cell_formula_units_Z 1
_symmetry_space_group_name_H-M 'P n m a'
_symmetry_Int_Tables_number 62
_refine_ls_R_factor_all 0.049
loop_
_symmetry_equiv_pos_site_id
_symmetry_equiv_pos_as_xyz
1 'x+1/2, y, -z+1/2'
2 'x, -y+1/2, z'
3 '-x+1/2, y+1/2, z+1/2'
4 '-x, -y, -z'
5 '-x+1/2, -y, z+1/2'
6 '-x, y+1/2, -z'
7 'x+1/2, -y+1/2, -z+1/2'
8 'x, y, z'
loop_
_atom_type_symbol
_atom_type_oxidation_number
Li1+ 1
Fe3+ 3
Ti4+ 4
O2- -2
loop_
_atom_site_label
_atom_site_type_symbol
_atom_site_symmetry_multiplicity
_atom_site_Wyckoff_symbol
_atom_site_fract_x
_atom_site_fract_y
_atom_site_fract_z
_atom_site_B_iso_or_equiv
_atom_site_occupancy
_atom_site_attached_hydrogens
Li1 Li1+ 4 c 0.1417(1) 0.25 0.9800(2) 0.38(2) 0.06 0
Fe1 Fe3+ 4 c 0.1417(1) 0.25 0.9800(2) 0.38(2) 0.29 0
Ti1 Ti4+ 4 c 0.1417(1) 0.25 0.9800(2) 0.38(2) 0.655 0
O1 O2- 4 c 0.2792(4) 0.25 0.6990(8) 1.17(9) 1. 0
O2 O2- 4 c 0.9626(4) 0.25 0.2087(7) 1.00(9) 1. 0
#End of TTdata_51231-ICSD