
#(C) 2018 by FIZ Karlsruhe - Leibniz Institute for Information Infrastructure.  All rights reserved.
data_51392-ICSD
_database_code_ICSD 51392
_audit_creation_date 2002-10-01
_audit_update_record 2005-10-01
_chemical_name_systematic 'Trilithium copper antimony oxide'
_chemical_formula_structural 'Li3 Cu Sb O5'
_chemical_formula_sum 'Cu1 Li3 O5 Sb1'
_exptl_crystal_density_diffrn 4.9
_publ_section_title 'Crystal structure of Li3 Cu Sb O5'
loop_
_citation_id
_citation_journal_full
_citation_year
_citation_journal_volume
_citation_page_first
_citation_page_last
_citation_journal_id_ASTM
primary 'Journal of Solid State Chemistry' 2001 156 321 324 JSSCBI
loop_
_publ_author_name
'Trujillo Tovar, S.'
'Bernes, S.'
'Castellanos, M.A.R.'
_cell_length_a 5.1598(6)
_cell_length_b 5.3798(7)
_cell_length_c 7.7953(10)
_cell_angle_alpha 105.523(9)
_cell_angle_beta 102.419(9)
_cell_angle_gamma 103.411(10)
_cell_volume 193.74
_cell_formula_units_Z 2
_symmetry_space_group_name_H-M 'P -1'
_symmetry_Int_Tables_number 2
_refine_ls_R_factor_all 0.0241
loop_
_symmetry_equiv_pos_site_id
_symmetry_equiv_pos_as_xyz
1 '-x, -y, -z'
2 'x, y, z'
loop_
_atom_type_symbol
_atom_type_oxidation_number
Sb5+ 5
Cu2+ 2
Li1+ 1
O2- -2
Li1+ 1
loop_
_atom_site_label
_atom_site_type_symbol
_atom_site_symmetry_multiplicity
_atom_site_Wyckoff_symbol
_atom_site_fract_x
_atom_site_fract_y
_atom_site_fract_z
_atom_site_B_iso_or_equiv
_atom_site_occupancy
_atom_site_attached_hydrogens
Sb1 Sb5+ 2 i 0.1085(1) 0.7018(1) 0.703 . 1. 0
Cu1 Cu2+ 1 c 0 0.5 0 . 1. 0
Cu2 Cu2+ 2 i -.2968(6) 0.8902(7) 0.9011(4) . 0.5 0
Li1 Li1+ 2 i -.341(8) 0.898(11) 0.894(7) 0.004(9) 0.5 0
O1 O2- 2 i 0.1333(7) 0.3335(7) 0.5475(4) . 1. 0
O2 O2- 2 i 0.3348(7) 0.6728(8) 0.9323(4) . 1. 0
O3 O2- 2 i -.2151(8) 0.4946(8) 0.7601(5) . 1. 0
O4 O2- 2 i 0.4466(8) 0.8913(8) 0.6610(5) . 1. 0
O5 O2- 2 i 0.0547(7) 0.0430(7) 0.8340(5) . 1. 0
Li2 Li1+ 1 h 0.5 0.5 0.5 0.019(3) 1. 0
Li3 Li1+ 2 i 0.416(2) 0.294(2) 0.8036(13) 0.010(2) 1. 0
Li4 Li1+ 2 i 0.772(2) 0.099(2) 0.6113(13) 0.017(2) 1. 0
loop_
_atom_site_aniso_label
_atom_site_aniso_type_symbol
_atom_site_aniso_U_11
_atom_site_aniso_U_22
_atom_site_aniso_U_33
_atom_site_aniso_U_12
_atom_site_aniso_U_13
_atom_site_aniso_U_23
Sb1 Sb5+ 0.006(1) 0.005(1) 0.004(1) 0.001(1) 0.002(1) 0.002(1)
Cu1 Cu2+ 0.008(1) 0.011(1) 0.006(1) 0.001(1) 0.002(1) 0.005(1)
Cu2 Cu2+ 0.004(1) 0.010(1) 0.005(1) 0.002(1) 0.000(1) 0.003(1)
O1 O2- 0.010(2) 0.005(2) 0.005(1) 0.003(1) 0.001(1) 0.001(1)
O2 O2- 0.009(2) 0.015(2) 0.010(2) 0.003(2) 0.003(2) 0.006(2)
O3 O2- 0.007(2) 0.012(2) 0.009(1) 0.003(1) 0.004(1) 0.006(1)
O4 O2- 0.005(2) 0.009(2) 0.009(2) -.002(1) 0.002(1) 0.005(1)
O5 O2- 0.012(2) 0.010(2) 0.009(2) 0.005(2) 0.006(1) 0.003(1)
#End of TTdata_51392-ICSD