
#(C) 2018 by FIZ Karlsruhe - Leibniz Institute for Information Infrastructure.  All rights reserved.
data_51443-ICSD
_database_code_ICSD 51443
_audit_creation_date 2003-04-01
_audit_update_record 2012-08-01
_chemical_name_systematic 'Lithium vanadate'
_chemical_formula_structural 'Li (V O3)'
_chemical_formula_sum 'Li1 O3 V1'
_chemical_name_structure_type NaKV2O6
_exptl_crystal_density_diffrn 2.98
_cell_measurement_temperature 340.
_publ_section_title

;
Structural disorder and ionic conductivity in Li V O3: a neutron powder
diffraction study from 340 to 890 K
;
loop_
_citation_id
_citation_journal_full
_citation_year
_citation_journal_volume
_citation_page_first
_citation_page_last
_citation_journal_id_ASTM
primary 'Journal of Solid State Chemistry' 2001 156 379 389 JSSCBI
loop_
_publ_author_name
'Muller, C.'
'Valmalette, J.C.'
'Soubeyroux, J.L.'
'Bouree, F.'
'Gavarri, J.R.'
_cell_length_a 10.1597(4)
_cell_length_b 8.4155(3)
_cell_length_c 5.8843(2)
_cell_angle_alpha 90
_cell_angle_beta 110.505(2)
_cell_angle_gamma 90
_cell_volume 471.23
_cell_formula_units_Z 8
_symmetry_space_group_name_H-M 'C 1 2/c 1'
_symmetry_Int_Tables_number 15
_refine_ls_R_factor_all 0.026
loop_
_symmetry_equiv_pos_site_id
_symmetry_equiv_pos_as_xyz
1 'x, -y, z+1/2'
2 '-x, -y, -z'
3 '-x, y, -z+1/2'
4 'x, y, z'
5 'x+1/2, -y+1/2, z+1/2'
6 '-x+1/2, -y+1/2, -z'
7 '-x+1/2, y+1/2, -z+1/2'
8 'x+1/2, y+1/2, z'
loop_
_atom_type_symbol
_atom_type_oxidation_number
Li1+ 1
V5+ 5
O2- -2
loop_
_atom_site_label
_atom_site_type_symbol
_atom_site_symmetry_multiplicity
_atom_site_Wyckoff_symbol
_atom_site_fract_x
_atom_site_fract_y
_atom_site_fract_z
_atom_site_B_iso_or_equiv
_atom_site_occupancy
_atom_site_attached_hydrogens
Li1 Li1+ 4 e 0. 0.9267(9) 0.25 2.15 1. 0
Li2 Li1+ 4 e 0. 0.2831(9) 0.25 2.32 1. 0
V1 V5+ 8 f 0.287(3) 0.084(3) 0.265(5) 1.2 1. 0
O1 O2- 8 f 0.1141(2) 0.1112(2) 0.1660(3) 1.1 1. 0
O2 O2- 8 f 0.3563(3) 0.2723(2) 0.2819(3) 1.81 1. 0
O3 O2- 8 f 0.3548(2) -.0276(2) 0.0762(3) 1.34 1. 0
loop_
_atom_site_aniso_label
_atom_site_aniso_type_symbol
_atom_site_aniso_beta_11
_atom_site_aniso_beta_22
_atom_site_aniso_beta_33
_atom_site_aniso_beta_12
_atom_site_aniso_beta_13
_atom_site_aniso_beta_23
Li1 Li1+ 0.008(1) 0.006(1) 0.022(3) 0 0.009(1) 0
Li2 Li1+ 0.008(1) 0.004(1) 0.030(1) 0 0.009(2) 0
O1 O2- 0.0037(2) 0.0050(3) 0.0062(5) -.0006(2) 0.0027(3) 0.0005(3)
O2 O2- 0.0080(3) 0.0057(3) 0.0118(6) -.0034(2) 0.0067(4) -.0021(3)
O3 O2- 0.0044(2) 0.0077(3) 0.0032(6) -.0008(2) 0.0023(3) -.0016(3)
#End of TTdata_51443-ICSD