
#(C) 2018 by FIZ Karlsruhe - Leibniz Institute for Information Infrastructure.  All rights reserved.
data_54176-ICSD
_database_code_ICSD 54176
_audit_creation_date 2000-12-16
_chemical_name_systematic 'Lithium nickel strontium nitride (3.9/0.1/1/2)'
_chemical_formula_structural '(Li3.9 Ni0.1) Sr N2'
_chemical_formula_sum 'Li3.9 N2 Ni0.1 Sr1'
_chemical_name_structure_type Li4SrN2
_exptl_crystal_density_diffrn 2.5
_publ_section_title

;
The structure of fluorite and lithium nitride derivatives: Li Ca N and Li4 Sr
N2
;
loop_
_citation_id
_citation_journal_full
_citation_year
_citation_journal_volume
_citation_page_first
_citation_page_last
_citation_journal_id_ASTM
primary 'Angewandte Chemie' 1989 101 1689 1695 ANCEAD
loop_
_publ_author_name
'Cordier, G.'
'Gudat, A.'
'Kniep, R.'
'Rabenau, A.'
_cell_length_a 3.822(2)
_cell_length_b 3.822(2)
_cell_length_c 27.0420(90)
_cell_angle_alpha 90.
_cell_angle_beta 90.
_cell_angle_gamma 90.
_cell_volume 395.02
_cell_formula_units_Z 4
_symmetry_space_group_name_H-M 'I 41/a m d Z'
_symmetry_Int_Tables_number 141
_refine_ls_R_factor_all 0.04
loop_
_symmetry_equiv_pos_site_id
_symmetry_equiv_pos_as_xyz
1 'y+1/4, x+3/4, -z+1/4'
2 'y+1/4, -x+3/4, -z+1/4'
3 'x, y+1/2, -z'
4 'x, -y, -z'
5 '-y+3/4, x+3/4, -z+1/4'
6 '-y+3/4, -x+3/4, -z+1/4'
7 '-x, y+1/2, -z'
8 '-x, -y, -z'
9 '-y+3/4, -x+1/4, z+3/4'
10 '-y+3/4, x+1/4, z+3/4'
11 '-x, -y+1/2, z'
12 '-x, y, z'
13 'y+1/4, -x+1/4, z+3/4'
14 'y+1/4, x+1/4, z+3/4'
15 'x, -y+1/2, z'
16 'x, y, z'
17 'y+3/4, x+1/4, -z+3/4'
18 'y+3/4, -x+1/4, -z+3/4'
19 'x+1/2, y, -z+1/2'
20 'x+1/2, -y+1/2, -z+1/2'
21 '-y+1/4, x+1/4, -z+3/4'
22 '-y+1/4, -x+1/4, -z+3/4'
23 '-x+1/2, y, -z+1/2'
24 '-x+1/2, -y+1/2, -z+1/2'
25 '-y+1/4, -x+3/4, z+1/4'
26 '-y+1/4, x+3/4, z+1/4'
27 '-x+1/2, -y, z+1/2'
28 '-x+1/2, y+1/2, z+1/2'
29 'y+3/4, -x+3/4, z+1/4'
30 'y+3/4, x+3/4, z+1/4'
31 'x+1/2, -y, z+1/2'
32 'x+1/2, y+1/2, z+1/2'
loop_
_atom_type_symbol
_atom_type_oxidation_number
Sr2+ 2
Ni2+ 2
Li1+ 1
N3- -3
Li1+ 1
loop_
_atom_site_label
_atom_site_type_symbol
_atom_site_symmetry_multiplicity
_atom_site_Wyckoff_symbol
_atom_site_fract_x
_atom_site_fract_y
_atom_site_fract_z
_atom_site_B_iso_or_equiv
_atom_site_occupancy
_atom_site_attached_hydrogens
Sr1 Sr2+ 4 a 0 0.75 0.125 . 1. 0
Ni1 Ni2+ 8 e 0 0.25 0.3050(2) . 0.05(1) 0
Li1 Li1+ 8 e 0 0.25 0.3050(2) . 0.95(1) 0
N1 N3- 8 e 0 0.25 0.0575(1) . 1. 0
Li2 Li1+ 8 e 0 0.25 0.7708(3) . 1. 0
loop_
_atom_site_aniso_label
_atom_site_aniso_type_symbol
_atom_site_aniso_U_11
_atom_site_aniso_U_22
_atom_site_aniso_U_33
_atom_site_aniso_U_12
_atom_site_aniso_U_13
_atom_site_aniso_U_23
Sr1 Sr2+ 0.0166(2) 0.0166(2) 0.0139(2) 0 0 0
Ni1 Ni2+ 0.0265(32) 0.0145(26) 0.0200(23) 0 0 0
Li1 Li1+ 0.0265(32) 0.0145(26) 0.0200(23) 0 0 0
N1 N3- 0.0162(18) 0.0200(19) 0.0157(12) 0 0 0
Li2 Li1+ 0.0318(54) 0.0299(53) 0.0167(29) 0 0 0
#End of TTdata_54176-ICSD