
#(C) 2017 by FIZ Karlsruhe - Leibniz Institute for Information Infrastructure.  All rights reserved.
data_55064-ICSD
_database_code_ICSD 55064
_audit_creation_date 2005-04-01
_chemical_name_systematic 'Amminelithium iodide'
_chemical_formula_structural '(Li (N H3)) I'
_chemical_formula_sum 'H3 I1 Li1 N1'
_exptl_crystal_density_diffrn 2.56
_publ_section_title

;
Synthese und Kristallstruktur der Monoammoniakate von Lithiumhalogeniden: Li
Br * (N H3) und Li I * (N H3)
;
loop_
_citation_id
_citation_journal_full
_citation_year
_citation_journal_volume
_citation_page_first
_citation_page_last
_citation_journal_id_ASTM
primary 'Zeitschrift fuer Anorganische und Allgemeine Chemie (1950) (DE)' 2004
630 167 170 ZAACAB
loop_
_publ_author_name
'Jacobs, H.'
'Friedriszik, M.'
_cell_length_a 4.493(1)
_cell_length_b 6.077(1)
_cell_length_c 7.512(2)
_cell_angle_alpha 90
_cell_angle_beta 107.15(3)
_cell_angle_gamma 90
_cell_volume 195.99
_cell_formula_units_Z 2
_symmetry_space_group_name_H-M 'P 1 21 1'
_symmetry_Int_Tables_number 4
_refine_ls_R_factor_all 0.042
loop_
_symmetry_equiv_pos_site_id
_symmetry_equiv_pos_as_xyz
1 '-x, y+1/2, -z'
2 'x, y, z'
loop_
_atom_type_symbol
_atom_type_oxidation_number
I1- -1
N3- -3
Li1+ 1
H1+ 1
loop_
_atom_site_label
_atom_site_type_symbol
_atom_site_symmetry_multiplicity
_atom_site_Wyckoff_symbol
_atom_site_fract_x
_atom_site_fract_y
_atom_site_fract_z
_atom_site_B_iso_or_equiv
_atom_site_occupancy
_atom_site_attached_hydrogens
I1 I1- 2 a 0.1554(3) 0 0.8109(2) 2.92(2) 1. 0
N1 N3- 2 a 0.423(2) 0.027(2) 0.346(2) 4.0(1) 1. 0
Li1 Li1+ 2 a 0.315(3) 0.236(3) 0.144(5) 3.8(1) 1. 0
H1 H1+ 2 a 0.579(3) 0.008(3) 0.386(3) 4.0(2) 1. 0
H2 H1+ 2 a 0.442(3) 0.889(3) 0.260(3) 4.0(2) 1. 0
H3 H1+ 2 a 0.420(3) 0.005(3) 0.459(3) 4.0(2) 1. 0
loop_
_atom_site_aniso_label
_atom_site_aniso_type_symbol
_atom_site_aniso_U_11
_atom_site_aniso_U_22
_atom_site_aniso_U_33
_atom_site_aniso_U_12
_atom_site_aniso_U_13
_atom_site_aniso_U_23
I1 I1- .034(1) .035(1) .042(1) -.003(2) .013(1) -.001(2)
N1 N3- .063(4) .013(4) .043(3) .005(3) .018(3) .000(3)
Li1 Li1+ .045(9) .038(11) .042(7) .002(10) .009(7) .007(8)
#End of TTdata_55064-ICSD