
#(C) 2018 by FIZ Karlsruhe - Leibniz Institute for Information Infrastructure.  All rights reserved.
data_55072-ICSD
_database_code_ICSD 55072
_audit_creation_date 2005-04-01
_chemical_name_systematic 'Lithium magnesium tetranitridovanadate(V) (5/1.02/1)'
_chemical_formula_structural 'Li5 Mg1.02 (V N4)'
_chemical_formula_sum 'Li5 Mg1.02 N4 V1'
_exptl_crystal_density_diffrn 2.52
_publ_section_title

;
New phases in the lithiumnitridovanadate system - the solid solution Li7-2x
Mgx (V N4) with 0 < x < 1
;
loop_
_citation_id
_citation_journal_full
_citation_year
_citation_journal_volume
_citation_page_first
_citation_page_last
_citation_journal_id_ASTM
primary 'Zeitschrift fuer Anorganische und Allgemeine Chemie (1950) (DE)' 2004
630 229 233 ZAACAB
loop_
_publ_author_name
'Niewa, R.'
'Zherebtsov, D.A.'
_cell_length_a 9.6303(3)
_cell_length_b 9.5844(3)
_cell_length_c 9.5193(2)
_cell_angle_alpha 90
_cell_angle_beta 90
_cell_angle_gamma 90
_cell_volume 878.64
_cell_formula_units_Z 8
_symmetry_space_group_name_H-M 'P b c a'
_symmetry_Int_Tables_number 61
_refine_ls_R_factor_all 0.028
loop_
_symmetry_equiv_pos_site_id
_symmetry_equiv_pos_as_xyz
1 'x+1/2, y, -z+1/2'
2 'x, -y+1/2, z+1/2'
3 '-x+1/2, y+1/2, z'
4 '-x, -y, -z'
5 '-x+1/2, -y, z+1/2'
6 '-x, y+1/2, -z+1/2'
7 'x+1/2, -y+1/2, -z'
8 'x, y, z'
loop_
_atom_type_symbol
_atom_type_oxidation_number
V5+ 5
N3- -3
Mg2+ 2
Li1+ 1
loop_
_atom_site_label
_atom_site_type_symbol
_atom_site_symmetry_multiplicity
_atom_site_Wyckoff_symbol
_atom_site_fract_x
_atom_site_fract_y
_atom_site_fract_z
_atom_site_B_iso_or_equiv
_atom_site_occupancy
_atom_site_attached_hydrogens
V1 V5+ 8 c 0.1289(7) 0.1372(5) 0.1304(7) 0.84(9) 1. 0
N1 N3- 8 c 0.241(1) 0.0328(9) 0.001(1) 0.31(7) 1. 0
N2 N3- 8 c 0.0316(9) 0.008(1) 0.237(1) 0.31(7) 1. 0
N3 N3- 8 c 0.017(1) 0.245(1) 0.0232(9) 0.31(7) 1. 0
N4 N3- 8 c 0.238(1) 0.251(1) 0.228(1) 0.31(7) 1. 0
Mg1 Mg2+ 8 c 0.355(2) 0.136(2) 0.871(2) 3.1(2) 0.587(6) 0
Mg2 Mg2+ 8 c 0.110(2) 0.113(2) 0.841(2) 3.1(2) 0.43(1) 0
Li1 Li1+ 8 c 0.374(4) 0.138(4) 0.588(3) 3.1(2) 1. 0
Li2 Li1+ 8 c 0.124(4) 0.140(4) 0.399(3) 3.1(2) 1. 0
Li3 Li1+ 8 c 0.392(4) 0.140(3) 0.131(3) 3.1(2) 1. 0
Li4 Li1+ 8 c 0.119(4) 0.095(3) 0.644(3) 3.1(2) 1. 0
Li5 Li1+ 8 c 0.386(4) 0.110(3) 0.353(3) 3.1(2) 1. 0
#End of TTdata_55072-ICSD