
#(C) 2017 by FIZ Karlsruhe - Leibniz Institute for Information Infrastructure.  All rights reserved.
data_55079-ICSD
_database_code_ICSD 55079
_audit_creation_date 2005-04-01
_audit_update_record 2012-08-01
_chemical_name_systematic 'Tetraamminelithium iodide'
_chemical_formula_structural '(Li (N H3)4) I'
_chemical_formula_sum 'H12 I1 Li1 N4'
_chemical_name_structure_type Li(NH3)4Br
_exptl_crystal_density_diffrn 1.48
_publ_section_title

;
Vergleich der Kristallstrukturen der Tetraammoniakate von Lithiumhalogeniden,
Li Br * 4(N H3) und Li I * 4(N H3), mit der Struktur von
Tetramethylammoniumiodid, N (C H3)4 I
;
loop_
_citation_id
_citation_journal_full
_citation_year
_citation_journal_volume
_citation_page_first
_citation_page_last
_citation_journal_id_ASTM
primary 'Zeitschrift fuer Anorganische und Allgemeine Chemie (1950) (DE)' 2004
630 645 648 ZAACAB
loop_
_publ_author_name
'Jacobs, H.'
'Barlage, H.'
'Friedriszik, M.'
_cell_length_a 12.646(3)
_cell_length_b 7.302(1)
_cell_length_c 9.790(2)
_cell_angle_alpha 90
_cell_angle_beta 90
_cell_angle_gamma 90
_cell_volume 904.02
_cell_formula_units_Z 4
_symmetry_space_group_name_H-M 'P n m a'
_symmetry_Int_Tables_number 62
_refine_ls_R_factor_all 0.051
loop_
_symmetry_equiv_pos_site_id
_symmetry_equiv_pos_as_xyz
1 'x+1/2, y, -z+1/2'
2 'x, -y+1/2, z'
3 '-x+1/2, y+1/2, z+1/2'
4 '-x, -y, -z'
5 '-x+1/2, -y, z+1/2'
6 '-x, y+1/2, -z'
7 'x+1/2, -y+1/2, -z+1/2'
8 'x, y, z'
loop_
_atom_type_symbol
_atom_type_oxidation_number
I1- -1
N3- -3
Li1+ 1
H1+ 1
loop_
_atom_site_label
_atom_site_type_symbol
_atom_site_symmetry_multiplicity
_atom_site_Wyckoff_symbol
_atom_site_fract_x
_atom_site_fract_y
_atom_site_fract_z
_atom_site_B_iso_or_equiv
_atom_site_occupancy
_atom_site_attached_hydrogens
I1 I1- 4 c 0.1840(1) 0.25 0.3384(2) 6.5(2) 1. 0
N1 N3- 4 c 0.198(1) 0.25 0.937(1) 11.(1) 1. 0
N2 N3- 4 c 0.407(1) 0.25 0.624(2) 15.(2) 1. 0
N3 N3- 8 d 0.0815(5) 0.0230(9) 0.6808(6) 7.5(2) 1. 0
Li1 Li1+ 4 c 0.062(1) 0.25 0.806(2) 7.4(4) 1. 0
#End of TTdata_55079-ICSD