
#(C) 2018 by FIZ Karlsruhe - Leibniz Institute for Information Infrastructure.  All rights reserved.
data_55166-ICSD
_database_code_ICSD 55166
_audit_creation_date 2005-10-01
_chemical_name_systematic
'Lithium iron(III) scandium catena-disilicate (1/0.87/0.13/1)'
_chemical_formula_structural 'Li Fe0.873 Sc0.127 (Si2 O6)'
_chemical_formula_sum 'Fe0.873 Li1 O6 Sc0.127 Si2'
_chemical_name_structure_type Pyroxene-CaMg(SiO3)2
_chemical_name_mineral Clinopyroxene
_exptl_crystal_density_diffrn 3.39
_cell_measurement_temperature 295.
_publ_section_title

;
Structural variation and crystal chemistry of Li Me(3+) Si2 O6 clinopyroxenes
Me(3+) = Al, Ga, Cr, V, Fe, Sc and In
;
loop_
_citation_id
_citation_journal_full
_citation_year
_citation_journal_volume
_citation_page_first
_citation_page_last
_citation_journal_id_ASTM
primary 'Zeitschrift fuer Kristallographie (1979-2010)' 2004 219 278 294 ZEKRDZ
loop_
_publ_author_name
'Redhammer, G.J.'
'Roth, G.'
_cell_length_a 9.678(4)
_cell_length_b 8.697(2)
_cell_length_c 5.300(2)
_cell_angle_alpha 90
_cell_angle_beta 110.15(4)
_cell_angle_gamma 90
_cell_volume 418.79
_cell_formula_units_Z 4
_symmetry_space_group_name_H-M 'C 1 2/c 1'
_symmetry_Int_Tables_number 15
_refine_ls_R_factor_all 0.0176
loop_
_symmetry_equiv_pos_site_id
_symmetry_equiv_pos_as_xyz
1 'x, -y, z+1/2'
2 '-x, -y, -z'
3 '-x, y, -z+1/2'
4 'x, y, z'
5 'x+1/2, -y+1/2, z+1/2'
6 '-x+1/2, -y+1/2, -z'
7 '-x+1/2, y+1/2, -z+1/2'
8 'x+1/2, y+1/2, z'
loop_
_atom_type_symbol
_atom_type_oxidation_number
Li1+ 1
Fe3+ 3
Sc3+ 3
Si4+ 4
O2- -2
loop_
_atom_site_label
_atom_site_type_symbol
_atom_site_symmetry_multiplicity
_atom_site_Wyckoff_symbol
_atom_site_fract_x
_atom_site_fract_y
_atom_site_fract_z
_atom_site_B_iso_or_equiv
_atom_site_occupancy
_atom_site_attached_hydrogens
Li1 Li1+ 4 e 0 0.2605(5) 0.25 0.0182(9) 1. 0
Fe1 Fe3+ 4 e 0 0.89809(3) 0.25 0.0040(1) 0.873(3) 0
Sc1 Sc3+ 4 e 0 0.89809(3) 0.25 0.0040(1) 0.127(3) 0
Si1 Si4+ 8 f 0.29646(5) 0.08933(4) 0.26642(9) 0.0045(1) 1. 0
O1 O2- 8 f 0.1162(1) 0.0846(1) 0.1499(2) 0.0059(3) 1. 0
O2 O2- 8 f 0.3667(1) 0.2578(1) 0.3267(3) 0.0097(3) 1. 0
O3 O2- 8 f 0.3558(1) -.0010(1) 0.0550(3) 0.0105(3) 1. 0
#End of TTdata_55166-ICSD