
#(C) 2018 by FIZ Karlsruhe - Leibniz Institute for Information Infrastructure.  All rights reserved.
data_55168-ICSD
_database_code_ICSD 55168
_audit_creation_date 2005-10-01
_chemical_name_systematic
'Lithium iron(III) scandium catena-disilicate (1/0.74/0.26/1)'
_chemical_formula_structural 'Li Fe0.739 Sc0.261 (Si2 O6)'
_chemical_formula_sum 'Fe0.739 Li1 O6 Sc0.261 Si2'
_chemical_name_structure_type Pyroxene-CaMg(SiO3)2
_chemical_name_mineral Clinopyroxene
_exptl_crystal_density_diffrn 3.33
_cell_measurement_temperature 295.
_publ_section_title

;
Structural variation and crystal chemistry of Li Me(3+) Si2 O6 clinopyroxenes
Me(3+) = Al, Ga, Cr, V, Fe, Sc and In
;
loop_
_citation_id
_citation_journal_full
_citation_year
_citation_journal_volume
_citation_page_first
_citation_page_last
_citation_journal_id_ASTM
primary 'Zeitschrift fuer Kristallographie (1979-2010)' 2004 219 278 294 ZEKRDZ
loop_
_publ_author_name
'Redhammer, G.J.'
'Roth, G.'
_cell_length_a 9.704(4)
_cell_length_b 8.737(2)
_cell_length_c 5.312(2)
_cell_angle_alpha 90
_cell_angle_beta 110.20(4)
_cell_angle_gamma 90
_cell_volume 422.67
_cell_formula_units_Z 4
_symmetry_space_group_name_H-M 'C 1 2/c 1'
_symmetry_Int_Tables_number 15
_refine_ls_R_factor_all 0.0167
loop_
_symmetry_equiv_pos_site_id
_symmetry_equiv_pos_as_xyz
1 'x, -y, z+1/2'
2 '-x, -y, -z'
3 '-x, y, -z+1/2'
4 'x, y, z'
5 'x+1/2, -y+1/2, z+1/2'
6 '-x+1/2, -y+1/2, -z'
7 '-x+1/2, y+1/2, -z+1/2'
8 'x+1/2, y+1/2, z'
loop_
_atom_type_symbol
_atom_type_oxidation_number
Li1+ 1
Fe3+ 3
Sc3+ 3
Si4+ 4
O2- -2
loop_
_atom_site_label
_atom_site_type_symbol
_atom_site_symmetry_multiplicity
_atom_site_Wyckoff_symbol
_atom_site_fract_x
_atom_site_fract_y
_atom_site_fract_z
_atom_site_B_iso_or_equiv
_atom_site_occupancy
_atom_site_attached_hydrogens
Li1 Li1+ 4 e 0 0.2600(5) 0.25 0.0190(9) 1. 0
Fe1 Fe3+ 4 e 0 0.89764(3) 0.25 0.0038(1) 0.739(6) 0
Sc1 Sc3+ 4 e 0 0.89764(3) 0.25 0.0038(1) 0.261(6) 0
Si1 Si4+ 8 f 0.29677(4) 0.08900(4) 0.26763(9) 0.0045(2) 1. 0
O1 O2- 8 f 0.1171(1) 0.0845(1) 0.1507(2) 0.0062(3) 1. 0
O2 O2- 8 f 0.3673(1) 0.2565(1) 0.3294(3) 0.0099(3) 1. 0
O3 O2- 8 f 0.3554(1) 0.0006(1) 0.0548(3) 0.0108(3) 1. 0
#End of TTdata_55168-ICSD