
#(C) 2018 by FIZ Karlsruhe - Leibniz Institute for Information Infrastructure.  All rights reserved.
data_56744-ICSD
_database_code_ICSD 56744
_audit_creation_date 2003-04-01
_audit_update_record 2011-02-01
_chemical_name_systematic 'Lanthanum lithium hydride oxide (2/1/1/3) - III'
_chemical_formula_structural 'La2 Li H O3'
_chemical_formula_sum 'H1 La2 Li1 O3'
_chemical_name_structure_type LiLa2HO3
_exptl_crystal_density_diffrn 6.35
_publ_section_title

;
Neuartige Hydrid-Oxide der Seltenen Erden: Ln2 Li H O3 mit Ln = La, Ce, Pr und
Nd
;
loop_
_citation_id
_citation_journal_full
_citation_year
_citation_journal_volume
_citation_page_first
_citation_page_last
_citation_journal_id_ASTM
primary 'Dissertation Universitaet Karlsruhe' 1991 1991 1 139 DIKARM
loop_
_publ_author_name
'Schwarz, H.'
_cell_length_a 3.5694(2)
_cell_length_b 3.7671(4)
_cell_length_c 12.972(3)
_cell_angle_alpha 90.
_cell_angle_beta 90.
_cell_angle_gamma 90.
_cell_volume 174.43
_cell_formula_units_Z 2
_symmetry_space_group_name_H-M 'I m m m'
_symmetry_Int_Tables_number 71
_refine_ls_R_factor_all 0.0231
loop_
_symmetry_equiv_pos_site_id
_symmetry_equiv_pos_as_xyz
1 'x, y, -z'
2 'x, -y, z'
3 '-x, y, z'
4 '-x, -y, -z'
5 '-x, -y, z'
6 '-x, y, -z'
7 'x, -y, -z'
8 'x, y, z'
9 'x+1/2, y+1/2, -z+1/2'
10 'x+1/2, -y+1/2, z+1/2'
11 '-x+1/2, y+1/2, z+1/2'
12 '-x+1/2, -y+1/2, -z+1/2'
13 '-x+1/2, -y+1/2, z+1/2'
14 '-x+1/2, y+1/2, -z+1/2'
15 'x+1/2, -y+1/2, -z+1/2'
16 'x+1/2, y+1/2, z+1/2'
loop_
_atom_type_symbol
_atom_type_oxidation_number
La3+ 3
O2- -2
Li1+ 1
H1- -1
loop_
_atom_site_label
_atom_site_type_symbol
_atom_site_symmetry_multiplicity
_atom_site_Wyckoff_symbol
_atom_site_fract_x
_atom_site_fract_y
_atom_site_fract_z
_atom_site_B_iso_or_equiv
_atom_site_occupancy
_atom_site_attached_hydrogens
La1 La3+ 4 i 0 0 0.36263(3) 0.857(7) 1. 0
O1 O2- 2 d 0.5 0 0.5 1.4(1) 1. 0
O2 O2- 4 i 0 0 0.1775(3) 1.12(5) 1. 0
Li1 Li1+ 2 a 0 0 0 1.1(2) 1. 0
H1 H1- 2 b 0.5 0 0 1.5 1. 0
#End of TTdata_56744-ICSD