
#(C) 2018 by FIZ Karlsruhe - Leibniz Institute for Information Infrastructure.  All rights reserved.
data_56759-ICSD
_database_code_ICSD 56759
_audit_creation_date 2003-04-01
_chemical_name_systematic 'Lithium strontium lanthanum oxide (1/1/1/3)'
_chemical_formula_structural 'Li Sr La O3'
_chemical_formula_sum 'La1 Li1 O3 Sr1'
_chemical_name_structure_type Gd3NiSi2-Eu2CuS3
_exptl_crystal_density_diffrn 5.62
_publ_section_title

;
Quaternaere Oxide der Formeltypen Li M Ln O3 und Li M2 Ln O4 (M=Sr und Eu(II))
;
loop_
_citation_id
_citation_journal_full
_citation_year
_citation_journal_volume
_citation_page_first
_citation_page_last
_citation_journal_id_ASTM
primary 'Dissertation Universitaet Karlsruhe' 1987 1987 1 89 DIKARM
loop_
_publ_author_name
'Stueber, W.'
_cell_length_a 13.568(4)
_cell_length_b 6.904(2)
_cell_length_c 3.553(1)
_cell_angle_alpha 90.
_cell_angle_beta 90.
_cell_angle_gamma 90.
_cell_volume 332.82
_cell_formula_units_Z 4
_symmetry_space_group_name_H-M 'P b n m'
_symmetry_Int_Tables_number 62
_refine_ls_R_factor_all 0.039
loop_
_symmetry_equiv_pos_site_id
_symmetry_equiv_pos_as_xyz
1 '-x+1/2, y+1/2, z'
2 'x, y, -z+1/2'
3 'x+1/2, -y+1/2, z+1/2'
4 '-x, -y, -z'
5 'x+1/2, -y+1/2, -z'
6 '-x, -y, z+1/2'
7 '-x+1/2, y+1/2, -z+1/2'
8 'x, y, z'
loop_
_atom_type_symbol
_atom_type_oxidation_number
Li1+ 1
Sr2+ 2
La3+ 3
Sr2+ 2
O2- -2
loop_
_atom_site_label
_atom_site_type_symbol
_atom_site_symmetry_multiplicity
_atom_site_Wyckoff_symbol
_atom_site_fract_x
_atom_site_fract_y
_atom_site_fract_z
_atom_site_B_iso_or_equiv
_atom_site_occupancy
_atom_site_attached_hydrogens
Li1 Li1+ 4 c 0.3670(4) 0.1216(8) 0.25 . 1. 0
Sr1 Sr2+ 4 c 0.71746(1) 0.59049(3) 0.25 . 0.718(2) 0
La1 La3+ 4 c 0.71746(1) 0.59049(3) 0.25 . 0.282 0
La2 La3+ 4 c 0.54087(4) 0.25469(5) 0.75 . 0.718 0
Sr2 Sr2+ 4 c 0.54087(4) 0.25469(5) 0.75 . 0.282 0
O1 O2- 4 c 0.72395(15) 0.32137(25) 0.75 . 1. 0
O2 O2- 4 c 0.43170(15) 0.37095(24) 0.25 . 1. 0
O3 O2- 4 c 0.60012(15) 0.01096(28) 0.25 . 1. 0
loop_
_atom_site_aniso_label
_atom_site_aniso_type_symbol
_atom_site_aniso_U_11
_atom_site_aniso_U_22
_atom_site_aniso_U_33
_atom_site_aniso_U_12
_atom_site_aniso_U_13
_atom_site_aniso_U_23
Li1 Li1+ 0.0114(23) 0.014(2) 0.0214(28) 0.0026(17) 0 0
Sr1 Sr2+ 0.00607(6) 0.00684(6) 0.00658(7) -0.00060(5) 0 0
La1 La3+ 0.00607(6) 0.00684(6) 0.00658(7) -0.00060(5) 0 0
La2 La3+ 0.00543(4) 0.00749(5) 0.00619(5) 0.00007(4) 0 0
Sr2 Sr2+ 0.00543(4) 0.00749(5) 0.00619(5) 0.00007(4) 0 0
O1 O2- 0.0082(6) 0.0102(6) 0.0138(8) 0.0006(5) 0 0
O2 O2- 0.0107(7) 0.0089(6) 0.0116(8) -0.0007(5) 0 0
O3 O2- 0.0100(7) 0.0132(7) 0.0119(8) -0.0007(6) 0 0
#End of TTdata_56759-ICSD