
#(C) 2018 by FIZ Karlsruhe - Leibniz Institute for Information Infrastructure.  All rights reserved.
data_56752-ICSD
_database_code_ICSD 56752
_audit_creation_date 2003-04-01
_chemical_name_systematic 'Lithium praseodymium oxide - delta'
_chemical_formula_structural 'Li Pr O2'
_chemical_formula_sum 'Li1 O2 Pr1'
_chemical_name_structure_type SmLiO2
_exptl_crystal_density_diffrn 6.01
_cell_measurement_temperature 188.
_publ_section_title

;
Neuartige Hydrid-Oxide der Seltenen Erden: Ln2 Li H O3 mit Ln = La, Ce, Pr und
Nd
;
loop_
_citation_id
_citation_journal_full
_citation_year
_citation_journal_volume
_citation_page_first
_citation_page_last
_citation_journal_id_ASTM
primary 'Dissertation Universitaet Karlsruhe' 1991 1991 1 139 DIKARM
loop_
_publ_author_name
'Schwarz, H.'
_cell_length_a 5.7944(6)
_cell_length_b 6.1168(8)
_cell_length_c 5.7545(7)
_cell_angle_alpha 90.
_cell_angle_beta 102.83(1)
_cell_angle_gamma 90.
_cell_volume 198.87
_cell_formula_units_Z 4
_symmetry_space_group_name_H-M 'P 1 21/c 1'
_symmetry_Int_Tables_number 14
_refine_ls_R_factor_all 0.0251
loop_
_symmetry_equiv_pos_site_id
_symmetry_equiv_pos_as_xyz
1 'x, -y+1/2, z+1/2'
2 '-x, -y, -z'
3 '-x, y+1/2, -z+1/2'
4 'x, y, z'
loop_
_atom_type_symbol
_atom_type_oxidation_number
Pr3+ 3
Li1+ 1
O2- -2
loop_
_atom_site_label
_atom_site_type_symbol
_atom_site_symmetry_multiplicity
_atom_site_Wyckoff_symbol
_atom_site_fract_x
_atom_site_fract_y
_atom_site_fract_z
_atom_site_B_iso_or_equiv
_atom_site_occupancy
_atom_site_attached_hydrogens
Pr1 Pr3+ 4 e 0.20021(3) 0.06862(2) 0.30672(3) 0.323(5) 1. 0
Li1 Li1+ 4 e 0.649(1) 0.141(1) 0.164(2) 1.3(2) 1. 0
O1 O2- 4 e 0.4313(4) 0.1300(3) 0.7115(5) 0.63(5) 1. 0
O2 O2- 4 e -.0835(4) 0.2618(3) 0.4876(5) 0.49(4) 1. 0
loop_
_atom_site_aniso_label
_atom_site_aniso_type_symbol
_atom_site_aniso_U_11
_atom_site_aniso_U_22
_atom_site_aniso_U_33
_atom_site_aniso_U_12
_atom_site_aniso_U_13
_atom_site_aniso_U_23
Pr1 Pr3+ 0.00334(8) 0.00424(8) 0.00467(8) 0.00003(3) 0.0008(1) 0.00009(5)
Li1 Li1+ 0.0139(28) 0.0018(18) 0.035(5) 0.000(2) 0.0065(61) 0.0005(30)
O1 O2- 0.0097(10) 0.0045(6) 0.0079(9) -0.0010(7) -0.0021(12) -0.0008(8)
O2 O2- 0.0051(6) 0.0069(6) 0.0059(6) -0.0001(8) 0.0002(9) 0.0012(7)
#End of TTdata_56752-ICSD