
#(C) 2018 by FIZ Karlsruhe - Leibniz Institute for Information Infrastructure.  All rights reserved.
data_56757-ICSD
_database_code_ICSD 56757
_audit_creation_date 2003-04-01
_chemical_name_systematic 'Lithium europium samarium oxide (2/1/4/8) - gamma'
_chemical_formula_structural 'Li2 Eu Sm4 O8'
_chemical_formula_sum 'Eu1 Li2 O8 Sm4'
_exptl_crystal_density_diffrn 7.32
_publ_section_title

;
Darstellung, Eigenschaften und Kristallstruktur von Li2 Eu Sm4 O8, einem neuen
Oxid des zweiwertigen Europiums
;
loop_
_citation_id
_citation_journal_full
_citation_year
_citation_journal_volume
_citation_page_first
_citation_page_last
_citation_journal_id_ASTM
primary 'Dissertation Universitaet Karlsruhe' 1990 1990 1 130 DIKARM
loop_
_publ_author_name
'Best, R.'
_cell_length_a 20.038(2)
_cell_length_b 17.302(2)
_cell_length_c 3.5640(1)
_cell_angle_alpha 90.
_cell_angle_beta 90.
_cell_angle_gamma 99.63(1)
_cell_volume 1218.22
_cell_formula_units_Z 6
_symmetry_space_group_name_H-M 'A 1 1 2/m'
_symmetry_Int_Tables_number 12
_refine_ls_R_factor_all 0.0239
loop_
_symmetry_equiv_pos_site_id
_symmetry_equiv_pos_as_xyz
1 'x, y, -z'
2 '-x, -y, -z'
3 '-x, -y, z'
4 'x, y, z'
5 'x, y+1/2, -z+1/2'
6 '-x, -y+1/2, -z+1/2'
7 '-x, -y+1/2, z+1/2'
8 'x, y+1/2, z+1/2'
loop_
_atom_type_symbol
_atom_type_oxidation_number
Eu2+ 2
Sm3+ 3
Li1+ 1
O2- -2
loop_
_atom_site_label
_atom_site_type_symbol
_atom_site_symmetry_multiplicity
_atom_site_Wyckoff_symbol
_atom_site_fract_x
_atom_site_fract_y
_atom_site_fract_z
_atom_site_B_iso_or_equiv
_atom_site_occupancy
_atom_site_attached_hydrogens
Eu1 Eu2+ 2 c 0.5 0 0 1.63(2) 1. 0
Eu2 Eu2+ 4 i 0.18129(1) 0.35274(2) 0 0.72(1) 1. 0
Sm1 Sm3+ 4 i 0.23371(1) 0.16042(2) 0 0.44(1) 1. 0
Sm2 Sm3+ 4 i 0.42582(1) 0.18690(2) 0 0.35(1) 1. 0
Sm3 Sm3+ 4 i 0.65757(1) 0.16545(2) 0 0.43(1) 1. 0
Sm4 Sm3+ 4 i 0.66919(1) 0.48272(2) 0 0.35(1) 1. 0
Sm5 Sm3+ 4 i 0.90539(1) 0.47587(2) 0 0.38(1) 1. 0
Sm6 Sm3+ 4 i 0.98466(1) 0.15591(2) 0 0.48(1) 1. 0
Li1 Li1+ 4 i 0.4645(5) 0.3542(7) 0 0.91(15) 1. 0
Li2 Li1+ 4 i 0.7917(5) 0.0052(7) 0 0.91(15) 1. 0
Li3 Li1+ 8 j 0.8858(9) 0.2952(10) 0.100(6) 1.87(30) 0.5 0
O1 O2- 4 i 0.0020(2) 0.4205(2) 0 0.65(6) 1. 0
O2 O2- 4 i 0.0641(2) 0.2742(3) 0 0.85(6) 1. 0
O3 O2- 4 i 0.1132(2) 0.1179(3) 0 1.04(6) 1. 0
O4 O2- 4 i 0.3295(2) 0.0972(2) 0 0.57(6) 1. 0
O5 O2- 4 i 0.3322(2) 0.2548(2) 0 0.70(6) 1. 0
O6 O2- 4 i 0.4018(2) 0.4224(2) 0 0.78(6) 1. 0
O7 O2- 4 i 0.5488(2) 0.2117(2) 0 0.64(6) 1. 0
O8 O2- 4 i 0.5548(2) 0.4013(2) 0 0.64(6) 1. 0
O9 O2- 4 i 0.7257(2) 0.0722(2) 0 0.69(6) 1. 0
O10 O2- 4 i 0.7832(2) 0.4432(2) 0 0.59(6) 1. 0
O11 O2- 4 i 0.7894(2) 0.2520(3) 0 0.82(6) 1. 0
O12 O2- 4 i 0.8779(2) 0.0667(2) 0 0.55(6) 1. 0
loop_
_atom_site_aniso_label
_atom_site_aniso_type_symbol
_atom_site_aniso_U_11
_atom_site_aniso_U_22
_atom_site_aniso_U_33
_atom_site_aniso_U_12
_atom_site_aniso_U_13
_atom_site_aniso_U_23
Eu1 Eu2+ 0.0134(2) 0.0126(2) 0.0364(3) 0.0030(1) 0 0
Eu2 Eu2+ 0.0080(1) 0.0108(1) 0.0088(1) 0.0026(1) 0 0
Sm1 Sm3+ 0.0053(1) 0.0045(1) 0.0065(1) 0.0001(1) 0 0
Sm2 Sm3+ 0.0037(1) 0.0042(1) 0.0051(1) 0.0003(1) 0 0
Sm3 Sm3+ 0.0070(1) 0.0050(1) 0.0049(1) 0.0029(1) 0 0
Sm4 Sm3+ 0.0047(1) 0.0040(1) 0.0046(1) 0.0006(1) 0 0
Sm5 Sm3+ 0.0034(1) 0.0051(1) 0.0060(1) -0.0003(1) 0 0
Sm6 Sm3+ 0.0089(1) 0.0045(1) 0.0046(1) 0.0005(1) 0 0
O1 O2- 0.0050(14) 0.0073(16) 0.0121(21) 0.0005(12) 0 0
O2 O2- 0.0117(16) 0.0094(17) 0.0108(21) 0.0004(13) 0 0
O3 O2- 0.0123(17) 0.0153(20) 0.0116(22) 0.0019(14) 0 0
O4 O2- 0.0081(15) 0.0066(16) 0.0068(19) 0.0010(12) 0 0
O5 O2- 0.0092(15) 0.0071(16) 0.0093(20) -0.0017(12) 0 0
O6 O2- 0.0066(15) 0.0077(16) 0.0149(22) 0.0001(12) 0 0
O7 O2- 0.0058(14) 0.0090(17) 0.0098(21) 0.0016(12) 0 0
O8 O2- 0.0095(15) 0.0068(16) 0.0075(19) 0.0005(12) 0 0
O9 O2- 0.0055(14) 0.0096(17) 0.0122(21) 0.0038(12) 0 0
O10 O2- 0.0041(14) 0.0104(17) 0.0077(19) 0.0007(12) 0 0
O11 O2- 0.0113(16) 0.0110(18) 0.0091(21) 0.0027(13) 0 0
O12 O2- 0.0054(14) 0.0078(16) 0.0073(19) 0.0001(12) 0 0
#End of TTdata_56757-ICSD