
#(C) 2018 by FIZ Karlsruhe - Leibniz Institute for Information Infrastructure.  All rights reserved.
data_56760-ICSD
_database_code_ICSD 56760
_audit_creation_date 2003-04-01
_chemical_name_systematic 'Lithium europium(II) samarium oxide (1/2/1/4)'
_chemical_formula_structural 'Li Eu2 Sm O4'
_chemical_formula_sum 'Eu2 Li1 O4 Sm1'
_exptl_crystal_density_diffrn 7.47
_publ_section_title

;
Quaternaere Oxide der Formeltypen Li M Ln O3 und Li M2 Ln O4 (M=Sr und Eu(II))
;
loop_
_citation_id
_citation_journal_full
_citation_year
_citation_journal_volume
_citation_page_first
_citation_page_last
_citation_journal_id_ASTM
primary 'Dissertation Universitaet Karlsruhe' 1987 1987 1 89 DIKARM
loop_
_publ_author_name
'Stueber, W.'
_cell_length_a 11.605(3)
_cell_length_b 11.534(3)
_cell_length_c 3.491(1)
_cell_angle_alpha 90.
_cell_angle_beta 90.
_cell_angle_gamma 90.
_cell_volume 467.28
_cell_formula_units_Z 4
_symmetry_space_group_name_H-M 'P b n m'
_symmetry_Int_Tables_number 62
_refine_ls_R_factor_all 0.039
loop_
_symmetry_equiv_pos_site_id
_symmetry_equiv_pos_as_xyz
1 '-x+1/2, y+1/2, z'
2 'x, y, -z+1/2'
3 'x+1/2, -y+1/2, z+1/2'
4 '-x, -y, -z'
5 'x+1/2, -y+1/2, -z'
6 '-x, -y, z+1/2'
7 '-x+1/2, y+1/2, -z+1/2'
8 'x, y, z'
loop_
_atom_type_symbol
_atom_type_oxidation_number
Li1+ 1
Sm3+ 3
Eu2+ 2
O2- -2
loop_
_atom_site_label
_atom_site_type_symbol
_atom_site_symmetry_multiplicity
_atom_site_Wyckoff_symbol
_atom_site_fract_x
_atom_site_fract_y
_atom_site_fract_z
_atom_site_B_iso_or_equiv
_atom_site_occupancy
_atom_site_attached_hydrogens
Li1 Li1+ 4 c 0.9104(6) 0.1534(6) 0.25 . 1. 0
Sm1 Sm3+ 4 c 0.20377(1) 0.35929(1) 0.25 . 1. 0
Eu1 Eu2+ 4 c 0.61443(2) 0.40187(1) 0.25 . 1. 0
Eu2 Eu2+ 4 c 0.42491(1) 0.13567(1) 0.25 . 1. 0
O1 O2- 4 c 0.0437(2) 0.2428(2) 0.25 . 1. 0
O2 O2- 4 c 0.3908(3) 0.4397(2) 0.25 . 1. 0
O3 O2- 4 c 0.6280(3) 0.0259(2) 0.25 . 1. 0
O4 O2- 4 c 0.7796(2) 0.2594(2) 0.25 . 1. 0
loop_
_atom_site_aniso_label
_atom_site_aniso_type_symbol
_atom_site_aniso_U_11
_atom_site_aniso_U_22
_atom_site_aniso_U_33
_atom_site_aniso_U_12
_atom_site_aniso_U_13
_atom_site_aniso_U_23
Li1 Li1+ 0.0170(32) 0.0065(26) 0.0120(34) -0.0012(22) 0 0
Sm1 Sm3+ 0.00451(6) 0.00464(6) 0.00604(7) -0.00050(5) 0 0
Eu1 Eu2+ 0.00941(6) 0.00618(6) 0.00737(7) 0.00103(5) 0 0
Eu2 Eu2+ 0.00673(6) 0.00674(6) 0.00840(8) -0.00052(5) 0 0
O1 O2- 0.0074(10) 0.0093(10) 0.0097(13) -0.0013(8) 0 0
O2 O2- 0.0103(10) 0.0119(11) 0.0105(13) -0.0025(9) 0 0
O3 O2- 0.0163(12) 0.0074(10) 0.0107(13) -0.0035(8) 0 0
O4 O2- 0.0088(10) 0.0078(10) 0.0090(12) -0.0011(8) 0 0
#End of TTdata_56760-ICSD