
#(C) 2018 by FIZ Karlsruhe - Leibniz Institute for Information Infrastructure.  All rights reserved.
data_56831-ICSD
_database_code_ICSD 56831
_audit_creation_date 2003-04-01
_audit_update_record 2012-02-01
_chemical_name_systematic 'Lithium europium oxide (2/5/8) - alpha'
_chemical_formula_structural 'Li2 Eu5 O8'
_chemical_formula_sum 'Eu5 Li2 O8'
_chemical_name_structure_type Li2Eu5O8
_exptl_crystal_density_diffrn 7.51
_publ_section_title

;
The crystal structures of the modifications of the new Eu(II)-
Eu(III)-compound Li2 Eu5 O8 and the crystal data of the isostructural
compounds Li2 Sr Eu4 O8 and Li2 Ba Eu4 O8
;
loop_
_citation_id
_citation_journal_full
_citation_year
_citation_journal_volume
_citation_page_first
_citation_page_last
_citation_journal_id_ASTM
primary 'Rare Earths in Modern Science and Technology' 1973 10 490 499 41VWAS
loop_
_publ_author_name
'Baernighausen, H.'
'Schuster, R.'
'Vogt, K.'
_cell_length_a 13.387(5)
_cell_length_b 9.666(3)
_cell_length_c 3.539(1)
_cell_angle_alpha 90.
_cell_angle_beta 90.
_cell_angle_gamma 119.52(2)
_cell_volume 398.49
_cell_formula_units_Z 2
_symmetry_space_group_name_H-M 'B 1 1 2/m'
_symmetry_Int_Tables_number 12
_refine_ls_R_factor_all 0.039
loop_
_symmetry_equiv_pos_site_id
_symmetry_equiv_pos_as_xyz
1 '-x, -y, z'
2 '-x, -y, -z'
3 'x, y, -z'
4 'x, y, z'
5 '-x+1/2, -y, z+1/2'
6 '-x+1/2, -y, -z+1/2'
7 'x+1/2, y, -z+1/2'
8 'x+1/2, y, z+1/2'
loop_
_atom_type_symbol
_atom_type_oxidation_number
Eu2+ 2
Eu3+ 3
Li1+ 1
O2- -2
loop_
_atom_site_label
_atom_site_type_symbol
_atom_site_symmetry_multiplicity
_atom_site_Wyckoff_symbol
_atom_site_fract_x
_atom_site_fract_y
_atom_site_fract_z
_atom_site_B_iso_or_equiv
_atom_site_occupancy
_atom_site_attached_hydrogens
Eu1 Eu2+ 2 b 0.5 0 0 1.39(3) 1. 0
Eu2 Eu3+ 4 i 0.61028(1) 0.43727(2) 0 0.34(1) 1. 0
Eu3 Eu3+ 4 i 0.66361(1) 0.81358(2) 0.5 0.36(1) 1. 0
Li1 Li1+ 4 i 0.6913(9) 0.2622(14) 0.5 1.4(2) 1. 0
O1 O2- 4 i 0.5417(2) 0.2422(4) 0.5 0.80(4) 1. 0
O2 O2- 4 i 0.7362(2) 0.6195(3) 0.5 0.67(3) 1. 0
O3 O2- 4 i 0.8148(3) 0.9360(4) 0 0.77(4) 1. 0
O4 O2- 4 i 0.5819(2) 0.6556(3) 0 0.59(3) 1. 0
loop_
_atom_site_aniso_label
_atom_site_aniso_type_symbol
_atom_site_aniso_beta_11
_atom_site_aniso_beta_22
_atom_site_aniso_beta_33
_atom_site_aniso_beta_12
_atom_site_aniso_beta_13
_atom_site_aniso_beta_23
Eu1 Eu2+ 0.00243(2) 0.00302(3) 0.03983(66) 0.00135(2) 0 0
Eu2 Eu3+ 0.00059(1) 0.00131(2) 0.00693(41) 0.00047(1) 0 0
Eu3 Eu3+ 0.00081(1) 0.00118(2) 0.00569(42) 0.00044(1) 0 0
#End of TTdata_56831-ICSD