
#(C) 2018 by FIZ Karlsruhe - Leibniz Institute for Information Infrastructure.  All rights reserved.
data_59305-ICSD
_database_code_ICSD 59305
_audit_creation_date 1999-01-19
_audit_update_record 2006-04-01
_chemical_name_systematic 'Dilithium hexavanadium(IV) oxide'
_chemical_formula_structural 'Li2 V6 O13'
_chemical_formula_sum 'Li2 O13 V6'
_exptl_crystal_density_diffrn 3.76
_publ_section_title 'Electrochemically lithiated vanadium oxide, Li2 V6 O13'
loop_
_citation_id
_citation_journal_full
_citation_year
_citation_journal_volume
_citation_page_first
_citation_page_last
_citation_journal_id_ASTM
primary 'Acta Crystallographica, Section C: Crystal Structure Communications'
1997 53 528 530 ACSCEE
loop_
_publ_author_name
'Bergstroem, O.'
'Gustafsson, T.'
'Thomas, J.O.'
_cell_length_a 11.857(6)
_cell_length_b 3.660(2)
_cell_length_c 10.909(6)
_cell_angle_alpha 90.
_cell_angle_beta 100.43(4)
_cell_angle_gamma 90.
_cell_volume 465.59
_cell_formula_units_Z 2
_symmetry_space_group_name_H-M 'C 1 2/m 1'
_symmetry_Int_Tables_number 12
_refine_ls_R_factor_all 0.04
loop_
_symmetry_equiv_pos_site_id
_symmetry_equiv_pos_as_xyz
1 '-x, y, -z'
2 '-x, -y, -z'
3 'x, -y, z'
4 'x, y, z'
5 '-x+1/2, y+1/2, -z'
6 '-x+1/2, -y+1/2, -z'
7 'x+1/2, -y+1/2, z'
8 'x+1/2, y+1/2, z'
loop_
_atom_type_symbol
_atom_type_oxidation_number
V4+ 4
O2- -2
Li1+ 1
loop_
_atom_site_label
_atom_site_type_symbol
_atom_site_symmetry_multiplicity
_atom_site_Wyckoff_symbol
_atom_site_fract_x
_atom_site_fract_y
_atom_site_fract_z
_atom_site_B_iso_or_equiv
_atom_site_occupancy
_atom_site_attached_hydrogens
V1 V4+ 4 i 0.35436(1) 0 0.04678(1) . 1. 0
V2 V4+ 4 i 0.40922(1) 0 0.39463(1) . 1. 0
V3 V4+ 4 i 0.70902(1) 0 0.36350(1) . 1. 0
O1 O2- 4 i 0.18027(5) 0 0.00799(5) . 1. 0
O2 O2- 4 i 0.87936(5) 0 0.37472(5) . 1. 0
O3 O2- 4 i 0.23984(5) 0 0.40683(6) . 1. 0
O4 O2- 2 b 0.5 0 0 . 1. 0
O5 O2- 4 i 0.39003(6) 0 0.19866(5) . 1. 0
O6 O2- 4 i 0.65783(6) 0 0.21349(6) . 1. 0
O7 O2- 4 i 0.56855(5) 0 0.42661(5) . 1. 0
Li1 Li1+ 4 i 0.0855(3) 0 0.1368(3) . 1. 0
loop_
_atom_site_aniso_label
_atom_site_aniso_type_symbol
_atom_site_aniso_U_11
_atom_site_aniso_U_22
_atom_site_aniso_U_33
_atom_site_aniso_U_12
_atom_site_aniso_U_13
_atom_site_aniso_U_23
V1 V4+ 0.00506(4) 0.00451(4) 0.00635(4) 0 0.00002(3) 0
V2 V4+ 0.00422(4) 0.00452(4) 0.00793(4) 0 0.00108(3) 0
V3 V4+ 0.00443(4) 0.00450(4) 0.00774(4) 0 0.00069(4) 0
O1 O2- 0.0064(2) 0.0056(2) 0.0100(2) 0 0.0010(2) 0
O2 O2- 0.0063(2) 0.0053(2) 0.0110(2) 0 0.0016(2) 0
O3 O2- 0.0062(2) 0.0046(2) 0.0181(3) 0 0.0037(2) 0
O4 O2- 0.0066(3) 0.0160(4) 0.0110(3) 0 0.0023(2) 0
O5 O2- 0.0140(2) 0.0132(2) 0.0072(2) 0 0.0021(2) 0
O6 O2- 0.0122(2) 0.0175(3) 0.0091(2) 0 0.0004(2) 0
O7 O2- 0.0047(2) 0.0091(2) 0.0073(2) 0 0.0012(2) 0
Li1 Li1+ 0.046(2) 0.041(2) 0.031(2) 0 0.027(2) 0
#End of TTdata_59305-ICSD