
#(C) 2018 by FIZ Karlsruhe - Leibniz Institute for Information Infrastructure.  All rights reserved.
data_59346-ICSD
_database_code_ICSD 59346
_audit_creation_date 1999-06-02
_audit_update_record 2012-02-01
_chemical_name_systematic 'Lithium cobalt borate'
_chemical_formula_structural 'Li Co (B O3)'
_chemical_formula_sum 'B1 Co1 Li1 O3'
_chemical_name_structure_type LiCoBO3
_exptl_crystal_density_diffrn 3.62
_publ_section_title 'Cobalt lithium orthoborate, Li Co B O3'
loop_
_citation_id
_citation_journal_full
_citation_year
_citation_journal_volume
_citation_page_first
_citation_page_last
_citation_journal_id_ASTM
primary 'Acta Crystallographica, Section C: Crystal Structure Communications'
1998 54 1561 1563 ACSCEE
loop_
_publ_author_name
'Piffard, Y.'
'Rangan, K.K.'
'An, Y.'
'Guyomard, D.'
'Tournoux, M.'
_cell_length_a 5.129(1)
_cell_length_b 8.840(2)
_cell_length_c 10.100(2)
_cell_angle_alpha 90.
_cell_angle_beta 91.36(3)
_cell_angle_gamma 90.
_cell_volume 457.81
_cell_formula_units_Z 8
_symmetry_space_group_name_H-M 'C 1 2/c 1'
_symmetry_Int_Tables_number 15
_refine_ls_R_factor_all 0.033
loop_
_symmetry_equiv_pos_site_id
_symmetry_equiv_pos_as_xyz
1 'x, -y, z+1/2'
2 '-x, -y, -z'
3 '-x, y, -z+1/2'
4 'x, y, z'
5 'x+1/2, -y+1/2, z+1/2'
6 '-x+1/2, -y+1/2, -z'
7 '-x+1/2, y+1/2, -z+1/2'
8 'x+1/2, y+1/2, z'
loop_
_atom_type_symbol
_atom_type_oxidation_number
Co2+ 2
Li1+ 1
B3+ 3
O2- -2
loop_
_atom_site_label
_atom_site_type_symbol
_atom_site_symmetry_multiplicity
_atom_site_Wyckoff_symbol
_atom_site_fract_x
_atom_site_fract_y
_atom_site_fract_z
_atom_site_B_iso_or_equiv
_atom_site_occupancy
_atom_site_attached_hydrogens
Co1 Co2+ 8 f 0.1657(6) 0.1673(4) 0.1325(9) 0.0066(2) 0.56(5) 0
Co2 Co2+ 8 f 0.1547(8) 0.1645(5) 0.1136(9) 0.0066(2) 0.44(5) 0
Li1 Li1+ 8 f 0.661(3) 0.003(3) 0.088(3) 0.017(2) 0.48(2) 0
Li2 Li1+ 8 f 0.663(3) -.005(3) 0.157(2) 0.017(2) 0.52(2) 0
B1 B3+ 8 f 0.1642(9) -.1684(8) 0.1258(5) 0.0073(7) 1. 0
O1 O2- 8 f 0.4026(5) 0.3356(4) 0.0913(3) . 1. 0
O2 O2- 8 f -.2167(5) 0.1944(3) 0.1587(3) . 1. 0
O3 O2- 8 f 0.3088(6) -.0389(3) 0.1266(4) . 1. 0
loop_
_atom_site_aniso_label
_atom_site_aniso_type_symbol
_atom_site_aniso_U_11
_atom_site_aniso_U_22
_atom_site_aniso_U_33
_atom_site_aniso_U_12
_atom_site_aniso_U_13
_atom_site_aniso_U_23
O1 O2- 0.0076(12) 0.0102(12) 0.0082(14) 0.0001(13) -.0009(11) 0.0009(14)
O2 O2- 0.0065(13) 0.006(2) 0.010(2) 0.0002(10) -.0019(12) 0.0004(12)
O3 O2- 0.0059(13) 0.006(2) 0.040(2) 0.0001(12) -.0031(15) 0.000(2)
#End of TTdata_59346-ICSD