
#(C) 2018 by FIZ Karlsruhe - Leibniz Institute for Information Infrastructure.  All rights reserved.
data_59640-ICSD
_database_code_ICSD 59640
_audit_creation_date 2005-04-01
_audit_update_record 2006-04-01
_chemical_name_systematic 'Tetralithium zinc bis(phosphate(V)) - alpha'
_chemical_formula_structural 'Li4 Zn (P O4)2'
_chemical_formula_sum 'Li4 O8 P2 Zn1'
_exptl_crystal_density_diffrn 2.89
_publ_section_title

;
Hydrothermal synthesis of lithium zinc phosphates: structural investigation of
twinned alpha-Li4 Zn (P O4)2 and a high temperature polymorph beta-Li4 Zn (P
O4)2
;
loop_
_citation_id
_citation_journal_full
_citation_year
_citation_journal_volume
_citation_page_first
_citation_page_last
_citation_journal_id_ASTM
primary 'Journal of Solid State Chemistry' 2002 166 341 351 JSSCBI
loop_
_publ_author_name
'Jensen, T.R.'
'Hazell, R.G.'
'Christensen, A.N.'
'Hanson, J.C.'
_cell_length_a 8.096(2)
_cell_length_b 10.242(2)
_cell_length_c 8.106(2)
_cell_angle_alpha 90
_cell_angle_beta 104.73(3)
_cell_angle_gamma 90
_cell_volume 650.05
_cell_formula_units_Z 4
_symmetry_space_group_name_H-M 'P 1 21/a 1'
_symmetry_Int_Tables_number 14
_refine_ls_R_factor_all 0.042
loop_
_symmetry_equiv_pos_site_id
_symmetry_equiv_pos_as_xyz
1 'x+1/2, -y+1/2, z'
2 '-x, -y, -z'
3 '-x+1/2, y+1/2, -z'
4 'x, y, z'
loop_
_atom_type_symbol
_atom_type_oxidation_number
Zn2+ 2
P5+ 5
O2- -2
Li1+ 1
loop_
_atom_site_label
_atom_site_type_symbol
_atom_site_symmetry_multiplicity
_atom_site_Wyckoff_symbol
_atom_site_fract_x
_atom_site_fract_y
_atom_site_fract_z
_atom_site_B_iso_or_equiv
_atom_site_occupancy
_atom_site_attached_hydrogens
Zn1 Zn2+ 4 e -.4101(3) .6566(2) .0907(3) .006(1) 1. 0
P1 P5+ 4 e -.4711(6) .4085(5) .2888(6) .004(3) 1. 0
P2 P5+ 4 e -.5343(6) .9078(5) .2301(6) .003(3) 1. 0
O1 O2- 4 e -.625(2) .348(1) .344(2) .007(7) 1. 0
O2 O2- 4 e -.317(1) .400(1) .442(2) .001(7) 1. 0
O3 O2- 4 e -.443(2) .335(1) .133(2) .015(8) 1. 0
O4 O2- 4 e -.506(2) .555(1) .242(2) .009(8) 1. 0
O5 O2- 4 e -.587(2) .842(1) .385(2) .004(7) 1. 0
O6 O2- 4 e -.684(2) .900(1) .067(2) .005(7) 1. 0
O7 O2- 4 e -.387(2) .834(1) .191(2) .011(8) 1. 0
O8 O2- 4 e -.482(2) .052(1) .274(2) .013(8) 1. 0
Li1 Li1+ 4 e -.646(5) .855(4) .862(5) .063(14) 1. 0
Li2 Li1+ 4 e -.411(8) .826(6) .602(7) .034(11) 1. 0
Li3 Li1+ 4 e -.734(5) .929(4) .524(5) .023(8) 1. 0
Li4 Li1+ 4 e -.655(6) .668(5) .358(6) .018(8) 1. 0
#End of TTdata_59640-ICSD