
#(C) 2018 by FIZ Karlsruhe - Leibniz Institute for Information Infrastructure.  All rights reserved.
data_59647-ICSD
_database_code_ICSD 59647
_audit_creation_date 2005-04-01
_chemical_name_systematic 'Lanthanum lithium titanium oxide (0.62/0.16/1/3)'
_chemical_formula_structural '(La0.62 Li0.16) (Ti O3)'
_chemical_formula_sum 'La0.62 Li0.16 O3 Ti1'
_exptl_crystal_density_diffrn 5.23
_cell_measurement_temperature 77.
_publ_section_title

;
Crystal structure of a lithium ion-conducting perovskite La(2/3-x) Li(3x) Ti
O3 (x = 0.05)
;
loop_
_citation_id
_citation_journal_full
_citation_year
_citation_journal_volume
_citation_page_first
_citation_page_last
_citation_journal_id_ASTM
primary 'Journal of Solid State Chemistry' 2002 166 67 72 JSSCBI
loop_
_publ_author_name
'Inaguma, Y.'
'Katsumata, T.'
'Itoh, M.'
'Morii, Y.'
_cell_length_a 7.7224(1)
_cell_length_b 7.7448(1)
_cell_length_c 7.7735(1)
_cell_angle_alpha 90
_cell_angle_beta 90.
_cell_angle_gamma 90.
_cell_volume 464.92
_cell_formula_units_Z 8
_symmetry_space_group_name_H-M 'C m m m'
_symmetry_Int_Tables_number 65
_refine_ls_R_factor_all 0.0434
loop_
_symmetry_equiv_pos_site_id
_symmetry_equiv_pos_as_xyz
1 'x, -y, z'
2 '-x, y, z'
3 'x, y, -z'
4 '-x, -y, -z'
5 '-x, y, -z'
6 'x, -y, -z'
7 '-x, -y, z'
8 'x, y, z'
9 'x+1/2, -y+1/2, z'
10 '-x+1/2, y+1/2, z'
11 'x+1/2, y+1/2, -z'
12 '-x+1/2, -y+1/2, -z'
13 '-x+1/2, y+1/2, -z'
14 'x+1/2, -y+1/2, -z'
15 '-x+1/2, -y+1/2, z'
16 'x+1/2, y+1/2, z'
loop_
_atom_type_symbol
_atom_type_oxidation_number
La3+ 3
Li1+ 1
Ti4+ 4
O2- -2
loop_
_atom_site_label
_atom_site_type_symbol
_atom_site_symmetry_multiplicity
_atom_site_Wyckoff_symbol
_atom_site_fract_x
_atom_site_fract_y
_atom_site_fract_z
_atom_site_B_iso_or_equiv
_atom_site_occupancy
_atom_site_attached_hydrogens
La1 La3+ 4 i 0 .2523(7) 0 .45(4) .939 0
La2 La3+ 4 j 0 .255(2) .5 .90(14) .301(4) 0
Li1 Li1+ 8 n 0 .283 .198 3.7 .013 0
Li2 Li1+ 8 n 0 .217(8) .302(6) 3.7(12) .147 0
Ti1 Ti4+ 8 o .2500(12) 0 .2593(4) .64(5) 1. 0
O1 O2- 4 g .2729(7) 0 0 1.27(8) 1. 0
O2 O2- 4 k 0 0 .2119(5) .98(9) 1. 0
O3 O2- 4 l 0 .5 .2603(5) .95(9) 1. 0
O4 O2- 8 m .25 .25 .2340(4) 1.09(6) 1. 0
O5 O2- 4 h .2321(7) 0 .5 1.30(8) 1. 0
#End of TTdata_59647-ICSD