
#(C) 2018 by FIZ Karlsruhe - Leibniz Institute for Information Infrastructure.  All rights reserved.
data_59742-ICSD
_database_code_ICSD 59742
_audit_creation_date 2005-04-01
_chemical_name_systematic 'Lithium magnesium copper oxide (0.06/0.8/2.14/3)'
_chemical_formula_structural 'Li0.06 Mg0.797 Cu2.143 O3'
_chemical_formula_sum 'Cu2.143 Li0.06 Mg0.797 O3'
_chemical_name_structure_type MgCu2O3
_exptl_crystal_density_diffrn 5.69
_publ_section_title

;
Synthesis, crystal structure and physical properties of Li(x) Mg(0.857-x)
Cu2.143 O(3-y)
;
loop_
_citation_id
_citation_journal_full
_citation_year
_citation_journal_volume
_citation_page_first
_citation_page_last
_citation_journal_id_ASTM
primary 'Journal of Solid State Chemistry' 2002 168 85 90 JSSCBI
loop_
_publ_author_name
'Tsuchiya, Y.'
'Oh-Ishi, K.'
_cell_length_a 3.9858(1)
_cell_length_b 9.3462(2)
_cell_length_c 3.1938(1)
_cell_angle_alpha 90.
_cell_angle_beta 90.
_cell_angle_gamma 90.
_cell_volume 118.98
_cell_formula_units_Z 2
_symmetry_space_group_name_H-M 'P m m n Z'
_symmetry_Int_Tables_number 59
_refine_ls_R_factor_all 0.0262
loop_
_symmetry_equiv_pos_site_id
_symmetry_equiv_pos_as_xyz
1 'x+1/2, y+1/2, -z'
2 '-x, y+1/2, -z'
3 'x+1/2, -y, -z'
4 '-x, -y, -z'
5 '-x+1/2, -y+1/2, z'
6 'x, -y+1/2, z'
7 '-x+1/2, y, z'
8 'x, y, z'
loop_
_atom_type_symbol
_atom_type_oxidation_number
Cu2+ 2
Li1+ 1
Cu2+ 2
Mg2+ 2
O2- -2
loop_
_atom_site_label
_atom_site_type_symbol
_atom_site_symmetry_multiplicity
_atom_site_Wyckoff_symbol
_atom_site_fract_x
_atom_site_fract_y
_atom_site_fract_z
_atom_site_B_iso_or_equiv
_atom_site_occupancy
_atom_site_attached_hydrogens
Cu1 Cu2+ 4 e .25 .0868 .01799(3) .56(3) .97 0
Li1 Li1+ 4 e .25 .0868 .01799(3) .56(3) .03 0
Cu2 Cu2+ 2 b .25 .75 .3650(7) .56 .203 0
Mg1 Mg2+ 2 b .25 .75 .3650(7) .56 .797 0
O1 O2- 4 e .25 .5961(5) .866(1) 1.11(8) 1. 0
O2 O2- 2 a .25 .25 .566(1) 1.11 1. 0
#End of TTdata_59742-ICSD