
#(C) 2018 by FIZ Karlsruhe - Leibniz Institute for Information Infrastructure.  All rights reserved.
data_59822-ICSD
_database_code_ICSD 59822
_audit_creation_date 2005-10-01
_chemical_name_systematic 'Lithium molybdyl arsenate - beta'
_chemical_formula_structural 'Li Mo O2 (As O4)'
_chemical_formula_sum 'As1 Li1 Mo1 O6'
_exptl_crystal_density_diffrn 4.04
_cell_measurement_temperature 298.
_publ_section_title 'beta-Li Mo O2 (As O4)'
loop_
_citation_id
_citation_journal_full
_citation_year
_citation_journal_volume
_citation_page_first
_citation_page_last
_citation_journal_id_ASTM
primary 'Acta Crystallographica, Section C: Crystal Structure Communications'
2004 60 i76 i78 ACSCEE
loop_
_publ_author_name
'Hajji, M.'
'Zid, M.F.'
'Driss, A.'
'Jouini, T.'
_cell_length_a 5.1173(7)
_cell_length_b 8.561(2)
_cell_length_c 10.3090(10)
_cell_angle_alpha 90.
_cell_angle_beta 94.630(10)
_cell_angle_gamma 90.
_cell_volume 450.16
_cell_formula_units_Z 4
_symmetry_space_group_name_H-M 'P 1 21 1'
_symmetry_Int_Tables_number 4
_refine_ls_R_factor_all 0.0274
loop_
_symmetry_equiv_pos_site_id
_symmetry_equiv_pos_as_xyz
1 '-x, y+1/2, -z'
2 'x, y, z'
loop_
_atom_type_symbol
_atom_type_oxidation_number
As5+ 5
Mo6+ 6
Li1+ 1
O2- -2
loop_
_atom_site_label
_atom_site_type_symbol
_atom_site_symmetry_multiplicity
_atom_site_Wyckoff_symbol
_atom_site_fract_x
_atom_site_fract_y
_atom_site_fract_z
_atom_site_B_iso_or_equiv
_atom_site_occupancy
_atom_site_attached_hydrogens
As1 As5+ 2 a 0.61780(10) 0.07722(9) 0.53570(6) 0.0065(2) 1 0
As2 As5+ 2 a 1.15790(10) 0.19749(8) 0.89227(6) 0.0061(2) 1 0
Mo1 Mo6+ 2 a 0.67830(10) -0.06862(7) 0.84352(5) 0.00710(10) 1 0
Mo2 Mo6+ 2 a 0.88490(10) 0.42031(7) 0.66522(5) 0.00740(10) 1 0
Li1 Li1+ 2 a 0.321(3) -0.409(2) 0.904(2) 0.026(4) 1 0
Li2 Li1+ 2 a 0.955(3) -0.231(2) 0.605(2) 0.024(3) 1 0
O1 O2- 2 a 0.8199(9) -0.0645(8) 0.4926(5) 0.0123(9) 1 0
O2 O2- 2 a 0.7550(10) 0.2552(6) 0.5163(5) 0.0100(10) 1 0
O3 O2- 2 a 0.5450(10) 0.0547(7) 0.6924(5) 0.0120(10) 1 0
O4 O2- 2 a 0.3200(10) 0.0793(7) 0.4487(5) 0.0110(10) 1 0
O5 O2- 2 a 0.8699(9) 0.1357(7) 0.9379(5) 0.0101(9) 1 0
O6 O2- 2 a 1.3880(10) 0.0628(7) 0.9319(5) 0.0110(10) 1 0
O7 O2- 2 a 1.1130(10) 0.2453(6) 0.7321(5) 0.0090(10) 1 0
O8 O2- 2 a 1.2330(10) 0.3684(7) 0.9684(5) 0.0110(10) 1 0
O9 O2- 2 a 0.5020(10) -0.2377(7) 0.8179(5) 0.0140(10) 1 0
O10 O2- 2 a 0.9630(10) -0.1131(7) 0.7745(5) 0.0160(10) 1 0
O11 O2- 2 a 0.6430(10) 0.3950(7) 0.7670(6) 0.0160(10) 1 0
O12 O2- 2 a 1.0690(10) 0.5691(7) 0.7368(5) 0.0150(10) 1 0
loop_
_atom_site_aniso_label
_atom_site_aniso_type_symbol
_atom_site_aniso_U_11
_atom_site_aniso_U_22
_atom_site_aniso_U_33
_atom_site_aniso_U_12
_atom_site_aniso_U_13
_atom_site_aniso_U_23
As1 As5+ 0.0078(3) 0.0067(3) 0.0051(3) -0.0003(2) 0.0017(2) -0.0003(2)
As2 As5+ 0.0065(3) 0.0064(3) 0.0054(3) 0.0004(2) 0.0011(2) -0.0003(2)
Mo1 Mo6+ 0.0084(2) 0.0075(3) 0.0056(2) 0.0003(2) 0.0016(2) -0.0004(2)
Mo2 Mo6+ 0.0087(2) 0.0077(3) 0.0058(2) -0.0001(2) 0.0006(2) 0.0000(2)
Li1 Li1+ 0.035(9) 0.023(8) 0.019(7) -0.018(7) -0.002(6) 0.008(7)
Li2 Li1+ 0.027(8) 0.009(6) 0.037(9) 0.007(6) 0.013(6) 0.005(6)
O1 O2- 0.010(2) 0.017(3) 0.010(2) 0.008(2) 0.003(2) -0.002(2)
O2 O2- 0.013(2) 0.008(2) 0.008(2) -0.004(2) 0.000(2) 0.002(2)
O3 O2- 0.013(2) 0.017(3) 0.005(2) 0.002(2) 0.002(2) 0.004(2)
O4 O2- 0.007(2) 0.013(2) 0.011(2) 0.000(2) -0.003(2) -0.001(2)
O5 O2- 0.007(2) 0.011(2) 0.012(2) -0.001(2) 0.000(2) -0.003(2)
O6 O2- 0.009(2) 0.014(3) 0.009(2) 0.003(2) -0.002(2) 0.001(2)
O7 O2- 0.013(2) 0.008(2) 0.006(2) 0.004(2) 0.001(2) 0.003(2)
O8 O2- 0.021(2) 0.006(2) 0.007(2) -0.003(2) 0.002(2) -0.002(2)
O9 O2- 0.013(2) 0.016(3) 0.013(2) -0.002(2) -0.002(2) -0.001(2)
O10 O2- 0.013(2) 0.024(3) 0.010(2) 0.005(2) 0.003(2) 0.003(2)
O11 O2- 0.017(2) 0.018(3) 0.016(2) 0.004(2) 0.007(2) 0.004(2)
O12 O2- 0.014(2) 0.016(3) 0.015(2) 0.000(2) -0.004(2) -0.001(2)
#End of TTdata_59822-ICSD