
#(C) 2018 by FIZ Karlsruhe - Leibniz Institute for Information Infrastructure.  All rights reserved.
data_59852-ICSD
_database_code_ICSD 59852
_audit_creation_date 2005-10-01
_audit_update_record 2010-02-01
_chemical_name_systematic 'Lithium ytterbium tetrakis(phosphate(V))'
_chemical_formula_structural 'Li Yb (P O3)4'
_chemical_formula_sum 'Li1 O12 P4 Yb1'
_chemical_name_structure_type LiYb(PO3)4
_exptl_crystal_density_diffrn 3.76
_publ_section_title 'Li Yb (P O3)4'
loop_
_citation_id
_citation_journal_full
_citation_year
_citation_journal_volume
_citation_page_first
_citation_page_last
_citation_journal_id_ASTM
primary 'Acta Crystallographica, Section E: Structure Reports Online' 2004 60
i102 i104 ACSEBH
loop_
_publ_author_name
'Zarakouna, E.B.'
'Driss, A.'
_cell_length_a 16.194(3)
_cell_length_b 7.0240(10)
_cell_length_c 9.498(2)
_cell_angle_alpha 90.
_cell_angle_beta 125.910(10)
_cell_angle_gamma 90.
_cell_volume 875.03
_cell_formula_units_Z 4
_symmetry_space_group_name_H-M 'C 1 2/c 1'
_symmetry_Int_Tables_number 15
_refine_ls_R_factor_all 0.018
loop_
_symmetry_equiv_pos_site_id
_symmetry_equiv_pos_as_xyz
1 'x, -y, z+1/2'
2 '-x, -y, -z'
3 '-x, y, -z+1/2'
4 'x, y, z'
5 'x+1/2, -y+1/2, z+1/2'
6 '-x+1/2, -y+1/2, -z'
7 '-x+1/2, y+1/2, -z+1/2'
8 'x+1/2, y+1/2, z'
loop_
_atom_type_symbol
_atom_type_oxidation_number
Li1+ 1
Yb3+ 3
P5+ 5
O2- -2
loop_
_atom_site_label
_atom_site_type_symbol
_atom_site_symmetry_multiplicity
_atom_site_Wyckoff_symbol
_atom_site_fract_x
_atom_site_fract_y
_atom_site_fract_z
_atom_site_B_iso_or_equiv
_atom_site_occupancy
_atom_site_attached_hydrogens
Li1 Li1+ 4 e 1. 0.294(2) 0.75 0.015(2) 1 0
Yb1 Yb3+ 4 e 0. 0.20382(3) 0.25 0.00500(10) 1 0
P1 P5+ 8 f 0.13736(8) 0.44970(10) 0.11650(10) 0.0049(2) 1 0
P2 P5+ 8 f 0.85435(8) 0.1483(2) 0.80600(10) 0.0049(2) 1 0
O1 O2- 8 f 0.1127(2) 0.2852(4) 0.1851(4) 0.0105(6) 1 0
O2 O2- 8 f 0.9304(2) 0.0808(4) 0.7772(4) 0.0086(6) 1 0
O3 O2- 8 f 0.8721(2) 0.1164(5) 0.9765(4) 0.0096(6) 1 0
O4 O2- 8 f 0.8442(2) 0.3717(4) 0.7656(4) 0.0085(6) 1 0
O5 O2- 8 f 0.7453(2) 0.0757(5) 0.6493(4) 0.0083(6) 1 0
O6 O2- 8 f 0.0647(2) 0.4987(4) 0.9274(4) 0.0083(6) 1 0
loop_
_atom_site_aniso_label
_atom_site_aniso_type_symbol
_atom_site_aniso_U_11
_atom_site_aniso_U_22
_atom_site_aniso_U_33
_atom_site_aniso_U_12
_atom_site_aniso_U_13
_atom_site_aniso_U_23
Li1 Li1+ 0.019(6) 0.014(6) 0.015(6) 0. 0.012(5) 0.
Yb1 Yb3+ 0.0055(2) 0.0053(2) 0.0038(2) 0. 0.00260(10) 0.
P1 P5+ 0.0050(5) 0.0048(5) 0.0044(5) 0.0004(4) 0.0024(4) 0.0005(4)
P2 P5+ 0.0051(5) 0.0051(5) 0.0045(5) -0.0005(4) 0.0027(4) -0.0009(4)
O1 O2- 0.012(2) 0.0060(10) 0.015(2) 0.0000(10) 0.0090(10) 0.0030(10)
O2 O2- 0.0100(10) 0.0070(10) 0.0120(10) -0.0010(10) 0.0080(10) -0.0020(10)
O3 O2- 0.0100(10) 0.0130(10) 0.0020(10) -0.0020(10) 0.0020(10) 0.0010(10)
O4 O2- 0.0150(10) 0.0030(10) 0.0070(10) 0.0010(10) 0.0070(10) -0.0010(10)
O5 O2- 0.0060(10) 0.012(2) 0.0060(10) -0.0030(10) 0.0030(10) -0.0040(10)
O6 O2- 0.0070(10) 0.0100(10) 0.0040(10) 0.0010(10) 0.0010(10) 0.0000(10)
#End of TTdata_59852-ICSD