
#(C) 2018 by FIZ Karlsruhe - Leibniz Institute for Information Infrastructure.  All rights reserved.
data_59853-ICSD
_database_code_ICSD 59853
_audit_creation_date 2005-10-01
_chemical_name_systematic 'Tetraammonium dilithium  vanadate decahydrate'
_chemical_formula_structural '(N H4)4 Li2 (V10 O28) (H2 O)10'
_chemical_formula_sum 'H36 Li2 N4 O38 V10'
_chemical_name_structure_type (NH4)2NaMoV4O14(H2O)5
_exptl_crystal_density_diffrn 2.44
_publ_section_title

;
Sel double de dilithium et tetraammonium decahydrate, (N H4)4 Li2 [V10
O28].10H2 O
;
loop_
_citation_id
_citation_journal_full
_citation_year
_citation_journal_volume
_citation_page_first
_citation_page_last
_citation_journal_id_ASTM
primary 'Acta Crystallographica, Section E: Structure Reports Online' 2004 60
i105 i107 ACSEBH
loop_
_publ_author_name
'Ksiksi, R.'
'Graia, M.'
'Driss, A.'
'Jouini, T.'
_cell_length_a 8.523(2)
_cell_length_b 10.272(2)
_cell_length_c 11.110(2)
_cell_angle_alpha 68.42(2)
_cell_angle_beta 87.05(2)
_cell_angle_gamma 67.80(2)
_cell_volume 833.1
_cell_formula_units_Z 1
_symmetry_space_group_name_H-M 'P -1'
_symmetry_Int_Tables_number 2
_refine_ls_R_factor_all 0.0327
loop_
_symmetry_equiv_pos_site_id
_symmetry_equiv_pos_as_xyz
1 '-x, -y, -z'
2 'x, y, z'
loop_
_atom_type_symbol
_atom_type_oxidation_number
V5+ 5
O2- -2
H1+ 1
O2- -2
H1+ 1
O2- -2
H1+ 1
O2- -2
H1+ 1
O2- -2
H1+ 1
N3- -3
H1+ 1
N3- -3
H1+ 1
Li1+ 1
loop_
_atom_site_label
_atom_site_type_symbol
_atom_site_symmetry_multiplicity
_atom_site_Wyckoff_symbol
_atom_site_fract_x
_atom_site_fract_y
_atom_site_fract_z
_atom_site_B_iso_or_equiv
_atom_site_occupancy
_atom_site_attached_hydrogens
V1 V5+ 2 i -0.03155(5) 0.20246(4) 0.76577(4) 0.01855(12) 1 0
V2 V5+ 2 i -0.19029(4) 0.49582(4) 0.51993(3) 0.01428(11) 1 0
V3 V5+ 2 i -0.02585(5) 0.50699(4) 0.25496(4) 0.01668(11) 1 0
V4 V5+ 2 i 0.12201(5) 0.21415(4) 0.50094(4) 0.01760(11) 1 0
V5 V5+ 2 i 0.32561(5) 0.21174(4) 0.72571(4) 0.01966(12) 1 0
O1 O2- 2 i 0.1543(2) 0.11711(19) 0.40905(18) 0.0265(4) 1 0
O2 O2- 2 i 0.0062(2) 0.4034(2) 0.16808(17) 0.0255(4) 1 0
O3 O2- 2 i -0.1150(2) 0.0954(2) 0.86590(18) 0.0283(4) 1 0
O4 O2- 2 i 0.5177(2) 0.1143(2) 0.79525(19) 0.0307(4) 1 0
O5 O2- 2 i 0.0146(2) 0.12448(18) 0.63355(16) 0.0196(3) 1 0
O6 O2- 2 i -0.2405(2) 0.36342(18) 0.64300(15) 0.0181(3) 1 0
O7 O2- 2 i -0.2477(2) 0.63680(18) 0.20142(16) 0.0200(3) 1 0
O8 O2- 2 i 0.3274(2) 0.13104(18) 0.59840(16) 0.0214(3) 1 0
O9 O2- 2 i -0.3738(2) 0.62103(18) 0.42493(16) 0.0196(3) 1 0
O10 O2- 2 i -0.0629(2) 0.35420(18) 0.83419(15) 0.0195(3) 1 0
O11 O2- 2 i 0.1983(2) 0.11273(18) 0.82694(16) 0.0211(3) 1 0
O12 O2- 2 i -0.1040(2) 0.37831(17) 0.41414(15) 0.0161(3) 1 0
O13 O2- 2 i -0.1837(2) 0.61531(17) 0.61806(15) 0.0160(3) 1 0
O14 O2- 2 i 0.06631(18) 0.37359(17) 0.60696(15) 0.0151(3) 1 0
O15 O2- 2 i -0.3151(3) 0.4887(3) 0.9863(2) 0.0353(5) 1 0
H1 H1+ 2 i -0.252(4) 0.438(4) 0.947(3) 0.042 1 0
H2 H1+ 2 i -0.261(4) 0.507(4) 1.031(3) 0.042 1 0
O16 O2- 2 i -0.4780(3) 0.4875(3) 0.2343(2) 0.0390(5) 1 0
H3 H1+ 2 i -0.559(3) 0.532(4) 0.268(3) 0.047 1 0
H4 H1+ 2 i -0.407(4) 0.527(4) 0.222(4) 0.047 1 0
O17 O2- 2 i 0.1814(3) -0.1963(2) 0.7628(3) 0.0423(5) 1 0
H5 H1+ 2 i 0.121(4) -0.103(2) 0.735(4) 0.051 1 0
H6 H1+ 2 i 0.114(4) -0.237(3) 0.760(4) 0.051 1 0
O18 O2- 2 i -0.4618(3) 0.8005(3) 0.7201(2) 0.0408(5) 1 0
H7 H1+ 2 i -0.503(4) 0.890(2) 0.681(3) 0.049 1 0
H8 H1+ 2 i -0.386(4) 0.752(3) 0.688(3) 0.049 1 0
O19 O2- 2 i 0.4213(3) -0.1985(3) 0.9710(2) 0.0405(5) 1 0
H9 H1+ 2 i 0.338(4) -0.118(3) 0.943(3) 0.049 1 0
H10 H1+ 2 i 0.408(4) -0.255(3) 1.040(2) 0.049 1 0
N1 N3- 2 i 0.3241(3) -0.2048(3) 0.5094(2) 0.0289(5) 1 0
H11 H1+ 2 i 0.265(4) -0.113(2) 0.468(3) 0.035 1 0
H12 H1+ 2 i 0.389(4) -0.252(3) 0.467(3) 0.035 1 0
H13 H1+ 2 i 0.367(4) -0.201(4) 0.573(2) 0.035 1 0
H14 H1+ 2 i 0.245(3) -0.232(4) 0.537(3) 0.035 1 0
N2 N3- 2 i 0.2246(4) 0.1773(3) 0.0729(2) 0.0344(5) 1 0
H15 H1+ 2 i 0.225(5) 0.095(3) 0.116(3) 0.041 1 0
H16 H1+ 2 i 0.164(4) 0.233(4) 0.106(3) 0.041 1 0
H17 H1+ 2 i 0.174(4) 0.221(4) 0.003(2) 0.041 1 0
H18 H1+ 2 i 0.318(3) 0.178(4) 0.073(4) 0.041 1 0
Li1 Li1+ 2 i 0.4379(6) -0.3405(5) 0.8726(4) 0.0273(9) 1 0
loop_
_atom_site_aniso_label
_atom_site_aniso_type_symbol
_atom_site_aniso_U_11
_atom_site_aniso_U_22
_atom_site_aniso_U_33
_atom_site_aniso_U_12
_atom_site_aniso_U_13
_atom_site_aniso_U_23
V1 V5+ 0.0207(2) 0.0161(2) 0.0179(2) -0.00739(15) 0.00407(15) -0.00536(15)
V2 V5+ 0.01371(19) 0.01311(19) 0.0165(2) -0.00430(15) 0.00384(14) -0.00729(15)
V3 V5+ 0.0209(2) 0.01531(19) 0.0149(2) -0.00545(15) 0.00336(15) -0.00870(15)
V4 V5+ 0.0222(2) 0.01204(19) 0.0186(2) -0.00405(15) 0.00439(15) -0.00874(15)
V5 V5+ 0.0169(2) 0.0162(2) 0.0210(2) -0.00284(15) 0.00000(15) -0.00517(16)
O1 O2- 0.0346(10) 0.0180(8) 0.0287(9) -0.0069(7) 0.0063(8) -0.0146(7)
O2 O2- 0.0344(10) 0.0255(9) 0.0224(8) -0.0111(8) 0.0063(7) -0.0161(7)
O3 O2- 0.0333(10) 0.0253(9) 0.0259(9) -0.0162(8) 0.0075(7) -0.0049(7)
O4 O2- 0.0218(9) 0.0259(9) 0.0354(10) -0.0016(7) -0.0042(7) -0.0086(8)
O5 O2- 0.0239(8) 0.0137(7) 0.0214(8) -0.0072(6) 0.0037(6) -0.0070(6)
O6 O2- 0.0183(8) 0.0173(8) 0.0194(8) -0.0072(6) 0.0048(6) -0.0076(6)
O7 O2- 0.0215(8) 0.0184(8) 0.0194(8) -0.0063(6) 0.0005(6) -0.0074(6)
O8 O2- 0.0204(8) 0.0145(7) 0.0250(8) -0.0011(6) 0.0029(6) -0.0087(6)
O9 O2- 0.0154(7) 0.0189(8) 0.0226(8) -0.0041(6) 0.0020(6) -0.0085(7)
O10 O2- 0.0240(8) 0.0186(8) 0.0159(7) -0.0078(6) 0.0057(6) -0.0073(6)
O11 O2- 0.0230(8) 0.0162(8) 0.0190(8) -0.0048(6) 0.0008(6) -0.0037(6)
O12 O2- 0.0175(7) 0.0144(7) 0.0181(7) -0.0061(6) 0.0031(6) -0.0082(6)
O13 O2- 0.0171(7) 0.0140(7) 0.0168(7) -0.0038(6) 0.0047(6) -0.0081(6)
O14 O2- 0.0346(10) 0.0180(8) 0.0287(9) -0.0069(7) 0.0063(8) -0.0146(7)
O15 O2- 0.0331(11) 0.0443(12) 0.0338(11) -0.0132(10) 0.0087(9) -0.0230(10)
O16 O2- 0.0328(11) 0.0545(14) 0.0522(13) -0.0233(10) 0.0210(10) -0.0401(12)
O17 O2- 0.0409(12) 0.0234(10) 0.0587(15) -0.0102(9) -0.0017(11) -0.0129(10)
O18 O2- 0.0397(12) 0.0358(11) 0.0462(13) -0.0139(10) 0.0227(10) -0.0178(10)
O19 O2- 0.0469(13) 0.0354(12) 0.0274(10) -0.0041(10) 0.0036(9) -0.0112(9)
N1 N3- 0.0274(12) 0.0274(11) 0.0360(13) -0.0082(9) 0.0039(10) -0.0188(10)
N2 N3- 0.0430(14) 0.0252(12) 0.0261(12) -0.0018(11) 0.0006(11) -0.0115(10)
Li1 Li1+ 0.032(2) 0.024(2) 0.032(2) -0.0138(18) 0.0086(18) -0.0145(18)
#End of TTdata_59853-ICSD