
#(C) 2018 by FIZ Karlsruhe - Leibniz Institute for Information Infrastructure.  All rights reserved.
data_60069-ICSD
_database_code_ICSD 60069
_audit_creation_date 1986-04-15
_audit_update_record 2005-10-01
_chemical_name_systematic 'Lithium potassium bis(catena-phosphate(V))- HT'
_chemical_formula_structural 'Li K (P O3)2'
_chemical_formula_sum 'K1 Li1 O6 P2'
_exptl_crystal_density_diffrn 2.4
_publ_section_title

;
Structure de la forme de haute temperature du polyphosphate de lithium et de
potassium: Li K (P O3)2
;
loop_
_citation_id
_citation_journal_full
_citation_year
_citation_journal_volume
_citation_page_first
_citation_page_last
_citation_journal_id_ASTM
primary 'Acta Crystallographica, Section C: Crystal Structure Communications'
1985 41 1157 1159 ACSCEE
loop_
_publ_author_name
'El Horr, N.'
'Bagieu, M.'
_cell_length_a 13.753(5)
_cell_length_b 13.818(5)
_cell_length_c 11.865(5)
_cell_angle_alpha 90.
_cell_angle_beta 90.34(5)
_cell_angle_gamma 90.
_cell_volume 2254.77
_cell_formula_units_Z 16
_symmetry_space_group_name_H-M 'C 1 2/c 1'
_symmetry_Int_Tables_number 15
_refine_ls_R_factor_all 0.023
loop_
_symmetry_equiv_pos_site_id
_symmetry_equiv_pos_as_xyz
1 'x, -y, z+1/2'
2 '-x, -y, -z'
3 '-x, y, -z+1/2'
4 'x, y, z'
5 'x+1/2, -y+1/2, z+1/2'
6 '-x+1/2, -y+1/2, -z'
7 '-x+1/2, y+1/2, -z+1/2'
8 'x+1/2, y+1/2, z'
loop_
_atom_type_symbol
_atom_type_oxidation_number
K1+ 1
P5+ 5
O2- -2
Li1+ 1
loop_
_atom_site_label
_atom_site_type_symbol
_atom_site_symmetry_multiplicity
_atom_site_Wyckoff_symbol
_atom_site_fract_x
_atom_site_fract_y
_atom_site_fract_z
_atom_site_B_iso_or_equiv
_atom_site_occupancy
_atom_site_attached_hydrogens
K1 K1+ 8 f 0.12760(4) 0.12565(6) 0.46997(5) . 1. 0
K2 K1+ 8 f 0.15452(4) 0.37588(5) 0.04395(5) . 1. 0
P1 P5+ 4 e 0.5 0.97937(7) 0.25 . 1. 0
P2 P5+ 8 f 0.42080(4) 0.13089(5) 0.40081(5) . 1. 0
P3 P5+ 8 f 0.29169(4) 0.23948(5) 0.25151(5) . 1. 0
P4 P5+ 8 f 0.15071(4) 0.09642(5) 0.16347(5) . 1. 0
P5 P5+ 4 e 0.5 0.46530(6) 0.25 . 1. 0
O1 O2- 8 f 0.4968(1) 0.0508(1) 0.3575(1) . 1. 0
O2 O2- 8 f 0.3809(1) 0.1698(1) 0.2818(2) . 1. 0
O3 O2- 8 f 0.2000(1) 0.1681(1) 0.2540(2) . 1. 0
O4 O2- 8 f 0.0908(1) 0.0377(1) 0.2577(1) . 1. 0
O5 O2- 8 f 0.0935(1) 0.4266(1) 0.2587(2) . 1. 0
O6 O2- 8 f 0.3410(1) 0.0838(1) 0.4643(2) . 1. 0
O7 O2- 8 f 0.9796(1) 0.2937(1) 0.9583(2) . 1. 0
O8 O2- 8 f 0.3083(1) 0.2727(1) 0.1335(2) . 1. 0
O9 O2- 8 f 0.2754(1) 0.3092(1) 0.3440(2) . 1. 0
O10 O2- 8 f 0.2247(1) 0.0335(1) 0.1112(2) . 1. 0
O11 O2- 8 f 0.0843(2) 0.1514(2) 0.0888(2) . 1. 0
O12 O2- 8 f 0.4988(1) 0.4137(2) 0.3591(2) . 1. 0
Li1 Li1+ 8 f 0.1918(3) 0.4199(4) 0.3718(4) . 1. 0
Li2 Li1+ 8 f 0.4309(3) 0.3138(3) 0.0678(4) . 1. 0
loop_
_atom_site_aniso_label
_atom_site_aniso_type_symbol
_atom_site_aniso_beta_11
_atom_site_aniso_beta_22
_atom_site_aniso_beta_33
_atom_site_aniso_beta_12
_atom_site_aniso_beta_13
_atom_site_aniso_beta_23
K1 K1+ 0.00207(2) 0.00370(3) 0.00195(3) -.00003(5) 0.00021(5) -.00060(6)
K2 K1+ 0.00211(2) 0.00229(3) 0.00270(3) 0.00027(5) 0.00013(5) -.00022(6)
P1 P5+ 0.00097(3) 0.00107(4) 0.00140(5) 0 0.00000(7) 0
P2 P5+ 0.00107(2) 0.00098(2) 0.00119(3) -.00005(4) 0.00012(4) -.0003(5)
P3 P5+ 0.00094(2) 0.00095(2) 0.00148(3) -.00003(4) -.00004(5) 0.00006(5)
P4 P5+ 0.00104(2) 0.00117(2) 0.00118(3) -.00006(4) 0.00010(4) 0.00001(5)
P5 P5+ 0.00092(3) 0.00095(4) 0.00161(5) 0 0.00015(7) 0
O1 O2- 0.00153(8) 0.00155(8) 0.0015(1) 0.0005(1) 0.0000(1) -.00015(20)
O2 O2- 0.00170(8) 0.00195(9) 0.0016(1) 0.00085(10) 0.00015(20) 0.00015(20)
O3 O2- 0.00202(8) 0.00201(9) 0.0019(1) -.00115(10) 0.0004(2) -.00035(10)
O4 O2- 0.00164(8) 0.00198(8) 0.0016(1) -.00095(10) 0.0001(2) 0.00005(20)
O5 O2- 0.00179(8) 0.00198(9) 0.0023(1) 0.00075(10) -.0003(2) -.0003(2)
O6 O2- 0.00174(8) 0.00203(9) 0.0021(1) -.00025(10) 0.00065(10) 0.00015(20)
O7 O2- 0.00180(8) 0.00153(8) 0.0027(1) 0.00035(10) -.00015(20) 0.0005(2)
O8 O2- 0.00152(8) 0.00221(9) 0.0020(1) 0.0000(2) 0.0001(2) 0.0009(2)
O9 O2- 0.00187(8) 0.00175(8) 0.0029(1) 0.0004(1) -.0004(2) -.0011(2)
O10 O2- 0.00224(9) 0.00187(9) 0.0031(1) 0.0004(2) 0.0010(2) -.00005(20)
O11 O2- 0.00241(9) 0.00303(11) 0.0022(1) 0.00065(20) -.0006(2) 0.0006(2)
O12 O2- 0.00177(8) 0.00226(9) 0.0035(1) 0.00045(10) 0.00045(10) 0.00155(20)
Li1 Li1+ 0.0016(2) 0.0018(2) 0.0023(3) 0.00005(40) -.0004(4) -.0005(4)
Li2 Li1+ 0.0016(2) 0.0017(2) 0.0017(3) -.00025(30) 0.0000(4) 0.0000(4)
#End of TTdata_60069-ICSD