
#(C) 2017 by FIZ Karlsruhe - Leibniz Institute for Information Infrastructure.  All rights reserved.
data_60849-ICSD
_database_code_ICSD 60849
_audit_creation_date 1988-02-22
_chemical_name_systematic 'Lithium tetrachlorogallate'
_chemical_formula_structural 'Li Ga Cl4'
_chemical_formula_sum 'Cl4 Ga1 Li1'
_chemical_name_structure_type LiAlCl4
_exptl_crystal_density_diffrn 2.47
_publ_section_title 'Darstellung und Kristallstrukturen von LiGaCl4 und LiGaI4'
loop_
_citation_id
_citation_journal_full
_citation_year
_citation_journal_volume
_citation_page_first
_citation_page_last
_citation_journal_id_ASTM
primary 'Zeitschrift fuer Naturforschung, B: Chemical Sciences' 1987 42 248 250
ZNBSEN
loop_
_publ_author_name
'Hoenle, W.'
'Hettich, B.'
'Simon, A.'
_cell_length_a 12.988(13)
_cell_length_b 6.467(5)
_cell_length_c 7.015(5)
_cell_angle_alpha 90.
_cell_angle_beta 93.36(7)
_cell_angle_gamma 90.
_cell_volume 588.2
_cell_formula_units_Z 4
_symmetry_space_group_name_H-M 'P 1 21/a 1'
_symmetry_Int_Tables_number 14
_refine_ls_R_factor_all 0.065
loop_
_symmetry_equiv_pos_site_id
_symmetry_equiv_pos_as_xyz
1 'x+1/2, -y+1/2, z'
2 '-x, -y, -z'
3 '-x+1/2, y+1/2, -z'
4 'x, y, z'
loop_
_atom_type_symbol
_atom_type_oxidation_number
Ga3+ 3
Cl1- -1
Li1+ 1
loop_
_atom_site_label
_atom_site_type_symbol
_atom_site_symmetry_multiplicity
_atom_site_Wyckoff_symbol
_atom_site_fract_x
_atom_site_fract_y
_atom_site_fract_z
_atom_site_B_iso_or_equiv
_atom_site_occupancy
_atom_site_attached_hydrogens
Ga1 Ga3+ 4 e 0.89908(4) 0.3218(1) 0.70264(8) . 1. 0
Cl1 Cl1- 4 e 0.0498(1) 0.1812(3) 0.6915(2) . 1. 0
Cl2 Cl1- 4 e 0.9301(1) 0.6345(2) 0.8111(2) . 1. 0
Cl3 Cl1- 4 e 0.8136(1) 0.1806(3) 0.9298(2) . 1. 0
Cl4 Cl1- 4 e 0.8096(1) 0.3129(3) 0.4353(2) . 1. 0
Li1 Li1+ 4 e 0.3649(10) -.0134(22) 0.1512(18) . 1. 0
loop_
_atom_site_aniso_label
_atom_site_aniso_type_symbol
_atom_site_aniso_U_11
_atom_site_aniso_U_22
_atom_site_aniso_U_33
_atom_site_aniso_U_12
_atom_site_aniso_U_13
_atom_site_aniso_U_23
Ga1 Ga3+ 0.0275(3) 0.0343(4) 0.0234(3) -.0018(2) 0.0000(2) -.0010(3)
Cl1 Cl1- 0.0324(7) 0.0474(9) 0.0447(8) -.0115(7) -.0003(6) 0.0082(6)
Cl2 Cl1- 0.0462(8) 0.0334(8) 0.0343(7) -.0036(6) -.0065(6) -.0005(6)
Cl3 Cl1- 0.0391(7) 0.0512(9) 0.0287(7) 0.0020(6) 0.0039(5) -.0105(7)
Cl4 Cl1- 0.0379(7) 0.0467(9) 0.0273(7) 0.0005(6) -.0065(5) -.0064(6)
Li1 Li1+ 0.0561(70) 0.0619(80) 0.0455(61) 0.0077(62) 0.0038(53) 0.0052(64)
#End of TTdata_60849-ICSD