
#(C) 2018 by FIZ Karlsruhe - Leibniz Institute for Information Infrastructure.  All rights reserved.
data_60935-ICSD
_database_code_ICSD 60935
_audit_creation_date 1988-02-22
_audit_update_record 2012-08-01
_chemical_name_systematic 'Lithium indium diphosphate(V)'
_chemical_formula_structural 'Li In (P2 O7)'
_chemical_formula_sum 'In1 Li1 O7 P2'
_chemical_name_structure_type LiInP2O7
_exptl_crystal_density_diffrn 3.58
_cell_measurement_temperature 293.
_publ_section_title 'Synthese et structure cristalline de Li In P2 O7'
loop_
_citation_id
_citation_journal_full
_citation_year
_citation_journal_volume
_citation_page_first
_citation_page_last
_citation_journal_id_ASTM
primary 'Acta Crystallographica, Section C: Crystal Structure Communications'
1987 43 201 202 ACSCEE
loop_
_publ_author_name
'Duc Tran Qui'
'Hamdoune, S.'
'le Page, Y.'
_cell_length_a 7.084(2)
_cell_length_b 8.436(2)
_cell_length_c 4.908(3)
_cell_angle_alpha 90.
_cell_angle_beta 110.75(2)
_cell_angle_gamma 90.
_cell_volume 274.28
_cell_formula_units_Z 2
_symmetry_space_group_name_H-M 'P 1 21 1'
_symmetry_Int_Tables_number 4
_refine_ls_R_factor_all 0.02
loop_
_symmetry_equiv_pos_site_id
_symmetry_equiv_pos_as_xyz
1 '-x, y+1/2, -z'
2 'x, y, z'
loop_
_atom_type_symbol
_atom_type_oxidation_number
In3+ 3
P5+ 5
O2- -2
Li1+ 1
loop_
_atom_site_label
_atom_site_type_symbol
_atom_site_symmetry_multiplicity
_atom_site_Wyckoff_symbol
_atom_site_fract_x
_atom_site_fract_y
_atom_site_fract_z
_atom_site_B_iso_or_equiv
_atom_site_occupancy
_atom_site_attached_hydrogens
In1 In3+ 2 a 0.26729(6) 0.25 0.48611(9) .388 1. 0
P1 P5+ 2 a 0.07745(25) 0.03704(23) -.1227(4) .44 1. 0
P2 P5+ 2 a 0.52825(25) 0.43336(22) 1.1271(4) .39 1. 0
O1 O2- 2 a 0.2391(7) -.0845(7) 0.8357(13) .68 1. 0
O2 O2- 2 a 0.1321(8) 0.0676(7) 0.1960(12) .69 1. 0
O3 O2- 2 a 0.1227(7) 0.4524(7) 0.2586(12) .68 1. 0
O4 O2- 2 a 0.0745(8) 0.1879(7) 0.7067(13) .9 1. 0
O5 O2- 2 a 0.4049(8) 0.4343(7) 0.8027(12) .72 1. 0
O6 O2- 2 a 0.4960(7) 0.0886(7) 0.7322(12) .56 1. 0
O7 O2- 2 a 0.4929(7) 0.2886(6) 0.2855(12) .55 1. 0
Li1 Li1+ 2 a 0.677(2) 0.115(2) 0.472(4) 1.28 1. 0
loop_
_atom_site_aniso_label
_atom_site_aniso_type_symbol
_atom_site_aniso_U_11
_atom_site_aniso_U_22
_atom_site_aniso_U_33
_atom_site_aniso_U_12
_atom_site_aniso_U_13
_atom_site_aniso_U_23
In1 In3+ 0.0694(14) 0.0769(15) 0.0116(13) 0.0010(15) 0.0002(10) 0.0028(12)
P1 P5+ 0.066(7) 0.096(8) 0.009(6) -.006(6) 0.002(5) -.011(7)
P2 P5+ 0.063(7) 0.078(7) 0.003(6) -.004(6) -.001(4) -.003(7)
O1 O2- 0.077(20) 0.126(24) 0.045(19) 0.008(19) 0.035(15) 0.008(22)
O2 O2- 0.174(23) 0.158(25) 0.034(19) -.0044(21) 0.030(12) -.027(22)
O3 O2- 0.078(20) 0.18(3) 0.026(19) 0.012(19) 0.005(15) 0.012(23)
O4 O2- 0.171(25) 0.143(24) 0.108(22) 0.057(21) 0.0040(15) 0.056(24)
O5 O2- 0.141(22) 0.125(23) 0.008(19) -.007(20) 0.005(15) 0.019(23)
O6 O2- 0.098(20) 0.121(23) 0.022(19) -.003(18) 0.000(15) 0.021(20)
O7 O2- 0.126(21) 0.11(3) 0.041(19) 0.003(16) -.035(11) 0.021(18)
#End of TTdata_60935-ICSD