
#(C) 2018 by FIZ Karlsruhe - Leibniz Institute for Information Infrastructure.  All rights reserved.
data_61055-ICSD
_database_code_ICSD 61055
_audit_creation_date 1986-12-03
_audit_update_record 2012-08-01
_chemical_name_systematic 'Dilithium magnesium zirconium tetraoxide'
_chemical_formula_structural 'Li2 Mg Zr O4'
_chemical_formula_sum 'Li2 Mg1 O4 Zr1'
_chemical_name_structure_type LiFeO2-alpha
_exptl_crystal_density_diffrn 3.96
_publ_section_title
'Dilithium magnesium zirconium tetraoxide with an alpha-Li Fe O2 structure'
loop_
_citation_id
_citation_journal_full
_citation_year
_citation_journal_volume
_citation_page_first
_citation_page_last
_citation_journal_id_ASTM
primary 'Acta Crystallographica, Section C: Crystal Structure Communications'
1985 41 1707 1709 ACSCEE
loop_
_publ_author_name
'Castellanos, M.A.R.'
'West, A.R.'
'Reid, W.B.'
_cell_length_a 4.209(1)
_cell_length_b 4.209(1)
_cell_length_c 9.145(2)
_cell_angle_alpha 90.
_cell_angle_beta 90.
_cell_angle_gamma 90.
_cell_volume 162.01
_cell_formula_units_Z 2
_symmetry_space_group_name_H-M 'I 41/a m d Z'
_symmetry_Int_Tables_number 141
_refine_ls_R_factor_all 0.033
loop_
_symmetry_equiv_pos_site_id
_symmetry_equiv_pos_as_xyz
1 'y+1/4, x+3/4, -z+1/4'
2 'y+1/4, -x+3/4, -z+1/4'
3 'x, y+1/2, -z'
4 'x, -y, -z'
5 '-y+3/4, x+3/4, -z+1/4'
6 '-y+3/4, -x+3/4, -z+1/4'
7 '-x, y+1/2, -z'
8 '-x, -y, -z'
9 '-y+3/4, -x+1/4, z+3/4'
10 '-y+3/4, x+1/4, z+3/4'
11 '-x, -y+1/2, z'
12 '-x, y, z'
13 'y+1/4, -x+1/4, z+3/4'
14 'y+1/4, x+1/4, z+3/4'
15 'x, -y+1/2, z'
16 'x, y, z'
17 'y+3/4, x+1/4, -z+3/4'
18 'y+3/4, -x+1/4, -z+3/4'
19 'x+1/2, y, -z+1/2'
20 'x+1/2, -y+1/2, -z+1/2'
21 '-y+1/4, x+1/4, -z+3/4'
22 '-y+1/4, -x+1/4, -z+3/4'
23 '-x+1/2, y, -z+1/2'
24 '-x+1/2, -y+1/2, -z+1/2'
25 '-y+1/4, -x+3/4, z+1/4'
26 '-y+1/4, x+3/4, z+1/4'
27 '-x+1/2, -y, z+1/2'
28 '-x+1/2, y+1/2, z+1/2'
29 'y+3/4, -x+3/4, z+1/4'
30 'y+3/4, x+3/4, z+1/4'
31 'x+1/2, -y, z+1/2'
32 'x+1/2, y+1/2, z+1/2'
loop_
_atom_type_symbol
_atom_type_oxidation_number
O2- -2
Zr4+ 4
Mg2+ 2
Li1+ 1
loop_
_atom_site_label
_atom_site_type_symbol
_atom_site_symmetry_multiplicity
_atom_site_Wyckoff_symbol
_atom_site_fract_x
_atom_site_fract_y
_atom_site_fract_z
_atom_site_B_iso_or_equiv
_atom_site_occupancy
_atom_site_attached_hydrogens
O1 O2- 8 e 0 0.25 0.108(2) 1.20(32) 1. 0
Zr1 Zr4+ 4 a 0 0.75 0.125 1.79(11) 0.5 0
Mg1 Mg2+ 4 a 0 0.75 0.125 1.79(11) 0.5 0
Li1 Li1+ 4 b 0 0.25 0.375 0.20(11) 1. 0
#End of TTdata_61055-ICSD