
#(C) 2018 by FIZ Karlsruhe - Leibniz Institute for Information Infrastructure.  All rights reserved.
data_61104-ICSD
_database_code_ICSD 61104
_audit_creation_date 1986-12-03
_chemical_name_systematic 'Lithium aluminium tetraamide'
_chemical_formula_structural 'Li Al (N H2)4'
_chemical_formula_sum 'H8 Al1 Li1 N4'
_exptl_crystal_density_diffrn 1.25
_publ_section_title

;
Lithiumaluminiumamid, Li Al (N H2)4, Darstellung, roentgenographische
Untersuchung, Infrarotspektrum und thermische Zersetzung
;
loop_
_citation_id
_citation_journal_full
_citation_year
_citation_journal_volume
_citation_page_first
_citation_page_last
_citation_journal_id_ASTM
primary 'Zeitschrift fuer Anorganische und Allgemeine Chemie (1950) (DE)' 1985
531 125 139 ZAACAB
loop_
_publ_author_name
'Jacobs, H.'
'Jaenichen, K.'
'Hadenfeldt, C.'
'Juza, R.'
_cell_length_a 9.499(2)
_cell_length_b 7.373(2)
_cell_length_c 7.416(2)
_cell_angle_alpha 90.
_cell_angle_beta 90.111(8)
_cell_angle_gamma 90.
_cell_volume 519.39
_cell_formula_units_Z 4
_symmetry_space_group_name_H-M 'P 1 21/n 1'
_symmetry_Int_Tables_number 14
_refine_ls_R_factor_all 0.042
loop_
_symmetry_equiv_pos_site_id
_symmetry_equiv_pos_as_xyz
1 '-x+1/2, y+1/2, -z+1/2'
2 '-x, -y, -z'
3 'x+1/2, -y+1/2, z+1/2'
4 'x, y, z'
loop_
_atom_type_symbol
_atom_type_oxidation_number
Al3+ 3
N3- -3
Li1+ 1
H1+ 1
loop_
_atom_site_label
_atom_site_type_symbol
_atom_site_symmetry_multiplicity
_atom_site_Wyckoff_symbol
_atom_site_fract_x
_atom_site_fract_y
_atom_site_fract_z
_atom_site_B_iso_or_equiv
_atom_site_occupancy
_atom_site_attached_hydrogens
Al1 Al3+ 4 e 0.8551(1) 0.2487(9) 0.0005(1) . 1. 0
N1 N3- 4 e 0.5238(3) 0.7502(6) 0.3009(3) . 1. 0
N2 N3- 4 e 0.7552(3) 0.4644(4) 0.0013(4) . 1. 0
N3 N3- 4 e 0.4647(3) 0.2335(5) 0.2970(4) . 1. 0
N4 N3- 4 e 0.2278(3) 0.4419(4) 0.4742(4) . 1. 0
Li1 Li1+ 4 e 0.1194(7) 0.4579(9) 0.2281(8) . 1. 0
H1 H1+ 4 e 0.570(3) 0.738(6) 0.201(4) 2.8(7) 1. 0
H2 H1+ 4 e 0.479(4) 0.652(5) 0.306(5) 2.8(8) 1. 0
H3 H1+ 4 e 0.682(5) 0.446(7) 0.011(6) 5.(1) 1. 0
H4 H1+ 4 e 0.759(4) 0.528(7) 0.085(5) 5.(1) 1. 0
H5 H1+ 4 e 0.542(5) 0.237(9) 0.285(6) 6.(1) 1. 0
H6 H1+ 4 e 0.458(5) 0.307(8) 0.236(7) 7.(1) 1. 0
H7 H1+ 4 e 0.267(4) 0.559(5) 0.481(5) 2.9(8) 1. 0
H8 H1+ 4 e 0.161(4) 0.439(6) 0.559(5) 3.7(9) 1. 0
loop_
_atom_site_aniso_label
_atom_site_aniso_type_symbol
_atom_site_aniso_U_11
_atom_site_aniso_U_22
_atom_site_aniso_U_33
_atom_site_aniso_U_12
_atom_site_aniso_U_13
_atom_site_aniso_U_23
Al1 Al3+ 0.0267(3) 0.0262(3) 0.0242(3) 0.009(7) -.0046(3) 0.006(7)
N1 N3- 0.037(1) 0.033(1) 0.034(1) 0.000(2) -.0116(9) -.008(2)
N2 N3- 0.032(1) 0.066(1) 0.033(1) 0.005(1) -.001(1) -.004(1)
N3 N3- 0.033(1) 0.039(2) 0.034(1) -.004(2) 0.004(1) -.002(2)
N4 N3- 0.032(1) 0.035(1) 0.034(1) 0.003(1) -.006(1) -.002(1)
Li1 Li1+ 0.035(3) 0.034(3) 0.035(3) 0.000(3) -.001(1) 0.005(3)
#End of TTdata_61104-ICSD