
#(C) 2018 by FIZ Karlsruhe - Leibniz Institute for Information Infrastructure.  All rights reserved.
data_61199-ICSD
_database_code_ICSD 61199
_audit_creation_date 1986-12-03
_chemical_name_systematic 'Dilithium palladium dioxide'
_chemical_formula_structural 'Li2 Pd O2'
_chemical_formula_sum 'Li2 O2 Pd1'
_chemical_name_structure_type Li2PdO2
_exptl_crystal_density_diffrn 4.85
_publ_section_title 'Notiz ueber Li2 Pd O2'
loop_
_citation_id
_citation_journal_full
_citation_year
_citation_journal_volume
_citation_page_first
_citation_page_last
_citation_journal_id_ASTM
primary 'Zeitschrift fuer Anorganische und Allgemeine Chemie (1950) (DE)' 1986
536 77 80 ZAACAB
loop_
_publ_author_name
'Wolf, R.'
'Hoppe, R.'
_cell_length_a 3.7534(5)
_cell_length_b 2.9818(4)
_cell_length_c 9.3158(10)
_cell_angle_alpha 90.
_cell_angle_beta 90.
_cell_angle_gamma 90.
_cell_volume 104.26
_cell_formula_units_Z 2
_symmetry_space_group_name_H-M 'I m m m'
_symmetry_Int_Tables_number 71
_refine_ls_R_factor_all 0.0354
loop_
_symmetry_equiv_pos_site_id
_symmetry_equiv_pos_as_xyz
1 'x, y, -z'
2 'x, -y, z'
3 '-x, y, z'
4 '-x, -y, -z'
5 '-x, -y, z'
6 '-x, y, -z'
7 'x, -y, -z'
8 'x, y, z'
9 'x+1/2, y+1/2, -z+1/2'
10 'x+1/2, -y+1/2, z+1/2'
11 '-x+1/2, y+1/2, z+1/2'
12 '-x+1/2, -y+1/2, -z+1/2'
13 '-x+1/2, -y+1/2, z+1/2'
14 '-x+1/2, y+1/2, -z+1/2'
15 'x+1/2, -y+1/2, -z+1/2'
16 'x+1/2, y+1/2, z+1/2'
loop_
_atom_type_symbol
_atom_type_oxidation_number
Pd2+ 2
O2- -2
Li1+ 1
loop_
_atom_site_label
_atom_site_type_symbol
_atom_site_symmetry_multiplicity
_atom_site_Wyckoff_symbol
_atom_site_fract_x
_atom_site_fract_y
_atom_site_fract_z
_atom_site_B_iso_or_equiv
_atom_site_occupancy
_atom_site_attached_hydrogens
Pd1 Pd2+ 2 a 0 0 0 . 1. 0
O1 O2- 4 j 0 0.5 0.6486(7) . 1. 0
Li1 Li1+ 4 i 0 0 0.7003(21) . 1. 0
loop_
_atom_site_aniso_label
_atom_site_aniso_type_symbol
_atom_site_aniso_U_11
_atom_site_aniso_U_22
_atom_site_aniso_U_33
_atom_site_aniso_U_12
_atom_site_aniso_U_13
_atom_site_aniso_U_23
Pd1 Pd2+ 0.0103(3) 0.0014(3) 0.0052(3) 0 0 0
O1 O2- 0.0137(22) 0.0043(22) 0.0081(21) 0 0 0
Li1 Li1+ 0.0119(39) 0.0116(42) 0.0165(42) 0 0 0
#End of TTdata_61199-ICSD