
#(C) 2017 by FIZ Karlsruhe - Leibniz Institute for Information Infrastructure.  All rights reserved.
data_61272-ICSD
_database_code_ICSD 61272
_audit_creation_date 1987-03-16
_audit_update_record 2005-10-01
_chemical_name_systematic 'Lithium hexafluoroantimonate'
_chemical_formula_structural 'Li (Sb F6)'
_chemical_formula_sum 'F6 Li1 Sb1'
_chemical_name_structure_type LiSbF6
_exptl_crystal_density_diffrn 3.83
_publ_section_title
'Structural chemistry of octahedral fluorocomplexes of the transition elements'
loop_
_citation_id
_citation_journal_full
_citation_year
_citation_journal_volume
_citation_page_first
_citation_page_last
_citation_journal_id_ASTM
primary 'Structure and Bonding (Berlin)' 1967 3 1 87 STBGAG
loop_
_publ_author_name
'Babel, D.'
_cell_length_a 5.43
_cell_length_b 5.43
_cell_length_c 5.43
_cell_angle_alpha 56.97
_cell_angle_beta 56.97
_cell_angle_gamma 56.97
_cell_volume 105.3
_cell_formula_units_Z 1
_symmetry_space_group_name_H-M 'R -3 R'
_symmetry_Int_Tables_number 148
loop_
_symmetry_equiv_pos_site_id
_symmetry_equiv_pos_as_xyz
1 '-z, -x, -y'
2 '-y, -z, -x'
3 '-x, -y, -z'
4 'z, x, y'
5 'y, z, x'
6 'x, y, z'
loop_
_atom_type_symbol
_atom_type_oxidation_number
Sb5+ 5
Li1+ 1
F1- -1
loop_
_atom_site_label
_atom_site_type_symbol
_atom_site_symmetry_multiplicity
_atom_site_Wyckoff_symbol
_atom_site_fract_x
_atom_site_fract_y
_atom_site_fract_z
_atom_site_B_iso_or_equiv
_atom_site_occupancy
_atom_site_attached_hydrogens
Sb1 Sb5+ 1 a 0 0 0 . 1. 0
Li1 Li1+ 1 b 0.5 0.5 0.5 . 1. 0
F1 F1- 6 f 0.656 -.134 0.239 . 1. 0
#End of TTdata_61272-ICSD