
#(C) 2017 by FIZ Karlsruhe - Leibniz Institute for Information Infrastructure.  All rights reserved.
data_61338-ICSD
_database_code_ICSD 61338
_audit_creation_date 1987-03-16
_audit_update_record 2012-02-01
_chemical_name_systematic 'Lithium gallium(II) bromide'
_chemical_formula_structural 'Li Ga Br3'
_chemical_formula_sum 'Br3 Ga1 Li1'
_chemical_name_structure_type LiGaBr3
_exptl_crystal_density_diffrn 3.83
_publ_section_title
'Darstellung und Kristallstrukturen von Li Ga Br4 und Li Ga Br3'
loop_
_citation_id
_citation_journal_full
_citation_year
_citation_journal_volume
_citation_page_first
_citation_page_last
_citation_journal_id_ASTM
primary

;
Zeitschrift fuer Naturforschung, Teil B. Anorganische Chemie, Organische
Chemie (33,1978-41,1986)
; 1986 41 1391 1398 ZNBAD2
loop_
_publ_author_name
'Hoenle, W.'
'Simon, A.'
_cell_length_a 8.007(2)
_cell_length_b 10.489(3)
_cell_length_c 6.535(3)
_cell_angle_alpha 90.
_cell_angle_beta 93.24(3)
_cell_angle_gamma 90.
_cell_volume 547.97
_cell_formula_units_Z 4
_symmetry_space_group_name_H-M 'P 1 21/m 1'
_symmetry_Int_Tables_number 11
_refine_ls_R_factor_all 0.046
loop_
_symmetry_equiv_pos_site_id
_symmetry_equiv_pos_as_xyz
1 'x, -y+1/2, z'
2 '-x, -y, -z'
3 '-x, y+1/2, -z'
4 'x, y, z'
loop_
_atom_type_symbol
_atom_type_oxidation_number
Ga2+ 2
Br1- -1
Li1+ 1
loop_
_atom_site_label
_atom_site_type_symbol
_atom_site_symmetry_multiplicity
_atom_site_Wyckoff_symbol
_atom_site_fract_x
_atom_site_fract_y
_atom_site_fract_z
_atom_site_B_iso_or_equiv
_atom_site_occupancy
_atom_site_attached_hydrogens
Ga1 Ga2+ 2 e 0.2464(2) 0.25 0.8639(2) . 1. 0
Ga2 Ga2+ 2 e 0.9636(2) 0.25 0.9693(2) . 1. 0
Br1 Br1- 2 e 0.4565(2) 0.25 0.1369(2) . 1. 0
Br2 Br1- 4 f 0.3201(2) 0.0715(1) 0.6621(2) . 1. 0
Br3 Br1- 2 e 0.9300(2) 0.25 0.3293(2) . 1. 0
Br4 Br1- 4 f 0.8117(2) 0.0702(1) 0.8274(2) . 1. 0
Li1 Li1+ 2 c 0 0 0.5 . 1. 0
Li2 Li1+ 2 b 0.5 0 0 . 1. 0
loop_
_atom_site_aniso_label
_atom_site_aniso_type_symbol
_atom_site_aniso_U_11
_atom_site_aniso_U_22
_atom_site_aniso_U_33
_atom_site_aniso_U_12
_atom_site_aniso_U_13
_atom_site_aniso_U_23
Ga1 Ga2+ 0.0139(10) 0.0209(9) 0.0277(9) 0 0.0023(7) 0
Ga2 Ga2+ 0.0156(10) 0.0234(10) 0.0247(9) 0 0.0012(7) 0
Br1 Br1- 0.0240(14) 0.0323(13) 0.0298(13) 0 -.0052(7) 0
Br2 Br1- 0.0297(13) 0.0267(12) 0.0300(12) 0.0030(5) 0.0015(5) -.0060(4)
Br3 Br1- 0.0354(15) 0.0294(14) 0.0230(13) 0 0.0020(7) 0
Br4 Br1- 0.0257(13) 0.0316(12) 0.0316(12) -.0088(6) 0.0035(5) -.0062(4)
Li1 Li1+ 0.022(16) 0.032(16) 0.047(15) -0.022(14) 0.009(12) -0.006(13)
Li2 Li1+ 0.037(22) 0.092(32) 0.055(20) 0.009(24) 0.002(16) 0.015(21)
#End of TTdata_61338-ICSD