
#(C) 2018 by FIZ Karlsruhe - Leibniz Institute for Information Infrastructure.  All rights reserved.
data_62229-ICSD
_database_code_ICSD 62229
_audit_creation_date 1988-07-15
_chemical_name_systematic 'Lithium indium germanate'
_chemical_formula_structural 'Li In Ge O4'
_chemical_formula_sum 'Ge1 In1 Li1 O4'
_chemical_name_structure_type Olivine-Mg2SiO4
_exptl_crystal_density_diffrn 5.23
_publ_section_title 'Structure du Germanate d'Indium et de Lithium'
loop_
_citation_id
_citation_journal_full
_citation_year
_citation_journal_volume
_citation_page_first
_citation_page_last
_citation_journal_id_ASTM
primary 'Acta Crystallographica, Section C: Crystal Structure Communications'
1987 43 2004 2006 ACSCEE
loop_
_publ_author_name
'Touboul, M.'
'Toledano, P.'
_cell_length_a 10.754(5)
_cell_length_b 6.088(2)
_cell_length_c 5.007(2)
_cell_angle_alpha 90.
_cell_angle_beta 90.
_cell_angle_gamma 90.
_cell_volume 327.81
_cell_formula_units_Z 4
_symmetry_space_group_name_H-M 'P n m a'
_symmetry_Int_Tables_number 62
_refine_ls_R_factor_all 0.027
loop_
_symmetry_equiv_pos_site_id
_symmetry_equiv_pos_as_xyz
1 'x+1/2, y, -z+1/2'
2 'x, -y+1/2, z'
3 '-x+1/2, y+1/2, z+1/2'
4 '-x, -y, -z'
5 '-x+1/2, -y, z+1/2'
6 '-x, y+1/2, -z'
7 'x+1/2, -y+1/2, -z+1/2'
8 'x, y, z'
loop_
_atom_type_symbol
_atom_type_oxidation_number
Li1+ 1
In3+ 3
Ge4+ 4
O2- -2
loop_
_atom_site_label
_atom_site_type_symbol
_atom_site_symmetry_multiplicity
_atom_site_Wyckoff_symbol
_atom_site_fract_x
_atom_site_fract_y
_atom_site_fract_z
_atom_site_B_iso_or_equiv
_atom_site_occupancy
_atom_site_attached_hydrogens
Li1 Li1+ 4 a 0 0 0 1.6(1) 1. 0
In1 In3+ 4 c 0.27199(2) 0.25 0.99212(5) . 1. 0
Ge1 Ge4+ 4 c 0.08763(4) 0.25 0.44136(8) . 1. 0
O1 O2- 4 c 0.0953(2) 0.25 0.7878(6) 0.57(3) 1. 0
O2 O2- 4 c 0.4406(2) 0.25 0.2079(6) 0.62(3) 1. 0
O3 O2- 8 d 0.1673(2) 0.0319(3) 0.2752(4) 0.59(2) 1. 0
loop_
_atom_site_aniso_label
_atom_site_aniso_type_symbol
_atom_site_aniso_U_11
_atom_site_aniso_U_22
_atom_site_aniso_U_33
_atom_site_aniso_U_12
_atom_site_aniso_U_13
_atom_site_aniso_U_23
In1 In3+ 0.00057(2) 0.00061(6) 0.00547(9) 0 0.00006(2) 0
Ge1 Ge4+ 0.00060(2) 0.00063(7) 0.00482(12) 0 0.00002(4) 0
#End of TTdata_62229-ICSD