
#(C) 2018 by FIZ Karlsruhe - Leibniz Institute for Information Infrastructure.  All rights reserved.
data_62244-ICSD
_database_code_ICSD 62244
_audit_creation_date 1988-07-15
_audit_update_record 2012-02-01
_chemical_name_systematic 'Trilithium diiron(III) tris(phosphate(V))'
_chemical_formula_structural 'Li3 Fe2 (P O4)3'
_chemical_formula_sum 'Fe2 Li3 O12 P3'
_chemical_name_structure_type Li3Fe2(PO4)3(P21/n)
_exptl_crystal_density_diffrn 3.13
_publ_section_title
'Crystal structure of the monoclinic modification of Li3 Fe2 (P O4)3'
loop_
_citation_id
_citation_journal_full
_citation_year
_citation_journal_volume
_citation_page_first
_citation_page_last
_citation_journal_id_ASTM
primary 'Doklady Akademii Nauk SSSR' 1986 288 634 638 DANKAS
loop_
_publ_author_name
'Maksimov, B.A.'
'Muradyan, L.A.'
'Genkina, E.A.'
'Simonov, V.I.'
_cell_length_a 8.562(2)
_cell_length_b 12.005(3)
_cell_length_c 8.612(2)
_cell_angle_alpha 90.
_cell_angle_beta 90.
_cell_angle_gamma 90.51(2)
_cell_volume 885.16
_cell_formula_units_Z 4
_symmetry_space_group_name_H-M 'P 1 1 21/n'
_symmetry_Int_Tables_number 14
_refine_ls_R_factor_all 0.048
loop_
_symmetry_equiv_pos_site_id
_symmetry_equiv_pos_as_xyz
1 'x+1/2, y+1/2, -z+1/2'
2 '-x, -y, -z'
3 '-x+1/2, -y+1/2, z+1/2'
4 'x, y, z'
loop_
_atom_type_symbol
_atom_type_oxidation_number
Fe3+ 3
P5+ 5
O2- -2
Li1+ 1
loop_
_atom_site_label
_atom_site_type_symbol
_atom_site_symmetry_multiplicity
_atom_site_Wyckoff_symbol
_atom_site_fract_x
_atom_site_fract_y
_atom_site_fract_z
_atom_site_B_iso_or_equiv
_atom_site_occupancy
_atom_site_attached_hydrogens
Fe1 Fe3+ 4 e 0.2461(1) 0.1072(1) 0.4606(1) 0.61(2) 1. 0
Fe2 Fe3+ 4 e 0.7534(1) 0.3943(1) 0.4703(1) 0.59(2) 1. 0
P1 P5+ 4 e 0.1040(2) 0.1490(2) 0.1044(2) 0.58(2) 1. 0
P2 P5+ 4 e 0.6029(2) 0.3509(1) 0.1150(2) 0.55(2) 1. 0
P3 P5+ 4 e 0.0350(2) 0.4937(2) 0.2478(2) 0.62(2) 1. 0
O1 O2- 4 e 0.4278(6) 0.3319(4) 0.0915(6) 1.10(2) 1. 0
O2 O2- 4 e 0.9251(6) 0.1497(4) 0.1119(9) 1.15(2) 1. 0
O3 O2- 4 e 0.3502(6) 0.2636(5) 0.4811(7) 1.29(2) 1. 0
O4 O2- 4 e 0.8062(6) 0.2205(4) 0.4971(6) 1.05(2) 1. 0
O5 O2- 4 e 0.1693(7) 0.0379(5) 0.0574(8) 1.53(2) 1. 0
O6 O2- 4 e 0.6465(6) 0.4721(4) 0.0907(6) 1.09(2) 1. 0
O7 O2- 4 e 0.4500(6) 0.0683(4) 0.3676(6) 1.17(2) 1. 0
O8 O2- 4 e 0.9263(5) 0.4028(4) 0.3142(6) 1.34(2) 1. 0
O9 O2- 4 e 0.1715(6) 0.4325(5) 0.1684(7) 1.32(2) 1. 0
O10 O2- 4 e 0.6017(7) 0.0704(5) 0.1304(8) 1.38(2) 1. 0
O11 O2- 4 e 0.1613(6) 0.1864(4) 0.2654(6) 1.03(2) 1. 0
O12 O2- 4 e 0.6400(6) 0.3162(4) 0.2824(6) 1.02(2) 1. 0
Li1 Li1+ 4 e 0.295(2) 0.322(1) 0.276(2) 1.5(2) 1. 0
Li2 Li1+ 4 e 0.577(2) 0.193(1) 0.421(2) 2.4(3) 1. 0
Li3 Li1+ 4 e 0.912(2) 0.241(2) 0.297(2) 4.1(4) 1. 0
#End of TTdata_62244-ICSD