
#(C) 2018 by FIZ Karlsruhe - Leibniz Institute for Information Infrastructure.  All rights reserved.
data_62300-ICSD
_database_code_ICSD 62300
_audit_creation_date 1988-07-15
_audit_update_record 2006-04-01
_chemical_name_systematic 'Trilithium discandium tris(phosphate(V)) - HT'
_chemical_formula_structural 'Li3 Sc2 (P O4)3'
_chemical_formula_sum 'Li3 O12 P3 Sc2'
_chemical_name_structure_type Li3Fe2(PO4)3
_exptl_crystal_density_diffrn 2.72
_cell_measurement_temperature 573.
_publ_section_title 'Crystal structure of Li3 Sc2 (P O4)3 at 573 K'
loop_
_citation_id
_citation_journal_full
_citation_year
_citation_journal_volume
_citation_page_first
_citation_page_last
_citation_journal_id_ASTM
primary Kristallografiya 1986 31 592 594 KRISAJ
loop_
_publ_author_name
'Maksimov, B.A.'
'Muradyan, L.A.'
'Genkina, E.A.'
'Verin, I.A.'
_cell_length_a 8.828(1)
_cell_length_b 12.399(2)
_cell_length_c 8.823(1)
_cell_angle_alpha 90.
_cell_angle_beta 90.
_cell_angle_gamma 90.
_cell_volume 965.75
_cell_formula_units_Z 4
_symmetry_space_group_name_H-M 'P c a n'
_symmetry_Int_Tables_number 60
_refine_ls_R_factor_all 0.029
loop_
_symmetry_equiv_pos_site_id
_symmetry_equiv_pos_as_xyz
1 '-x, y, z+1/2'
2 'x+1/2, -y+1/2, z'
3 'x+1/2, y+1/2, -z+1/2'
4 '-x, -y, -z'
5 'x, -y, -z+1/2'
6 '-x+1/2, y+1/2, -z'
7 '-x+1/2, -y+1/2, z+1/2'
8 'x, y, z'
loop_
_atom_type_symbol
_atom_type_oxidation_number
Li1+ 1
Sc3+ 3
P5+ 5
O2- -2
loop_
_atom_site_label
_atom_site_type_symbol
_atom_site_symmetry_multiplicity
_atom_site_Wyckoff_symbol
_atom_site_fract_x
_atom_site_fract_y
_atom_site_fract_z
_atom_site_B_iso_or_equiv
_atom_site_occupancy
_atom_site_attached_hydrogens
Li1 Li1+ 8 d 0.292(1) 0.319(1) 0.277(1) . 1. 0
Li2 Li1+ 8 d 0.091(5) 0.308(3) 0.419(5) 6.6(9) 0.25 0
Li3 Li1+ 8 d 0.451(5) 0.230(4) 0.304(5) 7.1(9) 0.25 0
Sc1 Sc3+ 8 d 0.2492(1) 0.1099(1) 0.4609(1) . 1. 0
P1 P5+ 8 d 0.1060(1) 0.1502(1) 0.1025(1) . 1. 0
P2 P5+ 4 c 0.0468(1) 0.5 0.25 . 1. 0
O1 O2- 8 d 0.4332(2) 0.3390(2) 0.1011 . 1. 0
O2 O2- 8 d 0.3282(3) 0.2735(2) 0.4820(2) . 1. 0
O3 O2- 8 d 0.1525(3) 0.0360(2) 0.0645(3) . 1. 0
O4 O2- 8 d 0.4501(3) 0.0653(2) 0.3592(3) . 1. 0
O5 O2- 8 d 0.1481(3) 0.4199(2) 0.1664(3) . 1. 0
O6 O2- 8 d 0.1639(2) 0.1818(2) 0.2608(2) . 1. 0
loop_
_atom_site_aniso_label
_atom_site_aniso_type_symbol
_atom_site_aniso_U_11
_atom_site_aniso_U_22
_atom_site_aniso_U_33
_atom_site_aniso_U_12
_atom_site_aniso_U_13
_atom_site_aniso_U_23
Li1 Li1+ 0.0293 0.006 0.0099 0.0065 -0.0026 0.0021
Sc1 Sc3+ 0.004 0.0018 0.0028 0.0001 -0.0002 -0.0001
P1 P5+ 0.0037 0.0013 0.0028 -0.0001 -0.0006 0
P2 P5+ 0.0031 0.0024 0.0025 0 0 0
O1 O2- 0.0039 0.0039 0.0059 -0.0002 -0.0011 0.0014
O2 O2- 0.0102 0.0022 0.0035 -0.0018 -0.0006 -0.0004
O3 O2- 0.0101 0.0021 0.0089 0.0015 -0.0002 -0.0008
O4 O2- 0.0077 0.0064 0.0084 0.0022 0.0039 -0.001
O5 O2- 0.0084 0.0036 0.0043 0.0018 0.0018 -0.0006
O6 O2- 0.0074 0.0029 0.0034 -0.0008 -0.0021 0.0002
#End of TTdata_62300-ICSD