
#(C) 2018 by FIZ Karlsruhe - Leibniz Institute for Information Infrastructure.  All rights reserved.
data_62322-ICSD
_database_code_ICSD 62322
_audit_creation_date 1988-07-15
_chemical_name_systematic 'Lithium tetrafluoro borate water'
_chemical_formula_structural 'Li B F4 (H2 O)'
_chemical_formula_sum 'H2 B1 F4 Li1 O1'
_exptl_crystal_density_diffrn 2.13
_publ_section_title 'Crystal structure of Li B F4 (H2 O)'
loop_
_citation_id
_citation_journal_full
_citation_year
_citation_journal_volume
_citation_page_first
_citation_page_last
_citation_journal_id_ASTM
primary Kristallografiya 1986 31 1076 1080 KRISAJ
loop_
_publ_author_name
'Shchegoleva, T.M.'
'Iskhakova, L.D.'
'Trunov, V.K.'
_cell_length_a 5.126(5)
_cell_length_b 10.250(2)
_cell_length_c 13.262(3)
_cell_angle_alpha 90.
_cell_angle_beta 90.
_cell_angle_gamma 90.
_cell_volume 696.81
_cell_formula_units_Z 8
_symmetry_space_group_name_H-M 'P b n n'
_symmetry_Int_Tables_number 52
_refine_ls_R_factor_all 0.039
loop_
_symmetry_equiv_pos_site_id
_symmetry_equiv_pos_as_xyz
1 'x+1/2, y+1/2, -z+1/2'
2 'x+1/2, -y, z+1/2'
3 '-x, y+1/2, z'
4 '-x, -y, -z'
5 '-x+1/2, -y+1/2, z+1/2'
6 '-x+1/2, y, -z+1/2'
7 'x, -y+1/2, -z'
8 'x, y, z'
loop_
_atom_type_symbol
_atom_type_oxidation_number
Li1+ 1
B3+ 3
F1- -1
O2- -2
H1+ 1
loop_
_atom_site_label
_atom_site_type_symbol
_atom_site_symmetry_multiplicity
_atom_site_Wyckoff_symbol
_atom_site_fract_x
_atom_site_fract_y
_atom_site_fract_z
_atom_site_B_iso_or_equiv
_atom_site_occupancy
_atom_site_attached_hydrogens
Li1 Li1+ 4 c 0.5285(8) 0.25 0.5 2.22 1. 0
Li2 Li1+ 4 d 0.75 0.3690(4) 0.25 2.48 1. 0
B1 B3+ 8 e 0.0104(3) 0.1297(2) 0.3744(1) 1.56 1. 0
F1 F1- 8 e 0.7954(2) 0.12856(9) 0.43783(8) 2.74 1. 0
F2 F1- 8 e 0.0098(2) 0.01672(9) 0.31695(8) 2.82 1. 0
F3 F1- 8 e 0.2391(2) 0.13365(9) 0.43050(7) 2.62 1. 0
F4 F1- 8 e -.0009(2) 0.23893(9) 0.31287(8) 2.77 1. 0
O1 O2- 8 e 0.5054(2) 0.12197(9) 0.6242(1) 1.88 1. 0
H1 H1+ 8 e 0.363(5) 0.125(2) 0.639(2) 5.4(6) 1. 0
H2 H1+ 8 e 0.521(4) 0.058(2) 0.606(2) 6.3(6) 1. 0
#End of TTdata_62322-ICSD