
#(C) 2018 by FIZ Karlsruhe - Leibniz Institute for Information Infrastructure.  All rights reserved.
data_62514-ICSD
_database_code_ICSD 62514
_audit_creation_date 1988-02-22
_audit_update_record 2012-08-01
_chemical_name_systematic 'Lithium cesium polyphosphate'
_chemical_formula_structural 'Li Cs (P O3)2'
_chemical_formula_sum 'Cs1 Li1 O6 P2'
_exptl_crystal_density_diffrn 3.24
_publ_section_title
'Structure d'un polyphosphate mixte de lithium et de cesium: LiCs(PO3)2'
loop_
_citation_id
_citation_journal_full
_citation_year
_citation_journal_volume
_citation_page_first
_citation_page_last
_citation_journal_id_ASTM
primary 'Acta Crystallographica, Section C: Crystal Structure Communications'
1987 43 603 605 ACSCEE
loop_
_publ_author_name
'El-Horr, N.'
'Bagieu, M.'
_cell_length_a 19.440(5)
_cell_length_b 19.027(5)
_cell_length_c 13.222(5)
_cell_angle_alpha 90.
_cell_angle_beta 90.
_cell_angle_gamma 90.
_cell_volume 4890.62
_cell_formula_units_Z 32
_symmetry_space_group_name_H-M 'F d d 2'
_symmetry_Int_Tables_number 43
_refine_ls_R_factor_all 0.042
loop_
_symmetry_equiv_pos_site_id
_symmetry_equiv_pos_as_xyz
1 'x+1/4, -y+1/4, z+1/4'
2 '-x+1/4, y+1/4, z+1/4'
3 '-x, -y, z'
4 'x, y, z'
5 'x+1/4, -y+3/4, z+3/4'
6 '-x+1/4, y+3/4, z+3/4'
7 '-x, -y+1/2, z+1/2'
8 'x, y+1/2, z+1/2'
9 'x+3/4, -y+1/4, z+3/4'
10 '-x+3/4, y+1/4, z+3/4'
11 '-x+1/2, -y, z+1/2'
12 'x+1/2, y, z+1/2'
13 'x+3/4, -y+3/4, z+1/4'
14 '-x+3/4, y+3/4, z+1/4'
15 '-x+1/2, -y+1/2, z'
16 'x+1/2, y+1/2, z'
loop_
_atom_type_symbol
_atom_type_oxidation_number
Cs1+ 1
P5+ 5
O2- -2
Li1+ 1
loop_
_atom_site_label
_atom_site_type_symbol
_atom_site_symmetry_multiplicity
_atom_site_Wyckoff_symbol
_atom_site_fract_x
_atom_site_fract_y
_atom_site_fract_z
_atom_site_B_iso_or_equiv
_atom_site_occupancy
_atom_site_attached_hydrogens
Cs1 Cs1+ 16 b 0.12802(4) -.00132(5) 0 . 1. 0
Cs2 Cs1+ 16 b -.01702(4) 0.12560(5) 0.48215(8) . 1. 0
P1 P5+ 16 b 0.1581(1) 0.5094(1) 0.0010(2) . 1. 0
P2 P5+ 16 b 0.4736(1) 0.3810(1) 0.7810(2) . 1. 0
P3 P5+ 16 b 0.2470(1) 0.4200(1) 0.2454(3) . 1. 0
P4 P5+ 16 b 0.1135(1) 0.0205(2) 0.2837(2) . 1. 0
O1 O2- 16 b 0.3208(5) 0.0695(5) 0.9782(7) . 1. 0
O2 O2- 16 b 0.2439(5) 0.0887(5) 0.1256(6) . 1. 0
O3 O2- 16 b 0.3054(4) 0.4787(4) 0.2588(6) . 1. 0
O4 O2- 16 b 0.3896(4) 0.4727(5) 0.4040(7) . 1. 0
O5 O2- 16 b 0.0294(4) 0.3032(4) 0.7522(8) . 1. 0
O6 O2- 16 b 0.3901(5) 0.9872(6) 0.0877(6) . 1. 0
O7 O2- 16 b 0.3241(5) 0.1871(4) 0.0612(7) . 1. 0
O8 O2- 16 b 0.2835(5) 0.3496(5) 0.9659(6) . 1. 0
O9 O2- 16 b 0.0695(4) 0.2046(5) 0.0188(7) . 1. 0
O10 O2- 16 b 0.4841(5) 0.1030(5) 0.5484(6) . 1. 0
O11 O2- 16 b 0.1702(4) 0.3349(5) 0.4959(8) . 1. 0
O12 O2- 16 b 0.0889(5) 0.4493(5) 0.7559(8) . 1. 0
Li1 Li1+ 16 b 0.408(1) 0.021(1) 0.223(2) 1.4(3) 1. 0
Li2 Li1+ 16 b 0.514(1) 0.400(1) 0.198(2) 1.6(3) 1. 0
loop_
_atom_site_aniso_label
_atom_site_aniso_type_symbol
_atom_site_aniso_beta_11
_atom_site_aniso_beta_22
_atom_site_aniso_beta_33
_atom_site_aniso_beta_12
_atom_site_aniso_beta_13
_atom_site_aniso_beta_23
Cs1 Cs1+ 0.00108(1) 0.00156(1) 0.00243(3) -.00027(3) -.00026(5) 0.00081(4)
Cs2 Cs1+ 0.00155(2) 0.00146(2) 0.00314(3) -.00020(2) 0.00022(3) -.00004(3)
P1 P5+ 0.00091(5) 0.00108(6) 0.00105(9) 0.00005(5) 0.00005(9) 0.0002(1)
P2 P5+ 0.00100(6) 0.00079(6) 0.00112(10) 0.00000(5) 0.00000(5) -.00010(6)
P3 P5+ 0.00073(5) 0.00097(5) 0.00127(9) -.00005(5) -.00010(5) 0.00005(9)
P4 P5+ 0.00067(5) 0.00112(6) 0.00129(11) -.00020(5) -.00020(5) 0.00020(5)
O1 O2- 0.0021(2) 0.0013(2) 0.0027(4) 0.0006(2) 0.0015(3) 0.0004(3)
O2 O2- 0.0017(2) 0.0018(2) 0.0011(3) -.0005(2) 0.0005(3) 0.0004(3)
O3 O2- 0.0009(2) 0.0015(2) 0.0021(4) 0.0000(2) -.0004(3) -.0001(3)
O4 O2- 0.0008(2) 0.0023(3) 0.0019(4) 0.0004(2) -.0001(3) -.0006(3)
O5 O2- 0.0013(2) 0.0012(2) 0.0031(4) 0.0003(2) 0.0004(3) 0.0003(3)
O6 O2- 0.0019(2) 0.0032(3) 0.0006(3) 0.0008(3) -.0006(3) -.0006(3)
O7 O2- 0.0015(2) 0.0010(2) 0.0037(5) -.0008(2) 0.0001(3) -.0005(3)
O8 O2- 0.0015(2) 0.0025(3) 0.0015(4) 0.0005(2) 0.0004(3) -.0009(3)
O9 O2- 0.0009(2) 0.0021(2) 0.0027(5) -.0005(2) -.0001(3) -.0001(3)
O10 O2- 0.0016(2) 0.0014(2) 0.0018(4) 0.0001(2) -.0002(3) 0.0007(3)
O11 O2- 0.0012(2) 0.0018(2) 0.0025(4) -.0002(2) 0.0006(3) 0.0003(3)
O12 O2- 0.0023(3) 0.0014(2) 0.0036(5) -.0008(2) -.0004(4) -.0008(3)
#End of TTdata_62514-ICSD