
#(C) 2018 by FIZ Karlsruhe - Leibniz Institute for Information Infrastructure.  All rights reserved.
data_62745-ICSD
_database_code_ICSD 62745
_audit_creation_date 1988-07-15
_audit_update_record 2003-04-01
_chemical_name_systematic 'Lithium vanadium oxide (1.2/9/22) - beta'
_chemical_formula_structural 'Li1.2 V9 O22'
_chemical_formula_sum 'Li1.2 O22 V9'
_exptl_crystal_density_diffrn 3.54
_publ_section_title

;
Die Strukturen der Lithium-Vanadiumbronzen beta Li1.2 V9 O22 (I) und beta'
Li1.7 V9 O22 (II).
;
loop_
_citation_id
_citation_journal_full
_citation_year
_citation_journal_volume
_citation_page_first
_citation_page_last
_citation_journal_id_ASTM
primary 'Acta Crystallographica, Section C: Crystal Structure Communications'
1987 43 1447 1451 ACSCEE
loop_
_publ_author_name
'Kato, K.'
'Takayama Muromachi, E.'
_cell_length_a 21.860(3)
_cell_length_b 3.6055(1)
_cell_length_c 10.1048(1)
_cell_angle_alpha 90.
_cell_angle_beta 105.246(1)
_cell_angle_gamma 90.
_cell_volume 768.39
_cell_formula_units_Z 2
_symmetry_space_group_name_H-M 'P 1 21/m 1'
_symmetry_Int_Tables_number 11
_refine_ls_R_factor_all 0.036
loop_
_symmetry_equiv_pos_site_id
_symmetry_equiv_pos_as_xyz
1 'x, -y+1/2, z'
2 '-x, -y, -z'
3 '-x, y+1/2, -z'
4 'x, y, z'
loop_
_atom_type_symbol
_atom_type_oxidation_number
V5+ 5
V4+ 4
V5+ 5
V4+ 4
V5+ 5
O2- -2
Li1+ 1
loop_
_atom_site_label
_atom_site_type_symbol
_atom_site_symmetry_multiplicity
_atom_site_Wyckoff_symbol
_atom_site_fract_x
_atom_site_fract_y
_atom_site_fract_z
_atom_site_B_iso_or_equiv
_atom_site_occupancy
_atom_site_attached_hydrogens
V1 V5+ 2 e 0.91260(4) 0.25 0.14108(10) . 1. 0
V2 V5+ 2 e 0.06130(4) 0.25 0.09135(10) . 1. 0
V3 V5+ 2 e 0.28349(4) 0.25 0.83158(9) . 1. 0
V4 V4+ 2 e 0.42741(4) 0.25 0.77491(9) . 0.2 0
V5 V5+ 2 e 0.42741(4) 0.25 0.77491(9) . 0.8 0
V6 V4+ 2 e 0.59357(4) 0.25 0.98644(9) . 1. 0
V7 V4+ 2 e 0.74941(4) 0.25 0.94565(10) . 1. 0
V8 V5+ 2 e 0.02763(4) 0.25 0.4085(1) . 1. 0
V9 V5+ 2 e 0.31235(4) 0.25 0.50871(9) . 1. 0
V10 V5+ 2 e 0.63435(4) 0.25 0.67665(9) . 1. 0
O1 O2- 2 e 0.01066(17) 0.25 0.2233(4) . 1. 0
O2 O2- 2 e 0.90425(18) 0.25 0.2934(4) . 1. 0
O3 O2- 2 e 0.82772(19) 0.25 0.0367(5) . 1. 0
O4 O2- 2 e 0.95523(19) 0.25 0.9534(4) . 1. 0
O5 O2- 2 e 0.08058(17) 0.25 0.9075(4) . 1. 0
O6 O2- 2 e 0.12935(18) 0.25 0.1966(4) . 1. 0
O7 O2- 2 e 0.33332(16) 0.25 0.6967(4) . 1. 0
O8 O2- 2 e 0.21542(18) 0.25 0.7276(4) . 1. 0
O9 O2- 2 e 0.26530(16) 0.25 0.0119(4) . 1. 0
O10 O2- 2 e 0.39054(16) 0.25 0.9658(4) . 1. 0
O11 O2- 2 e 0.52160(16) 0.25 0.8839(4) . 1. 0
O12 O2- 2 e 0.43844(18) 0.25 0.6243(4) . 1. 0
O13 O2- 2 e 0.64412(16) 0.25 0.8577(4) . 1. 0
O14 O2- 2 e 0.75179(19) 0.25 0.7875(4) . 1. 0
O15 O2- 2 e 0.57354(16) 0.25 0.1700(4) . 1. 0
O16 O2- 2 e 0.69873(19) 0.25 0.1251(4) . 1. 0
O17 O2- 2 e 0.99496(19) 0.25 0.5746(4) . 1. 0
O18 O2- 2 e 0.10276(18) 0.25 0.4590(4) . 1. 0
O19 O2- 2 e 0.34323(18) 0.25 0.3431(4) . 1. 0
O20 O2- 2 e 0.23704(19) 0.25 0.4635(5) . 1. 0
O21 O2- 2 e 0.66549(19) 0.25 0.5051(4) . 1. 0
O22 O2- 2 e 0.55936(19) 0.25 0.6181(4) . 1. 0
Li1 Li1+ 2 e 0.8158(13) 0.25 0.685(3) 2.5(7) 0.45(3) 0
Li2 Li1+ 2 e 0.8427(14) 0.25 0.401(3) 2.6(7) 0.43(3) 0
Li3 Li1+ 2 e 0.4966(28) 0.25 0.460(6) 5.3(15) 0.32 0
loop_
_atom_site_aniso_label
_atom_site_aniso_type_symbol
_atom_site_aniso_beta_11
_atom_site_aniso_beta_22
_atom_site_aniso_beta_33
_atom_site_aniso_beta_12
_atom_site_aniso_beta_13
_atom_site_aniso_beta_23
V1 V5+ 0.000412(17) 0.0062(7) 0.00166(8) 0 0.000326(30) 0
V2 V5+ 0.000283(16) 0.0080(7) 0.00144(8) 0 0.000208(29) 0
V3 V5+ 0.000308(16) 0.0078(6) 0.00138(8) 0 0.000217(27) 0
V4 V4+ 0.000391(16) 0.0068(6) 0.00113(7) 0 0.000159(27) 0
V5 V5+ 0.000391(16) 0.0068(6) 0.00113(7) 0 0.000159(27) 0
V6 V4+ 0.000191(16) 0.0058(7) 0.00118(8) 0 0.000049(28) 0
V7 V4+ 0.000325(16) 0.0078(7) 0.00177(8) 0 0.000236(29) 0
V8 V5+ 0.000410(17) 0.0085(7) 0.00125(8) 0 0.000271(31) 0
V9 V5+ 0.000342(16) 0.0110(7) 0.00146(8) 0 0.000278(27) 0
V10 V5+ 0.000412(17) 0.0097(7) 0.00149(8) 0 0.000329(29) 0
O1 O2- 0.000364(70) 0.012(3) 0.00136(35) 0 0.00001(12) 0
O2 O2- 0.000630(86) 0.0218(35) 0.00171(38) 0 0.00049(14) 0
O3 O2- 0.000354(61) 0.0160(25) 0.00265(33) 0 -0.00010(11) 0
O4 O2- 0.000926(91) 0.0082(31) 0.00298(40) 0 0.00074(16) 0
O5 O2- 0.000490(75) 0.012(3) 0.00152(35) 0 0.00040(13) 0
O6 O2- 0.000376(82) 0.1030(63) 0.00189(40) 0 0.00007(14) 0
O7 O2- 0.000229(65) 0.0162(29) 0.00169(34) 0 0.00030(12) 0
O8 O2- 0.000412(82) 0.125(7) 0.00217(40) 0 0.00021(15) 0
O9 O2- 0.000386(69) 0.0106(27) 0.00155(33) 0 0.00040(12) 0
O10 O2- 0.000361(70) 0.0126(28) 0.00256(36) 0 0.00042(13) 0
O11 O2- 0.000279(67) 0.0178(29) 0.00219(38) 0 0.00013(12) 0
O12 O2- 0.000581(85) 0.0359(38) 0.00170(37) 0 0.00044(14) 0
O13 O2- 0.000365(69) 0.0111(28) 0.00150(32) 0 0.00028(12) 0
O14 O2- 0.000775(86) 0.0207(32) 0.00167(35) 0 0.00031(14) 0
O15 O2- 0.000407(69) 0.0064(26) 0.00203(35) 0 0.00025(12) 0
O16 O2- 0.001064(91) 0.0115(29) 0.00265(38) 0 0.00092(15) 0
O17 O2- 0.000916(92) 0.0084(32) 0.00167(38) 0 0.00050(15) 0
O18 O2- 0.000366(83) 0.0742(52) 0.00214(40) 0 -0.00007(15) 0
O19 O2- 0.000726(80) 0.0065(28) 0.00198(35) 0 0.00050(13) 0
O20 O2- 0.000566(91) 0.0785(55) 0.00330(43) 0 0.00026(16) 0
O21 O2- 0.001073(90) 0.0054(28) 0.00223(36) 0 0.00095(15) 0
O22 O2- 0.000644(85) 0.0498(43) 0.00290(41) 0 0.00013(15) 0
#End of TTdata_62745-ICSD