
#(C) 2017 by FIZ Karlsruhe - Leibniz Institute for Information Infrastructure.  All rights reserved.
data_62819-ICSD
_database_code_ICSD 62819
_audit_creation_date 1988-07-15
_audit_update_record 1998-06-26
_chemical_name_systematic
'Potassium lithium iron sulfide chloride (6/1/23/26/1)'
_chemical_formula_structural 'K6 Li Fe23 S26 Cl'
_chemical_formula_sum 'Cl1 Fe23 K6 Li1 S26'
_chemical_name_mineral Djerfisherite
_exptl_crystal_density_diffrn 3.58
_publ_section_title
'Neutron diffraction study of electrochemically synthesized Djerfisherite.'
loop_
_citation_id
_citation_journal_full
_citation_year
_citation_journal_volume
_citation_page_first
_citation_page_last
_citation_journal_id_ASTM
primary 'Journal of the Electrochemical Society' 1986 133 2644 2649 JESOAN
loop_
_publ_author_name
'Tani, B.'
'Mrazek, F.'
'Faber, J.jr'
'Hitterman, R.L.'
_cell_length_a 10.3527(1)
_cell_length_b 10.3527(1)
_cell_length_c 10.3527(1)
_cell_angle_alpha 90.
_cell_angle_beta 90.
_cell_angle_gamma 90.
_cell_volume 1109.59
_cell_formula_units_Z 1
_symmetry_space_group_name_H-M 'P m -3 m'
_symmetry_Int_Tables_number 221
_refine_ls_R_factor_all 0.0775
loop_
_symmetry_equiv_pos_site_id
_symmetry_equiv_pos_as_xyz
1 'z, y, -x'
2 'y, x, -z'
3 'x, z, -y'
4 'z, x, -y'
5 'y, z, -x'
6 'x, y, -z'
7 'z, -y, x'
8 'y, -x, z'
9 'x, -z, y'
10 'z, -x, y'
11 'y, -z, x'
12 'x, -y, z'
13 '-z, y, x'
14 '-y, x, z'
15 '-x, z, y'
16 '-z, x, y'
17 '-y, z, x'
18 '-x, y, z'
19 '-z, -y, -x'
20 '-y, -x, -z'
21 '-x, -z, -y'
22 '-z, -x, -y'
23 '-y, -z, -x'
24 '-x, -y, -z'
25 '-z, -y, x'
26 '-y, -x, z'
27 '-x, -z, y'
28 '-z, -x, y'
29 '-y, -z, x'
30 '-x, -y, z'
31 '-z, y, -x'
32 '-y, x, -z'
33 '-x, z, -y'
34 '-z, x, -y'
35 '-y, z, -x'
36 '-x, y, -z'
37 'z, -y, -x'
38 'y, -x, -z'
39 'x, -z, -y'
40 'z, -x, -y'
41 'y, -z, -x'
42 'x, -y, -z'
43 'z, y, x'
44 'y, x, z'
45 'x, z, y'
46 'z, x, y'
47 'y, z, x'
48 'x, y, z'
loop_
_atom_type_symbol
_atom_type_oxidation_number
Fe2+ 2
S2- -2
K1+ 1
Li1+ 1
Cl1- -1
loop_
_atom_site_label
_atom_site_type_symbol
_atom_site_symmetry_multiplicity
_atom_site_Wyckoff_symbol
_atom_site_fract_x
_atom_site_fract_y
_atom_site_fract_z
_atom_site_B_iso_or_equiv
_atom_site_occupancy
_atom_site_attached_hydrogens
Fe1 Fe2+ 24 m 0.36810(6) 0.36810(6) 0.13191(9) . 0.9583 0
S1 S2- 12 h 0.24891(39) 0.5 0 . 1. 0
S2 S2- 8 g 0.22980(33) 0.22980(33) 0.22980(33) . 1. 0
S3 S2- 6 f 0.25144(73) 0.5 0.5 . 1. 0
K1 K1+ 6 e 0.29913(60) 0 0 . 1. 0
Li1 Li1+ 1 b 0.5 0.5 0.5 1.62(40) 1. 0
Cl1 Cl1- 1 a 0 0 0 1.284(69) 1. 0
loop_
_atom_site_aniso_label
_atom_site_aniso_type_symbol
_atom_site_aniso_beta_11
_atom_site_aniso_beta_22
_atom_site_aniso_beta_33
_atom_site_aniso_beta_12
_atom_site_aniso_beta_13
_atom_site_aniso_beta_23
Fe1 Fe2+ 0.00259(6) 0.00259(6) 0.00286(8) -.00013(8) 0.00013(5) 0.00013(5)
S1 S2- 0.00281(38) 0.00321(41) 0.00175(34) 0 0 0
S2 S2- 0.00217(19) 0.00219(19) 0.00217(19) 0.00031(19) 0.00031(19) 0.00031(19)
S3 S2- 0.00098(55) 0.00496(49) 0.00496(49) 0 0 0
K1 K1+ 0.00427(45) 0.00427(45) 0.00427(45) 0 0 0
#End of TTdata_62819-ICSD