
#(C) 2018 by FIZ Karlsruhe - Leibniz Institute for Information Infrastructure.  All rights reserved.
data_62878-ICSD
_database_code_ICSD 62878
_audit_creation_date 1988-12-19
_audit_update_record 2012-08-01
_chemical_name_systematic 'Trilithium diindium tris(phosphate(V))'
_chemical_formula_structural 'Li3 In2 (P O4)3'
_chemical_formula_sum 'In2 Li3 O12 P3'
_chemical_name_structure_type Li3In2(PO4)3
_exptl_crystal_density_diffrn 3.72
_publ_section_title 'Crystal structure of Li3 In2 (P O4)3.'
loop_
_citation_id
_citation_journal_full
_citation_year
_citation_journal_volume
_citation_page_first
_citation_page_last
_citation_journal_id_ASTM
primary Kristallografiya 1987 32 74 78 KRISAJ
loop_
_publ_author_name
'Genkina, E.A.'
'Muradyan, L.A.'
'Maksimov, B.A.'
'Merinov, B.A.'
'Sigarev, S.E.'
_cell_length_a 8.432(2)
_cell_length_b 8.432(2)
_cell_length_c 23.268(6)
_cell_angle_alpha 90.
_cell_angle_beta 90.
_cell_angle_gamma 120.
_cell_volume 1432.69
_cell_formula_units_Z 6
_symmetry_space_group_name_H-M 'R -3 H'
_symmetry_Int_Tables_number 148
_refine_ls_R_factor_all 0.035
loop_
_symmetry_equiv_pos_site_id
_symmetry_equiv_pos_as_xyz
1 'x-y, x, -z'
2 'y, -x+y, -z'
3 '-x, -y, -z'
4 '-x+y, -x, z'
5 '-y, x-y, z'
6 'x, y, z'
7 'x-y+2/3, x+1/3, -z+1/3'
8 'y+2/3, -x+y+1/3, -z+1/3'
9 '-x+2/3, -y+1/3, -z+1/3'
10 '-x+y+2/3, -x+1/3, z+1/3'
11 '-y+2/3, x-y+1/3, z+1/3'
12 'x+2/3, y+1/3, z+1/3'
13 'x-y+1/3, x+2/3, -z+2/3'
14 'y+1/3, -x+y+2/3, -z+2/3'
15 '-x+1/3, -y+2/3, -z+2/3'
16 '-x+y+1/3, -x+2/3, z+2/3'
17 '-y+1/3, x-y+2/3, z+2/3'
18 'x+1/3, y+2/3, z+2/3'
loop_
_atom_type_symbol
_atom_type_oxidation_number
In3+ 3
P5+ 5
O2- -2
Li1+ 1
loop_
_atom_site_label
_atom_site_type_symbol
_atom_site_symmetry_multiplicity
_atom_site_Wyckoff_symbol
_atom_site_fract_x
_atom_site_fract_y
_atom_site_fract_z
_atom_site_B_iso_or_equiv
_atom_site_occupancy
_atom_site_attached_hydrogens
In1 In3+ 6 c 0 0 0.1460(1) 1.41 1. 0
In2 In3+ 6 c 0 0 0.6551(1) 2.06 1. 0
P1 P5+ 18 f 0.2947(3) -.0023(3) 0.2507(1) 1.26 1. 0
O1 O2- 18 f 0.205(1) -.0101(10) 0.1941(3) 3.24 1. 0
O2 O2- 18 f 0.7596(10) 0.9073(10) 0.7031(3) 2.6 1. 0
O3 O2- 18 f 0.2360(8) -.1981(8) 0.2691(3) 1.64 1. 0
O4 O2- 18 f 0.4960(8) 0.8907(8) 0.7562(3) 1.59 1. 0
Li1 Li1+ 18 f 0.355(3) 0.044(3) 0.380(1) 5.0(5) 1. 0
loop_
_atom_site_aniso_label
_atom_site_aniso_type_symbol
_atom_site_aniso_beta_11
_atom_site_aniso_beta_22
_atom_site_aniso_beta_33
_atom_site_aniso_beta_12
_atom_site_aniso_beta_13
_atom_site_aniso_beta_23
In1 In3+ 0.0068 0.0068 0.0006 0.0034 0 0
In2 In3+ 0.0092 0.0092 0.0019 0.0046 0 0
P1 P5+ 0.0055 0.0059 0.0006 0.003 0 0.0001
O1 O2- 0.0099 0.0231 0.001 0.0086 0.001 0.0011
O2 O2- 0.0091 0.0074 0.0017 0.002 0.0021 -.0008
O3 O2- 0.0057 0.0051 0.0011 0.0023 0 0.0002
O4 O2- 0.0053 0.0071 0.0009 0.0026 0.0004 0.0007
#End of TTdata_62878-ICSD