
#(C) 2018 by FIZ Karlsruhe - Leibniz Institute for Information Infrastructure.  All rights reserved.
data_63226-ICSD
_database_code_ICSD 63226
_audit_creation_date 1989-12-04
_audit_update_record 2006-04-01
_chemical_name_systematic 'Lithium lanthanum molybdate (0.31/0.56/1) - HT'
_chemical_formula_structural 'Li0.3125 La0.5625 (Mo O4)'
_chemical_formula_sum 'La0.5625 Li0.3125 Mo1 O4'
_exptl_crystal_density_diffrn 4.77
_publ_section_title

;
Neutron powder diffraction study of the structure of the compound Li0.3125
La0.5625 Mo O4.
;
loop_
_citation_id
_citation_journal_full
_citation_year
_citation_journal_volume
_citation_page_first
_citation_page_last
_citation_journal_id_ASTM
primary 'Solid State Ionics' 1986 18 922 928 SSIOD3
loop_
_publ_author_name
'Lukacevic, E.'
'Santoro, A.'
'Roth, R.S.'
_cell_length_a 5.3350(1)
_cell_length_b 5.3350(1)
_cell_length_c 11.7584(3)
_cell_angle_alpha 90.
_cell_angle_beta 90.
_cell_angle_gamma 90.
_cell_volume 334.67
_cell_formula_units_Z 4
_symmetry_space_group_name_H-M 'I 41/a Z'
_symmetry_Int_Tables_number 88
_refine_ls_R_factor_all 0.0445
loop_
_symmetry_equiv_pos_site_id
_symmetry_equiv_pos_as_xyz
1 '-y+3/4, x+3/4, -z+3/4'
2 'y+1/4, -x+3/4, -z+3/4'
3 'x, y+1/2, -z'
4 '-x, -y, -z'
5 'y+1/4, -x+1/4, z+1/4'
6 '-y+3/4, x+1/4, z+1/4'
7 '-x, -y+1/2, z'
8 'x, y, z'
9 '-y+1/4, x+1/4, -z+1/4'
10 'y+3/4, -x+1/4, -z+1/4'
11 'x+1/2, y, -z+1/2'
12 '-x+1/2, -y+1/2, -z+1/2'
13 'y+3/4, -x+3/4, z+3/4'
14 '-y+1/4, x+3/4, z+3/4'
15 '-x+1/2, -y, z+1/2'
16 'x+1/2, y+1/2, z+1/2'
loop_
_atom_type_symbol
_atom_type_oxidation_number
La3+ 3
Li1+ 1
Mo6+ 6
O2- -2
loop_
_atom_site_label
_atom_site_type_symbol
_atom_site_symmetry_multiplicity
_atom_site_Wyckoff_symbol
_atom_site_fract_x
_atom_site_fract_y
_atom_site_fract_z
_atom_site_B_iso_or_equiv
_atom_site_occupancy
_atom_site_attached_hydrogens
La1 La3+ 4 b 0 0.25 0.625 0.84(4) 0.5625 0
Li1 Li1+ 16 f 0.05 0.1 0.65 . 0.0781 0
Mo1 Mo6+ 4 a 0 0.25 0.125 1.24(3) 1. 0
O1 O2- 16 f 0.1412(2) 0.0117(2) 0.2073(1) 1.65(2) 1. 0
#End of TTdata_63226-ICSD