
#(C) 2018 by FIZ Karlsruhe - Leibniz Institute for Information Infrastructure.  All rights reserved.
data_638-ICSD
_database_code_ICSD 638
_audit_creation_date 1984-09-04
_audit_update_record 2009-08-01
_chemical_name_systematic 'Lithium catena-phosphate(V)'
_chemical_formula_structural 'Li (P O3)'
_chemical_formula_sum 'Li1 O3 P1'
_exptl_crystal_density_diffrn 2.48
_publ_section_title 'Structure cristalline du polyphosphate de lithium, Li P O3'
loop_
_citation_id
_citation_journal_full
_citation_year
_citation_journal_volume
_citation_page_first
_citation_page_last
_citation_journal_id_ASTM
primary

;
Acta Crystallographica, Section B: Structural Crystallography and Crystal
Chemistry
; 1976 32 2960 2966 ACBCAR
loop_
_publ_author_name
'Guitel, J.C.'
'Tordjman, I.'
_cell_length_a 16.4530(20)
_cell_length_b 5.405(1)
_cell_length_c 13.086(2)
_cell_angle_alpha 90.
_cell_angle_beta 98.99(2)
_cell_angle_gamma 90.
_cell_volume 1149.42
_cell_formula_units_Z 20
_symmetry_space_group_name_H-M 'P 1 n 1'
_symmetry_Int_Tables_number 7
_refine_ls_R_factor_all 0.034
loop_
_symmetry_equiv_pos_site_id
_symmetry_equiv_pos_as_xyz
1 'x+1/2, -y, z+1/2'
2 'x, y, z'
loop_
_atom_type_symbol
_atom_type_oxidation_number
P5+ 5
O2- -2
Li1+ 1
loop_
_atom_site_label
_atom_site_type_symbol
_atom_site_symmetry_multiplicity
_atom_site_Wyckoff_symbol
_atom_site_fract_x
_atom_site_fract_y
_atom_site_fract_z
_atom_site_B_iso_or_equiv
_atom_site_occupancy
_atom_site_attached_hydrogens
P1 P5+ 2 a 0.5 0.8117(3) 0.5 . 1. 0
P2 P5+ 2 a 0.59249(15) 0.1526(4) 0.3871(2) . 1. 0
P3 P5+ 2 a 0.69745(16) 0.8092(4) 0.2959(2) . 1. 0
P4 P5+ 2 a 0.80915(15) 0.1719(4) 0.2179(2) . 1. 0
P5 P5+ 2 a 0.90816(15) 0.8398(4) 0.1150(2) . 1. 0
P6 P5+ 2 a 0.07331(15) 0.1581(4) 0.4086(2) . 1. 0
P7 P5+ 2 a 0.17433(16) 0.8247(4) 0.3102(2) . 1. 0
P8 P5+ 2 a 0.28662(16) 0.1884(4) 0.2316(2) . 1. 0
P9 P5+ 2 a 0.38988(15) 0.8475(4) 0.1381(2) . 1. 0
P10 P5+ 2 a 0.48161(5) 0.1899(4) 0.02197(8) . 1. 0
O1 O2- 2 a 0.5376(3) 0.9559(11) 0.4058(4) . 1. 0
O2 O2- 2 a 0.6420(4) 0.0514(11) 0.2994(5) . 1. 0
O3 O2- 2 a 0.7772(3) 0.9188(11) 0.2546(5) . 1. 0
O4 O2- 2 a 0.8948(4) 0.0786(12) 0.1861(4) . 1. 0
O5 O2- 2 a 0.4789(4) 0.0544(11) 0.5552(5) . 1. 0
O6 O2- 2 a 0.0904(4) 0.9228(11) 0.3419(4) . 1. 0
O7 O2- 2 a 0.2086(4) 0.0842(11) 0.2705(5) . 1. 0
O8 O2- 2 a 0.3433(4) 0.9473(10) 0.2284(5) . 1. 0
O9 O2- 2 a 0.4446(4) 0.0822(12) 0.1208(4) . 1. 0
O10 O2- 2 a 0.0024(4) 0.0649(10) 0.4677(4) . 1. 0
O11 O2- 2 a 0.4244(4) 0.6757(15) 0.4580(6) . 1. 0
O12 O2- 2 a 0.5665(4) 0.6880(15) 0.5713(6) . 1. 0
O13 O2- 2 a 0.5400(4) 0.3554(15) 0.3366(6) . 1. 0
O14 O2- 2 a 0.6517(4) 0.2027(13) 0.4834(5) . 1. 0
O15 O2- 2 a 0.6538(4) 0.6429(14) 0.2133(5) . 1. 0
O16 O2- 2 a 0.7227(4) 0.7169(14) 0.4033(5) . 1. 0
O17 O2- 2 a 0.7527(4) 0.2455(15) 0.1238(6) . 1. 0
O18 O2- 2 a 0.8294(4) 0.3495(15) 0.3014(6) . 1. 0
O19 O2- 2 a 0.8333(5) 0.7833(15) 0.0433(6) . 1. 0
O20 O2- 2 a 0.9456(5) 0.6418(16) 0.1834(6) . 1. 0
O21 O2- 2 a 0.0368(4) 0.3559(14) 0.3366(5) . 1. 0
O22 O2- 2 a 0.1507(4) 0.2112(14) 0.4845(5) . 1. 0
O23 O2- 2 a 0.1524(4) 0.6592(15) 0.2176(5) . 1. 0
O24 O2- 2 a 0.2277(5) 0.7359(15) 0.4054(6) . 1. 0
O25 O2- 2 a 0.2594(4) 0.2757(14) 0.1244(5) . 1. 0
O26 O2- 2 a 0.3277(4) 0.3601(15) 0.3072(6) . 1. 0
O27 O2- 2 a 0.3298(4) 0.7979(15) 0.0439(6) . 1. 0
O28 O2- 2 a 0.4456(4) 0.6511(15) 0.1853(5) . 1. 0
O29 O2- 2 a 0.4185(4) 0.3264(14) 0.9510(5) . 1. 0
O30 O2- 2 a 0.5575(4) 0.3243(14) 0.0795(5) . 1. 0
Li1 Li1+ 2 a 0.3174(9) 0.507(3) 0.4469(11) 1.11 1. 0
Li2 Li1+ 2 a 0.4339(9) 0.520(2) 0.3236(12) 1.06 1. 0
Li3 Li1+ 2 a 0.5497(10) 0.493(2) 0.2016(12) 1.29 1. 0
Li4 Li1+ 2 a 0.6651(10) 0.493(3) 0.0827(12) 1.61 1. 0
Li5 Li1+ 2 a 0.7429(13) 0.007(1) 0.0134(18) 1.24 1. 0
Li6 Li1+ 2 a 0.8184(10) 0.480(3) 0.4438(13) 1.3 1. 0
Li7 Li1+ 2 a 0.9332(9) 0.522(2) 0.3227(12) 0.71 1. 0
Li8 Li1+ 2 a 0.0506(11) 0.462(3) 0.2034(14) 1.71 1. 0
Li9 Li1+ 2 a 0.1679(10) 0.525(3) 0.0813(13) 1.49 1. 0
Li10 Li1+ 2 a 0.2460(6) 0.0397(7) 0.0081(9) 0.87 1. 0
loop_
_atom_site_aniso_label
_atom_site_aniso_type_symbol
_atom_site_aniso_beta_11
_atom_site_aniso_beta_22
_atom_site_aniso_beta_33
_atom_site_aniso_beta_12
_atom_site_aniso_beta_13
_atom_site_aniso_beta_23
P1 P5+ 0.00038 0.00548 0.00068 -.00028 0.00024 -.00019
P2 P5+ 0.00046 0.00394 0.0006 -.00011 -.00002 0.0001
P3 P5+ 0.0005 0.00424 0.00126 -.00001 0.00022 0.00019
P4 P5+ 0.00041 0.00529 0.00052 -.00001 -.00013 -.00043
P5 P5+ 0.00058 0.00398 0.00113 0.00072 0.00035 0.00078
P6 P5+ 0.00045 0.00639 0.00045 -.00055 -.00007 -.00016
P7 P5+ 0.00066 0.00485 0.00119 0.00017 0.00028 -.0005
P8 P5+ 0.00054 0.0064 0.00047 -.0002 0.00007 -.00051
P9 P5+ 0.00057 0.00628 0.00107 0.00064 0.00026 0.00038
P10 P5+ 0.0007 0.00499 0.00083 0.00002 0.00005 0.00023
O1 O2- 0.00088 0.00632 0.00056 -.00058 -.00003 0
O2 O2- 0.0011 0.01056 0.00147 0.00082 0.00062 0.00144
O3 O2- 0.00097 0.008 0.00324 -.0008 0.00166 -.0001
O4 O2- 0.00084 0.01048 0.00124 -.00084 0.0005 -.00128
O5 O2- 0.00119 0.00809 0.00218 -.00022 0.00078 -.00118
O6 O2- 0.00052 0.00594 0.00123 0.00038 0.00006 -.00062
O7 O2- 0.00107 0.00641 0.00298 -.00011 0.00016 0.00061
O8 O2- 0.00092 0.00634 0.0011 0.0016 0.00046 0.00024
O9 O2- 0.00117 0.00999 0.0015 -.00086 0.00081 -.00044
O10 O2- 0.00089 0.00695 0.00141 0.00061 0.00071 0.00127
O11 O2- 0.00065 0.01085 0.00221 -.00206 0.00057 -.00017
O12 O2- 0.00129 0.01154 0.00203 0.0002 0.00034 0.00095
O13 O2- 0.00087 0.00738 0.00225 0.00151 0.00032 0.00193
O14 O2- 0.00102 0.00518 0.00098 0.00042 -.00048 -.00123
O15 O2- 0.00059 0.01075 0.00102 -.00049 -.00005 -.00205
O16 O2- 0.00063 0.01064 0.00068 0.00025 -.00014 0.00136
O17 O2- 0.00092 0.01062 0.00118 0.00153 -.00043 0.00001
O18 O2- 0.00092 0.01161 0.00171 0.00013 -.00018 -.00271
O19 O2- 0.00092 0.00918 0.00204 0.0005 -.00032 -.00097
O20 O2- 0.001 0.01006 0.00255 0.00055 0.00018 0.00047
O21 O2- 0.001 0.00816 0.00052 0.0006 0.00008 0.00177
O22 O2- 0.00085 0.00765 0.00091 0.00025 -.00009 -.00046
O23 O2- 0.00119 0.00795 0.00064 -.0006 0.00022 -.00024
O24 O2- 0.00177 0.00968 0.0014 0.00125 -.00009 -.00044
O25 O2- 0.00188 0.00677 0.00164 0.00094 0.00027 -.00126
O26 O2- 0.00152 0.01065 0.00227 -.0009 0.00017 -.0007
O27 O2- 0.00078 0.01376 0.00182 0.00051 0.00015 0.0004
O28 O2- 0.00091 0.01067 0.00104 0.00061 0.00012 0.00043
O29 O2- 0.00066 0.0097 0.00076 0.00102 -.00017 0.00185
O30 O2- 0.00119 0.00889 0.00116 -.00035 0 0.0004
#End of TTdata_638-ICSD