
#(C) 2018 by FIZ Karlsruhe - Leibniz Institute for Information Infrastructure.  All rights reserved.
data_64962-ICSD
_database_code_ICSD 64962
_audit_creation_date 1998-06-26
_audit_update_record 2008-02-01
_chemical_name_systematic 'Lithium tecto-alumotetrasilicate'
_chemical_formula_structural 'Li (Al Si4 O10)'
_chemical_formula_sum 'Al1 Li1 O10 Si4'
_chemical_name_structure_type LiAlSi4O10
_chemical_name_mineral 'Petalite 1M'
_exptl_crystal_density_diffrn 2.4
_publ_section_title

;
Petalit, Li Al Si4 O10: Verfeinerung der Kristallstruktur, Diskussion der
Raumgruppe und Infrarot-Messung
;
loop_
_citation_id
_citation_journal_full
_citation_year
_citation_journal_volume
_citation_page_first
_citation_page_last
_citation_journal_id_ASTM
primary
'TMPM. Tschermaks Mineralogische und Petrographische Mitteilungen (1979-)' 1980 27 129 142 TTMMDZ
loop_
_publ_author_name
'Effenberger, H.'
_cell_length_a 11.7540(11)
_cell_length_b 5.1395(5)
_cell_length_c 7.6296(7)
_cell_angle_alpha 90.
_cell_angle_beta 113.04(1)
_cell_angle_gamma 90.
_cell_volume 424.14
_cell_formula_units_Z 2
_symmetry_space_group_name_H-M 'P 1 a 1'
_symmetry_Int_Tables_number 7
_refine_ls_R_factor_all 0.028
loop_
_symmetry_equiv_pos_site_id
_symmetry_equiv_pos_as_xyz
1 'x+1/2, -y, z'
2 'x, y, z'
loop_
_atom_type_symbol
_atom_type_oxidation_number
Li1+ 1
Al3+ 3
Si4+ 4
O2- -2
loop_
_atom_site_label
_atom_site_type_symbol
_atom_site_symmetry_multiplicity
_atom_site_Wyckoff_symbol
_atom_site_fract_x
_atom_site_fract_y
_atom_site_fract_z
_atom_site_B_iso_or_equiv
_atom_site_occupancy
_atom_site_attached_hydrogens
Li1 Li1+ 2 a 0.2456(20) 0.2579(10) 0.9961(27) . 1. 0
Al1 Al3+ 2 a 0.25 0.75662(12) 0 . 1. 0
Si1 Si4+ 2 a 0.9986(3) 0.5125(4) 0.2888(4) . 1. 0
Si2 Si4+ 2 a 0.5023(3) 0.5129(4) 0.7093(4) . 1. 0
Si3 Si4+ 2 a 0.1484(3) 0.0110(4) 0.2888(4) . 1. 0
Si4 Si4+ 2 a 0.3528(3) 0.0087(4) 0.7094(4) . 1. 0
O1 O2- 2 a 0.0056(8) 0.4972(22) 0.5004(9) . 1. 0
O2 O2- 2 a 0.2519(7) 0.9642(5) 0.4888(8) . 1. 0
O3 O2- 2 a 0.0967(4) 0.3025(10) 0.2696(7) . 1. 0
O4 O2- 2 a 0.4095(5) 0.3005(11) 0.7304(8) . 1. 0
O5 O2- 2 a 0.3633(5) 0.5385(13) 0.1394(7) . 1. 0
O6 O2- 2 a 0.1394(4) 0.5337(11) 0.8696(6) . 1. 0
O7 O2- 2 a 0.0395(5) 0.7970(11) 0.2470(8) . 1. 0
O8 O2- 2 a 0.4334(5) 0.8043(10) 0.7426(8) . 1. 0
O9 O2- 2 a 0.2074(5) 0.9768(9) 0.1326(7) . 1. 0
O10 O2- 2 a 0.2925(5) 0.9788(12) 0.8625(7) . 1. 0
loop_
_atom_site_aniso_label
_atom_site_aniso_type_symbol
_atom_site_aniso_beta_11
_atom_site_aniso_beta_22
_atom_site_aniso_beta_33
_atom_site_aniso_beta_12
_atom_site_aniso_beta_13
_atom_site_aniso_beta_23
Li1 Li1+ 0.0043(5) 0.007(13) 0.0098(9) -.0014(5) 0.0022(5) 0.0070(22)
Al1 Al3+ 0.00108(3) 0.00553(17) 0.00265(8) -.0013(3) 0.00071(4) -.0020(4)
Si1 Si4+ 0.00127(10) 0.0067(6) 0.0032(2) -.0006(2) 0.00084(10) -.0009(3)
Si2 Si4+ 0.00087(9) 0.0052(6) 0.0022(2) -.0002(2) 0.00052(10) 0.0001(3)
Si3 Si4+ 0.00126(11) 0.0066(6) 0.0031(2) 0.0000(2) 0.0011(1) -.0007(3)
Si4 Si4+ 0.00091(10) 0.0048(6) 0.0024(2) -.0001(2) 0.0003(1) 0.0001(3)
O1 O2- 0.0040(2) 0.0265(8) 0.0040(2) -.0001(3) 0.0024(2) -.0002(4)
O2 O2- 0.00294(12) 0.0218(7) 0.0011(3) -.0011(6) -.0002(2) -.0005(7)
O3 O2- 0.0019(2) 0.0072(15) 0.0075(6) 0.0004(5) 0.0021(3) -.0013(9)
O4 O2- 0.0033(3) 0.0063(16) 0.0131(9) -.0016(6) 0.0040(5) -.0002(10)
O5 O2- 0.0022(3) 0.0115(14) 0.0080(6) 0.0008(6) 0.0018(3) -.0007(9)
O6 O2- 0.0009(2) 0.0076(11) 0.0023(4) -.0009(6) -.0010(5) -.0017(2)
O7 O2- 0.0025(3) 0.0098(15) 0.0067(5) -.0016(5) 0.0010(3) 0.0005(8)
O8 O2- 0.0015(2) 0.0043(12) 0.0105(7) 0.0005(4) 0.0016(3) 0.0003(8)
O9 O2- 0.0036(3) 0.0032(12) 0.0060(5) 0.0009(5) 0.0041(3) 0.0012(7)
O10 O2- 0.0023(3) 0.0163(17) 0.0046(5) -.0007(6) 0.0012(3) 0.0021(9)
#End of TTdata_64962-ICSD