
#(C) 2018 by FIZ Karlsruhe - Leibniz Institute for Information Infrastructure.  All rights reserved.
data_65051-ICSD
_database_code_ICSD 65051
_audit_creation_date 1989-06-19
_audit_update_record 2012-08-01
_chemical_name_systematic 'Lithium titanium indium phosphate (2.08/.92/1.08/3)'
_chemical_formula_structural 'Li2.08 Ti.92 In1.08 (P O4)3'
_chemical_formula_sum 'In1.08 Li2.08 O12 P3 Ti0.92'
_chemical_name_structure_type Li2Mn2(SO4)3
_exptl_crystal_density_diffrn 3.35
_publ_section_title
'Structure of the orthorhombic phase of Li1+x Ti2-x Inx P3 O12, x=1.08'
loop_
_citation_id
_citation_journal_full
_citation_year
_citation_journal_volume
_citation_page_first
_citation_page_last
_citation_journal_id_ASTM
primary 'Acta Crystallographica, Section C: Crystal Structure Communications'
1988 44 1360 1362 ACSCEE
loop_
_publ_author_name
'Duc Tran Qui'
'Hamdoune, S.'
_cell_length_a 8.647(2)
_cell_length_b 8.807(2)
_cell_length_c 24.328(3)
_cell_angle_alpha 90.
_cell_angle_beta 90.
_cell_angle_gamma 90.
_cell_volume 1852.68
_cell_formula_units_Z 8
_symmetry_space_group_name_H-M 'P b c a'
_symmetry_Int_Tables_number 61
_refine_ls_R_factor_all 0.047
loop_
_symmetry_equiv_pos_site_id
_symmetry_equiv_pos_as_xyz
1 'x+1/2, y, -z+1/2'
2 'x, -y+1/2, z+1/2'
3 '-x+1/2, y+1/2, z'
4 '-x, -y, -z'
5 '-x+1/2, -y, z+1/2'
6 '-x, y+1/2, -z+1/2'
7 'x+1/2, -y+1/2, -z'
8 'x, y, z'
loop_
_atom_type_symbol
_atom_type_oxidation_number
Ti4+ 4
In3+ 3
Ti4+ 4
In3+ 3
P5+ 5
O2- -2
Li1+ 1
loop_
_atom_site_label
_atom_site_type_symbol
_atom_site_symmetry_multiplicity
_atom_site_Wyckoff_symbol
_atom_site_fract_x
_atom_site_fract_y
_atom_site_fract_z
_atom_site_B_iso_or_equiv
_atom_site_occupancy
_atom_site_attached_hydrogens
Ti1 Ti4+ 8 c 0.49870(6) 0.79281(3) 0.43007(2) 0.874(6) 0.46 0
In1 In3+ 8 c 0.49870(6) 0.79281(3) 0.43007(2) 0.874(6) 0.54 0
Ti2 Ti4+ 8 c 0.50048(4) 0.21574(3) 0.32154(1) 0.903(5) 0.46 0
In2 In3+ 8 c 0.50048(4) 0.21574(3) 0.32154(1) 0.903(5) 0.54 0
P1 P5+ 8 c 0.2915(1) 0.4925(1) 0.62107(4) 1.07(2) 1. 0
P2 P5+ 8 c 0.1418(1) 0.1438(1) 0.79968(4) 0.94(2) 1. 0
P3 P5+ 8 c 0.3434(1) 0.3679(1) 0.94828(4) 1.18(2) 1. 0
O1 O2- 8 c 0.2012(4) 0.3889(4) 0.6582(2) 3.55(7) 1. 0
O2 O2- 8 c 0.0950(4) 0.0768(4) 0.6572(1) 2.47(6) 1. 0
O3 O2- 8 c 0.3892(4) 0.3270(5) 0.8914(1) 3.78(8) 1. 0
O4 O2- 8 c 0.3864(4) 0.5357(3) 0.9598(1) 2.23(6) 1. 0
O5 O2- 8 c 0.3115(4) 0.4026(4) 0.0882(2) 3.44(7) 1. 0
O6 O2- 8 c 0.4262(4) 0.2329(3) 0.4893(1) 2.83(7) 1. 0
O7 O2- 8 c 0.3812(4) 0.4021(4) 0.5787(2) 3.43(7) 1. 0
O8 O2- 8 c 0.5834(4) 0.2623(3) 0.7407(1) 2.43(6) 1. 0
O9 O2- 8 c 0.4191(3) 0.4874(3) 0.7839(1) 1.77(5) 1. 0
O10 O2- 8 c 0.0822(4) 0.1945(5) -.1444(1) 2.79(6) 1. 0
O11 O2- 8 c 0.3175(3) 0.1391(3) -.2014(1) 1.90(5) 1. 0
O12 O2- 8 c 0.1693(3) 0.1513(4) 0.4565(1) 2.28(6) 1. 0
Li1 Li1+ 8 c 0.038(1) 0.038(1) 0.2881(4) 2.0(2) 1. 0
Li2 Li1+ 8 c 0.6785(8) 0.501(2) 0.5020(5) 3.6(6) 1. 0
#End of TTdata_65051-ICSD