
#(C) 2018 by FIZ Karlsruhe - Leibniz Institute for Information Infrastructure.  All rights reserved.
data_65126-ICSD
_database_code_ICSD 65126
_audit_creation_date 1989-06-19
_audit_update_record 2005-10-01
_chemical_name_systematic 'Lithium alumogermanate - alpha'
_chemical_formula_structural 'Li (Al Ge O4)'
_chemical_formula_sum 'Al1 Ge1 Li1 O4'
_chemical_name_structure_type Be2SiO4
_exptl_crystal_density_diffrn 3.38
_publ_section_title

;
Crystal structures of alpha-Li Ga Si O4, alpha-Li Al Ge O4, and alpha-Li Ga Ge
O4
;
loop_
_citation_id
_citation_journal_full
_citation_year
_citation_journal_volume
_citation_page_first
_citation_page_last
_citation_journal_id_ASTM
primary 'Zeitschrift fuer Kristallographie (1979-2010)' 1987 180 63 75 ZEKRDZ
loop_
_publ_author_name
'Fleet, M.E.'
_cell_length_a 13.7683(9)
_cell_length_b 13.7683(9)
_cell_length_c 9.1919(5)
_cell_angle_alpha 90.
_cell_angle_beta 90.
_cell_angle_gamma 120.
_cell_volume 1509.03
_cell_formula_units_Z 18
_symmetry_space_group_name_H-M 'R -3 H'
_symmetry_Int_Tables_number 148
_refine_ls_R_factor_all 0.033
loop_
_symmetry_equiv_pos_site_id
_symmetry_equiv_pos_as_xyz
1 'x-y, x, -z'
2 'y, -x+y, -z'
3 '-x, -y, -z'
4 '-x+y, -x, z'
5 '-y, x-y, z'
6 'x, y, z'
7 'x-y+2/3, x+1/3, -z+1/3'
8 'y+2/3, -x+y+1/3, -z+1/3'
9 '-x+2/3, -y+1/3, -z+1/3'
10 '-x+y+2/3, -x+1/3, z+1/3'
11 '-y+2/3, x-y+1/3, z+1/3'
12 'x+2/3, y+1/3, z+1/3'
13 'x-y+1/3, x+2/3, -z+2/3'
14 'y+1/3, -x+y+2/3, -z+2/3'
15 '-x+1/3, -y+2/3, -z+2/3'
16 '-x+y+1/3, -x+2/3, z+2/3'
17 '-y+1/3, x-y+2/3, z+2/3'
18 'x+1/3, y+2/3, z+2/3'
loop_
_atom_type_symbol
_atom_type_oxidation_number
Li1+ 1
Al3+ 3
Ge4+ 4
Al3+ 3
Ge4+ 4
O2- -2
loop_
_atom_site_label
_atom_site_type_symbol
_atom_site_symmetry_multiplicity
_atom_site_Wyckoff_symbol
_atom_site_fract_x
_atom_site_fract_y
_atom_site_fract_z
_atom_site_B_iso_or_equiv
_atom_site_occupancy
_atom_site_attached_hydrogens
Li1 Li1+ 18 f 0.4578(3) 0.1424(3) 0.0866(4) 1.16(7) 1. 0
Al1 Al3+ 18 f 0.12113(4) 0.47022(4) 0.08350(3) . 0.5 0
Ge1 Ge4+ 18 f 0.12113(4) 0.47022(4) 0.08350(3) . 0.5 0
Al2 Al3+ 18 f 0.01731(4) 0.21366(4) 0.08289(3) . 0.5 0
Ge2 Ge4+ 18 f 0.01731(4) 0.21366(4) 0.08289(3) . 0.5 0
O1 O2- 18 f 0.5393(2) 0.4129(2) 0.0834(2) . 1. 0
O2 O2- 18 f 0.0036(2) 0.3346(2) 0.0833(2) . 1. 0
O3 O2- 18 f 0.2135(2) 0.1186(2) 0.0725(2) . 1. 0
O4 O2- 18 f 0.2420(2) 0.4550(2) 0.0938(2) . 1. 0
loop_
_atom_site_aniso_label
_atom_site_aniso_type_symbol
_atom_site_aniso_U_11
_atom_site_aniso_U_22
_atom_site_aniso_U_33
_atom_site_aniso_U_12
_atom_site_aniso_U_13
_atom_site_aniso_U_23
Al1 Al3+ 0.53(1) 0.44(1) 0.35(1) 0.26(1) -.02(1) 0.00(1)
Ge1 Ge4+ 0.53(1) 0.44(1) 0.35(1) 0.26(1) -.02(1) 0.00(1)
Al2 Al3+ 0.47(1) 0.50(1) 0.37(1) 0.27(1) -.03(1) 0.00(1)
Ge2 Ge4+ 0.47(1) 0.50(1) 0.37(1) 0.27(1) -.03(1) 0.00(1)
O1 O2- 0.98(8) 1.86(9) 0.95(6) 0.76(6) -.02(5) -.01(6)
O2 O2- 0.48(6) 0.50(6) 0.78(4) 0.01(5) 0.10(5) 0.03(5)
O3 O2- 1.08(7) 0.82(7) 1.55(7) 0.32(6) -.28(6) 0.03(5)
O4 O2- 1.69(8) 1.31(7) 1.48(7) 1.23(7) -.54(6) -.36(6)
#End of TTdata_65126-ICSD