
#(C) 2017 by FIZ Karlsruhe - Leibniz Institute for Information Infrastructure.  All rights reserved.
data_65404-ICSD
_database_code_ICSD 65404
_audit_creation_date 1989-12-04
_chemical_name_systematic 'Bismuth lithium fluoride'
_chemical_formula_structural 'Bi Li F4'
_chemical_formula_sum 'Bi1 F4 Li1'
_chemical_name_structure_type Scheelite-CaWO4
_exptl_crystal_density_diffrn 6.1
_publ_section_title 'Single crystal growth and structure analysis of Bi Li F4'
loop_
_citation_id
_citation_journal_full
_citation_year
_citation_journal_volume
_citation_page_first
_citation_page_last
_citation_journal_id_ASTM
primary 'Journal of Crystal Growth' 1987 80 261 269 JCRGAE
loop_
_publ_author_name
'Schultheiss, E.'
'Scharmann, A.'
'Schwabe, D.'
_cell_length_a 5.301
_cell_length_b 5.301
_cell_length_c 11.319
_cell_angle_alpha 90.
_cell_angle_beta 90.
_cell_angle_gamma 90.
_cell_volume 318.07
_cell_formula_units_Z 4
_symmetry_space_group_name_H-M 'I 41/a S'
_symmetry_Int_Tables_number 88
_refine_ls_R_factor_all 0.09
loop_
_symmetry_equiv_pos_site_id
_symmetry_equiv_pos_as_xyz
1 'y, -x+1/2, z+1/4'
2 '-y, x+1/2, z+1/4'
3 'y, -x, -z'
4 '-y, x, -z'
5 '-x, -y+1/2, -z+1/4'
6 'x, y+1/2, -z+1/4'
7 '-x, -y, z'
8 'x, y, z'
9 'y+1/2, -x, z+3/4'
10 '-y+1/2, x, z+3/4'
11 'y+1/2, -x+1/2, -z+1/2'
12 '-y+1/2, x+1/2, -z+1/2'
13 '-x+1/2, -y, -z+3/4'
14 'x+1/2, y, -z+3/4'
15 '-x+1/2, -y+1/2, z+1/2'
16 'x+1/2, y+1/2, z+1/2'
loop_
_atom_type_symbol
_atom_type_oxidation_number
Bi3+ 3
Li1+ 1
F1- -1
loop_
_atom_site_label
_atom_site_type_symbol
_atom_site_symmetry_multiplicity
_atom_site_Wyckoff_symbol
_atom_site_fract_x
_atom_site_fract_y
_atom_site_fract_z
_atom_site_B_iso_or_equiv
_atom_site_occupancy
_atom_site_attached_hydrogens
Bi1 Bi3+ 4 a 0 0 0 . 1. 0
Li1 Li1+ 4 b 0 0 0.5 . 1. 0
F1 F1- 16 f 0.226 0.152 0.171 . 1. 0
#End of TTdata_65404-ICSD