
#(C) 2018 by FIZ Karlsruhe - Leibniz Institute for Information Infrastructure.  All rights reserved.
data_65736-ICSD
_database_code_ICSD 65736
_audit_creation_date 1990-06-08
_chemical_name_systematic 'Lithium copper tantalum oxide (1.2/.8/2/6)'
_chemical_formula_structural '(Li1.2 Cu.8) Ta2 O6'
_chemical_formula_sum 'Cu0.8 Li1.2 O6 Ta2'
_chemical_name_structure_type LiNbO3
_exptl_crystal_density_diffrn 8.04
_publ_section_title

;
A new lithium insertion compound, (Li, Cu) Ta O3, with the Li Nb O3 type
structure
;
loop_
_citation_id
_citation_journal_full
_citation_year
_citation_journal_volume
_citation_page_first
_citation_page_last
_citation_journal_id_ASTM
primary 'Inorganic Chemistry' 1989 28 3592 3595 INOCAJ
loop_
_publ_author_name
'Kumada, N.'
'Hosoda, S.'
'Muto, F.'
'Kinomura, N.'
_cell_length_a 5.176(2)
_cell_length_b 5.176(2)
_cell_length_c 13.81(1)
_cell_angle_alpha 90.
_cell_angle_beta 90.
_cell_angle_gamma 120.
_cell_volume 320.42
_cell_formula_units_Z 3
_symmetry_space_group_name_H-M 'R 3 c H'
_symmetry_Int_Tables_number 161
_refine_ls_R_factor_all 0.045
loop_
_symmetry_equiv_pos_site_id
_symmetry_equiv_pos_as_xyz
1 '-x+y, y, z+1/2'
2 'x, x-y, z+1/2'
3 '-y, -x, z+1/2'
4 '-x+y, -x, z'
5 '-y, x-y, z'
6 'x, y, z'
7 '-x+y+2/3, y+1/3, z+5/6'
8 'x+2/3, x-y+1/3, z+5/6'
9 '-y+2/3, -x+1/3, z+5/6'
10 '-x+y+2/3, -x+1/3, z+1/3'
11 '-y+2/3, x-y+1/3, z+1/3'
12 'x+2/3, y+1/3, z+1/3'
13 '-x+y+1/3, y+2/3, z+1/6'
14 'x+1/3, x-y+2/3, z+1/6'
15 '-y+1/3, -x+2/3, z+1/6'
16 '-x+y+1/3, -x+2/3, z+2/3'
17 '-y+1/3, x-y+2/3, z+2/3'
18 'x+1/3, y+2/3, z+2/3'
loop_
_atom_type_symbol
_atom_type_oxidation_number
Ta5+ 5
Li1+ 1
Cu1+ 1
O2- -2
loop_
_atom_site_label
_atom_site_type_symbol
_atom_site_symmetry_multiplicity
_atom_site_Wyckoff_symbol
_atom_site_fract_x
_atom_site_fract_y
_atom_site_fract_z
_atom_site_B_iso_or_equiv
_atom_site_occupancy
_atom_site_attached_hydrogens
Ta1 Ta5+ 6 a 0 0 0 0.9(3) 1. 0
Li1 Li1+ 6 a 0 0 0.292(2) 1.6(3) 0.6 0
Cu1 Cu1+ 6 a 0 0 0.292(2) 1.6(3) 0.4 0
O1 O2- 18 b 0.071(10) 0.354(20) 0.076(8) 0.27(3) 1. 0
#End of TTdata_65736-ICSD