
#(C) 2017 by FIZ Karlsruhe - Leibniz Institute for Information Infrastructure.  All rights reserved.
data_65734-ICSD
_database_code_ICSD 65734
_audit_creation_date 1990-06-08
_chemical_name_systematic 'Dicesium lithium scandium chloride - V-doped'
_chemical_formula_structural 'Cs2 Li Sc Cl6'
_chemical_formula_sum 'Cl6 Cs2 Li1 Sc1'
_exptl_crystal_density_diffrn 3.18
_publ_section_title

;
Optical spectroscopic and structural properties of V3+ -doped fluoride,
chloride, and bromide elpasolite lattices
;
loop_
_citation_id
_citation_journal_full
_citation_year
_citation_journal_volume
_citation_page_first
_citation_page_last
_citation_journal_id_ASTM
primary 'Inorganic Chemistry' 1989 28 3249 3258 INOCAJ
loop_
_publ_author_name
'Reber, C.'
'Guedel, H.U.'
'Meyer, G.'
'Schleid, T.'
'Daul, C.A.'
_cell_length_a 7.2965(6)
_cell_length_b 7.2965(6)
_cell_length_c 35.989(4)
_cell_angle_alpha 90.
_cell_angle_beta 90.
_cell_angle_gamma 120.
_cell_volume 1659.32
_cell_formula_units_Z 6
_symmetry_space_group_name_H-M 'R -3 m H'
_symmetry_Int_Tables_number 166
_refine_ls_R_factor_all 0.035
loop_
_symmetry_equiv_pos_site_id
_symmetry_equiv_pos_as_xyz
1 'x-y, -y, -z'
2 '-x, -x+y, -z'
3 'y, x, -z'
4 'x-y, x, -z'
5 'y, -x+y, -z'
6 '-x, -y, -z'
7 '-x+y, y, z'
8 'x, x-y, z'
9 '-y, -x, z'
10 '-x+y, -x, z'
11 '-y, x-y, z'
12 'x, y, z'
13 'x-y+2/3, -y+1/3, -z+1/3'
14 '-x+2/3, -x+y+1/3, -z+1/3'
15 'y+2/3, x+1/3, -z+1/3'
16 'x-y+2/3, x+1/3, -z+1/3'
17 'y+2/3, -x+y+1/3, -z+1/3'
18 '-x+2/3, -y+1/3, -z+1/3'
19 '-x+y+2/3, y+1/3, z+1/3'
20 'x+2/3, x-y+1/3, z+1/3'
21 '-y+2/3, -x+1/3, z+1/3'
22 '-x+y+2/3, -x+1/3, z+1/3'
23 '-y+2/3, x-y+1/3, z+1/3'
24 'x+2/3, y+1/3, z+1/3'
25 'x-y+1/3, -y+2/3, -z+2/3'
26 '-x+1/3, -x+y+2/3, -z+2/3'
27 'y+1/3, x+2/3, -z+2/3'
28 'x-y+1/3, x+2/3, -z+2/3'
29 'y+1/3, -x+y+2/3, -z+2/3'
30 '-x+1/3, -y+2/3, -z+2/3'
31 '-x+y+1/3, y+2/3, z+2/3'
32 'x+1/3, x-y+2/3, z+2/3'
33 '-y+1/3, -x+2/3, z+2/3'
34 '-x+y+1/3, -x+2/3, z+2/3'
35 '-y+1/3, x-y+2/3, z+2/3'
36 'x+1/3, y+2/3, z+2/3'
loop_
_atom_type_symbol
_atom_type_oxidation_number
Cs1+ 1
Li1+ 1
Sc3+ 3
Cl1- -1
loop_
_atom_site_label
_atom_site_type_symbol
_atom_site_symmetry_multiplicity
_atom_site_Wyckoff_symbol
_atom_site_fract_x
_atom_site_fract_y
_atom_site_fract_z
_atom_site_B_iso_or_equiv
_atom_site_occupancy
_atom_site_attached_hydrogens
Cs1 Cs1+ 6 c 0 0 0.12636(2) . 1. 0
Cs2 Cs1+ 6 c 0 0 0.28813(2) . 1. 0
Li1 Li1+ 6 c 0 0 0.4089(8) . 1. 0
Sc1 Sc3+ 3 a 0 0 0 . 1. 0
Sc2 Sc3+ 3 b 0 0 0.5 . 1. 0
Cl1 Cl1- 18 h 0.1569(1) -.1569(1) 0.45880(5) . 1. 0
Cl2 Cl1- 18 h 0.1724(1) -.1724(1) 0.62718(5) . 1. 0
loop_
_atom_site_aniso_label
_atom_site_aniso_type_symbol
_atom_site_aniso_U_11
_atom_site_aniso_U_22
_atom_site_aniso_U_33
_atom_site_aniso_U_12
_atom_site_aniso_U_13
_atom_site_aniso_U_23
Cs1 Cs1+ 0.0214(3) 0.0214(3) 0.0235(4) 0.0107(2) 0 0
Cs2 Cs1+ 0.0210(3) 0.0210(3) 0.0251(5) 0.0105(3) 0 0
Li1 Li1+ 0.0384(99) 0.0384(99) 0.033(14) 0.0192(50) 0 0
Sc1 Sc3+ 0.0112(8) 0.0112(8) 0.0089(13) 0.0056(4) 0 0
Sc2 Sc3+ 0.0141(9) 0.0141(9) 0.0088(13) 0.00705(45) 0 0
Cl1 Cl1- 0.0242(7) 0.0242(7) 0.0205(8) 0.0150(8) 0.0026(3) -.0026(3)
Cl2 Cl1- 0.0257(7) 0.0257(7) 0.0243(9) 0.0162(8) -.0048(4) 0.0048(4)
#End of TTdata_65734-ICSD