
#(C) 2018 by FIZ Karlsruhe - Leibniz Institute for Information Infrastructure.  All rights reserved.
data_65761-ICSD
_database_code_ICSD 65761
_audit_creation_date 1990-06-08
_audit_update_record 2012-08-01
_chemical_name_systematic
'Dilithium dimanganese cyclo-hexaphosphate decahydrate'
_chemical_formula_structural 'Li2 Mn2 (P6 O18) (H2 O)10'
_chemical_formula_sum 'H20 Li2 Mn2 O28 P6'
_exptl_crystal_density_diffrn 2.22
_cell_measurement_temperature 294.
_publ_section_title

;
Crystal chemistry of cyclo-hexaphosphates. III. Structure of dilithium
dimanganese cyclo-hexaphosphate decahydrate
;
loop_
_citation_id
_citation_journal_full
_citation_year
_citation_journal_volume
_citation_page_first
_citation_page_last
_citation_journal_id_ASTM
primary 'Acta Crystallographica, Section C: Crystal Structure Communications'
1989 45 1856 1858 ACSCEE
loop_
_publ_author_name
'Averbuch-Pouchot, M.T.'
_cell_length_a 7.286(5)
_cell_length_b 9.761(7)
_cell_length_c 10.026(6)
_cell_angle_alpha 118.31(5)
_cell_angle_beta 110.62(5)
_cell_angle_gamma 86.27(5)
_cell_volume 583.02
_cell_formula_units_Z 1
_symmetry_space_group_name_H-M 'P -1'
_symmetry_Int_Tables_number 2
_refine_ls_R_factor_all 0.027
loop_
_symmetry_equiv_pos_site_id
_symmetry_equiv_pos_as_xyz
1 '-x, -y, -z'
2 'x, y, z'
loop_
_atom_type_symbol
_atom_type_oxidation_number
Mn2+ 2
Li1+ 1
P5+ 5
O2- -2
H1+ 1
loop_
_atom_site_label
_atom_site_type_symbol
_atom_site_symmetry_multiplicity
_atom_site_Wyckoff_symbol
_atom_site_fract_x
_atom_site_fract_y
_atom_site_fract_z
_atom_site_B_iso_or_equiv
_atom_site_occupancy
_atom_site_attached_hydrogens
Mn1 Mn2+ 2 i -.56256(5) 0.28899(4) 0.19191(4) . 1. 0
Li1 Li1+ 2 i 0.1120(7) 0.3101(5) 0.6684(5) . 1. 0
P1 P5+ 2 i 0.00549(9) -.15256(7) 0.15455(6) . 1. 0
P2 P5+ 2 i -.16798(8) 0.32446(7) 0.10561(6) . 1. 0
P3 P5+ 2 i -.09358(9) -.19103(7) -.30093(6) . 1. 0
O1 O2- 2 i 0.1289(3) 0.0118(2) 0.2211(2) . 1. 0
O2 O2- 2 i -.1376(3) 0.2675(2) -.0623(2) . 1. 0
O3 O2- 2 i -.0275(3) 0.1777(2) -.2937(2) . 1. 0
O4 O2- 2 i 0.1954(3) 0.1636(2) -.0388(2) . 1. 0
O5 O2- 2 i 0.0467(3) 0.5224(2) 0.7719(2) . 1. 0
O6 O2- 2 i -.3857(3) 0.3108(2) 0.0656(2) . 1. 0
O7 O2- 2 i -.7249(3) 0.2834(2) 0.3352(2) . 1. 0
O8 O2- 2 i 0.0238(3) 0.2345(2) -.5634(2) . 1. 0
O9 O2- 2 i -.0854(3) 0.1897(2) 0.1504(2) . 1. 0
O10 O2- 2 i 0.6076(3) 0.7076(2) 0.2379(2) . 1. 0
O11 O2- 2 i 0.3707(4) 0.9771(3) 0.5613(3) . 1. 0
O12 O2- 2 i 0.6919(3) 0.4029(3) 0.4212(3) . 1. 0
O13 O2- 2 i 0.6578(3) 0.4817(3) 0.7596(3) . 1. 0
O14 O2- 2 i -.5398(3) -.0695(2) -.1746(2) . 1. 0
H1 H1+ 2 i 0.554(7) 0.690(5) 0.147(5) 3.(1) 1. 0
H2 H1+ 2 i 0.617(7) 0.798(5) 0.304(5) 3.(1) 1. 0
H3 H1+ 2 i 0.65(1) 0.932(8) 0.375(8) 9.(2) 1. 0
H4 H1+ 2 i 0.252(8) 0.921(6) 0.473(6) 4.(1) 1. 0
H5 H1+ 2 i 0.698(7) 0.495(5) 0.496(5) 3.(1) 1. 0
H6 H1+ 2 i 0.217(7) 0.632(5) 0.559(5) 3.(1) 1. 0
H7 H1+ 2 i 0.747(6) 0.471(5) 0.768(5) 2.(1) 1. 0
H8 H1+ 2 i 0.394(7) 0.573(5) 0.246(5) 3.(1) 1. 0
H9 H1+ 2 i 0.392(7) -.022(5) 0.868(5) 2.(1) 1. 0
H10 H1+ 2 i 0.438(8) 0.937(6) 0.746(6) 4.(1) 1. 0
loop_
_atom_site_aniso_label
_atom_site_aniso_type_symbol
_atom_site_aniso_beta_11
_atom_site_aniso_beta_22
_atom_site_aniso_beta_33
_atom_site_aniso_beta_12
_atom_site_aniso_beta_13
_atom_site_aniso_beta_23
Mn1 Mn2+ 0.00575(6) 0.00480(3) 0.00497(3) 0.00009(4) 0.00234(3) 0.00233(3)
Li1 Li1+ 0.0101(8) 0.0056(4) 0.0053(4) 0.0000(5) 0.0030(4) 0.0032(3)
P1 P5+ 0.00535(9) 0.00365(5) 0.00359(5) 0.00030(5) 0.00205(5) 0.00193(4)
P2 P5+ 0.00511(9) 0.00357(5) 0.00389(5) 0.00065(5) 0.00215(5) 0.00198(4)
P3 P5+ 0.00529(9) 0.00355(5) 0.00349(5) 0.00025(5) 0.00185(5) 0.00196(4)
O1 O2- 0.0070(3) 0.0035(2) 0.0069(2) 0.0005(2) 0.0027(2) 0.0028(1)
O2 O2- 0.0115(3) 0.0052(2) 0.0054(2) 0.0033(2) 0.0051(2) 0.0035(1)
O3 O2- 0.0108(3) 0.0062(2) 0.0047(1) -.0007(2) 0.0033(2) 0.0032(1)
O4 O2- 0.0064(3) 0.0081(2) 0.0062(2) 0.0004(2) 0.0014(2) 0.0036(2)
O5 O2- 0.0088(3) 0.0038(2) 0.0066(2) 0.0007(2) 0.0026(2) 0.0016(2)
O6 O2- 0.0058(3) 0.0085(2) 0.0069(2) 0.0011(2) 0.0029(2) 0.0048(1)
O7 O2- 0.0067(3) 0.0050(2) 0.0058(2) -.0010(2) 0.0023(2) 0.0025(1)
O8 O2- 0.0096(3) 0.0076(2) 0.0046(2) 0.0013(2) 0.0038(2) 0.0031(2)
O9 O2- 0.0080(3) 0.0044(2) 0.0048(2) 0.0001(2) 0.0011(2) 0.0030(1)
O10 O2- 0.0103(4) 0.0113(2) 0.0101(2) -.0008(3) 0.0010(3) 0.0075(2)
O11 O2- 0.0175(5) 0.0143(3) 0.0101(2) -.0017(4) 0.0009(3) 0.0072(2)
O12 O2- 0.0089(4) 0.0082(3) 0.0069(2) 0.0006(3) 0.0012(3) 0.0008(2)
O13 O2- 0.0154(4) 0.0117(2) 0.0346(3) 0.0074(3) 0.0169(3) 0.0164(2)
O14 O2- 0.0148(4) 0.0073(2) 0.0094(2) 0.0040(3) 0.0065(2) 0.0051(2)
#End of TTdata_65761-ICSD