
#(C) 2018 by FIZ Karlsruhe - Leibniz Institute for Information Infrastructure.  All rights reserved.
data_65930-ICSD
_database_code_ICSD 65930
_audit_creation_date 1990-12-27
_audit_update_record 1998-06-26
_chemical_name_systematic 'Dilithium tetraborate'
_chemical_formula_structural 'Li2 (B4 O7)'
_chemical_formula_sum 'B4 Li2 O7'
_chemical_name_structure_type Li2B4O7
_chemical_name_mineral Diomignite
_exptl_crystal_density_diffrn 2.43
_publ_section_title
'Atomic structure and electron density of lithium tetraborate Li2 B4 O7'
loop_
_citation_id
_citation_journal_full
_citation_year
_citation_journal_volume
_citation_page_first
_citation_page_last
_citation_journal_id_ASTM
primary Kristallografiya 1989 34 1400 1407 KRISAJ
loop_
_publ_author_name
'Radaev, S.F.'
'Muradyan, L.A.'
'Malakhova, L.F.'
'Burak, Ya.V.'
'Simonov, V.I.'
_cell_length_a 9.479(3)
_cell_length_b 9.479(3)
_cell_length_c 10.290(4)
_cell_angle_alpha 90.
_cell_angle_beta 90.
_cell_angle_gamma 90.
_cell_volume 924.57
_cell_formula_units_Z 8
_symmetry_space_group_name_H-M 'I 41 c d'
_symmetry_Int_Tables_number 110
_refine_ls_R_factor_all 0.0133
loop_
_symmetry_equiv_pos_site_id
_symmetry_equiv_pos_as_xyz
1 '-y, -x+1/2, z+3/4'
2 '-y, x+1/2, z+1/4'
3 'x, -y, z+1/2'
4 '-x, -y, z'
5 'y, x+1/2, z+3/4'
6 'y, -x+1/2, z+1/4'
7 '-x, y, z+1/2'
8 'x, y, z'
9 '-y+1/2, -x, z+1/4'
10 '-y+1/2, x, z+3/4'
11 'x+1/2, -y+1/2, z'
12 '-x+1/2, -y+1/2, z+1/2'
13 'y+1/2, x, z+1/4'
14 'y+1/2, -x, z+3/4'
15 '-x+1/2, y+1/2, z'
16 'x+1/2, y+1/2, z+1/2'
loop_
_atom_type_symbol
_atom_type_oxidation_number
Li1+ 1
B3+ 3
O2- -2
loop_
_atom_site_label
_atom_site_type_symbol
_atom_site_symmetry_multiplicity
_atom_site_Wyckoff_symbol
_atom_site_fract_x
_atom_site_fract_y
_atom_site_fract_z
_atom_site_B_iso_or_equiv
_atom_site_occupancy
_atom_site_attached_hydrogens
Li1 Li1+ 16 b 0.1497(2) 0.1651(2) 0.8508(2) 2.18(4) 1. 0
B1 B3+ 16 b 0.1681(1) 0.0861(1) 0.2007(1) 0.62(1) 1. 0
B2 B3+ 16 b 0.9463(1) 0.1125(1) 0.0824(1) 0.63(1) 1. 0
O1 O2- 16 b 0.2817(1) 0.1372(1) 0.2653(1) 0.753(8) 1. 0
O2 O2- 16 b 0.0671(1) 0.1776(1) 0.1562(1) 0.772(8) 1. 0
O3 O2- 16 b 0.1562(1) -.0568(1) 0.1811(1) 0.725(8) 1. 0
O4 O2- 8 a 0 0 0 0.70(1) 1. 0
#End of TTdata_65930-ICSD