
#(C) 2018 by FIZ Karlsruhe - Leibniz Institute for Information Infrastructure.  All rights reserved.
data_66375-ICSD
_database_code_ICSD 66375
_audit_creation_date 1993-01-06
_chemical_name_systematic 'Lithium nickel(I) strontium nitride (4.8/.2/2/3)'
_chemical_formula_structural '(Li.78 Ni.22) Li4 Sr2 N3'
_chemical_formula_sum 'Li4.78 N3 Ni0.22 Sr2'
_exptl_crystal_density_diffrn 2.86
_publ_section_title
'(Li1-xNix)Li4Sr2N3: an "intergrowth-structure" of (Li1-xNix)SrN and Li4SrN2'
loop_
_citation_id
_citation_journal_full
_citation_year
_citation_journal_volume
_citation_page_first
_citation_page_last
_citation_journal_id_ASTM
primary 'Journal of Alloys and Compounds' 1992 179 333 338 JALCEU
loop_
_publ_author_name
'Gudat, A.'
'Kniep, R.'
_cell_length_a 3.767(1)
_cell_length_b 20.739(3)
_cell_length_c 3.916(1)
_cell_angle_alpha 90.
_cell_angle_beta 90.
_cell_angle_gamma 90.
_cell_volume 305.93
_cell_formula_units_Z 2
_symmetry_space_group_name_H-M 'C m m m'
_symmetry_Int_Tables_number 65
_refine_ls_R_factor_all 0.047
loop_
_symmetry_equiv_pos_site_id
_symmetry_equiv_pos_as_xyz
1 'x, -y, z'
2 '-x, y, z'
3 'x, y, -z'
4 '-x, -y, -z'
5 '-x, y, -z'
6 'x, -y, -z'
7 '-x, -y, z'
8 'x, y, z'
9 'x+1/2, -y+1/2, z'
10 '-x+1/2, y+1/2, z'
11 'x+1/2, y+1/2, -z'
12 '-x+1/2, -y+1/2, -z'
13 '-x+1/2, y+1/2, -z'
14 'x+1/2, -y+1/2, -z'
15 '-x+1/2, -y+1/2, z'
16 'x+1/2, y+1/2, z'
loop_
_atom_type_symbol
_atom_type_oxidation_number
Sr2+ 2
Ni1+ 1
Li1+ 1
N3- -3
Li1+ 1
loop_
_atom_site_label
_atom_site_type_symbol
_atom_site_symmetry_multiplicity
_atom_site_Wyckoff_symbol
_atom_site_fract_x
_atom_site_fract_y
_atom_site_fract_z
_atom_site_B_iso_or_equiv
_atom_site_occupancy
_atom_site_attached_hydrogens
Sr1 Sr2+ 4 i 0 0.0867(1) 0 . 1. 0
Ni1 Ni1+ 2 c 0.5 0 0.5 . 0.220(7) 0
Li1 Li1+ 2 c 0.5 0 0.5 . 0.780(7) 0
N1 N3- 4 i 0 0.3245(3) 0 . 1. 0
N2 N3- 2 d 0 0 0.5 . 1. 0
Li2 Li1+ 4 i 0 0.2225(6) 0 0.0101(22) 1. 0
Li3 Li1+ 4 j 0.5 0.1802(7) 0.5 0.0154(28) 1. 0
loop_
_atom_site_aniso_label
_atom_site_aniso_type_symbol
_atom_site_aniso_U_11
_atom_site_aniso_U_22
_atom_site_aniso_U_33
_atom_site_aniso_U_12
_atom_site_aniso_U_13
_atom_site_aniso_U_23
Sr1 Sr2+ 0.0088(3) 0.0086(2) 0.0090(3) 0 0 0
Ni1 Ni1+ 0.0082(22) 0.0081(20) 0.0050(21) 0 0 0
Li1 Li1+ 0.0082(22) 0.0081(20) 0.0050(21) 0 0 0
N1 N3- 0.0084(26) 0.0142(24) 0.0096(28) 0 0 0
N2 N3- 0.0185(42) 0.0115(32) 0.0060(36) 0 0 0
#End of TTdata_66375-ICSD