
#(C) 2018 by FIZ Karlsruhe - Leibniz Institute for Information Infrastructure.  All rights reserved.
data_66387-ICSD
_database_code_ICSD 66387
_audit_creation_date 1993-01-06
_chemical_name_systematic 'Lithium calcium phosphate'
_chemical_formula_structural 'Li Ca (P O4)'
_chemical_formula_sum 'Ca1 Li1 O4 P1'
_chemical_name_structure_type LiNaSO4
_exptl_crystal_density_diffrn 2.89
_publ_section_title

;
Synthesis and structure of LiCaPO4 by combined x-ray and neutron powder
diffraction
;
loop_
_citation_id
_citation_journal_full
_citation_year
_citation_journal_volume
_citation_page_first
_citation_page_last
_citation_journal_id_ASTM
primary 'Journal of Materials Chemistry' 1991 1 1061 1063 JMACEP
loop_
_publ_author_name
'Lightfoot, P.'
'Pienkowski, M.C.'
'Bruce, P.G.'
'Abrahams, I.'
_cell_length_a 7.5247(1)
_cell_length_b 7.5247(1)
_cell_length_c 9.9657(2)
_cell_angle_alpha 90.
_cell_angle_beta 90.
_cell_angle_gamma 120.
_cell_volume 488.67
_cell_formula_units_Z 6
_symmetry_space_group_name_H-M 'P 3 1 c'
_symmetry_Int_Tables_number 159
_refine_ls_R_factor_all 0.0317
loop_
_symmetry_equiv_pos_site_id
_symmetry_equiv_pos_as_xyz
1 '-x, -x+y, z+1/2'
2 'x-y, -y, z+1/2'
3 'y, x, z+1/2'
4 '-x+y, -x, z'
5 '-y, x-y, z'
6 'x, y, z'
loop_
_atom_type_symbol
_atom_type_oxidation_number
Li1+ 1
Ca2+ 2
P5+ 5
O2- -2
loop_
_atom_site_label
_atom_site_type_symbol
_atom_site_symmetry_multiplicity
_atom_site_Wyckoff_symbol
_atom_site_fract_x
_atom_site_fract_y
_atom_site_fract_z
_atom_site_B_iso_or_equiv
_atom_site_occupancy
_atom_site_attached_hydrogens
Li1 Li1+ 6 c 0.035(2) 0.234(2) 0.256(2) 0.019(2) 1. 0
Ca1 Ca2+ 6 c 0.0179(5) 0.5353(5) 0.4775(8) 0.0199(8) 1. 0
P1 P5+ 2 a 0 0 0 0.015(1) 1. 0
P2 P5+ 2 b 0.3333 0.6667 0.185(1) 0.018(1) 1. 0
P3 P5+ 2 b 0.6667 0.3333 0.2575(9) 0.0047(9) 1. 0
O1 O2- 2 a 0 0 0.1554(9) 0.011(1) 1. 0
O2 O2- 2 b 0.3333 0.6667 0.342(2) 0.019(2) 1. 0
O3 O2- 2 b 0.6667 0.3333 0.105(1) 0.022(1) 1. 0
O4 O2- 6 c 0.2249(6) 0.1137(9) -.0512(9) 0.0144(8) 1. 0
O5 O2- 6 c 0.216(1) 0.4518(7) 0.1288(8) 0.0189(8) 1. 0
O6 O2- 6 c 0.4627(9) 0.165(1) 0.310(1) 0.030(1) 1. 0
#End of TTdata_66387-ICSD