
#(C) 2018 by FIZ Karlsruhe - Leibniz Institute for Information Infrastructure.  All rights reserved.
data_66577-ICSD
_database_code_ICSD 66577
_audit_creation_date 1994-01-19
_chemical_name_systematic 'Lithium germanium vanadium oxide (3.5/.5/.5/4)'
_chemical_formula_structural 'Li3.504 (Ge.5 V.5) O4'
_chemical_formula_sum 'Ge0.5 Li3.504 O4 V0.5'
_exptl_crystal_density_diffrn 2.8
_cell_measurement_temperature 573.
_publ_section_title
'Defect clustering in the superionic conductor lithium germanium vanadate'
loop_
_citation_id
_citation_journal_full
_citation_year
_citation_journal_volume
_citation_page_first
_citation_page_last
_citation_journal_id_ASTM
primary 'Acta Crystallographica, Section B: Structural Science' 1991 47 696 701
ASBSDK
loop_
_publ_author_name
'Abrahams, I.'
'Bruce, P.G.'
_cell_length_a 10.9326(2)
_cell_length_b 6.3016(1)
_cell_length_c 5.1593(1)
_cell_angle_alpha 90.
_cell_angle_beta 90.
_cell_angle_gamma 90.
_cell_volume 355.44
_cell_formula_units_Z 4
_symmetry_space_group_name_H-M 'P n m a'
_symmetry_Int_Tables_number 62
_refine_ls_R_factor_all 0.041
loop_
_symmetry_equiv_pos_site_id
_symmetry_equiv_pos_as_xyz
1 'x+1/2, y, -z+1/2'
2 'x, -y+1/2, z'
3 '-x+1/2, y+1/2, z+1/2'
4 '-x, -y, -z'
5 '-x+1/2, -y, z+1/2'
6 '-x, y+1/2, -z'
7 'x+1/2, -y+1/2, -z+1/2'
8 'x, y, z'
loop_
_atom_type_symbol
_atom_type_oxidation_number
Ge4+ 4
V5+ 5
O2- -2
Li1+ 1
loop_
_atom_site_label
_atom_site_type_symbol
_atom_site_symmetry_multiplicity
_atom_site_Wyckoff_symbol
_atom_site_fract_x
_atom_site_fract_y
_atom_site_fract_z
_atom_site_B_iso_or_equiv
_atom_site_occupancy
_atom_site_attached_hydrogens
Ge1 Ge4+ 4 c 0.4121(3) 0.25 0.3389(4) . 0.5 0
V1 V5+ 4 c 0.4121(3) 0.25 0.3389(4) . 0.5 0
O1 O2- 8 d 0.3377(2) 0.0252(2) 0.2228(3) . 1. 0
O2 O2- 4 c 0.0881(2) 0.75 0.1722(4) . 1. 0
O3 O2- 4 c 0.0618(2) 0.25 0.2766(4) . 1. 0
Li1 Li1+ 4 c 0.4257(7) 0.75 0.177(2) . 1. 0
Li2 Li1+ 8 d 0.1667(5) -.0049(8) 0.323(1) 1.5(2) 0.75(2) 0
Li3 Li1+ 8 d 0.163(2) 0.030(3) 0.173(6) 3.3(7) 0.25(2) 0
Li4 Li1+ 4 c 0.216(3) 0.25 -.027(7) 2.8(4) 0.20(1) 0
Li5 Li1+ 8 d 0.023(2) 0.537(4) 0.459(6) 2.8(4) 0.152(6) 0
loop_
_atom_site_aniso_label
_atom_site_aniso_type_symbol
_atom_site_aniso_B_11
_atom_site_aniso_B_22
_atom_site_aniso_B_33
_atom_site_aniso_B_12
_atom_site_aniso_B_13
_atom_site_aniso_B_23
Ge1 Ge4+ 1.2(1) 0.8(1) 1.6(1) 0 0.0(1) 0
V1 V5+ 1.2(1) 0.8(1) 1.6(1) 0 0.0(1) 0
O1 O2- 0.72(7) 1.69(7) 2.94(8) -.41(4) 0.12(6) -.46(6)
O2 O2- 1.88(9) 1.57(8) 1.65(9) 0 -.17(9) 0
O3 O2- 1.00(8) 1.63(9) 2.3(1) 0 -.79(7) 0
Li1 Li1+ 3.0(3) 4.2(4) 8.9(5) 0 -3.6(4) 0
#End of TTdata_66577-ICSD