
#(C) 2018 by FIZ Karlsruhe - Leibniz Institute for Information Infrastructure.  All rights reserved.
data_66940-ICSD
_database_code_ICSD 66940
_audit_creation_date 1998-06-26
_audit_update_record 2013-08-01
_chemical_name_systematic 'Lithium potassium carbonate'
_chemical_formula_structural '(Li0.5 K0.5)2 (C O3)'
_chemical_formula_sum 'C1 K1 Li1 O3'
_chemical_name_structure_type KLiCO3
_exptl_crystal_density_diffrn 2.28
_publ_section_title

;
Crystal structure of (Lix K1-x)2 (C O3) (x= 0, 0.43, 0.5, 0.62, 1) by neutron
powder diffraction analysis
;
loop_
_citation_id
_citation_journal_full
_citation_year
_citation_journal_volume
_citation_page_first
_citation_page_last
_citation_journal_id_ASTM
primary 'Journal of Physics and Chemistry of Solids' 1998 59 363 376 JPCSAW
loop_
_publ_author_name
'Idemoto, Y.'
'Ricardson, J.W.jr.'
'Koura, N.'
'Kohara, S.'
'Loong, C.-K.'
_cell_length_a 7.22806(7)
_cell_length_b 7.08181(8)
_cell_length_c 7.6
_cell_angle_alpha 90.
_cell_angle_beta 127.418(1)
_cell_angle_gamma 90.
_cell_volume 308.97
_cell_formula_units_Z 4
_symmetry_space_group_name_H-M 'P 1 21/c 1'
_symmetry_Int_Tables_number 14
_refine_ls_R_factor_all 0.0381
loop_
_symmetry_equiv_pos_site_id
_symmetry_equiv_pos_as_xyz
1 'x, -y+1/2, z+1/2'
2 '-x, -y, -z'
3 '-x, y+1/2, -z+1/2'
4 'x, y, z'
loop_
_atom_type_symbol
_atom_type_oxidation_number
Li1+ 1
K1+ 1
C4+ 4
O2- -2
loop_
_atom_site_label
_atom_site_type_symbol
_atom_site_symmetry_multiplicity
_atom_site_Wyckoff_symbol
_atom_site_fract_x
_atom_site_fract_y
_atom_site_fract_z
_atom_site_B_iso_or_equiv
_atom_site_occupancy
_atom_site_attached_hydrogens
Li1 Li1+ 4 e 0.4033(10) 0.0723(9) 0.1022(9) . 1. 0
K1 K1+ 4 e -.1721(5) 0.3530(4) 0.1683(5) . 1. 0
C1 C4+ 4 e 0.2940(2) 0.3330(2) 0.2121(2) . 1. 0
O1 O2- 4 e 0.7441(3) -.0232(2) 0.2101(3) . 1. 0
O2 O2- 4 e 0.1606(3) 0.1894(3) 0.1313(3) . 1. 0
O3 O2- 4 e 0.4786(3) 0.3331(3) 0.2203(3) . 1. 0
loop_
_atom_site_aniso_label
_atom_site_aniso_type_symbol
_atom_site_aniso_U_11
_atom_site_aniso_U_22
_atom_site_aniso_U_33
_atom_site_aniso_U_12
_atom_site_aniso_U_13
_atom_site_aniso_U_23
Li1 Li1+ 0.0175(28) 0.0404(37) 0.0238(34) 0.0187(25) 0.0164(28) 0.0157(26)
K1 K1+ 0.0097(15) 0.0171(18) 0.028(2) -.0022(11) 0.0121(15) 0.0010(13)
C1 C4+ 0.0074(7) 0.0056(8) 0.0099(9) -.0061(6) 0.0069(6) -.0096(6)
O1 O2- 0.0152(10) 0.0082(10) 0.0143(11) 0.0006(7) 0.0104(9) 0.0077(8)
O2 O2- 0.0112(10) 0.011(1) 0.0218(12) -.0060(8) 0.0120(9) -.0053(8)
O3 O2- 0.0115(10) 0.0216(11) 0.0291(13) -.0056(9) 0.0164(10) -.0116(10)
#End of TTdata_66940-ICSD