
#(C) 2018 by FIZ Karlsruhe - Leibniz Institute for Information Infrastructure.  All rights reserved.
data_67226-ICSD
_database_code_ICSD 67226
_audit_creation_date 1990-12-27
_chemical_name_systematic 'Lithium magnesium borate'
_chemical_formula_structural 'Li Mg (B O3)'
_chemical_formula_sum 'B1 Li1 Mg1 O3'
_chemical_name_structure_type LiCoBO3
_exptl_crystal_density_diffrn 2.63
_publ_section_title 'The crystal structure of monoclinic LiMgBO3'
loop_
_citation_id
_citation_journal_full
_citation_year
_citation_journal_volume
_citation_page_first
_citation_page_last
_citation_journal_id_ASTM
primary 'Zeitschrift fuer Kristallographie (1979-2010)' 1989 187 103 110 ZEKRDZ
loop_
_publ_author_name
'Norrestam, R.'
_cell_length_a 5.161(1)
_cell_length_b 8.880(2)
_cell_length_c 9.911(2)
_cell_angle_alpha 90.
_cell_angle_beta 91.29(2)
_cell_angle_gamma 90.
_cell_volume 454.1
_cell_formula_units_Z 8
_symmetry_space_group_name_H-M 'C 1 2/c 1'
_symmetry_Int_Tables_number 15
_refine_ls_R_factor_all 0.042
loop_
_symmetry_equiv_pos_site_id
_symmetry_equiv_pos_as_xyz
1 'x, -y, z+1/2'
2 '-x, -y, -z'
3 '-x, y, -z+1/2'
4 'x, y, z'
5 'x+1/2, -y+1/2, z+1/2'
6 '-x+1/2, -y+1/2, -z'
7 '-x+1/2, y+1/2, -z+1/2'
8 'x+1/2, y+1/2, z'
loop_
_atom_type_symbol
_atom_type_oxidation_number
Li1+ 1
Mg2+ 2
B3+ 3
O2- -2
loop_
_atom_site_label
_atom_site_type_symbol
_atom_site_symmetry_multiplicity
_atom_site_Wyckoff_symbol
_atom_site_fract_x
_atom_site_fract_y
_atom_site_fract_z
_atom_site_B_iso_or_equiv
_atom_site_occupancy
_atom_site_attached_hydrogens
Li1 Li1+ 8 f 0.1635(18) 0.4960(14) 0.1538(36) 0.0156(22) 0.57(5) 0
Li2 Li1+ 8 f 0.1635(18) 0.4960(14) 0.1022(44) 0.0156(22) 0.43(5) 0
Mg1 Mg2+ 8 f 0.1621(3) 0.1666(2) 0.1248(2) . 1. 0
B1 B3+ 8 f 0.1661(10) 0.8312(7) 0.1264(5) 0.0062(8) 1. 0
O1 O2- 8 f 0.4073(5) 0.3318(3) 0.0855(3) . 1. 0
O2 O2- 8 f 0.2837(6) 0.6957(3) 0.1638(3) . 1. 0
O3 O2- 8 f 0.3070(6) 0.9611(3) 0.1290(4) . 1. 0
loop_
_atom_site_aniso_label
_atom_site_aniso_type_symbol
_atom_site_aniso_U_11
_atom_site_aniso_U_22
_atom_site_aniso_U_33
_atom_site_aniso_U_12
_atom_site_aniso_U_13
_atom_site_aniso_U_23
Mg1 Mg2+ 0.0084(6) 0.0066(6) 0.0055(8) 0.0015(7) 0.0005(5) 0.0000(7)
O1 O2- 0.0051(11) 0.0095(12) 0.0095(17) -.0005(14) -.0012(11) 0.0000(13)
O2 O2- 0.0083(13) 0.0045(16) 0.0086(18) 0.0000(11) 0.0000(12) -.0009(10)
O3 O2- 0.0089(15) 0.0080(15) 0.0270(21) 0.0011(14) -.0019(14) -.0014(11)
#End of TTdata_67226-ICSD