
#(C) 2017 by FIZ Karlsruhe - Leibniz Institute for Information Infrastructure.  All rights reserved.
data_67233-ICSD
_database_code_ICSD 67233
_audit_creation_date 1990-12-27
_audit_update_record 2006-04-01
_chemical_name_systematic 'Dilithium tetrafluoroberyllate'
_chemical_formula_structural 'Li2 (Be F4)'
_chemical_formula_sum 'Be1 F4 Li2'
_chemical_name_structure_type Be2SiO4
_exptl_crystal_density_diffrn 2.17
_publ_section_title

;
A uniform description of phenakite type structures as superstructures of
beta-Si3N4
;
loop_
_citation_id
_citation_journal_full
_citation_year
_citation_journal_volume
_citation_page_first
_citation_page_last
_citation_journal_id_ASTM
primary 'Zeitschrift fuer Kristallographie (1979-2010)' 1989 187 139 143 ZEKRDZ
loop_
_publ_author_name
'Hartmann, P.'
_cell_length_a 13.29
_cell_length_b 13.29
_cell_length_c 8.91
_cell_angle_alpha 90.
_cell_angle_beta 90.
_cell_angle_gamma 120.
_cell_volume 1362.88
_cell_formula_units_Z 18
_symmetry_space_group_name_H-M 'R -3 H'
_symmetry_Int_Tables_number 148
loop_
_symmetry_equiv_pos_site_id
_symmetry_equiv_pos_as_xyz
1 'x-y, x, -z'
2 'y, -x+y, -z'
3 '-x, -y, -z'
4 '-x+y, -x, z'
5 '-y, x-y, z'
6 'x, y, z'
7 'x-y+2/3, x+1/3, -z+1/3'
8 'y+2/3, -x+y+1/3, -z+1/3'
9 '-x+2/3, -y+1/3, -z+1/3'
10 '-x+y+2/3, -x+1/3, z+1/3'
11 '-y+2/3, x-y+1/3, z+1/3'
12 'x+2/3, y+1/3, z+1/3'
13 'x-y+1/3, x+2/3, -z+2/3'
14 'y+1/3, -x+y+2/3, -z+2/3'
15 '-x+1/3, -y+2/3, -z+2/3'
16 '-x+y+1/3, -x+2/3, z+2/3'
17 '-y+1/3, x-y+2/3, z+2/3'
18 'x+1/3, y+2/3, z+2/3'
loop_
_atom_type_symbol
_atom_type_oxidation_number
Be2+ 2
Li1+ 1
F1- -1
loop_
_atom_site_label
_atom_site_type_symbol
_atom_site_symmetry_multiplicity
_atom_site_Wyckoff_symbol
_atom_site_fract_x
_atom_site_fract_y
_atom_site_fract_z
_atom_site_B_iso_or_equiv
_atom_site_occupancy
_atom_site_attached_hydrogens
Be1 Be2+ 18 f 0.2117 0.1962 0.2493 . 1. 0
Li1 Li1+ 18 f 0.2154 0.1939 0.5816 . 1. 0
Li2 Li1+ 18 f 0.2073 0.191 0.9151 . 1. 0
F1 F1- 18 f 0.3232 0.3173 0.2486 . 1. 0
F2 F1- 18 f 0.2035 0.1285 0.1041 . 1. 0
F3 F1- 18 f 0.2092 0.1274 0.3923 . 1. 0
F4 F1- 18 f 0.2163 0.1105 0.7481 . 1. 0
#End of TTdata_67233-ICSD