
#(C) 2017 by FIZ Karlsruhe - Leibniz Institute for Information Infrastructure.  All rights reserved.
data_67264-ICSD
_database_code_ICSD 67264
_audit_creation_date 1990-12-27
_chemical_name_systematic 'Lithium dioxide tribromide'
_chemical_formula_structural 'Li7 O2 Br3'
_chemical_formula_sum 'Br3 Li7 O2'
_exptl_crystal_density_diffrn 3.02
_publ_section_title

;
Li7O2Br3 - Eine weitere Strukturvariante der neuen
Alkalimetallchalcogenidhalogenid-Perowskite
;
loop_
_citation_id
_citation_journal_full
_citation_year
_citation_journal_volume
_citation_page_first
_citation_page_last
_citation_journal_id_ASTM
primary 'Zeitschrift fuer Naturforschung, B: Chemical Sciences' 1989 44 1348
1350 ZNBSEN
loop_
_publ_author_name
'Wortmann, R.'
'Sitta, S.'
'Sabrowsky, H.'
_cell_length_a 4.035(1)
_cell_length_b 4.035(1)
_cell_length_c 21.61(1)
_cell_angle_alpha 90.
_cell_angle_beta 90.
_cell_angle_gamma 90.
_cell_volume 351.84
_cell_formula_units_Z 2
_symmetry_space_group_name_H-M 'I 4/m m m'
_symmetry_Int_Tables_number 139
loop_
_symmetry_equiv_pos_site_id
_symmetry_equiv_pos_as_xyz
1 'y, x, -z'
2 '-y, -x, -z'
3 '-y, x, -z'
4 'y, -x, -z'
5 '-x, y, -z'
6 'x, -y, -z'
7 'x, y, -z'
8 '-x, -y, -z'
9 '-y, -x, z'
10 'y, x, z'
11 'y, -x, z'
12 '-y, x, z'
13 'x, -y, z'
14 '-x, y, z'
15 '-x, -y, z'
16 'x, y, z'
17 'y+1/2, x+1/2, -z+1/2'
18 '-y+1/2, -x+1/2, -z+1/2'
19 '-y+1/2, x+1/2, -z+1/2'
20 'y+1/2, -x+1/2, -z+1/2'
21 '-x+1/2, y+1/2, -z+1/2'
22 'x+1/2, -y+1/2, -z+1/2'
23 'x+1/2, y+1/2, -z+1/2'
24 '-x+1/2, -y+1/2, -z+1/2'
25 '-y+1/2, -x+1/2, z+1/2'
26 'y+1/2, x+1/2, z+1/2'
27 'y+1/2, -x+1/2, z+1/2'
28 '-y+1/2, x+1/2, z+1/2'
29 'x+1/2, -y+1/2, z+1/2'
30 '-x+1/2, y+1/2, z+1/2'
31 '-x+1/2, -y+1/2, z+1/2'
32 'x+1/2, y+1/2, z+1/2'
loop_
_atom_type_symbol
_atom_type_oxidation_number
Li1+ 1
Br1- -1
O2- -2
loop_
_atom_site_label
_atom_site_type_symbol
_atom_site_symmetry_multiplicity
_atom_site_Wyckoff_symbol
_atom_site_fract_x
_atom_site_fract_y
_atom_site_fract_z
_atom_site_B_iso_or_equiv
_atom_site_occupancy
_atom_site_attached_hydrogens
Li1 Li1+ 8 g 0 0.5 0.0933 . 1. 0
Li2 Li1+ 4 e 0 0 0.1865 . 1. 0
Li3 Li1+ 2 a 0 0 0 . 1. 0
Br1 Br1- 4 e 0 0 0.3134 . 1. 0
Br2 Br1- 2 b 0 0 0.5 . 1. 0
O1 O2- 4 e 0 0 0.0933 . 1. 0
#End of TTdata_67264-ICSD