
#(C) 2018 by FIZ Karlsruhe - Leibniz Institute for Information Infrastructure.  All rights reserved.
data_67536-ICSD
_database_code_ICSD 67536
_audit_creation_date 1993-08-22
_chemical_name_systematic 'Lithium boron silicate'
_chemical_formula_structural 'Li B (Si O4)'
_chemical_formula_sum 'B1 Li1 O4 Si1'
_chemical_name_structure_type LiBGeO4
_exptl_crystal_density_diffrn 2.81
_publ_section_title

;
Hydrothermal Syntheses and Stuctural Refinements of Single Crystal LiBGeO4 and
LiBSiO4
;
loop_
_citation_id
_citation_journal_full
_citation_year
_citation_journal_volume
_citation_page_first
_citation_page_last
_citation_journal_id_ASTM
primary 'Chemistry of Materials' 1992 4 1065 1067 CMATEX
loop_
_publ_author_name
'Parise, J.B.'
'Gier, T.E.'
_cell_length_a 4.3792(2)
_cell_length_b 4.3792(2)
_cell_length_c 6.7784(3)
_cell_angle_alpha 90.
_cell_angle_beta 90.
_cell_angle_gamma 90.
_cell_volume 129.99
_cell_formula_units_Z 2
_symmetry_space_group_name_H-M 'I -4'
_symmetry_Int_Tables_number 82
_refine_ls_R_factor_all 0.029
loop_
_symmetry_equiv_pos_site_id
_symmetry_equiv_pos_as_xyz
1 '-y, x, -z'
2 'y, -x, -z'
3 '-x, -y, z'
4 'x, y, z'
5 '-y+1/2, x+1/2, -z+1/2'
6 'y+1/2, -x+1/2, -z+1/2'
7 '-x+1/2, -y+1/2, z+1/2'
8 'x+1/2, y+1/2, z+1/2'
loop_
_atom_type_symbol
_atom_type_oxidation_number
Si4+ 4
O2- -2
B3+ 3
Li1+ 1
loop_
_atom_site_label
_atom_site_type_symbol
_atom_site_symmetry_multiplicity
_atom_site_Wyckoff_symbol
_atom_site_fract_x
_atom_site_fract_y
_atom_site_fract_z
_atom_site_B_iso_or_equiv
_atom_site_occupancy
_atom_site_attached_hydrogens
Si1 Si4+ 2 a 0 0 0 . 1. 0
O1 O2- 8 g 0.2699(2) 0.1545(2) 0.1285(1) . 1. 0
B1 B3+ 2 c 0 0.5 0.25 . 1. 0
Li1 Li1+ 2 b 0.5 0.5 0 . 1. 0
loop_
_atom_site_aniso_label
_atom_site_aniso_type_symbol
_atom_site_aniso_U_11
_atom_site_aniso_U_22
_atom_site_aniso_U_33
_atom_site_aniso_U_12
_atom_site_aniso_U_13
_atom_site_aniso_U_23
Si1 Si4+ 0.0040(2) 0.0040(2) 0.0046(3) 0 0 0
O1 O2- 0.0066(4) 0.0053(4) 0.0074(5) 0.0000(3) -.0020(3) -.0004(3)
B1 B3+ 0.0037(6) 0.0037(6) 0.0033(10) 0 0 0
Li1 Li1+ 0.013(1) 0.013(1) 0.022(2) 0 0 0
#End of TTdata_67536-ICSD