
#(C) 2017 by FIZ Karlsruhe - Leibniz Institute for Information Infrastructure.  All rights reserved.
data_67543-ICSD
_database_code_ICSD 67543
_audit_creation_date 1993-08-22
_chemical_name_systematic 'Tetralithium terbium(IV) fluoride'
_chemical_formula_structural 'Li4 Tb F8'
_chemical_formula_sum 'F8 Li4 Tb1'
_chemical_name_structure_type Li4UF8
_exptl_crystal_density_diffrn 4.18
_publ_section_title 'X-ray powder diffraction study of Li4TbF8'
loop_
_citation_id
_citation_journal_full
_citation_year
_citation_journal_volume
_citation_page_first
_citation_page_last
_citation_journal_id_ASTM
primary 'European Journal of Solid State Inorganic Chemistry' 1992 29 981 992
EJSCE5
loop_
_publ_author_name
'El Ghozzi, M.'
'Avignant, D.'
'Cousseins, J.C.'
_cell_length_a 9.6582(9)
_cell_length_b 9.7411(8)
_cell_length_c 5.7155(4)
_cell_angle_alpha 90.
_cell_angle_beta 90.
_cell_angle_gamma 90.
_cell_volume 537.72
_cell_formula_units_Z 4
_symmetry_space_group_name_H-M 'P n m a'
_symmetry_Int_Tables_number 62
_refine_ls_R_factor_all 0.0615
loop_
_symmetry_equiv_pos_site_id
_symmetry_equiv_pos_as_xyz
1 'x+1/2, y, -z+1/2'
2 'x, -y+1/2, z'
3 '-x+1/2, y+1/2, z+1/2'
4 '-x, -y, -z'
5 '-x+1/2, -y, z+1/2'
6 '-x, y+1/2, -z'
7 'x+1/2, -y+1/2, -z+1/2'
8 'x, y, z'
loop_
_atom_type_symbol
_atom_type_oxidation_number
Li1+ 1
Tb4+ 4
F1- -1
loop_
_atom_site_label
_atom_site_type_symbol
_atom_site_symmetry_multiplicity
_atom_site_Wyckoff_symbol
_atom_site_fract_x
_atom_site_fract_y
_atom_site_fract_z
_atom_site_B_iso_or_equiv
_atom_site_occupancy
_atom_site_attached_hydrogens
Li1 Li1+ 8 d 0.371(4) 0.062(2) 0.112(8) 0.3 1. 0
Li2 Li1+ 8 d 0.401(2) 0.083(2) 0.636(9) 0.3 1. 0
Tb1 Tb4+ 4 c 0.1355(2) 0.25 0.3703(4) 0.25(5) 1. 0
F1 F1- 8 d 0.0157(6) 0.1149(7) 0.155(2) 0.1(1) 1. 0
F2 F1- 8 d 0.0180(8) 0.1176(7) 0.622(2) 1.5(2) 1. 0
F3 F1- 8 d 0.2406(7) 0.4673(7) 0.365(3) 0.2(1) 1. 0
F4 F1- 4 c 0.2982(9) 0.25 0.104(4) 0.8(1) 1. 0
F5 F1- 4 c 0.296(1) 0.25 0.624(4) 0.8(1) 1. 0
#End of TTdata_67543-ICSD