
#(C) 2018 by FIZ Karlsruhe - Leibniz Institute for Information Infrastructure.  All rights reserved.
data_67599-ICSD
_database_code_ICSD 67599
_audit_creation_date 1993-08-22
_audit_update_record 2008-08-01
_chemical_name_systematic 'Tetrabarium triruthenium(V) lithium oxide'
_chemical_formula_structural 'Ba4 Ru3 Li O12'
_chemical_formula_sum 'Ba4 Li1 O12 Ru3'
_chemical_name_structure_type BaFeO2+x
_exptl_crystal_density_diffrn 4.25
_publ_section_title

;
The crystal structure and electronic properties of Ba4 Ru3 M O12 (M= Li, Na,
Mg, Zn)
;
loop_
_citation_id
_citation_journal_full
_citation_year
_citation_journal_volume
_citation_page_first
_citation_page_last
_citation_journal_id_ASTM
primary 'Journal of Solid State Chemistry' 1992 101 161 172 JSSCBI
loop_
_publ_author_name
'Battle, P.D.'
'Kim, S.-H.'
'Powell, A.V.'
_cell_length_a 5.7828(1)
_cell_length_b 5.7828(1)
_cell_length_c 14.1917(4)
_cell_angle_alpha 90.
_cell_angle_beta 90.
_cell_angle_gamma 120.
_cell_volume 411.
_cell_formula_units_Z 1
_symmetry_space_group_name_H-M 'P 63/m m c'
_symmetry_Int_Tables_number 194
_refine_ls_R_factor_all 0.0243
loop_
_symmetry_equiv_pos_site_id
_symmetry_equiv_pos_as_xyz
1 'x, x-y, -z+1/2'
2 '-x+y, y, -z+1/2'
3 '-y, -x, -z+1/2'
4 '-x+y, -x, -z+1/2'
5 '-y, x-y, -z+1/2'
6 'x, y, -z+1/2'
7 '-x, -x+y, z+1/2'
8 'x-y, -y, z+1/2'
9 'y, x, z+1/2'
10 'x-y, x, z+1/2'
11 'y, -x+y, z+1/2'
12 '-x, -y, z+1/2'
13 '-x, -x+y, -z'
14 'x-y, -y, -z'
15 'y, x, -z'
16 'x-y, x, -z'
17 'y, -x+y, -z'
18 '-x, -y, -z'
19 'x, x-y, z'
20 '-x+y, y, z'
21 '-y, -x, z'
22 '-x+y, -x, z'
23 '-y, x-y, z'
24 'x, y, z'
loop_
_atom_type_symbol
_atom_type_oxidation_number
Ba2+ 2
Ru5+ 5
Li1+ 1
Ru5+ 5
Li1+ 1
O2- -2
loop_
_atom_site_label
_atom_site_type_symbol
_atom_site_symmetry_multiplicity
_atom_site_Wyckoff_symbol
_atom_site_fract_x
_atom_site_fract_y
_atom_site_fract_z
_atom_site_B_iso_or_equiv
_atom_site_occupancy
_atom_site_attached_hydrogens
Ba1 Ba2+ 2 b 0 0 0.25 0.82(5) 0.6667 0
Ba2 Ba2+ 4 f 0.3333 0.6667 0.9110(2) 0.56(4) 0.6667 0
Ru1 Ru5+ 4 f 0.3333 0.6667 0.1549(1) 0.70(3) 0.65 0
Li1 Li1+ 4 f 0.3333 0.6667 0.1549(1) 0.70(3) 0.0167 0
Ru2 Ru5+ 2 a 0 0 0 0.70(3) 0.1993 0
Li2 Li1+ 2 a 0 0 0.0(5) 0.70(3) 0.4673 0
O1 O2- 6 h 0.4855(2) -.0290(4) 0.25 0.75(3) 0.6667 0
O2 O2- 12 k 0.1722(1) 0.3444(3) 0.4163(1) 1.03(2) 0.6667 0
#End of TTdata_67599-ICSD