
#(C) 2017 by FIZ Karlsruhe - Leibniz Institute for Information Infrastructure.  All rights reserved.
data_67742-ICSD
_database_code_ICSD 67742
_audit_creation_date 1994-06-30
_chemical_name_systematic 'Pentalithium chromium chloride'
_chemical_formula_structural 'Li5 Cr Cl8'
_chemical_formula_sum 'Cl8 Cr1 Li5'
_exptl_crystal_density_diffrn 2.29
_cell_measurement_temperature 295.
_publ_section_title 'Kristallstruktur und Schwingungsspektren von Li5CrCl8'
loop_
_citation_id
_citation_journal_full
_citation_year
_citation_journal_volume
_citation_page_first
_citation_page_last
_citation_journal_id_ASTM
primary 'Zeitschrift fuer Naturforschung, B: Chemical Sciences' 1992 47 1687
1692 ZNBSEN
loop_
_publ_author_name
'Lutz, H.D.'
'Kuske, P.'
'Pfitzner, A.'
'Steiner, H.J.'
_cell_length_a 10.1979(3)
_cell_length_b 7.2394(2)
_cell_length_c 7.2616(3)
_cell_angle_alpha 90.
_cell_angle_beta 90.
_cell_angle_gamma 90.
_cell_volume 536.1
_cell_formula_units_Z 2
_symmetry_space_group_name_H-M 'C m m m'
_symmetry_Int_Tables_number 65
_refine_ls_R_factor_all 0.034
loop_
_symmetry_equiv_pos_site_id
_symmetry_equiv_pos_as_xyz
1 'x, -y, z'
2 '-x, y, z'
3 'x, y, -z'
4 '-x, -y, -z'
5 '-x, y, -z'
6 'x, -y, -z'
7 '-x, -y, z'
8 'x, y, z'
9 'x+1/2, -y+1/2, z'
10 '-x+1/2, y+1/2, z'
11 'x+1/2, y+1/2, -z'
12 '-x+1/2, -y+1/2, -z'
13 '-x+1/2, y+1/2, -z'
14 'x+1/2, -y+1/2, -z'
15 '-x+1/2, -y+1/2, z'
16 'x+1/2, y+1/2, z'
loop_
_atom_type_symbol
_atom_type_oxidation_number
Li1+ 1
Cr3+ 3
Cl1- -1
loop_
_atom_site_label
_atom_site_type_symbol
_atom_site_symmetry_multiplicity
_atom_site_Wyckoff_symbol
_atom_site_fract_x
_atom_site_fract_y
_atom_site_fract_z
_atom_site_B_iso_or_equiv
_atom_site_occupancy
_atom_site_attached_hydrogens
Li1 Li1+ 8 m 0.25 0.25 0.234(1) . 1. 0
Li2 Li1+ 2 b 0.5 0 0 . 1. 0
Cr1 Cr3+ 2 c 0 0.5 0.5 . 1. 0
Cl1 Cl1- 8 n 0 0.26978(9) 0.2709(1) . 1. 0
Cl2 Cl1- 4 h 0.26861(9) 0 0.5 . 1. 0
Cl3 Cl1- 4 g 0.2516(1) 0 0 . 1. 0
loop_
_atom_site_aniso_label
_atom_site_aniso_type_symbol
_atom_site_aniso_U_11
_atom_site_aniso_U_22
_atom_site_aniso_U_33
_atom_site_aniso_U_12
_atom_site_aniso_U_13
_atom_site_aniso_U_23
Li1 Li1+ 0.038(3) 0.028(3) 0.029(3) 0.004(3) 0 0
Li2 Li1+ 0.015(4) 0.036(6) 0.007(4) 0 0 0
Cr1 Cr3+ 0.0132(3) 0.0139(3) 0.0077(3) 0 0 0
Cl1 Cl1- 0.0196(2) 0.0174(3) 0.0133(2) 0 0 -.0035(2)
Cl2 Cl1- 0.0130(4) 0.0199(4) 0.0138(3) 0 0 0
Cl3 Cl1- 0.0229(4) 0.0178(4) 0.0124(3) 0 0 0
#End of TTdata_67742-ICSD