
#(C) 2018 by FIZ Karlsruhe - Leibniz Institute for Information Infrastructure.  All rights reserved.
data_67991-ICSD
_database_code_ICSD 67991
_audit_creation_date 1995-01-10
_audit_update_record 1999-11-30
_chemical_name_systematic 'Lithium beryllium boron borate (14/5/1/9)'
_chemical_formula_structural 'Li14 Be5 B (B O3)9'
_chemical_formula_sum 'B10 Be5 Li14 O27'
_exptl_crystal_density_diffrn 2.32
_cell_measurement_temperature 296.
_publ_section_title 'Structure of the borate Li14Be5B(BO3)9'
loop_
_citation_id
_citation_journal_full
_citation_year
_citation_journal_volume
_citation_page_first
_citation_page_last
_citation_journal_id_ASTM
primary 'Inorganic Chemistry' 1994 33 2453 2455 INOCAJ
loop_
_publ_author_name
'Luce, J.L.'
'Schaffers, K.I.'
'Keszler, D.A.'
_cell_length_a 7.730(2)
_cell_length_b 7.730(2)
_cell_length_c 18.853(2)
_cell_angle_alpha 90.
_cell_angle_beta 90.
_cell_angle_gamma 120.
_cell_volume 975.6
_cell_formula_units_Z 2
_symmetry_space_group_name_H-M 'P 63/m'
_symmetry_Int_Tables_number 176
_refine_ls_R_factor_all 0.048
loop_
_symmetry_equiv_pos_site_id
_symmetry_equiv_pos_as_xyz
1 '-x+y, -x, -z+1/2'
2 '-y, x-y, -z+1/2'
3 'x, y, -z+1/2'
4 'x-y, x, -z'
5 'y, -x+y, -z'
6 '-x, -y, -z'
7 'x-y, x, z+1/2'
8 'y, -x+y, z+1/2'
9 '-x, -y, z+1/2'
10 '-x+y, -x, z'
11 '-y, x-y, z'
12 'x, y, z'
loop_
_atom_type_symbol
_atom_type_oxidation_number
Li1+ 1
Be2+ 2
B3+ 3
O2- -2
loop_
_atom_site_label
_atom_site_type_symbol
_atom_site_symmetry_multiplicity
_atom_site_Wyckoff_symbol
_atom_site_fract_x
_atom_site_fract_y
_atom_site_fract_z
_atom_site_B_iso_or_equiv
_atom_site_occupancy
_atom_site_attached_hydrogens
Li1 Li1+ 2 d 0.3333 0.6667 0.75 1.8(1) 1. 0
Li2 Li1+ 2 c 0.6667 0.3333 0.75 3.0(2) 1. 0
Li3 Li1+ 12 i 0.6496(4) 0.6765(3) 0.5361(1) 1.29(6) 1. 0
Li4 Li1+ 12 i 0.6732(4) 0.6975(4) 0.6706(1) 1.45(6) 1. 0
Be1 Be2+ 12 i 0.6757(6) 0.0234(5) 0.6115(2) 0.69(2) 0.8333 0
B1 B3+ 12 i 0.6757(6) 0.0234(5) 0.6115(2) 0.69(2) 0.1667 0
B2 B3+ 4 f 0.3333 0.6667 0.6072(1) 0.78(3) 1. 0
B3 B3+ 4 e 0 0 0.5926(1) 0.79(3) 1. 0
B4 B3+ 4 f 0.6667 0.3333 0.5523(1) 0.78(3) 1. 0
B5 B3+ 6 h 0.6989(3) 0.0198(2) 0.75 0.89(3) 1. 0
O1 O2- 12 i 0.7339(1) 0.1984(1) 0.55063(4) 0.99(2) 1. 0
O2 O2- 12 i 0.4406(1) -.1279(1) 0.60726(4) 0.96(2) 1. 0
O3 O2- 12 i 0.7958(1) -.0888(1) 0.59290(4) 0.97(2) 1. 0
O4 O2- 6 h 0.6194(2) -.1823(2) 0.75 1.01(3) 1. 0
O5 O2- 12 i 0.7382(1) 0.1313(1) 0.68812(4) 1.10(2) 1. 0
#End of TTdata_67991-ICSD