
#(C) 2018 by FIZ Karlsruhe - Leibniz Institute for Information Infrastructure.  All rights reserved.
data_68206-ICSD
_database_code_ICSD 68206
_audit_creation_date 1991-07-10
_audit_update_record 1999-11-30
_chemical_name_systematic 'Lanthanum iron lithium oxide (24/6/22/56)'
_chemical_formula_structural 'La24 Fe6 Li22 O56'
_chemical_formula_sum 'Fe6 La24 Li22 O56'
_exptl_crystal_density_diffrn 5.96
_publ_section_title 'A new structure in the La - Li - Fe - O system'
loop_
_citation_id
_citation_journal_full
_citation_year
_citation_journal_volume
_citation_page_first
_citation_page_last
_citation_journal_id_ASTM
primary 'Journal of the Less-Common Metals' 1988 144 311 319 JCOMAH
loop_
_publ_author_name
'Abbattista, F.'
'Mazza, D.'
'Vallino, M.'
'Gazzano, M.'
_cell_length_a 13.240(3)
_cell_length_b 13.240(3)
_cell_length_c 7.497(3)
_cell_angle_alpha 90.
_cell_angle_beta 90.
_cell_angle_gamma 90.
_cell_volume 1314.21
_cell_formula_units_Z 1
_symmetry_space_group_name_H-M 'P 4/m b m'
_symmetry_Int_Tables_number 127
_refine_ls_R_factor_all 0.02
loop_
_symmetry_equiv_pos_site_id
_symmetry_equiv_pos_as_xyz
1 'y+1/2, x+1/2, -z'
2 '-y+1/2, -x+1/2, -z'
3 '-y, x, -z'
4 'y, -x, -z'
5 'x+1/2, -y+1/2, -z'
6 '-x+1/2, y+1/2, -z'
7 'x, y, -z'
8 '-x, -y, -z'
9 '-y+1/2, -x+1/2, z'
10 'y+1/2, x+1/2, z'
11 'y, -x, z'
12 '-y, x, z'
13 '-x+1/2, y+1/2, z'
14 'x+1/2, -y+1/2, z'
15 '-x, -y, z'
16 'x, y, z'
loop_
_atom_type_symbol
_atom_type_oxidation_number
La3+ 3
Li1+ 1
Fe3+ 3
O2- -2
Fe3+ 3
Li1+ 1
loop_
_atom_site_label
_atom_site_type_symbol
_atom_site_symmetry_multiplicity
_atom_site_Wyckoff_symbol
_atom_site_fract_x
_atom_site_fract_y
_atom_site_fract_z
_atom_site_B_iso_or_equiv
_atom_site_occupancy
_atom_site_attached_hydrogens
La1 La3+ 16 l 0.00799(2) 0.19969(2) 0.25563(5) 0.0062(1) 1. 0
La2 La3+ 4 g 0.26052(3) 0.76052(3) 0 0.0034(2) 1. 0
La3 La3+ 4 h 0.21981(3) 0.71981(3) 0.5 0.0034(2) 1. 0
Li1 Li1+ 2 a 0 0 0 0.0094(11) 0.25 0
Fe1 Fe3+ 2 a 0 0 0 0.0094(11) 0.75 0
Fe2 Fe3+ 4 g 0.08586(9) 0.58586(9) 0 0.0042(5) 1. 0
O1 O2- 4 f 0 0.5 0.1849(10) 0.005(2) 1. 0
O2 O2- 8 j 0.3823(5) 0.3773(5) 0.5 0.011(3) 1. 0
O3 O2- 8 k 0.3168(3) 0.8168(3) 0.7102(8) 0.014(2) 1. 0
O4 O2- 8 j 0.3212(4) 0.0173(5) 0.5 0.008(3) 1. 0
O5 O2- 4 e 0 0 0.2513(15) 0.009(2) 1. 0
O6 O2- 8 i 0.1224(5) 0.1117(5) 0 0.010(3) 1. 0
O7 O2- 8 i 0.0303(4) 0.3123(4) 0 0.006(2) 1. 0
O8 O2- 8 k 0.1583(3) 0.6583(3) 0.8047(9) 0.013(2) 1. 0
Fe3 Fe3+ 2 b 0 0 0.5 0.0024(12) 0.25 0
Li2 Li1+ 2 b 0 0 0.5 0.0024(12) 0.75 0
Li3 Li1+ 4 h 0.6219(9) 0.1219(9) 0.5 0.002(3) 1. 0
Li4 Li1+ 8 k 0.0981(8) 0.4019(8) 0.1565(22) 0.010(3) 1. 0
Li5 Li1+ 8 k 0.0753(8) 0.5753(8) 0.6499(2) 0.008(3) 1. 0
#End of TTdata_68206-ICSD