
#(C) 2018 by FIZ Karlsruhe - Leibniz Institute for Information Infrastructure.  All rights reserved.
data_68380-ICSD
_database_code_ICSD 68380
_audit_creation_date 1991-07-10
_audit_update_record 1999-11-30
_chemical_name_systematic 'Dilithium iron sulfide'
_chemical_formula_structural 'Li2 Fe S2'
_chemical_formula_sum 'Fe1 Li2 S2'
_chemical_name_structure_type La2O3
_exptl_crystal_density_diffrn 2.68
_publ_section_title 'Crystal structure of Li2 Fe S2'
loop_
_citation_id
_citation_journal_full
_citation_year
_citation_journal_volume
_citation_page_first
_citation_page_last
_citation_journal_id_ASTM
primary 'Physical Review, Serie 3. B - Condensed Matter (18,1978-)' 1988 37 3699
3702 PRBMDO
loop_
_publ_author_name
'Batchelor, R.J.'
'Einstein, F.W.B.'
'Jones, C.H.W.'
'Fong, R.'
'Dahn, J.R.'
_cell_length_a 3.902(1)
_cell_length_b 3.902(1)
_cell_length_c 6.294(2)
_cell_angle_alpha 90.
_cell_angle_beta 90.
_cell_angle_gamma 120.
_cell_volume 82.99
_cell_formula_units_Z 1
_symmetry_space_group_name_H-M 'P -3 m 1'
_symmetry_Int_Tables_number 164
_refine_ls_R_factor_all 0.043
loop_
_symmetry_equiv_pos_site_id
_symmetry_equiv_pos_as_xyz
1 'x-y, -y, -z'
2 '-x, -x+y, -z'
3 'y, x, -z'
4 'x-y, x, -z'
5 'y, -x+y, -z'
6 '-x, -y, -z'
7 '-x+y, y, z'
8 'x, x-y, z'
9 '-y, -x, z'
10 '-x+y, -x, z'
11 '-y, x-y, z'
12 'x, y, z'
loop_
_atom_type_symbol
_atom_type_oxidation_number
Fe2+ 2
S2- -2
Li1+ 1
loop_
_atom_site_label
_atom_site_type_symbol
_atom_site_symmetry_multiplicity
_atom_site_Wyckoff_symbol
_atom_site_fract_x
_atom_site_fract_y
_atom_site_fract_z
_atom_site_B_iso_or_equiv
_atom_site_occupancy
_atom_site_attached_hydrogens
Fe1 Fe2+ 2 d 0.3333 0.6667 0.36775(16) . 0.5 0
S1 S2- 2 d 0.6667 0.3333 0.24894(13) . 1. 0
Li1 Li1+ 1 a 0 0 0 0.045(4) 1. 0
Li2 Li1+ 2 d 0.3333 0.6667 0.36775(16) . 0.5 0
loop_
_atom_site_aniso_label
_atom_site_aniso_type_symbol
_atom_site_aniso_U_11
_atom_site_aniso_U_22
_atom_site_aniso_U_33
_atom_site_aniso_U_12
_atom_site_aniso_U_13
_atom_site_aniso_U_23
Fe1 Fe2+ 0.0174(4) 0.0174(4) 0.0221(5) 0.0087 0 0
S1 S2- 0.0203(4) 0.0203(4) 0.0173(5) 0.0102 0 0
Li2 Li1+ 0.0174(4) 0.0174(4) 0.0221(5) 0.0087 0 0
#End of TTdata_68380-ICSD