
#(C) 2018 by FIZ Karlsruhe - Leibniz Institute for Information Infrastructure.  All rights reserved.
data_68463-ICSD
_database_code_ICSD 68463
_audit_creation_date 1991-07-10
_chemical_name_systematic 'Tetralithium pentagermanate'
_chemical_formula_structural 'Li4 (Ge5 O12)'
_chemical_formula_sum 'Ge5 Li4 O12'
_exptl_crystal_density_diffrn 4.66
_cell_measurement_temperature 295.
_publ_section_title
'Structure of Li4Ge5O12 - a new compound in the Li2O- GeO2 system'
loop_
_citation_id
_citation_journal_full
_citation_year
_citation_journal_volume
_citation_page_first
_citation_page_last
_citation_journal_id_ASTM
primary 'Acta Crystallographica, Section C: Crystal Structure Communications'
1990 46 2021 2026 ACSCEE
loop_
_publ_author_name
'Greenberg, B.L.'
'Loiacono, G.M.'
_cell_length_a 5.120(1)
_cell_length_b 9.143(2)
_cell_length_c 9.586(2)
_cell_angle_alpha 72.95(3)
_cell_angle_beta 77.74(3)
_cell_angle_gamma 78.81(3)
_cell_volume 415.04
_cell_formula_units_Z 2
_symmetry_space_group_name_H-M 'P -1'
_symmetry_Int_Tables_number 2
_refine_ls_R_factor_all 0.025
loop_
_symmetry_equiv_pos_site_id
_symmetry_equiv_pos_as_xyz
1 '-x, -y, -z'
2 'x, y, z'
loop_
_atom_type_symbol
_atom_type_oxidation_number
Ge4+ 4
O2- -2
Li1+ 1
loop_
_atom_site_label
_atom_site_type_symbol
_atom_site_symmetry_multiplicity
_atom_site_Wyckoff_symbol
_atom_site_fract_x
_atom_site_fract_y
_atom_site_fract_z
_atom_site_B_iso_or_equiv
_atom_site_occupancy
_atom_site_attached_hydrogens
Ge1 Ge4+ 2 i 0.1890(1) 0.2539(1) 0.9353(1) . 1. 0
Ge2 Ge4+ 2 i 0.1907(1) 0.0998(1) 0.6822(1) . 1. 0
Ge3 Ge4+ 2 i 0.4092(1) 0.4206(1) 0.6452(1) . 1. 0
Ge4 Ge4+ 2 i 0.2614(1) 0.0969(1) 1.2683(1) . 1. 0
Ge5 Ge4+ 2 i 0.1179(1) 0.5943(1) 0.8511(1) . 1. 0
O1 O2- 2 i 0.2674(8) 0.5665(4) 0.4843(4) . 1. 0
O2 O2- 2 i 0.3191(8) 0.2631(4) 0.5689(4) . 1. 0
O3 O2- 2 i 0.4431(8) 0.5791(4) 0.7304(4) . 1. 0
O4 O2- 2 i 0.0543(8) 0.4309(4) 0.7757(4) . 1. 0
O5 O2- 2 i -.0511(8) 0.7395(4) 0.6994(4) . 1. 0
O6 O2- 2 i 0.5120(8) 0.2704(4) 0.8102(4) . 1. 0
O7 O2- 2 i 0.2308(8) 0.4232(4) 1.0126(4) . 1. 0
O8 O2- 2 i 0.1475(8) 0.7322(4) 0.9509(4) . 1. 0
O9 O2- 2 i 0.4372(7) -.0618(4) 0.6613(4) . 1. 0
O10 O2- 2 i 0.1025(7) 0.1015(4) 0.8664(4) . 1. 0
O11 O2- 2 i 0.3458(7) 0.1008(4) 1.0816(4) . 1. 0
O12 O2- 2 i -.0926(8) 0.0639(4) 0.6286(4) . 1. 0
Li1 Li1+ 2 i 0.6486(19) 0.4234(11) 0.8895(10) . 1. 0
Li2 Li1+ 2 i 0.1428(22) 0.4071(12) 0.4036(10) . 1. 0
Li3 Li1+ 2 i -.2748(19) 0.0968(10) 0.9765(10) . 1. 0
Li4 Li1+ 2 i 0.3107(22) 0.7708(12) 0.5557(12) . 1. 0
loop_
_atom_site_aniso_label
_atom_site_aniso_type_symbol
_atom_site_aniso_U_11
_atom_site_aniso_U_22
_atom_site_aniso_U_33
_atom_site_aniso_U_12
_atom_site_aniso_U_13
_atom_site_aniso_U_23
Ge1 Ge4+ 0.013(1) 0.014(1) 0.011(1) -.002(1) -.001(1) -.003(1)
Ge2 Ge4+ 0.013(1) 0.014(1) 0.011(1) -.003(1) -.001(1) -.004(1)
Ge3 Ge4+ 0.014(1) 0.015(1) 0.011(1) -.003(1) -.001(1) -.003(1)
Ge4 Ge4+ 0.013(1) 0.015(1) 0.011(1) -.002(1) -.002(1) -.003(1)
Ge5 Ge4+ 0.014(1) 0.014(1) 0.011(1) -.002(1) -.001(1) -.003(1)
O1 O2- 0.016(2) 0.015(2) 0.016(2) -.002(2) -.002(2) -.001(1)
O2 O2- 0.018(2) 0.019(2) 0.014(2) -.005(2) -.002(2) -.006(2)
O3 O2- 0.019(2) 0.018(2) 0.017(2) -.004(2) -.002(2) -.005(2)
O4 O2- 0.015(2) 0.016(2) 0.015(2) -.003(2) 0.001(2) -.005(1)
O5 O2- 0.015(2) 0.017(2) 0.016(2) 0.000(2) -.001(2) -.004(2)
O6 O2- 0.018(2) 0.018(2) 0.015(2) -.002(2) -.002(2) -.003(2)
O7 O2- 0.016(2) 0.016(2) 0.016(2) -.004(2) -.003(2) -.005(1)
O8 O2- 0.013(2) 0.019(2) 0.015(2) -.003(2) 0.001(1) -.008(2)
O9 O2- 0.014(2) 0.018(2) 0.016(2) -.002(1) -.004(1) -.008(1)
O10 O2- 0.018(2) 0.016(2) 0.015(2) -.006(2) 0.000(2) -.005(1)
O11 O2- 0.016(2) 0.018(2) 0.014(2) 0.000(1) -.001(1) -.001(1)
O12 O2- 0.016(2) 0.018(2) 0.14(2) -.004(1) -.003(1) -.003(1)
Li1 Li1+ 0.020(5) 0.032(6) 0.019(5) -.008(4) -.006(4) 0.001(4)
Li2 Li1+ 0.034(6) 0.033(6) 0.018(5) -.002(5) -.016(5) -.009(4)
Li3 Li1+ 0.023(5) 0.018(5) 0.027(5) -.009(4) 0.001(4) -.009(4)
Li4 Li1+ 0.029(6) 0.027(5) 0.030(6) -.008(4) -.001(5) -.004(4)
#End of TTdata_68463-ICSD