
#(C) 2018 by FIZ Karlsruhe - Leibniz Institute for Information Infrastructure.  All rights reserved.
data_68518-ICSD
_database_code_ICSD 68518
_audit_creation_date 1991-07-10
_audit_update_record 2012-08-01
_chemical_name_systematic 'Dicalcium dilithium cyclo-hexaphosphate octahydrate'
_chemical_formula_structural 'Ca2 Li2 (P6 O18) (H2 O)8'
_chemical_formula_sum 'H16 Ca2 Li2 O26 P6'
_exptl_crystal_density_diffrn 2.21
_publ_section_title

;
Crystal chemistry of cyclo-hexaphosphates. X.Structure of dicalcium dilithium
cyclo-hexaphosphate octahydrate
;
loop_
_citation_id
_citation_journal_full
_citation_year
_citation_journal_volume
_citation_page_first
_citation_page_last
_citation_journal_id_ASTM
primary 'Acta Crystallographica, Section C: Crystal Structure Communications'
1990 46 968 970 ACSCEE
loop_
_publ_author_name
'Averbuch-Pouchot, M.T.'
'Durif, A.'
_cell_length_a 7.767(2)
_cell_length_b 10.144(3)
_cell_length_c 7.225(2)
_cell_angle_alpha 105.17(4)
_cell_angle_beta 102.76(4)
_cell_angle_gamma 84.95(4)
_cell_volume 535.57
_cell_formula_units_Z 1
_symmetry_space_group_name_H-M 'P -1'
_symmetry_Int_Tables_number 2
_refine_ls_R_factor_all 0.023
loop_
_symmetry_equiv_pos_site_id
_symmetry_equiv_pos_as_xyz
1 '-x, -y, -z'
2 'x, y, z'
loop_
_atom_type_symbol
_atom_type_oxidation_number
Ca2+ 2
Li1+ 1
P5+ 5
O2- -2
H1+ 1
loop_
_atom_site_label
_atom_site_type_symbol
_atom_site_symmetry_multiplicity
_atom_site_Wyckoff_symbol
_atom_site_fract_x
_atom_site_fract_y
_atom_site_fract_z
_atom_site_B_iso_or_equiv
_atom_site_occupancy
_atom_site_attached_hydrogens
Ca1 Ca2+ 2 i 0.19038(5) 0.24157(3) 0.82356(5) . 1. 0
Li1 Li1+ 1 e 0.5 0.5 0 . 1. 0
Li2 Li1+ 1 a 0 0 0 . 1. 0
P1 P5+ 2 i 0.79668(6) 0.47973(4) 0.75598(7) . 1. 0
P2 P5+ 2 i 0.53968(6) 0.27279(5) 0.59329(7) . 1. 0
P3 P5+ 2 i 0.19655(6) 0.25937(4) 0.32919(7) . 1. 0
O1 O2- 2 i 0.7039(2) 0.5607(1) 0.9110(2) . 1. 0
O2 O2- 2 i 0.9500(2) 0.3905(2) 0.8071(2) . 1. 0
O3 O2- 2 i 0.6550(2) 0.3918(1) 0.5794(2) . 1. 0
O4 O2- 2 i 0.1489(2) 0.4205(1) 0.3593(2) . 1. 0
O5 O2- 2 i 0.4453(2) 0.3260(1) 0.7572(2) . 1. 0
O6 O2- 2 i 0.6468(2) 0.1434(1) 0.5855(2) . 1. 0
O7 O2- 2 i 0.4082(2) 0.2561(2) 0.3850(2) . 1. 0
O8 O2- 2 i 0.1456(2) 0.1883(1) 0.1183(2) . 1. 0
O9 O2- 2 i 0.1234(2) 0.2134(1) 0.4743(2) . 1. 0
O10 O2- 2 i 0.6183(2) -.0415(2) 0.2172(2) . 1. 0
O11 O2- 2 i 0.0203(2) 0.9436(1) 0.2759(2) . 1. 0
O12 O2- 2 i 0.2784(3) 0.6130(2) 0.8194(3) . 1. 0
O13 O2- 2 i 0.2539(2) 0.8918(2) 0.9822(2) . 1. 0
H1 H1+ 2 i 0.376(5) -.006(4) 0.666(6) 2.9(9) 1. 0
H2 H1+ 2 i 0.354(5) -.007(4) 0.839(5) 2.5(9) 1. 0
H3 H1+ 2 i 0.032(5) 0.027(4) 0.353(6) 2.9(9) 1. 0
H4 H1+ 2 i 0.115(5) 0.909(4) 0.303(6) 2.9(9) 1. 0
H5 H1+ 2 i 0.290(5) 0.596(4) 0.711(5) 2.3(8) 1. 0
H6 H1+ 2 i 0.203(6) 0.578(5) 0.805(7) 5.(1) 1. 0
H7 H1+ 2 i 0.259(5) 0.807(4) 0.929(6) 2.9(9) 1. 0
H8 H1+ 2 i 0.322(6) 0.914(4) 0.085(6) 4.(1) 1. 0
loop_
_atom_site_aniso_label
_atom_site_aniso_type_symbol
_atom_site_aniso_beta_11
_atom_site_aniso_beta_22
_atom_site_aniso_beta_33
_atom_site_aniso_beta_12
_atom_site_aniso_beta_13
_atom_site_aniso_beta_23
Ca1 Ca2+ 0.00437(4) 0.00236(2) 0.00459(5) -.00028(3) 0.00092(4) 0.00083(3)
Li1 Li1+ 0.0103(8) 0.0059(5) 0.013(1) -.0030(5) 0.0050(5) 0.0000(5)
Li2 Li1+ 0.0114(9) 0.0057(5) 0.010(1) -.0015(5) 0.0015(9) 0.0025(5)
P1 P5+ 0.00400(5) 0.00212(3) 0.00520(7) -.00019(4) 0.00055(5) 0.00055(4)
P2 P5+ 0.00402(5) 0.00253(3) 0.00459(7) -.00057(4) 0.00040(5) 0.00063(4)
P3 P5+ 0.00447(5) 0.00250(3) 0.00404(7) -.00113(4) 0.00030(5) 0.00066(4)
O1 O2- 0.0057(2) 0.0031(1) 0.0060(2) -.0010(1) 0.0021(2) 0.0001(1)
O2 O2- 0.0075(2) 0.0046(1) 0.0102(3) 0.0025(2) -.0012(2) 0.0006(2)
O3 O2- 0.0060(2) 0.0037(1) 0.0051(2) -.0019(1) 0.0006(2) 0.0010(1)
O4 O2- 0.0077(2) 0.0028(1) 0.0090(2) -.0007(1) 0.0045(2) 0.0010(2)
O5 O2- 0.0063(2) 0.0042(1) 0.0053(2) -.0017(1) 0.0016(2) 0.0002(2)
O6 O2- 0.0072(2) 0.0032(1) 0.0115(3) 0.0005(2) 0.0004(2) 0.0015(2)
O7 O2- 0.0044(2) 0.0058(1) 0.0048(2) -.0008(2) 0.0002(2) 0.0010(2)
O8 O2- 0.0070(2) 0.0034(1) 0.0045(2) -.0019(1) -.0001(2) 0.0007(1)
O9 O2- 0.0072(2) 0.0043(1) 0.0050(2) -.0022(1) 0.0011(2) 0.0015(1)
O10 O2- 0.0097(2) 0.0036(1) 0.0124(3) 0.0008(2) 0.0045(2) 0.0021(2)
O11 O2- 0.0058(2) 0.0034(1) 0.0089(3) -.0011(1) -.0001(2) 0.0021(2)
O12 O2- 0.0161(3) 0.0062(2) 0.0122(3) -.0002(2) 0.0029(3) 0.0024(2)
O13 O2- 0.0107(3) 0.0049(1) 0.0119(3) -.0004(2) 0.0024(3) 0.0023(2)
#End of TTdata_68518-ICSD