
#(C) 2018 by FIZ Karlsruhe - Leibniz Institute for Information Infrastructure.  All rights reserved.
data_68586-ICSD
_database_code_ICSD 68586
_audit_creation_date 1991-07-10
_audit_update_record 2012-02-01
_chemical_name_systematic 'Lithium tecto-alumosilicate hydrate *'
_chemical_formula_structural 'Li1.86 (Al2 Si3.89 O12) (H2 O)2'
_chemical_formula_sum 'H4 Al2 Li1.86 O14 Si3.89'
_chemical_name_structure_type Bikitaite-1A-frame
_chemical_name_mineral 'Bikitaite 1A'
_exptl_crystal_density_diffrn 2.28
_cell_measurement_temperature 295.
_publ_section_title

;
One-dimensional water chain in the zeolite bikitaite: neutron diffraction
study at 13 and 295K
;
loop_
_citation_id
_citation_journal_full
_citation_year
_citation_journal_volume
_citation_page_first
_citation_page_last
_citation_journal_id_ASTM
primary Zeolites 1989 9 303 311 ZEOLD3
loop_
_publ_author_name
'Stahl, K.'
'Kvick, A.'
'Ghose, S.'
_cell_length_a 8.6071(9)
_cell_length_b 4.9540(5)
_cell_length_c 7.5972(7)
_cell_angle_alpha 89.900(7)
_cell_angle_beta 114.437(8)
_cell_angle_gamma 89.988(8)
_cell_volume 294.92
_cell_formula_units_Z 1
_symmetry_space_group_name_H-M 'P 1'
_symmetry_Int_Tables_number 1
_refine_ls_R_factor_all 0.027
loop_
_symmetry_equiv_pos_site_id
_symmetry_equiv_pos_as_xyz
1 'x, y, z'
loop_
_atom_type_symbol
_atom_type_oxidation_number
Si4+ 4
Al3+ 3
Si4+ 4
O2- -2
Li1+ 1
O2- -2
H1+ 1
O2- -2
H1+ 1
loop_
_atom_site_label
_atom_site_type_symbol
_atom_site_symmetry_multiplicity
_atom_site_Wyckoff_symbol
_atom_site_fract_x
_atom_site_fract_y
_atom_site_fract_z
_atom_site_B_iso_or_equiv
_atom_site_occupancy
_atom_site_attached_hydrogens
Si1 Si4+ 1 a 0.1057(3) 0.8645(5) 0.0975(3) . 0.957(12) 0
Si2 Si4+ 1 a 0.1038 0.8006 0.5049 . 0.981(13) 0
Al1 Al3+ 1 a 0.3803(3) 0.8749(5) 0.9374(3) . 1. 0
Al2 Al3+ 1 a 0.8985(3) 0.3639(5) 0.9065(3) . 1. 0
Si3 Si4+ 1 a 0.8920(2) 0.2984(5) 0.4877(3) . 0.981(13) 0
Si4 Si4+ 1 a 0.6187(3) 0.3748(5) 0.0630(3) . 0.975(12) 0
O1 O2- 1 a 0.2641(2) 0.7404(4) 0.0569(3) . 1. 0
O2 O2- 1 a 0.0830(2) 0.1853(4) 0.0413(3) . 1. 0
O3 O2- 1 a 0.1584(3) 0.8281(5) 0.3279(3) . 1. 0
O4 O2- 1 a 0.0557(3) 0.4868(5) 0.5173(3) . 1. 0
O5 O2- 1 a 0.2612(3) 0.8920(5) 0.6947(3) . 1. 0
O6 O2- 1 a 0.4496(2) 0.1940(4) 0.0282(3) . 1. 0
O7 O2- 1 a 0.7311(2) 0.2433(4) 0.9552(3) . 1. 0
O8 O2- 1 a 0.9283(2) 0.7021(4) 0.9708(3) . 1. 0
O9 O2- 1 a 0.8414(3) 0.3281(5) 0.6655(3) . 1. 0
O10 O2- 1 a 0.9378(3) 0.9872(5) 0.4657(3) . 1. 0
O11 O2- 1 a 0.7318(3) 0.3929(5) 0.2966(3) . 1. 0
O12 O2- 1 a 0.5593(2) 0.6797(4) 0.9807(3) . 1. 0
Li1 Li1+ 1 a 0.3095(5) 0.3657(9) 0.1469(7) . 0.910(28) 0
Li2 Li1+ 1 a 0.6995(6) 0.8665(10) 0.8722(7) . 0.947(29) 0
O13 O2- 1 a 0.4083(3) 0.3224(6) 0.4347(4) . 1. 0
H1 H1+ 1 a 0.3230(9) 0.2849(17) 0.4786(10) . 1. 0
H2 H1+ 1 a 0.4870(8) 0.1784(12) 0.4863(8) . 1. 0
O14 O2- 1 a 0.5991(3) 0.8225(6) 0.5871(4) . 1. 0
H3 H1+ 1 a 0.6853(8) 0.7872(19) 0.542(1) . 1. 0
H4 H1+ 1 a 0.5214(8) 0.6763(12) 0.5343(8) . 1. 0
loop_
_atom_site_aniso_label
_atom_site_aniso_type_symbol
_atom_site_aniso_beta_11
_atom_site_aniso_beta_22
_atom_site_aniso_beta_33
_atom_site_aniso_beta_12
_atom_site_aniso_beta_13
_atom_site_aniso_beta_23
Si1 Si4+ 0.0020(2) 0.0039(6) 0.0025(3) 0.0002(2) 0.0013(2) 0.0005(3)
Si2 Si4+ 0.0022(2) 0.0052(6) 0.0022(3) 0.0001(2) 0.0007(2) -.0001(3)
Al1 Al3+ 0.0019(2) 0.0056(6) 0.0036(3) -.0003(3) 0.0009(2) -.0003(3)
Al2 Al3+ 0.0027(2) 0.0047(6) 0.0037(3) 0.0002(3) 0.0017(2) 0.0002(3)
Si3 Si4+ 0.0022(2) 0.0044(6) 0.0028(3) -.0002(2) 0.0006(2) -.0003(3)
Si4 Si4+ 0.0018(2) 0.0040(6) 0.0020(3) -.0003(2) 0.0007(2) -.0001(3)
O1 O2- 0.0032(1) 0.0062(4) 0.0069(3) 0.0006(2) 0.0026(1) 0.0005(2)
O2 O2- 0.0031(1) 0.0066(4) 0.0077(2) -.0007(2) 0.0021(1) -.0006(2)
O3 O2- 0.0065(2) 0.0221(6) 0.0043(2) -.0005(3) 0.0029(2) 0.0010(3)
O4 O2- 0.0045(2) 0.0054(4) 0.0150(3) -.0004(2) 0.0037(2) 0.0016(3)
O5 O2- 0.0053(2) 0.0162(5) 0.0038(2) -.0013(2) 0.0(10) 0.0(30)
O6 O2- 0.0034(1) 0.0077(4) 0.0066(2) -.0002(2) 0.0030(1) -.0011(2)
O7 O2- 0.0034(1) 0.0056(4) 0.0068(2) -.0003(2) 0.0027(1) -.0006(2)
O8 O2- 0.0030(1) 0.0067(4) 0.0078(2) 0.0010(2) 0.0020(1) 0.0001(2)
O9 O2- 0.0070(2) 0.0224(6) 0.0039(2) 0.0002(3) 0.0029(2) -.0007(3)
O10 O2- 0.0043(2) 0.0066(4) 0.0133(3) 0.0007(2) 0.0031(2) -.0011(3)
O11 O2- 0.0053(2) 0.0156(5) 0.0034(2) 0.0022(2) 0.0001(1) 0.0004(3)
O12 O2- 0.0031(1) 0.0070(4) 0.0068(2) 0.0(20) 0.0028(1) 0.0010(2)
Li1 Li1+ 0.0038(6) 0.0072(15) 0.0092(9) -.0007(6) 0.0035(5) 0.0(80)
Li2 Li1+ 0.0044(6) 0.0109(16) 0.0107(9) -.0002(6) 0.0036(5) 0.0003(8)
O13 O2- 0.0094(3) 0.0216(7) 0.0122(3) -.0005(3) 0.0031(2) 0.0019(4)
H1 H1+ 0.0232(11) 0.0781(40) 0.0281(13) -.0146(17) 0.0147(10) 0.0036(18)
H2 H1+ 0.0245(10) 0.0451(24) 0.0188(9) 0.0153(13) 0.0018(8) 0.0066(13)
O14 O2- 0.0089(3) 0.0226(7) 0.0125(3) -.0007(3) 0.0033(2) -.0020(4)
H3 H1+ 0.0182(9) 0.1039(55) 0.0259(13) 0.0099(17) 0.0117(9) -.0047(20)
H4 H1+ 0.0242(11) 0.0437(24) 0.0206(10) -.0142(13) 0.0017(8) -.0032(12)
#End of TTdata_68586-ICSD