
#(C) 2017 by FIZ Karlsruhe - Leibniz Institute for Information Infrastructure.  All rights reserved.
data_68905-ICSD
_database_code_ICSD 68905
_audit_creation_date 1992-01-20
_audit_update_record 2002-04-01
_chemical_name_systematic 'Lithium strontium hexafluoroaluminate'
_chemical_formula_structural 'Li Sr (Al F6)'
_chemical_formula_sum 'Al1 F6 Li1 Sr1'
_chemical_name_structure_type CaLiAlF6
_exptl_crystal_density_diffrn 3.45
_cell_measurement_temperature 296.
_publ_section_title 'Structure of Li Sr Al F6'
loop_
_citation_id
_citation_journal_full
_citation_year
_citation_journal_volume
_citation_page_first
_citation_page_last
_citation_journal_id_ASTM
primary 'Acta Crystallographica, Section C: Crystal Structure Communications'
1991 47 18 20 ACSCEE
loop_
_publ_author_name
'Schaffers, K.I.'
'Keszler, D.A.'
_cell_length_a 5.071(6)
_cell_length_b 5.071(6)
_cell_length_c 10.189(1)
_cell_angle_alpha 90.
_cell_angle_beta 90.
_cell_angle_gamma 120.
_cell_volume 226.91
_cell_formula_units_Z 2
_symmetry_space_group_name_H-M 'P -3 1 c'
_symmetry_Int_Tables_number 163
_refine_ls_R_factor_all 0.024
loop_
_symmetry_equiv_pos_site_id
_symmetry_equiv_pos_as_xyz
1 '-x+y, y, -z+1/2'
2 'x, x-y, -z+1/2'
3 '-y, -x, -z+1/2'
4 'x-y, x, -z'
5 'y, -x+y, -z'
6 '-x, -y, -z'
7 'x-y, -y, z+1/2'
8 '-x, -x+y, z+1/2'
9 'y, x, z+1/2'
10 '-x+y, -x, z'
11 '-y, x-y, z'
12 'x, y, z'
loop_
_atom_type_symbol
_atom_type_oxidation_number
Li1+ 1
Sr2+ 2
Al3+ 3
F1- -1
loop_
_atom_site_label
_atom_site_type_symbol
_atom_site_symmetry_multiplicity
_atom_site_Wyckoff_symbol
_atom_site_fract_x
_atom_site_fract_y
_atom_site_fract_z
_atom_site_B_iso_or_equiv
_atom_site_occupancy
_atom_site_attached_hydrogens
Li1 Li1+ 2 c 0.3333 0.6667 0.25 . 1. 0
Sr1 Sr2+ 2 b 0 0 0 . 1. 0
Al1 Al3+ 2 d 0.6667 0.3333 0.25 . 1. 0
F1 F1- 12 i 0.3879(4) 0.0328(4) 0.1485(1) . 1. 0
loop_
_atom_site_aniso_label
_atom_site_aniso_type_symbol
_atom_site_aniso_U_11
_atom_site_aniso_U_22
_atom_site_aniso_U_33
_atom_site_aniso_U_12
_atom_site_aniso_U_13
_atom_site_aniso_U_23
Li1 Li1+ 0.016(4) 0.016(4) 0.024(6) 0.008(2) 0 0
Sr1 Sr2+ 0.0111(2) 0.0111(2) 0.0098(2) 0.0056(1) 0 0
Al1 Al3+ 0.0074(6) 0.0074(6) 0.0128(8) 0.0037(3) 0 0
F1 F1- 0.0159(8) 0.013(1) 0.0204(7) 0.0045(7) -0.0078(6) -0.0013(5)
#End of TTdata_68905-ICSD