
#(C) 2018 by FIZ Karlsruhe - Leibniz Institute for Information Infrastructure.  All rights reserved.
data_68926-ICSD
_database_code_ICSD 68926
_audit_creation_date 1992-01-20
_audit_update_record 2007-08-01
_chemical_name_systematic 'Lithium aluminium phosphate(V) fluoride'
_chemical_formula_structural 'Li Al (P O4) F'
_chemical_formula_sum 'Al1 F1 Li1 O4 P1'
_chemical_name_structure_type Amblygonite
_chemical_name_mineral 'Montebrasite (F-rich)'
_exptl_crystal_density_diffrn 3.11
_publ_section_title

;
The amblygonite-montebrasite series: characterization by single-crystal
structure refinement, infrared spectroscopy and multinuclear MAS-NMR
spectroscopy
;
loop_
_citation_id
_citation_journal_full
_citation_year
_citation_journal_volume
_citation_page_first
_citation_page_last
_citation_journal_id_ASTM
primary 'American Mineralogist' 1990 75 992 1008 AMMIAY
loop_
_publ_author_name
'Groat, L.A.'
'Raudsepp, M.'
'Hawthorne, F.C.'
'Ercit, T.S.'
'Sherriff, B.L.'
'Hartman, J.S.'
_cell_length_a 6.644(2)
_cell_length_b 7.744(2)
_cell_length_c 6.910(1)
_cell_angle_alpha 90.35(2)
_cell_angle_beta 117.33(2)
_cell_angle_gamma 91.01(2)
_cell_volume 315.75
_cell_formula_units_Z 4
_symmetry_space_group_name_H-M 'C -1'
_symmetry_Int_Tables_number 2
_refine_ls_R_factor_all 0.029
loop_
_symmetry_equiv_pos_site_id
_symmetry_equiv_pos_as_xyz
1 '-x, -y, -z'
2 'x, y, z'
3 '-x+1/2, -y+1/2, -z'
4 'x+1/2, y+1/2, z'
loop_
_atom_type_symbol
_atom_type_oxidation_number
P5+ 5
Al3+ 3
O2- -2
F1- -1
Li1+ 1
loop_
_atom_site_label
_atom_site_type_symbol
_atom_site_symmetry_multiplicity
_atom_site_Wyckoff_symbol
_atom_site_fract_x
_atom_site_fract_y
_atom_site_fract_z
_atom_site_B_iso_or_equiv
_atom_site_occupancy
_atom_site_attached_hydrogens
P1 P5+ 4 i 0.98692(8) 0.3319(6) 0.25580(8) 0.0054(2) 1. 0
Al1 Al3+ 2 a 0 0 0 0.0056(2) 1. 0
Al2 Al3+ 2 b 0 0 0.5 0.0055(3) 1. 0
O1 O2- 4 i -.3148(2) 0.0192(2) -.1426(2) 0.0084(5) 1. 0
O2 O2- 4 i 0.2987(2) 0.0609(2) 0.5884(2) 0.0087(5) 1. 0
O3 O2- 4 i 0.0995(3) -.2209(2) -.3830(2) 0.0076(5) 1. 0
O4 O2- 4 i 0.0290(3) 0.2320(2) 0.0925(2) 0.0097(6) 1. 0
F1 F1- 4 i 0.0191(2) 0.0824(2) -.2413(2) 0.0098(5) 1. 0
Li1 Li1+ 4 i 0.050(4) -.320(3) 0.2403(16) 0.0201(1) 0.5 0
Li2 Li1+ 4 i 0.0654(19) -.3239(14) 0.3070(17) 0.0201(1) 0.5 0
#End of TTdata_68926-ICSD