
#(C) 2018 by FIZ Karlsruhe - Leibniz Institute for Information Infrastructure.  All rights reserved.
data_69052-ICSD
_database_code_ICSD 69052
_audit_creation_date 1992-01-20
_chemical_name_systematic 'Lithium copper(I) dicopper oxide'
_chemical_formula_structural 'Li Cu3 O3'
_chemical_formula_sum 'Cu3 Li1 O3'
_exptl_crystal_density_diffrn 5.81
_publ_section_title 'LiCu2O2 and LiCu3O3: new mixed valent copper oxides'
loop_
_citation_id
_citation_journal_full
_citation_year
_citation_journal_volume
_citation_page_first
_citation_page_last
_citation_journal_id_ASTM
primary 'Journal of Solid State Chemistry' 1990 88 534 542 JSSCBI
loop_
_publ_author_name
'Hibble, S.J.'
'Koehler, J.'
'Simon, A.'
'Paider, S.'
_cell_length_a 2.810(1)
_cell_length_b 2.810(1)
_cell_length_c 8.889(4)
_cell_angle_alpha 90.
_cell_angle_beta 90.
_cell_angle_gamma 90.
_cell_volume 70.19
_cell_formula_units_Z 1
_symmetry_space_group_name_H-M 'P 4/m m m'
_symmetry_Int_Tables_number 123
_refine_ls_R_factor_all 0.019
loop_
_symmetry_equiv_pos_site_id
_symmetry_equiv_pos_as_xyz
1 'y, x, -z'
2 '-y, -x, -z'
3 '-y, x, -z'
4 'y, -x, -z'
5 '-x, y, -z'
6 'x, -y, -z'
7 'x, y, -z'
8 '-x, -y, -z'
9 '-y, -x, z'
10 'y, x, z'
11 'y, -x, z'
12 '-y, x, z'
13 'x, -y, z'
14 '-x, y, z'
15 '-x, -y, z'
16 'x, y, z'
loop_
_atom_type_symbol
_atom_type_oxidation_number
Cu1+ 1
Cu2+ 2
Li1+ 1
Cu2+ 2
Li1+ 1
O2- -2
loop_
_atom_site_label
_atom_site_type_symbol
_atom_site_symmetry_multiplicity
_atom_site_Wyckoff_symbol
_atom_site_fract_x
_atom_site_fract_y
_atom_site_fract_z
_atom_site_B_iso_or_equiv
_atom_site_occupancy
_atom_site_attached_hydrogens
Cu1 Cu1+ 1 a 0 0 0 . 1. 0
Cu2 Cu2+ 1 b 0 0 0.5 . 0.808(32) 0
Li1 Li1+ 1 b 0 0 0.5 . 0.192(32) 0
Cu3 Cu2+ 2 h 0.5 0.5 0.2283(2) . 0.596(16) 0
Li2 Li1+ 2 h 0.5 0.5 0.2283(2) . 0.404(16) 0
O1 O2- 1 d 0.5 0.5 0.5 . 1. 0
O2 O2- 2 g 0 0 0.2088(6) . 1. 0
loop_
_atom_site_aniso_label
_atom_site_aniso_type_symbol
_atom_site_aniso_U_11
_atom_site_aniso_U_22
_atom_site_aniso_U_33
_atom_site_aniso_U_12
_atom_site_aniso_U_13
_atom_site_aniso_U_23
Cu1 Cu1+ 0.0104(4) 0.0104(4) 0.0107(6) 0 0 0
Cu2 Cu2+ 0.0051(5) 0.0051(5) 0.0099(7) 0 0 0
Li1 Li1+ 0.0051(5) 0.0051(5) 0.0099(7) 0 0 0
Cu3 Cu2+ 0.0057(4) 0.0057(4) 0.0128(7) 0 0 0
Li2 Li1+ 0.0057(4) 0.0057(4) 0.0128(7) 0 0 0
O1 O2- 0.0083(18) 0.0083(18) 0.0186(20) 0 0 0
O2 O2- 0.0077(12) 0.0077(12) 0.0167(17) 0 0 0
#End of TTdata_69052-ICSD