
#(C) 2018 by FIZ Karlsruhe - Leibniz Institute for Information Infrastructure.  All rights reserved.
data_69560-ICSD
_database_code_ICSD 69560
_audit_creation_date 1992-08-20
_audit_update_record 2012-08-01
_chemical_name_systematic 'Tetrasilver dilithium cyclo-hexaphosphate dihydrate'
_chemical_formula_structural 'Ag4 Li2 (P6 O18) (H2 O)2'
_chemical_formula_sum 'H4 Ag4 Li2 O20 P6'
_chemical_name_structure_type BiH(PO3)4
_exptl_crystal_density_diffrn 3.68
_publ_section_title

;
Crystal chemistry of cyclo-hexaphosphates. XIII.Structure of silver lithium
cyclo-hexaphosphate dihydrate
;
loop_
_citation_id
_citation_journal_full
_citation_year
_citation_journal_volume
_citation_page_first
_citation_page_last
_citation_journal_id_ASTM
primary 'Acta Crystallographica, Section C: Crystal Structure Communications'
1991 47 1150 1152 ACSCEE
loop_
_publ_author_name
'Averbuch-Pouchot, M.T.'
'Durif, A.'
_cell_length_a 8.408(2)
_cell_length_b 7.602(2)
_cell_length_c 7.566(2)
_cell_angle_alpha 107.47(3)
_cell_angle_beta 106.09(3)
_cell_angle_gamma 72.64(3)
_cell_volume 430.84
_cell_formula_units_Z 1
_symmetry_space_group_name_H-M 'P -1'
_symmetry_Int_Tables_number 2
_refine_ls_R_factor_all 0.033
loop_
_symmetry_equiv_pos_site_id
_symmetry_equiv_pos_as_xyz
1 '-x, -y, -z'
2 'x, y, z'
loop_
_atom_type_symbol
_atom_type_oxidation_number
Ag1+ 1
Li1+ 1
P5+ 5
O2- -2
H1+ 1
loop_
_atom_site_label
_atom_site_type_symbol
_atom_site_symmetry_multiplicity
_atom_site_Wyckoff_symbol
_atom_site_fract_x
_atom_site_fract_y
_atom_site_fract_z
_atom_site_B_iso_or_equiv
_atom_site_occupancy
_atom_site_attached_hydrogens
Ag1 Ag1+ 2 i 0.59886(3) 0.43519(4) 0.33443(4) . 1. 0
Ag2 Ag1+ 2 i 0.01486(4) 0.69332(4) 0.41424(5) . 1. 0
Li1 Li1+ 2 i 0.6644(7) 0.7130(9) 0.0867(9) . 1. 0
P1 P5+ 2 i 0.73148(9) 0.7614(1) 0.7368(1) . 1. 0
P2 P5+ 2 i 0.90706(9) 0.2881(1) 0.0999(1) . 1. 0
P3 P5+ 2 i 0.67323(9) 0.1752(1) 0.7404(1) . 1. 0
O1 O2- 2 i 0.6047(3) 0.7386(4) 0.8246(4) . 1. 0
O2 O2- 2 i 0.7840(3) 0.6154(4) 0.5682(4) . 1. 0
O3 O2- 2 i 0.6706(4) 0.9572(3) 0.6772(4) . 1. 0
O4 O2- 2 i 0.8943(3) 0.7851(3) 0.9016(3) . 1. 0
O5 O2- 2 i 0.6933(4) 0.2200(4) 0.5714(4) . 1. 0
O6 O2- 2 i 0.5288(3) 0.2910(4) 0.8304(4) . 1. 0
O7 O2- 2 i 0.8483(3) 0.1725(3) 0.8900(4) . 1. 0
O8 O2- 2 i 0.8672(3) 0.2125(3) 0.2382(4) . 1. 0
O9 O2- 2 i 0.8513(3) 0.4952(3) 0.1152(4) . 1. 0
O10 O2- 2 i 0.2201(3) 0.0899(3) 0.7261(3) . 1. 0
H1 H1+ 2 i 0.196(8) 0.020(9) 0.77(1) 2.(1) 1. 0
H2 H1+ 2 i 0.710(8) 0.982(9) 0.31(1) 2.(1) 1. 0
loop_
_atom_site_aniso_label
_atom_site_aniso_type_symbol
_atom_site_aniso_beta_11
_atom_site_aniso_beta_22
_atom_site_aniso_beta_33
_atom_site_aniso_beta_12
_atom_site_aniso_beta_13
_atom_site_aniso_beta_23
Ag1 Ag1+ 0.00618(3) 0.00883(3) 0.01187(4) -.00276(3) 0.00022(3) 0.00184(3)
Ag2 Ag1+ 0.00982(4) 0.01013(4) 0.01006(4) -.00118(4) -.00067(4) 0.00177(4)
Li1 Li1+ 0.0057(7) 0.0088(9) 0.0087(9) -.0005(6) 0.0020(6) 0.0015(6)
P1 P5+ 0.00438(7) 0.00474(8) 0.00468(9) -.00150(6) 0.00025(6) 0.0009(1)
P2 P5+ 0.00400(7) 0.00408(8) 0.00504(9) -.00100(6) 0.00085(6) 0.0004(1)
P3 P5+ 0.00446(7) 0.00494(8) 0.00468(9) -.00140(6) 0.00040(6) 0.0010(1)
O1 O2- 0.0068(2) 0.0178(4) 0.0078(3) -.0065(3) 0.0004(3) 0.0041(3)
O2 O2- 0.0082(3) 0.0105(4) 0.0064(4) -.0019(3) 0.0013(3) -.0013(4)
O3 O2- 0.0134(4) 0.0069(3) 0.0127(5) -.0056(3) -.0069(4) 0.0047(3)
O4 O2- 0.0042(2) 0.0075(3) 0.0050(3) -.0012(2) 0.0005(2) 0.0009(3)
O5 O2- 0.0141(4) 0.0120(4) 0.0077(3) -.0029(3) 0.0038(3) 0.0040(3)
O6 O2- 0.0057(3) 0.0136(5) 0.0129(5) -.0008(3) 0.0039(3) 0.0013(4)
O7 O2- 0.0047(2) 0.0088(4) 0.0077(4) -.0012(3) -.0005(3) -.0021(3)
O8 O2- 0.0100(3) 0.0091(3) 0.0102(4) -.0031(3) 0.0052(3) 0.0021(3)
O9 O2- 0.0079(3) 0.0043(3) 0.0113(4) 0.0003(3) 0.0023(3) 0.0006(3)
O10 O2- 0.0101(3) 0.0062(3) 0.0082(3) -.0020(3) 0.0038(3) 0.0011(3)
#End of TTdata_69560-ICSD