
#(C) 2017 by FIZ Karlsruhe - Leibniz Institute for Information Infrastructure.  All rights reserved.
data_69622-ICSD
_database_code_ICSD 69622
_audit_creation_date 1992-08-20
_chemical_name_systematic 'Lithium hexafluorogermanate'
_chemical_formula_structural 'Li2 (Ge F6)'
_chemical_formula_sum 'F6 Ge1 Li2'
_chemical_name_structure_type Na2SiF6
_exptl_crystal_density_diffrn 3.54
_publ_section_title

;
Zur Synthese von Einkristallen komplexer Fluoride der Halbmetalle auf
trockenem Wege: Li2(GeF6) und Na2(GeF6)
;
loop_
_citation_id
_citation_journal_full
_citation_year
_citation_journal_volume
_citation_page_first
_citation_page_last
_citation_journal_id_ASTM
primary 'Zeitschrift fuer Anorganische und Allgemeine Chemie (1950) (DE)' 1990
582 111 120 ZAACAB
loop_
_publ_author_name
'Averdunk, F.'
'Hoppe, R.'
_cell_length_a 8.4044(8)
_cell_length_b 8.4044(8)
_cell_length_c 4.6161(8)
_cell_angle_alpha 90.
_cell_angle_beta 90.
_cell_angle_gamma 120.
_cell_volume 282.37
_cell_formula_units_Z 3
_symmetry_space_group_name_H-M 'P 3 2 1'
_symmetry_Int_Tables_number 150
_refine_ls_R_factor_all 0.035
loop_
_symmetry_equiv_pos_site_id
_symmetry_equiv_pos_as_xyz
1 'x-y, -y, -z'
2 '-x, -x+y, -z'
3 'y, x, -z'
4 '-x+y, -x, z'
5 '-y, x-y, z'
6 'x, y, z'
loop_
_atom_type_symbol
_atom_type_oxidation_number
Ge4+ 4
Li1+ 1
F1- -1
loop_
_atom_site_label
_atom_site_type_symbol
_atom_site_symmetry_multiplicity
_atom_site_Wyckoff_symbol
_atom_site_fract_x
_atom_site_fract_y
_atom_site_fract_z
_atom_site_B_iso_or_equiv
_atom_site_occupancy
_atom_site_attached_hydrogens
Ge1 Ge4+ 1 a 0 0 0 . 1. 0
Ge2 Ge4+ 2 d 0.3333 0.6667 0.4869(1) . 1. 0
Li1 Li1+ 3 f 0.7060(7) 0 0.5 . 1. 0
Li2 Li1+ 3 e 0.3610(7) 0 0 . 1. 0
F1 F1- 6 g 0.4624(2) 0.2212(2) 0.2927(3) . 1. 0
F2 F1- 6 g 0.4246(3) 0.5554(2) 0.2668(3) . 1. 0
F3 F1- 6 g 0.2038(2) 0.0925(2) 0.7813(3) . 1. 0
loop_
_atom_site_aniso_label
_atom_site_aniso_type_symbol
_atom_site_aniso_U_11
_atom_site_aniso_U_22
_atom_site_aniso_U_33
_atom_site_aniso_U_12
_atom_site_aniso_U_13
_atom_site_aniso_U_23
Ge1 Ge4+ 0.0074(1) 0.0074(1) 0.0090(2) 0.0037(1) 0 0
Ge2 Ge4+ 0.0077(1) 0.0077(1) 0.0094(2) 0.0038(1) 0 0
Li1 Li1+ 0.0190(9) 0.0112(9) 0.0252(9) 0.0056(5) 0.0006(4) 0.0013(9)
Li2 Li1+ 0.0211(9) 0.0053(9) 0.0176(9) 0.0026(4) 0.0034(4) 0.0068(9)
F1 F1- 0.0126(5) 0.0148(6) 0.0163(5) 0.0088(5) -.0025(4) 0.0014(5)
F2 F1- 0.0276(7) 0.0153(6) 0.0161(5) 0.0151(5) 0.0003(6) -.0018(6)
F3 F1- 0.0131(5) 0.0123(6) 0.0166(5) 0.0046(5) 0.0042(4) 0.0066(6)
#End of TTdata_69622-ICSD