
#(C) 2018 by FIZ Karlsruhe - Leibniz Institute for Information Infrastructure.  All rights reserved.
data_69845-ICSD
_database_code_ICSD 69845
_audit_creation_date 1993-01-06
_chemical_name_systematic 'Lithium uranium oxide (0.9/3/8)'
_chemical_formula_structural 'Li0.88 U3 O8'
_chemical_formula_sum 'Li0.88 O8 U3'
_exptl_crystal_density_diffrn 8.26
_cell_measurement_temperature 573.
_publ_section_title
'Structure of the insertion compound Li0.88U3O8 by powder neutron diffraction'
loop_
_citation_id
_citation_journal_full
_citation_year
_citation_journal_volume
_citation_page_first
_citation_page_last
_citation_journal_id_ASTM
primary 'Journal of Solid State Chemistry' 1991 92 159 169 JSSCBI
loop_
_publ_author_name
'Dickens, P.G.'
'Powell, A.V.'
_cell_length_a 6.849(3)
_cell_length_b 6.849(3)
_cell_length_c 4.197(1)
_cell_angle_alpha 90.
_cell_angle_beta 90.
_cell_angle_gamma 120.
_cell_volume 170.5
_cell_formula_units_Z 1
_symmetry_space_group_name_H-M 'P -6 2 m'
_symmetry_Int_Tables_number 189
_refine_ls_R_factor_all 0.014
loop_
_symmetry_equiv_pos_site_id
_symmetry_equiv_pos_as_xyz
1 '-x, -x+y, -z'
2 'x-y, -y, -z'
3 'y, x, -z'
4 '-x, -x+y, z'
5 'x-y, -y, z'
6 'y, x, z'
7 '-x+y, -x, -z'
8 '-y, x-y, -z'
9 'x, y, -z'
10 '-x+y, -x, z'
11 '-y, x-y, z'
12 'x, y, z'
loop_
_atom_type_symbol
_atom_type_oxidation_number
U5+ 5.04
O2- -2
Li1+ 1
loop_
_atom_site_label
_atom_site_type_symbol
_atom_site_symmetry_multiplicity
_atom_site_Wyckoff_symbol
_atom_site_fract_x
_atom_site_fract_y
_atom_site_fract_z
_atom_site_B_iso_or_equiv
_atom_site_occupancy
_atom_site_attached_hydrogens
U1 U5+ 3 f 0.3542(3) 0 0 0.68(5) 1. 0
O1 O2- 3 g 0.3533(7) 0 0.5 1.82(9) 1. 0
O2 O2- 3 f 0.7417(7) 0 0 2.61(9) 1. 0
O3 O2- 2 c 0.6667 0.3333 0 1.20(9) 1. 0
Li1 Li1+ 2 d 0.6667 0.3333 0.5 8.1(3) 0.44 0
#End of TTdata_69845-ICSD