
#(C) 2018 by FIZ Karlsruhe - Leibniz Institute for Information Infrastructure.  All rights reserved.
data_710067-ICSD
_database_code_ICSD 710067
_audit_creation_date 2012-02-01
_chemical_name_systematic 'Lithium dihydrate dihafnium tris(phosphate)'
_chemical_formula_structural 'Li (H2 O)2 (Hf2 (P O4)3)'
_chemical_formula_sum 'H4 Hf2 Li1 O14 P3'
_exptl_crystal_density_diffrn 4.29
_cell_measurement_temperature 295.
_publ_section_title

;
Synthesis and crystal structure of a lithum filled langbeinite variant Li (H2
O)2 [Hf2 (P O4)3]
;
loop_
_citation_id
_citation_journal_full
_citation_year
_citation_journal_volume
_citation_page_first
_citation_page_last
_citation_journal_id_ASTM
primary 'Zeitschrift fuer Kristallographie - New Crystal Structures' 2011 226
299 300 ZKNSFT
loop_
_publ_author_name
'Chen Shuang'
'Hoffmann, S.'
'Borrmann, H.'
'Kniep, R.'
_cell_length_a 10.1993(2)
_cell_length_b 10.1993(2)
_cell_length_c 10.1993(2)
_cell_angle_alpha 90
_cell_angle_beta 90
_cell_angle_gamma 90
_cell_volume 1060.99
_cell_formula_units_Z 4
_symmetry_space_group_name_H-M 'P 21 3'
_symmetry_Int_Tables_number 198
_refine_ls_R_factor_all 0.022
loop_
_symmetry_equiv_pos_site_id
_symmetry_equiv_pos_as_xyz
1 '-z+1/2, -x, y+1/2'
2 '-y+1/2, -z, x+1/2'
3 '-x+1/2, -y, z+1/2'
4 '-z, x+1/2, -y+1/2'
5 '-y, z+1/2, -x+1/2'
6 '-x, y+1/2, -z+1/2'
7 'z+1/2, -x+1/2, -y'
8 'y+1/2, -z+1/2, -x'
9 'x+1/2, -y+1/2, -z'
10 'z, x, y'
11 'y, z, x'
12 'x, y, z'
loop_
_atom_type_symbol
_atom_type_oxidation_number
Hf4+ 4
P5+ 5
O2- -2
H1+ 1
O2- -2
H1+ 1
Li1+ 1
loop_
_atom_site_label
_atom_site_type_symbol
_atom_site_symmetry_multiplicity
_atom_site_Wyckoff_symbol
_atom_site_fract_x
_atom_site_fract_y
_atom_site_fract_z
_atom_site_B_iso_or_equiv
_atom_site_occupancy
_atom_site_attached_hydrogens
Hf1 Hf4+ 4 a 0.859895(14) 0.359895(14) 0.140105(14) 0.00734(5) 1 0
Hf2 Hf4+ 4 a 0.587380(14) 0.087380(14) 0.412620(14) 0.00663(5) 1 0
P1 P5+ 12 b 0.87519(9) 0.04208(9) 0.22972(9) 0.00751(16) 1 0
O1 O2- 12 b 0.9158(3) 0.1864(3) 0.2303(3) 0.0134(5) 1 0
O2 O2- 12 b 0.9617(3) 0.2982(3) -0.0194(3) 0.0152(5) 1 0
O3 O2- 12 b 0.8566(3) -0.0076(3) 0.0895(3) 0.0152(5) 1 0
O4 O2- 12 b 0.7458(3) 0.0233(3) 0.3037(3) 0.0142(6) 1 0
O5 O2- 4 a 0.5721(4) -0.0721(4) 0.0721(4) 0.0309(14) 1 0
H1 H1+ 12 b 0.575(9) -0.001(8) 0.043(10) 0.037 0.67 0
O6 O2- 4 a 0.7783(4) -0.2783(4) 0.2783(4) 0.0301(16) 1 0
H2 H1+ 12 b 0.796(9) -0.245(8) 0.337(8) 0.036 0.67 0
Li1 Li1+ 4 a 0.6738(16) -0.1738(16) 0.1738(16) 0.134(15) 1 0
loop_
_atom_site_aniso_label
_atom_site_aniso_type_symbol
_atom_site_aniso_U_11
_atom_site_aniso_U_22
_atom_site_aniso_U_33
_atom_site_aniso_U_12
_atom_site_aniso_U_13
_atom_site_aniso_U_23
Hf1 Hf4+ 0.00734(5) 0.00734(5) 0.00734(5) -0.00015(5) 0.00015(5) 0.00015(5)
Hf2 Hf4+ 0.00663(5) 0.00663(5) 0.00663(5) -0.00032(5) 0.00032(5) 0.00032(5)
P1 P5+ 0.0080(4) 0.0074(4) 0.0072(4) 0.0011(3) 0.0009(3) -0.0002(3)
O1 O2- 0.0154(13) 0.0086(12) 0.0163(13) -0.0009(11) -0.0043(12) 0.0013(9)
O2 O2- 0.0171(14) 0.0187(14) 0.0099(13) 0.0033(11) 0.0064(11) -0.0026(11)
O3 O2- 0.0185(13) 0.0184(13) 0.0088(11) 0.0015(11) -0.0014(12) -0.0061(11)
O4 O2- 0.0112(13) 0.0165(14) 0.0148(13) 0.0014(11) 0.0045(10) -0.0001(11)
O5 O2- 0.0309(14) 0.0309(14) 0.0309(14) 0.0045(16) -0.0045(16) 0.0045(16)
O6 O2- 0.0301(16) 0.0301(16) 0.0301(16) -0.0008(17) 0.0008(17) -0.0008(17)
Li1 Li1+ 0.134(15) 0.134(15) 0.134(15) 0.051(11) -0.051(11) 0.051(11)
#End of TTdata_710067-ICSD