
#(C) 2018 by FIZ Karlsruhe - Leibniz Institute for Information Infrastructure.  All rights reserved.
data_71238-ICSD
_database_code_ICSD 71238
_audit_creation_date 1993-01-06
_chemical_name_systematic 'Lithium gallium silicate (2.82/0.333/1) - alpha'
_chemical_formula_structural 'Li2.82 Ga0.333 (Si O4)'
_chemical_formula_sum 'Ga0.333 Li2.82 O4 Si1'
_exptl_crystal_density_diffrn 2.71
_publ_section_title

;
Crystal chemistry of lithium gallium silicate, Li4-3xGaxSiO4, solid
electrolytes
;
loop_
_citation_id
_citation_journal_full
_citation_year
_citation_journal_volume
_citation_page_first
_citation_page_last
_citation_journal_id_ASTM
primary 'Journal of Materials Chemistry' 1991 1 91 96 JMACEP
loop_
_publ_author_name
'Smith, R.I.'
'West, A.R.'
_cell_length_a 7.2814(4)
_cell_length_b 7.4064(4)
_cell_length_c 6.1311(4)
_cell_angle_alpha 90.
_cell_angle_beta 90.
_cell_angle_gamma 90.
_cell_volume 330.64
_cell_formula_units_Z 4
_symmetry_space_group_name_H-M 'C 2 2 21'
_symmetry_Int_Tables_number 20
_refine_ls_R_factor_all 0.036
loop_
_symmetry_equiv_pos_site_id
_symmetry_equiv_pos_as_xyz
1 '-x, y, -z+1/2'
2 '-x, -y, z+1/2'
3 'x, -y, -z'
4 'x, y, z'
5 '-x+1/2, y+1/2, -z+1/2'
6 '-x+1/2, -y+1/2, z+1/2'
7 'x+1/2, -y+1/2, -z'
8 'x+1/2, y+1/2, z'
loop_
_atom_type_symbol
_atom_type_oxidation_number
O2- -2
Si4+ 4
Ga3+ 3
Li1+ 1
loop_
_atom_site_label
_atom_site_type_symbol
_atom_site_symmetry_multiplicity
_atom_site_Wyckoff_symbol
_atom_site_fract_x
_atom_site_fract_y
_atom_site_fract_z
_atom_site_B_iso_or_equiv
_atom_site_occupancy
_atom_site_attached_hydrogens
O1 O2- 8 c 0.3011(1) 0.0012(5) 0.2194(1) . 1. 0
O2 O2- 8 c 0.0410(1) 0.1783(1) 0.9970(3) . 1. 0
Si1 Si4+ 4 a 0.1734(2) 0 0 . 1. 0
Ga1 Ga3+ 4 b 0 0.614(3) 0.25 . 0.333 0
Li1 Li1+ 4 b 0 0.614(3) 0.25 . 0.55 0
Li2 Li1+ 4 b 0 0.359(1) 0.25 . 0.84(2) 0
Li3 Li1+ 4 a 0.815(1) 0 0 . 0.68 0
Li4 Li1+ 8 c 0.268(1) 0.357(1) 0.020(3) . 0.32 0
Li5 Li1+ 4 a 0.496(5) 0 0 . 0.11 0
loop_
_atom_site_aniso_label
_atom_site_aniso_type_symbol
_atom_site_aniso_B_11
_atom_site_aniso_B_22
_atom_site_aniso_B_33
_atom_site_aniso_B_12
_atom_site_aniso_B_13
_atom_site_aniso_B_23
O1 O2- 1.21(3) 1.83(4) 1.22(4) 0.71(15) -.10(3) 0.22(13)
O2 O2- 2.05(4) 1.29(4) 0.81(4) 0.53(3) -.44(11) 0.57(10)
Si1 Si4+ 0.78(7) 0.80(7) 1.61(7) 0 0 0
#End of TTdata_71238-ICSD