
#(C) 2018 by FIZ Karlsruhe - Leibniz Institute for Information Infrastructure.  All rights reserved.
data_71367-ICSD
_database_code_ICSD 71367
_audit_creation_date 1993-01-06
_audit_update_record 2006-04-01
_chemical_name_systematic 'Lithium potassium sulfate(VI)'
_chemical_formula_structural 'Li K (S O4)'
_chemical_formula_sum 'K1 Li1 O4 S1'
_chemical_name_structure_type LiKSO4(Cc)
_exptl_crystal_density_diffrn 2.4
_cell_measurement_temperature 100.
_publ_section_title

;
Neutron profile refinement study of the low-temperature structural phases of
Li K S O4
;
loop_
_citation_id
_citation_journal_full
_citation_year
_citation_journal_volume
_citation_page_first
_citation_page_last
_citation_journal_id_ASTM
primary 'Physica B, Condensed Matter' 1991 174 95 100 PHYBE3
loop_
_publ_author_name
'Rajagopal, H.'
'Jaya, V.'
'Sequeira, A.'
'Chidambaram, R.'
_cell_length_a 5.072(4)
_cell_length_b 8.955(7)
_cell_length_c 8.655(7)
_cell_angle_alpha 90.
_cell_angle_beta 89.1(1)
_cell_angle_gamma 90.
_cell_volume 393.06
_cell_formula_units_Z 4
_symmetry_space_group_name_H-M 'C 1 c 1'
_symmetry_Int_Tables_number 9
_refine_ls_R_factor_all 0.021
loop_
_symmetry_equiv_pos_site_id
_symmetry_equiv_pos_as_xyz
1 'x, -y, z+1/2'
2 'x, y, z'
3 'x+1/2, -y+1/2, z+1/2'
4 'x+1/2, y+1/2, z'
loop_
_atom_type_symbol
_atom_type_oxidation_number
K1+ 1
Li1+ 1
S6+ 6
O2- -2
loop_
_atom_site_label
_atom_site_type_symbol
_atom_site_symmetry_multiplicity
_atom_site_Wyckoff_symbol
_atom_site_fract_x
_atom_site_fract_y
_atom_site_fract_z
_atom_site_B_iso_or_equiv
_atom_site_occupancy
_atom_site_attached_hydrogens
K1 K1+ 4 a 0 0 0 0.1 1. 0
Li1 Li1+ 4 a -.071(16) 0.339(14) 0.301(8) 0.1 1. 0
S1 S6+ 4 a -.023(18) 0.345(11) 0.708(6) 0.1 1. 0
O1 O2- 4 a 0.008(7) 0.336(4) 0.510(6) 0.5(2) 1. 0
O2 O2- 4 a 0.049(12) 0.217(3) 0.764(7) 0.5(2) 1. 0
O3 O2- 4 a 0.615(13) -.016(5) 0.750(8) 0.5(2) 1. 0
O4 O2- 4 a 0.179(12) 0.826(4) 0.754(9) 0.5(2) 1. 0
#End of TTdata_71367-ICSD