
#(C) 2018 by FIZ Karlsruhe - Leibniz Institute for Information Infrastructure.  All rights reserved.
data_71364-ICSD
_database_code_ICSD 71364
_audit_creation_date 1993-01-06
_audit_update_record 2006-04-01
_chemical_name_systematic 'Lithium potassium sulfate(VI)'
_chemical_formula_structural 'Li K (S O4)'
_chemical_formula_sum 'K1 Li1 O4 S1'
_chemical_name_structure_type LiKSO4
_exptl_crystal_density_diffrn 2.38
_publ_section_title

;
Neutron profile refinement study of the low-temperature structural phases of
Li K S O4
;
loop_
_citation_id
_citation_journal_full
_citation_year
_citation_journal_volume
_citation_page_first
_citation_page_last
_citation_journal_id_ASTM
primary 'Physica B, Condensed Matter' 1991 174 95 100 PHYBE3
loop_
_publ_author_name
'Rajagopal, H.'
'Jaya, V.'
'Sequeira, A.'
'Chidambaram, R.'
_cell_length_a 5.143(4)
_cell_length_b 5.143(4)
_cell_length_c 8.641(4)
_cell_angle_alpha 90.
_cell_angle_beta 90.
_cell_angle_gamma 120.
_cell_volume 197.94
_cell_formula_units_Z 2
_symmetry_space_group_name_H-M 'P 63'
_symmetry_Int_Tables_number 173
_refine_ls_R_factor_all 0.011
loop_
_symmetry_equiv_pos_site_id
_symmetry_equiv_pos_as_xyz
1 'x-y, x, z+1/2'
2 'y, -x+y, z+1/2'
3 '-x, -y, z+1/2'
4 '-x+y, -x, z'
5 '-y, x-y, z'
6 'x, y, z'
loop_
_atom_type_symbol
_atom_type_oxidation_number
K1+ 1
Li1+ 1
S6+ 6
O2- -2
loop_
_atom_site_label
_atom_site_type_symbol
_atom_site_symmetry_multiplicity
_atom_site_Wyckoff_symbol
_atom_site_fract_x
_atom_site_fract_y
_atom_site_fract_z
_atom_site_B_iso_or_equiv
_atom_site_occupancy
_atom_site_attached_hydrogens
K1 K1+ 2 a 0 0 0 0.2 1. 0
Li1 Li1+ 2 b 0.3333 0.6667 0.3171(26) 0.2 1. 0
S1 S6+ 2 b 0.3333 0.6667 0.6927(27) 0.2 1. 0
O1 O2- 2 b 0.3333 0.6667 0.5110(29) 3.3(2) 1. 0
O2 O2- 6 c 0.3543(12) 0.413(1) 0.7516(21) 3.3(2) 1. 0
#End of TTdata_71364-ICSD