
#(C) 2017 by FIZ Karlsruhe - Leibniz Institute for Information Infrastructure.  All rights reserved.
data_71567-ICSD
_database_code_ICSD 71567
_audit_creation_date 1993-01-06
_audit_update_record 2010-08-01
_chemical_name_systematic 'Trilithium thorium fluoride'
_chemical_formula_structural 'Li3 Th F7'
_chemical_formula_sum 'F7 Li3 Th1'
_chemical_name_structure_type Li3ThF7
_exptl_crystal_density_diffrn 5.13
_cell_measurement_temperature 295.
_publ_section_title

;
Thermal study of Li3 Th F7 ionic conductor by neutron diffraction: conduction
pathways
;
loop_
_citation_id
_citation_journal_full
_citation_year
_citation_journal_volume
_citation_page_first
_citation_page_last
_citation_journal_id_ASTM
primary 'European Journal of Solid State Inorganic Chemistry' 1992 29 497 504
EJSCE5
loop_
_publ_author_name
'Laligant, Y.'
'Ferey, G.'
'El Ghozzi, M.'
'Avignant, D.'
_cell_length_a 6.20960(8)
_cell_length_b 6.20960(8)
_cell_length_c 12.9628(2)
_cell_angle_alpha 90.
_cell_angle_beta 90.
_cell_angle_gamma 90.
_cell_volume 499.83
_cell_formula_units_Z 4
_symmetry_space_group_name_H-M 'P 4/n c c Z'
_symmetry_Int_Tables_number 130
_refine_ls_R_factor_all 0.031
loop_
_symmetry_equiv_pos_site_id
_symmetry_equiv_pos_as_xyz
1 'y+1/2, x+1/2, -z+1/2'
2 '-y, x+1/2, -z'
3 'y+1/2, -x, -z'
4 '-y, -x, -z+1/2'
5 'x+1/2, y+1/2, -z'
6 '-x, y+1/2, -z+1/2'
7 'x+1/2, -y, -z+1/2'
8 '-x, -y, -z'
9 '-y+1/2, -x+1/2, z+1/2'
10 'y, -x+1/2, z'
11 '-y+1/2, x, z'
12 'y, x, z+1/2'
13 '-x+1/2, -y+1/2, z'
14 'x, -y+1/2, z+1/2'
15 '-x+1/2, y, z+1/2'
16 'x, y, z'
loop_
_atom_type_symbol
_atom_type_oxidation_number
Th4+ 4
F1- -1
Li1+ 1
loop_
_atom_site_label
_atom_site_type_symbol
_atom_site_symmetry_multiplicity
_atom_site_Wyckoff_symbol
_atom_site_fract_x
_atom_site_fract_y
_atom_site_fract_z
_atom_site_B_iso_or_equiv
_atom_site_occupancy
_atom_site_attached_hydrogens
Th1 Th4+ 4 c 0.25 0.25 0.1889(1) . 1. 0
F1 F1- 4 c 0.25 0.25 0.3726(2) . 1. 0
F2 F1- 16 g 0.1627(2) -.0372(2) 0.0781(1) . 1. 0
F3 F1- 8 f 0.9364(2) 0.0636(2) 0.25 . 1. 0
Li1 Li1+ 16 g 0.3302(9) -.0355(9) 0.4232(6) . 0.75(3) 0
loop_
_atom_site_aniso_label
_atom_site_aniso_type_symbol
_atom_site_aniso_beta_11
_atom_site_aniso_beta_22
_atom_site_aniso_beta_33
_atom_site_aniso_beta_12
_atom_site_aniso_beta_13
_atom_site_aniso_beta_23
Th1 Th4+ 0.0027(2) 0.0027(2) 0.00019(8) 0 0 0
F1 F1- 0.0112(4) 0.0112(4) 0.0019(2) 0 0 0
F2 F1- 0.0077(4) 0.0087(3) 0.00182(8) 0.0001(2) -.0015(3) -.0018(2)
F3 F1- 0.0077(3) 0.0077(3) 0.0023(1) 0.0044(5) -.0029(5) -.0029(5)
Li1 Li1+ 0.010(1) 0.013(1) 0.0033(4) 0.0009(7) 0.002(1) -.0002(7)
#End of TTdata_71567-ICSD