
#(C) 2018 by FIZ Karlsruhe - Leibniz Institute for Information Infrastructure.  All rights reserved.
data_71684-ICSD
_database_code_ICSD 71684
_audit_creation_date 1993-08-22
_chemical_name_systematic 'Lithium copper(I) dicopper oxide'
_chemical_formula_structural 'Li Cu3 O3'
_chemical_formula_sum 'Cu3 Li1 O3'
_exptl_crystal_density_diffrn 5.79
_publ_section_title

;
Structure refinements of LiCu2O2 and LiCu3O3 from neutron powder diffraction
data
;
loop_
_citation_id
_citation_journal_full
_citation_year
_citation_journal_volume
_citation_page_first
_citation_page_last
_citation_journal_id_ASTM
primary 'Journal of Alloys and Compounds' 1992 184 315 322 JALCEU
loop_
_publ_author_name
'Berger, R.'
'Oennerud, P.'
'Tellgren, R.'
_cell_length_a 2.8142(1)
_cell_length_b 2.8142(1)
_cell_length_c 8.8956(5)
_cell_angle_alpha 90.
_cell_angle_beta 90.
_cell_angle_gamma 90.
_cell_volume 70.45
_cell_formula_units_Z 1
_symmetry_space_group_name_H-M 'P 4/m m m'
_symmetry_Int_Tables_number 123
_refine_ls_R_factor_all 0.022
loop_
_symmetry_equiv_pos_site_id
_symmetry_equiv_pos_as_xyz
1 'y, x, -z'
2 '-y, -x, -z'
3 '-y, x, -z'
4 'y, -x, -z'
5 '-x, y, -z'
6 'x, -y, -z'
7 'x, y, -z'
8 '-x, -y, -z'
9 '-y, -x, z'
10 'y, x, z'
11 'y, -x, z'
12 '-y, x, z'
13 'x, -y, z'
14 '-x, y, z'
15 '-x, -y, z'
16 'x, y, z'
loop_
_atom_type_symbol
_atom_type_oxidation_number
Cu1+ 1
Cu2+ 2
Li1+ 1
O2- -2
loop_
_atom_site_label
_atom_site_type_symbol
_atom_site_symmetry_multiplicity
_atom_site_Wyckoff_symbol
_atom_site_fract_x
_atom_site_fract_y
_atom_site_fract_z
_atom_site_B_iso_or_equiv
_atom_site_occupancy
_atom_site_attached_hydrogens
Cu1 Cu1+ 1 a 0 0 0 0.65(5) 1. 0
Cu2 Cu2+ 1 b 0 0 0.5 0.35(5) 0.8128(48) 0
Cu3 Cu2+ 2 h 0.5 0.5 0.2265(6) 0.35(5) 0.5936(24) 0
Li1 Li1+ 1 b 0 0 0.5 0.35(5) 0.1872(48) 0
Li2 Li1+ 2 h 0.5 0.5 0.250(4) 0.35(5) 0.4064(24) 0
O1 O2- 1 d 0.5 0.5 0.5 0.61(4) 1. 0
O2 O2- 2 g 0 0 0.2091(3) 0.61(4) 1. 0
#End of TTdata_71684-ICSD