
#(C) 2018 by FIZ Karlsruhe - Leibniz Institute for Information Infrastructure.  All rights reserved.
data_71683-ICSD
_database_code_ICSD 71683
_audit_creation_date 1993-08-22
_chemical_name_systematic 'Lithium copper oxide (1/2/2)'
_chemical_formula_structural 'Li Cu2 O2'
_chemical_formula_sum 'Cu2 Li1 O2'
_chemical_name_structure_type NaCu2O2
_exptl_crystal_density_diffrn 5.43
_publ_section_title

;
Structure refinements of LiCu2O2 and LiCu3O3 from neutron powder diffraction
data
;
loop_
_citation_id
_citation_journal_full
_citation_year
_citation_journal_volume
_citation_page_first
_citation_page_last
_citation_journal_id_ASTM
primary 'Journal of Alloys and Compounds' 1992 184 315 322 JALCEU
loop_
_publ_author_name
'Berger, R.'
'Oennerud, P.'
'Tellgren, R.'
_cell_length_a 5.7260(4)
_cell_length_b 2.8587(2)
_cell_length_c 12.4137(7)
_cell_angle_alpha 90.
_cell_angle_beta 90.
_cell_angle_gamma 90.
_cell_volume 203.2
_cell_formula_units_Z 4
_symmetry_space_group_name_H-M 'P n m a'
_symmetry_Int_Tables_number 62
_refine_ls_R_factor_all 0.022
loop_
_symmetry_equiv_pos_site_id
_symmetry_equiv_pos_as_xyz
1 'x+1/2, y, -z+1/2'
2 'x, -y+1/2, z'
3 '-x+1/2, y+1/2, z+1/2'
4 '-x, -y, -z'
5 '-x+1/2, -y, z+1/2'
6 '-x, y+1/2, -z'
7 'x+1/2, -y+1/2, -z+1/2'
8 'x, y, z'
loop_
_atom_type_symbol
_atom_type_oxidation_number
Li1+ 1
Cu1+ 1.5
O2- -2
loop_
_atom_site_label
_atom_site_type_symbol
_atom_site_symmetry_multiplicity
_atom_site_Wyckoff_symbol
_atom_site_fract_x
_atom_site_fract_y
_atom_site_fract_z
_atom_site_B_iso_or_equiv
_atom_site_occupancy
_atom_site_attached_hydrogens
Li1 Li1+ 4 c 0.150(7) 0.25 0.572(1) 1.5(4) 1. 0
Cu1 Cu1+ 4 c 0.128(2) 0.25 0.2548(4) 0.52(4) 1. 0
Cu2 Cu1+ 4 c 0.120(1) 0.25 0.9049(3) 0.52(4) 1. 0
O1 O2- 4 c 0.137(2) 0.25 0.4063(5) 0.25(6) 1. 0
O2 O2- 4 c 0.113(2) 0.25 0.1058(5) 0.25(6) 1. 0
#End of TTdata_71683-ICSD