
#(C) 2018 by FIZ Karlsruhe - Leibniz Institute for Information Infrastructure.  All rights reserved.
data_71738-ICSD
_database_code_ICSD 71738
_audit_creation_date 1993-08-22
_chemical_name_systematic 'Calcium nickel lithium nitride (1/0.4/0.6/1)'
_chemical_formula_structural 'Ca (Ni0.42 Li0.58) N'
_chemical_formula_sum 'Ca1 Li0.58 N1 Ni0.42'
_chemical_name_structure_type CoYC(tP6)
_exptl_crystal_density_diffrn 2.98
_publ_section_title

;
Ca((Ni1-xLix)N): limited solid solutions (0<x<0.58) in the system
Ca(NiN)(Y(CoC)-type structure)- Ca(LiN) (modified fluorite- type structure)
;
loop_
_citation_id
_citation_journal_full
_citation_year
_citation_journal_volume
_citation_page_first
_citation_page_last
_citation_journal_id_ASTM
primary 'Journal of Alloys and Compounds' 1992 186 339 345 JALCEU
loop_
_publ_author_name
'Gudat, A.'
'Kniep, R.'
'Maier, J.'
_cell_length_a 3.723(1)
_cell_length_b 3.723(1)
_cell_length_c 6.656(1)
_cell_angle_alpha 90.
_cell_angle_beta 90.
_cell_angle_gamma 90.
_cell_volume 92.26
_cell_formula_units_Z 2
_symmetry_space_group_name_H-M 'P 42/m m c'
_symmetry_Int_Tables_number 131
_refine_ls_R_factor_all 0.027
loop_
_symmetry_equiv_pos_site_id
_symmetry_equiv_pos_as_xyz
1 'y, x, z+1/2'
2 '-y, -x, z+1/2'
3 '-x, y, z'
4 'x, -y, z'
5 '-y, x, -z+1/2'
6 'y, -x, -z+1/2'
7 'x, y, -z'
8 '-x, -y, -z'
9 '-y, -x, -z+1/2'
10 'y, x, -z+1/2'
11 'x, -y, -z'
12 '-x, y, -z'
13 'y, -x, z+1/2'
14 '-y, x, z+1/2'
15 '-x, -y, z'
16 'x, y, z'
loop_
_atom_type_symbol
_atom_type_oxidation_number
Ca2+ 2
N3- -3
Li1+ 1
Ni1+ 1
loop_
_atom_site_label
_atom_site_type_symbol
_atom_site_symmetry_multiplicity
_atom_site_Wyckoff_symbol
_atom_site_fract_x
_atom_site_fract_y
_atom_site_fract_z
_atom_site_B_iso_or_equiv
_atom_site_occupancy
_atom_site_attached_hydrogens
Ca1 Ca2+ 2 e 0 0 0.25 . 1. 0
N1 N3- 2 c 0 0.5 0 . 1. 0
Li1 Li1+ 2 b 0.5 0.5 0 . 0.58(4) 0
Ni1 Ni1+ 2 b 0.5 0.5 0 . 0.42(4) 0
loop_
_atom_site_aniso_label
_atom_site_aniso_type_symbol
_atom_site_aniso_U_11
_atom_site_aniso_U_22
_atom_site_aniso_U_33
_atom_site_aniso_U_12
_atom_site_aniso_U_13
_atom_site_aniso_U_23
Ca1 Ca2+ 0.0189(4) 0.0189(4) 0.0100(4) 0 0 0
N1 N3- 0.0205(21) 0.0230(23) 0.0216(21) 0 0 0
Li1 Li1+ 0.0175(10) 0.0158(9) 0.0151(6) 0 0 0
Ni1 Ni1+ 0.0175(10) 0.0158(9) 0.0151(6) 0 0 0
#End of TTdata_71738-ICSD