
#(C) 2018 by FIZ Karlsruhe - Leibniz Institute for Information Infrastructure.  All rights reserved.
data_71740-ICSD
_database_code_ICSD 71740
_audit_creation_date 1993-08-22
_chemical_name_systematic
'Yttrium barium copper lithium oxide (.97/2.06/2.94/.06/6.95)'
_chemical_formula_structural 'Y0.974 Ba2.058 Cu2.943 Li0.057 O6.950'
_chemical_formula_sum 'Ba2.058 Cu2.943 Li0.057 O6.95 Y0.974'
_chemical_name_structure_type YBa2Cu3O6+x(orh)
_exptl_crystal_density_diffrn 6.37
_cell_measurement_temperature 297.
_publ_section_title

;
Neutron powder diffraction study of Cu-site preference of Li dopants in
YBa2(Cu1-xLix)3O6+d
;
loop_
_citation_id
_citation_journal_full
_citation_year
_citation_journal_volume
_citation_page_first
_citation_page_last
_citation_journal_id_ASTM
primary 'Physica C, Superconductivity' 1992 194 307 320 PHYCE6
loop_
_publ_author_name
'Kwei, G.H.'
'Ott, K.C.'
'Peterson, E.J.'
_cell_length_a 3.8317(3)
_cell_length_b 3.8866(3)
_cell_length_c 11.697(1)
_cell_angle_alpha 90.
_cell_angle_beta 90.
_cell_angle_gamma 90.
_cell_volume 174.2
_cell_formula_units_Z 1
_symmetry_space_group_name_H-M 'P m m m'
_symmetry_Int_Tables_number 47
_refine_ls_R_factor_all 0.02
loop_
_symmetry_equiv_pos_site_id
_symmetry_equiv_pos_as_xyz
1 'x, -y, z'
2 '-x, y, z'
3 'x, y, -z'
4 '-x, -y, -z'
5 '-x, y, -z'
6 'x, -y, -z'
7 '-x, -y, z'
8 'x, y, z'
loop_
_atom_type_symbol
_atom_type_oxidation_number
Y3+ 3
Ba2+ 2
Cu2+ 2.312
Li1+ 1
Cu2+ 2.312
Li1+ 1
O2- -2
loop_
_atom_site_label
_atom_site_type_symbol
_atom_site_symmetry_multiplicity
_atom_site_Wyckoff_symbol
_atom_site_fract_x
_atom_site_fract_y
_atom_site_fract_z
_atom_site_B_iso_or_equiv
_atom_site_occupancy
_atom_site_attached_hydrogens
Y1 Y3+ 1 h 0.5 0.5 0.5 0.0030(2) 0.974(4) 0
Ba1 Ba2+ 2 t 0.5 0.5 0.18560(9) 0.0082(2) 1.029(4) 0
Cu1 Cu2+ 1 a 0 0 0 0.0021(2) 0.945(3) 0
Li1 Li1+ 1 a 0 0 0 0.0021(2) 0.055(3) 0
Cu2 Cu2+ 2 q 0 0 0.35623(6) 0.0034(1) 0.999(2) 0
Li2 Li1+ 2 q 0 0 0.35623(6) 0.0034(1) 0.001(2) 0
O1 O2- 1 e 0 0.5 0 . 0.844(7) 0
O2 O2- 2 s 0.5 0 0.37867(11) 0.0043(2) 1. 0
O3 O2- 2 r 0 0.5 0.37786(12) 0.0043(2) 1. 0
O4 O2- 2 q 0 0 0.15807(8) 0.0088(2) 1. 0
O5 O2- 1 b 0.5 0 0 0.012(2) 0.106(5) 0
loop_
_atom_site_aniso_label
_atom_site_aniso_type_symbol
_atom_site_aniso_U_11
_atom_site_aniso_U_22
_atom_site_aniso_U_33
_atom_site_aniso_U_12
_atom_site_aniso_U_13
_atom_site_aniso_U_23
O1 O2- 0.0318(13) 0.0001(6) 0.0113(11) 0 0 0
#End of TTdata_71740-ICSD