
#(C) 2018 by FIZ Karlsruhe - Leibniz Institute for Information Infrastructure.  All rights reserved.
data_71946-ICSD
_database_code_ICSD 71946
_audit_creation_date 1993-08-22
_audit_update_record 2011-02-01
_chemical_name_systematic 'Lithium trioxohydroxodiborate hydrate'
_chemical_formula_structural 'Li (B2 O3 (O H)) (H2 O)'
_chemical_formula_sum 'H3 B2 Li1 O5'
_chemical_name_structure_type LiB2O3(OH)H2O
_exptl_crystal_density_diffrn 1.9
_publ_section_title

;
Crystal structure determination of lithium diborate hydrate, Li B2 O3 (O H) *
H2 O, from X-ray powder diffraction data collected with a curved
position-sensitive detector
;
loop_
_citation_id
_citation_journal_full
_citation_year
_citation_journal_volume
_citation_page_first
_citation_page_last
_citation_journal_id_ASTM
primary 'Journal of Applied Crystallography' 1992 25 617 623 JACGAR
loop_
_publ_author_name
'Louer, D.'
'Louer, M.'
'Touboul, M.'
_cell_length_a 9.7984(10)
_cell_length_b 8.2759(7)
_cell_length_c 9.6138(8)
_cell_angle_alpha 90.
_cell_angle_beta 90.
_cell_angle_gamma 90.
_cell_volume 779.59
_cell_formula_units_Z 8
_symmetry_space_group_name_H-M 'P n n a'
_symmetry_Int_Tables_number 52
_refine_ls_R_factor_all 0.03
loop_
_symmetry_equiv_pos_site_id
_symmetry_equiv_pos_as_xyz
1 'x+1/2, -y+1/2, z+1/2'
2 '-x, y+1/2, z+1/2'
3 'x+1/2, y, -z'
4 '-x, -y, -z'
5 '-x+1/2, y+1/2, -z+1/2'
6 'x, -y+1/2, -z+1/2'
7 '-x+1/2, -y, z'
8 'x, y, z'
loop_
_atom_type_symbol
_atom_type_oxidation_number
O2- -2
B3+ 3
Li1+ 1
H1+ 1
loop_
_atom_site_label
_atom_site_type_symbol
_atom_site_symmetry_multiplicity
_atom_site_Wyckoff_symbol
_atom_site_fract_x
_atom_site_fract_y
_atom_site_fract_z
_atom_site_B_iso_or_equiv
_atom_site_occupancy
_atom_site_attached_hydrogens
O1 O2- 8 e 0.854(1) 0.322(1) 0.140(1) 1.3(2) 1. 0
O2 O2- 8 e 0.677(1) 0.124(1) 0.191(1) 0.5(2) 1. 0
O3 O2- 8 e 0.853(1) 0.076(1) 0.014(1) 1.0(2) 1. 0
O4 O2- 8 e 0.002(1) 0.295(1) -.049 1.2(2) 1. 0
O5 O2- 8 e 0.119(1) 0.064(1) 0.243(1) 1.6(2) 1. 0
B1 B3+ 4 c 0.75 0 0.112(3) 1.8(6) 1. 0
B2 B3+ 8 e 0.903(2) 0.229(2) 0.035(2) 1.1(4) 1. 0
B3 B3+ 4 d 0.762(3) 0.25 0.25 1.8(7) 1. 0
Li1 Li1+ 8 e 0.546(3) 0.020(4) 0.329(3) 1.5(7) 1. 0
H1 H1+ 8 e 0.89 -.034 0.864 4.(7) 1. 0
H2 H1+ 8 e 0.884 0.818 0.756 4.(7) 1. 0
H3 H1+ 8 e 0.982 0.207 0.853 4.(7) 1. 0
#End of TTdata_71946-ICSD