
#(C) 2018 by FIZ Karlsruhe - Leibniz Institute for Information Infrastructure.  All rights reserved.
data_72202-ICSD
_database_code_ICSD 72202
_audit_creation_date 1994-01-19
_chemical_name_systematic 'Dilanthanum lithium antimony(V) oxide'
_chemical_formula_structural 'La2 Li Sb O6'
_chemical_formula_sum 'La2 Li1 O6 Sb1'
_chemical_name_structure_type Perovskite-Ba2LaRuO6
_exptl_crystal_density_diffrn 6.51
_cell_measurement_temperature 295.
_publ_section_title

;
The monoclinic perovskite La2LiSbO6. A Rietveld refinement of neutron powder
diffraction data
;
loop_
_citation_id
_citation_journal_full
_citation_year
_citation_journal_volume
_citation_page_first
_citation_page_last
_citation_journal_id_ASTM
primary 'Materials Research Bulletin' 1992 27 647 654 MRBUAC
loop_
_publ_author_name
'Lopez, M.L.'
'Veiga, M.L.'
'Rodriguez Carvajal, J.'
'Fernandez, F.'
'Jerez, A.'
'Pico, C.'
_cell_length_a 5.6226(1)
_cell_length_b 5.7199(1)
_cell_length_c 7.9689(2)
_cell_angle_alpha 90.
_cell_angle_beta 89.796(9)
_cell_angle_gamma 90.
_cell_volume 256.28
_cell_formula_units_Z 2
_symmetry_space_group_name_H-M 'P 1 21/n 1'
_symmetry_Int_Tables_number 14
_refine_ls_R_factor_all 0.033
loop_
_symmetry_equiv_pos_site_id
_symmetry_equiv_pos_as_xyz
1 '-x+1/2, y+1/2, -z+1/2'
2 '-x, -y, -z'
3 'x+1/2, -y+1/2, z+1/2'
4 'x, y, z'
loop_
_atom_type_symbol
_atom_type_oxidation_number
La3+ 3
Li1+ 1
Sb5+ 5
O2- -2
loop_
_atom_site_label
_atom_site_type_symbol
_atom_site_symmetry_multiplicity
_atom_site_Wyckoff_symbol
_atom_site_fract_x
_atom_site_fract_y
_atom_site_fract_z
_atom_site_B_iso_or_equiv
_atom_site_occupancy
_atom_site_attached_hydrogens
La1 La3+ 4 e 0.5101(3) 0.5442(2) 0.2535(3) 0.70(2) 1. 0
Li1 Li1+ 2 c 0 0.5 0 1.37(1) 1. 0
Sb1 Sb5+ 2 d 0.5 0 0 0.48(4) 1. 0
O1 O2- 4 e 0.2133(5) 0.1949(5) -.0420(4) 0.86(6) 1. 0
O2 O2- 4 e 0.3005(5) 0.7179(4) -.0456(4) 0.78(6) 1. 0
O3 O2- 4 e 0.4132(4) 0.9781(3) 0.2394(4) 0.73(4) 1. 0
#End of TTdata_72202-ICSD