
#(C) 2018 by FIZ Karlsruhe - Leibniz Institute for Information Infrastructure.  All rights reserved.
data_72402-ICSD
_database_code_ICSD 72402
_audit_creation_date 1994-01-19
_chemical_name_systematic 'Strontium lithium copper nitride (1/3.6/0.4/2)'
_chemical_formula_structural 'Sr Li2 (Li0.78 Cu0.22)2 N2'
_chemical_formula_sum 'Cu0.44 Li3.56 N2 Sr1'
_chemical_name_structure_type Li4SrN2
_exptl_crystal_density_diffrn 2.86
_publ_section_title
'Nitridocuprate(I): Quaternaere Phasen in den Systemen Li-Ca/Sr-Cu-N'
loop_
_citation_id
_citation_journal_full
_citation_year
_citation_journal_volume
_citation_page_first
_citation_page_last
_citation_journal_id_ASTM
primary 'Zeitschrift fuer Naturforschung, B: Chemical Sciences' 1992 47 1290
1296 ZNBSEN
loop_
_publ_author_name
'Jaeger, J.'
'Kniep, R.'
_cell_length_a 3.790(1)
_cell_length_b 3.790(1)
_cell_length_c 27.247(6)
_cell_angle_alpha 90.
_cell_angle_beta 90.
_cell_angle_gamma 90.
_cell_volume 391.38
_cell_formula_units_Z 4
_symmetry_space_group_name_H-M 'I 41/a m d Z'
_symmetry_Int_Tables_number 141
_refine_ls_R_factor_all 0.033
loop_
_symmetry_equiv_pos_site_id
_symmetry_equiv_pos_as_xyz
1 'y+1/4, x+3/4, -z+1/4'
2 'y+1/4, -x+3/4, -z+1/4'
3 'x, y+1/2, -z'
4 'x, -y, -z'
5 '-y+3/4, x+3/4, -z+1/4'
6 '-y+3/4, -x+3/4, -z+1/4'
7 '-x, y+1/2, -z'
8 '-x, -y, -z'
9 '-y+3/4, -x+1/4, z+3/4'
10 '-y+3/4, x+1/4, z+3/4'
11 '-x, -y+1/2, z'
12 '-x, y, z'
13 'y+1/4, -x+1/4, z+3/4'
14 'y+1/4, x+1/4, z+3/4'
15 'x, -y+1/2, z'
16 'x, y, z'
17 'y+3/4, x+1/4, -z+3/4'
18 'y+3/4, -x+1/4, -z+3/4'
19 'x+1/2, y, -z+1/2'
20 'x+1/2, -y+1/2, -z+1/2'
21 '-y+1/4, x+1/4, -z+3/4'
22 '-y+1/4, -x+1/4, -z+3/4'
23 '-x+1/2, y, -z+1/2'
24 '-x+1/2, -y+1/2, -z+1/2'
25 '-y+1/4, -x+3/4, z+1/4'
26 '-y+1/4, x+3/4, z+1/4'
27 '-x+1/2, -y, z+1/2'
28 '-x+1/2, y+1/2, z+1/2'
29 'y+3/4, -x+3/4, z+1/4'
30 'y+3/4, x+3/4, z+1/4'
31 'x+1/2, -y, z+1/2'
32 'x+1/2, y+1/2, z+1/2'
loop_
_atom_type_symbol
_atom_type_oxidation_number
Sr2+ 2
Cu1+ 1
Li1+ 1
N3- -3
loop_
_atom_site_label
_atom_site_type_symbol
_atom_site_symmetry_multiplicity
_atom_site_Wyckoff_symbol
_atom_site_fract_x
_atom_site_fract_y
_atom_site_fract_z
_atom_site_B_iso_or_equiv
_atom_site_occupancy
_atom_site_attached_hydrogens
Sr1 Sr2+ 4 a 0 0.75 0.125 0.0037(4) 1. 0
Cu1 Cu1+ 8 e 0 0.25 0.3052(1) 0.0034(20) 0.22(1) 0
Li1 Li1+ 8 e 0 0.25 0.3052(1) 0.0034(20) 0.78(1) 0
Li2 Li1+ 8 e 0 0.25 0.7712(6) 0.0137(89) 1. 0
N1 N3- 8 e 0 0.25 0.0570(3) 0.0102(39) 1. 0
#End of TTdata_72402-ICSD