
#(C) 2018 by FIZ Karlsruhe - Leibniz Institute for Information Infrastructure.  All rights reserved.
data_72407-ICSD
_database_code_ICSD 72407
_audit_creation_date 1994-01-19
_chemical_name_systematic 'Calcium lithium copper nitride (2/0.9/1.1/2)'
_chemical_formula_structural 'Ca2 (Li0.73 Cu0.27) (Li0.20 Cu0.80) N2'
_chemical_formula_sum 'Ca2 Cu1.07 Li0.93 N2'
_chemical_name_structure_type Li3BN2
_exptl_crystal_density_diffrn 3.26
_publ_section_title
'Nitridocuprate(I): Quaternaere Phasen in den Systemen Li-Ca/Sr-Cu-N'
loop_
_citation_id
_citation_journal_full
_citation_year
_citation_journal_volume
_citation_page_first
_citation_page_last
_citation_journal_id_ASTM
primary 'Zeitschrift fuer Naturforschung, B: Chemical Sciences' 1992 47 1290
1296 ZNBSEN
loop_
_publ_author_name
'Jaeger, J.'
'Kniep, R.'
_cell_length_a 5.293(1)
_cell_length_b 5.293(1)
_cell_length_c 6.631(2)
_cell_angle_alpha 90.
_cell_angle_beta 90.
_cell_angle_gamma 90.
_cell_volume 185.77
_cell_formula_units_Z 2
_symmetry_space_group_name_H-M 'P 42/m n m'
_symmetry_Int_Tables_number 136
_refine_ls_R_factor_all 0.038
loop_
_symmetry_equiv_pos_site_id
_symmetry_equiv_pos_as_xyz
1 '-y+1/2, x+1/2, -z+1/2'
2 'y+1/2, -x+1/2, -z+1/2'
3 'y, x, -z'
4 '-y, -x, -z'
5 'y+1/2, -x+1/2, z+1/2'
6 '-y+1/2, x+1/2, z+1/2'
7 '-y, -x, z'
8 'y, x, z'
9 'x+1/2, -y+1/2, -z+1/2'
10 '-x+1/2, y+1/2, -z+1/2'
11 'x, y, -z'
12 '-x, -y, -z'
13 '-x+1/2, y+1/2, z+1/2'
14 'x+1/2, -y+1/2, z+1/2'
15 '-x, -y, z'
16 'x, y, z'
loop_
_atom_type_symbol
_atom_type_oxidation_number
Ca2+ 2
Cu1+ 1
Li1+ 1
Cu1+ 1
Li1+ 1
N3- -3
loop_
_atom_site_label
_atom_site_type_symbol
_atom_site_symmetry_multiplicity
_atom_site_Wyckoff_symbol
_atom_site_fract_x
_atom_site_fract_y
_atom_site_fract_z
_atom_site_B_iso_or_equiv
_atom_site_occupancy
_atom_site_attached_hydrogens
Ca1 Ca2+ 4 d 0 0.5 0.25 0.0093(5) 1. 0
Cu1 Cu1+ 2 a 0 0 0 0.0079(6) 0.80(1) 0
Li1 Li1+ 2 a 0 0 0 0.0079(6) 0.20(1) 0
Cu2 Cu1+ 2 b 0 0 0.5 0.0050(18) 0.27(1) 0
Li2 Li1+ 2 b 0 0 0.5 0.0050(18) 0.73(1) 0
N1 N3- 4 f 0.249(1) 0.249(1) 0 0.0090(11) 1. 0
#End of TTdata_72407-ICSD