
#(C) 2017 by FIZ Karlsruhe - Leibniz Institute for Information Infrastructure.  All rights reserved.
data_72422-ICSD
_database_code_ICSD 72422
_audit_creation_date 1994-01-19
_audit_update_record 2003-04-01
_chemical_name_systematic 'Dilithium tetrafluoroberyllate'
_chemical_formula_structural 'Li2 (Be F4)'
_chemical_formula_sum 'Be1 F4 Li2'
_chemical_name_structure_type Be2SiO4
_exptl_crystal_density_diffrn 2.18
_cell_measurement_temperature 81.
_publ_section_title

;
Estimation of ionicity coefficients in Li2 Be F4 crystals by X-ray diffraction
;
loop_
_citation_id
_citation_journal_full
_citation_year
_citation_journal_volume
_citation_page_first
_citation_page_last
_citation_journal_id_ASTM
primary 'Acta Crystallographica, Section B: Structural Science' 1993 49 223 235
ASBSDK
loop_
_publ_author_name
'Seiler, P.'
_cell_length_a 13.281(2)
_cell_length_b 13.281(2)
_cell_length_c 8.888(1)
_cell_angle_alpha 90.
_cell_angle_beta 90.
_cell_angle_gamma 120.
_cell_volume 1357.68
_cell_formula_units_Z 18
_symmetry_space_group_name_H-M 'R -3 H'
_symmetry_Int_Tables_number 148
_refine_ls_R_factor_all 0.022
loop_
_symmetry_equiv_pos_site_id
_symmetry_equiv_pos_as_xyz
1 'x-y, x, -z'
2 'y, -x+y, -z'
3 '-x, -y, -z'
4 '-x+y, -x, z'
5 '-y, x-y, z'
6 'x, y, z'
7 'x-y+2/3, x+1/3, -z+1/3'
8 'y+2/3, -x+y+1/3, -z+1/3'
9 '-x+2/3, -y+1/3, -z+1/3'
10 '-x+y+2/3, -x+1/3, z+1/3'
11 '-y+2/3, x-y+1/3, z+1/3'
12 'x+2/3, y+1/3, z+1/3'
13 'x-y+1/3, x+2/3, -z+2/3'
14 'y+1/3, -x+y+2/3, -z+2/3'
15 '-x+1/3, -y+2/3, -z+2/3'
16 '-x+y+1/3, -x+2/3, z+2/3'
17 '-y+1/3, x-y+2/3, z+2/3'
18 'x+1/3, y+2/3, z+2/3'
loop_
_atom_type_symbol
_atom_type_oxidation_number
F1- -1
Be2+ 2
Li1+ 1
loop_
_atom_site_label
_atom_site_type_symbol
_atom_site_symmetry_multiplicity
_atom_site_Wyckoff_symbol
_atom_site_fract_x
_atom_site_fract_y
_atom_site_fract_z
_atom_site_B_iso_or_equiv
_atom_site_occupancy
_atom_site_attached_hydrogens
F1 F1- 18 f 0.10542(1) 0.88941(1) 0.25185(1) . 1. 0
F2 F1- 18 f 0.32333(1) 0.00563(1) 0.24887(1) . 1. 0
F3 F1- 18 f 0.20410(1) 0.07550(1) 0.10393(1) . 1. 0
F4 F1- 18 f 0.20938(1) 0.08201(1) 0.39282(1) . 1. 0
Be1 Be2+ 18 f 0.21175(1) 0.01535(1) 0.24950(1) . 1. 0
Li1 Li1+ 18 f 0.21476(2) 0.02096(2) 0.58178(3) . 1. 0
Li2 Li1+ 18 f 0.20754(2) 0.01644(2) 0.91504(3) . 1. 0
loop_
_atom_site_aniso_label
_atom_site_aniso_type_symbol
_atom_site_aniso_U_11
_atom_site_aniso_U_22
_atom_site_aniso_U_33
_atom_site_aniso_U_12
_atom_site_aniso_U_13
_atom_site_aniso_U_23
F1 F1- 0.00575(1) 0.00536(1) 0.00609(1) 0.00113(1) -0.00009(1) 0.00025(1)
F2 F1- 0.00512(1) 0.00604(1) 0.00770(1) 0.00303(1) -0.00020(1) -0.00025(1)
F3 F1- 0.00905(1) 0.00646(1) 0.00460(1) 0.00470(1) -0.00008(1) 0.00054(1)
F4 F1- 0.00924(1) 0.00692(1) 0.00470(1) 0.00510(1) -0.00025(1) -0.00076(1)
Be1 Be2+ 0.00609(3) 0.00563(3) 0.00531(3) 0.00294(2) -0.00010(2) -0.00048(2)
Li1 Li1+ 0.00921(7) 0.00871(7) 0.00790(7) 0.00455(6) 0.00210(5) -0.00013(5)
Li2 Li1+ 0.00892(7) 0.00840(7) 0.00798(7) 0.00438(6) 0.00005(5) 0.00014(5)
#End of TTdata_72422-ICSD