
#(C) 2018 by FIZ Karlsruhe - Leibniz Institute for Information Infrastructure.  All rights reserved.
data_72519-ICSD
_database_code_ICSD 72519
_audit_creation_date 1994-01-19
_chemical_name_systematic 'Lithium catena-dihydroxopentaborate'
_chemical_formula_structural 'Li ((O H)2 B5 O7)'
_chemical_formula_sum 'H2 B5 Li1 O9'
_exptl_crystal_density_diffrn 2.01
_publ_section_title
'Structure of Lithium catena-Poly(3,4-dihydroxopentaborate-1:5-mue-oxo)'
loop_
_citation_id
_citation_journal_full
_citation_year
_citation_journal_volume
_citation_page_first
_citation_page_last
_citation_journal_id_ASTM
primary 'Acta Crystallographica, Section C: Crystal Structure Communications'
1993 49 645 647 ACSCEE
loop_
_publ_author_name
'Cardenas, A.'
'Solans, J.'
'Byrappa, K.'
'Shekar, K.V.K.'
_cell_length_a 13.576(4)
_cell_length_b 9.077(4)
_cell_length_c 5.543(3)
_cell_angle_alpha 90.
_cell_angle_beta 91.47(1)
_cell_angle_gamma 90.
_cell_volume 682.84
_cell_formula_units_Z 4
_symmetry_space_group_name_H-M 'P 1 21/a 1'
_symmetry_Int_Tables_number 14
_refine_ls_R_factor_all 0.049
loop_
_symmetry_equiv_pos_site_id
_symmetry_equiv_pos_as_xyz
1 'x+1/2, -y+1/2, z'
2 '-x, -y, -z'
3 '-x+1/2, y+1/2, -z'
4 'x, y, z'
loop_
_atom_type_symbol
_atom_type_oxidation_number
Li1+ 1
O2- -2
B3+ 3
H1+ 1
loop_
_atom_site_label
_atom_site_type_symbol
_atom_site_symmetry_multiplicity
_atom_site_Wyckoff_symbol
_atom_site_fract_x
_atom_site_fract_y
_atom_site_fract_z
_atom_site_B_iso_or_equiv
_atom_site_occupancy
_atom_site_attached_hydrogens
Li1 Li1+ 4 e 0.3038(2) 0.4035(3) 0.4778(6) . 1. 0
O1 O2- 4 e 0.0940(1) 0.4396(2) 0.6497(2) . 1. 0
O2 O2- 4 e 0.1200(1) 0.6059(2) 0.9602(3) . 1. 0
O3 O2- 4 e 0.1440(1) 0.7622(2) 0.2960(2) . 1. 0
O4 O2- 4 e 0.2513(1) 0.5582(1) 0.6943(2) . 1. 0
O5 O2- 4 e 0.2749(1) 0.7217(1) 0.0398(2) . 1. 0
O6 O2- 4 e 0.4129(1) 0.6095(1) 0.8606(2) . 1. 0
O7 O2- 4 e 0.3195(1) 0.8018(1) 0.6461(2) . 1. 0
O8 O2- 4 e 0.5793(1) 0.5678(1) 0.7410(2) . 1. 0
O9 O2- 4 e 0.4825(1) 0.7446(1) 0.5418(2) . 1. 0
B1 B3+ 4 e 0.3139(1) 0.6733(2) 0.8132(3) . 1. 0
B2 B3+ 4 e 0.1575(1) 0.5337(2) 0.7656(3) . 1. 0
B3 B3+ 4 e 0.1805(1) 0.6966(2) 0.0958(3) . 1. 0
B4 B3+ 4 e 0.4903(1) 0.6396(2) 0.7204(3) . 1. 0
B5 B3+ 4 e 0.3986(1) 0.8302(2) 0.5157(3) . 1. 0
H1 H1+ 4 e 0.0865(27) 0.7357(35) 0.3329(76) 0.0517(60) 1. 0
H2 H1+ 4 e 0.5759(23) 0.5058(35) 0.8722(69) 0.0517(60) 1. 0
loop_
_atom_site_aniso_label
_atom_site_aniso_type_symbol
_atom_site_aniso_U_11
_atom_site_aniso_U_22
_atom_site_aniso_U_33
_atom_site_aniso_U_12
_atom_site_aniso_U_13
_atom_site_aniso_U_23
Li1 Li1+ 0.0191(12) 0.0249(14) 0.0143(13) -.0002(11) 0.0068(11) -.0011(11)
O1 O2- 0.0173(5) 0.0269(6) 0.0194(6) -.0024(4) 0.0036(5) -.0113(5)
O2 O2- 0.0179(5) 0.0348(8) 0.0204(7) -.0068(5) 0.0101(5) -.0177(6)
O3 O2- 0.0197(6) 0.0341(7) 0.0130(6) -.0065(5) 0.0092(5) -.0111(5)
O4 O2- 0.0167(5) 0.0206(6) 0.0100(5) -.0022(4) 0.0068(4) -.0030(4)
O5 O2- 0.0166(5) 0.0291(6) 0.0105(5) -.0050(5) 0.0071(4) -.0066(5)
O6 O2- 0.0140(5) 0.0239(6) 0.0112(5) 0.0026(4) 0.0058(4) 0.0071(4)
O7 O2- 0.0140(5) 0.0203(6) 0.0135(6) 0.0010(4) 0.0050(4) 0.0029(4)
O8 O2- 0.0175(5) 0.0276(7) 0.0166(6) 0.0067(4) 0.0081(5) 0.0116(5)
O9 O2- 0.0185(6) 0.0287(7) 0.0194(7) 0.0074(5) 0.0110(5) 0.0144(5)
B1 B3+ 0.0142(7) 0.0202(8) 0.0075(7) -.0001(6) 0.0041(6) 0.0015(6)
B2 B3+ 0.0167(7) 0.0198(8) 0.0114(7) 0.0007(6) 0.0046(6) -.0037(6)
B3 B3+ 0.0169(7) 0.0220(9) 0.0079(7) -.0016(6) 0.0049(6) -.0016(6)
B4 B3+ 0.0156(7) 0.0195(8) 0.0108(8) 0.0007(6) 0.0049(6) 0.0036(6)
B5 B3+ 0.0144(7) 0.0195(8) 0.0116(8) 0.0018(6) 0.0043(6) 0.0009(6)
#End of TTdata_72519-ICSD