
#(C) 2018 by FIZ Karlsruhe - Leibniz Institute for Information Infrastructure.  All rights reserved.
data_72550-ICSD
_database_code_ICSD 72550
_audit_creation_date 1994-01-19
_audit_update_record 2006-04-01
_chemical_name_systematic 'Rubidium lithium chromate - G3'
_chemical_formula_structural 'Rb Li (Cr O4)'
_chemical_formula_sum 'Cr1 Li1 O4 Rb1'
_chemical_name_structure_type RbLiCrO4
_exptl_crystal_density_diffrn 2.94
_cell_measurement_temperature 523.
_publ_section_title 'Structure and twinning of Rb Li Cr O4 crystals'
loop_
_citation_id
_citation_journal_full
_citation_year
_citation_journal_volume
_citation_page_first
_citation_page_last
_citation_journal_id_ASTM
primary 'Acta Crystallographica, Section B: Structural Science' 1993 49 19 28
ASBSDK
loop_
_publ_author_name
'Makarova, I.P.'
'Verin, I.A.'
'Aleksandrov, K.S.'
_cell_length_a 5.453(1)
_cell_length_b 5.453(1)
_cell_length_c 9.151(1)
_cell_angle_alpha 90.
_cell_angle_beta 90.
_cell_angle_gamma 120.
_cell_volume 235.65
_cell_formula_units_Z 2
_symmetry_space_group_name_H-M 'P 3 1 c'
_symmetry_Int_Tables_number 159
_refine_ls_R_factor_all 0.037
loop_
_symmetry_equiv_pos_site_id
_symmetry_equiv_pos_as_xyz
1 '-x, -x+y, z+1/2'
2 'x-y, -y, z+1/2'
3 'y, x, z+1/2'
4 '-x+y, -x, z'
5 '-y, x-y, z'
6 'x, y, z'
loop_
_atom_type_symbol
_atom_type_oxidation_number
Rb1+ 1
Li1+ 1
Cr6+ 6
O2- -2
loop_
_atom_site_label
_atom_site_type_symbol
_atom_site_symmetry_multiplicity
_atom_site_Wyckoff_symbol
_atom_site_fract_x
_atom_site_fract_y
_atom_site_fract_z
_atom_site_B_iso_or_equiv
_atom_site_occupancy
_atom_site_attached_hydrogens
Rb1 Rb1+ 2 a 0 0 0 . 1. 0
Li1 Li1+ 2 b 0.6667 0.3333 0.680(3) . 1. 0
Cr1 Cr6+ 2 b 0.6667 0.3333 0.2925(3) . 1. 0
O1 O2- 2 b 0.6667 0.3333 0.4678(9) . 1. 0
O2 O2- 6 c 0.3973(9) 0.3613(9) 0.2337(7) . 1. 0
loop_
_atom_site_aniso_label
_atom_site_aniso_type_symbol
_atom_site_aniso_beta_11
_atom_site_aniso_beta_22
_atom_site_aniso_beta_33
_atom_site_aniso_beta_12
_atom_site_aniso_beta_13
_atom_site_aniso_beta_23
Rb1 Rb1+ 0.0451(4) 0.0451(4) 0.0103(2) 0.0226(2) 0 0
Li1 Li1+ 0.042(7) 0.042(7) 0.014(5) 0.021(4) 0 0
Cr1 Cr6+ 0.0239(4) 0.0239(4) 0.0063(2) 0.0120(3) 0 0
O1 O2- 0.082(5) 0.082(5) 0.008(2) 0.041(3) 0 0
O2 O2- 0.036(3) 0.042(3) 0.023(1) 0.011(2) 0.005(1) 0.009(2)
#End of TTdata_72550-ICSD