
#(C) 2017 by FIZ Karlsruhe - Leibniz Institute for Information Infrastructure.  All rights reserved.
data_72648-ICSD
_database_code_ICSD 72648
_audit_creation_date 1994-01-19
_chemical_name_systematic 'Tetralithium zinc diindium dodecafluoride'
_chemical_formula_structural 'Li4 Zn In2 F12'
_chemical_formula_sum 'F12 In2 Li4 Zn1'
_exptl_crystal_density_diffrn 4.32
_publ_section_title 'A tri-alpha-PbO2 related structure:Li4ZnIn2F12'
loop_
_citation_id
_citation_journal_full
_citation_year
_citation_journal_volume
_citation_page_first
_citation_page_last
_citation_journal_id_ASTM
primary 'Journal of Solid State Chemistry' 1993 103 466 471 JSSCBI
loop_
_publ_author_name
'Maguer, J.J.'
'Courbion, G.'
_cell_length_a 4.7496(5)
_cell_length_b 17.606(2)
_cell_length_c 5.0617(6)
_cell_angle_alpha 90.
_cell_angle_beta 90.
_cell_angle_gamma 90.
_cell_volume 423.27
_cell_formula_units_Z 2
_symmetry_space_group_name_H-M 'P b c n'
_symmetry_Int_Tables_number 60
_refine_ls_R_factor_all 0.015
loop_
_symmetry_equiv_pos_site_id
_symmetry_equiv_pos_as_xyz
1 'x, -y, z+1/2'
2 '-x+1/2, y+1/2, z'
3 'x+1/2, y+1/2, -z+1/2'
4 '-x, -y, -z'
5 '-x, y, -z+1/2'
6 'x+1/2, -y+1/2, -z'
7 '-x+1/2, -y+1/2, z+1/2'
8 'x, y, z'
loop_
_atom_type_symbol
_atom_type_oxidation_number
In3+ 3
Zn2+ 2
Li1+ 1
F1- -1
loop_
_atom_site_label
_atom_site_type_symbol
_atom_site_symmetry_multiplicity
_atom_site_Wyckoff_symbol
_atom_site_fract_x
_atom_site_fract_y
_atom_site_fract_z
_atom_site_B_iso_or_equiv
_atom_site_occupancy
_atom_site_attached_hydrogens
In1 In3+ 4 c 0 0.1176(1) 0.25 . 1. 0
Zn1 Zn2+ 4 c 0 0.4516(1) 0.25 . 0.5 0
Li1 Li1+ 4 c 0 0.4516(1) 0.25 . 0.5 0
Li2 Li1+ 4 c 0 0.2953(6) 0.25 0.0278(18) 1. 0
Li3 Li1+ 4 c 0 0.7751(9) 0.25 0.0177(27) 0.5 0
F1 F1- 8 d 0.2361(4) 0.4616(1) 0.5794(4) . 1. 0
F2 F1- 8 d 0.2438(4) 0.6260(1) 0.5805(5) . 1. 0
F3 F1- 8 d 0.2825(3) 0.2929(1) 0.5733(5) . 1. 0
loop_
_atom_site_aniso_label
_atom_site_aniso_type_symbol
_atom_site_aniso_U_11
_atom_site_aniso_U_22
_atom_site_aniso_U_33
_atom_site_aniso_U_12
_atom_site_aniso_U_13
_atom_site_aniso_U_23
In1 In3+ 0.0118(1) 0.0085(1) 0.0088(1) 0 0.0006(4) 0
Zn1 Zn2+ 0.0094(3) 0.0148(3) 0.0099(3) 0 -.0012(14) 0
Li1 Li1+ 0.0094(3) 0.0148(3) 0.0099(3) 0 -.0012(14) 0
F1 F1- 0.0134(7) 0.0142(7) 0.0124(7) 0.0044(7) -.0019(8) 0.0002(6)
F2 F1- 0.0163(9) 0.0134(7) 0.0143(9) 0.0010(7) 0.0052(9) 0.0000(6)
F3 F1- 0.0161(8) 0.0113(7) 0.0209(9) -.0017(7) 0.0003(8) -.0052(8)
#End of TTdata_72648-ICSD