
#(C) 2018 by FIZ Karlsruhe - Leibniz Institute for Information Infrastructure.  All rights reserved.
data_73124-ICSD
_database_code_ICSD 73124
_audit_creation_date 1994-06-30
_chemical_name_systematic 'Potassium tetralithium niobate'
_chemical_formula_structural 'K Li4 (Nb O5)'
_chemical_formula_sum 'K1 Li4 Nb1 O5'
_exptl_crystal_density_diffrn 3.33
_publ_section_title
'Das erste Diniobat mit 'isolierten' Anionen: KLi4(NbO5)= K2Li8(Nb2O10)'
loop_
_citation_id
_citation_journal_full
_citation_year
_citation_journal_volume
_citation_page_first
_citation_page_last
_citation_journal_id_ASTM
primary 'Zeitschrift fuer Anorganische und Allgemeine Chemie (1950) (DE)' 1993
619 149 157 ZAACAB
loop_
_publ_author_name
'Wehrum, G.'
'Hoppe, R.'
_cell_length_a 8.169(2)
_cell_length_b 5.922(2)
_cell_length_c 5.897(2)
_cell_angle_alpha 121.00(2)
_cell_angle_beta 91.78(2)
_cell_angle_gamma 99.23(2)
_cell_volume 239.18
_cell_formula_units_Z 2
_symmetry_space_group_name_H-M 'P -1'
_symmetry_Int_Tables_number 2
_refine_ls_R_factor_all 0.034
loop_
_symmetry_equiv_pos_site_id
_symmetry_equiv_pos_as_xyz
1 '-x, -y, -z'
2 'x, y, z'
loop_
_atom_type_symbol
_atom_type_oxidation_number
Nb5+ 5
K1+ 1
Li1+ 1
O2- -2
loop_
_atom_site_label
_atom_site_type_symbol
_atom_site_symmetry_multiplicity
_atom_site_Wyckoff_symbol
_atom_site_fract_x
_atom_site_fract_y
_atom_site_fract_z
_atom_site_B_iso_or_equiv
_atom_site_occupancy
_atom_site_attached_hydrogens
Nb1 Nb5+ 2 i 0.1958 0.1466(1) 0.2011(1) . 1. 0
K1 K1+ 2 i 0.4127(1) 0.6101(2) 0.8551(2) . 1. 0
Li1 Li1+ 2 i 0.8913(10) 0.9086(16) 0.3106(16) . 1. 0
Li2 Li1+ 2 i 0.9115(10) 0.3968(16) 0.7934(15) . 1. 0
Li3 Li1+ 2 i 0.6099(10) 0.1186(15) 0.4477(16) . 1. 0
Li4 Li1+ 2 i 0.1207(10) 0.6556(16) 0.6578(16) . 1. 0
O1 O2- 2 i 0.3590(4) 0.0687(6) 0.3628(6) . 1. 0
O2 O2- 2 i 0.0529(4) 0.2607(6) 0.5034(6) . 1. 0
O3 O2- 2 i 0.9728(4) 0.2185(6) 0.9875(6) . 1. 0
O4 O2- 2 i 0.7182(4) 0.9763(6) 0.1354(6) . 1. 0
O5 O2- 2 i 0.7212(4) 0.4813(6) 0.6650(6) . 1. 0
loop_
_atom_site_aniso_label
_atom_site_aniso_type_symbol
_atom_site_aniso_U_11
_atom_site_aniso_U_22
_atom_site_aniso_U_33
_atom_site_aniso_U_12
_atom_site_aniso_U_13
_atom_site_aniso_U_23
Nb1 Nb5+ 0.0043(1) 0.0041(1) 0.0048(1) 0.0007(1) 0.0009(1) 0.0020(1)
K1 K1+ 0.0175(5) 0.0227(5) 0.0241(5) 0.0063(4) -.0001(4) 0.0106(4)
Li1 Li1+ 0.0148(38) 0.0132(36) 0.0157(36) 0.0033(29) -.0013(28) 0.0070(31)
Li2 Li1+ 0.0142(36) 0.0169(37) 0.0136(35) 0.0061(29) 0.0035(28) 0.0075(31)
Li3 Li1+ 0.0166(38) 0.0132(36) 0.0175(37) 0.0056(29) 0.0057(29) 0.0086(31)
Li4 Li1+ 0.0163(38) 0.0150(37) 0.0182(38) 0.0024(29) -.0002(29) 0.0092(32)
O1 O2- 0.0150(15) 0.0170(16) 0.0164(15) 0.0059(12) 0.0023(12) 0.0113(13)
O2 O2- 0.0113(14) 0.0105(14) 0.0104(13) 0.0026(11) 0.0023(11) 0.0060(12)
O3 O2- 0.0129(15) 0.0096(14) 0.0109(14) 0.0020(11) 0.0014(11) 0.0052(12)
O4 O2- 0.0106(14) 0.0139(15) 0.0109(14) 0.0015(11) 0.0017(11) 0.0056(11)
O5 O2- 0.0112(14) 0.0113(14) 0.0175(15) 0.0010(11) 0.0017(11) 0.0085(13)
#End of TTdata_73124-ICSD