
#(C) 2018 by FIZ Karlsruhe - Leibniz Institute for Information Infrastructure.  All rights reserved.
data_73205-ICSD
_database_code_ICSD 73205
_audit_creation_date 1994-06-30
_chemical_name_systematic 'Pentapotassium lithium digermanate'
_chemical_formula_structural 'K5 Li (Ge2 O7)'
_chemical_formula_sum 'Ge2 K5 Li1 O7'
_exptl_crystal_density_diffrn 3.08
_publ_section_title
'Ketten aus Ringen: K5(Li(Ge2O7)) - das erste "Litho-Digermanat"'
loop_
_citation_id
_citation_journal_full
_citation_year
_citation_journal_volume
_citation_page_first
_citation_page_last
_citation_journal_id_ASTM
primary 'Zeitschrift fuer Anorganische und Allgemeine Chemie (1950) (DE)' 1993
619 811 818 ZAACAB
loop_
_publ_author_name
'Hofmann, J.'
'Hoppe, R.'
_cell_length_a 6.249(2)
_cell_length_b 15.866(8)
_cell_length_c 10.583(6)
_cell_angle_alpha 90.
_cell_angle_beta 109.38(4)
_cell_angle_gamma 90.
_cell_volume 989.82
_cell_formula_units_Z 4
_symmetry_space_group_name_H-M 'P 1 21/c 1'
_symmetry_Int_Tables_number 14
_refine_ls_R_factor_all 0.045
loop_
_symmetry_equiv_pos_site_id
_symmetry_equiv_pos_as_xyz
1 'x, -y+1/2, z+1/2'
2 '-x, -y, -z'
3 '-x, y+1/2, -z+1/2'
4 'x, y, z'
loop_
_atom_type_symbol
_atom_type_oxidation_number
Ge4+ 4
K1+ 1
Li1+ 1
O2- -2
loop_
_atom_site_label
_atom_site_type_symbol
_atom_site_symmetry_multiplicity
_atom_site_Wyckoff_symbol
_atom_site_fract_x
_atom_site_fract_y
_atom_site_fract_z
_atom_site_B_iso_or_equiv
_atom_site_occupancy
_atom_site_attached_hydrogens
Ge1 Ge4+ 4 e 0.2298(1) 0.7656 0.113 . 1. 0
Ge2 Ge4+ 4 e 0.7357(1) 0.4459 0.2449 . 1. 0
K1 K1+ 4 e 0.7712(1) 0.6319 0.7662(1) . 1. 0
K2 K1+ 4 e 0.7404(1) 0.0563 0.4202(1) . 1. 0
K3 K1+ 4 e 0.2201(1) 0.1535 0.3886(1) . 1. 0
K4 K1+ 4 e 0.3000(1) 0.1647(1) 0.0865(1) . 1. 0
K5 K1+ 4 e 0.2473(1) 0.9322 0.9169(1) . 1. 0
Li1 Li1+ 4 e 0.703(1) 0.2198(4) 0.6042(6) . 1. 0
O1 O2- 4 e 0.0621(4) 0.0003(1) 0.3046(2) . 1. 0
O2 O2- 4 e 0.9670(4) 0.2196(1) 0.5295(2) . 1. 0
O3 O2- 4 e 0.5236(4) 0.2178(2) 0.9274(2) . 1. 0
O4 O2- 4 e 0.7348(4) 0.2028(2) 0.2480(2) . 1. 0
O5 O2- 4 e 0.5915(4) 0.9914(2) 0.8250(2) . 1. 0
O6 O2- 4 e 0.5496(4) 0.1112(1) 0.6113(2) . 1. 0
O7 O2- 4 e 0.8962(3) 0.1338(1) 0.8664(2) . 1. 0
loop_
_atom_site_aniso_label
_atom_site_aniso_type_symbol
_atom_site_aniso_U_11
_atom_site_aniso_U_22
_atom_site_aniso_U_33
_atom_site_aniso_U_12
_atom_site_aniso_U_13
_atom_site_aniso_U_23
Ge1 Ge4+ 0.0078(1) 0.0098(1) 0.0096(1) -.0003(1) 0.0025(1) -.0012(1)
Ge2 Ge4+ 0.0072(1) 0.0085(1) 0.0109(2) 0.0002(1) 0.0021(1) -.0001(1)
K1 K1+ 0.0116(3) 0.0191(3) 0.0159(3) 0.0018(2) 0.0036(2) 0.0010(2)
K2 K1+ 0.0166(3) 0.0190(3) 0.0183(3) 0.0003(3) 0.0055(3) -.0018(3)
K3 K1+ 0.0152(3) 0.0178(3) 0.0206(3) -.0008(2) 0.0052(3) -.0021(2)
K4 K1+ 0.0153(3) 0.0250(4) 0.0253(4) 0.0044(3) 0.0077(3) 0.0072(3)
K5 K1+ 0.0195(3) 0.0215(3) 0.0172(3) 0.0012(3) 0.0056(3) 0.0022(3)
Li1 Li1+ 0.0220(29) 0.0134(26) 0.0155(26) 0.0004(21) 0.0057(23) -.0014(20)
O1 O2- 0.0114(10) 0.0151(11) 0.0223(12) 0.0030(8) 0.0050(9) -.0058(8)
O2 O2- 0.0099(10) 0.0189(11) 0.0138(10) 0.0027(8) 0.0022(8) 0.0056(8)
O3 O2- 0.0107(10) 0.0223(12) 0.0177(11) -.0034(8) 0.0066(9) -.0067(9)
O4 O2- 0.0330(14) 0.0142(11) 0.0132(10) 0.0002(10) 0.007(1) -.0038(8)
O5 O2- 0.0196(12) 0.0199(12) 0.0221(12) -.0067(9) 0.0068(10) 0.0056(9)
O6 O2- 0.0107(10) 0.0170(11) 0.0132(10) 0.0010(8) 0.0013(8) 0.0039(8)
O7 O2- 0.0090(9) 0.0100(9) 0.0154(10) 0.0006(8) 0.0021(8) -.0033(8)
#End of TTdata_73205-ICSD