
#(C) 2018 by FIZ Karlsruhe - Leibniz Institute for Information Infrastructure.  All rights reserved.
data_73200-ICSD
_database_code_ICSD 73200
_audit_creation_date 1994-06-30
_chemical_name_systematic 'Sodium dilithium arsenate'
_chemical_formula_structural 'Na Li2 (As O4)'
_chemical_formula_sum 'As1 Li2 Na1 O4'
_chemical_name_structure_type Enargite-Cu3AsS4
_exptl_crystal_density_diffrn 3.16
_publ_section_title
'Neue Alkalioxoarsenate(V): NaLi2(AsO4) - ein neuer Formeltyp'
loop_
_citation_id
_citation_journal_full
_citation_year
_citation_journal_volume
_citation_page_first
_citation_page_last
_citation_journal_id_ASTM
primary 'Zeitschrift fuer Anorganische und Allgemeine Chemie (1950) (DE)' 1993
619 766 770 ZAACAB
loop_
_publ_author_name
'Schneidersmann, C.'
'Hoppe, R.'
_cell_length_a 7.029(2)
_cell_length_b 5.205(1)
_cell_length_c 5.054(2)
_cell_angle_alpha 90.
_cell_angle_beta 90.
_cell_angle_gamma 90.
_cell_volume 184.91
_cell_formula_units_Z 2
_symmetry_space_group_name_H-M 'P m n 21'
_symmetry_Int_Tables_number 31
_refine_ls_R_factor_all 0.03
loop_
_symmetry_equiv_pos_site_id
_symmetry_equiv_pos_as_xyz
1 'x+1/2, -y, z+1/2'
2 '-x+1/2, -y, z+1/2'
3 '-x, y, z'
4 'x, y, z'
loop_
_atom_type_symbol
_atom_type_oxidation_number
As5+ 5
Na1+ 1
Li1+ 1
O2- -2
loop_
_atom_site_label
_atom_site_type_symbol
_atom_site_symmetry_multiplicity
_atom_site_Wyckoff_symbol
_atom_site_fract_x
_atom_site_fract_y
_atom_site_fract_z
_atom_site_B_iso_or_equiv
_atom_site_occupancy
_atom_site_attached_hydrogens
As1 As5+ 2 a 0 0.8089(1) 0 . 1. 0
Na1 Na1+ 2 a 0.5 0.7819(3) 0.9810(6) . 1. 0
Li1 Li1+ 4 b 0.2483(5) 0.3176(7) 0.9847(9) . 1. 0
O1 O2- 4 b 0.1966(3) 0.6729(4) 0.8765(4) . 1. 0
O2 O2- 2 a 0 0.1291(5) 0.9402(5) . 1. 0
O3 O2- 2 a 0.5 0.2324(5) 0.8363(5) . 1. 0
loop_
_atom_site_aniso_label
_atom_site_aniso_type_symbol
_atom_site_aniso_U_11
_atom_site_aniso_U_22
_atom_site_aniso_U_33
_atom_site_aniso_U_12
_atom_site_aniso_U_13
_atom_site_aniso_U_23
As1 As5+ 0.0086(1) 0.0093(1) 0.0088(1) 0.0000(11) 0 0
Na1 Na1+ 0.0123(5) 0.0276(6) 0.0218(9) -.0004(11) 0 0
Li1 Li1+ 0.0121(9) 0.0139(9) 0.0097(9) 0.0008(9) 0.0055(10) 0.0059(10)
O1 O2- 0.0107(6) 0.0147(7) 0.0157(7) 0.0021(6) 0.0024(6) 0.0008(7)
O2 O2- 0.0172(8) 0.0105(7) 0.0179(9) 0.0002(11) 0 0
O3 O2- 0.0189(8) 0.0213(8) 0.0074(8) -.0108(11) 0 0
#End of TTdata_73200-ICSD