
#(C) 2018 by FIZ Karlsruhe - Leibniz Institute for Information Infrastructure.  All rights reserved.
data_73218-ICSD
_database_code_ICSD 73218
_audit_creation_date 1994-06-30
_chemical_name_systematic 'Barium lithium borate'
_chemical_formula_structural 'Ba Li (B O3)'
_chemical_formula_sum 'B1 Ba1 Li1 O3'
_chemical_name_structure_type LiSrBO3
_exptl_crystal_density_diffrn 4.49
_publ_section_title 'Darstellung und Aufbau von BaLi(BO3)'
loop_
_citation_id
_citation_journal_full
_citation_year
_citation_journal_volume
_citation_page_first
_citation_page_last
_citation_journal_id_ASTM
primary 'Zeitschrift fuer Anorganische und Allgemeine Chemie (1950) (DE)' 1993
619 976 982 ZAACAB
loop_
_publ_author_name
'Schlaeger, M.'
'Hoppe, R.'
_cell_length_a 6.461(3)
_cell_length_b 7.107(2)
_cell_length_c 7.403(3)
_cell_angle_alpha 90.
_cell_angle_beta 117.99(3)
_cell_angle_gamma 90.
_cell_volume 300.17
_cell_formula_units_Z 4
_symmetry_space_group_name_H-M 'P 1 21/c 1'
_symmetry_Int_Tables_number 14
_refine_ls_R_factor_all 0.024
loop_
_symmetry_equiv_pos_site_id
_symmetry_equiv_pos_as_xyz
1 'x, -y+1/2, z+1/2'
2 '-x, -y, -z'
3 '-x, y+1/2, -z+1/2'
4 'x, y, z'
loop_
_atom_type_symbol
_atom_type_oxidation_number
Ba2+ 2
Li1+ 1
B3+ 3
O2- -2
loop_
_atom_site_label
_atom_site_type_symbol
_atom_site_symmetry_multiplicity
_atom_site_Wyckoff_symbol
_atom_site_fract_x
_atom_site_fract_y
_atom_site_fract_z
_atom_site_B_iso_or_equiv
_atom_site_occupancy
_atom_site_attached_hydrogens
Ba1 Ba2+ 4 e 0.3234 0.1397 0.6632 . 1. 0
Li1 Li1+ 4 e 0.0958(15) 0.9298(12) 0.1986(12) . 1. 0
B1 B3+ 4 e 0.2114(9) 0.6638(7) 0.4173(8) . 1. 0
O1 O2- 4 e 0.2589(6) 0.9953(5) 0.0387(5) . 1. 0
O2 O2- 4 e 0.3553(5) 0.8182(5) 0.4781(5) . 1. 0
O3 O2- 4 e 0.0150(6) 0.6627(5) 0.2288(5) . 1. 0
loop_
_atom_site_aniso_label
_atom_site_aniso_type_symbol
_atom_site_aniso_U_11
_atom_site_aniso_U_22
_atom_site_aniso_U_33
_atom_site_aniso_U_12
_atom_site_aniso_U_13
_atom_site_aniso_U_23
Ba1 Ba2+ 0.0085(2) 0.0083(2) 0.0063(2) 0.0003(1) 0.0029(1) 0.0001(1)
Li1 Li1+ 0.0197(40) 0.0112(38) 0.0107(38) -.0005(32) 0.0103(33) 0.0010(31)
B1 B3+ 0.0107(21) 0.0082(23) 0.0070(22) 0.0002(16) 0.0054(18) -.0004(17)
O1 O2- 0.0128(16) 0.0115(16) 0.0093(15) -.0013(12) 0.0044(13) -.0020(13)
O2 O2- 0.0114(15) 0.0078(15) 0.0107(15) -.0018(11) 0.0042(12) -.0013(12)
O3 O2- 0.0130(16) 0.0151(17) 0.0103(16) -.0033(12) 0.0001(13) 0.0025(13)
#End of TTdata_73218-ICSD