
#(C) 2017 by FIZ Karlsruhe - Leibniz Institute for Information Infrastructure.  All rights reserved.
data_73339-ICSD
_database_code_ICSD 73339
_audit_creation_date 1994-06-30
_chemical_name_systematic 'Lithium scandium(II) iodide'
_chemical_formula_structural 'Li Sc I3'
_chemical_formula_sum 'I3 Li1 Sc1'
_exptl_crystal_density_diffrn 4.62
_publ_section_title

;
Synthesis and properties of two novel line phases that contain linear scandium
chains, LiScI3 and Na0.5ScI3
;
loop_
_citation_id
_citation_journal_full
_citation_year
_citation_journal_volume
_citation_page_first
_citation_page_last
_citation_journal_id_ASTM
primary 'Inorganic Chemistry' 1991 30 3321 3326 INOCAJ
loop_
_publ_author_name
'Lachgar, A.'
'Dudis, D.S.'
'Dorhout, P.K.'
'Corbett, J.D.'
_cell_length_a 7.2861(9)
_cell_length_b 7.2861(9)
_cell_length_c 6.768(2)
_cell_angle_alpha 90.
_cell_angle_beta 90.
_cell_angle_gamma 120.
_cell_volume 311.16
_cell_formula_units_Z 2
_symmetry_space_group_name_H-M 'P -6 c 2'
_symmetry_Int_Tables_number 188
_refine_ls_R_factor_all 0.01
loop_
_symmetry_equiv_pos_site_id
_symmetry_equiv_pos_as_xyz
1 'x, x-y, -z'
2 '-x+y, y, -z'
3 '-y, -x, -z'
4 'x, x-y, z+1/2'
5 '-x+y, y, z+1/2'
6 '-y, -x, z+1/2'
7 '-x+y, -x, -z+1/2'
8 '-y, x-y, -z+1/2'
9 'x, y, -z+1/2'
10 '-x+y, -x, z'
11 '-y, x-y, z'
12 'x, y, z'
loop_
_atom_type_symbol
_atom_type_oxidation_number
I1- -1
Sc2+ 2
Li1+ 1
loop_
_atom_site_label
_atom_site_type_symbol
_atom_site_symmetry_multiplicity
_atom_site_Wyckoff_symbol
_atom_site_fract_x
_atom_site_fract_y
_atom_site_fract_z
_atom_site_B_iso_or_equiv
_atom_site_occupancy
_atom_site_attached_hydrogens
I1 I1- 6 k 0.0041(2) 0.67725(8) 0.25 1.77(5) 1. 0
Sc1 Sc2+ 2 a 0 0 0.5 1.47(5) 1. 0
Li1 Li1+ 2 c 0.3333 0.6667 0 9.(3) 1. 0
#End of TTdata_73339-ICSD