
#(C) 2018 by FIZ Karlsruhe - Leibniz Institute for Information Infrastructure.  All rights reserved.
data_73609-ICSD
_database_code_ICSD 73609
_audit_creation_date 1994-06-30
_audit_update_record 2005-10-01
_chemical_name_systematic 'Lithium copper tantalate (0.67/0.33/1)'
_chemical_formula_structural '(Li0.667 Cu0.333) (Ta O3)'
_chemical_formula_sum 'Cu0.333 Li0.667 O3 Ta1'
_chemical_name_structure_type Perovskite-NdAlO3
_exptl_crystal_density_diffrn 7.86
_publ_section_title
'Lithium intercalation of Li Cu Ta3 O9 and its structural change'
loop_
_citation_id
_citation_journal_full
_citation_year
_citation_journal_volume
_citation_page_first
_citation_page_last
_citation_journal_id_ASTM
primary 'Journal of Materials Chemistry' 1993 3 325 326 JMACEP
loop_
_publ_author_name
'Sato, M.'
'Jin, T.'
'Hama, Y.'
'Uematsu, K.'
_cell_length_a 5.4896(8)
_cell_length_b 5.4896(8)
_cell_length_c 5.4896(8)
_cell_angle_alpha 56.544(8)
_cell_angle_beta 56.544(8)
_cell_angle_gamma 56.544(8)
_cell_volume 107.64
_cell_formula_units_Z 2
_symmetry_space_group_name_H-M 'R -3 c R'
_symmetry_Int_Tables_number 167
_refine_ls_R_factor_all 0.019
loop_
_symmetry_equiv_pos_site_id
_symmetry_equiv_pos_as_xyz
1 '-x+1/2, -z+1/2, -y+1/2'
2 '-z+1/2, -y+1/2, -x+1/2'
3 '-y+1/2, -x+1/2, -z+1/2'
4 'x+1/2, z+1/2, y+1/2'
5 'z+1/2, y+1/2, x+1/2'
6 'y+1/2, x+1/2, z+1/2'
7 '-z, -x, -y'
8 '-y, -z, -x'
9 '-x, -y, -z'
10 'z, x, y'
11 'y, z, x'
12 'x, y, z'
loop_
_atom_type_symbol
_atom_type_oxidation_number
Li1+ 1
Cu1+ 1
Ta5+ 5
O2- -2
loop_
_atom_site_label
_atom_site_type_symbol
_atom_site_symmetry_multiplicity
_atom_site_Wyckoff_symbol
_atom_site_fract_x
_atom_site_fract_y
_atom_site_fract_z
_atom_site_B_iso_or_equiv
_atom_site_occupancy
_atom_site_attached_hydrogens
Li1 Li1+ 2 a 0.25 0.25 0.25 3.2(6) 0.667 0
Cu1 Cu1+ 2 a 0.25 0.25 0.25 3.2(6) 0.333 0
Ta1 Ta5+ 2 b 0 0 0 0.6(2) 1. 0
O1 O2- 6 e 0.641(4) 0.859(4) 0.25 0.2(6) 1. 0
#End of TTdata_73609-ICSD