
#(C) 2017 by FIZ Karlsruhe - Leibniz Institute for Information Infrastructure.  All rights reserved.
data_73709-ICSD
_database_code_ICSD 73709
_audit_creation_date 1995-01-10
_chemical_name_systematic 'Lithium yttrium fluoride'
_chemical_formula_structural 'Li Y F4'
_chemical_formula_sum 'F4 Li1 Y1'
_chemical_name_structure_type Scheelite-CaWO4
_exptl_crystal_density_diffrn 3.99
_cell_measurement_temperature 295.
_publ_section_title 'Structure of the laser host material LiYF4'
loop_
_citation_id
_citation_journal_full
_citation_year
_citation_journal_volume
_citation_page_first
_citation_page_last
_citation_journal_id_ASTM
primary 'Acta Crystallographica, Section C: Crystal Structure Communications'
1993 49 2053 2054 ACSCEE
loop_
_publ_author_name
'Garcia, E.'
'Ryan, R.R.'
_cell_length_a 5.164(1)
_cell_length_b 5.164(1)
_cell_length_c 10.741(2)
_cell_angle_alpha 90.
_cell_angle_beta 90.
_cell_angle_gamma 90.
_cell_volume 286.43
_cell_formula_units_Z 4
_symmetry_space_group_name_H-M 'I 41/a Z'
_symmetry_Int_Tables_number 88
_refine_ls_R_factor_all 0.015
loop_
_symmetry_equiv_pos_site_id
_symmetry_equiv_pos_as_xyz
1 '-y+3/4, x+3/4, -z+3/4'
2 'y+1/4, -x+3/4, -z+3/4'
3 'x, y+1/2, -z'
4 '-x, -y, -z'
5 'y+1/4, -x+1/4, z+1/4'
6 '-y+3/4, x+1/4, z+1/4'
7 '-x, -y+1/2, z'
8 'x, y, z'
9 '-y+1/4, x+1/4, -z+1/4'
10 'y+3/4, -x+1/4, -z+1/4'
11 'x+1/2, y, -z+1/2'
12 '-x+1/2, -y+1/2, -z+1/2'
13 'y+3/4, -x+3/4, z+3/4'
14 '-y+1/4, x+3/4, z+3/4'
15 '-x+1/2, -y, z+1/2'
16 'x+1/2, y+1/2, z+1/2'
loop_
_atom_type_symbol
_atom_type_oxidation_number
Y3+ 3
Li1+ 1
F1- -1
loop_
_atom_site_label
_atom_site_type_symbol
_atom_site_symmetry_multiplicity
_atom_site_Wyckoff_symbol
_atom_site_fract_x
_atom_site_fract_y
_atom_site_fract_z
_atom_site_B_iso_or_equiv
_atom_site_occupancy
_atom_site_attached_hydrogens
Y1 Y3+ 4 b 0 0.25 0.625 . 1. 0
Li1 Li1+ 4 a 0 0.25 0.125 . 1. 0
F1 F1- 16 f 0.2183(2) 0.5855(2) 0.5437(1) . 1. 0
loop_
_atom_site_aniso_label
_atom_site_aniso_type_symbol
_atom_site_aniso_U_11
_atom_site_aniso_U_22
_atom_site_aniso_U_33
_atom_site_aniso_U_12
_atom_site_aniso_U_13
_atom_site_aniso_U_23
Y1 Y3+ 0.11(1) 0.11(1) 0.10(1) 0 0 0
Li1 Li1+ 0.17(2) 0.17(2) 0.28(4) 0 0 0
F1 F1- 0.17(1) 0.17(1) 0.17(1) -.03(1) -.04(1) 0.03(1)
#End of TTdata_73709-ICSD