
#(C) 2018 by FIZ Karlsruhe - Leibniz Institute for Information Infrastructure.  All rights reserved.
data_73868-ICSD
_database_code_ICSD 73868
_audit_creation_date 1995-01-10
_chemical_name_systematic 'Dilithium phyllo-vanadophosphate'
_chemical_formula_structural 'Li2 (V P O6)'
_chemical_formula_sum 'Li2 O6 P1 V1'
_chemical_name_structure_type AlFeO3
_exptl_crystal_density_diffrn 3.11
_cell_measurement_temperature 296.
_publ_section_title
'Synthesis and crystal structure of a new layered phosphate, Li2VPO6'
loop_
_citation_id
_citation_journal_full
_citation_year
_citation_journal_volume
_citation_page_first
_citation_page_last
_citation_journal_id_ASTM
primary 'Journal of Solid State Chemistry' 1993 105 294 299 JSSCBI
loop_
_publ_author_name
'Korthuis, V.C.'
'Hoffmann, R.D.'
'Huang, J.-F.'
'Sleight, A.W.'
_cell_length_a 10.314(2)
_cell_length_b 4.6328(6)
_cell_length_c 8.562(1)
_cell_angle_alpha 90.
_cell_angle_beta 90.
_cell_angle_gamma 90.
_cell_volume 409.12
_cell_formula_units_Z 4
_symmetry_space_group_name_H-M 'P n a 21'
_symmetry_Int_Tables_number 33
_refine_ls_R_factor_all 0.041
loop_
_symmetry_equiv_pos_site_id
_symmetry_equiv_pos_as_xyz
1 'x+1/2, -y+1/2, z'
2 '-x+1/2, y+1/2, z+1/2'
3 '-x, -y, z+1/2'
4 'x, y, z'
loop_
_atom_type_symbol
_atom_type_oxidation_number
V5+ 5
P5+ 5
Li1+ 1
O2- -2
loop_
_atom_site_label
_atom_site_type_symbol
_atom_site_symmetry_multiplicity
_atom_site_Wyckoff_symbol
_atom_site_fract_x
_atom_site_fract_y
_atom_site_fract_z
_atom_site_B_iso_or_equiv
_atom_site_occupancy
_atom_site_attached_hydrogens
V1 V5+ 4 a 0.60978(8) 0.0169(2) 0 . 1. 0
P1 P5+ 4 a 0.2181(1) 0.0854(3) 0.8041(2) . 1. 0
Li1 Li1+ 4 a 0.411(1) 0.519(2) 0.821(1) . 1. 0
Li2 Li1+ 4 a 0.363(1) 0.035(3) 0.122(1) . 1. 0
O1 O2- 4 a 0.2803(5) 0.193(1) 0.6506(5) . 1. 0
O2 O2- 4 a 0.0818(4) 0.2316(8) 0.8114(6) . 1. 0
O3 O2- 4 a 0.7160(4) 0.7409(8) 0.8139(6) . 1. 0
O4 O2- 4 a 0.2857(4) 0.237(1) 0.9419(5) . 1. 0
O5 O2- 4 a 0.4888(4) 0.7963(9) 0.9732(5) . 1. 0
O6 O2- 4 a 0.5478(5) 0.241(1) 0.1272(5) . 1. 0
loop_
_atom_site_aniso_label
_atom_site_aniso_type_symbol
_atom_site_aniso_U_11
_atom_site_aniso_U_22
_atom_site_aniso_U_33
_atom_site_aniso_U_12
_atom_site_aniso_U_13
_atom_site_aniso_U_23
V1 V5+ 0.0059(3) 0.0091(4) 0.0065(3) -.0008(4) 0.0003(4) 0.0011(4)
P1 P5+ 0.0075(5) 0.0063(6) 0.0072(5) -.0001(5) 0.0008(6) -.0004(6)
Li1 Li1+ 0.014(1) 0.013(1) 0.019(1) -.0005(4) 0.0001(4) 0.0002(5)
Li2 Li1+ 0.028(1) 0.030(1) 0.0008(5) 0.0002(6) 0.0001(5) 0.0003(5)
O1 O2- 0.011(1) 0.0005(2) 0.0008(2) -.0001(2) 0.0001(2) -.0001(1)
O2 O2- 0.0008(2) 0.0005(2) 0.014(1) 0.0001(1) -.0001(2) -.0002(2)
O3 O2- 0.014(1) 0.0004(2) 0.011(1) 0.0001(2) -.0003(2) -.0003(2)
O4 O2- 0.011(1) 0.0006(2) 0.0009(2) -.0001(2) -.0001(1) -.0001(1)
O5 O2- 0.0006(2) 0.0008(2) 0.014(1) -.0002(1) -.0002(1) -.0001(1)
O6 O2- 0.014(1) 0.011(1) 0.0009(2) 0.0001(2) -.0001(2) -.0003(2)
#End of TTdata_73868-ICSD