
#(C) 2018 by FIZ Karlsruhe - Leibniz Institute for Information Infrastructure.  All rights reserved.
data_73874-ICSD
_database_code_ICSD 73874
_audit_creation_date 1995-01-10
_chemical_name_systematic 'Dilithium nickel oxide - 1T'
_chemical_formula_structural 'Li2 Ni O2'
_chemical_formula_sum 'Li2 Ni1 O2'
_exptl_crystal_density_diffrn 4.18
_cell_measurement_temperature 10.
_publ_section_title 'Short range and long range magnetic order in 1T-Li2NiO2'
loop_
_citation_id
_citation_journal_full
_citation_year
_citation_journal_volume
_citation_page_first
_citation_page_last
_citation_journal_id_ASTM
primary 'Journal of Solid State Chemistry' 1993 105 410 416 JSSCBI
loop_
_publ_author_name
'Davidson, I.J.'
'Greedan, J.E.'
'von Sacken, U.'
'Michal, C.A.'
'McKinnon, W.R.'
_cell_length_a 3.080(2)
_cell_length_b 3.080(2)
_cell_length_c 10.118(8)
_cell_angle_alpha 90.
_cell_angle_beta 90.
_cell_angle_gamma 120.
_cell_volume 83.12
_cell_formula_units_Z 2
_symmetry_space_group_name_H-M 'P -3 m 1'
_symmetry_Int_Tables_number 164
_refine_ls_R_factor_all 0.02
loop_
_symmetry_equiv_pos_site_id
_symmetry_equiv_pos_as_xyz
1 'x-y, -y, -z'
2 '-x, -x+y, -z'
3 'y, x, -z'
4 'x-y, x, -z'
5 'y, -x+y, -z'
6 '-x, -y, -z'
7 '-x+y, y, z'
8 'x, x-y, z'
9 '-y, -x, z'
10 '-x+y, -x, z'
11 '-y, x-y, z'
12 'x, y, z'
loop_
_atom_type_symbol
_atom_type_oxidation_number
Ni2+ 2
Li1+ 1
O2- -2
loop_
_atom_site_label
_atom_site_type_symbol
_atom_site_symmetry_multiplicity
_atom_site_Wyckoff_symbol
_atom_site_fract_x
_atom_site_fract_y
_atom_site_fract_z
_atom_site_B_iso_or_equiv
_atom_site_occupancy
_atom_site_attached_hydrogens
Ni1 Ni2+ 1 a 0 0 0 0.05 1. 0
Ni2 Ni2+ 1 b 0 0 0.5 0.05 1. 0
Li1 Li1+ 2 d 0.3333 0.6667 0.3245 0.05 1. 0
Li2 Li1+ 2 d 0.3333 0.6667 0.8245 0.05 1. 0
O1 O2- 2 d 0.3333 0.6667 0.1167 0.05 1. 0
O2 O2- 2 d 0.3333 0.6667 0.6167 0.05 1. 0
#End of TTdata_73874-ICSD