
#(C) 2017 by FIZ Karlsruhe - Leibniz Institute for Information Infrastructure.  All rights reserved.
data_73950-ICSD
_database_code_ICSD 73950
_audit_creation_date 1995-01-10
_chemical_name_systematic 'Lithium iron chloride (1.8/1.1/4)'
_chemical_formula_structural 'Li1.83 Fe1.085 Cl4'
_chemical_formula_sum 'Cl4 Fe1.085 Li1.83'
_chemical_name_structure_type Mn2SnS4
_exptl_crystal_density_diffrn 2.58
_cell_measurement_temperature 298.
_publ_section_title

;
Structural phase transition and nonstoichiometry of Li2FeCl4 - neutron
diffraction studies
;
loop_
_citation_id
_citation_journal_full
_citation_year
_citation_journal_volume
_citation_page_first
_citation_page_last
_citation_journal_id_ASTM
primary 'Journal of Solid State Chemistry' 1993 107 245 249 JSSCBI
loop_
_publ_author_name
'Lutz, H.D.'
'Pfitzner, A.'
'Cockcroft, J.K.'
_cell_length_a 7.3295(8)
_cell_length_b 10.342(1)
_cell_length_c 3.6590(4)
_cell_angle_alpha 90.
_cell_angle_beta 90.
_cell_angle_gamma 90.
_cell_volume 277.36
_cell_formula_units_Z 2
_symmetry_space_group_name_H-M 'C m m m'
_symmetry_Int_Tables_number 65
_refine_ls_R_factor_all 0.069
loop_
_symmetry_equiv_pos_site_id
_symmetry_equiv_pos_as_xyz
1 'x, -y, z'
2 '-x, y, z'
3 'x, y, -z'
4 '-x, -y, -z'
5 '-x, y, -z'
6 'x, -y, -z'
7 '-x, -y, z'
8 'x, y, z'
9 'x+1/2, -y+1/2, z'
10 '-x+1/2, y+1/2, z'
11 'x+1/2, y+1/2, -z'
12 '-x+1/2, -y+1/2, -z'
13 '-x+1/2, y+1/2, -z'
14 'x+1/2, -y+1/2, -z'
15 '-x+1/2, -y+1/2, z'
16 'x+1/2, y+1/2, z'
loop_
_atom_type_symbol
_atom_type_oxidation_number
Li1+ 1
Fe2+ 2
Cl1- -1
loop_
_atom_site_label
_atom_site_type_symbol
_atom_site_symmetry_multiplicity
_atom_site_Wyckoff_symbol
_atom_site_fract_x
_atom_site_fract_y
_atom_site_fract_z
_atom_site_B_iso_or_equiv
_atom_site_occupancy
_atom_site_attached_hydrogens
Li1 Li1+ 4 f 0.25 0.25 0.5 4.5(4) 0.915(5) 0
Fe1 Fe2+ 4 f 0.25 0.25 0.5 4.5(4) 0.0425(25) 0
Fe2 Fe2+ 2 a 0 0 0 1.30(6) 1. 0
Cl1 Cl1- 4 h 0.2345(8) 0 0.5 1.22(6) 1. 0
Cl2 Cl1- 4 i 0 0.2377(7) 0 1.45(7) 1. 0
#End of TTdata_73950-ICSD