
#(C) 2017 by FIZ Karlsruhe - Leibniz Institute for Information Infrastructure.  All rights reserved.
data_73986-ICSD
_database_code_ICSD 73986
_audit_creation_date 1995-01-10
_chemical_name_systematic 'Lithium calcium chromium fluoride (1/.96/1/5.9)'
_chemical_formula_structural 'Li Ca0.96 Cr F5.925'
_chemical_formula_sum 'Ca0.96 Cr1 F5.925 Li1'
_chemical_name_structure_type CaLiAlF6
_exptl_crystal_density_diffrn 3.16
_cell_measurement_temperature 295.
_publ_section_title

;
Chromium site specific chemistry and crystal structure of LiCaCrF6 and related
chromium doped laser materials
;
loop_
_citation_id
_citation_journal_full
_citation_year
_citation_journal_volume
_citation_page_first
_citation_page_last
_citation_journal_id_ASTM
primary 'Journal of Solid State Chemistry' 1993 107 471 479 JSSCBI
loop_
_publ_author_name
'Rupp, B.'
'Kway, W.L.'
'Wong, J.'
'Rogl, P.'
'Fischer, P.'
_cell_length_a 5.1054(8)
_cell_length_b 5.1054(8)
_cell_length_c 9.7786(10)
_cell_angle_alpha 90.
_cell_angle_beta 90.
_cell_angle_gamma 120.
_cell_volume 220.73
_cell_formula_units_Z 2
_symmetry_space_group_name_H-M 'P -3 1 c'
_symmetry_Int_Tables_number 163
_refine_ls_R_factor_all 0.045
loop_
_symmetry_equiv_pos_site_id
_symmetry_equiv_pos_as_xyz
1 '-x+y, y, -z+1/2'
2 'x, x-y, -z+1/2'
3 '-y, -x, -z+1/2'
4 'x-y, x, -z'
5 'y, -x+y, -z'
6 '-x, -y, -z'
7 'x-y, -y, z+1/2'
8 '-x, -x+y, z+1/2'
9 'y, x, z+1/2'
10 '-x+y, -x, z'
11 '-y, x-y, z'
12 'x, y, z'
loop_
_atom_type_symbol
_atom_type_oxidation_number
Ca2+ 2
Li1+ 1
Cr3+ 3
F1- -1
loop_
_atom_site_label
_atom_site_type_symbol
_atom_site_symmetry_multiplicity
_atom_site_Wyckoff_symbol
_atom_site_fract_x
_atom_site_fract_y
_atom_site_fract_z
_atom_site_B_iso_or_equiv
_atom_site_occupancy
_atom_site_attached_hydrogens
Ca1 Ca2+ 2 b 0 0 0 0.54(11) 0.960(25) 0
Li1 Li1+ 2 c 0.3333 0.6667 0.25 0.57(26) 1.005(35) 0
Cr1 Cr3+ 2 d 0.6667 0.3333 0.25 0.57(14) 1. 0
F1 F1- 12 i 0.3662(3) 0.0192(4) 0.1405(1) 0.93(3) 0.988(15) 0
#End of TTdata_73986-ICSD