
#(C) 2018 by FIZ Karlsruhe - Leibniz Institute for Information Infrastructure.  All rights reserved.
data_73990-ICSD
_database_code_ICSD 73990
_audit_creation_date 1995-01-10
_audit_update_record 2006-10-01
_chemical_name_systematic 'Lithium ammonium sulfate(VI) - III'
_chemical_formula_structural 'Li (N H4) (S O4)'
_chemical_formula_sum 'H4 Li1 N1 O4 S1'
_exptl_crystal_density_diffrn 1.91
_cell_measurement_temperature 190.
_publ_section_title

;
Refined crystal structure of Li N H4 S O4 including hydrogen atoms in phases
II and III
;
loop_
_citation_id
_citation_journal_full
_citation_year
_citation_journal_volume
_citation_page_first
_citation_page_last
_citation_journal_id_ASTM
primary 'Journal of the Physical Society of Japan' 1993 62 155 162 JUPSAU
loop_
_publ_author_name
'Mashiyama, H.'
'Kasano, H.'
_cell_length_a 9.121(5)
_cell_length_b 5.283(2)
_cell_length_c 17.444(7)
_cell_angle_alpha 90.00(4)
_cell_angle_beta 90.
_cell_angle_gamma 90.
_cell_volume 840.56
_cell_formula_units_Z 8
_symmetry_space_group_name_H-M 'P 1 21/c 1'
_symmetry_Int_Tables_number 14
_refine_ls_R_factor_all 0.038
loop_
_symmetry_equiv_pos_site_id
_symmetry_equiv_pos_as_xyz
1 'x, -y+1/2, z+1/2'
2 '-x, -y, -z'
3 '-x, y+1/2, -z+1/2'
4 'x, y, z'
loop_
_atom_type_symbol
_atom_type_oxidation_number
Li1+ 1
S6+ 6
O2- -2
N3- -3
H1+ 1
loop_
_atom_site_label
_atom_site_type_symbol
_atom_site_symmetry_multiplicity
_atom_site_Wyckoff_symbol
_atom_site_fract_x
_atom_site_fract_y
_atom_site_fract_z
_atom_site_B_iso_or_equiv
_atom_site_occupancy
_atom_site_attached_hydrogens
Li1 Li1+ 4 e 0.0900(4) 0.2668(6) 0.1612(2) . 1. 0
Li2 Li1+ 4 e 0.4097(4) 0.2270(6) 0.4140(2) . 1. 0
S1 S6+ 4 e 0.41488(4) 0.23742(6) 0.10258(2) . 1. 0
S2 S6+ 4 e 0.07681(4) 0.26928(6) 0.35221(2) . 1. 0
O1 O2- 4 e 0.3703(2) 0.2806(3) 0.0228(1) . 1. 0
O2 O2- 4 e 0.2960(2) 0.3213(3) 0.1538(1) . 1. 0
O3 O2- 4 e 0.4415(2) -.0340(2) 0.1162(1) . 1. 0
O4 O2- 4 e 0.5494(1) 0.3838(2) 0.1201(1) . 1. 0
O5 O2- 4 e 0.0610(2) 0.2654(3) 0.2685(1) . 1. 0
O6 O2- 4 e 0.2264(1) 0.3426(3) 0.3741(1) . 1. 0
O7 O2- 4 e 0.0407(2) 0.0161(2) 0.3835(1) . 1. 0
O8 O2- 4 e -.0281(1) 0.4543(2) 0.3847(1) . 1. 0
N1 N3- 4 e 0.2789(2) 0.7689(3) 0.2479(1) . 1. 0
N2 N3- 4 e 0.2011(2) 0.7445(3) 0.4952(1) . 1. 0
H1 H1+ 4 e 0.170(5) 0.809(9) 0.259(3) 3.2(4) 1. 0
H2 H1+ 4 e 0.287(6) 0.621(12) 0.226(3) 5.7(6) 1. 0
H3 H1+ 4 e 0.338(5) 0.861(9) 0.209(3) 2.6(4) 1. 0
H4 H1+ 4 e 0.332(4) 0.799(8) 0.299(2) 1.4(3) 1. 0
H5 H1+ 4 e 0.269(4) 0.839(8) 0.515(2) 1.5(3) 1. 0
H6 H1+ 4 e 0.254(5) 0.60(1) 0.461(3) 3.1(4) 1. 0
H7 H1+ 4 e 0.143(4) 0.834(8) 0.459(2) 1.7(3) 1. 0
H8 H1+ 4 e 0.156(5) 0.691(8) 0.540(3) 2.0(4) 1. 0
loop_
_atom_site_aniso_label
_atom_site_aniso_type_symbol
_atom_site_aniso_U_11
_atom_site_aniso_U_22
_atom_site_aniso_U_33
_atom_site_aniso_U_12
_atom_site_aniso_U_13
_atom_site_aniso_U_23
Li1 Li1+ 0.0113(10) 0.0127(10) 0.0140(11) 0.0001(10) 0.0005(10) -.0004(9)
Li2 Li1+ 0.0136(11) 0.0137(11) 0.0180(12) 0.0006(11) 0.0011(10) -.0019(11)
S1 S6+ 0.0077(1) 0.0083(1) 0.0097(1) 0.0006(1) 0.0014(1) 0.0005(1)
S2 S6+ 0.0089(1) 0.0074(1) 0.0086(1) 0.0001(1) 0.0000(1) 0.0006(1)
O1 O2- 0.0284(6) 0.0267(6) 0.0128(5) -.0051(6) -.0054(5) 0.0053(5)
O2 O2- 0.0120(4) 0.0259(6) 0.0299(6) -.0017(4) 0.0084(5) -.0135(5)
O3 O2- 0.0161(5) 0.0092(4) 0.0341(6) 0.0012(4) 0.0016(5) 0.0053(4)
O4 O2- 0.0098(4) 0.0135(4) 0.0204(5) -.0036(3) -.0013(4) 0.0039(4)
O5 O2- 0.0305(7) 0.199(5) 0.0084(4) 0.0001(5) 0.0000(5) 0.0001(4)
O6 O2- 0.0095(4) 0.0173(5) 0.0299(6) -.0019(4) -.0047(4) 0.0019(5)
O7 O2- 0.0210(5) 0.0083(4) 0.0163(4) -.0032(4) -.0040(4) 0.0034(4)
O8 O2- 0.0165(4) 0.0121(4) 0.0176(4) 0.0048(4) 0.0063(4) 0.0034(4)
N1 N3- 0.0159(5) 0.0167(5) 0.0139(5) -.0019(5) 0.0006(4) -.0003(5)
N2 N3- 0.0157(5) 0.0171(5) 0.0144(5) 0.0004(5) 0.0019(4) 0.0015(5)
#End of TTdata_73990-ICSD