
#(C) 2018 by FIZ Karlsruhe - Leibniz Institute for Information Infrastructure.  All rights reserved.
data_74313-ICSD
_database_code_ICSD 74313
_audit_creation_date 1995-10-17
_chemical_name_systematic 'Strontium lithium ruthenium oxide (1/0.25/0.75/3)'
_chemical_formula_structural 'Sr (Li0.25 Ru0.75) O3'
_chemical_formula_sum 'Li0.25 O3 Ru0.75 Sr1'
_chemical_name_structure_type Perovskite-GdFeO3
_exptl_crystal_density_diffrn 5.84
_publ_section_title

;
Preparation and characterization of new ruthenium compounds with perovskite
structure
;
loop_
_citation_id
_citation_journal_full
_citation_year
_citation_journal_volume
_citation_page_first
_citation_page_last
_citation_journal_id_ASTM
primary 'Materials Research Bulletin' 1993 28 1029 1039 MRBUAC
loop_
_publ_author_name
'Kim, I.-S.'
'Nakamura, T.'
'Itoh, M.'
'Inaguma, Y.'
_cell_length_a 5.5758(2)
_cell_length_b 7.8504(3)
_cell_length_c 5.5407(2)
_cell_angle_alpha 90.
_cell_angle_beta 90.
_cell_angle_gamma 90.
_cell_volume 242.53
_cell_formula_units_Z 4
_symmetry_space_group_name_H-M 'P n m a'
_symmetry_Int_Tables_number 62
_refine_ls_R_factor_all 0.023
loop_
_symmetry_equiv_pos_site_id
_symmetry_equiv_pos_as_xyz
1 'x+1/2, y, -z+1/2'
2 'x, -y+1/2, z'
3 '-x+1/2, y+1/2, z+1/2'
4 '-x, -y, -z'
5 '-x+1/2, -y, z+1/2'
6 '-x, y+1/2, -z'
7 'x+1/2, -y+1/2, -z+1/2'
8 'x, y, z'
loop_
_atom_type_symbol
_atom_type_oxidation_number
Sr2+ 2
Li1+ 1
Ru5+ 5
O2- -2
loop_
_atom_site_label
_atom_site_type_symbol
_atom_site_symmetry_multiplicity
_atom_site_Wyckoff_symbol
_atom_site_fract_x
_atom_site_fract_y
_atom_site_fract_z
_atom_site_B_iso_or_equiv
_atom_site_occupancy
_atom_site_attached_hydrogens
Sr1 Sr2+ 4 c 0.0032(30) 0.25 0.0070(19) 0.84(9) 1. 0
Li1 Li1+ 4 b 0 0 0.5 0.26(9) 0.25 0
Ru1 Ru5+ 4 b 0 0 0.5 0.26(9) 0.75 0
O1 O2- 4 c -0.023(17) 0.25 0.538(10) 1.230(19) 1. 0
O2 O2- 8 d 0.2301(69) -.0234(55) 0.754(20) 1.090(10) 1. 0
#End of TTdata_74313-ICSD