
#(C) 2017 by FIZ Karlsruhe - Leibniz Institute for Information Infrastructure.  All rights reserved.
data_74327-ICSD
_database_code_ICSD 74327
_audit_creation_date 1995-10-17
_chemical_name_systematic
'Lithium strontium barium hexafluorogallate (1/0.8/0.2/1)'
_chemical_formula_structural 'Li (Sr0.80 Ba0.20) (Ga F6)'
_chemical_formula_sum 'Ba0.2 F6 Ga1 Li1 Sr0.8'
_chemical_name_structure_type CaLiAlF6
_exptl_crystal_density_diffrn 3.97
_publ_section_title 'Barium solubility in colquiriite fluorides'
loop_
_citation_id
_citation_journal_full
_citation_year
_citation_journal_volume
_citation_page_first
_citation_page_last
_citation_journal_id_ASTM
primary 'Materials Research Bulletin' 1993 28 1337 1344 MRBUAC
loop_
_publ_author_name
'Yin, Y.-B.'
'Keszler, D.A.'
_cell_length_a 5.173(1)
_cell_length_b 5.173(1)
_cell_length_c 10.415(1)
_cell_angle_alpha 90.
_cell_angle_beta 90.
_cell_angle_gamma 120.
_cell_volume 241.37
_cell_formula_units_Z 2
_symmetry_space_group_name_H-M 'P -3 1 c'
_symmetry_Int_Tables_number 163
_refine_ls_R_factor_all 0.028
loop_
_symmetry_equiv_pos_site_id
_symmetry_equiv_pos_as_xyz
1 '-x+y, y, -z+1/2'
2 'x, x-y, -z+1/2'
3 '-y, -x, -z+1/2'
4 'x-y, x, -z'
5 'y, -x+y, -z'
6 '-x, -y, -z'
7 'x-y, -y, z+1/2'
8 '-x, -x+y, z+1/2'
9 'y, x, z+1/2'
10 '-x+y, -x, z'
11 '-y, x-y, z'
12 'x, y, z'
loop_
_atom_type_symbol
_atom_type_oxidation_number
Li1+ 1
Sr2+ 2
Ba2+ 2
Ga3+ 3
F1- -1
loop_
_atom_site_label
_atom_site_type_symbol
_atom_site_symmetry_multiplicity
_atom_site_Wyckoff_symbol
_atom_site_fract_x
_atom_site_fract_y
_atom_site_fract_z
_atom_site_B_iso_or_equiv
_atom_site_occupancy
_atom_site_attached_hydrogens
Li1 Li1+ 2 c 0.3333 0.6667 0.25 1.9(3) 1. 0
Sr1 Sr2+ 2 b 0 0 0 0.93(2) 0.80(1) 0
Ba1 Ba2+ 2 b 0 0 0 0.93(2) 0.20(1) 0
Ga1 Ga3+ 2 d 0.6667 0.3333 0.25 1.13(1) 1. 0
F1 F1- 12 i 0.0226(3) 0.3829(3) 0.8532(1) 1.84(5) 1. 0
#End of TTdata_74327-ICSD