
#(C) 2017 by FIZ Karlsruhe - Leibniz Institute for Information Infrastructure.  All rights reserved.
data_74526-ICSD
_database_code_ICSD 74526
_audit_creation_date 1995-10-17
_chemical_name_systematic 'Tetralithium chloride tris(berylloarsenate)'
_chemical_formula_structural 'Li4 Cl (Be As O4)3'
_chemical_formula_sum 'As3 Be3 Cl1 Li4 O12'
_chemical_name_structure_type Sodalite-frame
_exptl_crystal_density_diffrn 3.01
_cell_measurement_temperature 298.
_publ_section_title

;
Two lithium chloroberyllo(phosphate/arsenate) sodalites: Li4Cl(BePO4)3 and
Li4Cl(BeAsO4)3
;
loop_
_citation_id
_citation_journal_full
_citation_year
_citation_journal_volume
_citation_page_first
_citation_page_last
_citation_journal_id_ASTM
primary 'Acta Crystallographica, Section C: Crystal Structure Communications'
1994 50 471 473 ACSCEE
loop_
_publ_author_name
'Harrison, W.T.A.'
'Gier, T.E.'
'Stucky, G.D.'
_cell_length_a 8.23685(8)
_cell_length_b 8.23685(8)
_cell_length_c 8.23685(8)
_cell_angle_alpha 90.
_cell_angle_beta 90.
_cell_angle_gamma 90.
_cell_volume 558.83
_cell_formula_units_Z 2
_symmetry_space_group_name_H-M 'P -4 3 n'
_symmetry_Int_Tables_number 218
_refine_ls_R_factor_all 0.072
loop_
_symmetry_equiv_pos_site_id
_symmetry_equiv_pos_as_xyz
1 '-z+1/2, y+1/2, -x+1/2'
2 '-y+1/2, x+1/2, -z+1/2'
3 '-x+1/2, z+1/2, -y+1/2'
4 'z+1/2, -y+1/2, -x+1/2'
5 'y+1/2, -x+1/2, -z+1/2'
6 'x+1/2, -z+1/2, -y+1/2'
7 '-z+1/2, -y+1/2, x+1/2'
8 '-y+1/2, -x+1/2, z+1/2'
9 '-x+1/2, -z+1/2, y+1/2'
10 'z+1/2, y+1/2, x+1/2'
11 'y+1/2, x+1/2, z+1/2'
12 'x+1/2, z+1/2, y+1/2'
13 '-z, -x, y'
14 '-y, -z, x'
15 '-x, -y, z'
16 'z, -x, -y'
17 'y, -z, -x'
18 'x, -y, -z'
19 '-z, x, -y'
20 '-y, z, -x'
21 '-x, y, -z'
22 'z, x, y'
23 'y, z, x'
24 'x, y, z'
loop_
_atom_type_symbol
_atom_type_oxidation_number
Be2+ 2
As5+ 5
O2- -2
Li1+ 1
Cl1- -1
loop_
_atom_site_label
_atom_site_type_symbol
_atom_site_symmetry_multiplicity
_atom_site_Wyckoff_symbol
_atom_site_fract_x
_atom_site_fract_y
_atom_site_fract_z
_atom_site_B_iso_or_equiv
_atom_site_occupancy
_atom_site_attached_hydrogens
Be1 Be2+ 6 d 0.25 0 0.5 0.005(3) 1. 0
As1 As5+ 6 c 0.25 0.5 0 0.0046(3) 1. 0
O1 O2- 24 i 0.13390(31) 0.4066(4) 0.14093(32) 0.009(2) 1. 0
Li1 Li1+ 8 e 0.1772(11) 0.1772(11) 0.1772(11) 0.017(5) 1. 0
Cl1 Cl1- 2 a 0 0 0 0.018(1) 1. 0
#End of TTdata_74526-ICSD