
#(C) 2017 by FIZ Karlsruhe - Leibniz Institute for Information Infrastructure.  All rights reserved.
data_74830-ICSD
_database_code_ICSD 74830
_audit_creation_date 1995-10-17
_chemical_name_systematic 'Lithium hexafluorophosphate'
_chemical_formula_structural 'Li (P F6)'
_chemical_formula_sum 'F6 Li1 P1'
_chemical_name_structure_type LiSbF6
_exptl_crystal_density_diffrn 2.84
_publ_section_title

;
Die Kristallstrukturen von Li(PF6) und Li(AsF6): zur Kristallchemie von
Verbindungen A(E(V)F6)
;
loop_
_citation_id
_citation_journal_full
_citation_year
_citation_journal_volume
_citation_page_first
_citation_page_last
_citation_journal_id_ASTM
primary 'Zeitschrift fuer Naturforschung, B: Chemical Sciences' 1994 49 650 654
ZNBSEN
loop_
_publ_author_name
'Roehr, C.'
'Kniep, R.'
_cell_length_a 4.932(2)
_cell_length_b 4.932(2)
_cell_length_c 12.658(4)
_cell_angle_alpha 90.
_cell_angle_beta 90.
_cell_angle_gamma 120.
_cell_volume 266.65
_cell_formula_units_Z 3
_symmetry_space_group_name_H-M 'R -3 H'
_symmetry_Int_Tables_number 148
_refine_ls_R_factor_all 0.031
loop_
_symmetry_equiv_pos_site_id
_symmetry_equiv_pos_as_xyz
1 'x-y, x, -z'
2 'y, -x+y, -z'
3 '-x, -y, -z'
4 '-x+y, -x, z'
5 '-y, x-y, z'
6 'x, y, z'
7 'x-y+2/3, x+1/3, -z+1/3'
8 'y+2/3, -x+y+1/3, -z+1/3'
9 '-x+2/3, -y+1/3, -z+1/3'
10 '-x+y+2/3, -x+1/3, z+1/3'
11 '-y+2/3, x-y+1/3, z+1/3'
12 'x+2/3, y+1/3, z+1/3'
13 'x-y+1/3, x+2/3, -z+2/3'
14 'y+1/3, -x+y+2/3, -z+2/3'
15 '-x+1/3, -y+2/3, -z+2/3'
16 '-x+y+1/3, -x+2/3, z+2/3'
17 '-y+1/3, x-y+2/3, z+2/3'
18 'x+1/3, y+2/3, z+2/3'
loop_
_atom_type_symbol
_atom_type_oxidation_number
Li1+ 1
P5+ 5
F1- -1
loop_
_atom_site_label
_atom_site_type_symbol
_atom_site_symmetry_multiplicity
_atom_site_Wyckoff_symbol
_atom_site_fract_x
_atom_site_fract_y
_atom_site_fract_z
_atom_site_B_iso_or_equiv
_atom_site_occupancy
_atom_site_attached_hydrogens
Li1 Li1+ 3 b 0 0 0.5 . 1. 0
P1 P5+ 3 a 0 0 0 . 1. 0
F1 F1- 18 f 0.0571(2) 0.2893(2) 0.0730(1) . 1. 0
loop_
_atom_site_aniso_label
_atom_site_aniso_type_symbol
_atom_site_aniso_U_11
_atom_site_aniso_U_22
_atom_site_aniso_U_33
_atom_site_aniso_U_12
_atom_site_aniso_U_13
_atom_site_aniso_U_23
Li1 Li1+ 0.025(2) 0.025(2) 0.021(3) 0.012(1) 0 0
P1 P5+ 0.013(1) 0.013(1) 0.012(1) 0.006(1) 0 0
F1 F1- 0.026(1) 0.018(1) 0.023(1) 0.011(1) -.002(1) -.007(1)
#End of TTdata_74830-ICSD