
#(C) 2018 by FIZ Karlsruhe - Leibniz Institute for Information Infrastructure.  All rights reserved.
data_75161-ICSD
_database_code_ICSD 75161
_audit_creation_date 1995-10-17
_chemical_name_systematic 'Dilithium tetracalcium silicate catena-trisilicate'
_chemical_formula_structural 'Li2 Ca4 (Si O4) (Si3 O9)'
_chemical_formula_sum 'Ca4 Li2 O13 Si4'
_exptl_crystal_density_diffrn 2.9
_publ_section_title 'Crystal structure determination of Li2Ca4Si4O13'
loop_
_citation_id
_citation_journal_full
_citation_year
_citation_journal_volume
_citation_page_first
_citation_page_last
_citation_journal_id_ASTM
primary 'Journal of Solid State Chemistry' 1994 112 438 440 JSSCBI
loop_
_publ_author_name
'Villafuerte Castrejon, M.E.'
'Dago, A.'
'Pomes, R.'
_cell_length_a 10.450(3)
_cell_length_b 8.231(3)
_cell_length_c 7.170(2)
_cell_angle_alpha 77.71(2)
_cell_angle_beta 90.06(2)
_cell_angle_gamma 109.25(2)
_cell_volume 567.3
_cell_formula_units_Z 2
_symmetry_space_group_name_H-M 'P -1'
_symmetry_Int_Tables_number 2
_refine_ls_R_factor_all 0.039
loop_
_symmetry_equiv_pos_site_id
_symmetry_equiv_pos_as_xyz
1 '-x, -y, -z'
2 'x, y, z'
loop_
_atom_type_symbol
_atom_type_oxidation_number
Li1+ 1
Ca2+ 2
Si4+ 4
O2- -2
loop_
_atom_site_label
_atom_site_type_symbol
_atom_site_symmetry_multiplicity
_atom_site_Wyckoff_symbol
_atom_site_fract_x
_atom_site_fract_y
_atom_site_fract_z
_atom_site_B_iso_or_equiv
_atom_site_occupancy
_atom_site_attached_hydrogens
Li1 Li1+ 2 i 0.114(1) 0.5816(13) 0.2276(22) 0.039(5) 1. 0
Li2 Li1+ 2 i 0.4087(9) 0.4098(11) 0.7513(17) 0.024(3) 1. 0
Ca1 Ca2+ 2 i 0.3942(1) 0.7923(1) 0.4290(1) 0.008(1) 1. 0
Ca2 Ca2+ 2 i -.0030(1) 0.1942(1) 0.0835(1) 0.008(1) 1. 0
Ca3 Ca2+ 2 i 0.5973(1) 0.2105(1) 0.0758(1) 0.009(1) 1. 0
Ca4 Ca2+ 2 i 0.0055(1) 0.8032(1) 0.4300(1) 0.008(1) 1. 0
Si1 Si4+ 2 i 0.1790(1) 0.5728(2) 0.7334(2) 0.007(1) 1. 0
Si2 Si4+ 2 i 0.2786(1) 0.0842(2) 0.0743(2) 0.006(1) 1. 0
Si3 Si4+ 2 i 0.3044(1) 0.3830(2) 0.2829(2) 0.006(1) 1. 0
Si4 Si4+ 2 i 0.2806(1) 0.0933(2) 0.6380(2) 0.006(1) 1. 0
O1 O2- 2 i 0.3429(3) 0.2927(4) 0.4951(5) 0.011(1) 1. 0
O2 O2- 2 i 0.1435(3) 0.3501(4) 0.2849(5) 0.011(1) 1. 0
O3 O2- 2 i 0.3403(3) 0.5886(4) 0.7284(5) 0.008(1) 1. 0
O4 O2- 2 i 0.1588(3) 0.6646(4) 0.5141(5) 0.011(1) 1. 0
O5 O2- 2 i 0.3472(4) 0.2730(4) 0.1393(5) 0.011(1) 1. 0
O6 O2- 2 i 0.1637(3) 0.6771(4) 0.9000(5) 0.012(1) 1. 0
O7 O2- 2 i 0.1199(3) -.0089(4) 0.1341(5) 0.009(1) 1. 0
O8 O2- 2 i 0.3023(4) 0.1561(4) 0.8413(5) 0.010(1) 1. 0
O9 O2- 2 i 0.3842(3) -.0093(4) 0.6201(5) 0.010(1) 1. 0
O10 O2- 2 i 0.0681(3) 0.3753(4) 0.7870(5) 0.011(1) 1. 0
O11 O2- 2 i 0.3734(3) -.0333(4) 0.1354(5) 0.010(1) 1. 0
O12 O2- 2 i 0.1226(3) 0.0029(4) 0.6182(5) 0.009(1) 1. 0
O13 O2- 2 i 0.3991(3) 0.5869(4) 0.2270(5) 0.008(1) 1. 0
#End of TTdata_75161-ICSD