
#(C) 2018 by FIZ Karlsruhe - Leibniz Institute for Information Infrastructure.  All rights reserved.
data_75174-ICSD
_database_code_ICSD 75174
_audit_creation_date 1995-10-17
_audit_update_record 1999-11-30
_chemical_name_systematic 'Lithium iron nitride (3/0.9/2)'
_chemical_formula_structural 'Li3 Fe0.86 N2'
_chemical_formula_sum 'Fe0.86 Li3 N2'
_exptl_crystal_density_diffrn 2.87
_publ_section_title

;
Li deintercalation and structural change in the lithium transition metal
nitride Li3FeN2
;
loop_
_citation_id
_citation_journal_full
_citation_year
_citation_journal_volume
_citation_page_first
_citation_page_last
_citation_journal_id_ASTM
primary 'Journal of Solid State Chemistry' 1994 113 205 210 JSSCBI
loop_
_publ_author_name
'Nishijima, M.'
'Takeda, Y.'
'Imanishi, N.'
'Yamamoto, O.'
_cell_length_a 4.8630(3)
_cell_length_b 9.6381(5)
_cell_length_c 4.7833(2)
_cell_angle_alpha 90.
_cell_angle_beta 90.
_cell_angle_gamma 90.
_cell_volume 224.19
_cell_formula_units_Z 4
_symmetry_space_group_name_H-M 'I b a m'
_symmetry_Int_Tables_number 72
loop_
_symmetry_equiv_pos_site_id
_symmetry_equiv_pos_as_xyz
1 '-x, y, z+1/2'
2 'x, -y, z+1/2'
3 'x, y, -z'
4 '-x, -y, -z'
5 'x, -y, -z+1/2'
6 '-x, y, -z+1/2'
7 '-x, -y, z'
8 'x, y, z'
9 '-x+1/2, y+1/2, z'
10 'x+1/2, -y+1/2, z'
11 'x+1/2, y+1/2, -z+1/2'
12 '-x+1/2, -y+1/2, -z+1/2'
13 'x+1/2, -y+1/2, -z'
14 '-x+1/2, y+1/2, -z'
15 '-x+1/2, -y+1/2, z+1/2'
16 'x+1/2, y+1/2, z+1/2'
loop_
_atom_type_symbol
_atom_type_oxidation_number
Li1+ 1
Fe3+ 3.5
N3- -3
loop_
_atom_site_label
_atom_site_type_symbol
_atom_site_symmetry_multiplicity
_atom_site_Wyckoff_symbol
_atom_site_fract_x
_atom_site_fract_y
_atom_site_fract_z
_atom_site_B_iso_or_equiv
_atom_site_occupancy
_atom_site_attached_hydrogens
Li1 Li1+ 8 g 0 0.7434(6) 0.25 0.0097(17) 1. 0
Li2 Li1+ 4 b 0.5 0 0.25 0.0097(17) 1. 0
Fe1 Fe3+ 4 a 0 0 0.25 0.0041(4) 0.856(3) 0
N1 N3- 8 j 0.2278(2) 0.8783(4) 0 0.0071(13) 1. 0
#End of TTdata_75174-ICSD