
#(C) 2018 by FIZ Karlsruhe - Leibniz Institute for Information Infrastructure.  All rights reserved.
data_75177-ICSD
_database_code_ICSD 75177
_audit_creation_date 1995-10-17
_chemical_name_systematic 'Lithium titanium oxide (0.16/1/2)'
_chemical_formula_structural 'Li0.16 Ti O2'
_chemical_formula_sum 'Li0.16 O2 Ti1'
_chemical_name_structure_type LiTi2-xO4
_exptl_crystal_density_diffrn 3.82
_publ_section_title

;
Topotactic oxidation of ramsdellite-type Li0.5TiO2, a new polymorph of
titanium dioxide: TiO2(R)
;
loop_
_citation_id
_citation_journal_full
_citation_year
_citation_journal_volume
_citation_page_first
_citation_page_last
_citation_journal_id_ASTM
primary 'Journal of Solid State Chemistry' 1994 113 27 36 JSSCBI
loop_
_publ_author_name
'Akimoto, J.'
'Gotoh, Y.'
'Oosawa, Y.'
'Nonose, N.'
'Kumagai, T.'
'Aoki, K.'
'Takei, H.'
_cell_length_a 4.9794(10)
_cell_length_b 9.5613(13)
_cell_length_c 2.9551(12)
_cell_angle_alpha 90.
_cell_angle_beta 90.
_cell_angle_gamma 90.
_cell_volume 140.69
_cell_formula_units_Z 4
_symmetry_space_group_name_H-M 'P b n m'
_symmetry_Int_Tables_number 62
_refine_ls_R_factor_all 0.048
loop_
_symmetry_equiv_pos_site_id
_symmetry_equiv_pos_as_xyz
1 '-x+1/2, y+1/2, z'
2 'x, y, -z+1/2'
3 'x+1/2, -y+1/2, z+1/2'
4 '-x, -y, -z'
5 'x+1/2, -y+1/2, -z'
6 '-x, -y, z+1/2'
7 '-x+1/2, y+1/2, -z+1/2'
8 'x, y, z'
loop_
_atom_type_symbol
_atom_type_oxidation_number
Li1+ 1
Ti3+ 3.84
O2- -2
loop_
_atom_site_label
_atom_site_type_symbol
_atom_site_symmetry_multiplicity
_atom_site_Wyckoff_symbol
_atom_site_fract_x
_atom_site_fract_y
_atom_site_fract_z
_atom_site_B_iso_or_equiv
_atom_site_occupancy
_atom_site_attached_hydrogens
Li1 Li1+ 4 c -.06(1) 0.469(5) 0.25 1.4(9) 0.16(2) 0
Ti1 Ti3+ 4 c 0.96572(16) 0.13918(7) 0.25 . 1. 0
O1 O2- 4 c 0.6744(5) 0.2742(3) 0.25 . 1. 0
O2 O2- 4 c 0.2011(5) -.0338(2) 0.25 . 1. 0
loop_
_atom_site_aniso_label
_atom_site_aniso_type_symbol
_atom_site_aniso_U_11
_atom_site_aniso_U_22
_atom_site_aniso_U_33
_atom_site_aniso_U_12
_atom_site_aniso_U_13
_atom_site_aniso_U_23
Ti1 Ti3+ 0.0125(2) 0.00196(5) 0.0226(5) 0.00115(10) 0 0
O1 O2- 0.0076(8) 0.0020(2) 0.022(2) 0.0013(3) 0 0
O2 O2- 0.0039(7) 0.0015(2) 0.018(2) 0.0002(3) 0 0
#End of TTdata_75177-ICSD