
#(C) 2018 by FIZ Karlsruhe - Leibniz Institute for Information Infrastructure.  All rights reserved.
data_77543-ICSD
_database_code_ICSD 77543
_audit_creation_date 2003-04-01
_chemical_name_systematic 'Lithium scandium silicate'
_chemical_formula_structural 'Li Sc (Si O4)'
_chemical_formula_sum 'Li1 O4 Sc1 Si1'
_chemical_name_structure_type Olivine-Mg2SiO4
_exptl_crystal_density_diffrn 3.19
_publ_section_title

;
High-pressure crystal chemistry of Li Sc Si O4: An olivine with nearly
isotropic compression
;
loop_
_citation_id
_citation_journal_full
_citation_year
_citation_journal_volume
_citation_page_first
_citation_page_last
_citation_journal_id_ASTM
primary 'American Mineralogist' 1996 81 327 334 AMMIAY
loop_
_publ_author_name
'Hazen, R.M.'
'Downs, R.T.'
'Finger, L.W.'
_cell_length_a 4.8168(9)
_cell_length_b 10.4317(8)
_cell_length_c 5.9650(9)
_cell_angle_alpha 90.
_cell_angle_beta 90.
_cell_angle_gamma 90.
_cell_volume 299.73
_cell_formula_units_Z 4
_symmetry_space_group_name_H-M 'P b n m'
_symmetry_Int_Tables_number 62
_refine_ls_R_factor_all 0.027
loop_
_symmetry_equiv_pos_site_id
_symmetry_equiv_pos_as_xyz
1 '-x+1/2, y+1/2, z'
2 'x, y, -z+1/2'
3 'x+1/2, -y+1/2, z+1/2'
4 '-x, -y, -z'
5 'x+1/2, -y+1/2, -z'
6 '-x, -y, z+1/2'
7 '-x+1/2, y+1/2, -z+1/2'
8 'x, y, z'
loop_
_atom_type_symbol
_atom_type_oxidation_number
Li1+ 1
Si4+ 4
Sc3+ 3
O2- -2
loop_
_atom_site_label
_atom_site_type_symbol
_atom_site_symmetry_multiplicity
_atom_site_Wyckoff_symbol
_atom_site_fract_x
_atom_site_fract_y
_atom_site_fract_z
_atom_site_B_iso_or_equiv
_atom_site_occupancy
_atom_site_attached_hydrogens
Li1 Li1+ 4 a 0 0 0 1.45 1. 0
Si1 Si4+ 4 c 0.4311(2) 0.09111(7) 0.25 0.43 1. 0
Sc1 Sc3+ 4 c 0.9923(1) 0.27433(5) 0.25 0.42 1. 0
O1 O2- 4 c 0.7631(4) 0.1013(2) 0.25 0.62 1. 0
O2 O2- 4 c 0.1954(4) 0.4477(2) 0.25 0.63 1. 0
O3 O2- 8 d 0.2821(3) 0.1684(1) 0.0401(2) 0.62 1. 0
#End of TTdata_77543-ICSD