
#(C) 2018 by FIZ Karlsruhe - Leibniz Institute for Information Infrastructure.  All rights reserved.
data_78031-ICSD
_database_code_ICSD 78031
_audit_creation_date 1995-10-17
_audit_update_record 2014-08-01
_chemical_name_systematic
'Calcium lithium tantalum zirconium oxide (0.8/0.2/0.2/0.8/3)'
_chemical_formula_structural '(Ca0.8 Li0.2) (Ta0.2 Zr0.8) O3'
_chemical_formula_sum 'Ca0.8 Li0.2 O3 Ta0.2 Zr0.8'
_chemical_name_structure_type (Ca,Li)(Ta,Zr)O3
_exptl_crystal_density_diffrn 5.02
_publ_section_title
'Perovskite-like solid solutions in the system Li Ta O3 - Ca Zr O3'
loop_
_citation_id
_citation_journal_full
_citation_year
_citation_journal_volume
_citation_page_first
_citation_page_last
_citation_journal_id_ASTM
primary 'Journal of Solid State Chemistry' 1994 108 29 36 JSSCBI
loop_
_publ_author_name
'Smith, R.I.'
'West, A.R.'
_cell_length_a 5.7076(2)
_cell_length_b 7.9670(2)
_cell_length_c 5.5492(1)
_cell_angle_alpha 90.
_cell_angle_beta 90.
_cell_angle_gamma 90.
_cell_volume 252.34
_cell_formula_units_Z 4
_symmetry_space_group_name_H-M 'P n m a'
_symmetry_Int_Tables_number 62
_refine_ls_R_factor_all 0.0159
loop_
_symmetry_equiv_pos_site_id
_symmetry_equiv_pos_as_xyz
1 'x+1/2, y, -z+1/2'
2 'x, -y+1/2, z'
3 '-x+1/2, y+1/2, z+1/2'
4 '-x, -y, -z'
5 '-x+1/2, -y, z+1/2'
6 '-x, y+1/2, -z'
7 'x+1/2, -y+1/2, -z+1/2'
8 'x, y, z'
loop_
_atom_type_symbol
_atom_type_oxidation_number
Ca2+ 2
Zr4+ 4
Ta5+ 5
O2- -2
Li1+ 1
loop_
_atom_site_label
_atom_site_type_symbol
_atom_site_symmetry_multiplicity
_atom_site_Wyckoff_symbol
_atom_site_fract_x
_atom_site_fract_y
_atom_site_fract_z
_atom_site_B_iso_or_equiv
_atom_site_occupancy
_atom_site_attached_hydrogens
Ca1 Ca2+ 4 c 0.0467(3) 0.25 -.0103(5) 0.63(3) 0.8 0
Zr1 Zr4+ 4 b 0 0 0.5 0.37(1) 0.8 0
Ta1 Ta5+ 4 b 0 0 0.5 0.37(1) 0.2 0
O1 O2- 4 c -.0312(3) 0.25 0.4017(3) . 1. 0
O2 O2- 8 d 0.2978(2) 0.0515(2) 0.6987(2) . 1. 0
Li1 Li1+ 4 c 0.412(6) 0.25 0.514(8) 3.4(5) 0.2 0
loop_
_atom_site_aniso_label
_atom_site_aniso_type_symbol
_atom_site_aniso_U_11
_atom_site_aniso_U_22
_atom_site_aniso_U_33
_atom_site_aniso_U_12
_atom_site_aniso_U_13
_atom_site_aniso_U_23
O1 O2- 1.12(6) 0.27(5) 0.87(5) 0 0.11(4) 0
O2 O2- 0.66(4) 1.01(4) 0.99(4) 0.35(3) -.48(3) -.30(3)
#End of TTdata_78031-ICSD