
#(C) 2018 by FIZ Karlsruhe - Leibniz Institute for Information Infrastructure.  All rights reserved.
data_78105-ICSD
_database_code_ICSD 78105
_audit_creation_date 1995-10-17
_chemical_name_systematic 'Lithium titanium arsenate oxide'
_chemical_formula_structural 'Li Ti (As O4) O'
_chemical_formula_sum 'As1 Li1 O5 Ti1'
_chemical_name_structure_type Al2SiO5-Sillimanite
_exptl_crystal_density_diffrn 3.78
_publ_section_title
'Synthesis of LiTiPO5 and LiTiAsO5 with the alpha-Fe2PO5 structure'
loop_
_citation_id
_citation_journal_full
_citation_year
_citation_journal_volume
_citation_page_first
_citation_page_last
_citation_journal_id_ASTM
primary 'Journal of Solid State Chemistry' 1994 109 53 59 JSSCBI
loop_
_publ_author_name
'Robertson, A.'
'Fletcher, J.G.'
'Skakle, J.M.S.'
'West, A.R.'
_cell_length_a 7.5257(5)
_cell_length_b 6.5786(4)
_cell_length_c 7.4524(5)
_cell_angle_alpha 90.
_cell_angle_beta 90.
_cell_angle_gamma 90.
_cell_volume 368.96
_cell_formula_units_Z 4
_symmetry_space_group_name_H-M 'P n m a'
_symmetry_Int_Tables_number 62
_refine_ls_R_factor_all 0.0383
loop_
_symmetry_equiv_pos_site_id
_symmetry_equiv_pos_as_xyz
1 'x+1/2, y, -z+1/2'
2 'x, -y+1/2, z'
3 '-x+1/2, y+1/2, z+1/2'
4 '-x, -y, -z'
5 '-x+1/2, -y, z+1/2'
6 '-x, y+1/2, -z'
7 'x+1/2, -y+1/2, -z+1/2'
8 'x, y, z'
loop_
_atom_type_symbol
_atom_type_oxidation_number
Li1+ 1
Ti4+ 4
As5+ 5
O2- -2
loop_
_atom_site_label
_atom_site_type_symbol
_atom_site_symmetry_multiplicity
_atom_site_Wyckoff_symbol
_atom_site_fract_x
_atom_site_fract_y
_atom_site_fract_z
_atom_site_B_iso_or_equiv
_atom_site_occupancy
_atom_site_attached_hydrogens
Li1 Li1+ 4 a 0 0 0 0.0164 1. 0
Ti1 Ti4+ 4 c 0.334(1) 0.75 0.228(1) 0.0164 1. 0
As1 As5+ 4 c 0.375(1) 0.25 0.129(1) 0.0183 1. 0
O1 O2- 4 c 0.111(4) 0.75 0.158(4) 0.0167 1. 0
O2 O2- 4 c 0.806(4) 0.75 -.002(4) 0.0044 1. 0
O3 O2- 4 c 0.067(4) 0.25 0.493(4) 0.0137 1. 0
O4 O2- 8 d 0.8775(3) 0.449(3) 0.226(2) 0.0016 1. 0
#End of TTdata_78105-ICSD