
#(C) 2018 by FIZ Karlsruhe - Leibniz Institute for Information Infrastructure.  All rights reserved.
data_78574-ICSD
_database_code_ICSD 78574
_audit_creation_date 1996-10-14
_chemical_name_systematic 'Lithium niobium oxide (0.95/1/3)'
_chemical_formula_structural '(Li0.947 Nb0.014) (Nb0.996 O3)'
_chemical_formula_sum 'Li0.947 Nb1.01 O3'
_chemical_name_structure_type LiNbO3
_exptl_crystal_density_diffrn 4.64
_publ_section_title

;
Cation substitution models of congruent Li Nb O3 investigated by x-ray and
neutron powder diffraction
;
loop_
_citation_id
_citation_journal_full
_citation_year
_citation_journal_volume
_citation_page_first
_citation_page_last
_citation_journal_id_ASTM
primary 'Journal of Physics and Chemistry of Solids' 1994 55 145 152 JPCSAW
loop_
_publ_author_name
'Zotov, N.'
'Boysen, H.'
'Frey, F.'
'Metzger, T.'
'Born, E.'
_cell_length_a 5.14982(6)
_cell_length_b 5.14982(6)
_cell_length_c 13.8642(2)
_cell_angle_alpha 90.
_cell_angle_beta 90.
_cell_angle_gamma 120.
_cell_volume 318.43
_cell_formula_units_Z 6
_symmetry_space_group_name_H-M 'R 3 c H'
_symmetry_Int_Tables_number 161
_refine_ls_R_factor_all 0.0351
loop_
_symmetry_equiv_pos_site_id
_symmetry_equiv_pos_as_xyz
1 '-x+y, y, z+1/2'
2 'x, x-y, z+1/2'
3 '-y, -x, z+1/2'
4 '-x+y, -x, z'
5 '-y, x-y, z'
6 'x, y, z'
7 '-x+y+2/3, y+1/3, z+5/6'
8 'x+2/3, x-y+1/3, z+5/6'
9 '-y+2/3, -x+1/3, z+5/6'
10 '-x+y+2/3, -x+1/3, z+1/3'
11 '-y+2/3, x-y+1/3, z+1/3'
12 'x+2/3, y+1/3, z+1/3'
13 '-x+y+1/3, y+2/3, z+1/6'
14 'x+1/3, x-y+2/3, z+1/6'
15 '-y+1/3, -x+2/3, z+1/6'
16 '-x+y+1/3, -x+2/3, z+2/3'
17 '-y+1/3, x-y+2/3, z+2/3'
18 'x+1/3, y+2/3, z+2/3'
loop_
_atom_type_symbol
_atom_type_oxidation_number
Li1+ 1
Nb5+ 5
O2- -2
loop_
_atom_site_label
_atom_site_type_symbol
_atom_site_symmetry_multiplicity
_atom_site_Wyckoff_symbol
_atom_site_fract_x
_atom_site_fract_y
_atom_site_fract_z
_atom_site_B_iso_or_equiv
_atom_site_occupancy
_atom_site_attached_hydrogens
Li1 Li1+ 6 a 0 0 0.2806(8) 1.3(3) 0.947 0
Nb1 Nb5+ 6 a 0 0 0.2806(8) 0.36(5) 0.014 0
Nb2 Nb5+ 6 a 0 0 0 0.36(5) 0.996 0
O1 O2- 18 b 0.0481(7) 0.3445(10) 0.0639(2) 0.24(6) 1. 0
#End of TTdata_78574-ICSD