
#(C) 2018 by FIZ Karlsruhe - Leibniz Institute for Information Infrastructure.  All rights reserved.
data_78594-ICSD
_database_code_ICSD 78594
_audit_creation_date 1997-05-13
_audit_update_record 2015-02-01
_chemical_name_systematic 'Tetrastrontium copper(III) lithium dicarbonate oxide'
_chemical_formula_structural 'Sr4 Cu Li (C O3)2 O4'
_chemical_formula_sum 'C2 Cu1 Li1 O10 Sr4'
_chemical_name_structure_type CuLiSr4(CO3)2O4
_exptl_crystal_density_diffrn 4.5
_publ_section_title

;
Synthesis, single crystal growth and structural determination of new copper
oxycarbonates A4 Cu M (C O3)2 O4, A= Sr, Ba, M= Li, Na, Ca
;
loop_
_citation_id
_citation_journal_full
_citation_year
_citation_journal_volume
_citation_page_first
_citation_page_last
_citation_journal_id_ASTM
primary 'Physica C, Superconductivity' 1995 247 359 370 PHYCE6
loop_
_publ_author_name
'Calestani, G.'
'Ganguly, P.'
'Matacotta, F.C.'
'Nozar, P.'
'Migliori, A.'
'Thomas, K.A.'
'Tomasi, A.'
_cell_length_a 5.525(1)
_cell_length_b 5.525(1)
_cell_length_c 14.624(2)
_cell_angle_alpha 90.
_cell_angle_beta 90.
_cell_angle_gamma 90.
_cell_volume 446.41
_cell_formula_units_Z 2
_symmetry_space_group_name_H-M 'I 4/m m m'
_symmetry_Int_Tables_number 139
_refine_ls_R_factor_all 0.0196
loop_
_symmetry_equiv_pos_site_id
_symmetry_equiv_pos_as_xyz
1 'y, x, -z'
2 '-y, -x, -z'
3 '-y, x, -z'
4 'y, -x, -z'
5 '-x, y, -z'
6 'x, -y, -z'
7 'x, y, -z'
8 '-x, -y, -z'
9 '-y, -x, z'
10 'y, x, z'
11 'y, -x, z'
12 '-y, x, z'
13 'x, -y, z'
14 '-x, y, z'
15 '-x, -y, z'
16 'x, y, z'
17 'y+1/2, x+1/2, -z+1/2'
18 '-y+1/2, -x+1/2, -z+1/2'
19 '-y+1/2, x+1/2, -z+1/2'
20 'y+1/2, -x+1/2, -z+1/2'
21 '-x+1/2, y+1/2, -z+1/2'
22 'x+1/2, -y+1/2, -z+1/2'
23 'x+1/2, y+1/2, -z+1/2'
24 '-x+1/2, -y+1/2, -z+1/2'
25 '-y+1/2, -x+1/2, z+1/2'
26 'y+1/2, x+1/2, z+1/2'
27 'y+1/2, -x+1/2, z+1/2'
28 '-y+1/2, x+1/2, z+1/2'
29 'x+1/2, -y+1/2, z+1/2'
30 '-x+1/2, y+1/2, z+1/2'
31 '-x+1/2, -y+1/2, z+1/2'
32 'x+1/2, y+1/2, z+1/2'
loop_
_atom_type_symbol
_atom_type_oxidation_number
Cu3+ 3
Li1+ 1
Sr2+ 2
C4+ 4
O2- -2
loop_
_atom_site_label
_atom_site_type_symbol
_atom_site_symmetry_multiplicity
_atom_site_Wyckoff_symbol
_atom_site_fract_x
_atom_site_fract_y
_atom_site_fract_z
_atom_site_B_iso_or_equiv
_atom_site_occupancy
_atom_site_attached_hydrogens
Cu1 Cu3+ 2 b 0.5 0.5 0 . 1. 0
Li1 Li1+ 2 a 0 0 0 0.035(21) 1. 0
Sr1 Sr2+ 8 g 0 0.5 0.1139(1) . 1. 0
C1 C4+ 4 e 0 0 0.2378(24) . 1. 0
O1 O2- 8 h 0.7389(34) 0.7389(34) 0 . 1. 0
O2 O2- 4 e 0 0 0.1495(15) . 1. 0
O3 O2- 16 m 0.1440(29) 0.1440(29) 0.2774(15) . 0.5 0
loop_
_atom_site_aniso_label
_atom_site_aniso_type_symbol
_atom_site_aniso_U_11
_atom_site_aniso_U_22
_atom_site_aniso_U_33
_atom_site_aniso_U_12
_atom_site_aniso_U_13
_atom_site_aniso_U_23
Cu1 Cu3+ 0.001(2) 0.001(2) 0.001(3) 0 0 0
Sr1 Sr2+ 0.004(2) 0.008(3) 0.002(1) 0 0 0
C1 C4+ 0.000(6) 0.000(6) 0.006(11) 0 0 0
O1 O2- 0.008(4) 0.008(4) 0.007(6) 0.003(4) 0 0
O2 O2- 0.045(8) 0.045(8) 0.000(11) 0 0 0
O3 O2- 0.039(6) 0.039(6) 0.038(10) 0.003(7) -.018(5) -.018(5)
#End of TTdata_78594-ICSD