
#(C) 2018 by FIZ Karlsruhe - Leibniz Institute for Information Infrastructure.  All rights reserved.
data_78723-ICSD
_database_code_ICSD 78723
_audit_creation_date 1997-05-13
_chemical_name_systematic 'Lithium ruthenium oxide (0.9/1/3)'
_chemical_formula_structural 'Li0.9 Ru O3'
_chemical_formula_sum 'Li0.9 O3 Ru1'
_chemical_name_structure_type Cr2S3(hR10)
_exptl_crystal_density_diffrn 4.89
_publ_section_title 'Structure and lithium deintercalation of Li2-x Ru O3'
loop_
_citation_id
_citation_journal_full
_citation_year
_citation_journal_volume
_citation_page_first
_citation_page_last
_citation_journal_id_ASTM
primary 'Solid State Ionics' 1995 82 25 31 SSIOD3
loop_
_publ_author_name
'Kobayashi, H.'
'Kanno, R.'
'Kawamoto, Y.'
'Tabuchi, M.'
'Nakamura, O.'
'Tanako, M.'
_cell_length_a 5.1016(5)
_cell_length_b 5.1016(5)
_cell_length_c 14.0301(17)
_cell_angle_alpha 90.
_cell_angle_beta 90.
_cell_angle_gamma 120.
_cell_volume 316.23
_cell_formula_units_Z 6
_symmetry_space_group_name_H-M 'R -3 H'
_symmetry_Int_Tables_number 148
_refine_ls_R_factor_all 0.0485
loop_
_symmetry_equiv_pos_site_id
_symmetry_equiv_pos_as_xyz
1 'x-y, x, -z'
2 'y, -x+y, -z'
3 '-x, -y, -z'
4 '-x+y, -x, z'
5 '-y, x-y, z'
6 'x, y, z'
7 'x-y+2/3, x+1/3, -z+1/3'
8 'y+2/3, -x+y+1/3, -z+1/3'
9 '-x+2/3, -y+1/3, -z+1/3'
10 '-x+y+2/3, -x+1/3, z+1/3'
11 '-y+2/3, x-y+1/3, z+1/3'
12 'x+2/3, y+1/3, z+1/3'
13 'x-y+1/3, x+2/3, -z+2/3'
14 'y+1/3, -x+y+2/3, -z+2/3'
15 '-x+1/3, -y+2/3, -z+2/3'
16 '-x+y+1/3, -x+2/3, z+2/3'
17 '-y+1/3, x-y+2/3, z+2/3'
18 'x+1/3, y+2/3, z+2/3'
loop_
_atom_type_symbol
_atom_type_oxidation_number
Ru5+ 5.1
Li1+ 1
O2- -2
loop_
_atom_site_label
_atom_site_type_symbol
_atom_site_symmetry_multiplicity
_atom_site_Wyckoff_symbol
_atom_site_fract_x
_atom_site_fract_y
_atom_site_fract_z
_atom_site_B_iso_or_equiv
_atom_site_occupancy
_atom_site_attached_hydrogens
Ru1 Ru5+ 6 c 0 0 0.3400(3) 0.02(17) 1. 0
Li1 Li1+ 3 a 0 0 0 0.02(17) 1. 0
Li2 Li1+ 3 b 0 0 0.5 0.02(17) 0.8 0
O1 O2- 18 f 0.312(7) -.0357(7) 0.261(2) 0.02(17) 1. 0
#End of TTdata_78723-ICSD