
#(C) 2018 by FIZ Karlsruhe - Leibniz Institute for Information Infrastructure.  All rights reserved.
data_78741-ICSD
_database_code_ICSD 78741
_audit_creation_date 1997-05-13
_chemical_name_systematic 'Dilithium bis(hydrogensulfat) - sulfuric acid (1/1)'
_chemical_formula_structural '(Li2 (H S O4)2) (H2 S O4)'
_chemical_formula_sum 'H4 Li2 O12 S3'
_exptl_crystal_density_diffrn 2.01
_publ_section_title

;
Ein neues Lithiumhydrogensulfat, Li2 (HS O4)2 (H2 S O4) - Synthese und
Kristallstruktur
;
loop_
_citation_id
_citation_journal_full
_citation_year
_citation_journal_volume
_citation_page_first
_citation_page_last
_citation_journal_id_ASTM
primary 'Zeitschrift fuer Anorganische und Allgemeine Chemie (1950) (DE)' 1995
621 1266 1269 ZAACAB
loop_
_publ_author_name
'Werner, C.'
'Kemnitz, E.'
'Troyanov, S.I.'
'Struchkov, Yu.T.'
'Worzala, H.'
_cell_length_a 17.6450(40)
_cell_length_b 5.378(1)
_cell_length_c 10.667(3)
_cell_angle_alpha 90.
_cell_angle_beta 90.
_cell_angle_gamma 90.
_cell_volume 1012.24
_cell_formula_units_Z 4
_symmetry_space_group_name_H-M 'P c c n'
_symmetry_Int_Tables_number 56
_refine_ls_R_factor_all 0.045
loop_
_symmetry_equiv_pos_site_id
_symmetry_equiv_pos_as_xyz
1 'x, -y+1/2, z+1/2'
2 '-x+1/2, y, z+1/2'
3 'x+1/2, y+1/2, -z'
4 '-x, -y, -z'
5 '-x, y+1/2, -z+1/2'
6 'x+1/2, -y, -z+1/2'
7 '-x+1/2, -y+1/2, z'
8 'x, y, z'
loop_
_atom_type_symbol
_atom_type_oxidation_number
S6+ 6
O2- -2
Li1+ 1
H1+ 1
loop_
_atom_site_label
_atom_site_type_symbol
_atom_site_symmetry_multiplicity
_atom_site_Wyckoff_symbol
_atom_site_fract_x
_atom_site_fract_y
_atom_site_fract_z
_atom_site_B_iso_or_equiv
_atom_site_occupancy
_atom_site_attached_hydrogens
S1 S6+ 8 e 0.43524(3) 0.2142(1) 0.13843(6) 0.014(1) 1. 0
S2 S6+ 4 d 0.75 0.25 0.1967(1) 0.020(1) 1. 0
O1 O2- 8 e 0.5144(1) 0.1460(4) 0.1216(2) 0.022(1) 1. 0
O2 O2- 8 e 0.3848(1) 0.0119(4) 0.1048(2) 0.024(1) 1. 0
O3 O2- 8 e 0.4180(1) 0.4429(5) 0.0780(3) 0.032(1) 1. 0
O4 O2- 8 e 0.4212(1) 0.2416(5) 0.2809(2) 0.027(1) 1. 0
O5 O2- 8 e 0.6810(1) 0.2284(6) 0.1290(3) 0.041(1) 1. 0
O6 O2- 8 e 0.7473(2) 0.4729(5) 0.2843(3) 0.040(1) 1. 0
Li1 Li1+ 8 e 0.5974(3) 0.2679(10) 0.0177(5) 0.023(1) 1. 0
H1 H1+ 8 e 0.437(3) 0.348(11) 0.293(5) 0.05(2) 1. 0
H2 H1+ 8 e 0.298(3) -.013(9) 0.178(5) 0.05(1) 1. 0
#End of TTdata_78741-ICSD