
#(C) 2018 by FIZ Karlsruhe - Leibniz Institute for Information Infrastructure.  All rights reserved.
data_78790-ICSD
_database_code_ICSD 78790
_audit_creation_date 1999-11-30
_chemical_name_systematic 'Dilithium zirconium nitride'
_chemical_formula_structural 'Li2 Zr N2'
_chemical_formula_sum 'Li2 N2 Zr1'
_chemical_name_structure_type La2O3
_exptl_crystal_density_diffrn 4.33
_publ_section_title

;
Re-evaluation of the crystal structure of lithium zirconium nitride, Li2 Zr
N2, by neutron diffraction
;
loop_
_citation_id
_citation_journal_full
_citation_year
_citation_journal_volume
_citation_page_first
_citation_page_last
_citation_journal_id_ASTM
primary 'Zeitschrift fuer Kristallographie (1979-2010)' 1995 210 513 515 ZEKRDZ
loop_
_publ_author_name
'Niewa, R.'
'Jacobs, H.'
'Mayer, H.M.'
_cell_length_a 3.285(1)
_cell_length_b 3.285(1)
_cell_length_c 5.461(2)
_cell_angle_alpha 90.
_cell_angle_beta 90.
_cell_angle_gamma 120.
_cell_volume 51.04
_cell_formula_units_Z 1
_symmetry_space_group_name_H-M 'P -3 m 1'
_symmetry_Int_Tables_number 164
_refine_ls_R_factor_all 0.0378
loop_
_symmetry_equiv_pos_site_id
_symmetry_equiv_pos_as_xyz
1 'x-y, -y, -z'
2 '-x, -x+y, -z'
3 'y, x, -z'
4 'x-y, x, -z'
5 'y, -x+y, -z'
6 '-x, -y, -z'
7 '-x+y, y, z'
8 'x, x-y, z'
9 '-y, -x, z'
10 '-x+y, -x, z'
11 '-y, x-y, z'
12 'x, y, z'
loop_
_atom_type_symbol
_atom_type_oxidation_number
Zr4+ 4
N3- -3
Li1+ 1
loop_
_atom_site_label
_atom_site_type_symbol
_atom_site_symmetry_multiplicity
_atom_site_Wyckoff_symbol
_atom_site_fract_x
_atom_site_fract_y
_atom_site_fract_z
_atom_site_B_iso_or_equiv
_atom_site_occupancy
_atom_site_attached_hydrogens
Zr1 Zr4+ 1 a 0 0 0 0.8(1) 1. 0
N1 N3- 2 d 0.3333 0.6667 0.2228(5) 0.50(5) 1. 0
Li1 Li1+ 2 d 0.3333 0.6667 0.613(2) 0.2(2) 1. 0
#End of TTdata_78790-ICSD