
#(C) 2017 by FIZ Karlsruhe - Leibniz Institute for Information Infrastructure.  All rights reserved.
data_78819-ICSD
_database_code_ICSD 78819
_audit_creation_date 1997-11-10
_chemical_name_systematic 'Lithium trinitride bromide'
_chemical_formula_structural 'Li10 N3 Br'
_chemical_formula_sum 'Br1 Li10 N3'
_exptl_crystal_density_diffrn 1.73
_publ_section_title
'Reindarstellung und Kristallstruktur von Lithiumtrinitridbromid, Li10 N3 Br'
loop_
_citation_id
_citation_journal_full
_citation_year
_citation_journal_volume
_citation_page_first
_citation_page_last
_citation_journal_id_ASTM
primary 'Zeitschrift fuer Naturforschung, B: Chemical Sciences' 1995 50 1061
1066 ZNBSEN
loop_
_publ_author_name
'Marx, R.'
_cell_length_a 7.413(1)
_cell_length_b 7.413(1)
_cell_length_c 3.8657(7)
_cell_angle_alpha 90.
_cell_angle_beta 90.
_cell_angle_gamma 120.
_cell_volume 183.97
_cell_formula_units_Z 1
_symmetry_space_group_name_H-M 'P -6 m 2'
_symmetry_Int_Tables_number 187
_refine_ls_R_factor_all 0.029
loop_
_symmetry_equiv_pos_site_id
_symmetry_equiv_pos_as_xyz
1 'x, x-y, -z'
2 '-x+y, y, -z'
3 '-y, -x, -z'
4 'x, x-y, z'
5 '-x+y, y, z'
6 '-y, -x, z'
7 '-x+y, -x, -z'
8 '-y, x-y, -z'
9 'x, y, -z'
10 '-x+y, -x, z'
11 '-y, x-y, z'
12 'x, y, z'
loop_
_atom_type_symbol
_atom_type_oxidation_number
N3- -3
Br1- -1
Li1+ 1
loop_
_atom_site_label
_atom_site_type_symbol
_atom_site_symmetry_multiplicity
_atom_site_Wyckoff_symbol
_atom_site_fract_x
_atom_site_fract_y
_atom_site_fract_z
_atom_site_B_iso_or_equiv
_atom_site_occupancy
_atom_site_attached_hydrogens
N1 N3- 3 j 0.4922(2) 0.5078(2) 0 0.0073(7) 1. 0
Br1 Br1- 1 b 0 0 0.5 0.0265(16) 1. 0
Li1 Li1+ 3 k 0.5010(14) 0.4990(14) 0.5 0.0107(13) 1. 0
Li2 Li1+ 1 c 0.3333 0.6667 0 0.0107(13) 1. 0
Li3 Li1+ 3 j 0.1676(9) -.1676(9) 0 0.0107(13) 1. 0
Li4 Li1+ 3 j -.2216(8) 0.2216(8) 0 0.0107(13) 1. 0
#End of TTdata_78819-ICSD