
#(C) 2017 by FIZ Karlsruhe - Leibniz Institute for Information Infrastructure.  All rights reserved.
data_78836-ICSD
_database_code_ICSD 78836
_audit_creation_date 1999-11-30
_chemical_name_systematic 'Lithium nitrid dibromide'
_chemical_formula_structural 'Li5 N Br2'
_chemical_formula_sum 'Br2 Li5 N1'
_exptl_crystal_density_diffrn 2.49
_publ_section_title
'Reindarstellung und Kristallstruktur von Lithiumnitriddibromid, Li5 N Br2'
loop_
_citation_id
_citation_journal_full
_citation_year
_citation_journal_volume
_citation_page_first
_citation_page_last
_citation_journal_id_ASTM
primary 'Zeitschrift fuer Naturforschung, B: Chemical Sciences' 1995 50 1353
1358 ZNBSEN
loop_
_publ_author_name
'Marx, R.'
'Mayer, H.M.'
_cell_length_a 6.0379(5)
_cell_length_b 11.813(1)
_cell_length_c 3.9014(3)
_cell_angle_alpha 90.
_cell_angle_beta 90.
_cell_angle_gamma 90.
_cell_volume 278.27
_cell_formula_units_Z 2
_symmetry_space_group_name_H-M 'I m m m'
_symmetry_Int_Tables_number 71
_refine_ls_R_factor_all 0.023
loop_
_symmetry_equiv_pos_site_id
_symmetry_equiv_pos_as_xyz
1 'x, y, -z'
2 'x, -y, z'
3 '-x, y, z'
4 '-x, -y, -z'
5 '-x, -y, z'
6 '-x, y, -z'
7 'x, -y, -z'
8 'x, y, z'
9 'x+1/2, y+1/2, -z+1/2'
10 'x+1/2, -y+1/2, z+1/2'
11 '-x+1/2, y+1/2, z+1/2'
12 '-x+1/2, -y+1/2, -z+1/2'
13 '-x+1/2, -y+1/2, z+1/2'
14 '-x+1/2, y+1/2, -z+1/2'
15 'x+1/2, -y+1/2, -z+1/2'
16 'x+1/2, y+1/2, z+1/2'
loop_
_atom_type_symbol
_atom_type_oxidation_number
N3- -3
Br1- -1
Li1+ 1
loop_
_atom_site_label
_atom_site_type_symbol
_atom_site_symmetry_multiplicity
_atom_site_Wyckoff_symbol
_atom_site_fract_x
_atom_site_fract_y
_atom_site_fract_z
_atom_site_B_iso_or_equiv
_atom_site_occupancy
_atom_site_attached_hydrogens
N1 N3- 2 a 0 0 0 0.010(1) 1. 0
Br1 Br1- 4 g 0 0.3276(4) 0 0.0178(13) 1. 0
Li1 Li1+ 2 c 0.5 0.5 0 0.0280(63) 1. 0
Li2 Li1+ 8 n 0.2141(13) 0.1197(6) 0 0.0223(27) 1. 0
#End of TTdata_78836-ICSD