
#(C) 2018 by FIZ Karlsruhe - Leibniz Institute for Information Infrastructure.  All rights reserved.
data_78992-ICSD
_database_code_ICSD 78992
_audit_creation_date 1998-06-26
_chemical_name_systematic 'Lithium strontium 19-thiodecaborate (2.55/2.27/1)'
_chemical_formula_structural 'Li2.55 Sr2.27 (B10 S19)'
_chemical_formula_sum 'B10 Li2.55 S19 Sr2.27'
_exptl_crystal_density_diffrn 2.55
_cell_measurement_temperature 295.
_publ_section_title

;
Darstellung und Kristallstrukturen von Li(4-2x) Sr(2+x) B10 S19 (x = 0,27) und
Na6 B10 S18. Zwei neue Thioborate mit hochpolymeren Makrotetraeder-Nertzwerken
;
loop_
_citation_id
_citation_journal_full
_citation_year
_citation_journal_volume
_citation_page_first
_citation_page_last
_citation_journal_id_ASTM
primary 'Zeitschrift fuer Anorganische und Allgemeine Chemie (1950) (DE)' 1996
622 76 84 ZAACAB
loop_
_publ_author_name
'Hammerschmidt, A.'
'zum Hecht, P.'
'Hiltmann, F.'
'Krebs, B.'
_cell_length_a 10.919(2)
_cell_length_b 13.590(3)
_cell_length_c 16.4230(40)
_cell_angle_alpha 90.
_cell_angle_beta 90.48(2)
_cell_angle_gamma 90.
_cell_volume 2436.91
_cell_formula_units_Z 4
_symmetry_space_group_name_H-M 'P 1 21/c 1'
_symmetry_Int_Tables_number 14
_refine_ls_R_factor_all 0.038
loop_
_symmetry_equiv_pos_site_id
_symmetry_equiv_pos_as_xyz
1 'x, -y+1/2, z+1/2'
2 '-x, -y, -z'
3 '-x, y+1/2, -z+1/2'
4 'x, y, z'
loop_
_atom_type_symbol
_atom_type_oxidation_number
Sr2+ 2
S2- -2
B3+ 3
Li1+ 1
loop_
_atom_site_label
_atom_site_type_symbol
_atom_site_symmetry_multiplicity
_atom_site_Wyckoff_symbol
_atom_site_fract_x
_atom_site_fract_y
_atom_site_fract_z
_atom_site_B_iso_or_equiv
_atom_site_occupancy
_atom_site_attached_hydrogens
Sr1 Sr2+ 4 e 0.41231(13) 0.59696(7) 0.62647(7) . 0.748(3) 0
Sr2 Sr2+ 4 e 0.58553(16) 0.74226(10) 0.38134(9) . 0.679(3) 0
Sr3 Sr2+ 4 e 0.12805(14) 0.13243(10) 0.50457(9) . 0.654(3) 0
Sr4 Sr2+ 4 e 0.4109(5) 0.0691(5) 0.3623(3) . 0.187(4) 0
S1 S2- 4 e 0.10678(24) 0.45219(15) 0.23979(13) . 1. 0
S2 S2- 4 e 0.10419(23) 0.69116(15) 0.24546(13) . 1. 0
S3 S2- 4 e 0.10257(21) 0.56576(17) 0.41381(12) . 1. 0
S4 S2- 4 e 0.34348(20) 0.57146(17) 0.30150(12) . 1. 0
S5 S2- 4 e 0.10438(22) 0.57535(17) 0.08116(12) . 1. 0
S6 S2- 4 e 0.34544(24) 0.45345(16) 0.46340(13) . 1. 0
S7 S2- 4 e 0.09924(24) 0.79556(16) 0.41357(14) . 1. 0
S8 S2- 4 e 0.33952(24) 0.90959(16) 0.47320(13) . 1. 0
S9 S2- 4 e 0.34466(24) 0.69520(16) 0.14519(14) . 1. 0
S10 S2- 4 e 0.34303(24) 0.67622(17) 0.46728(14) . 1. 0
S11 S2- 4 e 0.10467(26) 0.33628(17) 0.40291(15) . 1. 0
S12 S2- 4 e -.12122(21) 0.57218(18) 0.18323(13) . 1. 0
S13 S2- 4 e 0.34058(25) 0.80310(16) 0.30787(13) . 1. 0
S14 S2- 4 e 0.34898(25) 0.34430(16) 0.29058(14) . 1. 0
S15 S2- 4 e -.12659(24) 0.45182(17) 0.34989(15) . 1. 0
S16 S2- 4 e -.12579(24) 0.68834(17) 0.35466(15) . 1. 0
S17 S2- 4 e 0.34611(26) 0.46397(16) 0.13200(14) . 1. 0
S18 S2- 4 e 0.34353(31) 0.22507(20) 0.45305(16) . 1. 0
S19 S2- 4 e -.35311(23) 0.57501(22) 0.28877(18) . 1. 0
B1 B3+ 4 e 0.2828(11) 0.4601(7) 0.2399(6) 0.017(3) 1. 0
B2 B3+ 4 e 0.2808(9) 0.3397(6) 0.4024(5) 0.009(2) 1. 0
B3 B3+ 4 e 0.2749(11) 0.7939(7) 0.4200(6) 0.020(3) 1. 0
B4 B3+ 4 e -.1809(9) 0.5723(7) 0.2955(6) 0.016(2) 1. 0
B5 B3+ 4 e 0.0472(10) 0.6830(7) 0.3566(6) 0.015(2) 1. 0
B6 B3+ 4 e 0.2785(10) 0.5853(7) 0.0819(6) 0.019(2) 1. 0
B7 B3+ 4 e 0.2781(10) 0.5658(7) 0.4098(6) 0.016(2) 1. 0
B8 B3+ 4 e 0.0522(10) 0.5717(8) 0.1897(6) 0.018(2) 1. 0
B9 B3+ 4 e 0.0465(11) 0.4523(7) 0.3511(6) 0.019(3) 1. 0
B10 B3+ 4 e 0.281(1) 0.6893(7) 0.2507(6) 0.014(2) 1. 0
Li1 Li1+ 4 e 0.142(3) 0.895(2) 0.2960(2) 0.061(8) 0.87 0
Li2 Li1+ 4 e 0.130(4) 0.430(3) 0.534(2) 0.052(10) 0.49 0
Li3 Li1+ 4 e 0.165(5) 0.243(4) 0.283(3) 0.060(15) 0.42 0
Li4 Li1+ 4 e 0.443(4) 0.112(3) 0.352(2) 0.062(13) 0.77 0
loop_
_atom_site_aniso_label
_atom_site_aniso_type_symbol
_atom_site_aniso_U_11
_atom_site_aniso_U_22
_atom_site_aniso_U_33
_atom_site_aniso_U_12
_atom_site_aniso_U_13
_atom_site_aniso_U_23
Sr1 Sr2+ 0.0188(8) 0.0170(6) 0.0172(6) 0.0015(5) 0.0011(5) 0.0030(5)
Sr2 Sr2+ 0.027(1) 0.0323(9) 0.0251(8) 0.0002(7) -.0030(7) -.0021(6)
Sr3 Sr2+ 0.0174(9) 0.0322(9) 0.0258(9) -.0023(7) 0.0041(7) 0.0043(6)
Sr4 Sr2+ 0.024(3) 0.033(4) 0.027(3) -.001(3) 0.003(2) 0.005(3)
S1 S2- 0.014(1) 0.016(1) 0.013(1) 0.000(1) -.001(1) 0.001(1)
S2 S2- 0.009(1) 0.016(1) 0.013(1) 0.000(1) 0.001(1) 0.000(1)
S3 S2- 0.012(1) 0.018(1) 0.013(1) -.001(1) 0.002(1) 0.001(1)
S4 S2- 0.010(1) 0.019(1) 0.010(1) 0.001(1) 0.000(1) -.001(1)
S5 S2- 0.019(1) 0.026(1) 0.010(1) -.001(1) 0.000(1) 0.003(1)
S6 S2- 0.019(2) 0.023(1) 0.012(1) 0.001(1) -.003(1) 0.003(1)
S7 S2- 0.017(2) 0.022(1) 0.019(1) -.002(1) 0.004(1) -.007(1)
S8 S2- 0.026(2) 0.022(1) 0.010(1) -.006(1) 0.003(1) -.003(1)
S9 S2- 0.015(2) 0.023(1) 0.013(1) -.005(1) 0.003(1) 0.001(1)
S10 S2- 0.019(2) 0.021(1) 0.015(1) -.005(1) -.001(1) -.005(1)
S11 S2- 0.018(2) 0.021(1) 0.022(1) -.002(1) -.001(1) 0.005(1)
S12 S2- 0.013(1) 0.028(1) 0.026(1) -.001(1) -.008(1) 0.003(1)
S13 S2- 0.020(2) 0.020(1) 0.013(1) -.006(1) 0.005(1) -.002(1)
S14 S2- 0.021(2) 0.020(1) 0.015(1) 0.006(1) 0.000(1) 0.002(1)
S15 S2- 0.011(1) 0.029(2) 0.028(1) -.004(1) 0.003(1) 0.002(1)
S16 S2- 0.012(2) 0.027(1) 0.027(1) 0.003(1) 0.005(1) -.002(1)
S17 S2- 0.026(2) 0.025(1) 0.011(1) 0.010(1) 0.008(1) 0.002(1)
S18 S2- 0.054(2) 0.029(2) 0.026(2) 0.014(1) -.007(2) 0.006(1)
S19 S2- 0.012(1) 0.052(2) 0.059(2) 0.000(1) -.001(1) 0.005(2)
#End of TTdata_78992-ICSD