
#(C) 2018 by FIZ Karlsruhe - Leibniz Institute for Information Infrastructure.  All rights reserved.
data_79351-ICSD
_database_code_ICSD 79351
_audit_creation_date 1996-10-14
_chemical_name_systematic 'Lithium zinc phosphate(V) hydrate'
_chemical_formula_structural 'Li Zn (P O4) (H2 O)'
_chemical_formula_sum 'H2 Li1 O5 P1 Zn1'
_chemical_name_structure_type Zeolite-ABW-frame
_exptl_crystal_density_diffrn 2.89
_cell_measurement_temperature 15.
_publ_section_title

;
Tetrahedral-framework lithium zinc phosphate phases: location of light-atom
positions in Li Zn P O4 . (H2 O) by powder neutron diffraction and structure
determination of Li Zn P O4 by ab initio methods
;
loop_
_citation_id
_citation_journal_full
_citation_year
_citation_journal_volume
_citation_page_first
_citation_page_last
_citation_journal_id_ASTM
primary 'Journal of Solid State Chemistry' 1995 114 249 257 JSSCBI
loop_
_publ_author_name
'Harrison, W.T.A.'
'Gier, T.E.'
'Nicol, J.M.'
'Stucky, G.D.'
_cell_length_a 10.575(2)
_cell_length_b 8.0759(9)
_cell_length_c 4.9937(6)
_cell_angle_alpha 90.
_cell_angle_beta 90.
_cell_angle_gamma 90.
_cell_volume 426.48
_cell_formula_units_Z 4
_symmetry_space_group_name_H-M 'P n a 21'
_symmetry_Int_Tables_number 33
_refine_ls_R_factor_all 0.039
loop_
_symmetry_equiv_pos_site_id
_symmetry_equiv_pos_as_xyz
1 'x+1/2, -y+1/2, z'
2 '-x+1/2, y+1/2, z+1/2'
3 '-x, -y, z+1/2'
4 'x, y, z'
loop_
_atom_type_symbol
_atom_type_oxidation_number
Zn2+ 2
P5+ 5
O2- -2
Li1+ 1
O2- -2
H1+ 1
loop_
_atom_site_label
_atom_site_type_symbol
_atom_site_symmetry_multiplicity
_atom_site_Wyckoff_symbol
_atom_site_fract_x
_atom_site_fract_y
_atom_site_fract_z
_atom_site_B_iso_or_equiv
_atom_site_occupancy
_atom_site_attached_hydrogens
Zn1 Zn2+ 4 a 0.1249(10) 0.1064(14) 0.1951(22) 0.011(3) 1. 0
P1 P5+ 4 a 0.3246(9) 0.4117(13) 0.1929(22) 0.011(3) 1. 0
O1 O2- 4 a 0.9481(8) 0.1618(12) 0.1049(20) 0.008(3) 1. 0
O2 O2- 4 a 0.2085(9) 0.3152(13) 0.0840(25) 0.008(3) 1. 0
O3 O2- 4 a 0.1637(10) 0.1052(11) 0.5801(22) 0.008(3) 1. 0
O4 O2- 4 a 0.1898(11) 0.9331(12) -.0026(18) 0.008(3) 1. 0
Li1 Li1+ 4 a 0.194(4) 0.311(4) 0.674(5) 0.032(3) 1. 0
O5 O2- 4 a 0.5093(12) 0.0920(12) 0.7149(20) 0.032(3) 1. 0
H1 H1+ 4 a 0.4814(18) 0.0595(19) 0.8991(25) 0.032(3) 1. 0
H2 H1+ 4 a 0.4777(20) 0.1920(17) 0.6232(32) 0.032(3) 1. 0
#End of TTdata_79351-ICSD