
#(C) 2018 by FIZ Karlsruhe - Leibniz Institute for Information Infrastructure.  All rights reserved.
data_79472-ICSD
_database_code_ICSD 79472
_audit_creation_date 1996-10-14
_audit_update_record 1999-11-30
_chemical_name_systematic 'Tetraaqualithium tetrahydroxoborate dihydrate'
_chemical_formula_structural '(Li (H2 O)4) (B (O H)4) (H2 O)2'
_chemical_formula_sum 'H16 B1 Li1 O10'
_exptl_crystal_density_diffrn 1.4
_publ_section_title
'Crystal structure and dehydration process of Li (H2 O)4 B (O H)4 . 2(H2 O)'
loop_
_citation_id
_citation_journal_full
_citation_year
_citation_journal_volume
_citation_page_first
_citation_page_last
_citation_journal_id_ASTM
primary 'Journal of Solid State Chemistry' 1995 115 549 553 JSSCBI
loop_
_publ_author_name
'Touboul, M.'
'Betourne, E.'
'Novogorocki, G.'
_cell_length_a 6.5534(5)
_cell_length_b 6.5534(5)
_cell_length_c 6.1740(7)
_cell_angle_alpha 90.
_cell_angle_beta 90.
_cell_angle_gamma 120.
_cell_volume 229.63
_cell_formula_units_Z 1
_symmetry_space_group_name_H-M 'P 3'
_symmetry_Int_Tables_number 143
_refine_ls_R_factor_all 0.026
loop_
_symmetry_equiv_pos_site_id
_symmetry_equiv_pos_as_xyz
1 '-x+y, -x, z'
2 '-y, x-y, z'
3 'x, y, z'
loop_
_atom_type_symbol
_atom_type_oxidation_number
O2- -2
B3+ 3
Li1+ 1
H1+ 1
loop_
_atom_site_label
_atom_site_type_symbol
_atom_site_symmetry_multiplicity
_atom_site_Wyckoff_symbol
_atom_site_fract_x
_atom_site_fract_y
_atom_site_fract_z
_atom_site_B_iso_or_equiv
_atom_site_occupancy
_atom_site_attached_hydrogens
O1 O2- 1 a 0 0 0.25 . 1. 0
O2 O2- 1 a 0 0 0.7060(5) . 1. 0
O3 O2- 1 c 0.6667 0.3333 0.4750(4) . 1. 0
O4 O2- 3 d 0.8915(2) 0.5275(2) 0.7949(4) . 1. 0
O5 O2- 1 b 0.3333 0.6667 0.6068(5) . 1. 0
O6 O2- 3 d 0.0261(2) 0.4320(2) 0.1883(4) . 1. 0
B1 B3+ 1 c 0.6667 0.3333 0.7135(5) . 1. 0
Li1 Li1+ 1 b 0.3333 0.6667 0.2895(8) . 1. 0
H1 H1+ 1 a 0 0 0.576(9) 2.8 1. 0
H2 H1+ 3 d 0.110(17) 0.092(18) 0.747(13) 2.8 0.333 0
H3 H1+ 3 d 0.013(7) 0.122(7) 0.211(7) 3.1 0.667 0
H4 H1+ 3 d 0.568(14) 0.197(13) 0.440(11) 2.1 0.333 0
H5 H1+ 3 d 0.746(9) 0.107(5) 0.779(4) 2. 1. 0
H6 H1+ 3 d 0.394(7) 0.589(7) 0.667(6) 2.2 0.667 0
H7 H1+ 3 d 0.929(5) 0.419(5) 0.286(5) 2.5 1. 0
H8 H1+ 3 d 0.458(5) 0.017(5) 0.081(5) 2.5 1. 0
loop_
_atom_site_aniso_label
_atom_site_aniso_type_symbol
_atom_site_aniso_beta_11
_atom_site_aniso_beta_22
_atom_site_aniso_beta_33
_atom_site_aniso_beta_12
_atom_site_aniso_beta_13
_atom_site_aniso_beta_23
O1 O2- 0.0219(4) 0.0219(4) 0.0248(6) 0.0109(2) 0 0
O2 O2- 0.0199(3) 0.0199(3) 0.0222(6) 0.0099(2) 0 0
O3 O2- 0.0198(3) 0.0198(3) 0.0089(3) 0.0099(2) 0 0
O4 O2- 0.0134(2) 0.0133(3) 0.0137(2) 0.0048(2) -.0010(2) -.0006(2)
O5 O2- 0.0179(3) 0.0179(3) 0.0135(4) 0.0089(2) 0 0
O6 O2- 0.0162(3) 0.0218(3) 0.0148(2) 0.0072(3) -.0020(2) -.0006(2)
B1 B3+ 0.0120(3) 0.0120(3) 0.0092(4) 0.0060(2) 0 0
Li1 Li1+ 0.0158(7) 0.0158(7) 0.0138(9) 0.0079(4) 0 0
#End of TTdata_79472-ICSD