
#(C) 2018 by FIZ Karlsruhe - Leibniz Institute for Information Infrastructure.  All rights reserved.
data_79715-ICSD
_database_code_ICSD 79715
_audit_creation_date 1996-10-14
_chemical_name_systematic 'Lithium bromate(VII) hydrate'
_chemical_formula_structural 'Li (Br O4) (H2 O)'
_chemical_formula_sum 'H2 Br1 Li1 O5'
_chemical_name_structure_type NaClO4H2O
_exptl_crystal_density_diffrn 2.84
_cell_measurement_temperature 173.
_publ_section_title 'Lithium perbromate monohydrate at 296 and 173K'
loop_
_citation_id
_citation_journal_full
_citation_year
_citation_journal_volume
_citation_page_first
_citation_page_last
_citation_journal_id_ASTM
primary 'Acta Crystallographica, Section C: Crystal Structure Communications'
1995 51 3 7 ACSCEE
loop_
_publ_author_name
'Blackburn, A.C.'
'Gerkin, R.E.'
_cell_length_a 14.551(3)
_cell_length_b 5.504(1)
_cell_length_c 10.641(1)
_cell_angle_alpha 90.
_cell_angle_beta 111.93(1)
_cell_angle_gamma 90.
_cell_volume 790.56
_cell_formula_units_Z 8
_symmetry_space_group_name_H-M 'C 1 2/c 1'
_symmetry_Int_Tables_number 15
_refine_ls_R_factor_all 0.022
loop_
_symmetry_equiv_pos_site_id
_symmetry_equiv_pos_as_xyz
1 'x, -y, z+1/2'
2 '-x, -y, -z'
3 '-x, y, -z+1/2'
4 'x, y, z'
5 'x+1/2, -y+1/2, z+1/2'
6 '-x+1/2, -y+1/2, -z'
7 '-x+1/2, y+1/2, -z+1/2'
8 'x+1/2, y+1/2, z'
loop_
_atom_type_symbol
_atom_type_oxidation_number
Li1+ 1
Br7+ 7
O2- -2
H1+ 1
loop_
_atom_site_label
_atom_site_type_symbol
_atom_site_symmetry_multiplicity
_atom_site_Wyckoff_symbol
_atom_site_fract_x
_atom_site_fract_y
_atom_site_fract_z
_atom_site_B_iso_or_equiv
_atom_site_occupancy
_atom_site_attached_hydrogens
Li1 Li1+ 4 d 0.25 0.25 0.5 . 1. 0
Li2 Li1+ 4 e 0 0.4340(18) 0.25 . 1. 0
Br1 Br7+ 8 f 0.13044(2) 0.95033(7) 0.21015(3) . 1. 0
O1 O2- 8 f 0.1724(2) -.0485(5) 0.3740(2) . 1. 0
O2 O2- 8 f 0.2214(2) -.0509(6) 0.1580(3) . 1. 0
O3 O2- 8 f 0.0633(2) 0.1867(6) 0.1516(3) . 1. 0
O4 O2- 8 f 0.0647(2) 0.7084(5) 0.1575(3) . 1. 0
O5 O2- 8 f 0.3781(2) -.0370(6) 0.0616(3) . 1. 0
H1 H1+ 8 f 0.381(4) -.048(11) 0.005(7) 0.032(19) 1. 0
H2 H1+ 8 f 0.350(4) 0.096(11) 0.060(6) 0.039(18) 1. 0
loop_
_atom_site_aniso_label
_atom_site_aniso_type_symbol
_atom_site_aniso_U_11
_atom_site_aniso_U_22
_atom_site_aniso_U_33
_atom_site_aniso_U_12
_atom_site_aniso_U_13
_atom_site_aniso_U_23
Li1 Li1+ 0.0188(45) 0.0118(46) 0.0169(45) 0.0055(41) 0.0065(36) 0.0012(40)
Li2 Li1+ 0.0184(45) 0.0077(46) 0.0205(47) 0 0.0074(37) 0
Br1 Br7+ 0.00819(20) 0.00675(22) 0.00772(21) -.00025(14) 0.00315(13) -.00044(14)
O1 O2- 0.0173(13) 0.0135(14) 0.0055(12) -.0017(12) 0.00193(97) -.0003(11)
O2 O2- 0.0122(13) 0.0197(16) 0.0191(14) -.0035(12) 0.0118(11) -.0040(12)
O3 O2- 0.0245(15) 0.0143(18) 0.0164(14) 0.0120(12) 0.0039(11) 0.0025(12)
O4 O2- 0.0172(13) 0.0136(18) 0.0139(13) -.0093(11) 0.0055(10) -.0038(11)
O5 O2- 0.0120(13) 0.0138(15) 0.0101(14) 0.0006(12) 0.0044(10) -.0012(13)
#End of TTdata_79715-ICSD