
#(C) 2018 by FIZ Karlsruhe - Leibniz Institute for Information Infrastructure.  All rights reserved.
data_80115-ICSD
_database_code_ICSD 80115
_audit_creation_date 1996-10-14
_chemical_name_systematic 'Cesium lithium phyllo-disilicate (1.3/0.7/1)'
_chemical_formula_structural '(Cs1.333 Li0.667) (Si2 O5)'
_chemical_formula_sum 'Cs1.333 Li0.667 O5 Si2'
_exptl_crystal_density_diffrn 3.62
_cell_measurement_temperature 150.
_publ_section_title 'Cesium-lithium phyllosilicate, Cs1.33 Li0.67 Si2 O5'
loop_
_citation_id
_citation_journal_full
_citation_year
_citation_journal_volume
_citation_page_first
_citation_page_last
_citation_journal_id_ASTM
primary 'Acta Crystallographica, Section C: Crystal Structure Communications'
1995 51 1972 1975 ACSCEE
loop_
_publ_author_name
'Veldman, N.'
'Spek, A.L.'
_cell_length_a 10.9547(9)
_cell_length_b 8.4281(7)
_cell_length_c 18.9620(20)
_cell_angle_alpha 90.
_cell_angle_beta 90.314(7)
_cell_angle_gamma 90.
_cell_volume 1750.68
_cell_formula_units_Z 12
_symmetry_space_group_name_H-M 'P 1 21/m 1'
_symmetry_Int_Tables_number 11
_refine_ls_R_factor_all 0.039
loop_
_symmetry_equiv_pos_site_id
_symmetry_equiv_pos_as_xyz
1 'x, -y+1/2, z'
2 '-x, -y, -z'
3 '-x, y+1/2, -z'
4 'x, y, z'
loop_
_atom_type_symbol
_atom_type_oxidation_number
Si4+ 4
O2- -2
Cs1+ 1
Li1+ 1
loop_
_atom_site_label
_atom_site_type_symbol
_atom_site_symmetry_multiplicity
_atom_site_Wyckoff_symbol
_atom_site_fract_x
_atom_site_fract_y
_atom_site_fract_z
_atom_site_B_iso_or_equiv
_atom_site_occupancy
_atom_site_attached_hydrogens
Si1 Si4+ 4 f 0.24914(12) 0.0591(2) 0.09546(8) . 1. 0
Si2 Si4+ 4 f 0.99527(13) 0.0580(2) 0.16529(8) . 1. 0
Si3 Si4+ 4 f 0.98276(12) 0.0577(2) 0.32905(8) . 1. 0
Si4 Si4+ 4 f 0.74460(12) 0.0598(2) 0.41217(8) . 1. 0
Si5 Si4+ 4 f 0.50511(12) -.0637(2) 0.33536(8) . 1. 0
Si6 Si4+ 4 f 0.48539(13) -.0620(2) 0.16995(8) . 1. 0
O1 O2- 4 f 0.3587(3) 0.0332(5) 0.1533(2) . 1. 0
O2 O2- 4 f 0.2701(3) -.0253(5) 0.0230(2) . 1. 0
O3 O2- 2 e 0.2339(5) 0.25 0.0878(3) . 1. 0
O4 O2- 4 f 0.1270(3) -.0029(5) 0.1362(2) . 1. 0
O5 O2- 2 e 0.0016(5) 0.25 0.1692(3) . 1. 0
O6 O2- 4 f 0.8847(3) -.0064(5) 0.1209(2) . 1. 0
O7 O2- 4 f -.0103(3) -.0043(5) 0.2470(2) . 1. 0
O8 O2- 2 e -.0189(5) 0.25 0.3244(3) . 1. 0
O9 O2- 4 f 0.0905(3) -.0091(5) 0.3744(2) . 1. 0
O10 O2- 4 f 0.8463(3) 0.0015(5) 0.3552(2) . 1. 0
O11 O2- 2 e 0.7625(5) 0.25 0.4215(3) . 1. 0
O12 O2- 4 f 0.7534(3) -.0288(5) 0.4844(2) . 1. 0
O13 O2- 4 f 0.6132(3) 0.0395(5) 0.3723(2) . 1. 0
O14 O2- 2 e 0.5470(5) 0.75 0.3413(3) . 1. 0
O15 O2- 4 f 0.3767(3) -.0271(6) 0.3671(2) . 1. 0
O16 O2- 4 f 0.5156(3) -.0151(5) 0.2524(2) . 1. 0
O17 O2- 2 e 0.4484(5) 0.75 0.1689(3) . 1. 0
O18 O2- 4 f 0.5948(3) -.0185(6) 0.1219(2) . 1. 0
Cs1 Cs1+ 2 e 0.77477(4) 0.75 0.22906(3) . 1. 0
Cs2 Cs1+ 2 e 0.70839(4) 0.25 0.22505(3) . 1. 0
Cs3 Cs1+ 2 e 0.27508(4) 0.25 0.27806(3) . 1. 0
Cs4 Cs1+ 2 e 0.20647(4) 0.75 0.26565(3) . 1. 0
Cs5 Cs1+ 2 e 0.45863(4) 0.25 0.48606(3) . 1. 0
Cs6 Cs1+ 2 e 0.02950(4) 0.25 0.51657(3) . 1. 0
Cs7 Cs1+ 2 e 0.51763(4) 0.25 0.00835(3) . 1. 0
Cs8 Cs1+ 2 e 0.03918(4) 0.75 0.01696(3) . 1. 0
Li1 Li1+ 4 f 0.7397(8) 0.5125(13) 0.0726(5) . 1. 0
Li2 Li1+ 4 f 0.2386(8) 0.5203(13) 0.4195(6) . 1. 0
loop_
_atom_site_aniso_label
_atom_site_aniso_type_symbol
_atom_site_aniso_U_11
_atom_site_aniso_U_22
_atom_site_aniso_U_33
_atom_site_aniso_U_12
_atom_site_aniso_U_13
_atom_site_aniso_U_23
Si1 Si4+ 0.0007(5) 0.0064(6) 0.0053(6) 0.0012(5) 0.0009(4) -.0002(5)
Si2 Si4+ 0.0013(5) 0.0073(7) 0.0037(7) 0.0002(5) 0.0011(5) -.0009(6)
Si3 Si4+ 0.0010(6) 0.0083(7) 0.0043(7) -.0007(5) 0.0015(5) 0.0003(6)
Si4 Si4+ 0.0010(5) 0.0059(6) 0.0036(5) -.0003(5) 0.0005(4) -.0001(5)
Si5 Si4+ 0.0009(5) 0.0097(7) 0.0033(7) -.0004(6) 0.0011(5) 0.0000(6)
Si6 Si4+ 0.0019(6) 0.0093(7) 0.0035(7) 0.0004(6) 0.0012(4) 0.0005(6)
O1 O2- 0.006(2) 0.017(2) 0.012(2) 0.009(2) -.0058(14) -.006(2)
O2 O2- 0.008(2) 0.015(2) 0.010(2) 0.003(2) 0.0017(14) -.001(2)
O3 O2- 0.004(2) 0.008(3) 0.015(3) 0 0.002(2) 0
O4 O2- 0.006(2) 0.009(2) 0.014(2) 0.000(2) 0.0044(14) 0.004(2)
O5 O2- 0.009(2) 0.007(3) 0.017(3) 0 0.007(2) 0
O6 O2- 0.006(2) 0.018(2) 0.013(2) -.003(2) -.0046(14) 0.003(2)
O7 O2- 0.009(2) 0.009(2) 0.007(2) -.001(2) 0.0043(14) -.0007(14)
O8 O2- 0.009(3) 0.011(3) 0.010(3) 0 0.003(2) 0
O9 O2- 0.007(2) 0.019(2) 0.014(2) 0.002(2) -.0033(14) 0.002(2)
O10 O2- 0.0040(14) 0.013(2) 0.012(2) 0.000(2) 0.0049(13) -.003(2)
O11 O2- 0.003(2) 0.008(3) 0.017(3) 0 -.002(2) 0
O12 O2- 0.012(2) 0.014(2) 0.008(2) 0.003(2) -.0008(14) 0.002(2)
O13 O2- 0.003(2) 0.015(2) 0.012(2) -.001(2) -.0028(13) -.005(2)
O14 O2- 0.014(3) 0.009(3) 0.009(3) 0 0.001(2) 0
O15 O2- 0.006(2) 0.021(2) 0.013(2) 0.001(2) 0.0039(14) 0.001(2)
O16 O2- 0.012(2) 0.014(2) 0.002(2) -.004(2) 0.0008(14) 0.0012(14)
O17 O2- 0.018(3) 0.013(3) 0.007(3) 0 0.002(2) 0
O18 O2- 0.006(2) 0.021(2) 0.012(2) -.005(2) 0.0053(14) -.002(2)
Cs1 Cs1+ 0.0031(2) 0.0109(2) 0.0121(3) 0 0.0017(2) 0
Cs2 Cs1+ 0.0046(2) 0.0126(3) 0.0132(3) 0 0.0008(2) 0
Cs3 Cs1+ 0.0068(2) 0.0124(3) 0.0093(3) 0 0.0018(2) 0
Cs4 Cs1+ 0.0039(2) 0.0108(2) 0.0105(3) 0 0.0016(2) 0
Cs5 Cs1+ 0.0080(2) 0.0139(3) 0.0092(3) 0 0.0038(2) 0
Cs6 Cs1+ 0.0060(2) 0.0131(3) 0.0107(3) 0 0.0010(2) 0
Cs7 Cs1+ 0.0058(2) 0.0121(3) 0.0088(3) 0 0.0023(2) 0
Cs8 Cs1+ 0.0086(2) 0.0124(3) 0.0090(3) 0 -.0002(2) 0
Li1 Li1+ 0.004(4) 0.014(5) 0.011(5) -.001(4) 0.002(3) -.005(4)
Li2 Li1+ 0.005(4) 0.019(5) 0.014(5) -.005(4) -.005(3) 0.014(5)
#End of TTdata_80115-ICSD