
#(C) 2018 by FIZ Karlsruhe - Leibniz Institute for Information Infrastructure.  All rights reserved.
data_80629-ICSD
_database_code_ICSD 80629
_audit_creation_date 1997-05-13
_audit_update_record 2000-07-15
_chemical_name_systematic 'Lithium niobium oxide (0.93/0.99/3)'
_chemical_formula_structural '(Li0.934 Nb0.008) (Nb0.984 O3)'
_chemical_formula_sum 'Li0.934 Nb0.992 O3'
_chemical_name_structure_type LiNbO3
_exptl_crystal_density_diffrn 4.59
_publ_section_title

;
Comparative study of defect structures in lithium niobate with different
compositions
;
loop_
_citation_id
_citation_journal_full
_citation_year
_citation_journal_volume
_citation_page_first
_citation_page_last
_citation_journal_id_ASTM
primary 'Journal of Solid State Chemistry' 1992 101 340 352 JSSCBI
loop_
_publ_author_name
'Iyi, N.'
'Kitamura, K.'
'Izumi, F.'
'Yamamoto, J.K.'
'Hayashi, T.'
'Asano, H.'
'Kimura, S.'
_cell_length_a 5.1499(2)
_cell_length_b 5.1499(2)
_cell_length_c 13.8647(4)
_cell_angle_alpha 90.
_cell_angle_beta 90.
_cell_angle_gamma 120.
_cell_volume 318.45
_cell_formula_units_Z 6
_symmetry_space_group_name_H-M 'R 3 c H'
_symmetry_Int_Tables_number 161
_refine_ls_R_factor_all 0.0076
loop_
_symmetry_equiv_pos_site_id
_symmetry_equiv_pos_as_xyz
1 '-x+y, y, z+1/2'
2 'x, x-y, z+1/2'
3 '-y, -x, z+1/2'
4 '-x+y, -x, z'
5 '-y, x-y, z'
6 'x, y, z'
7 '-x+y+2/3, y+1/3, z+5/6'
8 'x+2/3, x-y+1/3, z+5/6'
9 '-y+2/3, -x+1/3, z+5/6'
10 '-x+y+2/3, -x+1/3, z+1/3'
11 '-y+2/3, x-y+1/3, z+1/3'
12 'x+2/3, y+1/3, z+1/3'
13 '-x+y+1/3, y+2/3, z+1/6'
14 'x+1/3, x-y+2/3, z+1/6'
15 '-y+1/3, -x+2/3, z+1/6'
16 '-x+y+1/3, -x+2/3, z+2/3'
17 '-y+1/3, x-y+2/3, z+2/3'
18 'x+1/3, y+2/3, z+2/3'
loop_
_atom_type_symbol
_atom_type_oxidation_number
Li1+ 1
Nb5+ 5
O1- -1.965
loop_
_atom_site_label
_atom_site_type_symbol
_atom_site_symmetry_multiplicity
_atom_site_Wyckoff_symbol
_atom_site_fract_x
_atom_site_fract_y
_atom_site_fract_z
_atom_site_B_iso_or_equiv
_atom_site_occupancy
_atom_site_attached_hydrogens
Li1 Li1+ 6 a 0 0 0.2795(4) . 0.934(4) 0
Nb1 Nb5+ 6 a 0 0 0.2795(4) . 0.008(2) 0
Nb2 Nb5+ 6 a 0 0 0 . 0.984(3) 0
O1 O1- 18 b 0.04818(11) 0.3431(2) 0.0627(2) . 1. 0
loop_
_atom_site_aniso_label
_atom_site_aniso_type_symbol
_atom_site_aniso_U_11
_atom_site_aniso_U_22
_atom_site_aniso_U_33
_atom_site_aniso_U_12
_atom_site_aniso_U_13
_atom_site_aniso_U_23
Li1 Li1+ 0.0110(16) 0.0110(16) 0.0149(15) 0.00550(81) 0 0
Nb1 Nb5+ 0.0110(16) 0.0110(16) 0.0149(15) 0.00550(81) 0 0
Nb2 Nb5+ 0.00605(14) 0.00605(14) 0.00387(12) 0.00302(7) 0 0
O1 O1- 0.00791(13) 0.00611(12) 0.00775(8) 0.00350(12) -.00137(12) -.00244(9)
#End of TTdata_80629-ICSD