
#(C) 2018 by FIZ Karlsruhe - Leibniz Institute for Information Infrastructure.  All rights reserved.
data_80632-ICSD
_database_code_ICSD 80632
_audit_creation_date 1997-05-13
_audit_update_record 2000-07-15
_chemical_name_systematic 'Lithium niobium oxide (0.95/1.01/3)'
_chemical_formula_structural '(Li0.951 Nb0.0098) (Nb O3)'
_chemical_formula_sum 'Li0.951 Nb1.0098 O3'
_chemical_name_structure_type LiNbO3
_exptl_crystal_density_diffrn 4.64
_publ_section_title

;
Comparative study of defect structures in lithium niobate with different
compositions
;
loop_
_citation_id
_citation_journal_full
_citation_year
_citation_journal_volume
_citation_page_first
_citation_page_last
_citation_journal_id_ASTM
primary 'Journal of Solid State Chemistry' 1992 101 340 352 JSSCBI
loop_
_publ_author_name
'Iyi, N.'
'Kitamura, K.'
'Izumi, F.'
'Yamamoto, J.K.'
'Hayashi, T.'
'Asano, H.'
'Kimura, S.'
_cell_length_a 5.1499(1)
_cell_length_b 5.1499(1)
_cell_length_c 13.8647(4)
_cell_angle_alpha 90.
_cell_angle_beta 90.
_cell_angle_gamma 120.
_cell_volume 318.45
_cell_formula_units_Z 6
_symmetry_space_group_name_H-M 'R 3 c H'
_symmetry_Int_Tables_number 161
_refine_ls_R_factor_all 0.0382
loop_
_symmetry_equiv_pos_site_id
_symmetry_equiv_pos_as_xyz
1 '-x+y, y, z+1/2'
2 'x, x-y, z+1/2'
3 '-y, -x, z+1/2'
4 '-x+y, -x, z'
5 '-y, x-y, z'
6 'x, y, z'
7 '-x+y+2/3, y+1/3, z+5/6'
8 'x+2/3, x-y+1/3, z+5/6'
9 '-y+2/3, -x+1/3, z+5/6'
10 '-x+y+2/3, -x+1/3, z+1/3'
11 '-y+2/3, x-y+1/3, z+1/3'
12 'x+2/3, y+1/3, z+1/3'
13 '-x+y+1/3, y+2/3, z+1/6'
14 'x+1/3, x-y+2/3, z+1/6'
15 '-y+1/3, -x+2/3, z+1/6'
16 '-x+y+1/3, -x+2/3, z+2/3'
17 '-y+1/3, x-y+2/3, z+2/3'
18 'x+1/3, y+2/3, z+2/3'
loop_
_atom_type_symbol
_atom_type_oxidation_number
Li1+ 1
Nb5+ 5
O2- -2
loop_
_atom_site_label
_atom_site_type_symbol
_atom_site_symmetry_multiplicity
_atom_site_Wyckoff_symbol
_atom_site_fract_x
_atom_site_fract_y
_atom_site_fract_z
_atom_site_B_iso_or_equiv
_atom_site_occupancy
_atom_site_attached_hydrogens
Li1 Li1+ 6 a 0 0 0.2809(4) 1.06 0.951 0
Nb1 Nb5+ 6 a 0 0 0.2809(4) 1.06 0.0098 0
Nb2 Nb5+ 6 a 0 0 0 0.424 1. 0
O1 O2- 18 b 0.0481(4) 0.3433(6) 0.0638(2) 0.547 1. 0
#End of TTdata_80632-ICSD