
#(C) 2018 by FIZ Karlsruhe - Leibniz Institute for Information Infrastructure.  All rights reserved.
data_81041-ICSD
_database_code_ICSD 81041
_audit_creation_date 1997-05-13
_chemical_name_systematic 'Trilithium dinickel niobate'
_chemical_formula_structural 'Li3 Ni2 (Nb O6)'
_chemical_formula_sum 'Li3 Nb1 Ni2 O6'
_chemical_name_structure_type Li3Ni2TaO6
_exptl_crystal_density_diffrn 4.95
_publ_section_title

;
Synthesis and structures of the partially ordered rock salt phases,Li3 M2 X
O6: M =Mg, Co, Ni; X = Nb, Ta, Sb
;
loop_
_citation_id
_citation_journal_full
_citation_year
_citation_journal_volume
_citation_page_first
_citation_page_last
_citation_journal_id_ASTM
primary 'Journal of Materials Chemistry' 1995 5 1177 1182 JMACEP
loop_
_publ_author_name
'Mather, G.C.'
'Smith, R.I.'
'Skakle, J.M.S.'
'Fletcher, J.G.'
'Castellanos, M.A.R.'
'Gutierrez, M.P.'
'West, A.R.'
_cell_length_a 5.89621(1)
_cell_length_b 8.39304(4)
_cell_length_c 17.73869(10)
_cell_angle_alpha 90.
_cell_angle_beta 90.
_cell_angle_gamma 90.
_cell_volume 877.84
_cell_formula_units_Z 8
_symmetry_space_group_name_H-M 'F d d d Z'
_symmetry_Int_Tables_number 70
_refine_ls_R_factor_all 0.004
loop_
_symmetry_equiv_pos_site_id
_symmetry_equiv_pos_as_xyz
1 'x+3/4, y+3/4, -z'
2 'x+3/4, -y, z+3/4'
3 '-x, y+3/4, z+3/4'
4 '-x, -y, -z'
5 '-x+1/4, -y+1/4, z'
6 '-x+1/4, y, -z+1/4'
7 'x, -y+1/4, -z+1/4'
8 'x, y, z'
9 'x+3/4, y+1/4, -z+1/2'
10 'x+3/4, -y+1/2, z+1/4'
11 '-x, y+1/4, z+1/4'
12 '-x, -y+1/2, -z+1/2'
13 '-x+1/4, -y+3/4, z+1/2'
14 '-x+1/4, y+1/2, -z+3/4'
15 'x, -y+3/4, -z+3/4'
16 'x, y+1/2, z+1/2'
17 'x+1/4, y+3/4, -z+1/2'
18 'x+1/4, -y, z+1/4'
19 '-x+1/2, y+3/4, z+1/4'
20 '-x+1/2, -y, -z+1/2'
21 '-x+3/4, -y+1/4, z+1/2'
22 '-x+3/4, y, -z+3/4'
23 'x+1/2, -y+1/4, -z+3/4'
24 'x+1/2, y, z+1/2'
25 'x+1/4, y+1/4, -z'
26 'x+1/4, -y+1/2, z+3/4'
27 '-x+1/2, y+1/4, z+3/4'
28 '-x+1/2, -y+1/2, -z'
29 '-x+3/4, -y+3/4, z'
30 '-x+3/4, y+1/2, -z+1/4'
31 'x+1/2, -y+3/4, -z+1/4'
32 'x+1/2, y+1/2, z'
loop_
_atom_type_symbol
_atom_type_oxidation_number
Nb5+ 5
Li1+ 1
Ni2+ 2
Li1+ 1
Ni2+ 2
Li1+ 1
Ni2+ 2
O2- -2
loop_
_atom_site_label
_atom_site_type_symbol
_atom_site_symmetry_multiplicity
_atom_site_Wyckoff_symbol
_atom_site_fract_x
_atom_site_fract_y
_atom_site_fract_z
_atom_site_B_iso_or_equiv
_atom_site_occupancy
_atom_site_attached_hydrogens
Nb1 Nb5+ 8 a 0.125 0.125 0.125 0.0072(9) 1. 0
Li1 Li1+ 16 g 0.125 0.125 0.2930(4) 0.0039(4) 0.583(5) 0
Ni1 Ni2+ 16 g 0.125 0.125 0.2930(4) 0.0039(4) 0.417(5) 0
Li2 Li1+ 16 g 0.125 0.625 0.2881(4) 0.0039(4) 0.598(7) 0
Ni2 Ni2+ 16 g 0.125 0.625 0.2881(4) 0.0039(4) 0.402(7) 0
Li3 Li1+ 8 b 0.125 0.625 0.125 0.0039(4) 0.64(1) 0
Ni3 Ni2+ 8 b 0.125 0.625 0.125 0.0039(4) 0.36(1) 0
O1 O2- 16 f 0.125 0.3647(5) 0.125 0.0046(1) 1. 0
O2 O2- 32 h 0.1212(5) 0.3760(3) 0.2941(2) 0.0046(1) 1. 0
#End of TTdata_81041-ICSD