
#(C) 2017 by FIZ Karlsruhe - Leibniz Institute for Information Infrastructure.  All rights reserved.
data_8106-ICSD
_database_code_ICSD 8106
_audit_creation_date 1980-01-01
_audit_update_record 2012-08-01
_chemical_name_systematic 'Trilithium pentathorium 22-fluoride hydroxide'
_chemical_formula_structural 'Li3 Th5 F22 O H'
_chemical_formula_sum 'H1 F22 Li3 O1 Th5'
_exptl_crystal_density_diffrn 6.57
_publ_section_title 'Crystal structure of Li2 Th5 F22 Li O H'
loop_
_citation_id
_citation_journal_full
_citation_year
_citation_journal_volume
_citation_page_first
_citation_page_last
_citation_journal_id_ASTM
primary 'Acta Crystallographica B (24,1968-38,1982)' 1979 35 1564 1566 ACBCAR
loop_
_publ_author_name
'Cousson, A.'
'Pages, M.'
'Chevalier, R.'
_cell_length_a 11.307
_cell_length_b 11.307
_cell_length_c 6.390(2)
_cell_angle_alpha 90.
_cell_angle_beta 90.
_cell_angle_gamma 90.
_cell_volume 816.95
_cell_formula_units_Z 2
_symmetry_space_group_name_H-M 'P 4 21 2'
_symmetry_Int_Tables_number 90
_refine_ls_R_factor_all 0.032
loop_
_symmetry_equiv_pos_site_id
_symmetry_equiv_pos_as_xyz
1 '-y+1/2, x+1/2, z'
2 'y+1/2, -x+1/2, z'
3 '-y, -x, -z'
4 'y, x, -z'
5 'x+1/2, -y+1/2, -z'
6 '-x+1/2, y+1/2, -z'
7 '-x, -y, z'
8 'x, y, z'
loop_
_atom_type_symbol
_atom_type_oxidation_number
Li1+ 1
Th4+ 4
F1- -1
O2- -2
H1+ 1
Li1+ 1
loop_
_atom_site_label
_atom_site_type_symbol
_atom_site_symmetry_multiplicity
_atom_site_Wyckoff_symbol
_atom_site_fract_x
_atom_site_fract_y
_atom_site_fract_z
_atom_site_B_iso_or_equiv
_atom_site_occupancy
_atom_site_attached_hydrogens
Li1 Li1+ 4 d 0 0 0.242(45) 5.6 1. 0
Th1 Th4+ 4 f 0.1434(2) 0.1434(2) 0.5 . 1. 0
Th2 Th4+ 4 e 0.3552(2) 0.3552(2) 0 . 1. 0
Th3 Th4+ 2 c 0 0.5 0.2754(4) . 1. 0
F1 F1- 8 g 0.153(3) 0.408(2) 0.052(3) . 1. 0
F2 F1- 8 g 0.325(3) 0.506(4) 0.251(3) . 1. 0
F3 F1- 8 g 0.198(2) -.009(4) 0.248(3) . 1. 0
F4 F1- 8 g 0.084(3) 0.355(3) 0.448(3) . 1. 0
F5 F1- 8 g 0.265(3) 0.234(4) 0.239(3) . 1. 0
F6 F1- 2 a 0 0 0 . 1. 0
F7 F1- 2 b 0 0 0.5 . 1. 0
O1 O2- 2 c 0 0.5 -.297(5) . 1. 0
loop_
_atom_site_aniso_label
_atom_site_aniso_type_symbol
_atom_site_aniso_U_11
_atom_site_aniso_U_22
_atom_site_aniso_U_33
_atom_site_aniso_U_12
_atom_site_aniso_U_13
_atom_site_aniso_U_23
Th1 Th4+ 0.0011(2) 0.0011(2) 0.0030(3) -.0001(1) -.0003(2) 0.0003(2)
Th2 Th4+ 0.0005(1) 0.0005(1) 0.0026(3) 0.0000(1) -.0003(1) 0.0003(1)
Th3 Th4+ 0.0007(1) 0.0007(1) 0.0054(5) 0 0 0
F1 F1- 0.0027(33) 0.0019(20) 0.0130(46) 0.0006(12) 0.0008(14) -.0008(13)
F2 F1- 0.0057(15) 0.0059(16) 0.0103(57) 0.0015(19) -.0003(20) -.0022(20)
F3 F1- 0.0025(13) 0.0036(16) 0.0132(51) -.0006(11) 0.0002(17) -.0023(17)
F4 F1- 0.0033(20) 0.0023(23) 0.0145(46) -.0006(11) 0.0027(12) -.0005(13)
F5 F1- 0.0021(29) 0.0052(42) 0.0081(28) -.0005(5) 0.0007(10) 0.0009(12)
F6 F1- 0.0028(27) 0.0028(27) 0.0161(89) 0.0014(27) 0 0
F7 F1- 0.0081(55) 0.0081(55) 0.0071(67) -.0027(33) 0 0
O1 O2- 0.0188(50) 0.0188(50) 0.011(22) 0 0 0
#End of TTdata_8106-ICSD