
#(C) 2018 by FIZ Karlsruhe - Leibniz Institute for Information Infrastructure.  All rights reserved.
data_81244-ICSD
_database_code_ICSD 81244
_audit_creation_date 1997-11-05
_chemical_name_systematic 'Lithium niobium oxide (0.9/0.99/3) - LT'
_chemical_formula_structural 'Li0.9 Nb0.99 O3'
_chemical_formula_sum 'Li0.9 Nb0.99 O3'
_chemical_name_structure_type LiNbO3(disordered)
_exptl_crystal_density_diffrn 4.37
_cell_measurement_temperature 1350.
_publ_section_title

;
A neutron powder investigation of the high-temperature structure and phase
transition in Li Nb O3
;
loop_
_citation_id
_citation_journal_full
_citation_year
_citation_journal_volume
_citation_page_first
_citation_page_last
_citation_journal_id_ASTM
primary 'Acta Crystallographica, Section B: Structural Science' 1994 50 405 414
ASBSDK
loop_
_publ_author_name
'Boysen, H.'
'Altorfer, F.'
_cell_length_a 5.2719(8)
_cell_length_b 5.2719(8)
_cell_length_c 13.8601(8)
_cell_angle_alpha 90.
_cell_angle_beta 90.
_cell_angle_gamma 120.
_cell_volume 333.6
_cell_formula_units_Z 6
_symmetry_space_group_name_H-M 'R 3 c H'
_symmetry_Int_Tables_number 161
_refine_ls_R_factor_all 0.042
loop_
_symmetry_equiv_pos_site_id
_symmetry_equiv_pos_as_xyz
1 '-x+y, y, z+1/2'
2 'x, x-y, z+1/2'
3 '-y, -x, z+1/2'
4 '-x+y, -x, z'
5 '-y, x-y, z'
6 'x, y, z'
7 '-x+y+2/3, y+1/3, z+5/6'
8 'x+2/3, x-y+1/3, z+5/6'
9 '-y+2/3, -x+1/3, z+5/6'
10 '-x+y+2/3, -x+1/3, z+1/3'
11 '-y+2/3, x-y+1/3, z+1/3'
12 'x+2/3, y+1/3, z+1/3'
13 '-x+y+1/3, y+2/3, z+1/6'
14 'x+1/3, x-y+2/3, z+1/6'
15 '-y+1/3, -x+2/3, z+1/6'
16 '-x+y+1/3, -x+2/3, z+2/3'
17 '-y+1/3, x-y+2/3, z+2/3'
18 'x+1/3, y+2/3, z+2/3'
loop_
_atom_type_symbol
_atom_type_oxidation_number
Li1+ 1
Nb5+ 5
O1- -1.95
loop_
_atom_site_label
_atom_site_type_symbol
_atom_site_symmetry_multiplicity
_atom_site_Wyckoff_symbol
_atom_site_fract_x
_atom_site_fract_y
_atom_site_fract_z
_atom_site_B_iso_or_equiv
_atom_site_occupancy
_atom_site_attached_hydrogens
Li1 Li1+ 6 a 0 0 0.2762(13) . 0.33(7) 0
Li2 Li1+ 6 a 0 0 0.2238(13) . 0.57(7) 0
Nb1 Nb5+ 6 a 0 0 0.0093(7) . 0.99(1) 0
O1 O1- 18 b 0.0569(9) 0.3297(15) 0.0833 . 1. 0
loop_
_atom_site_aniso_label
_atom_site_aniso_type_symbol
_atom_site_aniso_beta_11
_atom_site_aniso_beta_22
_atom_site_aniso_beta_33
_atom_site_aniso_beta_12
_atom_site_aniso_beta_13
_atom_site_aniso_beta_23
Li1 Li1+ 0.070(9) 0.070(9) 0.002(1) 0.035(4) 0 0
Li2 Li1+ 0.070(9) 0.070(9) 0.002(1) 0.035(4) 0 0
Nb1 Nb5+ 0.018(1) 0.018(1) 0.0019(2) 0.009(1) 0 0
O1 O1- 0.036(5) 0.022(1) 0.0034(2) 0.018(4) -.002(1) -.0047(3)
#End of TTdata_81244-ICSD