
#(C) 2018 by FIZ Karlsruhe - Leibniz Institute for Information Infrastructure.  All rights reserved.
data_81336-ICSD
_database_code_ICSD 81336
_audit_creation_date 1997-11-05
_audit_update_record 2005-10-01
_chemical_name_systematic
'Potassium lithium ditantalophosphate(V) (0.67/0.33/1)'
_chemical_formula_structural 'K0.667 Li0.333 (Ta2 P O8)'
_chemical_formula_sum 'K0.667 Li0.333 O8 P1 Ta2'
_chemical_name_structure_type (K,Li)Nb2PO8
_exptl_crystal_density_diffrn 5.23
_cell_measurement_temperature 302.
_publ_section_title

;
Microporous, noncentrosymmetric, octahedral/tetrahedral-framework phases: K2/3
Li1/3 Nb2 P O8, K2/3 Li1/3 Ta2 P O8 and K2/3 Ag1/3 Nb2P O8
;
loop_
_citation_id
_citation_journal_full
_citation_year
_citation_journal_volume
_citation_page_first
_citation_page_last
_citation_journal_id_ASTM
primary 'Zeitschrift fuer Kristallographie (1979-2010)' 1994 209 781 788 ZEKRDZ
loop_
_publ_author_name
'Harrison, W.T.A.'
'Liang, C.S.'
'Stucky, G.D.'
'Nicol, J.M.'
_cell_length_a 8.3791(2)
_cell_length_b 8.3791(2)
_cell_length_c 8.3791(2)
_cell_angle_alpha 104.141(1)
_cell_angle_beta 104.141(1)
_cell_angle_gamma 104.141(1)
_cell_volume 523.47
_cell_formula_units_Z 3
_symmetry_space_group_name_H-M 'R 3 2 R'
_symmetry_Int_Tables_number 155
_refine_ls_R_factor_all 0.041
loop_
_symmetry_equiv_pos_site_id
_symmetry_equiv_pos_as_xyz
1 '-z, -y, -x'
2 'z, x, y'
3 '-x, -z, -y'
4 'y, z, x'
5 '-y, -x, -z'
6 'x, y, z'
loop_
_atom_type_symbol
_atom_type_oxidation_number
K1+ 1
Li1+ 1
Ta5+ 5
P5+ 5
O2- -2
loop_
_atom_site_label
_atom_site_type_symbol
_atom_site_symmetry_multiplicity
_atom_site_Wyckoff_symbol
_atom_site_fract_x
_atom_site_fract_y
_atom_site_fract_z
_atom_site_B_iso_or_equiv
_atom_site_occupancy
_atom_site_attached_hydrogens
K1 K1+ 6 f 0.399(2) 0.702(3) 0.086(2) 0.099(1) 0.333 0
Li1 Li1+ 2 c 0.434(3) 0.434(3) 0.434(3) 0.065(1) 0.5 0
Ta1 Ta5+ 6 f 0.9669(2) 0.8420(2) 0.6497(2) 0.007(1) 1. 0
P1 P5+ 3 e 0.7247(2) 0.5 0.2753(2) 0.007(1) 1. 0
O1 O2- 6 f 0.7598(2) 0.6393(2) 0.4483(2) 0.012(1) 1. 0
O2 O2- 6 f 0.7919(2) 0.9329(2) 0.6851(2) 0.009(1) 1. 0
O3 O2- 6 f 0.1304(2) 0.7079(2) 0.5815(2) 0.011(1) 1. 0
O4 O2- 3 e 0.0267(2) -.0267(2) 0.5 0.011(1) 1. 0
O5 O2- 3 d 0.1530(2) 0 0.8470(2) 0.013(1) 1. 0
#End of TTdata_81336-ICSD