
#(C) 2018 by FIZ Karlsruhe - Leibniz Institute for Information Infrastructure.  All rights reserved.
data_8243-ICSD
_database_code_ICSD 8243
_audit_creation_date 1980-01-01
_audit_update_record 2005-10-01
_chemical_name_systematic 'Lithium trihydrogen bis(selenate(IV))'
_chemical_formula_structural 'Li H3 (Se O3)2'
_chemical_formula_sum 'H3 Li1 O6 Se2'
_chemical_name_structure_type LiH3(SeO3)2
_exptl_crystal_density_diffrn 3.39
_publ_section_title
'Absolute atomic arrangement of ferroelectric lithium trihydrogendiselenite'
loop_
_citation_id
_citation_journal_full
_citation_year
_citation_journal_volume
_citation_page_first
_citation_page_last
_citation_journal_id_ASTM
primary

;
Acta Crystallographica, Section B: Structural Crystallography and Crystal
Chemistry
; 1979 35 2692 2695 ACBCAR
loop_
_publ_author_name
'Chomnilpan, A.'
'Liminga, R.'
'Tellgren, R.'
_cell_length_a 6.2554(3)
_cell_length_b 7.8823(5)
_cell_length_c 5.4339(5)
_cell_angle_alpha 90.
_cell_angle_beta 105.325(5)
_cell_angle_gamma 90.
_cell_volume 258.4
_cell_formula_units_Z 2
_symmetry_space_group_name_H-M 'P 1 n 1'
_symmetry_Int_Tables_number 7
_refine_ls_R_factor_all 0.0265
loop_
_symmetry_equiv_pos_site_id
_symmetry_equiv_pos_as_xyz
1 'x+1/2, -y, z+1/2'
2 'x, y, z'
loop_
_atom_type_symbol
_atom_type_oxidation_number
Se4+ 4
O2- -2
Li1+ 1
H1+ 1
loop_
_atom_site_label
_atom_site_type_symbol
_atom_site_symmetry_multiplicity
_atom_site_Wyckoff_symbol
_atom_site_fract_x
_atom_site_fract_y
_atom_site_fract_z
_atom_site_B_iso_or_equiv
_atom_site_occupancy
_atom_site_attached_hydrogens
Se1 Se4+ 2 a 0.267 0.39508(16) 0.412 . 1. 0
Se2 Se4+ 2 a 0.73288(17) 0.10069(15) 0.58909(19) . 1. 0
O1 O2- 2 a 0.30689(35) 0.22793(22) 0.63312(35) . 1. 0
O2 O2- 2 a 0.70152(34) 0.27426(21) 0.39822(35) . 1. 0
O3 O2- 2 a 0.19762(36) 0.29062(23) 0.13821(36) . 1. 0
O4 O2- 2 a 0.78973(37) 0.20126(23) 0.88927(35) . 1. 0
O5 O2- 2 a 0.01903(35) 0.47579(24) 0.44549(34) . 1. 0
O6 O2- 2 a 0.97983(32) 0.02481(22) 0.58330(33) . 1. 0
Li1 Li1+ 2 a 0.4906(12) 0.2495(11) 0.0204(11) . 1. 0
H1 H1+ 2 a 0.1809(7) 0.14571(44) 0.59946(59) . 1. 0
H2 H1+ 2 a 0.87977(83) 0.38014(53) 0.42774(66) . 1. 0
H3 H1+ 2 a 0.94842(50) 0.23056(35) 0.97213(55) . 1. 0
loop_
_atom_site_aniso_label
_atom_site_aniso_type_symbol
_atom_site_aniso_beta_11
_atom_site_aniso_beta_22
_atom_site_aniso_beta_33
_atom_site_aniso_beta_12
_atom_site_aniso_beta_13
_atom_site_aniso_beta_23
Se1 Se4+ 0.00697(28) 0.00367(17) 0.00851(27) -.00032(17) 0.00153(21) -.00065(18)
Se2 Se4+ 0.00563(28) 0.00359(17) 0.01019(30) -.00040(17) 0.00165(22) -.00009(18)
O1 O2- 0.00992(40) 0.00535(25) 0.01057(42) 0.00018(30) 0.00127(35) 0.00198(29)
O2 O2- 0.00923(42) 0.00475(25) 0.01191(45) -.00016(27) 0.00082(36) 0.00179(29)
O3 O2- 0.00923(47) 0.00732(27) 0.00952(42) -.00052(27) 0.00202(36) -.00227(29)
O4 O2- 0.00802(50) 0.00879(28) 0.01073(44) -.00031(28) 0.00282(39) -.00277(31)
O5 O2- 0.00886(46) 0.00536(26) 0.01678(60) 0.00166(29) 0.00466(44) -.00038(29)
O6 O2- 0.00807(45) 0.00443(24) 0.01553(54) 0.00098(27) 0.00349(42) -.00002(29)
Li1 Li1+ 0.00670(92) 0.00575(49) 0.00664(108) -.00053(55) 0.00328(81)
-.00069(59)
H1 H1+ 0.02180(94) 0.00929(47) 0.01845(87) 0.00266(55) 0.00495(71) 0.00152(49)
H2 H1+ 0.02981(130) 0.01589(66) 0.01924(98) 0.01334(83) 0.00687(83) 0.00292(64)
H3 H1+ 0.01407(86) 0.01053(44) 0.02025(90) 0.00055(49) 0.00200(69) -.00223(49)
#End of TTdata_8243-ICSD