
#(C) 2018 by FIZ Karlsruhe - Leibniz Institute for Information Infrastructure.  All rights reserved.
data_82608-ICSD
_database_code_ICSD 82608
_audit_creation_date 1997-11-10
_chemical_name_systematic 'Dilithium zinc trititanium oxide'
_chemical_formula_structural 'Li2 Zn Ti3 O8'
_chemical_formula_sum 'Li2 O8 Ti3 Zn1'
_chemical_name_structure_type Spinel-LiFe5O8
_exptl_crystal_density_diffrn 3.97
_publ_section_title

;
Stoichiometry, structures and polymorphism of spinel-like phases, Li1.33x
Zn2-2x Ti1+0.67x O4
;
loop_
_citation_id
_citation_journal_full
_citation_year
_citation_journal_volume
_citation_page_first
_citation_page_last
_citation_journal_id_ASTM
primary 'Journal of Materials Chemistry' 1996 6 1533 1536 JMACEP
loop_
_publ_author_name
'Hernandez, V.S.'
'Martinez, L.M.T.'
'Mather, G.C.'
'West, A.R.'
_cell_length_a 8.3710(2)
_cell_length_b 8.3710(2)
_cell_length_c 8.3710(2)
_cell_angle_alpha 90.
_cell_angle_beta 90.
_cell_angle_gamma 90.
_cell_volume 586.59
_cell_formula_units_Z 4
_symmetry_space_group_name_H-M 'P 43 3 2'
_symmetry_Int_Tables_number 212
_refine_ls_R_factor_all 0.025
loop_
_symmetry_equiv_pos_site_id
_symmetry_equiv_pos_as_xyz
1 'z+1/4, y+3/4, -x+3/4'
2 '-z+3/4, y+1/4, x+3/4'
3 'y+1/4, x+3/4, -z+3/4'
4 '-y+3/4, x+1/4, z+3/4'
5 'x+1/4, z+3/4, -y+3/4'
6 '-x+3/4, z+1/4, y+3/4'
7 'z+3/4, -y+3/4, x+1/4'
8 '-z+1/4, -y+1/4, -x+1/4'
9 'y+3/4, -x+3/4, z+1/4'
10 '-y+1/4, -x+1/4, -z+1/4'
11 'x+3/4, -z+3/4, y+1/4'
12 '-x+1/4, -z+1/4, -y+1/4'
13 '-y+1/2, -z, x+1/2'
14 '-y, z+1/2, -x+1/2'
15 'y+1/2, -z+1/2, -x'
16 'y, z, x'
17 'z+1/2, -x+1/2, -y'
18 '-z+1/2, -x, y+1/2'
19 '-z, x+1/2, -y+1/2'
20 'z, x, y'
21 '-x+1/2, -y, z+1/2'
22 '-x, y+1/2, -z+1/2'
23 'x+1/2, -y+1/2, -z'
24 'x, y, z'
loop_
_atom_type_symbol
_atom_type_oxidation_number
Li1+ 1
Zn2+ 2
Li1+ 1
Ti4+ 4
O2- -2
loop_
_atom_site_label
_atom_site_type_symbol
_atom_site_symmetry_multiplicity
_atom_site_Wyckoff_symbol
_atom_site_fract_x
_atom_site_fract_y
_atom_site_fract_z
_atom_site_B_iso_or_equiv
_atom_site_occupancy
_atom_site_attached_hydrogens
Li1 Li1+ 8 c -.0016(6) -.0016(6) -.0016(6) 0.013(1) 0.5 0
Zn1 Zn2+ 8 c -.0016(6) -.0016(6) -.0016(6) 0.013(1) 0.5 0
Li2 Li1+ 4 b 0.625 0.625 0.625 0.01(1) 1. 0
Ti1 Ti4+ 12 d 0.3677(4) 0.8823(4) 0.125 0.012(1) 1. 0
O1 O2- 24 e 0.105(2) 0.128(1) 0.392(1) 0.013(3) 1. 0
O2 O2- 8 c 0.392(2) 0.392(2) 0.392(2) 0.007(6) 1. 0
#End of TTdata_82608-ICSD