
#(C) 2018 by FIZ Karlsruhe - Leibniz Institute for Information Infrastructure.  All rights reserved.
data_82891-ICSD
_database_code_ICSD 82891
_audit_creation_date 1998-06-26
_chemical_name_systematic
'Lithium molybdenum tungsten oxide phosphate (0.5/1/1/3/2)'
_chemical_formula_structural 'Li0.5 Mo W O3 (P O4)2'
_chemical_formula_sum 'Li0.5 Mo1 O11 P2 W1'
_exptl_crystal_density_diffrn 4.42
_publ_section_title

;
Nonstoichiometry in the Li Mo2 (P O4)3 structure: the molybdenotungsten
monophosphate Li0.5 Mo W O3 (P O4)2
;
loop_
_citation_id
_citation_journal_full
_citation_year
_citation_journal_volume
_citation_page_first
_citation_page_last
_citation_journal_id_ASTM
primary 'Materials Research Bulletin' 1996 31 1257 1262 MRBUAC
loop_
_publ_author_name
'Leclaire, A.'
'Borel, M.M.'
'Chardon, J.'
'Raveau, B.'
_cell_length_a 7.735(1)
_cell_length_b 12.655(1)
_cell_length_c 8.324(1)
_cell_angle_alpha 90.
_cell_angle_beta 105.97(1)
_cell_angle_gamma 90.
_cell_volume 783.36
_cell_formula_units_Z 4
_symmetry_space_group_name_H-M 'P 1 21/m 1'
_symmetry_Int_Tables_number 11
_refine_ls_R_factor_all 0.033
loop_
_symmetry_equiv_pos_site_id
_symmetry_equiv_pos_as_xyz
1 'x, -y+1/2, z'
2 '-x, -y, -z'
3 '-x, y+1/2, -z'
4 'x, y, z'
loop_
_atom_type_symbol
_atom_type_oxidation_number
W6+ 6
Mo5+ 5.5
W6+ 6
Mo5+ 5.5
W6+ 6
Mo5+ 5.5
P5+ 5
Li1+ 1
O2- -2
loop_
_atom_site_label
_atom_site_type_symbol
_atom_site_symmetry_multiplicity
_atom_site_Wyckoff_symbol
_atom_site_fract_x
_atom_site_fract_y
_atom_site_fract_z
_atom_site_B_iso_or_equiv
_atom_site_occupancy
_atom_site_attached_hydrogens
W1 W6+ 4 f 0.27080(7) 0.50078(8) 0.34735(6) 0.70(1) 0.572(8) 0
Mo1 Mo5+ 4 f 0.27080(7) 0.50078(8) 0.34735(6) 0.70(1) 0.428(8) 0
W2 W6+ 2 e 0.7309(1) 0.25 0.1745(1) 0.70(1) 0.497(9) 0
Mo2 Mo5+ 2 e 0.7309(1) 0.25 0.1745(1) 0.70(1) 0.503(9) 0
W3 W6+ 2 e 0.6865(1) 0.75 0.1698(1) 0.95(3) 0.360(9) 0
Mo3 Mo5+ 2 e 0.6865(1) 0.75 0.1698(1) 0.95(3) 0.640(9) 0
P1 P5+ 2 e 0.3207(5) 0.25 0.2501(2) 1.0(1) 1. 0
P2 P5+ 4 f 0.8160(3) 0.5064(3) 0.2609(3) 0.8(1) 1. 0
P3 P5+ 2 e 0.1395(5) 0.75 0.4091(5) 0.9(1) 1. 0
Li1 Li1+ 2 b 0.5 0.5 0 2.7(6) 1. 0
O1 O2- 4 f 0.3371(9) 0.5162(7) 0.1713(9) 1.6(2) 1. 0
O2 O2- 2 d 0.5 0.5 0.5 1.3(3) 1. 0
O3 O2- 4 f 0.2447(9) 0.6531(7) 0.384(1) 1.4(3) 1. 0
O4 O2- 4 f 0.250(1) 0.3478(8) 0.329(1) 1.6(3) 1. 0
O5 O2- 4 f 0.0017(8) 0.502(1) 0.2328(7) 1.4(2) 1. 0
O6 O2- 4 f 0.1792(8) 0.4733(6) 0.5611(8) 1.1(2) 1. 0
O7 O2- 2 e 0.903(1) 0.25 0.088(2) 2.6(5) 1. 0
O8 O2- 2 e 0.548(1) 0.25 -.024(1) 1.0(3) 1. 0
O9 O2- 4 f 0.7094(8) 0.4075(9) 0.188(1) 1.4(3) 1. 0
O10 O2- 2 e 0.889(1) 0.25 0.416(1) 1.4(3) 1. 0
O11 O2- 2 e 0.524(1) 0.25 0.296(1) 1.1(3) 1. 0
O12 O2- 2 e 0.623(2) 0.75 0.344(1) 2.1(4) 1. 0
O13 O2- 2 e 0.955(1) 0.75 0.280(1) 1.4(4) 1. 0
O14 O2- 4 f 0.7045(8) 0.5935(8) 0.145(1) 1.1(3) 1. 0
O15 O2- 2 e 0.765(1) 0.75 -.061(1) 1.6(4) 1. 0
#End of TTdata_82891-ICSD