
#(C) 2018 by FIZ Karlsruhe - Leibniz Institute for Information Infrastructure.  All rights reserved.
data_82945-ICSD
_database_code_ICSD 82945
_audit_creation_date 1998-06-26
_chemical_name_systematic 'Lithium neodymium titanate(IV) (0.38/0.54/1) - C'
_chemical_formula_structural 'Li0.35 Nd0.55 Ti O3'
_chemical_formula_sum 'Li0.35 Nd0.55 O3 Ti1'
_chemical_name_structure_type (Ca,Li)(Ta,Zr)O3
_exptl_crystal_density_diffrn 5.25
_publ_section_title

;
The crystal structures of Li(+) conducting phases Li0.5-3x RE0.5+x Ti O3 : RE
= Pr, Nd, x=0.05, from powder neutron diffraction data
;
loop_
_citation_id
_citation_journal_full
_citation_year
_citation_journal_volume
_citation_page_first
_citation_page_last
_citation_journal_id_ASTM
primary 'Materials Science Forum' 1996 228 701 704 MSFOEP
loop_
_publ_author_name
'Smith, R.I.'
'Skakle, J.M.S.'
'Mather, G.C.'
'Morales, M.'
'West, A.R.'
_cell_length_a 5.43665(7)
_cell_length_b 7.6649(1)
_cell_length_c 5.39761(7)
_cell_angle_alpha 90.
_cell_angle_beta 90.
_cell_angle_gamma 90.
_cell_volume 224.93
_cell_formula_units_Z 4
_symmetry_space_group_name_H-M 'P n m a'
_symmetry_Int_Tables_number 62
_refine_ls_R_factor_all 0.03
loop_
_symmetry_equiv_pos_site_id
_symmetry_equiv_pos_as_xyz
1 'x+1/2, y, -z+1/2'
2 'x, -y+1/2, z'
3 '-x+1/2, y+1/2, z+1/2'
4 '-x, -y, -z'
5 '-x+1/2, -y, z+1/2'
6 '-x, y+1/2, -z'
7 'x+1/2, -y+1/2, -z+1/2'
8 'x, y, z'
loop_
_atom_type_symbol
_atom_type_oxidation_number
Nd3+ 3
Ti4+ 4
O2- -2
Li1+ 1
loop_
_atom_site_label
_atom_site_type_symbol
_atom_site_symmetry_multiplicity
_atom_site_Wyckoff_symbol
_atom_site_fract_x
_atom_site_fract_y
_atom_site_fract_z
_atom_site_B_iso_or_equiv
_atom_site_occupancy
_atom_site_attached_hydrogens
Nd1 Nd3+ 4 c 0.0246(4) 0.25 0.9915(6) 0.25(2) 0.55 0
Ti1 Ti4+ 4 b 0 0 0.5 . 1. 0
O1 O2- 4 c 0.4936(5) 0.25 0.0701(4) . 1. 0
O2 O2- 8 d 0.2811(3) 0.0353(2) 0.7191(3) . 1. 0
Li1 Li1+ 4 c 0.365(3) 0.25 0.468(3) 1.4(2) 0.35 0
loop_
_atom_site_aniso_label
_atom_site_aniso_type_symbol
_atom_site_aniso_U_11
_atom_site_aniso_U_22
_atom_site_aniso_U_33
_atom_site_aniso_U_12
_atom_site_aniso_U_13
_atom_site_aniso_U_23
Ti1 Ti4+ 0.49(9) 0.9(1) 0.23(9) -.45(7) 0.6(1) 0.1(1)
O1 O2- 1.6(1) 0.10(7) 1.37(7) 0 -.41(7) 0
O2 O2- 1.08(4) 1.60(5) 0.77(4) -.37(4) -.69(4) 0.26(4)
#End of TTdata_82945-ICSD