
#(C) 2018 by FIZ Karlsruhe - Leibniz Institute for Information Infrastructure.  All rights reserved.
data_83279-ICSD
_database_code_ICSD 83279
_audit_creation_date 1998-06-26
_audit_update_record 2007-08-01
_chemical_name_systematic 'Lithium samarium silicon oxide (0.284/4.512/3/12.91)'
_chemical_formula_structural '(Li0.142 Sm0.756)2 Sm3 (Si3 O12.91)'
_chemical_formula_sum 'Li0.284 O12.91 Si3 Sm4.512'
_chemical_name_structure_type Apatite#-(HE,P63/m)
_exptl_crystal_density_diffrn 6.02
_publ_section_title

;
Bulk and grain boundary ionic conduction in lithium rare earth- silicates "Li
Ln Si O4" (Ln = La, Nd, Sm, Eu, Gd, Dy)
;
loop_
_citation_id
_citation_journal_full
_citation_year
_citation_journal_volume
_citation_page_first
_citation_page_last
_citation_journal_id_ASTM
primary 'Solid State Ionics' 1996 83 249 256 SSIOD3
loop_
_publ_author_name
'Sato, M.'
'Kono, Y.'
'Ueda, H.'
'Uematsu, K.'
'Toda, K.'
_cell_length_a 9.4601(1)
_cell_length_b 9.4601(1)
_cell_length_c 6.9113(1)
_cell_angle_alpha 90.
_cell_angle_beta 90.
_cell_angle_gamma 120.
_cell_volume 535.65
_cell_formula_units_Z 2
_symmetry_space_group_name_H-M 'P 63/m'
_symmetry_Int_Tables_number 176
_refine_ls_R_factor_all 0.031
loop_
_symmetry_equiv_pos_site_id
_symmetry_equiv_pos_as_xyz
1 '-x+y, -x, -z+1/2'
2 '-y, x-y, -z+1/2'
3 'x, y, -z+1/2'
4 'x-y, x, -z'
5 'y, -x+y, -z'
6 '-x, -y, -z'
7 'x-y, x, z+1/2'
8 'y, -x+y, z+1/2'
9 '-x, -y, z+1/2'
10 '-x+y, -x, z'
11 '-y, x-y, z'
12 'x, y, z'
loop_
_atom_type_symbol
_atom_type_oxidation_number
Li1+ 1
Sm3+ 3
Si4+ 4
O2- -2
loop_
_atom_site_label
_atom_site_type_symbol
_atom_site_symmetry_multiplicity
_atom_site_Wyckoff_symbol
_atom_site_fract_x
_atom_site_fract_y
_atom_site_fract_z
_atom_site_B_iso_or_equiv
_atom_site_occupancy
_atom_site_attached_hydrogens
Li1 Li1+ 4 f 0.3333 0.6667 -.002(1) 0.5(1) 0.142 0
Sm1 Sm3+ 4 f 0.3333 0.6667 -.002(1) 0.5(1) 0.756(9) 0
Sm2 Sm3+ 6 h 0.2323(4) 0.2417(4) 0.25 0.1(1) 1. 0
Si1 Si4+ 6 h 0.402(3) 0.029(2) 0.25 0.1(3) 1. 0
O1 O2- 6 h 0.327(4) 0.838(4) 0.25 0.4(4) 1. 0
O2 O2- 12 i 0.341(2) 0.082(2) 0.069(2) 0.4(4) 1. 0
O3 O2- 6 h 0.596(4) 0.126(4) 0.25 0.4(4) 1. 0
O4 O2- 2 a 0 0 0.25 0.4(4) 0.91(6) 0
#End of TTdata_83279-ICSD