
#(C) 2017 by FIZ Karlsruhe - Leibniz Institute for Information Infrastructure.  All rights reserved.
data_83297-ICSD
_database_code_ICSD 83297
_audit_creation_date 1998-06-26
_audit_update_record 2004-04-01
_chemical_name_systematic 'Dilithium hexaiodouranate - LT'
_chemical_formula_structural 'Li2 (U I6)'
_chemical_formula_sum 'I6 Li2 U1'
_chemical_name_structure_type CaLiAlF6
_exptl_crystal_density_diffrn 5.14
_cell_measurement_temperature 300.
_publ_section_title

;
Neutron diffraction and electrical conductivity studies of Li2 U I6 ionic
conductor
;
loop_
_citation_id
_citation_journal_full
_citation_year
_citation_journal_volume
_citation_page_first
_citation_page_last
_citation_journal_id_ASTM
primary 'Solid State Ionics' 1996 90 67 74 SSIOD3
loop_
_publ_author_name
'Maletka, K.'
'Tellgren, R.'
'Rundloef, H.'
'Szczepaniak, W.'
'Rycerz, L.'
_cell_length_a 7.3927(8)
_cell_length_b 7.3927(8)
_cell_length_c 13.826(2)
_cell_angle_alpha 90.
_cell_angle_beta 90.
_cell_angle_gamma 120.
_cell_volume 654.39
_cell_formula_units_Z 2
_symmetry_space_group_name_H-M 'P -3 1 c'
_symmetry_Int_Tables_number 163
_refine_ls_R_factor_all 0.03
loop_
_symmetry_equiv_pos_site_id
_symmetry_equiv_pos_as_xyz
1 '-x+y, y, -z+1/2'
2 'x, x-y, -z+1/2'
3 '-y, -x, -z+1/2'
4 'x-y, x, -z'
5 'y, -x+y, -z'
6 '-x, -y, -z'
7 'x-y, -y, z+1/2'
8 '-x, -x+y, z+1/2'
9 'y, x, z+1/2'
10 '-x+y, -x, z'
11 '-y, x-y, z'
12 'x, y, z'
loop_
_atom_type_symbol
_atom_type_oxidation_number
I1- -1
U4+ 4
Li1+ 1
loop_
_atom_site_label
_atom_site_type_symbol
_atom_site_symmetry_multiplicity
_atom_site_Wyckoff_symbol
_atom_site_fract_x
_atom_site_fract_y
_atom_site_fract_z
_atom_site_B_iso_or_equiv
_atom_site_occupancy
_atom_site_attached_hydrogens
I1 I1- 12 i 0.335(2) 0.000(1) 0.124(1) 2.6(2) 1. 0
U1 U4+ 2 c 0.3333 0.6667 0.25 1.0(4) 1. 0
Li1 Li1+ 2 a 0 0 0.25 8.0(6) 1. 0
Li2 Li1+ 2 d 0.6667 0.3333 0.25 8.0(6) 1. 0
#End of TTdata_83297-ICSD