
#(C) 2017 by FIZ Karlsruhe - Leibniz Institute for Information Infrastructure.  All rights reserved.
data_83299-ICSD
_database_code_ICSD 83299
_audit_creation_date 1998-06-26
_audit_update_record 2004-04-01
_chemical_name_systematic 'Lithium hexaiodouranate (1.6/1) - HT'
_chemical_formula_structural 'Li1.6 (U I6)'
_chemical_formula_sum 'I6 Li1.6 U1'
_exptl_crystal_density_diffrn 4.58
_cell_measurement_temperature 800.
_publ_section_title

;
Neutron diffraction and electrical conductivity studies of Li2 U I6ionic
conductor
;
loop_
_citation_id
_citation_journal_full
_citation_year
_citation_journal_volume
_citation_page_first
_citation_page_last
_citation_journal_id_ASTM
primary 'Solid State Ionics' 1996 90 67 74 SSIOD3
loop_
_publ_author_name
'Maletka, K.'
'Tellgren, R.'
'Rundloef, H.'
'Szczepaniak, W.'
'Rycerz, L.'
_cell_length_a 7.733(5)
_cell_length_b 13.234(7)
_cell_length_c 7.645(4)
_cell_angle_alpha 90.
_cell_angle_beta 110.59(3)
_cell_angle_gamma 90.
_cell_volume 732.4
_cell_formula_units_Z 2
_symmetry_space_group_name_H-M 'C 1 2/m 1'
_symmetry_Int_Tables_number 12
_refine_ls_R_factor_all 0.034
loop_
_symmetry_equiv_pos_site_id
_symmetry_equiv_pos_as_xyz
1 '-x, y, -z'
2 '-x, -y, -z'
3 'x, -y, z'
4 'x, y, z'
5 '-x+1/2, y+1/2, -z'
6 '-x+1/2, -y+1/2, -z'
7 'x+1/2, -y+1/2, z'
8 'x+1/2, y+1/2, z'
loop_
_atom_type_symbol
_atom_type_oxidation_number
I1- -1
U4+ 4.4
Li1+ 1
loop_
_atom_site_label
_atom_site_type_symbol
_atom_site_symmetry_multiplicity
_atom_site_Wyckoff_symbol
_atom_site_fract_x
_atom_site_fract_y
_atom_site_fract_z
_atom_site_B_iso_or_equiv
_atom_site_occupancy
_atom_site_attached_hydrogens
I1 I1- 4 i 0.228(7) 0 0.768(6) . 1. 0
I2 I1- 8 j 0.234(6) 0.166(2) 0.236(4) . 1. 0
U1 U4+ 2 a 0 0 0 6.(9) 1. 0
Li1 Li1+ 4 g 0 0.666(2) 0 27.(9) 0.8(2) 0
#End of TTdata_83299-ICSD