
#(C) 2018 by FIZ Karlsruhe - Leibniz Institute for Information Infrastructure.  All rights reserved.
data_83393-ICSD
_database_code_ICSD 83393
_audit_creation_date 1998-06-26
_chemical_name_systematic 'Dirubidium lithium hexacyanocobaltate(III)'
_chemical_formula_structural 'Rb2 Li (Co (C N)6)'
_chemical_formula_sum 'C6 Co1 Li1 N6 Rb2'
_chemical_name_structure_type LiCs2Cr(CN)6
_exptl_crystal_density_diffrn 2.4
_publ_section_title

;
Die Kristallstrukturen der Eisen- und Cobalt-Hexacyanokomplexe Rb2 Li M (C N)6
und Rb2 Na M (C N)6
;
loop_
_citation_id
_citation_journal_full
_citation_year
_citation_journal_volume
_citation_page_first
_citation_page_last
_citation_journal_id_ASTM
primary 'Zeitschrift fuer Naturforschung, B: Chemical Sciences' 1996 51 826 831
ZNBSEN
loop_
_publ_author_name
'Peschel, S.'
'Paulus, W.'
'Babel, D.'
_cell_length_a 7.155(1)
_cell_length_b 7.412(1)
_cell_length_c 10.250(2)
_cell_angle_alpha 90.
_cell_angle_beta 90.14(1)
_cell_angle_gamma 90.
_cell_volume 543.59
_cell_formula_units_Z 2
_symmetry_space_group_name_H-M 'P 1 21/n 1'
_symmetry_Int_Tables_number 14
_refine_ls_R_factor_all 0.035
loop_
_symmetry_equiv_pos_site_id
_symmetry_equiv_pos_as_xyz
1 '-x+1/2, y+1/2, -z+1/2'
2 '-x, -y, -z'
3 'x+1/2, -y+1/2, z+1/2'
4 'x, y, z'
loop_
_atom_type_symbol
_atom_type_oxidation_number
Rb1+ 1
Li1+ 1
Co3+ 3
C2+ 2
N3- -3
C2+ 2
N3- -3
C2+ 2
N3- -3
loop_
_atom_site_label
_atom_site_type_symbol
_atom_site_symmetry_multiplicity
_atom_site_Wyckoff_symbol
_atom_site_fract_x
_atom_site_fract_y
_atom_site_fract_z
_atom_site_B_iso_or_equiv
_atom_site_occupancy
_atom_site_attached_hydrogens
Rb1 Rb1+ 4 e 0.51378(7) 0.94643(6) 0.25037(5) . 1. 0
Li1 Li1+ 2 b 0 0 0.5 . 1. 0
Co1 Co3+ 2 a 0 0 0 . 1. 0
C1 C2+ 4 e 0.0484(5) 0.0096(5) 0.1814(3) . 1. 0
N1 N3- 4 e 0.0763(5) 0.0179(5) 0.2911(3) . 1. 0
C2 C2+ 4 e 0.7842(5) 0.1453(5) 0.0236(4) . 1. 0
N2 N3- 4 e 0.6557(4) 0.2345(4) 0.0381(3) . 1. 0
C3 C2+ 4 e 0.1443(5) 0.2116(5) -.0262(4) . 1. 0
N3 N3- 4 e 0.2333(5) 0.3374(4) -.0426(3) . 1. 0
loop_
_atom_site_aniso_label
_atom_site_aniso_type_symbol
_atom_site_aniso_U_11
_atom_site_aniso_U_22
_atom_site_aniso_U_33
_atom_site_aniso_U_12
_atom_site_aniso_U_13
_atom_site_aniso_U_23
Rb1 Rb1+ 0.03894(29) 0.04215(25) 0.03732(24) -.00881(22) -.00005(20) 0.00135(22)
Li1 Li1+ 0.0416(62) 0.0143(41) 0.0287(50) -0.0012(48) -0.0026(46) 0.0057(62)
Co1 Co3+ 0.01778(39) 0.01607(34) 0.01664(35) 0.00061(33) 0.00020(31) 0.00085(44)
C1 C2+ 0.0182(19) 0.0210(18) 0.0249(19) 0.0021(16) 0.0039(16) 0.0016(18)
N1 N3- 0.0381(20) 0.0417(21) 0.0221(16) 0.0018(18) 0.0012(16) -0.0015(16)
C2 C2+ 0.0271(23) 0.0201(19) 0.0186(20) -0.0045(17) -0.0004(18) -0.0009(16)
N2 N3- 0.0242(20) 0.0341(20) 0.0449(25) 0.0090(17) 0.0036(18) 0.0015(17)
C3 C2+ 0.0205(21) 0.0218(19) 0.0187(20) 0.0032(17) -0.0001(17) 0.0007(16)
N3 N3- 0.0316(22) 0.0314(19) 0.0379(24) -0.0028(17) -0.0021(18) 0.0050(16)
#End of TTdata_83393-ICSD