
#(C) 2018 by FIZ Karlsruhe - Leibniz Institute for Information Infrastructure.  All rights reserved.
data_83392-ICSD
_database_code_ICSD 83392
_audit_creation_date 1998-06-26
_chemical_name_systematic 'Dirubidium lithium hexacyanoferrate(III)'
_chemical_formula_structural 'Rb2 Li (Fe (C N)6)'
_chemical_formula_sum 'C6 Fe1 Li1 N6 Rb2'
_chemical_name_structure_type LiCs2Cr(CN)6
_exptl_crystal_density_diffrn 2.34
_publ_section_title

;
Die Kristallstrukturen der Eisen- und Cobalt-Hexacyanokomplexe Rb2 Li M (C N)6
und Rb2 Na M (C N)6
;
loop_
_citation_id
_citation_journal_full
_citation_year
_citation_journal_volume
_citation_page_first
_citation_page_last
_citation_journal_id_ASTM
primary 'Zeitschrift fuer Naturforschung, B: Chemical Sciences' 1996 51 826 831
ZNBSEN
loop_
_publ_author_name
'Peschel, S.'
'Paulus, W.'
'Babel, D.'
_cell_length_a 7.173(1)
_cell_length_b 7.480(2)
_cell_length_c 10.302(2)
_cell_angle_alpha 90.
_cell_angle_beta 90.24(2)
_cell_angle_gamma 90.
_cell_volume 552.74
_cell_formula_units_Z 2
_symmetry_space_group_name_H-M 'P 1 21/n 1'
_symmetry_Int_Tables_number 14
_refine_ls_R_factor_all 0.039
loop_
_symmetry_equiv_pos_site_id
_symmetry_equiv_pos_as_xyz
1 '-x+1/2, y+1/2, -z+1/2'
2 '-x, -y, -z'
3 'x+1/2, -y+1/2, z+1/2'
4 'x, y, z'
loop_
_atom_type_symbol
_atom_type_oxidation_number
Rb1+ 1
Li1+ 1
Fe3+ 3
C2+ 2
N3- -3
C2+ 2
N3- -3
C2+ 2
N3- -3
loop_
_atom_site_label
_atom_site_type_symbol
_atom_site_symmetry_multiplicity
_atom_site_Wyckoff_symbol
_atom_site_fract_x
_atom_site_fract_y
_atom_site_fract_z
_atom_site_B_iso_or_equiv
_atom_site_occupancy
_atom_site_attached_hydrogens
Rb1 Rb1+ 4 e 0.51544(6) 0.94183(7) 0.25004(4) . 1. 0
Li1 Li1+ 2 b 0 0 0.5 . 1. 0
Fe1 Fe3+ 2 a 0 0 0 . 1. 0
C1 C2+ 4 e 0.0518(5) 0.0095(6) 0.1844(3) . 1. 0
N1 N3- 4 e 0.0792(6) 0.0183(6) 0.2935(3) . 1. 0
C2 C2+ 4 e 0.7810(5) 0.1463(5) 0.0254(4) . 1. 0
N2 N3- 4 e 0.6517(5) 0.2348(6) 0.0398(4) . 1. 0
C3 C2+ 4 e 0.1463(5) 0.2144(6) -.0290(4) . 1. 0
N3 N3- 4 e 0.2330(5) 0.3407(5) -.0455(4) . 1. 0
loop_
_atom_site_aniso_label
_atom_site_aniso_type_symbol
_atom_site_aniso_U_11
_atom_site_aniso_U_22
_atom_site_aniso_U_33
_atom_site_aniso_U_12
_atom_site_aniso_U_13
_atom_site_aniso_U_23
Rb1 Rb1+ 0.04186(29) 0.03938(30) 0.03421(27) -.00836(20) -.00128(18) 0.00157(18)
Li1 Li1+ 0.0334(50) 0.0287(49) 0.0164(41) 0.0055(41) -0.0066(37) -0.0004(43)
Fe1 Fe3+ 0.01824(34) 0.01609(37) 0.01253(32) 0.00026(27) -.00117(25) 0.00047(29)
C1 C2+ 0.0211(17) 0.0258(20) 0.0187(17) 0.0002(15) -0.0026(13) -0.0010(15)
N1 N3- 0.0419(21) 0.0377(23) 0.0218(17) 0.0043(17) -0.0019(15) -0.0005(16)
C2 C2+ 0.0261(18) 0.0203(20) 0.0198(18) -0.0024(15) -0.0022(14) 0.0002(15)
N2 N3- 0.0318(19) 0.0348(22) 0.0384(22) 0.0100(16) 0.0009(16) 0.0008(17)
C3 C2+ 0.0213(17) 0.0250(21) 0.0184(18) -0.0000(15) -0.0018(14) -0.0008(15)
N3 N3- 0.0381(21) 0.0318(22) 0.0343(21) -0.0106(17) -0.0021(16) 0.0037(16)
#End of TTdata_83392-ICSD