
#(C) 2018 by FIZ Karlsruhe - Leibniz Institute for Information Infrastructure.  All rights reserved.
data_83501-ICSD
_database_code_ICSD 83501
_audit_creation_date 1998-06-26
_audit_update_record 2005-10-01
_chemical_name_systematic 'Lithium hafnium phosphate(V) (0.87/2.03/3) - HT'
_chemical_formula_structural 'Li0.87 Hf2.032 (P O4)3'
_chemical_formula_sum 'Hf2.032 Li0.87 O12 P3'
_exptl_crystal_density_diffrn 4.38
_cell_measurement_temperature 320.
_publ_section_title

;
Reversible triclinic-rhombohedral phase transition in Li Hf2 (P O4)3 : crystal
structures from neutron powder diffraction
;
loop_
_citation_id
_citation_journal_full
_citation_year
_citation_journal_volume
_citation_page_first
_citation_page_last
_citation_journal_id_ASTM
primary 'Chemistry of Materials' 1997 9 1678 1685 CMATEX
loop_
_publ_author_name
'Losilla, E.R.'
'Aranda, M.A.G.'
'Martinez-Lara, M.'
'Bruque, S.'
_cell_length_a 8.8306(1)
_cell_length_b 8.8306(1)
_cell_length_c 22.02699(50)
_cell_angle_alpha 90.
_cell_angle_beta 90.
_cell_angle_gamma 120.
_cell_volume 1487.53
_cell_formula_units_Z 6
_symmetry_space_group_name_H-M 'R -3 c H'
_symmetry_Int_Tables_number 167
_refine_ls_R_factor_all 0.047
loop_
_symmetry_equiv_pos_site_id
_symmetry_equiv_pos_as_xyz
1 'x-y, -y, -z+1/2'
2 '-x, -x+y, -z+1/2'
3 'y, x, -z+1/2'
4 'x-y, x, -z'
5 'y, -x+y, -z'
6 '-x, -y, -z'
7 '-x+y, y, z+1/2'
8 'x, x-y, z+1/2'
9 '-y, -x, z+1/2'
10 '-x+y, -x, z'
11 '-y, x-y, z'
12 'x, y, z'
13 'x-y+2/3, -y+1/3, -z+5/6'
14 '-x+2/3, -x+y+1/3, -z+5/6'
15 'y+2/3, x+1/3, -z+5/6'
16 'x-y+2/3, x+1/3, -z+1/3'
17 'y+2/3, -x+y+1/3, -z+1/3'
18 '-x+2/3, -y+1/3, -z+1/3'
19 '-x+y+2/3, y+1/3, z+5/6'
20 'x+2/3, x-y+1/3, z+5/6'
21 '-y+2/3, -x+1/3, z+5/6'
22 '-x+y+2/3, -x+1/3, z+1/3'
23 '-y+2/3, x-y+1/3, z+1/3'
24 'x+2/3, y+1/3, z+1/3'
25 'x-y+1/3, -y+2/3, -z+1/6'
26 '-x+1/3, -x+y+2/3, -z+1/6'
27 'y+1/3, x+2/3, -z+1/6'
28 'x-y+1/3, x+2/3, -z+2/3'
29 'y+1/3, -x+y+2/3, -z+2/3'
30 '-x+1/3, -y+2/3, -z+2/3'
31 '-x+y+1/3, y+2/3, z+1/6'
32 'x+1/3, x-y+2/3, z+1/6'
33 '-y+1/3, -x+2/3, z+1/6'
34 '-x+y+1/3, -x+2/3, z+2/3'
35 '-y+1/3, x-y+2/3, z+2/3'
36 'x+1/3, y+2/3, z+2/3'
loop_
_atom_type_symbol
_atom_type_oxidation_number
Hf4+ 4
P5+ 5
O2- -2
Li1+ 1
Hf4+ 4
loop_
_atom_site_label
_atom_site_type_symbol
_atom_site_symmetry_multiplicity
_atom_site_Wyckoff_symbol
_atom_site_fract_x
_atom_site_fract_y
_atom_site_fract_z
_atom_site_B_iso_or_equiv
_atom_site_occupancy
_atom_site_attached_hydrogens
Hf1 Hf4+ 12 c 0 0 0.1421(1) 0.0024(6) 1. 0
P1 P5+ 18 e 0.2876(3) 0 0.25 0.0042(7) 1. 0
O1 O2- 36 f 0.1851(3) -.0102(3) 0.1936(1) 0.0157(5) 1. 0
O2 O2- 36 f 0.1947(2) 0.1701(2) 0.0841(1) 0.0107(5) 1. 0
Li1 Li1+ 36 f 0.865(4) 0.043(5) 0.006(2) 0.018(9) 0.145(5) 0
Hf2 Hf4+ 6 a 0 0 0.25 0.018(9) 0.032 0
#End of TTdata_83501-ICSD