
#(C) 2018 by FIZ Karlsruhe - Leibniz Institute for Information Infrastructure.  All rights reserved.
data_83512-ICSD
_database_code_ICSD 83512
_audit_creation_date 1998-06-26
_chemical_name_systematic
'Lithium aluminium hydroxide chloride hydrate (1/2/6/1/1.1)'
_chemical_formula_structural 'Li Al2 (O H)6 Cl (H2 O)1.099'
_chemical_formula_sum 'H8.198 Al2 Cl1 Li1 O7.099'
_exptl_crystal_density_diffrn 2.11
_publ_section_title

;
Synthesis and structure of the gibbsite intercalation compounds (LiAl2 (O H)6)
X (X = Cl, Br, N O3) and (Li Al2 (O H)6) Cl (H2 O) using synchrotron X-ray and
neutron powder diffraction
;
loop_
_citation_id
_citation_journal_full
_citation_year
_citation_journal_volume
_citation_page_first
_citation_page_last
_citation_journal_id_ASTM
primary 'Chemistry of Materials' 1997 9 241 247 CMATEX
loop_
_publ_author_name
'Besserguenev, A.V.'
'Fogg, A.M.'
'Francis, R.J.'
'Price, S.J.'
'O'Hare, D.'
'Isupov, V.P.'
'Tolochko, B.P.'
_cell_length_a 5.0963(3)
_cell_length_b 5.0963(3)
_cell_length_c 15.2919(9)
_cell_angle_alpha 90.
_cell_angle_beta 90.
_cell_angle_gamma 120.
_cell_volume 343.96
_cell_formula_units_Z 2
_symmetry_space_group_name_H-M 'P 63/m'
_symmetry_Int_Tables_number 176
_refine_ls_R_factor_all 0.013
loop_
_symmetry_equiv_pos_site_id
_symmetry_equiv_pos_as_xyz
1 '-x+y, -x, -z+1/2'
2 '-y, x-y, -z+1/2'
3 'x, y, -z+1/2'
4 'x-y, x, -z'
5 'y, -x+y, -z'
6 '-x, -y, -z'
7 'x-y, x, z+1/2'
8 'y, -x+y, z+1/2'
9 '-x, -y, z+1/2'
10 '-x+y, -x, z'
11 '-y, x-y, z'
12 'x, y, z'
loop_
_atom_type_symbol
_atom_type_oxidation_number
Al3+ 3
O2- -2
H1+ 1
Li1+ 1
Cl1- -1
O2- -2
H1+ 1
loop_
_atom_site_label
_atom_site_type_symbol
_atom_site_symmetry_multiplicity
_atom_site_Wyckoff_symbol
_atom_site_fract_x
_atom_site_fract_y
_atom_site_fract_z
_atom_site_B_iso_or_equiv
_atom_site_occupancy
_atom_site_attached_hydrogens
Al1 Al3+ 4 f 0.3333 0.6667 0 0.49(2) 1. 0
O1 O2- 12 i 0.6424(9) 0.644(1) 0.5631(1) 0.49(2) 1. 0
H1 H1+ 12 i 0.693(2) 0.658(2) 0.629(2) 0.49(2) 1. 0
Li1 Li1+ 2 b 0 0 0 0.49(2) 1. 0
Cl1 Cl1- 6 h 0.35(1) 0.35(1) 0.25 0.49(2) 0.0667 0
Cl2 Cl1- 6 h 0.191(9) 0.63(1) 0.25 0.49(2) 0.0667 0
Cl3 Cl1- 6 h 0.63(1) 0.191(1) 0.25 0.49(2) 0.0667 0
Cl4 Cl1- 6 h 0.08(1) 0.24(1) 0.25 0.49(2) 0.0667 0
Cl5 Cl1- 6 h 0.242(7) 0.08(1) 0.25 0.49(2) 0.0667 0
O2 O2- 6 h 0.388(7) 0.263(9) 0.25 0.49(2) 0.0733 0
O3 O2- 6 h 0.163(7) 0.505(9) 0.25 0.49(2) 0.0733 0
O4 O2- 6 h 0.629(7) 0.04(9) 0.25 0.49(2) 0.0733 0
O5 O2- 6 h 0.053(7) 0.118(9) 0.25 0.49(2) 0.0733 0
O6 O2- 6 h 0.242(7) -.071(9) 0.25 0.49(2) 0.0733 0
H2 H1+ 6 h 0.23(2) 0.003(9) 0.25 0.49(2) 0.0733 0
H3 H1+ 6 h 0.574(2) 0.30(2) 0.25 0.49(2) 0.0733 0
H4 H1+ 6 h 0.01(2) 0.245(9) 0.25 0.49(2) 0.0733 0
H5 H1+ 6 h 0.351(9) 0.54(1) 0.25 0.49(2) 0.0733 0
H6 H1+ 6 h 0.51(1) 0.12(1) 0.25 0.49(2) 0.0733 0
H7 H1+ 6 h 0.87(1) 0.24(1) 0.25 0.49(2) 0.0733 0
H8 H1+ 6 h 0.90(2) 0.857(9) 0.25 0.49(2) 0.0733 0
H9 H1+ 6 h 0.238(9) 0.15(1) 0.25 0.49(2) 0.0733 0
H10 H1+ 6 h 0.12(1) 0.011(1) 0.25 0.49(2) 0.0733 0
H11 H1+ 6 h 0.49(1) 0.13(1) 0.25 0.49(2) 0.0733 0
#End of TTdata_83512-ICSD