
#(C) 2018 by FIZ Karlsruhe - Leibniz Institute for Information Infrastructure.  All rights reserved.
data_83647-ICSD
_database_code_ICSD 83647
_audit_creation_date 1998-06-26
_chemical_name_systematic 'Lithium molybdenum(III) diphosphate'
_chemical_formula_structural 'Li Mo (P2 O7)'
_chemical_formula_sum 'Li1 Mo1 O7 P2'
_chemical_name_structure_type LiInP2O7
_exptl_crystal_density_diffrn 3.37
_cell_measurement_temperature 294.
_publ_section_title 'Li Mo P2 O7'
loop_
_citation_id
_citation_journal_full
_citation_year
_citation_journal_volume
_citation_page_first
_citation_page_last
_citation_journal_id_ASTM
primary 'Acta Crystallographica, Section C: Crystal Structure Communications'
1996 52 1593 1594 ACSCEE
loop_
_publ_author_name
'Ledain, S.'
'Leclaire, A.'
'Borel, M.M.'
'Raveau, B.'
_cell_length_a 4.8984(4)
_cell_length_b 8.3919(8)
_cell_length_c 7.034(1)
_cell_angle_alpha 90.
_cell_angle_beta 109.33(1)
_cell_angle_gamma 90.
_cell_volume 272.85
_cell_formula_units_Z 2
_symmetry_space_group_name_H-M 'P 1 21 1'
_symmetry_Int_Tables_number 4
_refine_ls_R_factor_all 0.029
loop_
_symmetry_equiv_pos_site_id
_symmetry_equiv_pos_as_xyz
1 '-x, y+1/2, -z'
2 'x, y, z'
loop_
_atom_type_symbol
_atom_type_oxidation_number
Mo3+ 3
P5+ 5
Li1+ 1
O2- -2
loop_
_atom_site_label
_atom_site_type_symbol
_atom_site_symmetry_multiplicity
_atom_site_Wyckoff_symbol
_atom_site_fract_x
_atom_site_fract_y
_atom_site_fract_z
_atom_site_B_iso_or_equiv
_atom_site_occupancy
_atom_site_attached_hydrogens
Mo1 Mo3+ 2 a 0.21270(8) 0.5 0.22578(6) . 1. 0
P1 P5+ 2 a 0.4030(3) 0.1806(2) 0.0289(2) . 1. 0
P2 P5+ 2 a 0.7937(3) 0.2851(2) 0.4194(2) . 1. 0
Li1 Li1+ 2 a 0.797(2) 0.364(1) 0.821(2) 0.022(2) 1. 0
O1 O2- 2 a 0.0539(9) 0.3200(6) 0.3608(7) . 1. 0
O2 O2- 2 a 0.3985(8) 0.6822(5) 0.0963(6) . 1. 0
O3 O2- 2 a 0.1328(8) 0.7007(5) 0.3807(6) . 1. 0
O4 O2- 2 a 0.6172(7) 0.4331(5) 0.4226(6) . 1. 0
O5 O2- 2 a 0.2403(8) 0.3376(4) 0.0069(5) . 1. 0
O6 O2- 2 a 0.5967(8) 0.1593(4) 0.2607(5) . 1. 0
O7 O2- 2 a 0.7975(7) 0.5375(4) 0.0077(5) . 1. 0
loop_
_atom_site_aniso_label
_atom_site_aniso_type_symbol
_atom_site_aniso_U_11
_atom_site_aniso_U_22
_atom_site_aniso_U_33
_atom_site_aniso_U_12
_atom_site_aniso_U_13
_atom_site_aniso_U_23
Mo1 Mo3+ 0.0047(1) 0.0034(1) 0.0051(1) -.0003(3) 0.0023(1) -.0005(3)
P1 P5+ 0.0058(5) 0.0047(5) 0.0053(5) -.0005(4) 0.0022(4) -.0013(4)
P2 P5+ 0.0060(5) 0.0060(5) 0.0053(5) -.0001(4) 0.0015(4) 0.0008(4)
O1 O2- 0.008(2) 0.011(2) 0.020(2) -.001(1) 0.009(2) 0.005(2)
O2 O2- 0.014(2) 0.007(2) 0.011(2) 0.001(1) 0.008(1) 0.002(1)
O3 O2- 0.011(2) 0.010(2) 0.005(2) 0.002(1) 0.002(1) -.001(1)
O4 O2- 0.007(1) 0.009(2) 0.015(2) 0.002(1) -.001(1) -.003(1)
O5 O2- 0.008(2) 0.005(1) 0.009(2) 0.002(1) 0.003(1) -.002(1)
O6 O2- 0.013(2) 0.007(2) 0.008(1) -.003(1) 0.002(1) -.003(1)
O7 O2- 0.008(1) 0.006(1) 0.009(1) 0.002(1) 0.001(1) 0.000(1)
#End of TTdata_83647-ICSD