
#(C) 2018 by FIZ Karlsruhe - Leibniz Institute for Information Infrastructure.  All rights reserved.
data_83866-ICSD
_database_code_ICSD 83866
_audit_creation_date 1999-01-19
_chemical_name_systematic
'Tris(oxodilithiumtetracalcium) tetrakis(tetranitridotungstate)'
_chemical_formula_structural '(O Li2 Ca4)3 (W N4)4'
_chemical_formula_sum 'Ca12 Li6 N16 O3 W4'
_chemical_name_structure_type Li6Ca12Mo4N16O3
_exptl_crystal_density_diffrn 4.56
_publ_section_title

;
(O Li2 Ca4)3 (M N4)4 (M = Mo, W): nitridometalate oxides with closestructural
relationships to the Th3 P4 type structure
;
loop_
_citation_id
_citation_journal_full
_citation_year
_citation_journal_volume
_citation_page_first
_citation_page_last
_citation_journal_id_ASTM
primary 'Journal of Alloys and Compounds' 1997 248 1 6 JALCEU
loop_
_publ_author_name
'Wachsmann, C.'
'Hoehn, P.'
'Kniep, R.'
'Jacobs, H.'
_cell_length_a 13.060(2)
_cell_length_b 13.060(2)
_cell_length_c 13.060(2)
_cell_angle_alpha 90.
_cell_angle_beta 90.
_cell_angle_gamma 90.
_cell_volume 2227.56
_cell_formula_units_Z 4
_symmetry_space_group_name_H-M 'I -4 3 d'
_symmetry_Int_Tables_number 220
_refine_ls_R_factor_all 0.034
loop_
_symmetry_equiv_pos_site_id
_symmetry_equiv_pos_as_xyz
1 '-y+1/4, -x+3/4, z+3/4'
2 'y+3/4, -x+1/4, -z+3/4'
3 '-y+3/4, x+3/4, -z+1/4'
4 'y+1/4, x+1/4, z+1/4'
5 'z+1/2, -x+1/2, -y'
6 '-z+1/2, -x, y+1/2'
7 '-z, x+1/2, -y+1/2'
8 'z, x, y'
9 'z+3/4, -y+1/4, -x+3/4'
10 '-z+3/4, y+3/4, -x+1/4'
11 '-z+1/4, -y+3/4, x+3/4'
12 'z+1/4, y+1/4, x+1/4'
13 '-y, z+1/2, -x+1/2'
14 'y+1/2, -z+1/2, -x'
15 '-y+1/2, -z, x+1/2'
16 'y, z, x'
17 '-x+3/4, z+3/4, -y+1/4'
18 '-x+1/4, -z+3/4, y+3/4'
19 'x+3/4, -z+1/4, -y+3/4'
20 'x+1/4, z+1/4, y+1/4'
21 '-x+1/2, -y, z+1/2'
22 '-x, y+1/2, -z+1/2'
23 'x+1/2, -y+1/2, -z'
24 'x, y, z'
25 '-y+3/4, -x+1/4, z+1/4'
26 'y+1/4, -x+3/4, -z+1/4'
27 '-y+1/4, x+1/4, -z+3/4'
28 'y+3/4, x+3/4, z+3/4'
29 'z, -x, -y+1/2'
30 '-z, -x+1/2, y'
31 '-z+1/2, x, -y'
32 'z+1/2, x+1/2, y+1/2'
33 'z+1/4, -y+3/4, -x+1/4'
34 '-z+1/4, y+1/4, -x+3/4'
35 '-z+3/4, -y+1/4, x+1/4'
36 'z+3/4, y+3/4, x+3/4'
37 '-y+1/2, z, -x'
38 'y, -z, -x+1/2'
39 '-y, -z+1/2, x'
40 'y+1/2, z+1/2, x+1/2'
41 '-x+1/4, z+1/4, -y+3/4'
42 '-x+3/4, -z+1/4, y+1/4'
43 'x+1/4, -z+3/4, -y+1/4'
44 'x+3/4, z+3/4, y+3/4'
45 '-x, -y+1/2, z'
46 '-x+1/2, y, -z'
47 'x, -y, -z+1/2'
48 'x+1/2, y+1/2, z+1/2'
loop_
_atom_type_symbol
_atom_type_oxidation_number
W6+ 6
Ca2+ 2
O2- -2
N3- -3
Li1+ 1
loop_
_atom_site_label
_atom_site_type_symbol
_atom_site_symmetry_multiplicity
_atom_site_Wyckoff_symbol
_atom_site_fract_x
_atom_site_fract_y
_atom_site_fract_z
_atom_site_B_iso_or_equiv
_atom_site_occupancy
_atom_site_attached_hydrogens
W1 W6+ 16 c 0.38774(1) 0.38774(1) 0.38774(1) . 1. 0
Ca1 Ca2+ 48 e 0.32581(9) 0.28655(9) 0.1163(10) . 1. 0
O1 O2- 12 b 0.5 0.25 0.125 . 1. 0
N1 N3- 48 e 0.3410(4) 0.4752(4) 0.1070(4) . 1. 0
N2 N3- 16 c 0.3056(5) 0.3056(5) 0.3056(5) . 1. 0
Li1 Li1+ 24 d 0.276(2) 0.5 0.25 . 1. 0
loop_
_atom_site_aniso_label
_atom_site_aniso_type_symbol
_atom_site_aniso_U_11
_atom_site_aniso_U_22
_atom_site_aniso_U_33
_atom_site_aniso_U_12
_atom_site_aniso_U_13
_atom_site_aniso_U_23
W1 W6+ 0.0040(1) 0.0040(1) 0.0040(1) -.00013(6) -.00013(6) -.00013(6)
Ca1 Ca2+ 0.0042(4) 0.0066(4) 0.0104(4) 0.0001(3) 0.0002(3) 0.0017(3)
O1 O2- 0.006(2) 0.006(2) 0.008(4) 0 0 0
N1 N3- 0.008(2) 0.005(2) 0.007(2) -.003(1) 0.001(1) 0.002(1)
N2 N3- 0.009(1) 0.009(1) 0.009(1) 0.002(2) 0.002(2) 0.002(2)
Li1 Li1+ 0.001(6) 0.04(1) 0.02(6) 0 0 -.001(9)
#End of TTdata_83866-ICSD