
#(C) 2018 by FIZ Karlsruhe - Leibniz Institute for Information Infrastructure.  All rights reserved.
data_83865-ICSD
_database_code_ICSD 83865
_audit_creation_date 1999-01-19
_audit_update_record 2011-02-01
_chemical_name_systematic
'Tris(oxodilithiumtetracalcium) tetrakis(tetranitridomolybdate)'
_chemical_formula_structural '(O Li2 Ca4)3 (Mo N4)4'
_chemical_formula_sum 'Ca12 Li6 Mo4 N16 O3'
_chemical_name_structure_type Li6Ca12Mo4N16O3
_exptl_crystal_density_diffrn 3.51
_publ_section_title

;
(O Li2 Ca4)3 (M N4)4 (M = Mo, W): nitridometalate oxides with close structural
relationships to the Th3 P4 type structure
;
loop_
_citation_id
_citation_journal_full
_citation_year
_citation_journal_volume
_citation_page_first
_citation_page_last
_citation_journal_id_ASTM
primary 'Journal of Alloys and Compounds' 1997 248 1 6 JALCEU
loop_
_publ_author_name
'Wachsmann, C.'
'Hoehn, P.'
'Kniep, R.'
'Jacobs, H.'
_cell_length_a 13.061(3)
_cell_length_b 13.061(3)
_cell_length_c 13.061(3)
_cell_angle_alpha 90.
_cell_angle_beta 90.
_cell_angle_gamma 90.
_cell_volume 2228.07
_cell_formula_units_Z 4
_symmetry_space_group_name_H-M 'I -4 3 d'
_symmetry_Int_Tables_number 220
_refine_ls_R_factor_all 0.017
loop_
_symmetry_equiv_pos_site_id
_symmetry_equiv_pos_as_xyz
1 '-y+1/4, -x+3/4, z+3/4'
2 'y+3/4, -x+1/4, -z+3/4'
3 '-y+3/4, x+3/4, -z+1/4'
4 'y+1/4, x+1/4, z+1/4'
5 'z+1/2, -x+1/2, -y'
6 '-z+1/2, -x, y+1/2'
7 '-z, x+1/2, -y+1/2'
8 'z, x, y'
9 'z+3/4, -y+1/4, -x+3/4'
10 '-z+3/4, y+3/4, -x+1/4'
11 '-z+1/4, -y+3/4, x+3/4'
12 'z+1/4, y+1/4, x+1/4'
13 '-y, z+1/2, -x+1/2'
14 'y+1/2, -z+1/2, -x'
15 '-y+1/2, -z, x+1/2'
16 'y, z, x'
17 '-x+3/4, z+3/4, -y+1/4'
18 '-x+1/4, -z+3/4, y+3/4'
19 'x+3/4, -z+1/4, -y+3/4'
20 'x+1/4, z+1/4, y+1/4'
21 '-x+1/2, -y, z+1/2'
22 '-x, y+1/2, -z+1/2'
23 'x+1/2, -y+1/2, -z'
24 'x, y, z'
25 '-y+3/4, -x+1/4, z+1/4'
26 'y+1/4, -x+3/4, -z+1/4'
27 '-y+1/4, x+1/4, -z+3/4'
28 'y+3/4, x+3/4, z+3/4'
29 'z, -x, -y+1/2'
30 '-z, -x+1/2, y'
31 '-z+1/2, x, -y'
32 'z+1/2, x+1/2, y+1/2'
33 'z+1/4, -y+3/4, -x+1/4'
34 '-z+1/4, y+1/4, -x+3/4'
35 '-z+3/4, -y+1/4, x+1/4'
36 'z+3/4, y+3/4, x+3/4'
37 '-y+1/2, z, -x'
38 'y, -z, -x+1/2'
39 '-y, -z+1/2, x'
40 'y+1/2, z+1/2, x+1/2'
41 '-x+1/4, z+1/4, -y+3/4'
42 '-x+3/4, -z+1/4, y+1/4'
43 'x+1/4, -z+3/4, -y+1/4'
44 'x+3/4, z+3/4, y+3/4'
45 '-x, -y+1/2, z'
46 '-x+1/2, y, -z'
47 'x, -y, -z+1/2'
48 'x+1/2, y+1/2, z+1/2'
loop_
_atom_type_symbol
_atom_type_oxidation_number
Mo6+ 6
Ca2+ 2
O2- -2
N3- -3
Li1+ 1
loop_
_atom_site_label
_atom_site_type_symbol
_atom_site_symmetry_multiplicity
_atom_site_Wyckoff_symbol
_atom_site_fract_x
_atom_site_fract_y
_atom_site_fract_z
_atom_site_B_iso_or_equiv
_atom_site_occupancy
_atom_site_attached_hydrogens
Mo1 Mo6+ 16 c 0.38752(2) 0.38752(2) 0.38752(2) . 1. 0
Ca1 Ca2+ 48 e 0.32596(4) 0.28533(4) 0.11566(4) . 1. 0
O1 O2- 12 b 0.5 0.25 0.125 . 1. 0
N1 N3- 48 e 0.3407(2) 0.4759(2) 0.1074(2) . 1. 0
N2 N3- 16 c 0.3060(2) 0.3060(2) 0.3060(2) . 1. 0
Li1 Li1+ 24 d 0.2744(6) 0.5 0.25 . 1. 0
loop_
_atom_site_aniso_label
_atom_site_aniso_type_symbol
_atom_site_aniso_U_11
_atom_site_aniso_U_22
_atom_site_aniso_U_33
_atom_site_aniso_U_12
_atom_site_aniso_U_13
_atom_site_aniso_U_23
Mo1 Mo6+ 0.01151(8) 0.01151(8) 0.01151(8) -.00012(7) -.00012(7) -.00012(7)
Ca1 Ca2+ 0.0109(2) 0.0131(2) 0.0164(2) 0.0000(2) 0.0002(2) 0.0017(2)
O1 O2- 0.015(1) 0.015(1) 0.014(2) 0 0 0
N1 N3- 0.017(1) 0.0141(9) 0.0142(9) 0.0007(7) 0.0009(8) 0.0010(8)
N2 N3- 0.0175(8) 0.0175(8) 0.0175(8) -.0014(88) -.0014(88) -.0014(8)
Li1 Li1+ 0.035(4) 0.018(3) 0.018(3) 0 0 -.008(9)
#End of TTdata_83865-ICSD