
#(C) 2018 by FIZ Karlsruhe - Leibniz Institute for Information Infrastructure.  All rights reserved.
data_84240-ICSD
_database_code_ICSD 84240
_audit_creation_date 1999-01-19
_chemical_name_systematic 'Lithium tecto-heptaalumotetraborate'
_chemical_formula_structural 'Li (Al7 B4 O17)'
_chemical_formula_sum 'Al7 B4 Li1 O17'
_exptl_crystal_density_diffrn 2.71
_publ_section_title 'Lithium aluminium borate, Li Al7 B4 O17'
loop_
_citation_id
_citation_journal_full
_citation_year
_citation_journal_volume
_citation_page_first
_citation_page_last
_citation_journal_id_ASTM
primary 'Acta Chemica Scandinavica' 1997 51 1045 1050 ACHSE7
loop_
_publ_author_name
'Ahman, J.'
'Svensson, G.'
'Grins, J.'
_cell_length_a 10.5454(7)
_cell_length_b 10.5454(7)
_cell_length_c 5.6246(4)
_cell_angle_alpha 90.
_cell_angle_beta 90.
_cell_angle_gamma 90.
_cell_volume 625.49
_cell_formula_units_Z 2
_symmetry_space_group_name_H-M 'I 4/m'
_symmetry_Int_Tables_number 87
_refine_ls_R_factor_all 0.039
loop_
_symmetry_equiv_pos_site_id
_symmetry_equiv_pos_as_xyz
1 '-y, x, -z'
2 'y, -x, -z'
3 'x, y, -z'
4 '-x, -y, -z'
5 'y, -x, z'
6 '-y, x, z'
7 '-x, -y, z'
8 'x, y, z'
9 '-y+1/2, x+1/2, -z+1/2'
10 'y+1/2, -x+1/2, -z+1/2'
11 'x+1/2, y+1/2, -z+1/2'
12 '-x+1/2, -y+1/2, -z+1/2'
13 'y+1/2, -x+1/2, z+1/2'
14 '-y+1/2, x+1/2, z+1/2'
15 '-x+1/2, -y+1/2, z+1/2'
16 'x+1/2, y+1/2, z+1/2'
loop_
_atom_type_symbol
_atom_type_oxidation_number
Al3+ 3
B3+ 3
Li1+ 1
O2- -2
loop_
_atom_site_label
_atom_site_type_symbol
_atom_site_symmetry_multiplicity
_atom_site_Wyckoff_symbol
_atom_site_fract_x
_atom_site_fract_y
_atom_site_fract_z
_atom_site_B_iso_or_equiv
_atom_site_occupancy
_atom_site_attached_hydrogens
Al1 Al3+ 8 f 0.25 0.25 0.25 0.0069(2) 1. 0
Al2 Al3+ 8 h 0.17675(11) 0.02428(10) 0 0.0142(3) 0.75 0
B1 B3+ 8 h 0.2397(3) 0.4975(2) 0 0.0112(4) 1. 0
Li1 Li1+ 8 h 0.3983(7) -.0087(7) 0 0.01(4) 0.185(2) 0
Li2 Li1+ 8 h 0.2838(21) 0.0101(21) 0 0.01(4) 0.065(2) 0
O1 O2- 16 i 0.2423(2) 0.43174(14) 0.2122(2) 0.0192(4) 1. 0
O2 O2- 2 a 0 0 0 0.0311(11) 1. 0
O3 O2- 8 h 0.1433(2) 0.2110(2) 0 0.0087(3) 1. 0
O4 O2- 8 h 0.3728(2) 0.2429(2) 0 0.0088(3) 1. 0
#End of TTdata_84240-ICSD