
#(C) 2018 by FIZ Karlsruhe - Leibniz Institute for Information Infrastructure.  All rights reserved.
data_84291-ICSD
_database_code_ICSD 84291
_audit_creation_date 1999-01-19
_chemical_name_systematic 'Trithallium lithium bis(molybdate(VI))'
_chemical_formula_structural 'Tl3 Li (Mo O4)2'
_chemical_formula_sum 'Li1 Mo2 O8 Tl3'
_exptl_crystal_density_diffrn 6.32
_cell_measurement_temperature 298.
_publ_section_title

;
Structure determination of Tl3 Li (Mo O4)2. Stereochemical activity of Tl(I)
lone pair
;
loop_
_citation_id
_citation_journal_full
_citation_year
_citation_journal_volume
_citation_page_first
_citation_page_last
_citation_journal_id_ASTM
primary 'European Journal of Solid State and Inorganic Chemistry' 1997 34 1097
1106 EJSCE5
loop_
_publ_author_name
'Colbeau-Justin, C.'
'Wallez, G.'
'Xuriguera, A.M.'
'Elfakir, A.'
'Jaulmes, S.'
'Quarton, M.'
_cell_length_a 6.0037(1)
_cell_length_b 6.0037(1)
_cell_length_c 15.8194(5)
_cell_angle_alpha 90.
_cell_angle_beta 90.
_cell_angle_gamma 120.
_cell_volume 493.81
_cell_formula_units_Z 2
_symmetry_space_group_name_H-M 'P 63 m c'
_symmetry_Int_Tables_number 186
_refine_ls_R_factor_all 0.047
loop_
_symmetry_equiv_pos_site_id
_symmetry_equiv_pos_as_xyz
1 '-x, -x+y, z+1/2'
2 'x-y, -y, z+1/2'
3 'y, x, z+1/2'
4 'x-y, x, z+1/2'
5 'y, -x+y, z+1/2'
6 '-x, -y, z+1/2'
7 'x, x-y, z'
8 '-x+y, y, z'
9 '-y, -x, z'
10 '-x+y, -x, z'
11 '-y, x-y, z'
12 'x, y, z'
loop_
_atom_type_symbol
_atom_type_oxidation_number
Tl1+ 1
Li1+ 1
Mo6+ 6
O2- -2
loop_
_atom_site_label
_atom_site_type_symbol
_atom_site_symmetry_multiplicity
_atom_site_Wyckoff_symbol
_atom_site_fract_x
_atom_site_fract_y
_atom_site_fract_z
_atom_site_B_iso_or_equiv
_atom_site_occupancy
_atom_site_attached_hydrogens
Tl1 Tl1+ 2 a 0 0 0 1.96(7) 1. 0
Tl2 Tl1+ 2 a 0 0 0.2593(4) 2.81(9) 1. 0
Tl3 Tl1+ 2 b 0.3333 0.6667 0.0995(5) 2.63(9) 1. 0
Li1 Li1+ 2 b 0.3333 0.6667 0.895(1) 1.2(2) 1. 0
Mo1 Mo6+ 2 b 0.3333 0.6667 0.6701(4) 1.17(7) 1. 0
Mo2 Mo6+ 2 b 0.3333 0.6667 0.3988(5) 1.46(8) 1. 0
O1 O2- 6 c 0.8274(4) 0.1726(4) 0.1351(4) 1.93(5) 1. 0
O2 O2- 2 b 0.3333 0.6667 0.7808(5) 3.3(2) 1. 0
O3 O2- 6 c 0.4930(4) 0.5070(4) 0.4375(4) 2.22(6) 1. 0
O4 O2- 2 b 0.3333 0.6667 0.2900(5) 3.6(2) 1. 0
#End of TTdata_84291-ICSD