
#(C) 2018 by FIZ Karlsruhe - Leibniz Institute for Information Infrastructure.  All rights reserved.
data_84638-ICSD
_database_code_ICSD 84638
_audit_creation_date 1999-01-19
_chemical_name_systematic 'Lithium potassium carbonate'
_chemical_formula_structural 'Li K (C O3)'
_chemical_formula_sum 'C1 K1 Li1 O3'
_chemical_name_structure_type KLiCO3
_exptl_crystal_density_diffrn 2.28
_publ_section_title
'Crystal structure of Li K C O3 by neutron powder diffraction analysis'
loop_
_citation_id
_citation_journal_full
_citation_year
_citation_journal_volume
_citation_page_first
_citation_page_last
_citation_journal_id_ASTM
primary 'Journal of Solid State Chemistry' 1997 128 156 159 JSSCBI
loop_
_publ_author_name
'Idemoto, Y.'
'Richardson, J.W.jr.'
'Koura, N.'
'Kohara, S.'
'Loong, C.-K.'
_cell_length_a 7.22284(7)
_cell_length_b 7.07673(8)
_cell_length_c 7.59397(9)
_cell_angle_alpha 90.
_cell_angle_beta 127.421(1)
_cell_angle_gamma 90.
_cell_volume 308.27
_cell_formula_units_Z 4
_symmetry_space_group_name_H-M 'P 1 21/c 1'
_symmetry_Int_Tables_number 14
_refine_ls_R_factor_all 0.045
loop_
_symmetry_equiv_pos_site_id
_symmetry_equiv_pos_as_xyz
1 'x, -y+1/2, z+1/2'
2 '-x, -y, -z'
3 '-x, y+1/2, -z+1/2'
4 'x, y, z'
loop_
_atom_type_symbol
_atom_type_oxidation_number
Li1+ 1
K1+ 1
C4+ 4
O2- -2
loop_
_atom_site_label
_atom_site_type_symbol
_atom_site_symmetry_multiplicity
_atom_site_Wyckoff_symbol
_atom_site_fract_x
_atom_site_fract_y
_atom_site_fract_z
_atom_site_B_iso_or_equiv
_atom_site_occupancy
_atom_site_attached_hydrogens
Li1 Li1+ 4 e 0.4004(9) 0.0676(8) 0.1019(9) . 1. 0
K1 K1+ 4 e 0.8284(5) 0.3553(4) 0.1685(5) . 1. 0
C1 C4+ 4 e 0.2939(3) 0.3326(2) 0.2132(3) . 1. 0
O1 O2- 4 e 0.7436(3) -.0243(2) 0.2092(3) . 1. 0
O2 O2- 4 e 0.1596(3) 0.1899(3) 0.1294(3) . 1. 0
O3 O2- 4 e 0.4787(3) 0.3328(3) 0.2207(4) . 1. 0
loop_
_atom_site_aniso_label
_atom_site_aniso_type_symbol
_atom_site_aniso_U_11
_atom_site_aniso_U_22
_atom_site_aniso_U_33
_atom_site_aniso_U_12
_atom_site_aniso_U_13
_atom_site_aniso_U_23
Li1 Li1+ 0.0234(28) 0.0356(32) 0.0384(34) 0.0068(22) 0.0275(28) 0.0025(25)
K1 K1+ 0.0225(17) 0.0220(18) 0.0447(23) -.0010(11) 0.0234(17) 0.0023(13)
C1 C4+ 0.0206(8) 0.0189(8) 0.0254(10) -.0023(8) 0.0165(8) -.0039(8)
O1 O2- 0.0296(11) 0.0193(11) 0.0310(12) 0.0030(8) 0.024(1) 0.0075(9)
O2 O2- 0.0301(11) 0.0168(10) 0.0421(14) -.0032(9) 0.0277(11) -.0026(9)
O3 O2- 0.0285(11) 0.0287(10) 0.0552(15) -.0094(10) 0.0346(11) -.0153(11)
#End of TTdata_84638-ICSD