
#(C) 2018 by FIZ Karlsruhe - Leibniz Institute for Information Infrastructure.  All rights reserved.
data_84715-ICSD
_database_code_ICSD 84715
_audit_creation_date 1999-01-19
_chemical_name_systematic 'Trilithium distrontium niobium tetranitride'
_chemical_formula_structural 'Li3 Sr2 Nb N4'
_chemical_formula_sum 'Li3 N4 Nb1 Sr2'
_chemical_name_structure_type Li3Na2GaO4
_exptl_crystal_density_diffrn 4.17
_cell_measurement_temperature 299.
_publ_section_title

;
Synthesis and structure of two new quaternary nitrides: Li3 Sr2 M N4 (M = Nb,
Ta)
;
loop_
_citation_id
_citation_journal_full
_citation_year
_citation_journal_volume
_citation_page_first
_citation_page_last
_citation_journal_id_ASTM
primary 'Journal of Solid State Chemistry' 1997 130 1 8 JSSCBI
loop_
_publ_author_name
'Chen, X.-Z.'
'Eick, H.A.'
_cell_length_a 8.713(6)
_cell_length_b 9.007(4)
_cell_length_c 7.006(5)
_cell_angle_alpha 90.
_cell_angle_beta 90.
_cell_angle_gamma 90.
_cell_volume 549.82
_cell_formula_units_Z 4
_symmetry_space_group_name_H-M 'P n n m'
_symmetry_Int_Tables_number 58
_refine_ls_R_factor_all 0.033
loop_
_symmetry_equiv_pos_site_id
_symmetry_equiv_pos_as_xyz
1 'x+1/2, -y+1/2, z+1/2'
2 '-x+1/2, y+1/2, z+1/2'
3 'x, y, -z'
4 '-x, -y, -z'
5 '-x+1/2, y+1/2, -z+1/2'
6 'x+1/2, -y+1/2, -z+1/2'
7 '-x, -y, z'
8 'x, y, z'
loop_
_atom_type_symbol
_atom_type_oxidation_number
Li1+ 1
N3- -3
Li1+ 1
Sr2+ 2
Nb5+ 5
N3- -3
Sr2+ 2
loop_
_atom_site_label
_atom_site_type_symbol
_atom_site_symmetry_multiplicity
_atom_site_Wyckoff_symbol
_atom_site_fract_x
_atom_site_fract_y
_atom_site_fract_z
_atom_site_B_iso_or_equiv
_atom_site_occupancy
_atom_site_attached_hydrogens
Li1 Li1+ 8 h 0.017(2) 0.363(2) 0.236(2) . 1. 0
N1 N3- 8 h 0.302(1) 0.0205(8) 0.234(1) . 1. 0
N2 N3- 4 g 0.073(2) 0.220(1) 0 . 1. 0
Li2 Li1+ 4 g 0.206(4) 0.425(2) 0 . 1. 0
Sr1 Sr2+ 4 g 0.2423(2) 0.7542(2) 0 . 1. 0
Nb1 Nb5+ 4 g 0.2855(2) 0.1368(1) 0 . 1. 0
N3 N3- 4 g 0.451(2) 0.284(1) 0 . 1. 0
Sr2 Sr2+ 4 e 0 0 0.2602(2) . 1. 0
loop_
_atom_site_aniso_label
_atom_site_aniso_type_symbol
_atom_site_aniso_U_11
_atom_site_aniso_U_22
_atom_site_aniso_U_33
_atom_site_aniso_U_12
_atom_site_aniso_U_13
_atom_site_aniso_U_23
Li1 Li1+ 0.01(1) 0.013(7) 0.012(8) 0.000(1) -.003(8) 0.00(1)
N1 N3- 0.016(5) 0.017(4) 0.009(4) 0.005(4) 0.000(5) 0.004(4)
N2 N3- 0.004(7) 0.019(6) 0.015(7) 0.004(5) 0 0
Li2 Li1+ 0.02(2) 0.01(1) 0.01(1) 0.00(1) 0 0
Sr1 Sr2+ 0.0117(8) 0.0112(7) 0.0159(8) -.0022(5) 0 0
Nb1 Nb5+ 0.0058(6) 0.0068(6) 0.0044(5) 0.0008(6) 0 0
N3 N3- 0.017(8) 0.011(6) 0.000(6) -.001(5) 0 0
Sr2 Sr2+ 0.0093(8) 0.0094(5) 0.0067(6) 0.0015(6) 0 0
#End of TTdata_84715-ICSD