
#(C) 2018 by FIZ Karlsruhe - Leibniz Institute for Information Infrastructure.  All rights reserved.
data_84775-ICSD
_database_code_ICSD 84775
_audit_creation_date 1999-01-19
_chemical_name_systematic 'Trilithium dicopper antimony oxide'
_chemical_formula_structural 'Li3 Cu2 Sb O6'
_chemical_formula_sum 'Cu2 Li3 O6 Sb1'
_exptl_crystal_density_diffrn 5.23
_publ_section_title
'Synthesis of Li3 Cu2 Sb O6, a new partially ordered rock salt structure'
loop_
_citation_id
_citation_journal_full
_citation_year
_citation_journal_volume
_citation_page_first
_citation_page_last
_citation_journal_id_ASTM
primary 'Journal of Solid State Chemistry' 1997 131 115 120 JSSCBI
loop_
_publ_author_name
'Skakle, J.M.S.'
'Castellanos, M.A.R.'
'Trujillo Tovar, S.'
'West, A.R.'
_cell_length_a 5.4659(1)
_cell_length_b 8.7272(2)
_cell_length_c 9.7807(3)
_cell_angle_alpha 90.
_cell_angle_beta 95.080(2)
_cell_angle_gamma 90.
_cell_volume 464.73
_cell_formula_units_Z 4
_symmetry_space_group_name_H-M 'C 1 2/c 1'
_symmetry_Int_Tables_number 15
_refine_ls_R_factor_all 0.017
loop_
_symmetry_equiv_pos_site_id
_symmetry_equiv_pos_as_xyz
1 'x, -y, z+1/2'
2 '-x, -y, -z'
3 '-x, y, -z+1/2'
4 'x, y, z'
5 'x+1/2, -y+1/2, z+1/2'
6 '-x+1/2, -y+1/2, -z'
7 '-x+1/2, y+1/2, -z+1/2'
8 'x+1/2, y+1/2, z'
loop_
_atom_type_symbol
_atom_type_oxidation_number
Li1+ 1
Cu2+ 2
Li1+ 1
Cu2+ 2
Sb5+ 5
O2- -2
loop_
_atom_site_label
_atom_site_type_symbol
_atom_site_symmetry_multiplicity
_atom_site_Wyckoff_symbol
_atom_site_fract_x
_atom_site_fract_y
_atom_site_fract_z
_atom_site_B_iso_or_equiv
_atom_site_occupancy
_atom_site_attached_hydrogens
Li1 Li1+ 8 f 0.230(4) 0.0798(15) -.010(2) 0.084(3) 1. 0
Li2 Li1+ 4 d 0.25 0.25 0.5 0.0421(10) 0.6 0
Cu1 Cu2+ 4 d 0.25 0.25 0.5 0.0421(10) 0.4 0
Li3 Li1+ 4 e 0 0.0785(8) 0.25 0.065(14) 0.4 0
Cu2 Cu2+ 4 e 0 0.0785(8) 0.25 0.065(14) 0.6 0
Cu3 Cu2+ 4 e 0 0.4140(4) 0.25 0.0304(6) 1. 0
Sb1 Sb5+ 4 e 0 0.7484(2) 0.25 0.0192(2) 1. 0
O1 O2- 8 f 0.1785(2) 0.2378(11) 0.1434(4) 0.0444(14) 1. 0
O2 O2- 8 f 0.113(1) 0.5889(12) 0.1224(6) 0.049(2) 1. 0
O3 O2- 8 f 0.0882(10) 0.9021(11) 0.1196(5) 0.031(2) 1. 0
#End of TTdata_84775-ICSD