
#(C) 2018 by FIZ Karlsruhe - Leibniz Institute for Information Infrastructure.  All rights reserved.
data_84971-ICSD
_database_code_ICSD 84971
_audit_creation_date 1999-06-02
_chemical_name_systematic 'Lithium iron(III) oxide (0.5/2.5/4)'
_chemical_formula_structural 'Li0.5 Fe2.5 O4'
_chemical_formula_sum 'Fe2.5 Li0.5 O4'
_chemical_name_structure_type Spinel-LiFe5O8
_exptl_crystal_density_diffrn 4.76
_publ_section_title

;
Cation distribution in ordered spinels of the (Li2 O) - (Ti O2) - (Fe2 O3)
system
;
loop_
_citation_id
_citation_journal_full
_citation_year
_citation_journal_volume
_citation_page_first
_citation_page_last
_citation_journal_id_ASTM
primary 'Journal of Solid State Chemistry' 1997 134 170 181 JSSCBI
loop_
_publ_author_name
'Scharner, S.'
'Weppner, W.'
'Schmid-Beurmann, P.'
_cell_length_a 8.33003(8)
_cell_length_b 8.33003(8)
_cell_length_c 8.33003(8)
_cell_angle_alpha 90.
_cell_angle_beta 90.
_cell_angle_gamma 90.
_cell_volume 578.02
_cell_formula_units_Z 8
_symmetry_space_group_name_H-M 'P 43 3 2'
_symmetry_Int_Tables_number 212
_refine_ls_R_factor_all 0.046
loop_
_symmetry_equiv_pos_site_id
_symmetry_equiv_pos_as_xyz
1 'z+1/4, y+3/4, -x+3/4'
2 '-z+3/4, y+1/4, x+3/4'
3 'y+1/4, x+3/4, -z+3/4'
4 '-y+3/4, x+1/4, z+3/4'
5 'x+1/4, z+3/4, -y+3/4'
6 '-x+3/4, z+1/4, y+3/4'
7 'z+3/4, -y+3/4, x+1/4'
8 '-z+1/4, -y+1/4, -x+1/4'
9 'y+3/4, -x+3/4, z+1/4'
10 '-y+1/4, -x+1/4, -z+1/4'
11 'x+3/4, -z+3/4, y+1/4'
12 '-x+1/4, -z+1/4, -y+1/4'
13 '-y+1/2, -z, x+1/2'
14 '-y, z+1/2, -x+1/2'
15 'y+1/2, -z+1/2, -x'
16 'y, z, x'
17 'z+1/2, -x+1/2, -y'
18 '-z+1/2, -x, y+1/2'
19 '-z, x+1/2, -y+1/2'
20 'z, x, y'
21 '-x+1/2, -y, z+1/2'
22 '-x, y+1/2, -z+1/2'
23 'x+1/2, -y+1/2, -z'
24 'x, y, z'
loop_
_atom_type_symbol
_atom_type_oxidation_number
Li1+ 1
Fe3+ 3
O2- -2
loop_
_atom_site_label
_atom_site_type_symbol
_atom_site_symmetry_multiplicity
_atom_site_Wyckoff_symbol
_atom_site_fract_x
_atom_site_fract_y
_atom_site_fract_z
_atom_site_B_iso_or_equiv
_atom_site_occupancy
_atom_site_attached_hydrogens
Li1 Li1+ 4 b 0.625 0.625 0.625 0.29(2) 1. 0
Fe1 Fe3+ 12 d 0.125 0.3661(1) 0.8839(1) 0.29(2) 1. 0
Fe2 Fe3+ 8 c -.0036(1) -.0036(1) -.0036(1) 0.29(2) 1. 0
O1 O2- 8 c 0.3869(4) 0.3869(5) 0.3869(4) 0.29(2) 1. 0
O2 O2- 24 e 0.1177(4) 0.1268(3) 0.3806(3) 0.29(2) 1. 0
#End of TTdata_84971-ICSD