
#(C) 2018 by FIZ Karlsruhe - Leibniz Institute for Information Infrastructure.  All rights reserved.
data_85107-ICSD
_database_code_ICSD 85107
_audit_creation_date 1999-06-02
_audit_update_record 2009-02-01
_chemical_name_systematic 'Nonacalcium magnesium lithium heptakis(phosphate(V))'
_chemical_formula_structural 'Ca9 Mg Li (P O4)7'
_chemical_formula_sum 'Ca9 Li1 Mg1 O28 P7'
_chemical_name_structure_type Ca9MgNa(PO4)7
_exptl_crystal_density_diffrn 3.08
_publ_section_title

;
Crystal structures of calcium magnesium alkali metal phosphates Ca9 Mg M (P
O4)7 (M= Li, Na, K)
;
loop_
_citation_id
_citation_journal_full
_citation_year
_citation_journal_volume
_citation_page_first
_citation_page_last
_citation_journal_id_ASTM
primary Kristallografiya 1997 42 825 836 KRISAJ
loop_
_publ_author_name
'Morozov, V.A.'
'Presniakov, I.A.'
'Belik, A.A.'
'Khasanov, S.S.'
'Lazoryak, B.I.'
_cell_length_a 10.3188(1)
_cell_length_b 10.3188(1)
_cell_length_c 37.0689(10)
_cell_angle_alpha 90.
_cell_angle_beta 90.
_cell_angle_gamma 120.
_cell_volume 3418.21
_cell_formula_units_Z 6
_symmetry_space_group_name_H-M 'R 3 c H'
_symmetry_Int_Tables_number 161
_refine_ls_R_factor_all 0.016
loop_
_symmetry_equiv_pos_site_id
_symmetry_equiv_pos_as_xyz
1 '-x+y, y, z+1/2'
2 'x, x-y, z+1/2'
3 '-y, -x, z+1/2'
4 '-x+y, -x, z'
5 '-y, x-y, z'
6 'x, y, z'
7 '-x+y+2/3, y+1/3, z+5/6'
8 'x+2/3, x-y+1/3, z+5/6'
9 '-y+2/3, -x+1/3, z+5/6'
10 '-x+y+2/3, -x+1/3, z+1/3'
11 '-y+2/3, x-y+1/3, z+1/3'
12 'x+2/3, y+1/3, z+1/3'
13 '-x+y+1/3, y+2/3, z+1/6'
14 'x+1/3, x-y+2/3, z+1/6'
15 '-y+1/3, -x+2/3, z+1/6'
16 '-x+y+1/3, -x+2/3, z+2/3'
17 '-y+1/3, x-y+2/3, z+2/3'
18 'x+1/3, y+2/3, z+2/3'
loop_
_atom_type_symbol
_atom_type_oxidation_number
Ca2+ 2
Li1+ 1
Mg2+ 2
P5+ 5
O2- -2
loop_
_atom_site_label
_atom_site_type_symbol
_atom_site_symmetry_multiplicity
_atom_site_Wyckoff_symbol
_atom_site_fract_x
_atom_site_fract_y
_atom_site_fract_z
_atom_site_B_iso_or_equiv
_atom_site_occupancy
_atom_site_attached_hydrogens
Ca1 Ca2+ 18 b 0.7271(7) 0.8585(9) 0.4310(5) 0.5(1) 1. 0
Ca2 Ca2+ 18 b 0.6164(7) 0.8240(8) 0.2290(5) 0.5(1) 1. 0
Ca3 Ca2+ 18 b 0.1233(8) 0.2687(6) 0.3232(5) 1.0(1) 1. 0
Li1 Li1+ 6 a 0 0 0.188(3) 3.(2) 0.79(3) 0
Li2 Li1+ 6 a 0 0 0.15(1) 3.(2) 0.21(3) 0
Mg1 Mg2+ 6 a 0 0 0 0.7(3) 1. 0
P1 P5+ 6 a 0 0 0.2626(6) 1.4(3) 1. 0
P2 P5+ 18 b 0.6880(8) 0.859(1) 0.1330(5) 0.4(1) 1. 0
P3 P5+ 18 b 0.656(1) 0.850(1) 0.0296(5) 0.7(2) 1. 0
O1 O2- 6 a 0 0 0.306(1) 0.3(6) 1. 0
O2 O2- 18 b 0.006(2) 0.863(2) 0.2528(9) 1.0(4) 1. 0
O3 O2- 18 b 0.755(2) 0.930(2) 0.1724(7) 1.6(5) 1. 0
O4 O2- 18 b 0.751(3) 0.768(3) 0.1189(7) 1.0(5) 1. 0
O5 O2- 18 b 0.722(2) 0.003(2) 0.1117(7) 0.5(4) 1. 0
O6 O2- 18 b 0.519(2) 0.762(3) 0.1329(7) 0.2(3) 1. 0
O7 O2- 18 b 0.610(2) 0.958(2) 0.0414(8) 0.6(4) 1. 0
O8 O2- 18 b 0.574(2) 0.691(2) 0.0494(7) 0.1(2) 1. 0
O9 O2- 18 b 0.827(2) 0.926(2) 0.0377(7) 0.1(2) 1. 0
O10 O2- 18 b 0.616(2) 0.817(2) 0.9889(6) 0.6(4) 1. 0
#End of TTdata_85107-ICSD