
#(C) 2018 by FIZ Karlsruhe - Leibniz Institute for Information Infrastructure.  All rights reserved.
data_85426-ICSD
_database_code_ICSD 85426
_audit_creation_date 1999-06-02
_chemical_name_systematic 'Dilithium hexahydroxostannate dihydrate'
_chemical_formula_structural 'Li2 (Sn (O H)6) (H2 O)2'
_chemical_formula_sum 'H10 Li2 O8 Sn1'
_exptl_crystal_density_diffrn 2.57
_cell_measurement_temperature 298.
_publ_section_title

;
Ternaere Hydroxide.I. Synthese, Struktur und Eigenschaften von Li2 (Sn (O H)6)
. 2(H2 O)
;
loop_
_citation_id
_citation_journal_full
_citation_year
_citation_journal_volume
_citation_page_first
_citation_page_last
_citation_journal_id_ASTM
primary 'Zeitschrift fuer Anorganische und Allgemeine Chemie (1950) (DE)' 1997
623 1978 1982 ZAACAB
loop_
_publ_author_name
'Reuter, H.'
'Bargon, G.'
_cell_length_a 5.023(1)
_cell_length_b 6.923(1)
_cell_length_c 10.202(3)
_cell_angle_alpha 90.
_cell_angle_beta 99.78(1)
_cell_angle_gamma 90.
_cell_volume 349.61
_cell_formula_units_Z 2
_symmetry_space_group_name_H-M 'P 1 21/n 1'
_symmetry_Int_Tables_number 14
_refine_ls_R_factor_all 0.019
loop_
_symmetry_equiv_pos_site_id
_symmetry_equiv_pos_as_xyz
1 '-x+1/2, y+1/2, -z+1/2'
2 '-x, -y, -z'
3 'x+1/2, -y+1/2, z+1/2'
4 'x, y, z'
loop_
_atom_type_symbol
_atom_type_oxidation_number
Sn4+ 4
Li1+ 1
O2- -2
H1+ 1
loop_
_atom_site_label
_atom_site_type_symbol
_atom_site_symmetry_multiplicity
_atom_site_Wyckoff_symbol
_atom_site_fract_x
_atom_site_fract_y
_atom_site_fract_z
_atom_site_B_iso_or_equiv
_atom_site_occupancy
_atom_site_attached_hydrogens
Sn1 Sn4+ 2 a 0 0 0 . 1. 0
Li1 Li1+ 4 e 0.5643(4) 0.2735(3) 0.1806(2) . 1. 0
O1 O2- 4 e 0.8441(2) 0.2435(1) 0.0735(1) . 1. 0
O2 O2- 4 e 0.3361(2) 0.0389(2) 0.1429(1) . 1. 0
O3 O2- 4 e 0.8232(2) 0.8315(1) 0.1299(1) . 1. 0
O4 O2- 4 e 0.3288(4) 0.4918(1) 0.1235(2) . 1. 0
H1 H1+ 4 e -.0333(2) 0.3056(1) 0.1177(1) 0.060(4) 1. 0
H2 H1+ 4 e 0.4395(2) -.0527(2) 0.1425(1) 0.060(4) 1. 0
H3 H1+ 4 e 0.7839(2) 0.7256(1) 0.0961(1) 0.060(4) 1. 0
H4 H1+ 4 e 0.3006(4) 0.5334(1) 0.1951(2) 0.060(4) 1. 0
H5 H1+ 4 e 0.2887(4) 0.5744(1) 0.0659(2) 0.060(4) 1. 0
loop_
_atom_site_aniso_label
_atom_site_aniso_type_symbol
_atom_site_aniso_U_11
_atom_site_aniso_U_22
_atom_site_aniso_U_33
_atom_site_aniso_U_12
_atom_site_aniso_U_13
_atom_site_aniso_U_23
Sn1 Sn4+ 0.010(1) 0.011(1) 0.010(1) 0.001(1) 0.003(1) 0.000(1)
Li1 Li1+ 0.018(1) 0.020(1) 0.017(1) 0.000(1) 0.005(1) -.002(1)
O1 O2- 0.014(1) 0.014(1) 0.017(1) 0.002(1) 0.005(1) -.002(1)
O2 O2- 0.012(1) 0.017(1) 0.015(1) 0.001(1) 0.001(1) -.002(1)
O3 O2- 0.018(1) 0.016(1) 0.014(1) -.003(1) 0.005(1) 0.002(1)
O4 O2- 0.037(1) 0.024(1) 0.019(1) 0.013(1) 0.006(1) 0.002(1)
#End of TTdata_85426-ICSD