
#(C) 2018 by FIZ Karlsruhe - Leibniz Institute for Information Infrastructure.  All rights reserved.
data_85424-ICSD
_database_code_ICSD 85424
_audit_creation_date 1999-06-02
_chemical_name_systematic 'Tetralithium nitride hydride'
_chemical_formula_structural 'Li4 N H'
_chemical_formula_sum 'H1 Li4 N1'
_chemical_name_structure_type Scheelite-CaWO4
_exptl_crystal_density_diffrn 1.2
_publ_section_title
'Reindarstellung und Kristallstruktur von Lithiumnitridhydrid, Li4 NH, Li4 N D'
loop_
_citation_id
_citation_journal_full
_citation_year
_citation_journal_volume
_citation_page_first
_citation_page_last
_citation_journal_id_ASTM
primary 'Zeitschrift fuer Anorganische und Allgemeine Chemie (1950) (DE)' 1997
623 1912 1916 ZAACAB
loop_
_publ_author_name
'Marx, R.'
_cell_length_a 4.8918(1)
_cell_length_b 4.8918(1)
_cell_length_c 9.9321(3)
_cell_angle_alpha 90.
_cell_angle_beta 90.
_cell_angle_gamma 90.
_cell_volume 237.67
_cell_formula_units_Z 4
_symmetry_space_group_name_H-M 'I 41/a S'
_symmetry_Int_Tables_number 88
_refine_ls_R_factor_all 0.04
loop_
_symmetry_equiv_pos_site_id
_symmetry_equiv_pos_as_xyz
1 'y, -x+1/2, z+1/4'
2 '-y, x+1/2, z+1/4'
3 'y, -x, -z'
4 '-y, x, -z'
5 '-x, -y+1/2, -z+1/4'
6 'x, y+1/2, -z+1/4'
7 '-x, -y, z'
8 'x, y, z'
9 'y+1/2, -x, z+3/4'
10 '-y+1/2, x, z+3/4'
11 'y+1/2, -x+1/2, -z+1/2'
12 '-y+1/2, x+1/2, -z+1/2'
13 '-x+1/2, -y, -z+3/4'
14 'x+1/2, y, -z+3/4'
15 '-x+1/2, -y+1/2, z+1/2'
16 'x+1/2, y+1/2, z+1/2'
loop_
_atom_type_symbol
_atom_type_oxidation_number
N3- -3
H1- -1
N3- -3
H1- -1
Li1+ 1
loop_
_atom_site_label
_atom_site_type_symbol
_atom_site_symmetry_multiplicity
_atom_site_Wyckoff_symbol
_atom_site_fract_x
_atom_site_fract_y
_atom_site_fract_z
_atom_site_B_iso_or_equiv
_atom_site_occupancy
_atom_site_attached_hydrogens
N1 N3- 4 a 0 0 0 0.0068(11) 0.965(3) 0
H1 H1- 4 b 0 0 0.5 0.0176(10) 0.965(3) 0
N2 N3- 4 b 0 0 0.5 0.0068(11) 0.035(3) 0
H2 H1- 4 a 0 0 0 0.0176(10) 0.035(3) 0
Li1 Li1+ 16 f 0.206(1) 0.1912(9) 0.1556(4) 0.0176(10) 1. 0
#End of TTdata_85424-ICSD