
#(C) 2018 by FIZ Karlsruhe - Leibniz Institute for Information Infrastructure.  All rights reserved.
data_85714-ICSD
_database_code_ICSD 85714
_audit_creation_date 1999-11-30
_chemical_name_systematic 'Hexalithium cyclo-hexaphosphate'
_chemical_formula_structural 'Li6 (P6 O18)'
_chemical_formula_sum 'Li6 O18 P6'
_exptl_crystal_density_diffrn 2.4
_publ_section_title

;
Li6 P6 O18: X-ray powder structure determination of lithium cyclohexaphosphate
;
loop_
_citation_id
_citation_journal_full
_citation_year
_citation_journal_volume
_citation_page_first
_citation_page_last
_citation_journal_id_ASTM
primary 'European Journal of Solid State and Inorganic Chemistry' 1998 35 255
264 EJSCE5
loop_
_publ_author_name
'Ben-Chaabane, T.'
'Smiri-Dogguy, L.'
'Laligant, Y.'
'Le Bail, A.'
_cell_length_a 7.9911(3)
_cell_length_b 17.03189(60)
_cell_length_c 5.3208(2)
_cell_angle_alpha 90.
_cell_angle_beta 99.433(1)
_cell_angle_gamma 90.
_cell_volume 714.39
_cell_formula_units_Z 2
_symmetry_space_group_name_H-M 'P 1 21/n 1'
_symmetry_Int_Tables_number 14
_refine_ls_R_factor_all 0.034
loop_
_symmetry_equiv_pos_site_id
_symmetry_equiv_pos_as_xyz
1 '-x+1/2, y+1/2, -z+1/2'
2 '-x, -y, -z'
3 'x+1/2, -y+1/2, z+1/2'
4 'x, y, z'
loop_
_atom_type_symbol
_atom_type_oxidation_number
P5+ 5
O2- -2
Li1+ 1
loop_
_atom_site_label
_atom_site_type_symbol
_atom_site_symmetry_multiplicity
_atom_site_Wyckoff_symbol
_atom_site_fract_x
_atom_site_fract_y
_atom_site_fract_z
_atom_site_B_iso_or_equiv
_atom_site_occupancy
_atom_site_attached_hydrogens
P1 P5+ 4 e 0.5948(4) 0.1919(2) -.0116(6) 2.41(2) 1. 0
P2 P5+ 4 e 0.7824(4) 0.0653(2) 0.2802(6) 2.41(2) 1. 0
P3 P5+ 4 e 0.8128(4) 0.4011(2) 0.2012(6) 2.41(2) 1. 0
O1 O2- 4 e 0.3553(7) 0.4331(3) 0.049(1) 2.88(6) 1. 0
O2 O2- 4 e 0.8016(7) 0.8708(3) 0.120(1) 2.88(6) 1. 0
O3 O2- 4 e 0.2467(7) 0.6054(4) 0.075(1) 2.88(6) 1. 0
O4 O2- 4 e 0.8487(6) 0.4917(4) 0.271(1) 2.88(6) 1. 0
O5 O2- 4 e 0.6464(7) 0.1356(4) 0.220(1) 2.88(6) 1. 0
O6 O2- 4 e 0.4697(8) 0.2442(3) 0.075(1) 2.88(6) 1. 0
O7 O2- 4 e 0.8946(7) 0.0603(3) 0.088(1) 2.88(6) 1. 0
O8 O2- 4 e 0.2546(9) 0.7804(4) 0.120(1) 2.88(6) 1. 0
O9 O2- 4 e 0.9961(8) 0.3686(3) 0.275(1) 2.88(6) 1. 0
Li1 Li1+ 4 e 0.438(2) 0.347(1) 0.254(4) 3.00(6) 1. 0
Li2 Li1+ 4 e 0.366(2) 0.517(1) 0.286(4) 3.00(6) 1. 0
Li3 Li1+ 4 e 0.257(3) 0.683(1) 0.302(3) 3.00(6) 1. 0
#End of TTdata_85714-ICSD