
#(C) 2018 by FIZ Karlsruhe - Leibniz Institute for Information Infrastructure.  All rights reserved.
data_85887-ICSD
_database_code_ICSD 85887
_audit_creation_date 1999-11-30
_chemical_name_systematic 'Lithium manganese nitride (0.66/1.34/1)'
_chemical_formula_structural '(Li0.66 Mn1.34) N'
_chemical_formula_sum 'Li0.66 Mn1.34 N1'
_chemical_name_structure_type Rutile-TiO2
_exptl_crystal_density_diffrn 4.68
_publ_section_title

;
Synthesis, crystal structure and properties of a lithium manganese nitride,
(Li, Mn)2 N
;
loop_
_citation_id
_citation_journal_full
_citation_year
_citation_journal_volume
_citation_page_first
_citation_page_last
_citation_journal_id_ASTM
primary 'Journal of Alloys and Compounds' 1998 266 32 38 JALCEU
loop_
_publ_author_name
'Niewa, R.'
'DiSalvo, F.J.'
'Yang, D.-K.'
'Zax, D.B.'
'Luo, H.'
'Yelon, W.B.'
_cell_length_a 4.68578(9)
_cell_length_b 4.68578(9)
_cell_length_c 2.97762(9)
_cell_angle_alpha 90.
_cell_angle_beta 90.
_cell_angle_gamma 90.
_cell_volume 65.38
_cell_formula_units_Z 2
_symmetry_space_group_name_H-M 'P 42/m n m'
_symmetry_Int_Tables_number 136
_refine_ls_R_factor_all 0.042
loop_
_symmetry_equiv_pos_site_id
_symmetry_equiv_pos_as_xyz
1 '-y+1/2, x+1/2, -z+1/2'
2 'y+1/2, -x+1/2, -z+1/2'
3 'y, x, -z'
4 '-y, -x, -z'
5 'y+1/2, -x+1/2, z+1/2'
6 '-y+1/2, x+1/2, z+1/2'
7 '-y, -x, z'
8 'y, x, z'
9 'x+1/2, -y+1/2, -z+1/2'
10 '-x+1/2, y+1/2, -z+1/2'
11 'x, y, -z'
12 '-x, -y, -z'
13 '-x+1/2, y+1/2, z+1/2'
14 'x+1/2, -y+1/2, z+1/2'
15 '-x, -y, z'
16 'x, y, z'
loop_
_atom_type_symbol
_atom_type_oxidation_number
N3- -3
Mn1+ 1.746
Li1+ 1
loop_
_atom_site_label
_atom_site_type_symbol
_atom_site_symmetry_multiplicity
_atom_site_Wyckoff_symbol
_atom_site_fract_x
_atom_site_fract_y
_atom_site_fract_z
_atom_site_B_iso_or_equiv
_atom_site_occupancy
_atom_site_attached_hydrogens
N1 N3- 2 a 0 0 0 0.0143(9) 1. 0
Mn1 Mn1+ 4 f 0.2989(6) 0.2989(6) 0 0.012(2) 0.67(4) 0
Li1 Li1+ 4 f 0.2989(6) 0.2989(6) 0 0.012(2) 0.33(4) 0
#End of TTdata_85887-ICSD