
#(C) 2018 by FIZ Karlsruhe - Leibniz Institute for Information Infrastructure.  All rights reserved.
data_86089-ICSD
_database_code_ICSD 86089
_audit_creation_date 1999-11-30
_chemical_name_systematic 'Lithium hydrazinium sulfate(VI)'
_chemical_formula_structural 'Li (N2 H5) (S O4)'
_chemical_formula_sum 'H5 Li1 N2 O4 S1'
_chemical_name_structure_type LiN2H5SO4
_exptl_crystal_density_diffrn 1.96
_cell_measurement_temperature 295.
_publ_section_title

;
Crystal structure and electrical conductivity of Li N2 H5 S O4 at high
temperature
;
loop_
_citation_id
_citation_journal_full
_citation_year
_citation_journal_volume
_citation_page_first
_citation_page_last
_citation_journal_id_ASTM
primary

;
Japanese Journal of Applied Physics, Part 1: Regular Papers, Brief
Communications & Review Papers
; 1998 37 925 929 JAPNDE
loop_
_publ_author_name
'Fukami, T.'
'Chen, R.-H.'
_cell_length_a 9.9220(6)
_cell_length_b 8.9700(4)
_cell_length_c 5.1728(3)
_cell_angle_alpha 90.
_cell_angle_beta 90.
_cell_angle_gamma 90.
_cell_volume 460.38
_cell_formula_units_Z 4
_symmetry_space_group_name_H-M 'P n a 21'
_symmetry_Int_Tables_number 33
_refine_ls_R_factor_all 0.025
loop_
_symmetry_equiv_pos_site_id
_symmetry_equiv_pos_as_xyz
1 'x+1/2, -y+1/2, z'
2 '-x+1/2, y+1/2, z+1/2'
3 '-x, -y, z+1/2'
4 'x, y, z'
loop_
_atom_type_symbol
_atom_type_oxidation_number
S6+ 6
O2- -2
N2- -2
Li1+ 1
H1+ 1
loop_
_atom_site_label
_atom_site_type_symbol
_atom_site_symmetry_multiplicity
_atom_site_Wyckoff_symbol
_atom_site_fract_x
_atom_site_fract_y
_atom_site_fract_z
_atom_site_B_iso_or_equiv
_atom_site_occupancy
_atom_site_attached_hydrogens
S1 S6+ 4 a 0.15794(3) 0.12851(3) 0.25 0.01146(3) 1. 0
O1 O2- 4 a 0.1911(1) 0.1050(1) 0.5278(2) 0.0211(2) 1. 0
O2 O2- 4 a 0.0114(1) 0.1541(1) 0.2285(3) 0.0223(2) 1. 0
O3 O2- 4 a 0.2302(1) 0.2591(2) 0.1541(2) 0.0215(2) 1. 0
O4 O2- 4 a 0.1957(1) -.0045(2) 0.1032(2) 0.0236(2) 1. 0
N1 N2- 4 a 0.0236(2) 0.4159(2) 0.7491(5) 0.0305(3) 1. 0
N2 N2- 4 a -.0602(1) 0.2861(1) 0.7374(4) 0.0213(2) 1. 0
Li1 Li1+ 4 a 0.1689(3) -.0663(3) 0.7520(9) 0.0179(4) 1. 0
H1 H1+ 4 a 0.375(3) 0.879(3) 0.230(3) 0.066(9) 1. 0
H2 H1+ 4 a 0.011(5) 0.475(4) 0.623(6) 0.08(1) 1. 0
H3 H1+ 4 a 0.817(3) 0.304(4) 0.700(9) 0.08(1) 1. 0
H4 H1+ 4 a -.053(2) 0.243(3) 0.861(4) 0.032(7) 1. 0
H5 H1+ 4 a -.020(4) 0.191(3) 0.658(6) 0.06(1) 1. 0
#End of TTdata_86089-ICSD