
#(C) 2017 by FIZ Karlsruhe - Leibniz Institute for Information Infrastructure.  All rights reserved.
data_86230-ICSD
_database_code_ICSD 86230
_audit_creation_date 1999-11-30
_audit_update_record 2005-10-01
_chemical_name_systematic 'Lithium iodide dideuteriohydrate - alpha, LT'
_chemical_formula_structural 'Li I (D2 O)'
_chemical_formula_sum 'D2 I1 Li1 O1'
_chemical_name_structure_type Perovskite-CaTiO3
_exptl_crystal_density_diffrn 3.32
_cell_measurement_temperature 123.
_publ_section_title
'Neutron scattering studies of the ionic conductor Li I . (D2 O)'
loop_
_citation_id
_citation_journal_full
_citation_year
_citation_journal_volume
_citation_page_first
_citation_page_last
_citation_journal_id_ASTM
primary 'Physica Scripta' 1982 25 780 784 PHSTBO
loop_
_publ_author_name
'Hessel Andersen, N.'
'Kjems, J.K.'
'Poulsen, F.W.'
_cell_length_a 4.2550(3)
_cell_length_b 4.2550(3)
_cell_length_c 4.2550(3)
_cell_angle_alpha 90.
_cell_angle_beta 90.
_cell_angle_gamma 90.
_cell_volume 77.04
_cell_formula_units_Z 1
_symmetry_space_group_name_H-M 'P m -3 m'
_symmetry_Int_Tables_number 221
_refine_ls_R_factor_all 0.082
loop_
_symmetry_equiv_pos_site_id
_symmetry_equiv_pos_as_xyz
1 'z, y, -x'
2 'y, x, -z'
3 'x, z, -y'
4 'z, x, -y'
5 'y, z, -x'
6 'x, y, -z'
7 'z, -y, x'
8 'y, -x, z'
9 'x, -z, y'
10 'z, -x, y'
11 'y, -z, x'
12 'x, -y, z'
13 '-z, y, x'
14 '-y, x, z'
15 '-x, z, y'
16 '-z, x, y'
17 '-y, z, x'
18 '-x, y, z'
19 '-z, -y, -x'
20 '-y, -x, -z'
21 '-x, -z, -y'
22 '-z, -x, -y'
23 '-y, -z, -x'
24 '-x, -y, -z'
25 '-z, -y, x'
26 '-y, -x, z'
27 '-x, -z, y'
28 '-z, -x, y'
29 '-y, -z, x'
30 '-x, -y, z'
31 '-z, y, -x'
32 '-y, x, -z'
33 '-x, z, -y'
34 '-z, x, -y'
35 '-y, z, -x'
36 '-x, y, -z'
37 'z, -y, -x'
38 'y, -x, -z'
39 'x, -z, -y'
40 'z, -x, -y'
41 'y, -z, -x'
42 'x, -y, -z'
43 'z, y, x'
44 'y, x, z'
45 'x, z, y'
46 'z, x, y'
47 'y, z, x'
48 'x, y, z'
loop_
_atom_type_symbol
_atom_type_oxidation_number
I1- -1
Li1+ 1
O2- -2
D1+ 1
loop_
_atom_site_label
_atom_site_type_symbol
_atom_site_symmetry_multiplicity
_atom_site_Wyckoff_symbol
_atom_site_fract_x
_atom_site_fract_y
_atom_site_fract_z
_atom_site_B_iso_or_equiv
_atom_site_occupancy
_atom_site_attached_hydrogens
I1 I1- 1 a 0 0 0 1.8(2) 1. 0
Li1 Li1+ 3 c 0 0.5 0.5 2.9(1) 0.333 0
O1 O2- 1 b 0.5 0.5 0.5 4.2(4) 1. 0
D1 D1+ 8 g 0.625 0.625 0.625 8.7(7) 0.25 0
#End of TTdata_86230-ICSD