
#(C) 2018 by FIZ Karlsruhe - Leibniz Institute for Information Infrastructure.  All rights reserved.
data_87414-ICSD
_database_code_ICSD 87414
_audit_creation_date 2000-12-16
_chemical_name_systematic 'Lithium strontium nitride'
_chemical_formula_structural 'Li Sr N'
_chemical_formula_sum 'Li1 N1 Sr1'
_chemical_name_structure_type CoYC(tP6)
_exptl_crystal_density_diffrn 3.31
_publ_section_title

;
Lithium-strontium-nitrogen system - a three dimensional structural association
consisting of corner- and edge-bonded rhombic bipyramides (N Li2)/(2Sr4)/4
;
loop_
_citation_id
_citation_journal_full
_citation_year
_citation_journal_volume
_citation_page_first
_citation_page_last
_citation_journal_id_ASTM
primary 'Angewandte Chemie' 1989 101 204 204 ANCEAD
loop_
_publ_author_name
'Cordier, G.'
'Gudat, A.'
'Kniep, R.'
'Rabenau, A.'
_cell_length_a 3.924(3)
_cell_length_b 3.924(3)
_cell_length_c 7.085(4)
_cell_angle_alpha 90.
_cell_angle_beta 90.
_cell_angle_gamma 90.
_cell_volume 109.09
_cell_formula_units_Z 2
_symmetry_space_group_name_H-M 'P 42/m m c'
_symmetry_Int_Tables_number 131
_refine_ls_R_factor_all 0.035
loop_
_symmetry_equiv_pos_site_id
_symmetry_equiv_pos_as_xyz
1 'y, x, z+1/2'
2 '-y, -x, z+1/2'
3 '-x, y, z'
4 'x, -y, z'
5 '-y, x, -z+1/2'
6 'y, -x, -z+1/2'
7 'x, y, -z'
8 '-x, -y, -z'
9 '-y, -x, -z+1/2'
10 'y, x, -z+1/2'
11 'x, -y, -z'
12 '-x, y, -z'
13 'y, -x, z+1/2'
14 '-y, x, z+1/2'
15 '-x, -y, z'
16 'x, y, z'
loop_
_atom_type_symbol
_atom_type_oxidation_number
Sr2+ 2
Li1+ 1
N3- -3
loop_
_atom_site_label
_atom_site_type_symbol
_atom_site_symmetry_multiplicity
_atom_site_Wyckoff_symbol
_atom_site_fract_x
_atom_site_fract_y
_atom_site_fract_z
_atom_site_B_iso_or_equiv
_atom_site_occupancy
_atom_site_attached_hydrogens
Sr1 Sr2+ 2 e 0 0 0.25 0.0046(4) 1. 0
Li1 Li1+ 2 b 0.5 0.5 0 0.0145(57) 1. 0
N1 N3- 2 c 0 0.5 0 0.0042(22) 1. 0
#End of TTdata_87414-ICSD