
#(C) 2017 by FIZ Karlsruhe - Leibniz Institute for Information Infrastructure.  All rights reserved.
data_87594-ICSD
_database_code_ICSD 87594
_audit_creation_date 2000-12-16
_audit_update_record 2005-10-01
_chemical_name_systematic 'Lithium pentachlorodiytterbate(II)'
_chemical_formula_structural 'Li (Yb2 Cl5)'
_chemical_formula_sum 'Cl5 Li1 Yb2'
_chemical_name_structure_type FeU2S5
_exptl_crystal_density_diffrn 5.05
_publ_section_title
'Crystal structure of lithium pentachlorodiytterbate(II), Li Yb2 Cl5'
loop_
_citation_id
_citation_journal_full
_citation_year
_citation_journal_volume
_citation_page_first
_citation_page_last
_citation_journal_id_ASTM
primary 'Zeitschrift fuer Kristallographie (1979-2010)' 1995 210 144 144 ZEKRDZ
loop_
_publ_author_name
'Schleid, T.'
'Meyer, G.'
_cell_length_a 15.225(1)
_cell_length_b 6.4752(5)
_cell_length_c 7.0996
_cell_angle_alpha 90.
_cell_angle_beta 95.396(7)
_cell_angle_gamma 90.
_cell_volume 696.81
_cell_formula_units_Z 4
_symmetry_space_group_name_H-M 'C 1 2/c 1'
_symmetry_Int_Tables_number 15
_refine_ls_R_factor_all 0.03
loop_
_symmetry_equiv_pos_site_id
_symmetry_equiv_pos_as_xyz
1 'x, -y, z+1/2'
2 '-x, -y, -z'
3 '-x, y, -z+1/2'
4 'x, y, z'
5 'x+1/2, -y+1/2, z+1/2'
6 '-x+1/2, -y+1/2, -z'
7 '-x+1/2, y+1/2, -z+1/2'
8 'x+1/2, y+1/2, z'
loop_
_atom_type_symbol
_atom_type_oxidation_number
Li1+ 1
Yb2+ 2
Cl1- -1
loop_
_atom_site_label
_atom_site_type_symbol
_atom_site_symmetry_multiplicity
_atom_site_Wyckoff_symbol
_atom_site_fract_x
_atom_site_fract_y
_atom_site_fract_z
_atom_site_B_iso_or_equiv
_atom_site_occupancy
_atom_site_attached_hydrogens
Li1 Li1+ 4 c 0.25 0.25 0 . 1. 0
Yb1 Yb2+ 8 f 0.39658(2) 0.27244(4) 0.43243(4) . 1. 0
Cl1 Cl1- 8 f 0.2195(1) 0.0705(2) 0.3161(2) . 1. 0
Cl2 Cl1- 8 f 0.4086(1) 0.1217(2) 0.0740(2) . 1. 0
Cl3 Cl1- 4 e 0 0.0674(3) 0.25 . 1. 0
loop_
_atom_site_aniso_label
_atom_site_aniso_type_symbol
_atom_site_aniso_U_11
_atom_site_aniso_U_22
_atom_site_aniso_U_33
_atom_site_aniso_U_12
_atom_site_aniso_U_13
_atom_site_aniso_U_23
Li1 Li1+ 0.014(8) 0.03(1) 0.021(7) -.009(9) -.012(6) 0.001(8)
Yb1 Yb2+ 0.0157(2) 0.0177(2) 0.0147(1) -.0019(2) 0.00324(9) -.0008(1)
Cl1 Cl1- 0.0129(8) 0.0193(8) 0.0189(7) 0.0014(7) 0.0040(6) 0.0006(6)
Cl2 Cl1- 0.0154(9) 0.0194(8) 0.0200(8) -.0043(7) 0.0040(7) -.0048(6)
Cl3 Cl1- 0.015(1) 0.018(1) 0.017(1) 0 0.0037(9) 0
#End of TTdata_87594-ICSD