
#(C) 2018 by FIZ Karlsruhe - Leibniz Institute for Information Infrastructure.  All rights reserved.
data_87707-ICSD
_database_code_ICSD 87707
_audit_creation_date 2000-12-16
_chemical_name_systematic 'Magnesium lithium scandium catena-disilicate *'
_chemical_formula_structural '(Mg1.54 Li0.23 Sc0.23) (Si2 O6)'
_chemical_formula_sum 'Li0.23 Mg1.54 O6 Sc0.23 Si2'
_chemical_name_structure_type AlFeO3
_chemical_name_mineral Unnamed_Pyroxene
_exptl_crystal_density_diffrn 3.36
_cell_measurement_pressure 7930000.
_publ_section_title

;
A new pyroxene structure at high pressure: single-crystal X-ray and Raman
study of the Pbcn-P21cn phase transition in protopyroxene
;
loop_
_citation_id
_citation_journal_full
_citation_year
_citation_journal_volume
_citation_page_first
_citation_page_last
_citation_journal_id_ASTM
primary 'American Mineralogist' 1999 84 245 256 AMMIAY
loop_
_publ_author_name
'Yang, H.-X.'
'Finger, L.W.'
'Conrad, P.G.'
'Prewitt, C.T.'
'Hazen, R.M.'
_cell_length_a 9.0219(7)
_cell_length_b 8.6711(6)
_cell_length_c 5.0898(4)
_cell_angle_alpha 90.
_cell_angle_beta 90.
_cell_angle_gamma 90.
_cell_volume 398.17
_cell_formula_units_Z 4
_symmetry_space_group_name_H-M 'P 21 c n'
_symmetry_Int_Tables_number 33
_refine_ls_R_factor_all 0.033
loop_
_symmetry_equiv_pos_site_id
_symmetry_equiv_pos_as_xyz
1 'x, -y+1/2, z+1/2'
2 'x+1/2, y+1/2, -z+1/2'
3 'x+1/2, -y, -z'
4 'x, y, z'
loop_
_atom_type_symbol
_atom_type_oxidation_number
Mg2+ 2
Li1+ 1
Sc3+ 3
Mg2+ 2
Li1+ 1
Sc3+ 3
Si4+ 4
O2- -2
loop_
_atom_site_label
_atom_site_type_symbol
_atom_site_symmetry_multiplicity
_atom_site_Wyckoff_symbol
_atom_site_fract_x
_atom_site_fract_y
_atom_site_fract_z
_atom_site_B_iso_or_equiv
_atom_site_occupancy
_atom_site_attached_hydrogens
Mg1 Mg2+ 4 a 0 0.3477(2) 0.7105(4) 0.58(3) 0.77 0
Li1 Li1+ 4 a 0 0.3477(2) 0.7105(4) 0.58(3) 0.115 0
Sc1 Sc3+ 4 a 0 0.3477(2) 0.7105(4) 0.58(3) 0.115 0
Mg2 Mg2+ 4 a 0.0120(5) 0.5166(3) 0.2103(6) 0.74(5) 0.77 0
Li2 Li1+ 4 a 0.0120(5) 0.5166(3) 0.2103(6) 0.74(5) 0.115 0
Sc2 Sc3+ 4 a 0.0120(5) 0.5166(3) 0.2103(6) 0.74(5) 0.115 0
Si1 Si4+ 4 a 0.7021(4) 0.1604(3) 0.8567(3) 0.43(3) 1. 0
Si2 Si4+ 4 a 0.3001(4) 0.3386(3) 0.0682(3) 0.45(3) 1. 0
O1 O2- 4 a 0.8806(7) 0.1593(7) 0.8718(8) 0.32(9) 1. 0
O2 O2- 4 a 0.1234(7) 0.3341(8) 0.0547(9) 0.46(9) 1. 0
O3 O2- 4 a 0.6241(7) 0.0094(8) 0.9614(8) 0.48(9) 1. 0
O4 O2- 4 a 0.3758(8) 0.4989(7) 0.1104(9) 0.68(10) 1. 0
O5 O2- 4 a 0.6436(7) 0.1978(7) 0.5548(9) 0.56(10) 1. 0
O6 O2- 4 a 0.3617(7) 0.2093(6) 0.2741(8) 0.47(9) 1. 0
#End of TTdata_87707-ICSD