
#(C) 2018 by FIZ Karlsruhe - Leibniz Institute for Information Infrastructure.  All rights reserved.
data_87704-ICSD
_database_code_ICSD 87704
_audit_creation_date 2000-12-16
_audit_update_record 2010-08-01
_chemical_name_systematic
'Magnesium lithium scandium disilicate (1.54/0.23/0.23/1)'
_chemical_formula_structural '(Mg1.54 Li0.23 Sc0.23) (Si2 O6)'
_chemical_formula_sum 'Li0.23 Mg1.54 O6 Sc0.23 Si2'
_chemical_name_structure_type AlFeO3
_chemical_name_mineral Unnamed_Pyroxene
_exptl_crystal_density_diffrn 3.22
_cell_measurement_pressure 2500000.
_publ_section_title

;
A new pyroxene structure at high pressure: Single-crystal X-ray and Raman
study of the Pbcn-P21cn phase transition in protopyroxene
;
loop_
_citation_id
_citation_journal_full
_citation_year
_citation_journal_volume
_citation_page_first
_citation_page_last
_citation_journal_id_ASTM
primary 'American Mineralogist' 1999 84 245 256 AMMIAY
loop_
_publ_author_name
'Yang, H.-X.'
'Finger, L.W.'
'Conrad, P.G.'
'Prewitt, C.T.'
'Hazen, R.M.'
_cell_length_a 9.1167(4)
_cell_length_b 8.7857(4)
_cell_length_c 5.1837(2)
_cell_angle_alpha 90.
_cell_angle_beta 90.
_cell_angle_gamma 90.
_cell_volume 415.2
_cell_formula_units_Z 4
_symmetry_space_group_name_H-M 'P 21 c n'
_symmetry_Int_Tables_number 33
_refine_ls_R_factor_all 0.03
loop_
_symmetry_equiv_pos_site_id
_symmetry_equiv_pos_as_xyz
1 'x, -y+1/2, z+1/2'
2 'x+1/2, y+1/2, -z+1/2'
3 'x+1/2, -y, -z'
4 'x, y, z'
loop_
_atom_type_symbol
_atom_type_oxidation_number
Mg2+ 2
Li1+ 1
Sc3+ 3
Mg2+ 2
Li1+ 1
Sc3+ 3
Si4+ 4
O2- -2
loop_
_atom_site_label
_atom_site_type_symbol
_atom_site_symmetry_multiplicity
_atom_site_Wyckoff_symbol
_atom_site_fract_x
_atom_site_fract_y
_atom_site_fract_z
_atom_site_B_iso_or_equiv
_atom_site_occupancy
_atom_site_attached_hydrogens
Mg1 Mg2+ 4 a 0 0.3490(2) 0.7190(3) 0.54(3) 0.77 0
Li1 Li1+ 4 a 0 0.3490(2) 0.7190(3) 0.54(3) 0.115 0
Sc1 Sc3+ 4 a 0 0.3490(2) 0.7190(3) 0.54(3) 0.115 0
Mg2 Mg2+ 4 a 0.0061(6) 0.5130(3) 0.2183(5) 0.71(5) 0.77 0
Li2 Li1+ 4 a 0.0061(6) 0.5130(3) 0.2183(5) 0.71(5) 0.115 0
Sc2 Sc3+ 4 a 0.0061(6) 0.5130(5) 0.2183(5) 0.71(5) 0.115 0
Si1 Si4+ 4 a 0.7019(3) 0.1611(3) 0.8700(3) 0.39(3) 1. 0
Si2 Si4+ 4 a 0.2987(4) 0.3376(3) 0.0702(3) 0.43(3) 1. 0
O1 O2- 4 a 0.8801(7) 0.1600(8) 0.8815(7) 0.51(9) 1. 0
O2 O2- 4 a 0.1238(7) 0.3364(9) 0.0591(8) 0.47(9) 1. 0
O3 O2- 4 a 0.6227(7) 0.0085(8) 0.9578(8) 0.63(9) 1. 0
O4 O2- 4 a 0.3756(8) 0.4968(7) 0.1015(8) 0.77(9) 1. 0
O5 O2- 4 a 0.6463(6) 0.2076(6) 0.5788(8) 0.80(9) 1. 0
O6 O2- 4 a 0.3581(6) 0.2159(6) 0.2802(7) 0.32(9) 1. 0
#End of TTdata_87704-ICSD