
#(C) 2018 by FIZ Karlsruhe - Leibniz Institute for Information Infrastructure.  All rights reserved.
data_87708-ICSD
_database_code_ICSD 87708
_audit_creation_date 2000-12-16
_chemical_name_systematic 'Magnesium lithium scandium catena-disilicate *'
_chemical_formula_structural '(Mg1.54 Li0.23 Sc0.23) (Si2 O6)'
_chemical_formula_sum 'Li0.23 Mg1.54 O6 Sc0.23 Si2'
_chemical_name_structure_type AlFeO3
_chemical_name_mineral Unnamed_Pyroxene
_exptl_crystal_density_diffrn 3.4
_cell_measurement_pressure 9980000.
_publ_section_title

;
A new pyroxene structure at high pressure: single-crystal X-ray and Raman
study of the Pbcn-P21cn phase transition in protopyroxene
;
loop_
_citation_id
_citation_journal_full
_citation_year
_citation_journal_volume
_citation_page_first
_citation_page_last
_citation_journal_id_ASTM
primary 'American Mineralogist' 1999 84 245 256 AMMIAY
loop_
_publ_author_name
'Yang, H.-X.'
'Finger, L.W.'
'Conrad, P.G.'
'Prewitt, C.T.'
'Hazen, R.M.'
_cell_length_a 8.9921(8)
_cell_length_b 8.6310(7)
_cell_length_c 5.0659(5)
_cell_angle_alpha 90.
_cell_angle_beta 90.
_cell_angle_gamma 90.
_cell_volume 393.17
_cell_formula_units_Z 4
_symmetry_space_group_name_H-M 'P 21 c n'
_symmetry_Int_Tables_number 33
_refine_ls_R_factor_all 0.034
loop_
_symmetry_equiv_pos_site_id
_symmetry_equiv_pos_as_xyz
1 'x, -y+1/2, z+1/2'
2 'x+1/2, y+1/2, -z+1/2'
3 'x+1/2, -y, -z'
4 'x, y, z'
loop_
_atom_type_symbol
_atom_type_oxidation_number
Mg2+ 2
Li1+ 1
Sc3+ 3
Mg2+ 2
Li1+ 1
Sc3+ 3
Si4+ 4
O2- -2
loop_
_atom_site_label
_atom_site_type_symbol
_atom_site_symmetry_multiplicity
_atom_site_Wyckoff_symbol
_atom_site_fract_x
_atom_site_fract_y
_atom_site_fract_z
_atom_site_B_iso_or_equiv
_atom_site_occupancy
_atom_site_attached_hydrogens
Mg1 Mg2+ 4 a 0 0.3468(3) 0.7087(4) 0.51(4) 0.77 0
Li1 Li1+ 4 a 0 0.3468(3) 0.7087(4) 0.51(4) 0.115 0
Sc1 Sc3+ 4 a 0 0.3468(3) 0.7087(4) 0.51(4) 0.115 0
Mg2 Mg2+ 4 a 0.0127(5) 0.5164(4) 0.2090(6) 0.68(6) 0.77 0
Li2 Li1+ 4 a 0.0127(5) 0.5164(4) 0.2090(6) 0.68(6) 0.115 0
Sc2 Sc3+ 4 a 0.0127(5) 0.5164(4) 0.2090(6) 0.68(6) 0.115 0
Si1 Si4+ 4 a 0.7016(5) 0.1601(3) 0.8545(4) 0.44(4) 1. 0
Si2 Si4+ 4 a 0.3006(5) 0.3384(3) 0.0669(3) 0.38(4) 1. 0
O1 O2- 4 a 0.8797(8) 0.1604(8) 0.8692(9) 0.58(10) 1. 0
O2 O2- 4 a 0.1227(8) 0.3333(9) 0.0540(9) 0.46(10) 1. 0
O3 O2- 4 a 0.6239(7) 0.0105(9) 0.9623(9) 0.37(10) 1. 0
O4 O2- 4 a 0.3741(8) 0.4998(8) 0.1109(9) 0.69(10) 1. 0
O5 O2- 4 a 0.6435(7) 0.1955(8) 0.5517(9) 0.6(1) 1. 0
O6 O2- 4 a 0.3633(7) 0.2076(7) 0.2719(9) 0.29(10) 1. 0
#End of TTdata_87708-ICSD