
#(C) 2018 by FIZ Karlsruhe - Leibniz Institute for Information Infrastructure.  All rights reserved.
data_88145-ICSD
_database_code_ICSD 88145
_audit_creation_date 2001-07-16
_chemical_name_systematic 'Lithium iron oxide (0.37/2.17/4)'
_chemical_formula_structural 'Fe0.873 (Li0.365 Fe1.2915) O4'
_chemical_formula_sum 'Fe2.1645 Li0.365 O4'
_exptl_crystal_density_diffrn 4.33
_publ_section_title

;
X-ray powder diffraction study of cation distribution and the (Fd3-m)-P4132
symmetry reduction in (Li0.5 Fe2.5 O4)-(Li Mn2 O4) spinel solid solutions
;
loop_
_citation_id
_citation_journal_full
_citation_year
_citation_journal_volume
_citation_page_first
_citation_page_last
_citation_journal_id_ASTM
primary 'Journal of Alloys and Compounds' 1999 286 203 207 JALCEU
loop_
_publ_author_name
'Wolska, E.'
'Piszora, P.'
'Stempin, K.'
'Catlow, C.R.A.'
_cell_length_a 8.31437(22)
_cell_length_b 8.31437(22)
_cell_length_c 8.31437(22)
_cell_angle_alpha 90.
_cell_angle_beta 90.
_cell_angle_gamma 90.
_cell_volume 574.76
_cell_formula_units_Z 8
_symmetry_space_group_name_H-M 'P 43 3 2'
_symmetry_Int_Tables_number 212
_refine_ls_R_factor_all 0.031
loop_
_symmetry_equiv_pos_site_id
_symmetry_equiv_pos_as_xyz
1 'z+1/4, y+3/4, -x+3/4'
2 '-z+3/4, y+1/4, x+3/4'
3 'y+1/4, x+3/4, -z+3/4'
4 '-y+3/4, x+1/4, z+3/4'
5 'x+1/4, z+3/4, -y+3/4'
6 '-x+3/4, z+1/4, y+3/4'
7 'z+3/4, -y+3/4, x+1/4'
8 '-z+1/4, -y+1/4, -x+1/4'
9 'y+3/4, -x+3/4, z+1/4'
10 '-y+1/4, -x+1/4, -z+1/4'
11 'x+3/4, -z+3/4, y+1/4'
12 '-x+1/4, -z+1/4, -y+1/4'
13 '-y+1/2, -z, x+1/2'
14 '-y, z+1/2, -x+1/2'
15 'y+1/2, -z+1/2, -x'
16 'y, z, x'
17 'z+1/2, -x+1/2, -y'
18 '-z+1/2, -x, y+1/2'
19 '-z, x+1/2, -y+1/2'
20 'z, x, y'
21 '-x+1/2, -y, z+1/2'
22 '-x, y+1/2, -z+1/2'
23 'x+1/2, -y+1/2, -z'
24 'x, y, z'
loop_
_atom_type_symbol
_atom_type_oxidation_number
Li1+ 1
Fe3+ 3
O2- -2
loop_
_atom_site_label
_atom_site_type_symbol
_atom_site_symmetry_multiplicity
_atom_site_Wyckoff_symbol
_atom_site_fract_x
_atom_site_fract_y
_atom_site_fract_z
_atom_site_B_iso_or_equiv
_atom_site_occupancy
_atom_site_attached_hydrogens
Li1 Li1+ 4 b 0.625 0.625 0.625 1.97 0.73(14) 0
Fe1 Fe3+ 12 d 0.125 0.375 0.875 1.97 0.861(24) 0
Fe2 Fe3+ 8 c 0 0 0 1.97 0.873(17) 0
O1 O2- 8 c 0.3787(9) 0.3787(9) 0.3787(9) 1.97 1. 0
O2 O2- 24 e 0.8787(9) 0.8787(9) 0.3787(9) 1.97 1. 0
#End of TTdata_88145-ICSD