
#(C) 2017 by FIZ Karlsruhe - Leibniz Institute for Information Infrastructure.  All rights reserved.
data_88371-ICSD
_database_code_ICSD 88371
_audit_creation_date 2001-07-16
_chemical_name_systematic
'Potassium lanthanum erbium lithium fluoride (5/0.95/0.05/2/10)'
_chemical_formula_structural 'K5 (La0.95 Er0.05) Li2 F10'
_chemical_formula_sum 'Er0.05 F10 K5 La0.95 Li2'
_chemical_name_structure_type K5Li2NdF10
_exptl_crystal_density_diffrn 3.17
_publ_section_title
'K5 La Li2 F10 : Er(3+) crystals. Growth, structure and optical properties'
loop_
_citation_id
_citation_journal_full
_citation_year
_citation_journal_volume
_citation_page_first
_citation_page_last
_citation_journal_id_ASTM
primary 'Journal of Physics: Condensed Matter' 1999 11 5245 5256 JCOMEL
loop_
_publ_author_name
'Dominiak-Dzik, G.'
'Golab, S.'
'Baluka, M.'
'Pietraszko, A.'
'Hermanowicz, K.'
_cell_length_a 20.77499
_cell_length_b 7.822
_cell_length_c 6.963
_cell_angle_alpha 90.
_cell_angle_beta 90.
_cell_angle_gamma 90.
_cell_volume 1131.5
_cell_formula_units_Z 4
_symmetry_space_group_name_H-M 'P n m a'
_symmetry_Int_Tables_number 62
loop_
_symmetry_equiv_pos_site_id
_symmetry_equiv_pos_as_xyz
1 'x+1/2, y, -z+1/2'
2 'x, -y+1/2, z'
3 '-x+1/2, y+1/2, z+1/2'
4 '-x, -y, -z'
5 '-x+1/2, -y, z+1/2'
6 '-x, y+1/2, -z'
7 'x+1/2, -y+1/2, -z+1/2'
8 'x, y, z'
loop_
_atom_type_symbol
_atom_type_oxidation_number
La3+ 3
Er3+ 3
K1+ 1
F1- -1
Li1+ 1
loop_
_atom_site_label
_atom_site_type_symbol
_atom_site_symmetry_multiplicity
_atom_site_Wyckoff_symbol
_atom_site_fract_x
_atom_site_fract_y
_atom_site_fract_z
_atom_site_B_iso_or_equiv
_atom_site_occupancy
_atom_site_attached_hydrogens
La1 La3+ 4 c 0.1076(1) 0.25 0.2406(1) 0.007(1) 0.95 0
Er1 Er3+ 4 c 0.1076(1) 0.25 0.2406(1) 0.007(1) 0.05 0
K1 K1+ 8 d 0.0437(1) 0.0215(1) 0.7528(1) 0.015(1) 1. 0
K2 K1+ 4 c 0.8592(1) 0.25 0.5577(2) 0.018(1) 1. 0
K3 K1+ 8 d 0.2168(1) 0.9723(1) 0.9250(1) 0.017(1) 1. 0
F1 F1- 4 c 0.8746(2) 0.25 0.1855(5) 0.016(1) 1. 0
F2 F1- 4 c 0.0178(2) 0.25 0.4611(5) 0.018(1) 1. 0
F3 F1- 4 c 0.0085(2) 0.25 0.0450(4) 0.014(1) 1. 0
F4 F1- 8 d 0.1491(1) 0.0734(4) 0.5095(3) 0.015(1) 1. 0
F5 F1- 4 c 0.2214(2) 0.25 0.1910(5) 0.019(1) 1. 0
F6 F1- 4 c 0.1315(2) 0.25 0.8927(4) 0.016(1) 1. 0
F7 F1- 4 c 0.7602(2) 0.25 0.7909(5) 0.016(1) 1. 0
F8 F1- 8 d 0.0899(1) 0.9548(3) 0.1591(4) 0.019(1) 1. 0
Li1 Li1+ 4 c 0.6750(5) 0.25 0.8386(13) 0.015(2) 1. 0
Li2 Li1+ 4 c 0.9226(5) 0.25 0.9665(14) 0.015(2) 1. 0
#End of TTdata_88371-ICSD