
#(C) 2018 by FIZ Karlsruhe - Leibniz Institute for Information Infrastructure.  All rights reserved.
data_88465-ICSD
_database_code_ICSD 88465
_audit_creation_date 2001-07-16
_chemical_name_systematic
'Lithium lanthanum niobium titanium oxide (2/1.72/0.66/2.34/10)'
_chemical_formula_structural 'Li2 La1.72 ((Nb0.66 Ti2.34) O10)'
_chemical_formula_sum 'La1.72 Li2 Nb0.66 O10 Ti2.34'
_exptl_crystal_density_diffrn 4.94
_publ_section_title

;
Synthesis and structure of novel layered perovskite oxides: Li2 La1.78 Nb0.66
Ti2.34 O10, and a new family, Li2 (A0.5n Bn O3n+1)
;
loop_
_citation_id
_citation_journal_full
_citation_year
_citation_journal_volume
_citation_page_first
_citation_page_last
_citation_journal_id_ASTM
primary 'Journal of Materials Chemistry' 1999 9 3093 3100 JMACEP
loop_
_publ_author_name
'Bhuvanesh, N.S.P.'
'Crosnier-Lopez, M.P.'
'Duroy, H.'
'Fourquet, J.L.'
_cell_length_a 5.4730(23)
_cell_length_b 5.4730(23)
_cell_length_c 26.3310(70)
_cell_angle_alpha 90.
_cell_angle_beta 90.
_cell_angle_gamma 90.
_cell_volume 788.71
_cell_formula_units_Z 4
_symmetry_space_group_name_H-M 'P 42/n c m Z'
_symmetry_Int_Tables_number 138
_refine_ls_R_factor_all 0.035
loop_
_symmetry_equiv_pos_site_id
_symmetry_equiv_pos_as_xyz
1 'y+1/2, x+1/2, -z'
2 'y+1/2, -x, -z+1/2'
3 '-y, x+1/2, -z+1/2'
4 '-y, -x, -z'
5 'x+1/2, y+1/2, -z'
6 '-x, y+1/2, -z+1/2'
7 'x+1/2, -y, -z+1/2'
8 '-x, -y, -z'
9 '-y+1/2, -x+1/2, z'
10 '-y+1/2, x, z+1/2'
11 'y, -x+1/2, z+1/2'
12 'y, x, z'
13 '-x+1/2, -y+1/2, z'
14 'x, -y+1/2, z+1/2'
15 '-x+1/2, y, z+1/2'
16 'x, y, z'
loop_
_atom_type_symbol
_atom_type_oxidation_number
Nb5+ 5
Ti4+ 4
Nb5+ 5
Ti4+ 4
La3+ 3
O2- -2
Li1+ 1
loop_
_atom_site_label
_atom_site_type_symbol
_atom_site_symmetry_multiplicity
_atom_site_Wyckoff_symbol
_atom_site_fract_x
_atom_site_fract_y
_atom_site_fract_z
_atom_site_B_iso_or_equiv
_atom_site_occupancy
_atom_site_attached_hydrogens
Nb1 Nb5+ 8 i 0.5016(1) 0.5016(1) 0.15832(2) 0.0102(2) 0.31(1) 0
Ti1 Ti4+ 8 i 0.5016(1) 0.5016(1) 0.15832(2) 0.0102(2) 0.69(1) 0
Nb2 Nb5+ 4 d 0 0 0 0.0102(4) 0.04(1) 0
Ti2 Ti4+ 4 d 0 0 0 0.0102(4) 0.96(1) 0
La1 La3+ 8 i 0.4972(1) 0.0028(1) 0.07962(1) 0.0119(2) 0.86(1) 0
O1 O2- 4 e 0.25 0.25 0.1488(4) 0.0167(22) 1. 0
O2 O2- 8 i 0.0112(5) 0.4888(5) 0.2740(2) 0.0179(8) 1. 0
O3 O2- 8 i 0.0189(7) 0.0189(7) 0.0720(2) 0.0211(10) 1. 0
O4 O2- 4 e 0.75 0.75 0.1381(3) 0.0048(12) 1. 0
O5 O2- 8 f 0.75 0.25 0.1478(3) 0.0147(17) 1. 0
O6 O2- 8 g 0.1918(14) 0.6918(14) 0 0.0109(21) 0.5 0
O7 O2- 8 i 0.2845(19) 0.2155(19) 0.9945(5) 0.0212(37) 0.5 0
Li1 Li1+ 4 e 0.75 0.75 0.2563(6) 0.0193(19) 1. 0
Li2 Li1+ 4 b 0.75 0.25 0.25 0.0193(19) 1. 0
#End of TTdata_88465-ICSD