
#(C) 2018 by FIZ Karlsruhe - Leibniz Institute for Information Infrastructure.  All rights reserved.
data_88640-ICSD
_database_code_ICSD 88640
_audit_creation_date 2001-07-16
_chemical_name_systematic 'Lithium vanadium(IV) vanadium oxide - epsilon'
_chemical_formula_structural 'Li V2 O5'
_chemical_formula_sum 'Li1 O5 V2'
_chemical_name_structure_type NaV2O5
_exptl_crystal_density_diffrn 3.32
_cell_measurement_temperature 413.
_publ_section_title

;
The delta - epsilon - gamma Li V2 O5 "high temperature" phase transitions
evidenced by synchrotron X-ray powder diffraction analysis
;
loop_
_citation_id
_citation_journal_full
_citation_year
_citation_journal_volume
_citation_page_first
_citation_page_last
_citation_journal_id_ASTM
primary 'Journal of Solid State Chemistry' 1999 146 103 109 JSSCBI
loop_
_publ_author_name
'Satto, C.'
'Sciau, P.'
'Dooryhee, E.'
'Galy, J.'
'Millet, P.'
_cell_length_a 11.3552(6)
_cell_length_b 3.5732(2)
_cell_length_c 4.6548(3)
_cell_angle_alpha 90.
_cell_angle_beta 90.
_cell_angle_gamma 90.
_cell_volume 188.87
_cell_formula_units_Z 2
_symmetry_space_group_name_H-M 'P 21 m n'
_symmetry_Int_Tables_number 31
_refine_ls_R_factor_all 0.026
loop_
_symmetry_equiv_pos_site_id
_symmetry_equiv_pos_as_xyz
1 'x+1/2, y+1/2, -z'
2 'x+1/2, -y+1/2, -z'
3 'x, -y, z'
4 'x, y, z'
loop_
_atom_type_symbol
_atom_type_oxidation_number
V4+ 4.5
O2- -2
Li1+ 1
loop_
_atom_site_label
_atom_site_type_symbol
_atom_site_symmetry_multiplicity
_atom_site_Wyckoff_symbol
_atom_site_fract_x
_atom_site_fract_y
_atom_site_fract_z
_atom_site_B_iso_or_equiv
_atom_site_occupancy
_atom_site_attached_hydrogens
V1 V4+ 2 a 0.5999(1) 0.5 0.1131(8) 0.75(2) 1. 0
V2 V4+ 2 a 0.4004(1) 0 0.8998(8) 0.75(2) 1. 0
O1 O2- 2 a 0.621(1) 0.5 0.466(3) 2.3(1) 1. 0
O2 O2- 2 a 0.383(1) 0 0.568(3) 2.3(1) 1. 0
O3 O2- 2 a 0.424(1) 0.5 0.000(2) 0.49(8) 1. 0
O4 O2- 2 a 0.571(1) 0 -.0445(2) 0.49(8) 1. 0
O5 O2- 2 a 0.254(2) 0 0.0285(9) 0.8(1) 1. 0
Li1 Li1+ 2 a 0.218(2) 0.5 0.280(4) 4.1(7) 1. 0
#End of TTdata_88640-ICSD