
#(C) 2018 by FIZ Karlsruhe - Leibniz Institute for Information Infrastructure.  All rights reserved.
data_88710-ICSD
_database_code_ICSD 88710
_audit_creation_date 2001-07-16
_chemical_name_systematic 'Lithium phosphide (1/5)'
_chemical_formula_structural 'Li P5'
_chemical_formula_sum 'Li1 P5'
_chemical_name_structure_type LiP5
_exptl_crystal_density_diffrn 2.39
_publ_section_title

;
Solid state NMR connectivity studies in dipolarly coupled inorganic networks:
crystal structure and site assignments for the lithium polyphosphide Li P5
;
loop_
_citation_id
_citation_journal_full
_citation_year
_citation_journal_volume
_citation_page_first
_citation_page_last
_citation_journal_id_ASTM
primary 'Journal of Solid State Chemistry' 1999 147 341 349 JSSCBI
loop_
_publ_author_name
'Schmedt auf der Guenne, J.'
'Kaczmarek, S.'
'van Wuellen, L.'
'Eckert, H.'
'Paschke, D.'
'Foecker, A.J.'
'Jeitschko, W.'
_cell_length_a 10.437(1)
_cell_length_b 6.5892(8)
_cell_length_c 6.5490(9)
_cell_angle_alpha 90.
_cell_angle_beta 90.
_cell_angle_gamma 90.
_cell_volume 450.38
_cell_formula_units_Z 4
_symmetry_space_group_name_H-M 'P n a 21'
_symmetry_Int_Tables_number 33
_refine_ls_R_factor_all 0.02
loop_
_symmetry_equiv_pos_site_id
_symmetry_equiv_pos_as_xyz
1 'x+1/2, -y+1/2, z'
2 '-x+1/2, y+1/2, z+1/2'
3 '-x, -y, z+1/2'
4 'x, y, z'
loop_
_atom_type_symbol
_atom_type_oxidation_number
Li1+ 1
P0+ -0.2
loop_
_atom_site_label
_atom_site_type_symbol
_atom_site_symmetry_multiplicity
_atom_site_Wyckoff_symbol
_atom_site_fract_x
_atom_site_fract_y
_atom_site_fract_z
_atom_site_B_iso_or_equiv
_atom_site_occupancy
_atom_site_attached_hydrogens
Li1 Li1+ 4 a 0.0780(3) 0.0452(6) 0.3881(7) . 1. 0
P1 P0+ 4 a 0.41428(3) 0.08698(4) 0.25729(4) . 1. 0
P2 P0+ 4 a 0.09233(3) 0.59825(2) 0.24282(4) . 1. 0
P3 P0+ 4 a 0.19363(2) 0.42261(3) 0 . 1. 0
P4 P0+ 4 a 0.19116(2) 0.44326(3) 0.49964(8) . 1. 0
P5 P0+ 4 a 0.12858(2) 0.10915(3) 0.01523(8) . 1. 0
loop_
_atom_site_aniso_label
_atom_site_aniso_type_symbol
_atom_site_aniso_B_11
_atom_site_aniso_B_22
_atom_site_aniso_B_33
_atom_site_aniso_B_12
_atom_site_aniso_B_13
_atom_site_aniso_B_23
Li1 Li1+ 2.01(10) 4.40(15) 3.50(17) 0.06(10) 0.74(11) 1.64(15)
P1 P0+ 0.769(7) 0.803(8) 0.575(9) -.017(6) 0.030(8) 0.051(10)
P2 P0+ 0.808(7) 0.774(9) 0.572(9) 0.004(5) 0.024(9) -.011(10)
P3 P0+ 0.701(6) 0.810(6) 0.557(6) 0.042(4) 0.013(10) -.022(12)
P4 P0+ 0.754(6) 0.818(6) 0.583(6) -.090(5) 0.013(10) 0.018(11)
P5 P0+ 0.644(6) 0.824(6) 1.878(13) 0.034(5) -.085(10) -.002(10)
#End of TTdata_88710-ICSD