
#(C) 2018 by FIZ Karlsruhe - Leibniz Institute for Information Infrastructure.  All rights reserved.
data_88785-ICSD
_database_code_ICSD 88785
_audit_creation_date 2001-07-16
_audit_update_record 2003-10-01
_chemical_name_systematic 'Dilithium phyllo-germanotellurate'
_chemical_formula_structural 'Li2 (Ge Te O6)'
_chemical_formula_sum 'Ge1 Li2 O6 Te1'
_chemical_name_structure_type Ni3TeO6
_exptl_crystal_density_diffrn 4.96
_publ_section_title

;
Structural studies and order-disorder phenomenon in a series of new quaternary
tellurates of the type A(2+) M(4+) Te(6+) O6 and A(1+)2 M(4+) Te(6+) O6
;
loop_
_citation_id
_citation_journal_full
_citation_year
_citation_journal_volume
_citation_page_first
_citation_page_last
_citation_journal_id_ASTM
primary 'Journal of Solid State Chemistry' 1999 147 99 116 JSSCBI
loop_
_publ_author_name
'Woodward, P.M.'
'Sleight, A.W.'
'Du, L.-S.'
'Grey, C.P.'
_cell_length_a 5.00795(5)
_cell_length_b 5.00795(5)
_cell_length_c 14.3422(2)
_cell_angle_alpha 90.
_cell_angle_beta 90.
_cell_angle_gamma 120.
_cell_volume 311.51
_cell_formula_units_Z 3
_symmetry_space_group_name_H-M 'R 3 H'
_symmetry_Int_Tables_number 146
_refine_ls_R_factor_all 0.05
loop_
_symmetry_equiv_pos_site_id
_symmetry_equiv_pos_as_xyz
1 '-x+y, -x, z'
2 '-y, x-y, z'
3 'x, y, z'
4 '-x+y+2/3, -x+1/3, z+1/3'
5 '-y+2/3, x-y+1/3, z+1/3'
6 'x+2/3, y+1/3, z+1/3'
7 '-x+y+1/3, -x+2/3, z+2/3'
8 '-y+1/3, x-y+2/3, z+2/3'
9 'x+1/3, y+2/3, z+2/3'
loop_
_atom_type_symbol
_atom_type_oxidation_number
Li1+ 1
Ge4+ 4
Te6+ 6
Ge4+ 4
O2- -2
loop_
_atom_site_label
_atom_site_type_symbol
_atom_site_symmetry_multiplicity
_atom_site_Wyckoff_symbol
_atom_site_fract_x
_atom_site_fract_y
_atom_site_fract_z
_atom_site_B_iso_or_equiv
_atom_site_occupancy
_atom_site_attached_hydrogens
Li1 Li1+ 3 a 0 0 0.132(5) 3.2(3) 1. 0
Li2 Li1+ 3 a 0 0 0.866(5) 3.2(3) 1. 0
Ge1 Ge4+ 3 a 0 0 0.65969(4) 0.355(6) 0.816(8) 0
Te1 Te6+ 3 a 0 0 0.65969(4) 0.355(6) 0.184(8) 0
Te2 Te6+ 3 a 0 0 0.34031(4) 0.355(6) 0.816(8) 0
Ge2 Ge4+ 3 a 0 0 0.34031(4) 0.355(6) 0.184(8) 0
O1 O2- 9 b 0.309(2) -.024(2) 0.2593(8) 0.36(5) 1. 0
O2 O2- 9 b 0.725(2) 0.040(2) 0.7400(9) 0.36(5) 1. 0
#End of TTdata_88785-ICSD