
#(C) 2018 by FIZ Karlsruhe - Leibniz Institute for Information Infrastructure.  All rights reserved.
data_89006-ICSD
_database_code_ICSD 89006
_audit_creation_date 2001-07-16
_chemical_name_systematic 'Lithium dicalcium tritantalate'
_chemical_formula_structural 'Li Ca2 (Ta3 O10)'
_chemical_formula_sum 'Ca2 Li1 O10 Ta3'
_chemical_name_structure_type (Sm,Ce)4(Sm,Ba)Cu6O18-x
_exptl_crystal_density_diffrn 6.24
_publ_section_title

;
Structural chemistry of new ion-exchangeable tantalates with layered
perovskite structure: new Dion-Jacobson phase M Ca2 Ta3 O10 (M = alkali metal)
and Ruddlesden-Popper phase Na2 Ca2 Ta3 O10
;
loop_
_citation_id
_citation_journal_full
_citation_year
_citation_journal_volume
_citation_page_first
_citation_page_last
_citation_journal_id_ASTM
primary 'Materials Research Bulletin' 1999 34 971 982 MRBUAC
loop_
_publ_author_name
'Toda, K.'
'Teranishi, T.'
'Ye, Z.-G.'
'Sato, M.'
'Hinatsu, Y.'
_cell_length_a 3.8515(6)
_cell_length_b 3.8515(6)
_cell_length_c 28.3390(50)
_cell_angle_alpha 90.
_cell_angle_beta 90.
_cell_angle_gamma 90.
_cell_volume 420.38
_cell_formula_units_Z 2
_symmetry_space_group_name_H-M 'I 4/m m m'
_symmetry_Int_Tables_number 139
_refine_ls_R_factor_all 0.032
loop_
_symmetry_equiv_pos_site_id
_symmetry_equiv_pos_as_xyz
1 'y, x, -z'
2 '-y, -x, -z'
3 '-y, x, -z'
4 'y, -x, -z'
5 '-x, y, -z'
6 'x, -y, -z'
7 'x, y, -z'
8 '-x, -y, -z'
9 '-y, -x, z'
10 'y, x, z'
11 'y, -x, z'
12 '-y, x, z'
13 'x, -y, z'
14 '-x, y, z'
15 '-x, -y, z'
16 'x, y, z'
17 'y+1/2, x+1/2, -z+1/2'
18 '-y+1/2, -x+1/2, -z+1/2'
19 '-y+1/2, x+1/2, -z+1/2'
20 'y+1/2, -x+1/2, -z+1/2'
21 '-x+1/2, y+1/2, -z+1/2'
22 'x+1/2, -y+1/2, -z+1/2'
23 'x+1/2, y+1/2, -z+1/2'
24 '-x+1/2, -y+1/2, -z+1/2'
25 '-y+1/2, -x+1/2, z+1/2'
26 'y+1/2, x+1/2, z+1/2'
27 'y+1/2, -x+1/2, z+1/2'
28 '-y+1/2, x+1/2, z+1/2'
29 'x+1/2, -y+1/2, z+1/2'
30 '-x+1/2, y+1/2, z+1/2'
31 '-x+1/2, -y+1/2, z+1/2'
32 'x+1/2, y+1/2, z+1/2'
loop_
_atom_type_symbol
_atom_type_oxidation_number
Li1+ 1
Ca2+ 2
Ta5+ 5
O2- -2
loop_
_atom_site_label
_atom_site_type_symbol
_atom_site_symmetry_multiplicity
_atom_site_Wyckoff_symbol
_atom_site_fract_x
_atom_site_fract_y
_atom_site_fract_z
_atom_site_B_iso_or_equiv
_atom_site_occupancy
_atom_site_attached_hydrogens
Li1 Li1+ 4 d 0 0.5 0.25 0.6(1) 0.5 0
Ca1 Ca2+ 4 e 0 0 0.4236(7) 0.6(1) 1. 0
Ta1 Ta5+ 2 a 0 0 0 0.6(1) 1. 0
Ta2 Ta5+ 4 e 0 0 0.1495(1) 0.6(1) 1. 0
O1 O2- 4 c 0 0.5 0 0.6(1) 1. 0
O2 O2- 4 e 0 0 0.210(2) 0.6(1) 1. 0
O3 O2- 4 e 0 0 0.075(2) 0.6(1) 1. 0
O4 O2- 8 g 0 0.5 0.130(1) 0.6(1) 1. 0
#End of TTdata_89006-ICSD