
#(C) 2018 by FIZ Karlsruhe - Leibniz Institute for Information Infrastructure.  All rights reserved.
data_89001-ICSD
_database_code_ICSD 89001
_audit_creation_date 2001-07-16
_audit_update_record 2016-02-01
_chemical_name_systematic 'Nonacalcium cobalt lithium heptakis(phosphate(V))'
_chemical_formula_structural 'Ca9 Co Li (P O4)7'
_chemical_formula_sum 'Ca9 Co1 Li1 O28 P7'
_chemical_name_structure_type Ca9MgNa(PO4)7
_exptl_crystal_density_diffrn 3.17
_cell_measurement_temperature 297.
_publ_section_title
'Crystal structures of new triple Ca9 Co M (P O4)7 (M = Li, Na, K) phosphates'
loop_
_citation_id
_citation_journal_full
_citation_year
_citation_journal_volume
_citation_page_first
_citation_page_last
_citation_journal_id_ASTM
primary 'Materials Research Bulletin' 1999 34 883 893 MRBUAC
loop_
_publ_author_name
'Belik, A.A.'
'Morozov, V.A.'
'Khasanov, S.S.'
'Lazoryak, B.I.'
_cell_length_a 10.3276(1)
_cell_length_b 10.3276(1)
_cell_length_c 37.1000(10)
_cell_angle_alpha 90.
_cell_angle_beta 90.
_cell_angle_gamma 120.
_cell_volume 3426.92
_cell_formula_units_Z 6
_symmetry_space_group_name_H-M 'R 3 c H'
_symmetry_Int_Tables_number 161
_refine_ls_R_factor_all 0.024
loop_
_symmetry_equiv_pos_site_id
_symmetry_equiv_pos_as_xyz
1 '-x+y, y, z+1/2'
2 'x, x-y, z+1/2'
3 '-y, -x, z+1/2'
4 '-x+y, -x, z'
5 '-y, x-y, z'
6 'x, y, z'
7 '-x+y+2/3, y+1/3, z+5/6'
8 'x+2/3, x-y+1/3, z+5/6'
9 '-y+2/3, -x+1/3, z+5/6'
10 '-x+y+2/3, -x+1/3, z+1/3'
11 '-y+2/3, x-y+1/3, z+1/3'
12 'x+2/3, y+1/3, z+1/3'
13 '-x+y+1/3, y+2/3, z+1/6'
14 'x+1/3, x-y+2/3, z+1/6'
15 '-y+1/3, -x+2/3, z+1/6'
16 '-x+y+1/3, -x+2/3, z+2/3'
17 '-y+1/3, x-y+2/3, z+2/3'
18 'x+1/3, y+2/3, z+2/3'
loop_
_atom_type_symbol
_atom_type_oxidation_number
Ca2+ 2
Li1+ 1
Co2+ 2
P5+ 5
O2- -2
loop_
_atom_site_label
_atom_site_type_symbol
_atom_site_symmetry_multiplicity
_atom_site_Wyckoff_symbol
_atom_site_fract_x
_atom_site_fract_y
_atom_site_fract_z
_atom_site_B_iso_or_equiv
_atom_site_occupancy
_atom_site_attached_hydrogens
Ca1 Ca2+ 18 b 0.7261(5) 0.8576(6) 0.4335(2) 0.41(8) 1. 0
Ca2 Ca2+ 18 b 0.6147(4) 0.8234(6) 0.2319(2) 0.37(9) 1. 0
Ca3 Ca2+ 18 b 0.1242(5) 0.2699(3) 0.3256(2) 1.05(9) 1. 0
Li1 Li1+ 6 a 0 0 0.164(2) 4.(2) 1. 0
Co1 Co2+ 6 a 0 0 0 0.36(9) 1. 0
P1 P5+ 6 a 0 0 0.2658(3) 0.9(2) 1. 0
P2 P5+ 18 b 0.6851(5) 0.8556(8) 0.1347(2) 0.5(1) 1. 0
P3 P5+ 18 b 0.6510(7) 0.8470(8) 0.0320(2) 0.8(2) 1. 0
O1 O2- 6 a 0 0 0.3108(5) 0.22(6) 1. 0
O2 O2- 18 b 0.009(1) 0.866(1) 0.2571(4) 0.22(6) 1. 0
O3 O2- 18 b 0.748(1) 0.927(1) 0.1752(3) 0.22(6) 1. 0
O4 O2- 18 b 0.758(2) 0.769(1) 0.1202(3) 0.22(6) 1. 0
O5 O2- 18 b 0.719(1) 0.002(1) 0.1127(3) 0.22(6) 1. 0
O6 O2- 18 b 0.512(1) 0.761(2) 0.1338(4) 0.22(6) 1. 0
O7 O2- 18 b 0.598(1) 0.948(1) 0.0435(4) 0.22(6) 1. 0
O8 O2- 18 b 0.570(1) 0.698(1) 0.0528(4) 0.22(6) 1. 0
O9 O2- 18 b 0.822(1) 0.924(2) 0.0395(4) 0.22(6) 1. 0
O10 O2- 18 b 0.618(1) 0.818(1) 0.9911(3) 0.22(6) 1. 0
#End of TTdata_89001-ICSD