
#(C) 2018 by FIZ Karlsruhe - Leibniz Institute for Information Infrastructure.  All rights reserved.
data_89241-ICSD
_database_code_ICSD 89241
_audit_creation_date 2001-07-16
_chemical_name_systematic 'Lithium hydroxotrioxodiborate hydrate'
_chemical_formula_structural 'Li (B2 O3 (O H)) (H2 O)'
_chemical_formula_sum 'H3 B2 Li1 O5'
_chemical_name_structure_type LiB2O3(OH)H2O
_exptl_crystal_density_diffrn 1.9
_publ_section_title

;
Structure solution of lithium diborate hydrate: a comparison of powder
diffraction with single-crystal analyses
;
loop_
_citation_id
_citation_journal_full
_citation_year
_citation_journal_volume
_citation_page_first
_citation_page_last
_citation_journal_id_ASTM
primary 'Advances in X-Ray Analysis' 1998 40 393 400 AXRAAA
loop_
_publ_author_name
'Louer, M.'
'Louer, D.'
'Betourne, E.'
'Touboul, M.'
_cell_length_a 9.79(10)
_cell_length_b 8.26(12)
_cell_length_c 9.63(10)
_cell_angle_alpha 90.
_cell_angle_beta 90.
_cell_angle_gamma 90.
_cell_volume 778.73
_cell_formula_units_Z 8
_symmetry_space_group_name_H-M 'P n n a'
_symmetry_Int_Tables_number 52
_refine_ls_R_factor_all 0.05
loop_
_symmetry_equiv_pos_site_id
_symmetry_equiv_pos_as_xyz
1 'x+1/2, -y+1/2, z+1/2'
2 '-x, y+1/2, z+1/2'
3 'x+1/2, y, -z'
4 '-x, -y, -z'
5 '-x+1/2, y+1/2, -z+1/2'
6 'x, -y+1/2, -z+1/2'
7 '-x+1/2, -y, z'
8 'x, y, z'
loop_
_atom_type_symbol
_atom_type_oxidation_number
O2- -2
B3+ 3
Li1+ 1
H1+ 1
loop_
_atom_site_label
_atom_site_type_symbol
_atom_site_symmetry_multiplicity
_atom_site_Wyckoff_symbol
_atom_site_fract_x
_atom_site_fract_y
_atom_site_fract_z
_atom_site_B_iso_or_equiv
_atom_site_occupancy
_atom_site_attached_hydrogens
O1 O2- 8 e 0.8522(2) 0.3215(2) 0.1403(2) 1.02(2) 1. 0
O2 O2- 8 e 0.6791(1) 0.1221(2) 0.1919(2) 0.60(2) 1. 0
O3 O2- 8 e 0.8532(2) 0.0747(2) 0.0146(2) 0.86(2) 1. 0
O4 O2- 8 e -.0016(2) 0.2936(2) -.0501(2) 1.34(2) 1. 0
O5 O2- 8 e 0.1162(2) 0.0677(2) 0.2406(2) 1.82(3) 1. 0
B1 B3+ 4 c 0.75 0 0.1063(3) 0.67(4) 1. 0
B2 B3+ 8 e 0.9002(2) 0.2279(2) 0.0353(2) 0.75(3) 1. 0
B3 B3+ 4 d 0.7627(3) 0.25 0.25 0.66(4) 1. 0
Li1 Li1+ 8 e 0.5496(5) 0.0199(4) 0.3298(5) 1.29(6) 1. 0
H1 H1+ 8 e 0.870(3) -.057(6) 0.853(4) 6.(1) 1. 0
H2 H1+ 8 e 0.865(4) 0.834(8) 0.749(9) 13.(2) 1. 0
H3 H1+ 8 e 0.989(7) 0.214(9) 0.884(4) 12.(2) 1. 0
#End of TTdata_89241-ICSD