
#(C) 2018 by FIZ Karlsruhe - Leibniz Institute for Information Infrastructure.  All rights reserved.
data_89378-ICSD
_database_code_ICSD 89378
_audit_creation_date 2001-07-16
_chemical_name_systematic 'Lithium niobium oxide (0.98/1/2)'
_chemical_formula_structural 'Li0.98 Nb O2'
_chemical_formula_sum 'Li0.98 Nb1 O2'
_chemical_name_structure_type TiAs
_exptl_crystal_density_diffrn 5.66
_publ_section_title
'Superstructure and superconductivity in Li1-x Nb O2 (x=0.7) single crystals'
loop_
_citation_id
_citation_journal_full
_citation_year
_citation_journal_volume
_citation_page_first
_citation_page_last
_citation_journal_id_ASTM
primary 'Physical Review, Serie 3. B - Condensed Matter (18,1978-)' 1999 59 9590
9599 PRBMDO
loop_
_publ_author_name
'Moshopoulou, E.G.'
'Bordet, P.'
'Capponi, J.J.'
_cell_length_a 2.9201(9)
_cell_length_b 2.9201(9)
_cell_length_c 10.459(4)
_cell_angle_alpha 90.
_cell_angle_beta 90.
_cell_angle_gamma 120.
_cell_volume 77.24
_cell_formula_units_Z 2
_symmetry_space_group_name_H-M 'P 63/m m c'
_symmetry_Int_Tables_number 194
_refine_ls_R_factor_all 0.013
loop_
_symmetry_equiv_pos_site_id
_symmetry_equiv_pos_as_xyz
1 'x, x-y, -z+1/2'
2 '-x+y, y, -z+1/2'
3 '-y, -x, -z+1/2'
4 '-x+y, -x, -z+1/2'
5 '-y, x-y, -z+1/2'
6 'x, y, -z+1/2'
7 '-x, -x+y, z+1/2'
8 'x-y, -y, z+1/2'
9 'y, x, z+1/2'
10 'x-y, x, z+1/2'
11 'y, -x+y, z+1/2'
12 '-x, -y, z+1/2'
13 '-x, -x+y, -z'
14 'x-y, -y, -z'
15 'y, x, -z'
16 'x-y, x, -z'
17 'y, -x+y, -z'
18 '-x, -y, -z'
19 'x, x-y, z'
20 '-x+y, y, z'
21 '-y, -x, z'
22 '-x+y, -x, z'
23 '-y, x-y, z'
24 'x, y, z'
loop_
_atom_type_symbol
_atom_type_oxidation_number
Li1+ 1
Nb3+ 3.02
O2- -2
loop_
_atom_site_label
_atom_site_type_symbol
_atom_site_symmetry_multiplicity
_atom_site_Wyckoff_symbol
_atom_site_fract_x
_atom_site_fract_y
_atom_site_fract_z
_atom_site_B_iso_or_equiv
_atom_site_occupancy
_atom_site_attached_hydrogens
Li1 Li1+ 2 a 0 0 0 . 0.98(4) 0
Nb1 Nb3+ 2 d 0.3333 0.6667 0.75 . 1. 0
O1 O2- 4 f 0.3333 0.6667 0.1285(2) . 1. 0
loop_
_atom_site_aniso_label
_atom_site_aniso_type_symbol
_atom_site_aniso_U_11
_atom_site_aniso_U_22
_atom_site_aniso_U_33
_atom_site_aniso_U_12
_atom_site_aniso_U_13
_atom_site_aniso_U_23
Li1 Li1+ 0.032(3) 0.032(3) 0.022(3) 0.0160(15) 0 0
Nb1 Nb3+ 0.0031(5) 0.0031(5) 0.0044(7) 0.00155(25) 0 0
O1 O2- 0.0055(3) 0.0055(3) 0.0064(5) 0.00275(15) 0 0
#End of TTdata_89378-ICSD