
#(C) 2018 by FIZ Karlsruhe - Leibniz Institute for Information Infrastructure.  All rights reserved.
data_89524-ICSD
_database_code_ICSD 89524
_audit_creation_date 2002-04-01
_chemical_name_systematic 'Lithium trinitridodisilicatee'
_chemical_formula_structural 'Li (Si2 N3)'
_chemical_formula_sum 'Li1 N3 Si2'
_chemical_name_structure_type Na2SiO3
_exptl_crystal_density_diffrn 2.99
_publ_section_title
'Zur Kenntnis von Li Si2 N3: Synthese und Verfeinerung der Kristallstruktur'
loop_
_citation_id
_citation_journal_full
_citation_year
_citation_journal_volume
_citation_page_first
_citation_page_last
_citation_journal_id_ASTM
primary 'Zeitschrift fuer Anorganische und Allgemeine Chemie (1950) (DE)' 1999
625 1426 1428 ZAACAB
loop_
_publ_author_name
'Orth, M.'
'Schnick, W.'
_cell_length_a 9.2215(9)
_cell_length_b 5.2964(8)
_cell_length_c 4.7798(5)
_cell_angle_alpha 90.
_cell_angle_beta 90.
_cell_angle_gamma 90.
_cell_volume 233.45
_cell_formula_units_Z 4
_symmetry_space_group_name_H-M 'C m c 21'
_symmetry_Int_Tables_number 36
_refine_ls_R_factor_all 0.017
loop_
_symmetry_equiv_pos_site_id
_symmetry_equiv_pos_as_xyz
1 'x, -y, z+1/2'
2 '-x, -y, z+1/2'
3 '-x, y, z'
4 'x, y, z'
5 'x+1/2, -y+1/2, z+1/2'
6 '-x+1/2, -y+1/2, z+1/2'
7 '-x+1/2, y+1/2, z'
8 'x+1/2, y+1/2, z'
loop_
_atom_type_symbol
_atom_type_oxidation_number
Si4+ 4
Li1+ 1
N3- -3
loop_
_atom_site_label
_atom_site_type_symbol
_atom_site_symmetry_multiplicity
_atom_site_Wyckoff_symbol
_atom_site_fract_x
_atom_site_fract_y
_atom_site_fract_z
_atom_site_B_iso_or_equiv
_atom_site_occupancy
_atom_site_attached_hydrogens
Si1 Si4+ 8 b 0.16601(4) 0.83682(8) 0.01339 . 1. 0
Li1 Li1+ 4 a 0 0.3406(8) 0.000(3) . 1. 0
N1 N3- 8 b 0.1989(2) 0.8614(3) 0.3741(5) . 1. 0
N2 N3- 4 a 0 0.2737(5) 0.4353(6) . 1. 0
loop_
_atom_site_aniso_label
_atom_site_aniso_type_symbol
_atom_site_aniso_U_11
_atom_site_aniso_U_22
_atom_site_aniso_U_33
_atom_site_aniso_U_12
_atom_site_aniso_U_13
_atom_site_aniso_U_23
Si1 Si4+ 0.0032(3) 0.0045(3) 0.0050(3) 0.0001(2) -.0001(3) 0.0004(3)
Li1 Li1+ 0.009(2) 0.011(2) 0.016(3) 0 0 -.002(3)
N1 N3- 0.0050(9) 0.0068(8) 0.0051(8) 0.0010(6) -.0012(7) -.0002(6)
N2 N3- 0.006(2) 0.005(2) 0.008(2) 0 0 0.0004(8)
#End of TTdata_89524-ICSD