
#(C) 2018 by FIZ Karlsruhe - Leibniz Institute for Information Infrastructure.  All rights reserved.
data_89992-ICSD
_database_code_ICSD 89992
_audit_creation_date 2002-04-01
_chemical_name_systematic 'Trilithium diiron(III) tris(phosphate(V))'
_chemical_formula_structural 'Li3 Fe2 (P O4)3'
_chemical_formula_sum 'Fe2 Li3 O12 P3'
_chemical_name_structure_type Li3In2(PO4)3
_exptl_crystal_density_diffrn 3.09
_cell_measurement_temperature 300.
_publ_section_title

;
A powder neutron diffraction investigation of the two rhombohedral NASICON
analogues: gamma-(Na3 Fe2 (P O4)3) and Li3 Fe2 (P O4)3
;
loop_
_citation_id
_citation_journal_full
_citation_year
_citation_journal_volume
_citation_page_first
_citation_page_last
_citation_journal_id_ASTM
primary 'Chemistry of Materials' 2000 12 525 532 CMATEX
loop_
_publ_author_name
'Masquelier, C.'
'Wurm, C.'
'Rodriguez Carvajal, J.'
'Gaubicher, J.'
'Nazar, L.'
_cell_length_a 8.3162(4)
_cell_length_b 8.3162(4)
_cell_length_c 22.459(1)
_cell_angle_alpha 90.
_cell_angle_beta 90.
_cell_angle_gamma 120.
_cell_volume 1345.15
_cell_formula_units_Z 6
_symmetry_space_group_name_H-M 'R -3 H'
_symmetry_Int_Tables_number 148
_refine_ls_R_factor_all 0.035
loop_
_symmetry_equiv_pos_site_id
_symmetry_equiv_pos_as_xyz
1 'x-y, x, -z'
2 'y, -x+y, -z'
3 '-x, -y, -z'
4 '-x+y, -x, z'
5 '-y, x-y, z'
6 'x, y, z'
7 'x-y+2/3, x+1/3, -z+1/3'
8 'y+2/3, -x+y+1/3, -z+1/3'
9 '-x+2/3, -y+1/3, -z+1/3'
10 '-x+y+2/3, -x+1/3, z+1/3'
11 '-y+2/3, x-y+1/3, z+1/3'
12 'x+2/3, y+1/3, z+1/3'
13 'x-y+1/3, x+2/3, -z+2/3'
14 'y+1/3, -x+y+2/3, -z+2/3'
15 '-x+1/3, -y+2/3, -z+2/3'
16 '-x+y+1/3, -x+2/3, z+2/3'
17 '-y+1/3, x-y+2/3, z+2/3'
18 'x+1/3, y+2/3, z+2/3'
loop_
_atom_type_symbol
_atom_type_oxidation_number
Fe3+ 3
P5+ 5
O2- -2
Li1+ 1
loop_
_atom_site_label
_atom_site_type_symbol
_atom_site_symmetry_multiplicity
_atom_site_Wyckoff_symbol
_atom_site_fract_x
_atom_site_fract_y
_atom_site_fract_z
_atom_site_B_iso_or_equiv
_atom_site_occupancy
_atom_site_attached_hydrogens
Fe1 Fe3+ 6 c 0 0 0.1461(2) 0.28(5) 1. 0
Fe2 Fe3+ 6 c 0 0 0.6528(2) 0.31(5) 1. 0
P1 P5+ 18 f 0.2923(4) 0.0019(5) 0.2513(2) 0.32(4) 1. 0
O1 O2- 18 f 0.1915(6) -.0096(6) 0.1919(2) 2.49(9) 1. 0
O2 O2- 18 f 0.7656(5) 0.9126(5) 0.6990(1) 1.44(6) 1. 0
O3 O2- 18 f 0.2434(5) 0.8007(5) 0.2659(2) 1.36(7) 1. 0
O4 O2- 18 f 0.5006(4) 0.8796(5) 0.7556(2) 1.10(6) 1. 0
Li1 Li1+ 18 f 0.341(2) 0.024(2) 0.3819(6) . 1. 0
loop_
_atom_site_aniso_label
_atom_site_aniso_type_symbol
_atom_site_aniso_U_11
_atom_site_aniso_U_22
_atom_site_aniso_U_33
_atom_site_aniso_U_12
_atom_site_aniso_U_13
_atom_site_aniso_U_23
Li1 Li1+ 0.0212(31) 0.0331(46) 0.0012(3) 0.0297(36) 0.0009(9) -.0003(10)
#End of TTdata_89992-ICSD