
#(C) 2017 by FIZ Karlsruhe - Leibniz Institute for Information Infrastructure.  All rights reserved.
data_9004-ICSD
_database_code_ICSD 9004
_audit_creation_date 1980-01-01
_audit_update_record 2012-08-01
_chemical_name_systematic 'Dicesium lithium hexafluorogallate'
_chemical_formula_structural 'Cs2 Li (Ga F6)'
_chemical_formula_sum 'Cs2 F6 Ga1 Li1'
_exptl_crystal_density_diffrn 4.41
_publ_section_title

;
Einkristall-Strukturdaten einiger Fluoride und Cyanide A2 B M X6 der
Elpasolithfamilie
;
loop_
_citation_id
_citation_journal_full
_citation_year
_citation_journal_volume
_citation_page_first
_citation_page_last
_citation_journal_id_ASTM
primary

;
Zeitschrift fuer Naturforschung, Teil B. Anorganische Chemie, Organische
Chemie (2,1947-32,1977)
; 1975 30 462 464 ZENBAX
loop_
_publ_author_name
'Haegele, R.'
'Verscharen, W.'
'Babel, D.'
_cell_length_a 6.249
_cell_length_b 6.249
_cell_length_c 5.086
_cell_angle_alpha 90.
_cell_angle_beta 90.
_cell_angle_gamma 120.
_cell_volume 172.
_cell_formula_units_Z 1
_symmetry_space_group_name_H-M 'P -3 m 1'
_symmetry_Int_Tables_number 164
_refine_ls_R_factor_all 0.11
loop_
_symmetry_equiv_pos_site_id
_symmetry_equiv_pos_as_xyz
1 'x-y, -y, -z'
2 '-x, -x+y, -z'
3 'y, x, -z'
4 'x-y, x, -z'
5 'y, -x+y, -z'
6 '-x, -y, -z'
7 '-x+y, y, z'
8 'x, x-y, z'
9 '-y, -x, z'
10 '-x+y, -x, z'
11 '-y, x-y, z'
12 'x, y, z'
loop_
_atom_type_symbol
_atom_type_oxidation_number
Cs1+ 1
Li1+ 1
Ga3+ 3
F1- -1
loop_
_atom_site_label
_atom_site_type_symbol
_atom_site_symmetry_multiplicity
_atom_site_Wyckoff_symbol
_atom_site_fract_x
_atom_site_fract_y
_atom_site_fract_z
_atom_site_B_iso_or_equiv
_atom_site_occupancy
_atom_site_attached_hydrogens
Cs1 Cs1+ 2 d 0.33333 0.66667 0.2699(10) . 1. 0
Li1 Li1+ 1 b 0 0 0.5 0.1 1. 0
Ga1 Ga3+ 1 a 0 0 0 1.15 1. 0
F1 F1- 6 i 0.1388(80) -.1388(80) 0.7618(50) 1.83 1. 0
loop_
_atom_site_aniso_label
_atom_site_aniso_type_symbol
_atom_site_aniso_B_11
_atom_site_aniso_B_22
_atom_site_aniso_B_33
_atom_site_aniso_B_12
_atom_site_aniso_B_13
_atom_site_aniso_B_23
Cs1 Cs1+ 1.14 1.14 2.68 0.57 0 0
#End of TTdata_9004-ICSD