
#(C) 2018 by FIZ Karlsruhe - Leibniz Institute for Information Infrastructure.  All rights reserved.
data_90148-ICSD
_database_code_ICSD 90148
_audit_creation_date 2002-04-01
_audit_update_record 2005-10-01
_chemical_name_systematic 'Lithium tecto-alumosilicate *'
_chemical_formula_structural 'Li3.53 (Al3.53 Si8.47 O24)'
_chemical_formula_sum 'Al3.53 Li3.53 O24 Si8.47'
_chemical_name_structure_type Chabazite-frame
_chemical_name_mineral 'Chabazite (Li-exchanged, dehydrated)'
_exptl_crystal_density_diffrn 1.52
_cell_measurement_temperature 295.
_publ_section_title

;
Site preferences in the mixed cation zeolite, Li, Na-chabazite: a combined
solid-state NMR and neutron diffraction study
;
loop_
_citation_id
_citation_journal_full
_citation_year
_citation_journal_volume
_citation_page_first
_citation_page_last
_citation_journal_id_ASTM
primary 'Journal of the American Chemical Society' 2000 122 1700 1708 JACSAT
loop_
_publ_author_name
'Smith, L.J.'
'Eckert, H.'
'Cheetham, A.K.'
_cell_length_a 9.3357(5)
_cell_length_b 9.3357(5)
_cell_length_c 9.3357(5)
_cell_angle_alpha 93.482(4)
_cell_angle_beta 93.482(4)
_cell_angle_gamma 93.482(4)
_cell_volume 808.96
_cell_formula_units_Z 1
_symmetry_space_group_name_H-M 'R -3 m R'
_symmetry_Int_Tables_number 166
_refine_ls_R_factor_all 0.047
loop_
_symmetry_equiv_pos_site_id
_symmetry_equiv_pos_as_xyz
1 '-z, -y, -x'
2 '-z, -x, -y'
3 '-x, -z, -y'
4 '-y, -z, -x'
5 '-y, -x, -z'
6 '-x, -y, -z'
7 'z, y, x'
8 'z, x, y'
9 'x, z, y'
10 'y, z, x'
11 'y, x, z'
12 'x, y, z'
loop_
_atom_type_symbol
_atom_type_oxidation_number
Si4+ 4
Al3+ 3
O2- -2
Li1+ 1
loop_
_atom_site_label
_atom_site_type_symbol
_atom_site_symmetry_multiplicity
_atom_site_Wyckoff_symbol
_atom_site_fract_x
_atom_site_fract_y
_atom_site_fract_z
_atom_site_B_iso_or_equiv
_atom_site_occupancy
_atom_site_attached_hydrogens
Si1 Si4+ 12 i 0.5968(11) 0.8242(9) 0.3748(10) 0.0250(22) 0.706 0
Al1 Al3+ 12 i 0.5968(11) 0.8242(9) 0.3748(10) 0.0250(22) 0.294 0
O1 O2- 6 g 0.7668(6) 0.2332(6) 0.5 0.0276(26) 1. 0
O2 O2- 6 f 0.6205(6) 0.3795(6) 0 0.0318(27) 1. 0
O3 O2- 6 h 0.7609(8) 0.7609(8) 0.3807(9) 0.0370(27) 1. 0
O4 O2- 6 h 0.5264(7) 0.5264(7) 0.7732(8) 0.0271(24) 1. 0
Li1 Li1+ 2 c 0.3718(23) 0.3718(23) 0.3718(23) 0.020(13) 0.976(58) 0
Li2 Li1+ 12 i 0.854(10) 0.309(11) 0.194(13) 0.020(13) 0.132(10) 0
#End of TTdata_90148-ICSD