
#(C) 2018 by FIZ Karlsruhe - Leibniz Institute for Information Infrastructure.  All rights reserved.
data_91113-ICSD
_database_code_ICSD 91113
_audit_creation_date 2002-10-01
_audit_update_record 2005-10-01
_chemical_name_systematic 'Lithium dizirconium tris(phosphate(V)) - beta, HT'
_chemical_formula_structural 'Li Zr2 (P O4)3'
_chemical_formula_sum 'Li1 O12 P3 Zr2'
_exptl_crystal_density_diffrn 3.21
_cell_measurement_temperature 623.
_publ_section_title

;
Order-disorder and mobility of Li(+) in the beta'- and beta-(Li Zr2 (P O4)3)
ionic conductors: a neutron diffraction study
;
loop_
_citation_id
_citation_journal_full
_citation_year
_citation_journal_volume
_citation_page_first
_citation_page_last
_citation_journal_id_ASTM
primary 'Journal of Solid State Chemistry' 2000 152 340 347 JSSCBI
loop_
_publ_author_name
'Catti, M.'
'Morgante, N.'
'Ibberson, R.M.'
_cell_length_a 8.84303(5)
_cell_length_b 8.94120(6)
_cell_length_c 12.41301(8)
_cell_angle_alpha 90.
_cell_angle_beta 90.
_cell_angle_gamma 90.
_cell_volume 981.46
_cell_formula_units_Z 4
_symmetry_space_group_name_H-M 'P b n a'
_symmetry_Int_Tables_number 60
_refine_ls_R_factor_all 0.034
loop_
_symmetry_equiv_pos_site_id
_symmetry_equiv_pos_as_xyz
1 '-x, y+1/2, z'
2 'x+1/2, y, -z+1/2'
3 'x+1/2, -y+1/2, z+1/2'
4 '-x, -y, -z'
5 'x, -y+1/2, -z'
6 '-x+1/2, -y, z+1/2'
7 '-x+1/2, y+1/2, -z+1/2'
8 'x, y, z'
loop_
_atom_type_symbol
_atom_type_oxidation_number
Li1+ 1
Zr4+ 4
P5+ 5
O2- -2
loop_
_atom_site_label
_atom_site_type_symbol
_atom_site_symmetry_multiplicity
_atom_site_Wyckoff_symbol
_atom_site_fract_x
_atom_site_fract_y
_atom_site_fract_z
_atom_site_B_iso_or_equiv
_atom_site_occupancy
_atom_site_attached_hydrogens
Li1 Li1+ 8 d 0.2815(27) 0.2070(28) 0.3355(20) 0.02 0.34(1) 0
Li2 Li1+ 8 d 0.120(6) 0.145(6) 0.308(4) 0.02 0.16(1) 0
Zr1 Zr4+ 8 d 0.7520(3) 0.4647(2) 0.6159(2) 0.0073(5) 1. 0
P1 P5+ 8 d 0.6091(3) 0.1086(4) 0.6453(3) 0.0116(8) 1. 0
P2 P5+ 4 c 0.0346(6) 0.25 0.5 0.018(1) 1. 0
O1 O2- 8 d 0.6628(4) 0.4323(4) 0.4638(3) 0.0261(9) 1. 0
O2 O2- 8 d 0.6550(4) 0.2666(3) 0.6732(3) 0.0221(9) 1. 0
O3 O2- 8 d 0.9406(4) 0.3484(4) 0.5716(3) 0.0244(9) 1. 0
O4 O2- 8 d 0.5632(3) 0.5964(3) 0.6498(3) 0.0203(9) 1. 0
O5 O2- 8 d 0.8241(4) 0.4983(3) 0.7724(3) 0.0177(8) 1. 0
O6 O2- 8 d 0.8612(4) 0.6572(4) 0.5723(3) 0.0234(9) 1. 0
#End of TTdata_91113-ICSD