
#(C) 2018 by FIZ Karlsruhe - Leibniz Institute for Information Infrastructure.  All rights reserved.
data_91523-ICSD
_database_code_ICSD 91523
_audit_creation_date 2002-10-01
_audit_update_record 2009-02-01
_chemical_name_systematic 'Calcium lithium phosphate(V) (9.95/0.05/7)'
_chemical_formula_structural 'Ca9.95  Li1.05 (P O4)7'
_chemical_formula_sum 'Ca9.95 Li1.05 O28 P7'
_chemical_name_structure_type Ca9MgNa(PO4)7
_exptl_crystal_density_diffrn 3.03
_publ_section_title

;
Crystal structure of calcium alkali metal phosphates Ca10 M (P O4)7 (M = Li,
Na, K)
;
loop_
_citation_id
_citation_journal_full
_citation_year
_citation_journal_volume
_citation_page_first
_citation_page_last
_citation_journal_id_ASTM
primary Kristallografiya 2000 45 19 26 KRISAJ
loop_
_publ_author_name
'Morozov, V.A.'
'Belik, V.A.'
'Kotov, R.N.'
'Presniakov, I.A.'
'Khasanov, S.S.'
'Lazoryak, B.I.'
_cell_length_a 10.4203(1)
_cell_length_b 10.4203(1)
_cell_length_c 37.3895(1)
_cell_angle_alpha 90.
_cell_angle_beta 90.
_cell_angle_gamma 120.
_cell_volume 3515.93
_cell_formula_units_Z 6
_symmetry_space_group_name_H-M 'R 3 c H'
_symmetry_Int_Tables_number 161
_refine_ls_R_factor_all 0.017
loop_
_symmetry_equiv_pos_site_id
_symmetry_equiv_pos_as_xyz
1 '-x+y, y, z+1/2'
2 'x, x-y, z+1/2'
3 '-y, -x, z+1/2'
4 '-x+y, -x, z'
5 '-y, x-y, z'
6 'x, y, z'
7 '-x+y+2/3, y+1/3, z+5/6'
8 'x+2/3, x-y+1/3, z+5/6'
9 '-y+2/3, -x+1/3, z+5/6'
10 '-x+y+2/3, -x+1/3, z+1/3'
11 '-y+2/3, x-y+1/3, z+1/3'
12 'x+2/3, y+1/3, z+1/3'
13 '-x+y+1/3, y+2/3, z+1/6'
14 'x+1/3, x-y+2/3, z+1/6'
15 '-y+1/3, -x+2/3, z+1/6'
16 '-x+y+1/3, -x+2/3, z+2/3'
17 '-y+1/3, x-y+2/3, z+2/3'
18 'x+1/3, y+2/3, z+2/3'
loop_
_atom_type_symbol
_atom_type_oxidation_number
Ca2+ 2
Li1+ 1
Ca2+ 2
Li1+ 1
Ca2+ 2
P5+ 5
O2- -2
loop_
_atom_site_label
_atom_site_type_symbol
_atom_site_symmetry_multiplicity
_atom_site_Wyckoff_symbol
_atom_site_fract_x
_atom_site_fract_y
_atom_site_fract_z
_atom_site_B_iso_or_equiv
_atom_site_occupancy
_atom_site_attached_hydrogens
Ca1 Ca2+ 18 b 0.7257(6) 0.8603(7) 0.4316(4) 0.2(1) 0.94 0
Li1 Li1+ 18 b 0.7257(6) 0.8603(7) 0.4316(4) 0.2(1) 0.06 0
Ca2 Ca2+ 18 b 0.6182(6) 0.8242(8) 0.2317(4) 0.8(1) 1. 0
Ca3 Ca2+ 18 b 0.1208(7) 0.2670(5) 0.3261(4) 1.7(1) 1. 0
Li2 Li1+ 6 a 0 0 0.191(4) 3.(2) 0.87(3) 0
Ca4 Ca2+ 6 a 0 0 0.166(2) 3.(2) 0.13(3) 0
Ca5 Ca2+ 6 a 0 0 0 1.3(2) 1. 0
P1 P5+ 6 a 0 0 0.2656(4) 1.5(2) 1. 0
P2 P5+ 18 b 0.6896(8) 0.865(1) 0.1343(4) 1.0(2) 1. 0
P3 P5+ 18 b 0.6532(9) 0.8474(9) 0.0327(4) 0.8(2) 1. 0
O1 O2- 6 a 0 0 0.310(1) 2.0(9) 1. 0
O2 O2- 18 b 0.008(2) 0.861(2) 0.2555(8) 1.3(4) 1. 0
O3 O2- 18 b 0.728(2) 0.913(2) 0.1743(7) 1.9(5) 1. 0
O4 O2- 18 b 0.771(3) 0.787(3) 0.1214(6) 2.0(5) 1. 0
O5 O2- 18 b 0.726(2) 0.009(2) 0.1131(6) 0.3(3) 1. 0
O6 O2- 18 b 0.521(2) 0.761(2) 0.1290(6) 0.8(3) 1. 0
O7 O2- 18 b 0.599(2) 0.951(2) 0.0444(6) 0.4(3) 1. 0
O8 O2- 18 b 0.573(2) 0.692(2) 0.0514(6) 0.2(3) 1. 0
O9 O2- 18 b 0.821(2) 0.919(2) 0.0439(6) 0.8(3) 1. 0
O10 O2- 18 b 0.628(1) 0.827(2) 0.9922(5) 1.2(4) 1. 0
#End of TTdata_91523-ICSD