
#(C) 2018 by FIZ Karlsruhe - Leibniz Institute for Information Infrastructure.  All rights reserved.
data_91577-ICSD
_database_code_ICSD 91577
_audit_creation_date 2002-10-01
_chemical_name_systematic 'Lanthanum lithium niobium oxide (0.33/0.08/1/3)'
_chemical_formula_structural 'La0.333 Li0.075 Nb O3'
_chemical_formula_sum 'La0.333 Li0.075 Nb1 O3'
_chemical_name_structure_type LaxTiO3
_exptl_crystal_density_diffrn 5.13
_publ_section_title 'Crystal structures and resistivities of La1/3 Lix Nb O3'
loop_
_citation_id
_citation_journal_full
_citation_year
_citation_journal_volume
_citation_page_first
_citation_page_last
_citation_journal_id_ASTM
primary

;
Molecular Crystals and Liquid Crystals Science and Technology, Section A:
Molecular Crystals and Liquid Crystals
; 2000 341 225 230 MCLCE9
loop_
_publ_author_name
'Dilanian, R.A.'
'Yamamoto, A.'
'Izumi, F.'
'Kamiyama, T.'
_cell_length_a 7.82325(8)
_cell_length_b 7.84208(8)
_cell_length_c 7.91954(8)
_cell_angle_alpha 90.
_cell_angle_beta 90.
_cell_angle_gamma 90.
_cell_volume 485.87
_cell_formula_units_Z 8
_symmetry_space_group_name_H-M 'C m m m'
_symmetry_Int_Tables_number 65
_refine_ls_R_factor_all 0.032
loop_
_symmetry_equiv_pos_site_id
_symmetry_equiv_pos_as_xyz
1 'x, -y, z'
2 '-x, y, z'
3 'x, y, -z'
4 '-x, -y, -z'
5 '-x, y, -z'
6 'x, -y, -z'
7 '-x, -y, z'
8 'x, y, z'
9 'x+1/2, -y+1/2, z'
10 '-x+1/2, y+1/2, z'
11 'x+1/2, y+1/2, -z'
12 '-x+1/2, -y+1/2, -z'
13 '-x+1/2, y+1/2, -z'
14 'x+1/2, -y+1/2, -z'
15 '-x+1/2, -y+1/2, z'
16 'x+1/2, y+1/2, z'
loop_
_atom_type_symbol
_atom_type_oxidation_number
La3+ 3
Li1+ 1
Nb4+ 4.925
O2- -2
loop_
_atom_site_label
_atom_site_type_symbol
_atom_site_symmetry_multiplicity
_atom_site_Wyckoff_symbol
_atom_site_fract_x
_atom_site_fract_y
_atom_site_fract_z
_atom_site_B_iso_or_equiv
_atom_site_occupancy
_atom_site_attached_hydrogens
La1 La3+ 4 i 0 0.25 0 0.29(4) 0.667 0
Li1 Li1+ 4 i 0 0.25 0 0.29(4) 0.15 0
Nb1 Nb4+ 8 o 0.25 0 0.26104(7) 0.98(4) 1. 0
O1 O2- 4 g 0.22782(9) 0 0 1.29(9) 1. 0
O2 O2- 4 h 0.27218(9) 0 0.5 1.19(9) 1. 0
O3 O2- 4 k 0 0 0.25128(9) 1.14(9) 1. 0
O4 O2- 4 l 0 0.5 0.21073(8) 0.54(8) 1. 0
O5 O2- 8 m 0.25 0.25 0.23432(8) 1.15(7) 1. 0
#End of TTdata_91577-ICSD