
#(C) 2018 by FIZ Karlsruhe - Leibniz Institute for Information Infrastructure.  All rights reserved.
data_91843-ICSD
_database_code_ICSD 91843
_audit_creation_date 2002-10-01
_chemical_name_systematic 'Lithium lanthanotitanate'
_chemical_formula_structural 'Li (La Ti O4)'
_chemical_formula_sum 'La1 Li1 O4 Ti1'
_chemical_name_structure_type CaSmCuO3Cl
_exptl_crystal_density_diffrn 4.99
_publ_section_title

;
X-ray powder diffraction study of Li Ln Ti O4 (Ln = La, Nd): a lithium-ion
conductor
;
loop_
_citation_id
_citation_journal_full
_citation_year
_citation_journal_volume
_citation_page_first
_citation_page_last
_citation_journal_id_ASTM
primary 'Materials Science Forum' 2000 321 965 970 MSFOEP
loop_
_publ_author_name
'Thangadurai, V.'
'Shukla, A.K.'
'Gopalakrishnan, J.'
'Joubert, O.'
'Brohan, L.'
'Tournoux, M.'
_cell_length_a 3.7700(2)
_cell_length_b 3.7700(2)
_cell_length_c 12.076(1)
_cell_angle_alpha 90.
_cell_angle_beta 90.
_cell_angle_gamma 90.
_cell_volume 171.63
_cell_formula_units_Z 2
_symmetry_space_group_name_H-M 'P 4/n m m Z'
_symmetry_Int_Tables_number 129
_refine_ls_R_factor_all 0.05
loop_
_symmetry_equiv_pos_site_id
_symmetry_equiv_pos_as_xyz
1 'y+1/2, x+1/2, -z'
2 '-y, x+1/2, -z'
3 'y+1/2, -x, -z'
4 '-y, -x, -z'
5 'x+1/2, y+1/2, -z'
6 '-x, y+1/2, -z'
7 'x+1/2, -y, -z'
8 '-x, -y, -z'
9 '-y+1/2, -x+1/2, z'
10 'y, -x+1/2, z'
11 '-y+1/2, x, z'
12 'y, x, z'
13 '-x+1/2, -y+1/2, z'
14 'x, -y+1/2, z'
15 '-x+1/2, y, z'
16 'x, y, z'
loop_
_atom_type_symbol
_atom_type_oxidation_number
La3+ 3
Li1+ 1
Ti4+ 4
O2- -2
loop_
_atom_site_label
_atom_site_type_symbol
_atom_site_symmetry_multiplicity
_atom_site_Wyckoff_symbol
_atom_site_fract_x
_atom_site_fract_y
_atom_site_fract_z
_atom_site_B_iso_or_equiv
_atom_site_occupancy
_atom_site_attached_hydrogens
La1 La3+ 2 c 0.25 0.25 0.8800(1) 0.44(3) 1. 0
Li1 Li1+ 2 b 0.25 0.75 0.5 0.5(3) 1. 0
Ti1 Ti4+ 2 c 0.25 0.25 0.2950(3) 0.6(1) 1. 0
O1 O2- 4 f 0.75 0.25 0.7402(3) 1.5(3) 1. 0
O2 O2- 2 c 0.25 0.25 0.4343(12) 1.9(2) 1. 0
O3 O2- 2 c 0.25 0.25 0.0745(10) 1.5(2) 1. 0
#End of TTdata_91843-ICSD