
#(C) 2018 by FIZ Karlsruhe - Leibniz Institute for Information Infrastructure.  All rights reserved.
data_91984-ICSD
_database_code_ICSD 91984
_audit_creation_date 2002-10-01
_chemical_name_systematic
'Yttrium barium copper lithium oxide (1/2/2.88/0.12/6.01)'
_chemical_formula_structural 'Y Ba2 Cu2.88 Li0.12 O6.01'
_chemical_formula_sum 'Ba2 Cu2.88 Li0.12 O6.01 Y1'
_exptl_crystal_density_diffrn 6.07
_cell_measurement_temperature 300.
_publ_section_title 'Local structural changes in lithium-doped Y Ba2 Cu3 Oy'
loop_
_citation_id
_citation_journal_full
_citation_year
_citation_journal_volume
_citation_page_first
_citation_page_last
_citation_journal_id_ASTM
primary 'Physica C, Superconductivity' 2000 333 121 132 PHYCE6
loop_
_publ_author_name
'Maury, F.'
'Nicolas-Francillon, M.'
'Bouree, F.'
'Ollitrault-Fichet, R.'
'Nanot, M.'
_cell_length_a 3.8595(1)
_cell_length_b 3.8595(1)
_cell_length_c 11.8137(2)
_cell_angle_alpha 90.
_cell_angle_beta 90.
_cell_angle_gamma 90.
_cell_volume 175.97
_cell_formula_units_Z 1
_symmetry_space_group_name_H-M 'P 4/m m m'
_symmetry_Int_Tables_number 123
_refine_ls_R_factor_all 0.032
loop_
_symmetry_equiv_pos_site_id
_symmetry_equiv_pos_as_xyz
1 'y, x, -z'
2 '-y, -x, -z'
3 '-y, x, -z'
4 'y, -x, -z'
5 '-x, y, -z'
6 'x, -y, -z'
7 'x, y, -z'
8 '-x, -y, -z'
9 '-y, -x, z'
10 'y, x, z'
11 'y, -x, z'
12 '-y, x, z'
13 'x, -y, z'
14 '-x, y, z'
15 '-x, -y, z'
16 'x, y, z'
loop_
_atom_type_symbol
_atom_type_oxidation_number
Y3+ 3
Ba2+ 2
Cu1+ 1.701
Li1+ 1
Cu1+ 1.701
Li1+ 1
O2- -2
loop_
_atom_site_label
_atom_site_type_symbol
_atom_site_symmetry_multiplicity
_atom_site_Wyckoff_symbol
_atom_site_fract_x
_atom_site_fract_y
_atom_site_fract_z
_atom_site_B_iso_or_equiv
_atom_site_occupancy
_atom_site_attached_hydrogens
Y1 Y3+ 1 d 0.5 0.5 0.5 0.58(2) 1. 0
Ba1 Ba2+ 2 h 0.5 0.5 0.1954(1) 0.46(2) 1. 0
Cu1 Cu1+ 1 a 0 0 0 0.89(3) 0.980(7) 0
Li1 Li1+ 1 a 0 0 0 0.89(3) 0.020(7) 0
Cu2 Cu1+ 2 g 0 0 0.3621(1) 0.41(2) 0.950(25) 0
Li2 Li1+ 2 g 0 0 0.3621(1) 0.41(2) 0.050(25) 0
O1 O2- 2 g 0 0 0.1522(2) 0.96(3) 0.960(5) 0
O2 O2- 4 i 0.5 0 0.3789(1) 0.63(1) 1. 0
O3 O2- 4 n 0.085(7) 0.5 0.0(2) 1.0(1) 0.022(7) 0
#End of TTdata_91984-ICSD