
#(C) 2018 by FIZ Karlsruhe - Leibniz Institute for Information Infrastructure.  All rights reserved.
data_92571-ICSD
_database_code_ICSD 92571
_audit_creation_date 2003-04-01
_chemical_name_systematic 'Potassium lithium carbonate'
_chemical_formula_structural 'K Li (C O3)'
_chemical_formula_sum 'C1 K1 Li1 O3'
_exptl_crystal_density_diffrn 2.28
_publ_section_title

;
Potassium lithium carbonate, K Li C O3 : single-crystal X-ray structure
analysis and thermal expansion
;
loop_
_citation_id
_citation_journal_full
_citation_year
_citation_journal_volume
_citation_page_first
_citation_page_last
_citation_journal_id_ASTM
primary 'Zeitschrift fuer Kristallographie (1979-2010)' 2000 215 744 751 ZEKRDZ
loop_
_publ_author_name
'Kirfel, A.'
'Euler, H.'
'Barbier, B.'
'Haegele, E.'
'Klapper, H.'
_cell_length_a 7.2315(13)
_cell_length_b 7.0846(17)
_cell_length_c 6.5792(14)
_cell_angle_alpha 90
_cell_angle_beta 113.395(13)
_cell_angle_gamma 90
_cell_volume 309.36
_cell_formula_units_Z 4
_symmetry_space_group_name_H-M 'P 1 21/n 1'
_symmetry_Int_Tables_number 14
_refine_ls_R_factor_all 0.022
loop_
_symmetry_equiv_pos_site_id
_symmetry_equiv_pos_as_xyz
1 '-x+1/2, y+1/2, -z+1/2'
2 '-x, -y, -z'
3 'x+1/2, -y+1/2, z+1/2'
4 'x, y, z'
loop_
_atom_type_symbol
_atom_type_oxidation_number
Li1+ 1
K1+ 1
C4+ 4
O2- -2
loop_
_atom_site_label
_atom_site_type_symbol
_atom_site_symmetry_multiplicity
_atom_site_Wyckoff_symbol
_atom_site_fract_x
_atom_site_fract_y
_atom_site_fract_z
_atom_site_B_iso_or_equiv
_atom_site_occupancy
_atom_site_attached_hydrogens
Li1 Li1+ 4 e 0.29781(36) -.06878(34) 0.39572(41) 0.0212(5) 1. 0
K1 K1+ 4 e 0.84283(4) 0.14558(4) 0.17075(5) 0.0212(1) 1. 0
C1 C4+ 4 e 0.41836(19) 0.16758(18) 0.21171(21) 0.0155(2) 1. 0
O1 O2- 4 e 0.53386(14) 0.02367(14) 0.29044(16) 0.0187(2) 1. 0
O2 O2- 4 e 0.47078(15) 0.31038(14) 0.13008(17) 0.0208(2) 1. 0
O3 O2- 4 e 0.24098(15) 0.16592(15) 0.21978(19) 0.0242(2) 1. 0
loop_
_atom_site_aniso_label
_atom_site_aniso_type_symbol
_atom_site_aniso_U_11
_atom_site_aniso_U_22
_atom_site_aniso_U_33
_atom_site_aniso_U_12
_atom_site_aniso_U_13
_atom_site_aniso_U_23
Li1 Li1+ 0.0211(11) 0.0196(11) 0.0220(11) -0.0015(9) 0.0076(9) 0.0007(9)
K1 K1+ 0.0191(2) 0.0216(2) 0.0256(2) 0.0007(1) 0.0117(1) 0.0020(1)
C1 C4+ 0.0153(5) 0.0166(6) 0.0147(5) -0.0009(4) 0.0061(4) -0.0017(4)
O1 O2- 0.0178(5) 0.0169(4) 0.0219(5) 0.0038(3) 0.0085(4) 0.0026(3)
O2 O2- 0.0201(5) 0.0181(5) 0.0266(5) -0.0004(4) 0.0116(4) 0.0043(4)
O3 O2- 0.0158(5) 0.0242(5) 0.0360(6) 0.0039(4) 0.0138(4) 0.0099(4)
#End of TTdata_92571-ICSD