
#(C) 2018 by FIZ Karlsruhe - Leibniz Institute for Information Infrastructure.  All rights reserved.
data_92842-ICSD
_database_code_ICSD 92842
_audit_creation_date 2003-04-01
_audit_update_record 2012-02-01
_chemical_name_systematic 'Lithium strontium borate'
_chemical_formula_structural 'Li Sr (B O3)'
_chemical_formula_sum 'B1 Li1 O3 Sr1'
_chemical_name_structure_type LiSrBO3
_exptl_crystal_density_diffrn 3.65
_publ_section_title

;
Syntheses, crystal and electronic structures, and linear optics of Li M B O3
(M= Sr, Ba) orthoborates
;
loop_
_citation_id
_citation_journal_full
_citation_year
_citation_journal_volume
_citation_page_first
_citation_page_last
_citation_journal_id_ASTM
primary 'Chemistry of Materials' 2001 13 1841 1847 CMATEX
loop_
_publ_author_name
'Cheng, W.-D.'
'Zhang, H.'
'Lin, Q.-S.'
'Zheng, F.-K.'
'Chen, J.-T.'
_cell_length_a 6.4800(13)
_cell_length_b 6.6800(13)
_cell_length_c 6.8400(14)
_cell_angle_alpha 90
_cell_angle_beta 109.41(3)
_cell_angle_gamma 90
_cell_volume 279.25
_cell_formula_units_Z 4
_symmetry_space_group_name_H-M 'P 1 21/n 1'
_symmetry_Int_Tables_number 14
_refine_ls_R_factor_all 0.044
loop_
_symmetry_equiv_pos_site_id
_symmetry_equiv_pos_as_xyz
1 '-x+1/2, y+1/2, -z+1/2'
2 '-x, -y, -z'
3 'x+1/2, -y+1/2, z+1/2'
4 'x, y, z'
loop_
_atom_type_symbol
_atom_type_oxidation_number
Sr2+ 2
O2- -2
B3+ 3
Li1+ 1
loop_
_atom_site_label
_atom_site_type_symbol
_atom_site_symmetry_multiplicity
_atom_site_Wyckoff_symbol
_atom_site_fract_x
_atom_site_fract_y
_atom_site_fract_z
_atom_site_B_iso_or_equiv
_atom_site_occupancy
_atom_site_attached_hydrogens
Sr1 Sr2+ 4 e 0.20197(5) 0.12378(5) 0.86760(5) 0.00811(9) 1. 0
O1 O2- 4 e 0.1560(5) 0.1105(4) 0.2178(4) 0.0130(5) 1. 0
O2 O2- 4 e 0.1073(5) 0.2993(4) 0.4940(4) 0.0109(4) 1. 0
O3 O2- 4 e 0.1963(5) 0.4897(4) 0.9367(4) 0.0109(5) 1. 0
B1 B3+ 4 e 0.1886(5) 0.1326(6) 0.4270(6) 0.0084(5) 1. 0
Li1 Li1+ 4 e 0.1002(13) 0.4086(10) 0.1930(11) 0.0136(13) 1. 0
#End of TTdata_92842-ICSD