
#(C) 2018 by FIZ Karlsruhe - Leibniz Institute for Information Infrastructure.  All rights reserved.
data_92868-ICSD
_database_code_ICSD 92868
_audit_creation_date 2003-04-01
_chemical_name_systematic 'Lithium strontium fluorohexaoxodiniobate (0.9/1/1)'
_chemical_formula_structural 'Li0.9 Sr (Nb2 O6 F)'
_chemical_formula_sum 'F1 Li0.9 Nb2 O6 Sr1'
_chemical_name_structure_type AgLaTa2O7
_exptl_crystal_density_diffrn 4.29
_publ_section_title

;
New Dion-Jacobson-type layered perovskite oxyfluorides, A Sr Nb2 O6 F (A = Li,
Na and Rb)
;
loop_
_citation_id
_citation_journal_full
_citation_year
_citation_journal_volume
_citation_page_first
_citation_page_last
_citation_journal_id_ASTM
primary 'Chemistry of Materials' 2001 13 906 912 CMATEX
loop_
_publ_author_name
'Choy, J.-H.'
'Kim, J.-Y.'
'Kim, S.-J.'
'Sohn, J.-S.'
_cell_length_a 3.8304(2)
_cell_length_b 3.8304(2)
_cell_length_c 20.837(1)
_cell_angle_alpha 90
_cell_angle_beta 90
_cell_angle_gamma 90
_cell_volume 305.72
_cell_formula_units_Z 2
_symmetry_space_group_name_H-M 'I 4/m m m'
_symmetry_Int_Tables_number 139
_refine_ls_R_factor_all 0.019
loop_
_symmetry_equiv_pos_site_id
_symmetry_equiv_pos_as_xyz
1 'y, x, -z'
2 '-y, -x, -z'
3 '-y, x, -z'
4 'y, -x, -z'
5 '-x, y, -z'
6 'x, -y, -z'
7 'x, y, -z'
8 '-x, -y, -z'
9 '-y, -x, z'
10 'y, x, z'
11 'y, -x, z'
12 '-y, x, z'
13 'x, -y, z'
14 '-x, y, z'
15 '-x, -y, z'
16 'x, y, z'
17 'y+1/2, x+1/2, -z+1/2'
18 '-y+1/2, -x+1/2, -z+1/2'
19 '-y+1/2, x+1/2, -z+1/2'
20 'y+1/2, -x+1/2, -z+1/2'
21 '-x+1/2, y+1/2, -z+1/2'
22 'x+1/2, -y+1/2, -z+1/2'
23 'x+1/2, y+1/2, -z+1/2'
24 '-x+1/2, -y+1/2, -z+1/2'
25 '-y+1/2, -x+1/2, z+1/2'
26 'y+1/2, x+1/2, z+1/2'
27 'y+1/2, -x+1/2, z+1/2'
28 '-y+1/2, x+1/2, z+1/2'
29 'x+1/2, -y+1/2, z+1/2'
30 '-x+1/2, y+1/2, z+1/2'
31 '-x+1/2, -y+1/2, z+1/2'
32 'x+1/2, y+1/2, z+1/2'
loop_
_atom_type_symbol
_atom_type_oxidation_number
Li1+ 1
Sr2+ 2
Nb5+ 5
O2- -2
F1- -1
O2- -2
F1- -1
O2- -2
loop_
_atom_site_label
_atom_site_type_symbol
_atom_site_symmetry_multiplicity
_atom_site_Wyckoff_symbol
_atom_site_fract_x
_atom_site_fract_y
_atom_site_fract_z
_atom_site_B_iso_or_equiv
_atom_site_occupancy
_atom_site_attached_hydrogens
Li1 Li1+ 4 d 0 0.5 0.25 2.5 0.45 0
Sr1 Sr2+ 2 a 0 0 0 0.9(5) 1. 0
Nb1 Nb5+ 4 e 0 0 0.385(4) 0.3(3) 1. 0
O1 O2- 2 b 0 0 0.5 2.2(8) 0.8 0
F1 F1- 2 b 0 0 0.5 2.2(8) 0.2 0
O2 O2- 8 g 0 0.5 0.095(2) 2.2(8) 0.8 0
F2 F1- 8 g 0 0.5 0.095(2) 2.2(8) 0.2 0
O3 O2- 4 e 0 0 0.298(3) 2.2(8) 1. 0
#End of TTdata_92868-ICSD