
#(C) 2018 by FIZ Karlsruhe - Leibniz Institute for Information Infrastructure.  All rights reserved.
data_93021-ICSD
_database_code_ICSD 93021
_audit_creation_date 2003-04-01
_chemical_name_systematic 'Lithium vanadium(III) diphosphate(V)'
_chemical_formula_structural 'Li V (P2 O7)'
_chemical_formula_sum 'Li1 O7 P2 V1'
_chemical_name_structure_type LiInP2O7
_exptl_crystal_density_diffrn 3.01
_cell_measurement_temperature 290.
_publ_section_title

;
Crystal structure of a new vanadium(IV) diphosphate: V P2 O7, prepared by
lithium extraction from Li V P2 O7
;
loop_
_citation_id
_citation_journal_full
_citation_year
_citation_journal_volume
_citation_page_first
_citation_page_last
_citation_journal_id_ASTM
primary 'International Journal of Inorganic Materials' 2001 3 881 887 IJIMCR
loop_
_publ_author_name
'Rousse, G.'
'Wurm, C.'
'Morcrette, M.'
'Rodriguez Carvajal, J.'
'Gaubicher, J.'
'Masquelier, C.'
_cell_length_a 4.8085(1)
_cell_length_b 8.1151(1)
_cell_length_c 6.9379(1)
_cell_angle_alpha 90
_cell_angle_beta 108.9705(9)
_cell_angle_gamma 90
_cell_volume 256.02
_cell_formula_units_Z 2
_symmetry_space_group_name_H-M 'P 1 21 1'
_symmetry_Int_Tables_number 4
_refine_ls_R_factor_all 0.041
loop_
_symmetry_equiv_pos_site_id
_symmetry_equiv_pos_as_xyz
1 '-x, y+1/2, -z'
2 'x, y, z'
loop_
_atom_type_symbol
_atom_type_oxidation_number
V3+ 3
P5+ 5
O2- -2
Li1+ 1
loop_
_atom_site_label
_atom_site_type_symbol
_atom_site_symmetry_multiplicity
_atom_site_Wyckoff_symbol
_atom_site_fract_x
_atom_site_fract_y
_atom_site_fract_z
_atom_site_B_iso_or_equiv
_atom_site_occupancy
_atom_site_attached_hydrogens
V1 V3+ 2 a 0.2163(4) 0.5 0.7285(3) 1.29(4) 1. 0
P1 P5+ 2 a 0.2115(7) 0.7846(4) 0.0850(5) 1.09(6) 1. 0
P2 P5+ 2 a 0.3996(5) 0.1812(5) 0.5220(4) 1.23(6) 1. 0
O1 O2- 2 a 0.816(1) 0.5345(9) 0.5190(9) 0.87(5) 1. 0
O2 O2- 2 a 0.398(1) 0.678(1) 0.6076(8) 0.87(5) 1. 0
O3 O2- 2 a 0.056(1) 0.3219(8) 0.8546(9) 0.87(5) 1. 0
O4 O2- 2 a 0.246(1) 0.3467(8) 0.5050(8) 0.87(5) 1. 0
O5 O2- 2 a 0.125(1) 0.6944(9) 0.8871(9) 0.87(5) 1. 0
O6 O2- 2 a 0.599(1) 0.4350(8) 0.9191(9) 0.87(5) 1. 0
O7 O2- 2 a 0.407(1) 0.6506(8) 0.2443(8) 0.87(5) 1. 0
Li1 Li1+ 2 a 0.172(5) 0.865(2) 0.680(3) 1.64(45) 1. 0
#End of TTdata_93021-ICSD