
#(C) 2018 by FIZ Karlsruhe - Leibniz Institute for Information Infrastructure.  All rights reserved.
data_93384-ICSD
_database_code_ICSD 93384
_audit_creation_date 2003-04-01
_audit_update_record 2010-02-01
_chemical_name_systematic 'Lithium manganese copper telluride (1/0.98/0.19/2)'
_chemical_formula_structural 'Li (Mn0.98 Cu0.19) Te2'
_chemical_formula_sum 'Cu0.19 Li1 Mn0.98 Te2'
_chemical_name_structure_type Cu2ErS2
_exptl_crystal_density_diffrn 4.38
_publ_section_title

;
Direct and indirect preparation of layered quaternary manganese tellurides; A
Mnx My Te2 (A= Li, Na; M= Cu, Ag; x+y<= 2)
;
loop_
_citation_id
_citation_journal_full
_citation_year
_citation_journal_volume
_citation_page_first
_citation_page_last
_citation_journal_id_ASTM
primary 'Journal of Alloys and Compounds' 2001 327 116 120 JALCEU
loop_
_publ_author_name
'Kim, J.'
'Hughbanks, T.'
_cell_length_a 4.4780(6)
_cell_length_b 4.4780(6)
_cell_length_c 7.170(1)
_cell_angle_alpha 90
_cell_angle_beta 90
_cell_angle_gamma 120
_cell_volume 124.51
_cell_formula_units_Z 1
_symmetry_space_group_name_H-M 'P -3 m 1'
_symmetry_Int_Tables_number 164
_refine_ls_R_factor_all 0.022
loop_
_symmetry_equiv_pos_site_id
_symmetry_equiv_pos_as_xyz
1 'x-y, -y, -z'
2 '-x, -x+y, -z'
3 'y, x, -z'
4 'x-y, x, -z'
5 'y, -x+y, -z'
6 '-x, -y, -z'
7 '-x+y, y, z'
8 'x, x-y, z'
9 '-y, -x, z'
10 '-x+y, -x, z'
11 '-y, x-y, z'
12 'x, y, z'
loop_
_atom_type_symbol
_atom_type_oxidation_number
Li1+ 1
Mn2+ 2.867
Cu1+ 1
Te2- -2
loop_
_atom_site_label
_atom_site_type_symbol
_atom_site_symmetry_multiplicity
_atom_site_Wyckoff_symbol
_atom_site_fract_x
_atom_site_fract_y
_atom_site_fract_z
_atom_site_B_iso_or_equiv
_atom_site_occupancy
_atom_site_attached_hydrogens
Li1 Li1+ 1 a 0 0 0 0.062(12) 1. 0
Mn1 Mn2+ 2 d 0.6667 0.3333 0.6255(4) 0.022(1) 0.49 0
Cu1 Cu1+ 2 d 0.6667 0.3333 0.6255(4) 0.022(1) 0.095 0
Te1 Te2- 2 d 0.6667 0.3333 0.2414(1) 0.019(1) 1. 0
#End of TTdata_93384-ICSD