
#(C) 2018 by FIZ Karlsruhe - Leibniz Institute for Information Infrastructure.  All rights reserved.
data_93650-ICSD
_database_code_ICSD 93650
_audit_creation_date 2003-04-01
_audit_update_record 2011-02-01
_chemical_name_systematic 'Dilithium dimanganese tris(sulfate(VI))'
_chemical_formula_structural 'Li2 Mn2 (S O4)3'
_chemical_formula_sum 'Li2 Mn2 O12 S3'
_chemical_name_structure_type Li2Mn2(SO4)3
_exptl_crystal_density_diffrn 2.97
_publ_section_title
'Crystal structure and magnetic properties of Li2 Mn2 (S O4)3'
loop_
_citation_id
_citation_journal_full
_citation_year
_citation_journal_volume
_citation_page_first
_citation_page_last
_citation_journal_id_ASTM
primary 'Journal of Solid State Chemistry' 2001 158 148 153 JSSCBI
loop_
_publ_author_name
'Isasi, J.'
'Train, C.'
'Jaulmes, S.'
'Elfakir, A.'
'Quarton, M.'
_cell_length_a 8.686(2)
_cell_length_b 8.792(2)
_cell_length_c 24.146(4)
_cell_angle_alpha 90
_cell_angle_beta 90
_cell_angle_gamma 90
_cell_volume 1843.97
_cell_formula_units_Z 8
_symmetry_space_group_name_H-M 'P b c a'
_symmetry_Int_Tables_number 61
_refine_ls_R_factor_all 0.035
loop_
_symmetry_equiv_pos_site_id
_symmetry_equiv_pos_as_xyz
1 'x+1/2, y, -z+1/2'
2 'x, -y+1/2, z+1/2'
3 '-x+1/2, y+1/2, z'
4 '-x, -y, -z'
5 '-x+1/2, -y, z+1/2'
6 '-x, y+1/2, -z+1/2'
7 'x+1/2, -y+1/2, -z'
8 'x, y, z'
loop_
_atom_type_symbol
_atom_type_oxidation_number
Li1+ 1
Mn2+ 2
S6+ 6
O2- -2
loop_
_atom_site_label
_atom_site_type_symbol
_atom_site_symmetry_multiplicity
_atom_site_Wyckoff_symbol
_atom_site_fract_x
_atom_site_fract_y
_atom_site_fract_z
_atom_site_B_iso_or_equiv
_atom_site_occupancy
_atom_site_attached_hydrogens
Li1 Li1+ 8 c 0.9626(7) 0.1231(6) 0.2086(3) 0.020(2) 1. 0
Li2 Li1+ 8 c 0.3562(7) 0.4312(7) 0.0095(3) 0.021(2) 1. 0
Mn1 Mn2+ 8 c 0.49785(6) 0.29478(5) 0.17783(2) 0.0116(2) 1. 0
Mn2 Mn2+ 8 c 0.00116(5) 0.40261(4) 0.06598(2) 0.0093(1) 1. 0
S1 S6+ 8 c 0.85094(7) 0.75291(7) 0.05174(3) 0.0079(2) 1. 0
S2 S6+ 8 c 0.64445(7) 0.94674(7) 0.20128(3) 0.0080(2) 1. 0
S3 S6+ 8 c 0.19450(7) 0.09305(7) 0.11620(3) 0.0099(2) 1. 0
O1 O2- 8 c 0.6407(3) 0.2318(3) 0.11112(8) 0.0167(9) 1. 0
O2 O2- 8 c 0.5653(2) 0.3877(2) 0.0346(1) 0.0161(9) 1. 0
O3 O2- 8 c 0.6900(2) 0.7640(2) 0.03321(9) 0.0138(8) 1. 0
O4 O2- 8 c 0.5844(2) 0.1133(2) 0.02420(8) 0.0122(8) 1. 0
O5 O2- 8 c 0.5897(3) 0.9159(3) 0.1458(1) 0.024(1) 1. 0
O6 O2- 8 c 0.8132(2) 0.9562(3) 0.2024(1) 0.0171(9) 1. 0
O7 O2- 8 c 0.5946(3) 0.8218(2) 0.23787(9) 0.0178(9) 1. 0
O8 O2- 8 c 0.5810(2) 0.0913(2) 0.22202(9) 0.0125(8) 1. 0
O9 O2- 8 c 0.3104(3) 0.1779(3) 0.1453(1) 0.034(1) 1. 0
O10 O2- 8 c 0.0939(3) 0.1892(3) 0.0833(1) 0.028(1) 1. 0
O11 O2- 8 c 0.0986(3) 0.0120(3) 0.1565(1) 0.022(1) 1. 0
O12 O2- 8 c 0.2659(3) 0.9825(3) 0.07775(9) 0.0186(9) 1. 0
loop_
_atom_site_aniso_label
_atom_site_aniso_type_symbol
_atom_site_aniso_U_11
_atom_site_aniso_U_22
_atom_site_aniso_U_33
_atom_site_aniso_U_12
_atom_site_aniso_U_13
_atom_site_aniso_U_23
Li1 Li1+ 0.018(3) 0.014(3) 0.028(3) -0.002(2) 0.003(2) -0.005(2)
Li2 Li1+ 0.020(3) 0.016(3) 0.027(3) -0.003(3) -0.002(3) -0.001(2)
Mn1 Mn2+ 0.0125(2) 0.0094(1) 0.0129(2) -0.0004(2) -0.0002(2) -0.0011(1)
Mn2 Mn2+ 0.0087(1) 0.0089(1) 0.0103(1) 0.0002(1) -0.0004(1) 0.0009(1)
S1 S6+ 0.0073(2) 0.0068(2) 0.0094(2) 0.0009(2) -0.0002(2) -0.0011(2)
S2 S6+ 0.0089(2) 0.0065(2) 0.0087(2) 0.0006(2) 0.0004(2) -0.0002(2)
S3 S6+ 0.0085(2) 0.0069(2) 0.0143(3) 0.0001(2) 0.0005(2) 0.0010(2)
O1 O2- 0.0205(9) 0.021(1) 0.0090(8) -0.0006(8) 0.0022(7) -0.0029(7)
O2 O2- 0.0154(9) 0.0083(8) 0.025(1) 0.0024(7) -0.0014(8) -0.0003(7)
O3 O2- 0.0079(7) 0.0167(9) 0.0169(8) 0.0027(7) -0.0020(6) -0.0028(7)
O4 O2- 0.0161(8) 0.0091(8) 0.0114(8) -0.0046(7) -0.0016(6) -0.0025(6)
O5 O2- 0.028(2) 0.029(2) 0.0143(9) 0.008(1) -0.0101(8) -0.0075(9)
O6 O2- 0.0078(7) 0.0154(8) 0.028(2) -0.0004(6) 0.0011(8) -0.0065(8)
O7 O2- 0.026(1) 0.0081(7) 0.020(1) -0.0030(7) 0.0082(8) 0.0029(7)
O8 O2- 0.0172(9) 0.0067(7) 0.0135(8) 0.0035(7) 0.0034(7) -0.0004(7)
O9 O2- 0.026(2) 0.029(2) 0.048(2) -0.014(2) -0.013(2) -0.009(2)
O10 O2- 0.035(2) 0.015(1) 0.034(2) 0.014(1) -0.011(2) 0.0016(9)
O11 O2- 0.030(2) 0.0145(9) 0.022(1) -0.0077(9) 0.0136(9) -0.0009(8)
O12 O2- 0.0161(9) 0.021(1) 0.0189(9) 0.0084(8) 0.0045(8) -0.0031(8)
#End of TTdata_93650-ICSD