
#(C) 2018 by FIZ Karlsruhe - Leibniz Institute for Information Infrastructure.  All rights reserved.
data_93662-ICSD
_database_code_ICSD 93662
_audit_creation_date 2003-04-01
_chemical_name_systematic 'Lithium nickel oxide (0.63/1.02/2)'
_chemical_formula_structural '(Li0.63 Ni0.022) Ni0.998 O2'
_chemical_formula_sum 'Li0.63 Ni1.02 O2'
_chemical_name_structure_type Na.5FeO2
_exptl_crystal_density_diffrn 4.76
_cell_measurement_temperature 300.
_publ_section_title
'Structural characterization of Li1-z-x Ni1+z O2 by neutron diffraction'
loop_
_citation_id
_citation_journal_full
_citation_year
_citation_journal_volume
_citation_page_first
_citation_page_last
_citation_journal_id_ASTM
primary 'Journal of Solid State Chemistry' 2001 158 187 197 JSSCBI
loop_
_publ_author_name
'Pouillerie, C.'
'Suard, E.'
'Delmas, C.'
_cell_length_a 4.9894(5)
_cell_length_b 2.8247(3)
_cell_length_c 5.0656(6)
_cell_angle_alpha 90
_cell_angle_beta 109.816(8)
_cell_angle_gamma 90
_cell_volume 67.16
_cell_formula_units_Z 2
_symmetry_space_group_name_H-M 'C 1 2/m 1'
_symmetry_Int_Tables_number 12
_refine_ls_R_factor_all 0.049
loop_
_symmetry_equiv_pos_site_id
_symmetry_equiv_pos_as_xyz
1 '-x, y, -z'
2 '-x, -y, -z'
3 'x, -y, z'
4 'x, y, z'
5 '-x+1/2, y+1/2, -z'
6 '-x+1/2, -y+1/2, -z'
7 'x+1/2, -y+1/2, z'
8 'x+1/2, y+1/2, z'
loop_
_atom_type_symbol
_atom_type_oxidation_number
Li1+ 1
Ni2+ 2
Ni3+ 3.333
O2- -2
loop_
_atom_site_label
_atom_site_type_symbol
_atom_site_symmetry_multiplicity
_atom_site_Wyckoff_symbol
_atom_site_fract_x
_atom_site_fract_y
_atom_site_fract_z
_atom_site_B_iso_or_equiv
_atom_site_occupancy
_atom_site_attached_hydrogens
Li1 Li1+ 2 d 0 0.5 0.5 1.0(10) 0.63 0
Ni1 Ni2+ 2 d 0 0.5 0.5 1.0(10) 0.022(10) 0
Ni2 Ni3+ 2 a 0 0 0 0.5(1) 0.998(10) 0
O1 O2- 4 i 0.734(1) 0 0.211(1) 0.9(2) 1. 0
#End of TTdata_93662-ICSD