
#(C) 2018 by FIZ Karlsruhe - Leibniz Institute for Information Infrastructure.  All rights reserved.
data_94356-ICSD
_database_code_ICSD 94356
_audit_creation_date 2003-10-01
_chemical_name_systematic 'Trilithium gadolinium bis(borate)'
_chemical_formula_structural 'Li3 Gd (B O3)2'
_chemical_formula_sum 'B2 Gd1 Li3 O6'
_exptl_crystal_density_diffrn 3.89
_publ_section_title

;
Crystal structure of the new borate Li3 Gd (B O3)2. Comparison withthe
homologous Na3 Ln (B O3)2 (Ln: La, Nd) compounds
;
loop_
_citation_id
_citation_journal_full
_citation_year
_citation_journal_volume
_citation_page_first
_citation_page_last
_citation_journal_id_ASTM
primary 'Solid State Sciences' 2001 3 469 475 SSSCFJ
loop_
_publ_author_name
'Jubera, V.'
'Gravereau, P.'
'Chaminade, J.P.'
_cell_length_a 8.724(2)
_cell_length_b 6.425(2)
_cell_length_c 10.095(2)
_cell_angle_alpha 90
_cell_angle_beta 116.85(2)
_cell_angle_gamma 90
_cell_volume 504.84
_cell_formula_units_Z 4
_symmetry_space_group_name_H-M 'P 1 21/c 1'
_symmetry_Int_Tables_number 14
_refine_ls_R_factor_all 0.028
loop_
_symmetry_equiv_pos_site_id
_symmetry_equiv_pos_as_xyz
1 'x, -y+1/2, z+1/2'
2 '-x, -y, -z'
3 '-x, y+1/2, -z+1/2'
4 'x, y, z'
loop_
_atom_type_symbol
_atom_type_oxidation_number
Gd3+ 3
Li1+ 1
B3+ 3
O2- -2
loop_
_atom_site_label
_atom_site_type_symbol
_atom_site_symmetry_multiplicity
_atom_site_Wyckoff_symbol
_atom_site_fract_x
_atom_site_fract_y
_atom_site_fract_z
_atom_site_B_iso_or_equiv
_atom_site_occupancy
_atom_site_attached_hydrogens
Gd1 Gd3+ 4 e 0.81802(1) 0.02739(2) 0.80038(1) 0.00500(4) 1. 0
Li1 Li1+ 4 e 0.1644(6) 0.2188(8) 0.4601(5) 0.0113(7) 1. 0
Li2 Li1+ 4 e 0.2966(7) 0.0615(8) 0.8340(6) 0.0127(8) 1. 0
Li3 Li1+ 4 e 0.6036(6) 0.2446(9) 0.9773(5) 0.0144(8) 1. 0
B1 B3+ 4 e 0.4596(3) 0.1631(4) 0.1772(3) 0.0071(3) 1. 0
B2 B3+ 4 e 0.9476(3) 0.1713(4) 0.6070(2) 0.0067(3) 1. 0
O1 O2- 4 e 0.6188(2) 0.2091(3) 0.1891(2) 0.0095(3) 1. 0
O2 O2- 4 e 0.4103(2) 0.2092(3) 0.2871(2) 0.0089(3) 1. 0
O3 O2- 4 e 0.3362(2) 0.0607(3) 0.0526(2) 0.0079(2) 1. 0
O4 O2- 4 e 0.7971(2) 0.0642(3) 0.5605(2) 0.0073(2) 1. 0
O5 O2- 4 e 0.9899(2) 0.2147(3) 0.0133(2) 0.0079(2) 1. 0
O6 O2- 4 e 0.0585(2) 0.1812(3) 0.7579(2) 0.0091(3) 1. 0
loop_
_atom_site_aniso_label
_atom_site_aniso_type_symbol
_atom_site_aniso_U_11
_atom_site_aniso_U_22
_atom_site_aniso_U_33
_atom_site_aniso_U_12
_atom_site_aniso_U_13
_atom_site_aniso_U_23
Gd1 Gd3+ 0.00380(5) 0.00595(6) 0.00454(5) -0.00020(2) 0.00126(3) 0.00031(2)
Li1 Li1+ 0.013(2) 0.010(2) 0.012(2) -0.002(2) 0.006(2) -0.003(2)
Li2 Li1+ 0.015(2) 0.006(2) 0.018(3) 0.000(2) 0.009(2) 0.001(2)
Li3 Li1+ 0.011(2) 0.016(2) 0.014(2) -0.001(2) 0.004(2) -0.002(2)
B1 B3+ 0.0061(7) 0.0063(8) 0.0084(7) -0.0003(6) 0.0029(6) -0.0002(7)
B2 B3+ 0.0066(7) 0.0060(8) 0.0073(7) -0.0004(6) 0.0029(6) 0.0001(6)
O1 O2- 0.0064(5) 0.0102(7) 0.0129(6) -0.0030(5) 0.0054(5) -0.0021(5)
O2 O2- 0.0072(5) 0.0115(7) 0.0089(5) -0.0019(5) 0.0044(5) -0.0038(5)
O3 O2- 0.0060(5) 0.0084(6) 0.0074(5) -0.0007(5) 0.0013(4) -0.0013(5)
O4 O2- 0.0065(5) 0.0068(5) 0.0081(5) -0.0010(5) 0.0029(4) 0.0000(5)
O5 O2- 0.0079(5) 0.0077(6) 0.0085(5) 0.0005(5) 0.0041(5) -0.0018(5)
O6 O2- 0.0071(5) 0.0130(7) 0.0057(5) -0.0012(5) 0.0014(4) -0.0002(5)
#End of TTdata_94356-ICSD