
#(C) 2018 by FIZ Karlsruhe - Leibniz Institute for Information Infrastructure.  All rights reserved.
data_94542-ICSD
_database_code_ICSD 94542
_audit_creation_date 2003-10-01
_chemical_name_systematic 'Lithium rubidium dineodymium tetrakis(molybdate)'
_chemical_formula_structural 'Li Rb Nd2 (Mo O4)4'
_chemical_formula_sum 'Li1 Mo4 Nd2 O16 Rb1'
_chemical_name_structure_type Li3Ba2Tm3(MoO4)8
_exptl_crystal_density_diffrn 5.03
_cell_measurement_temperature 297.
_publ_section_title

;
Crystal structure and luminescence properties of ternary molybdates Li M Nd2
(Mo O4)4 (M = K, Rb, Tl)
;
loop_
_citation_id
_citation_journal_full
_citation_year
_citation_journal_volume
_citation_page_first
_citation_page_last
_citation_journal_id_ASTM
primary 'Zhurnal Neorganicheskoi Khimii' 2001 46 977 982 ZNOKAQ
loop_
_publ_author_name
'Morozov, V.A.'
'Lazoryak, B.I.'
'Smirnov, V.A.'
'Mikhailin, V.V.'
'Basovich, O.M.'
'Khaikina, E.G.'
_cell_length_a 5.3072(1)
_cell_length_b 12.972(1)
_cell_length_c 19.604(1)
_cell_angle_alpha 90
_cell_angle_beta 92.478(1)
_cell_angle_gamma 90
_cell_volume 1348.38
_cell_formula_units_Z 4
_symmetry_space_group_name_H-M 'C 1 2/c 1'
_symmetry_Int_Tables_number 15
_refine_ls_R_factor_all 0.0123
loop_
_symmetry_equiv_pos_site_id
_symmetry_equiv_pos_as_xyz
1 'x, -y, z+1/2'
2 '-x, -y, -z'
3 '-x, y, -z+1/2'
4 'x, y, z'
5 'x+1/2, -y+1/2, z+1/2'
6 '-x+1/2, -y+1/2, -z'
7 '-x+1/2, y+1/2, -z+1/2'
8 'x+1/2, y+1/2, z'
loop_
_atom_type_symbol
_atom_type_oxidation_number
Nd3+ 3
Rb1+ 1
Li1+ 1
Mo6+ 6
O2- -2
loop_
_atom_site_label
_atom_site_type_symbol
_atom_site_symmetry_multiplicity
_atom_site_Wyckoff_symbol
_atom_site_fract_x
_atom_site_fract_y
_atom_site_fract_z
_atom_site_B_iso_or_equiv
_atom_site_occupancy
_atom_site_attached_hydrogens
Nd1 Nd3+ 8 f 0.4998(3) 0.3528(1) 0.0337(1) 0.76(4) 1. 0
Rb1 Rb1+ 4 e 0 0.9679(3) 0.25 2.1(1) 1. 0
Li1 Li1+ 4 e 0 0.696(4) 0.25 2. 1. 0
Mo1 Mo6+ 8 f 0.0063(3) 0.2552(2) 0.1493(1) 0.80(5) 1. 0
Mo2 Mo6+ 8 f 0.5101(4) 0.0616(2) 0.0918(1) 0.83(5) 1. 0
O1 O2- 8 f 0.768(2) 0.348(1) 0.1376(5) 0.6(2) 1. 0
O2 O2- 8 f 0.863(2) 0.148(1) 0.1744(5) 0.6(2) 1. 0
O3 O2- 8 f 0.247(2) 0.291(1) 0.2062(6) 0.6(2) 1. 0
O4 O2- 8 f 0.171(2) 0.2390(9) 0.0660(5) 0.6(2) 1. 0
O5 O2- 8 f 0.229(2) 0.0207(9) 0.0438(7) 1.3(2) 1. 0
O6 O2- 8 f 0.715(2) 0.963(1) 0.1005(6) 1.3(2) 1. 0
O7 O2- 8 f 0.360(2) 0.093(1) 0.1758(6) 1.3(2) 1. 0
O8 O2- 8 f 0.654(2) 0.1680(8) 0.0451(6) 1.3(2) 1. 0
#End of TTdata_94542-ICSD