
#(C) 2018 by FIZ Karlsruhe - Leibniz Institute for Information Infrastructure.  All rights reserved.
data_94541-ICSD
_database_code_ICSD 94541
_audit_creation_date 2003-10-01
_chemical_name_systematic 'Lithium potassium dineodymium tetrakis(molybdate)'
_chemical_formula_structural 'Li K Nd2 (Mo O4)4'
_chemical_formula_sum 'K1 Li1 Mo4 Nd2 O16'
_chemical_name_structure_type Li3Ba2Tm3(MoO4)8
_exptl_crystal_density_diffrn 4.87
_cell_measurement_temperature 297.
_publ_section_title

;
Crystal structure and luminescence properties of ternary molybdates Li M Nd2
(Mo O4)4 (M = K, Rb, Tl)
;
loop_
_citation_id
_citation_journal_full
_citation_year
_citation_journal_volume
_citation_page_first
_citation_page_last
_citation_journal_id_ASTM
primary 'Zhurnal Neorganicheskoi Khimii' 2001 46 977 982 ZNOKAQ
loop_
_publ_author_name
'Morozov, V.A.'
'Lazoryak, B.I.'
'Smirnov, V.A.'
'Mikhailin, V.V.'
'Basovich, O.M.'
'Khaikina, E.G.'
_cell_length_a 5.3106(1)
_cell_length_b 12.850(1)
_cell_length_c 19.469(1)
_cell_angle_alpha 90
_cell_angle_beta 92.265(1)
_cell_angle_gamma 90
_cell_volume 1327.55
_cell_formula_units_Z 4
_symmetry_space_group_name_H-M 'C 1 2/c 1'
_symmetry_Int_Tables_number 15
_refine_ls_R_factor_all 0.0108
loop_
_symmetry_equiv_pos_site_id
_symmetry_equiv_pos_as_xyz
1 'x, -y, z+1/2'
2 '-x, -y, -z'
3 '-x, y, -z+1/2'
4 'x, y, z'
5 'x+1/2, -y+1/2, z+1/2'
6 '-x+1/2, -y+1/2, -z'
7 '-x+1/2, y+1/2, -z+1/2'
8 'x+1/2, y+1/2, z'
loop_
_atom_type_symbol
_atom_type_oxidation_number
Nd3+ 3
K1+ 1
Li1+ 1
Mo6+ 6
O2- -2
loop_
_atom_site_label
_atom_site_type_symbol
_atom_site_symmetry_multiplicity
_atom_site_Wyckoff_symbol
_atom_site_fract_x
_atom_site_fract_y
_atom_site_fract_z
_atom_site_B_iso_or_equiv
_atom_site_occupancy
_atom_site_attached_hydrogens
Nd1 Nd3+ 8 f 0.4985(5) 0.3512(2) 0.0339(1) 0.6(1) 1. 0
K1 K1+ 4 e 0 0.979(1) 0.25 2.9(4) 1. 0
Li1 Li1+ 4 e 0 0.669(8) 0.25 2.(2) 1. 0
Mo1 Mo6+ 8 f 0.0057(7) 0.2601(3) 0.1506(2) 0.2(1) 1. 0
Mo2 Mo6+ 8 f 0.5116(7) 0.0612(3) 0.0936(2) 0.3(1) 1. 0
O1 O2- 8 f 0.760(3) 0.339(2) 0.1425(9) 0.4(2) 1. 0
O2 O2- 8 f 0.902(4) 0.121(2) 0.169(1) 0.4(2) 1. 0
O3 O2- 8 f 0.205(4) 0.310(2) 0.220(1) 0.4(2) 1. 0
O4 O2- 8 f 0.173(4) 0.224(2) 0.072(1) 0.4(2) 1. 0
O5 O2- 8 f 0.221(4) 0.022(2) 0.050(1) 1.6(3) 1. 0
O6 O2- 8 f 0.723(4) 0.970(2) 0.097(1) 1.6(3) 1. 0
O7 O2- 8 f 0.345(4) 0.103(2) 0.165(1) 1.6(3) 1. 0
O8 O2- 8 f 0.675(4) 0.167(2) 0.0504(9) 1.6(3) 1. 0
#End of TTdata_94541-ICSD