
#(C) 2018 by FIZ Karlsruhe - Leibniz Institute for Information Infrastructure.  All rights reserved.
data_94929-ICSD
_database_code_ICSD 94929
_audit_creation_date 2003-10-01
_chemical_name_systematic 'Trilanthanum strontium lithium manganese(IV) oxide'
_chemical_formula_structural 'La3 Sr Li Mn O8'
_chemical_formula_sum 'La3 Li1 Mn1 O8 Sr1'
_chemical_name_structure_type K2MgF4
_exptl_crystal_density_diffrn 6.28
_publ_section_title

;
Magnetism and structural chemistry of the n=1 Ruddlesden-Popper phases La4 Li
Mn O8 and La3 Sr Li Mn O8
;
loop_
_citation_id
_citation_journal_full
_citation_year
_citation_journal_volume
_citation_page_first
_citation_page_last
_citation_journal_id_ASTM
primary 'Journal of the American Chemical Society' 2002 124 620 628 JACSAT
loop_
_publ_author_name
'Burley, J.C.'
'Battle, P.D.'
'Gallon, D.J.'
'Sloan, J.'
'Grey, C.P.'
'Rosseinsky, M.J.'
_cell_length_a 3.80292(5)
_cell_length_b 3.80292(5)
_cell_length_c 12.6881(2)
_cell_angle_alpha 90
_cell_angle_beta 90
_cell_angle_gamma 90
_cell_volume 183.5
_cell_formula_units_Z 1
_symmetry_space_group_name_H-M 'I 4/m m m'
_symmetry_Int_Tables_number 139
_refine_ls_R_factor_all 0.0363
loop_
_symmetry_equiv_pos_site_id
_symmetry_equiv_pos_as_xyz
1 'y, x, -z'
2 '-y, -x, -z'
3 '-y, x, -z'
4 'y, -x, -z'
5 '-x, y, -z'
6 'x, -y, -z'
7 'x, y, -z'
8 '-x, -y, -z'
9 '-y, -x, z'
10 'y, x, z'
11 'y, -x, z'
12 '-y, x, z'
13 'x, -y, z'
14 '-x, y, z'
15 '-x, -y, z'
16 'x, y, z'
17 'y+1/2, x+1/2, -z+1/2'
18 '-y+1/2, -x+1/2, -z+1/2'
19 '-y+1/2, x+1/2, -z+1/2'
20 'y+1/2, -x+1/2, -z+1/2'
21 '-x+1/2, y+1/2, -z+1/2'
22 'x+1/2, -y+1/2, -z+1/2'
23 'x+1/2, y+1/2, -z+1/2'
24 '-x+1/2, -y+1/2, -z+1/2'
25 '-y+1/2, -x+1/2, z+1/2'
26 'y+1/2, x+1/2, z+1/2'
27 'y+1/2, -x+1/2, z+1/2'
28 '-y+1/2, x+1/2, z+1/2'
29 'x+1/2, -y+1/2, z+1/2'
30 '-x+1/2, y+1/2, z+1/2'
31 '-x+1/2, -y+1/2, z+1/2'
32 'x+1/2, y+1/2, z+1/2'
loop_
_atom_type_symbol
_atom_type_oxidation_number
La3+ 3
Sr2+ 2
Li1+ 1
Mn4+ 4
O2- -2
loop_
_atom_site_label
_atom_site_type_symbol
_atom_site_symmetry_multiplicity
_atom_site_Wyckoff_symbol
_atom_site_fract_x
_atom_site_fract_y
_atom_site_fract_z
_atom_site_B_iso_or_equiv
_atom_site_occupancy
_atom_site_attached_hydrogens
La1 La3+ 4 e 0 0 0.36263(6) 0.0064(3) 0.75 0
Sr1 Sr2+ 4 e 0 0 0.36263(6) 0.0064(3) 0.25 0
Li1 Li1+ 2 a 0 0 0 0.0098(6) 0.5 0
Mn1 Mn4+ 2 a 0 0 0 0.0098(6) 0.5 0
O1 O2- 4 e 0 0 0.1698(1) 0.0208(6) 1. 0
O2 O2- 4 c 0.5 0 0 0.0068(6) 1. 0
loop_
_atom_site_aniso_label
_atom_site_aniso_type_symbol
_atom_site_aniso_U_11
_atom_site_aniso_U_22
_atom_site_aniso_U_33
_atom_site_aniso_U_12
_atom_site_aniso_U_13
_atom_site_aniso_U_23
La1 La3+ 0.0068(3) 0.0056(4) 0.0064(3) 0. 0. 0.
Sr1 Sr2+ 0.0058(3) 0.0056(4) 0.0064(3) 0. 0. 0.
O1 O2- 0.0191(6) 0.0191(6) 0.0243(7) 0. 0. 0.
O2 O2- 0.0054(6) 0.0064(6) 0.0085(7) 0. 0. 0.
#End of TTdata_94929-ICSD