
#(C) 2018 by FIZ Karlsruhe - Leibniz Institute for Information Infrastructure.  All rights reserved.
data_9538-ICSD
_database_code_ICSD 9538
_audit_creation_date 1980-01-01
_audit_update_record 2003-04-01
_chemical_name_systematic 'Lithium tantalate - HT'
_chemical_formula_structural 'Li (Ta O3)'
_chemical_formula_sum 'Li1 O3 Ta1'
_exptl_crystal_density_diffrn 7.41
_cell_measurement_temperature 297.
_publ_section_title

;
Ferroelectric lithium tantalate - 1. Single crystal X-ray diffraction study at
24 C
;
loop_
_citation_id
_citation_journal_full
_citation_year
_citation_journal_volume
_citation_page_first
_citation_page_last
_citation_journal_id_ASTM
primary 'Journal of Physics and Chemistry of Solids' 1967 28 1693 1698 JPCSAW
loop_
_publ_author_name
'Abrahams, S.C.'
'Hamilton, W.C.'
'Sequeira, A.'
_cell_length_a 5.15428(1)
_cell_length_b 5.15428(1)
_cell_length_c 13.7835
_cell_angle_alpha 90.
_cell_angle_beta 90.
_cell_angle_gamma 120.
_cell_volume 317.12
_cell_formula_units_Z 6
_symmetry_space_group_name_H-M 'R -3 c H'
_symmetry_Int_Tables_number 167
_refine_ls_R_factor_all 0.0335
loop_
_symmetry_equiv_pos_site_id
_symmetry_equiv_pos_as_xyz
1 'x-y, -y, -z+1/2'
2 '-x, -x+y, -z+1/2'
3 'y, x, -z+1/2'
4 'x-y, x, -z'
5 'y, -x+y, -z'
6 '-x, -y, -z'
7 '-x+y, y, z+1/2'
8 'x, x-y, z+1/2'
9 '-y, -x, z+1/2'
10 '-x+y, -x, z'
11 '-y, x-y, z'
12 'x, y, z'
13 'x-y+2/3, -y+1/3, -z+5/6'
14 '-x+2/3, -x+y+1/3, -z+5/6'
15 'y+2/3, x+1/3, -z+5/6'
16 'x-y+2/3, x+1/3, -z+1/3'
17 'y+2/3, -x+y+1/3, -z+1/3'
18 '-x+2/3, -y+1/3, -z+1/3'
19 '-x+y+2/3, y+1/3, z+5/6'
20 'x+2/3, x-y+1/3, z+5/6'
21 '-y+2/3, -x+1/3, z+5/6'
22 '-x+y+2/3, -x+1/3, z+1/3'
23 '-y+2/3, x-y+1/3, z+1/3'
24 'x+2/3, y+1/3, z+1/3'
25 'x-y+1/3, -y+2/3, -z+1/6'
26 '-x+1/3, -x+y+2/3, -z+1/6'
27 'y+1/3, x+2/3, -z+1/6'
28 'x-y+1/3, x+2/3, -z+2/3'
29 'y+1/3, -x+y+2/3, -z+2/3'
30 '-x+1/3, -y+2/3, -z+2/3'
31 '-x+y+1/3, y+2/3, z+1/6'
32 'x+1/3, x-y+2/3, z+1/6'
33 '-y+1/3, -x+2/3, z+1/6'
34 '-x+y+1/3, -x+2/3, z+2/3'
35 '-y+1/3, x-y+2/3, z+2/3'
36 'x+1/3, y+2/3, z+2/3'
loop_
_atom_type_symbol
_atom_type_oxidation_number
Li1+ 1
Ta5+ 5
O2- -2
loop_
_atom_site_label
_atom_site_type_symbol
_atom_site_symmetry_multiplicity
_atom_site_Wyckoff_symbol
_atom_site_fract_x
_atom_site_fract_y
_atom_site_fract_z
_atom_site_B_iso_or_equiv
_atom_site_occupancy
_atom_site_attached_hydrogens
Li1 Li1+ 12 c 0 0 0.2790(17) . 0.5 0
Ta1 Ta5+ 6 b 0 0 0 . 1. 0
O1 O2- 36 f 0.0501(5) 0.3436(3) 0.0687(3) . 0.5 0
loop_
_atom_site_aniso_label
_atom_site_aniso_type_symbol
_atom_site_aniso_beta_11
_atom_site_aniso_beta_22
_atom_site_aniso_beta_33
_atom_site_aniso_beta_12
_atom_site_aniso_beta_13
_atom_site_aniso_beta_23
Li1 Li1+ 0.0106(61) 0.0106(61) 0.0043(10) 0.0053(31) 0 0
Ta1 Ta5+ 0.0055(17) 0.0055(17) 0.0003(1) 0.0028(9) 0 0
O1 O2- 0.0056(12) 0.0038(14) 0.0011(2) 0.0019(12) -.0004(3) -.0007(2)
#End of TTdata_9538-ICSD