
#(C) 2018 by FIZ Karlsruhe - Leibniz Institute for Information Infrastructure.  All rights reserved.
data_95679-ICSD
_database_code_ICSD 95679
_audit_creation_date 2003-10-01
_chemical_name_systematic 'Lanthanum lithium titanium oxide (1/0.33/0.67/3)'
_chemical_formula_structural 'La (Li0.333 Ti0.667) O3'
_chemical_formula_sum 'La1 Li0.333 O3 Ti0.667'
_chemical_name_structure_type Perovskite-Ba2LaRuO6
_exptl_crystal_density_diffrn 6.04
_publ_section_title

;
Crystal structure of the perovskite-related phase of approximate composition
La Li1/3 Ti2/3 O3
;
loop_
_citation_id
_citation_journal_full
_citation_year
_citation_journal_volume
_citation_page_first
_citation_page_last
_citation_journal_id_ASTM
primary 'Solid State Sciences' 2002 4 1163 1166 SSSCFJ
loop_
_publ_author_name
'Kirk, C.A.'
'West, A.R.'
_cell_length_a 5.5639(2)
_cell_length_b 5.5688(2)
_cell_length_c 7.8490(2)
_cell_angle_alpha 90
_cell_angle_beta 89.834(3)
_cell_angle_gamma 90
_cell_volume 243.19
_cell_formula_units_Z 4
_symmetry_space_group_name_H-M 'P 1 21/n 1'
_symmetry_Int_Tables_number 14
loop_
_symmetry_equiv_pos_site_id
_symmetry_equiv_pos_as_xyz
1 '-x+1/2, y+1/2, -z+1/2'
2 '-x, -y, -z'
3 'x+1/2, -y+1/2, z+1/2'
4 'x, y, z'
loop_
_atom_type_symbol
_atom_type_oxidation_number
La3+ 3
Ti4+ 4
Li1+ 1
O2- -2
loop_
_atom_site_label
_atom_site_type_symbol
_atom_site_symmetry_multiplicity
_atom_site_Wyckoff_symbol
_atom_site_fract_x
_atom_site_fract_y
_atom_site_fract_z
_atom_site_B_iso_or_equiv
_atom_site_occupancy
_atom_site_attached_hydrogens
La1 La3+ 4 e 0.4940(4) 0.5347(2) 0.2484(6) 0.0082(2) 1. 0
Ti1 Ti4+ 2 d 0.5 0 0 0.009(2) 1. 0
Ti2 Ti4+ 2 c 0 0.5 0 0.010(2) 0.333 0
Li1 Li1+ 2 c 0 0.5 0 0.010(2) 0.667 0
O1 O2- 4 e 0.2809(7) 0.2936(8) 0.0376(5) 0.0087(9) 1. 0
O2 O2- 4 e 0.2114(8) 0.7812(8) 0.0419(5) 0.0134(9) 1. 0
O3 O2- 4 e 0.5745(4) 0.9862(4) 0.2541(6) 0.0114(3) 1. 0
#End of TTdata_95679-ICSD