
#(C) 2017 by FIZ Karlsruhe - Leibniz Institute for Information Infrastructure.  All rights reserved.
data_95776-ICSD
_database_code_ICSD 95776
_audit_creation_date 2004-04-01
_audit_update_record 2015-02-01
_chemical_name_systematic 'Lithium hexafluororhodate(V)'
_chemical_formula_structural 'Li (Rh F6)'
_chemical_formula_sum 'F6 Li1 Rh1'
_chemical_name_structure_type LiSbF6
_exptl_crystal_density_diffrn 3.74
_publ_section_title
'Einkristalluntersuchungen an Li M F6 (M = Rh, Ir), Li2 Rh F6 und K2 Ir F6'
loop_
_citation_id
_citation_journal_full
_citation_year
_citation_journal_volume
_citation_page_first
_citation_page_last
_citation_journal_id_ASTM
primary 'Zeitschrift fuer Anorganische und Allgemeine Chemie (1950) (DE)' 2002
628 133 137 ZAACAB
loop_
_publ_author_name
'Fitz, H.'
'Mueller, B.G.'
'Grandejus, O.'
'Bartlett, N.'
_cell_length_a 5.02018(7)
_cell_length_b 5.02018(7)
_cell_length_c 13.5588(3)
_cell_angle_alpha 90
_cell_angle_beta 90
_cell_angle_gamma 120
_cell_volume 295.93
_cell_formula_units_Z 3
_symmetry_space_group_name_H-M 'R -3 H'
_symmetry_Int_Tables_number 148
_refine_ls_R_factor_all 0.0379
loop_
_symmetry_equiv_pos_site_id
_symmetry_equiv_pos_as_xyz
1 'x-y, x, -z'
2 'y, -x+y, -z'
3 '-x, -y, -z'
4 '-x+y, -x, z'
5 '-y, x-y, z'
6 'x, y, z'
7 'x-y+2/3, x+1/3, -z+1/3'
8 'y+2/3, -x+y+1/3, -z+1/3'
9 '-x+2/3, -y+1/3, -z+1/3'
10 '-x+y+2/3, -x+1/3, z+1/3'
11 '-y+2/3, x-y+1/3, z+1/3'
12 'x+2/3, y+1/3, z+1/3'
13 'x-y+1/3, x+2/3, -z+2/3'
14 'y+1/3, -x+y+2/3, -z+2/3'
15 '-x+1/3, -y+2/3, -z+2/3'
16 '-x+y+1/3, -x+2/3, z+2/3'
17 '-y+1/3, x-y+2/3, z+2/3'
18 'x+1/3, y+2/3, z+2/3'
loop_
_atom_type_symbol
_atom_type_oxidation_number
Rh5+ 5
Li1+ 1
F1- -1
loop_
_atom_site_label
_atom_site_type_symbol
_atom_site_symmetry_multiplicity
_atom_site_Wyckoff_symbol
_atom_site_fract_x
_atom_site_fract_y
_atom_site_fract_z
_atom_site_B_iso_or_equiv
_atom_site_occupancy
_atom_site_attached_hydrogens
Rh1 Rh5+ 3 a 0 0 0 . 1. 0
Li1 Li1+ 3 b 0 0 0.5 . 1. 0
F1 F1- 18 f 0.3147(4) 0.2844(4) 0.9205(2) . 1. 0
loop_
_atom_site_aniso_label
_atom_site_aniso_type_symbol
_atom_site_aniso_U_11
_atom_site_aniso_U_22
_atom_site_aniso_U_33
_atom_site_aniso_U_12
_atom_site_aniso_U_13
_atom_site_aniso_U_23
Rh1 Rh5+ 0.0131(2) 0.0131(2) 0.0114(2) 0.00654(6) 0. 0.
Li1 Li1+ 0.025(3) 0.025(4) 0.024(6) 0.012(2) 0. 0.
F1 F1- 0.0205(7) 0.0210(7) 0.0214(8) 0.0078(6) 0.0061(6) 0.0048(6)
#End of TTdata_95776-ICSD