
#(C) 2017 by FIZ Karlsruhe - Leibniz Institute for Information Infrastructure.  All rights reserved.
data_95778-ICSD
_database_code_ICSD 95778
_audit_creation_date 2004-04-01
_chemical_name_systematic 'Dilithium hexafluororhodate(IV)'
_chemical_formula_structural 'Li2 (Rh F6)'
_chemical_formula_sum 'F6 Li2 Rh1'
_chemical_name_structure_type ZnSb2O6
_exptl_crystal_density_diffrn 3.9
_publ_section_title
'Einkristalluntersuchungen an Li M F6 (M = Rh, Ir), Li2 Rh F6 und K2Ir F6'
loop_
_citation_id
_citation_journal_full
_citation_year
_citation_journal_volume
_citation_page_first
_citation_page_last
_citation_journal_id_ASTM
primary 'Zeitschrift fuer Anorganische und Allgemeine Chemie (1950) (DE)' 2002
628 133 137 ZAACAB
loop_
_publ_author_name
'Fitz, H.'
'Mueller, B.G.'
'Grandejus, O.'
'Bartlett, N.'
_cell_length_a 4.63880(8)
_cell_length_b 4.63880(8)
_cell_length_c 9.0557(2)
_cell_angle_alpha 90
_cell_angle_beta 90
_cell_angle_gamma 90
_cell_volume 194.86
_cell_formula_units_Z 2
_symmetry_space_group_name_H-M 'P 42/m n m'
_symmetry_Int_Tables_number 136
_refine_ls_R_factor_all 0.0352
loop_
_symmetry_equiv_pos_site_id
_symmetry_equiv_pos_as_xyz
1 '-y+1/2, x+1/2, -z+1/2'
2 'y+1/2, -x+1/2, -z+1/2'
3 'y, x, -z'
4 '-y, -x, -z'
5 'y+1/2, -x+1/2, z+1/2'
6 '-y+1/2, x+1/2, z+1/2'
7 '-y, -x, z'
8 'y, x, z'
9 'x+1/2, -y+1/2, -z+1/2'
10 '-x+1/2, y+1/2, -z+1/2'
11 'x, y, -z'
12 '-x, -y, -z'
13 '-x+1/2, y+1/2, z+1/2'
14 'x+1/2, -y+1/2, z+1/2'
15 '-x, -y, z'
16 'x, y, z'
loop_
_atom_type_symbol
_atom_type_oxidation_number
Rh4+ 4
Li1+ 1
F1- -1
loop_
_atom_site_label
_atom_site_type_symbol
_atom_site_symmetry_multiplicity
_atom_site_Wyckoff_symbol
_atom_site_fract_x
_atom_site_fract_y
_atom_site_fract_z
_atom_site_B_iso_or_equiv
_atom_site_occupancy
_atom_site_attached_hydrogens
Rh1 Rh4+ 2 a 0 0 0 . 1. 0
Li1 Li1+ 4 e 0 0 0.336(2) . 1. 0
F1 F1- 4 f 0.2890(6) 0.2890(6) 0 . 1. 0
F2 F1- 8 j 0.3062(5) 0.3062(5) 0.6575(3) . 1. 0
loop_
_atom_site_aniso_label
_atom_site_aniso_type_symbol
_atom_site_aniso_U_11
_atom_site_aniso_U_22
_atom_site_aniso_U_33
_atom_site_aniso_U_12
_atom_site_aniso_U_13
_atom_site_aniso_U_23
Rh1 Rh4+ 0.0071(6) 0.0071(6) 0.0061(8) 0.00004(20) 0. 0.
Li1 Li1+ 0.010(6) 0.010(6) 0.0001(90) -0.003(3) 0. 0.
F1 F1- 0.015(2) 0.015(2) 0.012(2) -0.008(2) 0.0054(9) 0.0040(9)
F2 F1- 0.015(1) 0.015(1) 0.009(2) -0.005(1) 0.0017(7) 0.0017(7)
#End of TTdata_95778-ICSD