
#(C) 2018 by FIZ Karlsruhe - Leibniz Institute for Information Infrastructure.  All rights reserved.
data_95787-ICSD
_database_code_ICSD 95787
_audit_creation_date 2004-04-01
_chemical_name_systematic 'Rubidium bis(dideuterioamido)lithiate'
_chemical_formula_structural 'Rb (Li (N D2)2)'
_chemical_formula_sum 'D4 Li1 N2 Rb1'
_chemical_name_structure_type RbLi(NH2)2
_exptl_crystal_density_diffrn 2.44
_cell_measurement_temperature 298.
_publ_section_title

;
Rb Li (N H2)2, a rubidium amido lithiate investigated by X-ray and neutron
diffraction
;
loop_
_citation_id
_citation_journal_full
_citation_year
_citation_journal_volume
_citation_page_first
_citation_page_last
_citation_journal_id_ASTM
primary 'Zeitschrift fuer Anorganische und Allgemeine Chemie (1950) (DE)' 2002
628 1794 1798 ZAACAB
loop_
_publ_author_name
'Jacobs, H.'
'Bohger, P.'
'Kockelmann, W.'
_cell_length_a 7.808(3)
_cell_length_b 3.8552(1)
_cell_length_c 11.6204(4)
_cell_angle_alpha 90
_cell_angle_beta 90
_cell_angle_gamma 90
_cell_volume 349.79
_cell_formula_units_Z 4
_symmetry_space_group_name_H-M 'P n m a'
_symmetry_Int_Tables_number 62
_refine_ls_R_factor_all 0.026
loop_
_symmetry_equiv_pos_site_id
_symmetry_equiv_pos_as_xyz
1 'x+1/2, y, -z+1/2'
2 'x, -y+1/2, z'
3 '-x+1/2, y+1/2, z+1/2'
4 '-x, -y, -z'
5 '-x+1/2, -y, z+1/2'
6 '-x, y+1/2, -z'
7 'x+1/2, -y+1/2, -z+1/2'
8 'x, y, z'
loop_
_atom_type_symbol
_atom_type_oxidation_number
Rb1+ 1
Li1+ 1
N3- -3
D1+ 1
loop_
_atom_site_label
_atom_site_type_symbol
_atom_site_symmetry_multiplicity
_atom_site_Wyckoff_symbol
_atom_site_fract_x
_atom_site_fract_y
_atom_site_fract_z
_atom_site_B_iso_or_equiv
_atom_site_occupancy
_atom_site_attached_hydrogens
Rb1 Rb1+ 4 c 0.1196(8) 0.25 0.7427(6) 2.2(1) 1. 0
Li1 Li1+ 4 c 0.370(3) 0.25 -0.002(2) 2.9(5) 1. 0
N1 N3- 4 c 0.1156(9) 0.25 0.4134(5) 1.8 1. 0
N2 N3- 4 c 0.1678(7) 0.25 0.1117(6) 3. 1. 0
D1 D1+ 4 c 0.132(1) 0.25 0.3251(6) 2.4 1. 0
D2 D1+ 4 c 0.243(2) 0.25 0.4376(7) 2.9 1. 0
D3 D1+ 8 d 0.1020(8) 0.057(1) 0.0777(5) 5.2 1. 0
loop_
_atom_site_aniso_label
_atom_site_aniso_type_symbol
_atom_site_aniso_U_11
_atom_site_aniso_U_22
_atom_site_aniso_U_33
_atom_site_aniso_U_12
_atom_site_aniso_U_13
_atom_site_aniso_U_23
N1 N3- 0.019(3) 0.007(2) 0.041(5) 0. 0.016(5) 0.
N2 N3- 0.039(5) 0.025(3) 0.051(6) 0. 0.015(4) 0.
D1 D1+ 0.044(7) 0.007(4) 0.041(5) 0. 0.005(7) 0.
D2 D1+ 0.040(5) 0.026(4) 0.045(7) 0. -0.009(5) 0.
D3 D1+ 0.076(5) 0.053(4) 0.070(5) -0.019(3) -0.005(4) 0.022(4)
#End of TTdata_95787-ICSD