
#(C) 2018 by FIZ Karlsruhe - Leibniz Institute for Information Infrastructure.  All rights reserved.
data_95786-ICSD
_database_code_ICSD 95786
_audit_creation_date 2004-04-01
_audit_update_record 2011-02-01
_chemical_name_systematic 'Rubidium diamidolithiate'
_chemical_formula_structural 'Rb (Li (N H2)2)'
_chemical_formula_sum 'H4 Li1 N2 Rb1'
_chemical_name_structure_type RbLi(NH2)2
_exptl_crystal_density_diffrn 2.39
_publ_section_title

;
Rb Li (N H2)2, a rubidium amido lithiate investigated by X-ray and neutron
diffraction
;
loop_
_citation_id
_citation_journal_full
_citation_year
_citation_journal_volume
_citation_page_first
_citation_page_last
_citation_journal_id_ASTM
primary 'Zeitschrift fuer Anorganische und Allgemeine Chemie (1950) (DE)' 2002
628 1794 1798 ZAACAB
loop_
_publ_author_name
'Jacobs, H.'
'Bohger, P.'
'Kockelmann, W.'
_cell_length_a 7.772(2)
_cell_length_b 3.843(1)
_cell_length_c 11.583(2)
_cell_angle_alpha 90
_cell_angle_beta 90
_cell_angle_gamma 90
_cell_volume 345.96
_cell_formula_units_Z 4
_symmetry_space_group_name_H-M 'P n m a'
_symmetry_Int_Tables_number 62
_refine_ls_R_factor_all 0.041
loop_
_symmetry_equiv_pos_site_id
_symmetry_equiv_pos_as_xyz
1 'x+1/2, y, -z+1/2'
2 'x, -y+1/2, z'
3 '-x+1/2, y+1/2, z+1/2'
4 '-x, -y, -z'
5 '-x+1/2, -y, z+1/2'
6 '-x, y+1/2, -z'
7 'x+1/2, -y+1/2, -z+1/2'
8 'x, y, z'
loop_
_atom_type_symbol
_atom_type_oxidation_number
Rb1+ 1
Li1+ 1
N3- -3
H1+ 1
loop_
_atom_site_label
_atom_site_type_symbol
_atom_site_symmetry_multiplicity
_atom_site_Wyckoff_symbol
_atom_site_fract_x
_atom_site_fract_y
_atom_site_fract_z
_atom_site_B_iso_or_equiv
_atom_site_occupancy
_atom_site_attached_hydrogens
Rb1 Rb1+ 4 c 0.1223(1) 0.25 0.74404(5) 2.1(2) 1. 0
Li1 Li1+ 4 c 0.381(2) 0.25 0.0029(7) 1.8(2) 1. 0
N1 N3- 4 c 0.116(1) 0.25 0.4130(4) 1.69(9) 1. 0
N2 N3- 4 c 0.1636(9) 0.25 0.1124(5) 2.2(1) 1. 0
H1 H1+ 4 c 0.125(8) 0.25 0.339(5) 2.(1) 1. 0
H2 H1+ 4 c 0.241(8) 0.25 0.430(4) 1.(1) 1. 0
H3 H1+ 8 d 0.108(6) 0.07(2) 0.070(4) 3.(1) 1. 0
loop_
_atom_site_aniso_label
_atom_site_aniso_type_symbol
_atom_site_aniso_U_11
_atom_site_aniso_U_22
_atom_site_aniso_U_33
_atom_site_aniso_U_12
_atom_site_aniso_U_13
_atom_site_aniso_U_23
Rb1 Rb1+ 0.027(1) 0.020(1) 0.033(1) 0. -0.003(1) 0.
N1 N3- 0.028(3) 0.015(3) 0.021(2) 0. -0.003(3) 0.
N2 N3- 0.036(5) 0.025(3) 0.023(2) 0. 0.001(3) 0.
#End of TTdata_95786-ICSD