
#(C) 2018 by FIZ Karlsruhe - Leibniz Institute for Information Infrastructure.  All rights reserved.
data_95793-ICSD
_database_code_ICSD 95793
_audit_creation_date 2004-04-01
_chemical_name_systematic 'Lithium lanthanum ditantalate (2/0.67/1)'
_chemical_formula_structural 'Li2 La0.667 (Ta2 O7)'
_chemical_formula_sum 'La0.667 Li2 O7 Ta2'
_exptl_crystal_density_diffrn 6.87
_publ_section_title

;
Synthesis and crystal structure of two new layered perovskite phases K2 La2/3
Ta2 O7 and Li2 La2/3 Ta2 O7
;
loop_
_citation_id
_citation_journal_full
_citation_year
_citation_journal_volume
_citation_page_first
_citation_page_last
_citation_journal_id_ASTM
primary 'Zeitschrift fuer Anorganische und Allgemeine Chemie (1950) (DE)' 2002
628 2049 2056 ZAACAB
loop_
_publ_author_name
'Crosnier-Lopez, M.P.'
'le Berre, F.'
'Fourquet, J.L.'
_cell_length_a 5.564(3)
_cell_length_b 5.564(3)
_cell_length_c 18.134(5)
_cell_angle_alpha 90
_cell_angle_beta 90
_cell_angle_gamma 90
_cell_volume 561.39
_cell_formula_units_Z 4
_symmetry_space_group_name_H-M 'P 42/m n m'
_symmetry_Int_Tables_number 136
_refine_ls_R_factor_all 0.0365
loop_
_symmetry_equiv_pos_site_id
_symmetry_equiv_pos_as_xyz
1 '-y+1/2, x+1/2, -z+1/2'
2 'y+1/2, -x+1/2, -z+1/2'
3 'y, x, -z'
4 '-y, -x, -z'
5 'y+1/2, -x+1/2, z+1/2'
6 '-y+1/2, x+1/2, z+1/2'
7 '-y, -x, z'
8 'y, x, z'
9 'x+1/2, -y+1/2, -z+1/2'
10 '-x+1/2, y+1/2, -z+1/2'
11 'x, y, -z'
12 '-x, -y, -z'
13 '-x+1/2, y+1/2, z+1/2'
14 'x+1/2, -y+1/2, z+1/2'
15 '-x, -y, z'
16 'x, y, z'
loop_
_atom_type_symbol
_atom_type_oxidation_number
Ta5+ 5
La3+ 3
O2- -2
Li1+ 1
loop_
_atom_site_label
_atom_site_type_symbol
_atom_site_symmetry_multiplicity
_atom_site_Wyckoff_symbol
_atom_site_fract_x
_atom_site_fract_y
_atom_site_fract_z
_atom_site_B_iso_or_equiv
_atom_site_occupancy
_atom_site_attached_hydrogens
Ta1 Ta5+ 8 j 0.7519(1) 0.7519(1) 0.1139(1) 0.0084(5) 1. 0
La1 La3+ 4 g 0.2470(1) 0.2470(1) 0.5 0.0121(6) 0.667 0
O1 O2- 4 e 0.5 0.5 0.1137(7) 0.0129(25) 1. 0
O2 O2- 8 h 0.5 0 0.1036(10) 0.0178(24) 1. 0
O3 O2- 8 j 0.7697(8) 0.7697(8) 0.2171(6) 0.0144(19) 1. 0
O4 O2- 4 e 0 0 0.0928(6) 0.0113(25) 1. 0
O5 O2- 4 f 0.7244(16) 0.7244(16) 0 0.0223(35) 1. 0
Li1 Li1+ 4 e 0.5 0.5 0.2424(12) 0.0132(47) 1. 0
Li2 Li1+ 4 d 0 0.5 0.25 0.0132(47) 1. 0
loop_
_atom_site_aniso_label
_atom_site_aniso_type_symbol
_atom_site_aniso_U_11
_atom_site_aniso_U_22
_atom_site_aniso_U_33
_atom_site_aniso_U_12
_atom_site_aniso_U_13
_atom_site_aniso_U_23
Ta1 Ta5+ 0.0073(5) 0.0073(5) 0.0105(6) -0.0001(1) -0.0004(1) -0.0004(1)
La1 La3+ 0.0116(7) 0.0116(7) 0.0131(9) -0.0057(5) 0. 0.
O1 O2- 0.0122(34) 0.0122(34) 0.0143(57) -0.0050(54) 0. 0.
O2 O2- 0.0169(43) 0.0139(43) 0.0225(38) -0.0002(49) 0. 0.
O3 O2- 0.0188(28) 0.0188(28) 0.0056(38) -0.0177(32) -0.0008(18) -0.0008(38)
O4 O2- 0.0132(34) 0.0132(34) 0.0076(50) -0.0079(44) 0. 0.
O5 O2- 0.0313(48) 0.0313(48) 0.0064(61) -0.0182(62) 0. 0.
#End of TTdata_95793-ICSD