
#(C) 2018 by FIZ Karlsruhe - Leibniz Institute for Information Infrastructure.  All rights reserved.
data_95972-ICSD
_database_code_ICSD 95972
_audit_creation_date 2004-04-01
_chemical_name_systematic 'Dilithium magnesiosilicate - gamma0, Cr(4+)-doped'
_chemical_formula_structural 'Li2 (Mg Si O4)'
_chemical_formula_sum 'Li2 Mg1 O4 Si1'
_chemical_name_structure_type Li2ZnSiO4
_exptl_crystal_density_diffrn 2.57
_publ_section_title
'Structural and spectroscopic characterisation of Cr : Li2 Mg Si O4 (gamma0)'
loop_
_citation_id
_citation_journal_full
_citation_year
_citation_journal_volume
_citation_page_first
_citation_page_last
_citation_journal_id_ASTM
primary 'Journal of Materials Chemistry' 2002 12 1525 1529 JMACEP
loop_
_publ_author_name
'Jousseaume, C.'
'Kahn-Harari, A.'
'Vivien, D.'
'Derouet, J.'
'Ribot, F.'
'Villain, F.'
_cell_length_a 6.300(0)
_cell_length_b 10.692(2)
_cell_length_c 4.995(5)
_cell_angle_alpha 90
_cell_angle_beta 90.47(1)
_cell_angle_gamma 90
_cell_volume 336.45
_cell_formula_units_Z 4
_symmetry_space_group_name_H-M 'P 1 21/n 1'
_symmetry_Int_Tables_number 14
_refine_ls_R_factor_all 0.03
loop_
_symmetry_equiv_pos_site_id
_symmetry_equiv_pos_as_xyz
1 '-x+1/2, y+1/2, -z+1/2'
2 '-x, -y, -z'
3 'x+1/2, -y+1/2, z+1/2'
4 'x, y, z'
loop_
_atom_type_symbol
_atom_type_oxidation_number
Li1+ 1
Mg2+ 2
Si4+ 4
O2- -2
loop_
_atom_site_label
_atom_site_type_symbol
_atom_site_symmetry_multiplicity
_atom_site_Wyckoff_symbol
_atom_site_fract_x
_atom_site_fract_y
_atom_site_fract_z
_atom_site_B_iso_or_equiv
_atom_site_occupancy
_atom_site_attached_hydrogens
Li1 Li1+ 4 e -0.0050(21) 0.1595(10) 0.3072(21) 0.20(17) 1. 0
Li2 Li1+ 4 e 0.2370(19) 0.0740(9) 0.7155(21) 0.31(18) 1. 0
Mg1 Mg2+ 4 e 0.4967(7) 0.1645(4) 0.3075(8) 0.52(8) 1. 0
Si1 Si4+ 4 e 0.2483(9) 0.4131(4) 0.3134(10) 0.46(9) 1. 0
O1 O2- 4 e 0.2459(6) 0.4087(3) 0.6429(6) 0.45(8) 1. 0
O2 O2- 4 e 0.2515(6) 0.5578(3) 0.2113(6) 0.54(7) 1. 0
O3 O2- 4 e 0.0334(5) 0.3411(3) 0.2034(7) 0.33(7) 1. 0
O4 O2- 4 e 0.4599(5) 0.3397(3) 0.2077(7) 0.45(7) 1. 0
#End of TTdata_95972-ICSD