
#(C) 2018 by FIZ Karlsruhe - Leibniz Institute for Information Infrastructure.  All rights reserved.
data_95974-ICSD
_database_code_ICSD 95974
_audit_creation_date 2004-04-01
_audit_update_record 2016-02-01
_chemical_name_systematic 'Lithium iron phosphate(V) (4.8/2/3) - R'
_chemical_formula_structural 'Li4.8 Fe2 (P O4)3'
_chemical_formula_sum 'Fe2 Li4.8 O12 P3'
_exptl_crystal_density_diffrn 3.19
_cell_measurement_temperature 60.
_publ_section_title

;
A neutron powder diffraction study of electrochemically lithiated R- (Li3+x
Fe2 (P O4)3) for x = 1.8
;
loop_
_citation_id
_citation_journal_full
_citation_year
_citation_journal_volume
_citation_page_first
_citation_page_last
_citation_journal_id_ASTM
primary 'Journal of Materials Chemistry' 2002 12 2343 2347 JMACEP
loop_
_publ_author_name
'Eyob, P.'
'Andersson, A.S.'
'Thomas, J.O.'
_cell_length_a 8.288(2)
_cell_length_b 8.288(2)
_cell_length_c 22.542(6)
_cell_angle_alpha 90
_cell_angle_beta 90
_cell_angle_gamma 120
_cell_volume 1340.98
_cell_formula_units_Z 6
_symmetry_space_group_name_H-M 'R -3 H'
_symmetry_Int_Tables_number 148
_refine_ls_R_factor_all 0.0159
loop_
_symmetry_equiv_pos_site_id
_symmetry_equiv_pos_as_xyz
1 'x-y, x, -z'
2 'y, -x+y, -z'
3 '-x, -y, -z'
4 '-x+y, -x, z'
5 '-y, x-y, z'
6 'x, y, z'
7 'x-y+2/3, x+1/3, -z+1/3'
8 'y+2/3, -x+y+1/3, -z+1/3'
9 '-x+2/3, -y+1/3, -z+1/3'
10 '-x+y+2/3, -x+1/3, z+1/3'
11 '-y+2/3, x-y+1/3, z+1/3'
12 'x+2/3, y+1/3, z+1/3'
13 'x-y+1/3, x+2/3, -z+2/3'
14 'y+1/3, -x+y+2/3, -z+2/3'
15 '-x+1/3, -y+2/3, -z+2/3'
16 '-x+y+1/3, -x+2/3, z+2/3'
17 '-y+1/3, x-y+2/3, z+2/3'
18 'x+1/3, y+2/3, z+2/3'
loop_
_atom_type_symbol
_atom_type_oxidation_number
Fe2+ 2.1
P5+ 5
O2- -2
Li1+ 1
loop_
_atom_site_label
_atom_site_type_symbol
_atom_site_symmetry_multiplicity
_atom_site_Wyckoff_symbol
_atom_site_fract_x
_atom_site_fract_y
_atom_site_fract_z
_atom_site_B_iso_or_equiv
_atom_site_occupancy
_atom_site_attached_hydrogens
Fe1 Fe2+ 6 c 0 0 0.147(8) 2.1(4) 1. 0
Fe2 Fe2+ 6 c 0 0 0.647(9) 2.21(4) 1. 0
P1 P5+ 18 f 0.298(3) 0.008(4) 0.254(1) . 1. 0
O1 O2- 18 f 0.208(3) 0.011(3) 0.197(8) . 1. 0
O2 O2- 18 f 0.767(3) 0.901(2) 0.699(7) . 1. 0
O3 O2- 18 f 0.250(2) 0.821(3) 0.263(7) . 1. 0
O4 O2- 18 f 0.491(2) 0.881(2) 0.753(6) 1.348(2) 1. 0
Li1 Li1+ 18 f 0.243(9) 0.458(9) 0.096(3) 1.03(5) 0.74(4) 0
Li2 Li1+ 18 f 0.377(6) 0.136(5) 0.079(2) 1.03(5) 0.86(4) 0
loop_
_atom_site_aniso_label
_atom_site_aniso_type_symbol
_atom_site_aniso_U_11
_atom_site_aniso_U_22
_atom_site_aniso_U_33
_atom_site_aniso_U_12
_atom_site_aniso_U_13
_atom_site_aniso_U_23
P1 P5+ 0.0132(58) 0.0245(76) 0.0035(8) 0.0114(49) -.0042(22) -.0009(17)
O1 O2- 0.0198(80) 0.070(13) 0.0012(5) -0.029(10) 0.0061(16) -.0053(23)
O2 O2- 0.042(10) 0.0305(84) 0.0029(8) -.0095(69) 0.0098(23) -.0097(22)
O3 O2- 0.0368(86) 0.0377(93) 0.0033(7) 0.0340(72) 0.0041(22) 0.00006(21)
#End of TTdata_95974-ICSD