
#(C) 2018 by FIZ Karlsruhe - Leibniz Institute for Information Infrastructure.  All rights reserved.
data_96224-ICSD
_database_code_ICSD 96224
_audit_creation_date 2004-04-01
_chemical_name_systematic 'Lithium strontium dinitridogallate'
_chemical_formula_structural 'Li Sr (Ga N2)'
_chemical_formula_sum 'Ga1 Li1 N2 Sr1'
_exptl_crystal_density_diffrn 4.91
_cell_measurement_temperature 173.
_publ_section_title

;
Synthesis and structure of Li Sr Ga N2: a new quaternary nitride with
interpenetrating two-dimensional networks
;
loop_
_citation_id
_citation_journal_full
_citation_year
_citation_journal_volume
_citation_page_first
_citation_page_last
_citation_journal_id_ASTM
primary 'Journal of Alloys and Compounds' 2003 353 107 113 JALCEU
loop_
_publ_author_name
'Park, D.G.'
'Gal, Z.A.'
'DiSalvo, F.J.'
_cell_length_a 6.0767(6)
_cell_length_b 10.1546(9)
_cell_length_c 12.6412(12)
_cell_angle_alpha 90
_cell_angle_beta 91.366(2)
_cell_angle_gamma 90
_cell_volume 779.82
_cell_formula_units_Z 12
_symmetry_space_group_name_H-M 'C 1 2/m 1'
_symmetry_Int_Tables_number 12
_refine_ls_R_factor_all 0.0381
loop_
_symmetry_equiv_pos_site_id
_symmetry_equiv_pos_as_xyz
1 '-x, y, -z'
2 '-x, -y, -z'
3 'x, -y, z'
4 'x, y, z'
5 '-x+1/2, y+1/2, -z'
6 '-x+1/2, -y+1/2, -z'
7 'x+1/2, -y+1/2, z'
8 'x+1/2, y+1/2, z'
loop_
_atom_type_symbol
_atom_type_oxidation_number
Sr2+ 2
Ga3+ 3
N3- -3
Li1+ 1
loop_
_atom_site_label
_atom_site_type_symbol
_atom_site_symmetry_multiplicity
_atom_site_Wyckoff_symbol
_atom_site_fract_x
_atom_site_fract_y
_atom_site_fract_z
_atom_site_B_iso_or_equiv
_atom_site_occupancy
_atom_site_attached_hydrogens
Sr1 Sr2+ 4 i 0.0526(1) 0 0.2566(1) 0.007(1) 1. 0
Sr2 Sr2+ 4 h 0 0.1808(1) 0.5 0.006(1) 1. 0
Sr3 Sr2+ 4 g 0 0.1659(1) 0 0.005(1) 1. 0
Ga1 Ga3+ 8 j 0.1501(1) 0.3378(1) 0.1876(1) 0.005(1) 1. 0
Ga2 Ga3+ 4 i 0.3917(1) 0 0.5886(1) 0.004(1) 1. 0
N1 N3- 8 j 0.2043(8) 0.3408(4) 0.3432(4) 0.008(1) 1. 0
N2 N3- 8 j 0.3257(7) 0.1787(4) 0.1488(4) 0.006(1) 1. 0
N3 N3- 4 i 0.2817(10) 0 0.4339(5) 0.009(1) 1. 0
N4 N3- 4 i 0.7473(11) 0 0.1092(5) 0.007(1) 1. 0
Li1 Li1+ 8 j 0.3699(17) 0.1835(9) 0.3176(8) 0.008(2) 1. 0
Li2 Li1+ 4 i 0.4070(20) 0 0.0815(12) 0.013(3) 1. 0
loop_
_atom_site_aniso_label
_atom_site_aniso_type_symbol
_atom_site_aniso_U_11
_atom_site_aniso_U_22
_atom_site_aniso_U_33
_atom_site_aniso_U_12
_atom_site_aniso_U_13
_atom_site_aniso_U_23
Sr1 Sr2+ 0.006(1) 0.009(1) 0.006(1) 0. -0.001(1) 0.
Sr2 Sr2+ 0.006(1) 0.006(1) 0.006(1) 0. 0.000(1) 0.
Sr3 Sr2+ 0.006(1) 0.005(1) 0.005(1) 0. 0.000(1) 0.
Ga1 Ga3+ 0.005(1) 0.004(1) 0.005(1) 0.000(1) 0.000(1) 0.000(1)
Ga2 Ga3+ 0.005(1) 0.004(1) 0.004(1) 0. 0.001(1) 0.
N1 N3- 0.006(2) 0.009(2) 0.009(2) 0.001(2) -0.002(2) -0.001(2)
N2 N3- 0.005(2) 0.006(2) 0.007(2) 0.001(2) 0.001(2) -0.001(2)
N3 N3- 0.003(3) 0.013(3) 0.010(3) 0. -0.001(2) 0.
N4 N3- 0.007(3) 0.004(3) 0.010(3) 0. 0.000(2) 0.
Li1 Li1+ 0.008(4) 0.009(4) 0.008(4) -0.001(3) -0.002(3) 0.002(3)
Li2 Li1+ 0.012(7) 0.013(7) 0.016(7) 0. 0.006(5) 0.
#End of TTdata_96224-ICSD