
#(C) 2018 by FIZ Karlsruhe - Leibniz Institute for Information Infrastructure.  All rights reserved.
data_96422-ICSD
_database_code_ICSD 96422
_audit_creation_date 2004-04-01
_chemical_name_systematic 'Tetralithium tristrontium digermanium nitride'
_chemical_formula_structural 'Li4 Sr3 Ge2 N6'
_chemical_formula_sum 'Ge2 Li4 N6 Sr3'
_exptl_crystal_density_diffrn 4.45
_cell_measurement_temperature 173.
_publ_section_title

;
Synthesis and structure of Li4 Sr3 Ge2 N6 : a new quaternary nitride
containing (Ge2 N6)(10-) anions
;
loop_
_citation_id
_citation_journal_full
_citation_year
_citation_journal_volume
_citation_page_first
_citation_page_last
_citation_journal_id_ASTM
primary 'Journal of Solid State Chemistry' 2003 172 166 170 JSSCBI
loop_
_publ_author_name
'Park, D.G.'
'Gal, Z.A.'
'DiSalvo, F.J.'
_cell_length_a 6.1398(7)
_cell_length_b 10.0208(2)
_cell_length_c 6.3130(7)
_cell_angle_alpha 90
_cell_angle_beta 91.279(2)
_cell_angle_gamma 90
_cell_volume 388.32
_cell_formula_units_Z 2
_symmetry_space_group_name_H-M 'C 1 2/m 1'
_symmetry_Int_Tables_number 12
_refine_ls_R_factor_all 0.0317
loop_
_symmetry_equiv_pos_site_id
_symmetry_equiv_pos_as_xyz
1 '-x, y, -z'
2 '-x, -y, -z'
3 'x, -y, z'
4 'x, y, z'
5 '-x+1/2, y+1/2, -z'
6 '-x+1/2, -y+1/2, -z'
7 'x+1/2, -y+1/2, z'
8 'x+1/2, y+1/2, z'
loop_
_atom_type_symbol
_atom_type_oxidation_number
Sr2+ 2
Ge4+ 4
N3- -3
Li1+ 1
loop_
_atom_site_label
_atom_site_type_symbol
_atom_site_symmetry_multiplicity
_atom_site_Wyckoff_symbol
_atom_site_fract_x
_atom_site_fract_y
_atom_site_fract_z
_atom_site_B_iso_or_equiv
_atom_site_occupancy
_atom_site_attached_hydrogens
Sr1 Sr2+ 4 h 0 0.1898(1) 0.5 0.005(1) 1. 0
Sr2 Sr2+ 2 a 0 0 0 0.007(1) 1. 0
Ge1 Ge4+ 4 i 0.6122(1) 0 0.3213(1) 0.003(1) 1. 0
N1 N3- 8 j 0.2054(5) 0.3445(4) 0.1993(5) 0.005(1) 1. 0
N2 N3- 4 i 0.3009(7) 0 0.3697(7) 0.006(1) 1. 0
Li1 Li1+ 8 j 0.3625(11) 0.1795(8) 0.1147(12) 0.009(1) 1. 0
loop_
_atom_site_aniso_label
_atom_site_aniso_type_symbol
_atom_site_aniso_U_11
_atom_site_aniso_U_22
_atom_site_aniso_U_33
_atom_site_aniso_U_12
_atom_site_aniso_U_13
_atom_site_aniso_U_23
Sr1 Sr2+ 0.005(1) 0.005(1) 0.004(1) 0. -0.001(1) 0.
Sr2 Sr2+ 0.007(1) 0.006(1) 0.007(1) 0. 0.004(1) 0.
Ge1 Ge4+ 0.003(1) 0.002(1) 0.003(1) 0. 0.001(1) 0.
N1 N3- 0.004(1) 0.005(2) 0.007(1) 0.002(1) 0.000(1) -0.001(1)
N2 N3- 0.007(2) 0.005(2) 0.005(2) 0. 0.002(2) 0.
#End of TTdata_96422-ICSD