
#(C) 2018 by FIZ Karlsruhe - Leibniz Institute for Information Infrastructure.  All rights reserved.
data_96939-ICSD
_database_code_ICSD 96939
_audit_creation_date 2004-10-01
_chemical_name_systematic 'Heptalithium tetranitridovanadate - gamma'
_chemical_formula_structural 'Li7 (V N4)'
_chemical_formula_sum 'Li7 N4 V1'
_chemical_name_structure_type Li7PN4
_exptl_crystal_density_diffrn 2.33
_publ_section_title 'Polymorphism of heptalithium nitridovanadate(V) Li7 (V N4)'
loop_
_citation_id
_citation_journal_full
_citation_year
_citation_journal_volume
_citation_page_first
_citation_page_last
_citation_journal_id_ASTM
primary 'Inorganic Chemistry' 2003 42 2538 2544 INOCAJ
loop_
_publ_author_name
'Niewa, R.'
'Zherebtsov, D.'
'Hu, Z.'
_cell_length_a 9.6064(1)
_cell_length_b 9.6064(1)
_cell_length_c 9.6064(1)
_cell_angle_alpha 90
_cell_angle_beta 90
_cell_angle_gamma 90
_cell_volume 886.51
_cell_formula_units_Z 8
_symmetry_space_group_name_H-M 'P -4 3 n'
_symmetry_Int_Tables_number 218
_refine_ls_R_factor_all 0.023
loop_
_symmetry_equiv_pos_site_id
_symmetry_equiv_pos_as_xyz
1 '-z+1/2, y+1/2, -x+1/2'
2 '-y+1/2, x+1/2, -z+1/2'
3 '-x+1/2, z+1/2, -y+1/2'
4 'z+1/2, -y+1/2, -x+1/2'
5 'y+1/2, -x+1/2, -z+1/2'
6 'x+1/2, -z+1/2, -y+1/2'
7 '-z+1/2, -y+1/2, x+1/2'
8 '-y+1/2, -x+1/2, z+1/2'
9 '-x+1/2, -z+1/2, y+1/2'
10 'z+1/2, y+1/2, x+1/2'
11 'y+1/2, x+1/2, z+1/2'
12 'x+1/2, z+1/2, y+1/2'
13 '-z, -x, y'
14 '-y, -z, x'
15 '-x, -y, z'
16 'z, -x, -y'
17 'y, -z, -x'
18 'x, -y, -z'
19 '-z, x, -y'
20 '-y, z, -x'
21 '-x, y, -z'
22 'z, x, y'
23 'y, z, x'
24 'x, y, z'
loop_
_atom_type_symbol
_atom_type_oxidation_number
V5+ 5
N3- -3
Li1+ 1
loop_
_atom_site_label
_atom_site_type_symbol
_atom_site_symmetry_multiplicity
_atom_site_Wyckoff_symbol
_atom_site_fract_x
_atom_site_fract_y
_atom_site_fract_z
_atom_site_B_iso_or_equiv
_atom_site_occupancy
_atom_site_attached_hydrogens
V1 V5+ 2 a 0 0 0 3.06(6) 1. 0
V2 V5+ 6 c 0.25 0.5 0 3.51(4) 1. 0
N1 N3- 8 e 0.3907(4) 0.3907(4) 0.3907(4) 1.28(5) 1. 0
N2 N3- 24 i 0.1150(3) 0.1384(2) 0.3959(5) 1.28(5) 1. 0
Li1 Li1+ 12 f 0.257(6) 0.5 0.5 3.7(1) 1. 0
Li2 Li1+ 6 d 0.25 0 0.5 3.7(1) 1. 0
Li3 Li1+ 6 b 0 0 0.5 3.7(1) 1. 0
Li4 Li1+ 8 e 0.255(2) 0.255(2) 0.255(2) 3.7(1) 1. 0
Li5 Li1+ 24 i 0.028(2) 0.244(3) 0.243(3) 3.7(1) 1. 0
#End of TTdata_96939-ICSD