
#(C) 2018 by FIZ Karlsruhe - Leibniz Institute for Information Infrastructure.  All rights reserved.
data_96940-ICSD
_database_code_ICSD 96940
_audit_creation_date 2004-10-01
_chemical_name_systematic 'Heptalithium tetranitridovanadate - beta'
_chemical_formula_structural 'Li7 (V N4)'
_chemical_formula_sum 'Li7 N4 V1'
_chemical_name_structure_type Li7TaN4
_exptl_crystal_density_diffrn 2.35
_publ_section_title 'Polymorphism of heptalithium nitridovanadate(V) Li7 (V N4)'
loop_
_citation_id
_citation_journal_full
_citation_year
_citation_journal_volume
_citation_page_first
_citation_page_last
_citation_journal_id_ASTM
primary 'Inorganic Chemistry' 2003 42 2538 2544 INOCAJ
loop_
_publ_author_name
'Niewa, R.'
'Zherebtsov, D.'
'Hu, Z.'
_cell_length_a 9.5859(1)
_cell_length_b 9.5859(1)
_cell_length_c 9.5859(1)
_cell_angle_alpha 90
_cell_angle_beta 90
_cell_angle_gamma 90
_cell_volume 880.84
_cell_formula_units_Z 8
_symmetry_space_group_name_H-M 'P a -3'
_symmetry_Int_Tables_number 205
_refine_ls_R_factor_all 0.03
loop_
_symmetry_equiv_pos_site_id
_symmetry_equiv_pos_as_xyz
1 '-z+1/2, x+1/2, y'
2 'z+1/2, x, -y+1/2'
3 'z, -x+1/2, y+1/2'
4 '-z, -x, -y'
5 'y, -z+1/2, x+1/2'
6 '-y+1/2, z+1/2, x'
7 'y+1/2, z, -x+1/2'
8 '-y, -z, -x'
9 'x+1/2, y, -z+1/2'
10 'x, -y+1/2, z+1/2'
11 '-x+1/2, y+1/2, z'
12 '-x, -y, -z'
13 'z+1/2, -x+1/2, -y'
14 '-z+1/2, -x, y+1/2'
15 '-z, x+1/2, -y+1/2'
16 'z, x, y'
17 '-y, z+1/2, -x+1/2'
18 'y+1/2, -z+1/2, -x'
19 '-y+1/2, -z, x+1/2'
20 'y, z, x'
21 '-x+1/2, -y, z+1/2'
22 '-x, y+1/2, -z+1/2'
23 'x+1/2, -y+1/2, -z'
24 'x, y, z'
loop_
_atom_type_symbol
_atom_type_oxidation_number
V5+ 5
N3- -3
Li1+ 1
loop_
_atom_site_label
_atom_site_type_symbol
_atom_site_symmetry_multiplicity
_atom_site_Wyckoff_symbol
_atom_site_fract_x
_atom_site_fract_y
_atom_site_fract_z
_atom_site_B_iso_or_equiv
_atom_site_occupancy
_atom_site_attached_hydrogens
V1 V5+ 8 c 0.3703(2) 0.3703(2) 0.3703(2) 2.53(3) 1. 0
N1 N3- 8 c 0.2610(6) 0.2610(6) 0.2610(6) 1.30(4) 1. 0
N2 N3- 24 d 0.4858(5) 0.2575(3) 0.4786(2) 1.30(4) 1. 0
Li1 Li1+ 8 c 0.125(2) 0.125(2) 0.125(2) 1.76(9) 1. 0
Li2 Li1+ 24 d 0.132(1) 0.383(1) 0.136(2) 1.76(9) 1. 0
Li3 Li1+ 24 d 0.357(1) 0.379(1) 0.1141(9) 1.76(9) 1. 0
#End of TTdata_96940-ICSD