
#(C) 2018 by FIZ Karlsruhe - Leibniz Institute for Information Infrastructure.  All rights reserved.
data_96941-ICSD
_database_code_ICSD 96941
_audit_creation_date 2004-10-01
_audit_update_record 2012-02-01
_chemical_name_systematic 'Heptalithium tetranitridovanadate - alpha'
_chemical_formula_structural 'Li7 (V N4)'
_chemical_formula_sum 'Li7 N4 V1'
_exptl_crystal_density_diffrn 2.32
_publ_section_title 'Polymorphism of heptalithium nitridovanadate(V) Li7 (V N4)'
loop_
_citation_id
_citation_journal_full
_citation_year
_citation_journal_volume
_citation_page_first
_citation_page_last
_citation_journal_id_ASTM
primary 'Inorganic Chemistry' 2003 42 2538 2544 INOCAJ
loop_
_publ_author_name
'Niewa, R.'
'Zherebtsov, D.'
'Hu, Z.'
_cell_length_a 6.7575(1)
_cell_length_b 6.7575(1)
_cell_length_c 4.8818(1)
_cell_angle_alpha 90
_cell_angle_beta 90
_cell_angle_gamma 90
_cell_volume 222.92
_cell_formula_units_Z 2
_symmetry_space_group_name_H-M 'P 42/n m c Z'
_symmetry_Int_Tables_number 137
_refine_ls_R_factor_all 0.034
loop_
_symmetry_equiv_pos_site_id
_symmetry_equiv_pos_as_xyz
1 'y+1/2, x+1/2, -z+1/2'
2 '-y, x+1/2, -z+1/2'
3 'y+1/2, -x, -z+1/2'
4 '-y, -x, -z+1/2'
5 'x+1/2, y+1/2, -z'
6 '-x, y+1/2, -z'
7 'x+1/2, -y, -z'
8 '-x, -y, -z'
9 '-y+1/2, -x+1/2, z+1/2'
10 'y, -x+1/2, z+1/2'
11 '-y+1/2, x, z+1/2'
12 'y, x, z+1/2'
13 '-x+1/2, -y+1/2, z'
14 'x, -y+1/2, z'
15 '-x+1/2, y, z'
16 'x, y, z'
loop_
_atom_type_symbol
_atom_type_oxidation_number
V5+ 5
N3- -3
Li1+ 1
loop_
_atom_site_label
_atom_site_type_symbol
_atom_site_symmetry_multiplicity
_atom_site_Wyckoff_symbol
_atom_site_fract_x
_atom_site_fract_y
_atom_site_fract_z
_atom_site_B_iso_or_equiv
_atom_site_occupancy
_atom_site_attached_hydrogens
V1 V5+ 2 a 0.75 0.25 0.75 0.89(5) 1. 0
N1 N3- 8 g 0.75 0.4761(2) 0.5383(3) 0.54(3) 1. 0
Li1 Li1+ 8 f 0.9867(6) 0.0133(6) 0.25 0.5(1) 1. 0
Li2 Li1+ 4 d 0.75 0.75 0.838(2) 1.6(2) 1. 0
Li3 Li1+ 2 b 0.25 0.750(1) 0.75 1.3(1) 1. 0
#End of TTdata_96941-ICSD