
#(C) 2018 by FIZ Karlsruhe - Leibniz Institute for Information Infrastructure.  All rights reserved.
data_96966-ICSD
_database_code_ICSD 96966
_audit_creation_date 2004-10-01
_chemical_name_systematic 'Lithium vanadium phosphate(V) (0.89/2/3) - R'
_chemical_formula_structural 'Li0.89 V2 (P O4)3'
_chemical_formula_sum 'Li0.89 O12 P3 V2'
_exptl_crystal_density_diffrn 3.21
_cell_measurement_temperature 300.
_publ_section_title

;
Electrochemical property: structure relationships in monoclinic Li3-y V2 (P
O4)3
;
loop_
_citation_id
_citation_journal_full
_citation_year
_citation_journal_volume
_citation_page_first
_citation_page_last
_citation_journal_id_ASTM
primary 'Journal of the American Chemical Society' 2003 125 10402 10411 JACSAT
loop_
_publ_author_name
'Yin, S.-C.'
'Grondey, H.'
'Strobel, P.'
'Anne, M.'
'Nazar, L.F.'
_cell_length_a 8.3090(4)
_cell_length_b 8.5854(4)
_cell_length_c 11.3875(5)
_cell_angle_alpha 90
_cell_angle_beta 89.312(3)
_cell_angle_gamma 90
_cell_volume 812.28
_cell_formula_units_Z 4
_symmetry_space_group_name_H-M 'P 1 21/n 1'
_symmetry_Int_Tables_number 14
_refine_ls_R_factor_all 0.0374
loop_
_symmetry_equiv_pos_site_id
_symmetry_equiv_pos_as_xyz
1 '-x+1/2, y+1/2, -z+1/2'
2 '-x, -y, -z'
3 'x+1/2, -y+1/2, z+1/2'
4 'x, y, z'
loop_
_atom_type_symbol
_atom_type_oxidation_number
V4+ 4.055
P5+ 5
O2- -2
Li1+ 1
loop_
_atom_site_label
_atom_site_type_symbol
_atom_site_symmetry_multiplicity
_atom_site_Wyckoff_symbol
_atom_site_fract_x
_atom_site_fract_y
_atom_site_fract_z
_atom_site_B_iso_or_equiv
_atom_site_occupancy
_atom_site_attached_hydrogens
V1 V4+ 4 e 0.25288 0.46304 0.12257 0.0067 1. 0
V2 V4+ 4 e 0.75396 0.46663 0.38353 0.0067 1. 0
P1 P5+ 4 e 0.1086(11) 0.1186(9) 0.1486(8) 0.0145(20) 1. 0
P2 P5+ 4 e 0.6094(9) 0.1030(10) 0.3519(7) 0.0124(19) 1. 0
P3 P5+ 4 e 0.0380(10) 0.2531(11) 0.5078(8) 0.0119(17) 1. 0
O1 O2- 4 e 0.9353(10) 0.0864(9) 0.1771(7) 0.0159(17) 1. 0
O2 O2- 4 e 0.2194(10) 0.0250(9) 0.2211(8) 0.0191(18) 1. 0
O3 O2- 4 e 0.1405(9) 0.0841(8) 0.0148(6) 0.0124(17) 1. 0
O4 O2- 4 e 0.1338(8) 0.2930(9) 0.1632(7) 0.0116(16) 1. 0
O5 O2- 4 e 0.4326(9) 0.0968(9) 0.3972(7) 0.0125(17) 1. 0
O6 O2- 4 e 0.6450(9) 0.9905(8) 0.2569(7) 0.0114(16) 1. 0
O7 O2- 4 e 0.7325(9) 0.0902(9) 0.4531(7) 0.0192(17) 1. 0
O8 O2- 4 e 0.6378(8) 0.2725(9) 0.3082(7) 0.0118(15) 1. 0
O9 O2- 4 e 0.9460(10) 0.1738(9) 0.6126(7) 0.0239(21) 1. 0
O10 O2- 4 e 0.9290(10) 0.3530(9) 0.4411(7) 0.0131(17) 1. 0
O11 O2- 4 e 0.1082(8) 0.1241(8) 0.4242(6) 0.0124(17) 1. 0
O12 O2- 4 e 0.1845(9) 0.3409(8) 0.5588(7) 0.0139(16) 1. 0
Li1 Li1+ 4 e 0.2408(36) 0.7813(30) 0.1793(29) 0.02 0.33 0
Li2 Li1+ 4 e 0.8259(16) 0.2776(24) 0.1840(22) 0.02 0.56 0
#End of TTdata_96966-ICSD