
#(C) 2018 by FIZ Karlsruhe - Leibniz Institute for Information Infrastructure.  All rights reserved.
data_97290-ICSD
_database_code_ICSD 97290
_audit_creation_date 2004-10-01
_chemical_name_systematic 'Lithium aluminium catena-disilicate'
_chemical_formula_structural 'Li Al (Si2 O6)'
_chemical_formula_sum 'Al1 Li1 O6 Si2'
_chemical_name_structure_type Pyroxene-CaMg(SiO3)2
_chemical_name_mineral Spodumene
_exptl_crystal_density_diffrn 3.18
_cell_measurement_temperature 54.
_publ_section_title
'A single-crystal neutron diffraction investigation of spodumene at 54 K'
loop_
_citation_id
_citation_journal_full
_citation_year
_citation_journal_volume
_citation_page_first
_citation_page_last
_citation_journal_id_ASTM
primary 'Canadian Mineralogist' 2003 41 521 527 CAMIA6
loop_
_publ_author_name
'Tribaudino, M.'
'Nestola, F.'
'Prencipe, M.'
'Rundlof, H.'
_cell_length_a 9.504(1)
_cell_length_b 8.371(2)
_cell_length_c 5.204(1)
_cell_angle_alpha 90
_cell_angle_beta 110.33(1)
_cell_angle_gamma 90
_cell_volume 388.23
_cell_formula_units_Z 4
_symmetry_space_group_name_H-M 'C 1 2/c 1'
_symmetry_Int_Tables_number 15
_refine_ls_R_factor_all 0.023
loop_
_symmetry_equiv_pos_site_id
_symmetry_equiv_pos_as_xyz
1 'x, -y, z+1/2'
2 '-x, -y, -z'
3 '-x, y, -z+1/2'
4 'x, y, z'
5 'x+1/2, -y+1/2, z+1/2'
6 '-x+1/2, -y+1/2, -z'
7 '-x+1/2, y+1/2, -z+1/2'
8 'x+1/2, y+1/2, z'
loop_
_atom_type_symbol
_atom_type_oxidation_number
Li1+ 1
Al3+ 3
Si4+ 4
O2- -2
loop_
_atom_site_label
_atom_site_type_symbol
_atom_site_symmetry_multiplicity
_atom_site_Wyckoff_symbol
_atom_site_fract_x
_atom_site_fract_y
_atom_site_fract_z
_atom_site_B_iso_or_equiv
_atom_site_occupancy
_atom_site_attached_hydrogens
Li1 Li1+ 4 e 0 0.2735(5) 0.25 0.0107(8) 1. 0
Al1 Al3+ 4 e 0 0.9070(2) 0.25 0.0031(5) 1. 0
Si1 Si4+ 8 f 0.2939(1) 0.0937(1) 0.2573(2) 0.0027(4) 1. 0
O1 O2- 8 f 0.1097(1) 0.08265(9) 0.1413(2) 0.0036(4) 1. 0
O2 O2- 8 f 0.36461(9) 0.2674(1) 0.3001(2) 0.0043(4) 1. 0
O3 O2- 8 f 0.35656(9) -0.0146(1) 0.0609(2) 0.0044(4) 1. 0
loop_
_atom_site_aniso_label
_atom_site_aniso_type_symbol
_atom_site_aniso_U_11
_atom_site_aniso_U_22
_atom_site_aniso_U_33
_atom_site_aniso_U_12
_atom_site_aniso_U_13
_atom_site_aniso_U_23
Li1 Li1+ 0.012(2) 0.010(2) 0.010(2) 0. 0.005(1) 0.
Al1 Al3+ 0.0021(9) 0.0040(9) 0.0031(9) 0. 0.0009(7) 0.
Si1 Si4+ 0.0004(6) 0.0042(6) 0.0037(6) 0.0001(4) 0.0011(5) -.0001(4)
O1 O2- 0.0009(5) 0.0058(6) 0.0043(5) 0.0003(3) 0.0012(4) 0.0003(2)
O2 O2- 0.0024(5) 0.0054(6) 0.0059(6) -.0006(3) 0.0023(4) -.0001
O3 O2- 0.0017(5) 0.0073(6) 0.0042(6) 0.0001(3) 0.0012(4) -.0015(3)
#End of TTdata_97290-ICSD