
#(C) 2018 by FIZ Karlsruhe - Leibniz Institute for Information Infrastructure.  All rights reserved.
data_97577-ICSD
_database_code_ICSD 97577
_audit_creation_date 2004-10-01
_audit_update_record 2012-02-01
_chemical_name_systematic 'Lithium aluminium silicon nitride oxide (1/3/9/14/2)'
_chemical_formula_structural 'Li (Al3 Si9 N14 O2)'
_chemical_formula_sum 'Al3 Li1 N14 O2 Si9'
_chemical_name_structure_type Ndx(Si,Al)12(N,O)16
_exptl_crystal_density_diffrn 3.13
_publ_section_title

;
Structures of filled alpha-(Si3N4)-type Ca0.27 La0.03 Si11.38 Al0.62 N16 and
Li Si9 Al3 O2 N14
;
loop_
_citation_id
_citation_journal_full
_citation_year
_citation_journal_volume
_citation_page_first
_citation_page_last
_citation_journal_id_ASTM
primary 'Journal of the American Ceramic Society' 2003 86 727 730 JACTAW
loop_
_publ_author_name
'Grins, J.'
'Esmaeilzadeh, S.'
'Shen Zhijian'
_cell_length_a 7.8277(2)
_cell_length_b 7.8277(2)
_cell_length_c 5.6909(2)
_cell_angle_alpha 90.
_cell_angle_beta 90.
_cell_angle_gamma 120.
_cell_volume 301.98
_cell_formula_units_Z 1
_symmetry_space_group_name_H-M 'P 3 1 c'
_symmetry_Int_Tables_number 159
loop_
_symmetry_equiv_pos_site_id
_symmetry_equiv_pos_as_xyz
1 '-x, -x+y, z+1/2'
2 'x-y, -y, z+1/2'
3 'y, x, z+1/2'
4 '-x+y, -x, z'
5 '-y, x-y, z'
6 'x, y, z'
loop_
_atom_type_symbol
_atom_type_oxidation_number
Si4+ 4
Al3+ 3
Si4+ 4
Al3+ 3
N3- -3
O2- -2
N3- -3
O2- -2
N3- -3
O2- -2
N3- -3
O2- -2
Li1+ 1
loop_
_atom_site_label
_atom_site_type_symbol
_atom_site_symmetry_multiplicity
_atom_site_Wyckoff_symbol
_atom_site_fract_x
_atom_site_fract_y
_atom_site_fract_z
_atom_site_B_iso_or_equiv
_atom_site_occupancy
_atom_site_attached_hydrogens
Si1 Si4+ 6 c 0.5100(2) 0.4286(2) 0.6614(3) 0.0057 0.75 0
Al1 Al3+ 6 c 0.5100(2) 0.4286(2) 0.6614(3) 0.0057 0.25 0
Si2 Si4+ 6 c 0.1684(1) 0.9162(1) 0.4509 0.0048 0.75 0
Al2 Al3+ 6 c 0.1684(1) 0.9162(1) 0.4509 0.0048 0.25 0
N1 N3- 6 c 0.60658(6) 0.94978(6) 0.4361(3) 0.008 0.875 0
O1 O2- 6 c 0.60658(6) 0.94978(6) 0.4361(3) 0.008 0.125 0
N2 N3- 6 c 0.31909(7) 0.0022(1) 0.7009(4) 0.0093 0.875 0
O2 O2- 6 c 0.31909(7) 0.0022(1) 0.7009(4) 0.0093 0.125 0
N3 N3- 2 a 0 0 0.4534(4) 0.0065 0.875 0
O3 O2- 2 a 0 0 0.4534(4) 0.0065 0.125 0
N4 N3- 2 b 0.6667 0.3333 0.5964(3) 0.0106 0.875 0
O4 O2- 2 b 0.6667 0.3333 0.5964(3) 0.0106 0.125 0
Li1 Li1+ 2 b 0.6667 0.3333 0.2358(3) 0.013(3) 0.5 0
#End of TTdata_97577-ICSD