
#(C) 2018 by FIZ Karlsruhe - Leibniz Institute for Information Infrastructure.  All rights reserved.
data_97700-ICSD
_database_code_ICSD 97700
_audit_creation_date 2004-10-01
_audit_update_record 2007-08-01
_chemical_name_systematic 'Dilithium tecto-dialumtetrasilicate dihydrate'
_chemical_formula_structural 'Li2 (Al2 Si4 O12) (H2 O)2'
_chemical_formula_sum 'H4 Al2 Li2 O14 Si4'
_chemical_name_structure_type Bikitaite-1A-frame
_chemical_name_mineral Bikitaite
_exptl_crystal_density_diffrn 2.29
_publ_section_title 'Effects of pressure on the structure of bikitaite'
loop_
_citation_id
_citation_journal_full
_citation_year
_citation_journal_volume
_citation_page_first
_citation_page_last
_citation_journal_id_ASTM
primary 'European Journal of Mineralogy' 2003 15 247 255 EJMIER
loop_
_publ_author_name
'Comodi, P.'
'Gatta, G.D.'
'Zanazzi, P.F.'
_cell_length_a 8.607(2)
_cell_length_b 4.956(2)
_cell_length_c 7.608(2)
_cell_angle_alpha 89.92(5)
_cell_angle_beta 114.38(4)
_cell_angle_gamma 89.83(3)
_cell_volume 295.59
_cell_formula_units_Z 1
_symmetry_space_group_name_H-M 'P 1'
_symmetry_Int_Tables_number 1
_refine_ls_R_factor_all 0.038
loop_
_symmetry_equiv_pos_site_id
_symmetry_equiv_pos_as_xyz
1 'x, y, z'
loop_
_atom_type_symbol
_atom_type_oxidation_number
Li1+ 1
Si4+ 4
Al3+ 3
O2- -2
H1+ 1
loop_
_atom_site_label
_atom_site_type_symbol
_atom_site_symmetry_multiplicity
_atom_site_Wyckoff_symbol
_atom_site_fract_x
_atom_site_fract_y
_atom_site_fract_z
_atom_site_B_iso_or_equiv
_atom_site_occupancy
_atom_site_attached_hydrogens
Li1 Li1+ 1 a 0.314(1) 0.366(2) 0.153(2) 0.016(2) 1. 0
Li2 Li1+ 1 a 0.703(1) 0.868(2) 0.880(2) 0.019(2) 1. 0
Si1 Si4+ 1 a 0.1070(2) 0.8641(3) 0.0995(2) 0.0079(2) 1. 0
Si2 Si4+ 1 a 0.1038 0.8006 0.5049 0.0089(2) 1. 0
Si3 Si4+ 1 a 0.8924(2) 0.2995(4) 0.4881(2) 0.0094(2) 1. 0
Si4 Si4+ 1 a 0.6196(2) 0.3747(3) 0.0650(2) 0.0079(2) 1. 0
Al1 Al3+ 1 a 0.3805(2) 0.8743(4) 0.9393(3) 0.0086(2) 1. 0
Al2 Al3+ 1 a 0.9004(2) 0.3643(4) 0.9089(3) 0.0091(2) 1. 0
O1 O2- 1 a 0.2644(4) 0.7400(7) 0.0614(5) 0.0121(5) 1. 0
O2 O2- 1 a 0.0863(4) 0.1822(7) 0.0454(5) 0.0128(6) 1. 0
O3 O2- 1 a 0.1580(6) 0.8280(9) 0.3279(6) 0.0184(7) 1. 0
O4 O2- 1 a 0.0542(5) 0.4865(8) 0.5145(7) 0.0196(7) 1. 0
O5 O2- 1 a 0.2606(5) 0.8916(8) 0.6949(6) 0.0182(7) 1. 0
O6 O2- 1 a 0.4523(4) 0.1969(7) 0.0305(5) 0.0120(5) 1. 0
O7 O2- 1 a 0.4100(7) 0.325(1) 0.4377(8) 0.0290(9) 1. 0
O8 O2- 1 a 0.7311(4) 0.2426(7) 0.9592(5) 0.0117(5) 1. 0
O9 O2- 1 a 0.9315(4) 0.7054(7) 0.9751(5) 0.0132(6) 1. 0
O10 O2- 1 a 0.8408(6) 0.3284(9) 0.6648(6) 0.0214(8) 1. 0
O11 O2- 1 a 0.9368(5) 0.9863(7) 0.4637(6) 0.0188(7) 1. 0
O12 O2- 1 a 0.7321(5) 0.3933(8) 0.2968(5) 0.0176(7) 1. 0
O13 O2- 1 a 0.5621(4) 0.6772(7) 0.9838(5) 0.0121(5) 1. 0
O14 O2- 1 a 0.6008(7) 0.822(1) 0.5924(8) 0.031(1) 1. 0
H1 H1+ 1 a 0.352(9) 0.30(1) 0.48(1) 0.01(1) 1. 0
H2 H1+ 1 a 0.46(1) 0.19(2) 0.46(1) 0.04(3) 1. 0
H3 H1+ 1 a 0.69(2) 0.85(3) 0.53(3) 0.14(7) 1. 0
H4 H1+ 1 a 0.54(1) 0.72(2) 0.56(1) 0.04(2) 1. 0
#End of TTdata_97700-ICSD