
#(C) 2018 by FIZ Karlsruhe - Leibniz Institute for Information Infrastructure.  All rights reserved.
data_98040-ICSD
_database_code_ICSD 98040
_audit_creation_date 2004-10-01
_audit_update_record 2012-02-01
_chemical_name_systematic
'Lithium nickel oxotitanium phosphate(V) (0.5/0.25/1/1)'
_chemical_formula_structural 'Li0.5 Ni0.25 (Ti O) (P O4)'
_chemical_formula_sum 'Li0.5 Ni0.25 O5 P1 Ti1'
_chemical_name_structure_type Li.5Ni.25TiOPO4
_exptl_crystal_density_diffrn 3.44
_publ_section_title

;
Determination and Rietveld refinement of the crystal structure of Li0.5 Ni0.25
Ti O (P O4) from powder X-ray and neutron diffraction
;
loop_
_citation_id
_citation_journal_full
_citation_year
_citation_journal_volume
_citation_page_first
_citation_page_last
_citation_journal_id_ASTM
primary 'Powder Diffraction' 2002 17 290 294 PODIE2
loop_
_publ_author_name
'Manoun, B.'
'El Jazouli, A.'
'Gravereau, P.'
'Chaminade, J.P.'
'Bouree, F.'
_cell_length_a 6.3906(7)
_cell_length_b 7.2568(7)
_cell_length_c 7.3673(9)
_cell_angle_alpha 90
_cell_angle_beta 90.234(9)
_cell_angle_gamma 90
_cell_volume 341.66
_cell_formula_units_Z 4
_symmetry_space_group_name_H-M 'P 1 21/c 1'
_symmetry_Int_Tables_number 14
_refine_ls_R_factor_all 0.036
loop_
_symmetry_equiv_pos_site_id
_symmetry_equiv_pos_as_xyz
1 'x, -y+1/2, z+1/2'
2 '-x, -y, -z'
3 '-x, y+1/2, -z+1/2'
4 'x, y, z'
loop_
_atom_type_symbol
_atom_type_oxidation_number
Ti4+ 4
Li1+ 1
Ni2+ 2
P5+ 5
O2- -2
loop_
_atom_site_label
_atom_site_type_symbol
_atom_site_symmetry_multiplicity
_atom_site_Wyckoff_symbol
_atom_site_fract_x
_atom_site_fract_y
_atom_site_fract_z
_atom_site_B_iso_or_equiv
_atom_site_occupancy
_atom_site_attached_hydrogens
Ti1 Ti4+ 4 e 0.762(3) 0.220(2) 0.332(2) 0.1(1) 1. 0
Li1 Li1+ 2 a 0 0 0 2.7(5) 1. 0
Ni1 Ni2+ 2 b 0.5 0 0 1.9(2) 0.5 0
P1 P5+ 4 e 0.249(2) 0.128(1) 0.374(2) 0.3(1) 1. 0
O1 O2- 4 e 0.748(2) 0.154(1) 0.111(1) 0.7(1) 1. 0
O2 O2- 4 e 0.261(2) 0.001(1) 0.206(1) 0.7(1) 1. 0
O3 O2- 4 e 0.252(2) 0.010(1) 0.548(1) 0.7(1) 1. 0
O4 O2- 4 e 0.446(3) 0.249(2) 0.876(2) 0.7(1) 1. 0
O5 O2- 4 e 0.055(2) 0.249(2) 0.366(2) 0.7(1) 1. 0
#End of TTdata_98040-ICSD