
#(C) 2018 by FIZ Karlsruhe - Leibniz Institute for Information Infrastructure.  All rights reserved.
data_98566-ICSD
_database_code_ICSD 98566
_audit_creation_date 2005-04-01
_chemical_name_systematic 'Dilithium dimolybdatodioxouranate'
_chemical_formula_structural 'Li2 ((U O2) (Mo O4)2)'
_chemical_formula_sum 'Li2 Mo2 O10 U1'
_exptl_crystal_density_diffrn 4.41
_publ_section_title

;
Synthesis and crystal structure of Li2 ((U O2) (Mo O4)2), a uranyl molybdate
with chains of corner-sharing uranyl square bipyramids and Mo O4 tetrahedra
;
loop_
_citation_id
_citation_journal_full
_citation_year
_citation_journal_volume
_citation_page_first
_citation_page_last
_citation_journal_id_ASTM
primary 'Solid State Sciences' 2003 5 481 485 SSSCFJ
loop_
_publ_author_name
'Krivovichev, S.V.'
'Burns, P.C.'
_cell_length_a 5.3455(4)
_cell_length_b 5.8297(4)
_cell_length_c 8.2652(6)
_cell_angle_alpha 108.267(2)
_cell_angle_beta 100.566(2)
_cell_angle_gamma 104.121(2)
_cell_volume 227.56
_cell_formula_units_Z 1
_symmetry_space_group_name_H-M 'P -1'
_symmetry_Int_Tables_number 2
_refine_ls_R_factor_all 0.027
loop_
_symmetry_equiv_pos_site_id
_symmetry_equiv_pos_as_xyz
1 '-x, -y, -z'
2 'x, y, z'
loop_
_atom_type_symbol
_atom_type_oxidation_number
U6+ 6
Mo6+ 6
O2- -2
Li1+ 1
loop_
_atom_site_label
_atom_site_type_symbol
_atom_site_symmetry_multiplicity
_atom_site_Wyckoff_symbol
_atom_site_fract_x
_atom_site_fract_y
_atom_site_fract_z
_atom_site_B_iso_or_equiv
_atom_site_occupancy
_atom_site_attached_hydrogens
U1 U6+ 1 a 0 0 0 0.0132(1) 1. 0
Mo1 Mo6+ 2 i 0.08559(7) 0.34926(6) 0.69889(5) 0.0130(1) 1. 0
O1 O2- 2 i 0.7821(7) 0.1364(6) 0.5488(4) 0.0212(7) 1. 0
O2 O2- 2 i 0.3108(7) 0.0628(7) 0.1587(4) 0.0220(7) 1. 0
O3 O2- 2 i 0.2090(7) 0.2081(6) 0.8464(4) 0.0207(7) 1. 0
O4 O2- 2 i 0.3096(7) 0.4277(6) 0.5812(4) 0.0212(7) 1. 0
O5 O2- 2 i 0.0287(8) 0.6292(6) 0.8257(5) 0.0300(9) 1. 0
Li1 Li1+ 2 i 0.4796(17) 0.2157(16) 0.4253(11) 0.0219(18) 1. 0
loop_
_atom_site_aniso_label
_atom_site_aniso_type_symbol
_atom_site_aniso_U_11
_atom_site_aniso_U_22
_atom_site_aniso_U_33
_atom_site_aniso_U_12
_atom_site_aniso_U_13
_atom_site_aniso_U_23
U1 U6+ .0170(1) .0121(1) .0110(1) .0057(1) .0031(1) .0047(1)
Mo1 Mo6+ .0149(2) .0117(2) .0130(2) .0040(2) .0050(1) .0051(1)
O1 O2- .0207(17) .0195(16) .0191(16) .0040(13) -.0005(13) .0071(13)
O2 O2- .0208(18) .0291(18) .1156(15) .0062(14) .0020(13) .0110(14)
O3 O2- .0198(17) .0259(17) .0205(16) .0077(14) .0058(13) .0138(14)
O4 O2- .0240(18) .0187(15) .0242(17) .0052(13) .0133(14) .0098(13)
O5 O2- .0400(20) .0208(18) .0280(20) .0169(17) .0099(17) .0019(15)
Li1 Li1+ .0190(40) .0240(40) .0240(40) .0110(30) .0030(30) .0100(30)
#End of TTdata_98566-ICSD