
#(C) 2018 by FIZ Karlsruhe - Leibniz Institute for Information Infrastructure.  All rights reserved.
data_98981-ICSD
_database_code_ICSD 98981
_audit_creation_date 2005-04-01
_audit_update_record 2008-02-01
_chemical_name_systematic 'Lanthanum lithium titanate (0.62/0.18/1)'
_chemical_formula_structural 'La0.62 Li0.18 (Ti O3)'
_chemical_formula_sum 'La0.62 Li0.18 O3 Ti1'
_exptl_crystal_density_diffrn 5.35
_publ_section_title

;
Crystal structure and microstructure of some La2/3-x Li3x Ti O3 oxides: an
example of the complementary use of electron diffraction and microscopy and
synchrotron X-ray diffraction to study complex materials
;
loop_
_citation_id
_citation_journal_full
_citation_year
_citation_journal_volume
_citation_page_first
_citation_page_last
_citation_journal_id_ASTM
primary 'Journal of the American Chemical Society' 2004 126 3587 3596 JACSAT
loop_
_publ_author_name
'Garcia-Martin, S.'
'Alario-Franco, M.A.'
'Ehrenberg, H.'
'Rodriguez Carvajal, J.'
'Amador, U.'
_cell_length_a 5.4311(1)
_cell_length_b 5.4279(1)
_cell_length_c 7.7216(1)
_cell_angle_alpha 90
_cell_angle_beta 90
_cell_angle_gamma 90.157(1)
_cell_volume 227.63
_cell_formula_units_Z 4
_symmetry_space_group_name_H-M 'P 1 1 2/m'
_symmetry_Int_Tables_number 10
_refine_ls_R_factor_all 0.049
loop_
_symmetry_equiv_pos_site_id
_symmetry_equiv_pos_as_xyz
1 '-x, -y, z'
2 '-x, -y, -z'
3 'x, y, -z'
4 'x, y, z'
loop_
_atom_type_symbol
_atom_type_oxidation_number
La3+ 3
Li1+ 1
Ti4+ 4
O2- -2
loop_
_atom_site_label
_atom_site_type_symbol
_atom_site_symmetry_multiplicity
_atom_site_Wyckoff_symbol
_atom_site_fract_x
_atom_site_fract_y
_atom_site_fract_z
_atom_site_B_iso_or_equiv
_atom_site_occupancy
_atom_site_attached_hydrogens
La1 La3+ 2 m 0.2492(5) 0.7520(5) 0 0.73(3) 1. 0
La2 La3+ 2 n 0.754(2) 0.229(2) 0.5 0.74(3) 0.24(4) 0
Li1 Li1+ 2 n 0.754(2) 0.229(2) 0.5 0.74(3) 0.36(4) 0
Ti1 Ti4+ 4 o 0.252(2) 0.2506(9) 0.2640(2) 0.69(5) 1. 0
O1 O2- 2 m 0.290(3) 0.265(3) 0 0.46(8) 1. 0
O2 O2- 2 n 0.215(3) 0.227(4) 0.5 0.46(8) 1. 0
O3 O2- 2 i 0 0 0.233(2) 0.46(8) 1. 0
O4 O2- 2 k 0.5 0 0.232(4) 0.46(8) 1. 0
O5 O2- 2 l 0.5 0.5 0.261(1) 0.46(8) 1. 0
O6 O2- 2 j 0 0.5 0.226(4) 0.46(8) 1. 0
#End of TTdata_98981-ICSD