
#(C) 2018 by FIZ Karlsruhe - Leibniz Institute for Information Infrastructure.  All rights reserved.
data_99038-ICSD
_database_code_ICSD 99038
_audit_creation_date 2005-04-01
_chemical_name_systematic
'Lithium yttrium titanium oxide sulfide (1.04/2/2/5/2)'
_chemical_formula_structural 'Li1.04 Y2 Ti2 O5 S2'
_chemical_formula_sum 'Li1.04 O5 S2 Ti2 Y2'
_exptl_crystal_density_diffrn 4.27
_cell_measurement_temperature 298.
_publ_section_title

;
Electronically driven structural distortions in lithium intercalates of the
n=2 Ruddlesden-Popper-type host Y2 Ti2 O5 S2: synthesis, structure and
properties of Lix Y2 Ti2 O5 S2 (0 < x <2)
;
loop_
_citation_id
_citation_journal_full
_citation_year
_citation_journal_volume
_citation_page_first
_citation_page_last
_citation_journal_id_ASTM
primary 'Journal of the American Chemical Society' 2004 126 1980 1991 JACSAT
loop_
_publ_author_name
'Hyett, G.'
'Rutt, O.J.'
'Gal, Z.A.'
'Denis, S.G.'
'Hayward, M.A.'
'Clarke, S.J.'
_cell_length_a 3.8189(2)
_cell_length_b 3.8542(2)
_cell_length_c 22.468(1)
_cell_angle_alpha 90
_cell_angle_beta 90
_cell_angle_gamma 90
_cell_volume 330.7
_cell_formula_units_Z 2
_symmetry_space_group_name_H-M 'I m m m'
_symmetry_Int_Tables_number 71
_refine_ls_R_factor_all 0.0249
loop_
_symmetry_equiv_pos_site_id
_symmetry_equiv_pos_as_xyz
1 'x, y, -z'
2 'x, -y, z'
3 '-x, y, z'
4 '-x, -y, -z'
5 '-x, -y, z'
6 '-x, y, -z'
7 'x, -y, -z'
8 'x, y, z'
9 'x+1/2, y+1/2, -z+1/2'
10 'x+1/2, -y+1/2, z+1/2'
11 '-x+1/2, y+1/2, z+1/2'
12 '-x+1/2, -y+1/2, -z+1/2'
13 '-x+1/2, -y+1/2, z+1/2'
14 '-x+1/2, y+1/2, -z+1/2'
15 'x+1/2, -y+1/2, -z+1/2'
16 'x+1/2, y+1/2, z+1/2'
loop_
_atom_type_symbol
_atom_type_oxidation_number
Y3+ 3
Ti3+ 3.48
O2- -2
S2- -2
Li1+ 1
loop_
_atom_site_label
_atom_site_type_symbol
_atom_site_symmetry_multiplicity
_atom_site_Wyckoff_symbol
_atom_site_fract_x
_atom_site_fract_y
_atom_site_fract_z
_atom_site_B_iso_or_equiv
_atom_site_occupancy
_atom_site_attached_hydrogens
Y1 Y3+ 4 i 0 0 0.3337(1) 0.0061(4) 1. 0
Ti1 Ti3+ 4 i 0 0 0.0824(2) 0.0043(1) 1. 0
O1 O2- 4 j 0.5 0 0.1012(1) 0.0098(2) 1. 0
O2 O2- 4 j 0 0.5 0.0965(1) 0.0098(2) 1. 0
O3 O2- 2 a 0 0 0 0.0109(8) 1. 0
S1 S2- 4 i 0 0 0.2030(1) 0.0061(4) 1. 0
Li1 Li1+ 2 b 0.5 0 0 0.093(3) 1.04(4) 0
#End of TTdata_99038-ICSD