
#(C) 2018 by FIZ Karlsruhe - Leibniz Institute for Information Infrastructure.  All rights reserved.
data_99386-ICSD
_database_code_ICSD 99386
_audit_creation_date 2005-04-01
_chemical_name_systematic 'Lithium calcium borate'
_chemical_formula_structural 'Li Ca (B O3)'
_chemical_formula_sum 'B1 Ca1 Li1 O3'
_exptl_crystal_density_diffrn 2.84
_publ_section_title 'Structure determination of a new compound Li Ca B O3'
loop_
_citation_id
_citation_journal_full
_citation_year
_citation_journal_volume
_citation_page_first
_citation_page_last
_citation_journal_id_ASTM
primary 'Journal of Solid State Chemistry' 2004 177 1111 1116 JSSCBI
loop_
_publ_author_name
'Wu, L.'
'Chen, X.-L.'
'Li, H.'
'He, M.'
'Dai, L.'
'Li, X.-Z.'
'Xu, Y.-P.'
_cell_length_a 13.227(13)
_cell_length_b 6.1675(6)
_cell_length_c 6.0620(6)
_cell_angle_alpha 90
_cell_angle_beta 90
_cell_angle_gamma 90
_cell_volume 494.52
_cell_formula_units_Z 8
_symmetry_space_group_name_H-M 'P b c a'
_symmetry_Int_Tables_number 61
_refine_ls_R_factor_all 0.0189
loop_
_symmetry_equiv_pos_site_id
_symmetry_equiv_pos_as_xyz
1 'x+1/2, y, -z+1/2'
2 'x, -y+1/2, z+1/2'
3 '-x+1/2, y+1/2, z'
4 '-x, -y, -z'
5 '-x+1/2, -y, z+1/2'
6 '-x, y+1/2, -z+1/2'
7 'x+1/2, -y+1/2, -z'
8 'x, y, z'
loop_
_atom_type_symbol
_atom_type_oxidation_number
Ca2+ 2
O2- -2
B3+ 3
Li1+ 1
loop_
_atom_site_label
_atom_site_type_symbol
_atom_site_symmetry_multiplicity
_atom_site_Wyckoff_symbol
_atom_site_fract_x
_atom_site_fract_y
_atom_site_fract_z
_atom_site_B_iso_or_equiv
_atom_site_occupancy
_atom_site_attached_hydrogens
Ca1 Ca2+ 8 c 0.42968(2) 0.50948(3) 0.25121(2) 0.0074(1) 1. 0
O1 O2- 8 c 0.25085(6) 0.5343(1) 0.2344(1) 0.0107(2) 1. 0
O2 O2- 8 c 0.40484(5) 0.8733(1) 0.1179(1) 0.0089(1) 1. 0
O3 O2- 8 c 0.40485(5) 0.1449(1) 0.3985(1) 0.0092(1) 1. 0
B1 B3+ 8 c 0.1478(1) 0.5174(2) 0.2500(1) 0.0079(2) 1. 0
Li1 Li1+ 8 c 0.2519(1) 0.7086(3) 0.5150(3) 0.0150(3) 1. 0
loop_
_atom_site_aniso_label
_atom_site_aniso_type_symbol
_atom_site_aniso_U_11
_atom_site_aniso_U_22
_atom_site_aniso_U_33
_atom_site_aniso_U_12
_atom_site_aniso_U_13
_atom_site_aniso_U_23
Ca1 Ca2+ .0069(1) .0074(1) .0078(1) .00015(5) .00003(4) -.00001(5)
O1 O2- .0061(3) .0129(3) .0130(3) -.0006(2) .0003(2) -.0030(2)
O2 O2- .0086(3) .0083(3) .0098(3) .0014(2) .0013(2) .0000(2)
O3 O2- .0093(3) .0089(3) .0095(3) -.0016(2) -.0013(2) .0003(2)
B1 B3+ .0073(5) .0078(4) .0087(5) .0004(3) -.0002(2) .0012(2)
Li1 Li1+ .0153(9) .0140(7) .0157(8) -.0003(5) .0012(6) -.0022(5)
#End of TTdata_99386-ICSD