
#(C) 2018 by FIZ Karlsruhe - Leibniz Institute for Information Infrastructure.  All rights reserved.
data_99480-ICSD
_database_code_ICSD 99480
_audit_creation_date 2005-04-01
_chemical_name_systematic 'Dilithium dioxouranium(VI) bis(tungstate(VI))'
_chemical_formula_structural 'Li2 (U O2) (W O4)2'
_chemical_formula_sum 'Li2 O10 U1 W2'
_exptl_crystal_density_diffrn 6.87
_publ_section_title

;
Two new lithium uranyl tungstates Li2 (U O2) (W O4)2 and Li2 (U O2)4 (W O4)4 O
with framework based on the uranophane sheet anion topology
;
loop_
_citation_id
_citation_journal_full
_citation_year
_citation_journal_volume
_citation_page_first
_citation_page_last
_citation_journal_id_ASTM
primary 'Journal of Solid State Chemistry' 2004 177 1681 1694 JSSCBI
loop_
_publ_author_name
'Obbade, S.'
'Yagoubi, S.'
'Dion, C.'
'Saadi, M.'
'Abraham, F.'
_cell_length_a 7.9372(15)
_cell_length_b 12.786(2)
_cell_length_c 7.4249(14)
_cell_angle_alpha 90
_cell_angle_beta 90
_cell_angle_gamma 90
_cell_volume 753.52
_cell_formula_units_Z 4
_symmetry_space_group_name_H-M 'P b c n'
_symmetry_Int_Tables_number 60
_refine_ls_R_factor_all 0.035
loop_
_symmetry_equiv_pos_site_id
_symmetry_equiv_pos_as_xyz
1 'x, -y, z+1/2'
2 '-x+1/2, y+1/2, z'
3 'x+1/2, y+1/2, -z+1/2'
4 '-x, -y, -z'
5 '-x, y, -z+1/2'
6 'x+1/2, -y+1/2, -z'
7 '-x+1/2, -y+1/2, z+1/2'
8 'x, y, z'
loop_
_atom_type_symbol
_atom_type_oxidation_number
U6+ 6
W6+ 6
O2- -2
Li1+ 1
loop_
_atom_site_label
_atom_site_type_symbol
_atom_site_symmetry_multiplicity
_atom_site_Wyckoff_symbol
_atom_site_fract_x
_atom_site_fract_y
_atom_site_fract_z
_atom_site_B_iso_or_equiv
_atom_site_occupancy
_atom_site_attached_hydrogens
U1 U6+ 4 c 0 0.02101(5) 0.25 0.0133(2) 1. 0
W1 W6+ 8 d 0.03779(6) 0.25671(3) 0.00005(8) 0.0048(2) 1. 0
O1 O2- 8 d 0.7723(17) 0.0222(9) 0.257(2) 0.028(3) 1. 0
O2 O2- 4 c 0 0.2122(11) 0.25 0.010(2) 1. 0
O3 O2- 4 c 0 0.2675(11) 0.75 0.013(2) 1. 0
O4 O2- 8 d 0.2563(17) 0.2505(7) 0.0209(19) 0.015(2) 1. 0
O5 O2- 8 d 0.0113(17) 0.3914(7) 0.0436(14) 0.012(2) 1. 0
O6 O2- 8 d 0.005(2) 0.0999(7) -0.0309(13) 0.015(2) 1. 0
Li1 Li1+ 4 c 0 0.491(4) 0.75 0.012(9) 0.67 0
Li2 Li1+ 8 d 0.832(5) 0.496(2) -0.033(5) 0.014(7) 0.67 0
loop_
_atom_site_aniso_label
_atom_site_aniso_type_symbol
_atom_site_aniso_U_11
_atom_site_aniso_U_22
_atom_site_aniso_U_33
_atom_site_aniso_U_12
_atom_site_aniso_U_13
_atom_site_aniso_U_23
U1 U6+ .0284(4) .0086(3) .0031(3) 0. .0001(4) 0.
W1 W6+ .0051(3) .0065(3) .0028(3) -.0002(1) .0001(2) .0001(2)
O1 O2- .039(6) .014(5) .032(7) -.001(4) .000(8) -.016(8)
O2 O2- .008(6) .018(7) .005(6) 0. .003(7) 0.
O3 O2- .022(7) .012(6) .006(6) 0. -.005(9) 0.
O4 O2- .020(7) .019(5) .006(3) .000(4) .003(5) .002(3)
O5 O2- .012(5) .007(4) .017(5) -.004(4) .001(5) -.002(4)
O6 O2- .034(6) .004(4) .007(4) -.001(5) -.006(6) -.002(3)
#End of TTdata_99480-ICSD