
#(C) 2018 by FIZ Karlsruhe - Leibniz Institute for Information Infrastructure.  All rights reserved.
data_99503-ICSD
_database_code_ICSD 99503
_audit_creation_date 2005-04-01
_chemical_name_systematic 'Tetralithium calcium bis(borate)'
_chemical_formula_structural 'Li4 Ca (B O3)2'
_chemical_formula_sum 'B2 Ca1 Li4 O6'
_exptl_crystal_density_diffrn 2.37
_publ_section_title
'Ab initio structure determination of new compound Li4 Ca B2 O6'
loop_
_citation_id
_citation_journal_full
_citation_year
_citation_journal_volume
_citation_page_first
_citation_page_last
_citation_journal_id_ASTM
primary 'Journal of Solid State Chemistry' 2004 177 1847 1851 JSSCBI
loop_
_publ_author_name
'Wu, L.'
'Wang, C.'
'Chen, X.-L.'
'Li, X.-Z.'
'Xu, Y.-P.'
'Cao, Y.G.'
_cell_length_a 9.24036(9)
_cell_length_b 8.09482(7)
_cell_length_c 3.48162(4)
_cell_angle_alpha 90
_cell_angle_beta 90
_cell_angle_gamma 90
_cell_volume 260.42
_cell_formula_units_Z 2
_symmetry_space_group_name_H-M 'P n n m'
_symmetry_Int_Tables_number 58
_refine_ls_R_factor_all 0.0497
loop_
_symmetry_equiv_pos_site_id
_symmetry_equiv_pos_as_xyz
1 'x+1/2, -y+1/2, z+1/2'
2 '-x+1/2, y+1/2, z+1/2'
3 'x, y, -z'
4 '-x, -y, -z'
5 '-x+1/2, y+1/2, -z+1/2'
6 'x+1/2, -y+1/2, -z+1/2'
7 '-x, -y, z'
8 'x, y, z'
loop_
_atom_type_symbol
_atom_type_oxidation_number
Ca2+ 2
O2- -2
B3+ 3
Li1+ 1
loop_
_atom_site_label
_atom_site_type_symbol
_atom_site_symmetry_multiplicity
_atom_site_Wyckoff_symbol
_atom_site_fract_x
_atom_site_fract_y
_atom_site_fract_z
_atom_site_B_iso_or_equiv
_atom_site_occupancy
_atom_site_attached_hydrogens
Ca1 Ca2+ 2 c 0 0.5 0 1.83(3) 1. 0
O1 O2- 4 g 0.1423(3) 0.2473(3) 0 1.89(7) 1. 0
O2 O2- 4 g 0.3786(3) 0.1366(4) 0 1.83(7) 1. 0
O3 O2- 4 g 0.3510(3) 0.4293(3) 0 1.84(7) 1. 0
B1 B3+ 4 g 0.2888(6) 0.2776(7) 0 1.5(1) 1. 0
Li1 Li1+ 4 g 0.1923(9) 0.0049(14) 0 2.8(2) 1. 0
Li2 Li1+ 4 g 0.5479(8) 0.3263(9) 0 1.4(2) 1. 0
#End of TTdata_99503-ICSD