
#(C) 2017 by FIZ Karlsruhe - Leibniz Institute for Information Infrastructure.  All rights reserved.
data_100485-ICSD
_database_code_ICSD 100485
_audit_creation_date 1980-01-01
_chemical_name_systematic 'Lithium iron(III) oxide chloride (.5/1/1/1)'
_chemical_formula_structural 'Li0.5 Fe O Cl'
_chemical_formula_sum 'Cl1 Fe1 Li0.5 O1'
_exptl_crystal_density_diffrn 3.74
_publ_section_title 'The lithium and molecular intercalates of Fe O Cl'
loop_
_citation_id
_citation_journal_full
_citation_year
_citation_journal_volume
_citation_page_first
_citation_page_last
_citation_journal_id_ASTM
primary 'Materials Research Bulletin' 1978 13 221 227 MRBUAC
loop_
_publ_author_name
'Palvadeau, P.'
'Coic, L.'
'Rouxel, J.'
'Portier, J.'
_cell_length_a 3.781(6)
_cell_length_b 7.893(8)
_cell_length_c 3.293(3)
_cell_angle_alpha 90.
_cell_angle_beta 90.
_cell_angle_gamma 90.
_cell_volume 98.27
_cell_formula_units_Z 2
_symmetry_space_group_name_H-M 'P m n m S'
_symmetry_Int_Tables_number 59
loop_
_symmetry_equiv_pos_site_id
_symmetry_equiv_pos_as_xyz
1 'x+1/2, -y, -z+1/2'
2 'x+1/2, -y, z+1/2'
3 'x, y, -z'
4 '-x, y, z'
5 '-x+1/2, -y, z+1/2'
6 '-x+1/2, -y, -z+1/2'
7 '-x, y, -z'
8 'x, y, z'
loop_
_atom_type_symbol
_atom_type_oxidation_number
Fe3+ 3
Cl1- -1
O2- -2
Li1+ 1
loop_
_atom_site_label
_atom_site_type_symbol
_atom_site_symmetry_multiplicity
_atom_site_Wyckoff_symbol
_atom_site_fract_x
_atom_site_fract_y
_atom_site_fract_z
_atom_site_B_iso_or_equiv
_atom_site_occupancy
_atom_site_attached_hydrogens
Fe1 Fe3+ 2 b 0 0.116 0.5 . 1. 0
Cl1 Cl1- 2 a 0 0.33 0 . 1. 0
O1 O2- 2 a 0 -.048 0 . 1. 0
Li1 Li1+ 2 b 0 0.64 0.5 . 0.5 0
#End of TTdata_100485-ICSD