
#(C) 2017 by FIZ Karlsruhe - Leibniz Institute for Information Infrastructure.  All rights reserved.
data_100525-ICSD
_database_code_ICSD 100525
_audit_creation_date 1980-01-01
_chemical_name_systematic 'Lithium tantalum oxide fluoride (.5/3/7.5/.5)'
_chemical_formula_structural 'Li0.5 Ta3 O7.5 F0.5'
_chemical_formula_sum 'F0.5 Li0.5 O7.5 Ta3'
_exptl_crystal_density_diffrn 7.72
_publ_section_title

;
Structural studies on Li(1-x) Ta3 O(8-x) F(x) solid solutions by full-profile
refinements of Guinier-Haegg X-Ray film data
;
loop_
_citation_id
_citation_journal_full
_citation_year
_citation_journal_volume
_citation_page_first
_citation_page_last
_citation_journal_id_ASTM
primary 'Materials Research Bulletin' 1978 13 1371 1378 MRBUAC
loop_
_publ_author_name
'Werner, P.E.'
'Marinder, B.O.'
'Magneli, A.'
_cell_length_a 16.683(2)
_cell_length_b 3.9084(6)
_cell_length_c 8.920(1)
_cell_angle_alpha 90.
_cell_angle_beta 90.
_cell_angle_gamma 90.
_cell_volume 581.62
_cell_formula_units_Z 4
_symmetry_space_group_name_H-M 'P m m a'
_symmetry_Int_Tables_number 51
_refine_ls_R_factor_all 0.107
loop_
_symmetry_equiv_pos_site_id
_symmetry_equiv_pos_as_xyz
1 '-x+1/2, -y, z'
2 'x+1/2, -y, -z'
3 'x, -y, z'
4 '-x, -y, -z'
5 'x+1/2, y, -z'
6 '-x+1/2, y, z'
7 '-x, y, -z'
8 'x, y, z'
loop_
_atom_type_symbol
_atom_type_oxidation_number
Ta5+ 5
O2- -2
Li1+ 1
F1- -1
loop_
_atom_site_label
_atom_site_type_symbol
_atom_site_symmetry_multiplicity
_atom_site_Wyckoff_symbol
_atom_site_fract_x
_atom_site_fract_y
_atom_site_fract_z
_atom_site_B_iso_or_equiv
_atom_site_occupancy
_atom_site_attached_hydrogens
Ta1 Ta5+ 2 e 0.25 0 0.6875(9) . 1. 0
Ta2 Ta5+ 4 i 0.1313(4) 0 0.3975(6) . 1. 0
Ta3 Ta5+ 4 i 0.0593(4) 0 0.8126(6) . 1. 0
Ta4 Ta5+ 2 e 0.25 0 0.0583(7) . 1. 0
O1 O2- 2 f 0.25 0.5 0.648(8) . 1. 0
O2 O2- 4 j 0.144(3) 0.5 0.422(6) . 0.5 0
O3 O2- 4 j 0.071(3) 0.5 0.810(7) . 1. 0
O4 O2- 2 f 0.25 0.5 0.034(9) . 1. 0
O5 O2- 4 i 0.160(4) 0 0.177(6) . 1. 0
O6 O2- 4 i 0.016(4) 0 0.332(7) . 1. 0
O7 O2- 2 e 0.25 0 0.466(9) . 1. 0
O8 O2- 4 i 0.135(4) 0 0.643(6) . 1. 0
O9 O2- 4 i 0.175(4) 0 0.900(6) . 1. 0
O10 O2- 2 a 0 0 0 . 1. 0
Li1 Li1+ 4 j 0.11 0.5 0.03 . 0.5 0
#End of TTdata_100525-ICSD