
#(C) 2017 by FIZ Karlsruhe - Leibniz Institute for Information Infrastructure.  All rights reserved.
data_100524-ICSD
_database_code_ICSD 100524
_audit_creation_date 1980-01-01
_audit_update_record 1985-05-21
_chemical_name_systematic 'Lithium tantalum oxide fluoride (.75/3/7.75/.25)'
_chemical_formula_structural 'Li0.75 Ta3 O7.75 F0.25'
_chemical_formula_sum 'F0.25 Li0.75 O7.75 Ta3'
_exptl_crystal_density_diffrn 7.78
_publ_section_title

;
Structural studies on Li(1-x) Ta3 O(8-x) F(x) solid solutions by full-profile
refinements of Guinier-Haegg X-Ray film data
;
loop_
_citation_id
_citation_journal_full
_citation_year
_citation_journal_volume
_citation_page_first
_citation_page_last
_citation_journal_id_ASTM
primary 'Materials Research Bulletin' 1978 13 1371 1378 MRBUAC
loop_
_publ_author_name
'Werner, P.E.'
'Marinder, B.O.'
'Magneli, A.'
_cell_length_a 16.6915(6)
_cell_length_b 3.8745(3)
_cell_length_c 8.9310(4)
_cell_angle_alpha 90.
_cell_angle_beta 90.
_cell_angle_gamma 90.
_cell_volume 577.58
_cell_formula_units_Z 4
_symmetry_space_group_name_H-M 'P m m a'
_symmetry_Int_Tables_number 51
_refine_ls_R_factor_all 0.094
loop_
_symmetry_equiv_pos_site_id
_symmetry_equiv_pos_as_xyz
1 '-x+1/2, -y, z'
2 'x+1/2, -y, -z'
3 'x, -y, z'
4 '-x, -y, -z'
5 'x+1/2, y, -z'
6 '-x+1/2, y, z'
7 '-x, y, -z'
8 'x, y, z'
loop_
_atom_type_symbol
_atom_type_oxidation_number
Ta5+ 5
O2- -2
Li1+ 1
F1- -1
loop_
_atom_site_label
_atom_site_type_symbol
_atom_site_symmetry_multiplicity
_atom_site_Wyckoff_symbol
_atom_site_fract_x
_atom_site_fract_y
_atom_site_fract_z
_atom_site_B_iso_or_equiv
_atom_site_occupancy
_atom_site_attached_hydrogens
Ta1 Ta5+ 2 e 0.25 0 0.6925(9) . 1. 0
Ta2 Ta5+ 4 i 0.1325(4) 0 0.3961(6) . 1. 0
Ta3 Ta5+ 4 i 0.0597(3) 0 0.8124(6) . 1. 0
Ta4 Ta5+ 2 e 0.25 0 0.0568(8) . 1. 0
O1 O2- 2 f 0.25 0.5 0.717(8) . 1. 0
O2 O2- 4 j 0.140(4) 0.5 0.421(6) . 0.75 0
O3 O2- 4 j 0.088(3) 0.5 0.834(6) . 1. 0
O4 O2- 2 f 0.25 0.5 0.024(9) . 1. 0
O5 O2- 4 i 0.168(4) 0 0.196(7) . 1. 0
O6 O2- 4 i 0.013(4) 0 0.344(6) . 1. 0
O7 O2- 2 e 0.25 0 0.444(9) . 1. 0
O8 O2- 4 i 0.120(4) 0 0.610(6) . 1. 0
O9 O2- 4 i 0.163(4) 0 0.903(7) . 1. 0
O10 O2- 2 a 0 0 0 . 1. 0
Li1 Li1+ 4 j 0.11 0.5 0.03 . 0.75 0
#End of TTdata_100524-ICSD