
#(C) 2018 by FIZ Karlsruhe - Leibniz Institute for Information Infrastructure.  All rights reserved.
data_10236-ICSD
_database_code_ICSD 10236
_audit_creation_date 1980-01-01
_audit_update_record 1999-01-19
_chemical_name_systematic 'Lithium aluminium catena-disilicate'
_chemical_formula_structural 'Li Al (Si2 O6)'
_chemical_formula_sum 'Al1 Li1 O6 Si2'
_chemical_name_structure_type Pyroxene-CaMg(SiO3)2
_chemical_name_mineral Spodumene
_exptl_crystal_density_diffrn 3.16
_cell_measurement_temperature 573.
_publ_section_title

;
High-temperature crystal chemistry of acmite, diopside, hedenbergite, jadeite,
spodumene, and ureyite
;
loop_
_citation_id
_citation_journal_full
_citation_year
_citation_journal_volume
_citation_page_first
_citation_page_last
_citation_journal_id_ASTM
primary 'American Mineralogist' 1973 58 594 618 AMMIAY
loop_
_publ_author_name
'Cameron, M.'
'Sueno, S.'
'Prewitt, C.T.'
'Papike, J.J.'
_cell_length_a 9.468(1)
_cell_length_b 8.412(1)
_cell_length_c 5.224(1)
_cell_angle_alpha 90.
_cell_angle_beta 110.05(1)
_cell_angle_gamma 90.
_cell_volume 390.85
_cell_formula_units_Z 4
_symmetry_space_group_name_H-M 'C 1 2/c 1'
_symmetry_Int_Tables_number 15
_refine_ls_R_factor_all 0.042
loop_
_symmetry_equiv_pos_site_id
_symmetry_equiv_pos_as_xyz
1 'x, -y, z+1/2'
2 '-x, -y, -z'
3 '-x, y, -z+1/2'
4 'x, y, z'
5 'x+1/2, -y+1/2, z+1/2'
6 '-x+1/2, -y+1/2, -z'
7 '-x+1/2, y+1/2, -z+1/2'
8 'x+1/2, y+1/2, z'
loop_
_atom_type_symbol
_atom_type_oxidation_number
O2- -2
Si4+ 4
Al3+ 3
Li1+ 1
loop_
_atom_site_label
_atom_site_type_symbol
_atom_site_symmetry_multiplicity
_atom_site_Wyckoff_symbol
_atom_site_fract_x
_atom_site_fract_y
_atom_site_fract_z
_atom_site_B_iso_or_equiv
_atom_site_occupancy
_atom_site_attached_hydrogens
O1 O2- 8 f 0.1101(1) 0.0819(1) 0.1397(2) 0.67(2) 1. 0
O2 O2- 8 f 0.3649(1) 0.2662(1) 0.3012(3) 1.06(2) 1. 0
O3 O2- 8 f 0.3565(1) 0.9886(2) 0.0546(2) 1.05(2) 1. 0
Si1 Si4+ 8 f 0.2943 0.0932 0.2547(1) 0.53(1) 1. 0
Al1 Al3+ 4 e 0 0.9059(1) 0.25 0.57(1) 1. 0
Li1 Li1+ 4 e 0 0.2758(7) 0.25 2.19(8) 1. 0
#End of TTdata_10236-ICSD