
#(C) 2018 by FIZ Karlsruhe - Leibniz Institute for Information Infrastructure.  All rights reserved.
data_10480-ICSD
_database_code_ICSD 10480
_audit_creation_date 1980-01-01
_audit_update_record 2007-08-01
_chemical_name_systematic 'Lithium pentaaluminium oxide'
_chemical_formula_structural 'Li Al5 O8'
_chemical_formula_sum 'Al5 Li1 O8'
_chemical_name_structure_type Spinel-LiFe5O8
_exptl_crystal_density_diffrn 3.62
_publ_section_title 'Etude structurale de la forme ordonnee de Li Al5 O8'
loop_
_citation_id
_citation_journal_full
_citation_year
_citation_journal_volume
_citation_page_first
_citation_page_last
_citation_journal_id_ASTM
primary 'Journal of Solid State Chemistry' 1979 30 257 263 JSSCBI
loop_
_publ_author_name
'Famery, R.'
'Queyroux, F.'
'Gilles, J.C.'
'Herpin, P.'
_cell_length_a 7.908(2)
_cell_length_b 7.908(2)
_cell_length_c 7.908(2)
_cell_angle_alpha 90.
_cell_angle_beta 90.
_cell_angle_gamma 90.
_cell_volume 494.54
_cell_formula_units_Z 4
_symmetry_space_group_name_H-M 'P 43 3 2'
_symmetry_Int_Tables_number 212
_refine_ls_R_factor_all 0.022
loop_
_symmetry_equiv_pos_site_id
_symmetry_equiv_pos_as_xyz
1 'z+1/4, y+3/4, -x+3/4'
2 '-z+3/4, y+1/4, x+3/4'
3 'y+1/4, x+3/4, -z+3/4'
4 '-y+3/4, x+1/4, z+3/4'
5 'x+1/4, z+3/4, -y+3/4'
6 '-x+3/4, z+1/4, y+3/4'
7 'z+3/4, -y+3/4, x+1/4'
8 '-z+1/4, -y+1/4, -x+1/4'
9 'y+3/4, -x+3/4, z+1/4'
10 '-y+1/4, -x+1/4, -z+1/4'
11 'x+3/4, -z+3/4, y+1/4'
12 '-x+1/4, -z+1/4, -y+1/4'
13 '-y+1/2, -z, x+1/2'
14 '-y, z+1/2, -x+1/2'
15 'y+1/2, -z+1/2, -x'
16 'y, z, x'
17 'z+1/2, -x+1/2, -y'
18 '-z+1/2, -x, y+1/2'
19 '-z, x+1/2, -y+1/2'
20 'z, x, y'
21 '-x+1/2, -y, z+1/2'
22 '-x, y+1/2, -z+1/2'
23 'x+1/2, -y+1/2, -z'
24 'x, y, z'
loop_
_atom_type_symbol
_atom_type_oxidation_number
O2- -2
Al3+ 3
Li1+ 1
Al3+ 3
Li1+ 1
loop_
_atom_site_label
_atom_site_type_symbol
_atom_site_symmetry_multiplicity
_atom_site_Wyckoff_symbol
_atom_site_fract_x
_atom_site_fract_y
_atom_site_fract_z
_atom_site_B_iso_or_equiv
_atom_site_occupancy
_atom_site_attached_hydrogens
O1 O2- 24 e 0.1146(1) 0.1329(1) 0.3847(1) . 1. 0
O2 O2- 8 c 0.3859(1) 0.3859 0.3859 . 1. 0
Al1 Al3+ 8 c -.0025(1) -.0025 -.0025 . 1. 0
Al2 Al3+ 4 b 0.625 0.625 0.625 . 0.042 0
Li1 Li1+ 4 b 0.625 0.625 0.625 . 0.957 0
Al3 Al3+ 12 d 0.3686(1) -.1186 0.125 . 0.986 0
Li2 Li1+ 12 d 0.3686(1) -.1186 0.125 . 0.013 0
loop_
_atom_site_aniso_label
_atom_site_aniso_type_symbol
_atom_site_aniso_beta_11
_atom_site_aniso_beta_22
_atom_site_aniso_beta_33
_atom_site_aniso_beta_12
_atom_site_aniso_beta_13
_atom_site_aniso_beta_23
O1 O2- 0.00126(5) 0.00217(6) 0.00134(5) -.00013(5) 0.00011(4) 0.00045(6)
O2 O2- 0.00122(4) 0.00122 0.00122 0.00006(5) 0.00006 0.00006
Al1 Al3+ 0.00095(1) 0.00095 0.00095 0.00000(1) 0 0
Al2 Al3+ 0.0007(1) 0.0007 0.0007 -.0001(1) -.0001 -.0001
Li1 Li1+ 0.0007(1) 0.0007 0.0007 -.0001(1) -.0001 -.0001
Al3 Al3+ 0.00092(7) 0.00117(4) 0.00117 -.00015(4) -.00015 0.00016(5)
Li2 Li1+ 0.00092(7) 0.00117(4) 0.00117 -.00015(4) -.00015 0.00016(5)
#End of TTdata_10480-ICSD