
#(C) 2018 by FIZ Karlsruhe - Leibniz Institute for Information Infrastructure.  All rights reserved.
data_108819-ICSD
_database_code_ICSD 108819
_audit_creation_date 2007-04-01
_audit_update_record 2009-02-01
_chemical_name_systematic 'Tetralithium molybdenum oxide'
_chemical_formula_structural 'Li4 W O5'
_chemical_formula_sum 'Li4 O5 W1'
_chemical_name_structure_type Li4TeO5
_exptl_crystal_density_diffrn 5.47
_publ_section_title
'Zwei neue Ordnungsvarianten des NaCl-Typs: Li4 Mo O5 und Li4 W O5'
loop_
_citation_id
_citation_journal_full
_citation_year
_citation_journal_volume
_citation_page_first
_citation_page_last
_citation_journal_id_ASTM
primary 'Zeitschrift fuer Anorganische und Allgemeine Chemie (1950) (DE)' 1989
573 157 169 ZAACAB
loop_
_publ_author_name
'Hoffmann, R.'
'Hoppe, R.'
_cell_length_a 5.109(1)
_cell_length_b 7.716(2)
_cell_length_c 5.061(1)
_cell_angle_alpha 101.80(1)
_cell_angle_beta 101.78(1)
_cell_angle_gamma 108.77(2)
_cell_volume 176.89
_cell_formula_units_Z 2
_symmetry_space_group_name_H-M 'P -1'
_symmetry_Int_Tables_number 2
_refine_ls_R_factor_all 0.041
loop_
_symmetry_equiv_pos_site_id
_symmetry_equiv_pos_as_xyz
1 '-x, -y, -z'
2 'x, y, z'
loop_
_atom_type_symbol
_atom_type_oxidation_number
W6+ 6
Li1+ 1
O2- -2
loop_
_atom_site_label
_atom_site_type_symbol
_atom_site_symmetry_multiplicity
_atom_site_Wyckoff_symbol
_atom_site_fract_x
_atom_site_fract_y
_atom_site_fract_z
_atom_site_B_iso_or_equiv
_atom_site_occupancy
_atom_site_attached_hydrogens
W1 W6+ 2 i 0.2188(2) 0.2180(1) 0.1088(1) . 1. 0
Li1 Li1+ 1 c 0 0.5 0 0.0136(18) 1. 0
Li2 Li1+ 1 b 0 0 0.5 0.0164(18) 1. 0
Li3 Li1+ 2 i 0.4127(17) 0.9080(15) 0.2254(17) 0.0148(17) 1. 0
Li4 Li1+ 2 i 0.5954(17) 0.6058(15) 0.2774(17) 0.0117(16) 1. 0
Li5 Li1+ 2 i 0.8102(17) 0.3020(15) 0.4259(17) 0.0176(17) 1. 0
O1 O2- 2 i 0.5647(12) 0.3330(8) 0.0502(11) . 1. 0
O2 O2- 2 i 0.8253(11) 0.0413(9) 0.1319(11) . 1. 0
O3 O2- 2 i 0.9912(11) 0.7501(9) 0.2202(11) . 1. 0
O4 O2- 2 i 0.1869(12) 0.4267(8) 0.3346(11) . 1. 0
O5 O2- 2 i 0.3896(12) 0.1533(8) 0.4269(11) . 1. 0
loop_
_atom_site_aniso_label
_atom_site_aniso_type_symbol
_atom_site_aniso_U_11
_atom_site_aniso_U_22
_atom_site_aniso_U_33
_atom_site_aniso_U_12
_atom_site_aniso_U_13
_atom_site_aniso_U_23
W1 W6+ 0.0074(3) 0.0025(3) 0.0041(3) 0.0004(2) -.0025(3) -.0017(2)
O1 O2- 0.0149(15) 0.0082(15) 0.0098(15) 0.0075(13) 0.0007(14) 0.0024(14)
O2 O2- 0.0126(15) 0.0116(16) 0.0081(15) 0.0075(13) -.0011(14) -.0030(14)
O3 O2- 0.0106(15) 0.0147(16) 0.0081(15) 0.0059(14) 0.0021(14) 0.0021(14)
O4 O2- 0.0165(16) 0.0066(15) 0.0070(15) 0.0060(13) -.0022(14) -.0022(14)
O5 O2- 0.0140(15) 0.0091(15) 0.0066(15) 0.0069(13) -.0017(14) 0.0004(14)
#End of TTdata_108819-ICSD