
#(C) 2018 by FIZ Karlsruhe - Leibniz Institute for Information Infrastructure.  All rights reserved.
data_110018-ICSD
_database_code_ICSD 110018
_audit_creation_date 2008-02-01
_chemical_name_systematic 'Lithium trifluoromethanesulfonate'
_chemical_formula_structural 'Li (F3 C S O3)'
_chemical_formula_sum 'C1 F3 Li1 O3 S1'
_chemical_name_structure_type LiCF3SO3
_exptl_crystal_density_diffrn 2.14
_cell_measurement_temperature 173.
_publ_section_title 'Lithium trifluoromethanesulfonate'
loop_
_citation_id
_citation_journal_full
_citation_year
_citation_journal_volume
_citation_page_first
_citation_page_last
_citation_journal_id_ASTM
primary 'Acta Crystallographica, Section E: Structure Reports Online' 2001 57
m231 m232 ACSEBH
loop_
_publ_author_name
'Bolte, M.'
'Lerner, H.W.'
_cell_length_a 10.0994(6)
_cell_length_b 5.0410(2)
_cell_length_c 9.5320(6)
_cell_angle_alpha 90.
_cell_angle_beta 90.370(5)
_cell_angle_gamma 90.
_cell_volume 485.27
_cell_formula_units_Z 4
_symmetry_space_group_name_H-M 'P 1 21/c 1'
_symmetry_Int_Tables_number 14
_refine_ls_R_factor_all 0.0398
loop_
_symmetry_equiv_pos_site_id
_symmetry_equiv_pos_as_xyz
1 'x, -y+1/2, z+1/2'
2 '-x, -y, -z'
3 '-x, y+1/2, -z+1/2'
4 'x, y, z'
loop_
_atom_type_symbol
_atom_type_oxidation_number
S6+ 6
C2+ 2
Li1+ 1
F1- -1
O2- -2
loop_
_atom_site_label
_atom_site_type_symbol
_atom_site_symmetry_multiplicity
_atom_site_Wyckoff_symbol
_atom_site_fract_x
_atom_site_fract_y
_atom_site_fract_z
_atom_site_B_iso_or_equiv
_atom_site_occupancy
_atom_site_attached_hydrogens
S1 S6+ 4 e .82387(4) .39249(8) .09187(4) .01597(15) 1 0
C1 C2+ 4 e .66103(17) .2386(4) .1016(2) .0247(4) 1 0
Li1 Li1+ 4 e 1.1010(3) .1123(6) .0906(3) .0212(6) 1 0
F1 F1- 4 e .57236(12) .4162(3) .13686(15) .0466(4) 1 0
F2 F1- 4 e .62774(11) .1362(3) -.02208(13) .0376(3) 1 0
F3 F1- 4 e .66341(12) .0468(3) .19553(13) .0404(4) 1 0
O1 O2- 4 e .85216(14) .4918(3) .22993(14) .0306(3) 1 0
O2 O2- 4 e .90882(11) .1728(3) .05312(13) .0208(3) 1 0
O3 O2- 4 e .80845(13) .5895(3) -.01570(14) .0252(3) 1 0
#End of TTdata_110018-ICSD