
#(C) 2017 by FIZ Karlsruhe - Leibniz Institute for Information Infrastructure.  All rights reserved.
data_150335-ICSD
_database_code_ICSD 150335
_audit_creation_date 2006-04-01
_chemical_name_systematic 'Lithium strontium hexafluoroaluminate'
_chemical_formula_structural 'Li Sr (Al F6)'
_chemical_formula_sum 'Al1 F6 Li1 Sr1'
_chemical_name_structure_type CaLiAlF6
_exptl_crystal_density_diffrn 3.43
_cell_measurement_temperature 120.
_publ_section_title

;
Structures of Li Ca Al F6 and Li Sr Al F6 at 120 and 300 K by synchrotron
X-ray single-crystal diffraction
;
loop_
_citation_id
_citation_journal_full
_citation_year
_citation_journal_volume
_citation_page_first
_citation_page_last
_citation_journal_id_ASTM
primary 'Journal of Solid State Chemistry' 2004 177 3505 3513 JSSCBI
loop_
_publ_author_name
'Kuze, S.'
'du Boulay, D.'
'Ishizawa, N.'
'Kodama, N.'
'Yamaga, M.'
'Henderson, B.'
_cell_length_a 5.0692(1)
_cell_length_b 5.0692(1)
_cell_length_c 10.2354(8)
_cell_angle_alpha 90.
_cell_angle_beta 90.
_cell_angle_gamma 120.
_cell_volume 227.78
_cell_formula_units_Z 2
_symmetry_space_group_name_H-M 'P -3 1 c'
_symmetry_Int_Tables_number 163
_refine_ls_R_factor_all 0.0354
loop_
_symmetry_equiv_pos_site_id
_symmetry_equiv_pos_as_xyz
1 '-x+y, y, -z+1/2'
2 'x, x-y, -z+1/2'
3 '-y, -x, -z+1/2'
4 'x-y, x, -z'
5 'y, -x+y, -z'
6 '-x, -y, -z'
7 'x-y, -y, z+1/2'
8 '-x, -x+y, z+1/2'
9 'y, x, z+1/2'
10 '-x+y, -x, z'
11 '-y, x-y, z'
12 'x, y, z'
loop_
_atom_type_symbol
_atom_type_oxidation_number
Li1+ 1
Sr2+ 2
Al3+ 3
F1- -1
loop_
_atom_site_label
_atom_site_type_symbol
_atom_site_symmetry_multiplicity
_atom_site_Wyckoff_symbol
_atom_site_fract_x
_atom_site_fract_y
_atom_site_fract_z
_atom_site_B_iso_or_equiv
_atom_site_occupancy
_atom_site_attached_hydrogens
Li1 Li1+ 2 c 0.3333 0.6667 0.25 0.011(2) 1. 0
Sr1 Sr2+ 2 b 0 0 0 0.00556(8) 1. 0
Al1 Al3+ 2 d 0.6667 0.3333 0.25 0.0049(3) 1. 0
F1 F1- 12 i 0.3868(2) 0.0305(2) 0.14874(6) 0.0090(3) 1. 0
loop_
_atom_site_aniso_label
_atom_site_aniso_type_symbol
_atom_site_aniso_U_11
_atom_site_aniso_U_22
_atom_site_aniso_U_33
_atom_site_aniso_U_12
_atom_site_aniso_U_13
_atom_site_aniso_U_23
Li1 Li1+ 0.0098(16) 0.0098(16) 0.014(2) 0.0049(8) 0. 0.
Sr1 Sr2+ 0.00566(6) 0.00566(6) 0.00534(7) 0.00283(3) 0. 0.
Al1 Al3+ 0.00412(16) 0.00412(16) 0.0065(2) 0.00206(8) 0. 0.
F1 F1- 0.0084(2) 0.0067(3) 0.0103(2) 0.0026(2) -0.0037(2) -0.0005(2)
#End of TTdata_150335-ICSD