
#(C) 2018 by FIZ Karlsruhe - Leibniz Institute for Information Infrastructure.  All rights reserved.
data_150330-ICSD
_database_code_ICSD 150330
_audit_creation_date 2006-04-01
_chemical_name_systematic
'Barium niobium lithium tungsten oxide (1/0.5/0.3/0.2/3)'
_chemical_formula_structural 'Ba (Nb0.5 Li0.3 W0.2) O3'
_chemical_formula_sum 'Ba1 Li0.3 Nb0.5 O3 W0.2'
_chemical_name_structure_type Ba3SrTa2O9
_exptl_crystal_density_diffrn 6.51
_publ_section_title

;
Non-stoichiometric 1:2 ordered perovskites in the Ba (Li1/4 Nb3/4) O3 - Ba
(Li2/5 W3/5) O3 system
;
loop_
_citation_id
_citation_journal_full
_citation_year
_citation_journal_volume
_citation_page_first
_citation_page_last
_citation_journal_id_ASTM
primary 'Journal of Solid State Chemistry' 2004 177 3469 3478 JSSCBI
loop_
_publ_author_name
'Wu Hui'
'Davies, P.K.'
_cell_length_a 5.7910(1)
_cell_length_b 5.7910(1)
_cell_length_c 7.1267(1)
_cell_angle_alpha 90.
_cell_angle_beta 90.
_cell_angle_gamma 120.
_cell_volume 206.98
_cell_formula_units_Z 3
_symmetry_space_group_name_H-M 'P -3 m 1'
_symmetry_Int_Tables_number 164
_refine_ls_R_factor_all 0.0402
loop_
_symmetry_equiv_pos_site_id
_symmetry_equiv_pos_as_xyz
1 'x-y, -y, -z'
2 '-x, -x+y, -z'
3 'y, x, -z'
4 'x-y, x, -z'
5 'y, -x+y, -z'
6 '-x, -y, -z'
7 '-x+y, y, z'
8 'x, x-y, z'
9 '-y, -x, z'
10 '-x+y, -x, z'
11 '-y, x-y, z'
12 'x, y, z'
loop_
_atom_type_symbol
_atom_type_oxidation_number
Ba2+ 2
Li1+ 1
Nb5+ 5
W6+ 6
Li1+ 1
O2- -2
loop_
_atom_site_label
_atom_site_type_symbol
_atom_site_symmetry_multiplicity
_atom_site_Wyckoff_symbol
_atom_site_fract_x
_atom_site_fract_y
_atom_site_fract_z
_atom_site_B_iso_or_equiv
_atom_site_occupancy
_atom_site_attached_hydrogens
Ba1 Ba2+ 1 a 0 0 0 0.0102(5) 1. 0
Ba2 Ba2+ 2 d 0.3333 0.6667 0.6633(3) 0.0084(3) 1. 0
Li1 Li1+ 1 b 0 0 0.5 0.0142(5) 0.759(5) 0
Nb1 Nb5+ 1 b 0 0 0.5 0.0142(5) 0.241(5) 0
Nb2 Nb5+ 2 d 0.3333 0.6667 0.1748(3) 0.0039(2) 0.630(2) 0
W1 W6+ 2 d 0.3333 0.6667 0.1748(3) 0.0039(2) 0.3 0
Li2 Li1+ 2 d 0.3333 0.6667 0.1748(3) 0.0039(2) 0.070(2) 0
O1 O2- 6 i 0.1729(5) 0.3458(9) 0.3217(2) 0.0129(2) 1. 0
O2 O2- 3 e 0.5 0 0 0.0129(3) 1. 0
#End of TTdata_150330-ICSD