
#(C) 2018 by FIZ Karlsruhe - Leibniz Institute for Information Infrastructure.  All rights reserved.
data_150856-ICSD
_database_code_ICSD 150856
_audit_creation_date 2006-04-01
_audit_update_record 2008-08-01
_chemical_name_systematic
'Tetrarubidium lithium tris(hydrogensulfate(VI)) sulfate(VI) - RT'
_chemical_formula_structural 'Rb4 Li (H S O4)3 (S O4)'
_chemical_formula_sum 'H3 Li1 O16 Rb4 S4'
_exptl_crystal_density_diffrn 2.85
_publ_section_title

;
Phase transitions in A4 Li (H S O4)3 (S O4); A= Rb, K: single crystal X-ray
diffraction data
;
loop_
_citation_id
_citation_journal_full
_citation_year
_citation_journal_volume
_citation_page_first
_citation_page_last
_citation_journal_id_ASTM
primary 'Proceedings of the Indian Academy of Sciences, Serie: Chem. Sci.' 2003
115 473 490 PIAADM
loop_
_publ_author_name
'Nalini, G.'
'Guru Row, T.N.'
_cell_length_a 7.629(1)
_cell_length_b 7.629(1)
_cell_length_c 29.497(2)
_cell_angle_alpha 90.
_cell_angle_beta 90.
_cell_angle_gamma 90.
_cell_volume 1716.77
_cell_formula_units_Z 4
_symmetry_space_group_name_H-M 'P 43'
_symmetry_Int_Tables_number 78
_refine_ls_R_factor_all 0.043
loop_
_symmetry_equiv_pos_site_id
_symmetry_equiv_pos_as_xyz
1 'y, -x, z+1/4'
2 '-y, x, z+3/4'
3 '-x, -y, z+1/2'
4 'x, y, z'
loop_
_atom_type_symbol
_atom_type_oxidation_number
Rb1+ 1
S6+ 6
O2- -2
Li1+ 1
H1+ 1
loop_
_atom_site_label
_atom_site_type_symbol
_atom_site_symmetry_multiplicity
_atom_site_Wyckoff_symbol
_atom_site_fract_x
_atom_site_fract_y
_atom_site_fract_z
_atom_site_B_iso_or_equiv
_atom_site_occupancy
_atom_site_attached_hydrogens
Rb1 Rb1+ 4 a 0.8854(1) 0.9356(1) 0.2253(1) 0.0276(2) 1. 0
Rb2 Rb1+ 4 a 0.7727(1) 0.5189(1) 0.1197(1) 0.0279(2) 1. 0
Rb3 Rb1+ 4 a 0.3801(1) 0.6350(1) 0.2382(1) 0.0301(2) 1. 0
Rb4 Rb1+ 4 a 0.4709(1) 0.0251(1) 0.1099(1) 0.0290(2) 1. 0
S1 S6+ 4 a 0.4097(2) 0.1229(3) 0.2372(1) 0.0209(4) 1. 0
S2 S6+ 4 a 0.8751(2) 0.4619(2) 0.2387(1) 0.0194(2) 1. 0
S3 S6+ 4 a 0.3029(2) 0.5377(2) 0.1102(1) 0.0209(4) 1. 0
S4 S6+ 4 a 0.9637(2) 0.0045(2) 0.1067(1) 0.0196(4) 1. 0
O1 O2- 4 a 0.3434(8) 0.2547(8) 0.2063(2) 0.0318(15) 1. 0
O2 O2- 4 a 0.2548(8) 0.0265(8) 0.2509(2) 0.0348(14) 1. 0
O3 O2- 4 a 0.5093(9) 0.2071(10) 0.2734(2) 0.0488(20) 1. 0
O4 O2- 4 a 0.5111(9) 0.9930(9) 0.2131(3) 0.0436(17) 1. 0
O5 O2- 4 a 0.0233(8) 0.5593(8) 0.2561(2) 0.0356(15) 1. 0
O6 O2- 4 a 0.7437(8) 0.5726(8) 0.2179(2) 0.0307(13) 1. 0
O7 O2- 4 a 0.7899(8) 0.3780(8) 0.2813(2) 0.0339(15) 1. 0
O8 O2- 4 a 0.9232(7) 0.3179(7) 0.2085(2) 0.0327(13) 1. 0
O9 O2- 4 a 0.8330(9) 0.8934(8) 0.1279(2) 0.0366(14) 1. 0
O10 O2- 4 a 0.0868(7) 0.0721(8) 0.1408(2) 0.0323(13) 1. 0
O11 O2- 4 a 0.0686(9) 0.9142(9) 0.0709(2) 0.0441(18) 1. 0
O12 O2- 4 a 0.8693(8) 0.1574(8) 0.0850(2) 0.0329(14) 1. 0
O13 O2- 4 a 0.1556(8) 0.4886(8) 0.1373(2) 0.0381(15) 1. 0
O14 O2- 4 a 0.4023(8) 0.3930(8) 0.0925(2) 0.0364(15) 1. 0
O15 O2- 4 a 0.2313(8) 0.6263(8) 0.0669(1) 0.0393(16) 1. 0
O16 O2- 4 a 0.4115(10) 0.6649(8) 0.1330(8) 0.0329(14) 1. 0
Li1 Li1+ 4 a 0.1285(15) 0.2769(16) 0.1728(5) 0.0264(23) 1. 0
H1 H1+ 4 a 0.2288 0.0782 0.2884 0.05 1. 0
H2 H1+ 4 a 0.6832 0.3166 0.2726 0.05 1. 0
H3 H1+ 4 a 0.1516 0.7205 0.0748 0.05 1. 0
#End of TTdata_150856-ICSD