
#(C) 2018 by FIZ Karlsruhe - Leibniz Institute for Information Infrastructure.  All rights reserved.
data_15111-ICSD
_database_code_ICSD 15111
_audit_creation_date 1980-01-01
_audit_update_record 1988-01-18
_chemical_name_systematic 'Lithium europium oxide (1/3/4)'
_chemical_formula_structural 'Li Eu3 O4'
_chemical_formula_sum 'Eu3 Li1 O4'
_exptl_crystal_density_diffrn 7.54
_publ_section_title 'Die Kristallstruktur von Li Eu3 O4'
loop_
_citation_id
_citation_journal_full
_citation_year
_citation_journal_volume
_citation_page_first
_citation_page_last
_citation_journal_id_ASTM
primary 'Zeitschrift fuer Anorganische und Allgemeine Chemie (1950) (DE)' 1970
374 201 224 ZAACAB
loop_
_publ_author_name
'Baernighausen, H.'
_cell_length_a 11.565(2)
_cell_length_b 11.535(2)
_cell_length_c 3.480(1)
_cell_angle_alpha 90.
_cell_angle_beta 90.
_cell_angle_gamma 90.
_cell_volume 464.24
_cell_formula_units_Z 4
_symmetry_space_group_name_H-M 'P b n m'
_symmetry_Int_Tables_number 62
_refine_ls_R_factor_all 0.043
loop_
_symmetry_equiv_pos_site_id
_symmetry_equiv_pos_as_xyz
1 '-x+1/2, y+1/2, z'
2 'x, y, -z+1/2'
3 'x+1/2, -y+1/2, z+1/2'
4 '-x, -y, -z'
5 'x+1/2, -y+1/2, -z'
6 '-x, -y, z+1/2'
7 '-x+1/2, y+1/2, -z+1/2'
8 'x, y, z'
loop_
_atom_type_symbol
_atom_type_oxidation_number
Eu3+ 3
Eu2+ 2
Li1+ 1
O2- -2
loop_
_atom_site_label
_atom_site_type_symbol
_atom_site_symmetry_multiplicity
_atom_site_Wyckoff_symbol
_atom_site_fract_x
_atom_site_fract_y
_atom_site_fract_z
_atom_site_B_iso_or_equiv
_atom_site_occupancy
_atom_site_attached_hydrogens
Eu1 Eu3+ 4 c 0.20426(4) 0.35862(4) 0.25 . 1. 0
Eu2 Eu2+ 4 c 0.61529(5) 0.40230(4) 0.25 . 1. 0
Eu3 Eu2+ 4 c 0.42543(4) 0.13562(4) 0.25 . 1. 0
Li1 Li1+ 4 c 0.9108(19) 0.1555(19) 0.25 0.55 1. 0
O1 O2- 4 c 0.0450(6) 0.2441(6) 0.25 0.31 1. 0
O2 O2- 4 c 0.3894(7) 0.4369(6) 0.25 0.39 1. 0
O3 O2- 4 c 0.6297(8) 0.0263(8) 0.25 0.89 1. 0
O4 O2- 4 c 0.7808(7) 0.2575(7) 0.25 0.51 1. 0
loop_
_atom_site_aniso_label
_atom_site_aniso_type_symbol
_atom_site_aniso_beta_11
_atom_site_aniso_beta_22
_atom_site_aniso_beta_33
_atom_site_aniso_beta_12
_atom_site_aniso_beta_13
_atom_site_aniso_beta_23
Eu1 Eu3+ 0.000410(17) 0.000485(17) 0.0069(12) -.000023(16) 0 0
Eu2 Eu2+ 0.000947(20) 0.000646(18) 0.0085(11) 0.000111(18) 0 0
Eu3 Eu2+ 0.000746(19) 0.000794(20) 0.0090(12) -.000028(18) 0 0
#End of TTdata_15111-ICSD