
#(C) 2018 by FIZ Karlsruhe - Leibniz Institute for Information Infrastructure.  All rights reserved.
data_151623-ICSD
_database_code_ICSD 151623
_audit_creation_date 2006-10-01
_chemical_name_systematic 'Potassium lithium sulfate(VI) - II'
_chemical_formula_structural 'K Li (S O4)'
_chemical_formula_sum 'K1 Li1 O4 S1'
_chemical_name_structure_type CsLiSO4
_exptl_crystal_density_diffrn 2.28
_cell_measurement_temperature 793.
_publ_section_title

;
High-temperature structure analysis of K Li S O4 by neutron powder diffraction
;
loop_
_citation_id
_citation_journal_full
_citation_year
_citation_journal_volume
_citation_page_first
_citation_page_last
_citation_journal_id_ASTM
primary 'Physica B, Condensed Matter' 2004 348 34 41 PHYBE3
loop_
_publ_author_name
'Lyoo Soo Hyun'
'Park Hyun Min'
'Chung Sujin'
_cell_length_a 5.2235(2)
_cell_length_b 9.1397(6)
_cell_length_c 8.6772(4)
_cell_angle_alpha 90.
_cell_angle_beta 90.
_cell_angle_gamma 90.
_cell_volume 414.26
_cell_formula_units_Z 4
_symmetry_space_group_name_H-M 'P m c n'
_symmetry_Int_Tables_number 62
_refine_ls_R_factor_all 0.0266
loop_
_symmetry_equiv_pos_site_id
_symmetry_equiv_pos_as_xyz
1 'x, -y+1/2, z+1/2'
2 '-x+1/2, y, z'
3 'x+1/2, y+1/2, -z+1/2'
4 '-x, -y, -z'
5 '-x, y+1/2, -z+1/2'
6 'x+1/2, -y, -z'
7 '-x+1/2, -y+1/2, z+1/2'
8 'x, y, z'
loop_
_atom_type_symbol
_atom_type_oxidation_number
K1+ 1
Li1+ 1
S6+ 6
O2- -2
loop_
_atom_site_label
_atom_site_type_symbol
_atom_site_symmetry_multiplicity
_atom_site_Wyckoff_symbol
_atom_site_fract_x
_atom_site_fract_y
_atom_site_fract_z
_atom_site_B_iso_or_equiv
_atom_site_occupancy
_atom_site_attached_hydrogens
K1 K1+ 4 c 0.25 0.203(1) 0.016(2) 10.9(3) 1. 0
Li1 Li1+ 4 c 0.25 -0.084(2) -0.661(3) 14.9(8) 1. 0
S1 S6+ 4 c 0.75 0.419(3) 0.780(2) 13.1(8) 1. 0
O1 O2- 8 d 0.681(7) 0.420(3) 0.943(2) 22.3(8) 0.5 0
O2 O2- 8 d 0.019(3) 0.440(3) 0.764(3) 12.1(4) 0.5 0
O3 O2- 8 d 0.592(4) 0.500(3) 0.702(3) 23.1(4) 0.5 0
O4 O2- 8 d 0.673(8) 0.275(2) 0.734(3) 17.5(7) 0.5 0
#End of TTdata_151623-ICSD