
#(C) 2018 by FIZ Karlsruhe - Leibniz Institute for Information Infrastructure.  All rights reserved.
data_151626-ICSD
_database_code_ICSD 151626
_audit_creation_date 2006-10-01
_audit_update_record 2008-08-01
_chemical_name_systematic 'Potassium lithium sulfate(VI) - I'
_chemical_formula_structural 'K Li (S O4)'
_chemical_formula_sum 'K1 Li1 O4 S1'
_exptl_crystal_density_diffrn 2.21
_cell_measurement_temperature 963.
_publ_section_title

;
High-temperature structure analysis of K Li S O4 by neutron powder diffraction
;
loop_
_citation_id
_citation_journal_full
_citation_year
_citation_journal_volume
_citation_page_first
_citation_page_last
_citation_journal_id_ASTM
primary 'Physica B, Condensed Matter' 2004 348 34 41 PHYBE3
loop_
_publ_author_name
'Lyoo Soo Hyun'
'Park Hyun Min'
'Chung Sujin'
_cell_length_a 5.2927(2)
_cell_length_b 5.2927(2)
_cell_length_c 8.7896(7)
_cell_angle_alpha 90.
_cell_angle_beta 90.
_cell_angle_gamma 120.
_cell_volume 213.23
_cell_formula_units_Z 2
_symmetry_space_group_name_H-M 'P 63/m m c'
_symmetry_Int_Tables_number 194
_refine_ls_R_factor_all 0.0315
loop_
_symmetry_equiv_pos_site_id
_symmetry_equiv_pos_as_xyz
1 'x, x-y, -z+1/2'
2 '-x+y, y, -z+1/2'
3 '-y, -x, -z+1/2'
4 '-x+y, -x, -z+1/2'
5 '-y, x-y, -z+1/2'
6 'x, y, -z+1/2'
7 '-x, -x+y, z+1/2'
8 'x-y, -y, z+1/2'
9 'y, x, z+1/2'
10 'x-y, x, z+1/2'
11 'y, -x+y, z+1/2'
12 '-x, -y, z+1/2'
13 '-x, -x+y, -z'
14 'x-y, -y, -z'
15 'y, x, -z'
16 'x-y, x, -z'
17 'y, -x+y, -z'
18 '-x, -y, -z'
19 'x, x-y, z'
20 '-x+y, y, z'
21 '-y, -x, z'
22 '-x+y, -x, z'
23 '-y, x-y, z'
24 'x, y, z'
loop_
_atom_type_symbol
_atom_type_oxidation_number
K1+ 1
Li1+ 1
S6+ 6
O2- -2
loop_
_atom_site_label
_atom_site_type_symbol
_atom_site_symmetry_multiplicity
_atom_site_Wyckoff_symbol
_atom_site_fract_x
_atom_site_fract_y
_atom_site_fract_z
_atom_site_B_iso_or_equiv
_atom_site_occupancy
_atom_site_attached_hydrogens
K1 K1+ 2 a 0 0 0 14.0(7) 1. 0
Li1 Li1+ 4 f 0.3333 0.6667 0.825(14) 19.4(10) 0.5 0
S1 S6+ 4 f 0.3333 0.6667 0.202(4) 2.5(5) 0.5 0
O1 O2- 12 k 0.409(5) 0.818(9) 0.063(3) 13.9(13) 0.167 0
O2 O2- 24 l 0.068(4) 0.457(5) 0.264(9) 16.4(5) 0.25 0
#End of TTdata_151626-ICSD