
#(C) 2018 by FIZ Karlsruhe - Leibniz Institute for Information Infrastructure.  All rights reserved.
data_152068-ICSD
_database_code_ICSD 152068
_audit_creation_date 2006-10-01
_chemical_name_systematic 'Lithium gallium catena-disilicate - RT'
_chemical_formula_structural 'Li Ga (Si2 O6)'
_chemical_formula_sum 'Ga1 Li1 O6 Si2'
_chemical_name_structure_type Pyroxene-CaMg(SiO3)2
_chemical_name_mineral Clinopyroxene
_exptl_crystal_density_diffrn 3.73
_cell_measurement_temperature 290.
_publ_section_title

;
Structural changes upon the temperature dependent C2/c - P21/c phase
transition in Li Me(3+) Si2 O6 clinopyroxenes, Me = Cr, Ga, Fe, V, Sc and In
;
loop_
_citation_id
_citation_journal_full
_citation_year
_citation_journal_volume
_citation_page_first
_citation_page_last
_citation_journal_id_ASTM
primary 'Zeitschrift fuer Kristallographie (1979-2010)' 2004 219 585 605 ZEKRDZ
loop_
_publ_author_name
'Redhammer, G.J.'
'Roth, G.'
_cell_length_a 9.589(3)
_cell_length_b 8.584(2)
_cell_length_c 5.282(2)
_cell_angle_alpha 90.
_cell_angle_beta 110.21(4)
_cell_angle_gamma 90.
_cell_volume 408.
_cell_formula_units_Z 4
_symmetry_space_group_name_H-M 'C 1 2/c 1'
_symmetry_Int_Tables_number 15
_refine_ls_R_factor_all 0.0194
loop_
_symmetry_equiv_pos_site_id
_symmetry_equiv_pos_as_xyz
1 'x, -y, z+1/2'
2 '-x, -y, -z'
3 '-x, y, -z+1/2'
4 'x, y, z'
5 'x+1/2, -y+1/2, z+1/2'
6 '-x+1/2, -y+1/2, -z'
7 '-x+1/2, y+1/2, -z+1/2'
8 'x+1/2, y+1/2, z'
loop_
_atom_type_symbol
_atom_type_oxidation_number
Li1+ 1
Ga3+ 3
Si4+ 4
O2- -2
loop_
_atom_site_label
_atom_site_type_symbol
_atom_site_symmetry_multiplicity
_atom_site_Wyckoff_symbol
_atom_site_fract_x
_atom_site_fract_y
_atom_site_fract_z
_atom_site_B_iso_or_equiv
_atom_site_occupancy
_atom_site_attached_hydrogens
Li1 Li1+ 4 e 0 0.2647(9) 0.25 0.013(2) 1. 0
Ga1 Ga3+ 4 e 0 0.9016(1) 0.25 0.0019(1) 1. 0
Si1 Si4+ 8 f 0.2965(1) 0.0912(1) 0.2608(1) 0.0017(2) 1. 0
O1 O2- 8 f 0.1134(2) 0.0838(2) 0.1439(3) 0.0034(4) 1. 0
O2 O2- 8 f 0.3654(2) 0.2621(2) 0.3240(4) 0.0061(4) 1. 0
O3 O2- 8 f 0.3568(2) -0.0004(2) 0.0500(3) 0.0068(4) 1. 0
#End of TTdata_152068-ICSD