
#(C) 2018 by FIZ Karlsruhe - Leibniz Institute for Information Infrastructure.  All rights reserved.
data_152282-ICSD
_database_code_ICSD 152282
_audit_creation_date 2006-10-01
_chemical_name_systematic 'Lithium ytterbium bis(molybdate(VI))'
_chemical_formula_structural 'Li Yb (Mo O4)2'
_chemical_formula_sum 'Li1 Mo2 O8 Yb1'
_chemical_name_structure_type AgBi(CrO4)2
_exptl_crystal_density_diffrn 5.7
_cell_measurement_temperature 296.
_publ_section_title

;
Growth, structure and evaluation of laser properties of Li Yb (Mo O4)2 single
crystal
;
loop_
_citation_id
_citation_journal_full
_citation_year
_citation_journal_volume
_citation_page_first
_citation_page_last
_citation_journal_id_ASTM
primary 'Chemistry of Materials' 2005 17 291 300 CMATEX
loop_
_publ_author_name
'Volkov, V.'
'Cascales, C.'
'Kling, A.'
'Zaldo, C.'
_cell_length_a 5.1191(9)
_cell_length_b 5.1191(9)
_cell_length_c 11.109(3)
_cell_angle_alpha 90.
_cell_angle_beta 90.
_cell_angle_gamma 90.
_cell_volume 291.11
_cell_formula_units_Z 2
_symmetry_space_group_name_H-M 'I -4'
_symmetry_Int_Tables_number 82
_refine_ls_R_factor_all 0.0414
loop_
_symmetry_equiv_pos_site_id
_symmetry_equiv_pos_as_xyz
1 '-y, x, -z'
2 'y, -x, -z'
3 '-x, -y, z'
4 'x, y, z'
5 '-y+1/2, x+1/2, -z+1/2'
6 'y+1/2, -x+1/2, -z+1/2'
7 '-x+1/2, -y+1/2, z+1/2'
8 'x+1/2, y+1/2, z+1/2'
loop_
_atom_type_symbol
_atom_type_oxidation_number
Yb3+ 3
Li1+ 1
Yb3+ 3
Li1+ 1
Mo6+ 6
O2- -2
loop_
_atom_site_label
_atom_site_type_symbol
_atom_site_symmetry_multiplicity
_atom_site_Wyckoff_symbol
_atom_site_fract_x
_atom_site_fract_y
_atom_site_fract_z
_atom_site_B_iso_or_equiv
_atom_site_occupancy
_atom_site_attached_hydrogens
Yb1 Yb3+ 2 d 0.5 0 0.25 0.007(1) 0.505(6) 0
Li1 Li1+ 2 d 0.5 0 0.25 0.007(1) 0.495(6) 0
Yb2 Yb3+ 2 b 0.5 0.5 0 0.005(1) 0.512(6) 0
Li2 Li1+ 2 b 0.5 0.5 0 0.005(1) 0.488(6) 0
Mo1 Mo6+ 2 a 0 0 0 0.004(1) 1. 0
Mo2 Mo6+ 2 c 0 0.5 0.25 0.008(1) 1. 0
O1 O2- 8 g 0.2456(26) -0.1493(29) 0.0868(14) 0.014(3) 1. 0
O2 O2- 8 g 0.2480(28) -0.6614(31) 0.1660(13) 0.015(3) 1. 0
loop_
_atom_site_aniso_label
_atom_site_aniso_type_symbol
_atom_site_aniso_U_11
_atom_site_aniso_U_22
_atom_site_aniso_U_33
_atom_site_aniso_U_12
_atom_site_aniso_U_13
_atom_site_aniso_U_23
Yb1 Yb3+ 0.007(1) 0.007(1) 0.008(2) 0. 0. 0.
Li1 Li1+ 0.007(1) 0.007(1) 0.008(2) 0. 0. 0.
Yb2 Yb3+ 0.005(1) 0.005(1) 0.005(2) 0. 0. 0.
Li2 Li1+ 0.005(1) 0.005(1) 0.005(2) 0. 0. 0.
Mo1 Mo6+ 0.004(1) 0.004(1) 0.006(1) 0. 0. 0.
Mo2 Mo6+ 0.007(1) 0.007(1) 0.009(2) 0. 0. 0.
O1 O2- 0.011(8) 0.009(7) 0.022(7) -0.002(5) 0.006(6) -0.007(7)
O2 O2- 0.027(9) 0.013(7) 0.006(6) 0.007(6) 0.007(6) -0.005(7)
#End of TTdata_152282-ICSD