
#(C) 2018 by FIZ Karlsruhe - Leibniz Institute for Information Infrastructure.  All rights reserved.
data_152568-ICSD
_database_code_ICSD 152568
_audit_creation_date 2006-10-01
_chemical_name_systematic 'Dilithium barium hexatitanate'
_chemical_formula_structural 'Li2 Ba (Ti6 O14)'
_chemical_formula_sum 'Ba1 Li2 O14 Ti6'
_chemical_name_structure_type Li2Sr(Ti6O14)
_exptl_crystal_density_diffrn 4.07
_publ_section_title
'A new family od isostructural titanates, M Li2 Ti6 O14 (M = Sr, Ba, Pb)'
loop_
_citation_id
_citation_journal_full
_citation_year
_citation_journal_volume
_citation_page_first
_citation_page_last
_citation_journal_id_ASTM
primary 'Journal of Alloys and Compounds' 2005 389 47 54 JALCEU
loop_
_publ_author_name
'Koseva, I.'
'Chaminade, J.P.'
'Gravereau, P.'
'Pechev, S.'
'Peshev, P.'
'Etourneau, J.'
_cell_length_a 16.577(1)
_cell_length_b 11.273(1)
_cell_length_c 11.581(1)
_cell_angle_alpha 90.
_cell_angle_beta 90.
_cell_angle_gamma 90.
_cell_volume 2164.17
_cell_formula_units_Z 8
_symmetry_space_group_name_H-M 'C m c a'
_symmetry_Int_Tables_number 64
_refine_ls_R_factor_all 0.018
loop_
_symmetry_equiv_pos_site_id
_symmetry_equiv_pos_as_xyz
1 '-x, -y+1/2, z+1/2'
2 '-x, y+1/2, -z+1/2'
3 '-x, y, z'
4 '-x, -y, -z'
5 'x, y+1/2, -z+1/2'
6 'x, -y+1/2, z+1/2'
7 'x, -y, -z'
8 'x, y, z'
9 '-x+1/2, -y, z+1/2'
10 '-x+1/2, y, -z+1/2'
11 '-x+1/2, y+1/2, z'
12 '-x+1/2, -y+1/2, -z'
13 'x+1/2, y, -z+1/2'
14 'x+1/2, -y, z+1/2'
15 'x+1/2, -y+1/2, -z'
16 'x+1/2, y+1/2, z'
loop_
_atom_type_symbol
_atom_type_oxidation_number
Li1+ 1
Ba2+ 2
Ti4+ 4
O2- -2
loop_
_atom_site_label
_atom_site_type_symbol
_atom_site_symmetry_multiplicity
_atom_site_Wyckoff_symbol
_atom_site_fract_x
_atom_site_fract_y
_atom_site_fract_z
_atom_site_B_iso_or_equiv
_atom_site_occupancy
_atom_site_attached_hydrogens
Li1 Li1+ 16 g 0.1890(3) 0.2442(4) 0.1215(3) 0.0156(8) 1. 0
Ba1 Ba2+ 8 f 0 0.35381(1) 0.12144(1) 0.00764(6) 1. 0
Ti1 Ti4+ 8 e 0.25 0.49326(4) 0.25 0.0060(1) 1. 0
Ti2 Ti4+ 8 d 0.23939(3) 0.5 0 0.0056(1) 1. 0
Ti3 Ti4+ 16 g 0.11051(2) 0.12868(3) 0.35928(3) 0.0059(1) 1. 0
Ti4 Ti4+ 16 g 0.10907(2) 0.38398(3) 0.38537(3) 0.0057(1) 1. 0
O1 O2- 16 g 0.2381(1) 0.3849(2) 0.3777(1) 0.0061(3) 1. 0
O2 O2- 16 g 0.1321(1) 0.4976(1) 0.2510(2) 0.0068(3) 1. 0
O3 O2- 16 g 0.2344(1) 0.1130(2) 0.3723(1) 0.0059(3) 1. 0
O4 O2- 8 d 0.1282(1) 0 0.5 0.0074(4) 1. 0
O5 O2- 8 d 0.1342(1) 0 0 0.0075(4) 1. 0
O6 O2- 16 g 0.1133(1) 0.2542(1) 0.2611(2) 0.0072(3) 1. 0
O7 O2- 8 f 0 0.0949(2) 0.3747(2) 0.0083(4) 1. 0
O8 O2- 16 g 0.1129(1) 0.2497(1) 0.4810(1) 0.0070(3) 1. 0
O9 O2- 8 f 0 0.4055(2) 0.3697(2) 0.0089(4) 1. 0
#End of TTdata_152568-ICSD