
#(C) 2018 by FIZ Karlsruhe - Leibniz Institute for Information Infrastructure.  All rights reserved.
data_152567-ICSD
_database_code_ICSD 152567
_audit_creation_date 2006-10-01
_chemical_name_systematic 'Dilithium lead hexatitanate'
_chemical_formula_structural 'Li2 Pb (Ti6 O14)'
_chemical_formula_sum 'Li2 O14 Pb1 Ti6'
_chemical_name_structure_type Li2Sr(Ti6O14)
_exptl_crystal_density_diffrn 4.56
_publ_section_title
'A new family od isostructural titanates, M Li2 Ti6 O14 (M = Sr, Ba, Pb)'
loop_
_citation_id
_citation_journal_full
_citation_year
_citation_journal_volume
_citation_page_first
_citation_page_last
_citation_journal_id_ASTM
primary 'Journal of Alloys and Compounds' 2005 389 47 54 JALCEU
loop_
_publ_author_name
'Koseva, I.'
'Chaminade, J.P.'
'Gravereau, P.'
'Pechev, S.'
'Peshev, P.'
'Etourneau, J.'
_cell_length_a 16.649(1)
_cell_length_b 11.146(1)
_cell_length_c 11.494(1)
_cell_angle_alpha 90.
_cell_angle_beta 90.
_cell_angle_gamma 90.
_cell_volume 2132.94
_cell_formula_units_Z 8
_symmetry_space_group_name_H-M 'C m c a'
_symmetry_Int_Tables_number 64
_refine_ls_R_factor_all 0.033
loop_
_symmetry_equiv_pos_site_id
_symmetry_equiv_pos_as_xyz
1 '-x, -y+1/2, z+1/2'
2 '-x, y+1/2, -z+1/2'
3 '-x, y, z'
4 '-x, -y, -z'
5 'x, y+1/2, -z+1/2'
6 'x, -y+1/2, z+1/2'
7 'x, -y, -z'
8 'x, y, z'
9 '-x+1/2, -y, z+1/2'
10 '-x+1/2, y, -z+1/2'
11 '-x+1/2, y+1/2, z'
12 '-x+1/2, -y+1/2, -z'
13 'x+1/2, y, -z+1/2'
14 'x+1/2, -y, z+1/2'
15 'x+1/2, -y+1/2, -z'
16 'x+1/2, y+1/2, z'
loop_
_atom_type_symbol
_atom_type_oxidation_number
Li1+ 1
Pb2+ 2
Ti4+ 4
O2- -2
loop_
_atom_site_label
_atom_site_type_symbol
_atom_site_symmetry_multiplicity
_atom_site_Wyckoff_symbol
_atom_site_fract_x
_atom_site_fract_y
_atom_site_fract_z
_atom_site_B_iso_or_equiv
_atom_site_occupancy
_atom_site_attached_hydrogens
Li1 Li1+ 16 g 0.1865(5) 0.2451(7) 0.1236(6) 0.0152(15) 1. 0
Pb1 Pb2+ 8 f 0 0.34222(2) 0.12029(2) 0.0212(1) 1. 0
Ti1 Ti4+ 8 e 0.25 0.49323(8) 0.25 0.0068(2) 1. 0
Ti2 Ti4+ 8 d 0.24399(6) 0.5 0 0.0067(2) 1. 0
Ti3 Ti4+ 16 g 0.10910(4) 0.12169(6) 0.36502(6) 0.0067(2) 1. 0
Ti4 Ti4+ 16 g 0.10759(4) 0.38234(6) 0.38263(5) 0.0064(2) 1. 0
O1 O2- 16 g 0.2362(2) 0.3824(3) 0.3771(2) 0.0057(5) 1. 0
O2 O2- 16 g 0.1322(2) 0.4963(2) 0.2505(3) 0.0074(5) 1. 0
O3 O2- 16 g 0.2341(2) 0.1141(3) 0.3726(2) 0.0055(5) 1. 0
O4 O2- 8 d 0.1304(3) 0 0.5 0.0080(7) 1. 0
O5 O2- 8 d 0.1337(3) 0 0 0.0076(7) 1. 0
O6 O2- 16 g 0.1085(2) 0.2511(3) 0.2625(3) 0.0066(5) 1. 0
O7 O2- 8 f 0 0.0834(4) 0.3785(4) 0.0102(8) 1. 0
O8 O2- 16 g 0.1079(2) 0.2480(3) 0.4851(3) 0.0073(5) 1. 0
O9 O2- 8 f 0 0.4109(4) 0.3694(4) 0.0105(8) 1. 0
#End of TTdata_152567-ICSD