
#(C) 2017 by FIZ Karlsruhe - Leibniz Institute for Information Infrastructure.  All rights reserved.
data_152948-ICSD
_database_code_ICSD 152948
_audit_creation_date 2006-10-01
_audit_update_record 2013-08-01
_chemical_name_systematic 'Lithium lutetium fluoride - HP'
_chemical_formula_structural 'Li Lu F4'
_chemical_formula_sum 'F4 Li1 Lu1'
_chemical_name_structure_type YNbO4(mS24)
_exptl_crystal_density_diffrn 6.8
_cell_measurement_pressure 11900000.
_publ_section_title

;
Pressure-induced tricritical phase transition from the scheelite structure to
the fergusonite structure in Li Lu F4
;
loop_
_citation_id
_citation_journal_full
_citation_year
_citation_journal_volume
_citation_page_first
_citation_page_last
_citation_journal_id_ASTM
primary 'Journal of Physics: Condensed Matter' 2005 17 763 770 JCOMEL
loop_
_publ_author_name
'Grzechnik, A.'
'Friese, K.'
'Dmitriev, V.'
'Weber, H.P.'
'Gesland, J.Y.'
'Crichton, W.A.'
_cell_length_a 7.2556(13)
_cell_length_b 10.3510(17)
_cell_length_c 4.8434(8)
_cell_angle_alpha 90.
_cell_angle_beta 136.136(5)
_cell_angle_gamma 90.
_cell_volume 252.06
_cell_formula_units_Z 4
_symmetry_space_group_name_H-M 'C 1 2/c 1'
_symmetry_Int_Tables_number 15
_refine_ls_R_factor_all 0.1258
loop_
_symmetry_equiv_pos_site_id
_symmetry_equiv_pos_as_xyz
1 'x, -y, z+1/2'
2 '-x, -y, -z'
3 '-x, y, -z+1/2'
4 'x, y, z'
5 'x+1/2, -y+1/2, z+1/2'
6 '-x+1/2, -y+1/2, -z'
7 '-x+1/2, y+1/2, -z+1/2'
8 'x+1/2, y+1/2, z'
loop_
_atom_type_symbol
_atom_type_oxidation_number
Li1+ 1
Lu3+ 3
F1- -1
loop_
_atom_site_label
_atom_site_type_symbol
_atom_site_symmetry_multiplicity
_atom_site_Wyckoff_symbol
_atom_site_fract_x
_atom_site_fract_y
_atom_site_fract_z
_atom_site_B_iso_or_equiv
_atom_site_occupancy
_atom_site_attached_hydrogens
Li1 Li1+ 4 e 0 0.0862(5) 0.25 0.33(13) 1. 0
Lu1 Lu3+ 4 e 0 0.6330(5) 0.25 0.1489(25) 1. 0
F1 F1- 8 f 0.7779(5) 0.5435(11) 0.4181(18) 0.128(12) 1. 0
F2 F1- 8 f 0.9122(15) 0.8062(5) 0.4364(12) 0.083(9) 1. 0
#End of TTdata_152948-ICSD