
#(C) 2018 by FIZ Karlsruhe - Leibniz Institute for Information Infrastructure.  All rights reserved.
data_153443-ICSD
_database_code_ICSD 153443
_audit_creation_date 2006-10-01
_chemical_name_systematic 'Cesium lithium decaoxohexaborate (0.98/1/1)'
_chemical_formula_structural 'Cs0.98 Li (B6 O10)'
_chemical_formula_sum 'B6 Cs0.98 Li1 O10'
_exptl_crystal_density_diffrn 2.45
_publ_section_title
'Cs Li B6 O10 crystals with Cs deficit: structure and properties'
loop_
_citation_id
_citation_journal_full
_citation_year
_citation_journal_volume
_citation_page_first
_citation_page_last
_citation_journal_id_ASTM
primary 'Journal of Crystal Growth' 2005 282 407 413 JCRGAE
loop_
_publ_author_name
'Isaenko, L.'
'Vasilyeva, I.'
'Merkulov, A.'
'Tomilenko, A.'
'Bogdanova, I.'
'Malakhov. V.'
'Drebushchak, V.'
_cell_length_a 10.4761(6)
_cell_length_b 10.4761(6)
_cell_length_c 8.9501(3)
_cell_angle_alpha 90.
_cell_angle_beta 90.
_cell_angle_gamma 90.
_cell_volume 982.26
_cell_formula_units_Z 4
_symmetry_space_group_name_H-M 'I -4 2 d'
_symmetry_Int_Tables_number 122
_refine_ls_R_factor_all 0.0293
loop_
_symmetry_equiv_pos_site_id
_symmetry_equiv_pos_as_xyz
1 '-y, -x+1/2, z+1/4'
2 'y, -x, -z'
3 'y, x+1/2, z+1/4'
4 '-y, x, -z'
5 'x, -y+1/2, -z+1/4'
6 '-x, -y, z'
7 '-x, y+1/2, -z+1/4'
8 'x, y, z'
9 '-y+1/2, -x, z+3/4'
10 'y+1/2, -x+1/2, -z+1/2'
11 'y+1/2, x, z+3/4'
12 '-y+1/2, x+1/2, -z+1/2'
13 'x+1/2, -y, -z+3/4'
14 '-x+1/2, -y+1/2, z+1/2'
15 '-x+1/2, y, -z+3/4'
16 'x+1/2, y+1/2, z+1/2'
loop_
_atom_type_symbol
_atom_type_oxidation_number
Cs1+ 1
Li1+ 1
O2- -2
B3+ 3
Cs1+ 1
loop_
_atom_site_label
_atom_site_type_symbol
_atom_site_symmetry_multiplicity
_atom_site_Wyckoff_symbol
_atom_site_fract_x
_atom_site_fract_y
_atom_site_fract_z
_atom_site_B_iso_or_equiv
_atom_site_occupancy
_atom_site_attached_hydrogens
Cs1 Cs1+ 4 a 0 0 0 0.0252(6) 0.712(28) 0
Li1 Li1+ 4 b 0 0 0.5 0.021(1) 1. 0
O1 O2- 16 e 0.1979(1) -0.0569(1) 0.2554(1) 0.0164(2) 1. 0
O2 O2- 16 e 0.1444(1) 0.1031(1) 0.4304(1) 0.0156(2) 1. 0
O3 O2- 8 d -0.2015(2) 0.25 0.125 0.0267(5) 1. 0
B1 B3+ 8 d 0.5238(2) 0.25 0.125 0.0116(4) 1. 0
B2 B3+ 16 e 0.2676(2) -0.1493(2) 0.1895(2) 0.0116(4) 1. 0
Cs2 Cs1+ 8 c 0 0 0.028(2) 0.040(2) 0.136(16) 0
#End of TTdata_153443-ICSD