
#(C) 2018 by FIZ Karlsruhe - Leibniz Institute for Information Infrastructure.  All rights reserved.
data_155582-ICSD
_database_code_ICSD 155582
_audit_creation_date 2007-08-01
_audit_update_record 2013-02-01
_chemical_name_systematic 'Lithium iron cobalt phosphate(V) (1/0.6/0.4/1)'
_chemical_formula_structural 'Li (Fe0.6 Co0.4) (P O4)'
_chemical_formula_sum 'Co0.4 Fe0.6 Li1 O4 P1'
_chemical_name_structure_type Olivine-Mg2SiO4
_exptl_crystal_density_diffrn 3.67
_cell_measurement_temperature 298.
_publ_section_title

;
A neutron powder diffraction study of Li Cox Fe1-x P O4 for x = 0., 0.25, 0.40
and 0.75
;
loop_
_citation_id
_citation_journal_full
_citation_year
_citation_journal_volume
_citation_page_first
_citation_page_last
_citation_journal_id_ASTM
primary 'Solid State Ionics' 2006 177 1327 1330 SSIOD3
loop_
_publ_author_name
'Nyten, A.'
'Thomas, J.O.'
_cell_length_a 10.264(1)
_cell_length_b 5.969(1)
_cell_length_c 4.6924(7)
_cell_angle_alpha 90.
_cell_angle_beta 90.
_cell_angle_gamma 90.
_cell_volume 287.48
_cell_formula_units_Z 4
_symmetry_space_group_name_H-M 'P n m a'
_symmetry_Int_Tables_number 62
loop_
_symmetry_equiv_pos_site_id
_symmetry_equiv_pos_as_xyz
1 'x+1/2, y, -z+1/2'
2 'x, -y+1/2, z'
3 '-x+1/2, y+1/2, z+1/2'
4 '-x, -y, -z'
5 '-x+1/2, -y, z+1/2'
6 '-x, y+1/2, -z'
7 'x+1/2, -y+1/2, -z+1/2'
8 'x, y, z'
loop_
_atom_type_symbol
_atom_type_oxidation_number
Li1+ 1
Fe2+ 2
Co2+ 2
P5+ 5
O2- -2
loop_
_atom_site_label
_atom_site_type_symbol
_atom_site_symmetry_multiplicity
_atom_site_Wyckoff_symbol
_atom_site_fract_x
_atom_site_fract_y
_atom_site_fract_z
_atom_site_B_iso_or_equiv
_atom_site_occupancy
_atom_site_attached_hydrogens
Li1 Li1+ 4 a 0 0 0 0.4(7) 1. 0
Fe1 Fe2+ 4 c 0.279(1) 0.25 0.980(3) 0.10(2) 0.60(2) 0
Co1 Co2+ 4 c 0.279(1) 0.25 0.980(3) 0.10(2) 0.40(2) 0
P1 P5+ 4 c 0.092(1) 0.25 0.412(3) 0.7(3) 1. 0
O1 O2- 4 c 0.101(1) 0.25 0.744(3) 0.1(3) 1. 0
O2 O2- 4 c 0.453(1) 0.25 0.205(3) 1.0(4) 1. 0
O3 O2- 8 d 0.164(1) 0.046(1) 0.285(2) 0.6(2) 1. 0
#End of TTdata_155582-ICSD