
#(C) 2018 by FIZ Karlsruhe - Leibniz Institute for Information Infrastructure.  All rights reserved.
data_155950-ICSD
_database_code_ICSD 155950
_audit_creation_date 2007-08-01
_chemical_name_systematic 'Heptalithium bismuthate'
_chemical_formula_structural 'Li7 (Bi O6)'
_chemical_formula_sum 'Bi1 Li7 O6'
_chemical_name_structure_type Li7SbO6
_exptl_crystal_density_diffrn 4.38
_cell_measurement_temperature 230.
_publ_section_title

;
Crystal structures, dimorphism and lithium mobility of Li7 M O6 (M = Bi, Ru,
Os)
;
loop_
_citation_id
_citation_journal_full
_citation_year
_citation_journal_volume
_citation_page_first
_citation_page_last
_citation_journal_id_ASTM
primary 'Zeitschrift fuer Anorganische und Allgemeine Chemie (1950) (DE)' 2005
631 2321 2327 ZAACAB
loop_
_publ_author_name
'Muehle, C.'
'Karpov, A.'
'Verhoeven, A.'
'Jansen, M.'
_cell_length_a 5.5071(1)
_cell_length_b 6.0425(1)
_cell_length_c 5.5231(1)
_cell_angle_alpha 116.912(1)
_cell_angle_beta 120.867(1)
_cell_angle_gamma 62.234(1)
_cell_volume 133.96
_cell_formula_units_Z 1
_symmetry_space_group_name_H-M 'P -1'
_symmetry_Int_Tables_number 2
_refine_ls_R_factor_all 0.0247
loop_
_symmetry_equiv_pos_site_id
_symmetry_equiv_pos_as_xyz
1 '-x, -y, -z'
2 'x, y, z'
loop_
_atom_type_symbol
_atom_type_oxidation_number
Bi5+ 5
O2- -2
Li1+ 1
loop_
_atom_site_label
_atom_site_type_symbol
_atom_site_symmetry_multiplicity
_atom_site_Wyckoff_symbol
_atom_site_fract_x
_atom_site_fract_y
_atom_site_fract_z
_atom_site_B_iso_or_equiv
_atom_site_occupancy
_atom_site_attached_hydrogens
Bi1 Bi5+ 1 a 0 0 0 1.43(1) 1. 0
O1 O2- 2 i 0.911(2) 0.244(1) 0.393(2) 2.41(8) 1. 0
O2 O2- 2 i 0.253(1) 0.237(1) 0.085(2) 2.41(8) 1. 0
O3 O2- 2 i 0.386(1) 0.751(1) 0.230(2) 2.41(8) 1. 0
Li1 Li1+ 2 i 0.489(5) 0.368(4) 0.070(6) 3.1(2) 0.875 0
Li2 Li1+ 2 i 0.123(5) 0.622(5) 0.190(5) 3.1(2) 0.875 0
Li3 Li1+ 2 i 0.742(5) 0.635(5) 0.536(5) 5.1(2) 0.875 0
Li4 Li1+ 2 i 0.657(5) 0.032(4) 0.359(5) 3.1(2) 0.875 0
#End of TTdata_155950-ICSD