
#(C) 2018 by FIZ Karlsruhe - Leibniz Institute for Information Infrastructure.  All rights reserved.
data_156006-ICSD
_database_code_ICSD 156006
_audit_creation_date 2007-08-01
_chemical_name_systematic 'Lithium molybdate iodate(V)'
_chemical_formula_structural 'Li (Mo O3) (I O3)'
_chemical_formula_sum 'I1 Li1 Mo1 O6'
_chemical_name_structure_type Cu(IO3)2
_exptl_crystal_density_diffrn 4.37
_publ_section_title

;
Li Mo O3 (I O3): a new molybdenyl iodate based on (WO3)-type sheets with large
SHG response
;
loop_
_citation_id
_citation_journal_full
_citation_year
_citation_journal_volume
_citation_page_first
_citation_page_last
_citation_journal_id_ASTM
primary 'Journal of Alloys and Compounds' 2007 428 54 58 JALCEU
loop_
_publ_author_name
'Chen Xue An'
'Zhang Li'
'Chang Xi Nan'
'Xue Hai Ping'
'Zang Hegui'
'Xiao Wei Qiang'
'Song Xuemei'
'Yan Hui'
_cell_length_a 5.4104(4)
_cell_length_b 5.3158(3)
_cell_length_c 9.0025(7)
_cell_angle_alpha 90.
_cell_angle_beta 106.863(6)
_cell_angle_gamma 90.
_cell_volume 247.78
_cell_formula_units_Z 2
_symmetry_space_group_name_H-M 'P 1 21 1'
_symmetry_Int_Tables_number 4
_refine_ls_R_factor_all 0.0376
loop_
_symmetry_equiv_pos_site_id
_symmetry_equiv_pos_as_xyz
1 '-x, y+1/2, -z'
2 'x, y, z'
loop_
_atom_type_symbol
_atom_type_oxidation_number
I5+ 5
Mo6+ 6
O2- -2
Li1+ 1
loop_
_atom_site_label
_atom_site_type_symbol
_atom_site_symmetry_multiplicity
_atom_site_Wyckoff_symbol
_atom_site_fract_x
_atom_site_fract_y
_atom_site_fract_z
_atom_site_B_iso_or_equiv
_atom_site_occupancy
_atom_site_attached_hydrogens
I1 I5+ 2 a 0.37670(9) 0.38418(9) 0.33664(5) 0.01060(12) 1. 0
Mo1 Mo6+ 2 a 0.23487(11) 0.61524(12) -0.03549(7) 0.00694(13) 1. 0
O1 O2- 2 a 0.4908(12) 0.8199(13) -0.0428(8) 0.0143(11) 1. 0
O2 O2- 2 a 0.3574(13) 0.6601(12) 0.2140(7) 0.0142(10) 1. 0
O3 O2- 2 a -0.0183(12) 0.8332(12) -0.0432(8) 0.0141(11) 1. 0
O4 O2- 2 a 0.1196(14) 0.4619(13) 0.4168(8) 0.0170(12) 1. 0
O5 O2- 2 a 0.6504(13) 0.4872(15) 0.4898(8) 0.0184(13) 1. 0
O6 O2- 2 a 0.1426(13) 0.4884(13) -0.2200(8) 0.0144(11) 1. 0
Li1 Li1+ 2 a -0.006(4) 0.806(4) 0.417(3) 0.025(4) 1. 0
#End of TTdata_156006-ICSD