
#(C) 2018 by FIZ Karlsruhe - Leibniz Institute for Information Infrastructure.  All rights reserved.
data_156002-ICSD
_database_code_ICSD 156002
_audit_creation_date 2007-08-01
_chemical_name_systematic
'Lithium lanthanum iron(III) oxide (0.5/0.08/2.42/4) - nanocrystalline'
_chemical_formula_structural 'Li0.5 La0.08 Fe2.42 O4'
_chemical_formula_sum 'Fe2.42 La0.08 Li0.5 O4'
_chemical_name_structure_type Spinel-LiFe5O8
_exptl_crystal_density_diffrn 4.89
_publ_section_title

;
Investigation of nanocrystalline phases in Li - La - Fe - O system formed by
the decomposition of acetylacetonato complexes
;
loop_
_citation_id
_citation_journal_full
_citation_year
_citation_journal_volume
_citation_page_first
_citation_page_last
_citation_journal_id_ASTM
primary 'Journal of Alloys and Compounds' 2007 428 322 326 JALCEU
loop_
_publ_author_name
'Vucinic-Vasic, M.'
'Antic, B.'
'Kremenovic, A.'
'Nikolic, A.S.'
'Blanusa, J.'
'Rakic, S.'
'Spasojevic, V.'
'Kapor, A.'
_cell_length_a 8.3445(3)
_cell_length_b 8.3445(3)
_cell_length_c 8.3445(3)
_cell_angle_alpha 90.
_cell_angle_beta 90.
_cell_angle_gamma 90.
_cell_volume 581.03
_cell_formula_units_Z 8
_symmetry_space_group_name_H-M 'P 43 3 2'
_symmetry_Int_Tables_number 212
_refine_ls_R_factor_all 0.0391
loop_
_symmetry_equiv_pos_site_id
_symmetry_equiv_pos_as_xyz
1 'z+1/4, y+3/4, -x+3/4'
2 '-z+3/4, y+1/4, x+3/4'
3 'y+1/4, x+3/4, -z+3/4'
4 '-y+3/4, x+1/4, z+3/4'
5 'x+1/4, z+3/4, -y+3/4'
6 '-x+3/4, z+1/4, y+3/4'
7 'z+3/4, -y+3/4, x+1/4'
8 '-z+1/4, -y+1/4, -x+1/4'
9 'y+3/4, -x+3/4, z+1/4'
10 '-y+1/4, -x+1/4, -z+1/4'
11 'x+3/4, -z+3/4, y+1/4'
12 '-x+1/4, -z+1/4, -y+1/4'
13 '-y+1/2, -z, x+1/2'
14 '-y, z+1/2, -x+1/2'
15 'y+1/2, -z+1/2, -x'
16 'y, z, x'
17 'z+1/2, -x+1/2, -y'
18 '-z+1/2, -x, y+1/2'
19 '-z, x+1/2, -y+1/2'
20 'z, x, y'
21 '-x+1/2, -y, z+1/2'
22 '-x, y+1/2, -z+1/2'
23 'x+1/2, -y+1/2, -z'
24 'x, y, z'
loop_
_atom_type_symbol
_atom_type_oxidation_number
Fe3+ 3
Li1+ 1
Fe3+ 3
Li1+ 1
La3+ 3
O2- -2
loop_
_atom_site_label
_atom_site_type_symbol
_atom_site_symmetry_multiplicity
_atom_site_Wyckoff_symbol
_atom_site_fract_x
_atom_site_fract_y
_atom_site_fract_z
_atom_site_B_iso_or_equiv
_atom_site_occupancy
_atom_site_attached_hydrogens
Fe1 Fe3+ 4 b 0.625 0.625 0.625 0.63(5) 0.45(2) 0
Li1 Li1+ 4 b 0.625 0.625 0.625 0.63(5) 0.55(2) 0
Fe2 Fe3+ 8 c -0.0035(5) -0.0035(5) -0.0035(5) 0.63(5) 1. 0
Fe3 Fe3+ 12 d 0.125 0.3659(7) -0.1159(7) 0.63(5) 0.797(7) 0
Li2 Li1+ 12 d 0.125 0.3659(7) -0.1159(7) 0.63(5) 0.150(7) 0
La1 La3+ 12 d 0.125 0.3659(7) -0.1159(7) 0.63(5) 0.053 0
O1 O2- 8 c 0.3842(7) 0.3842(7) 0.3842(7) 0.63(5) 1. 0
O2 O2- 24 e 0.112(2) 0.121(2) 0.372(2) 0.63(5) 1. 0
#End of TTdata_156002-ICSD