
#(C) 2018 by FIZ Karlsruhe - Leibniz Institute for Information Infrastructure.  All rights reserved.
data_157070-ICSD
_database_code_ICSD 157070
_audit_creation_date 2008-02-01
_chemical_name_systematic
'Lithium nickel oxotitanium arsenate(V) (0.5/0.25/1/1)'
_chemical_formula_structural 'Li0.5 Ni0.25 (Ti O) (As O4)'
_chemical_formula_sum 'As1 Li0.5 Ni0.25 O5 Ti1'
_chemical_name_structure_type Li.5Ni.25TiOPO4
_exptl_crystal_density_diffrn 3.98
_cell_measurement_temperature 293.
_publ_section_title

;
Crystal structure and spectroscopic properties of a new oxyarsenate Li0.5
Ni0.25 Ti O As O4
;
loop_
_citation_id
_citation_journal_full
_citation_year
_citation_journal_volume
_citation_page_first
_citation_page_last
_citation_journal_id_ASTM
primary 'Materials Research Bulletin' 2007 42 1348 1356 MRBUAC
loop_
_publ_author_name
'Chakir, M.'
'El Jazouli, A.'
'Chaminade, J.P.'
'Bouree, F.'
'de Waal, D.'
_cell_length_a 6.5854(3)
_cell_length_b 7.4665(4)
_cell_length_c 7.4969(4)
_cell_angle_alpha 90.
_cell_angle_beta 89.884(6)
_cell_angle_gamma 90.
_cell_volume 368.62
_cell_formula_units_Z 4
_symmetry_space_group_name_H-M 'P 1 21/c 1'
_symmetry_Int_Tables_number 14
_refine_ls_R_factor_all 0.04
loop_
_symmetry_equiv_pos_site_id
_symmetry_equiv_pos_as_xyz
1 'x, -y+1/2, z+1/2'
2 '-x, -y, -z'
3 '-x, y+1/2, -z+1/2'
4 'x, y, z'
loop_
_atom_type_symbol
_atom_type_oxidation_number
Li1+ 1
Ni2+ 2
Li1+ 1
Ni2+ 2
Ti4+ 4
As5+ 5
O2- -2
loop_
_atom_site_label
_atom_site_type_symbol
_atom_site_symmetry_multiplicity
_atom_site_Wyckoff_symbol
_atom_site_fract_x
_atom_site_fract_y
_atom_site_fract_z
_atom_site_B_iso_or_equiv
_atom_site_occupancy
_atom_site_attached_hydrogens
Li1 Li1+ 2 a 0 0 0 1.23(17) 0.288 0
Ni1 Ni2+ 2 a 0 0 0 1.23(17) 0.286 0
Li2 Li1+ 2 b 0.5 0 0 1.5(3) 0.712 0
Ni2 Ni2+ 2 b 0.5 0 0 1.5(3) 0.214 0
Ti1 Ti4+ 4 e 0.7576(17) 0.2272(7) 0.3362(6) 0.37(9) 1. 0
As1 As5+ 4 e 0.2559(11) 0.1294(4) 0.3746(5) 0.50(4) 1. 0
O1 O2- 4 e 0.7309(9) 0.1639(4) 0.1181(6) 0.82(2) 1. 0
O2 O2- 4 e 0.7584(10) -0.0014(5) 0.8103(5) 0.82(2) 1. 0
O3 O2- 4 e 0.2615(10) 0.4932(5) 0.0629(4) 0.82(2) 1. 0
O4 O2- 4 e 0.4520(11) 0.2331(10) 0.8649(9) 0.82(2) 1. 0
O5 O2- 4 e 0.9585(10) 0.7595(4) 0.1242(10) 0.82(2) 1. 0
#End of TTdata_157070-ICSD