
#(C) 2018 by FIZ Karlsruhe - Leibniz Institute for Information Infrastructure.  All rights reserved.
data_158180-ICSD
_database_code_ICSD 158180
_audit_creation_date 2008-02-01
_chemical_name_systematic 'Tetralithium tetrahydroborate triamide'
_chemical_formula_structural 'Li4 (B H4) (N H2)3'
_chemical_formula_sum 'H10 B1 Li4 N3'
_exptl_crystal_density_diffrn 1.
_cell_measurement_temperature 295.
_publ_section_title

;
Crystal structure analysis of novel complex hydrides formed by the combination
of Li B H4 and Li N H2
;
loop_
_citation_id
_citation_journal_full
_citation_year
_citation_journal_volume
_citation_page_first
_citation_page_last
_citation_journal_id_ASTM
primary 'Applied Physics A: Materials Science & Processing' 2006 83 277 279
APAMFC
loop_
_publ_author_name
'Noritake, T.'
'Aoki, M.'
'Towata, S.'
'Ninomiya, A.'
'Nakamori, Y.'
'Orimo, S.'
_cell_length_a 10.656(2)
_cell_length_b 10.656(2)
_cell_length_c 10.656(2)
_cell_angle_alpha 90.
_cell_angle_beta 90.
_cell_angle_gamma 90.
_cell_volume 1209.99
_cell_formula_units_Z 8
_symmetry_space_group_name_H-M 'I 21 3'
_symmetry_Int_Tables_number 199
loop_
_symmetry_equiv_pos_site_id
_symmetry_equiv_pos_as_xyz
1 '-z+1/2, -x, y+1/2'
2 '-y+1/2, -z, x+1/2'
3 '-x+1/2, -y, z+1/2'
4 '-z, x+1/2, -y+1/2'
5 '-y, z+1/2, -x+1/2'
6 '-x, y+1/2, -z+1/2'
7 'z+1/2, -x+1/2, -y'
8 'y+1/2, -z+1/2, -x'
9 'x+1/2, -y+1/2, -z'
10 'z, x, y'
11 'y, z, x'
12 'x, y, z'
13 '-z, -x+1/2, y'
14 '-y, -z+1/2, x'
15 '-x, -y+1/2, z'
16 '-z+1/2, x, -y'
17 '-y+1/2, z, -x'
18 '-x+1/2, y, -z'
19 'z, -x, -y+1/2'
20 'y, -z, -x+1/2'
21 'x, -y, -z+1/2'
22 'z+1/2, x+1/2, y+1/2'
23 'y+1/2, z+1/2, x+1/2'
24 'x+1/2, y+1/2, z+1/2'
loop_
_atom_type_symbol
_atom_type_oxidation_number
N3- -3
B3+ 3
Li1+ 1
H1+ 1
H1- -1
loop_
_atom_site_label
_atom_site_type_symbol
_atom_site_symmetry_multiplicity
_atom_site_Wyckoff_symbol
_atom_site_fract_x
_atom_site_fract_y
_atom_site_fract_z
_atom_site_B_iso_or_equiv
_atom_site_occupancy
_atom_site_attached_hydrogens
N1 N3- 12 b 0.2544(7) 0 0.25 2.7(1) 1. 0
N2 N3- 12 b 0.7895(3) 0 0.25 2.7(1) 1. 0
B1 B3+ 8 a 0.0285(3) 0.0285(3) 0.0285(3) 1.4(2) 1. 0
Li1 Li1+ 24 c 0.1068(10) 0.3775(7) 0.1587(8) 0.5(1) 0.58(1) 0
Li2 Li1+ 24 c 0.3755(7) 0.1493(10) 0.3311(7) 0.5(1) 0.75 0
H1 H1+ 24 c 0.278(3) 0.094(3) 0.233(3) 4.4(4) 1. 0
H2 H1+ 24 c 0.769(3) 0.096(2) 0.258(4) 4.4(4) 1. 0
H3 H1- 8 a 0.088(3) 0.088(3) 0.088(3) 4.4(4) 1. 0
H4 H1- 24 c -0.032(6) -0.032(7) 0.088(2) 4.4(4) 1. 0
#End of TTdata_158180-ICSD