
#(C) 2017 by FIZ Karlsruhe - Leibniz Institute for Information Infrastructure.  All rights reserved.
data_15883-ICSD
_database_code_ICSD 15883
_audit_creation_date 1986-10-15
_audit_update_record 2007-04-01
_chemical_name_systematic 'Lithium copper chloride dihydrate'
_chemical_formula_structural 'Li Cu Cl3 (H2 O)2'
_chemical_formula_sum 'H4 Cl3 Cu1 Li1 O2'
_exptl_crystal_density_diffrn 2.41
_publ_section_title 'The crystal structure of Li Cu Cl3 (H2 O)2'
loop_
_citation_id
_citation_journal_full
_citation_year
_citation_journal_volume
_citation_page_first
_citation_page_last
_citation_journal_id_ASTM
primary 'Acta Crystallographica (1,1948-23,1967)' 1963 16 1037 1045 ACCRA9
loop_
_publ_author_name
'Vossos, P.H.'
'Fitzwater, D.R.'
'Rundle, R.E.'
_cell_length_a 6.078(3)
_cell_length_b 11.145(3)
_cell_length_c 9.145(3)
_cell_angle_alpha 90.
_cell_angle_beta 108.83
_cell_angle_gamma 90.
_cell_volume 586.32
_cell_formula_units_Z 4
_symmetry_space_group_name_H-M 'P 1 21/c 1'
_symmetry_Int_Tables_number 14
_refine_ls_R_factor_all 0.105
loop_
_symmetry_equiv_pos_site_id
_symmetry_equiv_pos_as_xyz
1 'x, -y+1/2, z+1/2'
2 '-x, -y, -z'
3 '-x, y+1/2, -z+1/2'
4 'x, y, z'
loop_
_atom_type_symbol
_atom_type_oxidation_number
Cu2+ 2
Cl1- -1
O2- -2
H1+ 1
Li1+ 1
loop_
_atom_site_label
_atom_site_type_symbol
_atom_site_symmetry_multiplicity
_atom_site_Wyckoff_symbol
_atom_site_fract_x
_atom_site_fract_y
_atom_site_fract_z
_atom_site_B_iso_or_equiv
_atom_site_occupancy
_atom_site_attached_hydrogens
Cu1 Cu2+ 4 e 0.82476(20) 0.00697(11) 0.11177(13) . 1. 0
Cl1 Cl1- 4 e 0.53272(40) 0.12956(20) 0.11942(28) . 1. 0
Cl2 Cl1- 4 e 0.20108(39) 0.39791(21) 0.18280(26) . 1. 0
Cl3 Cl1- 4 e 0.89126(39) 0.38142(20) 0.41853(26) . 1. 0
O1 O2- 4 e 0.1551(14) 0.13108(73) 0.30435(82) . 1. 0
O2 O2- 4 e 0.6466(11) 0.39556(65) 0.03522(81) . 1. 0
loop_
_atom_site_aniso_label
_atom_site_aniso_type_symbol
_atom_site_aniso_beta_11
_atom_site_aniso_beta_22
_atom_site_aniso_beta_33
_atom_site_aniso_beta_12
_atom_site_aniso_beta_13
_atom_site_aniso_beta_23
Cu1 Cu2+ 0.01402(29) 0.00342(9) 0.00607(13) 0.00170(11) 0.00512(14) 0.00110(9)
Cl1 Cl1- 0.01540(56) 0.00330(15) 0.00764(26) 0.00124(21) 0.00573(29) 0.00064(16)
Cl2 Cl1- 0.01442(55) 0.00390(15) 0.00599(24) 0.00056(21) 0.00452(28) 0.00091(15)
Cl3 Cl1- 0.01633(59) 0.00349(15) 0.00659(27) 0.00199(22) 0.0053(3) 0.00127(16)
O1 O2- 0.0198(21) 0.00555(61) 0.00626(82) 0.00075(85) 0.0055(10) 0.00044(59)
O2 O2- 0.0091(16) 0.00459(52) 0.00734(90) -.00074(66) 0.00029(91) 0.00050(54)
#End of TTdata_15883-ICSD