
#(C) 2018 by FIZ Karlsruhe - Leibniz Institute for Information Infrastructure.  All rights reserved.
data_159716-ICSD
_database_code_ICSD 159716
_audit_creation_date 2008-08-01
_audit_update_record 2016-02-01
_chemical_name_systematic 'Lithium zinc manganese phosphate(V) (1/0.88/0.12/1)'
_chemical_formula_structural 'Li (Zn0.88 Mn0.12) (P O4)'
_chemical_formula_sum 'Li1 Mn0.12 O4 P1 Zn0.88'
_chemical_name_structure_type LiZnPO4
_exptl_crystal_density_diffrn 3.26
_cell_measurement_temperature 300.
_publ_section_title

;
Synthesis, crystal structure and luminescence properties of a novel
green-yellow emitting phosphor Li Zn1-x P O4 : Mnx for light emitting diodes
;
loop_
_citation_id
_citation_journal_full
_citation_year
_citation_journal_volume
_citation_page_first
_citation_page_last
_citation_journal_id_ASTM
primary 'Chemistry of Materials' 2008 20 1215 1217 CMATEX
loop_
_publ_author_name
'Chan Tingshan'
'Liu Rushi'
'Baginskiy, I.'
_cell_length_a 17.2884(6)
_cell_length_b 9.7819(1)
_cell_length_c 17.1343(2)
_cell_angle_alpha 90.
_cell_angle_beta 110.82(2)
_cell_angle_gamma 90.
_cell_volume 2708.43
_cell_formula_units_Z 32
_symmetry_space_group_name_H-M 'C 1 c 1'
_symmetry_Int_Tables_number 9
_refine_ls_R_factor_all 0.037
loop_
_symmetry_equiv_pos_site_id
_symmetry_equiv_pos_as_xyz
1 'x, -y, z+1/2'
2 'x, y, z'
3 'x+1/2, -y+1/2, z+1/2'
4 'x+1/2, y+1/2, z'
loop_
_atom_type_symbol
_atom_type_oxidation_number
Zn2+ 2
Mn2+ 2
Zn2+ 2
Mn2+ 2
Zn2+ 2
Mn2+ 2
Zn2+ 2
Mn2+ 2
Zn2+ 2
Mn2+ 2
Zn2+ 2
Mn2+ 2
Zn2+ 2
Mn2+ 2
Zn2+ 2
Mn2+ 2
P5+ 5
O2- -2
Li1+ 1
loop_
_atom_site_label
_atom_site_type_symbol
_atom_site_symmetry_multiplicity
_atom_site_Wyckoff_symbol
_atom_site_fract_x
_atom_site_fract_y
_atom_site_fract_z
_atom_site_B_iso_or_equiv
_atom_site_occupancy
_atom_site_attached_hydrogens
Zn1 Zn2+ 4 a 0.9462(4) -0.2988(4) 0.4540(4) 0.070(3) 0.88 0
Mn1 Mn2+ 4 a 0.9462(4) -0.2988(4) 0.4540(4) 0.070(3) 0.12 0
Zn2 Zn2+ 4 a 0.2003(7) -0.0348(6) 0.4571(4) 0.006(1) 0.88 0
Mn2 Mn2+ 4 a 0.2003(7) -0.0348(6) 0.4571(4) 0.006(1) 0.12 0
Zn3 Zn2+ 4 a -0.0764(2) -0.1894(3) -0.0384(3) 0.027(1) 0.88 0
Mn3 Mn2+ 4 a -0.0764(2) -0.1894(3) -0.0384(3) 0.027(1) 0.12 0
Zn4 Zn2+ 4 a 0.1616(9) -0.6803(1) 0.2110(2) 0.008(7) 0.88 0
Mn4 Mn2+ 4 a 0.1616(9) -0.6803(1) 0.2110(2) 0.008(7) 0.12 0
Zn5 Zn2+ 4 a -0.0879(2) 0.0699(3) 0.2127(8) 0.003(7) 0.88 0
Mn5 Mn2+ 4 a -0.0879(2) 0.0699(3) 0.2127(8) 0.003(7) 0.12 0
Zn6 Zn2+ 4 a -0.3724(7) -0.7151(6) 0.2077(1) 0.029(9) 0.88 0
Mn6 Mn2+ 4 a -0.3724(7) -0.7151(6) 0.2077(1) 0.029(9) 0.12 0
Zn7 Zn2+ 4 a 0.1668(1) -0.5660(9) 0.4584(1) 0.009(8) 0.88 0
Mn7 Mn2+ 4 a 0.1668(1) -0.5660(9) 0.4584(1) 0.009(8) 0.12 0
Zn8 Zn2+ 4 a -0.1188(4) -0.4736(6) 0.2151(9) 0.006(6) 0.88 0
Mn8 Mn2+ 4 a -0.1188(4) -0.4736(6) 0.2151(9) 0.006(6) 0.12 0
P1 P5+ 4 a -0.1469(2) 0.0501(9) 0.0195(2) 0.013(6) 1. 0
P2 P5+ 4 a -0.1202(4) -0.4641(7) 0.0142(8) 0.015(1) 1. 0
P3 P5+ 4 a -0.1662(1) -0.2347(6) 0.2799(7) 0.045(2) 1. 0
P4 P5+ 4 a -0.1813(8) -0.7397(5) 0.2479(4) 0.024(8) 1. 0
P5 P5+ 4 a 0.1462(5) -0.3229(2) 0.5294(4) 0.008(5) 1. 0
P6 P5+ 4 a -0.3866(9) -0.7021(3) 0.0335(1) 0.003(6) 1. 0
P7 P5+ 4 a 0.0723(2) -0.4436(3) 0.2927(8) 0.059(3) 1. 0
P8 P5+ 4 a 0.1049(8) 0.1062(6) 0.2754(1) 0.004(1) 1. 0
O1 O2- 4 a -0.1717(2) -.0356(5) -0.0471(1) 0.014(3) 1. 0
O2 O2- 4 a -0.2702(2) 0.1923(8) -0.0017(2) 0.036(7) 1. 0
O3 O2- 4 a -0.1170(1) 0.0032(2) 0.1076(5) 0.010(4) 1. 0
O4 O2- 4 a -0.0592(7) 0.1942(5) 0.0356(5) 0.016(7) 1. 0
O5 O2- 4 a -0.0421(6) -0.5300(3) 0.0001(2) 0.032(9) 1. 0
O6 O2- 4 a -0.1937(3) -0.5129(9) -0.0751(6) 0.043(2) 1. 0
O7 O2- 4 a -0.0973(3) -0.3460(1) 0.0504(4) 0.005(6) 1. 0
O8 O2- 4 a -0.1463(8) -0.5551(3) 0.0606(5) 0.039(4) 1. 0
O9 O2- 4 a -0.1501(2) -0.2220(7) 0.1866(1) 0.005(9) 1. 0
O10 O2- 4 a -0.1309(9) -0.2462(2) 0.3557(1) 0.018(8) 1. 0
O11 O2- 4 a -0.2549(7) -0.1264(2) 0.2471(1) 0.036(0) 1. 0
O12 O2- 4 a -0.0929(1) -0.0212(1) 0.2845(9) 0.035(8) 1. 0
O13 O2- 4 a -0.1231(9) -0.6669(7) 0.3402(4) 0.097(1) 1. 0
O14 O2- 4 a -0.1724(7) -0.8003(6) 0.1821(2) 0.050(4) 1. 0
O15 O2- 4 a -0.2551(5) -0.7196(9) 0.2779(3) 0.138(8) 1. 0
O16 O2- 4 a -0.1916(9) -0.5618(8) 0.2392(5) 0.017(0) 1. 0
O17 O2- 4 a 0.1299(8) -0.2127(2) 0.5731(2) 0.015(1) 1. 0
O18 O2- 4 a 0.2174(5) -0.2187(4) 0.5035(7) 0.014(7) 1. 0
O19 O2- 4 a 0.1351(6) -0.4923(1) 0.5341(9) 0.038(1) 1. 0
O20 O2- 4 a 0.0702(8) -0.2515(8) 0.4694(4) 0.083(3) 1. 0
O21 O2- 4 a -0.3907(8) -0.7702(5) 0.1074(7) 0.036(2) 1. 0
O22 O2- 4 a -0.3193(2) -0.5746(5) 0.0418(5) 0.088(0) 1. 0
O23 O2- 4 a -0.4364(6) -0.7266(6) -0.0586(9) 0.008(1) 1. 0
O24 O2- 4 a -0.4977(1) -0.6269(2) -0.0160(7) 0.128(1) 1. 0
O25 O2- 4 a 0.0534(6) -0.3409(3) 0.2299(7) 0.074(4) 1. 0
O26 O2- 4 a 0.1486(5) -0.4978(4) 0.3484(7) 0.052(7) 1. 0
O27 O2- 4 a -0.00094(5) -0.5255(5) 0.2715(9) 0.048(5) 1. 0
O28 O2- 4 a 0.06484(1) -0.5290(4) 0.2190(5) 0.003(2) 1. 0
O29 O2- 4 a 0.00648(6) 0.1488(1) 0.2714(9) 0.020(3) 1. 0
O30 O2- 4 a 0.08421(1) -0.0013(6) 0.1766(1) 0.023(8) 1. 0
O31 O2- 4 a 0.15421(4) 0.18666(1) 0.2859(4) 0.033(4) 1. 0
O32 O2- 4 a 0.09654(1) 0.0334(5) 0.3452(8) 0.097(1) 1. 0
Li1 Li1+ 4 a -0.2127(1) -0.6937(1) 0.0903(1) 0.090(1) 1. 0
Li2 Li1+ 4 a -0.1808(1) -0.2203(9) -0.0926(4) 0.0742(2) 1. 0
Li3 Li1+ 4 a 0.0389(8) -0.1767(6) 0.3396(7) 0.119(9) 1. 0
Li4 Li1+ 4 a 0.0030(1) -0.7098(1) 0.3380(1) 0.090(1) 1. 0
Li5 Li1+ 4 a -0.2152(2) -0.4332(1) 0.3395(1) 0.090(1) 1. 0
Li6 Li1+ 4 a -0.2441(3) 0.0392(1) 0.3399(1) 0.090(1) 1. 0
Li7 Li1+ 4 a -0.0102(2) -0.0521(2) -0.1121(5) 0.800(1) 1. 0
Li8 Li1+ 4 a 0.03931(3) -0.3045(6) 0.0511(7) 0.42(6) 1. 0
#End of TTdata_159716-ICSD