
#(C) 2018 by FIZ Karlsruhe - Leibniz Institute for Information Infrastructure.  All rights reserved.
data_160778-ICSD
_database_code_ICSD 160778
_audit_creation_date 2009-02-01
_chemical_name_systematic 'Lithium aluminium iron phosphate(V) (0.97/0.03/1/1)'
_chemical_formula_structural '(Li0.969 Al0.031) Fe (P O4)'
_chemical_formula_sum 'Al0.031 Fe1 Li0.969 O4 P1'
_chemical_name_structure_type Olivine-Mg2SiO4
_exptl_crystal_density_diffrn 3.61
_publ_section_title

;
Structure and performance of doped lithium iron phosphate by chemical
precipitation
;
loop_
_citation_id
_citation_journal_full
_citation_year
_citation_journal_volume
_citation_page_first
_citation_page_last
_citation_journal_id_ASTM
primary 'Rare metal materials and engineering (China)' 2007 36 954 958 XJCGEA
loop_
_publ_author_name
'Zhang Peixin'
'Wen Yanxuan'
'Liu Jianhong'
'Xu Qiming'
'Ren Xiangzhong'
'Zhang Qianling'
'Luo Zhongkuan'
_cell_length_a 10.3286(7)
_cell_length_b 6.0080(4)
_cell_length_c 4.6963(3)
_cell_angle_alpha 90.
_cell_angle_beta 90.
_cell_angle_gamma 90.
_cell_volume 291.43
_cell_formula_units_Z 4
_symmetry_space_group_name_H-M 'P n m a'
_symmetry_Int_Tables_number 62
_refine_ls_R_factor_all 0.0478
loop_
_symmetry_equiv_pos_site_id
_symmetry_equiv_pos_as_xyz
1 'x+1/2, y, -z+1/2'
2 'x, -y+1/2, z'
3 '-x+1/2, y+1/2, z+1/2'
4 '-x, -y, -z'
5 '-x+1/2, -y, z+1/2'
6 '-x, y+1/2, -z'
7 'x+1/2, -y+1/2, -z+1/2'
8 'x, y, z'
loop_
_atom_type_symbol
_atom_type_oxidation_number
Li1+ 1
Al3+ 3
Fe1+ 1.94
P5+ 5
O2- -2
loop_
_atom_site_label
_atom_site_type_symbol
_atom_site_symmetry_multiplicity
_atom_site_Wyckoff_symbol
_atom_site_fract_x
_atom_site_fract_y
_atom_site_fract_z
_atom_site_B_iso_or_equiv
_atom_site_occupancy
_atom_site_attached_hydrogens
Li1 Li1+ 4 a 0 0 0 0.37 0.969 0
Al1 Al3+ 4 a 0 0 0 0.4 0.031 0
Fe1 Fe1+ 4 c 0.2819(3) 0.25 0.9728(4) 0.15 1. 0
P1 P5+ 4 c 0.0947(3) 0.25 0.4179(5) 0.18 1. 0
O1 O2- 4 c 0.0960(5) 0.25 0.7408(7) 0.16 1. 0
O2 O2- 4 c 0.4575(6) 0.25 0.2058(5) 0.14 1. 0
O3 O2- 8 d 0.1670(6) 0.0465(4) 0.2839(5) 0.14 1. 0
#End of TTdata_160778-ICSD