
#(C) 2018 by FIZ Karlsruhe - Leibniz Institute for Information Infrastructure.  All rights reserved.
data_161495-ICSD
_database_code_ICSD 161495
_audit_creation_date 2009-02-01
_audit_update_record 2013-08-01
_chemical_name_systematic 'Lithium tecto-alumosilicate hydrate'
_chemical_formula_structural 'Li (Al Si O4) (H2 O)'
_chemical_formula_sum 'H2 Al1 Li1 O5 Si1'
_chemical_name_structure_type Zeolite-ABW-frame
_chemical_name_mineral 'Zeolite Li-ABW'
_exptl_crystal_density_diffrn 2.32
_cell_measurement_pressure 1500000.
_publ_section_title

;
High pressure deformation mechanism of Li-ABW: synchrotron XRPD study and ab
initio molecular dynamics simulations
;
loop_
_citation_id
_citation_journal_full
_citation_year
_citation_journal_volume
_citation_page_first
_citation_page_last
_citation_journal_id_ASTM
primary 'Microporous and Mesoporous Materials' 2008 115 267 280 MIMMFJ
loop_
_publ_author_name
'Fois, E.'
'Gamba, A.'
'Medici, C.'
'Tabacchi, G.'
'Quartieri, S.'
'Mazzucato, E.'
'Arletti, R.'
'Vezzalini, G.'
'Dmitriev, V.'
_cell_length_a 10.254(1)
_cell_length_b 8.122(1)
_cell_length_c 4.9545(5)
_cell_angle_alpha 90.
_cell_angle_beta 90.
_cell_angle_gamma 90.
_cell_volume 412.63
_cell_formula_units_Z 4
_symmetry_space_group_name_H-M 'P n a 21'
_symmetry_Int_Tables_number 33
loop_
_symmetry_equiv_pos_site_id
_symmetry_equiv_pos_as_xyz
1 'x+1/2, -y+1/2, z'
2 '-x+1/2, y+1/2, z+1/2'
3 '-x, -y, z+1/2'
4 'x, y, z'
loop_
_atom_type_symbol
_atom_type_oxidation_number
Li1+ 1
Al3+ 3
Si4+ 4
O2- -2
H1+ 1
loop_
_atom_site_label
_atom_site_type_symbol
_atom_site_symmetry_multiplicity
_atom_site_Wyckoff_symbol
_atom_site_fract_x
_atom_site_fract_y
_atom_site_fract_z
_atom_site_B_iso_or_equiv
_atom_site_occupancy
_atom_site_attached_hydrogens
Li1 Li1+ 4 a 0.1548 0.6344 0.2424 1.488 1. 0
Al1 Al3+ 4 a 0.1658 0.0573 0.2521 0.297 1. 0
Si1 Si4+ 4 a 0.3666 0.3477 0.2509 0.254 1. 0
O1 O2- 4 a 0.0217 0.1698 0.1892 0.847 1. 0
O2 O2- 4 a 0.2975 0.1803 0.1349 0.681 1. 0
O3 O2- 4 a 0.1921 0.0122 0.6003 0.79 1. 0
O4 O2- 4 a 0.1662 -.1351 0.0738 0.665 1. 0
O5 O2- 4 a 0.5331 0.0944 0.2036 2.922 1. 0
H1 H1+ 4 a 0.5539 0.1746 0.93 3.109 1. 0
H2 H1+ 4 a 0.5847 0.0823 0.6829 11.044 1. 0
#End of TTdata_161495-ICSD