
#(C) 2018 by FIZ Karlsruhe - Leibniz Institute for Information Infrastructure.  All rights reserved.
data_161649-ICSD
_database_code_ICSD 161649
_audit_creation_date 2009-02-01
_chemical_name_systematic 'Dilithium iron silicate'
_chemical_formula_structural 'Li2 Fe (Si O4)'
_chemical_formula_sum 'Fe1 Li2 O4 Si1'
_chemical_name_structure_type Enargite-Cu3AsS4
_exptl_crystal_density_diffrn 3.21
_publ_section_title

;
Electrochemical performance of Li2 Fe Si O4 as a new Li-battery cathode
material
;
loop_
_citation_id
_citation_journal_full
_citation_year
_citation_journal_volume
_citation_page_first
_citation_page_last
_citation_journal_id_ASTM
primary 'Electrochemistry Communications' 2005 7 156 160 ECCMF9
loop_
_publ_author_name
'Nyten, A.'
'Abouimrane, A.'
'Armand, M.'
'Gustafsson, T.'
'Thomas, J.O.'
_cell_length_a 6.2661(5)
_cell_length_b 5.3295(5)
_cell_length_c 5.0148(4)
_cell_angle_alpha 90.
_cell_angle_beta 90.
_cell_angle_gamma 90.
_cell_volume 167.47
_cell_formula_units_Z 2
_symmetry_space_group_name_H-M 'P m n 21'
_symmetry_Int_Tables_number 31
loop_
_symmetry_equiv_pos_site_id
_symmetry_equiv_pos_as_xyz
1 'x+1/2, -y, z+1/2'
2 '-x+1/2, -y, z+1/2'
3 '-x, y, z'
4 'x, y, z'
loop_
_atom_type_symbol
_atom_type_oxidation_number
Li1+ 1
Fe2+ 2
Si4+ 4
O2- -2
loop_
_atom_site_label
_atom_site_type_symbol
_atom_site_symmetry_multiplicity
_atom_site_Wyckoff_symbol
_atom_site_fract_x
_atom_site_fract_y
_atom_site_fract_z
_atom_site_B_iso_or_equiv
_atom_site_occupancy
_atom_site_attached_hydrogens
Li1 Li1+ 4 b 0.237(8) 0.325(12) 0.842(7) 1.6(1) 1. 0
Fe1 Fe2+ 2 a 0.5 0.831(2) 0.923(2) 1.6(1) 1. 0
Si1 Si4+ 2 a 0 0.841(4) 0 1.6(1) 1. 0
O1 O2- 4 b 0.217(2) 0.687(4) 0.884(4) 1.6(1) 1. 0
O2 O2- 2 a 0 0.137(5) 0.850(8) 1.6(1) 1. 0
O3 O2- 2 a 0.5 0.167(6) 0.860(9) 1.6(1) 1. 0
#End of TTdata_161649-ICSD