
#(C) 2018 by FIZ Karlsruhe - Leibniz Institute for Information Infrastructure.  All rights reserved.
data_161730-ICSD
_database_code_ICSD 161730
_audit_creation_date 2009-02-01
_chemical_name_systematic
'Cesium lithium aluminium phosphate(V) (1/0.45/0.55/1)'
_chemical_formula_structural 'Cs (Li0.45 Al0.55) (P O4)'
_chemical_formula_sum 'Al0.55 Cs1 Li0.45 O4 P1'
_chemical_name_structure_type CsZnPO4
_exptl_crystal_density_diffrn 3.6
_publ_section_title 'Synthesis and structure of Cs Li0.5 Al0.5 P O4'
loop_
_citation_id
_citation_journal_full
_citation_year
_citation_journal_volume
_citation_page_first
_citation_page_last
_citation_journal_id_ASTM
primary 'Zhurnal Neorganicheskoi Khimii' 2008 53 932 937 ZNOKAQ
loop_
_publ_author_name
'Zaripov, A.R.'
'Asabina, E.A.'
'Pet'kov, V.I. (Petkov, V.I.)'
'Kurazhkovskaya, V.S.'
'Stefanovich, S.Yu.'
'Rovny, S.I.'
_cell_length_a 17.8323(3)
_cell_length_b 5.4250(1)
_cell_length_c 9.3666(2)
_cell_angle_alpha 90.
_cell_angle_beta 89.984(8)
_cell_angle_gamma 90.
_cell_volume 906.13
_cell_formula_units_Z 8
_symmetry_space_group_name_H-M 'P 1 21/a 1'
_symmetry_Int_Tables_number 14
_refine_ls_R_factor_all 0.0182
loop_
_symmetry_equiv_pos_site_id
_symmetry_equiv_pos_as_xyz
1 'x+1/2, -y+1/2, z'
2 '-x, -y, -z'
3 '-x+1/2, y+1/2, -z'
4 'x, y, z'
loop_
_atom_type_symbol
_atom_type_oxidation_number
Cs1+ 1
Li1+ 1
Al3+ 3
Li1+ 1
Al3+ 3
P5+ 5
O2- -2
loop_
_atom_site_label
_atom_site_type_symbol
_atom_site_symmetry_multiplicity
_atom_site_Wyckoff_symbol
_atom_site_fract_x
_atom_site_fract_y
_atom_site_fract_z
_atom_site_B_iso_or_equiv
_atom_site_occupancy
_atom_site_attached_hydrogens
Cs1 Cs1+ 4 e -0.0020(4) 0.2352(9) 0.2008(6) 0.6(2) 1. 0
Cs2 Cs1+ 4 e 0.2504(5) 0.765(1) 0.7021(6) 2.4(2) 1. 0
Li1 Li1+ 4 e 0.0868(3) 0.2683(2) 0.5988(4) 1.0(1) 0.8(1) 0
Al1 Al3+ 4 e 0.0868(3) 0.2683(2) 0.5988(4) 1.0(1) 0.2(1) 0
Li2 Li1+ 4 e 0.1604(5) 0.7387(3) 0.0982(2) 1.2(1) 0.1(1) 0
Al2 Al3+ 4 e 0.1604(5) 0.7387(3) 0.0982(2) 1.2(1) 0.9(1) 0
P1 P5+ 4 e 0.0963(2) 0.7629(5) 0.4163(3) 1.1(6) 1. 0
P2 P5+ 4 e 0.3433(2) 0.7447(5) 0.0795(3) 1.7(7) 1. 0
O1 O2- 4 e -0.0134(8) 0.2446(5) 0.5691(2) 1.1(2) 1. 0
O2 O2- 4 e 0.8765(3) 0.2504(7) 0.7351(5) 1.5(2) 1. 0
O3 O2- 4 e 0.8719(3) 0.0145(8) 0.4987(5) 1.9(2) 1. 0
O4 O2- 4 e 0.3789(3) 0.0506(8) 0.4968(5) 1.4(1) 1. 0
O5 O2- 4 e 0.2617(2) 0.7560(6) 0.1250(2) 1.8(2) 1. 0
O6 O2- 4 e 0.6071(3) 0.2416(2) 0.7923(5) 0.7(2) 1. 0
O7 O2- 4 e 0.3616(2) 0.9509(6) 0.9696(3) 1.1(2) 1. 0
O8 O2- 4 e 0.3658(3) 0.4953(2) 0.0135(6) 2.7(2) 1. 0
#End of TTdata_161730-ICSD