
#(C) 2018 by FIZ Karlsruhe - Leibniz Institute for Information Infrastructure.  All rights reserved.
data_162555-ICSD
_database_code_ICSD 162555
_audit_creation_date 2009-08-01
_chemical_name_systematic 'Lithium gallium telluride'
_chemical_formula_structural 'Li Ga Te2'
_chemical_formula_sum 'Ga1 Li1 Te2'
_chemical_name_structure_type Chalcopyrite-CuFeS2
_exptl_crystal_density_diffrn 4.71
_cell_measurement_temperature 293.
_publ_section_title

;
Li Ga Te2 : a new highly nonlinear chalcopyrite optical crystal for the Mid-IR
;
loop_
_citation_id
_citation_journal_full
_citation_year
_citation_journal_volume
_citation_page_first
_citation_page_last
_citation_journal_id_ASTM
primary 'Crystal Growth & Design' 2005 5 1325 1329 CGDEFU
loop_
_publ_author_name
'Isaenko, L.'
'Krinitsin, P.'
'Vedenyapin, V.'
'Yelisseyev, A.'
'Merkulov, A.'
'Zondy, J.J.'
'Petrov, V.'
_cell_length_a 6.3295(6)
_cell_length_b 6.3295(6)
_cell_length_c 11.682(1)
_cell_angle_alpha 90.
_cell_angle_beta 90.
_cell_angle_gamma 90.
_cell_volume 468.01
_cell_formula_units_Z 4
_symmetry_space_group_name_H-M 'I -4 2 d'
_symmetry_Int_Tables_number 122
_refine_ls_R_factor_all 0.0272
loop_
_symmetry_equiv_pos_site_id
_symmetry_equiv_pos_as_xyz
1 '-y, -x+1/2, z+1/4'
2 'y, -x, -z'
3 'y, x+1/2, z+1/4'
4 '-y, x, -z'
5 'x, -y+1/2, -z+1/4'
6 '-x, -y, z'
7 '-x, y+1/2, -z+1/4'
8 'x, y, z'
9 '-y+1/2, -x, z+3/4'
10 'y+1/2, -x+1/2, -z+1/2'
11 'y+1/2, x, z+3/4'
12 '-y+1/2, x+1/2, -z+1/2'
13 'x+1/2, -y, -z+3/4'
14 '-x+1/2, -y+1/2, z+1/2'
15 '-x+1/2, y, -z+3/4'
16 'x+1/2, y+1/2, z+1/2'
loop_
_atom_type_symbol
_atom_type_oxidation_number
Li1+ 1
Ga3+ 3
Te2- -2
loop_
_atom_site_label
_atom_site_type_symbol
_atom_site_symmetry_multiplicity
_atom_site_Wyckoff_symbol
_atom_site_fract_x
_atom_site_fract_y
_atom_site_fract_z
_atom_site_B_iso_or_equiv
_atom_site_occupancy
_atom_site_attached_hydrogens
Li1 Li1+ 4 a 0 0 0 0.026(9) 1. 0
Ga1 Ga3+ 4 b 0.5 0 0.25 0.014(1) 1. 0
Te1 Te2- 8 d 0.2666(1) 0.75 0.125 0.016(1) 1. 0
#End of TTdata_162555-ICSD