
#(C) 2017 by FIZ Karlsruhe - Leibniz Institute for Information Infrastructure.  All rights reserved.
data_165214-ICSD
_database_code_ICSD 165214
_audit_creation_date 2010-02-01
_chemical_name_systematic 'Lithium hexafluoroosmate(V)'
_chemical_formula_structural 'Li (Os F6)'
_chemical_formula_sum 'F6 Li1 Os1'
_chemical_name_structure_type LiSbF6
_exptl_crystal_density_diffrn 5.16
_cell_measurement_temperature 129.
_publ_section_title

;
M-F interatomic distances and effective volumes of second and third transition
series (M F6)- and (M F6)2- anions
;
loop_
_citation_id
_citation_journal_full
_citation_year
_citation_journal_volume
_citation_page_first
_citation_page_last
_citation_journal_id_ASTM
primary 'Inorganic Chemistry' 2000 39 2794 2800 INOCAJ
loop_
_publ_author_name
'Graudejus, O.'
'Wilkinson, A.P.'
'Chacon, L.C.'
'Bartlett, N.'
_cell_length_a 5.0512(3)
_cell_length_b 5.0512(3)
_cell_length_c 13.5932(9)
_cell_angle_alpha 90.
_cell_angle_beta 90.
_cell_angle_gamma 120.
_cell_volume 300.36
_cell_formula_units_Z 3
_symmetry_space_group_name_H-M 'R -3 H'
_symmetry_Int_Tables_number 148
_refine_ls_R_factor_all 0.0249
loop_
_symmetry_equiv_pos_site_id
_symmetry_equiv_pos_as_xyz
1 'x-y, x, -z'
2 'y, -x+y, -z'
3 '-x, -y, -z'
4 '-x+y, -x, z'
5 '-y, x-y, z'
6 'x, y, z'
7 'x-y+2/3, x+1/3, -z+1/3'
8 'y+2/3, -x+y+1/3, -z+1/3'
9 '-x+2/3, -y+1/3, -z+1/3'
10 '-x+y+2/3, -x+1/3, z+1/3'
11 '-y+2/3, x-y+1/3, z+1/3'
12 'x+2/3, y+1/3, z+1/3'
13 'x-y+1/3, x+2/3, -z+2/3'
14 'y+1/3, -x+y+2/3, -z+2/3'
15 '-x+1/3, -y+2/3, -z+2/3'
16 '-x+y+1/3, -x+2/3, z+2/3'
17 '-y+1/3, x-y+2/3, z+2/3'
18 'x+1/3, y+2/3, z+2/3'
loop_
_atom_type_symbol
_atom_type_oxidation_number
Li1+ 1
Os5+ 5
F1- -1
loop_
_atom_site_label
_atom_site_type_symbol
_atom_site_symmetry_multiplicity
_atom_site_Wyckoff_symbol
_atom_site_fract_x
_atom_site_fract_y
_atom_site_fract_z
_atom_site_B_iso_or_equiv
_atom_site_occupancy
_atom_site_attached_hydrogens
Li1 Li1+ 3 b 0 0 0.5 0.016(5) 1. 0
Os1 Os5+ 3 a 0 0 0 0.0053(3) 1. 0
F1 F1- 18 f 0.3196(9) 0.2820(9) 0.9196(3) 0.0107(6) 1. 0
loop_
_atom_site_aniso_label
_atom_site_aniso_type_symbol
_atom_site_aniso_U_11
_atom_site_aniso_U_22
_atom_site_aniso_U_33
_atom_site_aniso_U_12
_atom_site_aniso_U_13
_atom_site_aniso_U_23
Li1 Li1+ 0.013(7) 0.013(7) 0.021(14) 0.006(4) 0. 0.
Os1 Os5+ 0.0063(3) 0.0063(3) 0.0033(3) 0.0032(2) 0. 0.
F1 F1- 0.011(2) 0.011(2) 0.009(2) 0.0045(12) 0.0020(11) 0.0017(11)
#End of TTdata_165214-ICSD