
#(C) 2017 by FIZ Karlsruhe - Leibniz Institute for Information Infrastructure.  All rights reserved.
data_167072-ICSD
_database_code_ICSD 167072
_audit_creation_date 2010-08-01
_chemical_name_systematic 'Lithium magnesium hexafluorovanadate(III) - alpha'
_chemical_formula_structural 'Li Mn (V F6)'
_chemical_formula_sum 'F6 Li1 Mn1 V1'
_chemical_name_structure_type Na2SiF6
_exptl_crystal_density_diffrn 3.7
_publ_section_title

;
Na2 Si F6 and ordered trirutile-types : crystal and magnetic structure of
alpha- and beta- Li Mn V F6
;
loop_
_citation_id
_citation_journal_full
_citation_year
_citation_journal_volume
_citation_page_first
_citation_page_last
_citation_journal_id_ASTM
primary 'European Journal of Solid State Inorganic Chemistry' 1988 25 359 374
EJSCE5
loop_
_publ_author_name
'Courbion, G.'
'Jacoboni, C.'
'Wolfers, P.'
_cell_length_a 8.711(1)
_cell_length_b 8.711(1)
_cell_length_c 4.653(1)
_cell_angle_alpha 90.
_cell_angle_beta 90.
_cell_angle_gamma 120.
_cell_volume 305.77
_cell_formula_units_Z 3
_symmetry_space_group_name_H-M 'P 3 2 1'
_symmetry_Int_Tables_number 150
_refine_ls_R_factor_all 0.0242
loop_
_symmetry_equiv_pos_site_id
_symmetry_equiv_pos_as_xyz
1 'x-y, -y, -z'
2 '-x, -x+y, -z'
3 'y, x, -z'
4 '-x+y, -x, z'
5 '-y, x-y, z'
6 'x, y, z'
loop_
_atom_type_symbol
_atom_type_oxidation_number
Mn2+ 2
V3+ 3
Li1+ 1
F1- -1
loop_
_atom_site_label
_atom_site_type_symbol
_atom_site_symmetry_multiplicity
_atom_site_Wyckoff_symbol
_atom_site_fract_x
_atom_site_fract_y
_atom_site_fract_z
_atom_site_B_iso_or_equiv
_atom_site_occupancy
_atom_site_attached_hydrogens
Mn1 Mn2+ 3 e 0.3535(1) 0 0 0.53 1. 0
V1 V3+ 3 f 0.6858(1) 0 0.5 0.42 1. 0
Li1 Li1+ 1 a 0 0 0 1.44 1. 0
Li2 Li1+ 2 d 0.3333 0.6667 0.5007(14) 1.06 1. 0
F1 F1- 6 g 0.5316(2) 0.4236(2) 0.2704(2) 0.83 1. 0
F2 F1- 6 g 0.2183(2) 0.4377(2) 0.2768(2) 0.82 1. 0
F3 F1- 6 g 0.2219(2) 0.1133(2) 0.2430(2) 0.74 1. 0
loop_
_atom_site_aniso_label
_atom_site_aniso_type_symbol
_atom_site_aniso_U_11
_atom_site_aniso_U_22
_atom_site_aniso_U_33
_atom_site_aniso_U_12
_atom_site_aniso_U_13
_atom_site_aniso_U_23
Mn1 Mn2+ 0.0084(1) 0.0087(2) 0.0072(2) 0.0043(1) 0.0003(1) 0.0005(1)
V1 V3+ 0.0069(1) 0.0059(2) 0.0061(2) 0.0030(1) 0.0001(1) 0.0002(1)
Li1 Li1+ 0.0241(47) 0.0241(47) 0.0186(43) 0.0120(23) 0. 0.
Li2 Li1+ 0.0137(25) 0.0137(25) 0.0199(36) 0.0069(12) 0. 0.
F1 F1- 0.0125(6) 0.0153(6) 0.0120(4) 0.0081(6) 0.0027(4) 0.0033(4)
F2 F1- 0.0149(6) 0.0120(6) 0.0113(4) 0.0071(6) -0.0026(4) -0.0008(4)
F3 F1- 0.0105(5) 0.0118(6) 0.0114(4) 0.0054(5) -0.0011(4) -0.0032(4)
#End of TTdata_167072-ICSD