
#(C) 2018 by FIZ Karlsruhe - Leibniz Institute for Information Infrastructure.  All rights reserved.
data_167252-ICSD
_database_code_ICSD 167252
_audit_creation_date 2010-08-01
_chemical_name_systematic 'Lithium manganese phosphate(V) - nanocrystalline'
_chemical_formula_structural 'Li Mn (P O4)'
_chemical_formula_sum 'Li1 Mn1 O4 P1'
_chemical_name_structure_type Olivine-Mg2SiO4
_exptl_crystal_density_diffrn 3.45
_publ_section_title

;
Nano-crystalline Li Mn P O4 prepared by a new phosphate-formate precursor
method
;
loop_
_citation_id
_citation_journal_full
_citation_year
_citation_journal_volume
_citation_page_first
_citation_page_last
_citation_journal_id_ASTM
primary 'Materials Chemistry and Physics' 2010 121 370 377 MCHPDR
loop_
_publ_author_name
'Koleva, V.'
'Stoyanova, R.'
'Zhecheva, E.'
_cell_length_a 10.4376(2)
_cell_length_b 6.0956(1)
_cell_length_c 4.7425(1)
_cell_angle_alpha 90.
_cell_angle_beta 90.
_cell_angle_gamma 90.
_cell_volume 301.73
_cell_formula_units_Z 4
_symmetry_space_group_name_H-M 'P n m a'
_symmetry_Int_Tables_number 62
_refine_ls_R_factor_all 0.0188
loop_
_symmetry_equiv_pos_site_id
_symmetry_equiv_pos_as_xyz
1 'x+1/2, y, -z+1/2'
2 'x, -y+1/2, z'
3 '-x+1/2, y+1/2, z+1/2'
4 '-x, -y, -z'
5 '-x+1/2, -y, z+1/2'
6 '-x, y+1/2, -z'
7 'x+1/2, -y+1/2, -z+1/2'
8 'x, y, z'
loop_
_atom_type_symbol
_atom_type_oxidation_number
Li1+ 1
Mn2+ 2
Li1+ 1
P5+ 5
O2- -2
loop_
_atom_site_label
_atom_site_type_symbol
_atom_site_symmetry_multiplicity
_atom_site_Wyckoff_symbol
_atom_site_fract_x
_atom_site_fract_y
_atom_site_fract_z
_atom_site_B_iso_or_equiv
_atom_site_occupancy
_atom_site_attached_hydrogens
Li1 Li1+ 4 a 0 0 0 1.22 0.991 0
Mn1 Mn2+ 4 a 0 0 0 1.22 0.009 0
Mn2 Mn2+ 4 c 0.2815(1) 0.25 0.9704(3) 0.63 0.991 0
Li2 Li1+ 4 c 0.2815(1) 0.25 0.9704(3) 0.63 0.009 0
P1 P5+ 4 c 0.0934(2) 0.25 0.4109(4) 0.74 1. 0
O1 O2- 4 c 0.0967(4) 0.25 0.7287(7) 0.36 1. 0
O2 O2- 4 c 0.4573(4) 0.25 0.2133(7) 0.79 1. 0
O3 O2- 8 d 0.1621(3) 0.0513(5) 0.2766(5) 0.59 1. 0
#End of TTdata_167252-ICSD