
#(C) 2018 by FIZ Karlsruhe - Leibniz Institute for Information Infrastructure.  All rights reserved.
data_167562-ICSD
_database_code_ICSD 167562
_audit_creation_date 2011-02-01
_audit_update_record 2013-08-01
_chemical_name_systematic 'Dilithium hydrogen phosphate(III) hydrate'
_chemical_formula_structural 'Li2 (H P O3) (H2 O)'
_chemical_formula_sum 'H3 Li2 O4 P1'
_chemical_name_structure_type Li2HPO3H2O
_exptl_crystal_density_diffrn 1.93
_publ_section_title 'Li2 H P O3 * (H2 O): crystal structure and IR spectrum'
loop_
_citation_id
_citation_journal_full
_citation_year
_citation_journal_volume
_citation_page_first
_citation_page_last
_citation_journal_id_ASTM
primary 'Journal of Chemical Crystallography' 2010 40 526 530 JCCYEV
loop_
_publ_author_name
'Chaouche, s.'
'Ouarsal, R.'
'El Bali, B.'
'Lachkar, M.'
'Bolte, M.'
'Dusek, M.'
_cell_length_a 5.0322(9)
_cell_length_b 8.9795(17)
_cell_length_c 17.088(4)
_cell_angle_alpha 90.
_cell_angle_beta 92.672(16)
_cell_angle_gamma 90.
_cell_volume 771.31
_cell_formula_units_Z 8
_symmetry_space_group_name_H-M 'P 1 21/c 1'
_symmetry_Int_Tables_number 14
_refine_ls_R_factor_all 0.0294
loop_
_symmetry_equiv_pos_site_id
_symmetry_equiv_pos_as_xyz
1 'x, -y+1/2, z+1/2'
2 '-x, -y, -z'
3 '-x, y+1/2, -z+1/2'
4 'x, y, z'
loop_
_atom_type_symbol
_atom_type_oxidation_number
P5+ 5
H1- -1
P3+ 3
H1+ 1
O2- -2
Li1+ 1
O2- -2
H1+ 1
O2- -2
H1+ 1
loop_
_atom_site_label
_atom_site_type_symbol
_atom_site_symmetry_multiplicity
_atom_site_Wyckoff_symbol
_atom_site_fract_x
_atom_site_fract_y
_atom_site_fract_z
_atom_site_B_iso_or_equiv
_atom_site_occupancy
_atom_site_attached_hydrogens
P1 P5+ 4 e 0.30201(8) 0.98763(4) 0.40024(2) 0.01050(16) 1 0
H1 H1- 4 e 0.215(4) 0.9733(19) 0.3301(12) 0.013 1 0
P2 P3+ 4 e 0.80352(8) 0.49823(4) 0.39267(2) 0.01084(16) 1 0
H2 H1+ 4 e 0.740(4) 0.4875(18) 0.3210(12) 0.013 1 0
O1 O2- 4 e 0.1891(2) 0.13211(12) 0.43248(7) 0.0133(3) 1 0
O2 O2- 4 e 0.6033(2) 0.99205(11) 0.39906(7) 0.0139(3) 1 0
O3 O2- 4 e 0.1968(2) 0.85253(12) 0.44295(7) 0.0128(3) 1 0
O4 O2- 4 e 0.6804(2) 0.63821(12) 0.42387(7) 0.0167(3) 1 0
O5 O2- 4 e 0.1055(2) 0.50034(11) 0.39910(7) 0.0142(3) 1 0
O6 O2- 4 e 0.6855(2) 0.35818(12) 0.42846(6) 0.0127(3) 1 0
Li1 Li1+ 4 e 0.3212(6) 0.6468(3) 0.45360(17) 0.0157(6) 1 0
Li2 Li1+ 4 e 0.3117(6) 0.3215(3) 0.39082(17) 0.0175(6) 1 0
Li3 Li1+ 4 e 0.8069(6) 0.1566(3) 0.44044(17) 0.0148(6) 1 0
Li4 Li1+ 4 e 0.8044(6) 0.8303(3) 0.44795(17) 0.0156(6) 1 0
O7 O2- 4 e 0.2841(3) 0.29142(15) 0.27536(8) 0.0224(3) 1 0
H3 H1+ 4 e 0.412(6) 0.247(3) 0.2576(16) 0.039(7) 1 0
H4 H1+ 4 e 0.145(7) 0.247(3) 0.2598(18) 0.061(10) 1 0
O8 O2- 4 e 0.2320(3) 0.63645(16) 0.25170(9) 0.0232(3) 1. 0
H5 H1+ 4 e 0.221(6) 0.593(3) 0.2912(18) 0.048(8) 1. 0
H6 H1+ 4 e 0.264(7) 0.570(3) 0.219(2) 0.061(9) 1. 0
#End of TTdata_167562-ICSD