
#(C) 2017 by FIZ Karlsruhe - Leibniz Institute for Information Infrastructure.  All rights reserved.
data_16793-ICSD
_database_code_ICSD 16793
_audit_creation_date 1986-10-03
_audit_update_record 2012-08-01
_chemical_name_systematic 'Dilithium hexafluorozirconate'
_chemical_formula_structural 'Li2 (Zr F6)'
_chemical_formula_sum 'F6 Li2 Zr1'
_chemical_name_structure_type Li2ZrF6
_exptl_crystal_density_diffrn 3.64
_publ_section_title 'Zur Kristallstrukutr von Li2 Zr F6'
loop_
_citation_id
_citation_journal_full
_citation_year
_citation_journal_volume
_citation_page_first
_citation_page_last
_citation_journal_id_ASTM
primary Naturwissenschaften 1960 47 397 397 NATWAY
loop_
_publ_author_name
'Hoppe, R.'
'Daehne, W.'
_cell_length_a 4.98
_cell_length_b 4.98
_cell_length_c 4.66
_cell_angle_alpha 90.
_cell_angle_beta 90.
_cell_angle_gamma 120.
_cell_volume 100.09
_cell_formula_units_Z 1
_symmetry_space_group_name_H-M 'P -3 1 m'
_symmetry_Int_Tables_number 162
_refine_ls_R_factor_all 0.081
loop_
_symmetry_equiv_pos_site_id
_symmetry_equiv_pos_as_xyz
1 '-x+y, y, -z'
2 'x, x-y, -z'
3 '-y, -x, -z'
4 'x-y, x, -z'
5 'y, -x+y, -z'
6 '-x, -y, -z'
7 'x-y, -y, z'
8 '-x, -x+y, z'
9 'y, x, z'
10 '-x+y, -x, z'
11 '-y, x-y, z'
12 'x, y, z'
loop_
_atom_type_symbol
_atom_type_oxidation_number
Zr4+ 4
F1- -1
Li1+ 1
loop_
_atom_site_label
_atom_site_type_symbol
_atom_site_symmetry_multiplicity
_atom_site_Wyckoff_symbol
_atom_site_fract_x
_atom_site_fract_y
_atom_site_fract_z
_atom_site_B_iso_or_equiv
_atom_site_occupancy
_atom_site_attached_hydrogens
Zr1 Zr4+ 1 a 0 0 0 . 1. 0
F1 F1- 6 k 0.333 0 0.24 . 1. 0
Li1 Li1+ 2 d 0.3333 0.6667 0.5 . 1. 0
#End of TTdata_16793-ICSD