
#(C) 2018 by FIZ Karlsruhe - Leibniz Institute for Information Infrastructure.  All rights reserved.
data_169473-ICSD
_database_code_ICSD 169473
_audit_creation_date 2011-08-01
_chemical_name_systematic 'Lithium iron digermanate'
_chemical_formula_structural 'Li Fe (Ge2 O6)'
_chemical_formula_sum 'Fe1 Ge2 Li1 O6'
_chemical_name_structure_type Pyroxene-MgSiO3-LT
_exptl_crystal_density_diffrn 4.58
_cell_measurement_temperature 90.
_publ_section_title

;
Thermal expansion and high-temperature P21/c - C2/c phase transition in
clinopyroxene-type Li Fe Ge2 O6 and comparison to Na Fe (Si, Ge)2 O6
;
loop_
_citation_id
_citation_journal_full
_citation_year
_citation_journal_volume
_citation_page_first
_citation_page_last
_citation_journal_id_ASTM
primary 'Physics and Chemistry of Minerals' 2010 37 685 704 PCMIDU
loop_
_publ_author_name
'Redhammer, G.J.'
'Camara, F.'
'Alvaro, M.'
'Nestola, F.'
'Tippelt, G.'
'Prinz, S.'
'Simons, J.'
'Roth, G.'
'Amthauer, G.'
_cell_length_a 9.8636(8)
_cell_length_b 8.8050(8)
_cell_length_c 5.3648(5)
_cell_angle_alpha 90.
_cell_angle_beta 108.841(4)
_cell_angle_gamma 90.
_cell_volume 440.96
_cell_formula_units_Z 4
_symmetry_space_group_name_H-M 'P 1 21/c 1'
_symmetry_Int_Tables_number 14
_refine_ls_R_factor_all 0.0277
loop_
_symmetry_equiv_pos_site_id
_symmetry_equiv_pos_as_xyz
1 'x, -y+1/2, z+1/2'
2 '-x, -y, -z'
3 '-x, y+1/2, -z+1/2'
4 'x, y, z'
loop_
_atom_type_symbol
_atom_type_oxidation_number
Li1+ 1
Fe3+ 3
Ge4+ 4
O2- -2
loop_
_atom_site_label
_atom_site_type_symbol
_atom_site_symmetry_multiplicity
_atom_site_Wyckoff_symbol
_atom_site_fract_x
_atom_site_fract_y
_atom_site_fract_z
_atom_site_B_iso_or_equiv
_atom_site_occupancy
_atom_site_attached_hydrogens
Li1 Li1+ 4 e 0.2581(6) 0.4894(8) 0.7229(12) 0.0126(14) 1. 0
Fe1 Fe3+ 4 e 0.25075(5) 0.65072(6) 0.2135(1) 0.0058(2) 1. 0
Ge1 Ge4+ 4 e 0.04608(4) 0.34196(4) 0.28184(8) 0.0059(2) 1. 0
Ge2 Ge4+ 4 e 0.55278(4) 0.83939(4) 0.23032(8) 0.0058(2) 1. 0
O1 O2- 4 e -0.1416(3) 0.3321(3) 0.1761(5) 0.0066(6) 1. 0
O2 O2- 4 e 0.1146(3) 0.5219(3) 0.2863(5) 0.0085(6) 1. 0
O3 O2- 4 e 0.1181(3) 0.2907(3) 0.6159(5) 0.0080(6) 1. 0
O4 O2- 4 e 0.3646(3) 0.8315(3) 0.1075(5) 0.0068(6) 1. 0
O5 O2- 4 e 0.6296(3) 0.0038(3) 0.3845(5) 0.0085(5) 1. 0
O6 O2- 4 e 0.6122(3) 0.6891(3) 0.4571(5) 0.0068(5) 1. 0
#End of TTdata_169473-ICSD