
#(C) 2018 by FIZ Karlsruhe - Leibniz Institute for Information Infrastructure.  All rights reserved.
data_172018-ICSD
_database_code_ICSD 172018
_audit_creation_date 2007-04-01
_chemical_name_systematic 'Sodium dilithium ruthenate'
_chemical_formula_structural 'Na Li2 Ru6 O12'
_chemical_formula_sum 'Li2 Na1 O12 Ru6'
_chemical_name_structure_type CaMg2Al6O12
_chemical_name_mineral Hollandite-(Ru)
_exptl_crystal_density_diffrn 6.56
_publ_section_title

;
Synthesis and characterization of the pseudo-hexagonal hollandites A Li2 Ru6
O12 (A = Na, K)
;
loop_
_citation_id
_citation_journal_full
_citation_year
_citation_journal_volume
_citation_page_first
_citation_page_last
_citation_journal_id_ASTM
primary 'Journal of Solid State Chemistry' 2006 179 941 948 JSSCBI
loop_
_publ_author_name
'Foo, M.L.'
'He, T.'
'Huang, Q.'
'Zandbergen, H.W.'
'Siegrist, T.'
'Lawes, G.'
'Ramirez, A.P.'
'Cava, R.J.'
_cell_length_a 9.3762(13)
_cell_length_b 9.3762(13)
_cell_length_c 2.7786(6)
_cell_angle_alpha 90.
_cell_angle_beta 90.
_cell_angle_gamma 120.
_cell_volume 211.55
_cell_formula_units_Z 1
_symmetry_space_group_name_H-M 'P 63/m'
_symmetry_Int_Tables_number 176
_refine_ls_R_factor_all 0.044
loop_
_symmetry_equiv_pos_site_id
_symmetry_equiv_pos_as_xyz
1 '-x+y, -x, -z+1/2'
2 '-y, x-y, -z+1/2'
3 'x, y, -z+1/2'
4 'x-y, x, -z'
5 'y, -x+y, -z'
6 '-x, -y, -z'
7 'x-y, x, z+1/2'
8 'y, -x+y, z+1/2'
9 '-x, -y, z+1/2'
10 '-x+y, -x, z'
11 '-y, x-y, z'
12 'x, y, z'
loop_
_atom_type_symbol
_atom_type_oxidation_number
Ru3+ 3.5
O2- -2
Na1+ 1
Li1+ 1
loop_
_atom_site_label
_atom_site_type_symbol
_atom_site_symmetry_multiplicity
_atom_site_Wyckoff_symbol
_atom_site_fract_x
_atom_site_fract_y
_atom_site_fract_z
_atom_site_B_iso_or_equiv
_atom_site_occupancy
_atom_site_attached_hydrogens
Ru1 Ru3+ 6 h 0.36035(24) 0.01829(25) 0.25 .60(11) 1. 0
O1 O2- 6 h 0.4603(20) 0.8648(20) 0.25 .3(3) 1. 0
O2 O2- 6 h 0.2953(19) 0.1937(20) 0.25 .2(3) 1. 0
Na1 Na1+ 2 a 0 0 0.25 4.0(4) .5 0
Li1 Li1+ 2 d 0.6667 0.3333 0.25 .5(13) 1. 0
loop_
_atom_site_aniso_label
_atom_site_aniso_type_symbol
_atom_site_aniso_U_11
_atom_site_aniso_U_22
_atom_site_aniso_U_33
_atom_site_aniso_U_12
_atom_site_aniso_U_13
_atom_site_aniso_U_23
Ru1 Ru3+ .0066(11) .0069(13) .0089(12) .0031(9) 0 0
Na1 Na1+ .003(11) .003(11) .1409(9) .002 0 0
#End of TTdata_172018-ICSD