
#(C) 2018 by FIZ Karlsruhe - Leibniz Institute for Information Infrastructure.  All rights reserved.
data_172179-ICSD
_database_code_ICSD 172179
_audit_creation_date 2007-04-01
_audit_update_record 2016-02-01
_chemical_name_systematic 'Lithium ruthenium oxide (0.8/1/3)'
_chemical_formula_structural 'Li0.80 O3 Ru'
_chemical_formula_sum 'Li0.8 O3 Ru1'
_exptl_crystal_density_diffrn 4.87
_cell_measurement_temperature 295.
_publ_section_title

;
Synthesis, structure and physical properties of Ru ferrites: Ba M Ru5 O11 (M =
Li and Cu) and Ba M'2 Ru4 O11 (M' = Mn, Fe  and Co)
;
loop_
_citation_id
_citation_journal_full
_citation_year
_citation_journal_volume
_citation_page_first
_citation_page_last
_citation_journal_id_ASTM
primary 'Journal of Solid State Chemistry' 2006 179 563 572 JSSCBI
loop_
_publ_author_name
'Foo, M.L.'
'Huang, Q.'
'Lynn, J.W.'
'Lee, W.-L.'
'Klimczuk, T.'
'Hagemann, I.S.'
'Ong, N.P.'
'Cava, R.J.'
_cell_length_a 4.9274(22)
_cell_length_b 8.786(4)
_cell_length_c 9.8860(31)
_cell_angle_alpha 90.
_cell_angle_beta 100.023(35)
_cell_angle_gamma 90.
_cell_volume 421.45
_cell_formula_units_Z 8
_symmetry_space_group_name_H-M 'C 1 2/c 1'
_symmetry_Int_Tables_number 15
loop_
_symmetry_equiv_pos_site_id
_symmetry_equiv_pos_as_xyz
1 'x, -y, z+1/2'
2 '-x, -y, -z'
3 '-x, y, -z+1/2'
4 'x, y, z'
5 'x+1/2, -y+1/2, z+1/2'
6 '-x+1/2, -y+1/2, -z'
7 '-x+1/2, y+1/2, -z+1/2'
8 'x+1/2, y+1/2, z'
loop_
_atom_type_symbol
_atom_type_oxidation_number
Ru5+ 5.2
Li1+ 1
O2- -2
loop_
_atom_site_label
_atom_site_type_symbol
_atom_site_symmetry_multiplicity
_atom_site_Wyckoff_symbol
_atom_site_fract_x
_atom_site_fract_y
_atom_site_fract_z
_atom_site_B_iso_or_equiv
_atom_site_occupancy
_atom_site_attached_hydrogens
Ru1 Ru5+ 8 f 0.22889 0.06352 -0.0084 0.01 1. 0
Li1 Li1+ 4 d 0.25 0.25 0.5 0.01 0.4 0
Li2 Li1+ 4 e 0. 0.1 0.25 0.01 0.4 0
Li3 Li1+ 4 e 0. 0.41 0.25 0.01 0.4 0
Li4 Li1+ 4 e 0. 0.72 0.25 0.01 0.4 0
O1 O2- 8 f 0.132 0.25 0.12 0.01 1. 0
O2 O2- 8 f 0.122 0.577 0.1 0.01 1. 0
O3 O2- 8 f 0.128 0.923 0.129 0.01 1. 0
#End of TTdata_172179-ICSD