
#(C) 2018 by FIZ Karlsruhe - Leibniz Institute for Information Infrastructure.  All rights reserved.
data_172987-ICSD
_database_code_ICSD 172987
_audit_creation_date 2008-02-01
_chemical_name_systematic 'Lithium dihydrogen triarsenate(V)'
_chemical_formula_structural 'Li H2 As3 O9'
_chemical_formula_sum 'H2 As3 Li1 O9'
_exptl_crystal_density_diffrn 3.44
_cell_measurement_temperature 293.
_publ_section_title
'Octahedral As in M(+) arsenates - architecture and seven new members'
loop_
_citation_id
_citation_journal_full
_citation_year
_citation_journal_volume
_citation_page_first
_citation_page_last
_citation_journal_id_ASTM
primary 'Acta Crystallographica, Section B: Structural Science' 2007 63 205 215
ASBSDK
loop_
_publ_author_name
'Schwendtner, K.'
'Kolitsch, U.'
_cell_length_a 9.666(2)
_cell_length_b 8.553(2)
_cell_length_c 9.970(2)
_cell_angle_alpha 90.
_cell_angle_beta 117.86(3)
_cell_angle_gamma 90.
_cell_volume 728.72
_cell_formula_units_Z 4
_symmetry_space_group_name_H-M 'P 1 21/n 1'
_symmetry_Int_Tables_number 14
_refine_ls_R_factor_all 0.0203
loop_
_symmetry_equiv_pos_site_id
_symmetry_equiv_pos_as_xyz
1 '-x+1/2, y+1/2, -z+1/2'
2 '-x, -y, -z'
3 'x+1/2, -y+1/2, z+1/2'
4 'x, y, z'
loop_
_atom_type_symbol
_atom_type_oxidation_number
Li1+ 1
As5+ 5
O2- -2
H1+ 1
loop_
_atom_site_label
_atom_site_type_symbol
_atom_site_symmetry_multiplicity
_atom_site_Wyckoff_symbol
_atom_site_fract_x
_atom_site_fract_y
_atom_site_fract_z
_atom_site_B_iso_or_equiv
_atom_site_occupancy
_atom_site_attached_hydrogens
Li1 Li1+ 4 e 0.1185(4) 0.3960(5) -0.0064(4) 0.0214(7) 1 0
As1 As5+ 4 e 0.678516(18) 0.31828(2) 0.246046(18) 0.00675(5) 1 0
As2 As5+ 4 e 0.23643(2) 0.74101(2) 0.14218(2) 0.01002(5) 1 0
As3 As5+ 4 e 0.512553(18) 0.621549(19) 0.093417(18) 0.00611(5) 1 0
O1 O2- 4 e 0.57329(15) 0.22161(17) 0.30721(15) 0.0143(3) 1 0
O2 O2- 4 e 0.87509(14) 0.29929(15) 0.35492(14) 0.0099(2) 1 0
O3 O2- 4 e 0.64351(14) 0.27106(15) 0.06575(13) 0.0087(2) 1 0
O4 O2- 4 e 0.66646(14) 0.51858(15) 0.25973(13) 0.0096(2) 1 0
O5 O2- 4 e 0.10202(16) 0.61787(17) 0.03233(16) 0.0163(3) 1 0
O6 O2- 4 e 0.2219(2) 0.92498(18) 0.07138(18) 0.0226(3) 1 0
O7 O2- 4 e 0.23344(17) 0.77879(18) 0.30912(16) 0.0169(3) 1 0
O8 O2- 4 e 0.42371(14) 0.67263(16) 0.21032(14) 0.0111(2) 1 0
O9 O2- 4 e 0.40428(14) 0.43919(14) 0.02858(13) 0.0080(2) 1 0
H1 H1+ 4 e 0.207(5) 0.913(6) -0.022(3) 0.081(14) 1 0
H2 H1+ 4 e 0.138(4) 0.770(4) 0.291(4) 0.042(9) 1 0
loop_
_atom_site_aniso_label
_atom_site_aniso_type_symbol
_atom_site_aniso_U_11
_atom_site_aniso_U_22
_atom_site_aniso_U_33
_atom_site_aniso_U_12
_atom_site_aniso_U_13
_atom_site_aniso_U_23
Li1 Li1+ 0.0224(18) 0.0220(18) 0.0200(16) -0.0033(14) 0.0100(15) -0.0079(14)
As1 As5+ 0.00585(8) 0.00740(8) 0.00668(8) 0.00064(5) 0.00266(6) 0.00099(5)
As2 As5+ 0.00831(8) 0.01084(9) 0.01156(8) 0.00031(6) 0.00517(7) -0.00260(6)
As3 As5+ 0.00527(8) 0.00650(8) 0.00599(7) -0.00004(5) 0.00214(6) -0.00063(5)
O1 O2- 0.0107(6) 0.0182(7) 0.0164(6) -0.0005(5) 0.0083(5) 0.0060(5)
O2 O2- 0.0060(5) 0.0081(5) 0.0110(5) 0.0015(4) 0.0002(4) 0.0009(4)
O3 O2- 0.0078(5) 0.0103(6) 0.0059(5) 0.0033(4) 0.0015(4) -0.0003(4)
O4 O2- 0.0091(5) 0.0083(5) 0.0071(5) 0.0021(4) 0.0003(4) -0.0002(4)
O5 O2- 0.0105(6) 0.0185(7) 0.0194(6) -0.0035(5) 0.0065(5) -0.0085(5)
O6 O2- 0.0337(9) 0.0131(7) 0.0241(7) 0.0054(6) 0.0159(7) 0.0027(6)
O7 O2- 0.0131(6) 0.0253(7) 0.0161(6) -0.0020(5) 0.0100(5) -0.0069(5)
O8 O2- 0.0085(5) 0.0172(6) 0.0084(5) 0.0017(4) 0.0047(4) -0.0016(4)
O9 O2- 0.0084(5) 0.0077(5) 0.0090(5) -0.0014(4) 0.0051(4) -0.0015(4)
#End of TTdata_172987-ICSD