
#(C) 2018 by FIZ Karlsruhe - Leibniz Institute for Information Infrastructure.  All rights reserved.
data_173882-ICSD
_database_code_ICSD 173882
_audit_creation_date 2009-08-01
_chemical_name_systematic 'Lithium tetrakis(uranyl) tris(phosphate(V))'
_chemical_formula_structural 'Li (U O2)4 (P O4)3'
_chemical_formula_sum 'Li1 O20 P3 U4'
_exptl_crystal_density_diffrn 5.55
_cell_measurement_temperature 293.
_publ_section_title

;
Channels occupany and distortion in new lithium uranyl phosphates with
three-dimensional open-frameworks
;
loop_
_citation_id
_citation_journal_full
_citation_year
_citation_journal_volume
_citation_page_first
_citation_page_last
_citation_journal_id_ASTM
primary 'Journal of Solid State Chemistry' 2009 182 1377 1386 JSSCBI
loop_
_publ_author_name
'Renard, C.'
'Obbade, S.'
'Abraham, F.'
_cell_length_a 9.8829(2)
_cell_length_b 9.8909(2)
_cell_length_c 17.4871(4)
_cell_angle_alpha 90.
_cell_angle_beta 106.198(1)
_cell_angle_gamma 90.
_cell_volume 1641.52
_cell_formula_units_Z 4
_symmetry_space_group_name_H-M 'P 1 21/c 1'
_symmetry_Int_Tables_number 14
_refine_ls_R_factor_all 0.0216
loop_
_symmetry_equiv_pos_site_id
_symmetry_equiv_pos_as_xyz
1 'x, -y+1/2, z+1/2'
2 '-x, -y, -z'
3 '-x, y+1/2, -z+1/2'
4 'x, y, z'
loop_
_atom_type_symbol
_atom_type_oxidation_number
U6+ 6
P5+ 5
O2- -2
Li1+ 1
loop_
_atom_site_label
_atom_site_type_symbol
_atom_site_symmetry_multiplicity
_atom_site_Wyckoff_symbol
_atom_site_fract_x
_atom_site_fract_y
_atom_site_fract_z
_atom_site_B_iso_or_equiv
_atom_site_occupancy
_atom_site_attached_hydrogens
U1 U6+ 4 e 0.53168(2) 0.12533(2) 0.31155(2) 0.00589(6) 1. 0
U2 U6+ 4 e 0.97181(2) 0.12330(2) 0.19176(2) 0.00567(6) 1. 0
U3 U6+ 4 e 0.08649(2) 0.13514(2) 0.44337(2) 0.00846(6) 1. 0
U4 U6+ 4 e 0.39381(2) 0.11471(2) 0.05782(1) 0.00842(6) 1. 0
P1 P5+ 4 e 0.25480(1) 0.8747(2) 0.25740(8) 0.0097(4) 1. 0
P2 P5+ 4 e 0.6929(2) 0.8779(2) 0.13169(8) 0.0063(4) 1. 0
P3 P5+ 4 e 0.1884(2) 0.3725(2) 0.13248(8) 0.0064(4) 1. 0
O1 O2- 4 e 0.2340(4) 0.2790(4) 0.0732(2) 0.013(3) 1. 0
O2 O2- 4 e 0.7996(4) 0.9718(4) 0.1838(2) 0.017(2) 1. 0
O3 O2- 4 e 0.1971(4) 0.7877(4) 0.3142(2) 0.017(2) 1. 0
O4 O2- 4 e 0.0771(4) 0.4589(4) 0.0731(2) 0.013(2) 1. 0
O5 O2- 4 e 0.7562(4) 0.8029(4) 0.0726(2) 0.014(2) 1. 0
O6 O2- 4 e 0.5904(4) 0.1319(4) 0.4166(2) 0.020(2) 1. 0
O7 O2- 4 e 0.3699(4) 0.9621(4) 0.3142(2) 0.016(2) 1. 0
O8 O2- 4 e 0.1216(4) 0.2913(4) 0.1849(2) 0.016(2) 1. 0
O9 O2- 4 e 0.6309(4) 0.7820(4) 0.1783(2) 0.015(2) 1. 0
O10 O2- 4 e 0.5766(4) 0.9599(4) 0.0723(2) 0.015(2) 1. 0
O11 O2- 4 e 0.0162(4) 0.1314(4) 0.3029(2) 0.015(2) 1. 0
O12 O2- 4 e 0.4659(4) 0.1140(4) 0.2003(3) 0.016(2) 1. 0
O13 O2- 4 e 0.3082(4) 0.4583(4) 0.1789(2) 0.014(2) 1. 0
O14 O2- 4 e 0.3182(4) 0.7857(4) 0.2059(2) 0.016(2) 1. 0
O15 O2- 4 e 0.9278(4) 0.1157(4) 0.0873(2) 0.022(2) 1. 0
O16 O2- 4 e 0.5143(4) 0.2460(4) 0.0575(2) 0.019(2) 1. 0
O17 O2- 4 e 0.1403(4) 0.9644(4) 0.2070(2) 0.017(2) 1. 0
O18 O2- 4 e -0.0448(4) 0.2531(4) 0.4432(3) 0.021(2) 1. 0
O19 O2- 4 e 0.2185(4) 0.0146(4) 0.4435(2) 0.019(2) 1. 0
O20 O2- 4 e 0.2757(4) -0.0158(4) 0.0583(3) 0.021(2) 1. 0
Li1 Li1+ 4 e 0.329(2) 0.873(2) 0.419(2) 0.064(4) 1. 0
loop_
_atom_site_aniso_label
_atom_site_aniso_type_symbol
_atom_site_aniso_U_11
_atom_site_aniso_U_22
_atom_site_aniso_U_33
_atom_site_aniso_U_12
_atom_site_aniso_U_13
_atom_site_aniso_U_23
U1 U6+ 0.00601(9) 0.0065(1) 0.0049(2) 0.00009(5) 0.00104(7) -0.00007(6)
U2 U6+ 0.00597(9) 0.0066(1) 0.0041(1) -0.00025(6) 0.00088(7) -0.00005(6)
U3 U6+ 0.0098(1) 0.0106(1) 0.0045(1) -0.00413(6) 0.00131(7) -0.00033(7)
U4 U6+ 0.0092(1) 0.0105(1) 0.0047(1) 0.00391(6) 0.00061(7) 0.00034(7)
P1 P5+ 0.0085(6) 0.0078(6) 0.0132(7) 0.0001(4) 0.0037(5) -0.0008(4)
P2 P5+ 0.0068(6) 0.0094(6) 0.0023(6) 0.0001(4) 0.0006(5) -0.0003(4)
P3 P5+ 0.0076(6) 0.0074(6) 0.0036(6) -0.0002(4) 0.0005(5) 0.0000(4)
O1 O2- 0.015(2) 0.019(2) 0.004(2) 0.012(2) 0.001(2) 0.001(2)
O2 O2- 0.023(2) 0.015(2) 0.013(2) -0.009(2) 0.005(2) -0.000(2)
O3 O2- 0.015(2) 0.014(2) 0.023(2) 0.008(2) 0.007(2) -0.003(2)
O4 O2- 0.017(2) 0.017(2) 0.002(2) 0.012(2) -0.001(2) 0.001(2)
O5 O2- 0.019(2) 0.015(2) 0.007(2) 0.011(2) 0.004(2) -0.002(2)
O6 O2- 0.026(2) 0.026(2) 0.005(2) 0.005(2) -0.003(2) -0.003(2)
O7 O2- 0.017(2) 0.014(2) 0.019(2) -0.006(2) 0.007(2) -0.001(2)
O8 O2- 0.016(2) 0.019(2) 0.012(2) -0.009(2) 0.003(2) 0.000(2)
O9 O2- 0.017(2) 0.018(2) 0.009(2) -0.007(2) 0.002(2) -0.001(2)
O10 O2- 0.020(2) 0.021(2) 0.003(2) 0.015(2) 0.000(2) 0.002(2)
O11 O2- 0.018(2) 0.017(2) 0.009(2) -0.004(1) 0.003(2) -0.003(2)
O12 O2- 0.018(2) 0.015(2) 0.014(2) 0.000(2) 0.003(2) -0.001(2)
O13 O2- 0.015(2) 0.017(2) 0.009(2) -0.009(2) 0.001(2) -0.001(2)
O14 O2- 0.016(2) 0.019(2) 0.014(2) 0.006(2) 0.004(2) -0.003(2)
O15 O2- 0.030(2) 0.030(2) 0.004(2) -0.005(2) 0.003(2) -0.000(2)
O16 O2- 0.019(2) 0.025(2) 0.012(2) -0.005(2) 0.001(2) -0.003(2)
O17 O2- 0.015(2) 0.016(2) 0.019(2) 0.008(2) 0.003(2) -0.001(2)
O18 O2- 0.017(2) 0.023(2) 0.020(2) 0.008(2) -0.001(2) 0.000(2)
O19 O2- 0.019(2) 0.019(2) 0.020(2) 0.005(2) 0.006(2) -0.002(2)
O20 O2- 0.021(2) 0.019(2) 0.023(2) -0.006(2) 0.005(2) 0.001(2)
#End of TTdata_173882-ICSD