
#(C) 2018 by FIZ Karlsruhe - Leibniz Institute for Information Infrastructure.  All rights reserved.
data_174056-ICSD
_database_code_ICSD 174056
_audit_creation_date 2010-02-01
_chemical_name_systematic 'Lithium rubidium sulfate(VI)'
_chemical_formula_structural 'Li Rb (S O4)'
_chemical_formula_sum 'Li1 O4 Rb1 S1'
_exptl_crystal_density_diffrn 2.96
_cell_measurement_temperature 493.
_publ_section_title
'A structural study of the successive transitions in Li Rb S O4'
loop_
_citation_id
_citation_journal_full
_citation_year
_citation_journal_volume
_citation_page_first
_citation_page_last
_citation_journal_id_ASTM
primary 'Journal of the Physical Society of Japan' 1987 56 3189 3195 JUPSAU
loop_
_publ_author_name
'Kunishige, A.'
'Mashiyama, H.'
_cell_length_a 5.304(1)
_cell_length_b 9.174(4)
_cell_length_c 8.701(2)
_cell_angle_alpha 90.
_cell_angle_beta 90.
_cell_angle_gamma 90.
_cell_volume 423.38
_cell_formula_units_Z 4
_symmetry_space_group_name_H-M 'P m c n'
_symmetry_Int_Tables_number 62
_refine_ls_R_factor_all 0.046
loop_
_symmetry_equiv_pos_site_id
_symmetry_equiv_pos_as_xyz
1 'x, -y+1/2, z+1/2'
2 '-x+1/2, y, z'
3 'x+1/2, y+1/2, -z+1/2'
4 '-x, -y, -z'
5 '-x, y+1/2, -z+1/2'
6 'x+1/2, -y, -z'
7 '-x+1/2, -y+1/2, z+1/2'
8 'x, y, z'
loop_
_atom_type_symbol
_atom_type_oxidation_number
Li1+ 1
Rb1+ 1
S6+ 6
O2- -2
loop_
_atom_site_label
_atom_site_type_symbol
_atom_site_symmetry_multiplicity
_atom_site_Wyckoff_symbol
_atom_site_fract_x
_atom_site_fract_y
_atom_site_fract_z
_atom_site_B_iso_or_equiv
_atom_site_occupancy
_atom_site_attached_hydrogens
Li1 Li1+ 4 c 0.25 0.4148(25) 0.3301(19) 3.90(46) 1. 0
Rb1 Rb1+ 4 c 0.75 0.2129(1) 0.5020(1) 3.45(2) 1. 0
S1 S6+ 4 c 0.25 0.0848(2) 0.2064(2) 2.10(4) 1. 0
O1 O2- 4 c 0.25 0.0915(15) 0.0444(9) 7.55(36) 1. 0
O2 O2- 8 d 0.1671(22) 0.2244(11) 0.2659(17) 6.66(43) 0.5 0
O3 O2- 8 d 0.4909(22) 0.0473(11) 0.2642(13) 4.57(29) 0.5 0
O4 O2- 8 d 0.0696(22) -0.0248(13) 0.2527(14) 5.45(35) 0.5 0
#End of TTdata_174056-ICSD