
#(C) 2018 by FIZ Karlsruhe - Leibniz Institute for Information Infrastructure.  All rights reserved.
data_174533-ICSD
_database_code_ICSD 174533
_audit_creation_date 2011-02-01
_audit_update_record 2013-02-01
_chemical_name_systematic 'Lithium lanthanum bis(carbonate)'
_chemical_formula_structural 'Li La (C O3)2'
_chemical_formula_sum 'C2 La1 Li1 O6'
_exptl_crystal_density_diffrn 3.9
_cell_measurement_temperature 293.
_publ_section_title

;
An improved synthesis of ternary carbonates: the examples Li La (C O3)2 and La
(C O3)F
;
loop_
_citation_id
_citation_journal_full
_citation_year
_citation_journal_volume
_citation_page_first
_citation_page_last
_citation_journal_id_ASTM
primary 'Zeitschrift fuer Anorganische und Allgemeine Chemie (1950) (DE)' 2010
636 2622 2625 ZAACAB
loop_
_publ_author_name
'Glaser, J.'
'Meyer, H.J.'
_cell_length_a 6.888(2)
_cell_length_b 7.853(1)
_cell_length_c 8.429(2)
_cell_angle_alpha 90
_cell_angle_beta 97.24(3)
_cell_angle_gamma 90
_cell_volume 452.3
_cell_formula_units_Z 4
_symmetry_space_group_name_H-M 'I 1 2/a 1'
_symmetry_Int_Tables_number 15
_refine_ls_R_factor_all 0.0146
loop_
_symmetry_equiv_pos_site_id
_symmetry_equiv_pos_as_xyz
1 'x+1/2, -y, z'
2 '-x, -y, -z'
3 '-x+1/2, y, -z'
4 'x, y, z'
5 'x, -y+1/2, z+1/2'
6 '-x+1/2, -y+1/2, -z+1/2'
7 '-x, y+1/2, -z+1/2'
8 'x+1/2, y+1/2, z+1/2'
loop_
_atom_type_symbol
_atom_type_oxidation_number
Li1+ 1
La3+ 3
O2- -2
C4+ 4
loop_
_atom_site_label
_atom_site_type_symbol
_atom_site_symmetry_multiplicity
_atom_site_Wyckoff_symbol
_atom_site_fract_x
_atom_site_fract_y
_atom_site_fract_z
_atom_site_B_iso_or_equiv
_atom_site_occupancy
_atom_site_attached_hydrogens
Li1 Li1+ 4 e 0.75 0.2515(11) 0 0.014(1) 1. 0
La1 La3+ 4 e 0.25 0.1946(1) 0 0.008(1) 1. 0
O1 O2- 8 f -0.0634(3) 0.3303(3) -0.1241(3) 0.013(1) 1. 0
O2 O2- 8 f 0.4261(3) -0.0851(3) 0.1207(2) 0.012(1) 1. 0
O3 O2- 8 f 0.1821(3) 0.4152(3) 0.2025(2) 0.014(1) 1. 0
C1 C4+ 8 f 0.3963(4) -0.0591(3) 0.2678(3) 0.010(1) 1. 0
#End of TTdata_174533-ICSD