
#(C) 2018 by FIZ Karlsruhe - Leibniz Institute for Information Infrastructure.  All rights reserved.
data_181357-ICSD
_database_code_ICSD 181357
_audit_creation_date 2012-02-01
_audit_update_record 2012-08-01
_chemical_name_systematic 'Lithium yttrium cerium phosphate (1/0.9/0.1/4)'
_chemical_formula_structural 'Li (Y0.9 Ce0.1) (P O3)4'
_chemical_formula_sum 'Ce0.1 Li1 O12 P4 Y0.9'
_chemical_name_structure_type LiYb(PO3)4
_exptl_crystal_density_diffrn 3.13
_publ_section_title
'Crystal structure and luminescence properties of Li Y P4 O12: Ce(3+) phosphor'
loop_
_citation_id
_citation_journal_full
_citation_year
_citation_journal_volume
_citation_page_first
_citation_page_last
_citation_journal_id_ASTM
primary 'Journal of Physics: Condensed Matter' 2010 22 485503-1 485503-6 JCOMEL
loop_
_publ_author_name
'Shalapska, T.'
'Stryganyuk, G.'
'Gektin, A.'
'Demchenko, P.'
'Voloshinovskii, A.'
'Dorenbos, P.'
_cell_length_a 16.2570(3)
_cell_length_b 7.02698(10)
_cell_length_c 9.5755(2)
_cell_angle_alpha 90.
_cell_angle_beta 126.0219(14)
_cell_angle_gamma 90.
_cell_volume 884.72
_cell_formula_units_Z 4
_symmetry_space_group_name_H-M 'C 1 2/c 1'
_symmetry_Int_Tables_number 15
_refine_ls_R_factor_all 0.0363
loop_
_symmetry_equiv_pos_site_id
_symmetry_equiv_pos_as_xyz
1 'x, -y, z+1/2'
2 '-x, -y, -z'
3 '-x, y, -z+1/2'
4 'x, y, z'
5 'x+1/2, -y+1/2, z+1/2'
6 '-x+1/2, -y+1/2, -z'
7 '-x+1/2, y+1/2, -z+1/2'
8 'x+1/2, y+1/2, z'
loop_
_atom_type_symbol
_atom_type_oxidation_number
Li1+ 1
Y3+ 3
Ce3+ 3
P5+ 5
O2- -2
loop_
_atom_site_label
_atom_site_type_symbol
_atom_site_symmetry_multiplicity
_atom_site_Wyckoff_symbol
_atom_site_fract_x
_atom_site_fract_y
_atom_site_fract_z
_atom_site_B_iso_or_equiv
_atom_site_occupancy
_atom_site_attached_hydrogens
Li1 Li1+ 4 e 0 0.699(7) 0.25 0.9(6) 1. 0
Y1 Y3+ 4 e 0 0.2016(4) 0.25 1.22(6) 0.9 0
Ce1 Ce3+ 4 e 0 0.2016(4) 0.25 1.22(6) 0.1 0
P1 P5+ 8 f 0.1482(4) 0.1517(8) 0.1015(7) 1.9(1) 1. 0
P2 P5+ 8 f 0.3610(4) 0.0566(8) 0.3353(7) 1.5(1) 1. 0
O1 O2- 8 f 0.1140(8) 0.279(2) 0.5376(14) 1.6(3) 1. 0
O2 O2- 8 f 0.1262(8) 0.117(2) 0.2377(13) 1.5(3) 1. 0
O3 O2- 8 f 0.1638(8) 0.381(2) 0.0865(13) 1.2(2) 1. 0
O4 O2- 8 f 0.2554(9) 0.0804(14) 0.1621(12) 0.3(2) 1. 0
O5 O2- 8 f 0.4273(7) 0.4135(15) 0.0777(14) 1.5(3) 1. 0
O6 O2- 8 f 0.4359(8) 0.0106(14) 0.3066(14) 1.6(3) 1. 0
#End of TTdata_181357-ICSD