
#(C) 2018 by FIZ Karlsruhe - Leibniz Institute for Information Infrastructure.  All rights reserved.
data_18152-ICSD
_database_code_ICSD 18152
_audit_creation_date 1980-01-01
_audit_update_record 1987-11-20
_chemical_name_systematic 'Lithium dioxogallate'
_chemical_formula_structural 'Li Ga O2'
_chemical_formula_sum 'Ga1 Li1 O2'
_chemical_name_structure_type NaFeO2(beta)
_exptl_crystal_density_diffrn 4.19
_publ_section_title 'The crystal structure of Li Ga O2'
loop_
_citation_id
_citation_journal_full
_citation_year
_citation_journal_volume
_citation_page_first
_citation_page_last
_citation_journal_id_ASTM
primary 'Acta Crystallographica' 1965 18 481 484 ACCRA9
loop_
_publ_author_name
'Marezio, M.'
_cell_length_a 5.402(1)
_cell_length_b 6.372(1)
_cell_length_c 5.007(1)
_cell_angle_alpha 90.
_cell_angle_beta 90.
_cell_angle_gamma 90.
_cell_volume 172.35
_cell_formula_units_Z 4
_symmetry_space_group_name_H-M 'P n a 21'
_symmetry_Int_Tables_number 33
_refine_ls_R_factor_all 0.019
loop_
_symmetry_equiv_pos_site_id
_symmetry_equiv_pos_as_xyz
1 'x+1/2, -y+1/2, z'
2 '-x+1/2, y+1/2, z+1/2'
3 '-x, -y, z+1/2'
4 'x, y, z'
loop_
_atom_type_symbol
_atom_type_oxidation_number
Ga3+ 3
O2- -2
Li1+ 1
loop_
_atom_site_label
_atom_site_type_symbol
_atom_site_symmetry_multiplicity
_atom_site_Wyckoff_symbol
_atom_site_fract_x
_atom_site_fract_y
_atom_site_fract_z
_atom_site_B_iso_or_equiv
_atom_site_occupancy
_atom_site_attached_hydrogens
Ga1 Ga3+ 4 a 0.0821(1) 0.1263(1) 0 0.431 1. 0
O1 O2- 4 a 0.4066(7) 0.1388(5) 0.8927(10) 0.46 1. 0
O2 O2- 4 a 0.0697(7) 0.1121(5) 0.3708(10) 0.4 1. 0
Li1 Li1+ 4 a 0.4207(14) 0.1267(11) 0.4936(97) 0.612 1. 0
#End of TTdata_18152-ICSD