
#(C) 2018 by FIZ Karlsruhe - Leibniz Institute for Information Infrastructure.  All rights reserved.
data_183828-ICSD
_database_code_ICSD 183828
_audit_creation_date 2012-08-01
_chemical_name_systematic 'Lithium iron tetraoxosilicate (2.027/0.973/1)'
_chemical_formula_structural 'Li2.03 Fe0.97 (Si O4)'
_chemical_formula_sum 'Fe0.97 Li2.03 O4 Si1'
_chemical_name_structure_type Enargite-Cu3AsS4
_exptl_crystal_density_diffrn 3.21
_cell_measurement_temperature 298.
_publ_section_title
'Polymorphism in Li2 (Fe, Mn) Si O4 : a combined diffraction and NMR study'
loop_
_citation_id
_citation_journal_full
_citation_year
_citation_journal_volume
_citation_page_first
_citation_page_last
_citation_journal_id_ASTM
primary 'Journal of Materials Chemistry' 2011 21 17823 17831 JMACEP
loop_
_publ_author_name
'Sirisopanaporn, C.'
'Dominko, R.'
'Masquelier, C.'
'Armstrong, A.R.'
'Mali, G.'
'Bruce, P.G.'
_cell_length_a 6.26800(14)
_cell_length_b 5.34163(11)
_cell_length_c 4.96013(15)
_cell_angle_alpha 90.
_cell_angle_beta 90.
_cell_angle_gamma 90.
_cell_volume 166.07
_cell_formula_units_Z 2
_symmetry_space_group_name_H-M 'P m n 21'
_symmetry_Int_Tables_number 31
_refine_ls_R_factor_all 0.0102
loop_
_symmetry_equiv_pos_site_id
_symmetry_equiv_pos_as_xyz
1 'x+1/2, -y, z+1/2'
2 '-x+1/2, -y, z+1/2'
3 '-x, y, z'
4 'x, y, z'
loop_
_atom_type_symbol
_atom_type_oxidation_number
Li1+ 1
Fe2+ 2
Li1+ 1
Si4+ 4
O2- -2
loop_
_atom_site_label
_atom_site_type_symbol
_atom_site_symmetry_multiplicity
_atom_site_Wyckoff_symbol
_atom_site_fract_x
_atom_site_fract_y
_atom_site_fract_z
_atom_site_B_iso_or_equiv
_atom_site_occupancy
_atom_site_attached_hydrogens
Li1 Li1+ 4 b 0.7476(10) 0.3318(13) 0.0104(14) 0.46(6) 0.975(6) 0
Fe1 Fe2+ 4 b 0.7476(10) 0.3318(13) 0.0104(14) 0.46(6) 0.025(6) 0
Fe2 Fe2+ 2 a 0 0.1725(3) 0.4927(7) 0.46(2) 0.923(6) 0
Li2 Li1+ 2 a 0 0.1725(3) 0.4927(7) 0.46(2) 0.077(6) 0
Si1 Si4+ 2 a 0 0.8286(6) 0 0.20(3) 1. 0
O1 O2- 4 b 0.7874(2) 0.6905(3) 0.8952(7) 0.45(2) 1. 0
O2 O2- 2 a 0 0.1247(4) 0.9079(10) 0.53(3) 1. 0
O3 O2- 2 a 0 0.8250(5) 0.3325(7) 0.52(3) 1. 0
#End of TTdata_183828-ICSD