
#(C) 2018 by FIZ Karlsruhe - Leibniz Institute for Information Infrastructure.  All rights reserved.
data_183834-ICSD
_database_code_ICSD 183834
_audit_creation_date 2012-08-01
_chemical_name_systematic
'Lithium iron manganese tetraoxosilicate (2/0.46/0.55/1) - gamma0'
_chemical_formula_structural 'Li2 Fe0.46 Mn0.55 (Si O4)'
_chemical_formula_sum 'Fe0.46 Li2 Mn0.55 O4 Si1'
_chemical_name_structure_type Li2ZnSiO4
_exptl_crystal_density_diffrn 3.12
_cell_measurement_temperature 298.
_publ_section_title
'Polymorphism in Li2 (Fe, Mn) Si O4 : a combined diffraction and NMR study'
loop_
_citation_id
_citation_journal_full
_citation_year
_citation_journal_volume
_citation_page_first
_citation_page_last
_citation_journal_id_ASTM
primary 'Journal of Materials Chemistry' 2011 21 17823 17831 JMACEP
loop_
_publ_author_name
'Sirisopanaporn, C.'
'Dominko, R.'
'Masquelier, C.'
'Armstrong, A.R.'
'Mali, G.'
'Bruce, P.G.'
_cell_length_a 6.2827(2)
_cell_length_b 10.8574(4)
_cell_length_c 5.0553(2)
_cell_angle_alpha 90.
_cell_angle_beta 90.879(5)
_cell_angle_gamma 90.
_cell_volume 344.8
_cell_formula_units_Z 4
_symmetry_space_group_name_H-M 'P 1 21/n 1'
_symmetry_Int_Tables_number 14
_refine_ls_R_factor_all 0.0116
loop_
_symmetry_equiv_pos_site_id
_symmetry_equiv_pos_as_xyz
1 '-x+1/2, y+1/2, -z+1/2'
2 '-x, -y, -z'
3 'x+1/2, -y+1/2, z+1/2'
4 'x, y, z'
loop_
_atom_type_symbol
_atom_type_oxidation_number
Li1+ 1
Fe2+ 2
Li1+ 1
Fe2+ 2
Mn2+ 2
Si4+ 4
O2- -2
loop_
_atom_site_label
_atom_site_type_symbol
_atom_site_symmetry_multiplicity
_atom_site_Wyckoff_symbol
_atom_site_fract_x
_atom_site_fract_y
_atom_site_fract_z
_atom_site_B_iso_or_equiv
_atom_site_occupancy
_atom_site_attached_hydrogens
Li1 Li1+ 4 e -0.004(2) 0.1630(11) 0.300(2) 1. 0.993(4) 0
Fe1 Fe2+ 4 e -0.004(2) 0.1630(11) 0.300(2) 1. 0.007(4) 0
Li2 Li1+ 4 e 0.236(2) 0.0754(8) 0.720(2) 1.31(14) 1. 0
Fe2 Fe2+ 4 e 0.4923(11) 0.1678(7) 0.3103(12) 0.5 0.450(4) 0
Mn1 Mn2+ 4 e 0.4923(11) 0.1678(7) 0.3103(12) 0.5 0.550(4) 0
Si1 Si4+ 4 e 0.2504(6) 0.4131(3) 0.3121(7) 0.33(4) 1. 0
O1 O2- 4 e 0.2544(4) 0.4115(3) 0.6339(6) 0.49(3) 1. 0
O2 O2- 4 e 0.2501(6) 0.5522(3) 0.1996(6) 0.72(4) 1. 0
O3 O2- 4 e 0.0363(4) 0.3374(3) 0.2156(5) 0.61(3) 1. 0
O4 O2- 4 e 0.4638(4) 0.3438(3) 0.2067(5) 0.47(3) 1. 0
#End of TTdata_183834-ICSD