
#(C) 2018 by FIZ Karlsruhe - Leibniz Institute for Information Infrastructure.  All rights reserved.
data_184863-ICSD
_database_code_ICSD 184863
_audit_creation_date 2013-02-01
_chemical_name_systematic 'Lithium iron phosphate'
_chemical_formula_structural 'Li Fe (P O4)'
_chemical_formula_sum 'Fe1 Li1 O4 P1'
_chemical_name_structure_type Olivine-Mg2SiO4
_exptl_crystal_density_diffrn 3.63
_publ_section_title

;
Temperature-dependent crystallinity and morphology of Li Fe P O4 prepared by
hydrothermal synthesis
;
loop_
_citation_id
_citation_journal_full
_citation_year
_citation_journal_volume
_citation_page_first
_citation_page_last
_citation_journal_id_ASTM
primary 'Journal of Materials Chemistry' 2012 22 9064 9068 JMACEP
loop_
_publ_author_name
'Ou Xiuqin'
'Pan Lin'
'Gu Haichen'
'Wu Yichen'
'Lu Jianwei'
_cell_length_a 10.3006(6)
_cell_length_b 5.9901(4)
_cell_length_c 4.6782(3)
_cell_angle_alpha 90.
_cell_angle_beta 90.
_cell_angle_gamma 90.
_cell_volume 288.65
_cell_formula_units_Z 4
_symmetry_space_group_name_H-M 'P n m a'
_symmetry_Int_Tables_number 62
_refine_ls_R_factor_all 0.0118
loop_
_symmetry_equiv_pos_site_id
_symmetry_equiv_pos_as_xyz
1 'x+1/2, y, -z+1/2'
2 'x, -y+1/2, z'
3 '-x+1/2, y+1/2, z+1/2'
4 '-x, -y, -z'
5 '-x+1/2, -y, z+1/2'
6 '-x, y+1/2, -z'
7 'x+1/2, -y+1/2, -z+1/2'
8 'x, y, z'
loop_
_atom_type_symbol
_atom_type_oxidation_number
Li1+ 1
Fe2+ 2
P5+ 5
O2- -2
loop_
_atom_site_label
_atom_site_type_symbol
_atom_site_symmetry_multiplicity
_atom_site_Wyckoff_symbol
_atom_site_fract_x
_atom_site_fract_y
_atom_site_fract_z
_atom_site_B_iso_or_equiv
_atom_site_occupancy
_atom_site_attached_hydrogens
Li1 Li1+ 4 a 0. 0. 0. 2.7(2) 1. 0
Fe1 Fe2+ 4 c 0.2825(3) 0.25 0.9739(9) 0.1(2) 1. 0
P1 P5+ 4 c 0.0981(7) 0.25 0.418(2) -0.3(2) 1. 0
O1 O2- 4 c 0.093(1) 0.25 0.741(3) 0.1(4) 1. 0
O2 O2- 4 c 0.460(2) 0.25 0.202(2) -0.6(4) 1. 0
O3 O2- 8 d 0.167(1) 0.046(2) 0.282(1) -0.7(3) 1. 0
#End of TTdata_184863-ICSD