
#(C) 2018 by FIZ Karlsruhe - Leibniz Institute for Information Infrastructure.  All rights reserved.
data_185703-ICSD
_database_code_ICSD 185703
_audit_creation_date 2013-02-01
_chemical_name_systematic 'Lithium aluminium digermanate'
_chemical_formula_structural 'Li Al (Ge2 O6)'
_chemical_formula_sum 'Al1 Ge2 Li1 O6'
_chemical_name_structure_type Pyroxene-MgSiO3-LT
_chemical_name_mineral Unnamed_Pyroxene
_exptl_crystal_density_diffrn 4.35
_cell_measurement_temperature 295.
_publ_section_title
'Synthetic Li Al Ge 2O6: the first pyroxene with P21/n symmetry'
loop_
_citation_id
_citation_journal_full
_citation_year
_citation_journal_volume
_citation_page_first
_citation_page_last
_citation_journal_id_ASTM
primary 'American Mineralogist' 2012 97 1213 1218 AMMIAY
loop_
_publ_author_name
'Redhammer, G.J.'
'Nestola, F.'
'Miletich, R.'
_cell_length_a 9.8986(1)
_cell_length_b 8.4008(1)
_cell_length_c 5.4016(1)
_cell_angle_alpha 90
_cell_angle_beta 110.648(1)
_cell_angle_gamma 90
_cell_volume 420.32
_cell_formula_units_Z 4
_symmetry_space_group_name_H-M 'P 1 21/n 1'
_symmetry_Int_Tables_number 14
_refine_ls_R_factor_all 0.0218
loop_
_symmetry_equiv_pos_site_id
_symmetry_equiv_pos_as_xyz
1 '-x+1/2, y+1/2, -z+1/2'
2 '-x, -y, -z'
3 'x+1/2, -y+1/2, z+1/2'
4 'x, y, z'
loop_
_atom_type_symbol
_atom_type_oxidation_number
Li1+ 1
Al3+ 3
Ge4+ 4
O2- -2
loop_
_atom_site_label
_atom_site_type_symbol
_atom_site_symmetry_multiplicity
_atom_site_Wyckoff_symbol
_atom_site_fract_x
_atom_site_fract_y
_atom_site_fract_z
_atom_site_B_iso_or_equiv
_atom_site_occupancy
_atom_site_attached_hydrogens
Li1 Li1+ 4 e 0.5058(4) 0.2845(5) 0.8022(8) 0.0201(7) 1. 0
Al1 Al3+ 4 e 0.49528(4) 0.08633(5) 0.24665(7) 0.00101(7) 1. 0
Ge1 Ge4+ 4 e 0.29264(2) 0.58272(2) 0.72762(3) 0.00647(5) 1. 0
Ge2 Ge4+ 4 e 0.28071(2) 0.38681(2) 0.22861(3) 0.00573(5) 1. 0
O1 O2- 4 e 0.1047(1) 0.5731(4) 0.6469(2) 0.0077(2) 1. 0
O2 O2- 4 e 0.3607(1) 0.5068(2) 0.0576(2) 0.0098(2) 1. 0
O3 O2- 4 e 0.3874(1) 0.7576(2) 0.7996(3) 0.0109(2) 1. 0
O4 O2- 4 e 0.3578(1) 0.4356(2) 0.5649(2) 0.0093(2) 1. 0
O5 O2- 4 e 0.0917(1) 0.4019(2) 0.1283(3) 0.0073(2) 1. 0
O6 O2- 4 e 0.3267(1) 0.1899(2) 0.2157(3) 0.0119(2) 1. 0
loop_
_atom_site_aniso_label
_atom_site_aniso_type_symbol
_atom_site_aniso_U_11
_atom_site_aniso_U_22
_atom_site_aniso_U_33
_atom_site_aniso_U_12
_atom_site_aniso_U_13
_atom_site_aniso_U_23
Li1 Li1+ 0.018(2) 0.020(2) 0.019(1) 0.002(1) 0.002(1) 0.003(1)
Al1 Al3+ 0.0004(2) 0.0006(2) 0.0021(2) 0.000(1) 0.0004(1) 0.000(1)
Ge1 Ge4+ 0.00541(7) 0.00601(8) 0.00856(8) -0.00172(5) 0.00315(5) -0.00167(4)
Ge2 Ge4+ 0.00499(7) 0.00609(7) 0.0062(7) 0.00109(5) 0.00209(5) 0.00024(4)
O1 O2- 0.0048(4) 0.0083(4) 0.0092(4) -0.0003(3) 0.0014(3) 0.0003(3)
O2 O2- 0.0079(4) 0.0130(4) 0.0081(4) -0.0020(3) 0.0023(3) 0.0023(4)
O3 O2- 0.0128(5) 0.0078(4) 0.0123(5) -0.0055(4) 0.0047(4) -0.0011(4)
O4 O2- 0.0088(4) 0.0116(5) 0.0064(4) 0.0031(4) 0.0014(3) -0.0009(3)
O5 O2- 0.0053(4) 0.0076(4) 0.0083(4) 0.0008(3) 0.0018(3) 0.0003(3)
O6 O2- 0.0107(4) 0.0070(4) 0.0207(6) 0.0024(4) 0.0088(4) 0.0007(4)
#End of TTdata_185703-ICSD