
#(C) 2018 by FIZ Karlsruhe - Leibniz Institute for Information Infrastructure.  All rights reserved.
data_185884-ICSD
_database_code_ICSD 185884
_audit_creation_date 2013-02-01
_chemical_name_systematic 'Lithium manganese phosphate vanadate (1/1/0.85/0.15)'
_chemical_formula_structural 'Li Mn ((P0.845 V0.155) O4)'
_chemical_formula_sum 'Li1 Mn1 O4 P0.845 V0.155'
_chemical_name_structure_type Olivine-Mg2SiO4
_exptl_crystal_density_diffrn 3.47
_cell_measurement_temperature 295.
_publ_section_title

;
Some aspects of antiferromagnetic ordering in Li Mn P0.85 V0.15 O4: neutron
diffraction and DC-magnetization studies
;
loop_
_citation_id
_citation_journal_full
_citation_year
_citation_journal_volume
_citation_page_first
_citation_page_last
_citation_journal_id_ASTM
primary 'Journal of Magnetism and Magnetic Materials' 2012 324 3181 3188 JMMMDC
loop_
_publ_author_name
'Kellerman, D.G.'
'Chukalkin, Yu.G.'
'Mukhina, N.A.'
'Gorshkov, V.S.'
'Semenova, A.S.'
'Teplykh, A.E.'
_cell_length_a 10.4845(1)
_cell_length_b 6.1180(1)
_cell_length_c 4.7749(1)
_cell_angle_alpha 90.
_cell_angle_beta 90.
_cell_angle_gamma 90.
_cell_volume 306.28
_cell_formula_units_Z 4
_symmetry_space_group_name_H-M 'P n m a'
_symmetry_Int_Tables_number 62
_refine_ls_R_factor_all 0.048
loop_
_symmetry_equiv_pos_site_id
_symmetry_equiv_pos_as_xyz
1 'x+1/2, y, -z+1/2'
2 'x, -y+1/2, z'
3 '-x+1/2, y+1/2, z+1/2'
4 '-x, -y, -z'
5 '-x+1/2, -y, z+1/2'
6 '-x, y+1/2, -z'
7 'x+1/2, -y+1/2, -z+1/2'
8 'x, y, z'
loop_
_atom_type_symbol
_atom_type_oxidation_number
Li1+ 1
Mn2+ 2
P5+ 5
V5+ 5
O2- -2
loop_
_atom_site_label
_atom_site_type_symbol
_atom_site_symmetry_multiplicity
_atom_site_Wyckoff_symbol
_atom_site_fract_x
_atom_site_fract_y
_atom_site_fract_z
_atom_site_B_iso_or_equiv
_atom_site_occupancy
_atom_site_attached_hydrogens
Li1 Li1+ 4 a 0 0 0 5.53(44) 1. 0
Mn1 Mn2+ 4 c 0.2806(6) 0.25 0.9722(16) 0.82(14) 1. 0
P1 P5+ 4 c 0.0924(5) 0.25 0.4066(11) 1.41(12) 0.845(7) 0
V1 V5+ 4 c 0.0924(5) 0.25 0.4066(11) 1.41(12) 0.155(7) 0
O1 O2- 4 c 0.0959(4) 0.25 0.7371(9) 1.74(9) 1.003(8) 0
O2 O2- 4 c 0.4533(4) 0.25 0.2156(10) 1.75(10) 0.999(7) 0
O3 O2- 8 d 0.1624(3) 0.0425(4) 0.2768(7) 1.55(6) 0.992(8) 0
#End of TTdata_185884-ICSD