
#(C) 2018 by FIZ Karlsruhe - Leibniz Institute for Information Infrastructure.  All rights reserved.
data_186567-ICSD
_database_code_ICSD 186567
_audit_creation_date 2013-08-01
_chemical_name_systematic 'Nonalithium trivanadium(III) octaphosphate'
_chemical_formula_structural 'Li9 V3 (P8 O29)'
_chemical_formula_sum 'Li9 O29 P8 V3'
_chemical_name_structure_type Li9Al3(P2O7)3(PO4)2
_exptl_crystal_density_diffrn 2.76
_cell_measurement_temperature 293.
_publ_section_title

;
Crystal structure and spin dynamics for the Li9 V3 P8-delta O29-delta"
insertion electrode system with a multiple-electron reaction
;
loop_
_citation_id
_citation_journal_full
_citation_year
_citation_journal_volume
_citation_page_first
_citation_page_last
_citation_journal_id_ASTM
primary 'Journal of Physics: Condensed Matter' 2012 24 085402-1 085402-9 JCOMEL
loop_
_publ_author_name
'Onoda, Masashige'
'Ikeda, Satoshi'
'Ishibashi, Takehiko'
_cell_length_a 9.736(2)
_cell_length_b 9.736(2)
_cell_length_c 13.609(4)
_cell_angle_alpha 90.
_cell_angle_beta 90.
_cell_angle_gamma 120.
_cell_volume 1117.17
_cell_formula_units_Z 2
_symmetry_space_group_name_H-M 'P -3 c 1'
_symmetry_Int_Tables_number 165
_refine_ls_R_factor_all 0.04
loop_
_symmetry_equiv_pos_site_id
_symmetry_equiv_pos_as_xyz
1 'x-y, -y, -z+1/2'
2 '-x, -x+y, -z+1/2'
3 'y, x, -z+1/2'
4 'x-y, x, -z'
5 'y, -x+y, -z'
6 '-x, -y, -z'
7 '-x+y, y, z+1/2'
8 'x, x-y, z+1/2'
9 '-y, -x, z+1/2'
10 '-x+y, -x, z'
11 '-y, x-y, z'
12 'x, y, z'
loop_
_atom_type_symbol
_atom_type_oxidation_number
V3+ 3
P5+ 5
O2- -2
Li1+ 1
loop_
_atom_site_label
_atom_site_type_symbol
_atom_site_symmetry_multiplicity
_atom_site_Wyckoff_symbol
_atom_site_fract_x
_atom_site_fract_y
_atom_site_fract_z
_atom_site_B_iso_or_equiv
_atom_site_occupancy
_atom_site_attached_hydrogens
V1 V3+ 6 f 0 0.43332(4) 0.25 0.558(5) 1. 0
P1 P5+ 4 d 0.6667 0.3333 0.12520(5) 0.530(8) 1. 0
P2 P5+ 12 g 0.22702(5) 0.31580(5) 0.15542(3) 0.591(6) 1. 0
O1 O2- 4 d 0.6667 0.3333 0.0153(2) 2.07(5) 1. 0
O2 O2- 6 f 0.2135(2) 0.2135(2) 0.25 1.00(3) 1. 0
O3 O2- 12 g 0.5128(2) 0.1892(2) 0.1640(1) 0.98(2) 1. 0
O4 O2- 12 g 0.3725(2) 0.4799(2) 0.16606(9) 0.96(2) 1. 0
O5 O2- 12 g 0.0780(2) 0.3288(2) 0.15492(9) 0.81(2) 1. 0
O6 O2- 12 g 0.2310(2) 0.2254(2) 0.06680(9) 1.16(2) 1. 0
Li1 Li1+ 2 b 0 0 0 4.6(4) 1. 0
Li2 Li1+ 4 d 0.3333 0.6667 0.1188(5) 1.6(1) 1. 0
Li3 Li1+ 12 g 0.3354(5) 0.1003(5) 0.0633(3) 1.33(5) 1. 0
loop_
_atom_site_aniso_label
_atom_site_aniso_type_symbol
_atom_site_aniso_U_11
_atom_site_aniso_U_22
_atom_site_aniso_U_33
_atom_site_aniso_U_12
_atom_site_aniso_U_13
_atom_site_aniso_U_23
V1 V3+ 0.0063(2) 0.00666(9) 0.0081(2) 0.00315(6) 0.00033(9) 0.00016(4)
P1 P5+ 0.0068(2) 0.0068(2) 0.0065(2) 0.00340(7) 0. 0.
P2 P5+ 0.0081(2) 0.0097(2) 0.0059(2) 0.0054(2) -0.0007(1) -0.0009(1)
O1 O2- 0.036(1) 0.036(1) 0.0063(8) 0.0181(5) 0. 0.
O2 O2- 0.0136(5) 0.0136(5) 0.0101(6) 0.0063(6) -0.0025(3) 0.0025(3)
O3 O2- 0.0082(4) 0.0070(4) 0.0186(5) 0.0013(4) 0.0013(4) 0.0039(4)
O4 O2- 0.0088(4) 0.0129(5) 0.0121(5) 0.0033(4) -0.0017(4) 0.0018(4)
O5 O2- 0.0090(4) 0.0132(5) 0.0105(5) 0.0072(4) -0.0016(3) -0.0032(4)
O6 O2- 0.0223(6) 0.0220(6) 0.0079(4) 0.0172(5) -0.0028(4) -0.0046(4)
Li1 Li1+ 0.062(7) 0.062(7) 0.05(1) 0.031(4) 0. 0.
Li2 Li1+ 0.023(2) 0.023(2) 0.015(3) 0.012(1) 0. 0.
Li3 Li1+ 0.020(2) 0.016(2) 0.017(2) 0.010(2) -0.002(2) 0.001(2)
#End of TTdata_186567-ICSD