
#(C) 2018 by FIZ Karlsruhe - Leibniz Institute for Information Infrastructure.  All rights reserved.
data_1913-ICSD
_database_code_ICSD 1913
_audit_creation_date 1980-01-01
_audit_update_record 2010-02-01
_chemical_name_systematic 'Lithium chlorate(VII) trihydrate'
_chemical_formula_structural 'Li (Cl O4) (H2 O)3'
_chemical_formula_sum 'H6 Cl1 Li1 O7'
_chemical_name_structure_type LiClO4(H2O)3
_exptl_crystal_density_diffrn 1.89
_publ_section_title

;
The structure of lithium perchlorate trihydrate Li (H2 O)3 Cl O4 - an X-ray
and neutron diffraction study
;
loop_
_citation_id
_citation_journal_full
_citation_year
_citation_journal_volume
_citation_page_first
_citation_page_last
_citation_journal_id_ASTM
primary

;
Acta Crystallographica, Section B: Structural Crystallography and Crystal
Chemistry
; 1975 31 1735 1739 ACBCAR
loop_
_publ_author_name
'Sequeira, A.'
'Bernal, I.'
'Brown, I.D.'
'Faggiani, R.'
_cell_length_a 7.719(2)
_cell_length_b 7.719(2)
_cell_length_c 5.455(2)
_cell_angle_alpha 90.
_cell_angle_beta 90.
_cell_angle_gamma 120.
_cell_volume 281.48
_cell_formula_units_Z 2
_symmetry_space_group_name_H-M 'P 63 m c'
_symmetry_Int_Tables_number 186
_refine_ls_R_factor_all 0.034
loop_
_symmetry_equiv_pos_site_id
_symmetry_equiv_pos_as_xyz
1 '-x, -x+y, z+1/2'
2 'x-y, -y, z+1/2'
3 'y, x, z+1/2'
4 'x-y, x, z+1/2'
5 'y, -x+y, z+1/2'
6 '-x, -y, z+1/2'
7 'x, x-y, z'
8 '-x+y, y, z'
9 '-y, -x, z'
10 '-x+y, -x, z'
11 '-y, x-y, z'
12 'x, y, z'
loop_
_atom_type_symbol
_atom_type_oxidation_number
Li1+ 1
Cl7+ 7
O2- -2
H1+ 1
loop_
_atom_site_label
_atom_site_type_symbol
_atom_site_symmetry_multiplicity
_atom_site_Wyckoff_symbol
_atom_site_fract_x
_atom_site_fract_y
_atom_site_fract_z
_atom_site_B_iso_or_equiv
_atom_site_occupancy
_atom_site_attached_hydrogens
Li1 Li1+ 2 a 0 0 0.2217(9) . 1. 0
Cl1 Cl7+ 2 b 0.3333 0.6667 0.0000(2) . 1. 0
O1 O2- 2 b 0.3333 0.6667 0.2641(4) . 1. 0
O2 O2- 6 c 0.4348(2) 0.5652(2) -.0885(3) . 1. 0
O3 O2- 6 c 0.1221(2) 0.8779(2) 0.473 . 1. 0
H1 H1+ 12 d 0.2347(27) 0.3138(27) 0.4919(44) 0.0338(50) 1. 0
loop_
_atom_site_aniso_label
_atom_site_aniso_type_symbol
_atom_site_aniso_U_11
_atom_site_aniso_U_22
_atom_site_aniso_U_33
_atom_site_aniso_U_12
_atom_site_aniso_U_13
_atom_site_aniso_U_23
Li1 Li1+ 0.0299(13) 0.0299(13) 0.0304(18) 0.0150(6) 0 0
Cl1 Cl7+ 0.0170(1) 0.0170(1) 0.0341(2) 0.0085(1) 0 0
O1 O2- 0.0442(10) 0.0442(10) 0.0302(9) 0.0221(5) 0 0
O2 O2- 0.0309(7) 0.0309(7) 0.0558(6) 0.0210(4) 0.0045(4) -.0045(4)
O3 O2- 0.0257(4) 0.0257(4) 0.0327(4) 0.0156(3) 0.0043(3) -.0043(3)
#End of TTdata_1913-ICSD