
#(C) 2018 by FIZ Karlsruhe - Leibniz Institute for Information Infrastructure.  All rights reserved.
data_193040-ICSD
_database_code_ICSD 193040
_audit_creation_date 2015-02-01
_chemical_name_systematic
'Lithium titanium(III) aluminium phosphate (2.8/1.82/0.18/3)'
_chemical_formula_structural 'Li2.8 (Ti1.82 Al0.18) (P O4)3'
_chemical_formula_sum 'Al0.18 Li2.8 O12 P3 Ti1.82'
_exptl_crystal_density_diffrn 2.86
_cell_measurement_temperature 400.
_publ_section_title

;
Local structure and lithium mobility in intercalated Li3 Alx Ti2-x (P O4)3
NASICON type materials: a combined neutron diffraction and NMR study
;
loop_
_citation_id
_citation_journal_full
_citation_year
_citation_journal_volume
_citation_page_first
_citation_page_last
_citation_journal_id_ASTM
primary 'Physical Chemistry Chemical Physics' 2014 16 18397 18405 PPCPFQ
loop_
_publ_author_name
'Arbi, K.'
'Hoelzel, M.'
'Kuhn, A.'
'Garcia-Alvarado, F.'
'Sanz, J.'
_cell_length_a 8.37578(11)
_cell_length_b 8.37578(11)
_cell_length_c 22.74957(41)
_cell_angle_alpha 90.
_cell_angle_beta 90.
_cell_angle_gamma 120.
_cell_volume 1382.16
_cell_formula_units_Z 6
_symmetry_space_group_name_H-M 'R -3 H'
_symmetry_Int_Tables_number 148
_refine_ls_R_factor_all 0.037
loop_
_symmetry_equiv_pos_site_id
_symmetry_equiv_pos_as_xyz
1 'x-y, x, -z'
2 'y, -x+y, -z'
3 '-x, -y, -z'
4 '-x+y, -x, z'
5 '-y, x-y, z'
6 'x, y, z'
7 'x-y+2/3, x+1/3, -z+1/3'
8 'y+2/3, -x+y+1/3, -z+1/3'
9 '-x+2/3, -y+1/3, -z+1/3'
10 '-x+y+2/3, -x+1/3, z+1/3'
11 '-y+2/3, x-y+1/3, z+1/3'
12 'x+2/3, y+1/3, z+1/3'
13 'x-y+1/3, x+2/3, -z+2/3'
14 'y+1/3, -x+y+2/3, -z+2/3'
15 '-x+1/3, -y+2/3, -z+2/3'
16 '-x+y+1/3, -x+2/3, z+2/3'
17 '-y+1/3, x-y+2/3, z+2/3'
18 'x+1/3, y+2/3, z+2/3'
loop_
_atom_type_symbol
_atom_type_oxidation_number
Li1+ 1
Ti3+ 3.1
Al3+ 3
Ti3+ 3.1
Al3+ 3
P5+ 5
O2- -2
loop_
_atom_site_label
_atom_site_type_symbol
_atom_site_symmetry_multiplicity
_atom_site_Wyckoff_symbol
_atom_site_fract_x
_atom_site_fract_y
_atom_site_fract_z
_atom_site_B_iso_or_equiv
_atom_site_occupancy
_atom_site_attached_hydrogens
Li1 Li1+ 18 f 0.0288(15) 0.3103(14) 0.0482(5) 1.9 0.667 0
Li2 Li1+ 18 f 0.0649(35) 0.3855(37) 0.1206(13) 1.9 0.267 0
Ti1 Ti3+ 6 c 0 0 0.1432(3) 0.67 0.9 0
Al1 Al3+ 6 c 0 0 0.1432(3) 0.67 0.1 0
Ti2 Ti3+ 6 c 0 0 0.3473(4) 0.67 0.92 0
Al2 Al3+ 6 c 0 0 0.3473(4) 0.67 0.08 0
P1 P5+ 18 f 0.2914(3) -0.0007(3) 0.2504(1) 0.52 1. 0
O1 O2- 18 f 0.1664(3) 0.2129(3) 0.0899(1) 1.34 1. 0
O2 O2- 18 f 0.1375(3) 0.2291(3) 0.3988(1) 1.1 1. 0
O3 O2- 18 f 0.1947(3) 0.9915(3) 0.1930(1) 2.09 1. 0
O4 O2- 18 f 0.9122(3) 0.1449(3) 0.2994(1) 1.62 1. 0
#End of TTdata_193040-ICSD