
#(C) 2017 by FIZ Karlsruhe - Leibniz Institute for Information Infrastructure.  All rights reserved.
data_193630-ICSD
_database_code_ICSD 193630
_audit_creation_date 2015-08-01
_chemical_name_systematic 'Lithium magnesium iron hexafluoride'
_chemical_formula_structural 'Li Mg Fe F6'
_chemical_formula_sum 'F6 Fe1 Li1 Mg1'
_chemical_name_structure_type ZnSb2O6
_exptl_crystal_density_diffrn 3.41
_publ_section_title

;
Direct synthesis of trirutile-type Li Mg Fe F6 and its electrochemical
characterization as positive electrode in lithium-ion batteries
;
loop_
_citation_id
_citation_journal_full
_citation_year
_citation_journal_volume
_citation_page_first
_citation_page_last
_citation_journal_id_ASTM
primary 'Journal of Power Sources' 2015 274 1200 1207 JPSODZ
loop_
_publ_author_name
'Lieser, Georg'
'Draeger, Christoph'
'de Biasi, Lea'
'Indris, Sylvio'
'Gesswein, Holger'
'Glatthaar, Sven'
'Hoffmann, Michael J.'
'Ehrenberg, Helmut'
'Binder, Joachim R.'
_cell_length_a 4.64508(8)
_cell_length_b 4.64508(8)
_cell_length_c 9.09040(20)
_cell_angle_alpha 90.
_cell_angle_beta 90.
_cell_angle_gamma 90.
_cell_volume 196.14
_cell_formula_units_Z 2
_symmetry_space_group_name_H-M 'P 42/m n m'
_symmetry_Int_Tables_number 136
_refine_ls_R_factor_all 0.0285
loop_
_symmetry_equiv_pos_site_id
_symmetry_equiv_pos_as_xyz
1 '-y+1/2, x+1/2, -z+1/2'
2 'y+1/2, -x+1/2, -z+1/2'
3 'y, x, -z'
4 '-y, -x, -z'
5 'y+1/2, -x+1/2, z+1/2'
6 '-y+1/2, x+1/2, z+1/2'
7 '-y, -x, z'
8 'y, x, z'
9 'x+1/2, -y+1/2, -z+1/2'
10 '-x+1/2, y+1/2, -z+1/2'
11 'x, y, -z'
12 '-x, -y, -z'
13 '-x+1/2, y+1/2, z+1/2'
14 'x+1/2, -y+1/2, z+1/2'
15 '-x, -y, z'
16 'x, y, z'
loop_
_atom_type_symbol
_atom_type_oxidation_number
Fe3+ 3
Li1+ 1
Mg2+ 2
F1- -1
loop_
_atom_site_label
_atom_site_type_symbol
_atom_site_symmetry_multiplicity
_atom_site_Wyckoff_symbol
_atom_site_fract_x
_atom_site_fract_y
_atom_site_fract_z
_atom_site_B_iso_or_equiv
_atom_site_occupancy
_atom_site_attached_hydrogens
Fe1 Fe3+ 2 a 0 0 0 . 1. 0
Li1 Li1+ 4 e 0 0 0.3348(4) . 0.5 0
Mg1 Mg2+ 4 e 0 0 0.3348(4) . 0.5 0
F1 F1- 4 f 0.2995(5) 0.2995(5) 0 . 1. 0
F2 F1- 8 j 0.3046(3) 0.3046(3) 0.3381(3) . 1. 0
#End of TTdata_193630-ICSD