
#(C) 2018 by FIZ Karlsruhe - Leibniz Institute for Information Infrastructure.  All rights reserved.
data_194331-ICSD
_database_code_ICSD 194331
_audit_creation_date 2015-08-01
_chemical_name_systematic 'Lithium iron orthophosphate'
_chemical_formula_structural 'Li Fe (P O4)'
_chemical_formula_sum 'Fe1 Li1 O4 P1'
_chemical_name_structure_type Olivine-Mg2SiO4
_exptl_crystal_density_diffrn 3.61
_publ_section_title

;
Lithium migration in Li4 Ti5 O12 studied using in situ neutron powder
diffraction
;
loop_
_citation_id
_citation_journal_full
_citation_year
_citation_journal_volume
_citation_page_first
_citation_page_last
_citation_journal_id_ASTM
primary 'Chemistry of Materials' 2014 26 2318 2326 CMATEX
loop_
_publ_author_name
'Pang, Wei Kong'
'Peterson, Vanessa K.'
'Sharma, Neeraj'
'Shiu, Je-Jang'
'Wu, She-huang'
_cell_length_a 10.3187(3)
_cell_length_b 6.0012(1)
_cell_length_c 4.6903(1)
_cell_angle_alpha 90.
_cell_angle_beta 90.
_cell_angle_gamma 90.
_cell_volume 290.44
_cell_formula_units_Z 4
_symmetry_space_group_name_H-M 'P n m a'
_symmetry_Int_Tables_number 62
_refine_ls_R_factor_all 0.0254
loop_
_symmetry_equiv_pos_site_id
_symmetry_equiv_pos_as_xyz
1 'x+1/2, y, -z+1/2'
2 'x, -y+1/2, z'
3 '-x+1/2, y+1/2, z+1/2'
4 '-x, -y, -z'
5 '-x+1/2, -y, z+1/2'
6 '-x, y+1/2, -z'
7 'x+1/2, -y+1/2, -z+1/2'
8 'x, y, z'
loop_
_atom_type_symbol
_atom_type_oxidation_number
Li1+ 1
Fe2+ 2
P5+ 5
O2- -2
loop_
_atom_site_label
_atom_site_type_symbol
_atom_site_symmetry_multiplicity
_atom_site_Wyckoff_symbol
_atom_site_fract_x
_atom_site_fract_y
_atom_site_fract_z
_atom_site_B_iso_or_equiv
_atom_site_occupancy
_atom_site_attached_hydrogens
Li1 Li1+ 4 a 0 0 0 1.55(15) 1. 0
Fe1 Fe2+ 4 c 0.28220(1) 0.25 0.97417(4) 0.56(3) 1. 0
P1 P5+ 4 c 0.09480(3) 0.25 0.41992(5) 0.54(4) 1. 0
O1 O2- 4 c 0.09837(3) 0.25 0.74152(5) 0.32(4) 1. 0
O2 O2- 4 c 0.45768(2) 0.25 0.20424(5) 0.51(5) 1. 0
O3 O2- 8 d 0.16559(2) 0.04772(3) 0.28680(3) 0.56(3) 1. 0
#End of TTdata_194331-ICSD