
#(C) 2018 by FIZ Karlsruhe - Leibniz Institute for Information Infrastructure.  All rights reserved.
data_194320-ICSD
_database_code_ICSD 194320
_audit_creation_date 2015-08-01
_chemical_name_systematic
'Lithium nitrogen deuterium iron selenide (0.28/0.86/2.32/1/1)'
_chemical_formula_structural 'Li0.28 (N0.86 D2.32) Fe Se'
_chemical_formula_sum 'D2.32 Fe1 Li0.28 N0.86 Se1'
_exptl_crystal_density_diffrn 3.43
_cell_measurement_temperature 5.
_publ_section_title

;
Ammonia-rich high-temperature superconducting intercalates of iron selenide
revealed through time-resolved in situ X-ray and neutron diffraction
;
loop_
_citation_id
_citation_journal_full
_citation_year
_citation_journal_volume
_citation_page_first
_citation_page_last
_citation_journal_id_ASTM
primary 'Journal of the American Chemical Society' 2014 136 630 633 JACSAT
loop_
_publ_author_name
'Sedlmaier, Stefan J.'
'Cassidy, Simon J.'
'Morris, Richard G.'
'Drakopoulos, Michael'
'Reinhard, Christina'
'Moorhouse, Saul J.'
'O'Hare, Dermot'
'Manuel, Pascal'
'Khalyavin, Dmitry'
'Clarke, Simon J.'
_cell_length_a 3.79756(2)
_cell_length_b 3.79756(2)
_cell_length_c 10.30704(8)
_cell_angle_alpha 90.
_cell_angle_beta 90.
_cell_angle_gamma 90.
_cell_volume 148.65
_cell_formula_units_Z 2
_symmetry_space_group_name_H-M 'P 4/n m m Z'
_symmetry_Int_Tables_number 129
_refine_ls_R_factor_all 0.006
loop_
_symmetry_equiv_pos_site_id
_symmetry_equiv_pos_as_xyz
1 'y+1/2, x+1/2, -z'
2 '-y, x+1/2, -z'
3 'y+1/2, -x, -z'
4 '-y, -x, -z'
5 'x+1/2, y+1/2, -z'
6 '-x, y+1/2, -z'
7 'x+1/2, -y, -z'
8 '-x, -y, -z'
9 '-y+1/2, -x+1/2, z'
10 'y, -x+1/2, z'
11 '-y+1/2, x, z'
12 'y, x, z'
13 '-x+1/2, -y+1/2, z'
14 'x, -y+1/2, z'
15 '-x+1/2, y, z'
16 'x, y, z'
loop_
_atom_type_symbol
_atom_type_oxidation_number
Se2- -2
Fe2+ 2
N3- -3
D1+ 1
Li1+ 1
loop_
_atom_site_label
_atom_site_type_symbol
_atom_site_symmetry_multiplicity
_atom_site_Wyckoff_symbol
_atom_site_fract_x
_atom_site_fract_y
_atom_site_fract_z
_atom_site_B_iso_or_equiv
_atom_site_occupancy
_atom_site_attached_hydrogens
Se1 Se2- 2 c 0.25 0.25 0.14485(7) 0. 1. 0
Fe1 Fe2+ 2 a 0.75 0.25 0 0. 1. 0
N1 N3- 2 c 0.25 0.25 0.60678(14) 0.45(7) 0.859(9) 0
D1 D1+ 8 j 0.1262(9) 0.1262(9) 0.6732(4) . 0.282(3) 0
D2 D1+ 8 j 0.0889(9) 0.0889(9) 0.5892(6) 5.81(10) 0.297(4) 0
Li1 Li1+ 2 b 0.75 0.25 0.5 0.45(7) 0.278(5) 0
loop_
_atom_site_aniso_label
_atom_site_aniso_type_symbol
_atom_site_aniso_U_11
_atom_site_aniso_U_22
_atom_site_aniso_U_33
_atom_site_aniso_U_12
_atom_site_aniso_U_13
_atom_site_aniso_U_23
D1 D1+ 0.0945(16) 0.0945(16) 0.032(3) -0.055(3) 0.0263(12) 0.0263(12)
#End of TTdata_194320-ICSD