
#(C) 2017 by FIZ Karlsruhe - Leibniz Institute for Information Infrastructure.  All rights reserved.
data_194598-ICSD
_database_code_ICSD 194598
_audit_creation_date 2015-08-01
_chemical_name_systematic 'Hemilithium iron sulfate fluoride'
_chemical_formula_structural 'Li0.5 Fe (S O4) F'
_chemical_formula_sum 'F1 Fe1 Li0.5 O4 S1'
_exptl_crystal_density_diffrn 3.32
_publ_section_title

;
Identification of an intermediate phase, Li0.5 Fe S O4 F, formed during
electrochemical cycling of tavorite Li Fe S O4 F
;
loop_
_citation_id
_citation_journal_full
_citation_year
_citation_journal_volume
_citation_page_first
_citation_page_last
_citation_journal_id_ASTM
primary 'Chemistry of Materials' 2014 26 4620 4628 CMATEX
loop_
_publ_author_name
'Sobkowiak, Adam'
'Roberts, Matthew R.'
'H aaggstroem, Lennart'
'Ericsson, Tore'
'Andersson, Anna M.'
'Edstroem, Kristina'
'Gustafsson, Torbjoern'
'Bjoerefors, Fredrik'
_cell_length_a 5.1427(3)
_cell_length_b 5.2972(4)
_cell_length_c 7.3234(3)
_cell_angle_alpha 108.830(6)
_cell_angle_beta 109.394(6)
_cell_angle_gamma 94.274(5)
_cell_volume 174.38
_cell_formula_units_Z 2
_symmetry_space_group_name_H-M 'P -1'
_symmetry_Int_Tables_number 2
_refine_ls_R_factor_all 0.0665
loop_
_symmetry_equiv_pos_site_id
_symmetry_equiv_pos_as_xyz
1 '-x, -y, -z'
2 'x, y, z'
loop_
_atom_type_symbol
_atom_type_oxidation_number
S6+ 6
Fe2+ 2.5
F1- -1
O2- -2
Li1+ 1
loop_
_atom_site_label
_atom_site_type_symbol
_atom_site_symmetry_multiplicity
_atom_site_Wyckoff_symbol
_atom_site_fract_x
_atom_site_fract_y
_atom_site_fract_z
_atom_site_B_iso_or_equiv
_atom_site_occupancy
_atom_site_attached_hydrogens
S1 S6+ 2 i 0.353(2) 0.624(2) 0.261(2) 7.3(2) 1. 0
Fe1 Fe2+ 1 b 0 0 0.5 7.3(2) 1. 0
Fe2 Fe2+ 1 a 0 0 0 7.3(2) 1. 0
F1 F1- 2 i 0.156(3) 0.921(2) 0.761(2) 7.3(2) 1. 0
O1 O2- 2 i 0.615(5) 0.761(4) 0.379(4) 7.3(2) 1. 0
O2 O2- 2 i 0.124(4) 0.677(3) 0.353(3) 7.3(2) 1. 0
O3 O2- 2 i 0.286(4) 0.344(5) 0.163(4) 7.3(2) 1. 0
O4 O2- 2 i 0.289(3) 0.797(3) 0.119(3) 7.3(2) 1. 0
Li1 Li1+ 2 i 0.27 0.634 0.757 7.3(2) 0.5 0
#End of TTdata_194598-ICSD