
#(C) 2018 by FIZ Karlsruhe - Leibniz Institute for Information Infrastructure.  All rights reserved.
data_195129-ICSD
_database_code_ICSD 195129
_audit_creation_date 2015-08-01
_chemical_name_systematic 'Lithium tetrakis(dioxodifluorophosphate) borate'
_chemical_formula_structural 'Li (B (O2 P F2)4)'
_chemical_formula_sum 'B1 F8 Li1 O8 P4'
_exptl_crystal_density_diffrn 2.15
_cell_measurement_temperature 100.
_publ_section_title

;
Homoleptic borates and aluminates containing the difluorophosphato ligand - (M
(O2 P F2)x)(y-) - synthesis and characterization
;
loop_
_citation_id
_citation_journal_full
_citation_year
_citation_journal_volume
_citation_page_first
_citation_page_last
_citation_journal_id_ASTM
primary 'Dalton Transactions' 2015 44 7048 7057 DTARAF
loop_
_publ_author_name
'Schulz, Christoph'
'Eiden, Philipp'
'Klose, Petra'
'Ermantraut, Andreas'
'Schmidt, Michael'
'Garsuch, Arnd'
'Krossing, Ingo'
_cell_length_a 7.9074(2)
_cell_length_b 14.0602(4)
_cell_length_c 13.7851(3)
_cell_angle_alpha 90
_cell_angle_beta 121.9130(10)
_cell_angle_gamma 90
_cell_volume 1300.96
_cell_formula_units_Z 4
_symmetry_space_group_name_H-M 'P 1 21/c 1'
_symmetry_Int_Tables_number 14
_refine_ls_R_factor_all 0.0284
loop_
_symmetry_equiv_pos_site_id
_symmetry_equiv_pos_as_xyz
1 'x, -y+1/2, z+1/2'
2 '-x, -y, -z'
3 '-x, y+1/2, -z+1/2'
4 'x, y, z'
loop_
_atom_type_symbol
_atom_type_oxidation_number
P5+ 5
F1- -1
O2- -2
B3+ 3
Li1+ 1
O2- -2
P5+ 5
F1- -1
O2- -2
P5+ 5
F1- -1
loop_
_atom_site_label
_atom_site_type_symbol
_atom_site_symmetry_multiplicity
_atom_site_Wyckoff_symbol
_atom_site_fract_x
_atom_site_fract_y
_atom_site_fract_z
_atom_site_B_iso_or_equiv
_atom_site_occupancy
_atom_site_attached_hydrogens
P1 P5+ 4 e 0.60733(4) 0.89988(2) 0.62486(2) 0.01929(5) 1 0
P2 P5+ 4 e 0.74814(3) 0.62828(2) 0.81618(2) 0.01654(5) 1 0
P3 P5+ 4 e 0.86041(3) 0.89143(2) 1.01007(2) 0.01491(5) 1 0
F1 F1- 4 e 0.38668(12) 0.88782(7) 0.57778(10) 0.0475(2) 1 0
F2 F1- 4 e 0.61438(13) 0.87353(5) 0.52025(6) 0.03291(16) 1 0
F3 F1- 4 e 0.84924(12) 0.55635(5) 0.91238(7) 0.03554(17) 1 0
F4 F1- 4 e 0.79827(14) 0.58717(6) 0.73216(8) 0.03715(18) 1 0
F5 F1- 4 e 0.78995(11) 0.80601(5) 1.04809(6) 0.02923(14) 1 0
F6 F1- 4 e 0.72191(9) 0.96854(5) 1.00585(5) 0.02285(11) 1 0
O1 O2- 4 e 0.70661(11) 0.81572(5) 0.70461(6) 0.01995(12) 1 0
O2 O2- 4 e 0.67909(15) 0.99501(5) 0.66508(7) 0.02991(17) 1 0
O3 O2- 4 e 1.04447(11) 0.85083(5) 0.85096(7) 0.02360(14) 1 0
O4 O2- 4 e 0.87957(10) 0.71574(5) 0.86733(6) 0.01796(11) 1 0
O5 O2- 4 e 0.53671(12) 0.63641(7) 0.76789(7) 0.02883(16) 1 0
O6 O2- 4 e 0.78261(10) 0.87372(5) 0.88439(5) 0.01713(11) 1 0
O7 O2- 4 e 1.07015(10) 0.91120(5) 1.08874(6) 0.02073(12) 1 0
B1 B3+ 4 e 0.85388(14) 0.81388(6) 0.82709(8) 0.01568(14) 1 0
Li1 Li1+ 4 e 0.2821(3) 0.60845(12) 0.74682(15) 0.0200(3) 1 0
O8 O2- 4 e 1.2027(7) 0.7157(2) 0.8032(7) 0.0263(2) 0.8230(10) 0
P4 P5+ 4 e 1.22246(5) 0.80592(2) 0.85794(4) 0.01904(7) 0.8230(10) 0
F7 F1- 4 e 1.37935(17) 0.80571(9) 0.98586(10) 0.0509(3) 0.8230(10) 0
F8 F1- 4 e 1.3087(2) 0.88344(7) 0.82146(16) 0.0491(3) 0.8230(10) 0
O9 O2- 4 e 1.203(3) 0.7094(10) 0.802(4) 0.0263(2) 0.1770(10) 0
P5 P5+ 4 e 1.1808(2) 0.81291(11) 0.80960(19) 0.01904(7) 0.1770(10) 0
F9 F1- 4 e 1.3835(8) 0.8522(5) 0.9039(8) 0.071(2) 0.1770(10) 0
F10 F1- 4 e 1.1207(11) 0.8702(3) 0.7077(6) 0.0592(17) 0.1770(10) 0
loop_
_atom_site_aniso_label
_atom_site_aniso_type_symbol
_atom_site_aniso_U_11
_atom_site_aniso_U_22
_atom_site_aniso_U_33
_atom_site_aniso_U_12
_atom_site_aniso_U_13
_atom_site_aniso_U_23
P1 P5+ 0.02208(11) 0.01463(9) 0.01815(10) 0.00592(7) 0.00858(8) 0.00162(7)
P2 P5+ 0.01870(10) 0.01367(9) 0.01844(10) -0.00111(7) 0.01063(8) 0.00123(7)
P3 P5+ 0.01545(9) 0.01429(9) 0.01517(9) -0.00343(6) 0.00822(7) -0.00141(6)
F1 F1- 0.0230(3) 0.0421(5) 0.0676(6) 0.0096(3) 0.0173(4) 0.0064(4)
F2 F1- 0.0543(5) 0.0235(3) 0.0188(3) 0.0101(3) 0.0179(3) 0.0042(2)
F3 F1- 0.0349(4) 0.0232(3) 0.0410(4) 0.0033(3) 0.0149(3) 0.0178(3)
F4 F1- 0.0514(5) 0.0300(3) 0.0464(4) -0.0102(3) 0.0370(4) -0.0178(3)
F5 F1- 0.0371(4) 0.0233(3) 0.0327(3) -0.0117(3) 0.0221(3) 0.0008(2)
F6 F1- 0.0223(3) 0.0244(3) 0.0252(3) 0.0006(2) 0.0148(2) -0.0056(2)
O1 O2- 0.0287(3) 0.0126(2) 0.0143(3) 0.0014(2) 0.0085(2) 0.00036(19)
O2 O2- 0.0455(5) 0.0130(3) 0.0262(3) 0.0059(3) 0.0155(3) 0.0017(2)
O3 O2- 0.0213(3) 0.0156(3) 0.0392(4) -0.0030(2) 0.0196(3) -0.0063(3)
O4 O2- 0.0174(3) 0.0135(2) 0.0172(3) 0.0002(2) 0.0053(2) 0.00099(19)
O5 O2- 0.0183(3) 0.0359(4) 0.0292(4) -0.0048(3) 0.0104(3) 0.0032(3)
O6 O2- 0.0155(2) 0.0182(3) 0.0154(2) 0.0009(2) 0.0066(2) -0.0033(2)
O7 O2- 0.0169(3) 0.0230(3) 0.0165(3) -0.0031(2) 0.0049(2) 0.0014(2)
B1 B3+ 0.0163(3) 0.0129(3) 0.0169(4) -0.0003(3) 0.0081(3) -0.0013(3)
Li1 Li1+ 0.0195(7) 0.0167(7) 0.0204(7) -0.0003(5) 0.0083(6) -0.0009(5)
O8 O2- 0.0259(3) 0.0189(5) 0.0338(4) 0.0030(4) 0.0155(3) -0.0063(7)
P4 P5+ 0.01527(13) 0.01439(11) 0.0261(2) 0.00074(9) 0.01004(13) -0.00190(11)
F7 F1- 0.0379(5) 0.0443(6) 0.0352(5) 0.0136(5) -0.0048(4) -0.0145(4)
F8 F1- 0.0562(7) 0.0234(4) 0.1025(11) -0.0027(4) 0.0656(8) 0.0009(5)
O9 O2- 0.0259(3) 0.0189(5) 0.0338(4) 0.0030(4) 0.0155(3) -0.0063(7)
P5 P5+ 0.01527(13) 0.01439(11) 0.0261(2) 0.00074(9) 0.01004(13) -0.00190(11)
F9 F1- 0.029(2) 0.064(4) 0.125(6) -0.031(2) 0.044(3) -0.067(4)
F10 F1- 0.110(5) 0.026(2) 0.100(4) 0.019(3) 0.095(4) 0.023(2)
#End of TTdata_195129-ICSD