
#(C) 2018 by FIZ Karlsruhe - Leibniz Institute for Information Infrastructure.  All rights reserved.
data_196084-ICSD
_database_code_ICSD 196084
_audit_creation_date 2016-02-01
_chemical_name_systematic 'Lithium-0.38 sodium-0.62 iron hexaoxodigermanate'
_chemical_formula_structural '(Li0.38 Na0.62) Fe (Ge2 O6)'
_chemical_formula_sum 'Fe1 Ge2 Li0.38 Na0.62 O6'
_chemical_name_structure_type Pyroxene-CaMg(SiO3)2
_chemical_name_mineral 'Clinopyroxene - (Li,Na,Fe,Ge)'
_exptl_crystal_density_diffrn 4.5
_cell_measurement_temperature 293.
_publ_section_title

;
The (Na,Li) Fe Ge2 O6 clinopyroxene-type series: a temperature-dependent
single-crystal X-ray diffraction and (57)Fe Moessbauer spectroscopic study
;
loop_
_citation_id
_citation_journal_full
_citation_year
_citation_journal_volume
_citation_page_first
_citation_page_last
_citation_journal_id_ASTM
primary 'Physics and Chemistry of Minerals' 2016 43 1 22 PCMIDU
loop_
_publ_author_name
'Redhammer, Guenther J.'
'Tippelt, Gerold'
_cell_length_a 10.0251(9)
_cell_length_b 8.8306(8)
_cell_length_c 5.5289(5)
_cell_angle_alpha 90
_cell_angle_beta 108.729(2)
_cell_angle_gamma 90
_cell_volume 463.54
_cell_formula_units_Z 4
_symmetry_space_group_name_H-M 'C 1 2/c 1'
_symmetry_Int_Tables_number 15
_refine_ls_R_factor_all 0.027
loop_
_symmetry_equiv_pos_site_id
_symmetry_equiv_pos_as_xyz
1 'x, -y, z+1/2'
2 '-x, -y, -z'
3 '-x, y, -z+1/2'
4 'x, y, z'
5 'x+1/2, -y+1/2, z+1/2'
6 '-x+1/2, -y+1/2, -z'
7 '-x+1/2, y+1/2, -z+1/2'
8 'x+1/2, y+1/2, z'
loop_
_atom_type_symbol
_atom_type_oxidation_number
Na1+ 1
Li1+ 1
Fe3+ 3
Ge4+ 4
O2- -2
loop_
_atom_site_label
_atom_site_type_symbol
_atom_site_symmetry_multiplicity
_atom_site_Wyckoff_symbol
_atom_site_fract_x
_atom_site_fract_y
_atom_site_fract_z
_atom_site_B_iso_or_equiv
_atom_site_occupancy
_atom_site_attached_hydrogens
Na1 Na1+ 4 e 0. 0.2928(4) 0.25 0.0174(9) 0.619(3) 0
Li1 Li1+ 4 e 0. 0.2928(4) 0.25 0.0174(9) 0.381(3) 0
Fe1 Fe3+ 4 e 0. 0.90446(10) 0.25 0.0067(2) 1 0
Ge1 Ge4+ 8 f 0.28939(5) 0.09319(5) 0.23930(9) 0.00711(17) 1 0
O1 O2- 8 f 0.3572(4) 0.2740(4) 0.2946(6) 0.0137(7) 1 0
O2 O2- 8 f 0.1052(3) 0.0835(3) 0.1351(6) 0.0081(6) 1 0
O3 O2- 8 f 0.3626(3) -0.0065(4) 0.0401(6) 0.0144(7) 1 0
loop_
_atom_site_aniso_label
_atom_site_aniso_type_symbol
_atom_site_aniso_U_11
_atom_site_aniso_U_22
_atom_site_aniso_U_33
_atom_site_aniso_U_12
_atom_site_aniso_U_13
_atom_site_aniso_U_23
Na1 Na1+ 0.017(2) 0.015(2) 0.017(2) 0. 0.0017(16) 0.
Li1 Li1+ 0.017(2) 0.015(2) 0.017(2) 0. 0.0017(16) 0.
Fe1 Fe3+ 0.0057(4) 0.0068(4) 0.0076(4) 0. 0.0020(3) 0.
Ge1 Ge4+ 0.0054(3) 0.0082(3) 0.0077(3) -0.0009(2) 0.00214(18) -0.00043(19)
O1 O2- 0.0138(17) 0.0102(16) 0.0187(17) -0.0044(14) 0.0077(14) -0.0040(14)
O2 O2- 0.0044(14) 0.0114(16) 0.0076(14) 0.0006(13) 0.0008(11) 0.0015(13)
O3 O2- 0.0078(17) 0.025(2) 0.0085(16) -0.0009(14) 0.0005(13) -0.0075(13)
#End of TTdata_196084-ICSD