
#(C) 2018 by FIZ Karlsruhe - Leibniz Institute for Information Infrastructure.  All rights reserved.
data_196077-ICSD
_database_code_ICSD 196077
_audit_creation_date 2016-02-01
_chemical_name_systematic 'Lithium-0.37 sodium-0.63 iron hexaoxodigermanate'
_chemical_formula_structural '(Li0.37 Na0.63) Fe (Ge2 O6)'
_chemical_formula_sum 'Fe1 Ge2 Li0.37 Na0.63 O6'
_chemical_name_structure_type Pyroxene-MgSiO3-LT
_chemical_name_mineral 'Clinopyroxene - (Li,Na,Fe,Ge)'
_exptl_crystal_density_diffrn 4.52
_cell_measurement_temperature 293.
_publ_section_title

;
The (Na,Li) Fe Ge2 O6 clinopyroxene-type series: a temperature-dependent
single-crystal X-ray diffraction and (57)Fe Moessbauer spectroscopic study
;
loop_
_citation_id
_citation_journal_full
_citation_year
_citation_journal_volume
_citation_page_first
_citation_page_last
_citation_journal_id_ASTM
primary 'Physics and Chemistry of Minerals' 2016 43 1 22 PCMIDU
loop_
_publ_author_name
'Redhammer, Guenther J.'
'Tippelt, Gerold'
_cell_length_a 9.9816(8)
_cell_length_b 8.8642(7)
_cell_length_c 5.4923(5)
_cell_angle_alpha 90
_cell_angle_beta 108.392(7)
_cell_angle_gamma 90
_cell_volume 461.13
_cell_formula_units_Z 4
_symmetry_space_group_name_H-M 'P 1 21/c 1'
_symmetry_Int_Tables_number 14
_refine_ls_R_factor_all 0.028
loop_
_symmetry_equiv_pos_site_id
_symmetry_equiv_pos_as_xyz
1 'x, -y+1/2, z+1/2'
2 '-x, -y, -z'
3 '-x, y+1/2, -z+1/2'
4 'x, y, z'
loop_
_atom_type_symbol
_atom_type_oxidation_number
Li1+ 1
Na1+ 1
Fe3+ 3
Ge4+ 4
O2- -2
loop_
_atom_site_label
_atom_site_type_symbol
_atom_site_symmetry_multiplicity
_atom_site_Wyckoff_symbol
_atom_site_fract_x
_atom_site_fract_y
_atom_site_fract_z
_atom_site_B_iso_or_equiv
_atom_site_occupancy
_atom_site_attached_hydrogens
Li1 Li1+ 4 e 0.2592(4) 0.4596(4) 0.7413(7) 0.0170(11) 0.374(10) 0
Na1 Na1+ 4 e 0.2592(4) 0.4596(4) 0.7413(7) 0.0170(11) 0.626(10) 0
Fe1 Fe3+ 4 e 0.25067(10) 0.65328(8) 0.23317(17) 0.00585(19) 0.998 0
Ge1 Ge4+ 4 e 0.03991(7) 0.34327(8) 0.25029(12) 0.00728(19) 1 0
Ge2 Ge4+ 4 e 0.54345(7) 0.84245(8) 0.23164(12) 0.00613(18) 1 0
O1 O2- 4 e -0.1451(4) 0.3320(5) 0.1503(7) 0.0070(9) 1 0
O2 O2- 4 e 0.1086(5) 0.5225(5) 0.2821(8) 0.0111(10) 1 0
O3 O2- 4 e 0.1108(5) 0.2711(5) 0.5622(8) 0.0139(10) 1 0
O4 O2- 4 e 0.3580(4) 0.8317(5) 0.1181(7) 0.0077(9) 1 0
O5 O2- 4 e 0.6127(5) 1.0186(5) 0.3325(8) 0.0115(10) 1 0
O6 O2- 4 e 0.6149(4) 0.7242(5) 0.4994(7) 0.0109(10) 1 0
loop_
_atom_site_aniso_label
_atom_site_aniso_type_symbol
_atom_site_aniso_U_11
_atom_site_aniso_U_22
_atom_site_aniso_U_33
_atom_site_aniso_U_12
_atom_site_aniso_U_13
_atom_site_aniso_U_23
Li1 Li1+ 0.015(2) 0.019(2) 0.0147(18) -0.0029(19) 0.0018(14) -0.0012(18)
Na1 Na1+ 0.015(2) 0.019(2) 0.0147(18) -0.0029(19) 0.0018(14) -0.0012(18)
Fe1 Fe3+ 0.0053(4) 0.0058(4) 0.0068(4) 0.0002(5) 0.0023(3) 0.0003(4)
Ge1 Ge4+ 0.0071(4) 0.0073(4) 0.0080(3) -0.0010(3) 0.0032(3) -0.0002(3)
Ge2 Ge4+ 0.0050(4) 0.0061(4) 0.0073(3) -0.0011(3) 0.0020(3) -0.0005(3)
O1 O2- 0.004(2) 0.010(2) 0.0053(18) -0.0023(19) -0.0003(16) 0.0012(17)
O2 O2- 0.010(2) 0.010(2) 0.015(2) -0.0039(19) 0.0062(18) 0.0001(17)
O3 O2- 0.008(2) 0.019(3) 0.015(2) 0.003(2) 0.0029(18) 0.012(2)
O4 O2- 0.006(2) 0.008(2) 0.009(2) 0.0044(19) 0.0024(17) 0.0015(18)
O5 O2- 0.014(3) 0.006(2) 0.017(2) -0.0051(19) 0.0097(19) -0.0024(18)
O6 O2- 0.006(2) 0.015(2) 0.013(2) 0.0025(18) 0.0038(19) 0.0057(17)
#End of TTdata_196077-ICSD