
#(C) 2018 by FIZ Karlsruhe - Leibniz Institute for Information Infrastructure.  All rights reserved.
data_196082-ICSD
_database_code_ICSD 196082
_audit_creation_date 2016-02-01
_chemical_name_systematic 'Lithium-0.39 sodium-0.61 iron hexaoxodigermanate'
_chemical_formula_structural '(Li0.39 Na0.61) Fe (Ge2 O6)'
_chemical_formula_sum 'Fe1 Ge2 Li0.39 Na0.61 O6'
_chemical_name_structure_type Pyroxene-MgSiO3-LT
_chemical_name_mineral 'Clinopyroxene - (Li,Na,Fe,Ge)'
_exptl_crystal_density_diffrn 4.51
_cell_measurement_temperature 293.
_publ_section_title

;
The (Na,Li) Fe Ge2 O6 clinopyroxene-type series: a temperature-dependent
single-crystal X-ray diffraction and (57)Fe Moessbauer spectroscopic study
;
loop_
_citation_id
_citation_journal_full
_citation_year
_citation_journal_volume
_citation_page_first
_citation_page_last
_citation_journal_id_ASTM
primary 'Physics and Chemistry of Minerals' 2016 43 1 22 PCMIDU
loop_
_publ_author_name
'Redhammer, Guenther J.'
'Tippelt, Gerold'
_cell_length_a 10.0065(14)
_cell_length_b 8.8453(14)
_cell_length_c 5.5133(9)
_cell_angle_alpha 90
_cell_angle_beta 108.581(7)
_cell_angle_gamma 90
_cell_volume 462.54
_cell_formula_units_Z 4
_symmetry_space_group_name_H-M 'P 1 21/c 1'
_symmetry_Int_Tables_number 14
_refine_ls_R_factor_all 0.0333
loop_
_symmetry_equiv_pos_site_id
_symmetry_equiv_pos_as_xyz
1 'x, -y+1/2, z+1/2'
2 '-x, -y, -z'
3 '-x, y+1/2, -z+1/2'
4 'x, y, z'
loop_
_atom_type_symbol
_atom_type_oxidation_number
Li1+ 1
Na1+ 1
Fe3+ 3
Ge4+ 4
O2- -2
loop_
_atom_site_label
_atom_site_type_symbol
_atom_site_symmetry_multiplicity
_atom_site_Wyckoff_symbol
_atom_site_fract_x
_atom_site_fract_y
_atom_site_fract_z
_atom_site_B_iso_or_equiv
_atom_site_occupancy
_atom_site_attached_hydrogens
Li1 Li1+ 4 e 0.2553(7) 0.4581(4) 0.7437(10) 0.0161(12) 0.386(11) 0
Na1 Na1+ 4 e 0.2553(7) 0.4581(4) 0.7437(10) 0.0161(12) 0.614(11) 0
Fe1 Fe3+ 4 e 0.25059(17) 0.65402(9) 0.2399(3) 0.0072(2) 0.998 0
Ge1 Ge4+ 4 e 0.03914(9) 0.34349(11) 0.24600(16) 0.0076(2) 1 0
Ge2 Ge4+ 4 e 0.54163(9) 0.84264(11) 0.23388(15) 0.0071(2) 1 0
O1 O2- 4 e -0.1463(6) 0.3333(7) 0.1443(9) 0.0087(12) 1 0
O2 O2- 4 e 0.1084(7) 0.5232(6) 0.2861(10) 0.0118(13) 1 0
O3 O2- 4 e 0.1116(6) 0.2671(6) 0.5547(10) 0.0103(13) 1 0
O4 O2- 4 e 0.3566(6) 0.8326(7) 0.1242(9) 0.0079(12) 1 0
O5 O2- 4 e 0.6095(7) 1.0206(6) 0.3161(10) 0.0148(14) 1 0
O6 O2- 4 e 0.6134(6) 0.7364(7) 0.5155(9) 0.0187(16) 1 0
loop_
_atom_site_aniso_label
_atom_site_aniso_type_symbol
_atom_site_aniso_U_11
_atom_site_aniso_U_22
_atom_site_aniso_U_33
_atom_site_aniso_U_12
_atom_site_aniso_U_13
_atom_site_aniso_U_23
Li1 Li1+ 0.016(2) 0.016(2) 0.017(2) -0.001(3) 0.0047(15) 0.002(3)
Na1 Na1+ 0.016(2) 0.016(2) 0.017(2) -0.001(3) 0.0047(15) 0.002(3)
Fe1 Fe3+ 0.0057(4) 0.0066(4) 0.0094(4) -0.0010(8) 0.0027(3) 0.0004(7)
Ge1 Ge4+ 0.0055(5) 0.0082(5) 0.0099(4) -0.0013(4) 0.0038(4) -0.0005(4)
Ge2 Ge4+ 0.0051(5) 0.0074(5) 0.0087(4) -0.0014(4) 0.0020(3) -0.0002(4)
O1 O2- 0.005(3) 0.011(3) 0.009(2) 0.005(3) 0.001(2) 0.001(2)
O2 O2- 0.012(4) 0.008(3) 0.018(3) -0.001(3) 0.008(2) 0.002(2)
O3 O2- 0.006(3) 0.016(3) 0.011(2) 0.000(2) 0.005(2) 0.005(2)
O4 O2- 0.007(3) 0.007(3) 0.009(2) -0.001(3) 0.001(2) 0.002(2)
O5 O2- 0.016(4) 0.004(3) 0.029(3) -0.002(3) 0.013(3) -0.005(2)
O6 O2- 0.001(3) 0.034(4) 0.016(3) -0.004(3) -0.004(3) 0.012(2)
#End of TTdata_196082-ICSD