
#(C) 2018 by FIZ Karlsruhe - Leibniz Institute for Information Infrastructure.  All rights reserved.
data_196096-ICSD
_database_code_ICSD 196096
_audit_creation_date 2016-02-01
_chemical_name_systematic 'Lithium-0.85 sodium-0.15 iron hexaoxodigermanate'
_chemical_formula_structural '(Li0.85 Na0.15) Fe (Ge2 O6)'
_chemical_formula_sum 'Fe1 Ge2 Li0.85 Na0.15 O6'
_chemical_name_structure_type Pyroxene-MgSiO3-LT
_chemical_name_mineral 'Clinopyroxene - (Li,Na,Fe,Ge)'
_exptl_crystal_density_diffrn 4.54
_cell_measurement_temperature 293.
_publ_section_title

;
The (Na,Li) Fe Ge2 O6 clinopyroxene-type series: a temperature-dependent
single-crystal X-ray diffraction and (57)Fe Moessbauer spectroscopic study
;
loop_
_citation_id
_citation_journal_full
_citation_year
_citation_journal_volume
_citation_page_first
_citation_page_last
_citation_journal_id_ASTM
primary 'Physics and Chemistry of Minerals' 2016 43 1 22 PCMIDU
loop_
_publ_author_name
'Redhammer, Guenther J.'
'Tippelt, Gerold'
_cell_length_a 9.9156(8)
_cell_length_b 8.8310(8)
_cell_length_c 5.4114(5)
_cell_angle_alpha 90.
_cell_angle_beta 108.759(4)
_cell_angle_gamma 90.
_cell_volume 448.67
_cell_formula_units_Z 4
_symmetry_space_group_name_H-M 'P 1 21/c 1'
_symmetry_Int_Tables_number 14
_refine_ls_R_factor_all 0.0182
loop_
_symmetry_equiv_pos_site_id
_symmetry_equiv_pos_as_xyz
1 'x, -y+1/2, z+1/2'
2 '-x, -y, -z'
3 '-x, y+1/2, -z+1/2'
4 'x, y, z'
loop_
_atom_type_symbol
_atom_type_oxidation_number
Li1+ 1
Na1+ 1
Fe3+ 3
Ge4+ 4
O2- -2
loop_
_atom_site_label
_atom_site_type_symbol
_atom_site_symmetry_multiplicity
_atom_site_Wyckoff_symbol
_atom_site_fract_x
_atom_site_fract_y
_atom_site_fract_z
_atom_site_B_iso_or_equiv
_atom_site_occupancy
_atom_site_attached_hydrogens
Li1 Li1+ 4 e 0.2598(3) 0.4775(4) 0.7286(6) 0.0200(12) 0.849(7) 0
Na1 Na1+ 4 e 0.2598(3) 0.4775(4) 0.7286(6) 0.0200(12) 0.151(6) 0
Fe1 Fe3+ 4 e 0.25069(4) 0.65108(4) 0.21870(7) 0.00685(10) 1. 0
Ge1 Ge4+ 4 e 0.04432(3) 0.34221(3) 0.27250(5) 0.00725(9) 1 0
Ge2 Ge4+ 4 e 0.55002(3) 0.84036(3) 0.23087(5) 0.00699(9) 1 0
O1 O2- 4 e -0.14223(19) 0.3320(2) 0.1702(4) 0.0081(4) 1 0
O2 O2- 4 e 0.1128(2) 0.5219(2) 0.2835(4) 0.0136(4) 1 0
O3 O2- 4 e 0.11470(19) 0.2863(2) 0.6009(4) 0.0116(4) 1 0
O4 O2- 4 e 0.36323(19) 0.8319(2) 0.1095(3) 0.0085(4) 1 0
O5 O2- 4 e 0.62515(19) 1.0077(2) 0.3720(4) 0.0121(4) 1 0
O6 O2- 4 e 0.61288(19) 0.6973(2) 0.4676(4) 0.0116(4) 1 0
loop_
_atom_site_aniso_label
_atom_site_aniso_type_symbol
_atom_site_aniso_U_11
_atom_site_aniso_U_22
_atom_site_aniso_U_33
_atom_site_aniso_U_12
_atom_site_aniso_U_13
_atom_site_aniso_U_23
Li1 Li1+ 0.0172(19) 0.028(2) 0.0138(19) -0.0068(15) 0.0037(14) -0.0042(15)
Na1 Na1+ 0.0172(19) 0.028(2) 0.0138(19) -0.0068(15) 0.0037(14) -0.0042(15)
Fe1 Fe3+ 0.00606(19) 0.0078(2) 0.0063(2) 0.00005(15) 0.00143(14) 0.00034(15)
Ge1 Ge4+ 0.00614(15) 0.00885(17) 0.00666(15) -0.00117(11) 0.00192(11)
-0.00033(11)
Ge2 Ge4+ 0.00610(15) 0.00806(17) 0.00639(16) -0.00101(11) 0.00144(11)
-0.00065(11)
O1 O2- 0.0059(9) 0.0090(10) 0.0082(9) -0.0008(7) 0.0007(7) 0.0011(7)
O2 O2- 0.0148(10) 0.0115(11) 0.0158(10) -0.0042(8) 0.0067(8) -0.0007(8)
O3 O2- 0.0088(10) 0.0189(11) 0.0070(9) -0.0029(8) 0.0027(8) 0.0025(8)
O4 O2- 0.0072(9) 0.0106(10) 0.0072(9) 0.0001(7) 0.0016(7) 0.0014(7)
O5 O2- 0.0133(10) 0.0108(10) 0.0142(10) -0.0056(8) 0.0072(8) -0.0044(8)
O6 O2- 0.0095(10) 0.0164(11) 0.0091(10) 0.0012(8) 0.0034(8) 0.0045(8)
#End of TTdata_196096-ICSD