
#(C) 2018 by FIZ Karlsruhe - Leibniz Institute for Information Infrastructure.  All rights reserved.
data_196085-ICSD
_database_code_ICSD 196085
_audit_creation_date 2016-02-01
_chemical_name_systematic 'Lithium-0.39 sodium-0.61 iron hexaoxodigermanate'
_chemical_formula_structural '(Li0.39 Na0.61) Fe (Ge2 O6)'
_chemical_formula_sum 'Fe1 Ge2 Li0.39 Na0.61 O6'
_chemical_name_structure_type Pyroxene-CaMg(SiO3)2
_chemical_name_mineral 'Clinopyroxene - (Li,Na,Fe,Ge)'
_exptl_crystal_density_diffrn 4.49
_cell_measurement_temperature 293.
_publ_section_title

;
The (Na,Li) Fe Ge2 O6 clinopyroxene-type series: a temperature-dependent
single-crystal X-ray diffraction and (57)Fe Moessbauer spectroscopic study
;
loop_
_citation_id
_citation_journal_full
_citation_year
_citation_journal_volume
_citation_page_first
_citation_page_last
_citation_journal_id_ASTM
primary 'Physics and Chemistry of Minerals' 2016 43 1 22 PCMIDU
loop_
_publ_author_name
'Redhammer, Guenther J.'
'Tippelt, Gerold'
_cell_length_a 10.0267(9)
_cell_length_b 8.8325(8)
_cell_length_c 5.5299(5)
_cell_angle_alpha 90
_cell_angle_beta 108.722(2)
_cell_angle_gamma 90
_cell_volume 463.81
_cell_formula_units_Z 4
_symmetry_space_group_name_H-M 'C 1 2/c 1'
_symmetry_Int_Tables_number 15
_refine_ls_R_factor_all 0.0282
loop_
_symmetry_equiv_pos_site_id
_symmetry_equiv_pos_as_xyz
1 'x, -y, z+1/2'
2 '-x, -y, -z'
3 '-x, y, -z+1/2'
4 'x, y, z'
5 'x+1/2, -y+1/2, z+1/2'
6 '-x+1/2, -y+1/2, -z'
7 '-x+1/2, y+1/2, -z+1/2'
8 'x+1/2, y+1/2, z'
loop_
_atom_type_symbol
_atom_type_oxidation_number
Na1+ 1
Li1+ 1
Fe3+ 3
Ge4+ 4
O2- -2
loop_
_atom_site_label
_atom_site_type_symbol
_atom_site_symmetry_multiplicity
_atom_site_Wyckoff_symbol
_atom_site_fract_x
_atom_site_fract_y
_atom_site_fract_z
_atom_site_B_iso_or_equiv
_atom_site_occupancy
_atom_site_attached_hydrogens
Na1 Na1+ 4 e 0. 0.2917(5) 0.25 0.0160(9) 0.612(3) 0
Li1 Li1+ 4 e 0. 0.2917(5) 0.25 0.0160(9) 0.388(3) 0
Fe1 Fe3+ 4 e 0. 0.90446(11) 0.25 0.0073(2) 1 0
Ge1 Ge4+ 8 f 0.28940(5) 0.09320(5) 0.23926(9) 0.00744(18) 1 0
O1 O2- 8 f 0.3574(4) 0.2735(4) 0.2938(7) 0.0150(8) 1 0
O2 O2- 8 f 0.1050(3) 0.0830(4) 0.1354(6) 0.0082(7) 1 0
O3 O2- 8 f 0.3627(3) -0.0066(4) 0.0401(6) 0.0145(8) 1 0
loop_
_atom_site_aniso_label
_atom_site_aniso_type_symbol
_atom_site_aniso_U_11
_atom_site_aniso_U_22
_atom_site_aniso_U_33
_atom_site_aniso_U_12
_atom_site_aniso_U_13
_atom_site_aniso_U_23
Na1 Na1+ 0.013(2) 0.018(2) 0.014(2) 0. 0.0002(16) 0.
Li1 Li1+ 0.013(2) 0.018(2) 0.014(2) 0. 0.0002(16) 0.
Fe1 Fe3+ 0.0069(5) 0.0070(5) 0.0081(5) 0. 0.0024(4) 0.
Ge1 Ge4+ 0.0057(3) 0.0090(3) 0.0077(3) -0.0014(2) 0.00229(18) -0.0007(2)
O1 O2- 0.0137(18) 0.0109(17) 0.0208(19) -0.0056(15) 0.0060(15) 0.0006(15)
O2 O2- 0.0044(15) 0.0108(16) 0.0093(16) -0.0005(13) 0.0021(12) 0.0003(13)
O3 O2- 0.0074(17) 0.025(2) 0.0105(18) 0.0006(15) 0.0018(14) -0.0115(14)
#End of TTdata_196085-ICSD