
#(C) 2018 by FIZ Karlsruhe - Leibniz Institute for Information Infrastructure.  All rights reserved.
data_201531-ICSD
_database_code_ICSD 201531
_audit_creation_date 1985-07-17
_audit_update_record 1985-07-27
_chemical_name_systematic 'Dilithium sulfate monohydrate'
_chemical_formula_structural 'Li2 S O4 (H2 O)'
_chemical_formula_sum 'H2 Li2 O5 S1'
_chemical_name_structure_type Li2SO4H2O
_exptl_crystal_density_diffrn 2.08
_cell_measurement_temperature 80.
_publ_section_title

;
Neutron diffraction structural study of pyroelectric Li2 S O4*H2 O at 293,80,
and 20 K
;
loop_
_citation_id
_citation_journal_full
_citation_year
_citation_journal_volume
_citation_page_first
_citation_page_last
_citation_journal_id_ASTM
primary 'Journal of Chemical Physics' 1984 80 423 430 JCPSA6
loop_
_publ_author_name
'Lundgren, J.O.'
'Kvick, A.'
'Karppinen, M.'
'Liminga, R.'
'Abrahams, S.C.'
_cell_length_a 5.449(2)
_cell_length_b 4.832(2)
_cell_length_c 8.141(2)
_cell_angle_alpha 90.
_cell_angle_beta 107.21(1)
_cell_angle_gamma 90.
_cell_volume 204.75
_cell_formula_units_Z 2
_symmetry_space_group_name_H-M 'P 1 21 1'
_symmetry_Int_Tables_number 4
_refine_ls_R_factor_all 0.016
loop_
_symmetry_equiv_pos_site_id
_symmetry_equiv_pos_as_xyz
1 '-x, y+1/2, -z'
2 'x, y, z'
loop_
_atom_type_symbol
_atom_type_oxidation_number
Li1+ 1
S6+ 6
O2- -2
H1+ 1
loop_
_atom_site_label
_atom_site_type_symbol
_atom_site_symmetry_multiplicity
_atom_site_Wyckoff_symbol
_atom_site_fract_x
_atom_site_fract_y
_atom_site_fract_z
_atom_site_B_iso_or_equiv
_atom_site_occupancy
_atom_site_attached_hydrogens
Li1 Li1+ 2 a 0.30310(19) 0.49640(29) 0.99280(13) . 1. 0
Li2 Li1+ 2 a 0.56021(20) 0.48879(32) 0.39519(13) . 1. 0
S1 S6+ 2 a 0.29242(12) 0 0.20806(8) . 1. 0
O1 O2- 2 a 0.02102(8) 0.07369(19) 0.17105(4) . 1. 0
O2 O2- 2 a 0.43707(6) 0.11085(19) 0.37855(4) . 1. 0
O3 O2- 2 a 0.39807(6) 0.12075(19) 0.07645(4) . 1. 0
O4 O2- 2 a 0.32492(7) 0.69631(17) 0.20982(4) . 1. 0
O5 O2- 2 a 0.91377(7) 0.46496(20) 0.40358(5) . 1. 0
H1 H1+ 2 a 0.97062(17) 0.39065(31) 0.31130(11) . 1. 0
H2 H1+ 2 a 0.00655(17) 0.63201(28) 0.44600(13) . 1. 0
loop_
_atom_site_aniso_label
_atom_site_aniso_type_symbol
_atom_site_aniso_U_11
_atom_site_aniso_U_22
_atom_site_aniso_U_33
_atom_site_aniso_U_12
_atom_site_aniso_U_13
_atom_site_aniso_U_23
Li1 Li1+ 0.00937(37) 0.00869(48) 0.00885(38) 0.00011(36) 0.00260(31) 0.00019(37)
Li2 Li1+ 0.00939(36) 0.00887(50) 0.00875(37) 0.00022(35) 0.0017(3) -.00009(37)
S1 S6+ 0.00397(23) 0.0040(3) 0.00408(24) 0.00029(21) 0.00078(19) -.00012(22)
O1 O2- 0.00481(11) 0.00880(18) 0.00759(12) 0.00082(12) 0.00101(9) -.00079(12)
O2 O2- 0.00734(12) 0.00641(15) 0.00466(12) -.00115(12) 0.00045(9) -.00062(12)
O3 O2- 0.00826(12) 0.00620(16) 0.00669(12) 0.00086(12) 0.00392(10) 0.00133(12)
O4 O2- 0.00862(13) 0.00428(15) 0.00619(13) 0.00027(12) 0.00147(10) 0.00008(11)
O5 O2- 0.00845(14) 0.01190(18) 0.01249(15) -.00045(14) 0.00453(11) -.00156(14)
H1 H1+ 0.02917(38) 0.04547(64) 0.02474(34) 0.00381(41) 0.01481(31) -.00648(40)
H2 H1+ 0.02727(37) 0.02459(47) 0.04090(45) -.01091(37) 0.00944(33) -.00593(40)
#End of TTdata_201531-ICSD