
#(C) 2017 by FIZ Karlsruhe - Leibniz Institute for Information Infrastructure.  All rights reserved.
data_201623-ICSD
_database_code_ICSD 201623
_audit_creation_date 1985-07-17
_audit_update_record 2013-02-01
_chemical_name_systematic 'Lithium sodium diyttrium fluoride'
_chemical_formula_structural 'Li Na Y2 F8'
_chemical_formula_sum 'F8 Li1 Na1 Y2'
_exptl_crystal_density_diffrn 3.99
_publ_section_title 'Structure cristalline de Li Na Y2 F8'
loop_
_citation_id
_citation_journal_full
_citation_year
_citation_journal_volume
_citation_page_first
_citation_page_last
_citation_journal_id_ASTM
primary 'Revue de Chimie Minerale' 1984 21 771 777 RVCMA8
loop_
_publ_author_name
'Avignant, D.'
'Zambon, D.'
'Metin, J.'
'Cousseins, J.C.'
_cell_length_a 6.622(2)
_cell_length_b 6.995(3)
_cell_length_c 6.632(3)
_cell_angle_alpha 90.
_cell_angle_beta 103.14(3)
_cell_angle_gamma 90.
_cell_volume 299.16
_cell_formula_units_Z 2
_symmetry_space_group_name_H-M 'P 1 21/m 1'
_symmetry_Int_Tables_number 11
_refine_ls_R_factor_all 0.04
loop_
_symmetry_equiv_pos_site_id
_symmetry_equiv_pos_as_xyz
1 'x, -y+1/2, z'
2 '-x, -y, -z'
3 '-x, y+1/2, -z'
4 'x, y, z'
loop_
_atom_type_symbol
_atom_type_oxidation_number
Y3+ 3
Na1+ 1
F1- -1
Li1+ 1
loop_
_atom_site_label
_atom_site_type_symbol
_atom_site_symmetry_multiplicity
_atom_site_Wyckoff_symbol
_atom_site_fract_x
_atom_site_fract_y
_atom_site_fract_z
_atom_site_B_iso_or_equiv
_atom_site_occupancy
_atom_site_attached_hydrogens
Y1 Y3+ 2 e 0.4504(1) 0.25 0.0773(1) . 1. 0
Y2 Y3+ 2 e 0.9229(1) 0.75 0.5497(1) . 1. 0
Na1 Na1+ 2 e 0.6547(7) 0.25 0.6549(6) . 1. 0
F1 F1- 2 e 0.0890(9) 0.25 0.0885(9) . 1. 0
F2 F1- 2 e 0.3909(11) 0.25 0.3912(11) . 1. 0
F3 F1- 2 e 0.7452(9) 0.25 0.3086(10) . 1. 0
F4 F1- 2 e 0.3092(10) 0.25 0.7461(9) . 1. 0
F5 F1- 4 f 0.9363(7) 0.0517(6) 0.6597(6) . 1. 0
F6 F1- 4 f 0.6607(7) 0.0514 0.9363(7) . 1. 0
Li1 Li1+ 2 a 0 0 0 . 1. 0
loop_
_atom_site_aniso_label
_atom_site_aniso_type_symbol
_atom_site_aniso_beta_11
_atom_site_aniso_beta_22
_atom_site_aniso_beta_33
_atom_site_aniso_beta_12
_atom_site_aniso_beta_13
_atom_site_aniso_beta_23
Y1 Y3+ 0.0004(1) 0.0037(2) 0.0033(1) 0 0.0010(1) 0
Y2 Y3+ 0.0042(1) 0.0036(2) 0.0035(1) 0 0.0010(1) 0
Na1 Na1+ 0.0053(9) 0.0117(9) 0.0020(9) 0 0.0015(8) 0
F1 F1- 0.0055(11) 0.0023(11) 0.0039(11) 0 0.0001(10) 0
F2 F1- 0.0047(15) 0.0372(15) 0.0034(15) 0 0.0026(13) 0
F3 F1- 0.0028(15) 0.0180(14) 0.0041(14) 0 -.0015(12) 0
F4 F1- 0.0060(15) 0.0197(15) 0.0007(16) 0 -.0004(13) 0
F5 F1- 0.0105(8) 0.0017(8) 0.0069(8) -.0008(7) 0.0074(7) 0.0002(7)
F6 F1- 0.0071(8) 0.0023(8) 0.0092(8) 0 0.0060(7) -.0004(7)
Li1 Li1+ 0.0091(35) 0.0013(36) 0.0126(34) -.0059(28) 0.0048(30) 0.0001(28)
#End of TTdata_201623-ICSD