
#(C) 2017 by FIZ Karlsruhe - Leibniz Institute for Information Infrastructure.  All rights reserved.
data_202489-ICSD
_database_code_ICSD 202489
_audit_creation_date 1988-05-17
_audit_update_record 2013-02-01
_chemical_name_systematic 'Lithium thallium zirconium fluoride (1/1/5/22)'
_chemical_formula_structural 'Li Tl Zr5 F22'
_chemical_formula_sum 'F22 Li1 Tl1 Zr5'
_exptl_crystal_density_diffrn 4.84
_publ_section_title 'Structure cristalline de fluorure Li Tl Zr5 F22'
loop_
_citation_id
_citation_journal_full
_citation_year
_citation_journal_volume
_citation_page_first
_citation_page_last
_citation_journal_id_ASTM
primary 'Revue de Chimie Minerale' 1987 24 391 400 RVCMA8
loop_
_publ_author_name
'Avignant, D.'
'Caignol, E.'
'Chevalier, R.'
'Cousseins, J.C.'
_cell_length_a 8.012(6)
_cell_length_b 8.012(6)
_cell_length_c 11.603(4)
_cell_angle_alpha 90.
_cell_angle_beta 90.
_cell_angle_gamma 90.
_cell_volume 744.82
_cell_formula_units_Z 2
_symmetry_space_group_name_H-M 'P 4/n b m Z'
_symmetry_Int_Tables_number 125
_refine_ls_R_factor_all 0.07
loop_
_symmetry_equiv_pos_site_id
_symmetry_equiv_pos_as_xyz
1 'y+1/2, x+1/2, z'
2 'y, -x+1/2, z'
3 '-y+1/2, x, z'
4 '-y, -x, z'
5 '-y+1/2, -x+1/2, -z'
6 '-y, x+1/2, -z'
7 'y+1/2, -x, -z'
8 'y, x, -z'
9 'x+1/2, y+1/2, -z'
10 '-x+1/2, y, -z'
11 'x, -y+1/2, -z'
12 '-x, -y, -z'
13 '-x+1/2, -y+1/2, z'
14 'x+1/2, -y, z'
15 '-x, y+1/2, z'
16 'x, y, z'
loop_
_atom_type_symbol
_atom_type_oxidation_number
Li1+ 1
Tl1+ 1
Zr4+ 4
F1- -1
loop_
_atom_site_label
_atom_site_type_symbol
_atom_site_symmetry_multiplicity
_atom_site_Wyckoff_symbol
_atom_site_fract_x
_atom_site_fract_y
_atom_site_fract_z
_atom_site_B_iso_or_equiv
_atom_site_occupancy
_atom_site_attached_hydrogens
Li1 Li1+ 2 c 0.75 0.25 0 . 1. 0
Tl1 Tl1+ 8 k 0.2349(5) 0.25 0 . 0.25 0
Zr1 Zr4+ 2 b 0.25 0.25 0.5 . 1. 0
Zr2 Zr4+ 8 m 0.0703(1) -.0703 0.2547(1) . 1. 0
F1 F1- 16 n 0.3191(11) 0.0363(11) 0.2132(6) . 1. 0
F2 F1- 16 n 0.1635(10) 0.0486(10) 0.4021(6) . 1. 0
F3 F1- 4 h 0.75 0.25 0.3007(14) . 1. 0
F4 F1- 8 m 0.1114(11) -.1114 0.0864(10) . 1. 0
loop_
_atom_site_aniso_label
_atom_site_aniso_type_symbol
_atom_site_aniso_beta_11
_atom_site_aniso_beta_22
_atom_site_aniso_beta_33
_atom_site_aniso_beta_12
_atom_site_aniso_beta_13
_atom_site_aniso_beta_23
Li1 Li1+ 0.0014(59) 0.0014 0.0080(41) 0 0 0
Tl1 Tl1+ 0.0044(14) 0.0066(11) 0.0015(1) 0 0 -.0007(97)
Zr1 Zr4+ 0.0010(2) 0.001 0.0010(1) 0 0 0
Zr2 Zr4+ 0.0010(1) 0.001 0.0010(1) 0.0000(1) 0.0000(1) 0
F1 F1- 0.0010(9) 0.0025(9) 0.0011(4) -.0007(7) -.0003(5) 0.0000(5)
F2 F1- 0.0025(8) 0.0011(8) 0.0010(3) -.0013(6) -.0001(4) -.0004(4)
F3 F1- 0.0014(11) 0.0014 0.0016(7) -.0004(17) 0 0
F4 F1- 0.0039(8) 0.0039 0.0010(5) 0.0006(11) 0.0008(5) -.0008
#End of TTdata_202489-ICSD