
#(C) 2017 by FIZ Karlsruhe - Leibniz Institute for Information Infrastructure.  All rights reserved.
data_202928-ICSD
_database_code_ICSD 202928
_audit_creation_date 1990-06-08
_audit_update_record 2005-10-01
_chemical_name_systematic 'Trilithium thorium fluoride'
_chemical_formula_structural 'Li3 Th F7'
_chemical_formula_sum 'F7 Li3 Th1'
_exptl_crystal_density_diffrn 5.2
_cell_measurement_temperature 5.
_publ_section_title
'Crystal structure of Li3 Th F7 solved by X-ray and neutron diffraction'
loop_
_citation_id
_citation_journal_full
_citation_year
_citation_journal_volume
_citation_page_first
_citation_page_last
_citation_journal_id_ASTM
primary 'Journal of Solid State Chemistry' 1989 80 206 212 JSSCBI
loop_
_publ_author_name
'Laligant, Y.'
'Le Bail, A.'
'Avignant, D.'
'Cousseins, J.C.'
'Ferey, G.'
_cell_length_a 8.7590(2)
_cell_length_b 8.7280(2)
_cell_length_c 12.8956(3)
_cell_angle_alpha 90.
_cell_angle_beta 90.
_cell_angle_gamma 90.
_cell_volume 985.85
_cell_formula_units_Z 8
_symmetry_space_group_name_H-M 'C c c a Z'
_symmetry_Int_Tables_number 68
_refine_ls_R_factor_all 0.1152
loop_
_symmetry_equiv_pos_site_id
_symmetry_equiv_pos_as_xyz
1 'x, y+1/2, -z'
2 '-x+1/2, y+1/2, -z+1/2'
3 'x+1/2, -y, -z+1/2'
4 '-x, -y, -z'
5 '-x, -y+1/2, z'
6 'x+1/2, -y+1/2, z+1/2'
7 '-x+1/2, y, z+1/2'
8 'x, y, z'
9 'x+1/2, y, -z'
10 '-x, y, -z+1/2'
11 'x, -y+1/2, -z+1/2'
12 '-x+1/2, -y+1/2, -z'
13 '-x+1/2, -y, z'
14 'x, -y, z+1/2'
15 '-x, y+1/2, z+1/2'
16 'x+1/2, y+1/2, z'
loop_
_atom_type_symbol
_atom_type_oxidation_number
Th4+ 4
F1- -1
Li1+ 1
loop_
_atom_site_label
_atom_site_type_symbol
_atom_site_symmetry_multiplicity
_atom_site_Wyckoff_symbol
_atom_site_fract_x
_atom_site_fract_y
_atom_site_fract_z
_atom_site_B_iso_or_equiv
_atom_site_occupancy
_atom_site_attached_hydrogens
Th1 Th4+ 8 h 0.25 0 0.1892(1) 0.31(3) 1. 0
F1 F1- 8 h 0.25 0 0.3742(3) 1.65(7) 1. 0
F2 F1- 16 i 0.0610(4) 0.0973(4) 0.5796(4) 1.35(8) 1. 0
F3 F1- 16 i 0.1476(4) 0.3106(4) 0.4224(4) 1.25(7) 1. 0
F4 F1- 8 f 0 0.4341(5) 0.25 1.14(9) 1. 0
F5 F1- 8 e 0.3152(5) 0.25 0.25 1.12(9) 1. 0
Li1 Li1+ 16 i 0.338(1) 0.179(1) 0.423(1) 1.2(1) 0.75(3) 0
Li2 Li1+ 16 i 0.056(1) 0.103(1) 0.431(1) 1.2(1) 0.75(3) 0
#End of TTdata_202928-ICSD