
#(C) 2018 by FIZ Karlsruhe - Leibniz Institute for Information Infrastructure.  All rights reserved.
data_2051-ICSD
_database_code_ICSD 2051
_audit_creation_date 1980-01-01
_audit_update_record 2011-02-01
_chemical_name_systematic 'Lithium hydrazinium sulfate(VI)'
_chemical_formula_structural 'Li (N2 H5) (S O4)'
_chemical_formula_sum 'H5 Li1 N2 O4 S1'
_chemical_name_structure_type LiN2H5SO4
_exptl_crystal_density_diffrn 1.96
_publ_section_title

;
A refinement of the crystal structure of lithium hydrazinium sulphate by X-ray
diffraction
;
loop_
_citation_id
_citation_journal_full
_citation_year
_citation_journal_volume
_citation_page_first
_citation_page_last
_citation_journal_id_ASTM
primary

;
Acta Crystallographica, Section B: Structural Crystallography and Crystal
Chemistry
; 1974 30 831 832 ACBCAR
loop_
_publ_author_name
'Anderson, M.R.'
'Brown, I.D.'
_cell_length_a 9.929(5)
_cell_length_b 8.973(3)
_cell_length_c 5.181(2)
_cell_angle_alpha 90.
_cell_angle_beta 90.
_cell_angle_gamma 90.
_cell_volume 461.59
_cell_formula_units_Z 4
_symmetry_space_group_name_H-M 'P n a 21'
_symmetry_Int_Tables_number 33
_refine_ls_R_factor_all 0.022
loop_
_symmetry_equiv_pos_site_id
_symmetry_equiv_pos_as_xyz
1 'x+1/2, -y+1/2, z'
2 '-x+1/2, y+1/2, z+1/2'
3 '-x, -y, z+1/2'
4 'x, y, z'
loop_
_atom_type_symbol
_atom_type_oxidation_number
Li1+ 1
S6+ 6
O2- -2
N2- -2
H1+ 1
loop_
_atom_site_label
_atom_site_type_symbol
_atom_site_symmetry_multiplicity
_atom_site_Wyckoff_symbol
_atom_site_fract_x
_atom_site_fract_y
_atom_site_fract_z
_atom_site_B_iso_or_equiv
_atom_site_occupancy
_atom_site_attached_hydrogens
Li1 Li1+ 4 a 0.3312(3) 0.4333(3) 0.2533(12) . 1. 0
S1 S6+ 4 a 0.1580(1) 0.1285(1) 0.25 . 1. 0
O1 O2- 4 a 0.1909(2) 0.1052(2) 0.5271(3) . 1. 0
O2 O2- 4 a 0.0115(1) 0.1540(2) 0.2282(5) . 1. 0
O3 O2- 4 a 0.2299(1) 0.2593(2) 0.1533(4) . 1. 0
O4 O2- 4 a 0.3040(2) 0.4957(2) 0.6023(3) . 1. 0
N1 N2- 4 a 0.0235(2) 0.4157(2) 0.7488(7) . 1. 0
N2 N2- 4 a 0.4400(2) 0.2136(2) 0.7381(6) . 1. 0
H1 H1+ 4 a 0.103(4) 0.392(4) 0.776(9) 0.016(7) 1. 0
H2 H1+ 4 a 0.026(7) 0.445(6) 0.582(15) 0.065(20) 1. 0
H3 H1+ 4 a 0.358(4) 0.192(6) 0.680(11) 0.04(2) 1. 0
H4 H1+ 4 a 0.446(6) 0.234(8) 0.895(17) 0.069(26) 1. 0
H5 H1+ 4 a 0.462(3) 0.282(4) 0.616(8) 0.008(8) 1. 0
loop_
_atom_site_aniso_label
_atom_site_aniso_type_symbol
_atom_site_aniso_U_11
_atom_site_aniso_U_22
_atom_site_aniso_U_33
_atom_site_aniso_U_12
_atom_site_aniso_U_13
_atom_site_aniso_U_23
Li1 Li1+ 0.021(1) 0.019(1) 0.018(1) -.001(1) -.001(2) -.002(2)
S1 S6+ 0.0110(1) 0.0124(1) 0.0117(1) -.0014(1) -.0009(2) 0.0001(2)
O1 O2- 0.0266(7) 0.0243(7) 0.0127(6) -.0025(5) -.0053(5) 0.0022(5)
O2 O2- 0.0115(4) 0.0317(7) 0.0281(8) -.0005(4) -.0013(7) 0.0061(8)
O3 O2- 0.0219(6) 0.0202(7) 0.0242(7) -.0089(5) 0.0022(6) 0.0039(6)
O4 O2- 0.0320(7) 0.0194(7) 0.0220(7) -.0062(6) 0.0048(6) -.0087(6)
N1 N2- 0.0308(8) 0.0276(8) 0.0353(9) -.0086(6) -.0010(13) 0.0035(13)
N2 N2- 0.0221(6) 0.0235(6) 0.0218(7) 0.0016(5) 0.0015(10) -.0001(10)
#End of TTdata_2051-ICSD