
#(C) 2018 by FIZ Karlsruhe - Leibniz Institute for Information Infrastructure.  All rights reserved.
data_23110-ICSD
_database_code_ICSD 23110
_audit_creation_date 1980-12-31
_chemical_name_systematic 'Lithium nitrate trihydrate'
_chemical_formula_structural 'Li N O3 (H2 O)3'
_chemical_formula_sum 'H6 Li1 N1 O6'
_chemical_name_structure_type LiNO3(H2O)3
_exptl_crystal_density_diffrn 1.57
_cell_measurement_temperature 295.
_publ_section_title

;
Hydrogen Bond Studies. CXXXVIII. Neutron Diffraction Studies of Li N O3 (H2
O)3 at 120 and 295 K
;
loop_
_citation_id
_citation_journal_full
_citation_year
_citation_journal_volume
_citation_page_first
_citation_page_last
_citation_journal_id_ASTM
primary

;
Acta Crystallographica, Section B: Structural Crystallography and Crystal
Chemistry
; 1980 36 1032 1040 ACBCAR
loop_
_publ_author_name
'Hermansson, K.'
'Thomas, J.O.'
'Olovsson, I.'
_cell_length_a 6.8018(4)
_cell_length_b 12.7132(9)
_cell_length_c 5.9990(4)
_cell_angle_alpha 90.
_cell_angle_beta 90.
_cell_angle_gamma 90.
_cell_volume 518.75
_cell_formula_units_Z 4
_symmetry_space_group_name_H-M 'C m c m'
_symmetry_Int_Tables_number 63
_refine_ls_R_factor_all 0.025
loop_
_symmetry_equiv_pos_site_id
_symmetry_equiv_pos_as_xyz
1 '-x, y, -z+1/2'
2 '-x, -y, z+1/2'
3 '-x, y, z'
4 '-x, -y, -z'
5 'x, -y, z+1/2'
6 'x, y, -z+1/2'
7 'x, -y, -z'
8 'x, y, z'
9 '-x+1/2, y+1/2, -z+1/2'
10 '-x+1/2, -y+1/2, z+1/2'
11 '-x+1/2, y+1/2, z'
12 '-x+1/2, -y+1/2, -z'
13 'x+1/2, -y+1/2, z+1/2'
14 'x+1/2, y+1/2, -z+1/2'
15 'x+1/2, -y+1/2, -z'
16 'x+1/2, y+1/2, z'
loop_
_atom_type_symbol
_atom_type_oxidation_number
Li1+ 1
N5+ 5
O2- -2
H1+ 1
loop_
_atom_site_label
_atom_site_type_symbol
_atom_site_symmetry_multiplicity
_atom_site_Wyckoff_symbol
_atom_site_fract_x
_atom_site_fract_y
_atom_site_fract_z
_atom_site_B_iso_or_equiv
_atom_site_occupancy
_atom_site_attached_hydrogens
Li1 Li1+ 4 a 0 0 0 . 1. 0
N1 N5+ 4 c 0 0.21763(5) 0.25 . 1. 0
O1 O2- 8 f 0 0.17030(7) 0.07014(16) . 1. 0
O2 O2- 4 c 0 0.31610(9) 0.25 . 1. 0
O3 O2- 8 g 0.29027(11) 0.47835(6) 0.25 . 1. 0
O4 O2- 4 c 0 0.63823(11) 0.25 . 1. 0
H1 H1+ 8 g 0.21690(27) 0.41444(12) 0.25 . 1. 0
H2 H1+ 8 g 0.30569(22) 0.03410(12) 0.25 . 1. 0
H3 H1+ 8 f 0 0.68252(17) 0.12270(36) . 1. 0
loop_
_atom_site_aniso_label
_atom_site_aniso_type_symbol
_atom_site_aniso_U_11
_atom_site_aniso_U_22
_atom_site_aniso_U_33
_atom_site_aniso_U_12
_atom_site_aniso_U_13
_atom_site_aniso_U_23
Li1 Li1+ 0.0359(14) 0.0397(16) 0.0242(14) 0 0 0.0016(13)
N1 N5+ 0.0327(4) 0.0189(3) 0.0360(4) 0 0 0
O1 O2- 0.0685(6) 0.0311(4) 0.0303(5) 0 0 0.0000(3)
O2 O2- 0.0435(7) 0.0195(5) 0.0754(10) 0 0 0
O3 O2- 0.0305(4) 0.0286(4) 0.0269(4) -.0037(3) 0 0
O4 O2- 0.0455(7) 0.0383(6) 0.0372(8) 0 0 0
H1 H1+ 0.0575(9) 0.0369(8) 0.0623(10) -.0126(7) 0 0
H2 H1+ 0.0416(7) 0.0418(7) 0.0483(7) -.0030(6) 0 0
H3 H1+ 0.0636(10) 0.0732(12) 0.0571(12) 0 0 0.0199(11)
#End of TTdata_23110-ICSD