
#(C) 2018 by FIZ Karlsruhe - Leibniz Institute for Information Infrastructure.  All rights reserved.
data_236884-ICSD
_database_code_ICSD 236884
_audit_creation_date 2014-08-01
_chemical_name_systematic 'Lithium iron borate'
_chemical_formula_structural 'Li Fe B O3'
_chemical_formula_sum 'B1 Fe1 Li1 O3'
_chemical_name_structure_type LiCoBO3
_exptl_crystal_density_diffrn 3.42
_publ_section_title

;
Preparation, structure and electrochemistry of LiFeBO3: a cathode material for
Li-ion batteries
;
loop_
_citation_id
_citation_journal_full
_citation_year
_citation_journal_volume
_citation_page_first
_citation_page_last
_citation_journal_id_ASTM
primary
'Journal of Materials Chemistry A: Materials for Energy and Sustainability' 2014 2 2060 2070 JMCAET
loop_
_publ_author_name
'Tao, L.'
'Rousse, G.'
'Chotard, J.N.'
'Dupont, L.'
'Bruyere, S.'
'Hanzel, D.'
'Mali, G.'
'Dominko, R.'
'Levasseur, S.'
'Masquelier, C.'
_cell_length_a 5.1701(1)
_cell_length_b 8.99219(2)
_cell_length_c 10.1656(2)
_cell_angle_alpha 90
_cell_angle_beta 91.443(1)
_cell_angle_gamma 90
_cell_volume 472.45
_cell_formula_units_Z 8
_symmetry_space_group_name_H-M 'C 1 2/c 1'
_symmetry_Int_Tables_number 15
_refine_ls_R_factor_all 0.0104
loop_
_symmetry_equiv_pos_site_id
_symmetry_equiv_pos_as_xyz
1 'x, -y, z+1/2'
2 '-x, -y, -z'
3 '-x, y, -z+1/2'
4 'x, y, z'
5 'x+1/2, -y+1/2, z+1/2'
6 '-x+1/2, -y+1/2, -z'
7 '-x+1/2, y+1/2, -z+1/2'
8 'x+1/2, y+1/2, z'
loop_
_atom_type_symbol
_atom_type_oxidation_number
Li1+ 1
Fe2+ 2
B3+ 3
O2- -2
loop_
_atom_site_label
_atom_site_type_symbol
_atom_site_symmetry_multiplicity
_atom_site_Wyckoff_symbol
_atom_site_fract_x
_atom_site_fract_y
_atom_site_fract_z
_atom_site_B_iso_or_equiv
_atom_site_occupancy
_atom_site_attached_hydrogens
Li1 Li1+ 8 f 0.698(4) 0.525(2) 0.164(2) 0.63(4) 0.39 0
Li2 Li1+ 8 f 0.632(3) 0.487(2) 0.1078(15) 1.73(7) 0.60(3) 0
Fe1 Fe2+ 8 f 0.1612(2) 0.3361(1) 0.1243(1) . 1. 0
B1 B3+ 8 f 0.152(1) 0.6733(8) 0.1233(5) 0.71(3) 1. 0
O1 O2- 8 f 0.4058(5) 0.1625(4) 0.0922(3) 0.78(9) 1. 0
O2 O2- 8 f 0.7777(5) 0.3030(3) 0.1568(3) 0.55(5) 1. 0
O3 O2- 8 f 0.3129(6) 0.5428(3) 0.1264(3) 0.78(9) 1. 0
loop_
_atom_site_aniso_label
_atom_site_aniso_type_symbol
_atom_site_aniso_U_11
_atom_site_aniso_U_22
_atom_site_aniso_U_33
_atom_site_aniso_U_12
_atom_site_aniso_U_13
_atom_site_aniso_U_23
Fe1 Fe2+ 0.0097(4) 0.0060(3) 0.0156(4) 0.0018(5) 0.0011(3) 0.0006(5)
#End of TTdata_236884-ICSD