
#(C) 2018 by FIZ Karlsruhe - Leibniz Institute for Information Infrastructure.  All rights reserved.
data_237526-ICSD
_database_code_ICSD 237526
_audit_creation_date 2015-02-01
_chemical_name_systematic 'Hexalithium copper tetraborate'
_chemical_formula_structural 'Li6 Cu B4 O10'
_chemical_formula_sum 'B4 Cu1 Li6 O10'
_chemical_name_structure_type Na2Cu3(GeO3)4
_exptl_crystal_density_diffrn 2.6
_cell_measurement_temperature 296.
_publ_section_title

;
New lithium copper borates with B O3 triangles: Li6 Cu B4 O10, Li3 Cu B3 O7,
Li8 Cu7 B14 O32, and Li2 Cu9 B12 O28
;
loop_
_citation_id
_citation_journal_full
_citation_year
_citation_journal_volume
_citation_page_first
_citation_page_last
_citation_journal_id_ASTM
primary 'Inorganic Chemistry' 2013 52 13974 13983 INOCAJ
loop_
_publ_author_name
'Kuratieva, N.V.'
'Banki, M.'
'Tsirlin, A.A.'
'Eckert, J.'
'Ehrenberg, H.'
'Mikhailova, D.'
_cell_length_a 3.2882(12)
_cell_length_b 6.645(3)
_cell_length_c 9.196(3)
_cell_angle_alpha 78.865(13)
_cell_angle_beta 89.757(14)
_cell_angle_gamma 86.556(13)
_cell_volume 196.79
_cell_formula_units_Z 1
_symmetry_space_group_name_H-M 'P -1'
_symmetry_Int_Tables_number 2
_refine_ls_R_factor_all 0.0471
loop_
_symmetry_equiv_pos_site_id
_symmetry_equiv_pos_as_xyz
1 '-x, -y, -z'
2 'x, y, z'
loop_
_atom_type_symbol
_atom_type_oxidation_number
Cu2+ 2
O2- -2
B3+ 3
Li1+ 1
loop_
_atom_site_label
_atom_site_type_symbol
_atom_site_symmetry_multiplicity
_atom_site_Wyckoff_symbol
_atom_site_fract_x
_atom_site_fract_y
_atom_site_fract_z
_atom_site_B_iso_or_equiv
_atom_site_occupancy
_atom_site_attached_hydrogens
Cu1 Cu2+ 1 a 0 0 0 0.0067(2) 1. 0
O1 O2- 2 i 0.6443(5) 0.2053(3) 0.06814(17) 0.0134(3) 1. 0
O2 O2- 2 i 0.9756(5) 0.7994(2) 0.18342(17) 0.0099(3) 1. 0
O3 O2- 2 i 0.6793(5) 0.0413(2) 0.32349(17) 0.0120(3) 1. 0
O4 O2- 2 i 0.5287(5) 0.3921(2) 0.26488(17) 0.0099(3) 1. 0
O5 O2- 2 i 0.9427(5) 0.7205(2) 0.44421(17) 0.0100(3) 1. 0
B1 B3+ 2 i 0.6138(8) 0.2197(4) 0.2100(3) 0.0091(5) 1. 0
B2 B3+ 2 i 0.8780(7) 0.8519(4) 0.3142(3) 0.0085(5) 1. 0
Li1 Li1+ 2 i 0.5714(12) 0.2087(7) 0.4700(4) 0.0150(8) 1. 0
Li2 Li1+ 2 i 0.0300(13) 0.4814(7) 0.3527(5) 0.0162(8) 1. 0
Li3 Li1+ 2 i 0.4852(13) 0.6517(6) 0.1236(5) 0.0158(8) 1. 0
#End of TTdata_237526-ICSD