
#(C) 2017 by FIZ Karlsruhe - Leibniz Institute for Information Infrastructure.  All rights reserved.
data_237658-ICSD
_database_code_ICSD 237658
_audit_creation_date 2015-02-01
_chemical_name_systematic 'Tris(difluoroxenon)lithium hexafluoroarsenate(V)'
_chemical_formula_structural '(Li (Xe F2)3) (As F6)'
_chemical_formula_sum 'As1 F12 Li1 Xe3'
_exptl_crystal_density_diffrn 3.72
_cell_measurement_temperature 200.
_publ_section_title

;
[Li (Xe F2)n] (A F6) (A = P, As, Ru, Ir), the first xenon(II) compounds of
lithium. Synthesis, Raman spectrum, and crystal structure of [Li (Xe F2)3] (As
F6)
;
loop_
_citation_id
_citation_journal_full
_citation_year
_citation_journal_volume
_citation_page_first
_citation_page_last
_citation_journal_id_ASTM
primary 'Inorganic Chemistry' 2013 52 4319 4323 INOCAJ
loop_
_publ_author_name
'Tavcar, Gasper'
'Zemva, Boris'
_cell_length_a 6.901(9)
_cell_length_b 13.19(2)
_cell_length_c 6.908(10)
_cell_angle_alpha 90.
_cell_angle_beta 91.836(17)
_cell_angle_gamma 90.
_cell_volume 628.47
_cell_formula_units_Z 2
_symmetry_space_group_name_H-M 'P 1 21 1'
_symmetry_Int_Tables_number 4
_refine_ls_R_factor_all 0.0459
loop_
_symmetry_equiv_pos_site_id
_symmetry_equiv_pos_as_xyz
1 '-x, y+1/2, -z'
2 'x, y, z'
loop_
_atom_type_symbol
_atom_type_oxidation_number
Xe2+ 2
As5+ 5
F1- -1
Li1+ 1
loop_
_atom_site_label
_atom_site_type_symbol
_atom_site_symmetry_multiplicity
_atom_site_Wyckoff_symbol
_atom_site_fract_x
_atom_site_fract_y
_atom_site_fract_z
_atom_site_B_iso_or_equiv
_atom_site_occupancy
_atom_site_attached_hydrogens
Xe1 Xe2+ 2 a 0.30884(10) 0.39757(8) 0.22643(9) 0.0286(3) 1 0
Xe2 Xe2+ 2 a 0.81165(9) 0.39690(8) 0.73059(10) 0.0283(3) 1 0
Xe3 Xe2+ 2 a 0.27697(17) 0.65733(14) 0.71268(17) 0.0542(4) 1 0
As1 As5+ 2 a 0.2047(2) 0.12830(17) 0.7897(2) 0.0397(5) 1 0
F1 F1- 2 a 0.4128(11) 0.3407(8) 0.4781(10) 0.044(2) 1 0
F2 F1- 2 a 0.5656(10) 0.3622(9) 0.8586(10) 0.045(2) 1 0
F3 F1- 2 a 0.4128(13) 0.5279(8) 0.6521(13) 0.052(3) 1 0
F4 F1- 2 a 0.2113(12) 0.4495(8) -0.0267(10) 0.043(2) 1 0
F5 F1- 2 a 1.0600(10) 0.4313(8) 0.6028(10) 0.042(2) 1 0
F6 F1- 2 a 0.150(2) 0.7859(12) 0.765(2) 0.109(5) 1 0
F7 F1- 2 a 0.2059(12) 0.2583(8) 0.8073(12) 0.043(2) 1 0
F8 F1- 2 a 0.184(2) 0.1359(10) 0.5468(16) 0.095(5) 1 0
F9 F1- 2 a 0.4432(17) 0.1326(9) 0.777(2) 0.100(5) 1 0
F10 F1- 2 a 0.215(3) 0.1222(11) 1.0341(16) 0.119(6) 1 0
F11 F1- 2 a -0.0369(14) 0.1309(9) 0.7856(19) 0.082(4) 1 0
F12 F1- 2 a 0.199(2) -0.0010(11) 0.780(2) 0.095(5) 1 0
Li1 Li1+ 2 a 0.311(3) 0.386(2) 0.729(3) 0.041(6) 1 0
loop_
_atom_site_aniso_label
_atom_site_aniso_type_symbol
_atom_site_aniso_U_11
_atom_site_aniso_U_22
_atom_site_aniso_U_33
_atom_site_aniso_U_12
_atom_site_aniso_U_13
_atom_site_aniso_U_23
Xe1 Xe2+ 0.0242(4) 0.0389(5) 0.0229(4) 0.0007(4) 0.0016(3) -0.0018(4)
Xe2 Xe2+ 0.0173(4) 0.0417(5) 0.0260(4) 0.0008(4) 0.0007(2) -0.0006(4)
Xe3 Xe2+ 0.0492(6) 0.0351(7) 0.0775(8) -0.0054(6) -0.0108(5) 0.0077(7)
As1 As5+ 0.0381(9) 0.0300(11) 0.0503(10) 0.0020(7) -0.0073(7) -0.0015(8)
F1 F1- 0.037(4) 0.064(6) 0.033(4) 0.012(4) 0.001(3) 0.003(4)
F2 F1- 0.017(3) 0.078(7) 0.040(4) 0.001(4) 0.006(3) 0.004(5)
F3 F1- 0.040(5) 0.050(6) 0.065(6) -0.001(5) 0.005(4) 0.013(5)
F4 F1- 0.038(4) 0.060(6) 0.031(4) 0.007(4) 0.002(3) -0.001(4)
F5 F1- 0.023(4) 0.061(6) 0.041(4) 0.005(4) 0.002(3) 0.017(4)
F6 F1- 0.093(10) 0.053(9) 0.179(14) 0.015(9) -0.017(10) -0.008(9)
F7 F1- 0.038(5) 0.029(5) 0.064(6) -0.003(4) 0.011(4) 0.003(4)
F8 F1- 0.144(12) 0.076(12) 0.064(7) -0.025(9) 0.012(7) -0.010(6)
F9 F1- 0.053(7) 0.045(8) 0.201(15) 0.008(6) -0.004(8) -0.030(8)
F10 F1- 0.223(18) 0.079(10) 0.052(7) -0.022(12) -0.037(8) 0.035(7)
F11 F1- 0.033(5) 0.061(9) 0.153(11) -0.009(5) 0.000(6) 0.000(7)
F12 F1- 0.116(13) 0.029(7) 0.139(13) -0.011(7) -0.023(10) -0.006(7)
Li1 Li1+ 0.032(12) 0.036(16) 0.056(15) -0.004(11) -0.010(10) -0.011(11)
#End of TTdata_237658-ICSD