
#(C) 2018 by FIZ Karlsruhe - Leibniz Institute for Information Infrastructure.  All rights reserved.
data_238154-ICSD
_database_code_ICSD 238154
_audit_creation_date 2015-08-01
_chemical_name_systematic 'Lithium iron borate *'
_chemical_formula_structural '(Fe0.11 Li0.89) Fe0.76 B O3'
_chemical_formula_sum 'B1 Fe0.87 Li0.89 O3'
_exptl_crystal_density_diffrn 3.31
_publ_section_title

;
Structures of delithiated and degraded Li Fe B O3, and their distinct changes
upon electrochemical cycling
;
loop_
_citation_id
_citation_journal_full
_citation_year
_citation_journal_volume
_citation_page_first
_citation_page_last
_citation_journal_id_ASTM
primary 'Inorganic Chemistry' 2014 53 6585 6595 INOCAJ
loop_
_publ_author_name
'Bo, Shou-Hang'
'Nam, Kyung-Wan'
'Borkiewicz, Olaf J.'
'Hu, Yan-Yan'
'Yang, Xiao-Qing'
'Chupas, Peter J.'
'Chapman, Karena W.'
'Wu, Lijun'
'Zhang, Lihua'
'Wang, Feng'
'Grey, Clare P.'
'Khalifah, Peter G.'
_cell_length_a 5.1390(15)
_cell_length_b 8.7650(22)
_cell_length_c 10.1240(23)
_cell_angle_alpha 90
_cell_angle_beta 90.341(26)
_cell_angle_gamma 90
_cell_volume 456.01
_cell_formula_units_Z 8
_symmetry_space_group_name_H-M 'C 1 2/c 1'
_symmetry_Int_Tables_number 15
_refine_ls_R_factor_all 0.0319
loop_
_symmetry_equiv_pos_site_id
_symmetry_equiv_pos_as_xyz
1 'x, -y, z+1/2'
2 '-x, -y, -z'
3 '-x, y, -z+1/2'
4 'x, y, z'
5 'x+1/2, -y+1/2, z+1/2'
6 '-x+1/2, -y+1/2, -z'
7 '-x+1/2, y+1/2, -z+1/2'
8 'x+1/2, y+1/2, z'
loop_
_atom_type_symbol
_atom_type_oxidation_number
Li1+ 1
Fe2+ 2.425
B3+ 3
O2- -2
loop_
_atom_site_label
_atom_site_type_symbol
_atom_site_symmetry_multiplicity
_atom_site_Wyckoff_symbol
_atom_site_fract_x
_atom_site_fract_y
_atom_site_fract_z
_atom_site_B_iso_or_equiv
_atom_site_occupancy
_atom_site_attached_hydrogens
Li1 Li1+ 8 f 0.172(22) -0.003(14) 0.134(14) 2.65 0.89 0
Fe1 Fe2+ 8 f 0.172(22) -0.003(14) 0.134(14) 2.65 0.11 0
Fe2 Fe2+ 8 f 0.3588(20) 0.1657(16) 0.3698(16) 1.1619 0.76 0
B1 B3+ 8 f 0.16839(28) 0.32536(14) 0.12062(28) 0.5348 1. 0
O1 O2- 8 f 0.08376(30) 0.32852(91) 0.42332(69) 0.769 1. 0
O2 O2- 8 f 0.26141(59) 0.18911(19) 0.16620(31) 0.769 1. 0
O3 O2- 8 f 0.28441(52) 0.46489(18) 0.13167(65) . 1. 0
loop_
_atom_site_aniso_label
_atom_site_aniso_type_symbol
_atom_site_aniso_U_11
_atom_site_aniso_U_22
_atom_site_aniso_U_33
_atom_site_aniso_U_12
_atom_site_aniso_U_13
_atom_site_aniso_U_23
O3 O2- 0.0094 0.00698 0.0185 -0.0006 -0.00246 0.00183
#End of TTdata_238154-ICSD