
#(C) 2018 by FIZ Karlsruhe - Leibniz Institute for Information Infrastructure.  All rights reserved.
data_238484-ICSD
_database_code_ICSD 238484
_audit_creation_date 2016-02-01
_chemical_name_systematic 'Lithium amidoborane hydrazinate'
_chemical_formula_structural 'Li N H2 B H3 (N H2 N H2)'
_chemical_formula_sum 'H9 B1 Li1 N3'
_exptl_crystal_density_diffrn 1.01
_cell_measurement_temperature 298.
_publ_section_title

;
Lithium amidoborane hydrazinates: synthesis, structure and hydrogen storage
properties
;
loop_
_citation_id
_citation_journal_full
_citation_year
_citation_journal_volume
_citation_page_first
_citation_page_last
_citation_journal_id_ASTM
primary
'Journal of Materials Chemistry A: Materials for Energy and Sustainability' 2015 3 10100 10106 JMCAET
loop_
_publ_author_name
'He, Teng'
'Wu, Hui'
'Wu, Guotao'
'Li, Zhao'
'Zhou, Wei'
'Ju, Xiaohua'
'Xie, Dong'
'Chen, Ping'
_cell_length_a 10.0458(12)
_cell_length_b 6.2974(5)
_cell_length_c 7.4753(6)
_cell_angle_alpha 90.
_cell_angle_beta 107.5501(30)
_cell_angle_gamma 90.
_cell_volume 450.89
_cell_formula_units_Z 4
_symmetry_space_group_name_H-M 'P 1 21/n 1'
_symmetry_Int_Tables_number 14
_refine_ls_R_factor_all 0.0172
loop_
_symmetry_equiv_pos_site_id
_symmetry_equiv_pos_as_xyz
1 '-x+1/2, y+1/2, -z+1/2'
2 '-x, -y, -z'
3 'x+1/2, -y+1/2, z+1/2'
4 'x, y, z'
loop_
_atom_type_symbol
_atom_type_oxidation_number
Li1+ 1
B3+ 3
N3- -3
H1- -1
H1+ 1
N3- -3
H1+ 1
loop_
_atom_site_label
_atom_site_type_symbol
_atom_site_symmetry_multiplicity
_atom_site_Wyckoff_symbol
_atom_site_fract_x
_atom_site_fract_y
_atom_site_fract_z
_atom_site_B_iso_or_equiv
_atom_site_occupancy
_atom_site_attached_hydrogens
Li1 Li1+ 4 e 0.6402(7) 0.6434(10) 0.9157(6) 0.015 1. 0
B1 B3+ 4 e 0.3783(4) 0.7114(7) 0.5799(7) 0.02007 1. 0
N1 N3- 4 e 0.5334(5) 0.7785(5) 0.6579(5) 0.02007 1. 0
H1 H1- 4 e 0.3127(6) 0.7573(18) 0.6911(9) 0.03087 1. 0
H2 H1- 4 e 0.3675(7) 0.5177(7) 0.5514(13) 0.03087 1. 0
H3 H1+ 4 e 0.3150(5) 0.7982(10) 0.4269(7) 0.03087 1. 0
H4 H1+ 4 e 0.5450(7) 0.9405(6) 0.6573(11) 0.03087 1. 0
H5 H1+ 4 e 0.5889(5) 0.7228(15) 0.5727(6) 0.03087 1. 0
N2 N3- 4 e 0.6143(4) 0.3064(9) 0.9285(4) 0.02007 1. 0
N3 N3- 4 e 0.4662(4) 0.2607(8) 0.8910(4) 0.02007 1. 0
H6 H1+ 4 e 0.6588(5) 0.2492(12) 0.8301(5) 0.03087 1. 0
H7 H1+ 4 e 0.6599(5) 0.2438(6) 0.0589(10) 0.03087 1. 0
H8 H1+ 4 e 0.4395(9) 0.1196(10) 0.8227(9) 0.03087 1. 0
H9 H1+ 4 e 0.4147(5) 0.3785(12) 0.7985(8) 0.03087 1. 0
#End of TTdata_238484-ICSD