
#(C) 2018 by FIZ Karlsruhe - Leibniz Institute for Information Infrastructure.  All rights reserved.
data_238520-ICSD
_database_code_ICSD 238520
_audit_creation_date 2016-02-01
_chemical_name_systematic 'Dilithium iron(II) orthosilicate'
_chemical_formula_structural 'Li2 Fe Si O4'
_chemical_formula_sum 'Fe1 Li2 O4 Si1'
_chemical_name_structure_type Li2(Fe,Mn)SiO4
_exptl_crystal_density_diffrn 3.19
_publ_section_title

;
Crystal structural changes and charge compensation mechanism during two
lithium extraction/insertion between Li2 Fe Si O4 and Fe Si O4
;
loop_
_citation_id
_citation_journal_full
_citation_year
_citation_journal_volume
_citation_page_first
_citation_page_last
_citation_journal_id_ASTM
primary 'Journal of Physical Chemistry C' 2015 119 10206 10211 JPCCCK
loop_
_publ_author_name
'Masese, Titus'
'Tassel, Cedric'
'Orikasa, Yuki'
'Koyama, Yukinori'
'Arai, Hajime'
'Hayashi, Naoaki'
'Kim, Jungeun'
'Mori, Takuya'
'Yamamoto, Kentaro'
'Kobayashi, Yoji'
'Kageyama, Hiroshi'
'Ogumi, Zempachi'
'Uchimoto, Yoshiharu'
_cell_length_a 8.2433(4)
_cell_length_b 5.0226(1)
_cell_length_c 8.2373(3)
_cell_angle_alpha 90.
_cell_angle_beta 99.09
_cell_angle_gamma 90.
_cell_volume 336.76
_cell_formula_units_Z 4
_symmetry_space_group_name_H-M 'P 1 21/n 1'
_symmetry_Int_Tables_number 14
_refine_ls_R_factor_all 0.0257
loop_
_symmetry_equiv_pos_site_id
_symmetry_equiv_pos_as_xyz
1 '-x+1/2, y+1/2, -z+1/2'
2 '-x, -y, -z'
3 'x+1/2, -y+1/2, z+1/2'
4 'x, y, z'
loop_
_atom_type_symbol
_atom_type_oxidation_number
Li1+ 1
Fe2+ 2
Si4+ 4
O2- -2
loop_
_atom_site_label
_atom_site_type_symbol
_atom_site_symmetry_multiplicity
_atom_site_Wyckoff_symbol
_atom_site_fract_x
_atom_site_fract_y
_atom_site_fract_z
_atom_site_B_iso_or_equiv
_atom_site_occupancy
_atom_site_attached_hydrogens
Li1 Li1+ 4 e 0.663 0.785 0.669 0.0093 1. 0
Li2 Li1+ 4 e 0.585 0.193 0.084 0.0095 1. 0
Fe1 Fe2+ 4 e 0.2930(6) 0.7969(5) 0.5400(9) 0.0122 0.9752(18) 0
Si1 Si4+ 4 e 0.0436(12) 0.8102(10) 0.7905(7) 0.0062 1. 0
O1 O2- 4 e 0.8548(21) 0.6905(9) 0.8256(19) 0.0065 1. 0
O2 O2- 4 e 0.4261(14) 0.2132(13) 0.8852(12) 0.0065 1. 0
O3 O2- 4 e 0.6958(19) 0.7685(26) 0.4343(31) 0.0065 1. 0
O4 O2- 4 e 0.9584(16) 0.8568(8) 0.2172(17) 0.0065 1. 0
#End of TTdata_238520-ICSD