
#(C) 2018 by FIZ Karlsruhe - Leibniz Institute for Information Infrastructure.  All rights reserved.
data_239383-ICSD
_database_code_ICSD 239383
_audit_creation_date 2016-08-01
_chemical_name_systematic 'Lithium tantalate(V)'
_chemical_formula_structural 'Li Ta O3'
_chemical_formula_sum 'Li1 O3 Ta1'
_exptl_crystal_density_diffrn 10.66
_cell_measurement_pressure 42300000.
_publ_section_title

;
Pressure-induced ferroelectric to paraelectric transition in Li Ta O3 and (Li,
Mg) Ta O3
;
loop_
_citation_id
_citation_journal_full
_citation_year
_citation_journal_volume
_citation_page_first
_citation_page_last
_citation_journal_id_ASTM
primary 'Journal of Applied Physics (Melville, NY, United States)' 2016 119
075902-1 075902-12 JAPIAU
loop_
_publ_author_name
'Yamanaka, Takamitsu'
'Nakamoto, Yuki'
'Takei, Fumihiko'
'Ahart, Muhtar'
'Mao, Ho-Kwang'
'Hemley, Russell J.'
_cell_length_a 5.0535(9)
_cell_length_b 6.5277(9)
_cell_length_c 4.4576(9)
_cell_angle_alpha 90.
_cell_angle_beta 90.
_cell_angle_gamma 90.
_cell_volume 147.05
_cell_formula_units_Z 4
_symmetry_space_group_name_H-M 'P n m a'
_symmetry_Int_Tables_number 62
_refine_ls_R_factor_all 0.0199
loop_
_symmetry_equiv_pos_site_id
_symmetry_equiv_pos_as_xyz
1 'x+1/2, y, -z+1/2'
2 'x, -y+1/2, z'
3 '-x+1/2, y+1/2, z+1/2'
4 '-x, -y, -z'
5 '-x+1/2, -y, z+1/2'
6 '-x, y+1/2, -z'
7 'x+1/2, -y+1/2, -z+1/2'
8 'x, y, z'
loop_
_atom_type_symbol
_atom_type_oxidation_number
Li1+ 1
Ta5+ 5
O2- -2
loop_
_atom_site_label
_atom_site_type_symbol
_atom_site_symmetry_multiplicity
_atom_site_Wyckoff_symbol
_atom_site_fract_x
_atom_site_fract_y
_atom_site_fract_z
_atom_site_B_iso_or_equiv
_atom_site_occupancy
_atom_site_attached_hydrogens
Li1 Li1+ 4 b 0 0 0.5 0.96(3) 1. 0
Ta1 Ta5+ 4 c 0.115(9) 0.25 0.997(7) 0.77(5) 1. 0
O1 O2- 4 c 0.469(5) 0.25 0.097(5) 1.41(6) 1. 0
O2 O2- 8 d 0.336(7) 0.008(7) 0.667(5) 3.05(7) 1. 0
#End of TTdata_239383-ICSD