
#(C) 2018 by FIZ Karlsruhe - Leibniz Institute for Information Infrastructure.  All rights reserved.
data_239798-ICSD
_database_code_ICSD 239798
_audit_creation_date 2016-08-01
_chemical_name_systematic 'Lithium pentasodium nonamolybdate(VI)'
_chemical_formula_structural 'Li Na5 Mo9 O30'
_chemical_formula_sum 'Li1 Mo9 Na5 O30'
_exptl_crystal_density_diffrn 4.04
_publ_section_title
'Li Na5 Mo9 O30: crystal growth, linear, and nonlinear optical properties'
loop_
_citation_id
_citation_journal_full
_citation_year
_citation_journal_volume
_citation_page_first
_citation_page_last
_citation_journal_id_ASTM
primary 'Chemistry of Materials' 2016 28 4483 4491 CMATEX
loop_
_publ_author_name
'Zhang, Weiguo'
'Yu, Hongwei'
'Cantwell, Jacqueline'
'Wu, Hongping'
'Poeppelmeier, Kenneth R.'
'Halasyamani, P. Shiv'
_cell_length_a 7.2265(2)
_cell_length_b 37.1575(11)
_cell_length_c 17.9398(5)
_cell_angle_alpha 90.
_cell_angle_beta 90.
_cell_angle_gamma 90.
_cell_volume 4817.17
_cell_formula_units_Z 8
_symmetry_space_group_name_H-M 'F d d 2'
_symmetry_Int_Tables_number 43
_refine_ls_R_factor_all 0.015
loop_
_symmetry_equiv_pos_site_id
_symmetry_equiv_pos_as_xyz
1 'x+1/4, -y+1/4, z+1/4'
2 '-x+1/4, y+1/4, z+1/4'
3 '-x, -y, z'
4 'x, y, z'
5 'x+1/4, -y+3/4, z+3/4'
6 '-x+1/4, y+3/4, z+3/4'
7 '-x, -y+1/2, z+1/2'
8 'x, y+1/2, z+1/2'
9 'x+3/4, -y+1/4, z+3/4'
10 '-x+3/4, y+1/4, z+3/4'
11 '-x+1/2, -y, z+1/2'
12 'x+1/2, y, z+1/2'
13 'x+3/4, -y+3/4, z+1/4'
14 '-x+3/4, y+3/4, z+1/4'
15 '-x+1/2, -y+1/2, z'
16 'x+1/2, y+1/2, z'
loop_
_atom_type_symbol
_atom_type_oxidation_number
Mo6+ 6
Na1+ 1
Li1+ 1
O2- -2
loop_
_atom_site_label
_atom_site_type_symbol
_atom_site_symmetry_multiplicity
_atom_site_Wyckoff_symbol
_atom_site_fract_x
_atom_site_fract_y
_atom_site_fract_z
_atom_site_B_iso_or_equiv
_atom_site_occupancy
_atom_site_attached_hydrogens
Mo1 Mo6+ 16 b 0.95302(3) 0.296012(6) 0.105992(13) 0.00781(6) 1. 0
Mo2 Mo6+ 16 b 1.03700(4) 0.400423(6) 0.293877(12) 0.00714(6) 1. 0
Mo3 Mo6+ 16 b 0.69315(4) 0.350595(5) 0.356119(13) 0.00704(6) 1. 0
Mo4 Mo6+ 16 b 1.03543(3) 0.298168(6) 0.284081(12) 0.00727(6) 1. 0
Mo5 Mo6+ 8 a 0.75 0.25 0.37901(2) 0.00720(7) 1. 0
Na1 Na1+ 16 b 0.4844(2) 0.40190(3) 0.19905(10) 0.0186(2) 1. 0
Na2 Na1+ 16 b 0.5062(2) 0.29676(3) 0.19705(9) 0.0184(2) 1. 0
Na3 Na1+ 8 a 1.25 0.25 0.45102(13) 0.0213(4) 1. 0
Li1 Li1+ 8 a 1.25 0.25 0.0451(5) 0.0190(16) 1. 0
O1 O2- 16 b 0.9544(3) 0.25221(6) 0.28826(17) 0.0109(5) 1. 0
O2 O2- 16 b 1.1986(4) 0.39851(6) 0.3626(2) 0.0162(6) 1. 0
O3 O2- 16 b 0.5356(4) 0.35039(6) 0.2857(3) 0.0160(5) 1. 0
O4 O2- 16 b 1.0291(3) 0.35175(5) 0.10366(18) 0.0106(5) 1. 0
O5 O2- 16 b 0.7941(4) 0.30045(6) 0.0350(2) 0.0161(5) 1. 0
O6 O2- 16 b 1.2031(3) 0.30301(5) 0.04949(14) 0.0103(5) 1. 0
O7 O2- 16 b 1.0065(3) 0.25050(7) 0.10788(16) 0.0149(5) 1. 0
O8 O2- 16 b 1.1812(4) 0.30036(6) 0.20707(14) 0.0120(6) 1. 0
O9 O2- 16 b 1.1639(4) 0.40006(6) 0.21092(16) 0.0121(5) 1. 0
O10 O2- 16 b 1.1814(4) 0.30038(6) 0.35943(19) 0.0155(5) 1. 0
O11 O2- 16 b 0.7753(3) 0.30069(5) 0.35184(16) 0.0100(5) 1. 0
O12 O2- 16 b 0.9503(3) 0.35013(5) 0.29552(17) 0.0094(5) 1. 0
O13 O2- 16 b 0.8076(4) 0.40013(6) 0.18604(15) 0.0139(6) 1. 0
O14 O2- 16 b 0.8262(4) 0.30373(6) 0.18975(12) 0.0104(5) 1. 0
O15 O2- 16 b 0.9303(3) 0.24624(7) 0.43980(15) 0.0155(5) 1. 0
loop_
_atom_site_aniso_label
_atom_site_aniso_type_symbol
_atom_site_aniso_U_11
_atom_site_aniso_U_22
_atom_site_aniso_U_33
_atom_site_aniso_U_12
_atom_site_aniso_U_13
_atom_site_aniso_U_23
Mo1 Mo6+ 0.00852(10) 0.00718(11) 0.00772(11) -0.00089(8) 0.00107(8) 0.00007(9)
Mo2 Mo6+ 0.00755(10) 0.00612(12) 0.00776(13) -0.00031(7) 0.00104(9) 0.00006(8)
Mo3 Mo6+ 0.00756(10) 0.00526(12) 0.00830(12) -0.00008(7) 0.00125(9) 0.00026(9)
Mo4 Mo6+ 0.00762(10) 0.00669(11) 0.00749(12) 0.00018(8) 0.00098(9) 0.00025(9)
Mo5 Mo6+ 0.00957(14) 0.00569(14) 0.00633(15) -0.00162(12) 0. 0.
Na1 Na1+ 0.0127(6) 0.0201(6) 0.0230(6) -0.0003(5) -0.0008(5) -0.0003(5)
Na2 Na1+ 0.0122(5) 0.0181(6) 0.0248(6) -0.0001(5) -0.0002(4) -0.0025(6)
Na3 Na1+ 0.0151(8) 0.0204(9) 0.0283(9) -0.0017(8) 0. 0.
Li1 Li1+ 0.030(4) 0.011(3) 0.016(4) 0.003(3) 0. 0.
O1 O2- 0.0139(11) 0.0093(10) 0.0096(12) -0.0021(8) 0.0015(9) -0.0004(9)
O2 O2- 0.0166(12) 0.0178(12) 0.0142(17) 0.0007(8) -0.0034(9) 0.0009(10)
O3 O2- 0.0151(11) 0.0176(12) 0.0154(14) 0.0000(9) -0.0015(11) -0.0014(9)
O4 O2- 0.0117(11) 0.0054(10) 0.0146(11) -0.0005(7) 0.0040(9) 0.0001(9)
O5 O2- 0.0149(11) 0.0182(12) 0.0154(14) -0.0003(8) -0.0015(11) 0.0022(11)
O6 O2- 0.0088(9) 0.008(1) 0.0140(13) 0.0013(7) 0.0033(9) -0.0001(9)
O7 O2- 0.0188(9) 0.0098(11) 0.0160(12) -0.0004(7) 0.0073(12) 0.0008(9)
O8 O2- 0.0115(13) 0.0137(12) 0.0108(12) -0.0010(8) 0.0024(9) 0.0008(9)
O9 O2- 0.0113(11) 0.0122(12) 0.0127(12) 0.0006(8) 0.0024(10) 0.0000(7)
O10 O2- 0.0147(11) 0.0165(12) 0.0153(12) 0.0010(8) -0.0037(10) -0.0009(11)
O11 O2- 0.0117(10) 0.0056(11) 0.0128(12) 0.0007(7) 0.0024(9) 0.0018(9)
O12 O2- 0.0097(11) 0.0068(11) 0.0117(12) -0.0004(7) 0.0033(9) 0.0006(8)
O13 O2- 0.0098(12) 0.0162(13) 0.0159(15) 0.0003(8) 0.0044(9) -0.0007(9)
O14 O2- 0.0060(12) 0.014(1) 0.0113(12) -0.0010(8) 0.0014(8) 0.0006(9)
O15 O2- 0.0157(11) 0.0175(12) 0.0134(13) -0.0027(9) -0.0027(10) 0.0034(8)
#End of TTdata_239798-ICSD