
#(C) 2018 by FIZ Karlsruhe - Leibniz Institute for Information Infrastructure.  All rights reserved.
data_239977-ICSD
_database_code_ICSD 239977
_audit_creation_date 2017-08-01
_chemical_name_systematic 'Lithium strontium lead borate (1/0.68/0.32/1)'
_chemical_formula_structural 'Li (Sr0.68 Pb0.32) B O3'
_chemical_formula_sum 'B1 Li1 O3 Pb0.32 Sr0.68'
_chemical_name_structure_type LiSrBO3
_exptl_crystal_density_diffrn 4.51
_publ_section_title

;
Manipulation of birefringence via substitution of Sr2+ by Pb2+ based on the
structure model of Li Sr1-x Pbx B O3 (0 <= x <= 0.5)
;
loop_
_citation_id
_citation_journal_full
_citation_year
_citation_journal_volume
_citation_page_first
_citation_page_last
_citation_journal_id_ASTM
primary 'New Journal of Chemistry' 2016 40 6120 6126 NJCHE5
loop_
_publ_author_name
'Mutailipu, Miriding'
'Hou, Dianwei'
'Zhang, Min'
'Yang, Zhihua'
'Pan, Shilie'
_cell_length_a 6.3199(15)
_cell_length_b 6.8844(17)
_cell_length_c 6.9347(17)
_cell_angle_alpha 90
_cell_angle_beta 110.661(3)
_cell_angle_gamma 90
_cell_volume 282.31
_cell_formula_units_Z 4
_symmetry_space_group_name_H-M 'P 1 21/n 1'
_symmetry_Int_Tables_number 14
_refine_ls_R_factor_all 0.0373
loop_
_symmetry_equiv_pos_site_id
_symmetry_equiv_pos_as_xyz
1 '-x+1/2, y+1/2, -z+1/2'
2 '-x, -y, -z'
3 'x+1/2, -y+1/2, z+1/2'
4 'x, y, z'
loop_
_atom_type_symbol
_atom_type_oxidation_number
Sr2+ 2
Pb2+ 2
Li1+ 1
B3+ 3
O2- -2
loop_
_atom_site_label
_atom_site_type_symbol
_atom_site_symmetry_multiplicity
_atom_site_Wyckoff_symbol
_atom_site_fract_x
_atom_site_fract_y
_atom_site_fract_z
_atom_site_B_iso_or_equiv
_atom_site_occupancy
_atom_site_attached_hydrogens
Sr1 Sr2+ 4 e 0.2018(9) 0.8642(7) 0.3619(9) 0.0144(3) 0.68 0
Pb1 Pb2+ 4 e 0.2018(9) 0.8642(7) 0.3619(9) 0.0144(3) 0.32 0
Li1 Li1+ 4 e 0.398(3) 0.072(2) -0.191(3) 0.027(4) 1. 0
B1 B3+ 4 e 0.194(2) 0.8415(13) -0.073(2) 0.022(3) 1. 0
O1 O2- 4 e 0.1056(12) 0.6831(9) -0.0091(11) 0.0223(19) 1. 0
O2 O2- 4 e 0.2881(11) 0.9924(9) 0.0600(11) 0.0232(19) 1. 0
O3 O2- 4 e 0.189(2) 0.8493(11) -0.2672(15) 0.069(4) 1. 0
#End of TTdata_239977-ICSD