
#(C) 2018 by FIZ Karlsruhe - Leibniz Institute for Information Infrastructure.  All rights reserved.
data_240250-ICSD
_database_code_ICSD 240250
_audit_creation_date 2005-10-01
_audit_update_record 2009-02-01
_chemical_name_systematic 'Copper(I) dilithium phosphide'
_chemical_formula_structural 'Cu Li2 P'
_chemical_formula_sum 'Cu1 Li2 P1'
_chemical_name_structure_type Na3As
_exptl_crystal_density_diffrn 3.29
_publ_section_title

;
Crystal structure and electrochemical behavior of Li2 Cu P: a surprising
reversible crystalline-amorphous transformation
;
loop_
_citation_id
_citation_journal_full
_citation_year
_citation_journal_volume
_citation_page_first
_citation_page_last
_citation_journal_id_ASTM
primary 'Chemistry of Materials' 2003 15 4890 4892 CMATEX
loop_
_publ_author_name
'Crosnier, O.'
'Mounsey, C.'
'Subramanya Herle, P.'
'Taylor, N.'
'Nazar, L.F.'
_cell_length_a 4.0481(3)
_cell_length_b 4.0481(3)
_cell_length_c 7.7086(13)
_cell_angle_alpha 90.
_cell_angle_beta 90.
_cell_angle_gamma 120.
_cell_volume 109.4
_cell_formula_units_Z 2
_symmetry_space_group_name_H-M 'P 63/m m c'
_symmetry_Int_Tables_number 194
_refine_ls_R_factor_all 0.0232
loop_
_symmetry_equiv_pos_site_id
_symmetry_equiv_pos_as_xyz
1 'x, x-y, -z+1/2'
2 '-x+y, y, -z+1/2'
3 '-y, -x, -z+1/2'
4 '-x+y, -x, -z+1/2'
5 '-y, x-y, -z+1/2'
6 'x, y, -z+1/2'
7 '-x, -x+y, z+1/2'
8 'x-y, -y, z+1/2'
9 'y, x, z+1/2'
10 'x-y, x, z+1/2'
11 'y, -x+y, z+1/2'
12 '-x, -y, z+1/2'
13 '-x, -x+y, -z'
14 'x-y, -y, -z'
15 'y, x, -z'
16 'x-y, x, -z'
17 'y, -x+y, -z'
18 '-x, -y, -z'
19 'x, x-y, z'
20 '-x+y, y, z'
21 '-y, -x, z'
22 '-x+y, -x, z'
23 '-y, x-y, z'
24 'x, y, z'
loop_
_atom_type_symbol
_atom_type_oxidation_number
Cu1+ 1
P3- -3
Li1+ 1
loop_
_atom_site_label
_atom_site_type_symbol
_atom_site_symmetry_multiplicity
_atom_site_Wyckoff_symbol
_atom_site_fract_x
_atom_site_fract_y
_atom_site_fract_z
_atom_site_B_iso_or_equiv
_atom_site_occupancy
_atom_site_attached_hydrogens
Cu1 Cu1+ 2 b 1. 0. 0.25 0.00844(18) 1 0
P1 P3- 2 d 0.6667 0.3333 0.25 0.0060(2) 1 0
Li1 Li1+ 4 f 0.6667 0.3333 0.5846(6) 0.0142(9) 1 0
loop_
_atom_site_aniso_label
_atom_site_aniso_type_symbol
_atom_site_aniso_U_11
_atom_site_aniso_U_22
_atom_site_aniso_U_33
_atom_site_aniso_U_12
_atom_site_aniso_U_13
_atom_site_aniso_U_23
Cu1 Cu1+ 0.0060(2) 0.0060(2) 0.0133(2) 0.00300(10) 0. 0.
P1 P3- 0.0053(3) 0.0053(3) 0.0076(3) 0.00263(13) 0. 0.
Li1 Li1+ 0.0145(14) 0.0145(14) 0.014(2) 0.0073(7) 0. 0.
#End of TTdata_240250-ICSD