
#(C) 2018 by FIZ Karlsruhe - Leibniz Institute for Information Infrastructure.  All rights reserved.
data_240626-ICSD
_database_code_ICSD 240626
_audit_creation_date 2007-08-01
_audit_update_record 2011-02-01
_chemical_name_systematic 'Chromium lithium strontium tetratitanium undecaoxide'
_chemical_formula_structural '(Cr0.33 Ti0.67)3  Li Sr Ti2 O11'
_chemical_formula_sum 'Cr0.99 Li1 O11 Sr1 Ti4.01'
_chemical_name_structure_type (CrTi)LiSrTi3O11
_exptl_crystal_density_diffrn 4.34
_publ_section_title
'Structural filiations in the new complex titanates SrLiMTi4O11 (M = Cr, Fe)'
loop_
_citation_id
_citation_journal_full
_citation_year
_citation_journal_volume
_citation_page_first
_citation_page_last
_citation_journal_id_ASTM
primary 'Acta Crystallographica, Section B: Structural Science' 2007 63 26 36
ASBSDK
loop_
_publ_author_name
'Imaz, I.'
'Pechev, S.'
'Koseva, I.'
'Bouree, F.'
'Gravereau, P.'
'Peshev, P.'
'Chaminade, J.P.'
_cell_length_a 13.8180(10)
_cell_length_b 5.7550(10)
_cell_length_c 9.9010(10)
_cell_angle_alpha 90
_cell_angle_beta 90
_cell_angle_gamma 90
_cell_volume 787.35
_cell_formula_units_Z 4
_symmetry_space_group_name_H-M 'P n m a'
_symmetry_Int_Tables_number 62
_refine_ls_R_factor_all 0.023
loop_
_symmetry_equiv_pos_site_id
_symmetry_equiv_pos_as_xyz
1 'x+1/2, y, -z+1/2'
2 'x, -y+1/2, z'
3 '-x+1/2, y+1/2, z+1/2'
4 '-x, -y, -z'
5 '-x+1/2, -y, z+1/2'
6 '-x, y+1/2, -z'
7 'x+1/2, -y+1/2, -z+1/2'
8 'x, y, z'
loop_
_atom_type_symbol
_atom_type_oxidation_number
Sr2+ 2
Ti4+ 4
Cr3+ 3
Ti4+ 4
Cr3+ 3
Ti4+ 4
Cr3+ 3
Ti4+ 4
Li1+ 1
O2- -2
loop_
_atom_site_label
_atom_site_type_symbol
_atom_site_symmetry_multiplicity
_atom_site_Wyckoff_symbol
_atom_site_fract_x
_atom_site_fract_y
_atom_site_fract_z
_atom_site_B_iso_or_equiv
_atom_site_occupancy
_atom_site_attached_hydrogens
Sr1 Sr2+ 4 c 0.09471(3) 0.25 0.10275(5) 0.01091(12) 1 0
Ti1 Ti4+ 4 c 0.00055(6) 0.25 0.77075(8) 0.00826(16) 0.67 0
Cr1 Cr3+ 4 c 0.00055(6) 0.25 0.77075(8) 0.00826(16) 0.33 0
Ti2 Ti4+ 4 c 0.33115(6) 0.25 0.89032(8) 0.00912(16) 0.67 0
Cr2 Cr3+ 4 c 0.33115(6) 0.25 0.89032(8) 0.00912(16) 0.33 0
Ti3 Ti4+ 4 c 0.33494(6) 0.25 0.42830(8) 0.00835(16) 0.67 0
Cr3 Cr3+ 4 c 0.33494(6) 0.25 0.42830(8) 0.00835(16) 0.33 0
Ti4 Ti4+ 8 d 0.17185(4) 0.00092(10) 0.66165(6) 0.00814(13) 1 0
Li1 Li1+ 4 c 0.0405(7) 0.25 0.4219(9) 0.0126(16) 1 0
O1 O2- 4 c 0.0863(2) 0.25 0.6048(3) 0.0051(5) 1 0
O2 O2- 4 c 0.2455(2) 0.25 0.7430(3) 0.0059(5) 1 0
O3 O2- 4 c 0.2609(2) 0.25 0.2539(3) 0.0053(5) 1 0
O4 O2- 4 c 0.3979(2) 0.25 0.0686(3) 0.0057(5) 1 0
O5 O2- 4 c 0.4337(2) 0.25 0.5611(3) 0.0096(6) 1 0
O6 O2- 8 d 0.24427(16) 0.0019(4) 0.9997(2) 0.0065(4) 1 0
O7 O2- 8 d 0.41442(15) 0.0066(4) 0.3269(2) 0.0075(4) 1 0
O8 O2- 8 d 0.41419(15) 0.0275(4) 0.8156(2) 0.0061(4) 1 0
loop_
_atom_site_aniso_label
_atom_site_aniso_type_symbol
_atom_site_aniso_U_11
_atom_site_aniso_U_22
_atom_site_aniso_U_33
_atom_site_aniso_U_12
_atom_site_aniso_U_13
_atom_site_aniso_U_23
Sr1 Sr2+ 0.0103(2) 0.0108(2) 0.0116(2) 0 0.00077(15) 0
Ti1 Ti4+ 0.0081(3) 0.0092(3) 0.0075(3) 0 0.0008(3) 0
Cr1 Cr3+ 0.0081(3) 0.0092(3) 0.0075(3) 0 0.0008(3) 0
Ti2 Ti4+ 0.0076(3) 0.0131(4) 0.0067(3) 0 -0.0009(2) 0
Cr2 Cr3+ 0.0076(3) 0.0131(4) 0.0067(3) 0 -0.0009(2) 0
Ti3 Ti4+ 0.0080(3) 0.0094(3) 0.0076(3) 0 -0.0011(3) 0
Cr3 Cr3+ 0.0080(3) 0.0094(3) 0.0076(3) 0 -0.0011(3) 0
Ti4 Ti4+ 0.0082(2) 0.0086(2) 0.0076(2) 0.00075(18) -0.00053(18) -0.00020(18)
Li1 Li1+ 0.017(4) 0.012(4) 0.009(3) 0 -0.005(3) 0
O1 O2- 0.0048(12) 0.0054(13) 0.0051(13) 0 -0.0008(10) 0
O2 O2- 0.0063(12) 0.0055(12) 0.0058(12) 0 -0.0009(10) 0
O3 O2- 0.0046(12) 0.0053(12) 0.0060(12) 0 0.0001(10) 0
O4 O2- 0.0042(12) 0.0067(13) 0.0061(13) 0 -0.0005(10) 0
O5 O2- 0.0076(13) 0.0150(15) 0.0063(13) 0 -0.0034(11) 0
O6 O2- 0.0073(9) 0.0056(8) 0.0065(8) -0.0010(7) -0.0008(7) -0.0003(7)
O7 O2- 0.0064(8) 0.0062(9) 0.0098(9) 0.0014(7) 0.0003(7) -0.0015(8)
O8 O2- 0.0054(8) 0.0054(9) 0.0075(9) -0.0003(7) 0.0003(7) -0.0003(7)
#End of TTdata_240626-ICSD