
#(C) 2018 by FIZ Karlsruhe - Leibniz Institute for Information Infrastructure.  All rights reserved.
data_240627-ICSD
_database_code_ICSD 240627
_audit_creation_date 2007-08-01
_chemical_name_systematic 'Chromium lithium strontium tetratitanium oxide'
_chemical_formula_structural '(Cr Ti) Li Sr Ti3 O11'
_chemical_formula_sum 'Cr1 Li1 O11 Sr1 Ti4'
_chemical_name_structure_type (CrTi)LiSrTi3O11
_exptl_crystal_density_diffrn 4.34
_publ_section_title

;
Structural filiations in the new complex titanates Sr Li M Ti4 O11 (M = Cr,
Fe)
;
loop_
_citation_id
_citation_journal_full
_citation_year
_citation_journal_volume
_citation_page_first
_citation_page_last
_citation_journal_id_ASTM
primary 'Acta Crystallographica, Section B: Structural Science' 2007 63 26 36
ASBSDK
loop_
_publ_author_name
'Imaz, I.'
'Pechev, S.'
'Koseva, I.'
'Bouree, F.'
'Gravereau, P.'
'Peshev, P.'
'Chaminade, J.P.'
_cell_length_a 13.798(2)
_cell_length_b 5.7630(10)
_cell_length_c 9.890(2)
_cell_angle_alpha 90
_cell_angle_beta 90
_cell_angle_gamma 90
_cell_volume 786.43
_cell_formula_units_Z 4
_symmetry_space_group_name_H-M 'P n m a'
_symmetry_Int_Tables_number 62
_refine_ls_R_factor_all 0.04
loop_
_symmetry_equiv_pos_site_id
_symmetry_equiv_pos_as_xyz
1 'x+1/2, y, -z+1/2'
2 'x, -y+1/2, z'
3 '-x+1/2, y+1/2, z+1/2'
4 '-x, -y, -z'
5 '-x+1/2, -y, z+1/2'
6 '-x, y+1/2, -z'
7 'x+1/2, -y+1/2, -z+1/2'
8 'x, y, z'
loop_
_atom_type_symbol
_atom_type_oxidation_number
Sr2+ 2
Ti4+ 4
Cr3+ 3
Li1+ 1
O2- -2
loop_
_atom_site_label
_atom_site_type_symbol
_atom_site_symmetry_multiplicity
_atom_site_Wyckoff_symbol
_atom_site_fract_x
_atom_site_fract_y
_atom_site_fract_z
_atom_site_B_iso_or_equiv
_atom_site_occupancy
_atom_site_attached_hydrogens
Sr1 Sr2+ 4 c 0.09449(5) 0.25 0.10285(7) 0.01298(18) 1 0
Ti1 Ti4+ 4 c 0.00081(9) 0.25 0.77065(13) 0.0073(3) 1 0
Ti2 Ti4+ 4 c 0.33159(9) 0.25 0.89090(13) 0.0084(3) 1 0
Ti3 Ti4+ 4 c 0.33432(9) 0.25 0.42923(13) 0.0072(3) 1 0
Ti4 Ti4+ 8 d 0.17188(6) 0.00081(14) 0.66285(8) 0.00692(18) 0.5 0
Cr1 Cr3+ 8 d 0.17188(6) 0.00081(14) 0.66285(8) 0.00692(18) 0.5 0
Li1 Li1+ 4 c 0.0401(9) 0.25 0.4219(13) 0.014(3) 1 0
O1 O2- 4 c 0.0870(3) 0.25 0.6042(5) 0.0066(9) 1 0
O2 O2- 4 c 0.2451(3) 0.25 0.7442(5) 0.0069(9) 1 0
O3 O2- 4 c 0.2601(3) 0.25 0.2539(5) 0.0067(9) 1 0
O4 O2- 4 c 0.3979(3) 0.25 0.0704(5) 0.0055(9) 1 0
O5 O2- 4 c 0.4346(3) 0.25 0.5607(5) 0.0095(10) 1 0
O6 O2- 8 d 0.2442(2) 0.0014(6) 1.0005(3) 0.0073(6) 1 0
O7 O2- 8 d 0.4142(2) 0.0061(6) 0.3270(3) 0.0071(6) 1 0
O8 O2- 8 d 0.4144(2) 0.0280(6) 0.8155(3) 0.0072(6) 1 0
loop_
_atom_site_aniso_label
_atom_site_aniso_type_symbol
_atom_site_aniso_U_11
_atom_site_aniso_U_22
_atom_site_aniso_U_33
_atom_site_aniso_U_12
_atom_site_aniso_U_13
_atom_site_aniso_U_23
Sr1 Sr2+ 0.0119(3) 0.0122(3) 0.0148(4) 0 0.0006(3) 0
Ti1 Ti4+ 0.0063(5) 0.0076(5) 0.0080(6) 0 0.0009(5) 0
Ti2 Ti4+ 0.0071(5) 0.0107(6) 0.0074(6) 0 -0.0011(5) 0
Ti3 Ti4+ 0.0073(6) 0.0075(6) 0.0069(6) 0 -0.0009(5) 0
Ti4 Ti4+ 0.0070(3) 0.0058(3) 0.0080(4) 0.0006(3) -0.0008(3) 0.0002(3)
Cr1 Cr3+ 0.0070(3) 0.0058(3) 0.0080(4) 0.0006(3) -0.0008(3) 0.0002(3)
Li1 Li1+ 0.019(6) 0.013(6) 0.009(6) 0 -0.008(5) 0
O1 O2- 0.007(2) 0.005(2) 0.008(2) 0 -0.0015(18) 0
O2 O2- 0.006(2) 0.008(2) 0.007(2) 0 -0.0013(18) 0
O3 O2- 0.006(2) 0.004(2) 0.010(2) 0 0.0008(18) 0
O4 O2- 0.002(2) 0.005(2) 0.009(2) 0 0.0010(18) 0
O5 O2- 0.009(2) 0.011(2) 0.008(2) 0 -0.0001(19) 0
O6 O2- 0.0080(14) 0.0069(15) 0.0069(16) -0.0020(13) -0.0011(13) 0.0003(13)
O7 O2- 0.0067(14) 0.0074(15) 0.0072(16) 0.0010(13) -0.0002(13) -0.0014(13)
O8 O2- 0.0057(14) 0.0069(15) 0.0090(16) 0.0008(12) 0.0001(12) -0.0004(13)
#End of TTdata_240627-ICSD