
#(C) 2018 by FIZ Karlsruhe - Leibniz Institute for Information Infrastructure.  All rights reserved.
data_240704-ICSD
_database_code_ICSD 240704
_audit_creation_date 2007-04-01
_chemical_name_systematic 'Lithium alumosilicate (1.44/1.44/1.56)'
_chemical_formula_structural 'Li1.44 (Al1.44 Si1.56) O6'
_chemical_formula_sum 'Al1.44 Li1.44 O6 Si1.56'
_chemical_name_structure_type Li2Al2SiO6
_exptl_crystal_density_diffrn 2.32
_publ_section_title 'Li1.44 Al1.44 Si1.56 O6'
loop_
_citation_id
_citation_journal_full
_citation_year
_citation_journal_volume
_citation_page_first
_citation_page_last
_citation_journal_id_ASTM
primary 'Acta Crystallographica, Section E: Structure Reports Online' 2007 63 i3
i4 ACSEBH
loop_
_publ_author_name
'Graia, M.'
'Ksiksi, R.'
'Driss, A.'
_cell_length_a 5.2654(2)
_cell_length_b 5.2654(2)
_cell_length_c 5.6240(8)
_cell_angle_alpha 90.
_cell_angle_beta 90.
_cell_angle_gamma 120.
_cell_volume 135.03
_cell_formula_units_Z 1
_symmetry_space_group_name_H-M 'P 62 2 2'
_symmetry_Int_Tables_number 180
_refine_ls_R_factor_all 0.0193
loop_
_symmetry_equiv_pos_site_id
_symmetry_equiv_pos_as_xyz
1 'x, x-y, -z+1/3'
2 '-x+y, y, -z'
3 '-y, -x, -z+2/3'
4 '-x, -x+y, -z+1/3'
5 'x-y, -y, -z'
6 'y, x, -z+2/3'
7 'x-y, x, z+1/3'
8 'y, -x+y, z+2/3'
9 '-x, -y, z'
10 '-x+y, -x, z+1/3'
11 '-y, x-y, z+2/3'
12 'x, y, z'
loop_
_atom_type_symbol
_atom_type_oxidation_number
Si4+ 4
Al3+ 3
Li1+ 1
O2- -2
loop_
_atom_site_label
_atom_site_type_symbol
_atom_site_symmetry_multiplicity
_atom_site_Wyckoff_symbol
_atom_site_fract_x
_atom_site_fract_y
_atom_site_fract_z
_atom_site_B_iso_or_equiv
_atom_site_occupancy
_atom_site_attached_hydrogens
Si1 Si4+ 3 c 0.5 0.5 0.3333 0.0062(3) 0.52 0
Al1 Al3+ 3 c 0.5 0.5 0.3333 0.0062(3) 0.48 0
Li1 Li1+ 3 a 0. 0. 0. 0.019(2) 0.48 0
O1 O2- 6 j 0.20088(18) 0.79912(18) 0.8333 0.0179(4) 1 0
loop_
_atom_site_aniso_label
_atom_site_aniso_type_symbol
_atom_site_aniso_U_11
_atom_site_aniso_U_22
_atom_site_aniso_U_33
_atom_site_aniso_U_12
_atom_site_aniso_U_13
_atom_site_aniso_U_23
Si1 Si4+ 0.0064(4) 0.0064(4) 0.0061(4) 0.0034(4) 0. 0.
Al1 Al3+ 0.0064(4) 0.0064(4) 0.0061(4) 0.0034(4) 0. 0.
Li1 Li1+ 0.013(4) 0.023(7) 0.025(5) 0.012(4) 0. 0.
O1 O2- 0.0163(7) 0.0163(7) 0.0240(8) 0.0103(7) -0.0101(6) -0.0101(6)
#End of TTdata_240704-ICSD