
#(C) 2018 by FIZ Karlsruhe - Leibniz Institute for Information Infrastructure.  All rights reserved.
data_242169-ICSD
_database_code_ICSD 242169
_audit_creation_date 2017-08-01
_chemical_name_systematic 'Cesium lithium cadmium diphosphate'
_chemical_formula_structural 'Cs Li Cd P2 O7'
_chemical_formula_sum 'Cd1 Cs1 Li1 O7 P2'
_exptl_crystal_density_diffrn 3.98
_cell_measurement_temperature 100.
_publ_section_title

;
Strong nonlinear-optical response in the pyrophosphate CsLiCdP2O7 with a short
cutoff edge
;
loop_
_citation_id
_citation_journal_full
_citation_year
_citation_journal_volume
_citation_page_first
_citation_page_last
_citation_journal_id_ASTM
primary 'Inorganic Chemistry' 2016 55 11626 11629 INOCAJ
loop_
_publ_author_name
'Shen, Yaoguo'
'Zhao, Sangen'
'Zhao, Bingqing'
'Ji, Chengmin'
'Li, Lina'
'Sun, Zhihua'
'Hong, Maochun'
'Luo, Junhua'
_cell_length_a 12.6830(4)
_cell_length_b 5.3097(2)
_cell_length_c 10.5680(4)
_cell_angle_alpha 90.
_cell_angle_beta 90.
_cell_angle_gamma 90.
_cell_volume 711.68
_cell_formula_units_Z 4
_symmetry_space_group_name_H-M 'P m c 21'
_symmetry_Int_Tables_number 26
_refine_ls_R_factor_all 0.0223
loop_
_symmetry_equiv_pos_site_id
_symmetry_equiv_pos_as_xyz
1 'x, -y, z+1/2'
2 '-x, -y, z+1/2'
3 '-x, y, z'
4 'x, y, z'
loop_
_atom_type_symbol
_atom_type_oxidation_number
Cs1+ 1
Cd2+ 2
P5+ 5
O2- -2
Li1+ 1
loop_
_atom_site_label
_atom_site_type_symbol
_atom_site_symmetry_multiplicity
_atom_site_Wyckoff_symbol
_atom_site_fract_x
_atom_site_fract_y
_atom_site_fract_z
_atom_site_B_iso_or_equiv
_atom_site_occupancy
_atom_site_attached_hydrogens
Cs1 Cs1+ 2 b 0.5 0.52302(12) 0.68917(5) 0.01795(16) 1 0
Cs2 Cs1+ 2 a 1. 0.98273(15) 0.43432(5) 0.01799(16) 1 0
Cd1 Cd2+ 4 c 0.75129(4) 0.92269(9) 0.16014(10) 0.01652(13) 1 0
P1 P5+ 4 c 0.88285(13) 0.4734(3) 0.1893(2) 0.0154(4) 1 0
P2 P5+ 4 c 0.61755(13) 1.0152(4) 0.4320(2) 0.0154(4) 1 0
O1 O2- 2 a 1. 0.5512(12) 0.2348(7) 0.0155(15) 1 0
O2 O2- 4 c 0.6876(4) 0.8311(10) 0.5043(5) 0.0195(11) 1 0
O3 O2- 4 c 0.8797(3) 0.1890(8) 0.1910(4) 0.0210(11) 1 0
O4 O2- 4 c 0.6381(4) 1.2807(10) 0.4785(5) 0.0245(11) 1 0
O5 O2- 4 c 0.8110(4) 0.5988(10) 0.2870(5) 0.0206(11) 1 0
O6 O2- 4 c 0.8616(4) 0.5946(10) 0.0612(5) 0.0218(11) 1 0
O7 O2- 4 c 0.6206(4) 0.9861(9) 0.2891(5) 0.0201(11) 1 0
O8 O2- 2 b 0.5 0.9383(13) 0.4762(7) 0.0178(16) 1 0
Li1 Li1+ 4 c 0.7503(7) 0.523(2) 0.4427(11) 0.007(2) 1 0
loop_
_atom_site_aniso_label
_atom_site_aniso_type_symbol
_atom_site_aniso_U_11
_atom_site_aniso_U_22
_atom_site_aniso_U_33
_atom_site_aniso_U_12
_atom_site_aniso_U_13
_atom_site_aniso_U_23
Cs1 Cs1+ 0.0190(3) 0.0156(3) 0.0193(4) 0. 0. -0.0007(3)
Cs2 Cs1+ 0.0196(3) 0.0182(3) 0.0162(4) 0. 0. -0.0004(3)
Cd1 Cd2+ 0.0151(2) 0.0173(2) 0.0172(2) 0.00024(18) 0.00012(18) 0.0009(3)
P1 P5+ 0.0128(8) 0.0165(8) 0.0170(10) 0.0004(6) -0.0005(8) 0.0009(8)
P2 P5+ 0.0148(8) 0.0160(8) 0.0153(10) 0.0003(8) 0.0011(9) -0.0011(8)
O1 O2- 0.013(3) 0.015(3) 0.019(4) 0. 0. -0.002(3)
O2 O2- 0.020(3) 0.018(3) 0.020(2) 0.002(2) -0.004(2) 0.000(2)
O3 O2- 0.018(2) 0.017(2) 0.028(3) -0.0006(18) -0.003(2) 0.001(2)
O4 O2- 0.022(3) 0.019(3) 0.032(3) -0.007(2) 0.005(2) -0.006(2)
O5 O2- 0.019(3) 0.020(3) 0.023(3) 0.003(2) 0.006(2) 0.005(2)
O6 O2- 0.022(3) 0.025(3) 0.019(2) 0.000(2) -0.002(2) 0.004(2)
O7 O2- 0.015(2) 0.028(3) 0.017(3) 0.001(2) 0.0006(19) 0.003(2)
O8 O2- 0.015(3) 0.021(4) 0.017(4) 0. 0. 0.001(3)
#End of TTdata_242169-ICSD