
#(C) 2018 by FIZ Karlsruhe - Leibniz Institute for Information Infrastructure.  All rights reserved.
data_244009-ICSD
_database_code_ICSD 244009
_audit_creation_date 2018-02-01
_chemical_name_systematic 'Dilithium vanadium(III) bis(hemihydrogenphosphate)'
_chemical_formula_structural 'Li2 V (H0.5 P O4)2'
_chemical_formula_sum 'H1 Li2 O8 P2 V1'
_exptl_crystal_density_diffrn 3.04
_cell_measurement_temperature 293.
_publ_section_title

;
Crystal structure and lithium diffusion pathways of a potential positive
electrode material for lithium-ion batteries: Li2VIII(H0.5PO4)2
;
loop_
_citation_id
_citation_journal_full
_citation_year
_citation_journal_volume
_citation_page_first
_citation_page_last
_citation_journal_id_ASTM
primary 'Inorganic Chemistry' 2017 56 6776 6779 INOCAJ
loop_
_publ_author_name
'Boivin, Edouard'
'Masquelier, Christian'
'Croguennec, Laurence'
'Chotard, Jean-Noel'
_cell_length_a 4.8093(2)
_cell_length_b 8.0070(4)
_cell_length_c 7.8485(4)
_cell_angle_alpha 90
_cell_angle_beta 112.395(2)
_cell_angle_gamma 90
_cell_volume 279.43
_cell_formula_units_Z 2
_symmetry_space_group_name_H-M 'P 1 21/c 1'
_symmetry_Int_Tables_number 14
_refine_ls_R_factor_all 0.0289
loop_
_symmetry_equiv_pos_site_id
_symmetry_equiv_pos_as_xyz
1 'x, -y+1/2, z+1/2'
2 '-x, -y, -z'
3 '-x, y+1/2, -z+1/2'
4 'x, y, z'
loop_
_atom_type_symbol
_atom_type_oxidation_number
V3+ 3
P5+ 5
O2- -2
Li1+ 1
H1+ 1
loop_
_atom_site_label
_atom_site_type_symbol
_atom_site_symmetry_multiplicity
_atom_site_Wyckoff_symbol
_atom_site_fract_x
_atom_site_fract_y
_atom_site_fract_z
_atom_site_B_iso_or_equiv
_atom_site_occupancy
_atom_site_attached_hydrogens
V1 V3+ 2 a 0. 0. 0. 0.00462(3) 1 0
P1 P5+ 4 e 0.63344(4) 0.65234(2) 0.76519(2) 0.00484(3) 1 0
O1 O2- 4 e 0.29664(12) 0.67332(7) 0.65064(8) 0.00780(7) 1 0
O2 O2- 4 e 0.79296(13) 0.82039(7) 0.81162(8) 0.00919(8) 1 0
O3 O2- 4 e 0.68923(13) 0.55951(8) 0.94803(8) 0.01026(9) 1 0
O4 O2- 4 e 0.77634(13) 0.54331(8) 0.66047(8) 0.00867(8) 1 0
Li1 Li1+ 4 e 0.0466(4) 0.8634(2) 0.6569(3) 0.0148(3) 1 0
H1 H1+ 4 e 0.45 0.51 0.01 0.064(12) 0.5 0
loop_
_atom_site_aniso_label
_atom_site_aniso_type_symbol
_atom_site_aniso_U_11
_atom_site_aniso_U_22
_atom_site_aniso_U_33
_atom_site_aniso_U_12
_atom_site_aniso_U_13
_atom_site_aniso_U_23
V1 V3+ 0.00441(5) 0.00463(5) 0.00461(5) -0.00039(4) 0.00148(4) 0.00026(4)
P1 P5+ 0.00400(6) 0.00539(6) 0.00505(6) -0.00055(4) 0.00164(4) -0.00069(4)
O1 O2- 0.00433(15) 0.00727(17) 0.00991(18) 0.00014(13) 0.00060(13) -0.00163(14)
O2 O2- 0.00955(18) 0.00731(18) 0.00950(18) -0.00358(14) 0.00225(15) -0.00216(14)
O3 O2- 0.00856(18) 0.0150(2) 0.00677(17) -0.00200(16) 0.00244(14) 0.00333(15)
O4 O2- 0.00824(17) 0.01016(19) 0.00914(18) 0.00114(15) 0.00502(15) -0.00177(15)
Li1 Li1+ 0.0138(7) 0.0139(7) 0.0145(7) 0.0019(6) 0.0030(6) -0.0032(6)
#End of TTdata_244009-ICSD