
#(C) 2018 by FIZ Karlsruhe - Leibniz Institute for Information Infrastructure.  All rights reserved.
data_244479-ICSD
_database_code_ICSD 244479
_audit_creation_date 2018-02-01
_chemical_name_systematic 'Lithium niobium tantalum oxide (1/0.4/0.6/3)'
_chemical_formula_structural 'Li (Nb0.40 Ta0.60) O3'
_chemical_formula_sum 'Li1 Nb0.4 O3 Ta0.6'
_chemical_name_structure_type LiNbO3
_exptl_crystal_density_diffrn 6.32
_cell_measurement_temperature 294.
_publ_section_title 'Crystallographic and optical study of LiNb1 - xTaxO3'
loop_
_citation_id
_citation_journal_full
_citation_year
_citation_journal_volume
_citation_page_first
_citation_page_last
_citation_journal_id_ASTM
primary

;
Acta Crystallographica, Section B: Structural Science, Crystal Engineering and
Materials
; 2017 73 498 506 ACSBDA
loop_
_publ_author_name
'Huband, S.'
'Keeble, D.S.'
'Zhang, N.'
'Glazer, A.M.'
'Bartasyte, A.'
'Thomas, P.A.'
_cell_length_a 5.147(1)
_cell_length_b 5.147(1)
_cell_length_c 13.798(5)
_cell_angle_alpha 90
_cell_angle_beta 90
_cell_angle_gamma 120
_cell_volume 316.55
_cell_formula_units_Z 6
_symmetry_space_group_name_H-M 'R 3 c H'
_symmetry_Int_Tables_number 161
_refine_ls_R_factor_all 0.0144
loop_
_symmetry_equiv_pos_site_id
_symmetry_equiv_pos_as_xyz
1 '-x+y, y, z+1/2'
2 'x, x-y, z+1/2'
3 '-y, -x, z+1/2'
4 '-x+y, -x, z'
5 '-y, x-y, z'
6 'x, y, z'
7 '-x+y+2/3, y+1/3, z+5/6'
8 'x+2/3, x-y+1/3, z+5/6'
9 '-y+2/3, -x+1/3, z+5/6'
10 '-x+y+2/3, -x+1/3, z+1/3'
11 '-y+2/3, x-y+1/3, z+1/3'
12 'x+2/3, y+1/3, z+1/3'
13 '-x+y+1/3, y+2/3, z+1/6'
14 'x+1/3, x-y+2/3, z+1/6'
15 '-y+1/3, -x+2/3, z+1/6'
16 '-x+y+1/3, -x+2/3, z+2/3'
17 '-y+1/3, x-y+2/3, z+2/3'
18 'x+1/3, y+2/3, z+2/3'
loop_
_atom_type_symbol
_atom_type_oxidation_number
Ta5+ 5
Nb5+ 5
O2- -2
Li1+ 1
loop_
_atom_site_label
_atom_site_type_symbol
_atom_site_symmetry_multiplicity
_atom_site_Wyckoff_symbol
_atom_site_fract_x
_atom_site_fract_y
_atom_site_fract_z
_atom_site_B_iso_or_equiv
_atom_site_occupancy
_atom_site_attached_hydrogens
Ta1 Ta5+ 6 a 0. 0. 0.0018(4) 0.00362(13) 0.6 0
Nb1 Nb5+ 6 a 0. 0. 0.0018(4) 0.00362(13) 0.4 0
O1 O2- 18 b 0.0491(3) 0.3431(4) 0.0695(4) 0.0071(3) 1 0
Li1 Li1+ 6 a 0. 0. 0.283(2) 0.015(4) 1 0
loop_
_atom_site_aniso_label
_atom_site_aniso_type_symbol
_atom_site_aniso_U_11
_atom_site_aniso_U_22
_atom_site_aniso_U_33
_atom_site_aniso_U_12
_atom_site_aniso_U_13
_atom_site_aniso_U_23
Ta1 Ta5+ 0.00367(15) 0.00367(15) 0.00351(16) 0.00184(7) 0. 0.
Nb1 Nb5+ 0.00367(15) 0.00367(15) 0.00351(16) 0.00184(7) 0. 0.
O1 O2- 0.0071(8) 0.0065(5) 0.0076(4) 0.0034(8) -0.0014(7) -0.0016(3)
Li1 Li1+ 0.014(6) 0.014(6) 0.018(9) 0.007(3) 0. 0.
#End of TTdata_244479-ICSD