
#(C) 2018 by FIZ Karlsruhe - Leibniz Institute for Information Infrastructure.  All rights reserved.
data_246190-ICSD
_database_code_ICSD 246190
_audit_creation_date 2009-02-01
_chemical_name_systematic 'Lithium uranyl arsenate(V) - beta'
_chemical_formula_structural 'Li ((U O2) (As O4))'
_chemical_formula_sum 'As1 Li1 O6 U1'
_exptl_crystal_density_diffrn 5.34
_publ_section_title

;
Crystal chemistry pf anhydrous Li uranyl phosphates and arsenates. I.
Polymorphism and structure topology: Synthesis and crystal structures of
alpha-Li [(U O2) (P O4)], alpha-Li [(U O2) (As O4)], beta-Li [(U O2) (P O4)]
and Li2 [(U O2)3 (P2 O7)2]
;
loop_
_citation_id
_citation_journal_full
_citation_year
_citation_journal_volume
_citation_page_first
_citation_page_last
_citation_journal_id_ASTM
primary 'Journal of Solid State Chemistry' 2008 181 3010 3015 JSSCBI
loop_
_publ_author_name
'Alekseev, E.V.'
'Krivovichev, S.V.'
'Malcherek, T.'
'Depmeier, W.'
_cell_length_a 5.051(1)
_cell_length_b 5.303(1)
_cell_length_c 10.101(1)
_cell_angle_alpha 90.31(1)
_cell_angle_beta 97.49(1)
_cell_angle_gamma 105.08(1)
_cell_volume 258.8
_cell_formula_units_Z 2
_symmetry_space_group_name_H-M 'P -1'
_symmetry_Int_Tables_number 2
_refine_ls_R_factor_all 0.0339
loop_
_symmetry_equiv_pos_site_id
_symmetry_equiv_pos_as_xyz
1 '-x, -y, -z'
2 'x, y, z'
loop_
_atom_type_symbol
_atom_type_oxidation_number
U6+ 6
As5+ 5
Li1+ 1
O2- -2
loop_
_atom_site_label
_atom_site_type_symbol
_atom_site_symmetry_multiplicity
_atom_site_Wyckoff_symbol
_atom_site_fract_x
_atom_site_fract_y
_atom_site_fract_z
_atom_site_B_iso_or_equiv
_atom_site_occupancy
_atom_site_attached_hydrogens
U1 U6+ 1 h 0.5 0.5 0.5 0.04151(4) 1. 0
U2 U6+ 1 a 0 0 0 0.04135(4) 1. 0
As1 As5+ 2 i 0.42481(9) 0.02405(9) 0.74232(4) 0.04172(7) 1. 0
Li1 Li1+ 2 i 0.059(2) -0.550(2) 0.772 0.060(2) 1. 0
O1 O2- 2 i 0.2033(6) -0.1583(6) 0.8365(3) 0.0464(6) 1. 0
O2 O2- 2 i 0.2313(7) 0.3108(7) 0.9916(4) 0.0516(7) 1. 0
O3 O2- 2 i 0.4601(8) -0.1664(7) 0.6190(4) 0.0565(8) 1. 0
O4 O2- 2 i 0.7364(6) 0.1498(7) 0.8324(3) 0.0478(6) 1. 0
O5 O2- 2 i 0.1743(6) 0.4840(7) 0.4018(3) 0.0500(6) 1. 0
O6 O2- 2 i 0.2994(6) 0.2652(6) 0.6755(3) 0.0457(5) 1. 0
#End of TTdata_246190-ICSD