
#(C) 2018 by FIZ Karlsruhe - Leibniz Institute for Information Infrastructure.  All rights reserved.
data_246302-ICSD
_database_code_ICSD 246302
_audit_creation_date 2009-08-01
_chemical_name_systematic 'Dilithium selenate(VI)'
_chemical_formula_structural 'Li2 (Se O4)'
_chemical_formula_sum 'Li2 O4 Se1'
_chemical_name_structure_type Be2SiO4
_exptl_crystal_density_diffrn 2.97
_cell_measurement_temperature 293.
_publ_section_title 'Structure of dilithium selenate(VI)'
loop_
_citation_id
_citation_journal_full
_citation_year
_citation_journal_volume
_citation_page_first
_citation_page_last
_citation_journal_id_ASTM
primary 'Acta Crystallographica, Section C: Crystal Structure Communications'
1989 45 158 159 ACSCEE
loop_
_publ_author_name
'Pertlik, F.'
'Fuith, A.H.'
_cell_length_a 13.967(1)
_cell_length_b 13.967(1)
_cell_length_c 9.342(1)
_cell_angle_alpha 90.
_cell_angle_beta 90.
_cell_angle_gamma 120.
_cell_volume 1578.25
_cell_formula_units_Z 18
_symmetry_space_group_name_H-M 'R -3 H'
_symmetry_Int_Tables_number 148
_refine_ls_R_factor_all 0.032
loop_
_symmetry_equiv_pos_site_id
_symmetry_equiv_pos_as_xyz
1 'x-y, x, -z'
2 'y, -x+y, -z'
3 '-x, -y, -z'
4 '-x+y, -x, z'
5 '-y, x-y, z'
6 'x, y, z'
7 'x-y+2/3, x+1/3, -z+1/3'
8 'y+2/3, -x+y+1/3, -z+1/3'
9 '-x+2/3, -y+1/3, -z+1/3'
10 '-x+y+2/3, -x+1/3, z+1/3'
11 '-y+2/3, x-y+1/3, z+1/3'
12 'x+2/3, y+1/3, z+1/3'
13 'x-y+1/3, x+2/3, -z+2/3'
14 'y+1/3, -x+y+2/3, -z+2/3'
15 '-x+1/3, -y+2/3, -z+2/3'
16 '-x+y+1/3, -x+2/3, z+2/3'
17 '-y+1/3, x-y+2/3, z+2/3'
18 'x+1/3, y+2/3, z+2/3'
loop_
_atom_type_symbol
_atom_type_oxidation_number
Li1+ 1
Se6+ 6
O2- -2
loop_
_atom_site_label
_atom_site_type_symbol
_atom_site_symmetry_multiplicity
_atom_site_Wyckoff_symbol
_atom_site_fract_x
_atom_site_fract_y
_atom_site_fract_z
_atom_site_B_iso_or_equiv
_atom_site_occupancy
_atom_site_attached_hydrogens
Li1 Li1+ 18 f 0.9797(4) 0.1917(4) 0.0845(5) 0.0202 1. 0
Li2 Li1+ 18 f 0.9840(4) 0.1917(4) 0.4141(5) 0.1697 1. 0
Se1 Se6+ 18 f 0.9854(1) 0.1978(1) 0.7495(1) 0.0118 1. 0
O1 O2- 18 f 0.1104(2) 0.2156(2) 0.7504(2) 0.0185 1. 0
O2 O2- 18 f -0.0045(2) 0.3196(1) 0.7512(2) 0.0171 1. 0
O3 O2- 18 f 0.9189(2) 0.1282(2) 0.8928(2) 0.0178 1. 0
O4 O2- 18 f 0.9223(2) 0.1297(2) 0.6046(2) 0.0179 1. 0
#End of TTdata_246302-ICSD