
#(C) 2018 by FIZ Karlsruhe - Leibniz Institute for Information Infrastructure.  All rights reserved.
data_247217-ICSD
_database_code_ICSD 247217
_audit_creation_date 2010-08-01
_chemical_name_systematic 'Hexalithium copper(II) decaoxotetraborate'
_chemical_formula_structural 'Li6 Cu B4 O10'
_chemical_formula_sum 'B4 Cu1 Li6 O10'
_chemical_name_structure_type Li6CuB4O10
_exptl_crystal_density_diffrn 2.54
_cell_measurement_temperature 293.
_publ_section_title

;
Structural investigation of quaternary copper oxides with low dimensional
magnetic properties
;
loop_
_citation_id
_citation_journal_full
_citation_year
_citation_journal_volume
_citation_page_first
_citation_page_last
_citation_journal_id_ASTM
primary 'Dissertation Rheinisch-Westfaelische Hochschule Aachen' 2003 2003 1 132
DIAACP
loop_
_publ_author_name
'Sparta, K.'
_cell_length_a 4.858(1)
_cell_length_b 9.288(2)
_cell_length_c 14.019(3)
_cell_angle_alpha 104.36(2)
_cell_angle_beta 95.98(3)
_cell_angle_gamma 94.93(3)
_cell_volume 605.34
_cell_formula_units_Z 3
_symmetry_space_group_name_H-M 'P -1'
_symmetry_Int_Tables_number 2
_refine_ls_R_factor_all 0.0353
loop_
_symmetry_equiv_pos_site_id
_symmetry_equiv_pos_as_xyz
1 '-x, -y, -z'
2 'x, y, z'
loop_
_atom_type_symbol
_atom_type_oxidation_number
Cu2+ 2
B3+ 3
Li1+ 1
O2- -2
loop_
_atom_site_label
_atom_site_type_symbol
_atom_site_symmetry_multiplicity
_atom_site_Wyckoff_symbol
_atom_site_fract_x
_atom_site_fract_y
_atom_site_fract_z
_atom_site_B_iso_or_equiv
_atom_site_occupancy
_atom_site_attached_hydrogens
Cu1 Cu2+ 1 a 0 0 0 . 1. 0
Cu2 Cu2+ 2 i 0.2979(1) 0.31561(5) 0.67025(4) . 1. 0
B1 B3+ 2 i 0.0805(8) 0.4516(4) 0.3307(4) 0.0029(8) 1. 0
B2 B3+ 2 i 0.1713(8) 0.6850(4) 0.4798(4) 0.0043(8) 1. 0
B3 B3+ 2 i 0.2017(8) 0.6593(4) 0.1833(3) 0.0024(8) 1. 0
B4 B3+ 2 i 0.2759(8) 0.8937(4) 0.3325(4) 0.0026(8) 1. 0
B5 B3+ 2 i 0.4130(8) 0.7744(4) 0.9935(4) 0.0029(9) 1. 0
B6 B3+ 2 i 0.4620(8) -0.0013(5) 0.1459(4) 0.0033(8) 1. 0
Li1 Li1+ 2 i 0.045(1) 0.8030(7) 0.8151(6) 0.009(1) 1. 0
Li2 Li1+ 2 i 0.067(1) 0.3792(7) 0.0325(6) 0.011(1) 1. 0
Li3 Li1+ 2 i 0.088(1) 0.0804(7) 0.8115(6) 0.019(1) 1. 0
Li4 Li1+ 2 i 0.212(1) 0.9383(7) 0.6324(6) 0.009(1) 1. 0
Li5 Li1+ 2 i 0.332(1) 0.1401(7) 0.4874(6) 0.010(1) 1. 0
Li6 Li1+ 2 i 0.369(1) 0.4315(6) 0.9127(5) 0.012(1) 1. 0
Li7 Li1+ 2 i 0.384(1) 0.1718(7) 0.3108(6) 0.014(1) 1. 0
Li8 Li1+ 2 i 0.437(1) 0.5690(7) 0.6025(5) 0.015(1) 1. 0
Li9 Li1+ 2 i 0.495(1) 0.4039(7) 0.1965(5) 0.012(1) 1. 0
O1 O2- 2 i 0.0276(5) 0.5911(3) 0.1005(2) 0.0064(6) 1. 0
O2 O2- 2 i 0.0616(5) 0.2567(3) 0.5464(2) 0.0091(6) 1. 0
O3 O2- 2 i 0.1136(5) 0.7841(3) 0.2502(2) 0.0036(5) 1. 0
O4 O2- 2 i 0.1614(5) 0.8067(3) 0.9531(2) 0.0061(6) 1. 0
O5 O2- 2 i 0.1611(5) 0.0239(3) 0.3578(2) 0.0045(5) 1. 0
O6 O2- 2 i 0.1866(5) 0.5240(3) 0.6972(2) 0.0061(5) 1. 0
O7 O2- 2 i 0.1904(5) 0.0312(3) 0.1321(2) 0.0036(5) 1. 0
O8 O2- 2 i 0.2187(5) 0.3408(3) 0.2808(2) 0.0046(5) 1. 0
O9 O2- 2 i 0.2401(5) 0.5460(3) 0.4199(2) 0.0056(6) 1. 0
O10 O2- 2 i 0.3565(5) 0.7486(3) 0.5624(2) 0.0057(6) 1. 0
O11 O2- 2 i 0.3514(5) 0.9267(3) 0.7736(2) 0.0048(6) 1. 0
O12 O2- 2 i 0.4375(5) 0.1213(3) 0.9199(2) 0.0054(6) 1. 0
O13 O2- 2 i 0.4707(5) 0.1295(3) 0.6254(2) 0.0053(6) 1. 0
O14 O2- 2 i 0.4711(5) 0.3528(3) 0.0422(2) 0.0051(6) 1. 0
O15 O2- 2 i 0.4593(5) 0.6170(3) 0.2065(2) 0.0027(5) 1. 0
loop_
_atom_site_aniso_label
_atom_site_aniso_type_symbol
_atom_site_aniso_U_11
_atom_site_aniso_U_22
_atom_site_aniso_U_33
_atom_site_aniso_U_12
_atom_site_aniso_U_13
_atom_site_aniso_U_23
Cu1 Cu2+ 0.0047(3) 0.0048(3) 0.0026(4) 0.0034(3) -0.0016(3) -0.0013(3)
Cu2 Cu2+ 0.0054(2) 0.0041(2) 0.0026(3) 0.0041(2) -0.0031(2) -0.0025(2)
#End of TTdata_247217-ICSD