
#(C) 2018 by FIZ Karlsruhe - Leibniz Institute for Information Infrastructure.  All rights reserved.
data_248259-ICSD
_database_code_ICSD 248259
_audit_creation_date 2011-02-01
_chemical_name_systematic 'Tetralithium uranyl tris(peroxo) decahydrate'
_chemical_formula_structural 'Li4 (U O2 (O2)3) (H2 O)10'
_chemical_formula_sum 'H20 Li4 O18 U1'
_exptl_crystal_density_diffrn 2.44
_cell_measurement_temperature 183.
_publ_section_title 'Self-assembly of alkali-uranyl-peroxide clusters'
loop_
_citation_id
_citation_journal_full
_citation_year
_citation_journal_volume
_citation_page_first
_citation_page_last
_citation_journal_id_ASTM
primary 'Inorganic Chemistry' 2010 49 7748 7755 INOCAJ
loop_
_publ_author_name
'Nyman, M.'
'Rodriguez, M.A.'
'Campana, C.F.'
_cell_length_a 13.1179(14)
_cell_length_b 9.2359(10)
_cell_length_c 12.8958(14)
_cell_angle_alpha 90.
_cell_angle_beta 90.
_cell_angle_gamma 90.
_cell_volume 1562.4
_cell_formula_units_Z 4
_symmetry_space_group_name_H-M 'P b c n'
_symmetry_Int_Tables_number 60
_refine_ls_R_factor_all 0.0153
loop_
_symmetry_equiv_pos_site_id
_symmetry_equiv_pos_as_xyz
1 'x, -y, z+1/2'
2 '-x+1/2, y+1/2, z'
3 'x+1/2, y+1/2, -z+1/2'
4 '-x, -y, -z'
5 '-x, y, -z+1/2'
6 'x+1/2, -y+1/2, -z'
7 '-x+1/2, -y+1/2, z+1/2'
8 'x, y, z'
loop_
_atom_type_symbol
_atom_type_oxidation_number
O2- -2
U6+ 6
O1- -1
O2- -2
O1- -1
O2- -2
O1- -1
Li1+ 1
H1+ 1
loop_
_atom_site_label
_atom_site_type_symbol
_atom_site_symmetry_multiplicity
_atom_site_Wyckoff_symbol
_atom_site_fract_x
_atom_site_fract_y
_atom_site_fract_z
_atom_site_B_iso_or_equiv
_atom_site_occupancy
_atom_site_attached_hydrogens
O1 O2- 8 d 0.6783(2) 0.4014(3) 0.5020(2) 0.0222(6) 1 0
U1 U6+ 4 c 0.5 0.557723(14) 0.75 0.00805(6) 1 0
O2 O1- 8 d 0.55691(16) 0.7936(2) 0.74704(14) 0.0154(4) 1 0
O3 O2- 8 d 0.67064(19) 0.9076(3) 0.89670(18) 0.0147(5) 1 0
O4 O2- 8 d 0.52379(15) 0.5555(2) 0.60895(17) 0.0126(5) 1 0
O5 O1- 8 d 0.38173(16) 0.3726(2) 0.72974(14) 0.0142(5) 1 0
O6 O2- 8 d 0.55170(18) 0.9964(3) 0.59970(18) 0.0157(5) 1 0
O7 O2- 8 d 0.2876(2) 0.1705(3) 0.84895(18) 0.0162(5) 1 0
O8 O2- 8 d 0.61573(18) 0.7368(2) 0.4576(2) 0.0146(5) 1 0
O9 O1- 8 d 0.32958(15) 0.5146(2) 0.71247(16) 0.0135(4) 1 0
Li1 Li1+ 8 d 0.5837(4) 1.0596(5) 0.9558(4) 0.0190(12) 1 0
Li2 Li1+ 8 d 0.7400(4) 0.7868(5) 1.0070(4) 0.0184(12) 1 0
H1 H1+ 8 d 0.584(3) 0.695(4) 0.492(3) 0.017(11) 1 0
H2 H1+ 8 d 0.597(3) 1.048(4) 0.620(3) 0.018(10) 1 0
H3 H1+ 8 d 0.308(3) 0.222(4) 0.814(3) 0.023(12) 1 0
H4 H1+ 8 d 0.640(3) 0.876(4) 0.859(3) 0.024(12) 1 0
H5 H1+ 8 d 0.256(3) 0.126(4) 0.823(3) 0.024(13) 1 0
H6 H1+ 8 d 0.609(3) 0.705(4) 0.401(3) 0.027(11) 1 0
H7 H1+ 8 d 0.555(3) 0.934(4) 0.639(3) 0.038(13) 1 0
H8 H1+ 8 d 0.719(3) 0.943(4) 0.860(3) 0.032(12) 1 0
H9 H1+ 8 d 0.639(3) 0.427(4) 0.539(3) 0.021(11) 1 0
H10 H1+ 8 d 0.660(3) 0.416(4) 0.446(3) 0.038(13) 1 0
loop_
_atom_site_aniso_label
_atom_site_aniso_type_symbol
_atom_site_aniso_U_11
_atom_site_aniso_U_22
_atom_site_aniso_U_33
_atom_site_aniso_U_12
_atom_site_aniso_U_13
_atom_site_aniso_U_23
O1 O2- 0.0222(14) 0.0301(15) 0.0142(13) 0.0114(11) 0.0015(12) -0.0003(11)
U1 U6+ 0.00826(9) 0.00857(9) 0.00732(8) 0. -0.00014(7) 0.
O2 O1- 0.0130(11) 0.0130(10) 0.0204(11) -0.0006(8) 0.0009(10) 0.0006(9)
O3 O2- 0.0127(12) 0.0173(12) 0.0143(12) -0.0024(10) -0.0006(11) -0.0015(10)
O4 O2- 0.0122(11) 0.0172(12) 0.0084(10) -0.0024(8) 0.0007(8) -0.0001(8)
O5 O1- 0.0145(11) 0.0092(10) 0.0187(12) 0.0019(9) -0.0008(9) 0.0009(8)
O6 O2- 0.0157(12) 0.0153(12) 0.0162(12) -0.0045(11) -0.0012(10) 0.0016(10)
O7 O2- 0.0173(13) 0.0166(13) 0.0148(12) -0.0054(11) -0.0010(11) 0.0010(11)
O8 O2- 0.0184(12) 0.0113(11) 0.0140(12) -0.0029(10) 0.0015(11) 0.0007(10)
O9 O1- 0.0137(11) 0.0107(10) 0.0160(10) 0.0023(9) -0.0012(9) -0.0005(9)
Li1 Li1+ 0.020(3) 0.020(3) 0.018(3) -0.004(2) 0.004(2) 0.002(2)
Li2 Li1+ 0.015(3) 0.021(3) 0.019(3) 0.002(2) 0.004(2) -0.003(2)
#End of TTdata_248259-ICSD