
#(C) 2018 by FIZ Karlsruhe - Leibniz Institute for Information Infrastructure.  All rights reserved.
data_248309-ICSD
_database_code_ICSD 248309
_audit_creation_date 2014-08-01
_chemical_name_systematic 'Dilithium tetragermanate'
_chemical_formula_structural 'Li2 Ge4 O9'
_chemical_formula_sum 'Ge4 Li2 O9'
_exptl_crystal_density_diffrn 4.37
_cell_measurement_temperature 298.
_publ_section_title 'The polar phase of Li2 Ge4 O9 at 298, 150 and 90 K'
loop_
_citation_id
_citation_journal_full
_citation_year
_citation_journal_volume
_citation_page_first
_citation_page_last
_citation_journal_id_ASTM
primary 'Acta Crystallographica, Section C: Crystal Structure Communications'
2013 69 1091 1095 ACSCEE
loop_
_publ_author_name
'Redhammer, Guenther J.'
'Tippelt, Gerold'
_cell_length_a 9.31165(9)
_cell_length_b 4.62854(5)
_cell_length_c 15.81663(16)
_cell_angle_alpha 90
_cell_angle_beta 90
_cell_angle_gamma 90
_cell_volume 681.67
_cell_formula_units_Z 4
_symmetry_space_group_name_H-M 'P 21 c a'
_symmetry_Int_Tables_number 29
_refine_ls_R_factor_all 0.019
loop_
_symmetry_equiv_pos_site_id
_symmetry_equiv_pos_as_xyz
1 'x, -y, z+1/2'
2 'x+1/2, y, -z+1/2'
3 'x+1/2, -y, -z'
4 'x, y, z'
loop_
_atom_type_symbol
_atom_type_oxidation_number
Li1+ 1
Ge4+ 4
O2- -2
loop_
_atom_site_label
_atom_site_type_symbol
_atom_site_symmetry_multiplicity
_atom_site_Wyckoff_symbol
_atom_site_fract_x
_atom_site_fract_y
_atom_site_fract_z
_atom_site_B_iso_or_equiv
_atom_site_occupancy
_atom_site_attached_hydrogens
Li1 Li1+ 4 a 0.4691(5) 0.4607(8) 0.2632(3) 0.0180(9) 1 0
Li2 Li1+ 4 a 0.2705(6) 0.5680(12) 0.4751(3) 0.0336(11) 1 0
Ge1 Ge4+ 4 a 0.23524(5) 0.48943(3) 0.155695(10) 0.00565(4) 1 0
Ge2 Ge4+ 4 a 0.23430(5) 0.99363(4) 0.295703(10) 0.00620(4) 1 0
Ge3 Ge4+ 4 a 0.52539(3) 1.00411(3) 0.402028(16) 0.00629(6) 1 0
Ge4 Ge4+ 4 a 0.44481(2) 1.01849(4) 0.594728(15) 0.00614(6) 1 0
O1 O2- 4 a 0.0720(2) 0.7169(3) 0.16179(9) 0.0079(2) 1 0
O2 O2- 4 a 0.1521(2) 0.2624(3) 0.06926(9) 0.0090(3) 1 0
O3 O2- 4 a 0.32285(19) 0.7072(3) 0.07094(9) 0.0084(3) 1 0
O4 O2- 4 a 0.3963(2) 0.2512(3) 0.16448(10) 0.0089(3) 1 0
O5 O2- 4 a 0.31808(19) 0.7155(3) 0.24140(10) 0.0086(3) 1 0
O6 O2- 4 a 0.1451(2) 0.2534(3) 0.23714(9) 0.0092(3) 1 0
O7 O2- 4 a 0.36959(18) 1.1686(3) 0.35739(9) 0.0100(3) 1 0
O8 O2- 4 a 0.11424(19) 0.8440(3) 0.37173(9) 0.0122(3) 1 0
O9 O2- 4 a 0.46492(18) 0.8406(3) 0.49643(9) 0.0118(3) 1 0
loop_
_atom_site_aniso_label
_atom_site_aniso_type_symbol
_atom_site_aniso_U_11
_atom_site_aniso_U_22
_atom_site_aniso_U_33
_atom_site_aniso_U_12
_atom_site_aniso_U_13
_atom_site_aniso_U_23
Li1 Li1+ 0.009(2) 0.0203(16) 0.025(3) 0.0022(14) -0.0057(17) -0.0064(15)
Li2 Li1+ 0.033(3) 0.038(2) 0.030(3) 0.000(2) 0.0113(19) 0.013(2)
Ge1 Ge4+ 0.00539(8) 0.00598(7) 0.00558(8) 0.00004(8) -0.00023(11) 0.00001(6)
Ge2 Ge4+ 0.00602(7) 0.00644(7) 0.00615(8) 0.00071(6) -0.00026(12) 0.00023(5)
Ge3 Ge4+ 0.00608(13) 0.00665(12) 0.00616(12) 0.00006(6) 0.00031(9) -0.00052(5)
Ge4 Ge4+ 0.00623(13) 0.00660(10) 0.00560(11) -0.00001(12) 0.00019(10) 0.00058(5)
O1 O2- 0.0059(7) 0.0090(6) 0.0087(6) 0.0017(4) 0.0007(5) 0.0028(4)
O2 O2- 0.0096(7) 0.0093(6) 0.0080(6) -0.0032(5) -0.0006(5) -0.0007(4)
O3 O2- 0.0104(7) 0.0092(6) 0.0057(6) -0.0029(5) -0.0005(5) 0.0002(4)
O4 O2- 0.0085(7) 0.0100(6) 0.0082(6) 0.0021(5) -0.0001(5) -0.0011(4)
O5 O2- 0.0077(7) 0.0089(5) 0.0093(6) 0.0015(5) -0.0014(5) -0.0033(4)
O6 O2- 0.0074(7) 0.0098(6) 0.0105(7) 0.0008(4) 0.0012(5) 0.0034(4)
O7 O2- 0.0078(6) 0.0095(6) 0.0127(7) 0.0015(4) -0.0034(5) -0.0017(5)
O8 O2- 0.0093(6) 0.0134(6) 0.0141(7) 0.0033(5) 0.0049(5) 0.0046(5)
O9 O2- 0.0184(8) 0.0093(5) 0.0077(5) -0.0017(5) 0.0047(6) -0.0008(4)
#End of TTdata_248309-ICSD