
#(C) 2018 by FIZ Karlsruhe - Leibniz Institute for Information Infrastructure.  All rights reserved.
data_248841-ICSD
_database_code_ICSD 248841
_audit_creation_date 2015-02-01
_chemical_name_systematic 'Lithium niobium oxide nitride (0.88/3/0.52/3.48)'
_chemical_formula_structural 'Li0.88 Nb3 (O0.13 N0.87)4'
_chemical_formula_sum 'Li0.88 N3.48 Nb3 O0.52'
_chemical_name_structure_type LiTa3N4
_exptl_crystal_density_diffrn 6.99
_publ_section_title

;
Crystal structure and superconducting properties of hexagonal lithium-niobium
oxynitride
;
loop_
_citation_id
_citation_journal_full
_citation_year
_citation_journal_volume
_citation_page_first
_citation_page_last
_citation_journal_id_ASTM
primary 'Inorganic Chemistry' 2012 51 11184 11189 INOCAJ
loop_
_publ_author_name
'Motohashi, Teruki'
'Ito, Masahiko'
'Masubuchi, Yuji'
'Wakeshima, Makoto'
'Kikkawa, Shinichi'
_cell_length_a 5.2043(3)
_cell_length_b 5.2043(3)
_cell_length_c 10.3942(5)
_cell_angle_alpha 90
_cell_angle_beta 90
_cell_angle_gamma 120
_cell_volume 243.8
_cell_formula_units_Z 3
_symmetry_space_group_name_H-M 'P 63/m c m'
_symmetry_Int_Tables_number 193
_refine_ls_R_factor_all 0.0095
loop_
_symmetry_equiv_pos_site_id
_symmetry_equiv_pos_as_xyz
1 '-x, -x+y, -z+1/2'
2 'x-y, -y, -z+1/2'
3 'y, x, -z+1/2'
4 '-x+y, -x, -z+1/2'
5 '-y, x-y, -z+1/2'
6 'x, y, -z+1/2'
7 'x, x-y, z+1/2'
8 '-x+y, y, z+1/2'
9 '-y, -x, z+1/2'
10 'x-y, x, z+1/2'
11 'y, -x+y, z+1/2'
12 '-x, -y, z+1/2'
13 'x, x-y, -z'
14 '-x+y, y, -z'
15 '-y, -x, -z'
16 'x-y, x, -z'
17 'y, -x+y, -z'
18 '-x, -y, -z'
19 '-x, -x+y, z'
20 'x-y, -y, z'
21 'y, x, z'
22 '-x+y, -x, z'
23 '-y, x-y, z'
24 'x, y, z'
loop_
_atom_type_symbol
_atom_type_oxidation_number
Nb3+ 3.54
Li1+ 1
Nb3+ 3.54
Li1+ 1
Nb3+ 3.54
Li1+ 1
N3- -3
O2- -2
loop_
_atom_site_label
_atom_site_type_symbol
_atom_site_symmetry_multiplicity
_atom_site_Wyckoff_symbol
_atom_site_fract_x
_atom_site_fract_y
_atom_site_fract_z
_atom_site_B_iso_or_equiv
_atom_site_occupancy
_atom_site_attached_hydrogens
Nb1 Nb3+ 2 b 0. 0. 0. 0.06(5) 0.29(1) 0
Li1 Li1+ 2 b 0. 0. 0. 0.06(5) 0.70(5) 0
Nb2 Nb3+ 4 d 0.3333 0.6667 0. 0.06(5) 0.65(1) 0
Li2 Li1+ 4 d 0.3333 0.6667 0. 0.06(5) 0.26(3) 0
Nb3 Nb3+ 6 g 0.3306(15) 0. 0.25 0.06(5) 0.97(1) 0
Li3 Li1+ 6 g 0.3306(15) 0. 0.25 0.06(5) 0.03(2) 0
N1 N3- 12 k 0.3349(6) 0. 0.6214(10) 0.23(3) 0.87(1) 0
O1 O2- 12 k 0.3349(6) 0. 0.6214(10) 0.23(3) 0.13(1) 0
loop_
_atom_site_aniso_label
_atom_site_aniso_type_symbol
_atom_site_aniso_U_11
_atom_site_aniso_U_22
_atom_site_aniso_U_33
_atom_site_aniso_U_12
_atom_site_aniso_U_13
_atom_site_aniso_U_23
Nb1 Nb3+ 0.00079 0.00079 0.00079 0.00039 0. 0.
Li1 Li1+ 0.00079 0.00079 0.00079 0.00039 0. 0.
Nb2 Nb3+ 0.00079 0.00079 0.00079 0.00039 0. 0.
Li2 Li1+ 0.00079 0.00079 0.00079 0.00039 0. 0.
Nb3 Nb3+ 0.00079 0.00079 0.00079 0.00039 0. 0.
Li3 Li1+ 0.00079 0.00079 0.00079 0.00039 0. 0.
N1 N3- 0.00293 0.00293 0.00293 0.00147 0. 0.
O1 O2- 0.00293 0.00293 0.00293 0.00147 0. 0.
#End of TTdata_248841-ICSD