
#(C) 2018 by FIZ Karlsruhe - Leibniz Institute for Information Infrastructure.  All rights reserved.
data_249176-ICSD
_database_code_ICSD 249176
_audit_creation_date 2008-02-01
_chemical_name_systematic 'Strontium manganese(II) lithium dioxide trisulfide'
_chemical_formula_structural 'Sr2 Mn O2 Li3.616 S3'
_chemical_formula_sum 'Li3.616 Mn1 O2 S3 Sr2'
_chemical_name_structure_type YBa2Cu3O7-x(tet)
_exptl_crystal_density_diffrn 3.28
_publ_section_title
'Reversible lithium insertion and copper extrusion in layered oyxsulfides'
loop_
_citation_id
_citation_journal_full
_citation_year
_citation_journal_volume
_citation_page_first
_citation_page_last
_citation_journal_id_ASTM
primary 'Chemical Communications (Cambridge, United Kingdom)' 2006 2006 2869
2871 CHCOFS
loop_
_publ_author_name
'Rutt, O.J.'
'Williams, G.R.'
'Clarke, S.J.'
_cell_length_a 4.05416
_cell_length_b 4.05416
_cell_length_c 11.79624(34)
_cell_angle_alpha 90.
_cell_angle_beta 90.
_cell_angle_gamma 90.
_cell_volume 193.89
_cell_formula_units_Z 1
_symmetry_space_group_name_H-M 'P 4/m m m'
_symmetry_Int_Tables_number 123
loop_
_symmetry_equiv_pos_site_id
_symmetry_equiv_pos_as_xyz
1 'y, x, -z'
2 '-y, -x, -z'
3 '-y, x, -z'
4 'y, -x, -z'
5 '-x, y, -z'
6 'x, -y, -z'
7 'x, y, -z'
8 '-x, -y, -z'
9 '-y, -x, z'
10 'y, x, z'
11 'y, -x, z'
12 '-y, x, z'
13 'x, -y, z'
14 '-x, y, z'
15 '-x, -y, z'
16 'x, y, z'
loop_
_atom_type_symbol
_atom_type_oxidation_number
Mn2+ 2
Sr2+ 2
O2- -2
S2- -2
Li1+ 1
loop_
_atom_site_label
_atom_site_type_symbol
_atom_site_symmetry_multiplicity
_atom_site_Wyckoff_symbol
_atom_site_fract_x
_atom_site_fract_y
_atom_site_fract_z
_atom_site_B_iso_or_equiv
_atom_site_occupancy
_atom_site_attached_hydrogens
Mn1 Mn2+ 1 a 0. 0. 0. 0.01251 1. 0
Sr1 Sr2+ 2 h 0.5 0.5 0.14101(8) 0.00942 1. 0
O1 O2- 2 f 0. 0.5 0. 0.00964 1. 0
S1 S2- 1 d 0.5 0.5 0.5 0.01176 1. 0
S2 S2- 2 g 0. 0. 0.25738(20) 0.0129 1. 0
Li1 Li1+ 4 i 0. 0.5 0.38300(24) 0.02124 0.904(7) 0
loop_
_atom_site_aniso_label
_atom_site_aniso_type_symbol
_atom_site_aniso_U_11
_atom_site_aniso_U_22
_atom_site_aniso_U_33
_atom_site_aniso_U_12
_atom_site_aniso_U_13
_atom_site_aniso_U_23
Mn1 Mn2+ 0.0019(4) 0.0019(4) 0.0338(13) 0. 0. 0.
Sr1 Sr2+ 0.00760(22) 0.00760(22) 0.0131(4) 0. 0. 0.
O1 O2- 0.0112(4) 0.0142(4) 0.0035(5) 0. 0. 0.
S1 S2- 0.0113(7) 0.0113(7) 0.0126(14) 0. 0. 0.
S2 S2- 0.0122(5) 0.0122(5) 0.0142(10) 0. 0. 0.
Li1 Li1+ 0.0104(14) 0.0198(16) 0.0335(16) 0. 0. 0.
#End of TTdata_249176-ICSD