
#(C) 2018 by FIZ Karlsruhe - Leibniz Institute for Information Infrastructure.  All rights reserved.
data_249610-ICSD
_database_code_ICSD 249610
_audit_creation_date 2008-08-01
_chemical_name_systematic 'Tetralithium decauranyl decaoxo octaoxodimolybdate'
_chemical_formula_structural 'Li4 ((U O2)10 O10 (Mo2 O8))'
_chemical_formula_sum 'Li4 Mo2 O38 U10'
_exptl_crystal_density_diffrn 6.66
_cell_measurement_temperature 293.
_publ_section_title

;
One-dimensional array of two- and three - center cation - cation bonds in the
structure of Li4 ((U O2)10 O10 (Mo2 O8))
;
loop_
_citation_id
_citation_journal_full
_citation_year
_citation_journal_volume
_citation_page_first
_citation_page_last
_citation_journal_id_ASTM
primary 'Inorganic Chemistry' 2007 46 8442 8444 INOCAJ
loop_
_publ_author_name
'Alekseev, E.V.'
'Krivovichev, S.V.'
'Malcherek, T.'
'Depmeier, W.'
_cell_length_a 7.9426(4)
_cell_length_b 19.9895(9)
_cell_length_c 10.0796(5)
_cell_angle_alpha 90.
_cell_angle_beta 90.575(2)
_cell_angle_gamma 90.
_cell_volume 1600.24
_cell_formula_units_Z 2
_symmetry_space_group_name_H-M 'P 1 21/c 1'
_symmetry_Int_Tables_number 14
_refine_ls_R_factor_all 0.0429
loop_
_symmetry_equiv_pos_site_id
_symmetry_equiv_pos_as_xyz
1 'x, -y+1/2, z+1/2'
2 '-x, -y, -z'
3 '-x, y+1/2, -z+1/2'
4 'x, y, z'
loop_
_atom_type_symbol
_atom_type_oxidation_number
U6+ 6
Mo6+ 6
O2- -2
Li1+ 1
loop_
_atom_site_label
_atom_site_type_symbol
_atom_site_symmetry_multiplicity
_atom_site_Wyckoff_symbol
_atom_site_fract_x
_atom_site_fract_y
_atom_site_fract_z
_atom_site_B_iso_or_equiv
_atom_site_occupancy
_atom_site_attached_hydrogens
U1 U6+ 4 e 0.22933(11) 0.73601(3) 0.94060(7) 0.0145(2) 1 0
U2 U6+ 4 e -0.02551(11) 0.63888(4) 1.18496(8) 0.0125(2) 1 0
U3 U6+ 4 e 0.48332(11) 0.63627(4) 1.18236(8) 0.0129(2) 1 0
U4 U6+ 4 e 0.72527(11) 0.75313(3) 0.90703(7) 0.0146(2) 1 0
U5 U6+ 2 b 0.5 0.5 0.5 0.0143(3) 1 0
U6 U6+ 2 a 0. 0.5 0.5 0.0147(3) 1 0
Mo1 Mo6+ 4 e -0.2094(3) 0.51016(9) 0.97000(19) 0.0196(4) 1 0
O1 O2- 4 e -0.277(2) 0.5690(8) 1.0963(17) 0.031(4) 1 0
O2 O2- 4 e -0.370(2) 0.4507(8) 0.9605(18) 0.026(4) 1 0
O3 O2- 4 e -0.033(2) 0.4440(7) 0.9619(18) 0.023(4) 1 0
O4 O2- 4 e 0.453(2) 0.5747(8) 1.3182(15) 0.019(3) 1 0
O5 O2- 4 e 0.021(2) 0.5764(8) 1.3197(17) 0.021(4) 1 0
O6 O2- 4 e 0.063(2) 0.5665(9) 0.6191(17) 0.025(4) 1 0
O7 O2- 4 e 0.008(2) 0.7185(8) 1.3275(15) 0.018(3) 1 0
O8 O2- 4 e 0.728(2) 0.8197(7) 1.0268(15) 0.021(3) 1 0
O9 O2- 4 e 0.448(2) 0.7162(8) 1.3322(16) 0.025(4) 1 0
O10 O2- 4 e 0.227(2) 0.6636(7) 1.1328(14) 0.022(3) 1 0
O11 O2- 4 e 0.225(2) 0.6624(7) 0.8357(15) 0.023(3) 1 0
O12 O2- 4 e 0.234(2) 0.8051(7) 1.0536(15) 0.022(3) 1 0
O13 O2- 4 e 0.511(2) 0.6960(8) 1.0340(15) 0.018(3) 1 0
O14 O2- 4 e 0.2519(18) 0.4677(7) 0.4776(14) 0.017(3) 1 0
O15 O2- 4 e 0.446(2) 0.5659(7) 0.6176(17) 0.021(3) 1 0
O16 O2- 4 e -0.269(2) 0.6678(7) 1.2495(15) 0.021(3) 1 0
O17 O2- 4 e -0.222(3) 0.5490(8) 0.8177(15) 0.031(4) 1 0
O18 O2- 4 e -0.060(2) 0.6984(8) 1.0352(17) 0.021(3) 1 0
O19 O2- 4 e 0.720(2) 0.6851(7) 0.7930(15) 0.026(4) 1 0
Li1 Li1+ 4 e 0.255(6) 0.6172(18) 0.673(5) 0.036(11) 1 0
Li2 Li1+ 4 e -0.275(8) 0.606(2) 0.660(5) 0.045(13) 1 0
loop_
_atom_site_aniso_label
_atom_site_aniso_type_symbol
_atom_site_aniso_U_11
_atom_site_aniso_U_22
_atom_site_aniso_U_33
_atom_site_aniso_U_12
_atom_site_aniso_U_13
_atom_site_aniso_U_23
U1 U6+ 0.0214(4) 0.0096(3) 0.0125(3) 0.0008(3) 0.0022(3) 0.0007(2)
U2 U6+ 0.0194(4) 0.0072(3) 0.0108(4) 0.0002(3) 0.0024(3) 0.0000(3)
U3 U6+ 0.0197(4) 0.0078(4) 0.0112(4) 0.0004(3) 0.0015(3) 0.0010(3)
U4 U6+ 0.0225(4) 0.0086(3) 0.0128(3) 0.0002(3) 0.0020(3) 0.0006(2)
U5 U6+ 0.0209(5) 0.0092(5) 0.0128(5) 0.0003(4) 0.0015(5) 0.0016(4)
U6 U6+ 0.0215(5) 0.0086(5) 0.0139(5) -0.0003(4) 0.0011(5) 0.0019(4)
Mo1 Mo6+ 0.0321(10) 0.0108(8) 0.0156(8) 0.0048(8) -0.0041(8) -0.0063(6)
O1 O2- 0.040(10) 0.026(8) 0.028(9) -0.009(8) 0.000(9) -0.007(7)
O2 O2- 0.032(9) 0.017(8) 0.030(9) -0.002(7) 0.002(8) -0.010(7)
O3 O2- 0.040(10) 0.001(6) 0.027(9) 0.000(6) -0.005(8) 0.003(6)
O4 O2- 0.032(9) 0.012(7) 0.014(8) 0.003(6) 0.005(6) 0.002(6)
O5 O2- 0.021(8) 0.023(8) 0.021(9) -0.003(7) -0.003(6) 0.008(7)
O6 O2- 0.028(8) 0.027(9) 0.019(9) 0.003(7) 0.000(7) -0.004(7)
O7 O2- 0.021(7) 0.020(8) 0.013(8) -0.002(7) -0.003(6) -0.002(6)
O8 O2- 0.025(8) 0.012(7) 0.027(8) 0.006(6) 0.010(7) -0.006(6)
O9 O2- 0.039(10) 0.016(8) 0.019(9) 0.007(7) -0.009(7) -0.005(7)
O10 O2- 0.033(9) 0.017(7) 0.017(7) -0.001(7) 0.005(7) 0.001(6)
O11 O2- 0.027(9) 0.017(7) 0.025(8) 0.001(7) 0.007(7) -0.002(6)
O12 O2- 0.027(9) 0.016(7) 0.024(8) 0.003(7) -0.001(7) 0.000(6)
O13 O2- 0.030(8) 0.016(7) 0.008(7) -0.005(6) 0.000(6) -0.003(6)
O14 O2- 0.016(7) 0.011(6) 0.023(7) 0.000(6) -0.001(6) 0.001(5)
O15 O2- 0.034(9) 0.009(7) 0.020(9) 0.001(6) 0.004(7) -0.007(6)
O16 O2- 0.019(7) 0.019(7) 0.026(8) 0.002(6) 0.006(7) -0.009(6)
O17 O2- 0.053(11) 0.019(7) 0.021(8) 0.004(8) -0.009(9) 0.001(6)
O18 O2- 0.022(8) 0.018(8) 0.022(9) -0.002(6) 0.003(7) 0.011(7)
O19 O2- 0.044(10) 0.019(7) 0.016(7) 0.018(8) 0.004(8) -0.003(6)
Li1 Li1+ 0.03(2) 0.008(16) 0.07(3) 0.012(17) -0.01(2) -0.004(17)
Li2 Li1+ 0.08(4) 0.03(2) 0.03(2) -0.02(3) -0.01(3) 0.016(18)
#End of TTdata_249610-ICSD