
#(C) 2018 by FIZ Karlsruhe - Leibniz Institute for Information Infrastructure.  All rights reserved.
data_251419-ICSD
_database_code_ICSD 251419
_audit_creation_date 2015-08-01
_chemical_name_systematic 'Lithium tetracyanoethylene'
_chemical_formula_structural 'Li C2 (C N)4'
_chemical_formula_sum 'C6 Li1 N4'
_exptl_crystal_density_diffrn 1.34
_cell_measurement_temperature 50.
_publ_section_title

;
Weak ferromagnetic ordering of the Li+[TCNE] circle - (TCNE =
tetracyanoethylene) organic magnet with an interpenetrating diamondoid
structure
;
loop_
_citation_id
_citation_journal_full
_citation_year
_citation_journal_volume
_citation_page_first
_citation_page_last
_citation_journal_id_ASTM
primary 'Journal of the American Chemical Society' 2013 135 18060 18063 JACSAT
loop_
_publ_author_name
'Her, Jae-Hyuk'
'Stephens, Peter W.'
'Davidson, Royce A.'
'Min, Kil Sik'
'Bagnato, Joshua D.'
'van Schooten, Kipp'
'Boehme, Christoph'
'Miller, Joel S.'
_cell_length_a 5.43311(50)
_cell_length_b 5.40704(62)
_cell_length_c 11.91853(83)
_cell_angle_alpha 90
_cell_angle_beta 107.5467(44)
_cell_angle_gamma 90
_cell_volume 333.83
_cell_formula_units_Z 2
_symmetry_space_group_name_H-M 'P 1 2/c 1'
_symmetry_Int_Tables_number 13
loop_
_symmetry_equiv_pos_site_id
_symmetry_equiv_pos_as_xyz
1 'x, -y, z+1/2'
2 '-x, -y, -z'
3 '-x, y, -z+1/2'
4 'x, y, z'
loop_
_atom_type_symbol
_atom_type_oxidation_number
Li1+ 1
N3- -3
C1+ 1.833
loop_
_atom_site_label
_atom_site_type_symbol
_atom_site_symmetry_multiplicity
_atom_site_Wyckoff_symbol
_atom_site_fract_x
_atom_site_fract_y
_atom_site_fract_z
_atom_site_B_iso_or_equiv
_atom_site_occupancy
_atom_site_attached_hydrogens
Li1 Li1+ 2 f 0.5 0.3037(38) 0.75 1 1 0
N1 N3- 4 g -0.23656(65) -0.43156(46) -0.14349(31) 1 1 0
N2 N3- 4 g 0.34084(35) 0.13652(56) -0.14307(22) 1 1 0
C1 C1+ 4 g -0.11875(36) -0.27151(27) -0.11158(24) 1 1 0
C2 C1+ 4 g 0.19862(29) 0.03414(65) -0.11611(41) 1 1 0
C3 C1+ 4 g 0.02068(14) -0.04984(20) -0.050581(97) 1 1 0
#End of TTdata_251419-ICSD