
#(C) 2018 by FIZ Karlsruhe - Leibniz Institute for Information Infrastructure.  All rights reserved.
data_251501-ICSD
_database_code_ICSD 251501
_audit_creation_date 2015-08-01
_chemical_name_systematic 'Lithium calcium arsenide hydride (1/3/2/1)'
_chemical_formula_structural 'Li Ca3 As2 H'
_chemical_formula_sum 'H1 As2 Ca3 Li1'
_exptl_crystal_density_diffrn 3.19
_cell_measurement_temperature 173.
_publ_section_title

;
LiCa3As2H and Ca14As6X7 (X = C, H, N): two new arsenide hydride phases grown
from Ca/Li metal flux
;
loop_
_citation_id
_citation_journal_full
_citation_year
_citation_journal_volume
_citation_page_first
_citation_page_last
_citation_journal_id_ASTM
primary 'Inorganic Chemistry' 2014 53 10620 10626 INOCAJ
loop_
_publ_author_name
'Blankenship, Trevor V.'
'Wang, Xiaoping'
'Hoffmann, Christina'
'Latturner, Susan E.'
_cell_length_a 11.4064(7)
_cell_length_b 4.2702(3)
_cell_length_c 11.8762(8)
_cell_angle_alpha 90.
_cell_angle_beta 90.
_cell_angle_gamma 90.
_cell_volume 578.46
_cell_formula_units_Z 4
_symmetry_space_group_name_H-M 'P n m a'
_symmetry_Int_Tables_number 62
_refine_ls_R_factor_all 0.0135
loop_
_symmetry_equiv_pos_site_id
_symmetry_equiv_pos_as_xyz
1 'x+1/2, y, -z+1/2'
2 'x, -y+1/2, z'
3 '-x+1/2, y+1/2, z+1/2'
4 '-x, -y, -z'
5 '-x+1/2, -y, z+1/2'
6 '-x, y+1/2, -z'
7 'x+1/2, -y+1/2, -z+1/2'
8 'x, y, z'
loop_
_atom_type_symbol
_atom_type_oxidation_number
As3- -3
Ca2+ 2
Li1+ 1
H1- -1
loop_
_atom_site_label
_atom_site_type_symbol
_atom_site_symmetry_multiplicity
_atom_site_Wyckoff_symbol
_atom_site_fract_x
_atom_site_fract_y
_atom_site_fract_z
_atom_site_B_iso_or_equiv
_atom_site_occupancy
_atom_site_attached_hydrogens
As1 As3- 4 c 0.48147(2) 0.25 0.675936(19) 0.00430(9) 1 0
As2 As3- 4 c 0.31648(2) 0.25 0.01374(2) 0.00603(9) 1 0
Ca1 Ca2+ 4 c 0.05960(4) 0.25 0.37690(4) 0.00677(12) 1 0
Ca2 Ca2+ 4 c 0.36616(4) 0.25 0.43913(4) 0.00556(12) 1 0
Ca3 Ca2+ 4 c 0.20972(4) 0.25 0.70389(4) 0.00701(12) 1 0
Li1 Li1+ 4 c 0.1317(4) 0.25 0.1380(4) 0.0145(9) 1 0
H1 H1- 4 c 0.235(3) 0.25 0.281(3) 0.017(8) 1 0
loop_
_atom_site_aniso_label
_atom_site_aniso_type_symbol
_atom_site_aniso_U_11
_atom_site_aniso_U_22
_atom_site_aniso_U_33
_atom_site_aniso_U_12
_atom_site_aniso_U_13
_atom_site_aniso_U_23
As1 As3- 0.00263(13) 0.00514(13) 0.00511(13) 0. -0.00034(8) 0.
As2 As3- 0.00454(14) 0.00698(13) 0.00657(14) 0. 0.00091(9) 0.
Ca1 Ca2+ 0.0039(2) 0.0082(2) 0.0082(2) 0. 0.00021(17) 0.
Ca2 Ca2+ 0.0046(2) 0.0075(2) 0.0046(2) 0. -0.00020(17) 0.
Ca3 Ca2+ 0.0049(2) 0.0072(2) 0.0090(2) 0. 0.00312(18) 0.
Li1 Li1+ 0.011(2) 0.014(2) 0.018(2) 0. 0.0023(18) 0.
#End of TTdata_251501-ICSD