
#(C) 2018 by FIZ Karlsruhe - Leibniz Institute for Information Infrastructure.  All rights reserved.
data_251594-ICSD
_database_code_ICSD 251594
_audit_creation_date 2015-08-01
_chemical_name_systematic 'hexalithium rubidium fluoro-hexaoxo-diborate'
_chemical_formula_structural 'Li6 Rb B2 O6 F'
_chemical_formula_sum 'B2 F1 Li6 O6 Rb1'
_exptl_crystal_density_diffrn 2.57
_cell_measurement_temperature 296.
_publ_section_title

;
Borate fluoride and fluoroborate in alkali-metal borate prepared by an open
high-temperature solution method
;
loop_
_citation_id
_citation_journal_full
_citation_year
_citation_journal_volume
_citation_page_first
_citation_page_last
_citation_journal_id_ASTM
primary 'Inorganic Chemistry' 2014 53 12686 12688 INOCAJ
loop_
_publ_author_name
'Wu, Hongping'
'Yu, Hongwei'
'Bian, Qiang'
'Yang, Zhihua'
'Han, Shujuan'
'Pan, Shilie'
_cell_length_a 8.414(13)
_cell_length_b 15.96(2)
_cell_length_c 5.081(8)
_cell_angle_alpha 90.
_cell_angle_beta 90.
_cell_angle_gamma 90.
_cell_volume 682.31
_cell_formula_units_Z 4
_symmetry_space_group_name_H-M 'P n m a'
_symmetry_Int_Tables_number 62
_refine_ls_R_factor_all 0.0433
loop_
_symmetry_equiv_pos_site_id
_symmetry_equiv_pos_as_xyz
1 'x+1/2, y, -z+1/2'
2 'x, -y+1/2, z'
3 '-x+1/2, y+1/2, z+1/2'
4 '-x, -y, -z'
5 '-x+1/2, -y, z+1/2'
6 '-x, y+1/2, -z'
7 'x+1/2, -y+1/2, -z+1/2'
8 'x, y, z'
loop_
_atom_type_symbol
_atom_type_oxidation_number
Rb1+ 1
Li1+ 1
B3+ 3
F1- -1
O2- -2
loop_
_atom_site_label
_atom_site_type_symbol
_atom_site_symmetry_multiplicity
_atom_site_Wyckoff_symbol
_atom_site_fract_x
_atom_site_fract_y
_atom_site_fract_z
_atom_site_B_iso_or_equiv
_atom_site_occupancy
_atom_site_attached_hydrogens
Rb1 Rb1+ 4 c 0.87603(10) 0.75 0.11848(19) 0.0275(3) 1 0
Li1 Li1+ 8 d 0.7121(10) 0.6394(5) -0.3790(17) 0.0136(19) 1 0
Li2 Li1+ 8 d 0.9283(10) 0.5581(6) -0.1372(18) 0.0126(18) 1 0
Li3 Li1+ 8 d 0.8011(11) 0.5374(5) 0.2953(18) 0.0123(18) 1 0
B1 B3+ 8 d 1.0700(7) 0.5876(3) 0.4058(12) 0.0072(11) 1 0
F1 F1- 4 c 1.1802(6) 0.75 -0.0906(10) 0.0227(11) 1 0
O1 O2- 8 d 1.0753(4) 0.5720(2) 0.1404(7) 0.0091(8) 1 0
O2 O2- 8 d 0.9301(4) 0.6064(2) 0.5244(7) 0.0101(8) 1 0
O3 O2- 8 d 0.7089(4) 0.5777(2) -0.0481(6) 0.0080(8) 1 0
loop_
_atom_site_aniso_label
_atom_site_aniso_type_symbol
_atom_site_aniso_U_11
_atom_site_aniso_U_22
_atom_site_aniso_U_33
_atom_site_aniso_U_12
_atom_site_aniso_U_13
_atom_site_aniso_U_23
Rb1 Rb1+ 0.0238(5) 0.0225(5) 0.0361(6) 0. 0.0023(4) 0.
Li1 Li1+ 0.014(5) 0.012(4) 0.015(5) 0.001(3) -0.007(4) 0.003(4)
Li2 Li1+ 0.005(4) 0.022(5) 0.010(5) 0.000(3) 0.000(4) 0.001(4)
Li3 Li1+ 0.012(5) 0.013(4) 0.012(4) 0.006(4) -0.001(4) -0.005(4)
B1 B3+ 0.006(3) 0.006(2) 0.010(3) -0.004(2) 0.002(2) 0.000(2)
F1 F1- 0.018(2) 0.009(2) 0.041(3) 0. -0.002(2) 0.
O1 O2- 0.0093(17) 0.0116(17) 0.0064(19) 0.0004(14) -0.0006(14) 0.0003(15)
O2 O2- 0.0064(17) 0.0156(19) 0.0082(19) 0.0032(14) 0.0017(14) 0.0020(15)
O3 O2- 0.0062(18) 0.0138(19) 0.0042(19) 0.0017(14) 0.0031(13) 0.0013(14)
#End of TTdata_251594-ICSD