
#(C) 2018 by FIZ Karlsruhe - Leibniz Institute for Information Infrastructure.  All rights reserved.
data_251799-ICSD
_database_code_ICSD 251799
_audit_creation_date 2016-02-01
_chemical_name_systematic
'Lithium-3.18 managanese(II/III)-1.82 docosaoxo-hexauranate(VI)'
_chemical_formula_structural '(Li3.18 Mn1.82) U6 O22'
_chemical_formula_sum 'Li3.18 Mn1.82 O22 U6'
_chemical_name_structure_type Co6C(CO)12S2
_exptl_crystal_density_diffrn 7.27
_cell_measurement_temperature 296.
_publ_section_title

;
A2 Mn U3 O11 (A = K, Rb) and Li3.2 Mn1.8 U6 O22: three new alkali-metal
manganese uranium(VI) oxides related to natrotantite
;
loop_
_citation_id
_citation_journal_full
_citation_year
_citation_journal_volume
_citation_page_first
_citation_page_last
_citation_journal_id_ASTM
primary 'Inorganic Chemistry' 2015 54 6993 6999 INOCAJ
loop_
_publ_author_name
'Read, Cory Michael'
'Morrison, Gregory'
'Yeon, Jeongho'
'Smith, Mark D.'
'zur Loye, Hans-Conrad'
_cell_length_a 11.8958(8)
_cell_length_b 10.9639(7)
_cell_length_c 13.3269(8)
_cell_angle_alpha 90
_cell_angle_beta 91.442(2)
_cell_angle_gamma 90
_cell_volume 1737.6
_cell_formula_units_Z 4
_symmetry_space_group_name_H-M 'C 1 c 1'
_symmetry_Int_Tables_number 9
_refine_ls_R_factor_all 0.0473
loop_
_symmetry_equiv_pos_site_id
_symmetry_equiv_pos_as_xyz
1 'x, -y, z+1/2'
2 'x, y, z'
3 'x+1/2, -y+1/2, z+1/2'
4 'x+1/2, y+1/2, z'
loop_
_atom_type_symbol
_atom_type_oxidation_number
U6+ 6
Mn2+ 2.65
Li1+ 1
Mn2+ 2.65
Li1+ 1
Mn2+ 2.65
Li1+ 1
Mn2+ 2.65
Li1+ 1
O2- -2
loop_
_atom_site_label
_atom_site_type_symbol
_atom_site_symmetry_multiplicity
_atom_site_Wyckoff_symbol
_atom_site_fract_x
_atom_site_fract_y
_atom_site_fract_z
_atom_site_B_iso_or_equiv
_atom_site_occupancy
_atom_site_attached_hydrogens
U1 U6+ 4 a 0.21134(8) 0.50520(10) 0.34235(9) 0.00885(19) 1 0
U2 U6+ 4 a 0.52769(7) 0.45821(9) 0.32121(8) 0.0093(2) 1 0
U3 U6+ 4 a 0.86973(10) 0.50018(12) 0.32969(10) 0.0102(2) 1 0
U4 U6+ 4 a 0.03082(6) 0.52899(9) 0.06626(7) 0.0086(2) 1 0
U5 U6+ 4 a 0.36768(10) 0.52536(9) 0.08351(11) 0.01053(18) 1 0
U6 U6+ 4 a 0.70857(8) 0.55342(7) 0.09180(8) 0.0090(2) 1 0
Mn1 Mn2+ 4 a 0.0451(6) 0.2472(5) 0.2193(6) 0.017(2) 0.61(2) 0
Li1 Li1+ 4 a 0.0451(6) 0.2472(5) 0.2193(6) 0.017(2) 0.39(2) 0
Mn2 Mn2+ 4 a 0.364(3) 0.265(3) 0.209(4) 0.031(10) 0.077(18) 0
Li2 Li1+ 4 a 0.364(3) 0.265(3) 0.209(4) 0.031(10) 0.923(18) 0
Mn3 Mn2+ 4 a 0.6925(5) 0.2581(4) 0.1983(5) 0.0246(17) 0.92(2) 0
Li3 Li1+ 4 a 0.6925(5) 0.2581(4) 0.1983(5) 0.0246(17) 0.08(2) 0
Mn4 Mn2+ 4 a 0.9079(11) 0.2387(13) 0.4334(12) 0.017(4) 0.215(18) 0
Li4 Li1+ 4 a 0.9079(11) 0.2387(13) 0.4334(12) 0.017(4) 0.785(18) 0
Li5 Li1+ 4 a 0.172(4) 0.214(4) 0.435(4) 0.017(9) 1 0
O1 O2- 4 a 0.1648(14) 0.3414(16) 0.3239(14) 0.014(3) 1 0
O2 O2- 4 a 0.2553(14) 0.6685(17) 0.3569(15) 0.017(4) 1 0
O3 O2- 4 a 0.3513(16) 0.4623(17) 0.2360(17) 0.016(4) 1 0
O4 O2- 4 a 0.3812(17) 0.4387(18) 0.4226(18) 0.019(4) 1 0
O5 O2- 4 a 0.2029(14) 0.5060(17) 0.5131(15) 0.013(3) 1 0
O6 O2- 4 a 0.0330(16) 0.5461(16) 0.4016(16) 0.011(3) 1 0
O7 O2- 4 a 0.1349(14) 0.5654(16) 0.2019(16) 0.017(4) 1 0
O8 O2- 4 a 0.5234(14) 0.3000(16) 0.2727(15) 0.013(3) 1 0
O9 O2- 4 a 0.5387(16) 0.6230(15) 0.3621(15) 0.012(3) 1 0
O10 O2- 4 a 0.5345(15) 0.5599(16) 0.1616(16) 0.012(4) 1 0
O11 O2- 4 a 0.7056(18) 0.4521(17) 0.2591(18) 0.017(4) 1 0
O12 O2- 4 a 0.6114(19) 0.3935(15) 0.458(2) 0.021(4) 1 0
O13 O2- 4 a 0.9230(17) 0.3427(18) 0.2954(18) 0.018(4) 1 0
O14 O2- 4 a 0.8130(16) 0.6540(17) 0.3648(16) 0.016(4) 1 0
O15 O2- 4 a 0.8866(16) 0.5638(15) 0.1754(17) 0.012(4) 1 0
O16 O2- 4 a 0.8521(17) 0.4310(16) 0.4825(18) 0.013(4) 1 0
O17 O2- 4 a 0.0141(15) 0.3607(18) 0.0947(16) 0.019(4) 1 0
O18 O2- 4 a 0.0561(13) 0.6872(15) 0.0253(14) 0.012(3) 1 0
O19 O2- 4 a 0.4011(14) 0.3585(17) 0.0610(15) 0.017(4) 1 0
O20 O2- 4 a 0.3306(14) 0.6859(16) 0.1138(15) 0.015(4) 1 0
O21 O2- 4 a 0.6982(19) 0.3921(18) 0.0591(17) 0.020(4) 1 0
O22 O2- 4 a 0.7098(14) 0.7179(16) 0.1300(15) 0.014(4) 1 0
loop_
_atom_site_aniso_label
_atom_site_aniso_type_symbol
_atom_site_aniso_U_11
_atom_site_aniso_U_22
_atom_site_aniso_U_33
_atom_site_aniso_U_12
_atom_site_aniso_U_13
_atom_site_aniso_U_23
U1 U6+ 0.0091(4) 0.0101(5) 0.0073(5) -0.0002(3) -0.0002(3) 0.0001(4)
U2 U6+ 0.0089(4) 0.0103(3) 0.0086(6) 0.0000(3) 0.0004(3) -0.0004(3)
U3 U6+ 0.0083(3) 0.0115(5) 0.0106(5) 0.0009(3) -0.0009(3) 0.0004(3)
U4 U6+ 0.0079(4) 0.0095(4) 0.0084(6) -0.0003(3) -0.0003(4) 0.0001(4)
U5 U6+ 0.0109(3) 0.0116(4) 0.0090(5) 0.0016(4) -0.0017(3) 0.0001(4)
U6 U6+ 0.0092(4) 0.0099(4) 0.0077(5) -0.0001(3) -0.0010(3) 0.0003(4)
Mn1 Mn2+ 0.020(4) 0.014(3) 0.016(4) 0.002(2) 0.003(3) 0.004(3)
Li1 Li1+ 0.020(4) 0.014(3) 0.016(4) 0.002(2) 0.003(3) 0.004(3)
Mn2 Mn2+ 0.035(16) 0.017(13) 0.04(2) -0.007(11) -0.010(12) -0.003(13)
Li2 Li1+ 0.035(16) 0.017(13) 0.04(2) -0.007(11) -0.010(12) -0.003(13)
Mn3 Mn2+ 0.031(3) 0.016(2) 0.027(4) 0.0037(18) 0.010(2) 0.000(2)
Li3 Li1+ 0.031(3) 0.016(2) 0.027(4) 0.0037(18) 0.010(2) 0.000(2)
Mn4 Mn2+ 0.019(7) 0.015(7) 0.016(9) -0.003(5) -0.005(5) -0.003(5)
Li4 Li1+ 0.019(7) 0.015(7) 0.016(9) -0.003(5) -0.005(5) -0.003(5)
#End of TTdata_251799-ICSD