
#(C) 2018 by FIZ Karlsruhe - Leibniz Institute for Information Infrastructure.  All rights reserved.
data_252215-ICSD
_database_code_ICSD 252215
_audit_creation_date 2016-08-01
_chemical_name_systematic 'Trilithium pentaoxo-alumosilicate'
_chemical_formula_structural 'Li3 Al Si O5'
_chemical_formula_sum 'Al1 Li3 O5 Si1'
_chemical_name_structure_type AlFeO3
_exptl_crystal_density_diffrn 2.61
_cell_measurement_temperature 296.
_publ_section_title

;
Li3AlSiO5: the first aluminosilicate as a potential deep-ultraviolet nonlinear
optical crystal with the quaternary diamond-like structure
;
loop_
_citation_id
_citation_journal_full
_citation_year
_citation_journal_volume
_citation_page_first
_citation_page_last
_citation_journal_id_ASTM
primary 'Physical Chemistry Chemical Physics' 2016 18 4362 4369 PPCPFQ
loop_
_publ_author_name
'Chen, Xinglong'
'Zhang, Fangfang'
'Liu, Lili'
'Lei, Bing-Hua'
'Dong, Xiaoyu'
'Yang, Zhihua'
'Li, Hongyi'
'Pan, Shilie'
_cell_length_a 5.331(3)
_cell_length_b 15.551(9)
_cell_length_c 4.782(3)
_cell_angle_alpha 90.
_cell_angle_beta 90.
_cell_angle_gamma 90.
_cell_volume 396.43
_cell_formula_units_Z 4
_symmetry_space_group_name_H-M 'P n a 21'
_symmetry_Int_Tables_number 33
_refine_ls_R_factor_all 0.0287
loop_
_symmetry_equiv_pos_site_id
_symmetry_equiv_pos_as_xyz
1 'x+1/2, -y+1/2, z'
2 '-x+1/2, y+1/2, z+1/2'
3 '-x, -y, z+1/2'
4 'x, y, z'
loop_
_atom_type_symbol
_atom_type_oxidation_number
Al3+ 3
Li1+ 1
Si4+ 4
O2- -2
loop_
_atom_site_label
_atom_site_type_symbol
_atom_site_symmetry_multiplicity
_atom_site_Wyckoff_symbol
_atom_site_fract_x
_atom_site_fract_y
_atom_site_fract_z
_atom_site_B_iso_or_equiv
_atom_site_occupancy
_atom_site_attached_hydrogens
Al1 Al3+ 4 a 0.32838(11) 0.79983(4) 0.3979(3) 0.0067(2) 1 0
Li1 Li1+ 4 a -0.3280(7) 0.8031(3) 0.897(3) 0.0130(8) 1 0
Li2 Li1+ 4 a 0.6650(6) 0.9960(2) 0.894(3) 0.0087(8) 1 0
Li3 Li1+ 4 a 0.1702(7) 1.0956(3) 0.896(2) 0.0139(9) 1 0
Si1 Si4+ 4 a 0.16679(12) 0.90153(4) 0.8945(2) 0.00610(19) 1 0
O1 O2- 4 a 0.3120(3) 0.98639(12) 0.7990(3) 0.0091(4) 1 0
O2 O2- 4 a -0.1217(4) 0.89785(10) 0.8034(4) 0.0100(4) 1 0
O3 O2- 4 a 0.3109(3) 0.81460(12) 0.7656(3) 0.0096(4) 1 0
O4 O2- 4 a 0.1924(4) 0.89044(11) 1.2384(4) 0.0090(5) 1 0
O5 O2- 4 a 0.1454(3) 0.71015(11) 0.3097(3) 0.0092(5) 1 0
loop_
_atom_site_aniso_label
_atom_site_aniso_type_symbol
_atom_site_aniso_U_11
_atom_site_aniso_U_22
_atom_site_aniso_U_33
_atom_site_aniso_U_12
_atom_site_aniso_U_13
_atom_site_aniso_U_23
Al1 Al3+ 0.0068(3) 0.0074(4) 0.0060(4) 0.0004(2) -0.0001(4) -0.0003(4)
Si1 Si4+ 0.0061(3) 0.0070(3) 0.0053(3) 0.0005(2) 0.0003(3) 0.0008(4)
O1 O2- 0.0091(9) 0.0089(9) 0.0093(10) -0.0019(6) 0.0013(8) 0.0006(8)
O2 O2- 0.0072(9) 0.0118(10) 0.0110(10) -0.0001(6) -0.0008(9) 0.0008(10)
O3 O2- 0.0093(9) 0.0111(9) 0.0083(9) 0.0016(7) 0.0008(7) -0.0006(9)
O4 O2- 0.0101(10) 0.0086(9) 0.0083(13) 0.0017(7) 0.0011(7) -0.0006(8)
O5 O2- 0.0079(9) 0.0107(9) 0.0089(11) 0.0004(6) 0.0000(7) -0.0001(8)
#End of TTdata_252215-ICSD