
#(C) 2018 by FIZ Karlsruhe - Leibniz Institute for Information Infrastructure.  All rights reserved.
data_252578-ICSD
_database_code_ICSD 252578
_audit_creation_date 2016-08-01
_chemical_name_systematic
'nonalithium barium heptaicosoxo-pentadecaborate carbonate'
_chemical_formula_structural 'Li9 Ba B15 O27 (C O3)'
_chemical_formula_sum 'C1 B15 Ba1 Li9 O30'
_exptl_crystal_density_diffrn 2.75
_cell_measurement_temperature 298.
_publ_section_title

;
Hydrothermal synthesis and structural analysis of new mixed oxyanion borates:
Ba11 B26 O44 (PO4)2 (OH)6, Li9 Ba B15 O27 (CO3) and Ba3 Si2 B6 O16
;
loop_
_citation_id
_citation_journal_full
_citation_year
_citation_journal_volume
_citation_page_first
_citation_page_last
_citation_journal_id_ASTM
primary 'Journal of Solid State Chemistry' 2013 203 166 173 JSSCBI
loop_
_publ_author_name
'Heyward, Carla'
'McMillen, Colin D.'
'Kolis, Joseph'
_cell_length_a 8.8599(13)
_cell_length_b 8.8599(13)
_cell_length_c 15.148(3)
_cell_angle_alpha 90.
_cell_angle_beta 90.
_cell_angle_gamma 120.
_cell_volume 1029.77
_cell_formula_units_Z 2
_symmetry_space_group_name_H-M 'P -3 1 c'
_symmetry_Int_Tables_number 163
_refine_ls_R_factor_all 0.0209
loop_
_symmetry_equiv_pos_site_id
_symmetry_equiv_pos_as_xyz
1 '-x+y, y, -z+1/2'
2 'x, x-y, -z+1/2'
3 '-y, -x, -z+1/2'
4 'x-y, x, -z'
5 'y, -x+y, -z'
6 '-x, -y, -z'
7 'x-y, -y, z+1/2'
8 '-x, -x+y, z+1/2'
9 'y, x, z+1/2'
10 '-x+y, -x, z'
11 '-y, x-y, z'
12 'x, y, z'
loop_
_atom_type_symbol
_atom_type_oxidation_number
Ba2+ 2
B3+ 3
C4+ 4
O2- -2
B3+ 3
Li1+ 1
O2- -2
B3+ 3
Li1+ 1
loop_
_atom_site_label
_atom_site_type_symbol
_atom_site_symmetry_multiplicity
_atom_site_Wyckoff_symbol
_atom_site_fract_x
_atom_site_fract_y
_atom_site_fract_z
_atom_site_B_iso_or_equiv
_atom_site_occupancy
_atom_site_attached_hydrogens
Ba1 Ba2+ 2 d 0.6667 0.3333 0.25 0.01992(18) 1 0
B1 B3+ 6 h 1.1416(4) 0.5708(2) 0.25 0.0069(6) 1 0
C1 C4+ 2 a 0. 0. 0.25 0.0110(9) 1 0
O1 O2- 6 h 0.1686(3) 0.08430(17) 0.25 0.0270(6) 1 0
O2 O2- 6 h 1.24101(12) 0.75899(12) 0.25 0.0096(4) 1 0
O3 O2- 12 i 0.7078(2) 0.15232(19) 0.07154(9) 0.0122(3) 1 0
O4 O2- 12 i 1.15800(19) 0.7090(2) 0.06333(9) 0.0122(3) 1 0
O5 O2- 12 i 1.00949(18) 0.49752(18) 0.17468(9) 0.0103(3) 1 0
B2 B3+ 12 i 1.0069(3) 0.5878(3) 0.10211(15) 0.0104(4) 1 0
Li1 Li1+ 12 i 0.2388(5) -0.0546(6) 0.1671(2) 0.0228(8) 1 0
O6 O2- 12 i 0.22168(19) -0.00236(19) 0.04464(9) 0.0115(3) 1 0
B3 B3+ 12 i 0.3310(3) 0.1652(3) 0.00321(15) 0.0101(5) 1 0
Li2 Li1+ 2 b 0. 0. 0. 0.0171(18) 1 0
Li3 Li1+ 4 f 1.3333 0.6667 0.0040(5) 0.0164(13) 1 0
loop_
_atom_site_aniso_label
_atom_site_aniso_type_symbol
_atom_site_aniso_U_11
_atom_site_aniso_U_22
_atom_site_aniso_U_33
_atom_site_aniso_U_12
_atom_site_aniso_U_13
_atom_site_aniso_U_23
Ba1 Ba2+ 0.01491(18) 0.01491(18) 0.0300(2) 0.00745(9) 0. 0.
B1 B3+ 0.0069(13) 0.0072(10) 0.0066(13) 0.0034(6) 0. 0.0003(9)
C1 C4+ 0.0131(14) 0.0131(14) 0.0068(19) 0.0066(7) 0. 0.
O1 O2- 0.0213(13) 0.0282(10) 0.0292(13) 0.0106(6) 0. -0.0114(9)
O2 O2- 0.0080(7) 0.0080(7) 0.0133(9) 0.0043(8) -0.0004(6) -0.0004(6)
O3 O2- 0.0138(7) 0.0096(7) 0.0128(7) 0.0056(6) 0.0035(6) 0.0005(5)
O4 O2- 0.0098(7) 0.0149(7) 0.0123(7) 0.0063(6) 0.0013(6) 0.0038(6)
O5 O2- 0.0096(7) 0.0102(7) 0.0094(7) 0.0036(6) -0.0015(5) 0.0006(5)
B2 B3+ 0.0115(10) 0.0082(10) 0.0119(9) 0.0053(9) -0.0005(8) -0.0016(8)
Li1 Li1+ 0.021(2) 0.032(2) 0.0173(18) 0.0138(18) -0.0024(15) 0.0018(16)
O6 O2- 0.0123(7) 0.0108(7) 0.0110(6) 0.0054(6) 0.0012(5) -0.0004(5)
B3 B3+ 0.0099(10) 0.0098(10) 0.0104(10) 0.0048(8) 0.0008(8) -0.0013(8)
Li2 Li1+ 0.013(3) 0.013(3) 0.025(4) 0.0067(13) 0. 0.
Li3 Li1+ 0.014(2) 0.014(2) 0.021(3) 0.0070(10) 0. 0.
#End of TTdata_252578-ICSD