
#(C) 2018 by FIZ Karlsruhe - Leibniz Institute for Information Infrastructure.  All rights reserved.
data_253897-ICSD
_database_code_ICSD 253897
_audit_creation_date 2018-02-01
_chemical_name_systematic 'Trilithium heptaphosphido-trisilicate'
_chemical_formula_structural 'Li3 Si3 P7'
_chemical_formula_sum 'Li3 P7 Si3'
_exptl_crystal_density_diffrn 2.25
_cell_measurement_temperature 298.
_publ_section_title

;
Synthesis and characterization of the lithium-rich phosphidosilicates
Li10Si2P6 and Li3Si3P7
;
loop_
_citation_id
_citation_journal_full
_citation_year
_citation_journal_volume
_citation_page_first
_citation_page_last
_citation_journal_id_ASTM
primary 'Inorganic Chemistry' 2017 56 6688 6694 INOCAJ
loop_
_publ_author_name
'Eickhoff, Henrik'
'Toffoletti, Lorenzo'
'Klein, Wilhelm'
'Raudaschl-Sieber, Gabriele'
'Faessler, Thomas F.'
_cell_length_a 6.3402(2)
_cell_length_b 7.2282(2)
_cell_length_c 10.6280(3)
_cell_angle_alpha 90
_cell_angle_beta 102.825(3)
_cell_angle_gamma 90
_cell_volume 474.91
_cell_formula_units_Z 2
_symmetry_space_group_name_H-M 'P 1 21/m 1'
_symmetry_Int_Tables_number 11
_refine_ls_R_factor_all 0.0296
loop_
_symmetry_equiv_pos_site_id
_symmetry_equiv_pos_as_xyz
1 'x, -y+1/2, z'
2 '-x, -y, -z'
3 '-x, y+1/2, -z'
4 'x, y, z'
loop_
_atom_type_symbol
_atom_type_oxidation_number
Li1+ 1
Si4+ 4
P2- -2.143
loop_
_atom_site_label
_atom_site_type_symbol
_atom_site_symmetry_multiplicity
_atom_site_Wyckoff_symbol
_atom_site_fract_x
_atom_site_fract_y
_atom_site_fract_z
_atom_site_B_iso_or_equiv
_atom_site_occupancy
_atom_site_attached_hydrogens
Li1 Li1+ 2 e 0.6548(9) 0.25 0.0620(6) 0.0224(13) 1 0
Li2 Li1+ 2 e 0.7817(10) 0.25 0.3470(6) 0.0269(14) 1 0
Li3 Li1+ 2 e 0.0919(12) 0.25 0.9827(7) 0.0383(17) 1 0
Si1 Si4+ 2 e 0.24318(13) 0.25 0.73574(8) 0.01199(19) 1 0
Si2 Si4+ 4 f 0.23836(9) 0.00089(7) 0.26137(6) 0.01158(15) 1 0
P1 P2- 4 f 0.11673(9) -0.00288(7) 0.81001(6) 0.01416(14) 1 0
P2 P2- 2 e 0.60955(12) 0.25 0.81761(8) 0.01164(18) 1 0
P3 P2- 2 e 0.17745(12) 0.25 0.51726(8) 0.01244(18) 1 0
P4 P2- 4 f 0.32187(9) -0.01648(7) 0.48071(6) 0.01275(15) 1 0
P5 P2- 2 e 0.37853(13) 0.25 0.18832(8) 0.01413(18) 1 0
loop_
_atom_site_aniso_label
_atom_site_aniso_type_symbol
_atom_site_aniso_U_11
_atom_site_aniso_U_22
_atom_site_aniso_U_33
_atom_site_aniso_U_12
_atom_site_aniso_U_13
_atom_site_aniso_U_23
Li1 Li1+ 0.015(3) 0.030(3) 0.025(3) 0. 0.010(2) 0.
Li2 Li1+ 0.029(3) 0.030(3) 0.024(4) 0. 0.008(3) 0.
Li3 Li1+ 0.038(4) 0.049(4) 0.025(4) 0. 0.001(3) 0.
Si1 Si4+ 0.0104(4) 0.0099(3) 0.0159(4) 0. 0.0034(3) 0.
Si2 Si4+ 0.0099(3) 0.0093(3) 0.0155(3) -0.0003(2) 0.0027(2) -0.0001(2)
P1 P2- 0.0105(3) 0.0109(3) 0.0204(3) 0.00000(19) 0.0021(2) 0.0025(2)
P2 P2- 0.0099(3) 0.0097(3) 0.0153(4) 0. 0.0029(3) 0.
P3 P2- 0.0115(4) 0.0103(3) 0.0155(4) 0. 0.0030(3) 0.
P4 P2- 0.0122(3) 0.0104(2) 0.0158(3) 0.00039(19) 0.0031(2) 0.0000(2)
P5 P2- 0.0131(4) 0.0099(3) 0.0208(4) 0. 0.0069(3) 0.
#End of TTdata_253897-ICSD