
#(C) 2018 by FIZ Karlsruhe - Leibniz Institute for Information Infrastructure.  All rights reserved.
data_253894-ICSD
_database_code_ICSD 253894
_audit_creation_date 2018-02-01
_chemical_name_systematic 'Dilithium hexathiodiphosphate'
_chemical_formula_structural 'Li2 P2 S6'
_chemical_formula_sum 'Li2 P2 S6'
_exptl_crystal_density_diffrn 2.15
_cell_measurement_temperature 293.
_publ_section_title

;
Synthesis, structural characterization, and lithium ion conductivity of the
lithium thiophosphate Li2P2S6
;
loop_
_citation_id
_citation_journal_full
_citation_year
_citation_journal_volume
_citation_page_first
_citation_page_last
_citation_journal_id_ASTM
primary 'Inorganic Chemistry' 2017 56 6681 6687 INOCAJ
loop_
_publ_author_name
'Dietrich, Christian'
'Weber, Dominik A.'
'Culver, Sean'
'Senyshyn, Anatoliy'
'Sedlmaier, Stefan J.'
'Indris, Sylvio'
'Janek, Juergen'
'Zeier, Wolfgang G.'
_cell_length_a 11.11569(88)
_cell_length_b 7.00704(55)
_cell_length_c 6.52514(51)
_cell_angle_alpha 90
_cell_angle_beta 125.5717(14)
_cell_angle_gamma 90
_cell_volume 413.38
_cell_formula_units_Z 2
_symmetry_space_group_name_H-M 'C 1 2/m 1'
_symmetry_Int_Tables_number 12
_refine_ls_R_factor_all 0.0147
loop_
_symmetry_equiv_pos_site_id
_symmetry_equiv_pos_as_xyz
1 '-x, y, -z'
2 '-x, -y, -z'
3 'x, -y, z'
4 'x, y, z'
5 '-x+1/2, y+1/2, -z'
6 '-x+1/2, -y+1/2, -z'
7 'x+1/2, -y+1/2, z'
8 'x+1/2, y+1/2, z'
loop_
_atom_type_symbol
_atom_type_oxidation_number
S2- -2
P5+ 5
S2- -2
Li1+ 1
loop_
_atom_site_label
_atom_site_type_symbol
_atom_site_symmetry_multiplicity
_atom_site_Wyckoff_symbol
_atom_site_fract_x
_atom_site_fract_y
_atom_site_fract_z
_atom_site_B_iso_or_equiv
_atom_site_occupancy
_atom_site_attached_hydrogens
S1 S2- 4 h 0.5 0.2788(4) 0.5 0.025(2) 1. 0
S2 S2- 4 i 0.6978(3) 0.5 0.3261(5) 0.023(2) 1. 0
P1 P5+ 4 i 0.65385(16) 0.5 0.5806(4) 0.016(1) 1. 0
S3 S2- 4 i 0.3192(4) 0. 0.9385(6) 0.026(2) 1. 0
Li1 Li1+ 4 g 0. 0.2407(8) 0. 0.047(4) 1. 0
loop_
_atom_site_aniso_label
_atom_site_aniso_type_symbol
_atom_site_aniso_U_11
_atom_site_aniso_U_22
_atom_site_aniso_U_33
_atom_site_aniso_U_12
_atom_site_aniso_U_13
_atom_site_aniso_U_23
S1 S2- 0.016(2) 0.021(2) 0.026(2) 0. 0.006(1) 0.
S2 S2- 0.022(2) 0.030(2) 0.020(2) 0. 0.014(2) 0.
P1 P5+ 0.012(1) 0.020(1) 0.015(1) 0. 0.007(1) 0.
S3 S2- 0.020(2) 0.036(2) 0.013(2) 0. 0.005(1) 0.
Li1 Li1+ 0.036(3) 0.030(3) 0.053(4) 0. 0.014(3) 0.
#End of TTdata_253894-ICSD