
#(C) 2018 by FIZ Karlsruhe - Leibniz Institute for Information Infrastructure.  All rights reserved.
data_254292-ICSD
_database_code_ICSD 254292
_audit_creation_date 2018-02-01
_chemical_name_systematic 'Lithium magnesium rhenium oxide (3.96/1.04/1/6)'
_chemical_formula_structural 'Li3.96 Mg1.04 Re O6'
_chemical_formula_sum 'Li3.96 Mg1.04 O6 Re1'
_chemical_name_structure_type Na5ReO6
_exptl_crystal_density_diffrn 5.17
_publ_section_title

;
Synthesis, crystal structure, and magnetic properties of the highly frustrated
orthorhombic Li4MgReO6
;
loop_
_citation_id
_citation_journal_full
_citation_year
_citation_journal_volume
_citation_page_first
_citation_page_last
_citation_journal_id_ASTM
primary 'Inorganic Chemistry' 2017 56 11633 11639 INOCAJ
loop_
_publ_author_name
'Milam-Guerrero, JoAnna'
'Bloed, Charles J.'
'Nguyen, Phuong-Hieu T.'
'Tran, Gia T.'
'Martin, William P.'
'Papakostas, Demetrios V.'
'Toro, Jefferson'
'Wilson, Murray N.'
'Carlo, Jeremy P.'
'Luke, Graeme M.'
'Melot, Brent C.'
'Gu, Jiyeong'
'Derakhshan, Shahab'
_cell_length_a 5.1050(7)
_cell_length_b 8.8188(9)
_cell_length_c 5.0817(4)
_cell_angle_alpha 90.
_cell_angle_beta 109.781(7)
_cell_angle_gamma 90.
_cell_volume 215.27
_cell_formula_units_Z 2
_symmetry_space_group_name_H-M 'C 1 2/m 1'
_symmetry_Int_Tables_number 12
loop_
_symmetry_equiv_pos_site_id
_symmetry_equiv_pos_as_xyz
1 '-x, y, -z'
2 '-x, -y, -z'
3 'x, -y, z'
4 'x, y, z'
5 '-x+1/2, y+1/2, -z'
6 '-x+1/2, -y+1/2, -z'
7 'x+1/2, -y+1/2, z'
8 'x+1/2, y+1/2, z'
loop_
_atom_type_symbol
_atom_type_oxidation_number
Re5+ 5.96
Li1+ 1
Mg2+ 2
Li1+ 1
Mg2+ 2
Li1+ 1
Mg2+ 2
O2- -2
loop_
_atom_site_label
_atom_site_type_symbol
_atom_site_symmetry_multiplicity
_atom_site_Wyckoff_symbol
_atom_site_fract_x
_atom_site_fract_y
_atom_site_fract_z
_atom_site_B_iso_or_equiv
_atom_site_occupancy
_atom_site_attached_hydrogens
Re1 Re5+ 2 a 0. 0. 0. 0.01 1. 0
Li1 Li1+ 4 g 0. 0.665 0. 0.02 0.74 0
Mg1 Mg2+ 4 g 0. 0.665 0. 0.02 0.26 0
Li2 Li1+ 4 h 0.5 0.315 0.5 0.02 0.84 0
Mg2 Mg2+ 4 h 0.5 0.315 0.5 0.02 0.16 0
Li3 Li1+ 2 d 0. 0.5 0.5 0.02 0.8 0
Mg3 Mg2+ 2 d 0. 0.5 0.5 0.02 0.2 0
O1 O2- 8 j 0.2598 0.3445 0.7603 0.015 1. 0
O2 O2- 4 i 0.2658 0.5 0.2297 0.015 1. 0
#End of TTdata_254292-ICSD