
#(C) 2018 by FIZ Karlsruhe - Leibniz Institute for Information Infrastructure.  All rights reserved.
data_260567-ICSD
_database_code_ICSD 260567
_audit_creation_date 2010-02-01
_chemical_name_systematic
'Lithium iron(II) manganese(II) phosphate(V) (1/0.97/0.03/1)'
_chemical_formula_structural 'Li (Fe0.97 Mn0.03) (P O4)'
_chemical_formula_sum 'Fe0.97 Li1 Mn0.03 O4 P1'
_chemical_name_structure_type Olivine-Mg2SiO4
_chemical_name_mineral 'Triphylite - Mn doped'
_exptl_crystal_density_diffrn 3.6
_publ_section_title

;
Structural, spectroscopic and magnetic investigation of the Li Fe(1-x) Mn(x) P
O4 (x=0-0.18) solid solution
;
loop_
_citation_id
_citation_journal_full
_citation_year
_citation_journal_volume
_citation_page_first
_citation_page_last
_citation_journal_id_ASTM
primary 'Journal of Solid State Chemistry' 2009 182 1972 1981 JSSCBI
loop_
_publ_author_name
'Bini, M.'
'Mozzati, M.C.'
'Galinetto, P.'
'Capsoni, D.'
'Ferrari, S.'
'Grandi, M.S.'
'Massarotti, V.'
_cell_length_a 10.32756(41)
_cell_length_b 6.00621(23)
_cell_length_c 4.68922(22)
_cell_angle_alpha 90
_cell_angle_beta 90
_cell_angle_gamma 90
_cell_volume 290.87
_cell_formula_units_Z 4
_symmetry_space_group_name_H-M 'P n m a'
_symmetry_Int_Tables_number 62
_refine_ls_R_factor_all 0.021
loop_
_symmetry_equiv_pos_site_id
_symmetry_equiv_pos_as_xyz
1 'x+1/2, y, -z+1/2'
2 'x, -y+1/2, z'
3 '-x+1/2, y+1/2, z+1/2'
4 '-x, -y, -z'
5 '-x+1/2, -y, z+1/2'
6 '-x, y+1/2, -z'
7 'x+1/2, -y+1/2, -z+1/2'
8 'x, y, z'
loop_
_atom_type_symbol
_atom_type_oxidation_number
Li1+ 1
Mn2+ 2
Fe2+ 2
Mn2+ 2
P5+ 5
O2- -2
loop_
_atom_site_label
_atom_site_type_symbol
_atom_site_symmetry_multiplicity
_atom_site_Wyckoff_symbol
_atom_site_fract_x
_atom_site_fract_y
_atom_site_fract_z
_atom_site_B_iso_or_equiv
_atom_site_occupancy
_atom_site_attached_hydrogens
Li1 Li1+ 4 a 0 0 0 2.5(15) 1 0
Mn1 Mn2+ 4 a 0 0 0 2.5(15) 0 0
Fe1 Fe2+ 4 c 0.2828403 0.25 0.9712939 1.78(18) 0.97 0
Mn2 Mn2+ 4 c 0.2828403 0.25 0.9712939 1.78(18) 0.03 0
P1 P5+ 4 c 0.09677429 0.25 0.4176195 3.07(27) 1 0
O1 O2- 4 c 0.0874699 0.25 0.7632559 3.00(54) 1 0
O2 O2- 4 c 0.4518655 0.25 0.2299923 2.91(47) 1 0
O3 O2- 8 d 0.1640949 0.04699353 0.2857994 3.13(40) 1 0
#End of TTdata_260567-ICSD