
#(C) 2018 by FIZ Karlsruhe - Leibniz Institute for Information Infrastructure.  All rights reserved.
data_262075-ICSD
_database_code_ICSD 262075
_audit_creation_date 2012-02-01
_chemical_name_systematic 'Lithium antimonate(III)'
_chemical_formula_structural 'Li Sb O2'
_chemical_formula_sum 'Li1 O2 Sb1'
_exptl_crystal_density_diffrn 4.41
_publ_section_title
'Li Sb O2: synthesis, structure, stability, and lithium-ion conductivity'
loop_
_citation_id
_citation_journal_full
_citation_year
_citation_journal_volume
_citation_page_first
_citation_page_last
_citation_journal_id_ASTM
primary 'Inorganic Chemistry' 2011 50 7880 7885 INOCAJ
loop_
_publ_author_name
'de Laune, B.P.'
'Bayliss, R.D.'
'Greaves, C.'
_cell_length_a 4.8550(3)
_cell_length_b 17.857(1)
_cell_length_c 5.5771(3)
_cell_angle_alpha 90
_cell_angle_beta 90.061(6)
_cell_angle_gamma 90
_cell_volume 483.51
_cell_formula_units_Z 8
_symmetry_space_group_name_H-M 'P 1 21/c 1'
_symmetry_Int_Tables_number 14
_refine_ls_R_factor_all 0.0476
loop_
_symmetry_equiv_pos_site_id
_symmetry_equiv_pos_as_xyz
1 'x, -y+1/2, z+1/2'
2 '-x, -y, -z'
3 '-x, y+1/2, -z+1/2'
4 'x, y, z'
loop_
_atom_type_symbol
_atom_type_oxidation_number
Sb3+ 3
O2- -2
Li1+ 1
loop_
_atom_site_label
_atom_site_type_symbol
_atom_site_symmetry_multiplicity
_atom_site_Wyckoff_symbol
_atom_site_fract_x
_atom_site_fract_y
_atom_site_fract_z
_atom_site_B_iso_or_equiv
_atom_site_occupancy
_atom_site_attached_hydrogens
Sb1 Sb3+ 4 e 0.259(2) 0.5994(4) 0.5711(8) 0.011(2) 1. 0
Sb2 Sb3+ 4 e 0.237(2) 0.4032(4) 0.994(1) 0.007(1) 1. 0
O1 O2- 4 e 0.339(1) 0.6942(4) 0.463(1) 0.009(1) 1. 0
O2 O2- 4 e 0.170(2) 0.3034(6) 0.878(1) 0.020(2) 1. 0
O3 O2- 4 e 0.367(1) 0.6167(5) 0.920(1) 0.012(2) 1. 0
O4 O2- 4 e 0.138(1) 0.3848(5) 0.333(1) 0.014(2) 1. 0
Li1 Li1+ 4 e 0.254(5) 0.219(1) 0.042(3) 0.016(5) 1. 0
Li2 Li1+ 4 e 0.770(5) 0.211(1) 0.376(3) 0.009(4) 1. 0
#End of TTdata_262075-ICSD