
#(C) 2018 by FIZ Karlsruhe - Leibniz Institute for Information Infrastructure.  All rights reserved.
data_262370-ICSD
_database_code_ICSD 262370
_audit_creation_date 2012-08-01
_chemical_name_systematic 'Lithium europium(III) molybdate(VI) (3.5/1.5/4)'
_chemical_formula_structural 'Li3.5 Eu1.5 (Mo O4)4'
_chemical_formula_sum 'Eu1.5 Li3.5 Mo4 O16'
_chemical_name_structure_type Li7Ho3(MoO4)8
_exptl_crystal_density_diffrn 4.67
_cell_measurement_temperature 296.
_publ_section_title 'Lithium europium(III) molybdate(VI), Li3.5 Eu1.5 (Mo O4)4'
loop_
_citation_id
_citation_journal_full
_citation_year
_citation_journal_volume
_citation_page_first
_citation_page_last
_citation_journal_id_ASTM
primary 'Acta Crystallographica, Section E: Structure Reports Online' 2012 68
i14 i14 ACSEBH
loop_
_publ_author_name
'Zhao Dan'
'Zhu Jing'
'Liang Peng'
'Chang Huan'
'He Rong'
_cell_length_a 5.2182(11)
_cell_length_b 6.7008(12)
_cell_length_c 10.3167(5)
_cell_angle_alpha 100.09(2)
_cell_angle_beta 100.341(15)
_cell_angle_gamma 111.891(15)
_cell_volume 317.49
_cell_formula_units_Z 1
_symmetry_space_group_name_H-M 'P -1'
_symmetry_Int_Tables_number 2
_refine_ls_R_factor_all 0.0286
loop_
_symmetry_equiv_pos_site_id
_symmetry_equiv_pos_as_xyz
1 '-x, -y, -z'
2 'x, y, z'
loop_
_atom_type_symbol
_atom_type_oxidation_number
Li1+ 1
Eu3+ 3
Mo6+ 6
O2- -2
Li1+ 1
loop_
_atom_site_label
_atom_site_type_symbol
_atom_site_symmetry_multiplicity
_atom_site_Wyckoff_symbol
_atom_site_fract_x
_atom_site_fract_y
_atom_site_fract_z
_atom_site_B_iso_or_equiv
_atom_site_occupancy
_atom_site_attached_hydrogens
Li1 Li1+ 2 i 0.62034(7) 0.77190(5) 0.43965(3) 0.00542(13) 0.25 0
Eu1 Eu3+ 2 i 0.62034(7) 0.77190(5) 0.43965(3) 0.00542(13) 0.75 0
Mo1 Mo6+ 2 i 0.16529(10) 0.70023(7) 0.68099(5) 0.00873(15) 1 0
Mo2 Mo6+ 2 i 1.08254(11) 0.84541(8) 0.19822(5) 0.01044(15) 1 0
O1 O2- 2 i 0.3065(9) 0.5032(7) 0.7078(4) 0.0141(9) 1 0
O2 O2- 2 i 0.8045(9) 0.5637(7) 0.5724(4) 0.0145(9) 1 0
O3 O2- 2 i 0.7317(9) 0.3263(7) 0.7745(4) 0.0175(9) 1 0
O4 O2- 2 i 0.7691(10) 0.6882(7) 0.0693(5) 0.0213(10) 1 0
O5 O2- 2 i 0.3812(8) 0.8834(6) 0.5948(4) 0.0099(8) 1 0
O6 O2- 2 i 1.0161(9) 0.9568(7) 0.3572(4) 0.0141(9) 1 0
O7 O2- 2 i 1.1437(9) 0.8249(7) 0.8386(4) 0.0175(9) 1 0
O8 O2- 2 i 1.3010(9) 1.0575(7) 0.1374(4) 0.0167(9) 1 0
Li2 Li1+ 2 i 0.669(4) 0.593(3) 0.869(2) 0.060(5) 1 0
Li3 Li1+ 1 d 1.5 1. 0. 0.049(6) 1 0
loop_
_atom_site_aniso_label
_atom_site_aniso_type_symbol
_atom_site_aniso_U_11
_atom_site_aniso_U_22
_atom_site_aniso_U_33
_atom_site_aniso_U_12
_atom_site_aniso_U_13
_atom_site_aniso_U_23
Li1 Li1+ 0.0066(2) 0.0053(2) 0.0037(2) 0.00203(15) 0.00143(14) 0.00061(14)
Eu1 Eu3+ 0.0066(2) 0.0053(2) 0.0037(2) 0.00203(15) 0.00143(14) 0.00061(14)
Mo1 Mo6+ 0.0097(3) 0.0099(3) 0.0068(3) 0.0038(2) 0.0029(2) 0.00267(19)
Mo2 Mo6+ 0.0122(3) 0.0133(3) 0.0057(2) 0.0056(2) 0.00259(19) 0.00134(19)
O1 O2- 0.018(2) 0.016(2) 0.010(2) 0.0090(18) 0.0062(17) 0.0028(16)
O2 O2- 0.014(2) 0.012(2) 0.013(2) 0.0028(17) 0.0019(17) 0.0010(16)
O3 O2- 0.020(2) 0.019(2) 0.015(2) 0.0112(19) 0.0051(18) 0.0031(18)
O4 O2- 0.021(2) 0.021(2) 0.013(2) 0.0023(19) 0.0017(18) 0.0031(18)
O5 O2- 0.0110(19) 0.0098(19) 0.0089(19) 0.0039(16) 0.0032(15) 0.0032(15)
O6 O2- 0.0109(19) 0.015(2) 0.014(2) 0.0028(17) 0.0057(17) 0.0009(17)
O7 O2- 0.016(2) 0.022(2) 0.014(2) 0.0081(19) 0.0044(17) 0.0013(18)
O8 O2- 0.019(2) 0.022(2) 0.014(2) 0.0114(19) 0.0082(18) 0.0083(18)
#End of TTdata_262370-ICSD