
#(C) 2018 by FIZ Karlsruhe - Leibniz Institute for Information Infrastructure.  All rights reserved.
data_263143-ICSD
_database_code_ICSD 263143
_audit_creation_date 2013-02-01
_chemical_name_systematic 'Tetraaminelithium triaminelithium trisulfide'
_chemical_formula_structural '(Li (N H3)4) (Li (N H3)3 S3)'
_chemical_formula_sum 'H21 Li2 N7 S3'
_exptl_crystal_density_diffrn 1.18
_cell_measurement_temperature 123.
_publ_section_title
'Tetraamminelithium triamminelithium trisulfide, [Li (N H3)4] [Li (N H3)3 S3]'
loop_
_citation_id
_citation_journal_full
_citation_year
_citation_journal_volume
_citation_page_first
_citation_page_last
_citation_journal_id_ASTM
primary 'Acta Crystallographica, Section E: Structure Reports Online' 2012 68
i84 i85 ACSEBH
loop_
_publ_author_name
'Guentner, C.'
'Korber, N.'
_cell_length_a 12.422(3)
_cell_length_b 9.3721(19)
_cell_length_c 22.269(5)
_cell_angle_alpha 90.
_cell_angle_beta 92.46(3)
_cell_angle_gamma 90.
_cell_volume 2590.17
_cell_formula_units_Z 8
_symmetry_space_group_name_H-M 'P 1 21/c 1'
_symmetry_Int_Tables_number 14
_refine_ls_R_factor_all 0.0399
loop_
_symmetry_equiv_pos_site_id
_symmetry_equiv_pos_as_xyz
1 'x, -y+1/2, z+1/2'
2 '-x, -y, -z'
3 '-x, y+1/2, -z+1/2'
4 'x, y, z'
loop_
_atom_type_symbol
_atom_type_oxidation_number
Li1+ 1
S0+ -0.66
N3- -3
H1+ 1
loop_
_atom_site_label
_atom_site_type_symbol
_atom_site_symmetry_multiplicity
_atom_site_Wyckoff_symbol
_atom_site_fract_x
_atom_site_fract_y
_atom_site_fract_z
_atom_site_B_iso_or_equiv
_atom_site_occupancy
_atom_site_attached_hydrogens
Li1 Li1+ 4 e 0.7395(4) 0.7907(6) 0.7389(3) 0.0252(13) 1 0
Li2 Li1+ 4 e 0.3406(4) 0.8493(7) 0.6182(3) 0.0266(13) 1 0
Li3 Li1+ 4 e 0.7452(4) 0.7081(6) 0.4913(3) 0.0250(13) 1 0
Li4 Li1+ 4 e 0.1536(4) 0.7795(6) 0.3651(3) 0.0249(13) 1 0
S1 S0+ 4 e 0.15394(6) 0.93809(9) 0.64317(4) 0.02269(19) 1 0
S2 S0+ 4 e 0.05542(7) 0.79073(9) 0.59691(4) 0.0255(2) 1 0
S3 S0+ 4 e 0.06305(7) 0.59281(9) 0.63965(4) 0.0269(2) 1 0
S4 S0+ 4 e 0.33097(7) 0.82682(10) 0.41901(4) 0.0268(2) 1 0
S5 S0+ 4 e 0.42615(6) 0.75535(9) 0.35064(4) 0.02202(18) 1 0
S6 S0+ 4 e 0.46313(7) 0.54071(10) 0.36418(4) 0.0240(2) 1 0
N1 N3- 4 e 0.6879(3) 0.9930(4) 0.76601(16) 0.0265(7) 1 0
N2 N3- 4 e 0.6495(3) 0.6230(4) 0.76905(16) 0.0244(7) 1 0
N3 N3- 4 e 0.8984(3) 0.7513(5) 0.76394(17) 0.0288(7) 1 0
N4 N3- 4 e 0.7316(3) 0.7768(5) 0.64448(15) 0.0358(8) 1 0
N5 N3- 4 e 0.4113(3) 0.9960(4) 0.56295(15) 0.0246(7) 1 0
N6 N3- 4 e 0.4488(3) 0.8081(4) 0.68949(17) 0.0294(7) 1 0
N7 N3- 4 e 0.3186(3) 0.6668(4) 0.56994(17) 0.0266(7) 1 0
N8 N3- 4 e 0.8168(3) 0.9077(4) 0.51002(17) 0.0246(7) 1 0
N9 N3- 4 e 0.7427(3) 0.6940(4) 0.39786(14) 0.0257(7) 1 0
N10 N3- 4 e 0.5838(2) 0.6757(4) 0.50895(16) 0.0275(7) 1 0
N11 N3- 4 e 0.8388(3) 0.5406(4) 0.52589(18) 0.0326(8) 1 0
N12 N3- 4 e 0.0296(2) 0.7627(4) 0.42483(15) 0.0270(7) 1 0
N13 N3- 4 e 0.1046(3) 0.9471(4) 0.31136(17) 0.0266(7) 1 0
N14 N3- 4 e 0.1714(3) 0.5983(4) 0.31432(18) 0.0292(7) 1 0
H1 H1+ 4 e 0.678(3) 1.056(5) 0.737(2) 0.038(12) 1 0
H2 H1+ 4 e 0.640(3) 0.989(4) 0.7876(19) 0.025(11) 1 0
H3 H1+ 4 e 0.733(3) 1.046(5) 0.7866(19) 0.032(11) 1 0
H4 H1+ 4 e 0.603(3) 0.637(4) 0.7916(19) 0.026(8) 1 0
H5 H1+ 4 e 0.695(4) 0.563(5) 0.786(2) 0.040(12) 1 0
H6 H1+ 4 e 0.625(3) 0.573(5) 0.740(2) 0.035(12) 1 0
H7 H1+ 4 e 0.925(4) 0.810(6) 0.780(2) 0.041(15) 1 0
H8 H1+ 4 e 0.942(3) 0.732(5) 0.7338(19) 0.033(11) 1 0
H9 H1+ 4 e 0.899(4) 0.674(6) 0.782(2) 0.046(14) 1 0
H10 H1+ 4 e 0.693(4) 0.699(6) 0.637(2) 0.055(15) 1 0
H11 H1+ 4 e 0.795(4) 0.769(6) 0.628(2) 0.058(15) 1 0
H12 H1+ 4 e 0.706(4) 0.845(5) 0.625(2) 0.039(9) 1 0
H13 H1+ 4 e 0.412(3) 0.967(5) 0.525(2) 0.034(11) 1 0
H14 H1+ 4 e 0.481(4) 1.025(4) 0.5667(18) 0.033(11) 1 0
H15 H1+ 4 e 0.380(3) 1.074(5) 0.5647(19) 0.033(12) 1 0
H16 H1+ 4 e 0.497(4) 0.863(5) 0.6871(19) 0.035(13) 1 0
H17 H1+ 4 e 0.476(3) 0.725(5) 0.6808(17) 0.021(10) 1 0
H18 H1+ 4 e 0.420(4) 0.809(5) 0.722(2) 0.045(14) 1 0
H19 H1+ 4 e 0.330(3) 0.680(5) 0.534(2) 0.034(12) 1 0
H20 H1+ 4 e 0.362(4) 0.593(6) 0.575(2) 0.055(15) 1 0
H21 H1+ 4 e 0.258(4) 0.640(4) 0.5784(18) 0.030(11) 1 0
H22 H1+ 4 e 0.784(4) 0.967(5) 0.527(2) 0.039(9) 1 0
H23 H1+ 4 e 0.830(3) 0.953(4) 0.477(2) 0.025(10) 1 0
H24 H1+ 4 e 0.871(4) 0.895(5) 0.529(2) 0.035(12) 1 0
H25 H1+ 4 e 0.770(3) 0.767(5) 0.3810(19) 0.035(12) 1 0
H26 H1+ 4 e 0.677(4) 0.683(5) 0.3837(19) 0.039(12) 1 0
H27 H1+ 4 e 0.785(4) 0.628(5) 0.389(2) 0.041(13) 1 0
H28 H1+ 4 e 0.571(3) 0.603(4) 0.5340(18) 0.022(10) 1 0
H29 H1+ 4 e 0.547(4) 0.647(5) 0.478(2) 0.048(14) 1 0
H30 H1+ 4 e 0.552(3) 0.744(5) 0.526(2) 0.041(13) 1 0
H31 H1+ 4 e 0.806(3) 0.481(5) 0.5431(19) 0.025(12) 1 0
H32 H1+ 4 e 0.889(4) 0.563(5) 0.550(2) 0.039(12) 1 0
H33 H1+ 4 e 0.870(3) 0.496(5) 0.497(2) 0.031(12) 1 0
H34 H1+ 4 e 0.047(3) 0.767(5) 0.464(2) 0.041(12) 1 0
H35 H1+ 4 e -0.018(4) 0.824(6) 0.421(2) 0.053(15) 1 0
H36 H1+ 4 e -0.002(3) 0.678(5) 0.4214(18) 0.029(11) 1 0
H37 H1+ 4 e 0.099(3) 0.931(4) 0.274(2) 0.026(11) 1 0
H38 H1+ 4 e 0.053(4) 0.978(5) 0.326(2) 0.036(13) 1 0
H39 H1+ 4 e 0.146(3) 1.020(5) 0.3085(17) 0.026(8) 1 0
H40 H1+ 4 e 0.173(4) 0.610(5) 0.279(3) 0.047(15) 1 0
H41 H1+ 4 e 0.136(3) 0.533(5) 0.3247(19) 0.030(12) 1 0
H42 H1+ 4 e 0.238(4) 0.574(5) 0.321(2) 0.050(13) 1 0
loop_
_atom_site_aniso_label
_atom_site_aniso_type_symbol
_atom_site_aniso_U_11
_atom_site_aniso_U_22
_atom_site_aniso_U_33
_atom_site_aniso_U_12
_atom_site_aniso_U_13
_atom_site_aniso_U_23
Li1 Li1+ 0.025(3) 0.027(3) 0.024(3) 0.003(2) 0.001(2) 0.001(3)
Li2 Li1+ 0.028(3) 0.026(3) 0.026(3) 0.001(2) -0.001(2) -0.003(3)
Li3 Li1+ 0.022(3) 0.029(4) 0.024(3) -0.001(2) -0.001(2) 0.003(3)
Li4 Li1+ 0.023(3) 0.026(3) 0.026(3) 0.001(2) 0.000(2) 0.003(3)
S1 S0+ 0.0216(4) 0.0202(4) 0.0260(5) -0.0005(3) -0.0009(3) -0.0036(4)
S2 S0+ 0.0259(4) 0.0251(5) 0.0245(4) -0.0007(3) -0.0098(3) -0.0003(4)
S3 S0+ 0.0277(5) 0.0234(5) 0.0297(5) -0.0051(3) 0.0010(4) 0.0013(4)
S4 S0+ 0.0214(4) 0.0338(5) 0.0250(5) 0.0051(4) -0.0018(3) -0.0094(4)
S5 S0+ 0.0242(4) 0.0222(4) 0.0198(4) 0.0007(3) 0.0031(3) 0.0017(4)
S6 S0+ 0.0265(4) 0.0215(5) 0.0238(4) 0.0027(3) -0.0008(3) -0.0024(4)
N1 N3- 0.0265(17) 0.0296(18) 0.0234(17) 0.0007(14) 0.0031(15) 0.0043(15)
N2 N3- 0.0226(16) 0.0283(18) 0.0221(17) 0.0011(13) -0.0011(13) 0.0007(14)
N3 N3- 0.0259(16) 0.0283(19) 0.0321(19) 0.0006(16) -0.0011(14) 0.0035(18)
N4 N3- 0.044(2) 0.041(2) 0.0219(17) -0.0086(18) -0.0003(15) 0.0037(16)
N5 N3- 0.0241(17) 0.0241(18) 0.0254(18) -0.0003(13) -0.0021(13) 0.0003(14)
N6 N3- 0.0314(18) 0.0277(19) 0.0285(19) 0.0048(17) -0.0032(15) -0.0018(16)
N7 N3- 0.0223(16) 0.0275(19) 0.030(2) -0.0030(14) 0.0037(14) -0.0014(15)
N8 N3- 0.0241(17) 0.0252(17) 0.0242(18) 0.0029(13) -0.0022(14) -0.0017(15)
N9 N3- 0.0257(17) 0.0278(18) 0.0235(16) -0.0027(15) 0.0002(13) 0.0016(14)
N10 N3- 0.0271(16) 0.0304(19) 0.0249(18) -0.0013(15) 0.0001(14) 0.0032(16)
N11 N3- 0.0355(18) 0.0266(19) 0.034(2) -0.0016(16) -0.0142(17) 0.0017(17)
N12 N3- 0.0250(15) 0.0290(19) 0.0271(18) 0.0021(15) 0.0022(13) 0.0000(15)
N13 N3- 0.0225(16) 0.0289(19) 0.0287(19) -0.0054(14) 0.0040(14) 0.0032(15)
N14 N3- 0.0244(18) 0.034(2) 0.029(2) -0.0008(16) 0.0024(14) -0.0054(16)
#End of TTdata_263143-ICSD