
#(C) 2018 by FIZ Karlsruhe - Leibniz Institute for Information Infrastructure.  All rights reserved.
data_279578-ICSD
_database_code_ICSD 279578
_audit_creation_date 2002-10-01
_chemical_name_systematic 'Dilithium alumopentaborate'
_chemical_formula_structural 'Li2 (Al B5 O10)'
_chemical_formula_sum 'Al1 B5 Li2 O10'
_exptl_crystal_density_diffrn 2.29
_cell_measurement_temperature 295.
_publ_section_title 'Li2 Al B5 O10'
loop_
_citation_id
_citation_journal_full
_citation_year
_citation_journal_volume
_citation_page_first
_citation_page_last
_citation_journal_id_ASTM
primary 'Acta Crystallographica, Section C: Crystal Structure Communications'
2001 57 1010 1011 ACSCEE
loop_
_publ_author_name
'He, M.'
'Li, H.'
'Chen, X.-L.'
'Xu, Y.-P.'
'Xu, T.'
_cell_length_a 7.0402(4)
_cell_length_b 14.9404(8)
_cell_length_c 7.0433(4)
_cell_angle_alpha 90.
_cell_angle_beta 90.702(1)
_cell_angle_gamma 90.
_cell_volume 740.78
_cell_formula_units_Z 4
_symmetry_space_group_name_H-M 'P 1 21/c 1'
_symmetry_Int_Tables_number 14
_refine_ls_R_factor_all 0.0363
loop_
_symmetry_equiv_pos_site_id
_symmetry_equiv_pos_as_xyz
1 'x, -y+1/2, z+1/2'
2 '-x, -y, -z'
3 '-x, y+1/2, -z+1/2'
4 'x, y, z'
loop_
_atom_type_symbol
_atom_type_oxidation_number
Al3+ 3
B3+ 3
O2- -2
Li1+ 1
loop_
_atom_site_label
_atom_site_type_symbol
_atom_site_symmetry_multiplicity
_atom_site_Wyckoff_symbol
_atom_site_fract_x
_atom_site_fract_y
_atom_site_fract_z
_atom_site_B_iso_or_equiv
_atom_site_occupancy
_atom_site_attached_hydrogens
Al1 Al3+ 4 e 0.14974(4) 0.37577(2) 0.03729(4) . 1. 0
B1 B3+ 4 e -.20982(15) 0.27914(7) -.02048(15) . 1. 0
B2 B3+ 4 e 0.20154(14) 0.47201(7) 0.40124(14) . 1. 0
B3 B3+ 4 e 0.24323(14) 0.49977(7) -.26461(14) . 1. 0
B4 B3+ 4 e 0.45556(14) 0.24680(7) 0.00024(14) . 1. 0
B5 B3+ 4 e 0.67924(15) 0.12016(6) -.00738(16) . 1. 0
O1 O2- 4 e -.07948(10) 0.34515(5) -.03203(10) . 1. 0
O2 O2- 4 e 0.27404(10) 0.27577(5) 0.01353(11) . 1. 0
O3 O2- 4 e 0.14951(11) 0.40908(5) 0.27338(10) . 1. 0
O4 O2- 4 e 0.24280(11) 0.46799(5) -.08301(10) . 1. 0
O5 O2- 4 e 0.28242(10) 0.55170(4) 0.35823(10) . 1. 0
O6 O2- 4 e 0.16369(10) 0.44861(4) 0.58969(10) . 1. 0
O7 O2- 4 e 0.49563(10) 0.15948(4) 0.02629(11) . 1. 0
O8 O2- 4 e -.16799(10) 0.19115(5) 0.00542(11) . 1. 0
O9 O2- 4 e -.39874(10) 0.30678(4) -.03956(10) . 1. 0
O10 O2- 4 e 0.31935(11) 0.58014(5) -.30375(10) . 1. 0
Li1 Li1+ 4 e 0.1033(3) 0.17197(12) -.0005(3) . 1. 0
Li2 Li1+ 4 e 0.3063(3) 0.57076(13) 0.0854(3) . 1. 0
loop_
_atom_site_aniso_label
_atom_site_aniso_type_symbol
_atom_site_aniso_U_11
_atom_site_aniso_U_22
_atom_site_aniso_U_33
_atom_site_aniso_U_12
_atom_site_aniso_U_13
_atom_site_aniso_U_23
Al1 Al3+ 0.00893(15) 0.00830(15) 0.01159(15) -.00029(8) 0.00032(10) -.00053(8)
B1 B3+ 0.0099(4) 0.0106(4) 0.0149(4) 0.0001(3) -.0007(3) -.0001(3)
B2 B3+ 0.0113(4) 0.0101(4) 0.0125(4) -.0009(3) 0.0008(3) -.0002(3)
B3 B3+ 0.0117(4) 0.0107(4) 0.0128(4) -.0004(3) 0.0006(3) -.0007(3)
B4 B3+ 0.0099(4) 0.0110(4) 0.0137(4) 0.0007(3) -.0002(3) -.0011(3)
B5 B3+ 0.0119(4) 0.0089(4) 0.0161(4) 0.0015(3) 0.0009(3) -.0002(3)
O1 O2- 0.0102(3) 0.0116(3) 0.0203(3) -.0013(2) -.0015(2) 0.0006(2)
O2 O2- 0.0091(3) 0.0115(3) 0.0240(3) 0.0015(2) 0.0013(2) -.0018(2)
O3 O2- 0.0175(3) 0.0124(3) 0.0125(3) -.0030(2) 0.0008(2) -.0019(2)
O4 O2- 0.0208(4) 0.0131(3) 0.0120(3) -.0043(2) 0.0001(2) 0.0010(2)
O5 O2- 0.0168(3) 0.0093(3) 0.0141(3) -.0028(2) 0.0016(2) 0.0003(2)
O6 O2- 0.0152(3) 0.0107(3) 0.0116(3) -.0025(2) 0.0006(2) -.0001(2)
O7 O2- 0.0103(3) 0.0095(3) 0.0258(4) 0.0009(2) 0.0026(3) 0.0002(2)
O8 O2- 0.0108(3) 0.0094(3) 0.0252(3) 0.0007(2) 0.0010(3) 0.0011(2)
O9 O2- 0.0098(3) 0.0105(3) 0.0247(4) 0.0002(2) -.0006(2) 0.0021(2)
O10 O2- 0.0214(4) 0.0117(3) 0.0145(3) -.0055(2) -.0009(3) 0.0003(2)
Li1 Li1+ 0.0167(9) 0.0126(7) 0.0277(9) -.0002(6) -.0009(7) -.0015(7)
Li2 Li1+ 0.0293(10) 0.0143(8) 0.0204(9) -.0019(7) -.0010(7) 0.0007(7)
#End of TTdata_279578-ICSD