
#(C) 2018 by FIZ Karlsruhe - Leibniz Institute for Information Infrastructure.  All rights reserved.
data_280027-ICSD
_database_code_ICSD 280027
_audit_creation_date 2000-07-15
_audit_update_record 2016-02-01
_chemical_name_systematic 'Lithium barium arsenide (4/3/4)'
_chemical_formula_structural 'Li4 Ba3 As4'
_chemical_formula_sum 'As4 Ba3 Li4'
_chemical_name_structure_type Cu4Zr3Si4
_exptl_crystal_density_diffrn 4.65
_publ_section_title

;
Lithium barium arsenide, Li4 Ba3 As4, containing isolated As3- and (As2)4-
anions
;
loop_
_citation_id
_citation_journal_full
_citation_year
_citation_journal_volume
_citation_page_first
_citation_page_last
_citation_journal_id_ASTM
primary 'Acta Crystallographica, Section C: Crystal Structure Communications'
1999 55 1199 1200 ACSCEE
loop_
_publ_author_name
'Monconduit, L.'
'Belin, C.'
_cell_length_a 4.7034(10)
_cell_length_b 7.1735(13)
_cell_length_c 15.643(2)
_cell_angle_alpha 90.
_cell_angle_beta 90.
_cell_angle_gamma 90.
_cell_volume 527.79
_cell_formula_units_Z 2
_symmetry_space_group_name_H-M 'I m m m'
_symmetry_Int_Tables_number 71
_refine_ls_R_factor_all 0.042
loop_
_symmetry_equiv_pos_site_id
_symmetry_equiv_pos_as_xyz
1 'x, y, -z'
2 'x, -y, z'
3 '-x, y, z'
4 '-x, -y, -z'
5 '-x, -y, z'
6 '-x, y, -z'
7 'x, -y, -z'
8 'x, y, z'
9 'x+1/2, y+1/2, -z+1/2'
10 'x+1/2, -y+1/2, z+1/2'
11 '-x+1/2, y+1/2, z+1/2'
12 '-x+1/2, -y+1/2, -z+1/2'
13 '-x+1/2, -y+1/2, z+1/2'
14 '-x+1/2, y+1/2, -z+1/2'
15 'x+1/2, -y+1/2, -z+1/2'
16 'x+1/2, y+1/2, z+1/2'
loop_
_atom_type_symbol
_atom_type_oxidation_number
Ba2+ 2
As2- -2
As3- -3
Li1+ 1
loop_
_atom_site_label
_atom_site_type_symbol
_atom_site_symmetry_multiplicity
_atom_site_Wyckoff_symbol
_atom_site_fract_x
_atom_site_fract_y
_atom_site_fract_z
_atom_site_B_iso_or_equiv
_atom_site_occupancy
_atom_site_attached_hydrogens
Ba1 Ba2+ 2 a 0 0 0 . 1. 0
Ba2 Ba2+ 4 j 0 0.5 0.13150(4) . 1. 0
As1 As2- 4 h 0.5 -.32666(17) 0 . 1. 0
As2 As3- 4 i 0 0 0.21219(7) . 1. 0
Li1 Li1+ 8 l 0.5 -.199(3) -.1789(11) . 1. 0
loop_
_atom_site_aniso_label
_atom_site_aniso_type_symbol
_atom_site_aniso_U_11
_atom_site_aniso_U_22
_atom_site_aniso_U_33
_atom_site_aniso_U_12
_atom_site_aniso_U_13
_atom_site_aniso_U_23
Ba1 Ba2+ 0.0108(5) 0.0061(5) 0.0073(5) 0 0 0
Ba2 Ba2+ 0.0080(4) 0.0138(4) 0.0066(4) 0 0 0
As1 As2- 0.0088(6) 0.0056(6) 0.0075(5) 0 0 0
As2 As3- 0.0078(6) 0.0108(6) 0.0060(6) 0 0 0
Li1 Li1+ 0.021(9) 0.021(8) 0.017(7) 0 0 -.010(7)
#End of TTdata_280027-ICSD