
#(C) 2018 by FIZ Karlsruhe - Leibniz Institute for Information Infrastructure.  All rights reserved.
data_280226-ICSD
_database_code_ICSD 280226
_audit_creation_date 2002-04-01
_chemical_name_systematic 'Aluminium lithium telluride'
_chemical_formula_structural 'Al Li Te2'
_chemical_formula_sum 'Al1 Li1 Te2'
_chemical_name_structure_type Chalcopyrite-CuFeS2
_exptl_crystal_density_diffrn 4.07
_publ_section_title

;
Synthesis and structures of new ternary aluminium chalcogenides: Li Al Se2,
alpha-Li Al Te2, and betaLi Al Te2
;
loop_
_citation_id
_citation_journal_full
_citation_year
_citation_journal_volume
_citation_page_first
_citation_page_last
_citation_journal_id_ASTM
primary 'Inorganic Chemistry' 2000 39 3092 3097 INOCAJ
loop_
_publ_author_name
'Kim, J.'
'Hughbanks, T.'
_cell_length_a 6.3517(4)
_cell_length_b 6.3517(4)
_cell_length_c 11.6904(9)
_cell_angle_alpha 90.
_cell_angle_beta 90.
_cell_angle_gamma 90.
_cell_volume 471.64
_cell_formula_units_Z 4
_symmetry_space_group_name_H-M 'I -4 2 d'
_symmetry_Int_Tables_number 122
_refine_ls_R_factor_all 0.021
loop_
_symmetry_equiv_pos_site_id
_symmetry_equiv_pos_as_xyz
1 '-y, -x+1/2, z+1/4'
2 'y, -x, -z'
3 'y, x+1/2, z+1/4'
4 '-y, x, -z'
5 'x, -y+1/2, -z+1/4'
6 '-x, -y, z'
7 '-x, y+1/2, -z+1/4'
8 'x, y, z'
9 '-y+1/2, -x, z+3/4'
10 'y+1/2, -x+1/2, -z+1/2'
11 'y+1/2, x, z+3/4'
12 '-y+1/2, x+1/2, -z+1/2'
13 'x+1/2, -y, -z+3/4'
14 '-x+1/2, -y+1/2, z+1/2'
15 '-x+1/2, y, -z+3/4'
16 'x+1/2, y+1/2, z+1/2'
loop_
_atom_type_symbol
_atom_type_oxidation_number
Te2- -2
Al3+ 3
Li1+ 1
loop_
_atom_site_label
_atom_site_type_symbol
_atom_site_symmetry_multiplicity
_atom_site_Wyckoff_symbol
_atom_site_fract_x
_atom_site_fract_y
_atom_site_fract_z
_atom_site_B_iso_or_equiv
_atom_site_occupancy
_atom_site_attached_hydrogens
Te1 Te2- 8 d 0.23077(10) 0.25 0.125 . 1. 0
Al1 Al3+ 4 a 0 0 0 . 1. 0
Li1 Li1+ 4 b 0.5 0.5 0 . 1. 0
loop_
_atom_site_aniso_label
_atom_site_aniso_type_symbol
_atom_site_aniso_U_11
_atom_site_aniso_U_22
_atom_site_aniso_U_33
_atom_site_aniso_U_12
_atom_site_aniso_U_13
_atom_site_aniso_U_23
Te1 Te2- 0.0170(4) 0.0183(4) 0.0146(5) 0 0 -.0036(2)
Al1 Al3+ 0.0172(14) 0.0172(14) 0.010(2) 0 0 0
Li1 Li1+ 0.034(11) 0.034(11) 0.020(14) 0 0 0
#End of TTdata_280226-ICSD