
#(C) 2018 by FIZ Karlsruhe - Leibniz Institute for Information Infrastructure.  All rights reserved.
data_281276-ICSD
_database_code_ICSD 281276
_audit_creation_date 2003-10-01
_audit_update_record 2008-02-01
_chemical_name_systematic 'Dilithium selenate(VI) hydrate'
_chemical_formula_structural 'Li2 (Se O4) (H2 O)'
_chemical_formula_sum 'H2 Li2 O5 Se1'
_chemical_name_structure_type Li2SO4H2O
_exptl_crystal_density_diffrn 2.57
_publ_section_title 'Dilithium selenate hydrate, Li2 Se O4 * (H2 O)'
loop_
_citation_id
_citation_journal_full
_citation_year
_citation_journal_volume
_citation_page_first
_citation_page_last
_citation_journal_id_ASTM
primary 'Acta Crystallographica, Section E: Structure Reports Online' 2003 59
i25 i27 ACSEBH
loop_
_publ_author_name
'Johnston, M.G.'
'Harrison, W.T.A.'
_cell_length_a 5.5798(3)
_cell_length_b 5.0284(3)
_cell_length_c 8.4521(5)
_cell_angle_alpha 90.
_cell_angle_beta 107.634(2)
_cell_angle_gamma 90.
_cell_volume 226.
_cell_formula_units_Z 2
_symmetry_space_group_name_H-M 'P 1 21 1'
_symmetry_Int_Tables_number 4
_refine_ls_R_factor_all 0.029
loop_
_symmetry_equiv_pos_site_id
_symmetry_equiv_pos_as_xyz
1 '-x, y+1/2, -z'
2 'x, y, z'
loop_
_atom_type_symbol
_atom_type_oxidation_number
Li1+ 1
Se6+ 6
O2- -2
H1+ 1
loop_
_atom_site_label
_atom_site_type_symbol
_atom_site_symmetry_multiplicity
_atom_site_Wyckoff_symbol
_atom_site_fract_x
_atom_site_fract_y
_atom_site_fract_z
_atom_site_B_iso_or_equiv
_atom_site_occupancy
_atom_site_attached_hydrogens
Li1 Li1+ 2 a 0.3149(11) 0.601(2) 0.4982(7) 0.0194(10) 1. 0
Li2 Li1+ 2 a 0.5618(12) 0.587(3) 0.8973(8) 0.0216(14) 1. 0
Se1 Se6+ 2 a 0.28578(5) 0.10066(13) 0.70808(3) 0.01246(10) 1. 0
O1 O2- 2 a 0.3272(6) -.2227(7) 0.7109(3) 0.0200(6) 1. 0
O2 O2- 2 a 0.3942(6) 0.2293(6) 0.5666(4) 0.0198(6) 1. 0
O3 O2- 2 a 0.4447(6) 0.2206(6) 0.8887(3) 0.0188(6) 1. 0
O4 O2- 2 a -.0081(5) 0.1759(7) 0.6716(4) 0.0225(7) 1. 0
O5 O2- 2 a 0.9058(7) 0.5620(11) 0.8993(5) 0.0427(12) 1. 0
H1 H1+ 2 a 0.9594 0.4798 0.8106 0.09(3) 1. 0
H2 H1+ 2 a 0.9966 0.7186 0.9389 0.18(8) 1. 0
loop_
_atom_site_aniso_label
_atom_site_aniso_type_symbol
_atom_site_aniso_U_11
_atom_site_aniso_U_22
_atom_site_aniso_U_33
_atom_site_aniso_U_12
_atom_site_aniso_U_13
_atom_site_aniso_U_23
Li1 Li1+ 0.022(2) 0.015(3) 0.021(2) 0.004(5) 0.0064(19) 0.001(6)
Li2 Li1+ 0.023(2) 0.018(4) 0.023(2) 0.000(4) 0.006(2) 0.001(4)
Se1 Se6+ 0.01582(14) 0.01037(15) 0.01104(14) 0.0002(2) 0.00386(9) -0.0001(2)
O1 O2- 0.0323(14) 0.0108(15) 0.0156(14) -0.0006(12) 0.0051(11) -0.0010(9)
O2 O2- 0.0277(14) 0.0177(14) 0.0184(13) 0.0049(12) 0.0138(11) 0.0033(11)
O3 O2- 0.0235(13) 0.0163(14) 0.0129(12) -0.0033(11) 0.0002(10) -0.0004(10)
O4 O2- 0.0157(10) 0.0279(18) 0.0233(13) 0.0025(11) 0.0049(9) -0.0050(11)
O5 O2- 0.0325(15) 0.047(3) 0.057(2) -0.0053(19) 0.0252(16) -0.016(2)
#End of TTdata_281276-ICSD