
#(C) 2018 by FIZ Karlsruhe - Leibniz Institute for Information Infrastructure.  All rights reserved.
data_281330-ICSD
_database_code_ICSD 281330
_audit_creation_date 2004-04-01
_chemical_name_systematic 'Cesium lithium sulfate(VI) (1.15/2.85/2)'
_chemical_formula_structural 'Cs1.15 Li2.85 (S O4)2'
_chemical_formula_sum 'Cs1.15 Li2.85 O8 S2'
_exptl_crystal_density_diffrn 2.86
_publ_section_title 'New crystals in the lithium sulfate family'
loop_
_citation_id
_citation_journal_full
_citation_year
_citation_journal_volume
_citation_page_first
_citation_page_last
_citation_journal_id_ASTM
primary 'Acta Crystallographica, Section C: Crystal Structure Communications'
2003 59 i67 i70 ACSCEE
loop_
_publ_author_name
'Lima, R.J.C.'
'Sasaki, J.M.'
'Ayala, A.P.'
'Freire, P.T.C.'
'Mendes-Filho, J.'
'Melo, F.E.A.'
'Ellena, J.'
'Santos, S.jr.'
_cell_length_a 5.0620(2)
_cell_length_b 5.2230(3)
_cell_length_c 16.0060(9)
_cell_angle_alpha 90.
_cell_angle_beta 90.
_cell_angle_gamma 90.
_cell_volume 423.18
_cell_formula_units_Z 2
_symmetry_space_group_name_H-M 'P m c 21'
_symmetry_Int_Tables_number 26
_refine_ls_R_factor_all 0.044
loop_
_symmetry_equiv_pos_site_id
_symmetry_equiv_pos_as_xyz
1 'x, -y, z+1/2'
2 '-x, -y, z+1/2'
3 '-x, y, z'
4 'x, y, z'
loop_
_atom_type_symbol
_atom_type_oxidation_number
Cs1+ 1
S6+ 6
O2- -2
Li1+ 1
loop_
_atom_site_label
_atom_site_type_symbol
_atom_site_symmetry_multiplicity
_atom_site_Wyckoff_symbol
_atom_site_fract_x
_atom_site_fract_y
_atom_site_fract_z
_atom_site_B_iso_or_equiv
_atom_site_occupancy
_atom_site_attached_hydrogens
Cs1 Cs1+ 2 a 0 0.73578(12) 0.73304(8) 0.0435(4) 1. 0
Cs2 Cs1+ 2 b 0.5 0.7927(15) 0.8695(9) 0.076(2) 0.15 0
S1 S6+ 2 a 0 0.3338(5) 0.9399(3) 0.0342(6) 1. 0
S2 S6+ 2 b 0.5 0.2659(4) 0.6459(2) 0.0323(7) 1. 0
O1 O2- 2 a 0 0.6152(18) 0.9503(6) 0.052(2) 1. 0
O2 O2- 4 c -.105(4) 0.2508(16) 0.8594(11) 0.044(3) 0.5 0
O3 O2- 4 c -.292(3) 0.2743(19) 0.9397(11) 0.045(3) 0.5 0
O4 O2- 4 c -.122(2) 0.806(2) 0.5115(9) 0.041(3) 0.5 0
O5 O2- 2 b 0.5 0.5347(16) 0.6273(6) 0.063(3) 1. 0
O6 O2- 4 c -.412(3) 1.222(2) 0.7254(14) 0.046(3) 0.5 0
O7 O2- 4 c -.3666(18) 1.1020(19) 0.5844(9) 0.048(2) 0.5 0
O8 O2- 4 c -.206(4) 1.2204(19) 0.6371(13) 0.045(3) 0.5 0
Li1 Li1+ 2 a 0 0.146(3) 0.5411(12) 0.036(3) 1. 0
Li2 Li1+ 2 b 0.5 1.168(6) 0.8464(14) 0.025(4) 0.65 0
Li3 Li1+ 2 b 0.5 0.889(9) 0.631(2) 0.025(4) 0.4 0
Li4 Li1+ 2 b 0.5 0.786(4) 0.924(2) 0.036(3) 0.8 0
loop_
_atom_site_aniso_label
_atom_site_aniso_type_symbol
_atom_site_aniso_U_11
_atom_site_aniso_U_22
_atom_site_aniso_U_33
_atom_site_aniso_U_12
_atom_site_aniso_U_13
_atom_site_aniso_U_23
Cs1 Cs1+ 0.0462(5) 0.0380(5) 0.0463(5) 0 0 0.0003(4)
Cs2 Cs1+ 0.078(6) 0.058(4) 0.092(8) 0 0 0.001(4)
S1 S6+ 0.0343(11) 0.0330(13) 0.0355(11) 0 0 0.0007(10)
S2 S6+ 0.0358(15) 0.0280(13) 0.0332(15) 0 0 -0.0006(9)
O1 O2- 0.065(5) 0.051(5) 0.041(4) 0 0 0.001(4)
O2 O2- 0.049(8) 0.049(8) 0.035(6) -0.019(4) -0.022(6) 0.006(4)
O3 O2- 0.030(6) 0.047(6) 0.057(8) -0.004(4) 0.007(6) 0.001(5)
O4 O2- 0.028(5) 0.028(4) 0.068(7) -0.002(4) -0.013(5) -0.012(5)
O5 O2- 0.112(8) 0.034(4) 0.043(4) 0 0 0.016(4)
O6 O2- 0.055(6) 0.063(6) 0.022(7) -0.006(4) -0.001(6) 0.001(5)
O7 O2- 0.045(5) 0.045(5) 0.053(5) 0.006(4) 0.027(6) -0.004(6)
O8 O2- 0.032(7) 0.035(5) 0.067(9) 0.006(5) -0.012(6) -0.008(5)
Li1 Li1+ 0.041(7) 0.021(6) 0.046(8) 0 0 0.004(5)
Li2 Li1+ 0.031(9) 0.025(12) 0.018(9) 0 0 -0.009(7)
Li3 Li1+ 0.031(9) 0.025(12) 0.018(9) 0 0 -0.009(7)
Li4 Li1+ 0.041(7) 0.021(6) 0.046(8) 0 0 0.004(5)
#End of TTdata_281330-ICSD