
#(C) 2018 by FIZ Karlsruhe - Leibniz Institute for Information Infrastructure.  All rights reserved.
data_290923-ICSD
_database_code_ICSD 290923
_audit_creation_date 2014-08-01
_chemical_name_systematic
'Lithium trivanadium tris(diphosphate) bis(orthophosphate)'
_chemical_formula_structural 'Li7.46 V3 (P2 O7)3 (P O4)2'
_chemical_formula_sum 'Li7.46 O29 P8 V3'
_exptl_crystal_density_diffrn 2.7
_cell_measurement_temperature 295.
_publ_section_title

;
Crystal structures and long-range spin orders for the delithiated phase of Li9
V3 (P2 O7)3 (P O4)2 insertion electrode system
;
loop_
_citation_id
_citation_journal_full
_citation_year
_citation_journal_volume
_citation_page_first
_citation_page_last
_citation_journal_id_ASTM
primary 'Journal of the Physical Society of Japan' 2013 82 074801-1 074801-7
JUPSAU
loop_
_publ_author_name
'Onoda, Masashige'
'Ikeda, Satoshi'
_cell_length_a 9.748(1)
_cell_length_b 9.748(1)
_cell_length_c 13.691(2)
_cell_angle_alpha 90.
_cell_angle_beta 90.
_cell_angle_gamma 120.
_cell_volume 1126.67
_cell_formula_units_Z 2
_symmetry_space_group_name_H-M 'P -3 c 1'
_symmetry_Int_Tables_number 165
_refine_ls_R_factor_all 0.031
loop_
_symmetry_equiv_pos_site_id
_symmetry_equiv_pos_as_xyz
1 'x-y, -y, -z+1/2'
2 '-x, -x+y, -z+1/2'
3 'y, x, -z+1/2'
4 'x-y, x, -z'
5 'y, -x+y, -z'
6 '-x, -y, -z'
7 '-x+y, y, z+1/2'
8 'x, x-y, z+1/2'
9 '-y, -x, z+1/2'
10 '-x+y, -x, z'
11 '-y, x-y, z'
12 'x, y, z'
loop_
_atom_type_symbol
_atom_type_oxidation_number
V3+ 3.513
P5+ 5
O2- -2
Li1+ 1
loop_
_atom_site_label
_atom_site_type_symbol
_atom_site_symmetry_multiplicity
_atom_site_Wyckoff_symbol
_atom_site_fract_x
_atom_site_fract_y
_atom_site_fract_z
_atom_site_B_iso_or_equiv
_atom_site_occupancy
_atom_site_attached_hydrogens
V1 V3+ 6 f 0 0.43024(2) 0.25 0.549(4) 1. 0
P1 P5+ 4 d 0.6667 0.3333 0.12532(3) 0.580(6) 1. 0
P2 P5+ 12 g 0.23402(3) 0.32342(3) 0.15667(2) 0.574(4) 1. 0
O1 O2- 4 d 0.6667 0.3333 0.0158(2) 3.14(5) 1. 0
O2 O2- 6 f 0.2192(1) 0.2192(1) 0.25 0.98(2) 1. 0
O3 O2- 12 g 0.51592(8) 0.18484(8) 0.16297(6) 1.10(1) 1. 0
O4 O2- 12 g 0.37402(8) 0.49062(8) 0.17274(5) 0.875(8) 1. 0
O5 O2- 12 g 0.08101(8) 0.32970(8) 0.15597(5) 0.803(8) 1. 0
O6 O2- 12 g 0.25132(9) 0.24521(9) 0.06744(5) 1.065(9) 1. 0
Li1 Li1+ 4 d 0.3333 0.6667 0.1171(3) 1.26(8) 1. 0
Li2 Li1+ 12 g 0.3187(4) 0.0919(3) 0.0610(2) 1.52(4) 0.91(2) 0
loop_
_atom_site_aniso_label
_atom_site_aniso_type_symbol
_atom_site_aniso_U_11
_atom_site_aniso_U_22
_atom_site_aniso_U_33
_atom_site_aniso_U_12
_atom_site_aniso_U_13
_atom_site_aniso_U_23
V1 V3+ 0.00612(7) 0.00608(6) 0.00866(7) 0.00306(3) 0.00043(5) 0.00021(2)
P1 P5+ 0.00693(8) 0.00727(8) 0.0075(2) 0.00367(4) 0 0
P2 P5+ 0.00819(8) 0.00819(8) 0.00757(8) 0.00445(6) -0.00073(6) -0.00098(6)
O1 O2- 0.0560(9) 0.0560(9) 0.0074(5) 0.0280(5) 0 0
O2 O2- 0.0115(3) 0.0115(3) 0.0117(4) 0.0037(3) -0.0031(2) 0.0031(2)
O3 O2- 0.0088(3) 0.0091(3) 0.0217(3) 0.0028(2) -0.0008(2) -0.0012(2)
O4 O2- 0.0085(3) 0.0093(3) 0.0130(3) 0.0025(2) -0.0023(2) 0.0004(2)
O5 O2- 0.0087(2) 0.0124(3) 0.0115(3) 0.0069(2) -0.0018(2) -0.0031(2)
O6 O2- 0.0184(3) 0.0174(3) 0.0099(2) 0.0129(3) -0.0014(2) -0.0028(2)
Li1 Li1+ 0.018(2) 0.018(5) 0.012(2) 0.0090(7) 0 0
Li2 Li1+ 0.030(2) 0.0159(9) 0.0138(9) 0.0131(9) -0.0005(8) 0.0009(7)
#End of TTdata_290923-ICSD