
#(C) 2018 by FIZ Karlsruhe - Leibniz Institute for Information Infrastructure.  All rights reserved.
data_291513-ICSD
_database_code_ICSD 291513
_audit_creation_date 2016-02-01
_chemical_name_systematic 'Lithium disodium pentaborotetradecaoxodiphosphate(V)'
_chemical_formula_structural 'Li Na2 B5 P2 O14'
_chemical_formula_sum 'B5 Li1 Na2 O14 P2'
_exptl_crystal_density_diffrn 2.31
_publ_section_title

;
Synthesis and crystal structure analysis of Li2 Na B P2 O8 and Li Na2 B5 P2
O14
;
loop_
_citation_id
_citation_journal_full
_citation_year
_citation_journal_volume
_citation_page_first
_citation_page_last
_citation_journal_id_ASTM
primary 'Journal of Solid State Chemistry' 2015 225 65 71 JSSCBI
loop_
_publ_author_name
'Hasegawa, Toru'
'Yamane, Hisanori'
_cell_length_a 8.208(3)
_cell_length_b 9.151(3)
_cell_length_c 8.349(3)
_cell_angle_alpha 90
_cell_angle_beta 115.709(7)
_cell_angle_gamma 90
_cell_volume 565.03
_cell_formula_units_Z 2
_symmetry_space_group_name_H-M 'P 1 21/m 1'
_symmetry_Int_Tables_number 11
loop_
_symmetry_equiv_pos_site_id
_symmetry_equiv_pos_as_xyz
1 'x, -y+1/2, z'
2 '-x, -y, -z'
3 '-x, y+1/2, -z'
4 'x, y, z'
loop_
_atom_type_symbol
_atom_type_oxidation_number
Li1+ 1
Na1+ 1
B3+ 3
P5+ 5
O2- -2
loop_
_atom_site_label
_atom_site_type_symbol
_atom_site_symmetry_multiplicity
_atom_site_Wyckoff_symbol
_atom_site_fract_x
_atom_site_fract_y
_atom_site_fract_z
_atom_site_B_iso_or_equiv
_atom_site_occupancy
_atom_site_attached_hydrogens
Li1 Li1+ 2 e 0.0144(8) 0.25 0.7154(8) 0.0183(13) 1. 0
Na1 Na1+ 2 e 0.6034(2) 0.25 0.53499(19) 0.0260(4) 1. 0
Na2 Na1+ 2 e 0.8341(2) 0.25 0.95832(19) 0.0255(4) 1. 0
B1 B3+ 2 e 0.2656(5) 0.25 0.5453(5) 0.0124(8) 1. 0
B2 B3+ 2 e 0.2806(5) 0.25 0.0982(5) 0.0123(8) 1. 0
B3 B3+ 2 e 0.9490(5) 0.25 0.3494(5) 0.0120(8) 1. 0
B4 B3+ 2 e 0.4151(5) 0.25 0.8845(5) 0.0147(8) 1. 0
B5 B3+ 2 e 0.6105(5) 0.25 0.1995(5) 0.0157(8) 1. 0
P1 P5+ 4 f 0.15342(8) 0.05756(7) 0.27310(8) 0.0120(2) 1. 0
O1 O2- 4 f 0.2981(2) 0.11792(19) 0.4514(2) 0.0136(4) 1. 0
O2 O2- 4 f 0.0322(2) 0.6182(2) 0.7508(2) 0.0196(4) 1. 0
O3 O2- 4 f 0.1859(3) 0.1187(2) 0.1168(2) 0.0266(5) 1. 0
O4 O2- 4 f 0.1555(2) 0.6040(2) 0.2673(2) 0.0176(4) 1. 0
O5 O2- 2 e 0.4104(3) 0.25 0.7209(3) 0.0158(5) 1. 0
O6 O2- 2 e 0.0849(3) 0.25 0.5273(3) 0.0127(5) 1. 0
O7 O2- 2 e 0.2656(3) 0.25 0.9166(3) 0.0127(5) 1. 0
O8 O2- 2 e 0.4630(3) 0.25 0.2318(3) 0.0233(7) 1. 0
O9 O2- 2 e 0.7726(3) 0.25 0.3418(3) 0.0184(6) 1. 0
O10 O2- 2 e 0.5881(3) 0.25 0.0243(3) 0.0194(6) 1. 0
loop_
_atom_site_aniso_label
_atom_site_aniso_type_symbol
_atom_site_aniso_U_11
_atom_site_aniso_U_22
_atom_site_aniso_U_33
_atom_site_aniso_U_12
_atom_site_aniso_U_13
_atom_site_aniso_U_23
Li1 Li1+ 0.014(3) 0.025(3) 0.018(3) 0 0.009(3) 0
Na1 Na1+ 0.0174(8) 0.0437(11) 0.0140(8) 0 0.0041(7) 0
Na2 Na1+ 0.0207(8) 0.0435(11) 0.0146(8) 0 0.0097(7) 0
B1 B3+ 0.0099(17) 0.021(2) 0.0057(17) 0 0.0025(15) 0
B2 B3+ 0.0100(17) 0.020(2) 0.0086(18) 0 0.0054(16) 0
B3 B3+ 0.0078(17) 0.019(2) 0.0076(17) 0 0.0016(15) 0
B4 B3+ 0.0094(18) 0.026(2) 0.0082(19) 0 0.0032(16) 0
B5 B3+ 0.0078(17) 0.028(2) 0.0090(19) 0 0.0017(16) 0
P1 P5+ 0.0136(3) 0.0113(4) 0.0109(4) 0.0001(2) 0.0052(3) 0.0007(2)
O1 O2- 0.0118(8) 0.0170(9) 0.0109(8) 0.0015(7) 0.0039(7) -0.0008(7)
O2 O2- 0.0112(9) 0.0228(10) 0.0179(10) -0.0043(7) -0.0002(8) 0.0084(7)
O3 O2- 0.0414(12) 0.0275(11) 0.0135(9) -0.0193(9) 0.0143(9) -0.0041(8)
O4 O2- 0.0191(9) 0.0114(9) 0.0224(10) 0.0000(7) 0.0090(8) 0.0003(7)
O5 O2- 0.0081(11) 0.0296(15) 0.0092(12) 0 0.0033(10) 0
O6 O2- 0.0080(11) 0.0230(14) 0.0079(12) 0 0.0044(10) 0
O7 O2- 0.0078(11) 0.0243(14) 0.0063(11) 0 0.0034(10) 0
O8 O2- 0.0072(12) 0.055(2) 0.0075(12) 0 0.0031(11) 0
O9 O2- 0.0082(12) 0.0368(16) 0.0108(12) 0 0.0047(11) 0
O10 O2- 0.0100(12) 0.0409(17) 0.0078(12) 0 0.0045(10) 0
#End of TTdata_291513-ICSD