
#(C) 2018 by FIZ Karlsruhe - Leibniz Institute for Information Infrastructure.  All rights reserved.
data_300243-ICSD
_database_code_ICSD 300243
_audit_creation_date 1992-08-20
_audit_update_record 2008-08-01
_chemical_name_systematic 'Lithium dioxoniobate(III)'
_chemical_formula_structural 'Li (Nb O2)'
_chemical_formula_sum 'Li1 Nb1 O2'
_chemical_name_structure_type TiAs
_exptl_crystal_density_diffrn 5.71
_cell_measurement_temperature 293.
_publ_section_title

;
Synthesis, structure, and X-ray absorption spectra of Lix Nb O2 and Nax Nb O3
(x<1)
;
loop_
_citation_id
_citation_journal_full
_citation_year
_citation_journal_volume
_citation_page_first
_citation_page_last
_citation_journal_id_ASTM
primary 'Zeitschrift fuer Anorganische und Allgemeine Chemie (1950) (DE)' 1993
619 1369 1373 ZAACAB
loop_
_publ_author_name
'Roth, H.F.'
'Meyer, G.'
'Hu, Z.-W.'
'Kaindl, G.'
_cell_length_a 2.9077(3)
_cell_length_b 2.9077(3)
_cell_length_c 10.468(6)
_cell_angle_alpha 90.
_cell_angle_beta 90.
_cell_angle_gamma 120.
_cell_volume 76.65
_cell_formula_units_Z 2
_symmetry_space_group_name_H-M 'P 63/m m c'
_symmetry_Int_Tables_number 194
_refine_ls_R_factor_all 0.039
loop_
_symmetry_equiv_pos_site_id
_symmetry_equiv_pos_as_xyz
1 'x, x-y, -z+1/2'
2 '-x+y, y, -z+1/2'
3 '-y, -x, -z+1/2'
4 '-x+y, -x, -z+1/2'
5 '-y, x-y, -z+1/2'
6 'x, y, -z+1/2'
7 '-x, -x+y, z+1/2'
8 'x-y, -y, z+1/2'
9 'y, x, z+1/2'
10 'x-y, x, z+1/2'
11 'y, -x+y, z+1/2'
12 '-x, -y, z+1/2'
13 '-x, -x+y, -z'
14 'x-y, -y, -z'
15 'y, x, -z'
16 'x-y, x, -z'
17 'y, -x+y, -z'
18 '-x, -y, -z'
19 'x, x-y, z'
20 '-x+y, y, z'
21 '-y, -x, z'
22 '-x+y, -x, z'
23 '-y, x-y, z'
24 'x, y, z'
loop_
_atom_type_symbol
_atom_type_oxidation_number
Nb3+ 3
O2- -2
Li1+ 1
loop_
_atom_site_label
_atom_site_type_symbol
_atom_site_symmetry_multiplicity
_atom_site_Wyckoff_symbol
_atom_site_fract_x
_atom_site_fract_y
_atom_site_fract_z
_atom_site_B_iso_or_equiv
_atom_site_occupancy
_atom_site_attached_hydrogens
Nb1 Nb3+ 2 d 0.6667 0.3333 0.25 . 1. 0
O1 O2- 4 f 0.3333 0.6667 0.1239(6) . 1. 0
Li1 Li1+ 2 a 0 0 0 . 1. 0
loop_
_atom_site_aniso_label
_atom_site_aniso_type_symbol
_atom_site_aniso_beta_11
_atom_site_aniso_beta_22
_atom_site_aniso_beta_33
_atom_site_aniso_beta_12
_atom_site_aniso_beta_13
_atom_site_aniso_beta_23
Nb1 Nb3+ 0.0076(3) 0.0076 0.0129(5) 0.0038 0 0
O1 O2- 0.010(3) 0.01 0.017(3) 0.005 0 0
Li1 Li1+ 0.018(7) 0.018 0.020(18) 0.009 0 0
#End of TTdata_300243-ICSD