
#(C) 2018 by FIZ Karlsruhe - Leibniz Institute for Information Infrastructure.  All rights reserved.
data_31050-ICSD
_database_code_ICSD 31050
_audit_creation_date 1980-12-31
_chemical_name_systematic 'Hexalithium digermanium heptaoxide'
_chemical_formula_structural 'Li6 Ge2 O7'
_chemical_formula_sum 'Ge2 Li6 O7'
_exptl_crystal_density_diffrn 3.26
_publ_section_title

;
Die Kristallstruktur von Li6 Ge2 O7 und ihre Beziehung zu den Nachbarphasen
Li4 Ge O4 und Li2 Ge O3
;
loop_
_citation_id
_citation_journal_full
_citation_year
_citation_journal_volume
_citation_page_first
_citation_page_last
_citation_journal_id_ASTM
primary 'Zeitschrift fuer Kristallographie (1979-2010)' 1980 153 131 139 ZEKRDZ
loop_
_publ_author_name
'Voellenkle, H.'
_cell_length_a 8.071(3)
_cell_length_b 5.304(2)
_cell_length_c 14.223(5)
_cell_angle_alpha 90.
_cell_angle_beta 92.90(3)
_cell_angle_gamma 90.
_cell_volume 608.09
_cell_formula_units_Z 4
_symmetry_space_group_name_H-M 'P 1 21/n 1'
_symmetry_Int_Tables_number 14
_refine_ls_R_factor_all 0.037
loop_
_symmetry_equiv_pos_site_id
_symmetry_equiv_pos_as_xyz
1 '-x+1/2, y+1/2, -z+1/2'
2 '-x, -y, -z'
3 'x+1/2, -y+1/2, z+1/2'
4 'x, y, z'
loop_
_atom_type_symbol
_atom_type_oxidation_number
Ge4+ 4
O2- -2
Li1+ 1
loop_
_atom_site_label
_atom_site_type_symbol
_atom_site_symmetry_multiplicity
_atom_site_Wyckoff_symbol
_atom_site_fract_x
_atom_site_fract_y
_atom_site_fract_z
_atom_site_B_iso_or_equiv
_atom_site_occupancy
_atom_site_attached_hydrogens
Ge1 Ge4+ 4 e 0.01294(5) 0.17186(7) 0.16884(3) . 1. 0
Ge2 Ge4+ 4 e 0.64848(5) 0.34997(7) 0.08785(3) . 1. 0
O1 O2- 4 e 0.0002(4) 0.8461(5) 0.1597(2) . 1. 0
O2 O2- 4 e 0.0900(3) 0.3217(5) 0.0708(2) . 1. 0
O3 O2- 4 e 0.2844(3) 0.7783(5) 0.0161(2) . 1. 0
O4 O2- 4 e 0.3626(3) 0.7724(6) 0.2338(2) . 1. 0
O5 O2- 4 e 0.4586(3) 0.2302(5) 0.1202(2) . 1. 0
O6 O2- 4 e 0.6465(3) 0.6775(5) 0.0896(2) . 1. 0
O7 O2- 4 e 0.8017(3) 0.2799(6) 0.1832(2) . 1. 0
Li1 Li1+ 4 e 0.2988(10) 0.51432 0.1208(6) 0.0211(16) 1. 0
Li2 Li1+ 4 e 0.0524(9) 0.6931(14) 0.0432(5) 0.0148(14) 1. 0
Li3 Li1+ 4 e 0.2732(10) 0.1455(13) 0.0146(5) 0.0152(14) 1. 0
Li4 Li1+ 4 e 0.3712(10) 0.1718(14) 0.2436(5) 0.0163(14) 1. 0
Li5 Li1+ 4 e 0.4608(10) 0.8710(13) 0.1152(5) 0.0145(14) 1. 0
Li6 Li1+ 4 e 0.7925(10) 0.7301(15) 0.1954(6) 0.0188(15) 1. 0
loop_
_atom_site_aniso_label
_atom_site_aniso_type_symbol
_atom_site_aniso_U_11
_atom_site_aniso_U_22
_atom_site_aniso_U_33
_atom_site_aniso_U_12
_atom_site_aniso_U_13
_atom_site_aniso_U_23
Ge1 Ge4+ 0.0053(2) 0.0051(2) 0.0085(2) -.0004(1) 0.0013(1) -.0001(1)
Ge2 Ge4+ 0.0051(2) 0.0051(2) 0.0087(2) -.0001(1) 0.0017(1) -.0002(1)
O1 O2- 0.0190(13) 0.0051(11) 0.0155(13) -.0025(9) 0.0026(10) 0.0004(9)
O2 O2- 0.0080(12) 0.0140(12) 0.0117(12) 0.0000(9) 0.0032(10) 0.0023(10)
O3 O2- 0.0111(12) 0.0089(11) 0.0081(12) 0.0014(10) 0.0024(10) -.0021(9)
O4 O2- 0.0084(12) 0.0165(13) 0.0102(12) -.0023(10) -.0007(10) 0.0029(10)
O5 O2- 0.0082(11) 0.0082(11) 0.0131(13) -.0025(9) 0.0043(10) 0.0002(9)
O6 O2- 0.0109(13) 0.0069(12) 0.0140(13) 0.0012(10) 0.0040(11) -.0006(10)
O7 O2- 0.0061(12) 0.0172(13) 0.0128(13) 0.004(1) 0.0019(10) 0.0021(11)
#End of TTdata_31050-ICSD