
#(C) 2018 by FIZ Karlsruhe - Leibniz Institute for Information Infrastructure.  All rights reserved.
data_31800-ICSD
_database_code_ICSD 31800
_audit_creation_date 1982-12-31
_audit_update_record 2003-04-01
_chemical_name_systematic 'Lithium europium oxide (2/5/8) - beta'
_chemical_formula_structural 'Li2 Eu5 O8'
_chemical_formula_sum 'Eu5 Li2 O8'
_exptl_crystal_density_diffrn 7.5
_publ_section_title

;
The crystal structures of the modifications of the new Eu(II)-
Eu(III)-compound Li2 Eu5 O8 and the crystal data of the isostructural
compounds Li2 Sr Eu4 O8 and Li2 Ba Eu4 O8
;
loop_
_citation_id
_citation_journal_full
_citation_year
_citation_journal_volume
_citation_page_first
_citation_page_last
_citation_journal_id_ASTM
primary 'Rare Earths in Modern Science and Technology' 1973 10 490 499 41VWAS
loop_
_publ_author_name
'Baernighausen, H.'
'Schuster, R.'
'Vogt, K.'
_cell_length_a 13.152(4)
_cell_length_b 17.137(6)
_cell_length_c 3.545(1)
_cell_angle_alpha 90.
_cell_angle_beta 90.
_cell_angle_gamma 90.
_cell_volume 798.99
_cell_formula_units_Z 4
_symmetry_space_group_name_H-M 'A 21 a m'
_symmetry_Int_Tables_number 36
loop_
_symmetry_equiv_pos_site_id
_symmetry_equiv_pos_as_xyz
1 'x+1/2, -y, z'
2 'x+1/2, -y, -z'
3 'x, y, -z'
4 'x, y, z'
5 'x+1/2, -y+1/2, z+1/2'
6 'x+1/2, -y+1/2, -z+1/2'
7 'x, y+1/2, -z+1/2'
8 'x, y+1/2, z+1/2'
loop_
_atom_type_symbol
_atom_type_oxidation_number
Eu2+ 2
Eu3+ 3
Li1+ 1
O2- -2
loop_
_atom_site_label
_atom_site_type_symbol
_atom_site_symmetry_multiplicity
_atom_site_Wyckoff_symbol
_atom_site_fract_x
_atom_site_fract_y
_atom_site_fract_z
_atom_site_B_iso_or_equiv
_atom_site_occupancy
_atom_site_attached_hydrogens
Eu1 Eu2+ 4 a 0.5 -.01082(4) 0 0.83 1. 0
Eu2 Eu3+ 4 a 0.42717(7) 0.18837(4) 0 0.6 1. 0
Eu3 Eu3+ 4 a 0.28700(7) 0.34987(3) 0.5 0.55 1. 0
Eu4 Eu3+ 4 a 0.13822(7) 0.19850(3) 0 0.53 1. 0
Eu5 Eu3+ 4 a 0.25211(7) 0.03425(4) 0.5 0.62 1. 0
Li1 Li1+ 4 a 0.6056(32) 0.1219(25) 0.5 2.2 1. 0
Li2 Li1+ 4 a 0.4668(29) 0.3502(21) 0 1.8 1. 0
O1 O2- 4 a 0.4639(9) 0.0999(6) 0.5 0.85 1. 0
O2 O2- 4 a 0.4572(8) 0.2902(6) 0.5 0.68 1. 0
O3 O2- 4 a 0.3659(8) 0.4299(6) 0 0.75 1. 0
O4 O2- 4 a 0.2857(10) 0.2709(6) 0 0.7 1. 0
O5 O2- 4 a 0.1123(8) 0.2910(6) 0.5 0.64 1. 0
O6 O2- 4 a 0.0972(9) 0.1047(6) 0.5 0.76 1. 0
O7 O2- 4 a 0.1768(9) -.0435(6) 0 0.93 1. 0
O8 O2- 4 a 0.2806(10) 0.1122(6) 0 0.79 1. 0
#End of TTdata_31800-ICSD