
#(C) 2018 by FIZ Karlsruhe - Leibniz Institute for Information Infrastructure.  All rights reserved.
data_35589-ICSD
_database_code_ICSD 35589
_audit_creation_date 1983-12-31
_chemical_name_systematic 'Terbium Lithium dicopper(I) phosphide'
_chemical_formula_structural 'Tb Li Cu2 P2'
_chemical_formula_sum 'Cu2 Li1 P2 Tb1'
_chemical_name_structure_type Li3LaSb2
_exptl_crystal_density_diffrn 6.5
_publ_section_title 'A B2 X2-Verbindungen mit Ca Al2 Si2-Struktur, IX'
loop_
_citation_id
_citation_journal_full
_citation_year
_citation_journal_volume
_citation_page_first
_citation_page_last
_citation_journal_id_ASTM
primary

;
Zeitschrift fuer Naturforschung, Teil B. Anorganische Chemie, Organische
Chemie (33,1978-41,1986)
; 1983 38 1041 1045 ZNBAD2
loop_
_publ_author_name
'Mahan, A.'
'Mewis, A.'
_cell_length_a 3.994(1)
_cell_length_b 3.994(1)
_cell_length_c 6.563(2)
_cell_angle_alpha 90.
_cell_angle_beta 90.
_cell_angle_gamma 120.
_cell_volume 90.67
_cell_formula_units_Z 1
_symmetry_space_group_name_H-M 'P -3 m 1'
_symmetry_Int_Tables_number 164
_refine_ls_R_factor_all 0.027
loop_
_symmetry_equiv_pos_site_id
_symmetry_equiv_pos_as_xyz
1 'x-y, -y, -z'
2 '-x, -x+y, -z'
3 'y, x, -z'
4 'x-y, x, -z'
5 'y, -x+y, -z'
6 '-x, -y, -z'
7 '-x+y, y, z'
8 'x, x-y, z'
9 '-y, -x, z'
10 '-x+y, -x, z'
11 '-y, x-y, z'
12 'x, y, z'
loop_
_atom_type_symbol
_atom_type_oxidation_number
Tb3+ 3
Cu1+ 1
Li1+ 1
P3- -3
loop_
_atom_site_label
_atom_site_type_symbol
_atom_site_symmetry_multiplicity
_atom_site_Wyckoff_symbol
_atom_site_fract_x
_atom_site_fract_y
_atom_site_fract_z
_atom_site_B_iso_or_equiv
_atom_site_occupancy
_atom_site_attached_hydrogens
Tb1 Tb3+ 1 a 0 0 0 . 1. 0
Cu1 Cu1+ 2 d 0.3333 0.6667 0.6569(3) . 1. 0
Li1 Li1+ 1 b 0 0 0.5 . 1. 0
P1 P3- 2 d 0.3333 0.6667 0.2593(4) . 1. 0
loop_
_atom_site_aniso_label
_atom_site_aniso_type_symbol
_atom_site_aniso_U_11
_atom_site_aniso_U_22
_atom_site_aniso_U_33
_atom_site_aniso_U_12
_atom_site_aniso_U_13
_atom_site_aniso_U_23
Tb1 Tb3+ 0.0061(1) 0.0061(1) 0.0056(3) 0.0030(1) 0 0
Cu1 Cu1+ 0.0113(2) 0.0113(2) 0.0195(7) 0.0056(3) 0 0
Li1 Li1+ 0.0202(26) 0.0202(26) 0.0146(50) 0.0101(26) 0 0
P1 P3- 0.0061(3) 0.0061(3) 0.0039(8) 0.0030(3) 0 0
#End of TTdata_35589-ICSD