
#(C) 2017 by FIZ Karlsruhe - Leibniz Institute for Information Infrastructure.  All rights reserved.
data_35763-ICSD
_database_code_ICSD 35763
_audit_creation_date 1983-12-31
_chemical_name_systematic 'Lithium didysprosium(II) chloride'
_chemical_formula_structural 'Li Dy2 Cl5'
_chemical_formula_sum 'Cl5 Dy2 Li1'
_chemical_name_structure_type FeU2S5
_exptl_crystal_density_diffrn 4.58
_publ_section_title

;
Li Dy2 Cl5, ein Zwischenprodukt bei der "metallothermischen" Reduktion von Dy
Cl3 mit Lithium
;
loop_
_citation_id
_citation_journal_full
_citation_year
_citation_journal_volume
_citation_page_first
_citation_page_last
_citation_journal_id_ASTM
primary 'Zeitschrift fuer Anorganische und Allgemeine Chemie (1950) (DE)' 1983
507 111 118 ZAACAB
loop_
_publ_author_name
'Meyer, G.'
_cell_length_a 15.456(7)
_cell_length_b 6.592(2)
_cell_length_c 7.287(3)
_cell_angle_alpha 90.
_cell_angle_beta 95.79(3)
_cell_angle_gamma 90.
_cell_volume 738.66
_cell_formula_units_Z 4
_symmetry_space_group_name_H-M 'C 1 2/c 1'
_symmetry_Int_Tables_number 15
_refine_ls_R_factor_all 0.091
loop_
_symmetry_equiv_pos_site_id
_symmetry_equiv_pos_as_xyz
1 'x, -y, z+1/2'
2 '-x, -y, -z'
3 '-x, y, -z+1/2'
4 'x, y, z'
5 'x+1/2, -y+1/2, z+1/2'
6 '-x+1/2, -y+1/2, -z'
7 '-x+1/2, y+1/2, -z+1/2'
8 'x+1/2, y+1/2, z'
loop_
_atom_type_symbol
_atom_type_oxidation_number
Li1+ 1
Dy2+ 2
Cl1- -1
loop_
_atom_site_label
_atom_site_type_symbol
_atom_site_symmetry_multiplicity
_atom_site_Wyckoff_symbol
_atom_site_fract_x
_atom_site_fract_y
_atom_site_fract_z
_atom_site_B_iso_or_equiv
_atom_site_occupancy
_atom_site_attached_hydrogens
Li1 Li1+ 4 c 0.25 0.25 0 . 1. 0
Dy1 Dy2+ 8 f 0.39557(5) 0.27276(9) 0.43140(9) . 1. 0
Cl1 Cl1- 8 f 0.2208(2) 0.0678(5) 0.3156(5) . 1. 0
Cl2 Cl1- 8 f 0.4091(2) 0.1267(5) 0.0713(5) . 1. 0
Cl3 Cl1- 4 e 0 0.0695(7) 0.25 . 1. 0
loop_
_atom_site_aniso_label
_atom_site_aniso_type_symbol
_atom_site_aniso_U_11
_atom_site_aniso_U_22
_atom_site_aniso_U_33
_atom_site_aniso_U_12
_atom_site_aniso_U_13
_atom_site_aniso_U_23
Li1 Li1+ 0.045(26) 0.063(32) 0.064(32) -0.019(26) -0.020(23) 0.027(30)
Dy1 Dy2+ 0.0210(3) 0.0189(3) 0.0135(2) -.0021(3) 0.0036(2) -.0007(3)
Cl1 Cl1- 0.0189(15) 0.0234(16) 0.0180(16) -.0006(12) 0.0039(13) 0.0000(13)
Cl2 Cl1- 0.0237(17) 0.0259(17) 0.0202(17) -.0020(13) 0.0064(14) -.0059(13)
Cl3 Cl1- 0.0197(23) 0.0281(24) 0.0179(22) 0 -.0016(18) 0
#End of TTdata_35763-ICSD