
#(C) 2017 by FIZ Karlsruhe - Leibniz Institute for Information Infrastructure.  All rights reserved.
data_37163-ICSD
_database_code_ICSD 37163
_audit_creation_date 1983-12-31
_audit_update_record 2003-04-01
_chemical_name_systematic 'Dilithium tetrafluoroberyllate'
_chemical_formula_structural 'Li2 (Be F4)'
_chemical_formula_sum 'Be1 F4 Li2'
_chemical_name_structure_type Be2SiO4
_exptl_crystal_density_diffrn 2.16
_publ_section_title 'Bonding in lithium tetrafluoroberyllate(II)'
loop_
_citation_id
_citation_journal_full
_citation_year
_citation_journal_volume
_citation_page_first
_citation_page_last
_citation_journal_id_ASTM
primary 'Acta Crystallographica, Section B: Structural Science' 1983 39 303 306
ASBSDK
loop_
_publ_author_name
'Collins, D.M.'
'Mahar, M.C.'
'Whitehurst, F.W.'
_cell_length_a 13.310(6)
_cell_length_b 13.310(6)
_cell_length_c 8.908(3)
_cell_angle_alpha 90.
_cell_angle_beta 90.
_cell_angle_gamma 120.
_cell_volume 1366.68
_cell_formula_units_Z 18
_symmetry_space_group_name_H-M 'R -3 H'
_symmetry_Int_Tables_number 148
_refine_ls_R_factor_all 0.021
loop_
_symmetry_equiv_pos_site_id
_symmetry_equiv_pos_as_xyz
1 'x-y, x, -z'
2 'y, -x+y, -z'
3 '-x, -y, -z'
4 '-x+y, -x, z'
5 '-y, x-y, z'
6 'x, y, z'
7 'x-y+2/3, x+1/3, -z+1/3'
8 'y+2/3, -x+y+1/3, -z+1/3'
9 '-x+2/3, -y+1/3, -z+1/3'
10 '-x+y+2/3, -x+1/3, z+1/3'
11 '-y+2/3, x-y+1/3, z+1/3'
12 'x+2/3, y+1/3, z+1/3'
13 'x-y+1/3, x+2/3, -z+2/3'
14 'y+1/3, -x+y+2/3, -z+2/3'
15 '-x+1/3, -y+2/3, -z+2/3'
16 '-x+y+1/3, -x+2/3, z+2/3'
17 '-y+1/3, x-y+2/3, z+2/3'
18 'x+1/3, y+2/3, z+2/3'
loop_
_atom_type_symbol
_atom_type_oxidation_number
F1- -1
Be2+ 2
Li1+ 1
loop_
_atom_site_label
_atom_site_type_symbol
_atom_site_symmetry_multiplicity
_atom_site_Wyckoff_symbol
_atom_site_fract_x
_atom_site_fract_y
_atom_site_fract_z
_atom_site_B_iso_or_equiv
_atom_site_occupancy
_atom_site_attached_hydrogens
F1 F1- 18 f 0.10566(7) -.11053(7) 0.2520(1) . 1. 0
F2 F1- 18 f 0.32319(7) 0.00601(7) 0.24871(10) . 1. 0
F3 F1- 18 f 0.20351(8) 0.07500(8) 0.10422(8) . 1. 0
F4 F1- 18 f 0.20914(9) 0.08194(8) 0.39230(8) . 1. 0
Be1 Be2+ 18 f 0.21158(13) 0.01538(11) 0.24931(14) . 1. 0
Li1 Li1+ 18 f 0.21486(25) 0.02098(23) 0.58112(25) . 1. 0
Li2 Li1+ 18 f 0.20727(25) 0.01648(22) -.08507(27) . 1. 0
loop_
_atom_site_aniso_label
_atom_site_aniso_type_symbol
_atom_site_aniso_U_11
_atom_site_aniso_U_22
_atom_site_aniso_U_33
_atom_site_aniso_U_12
_atom_site_aniso_U_13
_atom_site_aniso_U_23
F1 F1- 0.0148(3) 0.0137(3) 0.0154(2) 0.0021(2) -0.0003(2) 0.0012(2)
F2 F1- 0.0126(2) 0.0155(3) 0.0201(3) 0.0076(2) -0.0002(2) -0.0009(2)
F3 F1- 0.0248(3) 0.0165(3) 0.0102(2) 0.0125(2) -0.0003(2) 0.0015(2)
F4 F1- 0.0254(3) 0.0184(3) 0.0107(2) 0.0142(3) -0.0011(2) -0.0021(2)
Be1 Be2+ 0.0142(4) 0.0132(5) 0.0103(4) 0.0072(4) -0.0002(3) -0.0002(3)
Li1 Li1+ 0.0189(9) 0.0188(9) 0.0141(7) 0.0101(7) 0.0009(7) -0.0002(6)
Li2 Li1+ 0.0203(9) 0.0178(9) 0.0143(7) 0.0103(7) 0.0003(7) 0.0004(6)
#End of TTdata_37163-ICSD