
#(C) 2018 by FIZ Karlsruhe - Leibniz Institute for Information Infrastructure.  All rights reserved.
data_380104-ICSD
_database_code_ICSD 380104
_audit_creation_date 1997-05-13
_chemical_name_systematic 'Trilithium trithioborate'
_chemical_formula_structural 'Li3 (B S3)'
_chemical_formula_sum 'B1 Li3 S3'
_chemical_name_structure_type Li3BS3
_exptl_crystal_density_diffrn 1.68
_publ_section_title

;
Li3BS3 und LiSrBS3: Neue Orthothioborate mit trigonal-planar koordiniertem Bor
;
loop_
_citation_id
_citation_journal_full
_citation_year
_citation_journal_volume
_citation_page_first
_citation_page_last
_citation_journal_id_ASTM
primary 'Zeitschrift fuer Anorganische und Allgemeine Chemie (1950) (DE)' 1996
622 1508 1514 ZAACAB
loop_
_publ_author_name
'Hiltmann, F.'
'Jansen, C.'
'Krebs, B.'
_cell_length_a 8.144(1)
_cell_length_b 10.063(2)
_cell_length_c 6.161(1)
_cell_angle_alpha 90.
_cell_angle_beta 90.
_cell_angle_gamma 90.
_cell_volume 504.91
_cell_formula_units_Z 4
_symmetry_space_group_name_H-M 'P n m a'
_symmetry_Int_Tables_number 62
_refine_ls_R_factor_all 0.0232
loop_
_symmetry_equiv_pos_site_id
_symmetry_equiv_pos_as_xyz
1 'x+1/2, y, -z+1/2'
2 'x, -y+1/2, z'
3 '-x+1/2, y+1/2, z+1/2'
4 '-x, -y, -z'
5 '-x+1/2, -y, z+1/2'
6 '-x, y+1/2, -z'
7 'x+1/2, -y+1/2, -z+1/2'
8 'x, y, z'
loop_
_atom_type_symbol
_atom_type_oxidation_number
S2- -2
B3+ 3
Li1+ 1
loop_
_atom_site_label
_atom_site_type_symbol
_atom_site_symmetry_multiplicity
_atom_site_Wyckoff_symbol
_atom_site_fract_x
_atom_site_fract_y
_atom_site_fract_z
_atom_site_B_iso_or_equiv
_atom_site_occupancy
_atom_site_attached_hydrogens
S1 S2- 4 c 0.79950(6) 0.25 0.15745(8) . 1. 0
S2 S2- 8 d 0.92331(4) 0.40645(3) -.26005(5) . 1. 0
B1 B3+ 4 c 0.8822(2) 0.25 -.1189(3) . 1. 0
Li1 Li1+ 4 c 1.0082(5) 0.25 0.4480(5) . 1. 0
Li2 Li1+ 8 d 0.6713(3) 0.5071(3) -.3981(4) . 1. 0
loop_
_atom_site_aniso_label
_atom_site_aniso_type_symbol
_atom_site_aniso_U_11
_atom_site_aniso_U_22
_atom_site_aniso_U_33
_atom_site_aniso_U_12
_atom_site_aniso_U_13
_atom_site_aniso_U_23
S1 S2- 0.0206(2) 0.0184(2) 0.0151(2) 0 0.0002(2) 0
S2 S2- 0.0235(2) 0.0136(2) 0.0196(2) -.00090(14) 0.00060(15) 0.00201(13)
B1 B3+ 0.0131(9) 0.0148(9) 0.0167(10) 0 -.0021(8) 0
Li1 Li1+ 0.026(2) 0.040(2) 0.019(2) 0 0.000(2) 0
Li2 Li1+ 0.0303(13) 0.0263(11) 0.0344(13) -.0017(12) -.0072(12) 0.0085(11)
#End of TTdata_380104-ICSD