
#(C) 2018 by FIZ Karlsruhe - Leibniz Institute for Information Infrastructure.  All rights reserved.
data_380511-ICSD
_database_code_ICSD 380511
_audit_creation_date 2012-02-01
_chemical_name_systematic 'Dilithium pentacopper tetrakis(phosphate(V))'
_chemical_formula_structural 'Li2 Cu5 (P O4)4'
_chemical_formula_sum 'Cu5 Li2 O16 P4'
_exptl_crystal_density_diffrn 4.02
_cell_measurement_temperature 296.
_publ_section_title
'Synthesis, crystal structure and optical properties of Li2 Cu5 (P O4)4'
loop_
_citation_id
_citation_journal_full
_citation_year
_citation_journal_volume
_citation_page_first
_citation_page_last
_citation_journal_id_ASTM
primary 'Solid State Sciences' 2011 13 1304 1308 SSSCFJ
loop_
_publ_author_name
'Cui Liang'
'Pan Shilie'
'Han Jian'
'Dong Xiaoyu'
'Zhou Zhongxiang'
_cell_length_a 6.03580(10)
_cell_length_b 9.2211(2)
_cell_length_c 11.4138(2)
_cell_angle_alpha 75.5750(10)
_cell_angle_beta 80.2540(10)
_cell_angle_gamma 74.1590(10)
_cell_volume 588.36
_cell_formula_units_Z 2
_symmetry_space_group_name_H-M 'P -1'
_symmetry_Int_Tables_number 2
_refine_ls_R_factor_all 0.025
loop_
_symmetry_equiv_pos_site_id
_symmetry_equiv_pos_as_xyz
1 '-x, -y, -z'
2 'x, y, z'
loop_
_atom_type_symbol
_atom_type_oxidation_number
Li1+ 1
Cu2+ 2
Li1+ 1
Cu2+ 2
Li1+ 1
Cu2+ 2
Li1+ 1
P5+ 5
O2- -2
loop_
_atom_site_label
_atom_site_type_symbol
_atom_site_symmetry_multiplicity
_atom_site_Wyckoff_symbol
_atom_site_fract_x
_atom_site_fract_y
_atom_site_fract_z
_atom_site_B_iso_or_equiv
_atom_site_occupancy
_atom_site_attached_hydrogens
Li1 Li1+ 2 i 0.4867(11) 0.7668(7) 0.1630(6) 0.0200(13) 1 0
Cu1 Cu2+ 2 i -0.00290(6) 0.73227(4) 0.12431(4) 0.01017(11) 1 0
Cu2 Cu2+ 2 i 0.16706(7) 0.21902(4) 0.50745(3) 0.00969(11) 1 0
Cu3 Cu2+ 2 i 0.73224(7) 0.12948(4) 0.32929(4) 0.01267(11) 1 0
Cu4 Cu2+ 2 i 0.36888(7) 0.39053(5) 0.10106(4) 0.01191(17) 0.878(2) 0
Li2 Li1+ 2 i 0.36888(7) 0.39053(5) 0.10106(4) 0.01191(17) 0.122(2) 0
Cu5 Cu2+ 2 i 0.30746(9) 0.57252(6) 0.58229(5) 0.00930(19) 0.705(2) 0
Li3 Li1+ 2 i 0.30746(9) 0.57252(6) 0.58229(5) 0.00930(19) 0.295(2) 0
Cu6 Cu2+ 2 i 1.19044(14) 0.10190(10) 0.15876(8) 0.0142(3) 0.442(2) 0
Li4 Li1+ 2 i 1.19044(14) 0.10190(10) 0.15876(8) 0.0142(3) 0.558(2) 0
P1 P5+ 2 i 0.71896(13) 0.07208(9) 0.08242(7) 0.00585(16) 1 0
P2 P5+ 2 i 0.15163(13) 0.54449(9) 0.34756(7) 0.00618(16) 1 0
P3 P5+ 2 i 0.81940(13) 0.43174(9) 0.15120(7) 0.00616(16) 1 0
P4 P5+ 2 i 0.36683(13) 0.93776(9) 0.38921(7) 0.00782(17) 1 0
O1 O2- 2 i 0.8797(4) 0.0832(3) 0.1707(2) 0.0091(4) 1 0
O2 O2- 2 i 0.3507(4) 0.5158(3) 0.4250(2) 0.0118(5) 1 0
O3 O2- 2 i 0.2462(4) 0.5640(3) 0.2108(2) 0.0096(4) 1 0
O4 O2- 2 i 0.7153(4) 0.3460(2) 0.2739(2) 0.0095(4) 1 0
O5 O2- 2 i -0.2156(4) 0.5986(3) 0.1611(2) 0.0106(5) 1 0
O6 O2- 2 i 0.0381(4) 0.4053(3) 0.3915(2) 0.0096(4) 1 0
O7 O2- 2 i 0.3738(4) 0.0575(2) 0.6135(2) 0.0100(4) 1 0
O8 O2- 2 i 0.0701(4) 0.3493(3) 0.1207(2) 0.0114(5) 1 0
O9 O2- 2 i 0.3292(4) 0.8879(3) 0.2795(2) 0.0154(5) 1 0
O10 O2- 2 i 0.4743(4) 0.1596(3) 0.1249(2) 0.0103(5) 1 0
O11 O2- 2 i 0.6870(4) 0.1756(3) 0.4915(2) 0.0143(5) 1 0
O12 O2- 2 i -0.0339(4) 0.6920(3) 0.3568(2) 0.0117(5) 1 0
O13 O2- 2 i 0.2129(4) 0.1014(3) 0.3863(2) 0.0150(5) 1 0
O14 O2- 2 i 0.3213(4) 0.5746(3) -0.0532(2) 0.0099(4) 1 0
O15 O2- 2 i -0.2748(4) 0.9026(2) 0.0869(2) 0.0102(4) 1 0
O16 O2- 2 i 0.7831(4) 0.1472(3) -0.0502(2) 0.0094(4) 1 0
loop_
_atom_site_aniso_label
_atom_site_aniso_type_symbol
_atom_site_aniso_U_11
_atom_site_aniso_U_22
_atom_site_aniso_U_33
_atom_site_aniso_U_12
_atom_site_aniso_U_13
_atom_site_aniso_U_23
Li1 Li1+ 0.018(3) 0.020(3) 0.023(3) 0.000(2) -0.001(2) -0.012(3)
Cu1 Cu2+ 0.00779(19) 0.0071(2) 0.0141(2) -0.00228(14) -0.00311(15) 0.00222(15)
Cu2 Cu2+ 0.0120(2) 0.0074(2) 0.0077(2) 0.00118(14) -0.00195(15) -0.00131(14)
Cu3 Cu2+ 0.0221(2) 0.0086(2) 0.0077(2) -0.00591(16) -0.00010(16) -0.00102(15)
Cu4 Cu2+ 0.0055(2) 0.0086(3) 0.0210(3) -0.00178(16) -0.00280(17) -0.00102(18)
Li2 Li1+ 0.0055(2) 0.0086(3) 0.0210(3) -0.00178(16) -0.00280(17) -0.00102(18)
Cu5 Cu2+ 0.0077(3) 0.0140(3) 0.0072(3) -0.0016(2) -0.00145(19) -0.0047(2)
Li3 Li1+ 0.0077(3) 0.0140(3) 0.0072(3) -0.0016(2) -0.00145(19) -0.0047(2)
Cu6 Cu2+ 0.0068(4) 0.0156(5) 0.0182(5) -0.0045(3) -0.0037(3) 0.0036(3)
Li4 Li1+ 0.0068(4) 0.0156(5) 0.0182(5) -0.0045(3) -0.0037(3) 0.0036(3)
P1 P5+ 0.0053(3) 0.0054(4) 0.0066(4) -0.0010(3) -0.0009(3) -0.0009(3)
P2 P5+ 0.0068(3) 0.0061(4) 0.0055(4) -0.0007(3) -0.0017(3) -0.0010(3)
P3 P5+ 0.0052(3) 0.0065(4) 0.0067(4) -0.0010(3) -0.0019(3) -0.0009(3)
P4 P5+ 0.0096(4) 0.0077(4) 0.0058(4) -0.0018(3) -0.0007(3) -0.0014(3)
O1 O2- 0.0073(10) 0.0127(11) 0.0084(11) -0.0027(8) -0.0012(8) -0.0035(8)
O2 O2- 0.0086(10) 0.0175(12) 0.0095(11) 0.0001(9) -0.0037(8) -0.0048(9)
O3 O2- 0.0103(10) 0.0103(11) 0.0071(11) 0.0001(8) -0.0025(8) -0.0019(8)
O4 O2- 0.0120(10) 0.0085(10) 0.0070(11) -0.0022(8) -0.0001(8) -0.0005(8)
O5 O2- 0.0105(10) 0.0082(11) 0.0136(12) -0.0040(8) -0.0012(9) -0.0012(9)
O6 O2- 0.0095(10) 0.0090(11) 0.0103(11) -0.0043(8) -0.0014(8) 0.0004(8)
O7 O2- 0.0121(11) 0.0063(10) 0.0114(11) -0.0021(8) -0.0029(9) -0.0007(8)
O8 O2- 0.0065(10) 0.0105(11) 0.0179(12) -0.0024(8) -0.0006(9) -0.0044(9)
O9 O2- 0.0165(11) 0.0237(13) 0.0102(12) -0.0095(10) 0.0019(9) -0.0086(10)
O10 O2- 0.0061(10) 0.0083(11) 0.0155(12) -0.0011(8) 0.0015(9) -0.0032(9)
O11 O2- 0.0233(12) 0.0121(11) 0.0084(11) -0.0083(9) 0.0023(9) -0.0019(9)
O12 O2- 0.0131(11) 0.0080(10) 0.0114(11) 0.0021(9) -0.0021(9) -0.0021(8)
O13 O2- 0.0166(12) 0.0133(12) 0.0116(12) 0.0044(9) -0.0035(9) -0.0039(9)
O14 O2- 0.0118(10) 0.0109(11) 0.0085(11) -0.0051(8) -0.0053(8) 0.0007(8)
O15 O2- 0.0081(10) 0.0054(10) 0.0168(12) -0.0013(8) -0.0014(8) -0.0021(8)
O16 O2- 0.0104(10) 0.0117(11) 0.0064(11) -0.0046(8) -0.0002(8) -0.0005(8)
#End of TTdata_380511-ICSD