
#(C) 2018 by FIZ Karlsruhe - Leibniz Institute for Information Infrastructure.  All rights reserved.
data_38059-ICSD
_database_code_ICSD 38059
_audit_creation_date 1983-12-31
_audit_update_record 2012-02-01
_chemical_name_systematic 'Lithium antimony sulfide (1/5.67/9)'
_chemical_formula_structural 'Li0.999 Sb5.667 S9'
_chemical_formula_sum 'Li0.999 S9 Sb5.667'
_chemical_name_structure_type LiSb6-xS9
_exptl_crystal_density_diffrn 4.32
_publ_section_title 'Etude cristallochimique du systeme Li2 S - Sb2 S3'
loop_
_citation_id
_citation_journal_full
_citation_year
_citation_journal_volume
_citation_page_first
_citation_page_last
_citation_journal_id_ASTM
primary 'Revue de Chimie Minerale' 1983 20 196 213 RVCMA8
loop_
_publ_author_name
'Olivier Fourcade, J.'
'Maurin, M.'
'Philippot, E.'
_cell_length_a 4.085(1)
_cell_length_b 6.678(2)
_cell_length_c 14.700(4)
_cell_angle_alpha 96.84(1)
_cell_angle_beta 90.28(1)
_cell_angle_gamma 107.70(1)
_cell_volume 378.95
_cell_formula_units_Z 1
_symmetry_space_group_name_H-M 'P -1'
_symmetry_Int_Tables_number 2
_refine_ls_R_factor_all 0.041
loop_
_symmetry_equiv_pos_site_id
_symmetry_equiv_pos_as_xyz
1 '-x, -y, -z'
2 'x, y, z'
loop_
_atom_type_symbol
_atom_type_oxidation_number
Sb3+ 3
S2- -2
Li1+ 1
loop_
_atom_site_label
_atom_site_type_symbol
_atom_site_symmetry_multiplicity
_atom_site_Wyckoff_symbol
_atom_site_fract_x
_atom_site_fract_y
_atom_site_fract_z
_atom_site_B_iso_or_equiv
_atom_site_occupancy
_atom_site_attached_hydrogens
Sb1 Sb3+ 2 i 0.3534(6) 0.7127(3) 0.9250(1) . 1. 0
Sb2 Sb3+ 2 i 0.2672(6) 0.5169(4) 0.3834(1) . 1. 0
Sb3 Sb3+ 2 i 0.9344(8) 0.8736(4) 0.1908(2) . 0.833 0
S1 S2- 1 a 0 0 0 . 1. 0
S2 S2- 2 i 0.109(2) 0.214(1) 0.6494(5) . 1. 0
S3 S2- 2 i 0.261(4) 0.549(2) 0.1317(8) . 1. 0
S4 S2- 2 i 0.362(2) 0.721(1) 0.5355(4) . 1. 0
S5 S2- 2 i 0.437(3) 0.863(1) 0.7754(5) . 1. 0
Li1 Li1+ 1 b 0 0 0.5 4.0(1) 1. 0
loop_
_atom_site_aniso_label
_atom_site_aniso_type_symbol
_atom_site_aniso_U_11
_atom_site_aniso_U_22
_atom_site_aniso_U_33
_atom_site_aniso_U_12
_atom_site_aniso_U_13
_atom_site_aniso_U_23
Sb1 Sb3+ 0.040(3) 0.026(1) 0.048(1) 0.015(1) -.008(1) 0.001(1)
Sb2 Sb3+ 0.042(3) 0.038(1) 0.047(1) 0.011(1) -.002(1) -.023(1)
Sb3 Sb3+ 0.052(3) 0.035(1) 0.033(1) 0.014(1) 0.000(1) 0.001(1)
S1 S2- 0.16(4) 0.10(1) 0.026(6) 0.02(2) 0.02(2) 0.01(1)
S2 S2- 0.042(9) 0.028(4) 0.020(3) 0.012(4) 0.005(4) 0.006(3)
S3 S2- 0.16(3) 0.045(6) 0.078(7) 0.04(1) -.025(10) 0.025(5)
S4 S2- 0.030(8) 0.02(3) 0.016(3) 0.006(4) 0.003(4) 0.003(3)
S5 S2- 0.10(1) 0.035(5) 0.028(4) 0.030(5) -.015(5) 0.001(4)
#End of TTdata_38059-ICSD