
#(C) 2018 by FIZ Karlsruhe - Leibniz Institute for Information Infrastructure.  All rights reserved.
data_39580-ICSD
_database_code_ICSD 39580
_audit_creation_date 1993-08-22
_chemical_name_systematic 'Trilithium dibarium trigadolinium molybdate'
_chemical_formula_structural 'Li3 Ba2 Gd3 (Mo O4)8'
_chemical_formula_sum 'Ba2 Gd3 Li3 Mo8 O32'
_chemical_name_structure_type Li3Ba2Tm3(MoO4)8
_exptl_crystal_density_diffrn 5.31
_publ_section_title

;
Crystal structure investigation of triple molybdates Li3Ba2Ln3(MoO4)8, where
Ln=Gd, Tm
;
loop_
_citation_id
_citation_journal_full
_citation_year
_citation_journal_volume
_citation_page_first
_citation_page_last
_citation_journal_id_ASTM
primary 'Zhurnal Strukturnoi Khimii (Issue-No. from 1981)' 1992 33 126 130
ZSTKAI
loop_
_publ_author_name
'Klevtsova, R.F.'
'Vasil'ev, A.D. (Vasilev, A.D.)'
'Glinskaya, L.A.'
'Kruglik, A.I.'
'Kozhevnikova, N.M.'
'Korsun, V.P.'
_cell_length_a 5.2380(5)
_cell_length_b 12.758(2)
_cell_length_c 19.151(2)
_cell_angle_alpha 90.
_cell_angle_beta 91.126(8)
_cell_angle_gamma 90.
_cell_volume 1279.55
_cell_formula_units_Z 2
_symmetry_space_group_name_H-M 'C 1 2/c 1'
_symmetry_Int_Tables_number 15
_refine_ls_R_factor_all 0.042
loop_
_symmetry_equiv_pos_site_id
_symmetry_equiv_pos_as_xyz
1 'x, -y, z+1/2'
2 '-x, -y, -z'
3 '-x, y, -z+1/2'
4 'x, y, z'
5 'x+1/2, -y+1/2, z+1/2'
6 '-x+1/2, -y+1/2, -z'
7 '-x+1/2, y+1/2, -z+1/2'
8 'x+1/2, y+1/2, z'
loop_
_atom_type_symbol
_atom_type_oxidation_number
Ba2+ 2
Gd3+ 3
Ba2+ 2
Li1+ 1
Mo6+ 6
O2- -2
loop_
_atom_site_label
_atom_site_type_symbol
_atom_site_symmetry_multiplicity
_atom_site_Wyckoff_symbol
_atom_site_fract_x
_atom_site_fract_y
_atom_site_fract_z
_atom_site_B_iso_or_equiv
_atom_site_occupancy
_atom_site_attached_hydrogens
Ba1 Ba2+ 4 e 0.5 0.4712 0.25 0.0092(2) 0.85 0
Gd1 Gd3+ 4 e 0.5 0.4712 0.25 0.0092(2) 0.15 0
Gd2 Gd3+ 8 f 0.4982(1) 0.353 0.0321 0.0051(2) 0.675 0
Ba2 Ba2+ 8 f 0.4982(1) 0.353 0.0321 0.0051(2) 0.075 0
Li1 Li1+ 8 f 0.4982(1) 0.353 0.0321 0.0051(2) 0.25 0
Li2 Li1+ 4 e 0.5 0.1871(23) 0.25 0.037(6) 1. 0
Mo1 Mo6+ 8 f 0.4987(1) 0.7616 0.1511 0.0063(2) 1. 0
Mo2 Mo6+ 8 f 0.5084(1) 0.0598 0.093 0.0064(2) 1. 0
O1 O2- 8 f 0.2462(9) 0.8531(4) 0.1372(3) 0.012(2) 1. 0
O2 O2- 8 f 0.3578(10) 0.6464(4) 0.1802(3) 0.012(2) 1. 0
O3 O2- 8 f 0.7284(10) 0.8011(4) 0.2128(3) 0.015(2) 1. 0
O4 O2- 8 f 0.6595(10) 0.7403(4) 0.0697(3) 0.012(2) 1. 0
O5 O2- 8 f 0.2494(10) 0.0176(4) 0.0368(2) 0.013(2) 1. 0
O6 O2- 8 f 0.7321(10) -.0414(4) 0.1057(3) 0.013(2) 1. 0
O7 O2- 8 f 0.3729(9) 0.0860(4) 0.1736(2) 0.012(2) 1. 0
O8 O2- 8 f 0.6536(9) 0.1684(4) 0.0478(3) 0.011(2) 1. 0
#End of TTdata_39580-ICSD