
#(C) 2018 by FIZ Karlsruhe - Leibniz Institute for Information Infrastructure.  All rights reserved.
data_39609-ICSD
_database_code_ICSD 39609
_audit_creation_date 1993-08-22
_chemical_name_systematic 'Sodium lithium catena-vanadate (.5/.5/1)'
_chemical_formula_structural '(Na0.54 Li0.46) (V O3)'
_chemical_formula_sum 'Li0.46 Na0.54 O3 V1'
_chemical_name_structure_type NaKV2O6
_exptl_crystal_density_diffrn 2.91
_cell_measurement_temperature 600.
_publ_section_title 'Refinement of (Na,Li)2V2O6 structure at 293, 600 and 800K.'
loop_
_citation_id
_citation_journal_full
_citation_year
_citation_journal_volume
_citation_page_first
_citation_page_last
_citation_journal_id_ASTM
primary Kristallografiya 1992 37 1139 1142 KRISAJ
loop_
_publ_author_name
'Bubnova, R.S.'
'Filatov, S.K.'
'Ponomarev, V.I.'
_cell_length_a 10.262(4)
_cell_length_b 9.184(4)
_cell_length_c 5.857(3)
_cell_angle_alpha 90.
_cell_angle_beta 108.68(2)
_cell_angle_gamma 90.
_cell_volume 522.92
_cell_formula_units_Z 8
_symmetry_space_group_name_H-M 'C 1 2/c 1'
_symmetry_Int_Tables_number 15
_refine_ls_R_factor_all 0.046
loop_
_symmetry_equiv_pos_site_id
_symmetry_equiv_pos_as_xyz
1 'x, -y, z+1/2'
2 '-x, -y, -z'
3 '-x, y, -z+1/2'
4 'x, y, z'
5 'x+1/2, -y+1/2, z+1/2'
6 '-x+1/2, -y+1/2, -z'
7 '-x+1/2, y+1/2, -z+1/2'
8 'x+1/2, y+1/2, z'
loop_
_atom_type_symbol
_atom_type_oxidation_number
Na1+ 1
Li1+ 1
Na1+ 1
Li1+ 1
V5+ 5
O2- -2
loop_
_atom_site_label
_atom_site_type_symbol
_atom_site_symmetry_multiplicity
_atom_site_Wyckoff_symbol
_atom_site_fract_x
_atom_site_fract_y
_atom_site_fract_z
_atom_site_B_iso_or_equiv
_atom_site_occupancy
_atom_site_attached_hydrogens
Na1 Na1+ 4 e 0.5 0.2083(7) 0.75 . 0.84 0
Li1 Li1+ 4 e 0.5 0.2083(7) 0.75 . 0.160(8) 0
Na2 Na1+ 4 e 0.5 0.4141(17) 0.25 . 0.24(8) 0
Li2 Li1+ 4 e 0.5 0.4141(17) 0.25 . 0.76(8) 0
V1 V5+ 8 f 0.2901(1) 0.0909(2) 0.2504(2) . 1. 0
O1 O2- 8 f 0.1213(5) 0.0958(8) 0.1522(9) . 1. 0
O2 O2- 8 f 0.3525(7) 0.2553(7) 0.2993(12) . 1. 0
O3 O2- 8 f 0.3532(5) -.0015(7) 0.0357(8) . 1. 0
loop_
_atom_site_aniso_label
_atom_site_aniso_type_symbol
_atom_site_aniso_B_11
_atom_site_aniso_B_22
_atom_site_aniso_B_33
_atom_site_aniso_B_12
_atom_site_aniso_B_13
_atom_site_aniso_B_23
Na1 Na1+ 5.03 5.17 3.56 0 0.39 0
Li1 Li1+ 5.03 5.17 3.56 0 0.39 0
Na2 Na1+ 4.89 6.52 5.71 0 -2.38 0
Li2 Li1+ 4.89 6.52 5.71 0 -2.38 0
V1 V5+ 2.12 1.54 2.65 -.04 -.64 0.08
O1 O2- 2.38 3.48 5.39 0.35 -.76 -.26
O2 O2- 5.46 4.86 3.69 -1.72 -1.45 0.23
O3 O2- 2.83 2.24 5.37 -.17 -.87 -1.02
#End of TTdata_39609-ICSD