
#(C) 2018 by FIZ Karlsruhe - Leibniz Institute for Information Infrastructure.  All rights reserved.
data_400625-ICSD
_database_code_ICSD 400625
_audit_creation_date 1995-10-17
_audit_update_record 2013-02-01
_chemical_name_systematic 'Lithium cobalt phosphate(V)'
_chemical_formula_structural 'Li Co (P O4)'
_chemical_formula_sum 'Co1 Li1 O4 P1'
_chemical_name_structure_type Olivine-Mg2SiO4
_exptl_crystal_density_diffrn 3.77
_cell_measurement_temperature 300.
_publ_section_title
'Crystal structure of lithium cobalt double orthophosphate, Li Co P O4'
loop_
_citation_id
_citation_journal_full
_citation_year
_citation_journal_volume
_citation_page_first
_citation_page_last
_citation_journal_id_ASTM
primary 'Zeitschrift fuer Kristallographie (1979-2010)' 1994 209 755 755 ZEKRDZ
loop_
_publ_author_name
'Kubel, F.'
_cell_length_a 10.2001(6)
_cell_length_b 5.9199(4)
_cell_length_c 4.6899(15)
_cell_angle_alpha 90.
_cell_angle_beta 90.
_cell_angle_gamma 90.
_cell_volume 283.19
_cell_formula_units_Z 4
_symmetry_space_group_name_H-M 'P n m a'
_symmetry_Int_Tables_number 62
_refine_ls_R_factor_all 0.03
loop_
_symmetry_equiv_pos_site_id
_symmetry_equiv_pos_as_xyz
1 'x+1/2, y, -z+1/2'
2 'x, -y+1/2, z'
3 '-x+1/2, y+1/2, z+1/2'
4 '-x, -y, -z'
5 '-x+1/2, -y, z+1/2'
6 '-x, y+1/2, -z'
7 'x+1/2, -y+1/2, -z+1/2'
8 'x, y, z'
loop_
_atom_type_symbol
_atom_type_oxidation_number
Li1+ 1
P5+ 5
Co2+ 2
O2- -2
loop_
_atom_site_label
_atom_site_type_symbol
_atom_site_symmetry_multiplicity
_atom_site_Wyckoff_symbol
_atom_site_fract_x
_atom_site_fract_y
_atom_site_fract_z
_atom_site_B_iso_or_equiv
_atom_site_occupancy
_atom_site_attached_hydrogens
Li1 Li1+ 4 a 0.5 0.5 0.5 . 1. 0
P1 P5+ 4 c 0.09447(5) 0.25 0.41843(21) . 1. 0
Co1 Co2+ 4 c 0.27859(4) 0.25 0.97929(14) . 1. 0
O1 O2- 4 c 0.09768(14) 0.25 0.74103(58) . 1. 0
O2 O2- 4 c 0.45504(15) 0.25 0.20427(65) . 1. 0
O3 O2- 8 d 0.16630(11) 0.04460(21) 0.28198(45) . 1. 0
loop_
_atom_site_aniso_label
_atom_site_aniso_type_symbol
_atom_site_aniso_U_11
_atom_site_aniso_U_22
_atom_site_aniso_U_33
_atom_site_aniso_U_12
_atom_site_aniso_U_13
_atom_site_aniso_U_23
Li1 Li1+ 0.014(2) 0.010(3) 0.019(5) 0.004(2) 0.003(2) -.001(2)
P1 P5+ 0.0010(3) 0.0043(4) 0.0056(6) 0 0.0003(3) 0
Co1 Co2+ 0.0012(3) 0.0041(3) 0.0068(6) 0 0.0007(2) 0
O1 O2- 0.0050(7) 0.0078(7) 0.007(2) 0 -.0010(8) 0
O2 O2- 0.0010(6) 0.0097(7) 0.008(2) 0 -.0004(8) 0
O3 O2- 0.0060(5) 0.0062(5) 0.007(1) 0.0020(4) 0.0015(6) 0.0005(6)
#End of TTdata_400625-ICSD