
#(C) 2018 by FIZ Karlsruhe - Leibniz Institute for Information Infrastructure.  All rights reserved.
data_401208-ICSD
_database_code_ICSD 401208
_audit_creation_date 1995-10-17
_audit_update_record 2012-02-01
_chemical_name_systematic 'Dipotassium lithium diarsenidogallate'
_chemical_formula_structural 'K2 Li (Ga As2)'
_chemical_formula_sum 'As2 Ga1 K2 Li1'
_chemical_name_structure_type Na2LiAlP2
_exptl_crystal_density_diffrn 3.42
_publ_section_title
'Crystal structure of dipotassium lithium diarsenidogallate, K2 Li Ga As2'
loop_
_citation_id
_citation_journal_full
_citation_year
_citation_journal_volume
_citation_page_first
_citation_page_last
_citation_journal_id_ASTM
primary 'Zeitschrift fuer Kristallographie (1979-2010)' 1995 210 528 528 ZEKRDZ
loop_
_publ_author_name
'Somer, M.'
'Carrillo Cabrera, W.'
'Peters, E.M.'
'Peters, K.'
'von Schnering, H.G.'
_cell_length_a 12.4451(21)
_cell_length_b 15.2431(34)
_cell_length_c 6.2317(13)
_cell_angle_alpha 90.
_cell_angle_beta 90.
_cell_angle_gamma 90.
_cell_volume 1182.17
_cell_formula_units_Z 8
_symmetry_space_group_name_H-M 'C m c a'
_symmetry_Int_Tables_number 64
_refine_ls_R_factor_all 0.048
loop_
_symmetry_equiv_pos_site_id
_symmetry_equiv_pos_as_xyz
1 '-x, -y+1/2, z+1/2'
2 '-x, y+1/2, -z+1/2'
3 '-x, y, z'
4 '-x, -y, -z'
5 'x, y+1/2, -z+1/2'
6 'x, -y+1/2, z+1/2'
7 'x, -y, -z'
8 'x, y, z'
9 '-x+1/2, -y, z+1/2'
10 '-x+1/2, y, -z+1/2'
11 '-x+1/2, y+1/2, z'
12 '-x+1/2, -y+1/2, -z'
13 'x+1/2, y, -z+1/2'
14 'x+1/2, -y, z+1/2'
15 'x+1/2, -y+1/2, -z'
16 'x+1/2, y+1/2, z'
loop_
_atom_type_symbol
_atom_type_oxidation_number
K1+ 1
As3- -3
Ga3+ 3
Li1+ 1
loop_
_atom_site_label
_atom_site_type_symbol
_atom_site_symmetry_multiplicity
_atom_site_Wyckoff_symbol
_atom_site_fract_x
_atom_site_fract_y
_atom_site_fract_z
_atom_site_B_iso_or_equiv
_atom_site_occupancy
_atom_site_attached_hydrogens
K1 K1+ 8 e 0.25 0.17486(21) 0.25 . 1. 0
K2 K1+ 8 f 0 0.32729(23) 0.21959(40) . 1. 0
As1 As3- 8 e 0.25 0.40696(9) 0.25 . 1. 0
As2 As3- 8 f 0 0.09336(10) 0.21241(17) . 1. 0
Ga1 Ga3+ 8 d 0.13183(9) 0 0 . 1. 0
Li1 Li1+ 8 d 0.3730(11) 0 0 0.0180(63) 1. 0
loop_
_atom_site_aniso_label
_atom_site_aniso_type_symbol
_atom_site_aniso_U_11
_atom_site_aniso_U_22
_atom_site_aniso_U_33
_atom_site_aniso_U_12
_atom_site_aniso_U_13
_atom_site_aniso_U_23
K1 K1+ 0.0175(12) 0.0230(19) 0.0151(11) 0 -0.00118(83) 0
K2 K1+ 0.0192(13) 0.0186(17) 0.0177(11) 0 0 -0.00050(92)
As1 As3- 0.01152(65) 0.01124(79) 0.00684(59) 0 0.00093(33) 0
As2 As3- 0.01196(66) 0.01299(86) 0.01219(67) 0 0 -0.00105(43)
Ga1 Ga3+ 0.00799(74) 0.01281(79) 0.01026(74) 0 0 -0.00050(42)
#End of TTdata_401208-ICSD