
#(C) 2018 by FIZ Karlsruhe - Leibniz Institute for Information Infrastructure.  All rights reserved.
data_401723-ICSD
_database_code_ICSD 401723
_audit_creation_date 1995-10-17
_chemical_name_systematic 'Dilithium phyllo-pentathiodiborate'
_chemical_formula_structural 'Li2 (B2 S5)'
_chemical_formula_sum 'B2 Li2 S5'
_exptl_crystal_density_diffrn 1.86
_publ_section_title

;
Na2 B2 S5 and Li2 B2 S5: Two novel perthioborates with planar
1,2,4-trithia-3,5-diborolane rings
;
loop_
_citation_id
_citation_journal_full
_citation_year
_citation_journal_volume
_citation_page_first
_citation_page_last
_citation_journal_id_ASTM
primary 'Zeitschrift fuer Anorganische und Allgemeine Chemie (1950) (DE)' 1995
621 1322 1329 ZAACAB
loop_
_publ_author_name
'Jansen, C.'
'Kueper, J.'
'Krebs, B.'
_cell_length_a 15.864(8)
_cell_length_b 6.433(3)
_cell_length_c 6.862(3)
_cell_angle_alpha 90.
_cell_angle_beta 90.
_cell_angle_gamma 90.
_cell_volume 700.29
_cell_formula_units_Z 4
_symmetry_space_group_name_H-M 'C m c m'
_symmetry_Int_Tables_number 63
_refine_ls_R_factor_all 0.018
loop_
_symmetry_equiv_pos_site_id
_symmetry_equiv_pos_as_xyz
1 '-x, y, -z+1/2'
2 '-x, -y, z+1/2'
3 '-x, y, z'
4 '-x, -y, -z'
5 'x, -y, z+1/2'
6 'x, y, -z+1/2'
7 'x, -y, -z'
8 'x, y, z'
9 '-x+1/2, y+1/2, -z+1/2'
10 '-x+1/2, -y+1/2, z+1/2'
11 '-x+1/2, y+1/2, z'
12 '-x+1/2, -y+1/2, -z'
13 'x+1/2, -y+1/2, z+1/2'
14 'x+1/2, y+1/2, -z+1/2'
15 'x+1/2, -y+1/2, -z'
16 'x+1/2, y+1/2, z'
loop_
_atom_type_symbol
_atom_type_oxidation_number
S1- -1.6
B3+ 3
Li1+ 1
loop_
_atom_site_label
_atom_site_type_symbol
_atom_site_symmetry_multiplicity
_atom_site_Wyckoff_symbol
_atom_site_fract_x
_atom_site_fract_y
_atom_site_fract_z
_atom_site_B_iso_or_equiv
_atom_site_occupancy
_atom_site_attached_hydrogens
S1 S1- 4 c 0 0.17916(9) 0.75 . 1. 0
S2 S1- 8 g -.06546(2) 0.63526(6) 0.75 . 1. 0
S3 S1- 8 g 0.19537(2) 0.27423(6) 0.75 . 1. 0
B1 B3+ 8 g 0.08731(10) 0.3594(2) 0.75 . 1. 0
Li1 Li1+ 8 e 0.2288(2) 0 0.5 . 1. 0
loop_
_atom_site_aniso_label
_atom_site_aniso_type_symbol
_atom_site_aniso_U_11
_atom_site_aniso_U_22
_atom_site_aniso_U_33
_atom_site_aniso_U_12
_atom_site_aniso_U_13
_atom_site_aniso_U_23
S1 S1- 0.0217(2) 0.0172(2) 0.0314(2) 0 0 0
S2 S1- 0.0215(2) 0.0180(2) 0.0255(2) -.00149(14) 0 0
S3 S1- 0.0197(2) 0.0214(2) 0.0235(2) 0.00192(13) 0 0
B1 B3+ 0.0198(6) 0.0208(7) 0.0186(5) 0.0008(6) 0 0
Li1 Li1+ 0.045(2) 0.0272(13) 0.0297(11) 0 0 -.0030(11)
#End of TTdata_401723-ICSD