
#(C) 2017 by FIZ Karlsruhe - Leibniz Institute for Information Infrastructure.  All rights reserved.
data_402062-ICSD
_database_code_ICSD 402062
_audit_creation_date 1996-04-22
_chemical_name_systematic 'Lithium tetraiodozincate'
_chemical_formula_structural 'Li2 (Zn I4)'
_chemical_formula_sum 'I4 Li2 Zn1'
_chemical_name_structure_type Olivine-Mg2SiO4
_exptl_crystal_density_diffrn 4.38
_publ_section_title

;
Redetermination of the crystal structures of lithium zinc iodide, Li2 Zn I4,
and sodium zinc chloride, Na2 Zn Cl4
;
loop_
_citation_id
_citation_journal_full
_citation_year
_citation_journal_volume
_citation_page_first
_citation_page_last
_citation_journal_id_ASTM
primary 'Zeitschrift fuer Kristallographie (1979-2010)' 1995 210 691 692 ZEKRDZ
loop_
_publ_author_name
'Zhang, Z.'
'Lutz, H.D.'
_cell_length_a 14.828(3)
_cell_length_b 8.560(2)
_cell_length_c 7.0123(9)
_cell_angle_alpha 90.
_cell_angle_beta 90.
_cell_angle_gamma 90.
_cell_volume 890.05
_cell_formula_units_Z 4
_symmetry_space_group_name_H-M 'P n m a'
_symmetry_Int_Tables_number 62
_refine_ls_R_factor_all 0.024
loop_
_symmetry_equiv_pos_site_id
_symmetry_equiv_pos_as_xyz
1 'x+1/2, y, -z+1/2'
2 'x, -y+1/2, z'
3 '-x+1/2, y+1/2, z+1/2'
4 '-x, -y, -z'
5 '-x+1/2, -y, z+1/2'
6 '-x, y+1/2, -z'
7 'x+1/2, -y+1/2, -z+1/2'
8 'x, y, z'
loop_
_atom_type_symbol
_atom_type_oxidation_number
Li1+ 1
Zn2+ 2
I1- -1
loop_
_atom_site_label
_atom_site_type_symbol
_atom_site_symmetry_multiplicity
_atom_site_Wyckoff_symbol
_atom_site_fract_x
_atom_site_fract_y
_atom_site_fract_z
_atom_site_B_iso_or_equiv
_atom_site_occupancy
_atom_site_attached_hydrogens
Li1 Li1+ 4 a 0 0 0 . 1. 0
Li2 Li1+ 4 c 0.265(1) 0.25 0.002(2) . 1. 0
Zn1 Zn2+ 4 c 0.08618(7) 0.25 0.4019(1) . 1. 0
I1 I1- 4 c 0.08861(4) 0.25 0.76978(7) . 1. 0
I2 I1- 4 c 0.42430(4) 0.25 0.25128(8) . 1. 0
I3 I1- 8 d 0.16639(3) 0.00752(5) 0.24808(6) . 1. 0
loop_
_atom_site_aniso_label
_atom_site_aniso_type_symbol
_atom_site_aniso_U_11
_atom_site_aniso_U_22
_atom_site_aniso_U_33
_atom_site_aniso_U_12
_atom_site_aniso_U_13
_atom_site_aniso_U_23
Li1 Li1+ 0.09(2) 0.031(8) 0.06(1) -.009(9) 0.02(1) -.010(9)
Li2 Li1+ 0.034(8) 0.06(1) 0.039(8) 0 0.009(7) 0
Zn1 Zn2+ 0.0352(5) 0.0348(5) 0.0255(4) 0 0.0000(4) 0
I1 I1- 0.0361(3) 0.0334(3) 0.0230(2) 0 -.0002(2) 0
I2 I1- 0.0274(3) 0.0360(3) 0.0319(3) 0 0.0001(2) 0
I3 I1- 0.0357(2) 0.0325(2) 0.0308(2) 0.0060(2) -.0004(1) -.0004(2)
#End of TTdata_402062-ICSD