
#(C) 2018 by FIZ Karlsruhe - Leibniz Institute for Information Infrastructure.  All rights reserved.
data_402111-ICSD
_database_code_ICSD 402111
_audit_creation_date 1996-04-22
_audit_update_record 2012-02-01
_chemical_name_systematic 'Disodium lithium diarsenidogallate'
_chemical_formula_structural 'Na2 Li (Ga As2)'
_chemical_formula_sum 'As2 Ga1 Li1 Na2'
_chemical_name_structure_type Na2LiAlP2
_exptl_crystal_density_diffrn 3.62
_publ_section_title
'Crystal structure of disodium lithium diarsenidogallate, Na2 Li Ga As2'
loop_
_citation_id
_citation_journal_full
_citation_year
_citation_journal_volume
_citation_page_first
_citation_page_last
_citation_journal_id_ASTM
primary 'Zeitschrift fuer Kristallographie (1979-2010)' 1995 210 877 877 ZEKRDZ
loop_
_publ_author_name
'Somer, M.'
'Carrillo Cabrera, W.'
'Peters, E.M.'
'Peters, K.'
'von Schnering, H.G.'
_cell_length_a 12.051(2)
_cell_length_b 14.034(2)
_cell_length_c 5.908(1)
_cell_angle_alpha 90.
_cell_angle_beta 90.
_cell_angle_gamma 90.
_cell_volume 999.18
_cell_formula_units_Z 8
_symmetry_space_group_name_H-M 'C m c a'
_symmetry_Int_Tables_number 64
_refine_ls_R_factor_all 0.034
loop_
_symmetry_equiv_pos_site_id
_symmetry_equiv_pos_as_xyz
1 '-x, -y+1/2, z+1/2'
2 '-x, y+1/2, -z+1/2'
3 '-x, y, z'
4 '-x, -y, -z'
5 'x, y+1/2, -z+1/2'
6 'x, -y+1/2, z+1/2'
7 'x, -y, -z'
8 'x, y, z'
9 '-x+1/2, -y, z+1/2'
10 '-x+1/2, y, -z+1/2'
11 '-x+1/2, y+1/2, z'
12 '-x+1/2, -y+1/2, -z'
13 'x+1/2, y, -z+1/2'
14 'x+1/2, -y, z+1/2'
15 'x+1/2, -y+1/2, -z'
16 'x+1/2, y+1/2, z'
loop_
_atom_type_symbol
_atom_type_oxidation_number
Ga3+ 3
As3- -3
Na1+ 1
Li1+ 1
loop_
_atom_site_label
_atom_site_type_symbol
_atom_site_symmetry_multiplicity
_atom_site_Wyckoff_symbol
_atom_site_fract_x
_atom_site_fract_y
_atom_site_fract_z
_atom_site_B_iso_or_equiv
_atom_site_occupancy
_atom_site_attached_hydrogens
Ga1 Ga3+ 8 d 0.36831(5) 0 0 . 1. 0
As1 As3- 8 f 0.5 0.10603(6) -.21552(12) . 1. 0
As2 As3- 8 e 0.25 0.10601(6) 0.25 . 1. 0
Na1 Na1+ 8 f 0.5 0.17713(31) 0.28187(52) . 1. 0
Na2 Na1+ 8 e 0.25 0.32064(33) 0.25 . 1. 0
Li1 Li1+ 8 d 0.38092(92) 0.5 0 . 1. 0
loop_
_atom_site_aniso_label
_atom_site_aniso_type_symbol
_atom_site_aniso_U_11
_atom_site_aniso_U_22
_atom_site_aniso_U_33
_atom_site_aniso_U_12
_atom_site_aniso_U_13
_atom_site_aniso_U_23
Ga1 Ga3+ 0.01003(40) 0.01262(40) 0.01038(36) 0 0 0.00031(22)
As1 As3- 0.01045(39) 0.01152(48) 0.01141(36) 0 0 0.00133(24)
As2 As3- 0.01095(40) 0.01045(52) 0.01131(33) 0 0.00037(22) 0
Na1 Na1+ 0.0274(16) 0.0198(23) 0.0216(14) 0 0 -.0003(13)
Na2 Na1+ 0.0314(18) 0.0183(23) 0.0231(13) 0 -.0023(13) 0
Li1 Li1+ 0.0180(54) 0.0165(59) 0.0226(61) 0 0 0.0010(42)
#End of TTdata_402111-ICSD