
#(C) 2017 by FIZ Karlsruhe - Leibniz Institute for Information Infrastructure.  All rights reserved.
data_402399-ICSD
_database_code_ICSD 402399
_audit_creation_date 1997-05-13
_audit_update_record 2006-04-01
_chemical_name_systematic 'Dilithium tetrachlorozincate'
_chemical_formula_structural 'Li2 (Zn Cl4)'
_chemical_formula_sum 'Cl4 Li2 Zn1'
_chemical_name_structure_type Olivine-Mg2SiO4
_exptl_crystal_density_diffrn 2.54
_publ_section_title

;
Crystal structure of dilithium zinc tetrachloride, Li2 Zn Cl4 with spinel- and
olivine-type structure
;
loop_
_citation_id
_citation_journal_full
_citation_year
_citation_journal_volume
_citation_page_first
_citation_page_last
_citation_journal_id_ASTM
primary 'Zeitschrift fuer Kristallographie (1979-2010)' 1996 211 819 820 ZEKRDZ
loop_
_publ_author_name
'Sassmannshausen, M.'
'Solinas, I.'
'Lutz, H.D.'
_cell_length_a 12.7760(3)
_cell_length_b 7.4176(2)
_cell_length_c 6.1110(1)
_cell_angle_alpha 90.
_cell_angle_beta 90.
_cell_angle_gamma 90.
_cell_volume 579.12
_cell_formula_units_Z 4
_symmetry_space_group_name_H-M 'P n m a'
_symmetry_Int_Tables_number 62
_refine_ls_R_factor_all 0.018
loop_
_symmetry_equiv_pos_site_id
_symmetry_equiv_pos_as_xyz
1 'x+1/2, y, -z+1/2'
2 'x, -y+1/2, z'
3 '-x+1/2, y+1/2, z+1/2'
4 '-x, -y, -z'
5 '-x+1/2, -y, z+1/2'
6 '-x, y+1/2, -z'
7 'x+1/2, -y+1/2, -z+1/2'
8 'x, y, z'
loop_
_atom_type_symbol
_atom_type_oxidation_number
Li1+ 1
Zn2+ 2
Cl1- -1
loop_
_atom_site_label
_atom_site_type_symbol
_atom_site_symmetry_multiplicity
_atom_site_Wyckoff_symbol
_atom_site_fract_x
_atom_site_fract_y
_atom_site_fract_z
_atom_site_B_iso_or_equiv
_atom_site_occupancy
_atom_site_attached_hydrogens
Li1 Li1+ 4 a 0 0 0 . 1. 0
Li2 Li1+ 4 c 0.2697(3) 0.25 0.9959(8) . 1. 0
Zn1 Zn2+ 4 c 0.08937(2) 0.25 0.41814(4) . 1. 0
Cl1 Cl1- 4 c 0.08912(4) 0.25 0.78390(7) . 1. 0
Cl2 Cl1- 4 c 0.42720(4) 0.25 0.24511(9) . 1. 0
Cl3 Cl1- 8 d 0.16584(3) 0.00805(5) 0.25253(6) . 1. 0
loop_
_atom_site_aniso_label
_atom_site_aniso_type_symbol
_atom_site_aniso_U_11
_atom_site_aniso_U_22
_atom_site_aniso_U_33
_atom_site_aniso_U_12
_atom_site_aniso_U_13
_atom_site_aniso_U_23
Li1 Li1+ 0.048(3) 0.033(2) 0.036(2) -0.010(2) -0.001(2) -0.005(2)
Li2 Li1+ 0.027(2) 0.036(2) 0.030(2) 0 0.0001(2) 0
Zn1 Zn2+ 0.0250(1) 0.0226(1) 0.0154(1) 0 0.00011(8) 0
Cl1 Cl1- 0.0265(2) 0.0218(2) 0.0151(2) 0 0.0003(2) 0
Cl2 Cl1- 0.0196(2) 0.0260(2) 0.0223(2) 0 -0.0003(2) 0
Cl3 Cl1- 0.0275(2) 0.0226(1) 0.0218(1) 0.0056(1) -0.0005(1) -0.0007(1)
#End of TTdata_402399-ICSD