
#(C) 2018 by FIZ Karlsruhe - Leibniz Institute for Information Infrastructure.  All rights reserved.
data_402760-ICSD
_database_code_ICSD 402760
_audit_creation_date 1998-06-26
_chemical_name_systematic 'Lithium nickel phosphate(V)'
_chemical_formula_structural 'Li Ni (P O4)'
_chemical_formula_sum 'Li1 Ni1 O4 P1'
_chemical_name_structure_type Olivine-Mg2SiO4
_exptl_crystal_density_diffrn 3.88
_publ_section_title
'Refinement of the crystal structure of lithium nickel phosphate, LiNiPO4'
loop_
_citation_id
_citation_journal_full
_citation_year
_citation_journal_volume
_citation_page_first
_citation_page_last
_citation_journal_id_ASTM
primary 'Zeitschrift fuer Kristallographie - New Crystal Structures' 1997 212
319 319 ZKNSFT
loop_
_publ_author_name
'Warda, S.A.'
'Lee, S.-L.'
_cell_length_a 10.0318(10)
_cell_length_b 5.8546(10)
_cell_length_c 4.681(1)
_cell_angle_alpha 90.
_cell_angle_beta 90.
_cell_angle_gamma 90.
_cell_volume 274.93
_cell_formula_units_Z 4
_symmetry_space_group_name_H-M 'P n m a'
_symmetry_Int_Tables_number 62
_refine_ls_R_factor_all 0.0369
loop_
_symmetry_equiv_pos_site_id
_symmetry_equiv_pos_as_xyz
1 'x+1/2, y, -z+1/2'
2 'x, -y+1/2, z'
3 '-x+1/2, y+1/2, z+1/2'
4 '-x, -y, -z'
5 '-x+1/2, -y, z+1/2'
6 '-x, y+1/2, -z'
7 'x+1/2, -y+1/2, -z+1/2'
8 'x, y, z'
loop_
_atom_type_symbol
_atom_type_oxidation_number
Li1+ 1
Ni2+ 2
P5+ 5
O2- -2
loop_
_atom_site_label
_atom_site_type_symbol
_atom_site_symmetry_multiplicity
_atom_site_Wyckoff_symbol
_atom_site_fract_x
_atom_site_fract_y
_atom_site_fract_z
_atom_site_B_iso_or_equiv
_atom_site_occupancy
_atom_site_attached_hydrogens
Li1 Li1+ 4 a 0 0 0 . 1. 0
Ni1 Ni2+ 4 c 0.27563(6) 0.25 0.98280(14) . 1. 0
P1 P5+ 4 c 0.09440(11) 0.25 0.4177(3) . 1. 0
O1 O2- 4 c 0.0998(3) 0.25 0.7422(8) . 1. 0
O2 O2- 4 c 0.4517(3) 0.25 0.2011(8) . 1. 0
O3 O2- 8 d 0.1659(2) 0.0426(4) 0.2779(5) . 1. 0
loop_
_atom_site_aniso_label
_atom_site_aniso_type_symbol
_atom_site_aniso_U_11
_atom_site_aniso_U_22
_atom_site_aniso_U_33
_atom_site_aniso_U_12
_atom_site_aniso_U_13
_atom_site_aniso_U_23
Li1 Li1+ 0.011(4) 0.009(5) 0.012(4) -.004(4) -.004(3) -.004(3)
Ni1 Ni2+ 0.0048(7) 0.0056(6) 0.0065(6) 0 0.0000(2) 0
P1 P5+ 0.0047(8) 0.0052(8) 0.0042(8) 0 -.0005(5) 0
O1 O2- 0.0057(16) 0.0093(16) 0.0039(17) 0 -.0020(12) 0
O2 O2- 0.0065(15) 0.0080(16) 0.0080(16) 0 0.0009(13) 0
O3 O2- 0.0075(10) 0.0045(11) 0.0056(12) 0.0011(8) 0.0018(8) 0.0001(10)
#End of TTdata_402760-ICSD