
#(C) 2018 by FIZ Karlsruhe - Leibniz Institute for Information Infrastructure.  All rights reserved.
data_40361-ICSD
_database_code_ICSD 40361
_audit_creation_date 1999-11-30
_audit_update_record 2006-04-01
_chemical_name_systematic 'Lithium iodate(V)'
_chemical_formula_structural 'Li (I O3)'
_chemical_formula_sum 'I1 Li1 O3'
_chemical_name_structure_type LiIO3
_exptl_crystal_density_diffrn 4.49
_cell_measurement_temperature 295.
_publ_section_title

;
Structural temperature dependence in alpha lithium iodate: Neutron and X-ray
study between 20 and 500 K
;
loop_
_citation_id
_citation_journal_full
_citation_year
_citation_journal_volume
_citation_page_first
_citation_page_last
_citation_journal_id_ASTM
primary 'Journal of Chemical Physics' 1983 78 7343 7352 JCPSA6
loop_
_publ_author_name
'Svensson, C.'
'Albertsson, J.'
'Liminga, R.'
'Kvick, A.'
'Abrahams, S.C.'
_cell_length_a 5.48127(7)
_cell_length_b 5.48127(7)
_cell_length_c 5.17165(8)
_cell_angle_alpha 90.
_cell_angle_beta 90.
_cell_angle_gamma 120.
_cell_volume 134.56
_cell_formula_units_Z 2
_symmetry_space_group_name_H-M 'P 63'
_symmetry_Int_Tables_number 173
_refine_ls_R_factor_all 0.0293
loop_
_symmetry_equiv_pos_site_id
_symmetry_equiv_pos_as_xyz
1 'x-y, x, z+1/2'
2 'y, -x+y, z+1/2'
3 '-x, -y, z+1/2'
4 '-x+y, -x, z'
5 '-y, x-y, z'
6 'x, y, z'
loop_
_atom_type_symbol
_atom_type_oxidation_number
Li1+ 1
O2- -2
I5+ 5
loop_
_atom_site_label
_atom_site_type_symbol
_atom_site_symmetry_multiplicity
_atom_site_Wyckoff_symbol
_atom_site_fract_x
_atom_site_fract_y
_atom_site_fract_z
_atom_site_B_iso_or_equiv
_atom_site_occupancy
_atom_site_attached_hydrogens
Li1 Li1+ 2 a 0 0 0.07637(30) . 1. 0
O1 O2- 6 c 0.24708(5) 0.34198(4) -.16211(10) . 1. 0
I1 I5+ 2 b 0.3333 0.6666 0 . 1. 0
loop_
_atom_site_aniso_label
_atom_site_aniso_type_symbol
_atom_site_aniso_U_11
_atom_site_aniso_U_22
_atom_site_aniso_U_33
_atom_site_aniso_U_12
_atom_site_aniso_U_13
_atom_site_aniso_U_23
Li1 Li1+ 0.02036(28) 0.02036 0.01708(41) 0.01018 0 0
O1 O2- 0.01589(11) 0.01007(10) 0.01476(11) 0.00572(8) 0.00075(7) -.00207(7)
I1 I5+ 0.00864(10) 0.00864(10) 0.00709(12) 0.00432 0 0
#End of TTdata_40361-ICSD