
#(C) 2018 by FIZ Karlsruhe - Leibniz Institute for Information Infrastructure.  All rights reserved.
data_40458-ICSD
_database_code_ICSD 40458
_audit_creation_date 2008-07-07
_audit_update_record 2009-02-01
_chemical_name_systematic 'Sodium lithium zinc oxide'
_chemical_formula_structural 'Na Li Zn O2'
_chemical_formula_sum 'Li1 Na1 O2 Zn1'
_exptl_crystal_density_diffrn 3.84
_publ_section_title 'Neues ueber "Kationen-reiche" Oxide der Alkalimetalle'
loop_
_citation_id
_citation_journal_full
_citation_year
_citation_journal_volume
_citation_page_first
_citation_page_last
_citation_journal_id_ASTM
primary 'Revue de Chimie Minerale' 1983 20 549 575 RVCMA8
loop_
_publ_author_name
'Hoppe, R.'
_cell_length_a 3.304(1)
_cell_length_b 3.304(1)
_cell_length_c 5.820(3)
_cell_angle_alpha 90.
_cell_angle_beta 90.
_cell_angle_gamma 120.
_cell_volume 55.02
_cell_formula_units_Z 1
_symmetry_space_group_name_H-M 'P 3 m 1'
_symmetry_Int_Tables_number 156
_refine_ls_R_factor_all 0.0406
loop_
_symmetry_equiv_pos_site_id
_symmetry_equiv_pos_as_xyz
1 '-x+y, y, z'
2 'x, x-y, z'
3 '-y, -x, z'
4 '-x+y, -x, z'
5 '-y, x-y, z'
6 'x, y, z'
loop_
_atom_type_symbol
_atom_type_oxidation_number
Na1+ 1
Zn2+ 2
Li1+ 1
Zn2+ 2
Li1+ 1
O2- -2
loop_
_atom_site_label
_atom_site_type_symbol
_atom_site_symmetry_multiplicity
_atom_site_Wyckoff_symbol
_atom_site_fract_x
_atom_site_fract_y
_atom_site_fract_z
_atom_site_B_iso_or_equiv
_atom_site_occupancy
_atom_site_attached_hydrogens
Na1 Na1+ 1 c 0.6667 0.3333 0.6382(18) . 1. 0
Zn1 Zn2+ 1 a 0 0 0 . 0.435 0
Li1 Li1+ 1 a 0 0 0 . 0.565 0
Zn2 Zn2+ 1 b 0.3333 0.6667 0.2718(2) . 0.565 0
Li2 Li1+ 1 b 0.3333 0.6667 0.2718(2) . 0.435 0
O1 O2- 1 b 0.3333 0.6667 0.9155(14) . 1. 0
O2 O2- 1 a 0 0 0.3648(18) . 1. 0
loop_
_atom_site_aniso_label
_atom_site_aniso_type_symbol
_atom_site_aniso_U_11
_atom_site_aniso_U_22
_atom_site_aniso_U_33
_atom_site_aniso_U_12
_atom_site_aniso_U_13
_atom_site_aniso_U_23
Na1 Na1+ 0.0116(6) 0.0116(6) 0.0115(8) 0.0058(3) 0 0
Zn1 Zn2+ 0.0038(9) 0.0038(9) 0.0067(16) 0.0019(4) 0 0
Li1 Li1+ 0.0038(9) 0.0038(9) 0.0067(16) 0.0019(4) 0 0
Zn2 Zn2+ 0.0078(6) 0.0078(6) 0.105(12) 0.0039(3) 0 0
Li2 Li1+ 0.0078(6) 0.0078(6) 0.105(12) 0.0039(3) 0 0
O1 O2- 0.0044(18) 0.0044(18) 0.0050(23) 0.0022(9) 0 0
O2 O2- 0.0034(18) 0.0034(18) 0.0135(29) 0.0017(9) 0 0
#End of TTdata_40458-ICSD