
#(C) 2017 by FIZ Karlsruhe - Leibniz Institute for Information Infrastructure.  All rights reserved.
data_406967-ICSD
_database_code_ICSD 406967
_audit_creation_date 1998-06-26
_audit_update_record 2008-02-01
_chemical_name_systematic 'Lithium tetraiodoaurate(III)'
_chemical_formula_structural 'Li (Au I4)'
_chemical_formula_sum 'Au1 I4 Li1'
_exptl_crystal_density_diffrn 5.95
_publ_section_title

;
Synthese, Eigenschaften und Struktur von Li Au I4 und K Au I4 mit einer
Diskussion der kristallchemischen Verwandtschaft zwischen den Halogenauraten
Rb Au Cl4, Ag Au Cl4, Rb Au Br4 und LiAuI4
;
loop_
_citation_id
_citation_journal_full
_citation_year
_citation_journal_volume
_citation_page_first
_citation_page_last
_citation_journal_id_ASTM
primary 'Zeitschrift fuer Anorganische und Allgemeine Chemie (1950) (DE)' 1997
623 1791 1795 ZAACAB
loop_
_publ_author_name
'Schulz Lang, E.'
'Abram, U.'
'Straehle, J.'
_cell_length_a 15.117(4)
_cell_length_b 4.339(4)
_cell_length_c 7.10(2)
_cell_angle_alpha 90.
_cell_angle_beta 121.5(2)
_cell_angle_gamma 90.
_cell_volume 397.08
_cell_formula_units_Z 2
_symmetry_space_group_name_H-M 'P 1 21/a 1'
_symmetry_Int_Tables_number 14
_refine_ls_R_factor_all 0.039
loop_
_symmetry_equiv_pos_site_id
_symmetry_equiv_pos_as_xyz
1 'x+1/2, -y+1/2, z'
2 '-x, -y, -z'
3 '-x+1/2, y+1/2, -z'
4 'x, y, z'
loop_
_atom_type_symbol
_atom_type_oxidation_number
Au3+ 3
I1- -1
Li1+ 1
loop_
_atom_site_label
_atom_site_type_symbol
_atom_site_symmetry_multiplicity
_atom_site_Wyckoff_symbol
_atom_site_fract_x
_atom_site_fract_y
_atom_site_fract_z
_atom_site_B_iso_or_equiv
_atom_site_occupancy
_atom_site_attached_hydrogens
Au1 Au3+ 2 a 0 0 0 . 1. 0
I1 I1- 4 e 0.11787(5) -.0150(2) 0.42897(10) . 1. 0
I2 I1- 4 e 0.13962(4) 0.33611(15) -.02336(9) . 1. 0
Li1 Li1+ 2 b 0 0.5 0.5 . 1. 0
loop_
_atom_site_aniso_label
_atom_site_aniso_type_symbol
_atom_site_aniso_U_11
_atom_site_aniso_U_22
_atom_site_aniso_U_33
_atom_site_aniso_U_12
_atom_site_aniso_U_13
_atom_site_aniso_U_23
Au1 Au3+ 0.0112(3) 0.0216(3) 0.0102(2) -.0009(2) 0.0043(2) -.0023(2)
I1 I1- 0.0164(3) 0.0323(4) 0.0111(3) -.0030(3) 0.0031(3) -.0013(2)
I2 I1- 0.0148(3) 0.0253(3) 0.0168(3) -.0033(2) 0.0079(2) -.0027(2)
Li1 Li1+ 0.017(11) 0.019(11) 0.003(9) 0.005(8) -.001(9) 0.004(7)
#End of TTdata_406967-ICSD