
#(C) 2017 by FIZ Karlsruhe - Leibniz Institute for Information Infrastructure.  All rights reserved.
data_409384-ICSD
_database_code_ICSD 409384
_audit_creation_date 1999-06-02
_audit_update_record 2003-04-01
_chemical_name_systematic 'Trilithium hexafluorogallate - beta, HT'
_chemical_formula_structural 'Li3 (Ga F6)'
_chemical_formula_sum 'F6 Ga1 Li3'
_chemical_name_structure_type Zn4Ta2O9
_exptl_crystal_density_diffrn 3.32
_publ_section_title
'Crystal structure of beta-lithium hexafluorogallate, Li3 Ga F6'
loop_
_citation_id
_citation_journal_full
_citation_year
_citation_journal_volume
_citation_page_first
_citation_page_last
_citation_journal_id_ASTM
primary 'Zeitschrift fuer Kristallographie - New Crystal Structures' 1999 214 25
26 ZKNSFT
loop_
_publ_author_name
'Koehler, J.'
'Tyagi, A.K.'
_cell_length_a 14.367(3)
_cell_length_b 8.571(2)
_cell_length_c 9.994(2)
_cell_angle_alpha 90.
_cell_angle_beta 94.78(3)
_cell_angle_gamma 90.
_cell_volume 1226.38
_cell_formula_units_Z 12
_symmetry_space_group_name_H-M 'C 1 2/c 1'
_symmetry_Int_Tables_number 15
_refine_ls_R_factor_all 0.0484
loop_
_symmetry_equiv_pos_site_id
_symmetry_equiv_pos_as_xyz
1 'x, -y, z+1/2'
2 '-x, -y, -z'
3 '-x, y, -z+1/2'
4 'x, y, z'
5 'x+1/2, -y+1/2, z+1/2'
6 '-x+1/2, -y+1/2, -z'
7 '-x+1/2, y+1/2, -z+1/2'
8 'x+1/2, y+1/2, z'
loop_
_atom_type_symbol
_atom_type_oxidation_number
Ga3+ 3
F1- -1
Li1+ 1
loop_
_atom_site_label
_atom_site_type_symbol
_atom_site_symmetry_multiplicity
_atom_site_Wyckoff_symbol
_atom_site_fract_x
_atom_site_fract_y
_atom_site_fract_z
_atom_site_B_iso_or_equiv
_atom_site_occupancy
_atom_site_attached_hydrogens
Ga1 Ga3+ 4 a 0 0 0 . 1. 0
Ga2 Ga3+ 8 f 0.338090(17) 0.00276(5) 0.70527(3) . 1. 0
F1 F1- 8 f 0.09362(12) 0.3407(2) 0.1960(2) . 1. 0
F2 F1- 8 f 0.23064(12) 0.3408(2) 0.8881(2) . 1. 0
F3 F1- 8 f 0.10043(12) 0.3425(2) 0.6933(2) . 1. 0
F4 F1- 8 f 0.24871(11) 0.0205(2) 0.83718(17) . 1. 0
F5 F1- 8 f 0.07634(12) 0.1616(2) -.0629(2) . 1. 0
F6 F1- 8 f -.07322(12) 0.1634(2) 0.0658(2) . 1. 0
F7 F1- 8 f 0.42093(11) -.0071(2) 0.56809(15) . 1. 0
F8 F1- 8 f 0.26220(12) 0.1538(2) 0.60803(19) . 1. 0
F9 F1- 8 f 0.07206(10) 0.0051(2) 0.16521(15) . 1. 0
Li1 Li1+ 8 f 0.0221(4) 0.3500(6) 0.5373(6) . 1. 0
Li2 Li1+ 8 f 0.2028(4) -.1410(6) 0.9317(6) . 1. 0
Li3 Li1+ 4 e 0 0.1885(9) 0.25 . 1. 0
Li4 Li1+ 8 f 0.1408(4) -.1477(7) 0.2681(6) . 1. 0
Li5 Li1+ 8 f 0.3321(4) 0.2101(6) 0.9481(6) . 1. 0
loop_
_atom_site_aniso_label
_atom_site_aniso_type_symbol
_atom_site_aniso_U_11
_atom_site_aniso_U_22
_atom_site_aniso_U_33
_atom_site_aniso_U_12
_atom_site_aniso_U_13
_atom_site_aniso_U_23
Ga1 Ga3+ 0.00326(18) 0.00197(19) 0.00466(19) -0.00039(18) 0.00228(13) -0.0001(2)
Ga2 Ga3+ 0.00353(15) 0.00212(15) 0.00409(16) 0.00007(13) 0.00231(9) -0.00015(15)
F1 F1- 0.0050(8) 0.0041(7) 0.0073(9) -0.0019(6) 0.0033(7) -0.0017(7)
F2 F1- 0.0052(8) 0.0059(8) 0.0077(10) 0.0002(7) 0.0020(7) 0.0018(7)
F3 F1- 0.0080(8) 0.0036(8) 0.0072(9) -0.0002(6) 0.0000(7) -0.0012(7)
F4 F1- 0.0055(7) 0.0044(8) 0.0073(7) 0.0002(6) 0.0036(5) 0.0005(7)
F5 F1- 0.0073(8) 0.0043(8) 0.0074(10) -0.0020(7) 0.0035(7) 0.0005(7)
F6 F1- 0.0054(8) 0.0039(8) 0.0068(10) 0.0011(7) 0.0027(7) -0.0015(7)
F7 F1- 0.0066(6) 0.0064(7) 0.0076(7) -0.0004(8) 0.0047(5) 0.0009(8)
F8 F1- 0.0059(8) 0.0048(8) 0.0077(10) 0.0024(7) 0.0006(7) 0.0002(7)
F9 F1- 0.0067(6) 0.0050(7) 0.0064(6) 0.0012(7) 0.0011(5) -0.0002(8)
Li1 Li1+ 0.009(2) 0.006(2) 0.010(2) 0.0032(19) 0.0007(17) 0.001(2)
Li2 Li1+ 0.011(2) 0.003(2) 0.012(3) -0.0012(18) 0.002(2) 0.0016(19)
Li3 Li1+ 0.010(3) 0.011(3) 0.011(4) 0 0.005(3) 0
Li4 Li1+ 0.011(2) 0.005(2) 0.019(3) -0.001(2) 0.003(2) -0.001(2)
Li5 Li1+ 0.009(2) 0.010(2) 0.012(3) 0.0010(19) 0.0016(19) -0.002(2)
#End of TTdata_409384-ICSD