
#(C) 2018 by FIZ Karlsruhe - Leibniz Institute for Information Infrastructure.  All rights reserved.
data_409396-ICSD
_database_code_ICSD 409396
_audit_creation_date 1999-11-30
_chemical_name_systematic 'Lithium zinc arsenate hydrate'
_chemical_formula_structural 'Li (Zn As O4) (H2 O)'
_chemical_formula_sum 'H2 As1 Li1 O5 Zn1'
_chemical_name_structure_type Zeolite-ABW-frame
_exptl_crystal_density_diffrn 3.27
_publ_section_title
'Crystal structure of lithium zinc arsenate hydrate, Li Zn As O4 . (H2 O)'
loop_
_citation_id
_citation_journal_full
_citation_year
_citation_journal_volume
_citation_page_first
_citation_page_last
_citation_journal_id_ASTM
primary 'Zeitschrift fuer Kristallographie - New Crystal Structures' 1999 214
301 301 ZKNSFT
loop_
_publ_author_name
'Gesing, T.M.'
_cell_length_a 10.86312(17)
_cell_length_b 8.30123(14)
_cell_length_c 5.16054(8)
_cell_angle_alpha 90.
_cell_angle_beta 90.
_cell_angle_gamma 90.
_cell_volume 465.36
_cell_formula_units_Z 4
_symmetry_space_group_name_H-M 'P n a 21'
_symmetry_Int_Tables_number 33
_refine_ls_R_factor_all 0.047
loop_
_symmetry_equiv_pos_site_id
_symmetry_equiv_pos_as_xyz
1 'x+1/2, -y+1/2, z'
2 '-x+1/2, y+1/2, z+1/2'
3 '-x, -y, z+1/2'
4 'x, y, z'
loop_
_atom_type_symbol
_atom_type_oxidation_number
Li1+ 1
As5+ 5
Zn2+ 2
O2- -2
H1+ 1
loop_
_atom_site_label
_atom_site_type_symbol
_atom_site_symmetry_multiplicity
_atom_site_Wyckoff_symbol
_atom_site_fract_x
_atom_site_fract_y
_atom_site_fract_z
_atom_site_B_iso_or_equiv
_atom_site_occupancy
_atom_site_attached_hydrogens
Li1 Li1+ 4 a 0.3177(40) 0.1787(49) 0.775(23) 0.020(18) 1. 0
As1 As5+ 4 a 0.17213(28) 0.07661(37) 0.25 0.017(1) 1. 0
Zn1 Zn2+ 4 a 0.37609(34) 0.36865(39) 0.2596(24) 0.018(1) 1. 0
O1 O2- 4 a 0.0400(18) 0.1772(19) 0.1768(41) 0.019(7) 1. 0
O2 O2- 4 a 0.2963(17) 0.1732(24) 0.1332(37) 0.024(9) 1. 0
O3 O2- 4 a 0.1923(20) 0.0653(27) 0.5818(39) 0.030(8) 1. 0
O4 O2- 4 a 0.1661(15) 0.8899(25) 0.1246(33) 0.014(7) 1. 0
O5 O2- 4 a 0.4839(17) 0.0910(21) 0.756(11) 0.062(6) 1. 0
H1 H1+ 4 a 0.544(19) 0.169(21) 0.823(52) 0.024(6) 1. 0
H2 H1+ 4 a 0.514(33) 0.052(36) 0.589(40) 0.024(6) 1. 0
#End of TTdata_409396-ICSD