
#(C) 2018 by FIZ Karlsruhe - Leibniz Institute for Information Infrastructure.  All rights reserved.
data_410043-ICSD
_database_code_ICSD 410043
_audit_creation_date 1999-06-02
_audit_update_record 2015-02-01
_chemical_name_systematic 'Lithium dilanthanum trifluoride bis(sulfate(VI))'
_chemical_formula_structural 'Li La2 F3 (S O4)2'
_chemical_formula_sum 'F3 La2 Li1 O8 S2'
_chemical_name_structure_type LiLa2F3(SO4)2
_exptl_crystal_density_diffrn 4.36
_publ_section_title

;
Li La2 F3 (S O4)2 und Li Er2 F3 (S O4)2: Fluoridsulfate der
Selten-Erd-Elemente mit Lithium
;
loop_
_citation_id
_citation_journal_full
_citation_year
_citation_journal_volume
_citation_page_first
_citation_page_last
_citation_journal_id_ASTM
primary 'Zeitschrift fuer Anorganische und Allgemeine Chemie (1950) (DE)' 1999
625 302 308 ZAACAB
loop_
_publ_author_name
'Wickleder, M.S.'
_cell_length_a 8.283(2)
_cell_length_b 6.9471(13)
_cell_length_c 14.209(3)
_cell_angle_alpha 90.
_cell_angle_beta 95.31(2)
_cell_angle_gamma 90.
_cell_volume 814.12
_cell_formula_units_Z 4
_symmetry_space_group_name_H-M 'I 1 2/a 1'
_symmetry_Int_Tables_number 15
_refine_ls_R_factor_all 0.0214
loop_
_symmetry_equiv_pos_site_id
_symmetry_equiv_pos_as_xyz
1 'x+1/2, -y, z'
2 '-x, -y, -z'
3 '-x+1/2, y, -z'
4 'x, y, z'
5 'x, -y+1/2, z+1/2'
6 '-x+1/2, -y+1/2, -z+1/2'
7 '-x, y+1/2, -z+1/2'
8 'x+1/2, y+1/2, z+1/2'
loop_
_atom_type_symbol
_atom_type_oxidation_number
La3+ 3
S6+ 6
O2- -2
F1- -1
O2- -2
F1- -1
Li1+ 1
loop_
_atom_site_label
_atom_site_type_symbol
_atom_site_symmetry_multiplicity
_atom_site_Wyckoff_symbol
_atom_site_fract_x
_atom_site_fract_y
_atom_site_fract_z
_atom_site_B_iso_or_equiv
_atom_site_occupancy
_atom_site_attached_hydrogens
La1 La3+ 8 f 0.15487(2) 0.09227(2) 0.120280(12) . 1. 0
S1 S6+ 8 f 0.0183(1) -.41469(9) 0.17441(6) . 1. 0
O1 O2- 8 f 0.1073(3) -.2731(3) 0.1223(2) . 1. 0
O2 O2- 8 f -.0012(4) -.5918(3) 0.1178(2) . 1. 0
F1 F1- 8 f 0.1166(2) -.0432(3) -.04716(13) . 1. 0
O3 O2- 8 f -.1441(3) -.3428(3) 0.1926(2) . 1. 0
O4 O2- 8 f 0.0999(3) -.4516(4) 0.2696(2) . 1. 0
F2 F1- 4 e 0.25 0.3056(4) 0 . 1. 0
Li1 Li1+ 4 e 0.25 -.4054(15) 0 . 1. 0
loop_
_atom_site_aniso_label
_atom_site_aniso_type_symbol
_atom_site_aniso_U_11
_atom_site_aniso_U_22
_atom_site_aniso_U_33
_atom_site_aniso_U_12
_atom_site_aniso_U_13
_atom_site_aniso_U_23
La1 La3+ 0.0060(2) 0.00727(15) 0.00526(15) -.00050(5) 0.00010(8) -.00049(5)
S1 S6+ 0.0089(4) 0.0065(3) 0.0072(4) 0.0008(2) 0.0011(3) 0.0006(2)
O1 O2- 0.0141(12) 0.0145(11) 0.0195(12) -.0027(9) 0.0061(9) 0.0052(9)
O2 O2- 0.0190(14) 0.0101(11) 0.0168(13) 0.0004(7) 0.0024(11) -.0047(7)
F1 F1- 0.0089(9) 0.0277(10) 0.0100(9) -.0042(8) 0.0003(7) -.0032(8)
O3 O2- 0.0121(11) 0.0144(10) 0.0107(10) 0.0042(8) 0.0011(8) -.0010(8)
O4 O2- 0.0148(12) 0.0192(11) 0.0121(12) 0.0064(10) -.0025(10) 0.0033(10)
F2 F1- 0.0205(15) 0.0146(13) 0.0101(12) 0 0.0043(11) 0
Li1 Li1+ 0.093(14) 0.030(7) 0.036(8) 0 0.027(9) 0
#End of TTdata_410043-ICSD