
#(C) 2018 by FIZ Karlsruhe - Leibniz Institute for Information Infrastructure.  All rights reserved.
data_41022-ICSD
_database_code_ICSD 41022
_audit_creation_date 2000-07-15
_audit_update_record 2005-10-01
_chemical_name_systematic 'Trilithium boron nitride - LT'
_chemical_formula_structural 'Li3 B N2'
_chemical_formula_sum 'B1 Li3 N2'
_chemical_name_structure_type Na3BN2
_exptl_crystal_density_diffrn 1.74
_publ_section_title
'Structure of a new polymorph of lithium boron nitride, Li3 B N2'
loop_
_citation_id
_citation_journal_full
_citation_year
_citation_journal_volume
_citation_page_first
_citation_page_last
_citation_journal_id_ASTM
primary 'Journal of Solid State Chemistry' 1986 65 6 12 JSSCBI
loop_
_publ_author_name
'Yamane, H.'
'Kikkawa, S.'
'Horiuchi, H.'
'Koizumi, M.'
_cell_length_a 5.1502(2)
_cell_length_b 7.0824(2)
_cell_length_c 6.7908(3)
_cell_angle_alpha 90.
_cell_angle_beta 112.956(2)
_cell_angle_gamma 90.
_cell_volume 228.08
_cell_formula_units_Z 4
_symmetry_space_group_name_H-M 'P 1 21/c 1'
_symmetry_Int_Tables_number 14
_refine_ls_R_factor_all 0.023
loop_
_symmetry_equiv_pos_site_id
_symmetry_equiv_pos_as_xyz
1 'x, -y+1/2, z+1/2'
2 '-x, -y, -z'
3 '-x, y+1/2, -z+1/2'
4 'x, y, z'
loop_
_atom_type_symbol
_atom_type_oxidation_number
Li1+ 1
B3+ 3
N3- -3
loop_
_atom_site_label
_atom_site_type_symbol
_atom_site_symmetry_multiplicity
_atom_site_Wyckoff_symbol
_atom_site_fract_x
_atom_site_fract_y
_atom_site_fract_z
_atom_site_B_iso_or_equiv
_atom_site_occupancy
_atom_site_attached_hydrogens
Li1 Li1+ 4 e 0.24995(17) 0.48518(12) 0.49811(12) . 1. 0
Li2 Li1+ 4 e 0.25228(18) 0.01212(13) 0.37502(13) . 1. 0
Li3 Li1+ 4 e 0.74360(16) 0.20714(11) 0.31402(12) . 1. 0
B1 B3+ 4 e 0.21509(7) 0.31982(5) 0.17648(5) . 1. 0
N1 N3- 4 e 0.43403(6) 0.43735(4) 0.21904(5) . 1. 0
N2 N3- 4 e 0.99439(6) 0.20472(5) 0.13461(5) . 1. 0
loop_
_atom_site_aniso_label
_atom_site_aniso_type_symbol
_atom_site_aniso_beta_11
_atom_site_aniso_beta_22
_atom_site_aniso_beta_33
_atom_site_aniso_beta_12
_atom_site_aniso_beta_13
_atom_site_aniso_beta_23
Li1 Li1+ 0.01267(27) 0.00610(13) 0.00713(15) 0.00150(14) 0.00179(16) -.00008(10)
Li2 Li1+ 0.01288(27) 0.00876(15) 0.00671(15) 0.00223(15) 0.00339(16) 0.00018(11)
Li3 Li1+ 0.01159(25) 0.00466(11) 0.00763(14) 0.00004(13) 0.00316(15) 0.00014(10)
B1 B3+ 0.00712(11) 0.00332(5) 0.00406(6) 0.00018(5) 0.00188(7) -.00009(4)
N1 N3- 0.0076(1) 0.00335(4) 0.00627(6) -.00053(4) 0.00171(6) -.00001(3)
N2 N3- 0.00817(10) 0.00511(5) 0.00538(6) -.00160(5) 0.00195(6) 0.00039(4)
#End of TTdata_41022-ICSD