
#(C) 2018 by FIZ Karlsruhe - Leibniz Institute for Information Infrastructure.  All rights reserved.
data_410903-ICSD
_database_code_ICSD 410903
_audit_creation_date 2000-07-15
_audit_update_record 2016-02-01
_chemical_name_systematic 'Lithiumozonide - ammonia(1/5)'
_chemical_formula_structural '(Li O3) (N H3)5'
_chemical_formula_sum 'H15 Li1 N5 O3'
_exptl_crystal_density_diffrn 1.07
_cell_measurement_temperature 123.
_publ_section_title

;
Darstellung und Kristallstruktur von LithiumozonidAmmoniakat (1/5) (Li O3) 5(N
H3)
;
loop_
_citation_id
_citation_journal_full
_citation_year
_citation_journal_volume
_citation_page_first
_citation_page_last
_citation_journal_id_ASTM
primary 'Zeitschrift fuer Naturforschung, B: Chemical Sciences' 1999 54 1345
1349 ZNBSEN
loop_
_publ_author_name
'Klein, W.M.'
'Jansen, M.'
_cell_length_a 12.319(5)
_cell_length_b 6.374(2)
_cell_length_c 11.048(4)
_cell_angle_alpha 90.
_cell_angle_beta 90.
_cell_angle_gamma 90.
_cell_volume 867.5
_cell_formula_units_Z 4
_symmetry_space_group_name_H-M 'P n a 21'
_symmetry_Int_Tables_number 33
_refine_ls_R_factor_all 0.046
loop_
_symmetry_equiv_pos_site_id
_symmetry_equiv_pos_as_xyz
1 'x+1/2, -y+1/2, z'
2 '-x+1/2, y+1/2, z+1/2'
3 '-x, -y, z+1/2'
4 'x, y, z'
loop_
_atom_type_symbol
_atom_type_oxidation_number
O0+ -0.5
O0+ 0
O0+ -0.5
Li1+ 1
N3- -3
H1+ 1
N3- -3
H1+ 1
N3- -3
H1+ 1
N3- -3
H1+ 1
N3- -3
H1+ 1
loop_
_atom_site_label
_atom_site_type_symbol
_atom_site_symmetry_multiplicity
_atom_site_Wyckoff_symbol
_atom_site_fract_x
_atom_site_fract_y
_atom_site_fract_z
_atom_site_B_iso_or_equiv
_atom_site_occupancy
_atom_site_attached_hydrogens
O1 O0+ 4 a 0.0878(2) 0.6335(2) 0.9970(2) .0411(6) 1. 0
O2 O0+ 4 a 0.0234(11) 0.8040(18) 0.0128(18) .0471(37) .333 0
O3 O0+ 4 a 0.0225(10) 0.7010(18) .0679(10) .0312(39) .333 0
O4 O0+ 4 a 0.0048(8) 0.7468(19) 0.0261(18) .0417(28) .333 0
O5 O0+ 4 a 0.0163(2) 0.9040(4) 0.1001(2) .0522(7) 1. 0
Li1 Li1+ 4 a -.2074(4) 0.3671(6) 0.8687(6) .0280(8) 1. 0
N1 N3- 4 a -.1979(2) 0.6920(4) 0.8658(3) .0336(6) 1. 0
H1 H1+ 4 a -.2517(35) 0.7449(65) 0.8938(42) 0.053(12) 1. 0
H2 H1+ 4 a -.1903(42) 0.7532(95) 0.8088(54) 0.080(19) 1. 0
H3 H1+ 4 a -.1498(32) 0.7336(60) 0.9047(36) 0.039(10) 1. 0
N2 N3- 4 a -.2861(2) 0.2902(6) 0.0267(2) .0276(5) 1. 0
H4 H1+ 4 a -.2362(24) 0.2902(53) 0.0782(32) 0.025(8) 1. 0
H5 H1+ 4 a -.3187(33) 0.1713(61) 0.0280(42) 0.054(12) 1. 0
H6 H1+ 4 a -.3496(23) 0.3752(55) 0.0476(35) 0.047(12) 1. 0
N3 N3- 4 a -.2729(2) 0.2646(5) 0.7072(2) .0286(5) 1. 0
H7 H1+ 4 a -.2181(30) 0.2701(70) 0.6423(38) 0.054(12) 1. 0
H8 H1+ 4 a -.3202(36) 0.3276(68) 0.6773(39) 0.047(12) 1. 0
H9 H1+ 4 a -.2972(28) 0.1340(65) 0.6987(37) 0.039(10) 1. 0
N4 N3- 4 a -.0505(2) 0.2472(4) 0.8778(2) .0290(5) 1. 0
H10 H1+ 4 a -.0293(24) 0.2166(50) 0.8113(32) 0.022(8) 1. 0
H11 H1+ 4 a -.0362(32) 0.1440(60) 0.9194(41) 0.046(12) 1. 0
H12 H1+ 4 a -.0036(26) 0.3383(87) 0.8914(51) 0.052(16) 1. 0
N5 N3- 4 a -.0746(3) 0.3220(7) 0.2058(4) .0376(6) 1. 0
H13 H1+ 4 a -.0562(24) 0.2050(55) 0.1812(32) .014(7) 1. 0
H14 H1+ 4 a -.0672(28) 0.3335(56) 0.2899(36) .039(9) 1. 0
H15 H1+ 4 a -.0317(42) 0.4014(72) 0.1754(48) .066(15) 1. 0
loop_
_atom_site_aniso_label
_atom_site_aniso_type_symbol
_atom_site_aniso_U_11
_atom_site_aniso_U_22
_atom_site_aniso_U_33
_atom_site_aniso_U_12
_atom_site_aniso_U_13
_atom_site_aniso_U_23
O1 O0+ 0.0374(10) 0.0369(11) 0.0490(12) 0.0077(9) -.0008(11) -.0095(11)
O2 O0+ 0.065(7) 0.022(6) 0.054(6) -.020(4) -.023(5) 0.001(5)
O3 O0+ 0.015(3) 0.011(6) 0.067(10) 0.007(4) -.016(5) -.021(7)
O4 O0+ 0.042(6) 0.031(5) 0.052(6) 0.004(4) 0.013(4) 0.018(4)
O5 O0+ 0.0689(15) 0.0303(10) 0.0574(15) 0.0040(10) 0.0268(14) -.0034(12)
Li1 Li1+ 0.0261(17) 0.0292(19) 0.0287(18) 0.0014(14) -.0008(18) -.0028(22)
N1 N3- 0.0317(12) 0.0316(12) 0.0374(13) 0.0008(10) -.0044(14) -.0002(13)
N2 N3- 0.0214(10) 0.0346(14) 0.0269(11) -.0013(10) -.0011(8) -.0027(11)
N3 N3- 0.0238(10) 0.0348(13) 0.0271(10) -.0014(11) -.0008(9) -.0023(12)
N4 N3- 0.0280(10) 0.0309(12) 0.0281(12) -.0005(10) -.0004(10) 0.0011(12)
N5 N3- 0.0318(13) 0.0448(16) 0.0361(13) 0.0044(12) -.0015(12) -.0106(14)
#End of TTdata_410903-ICSD