
#(C) 2018 by FIZ Karlsruhe - Leibniz Institute for Information Infrastructure.  All rights reserved.
data_411454-ICSD
_database_code_ICSD 411454
_audit_creation_date 2002-10-01
_chemical_name_systematic 'Lithium distrontium tetranitridorhenate(VII)'
_chemical_formula_structural 'Li Sr2 (Re N4)'
_chemical_formula_sum 'Li1 N4 Re1 Sr2'
_chemical_name_structure_type LiBa2ReN4
_exptl_crystal_density_diffrn 5.91
_cell_measurement_temperature 295.
_publ_section_title
'Li Sr2 (Re N4) und Li Ba2 (Re N4): isotype Nitridorhenate(VII)'
loop_
_citation_id
_citation_journal_full
_citation_year
_citation_journal_volume
_citation_page_first
_citation_page_last
_citation_journal_id_ASTM
primary 'Zeitschrift fuer Anorganische und Allgemeine Chemie (1950) (DE)' 2001
627 37 42 ZAACAB
loop_
_publ_author_name
'Hochrein, O.'
'Borrmann, H.'
'Kniep, R.'
_cell_length_a 6.1464(8)
_cell_length_b 5.8597(6)
_cell_length_c 6.8970(17)
_cell_angle_alpha 90.
_cell_angle_beta 106.375(4)
_cell_angle_gamma 90.
_cell_volume 238.33
_cell_formula_units_Z 2
_symmetry_space_group_name_H-M 'P 1 21/m 1'
_symmetry_Int_Tables_number 11
_refine_ls_R_factor_all 0.049
loop_
_symmetry_equiv_pos_site_id
_symmetry_equiv_pos_as_xyz
1 'x, -y+1/2, z'
2 '-x, -y, -z'
3 '-x, y+1/2, -z'
4 'x, y, z'
loop_
_atom_type_symbol
_atom_type_oxidation_number
Re7+ 7
Sr2+ 2
N3- -3
Li1+ 1
loop_
_atom_site_label
_atom_site_type_symbol
_atom_site_symmetry_multiplicity
_atom_site_Wyckoff_symbol
_atom_site_fract_x
_atom_site_fract_y
_atom_site_fract_z
_atom_site_B_iso_or_equiv
_atom_site_occupancy
_atom_site_attached_hydrogens
Re1 Re7+ 2 e 0.28270(5) 0.25 0.20179(5) . 1. 0
Sr1 Sr2+ 2 e 0.21904(12) -.25 0.43170(12) . 1. 0
Sr2 Sr2+ 2 e 0.73844(12) 0.25 0.05621(12) . 1. 0
N1 N3- 2 e 0.0958(11) 0.25 0.3693(11) 0.0125(14) 1. 0
N2 N3- 2 e 0.1234(11) 0.25 -.0659(10) 0.0093(13) 1. 0
N3 N3- 4 f 0.4707(7) 0.0059(7) 0.2527(7) 0.0093(8) 1. 0
Li1 Li1+ 2 e 0.690(3) -.25 0.302(3) 0.018(5) 1. 0
loop_
_atom_site_aniso_label
_atom_site_aniso_type_symbol
_atom_site_aniso_U_11
_atom_site_aniso_U_22
_atom_site_aniso_U_33
_atom_site_aniso_U_12
_atom_site_aniso_U_13
_atom_site_aniso_U_23
Re1 Re7+ 0.00671(14) 0.00503(13) 0.00564(13) 0 0.00358(11) 0
Sr1 Sr2+ 0.0087(3) 0.0112(3) 0.0093(4) 0 0.0042(3) 0
Sr2 Sr2+ 0.0076(3) 0.0139(4) 0.0089(4) 0 0.0034(3) 0
#End of TTdata_411454-ICSD