
#(C) 2017 by FIZ Karlsruhe - Leibniz Institute for Information Infrastructure.  All rights reserved.
data_41177-ICSD
_database_code_ICSD 41177
_audit_creation_date 1999-11-30
_audit_update_record 2007-04-01
_chemical_name_systematic 'Lithium strontium hexafluorocobaltate'
_chemical_formula_structural 'Li Sr (Co F6)'
_chemical_formula_sum 'Co1 F6 Li1 Sr1'
_chemical_name_structure_type LiSrFeF6
_exptl_crystal_density_diffrn 3.77
_publ_section_title

;
Zur Rutilverwandschaft: Ueber neue Fluoride des Typs Li M(II) M(III) F6 mit
M(III) = Co,Ni und M(II) = Mg, Ca, Sr, Ba, Ni, Cu, Zn, Cd
;
loop_
_citation_id
_citation_journal_full
_citation_year
_citation_journal_volume
_citation_page_first
_citation_page_last
_citation_journal_id_ASTM
primary

;
Zeitschrift fuer Naturforschung, Teil B. Anorganische Chemie, Organische
Chemie (33,1978-41,1986)
; 1982 37 988 994 ZNBAD2
loop_
_publ_author_name
'Fleischer, T.'
'Hoppe, R.'
_cell_length_a 5.2753(3)
_cell_length_b 8.7593(6)
_cell_length_c 10.2133(9)
_cell_angle_alpha 90.
_cell_angle_beta 92.149(6)
_cell_angle_gamma 90.
_cell_volume 471.6
_cell_formula_units_Z 4
_symmetry_space_group_name_H-M 'P 1 21/c 1'
_symmetry_Int_Tables_number 14
loop_
_symmetry_equiv_pos_site_id
_symmetry_equiv_pos_as_xyz
1 'x, -y+1/2, z+1/2'
2 '-x, -y, -z'
3 '-x, y+1/2, -z+1/2'
4 'x, y, z'
loop_
_atom_type_symbol
_atom_type_oxidation_number
Li1+ 1
Sr2+ 2
Co3+ 3
F1- -1
loop_
_atom_site_label
_atom_site_type_symbol
_atom_site_symmetry_multiplicity
_atom_site_Wyckoff_symbol
_atom_site_fract_x
_atom_site_fract_y
_atom_site_fract_z
_atom_site_B_iso_or_equiv
_atom_site_occupancy
_atom_site_attached_hydrogens
Li1 Li1+ 4 e 0.7127(62) 0.0742(46) 0.2589(39) 0.029 1. 0
Sr1 Sr2+ 4 e 0.2477(4) 0.2070(2) 0.9968(2) 0.01 1. 0
Co1 Co3+ 4 e 0.7845(4) 0.0842(3) 0.7406(3) 0.008 1. 0
F1 F1- 4 e 0.0048(17) 0.0363(11) 0.1387(10) 0.017 1. 0
F2 F1- 4 e 0.3755(17) 0.4199(15) 0.8546(9) 0.015 1. 0
F3 F1- 4 e 0.0821(17) 0.4045(15) 0.1416(10) 0.02 1. 0
F4 F1- 4 e 0.5095(17) 0.4527(1) 0.3585(9) 0.015 1. 0
F5 F1- 4 e 0.6054(19) 0.2311(14) 0.6375(12) 0.014 1. 0
F6 F1- 4 e 0.8828(17) 0.2450(12) 0.3510(11) 0.013 1. 0
#End of TTdata_41177-ICSD