
#(C) 2018 by FIZ Karlsruhe - Leibniz Institute for Information Infrastructure.  All rights reserved.
data_411983-ICSD
_database_code_ICSD 411983
_audit_creation_date 2002-10-01
_chemical_name_systematic
'Distrontium oxodilithiumtetrastrontium bis(tetranitridochromate)'
_chemical_formula_structural 'Sr2 (O Li2 Sr4) (Cr N4)2'
_chemical_formula_sum 'Cr2 Li2 N8 O1 Sr6'
_exptl_crystal_density_diffrn 4.45
_cell_measurement_temperature 295.
_publ_section_title

;
Sr2 (O Li2 Sr4) (Cr N4)2, ein Nitridochromat(VI)-Oxid mit Sauerstoff in
tetragonal-bipyramidaler Koordination durch Lithium und Strontium
;
loop_
_citation_id
_citation_journal_full
_citation_year
_citation_journal_volume
_citation_page_first
_citation_page_last
_citation_journal_id_ASTM
primary 'Zeitschrift fuer Anorganische und Allgemeine Chemie (1950) (DE)' 2002
628 1 3 ZAACAB
loop_
_publ_author_name
'Hochrein, O.'
'Kniep, R.'
_cell_length_a 6.1587(9)
_cell_length_b 6.825(1)
_cell_length_c 7.5430(8)
_cell_angle_alpha 82.302(14)
_cell_angle_beta 75.197(10)
_cell_angle_gamma 70.133(13)
_cell_volume 287.9
_cell_formula_units_Z 1
_symmetry_space_group_name_H-M 'P -1'
_symmetry_Int_Tables_number 2
_refine_ls_R_factor_all 0.0443
loop_
_symmetry_equiv_pos_site_id
_symmetry_equiv_pos_as_xyz
1 '-x, -y, -z'
2 'x, y, z'
loop_
_atom_type_symbol
_atom_type_oxidation_number
Sr2+ 2
Cr6+ 6
O2- -2
N3- -3
Li1+ 1
loop_
_atom_site_label
_atom_site_type_symbol
_atom_site_symmetry_multiplicity
_atom_site_Wyckoff_symbol
_atom_site_fract_x
_atom_site_fract_y
_atom_site_fract_z
_atom_site_B_iso_or_equiv
_atom_site_occupancy
_atom_site_attached_hydrogens
Sr1 Sr2+ 2 i 0.30024(8) 0.81217(7) 0.53360(6) . 1. 0
Sr2 Sr2+ 2 i 0.80065(9) 0.62060(8) 0.69791(7) . 1. 0
Sr3 Sr2+ 2 i 0.29381(9) 0.86529(8) 0.07144(6) . 1. 0
Cr1 Cr6+ 2 i 0.21253(14) 1.21174(12) 0.75025(10) . 1. 0
O1 O2- 1 e 0.5 0.5 0 . 1. 0
N1 N3- 2 i 0.4667(8) 0.9879(7) 0.7353(6) . 1. 0
N2 N3- 2 i 0.0134(8) 0.1806(7) 0.6345(6) . 1. 0
N3 N3- 2 i 0.2858(8) 0.4307(7) 0.6429(6) . 1. 0
N4 N3- 2 i 0.0770(9) 0.2544(7) 0.9817(6) . 1. 0
Li1 Li1+ 2 i 0.227(2) 0.5109(17) -.0915(14) . 1. 0
loop_
_atom_site_aniso_label
_atom_site_aniso_type_symbol
_atom_site_aniso_U_11
_atom_site_aniso_U_22
_atom_site_aniso_U_33
_atom_site_aniso_U_12
_atom_site_aniso_U_13
_atom_site_aniso_U_23
Sr1 Sr2+ 0.0149(2) 0.0158(2) 0.0183(2) -.00354(18) -.00307(17) -.00302(16)
Sr2 Sr2+ 0.0183(3) 0.0177(3) 0.0267(3) -.00056(19) -.00572(19) -.00253(19)
Sr3 Sr2+ 0.0173(2) 0.0165(2) 0.0174(2) -.00410(18) -.00214(17) -.00198(16)
Cr1 Cr6+ 0.0136(4) 0.0129(4) 0.0152(3) -.0024(3) -.0022(3) -.0023(3)
O1 O2- 0.022(3) 0.024(3) 0.036(3) -.005(2) -.010(2) -.003(2)
N1 N3- 0.019(2) 0.0153(18) 0.0183(19) -.0047(16) -.0036(16) -.0028(15)
N2 N3- 0.017(2) 0.019(2) 0.0194(19) -.0038(17) -.0056(16) -.0033(16)
N3 N3- 0.018(2) 0.0147(18) 0.022(2) -.0034(16) -.0005(17) -.0005(16)
N4 N3- 0.020(2) 0.0192(19) 0.0162(18) -.0043(17) -.0013(16) -.0030(15)
Li1 Li1+ 0.030(5) 0.023(5) 0.024(4) -.004(4) -.010(4) -.004(4)
#End of TTdata_411983-ICSD