
#(C) 2018 by FIZ Karlsruhe - Leibniz Institute for Information Infrastructure.  All rights reserved.
data_412090-ICSD
_database_code_ICSD 412090
_audit_creation_date 2012-08-01
_chemical_name_systematic 'Cesium lithium uranium bis(tetrathiophosphate)'
_chemical_formula_structural 'Cs Li U (P S4)2'
_chemical_formula_sum 'Cs1 Li1 P2 S8 U1'
_exptl_crystal_density_diffrn 3.58
_cell_measurement_temperature 183.
_publ_section_title

;
Modular metal chalcogenide chemistry: secondary building blocks as a basis of
the silicate-type framework structure of Cs Li U (P S4)2
;
loop_
_citation_id
_citation_journal_full
_citation_year
_citation_journal_volume
_citation_page_first
_citation_page_last
_citation_journal_id_ASTM
primary 'Zeitschrift fuer Anorganische und Allgemeine Chemie (1950) (DE)' 2012
638 405 410 ZAACAB
loop_
_publ_author_name
'Neuhausen, C.'
'Rocker, F.'
'Tremel, W.'
_cell_length_a 15.2797(7)
_cell_length_b 15.2797(7)
_cell_length_c 28.7782(19)
_cell_angle_alpha 90.
_cell_angle_beta 90.
_cell_angle_gamma 120.
_cell_volume 5818.67
_cell_formula_units_Z 18
_symmetry_space_group_name_H-M 'R -3 c H'
_symmetry_Int_Tables_number 167
_refine_ls_R_factor_all 0.0239
loop_
_symmetry_equiv_pos_site_id
_symmetry_equiv_pos_as_xyz
1 'x-y, -y, -z+1/2'
2 '-x, -x+y, -z+1/2'
3 'y, x, -z+1/2'
4 'x-y, x, -z'
5 'y, -x+y, -z'
6 '-x, -y, -z'
7 '-x+y, y, z+1/2'
8 'x, x-y, z+1/2'
9 '-y, -x, z+1/2'
10 '-x+y, -x, z'
11 '-y, x-y, z'
12 'x, y, z'
13 'x-y+2/3, -y+1/3, -z+5/6'
14 '-x+2/3, -x+y+1/3, -z+5/6'
15 'y+2/3, x+1/3, -z+5/6'
16 'x-y+2/3, x+1/3, -z+1/3'
17 'y+2/3, -x+y+1/3, -z+1/3'
18 '-x+2/3, -y+1/3, -z+1/3'
19 '-x+y+2/3, y+1/3, z+5/6'
20 'x+2/3, x-y+1/3, z+5/6'
21 '-y+2/3, -x+1/3, z+5/6'
22 '-x+y+2/3, -x+1/3, z+1/3'
23 '-y+2/3, x-y+1/3, z+1/3'
24 'x+2/3, y+1/3, z+1/3'
25 'x-y+1/3, -y+2/3, -z+1/6'
26 '-x+1/3, -x+y+2/3, -z+1/6'
27 'y+1/3, x+2/3, -z+1/6'
28 'x-y+1/3, x+2/3, -z+2/3'
29 'y+1/3, -x+y+2/3, -z+2/3'
30 '-x+1/3, -y+2/3, -z+2/3'
31 '-x+y+1/3, y+2/3, z+1/6'
32 'x+1/3, x-y+2/3, z+1/6'
33 '-y+1/3, -x+2/3, z+1/6'
34 '-x+y+1/3, -x+2/3, z+2/3'
35 '-y+1/3, x-y+2/3, z+2/3'
36 'x+1/3, y+2/3, z+2/3'
loop_
_atom_type_symbol
_atom_type_oxidation_number
U4+ 4
Cs1+ 1
S2- -2
P5+ 5
S2- -2
Li1+ 1
loop_
_atom_site_label
_atom_site_type_symbol
_atom_site_symmetry_multiplicity
_atom_site_Wyckoff_symbol
_atom_site_fract_x
_atom_site_fract_y
_atom_site_fract_z
_atom_site_B_iso_or_equiv
_atom_site_occupancy
_atom_site_attached_hydrogens
U1 U4+ 18 e 0.334502(13) 0. 0.25 0.01068(9) 1 0
Cs1 Cs1+ 6 a 0. 0. 0.25 0.0807(4) 1 0
Cs2 Cs1+ 12 c 0. 0. 0.076245(17) 0.02629(14) 1 0
S1 S2- 36 f 0.18821(8) 0.18822(8) 0.14780(3) 0.0142(2) 1 0
P1 P5+ 36 f 0.15560(8) 0.29408(8) 0.17089(3) 0.0121(2) 1 0
S2 S2- 36 f 0.15151(9) 0.24543(9) 0.03485(4) 0.0251(3) 1 0
S3 S2- 36 f 0.00703(8) 0.24801(9) 0.16351(4) 0.0183(3) 1 0
S4 S2- 36 f 0.34230(9) 0.15211(9) 0.07335(3) 0.0205(3) 1 0
Li1 Li1+ 18 e 0.6356(10) 0. 0.25 0.024(2) 1 0
loop_
_atom_site_aniso_label
_atom_site_aniso_type_symbol
_atom_site_aniso_U_11
_atom_site_aniso_U_22
_atom_site_aniso_U_33
_atom_site_aniso_U_12
_atom_site_aniso_U_13
_atom_site_aniso_U_23
U1 U4+ 0.01143(12) 0.01174(14) 0.00898(13) 0.00587(7) 0.00013(4) 0.00027(7)
Cs1 Cs1+ 0.0953(6) 0.0953(6) 0.0513(6) 0.0477(3) 0. 0.
Cs2 Cs1+ 0.0259(2) 0.0259(2) 0.0271(3) 0.01295(10) 0. 0.
S1 S2- 0.0155(5) 0.0141(5) 0.0136(4) 0.0078(4) 0.0016(4) 0.0008(4)
P1 P5+ 0.0125(6) 0.0137(5) 0.0101(4) 0.0066(5) 0.0013(4) 0.0007(4)
S2 S2- 0.0180(6) 0.0181(6) 0.0299(6) 0.0020(5) -0.0090(5) 0.0100(5)
S3 S2- 0.0133(5) 0.0281(7) 0.0139(4) 0.0107(5) -0.0030(4) -0.0063(4)
S4 S2- 0.0376(7) 0.0189(6) 0.0113(5) 0.0189(5) 0.0071(4) 0.0045(4)
Li1 Li1+ 0.035(5) 0.007(6) 0.022(6) 0.004(3) 0.0019(19) 0.004(4)
#End of TTdata_412090-ICSD