
#(C) 2018 by FIZ Karlsruhe - Leibniz Institute for Information Infrastructure.  All rights reserved.
data_412156-ICSD
_database_code_ICSD 412156
_audit_creation_date 2003-04-01
_chemical_name_systematic
'Ammonium tetraamminelithium amidotrithiophosphate(V) - ammonia (1/1)'
_chemical_formula_structural '((N H4) (Li (N H3)4) (P (N H2) S3)) (N H3)'
_chemical_formula_sum 'H21 Li1 N7 P1 S3'
_exptl_crystal_density_diffrn 1.28
_cell_measurement_temperature 123.
_publ_section_title

;
Synthesis and crystal structure of ammonium tetraamminelithium
amidotrithiophosphate-ammonia(1/1) (N H4) (Li (N H3)4) (P (N H2) S3) * (N H3)
;
loop_
_citation_id
_citation_journal_full
_citation_year
_citation_journal_volume
_citation_page_first
_citation_page_last
_citation_journal_id_ASTM
primary 'Zeitschrift fuer Anorganische und Allgemeine Chemie (1950) (DE)' 2002
628 762 764 ZAACAB
loop_
_publ_author_name
'Pfisterer, K.'
'Korber, N.'
_cell_length_a 7.182(1)
_cell_length_b 7.256(1)
_cell_length_c 13.128(2)
_cell_angle_alpha 87.88(1)
_cell_angle_beta 89.23(1)
_cell_angle_gamma 74.30(1)
_cell_volume 658.16
_cell_formula_units_Z 2
_symmetry_space_group_name_H-M 'P -1'
_symmetry_Int_Tables_number 2
_refine_ls_R_factor_all 0.031
loop_
_symmetry_equiv_pos_site_id
_symmetry_equiv_pos_as_xyz
1 '-x, -y, -z'
2 'x, y, z'
loop_
_atom_type_symbol
_atom_type_oxidation_number
P5+ 5
S2- -2
N3- -3
H1+ 1
N3- -3
H1+ 1
N3- -3
H1+ 1
N3- -3
H1+ 1
N3- -3
H1+ 1
N3- -3
H1+ 1
N3- -3
H1+ 1
Li1+ 1
loop_
_atom_site_label
_atom_site_type_symbol
_atom_site_symmetry_multiplicity
_atom_site_Wyckoff_symbol
_atom_site_fract_x
_atom_site_fract_y
_atom_site_fract_z
_atom_site_B_iso_or_equiv
_atom_site_occupancy
_atom_site_attached_hydrogens
P1 P5+ 2 i 0.04553(7) 0.81231(6) 0.69710(3) 0.01275(18) 1. 0
S1 S2- 2 i -.18103(7) 0.83392(6) 0.60037(3) 0.01574(18) 1. 0
S2 S2- 2 i 0.13107(7) 0.55449(6) 0.77070(3) 0.01645(18) 1. 0
S3 S2- 2 i -.00883(7) 0.03359(6) 0.79377(3) 0.01629(18) 1. 0
N1 N3- 2 i 0.2298(3) 0.8206(3) 0.61575(14) 0.0196(4) 1. 0
H1 H1+ 2 i 0.199(5) 0.913(5) 0.575(2) 0.044(8) 1. 0
H2 H1+ 2 i 0.334(6) 0.803(5) 0.640(3) 0.044(9) 1. 0
N2 N3- 2 i -.1188(3) 0.3454(3) 0.59809(13) 0.0201(4) 1. 0
H3 H1+ 2 i -.248(5) 0.345(4) 0.589(2) 0.037(8) 1. 0
H4 H1+ 2 i -.060(5) 0.293(4) 0.539(3) 0.045(8) 1. 0
H5 H1+ 2 i -.063(5) 0.266(5) 0.649(2) 0.042(8) 1. 0
H6 H1+ 2 i -.117(4) 0.460(4) 0.611(2) 0.032(7) 1. 0
N3 N3- 2 i 0.4902(3) 0.3227(3) 0.58639(14) 0.0268(4) 1. 0
H7 H1+ 2 i 0.514(5) 0.205(3) 0.601(3) 0.055(10) 1. 0
H8 H1+ 2 i 0.450(5) 0.330(5) 0.5259(16) 0.062(11) 1. 0
H9 H1+ 2 i 0.401(5) 0.393(5) 0.621(3) 0.075(13) 1. 0
N4 N3- 2 i 0.1841(3) 0.2607(3) 0.00387(13) 0.0206(4) 1. 0
H10 H1+ 2 i 0.1688 0.3647 0.9607 0.025 1. 0
H11 H1+ 2 i 0.0818 0.2799 0.0477 0.025 1. 0
H12 H1+ 2 i 0.1903 0.1551 0.9673 0.025 1. 0
N5 N3- 2 i 0.5083(3) -.0319(3) 1.17360(15) 0.0240(4) 1. 0
H13 H1+ 2 i 0.4121 -.0315 1.2195 0.029 1. 0
H14 H1+ 2 i 0.6205 -.0413 1.2073 0.029 1. 0
H15 H1+ 2 i 0.524 -.1335 1.1326 0.029 1. 0
N6 N3- 2 i 0.3709(3) 0.4306(3) 1.19605(13) 0.0233(4) 1. 0
H16 H1+ 2 i 0.2814 0.536 1.1709 0.028 1. 0
H17 H1+ 2 i 0.4803 0.4631 1.2125 0.028 1. 0
H18 H1+ 2 i 0.3226 0.3836 1.2527 0.028 1. 0
N7 N3- 2 i 0.6797(3) 0.2581(3) 1.01100(13) 0.0210(4) 1. 0
H19 H1+ 2 i 0.718 0.1681 0.963 0.025 1. 0
H20 H1+ 2 i 0.7765 0.2459 1.0569 0.025 1. 0
H21 H1+ 2 i 0.6518 0.377 0.9804 0.025 1. 0
Li1 Li1+ 2 i 0.4361(5) 0.2206(5) 1.0854(3) 0.0223(7) 1. 0
loop_
_atom_site_aniso_label
_atom_site_aniso_type_symbol
_atom_site_aniso_U_11
_atom_site_aniso_U_22
_atom_site_aniso_U_33
_atom_site_aniso_U_12
_atom_site_aniso_U_13
_atom_site_aniso_U_23
P1 P5+ 0.0149(3) 0.0133(3) 0.0100(3) -0.00366(19) 0.00073(18) -0.00066(17)
S1 S2- 0.0184(3) 0.0161(3) 0.0125(3) -0.00419(19) -0.00255(18) -0.00025(17)
S2 S2- 0.0189(3) 0.0149(3) 0.0147(3) -0.00326(19) -0.00108(18) 0.00206(17)
S3 S2- 0.0198(3) 0.0160(3) 0.0131(3) -0.00448(19) 0.00011(18) -0.00365(17)
N1 N3- 0.0194(11) 0.0206(9) 0.0178(9) -0.0042(7) 0.0047(7) 0.0017(7)
N2 N3- 0.0261(11) 0.0187(9) 0.0155(9) -0.0057(7) 0.0019(7) -0.0036(7)
N3 N3- 0.0267(11) 0.031(1) 0.0203(9) -0.0034(8) 0.0003(8) -0.0044(8)
N4 N3- 0.0197(10) 0.0247(9) 0.0173(8) -0.0058(7) 0.0011(7) 0.0004(7)
N5 N3- 0.0185(10) 0.0268(9) 0.0262(9) -0.0058(7) 0.0016(7) -0.0003(7)
N6 N3- 0.0218(10) 0.0282(10) 0.0200(9) -0.0074(7) 0.0023(7) -0.0007(7)
N7 N3- 0.0206(10) 0.0279(9) 0.0157(8) -0.0088(7) 0.0001(7) -0.0008(7)
Li1 Li1+ 0.0196(19) 0.0294(18) 0.0184(16) -0.0075(14) 0.0018(13) -0.0012(13)
#End of TTdata_412156-ICSD