
#(C) 2018 by FIZ Karlsruhe - Leibniz Institute for Information Infrastructure.  All rights reserved.
data_413238-ICSD
_database_code_ICSD 413238
_audit_creation_date 2004-04-01
_chemical_name_systematic 'Lithium chlorate(VII)'
_chemical_formula_structural 'Li (Cl O4)'
_chemical_formula_sum 'Cl1 Li1 O4'
_chemical_name_structure_type LiClO4
_exptl_crystal_density_diffrn 2.44
_publ_section_title 'Crystal structure of Li Cl O4'
loop_
_citation_id
_citation_journal_full
_citation_year
_citation_journal_volume
_citation_page_first
_citation_page_last
_citation_journal_id_ASTM
primary 'Zeitschrift fuer Anorganische und Allgemeine Chemie (1950) (DE)' 2003
629 1466 1468 ZAACAB
loop_
_publ_author_name
'Wickleder, M.S.'
_cell_length_a 8.6567(14)
_cell_length_b 6.9129(9)
_cell_length_c 4.8323(6)
_cell_angle_alpha 90.
_cell_angle_beta 90.
_cell_angle_gamma 90.
_cell_volume 289.18
_cell_formula_units_Z 4
_symmetry_space_group_name_H-M 'P n m a'
_symmetry_Int_Tables_number 62
_refine_ls_R_factor_all 0.0216
loop_
_symmetry_equiv_pos_site_id
_symmetry_equiv_pos_as_xyz
1 'x+1/2, y, -z+1/2'
2 'x, -y+1/2, z'
3 '-x+1/2, y+1/2, z+1/2'
4 '-x, -y, -z'
5 '-x+1/2, -y, z+1/2'
6 '-x, y+1/2, -z'
7 'x+1/2, -y+1/2, -z+1/2'
8 'x, y, z'
loop_
_atom_type_symbol
_atom_type_oxidation_number
Cl7+ 7
O2- -2
Li1+ 1
loop_
_atom_site_label
_atom_site_type_symbol
_atom_site_symmetry_multiplicity
_atom_site_Wyckoff_symbol
_atom_site_fract_x
_atom_site_fract_y
_atom_site_fract_z
_atom_site_B_iso_or_equiv
_atom_site_occupancy
_atom_site_attached_hydrogens
Cl1 Cl7+ 4 c 0.81743(6) 0.75 0.04191(10) 0.01192(18) 1. 0
O1 O2- 4 c 0.65011(18) 0.75 0.0467(4) 0.0194(4) 1. 0
O2 O2- 8 d 0.87089(14) 0.57929(18) 0.1789(3) 0.0215(3) 1. 0
O3 O2- 4 c 0.8710(2) 0.75 0.7605(3) 0.0227(4) 1. 0
Li1 Li1+ 4 b 0 0.5 0.5 0.0487(16) 1. 0
loop_
_atom_site_aniso_label
_atom_site_aniso_type_symbol
_atom_site_aniso_U_11
_atom_site_aniso_U_22
_atom_site_aniso_U_33
_atom_site_aniso_U_12
_atom_site_aniso_U_13
_atom_site_aniso_U_23
Cl1 Cl7+ 0.0096(3) 0.0147(3) 0.0115(3) 0 -0.00046(18) 0
O1 O2- 0.0094(8) 0.0217(9) 0.0272(9) 0 0.0006(6) 0
O2 O2- 0.0234(7) 0.0175(7) 0.0236(7) 0.0035(5) -0.0047(5) 0.0045(5)
O3 O2- 0.0238(9) 0.0307(10) 0.0136(8) 0 0.0054(7) 0
Li1 Li1+ 0.043(3) 0.046(3) 0.057(3) -0.019(3) -0.031(3) 0.029(3)
#End of TTdata_413238-ICSD