
#(C) 2018 by FIZ Karlsruhe - Leibniz Institute for Information Infrastructure.  All rights reserved.
data_41321-ICSD
_database_code_ICSD 41321
_audit_creation_date 1999-11-30
_audit_update_record 2013-08-01
_chemical_name_systematic 'Hexalithium dizirconate'
_chemical_formula_structural 'Li6 (Zr2 O7)'
_chemical_formula_sum 'Li6 O7 Zr2'
_chemical_name_structure_type Li6Zr2O7
_exptl_crystal_density_diffrn 3.56
_publ_section_title
'Preparation and crystal structure of Li6 Zr2 O7 and Li6 Hf2 O7'
loop_
_citation_id
_citation_journal_full
_citation_year
_citation_journal_volume
_citation_page_first
_citation_page_last
_citation_journal_id_ASTM
primary 'Zeitschrift fuer Anorganische und Allgemeine Chemie (1950) (DE)' 1993
619 2038 2042 ZAACAB
loop_
_publ_author_name
'Czekalla, R.'
'Jeitschko, W.'
_cell_length_a 10.445(1)
_cell_length_b 5.989(1)
_cell_length_c 10.200(1)
_cell_angle_alpha 90.
_cell_angle_beta 100.26(1)
_cell_angle_gamma 90.
_cell_volume 627.86
_cell_formula_units_Z 4
_symmetry_space_group_name_H-M 'C 1 2/c 1'
_symmetry_Int_Tables_number 15
_refine_ls_R_factor_all 0.016
loop_
_symmetry_equiv_pos_site_id
_symmetry_equiv_pos_as_xyz
1 'x, -y, z+1/2'
2 '-x, -y, -z'
3 '-x, y, -z+1/2'
4 'x, y, z'
5 'x+1/2, -y+1/2, z+1/2'
6 '-x+1/2, -y+1/2, -z'
7 '-x+1/2, y+1/2, -z+1/2'
8 'x+1/2, y+1/2, z'
loop_
_atom_type_symbol
_atom_type_oxidation_number
Zr4+ 4
Li1+ 1
O2- -2
loop_
_atom_site_label
_atom_site_type_symbol
_atom_site_symmetry_multiplicity
_atom_site_Wyckoff_symbol
_atom_site_fract_x
_atom_site_fract_y
_atom_site_fract_z
_atom_site_B_iso_or_equiv
_atom_site_occupancy
_atom_site_attached_hydrogens
Zr1 Zr4+ 8 f 0.18341(2) 0.37872(3) 0.36463(2) . 1. 0
Li1 Li1+ 8 f 0.0638(5) 0.1454(9) 0.0841(5) 1.63(7) 1. 0
Li2 Li1+ 8 f 0.2917(4) 0.3698(8) 0.1020(4) 1.33(6) 1. 0
Li3 Li1+ 8 f 0.5665(4) 0.0962(7) 0.1031(4) 1.11(6) 1. 0
O1 O2- 8 f 0.1338(1) 0.1339(3) 0.5023(1) . 1. 0
O2 O2- 8 f 0.2500(2) 0.1116(3) 0.2549(2) . 1. 0
O3 O2- 8 f 0.3783(1) 0.1223(3) 0.0227(1) . 1. 0
O4 O2- 4 e 0 0.3503(4) 0.25 . 1. 0
loop_
_atom_site_aniso_label
_atom_site_aniso_type_symbol
_atom_site_aniso_B_11
_atom_site_aniso_B_22
_atom_site_aniso_B_33
_atom_site_aniso_B_12
_atom_site_aniso_B_13
_atom_site_aniso_B_23
Zr1 Zr4+ 0.270(4) 0.287(4) 0.265(4) 0.019(4) 0.000(3) 0.014(4)
O1 O2- 0.49(3) 0.61(4) 0.53(3) -.05(4) -.03(3) 0.03(4)
O2 O2- 1.29(4) 0.74(4) 0.77(4) 0.21(4) 0.24(3) -.15(4)
O3 O2- 0.58(4) 0.62(4) 0.62(4) -.02(4) 0.10(3) 0.05(4)
O4 O2- 0.65(6) 1.38(7) 0.81(6) 0 -.21(5) 0
#End of TTdata_41321-ICSD