
#(C) 2018 by FIZ Karlsruhe - Leibniz Institute for Information Infrastructure.  All rights reserved.
data_413355-ICSD
_database_code_ICSD 413355
_audit_creation_date 2004-10-01
_chemical_name_systematic
'Lithium iodide - trilithium trithioantimonate(III) (2/1)'
_chemical_formula_structural '(Li I)2 (Li3 (Sb S3))'
_chemical_formula_sum 'I2 Li5 S3 Sb1'
_exptl_crystal_density_diffrn 3.17
_publ_section_title

;
(Li I)2 Li3 Sb S3: a mixed alkali metal halide thioantimonate with a novel
tetrahedron network
;
loop_
_citation_id
_citation_journal_full
_citation_year
_citation_journal_volume
_citation_page_first
_citation_page_last
_citation_journal_id_ASTM
primary 'Zeitschrift fuer Anorganische und Allgemeine Chemie (1950) (DE)' 2004
630 75 79 ZAACAB
loop_
_publ_author_name
'Pfitzner, A.'
'Preitschaft, C.'
'Rau, F.'
_cell_length_a 10.4364(6)
_cell_length_b 13.5085(10)
_cell_length_c 7.5299(4)
_cell_angle_alpha 90.
_cell_angle_beta 90.
_cell_angle_gamma 90.
_cell_volume 1061.57
_cell_formula_units_Z 4
_symmetry_space_group_name_H-M 'P n n m'
_symmetry_Int_Tables_number 58
_refine_ls_R_factor_all 0.03
loop_
_symmetry_equiv_pos_site_id
_symmetry_equiv_pos_as_xyz
1 'x+1/2, -y+1/2, z+1/2'
2 '-x+1/2, y+1/2, z+1/2'
3 'x, y, -z'
4 '-x, -y, -z'
5 '-x+1/2, y+1/2, -z+1/2'
6 'x+1/2, -y+1/2, -z+1/2'
7 '-x, -y, z'
8 'x, y, z'
loop_
_atom_type_symbol
_atom_type_oxidation_number
Li1+ 1
Sb3+ 3
I1- -1
S2- -2
loop_
_atom_site_label
_atom_site_type_symbol
_atom_site_symmetry_multiplicity
_atom_site_Wyckoff_symbol
_atom_site_fract_x
_atom_site_fract_y
_atom_site_fract_z
_atom_site_B_iso_or_equiv
_atom_site_occupancy
_atom_site_attached_hydrogens
Li1 Li1+ 8 h 0.0588(9) 0.0978(7) 0.2303(13) 0.036(2) 1. 0
Li2 Li1+ 4 g 0.1872(14) 0.4612(10) 0 0.036(3) 1. 0
Li3 Li1+ 8 h 0.3053(13) 0.2522(7) 0.2424(15) 0.052(3) 1. 0
Sb1 Sb3+ 4 g 0.30106(4) -.00519(3) 0 0.01890(11) 1. 0
I1 I1- 4 g 0.56861(5) 0.26204(3) 0 0.02563(12) 1. 0
I2 I1- 4 g 0.05765(5) 0.64262(3) 0 0.03001(13) 1. 0
S1 S2- 4 g 0.20184(16) 0.15915(10) 0 0.0203(3) 1. 0
S2 S2- 8 h 0.32711(11) 0.43315(8) 0.25301(15) 0.0208(2) 1. 0
loop_
_atom_site_aniso_label
_atom_site_aniso_type_symbol
_atom_site_aniso_U_11
_atom_site_aniso_U_22
_atom_site_aniso_U_33
_atom_site_aniso_U_12
_atom_site_aniso_U_13
_atom_site_aniso_U_23
Li1 Li1+ 0.025(5) 0.038(4) 0.046(5) -.005(4) 0.006(4) -.009(4)
Li2 Li1+ 0.028(7) 0.055(8) 0.026(7) 0.002(6) 0 0
Li3 Li1+ 0.077(8) 0.022(4) 0.057(7) -.002(5) -.033(6) -.001(4)
Sb1 Sb3+ 0.0157(2) 0.01887(19) 0.0221(2) -.00029(17) 0 0
I1 I1- 0.0272(2) 0.0257(2) 0.0239(2) 0.00303(18) 0 0
I2 I1- 0.0271(2) 0.0247(2) 0.0383(3) -.00133(19) 0 0
S1 S2- 0.0235(8) 0.0155(7) 0.0219(8) -.0026(6) 0 0
S2 S2- 0.0223(6) 0.0196(5) 0.0204(5) 0.0007(4) 0.0003(5) -.0025(4)
#End of TTdata_413355-ICSD