
#(C) 2018 by FIZ Karlsruhe - Leibniz Institute for Information Infrastructure.  All rights reserved.
data_415120-ICSD
_database_code_ICSD 415120
_audit_creation_date 2007-08-01
_chemical_name_systematic 'Dilithium trithiotellurate(IV)'
_chemical_formula_structural 'Li2 (Te S3)'
_chemical_formula_sum 'Li2 S3 Te1'
_chemical_name_structure_type Ag2SeO3
_exptl_crystal_density_diffrn 3.18
_publ_section_title

;
Li2 Te S3 and Li2 Te Se3: Preparation, crystal structure and impedance
spectroscopic characterization
;
loop_
_citation_id
_citation_journal_full
_citation_year
_citation_journal_volume
_citation_page_first
_citation_page_last
_citation_journal_id_ASTM
primary 'Zeitschrift fuer Anorganische und Allgemeine Chemie (1950) (DE)' 2005
631 1227 1232 ZAACAB
loop_
_publ_author_name
'Preitschaft, C.'
'Zabel, M.'
'Pfitzner, A.'
_cell_length_a 5.4370(10)
_cell_length_b 11.559(2)
_cell_length_c 7.907(2)
_cell_angle_alpha 90.
_cell_angle_beta 91.57(3)
_cell_angle_gamma 90.
_cell_volume 496.74
_cell_formula_units_Z 4
_symmetry_space_group_name_H-M 'P 1 21/c 1'
_symmetry_Int_Tables_number 14
_refine_ls_R_factor_all 0.0187
loop_
_symmetry_equiv_pos_site_id
_symmetry_equiv_pos_as_xyz
1 'x, -y+1/2, z+1/2'
2 '-x, -y, -z'
3 '-x, y+1/2, -z+1/2'
4 'x, y, z'
loop_
_atom_type_symbol
_atom_type_oxidation_number
Te4+ 4
S2- -2
Li1+ 1
loop_
_atom_site_label
_atom_site_type_symbol
_atom_site_symmetry_multiplicity
_atom_site_Wyckoff_symbol
_atom_site_fract_x
_atom_site_fract_y
_atom_site_fract_z
_atom_site_B_iso_or_equiv
_atom_site_occupancy
_atom_site_attached_hydrogens
Te1 Te4+ 4 e 0.71732(3) 0.087071(11) 0.183866(15) 0.01470(7) 1 0
S1 S2- 4 e 0.77040(12) 0.24260(5) 0.37835(7) 0.01998(12) 1 0
S2 S2- 4 e 0.74480(13) -0.07297(5) 0.36813(8) 0.02084(13) 1 0
S3 S2- 4 e 0.28592(12) 0.09827(5) 0.13838(7) 0.01948(13) 1 0
Li1 Li1+ 4 e 1.2378(13) -0.0851(5) 0.3681(9) 0.0379(13) 1 0
Li2 Li1+ 4 e 0.7393(11) -0.2289(5) 0.1431(7) 0.0342(11) 1 0
loop_
_atom_site_aniso_label
_atom_site_aniso_type_symbol
_atom_site_aniso_U_11
_atom_site_aniso_U_22
_atom_site_aniso_U_33
_atom_site_aniso_U_12
_atom_site_aniso_U_13
_atom_site_aniso_U_23
Te1 Te4+ 0.01388(11) 0.01477(9) 0.01543(9) -0.00009(4) 0.00027(6) -0.00052(4)
S1 S2- 0.0230(3) 0.0178(2) 0.0192(2) -0.00078(19) 0.00034(19) -0.00406(17)
S2 S2- 0.0246(3) 0.0180(2) 0.0199(3) 0.00063(19) -0.0001(2) 0.00324(18)
S3 S2- 0.0143(3) 0.0226(3) 0.0216(3) 0.00030(18) -0.0002(2) -0.00083(17)
Li1 Li1+ 0.033(4) 0.042(3) 0.039(3) 0.0001(19) -0.001(2) 0.003(2)
Li2 Li1+ 0.038(3) 0.029(2) 0.036(2) 0.000(2) 0.001(2) 0.001(2)
#End of TTdata_415120-ICSD