
#(C) 2018 by FIZ Karlsruhe - Leibniz Institute for Information Infrastructure.  All rights reserved.
data_415153-ICSD
_database_code_ICSD 415153
_audit_creation_date 2006-10-01
_chemical_name_systematic 'Lithium manganese diphosphate'
_chemical_formula_structural 'Li Mn P2 O7'
_chemical_formula_sum 'Li1 Mn1 O7 P2'
_chemical_name_structure_type LiInP2O7
_exptl_crystal_density_diffrn 3.07
_publ_section_title

;
Two isostructural manganese(III) diphosphates, acid alpha-Mn H P2 O7  and
double Mn Li P2 O7: crystal structure determination from x-ray powder
diffraction data
;
loop_
_citation_id
_citation_journal_full
_citation_year
_citation_journal_volume
_citation_page_first
_citation_page_last
_citation_journal_id_ASTM
primary 'Zeitschrift fuer Kristallographie (1979-2010)' 2006 221 115 121 ZEKRDZ
loop_
_publ_author_name
'Ivashkevich, L.S.'
'Selevich, K.A.'
'Lesnikovich, A.I.'
'Selevich, A.F.'
'Lyakhov, A.S.'
_cell_length_a 7.0018(5)
_cell_length_b 8.1616(6)
_cell_length_c 4.7267(4)
_cell_angle_alpha 90
_cell_angle_beta 109.404(3)
_cell_angle_gamma 90
_cell_volume 254.77
_cell_formula_units_Z 2
_symmetry_space_group_name_H-M 'P 1 21 1'
_symmetry_Int_Tables_number 4
_refine_ls_R_factor_all 0.0307
loop_
_symmetry_equiv_pos_site_id
_symmetry_equiv_pos_as_xyz
1 '-x, y+1/2, -z'
2 'x, y, z'
loop_
_atom_type_symbol
_atom_type_oxidation_number
Mn3+ 3
Li1+ 1
P5+ 5
O2- -2
loop_
_atom_site_label
_atom_site_type_symbol
_atom_site_symmetry_multiplicity
_atom_site_Wyckoff_symbol
_atom_site_fract_x
_atom_site_fract_y
_atom_site_fract_z
_atom_site_B_iso_or_equiv
_atom_site_occupancy
_atom_site_attached_hydrogens
Mn1 Mn3+ 2 a 0.2344(6) 0.25 0.2170(12) 0.0038(10) 1. 0
Li1 Li1+ 2 a 0.8172(17) 0.3812(14) 0.783(3) 0.025 1. 0
P1 P5+ 2 a 0.4061(5) 0.4372(4) 0.8119(8) 0.0038(10) 1. 0
P2 P5+ 2 a -0.0018(5) 0.5568(5) 0.4140(7) 0.0038(10) 1. 0
O1 O2- 2 a 0.3920(19) 0.2963(15) 0.595(3) 0.0038(10) 1. 0
O2 O2- 2 a 0.5899(12) 0.5481(12) 0.897(4) 0.0038(10) 1. 0
O3 O2- 2 a 0.352(2) 0.3968(17) 1.082(2) 0.0038(10) 1. 0
O4 O2- 2 a -0.0110(18) 0.4564(16) 0.160(2) 0.0038(10) 1. 0
O5 O2- 2 a -0.0412(15) 0.7020(12) 0.200(2) 0.0038(10) 1. 0
O6 O2- 2 a -0.1239(17) 0.5694(17) 0.623(2) 0.0038(10) 1. 0
O7 O2- 2 a 0.2470(7) 0.5669(11) 0.585(2) 0.0038(10) 1. 0
#End of TTdata_415153-ICSD