
#(C) 2018 by FIZ Karlsruhe - Leibniz Institute for Information Infrastructure.  All rights reserved.
data_415199-ICSD
_database_code_ICSD 415199
_audit_creation_date 2006-10-01
_chemical_name_systematic 'Lithium triborate'
_chemical_formula_structural 'B3 Li O5'
_chemical_formula_sum 'B3 Li1 O5'
_chemical_name_structure_type LiB3O5
_exptl_crystal_density_diffrn 2.42
_cell_measurement_temperature 650.
_publ_section_title 'Li B3 O5 crystal structure at 20, 227, and 377 degree C'
loop_
_citation_id
_citation_journal_full
_citation_year
_citation_journal_volume
_citation_page_first
_citation_page_last
_citation_journal_id_ASTM
primary 'Journal of Solid State Chemistry' 2005 178 2987 2997 JSSCBI
loop_
_publ_author_name
'Shepelev, Yu.F.'
'Bubnova, R.S.'
'Filatov, S.K.'
'Sennova, N.A.'
'Pilneva, N.A.'
_cell_length_a 8.746(7)
_cell_length_b 7.480(6)
_cell_length_c 5.013(5)
_cell_angle_alpha 90.
_cell_angle_beta 90.
_cell_angle_gamma 90.
_cell_volume 327.95
_cell_formula_units_Z 4
_symmetry_space_group_name_H-M 'P n a 21'
_symmetry_Int_Tables_number 33
_refine_ls_R_factor_all 0.0301
loop_
_symmetry_equiv_pos_site_id
_symmetry_equiv_pos_as_xyz
1 'x+1/2, -y+1/2, z'
2 '-x+1/2, y+1/2, z+1/2'
3 '-x, -y, z+1/2'
4 'x, y, z'
loop_
_atom_type_symbol
_atom_type_oxidation_number
Li1+ 1
B3+ 3
O2- -2
loop_
_atom_site_label
_atom_site_type_symbol
_atom_site_symmetry_multiplicity
_atom_site_Wyckoff_symbol
_atom_site_fract_x
_atom_site_fract_y
_atom_site_fract_z
_atom_site_B_iso_or_equiv
_atom_site_occupancy
_atom_site_attached_hydrogens
Li1 Li1+ 4 a .38696(61) .56275(35) .02755(0) 6.445(97) 1. 0
B1 B3+ 4 a .51026(9) .83512(9) .353(1) 1.208(11) 1. 0
B2 B3+ 4 a .68917(8) .05489(9) .548(1) .995(9) 1. 0
B3 B3+ 4 a .65730(7) .75098(9) .735(1) 1.058(10) 1. 0
O1 O2- 4 a .58768(7) .99078(7) .339(1) 1.568(8) 1. 0
O2 O2- 4 a .38682(7) .79821(6) .196(1) 1.478(8) 1. 0
O3 O2- 4 a .55699(7) .70327(7) .532(1) 1.587(9) 1. 0
O4 O2- 4 a .73164(6) .91016(6) .738(1) 1.226(7) 1. 0
O5 O2- 4 a .67118(6) .62094(7) .924(1) 1.476(8) 1. 0
loop_
_atom_site_aniso_label
_atom_site_aniso_type_symbol
_atom_site_aniso_beta_11
_atom_site_aniso_beta_22
_atom_site_aniso_beta_33
_atom_site_aniso_beta_12
_atom_site_aniso_beta_13
_atom_site_aniso_beta_23
Li1 Li1+ .03453(73) .00754(28) .06886(236) .00329(93) -.06056(239) -.00879(156)
B1 B3+ .00400(7) .00459(8) .01321(23) .00061(12) -.00400(20) .00065(23)
B2 B3+ .00310(6) .00364(7) .01176(20) -.00028(10) .00148(17) .00263(20)
B3 B3+ .00280(7) .00386(7) .01392(21) .00002(10) -.00114(19) .00313(23)
O1 O2- .00614(6) .00541(6) .01563(17) -.00275(10) -.00741(17) .00507(20)
O2 O2- .00478(5) .00445(5) .01897(19) -.00013(9) -.00817(17) .00087(18)
O3 O2- .00561(6) .00437(5) .01989(20) -.00168(9) -.00996(18) .00398(19)
O4 O2- .00415(5) .00405(5) .01445(15) -.00196(8) -.00323(14) .00459(16)
O5 O2- .00367(5) .00537(6) .02013(19) -.00116(9) -.00574(16) .01061(19)
#End of TTdata_415199-ICSD