
#(C) 2018 by FIZ Karlsruhe - Leibniz Institute for Information Infrastructure.  All rights reserved.
data_415326-ICSD
_database_code_ICSD 415326
_audit_creation_date 2007-08-01
_chemical_name_systematic 'Dilithium tetraborate'
_chemical_formula_structural 'Li2 (B4 O7)'
_chemical_formula_sum 'B4 Li2 O7'
_chemical_name_structure_type Li2B4O7
_exptl_crystal_density_diffrn 2.42
_cell_measurement_temperature 473.
_publ_section_title

;
Li2 B4 O7 crystal structure in anharmonic approximation at 20, 200, 400 and
500 C
;
loop_
_citation_id
_citation_journal_full
_citation_year
_citation_journal_volume
_citation_page_first
_citation_page_last
_citation_journal_id_ASTM
primary 'Journal of Alloys and Compounds' 2007 428 290 296 JALCEU
loop_
_publ_author_name
'Sennova, N.'
'Bubnova, R.'
'Shepelev, Yu.'
'Filatov, S.'
'Yakovleva, O.'
_cell_length_a 9.501(3)
_cell_length_b 9.501(3)
_cell_length_c 10.275(7)
_cell_angle_alpha 90.
_cell_angle_beta 90.
_cell_angle_gamma 90.
_cell_volume 927.51
_cell_formula_units_Z 8
_symmetry_space_group_name_H-M 'I 41 c d'
_symmetry_Int_Tables_number 110
_refine_ls_R_factor_all 0.031
loop_
_symmetry_equiv_pos_site_id
_symmetry_equiv_pos_as_xyz
1 '-y, -x+1/2, z+3/4'
2 '-y, x+1/2, z+1/4'
3 'x, -y, z+1/2'
4 '-x, -y, z'
5 'y, x+1/2, z+3/4'
6 'y, -x+1/2, z+1/4'
7 '-x, y, z+1/2'
8 'x, y, z'
9 '-y+1/2, -x, z+1/4'
10 '-y+1/2, x, z+3/4'
11 'x+1/2, -y+1/2, z'
12 '-x+1/2, -y+1/2, z+1/2'
13 'y+1/2, x, z+1/4'
14 'y+1/2, -x, z+3/4'
15 '-x+1/2, y+1/2, z'
16 'x+1/2, y+1/2, z+1/2'
loop_
_atom_type_symbol
_atom_type_oxidation_number
Li1+ 1
B3+ 3
O2- -2
loop_
_atom_site_label
_atom_site_type_symbol
_atom_site_symmetry_multiplicity
_atom_site_Wyckoff_symbol
_atom_site_fract_x
_atom_site_fract_y
_atom_site_fract_z
_atom_site_B_iso_or_equiv
_atom_site_occupancy
_atom_site_attached_hydrogens
Li1 Li1+ 16 b .3517(3) .3374(3) .35420(0) 3.17(5) 1. 0
B1 B3+ 16 b .08524(6) .33175(6) .4506(3) .752(8) 1. 0
B2 B3+ 16 b .05311(6) .11250(6) .5823(3) .754(7) 1. 0
O1 O2- 16 b .13556(5) .21852(5) .5150(3) 1.000(6) 1. 0
O2 O2- 16 b .17672(5) .43214(5) .4059(3) 1.032(6) 1. 0
O3 O2- 16 b -.05733(4) .34431(5) .4308(3) .961(6) 1. 0
O4 O2- 8 a .0(0) .0(0) .4998(3) .889(7) 1. 0
loop_
_atom_site_aniso_label
_atom_site_aniso_type_symbol
_atom_site_aniso_beta_11
_atom_site_aniso_beta_22
_atom_site_aniso_beta_33
_atom_site_aniso_beta_12
_atom_site_aniso_beta_13
_atom_site_aniso_beta_23
Li1 Li1+ .00723(21) .00938(26) .00832(27) .00923(42) .00489(40) .00969(49)
B1 B3+ .00171(4) .00214(4) .00205(4) -.00011(7) -.00011(6) .00115(7)
B2 B3+ .00182(4) .00215(4) .00196(3) -.00023(7) -.00007(6) .00111(6)
O1 O2- .00174(3) .00271(3) .00330(3) .00022(5) .00055(5) .00332(6)
O2 O2- .00188(3) .00248(3) .00360(3) -.00051(5) .00043(5) .00268(6)
O3 O2- .00164(3) .00327(4) .00263(3) -.00055(5) -.00087(5) .00287(5)
O4 O2- .00221(4) .00329(4) .00161(3) -.00141(8) .0(0) .0(0)
#End of TTdata_415326-ICSD