
#(C) 2018 by FIZ Karlsruhe - Leibniz Institute for Information Infrastructure.  All rights reserved.
data_416103-ICSD
_database_code_ICSD 416103
_audit_creation_date 2007-04-01
_chemical_name_systematic 'Lithium selenoborate'
_chemical_formula_structural 'Li6.97 B7 Se15'
_chemical_formula_sum 'B7 Li6.97 Se15'
_exptl_crystal_density_diffrn 4.06
_cell_measurement_temperature 273.
_publ_section_title

;
Li7 B7 Se15: A novel selenoborate with a zeolite-like polymeric anion
structure
;
loop_
_citation_id
_citation_journal_full
_citation_year
_citation_journal_volume
_citation_page_first
_citation_page_last
_citation_journal_id_ASTM
primary 'Solid State Sciences' 2006 8 764 772 SSSCFJ
loop_
_publ_author_name
'Puetz, S.'
'Doech, M.'
'Hammerschmidt, A.'
'Lindemann, A.'
'Eckert, H.'
'Nilges, T.'
'Krebs, B.'
_cell_length_a 11.4107(4)
_cell_length_b 11.4107(4)
_cell_length_c 16.4251(5)
_cell_angle_alpha 90.
_cell_angle_beta 90.
_cell_angle_gamma 90.
_cell_volume 2138.61
_cell_formula_units_Z 4
_symmetry_space_group_name_H-M 'P 42/n b c Z'
_symmetry_Int_Tables_number 133
_refine_ls_R_factor_all 0.0417
loop_
_symmetry_equiv_pos_site_id
_symmetry_equiv_pos_as_xyz
1 'y, x, -z+1/2'
2 '-y, x+1/2, -z+1/2'
3 'y+1/2, -x, -z+1/2'
4 '-y+1/2, -x+1/2, -z+1/2'
5 'x+1/2, y+1/2, -z'
6 '-x+1/2, y, -z'
7 'x, -y+1/2, -z'
8 '-x, -y, -z'
9 '-y, -x, z+1/2'
10 'y, -x+1/2, z+1/2'
11 '-y+1/2, x, z+1/2'
12 'y+1/2, x+1/2, z+1/2'
13 '-x+1/2, -y+1/2, z'
14 'x+1/2, -y, z'
15 '-x, y+1/2, z'
16 'x, y, z'
loop_
_atom_type_symbol
_atom_type_oxidation_number
Se2- -2
Se1- -1
B3+ 3
Li1+ 1
loop_
_atom_site_label
_atom_site_type_symbol
_atom_site_symmetry_multiplicity
_atom_site_Wyckoff_symbol
_atom_site_fract_x
_atom_site_fract_y
_atom_site_fract_z
_atom_site_B_iso_or_equiv
_atom_site_occupancy
_atom_site_attached_hydrogens
Se1 Se2- 16 k 0.1706 0.9595 0.2722 0.00981(5) 1 0
Se2 Se2- 16 k 0.145897(17) 1.143069(17) 0.428465(11) 0.00966(5) 1 0
Se3 Se2- 16 k -0.056752(18) 0.912736(17) 0.144740(12) 0.01038(5) 1 0
Se4 Se2- 4 c 0.25 1.25 0.25 0.00720(6) 1 0
Se5 Se1- 8 i 0.14640(3) 0.75 0.5 0.02237(10) 1 0
B1 B3+ 16 k 0.2444(2) 1.09932(19) 0.32849(13) 0.0097(5) 1 0
B2 B3+ 8 j -0.0024(2) 0.9976(2) 0.25 0.0097(5) 1 0
B3 B3+ 4 a 0.25 1.25 0.5 0.0102(10) 1 0
Li1 Li1+ 16 k 0.2625(5) 0.9541(5) 0.1342(3) 0.0360(16) 1 0
Li2 Li1+ 8 h 0.25 0.562(2) 0.5 0.116(13) 0.48(4) 0
Li3 Li1+ 16 k 0.087(3) 0.5386(11) 0.4928(10) 0.115(11) 0.50(2) 0
loop_
_atom_site_aniso_label
_atom_site_aniso_type_symbol
_atom_site_aniso_U_11
_atom_site_aniso_U_22
_atom_site_aniso_U_33
_atom_site_aniso_U_12
_atom_site_aniso_U_13
_atom_site_aniso_U_23
Se1 Se2- 0.00902(8) 0.00969(8) 0.01073(8) -0.00052(6) 0.00006(6) -0.00164(6)
Se2 Se2- 0.00984(8) 0.01201(9) 0.00713(8) -0.00167(6) 0.00112(6) -0.00146(6)
Se3 Se2- 0.01424(9) 0.00940(8) 0.00749(8) -0.00251(7) -0.00126(6) 0.00061(6)
Se4 Se2- 0.00781(9) 0.00781(9) 0.00597(14) 0.00007(12) 0 0
Se5 Se1- 0.01519(14) 0.0382(2) 0.01370(14) 0 0 0.00277(13)
B1 B3+ 0.0102(8) 0.0104(9) 0.0086(8) -0.0002(7) 0.0002(7) -0.0009(6)
B2 B3+ 0.0108(7) 0.0108(7) 0.0077(11) 0.0002(9) 0.0000(7) 0.0000(7)
B3 B3+ 0.0131(18) 0.0087(17) 0.0087(16) 0 0 0
Li1 Li1+ 0.040(3) 0.046(3) 0.022(2) -0.010(2) 0.007(2) -0.009(2)
Li2 Li1+ 0.08(2) 0.117(18) 0.15(3) 0 0.04(2) 0
Li3 Li1+ 0.29(3) 0.029(7) 0.030(7) 0.033(7) -0.031(10) -0.002(5)
#End of TTdata_416103-ICSD