
#(C) 2018 by FIZ Karlsruhe - Leibniz Institute for Information Infrastructure.  All rights reserved.
data_417088-ICSD
_database_code_ICSD 417088
_audit_creation_date 2008-02-01
_chemical_name_systematic 'Lithium sodium zink disulfide'
_chemical_formula_structural 'Li Na Zn S2'
_chemical_formula_sum 'Li1 Na1 S2 Zn1'
_chemical_name_structure_type La2O3
_exptl_crystal_density_diffrn 2.89
_cell_measurement_temperature 153.
_publ_section_title

;
Synthesis, structure, optical properties, and electronic structure of Na Li Cd
S2
;
loop_
_citation_id
_citation_journal_full
_citation_year
_citation_journal_volume
_citation_page_first
_citation_page_last
_citation_journal_id_ASTM
primary 'Journal of Solid State Chemistry' 2007 180 759 764 JSSCBI
loop_
_publ_author_name
'Bin Deng'
'Chan, G.-H.'
'Huang Fu qiang'
'Gray, D.L.'
'Ellis, D.E.'
'van Duyne, R.P.'
'Ibers, J.A.'
_cell_length_a 3.9711(3)
_cell_length_b 3.9711(3)
_cell_length_c 6.7186(12)
_cell_angle_alpha 90.
_cell_angle_beta 90.
_cell_angle_gamma 120.
_cell_volume 91.76
_cell_formula_units_Z 1
_symmetry_space_group_name_H-M 'P -3 m 1'
_symmetry_Int_Tables_number 164
_refine_ls_R_factor_all 0.0237
loop_
_symmetry_equiv_pos_site_id
_symmetry_equiv_pos_as_xyz
1 'x-y, -y, -z'
2 '-x, -x+y, -z'
3 'y, x, -z'
4 'x-y, x, -z'
5 'y, -x+y, -z'
6 '-x, -y, -z'
7 '-x+y, y, z'
8 'x, x-y, z'
9 '-y, -x, z'
10 '-x+y, -x, z'
11 '-y, x-y, z'
12 'x, y, z'
loop_
_atom_type_symbol
_atom_type_oxidation_number
Na1+ 1
Li1+ 1
Zn2+ 2
S2- -2
loop_
_atom_site_label
_atom_site_type_symbol
_atom_site_symmetry_multiplicity
_atom_site_Wyckoff_symbol
_atom_site_fract_x
_atom_site_fract_y
_atom_site_fract_z
_atom_site_B_iso_or_equiv
_atom_site_occupancy
_atom_site_attached_hydrogens
Na1 Na1+ 1 a 0. 0. 0. 0.0162(6) 1 0
Li1 Li1+ 2 d 0.3333 0.6667 0.37167(9) 0.0103(4) 0.5 0
Zn1 Zn2+ 2 d 0.3333 0.6667 0.37167(9) 0.0103(4) 0.5 0
S1 S2- 2 d 0.3333 0.6667 0.73327(10) 0.0094(4) 1 0
loop_
_atom_site_aniso_label
_atom_site_aniso_type_symbol
_atom_site_aniso_U_11
_atom_site_aniso_U_22
_atom_site_aniso_U_33
_atom_site_aniso_U_12
_atom_site_aniso_U_13
_atom_site_aniso_U_23
Na1 Na1+ 0.0158(8) 0.0158(8) 0.0172(10) 0.0079(4) 0. 0.
Li1 Li1+ 0.0093(5) 0.0093(5) 0.0124(6) 0.0046(2) 0. 0.
Zn1 Zn2+ 0.0093(5) 0.0093(5) 0.0124(6) 0.0046(2) 0. 0.
S1 S2- 0.0092(5) 0.0092(5) 0.0098(6) 0.0046(2) 0. 0.
#End of TTdata_417088-ICSD