
#(C) 2018 by FIZ Karlsruhe - Leibniz Institute for Information Infrastructure.  All rights reserved.
data_417091-ICSD
_database_code_ICSD 417091
_audit_creation_date 2009-02-01
_audit_update_record 2011-02-01
_chemical_name_systematic 'Lithium bismuth phosphate(V) oxide (2/14.67/6/14)'
_chemical_formula_structural 'Li2 Bi14.67 (P O4)6 O14'
_chemical_formula_sum 'Bi14.67 Li2 O38 P6'
_exptl_crystal_density_diffrn 7.69
_cell_measurement_temperature 150.
_publ_section_title

;
Synthesis and crystal structure of a novel lithium bismuth phosphate, Li2
Bi14.67 (P O4)6 O14
;
loop_
_citation_id
_citation_journal_full
_citation_year
_citation_journal_volume
_citation_page_first
_citation_page_last
_citation_journal_id_ASTM
primary 'Materials Research Bulletin' 2008 43 3017 3025 MRBUAC
loop_
_publ_author_name
'Muktha, B.'
'Darriet, J.'
'Guru Row, T.N.'
_cell_length_a 30.8189(4)
_cell_length_b 5.2691(3)
_cell_length_c 24.5302(3)
_cell_angle_alpha 90
_cell_angle_beta 122.84(2)
_cell_angle_gamma 90
_cell_volume 3346.81
_cell_formula_units_Z 4
_symmetry_space_group_name_H-M 'C 1 2/c 1'
_symmetry_Int_Tables_number 15
_refine_ls_R_factor_all 0.0463
loop_
_symmetry_equiv_pos_site_id
_symmetry_equiv_pos_as_xyz
1 'x, -y, z+1/2'
2 '-x, -y, -z'
3 '-x, y, -z+1/2'
4 'x, y, z'
5 'x+1/2, -y+1/2, z+1/2'
6 '-x+1/2, -y+1/2, -z'
7 '-x+1/2, y+1/2, -z+1/2'
8 'x+1/2, y+1/2, z'
loop_
_atom_type_symbol
_atom_type_oxidation_number
Bi3+ 3
P5+ 5
O2- -2
Li1+ 1
loop_
_atom_site_label
_atom_site_type_symbol
_atom_site_symmetry_multiplicity
_atom_site_Wyckoff_symbol
_atom_site_fract_x
_atom_site_fract_y
_atom_site_fract_z
_atom_site_B_iso_or_equiv
_atom_site_occupancy
_atom_site_attached_hydrogens
Bi1 Bi3+ 8 f 0.75925(2) 0.02928(11) 0.20250(3) 0.0067(2) 1 0
Bi2 Bi3+ 8 f 0.56664(2) 0.02524(10) 0.01581(3) 0.0065(2) 1 0
Bi3 Bi3+ 8 f 0.52961(2) 0.51076(10) 0.08866(3) 0.0075(2) 1 0
Bi4 Bi3+ 8 f 0.66152(2) 0.49606(10) 0.11741(3) 0.0063(2) 1 0
Bi5 Bi3+ 8 f 0.78055(3) 0.47159(12) 0.09699(4) 0.0118(3) 1 0
Bi6 Bi3+ 8 f 0.86464(2) -0.50942(10) 0.30239(3) 0.0070(2) 1 0
Bi7 Bi3+ 8 f 0.38987(3) 0.54675(12) 0.07078(4) 0.0134(3) 1 0
Bi8 Bi3+ 4 e 0 0.0163(3) 0.25 0.0223(7) 0.6667 0
P1 P5+ 8 f 0.68799(18) 0.0349(8) 0.5310(2) 0.0117(17) 1 0
P2 P5+ 8 f 0.4909(2) -0.0016(9) 0.6565(3) 0.017(2) 1 0
P3 P5+ 8 f 0.1317(3) -0.0027(9) 0.3007(4) 0.026(3) 1 0
O1 O2- 8 f 0.0974(4) 0.2548(18) 0.6070(6) 0.007(5) 1 0
O2 O2- 8 f 0.5972(4) 0.2492(19) 0.6108(6) 0.008(5) 1 0
O3 O2- 8 f 0.6968(4) 0.254(2) 0.7057(6) 0.006(5) 1 0
O4 O2- 8 f 0.3037(4) 0.2391(19) 0.2982(6) 0.007(5) 1 0
O5 O2- 8 f 0.0007(4) 0.2434(19) 0.5001(6) 0.008(4) 1 0
O6 O2- 8 f 0.0805(5) 0.065(2) 0.4856(8) 0.021(6) 1 0
O7 O2- 8 f 0.2600(5) 0.075(2) 0.6629(6) 0.019(6) 1 0
O8 O2- 8 f 0.3279(4) 0.015(2) 0.4188(7) 0.014(5) 1 0
O9 O2- 8 f 0.8068(5) 0.180(2) 0.4755(7) 0.020(6) 1 0
O10 O2- 8 f 0.2616(8) 0.087(4) 0.4462(14) 0.077(17) 1 0
O11 O2- 8 f 0.6459(7) -0.062(4) 0.4656(8) 0.053(9) 1 0
O12 O2- 8 f 0.4495(5) 0.191(3) 0.6458(7) 0.022(6) 1 0
O13 O2- 8 f 0.5050(6) 0.033(2) 0.6067(8) 0.024(7) 1 0
O14 O2- 8 f 0.5178(14) 0.263(7) 0.341(2) 0.05(2) 0.5 0
O15 O2- 8 f 0.5316 0.2751 0.3466 0.0561 0.5 0
O16 O2- 8 f 0.5380(8) 0.075(5) 0.7231(10) 0.062(12) 1 0
O17 O2- 8 f 0.1446(5) 0.256(3) 0.3387(8) 0.027(7) 1 0
O18 O2- 8 f 0.0890(7) -0.120(3) 0.3005(11) 0.048(12) 1 0
O19 O2- 8 f 0.104(2) 0.022(10) 0.219(3) 0.05(3) 0.3333 0
O20 O2- 8 f 0.1372(10) 0.036(5) 0.2462(14) 0.03 0.6667 0
O21 O2- 8 f 0.143(3) -0.241(13) 0.338(4) 0.07(4) 0.3333 0
O22 O2- 8 f 0.1773(13) -0.180(5) 0.3373(19) 0.0611 0.6667 0
Li1 Li1+ 8 f 0.9131(15) 0.494(5) 0.6928(15) 0.023(8) 1 0
loop_
_atom_site_aniso_label
_atom_site_aniso_type_symbol
_atom_site_aniso_U_11
_atom_site_aniso_U_22
_atom_site_aniso_U_33
_atom_site_aniso_U_12
_atom_site_aniso_U_13
_atom_site_aniso_U_23
Bi1 Bi3+ 0.0072(3) 0.0061(2) 0.0047(3) -0.00003(18) 0.0018(2) -0.00088(19)
Bi2 Bi3+ 0.0055(3) 0.0053(2) 0.0058(3) 0.00023(18) 0.0011(2) -0.00106(19)
Bi3 Bi3+ 0.0097(3) 0.0045(2) 0.0069(3) -0.00075(19) 0.0036(2) 0.0000(2)
Bi4 Bi3+ 0.0072(3) 0.0042(2) 0.0046(2) -0.00041(18) 0.0012(2) 0.00044(18)
Bi5 Bi3+ 0.0138(3) 0.0105(3) 0.0137(3) -0.0018(2) 0.0090(3) -0.0010(2)
Bi6 Bi3+ 0.0085(3) 0.0052(2) 0.0058(3) 0.00030(19) 0.0030(2) 0.0004(2)
Bi7 Bi3+ 0.0179(3) 0.0131(3) 0.0124(3) 0.0007(2) 0.0103(3) 0.0015(2)
Bi8 Bi3+ 0.0304(8) 0.0291(8) 0.0096(7) 0 0.0122(7) 0
P1 P5+ 0.017(2) 0.0088(17) 0.010(2) -0.0018(14) 0.0070(18) -0.0019(15)
P2 P5+ 0.029(3) 0.016(2) 0.013(2) 0.0090(18) 0.015(2) 0.0062(17)
P3 P5+ 0.046(3) 0.011(2) 0.046(4) -0.002(2) 0.041(3) 0.000(2)
O1 O2- 0.004(5) 0.003(4) 0.011(6) -0.002(3) 0.003(5) -0.003(4)
O2 O2- 0.009(5) 0.005(4) 0.011(6) 0.002(4) 0.006(5) 0.000(4)
O3 O2- 0.002(5) 0.005(4) 0.007(6) 0.003(3) 0.000(5) 0.000(4)
O4 O2- 0.012(6) 0.004(4) 0.007(6) 0.002(4) 0.005(5) -0.002(4)
O5 O2- 0.006(5) 0.003(4) 0.018(6) 0.003(3) 0.001(5) -0.002(4)
O6 O2- 0.030(7) 0.016(6) 0.025(8) 0.015(5) 0.020(7) 0.014(5)
O7 O2- 0.037(8) 0.018(6) 0.007(6) 0.007(5) 0.003(6) 0.001(5)
O8 O2- 0.008(5) 0.018(6) 0.015(6) 0.002(4) 0.005(5) 0.004(5)
O9 O2- 0.016(7) 0.018(6) 0.022(8) -0.003(5) 0.008(6) -0.001(5)
O10 O2- 0.082(15) 0.066(14) 0.14(3) 0.057(12) 0.101(18) 0.076(16)
O11 O2- 0.071(12) 0.063(12) 0.008(8) -0.058(10) 0.011(8) -0.017(8)
O12 O2- 0.017(7) 0.032(8) 0.006(6) 0.010(5) 0.000(6) 0.002(5)
O13 O2- 0.031(8) 0.015(6) 0.024(8) 0.004(5) 0.013(7) 0.000(5)
O14 O2- 0.06(2) 0.03(2) 0.06(3) -0.006(17) 0.04(2) 0.003(18)
O15 O2- 0.073232 0.020201 0.077327 -0.009624 0.042341 0.008234
O16 O2- 0.048(12) 0.109(19) 0.035(13) 0.037(12) 0.028(11) 0.025(12)
O17 O2- 0.019(7) 0.014(6) 0.031(10) -0.003(5) 0.004(7) -0.006(6)
O18 O2- 0.058(12) 0.027(9) 0.069(16) -0.012(8) 0.041(12) -0.014(9)
O19 O2- 0.06(4) 0.05(3) 0.03(3) 0.01(3) 0.03(3) 0.03(3)
O20 O2- 0.06(4) 0.05(3) 0.03(3) 0.01(3) 0.03(3) 0.03(3)
O21 O2- 0.08(5) 0.07(4) 0.08(6) -0.05(4) 0.06(5) -0.04(4)
O22 O2- 0.08(5) 0.07(4) 0.08(6) -0.05(4) 0.06(5) -0.04(4)
Li1 Li1+ 0.048(17) 0.023(16) 0.019(10) 0.005(10) 0.002(9) 0.001(3)
#End of TTdata_417091-ICSD