
#(C) 2018 by FIZ Karlsruhe - Leibniz Institute for Information Infrastructure.  All rights reserved.
data_417655-ICSD
_database_code_ICSD 417655
_audit_creation_date 2008-02-01
_chemical_name_systematic
'Hexalithium triytterbium pentakis(orthothiophosphate(V))'
_chemical_formula_structural 'Li6 Yb3 (P S4)5'
_chemical_formula_sum 'Li6 P5 S20 Yb3'
_chemical_name_structure_type Li6Y3(PS4)5
_exptl_crystal_density_diffrn 3.14
_cell_measurement_temperature 293.
_publ_section_title

;
Neue Thiophosphate: Die Verbindungen Li6 Ln3 (P S4)5 (Ln: Y, Gd, Dy, Yb, Lu)
und Ag3 Y (P S4)2
;
loop_
_citation_id
_citation_journal_full
_citation_year
_citation_journal_volume
_citation_page_first
_citation_page_last
_citation_journal_id_ASTM
primary 'Zeitschrift fuer Anorganische und Allgemeine Chemie (1950) (DE)' 2007
633 1633 1638 ZAACAB
loop_
_publ_author_name
'Mueller, C.'
'Joergens, S.'
'Mewis, A.'
_cell_length_a 28.178(3)
_cell_length_b 9.9770(10)
_cell_length_c 33.392(4)
_cell_angle_alpha 90.
_cell_angle_beta 113.650(10)
_cell_angle_gamma 90.
_cell_volume 8599.12
_cell_formula_units_Z 12
_symmetry_space_group_name_H-M 'C 1 2/c 1'
_symmetry_Int_Tables_number 15
_refine_ls_R_factor_all 0.028
loop_
_symmetry_equiv_pos_site_id
_symmetry_equiv_pos_as_xyz
1 'x, -y, z+1/2'
2 '-x, -y, -z'
3 '-x, y, -z+1/2'
4 'x, y, z'
5 'x+1/2, -y+1/2, z+1/2'
6 '-x+1/2, -y+1/2, -z'
7 '-x+1/2, y+1/2, -z+1/2'
8 'x+1/2, y+1/2, z'
loop_
_atom_type_symbol
_atom_type_oxidation_number
Yb3+ 3
P5+ 5
S2- -2
Li1+ 1
loop_
_atom_site_label
_atom_site_type_symbol
_atom_site_symmetry_multiplicity
_atom_site_Wyckoff_symbol
_atom_site_fract_x
_atom_site_fract_y
_atom_site_fract_z
_atom_site_B_iso_or_equiv
_atom_site_occupancy
_atom_site_attached_hydrogens
Yb1 Yb3+ 8 f 0.128235(17) 0.15551(5) 0.831031(14) 0.02080(11) 1 0
Yb2 Yb3+ 8 f 0.163619(18) 0.35098(5) 0.294547(15) 0.02245(12) 1 0
Yb3 Yb3+ 8 f 0.115868(17) 0.25625(5) 0.432793(14) 0.02107(11) 1 0
Yb4 Yb3+ 8 f 0.037899(19) 0.61832(5) 0.572069(16) 0.02774(13) 1 0
Yb5 Yb3+ 8 f 0.08414(3) 0.13780(9) 0.55337(3) 0.0279(4) 0.524(2) 0
P1 P5+ 4 e 0. 0.1733(4) 0.75 0.0231(9) 1 0
P2 P5+ 8 f 0.31489(11) 0.5388(3) 0.55947(8) 0.0218(6) 1 0
P3 P5+ 8 f 0.48966(11) 0.4437(3) 0.56902(9) 0.0233(6) 1 0
P4 P5+ 8 f 0.36533(10) 0.9734(3) 0.62481(8) 0.0210(6) 1 0
P5 P5+ 8 f 0.20756(10) 0.1509(3) 0.63177(8) 0.0241(6) 1 0
P6 P5+ 8 f 0.40027(11) 0.0592(3) 0.81536(9) 0.0232(6) 1 0
P7 P5+ 8 f 0.40612(10) 0.0428(3) 0.48983(9) 0.0225(6) 1 0
P8 P5+ 8 f 0.33984(10) 0.4810(3) 0.74314(9) 0.0227(6) 1 0
S1 S2- 8 f 0.28718(10) 0.3616(3) 0.52869(8) 0.0232(6) 1 0
S2 S2- 8 f 0.29979(11) 0.6425(3) 0.70952(9) 0.0271(6) 1 0
S3 S2- 8 f 0.32375(10) 0.9109(3) 0.65866(8) 0.0237(6) 1 0
S4 S2- 8 f 0.50716(11) 0.6355(3) 0.58929(9) 0.0302(7) 1 0
S5 S2- 8 f 0.40425(11) 0.1439(3) 0.65362(8) 0.0262(6) 1 0
S6 S2- 8 f 0.38507(10) 0.4884(3) 0.60740(8) 0.0243(6) 1 0
S7 S2- 8 f 0.42996(10) 0.1628(3) 0.77770(8) 0.0275(6) 1 0
S8 S2- 8 f 0.38648(11) 0.5310(3) 0.80619(9) 0.0303(7) 1 0
S9 S2- 8 f 0.31961(10) 0.0221(3) 0.56186(8) 0.0251(6) 1 0
S10 S2- 8 f 0.23709(10) 0.0575(3) 0.69096(8) 0.0264(6) 1 0
S11 S2- 8 f 0.44094(10) 0.0217(3) 0.55645(8) 0.0249(6) 1 0
S12 S2- 8 f 0.61428(12) 0.1356(3) 0.53943(10) 0.0361(7) 1 0
S13 S2- 8 f 0.62488(11) 0.1691(3) 0.64497(9) 0.0319(7) 1 0
S14 S2- 8 f 0.33994(11) 0.9620(3) 0.76930(9) 0.0311(7) 1 0
S15 S2- 8 f 0.29351(10) 0.3260(3) 0.74453(9) 0.0277(6) 1 0
S16 S2- 8 f 0.54315(10) 0.9442(3) 0.64108(8) 0.0287(7) 1 0
S17 S2- 8 f 0.31967(12) 0.6726(3) 0.51567(9) 0.0351(7) 1 0
S18 S2- 8 f 0.53868(10) 0.8750(3) 0.52863(9) 0.0269(6) 1 0
S19 S2- 8 f 0.26780(10) 0.2525(3) 0.62714(9) 0.0349(7) 1 0
S20 S2- 8 f 0.34544(11) 0.1658(3) 0.47768(9) 0.0359(7) 1 0
S21 S2- 8 f 0.27565(10) 0.6231(3) 0.59312(9) 0.0296(7) 1 0
S22 S2- 8 f 0.47842(10) 0.5653(3) 0.69399(8) 0.0247(6) 1 0
S23 S2- 8 f 0.38222(10) 0.4133(3) 0.71009(9) 0.0264(6) 1 0
S24 S2- 8 f 0.41442(11) 0.8214(3) 0.62783(9) 0.0271(6) 1 0
S25 S2- 8 f 0.54197(14) 0.3803(3) 0.54562(11) 0.0431(8) 1 0
S26 S2- 8 f 0.43810(11) 0.7889(3) 0.74440(9) 0.0304(7) 1 0
S27 S2- 8 f 0.41686(11) 0.4280(3) 0.52198(9) 0.0389(8) 1 0
S28 S2- 8 f 0.49198(10) 0.3054(3) 0.61549(8) 0.0241(6) 1 0
S29 S2- 8 f 0.17708(14) 0.0137(3) 0.58330(11) 0.0529(10) 1 0
S30 S2- 8 f 0.15125(13) 0.2814(4) 0.62865(10) 0.0477(9) 1 0
Li1 Li1+ 8 f 0.4578(8) 0.389(2) 0.8053(7) 0.044(5) 1 0
Li2 Li1+ 8 f 0.6699(9) 0.376(3) 0.6740(8) 0.054(6) 1 0
Li3 Li1+ 8 f 0.5392(11) 0.713(3) 0.6756(9) 0.074(8) 1 0
Li4 Li1+ 8 f 0.1815(9) 0.234(3) 0.7101(8) 0.061(7) 1 0
Li5 Li1+ 8 f 0.4106(11) 0.742(3) 0.5546(9) 0.076(8) 1 0
Li6 Li1+ 8 f 0.2669(13) 0.818(3) 0.5431(10) 0.087(9) 1 0
Li7 Li1+ 8 f 0.2415(13) 0.155(4) 0.5557(11) 0.091(9) 1 0
Li8 Li1+ 8 f 0.207(2) 0.466(6) 0.6112(17) 0.149(17) 1 0
Li9 Li1+ 8 f 0.492(2) 0.976(7) 0.694(2) 0.18(2) 1 0
loop_
_atom_site_aniso_label
_atom_site_aniso_type_symbol
_atom_site_aniso_U_11
_atom_site_aniso_U_22
_atom_site_aniso_U_33
_atom_site_aniso_U_12
_atom_site_aniso_U_13
_atom_site_aniso_U_23
Yb1 Yb3+ 0.0231(2) 0.0178(2) 0.0210(2) -0.0008(2) 0.00839(18) -0.0006(2)
Yb2 Yb3+ 0.0238(2) 0.0197(3) 0.0216(2) -0.0004(2) 0.00672(18) 0.0004(2)
Yb3 Yb3+ 0.0232(2) 0.0187(2) 0.0202(2) 0.0001(2) 0.00746(18) -0.0001(2)
Yb4 Yb3+ 0.0284(3) 0.0286(3) 0.0275(2) 0.0002(2) 0.0124(2) 0.0011(2)
Yb5 Yb3+ 0.0268(6) 0.0222(6) 0.0350(6) 0.0014(4) 0.0127(4) 0.0004(4)
P1 P5+ 0.027(2) 0.020(2) 0.0220(19) 0. 0.0095(16) 0.
P2 P5+ 0.0253(15) 0.0171(14) 0.0199(13) 0.0005(12) 0.0058(12) -0.0006(12)
P3 P5+ 0.0284(15) 0.0202(14) 0.0226(14) 0.0003(12) 0.0115(12) -0.0005(12)
P4 P5+ 0.0240(14) 0.0188(15) 0.0209(14) 0.0011(12) 0.0096(12) 0.0023(12)
P5 P5+ 0.0231(14) 0.0268(16) 0.0207(13) 0.0000(13) 0.0070(11) 0.0025(13)
P6 P5+ 0.0248(14) 0.0207(14) 0.0209(13) 0.0007(13) 0.0058(11) 0.0011(13)
P7 P5+ 0.0244(14) 0.0225(15) 0.0217(14) 0.0022(12) 0.0102(11) 0.0025(12)
P8 P5+ 0.0240(14) 0.0228(15) 0.0227(14) 0.0006(12) 0.0109(12) -0.0003(12)
S1 S2- 0.0220(13) 0.0188(14) 0.0232(13) -0.0036(11) 0.0032(10) -0.0036(11)
S2 S2- 0.0317(15) 0.0225(15) 0.0293(14) 0.0046(13) 0.0145(12) 0.0044(12)
S3 S2- 0.0293(14) 0.0169(14) 0.0288(14) -0.0005(12) 0.0157(12) 0.0011(11)
S4 S2- 0.0349(16) 0.0217(15) 0.0354(15) -0.0009(13) 0.0156(13) -0.0021(13)
S5 S2- 0.0327(15) 0.0207(14) 0.0235(13) -0.0056(12) 0.0095(11) -0.0017(12)
S6 S2- 0.0267(14) 0.0234(14) 0.0184(13) 0.0038(12) 0.0043(11) -0.0032(11)
S7 S2- 0.0300(15) 0.0263(15) 0.0250(13) -0.0034(13) 0.0096(12) 0.0022(12)
S8 S2- 0.0317(16) 0.0309(16) 0.0278(15) -0.0027(13) 0.0116(13) -0.0029(13)
S9 S2- 0.0280(15) 0.0223(14) 0.0208(13) -0.0009(12) 0.0055(11) 0.0010(11)
S10 S2- 0.0255(14) 0.0285(15) 0.0238(13) -0.0002(12) 0.0085(11) 0.0062(12)
S11 S2- 0.0240(14) 0.0306(16) 0.0187(13) 0.0030(12) 0.0069(11) 0.0016(12)
S12 S2- 0.0400(17) 0.0278(17) 0.0480(17) -0.0107(14) 0.0256(14) -0.0130(14)
S13 S2- 0.0340(16) 0.0337(17) 0.0240(14) -0.0094(14) 0.0075(12) -0.0008(13)
S14 S2- 0.0332(16) 0.0262(15) 0.0256(14) -0.0090(13) 0.0033(12) 0.0034(12)
S15 S2- 0.0282(15) 0.0251(15) 0.0317(14) -0.0065(13) 0.0139(12) -0.0028(12)
S16 S2- 0.0281(15) 0.0252(15) 0.0250(14) -0.0038(12) 0.0026(12) 0.0001(12)
S17 S2- 0.0369(16) 0.0315(17) 0.0312(15) -0.0019(14) 0.0078(13) 0.0095(13)
S18 S2- 0.0266(14) 0.0242(15) 0.0313(14) -0.0009(12) 0.0132(12) 0.0039(12)
S19 S2- 0.0289(14) 0.0415(18) 0.0315(15) -0.0042(15) 0.0092(12) 0.0131(15)
S20 S2- 0.0347(16) 0.0421(18) 0.0222(14) 0.0188(15) 0.0024(12) -0.0036(13)
S21 S2- 0.0292(14) 0.0279(16) 0.0299(14) 0.0038(13) 0.0099(12) -0.0057(12)
S22 S2- 0.0225(13) 0.0283(15) 0.0208(13) 0.0013(12) 0.0062(11) -0.0022(11)
S23 S2- 0.0334(15) 0.0203(14) 0.0303(14) 0.0029(12) 0.0177(12) 0.0015(12)
S24 S2- 0.0315(15) 0.0221(15) 0.0312(14) 0.0063(12) 0.0163(12) 0.0049(12)
S25 S2- 0.065(2) 0.0241(17) 0.063(2) 0.0089(16) 0.0503(18) 0.0089(15)
S26 S2- 0.0293(15) 0.0277(16) 0.0287(14) 0.0077(12) 0.0057(12) -0.0046(12)
S27 S2- 0.0338(16) 0.052(2) 0.0257(15) -0.0119(15) 0.0067(13) 0.0081(14)
S28 S2- 0.0239(14) 0.0236(14) 0.0224(13) 0.0003(11) 0.0070(11) 0.0039(11)
S29 S2- 0.051(2) 0.0343(19) 0.0427(19) 0.0002(16) -0.0130(16) -0.0095(15)
S30 S2- 0.0510(19) 0.066(2) 0.0314(16) 0.0339(18) 0.0220(14) 0.0167(16)
#End of TTdata_417655-ICSD