
#(C) 2017 by FIZ Karlsruhe - Leibniz Institute for Information Infrastructure.  All rights reserved.
data_418616-ICSD
_database_code_ICSD 418616
_audit_creation_date 2008-08-01
_chemical_name_systematic
'Lithium hydrate plutonium octaaqua oxide chloride (14/20.17/38/8/56/54)'
_chemical_formula_structural 'Li14 (H2 O)20.17 (Pu38 O56 Cl54 (H2 O)8)'
_chemical_formula_sum 'H56.34 Cl54 Li14 O84.17 Pu38'
_exptl_crystal_density_diffrn 4.3
_cell_measurement_temperature 173.
_publ_section_title
'The structure of the plutonium oxide nanocluster [Pu38 O56 Cl54 (H2 O)8](14-)'
loop_
_citation_id
_citation_journal_full
_citation_year
_citation_journal_volume
_citation_page_first
_citation_page_last
_citation_journal_id_ASTM
primary 'Angewandte Chemie. International Edition' 2008 47 298 302 ACIEF5
loop_
_publ_author_name
'Soderholm, L.'
'Almond, P.M.'
'Skanthakumar, S.'
'Wilson, R.E.'
'Burns, P.C.'
_cell_length_a 27.7057(6)
_cell_length_b 27.7057(6)
_cell_length_c 22.1209(9)
_cell_angle_alpha 90.
_cell_angle_beta 90.
_cell_angle_gamma 120.
_cell_volume 14705.23
_cell_formula_units_Z 3
_symmetry_space_group_name_H-M 'R -3 H'
_symmetry_Int_Tables_number 148
_refine_ls_R_factor_all 0.0362
loop_
_symmetry_equiv_pos_site_id
_symmetry_equiv_pos_as_xyz
1 'x-y, x, -z'
2 'y, -x+y, -z'
3 '-x, -y, -z'
4 '-x+y, -x, z'
5 '-y, x-y, z'
6 'x, y, z'
7 'x-y+2/3, x+1/3, -z+1/3'
8 'y+2/3, -x+y+1/3, -z+1/3'
9 '-x+2/3, -y+1/3, -z+1/3'
10 '-x+y+2/3, -x+1/3, z+1/3'
11 '-y+2/3, x-y+1/3, z+1/3'
12 'x+2/3, y+1/3, z+1/3'
13 'x-y+1/3, x+2/3, -z+2/3'
14 'y+1/3, -x+y+2/3, -z+2/3'
15 '-x+1/3, -y+2/3, -z+2/3'
16 '-x+y+1/3, -x+2/3, z+2/3'
17 '-y+1/3, x-y+2/3, z+2/3'
18 'x+1/3, y+2/3, z+2/3'
loop_
_atom_type_symbol
_atom_type_oxidation_number
Pu4+ 4
Cl1- -1
O2- -2
Li1+ 1
H1+ 1
loop_
_atom_site_label
_atom_site_type_symbol
_atom_site_symmetry_multiplicity
_atom_site_Wyckoff_symbol
_atom_site_fract_x
_atom_site_fract_y
_atom_site_fract_z
_atom_site_B_iso_or_equiv
_atom_site_occupancy
_atom_site_attached_hydrogens
Pu1 Pu4+ 6 c 0.6667 0.3333 0.54603(2) 0.02462(11) 1 0
Pu2 Pu4+ 18 f 0.699489(11) 0.275545(11) 0.403445(13) 0.01703(7) 1 0
Pu3 Pu4+ 18 f 0.549355(14) 0.362227(14) 0.542817(16) 0.02920(9) 1 0
Pu4 Pu4+ 18 f 0.523072(14) 0.209698(14) 0.542835(16) 0.02934(9) 1 0
Pu5 Pu4+ 18 f 0.549732(12) 0.150264(12) 0.404380(15) 0.02154(7) 1 0
Pu6 Pu4+ 18 f 0.671304(13) 0.127453(13) 0.398498(17) 0.02697(8) 1 0
Pu7 Pu4+ 18 f 0.823966(13) 0.253689(13) 0.398403(16) 0.02654(8) 1 0
Cl1 Cl1- 18 f 0.51991(13) 0.28015(12) 0.63170(12) 0.0487(7) 1 0
Cl2 Cl1- 18 f 0.91025(12) 0.23544(13) 0.39438(18) 0.0560(8) 1 0
Cl3 Cl1- 18 f 0.41828(11) 0.12161(11) 0.50880(14) 0.0488(7) 1 0
Cl4 Cl1- 18 f 0.46487(11) 0.38282(12) 0.50788(14) 0.0469(6) 1 0
Cl5 Cl1- 18 f 0.44596(10) 0.25370(11) 0.50469(13) 0.0404(6) 1 0
Cl6 Cl1- 18 f 0.77652(10) 0.13782(10) 0.38588(16) 0.0463(7) 1 0
Cl7 Cl1- 18 f 0.65085(13) 0.02158(11) 0.40142(18) 0.0580(9) 1 0
Cl8 Cl1- 18 f 0.48642(16) 0.14583(14) 0.64175(15) 0.0632(9) 1 0
Cl9 Cl1- 18 f 0.52629(19) 0.40383(16) 0.64150(15) 0.0692(10) 1 0
O1 O2- 18 f 0.7001(2) 0.2748(2) 0.2977(3) 0.0176(11) 1 0
O2 O2- 18 f 0.7318(2) 0.2169(2) 0.3688(3) 0.0261(13) 1 0
O3 O2- 18 f 0.8215(2) 0.2535(2) 0.3006(3) 0.0266(13) 1 0
O4 O2- 18 f 0.5753(2) 0.3000(2) 0.5087(3) 0.0268(13) 1 0
O5 O2- 18 f 0.8780(2) 0.3398(2) 0.3673(3) 0.0287(13) 1 0
O6 O2- 18 f 0.6422(2) 0.1854(2) 0.4386(3) 0.0236(12) 1 0
O7 O2- 18 f 0.4907(3) 0.0554(3) 0.4439(4) 0.0415(17) 1 0
O8 O2- 6 c 0.6667 0.3333 0.6603(5) 0.046(3) 1 0
O9 O2- 18 f 0.7899(2) 0.3076(2) 0.4379(3) 0.0263(13) 1 0
O10 O2- 18 f 0.6029(3) 0.4460(3) 0.5081(3) 0.0309(14) 1 0
O11 O2- 6 c 0.6667 0.3333 0.4390(4) 0.0189(18) 1 0
O12 O2- 18 f 0.6335(3) 0.3915(3) 0.5746(3) 0.0310(14) 1 0
O13 O2- 18 f 0.1498(3) 0.3645(3) -0.0943(3) 0.0397(17) 1 0
O14 O2- 18 f 0.7678(4) 0.3711(4) 0.7199(5) 0.03 0.645(16) 0
O15 O2- 3 b 0.6667 0.3333 0.8333 0.03 0.62(4) 0
O16 O2- 18 f 0.3762(5) -0.0018(5) 0.3984(5) 0.03 0.534(15) 0
O17 O2- 18 f 0.3640(5) 0.0851(5) 0.6890(6) 0.03 0.476(15) 0
O18 O2- 18 f 0.4145(8) 0.3222(8) 0.6799(9) 0.03 0.315(15) 0
O19 O2- 18 f 0.5567(9) 0.4522(9) 0.7788(10) 0.03 0.286(15) 0
loop_
_atom_site_aniso_label
_atom_site_aniso_type_symbol
_atom_site_aniso_U_11
_atom_site_aniso_U_22
_atom_site_aniso_U_33
_atom_site_aniso_U_12
_atom_site_aniso_U_13
_atom_site_aniso_U_23
Pu1 Pu4+ 0.02692(16) 0.02692(16) 0.0200(3) 0.01346(8) 0. 0.
Pu2 Pu4+ 0.01510(12) 0.01489(12) 0.02148(15) 0.00778(10) -0.00079(10)
0.00145(10)
Pu3 Pu4+ 0.03041(17) 0.02992(16) 0.02923(18) 0.01656(14) 0.00867(13)
-0.00079(13)
Pu4 Pu4+ 0.02877(16) 0.02791(16) 0.02927(18) 0.01262(13) 0.00940(13) 0.00799(13)
Pu5 Pu4+ 0.01743(13) 0.01506(12) 0.03072(17) 0.00707(10) 0.00228(10) 0.00405(10)
Pu6 Pu4+ 0.02209(14) 0.01797(14) 0.0427(2) 0.01138(11) 0.00060(13) 0.00552(12)
Pu7 Pu4+ 0.02011(14) 0.02245(14) 0.0404(2) 0.01317(12) -0.00410(12) 0.00063(12)
Cl1 Cl1- 0.0632(18) 0.0487(15) 0.0343(13) 0.0280(14) 0.0184(13) 0.0065(11)
Cl2 Cl1- 0.0372(13) 0.0492(16) 0.093(3) 0.0298(13) -0.0111(14) -0.0095(16)
Cl3 Cl1- 0.0341(12) 0.0380(13) 0.0591(18) 0.0066(10) 0.0093(12) 0.0191(12)
Cl4 Cl1- 0.0430(14) 0.0567(16) 0.0542(17) 0.0348(13) 0.0103(12) -0.0063(13)
Cl5 Cl1- 0.0304(11) 0.0397(12) 0.0485(15) 0.0156(10) 0.0167(10) 0.0075(11)
Cl6 Cl1- 0.0304(11) 0.0269(11) 0.089(2) 0.0201(9) 0.0014(12) 0.0049(12)
Cl7 Cl1- 0.0477(15) 0.0245(11) 0.104(3) 0.0200(11) 0.0147(16) 0.0120(14)
Cl8 Cl1- 0.074(2) 0.0546(18) 0.0470(17) 0.0219(16) 0.0217(16) 0.0223(14)
Cl9 Cl1- 0.109(3) 0.078(2) 0.0465(18) 0.066(2) 0.0199(19) -0.0026(16)
O1 O2- 0.016(2) 0.016(2) 0.022(3) 0.0088(19) 0.0008(19) -0.0016(19)
O2 O2- 0.022(3) 0.017(3) 0.038(4) 0.009(2) 0.002(2) 0.002(2)
O3 O2- 0.017(3) 0.019(3) 0.041(4) 0.007(2) 0.000(2) -0.003(2)
O4 O2- 0.024(3) 0.032(3) 0.026(3) 0.015(2) 0.004(2) 0.001(2)
O5 O2- 0.024(3) 0.024(3) 0.040(4) 0.013(2) -0.002(3) -0.003(3)
O6 O2- 0.022(3) 0.022(3) 0.028(3) 0.013(2) 0.000(2) 0.007(2)
O7 O2- 0.039(4) 0.021(3) 0.061(5) 0.013(3) 0.010(3) 0.010(3)
O8 O2- 0.056(5) 0.056(5) 0.026(6) 0.028(3) 0. 0.
O9 O2- 0.021(3) 0.023(3) 0.034(4) 0.011(2) -0.007(2) 0.001(2)
O10 O2- 0.033(3) 0.031(3) 0.031(3) 0.018(3) 0.000(3) -0.006(3)
O11 O2- 0.018(3) 0.018(3) 0.021(5) 0.0090(13) 0. 0.
O12 O2- 0.035(3) 0.033(3) 0.025(3) 0.017(3) 0.002(3) -0.006(3)
O13 O2- 0.039(4) 0.029(3) 0.051(5) 0.016(3) 0.011(3) 0.005(3)
#End of TTdata_418616-ICSD