
#(C) 2018 by FIZ Karlsruhe - Leibniz Institute for Information Infrastructure.  All rights reserved.
data_419562-ICSD
_database_code_ICSD 419562
_audit_creation_date 2009-02-01
_chemical_name_systematic 'Dilithium manganese diphosphate'
_chemical_formula_structural 'Li2 Mn (P2 O7)'
_chemical_formula_sum 'Li2 Mn1 O7 P2'
_exptl_crystal_density_diffrn 3.03
_cell_measurement_temperature 293.
_publ_section_title

;
A new lithium manganese phosphate with an original tunnel structure in the A2
M P2 O7 family
;
loop_
_citation_id
_citation_journal_full
_citation_year
_citation_journal_volume
_citation_page_first
_citation_page_last
_citation_journal_id_ASTM
primary 'Journal of Solid State Chemistry' 2008 181 3110 3115 JSSCBI
loop_
_publ_author_name
'Adam, L.'
'Guesdon, A.'
'Raveau, B.'
_cell_length_a 9.9158(6)
_cell_length_b 9.8289(6)
_cell_length_c 11.180(7)
_cell_angle_alpha 90.000(6)
_cell_angle_beta 102.466(5)
_cell_angle_gamma 90.000(5)
_cell_volume 1063.93
_cell_formula_units_Z 8
_symmetry_space_group_name_H-M 'P 1 21/a 1'
_symmetry_Int_Tables_number 14
_refine_ls_R_factor_all 0.0363
loop_
_symmetry_equiv_pos_site_id
_symmetry_equiv_pos_as_xyz
1 'x+1/2, -y+1/2, z'
2 '-x, -y, -z'
3 '-x+1/2, y+1/2, -z'
4 'x, y, z'
loop_
_atom_type_symbol
_atom_type_oxidation_number
Mn2+ 2
P5+ 5
O2- -2
Li1+ 1
loop_
_atom_site_label
_atom_site_type_symbol
_atom_site_symmetry_multiplicity
_atom_site_Wyckoff_symbol
_atom_site_fract_x
_atom_site_fract_y
_atom_site_fract_z
_atom_site_B_iso_or_equiv
_atom_site_occupancy
_atom_site_attached_hydrogens
Mn1 Mn2+ 4 e 0.24502(3) 0.71349(3) 0.17850(3) 0.01010(8) 1 0
Mn2 Mn2+ 4 e 0.29847(3) 0.41987(3) 0.32451(3) 0.00971(8) 1 0
P1 P5+ 4 e 0.37664(5) 0.65002(5) 0.57237(5) 0.00680(11) 1 0
P2 P5+ 4 e 0.05902(5) 0.93196(5) 0.24432(5) 0.00726(12) 1 0
P3 P5+ 4 e 0.02599(5) 0.45499(5) 0.76037(5) 0.00712(11) 1 0
P4 P5+ 4 e 0.61877(5) 0.79625(5) -0.10854(5) 0.00746(12) 1 0
O1 O2- 4 e 0.16246(14) 0.82821(14) 0.31350(14) 0.0114(4) 1 0
O2 O2- 4 e 0.48113(14) 0.77732(15) -0.07557(14) 0.0129(4) 1 0
O3 O2- 4 e 0.38378(14) 0.86486(14) 0.14432(13) 0.0121(4) 1 0
O4 O2- 4 e 0.02156(13) 0.84084(14) 0.55022(13) 0.0108(4) 1 0
O5 O2- 4 e 0.43627(15) 0.43440(15) -0.11127(13) 0.0129(4) 1 0
O6 O2- 4 e 0.18198(14) 0.83005(14) -0.15145(13) 0.0110(4) 1 0
O7 O2- 4 e 0.02235(15) 0.41597(15) 0.62905(13) 0.0128(4) 1 0
O8 O2- 4 e 0.18629(15) 0.28940(14) 0.41843(13) 0.0114(4) 1 0
O9 O2- 4 e 0.09527(14) 0.60349(14) 0.77455(13) 0.0094(3) 1 0
O10 O2- 4 e 0.38830(14) 0.58020(14) 0.70422(13) 0.0093(3) 1 0
O11 O2- 4 e 0.41492(13) 0.58835(14) 0.26962(13) 0.0103(4) 1 0
O12 O2- 4 e 0.27481(14) 0.56376(14) 0.48188(13) 0.0116(4) 1 0
O13 O2- 4 e 0.37991(13) 1.03269(14) -0.21286(13) 0.0096(3) 1 0
O14 O2- 4 e 0.22241(14) 0.63316(15) -0.00380(13) 0.0112(4) 1 0
Li1 Li1+ 4 e 0.6548(3) 0.0866(4) 0.0422(3) 0.0114(9) 1 0
Li2 Li1+ 4 e 0.0855(4) 0.1081(4) 0.0288(4) 0.0141(10) 1 0
Li3 Li1+ 4 e 0.6654(6) 0.0748(5) 0.5423(5) 0.0397(19) 1 0
Li4 Li1+ 4 e 0.3898(4) 0.2223(4) 0.5523(4) 0.0161(11) 1 0
loop_
_atom_site_aniso_label
_atom_site_aniso_type_symbol
_atom_site_aniso_U_11
_atom_site_aniso_U_22
_atom_site_aniso_U_33
_atom_site_aniso_U_12
_atom_site_aniso_U_13
_atom_site_aniso_U_23
Mn1 Mn2+ 0.01031(12) 0.00966(13) 0.01083(13) -0.00081(10) 0.00339(10) -0.0011(1)
Mn2 Mn2+ 0.00917(11) 0.01040(13) 0.00966(13) -0.00014(10) 0.00228(9) 0.00199(10)
P1 P5+ 0.00634(17) 0.00629(19) 0.0076(2) 0.00074(15) 0.00109(15) 0.00065(15)
P2 P5+ 0.00686(17) 0.00727(20) 0.0077(2) 0.00026(16) 0.00162(15) -0.00125(15)
P3 P5+ 0.00630(17) 0.00743(19) 0.0078(2) -0.00033(16) 0.00201(15) -0.00073(15)
P4 P5+ 0.00714(17) 0.0076(2) 0.0075(2) 0.00059(16) 0.00133(15) 0.00027(15)
O1 O2- 0.0107(6) 0.0110(6) 0.0125(7) 0.0032(5) 0.0026(5) 0.0014(5)
O2 O2- 0.0103(6) 0.0123(6) 0.0178(7) 0.0003(5) 0.0066(5) 0.0034(5)
O3 O2- 0.0113(6) 0.0106(6) 0.0138(7) -0.0027(5) 0.0016(5) -0.0020(5)
O4 O2- 0.0073(5) 0.0130(6) 0.0124(6) -0.0013(5) 0.0028(5) -0.0026(5)
O5 O2- 0.0148(6) 0.0163(7) 0.0075(6) 0.0036(5) 0.0026(5) 0.0027(5)
O6 O2- 0.0119(6) 0.0099(6) 0.0107(6) -0.0033(5) 0.0009(5) 0.0013(5)
O7 O2- 0.0130(6) 0.0167(7) 0.0096(6) -0.0042(5) 0.0048(5) -0.0053(5)
O8 O2- 0.0146(6) 0.0083(6) 0.0128(7) -0.0054(5) 0.0062(5) -0.0018(5)
O9 O2- 0.0112(5) 0.0091(6) 0.0078(6) -0.0033(5) 0.0021(5) -0.0020(5)
O10 O2- 0.0112(5) 0.0082(6) 0.0086(6) 0.0026(5) 0.0027(5) 0.0020(4)
O11 O2- 0.0078(5) 0.0100(6) 0.0134(6) 0.0003(5) 0.0033(5) 0.0019(5)
O12 O2- 0.0109(6) 0.0121(6) 0.0110(6) -0.0037(5) 0.0009(5) -0.0018(5)
O13 O2- 0.0066(5) 0.0102(6) 0.0125(6) -0.0004(5) 0.0033(5) -0.0009(5)
O14 O2- 0.0118(6) 0.0132(6) 0.0073(6) 0.0013(5) -0.0005(5) 0.0011(5)
Li1 Li1+ 0.0053(13) 0.0153(17) 0.0127(17) -0.0036(12) -0.0003(12) -0.0024(13)
Li2 Li1+ 0.0103(14) 0.0145(17) 0.0174(18) 0.0003(13) 0.0032(13) -0.0003(14)
Li3 Li1+ 0.053(3) 0.025(2) 0.055(4) 0.020(2) 0.041(3) 0.021(2)
Li4 Li1+ 0.0167(16) 0.0154(18) 0.0174(19) 0.0026(15) 0.0063(15) 0.0025(14)
#End of TTdata_419562-ICSD