
#(C) 2018 by FIZ Karlsruhe - Leibniz Institute for Information Infrastructure.  All rights reserved.
data_421527-ICSD
_database_code_ICSD 421527
_audit_creation_date 2011-02-01
_audit_update_record 2015-02-01
_chemical_name_systematic 'Lithium cerium nitridosilicate *'
_chemical_formula_structural 'Li5 Ce5 Si4 N12'
_chemical_formula_sum 'Ce5 Li5 N12 Si4'
_chemical_name_structure_type Ce5Li5Si4N12
_exptl_crystal_density_diffrn 5.08
_cell_measurement_temperature 293.
_publ_section_title

;
Chain-type lithium rare-earth nitridosilicates - Li5 Ln5 Si4 N12 with Ln = La,
Ce
;
loop_
_citation_id
_citation_journal_full
_citation_year
_citation_journal_volume
_citation_page_first
_citation_page_last
_citation_journal_id_ASTM
primary 'European Journal of Inorganic Chemistry' 2010 2010 2636 2641 EJICFO
loop_
_publ_author_name
'Lupart, S.'
'Zeuner, M.'
'Pagano, S.'
'Schnick, W.'
_cell_length_a 10.9778(16)
_cell_length_b 10.9778(16)
_cell_length_c 5.5143(11)
_cell_angle_alpha 90.
_cell_angle_beta 90.
_cell_angle_gamma 90.
_cell_volume 664.54
_cell_formula_units_Z 2
_symmetry_space_group_name_H-M 'P -4 b 2'
_symmetry_Int_Tables_number 117
_refine_ls_R_factor_all 0.0294
loop_
_symmetry_equiv_pos_site_id
_symmetry_equiv_pos_as_xyz
1 '-y+1/2, -x+1/2, -z'
2 'y, -x, -z'
3 'y+1/2, x+1/2, -z'
4 '-y, x, -z'
5 'x+1/2, -y+1/2, z'
6 '-x, -y, z'
7 '-x+1/2, y+1/2, z'
8 'x, y, z'
loop_
_atom_type_symbol
_atom_type_oxidation_number
Ce3+ 3
Si4+ 4
N3- -3
Li1+ 1
loop_
_atom_site_label
_atom_site_type_symbol
_atom_site_symmetry_multiplicity
_atom_site_Wyckoff_symbol
_atom_site_fract_x
_atom_site_fract_y
_atom_site_fract_z
_atom_site_B_iso_or_equiv
_atom_site_occupancy
_atom_site_attached_hydrogens
Ce1 Ce3+ 8 i 0.11646(4) 0.12300(4) 0.26516(7) 0.01176(13) 1 0
Ce2 Ce3+ 2 d 0.5 0. 0.5 0.01949(19) 1 0
Si1 Si4+ 8 i 0.26695(18) -0.10984(18) 0.2393(4) 0.0110(4) 1 0
N1 N3- 8 i 0.3311(6) 0.0307(6) 0.2007(13) 0.0171(12) 1 0
N2 N3- 8 i 0.1085(7) -0.1040(7) 0.2634(10) 0.0138(11) 1 0
N3 N3- 4 g 0.2124(6) 0.2876(6) 0. 0.0139(15) 1 0
N4 N3- 4 h 0.3258(6) -0.1742(6) 0.5 0.0140(16) 1 0
Li1 Li1+ 8 i 0.3870(16) 0.2070(18) 0.144(4) 0.024(3) 1 0
Li2 Li1+ 2 c 0.5 0. 0. 0.004(3) 1 0
loop_
_atom_site_aniso_label
_atom_site_aniso_type_symbol
_atom_site_aniso_U_11
_atom_site_aniso_U_22
_atom_site_aniso_U_33
_atom_site_aniso_U_12
_atom_site_aniso_U_13
_atom_site_aniso_U_23
Ce1 Ce3+ 0.0117(2) 0.0102(2) 0.01337(18) -0.00061(10) 0.0007(2) 0.0004(2)
Ce2 Ce3+ 0.0154(2) 0.0154(2) 0.0276(4) -0.0017(4) 0. 0.
Si1 Si4+ 0.0109(8) 0.0110(8) 0.0112(9) 0.0004(6) 0.0014(9) 0.0010(9)
N1 N3- 0.018(3) 0.013(3) 0.020(3) 0.002(3) 0.000(3) 0.001(2)
N2 N3- 0.016(3) 0.017(3) 0.009(2) -0.001(2) 0.000(4) 0.000(4)
N3 N3- 0.014(2) 0.014(2) 0.013(4) -0.004(3) -0.001(3) -0.001(3)
N4 N3- 0.015(2) 0.015(2) 0.012(4) 0.003(3) 0.001(3) -0.001(3)
#End of TTdata_421527-ICSD