
#(C) 2018 by FIZ Karlsruhe - Leibniz Institute for Information Infrastructure.  All rights reserved.
data_421549-ICSD
_database_code_ICSD 421549
_audit_creation_date 2011-02-01
_chemical_name_systematic 'Strontium dilithium tetranitrido disilicate'
_chemical_formula_structural 'Sr Li2 N4 Si2'
_chemical_formula_sum 'Li2 N4 Si2 Sr1'
_chemical_name_structure_type CaLi2Si2N4
_exptl_crystal_density_diffrn 3.46
_cell_measurement_temperature 294.
_publ_section_title

;
Li2 Ca Si2 N4 and Li2 Sr Si2 N4 - a synthetic approach to three-dimensional
lithium nitridosilicates
;
loop_
_citation_id
_citation_journal_full
_citation_year
_citation_journal_volume
_citation_page_first
_citation_page_last
_citation_journal_id_ASTM
primary 'European Journal of Inorganic Chemistry' 2010 2010 4945 4951 EJICFO
loop_
_publ_author_name
'Zeuner, M.'
'Pagano, S.'
'Hug, S.'
'Pust, P.'
'Schmiechen, S.'
'Scheu, C.'
'Schnick, W.'
_cell_length_a 10.7137(12)
_cell_length_b 10.7137(12)
_cell_length_c 10.7137(12)
_cell_angle_alpha 90.
_cell_angle_beta 90.
_cell_angle_gamma 90.
_cell_volume 1229.75
_cell_formula_units_Z 12
_symmetry_space_group_name_H-M 'P a -3'
_symmetry_Int_Tables_number 205
_refine_ls_R_factor_all 0.0427
loop_
_symmetry_equiv_pos_site_id
_symmetry_equiv_pos_as_xyz
1 '-z+1/2, x+1/2, y'
2 'z+1/2, x, -y+1/2'
3 'z, -x+1/2, y+1/2'
4 '-z, -x, -y'
5 'y, -z+1/2, x+1/2'
6 '-y+1/2, z+1/2, x'
7 'y+1/2, z, -x+1/2'
8 '-y, -z, -x'
9 'x+1/2, y, -z+1/2'
10 'x, -y+1/2, z+1/2'
11 '-x+1/2, y+1/2, z'
12 '-x, -y, -z'
13 'z+1/2, -x+1/2, -y'
14 '-z+1/2, -x, y+1/2'
15 '-z, x+1/2, -y+1/2'
16 'z, x, y'
17 '-y, z+1/2, -x+1/2'
18 'y+1/2, -z+1/2, -x'
19 '-y+1/2, -z, x+1/2'
20 'y, z, x'
21 '-x+1/2, -y, z+1/2'
22 '-x, y+1/2, -z+1/2'
23 'x+1/2, -y+1/2, -z'
24 'x, y, z'
loop_
_atom_type_symbol
_atom_type_oxidation_number
Sr2+ 2
Si4+ 4
N3- -3
Li1+ 1
loop_
_atom_site_label
_atom_site_type_symbol
_atom_site_symmetry_multiplicity
_atom_site_Wyckoff_symbol
_atom_site_fract_x
_atom_site_fract_y
_atom_site_fract_z
_atom_site_B_iso_or_equiv
_atom_site_occupancy
_atom_site_attached_hydrogens
Sr1 Sr2+ 8 c 0.21613(4) 0.21613(4) 0.21613(4) 0.0104(3) 1 0
Sr2 Sr2+ 4 b 0.5 0. 0. 0.0171(3) 1 0
Si1 Si4+ 24 d 0.47860(10) 0.36900(10) 0.24400(10) 0.0058(3) 1 0
N1 N3- 24 d 0.2712(3) 0.1241(3) -0.0093(3) 0.0067(6) 1 0
N2 N3- 24 d 0.2696(3) 0.1246(3) 0.4377(4) 0.0124(7) 1 0
Li1 Li1+ 24 d 0.2264(9) -0.0311(8) 0.1074(9) 0.0242(19) 1 0
loop_
_atom_site_aniso_label
_atom_site_aniso_type_symbol
_atom_site_aniso_U_11
_atom_site_aniso_U_22
_atom_site_aniso_U_33
_atom_site_aniso_U_12
_atom_site_aniso_U_13
_atom_site_aniso_U_23
Sr1 Sr2+ 0.0104(3) 0.0104(3) 0.0104(3) 0.00051(12) 0.00051(12) 0.00051(12)
Sr2 Sr2+ 0.0171(3) 0.0171(3) 0.0171(3) 0.00579(18) -0.00579(18) 0.00579(18)
Si1 Si4+ 0.0059(5) 0.0065(5) 0.0048(5) -0.0002(3) 0.0000(3) -0.0006(3)
N1 N3- 0.0073(14) 0.0043(14) 0.0084(15) -0.0007(10) 0.0007(11) -0.0013(10)
N2 N3- 0.0158(16) 0.0084(16) 0.0129(17) -0.0020(11) -0.0021(13) -0.0027(12)
Li1 Li1+ 0.040(5) 0.014(4) 0.018(4) 0.001(3) 0.015(4) -0.003(3)
#End of TTdata_421549-ICSD