
#(C) 2018 by FIZ Karlsruhe - Leibniz Institute for Information Infrastructure.  All rights reserved.
data_422090-ICSD
_database_code_ICSD 422090
_audit_creation_date 2014-08-01
_chemical_name_systematic 'Lithium strontium diyttrium tris(borate)'
_chemical_formula_structural 'Li Sr Y2 (B O3)3'
_chemical_formula_sum 'B3 Li1 O9 Sr1 Y2'
_exptl_crystal_density_diffrn 3.77
_cell_measurement_temperature 298.
_publ_section_title
'Structure and properties of a new rare-earth borate LiSrY2(BO3)3'
loop_
_citation_id
_citation_journal_full
_citation_year
_citation_journal_volume
_citation_page_first
_citation_page_last
_citation_journal_id_ASTM
primary 'Jiegou Huaxue ' 2010 29 1309 1316 JHUADF
loop_
_publ_author_name
'Song, Li-Mei'
'Gao, Jian-Hua'
'Yang, Xiao-Hui'
'Huang, Xin-Wei'
'Liu, Guang-Qiong'
_cell_length_a 10.3345(9)
_cell_length_b 10.3345(9)
_cell_length_c 6.4049(11)
_cell_angle_alpha 90.
_cell_angle_beta 90.
_cell_angle_gamma 120.
_cell_volume 592.4
_cell_formula_units_Z 3
_symmetry_space_group_name_H-M 'P -3 m 1'
_symmetry_Int_Tables_number 164
_refine_ls_R_factor_all 0.0465
loop_
_symmetry_equiv_pos_site_id
_symmetry_equiv_pos_as_xyz
1 'x-y, -y, -z'
2 '-x, -x+y, -z'
3 'y, x, -z'
4 'x-y, x, -z'
5 'y, -x+y, -z'
6 '-x, -y, -z'
7 '-x+y, y, z'
8 'x, x-y, z'
9 '-y, -x, z'
10 '-x+y, -x, z'
11 '-y, x-y, z'
12 'x, y, z'
loop_
_atom_type_symbol
_atom_type_oxidation_number
Y3+ 3
Sr2+ 2
O2- -2
B3+ 3
Li1+ 1
loop_
_atom_site_label
_atom_site_type_symbol
_atom_site_symmetry_multiplicity
_atom_site_Wyckoff_symbol
_atom_site_fract_x
_atom_site_fract_y
_atom_site_fract_z
_atom_site_B_iso_or_equiv
_atom_site_occupancy
_atom_site_attached_hydrogens
Y1 Y3+ 6 i 0.35514(11) 0.17757(6) 0.36080(16) 0.0046(4) 1 0
Sr1 Sr2+ 3 e 0.5 0.5 0. 0.0044(4) 1 0
O1 O2- 6 i 0.5895(4) 0.4105(4) 0.3353(11) 0.0039(12) 1 0
O2 O2- 6 i 0.3953(10) 0.1976(5) 0.0137(12) 0.0119(17) 1 0
O3 O2- 12 j 0.3008(6) 0.3733(7) 0.3097(8) 0.0125(12) 1 0
O4 O2- 6 h 0.1269(16) 0. 0.5 0.021(4) 0.5 0
B1 B3+ 2 d 0.6667 0.3333 0.333(3) 0.0018(13) 1 0
B2 B3+ 6 i 0.3780(13) 0.1890(6) -0.1954(18) 0.0044(16) 1 0
B3 B3+ 1 b 0. 0. 0.5 0.023(9) 1 0
Li1 Li1+ 3 f 0.5 0.5 0.5 0.014(2) 1 0
loop_
_atom_site_aniso_label
_atom_site_aniso_type_symbol
_atom_site_aniso_U_11
_atom_site_aniso_U_22
_atom_site_aniso_U_33
_atom_site_aniso_U_12
_atom_site_aniso_U_13
_atom_site_aniso_U_23
Y1 Y3+ 0.0055(5) 0.0066(4) 0.0013(5) 0.0028(3) 0.0017(3) 0.00086(16)
Sr1 Sr2+ 0.0070(5) 0.0070(5) 0.0016(7) 0.0053(5) -0.0005(2) 0.0005(2)
O1 O2- 0.0039(12) 0.0039(12) 0.0040(15) 0.0022(10) 0.0002(7) -0.0002(7)
O2 O2- 0.025(5) 0.011(3) 0.004(4) 0.013(2) 0.001(3) 0.0003(16)
O3 O2- 0.012(2) 0.030(3) 0.005(2) 0.018(2) -0.0009(19) 0.000(2)
O4 O2- 0.016(6) 0.022(9) 0.028(10) 0.011(5) 0.010(4) 0.021(8)
B1 B3+ 0.0018(12) 0.0018(12) 0.0019(17) 0.0009(6) 0. 0.
B2 B3+ 0.0047(16) 0.0044(18) 0.0043(19) 0.0023(8) -0.0001(9) -0.0001(5)
B3 B3+ 0.006(9) 0.006(9) 0.06(3) 0.003(5) 0. 0.
Li1 Li1+ 0.014(2) 0.014(2) 0.014(2) 0.0070(12) 0.0001(7) -0.0001(7)
#End of TTdata_422090-ICSD