
#(C) 2018 by FIZ Karlsruhe - Leibniz Institute for Information Infrastructure.  All rights reserved.
data_422596-ICSD
_database_code_ICSD 422596
_audit_creation_date 2011-08-01
_chemical_name_systematic
'Dilithium tetrastrontium pentanitridodisilicate nitride'
_chemical_formula_structural 'Li2 Sr4 (Si2 N5) N'
_chemical_formula_sum 'Li2 N6 Si2 Sr4'
_exptl_crystal_density_diffrn 3.93
_cell_measurement_temperature 293.
_publ_section_title
'Li2 Sr4 [Si2 N5] N - a layered lithium nitridosilicate nitride'
loop_
_citation_id
_citation_journal_full
_citation_year
_citation_journal_volume
_citation_page_first
_citation_page_last
_citation_journal_id_ASTM
primary 'European Journal of Inorganic Chemistry' 2011 2011 2118 2123 EJICFO
loop_
_publ_author_name
'Lupart, S.'
'Pagano, S.'
'Oeckler, O.'
'Schnick, W.'
_cell_length_a 7.5146(11)
_cell_length_b 7.5146(11)
_cell_length_c 15.089(3)
_cell_angle_alpha 90.
_cell_angle_beta 90.
_cell_angle_gamma 90.
_cell_volume 852.06
_cell_formula_units_Z 4
_symmetry_space_group_name_H-M 'I -4 m 2'
_symmetry_Int_Tables_number 119
_refine_ls_R_factor_all 0.0499
loop_
_symmetry_equiv_pos_site_id
_symmetry_equiv_pos_as_xyz
1 'y, x, -z'
2 '-y, -x, -z'
3 'y, -x, -z'
4 '-y, x, -z'
5 'x, -y, z'
6 '-x, y, z'
7 '-x, -y, z'
8 'x, y, z'
9 'y+1/2, x+1/2, -z+1/2'
10 '-y+1/2, -x+1/2, -z+1/2'
11 'y+1/2, -x+1/2, -z+1/2'
12 '-y+1/2, x+1/2, -z+1/2'
13 'x+1/2, -y+1/2, z+1/2'
14 '-x+1/2, y+1/2, z+1/2'
15 '-x+1/2, -y+1/2, z+1/2'
16 'x+1/2, y+1/2, z+1/2'
loop_
_atom_type_symbol
_atom_type_oxidation_number
Sr2+ 2
Si4+ 4
N3- -3
Li1+ 1
loop_
_atom_site_label
_atom_site_type_symbol
_atom_site_symmetry_multiplicity
_atom_site_Wyckoff_symbol
_atom_site_fract_x
_atom_site_fract_y
_atom_site_fract_z
_atom_site_B_iso_or_equiv
_atom_site_occupancy
_atom_site_attached_hydrogens
Sr1 Sr2+ 8 i 0.24803(10) 0. 0.08320(12) 0.0090(5) 1 0
Sr2 Sr2+ 8 i 0.24535(11) 0.5 0.09867(11) 0.0127(6) 1 0
Si1 Si4+ 8 i 0. 0.2262(4) 0.2005(3) 0.0087(7) 1 0
N1 N3- 8 i 0. 0.2511(11) 0.0840(8) 0.014(3) 1 0
N2 N3- 4 e 0. 0. 0.2305(11) 0.021(3) 1 0
N3 N3- 8 h 0.1957(10) 0.3043(10) 0.25 0.025(2) 1 0
N4 N3- 8 i 0.5 0.246(3) 0.090(2) 0.038(10) 0.5 0
Li1 Li1+ 8 i 0.5 0.2462(19) 0.2099(18) 0.011(5) 1 0
loop_
_atom_site_aniso_label
_atom_site_aniso_type_symbol
_atom_site_aniso_U_11
_atom_site_aniso_U_22
_atom_site_aniso_U_33
_atom_site_aniso_U_12
_atom_site_aniso_U_13
_atom_site_aniso_U_23
Sr1 Sr2+ 0.0081(7) 0.0099(7) 0.0092(9) 0. 0.0037(3) 0.
Sr2 Sr2+ 0.0090(8) 0.0089(7) 0.0202(12) 0. 0.0040(4) 0.
Si1 Si4+ 0.0090(16) 0.0088(13) 0.0083(18) 0. 0. -0.0014(12)
N1 N3- 0.022(6) 0.010(5) 0.010(7) 0. 0. 0.007(3)
N2 N3- 0.038(8) 0.006(5) 0.018(8) 0. 0. 0.
N3 N3- 0.026(3) 0.026(3) 0.024(7) -0.005(5) -0.001(3) -0.001(3)
#End of TTdata_422596-ICSD