
#(C) 2017 by FIZ Karlsruhe - Leibniz Institute for Information Infrastructure.  All rights reserved.
data_422840-ICSD
_database_code_ICSD 422840
_audit_creation_date 2012-02-01
_chemical_name_systematic
'Lithium distrontium catena-tetranitidotantalate fluoride'
_chemical_formula_structural 'Li Sr2 (Ta N3) F'
_chemical_formula_sum 'F1 Li1 N3 Sr2 Ta1'
_exptl_crystal_density_diffrn 5.89
_cell_measurement_temperature 293.
_publ_section_title 'Li Sr2 [Ta N3] F - a novel single chain nitridotantalate'
loop_
_citation_id
_citation_journal_full
_citation_year
_citation_journal_volume
_citation_page_first
_citation_page_last
_citation_journal_id_ASTM
primary 'Zeitschrift fuer Anorganische und Allgemeine Chemie (1950) (DE)' 2011
637 1486 1489 ZAACAB
loop_
_publ_author_name
'Pust, P.'
'Schnick, W.'
_cell_length_a 10.768(2)
_cell_length_b 5.5913(11)
_cell_length_c 15.891(3)
_cell_angle_alpha 90.
_cell_angle_beta 90.
_cell_angle_gamma 90.
_cell_volume 956.75
_cell_formula_units_Z 8
_symmetry_space_group_name_H-M 'P b c a'
_symmetry_Int_Tables_number 61
_refine_ls_R_factor_all 0.027
loop_
_symmetry_equiv_pos_site_id
_symmetry_equiv_pos_as_xyz
1 'x+1/2, y, -z+1/2'
2 'x, -y+1/2, z+1/2'
3 '-x+1/2, y+1/2, z'
4 '-x, -y, -z'
5 '-x+1/2, -y, z+1/2'
6 '-x, y+1/2, -z+1/2'
7 'x+1/2, -y+1/2, -z'
8 'x, y, z'
loop_
_atom_type_symbol
_atom_type_oxidation_number
Ta5+ 5
Sr2+ 2
N3- -3
F1- -1
Li1+ 1
loop_
_atom_site_label
_atom_site_type_symbol
_atom_site_symmetry_multiplicity
_atom_site_Wyckoff_symbol
_atom_site_fract_x
_atom_site_fract_y
_atom_site_fract_z
_atom_site_B_iso_or_equiv
_atom_site_occupancy
_atom_site_attached_hydrogens
Ta1 Ta5+ 8 c 0.84495(3) 0.16633(5) 0.634635(18) 0.00695(13) 1 0
Sr1 Sr2+ 8 c 0.94988(7) 0.29294(11) 0.41454(4) 0.00624(17) 1 0
Sr2 Sr2+ 8 c 1.13102(7) 0.21641(12) 0.71544(4) 0.00695(16) 1 0
N1 N3- 8 c 0.8817(7) 0.1968(11) 0.7516(4) 0.0109(13) 1 0
N2 N3- 8 c 0.9945(7) 0.2514(11) 0.5748(4) 0.0101(12) 1 0
N3 N3- 8 c 0.8206(7) -0.1796(10) 0.6119(5) 0.0111(13) 1 0
F1 F1- 8 c 0.7551(6) 0.0410(10) 0.4177(4) 0.0292(13) 1 0
Li1 Li1+ 8 c 0.8362(15) -0.209(3) 0.4789(10) 0.016(3) 1 0
loop_
_atom_site_aniso_label
_atom_site_aniso_type_symbol
_atom_site_aniso_U_11
_atom_site_aniso_U_22
_atom_site_aniso_U_33
_atom_site_aniso_U_12
_atom_site_aniso_U_13
_atom_site_aniso_U_23
Ta1 Ta5+ 0.0044(2) 0.00921(17) 0.00727(18) 0.00008(9) 0.00022(10) -0.00007(8)
Sr1 Sr2+ 0.0031(4) 0.0086(3) 0.0070(3) 0.0002(2) -0.0006(2) -0.0002(2)
Sr2 Sr2+ 0.0039(3) 0.0102(3) 0.0067(3) -0.0001(2) -0.0016(2) -0.0015(2)
N1 N3- 0.014(4) 0.008(3) 0.010(3) -0.003(2) 0.002(2) -0.001(2)
N2 N3- 0.004(3) 0.017(3) 0.009(3) 0.002(2) 0.002(2) -0.003(2)
N3 N3- 0.007(4) 0.010(3) 0.016(3) 0.002(2) 0.000(3) 0.001(2)
F1 F1- 0.027(4) 0.029(3) 0.032(3) 0.005(2) 0.000(3) -0.001(2)
Li1 Li1+ 0.011(8) 0.015(6) 0.021(7) 0.002(5) -0.002(6) 0.004(5)
#End of TTdata_422840-ICSD