
#(C) 2017 by FIZ Karlsruhe - Leibniz Institute for Information Infrastructure.  All rights reserved.
data_423422-ICSD
_database_code_ICSD 423422
_audit_creation_date 2012-02-01
_chemical_name_systematic 'Lithium aqua plutonium(IV) oxide chloride hydrate *'
_chemical_formula_structural 'Li2 (Pu38 O56 Cl42 (H2 O)20) (H2 O)15'
_chemical_formula_sum 'H70 Cl42 Li2 O91 Pu38'
_exptl_crystal_density_diffrn 3.71
_cell_measurement_temperature 100.
_publ_section_title 'Separation of plutonium oxide nanoparticles and colloids'
loop_
_citation_id
_citation_journal_full
_citation_year
_citation_journal_volume
_citation_page_first
_citation_page_last
_citation_journal_id_ASTM
primary 'Angewandte Chemie. International Edition' 2011 50 11234 11237 ACIEF5
loop_
_publ_author_name
'Wilson, R.E.'
'Skanthakumar, S.'
'Soderholm, L.'
_cell_length_a 35.315(6)
_cell_length_b 35.315(6)
_cell_length_c 35.315(6)
_cell_angle_alpha 90.
_cell_angle_beta 90.
_cell_angle_gamma 90.
_cell_volume 44043.07
_cell_formula_units_Z 8
_symmetry_space_group_name_H-M 'I a -3'
_symmetry_Int_Tables_number 206
_refine_ls_R_factor_all 0.0391
loop_
_symmetry_equiv_pos_site_id
_symmetry_equiv_pos_as_xyz
1 '-z, x, y+1/2'
2 'z, x+1/2, -y'
3 'z+1/2, -x, y'
4 '-z, -x, -y'
5 'y+1/2, -z, x'
6 '-y, z, x+1/2'
7 'y, z+1/2, -x'
8 '-y, -z, -x'
9 'x, y+1/2, -z'
10 'x+1/2, -y, z'
11 '-x, y, z+1/2'
12 '-x, -y, -z'
13 'z, -x, -y+1/2'
14 '-z, -x+1/2, y'
15 '-z+1/2, x, -y'
16 'z, x, y'
17 '-y+1/2, z, -x'
18 'y, -z, -x+1/2'
19 '-y, -z+1/2, x'
20 'y, z, x'
21 '-x, -y+1/2, z'
22 '-x+1/2, y, -z'
23 'x, -y, -z+1/2'
24 'x, y, z'
25 '-z+1/2, x+1/2, y'
26 'z+1/2, x, -y+1/2'
27 'z, -x+1/2, y+1/2'
28 '-z+1/2, -x+1/2, -y+1/2'
29 'y, -z+1/2, x+1/2'
30 '-y+1/2, z+1/2, x'
31 'y+1/2, z, -x+1/2'
32 '-y+1/2, -z+1/2, -x+1/2'
33 'x+1/2, y, -z+1/2'
34 'x, -y+1/2, z+1/2'
35 '-x+1/2, y+1/2, z'
36 '-x+1/2, -y+1/2, -z+1/2'
37 'z+1/2, -x+1/2, -y'
38 '-z+1/2, -x, y+1/2'
39 '-z, x+1/2, -y+1/2'
40 'z+1/2, x+1/2, y+1/2'
41 '-y, z+1/2, -x+1/2'
42 'y+1/2, -z+1/2, -x'
43 '-y+1/2, -z, x+1/2'
44 'y+1/2, z+1/2, x+1/2'
45 '-x+1/2, -y, z+1/2'
46 '-x, y+1/2, -z+1/2'
47 'x+1/2, -y+1/2, -z'
48 'x+1/2, y+1/2, z+1/2'
loop_
_atom_type_symbol
_atom_type_oxidation_number
Pu4+ 4
Cl1- -1
O2- -2
H1+ 1
Li1+ 1
loop_
_atom_site_label
_atom_site_type_symbol
_atom_site_symmetry_multiplicity
_atom_site_Wyckoff_symbol
_atom_site_fract_x
_atom_site_fract_y
_atom_site_fract_z
_atom_site_B_iso_or_equiv
_atom_site_occupancy
_atom_site_attached_hydrogens
Pu1 Pu4+ 48 e 0.949683(9) 0.948902(9) 0.025628(9) 0.01352(10) 1 0
Pu2 Pu4+ 48 e 1.026652(10) 0.871332(10) 0.025285(10) 0.01620(10) 1 0
Pu3 Pu4+ 16 c 0.922925(10) 0.922925(10) -0.077075(10) 0.01633(13) 1 0
Pu4 Pu4+ 48 e 0.849375(10) 0.925981(11) -0.001959(11) 0.01928(10) 1 0
Pu5 Pu4+ 48 e 0.874899(10) 0.951687(11) 0.102382(11) 0.01863(10) 1 0
Pu6 Pu4+ 48 e 0.953852(11) 0.873534(10) 0.102057(11) 0.01858(10) 1 0
Pu7 Pu4+ 48 e 0.927866(11) 0.848296(10) -0.002482(11) 0.01922(10) 1 0
Cl1 Cl1- 48 e 0.87749(8) 0.87541(8) 0.06291(8) 0.0281(5) 1 0
Cl2 Cl1- 48 e 0.93995(9) 0.80489(8) 0.06165(8) 0.0303(6) 1 0
Cl3 Cl1- 48 e 0.80642(8) 0.93747(9) 0.06263(8) 0.0308(6) 1 0
Cl4 Cl1- 48 e 0.89668(9) 0.89470(9) 0.15304(8) 0.0323(6) 1 0
Cl5 Cl1- 48 e 0.82065(9) 0.95280(10) 0.15568(9) 0.0376(7) 1 0
Cl6 Cl1- 48 e 0.95534(10) 0.81971(9) 0.15517(9) 0.0387(7) 1 0
Cl7 Cl1- 48 e 0.85161(9) 0.84910(10) -0.02374(12) 0.0434(8) 1 0
O1 O2- 16 c 0.9618(2) 0.9618(2) -0.0382(2) 0.015(2) 1 0
O2 O2- 48 e 0.91151(19) 0.9110(2) -0.0126(2) 0.0195(15) 1 0
O3 O2- 48 e 0.78218(17) 0.9090(2) -0.0271(2) 0.0201(15) 1 0
O4 O2- 48 e 0.8862(2) 0.9608(2) 0.0389(2) 0.0191(14) 1 0
O5 O2- 48 e 0.9886(2) 0.91075(19) 0.1369(2) 0.0185(14) 1 0
O6 O2- 48 e 0.93712(19) 0.93558(19) 0.0889(2) 0.0169(13) 1 0
O7 O2- 48 e 1.0131(2) 0.8623(2) 0.0882(2) 0.0195(14) 1 0
O8 O2- 48 e 0.9624(2) 0.8853(2) 0.03834(19) 0.0174(14) 1 0
O9 O2- 48 e 1.0135(2) 0.93598(19) 0.0125(2) 0.0167(14) 1 0
O10 O2- 48 e 0.8622(2) 0.9381(2) -0.0616(2) 0.0244(16) 1 0
O11 O2- 48 e 0.8375(2) 0.9857(2) -0.0128(2) 0.0242(16) 1 0
O12 O2- 48 e 1.0393(3) 0.8045(2) 0.0386(2) 0.0316(18) 1 0
O13 O2- 24 d 0.75 0.9931(4) 0. 0.040(3) 1 0
O14 O2- 48 e 1.0285(3) 0.7775(3) 0.1097(3) 0.043(2) 1 0
O15 O2- 48 e 0.7742(3) 1.0209(3) 0.1110(3) 0.043(2) 1 0
O16 O2- 48 e 0.9154(3) 0.7844(2) -0.0220(3) 0.047(3) 1 0
O17 O2- 16 c 0.8829(2) 0.8829(2) -0.1171(2) 0.046(4) 1 0
loop_
_atom_site_aniso_label
_atom_site_aniso_type_symbol
_atom_site_aniso_U_11
_atom_site_aniso_U_22
_atom_site_aniso_U_33
_atom_site_aniso_U_12
_atom_site_aniso_U_13
_atom_site_aniso_U_23
Pu1 Pu4+ 0.01340(16) 0.01317(16) 0.01398(16) -0.00071(11) -0.00006(12)
-0.00017(12)
Pu2 Pu4+ 0.01731(17) 0.01388(16) 0.01741(17) 0.00053(12) 0.00064(12) 0.00052(12)
Pu3 Pu4+ 0.01633(13) 0.01633(13) 0.01633(13) -0.00184(12) -0.00184(12)
-0.00184(12)
Pu4 Pu4+ 0.01471(17) 0.02022(18) 0.02290(19) -0.00281(13) -0.00029(13)
0.00009(13)
Pu5 Pu4+ 0.01661(17) 0.02013(18) 0.01915(18) -0.00108(13) 0.00255(13)
0.00188(13)
Pu6 Pu4+ 0.01991(18) 0.01686(17) 0.01896(18) -0.00120(13) 0.00178(13)
0.00255(13)
Pu7 Pu4+ 0.02060(18) 0.01444(17) 0.02263(19) -0.00329(13) 0.00013(14)
-0.00036(13)
Cl1 Cl1- 0.0244(12) 0.0247(12) 0.0351(14) -0.0043(10) 0.0035(10) 0.0019(10)
Cl2 Cl1- 0.0435(16) 0.0201(12) 0.0271(13) -0.0032(11) -0.0024(11) 0.0037(10)
Cl3 Cl1- 0.0191(12) 0.0432(16) 0.0302(14) -0.0017(11) 0.0025(10) -0.0004(12)
Cl4 Cl1- 0.0343(15) 0.0324(14) 0.0303(14) 0.0044(11) 0.0102(11) 0.0090(11)
Cl5 Cl1- 0.0295(14) 0.0505(18) 0.0329(15) 0.0033(13) 0.0105(12) 0.0059(13)
Cl6 Cl1- 0.0521(19) 0.0291(14) 0.0350(15) 0.0021(13) 0.0053(13) 0.0102(12)
Cl7 Cl1- 0.0327(16) 0.0337(16) 0.064(2) -0.0112(12) -0.0057(15) -0.0097(15)
O1 O2- 0.015(2) 0.015(2) 0.015(2) 0.003(3) 0.003(3) 0.003(3)
O2 O2- 0.014(3) 0.018(3) 0.026(4) -0.001(3) -0.006(3) -0.002(3)
O3 O2- 0.002(3) 0.038(4) 0.021(3) 0.007(3) 0.002(2) -0.001(3)
O4 O2- 0.020(3) 0.023(4) 0.014(3) -0.002(3) 0.004(3) -0.001(3)
O5 O2- 0.021(3) 0.015(3) 0.020(3) 0.002(3) 0.000(3) 0.004(3)
O6 O2- 0.015(3) 0.018(3) 0.018(3) 0.001(3) 0.001(3) -0.001(3)
O7 O2- 0.022(3) 0.017(3) 0.020(3) 0.001(3) -0.005(3) 0.002(3)
O8 O2- 0.018(3) 0.019(3) 0.015(3) 0.000(3) 0.004(3) 0.002(3)
O9 O2- 0.018(3) 0.013(3) 0.019(3) 0.000(2) 0.001(3) 0.002(3)
O10 O2- 0.022(4) 0.029(4) 0.022(4) -0.001(3) -0.002(3) -0.002(3)
O11 O2- 0.021(4) 0.025(4) 0.026(4) 0.000(3) -0.002(3) 0.002(3)
O12 O2- 0.039(5) 0.025(4) 0.030(4) 0.006(3) 0.001(4) 0.006(3)
O13 O2- 0.015(5) 0.047(8) 0.059(9) 0. 0.005(5) 0.
O14 O2- 0.053(6) 0.031(5) 0.044(5) 0.002(4) 0.001(5) -0.003(4)
O15 O2- 0.032(5) 0.057(6) 0.040(5) 0.007(4) 0.004(4) 0.005(5)
O16 O2- 0.074(7) 0.010(4) 0.056(6) 0.001(4) -0.001(5) 0.010(4)
O17 O2- 0.046(4) 0.046(4) 0.046(4) -0.015(4) -0.015(4) -0.015(4)
#End of TTdata_423422-ICSD