
#(C) 2018 by FIZ Karlsruhe - Leibniz Institute for Information Infrastructure.  All rights reserved.
data_424283-ICSD
_database_code_ICSD 424283
_audit_creation_date 2013-02-01
_chemical_name_systematic 'Lithium dipotassium borodiphosphate'
_chemical_formula_structural 'Li K2 B P2 O8'
_chemical_formula_sum 'B1 K2 Li1 O8 P2'
_exptl_crystal_density_diffrn 2.63
_cell_measurement_temperature 296.
_publ_section_title

;
Further examples of the P-O-P connection in borophosphates: synthesis and
characterization of Li2 Cs2 B2 P4 O15, Li K2 B P2 O8, and Li3 M2 B P4 O14 (M =
K, Rb)
;
loop_
_citation_id
_citation_journal_full
_citation_year
_citation_journal_volume
_citation_page_first
_citation_page_last
_citation_journal_id_ASTM
primary 'Chemistry - A European Journal' 2012 18 12046 12051 CEUJED
loop_
_publ_author_name
'Wang Ying'
'Pan Shilie'
'Shi Yunjing'
_cell_length_a 8.3544(3)
_cell_length_b 8.7912(3)
_cell_length_c 9.8626(4)
_cell_angle_alpha 90.
_cell_angle_beta 95.043(2)
_cell_angle_gamma 90.
_cell_volume 721.56
_cell_formula_units_Z 4
_symmetry_space_group_name_H-M 'P 1 21/n 1'
_symmetry_Int_Tables_number 14
_refine_ls_R_factor_all 0.0246
loop_
_symmetry_equiv_pos_site_id
_symmetry_equiv_pos_as_xyz
1 '-x+1/2, y+1/2, -z+1/2'
2 '-x, -y, -z'
3 'x+1/2, -y+1/2, z+1/2'
4 'x, y, z'
loop_
_atom_type_symbol
_atom_type_oxidation_number
Li1+ 1
K1+ 1
B3+ 3
P5+ 5
O2- -2
loop_
_atom_site_label
_atom_site_type_symbol
_atom_site_symmetry_multiplicity
_atom_site_Wyckoff_symbol
_atom_site_fract_x
_atom_site_fract_y
_atom_site_fract_z
_atom_site_B_iso_or_equiv
_atom_site_occupancy
_atom_site_attached_hydrogens
Li1 Li1+ 4 e 0.1887(4) 1.0835(4) 0.3803(4) 0.0170(7) 1 0
K1 K1+ 4 e 0.04377(5) 0.77546(5) 0.32213(5) 0.01812(13) 1 0
K2 K1+ 4 e 0.02395(6) 0.27659(6) 0.08685(5) 0.02765(14) 1 0
B1 B3+ 4 e 0.3408(2) 1.0864(2) 0.8743(2) 0.0094(4) 1 0
P1 P5+ 4 e 0.18376(6) 0.42269(5) 0.39210(5) 0.01004(13) 1 0
P2 P5+ 4 e 0.20076(6) 0.89515(5) 0.66992(5) 0.01010(13) 1 0
O1 O2- 4 e 0.24153(16) 0.72001(15) 0.68909(14) 0.0130(3) 1 0
O2 O2- 4 e 0.2346(2) 0.94362(18) 0.52966(16) 0.0228(3) 1 0
O3 O2- 4 e 0.33397(16) 0.96121(16) 0.77663(15) 0.0155(3) 1 0
O4 O2- 4 e 0.03515(17) 0.92932(16) 0.70846(15) 0.0171(3) 1 0
O5 O2- 4 e 0.23755(16) 0.54786(16) 0.50158(15) 0.0159(3) 1 0
O6 O2- 4 e 0.18939(18) 0.49388(18) 0.25486(15) 0.0198(3) 1 0
O7 O2- 4 e 0.28473(17) 0.28215(16) 0.41356(17) 0.0193(3) 1 0
O8 O2- 4 e 0.00853(15) 0.37423(15) 0.41762(13) 0.0113(3) 1 0
loop_
_atom_site_aniso_label
_atom_site_aniso_type_symbol
_atom_site_aniso_U_11
_atom_site_aniso_U_22
_atom_site_aniso_U_33
_atom_site_aniso_U_12
_atom_site_aniso_U_13
_atom_site_aniso_U_23
Li1 Li1+ 0.0183(17) 0.0145(16) 0.0182(17) 0.0003(13) 0.0016(13) 0.0005(13)
K1 K1+ 0.0178(2) 0.0136(2) 0.0222(2) -0.00097(15) -0.00211(17) 0.00050(16)
K2 K1+ 0.0242(3) 0.0403(3) 0.0176(2) -0.0154(2) -0.00296(19) 0.0015(2)
B1 B3+ 0.0100(9) 0.0085(9) 0.0097(9) 0.0010(7) 0.0001(7) 0.0003(7)
P1 P5+ 0.0100(2) 0.0097(2) 0.0104(2) 0.00016(16) 0.00101(17) -0.00125(16)
P2 P5+ 0.0109(2) 0.0084(2) 0.0107(2) 0.00035(16) -0.00121(17) -0.00034(16)
O1 O2- 0.0134(6) 0.0090(6) 0.0158(7) 0.0003(5) -0.0038(5) -0.0014(5)
O2 O2- 0.0292(9) 0.0236(8) 0.0156(8) 0.0013(6) 0.0022(6) 0.0060(6)
O3 O2- 0.0132(7) 0.0117(6) 0.0206(7) 0.0012(5) -0.0039(5) -0.0059(5)
O4 O2- 0.0120(7) 0.0150(7) 0.0241(8) 0.0019(5) -0.0004(6) -0.0035(6)
O5 O2- 0.0129(7) 0.0180(7) 0.0172(7) -0.0048(5) 0.0037(5) -0.0078(6)
O6 O2- 0.0195(7) 0.0258(8) 0.0145(7) -0.0025(6) 0.0035(6) 0.0042(6)
O7 O2- 0.0137(7) 0.0130(7) 0.0307(8) 0.0027(5) -0.0006(6) -0.0022(6)
O8 O2- 0.0104(6) 0.0109(6) 0.0124(6) -0.0010(5) -0.0003(5) 0.0007(5)
#End of TTdata_424283-ICSD