
#(C) 2018 by FIZ Karlsruhe - Leibniz Institute for Information Infrastructure.  All rights reserved.
data_424352-ICSD
_database_code_ICSD 424352
_audit_creation_date 2013-02-01
_chemical_name_systematic 'Trilithium dirubidium borotetraphosphate'
_chemical_formula_structural 'Li3 Rb2 B P4 O14'
_chemical_formula_sum 'B1 Li3 O14 P4 Rb2'
_chemical_name_structure_type Li3K2BP4O14
_exptl_crystal_density_diffrn 3.06
_cell_measurement_temperature 296.
_publ_section_title

;
Further examples of the P-O-P connection in borophosphates: synthesis and
characterization of Li2 Cs2 B2 P4 O15, Li K2 B P2 O8, and Li3 M2 B P4 O14 (M =
K, Rb)
;
loop_
_citation_id
_citation_journal_full
_citation_year
_citation_journal_volume
_citation_page_first
_citation_page_last
_citation_journal_id_ASTM
primary 'Chemistry - A European Journal' 2012 18 12046 12051 CEUJED
loop_
_publ_author_name
'Wang Ying'
'Pan Shilie'
'Shi Yunjing'
_cell_length_a 23.904(17)
_cell_length_b 14.132(10)
_cell_length_c 7.076(5)
_cell_angle_alpha 90.
_cell_angle_beta 90.
_cell_angle_gamma 90.
_cell_volume 2390.35
_cell_formula_units_Z 8
_symmetry_space_group_name_H-M 'C m c a'
_symmetry_Int_Tables_number 64
_refine_ls_R_factor_all 0.0232
loop_
_symmetry_equiv_pos_site_id
_symmetry_equiv_pos_as_xyz
1 '-x, -y+1/2, z+1/2'
2 '-x, y+1/2, -z+1/2'
3 '-x, y, z'
4 '-x, -y, -z'
5 'x, y+1/2, -z+1/2'
6 'x, -y+1/2, z+1/2'
7 'x, -y, -z'
8 'x, y, z'
9 '-x+1/2, -y, z+1/2'
10 '-x+1/2, y, -z+1/2'
11 '-x+1/2, y+1/2, z'
12 '-x+1/2, -y+1/2, -z'
13 'x+1/2, y, -z+1/2'
14 'x+1/2, -y, z+1/2'
15 'x+1/2, -y+1/2, -z'
16 'x+1/2, y+1/2, z'
loop_
_atom_type_symbol
_atom_type_oxidation_number
Li1+ 1
Rb1+ 1
B3+ 3
P5+ 5
O2- -2
loop_
_atom_site_label
_atom_site_type_symbol
_atom_site_symmetry_multiplicity
_atom_site_Wyckoff_symbol
_atom_site_fract_x
_atom_site_fract_y
_atom_site_fract_z
_atom_site_B_iso_or_equiv
_atom_site_occupancy
_atom_site_attached_hydrogens
Li1 Li1+ 8 d 0.8818(3) 0.5 0. 0.0187(15) 1 0
Li2 Li1+ 16 g 0.8670(2) 0.7647(3) 0.4761(7) 0.0176(10) 1 0
Rb1 Rb1+ 8 f 1. 0.11420(3) 0.29834(5) 0.01622(11) 1 0
Rb2 Rb1+ 8 e 0.75 0.84632(3) 0.25 0.01590(11) 1 0
B1 B3+ 8 d 0.87993(17) 0.5 0.5 0.0090(8) 1 0
P1 P5+ 16 g 0.81094(3) 0.59688(5) 0.25972(9) 0.00825(16) 1 0
P2 P5+ 16 g 0.93751(3) 0.36520(5) 0.30232(10) 0.00816(15) 1 0
O1 O2- 16 g 0.80880(8) 0.67708(12) 0.3952(3) 0.0123(4) 1 0
O2 O2- 16 g 0.84536(8) 0.50995(13) 0.3310(3) 0.0133(4) 1 0
O3 O2- 16 g 0.82992(8) 0.61654(12) 0.0629(3) 0.0150(4) 1 0
O4 O2- 8 e 0.75 0.54893(18) 0.25 0.0119(6) 1 0
O5 O2- 8 f 1. 0.33725(18) 0.3669(4) 0.0113(5) 1 0
O6 O2- 16 g 0.90733(8) 0.27337(13) 0.2812(3) 0.0156(4) 1 0
O7 O2- 16 g 0.93932(8) 0.42788(13) 0.1352(3) 0.0155(4) 1 0
O8 O2- 16 g 0.91592(8) 0.41634(13) 0.4835(3) 0.0129(4) 1 0
loop_
_atom_site_aniso_label
_atom_site_aniso_type_symbol
_atom_site_aniso_U_11
_atom_site_aniso_U_22
_atom_site_aniso_U_33
_atom_site_aniso_U_12
_atom_site_aniso_U_13
_atom_site_aniso_U_23
Li1 Li1+ 0.015(4) 0.015(3) 0.026(4) 0. 0. 0.000(3)
Li2 Li1+ 0.016(3) 0.018(2) 0.018(2) -0.001(2) -0.0010(19) -0.0025(19)
Rb1 Rb1+ 0.0195(2) 0.0176(2) 0.01155(19) 0. 0. 0.00103(14)
Rb2 Rb1+ 0.0221(2) 0.01292(19) 0.0127(2) 0. -0.00140(14) 0.
B1 B3+ 0.008(2) 0.0100(18) 0.010(2) 0. 0. -0.0029(15)
P1 P5+ 0.0073(4) 0.0080(3) 0.0095(3) -0.0002(3) -0.0006(2) -0.0004(2)
P2 P5+ 0.0073(4) 0.0097(3) 0.0075(3) -0.0003(2) 0.0000(2) 0.0000(2)
O1 O2- 0.0126(10) 0.0099(9) 0.0144(10) -0.0004(7) 0.0002(7) -0.0025(7)
O2 O2- 0.0133(10) 0.0105(9) 0.0163(10) 0.0053(8) -0.0074(8) -0.0024(7)
O3 O2- 0.0180(11) 0.0148(10) 0.0121(10) -0.0027(8) 0.0031(8) 0.0005(7)
O4 O2- 0.0042(14) 0.0095(13) 0.0220(15) 0. -0.0024(10) 0.
O5 O2- 0.0060(13) 0.0142(13) 0.0138(13) 0. 0. 0.0041(10)
O6 O2- 0.0151(11) 0.0148(10) 0.0169(10) -0.0058(8) -0.0019(8) -0.0009(8)
O7 O2- 0.0131(10) 0.0219(11) 0.0115(10) 0.0035(8) 0.0004(8) 0.0040(8)
O8 O2- 0.0137(10) 0.0165(9) 0.0085(9) 0.0081(8) 0.0001(8) -0.0001(7)
#End of TTdata_424352-ICSD