
#(C) 2018 by FIZ Karlsruhe - Leibniz Institute for Information Infrastructure.  All rights reserved.
data_424358-ICSD
_database_code_ICSD 424358
_audit_creation_date 2013-02-01
_chemical_name_systematic 'Lithium tris(disulfato) germanate'
_chemical_formula_structural 'Li2 (Ge (S2 O7)3)'
_chemical_formula_sum 'Ge1 Li2 O21 S6'
_exptl_crystal_density_diffrn 2.68
_cell_measurement_temperature 153.
_publ_section_title

;
New compounds bearing [M (S2 O7)3](2-) anions (M = Si, Ge, Sn): Syntheses and
characterization of A2 [Si (S2 O7)3] (A = Na, K, Rb), A2 [Ge (S2 O7)3] (A =
Li, Na, K, Rb, Cs), A2 [Sn (S2 O7)3] (A = Na, K), and the unique germanate Hg2
[Ge (S2 O7)3] Cl2 with cationic [Hg Cl2/2]+ chains
;
loop_
_citation_id
_citation_journal_full
_citation_year
_citation_journal_volume
_citation_page_first
_citation_page_last
_citation_journal_id_ASTM
primary 'Zeitschrift fuer Anorganische und Allgemeine Chemie (1950) (DE)' 2012
638 2053 2061 ZAACAB
loop_
_publ_author_name
'Logemann, C.'
'Witt, J.'
'Gunzelmann, D.'
'Senker, J.'
'Wickleder, M.S.'
_cell_length_a 14.4144(5)
_cell_length_b 14.4144(5)
_cell_length_c 38.1641(14)
_cell_angle_alpha 90.
_cell_angle_beta 90.
_cell_angle_gamma 120.
_cell_volume 6867.19
_cell_formula_units_Z 18
_symmetry_space_group_name_H-M 'R -3 H'
_symmetry_Int_Tables_number 148
_refine_ls_R_factor_all 0.0369
loop_
_symmetry_equiv_pos_site_id
_symmetry_equiv_pos_as_xyz
1 'x-y, x, -z'
2 'y, -x+y, -z'
3 '-x, -y, -z'
4 '-x+y, -x, z'
5 '-y, x-y, z'
6 'x, y, z'
7 'x-y+2/3, x+1/3, -z+1/3'
8 'y+2/3, -x+y+1/3, -z+1/3'
9 '-x+2/3, -y+1/3, -z+1/3'
10 '-x+y+2/3, -x+1/3, z+1/3'
11 '-y+2/3, x-y+1/3, z+1/3'
12 'x+2/3, y+1/3, z+1/3'
13 'x-y+1/3, x+2/3, -z+2/3'
14 'y+1/3, -x+y+2/3, -z+2/3'
15 '-x+1/3, -y+2/3, -z+2/3'
16 '-x+y+1/3, -x+2/3, z+2/3'
17 '-y+1/3, x-y+2/3, z+2/3'
18 'x+1/3, y+2/3, z+2/3'
loop_
_atom_type_symbol
_atom_type_oxidation_number
Ge4+ 4
S6+ 6
O2- -2
S6+ 6
O2- -2
Li1+ 1
loop_
_atom_site_label
_atom_site_type_symbol
_atom_site_symmetry_multiplicity
_atom_site_Wyckoff_symbol
_atom_site_fract_x
_atom_site_fract_y
_atom_site_fract_z
_atom_site_B_iso_or_equiv
_atom_site_occupancy
_atom_site_attached_hydrogens
Ge1 Ge4+ 6 c 0. 0. 0.083144(8) 0.00827(6) 1 0
Ge2 Ge4+ 6 c 0.6667 0.3333 0.076933(8) 0.00750(6) 1 0
Ge3 Ge4+ 6 c 0.3333 0.6667 0.087876(9) 0.01056(6) 1 0
S1 S6+ 18 f 0.10998(3) -0.11302(3) 0.044643(11) 0.00801(7) 1 0
S2 S6+ 18 f 0.45613(3) 0.23803(4) 0.120022(11) 0.00887(7) 1 0
S3 S6+ 18 f 0.44481(3) 0.18417(3) 0.048589(11) 0.00872(7) 1 0
S4 S6+ 18 f 0.15531(3) -0.05771(4) 0.116031(11) 0.00861(7) 1 0
O1 O2- 18 f 0.02020(11) -0.09281(11) 0.05430(4) 0.0110(2) 1 0
O2 O2- 18 f 0.11057(11) 0.01668(11) 0.11221(4) 0.0108(2) 1 0
O3 O2- 18 f 0.41717(11) 0.14872(11) 0.08908(3) 0.0113(2) 1 0
O4 O2- 18 f 0.19571(11) -0.05822(12) 0.07656(3) 0.0111(2) 1 0
O5 O2- 18 f 0.55896(10) 0.32926(11) 0.10545(3) 0.0100(2) 1 0
O6 O2- 18 f 0.16910(12) -0.05355(12) 0.01505(4) 0.0144(2) 1 0
O7 O2- 18 f 0.07531(12) -0.16420(11) 0.12391(4) 0.0131(2) 1 0
O8 O2- 18 f 0.47264(13) 0.18616(12) 0.14895(4) 0.0147(2) 1 0
O9 O2- 18 f 0.07156(12) -0.22471(11) 0.04546(4) 0.0133(2) 1 0
O10 O2- 18 f 0.39353(12) 0.08591(12) 0.03041(4) 0.0158(3) 1 0
O11 O2- 18 f 0.41667(13) 0.26367(13) 0.04192(4) 0.0158(3) 1 0
O12 O2- 18 f 0.24997(12) -0.00656(13) 0.13628(4) 0.0151(3) 1 0
S5 S6+ 18 f 0.45136(4) 0.56941(4) 0.046843(11) 0.00980(7) 1 0
S6 S6+ 18 f 0.11307(4) 0.54807(4) 0.120686(12) 0.01097(8) 1 0
O13 O2- 18 f 0.35156(11) 0.57166(12) 0.05782(4) 0.0122(2) 1 0
O14 O2- 18 f 0.56452(10) 0.22859(11) 0.04779(3) 0.0100(2) 1 0
O15 O2- 18 f 0.22657(12) 0.56716(13) 0.11828(4) 0.0155(3) 1 0
O16 O2- 18 f 0.37915(12) 0.27129(13) 0.12257(4) 0.0149(3) 1 0
O17 O2- 18 f 0.52615(13) 0.66319(13) 0.02856(4) 0.0179(3) 1 0
O18 O2- 18 f 0.05388(14) 0.46717(14) 0.14551(4) 0.0207(3) 1 0
O19 O2- 18 f 0.06523(13) 0.48966(13) 0.08377(4) 0.0194(3) 1 0
O20 O2- 18 f 0.42349(14) 0.46920(13) 0.03229(5) 0.0204(3) 1 0
O21 O2- 18 f 0.10892(14) 0.64397(13) 0.12172(5) 0.0195(3) 1 0
Li1 Li1+ 18 f 0.3449(3) 0.3215(3) 0.00966(10) 0.0158(7) 1 0
Li2 Li1+ 18 f -0.0262(4) 0.3466(4) 0.17789(12) 0.0228(8) 1 0
loop_
_atom_site_aniso_label
_atom_site_aniso_type_symbol
_atom_site_aniso_U_11
_atom_site_aniso_U_22
_atom_site_aniso_U_33
_atom_site_aniso_U_12
_atom_site_aniso_U_13
_atom_site_aniso_U_23
Ge1 Ge4+ 0.00764(8) 0.00764(8) 0.00955(12) 0.00382(4) 0. 0.
Ge2 Ge4+ 0.00661(8) 0.00661(8) 0.00927(12) 0.00330(4) 0. 0.
Ge3 Ge4+ 0.00998(9) 0.00998(9) 0.01172(13) 0.00499(4) 0. 0.
S1 S6+ 0.00823(16) 0.00818(16) 0.00776(15) 0.00421(13) 0.00024(12) -0.00016(12)
S2 S6+ 0.00810(16) 0.01111(17) 0.00775(15) 0.00507(14) 0.00010(12) -0.00038(12)
S3 S6+ 0.00768(15) 0.00947(16) 0.00799(15) 0.00353(13) -0.00113(12) -0.00105(12)
S4 S6+ 0.00787(16) 0.01033(16) 0.00796(15) 0.00480(14) -0.00083(12) -0.00008(12)
O1 O2- 0.0095(5) 0.0113(5) 0.0133(5) 0.0059(4) -0.0019(4) -0.0037(4)
O2 O2- 0.0112(5) 0.0103(5) 0.0124(5) 0.0065(4) -0.0031(4) -0.0027(4)
O3 O2- 0.0122(5) 0.0091(5) 0.0087(5) 0.0024(4) 0.0013(4) -0.0005(4)
O4 O2- 0.0080(5) 0.0157(6) 0.0087(5) 0.0054(5) -0.0004(4) -0.0018(4)
O5 O2- 0.0076(5) 0.0086(5) 0.0123(5) 0.0030(4) 0.0013(4) -0.0022(4)
O6 O2- 0.0128(6) 0.0180(6) 0.0094(5) 0.0054(5) 0.0022(4) 0.0035(5)
O7 O2- 0.0134(6) 0.0110(6) 0.0137(5) 0.0053(5) 0.0018(4) 0.0035(4)
O8 O2- 0.0181(6) 0.0169(6) 0.0096(5) 0.0091(5) -0.0008(5) 0.0022(4)
O9 O2- 0.0162(6) 0.0087(5) 0.0160(6) 0.0071(5) -0.0023(5) -0.0017(4)
O10 O2- 0.0141(6) 0.0139(6) 0.0127(6) 0.0020(5) -0.0022(5) -0.0056(5)
O11 O2- 0.0191(7) 0.0209(7) 0.0141(6) 0.0151(6) -0.0019(5) 0.0014(5)
O12 O2- 0.0112(6) 0.0211(7) 0.0128(5) 0.0079(5) -0.0052(4) -0.0037(5)
S5 S6+ 0.01021(17) 0.00896(16) 0.01023(16) 0.00479(14) 0.00017(13) -0.00032(13)
S6 S6+ 0.01028(17) 0.00981(17) 0.01114(17) 0.00377(14) 0.00172(13) 0.00084(13)
O13 O2- 0.0107(5) 0.0132(6) 0.0139(5) 0.0069(5) -0.0012(4) -0.0016(4)
O14 O2- 0.0072(5) 0.0105(5) 0.0116(5) 0.0037(4) -0.0003(4) -0.0029(4)
O15 O2- 0.0122(6) 0.0167(6) 0.0178(6) 0.0074(5) 0.0015(5) 0.0039(5)
O16 O2- 0.0121(6) 0.0210(7) 0.0153(6) 0.0110(5) 0.0019(5) -0.0012(5)
O17 O2- 0.0158(6) 0.0141(6) 0.0222(7) 0.0064(5) 0.0051(5) 0.0064(5)
O18 O2- 0.0213(7) 0.0174(7) 0.0149(6) 0.0031(6) 0.0060(5) 0.0047(5)
O19 O2- 0.0180(7) 0.0150(6) 0.0124(6) -0.0014(5) 0.0006(5) 0.0000(5)
O20 O2- 0.0178(7) 0.0141(6) 0.0284(8) 0.0074(6) 0.0006(6) -0.0080(6)
O21 O2- 0.0204(7) 0.0163(7) 0.0254(7) 0.0120(6) 0.0047(6) 0.0000(6)
Li1 Li1+ 0.0167(17) 0.0156(16) 0.0158(16) 0.0086(14) -0.0013(13) 0.0013(12)
Li2 Li1+ 0.034(2) 0.0196(19) 0.0216(18) 0.0184(18) 0.0142(17) 0.0089(15)
#End of TTdata_424358-ICSD