
#(C) 2018 by FIZ Karlsruhe - Leibniz Institute for Information Infrastructure.  All rights reserved.
data_424697-ICSD
_database_code_ICSD 424697
_audit_creation_date 2014-02-01
_chemical_name_systematic 'Lithium iron strontium dioxoborate (5.5/1.5/1/12)'
_chemical_formula_structural '(Li5.5 Fe0.5) Fe Sr (B12 O24)'
_chemical_formula_sum 'B12 Fe1.5 Li5.5 O24 Sr1'
_chemical_name_structure_type (Li,Fe)6FeBaB12O24
_exptl_crystal_density_diffrn 2.96
_cell_measurement_temperature 298.
_publ_section_title

;
Synthesis and characterization of three new hexaborates (Li5.5 Fe0.5) Fe Ca
B12 O24, (Li5.5 Fe0.5) Fe Sr B12 O24 and (Li5.5 Fe0.5) Fe Ba B12 O24
;
loop_
_citation_id
_citation_journal_full
_citation_year
_citation_journal_volume
_citation_page_first
_citation_page_last
_citation_journal_id_ASTM
primary 'Journal of Chemical Crystallography' 2013 43 96 102 JCCYEV
loop_
_publ_author_name
'Heyward, Carla'
'McMillen, Colin D.'
'Kolis, Joseph W.'
_cell_length_a 14.679(2)
_cell_length_b 14.679(2)
_cell_length_c 6.532(1)
_cell_angle_alpha 90.
_cell_angle_beta 90.
_cell_angle_gamma 120.
_cell_volume 1218.9
_cell_formula_units_Z 3
_symmetry_space_group_name_H-M 'R -3 H'
_symmetry_Int_Tables_number 148
_refine_ls_R_factor_all 0.0289
loop_
_symmetry_equiv_pos_site_id
_symmetry_equiv_pos_as_xyz
1 'x-y, x, -z'
2 'y, -x+y, -z'
3 '-x, -y, -z'
4 '-x+y, -x, z'
5 '-y, x-y, z'
6 'x, y, z'
7 'x-y+2/3, x+1/3, -z+1/3'
8 'y+2/3, -x+y+1/3, -z+1/3'
9 '-x+2/3, -y+1/3, -z+1/3'
10 '-x+y+2/3, -x+1/3, z+1/3'
11 '-y+2/3, x-y+1/3, z+1/3'
12 'x+2/3, y+1/3, z+1/3'
13 'x-y+1/3, x+2/3, -z+2/3'
14 'y+1/3, -x+y+2/3, -z+2/3'
15 '-x+1/3, -y+2/3, -z+2/3'
16 '-x+y+1/3, -x+2/3, z+2/3'
17 '-y+1/3, x-y+2/3, z+2/3'
18 'x+1/3, y+2/3, z+2/3'
loop_
_atom_type_symbol
_atom_type_oxidation_number
Sr2+ 2
Fe3+ 3
O2- -2
B3+ 3
Li1+ 1
Fe3+ 3
loop_
_atom_site_label
_atom_site_type_symbol
_atom_site_symmetry_multiplicity
_atom_site_Wyckoff_symbol
_atom_site_fract_x
_atom_site_fract_y
_atom_site_fract_z
_atom_site_B_iso_or_equiv
_atom_site_occupancy
_atom_site_attached_hydrogens
Sr1 Sr2+ 3 b 0. 1. 0.5 0.0246(2) 1 0
Fe1 Fe3+ 3 a 0. 1. 0. 0.0096(3) 1 0
O1 O2- 18 f 0.12490(13) 1.03921(13) 0.8203(2) 0.0130(4) 1 0
O2 O2- 18 f 0.28358(13) 1.18979(13) 0.9428(3) 0.0151(4) 1 0
O3 O2- 18 f 0.29630(13) 1.00139(13) 0.6335(3) 0.0125(4) 1 0
O4 O2- 18 f 0.18781(13) 1.20061(13) 0.6533(3) 0.0148(4) 1 0
B1 B3+ 18 f 0.3898(2) 1.0301(2) 0.7523(4) 0.0130(6) 1 0
B2 B3+ 18 f 0.2011(2) 1.1424(2) 0.8073(4) 0.0125(5) 1 0
Li1 Li1+ 18 f 0.16156(16) 0.92406(16) 0.7471(3) 0.0145(5) 0.92 0
Fe2 Fe3+ 18 f 0.16156(16) 0.92406(16) 0.7471(3) 0.0145(5) 0.08 0
loop_
_atom_site_aniso_label
_atom_site_aniso_type_symbol
_atom_site_aniso_U_11
_atom_site_aniso_U_22
_atom_site_aniso_U_33
_atom_site_aniso_U_12
_atom_site_aniso_U_13
_atom_site_aniso_U_23
Sr1 Sr2+ 0.0321(3) 0.0321(3) 0.0096(4) 0.01606(15) 0. 0.
Fe1 Fe3+ 0.0098(3) 0.0098(3) 0.0090(4) 0.00491(15) 0. 0.
O1 O2- 0.0119(7) 0.0119(8) 0.0146(8) 0.0055(7) 0.0032(6) 0.0017(6)
O2 O2- 0.0135(8) 0.0158(8) 0.0134(8) 0.0055(7) 0.0000(6) 0.0023(6)
O3 O2- 0.0127(8) 0.0146(8) 0.0096(9) 0.0063(7) 0.0002(6) 0.0002(6)
O4 O2- 0.0119(8) 0.0134(8) 0.0150(9) 0.0033(7) -0.0012(6) 0.0030(6)
B1 B3+ 0.0118(12) 0.0127(12) 0.0107(13) 0.0033(10) 0.0015(9) 0.0024(9)
B2 B3+ 0.0136(12) 0.0145(12) 0.0113(12) 0.0084(10) 0.0004(10) -0.0005(10)
Li1 Li1+ 0.0072(9) 0.0143(10) 0.0195(11) 0.0035(8) 0.0028(8) 0.0046(8)
Fe2 Fe3+ 0.0072(9) 0.0143(10) 0.0195(11) 0.0035(8) 0.0028(8) 0.0046(8)
#End of TTdata_424697-ICSD