
#(C) 2018 by FIZ Karlsruhe - Leibniz Institute for Information Infrastructure.  All rights reserved.
data_425559-ICSD
_database_code_ICSD 425559
_audit_creation_date 2014-02-01
_chemical_name_systematic 'Lithium europium borate (6/0.966/3)'
_chemical_formula_structural 'Li6 Eu0.966 (B O3)3'
_chemical_formula_sum 'B3 Eu0.966 Li6 O9'
_chemical_name_structure_type Li6HoB3O9
_exptl_crystal_density_diffrn 3.11
_cell_measurement_temperature 473.
_publ_section_title

;
Growth and spectroscopic properties of (6)Li- and (10)B-enriched crystals for
heat-scintillation cryogenic bolometers used in the rare events searches
;
loop_
_citation_id
_citation_journal_full
_citation_year
_citation_journal_volume
_citation_page_first
_citation_page_last
_citation_journal_id_ASTM
primary CrystEngComm 2013 15 3785 3792 CRECF4
loop_
_publ_author_name
'Rekia Belhoucif'
'Matias Velazquez'
'Yannick Petit'
'Olivier Perez'
'BenoÅ’t Glorieux'
'Oudomsack Viraphong'
'Pierre de Marcillac'
'Noâ€°l Coron'
'Lidia Torres'
'Emmanuel Veron'
'AbdelHamid Kellou'
'Philippe Veber'
'Rodolphe Decourt'
'Hassan El Hafid'
_cell_length_a 7.2486(6)
_cell_length_b 16.5836(17)
_cell_length_c 6.7258(7)
_cell_angle_alpha 90
_cell_angle_beta 105.431(3)
_cell_angle_gamma 90
_cell_volume 779.35
_cell_formula_units_Z 4
_symmetry_space_group_name_H-M 'P 1 21/c 1'
_symmetry_Int_Tables_number 14
_refine_ls_R_factor_all 0.0157
loop_
_symmetry_equiv_pos_site_id
_symmetry_equiv_pos_as_xyz
1 'x, -y+1/2, z+1/2'
2 '-x, -y, -z'
3 '-x, y+1/2, -z+1/2'
4 'x, y, z'
loop_
_atom_type_symbol
_atom_type_oxidation_number
Eu3+ 3
O2- -2
B3+ 3
Li1+ 1
loop_
_atom_site_label
_atom_site_type_symbol
_atom_site_symmetry_multiplicity
_atom_site_Wyckoff_symbol
_atom_site_fract_x
_atom_site_fract_y
_atom_site_fract_z
_atom_site_B_iso_or_equiv
_atom_site_occupancy
_atom_site_attached_hydrogens
Eu1 Eu3+ 4 e 0.57956(2) 0.310256(10) 0.15404(2) 0.00898(7) 0.9657 0
O1 O2- 4 e 0.7781(3) 0.43225(15) 0.2321(4) 0.0160(8) 1 0
O2 O2- 4 e 0.9240(4) 0.30427(15) 0.2783(5) 0.0187(9) 1 0
O3 O2- 4 e 0.2366(3) 0.29956(15) 0.0511(4) 0.0168(8) 1 0
O4 O2- 4 e 0.3757(3) 0.42737(16) 0.0430(4) 0.0208(8) 1 0
O5 O2- 4 e 0.6510(4) 0.31669(14) -0.1666(4) 0.0147(8) 1 0
O6 O2- 4 e 0.5044(4) 0.32579(16) 0.4759(4) 0.0166(8) 1 0
O7 O2- 4 e 0.0362(3) 0.41260(16) -0.0891(4) 0.0201(8) 1 0
O8 O2- 4 e 1.1057(3) 0.42296(17) 0.4232(4) 0.0196(8) 1 0
O9 O2- 4 e 0.5829(3) 0.44668(18) -0.3262(4) 0.0191(9) 1 0
B1 B3+ 4 e 0.9409(5) 0.3863(3) 0.3143(6) 0.0135(12) 1 0
B2 B3+ 4 e 0.2116(5) 0.3808(3) -0.0018(6) 0.0143(12) 1 0
B3 B3+ 4 e 0.5815(5) 0.3654(3) -0.3394(5) 0.0124(12) 1 0
Li1 Li1+ 4 e 0.0431(10) 0.4697(5) -0.3306(11) 0.0298(15) 1 0
Li2 Li1+ 4 e -0.1921(10) 0.4637(5) -0.0559(11) 0.0295(15) 1 0
Li3 Li1+ 4 e 0.9422(11) 0.2048(5) 0.4508(12) 0.0285(15) 1 0
Li4 Li1+ 4 e 1.3581(10) 0.4497(5) 0.4135(11) 0.0288(15) 1 0
Li5 Li1+ 4 e 0.5738(9) 0.5036(5) 0.1764(10) 0.0235(14) 1 0
Li6 Li1+ 4 e 0.2128(10) 0.2045(5) -0.1279(12) 0.0270(15) 1 0
loop_
_atom_site_aniso_label
_atom_site_aniso_type_symbol
_atom_site_aniso_U_11
_atom_site_aniso_U_22
_atom_site_aniso_U_33
_atom_site_aniso_U_12
_atom_site_aniso_U_13
_atom_site_aniso_U_23
Eu1 Eu3+ 0.00966(10) 0.00836(13) 0.00895(11) 0.00012(6) 0.00251(7) 0.00027(5)
O1 O2- 0.0140(10) 0.0111(13) 0.0218(12) -0.0006(9) 0.0028(9) 0.0014(9)
O2 O2- 0.0152(12) 0.0135(15) 0.0251(14) -0.0001(9) 0.0014(10) 0.0015(10)
O3 O2- 0.0130(11) 0.0121(14) 0.0233(14) -0.0002(9) 0.0015(10) -0.0002(9)
O4 O2- 0.0146(11) 0.0128(14) 0.0332(15) -0.0017(10) 0.0032(10) 0.0026(11)
O5 O2- 0.0177(11) 0.0144(14) 0.0108(12) 0.0018(9) 0.0018(9) 0.0016(8)
O6 O2- 0.0186(12) 0.0186(14) 0.0123(12) -0.0014(9) 0.0037(10) -0.0018(9)
O7 O2- 0.0123(11) 0.0236(16) 0.0241(14) 0.0036(10) 0.0046(10) 0.0061(10)
O8 O2- 0.0146(11) 0.0212(15) 0.0213(13) -0.0026(10) 0.0019(10) -0.0042(10)
O9 O2- 0.0246(13) 0.0122(15) 0.0209(14) 0.0006(9) 0.0066(11) 0.0007(9)
B1 B3+ 0.0149(16) 0.014(2) 0.0125(18) 0.0009(13) 0.0045(14) 0.0009(13)
B2 B3+ 0.0165(17) 0.013(2) 0.0137(19) -0.0005(13) 0.0049(14) -0.0014(13)
B3 B3+ 0.0118(15) 0.013(2) 0.0124(18) 0.0015(13) 0.0036(14) 0.0010(13)
#End of TTdata_425559-ICSD