
#(C) 2018 by FIZ Karlsruhe - Leibniz Institute for Information Infrastructure.  All rights reserved.
data_426208-ICSD
_database_code_ICSD 426208
_audit_creation_date 2015-02-01
_chemical_name_systematic 'Trilithium tetrathioarsenate octahydrate'
_chemical_formula_structural 'Li3 (As S4) (H2 O)8'
_chemical_formula_sum 'H16 As1 Li3 O8 S4'
_exptl_crystal_density_diffrn 1.81
_cell_measurement_temperature 123.
_publ_section_title 'Private communication'
loop_
_citation_id
_citation_journal_full
_citation_year
_citation_journal_volume
_citation_page_first
_citation_page_last
_citation_journal_id_ASTM
primary 'Private Communication' 2013 2013 1 1 PRICO6
loop_
_publ_author_name
'Kars, Mohammed'
'Petrosyants, Svetlana'
_cell_length_a 9.964(2)
_cell_length_b 9.987(2)
_cell_length_c 14.191(3)
_cell_angle_alpha 90.
_cell_angle_beta 107.080(10)
_cell_angle_gamma 90.
_cell_volume 1349.87
_cell_formula_units_Z 4
_symmetry_space_group_name_H-M 'P 1 2/c 1'
_symmetry_Int_Tables_number 13
_refine_ls_R_factor_all 0.0237
loop_
_symmetry_equiv_pos_site_id
_symmetry_equiv_pos_as_xyz
1 'x, -y, z+1/2'
2 '-x, -y, -z'
3 '-x, y, -z+1/2'
4 'x, y, z'
loop_
_atom_type_symbol
_atom_type_oxidation_number
Li1+ 1
As5+ 5
S2- -2
O2- -2
H1+ 1
O2- -2
H1+ 1
O2- -2
H1+ 1
O2- -2
H1+ 1
O2- -2
H1+ 1
O2- -2
H1+ 1
O2- -2
H1+ 1
O2- -2
H1+ 1
loop_
_atom_site_label
_atom_site_type_symbol
_atom_site_symmetry_multiplicity
_atom_site_Wyckoff_symbol
_atom_site_fract_x
_atom_site_fract_y
_atom_site_fract_z
_atom_site_B_iso_or_equiv
_atom_site_occupancy
_atom_site_attached_hydrogens
Li1 Li1+ 2 b 0.5 0.5 0.5 0.0157(8) 1 0
Li2 Li1+ 4 g 0.2811(3) 0.7222(3) 0.5100(2) 0.0174(6) 1 0
Li3 Li1+ 2 f 0.5 0.5994(4) 0.75 0.0157(8) 1 0
Li4 Li1+ 4 g 0.0725(3) 0.8818(3) 0.4147(2) 0.0191(6) 1 0
As1 As5+ 2 e 0. 0.403780(19) 0.25 0.00714(6) 1 0
As2 As5+ 2 f 0.5 0.914302(19) 0.25 0.00714(6) 1 0
S1 S2- 4 g -0.12736(3) 0.53414(3) 0.31163(3) 0.00961(8) 1 0
S2 S2- 4 g 0.13604(4) 0.27873(3) 0.36087(3) 0.01053(8) 1 0
S3 S2- 4 g 0.37006(4) 1.03976(3) 0.31276(3) 0.00979(8) 1 0
S4 S2- 4 g 0.64361(4) 0.79025(3) 0.35843(3) 0.01061(8) 1 0
O1 O2- 4 g 0.55747(11) 0.47228(10) 0.65937(8) 0.0117(2) 1 0
H1 H1+ 4 g 0.6386 0.4571 0.6861 0.031(4) 1 0
H2 H1+ 4 g 0.5173 0.4045 0.6644 0.031(4) 1 0
O2 O2- 4 g 0.28876(11) 0.51125(11) 0.50200(8) 0.0125(2) 1 0
H3 H1+ 4 g 0.2667 0.4962 0.5508 0.035(5) 1 0
H4 H1+ 4 g 0.2453 0.4585 0.4622 0.035(5) 1 0
O3 O2- 4 g 0.48739(11) 0.72263(11) 0.51826(8) 0.0131(2) 1 0
H5 H1+ 4 g 0.5258 0.7655 0.5662 0.034(4) 1 0
H6 H1+ 4 g 0.5224 0.7468 0.4771 0.034(4) 1 0
O4 O2- 4 g 0.33682(11) 0.70487(10) 0.67132(8) 0.0119(2) 1 0
H7 H1+ 4 g 0.2694 0.6666 0.6776 0.025(4) 1 0
H8 H1+ 4 g 0.3394 0.7742 0.7001 0.025(4) 1 0
O5 O2- 4 g 0.05505(11) 0.72234(11) 0.48815(8) 0.0129(2) 1 0
H9 H1+ 4 g 0.019 0.6663 0.4485 0.034(5) 1 0
H10 H1+ 4 g 0.01 0.7232 0.5264 0.034(5) 1 0
O6 O2- 4 g 0.25547(12) 0.94554(12) 0.50037(9) 0.0167(2) 1 0
H11 H1+ 4 g 0.3003 0.9681 0.4647 0.048(5) 1 0
H12 H1+ 4 g 0.2673 1.0036 0.5408 0.048(5) 1 0
O7 O2- 4 g 0.18846(12) 0.77512(11) 0.34655(9) 0.0166(2) 1 0
H13 H1+ 4 g 0.1614 0.7175 0.3063 0.026(4) 1 0
H14 H1+ 4 g 0.2365 0.8224 0.3244 0.026(4) 1 0
O8 O2- 4 g -0.05771(12) 1.01729(11) 0.35819(10) 0.0194(3) 1 0
H15 H1+ 4 g -0.0189 1.0835 0.3481 0.039(5) 1 0
H16 H1+ 4 g -0.1322 1.0175 0.3168 0.039(5) 1 0
loop_
_atom_site_aniso_label
_atom_site_aniso_type_symbol
_atom_site_aniso_U_11
_atom_site_aniso_U_22
_atom_site_aniso_U_33
_atom_site_aniso_U_12
_atom_site_aniso_U_13
_atom_site_aniso_U_23
Li1 Li1+ 0.0152(17) 0.0173(17) 0.0146(19) -0.0014(14) 0.0046(15) 0.0022(15)
Li2 Li1+ 0.0159(12) 0.0161(12) 0.0194(14) 0.0019(10) 0.0041(11) 0.0006(11)
Li3 Li1+ 0.0176(19) 0.0159(18) 0.0126(19) 0. 0.0026(15) 0.
Li4 Li1+ 0.0183(13) 0.0171(12) 0.0220(15) 0.0032(11) 0.0060(12) 0.0042(12)
As1 As5+ 0.00707(10) 0.00748(10) 0.00678(11) 0. 0.00190(8) 0.
As2 As5+ 0.00803(10) 0.00703(9) 0.00672(11) 0. 0.00272(8) 0.
S1 S2- 0.00956(16) 0.00995(15) 0.00986(17) 0.00061(12) 0.00371(13) -0.00084(13)
S2 S2- 0.01031(15) 0.01008(15) 0.01009(18) 0.00156(12) 0.00129(13) 0.00135(13)
S3 S2- 0.01069(16) 0.00977(15) 0.01003(18) 0.00021(12) 0.00480(14) -0.00099(13)
S4 S2- 0.01106(16) 0.01026(15) 0.01008(18) 0.00154(13) 0.00242(14) 0.00207(13)
O1 O2- 0.0105(5) 0.0125(5) 0.0108(5) -0.0004(4) 0.0013(4) 0.0006(4)
O2 O2- 0.0144(5) 0.0132(5) 0.0094(5) -0.0029(4) 0.0027(4) -0.0019(4)
O3 O2- 0.0137(5) 0.0166(5) 0.0094(5) -0.0037(4) 0.0039(4) -0.0017(4)
O4 O2- 0.0130(5) 0.0106(5) 0.0129(5) -0.0007(4) 0.0052(4) -0.0019(4)
O5 O2- 0.0144(5) 0.0145(5) 0.0110(5) -0.0019(4) 0.0056(4) -0.0020(4)
O6 O2- 0.0199(6) 0.0162(5) 0.0139(6) -0.0018(5) 0.0047(5) -0.0034(5)
O7 O2- 0.0213(6) 0.0143(5) 0.0175(6) -0.0064(5) 0.0110(5) -0.0043(5)
O8 O2- 0.0142(5) 0.0142(5) 0.0262(7) -0.0003(4) 0.0002(5) 0.0042(5)
#End of TTdata_426208-ICSD