
#(C) 2017 by FIZ Karlsruhe - Leibniz Institute for Information Infrastructure.  All rights reserved.
data_426212-ICSD
_database_code_ICSD 426212
_audit_creation_date 2014-08-01
_chemical_name_systematic 'Lithium cerium(IV) fluoride'
_chemical_formula_structural 'Li Ce F5'
_chemical_formula_sum 'Ce1 F5 Li1'
_exptl_crystal_density_diffrn 4.72
_cell_measurement_temperature 293.
_cell_measurement_pressure 2310000.
_publ_section_title

;
Crystal structures and stability of Li Ce F5 and Li Th F5 at high pressures: A
comparative study of the coordination around the Ce(4+) and Th(4+) ions
;
loop_
_citation_id
_citation_journal_full
_citation_year
_citation_journal_volume
_citation_page_first
_citation_page_last
_citation_journal_id_ASTM
primary 'Journal of Fluorine Chemistry' 2013 156 124 129 JFLCAR
loop_
_publ_author_name
'Grzechnik, Andrzej'
'Underwood, Christopher C.'
'Kolis, Joseph W.'
'Friese, Karen'
_cell_length_a 14.5439(10)
_cell_length_b 14.5439(10)
_cell_length_c 6.4459(4)
_cell_angle_alpha 90
_cell_angle_beta 90
_cell_angle_gamma 90
_cell_volume 1363.46
_cell_formula_units_Z 16
_symmetry_space_group_name_H-M 'I 41/a S'
_symmetry_Int_Tables_number 88
_refine_ls_R_factor_all 0.0523
loop_
_symmetry_equiv_pos_site_id
_symmetry_equiv_pos_as_xyz
1 'y, -x+1/2, z+1/4'
2 '-y, x+1/2, z+1/4'
3 'y, -x, -z'
4 '-y, x, -z'
5 '-x, -y+1/2, -z+1/4'
6 'x, y+1/2, -z+1/4'
7 '-x, -y, z'
8 'x, y, z'
9 'y+1/2, -x, z+3/4'
10 '-y+1/2, x, z+3/4'
11 'y+1/2, -x+1/2, -z+1/2'
12 '-y+1/2, x+1/2, -z+1/2'
13 '-x+1/2, -y, -z+3/4'
14 'x+1/2, y, -z+3/4'
15 '-x+1/2, -y+1/2, z+1/2'
16 'x+1/2, y+1/2, z+1/2'
loop_
_atom_type_symbol
_atom_type_oxidation_number
Ce4+ 4
F1- -1
Li1+ 1
loop_
_atom_site_label
_atom_site_type_symbol
_atom_site_symmetry_multiplicity
_atom_site_Wyckoff_symbol
_atom_site_fract_x
_atom_site_fract_y
_atom_site_fract_z
_atom_site_B_iso_or_equiv
_atom_site_occupancy
_atom_site_attached_hydrogens
Ce1 Ce4+ 16 f 0.19431(18) 0.0627(2) 0.1208(4) 0.0103(8) 1 0
F1 F1- 16 f 0.2898(18) 0.0769(18) 0.395(4) 0.034(7) 1 0
F2 F1- 16 f 0.294(2) 0.159(2) -0.027(4) 0.040(8) 1 0
F3 F1- 16 f 0.0817(15) 0.0504(15) 0.352(3) 0.013(5) 1 0
F4 F1- 16 f 0.3016(17) -0.0390(16) 0.002(3) 0.017(6) 1 0
F5 F1- 16 f 0.0637(16) 0.1094(17) -0.045(3) 0.012(5) 1 0
Li1 Li1+ 16 f 0.415(6) -0.071(5) 0.094(11) 0.0285 1 0
#End of TTdata_426212-ICSD