
#(C) 2018 by FIZ Karlsruhe - Leibniz Institute for Information Infrastructure.  All rights reserved.
data_427088-ICSD
_database_code_ICSD 427088
_audit_creation_date 2016-08-01
_chemical_name_systematic 'Lithium zinc oxide (0.22/0.89/1)'
_chemical_formula_structural 'Li0.22 Zn0.89 O'
_chemical_formula_sum 'Li0.22 O1 Zn0.89'
_exptl_crystal_density_diffrn 5.26
_cell_measurement_temperature 293.
_publ_section_title

;
Structural and thermal characterization of the incorporation of lithium into
ZnO
;
loop_
_citation_id
_citation_journal_full
_citation_year
_citation_journal_volume
_citation_page_first
_citation_page_last
_citation_journal_id_ASTM
primary 'European Journal of Inorganic Chemistry' 2014 2014 925 931 EJICFO
loop_
_publ_author_name
'Pavlyuk, Volodymyr'
'Misztal, Renata'
'Ciesielski, Wojciech'
_cell_length_a 3.2549(5)
_cell_length_b 3.2549(5)
_cell_length_c 5.2073(8)
_cell_angle_alpha 90.
_cell_angle_beta 90.
_cell_angle_gamma 120.
_cell_volume 47.77
_cell_formula_units_Z 2
_symmetry_space_group_name_H-M 'P 63 m c'
_symmetry_Int_Tables_number 186
_refine_ls_R_factor_all 0.0423
loop_
_symmetry_equiv_pos_site_id
_symmetry_equiv_pos_as_xyz
1 '-x, -x+y, z+1/2'
2 'x-y, -y, z+1/2'
3 'y, x, z+1/2'
4 'x-y, x, z+1/2'
5 'y, -x+y, z+1/2'
6 '-x, -y, z+1/2'
7 'x, x-y, z'
8 '-x+y, y, z'
9 '-y, -x, z'
10 '-x+y, -x, z'
11 '-y, x-y, z'
12 'x, y, z'
loop_
_atom_type_symbol
_atom_type_oxidation_number
O2- -2
Zn2+ 2
Li1+ 1
loop_
_atom_site_label
_atom_site_type_symbol
_atom_site_symmetry_multiplicity
_atom_site_Wyckoff_symbol
_atom_site_fract_x
_atom_site_fract_y
_atom_site_fract_z
_atom_site_B_iso_or_equiv
_atom_site_occupancy
_atom_site_attached_hydrogens
O1 O2- 2 b 0.3333 0.6667 0. 0.043(4) 1 0
Zn1 Zn2+ 2 b 0.3333 0.6667 0.379(3) 0.0504(9) 0.89 0
Li1 Li1+ 2 b 0.3333 0.6667 0.379(3) 0.0504(9) 0.11 0
Li2 Li1+ 2 a 0. 0. 0.1248 0.125 0.11 0
loop_
_atom_site_aniso_label
_atom_site_aniso_type_symbol
_atom_site_aniso_U_11
_atom_site_aniso_U_22
_atom_site_aniso_U_33
_atom_site_aniso_U_12
_atom_site_aniso_U_13
_atom_site_aniso_U_23
O1 O2- 0.040(5) 0.040(5) 0.048(7) 0.020(3) 0. 0.
#End of TTdata_427088-ICSD