
#(C) 2018 by FIZ Karlsruhe - Leibniz Institute for Information Infrastructure.  All rights reserved.
data_427081-ICSD
_database_code_ICSD 427081
_audit_creation_date 2016-02-01
_chemical_name_systematic 'Lithium tetraamidogallate'
_chemical_formula_structural 'Li (Ga (N H2)4)'
_chemical_formula_sum 'H8 Ga1 Li1 N4'
_exptl_crystal_density_diffrn 1.85
_cell_measurement_temperature 293.
_publ_section_title

;
Novel alkali metal amidogallates as intermediates in ammonothermal Ga N
crystal growth
;
loop_
_citation_id
_citation_journal_full
_citation_year
_citation_journal_volume
_citation_page_first
_citation_page_last
_citation_journal_id_ASTM
primary 'Journal of Crystal Growth' 2014 403 22 28 JCRGAE
loop_
_publ_author_name
'Zhang, Shiyu'
'Alt, Nicolas S.A.'
'Schluecker, Eberhard'
'Niewa, Rainer'
_cell_length_a 5.8493(12)
_cell_length_b 12.640(3)
_cell_length_c 6.8579(14)
_cell_angle_alpha 90.
_cell_angle_beta 92.56(3)
_cell_angle_gamma 90.
_cell_volume 506.53
_cell_formula_units_Z 4
_symmetry_space_group_name_H-M 'P 1 21/n 1'
_symmetry_Int_Tables_number 14
_refine_ls_R_factor_all 0.0218
loop_
_symmetry_equiv_pos_site_id
_symmetry_equiv_pos_as_xyz
1 '-x+1/2, y+1/2, -z+1/2'
2 '-x, -y, -z'
3 'x+1/2, -y+1/2, z+1/2'
4 'x, y, z'
loop_
_atom_type_symbol
_atom_type_oxidation_number
Ga3+ 3
N3- -3
H1+ 1
N3- -3
H1+ 1
N3- -3
H1+ 1
N3- -3
H1+ 1
Li1+ 1
loop_
_atom_site_label
_atom_site_type_symbol
_atom_site_symmetry_multiplicity
_atom_site_Wyckoff_symbol
_atom_site_fract_x
_atom_site_fract_y
_atom_site_fract_z
_atom_site_B_iso_or_equiv
_atom_site_occupancy
_atom_site_attached_hydrogens
Ga1 Ga3+ 4 e 0.14852(5) 0.33480(3) 0.46190(4) 0.02494(12) 1 0
N1 N3- 4 e 0.8198(4) 0.3281(2) 0.4497(4) 0.0300(6) 1 0
H1 H1+ 4 e 0.775(6) 0.327(2) 0.323(5) 0.045 1 0
H2 H1+ 4 e 0.761(6) 0.376(3) 0.498(5) 0.045 1 0
N2 N3- 4 e 0.2410(4) 0.4062(2) 0.2299(3) 0.0314(6) 1 0
H3 H1+ 4 e 0.173(5) 0.464(3) 0.216(5) 0.047 1 0
H4 H1+ 4 e 0.367(6) 0.417(3) 0.236(5) 0.047 1 0
N3 N3- 4 e 0.2906(4) 0.1993(2) 0.4437(4) 0.0303(6) 1 0
H5 H1+ 4 e 0.214(6) 0.152(3) 0.493(5) 0.045 1 0
H6 H1+ 4 e 0.290(6) 0.188(3) 0.341(5) 0.045 1 0
N4 N3- 4 e 0.2400(4) 0.3918(2) 0.7119(4) 0.0312(6) 1 0
H7 H1+ 4 e 0.213(6) 0.451(3) 0.724(5) 0.047 1 0
H8 H1+ 4 e 0.371(6) 0.390(3) 0.730(5) 0.047 1 0
Li1 Li1+ 4 e 0.1472(7) 0.3200(4) 0.9780(6) 0.0304(11) 1 0
loop_
_atom_site_aniso_label
_atom_site_aniso_type_symbol
_atom_site_aniso_U_11
_atom_site_aniso_U_22
_atom_site_aniso_U_33
_atom_site_aniso_U_12
_atom_site_aniso_U_13
_atom_site_aniso_U_23
Ga1 Ga3+ 0.02204(18) 0.0323(2) 0.02047(17) -0.00126(14) 0.00142(12) 0.00036(14)
N1 N3- 0.0212(12) 0.0420(17) 0.0268(13) 0.0011(11) -0.0003(10) -0.0020(13)
N2 N3- 0.0284(13) 0.0393(17) 0.0267(13) -0.0043(12) 0.0027(12) 0.0029(12)
N3 N3- 0.0278(14) 0.0378(17) 0.0254(13) 0.0024(11) 0.0035(11) -0.0006(12)
N4 N3- 0.0303(13) 0.0380(17) 0.0252(12) 0.0009(13) -0.0012(11) -0.0015(12)
Li1 Li1+ 0.027(2) 0.034(3) 0.031(3) 0.002(2) 0.003(2) 0.003(2)
#End of TTdata_427081-ICSD