
#(C) 2018 by FIZ Karlsruhe - Leibniz Institute for Information Infrastructure.  All rights reserved.
data_427287-ICSD
_database_code_ICSD 427287
_audit_creation_date 2016-02-01
_chemical_name_systematic 'Lithium beryllium trioxoborate'
_chemical_formula_structural 'Li Be (B O3)'
_chemical_formula_sum 'B1 Be1 Li1 O3'
_exptl_crystal_density_diffrn 2.44
_publ_section_title

;
Area negative thermal expansion in a beryllium borate Li Be B O3 with edge
sharing tetrahedra
;
loop_
_citation_id
_citation_journal_full
_citation_year
_citation_journal_volume
_citation_page_first
_citation_page_last
_citation_journal_id_ASTM
primary 'Chemical Communications (Cambridge, United Kingdom)' 2014 50 13499
13501 CHCOFS
loop_
_publ_author_name
'Yao, Wenjiao'
'Jiang, Xingxing'
'Huang, Rongjin'
'Li, Wei'
'Huang, Chuanjun'
'Lin, Zheshuai'
'Li, Laifeng'
'Chen, Chuangtian'
_cell_length_a 4.6214(9)
_cell_length_b 4.6780(9)
_cell_length_c 5.8704(12)
_cell_angle_alpha 68.24(3)
_cell_angle_beta 72.03(3)
_cell_angle_gamma 61.08(3)
_cell_volume 101.85
_cell_formula_units_Z 2
_symmetry_space_group_name_H-M 'P -1'
_symmetry_Int_Tables_number 2
_refine_ls_R_factor_all 0.033
loop_
_symmetry_equiv_pos_site_id
_symmetry_equiv_pos_as_xyz
1 '-x, -y, -z'
2 'x, y, z'
loop_
_atom_type_symbol
_atom_type_oxidation_number
B3+ 3
Be2+ 2
Li1+ 1
O2- -2
loop_
_atom_site_label
_atom_site_type_symbol
_atom_site_symmetry_multiplicity
_atom_site_Wyckoff_symbol
_atom_site_fract_x
_atom_site_fract_y
_atom_site_fract_z
_atom_site_B_iso_or_equiv
_atom_site_occupancy
_atom_site_attached_hydrogens
B1 B3+ 2 i 0.9294(2) 0.5980(2) 0.2311(2) 0.00622(16) 1. 0
Be1 Be2+ 2 i 0.6423(3) 1.2723(3) 0.1575(2) 0.00731(19) 1. 0
Li1 Li1+ 2 i 0.2569(4) 0.8710(4) 0.3371(3) 0.0102(3) 1. 0
O1 O2- 2 i 0.6699(1) 0.9013(1) 0.2404(1) 0.00752(14) 1. 0
O2 O2- 2 i 0.8757(1) 0.3108(1) 0.2919(1) 0.00668(14) 1. 0
O3 O2- 2 i 1.2569(1) 0.5773(1) 0.1604(1) 0.00651(14) 1. 0
loop_
_atom_site_aniso_label
_atom_site_aniso_type_symbol
_atom_site_aniso_U_11
_atom_site_aniso_U_22
_atom_site_aniso_U_33
_atom_site_aniso_U_12
_atom_site_aniso_U_13
_atom_site_aniso_U_23
B1 B3+ 0.0068(4) 0.0072(4) 0.0055(3) -0.0035(3) -0.0012(3) -0.0015(3)
Be1 Be2+ 0.0062(4) 0.0068(4) 0.0088(4) -0.0028(4) -0.0009(3) -0.0021(3)
Li1 Li1+ 0.0092(7) 0.0095(7) 0.0120(6) -0.0041(6) -0.0015(5) -0.0030(5)
O1 O2- 0.0062(3) 0.0060(3) 0.0101(3) -0.0027(2) -0.00091(19) -0.0022(2)
O2 O2- 0.0065(3) 0.0058(3) 0.0084(3) -0.0030(2) -0.00168(19) -0.00146(19)
O3 O2- 0.0050(3) 0.0068(3) 0.0076(2) -0.0026(2) -0.00069(18) -0.00170(19)
#End of TTdata_427287-ICSD