
#(C) 2018 by FIZ Karlsruhe - Leibniz Institute for Information Infrastructure.  All rights reserved.
data_427656-ICSD
_database_code_ICSD 427656
_audit_creation_date 2018-02-01
_chemical_name_systematic
'Lithium yttrium europium(III) yttrium(III) tetramolybdate(VI)'
_chemical_formula_structural 'Li3.50 Y1.35 Eu0.15 (Mo O4)4'
_chemical_formula_sum 'Eu0.15 Li3.5 Mo4 O16 Y1.35'
_chemical_name_structure_type Li7Ho3(MoO4)8
_exptl_crystal_density_diffrn 4.29
_cell_measurement_temperature 293.
_publ_section_title

;
Solid solution between lithium-rich yttrium and europium molybdate as new
efficient red-emitting phosphors
;
loop_
_citation_id
_citation_journal_full
_citation_year
_citation_journal_volume
_citation_page_first
_citation_page_last
_citation_journal_id_ASTM
primary

;
Journal of Materials Chemistry C: Materials for Optical and Electronic Devices
; 2016 4 596 602 JMCCCX
loop_
_publ_author_name
'Litterscheid, C.'
'Krueger, S.'
'Euler, M.'
'Dreizler, A.'
'Wickleder, C.'
'Albert, B.'
_cell_length_a 5.1944(2)
_cell_length_b 6.6500(2)
_cell_length_c 10.2825(4)
_cell_angle_alpha 100.086(3)
_cell_angle_beta 100.273(3)
_cell_angle_gamma 111.931(2)
_cell_volume 312.62
_cell_formula_units_Z 1
_symmetry_space_group_name_H-M 'P -1'
_symmetry_Int_Tables_number 2
_refine_ls_R_factor_all 0.0355
loop_
_symmetry_equiv_pos_site_id
_symmetry_equiv_pos_as_xyz
1 '-x, -y, -z'
2 'x, y, z'
loop_
_atom_type_symbol
_atom_type_oxidation_number
Li1+ 1
Y3+ 3
Eu3+ 3
Mo6+ 6
O2- -2
loop_
_atom_site_label
_atom_site_type_symbol
_atom_site_symmetry_multiplicity
_atom_site_Wyckoff_symbol
_atom_site_fract_x
_atom_site_fract_y
_atom_site_fract_z
_atom_site_B_iso_or_equiv
_atom_site_occupancy
_atom_site_attached_hydrogens
Li1 Li1+ 1 a 0 0 0 0.055(4) 1 0
Li2 Li1+ 2 i 0.842(3) 0.405(2) 0.1243(14) 0.050(3) 1 0
Li3 Li1+ 2 i 0.12138(9) 0.77258(7) 0.44004(4) 0.00833(12) 0.25 0
Y1 Y3+ 2 i 0.12138(9) 0.77258(7) 0.44004(4) 0.00833(12) 0.68 0
Eu1 Eu3+ 2 i 0.12138(9) 0.77258(7) 0.44004(4) 0.00833(12) 0.07 0
Mo1 Mo6+ 2 i 0.33622(7) 0.29991(5) 0.32023(3) 0.00956(12) 1 0
Mo2 Mo6+ 2 i 0.41688(7) 0.15396(6) 0.80032(3) 0.01136(13) 1 0
O1 O2- 2 i 0.1156(6) 0.1167(5) 0.4068(3) 0.0123(5) 1 0
O2 O2- 2 i 0.3017(6) 0.5640(5) 0.5712(3) 0.0152(6) 1 0
O3 O2- 2 i 0.3561(7) 0.1747(5) 0.1624(3) 0.0187(6) 1 0
O4 O2- 2 i 0.1984(7) 0.4993(5) 0.2938(3) 0.0148(6) 1 0
O5 O2- 2 i 0.2702(8) 0.6863(6) 0.0695(3) 0.0231(7) 1 0
O6 O2- 2 i 0.2268(7) 0.3241(5) 0.7725(3) 0.0188(6) 1 0
O7 O2- 2 i 0.8019(7) 0.0584(6) 0.1389(3) 0.0183(6) 1 0
O8 O2- 2 i 0.4854(6) 0.0427(5) 0.6414(3) 0.0155(6) 1 0
loop_
_atom_site_aniso_label
_atom_site_aniso_type_symbol
_atom_site_aniso_U_11
_atom_site_aniso_U_22
_atom_site_aniso_U_33
_atom_site_aniso_U_12
_atom_site_aniso_U_13
_atom_site_aniso_U_23
Li3 Li1+ 0.0088(2) 0.0071(2) 0.0097(2) 0.00359(17) 0.00319(15) 0.00211(16)
Y1 Y3+ 0.0088(2) 0.0071(2) 0.0097(2) 0.00359(17) 0.00319(15) 0.00211(16)
Eu1 Eu3+ 0.0088(2) 0.0071(2) 0.0097(2) 0.00359(17) 0.00319(15) 0.00211(16)
Mo1 Mo6+ 0.00886(18) 0.00936(18) 0.01106(18) 0.00365(13) 0.00355(12) 0.00359(12)
Mo2 Mo6+ 0.01222(19) 0.01321(19) 0.00962(18) 0.00631(14) 0.00366(12) 0.00235(12)
O1 O2- 0.0120(13) 0.0115(13) 0.0140(12) 0.0047(11) 0.0050(10) 0.0039(10)
O2 O2- 0.0138(14) 0.0126(13) 0.0168(13) 0.0032(11) 0.0038(11) 0.0037(11)
O3 O2- 0.0163(14) 0.0204(15) 0.0183(14) 0.0089(12) 0.0044(11) -0.0006(11)
O4 O2- 0.0204(15) 0.0120(13) 0.0159(13) 0.0097(12) 0.0080(11) 0.0032(10)
O5 O2- 0.0228(17) 0.0246(17) 0.0132(14) 0.0042(14) -0.0002(12) 0.0022(12)
O6 O2- 0.0217(16) 0.0158(14) 0.0210(15) 0.0106(13) 0.0073(12) 0.0023(12)
O7 O2- 0.0178(15) 0.0213(15) 0.0204(14) 0.0101(13) 0.0085(11) 0.0092(12)
O8 O2- 0.0148(14) 0.0135(13) 0.0167(13) 0.0046(11) 0.0068(11) 0.0012(11)
#End of TTdata_427656-ICSD