
#(C) 2018 by FIZ Karlsruhe - Leibniz Institute for Information Infrastructure.  All rights reserved.
data_427779-ICSD
_database_code_ICSD 427779
_audit_creation_date 2015-08-01
_chemical_name_systematic 'Barium lithium cadmium antimonide (4/2.17/2.83/6)'
_chemical_formula_structural 'Ba4 Li2.17 Cd2.83 Sb6'
_chemical_formula_sum 'Ba4 Cd2.83 Li2.17 Sb6'
_exptl_crystal_density_diffrn 5.7
_cell_measurement_temperature 200.
_publ_section_title

;
New lithium-containing pnictides with 1-d infinite chains of supertetrahedral
clusters: synthesis, crystal and electronic structure of Ba4 Li2 Cd3 Pn6 (Pn =
P, As and Sb)
;
loop_
_citation_id
_citation_journal_full
_citation_year
_citation_journal_volume
_citation_page_first
_citation_page_last
_citation_journal_id_ASTM
primary 'European Journal of Inorganic Chemistry' 2014 2014 5113 5124 EJICFO
loop_
_publ_author_name
'Makongo, Julien P.A.'
'You, Tae-Soo'
'He, Hua'
'Suen, Nian-Tzu'
'Bobev, Svilen'
_cell_length_a 4.8858(3)
_cell_length_b 21.4227(11)
_cell_length_c 17.9680(9)
_cell_angle_alpha 90.
_cell_angle_beta 90.
_cell_angle_gamma 90.
_cell_volume 1880.65
_cell_formula_units_Z 4
_symmetry_space_group_name_H-M 'C m c m'
_symmetry_Int_Tables_number 63
_refine_ls_R_factor_all 0.0164
loop_
_symmetry_equiv_pos_site_id
_symmetry_equiv_pos_as_xyz
1 '-x, y, -z+1/2'
2 '-x, -y, z+1/2'
3 '-x, y, z'
4 '-x, -y, -z'
5 'x, -y, z+1/2'
6 'x, y, -z+1/2'
7 'x, -y, -z'
8 'x, y, z'
9 '-x+1/2, y+1/2, -z+1/2'
10 '-x+1/2, -y+1/2, z+1/2'
11 '-x+1/2, y+1/2, z'
12 '-x+1/2, -y+1/2, -z'
13 'x+1/2, -y+1/2, z+1/2'
14 'x+1/2, y+1/2, -z+1/2'
15 'x+1/2, -y+1/2, -z'
16 'x+1/2, y+1/2, z'
loop_
_atom_type_symbol
_atom_type_oxidation_number
Ba2+ 2
Cd2+ 2
Li1+ 1
Cd2+ 2
Sb2- -2.64
Li1+ 1
loop_
_atom_site_label
_atom_site_type_symbol
_atom_site_symmetry_multiplicity
_atom_site_Wyckoff_symbol
_atom_site_fract_x
_atom_site_fract_y
_atom_site_fract_z
_atom_site_B_iso_or_equiv
_atom_site_occupancy
_atom_site_attached_hydrogens
Ba1 Ba2+ 8 f 0. 0.018641(14) 0.121471(16) 0.01227(8) 1 0
Ba2 Ba2+ 8 f 0. 0.175312(13) 0.569986(16) 0.01094(8) 1 0
Cd1 Cd2+ 8 f 0. 0.64742(2) 0.12057(2) 0.01346(14) 0.9124(19) 0
Li1 Li1+ 8 f 0. 0.64742(2) 0.12057(2) 0.01346(14) 0.0876(19) 0
Cd2 Cd2+ 4 c 0. 0.29757(3) 0.25 0.01742(13) 1 0
Sb1 Sb2- 8 f 0. 0.218428(16) 0.117798(17) 0.01013(8) 1 0
Sb2 Sb2- 8 f 0. 0.435035(15) 0.017024(19) 0.01119(8) 1 0
Sb3 Sb2- 4 c 0. 0.56753(2) 0.25 0.01050(10) 1 0
Sb4 Sb2- 4 c 0. 0.87963(2) 0.25 0.01086(11) 1 0
Li2 Li1+ 4 c 0. 0.1488(6) 0.25 0.019(3) 1 0
Li3 Li1+ 4 c 0. 0.4358(7) 0.25 0.02 1 0
loop_
_atom_site_aniso_label
_atom_site_aniso_type_symbol
_atom_site_aniso_U_11
_atom_site_aniso_U_22
_atom_site_aniso_U_33
_atom_site_aniso_U_12
_atom_site_aniso_U_13
_atom_site_aniso_U_23
Ba1 Ba2+ 0.01057(15) 0.01515(16) 0.01109(16) 0. 0. -0.00354(11)
Ba2 Ba2+ 0.01130(15) 0.00984(15) 0.01167(15) 0. 0. 0.00003(11)
Cd1 Cd2+ 0.0114(2) 0.0124(2) 0.0165(2) 0. 0. 0.00222(16)
Li1 Li1+ 0.0114(2) 0.0124(2) 0.0165(2) 0. 0. 0.00222(16)
Cd2 Cd2+ 0.0263(3) 0.0122(3) 0.0138(3) 0. 0. 0.
Sb1 Sb2- 0.00949(16) 0.01046(16) 0.01043(17) 0. 0. -0.00012(12)
Sb2 Sb2- 0.01037(16) 0.00902(16) 0.01418(17) 0. 0. 0.00090(13)
Sb3 Sb2- 0.0095(2) 0.0117(2) 0.0103(2) 0. 0. 0.
Sb4 Sb2- 0.0093(2) 0.0129(2) 0.0104(2) 0. 0. 0.
#End of TTdata_427779-ICSD