
#(C) 2018 by FIZ Karlsruhe - Leibniz Institute for Information Infrastructure.  All rights reserved.
data_428405-ICSD
_database_code_ICSD 428405
_audit_creation_date 2015-08-01
_chemical_name_systematic 'Trilithium diiron(III) tris(orthophosphate)'
_chemical_formula_structural 'Li3 Fe2 (P O4)3'
_chemical_formula_sum 'Fe2 Li3 O12 P3'
_chemical_name_structure_type Li3Fe2(PO4)3(P21/n)
_exptl_crystal_density_diffrn 3.13
_cell_measurement_temperature 298.15
_publ_section_title

;
Synthesis, crystal structure and electrochemical properties of Li Fe P O4 F
cathode material for Li-ion batteries
;
loop_
_citation_id
_citation_journal_full
_citation_year
_citation_journal_volume
_citation_page_first
_citation_page_last
_citation_journal_id_ASTM
primary 'Electrochimica Acta' 2014 147 663 668 ELCAAV
loop_
_publ_author_name
'Chen, D.'
'Shao, G.Q.'
'Li, B.'
'Zhao, G.G.'
'Li, J.'
'Liu, J.H.'
'Gao, Z.S.'
'Zhang, H.F.'
_cell_length_a 8.5595(16)
_cell_length_b 12.0212(19)
_cell_length_c 8.6196(16)
_cell_angle_alpha 90.
_cell_angle_beta 90.
_cell_angle_gamma 90.551(13)
_cell_volume 886.87
_cell_formula_units_Z 4
_symmetry_space_group_name_H-M 'P 1 1 21/n'
_symmetry_Int_Tables_number 14
_refine_ls_R_factor_all 0.0107
loop_
_symmetry_equiv_pos_site_id
_symmetry_equiv_pos_as_xyz
1 'x+1/2, y+1/2, -z+1/2'
2 '-x, -y, -z'
3 '-x+1/2, -y+1/2, z+1/2'
4 'x, y, z'
loop_
_atom_type_symbol
_atom_type_oxidation_number
Fe3+ 3
P5+ 5
O2- -2
Li1+ 1
loop_
_atom_site_label
_atom_site_type_symbol
_atom_site_symmetry_multiplicity
_atom_site_Wyckoff_symbol
_atom_site_fract_x
_atom_site_fract_y
_atom_site_fract_z
_atom_site_B_iso_or_equiv
_atom_site_occupancy
_atom_site_attached_hydrogens
Fe1 Fe3+ 4 e 0.255(4) 0.103(3) 0.452(2) 0.011(8) 1. 0
Fe2 Fe3+ 4 e 0.762(4) 0.390(3) 0.461(2) 0.011(8) 1. 0
P1 P5+ 4 e 0.081(20) 0.148(7) 0.165(10) 0.023(9) 1. 0
P2 P5+ 4 e 0.558(10) 0.352(7) 0.107(9) 0.023(9) 1. 0
P3 P5+ 4 e 0.019(10) 0.417(6) 0.204(9) 0.023(9) 1. 0
O1 O2- 4 e 0.469(7) 0.373(4) 0.077(5) 0.019(7) 1. 0
O2 O2- 4 e 0.967(7) 0.191(4) 0.097(5) 0.019(7) 1. 0
O3 O2- 4 e 0.392(7) 0.305(4) 0.466(5) 0.019(7) 1. 0
O4 O2- 4 e 0.848(7) 0.262(4) 0.482(5) 0.019(7) 1. 0
O5 O2- 4 e 0.211(7) 0.079(4) 0.042(5) 0.019(7) 1. 0
O6 O2- 4 e 0.688(7) 0.514(4) 0.076(5) 0.019(7) 1. 0
O7 O2- 4 e 0.491(7) 0.110(4) 0.353(5) 0.019(7) 1. 0
O8 O2- 4 e 0.968(7) 0.444(4) 0.299(5) 0.019(7) 1. 0
O9 O2- 4 e 0.213(7) 0.474(4) 0.153(5) 0.019(7) 1. 0
O10 O2- 4 e 0.643(7) 0.112(4) 0.115(5) 0.019(7) 1. 0
O11 O2- 4 e 0.203(7) 0.228(4) 0.250(5) 0.019(7) 1. 0
O12 O2- 4 e 0.681(7) 0.358(4) 0.267(5) 0.019(7) 1. 0
Li1 Li1+ 4 e 0.284(3) 0.326(2) 0.273(2) 0.024(9) 1. 0
Li2 Li1+ 4 e 0.566(3) 0.197(2) 0.418(2) 0.024(9) 1. 0
Li3 Li1+ 4 e 0.901(3) 0.245(2) 0.294(2) 0.024(9) 1. 0
#End of TTdata_428405-ICSD