
#(C) 2017 by FIZ Karlsruhe - Leibniz Institute for Information Infrastructure.  All rights reserved.
data_428537-ICSD
_database_code_ICSD 428537
_audit_creation_date 2015-08-01
_chemical_name_systematic 'Lithium potassium thulium pentafluoride'
_chemical_formula_structural 'Li K Tm F5'
_chemical_formula_sum 'F5 K1 Li1 Tm1'
_exptl_crystal_density_diffrn 5.38
_cell_measurement_temperature 293.
_cell_measurement_pressure 8580000.
_publ_section_title

;
Crystal structure and high-pressure stability of hydrothermally grown Li K Tm
F5
;
loop_
_citation_id
_citation_journal_full
_citation_year
_citation_journal_volume
_citation_page_first
_citation_page_last
_citation_journal_id_ASTM
primary 'Solid State Sciences' 2015 39 40 44 SSSCFJ
loop_
_publ_author_name
'Grzechnik, Andrzej'
'Comer, Sara'
'Kolis, Joseph W.'
'Friese, Karen'
_cell_length_a 6.1923(9)
_cell_length_b 11.163(3)
_cell_length_c 5.9900(9)
_cell_angle_alpha 90
_cell_angle_beta 112.377(11)
_cell_angle_gamma 90
_cell_volume 382.87
_cell_formula_units_Z 4
_symmetry_space_group_name_H-M 'P 1 21/c 1'
_symmetry_Int_Tables_number 14
_refine_ls_R_factor_all 0.0331
loop_
_symmetry_equiv_pos_site_id
_symmetry_equiv_pos_as_xyz
1 'x, -y+1/2, z+1/2'
2 '-x, -y, -z'
3 '-x, y+1/2, -z+1/2'
4 'x, y, z'
loop_
_atom_type_symbol
_atom_type_oxidation_number
Tm3+ 3
K1+ 1
F1- -1
Li1+ 1
loop_
_atom_site_label
_atom_site_type_symbol
_atom_site_symmetry_multiplicity
_atom_site_Wyckoff_symbol
_atom_site_fract_x
_atom_site_fract_y
_atom_site_fract_z
_atom_site_B_iso_or_equiv
_atom_site_occupancy
_atom_site_attached_hydrogens
Tm1 Tm3+ 4 e 0.68547(18) 0.0029(5) 0.32025(19) 0.0109(8) 1 0
K1 K1+ 4 e 1.0643(10) 0.1512(18) 0.0582(10) 0.013(2) 1 0
F1 F1- 4 e 0.669(2) 0.035(4) -0.052(3) 0.014(2) 1 0
F2 F1- 4 e 1.048(2) -0.021(5) 0.322(2) 0.014(2) 1 0
F3 F1- 4 e 0.746(3) 0.307(4) -0.212(3) 0.014(2) 1 0
F4 F1- 4 e 1.460(3) 0.110(3) 0.456(3) 0.014(2) 1 0
F5 F1- 4 e 1.295(3) 0.312(4) 0.297(3) 0.014(2) 1 0
Li1 Li1+ 4 e 0.584(9) 0.253(12) 0.465(9) 0.021 1 0
#End of TTdata_428537-ICSD