
#(C) 2018 by FIZ Karlsruhe - Leibniz Institute for Information Infrastructure.  All rights reserved.
data_429111-ICSD
_database_code_ICSD 429111
_audit_creation_date 2016-02-01
_chemical_name_systematic 'Lithium titanium disulfide - lithium deficient'
_chemical_formula_structural 'Li0.70 S2 Ti1'
_chemical_formula_sum 'Li0.7 S2 Ti1'
_chemical_name_structure_type Delafossite-NaCrS2
_exptl_crystal_density_diffrn 2.95
_cell_measurement_temperature 973.
_publ_section_title

;
Lithium diffusion pathways in 3R - Lix Ti S2: a combined neutron diffraction
and computational study
;
loop_
_citation_id
_citation_journal_full
_citation_year
_citation_journal_volume
_citation_page_first
_citation_page_last
_citation_journal_id_ASTM
primary 'Journal of Physical Chemistry C' 2015 119 11370 11381 JPCCCK
loop_
_publ_author_name
'Wiedemann, Dennis'
'Islam, Mazharul M.'
'Nakhal, Suliman'
'Senyshyn, Anatoliy'
'Bredow, Thomas'
'Lerch, Martin'
_cell_length_a 3.49658(8)
_cell_length_b 3.49658(8)
_cell_length_c 18.6529(7)
_cell_angle_alpha 90
_cell_angle_beta 90
_cell_angle_gamma 120
_cell_volume 197.5
_cell_formula_units_Z 3
_symmetry_space_group_name_H-M 'R -3 m H'
_symmetry_Int_Tables_number 166
_refine_ls_R_factor_all 0.0239
loop_
_symmetry_equiv_pos_site_id
_symmetry_equiv_pos_as_xyz
1 'x-y, -y, -z'
2 '-x, -x+y, -z'
3 'y, x, -z'
4 'x-y, x, -z'
5 'y, -x+y, -z'
6 '-x, -y, -z'
7 '-x+y, y, z'
8 'x, x-y, z'
9 '-y, -x, z'
10 '-x+y, -x, z'
11 '-y, x-y, z'
12 'x, y, z'
13 'x-y+2/3, -y+1/3, -z+1/3'
14 '-x+2/3, -x+y+1/3, -z+1/3'
15 'y+2/3, x+1/3, -z+1/3'
16 'x-y+2/3, x+1/3, -z+1/3'
17 'y+2/3, -x+y+1/3, -z+1/3'
18 '-x+2/3, -y+1/3, -z+1/3'
19 '-x+y+2/3, y+1/3, z+1/3'
20 'x+2/3, x-y+1/3, z+1/3'
21 '-y+2/3, -x+1/3, z+1/3'
22 '-x+y+2/3, -x+1/3, z+1/3'
23 '-y+2/3, x-y+1/3, z+1/3'
24 'x+2/3, y+1/3, z+1/3'
25 'x-y+1/3, -y+2/3, -z+2/3'
26 '-x+1/3, -x+y+2/3, -z+2/3'
27 'y+1/3, x+2/3, -z+2/3'
28 'x-y+1/3, x+2/3, -z+2/3'
29 'y+1/3, -x+y+2/3, -z+2/3'
30 '-x+1/3, -y+2/3, -z+2/3'
31 '-x+y+1/3, y+2/3, z+2/3'
32 'x+1/3, x-y+2/3, z+2/3'
33 '-y+1/3, -x+2/3, z+2/3'
34 '-x+y+1/3, -x+2/3, z+2/3'
35 '-y+1/3, x-y+2/3, z+2/3'
36 'x+1/3, y+2/3, z+2/3'
loop_
_atom_type_symbol
_atom_type_oxidation_number
Ti3+ 3.3
Li1+ 1
S2- -2
loop_
_atom_site_label
_atom_site_type_symbol
_atom_site_symmetry_multiplicity
_atom_site_Wyckoff_symbol
_atom_site_fract_x
_atom_site_fract_y
_atom_site_fract_z
_atom_site_B_iso_or_equiv
_atom_site_occupancy
_atom_site_attached_hydrogens
Ti1 Ti3+ 3 a 0 0 0 0.0394(15) 1 0
Li1 Li1+ 3 b 0 0 0.5 0.158(10) 0.7 0
S1 S2- 6 c 0 0 0.2568(3) 0.0349(13) 1 0
loop_
_atom_site_aniso_label
_atom_site_aniso_type_symbol
_atom_site_aniso_U_11
_atom_site_aniso_U_22
_atom_site_aniso_U_33
_atom_site_aniso_U_12
_atom_site_aniso_U_13
_atom_site_aniso_U_23
Ti1 Ti3+ 0.0330(9) 0.0330(9) 0.052(4) 0.0165(5) 0 0
Li1 Li1+ 0.175(13) 0.175(13) 0.123(15) 0.088(7) 0 0
S1 S2- 0.0274(7) 0.0274(7) 0.050(4) 0.0137(3) 0 0
#End of TTdata_429111-ICSD