
#(C) 2018 by FIZ Karlsruhe - Leibniz Institute for Information Infrastructure.  All rights reserved.
data_429419-ICSD
_database_code_ICSD 429419
_audit_creation_date 2016-02-01
_chemical_name_systematic 'Lanthanum lithium copper phosphide (1/0.92/1.33/2)'
_chemical_formula_structural 'La Li0.92 Cu1.33 P2'
_chemical_formula_sum 'Cu1.33 La1 Li0.92 P2'
_exptl_crystal_density_diffrn 4.84
_cell_measurement_temperature 296.
_publ_section_title

;
Lithium-filled double-deck layered structure of the RE Lix Cu2-y P2 (RE = La,
Pr, Nd, Gd, Er; 0.82 <= x <= 1; 1.19 <= Y <= 1.54) series: experimental and
theoretical studies
;
loop_
_citation_id
_citation_journal_full
_citation_year
_citation_journal_volume
_citation_page_first
_citation_page_last
_citation_journal_id_ASTM
primary 'European Journal of Inorganic Chemistry' 2015 2015 2786 2793 EJICFO
loop_
_publ_author_name
'Jang, Eunyoung'
'Nam, Gnu'
'Woo, Hyein'
'Lee, Junseong'
'Han, Mi-Kyung'
'Kim, Sung-Jin'
'You, Tae-Soo'
_cell_length_a 4.1150(2)
_cell_length_b 4.1150(2)
_cell_length_c 6.8257(3)
_cell_angle_alpha 90
_cell_angle_beta 90
_cell_angle_gamma 120
_cell_volume 100.09
_cell_formula_units_Z 1
_symmetry_space_group_name_H-M 'P -3 m 1'
_symmetry_Int_Tables_number 164
_refine_ls_R_factor_all 0.0196
loop_
_symmetry_equiv_pos_site_id
_symmetry_equiv_pos_as_xyz
1 'x-y, -y, -z'
2 '-x, -x+y, -z'
3 'y, x, -z'
4 'x-y, x, -z'
5 'y, -x+y, -z'
6 '-x, -y, -z'
7 '-x+y, y, z'
8 'x, x-y, z'
9 '-y, -x, z'
10 '-x+y, -x, z'
11 '-y, x-y, z'
12 'x, y, z'
loop_
_atom_type_symbol
_atom_type_oxidation_number
La3+ 3
Li1+ 1
Cu1+ 1
P2- -2.625
loop_
_atom_site_label
_atom_site_type_symbol
_atom_site_symmetry_multiplicity
_atom_site_Wyckoff_symbol
_atom_site_fract_x
_atom_site_fract_y
_atom_site_fract_z
_atom_site_B_iso_or_equiv
_atom_site_occupancy
_atom_site_attached_hydrogens
La1 La3+ 1 a 0. 0. 0. 0.0054(3) 1 0
Li1 Li1+ 1 b 0. 0. 0.5 0.020(10) 0.92(13) 0
Cu1 Cu1+ 2 d 0.3333 0.6667 0.6496(3) 0.0105(7) 0.665(8) 0
P1 P2- 2 d 0.3333 0.6667 0.2691(4) 0.0083(5) 1 0
loop_
_atom_site_aniso_label
_atom_site_aniso_type_symbol
_atom_site_aniso_U_11
_atom_site_aniso_U_22
_atom_site_aniso_U_33
_atom_site_aniso_U_12
_atom_site_aniso_U_13
_atom_site_aniso_U_23
La1 La3+ 0.0059(3) 0.0059(3) 0.0045(4) 0.00293(17) 0. 0.
Li1 Li1+ 0.029(13) 0.029(13) 0.003(13) 0.014(7) 0. 0.
Cu1 Cu1+ 0.0099(8) 0.0099(8) 0.0118(11) 0.0050(4) 0. 0.
P1 P2- 0.0082(7) 0.0082(7) 0.0086(11) 0.0041(4) 0. 0.
#End of TTdata_429419-ICSD