
#(C) 2018 by FIZ Karlsruhe - Leibniz Institute for Information Infrastructure.  All rights reserved.
data_429817-ICSD
_database_code_ICSD 429817
_audit_creation_date 2016-02-01
_chemical_name_systematic 'Dilithium manganese tetrathiostannate'
_chemical_formula_structural 'Li2 Mn (Sn S4)'
_chemical_formula_sum 'Li2 Mn1 S4 Sn1'
_exptl_crystal_density_diffrn 2.98
_cell_measurement_temperature 300.
_publ_section_title

;
Polymorphism and second harmonic generation in a novel diamond-like
semiconductor: Li2 Mn Sn S4
;
loop_
_citation_id
_citation_journal_full
_citation_year
_citation_journal_volume
_citation_page_first
_citation_page_last
_citation_journal_id_ASTM
primary 'Journal of Solid State Chemistry' 2015 231 256 266 JSSCBI
loop_
_publ_author_name
'Devlin, Kasey P.'
'Glaid, Andrew J.'
'Brant, Jacilynn A.'
'Zhang, Jian-Han'
'Srnec, Matthew N.'
'Clark, Daniel J.'
'Soo Kim, Yong'
'Jang, Joon I.'
'Daley, Kimberly R.'
'Moreau, Meghann A.'
'Madura, Jeffry D.'
'Aitken, Jennifer A.'
_cell_length_a 13.7036(3)
_cell_length_b 8.0023(2)
_cell_length_c 6.4155(2)
_cell_angle_alpha 90.
_cell_angle_beta 90.
_cell_angle_gamma 90.
_cell_volume 703.52
_cell_formula_units_Z 4
_symmetry_space_group_name_H-M 'P n a 21'
_symmetry_Int_Tables_number 33
_refine_ls_R_factor_all 0.0251
loop_
_symmetry_equiv_pos_site_id
_symmetry_equiv_pos_as_xyz
1 'x+1/2, -y+1/2, z'
2 '-x+1/2, y+1/2, z+1/2'
3 '-x, -y, z+1/2'
4 'x, y, z'
loop_
_atom_type_symbol
_atom_type_oxidation_number
Sn4+ 4
S2- -2
Mn2+ 2
Li1+ 1
loop_
_atom_site_label
_atom_site_type_symbol
_atom_site_symmetry_multiplicity
_atom_site_Wyckoff_symbol
_atom_site_fract_x
_atom_site_fract_y
_atom_site_fract_z
_atom_site_B_iso_or_equiv
_atom_site_occupancy
_atom_site_attached_hydrogens
Sn1 Sn4+ 4 a 0.91439(2) 0.74526(5) 0.8670(3) 0.01534(9) 1 0
S1 S2- 4 a 1.07826(10) 0.7534(2) 0.7433(2) 0.0184(3) 1 0
S2 S2- 4 a 0.91151(11) 0.7475(2) 1.23964(19) 0.0182(3) 1 0
S3 S2- 4 a 0.83314(12) 0.5000(2) 0.7468(2) 0.0186(3) 1 0
S4 S2- 4 a 0.83373(11) 0.9912(2) 0.7443(2) 0.0179(3) 1 0
Mn1 Mn2+ 4 a 0.66507(6) 0.99422(13) 0.8676(10) 0.02340(19) 1 0
Li1 Li1+ 4 a 0.8361(5) 1.0010(10) 1.3463(19) 0.0000(16) 1 0
Li2 Li1+ 4 a 1.0785(6) 0.7576(11) 0.353(4) 0.020(2) 1 0
loop_
_atom_site_aniso_label
_atom_site_aniso_type_symbol
_atom_site_aniso_U_11
_atom_site_aniso_U_22
_atom_site_aniso_U_33
_atom_site_aniso_U_12
_atom_site_aniso_U_13
_atom_site_aniso_U_23
Sn1 Sn4+ 0.01791(15) 0.01496(15) 0.01316(14) 0.00034(14) -0.0003(4) 0.0028(5)
S1 S2- 0.0169(7) 0.0193(7) 0.0190(7) -0.0002(7) 0.0013(6) 0.0008(8)
S2 S2- 0.0245(7) 0.0174(7) 0.0128(6) -0.0005(7) 0.0011(7) 0.0044(7)
S3 S2- 0.0213(7) 0.0184(8) 0.0159(7) -0.0028(7) -0.0008(7) 0.0016(8)
S4 S2- 0.0188(7) 0.0172(8) 0.0176(8) 0.0020(6) 0.0003(7) 0.0043(8)
Mn1 Mn2+ 0.0258(4) 0.0229(4) 0.0215(4) 0.0008(3) 0.0053(12) 0.0070(12)
#End of TTdata_429817-ICSD