
#(C) 2018 by FIZ Karlsruhe - Leibniz Institute for Information Infrastructure.  All rights reserved.
data_429855-ICSD
_database_code_ICSD 429855
_audit_creation_date 2016-08-01
_chemical_name_systematic
'Nonapotassium trilithium trineodymium heptakis(orthoborate)'
_chemical_formula_structural 'K9 Li3 Nd3 (B O3)7'
_chemical_formula_sum 'B7 K9 Li3 Nd3 O21'
_exptl_crystal_density_diffrn 3.34
_cell_measurement_temperature 296.
_publ_section_title

;
Mixed alkali neodymium orthoborates: K9Li3Nd3(BO3)7 and A2LiNd(BO3)2 (A = Rb,
Cs)
;
loop_
_citation_id
_citation_journal_full
_citation_year
_citation_journal_volume
_citation_page_first
_citation_page_last
_citation_journal_id_ASTM
primary 'Zeitschrift fuer Anorganische und Allgemeine Chemie (1950) (DE)' 2016
642 424 430 ZAACAB
loop_
_publ_author_name
'Chen, Pengyun'
'Xia, Mingjun'
'Li, Rukang'
_cell_length_a 11.4524(7)
_cell_length_b 10.1266(6)
_cell_length_c 11.5438(7)
_cell_angle_alpha 90.
_cell_angle_beta 115.2630(10)
_cell_angle_gamma 90.
_cell_volume 1210.73
_cell_formula_units_Z 2
_symmetry_space_group_name_H-M 'P 1 2/n 1'
_symmetry_Int_Tables_number 13
_refine_ls_R_factor_all 0.0302
loop_
_symmetry_equiv_pos_site_id
_symmetry_equiv_pos_as_xyz
1 'x+1/2, -y, z+1/2'
2 '-x+1/2, y, -z+1/2'
3 '-x, -y, -z'
4 'x, y, z'
loop_
_atom_type_symbol
_atom_type_oxidation_number
Nd3+ 3
K1+ 1
O2- -2
B3+ 3
Li1+ 1
loop_
_atom_site_label
_atom_site_type_symbol
_atom_site_symmetry_multiplicity
_atom_site_Wyckoff_symbol
_atom_site_fract_x
_atom_site_fract_y
_atom_site_fract_z
_atom_site_B_iso_or_equiv
_atom_site_occupancy
_atom_site_attached_hydrogens
Nd1 Nd3+ 2 f 0.75 0.31332(4) 0.25 0.00762(16) 1 0
Nd2 Nd3+ 4 g 1.03090(3) 0.70279(3) 0.24527(3) 0.00963(16) 1 0
K1 K1+ 4 g 1.08355(11) 0.07159(12) 0.41264(12) 0.0166(3) 1 0
K2 K1+ 4 g 0.83368(11) 0.46006(12) -0.05510(12) 0.0167(3) 1 0
K3 K1+ 4 g 0.64396(12) 0.61019(12) 0.05140(12) 0.0188(3) 1 0
K4 K1+ 4 g 0.60895(15) 0.09528(16) 0.44560(15) 0.0321(4) 1 0
K5 K1+ 2 f 0.75 -0.07863(16) 0.25 0.0116(3) 1 0
O1 O2- 4 g 1.1430(3) 0.6544(5) 0.5054(4) 0.0170(9) 1 0
O2 O2- 2 e 1.25 0.7125(6) 0.25 0.0179(13) 1 0
O3 O2- 4 g 1.3550(6) 0.9133(5) 0.2501(8) 0.059(2) 1 0
O4 O2- 4 g 0.7830(8) 0.8012(7) -0.1290(6) 0.069(2) 1 0
O5 O2- 4 g 0.9624(4) 0.2880(4) 0.2459(4) 0.0155(9) 1 0
O6 O2- 4 g 0.8832(3) 0.5083(4) 0.2392(4) 0.0156(9) 1 0
O7 O2- 4 g 0.9857(4) 0.8195(4) 0.4009(4) 0.0138(8) 1 0
O8 O2- 4 g 1.0940(4) 0.4724(4) 0.2516(4) 0.0161(8) 1 0
O9 O2- 4 g 0.6690(4) 0.1338(4) 0.1006(4) 0.0138(8) 1 0
O10 O2- 4 g 0.9695(4) 0.6966(4) 0.0188(4) 0.0200(9) 1 0
O11 O2- 4 g 0.8348(4) 0.8079(4) 0.0945(4) 0.0193(9) 1 0
B1 B3+ 4 g 1.0990(6) 0.7829(6) 0.5024(6) 0.0106(12) 1 0
B2 B3+ 4 g 0.9811(6) 0.4221(6) 0.2458(5) 0.0112(12) 1 0
B3 B3+ 4 g 0.8643(6) 0.7756(8) -0.0047(6) 0.0174(15) 1 0
B4 B3+ 2 e 1.25 0.8482(10) 0.25 0.024(2) 1 0
Li1 Li1+ 2 e 0.75 0.9345(13) -0.25 0.019(3) 1 0
Li2 Li1+ 4 g 0.8779(13) 0.7096(12) -0.2101(13) 0.033(3) 1 0
loop_
_atom_site_aniso_label
_atom_site_aniso_type_symbol
_atom_site_aniso_U_11
_atom_site_aniso_U_22
_atom_site_aniso_U_33
_atom_site_aniso_U_12
_atom_site_aniso_U_13
_atom_site_aniso_U_23
Nd1 Nd3+ 0.0065(2) 0.0072(2) 0.0073(2) 0. 0.00123(17) 0.
Nd2 Nd3+ 0.0093(2) 0.0092(2) 0.0102(2) 0.00105(10) 0.00394(15) -0.00118(10)
K1 K1+ 0.0202(6) 0.0127(6) 0.0172(6) 0.0012(5) 0.0082(5) 0.0002(5)
K2 K1+ 0.0139(5) 0.0176(6) 0.0183(6) -0.0004(5) 0.0066(5) -0.0044(5)
K3 K1+ 0.0205(6) 0.0135(6) 0.0238(7) 0.0020(5) 0.0109(5) 0.0012(5)
K4 K1+ 0.0277(7) 0.0378(8) 0.0347(9) 0.0098(6) 0.0170(7) 0.0142(7)
K5 K1+ 0.0121(7) 0.0121(8) 0.0094(8) 0. 0.0033(6) 0.
O1 O2- 0.018(2) 0.011(2) 0.015(2) 0.0045(15) 0.0005(18) -0.0015(15)
O2 O2- 0.008(3) 0.014(3) 0.023(3) 0. -0.002(3) 0.
O3 O2- 0.050(3) 0.017(2) 0.147(7) 0.014(2) 0.078(4) 0.025(3)
O4 O2- 0.086(5) 0.099(6) 0.030(3) 0.067(4) 0.034(4) 0.029(3)
O5 O2- 0.011(2) 0.011(2) 0.025(2) -0.0007(14) 0.0084(19) 0.0000(15)
O6 O2- 0.0113(19) 0.0119(19) 0.022(2) -0.0014(16) 0.0061(17) -0.0011(17)
O7 O2- 0.0137(19) 0.0146(19) 0.0090(19) 0.0020(15) 0.0010(16) -0.0012(15)
O8 O2- 0.0141(19) 0.0124(19) 0.024(2) -0.0008(15) 0.0105(17) -0.0031(16)
O9 O2- 0.0164(19) 0.0103(18) 0.0107(19) 0.0018(15) 0.0018(15) 0.0009(15)
O10 O2- 0.019(2) 0.024(2) 0.016(2) 0.0076(16) 0.0068(18) -0.0006(16)
O11 O2- 0.023(2) 0.021(2) 0.015(2) 0.0068(16) 0.0094(18) 0.0014(16)
B1 B3+ 0.010(3) 0.013(3) 0.009(3) -0.001(2) 0.005(2) -0.001(2)
B2 B3+ 0.011(3) 0.013(3) 0.006(3) 0.001(2) 0.000(2) -0.001(2)
B3 B3+ 0.020(4) 0.014(3) 0.017(4) 0.006(2) 0.007(3) 0.000(2)
B4 B3+ 0.031(5) 0.016(5) 0.040(6) 0. 0.027(5) 0.
Li1 Li1+ 0.018(7) 0.014(7) 0.019(7) 0. 0.003(5) 0.
#End of TTdata_429855-ICSD