
#(C) 2018 by FIZ Karlsruhe - Leibniz Institute for Information Infrastructure.  All rights reserved.
data_429902-ICSD
_database_code_ICSD 429902
_audit_creation_date 2016-02-01
_chemical_name_systematic 'Heptadecalithium tridecaantimony octaicosasulfide'
_chemical_formula_structural 'Li17 Sb13 S28'
_chemical_formula_sum 'Li17 S28 Sb13'
_exptl_crystal_density_diffrn 3.65
_cell_measurement_temperature 123.
_publ_section_title

;
Li17 Sb13 S28: a new lithium ion conductor and addition to the phase diagram
Li2 S - Sb2 S3
;
loop_
_citation_id
_citation_journal_full
_citation_year
_citation_journal_volume
_citation_page_first
_citation_page_last
_citation_journal_id_ASTM
primary 'Chemistry - A European Journal' 2015 21 13683 13688 CEUJED
loop_
_publ_author_name
'Huber, Sebastian'
'Pfitzner, Arno'
_cell_length_a 12.7298(7)
_cell_length_b 11.5837(4)
_cell_length_c 9.2251(6)
_cell_angle_alpha 90
_cell_angle_beta 119.550(8)
_cell_angle_gamma 90
_cell_volume 1183.37
_cell_formula_units_Z 1
_symmetry_space_group_name_H-M 'C 1 2/m 1'
_symmetry_Int_Tables_number 12
_refine_ls_R_factor_all 0.0364
loop_
_symmetry_equiv_pos_site_id
_symmetry_equiv_pos_as_xyz
1 '-x, y, -z'
2 '-x, -y, -z'
3 'x, -y, z'
4 'x, y, z'
5 '-x+1/2, y+1/2, -z'
6 '-x+1/2, -y+1/2, -z'
7 'x+1/2, -y+1/2, z'
8 'x+1/2, y+1/2, z'
loop_
_atom_type_symbol
_atom_type_oxidation_number
Sb3+ 3
Li1+ 1
S2- -2
Li1+ 1
loop_
_atom_site_label
_atom_site_type_symbol
_atom_site_symmetry_multiplicity
_atom_site_Wyckoff_symbol
_atom_site_fract_x
_atom_site_fract_y
_atom_site_fract_z
_atom_site_B_iso_or_equiv
_atom_site_occupancy
_atom_site_attached_hydrogens
Sb1 Sb3+ 4 i 0.69500(4) 0. 0.31769(6) 0.01818(15) 1 0
Sb2 Sb3+ 8 j 0.39918(8) 0.15792(13) 0.10707(10) 0.0193(3) 0.655(7) 0
Sb3 Sb3+ 8 j 0.41163(16) 0.1809(2) 0.09495(19) 0.0190(4) 0.345(7) 0
Sb4 Sb3+ 4 i 0.89282(14) 0. 0.0817(2) 0.0191(3) 0.25 0
Li1 Li1+ 4 i 0.89282(14) 0. 0.0817(2) 0.0191(3) 0.75 0
S1 S2- 4 i 0.88121(14) 0. 0.5771(2) 0.0184(3) 1 0
S2 S2- 4 g 0. 0.15444(14) 0. 0.0250(4) 1 0
S3 S2- 8 j 0.32331(11) 0.31139(13) 0.20697(18) 0.0294(3) 1 0
S4 S2- 8 j 0.60160(9) 0.15952(9) 0.39258(14) 0.0197(3) 1 0
S5 S2- 4 i 0.30246(16) 0. 0.2021(2) 0.0259(4) 1 0
Li2 Li1+ 2 d 0.5 0. 0.5 0.027(4) 1 0
Li3 Li1+ 8 j 0.1902(8) 0.1613(7) 0.2943(12) 0.028(2) 1 0
Li4 Li1+ 4 h 1. 0.1421(11) 0.5 0.028(3) 1 0
loop_
_atom_site_aniso_label
_atom_site_aniso_type_symbol
_atom_site_aniso_U_11
_atom_site_aniso_U_22
_atom_site_aniso_U_33
_atom_site_aniso_U_12
_atom_site_aniso_U_13
_atom_site_aniso_U_23
Sb1 Sb3+ 0.0173(2) 0.0190(2) 0.0182(2) 0. 0.00879(18) 0.
Sb4 Sb3+ 0.0189(7) 0.0186(7) 0.0195(8) 0. 0.0093(6) 0.
Li1 Li1+ 0.0189(7) 0.0186(7) 0.0195(8) 0. 0.0093(6) 0.
S1 S2- 0.0163(6) 0.0198(7) 0.0179(8) 0. 0.0074(6) 0.
S2 S2- 0.0259(8) 0.0215(7) 0.0229(9) 0. 0.0084(7) 0.
S3 S2- 0.0210(5) 0.0433(7) 0.0202(6) 0.0090(5) 0.0072(5) -0.0071(5)
S4 S2- 0.0185(6) 0.0202(5) 0.0192(6) 0.0022(4) 0.0083(5) -0.0002(4)
S5 S2- 0.0219(8) 0.0334(9) 0.0220(9) 0. 0.0106(7) 0.
Li2 Li1+ 0.033(9) 0.037(9) 0.023(9) 0. 0.023(8) 0.
Li3 Li1+ 0.029(4) 0.026(4) 0.023(5) 0.004(3) 0.007(4) 0.005(3)
Li4 Li1+ 0.022(6) 0.032(6) 0.012(6) 0. -0.006(5) 0.
#End of TTdata_429902-ICSD