
#(C) 2018 by FIZ Karlsruhe - Leibniz Institute for Information Infrastructure.  All rights reserved.
data_430770-ICSD
_database_code_ICSD 430770
_audit_creation_date 2016-08-01
_chemical_name_systematic 'Lithium tribismuth pentasulfide'
_chemical_formula_structural 'Li Bi3 S5'
_chemical_formula_sum 'Bi3 Li1 S5'
_chemical_name_structure_type AgBi3S5
_exptl_crystal_density_diffrn 6.11
_cell_measurement_temperature 298.
_publ_section_title
'Li Bi3 S5 - A lithium bismuth sulfide with strong cation disorder'
loop_
_citation_id
_citation_journal_full
_citation_year
_citation_journal_volume
_citation_page_first
_citation_page_last
_citation_journal_id_ASTM
primary 'Journal of Solid State Chemistry' 2016 238 60 67 JSSCBI
loop_
_publ_author_name
'Nakhal, Suliman'
'Wiedemann, Dennis'
'Stanje, Bernhard'
'Dolotko, Oleksandr'
'Wilkening, Martin'
'Lerch, Martin'
_cell_length_a 13.1079(2)
_cell_length_b 4.00070(7)
_cell_length_c 16.5085(3)
_cell_angle_alpha 90
_cell_angle_beta 94.0723(12)
_cell_angle_gamma 90
_cell_volume 863.53
_cell_formula_units_Z 4
_symmetry_space_group_name_H-M 'C 1 2/m 1'
_symmetry_Int_Tables_number 12
_refine_ls_R_factor_all 0.0216
loop_
_symmetry_equiv_pos_site_id
_symmetry_equiv_pos_as_xyz
1 '-x, y, -z'
2 '-x, -y, -z'
3 'x, -y, z'
4 'x, y, z'
5 '-x+1/2, y+1/2, -z'
6 '-x+1/2, -y+1/2, -z'
7 'x+1/2, -y+1/2, z'
8 'x+1/2, y+1/2, z'
loop_
_atom_type_symbol
_atom_type_oxidation_number
Bi3+ 3
Li1+ 1
Bi3+ 3
Li1+ 1
Bi3+ 3
Li1+ 1
Bi3+ 3
Li1+ 1
S2- -2
loop_
_atom_site_label
_atom_site_type_symbol
_atom_site_symmetry_multiplicity
_atom_site_Wyckoff_symbol
_atom_site_fract_x
_atom_site_fract_y
_atom_site_fract_z
_atom_site_B_iso_or_equiv
_atom_site_occupancy
_atom_site_attached_hydrogens
Bi1 Bi3+ 4 i 0.23805(16) 0.5 0.11122(10) 0.0162(11) 0.821(3) 0
Li1 Li1+ 4 i 0.23805(16) 0.5 0.11122(10) 0.0162(11) 0.179(3) 0
Bi2 Bi3+ 4 i 0.47179(14) 0. 0.21890(10) 0.0190(11) 0.876(3) 0
Li2 Li1+ 4 i 0.47179(14) 0. 0.21890(10) 0.0190(11) 0.124(3) 0
Bi3 Bi3+ 4 i 0.21539(12) 0. 0.39076(8) 0.0254(9) 1. 0
Bi4 Bi3+ 2 a 0. 0. 0. 0.01825 0.450(3) 0
Li3 Li1+ 2 a 0. 0. 0. 0.01825 0.550(3) 0
Bi5 Bi3+ 2 d 0. 0.5 0.5 0.01835 0.156(3) 0
Li4 Li1+ 2 d 0. 0.5 0.5 0.01835 0.844(3) 0
S1 S2- 4 i 0.3716(4) 0. 0.0535(3) 0.018(2) 1. 0
S2 S2- 4 i 0.1069(4) 0. 0.1534(3) 0.020(2) 1. 0
S3 S2- 4 i 0.3411(3) 0.5 0.2580(3) 0.016(2) 1. 0
S4 S2- 4 i 0.0706(3) 0.5 0.3631(3) 0.016(2) 1. 0
S5 S2- 4 i 0.3536(3) 0.5 0.4656(2) 0.0154(20) 1. 0
loop_
_atom_site_aniso_label
_atom_site_aniso_type_symbol
_atom_site_aniso_U_11
_atom_site_aniso_U_22
_atom_site_aniso_U_33
_atom_site_aniso_U_12
_atom_site_aniso_U_13
_atom_site_aniso_U_23
Bi1 Bi3+ 0.0110(10) 0.0123(11) 0.0254(12) 0. 0.0011(9) 0.
Li1 Li1+ 0.0110(10) 0.0123(11) 0.0254(12) 0. 0.0011(9) 0.
Bi2 Bi3+ 0.0192(10) 0.0178(10) 0.0200(12) 0. -0.0030(10) 0.
Li2 Li1+ 0.0192(10) 0.0178(10) 0.0200(12) 0. -0.0030(10) 0.
Bi3 Bi3+ 0.0309(9) 0.0224(8) 0.0230(10) 0. 0.0068(7) 0.
S1 S2- 0.034(3) 0.0101(19) 0.010(2) 0. 0.009(2) 0.
S2 S2- 0.011(2) 0.023(2) 0.027(3) 0. 0.007(2) 0.
S3 S2- 0.012(2) 0.013(2) 0.024(2) 0. 0.011(2) 0.
S4 S2- 0.020(2) 0.0122(20) 0.017(2) 0. -0.0100(19) 0.
S5 S2- 0.019(2) 0.0109(19) 0.017(2) 0. -0.0045(17) 0.
#End of TTdata_430770-ICSD