
#(C) 2018 by FIZ Karlsruhe - Leibniz Institute for Information Infrastructure.  All rights reserved.
data_431584-ICSD
_database_code_ICSD 431584
_audit_creation_date 2017-08-01
_chemical_name_systematic 'Lithium triphosphido-disilicate'
_chemical_formula_structural 'Li Si2 P3'
_chemical_formula_sum 'Li1 P3 Si2'
_exptl_crystal_density_diffrn 2.17
_cell_measurement_temperature 298.
_publ_section_title
'Supertetrahedral networks and lithium-ion mobility in Li2SiP2 and LiSi2P3'
loop_
_citation_id
_citation_journal_full
_citation_year
_citation_journal_volume
_citation_page_first
_citation_page_last
_citation_journal_id_ASTM
primary 'Angewandte Chemie, International Edition' 2016 55 13585 13588 ACIEF5
loop_
_publ_author_name
'Haffner, Arthur'
'Braeuniger, Thomas'
'Johrendt, Dirk'
_cell_length_a 18.4658(6)
_cell_length_b 18.4658(6)
_cell_length_c 35.0924(12)
_cell_angle_alpha 90
_cell_angle_beta 90
_cell_angle_gamma 90
_cell_volume 11966.
_cell_formula_units_Z 100
_symmetry_space_group_name_H-M 'I 41/a Z'
_symmetry_Int_Tables_number 88
_refine_ls_R_factor_all 0.0406
loop_
_symmetry_equiv_pos_site_id
_symmetry_equiv_pos_as_xyz
1 '-y+3/4, x+3/4, -z+3/4'
2 'y+1/4, -x+3/4, -z+3/4'
3 'x, y+1/2, -z'
4 '-x, -y, -z'
5 'y+1/4, -x+1/4, z+1/4'
6 '-y+3/4, x+1/4, z+1/4'
7 '-x, -y+1/2, z'
8 'x, y, z'
9 '-y+1/4, x+1/4, -z+1/4'
10 'y+3/4, -x+1/4, -z+1/4'
11 'x+1/2, y, -z+1/2'
12 '-x+1/2, -y+1/2, -z+1/2'
13 'y+3/4, -x+3/4, z+3/4'
14 '-y+1/4, x+3/4, z+3/4'
15 '-x+1/2, -y, z+1/2'
16 'x+1/2, y+1/2, z+1/2'
loop_
_atom_type_symbol
_atom_type_oxidation_number
P3- -3
Si4+ 4
Li1+ 1
loop_
_atom_site_label
_atom_site_type_symbol
_atom_site_symmetry_multiplicity
_atom_site_Wyckoff_symbol
_atom_site_fract_x
_atom_site_fract_y
_atom_site_fract_z
_atom_site_B_iso_or_equiv
_atom_site_occupancy
_atom_site_attached_hydrogens
P1 P3- 16 f 0.12311(3) 0.60581(3) 0.02134(2) 0.00745(12) 1 0
P2 P3- 4 a 0. 0.75 -0.125 0.0127(2) 1 0
P3 P3- 16 f 0.28192(3) 0.73051(3) 0.01259(2) 0.00868(12) 1 0
P4 P3- 16 f 0.40050(3) 0.55428(3) 0.01369(2) 0.00837(12) 1 0
P5 P3- 16 f 0.26621(3) 0.58344(3) -0.05746(2) 0.00735(11) 1 0
P6 P3- 16 f 0.44184(3) 0.83696(3) 0.01494(2) 0.00763(12) 1 0
P7 P3- 16 f 0.42620(3) 0.70327(3) 0.09258(2) 0.00750(11) 1 0
P8 P3- 16 f 0.25470(3) 0.58392(3) 0.09079(2) 0.00826(12) 1 0
P9 P3- 16 f -0.01525(3) 0.61041(3) -0.04969(2) 0.00963(12) 1 0
P10 P3- 16 f 0.14488(3) 0.74709(3) -0.04954(2) 0.00982(12) 1 0
P11 P3- 16 f 0.38600(3) 0.55776(3) 0.16397(2) 0.00757(12) 1 0
P12 P3- 16 f 0.13051(3) 0.59683(3) -0.12641(2) 0.00973(12) 1 0
P13 P3- 16 f 0.28120(3) 0.71848(3) 0.16405(2) 0.00777(12) 1 0
P14 P3- 16 f 0.42446(3) 0.69470(4) -0.05717(2) 0.01060(12) 1 0
P15 P3- 16 f 0.23441(4) 0.44450(3) 0.01961(2) 0.01153(13) 1 0
P16 P3- 16 f 0.27719(3) 0.72235(4) -0.12784(2) 0.01166(13) 1 0
P17 P3- 16 f 0.14680(3) 0.75021(3) 0.08921(2) 0.01023(12) 1 0
P18 P3- 16 f 0.36848(3) 0.42415(3) 0.08996(2) 0.01012(12) 1 0
P19 P3- 8 e 0. 0.75 0.02306(3) 0.01175(17) 1 0
P20 P3- 16 f 0.10850(4) 0.46520(3) -0.05073(2) 0.01239(13) 1 0
Si1 Si4+ 16 f 0.34021(3) 0.64277(4) 0.12448(2) 0.00712(13) 1 0
Si2 Si4+ 16 f 0.20015(4) 0.66820(4) -0.08893(2) 0.00822(13) 1 0
Si3 Si4+ 16 f 0.18685(4) 0.52961(4) -0.01660(2) 0.00769(13) 1 0
Si4 Si4+ 16 f 0.34443(3) 0.64373(4) -0.01892(2) 0.00746(12) 1 0
Si5 Si4+ 16 f 0.20691(3) 0.67240(4) 0.05353(2) 0.00787(13) 1 0
Si6 Si4+ 16 f 0.44866(4) 0.48230(3) 0.12555(2) 0.00748(13) 1 0
Si7 Si4+ 16 f -0.07609(4) 0.68604(4) -0.08811(2) 0.01260(14) 1 0
Si8 Si4+ 8 e 0.5 0.75 -0.01809(3) 0.00771(17) 1 0
Si9 Si4+ 16 f 0.06190(4) 0.68289(4) -0.01686(2) 0.00847(13) 1 0
Si10 Si4+ 16 f 0.31544(4) 0.50512(3) 0.05249(2) 0.00792(13) 1 0
Si11 Si4+ 16 f 0.36459(3) 0.77607(3) 0.05288(2) 0.00687(13) 1 0
Si12 Si4+ 16 f 0.04949(4) 0.53906(3) -0.08877(2) 0.00813(13) 1 0
Si13 Si4+ 16 f 0.47125(3) 0.61833(3) 0.05368(2) 0.00705(13) 1 0
Li1 Li1+ 16 f 0.4848(4) 0.4154(4) 0.0460(2) 0.038(2) 0.98(2) 0
Li2 Li1+ 16 f 0.1365(4) 0.4882(4) 0.0699(2) 0.036(2) 0.909(19) 0
Li3 Li1+ 16 f 0.2829(4) 0.4576(4) 0.1472(2) 0.040(2) 0.98(2) 0
Li4 Li1+ 8 c 0. 0.5 0. 0.051(5) 0.82(3) 0
Li5 Li1+ 16 f 0.3341(6) 0.2977(4) 0.0738(3) 0.081(4) 1.05(2) 0
Li6 Li1+ 16 f 0.4004(7) 0.6624(7) -0.1257(3) 0.077(4) 0.91(2) 0
Li7 Li1+ 16 f 0.1087(5) 0.8338(5) 0.0361(3) 0.064(3) 1.01(2) 0
loop_
_atom_site_aniso_label
_atom_site_aniso_type_symbol
_atom_site_aniso_U_11
_atom_site_aniso_U_22
_atom_site_aniso_U_33
_atom_site_aniso_U_12
_atom_site_aniso_U_13
_atom_site_aniso_U_23
P1 P3- 0.0083(3) 0.0073(3) 0.0067(3) -0.0002(2) -0.0018(2) 0.0004(2)
P2 P3- 0.0127(4) 0.0127(4) 0.0127(6) 0. 0. 0.
P3 P3- 0.0085(3) 0.0099(3) 0.0077(3) -0.0010(2) -0.0011(2) -0.0009(2)
P4 P3- 0.0082(3) 0.0090(3) 0.0079(3) -0.0007(2) -0.0015(2) 0.0002(2)
P5 P3- 0.0082(3) 0.0072(3) 0.0066(3) -0.0004(2) -0.0013(2) 0.0003(2)
P6 P3- 0.0080(3) 0.0088(3) 0.0061(3) -0.0010(2) 0.0004(2) 0.0001(2)
P7 P3- 0.0079(3) 0.0077(3) 0.0069(3) -0.0003(2) -0.0009(2) -0.0004(2)
P8 P3- 0.0086(3) 0.0084(3) 0.0078(3) -0.0005(2) -0.0020(2) -0.0007(2)
P9 P3- 0.0091(3) 0.0093(3) 0.0104(3) 0.0005(2) -0.0020(2) -0.0014(2)
P10 P3- 0.0100(3) 0.0098(3) 0.0096(3) 0.0001(2) 0.0004(2) 0.0005(2)
P11 P3- 0.0079(3) 0.0071(3) 0.0077(3) -0.0003(2) -0.0019(2) 0.0002(2)
P12 P3- 0.0099(3) 0.0109(3) 0.0084(3) -0.0018(2) -0.0011(2) 0.0008(2)
P13 P3- 0.0076(3) 0.0085(3) 0.0072(3) 0.0006(2) -0.0004(2) -0.0010(2)
P14 P3- 0.0106(3) 0.0145(3) 0.0067(3) -0.0050(2) -0.0013(2) -0.0001(2)
P15 P3- 0.0142(3) 0.0075(3) 0.0129(3) -0.0011(2) -0.0067(2) 0.0016(2)
P16 P3- 0.0075(3) 0.0134(3) 0.0141(3) 0.0020(2) 0.0009(2) 0.0069(2)
P17 P3- 0.0079(3) 0.0114(3) 0.0114(3) -0.0001(2) -0.0014(2) -0.0044(2)
P18 P3- 0.0126(3) 0.0067(3) 0.0111(3) -0.0006(2) -0.0059(2) 0.0008(2)
P19 P3- 0.0154(4) 0.0117(4) 0.0081(4) 0.0054(3) 0. 0.
P20 P3- 0.0155(3) 0.0070(3) 0.0147(3) -0.0021(2) -0.0093(2) 0.0019(2)
Si1 Si4+ 0.0078(3) 0.0071(3) 0.0064(3) 0.0006(2) -0.0011(2) -0.0004(2)
Si2 Si4+ 0.0079(3) 0.0083(3) 0.0084(3) 0.0005(2) -0.0014(2) 0.0015(2)
Si3 Si4+ 0.0084(3) 0.0075(3) 0.0072(3) -0.0010(2) -0.0015(2) 0.0000(2)
Si4 Si4+ 0.0074(3) 0.0086(3) 0.0064(3) -0.0014(2) -0.0012(2) 0.0000(2)
Si5 Si4+ 0.0078(3) 0.0084(3) 0.0073(3) -0.0001(2) -0.0012(2) -0.0014(2)
Si6 Si4+ 0.0083(3) 0.0069(3) 0.0072(3) -0.0001(2) -0.0018(2) 0.0005(2)
Si7 Si4+ 0.0134(3) 0.0125(3) 0.0119(3) 0.0044(2) -0.0048(2) -0.0043(2)
Si8 Si4+ 0.0079(4) 0.0085(4) 0.0067(4) -0.0018(3) 0. 0.
Si9 Si4+ 0.0093(3) 0.0082(3) 0.0079(3) 0.0010(2) -0.0015(2) 0.0001(2)
Si10 Si4+ 0.0084(3) 0.0072(3) 0.0082(3) -0.0004(2) -0.0019(2) 0.0005(2)
Si11 Si4+ 0.0071(3) 0.0072(3) 0.0064(3) -0.0009(2) 0.0003(2) -0.0012(2)
Si12 Si4+ 0.0081(3) 0.0068(3) 0.0095(3) -0.0005(2) -0.0022(2) 0.0001(2)
Si13 Si4+ 0.0068(3) 0.0076(3) 0.0067(3) 0.0000(2) -0.0004(2) 0.0008(2)
Li1 Li1+ 0.039(4) 0.034(4) 0.040(4) 0.002(3) 0.008(3) -0.020(3)
Li2 Li1+ 0.038(4) 0.037(4) 0.034(4) -0.001(3) 0.019(3) 0.012(3)
Li3 Li1+ 0.038(4) 0.042(4) 0.040(4) -0.009(3) 0.017(3) 0.010(3)
Li4 Li1+ 0.060(9) 0.039(7) 0.055(8) 0.017(6) 0.035(7) 0.024(6)
Li5 Li1+ 0.108(8) 0.022(3) 0.114(8) -0.021(4) 0.080(7) -0.020(4)
#End of TTdata_431584-ICSD