
#(C) 2018 by FIZ Karlsruhe - Leibniz Institute for Information Infrastructure.  All rights reserved.
data_432687-ICSD
_database_code_ICSD 432687
_audit_creation_date 2018-02-01
_chemical_name_systematic 'Lithium dieuropium(II) hydride oxide dichloride'
_chemical_formula_structural 'Li Eu2 H O Cl2'
_chemical_formula_sum 'H1 Cl2 Eu2 Li1 O1'
_exptl_crystal_density_diffrn 5.44
_cell_measurement_temperature 293.
_publ_section_title

;
Crystal structure and luminescence properties of the first hydride oxide
chloride with divalent europium. LiEu2HOCl2
;
loop_
_citation_id
_citation_journal_full
_citation_year
_citation_journal_volume
_citation_page_first
_citation_page_last
_citation_journal_id_ASTM
primary 'Zeitschrift fuer Anorganische und Allgemeine Chemie (1950) (DE)' 2017
643 1525 1530 ZAACAB
loop_
_publ_author_name
'Rudolph, Daniel'
'Enseling, David'
'Juestel, Thomas'
'Schleid, Thomas'
_cell_length_a 14.9230(11)
_cell_length_b 5.7012(4)
_cell_length_c 11.4371(8)
_cell_angle_alpha 90.
_cell_angle_beta 90.
_cell_angle_gamma 90.
_cell_volume 973.05
_cell_formula_units_Z 8
_symmetry_space_group_name_H-M 'C m c m'
_symmetry_Int_Tables_number 63
_refine_ls_R_factor_all 0.0266
loop_
_symmetry_equiv_pos_site_id
_symmetry_equiv_pos_as_xyz
1 '-x, y, -z+1/2'
2 '-x, -y, z+1/2'
3 '-x, y, z'
4 '-x, -y, -z'
5 'x, -y, z+1/2'
6 'x, y, -z+1/2'
7 'x, -y, -z'
8 'x, y, z'
9 '-x+1/2, y+1/2, -z+1/2'
10 '-x+1/2, -y+1/2, z+1/2'
11 '-x+1/2, y+1/2, z'
12 '-x+1/2, -y+1/2, -z'
13 'x+1/2, -y+1/2, z+1/2'
14 'x+1/2, y+1/2, -z+1/2'
15 'x+1/2, -y+1/2, -z'
16 'x+1/2, y+1/2, z'
loop_
_atom_type_symbol
_atom_type_oxidation_number
Li1+ 1
Eu2+ 2
Cl1- -1
O2- -2
H1- -1
loop_
_atom_site_label
_atom_site_type_symbol
_atom_site_symmetry_multiplicity
_atom_site_Wyckoff_symbol
_atom_site_fract_x
_atom_site_fract_y
_atom_site_fract_z
_atom_site_B_iso_or_equiv
_atom_site_occupancy
_atom_site_attached_hydrogens
Li1 Li1+ 4 a 0. 0. 0. 0.026(6) 1 0
Li2 Li1+ 4 c 0. 0.504(4) 0.25 0.029(6) 1 0
Eu1 Eu2+ 8 e 0.38977(3) 0. 0. 0.0136(2) 1 0
Eu2 Eu2+ 8 g 0.39084(3) 0.45539(9) 0.25 0.0138(2) 1 0
Cl1 Cl1- 8 e 0.17923(17) 0. 0. 0.0155(5) 1 0
Cl2 Cl1- 8 g 0.17960(16) 0.4590(4) 0.25 0.0166(5) 1 0
O1 O2- 8 f 0. 0.2704(8) 0.6182(4) 0.0121(11) 1 0
H1 H1- 8 f 0. 0.242(4) 0.1226(18) 0.018 1 0
loop_
_atom_site_aniso_label
_atom_site_aniso_type_symbol
_atom_site_aniso_U_11
_atom_site_aniso_U_22
_atom_site_aniso_U_33
_atom_site_aniso_U_12
_atom_site_aniso_U_13
_atom_site_aniso_U_23
Li1 Li1+ 0.025(15) 0.015(11) 0.037(14) 0. 0. 0.004(8)
Li2 Li1+ 0.029(16) 0.009(10) 0.050(16) 0. 0. 0.
Eu1 Eu2+ 0.0171(3) 0.0113(3) 0.0125(3) 0. 0. -0.00135(15)
Eu2 Eu2+ 0.0178(3) 0.0109(3) 0.0127(3) 0.00027(13) 0. 0.
Cl1 Cl1- 0.0187(12) 0.0136(10) 0.0142(10) 0. 0. 0.0007(6)
Cl2 Cl1- 0.0208(12) 0.0120(10) 0.0169(10) 0.0001(7) 0. 0.
O1 O2- 0.015(3) 0.012(3) 0.009(2) 0. 0. -0.0026(19)
#End of TTdata_432687-ICSD