
#(C) 2018 by FIZ Karlsruhe - Leibniz Institute for Information Infrastructure.  All rights reserved.
data_432925-ICSD
_database_code_ICSD 432925
_audit_creation_date 2018-02-01
_chemical_name_systematic 'Trilithium tripotassium heptayttrium nonaborate'
_chemical_formula_structural 'Li3 K3 Y7 (B O3)9'
_chemical_formula_sum 'B9 K3 Li3 O27 Y7'
_exptl_crystal_density_diffrn 3.7
_cell_measurement_temperature 303.
_publ_section_title 'Synthesis and structural characterization of Li3K3Y7(BO3)9'
loop_
_citation_id
_citation_journal_full
_citation_year
_citation_journal_volume
_citation_page_first
_citation_page_last
_citation_journal_id_ASTM
primary 'Journal of Solid State Chemistry' 2017 253 242 248 JSSCBI
loop_
_publ_author_name
'Braeuchle, Sebastian'
'Huppertz, Hubert'
_cell_length_a 20.7431(8)
_cell_length_b 6.3873(2)
_cell_length_c 17.4741(7)
_cell_angle_alpha 90
_cell_angle_beta 90
_cell_angle_gamma 90
_cell_volume 2315.18
_cell_formula_units_Z 4
_symmetry_space_group_name_H-M 'P c a 21'
_symmetry_Int_Tables_number 29
_refine_ls_R_factor_all 0.0338
loop_
_symmetry_equiv_pos_site_id
_symmetry_equiv_pos_as_xyz
1 'x+1/2, -y, z'
2 '-x+1/2, y, z+1/2'
3 '-x, -y, z+1/2'
4 'x, y, z'
loop_
_atom_type_symbol
_atom_type_oxidation_number
Y3+ 3
K1+ 1
B3+ 3
Li1+ 1
O2- -2
loop_
_atom_site_label
_atom_site_type_symbol
_atom_site_symmetry_multiplicity
_atom_site_Wyckoff_symbol
_atom_site_fract_x
_atom_site_fract_y
_atom_site_fract_z
_atom_site_B_iso_or_equiv
_atom_site_occupancy
_atom_site_attached_hydrogens
Y1 Y3+ 4 a 0.23667(2) 0.32282(6) 0.58852(3) 0.00429(7) 1 0
Y2 Y3+ 4 a 0.63266(2) 0.29390(6) 0.51744(3) 0.00536(7) 1 0
Y3 Y3+ 4 a 0.37232(2) 0.34272(6) 0.32176(3) 0.00473(7) 1 0
Y4 Y3+ 4 a 0.22964(2) 1.07138(6) 0.41191(3) 0.00492(7) 1 0
Y5 Y3+ 4 a 0.38385(2) 1.04032(6) 0.66810(3) 0.00488(7) 1 0
Y6 Y3+ 4 a 0.52395(2) 0.27236(6) 0.75081(3) 0.00588(7) 1 0
Y7 Y3+ 4 a 0.50196(2) 1.07814(6) 0.41828(3) 0.00692(7) 1 0
K1 K1+ 4 a -0.00864(5) 0.37816(17) 0.57549(6) 0.01427(19) 1 0
K2 K1+ 4 a 0.24664(5) 0.70758(15) 0.24850(7) 0.01323(18) 1 0
K3 K1+ 4 a 0.34898(6) 0.66832(18) 0.48819(8) 0.0211(2) 1 0
B1 B3+ 4 a 0.3704(2) 0.9035(7) 0.3235(3) 0.0068(8) 1 0
B2 B3+ 4 a 0.2356(2) 0.8881(7) 0.5912(3) 0.0059(7) 1 0
B3 B3+ 4 a 0.3798(2) 0.4881(7) 0.6790(3) 0.0082(9) 1 0
B4 B3+ 4 a 0.5140(2) 0.5246(7) 0.4007(3) 0.0069(8) 1 0
B5 B3+ 4 a 0.2242(2) 0.5070(7) 0.4070(3) 0.0074(8) 1 0
B6 B3+ 4 a 0.1225(2) 0.3776(7) 0.6656(3) 0.0056(7) 1 0
B7 B3+ 4 a 0.1157(2) 1.0142(8) 0.3332(3) 0.0071(8) 1 0
B8 B3+ 4 a 0.5414(2) 1.0697(7) 0.6099(3) 0.0075(8) 1 0
B9 B3+ 4 a 0.3704(2) 1.1764(8) 0.4945(3) 0.0080(8) 1 0
Li1 Li1+ 4 a 0.2360(5) 1.2316(18) 0.2501(7) 0.027(2) 1 0
Li2 Li1+ 4 a 0.6083(5) 0.7995(16) 0.4979(6) 0.023(2) 1 0
Li3 Li1+ 4 a -0.0059(5) 0.2263(16) 0.7431(6) 0.023(2) 1 0
O1 O2- 4 a 0.22544(16) 0.7171(5) 0.4167(2) 0.0123(6) 1 0
O2 O2- 4 a 0.54751(15) 1.0163(5) 0.53423(19) 0.0092(6) 1 0
O3 O2- 4 a 0.17197(14) 1.0545(5) 0.2943(2) 0.0087(6) 1 0
O4 O2- 4 a 0.25902(15) 0.3967(5) 0.35258(19) 0.0085(6) 1 0
O5 O2- 4 a 0.18040(15) 0.3352(5) 0.7031(2) 0.0089(6) 1 0
O6 O2- 4 a 0.18648(14) 0.3915(5) 0.45820(19) 0.0076(5) 1 0
O7 O2- 4 a 0.23217(14) 0.6771(5) 0.5868(2) 0.0089(6) 1 0
O8 O2- 4 a 0.27150(14) 1.0012(5) 0.6419(2) 0.0085(6) 1 0
O9 O2- 4 a 0.05795(14) 1.0020(6) 0.2962(2) 0.0116(6) 1 0
O10 O2- 4 a 0.06876(13) 0.4007(5) 0.70969(19) 0.0070(5) 1 0
O11 O2- 4 a 0.54684(15) 0.4061(5) 0.45379(19) 0.0089(6) 1 0
O12 O2- 4 a 0.49261(15) 0.4252(5) 0.3352(2) 0.0103(6) 1 0
O13 O2- 4 a 0.58335(17) 1.2178(5) 0.6379(2) 0.0131(6) 1 0
O14 O2- 4 a 0.49613(15) 0.9909(5) 0.65987(19) 0.0073(6) 1 0
O15 O2- 4 a 0.43394(14) 0.3654(5) 0.6901(2) 0.0110(6) 1 0
O16 O2- 4 a 0.32345(14) 0.3754(5) 0.6685(2) 0.0116(6) 1 0
O17 O2- 4 a 0.37363(14) 0.6930(5) 0.3169(2) 0.0101(6) 1 0
O18 O2- 4 a 0.12416(13) 0.3878(5) 0.58684(19) 0.0077(5) 1 0
O19 O2- 4 a 0.42718(14) 1.0175(5) 0.31322(19) 0.0072(5) 1 0
O20 O2- 4 a 0.19692(14) 1.0024(4) 0.53971(18) 0.0060(5) 1 0
O21 O2- 4 a 0.11785(13) 0.9846(5) 0.4114(2) 0.0097(6) 1 0
O22 O2- 4 a 0.38401(17) 0.6975(5) 0.6748(3) 0.0192(8) 1 0
O23 O2- 4 a 0.39633(17) 1.0231(5) 0.5379(2) 0.0147(7) 1 0
O24 O2- 4 a 0.40910(14) 0.2856(5) 0.44303(19) 0.0100(6) 1 0
O25 O2- 4 a 0.31634(15) 1.0175(5) 0.3388(2) 0.0126(7) 1 0
O26 O2- 4 a 0.30613(14) 0.2287(5) 0.4963(2) 0.0121(6) 1 0
O27 O2- 4 a 0.49976(19) 0.7296(6) 0.4124(3) 0.0233(9) 1 0
loop_
_atom_site_aniso_label
_atom_site_aniso_type_symbol
_atom_site_aniso_U_11
_atom_site_aniso_U_22
_atom_site_aniso_U_33
_atom_site_aniso_U_12
_atom_site_aniso_U_13
_atom_site_aniso_U_23
Y1 Y3+ 0.00405(14) 0.00393(14) 0.00490(18) 0.00046(11) 0.00025(12) -0.00017(13)
Y2 Y3+ 0.00436(13) 0.00498(15) 0.0067(2) 0.00043(12) -0.00151(13) -0.00035(14)
Y3 Y3+ 0.00558(13) 0.00374(14) 0.00487(19) 0.00007(11) -0.00048(13) 0.00029(13)
Y4 Y3+ 0.00467(13) 0.00479(15) 0.00531(18) -0.00021(11) 0.00061(13) 0.00010(13)
Y5 Y3+ 0.00452(13) 0.00383(14) 0.00628(17) -0.00017(12) -0.00060(13) 0.00008(14)
Y6 Y3+ 0.00439(13) 0.00519(15) 0.00804(19) -0.00001(12) -0.00166(14) 0.00032(15)
Y7 Y3+ 0.00586(14) 0.00560(16) 0.00930(19) 0.00097(11) -0.00352(14) -0.00180(14)
K1 K1+ 0.0115(4) 0.0183(5) 0.0130(5) 0.0020(3) 0.0032(3) 0.0021(4)
K2 K1+ 0.0186(4) 0.0120(4) 0.0091(4) 0.0035(3) -0.0018(4) 0.0008(3)
K3 K1+ 0.0196(5) 0.0140(5) 0.0298(7) -0.0008(4) -0.0008(5) -0.0030(5)
B1 B3+ 0.0080(16) 0.0058(17) 0.006(2) 0.0000(13) 0.0018(15) -0.0025(16)
B2 B3+ 0.0052(15) 0.0077(17) 0.005(2) -0.0001(13) -0.0015(14) -0.0002(17)
B3 B3+ 0.0072(16) 0.0053(18) 0.012(3) -0.0010(13) 0.0006(16) -0.0007(17)
B4 B3+ 0.0077(16) 0.0045(17) 0.009(2) -0.0014(13) -0.0015(14) 0.0014(16)
B5 B3+ 0.0074(17) 0.0055(17) 0.009(2) -0.0008(13) 0.0012(15) 0.0017(16)
B6 B3+ 0.0074(16) 0.0058(17) 0.004(2) 0.0008(13) 0.0004(15) 0.0013(16)
B7 B3+ 0.0042(15) 0.0108(19) 0.006(2) -0.0014(14) -0.0002(14) 0.0016(16)
B8 B3+ 0.0079(17) 0.0062(18) 0.008(2) 0.0012(14) 0.0019(15) 0.0022(16)
B9 B3+ 0.0091(17) 0.012(2) 0.003(2) 0.0002(15) -0.0011(15) -0.0041(16)
Li1 Li1+ 0.023(5) 0.045(6) 0.014(5) -0.020(4) -0.001(4) 0.011(5)
Li2 Li1+ 0.022(4) 0.024(5) 0.023(6) 0.009(4) 0.014(4) 0.012(4)
Li3 Li1+ 0.037(5) 0.020(5) 0.013(5) -0.014(4) 0.004(4) 0.002(4)
O1 O2- 0.0196(14) 0.0040(12) 0.0132(18) 0.0004(10) 0.0052(14) 0.0017(13)
O2 O2- 0.0105(13) 0.0118(14) 0.0053(15) 0.0023(11) 0.0015(11) 0.0014(11)
O3 O2- 0.0053(11) 0.0133(15) 0.0075(15) -0.0022(10) 0.0007(10) 0.0020(11)
O4 O2- 0.0111(13) 0.0075(12) 0.0068(16) 0.0013(10) 0.0042(11) 0.0014(11)
O5 O2- 0.0071(11) 0.0146(14) 0.0050(14) 0.0011(11) 0.0009(10) 0.0013(12)
O6 O2- 0.0083(12) 0.0069(12) 0.0076(15) 0.0010(10) 0.0035(10) 0.0018(11)
O7 O2- 0.0096(12) 0.0044(11) 0.0127(16) -0.0007(9) -0.0030(12) -0.0008(11)
O8 O2- 0.0104(13) 0.0058(13) 0.0094(16) -0.0019(10) -0.0041(11) 0.0001(11)
O9 O2- 0.0056(11) 0.0220(17) 0.0074(16) -0.0042(11) -0.0013(10) -0.0001(13)
O10 O2- 0.0058(11) 0.0094(13) 0.0057(15) 0.0004(10) 0.0025(10) 0.0003(11)
O11 O2- 0.0093(12) 0.0089(13) 0.0084(16) 0.0010(10) -0.0040(11) 0.0007(11)
O12 O2- 0.0098(12) 0.0157(14) 0.0055(15) -0.0013(11) -0.0024(10) -0.0003(12)
O13 O2- 0.0153(14) 0.0104(14) 0.0138(18) -0.0059(11) 0.0055(12) -0.0050(13)
O14 O2- 0.0070(11) 0.0086(12) 0.0063(16) 0.0003(9) 0.0019(10) 0.0008(11)
O15 O2- 0.0067(12) 0.0068(12) 0.0196(19) 0.0003(10) -0.0043(12) 0.0014(12)
O16 O2- 0.0067(12) 0.0075(12) 0.0205(19) 0.0000(10) -0.0053(12) 0.0000(13)
O17 O2- 0.0080(11) 0.0052(13) 0.0172(18) -0.0001(10) 0.0034(12) -0.0010(13)
O18 O2- 0.0082(11) 0.0093(13) 0.0054(15) -0.0002(9) 0.0002(10) 0.0001(11)
O19 O2- 0.0061(11) 0.0052(12) 0.0103(15) -0.0006(9) 0.0006(10) -0.0013(11)
O20 O2- 0.0073(11) 0.0051(12) 0.0055(14) -0.0001(10) -0.0028(10) 0.0000(11)
O21 O2- 0.0067(11) 0.0162(14) 0.0060(15) -0.0019(10) -0.0006(11) 0.0007(12)
O22 O2- 0.0122(13) 0.0052(13) 0.040(3) 0.0006(11) 0.0062(15) 0.0030(16)
O23 O2- 0.0192(16) 0.0125(15) 0.0124(18) 0.0034(12) -0.0055(13) 0.0017(13)
O24 O2- 0.0073(11) 0.0169(15) 0.0060(15) -0.0008(11) 0.0012(10) 0.0007(12)
O25 O2- 0.0079(12) 0.0062(12) 0.024(2) 0.0001(10) 0.0075(12) -0.0024(13)
O26 O2- 0.0052(11) 0.0220(17) 0.0090(16) 0.0014(11) 0.0019(11) -0.0005(13)
O27 O2- 0.0266(19) 0.0078(15) 0.035(3) 0.0004(12) -0.0125(19) 0.0004(17)
#End of TTdata_432925-ICSD