
#(C) 2018 by FIZ Karlsruhe - Leibniz Institute for Information Infrastructure.  All rights reserved.
data_433395-ICSD
_database_code_ICSD 433395
_audit_creation_date 2018-02-01
_chemical_name_systematic
'Lithium pentayttrium bis(silicate) tetrakis(tungstate)'
_chemical_formula_structural 'Li Y5 (Si O4)2 (W O4)4'
_chemical_formula_sum 'Li1 O24 Si2 W4 Y5'
_exptl_crystal_density_diffrn 6.39
_cell_measurement_temperature 293.
_publ_section_title

;
Seven up. The incorporation of Li+ cations in yttrium tungstate and silicate
tungstate
;
loop_
_citation_id
_citation_journal_full
_citation_year
_citation_journal_volume
_citation_page_first
_citation_page_last
_citation_journal_id_ASTM
primary 'Zeitschrift fuer Anorganische und Allgemeine Chemie (1950) (DE)' 2017
643 2050 2056 ZAACAB
loop_
_publ_author_name
'Dorn, Katharina V.'
'Schustereit, Tanja'
'Strobel, Sabine'
'Hartenbach, Ingo'
_cell_length_a 5.1208(4)
_cell_length_b 16.7335(12)
_cell_length_c 4.9368(4)
_cell_angle_alpha 90.
_cell_angle_beta 90.
_cell_angle_gamma 90.
_cell_volume 423.03
_cell_formula_units_Z 1
_symmetry_space_group_name_H-M 'P b a n Z'
_symmetry_Int_Tables_number 50
_refine_ls_R_factor_all 0.0238
loop_
_symmetry_equiv_pos_site_id
_symmetry_equiv_pos_as_xyz
1 '-x, y+1/2, z'
2 'x+1/2, -y, z'
3 'x+1/2, y+1/2, -z'
4 '-x, -y, -z'
5 'x, -y+1/2, -z'
6 '-x+1/2, y, -z'
7 '-x+1/2, -y+1/2, z'
8 'x, y, z'
loop_
_atom_type_symbol
_atom_type_oxidation_number
Li1+ 1
Y3+ 3
W6+ 6
Si4+ 4
O2- -2
loop_
_atom_site_label
_atom_site_type_symbol
_atom_site_symmetry_multiplicity
_atom_site_Wyckoff_symbol
_atom_site_fract_x
_atom_site_fract_y
_atom_site_fract_z
_atom_site_B_iso_or_equiv
_atom_site_occupancy
_atom_site_attached_hydrogens
Li1 Li1+ 4 i 0.25 0.58073(9) 0. 0.0207(3) 0.25 0
Y1 Y3+ 4 i 0.25 0.58073(9) 0. 0.0207(3) 0.75 0
Y2 Y3+ 2 c 0.25 0.75 0.5 0.0160(3) 1 0
W1 W6+ 4 j 0.25 0.39770(3) 0.5 0.01811(18) 1 0
Si1 Si4+ 2 a 0.25 0.25 0. 0.0118(8) 1 0
O1 O2- 8 m 0.1182(13) 0.4652(4) 0.2547(16) 0.0192(15) 1 0
O2 O2- 8 m 0.0421(14) 0.6385(4) 0.3272(13) 0.0201(15) 1 0
O3 O2- 8 m 0.0592(15) 0.3043(5) 0.1980(16) 0.0283(17) 1 0
loop_
_atom_site_aniso_label
_atom_site_aniso_type_symbol
_atom_site_aniso_U_11
_atom_site_aniso_U_22
_atom_site_aniso_U_33
_atom_site_aniso_U_12
_atom_site_aniso_U_13
_atom_site_aniso_U_23
Li1 Li1+ 0.0236(8) 0.0187(7) 0.0198(7) 0. 0.0070(19) 0.
Y1 Y3+ 0.0236(8) 0.0187(7) 0.0198(7) 0. 0.0070(19) 0.
Y2 Y3+ 0.0111(7) 0.0182(8) 0.0186(7) 0. 0. 0.
W1 W6+ 0.0111(2) 0.0196(3) 0.0236(3) 0. -0.0004(6) 0.
Si1 Si4+ 0.0081(18) 0.016(2) 0.0112(18) 0. 0. 0.
O1 O2- 0.017(4) 0.021(4) 0.020(4) 0.008(3) -0.001(3) -0.008(3)
O2 O2- 0.024(4) 0.018(4) 0.018(3) 0.007(3) -0.002(3) 0.003(3)
O3 O2- 0.025(4) 0.035(4) 0.025(4) -0.007(3) 0.013(4) -0.003(3)
#End of TTdata_433395-ICSD