
#(C) 2017 by FIZ Karlsruhe - Leibniz Institute for Information Infrastructure.  All rights reserved.
data_46011-ICSD
_database_code_ICSD 46011
_audit_creation_date 1983-12-31
_audit_update_record 2008-08-01
_chemical_name_systematic 'Dilithium uranium chloride'
_chemical_formula_structural 'Li2 U Cl6'
_chemical_formula_sum 'Cl6 Li2 U1'
_exptl_crystal_density_diffrn 3.54
_publ_section_title

;
The structure of Na2 U Cl6 and Li2 U Cl6 from multiphase powder neutron
profile refinement
;
loop_
_citation_id
_citation_journal_full
_citation_year
_citation_journal_volume
_citation_page_first
_citation_page_last
_citation_journal_id_ASTM
primary 'Journal of Applied Crystallography' 1983 16 164 170 JACGAR
loop_
_publ_author_name
'Bendall, P.J.'
'Fitch, A.N.'
'Fender, B.E.F.'
_cell_length_a 11.191(5)
_cell_length_b 11.191(5)
_cell_length_c 6.0365(1)
_cell_angle_alpha 90.
_cell_angle_beta 90.
_cell_angle_gamma 120.
_cell_volume 654.72
_cell_formula_units_Z 3
_symmetry_space_group_name_H-M 'P 63/m m c'
_symmetry_Int_Tables_number 194
_refine_ls_R_factor_all 0.076
loop_
_symmetry_equiv_pos_site_id
_symmetry_equiv_pos_as_xyz
1 'x, x-y, -z+1/2'
2 '-x+y, y, -z+1/2'
3 '-y, -x, -z+1/2'
4 '-x+y, -x, -z+1/2'
5 '-y, x-y, -z+1/2'
6 'x, y, -z+1/2'
7 '-x, -x+y, z+1/2'
8 'x-y, -y, z+1/2'
9 'y, x, z+1/2'
10 'x-y, x, z+1/2'
11 'y, -x+y, z+1/2'
12 '-x, -y, z+1/2'
13 '-x, -x+y, -z'
14 'x-y, -y, -z'
15 'y, x, -z'
16 'x-y, x, -z'
17 'y, -x+y, -z'
18 '-x, -y, -z'
19 'x, x-y, z'
20 '-x+y, y, z'
21 '-y, -x, z'
22 '-x+y, -x, z'
23 '-y, x-y, z'
24 'x, y, z'
loop_
_atom_type_symbol
_atom_type_oxidation_number
Li1+ 1
U4+ 4
Cl1- -1
loop_
_atom_site_label
_atom_site_type_symbol
_atom_site_symmetry_multiplicity
_atom_site_Wyckoff_symbol
_atom_site_fract_x
_atom_site_fract_y
_atom_site_fract_z
_atom_site_B_iso_or_equiv
_atom_site_occupancy
_atom_site_attached_hydrogens
Li1 Li1+ 12 i 0.338(5) 0 0 5.9(4) 0.5 0
U1 U4+ 2 a 0 0 0 2.5(5) 0.5 0
U2 U4+ 4 f 0.3333 0.6667 0.504(4) 2.9(3) 0.5 0
Cl1 Cl1- 6 h 0.1076(3) 0.2152(6) 0.25 . 1. 0
Cl2 Cl1- 6 h -.2185(3) -.4370(6) 0.25 . 1. 0
Cl3 Cl1- 6 h 0.4455(4) 0.8910(8) 0.25 . 1. 0
loop_
_atom_site_aniso_label
_atom_site_aniso_type_symbol
_atom_site_aniso_U_11
_atom_site_aniso_U_22
_atom_site_aniso_U_33
_atom_site_aniso_U_12
_atom_site_aniso_U_13
_atom_site_aniso_U_23
Cl1 Cl1- 4.0(3) 2.8(3) 3.5(5) 1.4(2) 0 0
Cl2 Cl1- 4.0(3) 5.0(4) 5.0(5) 2.5(2) 0 0
Cl3 Cl1- 3.0(2) 2.3(3) 2.7(3) 1.2(2) 0 0
#End of TTdata_46011-ICSD