
#(C) 2018 by FIZ Karlsruhe - Leibniz Institute for Information Infrastructure.  All rights reserved.
data_48010-ICSD
_database_code_ICSD 48010
_audit_creation_date 1984-12-31
_audit_update_record 1990-11-30
_chemical_name_systematic
'Lithium iron(III) antimony(V) tin(IV) oxide (4.66/4/2/1.32/16) - Low form'
_chemical_formula_structural 'Li4.66 Fe4 Sb2 Sn1.32 O16'
_chemical_formula_sum 'Fe4 Li4.66 O16 Sb2 Sn1.32'
_chemical_name_structure_type LiFeSnO4
_exptl_crystal_density_diffrn 5.09
_cell_measurement_temperature 1073.
_publ_section_title

;
Oxydes M3 O4 a empilement hexagonal double type D.H. Li Fe Sn O4 (M =
Li,Fe,Sb,Sn): Transitions reversibles ramsdellite - D.H. Li Fe Sn O4
;
loop_
_citation_id
_citation_journal_full
_citation_year
_citation_journal_volume
_citation_page_first
_citation_page_last
_citation_journal_id_ASTM
primary 'Journal of Solid State Chemistry' 1984 51 44 52 JSSCBI
loop_
_publ_author_name
'Lacorre, P.'
'Hervieu, M.'
'Choisnet, J.'
'Raveau, B.'
_cell_length_a 5.950(2)
_cell_length_b 5.950(2)
_cell_length_c 9.701(4)
_cell_angle_alpha 90.
_cell_angle_beta 90.
_cell_angle_gamma 120.
_cell_volume 297.43
_cell_formula_units_Z 1
_symmetry_space_group_name_H-M 'P 63 m c'
_symmetry_Int_Tables_number 186
_refine_ls_R_factor_all 0.04
loop_
_symmetry_equiv_pos_site_id
_symmetry_equiv_pos_as_xyz
1 '-x, -x+y, z+1/2'
2 'x-y, -y, z+1/2'
3 'y, x, z+1/2'
4 'x-y, x, z+1/2'
5 'y, -x+y, z+1/2'
6 '-x, -y, z+1/2'
7 'x, x-y, z'
8 '-x+y, y, z'
9 '-y, -x, z'
10 '-x+y, -x, z'
11 '-y, x-y, z'
12 'x, y, z'
loop_
_atom_type_symbol
_atom_type_oxidation_number
Sb5+ 5
Sn4+ 4
Fe3+ 3
Sb5+ 5
Sn4+ 4
Li1+ 1
Fe3+ 3
Li1+ 1
O2- -2
loop_
_atom_site_label
_atom_site_type_symbol
_atom_site_symmetry_multiplicity
_atom_site_Wyckoff_symbol
_atom_site_fract_x
_atom_site_fract_y
_atom_site_fract_z
_atom_site_B_iso_or_equiv
_atom_site_occupancy
_atom_site_attached_hydrogens
Sb1 Sb5+ 2 b 0.3333 0.6667 0.4999(5) 0.6 0.5723 0
Sn1 Sn4+ 2 b 0.3333 0.6667 0.4999(5) 0.6 0.3777 0
Fe1 Fe3+ 2 b 0.3333 0.6667 0.4999(5) 0.6 0.05 0
Fe2 Fe3+ 6 c 0.1692(4) -.1692(4) 0.2216(6) 0.99 0.53 0
Sb2 Sb5+ 6 c 0.1692(4) -.1692(4) 0.2216(6) 0.99 0.1446 0
Sn2 Sn4+ 6 c 0.1692(4) -.1692(4) 0.2216(6) 0.99 0.0954 0
Li1 Li1+ 6 c 0.1692(4) -.1692(4) 0.2216(6) 0.99 0.23 0
Li2 Li1+ 2 b 0.3333 0.6667 -.075(2) 1.95 0.64 0
Fe3 Fe3+ 2 b 0.3333 0.6667 -.075(2) 1.95 0.36 0
Li3 Li1+ 2 a 0 0 0.510(18) 1. 1. 0
O1 O2- 2 a 0 0 0.3146(26) 1.89 1. 0
O2 O2- 2 b 0.3333 0.6667 0.1216(18) 1.07 1. 0
O3 O2- 6 c 0.4784(7) -.4784(7) 0.3609(22) 2.44 1. 0
O4 O2- 6 c 0.1607(24) -.1607(24) 0.6077(18) 1.27 1. 0
#End of TTdata_48010-ICSD