
#(C) 2017 by FIZ Karlsruhe - Leibniz Institute for Information Infrastructure.  All rights reserved.
data_5007-ICSD
_database_code_ICSD 5007
_audit_creation_date 2015-02-01
_chemical_name_systematic 'Lithium magesium hexafluoroaluminate'
_chemical_formula_structural 'Li Mg Al F6'
_chemical_formula_sum 'Al1 F6 Li1 Mg1'
_exptl_crystal_density_diffrn 3.37
_publ_section_title
'Evolution structurale des hexafluorures de formule Li M M' F6'
_publ_section_comment 'Cell and Type only determined'
loop_
_citation_id
_citation_journal_full
_citation_year
_citation_journal_volume
_citation_page_first
_citation_page_last
_citation_journal_id_ASTM
primary 'Bulletin de la Societe Chimique de France (Vol=Year)' 1970 1970 3485
3487 BSCFAS
loop_
_publ_author_name
'Portier, J.'
'Menil, F.'
'Hagenmuller, P.'
_cell_length_a 8.315
_cell_length_b 8.315
_cell_length_c 4.252
_cell_angle_alpha 90.
_cell_angle_beta 90.
_cell_angle_gamma 120.
_cell_volume 254.59
_cell_formula_units_Z 3
_symmetry_space_group_name_H-M 'P 3 2 1'
_symmetry_Int_Tables_number 150
_refine_ls_R_factor_all 0.032
loop_
_symmetry_equiv_pos_site_id
_symmetry_equiv_pos_as_xyz
1 'x-y, -y, -z'
2 '-x, -x+y, -z'
3 'y, x, -z'
4 '-x+y, -x, z'
5 '-y, x-y, z'
6 'x, y, z'
loop_
_atom_type_symbol
_atom_type_oxidation_number
Mg2+ 2
Li1+ 1
Al3+ 3
F1- -1
loop_
_atom_site_label
_atom_site_type_symbol
_atom_site_symmetry_multiplicity
_atom_site_Wyckoff_symbol
_atom_site_fract_x
_atom_site_fract_y
_atom_site_fract_z
_atom_site_B_iso_or_equiv
_atom_site_occupancy
_atom_site_attached_hydrogens
Mg1 Mg2+ 3 e 0.634 0 0 . 1. 0
Li1 Li1+ 3 f 0.333 0 0.5 . 1. 0
Al1 Al3+ 1 a 0 0 0 . 1. 0
Al2 Al3+ 2 d 0.3333 0.6667 0.502 . 1. 0
F1 F1- 6 g 0.098 0.889 0.78 . 1. 0
F2 F1- 6 g 0.456 0.58 0.728 . 1. 0
F3 F1- 6 g 0.223 0.767 0.282 . 1. 0
#End of TTdata_5007-ICSD