
#(C) 2017 by FIZ Karlsruhe - Leibniz Institute for Information Infrastructure.  All rights reserved.
data_50382-ICSD
_database_code_ICSD 50382
_audit_creation_date 1999-11-30
_chemical_name_systematic 'Dilithium uranium bromide'
_chemical_formula_structural 'Li2 U Br6'
_chemical_formula_sum 'Br6 Li2 U1'
_exptl_crystal_density_diffrn 4.67
_cell_measurement_temperature 300.
_publ_section_title

;
Phase transitions in the ionic conductor Li2 U Br6 studied by neutron
diffraction
;
loop_
_citation_id
_citation_journal_full
_citation_year
_citation_journal_volume
_citation_page_first
_citation_page_last
_citation_journal_id_ASTM
primary 'Solid State Ionics' 1998 106 55 69 SSIOD3
loop_
_publ_author_name
'Maletka, K.'
'Ressouche, E.'
'Rundloef, H.'
'Tellgren, R.'
'Delaplane, R.'
'Szczepaniak, W.'
'Zablocka-Malicka, M.'
_cell_length_a 6.8893(4)
_cell_length_b 6.8893(4)
_cell_length_c 12.6462(9)
_cell_angle_alpha 90.
_cell_angle_beta 90.
_cell_angle_gamma 120.
_cell_volume 519.81
_cell_formula_units_Z 2
_symmetry_space_group_name_H-M 'P -3 1 m'
_symmetry_Int_Tables_number 162
_refine_ls_R_factor_all 0.027
loop_
_symmetry_equiv_pos_site_id
_symmetry_equiv_pos_as_xyz
1 '-x+y, y, -z'
2 'x, x-y, -z'
3 '-y, -x, -z'
4 'x-y, x, -z'
5 'y, -x+y, -z'
6 '-x, -y, -z'
7 'x-y, -y, z'
8 '-x, -x+y, z'
9 'y, x, z'
10 '-x+y, -x, z'
11 '-y, x-y, z'
12 'x, y, z'
loop_
_atom_type_symbol
_atom_type_oxidation_number
Br1- -1
U4+ 4
Li1+ 1
loop_
_atom_site_label
_atom_site_type_symbol
_atom_site_symmetry_multiplicity
_atom_site_Wyckoff_symbol
_atom_site_fract_x
_atom_site_fract_y
_atom_site_fract_z
_atom_site_B_iso_or_equiv
_atom_site_occupancy
_atom_site_attached_hydrogens
Br1 Br1- 6 k 0.3308(2) 0 0.1265(2) 1.85(5) 1. 0
Br2 Br1- 6 k 0.3272(2) 0 0.6244(2) 1.85(5) 1. 0
U1 U4+ 1 a 0 0 0 1.8(2) 1. 0
U2 U4+ 2 d 0.3333 0.6667 0.5 1.8(2) 0.5 0
Li1 Li1+ 2 d 0.3333 0.6667 0.5 4.(5) 0.5 0
Li2 Li1+ 1 b 0 0 0.5 4.(5) 1. 0
Li3 Li1+ 2 c 0.3333 0.6667 0 4.(5) 1. 0
#End of TTdata_50382-ICSD