
#(C) 2018 by FIZ Karlsruhe - Leibniz Institute for Information Infrastructure.  All rights reserved.
data_50535-ICSD
_database_code_ICSD 50535
_audit_creation_date 1999-11-30
_audit_update_record 2003-04-01
_chemical_name_systematic 'Lithium iron catena-disilicate'
_chemical_formula_structural 'Li Fe (Si2 O6)'
_chemical_formula_sum 'Fe1 Li1 O6 Si2'
_chemical_name_structure_type Pyroxene-CaMg(SiO3)2
_chemical_name_mineral Acmite
_exptl_crystal_density_diffrn 3.43
_cell_measurement_temperature 298.
_publ_section_title

;
Single crystal Moessbauer and neutron powder diffraction measurements on the
synthetic clinopyroxene Li-acmite Li Fe Si2 O6
;
loop_
_citation_id
_citation_journal_full
_citation_year
_citation_journal_volume
_citation_page_first
_citation_page_last
_citation_journal_id_ASTM
primary 'Zeitschrift fuer Kristallographie (1979-2010)' 1998 213 101 107 ZEKRDZ
loop_
_publ_author_name
'Lottermoser, W.'
'Redhammer, G.J.'
'Forcher, K.'
'Amthauer, G.'
'Paulus, W.'
'Andre, G.'
'Treutmann, W.'
_cell_length_a 9.6655(2)
_cell_length_b 8.6611(2)
_cell_length_c 5.2933(1)
_cell_angle_alpha 90.
_cell_angle_beta 110.18(1)
_cell_angle_gamma 90.
_cell_volume 415.92
_cell_formula_units_Z 4
_symmetry_space_group_name_H-M 'C 1 2/c 1'
_symmetry_Int_Tables_number 15
_refine_ls_R_factor_all 0.0327
loop_
_symmetry_equiv_pos_site_id
_symmetry_equiv_pos_as_xyz
1 'x, -y, z+1/2'
2 '-x, -y, -z'
3 '-x, y, -z+1/2'
4 'x, y, z'
5 'x+1/2, -y+1/2, z+1/2'
6 '-x+1/2, -y+1/2, -z'
7 '-x+1/2, y+1/2, -z+1/2'
8 'x+1/2, y+1/2, z'
loop_
_atom_type_symbol
_atom_type_oxidation_number
Fe3+ 3
Li1+ 1
Si4+ 4
O2- -2
loop_
_atom_site_label
_atom_site_type_symbol
_atom_site_symmetry_multiplicity
_atom_site_Wyckoff_symbol
_atom_site_fract_x
_atom_site_fract_y
_atom_site_fract_z
_atom_site_B_iso_or_equiv
_atom_site_occupancy
_atom_site_attached_hydrogens
Fe1 Fe3+ 4 e 0 0.8980(2) 0.25 0.54(3) 1. 0
Li1 Li1+ 4 e 0 0.2595(10) 0.25 1.5(1) 1. 0
Si1 Si4+ 8 f 0.2961(2) 0.0894(3) 0.2655(4) 0.46(4) 1. 0
O1 O2- 8 f 0.1156(2) 0.0847(2) 0.1484(3) 0.57(3) 1. 0
O2 O2- 8 f 0.3664(2) 0.2583(2) 0.3249(3) 0.87(3) 1. 0
O3 O2- 8 f 0.3562(2) -.0013(2) 0.0555(4) 0.88(4) 1. 0
#End of TTdata_50535-ICSD