
#(C) 2018 by FIZ Karlsruhe - Leibniz Institute for Information Infrastructure.  All rights reserved.
data_51185-ICSD
_database_code_ICSD 51185
_audit_creation_date 2002-04-01
_chemical_name_systematic 'Lithium titanium oxide (1.08/1.89/4)'
_chemical_formula_structural 'Li1.084 Ti1.886 O4'
_chemical_formula_sum 'Li1.084 O4 Ti1.886'
_chemical_name_structure_type Li.5TiO2
_exptl_crystal_density_diffrn 3.76
_publ_section_title

;
A new solid solution series linking Li Ti2 O4 and Li2 Ti3 O7 ramsdellites: a
combined x-ray and neutron study
;
loop_
_citation_id
_citation_journal_full
_citation_year
_citation_journal_volume
_citation_page_first
_citation_page_last
_citation_journal_id_ASTM
primary 'Journal of Solid State Chemistry' 1998 141 365 372 JSSCBI
loop_
_publ_author_name
'Gover, R.K.B.'
'Irvine, J.T.S.'
_cell_length_a 5.0356(1)
_cell_length_b 9.6394(2)
_cell_length_c 2.9464(5)
_cell_angle_alpha 90.
_cell_angle_beta 90.
_cell_angle_gamma 90.
_cell_volume 143.02
_cell_formula_units_Z 2
_symmetry_space_group_name_H-M 'P b n m'
_symmetry_Int_Tables_number 62
_refine_ls_R_factor_all 0.0327
loop_
_symmetry_equiv_pos_site_id
_symmetry_equiv_pos_as_xyz
1 '-x+1/2, y+1/2, z'
2 'x, y, -z+1/2'
3 'x+1/2, -y+1/2, z+1/2'
4 '-x, -y, -z'
5 'x+1/2, -y+1/2, -z'
6 '-x, -y, z+1/2'
7 '-x+1/2, y+1/2, -z+1/2'
8 'x, y, z'
loop_
_atom_type_symbol
_atom_type_oxidation_number
Li1+ 1
Ti3+ 3.667
Li1+ 1
O2- -2
loop_
_atom_site_label
_atom_site_type_symbol
_atom_site_symmetry_multiplicity
_atom_site_Wyckoff_symbol
_atom_site_fract_x
_atom_site_fract_y
_atom_site_fract_z
_atom_site_B_iso_or_equiv
_atom_site_occupancy
_atom_site_attached_hydrogens
Li1 Li1+ 4 c -.0598(2) 0.4675(2) 0.25 . 0.479(1) 0
Ti1 Ti3+ 4 c -.0196(3) 0.1416(2) 0.25 . 0.943(4) 0
Li2 Li1+ 4 c -.0196(3) 0.1416(2) 0.25 . 0.063(7) 0
O1 O2- 4 c 0.6953(2) 0.2765(1) 0.25 . 1. 0
O2 O2- 4 c 0.2031(2) -.03531(9) 0.25 . 1. 0
loop_
_atom_site_aniso_label
_atom_site_aniso_type_symbol
_atom_site_aniso_B_11
_atom_site_aniso_B_22
_atom_site_aniso_B_33
_atom_site_aniso_B_12
_atom_site_aniso_B_13
_atom_site_aniso_B_23
Li1 Li1+ 1.67(43) 27.90(24) 8.22(87) 1.35(76) 0 0
Ti1 Ti3+ 1.37(7) 0.92(6) 0.46(5) 0.24(6) 0 0
Li2 Li1+ 1.37(7) 0.92(6) 0.46(5) 0.24(6) 0 0
O1 O2- 1.32(4) 1.62(6) 0.60(5) 0.73(5) 0 0
O2 O2- 0.78(4) 1.13(5) 0.96(5) -.16(4) 0 0
#End of TTdata_51185-ICSD