
#(C) 2018 by FIZ Karlsruhe - Leibniz Institute for Information Infrastructure.  All rights reserved.
data_51232-ICSD
_database_code_ICSD 51232
_audit_creation_date 2002-04-01
_audit_update_record 2012-08-01
_chemical_name_systematic 'Lithium iron titanium oxide (0.64/0.26/2.1/5)'
_chemical_formula_structural 'Li0.64 Fe0.26 Ti2.1 O5'
_chemical_formula_sum 'Fe0.26 Li0.64 O5 Ti2.1'
_chemical_name_structure_type Pseudobrookite-Fe2TiO5
_chemical_name_mineral Pseudobrookite
_exptl_crystal_density_diffrn 3.7
_publ_section_title
'Nonstoichiometric Li-pseudobrookite(ss) in the Li2 O-Fe2 O3-Ti O2 system'
loop_
_citation_id
_citation_journal_full
_citation_year
_citation_journal_volume
_citation_page_first
_citation_page_last
_citation_journal_id_ASTM
primary 'Journal of Solid State Chemistry' 1998 141 221 228 JSSCBI
loop_
_publ_author_name
'Grey, I.E.'
'Li, C.'
'Ness, T.'
_cell_length_a 9.6576(2)
_cell_length_b 3.7532(1)
_cell_length_c 9.8820(2)
_cell_angle_alpha 90.
_cell_angle_beta 90.
_cell_angle_gamma 90.
_cell_volume 358.19
_cell_formula_units_Z 4
_symmetry_space_group_name_H-M 'C c m m'
_symmetry_Int_Tables_number 63
_refine_ls_R_factor_all 0.01
loop_
_symmetry_equiv_pos_site_id
_symmetry_equiv_pos_as_xyz
1 'x, -y, -z+1/2'
2 '-x, -y, z+1/2'
3 'x, -y, z'
4 '-x, -y, -z'
5 '-x, y, z+1/2'
6 'x, y, -z+1/2'
7 '-x, y, -z'
8 'x, y, z'
9 'x+1/2, -y+1/2, -z+1/2'
10 '-x+1/2, -y+1/2, z+1/2'
11 'x+1/2, -y+1/2, z'
12 '-x+1/2, -y+1/2, -z'
13 '-x+1/2, y+1/2, z+1/2'
14 'x+1/2, y+1/2, -z+1/2'
15 '-x+1/2, y+1/2, -z'
16 'x+1/2, y+1/2, z'
loop_
_atom_type_symbol
_atom_type_oxidation_number
Li1+ 1
Fe3+ 3.692
Ti4+ 4
Fe3+ 3.692
Ti4+ 4
O2- -2
loop_
_atom_site_label
_atom_site_type_symbol
_atom_site_symmetry_multiplicity
_atom_site_Wyckoff_symbol
_atom_site_fract_x
_atom_site_fract_y
_atom_site_fract_z
_atom_site_B_iso_or_equiv
_atom_site_occupancy
_atom_site_attached_hydrogens
Li1 Li1+ 4 c 0.8041 0 0.25 0.5 0.64 0
Fe1 Fe3+ 4 c 0.8041 0 0.25 0.61(6) 0.16 0
Ti1 Ti4+ 4 c 0.8041 0 0.25 0.61(6) 0.2 0
Fe2 Fe3+ 8 f 0.1352(2) 0 0.0646(3) . 0.05 0
Ti2 Ti4+ 8 f 0.1352(2) 0 0.0646(3) . 0.95 0
O1 O2- 4 c 0.2222(2) 0 0.25 . 1. 0
O2 O2- 8 f 0.0461(1) 0 0.8845(1) . 1. 0
O3 O2- 8 f 0.3149(1) 0 0.9398(1) . 1. 0
loop_
_atom_site_aniso_label
_atom_site_aniso_type_symbol
_atom_site_aniso_U_11
_atom_site_aniso_U_22
_atom_site_aniso_U_33
_atom_site_aniso_U_12
_atom_site_aniso_U_13
_atom_site_aniso_U_23
Fe2 Fe3+ 0.24(9) 0.32(9) 0.63(9) 0 0.02(2) 0
Ti2 Ti4+ 0.24(9) 0.32(9) 0.63(9) 0 0.02(2) 0
O1 O2- 0.79(8) 1.18(7) 0.39(6) 0 0 0
O2 O2- 0.39(5) 2.05(6) 0.47(4) 0 0.01(1) 0
O3 O2- 0.63(5) 0.33(4) 0.87(5) 0 0.01(1) 0
#End of TTdata_51232-ICSD