
#(C) 2018 by FIZ Karlsruhe - Leibniz Institute for Information Infrastructure.  All rights reserved.
data_51666-ICSD
_database_code_ICSD 51666
_audit_creation_date 2003-10-01
_chemical_name_systematic
'Lithium iron(III) manganese(III) oxide (1.06/4.26/0.75/8)'
_chemical_formula_structural
'(Li0.57 Fe0.33 Mn0.1) (Li0.37 Fe2.06 Mn0.65) (Li0.12 Fe1.87) O8'
_chemical_formula_sum 'Fe4.26 Li1.06 Mn0.75 O8'
_chemical_name_structure_type Spinel-LiFe5O8
_exptl_crystal_density_diffrn 4.77
_publ_section_title

;
Effect of an excess of lithium ions on the formation of Mn-substituted Li Fe5
O8 with an ordered spinel structure
;
loop_
_citation_id
_citation_journal_full
_citation_year
_citation_journal_volume
_citation_page_first
_citation_page_last
_citation_journal_id_ASTM
primary 'Materials Science Forum' 2001 378 551 556 MSFOEP
loop_
_publ_author_name
'Wolska, E.'
'Piszora, P.'
'Darul, J.'
'Nowicki, W.'
_cell_length_a 8.32829(14)
_cell_length_b 8.32829(14)
_cell_length_c 8.32829(14)
_cell_angle_alpha 90
_cell_angle_beta 90
_cell_angle_gamma 90
_cell_volume 577.65
_cell_formula_units_Z 4
_symmetry_space_group_name_H-M 'P 43 3 2'
_symmetry_Int_Tables_number 212
_refine_ls_R_factor_all 0.0202
loop_
_symmetry_equiv_pos_site_id
_symmetry_equiv_pos_as_xyz
1 'z+1/4, y+3/4, -x+3/4'
2 '-z+3/4, y+1/4, x+3/4'
3 'y+1/4, x+3/4, -z+3/4'
4 '-y+3/4, x+1/4, z+3/4'
5 'x+1/4, z+3/4, -y+3/4'
6 '-x+3/4, z+1/4, y+3/4'
7 'z+3/4, -y+3/4, x+1/4'
8 '-z+1/4, -y+1/4, -x+1/4'
9 'y+3/4, -x+3/4, z+1/4'
10 '-y+1/4, -x+1/4, -z+1/4'
11 'x+3/4, -z+3/4, y+1/4'
12 '-x+1/4, -z+1/4, -y+1/4'
13 '-y+1/2, -z, x+1/2'
14 '-y, z+1/2, -x+1/2'
15 'y+1/2, -z+1/2, -x'
16 'y, z, x'
17 'z+1/2, -x+1/2, -y'
18 '-z+1/2, -x, y+1/2'
19 '-z, x+1/2, -y+1/2'
20 'z, x, y'
21 '-x+1/2, -y, z+1/2'
22 '-x, y+1/2, -z+1/2'
23 'x+1/2, -y+1/2, -z'
24 'x, y, z'
loop_
_atom_type_symbol
_atom_type_oxidation_number
Li1+ 1
Fe3+ 3
Mn3+ 3
Li1+ 1
Fe3+ 3
Mn3+ 3
Fe3+ 3
Li1+ 1
O2- -2
loop_
_atom_site_label
_atom_site_type_symbol
_atom_site_symmetry_multiplicity
_atom_site_Wyckoff_symbol
_atom_site_fract_x
_atom_site_fract_y
_atom_site_fract_z
_atom_site_B_iso_or_equiv
_atom_site_occupancy
_atom_site_attached_hydrogens
Li1 Li1+ 4 b 0.625 0.625 0.625 0.0225(6) 0.573(6) 0
Fe1 Fe3+ 4 b 0.625 0.625 0.625 0.0028(6) 0.325(6) 0
Mn1 Mn3+ 4 b 0.625 0.625 0.625 0.0028(6) 0.103(6) 0
Li2 Li1+ 12 d 0.125 0.3693(7) -.1193(7) 0.0075(6) 0.122(2) 0
Fe2 Fe3+ 12 d 0.125 0.3693(7) -.1193(7) 0.0075(6) 0.685(2) 0
Mn2 Mn3+ 12 d 0.125 0.3693(7) -.1193(7) 0.0075(6) 0.216(2) 0
Fe3 Fe3+ 8 c 0.0003(10) 0.0003(10) 0.0003(10) 0.0061(6) 0.936(3) 0
Li3 Li1+ 8 c 0.0003(10) 0.0003(10) 0.0003(10) 0.0061(6) 0.064(3) 0
O1 O2- 8 c 0.3811(35) 0.3811(35) 0.3811(35) 0.0030(6) 1. 0
O2 O2- 24 e 0.1205(31) 0.1203(15) 0.3802(18) 0.0030(6) 1. 0
#End of TTdata_51666-ICSD