
#(C) 2017 by FIZ Karlsruhe - Leibniz Institute for Information Infrastructure.  All rights reserved.
data_55078-ICSD
_database_code_ICSD 55078
_audit_creation_date 2005-04-01
_audit_update_record 2014-08-01
_chemical_name_systematic 'Tetraamminelithium bromide'
_chemical_formula_structural '(Li (N H3)4) Br'
_chemical_formula_sum 'H12 Br1 Li1 N4'
_chemical_name_structure_type Li(NH3)4Br
_exptl_crystal_density_diffrn 1.29
_publ_section_title

;
Vergleich der Kristallstrukturen der Tetraammoniakate von Lithiumhalogeniden,
Li Br * 4(N H3) und Li I * 4(N H3), mit der Struktur von
Tetramethylammoniumiodid, N (C H3)4 I
;
loop_
_citation_id
_citation_journal_full
_citation_year
_citation_journal_volume
_citation_page_first
_citation_page_last
_citation_journal_id_ASTM
primary 'Zeitschrift fuer Anorganische und Allgemeine Chemie (1950) (DE)' 2004
630 645 648 ZAACAB
loop_
_publ_author_name
'Jacobs, H.'
'Barlage, H.'
'Friedriszik, M.'
_cell_length_a 11.947(5)
_cell_length_b 7.047(4)
_cell_length_c 9.472(3)
_cell_angle_alpha 90
_cell_angle_beta 90
_cell_angle_gamma 90
_cell_volume 797.45
_cell_formula_units_Z 4
_symmetry_space_group_name_H-M 'P n m a'
_symmetry_Int_Tables_number 62
_refine_ls_R_factor_all 0.061
loop_
_symmetry_equiv_pos_site_id
_symmetry_equiv_pos_as_xyz
1 'x+1/2, y, -z+1/2'
2 'x, -y+1/2, z'
3 '-x+1/2, y+1/2, z+1/2'
4 '-x, -y, -z'
5 '-x+1/2, -y, z+1/2'
6 '-x, y+1/2, -z'
7 'x+1/2, -y+1/2, -z+1/2'
8 'x, y, z'
loop_
_atom_type_symbol
_atom_type_oxidation_number
Br1- -1
N3- -3
Li1+ 1
H1+ 1
loop_
_atom_site_label
_atom_site_type_symbol
_atom_site_symmetry_multiplicity
_atom_site_Wyckoff_symbol
_atom_site_fract_x
_atom_site_fract_y
_atom_site_fract_z
_atom_site_B_iso_or_equiv
_atom_site_occupancy
_atom_site_attached_hydrogens
Br1 Br1- 4 c 0.1871(1) 0.25 0.3480(2) 5.63(3) 1. 0
N1 N3- 4 c 0.179(2) 0.25 0.962(2) 11.2(6) 1. 0
N2 N3- 4 c 0.378(2) 0.25 0.651(2) 12.4(3) 1. 0
N3 N3- 8 d 0.0819(7) 0.015(1) 0.6787(9) 6.0(2) 1. 0
Li1 Li1+ 4 c 0.052(3) 0.25 0.801(3) 5.9(6) 1. 0
#End of TTdata_55078-ICSD