
#(C) 2018 by FIZ Karlsruhe - Leibniz Institute for Information Infrastructure.  All rights reserved.
data_55169-ICSD
_database_code_ICSD 55169
_audit_creation_date 2005-10-01
_chemical_name_systematic
'Lithium iron(III) scandium catena-disilicate (1/0.57/0.43/1)'
_chemical_formula_structural 'Li Fe0.573 Sc0.426 (Si2 O6)'
_chemical_formula_sum 'Fe0.573 Li1 O6 Sc0.426 Si2'
_chemical_name_structure_type Pyroxene-CaMg(SiO3)2
_chemical_name_mineral Clinopyroxene
_exptl_crystal_density_diffrn 3.27
_cell_measurement_temperature 295.
_publ_section_title

;
Structural variation and crystal chemistry of Li Me(3+) Si2 O6 clinopyroxenes
Me(3+) = Al, Ga, Cr, V, Fe, Sc and In
;
loop_
_citation_id
_citation_journal_full
_citation_year
_citation_journal_volume
_citation_page_first
_citation_page_last
_citation_journal_id_ASTM
primary 'Zeitschrift fuer Kristallographie (1979-2010)' 2004 219 278 294 ZEKRDZ
loop_
_publ_author_name
'Redhammer, G.J.'
'Roth, G.'
_cell_length_a 9.723(3)
_cell_length_b 8.795(3)
_cell_length_c 5.322(1)
_cell_angle_alpha 90
_cell_angle_beta 110.25(3)
_cell_angle_gamma 90
_cell_volume 426.97
_cell_formula_units_Z 4
_symmetry_space_group_name_H-M 'C 1 2/c 1'
_symmetry_Int_Tables_number 15
_refine_ls_R_factor_all 0.0194
loop_
_symmetry_equiv_pos_site_id
_symmetry_equiv_pos_as_xyz
1 'x, -y, z+1/2'
2 '-x, -y, -z'
3 '-x, y, -z+1/2'
4 'x, y, z'
5 'x+1/2, -y+1/2, z+1/2'
6 '-x+1/2, -y+1/2, -z'
7 '-x+1/2, y+1/2, -z+1/2'
8 'x+1/2, y+1/2, z'
loop_
_atom_type_symbol
_atom_type_oxidation_number
Li1+ 1
Fe3+ 3
Sc3+ 3
Si4+ 4
O2- -2
loop_
_atom_site_label
_atom_site_type_symbol
_atom_site_symmetry_multiplicity
_atom_site_Wyckoff_symbol
_atom_site_fract_x
_atom_site_fract_y
_atom_site_fract_z
_atom_site_B_iso_or_equiv
_atom_site_occupancy
_atom_site_attached_hydrogens
Li1 Li1+ 4 e 0 0.2586(6) 0.25 0.0192(10) 1. 0
Fe1 Fe3+ 4 e 0 0.89696(4) 0.25 0.0049(2) 0.573(7) 0
Sc1 Sc3+ 4 e 0 0.89696(4) 0.25 0.0049(2) 0.426(7) 0
Si1 Si4+ 8 f 0.29733(5) 0.08848(5) 0.26976(10) 0.0058(2) 1. 0
O1 O2- 8 f 0.1180(1) 0.0844(1) 0.1520(3) 0.0072(3) 1. 0
O2 O2- 8 f 0.3681(1) 0.2547(1) 0.3333(3) 0.0113(3) 1. 0
O3 O2- 8 f 0.3554(1) 0.0021(2) 0.0547(3) 0.0121(3) 1. 0
#End of TTdata_55169-ICSD