
#(C) 2018 by FIZ Karlsruhe - Leibniz Institute for Information Infrastructure.  All rights reserved.
data_55751-ICSD
_database_code_ICSD 55751
_audit_creation_date 2005-10-01
_chemical_name_systematic
'Lithium iron(III) titanium phosphate(V) (1.5/0.5/1.5/3)'
_chemical_formula_structural 'Li1.5 Fe0.5 Ti1.5 (P O4)3'
_chemical_formula_sum 'Fe0.5 Li1.5 O12 P3 Ti1.5'
_exptl_crystal_density_diffrn 2.98
_cell_measurement_temperature 298.
_publ_section_title

;
Extensive lithium disorder in Li1.5 Fe0.5 Ti1.5 (P O4)3 Nasicon by neutron
diffraction and the Li1+x Fex Ti2-x (P O4)3 phase diagram
;
loop_
_citation_id
_citation_journal_full
_citation_year
_citation_journal_volume
_citation_page_first
_citation_page_last
_citation_journal_id_ASTM
primary 'Journal of Materials Chemistry' 2004 14 835 839 JMACEP
loop_
_publ_author_name
'Catti, M.'
'Comotti, A.'
'di Blas, S.'
'Ibberson, R.M.'
_cell_length_a 8.54509(1)
_cell_length_b 8.54509(1)
_cell_length_c 20.87683(6)
_cell_angle_alpha 90.
_cell_angle_beta 90.
_cell_angle_gamma 120.
_cell_volume 1320.17
_cell_formula_units_Z 6
_symmetry_space_group_name_H-M 'R -3 c H'
_symmetry_Int_Tables_number 167
_refine_ls_R_factor_all 0.0409
loop_
_symmetry_equiv_pos_site_id
_symmetry_equiv_pos_as_xyz
1 'x-y, -y, -z+1/2'
2 '-x, -x+y, -z+1/2'
3 'y, x, -z+1/2'
4 'x-y, x, -z'
5 'y, -x+y, -z'
6 '-x, -y, -z'
7 '-x+y, y, z+1/2'
8 'x, x-y, z+1/2'
9 '-y, -x, z+1/2'
10 '-x+y, -x, z'
11 '-y, x-y, z'
12 'x, y, z'
13 'x-y+2/3, -y+1/3, -z+5/6'
14 '-x+2/3, -x+y+1/3, -z+5/6'
15 'y+2/3, x+1/3, -z+5/6'
16 'x-y+2/3, x+1/3, -z+1/3'
17 'y+2/3, -x+y+1/3, -z+1/3'
18 '-x+2/3, -y+1/3, -z+1/3'
19 '-x+y+2/3, y+1/3, z+5/6'
20 'x+2/3, x-y+1/3, z+5/6'
21 '-y+2/3, -x+1/3, z+5/6'
22 '-x+y+2/3, -x+1/3, z+1/3'
23 '-y+2/3, x-y+1/3, z+1/3'
24 'x+2/3, y+1/3, z+1/3'
25 'x-y+1/3, -y+2/3, -z+1/6'
26 '-x+1/3, -x+y+2/3, -z+1/6'
27 'y+1/3, x+2/3, -z+1/6'
28 'x-y+1/3, x+2/3, -z+2/3'
29 'y+1/3, -x+y+2/3, -z+2/3'
30 '-x+1/3, -y+2/3, -z+2/3'
31 '-x+y+1/3, y+2/3, z+1/6'
32 'x+1/3, x-y+2/3, z+1/6'
33 '-y+1/3, -x+2/3, z+1/6'
34 '-x+y+1/3, -x+2/3, z+2/3'
35 '-y+1/3, x-y+2/3, z+2/3'
36 'x+1/3, y+2/3, z+2/3'
loop_
_atom_type_symbol
_atom_type_oxidation_number
Li1+ 1
Fe3+ 3
Ti4+ 4
P5+ 5
O2- -2
loop_
_atom_site_label
_atom_site_type_symbol
_atom_site_symmetry_multiplicity
_atom_site_Wyckoff_symbol
_atom_site_fract_x
_atom_site_fract_y
_atom_site_fract_z
_atom_site_B_iso_or_equiv
_atom_site_occupancy
_atom_site_attached_hydrogens
Li1 Li1+ 6 b 0 0 0 0.01 0.324(13) 0
Li2 Li1+ 36 f 0.017(4) 0.200(4) 0.017(1) 0.01 0.069(5) 0
Li3 Li1+ 36 f 0.079(2) 0.342(2) 0.0648(6) 0.01 0.127(6) 0
Fe1 Fe3+ 12 c 0 0 0.145(1) 0.001 0.25 0
Ti1 Ti4+ 12 c 0 0 0.145(1) 0.001 0.75 0
P1 P5+ 18 e 0.2908(1) 0 0.25 0.0060(2) 1. 0
O1 O2- 36 f 0.1858(1) -0.0046(1) 0.19047(3) 0.0184(2) 1. 0
O2 O2- 36 f 0.1899(1) 0.1657(1) 0.08146(3) 0.0134(2) 1. 0
#End of TTdata_55751-ICSD