
#(C) 2018 by FIZ Karlsruhe - Leibniz Institute for Information Infrastructure.  All rights reserved.
data_59963-ICSD
_database_code_ICSD 59963
_audit_creation_date 2005-10-01
_chemical_name_systematic 'Lithium vanadium oxide (3.24/6/13)'
_chemical_formula_structural 'Li3.25 V6 O13'
_chemical_formula_sum 'Li3.25 O13 V6'
_exptl_crystal_density_diffrn 3.89
_cell_measurement_temperature 295.
_publ_section_title
'Li(3+delta) V6 O13: a short-range-ordered lithium insertion mechanism'
loop_
_citation_id
_citation_journal_full
_citation_year
_citation_journal_volume
_citation_page_first
_citation_page_last
_citation_journal_id_ASTM
primary 'Acta Crystallographica, Section B: Structural Science' 2004 60 382 387
ASBSDK
loop_
_publ_author_name
'Hoewing, J.'
'Gustafsson, T.'
'Thomas, J.O.'
_cell_length_a 11.7236(6)
_cell_length_b 3.9155(2)
_cell_length_c 10.1521(5)
_cell_angle_alpha 90
_cell_angle_beta 100.592(2)
_cell_angle_gamma 90
_cell_volume 458.08
_cell_formula_units_Z 2
_symmetry_space_group_name_H-M 'C 1 2/m 1'
_symmetry_Int_Tables_number 12
_refine_ls_R_factor_all 0.0293
loop_
_symmetry_equiv_pos_site_id
_symmetry_equiv_pos_as_xyz
1 '-x, y, -z'
2 '-x, -y, -z'
3 'x, -y, z'
4 'x, y, z'
5 '-x+1/2, y+1/2, -z'
6 '-x+1/2, -y+1/2, -z'
7 'x+1/2, -y+1/2, z'
8 'x+1/2, y+1/2, z'
loop_
_atom_type_symbol
_atom_type_oxidation_number
V3+ 3.7933
O2- -2
Li1+ 1
loop_
_atom_site_label
_atom_site_type_symbol
_atom_site_symmetry_multiplicity
_atom_site_Wyckoff_symbol
_atom_site_fract_x
_atom_site_fract_y
_atom_site_fract_z
_atom_site_B_iso_or_equiv
_atom_site_occupancy
_atom_site_attached_hydrogens
V1 V3+ 4 i 0.34224(3) 0 0.00123(4) 0.00696(6) 1 0
V2 V3+ 4 i 0.40029(2) 0 0.36658(3) 0.00578(6) 1 0
V3 V3+ 4 i 0.72165(2) 0 0.36435(3) 0.00548(6) 1 0
O1 O2- 4 i 0.17147(11) 0 0.99929(16) 0.0080(3) 1 0
O2 O2- 4 i 0.89293(10) 0 0.39131(15) 0.0065(3) 1 0
O3 O2- 4 i 0.23889(10) 0 0.40451(15) 0.0063(3) 1 0
O4 O2- 2 b 0.5 0 0 0.0088(4) 1 0
O5 O2- 4 i 0.37866(12) 0 0.20022(15) 0.0086(3) 1 0
O6 O2- 4 i 0.68596(11) 0 0.20038(16) 0.0091(3) 1 0
O7 O2- 4 i 0.56898(10) 0 0.41478(15) 0.0066(3) 1 0
Li1 Li1+ 4 i 0.5676(3) 0.5 0.4096(5) 0.0107(8) 1 0
Li2 Li1+ 2 a 0.5 0.5 0 0.057(5) 1 0
Li3 Li1+ 4 i 0.868(2) 0 0.197(4) 0.0102 0.1239 0
loop_
_atom_site_aniso_label
_atom_site_aniso_type_symbol
_atom_site_aniso_U_11
_atom_site_aniso_U_22
_atom_site_aniso_U_33
_atom_site_aniso_U_12
_atom_site_aniso_U_13
_atom_site_aniso_U_23
V1 V3+ 0.00557(9) 0.00624(7) 0.00892(13) 0 0.00094(7) 0
V2 V3+ 0.00395(8) 0.00612(7) 0.00727(13) 0 0.00099(7) 0
V3 V3+ 0.00416(8) 0.00522(7) 0.00704(12) 0 0.00095(7) 0
O1 O2- 0.0079(4) 0.0045(3) 0.0114(6) 0 0.0014(4) 0
O2 O2- 0.0045(4) 0.0041(3) 0.0106(6) 0 0.0009(3) 0
O3 O2- 0.0048(4) 0.0044(3) 0.0098(6) 0 0.0014(3) 0
O4 O2- 0.0067(6) 0.0078(4) 0.0120(9) 0 0.0020(5) 0
O5 O2- 0.0097(4) 0.0083(3) 0.0075(6) 0 0.0009(3) 0
O6 O2- 0.0094(4) 0.0100(3) 0.0077(6) 0 0.0011(4) 0
O7 O2- 0.0035(3) 0.0062(3) 0.0103(6) 0 0.0016(3) 0
Li1 Li1+ 0.0100(13) 0.0088(9) 0.0138(19) 0 0.0035(11) 0
Li2 Li1+ 0.018(3) 0.0115(19) 0.146(15) 0 0.029(6) 0
#End of TTdata_59963-ICSD