
#(C) 2018 by FIZ Karlsruhe - Leibniz Institute for Information Infrastructure.  All rights reserved.
data_61065-ICSD
_database_code_ICSD 61065
_audit_creation_date 1986-12-03
_chemical_name_systematic 'Lithium disilver trinitrite'
_chemical_formula_structural 'Ag2 Li (N O2)3'
_chemical_formula_sum 'Ag2 Li1 N3 O6'
_exptl_crystal_density_diffrn 3.67
_cell_measurement_temperature 297.
_publ_section_title
'Structures of mercury(I) nitrite and lithium disilver trinitrite'
loop_
_citation_id
_citation_journal_full
_citation_year
_citation_journal_volume
_citation_page_first
_citation_page_last
_citation_journal_id_ASTM
primary 'Acta Crystallographica, Section C: Crystal Structure Communications'
1986 42 1 4 ACSCEE
loop_
_publ_author_name
'Ohba, S.'
'Matsumoto, F.'
'Ishihara, M.'
'Saito, Y.'
_cell_length_a 10.166(1)
_cell_length_b 7.575(2)
_cell_length_c 8.479(1)
_cell_angle_alpha 90.
_cell_angle_beta 91.27(1)
_cell_angle_gamma 90.
_cell_volume 652.79
_cell_formula_units_Z 4
_symmetry_space_group_name_H-M 'C 1 2/c 1'
_symmetry_Int_Tables_number 15
_refine_ls_R_factor_all 0.033
loop_
_symmetry_equiv_pos_site_id
_symmetry_equiv_pos_as_xyz
1 'x, -y, z+1/2'
2 '-x, -y, -z'
3 '-x, y, -z+1/2'
4 'x, y, z'
5 'x+1/2, -y+1/2, z+1/2'
6 '-x+1/2, -y+1/2, -z'
7 '-x+1/2, y+1/2, -z+1/2'
8 'x+1/2, y+1/2, z'
loop_
_atom_type_symbol
_atom_type_oxidation_number
Ag1+ 1
Li1+ 1
N3+ 3
O2- -2
loop_
_atom_site_label
_atom_site_type_symbol
_atom_site_symmetry_multiplicity
_atom_site_Wyckoff_symbol
_atom_site_fract_x
_atom_site_fract_y
_atom_site_fract_z
_atom_site_B_iso_or_equiv
_atom_site_occupancy
_atom_site_attached_hydrogens
Ag1 Ag1+ 8 f 0.38397(4) 0.28952(5) 0.06251(4) . 1. 0
Li1 Li1+ 4 d 0.25 0.25 0.5 . 1. 0
N1 N3+ 8 f 0.1600(4) 0.0007(5) 0.2465(4) . 1. 0
N2 N3+ 8 f 0.5175(7) 0.0459(10) 0.4918(10) . 0.5 0
O1 O2- 8 f 0.1417(3) -.0431(5) 0.1039(4) . 1. 0
O2 O2- 8 f 0.1830(4) 0.1586(5) 0.2715(4) . 1. 0
O3 O2- 8 f 0.3963(7) 0.0423(12) 0.5041(10) . 0.5 0
O4 O2- 8 f 0.5697(9) -.1071(11) 0.5163(14) . 0.5 0
loop_
_atom_site_aniso_label
_atom_site_aniso_type_symbol
_atom_site_aniso_U_11
_atom_site_aniso_U_22
_atom_site_aniso_U_33
_atom_site_aniso_U_12
_atom_site_aniso_U_13
_atom_site_aniso_U_23
Ag1 Ag1+ 0.0474(4) 0.0239(4) 0.0412(4) 0.0107(1) 0.0046(2) -.0033(1)
Li1 Li1+ 0.042(6) 0.022(4) 0.029(4) 0.012(5) -.005(4) 0.0(4)
N1 N3+ 0.031(2) 0.023(2) 0.025(2) -.004(1) 0.004(1) -.001(1)
N2 N3+ 0.021(3) 0.033(4) 0.032(3) 0.007(3) 0.002(2) 0.005(3)
O1 O2- 0.050(2) 0.028(2) 0.024(1) 0.006(1) -.002(1) -.004(1)
O2 O2- 0.054(2) 0.021(1) 0.031(2) -.004(1) -.002(1) -.003(1)
O3 O2- 0.021(3) 0.029(4) 0.051(4) 0.004(3) 0.007(3) 0.001(4)
O4 O2- 0.031(4) 0.024(4) 0.086(7) 0.007(3) 0.008(4) 0.008(4)
#End of TTdata_61065-ICSD