
#(C) 2018 by FIZ Karlsruhe - Leibniz Institute for Information Infrastructure.  All rights reserved.
data_61207-ICSD
_database_code_ICSD 61207
_audit_creation_date 1986-12-03
_audit_update_record 2012-08-01
_chemical_name_systematic 'Dilead lithium catena-phosphate'
_chemical_formula_structural 'Pb2 Li (P O3)5'
_chemical_formula_sum 'Li1 O15 P5 Pb2'
_exptl_crystal_density_diffrn 4.12
_cell_measurement_temperature 298.
_publ_section_title
'Structure d'un polyphosphate mixte de plomb et de lithium, Pb2 Li (P O3)5'
loop_
_citation_id
_citation_journal_full
_citation_year
_citation_journal_volume
_citation_page_first
_citation_page_last
_citation_journal_id_ASTM
primary 'Acta Crystallographica, Section C: Crystal Structure Communications'
1986 42 647 651 ACSCEE
loop_
_publ_author_name
'El-Horr, N.'
'Bagieu Beucher, M.'
_cell_length_a 12.289(10)
_cell_length_b 9.689(8)
_cell_length_c 5.523(5)
_cell_angle_alpha 90.
_cell_angle_beta 91.01(5)
_cell_angle_gamma 90.
_cell_volume 657.51
_cell_formula_units_Z 2
_symmetry_space_group_name_H-M 'P 1 2/n 1'
_symmetry_Int_Tables_number 13
_refine_ls_R_factor_all 0.029
loop_
_symmetry_equiv_pos_site_id
_symmetry_equiv_pos_as_xyz
1 'x+1/2, -y, z+1/2'
2 '-x+1/2, y, -z+1/2'
3 '-x, -y, -z'
4 'x, y, z'
loop_
_atom_type_symbol
_atom_type_oxidation_number
Pb2+ 2
P5+ 5
O2- -2
Li1+ 1
loop_
_atom_site_label
_atom_site_type_symbol
_atom_site_symmetry_multiplicity
_atom_site_Wyckoff_symbol
_atom_site_fract_x
_atom_site_fract_y
_atom_site_fract_z
_atom_site_B_iso_or_equiv
_atom_site_occupancy
_atom_site_attached_hydrogens
Pb1 Pb2+ 4 g 0.40772(3) 0.68596(4) 0.40676(6) . 1. 0
P1 P5+ 4 g 0.0815(2) 0.1914(3) 0.4208(4) . 1. 0
P2 P5+ 4 g 0.1505(2) 0.4587(3) 0.6078(4) . 1. 0
P3 P5+ 2 e 0.25 0.0019(4) 0.25 . 1. 0
O1 O2- 4 g 0.1267(6) 0.3461(7) 0.405(1) . 1. 0
O2 O2- 2 f 0.25 0.388(1) 0.75 . 1. 0
O3 O2- 4 g 0.3081(6) 0.1046(8) 0.067(1) . 1. 0
O4 O2- 4 g 0.0264(6) 0.1717(8) 0.657(1) . 1. 0
O5 O2- 4 g 0.0208(6) 0.1656(8) 0.191(1) . 1. 0
O6 O2- 4 g 0.1858(6) 0.5889(8) 0.488(1) . 1. 0
O7 O2- 4 g 0.0584(6) 0.4700(8) 0.778(1) . 1. 0
O8 O2- 4 g 0.1678(7) -.0735(9) 0.099(2) . 1. 0
Li1 Li1+ 4 g 0.025(6) 0.015(7) 0.94(1) 5.(1) 0.5 0
loop_
_atom_site_aniso_label
_atom_site_aniso_type_symbol
_atom_site_aniso_beta_11
_atom_site_aniso_beta_22
_atom_site_aniso_beta_33
_atom_site_aniso_beta_12
_atom_site_aniso_beta_13
_atom_site_aniso_beta_23
Pb1 Pb2+ 0.00177(1) 0.00296(2) 0.00968(6) 0.00032(3) 0.00075(3) 0.0003(1)
P1 P5+ 0.0015(1) 0.0030(2) 0.0082(5) 0.0006(2) -.0001(2) -.0011(4)
P2 P5+ 0.0013(1) 0.0028(2) 0.0074(6) -.0002(2) 0.0002(2) -.0003(3)
P3 P5+ 0.0016(2) 0.0022(3) 0.019(1) 0 0.0032(4) 0
O1 O2- 0.0029(4) 0.0033(6) 0.008(2) -.0006(4) 0.0010(5) -.001(1)
O2 O2- 0.0026(6) 0.004(1) 0.019(3) 0 -.005(1) 0
O3 O2- 0.0025(4) 0.0050(7) 0.015(2) -.0015(5) 0.001(1) 0.001(1)
O4 O2- 0.0027(4) 0.0048(7) 0.019(2) -.0010(5) 0.005(1) -.001(1)
O5 O2- 0.0030(4) 0.0045(8) 0.015(2) 0.0019(5) -.003(1) -.003(1)
O6 O2- 0.0029(4) 0.0030(6) 0.014(2) -.0004(5) 0.001(1) 0.002(1)
O7 O2- 0.0030(4) 0.0038(7) 0.019(2) -.0007(5) 0.005(1) -.004(1)
O8 O2- 0.0033(5) 0.0062(8) 0.036(3) -.0025(5) 0.006(1) -.008(2)
#End of TTdata_61207-ICSD