
#(C) 2018 by FIZ Karlsruhe - Leibniz Institute for Information Infrastructure.  All rights reserved.
data_62359-ICSD
_database_code_ICSD 62359
_audit_creation_date 1988-07-15
_audit_update_record 1997-11-10
_chemical_name_systematic 'Lithium magnesium titanium oxide *'
_chemical_formula_structural 'Li0.5 Mg0.25 Ti2.25 O5'
_chemical_formula_sum 'Li0.5 Mg0.25 O5 Ti2.25'
_chemical_name_structure_type Pseudobrookite-Fe2TiO5
_chemical_name_mineral 'Caroite (Li, Ti-bearing)'
_exptl_crystal_density_diffrn 3.64
_publ_section_title 'Refinement of the crystal structure of Li, Ti-caroite'
loop_
_citation_id
_citation_journal_full
_citation_year
_citation_journal_volume
_citation_page_first
_citation_page_last
_citation_journal_id_ASTM
primary 'Doklady Akademii Nauk SSSR' 1986 286 1134 1139 DANKAS
loop_
_publ_author_name
'Romanov, D.P.'
'Frank-Kamenetskaya, O.V.'
'Rozhdestvenskaya, I.V.'
'Petrov, S.P.'
'Grogor'eva, L.F. (Grogoreva, L.F.)'
_cell_length_a 9.683(2)
_cell_length_b 9.920(1)
_cell_length_c 3.750(6)
_cell_angle_alpha 90.
_cell_angle_beta 90.
_cell_angle_gamma 90.
_cell_volume 360.21
_cell_formula_units_Z 4
_symmetry_space_group_name_H-M 'B b m m'
_symmetry_Int_Tables_number 63
loop_
_symmetry_equiv_pos_site_id
_symmetry_equiv_pos_as_xyz
1 'x, -y+1/2, -z'
2 '-x, y+1/2, -z'
3 'x, y, -z'
4 '-x, -y, -z'
5 '-x, y+1/2, z'
6 'x, -y+1/2, z'
7 '-x, -y, z'
8 'x, y, z'
9 'x+1/2, -y+1/2, -z+1/2'
10 '-x+1/2, y+1/2, -z+1/2'
11 'x+1/2, y, -z+1/2'
12 '-x+1/2, -y, -z+1/2'
13 '-x+1/2, y+1/2, z+1/2'
14 'x+1/2, -y+1/2, z+1/2'
15 '-x+1/2, -y, z+1/2'
16 'x+1/2, y, z+1/2'
loop_
_atom_type_symbol
_atom_type_oxidation_number
Li1+ 1
Mg2+ 2
Ti4+ 4
O2- -2
loop_
_atom_site_label
_atom_site_type_symbol
_atom_site_symmetry_multiplicity
_atom_site_Wyckoff_symbol
_atom_site_fract_x
_atom_site_fract_y
_atom_site_fract_z
_atom_site_B_iso_or_equiv
_atom_site_occupancy
_atom_site_attached_hydrogens
Li1 Li1+ 4 c 0.69588(4) 0.75 0.5 . 0.5 0
Mg1 Mg2+ 4 c 0.69588(4) 0.75 0.5 . 0.25 0
Ti1 Ti4+ 4 c 0.69588(4) 0.75 0.5 . 0.25 0
Ti2 Ti4+ 8 f 0.63489(4) 0.43458(4) 0.5 . 1. 0
O1 O2- 4 c 0.77897(30) 0.75 0 . 1. 0
O2 O2- 8 f 0.54605(18) 0.61579(18) 0.5 . 1. 0
O3 O2- 8 f 0.81507(18) 0.56056(18) 0.5 . 1. 0
loop_
_atom_site_aniso_label
_atom_site_aniso_type_symbol
_atom_site_aniso_B_11
_atom_site_aniso_B_22
_atom_site_aniso_B_33
_atom_site_aniso_B_12
_atom_site_aniso_B_13
_atom_site_aniso_B_23
Li1 Li1+ 0.61 0.43 0.7 0 0 0
Mg1 Mg2+ 0.61 0.43 0.7 0 0 0
Ti1 Ti4+ 0.61 0.43 0.7 0 0 0
Ti2 Ti4+ 0.6 0.88 0.67 -.08 0 0
O1 O2- 1.45 0.67 1.75 0 0 0
O2 O2- 0.8 0.9 3.07 -.05 0 0
O3 O2- 1.04 1.33 0.86 0.09 0 0
#End of TTdata_62359-ICSD