
#(C) 2018 by FIZ Karlsruhe - Leibniz Institute for Information Infrastructure.  All rights reserved.
data_63131-ICSD
_database_code_ICSD 63131
_audit_creation_date 1989-06-19
_audit_update_record 2003-04-01
_chemical_name_systematic 'Lithium nonavanadate (0.5/1) - phase II'
_chemical_formula_structural 'Li0.5 (V9 O22)'
_chemical_formula_sum 'Li0.5 O22 V9'
_exptl_crystal_density_diffrn 3.5
_publ_section_title

;
Die Strukturen der Lithium-Vanadiumbronzen beta Li1.2 V9 O22 (I) und
beta'-Li1.7 V9 O22.
;
loop_
_citation_id
_citation_journal_full
_citation_year
_citation_journal_volume
_citation_page_first
_citation_page_last
_citation_journal_id_ASTM
primary 'Acta Crystallographica, Section C: Crystal Structure Communications'
1987 43 1451 1454 ACSCEE
loop_
_publ_author_name
'Kato, K.'
'Takayama Muromachi, E.'
_cell_length_a 21.6061(4)
_cell_length_b 3.6186(2)
_cell_length_c 10.1201(2)
_cell_angle_alpha 90.
_cell_angle_beta 102.671(2)
_cell_angle_gamma 90.
_cell_volume 771.96
_cell_formula_units_Z 2
_symmetry_space_group_name_H-M 'P 1 21/m 1'
_symmetry_Int_Tables_number 11
_refine_ls_R_factor_all 0.05
loop_
_symmetry_equiv_pos_site_id
_symmetry_equiv_pos_as_xyz
1 'x, -y+1/2, z'
2 '-x, -y, -z'
3 '-x, y+1/2, -z'
4 'x, y, z'
loop_
_atom_type_symbol
_atom_type_oxidation_number
V4+ 4.75
V5+ 5
O2- -2
Li1+ 1
loop_
_atom_site_label
_atom_site_type_symbol
_atom_site_symmetry_multiplicity
_atom_site_Wyckoff_symbol
_atom_site_fract_x
_atom_site_fract_y
_atom_site_fract_z
_atom_site_B_iso_or_equiv
_atom_site_occupancy
_atom_site_attached_hydrogens
V1 V4+ 2 e 0.90938(6) 0.25 0.14065(12) 0.646(21) 1. 0
V2 V4+ 2 e 0.05869(6) 0.25 0.09610(13) 0.574(19) 1. 0
V3 V4+ 2 e 0.28675(6) 0.25 0.85241(11) 0.448(17) 1. 0
V4 V4+ 2 e 0.42911(6) 0.25 0.78282(11) 0.467(17) 1. 0
V5 V4+ 2 e 0.59365(6) 0.25 0.97900(11) 0.411(17) 1. 0
V6 V4+ 2 e 0.75038(6) 0.25 0.93165(12) 0.502(18) 1. 0
V7 V5+ 2 e 0.02556(7) 0.25 0.40364(12) 0.726(21) 1. 0
V8 V5+ 2 e 0.31281(6) 0.25 0.52634(12) 0.563(18) 1. 0
V9 V5+ 2 e 0.63543(6) 0.25 0.66542(11) 0.561(18) 1. 0
O1 O2- 2 e 0.00655(24) 0.25 0.2214(5) 0.69(8) 1. 0
O2 O2- 2 e 0.89566(26) 0.25 0.2902(5) 1.22(10) 1. 0
O3 O2- 2 e 0.82611(28) 0.25 0.0270(6) 0.79(7) 1. 0
O4 O2- 2 e 0.95694(25) 0.25 0.9574(5) 0.83(9) 1. 0
O5 O2- 2 e 0.08280(25) 0.25 0.9056(5) 0.77(8) 1. 0
O6 O2- 2 e 0.12619(27) 0.25 0.1884(6) 1.34(10) 1. 0
O7 O2- 2 e 0.33460(23) 0.25 0.7128(5) 0.53(7) 1. 0
O8 O2- 2 e 0.21797(25) 0.25 0.7555(5) 1.17(9) 1. 0
O9 O2- 2 e 0.26632(22) 0.25 0.0328(4) 0.43(7) 1. 0
O10 O2- 2 e 0.39101(23) 0.25 0.9761(5) 0.59(7) 1. 0
O11 O2- 2 e 0.52183(24) 0.25 0.8814(5) 0.70(7) 1. 0
O12 O2- 2 e 0.43998(26) 0.25 0.6312(5) 1.14(9) 1. 0
O13 O2- 2 e 0.64451(25) 0.25 0.8449(5) 0.62(8) 1. 0
O14 O2- 2 e 0.75757(27) 0.25 0.7748(5) 1.14(9) 1. 0
O15 O2- 2 e 0.57267(23) 0.25 0.1632(5) 0.55(8) 1. 0
O16 O2- 2 e 0.69664(24) 0.25 0.1040(5) 0.64(8) 1. 0
O17 O2- 2 e 0.99676(27) 0.25 0.5764(6) 1.03(9) 1. 0
O18 O2- 2 e 0.10060(29) 0.25 0.4434(6) 1.75(11) 1. 0
O19 O2- 2 e 0.34089(26) 0.25 0.3547(5) 0.92(9) 1. 0
O20 O2- 2 e 0.23669(26) 0.25 0.4904(6) 1.56(10) 1. 0
O21 O2- 2 e 0.66618(26) 0.25 0.4912(5) 0.79(8) 1. 0
O22 O2- 2 e 0.56079(28) 0.25 0.6118(5) 1.66(11) 1. 0
Li1 Li1+ 2 e 0.4965(28) 0.25 0.470(5) 5.7(12) 0.5 0
#End of TTdata_63131-ICSD