
#(C) 2018 by FIZ Karlsruhe - Leibniz Institute for Information Infrastructure.  All rights reserved.
data_65158-ICSD
_database_code_ICSD 65158
_audit_creation_date 1989-12-04
_chemical_name_systematic 'Dipotassium tetralithium hexaoxouranate'
_chemical_formula_structural 'K2 Li4 (U O6)'
_chemical_formula_sum 'K2 Li4 O6 U1'
_exptl_crystal_density_diffrn 4.12
_publ_section_title

;
Ein neues Oxouranat (VI): K2 Li4 (U O6). Mit einer Bemerkung ueber Rb2 Li4 (U
O6) und Cs2 Li4 (U O6)
;
loop_
_citation_id
_citation_journal_full
_citation_year
_citation_journal_volume
_citation_page_first
_citation_page_last
_citation_journal_id_ASTM
primary 'Zeitschrift fuer Anorganische und Allgemeine Chemie (1950) (DE)' 1987
554 34 42 ZAACAB
loop_
_publ_author_name
'Wolf, R.'
'Hoppe, R.'
_cell_length_a 6.1927(5)
_cell_length_b 6.1927(5)
_cell_length_c 5.3376(6)
_cell_angle_alpha 90.
_cell_angle_beta 90.
_cell_angle_gamma 120.
_cell_volume 177.27
_cell_formula_units_Z 1
_symmetry_space_group_name_H-M 'P -3 m 1'
_symmetry_Int_Tables_number 164
_refine_ls_R_factor_all 0.048
loop_
_symmetry_equiv_pos_site_id
_symmetry_equiv_pos_as_xyz
1 'x-y, -y, -z'
2 '-x, -x+y, -z'
3 'y, x, -z'
4 'x-y, x, -z'
5 'y, -x+y, -z'
6 '-x, -y, -z'
7 '-x+y, y, z'
8 'x, x-y, z'
9 '-y, -x, z'
10 '-x+y, -x, z'
11 '-y, x-y, z'
12 'x, y, z'
loop_
_atom_type_symbol
_atom_type_oxidation_number
U6+ 6
K1+ 1
O2- -2
Li1+ 1
loop_
_atom_site_label
_atom_site_type_symbol
_atom_site_symmetry_multiplicity
_atom_site_Wyckoff_symbol
_atom_site_fract_x
_atom_site_fract_y
_atom_site_fract_z
_atom_site_B_iso_or_equiv
_atom_site_occupancy
_atom_site_attached_hydrogens
U1 U6+ 1 a 0 0 0 . 1. 0
K1 K1+ 2 d 0.3333 0.6667 0.6259(24) . 1. 0
O1 O2- 6 i 0.1592(12) 0.8408(12) 0.2164(22) . 1. 0
Li1 Li1+ 3 e 0.5 0.5 0 0.0086(25) 1. 0
Li2 Li1+ 1 b 0 0 0.5 0.0080(25) 1. 0
loop_
_atom_site_aniso_label
_atom_site_aniso_type_symbol
_atom_site_aniso_U_11
_atom_site_aniso_U_22
_atom_site_aniso_U_33
_atom_site_aniso_U_12
_atom_site_aniso_U_13
_atom_site_aniso_U_23
U1 U6+ 0.0056(3) 0.0056(3) 0.0065(3) 0.0028(2) 0 0
K1 K1+ 0.0143(26) 0.0143(26) 0.0334(42) 0.0071(13) 0 0
O1 O2- 0.0283(32) 0.0283(32) 0.0299(41) 0.0170(13) 0.0005(19) -.0005(19)
#End of TTdata_65158-ICSD