
#(C) 2018 by FIZ Karlsruhe - Leibniz Institute for Information Infrastructure.  All rights reserved.
data_66098-ICSD
_database_code_ICSD 66098
_audit_creation_date 1992-01-20
_audit_update_record 1999-11-30
_chemical_name_systematic 'Lithium chromium nitride oxide (14/2/8/1)'
_chemical_formula_structural 'Li14 Cr2 N8 O'
_chemical_formula_sum 'Cr2 Li14 N8 O1'
_chemical_name_structure_type Na14Mn2O9
_exptl_crystal_density_diffrn 2.27
_publ_section_title
'Ternaere Nitride des Lithiums mit den Elementen Cr, Mo und W'
loop_
_citation_id
_citation_journal_full
_citation_year
_citation_journal_volume
_citation_page_first
_citation_page_last
_citation_journal_id_ASTM
primary 'Zeitschrift fuer Naturforschung, B: Chemical Sciences' 1990 45 111 120
ZNBSEN
loop_
_publ_author_name
'Gudat, A.'
'Haag, S.'
'Kniep, R.'
'Rabenau, A.'
_cell_length_a 5.799(1)
_cell_length_b 5.799(1)
_cell_length_c 8.263(6)
_cell_angle_alpha 90.
_cell_angle_beta 90.
_cell_angle_gamma 120.
_cell_volume 240.64
_cell_formula_units_Z 1
_symmetry_space_group_name_H-M 'P -3'
_symmetry_Int_Tables_number 147
_refine_ls_R_factor_all 0.036
loop_
_symmetry_equiv_pos_site_id
_symmetry_equiv_pos_as_xyz
1 'x-y, x, -z'
2 'y, -x+y, -z'
3 '-x, -y, -z'
4 '-x+y, -x, z'
5 '-y, x-y, z'
6 'x, y, z'
loop_
_atom_type_symbol
_atom_type_oxidation_number
Cr6+ 6
N3- -3
O2- -2
Li1+ 1
loop_
_atom_site_label
_atom_site_type_symbol
_atom_site_symmetry_multiplicity
_atom_site_Wyckoff_symbol
_atom_site_fract_x
_atom_site_fract_y
_atom_site_fract_z
_atom_site_B_iso_or_equiv
_atom_site_occupancy
_atom_site_attached_hydrogens
Cr1 Cr6+ 2 d 0.3333 0.6667 0.2382(1) . 1. 0
N1 N3- 6 g 0.0608(8) 0.6889(7) 0.1676(4) . 1. 0
N2 N3- 2 d 0.3333 0.6667 0.4528(7) . 1. 0
O1 O2- 1 b 0 0 0.5 . 1. 0
Li1 Li1+ 6 g -.0717(17) 0.3028(16) 0.0923(8) . 1. 0
Li2 Li1+ 6 g 0.3555(17) 0.3181(17) 0.4101(8) . 1. 0
Li3 Li1+ 2 c 0 0 0.2501(17) . 1. 0
loop_
_atom_site_aniso_label
_atom_site_aniso_type_symbol
_atom_site_aniso_U_11
_atom_site_aniso_U_22
_atom_site_aniso_U_33
_atom_site_aniso_U_12
_atom_site_aniso_U_13
_atom_site_aniso_U_23
Cr1 Cr6+ 0.0025(5) 0.0025(5) 0.0053(8) 0.00125 0 0
N1 N3- 0.0058(21) 0.0092(22) 0.0102(20) 0.0044(17) -.0032(15) 0.0009(17)
N2 N3- 0.0052(17) 0.0052(17) 0.0081(29) 0.0026 0 0
O1 O2- 0.0074(22) 0.0074(22) 0.0211(39) 0.0037 0 0
Li1 Li1+ 0.0082(43) 0.0054(42) 0.0095(36) 0.0042(31) 0.0029(30) -.0023(34)
Li2 Li1+ 0.0203(45) 0.0203(45) 0.0226(66) 0.0102 0 0
Li3 Li1+ 0.0144(45) 0.0091(46) 0.0118(39) -.0004(41) -.0031(33) -.0008(33)
#End of TTdata_66098-ICSD