
#(C) 2018 by FIZ Karlsruhe - Leibniz Institute for Information Infrastructure.  All rights reserved.
data_66173-ICSD
_database_code_ICSD 66173
_audit_creation_date 1992-08-20
_chemical_name_systematic 'Lithium niobium titanium oxide (.2/.5/.4/2)'
_chemical_formula_structural '(Li.15 Nb.45 Ti.4) O2'
_chemical_formula_sum 'Li0.15 Nb0.45 O2 Ti0.4'
_chemical_name_structure_type LixTiO2
_exptl_crystal_density_diffrn 4.72
_publ_section_title

;
Structure determination of substituted rutiles by time-of-flight neutron
diffraction
;
loop_
_citation_id
_citation_journal_full
_citation_year
_citation_journal_volume
_citation_page_first
_citation_page_last
_citation_journal_id_ASTM
primary 'Chemistry of Materials' 1989 1 237 240 CMATEX
loop_
_publ_author_name
'Abrahams, I.'
'Bruce, P.G.'
'David, W.I.F.'
'West, A.R.'
_cell_length_a 4.6879(1)
_cell_length_b 4.6879(1)
_cell_length_c 3.013(1)
_cell_angle_alpha 90.
_cell_angle_beta 90.
_cell_angle_gamma 90.
_cell_volume 66.21
_cell_formula_units_Z 2
_symmetry_space_group_name_H-M 'P 42/m n m'
_symmetry_Int_Tables_number 136
_refine_ls_R_factor_all 0.05
loop_
_symmetry_equiv_pos_site_id
_symmetry_equiv_pos_as_xyz
1 '-y+1/2, x+1/2, -z+1/2'
2 'y+1/2, -x+1/2, -z+1/2'
3 'y, x, -z'
4 '-y, -x, -z'
5 'y+1/2, -x+1/2, z+1/2'
6 '-y+1/2, x+1/2, z+1/2'
7 '-y, -x, z'
8 'y, x, z'
9 'x+1/2, -y+1/2, -z+1/2'
10 '-x+1/2, y+1/2, -z+1/2'
11 'x, y, -z'
12 '-x, -y, -z'
13 '-x+1/2, y+1/2, z+1/2'
14 'x+1/2, -y+1/2, z+1/2'
15 '-x, -y, z'
16 'x, y, z'
loop_
_atom_type_symbol
_atom_type_oxidation_number
O2- -2
Nb5+ 5
Ti4+ 4
Li1+ 1
loop_
_atom_site_label
_atom_site_type_symbol
_atom_site_symmetry_multiplicity
_atom_site_Wyckoff_symbol
_atom_site_fract_x
_atom_site_fract_y
_atom_site_fract_z
_atom_site_B_iso_or_equiv
_atom_site_occupancy
_atom_site_attached_hydrogens
O1 O2- 4 f 0.30308(5) 0.30308(5) 0 . 1. 0
Nb1 Nb5+ 2 a 0 0 0 1.12(6) 0.45 0
Ti1 Ti4+ 2 a 0 0 0 1.12(6) 0.4 0
Li1 Li1+ 2 a 0 0 0 1.12(6) 0.084(4) 0
Li2 Li1+ 4 c 0.5 0 0 1.12(6) 0.023(2) 0
Li3 Li1+ 4 d 0.5 0 0.25 1.12(6) 0.010(2) 0
loop_
_atom_site_aniso_label
_atom_site_aniso_type_symbol
_atom_site_aniso_B_11
_atom_site_aniso_B_22
_atom_site_aniso_B_33
_atom_site_aniso_B_12
_atom_site_aniso_B_13
_atom_site_aniso_B_23
O1 O2- 0.802(9) 0.802(9) 0.88(1) -.09(1) 0 0
#End of TTdata_66173-ICSD