
#(C) 2018 by FIZ Karlsruhe - Leibniz Institute for Information Infrastructure.  All rights reserved.
data_66708-ICSD
_database_code_ICSD 66708
_audit_creation_date 1995-10-17
_audit_update_record 2011-02-01
_chemical_name_systematic 'Lithium triborate'
_chemical_formula_structural 'Li (B3 O5)'
_chemical_formula_sum 'B3 Li1 O5'
_chemical_name_structure_type LiB3O5
_exptl_crystal_density_diffrn 2.47
_publ_section_title 'Deformation density in lithium triborate, Li B3 O5'
loop_
_citation_id
_citation_journal_full
_citation_year
_citation_journal_volume
_citation_page_first
_citation_page_last
_citation_journal_id_ASTM
primary 'Acta Crystallographica, Section B: Structural Science' 1992 48 154 160
ASBSDK
loop_
_publ_author_name
'Radaev, S.F.'
'Maximov, B.A.'
'Simonov, V.I.'
'Andreev, B.V.'
'D'yakov, V.A. (Dyakov, V.A.)'
_cell_length_a 8.447(1)
_cell_length_b 7.3789(8)
_cell_length_c 5.1408(6)
_cell_angle_alpha 90.
_cell_angle_beta 90.
_cell_angle_gamma 90.
_cell_volume 320.42
_cell_formula_units_Z 4
_symmetry_space_group_name_H-M 'P n a 21'
_symmetry_Int_Tables_number 33
_refine_ls_R_factor_all 0.0188
loop_
_symmetry_equiv_pos_site_id
_symmetry_equiv_pos_as_xyz
1 'x+1/2, -y+1/2, z'
2 '-x+1/2, y+1/2, z+1/2'
3 '-x, -y, z+1/2'
4 'x, y, z'
loop_
_atom_type_symbol
_atom_type_oxidation_number
Li1+ 1
B3+ 3
O2- -2
loop_
_atom_site_label
_atom_site_type_symbol
_atom_site_symmetry_multiplicity
_atom_site_Wyckoff_symbol
_atom_site_fract_x
_atom_site_fract_y
_atom_site_fract_z
_atom_site_B_iso_or_equiv
_atom_site_occupancy
_atom_site_attached_hydrogens
Li1 Li1+ 4 a 0.0873(2) 0.0667(2) 0.9548(4) . 1. 0
B1 B3+ 4 a 0.00968(7) 0.66439(8) 0.8098(2) . 1. 0
B2 B3+ 4 a 0.19437(7) 0.44327(8) 0.0063(2) . 1. 0
B3 B3+ 4 a 0.15705(7) 0.74859(8) 0.1895(2) . 1. 0
O1 O2- 4 a 0.08644(6) 0.50430(6) 0.8022(1) . 1. 0
O2 O2- 4 a 0.11633(6) 0.29510(6) 0.1535(1) . 1. 0
O3 O2- 4 a 0.05809(6) 0.79816(6) 0.9848(1) . 1. 0
O4 O2- 4 a 0.26102(6) 0.09024(6) 0.6902(1) . 1. 0
O5 O2- 4 a 0.83898(6) 0.12504(6) 0.884 . 1. 0
loop_
_atom_site_aniso_label
_atom_site_aniso_type_symbol
_atom_site_aniso_beta_11
_atom_site_aniso_beta_22
_atom_site_aniso_beta_33
_atom_site_aniso_beta_12
_atom_site_aniso_beta_13
_atom_site_aniso_beta_23
Li1 Li1+ 0.0066(2) 0.0039(2) 0.1701(5) -.0007(2) 0.0036(2) -.0014(3)
B1 B3+ 0.0022(1) 0.0023(1) 0.0051(2) 0.0001(1) -.0008(1) -.0001(1)
B2 B3+ 0.0017(1) 0.0020(1) 0.0045(1) 0 0.0002(1) -.0005(1)
B3 B3+ 0.0018(1) 0.0020(1) 0.0053(2) 0 -.0003(1) -.0007(1)
O1 O2- 0.0028 0.0026(1) 0.0060(1) 0.0007 -.0016(1) -.0009(1)
O2 O2- 0.0023 0.0021 0.0066(1) -.0001 0.0015(1) 0
O3 O2- 0.0028 0.0021(1) 0.0066(1) 0.0003 -.0018(1) -.0005(1)
O4 O2- 0.002 0.0019 0.0054(1) -.0004 0.0007(1) -.0011(1)
O5 O2- 0.0017 0.0025(1) 0.0072(1) 0.0001 0.0009(1) 0.0022(1)
#End of TTdata_66708-ICSD