
#(C) 2018 by FIZ Karlsruhe - Leibniz Institute for Information Infrastructure.  All rights reserved.
data_66942-ICSD
_database_code_ICSD 66942
_audit_creation_date 1998-06-26
_audit_update_record 2005-10-01
_chemical_name_systematic 'Lithium carbonate'
_chemical_formula_structural 'Li2 (C O3)'
_chemical_formula_sum 'C1 Li2 O3'
_chemical_name_structure_type Li2CO3
_exptl_crystal_density_diffrn 2.1
_publ_section_title

;
Crystal structure of (Lix K1-x)2 (C O3) (x= 0, 0.43, 0.5, 0.62, 1) by neutron
powder diffraction analysis
;
loop_
_citation_id
_citation_journal_full
_citation_year
_citation_journal_volume
_citation_page_first
_citation_page_last
_citation_journal_id_ASTM
primary 'Journal of Physics and Chemistry of Solids' 1998 59 363 376 JPCSAW
loop_
_publ_author_name
'Idemoto, Y.'
'Ricardson, J.W.jr.'
'Koura, N.'
'Kohara, S.'
'Loong, C.-K.'
_cell_length_a 8.35263(8)
_cell_length_b 4.97353(4)
_cell_length_c 6.18942(5)
_cell_angle_alpha 90.
_cell_angle_beta 114.677(1)
_cell_angle_gamma 90.
_cell_volume 233.64
_cell_formula_units_Z 4
_symmetry_space_group_name_H-M 'C 1 2/c 1'
_symmetry_Int_Tables_number 15
_refine_ls_R_factor_all 0.0398
loop_
_symmetry_equiv_pos_site_id
_symmetry_equiv_pos_as_xyz
1 'x, -y, z+1/2'
2 '-x, -y, -z'
3 '-x, y, -z+1/2'
4 'x, y, z'
5 'x+1/2, -y+1/2, z+1/2'
6 '-x+1/2, -y+1/2, -z'
7 '-x+1/2, y+1/2, -z+1/2'
8 'x+1/2, y+1/2, z'
loop_
_atom_type_symbol
_atom_type_oxidation_number
Li1+ 1
C4+ 4
O2- -2
loop_
_atom_site_label
_atom_site_type_symbol
_atom_site_symmetry_multiplicity
_atom_site_Wyckoff_symbol
_atom_site_fract_x
_atom_site_fract_y
_atom_site_fract_z
_atom_site_B_iso_or_equiv
_atom_site_occupancy
_atom_site_attached_hydrogens
Li1 Li1+ 8 f 0.1955(3) 0.4443(6) 0.8312(5) . 1. 0
C1 C4+ 4 e 0 0.0676(3) 0.25 . 1. 0
O1 O2- 4 e 0 0.3231(3) 0.25 . 1. 0
O2 O2- 8 f 0.1468(1) -.0634(2) 0.3136(2) . 1. 0
loop_
_atom_site_aniso_label
_atom_site_aniso_type_symbol
_atom_site_aniso_U_11
_atom_site_aniso_U_22
_atom_site_aniso_U_33
_atom_site_aniso_U_12
_atom_site_aniso_U_13
_atom_site_aniso_U_23
Li1 Li1+ 0.0095(11) 0.0198(12) 0.0322(15) -.0018(11) 0.0109(11) -.0070(14)
C1 C4+ 0.0110(6) 0.0086(5) 0.0241(7) 0 0.0089(5) 0
O1 O2- 0.0142(6) 0.0042(6) 0.0494(10) 0 0.0143(7) 0
O2 O2- 0.0088(4) 0.0097(4) 0.0329(6) 0.0040(4) 0.0101(4) 0.0018(5)
#End of TTdata_66942-ICSD