
#(C) 2018 by FIZ Karlsruhe - Leibniz Institute for Information Infrastructure.  All rights reserved.
data_72223-ICSD
_database_code_ICSD 72223
_audit_creation_date 1994-01-19
_audit_update_record 2011-02-01
_chemical_name_systematic 'Lithium molybdenum sulfide (1/6/8)'
_chemical_formula_structural 'Li1.02 Mo6 S8'
_chemical_formula_sum 'Li1.02 Mo6 S8'
_chemical_name_structure_type Chevrel-PbMo6S8
_exptl_crystal_density_diffrn 5.16
_publ_section_title

;
Neutron diffraction study on the crystal structure of lithium intercalated
Chevrel phases
;
loop_
_citation_id
_citation_journal_full
_citation_year
_citation_journal_volume
_citation_page_first
_citation_page_last
_citation_journal_id_ASTM
primary 'Materials Research Bulletin' 1992 27 1217 1225 MRBUAC
loop_
_publ_author_name
'Ritter, C.'
'Gocke, E.'
'Fischer, C.'
'Schoellhorn, R.'
_cell_length_a 9.3070(5)
_cell_length_b 9.3070(5)
_cell_length_c 10.8057(7)
_cell_angle_alpha 90.
_cell_angle_beta 90.
_cell_angle_gamma 120.
_cell_volume 810.59
_cell_formula_units_Z 3
_symmetry_space_group_name_H-M 'R -3 H'
_symmetry_Int_Tables_number 148
_refine_ls_R_factor_all 0.02
loop_
_symmetry_equiv_pos_site_id
_symmetry_equiv_pos_as_xyz
1 'x-y, x, -z'
2 'y, -x+y, -z'
3 '-x, -y, -z'
4 '-x+y, -x, z'
5 '-y, x-y, z'
6 'x, y, z'
7 'x-y+2/3, x+1/3, -z+1/3'
8 'y+2/3, -x+y+1/3, -z+1/3'
9 '-x+2/3, -y+1/3, -z+1/3'
10 '-x+y+2/3, -x+1/3, z+1/3'
11 '-y+2/3, x-y+1/3, z+1/3'
12 'x+2/3, y+1/3, z+1/3'
13 'x-y+1/3, x+2/3, -z+2/3'
14 'y+1/3, -x+y+2/3, -z+2/3'
15 '-x+1/3, -y+2/3, -z+2/3'
16 '-x+y+1/3, -x+2/3, z+2/3'
17 '-y+1/3, x-y+2/3, z+2/3'
18 'x+1/3, y+2/3, z+2/3'
loop_
_atom_type_symbol
_atom_type_oxidation_number
S2- -2
Mo2+ 2.497
Li1+ 1
loop_
_atom_site_label
_atom_site_type_symbol
_atom_site_symmetry_multiplicity
_atom_site_Wyckoff_symbol
_atom_site_fract_x
_atom_site_fract_y
_atom_site_fract_z
_atom_site_B_iso_or_equiv
_atom_site_occupancy
_atom_site_attached_hydrogens
S1 S2- 18 f 0.3154(6) 0.2846(6) 0.4193(4) 1.24(8) 1. 0
S2 S2- 6 c 0 0 0.2181(9) 1.24(8) 1. 0
Mo1 Mo2+ 18 f 0.0166(3) 0.1744(3) 0.3910(2) 1.17(2) 1. 0
Li1 Li1+ 18 f 0.598(7) 0.359(9) 0.381(4) 2.9(1) 0.17(1) 0
#End of TTdata_72223-ICSD