
#(C) 2018 by FIZ Karlsruhe - Leibniz Institute for Information Infrastructure.  All rights reserved.
data_72387-ICSD
_database_code_ICSD 72387
_audit_creation_date 1994-01-19
_chemical_name_systematic 'Lithium distrontium dinitridocobaltate(I)'
_chemical_formula_structural 'Li Sr2 (Co N2)'
_chemical_formula_sum 'Co1 Li1 N2 Sr2'
_exptl_crystal_density_diffrn 4.45
_publ_section_title
'LiSr2(CoN2): ein Nitridocobaltat(I) mit gestreckten Anionen (CoN2)(5-)'
loop_
_citation_id
_citation_journal_full
_citation_year
_citation_journal_volume
_citation_page_first
_citation_page_last
_citation_journal_id_ASTM
primary 'Zeitschrift fuer Naturforschung, B: Chemical Sciences' 1992 47 434 436
ZNBSEN
loop_
_publ_author_name
'Hoehn, P.'
'Kniep, R.'
_cell_length_a 5.244(1)
_cell_length_b 5.244(1)
_cell_length_c 7.307(2)
_cell_angle_alpha 90.
_cell_angle_beta 90.
_cell_angle_gamma 90.
_cell_volume 200.94
_cell_formula_units_Z 2
_symmetry_space_group_name_H-M 'P 42/m n m'
_symmetry_Int_Tables_number 136
_refine_ls_R_factor_all 0.028
loop_
_symmetry_equiv_pos_site_id
_symmetry_equiv_pos_as_xyz
1 '-y+1/2, x+1/2, -z+1/2'
2 'y+1/2, -x+1/2, -z+1/2'
3 'y, x, -z'
4 '-y, -x, -z'
5 'y+1/2, -x+1/2, z+1/2'
6 '-y+1/2, x+1/2, z+1/2'
7 '-y, -x, z'
8 'y, x, z'
9 'x+1/2, -y+1/2, -z+1/2'
10 '-x+1/2, y+1/2, -z+1/2'
11 'x, y, -z'
12 '-x, -y, -z'
13 '-x+1/2, y+1/2, z+1/2'
14 'x+1/2, -y+1/2, z+1/2'
15 '-x, -y, z'
16 'x, y, z'
loop_
_atom_type_symbol
_atom_type_oxidation_number
Sr2+ 2
Co1+ 1
N3- -3
Li1+ 1
loop_
_atom_site_label
_atom_site_type_symbol
_atom_site_symmetry_multiplicity
_atom_site_Wyckoff_symbol
_atom_site_fract_x
_atom_site_fract_y
_atom_site_fract_z
_atom_site_B_iso_or_equiv
_atom_site_occupancy
_atom_site_attached_hydrogens
Sr1 Sr2+ 4 d 0.5 0 0.25 . 1. 0
Co1 Co1+ 2 a 0 0 0 . 1. 0
N1 N3- 4 g 0.2641(9) 0.2641(9) 0.5 . 1. 0
Li1 Li1+ 2 b 0.5 0.5 0 . 1. 0
loop_
_atom_site_aniso_label
_atom_site_aniso_type_symbol
_atom_site_aniso_U_11
_atom_site_aniso_U_22
_atom_site_aniso_U_33
_atom_site_aniso_U_12
_atom_site_aniso_U_13
_atom_site_aniso_U_23
Sr1 Sr2+ 0.0104(4) 0.0104(4) 0.0100(5) 0 0 0
Co1 Co1+ 0.0105(5) 0.0105(5) 0.0125(7) -.0016(7) 0 0
N1 N3- 0.0114(24) 0.0114(24) 0.0138(38) -.0054(39) 0 0
Li1 Li1+ 0.063(72) 0.063(17) 0.044(17) 0.058(27) 0 0
#End of TTdata_72387-ICSD