
#(C) 2018 by FIZ Karlsruhe - Leibniz Institute for Information Infrastructure.  All rights reserved.
data_72552-ICSD
_database_code_ICSD 72552
_audit_creation_date 1994-01-19
_audit_update_record 2006-04-01
_chemical_name_systematic 'Rubidium lithium chromate - G2'
_chemical_formula_structural 'Rb Li (Cr O4)'
_chemical_formula_sum 'Cr1 Li1 O4 Rb1'
_chemical_name_structure_type LiKSO4
_exptl_crystal_density_diffrn 2.92
_cell_measurement_temperature 583.
_publ_section_title 'Structure and twinning of Rb Li Cr O4 crystals'
loop_
_citation_id
_citation_journal_full
_citation_year
_citation_journal_volume
_citation_page_first
_citation_page_last
_citation_journal_id_ASTM
primary 'Acta Crystallographica, Section B: Structural Science' 1993 49 19 28
ASBSDK
loop_
_publ_author_name
'Makarova, I.P.'
'Verin, I.A.'
'Aleksandrov, K.S.'
_cell_length_a 5.471(1)
_cell_length_b 5.471(1)
_cell_length_c 9.140(4)
_cell_angle_alpha 90.
_cell_angle_beta 90.
_cell_angle_gamma 120.
_cell_volume 236.92
_cell_formula_units_Z 2
_symmetry_space_group_name_H-M 'P 63'
_symmetry_Int_Tables_number 173
_refine_ls_R_factor_all 0.043
loop_
_symmetry_equiv_pos_site_id
_symmetry_equiv_pos_as_xyz
1 'x-y, x, z+1/2'
2 'y, -x+y, z+1/2'
3 '-x, -y, z+1/2'
4 '-x+y, -x, z'
5 '-y, x-y, z'
6 'x, y, z'
loop_
_atom_type_symbol
_atom_type_oxidation_number
Rb1+ 1
Li1+ 1
Cr6+ 6
O2- -2
loop_
_atom_site_label
_atom_site_type_symbol
_atom_site_symmetry_multiplicity
_atom_site_Wyckoff_symbol
_atom_site_fract_x
_atom_site_fract_y
_atom_site_fract_z
_atom_site_B_iso_or_equiv
_atom_site_occupancy
_atom_site_attached_hydrogens
Rb1 Rb1+ 2 a 0 0 0 . 1. 0
Li1 Li1+ 2 b 0.6667 0.3333 0.682(5) . 1. 0
Cr1 Cr6+ 2 b 0.6667 0.3333 0.2917(4) . 1. 0
O1 O2- 2 b 0.6667 0.3333 0.470(2) . 1. 0
O2 O2- 6 c 0.401(2) 0.365(1) 0.2349(9) . 1. 0
loop_
_atom_site_aniso_label
_atom_site_aniso_type_symbol
_atom_site_aniso_beta_11
_atom_site_aniso_beta_22
_atom_site_aniso_beta_33
_atom_site_aniso_beta_12
_atom_site_aniso_beta_13
_atom_site_aniso_beta_23
Rb1 Rb1+ 0.0509(6) 0.0509(6) 0.0122(2) 0.0255(3) 0 0
Li1 Li1+ 0.045(9) 0.045(9) 0.015(6) 0.023(5) 0 0
Cr1 Cr6+ 0.0274(7) 0.0274(7) 0.0074(3) 0.0137(4) 0 0
O1 O2- 0.097(7) 0.097(7) 0.009(2) 0.048(4) 0 0
O2 O2- 0.053(4) 0.038(3) 0.024(1) 0.009(3) 0.005(2) 0.010(2)
#End of TTdata_72552-ICSD