
#(C) 2018 by FIZ Karlsruhe - Leibniz Institute for Information Infrastructure.  All rights reserved.
data_72644-ICSD
_database_code_ICSD 72644
_audit_creation_date 1994-01-19
_chemical_name_systematic
'Pentalithium tetramanganese manganese(III) octakis(selenate(IV))'
_chemical_formula_structural 'Li5 Mn4 Mn (Se O3)8'
_chemical_formula_sum 'Li5 Mn5 O24 Se8'
_exptl_crystal_density_diffrn 3.92
_publ_section_title

;
Synthesis and crystal structures of the new alkaline-Mn(II)Mn(III) selenites
KMn(II)4Mn(III)(SeO3)6 and Li5Mn(II)4Mn(III)(SeO3)8
;
loop_
_citation_id
_citation_journal_full
_citation_year
_citation_journal_volume
_citation_page_first
_citation_page_last
_citation_journal_id_ASTM
primary 'Journal of Solid State Chemistry' 1993 103 341 352 JSSCBI
loop_
_publ_author_name
'Wildner, M.'
_cell_length_a 7.505(2)
_cell_length_b 8.350(2)
_cell_length_c 10.413(2)
_cell_angle_alpha 73.84(1)
_cell_angle_beta 88.24(1)
_cell_angle_gamma 64.24(1)
_cell_volume 561.4
_cell_formula_units_Z 1
_symmetry_space_group_name_H-M 'P -1'
_symmetry_Int_Tables_number 2
_refine_ls_R_factor_all 0.031
loop_
_symmetry_equiv_pos_site_id
_symmetry_equiv_pos_as_xyz
1 '-x, -y, -z'
2 'x, y, z'
loop_
_atom_type_symbol
_atom_type_oxidation_number
Li1+ 1
Mn2+ 2
Mn3+ 3
Mn2+ 2
Se4+ 4
O2- -2
loop_
_atom_site_label
_atom_site_type_symbol
_atom_site_symmetry_multiplicity
_atom_site_Wyckoff_symbol
_atom_site_fract_x
_atom_site_fract_y
_atom_site_fract_z
_atom_site_B_iso_or_equiv
_atom_site_occupancy
_atom_site_attached_hydrogens
Li1 Li1+ 2 i 0.6500(9) 0.4550(7) 0.4176(6) . 1. 0
Li2 Li1+ 2 i 0.2524(10) 0.5452(8) 0.0749(7) . 1. 0
Li3 Li1+ 2 i 0.93890(13) 0.38093(10) 0.66313(8) . 0.5 0
Mn1 Mn2+ 2 i 0.93890(13) 0.38093(10) 0.66313(8) . 0.5 0
Mn2 Mn3+ 1 b 0 0 0.5 . 1. 0
Mn3 Mn2+ 2 i 0.06175(7) 0.28590(6) 0.22048(5) . 1. 0
Mn4 Mn2+ 1 a 0 0 0 . 1. 0
Se1 Se4+ 2 i 0.32565(4) 0.74246(4) 0.79563(3) . 1. 0
Se2 Se4+ 2 i 0.68205(4) 0.17832(4) 0.73701(3) . 1. 0
Se3 Se4+ 2 i 0.26557(4) 0.24281(4) 0.93144(3) . 1. 0
Se4 Se4+ 2 i 0.29040(5) 0.21217(4) 0.52333(3) . 1. 0
O1 O2- 2 i 0.8559(3) 0.2450(3) 0.0952(2) . 1. 0
O2 O2- 2 i 0.1947(3) 0.7409(3) 0.6629(2) . 1. 0
O3 O2- 2 i 0.5145(3) 0.4809(3) 0.1501(2) . 1. 0
O4 O2- 2 i 0.7983(3) 0.0075(3) 0.6636(2) . 1. 0
O5 O2- 2 i 0.8774(3) 0.1749(3) 0.8252(2) . 1. 0
O6 O2- 2 i 0.3543(3) 0.6321(3) 0.3896(2) . 1. 0
O7 O2- 2 i 0.0410(3) 0.4094(3) 0.8518(2) . 1. 0
O8 O2- 2 i 0.2692(3) 0.2880(3) 0.0783(2) . 1. 0
O9 O2- 2 i 0.7716(3) 0.9541(3) 0.0219(2) . 1. 0
O10 O2- 2 i 0.9003(4) 0.8404(3) 0.4273(2) . 1. 0
O11 O2- 2 i 0.2194(4) 0.3358(3) 0.3599(2) . 1. 0
O12 O2- 2 i 0.7723(4) 0.6171(4) 0.4044(3) . 1. 0
loop_
_atom_site_aniso_label
_atom_site_aniso_type_symbol
_atom_site_aniso_U_11
_atom_site_aniso_U_22
_atom_site_aniso_U_33
_atom_site_aniso_U_12
_atom_site_aniso_U_13
_atom_site_aniso_U_23
Li1 Li1+ 0.0262(29) 0.0195(21) 0.0323(28) -.0062(21) 0.0042(24) -.0077(19)
Li2 Li1+ 0.0274(31) 0.0317(27) 0.0400(33) -.0145(24) -.0148(26) 0.0086(23)
Li3 Li1+ 0.0226(4) 0.0199(3) 0.0235(4) -.0108(8) 0.0058(3) -.0076(3)
Mn1 Mn2+ 0.0226(4) 0.0199(3) 0.0235(4) -.0108(8) 0.0058(3) -.0076(3)
Mn2 Mn3+ 0.0217(3) 0.0202(2) 0.0193(2) -.0110(2) 0.0015(2) -.0041(2)
Mn3 Mn2+ 0.0224(2) 0.0233(2) 0.0217(2) 0.0122(2) 0.0020(2) -.0046(1)
Mn4 Mn2+ 0.0154(3) 0.0179(2) 0.0164(2) -.0064(2) -.0005(2) -.0030(2)
Se1 Se4+ 0.0172(1) 0.0210(1) 0.0192(1) -.0094(1) 0.0028(1) -.0063(1)
Se2 Se4+ 0.0146(1) 0.0203(1) 0.0170(1) -.0071(1) 0.0019(1) -.0038(1)
Se3 Se4+ 0.0180(1) 0.0207(1) 0.0195(1) -.0087(1) 0.0052(1) -.0055(1)
Se4 Se4+ 0.0173(1) 0.0219(1) 0.0224(1) -.0077(1) 0.0008(1) -.0054(1)
O1 O2- 0.017(1) 0.0241(9) 0.0186(8) -.0084(8) 0.0056(8) -.0071(7)
O2 O2- 0.0218(11) 0.0232(9) 0.0196(8) -.0081(8) 0.0010(8) -.0071(7)
O3 O2- 0.0207(11) 0.0253(9) 0.0330(12) -.0063(8) -.0002(9) -.0097(8)
O4 O2- 0.0232(11) 0.0210(8) 0.0228(9) -.0088(8) 0.0029(8) -.0059(7)
O5 O2- 0.0201(10) 0.0251(9) 0.0188(8) -.0108(8) -.0013(8) -.0041(7)
O6 O2- 0.0235(11) 0.0214(9) 0.0188(8) -.0070(8) 0.0006(8) -.0011(7)
O7 O2- 0.0246(11) 0.0200(8) 0.0217(9) -.0082(8) 0.0023(8) -.0052(7)
O8 O2- 0.0258(11) 0.0294(10) 0.0212(9) -.0145(9) 0.0035(9) -.0096(8)
O9 O2- 0.0165(10) 0.0201(8) 0.0299(10) -.0075(8) 0.0000(8) -.0038(7)
O10 O2- 0.0292(12) 0.0299(10) 0.0309(11) -.0194(9) 0.0105(9) -.0141(8)
O11 O2- 0.0345(13) 0.0299(10) 0.0193(9) -.0185(10) 0.0013(9) -.0058(8)
O12 O2- 0.0449(16) 0.0510(14) 0.0400(14) -.0345(13) 0.0195(12) -.0302(12)
#End of TTdata_72644-ICSD