
#(C) 2018 by FIZ Karlsruhe - Leibniz Institute for Information Infrastructure.  All rights reserved.
data_73706-ICSD
_database_code_ICSD 73706
_audit_creation_date 1995-01-10
_chemical_name_systematic 'Lithium bromate(VII) trihydrate'
_chemical_formula_structural 'Li (Br O4) (H2 O)3'
_chemical_formula_sum 'H6 Br1 Li1 O7'
_chemical_name_structure_type LiClO4(H2O)3
_exptl_crystal_density_diffrn 2.31
_cell_measurement_temperature 296.
_publ_section_title 'Structure of lithium perbromate trihydrate'
loop_
_citation_id
_citation_journal_full
_citation_year
_citation_journal_volume
_citation_page_first
_citation_page_last
_citation_journal_id_ASTM
primary 'Acta Crystallographica, Section C: Crystal Structure Communications'
1993 49 1437 1439 ACSCEE
loop_
_publ_author_name
'Blackburn, A.C.'
'Gallucci, J.C.'
'Gerkin, R.E.'
'Reppart, W.J.'
_cell_length_a 7.8723(5)
_cell_length_b 7.8723(5)
_cell_length_c 5.499(1)
_cell_angle_alpha 90.
_cell_angle_beta 90.
_cell_angle_gamma 120.
_cell_volume 295.13
_cell_formula_units_Z 2
_symmetry_space_group_name_H-M 'P 63 m c'
_symmetry_Int_Tables_number 186
_refine_ls_R_factor_all 0.037
loop_
_symmetry_equiv_pos_site_id
_symmetry_equiv_pos_as_xyz
1 '-x, -x+y, z+1/2'
2 'x-y, -y, z+1/2'
3 'y, x, z+1/2'
4 'x-y, x, z+1/2'
5 'y, -x+y, z+1/2'
6 '-x, -y, z+1/2'
7 'x, x-y, z'
8 '-x+y, y, z'
9 '-y, -x, z'
10 '-x+y, -x, z'
11 '-y, x-y, z'
12 'x, y, z'
loop_
_atom_type_symbol
_atom_type_oxidation_number
Li1+ 1
Br7+ 7
O2- -2
H1+ 1
loop_
_atom_site_label
_atom_site_type_symbol
_atom_site_symmetry_multiplicity
_atom_site_Wyckoff_symbol
_atom_site_fract_x
_atom_site_fract_y
_atom_site_fract_z
_atom_site_B_iso_or_equiv
_atom_site_occupancy
_atom_site_attached_hydrogens
Li1 Li1+ 2 a 0 0 0.2096(39) . 1. 0
Br1 Br7+ 2 b 0.3333 0.6667 0 . 1. 0
O1 O2- 2 b 0.3333 0.6667 0.2952(22) . 1. 0
O2 O2- 6 c 0.4453(4) 0.5547(4) 0.9000(12) . 1. 0
O3 O2- 6 c 0.1204(4) 0.8796(4) 0.4615(11) . 1. 0
H1 H1+ 12 d 0.258(10) -.06(1) 0.445(13) 0.028(21) 1. 0
loop_
_atom_site_aniso_label
_atom_site_aniso_type_symbol
_atom_site_aniso_U_11
_atom_site_aniso_U_22
_atom_site_aniso_U_33
_atom_site_aniso_U_12
_atom_site_aniso_U_13
_atom_site_aniso_U_23
Li1 Li1+ 0.0328(64) 0.0328(64) 0.012(18) 0.0164(32) 0 0
Br1 Br7+ 0.01375(34) 0.01375(34) 0.02395(49) 0.00688(17) 0 0
O1 O2- 0.0465(46) 0.0465(46) 0.0230(45) 0.0233(23) 0 0
O2 O2- 0.0300(25) 0.0300(25) 0.0446(30) 0.0215(29) 0.0035(12) -.0035(12)
O3 O2- 0.0241(17) 0.0241(17) 0.0283(40) 0.0144(19) 0.0005(10) -.0005(10)
#End of TTdata_73706-ICSD