
#(C) 2017 by FIZ Karlsruhe - Leibniz Institute for Information Infrastructure.  All rights reserved.
data_73985-ICSD
_database_code_ICSD 73985
_audit_creation_date 1995-01-10
_chemical_name_systematic 'Lithium calcium chromium fluoride'
_chemical_formula_structural 'Li Ca Cr F6'
_chemical_formula_sum 'Ca1 Cr1 F6 Li1'
_chemical_name_structure_type CaLiAlF6
_exptl_crystal_density_diffrn 3.21
_publ_section_title

;
Chromium site specific chemistry and crystal structure of LiCaCrF6 and related
chromium doped laser materials
;
loop_
_citation_id
_citation_journal_full
_citation_year
_citation_journal_volume
_citation_page_first
_citation_page_last
_citation_journal_id_ASTM
primary 'Journal of Solid State Chemistry' 1993 107 471 479 JSSCBI
loop_
_publ_author_name
'Rupp, B.'
'Kway, W.L.'
'Wong, J.'
'Rogl, P.'
'Fischer, P.'
_cell_length_a 5.1042
_cell_length_b 5.1042
_cell_length_c 9.7767
_cell_angle_alpha 90.
_cell_angle_beta 90.
_cell_angle_gamma 120.
_cell_volume 220.59
_cell_formula_units_Z 2
_symmetry_space_group_name_H-M 'P -3 1 c'
_symmetry_Int_Tables_number 163
_refine_ls_R_factor_all 0.045
loop_
_symmetry_equiv_pos_site_id
_symmetry_equiv_pos_as_xyz
1 '-x+y, y, -z+1/2'
2 'x, x-y, -z+1/2'
3 '-y, -x, -z+1/2'
4 'x-y, x, -z'
5 'y, -x+y, -z'
6 '-x, -y, -z'
7 'x-y, -y, z+1/2'
8 '-x, -x+y, z+1/2'
9 'y, x, z+1/2'
10 '-x+y, -x, z'
11 '-y, x-y, z'
12 'x, y, z'
loop_
_atom_type_symbol
_atom_type_oxidation_number
Ca2+ 2
Li1+ 1
Cr3+ 3
F1- -1
loop_
_atom_site_label
_atom_site_type_symbol
_atom_site_symmetry_multiplicity
_atom_site_Wyckoff_symbol
_atom_site_fract_x
_atom_site_fract_y
_atom_site_fract_z
_atom_site_B_iso_or_equiv
_atom_site_occupancy
_atom_site_attached_hydrogens
Ca1 Ca2+ 2 b 0 0 0 . 1. 0
Li1 Li1+ 2 c 0.3333 0.6667 0.25 0.0149(22) 1. 0
Cr1 Cr3+ 2 d 0.6667 0.3333 0.25 . 1. 0
F1 F1- 12 i 0.3652(3) 0.0183(4) 0.1402(1) . 1. 0
loop_
_atom_site_aniso_label
_atom_site_aniso_type_symbol
_atom_site_aniso_U_11
_atom_site_aniso_U_22
_atom_site_aniso_U_33
_atom_site_aniso_U_12
_atom_site_aniso_U_13
_atom_site_aniso_U_23
Ca1 Ca2+ 0.0112(4) 0.0112(4) 0.0080(4) 0.0056(2) 0 0
Cr1 Cr3+ 0.0083(3) 0.0083(3) 0.0085(3) 0.0041(2) 0 0
F1 F1- 0.0139(7) 0.0124(7) 0.0142(6) 0.0051(5) -.0053(5) -.0016(4)
#End of TTdata_73985-ICSD