
#(C) 2018 by FIZ Karlsruhe - Leibniz Institute for Information Infrastructure.  All rights reserved.
data_74685-ICSD
_database_code_ICSD 74685
_audit_creation_date 1995-10-17
_chemical_name_systematic
'Dilithium tricopper bis(selenate(IV)) bis(selenate(VI))'
_chemical_formula_structural 'Li2 Cu3 (Se O3)2 (Se O4)2'
_chemical_formula_sum 'Cu3 Li2 O14 Se4'
_exptl_crystal_density_diffrn 4.21
_publ_section_title 'Crystal structure of Li2Cu3(SeO3)2(SeO4)2'
loop_
_citation_id
_citation_journal_full
_citation_year
_citation_journal_volume
_citation_page_first
_citation_page_last
_citation_journal_id_ASTM
primary 'Monatshefte fuer Chemie' 1989 120 661 666 MOCMB7
loop_
_publ_author_name
'Giester, G.'
_cell_length_a 16.293(6)
_cell_length_b 5.007(2)
_cell_length_c 14.448(6)
_cell_angle_alpha 90.
_cell_angle_beta 94.21(1)
_cell_angle_gamma 90.
_cell_volume 1175.47
_cell_formula_units_Z 4
_symmetry_space_group_name_H-M 'I 1 2/a 1'
_symmetry_Int_Tables_number 15
_refine_ls_R_factor_all 0.034
loop_
_symmetry_equiv_pos_site_id
_symmetry_equiv_pos_as_xyz
1 'x+1/2, -y, z'
2 '-x, -y, -z'
3 '-x+1/2, y, -z'
4 'x, y, z'
5 'x, -y+1/2, z+1/2'
6 '-x+1/2, -y+1/2, -z+1/2'
7 '-x, y+1/2, -z+1/2'
8 'x+1/2, y+1/2, z+1/2'
loop_
_atom_type_symbol
_atom_type_oxidation_number
Li1+ 1
Cu2+ 2
Se6+ 6
Se4+ 4
O2- -2
loop_
_atom_site_label
_atom_site_type_symbol
_atom_site_symmetry_multiplicity
_atom_site_Wyckoff_symbol
_atom_site_fract_x
_atom_site_fract_y
_atom_site_fract_z
_atom_site_B_iso_or_equiv
_atom_site_occupancy
_atom_site_attached_hydrogens
Li1 Li1+ 8 f 0.4309(4) 0.2458(15) 0.0549(5) . 1. 0
Cu1 Cu2+ 8 f 0.86307(2) 0.24980(9) 0.39451(3) . 1. 0
Cu2 Cu2+ 4 d 0.25 0.25 0.25 . 1. 0
Se1 Se6+ 8 f 0.66654(2) 0.22760(7) 0.37410(2) . 1. 0
Se2 Se4+ 8 f 0.43474(2) 0.21697(7) 0.33628(2) . 1. 0
O1 O2- 8 f 0.6668(2) 0.0291(5) 0.2823(2) . 1. 0
O2 O2- 8 f 0.7527(1) 0.4047(5) 0.3852(2) . 1. 0
O3 O2- 8 f 0.6546(2) 0.0445(5) 0.4655(2) . 1. 0
O4 O2- 8 f 0.5914(1) 0.4415(5) 0.3576(2) . 1. 0
O5 O2- 8 f 0.4713(2) -.0644(5) 0.3893(2) . 1. 0
O6 O2- 8 f 0.4218(1) 0.4204(5) 0.4286(2) . 1. 0
O7 O2- 8 f 0.3358(1) 0.0798(5) 0.3236(2) . 1. 0
loop_
_atom_site_aniso_label
_atom_site_aniso_type_symbol
_atom_site_aniso_U_11
_atom_site_aniso_U_22
_atom_site_aniso_U_33
_atom_site_aniso_U_12
_atom_site_aniso_U_13
_atom_site_aniso_U_23
Li1 Li1+ 0.0261(31) 0.0208(35) 0.0165(32) -.0050(27) -.0014(24) 0.0027(29)
Cu1 Cu2+ 0.0114(2) 0.0101(2) 0.0168(2) -.0005(1) -.0003(1) -.0021(2)
Cu2 Cu2+ 0.0112(2) 0.0128(3) 0.0138(3) -.0003(2) -.0016(2) 0.0046(2)
Se1 Se6+ 0.0109(1) 0.0115(1) 0.0097(1) -.0004(1) 0.0015(1) -.0011(1)
Se2 Se4+ 0.0111(1) 0.0105(1) 0.0113(1) -.0001(1) 0.0004(1) 0.0010(1)
O1 O2- 0.0165(11) 0.0145(11) 0.0122(12) 0.0010(8) -.0015(9) -.0047(10)
O2 O2- 0.0114(10) 0.0140(11) 0.0189(14) -.0001(8) 0.0020(9) -.0006(10)
O3 O2- 0.0208(12) 0.0174(12) 0.0108(12) -.0030(9) 0.0015(10) 0.0025(10)
O4 O2- 0.0143(11) 0.0166(12) 0.0165(14) 0.0030(8) 0.000(1) -.0016(10)
O5 O2- 0.0149(11) 0.0123(11) 0.0198(14) 0.0023(8) -.0014(9) 0.0048(10)
O6 O2- 0.0191(11) 0.0110(11) 0.0106(12) 0.0033(8) -.0022(9) -.0001(9)
O7 O2- 0.0112(10) 0.0129(11) 0.0144(13) -.0002(8) -.0013(9) 0.0035(9)
#End of TTdata_74685-ICSD