
#(C) 2018 by FIZ Karlsruhe - Leibniz Institute for Information Infrastructure.  All rights reserved.
data_74860-ICSD
_database_code_ICSD 74860
_audit_creation_date 1995-10-17
_chemical_name_systematic 'Lithium aluminium catena-phosphate'
_chemical_formula_structural 'Li Al (P O3)4'
_chemical_formula_sum 'Al1 Li1 O12 P4'
_exptl_crystal_density_diffrn 2.54
_publ_section_title 'Synthese und Kristallstruktur von LiAl((P2O6)2)'
loop_
_citation_id
_citation_journal_full
_citation_year
_citation_journal_volume
_citation_page_first
_citation_page_last
_citation_journal_id_ASTM
primary 'Zeitschrift fuer Anorganische und Allgemeine Chemie (1950) (DE)' 1994
620 1409 1412 ZAACAB
loop_
_publ_author_name
'Bruehne, B.'
'Jansen, M.'
_cell_length_a 12.4454(1)
_cell_length_b 8.2340(1)
_cell_length_c 8.9246(1)
_cell_angle_alpha 90.
_cell_angle_beta 90.
_cell_angle_gamma 90.
_cell_volume 914.55
_cell_formula_units_Z 4
_symmetry_space_group_name_H-M 'P b c n'
_symmetry_Int_Tables_number 60
_refine_ls_R_factor_all 0.029
loop_
_symmetry_equiv_pos_site_id
_symmetry_equiv_pos_as_xyz
1 'x, -y, z+1/2'
2 '-x+1/2, y+1/2, z'
3 'x+1/2, y+1/2, -z+1/2'
4 '-x, -y, -z'
5 '-x, y, -z+1/2'
6 'x+1/2, -y+1/2, -z'
7 '-x+1/2, -y+1/2, z+1/2'
8 'x, y, z'
loop_
_atom_type_symbol
_atom_type_oxidation_number
Al3+ 3
Li1+ 1
P5+ 5
O2- -2
loop_
_atom_site_label
_atom_site_type_symbol
_atom_site_symmetry_multiplicity
_atom_site_Wyckoff_symbol
_atom_site_fract_x
_atom_site_fract_y
_atom_site_fract_z
_atom_site_B_iso_or_equiv
_atom_site_occupancy
_atom_site_attached_hydrogens
Al1 Al3+ 4 c 0.5 0.1324(1) 0.25 . 1. 0
Li1 Li1+ 4 c 0.5 0.4972(9) 0.25 . 1. 0
P1 P5+ 8 d 0.64866(5) 0.96352(8) 0.48834(7) . 1. 0
P2 P5+ 8 d 0.36081(5) 0.31749(8) 0.00584(8) . 1. 0
O1 O2- 8 d 0.5671(2) -.0286(2) 0.3656(2) . 1. 0
O2 O2- 8 d 0.4377(1) 0.3015(2) 0.1353(2) . 1. 0
O3 O2- 8 d 0.3796(1) 0.1342(2) 0.3773(2) . 1. 0
O4 O2- 8 d 0.6801(1) 0.1413(2) 0.5396(2) . 1. 0
O5 O2- 8 d 0.3951(2) 0.4079(3) 0.8732(2) . 1. 0
O6 O2- 8 d 0.7558(2) 0.8951(2) 0.4196(2) . 1. 0
loop_
_atom_site_aniso_label
_atom_site_aniso_type_symbol
_atom_site_aniso_U_11
_atom_site_aniso_U_22
_atom_site_aniso_U_33
_atom_site_aniso_U_12
_atom_site_aniso_U_13
_atom_site_aniso_U_23
Al1 Al3+ 0.0067(4) 0.0075(4) 0.0066(5) 0 -.0005(4) 0
Li1 Li1+ 0.028(4) 0.016(4) 0.019(4) 0 -.002(3) 0
P1 P5+ 0.0055(3) 0.0077(3) 0.0072(3) 0.0009(3) 0.0005(3) 0.0010(3)
P2 P5+ 0.0070(3) 0.0069(3) 0.0076(3) 0.0002(2) -.0012(3) 0.0006(2)
O1 O2- 0.0097(8) 0.0093(9) 0.0088(9) 0.0005(7) -.0026(7) 0.0007(8)
O2 O2- 0.0074(8) 0.0091(8) 0.0102(9) 0.0002(7) -.0014(7) 0.0005(7)
O3 O2- 0.0077(8) 0.0131(9) 0.0085(8) 0.0008(7) 0.0012(6) 0.0034(8)
O4 O2- 0.0147(9) 0.0096(9) 0.017(1) 0.0002(7) -.0073(7) 0.0012(8)
O5 O2- 0.019(1) 0.021(1) 0.0138(9) -.0029(8) 0.0033(8) 0.0065(9)
O6 O2- 0.0068(8) 0.019(1) 0.0129(9) 0.0054(7) 0.0016(7) 0.0026(8)
#End of TTdata_74860-ICSD