
#(C) 2018 by FIZ Karlsruhe - Leibniz Institute for Information Infrastructure.  All rights reserved.
data_74865-ICSD
_database_code_ICSD 74865
_audit_creation_date 1995-10-17
_chemical_name_systematic
'Rubidium trisodium octalithium tetrakis(lithosilicate)'
_chemical_formula_structural 'Rb Na3 Li8 (Li (Si O4))4'
_chemical_formula_sum 'Li12 Na3 O16 Rb1 Si4'
_chemical_name_structure_type CsKNa2Li8(LiSiO4)4
_exptl_crystal_density_diffrn 2.67
_publ_section_title

;
Neue Silicate mit "stuffed Pyrgoms": CsKNaLi9(Li(SiO4))4,
CsKNa2Li8(Li(SiO4))4, RbNa3Li8(Li(SiO4))4 und RbNaLi4(Li(SiO4))2
;
loop_
_citation_id
_citation_journal_full
_citation_year
_citation_journal_volume
_citation_page_first
_citation_page_last
_citation_journal_id_ASTM
primary 'Zeitschrift fuer Anorganische und Allgemeine Chemie (1950) (DE)' 1994
620 1495 1508 ZAACAB
loop_
_publ_author_name
'Hofmann, J.'
'Brandes, R.'
'Hoppe, R.'
_cell_length_a 10.9157(14)
_cell_length_b 10.9157(14)
_cell_length_c 6.3263(12)
_cell_angle_alpha 90.
_cell_angle_beta 90.
_cell_angle_gamma 90.
_cell_volume 753.79
_cell_formula_units_Z 2
_symmetry_space_group_name_H-M 'I 4/m'
_symmetry_Int_Tables_number 87
_refine_ls_R_factor_all 0.023
loop_
_symmetry_equiv_pos_site_id
_symmetry_equiv_pos_as_xyz
1 '-y, x, -z'
2 'y, -x, -z'
3 'x, y, -z'
4 '-x, -y, -z'
5 'y, -x, z'
6 '-y, x, z'
7 '-x, -y, z'
8 'x, y, z'
9 '-y+1/2, x+1/2, -z+1/2'
10 'y+1/2, -x+1/2, -z+1/2'
11 'x+1/2, y+1/2, -z+1/2'
12 '-x+1/2, -y+1/2, -z+1/2'
13 'y+1/2, -x+1/2, z+1/2'
14 '-y+1/2, x+1/2, z+1/2'
15 '-x+1/2, -y+1/2, z+1/2'
16 'x+1/2, y+1/2, z+1/2'
loop_
_atom_type_symbol
_atom_type_oxidation_number
Si4+ 4
Rb1+ 1
Na1+ 1
Li1+ 1
O2- -2
loop_
_atom_site_label
_atom_site_type_symbol
_atom_site_symmetry_multiplicity
_atom_site_Wyckoff_symbol
_atom_site_fract_x
_atom_site_fract_y
_atom_site_fract_z
_atom_site_B_iso_or_equiv
_atom_site_occupancy
_atom_site_attached_hydrogens
Si1 Si4+ 8 h 0.2197(1) 0.4246(1) 0 . 1. 0
Rb1 Rb1+ 2 a 0 0 0 . 1. 0
Na1 Na1+ 2 b 0 0 0.5 . 1. 0
Na2 Na1+ 4 d 0.5 0 0.25 . 1. 0
Li1 Li1+ 16 i 0.7355(3) 0.3913(3) 0.2438(5) . 1. 0
Li2 Li1+ 8 h 0.7161(4) 0.9242(4) 0 . 1. 0
O1 O2- 8 h 0.4366(1) 0.1614(1) 0 . 1. 0
O2 O2- 8 h 0.8924(1) 0.6749(1) 0 . 1. 0
O3 O2- 16 i 0.9140(1) 0.1977(1) 0.2847(2) . 1. 0
loop_
_atom_site_aniso_label
_atom_site_aniso_type_symbol
_atom_site_aniso_U_11
_atom_site_aniso_U_22
_atom_site_aniso_U_33
_atom_site_aniso_U_12
_atom_site_aniso_U_13
_atom_site_aniso_U_23
Si1 Si4+ 0.0070(3) 0.0067(3) 0.0068(3) 0.0005(2) 0 0
Rb1 Rb1+ 0.0150(2) 0.0150(2) 0.0128(2) 0 0 0
Na1 Na1+ 0.0137(7) 0.0137(7) 0.0139(9) 0 0 0
Na2 Na1+ 0.0145(4) 0.0145(4) 0.0137(6) 0 0 0
Li1 Li1+ 0.0141(14) 0.0209(15) 0.0120(14) -.0066(12) -.0005(11) 0.0015(11)
Li2 Li1+ 0.0114(19) 0.0138(20) 0.0087(18) -.0086(14) 0 0
O1 O2- 0.0084(7) 0.0096(7) 0.0089(7) -.0018(6) 0 0
O2 O2- 0.0119(8) 0.0128(8) 0.0097(7) -.0048(6) 0 0
O3 O2- 0.0124(5) 0.0122(5) 0.0101(6) -.0035(4) 0.0011(4) -.0039(4)
#End of TTdata_74865-ICSD