
#(C) 2018 by FIZ Karlsruhe - Leibniz Institute for Information Infrastructure.  All rights reserved.
data_74930-ICSD
_database_code_ICSD 74930
_audit_creation_date 1995-10-17
_audit_update_record 2012-02-01
_chemical_name_systematic 'Dilithium iodide hydroxide'
_chemical_formula_structural 'Li2 I (O H)'
_chemical_formula_sum 'H1 I1 Li2 O1'
_chemical_name_structure_type Li2IOH
_exptl_crystal_density_diffrn 2.74
_publ_section_title

;
Li2 I (O H): eine Verbindung mit eindimensional unendlich kantenverknuepften
(Li4/2 (O H))(+)-Pyramiden
;
loop_
_citation_id
_citation_journal_full
_citation_year
_citation_journal_volume
_citation_page_first
_citation_page_last
_citation_journal_id_ASTM
primary 'Zeitschrift fuer Anorganische und Allgemeine Chemie (1950) (DE)' 1994
620 475 478 ZAACAB
loop_
_publ_author_name
'Barlage, H.'
'Jacobs, H.'
_cell_length_a 10.339(4)
_cell_length_b 5.567(1)
_cell_length_c 6.643(2)
_cell_angle_alpha 90.
_cell_angle_beta 90.
_cell_angle_gamma 90.
_cell_volume 382.35
_cell_formula_units_Z 4
_symmetry_space_group_name_H-M 'P n m a'
_symmetry_Int_Tables_number 62
_refine_ls_R_factor_all 0.03
loop_
_symmetry_equiv_pos_site_id
_symmetry_equiv_pos_as_xyz
1 'x+1/2, y, -z+1/2'
2 'x, -y+1/2, z'
3 '-x+1/2, y+1/2, z+1/2'
4 '-x, -y, -z'
5 '-x+1/2, -y, z+1/2'
6 '-x, y+1/2, -z'
7 'x+1/2, -y+1/2, -z+1/2'
8 'x, y, z'
loop_
_atom_type_symbol
_atom_type_oxidation_number
I1- -1
O2- -2
Li1+ 1
H1+ 1
loop_
_atom_site_label
_atom_site_type_symbol
_atom_site_symmetry_multiplicity
_atom_site_Wyckoff_symbol
_atom_site_fract_x
_atom_site_fract_y
_atom_site_fract_z
_atom_site_B_iso_or_equiv
_atom_site_occupancy
_atom_site_attached_hydrogens
I1 I1- 4 c 0.1750(1) 0.25 0.0841(2) . 1. 0
O1 O2- 4 c 0.020(1) 0.25 0.582(2) . 1. 0
Li1 Li1+ 8 d 0.391(2) 0.001(3) 0.939(3) . 1. 0
H1 H1+ 4 c 0.042 0.25 0.725 . 1. 0
loop_
_atom_site_aniso_label
_atom_site_aniso_type_symbol
_atom_site_aniso_U_11
_atom_site_aniso_U_22
_atom_site_aniso_U_33
_atom_site_aniso_U_12
_atom_site_aniso_U_13
_atom_site_aniso_U_23
I1 I1- 0.0373(4) 0.0382(4) 0.0250(3) 0 0.0041(5) 0
O1 O2- 0.033(4) 0.023(4) 0.023(3) 0 -.002(5) 0
Li1 Li1+ 0.039(8) 0.022(7) 0.05(1) 0.001(7) 0.009(9) -.001(9)
#End of TTdata_74930-ICSD