
#(C) 2018 by FIZ Karlsruhe - Leibniz Institute for Information Infrastructure.  All rights reserved.
data_75180-ICSD
_database_code_ICSD 75180
_audit_creation_date 1995-10-17
_audit_update_record 2012-02-01
_chemical_name_systematic 'Lithium iron(III) diarsenate(V)'
_chemical_formula_structural 'Li Fe (As2 O7)'
_chemical_formula_sum 'As2 Fe1 Li1 O7'
_chemical_name_structure_type LiFeAs2O7
_exptl_crystal_density_diffrn 4.23
_cell_measurement_temperature 297.
_publ_section_title

;
Synthesis and structural characterization of lithium iron diarsenate, Li Fe
As2 O7
;
loop_
_citation_id
_citation_journal_full
_citation_year
_citation_journal_volume
_citation_page_first
_citation_page_last
_citation_journal_id_ASTM
primary 'Journal of Solid State Chemistry' 1994 113 37 40 JSSCBI
loop_
_publ_author_name
'Wang, S.-L.'
'Wu, C.-H.'
'Liu, S.-N.'
_cell_length_a 6.676(2)
_cell_length_b 8.285(2)
_cell_length_c 4.744(2)
_cell_angle_alpha 90.
_cell_angle_beta 103.96(2)
_cell_angle_gamma 90.
_cell_volume 254.64
_cell_formula_units_Z 2
_symmetry_space_group_name_H-M 'C 1 2 1'
_symmetry_Int_Tables_number 5
_refine_ls_R_factor_all 0.019
loop_
_symmetry_equiv_pos_site_id
_symmetry_equiv_pos_as_xyz
1 '-x, y, -z'
2 'x, y, z'
3 '-x+1/2, y+1/2, -z'
4 'x+1/2, y+1/2, z'
loop_
_atom_type_symbol
_atom_type_oxidation_number
As5+ 5
Fe3+ 3
O2- -2
Li1+ 1
loop_
_atom_site_label
_atom_site_type_symbol
_atom_site_symmetry_multiplicity
_atom_site_Wyckoff_symbol
_atom_site_fract_x
_atom_site_fract_y
_atom_site_fract_z
_atom_site_B_iso_or_equiv
_atom_site_occupancy
_atom_site_attached_hydrogens
As1 As5+ 4 c 0.78358(8) 0.46144 0.5920(1) . 1. 0
Fe1 Fe3+ 2 a 0.5 0.6252(3) 0 . 1. 0
O1 O2- 4 c 0.7503(7) 0.6055(7) 0.8223(9) . 1. 0
O2 O2- 4 c 0.8322(8) 0.2821(8) 0.747(1) . 1. 0
O3 O2- 4 c 0.6068(6) 0.4418(7) 0.2744(9) . 1. 0
O4 O2- 2 b 0 0.540(1) 0.5 . 1. 0
Li1 Li1+ 2 a 0 0.747(4) 0 0.036(6) 1. 0
loop_
_atom_site_aniso_label
_atom_site_aniso_type_symbol
_atom_site_aniso_U_11
_atom_site_aniso_U_22
_atom_site_aniso_U_33
_atom_site_aniso_U_12
_atom_site_aniso_U_13
_atom_site_aniso_U_23
As1 As5+ 0.0046(3) 0.0061(3) 0.0065(3) 0.0006(3) 0.0021(2) 0.0006(2)
Fe1 Fe3+ 0.0049(6) 0.0065(6) 0.0070(6) 0 0.0013(4) 0
O1 O2- 0.011(2) 0.010(2) 0.014(2) 0.000(2) 0.006(1) -.005(1)
O2 O2- 0.015(3) 0.007(2) 0.016(2) 0.004(2) 0.000(2) 0.006(2)
O3 O2- 0.003(2) 0.009(3) 0.007(2) 0.000(2) 0.002(1) 0.001(2)
O4 O2- 0.004(3) 0.013(3) 0.026(3) 0 0.006(2) 0
#End of TTdata_75180-ICSD