
#(C) 2018 by FIZ Karlsruhe - Leibniz Institute for Information Infrastructure.  All rights reserved.
data_75263-ICSD
_database_code_ICSD 75263
_audit_creation_date 1995-10-17
_chemical_name_systematic 'Lithium gallium catena-disilicate'
_chemical_formula_structural 'Li Ga (Si2 O6)'
_chemical_formula_sum 'Ga1 Li1 O6 Si2'
_chemical_name_structure_type Pyroxene-CaMg(SiO3)2
_exptl_crystal_density_diffrn 3.75
_cell_measurement_temperature 298.
_publ_section_title LiGaSi2O6
loop_
_citation_id
_citation_journal_full
_citation_year
_citation_journal_volume
_citation_page_first
_citation_page_last
_citation_journal_id_ASTM
primary 'Acta Crystallographica, Section C: Crystal Structure Communications'
1994 50 487 488 ACSCEE
loop_
_publ_author_name
'Sato, A.'
'Osawa, T.'
'Ohashi, H.'
_cell_length_a 9.561(1)
_cell_length_b 8.569(1)
_cell_length_c 5.268(1)
_cell_angle_alpha 90.
_cell_angle_beta 110.244(3)
_cell_angle_gamma 90.
_cell_volume 404.94
_cell_formula_units_Z 4
_symmetry_space_group_name_H-M 'C 1 2/c 1'
_symmetry_Int_Tables_number 15
_refine_ls_R_factor_all 0.017
loop_
_symmetry_equiv_pos_site_id
_symmetry_equiv_pos_as_xyz
1 'x, -y, z+1/2'
2 '-x, -y, -z'
3 '-x, y, -z+1/2'
4 'x, y, z'
5 'x+1/2, -y+1/2, z+1/2'
6 '-x+1/2, -y+1/2, -z'
7 '-x+1/2, y+1/2, -z+1/2'
8 'x+1/2, y+1/2, z'
loop_
_atom_type_symbol
_atom_type_oxidation_number
Li1+ 1
Ga3+ 3
Si4+ 4
O2- -2
loop_
_atom_site_label
_atom_site_type_symbol
_atom_site_symmetry_multiplicity
_atom_site_Wyckoff_symbol
_atom_site_fract_x
_atom_site_fract_y
_atom_site_fract_z
_atom_site_B_iso_or_equiv
_atom_site_occupancy
_atom_site_attached_hydrogens
Li1 Li1+ 4 e 0 0.2642(5) 0.25 . 1. 0
Ga1 Ga3+ 4 e 0 0.90154(2) 0.25 . 1. 0
Si1 Si4+ 8 f 0.29673(3) 0.09112(3) 0.26088(6) . 1. 0
O1 O2- 8 f 0.11357(8) 0.08377(8) 0.1442(1) . 1. 0
O2 O2- 8 f 0.36547(8) 0.26160(9) 0.3232(1) . 1. 0
O3 O2- 8 f 0.35682(7) 0.0001(1) 0.0491(2) . 1. 0
loop_
_atom_site_aniso_label
_atom_site_aniso_type_symbol
_atom_site_aniso_U_11
_atom_site_aniso_U_22
_atom_site_aniso_U_33
_atom_site_aniso_U_12
_atom_site_aniso_U_13
_atom_site_aniso_U_23
Li1 Li1+ 0.022(1) 0.018(1) 0.015(1) 0 0.006(1) 0
Ga1 Ga3+ 0.00449(4) 0.00485(5) 0.00431(4) 0 0.00129(3) 0
Si1 Si4+ 0.00393(8) 0.00496(9) 0.00417(8) -.00072(6) 0.00112(6) -.00029(6)
O1 O2- 0.0035(2) 0.0067(2) 0.0052(2) -.0004(2) 0.0006(2) 0.0002(2)
O2 O2- 0.0086(2) 0.0068(2) 0.0112(2) -.0038(2) 0.0046(2) -.0017(2)
O3 O2- 0.0060(2) 0.0154(3) 0.0069(2) 0.0000(2) 0.0016(2) -.0051(2)
#End of TTdata_75263-ICSD