
#(C) 2018 by FIZ Karlsruhe - Leibniz Institute for Information Infrastructure.  All rights reserved.
data_75526-ICSD
_database_code_ICSD 75526
_audit_creation_date 1996-04-22
_chemical_name_systematic 'Lithium zinc niobium oxide'
_chemical_formula_structural 'Li Zn Nb O4'
_chemical_formula_sum 'Li1 Nb1 O4 Zn1'
_chemical_name_structure_type TiMn2O4
_exptl_crystal_density_diffrn 4.9
_cell_measurement_temperature 305.
_publ_section_title

;
Structures and crystal chemistry of ordered spinels: Li Fe5 O8, Li Zn Nb O4,
and Zn2 Ti O4
;
loop_
_citation_id
_citation_journal_full
_citation_year
_citation_journal_volume
_citation_page_first
_citation_page_last
_citation_journal_id_ASTM
primary 'Journal of Solid State Chemistry' 1994 113 413 419 JSSCBI
loop_
_publ_author_name
'Marin, S.J.'
'O'Keeffe, M.'
'Partin, D.E.'
_cell_length_a 6.0804(1)
_cell_length_b 6.0804(1)
_cell_length_c 8.3988(1)
_cell_angle_alpha 90.
_cell_angle_beta 90.
_cell_angle_gamma 90.
_cell_volume 310.51
_cell_formula_units_Z 4
_symmetry_space_group_name_H-M 'P 43 2 2'
_symmetry_Int_Tables_number 95
_refine_ls_R_factor_all 0.026
loop_
_symmetry_equiv_pos_site_id
_symmetry_equiv_pos_as_xyz
1 '-y, -x, -z+3/4'
2 'y, x, -z+1/4'
3 'x, -y, -z+1/2'
4 '-x, y, -z'
5 'y, -x, z+1/4'
6 '-y, x, z+3/4'
7 '-x, -y, z+1/2'
8 'x, y, z'
loop_
_atom_type_symbol
_atom_type_oxidation_number
Li1+ 1
Zn2+ 2
Nb5+ 5
O2- -2
loop_
_atom_site_label
_atom_site_type_symbol
_atom_site_symmetry_multiplicity
_atom_site_Wyckoff_symbol
_atom_site_fract_x
_atom_site_fract_y
_atom_site_fract_z
_atom_site_B_iso_or_equiv
_atom_site_occupancy
_atom_site_attached_hydrogens
Li1 Li1+ 4 a 0.2254(9) 0 0.25 0.021(1) 1. 0
Zn1 Zn2+ 4 c 0.2619(2) 0.2619(2) 0.625 0.0046(2) 1. 0
Nb1 Nb5+ 4 b 0.5 0.2156(2) 0 0.0011(2) 1. 0
O1 O2- 8 d 0.2637(1) 0.0186(1) 0.9951(1) 0.0057(2) 1. 0
O2 O2- 8 d 0.2679(1) 0.4794(1) 0.0172(1) 0.0032(2) 1. 0
#End of TTdata_75526-ICSD