
#(C) 2018 by FIZ Karlsruhe - Leibniz Institute for Information Infrastructure.  All rights reserved.
data_77095-ICSD
_database_code_ICSD 77095
_audit_creation_date 2003-04-01
_audit_update_record 2009-02-01
_chemical_name_systematic 'Trilithium phosphate(V)'
_chemical_formula_structural 'Li3 (P O4)'
_chemical_formula_sum 'Li3 O4 P1'
_chemical_name_structure_type Li2MgGeO4
_chemical_name_mineral Lithiophosphate
_exptl_crystal_density_diffrn 2.43
_publ_section_title

;
Electron distribution in lithiophosphatite: Crystallochemical features of
orthophasphates with hexagonal close packing
;
loop_
_citation_id
_citation_journal_full
_citation_year
_citation_journal_volume
_citation_page_first
_citation_page_last
_citation_journal_id_ASTM
primary Kristallografiya 1997 42 301 308 KRISAJ
loop_
_publ_author_name
'Yakubovich, O.V.'
'Urusov, V.S.'
_cell_length_a 10.490(3)
_cell_length_b 6.120(2)
_cell_length_c 4.9266(7)
_cell_angle_alpha 90.
_cell_angle_beta 90.
_cell_angle_gamma 90.
_cell_volume 316.28
_cell_formula_units_Z 4
_symmetry_space_group_name_H-M 'P n m a'
_symmetry_Int_Tables_number 62
_refine_ls_R_factor_all 0.0199
loop_
_symmetry_equiv_pos_site_id
_symmetry_equiv_pos_as_xyz
1 'x+1/2, y, -z+1/2'
2 'x, -y+1/2, z'
3 '-x+1/2, y+1/2, z+1/2'
4 '-x, -y, -z'
5 '-x+1/2, -y, z+1/2'
6 '-x, y+1/2, -z'
7 'x+1/2, -y+1/2, -z+1/2'
8 'x, y, z'
loop_
_atom_type_symbol
_atom_type_oxidation_number
Li1+ 1
P5+ 5
O2- -2
loop_
_atom_site_label
_atom_site_type_symbol
_atom_site_symmetry_multiplicity
_atom_site_Wyckoff_symbol
_atom_site_fract_x
_atom_site_fract_y
_atom_site_fract_z
_atom_site_B_iso_or_equiv
_atom_site_occupancy
_atom_site_attached_hydrogens
Li1 Li1+ 8 d 0.1639(2) 0.5013(3) 0.3013(4) . 1. 0
Li2 Li1+ 4 c 0.4237(3) 0.75 0.2056(6) . 1. 0
P1 P5+ 4 c 0.41151(3) 0.25 0.30878(6) . 1. 0
O1 O2- 8 d 0.34167(6) 0.04389(9) 0.2057(1) . 1. 0
O2 O2- 4 c 0.05042(8) 0.25 0.2937(2) . 1. 0
O3 O2- 4 c 0.08964(9) 0.75 0.1223(1) . 1. 0
loop_
_atom_site_aniso_label
_atom_site_aniso_type_symbol
_atom_site_aniso_B_11
_atom_site_aniso_B_22
_atom_site_aniso_B_33
_atom_site_aniso_B_12
_atom_site_aniso_B_13
_atom_site_aniso_B_23
Li1 Li1+ 0.83(5) 0.89(4) 1.06(4) -.01(3) 0.06(6) 0.06(4)
Li2 Li1+ 0.99(8) 1.08(7) 1.18(7) 0 -.16(8) 0
P1 P5+ 0.40(1) 0.40(1) 0.36(1) 0 0.03(1) 0
O1 O2- 0.67(2) 0.58(1) 0.79(1) -.15(1) -.02(2) -.16(1)
O2 O2- 0.43(2) 0.72(2) 0.92(2) 0 -.13(2) 0
O3 O2- 0.92(2) 0.71(2) 0.39(2) 0 0.02(2) 0
#End of TTdata_77095-ICSD