
#(C) 2018 by FIZ Karlsruhe - Leibniz Institute for Information Infrastructure.  All rights reserved.
data_77834-ICSD
_database_code_ICSD 77834
_audit_creation_date 2003-04-01
_audit_update_record 2007-08-01
_chemical_name_systematic 'Lithium hydrogen iodate(V) (0.66/0.28/1)'
_chemical_formula_structural 'Li0.66 H0.28 (I O3)'
_chemical_formula_sum 'H0.28 I1 Li0.66 O3'
_chemical_name_structure_type LiIO3
_exptl_crystal_density_diffrn 4.64
_cell_measurement_temperature 60.
_publ_section_title

;
Localization of protons in Li1-x Hx I O3 by single crystal Li1-x Hx I O3
studied by high resolution neutron neutron diffraction
;
loop_
_citation_id
_citation_journal_full
_citation_year
_citation_journal_volume
_citation_page_first
_citation_page_last
_citation_journal_id_ASTM
primary 'Journal of Solid State Chemistry' 1995 115 309 312 JSSCBI
loop_
_publ_author_name
'le Roy, J.'
'Rosso, C.'
'Bouillot, J.'
'Crettez, J.M.'
'Boucherle, J.X.'
'Bonnet, M.'
_cell_length_a 5.494(7)
_cell_length_b 5.494
_cell_length_c 4.924(2)
_cell_angle_alpha 90.
_cell_angle_beta 90.
_cell_angle_gamma 120.
_cell_volume 128.71
_cell_formula_units_Z 2
_symmetry_space_group_name_H-M 'P 63'
_symmetry_Int_Tables_number 173
_refine_ls_R_factor_all 0.024
loop_
_symmetry_equiv_pos_site_id
_symmetry_equiv_pos_as_xyz
1 'x-y, x, z+1/2'
2 'y, -x+y, z+1/2'
3 '-x, -y, z+1/2'
4 '-x+y, -x, z'
5 '-y, x-y, z'
6 'x, y, z'
loop_
_atom_type_symbol
_atom_type_oxidation_number
Li1+ 1
I5+ 5
H1+ 1
O2- -2
loop_
_atom_site_label
_atom_site_type_symbol
_atom_site_symmetry_multiplicity
_atom_site_Wyckoff_symbol
_atom_site_fract_x
_atom_site_fract_y
_atom_site_fract_z
_atom_site_B_iso_or_equiv
_atom_site_occupancy
_atom_site_attached_hydrogens
Li1 Li1+ 2 a 0 0 0.439(2) . 0.66 0
I1 I5+ 2 b 0.6667 0.3333 0 . 1. 0
H1 H1+ 6 c 0.237(4) 0.303(3) -.049(5) . 0.093 0
O1 O2- 6 c 0.3508(2) 0.2630(2) 0.1733(6) . 1. 0
loop_
_atom_site_aniso_label
_atom_site_aniso_type_symbol
_atom_site_aniso_beta_11
_atom_site_aniso_beta_22
_atom_site_aniso_beta_33
_atom_site_aniso_beta_12
_atom_site_aniso_beta_13
_atom_site_aniso_beta_23
Li1 Li1+ 0.009(2) 0.009 0.047(3) 0.0045 0 0
I1 I5+ 0.0073(6) 0.0073 0.013(2) 0.00365 0 0
H1 H1+ 0.014(11) 0.039(11) 0.018(17) 0.014(8) 0.004(8) 0.002(11)
O1 O2- 0.0098(4) 0.0128(5) 0.0267(8) 0.0056(3) 0.0047(7) 0.0007(6)
#End of TTdata_77834-ICSD