
#(C) 2017 by FIZ Karlsruhe - Leibniz Institute for Information Infrastructure.  All rights reserved.
data_78094-ICSD
_database_code_ICSD 78094
_audit_creation_date 1995-10-17
_chemical_name_systematic 'Lithium manganese zirconium chloride (1/1/6/14)'
_chemical_formula_structural 'Li Mn Zr6 Cl14'
_chemical_formula_sum 'Cl14 Li1 Mn1 Zr6'
_exptl_crystal_density_diffrn 3.34
_publ_section_title

;
New cluster phases A(I)Zr6Cl14Mn and Zr6Cl14Fe: A second structure type with
small cations
;
loop_
_citation_id
_citation_journal_full
_citation_year
_citation_journal_volume
_citation_page_first
_citation_page_last
_citation_journal_id_ASTM
primary 'Journal of Solid State Chemistry' 1994 109 265 271 JSSCBI
loop_
_publ_author_name
'Zhang, J.'
'Corbett, J.D.'
_cell_length_a 14.507(2)
_cell_length_b 12.858(2)
_cell_length_c 11.786(2)
_cell_angle_alpha 90.
_cell_angle_beta 90.
_cell_angle_gamma 90.
_cell_volume 2198.45
_cell_formula_units_Z 4
_symmetry_space_group_name_H-M 'C m c a'
_symmetry_Int_Tables_number 64
_refine_ls_R_factor_all 0.053
loop_
_symmetry_equiv_pos_site_id
_symmetry_equiv_pos_as_xyz
1 '-x, -y+1/2, z+1/2'
2 '-x, y+1/2, -z+1/2'
3 '-x, y, z'
4 '-x, -y, -z'
5 'x, y+1/2, -z+1/2'
6 'x, -y+1/2, z+1/2'
7 'x, -y, -z'
8 'x, y, z'
9 '-x+1/2, -y, z+1/2'
10 '-x+1/2, y, -z+1/2'
11 '-x+1/2, y+1/2, z'
12 '-x+1/2, -y+1/2, -z'
13 'x+1/2, y, -z+1/2'
14 'x+1/2, -y, z+1/2'
15 'x+1/2, -y+1/2, -z'
16 'x+1/2, y+1/2, z'
loop_
_atom_type_symbol
_atom_type_oxidation_number
Zr1+ 1.83
Cl1- -1
Mn2+ 2
Li1+ 1
loop_
_atom_site_label
_atom_site_type_symbol
_atom_site_symmetry_multiplicity
_atom_site_Wyckoff_symbol
_atom_site_fract_x
_atom_site_fract_y
_atom_site_fract_z
_atom_site_B_iso_or_equiv
_atom_site_occupancy
_atom_site_attached_hydrogens
Zr1 Zr1+ 16 g 0.38093(5) 0.07327(5) 0.88124(6) 1.38(1) 1. 0
Zr2 Zr1+ 8 f 0 0.34636(8) 0.88801 1.40(2) 1. 0
Cl1 Cl1- 16 g 0.1234(1) 0.0870(1) 0.2503(2) 1.83(3) 1. 0
Cl2 Cl1- 16 g 0.1239(1) 0.2557(2) 0.0063(2) 1.81(3) 1. 0
Cl3 Cl1- 8 e 0.25 0.3411(2) 0.25 1.99(5) 1. 0
Cl4 Cl1- 8 f 0 0.1576(2) 0.7600(2) 1.90(5) 1. 0
Cl5 Cl1- 8 d 0.2491(2) 0 0 1.79(4) 1. 0
Mn1 Mn2+ 4 b 0 0 0.5 1.81(4) 1. 0
Li1 Li1+ 16 g 0.251(4) 0.676(4) 0.153(5) 1.9(8) 0.252(2) 0
#End of TTdata_78094-ICSD