
#(C) 2018 by FIZ Karlsruhe - Leibniz Institute for Information Infrastructure.  All rights reserved.
data_78499-ICSD
_database_code_ICSD 78499
_audit_creation_date 1996-10-14
_chemical_name_systematic
'Lithium mangnesium chromium sulfate (0.25/0.25/1.75/3)'
_chemical_formula_structural 'Li0.25 (Mg0.25 Cr1.75) (S O4)3'
_chemical_formula_sum 'Cr1.75 Li0.25 Mg0.25 O12 S3'
_exptl_crystal_density_diffrn 3.05
_publ_section_title

;
Neutron diffraction structural study of the Nasicon-related phases Lix M(II)x
M(III)2-x (S O4)3-y (Se O4)y (M(II)= Mg, Ni, Zn; M(III)= Al, Cr)
;
loop_
_citation_id
_citation_journal_full
_citation_year
_citation_journal_volume
_citation_page_first
_citation_page_last
_citation_journal_id_ASTM
primary 'Journal of Materials Chemistry' 1994 4 1463 1467 JMACEP
loop_
_publ_author_name
'Slater, P.R.'
'Greaves, C.'
_cell_length_a 8.1467(2)
_cell_length_b 8.1467(2)
_cell_length_c 21.9790(10)
_cell_angle_alpha 90.
_cell_angle_beta 90.
_cell_angle_gamma 120.
_cell_volume 1263.29
_cell_formula_units_Z 6
_symmetry_space_group_name_H-M 'R -3 H'
_symmetry_Int_Tables_number 148
_refine_ls_R_factor_all 0.0177
loop_
_symmetry_equiv_pos_site_id
_symmetry_equiv_pos_as_xyz
1 'x-y, x, -z'
2 'y, -x+y, -z'
3 '-x, -y, -z'
4 '-x+y, -x, z'
5 '-y, x-y, z'
6 'x, y, z'
7 'x-y+2/3, x+1/3, -z+1/3'
8 'y+2/3, -x+y+1/3, -z+1/3'
9 '-x+2/3, -y+1/3, -z+1/3'
10 '-x+y+2/3, -x+1/3, z+1/3'
11 '-y+2/3, x-y+1/3, z+1/3'
12 'x+2/3, y+1/3, z+1/3'
13 'x-y+1/3, x+2/3, -z+2/3'
14 'y+1/3, -x+y+2/3, -z+2/3'
15 '-x+1/3, -y+2/3, -z+2/3'
16 '-x+y+1/3, -x+2/3, z+2/3'
17 '-y+1/3, x-y+2/3, z+2/3'
18 'x+1/3, y+2/3, z+2/3'
loop_
_atom_type_symbol
_atom_type_oxidation_number
Li1+ 1
Mg2+ 2
Cr3+ 3
Mg2+ 2
Cr3+ 3
S6+ 6
O2- -2
loop_
_atom_site_label
_atom_site_type_symbol
_atom_site_symmetry_multiplicity
_atom_site_Wyckoff_symbol
_atom_site_fract_x
_atom_site_fract_y
_atom_site_fract_z
_atom_site_B_iso_or_equiv
_atom_site_occupancy
_atom_site_attached_hydrogens
Li1 Li1+ 18 f 0.652(7) 0.013(6) 0.203(2) 1.6(6) 0.0833 0
Mg1 Mg2+ 6 c 0 0 0.1479(4) 0.69(6) 0.0333 0
Cr1 Cr3+ 6 c 0 0 0.1479(4) 0.69(6) 0.9667 0
Mg2 Mg2+ 6 c 0 0 0.3550(4) 0.69(6) 0.2167 0
Cr2 Cr3+ 6 c 0 0 0.3550(4) 0.69(6) 0.7833 0
S1 S6+ 18 f 0.2884(8) 0.2849(8) 0.7511(3) 0.83(8) 1. 0
O1 O2- 18 f 0.2509(4) 0.4382(5) 0.7655(1) 0.97(5) 1. 0
O2 O2- 18 f 0.2250(5) 0.1445(5) 0.7994(1) 1.29(5) 1. 0
O3 O2- 18 f 0.1970(5) 0.2035(5) 0.6927(1) 1.27(5) 1. 0
O4 O2- 18 f 0.4959(5) 0.3678(5) 0.7452(1) 1.14(5) 1. 0
#End of TTdata_78499-ICSD