
#(C) 2017 by FIZ Karlsruhe - Leibniz Institute for Information Infrastructure.  All rights reserved.
data_80398-ICSD
_database_code_ICSD 80398
_audit_creation_date 1997-05-13
_chemical_name_systematic 'Tetralithium zirconium octafluoride'
_chemical_formula_structural 'Li4 Zr F8'
_chemical_formula_sum 'F8 Li4 Zr1'
_chemical_name_structure_type Li4UF8
_exptl_crystal_density_diffrn 3.45
_cell_measurement_temperature 298.
_publ_section_title

;
Crystal structures of Li4 Zr F8 and Li3 Zr4 F19 and reinvestigation of the Li
F - Zr F4 phase diagram
;
loop_
_citation_id
_citation_journal_full
_citation_year
_citation_journal_volume
_citation_page_first
_citation_page_last
_citation_journal_id_ASTM
primary 'Journal of Solid State Chemistry' 1995 120 187 196 JSSCBI
loop_
_publ_author_name
'Dugat, P.'
'El Ghozzi, M.'
'Metin, J.'
'Avignant, D.'
_cell_length_a 9.581(1)
_cell_length_b 9.611(1)
_cell_length_c 5.663(1)
_cell_angle_alpha 90.
_cell_angle_beta 90.
_cell_angle_gamma 90.
_cell_volume 521.47
_cell_formula_units_Z 4
_symmetry_space_group_name_H-M 'P n m a'
_symmetry_Int_Tables_number 62
_refine_ls_R_factor_all 0.033
loop_
_symmetry_equiv_pos_site_id
_symmetry_equiv_pos_as_xyz
1 'x+1/2, y, -z+1/2'
2 'x, -y+1/2, z'
3 '-x+1/2, y+1/2, z+1/2'
4 '-x, -y, -z'
5 '-x+1/2, -y, z+1/2'
6 '-x, y+1/2, -z'
7 'x+1/2, -y+1/2, -z+1/2'
8 'x, y, z'
loop_
_atom_type_symbol
_atom_type_oxidation_number
Li1+ 1
Zr4+ 4
F1- -1
loop_
_atom_site_label
_atom_site_type_symbol
_atom_site_symmetry_multiplicity
_atom_site_Wyckoff_symbol
_atom_site_fract_x
_atom_site_fract_y
_atom_site_fract_z
_atom_site_B_iso_or_equiv
_atom_site_occupancy
_atom_site_attached_hydrogens
Li1 Li1+ 8 d 0.370(2) 0.063(1) 0.088(3) 0.3 1. 0
Li2 Li1+ 8 d 0.390(1) 0.071(1) 0.597(3) 0.3 1. 0
Zr1 Zr4+ 4 c 0.1348(2) 0.25 0.3718(4) 2.07(3) 1. 0
F1 F1- 8 d 0.021(1) 0.118(1) 0.158(3) 1.8(2) 1. 0
F2 F1- 8 d 0.030(1) 0.121(1) 0.603(3) 2.6(2) 1. 0
F3 F1- 8 d 0.237(1) 0.463(1) 0.378(2) 2.4(1) 1. 0
F4 F1- 4 c 0.287(1) 0.25 0.114(5) 2.5(2) 1. 0
F5 F1- 4 c 0.295(1) 0.25 0.615(4) 2.3(2) 1. 0
#End of TTdata_80398-ICSD