
#(C) 2018 by FIZ Karlsruhe - Leibniz Institute for Information Infrastructure.  All rights reserved.
data_80826-ICSD
_database_code_ICSD 80826
_audit_creation_date 1997-05-13
_chemical_name_systematic 'Cesium lithium decaoxohexaborate'
_chemical_formula_structural 'Cs Li (B6 O10)'
_chemical_formula_sum 'B6 Cs1 Li1 O10'
_exptl_crystal_density_diffrn 2.46
_cell_measurement_temperature 298.
_publ_section_title 'Cesium lithium borate : a new nonlinear optical crystal'
loop_
_citation_id
_citation_journal_full
_citation_year
_citation_journal_volume
_citation_page_first
_citation_page_last
_citation_journal_id_ASTM
primary 'Acta Crystallographica, Section C: Crystal Structure Communications'
1995 51 2222 2224 ACSCEE
loop_
_publ_author_name
'Sasaki, T.'
'Mori, Y.'
'Kuroda, I.'
'Nakajima, S.'
'Yamaguchi, K.'
'Watanabe, S.'
'Nakai, S.'
_cell_length_a 10.494(1)
_cell_length_b 10.494(1)
_cell_length_c 8.939(2)
_cell_angle_alpha 90.
_cell_angle_beta 90.
_cell_angle_gamma 90.
_cell_volume 984.4
_cell_formula_units_Z 4
_symmetry_space_group_name_H-M 'I -4 2 d'
_symmetry_Int_Tables_number 122
_refine_ls_R_factor_all 0.023
loop_
_symmetry_equiv_pos_site_id
_symmetry_equiv_pos_as_xyz
1 '-y, -x+1/2, z+1/4'
2 'y, -x, -z'
3 'y, x+1/2, z+1/4'
4 '-y, x, -z'
5 'x, -y+1/2, -z+1/4'
6 '-x, -y, z'
7 '-x, y+1/2, -z+1/4'
8 'x, y, z'
9 '-y+1/2, -x, z+3/4'
10 'y+1/2, -x+1/2, -z+1/2'
11 'y+1/2, x, z+3/4'
12 '-y+1/2, x+1/2, -z+1/2'
13 'x+1/2, -y, -z+3/4'
14 '-x+1/2, -y+1/2, z+1/2'
15 '-x+1/2, y, -z+3/4'
16 'x+1/2, y+1/2, z+1/2'
loop_
_atom_type_symbol
_atom_type_oxidation_number
Cs1+ 1
O2- -2
B3+ 3
Li1+ 1
loop_
_atom_site_label
_atom_site_type_symbol
_atom_site_symmetry_multiplicity
_atom_site_Wyckoff_symbol
_atom_site_fract_x
_atom_site_fract_y
_atom_site_fract_z
_atom_site_B_iso_or_equiv
_atom_site_occupancy
_atom_site_attached_hydrogens
Cs1 Cs1+ 4 a 0 0 0 . 1. 0
O1 O2- 8 d 0.7982(3) 0.25 0.125 . 1. 0
O2 O2- 16 e 0.8022(1) 0.4434(1) -.0059(2) . 1. 0
O3 O2- 16 e 0.6029(1) 0.3557(2) 0.0698(2) . 1. 0
B1 B3+ 8 d 0.5242(3) 0.25 0.125 . 1. 0
B2 B3+ 16 e 0.7325(2) 0.3508(2) 0.0602(3) . 1. 0
Li1 Li1+ 4 b 0 0 0.5 . 1. 0
loop_
_atom_site_aniso_label
_atom_site_aniso_type_symbol
_atom_site_aniso_U_11
_atom_site_aniso_U_22
_atom_site_aniso_U_33
_atom_site_aniso_U_12
_atom_site_aniso_U_13
_atom_site_aniso_U_23
Cs1 Cs1+ 0.0308(1) 0.0308(1) 0.0295(2) 0 0 0
O1 O2- 0.0104(8) 0.024(1) 0.039(2) 0 0 0.023(1)
O2 O2- 0.0097(5) 0.0149(6) 0.0179(6) -.0024(4) 0.0013(5) 0.0066(5)
O3 O2- 0.0080(5) 0.0119(6) 0.0214(7) -.0007(4) 0.0022(5) 0.0079(5)
B1 B3+ 0.009(1) 0.0084(9) 0.0132(10) 0 0 0.0043(8)
B2 B3+ 0.0089(7) 0.0144(8) 0.0145(8) -.0020(6) 0.0000(6) 0.0057(7)
Li1 Li1+ 0.011(1) 0.0105 0.029(3) 0 0 0
#End of TTdata_80826-ICSD