
#(C) 2018 by FIZ Karlsruhe - Leibniz Institute for Information Infrastructure.  All rights reserved.
data_81350-ICSD
_database_code_ICSD 81350
_audit_creation_date 1997-11-05
_chemical_name_systematic 'Lithium gallium oxide (0.97/5.02/8)'
_chemical_formula_structural 'Li0.51 (Li0.462 Ga0.54) (Ga4.484 O8)'
_chemical_formula_sum 'Ga5.024 Li0.972 O8'
_chemical_name_structure_type Spinel-LiFe5O8
_exptl_crystal_density_diffrn 5.84
_publ_section_title 'Structure of Li Ga5 O8'
loop_
_citation_id
_citation_journal_full
_citation_year
_citation_journal_volume
_citation_page_first
_citation_page_last
_citation_journal_id_ASTM
primary 'Acta Chemica Scandinavica' 1996 50 391 394 ACHSE7
loop_
_publ_author_name
'Ahman, J.'
'Svensson, G.'
'Albertsson, J.'
_cell_length_a 8.2023(6)
_cell_length_b 8.2023(6)
_cell_length_c 8.2023(6)
_cell_angle_alpha 90.
_cell_angle_beta 90.
_cell_angle_gamma 90.
_cell_volume 551.83
_cell_formula_units_Z 4
_symmetry_space_group_name_H-M 'P 43 3 2'
_symmetry_Int_Tables_number 212
_refine_ls_R_factor_all 0.036
loop_
_symmetry_equiv_pos_site_id
_symmetry_equiv_pos_as_xyz
1 'z+1/4, y+3/4, -x+3/4'
2 '-z+3/4, y+1/4, x+3/4'
3 'y+1/4, x+3/4, -z+3/4'
4 '-y+3/4, x+1/4, z+3/4'
5 'x+1/4, z+3/4, -y+3/4'
6 '-x+3/4, z+1/4, y+3/4'
7 'z+3/4, -y+3/4, x+1/4'
8 '-z+1/4, -y+1/4, -x+1/4'
9 'y+3/4, -x+3/4, z+1/4'
10 '-y+1/4, -x+1/4, -z+1/4'
11 'x+3/4, -z+3/4, y+1/4'
12 '-x+1/4, -z+1/4, -y+1/4'
13 '-y+1/2, -z, x+1/2'
14 '-y, z+1/2, -x+1/2'
15 'y+1/2, -z+1/2, -x'
16 'y, z, x'
17 'z+1/2, -x+1/2, -y'
18 '-z+1/2, -x, y+1/2'
19 '-z, x+1/2, -y+1/2'
20 'z, x, y'
21 '-x+1/2, -y, z+1/2'
22 '-x, y+1/2, -z+1/2'
23 'x+1/2, -y+1/2, -z'
24 'x, y, z'
loop_
_atom_type_symbol
_atom_type_oxidation_number
Ga3+ 3
Li1+ 1
O2- -2.005
O2- -2.006
loop_
_atom_site_label
_atom_site_type_symbol
_atom_site_symmetry_multiplicity
_atom_site_Wyckoff_symbol
_atom_site_fract_x
_atom_site_fract_y
_atom_site_fract_z
_atom_site_B_iso_or_equiv
_atom_site_occupancy
_atom_site_attached_hydrogens
Ga1 Ga3+ 12 d 0.375 0.63018(4) 0.38018(4) 0.0034(1) 0.828(4) 0
Ga2 Ga3+ 8 c 0.25173(4) 0.25173(4) 0.25173(4) 0.0034(1) 1. 0
Ga3 Ga3+ 4 b 0.125 0.875 0.375 0.0149(4) 0.54(1) 0
Li1 Li1+ 4 b 0.125 0.875 0.375 0.0241(4) 0.46(1) 0
Li2 Li1+ 12 d 0.375 0.63018(4) 0.38018(4) 0.0123(1) 0.170(4) 0
O1 O2- 8 c 0.3844(3) 0.3844(3) 0.3844(3) 0.0048(3) 1. 0
O2 O2- 24 e 0.1339(3) 0.6283(3) 0.3679(2) 0.0050(4) 1. 0
#End of TTdata_81350-ICSD