
#(C) 2018 by FIZ Karlsruhe - Leibniz Institute for Information Infrastructure.  All rights reserved.
data_81858-ICSD
_database_code_ICSD 81858
_audit_creation_date 1999-11-30
_chemical_name_systematic 'Lithium europium titanate'
_chemical_formula_structural 'Li Eu (Ti O4)'
_chemical_formula_sum 'Eu1 Li1 O4 Ti1'
_exptl_crystal_density_diffrn 5.5
_publ_section_title
'New layered perovskite compounds, Li La Ti O4 and Li Eu Ti O4'
loop_
_citation_id
_citation_journal_full
_citation_year
_citation_journal_volume
_citation_page_first
_citation_page_last
_citation_journal_id_ASTM
primary 'Journal of the Ceramic Society of Japan' 1996 104 140 142 JCSJEW
loop_
_publ_author_name
'Toda, K.'
'Kurita, S.'
'Sato, M.'
_cell_length_a 11.4155(7)
_cell_length_b 5.355(1)
_cell_length_c 5.353(1)
_cell_angle_alpha 90.
_cell_angle_beta 90.
_cell_angle_gamma 90.
_cell_volume 327.23
_cell_formula_units_Z 4
_symmetry_space_group_name_H-M 'P b c m'
_symmetry_Int_Tables_number 57
_refine_ls_R_factor_all 0.044
loop_
_symmetry_equiv_pos_site_id
_symmetry_equiv_pos_as_xyz
1 'x, -y+1/2, z+1/2'
2 '-x, y+1/2, z'
3 'x, y, -z+1/2'
4 '-x, -y, -z'
5 '-x, y+1/2, -z+1/2'
6 'x, -y+1/2, -z'
7 '-x, -y, z+1/2'
8 'x, y, z'
loop_
_atom_type_symbol
_atom_type_oxidation_number
Li1+ 1
Eu3+ 3
Ti4+ 4
O2- -2
loop_
_atom_site_label
_atom_site_type_symbol
_atom_site_symmetry_multiplicity
_atom_site_Wyckoff_symbol
_atom_site_fract_x
_atom_site_fract_y
_atom_site_fract_z
_atom_site_B_iso_or_equiv
_atom_site_occupancy
_atom_site_attached_hydrogens
Li1 Li1+ 4 c 0.49(2) 0.25 0 40. 1. 0
Eu1 Eu3+ 4 d 0.8810(4) 0.020(1) 0.25 40. 1. 0
Ti1 Ti4+ 4 d 0.290(1) 0.006(4) 0.25 40. 1. 0
O1 O2- 4 c 0.240(4) 0.25 0 40. 1. 0
O2 O2- 4 c 0.745(4) 0.25 0 40. 1. 0
O3 O2- 4 d 0.088(4) -.066(8) 0.25 40. 1. 0
O4 O2- 4 d 0.438(3) 0.03(1) 0.25 40. 1. 0
#End of TTdata_81858-ICSD