
#(C) 2018 by FIZ Karlsruhe - Leibniz Institute for Information Infrastructure.  All rights reserved.
data_82024-ICSD
_database_code_ICSD 82024
_audit_creation_date 1999-11-30
_chemical_name_systematic 'Lithium molybdenum oxide phosphate (0.21/2/3/2)'
_chemical_formula_structural 'Li0.21 Mo2 O3 (P O4)2'
_chemical_formula_sum 'Li0.21 Mo2 O11 P2'
_exptl_crystal_density_diffrn 3.56
_cell_measurement_temperature 294.
_publ_section_title

;
A new mixed valent molybdenum monophosphate with a tunnel structure: Lix Mo2
O3 (P O4)2
;
loop_
_citation_id
_citation_journal_full
_citation_year
_citation_journal_volume
_citation_page_first
_citation_page_last
_citation_journal_id_ASTM
primary 'Journal of Solid State Chemistry' 1996 122 107 110 JSSCBI
loop_
_publ_author_name
'Ledain, S.'
'Leclaire, A.'
'Borel, M.M.'
'Raveau, B.'
_cell_length_a 7.355(2)
_cell_length_b 6.361(2)
_cell_length_c 8.979(1)
_cell_angle_alpha 90.17(2)
_cell_angle_beta 106.47(2)
_cell_angle_gamma 90.26(2)
_cell_volume 402.84
_cell_formula_units_Z 2
_symmetry_space_group_name_H-M 'P -1'
_symmetry_Int_Tables_number 2
_refine_ls_R_factor_all 0.037
loop_
_symmetry_equiv_pos_site_id
_symmetry_equiv_pos_as_xyz
1 '-x, -y, -z'
2 'x, y, z'
loop_
_atom_type_symbol
_atom_type_oxidation_number
Mo5+ 5.895
P5+ 5
Li1+ 1
O2- -2
loop_
_atom_site_label
_atom_site_type_symbol
_atom_site_symmetry_multiplicity
_atom_site_Wyckoff_symbol
_atom_site_fract_x
_atom_site_fract_y
_atom_site_fract_z
_atom_site_B_iso_or_equiv
_atom_site_occupancy
_atom_site_attached_hydrogens
Mo1 Mo5+ 2 i 0.39393(8) 0.24913(9) 0.29487(6) 0.624(2) 1. 0
Mo2 Mo5+ 2 i 0.16752(8) 0.25015(9) 0.84807(7) 0.656(2) 1. 0
P1 P5+ 2 i 0.5117(2) 0.2481(3) 0.6751(2) 0.59(4) 1. 0
P2 P5+ 2 i 0.9191(2) 0.2503(3) 0.1124(2) 0.61(4) 1. 0
Li1 Li1+ 1 d 0.5 0 0 1.0(8) 0.42(6) 0
O1 O2- 2 i 0.3672(6) 0.2464(7) 0.0959(5) 1.00(8) 1. 0
O2 O2- 2 i 0.6312(7) 0.2371(9) 0.3676(6) 1.8(2) 1. 0
O3 O2- 2 i 0.3540(6) -.0610(7) 0.3082(5) 0.96(8) 1. 0
O4 O2- 2 i 0.3616(6) 0.5550(7) 0.3090(5) 0.96(8) 1. 0
O5 O2- 2 i 0.0914(6) 0.2414(8) 0.2528(5) 1.04(8) 1. 0
O6 O2- 2 i 0.3580(6) 0.2457(7) 0.5225(5) 0.88(8) 1. 0
O7 O2- 2 i 0.0340(7) 0.232(1) 0.6665(6) 2.24(2) 1. 0
O8 O2- 2 i 0.2102(6) -.0573(7) 0.8922(6) 1.04(8) 1. 0
O9 O2- 2 i 0.2046(7) 0.5554(7) 0.8804(6) 1.12(2) 1. 0
O10 O2- 2 i 0.9750(6) 0.2578(7) 0.9593(5) 1.04(8) 1. 0
O11 O2- 2 i 0.4226(6) 0.2426(8) 0.8107(5) 1.04(8) 1. 0
#End of TTdata_82024-ICSD