
#(C) 2017 by FIZ Karlsruhe - Leibniz Institute for Information Infrastructure.  All rights reserved.
data_82199-ICSD
_database_code_ICSD 82199
_audit_creation_date 1999-11-30
_audit_update_record 2005-10-01
_chemical_name_systematic 'Dilithium iron tetrabromide'
_chemical_formula_structural 'Li2 Fe Br4'
_chemical_formula_sum 'Br4 Fe1 Li2'
_chemical_name_structure_type Mn2SnS4
_exptl_crystal_density_diffrn 4.
_publ_section_title
'Structural phase transitions and pseudomerohedrally twinning of Li2 Fe Br4'
loop_
_citation_id
_citation_journal_full
_citation_year
_citation_journal_volume
_citation_page_first
_citation_page_last
_citation_journal_id_ASTM
primary 'Journal of Solid State Chemistry' 1996 124 292 299 JSSCBI
loop_
_publ_author_name
'Partik, M.'
'Wickel, C.'
'Lutz, H.D.'
'Roisnel, T.'
_cell_length_a 7.7331(5)
_cell_length_b 10.9343(7)
_cell_length_c 3.8239(3)
_cell_angle_alpha 90.
_cell_angle_beta 90.
_cell_angle_gamma 90.
_cell_volume 323.33
_cell_formula_units_Z 2
_symmetry_space_group_name_H-M 'C m m m'
_symmetry_Int_Tables_number 65
_refine_ls_R_factor_all 0.059
loop_
_symmetry_equiv_pos_site_id
_symmetry_equiv_pos_as_xyz
1 'x, -y, z'
2 '-x, y, z'
3 'x, y, -z'
4 '-x, -y, -z'
5 '-x, y, -z'
6 'x, -y, -z'
7 '-x, -y, z'
8 'x, y, z'
9 'x+1/2, -y+1/2, z'
10 '-x+1/2, y+1/2, z'
11 'x+1/2, y+1/2, -z'
12 '-x+1/2, -y+1/2, -z'
13 '-x+1/2, y+1/2, -z'
14 'x+1/2, -y+1/2, -z'
15 '-x+1/2, -y+1/2, z'
16 'x+1/2, y+1/2, z'
loop_
_atom_type_symbol
_atom_type_oxidation_number
Fe2+ 2
Li1+ 1
Br1- -1
loop_
_atom_site_label
_atom_site_type_symbol
_atom_site_symmetry_multiplicity
_atom_site_Wyckoff_symbol
_atom_site_fract_x
_atom_site_fract_y
_atom_site_fract_z
_atom_site_B_iso_or_equiv
_atom_site_occupancy
_atom_site_attached_hydrogens
Fe1 Fe2+ 2 a 0 0 0 0.039(1) 1. 0
Li1 Li1+ 4 f 0.25 0.25 0.5 0.041(1) 1. 0
Br1 Br1- 4 h 0.2373(5) 0 0.5 0.042(1) 1. 0
Br2 Br1- 4 i 0 0.2427(4) 0 0.044(1) 1. 0
#End of TTdata_82199-ICSD