
#(C) 2018 by FIZ Karlsruhe - Leibniz Institute for Information Infrastructure.  All rights reserved.
data_82373-ICSD
_database_code_ICSD 82373
_audit_creation_date 1997-11-10
_chemical_name_systematic 'Lithium hydrogensulfate'
_chemical_formula_structural 'Li (H S O4)'
_chemical_formula_sum 'H1 Li1 O4 S1'
_exptl_crystal_density_diffrn 2.16
_publ_section_title 'Synthese und Kristallstruktur von Li H S O4'
loop_
_citation_id
_citation_journal_full
_citation_year
_citation_journal_volume
_citation_page_first
_citation_page_last
_citation_journal_id_ASTM
primary 'Zeitschrift fuer Anorganische und Allgemeine Chemie (1950) (DE)' 1995
621 675 678 ZAACAB
loop_
_publ_author_name
'Kemnitz, E.'
'Werner, C.'
'Worzala, H.'
'Troyanov, S.I.'
'Struchkov, Yu.T.'
_cell_length_a 5.234(2)
_cell_length_b 7.322(1)
_cell_length_c 8.363(1)
_cell_angle_alpha 90.
_cell_angle_beta 90.02(2)
_cell_angle_gamma 90.
_cell_volume 320.5
_cell_formula_units_Z 4
_symmetry_space_group_name_H-M 'P 1 21/c 1'
_symmetry_Int_Tables_number 14
_refine_ls_R_factor_all 0.026
loop_
_symmetry_equiv_pos_site_id
_symmetry_equiv_pos_as_xyz
1 'x, -y+1/2, z+1/2'
2 '-x, -y, -z'
3 '-x, y+1/2, -z+1/2'
4 'x, y, z'
loop_
_atom_type_symbol
_atom_type_oxidation_number
Li1+ 1
S6+ 6
O2- -2
H1+ 1
loop_
_atom_site_label
_atom_site_type_symbol
_atom_site_symmetry_multiplicity
_atom_site_Wyckoff_symbol
_atom_site_fract_x
_atom_site_fract_y
_atom_site_fract_z
_atom_site_B_iso_or_equiv
_atom_site_occupancy
_atom_site_attached_hydrogens
Li1 Li1+ 4 e 0.4873(5) 0.1980(3) 0.5024(3) 0.026(1) 1. 0
S1 S6+ 4 e 0.77811(6) 0.01602(4) 0.21521(3) 0.017(1) 1. 0
O1 O2- 4 e 0.6671(3) 0.0053(1) 0.3743(1) 0.027(1) 1. 0
O2 O2- 4 e 0.7434(2) 0.1968(1) 0.1456(1) 0.023(1) 1. 0
O3 O2- 4 e 0.6944(2) 0.8711(2) 0.1141(1) 0.031(1) 1. 0
O4 O2- 4 e 0.0714(2) 0.0033(2) 0.2341(2) 0.032(1) 1. 0
H1 H1+ 4 e 0.124(5) -.094(4) 0.269(3) 0.06(1) 1. 0
#End of TTdata_82373-ICSD