
#(C) 2018 by FIZ Karlsruhe - Leibniz Institute for Information Infrastructure.  All rights reserved.
data_8255-ICSD
_database_code_ICSD 8255
_audit_creation_date 1980-01-01
_audit_update_record 2011-02-01
_chemical_name_systematic 'Lithium hydrogenselenate(IV)'
_chemical_formula_structural 'Li (H Se O3)'
_chemical_formula_sum 'H1 Li1 O3 Se1'
_chemical_name_structure_type LiHSeO3
_exptl_crystal_density_diffrn 3.03
_publ_section_title 'Lithium hydrogenselenite'
loop_
_citation_id
_citation_journal_full
_citation_year
_citation_journal_volume
_citation_page_first
_citation_page_last
_citation_journal_id_ASTM
primary

;
Acta Crystallographica, Section B: Structural Crystallography and Crystal
Chemistry
; 1979 35 3011 3013 ACBCAR
loop_
_publ_author_name
'Chomnilpan, S.'
'Liminga, R.'
_cell_length_a 5.0579(4)
_cell_length_b 11.1868(6)
_cell_length_c 5.2213(3)
_cell_angle_alpha 90.
_cell_angle_beta 90.
_cell_angle_gamma 90.
_cell_volume 295.43
_cell_formula_units_Z 4
_symmetry_space_group_name_H-M 'P 21 21 21'
_symmetry_Int_Tables_number 19
_refine_ls_R_factor_all 0.023
loop_
_symmetry_equiv_pos_site_id
_symmetry_equiv_pos_as_xyz
1 '-x, y+1/2, -z+1/2'
2 'x+1/2, -y+1/2, -z'
3 '-x+1/2, -y, z+1/2'
4 'x, y, z'
loop_
_atom_type_symbol
_atom_type_oxidation_number
Se4+ 4
O2- -2
Li1+ 1
H1+ 1
loop_
_atom_site_label
_atom_site_type_symbol
_atom_site_symmetry_multiplicity
_atom_site_Wyckoff_symbol
_atom_site_fract_x
_atom_site_fract_y
_atom_site_fract_z
_atom_site_B_iso_or_equiv
_atom_site_occupancy
_atom_site_attached_hydrogens
Se1 Se4+ 4 a 0.13182(4) 0.14709(2) 0.26684(4) . 1. 0
O1 O2- 4 a 0.01453(32) 0.28331(13) 0.20826(34) . 1. 0
O2 O2- 4 a -.10507(42) 0.05713(15) 0.16447(33) . 1. 0
O3 O2- 4 a 0.07139(37) 0.13403(18) 0.60376(32) . 1. 0
Li1 Li1+ 4 a 0.25770(96) 0.41678(39) 0.1830(9) . 1. 0
H1 H1+ 4 a 0.210(15) 0.152(4) 0.662(13) 2.8 1. 0
loop_
_atom_site_aniso_label
_atom_site_aniso_type_symbol
_atom_site_aniso_beta_11
_atom_site_aniso_beta_22
_atom_site_aniso_beta_33
_atom_site_aniso_beta_12
_atom_site_aniso_beta_13
_atom_site_aniso_beta_23
Se1 Se4+ 0.01246(6) 0.00229(1) 0.01245(5) -.00022(2) 0.00110(4) 0.00010(2)
O1 O2- 0.0158(4) 0.0023(1) 0.0206(5) -.0003(2) 0.0016(4) 0.0008(2)
O2 O2- 0.0264(6) 0.0028(1) 0.0155(4) -.0029(2) -.0060(4) 0.0007(2)
O3 O2- 0.0168(5) 0.0062(2) 0.0127(3) -.0032(2) -.0007(3) 0.0010(2)
Li1 Li1+ 0.0184(13) 0.0026(2) 0.0176(12) -.0003(5) 0.0032(11) -.0002(5)
#End of TTdata_8255-ICSD