
#(C) 2018 by FIZ Karlsruhe - Leibniz Institute for Information Infrastructure.  All rights reserved.
data_82619-ICSD
_database_code_ICSD 82619
_audit_creation_date 1997-11-10
_chemical_name_systematic 'Lithium lanthanum vanadate(V) (0.15/0.95/1)'
_chemical_formula_structural 'Li0.15 La0.95 (V O4)'
_chemical_formula_sum 'La0.95 Li0.15 O4 V1'
_exptl_crystal_density_diffrn 4.94
_cell_measurement_temperature 295.
_publ_section_title

;
Synthesis and structural characterization of solid solutions: Li3x La(1-x) V
O4 (0<x<0.3), monazite-type
;
loop_
_citation_id
_citation_journal_full
_citation_year
_citation_journal_volume
_citation_page_first
_citation_page_last
_citation_journal_id_ASTM
primary 'Journal of Materials Science' 1996 31 4689 4692 JMTSAS
loop_
_publ_author_name
'Isasi, M.J.'
'Veiga, M.L.'
'Fernandez, F.'
'Pico, C.'
_cell_length_a 7.047(1)
_cell_length_b 7.283(6)
_cell_length_c 6.726(8)
_cell_angle_alpha 90.
_cell_angle_beta 104.86(1)
_cell_angle_gamma 90.
_cell_volume 333.66
_cell_formula_units_Z 4
_symmetry_space_group_name_H-M 'P 1 21/n 1'
_symmetry_Int_Tables_number 14
_refine_ls_R_factor_all 0.029
loop_
_symmetry_equiv_pos_site_id
_symmetry_equiv_pos_as_xyz
1 '-x+1/2, y+1/2, -z+1/2'
2 '-x, -y, -z'
3 'x+1/2, -y+1/2, z+1/2'
4 'x, y, z'
loop_
_atom_type_symbol
_atom_type_oxidation_number
La3+ 3
Li1+ 1
V5+ 5
O2- -2
loop_
_atom_site_label
_atom_site_type_symbol
_atom_site_symmetry_multiplicity
_atom_site_Wyckoff_symbol
_atom_site_fract_x
_atom_site_fract_y
_atom_site_fract_z
_atom_site_B_iso_or_equiv
_atom_site_occupancy
_atom_site_attached_hydrogens
La1 La3+ 4 e 0.2764(1) 0.1575(3) 0.1044(13) 0.46 0.95 0
Li1 Li1+ 4 e 0.1939(1) 0.2467(1) 0.2139(1) 2.15 0.15 0
V1 V5+ 4 e 0.3006(1) 0.1649(2) 0.6169(1) 0.04 1. 0
O1 O2- 4 e 0.2450(2) -.0020(8) 0.4281(5) 0.83 1. 0
O2 O2- 4 e 0.3866(2) 0.3444(5) 0.4959(1) 1.07 1. 0
O3 O2- 4 e 0.4836(4) 0.1058(2) 0.8245(2) 1.15 1. 0
O4 O2- 4 e 0.1180(8) 0.2207(2) 0.7283(2) 1.01 1. 0
#End of TTdata_82619-ICSD