
#(C) 2018 by FIZ Karlsruhe - Leibniz Institute for Information Infrastructure.  All rights reserved.
data_82864-ICSD
_database_code_ICSD 82864
_audit_creation_date 1998-06-26
_chemical_name_systematic 'Trilithium antimonate(V)'
_chemical_formula_structural 'Li3 (Sb O4)'
_chemical_formula_sum 'Li3 O4 Sb1'
_chemical_name_structure_type Na3BiO4
_exptl_crystal_density_diffrn 4.49
_publ_section_title 'The crystal structure of Li3 Sb O4'
loop_
_citation_id
_citation_journal_full
_citation_year
_citation_journal_volume
_citation_page_first
_citation_page_last
_citation_journal_id_ASTM
primary 'Journal of Materials Chemistry' 1996 6 1939 1942 JMACEP
loop_
_publ_author_name
'Skakle, J.M.S.'
'Castellanos, M.A.R.'
'Trujillo Tovar, S.'
'Fray, S.M.'
'West, A.R.'
_cell_length_a 5.1578(2)
_cell_length_b 6.0923(3)
_cell_length_c 5.1397(2)
_cell_angle_alpha 90.
_cell_angle_beta 108.841(4)
_cell_angle_gamma 90.
_cell_volume 152.85
_cell_formula_units_Z 2
_symmetry_space_group_name_H-M 'P 1 2/c 1'
_symmetry_Int_Tables_number 13
_refine_ls_R_factor_all 0.035
loop_
_symmetry_equiv_pos_site_id
_symmetry_equiv_pos_as_xyz
1 'x, -y, z+1/2'
2 '-x, -y, -z'
3 '-x, y, -z+1/2'
4 'x, y, z'
loop_
_atom_type_symbol
_atom_type_oxidation_number
Sb5+ 5
Li1+ 1
O2- -2
loop_
_atom_site_label
_atom_site_type_symbol
_atom_site_symmetry_multiplicity
_atom_site_Wyckoff_symbol
_atom_site_fract_x
_atom_site_fract_y
_atom_site_fract_z
_atom_site_B_iso_or_equiv
_atom_site_occupancy
_atom_site_attached_hydrogens
Sb1 Sb5+ 2 e 0 0.1421(6) 0.25 0.0057(4) 1. 0
Li1 Li1+ 2 e 0 0.604(9) 0.25 0.027(7) 1. 0
Li2 Li1+ 2 f 0.5 0.87(2) 0.25 0.027(7) 1. 0
Li3 Li1+ 2 f 0.5 0.418(8) 0.25 0.027(7) 1. 0
O1 O2- 4 g 0.221(2) 0.091(2) 0.001(2) 0.010(3) 1. 0
O2 O2- 4 g 0.240(2) 0.367(2) 0.472(2) 0.014(3) 1. 0
#End of TTdata_82864-ICSD