
#(C) 2018 by FIZ Karlsruhe - Leibniz Institute for Information Infrastructure.  All rights reserved.
data_82907-ICSD
_database_code_ICSD 82907
_audit_creation_date 1998-06-26
_audit_update_record 2010-08-01
_chemical_name_systematic 'Dilithium dilanthanum trititanate'
_chemical_formula_structural 'Li2 La2 (Ti3 O10)'
_chemical_formula_sum 'La2 Li2 O10 Ti3'
_chemical_name_structure_type Li2La2Ti3O10
_exptl_crystal_density_diffrn 5.05
_publ_section_title

;
Crystal structure determination of ion-exchangeable layered perovskite
compounds, K2 La2 Ti3 O10 and Li2 La2 Ti3 O10
;
loop_
_citation_id
_citation_journal_full
_citation_year
_citation_journal_volume
_citation_page_first
_citation_page_last
_citation_journal_id_ASTM
primary 'Materials Research Bulletin' 1996 31 1427 1435 MRBUAC
loop_
_publ_author_name
'Toda, K.'
'Watanabe, J.'
'Sato, M.'
_cell_length_a 3.84116(1)
_cell_length_b 3.84116(1)
_cell_length_c 26.560(1)
_cell_angle_alpha 90.
_cell_angle_beta 90.
_cell_angle_gamma 90.
_cell_volume 391.88
_cell_formula_units_Z 2
_symmetry_space_group_name_H-M 'I 4/m m m'
_symmetry_Int_Tables_number 139
_refine_ls_R_factor_all 0.023
loop_
_symmetry_equiv_pos_site_id
_symmetry_equiv_pos_as_xyz
1 'y, x, -z'
2 '-y, -x, -z'
3 '-y, x, -z'
4 'y, -x, -z'
5 '-x, y, -z'
6 'x, -y, -z'
7 'x, y, -z'
8 '-x, -y, -z'
9 '-y, -x, z'
10 'y, x, z'
11 'y, -x, z'
12 '-y, x, z'
13 'x, -y, z'
14 '-x, y, z'
15 '-x, -y, z'
16 'x, y, z'
17 'y+1/2, x+1/2, -z+1/2'
18 '-y+1/2, -x+1/2, -z+1/2'
19 '-y+1/2, x+1/2, -z+1/2'
20 'y+1/2, -x+1/2, -z+1/2'
21 '-x+1/2, y+1/2, -z+1/2'
22 'x+1/2, -y+1/2, -z+1/2'
23 'x+1/2, y+1/2, -z+1/2'
24 '-x+1/2, -y+1/2, -z+1/2'
25 '-y+1/2, -x+1/2, z+1/2'
26 'y+1/2, x+1/2, z+1/2'
27 'y+1/2, -x+1/2, z+1/2'
28 '-y+1/2, x+1/2, z+1/2'
29 'x+1/2, -y+1/2, z+1/2'
30 '-x+1/2, y+1/2, z+1/2'
31 '-x+1/2, -y+1/2, z+1/2'
32 'x+1/2, y+1/2, z+1/2'
loop_
_atom_type_symbol
_atom_type_oxidation_number
Li1+ 1
La3+ 3
Ti4+ 4
O2- -2
loop_
_atom_site_label
_atom_site_type_symbol
_atom_site_symmetry_multiplicity
_atom_site_Wyckoff_symbol
_atom_site_fract_x
_atom_site_fract_y
_atom_site_fract_z
_atom_site_B_iso_or_equiv
_atom_site_occupancy
_atom_site_attached_hydrogens
Li1 Li1+ 4 d 0 0.5 0.25 0.1(1) 1. 0
La1 La3+ 4 e 0 0 0.4187(2) 0.1(1) 1. 0
Ti1 Ti4+ 2 a 0 0 0 0.1(1) 1. 0
Ti2 Ti4+ 4 e 0 0 0.1591(4) 0.1(1) 1. 0
O1 O2- 4 c 0 0.5 0 0.1(1) 1. 0
O2 O2- 4 e 0 0 0.068(1) 0.1(1) 1. 0
O3 O2- 8 g 0 0.5 0.1437(9) 0.1(1) 1. 0
O4 O2- 4 e 0 0 0.228(1) 0.1(1) 1. 0
#End of TTdata_82907-ICSD