
#(C) 2018 by FIZ Karlsruhe - Leibniz Institute for Information Infrastructure.  All rights reserved.
data_82944-ICSD
_database_code_ICSD 82944
_audit_creation_date 1998-06-26
_chemical_name_systematic 'Lithium praseodymium titanate(IV) (0.38/0.54/1) - C'
_chemical_formula_structural 'Li0.38 Pr0.54 Ti O3'
_chemical_formula_sum 'Li0.38 O3 Pr0.54 Ti1'
_chemical_name_structure_type (Ca,Li)(Ta,Zr)O3
_exptl_crystal_density_diffrn 5.14
_publ_section_title

;
The crystal structures of Li(+) conducting phases Li0.5-3x RE0.5+x Ti O3 : RE
= Pr, Nd, x=0.05, from powder neutron diffraction data
;
loop_
_citation_id
_citation_journal_full
_citation_year
_citation_journal_volume
_citation_page_first
_citation_page_last
_citation_journal_id_ASTM
primary 'Materials Science Forum' 1996 228 701 704 MSFOEP
loop_
_publ_author_name
'Smith, R.I.'
'Skakle, J.M.S.'
'Mather, G.C.'
'Morales, M.'
'West, A.R.'
_cell_length_a 5.43793(5)
_cell_length_b 7.66828(8)
_cell_length_c 5.40769
_cell_angle_alpha 90.
_cell_angle_beta 90.
_cell_angle_gamma 90.
_cell_volume 225.5
_cell_formula_units_Z 4
_symmetry_space_group_name_H-M 'P n m a'
_symmetry_Int_Tables_number 62
_refine_ls_R_factor_all 0.03
loop_
_symmetry_equiv_pos_site_id
_symmetry_equiv_pos_as_xyz
1 'x+1/2, y, -z+1/2'
2 'x, -y+1/2, z'
3 '-x+1/2, y+1/2, z+1/2'
4 '-x, -y, -z'
5 '-x+1/2, -y, z+1/2'
6 '-x, y+1/2, -z'
7 'x+1/2, -y+1/2, -z+1/2'
8 'x, y, z'
loop_
_atom_type_symbol
_atom_type_oxidation_number
Pr3+ 3
Ti4+ 4
O2- -2
Li1+ 1
loop_
_atom_site_label
_atom_site_type_symbol
_atom_site_symmetry_multiplicity
_atom_site_Wyckoff_symbol
_atom_site_fract_x
_atom_site_fract_y
_atom_site_fract_z
_atom_site_B_iso_or_equiv
_atom_site_occupancy
_atom_site_attached_hydrogens
Pr1 Pr3+ 4 c 0.0175(7) 0.25 0.996(1) 0.45(3) 0.54 0
Ti1 Ti4+ 4 b 0 0 0.5 . 1. 0
O1 O2- 4 c 0.4939(5) 0.25 0.0664(5) . 1. 0
O2 O2- 8 d 0.2808(2) 0.0336(2) 0.7198(2) . 1. 0
Li1 Li1+ 4 c 0.404(4) 0.25 0.488(5) 3.9(5) 0.38 0
loop_
_atom_site_aniso_label
_atom_site_aniso_type_symbol
_atom_site_aniso_U_11
_atom_site_aniso_U_22
_atom_site_aniso_U_33
_atom_site_aniso_U_12
_atom_site_aniso_U_13
_atom_site_aniso_U_23
Ti1 Ti4+ 0.3(1) 0.6(2) 0.5(1) -.48(8) 0.0(1) -.2(2)
O1 O2- 1.2(1) 0.43(7) 1.15(9) 0 -.20(6) 0
O2 O2- 0.58(3) 1.58(6) 0.50(3) -.33(4) -.86(4) 0.36(5)
#End of TTdata_82944-ICSD