
#(C) 2017 by FIZ Karlsruhe - Leibniz Institute for Information Infrastructure.  All rights reserved.
data_83510-ICSD
_database_code_ICSD 83510
_audit_creation_date 1998-06-26
_chemical_name_systematic 'Lithium dialuminium hexahydroxide bromide'
_chemical_formula_structural 'Li Al2 (O H)6 Br'
_chemical_formula_sum 'H6 Al2 Br1 Li1 O6'
_chemical_name_structure_type LiAl2Cl(OH)6
_exptl_crystal_density_diffrn 2.4
_publ_section_title

;
Synthesis and structure of the gibbsite intercalation compounds (LiAl2 (O H)6)
X (X = Cl, Br, N O3) and (Li Al2 (O H)6) Cl (H2 O) using synchrotron X-ray and
neutron powder diffraction
;
loop_
_citation_id
_citation_journal_full
_citation_year
_citation_journal_volume
_citation_page_first
_citation_page_last
_citation_journal_id_ASTM
primary 'Chemistry of Materials' 1997 9 241 247 CMATEX
loop_
_publ_author_name
'Besserguenev, A.V.'
'Fogg, A.M.'
'Francis, R.J.'
'Price, S.J.'
'O'Hare, D.'
'Isupov, V.P.'
'Tolochko, B.P.'
_cell_length_a 5.0996(1)
_cell_length_b 5.0996(1)
_cell_length_c 14.9461(6)
_cell_angle_alpha 90.
_cell_angle_beta 90.
_cell_angle_gamma 120.
_cell_volume 336.61
_cell_formula_units_Z 2
_symmetry_space_group_name_H-M 'P 63/m c m'
_symmetry_Int_Tables_number 193
_refine_ls_R_factor_all 0.047
loop_
_symmetry_equiv_pos_site_id
_symmetry_equiv_pos_as_xyz
1 '-x, -x+y, -z+1/2'
2 'x-y, -y, -z+1/2'
3 'y, x, -z+1/2'
4 '-x+y, -x, -z+1/2'
5 '-y, x-y, -z+1/2'
6 'x, y, -z+1/2'
7 'x, x-y, z+1/2'
8 '-x+y, y, z+1/2'
9 '-y, -x, z+1/2'
10 'x-y, x, z+1/2'
11 'y, -x+y, z+1/2'
12 '-x, -y, z+1/2'
13 'x, x-y, -z'
14 '-x+y, y, -z'
15 '-y, -x, -z'
16 'x-y, x, -z'
17 'y, -x+y, -z'
18 '-x, -y, -z'
19 '-x, -x+y, z'
20 'x-y, -y, z'
21 'y, x, z'
22 '-x+y, -x, z'
23 '-y, x-y, z'
24 'x, y, z'
loop_
_atom_type_symbol
_atom_type_oxidation_number
Al3+ 3
O2- -2
Br1- -1
Li1+ 1
H1+ 1
loop_
_atom_site_label
_atom_site_type_symbol
_atom_site_symmetry_multiplicity
_atom_site_Wyckoff_symbol
_atom_site_fract_x
_atom_site_fract_y
_atom_site_fract_z
_atom_site_B_iso_or_equiv
_atom_site_occupancy
_atom_site_attached_hydrogens
Al1 Al3+ 4 d 0.3333 0.6667 0 0.66(3) 1. 0
O1 O2- 12 k 0.6355(6) 0.6355(6) 0.5636(2) 0.66(3) 1. 0
Br1 Br1- 2 a 0 0 0.25 0.66(3) 1. 0
Li1 Li1+ 2 b 0 0 0 0.66(3) 1. 0
#End of TTdata_83510-ICSD