
#(C) 2018 by FIZ Karlsruhe - Leibniz Institute for Information Infrastructure.  All rights reserved.
data_83662-ICSD
_database_code_ICSD 83662
_audit_creation_date 1998-06-26
_chemical_name_systematic 'Dilithium trinickel phosphate(V)'
_chemical_formula_structural 'Li2 Ni3 (P2 O7)2'
_chemical_formula_sum 'Li2 Ni3 O14 P4'
_exptl_crystal_density_diffrn 3.67
_cell_measurement_temperature 298.
_publ_section_title 'A mixed nickel-lithium pyrophosphate, Li Ni1.5 P2 O7'
loop_
_citation_id
_citation_journal_full
_citation_year
_citation_journal_volume
_citation_page_first
_citation_page_last
_citation_journal_id_ASTM
primary 'Acta Crystallographica, Section C: Crystal Structure Communications'
1996 52 2960 2963 ACSCEE
loop_
_publ_author_name
'Rissouli, K.'
'Benkhouja, K.'
'Sadel, A.'
'Bettach, M.'
'Zahir, M.'
'Giorgi, M.'
'Pierrot, M.'
_cell_length_a 7.189(1)
_cell_length_b 7.744(2)
_cell_length_c 9.331(2)
_cell_angle_alpha 90.
_cell_angle_beta 110.32(4)
_cell_angle_gamma 90.
_cell_volume 487.14
_cell_formula_units_Z 2
_symmetry_space_group_name_H-M 'P 1 21/c 1'
_symmetry_Int_Tables_number 14
_refine_ls_R_factor_all 0.028
loop_
_symmetry_equiv_pos_site_id
_symmetry_equiv_pos_as_xyz
1 'x, -y+1/2, z+1/2'
2 '-x, -y, -z'
3 '-x, y+1/2, -z+1/2'
4 'x, y, z'
loop_
_atom_type_symbol
_atom_type_oxidation_number
O2- -2
P5+ 5
O2- -2
Ni2+ 2
Li1+ 1
loop_
_atom_site_label
_atom_site_type_symbol
_atom_site_symmetry_multiplicity
_atom_site_Wyckoff_symbol
_atom_site_fract_x
_atom_site_fract_y
_atom_site_fract_z
_atom_site_B_iso_or_equiv
_atom_site_occupancy
_atom_site_attached_hydrogens
O1 O2- 4 e 0.3252(2) 0.1355(2) 0.8099(2) . 1. 0
P1 P5+ 4 e 0.11853(6) 0.20644(6) 0.80626(5) . 1. 0
P2 P5+ 4 e 0.40526(6) 0.94861(6) 0.78457(5) . 1. 0
O2 O2- 4 e 0.0336(2) 0.0788(2) 0.8916(2) . 1. 0
O3 O2- 4 e -.0088(2) 0.2069(2) 0.6364(2) . 1. 0
O4 O2- 4 e 0.6178(2) -.0098(2) 0.8016(2) . 1. 0
O5 O2- 4 e 0.3793(2) 0.8297(2) 0.9045(2) . 1. 0
O6 O2- 4 e 0.2778(2) 0.8871(2) 0.6238(2) . 1. 0
O7 O2- 4 e 0.1530(2) 0.3789(2) 0.8828(2) . 1. 0
Ni1 Ni2+ 4 e 0.81221(3) 0.12630(3) 0.98014(3) . 1. 0
Ni2 Ni2+ 2 c 0 0 0.5 . 1. 0
Li1 Li1+ 4 e 0.7058(7) 0.0810(6) 0.6371(5) . 1. 0
loop_
_atom_site_aniso_label
_atom_site_aniso_type_symbol
_atom_site_aniso_U_11
_atom_site_aniso_U_22
_atom_site_aniso_U_33
_atom_site_aniso_U_12
_atom_site_aniso_U_13
_atom_site_aniso_U_23
O1 O2- 0.0059(4) 0.0043(5) 0.0105(5) 0.0012(4) 0.0026(4) -.0026(4)
P1 P5+ 0.0049(1) 0.0024(1) 0.0035(1) 0.0002(1) 0.0010(1) -.0001(1)
P2 P5+ 0.0040(1) 0.0038(2) 0.0043(2) -.0002(1) 0.0008(1) -.0005(1)
O2 O2- 0.0087(4) 0.0056(5) 0.0076(5) -.0003(4) 0.0042(3) 0.0006(4)
O3 O2- 0.0091(5) 0.0046(5) 0.0047(5) 0.0017(4) 0.0004(4) -.0002(4)
O4 O2- 0.0049(4) 0.0070(5) 0.0096(5) -.0010(4) 0.0028(3) -.0016(4)
O5 O2- 0.0095(4) 0.0056(5) 0.0082(5) 0.0005(4) 0.0041(3) 0.0012(4)
O6 O2- 0.0092(5) 0.0065(5) 0.0059(5) 0.0013(4) -.0011(4) -.0021(4)
O7 O2- 0.0106(5) 0.0035(5) 0.0085(5) -.0008(4) 0.0048(4) -.0014(4)
Ni1 Ni2+ 0.00572(7) 0.00464(9) 0.00522(9) -.00049(6) 0.00161(6) -.00047(7)
Ni2 Ni2+ 0.0060(1) 0.0032(1) 0.0045(1) 0.00022(9) 0.00169(8) 0.00003(9)
Li1 Li1+ 0.029(2) 0.009(2) 0.031(2) 0.004(1) 0.021(1) 0.000(1)
#End of TTdata_83662-ICSD