
#(C) 2017 by FIZ Karlsruhe - Leibniz Institute for Information Infrastructure.  All rights reserved.
data_83872-ICSD
_database_code_ICSD 83872
_audit_creation_date 1999-01-19
_audit_update_record 2016-02-01
_chemical_name_systematic 'Dirubidium lithium phyllo-dodecafluorotrimanganate'
_chemical_formula_structural 'Rb2 Li (Mn3 F12)'
_chemical_formula_sum 'F12 Li1 Mn3 Rb2'
_chemical_name_structure_type Cs2NaMn3F12
_exptl_crystal_density_diffrn 3.62
_publ_section_title

;
Jahn-Teller ordering in Kagome-type layers of compounds A2 A' Mn(III)3 F12 (A
=Rb,Cs; A'=Li,Na,K)
;
loop_
_citation_id
_citation_journal_full
_citation_year
_citation_journal_volume
_citation_page_first
_citation_page_last
_citation_journal_id_ASTM
primary 'Journal of Alloys and Compounds' 1997 246 155 165 JALCEU
loop_
_publ_author_name
'Englich, U.'
'Frommen, C.'
'Massa, W.'
_cell_length_a 6.883(1)
_cell_length_b 7.481(1)
_cell_length_c 10.194(2)
_cell_angle_alpha 89.42(3)
_cell_angle_beta 87.16(3)
_cell_angle_gamma 90.25(3)
_cell_volume 524.23
_cell_formula_units_Z 2
_symmetry_space_group_name_H-M 'P -1'
_symmetry_Int_Tables_number 2
_refine_ls_R_factor_all 0.049
loop_
_symmetry_equiv_pos_site_id
_symmetry_equiv_pos_as_xyz
1 '-x, -y, -z'
2 'x, y, z'
loop_
_atom_type_symbol
_atom_type_oxidation_number
Rb1+ 1
Mn3+ 3
F1- -1
Li1+ 1
Mn3+ 3
Li1+ 1
loop_
_atom_site_label
_atom_site_type_symbol
_atom_site_symmetry_multiplicity
_atom_site_Wyckoff_symbol
_atom_site_fract_x
_atom_site_fract_y
_atom_site_fract_z
_atom_site_B_iso_or_equiv
_atom_site_occupancy
_atom_site_attached_hydrogens
Rb1 Rb1+ 2 i 0.9875(2) 0.7458(2) 0.86976(12) 0.0274(4) 1. 0
Rb2 Rb1+ 2 i 0.4976(2) 0.2521(2) 0.38745(13) 0.0351(4) 1. 0
Mn1 Mn3+ 1 e 0.5 0.5 0 0.0120(6) 0.9867 0
Mn2 Mn3+ 1 d 0.5 0 0 0.0130(6) 0.9867 0
Mn3 Mn3+ 1 b 0 0 0.5 0.0129(6) 0.9867 0
Mn4 Mn3+ 1 g 0 0.5 0.5 0.0129(6) 0.9867 0
Mn5 Mn3+ 2 i 0.1999(2) 0.2524(2) 0.7760(2) 0.0134(4) 0.9867 0
F1 F1- 2 i 0.5947(8) 0.2359(8) -.0070(6) 0.025(2) 1. 0
F2 F1- 2 i 0.2642(9) 0.4410(8) -.0779(6) 0.022(2) 1. 0
F3 F1- 2 i 0.2438(8) 0.0716(8) -.0985(6) 0.022(2) 1. 0
F4 F1- 2 i 0.1279(10) 0.0357(9) 0.6538(6) 0.032(2) 1. 0
F5 F1- 2 i -.0502(9) 0.7314(8) 0.5652(6) 0.0204(15) 1. 0
F6 F1- 2 i 0.1599(9) 0.4503(9) 0.6658(6) 0.027(2) 1. 0
F7 F1- 2 i 0.3817(9) 0.4640(9) 0.1606(6) 0.025(2) 1. 0
F8 F1- 2 i 0.3656(9) 0.0420(9) 0.1546(6) 0.028(2) 1. 0
F9 F1- 2 i -.2302(8) 0.0556(9) 0.5824(7) 0.029(2) 1. 0
F10 F1- 2 i 0.2266(8) 0.5760(8) 0.4174(6) 0.022(2) 1. 0
F11 F1- 2 i 0.4443(9) 0.237(1) 0.7030(6) 0.029(2) 1. 0
F12 F1- 2 i -.0519(8) 0.2600(9) 0.8344(6) 0.027(2) 1. 0
Li1 Li1+ 2 i 0.2901(19) 0.7594(24) 0.2572(14) 0.032(6) 0.96 0
Mn6 Mn3+ 2 i 0.2901(19) 0.7594(24) 0.2572(14) 0.032(6) 0.04 0
Li2 Li1+ 1 e 0.5 0.5 0 0.0120(6) 0.0133 0
Li3 Li1+ 1 d 0.5 0 0 0.0130(6) 0.0133 0
Li4 Li1+ 1 b 0 0 0.5 0.0129(6) 0.0133 0
Li5 Li1+ 1 g 0 0.5 0.5 0.0129(6) 0.0133 0
Li6 Li1+ 2 i 0.1999(2) 0.2524(2) 0.7760(2) 0.0134(4) 0.0133 0
#End of TTdata_83872-ICSD