
#(C) 2017 by FIZ Karlsruhe - Leibniz Institute for Information Infrastructure.  All rights reserved.
data_83985-ICSD
_database_code_ICSD 83985
_audit_creation_date 1999-01-19
_chemical_name_systematic 'Hexalithium nitride tribromide - II''
_chemical_formula_structural 'Li6 N Br3'
_chemical_formula_sum 'Br3 Li6 N1'
_exptl_crystal_density_diffrn 2.59
_cell_measurement_temperature 373.
_publ_section_title

;
Time-of-flight neutron diffraction study on the Li2 O type phases of Li6 N Br3
;
loop_
_citation_id
_citation_journal_full
_citation_year
_citation_journal_volume
_citation_page_first
_citation_page_last
_citation_journal_id_ASTM
primary 'Journal of Alloys and Compounds' 1997 256 196 206 JALCEU
loop_
_publ_author_name
'Marx, R.'
_cell_length_a 5.84414(2)
_cell_length_b 5.84414(2)
_cell_length_c 11.08937(7)
_cell_angle_alpha 90.
_cell_angle_beta 90.
_cell_angle_gamma 90.
_cell_volume 378.75
_cell_formula_units_Z 2
_symmetry_space_group_name_H-M 'I 4/m m m'
_symmetry_Int_Tables_number 139
_refine_ls_R_factor_all 0.039
loop_
_symmetry_equiv_pos_site_id
_symmetry_equiv_pos_as_xyz
1 'y, x, -z'
2 '-y, -x, -z'
3 '-y, x, -z'
4 'y, -x, -z'
5 '-x, y, -z'
6 'x, -y, -z'
7 'x, y, -z'
8 '-x, -y, -z'
9 '-y, -x, z'
10 'y, x, z'
11 'y, -x, z'
12 '-y, x, z'
13 'x, -y, z'
14 '-x, y, z'
15 '-x, -y, z'
16 'x, y, z'
17 'y+1/2, x+1/2, -z+1/2'
18 '-y+1/2, -x+1/2, -z+1/2'
19 '-y+1/2, x+1/2, -z+1/2'
20 'y+1/2, -x+1/2, -z+1/2'
21 '-x+1/2, y+1/2, -z+1/2'
22 'x+1/2, -y+1/2, -z+1/2'
23 'x+1/2, y+1/2, -z+1/2'
24 '-x+1/2, -y+1/2, -z+1/2'
25 '-y+1/2, -x+1/2, z+1/2'
26 'y+1/2, x+1/2, z+1/2'
27 'y+1/2, -x+1/2, z+1/2'
28 '-y+1/2, x+1/2, z+1/2'
29 'x+1/2, -y+1/2, z+1/2'
30 '-x+1/2, y+1/2, z+1/2'
31 '-x+1/2, -y+1/2, z+1/2'
32 'x+1/2, y+1/2, z+1/2'
loop_
_atom_type_symbol
_atom_type_oxidation_number
N3- -3
Br1- -1
Li1+ 1
loop_
_atom_site_label
_atom_site_type_symbol
_atom_site_symmetry_multiplicity
_atom_site_Wyckoff_symbol
_atom_site_fract_x
_atom_site_fract_y
_atom_site_fract_z
_atom_site_B_iso_or_equiv
_atom_site_occupancy
_atom_site_attached_hydrogens
N1 N3- 2 a 0 0 0 . 1. 0
Br1 Br1- 2 b 0 0 0.5 . 1. 0
Br2 Br1- 4 d 0 0.5 0.25 . 1. 0
Li1 Li1+ 16 m 0.1880(16) 0.1880(16) 0.1022(14) . 0.75 0
loop_
_atom_site_aniso_label
_atom_site_aniso_type_symbol
_atom_site_aniso_U_11
_atom_site_aniso_U_22
_atom_site_aniso_U_33
_atom_site_aniso_U_12
_atom_site_aniso_U_13
_atom_site_aniso_U_23
N1 N3- 0.0123(18) 0.0123(18) 0.0327(28) 0 0 0
Br1 Br1- 0.0462(28) 0.0462(28) 0.0465(44) 0 0 0
Br2 Br1- 0.0361(22) 0.0361(22) 0.0479(34) 0 0 0
Li1 Li1+ 0.1216(70) 0.1216(70) 0.136(13) -.0104(81) -.0652(53) -.0652(53)
#End of TTdata_83985-ICSD