
#(C) 2017 by FIZ Karlsruhe - Leibniz Institute for Information Infrastructure.  All rights reserved.
data_84092-ICSD
_database_code_ICSD 84092
_audit_creation_date 1999-01-19
_chemical_name_systematic 'Hexalithium nitride tribromide - I''
_chemical_formula_structural 'Li6 N Br3'
_chemical_formula_sum 'Br3 Li6 N1'
_chemical_name_structure_type Perovskite-Na3AlF6
_exptl_crystal_density_diffrn 2.78
_cell_measurement_temperature 203.
_publ_section_title

;
Time-of-flight neutron diffraction study on the cryolite type phases of Li6 N
Br3
;
loop_
_citation_id
_citation_journal_full
_citation_year
_citation_journal_volume
_citation_page_first
_citation_page_last
_citation_journal_id_ASTM
primary 'Journal of Alloys and Compounds' 1997 261 123 131 JALCEU
loop_
_publ_author_name
'Marx, R.'
'Ibberson, R.M.'
_cell_length_a 6.26585(4)
_cell_length_b 6.29839(4)
_cell_length_c 8.95577(6)
_cell_angle_alpha 90.
_cell_angle_beta 90.1700(6)
_cell_angle_gamma 90.
_cell_volume 353.44
_cell_formula_units_Z 2
_symmetry_space_group_name_H-M 'P 1 21/n 1'
_symmetry_Int_Tables_number 14
_refine_ls_R_factor_all 0.016
loop_
_symmetry_equiv_pos_site_id
_symmetry_equiv_pos_as_xyz
1 '-x+1/2, y+1/2, -z+1/2'
2 '-x, -y, -z'
3 'x+1/2, -y+1/2, z+1/2'
4 'x, y, z'
loop_
_atom_type_symbol
_atom_type_oxidation_number
N3- -3
Br1- -1
Li1+ 1
loop_
_atom_site_label
_atom_site_type_symbol
_atom_site_symmetry_multiplicity
_atom_site_Wyckoff_symbol
_atom_site_fract_x
_atom_site_fract_y
_atom_site_fract_z
_atom_site_B_iso_or_equiv
_atom_site_occupancy
_atom_site_attached_hydrogens
N1 N3- 2 a 0 0 0 0.0172(14) 1. 0
Br1 Br1- 2 b 0 0 0.5 0.0016(13) 1. 0
Br2 Br1- 4 e 0.0042(8) 0.4883(7) 0.2581(4) 0.0144(8) 1. 0
Li1 Li1+ 4 e 0.9074(19) 0.0531(25) 0.2042(13) 0.0534(24) 1. 0
Li2 Li1+ 4 e 0.1763(24) 0.775(3) 0.0725(17) 0.0534(24) 1. 0
Li3 Li1+ 4 e 0.2530(26) 0.1653(28) 0.0345(19) 0.0534(24) 1. 0
#End of TTdata_84092-ICSD