
#(C) 2018 by FIZ Karlsruhe - Leibniz Institute for Information Infrastructure.  All rights reserved.
data_84409-ICSD
_database_code_ICSD 84409
_audit_creation_date 1999-01-19
_chemical_name_systematic
'Lithium uranium titanium niobium oxide (0.96/1/1/2/10)'
_chemical_formula_structural 'Li0.96 U Ti Nb2 O10'
_chemical_formula_sum 'Li0.96 Nb2 O10 Ti1 U1'
_exptl_crystal_density_diffrn 5.6
_publ_section_title

;
Crystal structures and electronic properties of U Tix Nb3-x O10 (x = 0, 1/3,
1) and of the intercalation compound Li0.9 U Ti Nb2 O10
;
loop_
_citation_id
_citation_journal_full
_citation_year
_citation_journal_volume
_citation_page_first
_citation_page_last
_citation_journal_id_ASTM
primary 'Journal of Materials Chemistry' 1997 7 537 543 JMACEP
loop_
_publ_author_name
'Dickens, P.G.'
'Flynn, G.J.'
'Patat, S.'
'Stuttard, G.P.'
_cell_length_a 7.3563(2)
_cell_length_b 12.7162(3)
_cell_length_c 16.19969(40)
_cell_angle_alpha 90.
_cell_angle_beta 90.
_cell_angle_gamma 90.
_cell_volume 1515.39
_cell_formula_units_Z 8
_symmetry_space_group_name_H-M 'F d d d Z'
_symmetry_Int_Tables_number 70
_refine_ls_R_factor_all 0.006
loop_
_symmetry_equiv_pos_site_id
_symmetry_equiv_pos_as_xyz
1 'x+3/4, y+3/4, -z'
2 'x+3/4, -y, z+3/4'
3 '-x, y+3/4, z+3/4'
4 '-x, -y, -z'
5 '-x+1/4, -y+1/4, z'
6 '-x+1/4, y, -z+1/4'
7 'x, -y+1/4, -z+1/4'
8 'x, y, z'
9 'x+3/4, y+1/4, -z+1/2'
10 'x+3/4, -y+1/2, z+1/4'
11 '-x, y+1/4, z+1/4'
12 '-x, -y+1/2, -z+1/2'
13 '-x+1/4, -y+3/4, z+1/2'
14 '-x+1/4, y+1/2, -z+3/4'
15 'x, -y+3/4, -z+3/4'
16 'x, y+1/2, z+1/2'
17 'x+1/4, y+3/4, -z+1/2'
18 'x+1/4, -y, z+1/4'
19 '-x+1/2, y+3/4, z+1/4'
20 '-x+1/2, -y, -z+1/2'
21 '-x+3/4, -y+1/4, z+1/2'
22 '-x+3/4, y, -z+3/4'
23 'x+1/2, -y+1/4, -z+3/4'
24 'x+1/2, y, z+1/2'
25 'x+1/4, y+1/4, -z'
26 'x+1/4, -y+1/2, z+3/4'
27 '-x+1/2, y+1/4, z+3/4'
28 '-x+1/2, -y+1/2, -z'
29 '-x+3/4, -y+3/4, z'
30 '-x+3/4, y+1/2, -z+1/4'
31 'x+1/2, -y+3/4, -z+1/4'
32 'x+1/2, y+1/2, z'
loop_
_atom_type_symbol
_atom_type_oxidation_number
U5+ 5.04
Nb5+ 5
Ti4+ 4
Nb5+ 5
Ti4+ 4
O2- -2
Li1+ 1
loop_
_atom_site_label
_atom_site_type_symbol
_atom_site_symmetry_multiplicity
_atom_site_Wyckoff_symbol
_atom_site_fract_x
_atom_site_fract_y
_atom_site_fract_z
_atom_site_B_iso_or_equiv
_atom_site_occupancy
_atom_site_attached_hydrogens
U1 U5+ 8 a 0.125 0.125 0.125 1.76(5) 1. 0
Nb1 Nb5+ 8 b 0.125 0.125 0.625 1.0(1) 0.617(8) 0
Ti1 Ti4+ 8 b 0.125 0.125 0.625 1.0(1) 0.383(8) 0
Nb2 Nb5+ 16 g 0.125 0.125 0.3924(2) 0.43(5) 0.692(4) 0
Ti2 Ti4+ 16 g 0.125 0.125 0.3924(2) 0.43(5) 0.308(4) 0
O1 O2- 32 h 0.4275(3) 0.2268(2) 0.1211(1) 1.06(4) 1. 0
O2 O2- 16 g 0.125 0.125 0.5012(2) 1.40(3) 1. 0
O3 O2- 16 g 0.125 0.125 0.2450(2) 1.93(5) 1. 0
O4 O2- 16 f 0.125 0.3263(2) 0.125 0.96(6) 1. 0
Li1 Li1+ 32 h 0.903(2) 0.191(2) 0.249(1) 0.77(3) 0.24(2) 0
#End of TTdata_84409-ICSD