
#(C) 2018 by FIZ Karlsruhe - Leibniz Institute for Information Infrastructure.  All rights reserved.
data_84449-ICSD
_database_code_ICSD 84449
_audit_creation_date 1999-01-19
_chemical_name_systematic 'Lithium tecto-alumosilicate *'
_chemical_formula_structural 'Li95.68 (Al96 Si96 O384)'
_chemical_formula_sum 'Al96 Li95.68 O384 Si96'
_chemical_name_mineral 'Zeolite LSX'
_exptl_crystal_density_diffrn 1.34
_cell_measurement_temperature 10.
_publ_section_title

;
Structure of dehydrated zeolite Li-LSX by neutron diffraction: evidence for a
low-temperature orthorhombic faujasite
;
loop_
_citation_id
_citation_journal_full
_citation_year
_citation_journal_volume
_citation_page_first
_citation_page_last
_citation_journal_id_ASTM
primary 'Journal of Physical Chemistry' 1997 101 10340 10346 JPCHAX
loop_
_publ_author_name
'Plevert, J.'
'di Renzo, F.'
'Fajula, F.'
'Chiari, G.'
_cell_length_a 24.7570(20)
_cell_length_b 24.3710(10)
_cell_length_c 24.8740(10)
_cell_angle_alpha 90.
_cell_angle_beta 90.
_cell_angle_gamma 90.
_cell_volume 15007.8
_cell_formula_units_Z 1
_symmetry_space_group_name_H-M 'F d d d Z'
_symmetry_Int_Tables_number 70
_refine_ls_R_factor_all 0.042
loop_
_symmetry_equiv_pos_site_id
_symmetry_equiv_pos_as_xyz
1 'x+3/4, y+3/4, -z'
2 'x+3/4, -y, z+3/4'
3 '-x, y+3/4, z+3/4'
4 '-x, -y, -z'
5 '-x+1/4, -y+1/4, z'
6 '-x+1/4, y, -z+1/4'
7 'x, -y+1/4, -z+1/4'
8 'x, y, z'
9 'x+3/4, y+1/4, -z+1/2'
10 'x+3/4, -y+1/2, z+1/4'
11 '-x, y+1/4, z+1/4'
12 '-x, -y+1/2, -z+1/2'
13 '-x+1/4, -y+3/4, z+1/2'
14 '-x+1/4, y+1/2, -z+3/4'
15 'x, -y+3/4, -z+3/4'
16 'x, y+1/2, z+1/2'
17 'x+1/4, y+3/4, -z+1/2'
18 'x+1/4, -y, z+1/4'
19 '-x+1/2, y+3/4, z+1/4'
20 '-x+1/2, -y, -z+1/2'
21 '-x+3/4, -y+1/4, z+1/2'
22 '-x+3/4, y, -z+3/4'
23 'x+1/2, -y+1/4, -z+3/4'
24 'x+1/2, y, z+1/2'
25 'x+1/4, y+1/4, -z'
26 'x+1/4, -y+1/2, z+3/4'
27 '-x+1/2, y+1/4, z+3/4'
28 '-x+1/2, -y+1/2, -z'
29 '-x+3/4, -y+3/4, z'
30 '-x+3/4, y+1/2, -z+1/4'
31 'x+1/2, -y+3/4, -z+1/4'
32 'x+1/2, y+1/2, z'
loop_
_atom_type_symbol
_atom_type_oxidation_number
Si4+ 4
Al3+ 3
O2- -2
Li1+ 1
loop_
_atom_site_label
_atom_site_type_symbol
_atom_site_symmetry_multiplicity
_atom_site_Wyckoff_symbol
_atom_site_fract_x
_atom_site_fract_y
_atom_site_fract_z
_atom_site_B_iso_or_equiv
_atom_site_occupancy
_atom_site_attached_hydrogens
Si1 Si4+ 32 h -.0475(8) 0.1234(9) 0.0380(7) 0.008 1. 0
Si2 Si4+ 32 h 0.0368(8) -.0530(8) 0.1254(9) 0.008 1. 0
Si3 Si4+ 32 h 0.1247(9) 0.0368(8) -.0452(8) 0.008 1. 0
Al1 Al3+ 32 h -.0476(9) 0.0378(8) 0.1211(9) 0.008 1. 0
Al2 Al3+ 32 h 0.1231(9) -.0497(9) 0.0384(9) 0.008 1. 0
Al3 Al3+ 32 h 0.0375(8) 0.1261(9) -.0498(8) 0.008 1. 0
O1 O2- 32 h 0.8961(8) 0.0036(12) 0.0941(7) 0.008 1. 0
O2 O2- 32 h 0.0979(9) 0.8998(10) -.0027(9) 0.008 1. 0
O3 O2- 32 h 0.0025(8) 0.1042(9) 0.8937(7) 0.008 1. 0
O4 O2- 32 h 0.0017(9) -.0015(9) 0.1510(8) 0.008 1. 0
O5 O2- 32 h 0.1553(7) 0.0006(10) 0.0003(9) 0.008 1. 0
O6 O2- 32 h -.0003(8) 0.1560(6) 0.0027(7) 0.008 1. 0
O7 O2- 32 h -.0198(8) 0.0742(9) 0.0687(8) 0.008 1. 0
O8 O2- 32 h 0.0700(8) -.0254(6) 0.0764(7) 0.008 1. 0
O9 O2- 32 h 0.0749(8) 0.0734(9) -.0195(8) 0.008 1. 0
O10 O2- 32 h -.0681(9) 0.0852(9) 0.1676(8) 0.008 1. 0
O11 O2- 32 h 0.1743(8) -.0783(6) 0.0775(8) 0.008 1. 0
O12 O2- 32 h 0.0842(8) 0.1713(9) -.0740(8) 0.008 1. 0
Li1 Li1+ 32 h 0.0502(23) 0.0507(15) 0.0500(22) 0.008 1. 0
Li2 Li1+ 32 h 0.194(8) 0.190(8) 0.192(8) 0.008 0.08(8) 0
Li3 Li1+ 32 h 0.2197(33) 0.2256(28) 0.2215(34) 0.008 0.57(8) 0
Li4 Li1+ 16 e 0.377(6) 0.125 0.125 0.008 0.44(5) 0
Li5 Li1+ 16 f 0.125 0.361(9) 0.125 0.008 0.23(5) 0
Li6 Li1+ 16 g 0.125 0.125 0.376(7) 0.008 0.39(5) 0
Li7 Li1+ 32 h 0.0685(28) -.0306(32) 0.3856(33) 0.008 0.59(5) 0
Li8 Li1+ 32 h 0.39(4) 0.069(24) -.03(4) 0.008 0.05(5) 0
Li9 Li1+ 32 h -.021(10) 0.396(11) 0.076(8) 0.008 0.17(5) 0
#End of TTdata_84449-ICSD