
#(C) 2018 by FIZ Karlsruhe - Leibniz Institute for Information Infrastructure.  All rights reserved.
data_84716-ICSD
_database_code_ICSD 84716
_audit_creation_date 1999-01-19
_chemical_name_systematic 'Trilithium distrontium tantalum tetranitride'
_chemical_formula_structural 'Li3 Sr2 Ta N4'
_chemical_formula_sum 'Li3 N4 Sr2 Ta1'
_chemical_name_structure_type Li3Na2GaO4
_exptl_crystal_density_diffrn 5.25
_cell_measurement_temperature 298.
_publ_section_title

;
Synthesis and structure of two new quaternary nitrides: Li3 Sr2 M N4 (M = Nb,
Ta)
;
loop_
_citation_id
_citation_journal_full
_citation_year
_citation_journal_volume
_citation_page_first
_citation_page_last
_citation_journal_id_ASTM
primary 'Journal of Solid State Chemistry' 1997 130 1 8 JSSCBI
loop_
_publ_author_name
'Chen, X.-Z.'
'Eick, H.A.'
_cell_length_a 8.700(6)
_cell_length_b 9.004(4)
_cell_length_c 7.000(3)
_cell_angle_alpha 90.
_cell_angle_beta 90.
_cell_angle_gamma 90.
_cell_volume 548.34
_cell_formula_units_Z 4
_symmetry_space_group_name_H-M 'P n n m'
_symmetry_Int_Tables_number 58
_refine_ls_R_factor_all 0.035
loop_
_symmetry_equiv_pos_site_id
_symmetry_equiv_pos_as_xyz
1 'x+1/2, -y+1/2, z+1/2'
2 '-x+1/2, y+1/2, z+1/2'
3 'x, y, -z'
4 '-x, -y, -z'
5 '-x+1/2, y+1/2, -z+1/2'
6 'x+1/2, -y+1/2, -z+1/2'
7 '-x, -y, z'
8 'x, y, z'
loop_
_atom_type_symbol
_atom_type_oxidation_number
Li1+ 1
N3- -3
Li1+ 1
Sr2+ 2
Ta5+ 5
N3- -3
Sr2+ 2
loop_
_atom_site_label
_atom_site_type_symbol
_atom_site_symmetry_multiplicity
_atom_site_Wyckoff_symbol
_atom_site_fract_x
_atom_site_fract_y
_atom_site_fract_z
_atom_site_B_iso_or_equiv
_atom_site_occupancy
_atom_site_attached_hydrogens
Li1 Li1+ 8 h 0.018(2) 0.363(2) 0.238(3) . 1. 0
N1 N3- 8 h 0.303(1) 0.019(1) 0.234(1) . 1. 0
N2 N3- 4 g 0.075(2) 0.219(2) 0 . 1. 0
Li2 Li1+ 4 g 0.208(5) 0.426(4) 0 . 1. 0
Sr1 Sr2+ 4 g 0.2418(2) 0.7543(2) 0 . 1. 0
Ta1 Ta5+ 4 g 0.28558(7) 0.13711(7) 0 . 1. 0
N3 N3- 4 g 0.452(2) 0.284(2) 0 . 1. 0
Sr2 Sr2+ 4 e 0 0 0.2603(2) . 1. 0
loop_
_atom_site_aniso_label
_atom_site_aniso_type_symbol
_atom_site_aniso_U_11
_atom_site_aniso_U_22
_atom_site_aniso_U_33
_atom_site_aniso_U_12
_atom_site_aniso_U_13
_atom_site_aniso_U_23
Li1 Li1+ 0.02(1) -.011(7) 0.01(1) 0.002(7) -.004(8) -.003(8)
N1 N3- 0.003(4) 0.013(4) 0.004(4) -.003(3) 0.000(4) 0.000(4)
N2 N3- 0.001(6) 0.015(7) 0.008(7) -.005(5) 0 0
Li2 Li1+ 0.05(2) 0.00(1) 0.00(1) 0.01(2) 0 0
Sr1 Sr2+ 0.0088(7) 0.0066(8) 0.0134(8) -.0026(5) 0 0
Ta1 Ta5+ 0.0022(3) 0.0021(3) 0.0013(3) 0.0002(3) 0 0
N3 N3- 0.005(7) 0.002(6) 0.03(1) 0.005(5) 0 0
Sr2 Sr2+ 0.0047(6) 0.0059(6) 0.0037(7) 0.0006(5) 0 0
#End of TTdata_84716-ICSD