
#(C) 2018 by FIZ Karlsruhe - Leibniz Institute for Information Infrastructure.  All rights reserved.
data_84972-ICSD
_database_code_ICSD 84972
_audit_creation_date 1999-06-02
_chemical_name_systematic 'Lithium iron(III) titanium oxide (1.2/0.42/1.4/4)'
_chemical_formula_structural '(Li0.25 Fe0.055 Ti0.695)2 (Fe0.305 Li0.695) O4'
_chemical_formula_sum 'Fe0.415 Li1.195 O4 Ti1.39'
_chemical_name_structure_type Spinel-LiFe5O8
_exptl_crystal_density_diffrn 3.69
_publ_section_title

;
Cation distribution in ordered spinels of the (Li2 O) - (Ti O2) - (Fe2 O3)
system
;
loop_
_citation_id
_citation_journal_full
_citation_year
_citation_journal_volume
_citation_page_first
_citation_page_last
_citation_journal_id_ASTM
primary 'Journal of Solid State Chemistry' 1997 134 170 181 JSSCBI
loop_
_publ_author_name
'Scharner, S.'
'Weppner, W.'
'Schmid-Beurmann, P.'
_cell_length_a 8.35552(7)
_cell_length_b 8.35552(7)
_cell_length_c 8.35552(7)
_cell_angle_alpha 90.
_cell_angle_beta 90.
_cell_angle_gamma 90.
_cell_volume 583.34
_cell_formula_units_Z 8
_symmetry_space_group_name_H-M 'P 43 3 2'
_symmetry_Int_Tables_number 212
_refine_ls_R_factor_all 0.049
loop_
_symmetry_equiv_pos_site_id
_symmetry_equiv_pos_as_xyz
1 'z+1/4, y+3/4, -x+3/4'
2 '-z+3/4, y+1/4, x+3/4'
3 'y+1/4, x+3/4, -z+3/4'
4 '-y+3/4, x+1/4, z+3/4'
5 'x+1/4, z+3/4, -y+3/4'
6 '-x+3/4, z+1/4, y+3/4'
7 'z+3/4, -y+3/4, x+1/4'
8 '-z+1/4, -y+1/4, -x+1/4'
9 'y+3/4, -x+3/4, z+1/4'
10 '-y+1/4, -x+1/4, -z+1/4'
11 'x+3/4, -z+3/4, y+1/4'
12 '-x+1/4, -z+1/4, -y+1/4'
13 '-y+1/2, -z, x+1/2'
14 '-y, z+1/2, -x+1/2'
15 'y+1/2, -z+1/2, -x'
16 'y, z, x'
17 'z+1/2, -x+1/2, -y'
18 '-z+1/2, -x, y+1/2'
19 '-z, x+1/2, -y+1/2'
20 'z, x, y'
21 '-x+1/2, -y, z+1/2'
22 '-x, y+1/2, -z+1/2'
23 'x+1/2, -y+1/2, -z'
24 'x, y, z'
loop_
_atom_type_symbol
_atom_type_oxidation_number
Li1+ 1
Fe3+ 3
Ti4+ 4
Li1+ 1
Fe3+ 3
O2- -2
loop_
_atom_site_label
_atom_site_type_symbol
_atom_site_symmetry_multiplicity
_atom_site_Wyckoff_symbol
_atom_site_fract_x
_atom_site_fract_y
_atom_site_fract_z
_atom_site_B_iso_or_equiv
_atom_site_occupancy
_atom_site_attached_hydrogens
Li1 Li1+ 4 b 0.625 0.625 0.625 0.73(2) 1. 0
Fe1 Fe3+ 12 d 0.125 0.3667(1) 0.8833(1) 0.73(2) 0.0733 0
Ti1 Ti4+ 12 d 0.125 0.3667(1) 0.8833(1) 0.73(2) 0.9267 0
Li2 Li1+ 8 c -.0024(1) -.0024(1) -.0024(1) 0.73(2) 0.695 0
Fe2 Fe3+ 8 c -.0024(1) -.0024(1) -.0024(1) 0.73(2) 0.305 0
O1 O2- 8 c 0.3900(3) 0.3900(3) 0.3900(3) 0.73(2) 1. 0
O2 O2- 24 e 0.1087(3) 0.1249(2) 0.3893(2) 0.73(2) 1. 0
#End of TTdata_84972-ICSD