
#(C) 2018 by FIZ Karlsruhe - Leibniz Institute for Information Infrastructure.  All rights reserved.
data_86096-ICSD
_database_code_ICSD 86096
_audit_creation_date 1999-11-30
_chemical_name_systematic 'Lithium zinc phosphate(V) hydrate - beta'
_chemical_formula_structural 'Li Zn (P O4) (H2 O)'
_chemical_formula_sum 'H2 Li1 O5 P1 Zn1'
_exptl_crystal_density_diffrn 2.96
_publ_section_title

;
A new polymorph of Li Zn P O4 . (H2 O): synthesis, crystal structure and
thermal transformation
;
loop_
_citation_id
_citation_journal_full
_citation_year
_citation_journal_volume
_citation_page_first
_citation_page_last
_citation_journal_id_ASTM
primary
'Journal of the Chemical Society, Dalton Transactions: Inorganic Chemistry ' 1998 1998 2261 2266 JCDTBI
loop_
_publ_author_name
'Jensen, T.R.'
_cell_length_a 10.030(1)
_cell_length_b 16.5530(20)
_cell_length_c 5.0120(5)
_cell_angle_alpha 90.
_cell_angle_beta 90.
_cell_angle_gamma 90.
_cell_volume 832.13
_cell_formula_units_Z 8
_symmetry_space_group_name_H-M 'P 21 a b'
_symmetry_Int_Tables_number 29
_refine_ls_R_factor_all 0.029
loop_
_symmetry_equiv_pos_site_id
_symmetry_equiv_pos_as_xyz
1 'x, y+1/2, -z'
2 'x+1/2, -y+1/2, z'
3 'x+1/2, -y, -z'
4 'x, y, z'
loop_
_atom_type_symbol
_atom_type_oxidation_number
Zn2+ 2
P5+ 5
Li1+ 1
O2- -2
H1+ 1
loop_
_atom_site_label
_atom_site_type_symbol
_atom_site_symmetry_multiplicity
_atom_site_Wyckoff_symbol
_atom_site_fract_x
_atom_site_fract_y
_atom_site_fract_z
_atom_site_B_iso_or_equiv
_atom_site_occupancy
_atom_site_attached_hydrogens
Zn1 Zn2+ 4 a 0.1521(1) 0.6912(1) 0.4606(2) 0.010(1) 1. 0
Zn2 Zn2+ 4 a 0.9184(1) 0.5564(1) 0.1108(2) 0.010(1) 1. 0
P1 P5+ 4 a 0.8494(2) 0.6581(1) 0.5875(3) 0.007(1) 1. 0
P2 P5+ 4 a 0.7232(2) 0.4082(1) 0.0149(4) 0.008(1) 1. 0
Li1 Li1+ 4 a 0.9007(17) 0.7524(8) 0.0923(20) 0.016(3) 1. 0
Li2 Li1+ 4 a 0.1768(13) 0.4971(7) 0.4694(24) 0.015(3) 1. 0
O1 O2- 4 a 0.9584(5) 0.7041(3) 0.433(1) 0.013(1) 1. 0
O2 O2- 4 a 0.1915(5) 0.5974(3) 0.6867(9) 0.013(1) 1. 0
O3 O2- 4 a 0.2393(5) 0.6764(3) 0.1078(9) 0.011(1) 1. 0
O4 O2- 4 a 0.8326(5) 0.5740(3) 0.4615(10) 0.010(1) 1. 0
O5 O2- 4 a 0.1116(5) 0.5463(3) 0.136(1) 0.012(1) 1. 0
O6 O2- 4 a 0.8865(5) 0.6510(3) 0.8823(9) 0.012(1) 1. 0
O7 O2- 4 a 0.2181(5) 0.7953(3) 0.5676(10) 0.014(1) 1. 0
O8 O2- 4 a 0.8531(5) 0.4552(3) 0.9731(10) 0.012(1) 1. 0
O9 O2- 4 a 0.0393(6) 0.8247(3) 0.9846(11) 0.022(1) 1. 0
O10 O2- 4 a 0.0261(6) 0.4260(6) 0.5348(11) 0.023(1) 1. 0
H1 H1+ 4 a 0.1026 0.8 0.8687 0.090(1) 1. 0
H2 H1+ 4 a 0.0084 0.8707 0.9102 0.090(1) 1. 0
H3 H1+ 4 a 0.0529 0.3788 0.6369 0.090(1) 1. 0
H4 H1+ 4 a 0.9428 0.45 0.5914 0.090(1) 1. 0
#End of TTdata_86096-ICSD