
#(C) 2018 by FIZ Karlsruhe - Leibniz Institute for Information Infrastructure.  All rights reserved.
data_86090-ICSD
_database_code_ICSD 86090
_audit_creation_date 1999-11-30
_chemical_name_systematic 'Lithium hydrazinium sulfate(VI)'
_chemical_formula_structural 'Li (N2 H5) (S O4)'
_chemical_formula_sum 'H5 Li1 N2 O4 S1'
_chemical_name_structure_type LiN2H5SO4
_exptl_crystal_density_diffrn 1.93
_cell_measurement_temperature 467.
_publ_section_title

;
Crystal structure and electrical conductivity of Li N2 H5 S O4 at high
temperature
;
loop_
_citation_id
_citation_journal_full
_citation_year
_citation_journal_volume
_citation_page_first
_citation_page_last
_citation_journal_id_ASTM
primary

;
Japanese Journal of Applied Physics, Part 1: Regular Papers, Brief
Communications & Review Papers
; 1998 37 925 929 JAPNDE
loop_
_publ_author_name
'Fukami, T.'
'Chen, R.-H.'
_cell_length_a 9.967(1)
_cell_length_b 8.9772(8)
_cell_length_c 5.2255(9)
_cell_angle_alpha 90.
_cell_angle_beta 90.
_cell_angle_gamma 90.
_cell_volume 467.56
_cell_formula_units_Z 4
_symmetry_space_group_name_H-M 'P n a 21'
_symmetry_Int_Tables_number 33
_refine_ls_R_factor_all 0.043
loop_
_symmetry_equiv_pos_site_id
_symmetry_equiv_pos_as_xyz
1 'x+1/2, -y+1/2, z'
2 '-x+1/2, y+1/2, z+1/2'
3 '-x, -y, z+1/2'
4 'x, y, z'
loop_
_atom_type_symbol
_atom_type_oxidation_number
S6+ 6
O2- -2
N2- -2
Li1+ 1
H1+ 1
loop_
_atom_site_label
_atom_site_type_symbol
_atom_site_symmetry_multiplicity
_atom_site_Wyckoff_symbol
_atom_site_fract_x
_atom_site_fract_y
_atom_site_fract_z
_atom_site_B_iso_or_equiv
_atom_site_occupancy
_atom_site_attached_hydrogens
S1 S6+ 4 a 0.16024(7) 0.12372(8) 0.25 0.0211(1) 1. 0
O1 O2- 4 a 0.1915(4) 0.0943(4) 0.5185(6) 0.0416(8) 1. 0
O2 O2- 4 a 0.0166(3) 0.1559(3) 0.2252(8) 0.0438(7) 1. 0
O3 O2- 4 a 0.2363(4) 0.2523(5) 0.1658(7) 0.0421(8) 1. 0
O4 O2- 4 a 0.1940(3) -.0074(5) 0.0971(6) 0.0437(8) 1. 0
N1 N2- 4 a 0.0279(5) 0.4135(5) 0.763(2) 0.069(1) 1. 0
N2 N2- 4 a -.0620(4) 0.2907(4) 0.736(1) 0.0473(9) 1. 0
Li1 Li1+ 4 a 0.1650(7) -.0702(7) 0.751(2) 0.032(1) 1. 0
H1 H1+ 4 a 0.385(6) 0.880(6) 0.20(2) 0.08(2) 1. 0
H2 H1+ 4 a 0.031(6) 0.443(5) 0.549(9) 0.06(2) 1. 0
H3 H1+ 4 a 0.806(6) 0.299(7) 0.76(2) 0.11(2) 1. 0
H4 H1+ 4 a -.050(6) 0.315(6) 0.90(1) 0.08(2) 1. 0
H5 H1+ 4 a -.038(4) 0.216(5) 0.601(7) 0.03(1) 1. 0
#End of TTdata_86090-ICSD