
#(C) 2018 by FIZ Karlsruhe - Leibniz Institute for Information Infrastructure.  All rights reserved.
data_86776-ICSD
_database_code_ICSD 86776
_audit_creation_date 2000-07-15
_audit_update_record 2008-02-01
_chemical_name_systematic
'Lithium oxovanadium(IV) silicon germanium oxide (2/1/0.5/0.5/4)'
_chemical_formula_structural 'Li2 (V O) ((Si0.5 Ge0.5) O4)'
_chemical_formula_sum 'Ge0.5 Li2 O5 Si0.5 V1'
_chemical_name_structure_type Li2TiSiO5
_exptl_crystal_density_diffrn 3.48
_publ_section_title

;
Syntheses and structures of the layered vanadyl(IV) silico-germanates Li2 V O
(Si1-x Gex) O4 (x = 0, 0.5, 1)
;
loop_
_citation_id
_citation_journal_full
_citation_year
_citation_journal_volume
_citation_page_first
_citation_page_last
_citation_journal_id_ASTM
primary 'Materials Research Bulletin' 1998 33 1339 1345 MRBUAC
loop_
_publ_author_name
'Millet, P.'
'Satto, C.'
_cell_length_a 6.4367(4)
_cell_length_b 6.4367(4)
_cell_length_c 4.4929(2)
_cell_angle_alpha 90.
_cell_angle_beta 90.
_cell_angle_gamma 90.
_cell_volume 186.15
_cell_formula_units_Z 2
_symmetry_space_group_name_H-M 'P 4/n m m Z'
_symmetry_Int_Tables_number 129
_refine_ls_R_factor_all 0.02
loop_
_symmetry_equiv_pos_site_id
_symmetry_equiv_pos_as_xyz
1 'y+1/2, x+1/2, -z'
2 '-y, x+1/2, -z'
3 'y+1/2, -x, -z'
4 '-y, -x, -z'
5 'x+1/2, y+1/2, -z'
6 '-x, y+1/2, -z'
7 'x+1/2, -y, -z'
8 '-x, -y, -z'
9 '-y+1/2, -x+1/2, z'
10 'y, -x+1/2, z'
11 '-y+1/2, x, z'
12 'y, x, z'
13 '-x+1/2, -y+1/2, z'
14 'x, -y+1/2, z'
15 '-x+1/2, y, z'
16 'x, y, z'
loop_
_atom_type_symbol
_atom_type_oxidation_number
V4+ 4
Si4+ 4
Ge4+ 4
O2- -2
Li1+ 1
loop_
_atom_site_label
_atom_site_type_symbol
_atom_site_symmetry_multiplicity
_atom_site_Wyckoff_symbol
_atom_site_fract_x
_atom_site_fract_y
_atom_site_fract_z
_atom_site_B_iso_or_equiv
_atom_site_occupancy
_atom_site_attached_hydrogens
V1 V4+ 2 c 0.25 0.25 0.5912(1) . 1. 0
Si1 Si4+ 2 b 0.25 0.75 0.5 . 0.5 0
Ge1 Ge4+ 2 b 0.25 0.75 0.5 . 0.5 0
O1 O2- 2 c 0.25 0.25 0.2281(5) . 1. 0
O2 O2- 8 i 0.25 0.5388(2) 0.7257(2) . 1. 0
Li1 Li1+ 4 d 0.5 0 0 . 1. 0
loop_
_atom_site_aniso_label
_atom_site_aniso_type_symbol
_atom_site_aniso_U_11
_atom_site_aniso_U_22
_atom_site_aniso_U_33
_atom_site_aniso_U_12
_atom_site_aniso_U_13
_atom_site_aniso_U_23
V1 V4+ 0.0066(1) 0.0066(1) 0.0050(2) 0 0 0
Si1 Si4+ 0.0053(1) 0.0053(1) 0.0053(2) 0 0 0
Ge1 Ge4+ 0.0053(1) 0.0053(1) 0.0053(2) 0 0 0
O1 O2- 0.0197(5) 0.0197(5) 0.0074(7) 0 0 0
O2 O2- 0.0122(3) 0.0090(3) 0.0096(3) 0 0 -.0009(3)
Li1 Li1+ 0.022(2) 0.022(2) 0.019(1) -.005(1) -.007(1) 0.007(1)
#End of TTdata_86776-ICSD