
#(C) 2018 by FIZ Karlsruhe - Leibniz Institute for Information Infrastructure.  All rights reserved.
data_87823-ICSD
_database_code_ICSD 87823
_audit_creation_date 2001-07-16
_chemical_name_systematic
'Lithium strontium niobium iron oxide (4/3.01/5.76/0.24/20)'
_chemical_formula_structural 'Li4 Sr3.01 (Nb5.76 Fe0.24 O20)'
_chemical_formula_sum 'Fe0.24 Li4 Nb5.76 O20 Sr3.01'
_chemical_name_structure_type Li4Sr3+xNb6O20
_exptl_crystal_density_diffrn 4.74
_publ_section_title

;
Synthesis, crystal structure, and ionic conductivity of novel
Ruddlesden-Popper related phases, Li4 Sr3 Nb5.77 Fe0.23 O19.77 and Li4 Sr3 Nb6
O20
;
loop_
_citation_id
_citation_journal_full
_citation_year
_citation_journal_volume
_citation_page_first
_citation_page_last
_citation_journal_id_ASTM
primary 'Chemistry of Materials' 1999 11 634 641 CMATEX
loop_
_publ_author_name
'Bhuvanesh, N.S.P.'
'Crosnier-Lopez, M.P.'
'Bohnke, O.'
'Emery, J.'
'Fourquet, J.L.'
_cell_length_a 3.9585(2)
_cell_length_b 3.9585(2)
_cell_length_c 25.9150(40)
_cell_angle_alpha 90.
_cell_angle_beta 90.
_cell_angle_gamma 90.
_cell_volume 406.08
_cell_formula_units_Z 1
_symmetry_space_group_name_H-M 'I 4/m m m'
_symmetry_Int_Tables_number 139
_refine_ls_R_factor_all 0.038
loop_
_symmetry_equiv_pos_site_id
_symmetry_equiv_pos_as_xyz
1 'y, x, -z'
2 '-y, -x, -z'
3 '-y, x, -z'
4 'y, -x, -z'
5 '-x, y, -z'
6 'x, -y, -z'
7 'x, y, -z'
8 '-x, -y, -z'
9 '-y, -x, z'
10 'y, x, z'
11 'y, -x, z'
12 '-y, x, z'
13 'x, -y, z'
14 '-x, y, z'
15 '-x, -y, z'
16 'x, y, z'
17 'y+1/2, x+1/2, -z+1/2'
18 '-y+1/2, -x+1/2, -z+1/2'
19 '-y+1/2, x+1/2, -z+1/2'
20 'y+1/2, -x+1/2, -z+1/2'
21 '-x+1/2, y+1/2, -z+1/2'
22 'x+1/2, -y+1/2, -z+1/2'
23 'x+1/2, y+1/2, -z+1/2'
24 '-x+1/2, -y+1/2, -z+1/2'
25 '-y+1/2, -x+1/2, z+1/2'
26 'y+1/2, x+1/2, z+1/2'
27 'y+1/2, -x+1/2, z+1/2'
28 '-y+1/2, x+1/2, z+1/2'
29 'x+1/2, -y+1/2, z+1/2'
30 '-x+1/2, y+1/2, z+1/2'
31 '-x+1/2, -y+1/2, z+1/2'
32 'x+1/2, y+1/2, z+1/2'
loop_
_atom_type_symbol
_atom_type_oxidation_number
Sr2+ 2
Nb5+ 5
Fe3+ 3
Nb5+ 5
O2- -2
Li1+ 1
loop_
_atom_site_label
_atom_site_type_symbol
_atom_site_symmetry_multiplicity
_atom_site_Wyckoff_symbol
_atom_site_fract_x
_atom_site_fract_y
_atom_site_fract_z
_atom_site_B_iso_or_equiv
_atom_site_occupancy
_atom_site_attached_hydrogens
Sr1 Sr2+ 4 e 0.5 0.5 0.07907(2) . 0.7536(32) 0
Nb1 Nb5+ 2 a 0 0 0 . 0.878(11) 0
Fe1 Fe3+ 2 a 0 0 0 . 0.120(11) 0
Nb2 Nb5+ 4 e 0 0 0.15735(1) . 1. 0
O1 O2- 4 e 0 0 0.2287(1) . 1. 0
O2 O2- 8 g 0 0.5 0.1502(1) . 1. 0
O3 O2- 4 e 0 0 0.0754(1) . 1. 0
O4 O2- 8 j 0.060(1) 0.5 0 . 0.5 0
Li1 Li1+ 4 d 0 0.5 0.75 0.0238(22) 1. 0
loop_
_atom_site_aniso_label
_atom_site_aniso_type_symbol
_atom_site_aniso_U_11
_atom_site_aniso_U_22
_atom_site_aniso_U_33
_atom_site_aniso_U_12
_atom_site_aniso_U_13
_atom_site_aniso_U_23
Sr1 Sr2+ 0.0076(1) 0.0076(1) 0.0095(1) 0 0 0
Nb1 Nb5+ 0.0071(1) 0.0071(1) 0.0071(1) 0 0 0
Fe1 Fe3+ 0.0071(1) 0.0071(1) 0.0071(1) 0 0 0
Nb2 Nb5+ 0.0078(1) 0.0078(1) 0.0081(1) 0 0 0
O1 O2- 0.0127(6) 0.0127(6) 0.0085(8) 0 0 0
O2 O2- 0.0127(7) 0.0056(5) 0.0233(9) 0 0 0
O3 O2- 0.0263(12) 0.0263(12) 0.0059(9) 0 0 0
O4 O2- 0.0145(18) 0.0067(11) 0.0214(15) 0 0 0
#End of TTdata_87823-ICSD