
#(C) 2018 by FIZ Karlsruhe - Leibniz Institute for Information Infrastructure.  All rights reserved.
data_91269-ICSD
_database_code_ICSD 91269
_audit_creation_date 2002-10-01
_audit_update_record 2005-10-01
_chemical_name_systematic 'Lithium indium bis(molybdate) - LT'
_chemical_formula_structural 'Li In (Mo O4)2'
_chemical_formula_sum 'In1 Li1 Mo2 O8'
_chemical_name_structure_type Wodginite
_exptl_crystal_density_diffrn 5.4
_publ_section_title
'Vibrational and X-ray studies of the polymorphic forms of Li In (Mo O4)2'
loop_
_citation_id
_citation_journal_full
_citation_year
_citation_journal_volume
_citation_page_first
_citation_page_last
_citation_journal_id_ASTM
primary 'Journal of Solid State Chemistry' 2000 154 498 506 JSSCBI
loop_
_publ_author_name
'Maczka, M.'
'Hanuza, J.'
'Pietraszko, A.'
_cell_length_a 9.504(2)
_cell_length_b 11.459(2)
_cell_length_c 4.994(1)
_cell_angle_alpha 90.
_cell_angle_beta 91.49(3)
_cell_angle_gamma 90.
_cell_volume 543.69
_cell_formula_units_Z 4
_symmetry_space_group_name_H-M 'C 1 2/c 1'
_symmetry_Int_Tables_number 15
_refine_ls_R_factor_all 0.041
loop_
_symmetry_equiv_pos_site_id
_symmetry_equiv_pos_as_xyz
1 'x, -y, z+1/2'
2 '-x, -y, -z'
3 '-x, y, -z+1/2'
4 'x, y, z'
5 'x+1/2, -y+1/2, z+1/2'
6 '-x+1/2, -y+1/2, -z'
7 '-x+1/2, y+1/2, -z+1/2'
8 'x+1/2, y+1/2, z'
loop_
_atom_type_symbol
_atom_type_oxidation_number
In3+ 3
Mo6+ 6
Li1+ 1
O2- -2
loop_
_atom_site_label
_atom_site_type_symbol
_atom_site_symmetry_multiplicity
_atom_site_Wyckoff_symbol
_atom_site_fract_x
_atom_site_fract_y
_atom_site_fract_z
_atom_site_B_iso_or_equiv
_atom_site_occupancy
_atom_site_attached_hydrogens
In1 In3+ 4 e 0 0.9072(1) 0.25 0.004(1) 1. 0
Mo1 Mo6+ 8 f 0.2681(1) 0.8425(1) 0.7504(1) 0.003(1) 1. 0
Li1 Li1+ 4 e 0.5 0.9071(18) 0.25 0.038(5) 1. 0
O1 O2- 8 f 0.1227(2) 0.9358(2) 0.6107(4) 0.005(1) 1. 0
O2 O2- 8 f 0.3529(2) 0.7000(2) -.0666(4) 0.006(1) 1. 0
O3 O2- 8 f 0.3620(2) 0.8065(2) 0.4575(4) 0.006(1) 1. 0
O4 O2- 8 f 0.3756(2) 0.9414(2) -.0925(4) 0.008(1) 1. 0
#End of TTdata_91269-ICSD