
#(C) 2018 by FIZ Karlsruhe - Leibniz Institute for Information Infrastructure.  All rights reserved.
data_91981-ICSD
_database_code_ICSD 91981
_audit_creation_date 2002-10-01
_chemical_name_systematic
'Yttrium barium copper lithium oxide (1/2/2.91/0.09/6.89)'
_chemical_formula_structural 'Y Ba2 Cu2.91 Li0.09 O6.89'
_chemical_formula_sum 'Ba2 Cu2.91 Li0.09 O6.89 Y1'
_chemical_name_structure_type YBa2Cu3O6+x(orh)
_exptl_crystal_density_diffrn 6.32
_cell_measurement_temperature 300.
_publ_section_title 'Local structural changes in lithium-doped Y Ba2 Cu3 Oy'
loop_
_citation_id
_citation_journal_full
_citation_year
_citation_journal_volume
_citation_page_first
_citation_page_last
_citation_journal_id_ASTM
primary 'Physica C, Superconductivity' 2000 333 121 132 PHYCE6
loop_
_publ_author_name
'Maury, F.'
'Nicolas-Francillon, M.'
'Bouree, F.'
'Ollitrault-Fichet, R.'
'Nanot, M.'
_cell_length_a 3.8198(1)
_cell_length_b 3.8847(1)
_cell_length_c 11.6734(3)
_cell_angle_alpha 90.
_cell_angle_beta 90.
_cell_angle_gamma 90.
_cell_volume 173.22
_cell_formula_units_Z 1
_symmetry_space_group_name_H-M 'P m m m'
_symmetry_Int_Tables_number 47
_refine_ls_R_factor_all 0.027
loop_
_symmetry_equiv_pos_site_id
_symmetry_equiv_pos_as_xyz
1 'x, -y, z'
2 '-x, y, z'
3 'x, y, -z'
4 '-x, -y, -z'
5 '-x, y, -z'
6 'x, -y, -z'
7 '-x, -y, z'
8 'x, y, z'
loop_
_atom_type_symbol
_atom_type_oxidation_number
Y3+ 3
Ba2+ 2
Cu2+ 2.299
Li1+ 1
O2- -2
loop_
_atom_site_label
_atom_site_type_symbol
_atom_site_symmetry_multiplicity
_atom_site_Wyckoff_symbol
_atom_site_fract_x
_atom_site_fract_y
_atom_site_fract_z
_atom_site_B_iso_or_equiv
_atom_site_occupancy
_atom_site_attached_hydrogens
Y1 Y3+ 1 h 0.5 0.5 0.5 0.52(3) 1. 0
Ba1 Ba2+ 2 t 0.5 0.5 0.1845(2) 0.42(3) 1. 0
Cu1 Cu2+ 1 a 0 0 0 0.47(3) 1. 0
Cu2 Cu2+ 2 q 0 0 0.3562(1) 0.39(3) 0.955(5) 0
Li1 Li1+ 2 q 0 0 0.3562(1) 0.39(3) 0.045(5) 0
O1 O2- 2 q 0 0 0.1582(2) 0.66(4) 0.955(10) 0
O2 O2- 2 s 0.5 0 0.3782(2) 0.62(3) 1. 0
O3 O2- 2 r 0 0.5 0.3778(2) 0.48(3) 1. 0
O4 O2- 2 k 0.032(2) 0.5 0 0.87(9) 0.480(5) 0
O5 O2- 2 o 0.5 0.032(2) 0 . 0.010(5) 0
#End of TTdata_91981-ICSD