
#(C) 2018 by FIZ Karlsruhe - Leibniz Institute for Information Infrastructure.  All rights reserved.
data_93087-ICSD
_database_code_ICSD 93087
_audit_creation_date 2003-04-01
_chemical_name_systematic 'Lithium gallate'
_chemical_formula_structural 'Li (Ga O2)'
_chemical_formula_sum 'Ga1 Li1 O2'
_chemical_name_structure_type NaFeO2(beta)
_exptl_crystal_density_diffrn 4.2
_publ_section_title 'Structure and properties of Li Ga O2 crystals'
loop_
_citation_id
_citation_journal_full
_citation_year
_citation_journal_volume
_citation_page_first
_citation_page_last
_citation_journal_id_ASTM
primary 'Inorganic Materials' 2001 37 281 285 INOMAF
loop_
_publ_author_name
'Kuz'micheva, G.M. (Kuzmicheva, G.M.)'
'Rybakov, V.B.'
'Gaister, A.V.'
'Zharikov, E.V.'
_cell_length_a 5.395(1)
_cell_length_b 6.367(2)
_cell_length_c 5.005(1)
_cell_angle_alpha 90
_cell_angle_beta 90
_cell_angle_gamma 90
_cell_volume 171.92
_cell_formula_units_Z 4
_symmetry_space_group_name_H-M 'P n a 21'
_symmetry_Int_Tables_number 33
_refine_ls_R_factor_all 0.039
loop_
_symmetry_equiv_pos_site_id
_symmetry_equiv_pos_as_xyz
1 'x+1/2, -y+1/2, z'
2 '-x+1/2, y+1/2, z+1/2'
3 '-x, -y, z+1/2'
4 'x, y, z'
loop_
_atom_type_symbol
_atom_type_oxidation_number
Ga3+ 3
Li1+ 1
O2- -2
loop_
_atom_site_label
_atom_site_type_symbol
_atom_site_symmetry_multiplicity
_atom_site_Wyckoff_symbol
_atom_site_fract_x
_atom_site_fract_y
_atom_site_fract_z
_atom_site_B_iso_or_equiv
_atom_site_occupancy
_atom_site_attached_hydrogens
Ga1 Ga3+ 4 a 0.08226(5) 0.12627(4) 0 0.0052(1) 1. 0
Li1 Li1+ 4 a 0.418(1) 0.128(1) 0.510(7) 0.011(2) 1. 0
O1 O2- 4 a 0.4069(5) 0.1376(4) 0.8937(5) 0.0072(7) 1. 0
O2 O2- 4 a 0.0682(5) 0.1117(4) 0.3695(6) 0.0064(6) 1. 0
loop_
_atom_site_aniso_label
_atom_site_aniso_type_symbol
_atom_site_aniso_U_11
_atom_site_aniso_U_22
_atom_site_aniso_U_33
_atom_site_aniso_U_12
_atom_site_aniso_U_13
_atom_site_aniso_U_23
Ga1 Ga3+ 0.0069(1) 0.0044(1) 0.0043(1) 0.00002(7) 0.0004(1) 0.0013(2)
Li1 Li1+ 0.012(2) 0.009(2) 0.011(5) -0.003(2) -0.005(3) 0.001(1)
O1 O2- 0.0070(9) 0.0068(9) 0.008(1) -0.0017(5) 0.0008(6) -0.0026(6)
O2 O2- 0.0089(9) 0.0053(9) 0.0050(9) -0.0016(6) 0.0013(4) 0.0012(5)
#End of TTdata_93087-ICSD