
#(C) 2018 by FIZ Karlsruhe - Leibniz Institute for Information Infrastructure.  All rights reserved.
data_93540-ICSD
_database_code_ICSD 93540
_audit_creation_date 2003-04-01
_audit_update_record 2006-10-01
_chemical_name_systematic
'Dilithium tetrabismuth dititanium(III) titanium oxide'
_chemical_formula_structural 'Li2 Bi4 Ti3 O12'
_chemical_formula_sum 'Bi4 Li2 O12 Ti3'
_exptl_crystal_density_diffrn 8.16
_cell_measurement_temperature 297.
_publ_section_title

;
Neutron diffraction and X-ray absorption spectroscopic analyses for lithiated
Aurivillius-type layered perovskite oxide, Li2 Bi4 Ti3 O12
;
loop_
_citation_id
_citation_journal_full
_citation_year
_citation_journal_volume
_citation_page_first
_citation_page_last
_citation_journal_id_ASTM
primary 'Journal of Physical Chemistry B' 2001 105 7908 7912 JPCBFK
loop_
_publ_author_name
'Choy, J.-H.'
'Kim, J.-Y.'
'Chung, I.'
_cell_length_a 5.4091(5)
_cell_length_b 32.785(3)
_cell_length_c 5.4428(5)
_cell_angle_alpha 90.
_cell_angle_beta 90.
_cell_angle_gamma 90.
_cell_volume 965.21
_cell_formula_units_Z 4
_symmetry_space_group_name_H-M 'A b a 2'
_symmetry_Int_Tables_number 41
_refine_ls_R_factor_all 0.016
loop_
_symmetry_equiv_pos_site_id
_symmetry_equiv_pos_as_xyz
1 'x+1/2, -y+1/2, z'
2 '-x+1/2, y+1/2, z'
3 '-x, -y, z'
4 'x, y, z'
5 'x+1/2, -y, z+1/2'
6 '-x+1/2, y, z+1/2'
7 '-x, -y+1/2, z+1/2'
8 'x, y+1/2, z+1/2'
loop_
_atom_type_symbol
_atom_type_oxidation_number
Li1+ 1
Bi3+ 3
Ti3+ 3.333
O2- -2
loop_
_atom_site_label
_atom_site_type_symbol
_atom_site_symmetry_multiplicity
_atom_site_Wyckoff_symbol
_atom_site_fract_x
_atom_site_fract_y
_atom_site_fract_z
_atom_site_B_iso_or_equiv
_atom_site_occupancy
_atom_site_attached_hydrogens
Li1 Li1+ 8 b 0.231(6) 0.3004(7) 0.227(6) 0.63(9) 1. 0
Bi1 Bi3+ 8 b 0.974(1) 0.0663(2) 0 0.70(9) 1. 0
Bi2 Bi3+ 8 b 0.008(2) 0.2134(2) 0.006(2) 0.70(9) 1. 0
Ti1 Ti3+ 4 a 0 0.5 0.064(4) 0.1(3) 1. 0
Ti2 Ti3+ 8 b -0.054(4) 0.3680(4) -0.044(3) 0.1(3) 1. 0
O1 O2- 8 b 0.204(2) 0.0089(2) 0.238(3) 0.56(9) 1. 0
O2 O2- 8 b 0.277(2) 0.2461(3) 0.248(3) 0.56(9) 1. 0
O3 O2- 8 b 0.048(2) 0.4365(2) 0.076(2) 0.56(9) 1. 0
O4 O2- 8 b 0.959(2) 0.3179(2) 0.047(3) 0.56(9) 1. 0
O5 O2- 8 b 0.290(2) 0.1150(2) 0.280(3) 0.56(9) 1. 0
O6 O2- 8 b 0.197(2) 0.8661(3) 0.180(2) 0.56(9) 1. 0
#End of TTdata_93540-ICSD