
#(C) 2017 by FIZ Karlsruhe - Leibniz Institute for Information Infrastructure.  All rights reserved.
data_9433-ICSD
_database_code_ICSD 9433
_audit_creation_date 1980-01-01
_chemical_name_systematic 'Ammonium lithium tetrafluoroberyllate'
_chemical_formula_structural '(N H4) Li Be F4'
_chemical_formula_sum 'H4 Be1 F4 Li1 N1'
_exptl_crystal_density_diffrn 1.78
_publ_section_title
'Tetrahedral-framework structures of (N H4) Li Be F4 and Cs Li Be F4'
loop_
_citation_id
_citation_journal_full
_citation_year
_citation_journal_volume
_citation_page_first
_citation_page_last
_citation_journal_id_ASTM
primary 'Materials Research Bulletin' 1972 7 1209 1218 MRBUAC
loop_
_publ_author_name
'Chung, S.J.'
'Hahn, T.'
_cell_length_a 9.022(1)
_cell_length_b 5.288(1)
_cell_length_c 8.623(1)
_cell_angle_alpha 90.
_cell_angle_beta 90.
_cell_angle_gamma 90.
_cell_volume 411.39
_cell_formula_units_Z 4
_symmetry_space_group_name_H-M 'P c a 21'
_symmetry_Int_Tables_number 29
_refine_ls_R_factor_all 0.026
loop_
_symmetry_equiv_pos_site_id
_symmetry_equiv_pos_as_xyz
1 'x+1/2, -y, z'
2 '-x+1/2, y, z+1/2'
3 '-x, -y, z+1/2'
4 'x, y, z'
loop_
_atom_type_symbol
_atom_type_oxidation_number
N3- -3
H1+ 1
Li1+ 1
Be2+ 2
F1- -1
loop_
_atom_site_label
_atom_site_type_symbol
_atom_site_symmetry_multiplicity
_atom_site_Wyckoff_symbol
_atom_site_fract_x
_atom_site_fract_y
_atom_site_fract_z
_atom_site_B_iso_or_equiv
_atom_site_occupancy
_atom_site_attached_hydrogens
N1 N3- 4 a 0.2259(7) 0.4952(27) 0.5004(11) 1.5 1. 0
H1 H1+ 4 a 0.318(7) 0.422(23) 0.512(15) 2. 1. 0
H2 H1+ 4 a 0.248(11) 0.660(19) 0.522(17) 3. 1. 0
H3 H1+ 4 a 0.175(7) 0.350(17) 0.407(10) 1.5 1. 0
H4 H1+ 4 a 0.163(7) 0.488(20) 0.589(9) 1.2 1. 0
Li1 Li1+ 4 a 0.4192(19) -.0029(40) 0.3115(12) 2.4 1. 0
Be1 Be2+ 4 a 0.0825(15) 0 0.2024(9) 0.7 1. 0
F1 F1- 4 a 0.0853(5) 0.0032(27) 0.0252(5) 3.3 1. 0
F2 F1- 4 a 0.4543(4) 0.3260(23) 0.2436(8) 2.1 1. 0
F3 F1- 4 a 0.0596(5) 0.2722(24) 0.2624(8) 1.9 1. 0
F4 F1- 4 a 0.2300(4) 0.8893(23) 0.2585(9) 2.2 1. 0
#End of TTdata_9433-ICSD