
#(C) 2018 by FIZ Karlsruhe - Leibniz Institute for Information Infrastructure.  All rights reserved.
data_94538-ICSD
_database_code_ICSD 94538
_audit_creation_date 2003-10-01
_chemical_name_systematic 'Nonacalcium manganese lithium heptakis(phosphate(V))'
_chemical_formula_structural 'Ca9 Mn Li (P O4)7'
_chemical_formula_sum 'Ca9 Li1 Mn1 O28 P7'
_chemical_name_structure_type Ca9MgNa(PO4)7
_exptl_crystal_density_diffrn 3.14
_publ_section_title

;
Synthesis, structure and luminescence properties of Ca9 Mn M (P O4)7 (M = Li,
Na, K)
;
loop_
_citation_id
_citation_journal_full
_citation_year
_citation_journal_volume
_citation_page_first
_citation_page_last
_citation_journal_id_ASTM
primary 'Zhurnal Neorganicheskoi Khimii' 2001 46 885 892 ZNOKAQ
loop_
_publ_author_name
'Belik, A.A.'
'Gutan, V.B.'
'Ivanov, L.N.'
'Lazoryak, B.I.'
_cell_length_a 10.3554(2)
_cell_length_b 10.3554(2)
_cell_length_c 37.133(2)
_cell_angle_alpha 90
_cell_angle_beta 90
_cell_angle_gamma 120
_cell_volume 3448.45
_cell_formula_units_Z 6
_symmetry_space_group_name_H-M 'R 3 c H'
_symmetry_Int_Tables_number 161
_refine_ls_R_factor_all 0.0181
loop_
_symmetry_equiv_pos_site_id
_symmetry_equiv_pos_as_xyz
1 '-x+y, y, z+1/2'
2 'x, x-y, z+1/2'
3 '-y, -x, z+1/2'
4 '-x+y, -x, z'
5 '-y, x-y, z'
6 'x, y, z'
7 '-x+y+2/3, y+1/3, z+5/6'
8 'x+2/3, x-y+1/3, z+5/6'
9 '-y+2/3, -x+1/3, z+5/6'
10 '-x+y+2/3, -x+1/3, z+1/3'
11 '-y+2/3, x-y+1/3, z+1/3'
12 'x+2/3, y+1/3, z+1/3'
13 '-x+y+1/3, y+2/3, z+1/6'
14 'x+1/3, x-y+2/3, z+1/6'
15 '-y+1/3, -x+2/3, z+1/6'
16 '-x+y+1/3, -x+2/3, z+2/3'
17 '-y+1/3, x-y+2/3, z+2/3'
18 'x+1/3, y+2/3, z+2/3'
loop_
_atom_type_symbol
_atom_type_oxidation_number
Ca2+ 2
Li1+ 1
Mn2+ 2
P5+ 5
O2- -2
loop_
_atom_site_label
_atom_site_type_symbol
_atom_site_symmetry_multiplicity
_atom_site_Wyckoff_symbol
_atom_site_fract_x
_atom_site_fract_y
_atom_site_fract_z
_atom_site_B_iso_or_equiv
_atom_site_occupancy
_atom_site_attached_hydrogens
Ca1 Ca2+ 18 b 0.7271(4) 0.8589(5) 0.4326(2) 0.25(7) 1. 0
Ca2 Ca2+ 18 b 0.6178(3) 0.8247(5) 0.2319(2) 0.00(8) 1. 0
Ca3 Ca2+ 18 b 0.1231(4) 0.2690(3) 0.3256(2) 0.81(7) 1. 0
Li1 Li1+ 6 a 0 0 0.174(1) 3.(1) 1. 0
Mn1 Mn2+ 6 a 0 0 0 0.41(8) 1. 0
P1 P5+ 6 a 0 0 0.2661(2) 2.5(2) 1. 0
P2 P5+ 18 b 0.6872(4) 0.8581(6) 0.1348(2) 0.4(1) 1. 0
P3 P5+ 18 b 0.6527(6) 0.8489(6) 0.0323(2) 0.7(1) 1. 0
O1 O2- 6 a 0 0 0.3099(4) 0.24(5) 1. 0
O2 O2- 18 b 0.005(1) 0.8625(8) 0.2538(4) 0.24(5) 1. 0
O3 O2- 18 b 0.7484(9) 0.9241(8) 0.1741(3) 0.24(5) 1. 0
O4 O2- 18 b 0.749(1) 0.768(1) 0.1214(3) 0.24(5) 1. 0
O5 O2- 18 b 0.724(1) 0.007(1) 0.1134(3) 0.24(5) 1. 0
O6 O2- 18 b 0.518(1) 0.765(2) 0.1313(4) 0.24(5) 1. 0
O7 O2- 18 b 0.605(1) 0.947(1) 0.0465(3) 0.24(5) 1. 0
O8 O2- 18 b 0.566(1) 0.694(1) 0.0524(3) 0.24(5) 1. 0
O9 O2- 18 b 0.821(1) 0.923(1) 0.0410(3) 0.24(5) 1. 0
O10 O2- 18 b 0.6206(8) 0.816(1) 0.9922(3) 0.24(5) 1. 0
#End of TTdata_94538-ICSD