
#(C) 2018 by FIZ Karlsruhe - Leibniz Institute for Information Infrastructure.  All rights reserved.
data_94543-ICSD
_database_code_ICSD 94543
_audit_creation_date 2003-10-01
_chemical_name_systematic 'Lithium thallium dineodymium tetrakis(molybdate)'
_chemical_formula_structural 'Li Tl Nd2 (Mo O4)4'
_chemical_formula_sum 'Li1 Mo4 Nd2 O16 Tl1'
_chemical_name_structure_type Li3Ba2Tm3(MoO4)8
_exptl_crystal_density_diffrn 5.62
_cell_measurement_temperature 297.
_publ_section_title

;
Crystal structure and luminescence properties of ternary molybdates Li M Nd2
(Mo O4)4 (M = K, Rb, Tl)
;
loop_
_citation_id
_citation_journal_full
_citation_year
_citation_journal_volume
_citation_page_first
_citation_page_last
_citation_journal_id_ASTM
primary 'Zhurnal Neorganicheskoi Khimii' 2001 46 977 982 ZNOKAQ
loop_
_publ_author_name
'Morozov, V.A.'
'Lazoryak, B.I.'
'Smirnov, V.A.'
'Mikhailin, V.V.'
'Basovich, O.M.'
'Khaikina, E.G.'
_cell_length_a 5.3131(1)
_cell_length_b 12.937(1)
_cell_length_c 19.617(1)
_cell_angle_alpha 90
_cell_angle_beta 92.625(1)
_cell_angle_gamma 90
_cell_volume 1346.97
_cell_formula_units_Z 4
_symmetry_space_group_name_H-M 'C 1 2/c 1'
_symmetry_Int_Tables_number 15
_refine_ls_R_factor_all 0.0094
loop_
_symmetry_equiv_pos_site_id
_symmetry_equiv_pos_as_xyz
1 'x, -y, z+1/2'
2 '-x, -y, -z'
3 '-x, y, -z+1/2'
4 'x, y, z'
5 'x+1/2, -y+1/2, z+1/2'
6 '-x+1/2, -y+1/2, -z'
7 '-x+1/2, y+1/2, -z+1/2'
8 'x+1/2, y+1/2, z'
loop_
_atom_type_symbol
_atom_type_oxidation_number
Nd3+ 3
Tl1+ 1
Li1+ 1
Mo6+ 6
O2- -2
loop_
_atom_site_label
_atom_site_type_symbol
_atom_site_symmetry_multiplicity
_atom_site_Wyckoff_symbol
_atom_site_fract_x
_atom_site_fract_y
_atom_site_fract_z
_atom_site_B_iso_or_equiv
_atom_site_occupancy
_atom_site_attached_hydrogens
Nd1 Nd3+ 8 f 0.4995(4) 0.3525(2) 0.0345(1) 0.3(1) 1. 0
Tl1 Tl1+ 4 e 0 0.9665(2) 0.25 1.7(1) 1. 0
Li1 Li1+ 4 e 0 0.686(7) 0.25 2. 1. 0
Mo1 Mo6+ 8 f 0.0116(5) 0.2550(2) 0.1497(1) 0.2(1) 1. 0
Mo2 Mo6+ 8 f 0.5084(6) 0.0622(3) 0.0917(1) 0.3(1) 1. 0
O1 O2- 8 f 0.766(3) 0.341(2) 0.1365(8) 0.4(2) 1. 0
O2 O2- 8 f 0.869(3) 0.147(1) 0.1697(9) 0.4(2) 1. 0
O3 O2- 8 f 0.251(4) 0.294(1) 0.2102(9) 0.4(2) 1. 0
O4 O2- 8 f 0.178(3) 0.247(1) 0.0663(7) 0.4(2) 1. 0
O5 O2- 8 f 0.255(3) 0.020(1) 0.0407(8) 0.6(2) 1. 0
O6 O2- 8 f 0.708(4) 0.969(1) 0.0969(9) 0.6(2) 1. 0
O7 O2- 8 f 0.378(3) 0.090(1) 0.1727(9) 0.6(2) 1. 0
O8 O2- 8 f 0.665(3) 0.173(1) 0.0489(8) 0.6(2) 1. 0
#End of TTdata_94543-ICSD