
#(C) 2018 by FIZ Karlsruhe - Leibniz Institute for Information Infrastructure.  All rights reserved.
data_95981-ICSD
_database_code_ICSD 95981
_audit_creation_date 2004-04-01
_chemical_name_systematic 'Lithium titanium phosphate(V) (3.18/2/3)'
_chemical_formula_structural 'Li3.18 Ti2 (P O4)3'
_chemical_formula_sum 'Li3.18 O12 P3 Ti2'
_exptl_crystal_density_diffrn 2.88
_cell_measurement_temperature 300.
_publ_section_title 'On the structure of Li3 Ti2 (P O4)3'
loop_
_citation_id
_citation_journal_full
_citation_year
_citation_journal_volume
_citation_page_first
_citation_page_last
_citation_journal_id_ASTM
primary 'Journal of Materials Chemistry' 2002 12 2971 2978 JMACEP
loop_
_publ_author_name
'Aatiq, A.'
'Menetrier, M.'
'Croguennec, L.'
'Suard, E.'
'Delmas, C.'
_cell_length_a 8.3828(6)
_cell_length_b 8.3828(6)
_cell_length_c 22.873(2)
_cell_angle_alpha 90
_cell_angle_beta 90
_cell_angle_gamma 120
_cell_volume 1391.98
_cell_formula_units_Z 6
_symmetry_space_group_name_H-M 'R -3 H'
_symmetry_Int_Tables_number 148
_refine_ls_R_factor_all 0.045
loop_
_symmetry_equiv_pos_site_id
_symmetry_equiv_pos_as_xyz
1 'x-y, x, -z'
2 'y, -x+y, -z'
3 '-x, -y, -z'
4 '-x+y, -x, z'
5 '-y, x-y, z'
6 'x, y, z'
7 'x-y+2/3, x+1/3, -z+1/3'
8 'y+2/3, -x+y+1/3, -z+1/3'
9 '-x+2/3, -y+1/3, -z+1/3'
10 '-x+y+2/3, -x+1/3, z+1/3'
11 '-y+2/3, x-y+1/3, z+1/3'
12 'x+2/3, y+1/3, z+1/3'
13 'x-y+1/3, x+2/3, -z+2/3'
14 'y+1/3, -x+y+2/3, -z+2/3'
15 '-x+1/3, -y+2/3, -z+2/3'
16 '-x+y+1/3, -x+2/3, z+2/3'
17 '-y+1/3, x-y+2/3, z+2/3'
18 'x+1/3, y+2/3, z+2/3'
loop_
_atom_type_symbol
_atom_type_oxidation_number
Li1+ 1
Ti2+ 2.91
P5+ 5
O2- -2
loop_
_atom_site_label
_atom_site_type_symbol
_atom_site_symmetry_multiplicity
_atom_site_Wyckoff_symbol
_atom_site_fract_x
_atom_site_fract_y
_atom_site_fract_z
_atom_site_B_iso_or_equiv
_atom_site_occupancy
_atom_site_attached_hydrogens
Li1 Li1+ 18 f 0.03 0.319 0.045 1.2 0.72 0
Li2 Li1+ 18 f 0.055 0.373 0.117 1.2 0.34 0
Ti1 Ti2+ 6 c 0 0 0.1447(2) 0.23(1) 1. 0
Ti2 Ti2+ 6 c 0 0 0.3470(2) -0.07(1) 1. 0
P1 P5+ 18 f 0.2904(4) -0.0027(7) 0.2510(2) 0.40(5) 1. 0
O1 O2- 18 f 0.1620(9) 0.2187(8) 0.0896(3) 1.2(2) 1. 0
O2 O2- 18 f 0.123(1) 0.228(7) 0.398(2) 0.9(1) 1. 0
O3 O2- 18 f 0.192(1) 0.988(1) 0.192(3) 1.2(2) 1. 0
O4 O2- 18 f 0.904(1) 0.147(1) 0.299(2) 1.2(2) 1. 0
#End of TTdata_95981-ICSD