
#(C) 2018 by FIZ Karlsruhe - Leibniz Institute for Information Infrastructure.  All rights reserved.
data_96485-ICSD
_database_code_ICSD 96485
_audit_creation_date 2004-04-01
_chemical_name_systematic 'Lithium carbonate - HP'
_chemical_formula_structural 'Li2 (C O3)'
_chemical_formula_sum 'C1 Li2 O3'
_exptl_crystal_density_diffrn 2.78
_cell_measurement_pressure 10000000.
_publ_section_title 'High-pressure structure of Li2 C O3'
loop_
_citation_id
_citation_journal_full
_citation_year
_citation_journal_volume
_citation_page_first
_citation_page_last
_citation_journal_id_ASTM
primary 'Journal of Solid State Chemistry' 2003 173 13 19 JSSCBI
loop_
_publ_author_name
'Grzechnik, A.'
'Bouvier, P.'
'Farina, L.'
_cell_length_a 4.4568(2)
_cell_length_b 4.4568(2)
_cell_length_c 5.1254(6)
_cell_angle_alpha 90
_cell_angle_beta 90
_cell_angle_gamma 120
_cell_volume 88.17
_cell_formula_units_Z 2
_symmetry_space_group_name_H-M 'P 63/m c m'
_symmetry_Int_Tables_number 193
_refine_ls_R_factor_all 0.0138
loop_
_symmetry_equiv_pos_site_id
_symmetry_equiv_pos_as_xyz
1 '-x, -x+y, -z+1/2'
2 'x-y, -y, -z+1/2'
3 'y, x, -z+1/2'
4 '-x+y, -x, -z+1/2'
5 '-y, x-y, -z+1/2'
6 'x, y, -z+1/2'
7 'x, x-y, z+1/2'
8 '-x+y, y, z+1/2'
9 '-y, -x, z+1/2'
10 'x-y, x, z+1/2'
11 'y, -x+y, z+1/2'
12 '-x, -y, z+1/2'
13 'x, x-y, -z'
14 '-x+y, y, -z'
15 '-y, -x, -z'
16 'x-y, x, -z'
17 'y, -x+y, -z'
18 '-x, -y, -z'
19 '-x, -x+y, z'
20 'x-y, -y, z'
21 'y, x, z'
22 '-x+y, -x, z'
23 '-y, x-y, z'
24 'x, y, z'
loop_
_atom_type_symbol
_atom_type_oxidation_number
Li1+ 1
C4+ 4
O2- -2
loop_
_atom_site_label
_atom_site_type_symbol
_atom_site_symmetry_multiplicity
_atom_site_Wyckoff_symbol
_atom_site_fract_x
_atom_site_fract_y
_atom_site_fract_z
_atom_site_B_iso_or_equiv
_atom_site_occupancy
_atom_site_attached_hydrogens
Li1 Li1+ 4 d 0.3333 0.6667 0 0.015 1. 0
C1 C4+ 2 a 0 0 0.25 0.015 1. 0
O1 O2- 6 g 0.2911(4) 0 0.25 0.015 1. 0
#End of TTdata_96485-ICSD