
#(C) 2018 by FIZ Karlsruhe - Leibniz Institute for Information Infrastructure.  All rights reserved.
data_9668-ICSD
_database_code_ICSD 9668
_audit_creation_date 1980-01-01
_audit_update_record 1999-01-19
_chemical_name_systematic 'Lithium aluminium catena-disilicate'
_chemical_formula_structural 'Li Al (Si2 O6)'
_chemical_formula_sum 'Al1 Li1 O6 Si2'
_chemical_name_structure_type Pyroxene-CaMg(SiO3)2
_chemical_name_mineral Spodumene
_exptl_crystal_density_diffrn 3.19
_publ_section_title

;
Crystal-chemical characterization of clinopyroxenes based on eight new
structure refinements
;
loop_
_citation_id
_citation_journal_full
_citation_year
_citation_journal_volume
_citation_page_first
_citation_page_last
_citation_journal_id_ASTM
primary 'Mineralogical Society of America, Special Paper' 1969 2 31 50 MSAPAX
loop_
_publ_author_name
'Clark, J.R.'
'Appleman, D.E.'
'Papike, J.J.'
_cell_length_a 9.449(3)
_cell_length_b 8.386(1)
_cell_length_c 5.215(2)
_cell_angle_alpha 90.
_cell_angle_beta 110.10(2)
_cell_angle_gamma 90.
_cell_volume 388.06
_cell_formula_units_Z 4
_symmetry_space_group_name_H-M 'C 1 2/c 1'
_symmetry_Int_Tables_number 15
_refine_ls_R_factor_all 0.031
loop_
_symmetry_equiv_pos_site_id
_symmetry_equiv_pos_as_xyz
1 'x, -y, z+1/2'
2 '-x, -y, -z'
3 '-x, y, -z+1/2'
4 'x, y, z'
5 'x+1/2, -y+1/2, z+1/2'
6 '-x+1/2, -y+1/2, -z'
7 '-x+1/2, y+1/2, -z+1/2'
8 'x+1/2, y+1/2, z'
loop_
_atom_type_symbol
_atom_type_oxidation_number
Li1+ 1
Al3+ 3
Si4+ 4
O2- -2
loop_
_atom_site_label
_atom_site_type_symbol
_atom_site_symmetry_multiplicity
_atom_site_Wyckoff_symbol
_atom_site_fract_x
_atom_site_fract_y
_atom_site_fract_z
_atom_site_B_iso_or_equiv
_atom_site_occupancy
_atom_site_attached_hydrogens
Li1 Li1+ 4 e 0 0.2752(9) 0.25 . 1. 0
Al1 Al3+ 4 e 0 0.9066(1) 0.25 . 1. 0
Si1 Si4+ 8 f 0.29411(6) 0.09349(7) 0.2560(1) . 1. 0
O1 O2- 8 f 0.1099(2) 0.0823(2) 0.1402(3) . 1. 0
O2 O2- 8 f 0.3646(2) 0.2673(2) 0.3009(3) . 1. 0
O3 O2- 8 f 0.3565(2) -.0129(2) 0.0578(3) . 1. 0
loop_
_atom_site_aniso_label
_atom_site_aniso_type_symbol
_atom_site_aniso_beta_11
_atom_site_aniso_beta_22
_atom_site_aniso_beta_33
_atom_site_aniso_beta_12
_atom_site_aniso_beta_13
_atom_site_aniso_beta_23
Li1 Li1+ 0.0030(7) 0.0038(8) 0.0134(24) 0 0.0010(6) 0
Al1 Al3+ 0.00053(8) 0.00072(9) 0.0014(3) 0 0.0001(1) 0
Si1 Si4+ 0.00042(5) 0.00060(6) 0.0015(2) -.00018(5) 0.00030(7) -.00010(8)
O1 O2- 0.0006(1) 0.0011(2) 0.0018(4) -.0001(1) 0.0000(2) 0.0000(2)
O2 O2- 0.0014(1) 0.0012(2) 0.0064(5) -.00065(1) 0.0015(2) -.0003(2)
O3 O2- 0.0010(1) 0.0024(2) 0.0023(4) 0.0002(1) 0.0002(2) -.0012(2)
#End of TTdata_9668-ICSD