
#(C) 2017 by FIZ Karlsruhe - Leibniz Institute for Information Infrastructure.  All rights reserved.
data_96728-ICSD
_database_code_ICSD 96728
_audit_creation_date 2004-10-01
_chemical_name_systematic 'Yttrium lithium tetrafluoride - HP'
_chemical_formula_structural 'Y Li F4'
_chemical_formula_sum 'F4 Li1 Y1'
_chemical_name_structure_type YNbO4(mS24)
_exptl_crystal_density_diffrn 4.57
_cell_measurement_pressure 13300000.
_publ_section_title
'Scheelite to fergusonite phase transition in Y Li F4 at high pressures'
loop_
_citation_id
_citation_journal_full
_citation_year
_citation_journal_volume
_citation_page_first
_citation_page_last
_citation_journal_id_ASTM
primary 'Physical Review, Serie 3. B - Condensed Matter (18,1978-)' 2002 65
104102-1 104102-6 PRBMDO
loop_
_publ_author_name
'Grzechnik, A.'
'Syassen, K.'
'Loa, I.'
'Hanfland, M.'
'Gesland, J.Y.'
_cell_length_a 5.0416(3)
_cell_length_b 10.4174(9)
_cell_length_c 4.7808(4)
_cell_angle_alpha 90
_cell_angle_beta 95.279(6)
_cell_angle_gamma 90
_cell_volume 250.02
_cell_formula_units_Z 4
_symmetry_space_group_name_H-M 'I 1 2/a 1'
_symmetry_Int_Tables_number 15
_refine_ls_R_factor_all 0.012
loop_
_symmetry_equiv_pos_site_id
_symmetry_equiv_pos_as_xyz
1 'x+1/2, -y, z'
2 '-x, -y, -z'
3 '-x+1/2, y, -z'
4 'x, y, z'
5 'x, -y+1/2, z+1/2'
6 '-x+1/2, -y+1/2, -z+1/2'
7 '-x, y+1/2, -z+1/2'
8 'x+1/2, y+1/2, z+1/2'
loop_
_atom_type_symbol
_atom_type_oxidation_number
Y3+ 3
Li1+ 1
F1- -1
loop_
_atom_site_label
_atom_site_type_symbol
_atom_site_symmetry_multiplicity
_atom_site_Wyckoff_symbol
_atom_site_fract_x
_atom_site_fract_y
_atom_site_fract_z
_atom_site_B_iso_or_equiv
_atom_site_occupancy
_atom_site_attached_hydrogens
Y1 Y3+ 4 e 0.25 0.8790(3) 0 . 1. 0
Li1 Li1+ 4 e 0.25 0.362(4) 0 . 1. 0
F1 F1- 8 f 0.430(2) 0.0317(7) 0.756(1) . 1. 0
F2 F1- 8 f 0.937(1) 0.2962(77) 0.136(2) . 1. 0
#End of TTdata_96728-ICSD