
#(C) 2018 by FIZ Karlsruhe - Leibniz Institute for Information Infrastructure.  All rights reserved.
data_97702-ICSD
_database_code_ICSD 97702
_audit_creation_date 2004-10-01
_audit_update_record 2007-08-01
_chemical_name_systematic 'Dilithium tecto-dialumotetrasilicate dihydrate'
_chemical_formula_structural 'Li2 (Al2 Si4 O12) (H2 O)2'
_chemical_formula_sum 'H4 Al2 Li2 O14 Si4'
_chemical_name_structure_type Bikitaite-1A-frame
_chemical_name_mineral Bikitaite
_exptl_crystal_density_diffrn 2.29
_publ_section_title 'Effects of pressure on the structure of bikitaite'
loop_
_citation_id
_citation_journal_full
_citation_year
_citation_journal_volume
_citation_page_first
_citation_page_last
_citation_journal_id_ASTM
primary 'European Journal of Mineralogy' 2003 15 247 255 EJMIER
loop_
_publ_author_name
'Comodi, P.'
'Gatta, G.D.'
'Zanazzi, P.F.'
_cell_length_a 8.605(3)
_cell_length_b 4.957(2)
_cell_length_c 7.606(3)
_cell_angle_alpha 89.93(4)
_cell_angle_beta 114.40(4)
_cell_angle_gamma 89.85(3)
_cell_volume 295.45
_cell_formula_units_Z 1
_symmetry_space_group_name_H-M 'P 1'
_symmetry_Int_Tables_number 1
_refine_ls_R_factor_all 0.039
loop_
_symmetry_equiv_pos_site_id
_symmetry_equiv_pos_as_xyz
1 'x, y, z'
loop_
_atom_type_symbol
_atom_type_oxidation_number
Li1+ 1
Si4+ 4
Al3+ 3
O2- -2
H1+ 1
loop_
_atom_site_label
_atom_site_type_symbol
_atom_site_symmetry_multiplicity
_atom_site_Wyckoff_symbol
_atom_site_fract_x
_atom_site_fract_y
_atom_site_fract_z
_atom_site_B_iso_or_equiv
_atom_site_occupancy
_atom_site_attached_hydrogens
Li1 Li1+ 1 a 0.312(1) 0.363(2) 0.151(2) 0.022(2) 1. 0
Li2 Li1+ 1 a 0.702(1) 0.866(2) 0.878(2) 0.022(2) 1. 0
Si1 Si4+ 1 a 0.1072(2) 0.8644(3) 0.0990(2) 0.0093(2) 1. 0
Si2 Si4+ 1 a 0.1038 0.8006 0.5049 0.0099(2) 1. 0
Si3 Si4+ 1 a 0.8925(2) 0.2991(3) 0.4880(2) 0.0101(2) 1. 0
Si4 Si4+ 1 a 0.6197(2) 0.3747(3) 0.0648(2) 0.0084(2) 1. 0
Al1 Al3+ 1 a 0.3808(3) 0.8745(4) 0.9391(3) 0.0084(2) 1. 0
Al2 Al3+ 1 a 0.9003(2) 0.3647(4) 0.9086(3) 0.0095(2) 1. 0
O1 O2- 1 a 0.2643(5) 0.7405(7) 0.0616(5) 0.0133(6) 1. 0
O2 O2- 1 a 0.0864(5) 0.1824(7) 0.0456(5) 0.0132(6) 1. 0
O3 O2- 1 a 0.1599(6) 0.8286(9) 0.3287(6) 0.0196(7) 1. 0
O4 O2- 1 a 0.0553(5) 0.4858(8) 0.5144(7) 0.0212(8) 1. 0
O5 O2- 1 a 0.2612(6) 0.8924(9) 0.6956(6) 0.0196(7) 1. 0
O6 O2- 1 a 0.4524(5) 0.1965(7) 0.0311(5) 0.0127(6) 1. 0
O7 O2- 1 a 0.4089(8) 0.325(1) 0.4391(9) 0.031(1) 1. 0
O8 O2- 1 a 0.7316(4) 0.2447(7) 0.9588(5) 0.0122(5) 1. 0
O9 O2- 1 a 0.9313(5) 0.7050(7) 0.9758(6) 0.0144(6) 1. 0
O10 O2- 1 a 0.8422(6) 0.3278(9) 0.6656(6) 0.0208(8) 1. 0
O11 O2- 1 a 0.9370(5) 0.9879(8) 0.4644(7) 0.0202(7) 1. 0
O12 O2- 1 a 0.7317(5) 0.3925(9) 0.2968(6) 0.0187(7) 1. 0
O13 O2- 1 a 0.5617(5) 0.6785(7) 0.9847(5) 0.0129(6) 1. 0
O14 O2- 1 a 0.6010(7) 0.822(1) 0.5921(8) 0.032(1) 1. 0
H1 H1+ 1 a 0.33(1) 0.34(2) 0.48(1) 0.04(3) 1. 0
H2 H1+ 1 a 0.45(1) 0.23(2) 0.45(1) 0.01(2) 1. 0
H3 H1+ 1 a 0.68(3) 0.80(4) 0.56(3) 0.13(7) 1. 0
H4 H1+ 1 a 0.56(2) 0.65(3) 0.74(2) 0.08(4) 1. 0
#End of TTdata_97702-ICSD