
#(C) 2017 by FIZ Karlsruhe - Leibniz Institute for Information Infrastructure.  All rights reserved.
data_98584-ICSD
_database_code_ICSD 98584
_audit_creation_date 2005-04-01
_chemical_name_systematic 'Lithium manganese indium chloride (0.21/1.71/0.79/6)'
_chemical_formula_structural '(Li0.21 Mn1.71 In0.79) Cl6'
_chemical_formula_sum 'Cl6 In0.79 Li0.21 Mn1.71'
_exptl_crystal_density_diffrn 3.14
_publ_section_title

;
Crystal structure of the quaternary compounds Li1.25 Cd1.67 In0.47 Cl6 and
Li0.21 Mn1.71 In0.79 Cl6
;
loop_
_citation_id
_citation_journal_full
_citation_year
_citation_journal_volume
_citation_page_first
_citation_page_last
_citation_journal_id_ASTM
primary 'Solid State Sciences' 2003 5 827 832 SSSCFJ
loop_
_publ_author_name
'Nagel, R.'
'Wickel, C.'
'Lutz, H.D.'
_cell_length_a 6.420(1)
_cell_length_b 11.106(2)
_cell_length_c 6.292(1)
_cell_angle_alpha 90
_cell_angle_beta 110.08(3)
_cell_angle_gamma 90
_cell_volume 421.35
_cell_formula_units_Z 2
_symmetry_space_group_name_H-M 'C 1 2/m 1'
_symmetry_Int_Tables_number 12
_refine_ls_R_factor_all 0.0383
loop_
_symmetry_equiv_pos_site_id
_symmetry_equiv_pos_as_xyz
1 '-x, y, -z'
2 '-x, -y, -z'
3 'x, -y, z'
4 'x, y, z'
5 '-x+1/2, y+1/2, -z'
6 '-x+1/2, -y+1/2, -z'
7 'x+1/2, -y+1/2, z'
8 'x+1/2, y+1/2, z'
loop_
_atom_type_symbol
_atom_type_oxidation_number
In3+ 3
Mn2+ 2
Li1+ 1
Cl1- -1
loop_
_atom_site_label
_atom_site_type_symbol
_atom_site_symmetry_multiplicity
_atom_site_Wyckoff_symbol
_atom_site_fract_x
_atom_site_fract_y
_atom_site_fract_z
_atom_site_B_iso_or_equiv
_atom_site_occupancy
_atom_site_attached_hydrogens
In1 In3+ 2 b 0 0.5 0 0.020(1) 0.787 0
Mn1 Mn2+ 4 g 0 0.1665(1) 0 0.018(1) 0.856 0
Li1 Li1+ 2 b 0 0.5 0 0.020(1) 0.21 0
Cl1 Cl1- 4 i 0.2503(3) 0 0.2368(3) 0.021(1) 1. 0
Cl2 Cl1- 8 j 0.2438(2) 0.6643(1) 0.2374(3) 0.021(1) 1. 0
loop_
_atom_site_aniso_label
_atom_site_aniso_type_symbol
_atom_site_aniso_U_11
_atom_site_aniso_U_22
_atom_site_aniso_U_33
_atom_site_aniso_U_12
_atom_site_aniso_U_13
_atom_site_aniso_U_23
In1 In3+ .014(1) .012(1) .037(1) 0. .012 0.
Mn1 Mn2+ .013(1) .013(1) .029(1) 0. .010(1) 0.
Li1 Li1+ .014(1) .012(1) .037(1) 0. .012(1) 0.
Cl1 Cl1- .015(1) .019(1) .032(1) 0. .013(1) 0.
Cl2 Cl1- .017(1) .015(1) .033(1) -.003(1) .010(1) -.002(1)
#End of TTdata_98584-ICSD