
#(C) 2018 by FIZ Karlsruhe - Leibniz Institute for Information Infrastructure.  All rights reserved.
data_98993-ICSD
_database_code_ICSD 98993
_audit_creation_date 2005-04-01
_chemical_name_systematic 'Lithium cobalt oxide (0.56/1/2) - T#2'
_chemical_formula_structural 'Li0.56 Co O2'
_chemical_formula_sum 'Co1 Li0.56 O2'
_exptl_crystal_density_diffrn 4.65
_cell_measurement_temperature 300.
_publ_section_title
'Structural study of the T#2-(Lix Co O2) (0.52 < x <= 0.72) phase'
loop_
_citation_id
_citation_journal_full
_citation_year
_citation_journal_volume
_citation_page_first
_citation_page_last
_citation_journal_id_ASTM
primary 'Inorganic Chemistry' 2004 43 914 922 INOCAJ
loop_
_publ_author_name
'Carlier, D.'
'Croguennec, L.'
'Ceder, G.'
'Menetrier, M.'
'Shao-Horn, Y.'
'Delmas, C.'
_cell_length_a 2.8096(4)
_cell_length_b 4.8445(7)
_cell_length_c 9.954(1)
_cell_angle_alpha 90
_cell_angle_beta 90
_cell_angle_gamma 90
_cell_volume 135.48
_cell_formula_units_Z 4
_symmetry_space_group_name_H-M 'C m c a'
_symmetry_Int_Tables_number 64
_refine_ls_R_factor_all 0.0442
loop_
_symmetry_equiv_pos_site_id
_symmetry_equiv_pos_as_xyz
1 '-x, -y+1/2, z+1/2'
2 '-x, y+1/2, -z+1/2'
3 '-x, y, z'
4 '-x, -y, -z'
5 'x, y+1/2, -z+1/2'
6 'x, -y+1/2, z+1/2'
7 'x, -y, -z'
8 'x, y, z'
9 '-x+1/2, -y, z+1/2'
10 '-x+1/2, y, -z+1/2'
11 '-x+1/2, y+1/2, z'
12 '-x+1/2, -y+1/2, -z'
13 'x+1/2, y, -z+1/2'
14 'x+1/2, -y, z+1/2'
15 'x+1/2, -y+1/2, -z'
16 'x+1/2, y+1/2, z'
loop_
_atom_type_symbol
_atom_type_oxidation_number
Co3+ 3.44
O2- -2
Li1+ 1
loop_
_atom_site_label
_atom_site_type_symbol
_atom_site_symmetry_multiplicity
_atom_site_Wyckoff_symbol
_atom_site_fract_x
_atom_site_fract_y
_atom_site_fract_z
_atom_site_B_iso_or_equiv
_atom_site_occupancy
_atom_site_attached_hydrogens
Co1 Co3+ 4 a 0 0 0 0.0(1) 1. 0
O1 O2- 8 f 0 0.160(3) 0.400(1) 0.2(2) 1. 0
Li1 Li1+ 8 e 0.25 0.383 0.25 1.2 0.28 0
#End of TTdata_98993-ICSD