
#(C) 2018 by FIZ Karlsruhe - Leibniz Institute for Information Infrastructure.  All rights reserved.
data_99618-ICSD
_database_code_ICSD 99618
_audit_creation_date 2005-04-01
_chemical_name_systematic 'Lithium phosphatooxovandate(IV) - alpha I'
_chemical_formula_structural 'Li ((V O) (P O4))'
_chemical_formula_sum 'Li1 O5 P1 V1'
_exptl_crystal_density_diffrn 3.19
_publ_section_title

;
Phase transition induced by lithium insertion in (alpha I)- and (alpha II)- (V
O P O4)
;
loop_
_citation_id
_citation_journal_full
_citation_year
_citation_journal_volume
_citation_page_first
_citation_page_last
_citation_journal_id_ASTM
primary 'Journal of Solid State Chemistry' 2004 177 28096 2902 JSSCBI
loop_
_publ_author_name
'Dupre, N.'
'Wallez, G.'
'Gaubicher, J.'
'Quarton, M.'
_cell_length_a 6.2910(1)
_cell_length_b 6.2910(1)
_cell_length_c 4.4452(1)
_cell_angle_alpha 90
_cell_angle_beta 90
_cell_angle_gamma 90
_cell_volume 175.93
_cell_formula_units_Z 2
_symmetry_space_group_name_H-M 'P 4/n m m Z'
_symmetry_Int_Tables_number 129
_refine_ls_R_factor_all 0.032
loop_
_symmetry_equiv_pos_site_id
_symmetry_equiv_pos_as_xyz
1 'y+1/2, x+1/2, -z'
2 '-y, x+1/2, -z'
3 'y+1/2, -x, -z'
4 '-y, -x, -z'
5 'x+1/2, y+1/2, -z'
6 '-x, y+1/2, -z'
7 'x+1/2, -y, -z'
8 '-x, -y, -z'
9 '-y+1/2, -x+1/2, z'
10 'y, -x+1/2, z'
11 '-y+1/2, x, z'
12 'y, x, z'
13 '-x+1/2, -y+1/2, z'
14 'x, -y+1/2, z'
15 '-x+1/2, y, z'
16 'x, y, z'
loop_
_atom_type_symbol
_atom_type_oxidation_number
Li1+ 1
V4+ 4
P5+ 5
O2- -2
loop_
_atom_site_label
_atom_site_type_symbol
_atom_site_symmetry_multiplicity
_atom_site_Wyckoff_symbol
_atom_site_fract_x
_atom_site_fract_y
_atom_site_fract_z
_atom_site_B_iso_or_equiv
_atom_site_occupancy
_atom_site_attached_hydrogens
Li1 Li1+ 8 j -0.024 0.524 0.034 0.9 0.25 0
V1 V4+ 2 c 0.25 0.25 0.4181(4) 1.33(5) 1. 0
P1 P5+ 2 b 0.25 0.75 0.5 0.82(6) 1. 0
O1 O2- 2 c 0.25 0.25 0.774(1) 0.5(1) 1. 0
O2 O2- 8 i 0.25 0.9512(4) 0.3014(4) 0.68(6) 1. 0
#End of TTdata_99618-ICSD