
#(C) 2020 by FIZ Karlsruhe - Leibniz Institute for Information Infrastructure.  All rights reserved.
data_2092-ICSD
_database_code_ICSD 2092
_audit_creation_date 1980-01-01
_audit_update_record 2016-08-01
_chemical_name_common 'Copper zinc (5/8) - gamma brass'
_chemical_formula_structural 'Cu5 Zn8'
_chemical_formula_sum 'Cu5 Zn8'
_chemical_name_structure_type Cu5Zn8
_exptl_crystal_density_diffrn 7.98
_citation_title

;
New refinement of the gamma brass type structures Cu5 Zn8, Cu5 Cd8 and F E
Zn10
;
loop_
_citation_id
_citation_journal_full
_citation_year
_citation_journal_volume
_citation_page_first
_citation_page_last
_citation_journal_id_ASTM
primary

;
Acta Crystallographica, Section B: Structural Crystallography and Crystal
Chemistry
; 1974 30 1412 1417 ACBCAR
loop_
_citation_author_citation_id
_citation_author_name
primary 'Brandon, J.K.'
primary 'Brizard, R.Y.'
primary 'Chieh, P.C.'
primary 'McMillan, R.K.'
primary 'Pearson, W.B.'
_cell_length_a 8.878(4)
_cell_length_b 8.878(4)
_cell_length_c 8.878(4)
_cell_angle_alpha 90.
_cell_angle_beta 90.
_cell_angle_gamma 90.
_cell_volume 699.75
_cell_formula_units_Z 4
_space_group_name_H-M_alt 'I -4 3 m'
_space_group_IT_number 217
loop_
_space_group_symop_id
_space_group_symop_operation_xyz
1 '-z, -y, x'
2 '-y, -x, z'
3 '-x, -z, y'
4 '-z, -x, y'
5 '-y, -z, x'
6 '-x, -y, z'
7 '-z, y, -x'
8 '-y, x, -z'
9 '-x, z, -y'
10 '-z, x, -y'
11 '-y, z, -x'
12 '-x, y, -z'
13 'z, -y, -x'
14 'y, -x, -z'
15 'x, -z, -y'
16 'z, -x, -y'
17 'y, -z, -x'
18 'x, -y, -z'
19 'z, y, x'
20 'y, x, z'
21 'x, z, y'
22 'z, x, y'
23 'y, z, x'
24 'x, y, z'
25 '-z+1/2, -y+1/2, x+1/2'
26 '-y+1/2, -x+1/2, z+1/2'
27 '-x+1/2, -z+1/2, y+1/2'
28 '-z+1/2, -x+1/2, y+1/2'
29 '-y+1/2, -z+1/2, x+1/2'
30 '-x+1/2, -y+1/2, z+1/2'
31 '-z+1/2, y+1/2, -x+1/2'
32 '-y+1/2, x+1/2, -z+1/2'
33 '-x+1/2, z+1/2, -y+1/2'
34 '-z+1/2, x+1/2, -y+1/2'
35 '-y+1/2, z+1/2, -x+1/2'
36 '-x+1/2, y+1/2, -z+1/2'
37 'z+1/2, -y+1/2, -x+1/2'
38 'y+1/2, -x+1/2, -z+1/2'
39 'x+1/2, -z+1/2, -y+1/2'
40 'z+1/2, -x+1/2, -y+1/2'
41 'y+1/2, -z+1/2, -x+1/2'
42 'x+1/2, -y+1/2, -z+1/2'
43 'z+1/2, y+1/2, x+1/2'
44 'y+1/2, x+1/2, z+1/2'
45 'x+1/2, z+1/2, y+1/2'
46 'z+1/2, x+1/2, y+1/2'
47 'y+1/2, z+1/2, x+1/2'
48 'x+1/2, y+1/2, z+1/2'
loop_
_atom_type_symbol
_atom_type_oxidation_number
Zn0+ 0
Cu0+ 0
Zn0+ 0
loop_
_atom_site_label
_atom_site_type_symbol
_atom_site_symmetry_multiplicity
_atom_site_Wyckoff_symbol
_atom_site_fract_x
_atom_site_fract_y
_atom_site_fract_z
_atom_site_B_iso_or_equiv
_atom_site_occupancy
Zn1 Zn0+ 8 c 0.1089(5) 0.1089(5) 0.1089(5) 1.12 1.
Cu1 Cu0+ 8 c -.1720(4) -.1720(4) -.1720(4) 0.88 1.
Cu2 Cu0+ 12 e 0.3558(4) 0 0 0.71 1.
Zn2 Zn0+ 24 g 0.3128(3) 0.3128(3) 0.0366(4) 1.32 1.
#End of TTdata_2092-ICSD