
#(C) 2020 by FIZ Karlsruhe - Leibniz Institute for Information Infrastructure.  All rights reserved.
data_22325-ICSD
_database_code_ICSD 22325
_audit_creation_date 1980-01-01
_audit_update_record 2007-04-01
_chemical_name_common 'Dilead lead(IV) oxide'
_chemical_formula_structural 'Pb3 O4'
_chemical_formula_sum 'O4 Pb3'
_chemical_name_structure_type Minium#Pb3O4
_exptl_crystal_density_diffrn 8.88
_citation_title 'Neutron diffraction study of Pb3 O4'
loop_
_citation_id
_citation_journal_full
_citation_year
_citation_journal_volume
_citation_page_first
_citation_page_last
_citation_journal_id_ASTM
primary 'Zeitschrift fuer Anorganische und Allgemeine Chemie (1950) (DE)' 1965
336 104 109 ZAACAB
loop_
_citation_author_citation_id
_citation_author_name
primary 'Fayek, M.K.'
primary 'Leciejewicz, J.'
_cell_length_a 8.82
_cell_length_b 8.82
_cell_length_c 6.59
_cell_angle_alpha 90.
_cell_angle_beta 90.
_cell_angle_gamma 90.
_cell_volume 512.65
_cell_formula_units_Z 4
_space_group_name_H-M_alt 'P 42/m b c'
_space_group_IT_number 135
loop_
_space_group_symop_id
_space_group_symop_operation_xyz
1 '-y+1/2, -x+1/2, z+1/2'
2 '-x+1/2, y+1/2, z'
3 'y, -x, z+1/2'
4 '-x, -y, z'
5 '-y+1/2, -x+1/2, -z+1/2'
6 '-x+1/2, y+1/2, -z'
7 'y, -x, -z+1/2'
8 '-x, -y, -z'
9 'y+1/2, x+1/2, -z+1/2'
10 'x+1/2, -y+1/2, -z'
11 '-y, x, -z+1/2'
12 'x, y, -z'
13 'y+1/2, x+1/2, z+1/2'
14 'x+1/2, -y+1/2, z'
15 '-y, x, z+1/2'
16 'x, y, z'
loop_
_atom_type_symbol
_atom_type_oxidation_number
Pb4+ 4
Pb2+ 2
O2- -2
loop_
_atom_site_label
_atom_site_type_symbol
_atom_site_symmetry_multiplicity
_atom_site_Wyckoff_symbol
_atom_site_fract_x
_atom_site_fract_y
_atom_site_fract_z
_atom_site_B_iso_or_equiv
_atom_site_occupancy
Pb1 Pb4+ 4 d 0 0.5 0.25 0 1.
Pb2 Pb2+ 8 h 0.143(3) 0.161(3) 0 0 1.
O1 O2- 8 g 0.672 0.172 0.25 0 1.
O2 O2- 8 h 0.114 0.614 0 0 1.
#End of TTdata_22325-ICSD