
#(C) 2020 by FIZ Karlsruhe - Leibniz Institute for Information Infrastructure.  All rights reserved.
data_33254-ICSD
_database_code_ICSD 33254
_audit_creation_date 1985-03-07
_audit_update_record 2004-10-01
_chemical_name_common 'Aluminium arsenate(V)'
_chemical_formula_structural 'Al (As O4)'
_chemical_formula_sum 'Al1 As1 O4'
_chemical_name_structure_type Berlinite#AlPO4#AlAsO4
_exptl_crystal_density_diffrn 3.37
_citation_title

;
Cristallichimie des phases Ga P O4, Al As O4 et Ga As O4. Etude comparee des
structures de type quartz alpha.
;
loop_
_citation_id
_citation_journal_full
_citation_year
_citation_journal_volume
_citation_page_first
_citation_page_last
_citation_journal_id_ASTM
primary 'Revue de Chimie Minerale' 1983 20 338 350 RVCMA8
loop_
_citation_author_citation_id
_citation_author_name
primary 'Goiffon, A.'
primary 'Bayle, G.'
primary 'Astier, R.'
primary 'Jumas, J.C.'
primary 'Maurin, M.'
primary 'Philippot, E.'
_cell_length_a 5.027(1)
_cell_length_b 5.027(1)
_cell_length_c 11.213(3)
_cell_angle_alpha 90.
_cell_angle_beta 90.
_cell_angle_gamma 120.
_cell_volume 245.4
_cell_formula_units_Z 3
_space_group_name_H-M_alt 'P 31 2 1'
_space_group_IT_number 152
loop_
_space_group_symop_id
_space_group_symop_operation_xyz
1 'x-y, -y, -z+2/3'
2 '-x, -x+y, -z+1/3'
3 'y, x, -z'
4 '-x+y, -x, z+2/3'
5 '-y, x-y, z+1/3'
6 'x, y, z'
loop_
_atom_type_symbol
_atom_type_oxidation_number
Al3+ 3
As5+ 5
O2- -2
loop_
_atom_site_label
_atom_site_type_symbol
_atom_site_symmetry_multiplicity
_atom_site_Wyckoff_symbol
_atom_site_fract_x
_atom_site_fract_y
_atom_site_fract_z
_atom_site_B_iso_or_equiv
_atom_site_occupancy
Al1 Al3+ 3 a 0.4585(2) 0 0.3333 . 1.
As1 As5+ 3 b 0.45704(6) 0 0.8333 . 1.
O1 O2- 6 c 0.4075(4) 0.2969(2) 0.3914(8) . 1.
O2 O2- 6 c 0.4043(3) 0.2860(2) 0.88028(8) . 1.
loop_
_atom_site_aniso_label
_atom_site_aniso_type_symbol
_atom_site_aniso_U_11
_atom_site_aniso_U_22
_atom_site_aniso_U_33
_atom_site_aniso_U_12
_atom_site_aniso_U_13
_atom_site_aniso_U_23
Al1 Al3+ 0.0080(3) 0.0067(4) 0.0086(3) 0.0034 0 0.0000(3)
As1 As5+ 0.0074(1) 0.0056(1) 0.0073(1) 0.0028 -.00019 -.00037(10)
O1 O2- 0.0178(8) 0.0127(7) 0.0135(6) 0.0100(7) -.0039(5) -.0049(5)
O2 O2- 0.0190(8) 0.0130(7) 0.0145(6) 0.0115(7) -.0034(5) -.0049(5)
#End of TTdata_33254-ICSD