
#(C) 2020 by FIZ Karlsruhe - Leibniz Institute for Information Infrastructure.  All rights reserved.
data_15586-ICSD
_database_code_ICSD 15586
_audit_creation_date 1980-01-01
_audit_update_record 2012-08-01
_chemical_name_common 'Calcium tungstate'
_chemical_formula_structural 'Ca (W O4)'
_chemical_formula_sum 'Ca1 O4 W1'
_chemical_name_structure_type Scheelite#CaWO4#NaAlH4
_exptl_crystal_density_diffrn 6.12
_citation_title
'X-ray diffraction refinement of the calcium tungstate structure'
loop_
_citation_id
_citation_journal_full
_citation_year
_citation_journal_volume
_citation_page_first
_citation_page_last
_citation_journal_id_ASTM
primary 'Journal of Chemical Physics' 1964 40 501 504 JCPSA6
loop_
_citation_author_citation_id
_citation_author_name
primary 'Zalkin, A.'
primary 'Templeton, D.H.'
_cell_length_a 5.243(2)
_cell_length_b 5.243
_cell_length_c 11.376(3)
_cell_angle_alpha 90.
_cell_angle_beta 90.
_cell_angle_gamma 90.
_cell_volume 312.72
_cell_formula_units_Z 4
_space_group_name_H-M_alt 'I 41/a Z'
_space_group_IT_number 88
loop_
_space_group_symop_id
_space_group_symop_operation_xyz
1 '-y+3/4, x+3/4, -z+3/4'
2 'y+1/4, -x+3/4, -z+3/4'
3 'x, y+1/2, -z'
4 '-x, -y, -z'
5 'y+1/4, -x+1/4, z+1/4'
6 '-y+3/4, x+1/4, z+1/4'
7 '-x, -y+1/2, z'
8 'x, y, z'
9 '-y+1/4, x+1/4, -z+1/4'
10 'y+3/4, -x+1/4, -z+1/4'
11 'x+1/2, y, -z+1/2'
12 '-x+1/2, -y+1/2, -z+1/2'
13 'y+3/4, -x+3/4, z+3/4'
14 '-y+1/4, x+3/4, z+3/4'
15 '-x+1/2, -y, z+1/2'
16 'x+1/2, y+1/2, z+1/2'
loop_
_atom_type_symbol
_atom_type_oxidation_number
O2- -2
Ca2+ 2
W6+ 6
loop_
_atom_site_label
_atom_site_type_symbol
_atom_site_symmetry_multiplicity
_atom_site_Wyckoff_symbol
_atom_site_fract_x
_atom_site_fract_y
_atom_site_fract_z
_atom_site_B_iso_or_equiv
_atom_site_occupancy
O1 O2- 16 f 0.1504(13) 0.0085(14) 0.2111(6) . 1.
Ca1 Ca2+ 4 b 0 0.25 0.625 . 1.
W1 W6+ 4 a 0 0.25 0.125 . 1.
#End of TTdata_15586-ICSD