
#(C) 2020 by FIZ Karlsruhe - Leibniz Institute for Information Infrastructure.  All rights reserved.
data_26811-ICSD
_database_code_ICSD 26811
_audit_creation_date 1980-01-01
_audit_update_record 1998-06-26
_chemical_name_common 'Iron tungstate'
_chemical_formula_structural 'Fe W O4'
_chemical_formula_sum 'Fe1 O4 W1'
_chemical_name_structure_type Wolframite#NiWO4
_exptl_crystal_density_diffrn 7.47
_citation_title 'The Crystal Structure of Ferberite, Fe W O4'
loop_
_citation_id
_citation_journal_full
_citation_year
_citation_journal_volume
_citation_page_first
_citation_page_last
_citation_journal_id_ASTM
primary 'Zeitschrift fuer Kristallographie' 1968 127 61 72 ZEKRDZ
loop_
_citation_author_citation_id
_citation_author_name
primary 'Cid-Dresdner, H.'
primary 'Escobar, C.'
_cell_length_a 4.75
_cell_length_b 5.72
_cell_length_c 4.97
_cell_angle_alpha 90.
_cell_angle_beta 90.17
_cell_angle_gamma 90.
_cell_volume 135.03
_cell_formula_units_Z 2
_space_group_name_H-M_alt 'P 1 2/c 1'
_space_group_IT_number 13
loop_
_space_group_symop_id
_space_group_symop_operation_xyz
1 'x, -y, z+1/2'
2 '-x, -y, -z'
3 '-x, y, -z+1/2'
4 'x, y, z'
loop_
_atom_type_symbol
_atom_type_oxidation_number
W6+ 6
Fe2+ 2
O2- -2
loop_
_atom_site_label
_atom_site_type_symbol
_atom_site_symmetry_multiplicity
_atom_site_Wyckoff_symbol
_atom_site_fract_x
_atom_site_fract_y
_atom_site_fract_z
_atom_site_B_iso_or_equiv
_atom_site_occupancy
W1 W6+ 2 e 0 0.1808 0.25 0.2 1.
Fe1 Fe2+ 2 f 0.5 0.3215 0.75 0.4 1.
O1 O2- 4 g 0.2158 0.1068 0.5833 0.6 1.
O2 O2- 4 g 0.2623 0.385 0.0912 0.6 1.
#End of TTdata_26811-ICSD