
#(C) 2020 by FIZ Karlsruhe - Leibniz Institute for Information Infrastructure.  All rights reserved.
data_24725-ICSD
_database_code_ICSD 24725
_audit_creation_date 1980-01-01
_audit_update_record 2011-02-01
_chemical_name_common 'Magnesium uranate'
_chemical_formula_structural 'Mg (U O4)'
_chemical_formula_sum 'Mg1 O4 U1'
_chemical_name_structure_type MgUO4
_exptl_crystal_density_diffrn 7.28
_citation_title

;
Crystal chemical studies of the 5f-series of elements. XXI. The crystal
structure of magnesium orthouranate
;
loop_
_citation_id
_citation_journal_full
_citation_year
_citation_journal_volume
_citation_page_first
_citation_page_last
_citation_journal_id_ASTM
primary 'Acta Crystallographica' 1954 7 788 791 ACCRA9
loop_
_citation_author_citation_id
_citation_author_name
primary 'Zachariasen, W.H.'
_cell_length_a 6.520(2)
_cell_length_b 6.595(2)
_cell_length_c 6.924(2)
_cell_angle_alpha 90.
_cell_angle_beta 90.
_cell_angle_gamma 90.
_cell_volume 297.73
_cell_formula_units_Z 4
_space_group_name_H-M_alt 'I m a m'
_space_group_IT_number 74
loop_
_space_group_symop_id
_space_group_symop_operation_xyz
1 '-x, -y, z+1/2'
2 '-x, y, -z+1/2'
3 '-x, y, z'
4 '-x, -y, -z'
5 'x, y, -z+1/2'
6 'x, -y, z+1/2'
7 'x, -y, -z'
8 'x, y, z'
9 '-x+1/2, -y+1/2, z'
10 '-x+1/2, y+1/2, -z'
11 '-x+1/2, y+1/2, z+1/2'
12 '-x+1/2, -y+1/2, -z+1/2'
13 'x+1/2, y+1/2, -z'
14 'x+1/2, -y+1/2, z'
15 'x+1/2, -y+1/2, -z+1/2'
16 'x+1/2, y+1/2, z+1/2'
loop_
_atom_type_symbol
_atom_type_oxidation_number
Mg2+ 2
U6+ 6
O2- -2
loop_
_atom_site_label
_atom_site_type_symbol
_atom_site_symmetry_multiplicity
_atom_site_Wyckoff_symbol
_atom_site_fract_x
_atom_site_fract_y
_atom_site_fract_z
_atom_site_B_iso_or_equiv
_atom_site_occupancy
Mg1 Mg2+ 4 b 0 0.5 0 . 1.
U1 U6+ 4 e 0 0.0222(10) 0.25 . 1.
O1 O2- 8 i 0.295(3) 0.022(3) 0.25 . 1.
O2 O2- 8 h 0 0.200(4) -.012(4) . 1.
#End of TTdata_24725-ICSD