
#(C) 2020 by FIZ Karlsruhe - Leibniz Institute for Information Infrastructure.  All rights reserved.
data_15615-ICSD
_database_code_ICSD 15615
_audit_creation_date 1980-01-01
_audit_update_record 2007-08-01
_chemical_name_common 'Manganese molybdate - alpha'
_chemical_formula_structural 'Mn (Mo O4)'
_chemical_formula_sum 'Mn1 Mo1 O4'
_chemical_name_structure_type CoMoO4
_exptl_crystal_density_diffrn 4.18
_citation_title

;
Crystal structure of the transition-metal molybdates. I. Para magnetic alpha
Mn Mo O4
;
loop_
_citation_id
_citation_journal_full
_citation_year
_citation_journal_volume
_citation_page_first
_citation_page_last
_citation_journal_id_ASTM
primary 'Journal of Chemical Physics' 1965 43 2533 2543 JCPSA6
loop_
_citation_author_citation_id
_citation_author_name
primary 'Abrahams, S.C.'
primary 'Reddy, J.M.'
_cell_length_a 10.469(5)
_cell_length_b 9.516(5)
_cell_length_c 7.143(5)
_cell_angle_alpha 90.
_cell_angle_beta 106.28(10)
_cell_angle_gamma 90.
_cell_volume 683.07
_cell_formula_units_Z 8
_space_group_name_H-M_alt 'C 1 2/m 1'
_space_group_IT_number 12
loop_
_space_group_symop_id
_space_group_symop_operation_xyz
1 '-x, y, -z'
2 '-x, -y, -z'
3 'x, -y, z'
4 'x, y, z'
5 '-x+1/2, y+1/2, -z'
6 '-x+1/2, -y+1/2, -z'
7 'x+1/2, -y+1/2, z'
8 'x+1/2, y+1/2, z'
loop_
_atom_type_symbol
_atom_type_oxidation_number
Mn2+ 2
Mo6+ 6
O2- -2
loop_
_atom_site_label
_atom_site_type_symbol
_atom_site_symmetry_multiplicity
_atom_site_Wyckoff_symbol
_atom_site_fract_x
_atom_site_fract_y
_atom_site_fract_z
_atom_site_B_iso_or_equiv
_atom_site_occupancy
Mn1 Mn2+ 4 h 0 0.18299(12) 0.5 . 1.
Mn2 Mn2+ 4 i 0.79532(9) 0 0.13870(12) . 1.
Mo1 Mo6+ 4 g 0 0.25160(6) 0 . 1.
Mo2 Mo6+ 4 i 0.27069(5) 0 0.40499(7) . 1.
O1 O2- 4 i 0.3587(4) 0.5 0.4635(6) . 1.
O2 O2- 4 i 0.2029(6) 0 0.1534(8) . 1.
O3 O2- 8 j 0.1369(5) 0.3548(7) 0.1083(7) . 1.
O4 O2- 8 j 0.4584(3) 0.3455(5) 0.1904(4) . 1.
O5 O2- 8 j 0.3645(6) 0.1504(8) 0.4698(8) . 1.
#End of TTdata_15615-ICSD