
#(C) 2020 by FIZ Karlsruhe - Leibniz Institute for Information Infrastructure.  All rights reserved.
data_202453-ICSD
_database_code_ICSD 202453
_audit_creation_date 1988-05-17
_audit_update_record 2006-04-01
_chemical_name_common 'Thallium tetrafluoroaluminate - I'
_chemical_formula_structural 'Tl (Al F4)'
_chemical_formula_sum 'Al1 F4 Tl1'
_chemical_name_structure_type KAlF4
_exptl_crystal_density_diffrn 5.92
_diffrn_ambient_temperature 723.
_citation_title

;
Structural phase transitions in ferroelastic Tl Al F4: DSC investigations and
structures determinations by neutron powder profile refinement
;
loop_
_citation_id
_citation_journal_full
_citation_year
_citation_journal_volume
_citation_page_first
_citation_page_last
_citation_journal_id_ASTM
primary 'Journal of Physics C: Solid State Physics' 1987 20 2885 2900 JPSOAW
loop_
_citation_author_citation_id
_citation_author_name
primary 'Bulou, A.'
primary 'Nouet, J.'
_cell_length_a 3.6587
_cell_length_b 3.6587
_cell_length_c 6.4378
_cell_angle_alpha 90.
_cell_angle_beta 90.
_cell_angle_gamma 90.
_cell_volume 86.18
_cell_formula_units_Z 1
_space_group_name_H-M_alt 'P 4/m m m'
_space_group_IT_number 123
loop_
_space_group_symop_id
_space_group_symop_operation_xyz
1 'y, x, -z'
2 '-y, -x, -z'
3 '-y, x, -z'
4 'y, -x, -z'
5 '-x, y, -z'
6 'x, -y, -z'
7 'x, y, -z'
8 '-x, -y, -z'
9 '-y, -x, z'
10 'y, x, z'
11 'y, -x, z'
12 '-y, x, z'
13 'x, -y, z'
14 '-x, y, z'
15 '-x, -y, z'
16 'x, y, z'
loop_
_atom_type_symbol
_atom_type_oxidation_number
Tl1+ 1
Al3+ 3
F1- -1
loop_
_atom_site_label
_atom_site_type_symbol
_atom_site_symmetry_multiplicity
_atom_site_Wyckoff_symbol
_atom_site_fract_x
_atom_site_fract_y
_atom_site_fract_z
_atom_site_B_iso_or_equiv
_atom_site_occupancy
Tl1 Tl1+ 1 d 0.5 0.5 0.5 . 1.
Al1 Al3+ 1 a 0 0 0 . 1.
F1 F1- 2 f 0.5 0 0 . 1.
F2 F1- 2 g 0 0 0.2728(1) . 1.
loop_
_atom_site_aniso_label
_atom_site_aniso_type_symbol
_atom_site_aniso_B_11
_atom_site_aniso_B_22
_atom_site_aniso_B_33
_atom_site_aniso_B_12
_atom_site_aniso_B_13
_atom_site_aniso_B_23
Tl1 Tl1+ 4.30(4) 4.3 6.86(7) 0 0 0
Al1 Al3+ 0.94(6) 0.94 2.0(1) 0 0 0
F1 F1- 0.89(4) 3.54(5) 6.23(6) 0 0 0
F2 F1- 4.31(4) 4.31 2.12(6) 0 0 0
#End of TTdata_202453-ICSD