
#(C) 2020 by FIZ Karlsruhe - Leibniz Institute for Information Infrastructure.  All rights reserved.
data_71018-ICSD
_database_code_ICSD 71018
_audit_creation_date 1993-01-06
_audit_update_record 2012-02-01
_chemical_name_common 'Zinc sulfate(VI)'
_chemical_formula_structural 'Zn (S O4)'
_chemical_formula_sum 'O4 S1 Zn1'
_chemical_name_structure_type CuSO4
_exptl_crystal_density_diffrn 3.87
_citation_title

;
Crystal structure refinements of synthetic chalcocyanite (CuSO4) and zincosite
(ZnSO4)
;
loop_
_citation_id
_citation_journal_full
_citation_year
_citation_journal_volume
_citation_page_first
_citation_page_last
_citation_journal_id_ASTM
primary 'Mineralogy and Petrology' 1988 39 201 209 MIPEE9
loop_
_citation_author_citation_id
_citation_author_name
primary 'Wildner, M.'
primary 'Giester, G.'
_cell_length_a 8.604(5)
_cell_length_b 6.746(5)
_cell_length_c 4.774(3)
_cell_angle_alpha 90.
_cell_angle_beta 90.
_cell_angle_gamma 90.
_cell_volume 277.1
_cell_formula_units_Z 4
_space_group_name_H-M_alt 'P n m a'
_space_group_IT_number 62
loop_
_space_group_symop_id
_space_group_symop_operation_xyz
1 'x+1/2, y, -z+1/2'
2 'x, -y+1/2, z'
3 '-x+1/2, y+1/2, z+1/2'
4 '-x, -y, -z'
5 '-x+1/2, -y, z+1/2'
6 '-x, y+1/2, -z'
7 'x+1/2, -y+1/2, -z+1/2'
8 'x, y, z'
loop_
_atom_type_symbol
_atom_type_oxidation_number
Zn2+ 2
S6+ 6
O2- -2
loop_
_atom_site_label
_atom_site_type_symbol
_atom_site_symmetry_multiplicity
_atom_site_Wyckoff_symbol
_atom_site_fract_x
_atom_site_fract_y
_atom_site_fract_z
_atom_site_B_iso_or_equiv
_atom_site_occupancy
Zn1 Zn2+ 4 a 0 0 0 . 1.
S1 S6+ 4 c 0.18029(7) 0.25 0.46659(13) . 1.
O1 O2- 4 c 0.1279(2) 0.25 0.7622(4) . 1.
O2 O2- 4 c 0.3545(2) 0.25 0.4522(4) . 1.
O3 O2- 8 d 0.1267(2) 0.0689(2) 0.3295(3) . 1.
loop_
_atom_site_aniso_label
_atom_site_aniso_type_symbol
_atom_site_aniso_U_11
_atom_site_aniso_U_22
_atom_site_aniso_U_33
_atom_site_aniso_U_12
_atom_site_aniso_U_13
_atom_site_aniso_U_23
Zn1 Zn2+ 0.0247(2) 0.0218(2) 0.0271(2) 0.0110(1) -0.0164(1) -0.0132(1)
S1 S6+ 0.0082(2) 0.0114(2) 0.0080(2) 0 -0.0007(2) 0
O1 O2- 0.0165(8) 0.0187(8) 0.0090(7) 0 0.0023(6) 0
O2 O2- 0.0085(7) 0.0140(8) 0.0155(8) 0 0.0008(6) 0
O3 O2- 0.0158(5) 0.0141(5) 0.0132(5) -0.0020(5) -0.0030(5) -0.0023(5)
#End of TTdata_71018-ICSD