
#(C) 2018 by FIZ Karlsruhe - Leibniz Institute for Information Infrastructure.  All rights reserved.
data_100631-ICSD
_database_code_ICSD 100631
_audit_creation_date 1980-01-01
_audit_update_record 2007-08-01
_chemical_name_systematic 'Sodium lithium zirconium phyllo-hexasilicate'
_chemical_formula_structural 'Na Li Zr (Si6 O15)'
_chemical_formula_sum 'Li1 Na1 O15 Si6 Zr1'
_chemical_name_structure_type Tuhualite
_chemical_name_mineral Zektzerite
_exptl_crystal_density_diffrn 2.78
_publ_section_title

;
Zektzerite, Na Li Zr Si6 O15: a silicate with six-tetrahedral-repeat double
chains
;
loop_
_citation_id
_citation_journal_full
_citation_year
_citation_journal_volume
_citation_page_first
_citation_page_last
_citation_journal_id_ASTM
primary 'American Mineralogist' 1978 63 304 310 AMMIAY
loop_
_publ_author_name
'Ghose, S.'
'Wan, C.'
_cell_length_a 14.330(2)
_cell_length_b 17.3540(20)
_cell_length_c 10.164(2)
_cell_angle_alpha 90.
_cell_angle_beta 90.
_cell_angle_gamma 90.
_cell_volume 2527.61
_cell_formula_units_Z 8
_symmetry_space_group_name_H-M 'C m c a'
_symmetry_Int_Tables_number 64
_refine_ls_R_factor_all 0.04
loop_
_symmetry_equiv_pos_site_id
_symmetry_equiv_pos_as_xyz
1 '-x, -y+1/2, z+1/2'
2 '-x, y+1/2, -z+1/2'
3 '-x, y, z'
4 '-x, -y, -z'
5 'x, y+1/2, -z+1/2'
6 'x, -y+1/2, z+1/2'
7 'x, -y, -z'
8 'x, y, z'
9 '-x+1/2, -y, z+1/2'
10 '-x+1/2, y, -z+1/2'
11 '-x+1/2, y+1/2, z'
12 '-x+1/2, -y+1/2, -z'
13 'x+1/2, y, -z+1/2'
14 'x+1/2, -y, z+1/2'
15 'x+1/2, -y+1/2, -z'
16 'x+1/2, y+1/2, z'
loop_
_atom_type_symbol
_atom_type_oxidation_number
Na1+ 1
Li1+ 1
Zr4+ 4
Si4+ 4
O2- -2
loop_
_atom_site_label
_atom_site_type_symbol
_atom_site_symmetry_multiplicity
_atom_site_Wyckoff_symbol
_atom_site_fract_x
_atom_site_fract_y
_atom_site_fract_z
_atom_site_B_iso_or_equiv
_atom_site_occupancy
_atom_site_attached_hydrogens
Na1 Na1+ 8 e 0.25 0.21648(8) 0.25 . 1. 0
Li1 Li1+ 8 d 0.24712(44) 0 0 . 1. 0
Zr1 Zr4+ 8 e 0.25 -.08805(1) 0.25 . 1. 0
Si1 Si4+ 16 g 0.39091(4) 0.12869(3) 0.01792(5) . 1. 0
Si2 Si4+ 16 g 0.38965(4) 0.07306(3) 0.31148(5) . 1. 0
Si3 Si4+ 16 g 0.39072(4) 0.19281(3) 0.54143(5) . 1. 0
O1 O2- 16 g 0.37070(12) 0.21970(8) -.00542(16) . 1. 0
O2 O2- 16 g 0.32801(10) 0.07851(8) -.07887(14) . 1. 0
O3 O2- 16 g 0.36177(11) 0.11174(9) 0.17054(15) . 1. 0
O4 O2- 16 g 0.32978(10) -.00240(8) 0.34095(14) . 1. 0
O5 O2- 16 g 0.36064(11) 0.14017(8) 0.41591(15) . 1. 0
O6 O2- 16 g 0.32984(11) 0.17405(8) 0.66829(14) . 1. 0
O7 O2- 8 f 0.5 0.11001(15) -.00132(24) . 1. 0
O8 O2- 8 f 0.5 0.05683(13) 0.31751(24) . 1. 0
O9 O2- 8 f 0.5 0.18146(14) 0.57081(25) . 1. 0
loop_
_atom_site_aniso_label
_atom_site_aniso_type_symbol
_atom_site_aniso_beta_11
_atom_site_aniso_beta_22
_atom_site_aniso_beta_33
_atom_site_aniso_beta_12
_atom_site_aniso_beta_13
_atom_site_aniso_beta_23
Na1 Na1+ 0.00251(7) 0.00078(4) 0.00799(17) 0 0.00209(1) 0
Li1 Li1+ 0.00152(22) 0.00107(15) 0.00197(40) 0 0 -.00002(20)
Zr1 Zr4+ 0.00053(1) 0.00029(1) 0.00088(2) 0 -.00001(1) 0
Si1 Si4+ 0.00059(2) 0.00042(1) 0.00129(4) -.00006(2) -.00009(3) -.00001(2)
Si2 Si4+ 0.00063(2) 0.00041(1) 0.00129(4) -.00008(1) 0.00002(3) -.00007(2)
Si3 Si4+ 0.00067(2) 0.00039(1) 0.00137(4) -.00005(2) 0.00007(3) -.00009(2)
O1 O2- 0.00222(8) 0.00050(4) 0.00289(14) 0.00005(5) -.00029(9) -.00004(6)
O2 O2- 0.00099(6) 0.00056(4) 0.00172(11) -.00015(4) -.00027(7) -.00004(6)
O3 O2- 0.00136(7) 0.00102(5) 0.00172(12) 0.00007(5) -.00003(7) 0.00035(6)
O4 O2- 0.00102(6) 0.00053(4) 0.00217(12) -.00027(4) 0.00002(7) -.00010(5)
O5 O2- 0.00136(7) 0.00064(4) 0.00221(13) -.00001(4) 0.00000(7) -.00050(6)
O6 O2- 0.00121(6) 0.00071(4) 0.00184(12) -.00016(4) 0.00052(8) -.00003(5)
O7 O2- 0.00056(9) 0.00170(8) 0.00362(21) 0 0 -.00031(11)
O8 O2- 0.00041(8) 0.00115(7) 0.00419(22) 0 0 -.00001(10)
O9 O2- 0.00072(9) 0.00148(8) 0.00400(22) 0 0 0.00025(10)
#End of TTdata_100631-ICSD