
#(C) 2018 by FIZ Karlsruhe - Leibniz Institute for Information Infrastructure.  All rights reserved.
data_1126-ICSD
_database_code_ICSD 1126
_audit_creation_date 1980-01-01
_audit_update_record 2007-04-01
_chemical_name_systematic 'Tetralithium heptaborate chloride - subcell'
_chemical_formula_structural 'Li4 (B7 O12) Cl'
_chemical_formula_sum 'B7 Cl1 Li4 O12'
_chemical_name_structure_type Boracite(HT)
_exptl_crystal_density_diffrn 2.44
_cell_measurement_temperature 328.
_publ_section_title 'Crystal structure and ionic conductivity of Li boracites'
loop_
_citation_id
_citation_journal_full
_citation_year
_citation_journal_volume
_citation_page_first
_citation_page_last
_citation_journal_id_ASTM
primary

;
Acta Crystallographica, Section B: Structural Crystallography and Crystal
Chemistry
; 1977 33 2767 2775 ACBCAR
loop_
_publ_author_name
'Jeitschko, W.'
'Bither, T.A.'
'Bierstedt, P.E.'
_cell_length_a 12.161(3)
_cell_length_b 12.161(3)
_cell_length_c 12.161(3)
_cell_angle_alpha 90.
_cell_angle_beta 90.
_cell_angle_gamma 90.
_cell_volume 1798.49
_cell_formula_units_Z 8
_symmetry_space_group_name_H-M 'F -4 3 c'
_symmetry_Int_Tables_number 219
_refine_ls_R_factor_all 0.025
loop_
_symmetry_equiv_pos_site_id
_symmetry_equiv_pos_as_xyz
1 '-z, y, -x+1/2'
2 '-y, x, -z+1/2'
3 '-x, z, -y+1/2'
4 'z, -y, -x+1/2'
5 'y, -x, -z+1/2'
6 'x, -z, -y+1/2'
7 '-z, -y, x+1/2'
8 '-y, -x, z+1/2'
9 '-x, -z, y+1/2'
10 'z, y, x+1/2'
11 'y, x, z+1/2'
12 'x, z, y+1/2'
13 '-z, -x, y'
14 '-y, -z, x'
15 '-x, -y, z'
16 'z, -x, -y'
17 'y, -z, -x'
18 'x, -y, -z'
19 '-z, x, -y'
20 '-y, z, -x'
21 '-x, y, -z'
22 'z, x, y'
23 'y, z, x'
24 'x, y, z'
25 '-z, y+1/2, -x'
26 '-y, x+1/2, -z'
27 '-x, z+1/2, -y'
28 'z, -y+1/2, -x'
29 'y, -x+1/2, -z'
30 'x, -z+1/2, -y'
31 '-z, -y+1/2, x'
32 '-y, -x+1/2, z'
33 '-x, -z+1/2, y'
34 'z, y+1/2, x'
35 'y, x+1/2, z'
36 'x, z+1/2, y'
37 '-z, -x+1/2, y+1/2'
38 '-y, -z+1/2, x+1/2'
39 '-x, -y+1/2, z+1/2'
40 'z, -x+1/2, -y+1/2'
41 'y, -z+1/2, -x+1/2'
42 'x, -y+1/2, -z+1/2'
43 '-z, x+1/2, -y+1/2'
44 '-y, z+1/2, -x+1/2'
45 '-x, y+1/2, -z+1/2'
46 'z, x+1/2, y+1/2'
47 'y, z+1/2, x+1/2'
48 'x, y+1/2, z+1/2'
49 '-z+1/2, y, -x'
50 '-y+1/2, x, -z'
51 '-x+1/2, z, -y'
52 'z+1/2, -y, -x'
53 'y+1/2, -x, -z'
54 'x+1/2, -z, -y'
55 '-z+1/2, -y, x'
56 '-y+1/2, -x, z'
57 '-x+1/2, -z, y'
58 'z+1/2, y, x'
59 'y+1/2, x, z'
60 'x+1/2, z, y'
61 '-z+1/2, -x, y+1/2'
62 '-y+1/2, -z, x+1/2'
63 '-x+1/2, -y, z+1/2'
64 'z+1/2, -x, -y+1/2'
65 'y+1/2, -z, -x+1/2'
66 'x+1/2, -y, -z+1/2'
67 '-z+1/2, x, -y+1/2'
68 '-y+1/2, z, -x+1/2'
69 '-x+1/2, y, -z+1/2'
70 'z+1/2, x, y+1/2'
71 'y+1/2, z, x+1/2'
72 'x+1/2, y, z+1/2'
73 '-z+1/2, y+1/2, -x+1/2'
74 '-y+1/2, x+1/2, -z+1/2'
75 '-x+1/2, z+1/2, -y+1/2'
76 'z+1/2, -y+1/2, -x+1/2'
77 'y+1/2, -x+1/2, -z+1/2'
78 'x+1/2, -z+1/2, -y+1/2'
79 '-z+1/2, -y+1/2, x+1/2'
80 '-y+1/2, -x+1/2, z+1/2'
81 '-x+1/2, -z+1/2, y+1/2'
82 'z+1/2, y+1/2, x+1/2'
83 'y+1/2, x+1/2, z+1/2'
84 'x+1/2, z+1/2, y+1/2'
85 '-z+1/2, -x+1/2, y'
86 '-y+1/2, -z+1/2, x'
87 '-x+1/2, -y+1/2, z'
88 'z+1/2, -x+1/2, -y'
89 'y+1/2, -z+1/2, -x'
90 'x+1/2, -y+1/2, -z'
91 '-z+1/2, x+1/2, -y'
92 '-y+1/2, z+1/2, -x'
93 '-x+1/2, y+1/2, -z'
94 'z+1/2, x+1/2, y'
95 'y+1/2, z+1/2, x'
96 'x+1/2, y+1/2, z'
loop_
_atom_type_symbol
_atom_type_oxidation_number
Li1+ 1
B3+ 3
O2- -2
Cl1- -1
loop_
_atom_site_label
_atom_site_type_symbol
_atom_site_symmetry_multiplicity
_atom_site_Wyckoff_symbol
_atom_site_fract_x
_atom_site_fract_y
_atom_site_fract_z
_atom_site_B_iso_or_equiv
_atom_site_occupancy
_atom_site_attached_hydrogens
Li1 Li1+ 32 e 0.86533(94) 0.86533(94) 0.86533(94) . 0.278 0
Li2 Li1+ 24 c 0 0.25 0.25 . 0.967 0
B1 B3+ 24 d 0.25 0 0 . 1. 0
B2 B3+ 32 e 0.10089(12) 0.10089(12) 0.10089(12) . 1. 0
O1 O2- 96 h 0.02256(8) 0.09788(7) 0.18213(8) . 1. 0
Cl1 Cl1- 8 b 0.25 0.25 0.25 . 1. 0
loop_
_atom_site_aniso_label
_atom_site_aniso_type_symbol
_atom_site_aniso_beta_11
_atom_site_aniso_beta_22
_atom_site_aniso_beta_33
_atom_site_aniso_beta_12
_atom_site_aniso_beta_13
_atom_site_aniso_beta_23
Li1 Li1+ 0.00254(84) 0.00254(84) 0.00254(84) -.00060(46) -.00060(46) -.00060(46)
Li2 Li1+ 0.0278(19) 0.00232(37) 0.00232(37) 0 0 0
B1 B3+ 0.00079(10) 0.00092(7) 0.00092(7) 0 0 0
B2 B3+ 0.00111(6) 0.00111(6) 0.00111(6) 0.00011(6) 0.00011(6) 0.00011(6)
O1 O2- 0.00124(6) 0.00120(5) 0.00121(6) 0.00031(4) 0.00052(4) 0.00045(5)
Cl1 Cl1- 0.00262(4) 0.00262(4) 0.00262(4) 0 0 0
#End of TTdata_1126-ICSD