
#(C) 2017 by FIZ Karlsruhe - Leibniz Institute for Information Infrastructure.  All rights reserved.
data_1384-ICSD
_database_code_ICSD 1384
_audit_creation_date 1980-01-01
_audit_update_record 2010-02-01
_chemical_name_systematic 'Lithium trioxofluorosulfate(VI)'
_chemical_formula_structural 'Li (S O3 F)'
_chemical_formula_sum 'F1 Li1 O3 S1'
_chemical_name_structure_type CrPS4
_exptl_crystal_density_diffrn 2.17
_publ_section_title 'The crystal structure of lithium fluorosulphate Li S O3 F'
loop_
_citation_id
_citation_journal_full
_citation_year
_citation_journal_volume
_citation_page_first
_citation_page_last
_citation_journal_id_ASTM
primary 'Acta Crystallographica B (24,1968-38,1982)' 1978 34 38 40 ACBCAR
loop_
_publ_author_name
'Zak, Z.'
'Kosicka, M.'
_cell_length_a 8.54(2)
_cell_length_b 7.62(1)
_cell_length_c 4.98(2)
_cell_angle_alpha 90.
_cell_angle_beta 90.0(3)
_cell_angle_gamma 90.
_cell_volume 324.07
_cell_formula_units_Z 4
_symmetry_space_group_name_H-M 'C 1 2/m 1'
_symmetry_Int_Tables_number 12
_refine_ls_R_factor_all 0.085
loop_
_symmetry_equiv_pos_site_id
_symmetry_equiv_pos_as_xyz
1 '-x, y, -z'
2 '-x, -y, -z'
3 'x, -y, z'
4 'x, y, z'
5 '-x+1/2, y+1/2, -z'
6 '-x+1/2, -y+1/2, -z'
7 'x+1/2, -y+1/2, z'
8 'x+1/2, y+1/2, z'
loop_
_atom_type_symbol
_atom_type_oxidation_number
S6+ 6
F1- -1
O2- -2
Li1+ 1
loop_
_atom_site_label
_atom_site_type_symbol
_atom_site_symmetry_multiplicity
_atom_site_Wyckoff_symbol
_atom_site_fract_x
_atom_site_fract_y
_atom_site_fract_z
_atom_site_B_iso_or_equiv
_atom_site_occupancy
_atom_site_attached_hydrogens
S1 S6+ 4 i 0.2913(2) 0 0.2715(4) . 1. 0
F1 F1- 4 i 0.2744(7) 0 0.5827(12) . 1. 0
O1 O2- 4 i 0.1310(6) 0 0.1722(13) . 1. 0
O2 O2- 8 j 0.3726(4) 0.1597(6) 0.2208(10) . 1. 0
Li1 Li1+ 4 g 0 0.1947(18) 0 . 1. 0
loop_
_atom_site_aniso_label
_atom_site_aniso_type_symbol
_atom_site_aniso_beta_11
_atom_site_aniso_beta_22
_atom_site_aniso_beta_33
_atom_site_aniso_beta_12
_atom_site_aniso_beta_13
_atom_site_aniso_beta_23
S1 S6+ 0.0045(3) 0.0056(4) 0.0137(14) 0 -.0011(4) 0
F1 F1- 0.0123(8) 0.0162(11) 0.0275(31) 0 0.0038(11) 0
O1 O2- 0.0044(7) 0.0080(9) 0.0237(30) 0 -.0018(9) 0
O2 O2- 0.0081(6) 0.0104(8) 0.0367(30) -.0039(5) -.0040(9) 0.0036(10)
Li1 Li1+ 0.0088(18) 0.0079(22) 0.0340(85) 0 -.0032(30) 0
#End of TTdata_1384-ICSD