
#(C) 2017 by FIZ Karlsruhe - Leibniz Institute for Information Infrastructure.  All rights reserved.
data_14360-ICSD
_database_code_ICSD 14360
_audit_creation_date 1986-10-02
_audit_update_record 2006-04-01
_chemical_name_systematic 'Dilithium tetrafluoroberyllate'
_chemical_formula_structural 'Li2 (Be F4)'
_chemical_formula_sum 'Be1 F4 Li2'
_chemical_name_structure_type Be2SiO4
_exptl_crystal_density_diffrn 2.17
_publ_section_title 'Refinement of the crystal structure of Li2 Be F4'
loop_
_citation_id
_citation_journal_full
_citation_year
_citation_journal_volume
_citation_page_first
_citation_page_last
_citation_journal_id_ASTM
primary 'Acta Crystallographica (1,1948-23,1967)' 1966 20 135 138 ACCRA9
loop_
_publ_author_name
'Burns, J.H.'
'Gordon, E.K.'
_cell_length_a 13.29(1)
_cell_length_b 13.29(1)
_cell_length_c 8.91(1)
_cell_angle_alpha 90.
_cell_angle_beta 90.
_cell_angle_gamma 120.
_cell_volume 1362.88
_cell_formula_units_Z 18
_symmetry_space_group_name_H-M 'R -3 H'
_symmetry_Int_Tables_number 148
_refine_ls_R_factor_all 0.025
loop_
_symmetry_equiv_pos_site_id
_symmetry_equiv_pos_as_xyz
1 'x-y, x, -z'
2 'y, -x+y, -z'
3 '-x, -y, -z'
4 '-x+y, -x, z'
5 '-y, x-y, z'
6 'x, y, z'
7 'x-y+2/3, x+1/3, -z+1/3'
8 'y+2/3, -x+y+1/3, -z+1/3'
9 '-x+2/3, -y+1/3, -z+1/3'
10 '-x+y+2/3, -x+1/3, z+1/3'
11 '-y+2/3, x-y+1/3, z+1/3'
12 'x+2/3, y+1/3, z+1/3'
13 'x-y+1/3, x+2/3, -z+2/3'
14 'y+1/3, -x+y+2/3, -z+2/3'
15 '-x+1/3, -y+2/3, -z+2/3'
16 '-x+y+1/3, -x+2/3, z+2/3'
17 '-y+1/3, x-y+2/3, z+2/3'
18 'x+1/3, y+2/3, z+2/3'
loop_
_atom_type_symbol
_atom_type_oxidation_number
Li1+ 1
Be2+ 2
F1- -1
loop_
_atom_site_label
_atom_site_type_symbol
_atom_site_symmetry_multiplicity
_atom_site_Wyckoff_symbol
_atom_site_fract_x
_atom_site_fract_y
_atom_site_fract_z
_atom_site_B_iso_or_equiv
_atom_site_occupancy
_atom_site_attached_hydrogens
Li1 Li1+ 18 f -.02153(8) -.21540(8) 0.58160(11) . 1. 0
Li2 Li1+ 18 f -.01634(8) -.20734(8) -.0849(1) . 1. 0
Be1 Be2+ 18 f -.01546(5) -.21169(5) 0.24927(7) . 1. 0
F1 F1- 18 f 0.11055(3) -.10576(3) 0.25193(3) . 1. 0
F2 F1- 18 f -.00590(3) -.32318(2) 0.24859(4) . 1. 0
F3 F1- 18 f -.07496(3) -.20347(3) 0.10408(3) . 1. 0
F4 F1- 18 f -.08185(3) -.20918(3) 0.39227(3) . 1. 0
loop_
_atom_site_aniso_label
_atom_site_aniso_type_symbol
_atom_site_aniso_beta_11
_atom_site_aniso_beta_22
_atom_site_aniso_beta_33
_atom_site_aniso_beta_12
_atom_site_aniso_beta_13
_atom_site_aniso_beta_23
Li1 Li1+ 0.00247(6) 0.00268(6) 0.00345(10) 0.00132(5) 0.00000(6) -.00010(6)
Li2 Li1+ 0.00241(6) 0.00264(6) 0.00334(10) 0.00128(5) 0.00000(6) 0.00003(6)
Be1 Be2+ 0.00159(4) 0.00182(4) 0.00237(6) 0.00087(3) 0.00005(4) 0.000006(4)
F1 F1- 0.00194(2) 0.00213(2) 0.00360(4) 0.00030(2) -.00018(2) 0.00005(2)
F2 F1- 0.00216(2) 0.00176(2) 0.00479(4) 0.00105(2) 0.00022(2) 0.00017(2)
F3 F1- 0.00237(2) 0.00360(3) 0.00249(4) 0.00188(2) -.00026(2) 0.00004(2)
F4 F1- 0.00269(2) 0.00371(3) 0.00258(4) 0.00214(2) 0.00045(2) 0.00017(2)
#End of TTdata_14360-ICSD