
#(C) 2018 by FIZ Karlsruhe - Leibniz Institute for Information Infrastructure.  All rights reserved.
data_152080-ICSD
_database_code_ICSD 152080
_audit_creation_date 2006-10-01
_chemical_name_systematic
'Lithium scandium indium catena-disilicate (1/0.74/0.26/1) - LT'
_chemical_formula_structural 'Li (Sc0.74 In0.26) (Si2 O6)'
_chemical_formula_sum 'In0.26 Li1 O6 Sc0.74 Si2'
_chemical_name_structure_type Pyroxene-MgSiO3-LT
_chemical_name_mineral Clinopyroxene
_exptl_crystal_density_diffrn 3.37
_cell_measurement_temperature 90.
_publ_section_title

;
Structural changes upon the temperature dependent C2/c - P21/c phase
transition in Li Me(3+) Si2 O6 clinopyroxenes, Me = Cr, Ga, Fe, V, Sc and In
;
loop_
_citation_id
_citation_journal_full
_citation_year
_citation_journal_volume
_citation_page_first
_citation_page_last
_citation_journal_id_ASTM
primary 'Zeitschrift fuer Kristallographie (1979-2010)' 2004 219 585 605 ZEKRDZ
loop_
_publ_author_name
'Redhammer, G.J.'
'Roth, G.'
_cell_length_a 9.762(3)
_cell_length_b 8.955(3)
_cell_length_c 5.351(1)
_cell_angle_alpha 90.
_cell_angle_beta 110.49(3)
_cell_angle_gamma 90.
_cell_volume 438.18
_cell_formula_units_Z 4
_symmetry_space_group_name_H-M 'P 1 21/c 1'
_symmetry_Int_Tables_number 14
_refine_ls_R_factor_all 0.0312
loop_
_symmetry_equiv_pos_site_id
_symmetry_equiv_pos_as_xyz
1 'x, -y+1/2, z+1/2'
2 '-x, -y, -z'
3 '-x, y+1/2, -z+1/2'
4 'x, y, z'
loop_
_atom_type_symbol
_atom_type_oxidation_number
Li1+ 1
Sc3+ 3
In3+ 3
Si4+ 4
O2- -2
loop_
_atom_site_label
_atom_site_type_symbol
_atom_site_symmetry_multiplicity
_atom_site_Wyckoff_symbol
_atom_site_fract_x
_atom_site_fract_y
_atom_site_fract_z
_atom_site_B_iso_or_equiv
_atom_site_occupancy
_atom_site_attached_hydrogens
Li1 Li1+ 4 e 0.2495(10) -0.0002(6) 0.2468(13) 0.0089(9) 1. 0
Sc1 Sc3+ 4 e 0.2501(1) 0.6442(1) 0.2476(1) 0.0010(1) 0.74 0
In1 In3+ 4 e 0.2501(1) 0.6442(1) 0.2476(1) 0.0010(1) 0.26 0
Si1 Si4+ 4 e 0.0504(1) 0.3364(1) 0.2806(2) 0.0017(2) 1. 0
Si2 Si4+ 4 e 0.5505(1) 0.8363(1) 0.2758(2) 0.0022(2) 1. 0
O1 O2- 4 e 0.6042(3) 0.7339(3) 0.5438(4) 0.0045(5) 1. 0
O2 O2- 4 e 0.1057(3) 0.2419(3) 0.5576(4) 0.0054(6) 1. 0
O3 O2- 4 e 0.6224(3) -0.0034(3) 0.3578(4) 0.0043(6) 1. 0
O4 O2- 4 e 0.1213(3) 0.4984(3) 0.3509(4) 0.0047(6) 1. 0
O5 O2- 4 e 0.3710(3) 0.8332(3) 0.1565(4) 0.0032(5) 1. 0
O6 O2- 4 e 0.8709(3) 0.3326(3) 0.1617(4) 0.0027(5) 1. 0
#End of TTdata_152080-ICSD