
#(C) 2018 by FIZ Karlsruhe - Leibniz Institute for Information Infrastructure.  All rights reserved.
data_152397-ICSD
_database_code_ICSD 152397
_audit_creation_date 2006-10-01
_chemical_name_systematic
'Praseodymium lithium rhodium(III) rhodium(IV) oxide (18/8/4/1/39)'
_chemical_formula_structural 'Pr18 Li8 Rh5 O39'
_chemical_formula_sum 'Li8 O39 Pr18 Rh5'
_chemical_name_structure_type Nd18Li8Fe5O39
_exptl_crystal_density_diffrn 7.05
_publ_section_title

;
Ln18 Li8 Rh5 O39 (Ln = La, Pr): a mixed-metal oxide with a charge-ordered
arrangement of Rh(3+) and Rh(4+)
;
loop_
_citation_id
_citation_journal_full
_citation_year
_citation_journal_volume
_citation_page_first
_citation_page_last
_citation_journal_id_ASTM
primary 'Inorganic Chemistry' 2005 44 7138 7142 INOCAJ
loop_
_publ_author_name
'Frampton, P.P.C.'
'Battle, P.D.'
'Ritter, C.'
_cell_length_a 12.0593(2)
_cell_length_b 12.0593(2)
_cell_length_c 12.0593(2)
_cell_angle_alpha 90.
_cell_angle_beta 90.
_cell_angle_gamma 90.
_cell_volume 1753.74
_cell_formula_units_Z 2
_symmetry_space_group_name_H-M 'P m -3 n'
_symmetry_Int_Tables_number 223
_refine_ls_R_factor_all 0.038
loop_
_symmetry_equiv_pos_site_id
_symmetry_equiv_pos_as_xyz
1 'z+1/2, -y+1/2, x+1/2'
2 'y+1/2, -x+1/2, z+1/2'
3 'x+1/2, -z+1/2, y+1/2'
4 '-z+1/2, y+1/2, -x+1/2'
5 '-y+1/2, x+1/2, -z+1/2'
6 '-x+1/2, z+1/2, -y+1/2'
7 'z+1/2, y+1/2, -x+1/2'
8 'y+1/2, x+1/2, -z+1/2'
9 'x+1/2, z+1/2, -y+1/2'
10 '-z+1/2, -y+1/2, x+1/2'
11 '-y+1/2, -x+1/2, z+1/2'
12 '-x+1/2, -z+1/2, y+1/2'
13 '-z+1/2, y+1/2, x+1/2'
14 '-y+1/2, x+1/2, z+1/2'
15 '-x+1/2, z+1/2, y+1/2'
16 'z+1/2, -y+1/2, -x+1/2'
17 'y+1/2, -x+1/2, -z+1/2'
18 'x+1/2, -z+1/2, -y+1/2'
19 '-z+1/2, -y+1/2, -x+1/2'
20 '-y+1/2, -x+1/2, -z+1/2'
21 '-x+1/2, -z+1/2, -y+1/2'
22 'z+1/2, y+1/2, x+1/2'
23 'y+1/2, x+1/2, z+1/2'
24 'x+1/2, z+1/2, y+1/2'
25 'z, x, -y'
26 'y, z, -x'
27 'x, y, -z'
28 '-z, -x, y'
29 '-y, -z, x'
30 '-x, -y, z'
31 'z, -x, y'
32 'y, -z, x'
33 'x, -y, z'
34 '-z, x, -y'
35 '-y, z, -x'
36 '-x, y, -z'
37 '-z, x, y'
38 '-y, z, x'
39 '-x, y, z'
40 'z, -x, -y'
41 'y, -z, -x'
42 'x, -y, -z'
43 '-z, -x, -y'
44 '-y, -z, -x'
45 '-x, -y, -z'
46 'z, x, y'
47 'y, z, x'
48 'x, y, z'
loop_
_atom_type_symbol
_atom_type_oxidation_number
Pr3+ 3
Rh4+ 4
Rh3+ 3
Li1+ 1
O2- -2
loop_
_atom_site_label
_atom_site_type_symbol
_atom_site_symmetry_multiplicity
_atom_site_Wyckoff_symbol
_atom_site_fract_x
_atom_site_fract_y
_atom_site_fract_z
_atom_site_B_iso_or_equiv
_atom_site_occupancy
_atom_site_attached_hydrogens
Pr1 Pr3+ 24 k 0 0.3082(3) 0.3063(3) 0.0086(7) 1. 0
Pr2 Pr3+ 12 f 0.3447(4) 0 0 0.001(1) 1. 0
Rh1 Rh4+ 2 a 0 0 0 0.009(2) 1. 0
Rh2 Rh3+ 8 e 0.25 0.25 0.25 0.0112(9) 1. 0
Li1 Li1+ 16 i 0.3749(6) 0.3749(6) 0.3749(6) 0.016(3) 1. 0
O1 O2- 48 l 0.8638(2) 0.8616(2) 0.6910(2) 0.0063(4) 1. 0
O2 O2- 6 d 0.25 0.5 0 0.013(1) 1. 0
O3 O2- 12 g 0.6310(4) 0 0.5 0.017(1) 1. 0
O4 O2- 48 l 0.1590(3) 0.011(2) 0.011(2) 0.0059(3) 0.25 0
#End of TTdata_152397-ICSD