
#(C) 2017 by FIZ Karlsruhe - Leibniz Institute for Information Infrastructure.  All rights reserved.
data_153517-ICSD
_database_code_ICSD 153517
_audit_creation_date 2006-10-01
_chemical_name_systematic
'Lithium strontium gallium chromium fluoride (1/1/0.99/0.01/6)'
_chemical_formula_structural 'Li Sr (Ga0.985 Cr0.015) F6'
_chemical_formula_sum 'Cr0.015 F6 Ga0.985 Li1 Sr1'
_chemical_name_structure_type CaLiAlF6
_exptl_crystal_density_diffrn 3.84
_cell_measurement_temperature 539.
_publ_section_title 'Thermal expansion in Cr:Li Sr Ga F6'
loop_
_citation_id
_citation_journal_full
_citation_year
_citation_journal_volume
_citation_page_first
_citation_page_last
_citation_journal_id_ASTM
primary 'Materials Research Bulletin' 2005 40 1976 1984 MRBUAC
loop_
_publ_author_name
'Grzechnik, A.'
'Izaola Azcona, Z.'
'Bereciartua, P.'
'Friese, K.'
'Doyle, S.'
_cell_length_a 5.18884(3)
_cell_length_b 5.18884(3)
_cell_length_c 10.31716(8)
_cell_angle_alpha 90.
_cell_angle_beta 90.
_cell_angle_gamma 120.
_cell_volume 240.56
_cell_formula_units_Z 2
_symmetry_space_group_name_H-M 'P -3 1 c'
_symmetry_Int_Tables_number 163
_refine_ls_R_factor_all 0.0578
loop_
_symmetry_equiv_pos_site_id
_symmetry_equiv_pos_as_xyz
1 '-x+y, y, -z+1/2'
2 'x, x-y, -z+1/2'
3 '-y, -x, -z+1/2'
4 'x-y, x, -z'
5 'y, -x+y, -z'
6 '-x, -y, -z'
7 'x-y, -y, z+1/2'
8 '-x, -x+y, z+1/2'
9 'y, x, z+1/2'
10 '-x+y, -x, z'
11 '-y, x-y, z'
12 'x, y, z'
loop_
_atom_type_symbol
_atom_type_oxidation_number
Li1+ 1
Sr2+ 2
Ga3+ 3
Cr3+ 3
F1- -1
loop_
_atom_site_label
_atom_site_type_symbol
_atom_site_symmetry_multiplicity
_atom_site_Wyckoff_symbol
_atom_site_fract_x
_atom_site_fract_y
_atom_site_fract_z
_atom_site_B_iso_or_equiv
_atom_site_occupancy
_atom_site_attached_hydrogens
Li1 Li1+ 2 c 0.3333 0.6667 0.25 0.02 1. 0
Sr1 Sr2+ 2 b 0 0 0 0.0391(4) 1. 0
Ga1 Ga3+ 2 d 0.6667 0.3333 0.25 0.0381(5) 0.985 0
Cr1 Cr3+ 2 d 0.6667 0.3333 0.25 0.0381(5) 0.015 0
F1 F1- 12 i 0.3809(7) 0.0185(6) 0.1370(3) 0.051(1) 1. 0
#End of TTdata_153517-ICSD