
#(C) 2018 by FIZ Karlsruhe - Leibniz Institute for Information Infrastructure.  All rights reserved.
data_153620-ICSD
_database_code_ICSD 153620
_audit_creation_date 2007-04-01
_audit_update_record 2013-02-01
_chemical_name_systematic 'Hexalithium tetranitridotungstate(VI)'
_chemical_formula_structural 'Li6 (W N4)'
_chemical_formula_sum 'Li6 N4 W1'
_chemical_name_structure_type Li6ZnO4
_exptl_crystal_density_diffrn 4.26
_publ_section_title 'Synthesis and structure of the ternary nitride Li6 W N4'
loop_
_citation_id
_citation_journal_full
_citation_year
_citation_journal_volume
_citation_page_first
_citation_page_last
_citation_journal_id_ASTM
primary 'Powder Diffraction' 2005 20 18 21 PODIE2
loop_
_publ_author_name
'Yuan, W.X.'
'Hu, J.W.'
'Song, Y.T.'
'Wang, W.J.'
'Xu, Y.-P.'
_cell_length_a 6.6759(3)
_cell_length_b 6.6759(3)
_cell_length_c 4.9280(4)
_cell_angle_alpha 90.
_cell_angle_beta 90.
_cell_angle_gamma 90.
_cell_volume 219.63
_cell_formula_units_Z 2
_symmetry_space_group_name_H-M 'P 42/n m c Z'
_symmetry_Int_Tables_number 137
_refine_ls_R_factor_all 0.046
loop_
_symmetry_equiv_pos_site_id
_symmetry_equiv_pos_as_xyz
1 'y+1/2, x+1/2, -z+1/2'
2 '-y, x+1/2, -z+1/2'
3 'y+1/2, -x, -z+1/2'
4 '-y, -x, -z+1/2'
5 'x+1/2, y+1/2, -z'
6 '-x, y+1/2, -z'
7 'x+1/2, -y, -z'
8 '-x, -y, -z'
9 '-y+1/2, -x+1/2, z+1/2'
10 'y, -x+1/2, z+1/2'
11 '-y+1/2, x, z+1/2'
12 'y, x, z+1/2'
13 '-x+1/2, -y+1/2, z'
14 'x, -y+1/2, z'
15 '-x+1/2, y, z'
16 'x, y, z'
loop_
_atom_type_symbol
_atom_type_oxidation_number
W6+ 6
N3- -3
Li1+ 1
loop_
_atom_site_label
_atom_site_type_symbol
_atom_site_symmetry_multiplicity
_atom_site_Wyckoff_symbol
_atom_site_fract_x
_atom_site_fract_y
_atom_site_fract_z
_atom_site_B_iso_or_equiv
_atom_site_occupancy
_atom_site_attached_hydrogens
W1 W6+ 2 a 0.25 0.75 0.25 0.103(1) 1. 0
N1 N3- 8 g 0.25 0.995 0.05 0.110(9) 1. 0
Li1 Li1+ 4 d 0.25 0.25 0.338 0.102(2) 1. 0
Li2 Li1+ 8 f 0.537 0.463 0.25 0.523(2) 1. 0
#End of TTdata_153620-ICSD