
#(C) 2018 by FIZ Karlsruhe - Leibniz Institute for Information Infrastructure.  All rights reserved.
data_155579-ICSD
_database_code_ICSD 155579
_audit_creation_date 2007-08-01
_chemical_name_systematic
'Lithium titanium iron(III) oxide (2.28/3.153/0.312/7.92)'
_chemical_formula_structural 'Li2.28 Ti3.153 Fe0.312 O7.92'
_chemical_formula_sum 'Fe0.312 Li2.28 O7.92 Ti3.153'
_chemical_name_structure_type Li.5TiO2
_exptl_crystal_density_diffrn 3.68
_publ_section_title

;
Neutron diffraction and Mossbauer studies of iron-substituted Li2 Ti3 O7 of
ramsdellite-type as negative electrode for Li-ion accumulator
;
loop_
_citation_id
_citation_journal_full
_citation_year
_citation_journal_volume
_citation_page_first
_citation_page_last
_citation_journal_id_ASTM
primary 'Solid State Ionics' 2006 177 1185 1191 SSIOD3
loop_
_publ_author_name
'Aldon, L.'
'Van Thournout, M.'
'Strobel, P.'
'Isnard, O.'
'Olivier Fourcade, J.'
'Jumas, J.C.'
_cell_length_a 4.9961(3)
_cell_length_b 9.5488(5)
_cell_length_c 2.9408(2)
_cell_angle_alpha 90.
_cell_angle_beta 90.
_cell_angle_gamma 90.
_cell_volume 140.3
_cell_formula_units_Z 1
_symmetry_space_group_name_H-M 'P b n m'
_symmetry_Int_Tables_number 62
_refine_ls_R_factor_all 0.0437
loop_
_symmetry_equiv_pos_site_id
_symmetry_equiv_pos_as_xyz
1 '-x+1/2, y+1/2, z'
2 'x, y, -z+1/2'
3 'x+1/2, -y+1/2, z+1/2'
4 '-x, -y, -z'
5 'x+1/2, -y+1/2, -z'
6 '-x, -y, z+1/2'
7 '-x+1/2, y+1/2, -z+1/2'
8 'x, y, z'
loop_
_atom_type_symbol
_atom_type_oxidation_number
Li1+ 1
Ti4+ 4
Fe3+ 3
O2- -2
Li1+ 1
loop_
_atom_site_label
_atom_site_type_symbol
_atom_site_symmetry_multiplicity
_atom_site_Wyckoff_symbol
_atom_site_fract_x
_atom_site_fract_y
_atom_site_fract_z
_atom_site_B_iso_or_equiv
_atom_site_occupancy
_atom_site_attached_hydrogens
Li1 Li1+ 4 c 0.9716(2) 0.1386(1) 0.25 1.54(2) 0.134 0
Ti1 Ti4+ 4 c 0.9716(2) 0.1386(1) 0.25 1.54(2) 0.788 0
Fe1 Fe3+ 4 c 0.9716(2) 0.1386(1) 0.25 1.54(2) 0.078 0
O1 O2- 4 c 0.6855(8) 0.2766(3) 0.25 0.79(4) 0.99 0
O2 O2- 4 c 0.2027(6) 0.9644(3) 0.25 0.79(4) 0.99 0
Li2 Li1+ 4 c 0.9448(7) 0.4360(5) 0.25 1.65(8) 0.218(9) 0
Li3 Li1+ 4 c 0.5822(9) 0.0186(7) 0.25 1.65(8) 0.218(9) 0
#End of TTdata_155579-ICSD