
#(C) 2018 by FIZ Karlsruhe - Leibniz Institute for Information Infrastructure.  All rights reserved.
data_155634-ICSD
_database_code_ICSD 155634
_audit_creation_date 2007-08-01
_chemical_name_systematic 'Lanthanum lithium titanate (0.55/0.35/1)'
_chemical_formula_structural 'La0.55 Li0.35 (Ti O3)'
_chemical_formula_sum 'La0.55 Li0.35 O3 Ti1'
_chemical_name_structure_type (La,Li)TiO3
_exptl_crystal_density_diffrn 5.03
_cell_measurement_temperature 77.
_publ_section_title

;
Structural investigations of migration pathways in lithium ion-conducting
La2/3-x Li3x Ti O3 perovskites
;
loop_
_citation_id
_citation_journal_full
_citation_year
_citation_journal_volume
_citation_page_first
_citation_page_last
_citation_journal_id_ASTM
primary 'Solid State Ionics' 2006 177 3037 3044 SSIOD3
loop_
_publ_author_name
'Inaguma, Y.'
'Katsumata, T.'
'Itoh, M.'
'Morii, Y.'
'Tsurui, T.'
_cell_length_a 7.7269(2)
_cell_length_b 7.7329(2)
_cell_length_c 7.7298(4)
_cell_angle_alpha 90.
_cell_angle_beta 90.
_cell_angle_gamma 90.
_cell_volume 461.87
_cell_formula_units_Z 8
_symmetry_space_group_name_H-M 'C m m m'
_symmetry_Int_Tables_number 65
_refine_ls_R_factor_all 0.0433
loop_
_symmetry_equiv_pos_site_id
_symmetry_equiv_pos_as_xyz
1 'x, -y, z'
2 '-x, y, z'
3 'x, y, -z'
4 '-x, -y, -z'
5 '-x, y, -z'
6 'x, -y, -z'
7 '-x, -y, z'
8 'x, y, z'
9 'x+1/2, -y+1/2, z'
10 '-x+1/2, y+1/2, z'
11 'x+1/2, y+1/2, -z'
12 '-x+1/2, -y+1/2, -z'
13 '-x+1/2, y+1/2, -z'
14 'x+1/2, -y+1/2, -z'
15 '-x+1/2, -y+1/2, z'
16 'x+1/2, y+1/2, z'
loop_
_atom_type_symbol
_atom_type_oxidation_number
La3+ 3
Li1+ 1
Ti4+ 4
O2- -2
loop_
_atom_site_label
_atom_site_type_symbol
_atom_site_symmetry_multiplicity
_atom_site_Wyckoff_symbol
_atom_site_fract_x
_atom_site_fract_y
_atom_site_fract_z
_atom_site_B_iso_or_equiv
_atom_site_occupancy
_atom_site_attached_hydrogens
La1 La3+ 4 i 0 0.2464(17) 0 0.24(5) 0.672 0
La2 La3+ 4 j 0 0.2588(30) 0.5 0.24(5) 0.429(7) 0
Li1 Li1+ 2 a 0.5 0.5 0 6.0(19) 0.072 0
Li2 Li1+ 4 j 0.5 0.172(6) 0.5 6.0(19) 0.664(26) 0
Ti1 Ti4+ 8 o 0.2476(25) 0 0.2492(10) 0.85(6) 1. 0
O1 O2- 4 g 0.2854(14) 0 0 1.39(20) 1. 0
O2 O2- 4 h 0.2163(14) 0 0.5 1.36(22) 1. 0
O3 O2- 4 k 0 0 0.2138(16) 2.1(3) 1. 0
O4 O2- 4 l 0 0.5 0.2713(16) 1.7(3) 1. 0
O5 O2- 8 m 0.25 0.25 0.2414(13) 2.30(9) 1. 0
#End of TTdata_155634-ICSD