
#(C) 2018 by FIZ Karlsruhe - Leibniz Institute for Information Infrastructure.  All rights reserved.
data_157654-ICSD
_database_code_ICSD 157654
_audit_creation_date 2008-02-01
_chemical_name_systematic 'Heptalithium undecathiotriphosphate(V)'
_chemical_formula_structural 'Li7 (P3 S11)'
_chemical_formula_sum 'Li7 P3 S11'
_exptl_crystal_density_diffrn 1.98
_cell_measurement_temperature 293.
_publ_section_title 'Crystal structure of a superionic conductor, Li7 P3 S11'
loop_
_citation_id
_citation_journal_full
_citation_year
_citation_journal_volume
_citation_page_first
_citation_page_last
_citation_journal_id_ASTM
primary 'Solid State Ionics' 2007 178 1163 1167 SSIOD3
loop_
_publ_author_name
'Yamane, H.'
'Shibata, M.'
'Shimane, Y.'
'Junke, T.'
'Seino, Y'
'Adams, S.'
'Minami, K.'
'Hayashi, A.'
'Tatsumisago, M.'
_cell_length_a 12.5009(3)
_cell_length_b 6.03160(17)
_cell_length_c 12.5303(3)
_cell_angle_alpha 102.845(3)
_cell_angle_beta 113.2024(18)
_cell_angle_gamma 74.467(3)
_cell_volume 829.35
_cell_formula_units_Z 2
_symmetry_space_group_name_H-M 'P -1'
_symmetry_Int_Tables_number 2
_refine_ls_R_factor_all 0.0073
loop_
_symmetry_equiv_pos_site_id
_symmetry_equiv_pos_as_xyz
1 '-x, -y, -z'
2 'x, y, z'
loop_
_atom_type_symbol
_atom_type_oxidation_number
P5+ 5
S2- -2
Li1+ 1
loop_
_atom_site_label
_atom_site_type_symbol
_atom_site_symmetry_multiplicity
_atom_site_Wyckoff_symbol
_atom_site_fract_x
_atom_site_fract_y
_atom_site_fract_z
_atom_site_B_iso_or_equiv
_atom_site_occupancy
_atom_site_attached_hydrogens
P1 P5+ 2 i 0.7938(5) 0.0334(9) 0.4654(5) 1.46(6) 1. 0
P2 P5+ 2 i 0.4929(4) 0.0380(8) 0.2966(4) 1.46(6) 1. 0
P3 P5+ 2 i 0.8400(6) 0.2698(10) 0.0585(6) 1.46(6) 1. 0
S1 S2- 2 i 0.8606(6) 0.2363(9) 0.6195(5) 1.46(6) 1. 0
S2 S2- 2 i 0.8235(6) 0.1052(12) 0.3342(5) 1.46(6) 1. 0
S3 S2- 2 i 0.8400(5) -0.3171(8) 0.4680(5) 1.46(6) 1. 0
S4 S2- 2 i 0.6176(4) 0.1597(10) 0.4529(5) 1.46(6) 1. 0
S5 S2- 2 i 0.3306(5) 0.2267(10) 0.2884(6) 1.46(6) 1. 0
S6 S2- 2 i 0.5086(6) 0.0795(12) 0.1507(5) 1.46(6) 1. 0
S7 S2- 2 i 0.5094(6) -0.2999(9) 0.3074(5) 1.46(6) 1. 0
S8 S2- 2 i 0.8406(6) 0.3302(11) -0.0967(5) 1.46(6) 1. 0
S9 S2- 2 i 0.8279(6) -0.0734(13) 0.0462(6) 1.46(6) 1. 0
S10 S2- 2 i 0.6781(5) 0.4874(11) 0.0640(6) 1.46(6) 1. 0
S11 S2- 2 i 0.9772(6) 0.3509(13) 0.1876(5) 1.46(6) 1. 0
Li1 Li1+ 2 i 0.669(2) 0.1322(19) 0.092(3) 1.46(6) 1. 0
Li2 Li1+ 2 i 0.6381(7) 0.402(4) 0.8657(14) 1.46(6) 1. 0
Li3 Li1+ 2 i 0.216(3) 0.530(7) 0.740(3) 1.46(6) 1. 0
Li4 Li1+ 2 i -0.0580(10) 0.786(7) 0.270(3) 1.46(6) 1. 0
Li5 Li1+ 2 i 0.359(6) 0.5909(17) 0.3368(18) 1.46(6) 1. 0
Li6 Li1+ 2 i 0.637(3) 0.734(7) 0.498(3) 1.46(6) 1. 0
Li7 Li1+ 2 i 0.139(2) 0.294(6) 0.134(3) 1.46(6) 1. 0
#End of TTdata_157654-ICSD