
#(C) 2017 by FIZ Karlsruhe - Leibniz Institute for Information Infrastructure.  All rights reserved.
data_15785-ICSD
_database_code_ICSD 15785
_audit_creation_date 1980-01-01
_audit_update_record 2005-10-01
_chemical_name_systematic 'Cesium lithium aluminium fluoride (1/0.5/1.5/6)'
_chemical_formula_structural 'Cs Li0.5 Al1.5 F6'
_chemical_formula_sum 'Al1.5 Cs1 F6 Li0.5'
_chemical_name_structure_type Cs2NaAl3F12
_exptl_crystal_density_diffrn 3.91
_publ_section_title

;
Ordre cationique 0.333 dans les pyrochlores: A(I) (M(I)0.5 Al1.5) F6 (M= Li,
Na, K, Rb)
;
loop_
_citation_id
_citation_journal_full
_citation_year
_citation_journal_volume
_citation_page_first
_citation_page_last
_citation_journal_id_ASTM
primary 'Materials Research Bulletin' 1974 9 425 434 MRBUAC
loop_
_publ_author_name
'Courbion, G.'
'Jacoboni, C.'
'de Pape, R.'
_cell_length_a 7.106(3)
_cell_length_b 7.106
_cell_length_c 7.106
_cell_angle_alpha 58.8(1)
_cell_angle_beta 58.8
_cell_angle_gamma 58.8
_cell_volume 246.77
_cell_formula_units_Z 2
_symmetry_space_group_name_H-M 'R -3 m R'
_symmetry_Int_Tables_number 166
_refine_ls_R_factor_all 0.1
loop_
_symmetry_equiv_pos_site_id
_symmetry_equiv_pos_as_xyz
1 '-z, -y, -x'
2 '-z, -x, -y'
3 '-x, -z, -y'
4 '-y, -z, -x'
5 '-y, -x, -z'
6 '-x, -y, -z'
7 'z, y, x'
8 'z, x, y'
9 'x, z, y'
10 'y, z, x'
11 'y, x, z'
12 'x, y, z'
loop_
_atom_type_symbol
_atom_type_oxidation_number
Cs1+ 1
Li1+ 1
Al3+ 3
F1- -1
loop_
_atom_site_label
_atom_site_type_symbol
_atom_site_symmetry_multiplicity
_atom_site_Wyckoff_symbol
_atom_site_fract_x
_atom_site_fract_y
_atom_site_fract_z
_atom_site_B_iso_or_equiv
_atom_site_occupancy
_atom_site_attached_hydrogens
Cs1 Cs1+ 2 c 0.374 0.374 0.374 1.8 1. 0
Li1 Li1+ 1 a 0 0 0 1.8 1. 0
Al1 Al3+ 3 d 0.5 0 0 1.8 1. 0
F1 F1- 6 h 0.32 0.32 -.09 1.8 1. 0
F2 F1- 6 h -.075 -.075 0.34 1.8 1. 0
#End of TTdata_15785-ICSD