
#(C) 2018 by FIZ Karlsruhe - Leibniz Institute for Information Infrastructure.  All rights reserved.
data_157890-ICSD
_database_code_ICSD 157890
_audit_creation_date 2008-02-01
_chemical_name_systematic
'Lithium cobalt oxotitanium arsenate(V) (0.5/0.25/1/1)'
_chemical_formula_structural '(Li0.5 Co0.25) (Ti O) (As O4)'
_chemical_formula_sum 'As1 Co0.25 Li0.5 O5 Ti1'
_chemical_name_structure_type Li.5Ni.25TiOPO4
_exptl_crystal_density_diffrn 3.96
_cell_measurement_temperature 293.
_publ_section_title

;
Synthesis and characterization of Li0.5 M0.25 Ti O As O4 (M= Mg, Co, Ni, Zn)
oxyarsenates
;
loop_
_citation_id
_citation_journal_full
_citation_year
_citation_journal_volume
_citation_page_first
_citation_page_last
_citation_journal_id_ASTM
primary 'Powder Diffraction' 2006 21 229 235 PODIE2
loop_
_publ_author_name
'Chakir, M.'
'El Jazouli, A.'
'Chaminade, J.P.'
_cell_length_a 6.593(2)
_cell_length_b 7.488(2)
_cell_length_c 7.506(2)
_cell_angle_alpha 90.
_cell_angle_beta 89.49
_cell_angle_gamma 90.
_cell_volume 370.54
_cell_formula_units_Z 4
_symmetry_space_group_name_H-M 'P 1 21/c 1'
_symmetry_Int_Tables_number 14
_refine_ls_R_factor_all 0.032
loop_
_symmetry_equiv_pos_site_id
_symmetry_equiv_pos_as_xyz
1 'x, -y+1/2, z+1/2'
2 '-x, -y, -z'
3 '-x, y+1/2, -z+1/2'
4 'x, y, z'
loop_
_atom_type_symbol
_atom_type_oxidation_number
Li1+ 1
Co2+ 2
Li1+ 1
Co2+ 2
Ti4+ 4
As5+ 5
O2- -2
loop_
_atom_site_label
_atom_site_type_symbol
_atom_site_symmetry_multiplicity
_atom_site_Wyckoff_symbol
_atom_site_fract_x
_atom_site_fract_y
_atom_site_fract_z
_atom_site_B_iso_or_equiv
_atom_site_occupancy
_atom_site_attached_hydrogens
Li1 Li1+ 2 a 0 0 0 0.5(5) 0.32 0
Co1 Co2+ 2 a 0 0 0 0.5(5) 0.44 0
Li2 Li1+ 2 b 0.5 0 0 1.5(3) 0.68 0
Co2 Co2+ 2 b 0.5 0 0 1.0(1) 0.06 0
Ti1 Ti4+ 4 e 0.7461(6) 0.2263(2) 0.3352(3) 0.3(5) 1. 0
As1 As5+ 4 e 0.2490(3) 0.1295(2) 0.3751(2) 0.3(3) 1. 0
O1 O2- 4 e 0.7499(13) 0.1647(7) 0.1116(9) 0.3(1) 1. 0
O2 O2- 4 e 0.7581(12) 0.0001(9) 0.8094(9) 0.3(1) 1. 0
O3 O2- 4 e 0.2484(1) 0.4923(8) 0.0680(8) 0.3(1) 1. 0
O4 O2- 4 e 0.4591(14) 0.2412(10) 0.8687(10) 0.3(1) 1. 0
O5 O2- 4 e 0.9577(14) 0.7644(9) 0.1283(11) 0.3(1) 1. 0
#End of TTdata_157890-ICSD