
#(C) 2018 by FIZ Karlsruhe - Leibniz Institute for Information Infrastructure.  All rights reserved.
data_157946-ICSD
_database_code_ICSD 157946
_audit_creation_date 2008-02-01
_chemical_name_systematic
'Lithium cobalt oxotitanium phosphate(V) (0.5/0.25/1/1)'
_chemical_formula_structural 'Li0.5 Co0.25 (Ti O) (P O4)'
_chemical_formula_sum 'Co0.25 Li0.5 O5 P1 Ti1'
_chemical_name_structure_type Li.5Ni.25TiOPO4
_exptl_crystal_density_diffrn 3.42
_cell_measurement_temperature 293.
_publ_section_title 'Crystal structure of Li0.50 Co0.25 Ti O (P O4)'
loop_
_citation_id
_citation_journal_full
_citation_year
_citation_journal_volume
_citation_page_first
_citation_page_last
_citation_journal_id_ASTM
primary 'Phosphorus Research Bulletin' 2004 15 131 135 PREBE7
loop_
_publ_author_name
'Belmal, H.'
'El Jazouli, A.'
'Chaminade, J.P.'
_cell_length_a 6.400(1)
_cell_length_b 7.279(1)
_cell_length_c 7.385(1)
_cell_angle_alpha 90.
_cell_angle_beta 90.36(2)
_cell_angle_gamma 90.
_cell_volume 344.03
_cell_formula_units_Z 4
_symmetry_space_group_name_H-M 'P 1 21/c 1'
_symmetry_Int_Tables_number 14
_refine_ls_R_factor_all 0.05
loop_
_symmetry_equiv_pos_site_id
_symmetry_equiv_pos_as_xyz
1 'x, -y+1/2, z+1/2'
2 '-x, -y, -z'
3 '-x, y+1/2, -z+1/2'
4 'x, y, z'
loop_
_atom_type_symbol
_atom_type_oxidation_number
Li1+ 1
Co2+ 2
Ti4+ 4
P5+ 5
O2- -2
loop_
_atom_site_label
_atom_site_type_symbol
_atom_site_symmetry_multiplicity
_atom_site_Wyckoff_symbol
_atom_site_fract_x
_atom_site_fract_y
_atom_site_fract_z
_atom_site_B_iso_or_equiv
_atom_site_occupancy
_atom_site_attached_hydrogens
Li1 Li1+ 2 a 0 0 0 0.49(2) 1. 0
Co1 Co2+ 2 b 0.5 0 0 0.38(3) 0.5 0
Ti1 Ti4+ 4 e 0.7580(9) 0.2205(7) 0.3339(8) 0.30(4) 1. 0
P1 P5+ 4 e 0.2512(6) 0.1270(10) 0.3743(12) 0.40(3) 1. 0
O1 O2- 4 e 0.7538(1) 0.1551(4) 0.1146(3) 0.29(2) 1. 0
O2 O2- 4 e 0.7362(12) 0.0028(10) 0.7968(9) 0.29(2) 1. 0
O3 O2- 4 e 0.2491(13) 0.4886(1) 0.0528(5) 0.29(2) 1. 0
O4 O2- 4 e 0.4514(10) 0.2487(5) 0.8696(2) 0.29(2) 1. 0
O5 O2- 4 e 0.9548(1) 0.7453(8) 0.1324(15) 0.29(2) 1. 0
#End of TTdata_157946-ICSD