
#(C) 2018 by FIZ Karlsruhe - Leibniz Institute for Information Infrastructure.  All rights reserved.
data_158581-ICSD
_database_code_ICSD 158581
_audit_creation_date 2008-08-01
_chemical_name_systematic 'Lithium iron(III) catena-disilicate - RT'
_chemical_formula_structural 'Li Fe (Si2 O6)'
_chemical_formula_sum 'Fe1 Li1 O6 Si2'
_chemical_name_structure_type Pyroxene-CaMg(SiO3)2
_chemical_name_mineral Aegirine-Li
_exptl_crystal_density_diffrn 3.43
_cell_measurement_temperature 298.
_publ_section_title

;
The crystal and magnetic structure of Li-aegirine Li Fe(3+) Si2 O6: a
temperature-dependent study
;
loop_
_citation_id
_citation_journal_full
_citation_year
_citation_journal_volume
_citation_page_first
_citation_page_last
_citation_journal_id_ASTM
primary 'Physics and Chemistry of Minerals' 2001 28 337 346 PCMIDU
loop_
_publ_author_name
'Redhammer, G.J.'
'Roth, G.'
'Paulus, W.'
'Andre, G.'
'Lottermoser, W.'
'Amthauer, G.'
'Treutmann, W.'
'Koppelhuber-Bitschnau, B.'
_cell_length_a 9.684(2)
_cell_length_b 8.661(2)
_cell_length_c 5.292(1)
_cell_angle_alpha 90.
_cell_angle_beta 110.12(3)
_cell_angle_gamma 90.
_cell_volume 416.77
_cell_formula_units_Z 4
_symmetry_space_group_name_H-M 'C 1 2/c 1'
_symmetry_Int_Tables_number 15
_refine_ls_R_factor_all 0.0162
loop_
_symmetry_equiv_pos_site_id
_symmetry_equiv_pos_as_xyz
1 'x, -y, z+1/2'
2 '-x, -y, -z'
3 '-x, y, -z+1/2'
4 'x, y, z'
5 'x+1/2, -y+1/2, z+1/2'
6 '-x+1/2, -y+1/2, -z'
7 '-x+1/2, y+1/2, -z+1/2'
8 'x+1/2, y+1/2, z'
loop_
_atom_type_symbol
_atom_type_oxidation_number
Li1+ 1
Fe3+ 3
Si4+ 4
O2- -2
loop_
_atom_site_label
_atom_site_type_symbol
_atom_site_symmetry_multiplicity
_atom_site_Wyckoff_symbol
_atom_site_fract_x
_atom_site_fract_y
_atom_site_fract_z
_atom_site_B_iso_or_equiv
_atom_site_occupancy
_atom_site_attached_hydrogens
Li1 Li1+ 4 e 0 0.2624(5) 0.25 0.0106(8) 1. 0
Fe1 Fe3+ 4 e 0 0.89832(3) 0.25 0.0029(1) 1. 0
Si1 Si4+ 8 f 0.29616(4) 0.08948(5) 0.26580(1) 0.0012(9) 1. 0
O1 O2- 8 f 0.1159(1) 0.0848(1) 0.1496(2) 0.0057(2) 1. 0
O2 O2- 8 f 0.3665(1) 0.2585(1) 0.3255(2) 0.0092(2) 1. 0
O3 O2- 8 f 0.3557(1) -0.0011(1) 0.0549(2) 0.0098(2) 1. 0
#End of TTdata_158581-ICSD