
#(C) 2018 by FIZ Karlsruhe - Leibniz Institute for Information Infrastructure.  All rights reserved.
data_158512-ICSD
_database_code_ICSD 158512
_audit_creation_date 2008-02-01
_chemical_name_systematic 'Lithium aluminium catena-disilicate'
_chemical_formula_structural 'Li Al (Si2 O6)'
_chemical_formula_sum 'Al1 Li1 O6 Si2'
_chemical_name_structure_type Pyroxene-MgSiO3-LT
_chemical_name_mineral Spodumene
_exptl_crystal_density_diffrn 3.42
_cell_measurement_temperature 293.
_cell_measurement_pressure 8835000.
_publ_section_title

;
Displacive phase transitions in C-centred clinopyroxenes: spodumene, Li Sc Si2
O6 and Zn Si O3
;
loop_
_citation_id
_citation_journal_full
_citation_year
_citation_journal_volume
_citation_page_first
_citation_page_last
_citation_journal_id_ASTM
primary 'Physics and Chemistry of Minerals' 2000 27 719 731 PCMIDU
loop_
_publ_author_name
'Arlt, T.'
'Angel, R.J.'
_cell_length_a 9.2007(4)
_cell_length_b 8.2656(5)
_cell_length_c 5.0240(2)
_cell_angle_alpha 90.
_cell_angle_beta 108.910(4)
_cell_angle_gamma 90.
_cell_volume 361.45
_cell_formula_units_Z 4
_symmetry_space_group_name_H-M 'P 1 21/c 1'
_symmetry_Int_Tables_number 14
_refine_ls_R_factor_all 0.036
loop_
_symmetry_equiv_pos_site_id
_symmetry_equiv_pos_as_xyz
1 'x, -y+1/2, z+1/2'
2 '-x, -y, -z'
3 '-x, y+1/2, -z+1/2'
4 'x, y, z'
loop_
_atom_type_symbol
_atom_type_oxidation_number
Al3+ 3
Li1+ 1
Si4+ 4
O2- -2
Si4+ 4
O2- -2
loop_
_atom_site_label
_atom_site_type_symbol
_atom_site_symmetry_multiplicity
_atom_site_Wyckoff_symbol
_atom_site_fract_x
_atom_site_fract_y
_atom_site_fract_z
_atom_site_B_iso_or_equiv
_atom_site_occupancy
_atom_site_attached_hydrogens
Al1 Al3+ 4 e 0.2505(3) 0.6565(4) 0.2156(5) 0.31(4) 1. 0
Li1 Li1+ 4 e 0.2587(18) 0.015(2) 0.224(3) 2.3(3) 1. 0
Si1 Si4+ 4 e 0.0468(2) 0.3441(4) 0.2821(4) 0.42(4) 1. 0
O1 O2- 4 e 0.8590(5) 0.3327(9) 0.1741(9) 0.36(8) 1. 0
O2 O2- 4 e 0.1168(6) 0.5169(8) 0.2844(8) 0.82(8) 1. 0
O3 O2- 4 e 0.1128(6) 0.2857(7) 0.6091(9) 0.27(8) 1. 0
Si2 Si4+ 4 e 0.5533(2) 0.8413(4) 0.2302(4) 0.39(4) 1. 0
O4 O2- 4 e 0.3659(5) 0.8307(9) 0.1081(8) 0.37(8) 1. 0
O5 O2- 4 e 0.6247(5) 0.0074(9) 0.3662(9) 0.33(9) 1. 0
O6 O2- 4 e 0.6136(5) 0.6999(8) 0.4667(8) 0.36(9) 1. 0
#End of TTdata_158512-ICSD