
#(C) 2018 by FIZ Karlsruhe - Leibniz Institute for Information Infrastructure.  All rights reserved.
data_159108-ICSD
_database_code_ICSD 159108
_audit_creation_date 2008-08-01
_chemical_name_systematic 'Lithium magnesium iron phosphate(V) (0.95/0.05/1/1)'
_chemical_formula_structural '(Li0.953 Mg0.047) Fe (P O4)'
_chemical_formula_sum 'Fe1 Li0.953 Mg0.047 O4 P1'
_chemical_name_structure_type Olivine-Mg2SiO4
_exptl_crystal_density_diffrn 3.62
_publ_section_title

;
Performance and structure of Mg(2+) doped lithium iron phosphate prepared by
chemical precipitation method
;
loop_
_citation_id
_citation_journal_full
_citation_year
_citation_journal_volume
_citation_page_first
_citation_page_last
_citation_journal_id_ASTM
primary 'Gongneng Cailiao' 2006 12 1942 1945 GOCAEA
loop_
_publ_author_name
'Zhang Peixin'
'Wen Yanxuan'
'Liu Jianhong'
'Xu Qiming'
'Ren Xiangzhong'
'Zhang Qianling'
_cell_length_a 10.3181(9)
_cell_length_b 6.0049(5)
_cell_length_c 4.6985(4)
_cell_angle_alpha 90.
_cell_angle_beta 90.
_cell_angle_gamma 90.
_cell_volume 291.12
_cell_formula_units_Z 4
_symmetry_space_group_name_H-M 'P n m a'
_symmetry_Int_Tables_number 62
_refine_ls_R_factor_all 0.0428
loop_
_symmetry_equiv_pos_site_id
_symmetry_equiv_pos_as_xyz
1 'x+1/2, y, -z+1/2'
2 'x, -y+1/2, z'
3 '-x+1/2, y+1/2, z+1/2'
4 '-x, -y, -z'
5 '-x+1/2, -y, z+1/2'
6 '-x, y+1/2, -z'
7 'x+1/2, -y+1/2, -z+1/2'
8 'x, y, z'
loop_
_atom_type_symbol
_atom_type_oxidation_number
Li1+ 1
Mg2+ 2
Fe2+ 2
P5+ 5
O2- -2
loop_
_atom_site_label
_atom_site_type_symbol
_atom_site_symmetry_multiplicity
_atom_site_Wyckoff_symbol
_atom_site_fract_x
_atom_site_fract_y
_atom_site_fract_z
_atom_site_B_iso_or_equiv
_atom_site_occupancy
_atom_site_attached_hydrogens
Li1 Li1+ 4 a 0 0 0 0.34 0.953 0
Mg1 Mg2+ 4 a 0 0 0 0.37 0.047 0
Fe1 Fe2+ 4 c 0.2820(2) 0.25 0.9741(5) 0.21 1. 0
P1 P5+ 4 c 0.0954(3) 0.25 0.4198(7) 0.21 1. 0
O1 O2- 4 c 0.0953(8) 0.25 0.7384(15) 0.16 1. 0
O2 O2- 4 c 0.4566(8) 0.25 0.2050(14) 0.15 1. 0
O3 O2- 8 d 0.1654(6) 0.0487(9) 0.2861(9) 0.17 1. 0
#End of TTdata_159108-ICSD