
#(C) 2018 by FIZ Karlsruhe - Leibniz Institute for Information Infrastructure.  All rights reserved.
data_160616-ICSD
_database_code_ICSD 160616
_audit_creation_date 2009-02-01
_chemical_name_systematic 'Lithium sodium amide (3.17/0.83/4)'
_chemical_formula_structural 'Li3.17 Na0.83 (N H2)4'
_chemical_formula_sum 'H8 Li3.17 N4 Na0.83'
_chemical_name_structure_type LiNH2
_exptl_crystal_density_diffrn 1.2
_publ_section_title
'The synthesis and structural investigation of mixed lithium/sodium amides'
loop_
_citation_id
_citation_journal_full
_citation_year
_citation_journal_volume
_citation_page_first
_citation_page_last
_citation_journal_id_ASTM
primary 'Journal of Materials Chemistry' 2008 18 2355 2360 JMACEP
loop_
_publ_author_name
'Lowton, R.L.'
'Jones, M.O.'
'David, W.I.F.'
'Johnson, S.R.'
'Sommariva, M.'
'Edwards, P.P.'
_cell_length_a 5.0738(2)
_cell_length_b 5.0738(2)
_cell_length_c 11.3418(7)
_cell_angle_alpha 90.
_cell_angle_beta 90.
_cell_angle_gamma 90.
_cell_volume 291.98
_cell_formula_units_Z 2
_symmetry_space_group_name_H-M 'I -4'
_symmetry_Int_Tables_number 82
loop_
_symmetry_equiv_pos_site_id
_symmetry_equiv_pos_as_xyz
1 '-y, x, -z'
2 'y, -x, -z'
3 '-x, -y, z'
4 'x, y, z'
5 '-y+1/2, x+1/2, -z+1/2'
6 'y+1/2, -x+1/2, -z+1/2'
7 '-x+1/2, -y+1/2, z+1/2'
8 'x+1/2, y+1/2, z+1/2'
loop_
_atom_type_symbol
_atom_type_oxidation_number
Na1+ 1
Li1+ 1
N3- -3
H1+ 1
loop_
_atom_site_label
_atom_site_type_symbol
_atom_site_symmetry_multiplicity
_atom_site_Wyckoff_symbol
_atom_site_fract_x
_atom_site_fract_y
_atom_site_fract_z
_atom_site_B_iso_or_equiv
_atom_site_occupancy
_atom_site_attached_hydrogens
Na1 Na1+ 2 c 0 0.5 0.25 2. 0.83(2) 0
Li1 Li1+ 2 c 0 0.5 0.25 2. 0.17(2) 0
Li2 Li1+ 2 a 0 0 0 2. 1. 0
Li3 Li1+ 4 f 0 0.5 0.0087 2. 1. 0
N1 N3- 8 g 0.2390(7) 0.2390(9) 0.1008(6) 2. 1. 0
H1 H1+ 8 g 0.365 0.29 0.11 2. 1. 0
H2 H1+ 8 g 0.233 0.139(6) 0.168(3) 2. 1. 0
#End of TTdata_160616-ICSD