
#(C) 2018 by FIZ Karlsruhe - Leibniz Institute for Information Infrastructure.  All rights reserved.
data_162250-ICSD
_database_code_ICSD 162250
_audit_creation_date 2009-08-01
_chemical_name_systematic 'Lithium iron arsenide'
_chemical_formula_structural 'Li Fe As'
_chemical_formula_sum 'As1 Fe1 Li1'
_chemical_name_structure_type Cu2Sb
_exptl_crystal_density_diffrn 5.
_cell_measurement_temperature 215.
_publ_section_title
'Li Fe As: an intrinsic FeAs-based superconductor with Tc= 18 K'
loop_
_citation_id
_citation_journal_full
_citation_year
_citation_journal_volume
_citation_page_first
_citation_page_last
_citation_journal_id_ASTM
primary 'Physical Review, Serie 3. B - Condensed Matter (18,1978-)' 2008 78
060505-1 060505-4 PRBMDO
loop_
_publ_author_name
'Tapp, J.H.'
'Tang Zhongjia'
'Lv Bing'
'Sasmal, K.'
'Lorenz, B.'
'Chu, P.C.W.'
'Guloy, A.M.'
_cell_length_a 3.7914(7)
_cell_length_b 3.7914(7)
_cell_length_c 6.3639(17)
_cell_angle_alpha 90.
_cell_angle_beta 90.
_cell_angle_gamma 90.
_cell_volume 91.48
_cell_formula_units_Z 2
_symmetry_space_group_name_H-M 'P 4/n m m Z'
_symmetry_Int_Tables_number 129
loop_
_symmetry_equiv_pos_site_id
_symmetry_equiv_pos_as_xyz
1 'y+1/2, x+1/2, -z'
2 '-y, x+1/2, -z'
3 'y+1/2, -x, -z'
4 '-y, -x, -z'
5 'x+1/2, y+1/2, -z'
6 '-x, y+1/2, -z'
7 'x+1/2, -y, -z'
8 '-x, -y, -z'
9 '-y+1/2, -x+1/2, z'
10 'y, -x+1/2, z'
11 '-y+1/2, x, z'
12 'y, x, z'
13 '-x+1/2, -y+1/2, z'
14 'x, -y+1/2, z'
15 '-x+1/2, y, z'
16 'x, y, z'
loop_
_atom_type_symbol
_atom_type_oxidation_number
As3- -3
Fe2+ 2
Li1+ 1
loop_
_atom_site_label
_atom_site_type_symbol
_atom_site_symmetry_multiplicity
_atom_site_Wyckoff_symbol
_atom_site_fract_x
_atom_site_fract_y
_atom_site_fract_z
_atom_site_B_iso_or_equiv
_atom_site_occupancy
_atom_site_attached_hydrogens
As1 As3- 2 c 0.25 0.25 0.2635(1) 0.008(1) 1. 0
Fe1 Fe2+ 2 b 0.75 0.25 0.5 0.007(1) 1. 0
Li1 Li1+ 2 c 0.25 0.25 0.8459(15) 0.021(2) 1. 0
#End of TTdata_162250-ICSD