
#(C) 2018 by FIZ Karlsruhe - Leibniz Institute for Information Infrastructure.  All rights reserved.
data_165001-ICSD
_database_code_ICSD 165001
_audit_creation_date 2010-02-01
_audit_update_record 2013-08-01
_chemical_name_systematic 'Lithium iron phosphate(V) (0.6/1/1)'
_chemical_formula_structural 'Li0.6 Fe (P O4)'
_chemical_formula_sum 'Fe1 Li0.6 O4 P1'
_chemical_name_structure_type Olivine-Mg2SiO4
_exptl_crystal_density_diffrn 3.55
_cell_measurement_temperature 620.
_publ_section_title
'Experimental visualization of lithium diffusion in Lix Fe P O4'
loop_
_citation_id
_citation_journal_full
_citation_year
_citation_journal_volume
_citation_page_first
_citation_page_last
_citation_journal_id_ASTM
primary 'Nippon Kessho Gakkaishi' 2009 51 175 181 NKEGAF
loop_
_publ_author_name
'Yamada, A.'
'Yashima, M.'
_cell_length_a 10.1763(9)
_cell_length_b 5.9683(5)
_cell_length_c 4.7733(4)
_cell_angle_alpha 90.
_cell_angle_beta 90.
_cell_angle_gamma 90.
_cell_volume 289.91
_cell_formula_units_Z 4
_symmetry_space_group_name_H-M 'P n m a'
_symmetry_Int_Tables_number 62
_refine_ls_R_factor_all 0.0032
loop_
_symmetry_equiv_pos_site_id
_symmetry_equiv_pos_as_xyz
1 'x+1/2, y, -z+1/2'
2 'x, -y+1/2, z'
3 '-x+1/2, y+1/2, z+1/2'
4 '-x, -y, -z'
5 '-x+1/2, -y, z+1/2'
6 '-x, y+1/2, -z'
7 'x+1/2, -y+1/2, -z+1/2'
8 'x, y, z'
loop_
_atom_type_symbol
_atom_type_oxidation_number
Li1+ 1
Fe2+ 2.4
P5+ 5
O2- -2
loop_
_atom_site_label
_atom_site_type_symbol
_atom_site_symmetry_multiplicity
_atom_site_Wyckoff_symbol
_atom_site_fract_x
_atom_site_fract_y
_atom_site_fract_z
_atom_site_B_iso_or_equiv
_atom_site_occupancy
_atom_site_attached_hydrogens
Li1 Li1+ 4 a 0 0 0 3.4(3) 0.6 0
Fe1 Fe2+ 4 c 0.28059(13) 0.25 0.9706(3) 1.06 1. 0
P1 P5+ 4 c 0.0954(3) 0.25 0.4184(5) 1.04 1. 0
O1 O2- 4 c -0.8898(3) 0.25 0.7343(4) 1.58 1. 0
O2 O2- 4 c 0.4542(3) 0.25 0.1806(5) 1.5 1. 0
O3 O2- 8 d 0.16810(18) 0.0477(3) 0.2792(4) 1.53 1. 0
loop_
_atom_site_aniso_label
_atom_site_aniso_type_symbol
_atom_site_aniso_U_11
_atom_site_aniso_U_22
_atom_site_aniso_U_33
_atom_site_aniso_U_12
_atom_site_aniso_U_13
_atom_site_aniso_U_23
Fe1 Fe2+ 0.0150(9) 0.0119(8) 0.0133(9) 0. -0.0010(7) 0.
P1 P5+ 0.0173(18) 0.0164(14) 0.0060(15) 0. 0.0005(13) 0.
O1 O2- 0.0271(18) 0.0256(15) 0.074(15) 0. -0.0018(15) 0.
O2 O2- 0.0176(17) 0.0262(16) 0.0131(16) 0. 0.0050(10) 0.
O3 O2- 0.0181(11) 0.0187(8) 0.0211(11) 0.0018(9) 0.0059(9) -0.0071(10)
#End of TTdata_165001-ICSD