
#(C) 2017 by FIZ Karlsruhe - Leibniz Institute for Information Infrastructure.  All rights reserved.
data_165216-ICSD
_database_code_ICSD 165216
_audit_creation_date 2010-02-01
_chemical_name_systematic 'Dilithium hexafluoroplatinate(IV)'
_chemical_formula_structural 'Li2 (Pt F6)'
_chemical_formula_sum 'F6 Li2 Pt1'
_chemical_name_structure_type ZnSb2O6
_exptl_crystal_density_diffrn 5.48
_cell_measurement_temperature 129.
_publ_section_title

;
M-F interatomic distances and effective volumes of second and third transition
series (M F6)- and (M F6)2- anions
;
loop_
_citation_id
_citation_journal_full
_citation_year
_citation_journal_volume
_citation_page_first
_citation_page_last
_citation_journal_id_ASTM
primary 'Inorganic Chemistry' 2000 39 2794 2800 INOCAJ
loop_
_publ_author_name
'Graudejus, O.'
'Wilkinson, A.P.'
'Chacon, L.C.'
'Bartlett, N.'
_cell_length_a 4.6378(2)
_cell_length_b 4.6378(2)
_cell_length_c 9.100(4)
_cell_angle_alpha 90.
_cell_angle_beta 90.
_cell_angle_gamma 90.
_cell_volume 195.73
_cell_formula_units_Z 2
_symmetry_space_group_name_H-M 'P 42/m n m'
_symmetry_Int_Tables_number 136
_refine_ls_R_factor_all 0.049
loop_
_symmetry_equiv_pos_site_id
_symmetry_equiv_pos_as_xyz
1 '-y+1/2, x+1/2, -z+1/2'
2 'y+1/2, -x+1/2, -z+1/2'
3 'y, x, -z'
4 '-y, -x, -z'
5 'y+1/2, -x+1/2, z+1/2'
6 '-y+1/2, x+1/2, z+1/2'
7 '-y, -x, z'
8 'y, x, z'
9 'x+1/2, -y+1/2, -z+1/2'
10 '-x+1/2, y+1/2, -z+1/2'
11 'x, y, -z'
12 '-x, -y, -z'
13 '-x+1/2, y+1/2, z+1/2'
14 'x+1/2, -y+1/2, z+1/2'
15 '-x, -y, z'
16 'x, y, z'
loop_
_atom_type_symbol
_atom_type_oxidation_number
Li1+ 1
Pt4+ 4
F1- -1
loop_
_atom_site_label
_atom_site_type_symbol
_atom_site_symmetry_multiplicity
_atom_site_Wyckoff_symbol
_atom_site_fract_x
_atom_site_fract_y
_atom_site_fract_z
_atom_site_B_iso_or_equiv
_atom_site_occupancy
_atom_site_attached_hydrogens
Li1 Li1+ 4 e 0 0 0.334(4) 0.4(4) 1. 0
Pt1 Pt4+ 2 a 0 0 0 0.508(6) 1. 0
F1 F1- 8 j 0.307(2) 0.307(2) 0.662(1) 0.74(8) 1. 0
F2 F1- 4 f 0.290(3) 0.290(3) 0 0.7(1) 1. 0
loop_
_atom_site_aniso_label
_atom_site_aniso_type_symbol
_atom_site_aniso_U_11
_atom_site_aniso_U_22
_atom_site_aniso_U_33
_atom_site_aniso_U_12
_atom_site_aniso_U_13
_atom_site_aniso_U_23
Pt1 Pt4+ 0.0044(2) 0.0044(2) 0.0036(3) -0.001(1) 0. 0.
F1 F1- 0.006(2) 0.006(2) 0.010(4) -0.004(3) 0. 0.001(2)
F2 F1- 0.008(4) 0.008(4) 0.001(4) -0.002(5) 0. 0.
#End of TTdata_165216-ICSD