
#(C) 2017 by FIZ Karlsruhe - Leibniz Institute for Information Infrastructure.  All rights reserved.
data_165204-ICSD
_database_code_ICSD 165204
_audit_creation_date 2010-02-01
_chemical_name_systematic 'Lithium hexafluororhodate(V)'
_chemical_formula_structural 'Li (Rh F6)'
_chemical_formula_sum 'F6 Li1 Rh1'
_chemical_name_structure_type LiSbF6
_exptl_crystal_density_diffrn 3.74
_cell_measurement_temperature 299.
_publ_section_title

;
M-F interatomic distances and effective volumes of second and third transition
series (M F6)- and (M F6)2- anions
;
loop_
_citation_id
_citation_journal_full
_citation_year
_citation_journal_volume
_citation_page_first
_citation_page_last
_citation_journal_id_ASTM
primary 'Inorganic Chemistry' 2000 39 2794 2800 INOCAJ
loop_
_publ_author_name
'Graudejus, O.'
'Wilkinson, A.P.'
'Chacon, L.C.'
'Bartlett, N.'
_cell_length_a 5.02018(7)
_cell_length_b 5.02018(7)
_cell_length_c 13.5588(3)
_cell_angle_alpha 90.
_cell_angle_beta 90.
_cell_angle_gamma 120.
_cell_volume 295.93
_cell_formula_units_Z 3
_symmetry_space_group_name_H-M 'R -3 H'
_symmetry_Int_Tables_number 148
_refine_ls_R_factor_all 0.069
loop_
_symmetry_equiv_pos_site_id
_symmetry_equiv_pos_as_xyz
1 'x-y, x, -z'
2 'y, -x+y, -z'
3 '-x, -y, -z'
4 '-x+y, -x, z'
5 '-y, x-y, z'
6 'x, y, z'
7 'x-y+2/3, x+1/3, -z+1/3'
8 'y+2/3, -x+y+1/3, -z+1/3'
9 '-x+2/3, -y+1/3, -z+1/3'
10 '-x+y+2/3, -x+1/3, z+1/3'
11 '-y+2/3, x-y+1/3, z+1/3'
12 'x+2/3, y+1/3, z+1/3'
13 'x-y+1/3, x+2/3, -z+2/3'
14 'y+1/3, -x+y+2/3, -z+2/3'
15 '-x+1/3, -y+2/3, -z+2/3'
16 '-x+y+1/3, -x+2/3, z+2/3'
17 '-y+1/3, x-y+2/3, z+2/3'
18 'x+1/3, y+2/3, z+2/3'
loop_
_atom_type_symbol
_atom_type_oxidation_number
Li1+ 1
Rh5+ 5
F1- -1
loop_
_atom_site_label
_atom_site_type_symbol
_atom_site_symmetry_multiplicity
_atom_site_Wyckoff_symbol
_atom_site_fract_x
_atom_site_fract_y
_atom_site_fract_z
_atom_site_B_iso_or_equiv
_atom_site_occupancy
_atom_site_attached_hydrogens
Li1 Li1+ 3 b 0 0 0.5 0.05 1. 0
Rh1 Rh5+ 3 a 0 0 0 0.0010(4) 1. 0
F1 F1- 18 f 0.315(1) 0.286(1) 0.9212(5) 0.007(1) 1. 0
#End of TTdata_165204-ICSD