
#(C) 2018 by FIZ Karlsruhe - Leibniz Institute for Information Infrastructure.  All rights reserved.
data_166862-ICSD
_database_code_ICSD 166862
_audit_creation_date 2010-08-01
_chemical_name_systematic
'Lithium titanium zirconium phosphate(V) (1.08/1.4/0.6/3)'
_chemical_formula_structural 'Li1.08 (Ti1.4 Zr0.6) (P O4)3'
_chemical_formula_sum 'Li1.08 O12 P3 Ti1.4 Zr0.6'
_chemical_name_structure_type CuTi2(PO4)3
_exptl_crystal_density_diffrn 3.03
_cell_measurement_temperature 300.
_publ_section_title

;
NMR and electric impedance study of lithium mobility in fast ion conductors Li
Ti2-x Zrx (P O4)3 (0<= x<= 2)
;
loop_
_citation_id
_citation_journal_full
_citation_year
_citation_journal_volume
_citation_page_first
_citation_page_last
_citation_journal_id_ASTM
primary 'Solid State Ionics' 2010 180 1613 1619 SSIOD3
loop_
_publ_author_name
'Arbi, K.'
'Tabellout, M.'
'Sanz, J.'
_cell_length_a 8.6057(5)
_cell_length_b 8.6057(5)
_cell_length_c 21.2143(8)
_cell_angle_alpha 90.
_cell_angle_beta 90.
_cell_angle_gamma 120.
_cell_volume 1360.6
_cell_formula_units_Z 6
_symmetry_space_group_name_H-M 'R -3 c H'
_symmetry_Int_Tables_number 167
_refine_ls_R_factor_all 0.0327
loop_
_symmetry_equiv_pos_site_id
_symmetry_equiv_pos_as_xyz
1 'x-y, -y, -z+1/2'
2 '-x, -x+y, -z+1/2'
3 'y, x, -z+1/2'
4 'x-y, x, -z'
5 'y, -x+y, -z'
6 '-x, -y, -z'
7 '-x+y, y, z+1/2'
8 'x, x-y, z+1/2'
9 '-y, -x, z+1/2'
10 '-x+y, -x, z'
11 '-y, x-y, z'
12 'x, y, z'
13 'x-y+2/3, -y+1/3, -z+5/6'
14 '-x+2/3, -x+y+1/3, -z+5/6'
15 'y+2/3, x+1/3, -z+5/6'
16 'x-y+2/3, x+1/3, -z+1/3'
17 'y+2/3, -x+y+1/3, -z+1/3'
18 '-x+2/3, -y+1/3, -z+1/3'
19 '-x+y+2/3, y+1/3, z+5/6'
20 'x+2/3, x-y+1/3, z+5/6'
21 '-y+2/3, -x+1/3, z+5/6'
22 '-x+y+2/3, -x+1/3, z+1/3'
23 '-y+2/3, x-y+1/3, z+1/3'
24 'x+2/3, y+1/3, z+1/3'
25 'x-y+1/3, -y+2/3, -z+1/6'
26 '-x+1/3, -x+y+2/3, -z+1/6'
27 'y+1/3, x+2/3, -z+1/6'
28 'x-y+1/3, x+2/3, -z+2/3'
29 'y+1/3, -x+y+2/3, -z+2/3'
30 '-x+1/3, -y+2/3, -z+2/3'
31 '-x+y+1/3, y+2/3, z+1/6'
32 'x+1/3, x-y+2/3, z+1/6'
33 '-y+1/3, -x+2/3, z+1/6'
34 '-x+y+1/3, -x+2/3, z+2/3'
35 '-y+1/3, x-y+2/3, z+2/3'
36 'x+1/3, y+2/3, z+2/3'
loop_
_atom_type_symbol
_atom_type_oxidation_number
Li1+ 1
Ti4+ 4
Zr4+ 4
P5+ 5
O2- -2
loop_
_atom_site_label
_atom_site_type_symbol
_atom_site_symmetry_multiplicity
_atom_site_Wyckoff_symbol
_atom_site_fract_x
_atom_site_fract_y
_atom_site_fract_z
_atom_site_B_iso_or_equiv
_atom_site_occupancy
_atom_site_attached_hydrogens
Li1 Li1+ 36 f 0.036(2) 0.055(2) 0.015(2) 1.40(10) 0.18(1) 0
Ti1 Ti4+ 12 c 0 0 0.860(3) 0.73(5) 0.70(1) 0
Zr1 Zr4+ 12 c 0 0 0.860(3) 0.73(5) 0.30(1) 0
P1 P5+ 18 e 0.291(1) 0 0.25 0.66(2) 1. 0
O1 O2- 36 f 0.187(1) -0.004(1) 0.191(1) 1.23(5) 1. 0
O2 O2- 36 f 0.190(1) 0.167(1) 0.082(1) 0.90(5) 1. 0
#End of TTdata_166862-ICSD