
#(C) 2018 by FIZ Karlsruhe - Leibniz Institute for Information Infrastructure.  All rights reserved.
data_167113-ICSD
_database_code_ICSD 167113
_audit_creation_date 2010-08-01
_chemical_name_systematic 'Lithium potassium zinc diphosphate(V)'
_chemical_formula_structural 'Li K Zn (P2 O7)'
_chemical_formula_sum 'K1 Li1 O7 P2 Zn1'
_exptl_crystal_density_diffrn 2.96
_publ_section_title

;
Synthesis and crystal structure of the low-temperature modification of lithium
potassium zinc diphosphate Li K Zn P2 O7
;
loop_
_citation_id
_citation_journal_full
_citation_year
_citation_journal_volume
_citation_page_first
_citation_page_last
_citation_journal_id_ASTM
primary 'Glass Physics and Chemistry' 2009 35 637 642 GPHCEE
loop_
_publ_author_name
'Lapshin, A.E.'
'Petrova, M.A.'
_cell_length_a 12.3621(3)
_cell_length_b 5.0655(1)
_cell_length_c 10.2365(3)
_cell_angle_alpha 90.
_cell_angle_beta 90.88(1)
_cell_angle_gamma 90.
_cell_volume 640.94
_cell_formula_units_Z 4
_symmetry_space_group_name_H-M 'P 1 c 1'
_symmetry_Int_Tables_number 7
_refine_ls_R_factor_all 0.0245
loop_
_symmetry_equiv_pos_site_id
_symmetry_equiv_pos_as_xyz
1 'x, -y, z+1/2'
2 'x, y, z'
loop_
_atom_type_symbol
_atom_type_oxidation_number
K1+ 1
Li1+ 1
Zn2+ 2
Li1+ 1
Zn2+ 2
Li1+ 1
Zn2+ 2
Li1+ 1
Zn2+ 2
P5+ 5
O2- -2
loop_
_atom_site_label
_atom_site_type_symbol
_atom_site_symmetry_multiplicity
_atom_site_Wyckoff_symbol
_atom_site_fract_x
_atom_site_fract_y
_atom_site_fract_z
_atom_site_B_iso_or_equiv
_atom_site_occupancy
_atom_site_attached_hydrogens
K1 K1+ 2 a 0.508(1) 0.507(2) 0.475(1) 1.8(3) 1. 0
K2 K1+ 2 a 0.009(1) 0.000(2) 0.257(1) 1.8(3) 1. 0
Li1 Li1+ 2 a 0.250(1) 0.012(3) 0.477(2) 2.0(5) 0.5 0
Zn1 Zn2+ 2 a 0.250(1) 0.012(3) 0.477(2) 2.0(5) 0.5 0
Li2 Li1+ 2 a 0.747(1) 0.046(3) 0.469(2) 2.0(5) 0.5 0
Zn2 Zn2+ 2 a 0.747(1) 0.046(3) 0.469(2) 2.0(5) 0.5 0
Li3 Li1+ 2 a 0.249(1) 0.539(3) 0.266(2) 2.0(4) 0.5 0
Zn3 Zn2+ 2 a 0.249(1) 0.539(3) 0.266(2) 2.0(4) 0.5 0
Li4 Li1+ 2 a 0.746(1) 0.542(3) 0.274(2) 2.0(4) 0.5 0
Zn4 Zn2+ 2 a 0.746(1) 0.542(3) 0.274(2) 2.0(4) 0.5 0
P1 P5+ 2 a 0.110(1) 0.514(3) 0.017(2) 1.5(4) 1. 0
P2 P5+ 2 a 0.870(1) 0.433(3) 0.020(2) 1.5(3) 1. 0
P3 P5+ 2 a 0.379(1) 0.036(3) 0.222(2) 1.5(3) 1. 0
P4 P5+ 2 a 0.614(1) 0.039(3) 0.201(2) 1.5(3) 1. 0
O1 O2- 2 a 0.133(3) 0.621(6) 0.151(4) 2.2(8) 1. 0
O2 O2- 2 a 0.135(3) 0.193(6) 0.013(4) 2.2(8) 1. 0
O3 O2- 2 a 0.181(3) 0.647(6) -0.106(4) 2.8(8) 1. 0
O4 O2- 2 a -0.016(3) 0.544(6) -0.039(4) 2.2(8) 1. 0
O5 O2- 2 a 0.787(3) 0.560(6) -0.068(4) 2.2(8) 1. 0
O6 O2- 2 a 0.876(3) 0.123(6) 0.003(4) 2.2(8) 1. 0
O7 O2- 2 a 0.886(3) 0.555(6) 0.175(4) 2.2(8) 1. 0
O8 O2- 2 a 0.377(3) 0.325(6) 0.237(4) 2.2(8) 1. 0
O9 O2- 2 a 0.312(3) -0.145(6) 0.308(4) 2.2(8) 1. 0
O10 O2- 2 a 0.379(3) -0.103(5) 0.078(4) 2.2(8) 1. 0
O11 O2- 2 a 0.500(3) -0.070(6) 0.269(4) 2.2(8) 1. 0
O12 O2- 2 a 0.631(3) -0.021(6) 0.063(4) 2.2(8) 1. 0
O13 O2- 2 a 0.622(3) 0.344(6) 0.238(4) 2.2(8) 1. 0
O14 O2- 2 a 0.715(3) -0.120(6) 0.281(4) 2.2(8) 1. 0
#End of TTdata_167113-ICSD