
#(C) 2017 by FIZ Karlsruhe - Leibniz Institute for Information Infrastructure.  All rights reserved.
data_167202-ICSD
_database_code_ICSD 167202
_audit_creation_date 2010-08-01
_audit_update_record 2013-08-01
_chemical_name_systematic 'Lihium cobalt sulfate(VI) fluoride'
_chemical_formula_structural 'Li Co (S O4) F'
_chemical_formula_sum 'Co1 F1 Li1 O4 S1'
_chemical_name_structure_type LiCoSO4F
_exptl_crystal_density_diffrn 3.38
_publ_section_title

;
Structure and electrochemical properties of novel mixed Li (Fe1-x Mx) (S O4) F
(M= Co, Ni, Mn) phases fabricated by low temperature ionothermal synthesis
;
loop_
_citation_id
_citation_journal_full
_citation_year
_citation_journal_volume
_citation_page_first
_citation_page_last
_citation_journal_id_ASTM
primary 'Journal of Materials Chemistry' 2010 20 1659 1668 JMACEP
loop_
_publ_author_name
'Barpanda, P.'
'Recham, N.'
'Chotard, J.N.'
'Djellab, K.'
'Walker, W.'
'Armand, M.'
'Tarascon, J.M.'
_cell_length_a 5.1721(7)
_cell_length_b 5.4219(7)
_cell_length_c 7.1842(8)
_cell_angle_alpha 106.859(6)
_cell_angle_beta 107.788(6)
_cell_angle_gamma 97.986(5)
_cell_volume 177.77
_cell_formula_units_Z 2
_symmetry_space_group_name_H-M 'P -1'
_symmetry_Int_Tables_number 2
_refine_ls_R_factor_all 0.026
loop_
_symmetry_equiv_pos_site_id
_symmetry_equiv_pos_as_xyz
1 '-x, -y, -z'
2 'x, y, z'
loop_
_atom_type_symbol
_atom_type_oxidation_number
Li1+ 1
Co2+ 2
S6+ 6
O2- -2
F1- -1
loop_
_atom_site_label
_atom_site_type_symbol
_atom_site_symmetry_multiplicity
_atom_site_Wyckoff_symbol
_atom_site_fract_x
_atom_site_fract_y
_atom_site_fract_z
_atom_site_B_iso_or_equiv
_atom_site_occupancy
_atom_site_attached_hydrogens
Li1 Li1+ 2 i 0.261(8) 0.552(7) 0.751(6) . 1. 0
Co1 Co2+ 1 a 0 0 0 . 1. 0
Co2 Co2+ 1 b 0 0 0.5 . 1. 0
S1 S6+ 2 i 0.341(2) 0.6395(18) 0.2547(16) . 1. 0
O1 O2- 2 i 0.605(3) 0.752(3) 0.406(3) . 1. 0
O2 O2- 2 i 0.121(3) 0.657(2) 0.3456(18) . 1. 0
O3 O2- 2 i 0.291(3) 0.343(3) 0.136(2) . 1. 0
O4 O2- 2 i 0.278(2) 0.781(2) 0.136(2) . 1. 0
F1 F1- 2 i 0.126(3) 0.919(3) 0.765(2) . 1. 0
#End of TTdata_167202-ICSD