
#(C) 2017 by FIZ Karlsruhe - Leibniz Institute for Information Infrastructure.  All rights reserved.
data_167528-ICSD
_database_code_ICSD 167528
_audit_creation_date 2011-02-01
_chemical_name_systematic 'Lithium diamide iodide'
_chemical_formula_structural '(Li (N H2))2 (Li I)'
_chemical_formula_sum 'H4 I1 Li3 N2'
_exptl_crystal_density_diffrn 2.38
_cell_measurement_temperature 300.
_publ_section_title

;
Synthesis and lithium fast-ion conductivity of a new complex hydride Li3 (N
H2)2 I with double-layered structure
;
loop_
_citation_id
_citation_journal_full
_citation_year
_citation_journal_volume
_citation_page_first
_citation_page_last
_citation_journal_id_ASTM
primary 'Chemistry of Materials' 2010 22 2702 2704 CMATEX
loop_
_publ_author_name
'Matsuo, M.'
'Sato, T.'
'Miura, Y.'
'Oguchi, H.'
'Zhou Yu'
'Maekawa, H.'
'Takamura, H.'
'Orimo, S.'
_cell_length_a 7.09109(5)
_cell_length_b 7.09109(5)
_cell_length_c 11.50958(10)
_cell_angle_alpha 90.
_cell_angle_beta 90.
_cell_angle_gamma 120.
_cell_volume 501.21
_cell_formula_units_Z 4
_symmetry_space_group_name_H-M 'P 63 m c'
_symmetry_Int_Tables_number 186
_refine_ls_R_factor_all 0.0469
loop_
_symmetry_equiv_pos_site_id
_symmetry_equiv_pos_as_xyz
1 '-x, -x+y, z+1/2'
2 'x-y, -y, z+1/2'
3 'y, x, z+1/2'
4 'x-y, x, z+1/2'
5 'y, -x+y, z+1/2'
6 '-x, -y, z+1/2'
7 'x, x-y, z'
8 '-x+y, y, z'
9 '-y, -x, z'
10 '-x+y, -x, z'
11 '-y, x-y, z'
12 'x, y, z'
loop_
_atom_type_symbol
_atom_type_oxidation_number
Li1+ 1
N3- -3
I1- -1
H1+ 1
loop_
_atom_site_label
_atom_site_type_symbol
_atom_site_symmetry_multiplicity
_atom_site_Wyckoff_symbol
_atom_site_fract_x
_atom_site_fract_y
_atom_site_fract_z
_atom_site_B_iso_or_equiv
_atom_site_occupancy
_atom_site_attached_hydrogens
Li1 Li1+ 6 c 0.8929(10) 0.1071(10) 0.3792(20) 0.0253 1. 0
Li2 Li1+ 6 c 0.8662(10) 0.1338(10) 0.1733(20) 0.0253 1. 0
N1 N3- 2 a 0. 0. 0.5140(18) 0.0132(17) 1. 0
N2 N3- 6 c 0.1775(4) 0.8225(4) 0.2571(16) 0.0132(17) 1. 0
I1 I1- 2 b 0.3333 0.6667 0.9264(18) 0.02261(23) 1. 0
I2 I1- 2 b 0.3333 0.6667 0.5505(18) 0.02261(23) 1. 0
H1 H1+ 6 c 0.0737 0.1474 0.4789 0.038 0.667 0
H2 H1+ 6 c 0.1705 0.341 0.1773 0.038 1. 0
H3 H1+ 6 c 0.1056 0.2112 0.2526 0.038 1. 0
#End of TTdata_167528-ICSD