
#(C) 2017 by FIZ Karlsruhe - Leibniz Institute for Information Infrastructure.  All rights reserved.
data_16943-ICSD
_database_code_ICSD 16943
_audit_creation_date 1986-10-15
_audit_update_record 2011-02-01
_chemical_name_systematic 'Lithium tetrachlorozincate dihydrate'
_chemical_formula_structural 'Li2 Zn Cl4 (H2 O)2'
_chemical_formula_sum 'H4 Cl4 Li2 O2 Zn1'
_chemical_name_structure_type Li2ZnCl4(H2O)2
_exptl_crystal_density_diffrn 2.16
_publ_section_title 'Die Kristallstruktur des Li2 Zn Cl4 * (H2 O)2'
loop_
_citation_id
_citation_journal_full
_citation_year
_citation_journal_volume
_citation_page_first
_citation_page_last
_citation_journal_id_ASTM
primary Naturwissenschaften 1964 51 11 11 NATWAY
loop_
_publ_author_name
'Brehler, B.'
'Jacobi, H.'
_cell_length_a 10.24
_cell_length_b 11.98
_cell_length_c 6.44
_cell_angle_alpha 90.
_cell_angle_beta 90.
_cell_angle_gamma 90.
_cell_volume 790.03
_cell_formula_units_Z 4
_symmetry_space_group_name_H-M 'P 21 21 21'
_symmetry_Int_Tables_number 19
_refine_ls_R_factor_all 0.069
loop_
_symmetry_equiv_pos_site_id
_symmetry_equiv_pos_as_xyz
1 '-x, y+1/2, -z+1/2'
2 'x+1/2, -y+1/2, -z'
3 '-x+1/2, -y, z+1/2'
4 'x, y, z'
loop_
_atom_type_symbol
_atom_type_oxidation_number
Zn2+ 2
Cl1- -1
O2- -2
Li1+ 1
H1+ 1
loop_
_atom_site_label
_atom_site_type_symbol
_atom_site_symmetry_multiplicity
_atom_site_Wyckoff_symbol
_atom_site_fract_x
_atom_site_fract_y
_atom_site_fract_z
_atom_site_B_iso_or_equiv
_atom_site_occupancy
_atom_site_attached_hydrogens
Zn1 Zn2+ 4 a 0.0384(2) 0.0478(2) 0.2222(3) 1.41 1. 0
Cl1 Cl1- 4 a 0.0299(4) 0.0815(4) 0.5697(8) 2.1 1. 0
Cl2 Cl1- 4 a 0.2057(4) 0.1477(3) 0.0918(7) 1.93 1. 0
Cl3 Cl1- 4 a 0.4314(4) 0.1404(3) 0.6677(7) 1.71 1. 0
Cl4 Cl1- 4 a 0.3458(4) 0.4088(3) 0.9374(7) 1.97 1. 0
O1 O2- 4 a 0.023(1) 0.316(1) 0.833(2) 1.9 1. 0
O2 O2- 4 a 0.226(1) 0.324(1) 0.477(2) 1.9 1. 0
Li1 Li1+ 4 a 0.375(4) 0.272(4) 0.322(8) 6. 1. 0
Li2 Li1+ 4 a 0.197(4) 0.242(4) 0.745(8) 5. 1. 0
#End of TTdata_16943-ICSD