
#(C) 2018 by FIZ Karlsruhe - Leibniz Institute for Information Infrastructure.  All rights reserved.
data_171137-ICSD
_database_code_ICSD 171137
_audit_creation_date 2006-10-01
_chemical_name_systematic
'Trirubidium lithium dizinc tetrakis(tetraoxomolybdate)'
_chemical_formula_structural 'Rb3 Li Zn2 (Mo O4)4'
_chemical_formula_sum 'Li1 Mo4 O16 Rb3 Zn2'
_chemical_name_structure_type Cs3LiCo2Mo4O16
_exptl_crystal_density_diffrn 4.07
_publ_section_title

;
New triple molybdates Cs3 Li Co2 (Mo O4)4 and Rb3 Li Zn2 (Mo O4)4, and filled
derivatives of the Cs6 Zn5 (Mo O4)8 type
;
loop_
_citation_id
_citation_journal_full
_citation_year
_citation_journal_volume
_citation_page_first
_citation_page_last
_citation_journal_id_ASTM
primary 'Acta Crystallographica, Section C: Crystal Structure Communications'
2006 62 i6 i8 ACSCEE
loop_
_publ_author_name
'Solodovnikova, Z.A.'
'Solodovnikov, S.F.'
'Zolotova, E.S.'
_cell_length_a 11.9018(14)
_cell_length_b 11.9018(14)
_cell_length_c 11.9018(14)
_cell_angle_alpha 90.
_cell_angle_beta 90.
_cell_angle_gamma 90.
_cell_volume 1685.92
_cell_formula_units_Z 4
_symmetry_space_group_name_H-M 'I -4 3 d'
_symmetry_Int_Tables_number 220
_refine_ls_R_factor_all 0.0124
loop_
_symmetry_equiv_pos_site_id
_symmetry_equiv_pos_as_xyz
1 '-y+1/4, -x+3/4, z+3/4'
2 'y+3/4, -x+1/4, -z+3/4'
3 '-y+3/4, x+3/4, -z+1/4'
4 'y+1/4, x+1/4, z+1/4'
5 'z+1/2, -x+1/2, -y'
6 '-z+1/2, -x, y+1/2'
7 '-z, x+1/2, -y+1/2'
8 'z, x, y'
9 'z+3/4, -y+1/4, -x+3/4'
10 '-z+3/4, y+3/4, -x+1/4'
11 '-z+1/4, -y+3/4, x+3/4'
12 'z+1/4, y+1/4, x+1/4'
13 '-y, z+1/2, -x+1/2'
14 'y+1/2, -z+1/2, -x'
15 '-y+1/2, -z, x+1/2'
16 'y, z, x'
17 '-x+3/4, z+3/4, -y+1/4'
18 '-x+1/4, -z+3/4, y+3/4'
19 'x+3/4, -z+1/4, -y+3/4'
20 'x+1/4, z+1/4, y+1/4'
21 '-x+1/2, -y, z+1/2'
22 '-x, y+1/2, -z+1/2'
23 'x+1/2, -y+1/2, -z'
24 'x, y, z'
25 '-y+3/4, -x+1/4, z+1/4'
26 'y+1/4, -x+3/4, -z+1/4'
27 '-y+1/4, x+1/4, -z+3/4'
28 'y+3/4, x+3/4, z+3/4'
29 'z, -x, -y+1/2'
30 '-z, -x+1/2, y'
31 '-z+1/2, x, -y'
32 'z+1/2, x+1/2, y+1/2'
33 'z+1/4, -y+3/4, -x+1/4'
34 '-z+1/4, y+1/4, -x+3/4'
35 '-z+3/4, -y+1/4, x+1/4'
36 'z+3/4, y+3/4, x+3/4'
37 '-y+1/2, z, -x'
38 'y, -z, -x+1/2'
39 '-y, -z+1/2, x'
40 'y+1/2, z+1/2, x+1/2'
41 '-x+1/4, z+1/4, -y+3/4'
42 '-x+3/4, -z+1/4, y+1/4'
43 'x+1/4, -z+3/4, -y+1/4'
44 'x+3/4, z+3/4, y+3/4'
45 '-x, -y+1/2, z'
46 '-x+1/2, y, -z'
47 'x, -y, -z+1/2'
48 'x+1/2, y+1/2, z+1/2'
loop_
_atom_type_symbol
_atom_type_oxidation_number
Rb1+ 1
Mo6+ 6
Zn2+ 2
Li1+ 1
O2- -2
loop_
_atom_site_label
_atom_site_type_symbol
_atom_site_symmetry_multiplicity
_atom_site_Wyckoff_symbol
_atom_site_fract_x
_atom_site_fract_y
_atom_site_fract_z
_atom_site_B_iso_or_equiv
_atom_site_occupancy
_atom_site_attached_hydrogens
Rb1 Rb1+ 12 b 0.875 0. 0.25 0.03614(8) 1 0
Mo1 Mo6+ 16 c 0.392600(10) 0.392600(10) 0.392600(10) 0.01671(5) 1 0
Zn1 Zn2+ 12 a 0.625 0.5 0.25 0.01845(9) 0.666667 0
Li1 Li1+ 12 a 0.625 0.5 0.25 0.01845(9) 0.333333 0
O1 O2- 16 c 0.30910(10) 0.30910(10) 0.30910(10) 0.0284(4) 1 0
O2 O2- 48 e 0.52855(9) 0.39715(11) 0.33085(10) 0.0258(2) 1 0
loop_
_atom_site_aniso_label
_atom_site_aniso_type_symbol
_atom_site_aniso_U_11
_atom_site_aniso_U_22
_atom_site_aniso_U_33
_atom_site_aniso_U_12
_atom_site_aniso_U_13
_atom_site_aniso_U_23
Rb1 Rb1+ 0.02241(16) 0.04301(13) 0.04301(13) 0. 0. 0.
Mo1 Mo6+ 0.01671(5) 0.01671(5) 0.01671(5) 0.00341(4) 0.00341(4) 0.00341(4)
Zn1 Zn2+ 0.0133(2) 0.02103(13) 0.02103(13) 0. 0. 0.
Li1 Li1+ 0.0133(2) 0.02103(13) 0.02103(13) 0. 0. 0.
O1 O2- 0.0284(4) 0.0284(4) 0.0284(4) -0.0014(4) -0.0014(4) -0.0014(4)
O2 O2- 0.0214(5) 0.0257(5) 0.0302(6) 0.0001(4) 0.0088(4) 0.0024(5)
#End of TTdata_171137-ICSD