
#(C) 2018 by FIZ Karlsruhe - Leibniz Institute for Information Infrastructure.  All rights reserved.
data_172216-ICSD
_database_code_ICSD 172216
_audit_creation_date 2007-04-01
_chemical_name_systematic 'Strontium lithium antimonide'
_chemical_formula_structural 'Sr Li Sb'
_chemical_formula_sum 'Li1 Sb1 Sr1'
_chemical_name_structure_type TiNiSi-MgSrSi
_exptl_crystal_density_diffrn 4.39
_cell_measurement_temperature 298.
_publ_section_title
'Synthesis, structure and properties of a new Zintl phase: Sr Li Sb'
loop_
_citation_id
_citation_journal_full
_citation_year
_citation_journal_volume
_citation_page_first
_citation_page_last
_citation_journal_id_ASTM
primary 'Journal of Solid State Chemistry' 2006 179 1318 1322 JSSCBI
loop_
_publ_author_name
'Gupta, S.'
'Ganguli, A.K.'
_cell_length_a 8.0436(8)
_cell_length_b 4.8163(5)
_cell_length_c 8.4547(9)
_cell_angle_alpha 90.
_cell_angle_beta 90.
_cell_angle_gamma 90.
_cell_volume 327.54
_cell_formula_units_Z 4
_symmetry_space_group_name_H-M 'P n m a'
_symmetry_Int_Tables_number 62
_refine_ls_R_factor_all 0.0206
loop_
_symmetry_equiv_pos_site_id
_symmetry_equiv_pos_as_xyz
1 'x+1/2, y, -z+1/2'
2 'x, -y+1/2, z'
3 '-x+1/2, y+1/2, z+1/2'
4 '-x, -y, -z'
5 '-x+1/2, -y, z+1/2'
6 '-x, y+1/2, -z'
7 'x+1/2, -y+1/2, -z+1/2'
8 'x, y, z'
loop_
_atom_type_symbol
_atom_type_oxidation_number
Sb3- -3
Sr2+ 2
Li1+ 1
loop_
_atom_site_label
_atom_site_type_symbol
_atom_site_symmetry_multiplicity
_atom_site_Wyckoff_symbol
_atom_site_fract_x
_atom_site_fract_y
_atom_site_fract_z
_atom_site_B_iso_or_equiv
_atom_site_occupancy
_atom_site_attached_hydrogens
Sb1 Sb3- 4 c 0.2752(1) 0.25 0.5927(1) .009(1) 1. 0
Sr1 Sr2+ 4 c 0.0034(1) 0.25 0.2909(1) .011(1) 1. 0
Li1 Li1+ 4 c 0.3390(12) -0.25 0.4243(10) .019(2) 1. 0
loop_
_atom_site_aniso_label
_atom_site_aniso_type_symbol
_atom_site_aniso_U_11
_atom_site_aniso_U_22
_atom_site_aniso_U_33
_atom_site_aniso_U_12
_atom_site_aniso_U_13
_atom_site_aniso_U_23
Sb1 Sb3- 0.012(1) 0.006(1) 0.008(1) 0 0.000(1) 0
Sr1 Sr2+ 0.013(1) 0.010(1) 0.011(1) 0 0.001(1) 0
#End of TTdata_172216-ICSD