
#(C) 2018 by FIZ Karlsruhe - Leibniz Institute for Information Infrastructure.  All rights reserved.
data_172581-ICSD
_database_code_ICSD 172581
_audit_creation_date 2007-04-01
_chemical_name_systematic 'Lithium titanium oxoarsenate'
_chemical_formula_structural 'Li Ti O As O4'
_chemical_formula_sum 'As1 Li1 O5 Ti1'
_chemical_name_structure_type Al2SiO5-Sillimanite
_exptl_crystal_density_diffrn 2.6
_publ_section_title

;
New process of preparation, x-ray characterisation, structure and vibrational
studies of a solid solution Li Ti O As(1-x) P(x) O4 (0 <= x <= 1)
;
loop_
_citation_id
_citation_journal_full
_citation_year
_citation_journal_volume
_citation_page_first
_citation_page_last
_citation_journal_id_ASTM
primary 'Journal of Solid State Chemistry' 2006 179 18 28 JSSCBI
loop_
_publ_author_name
'Chakir, M.'
'El Jazouli, A.'
'Chaminade, J.P.'
'Bouree, F.'
'de Waal, D.'
_cell_length_a 7.524(8)
_cell_length_b 9.574(7)
_cell_length_c 7.450(1)
_cell_angle_alpha 90.
_cell_angle_beta 90.
_cell_angle_gamma 90.
_cell_volume 536.66
_cell_formula_units_Z 4
_symmetry_space_group_name_H-M 'P n m a'
_symmetry_Int_Tables_number 62
_refine_ls_R_factor_all 0.036
loop_
_symmetry_equiv_pos_site_id
_symmetry_equiv_pos_as_xyz
1 'x+1/2, y, -z+1/2'
2 'x, -y+1/2, z'
3 '-x+1/2, y+1/2, z+1/2'
4 '-x, -y, -z'
5 '-x+1/2, -y, z+1/2'
6 '-x, y+1/2, -z'
7 'x+1/2, -y+1/2, -z+1/2'
8 'x, y, z'
loop_
_atom_type_symbol
_atom_type_oxidation_number
Ti4+ 4
Li1+ 1
As5+ 5
O2- -2
loop_
_atom_site_label
_atom_site_type_symbol
_atom_site_symmetry_multiplicity
_atom_site_Wyckoff_symbol
_atom_site_fract_x
_atom_site_fract_y
_atom_site_fract_z
_atom_site_B_iso_or_equiv
_atom_site_occupancy
_atom_site_attached_hydrogens
Ti1 Ti4+ 4 c 0.334(6) 0.75 0.226(1) .26(2) 1. 0
Li1 Li1+ 4 a 0 0 0 1.11(5) 1. 0
As1 As5+ 4 c 0.374(3) 0.25 0.130(1) .36(9) 1. 0
O1 O2- 4 c 0.116(4) 0.75 0.163(3) .71(5) 1. 0
O2 O2- 4 c 0.808(3) 0.75 -0.001(1) .52(6) 1. 0
O3 O2- 4 c 0.063(1) 0.25 0.491(3) .89(1) 1. 0
O4 O2- 8 d 0.872(9) 0.454(5) 0.236(1) .62(1) 1. 0
#End of TTdata_172581-ICSD