
#(C) 2018 by FIZ Karlsruhe - Leibniz Institute for Information Infrastructure.  All rights reserved.
data_172979-ICSD
_database_code_ICSD 172979
_audit_creation_date 2008-02-01
_chemical_name_systematic

;
Lithium trimanganese(III) bis(trioxoselenate(IV))
hexakis(hydrogentrioxoselenate(IV))
;
_chemical_formula_structural 'Li Mn3 (Se O3)2 (H Se O3)6'
_chemical_formula_sum 'H6 Li1 Mn3 O24 Se8'
_exptl_crystal_density_diffrn 3.74
_cell_measurement_temperature 293.
_publ_section_title 'Li Mn3 (Se O3)2 (H Se O3)6'
loop_
_citation_id
_citation_journal_full
_citation_year
_citation_journal_volume
_citation_page_first
_citation_page_last
_citation_journal_id_ASTM
primary 'Acta Crystallographica, Section C: Crystal Structure Communications'
2007 63 i28 i30 ACSCEE
loop_
_publ_author_name
'Johnston, M.G.'
'Harrison, W.T.A.'
_cell_length_a 11.1205(7)
_cell_length_b 11.1205(7)
_cell_length_c 14.8430(10)
_cell_angle_alpha 90.
_cell_angle_beta 90.
_cell_angle_gamma 120.
_cell_volume 1589.65
_cell_formula_units_Z 3
_symmetry_space_group_name_H-M 'R -3 H'
_symmetry_Int_Tables_number 148
_refine_ls_R_factor_all 0.0366
loop_
_symmetry_equiv_pos_site_id
_symmetry_equiv_pos_as_xyz
1 'x-y, x, -z'
2 'y, -x+y, -z'
3 '-x, -y, -z'
4 '-x+y, -x, z'
5 '-y, x-y, z'
6 'x, y, z'
7 'x-y+2/3, x+1/3, -z+1/3'
8 'y+2/3, -x+y+1/3, -z+1/3'
9 '-x+2/3, -y+1/3, -z+1/3'
10 '-x+y+2/3, -x+1/3, z+1/3'
11 '-y+2/3, x-y+1/3, z+1/3'
12 'x+2/3, y+1/3, z+1/3'
13 'x-y+1/3, x+2/3, -z+2/3'
14 'y+1/3, -x+y+2/3, -z+2/3'
15 '-x+1/3, -y+2/3, -z+2/3'
16 '-x+y+1/3, -x+2/3, z+2/3'
17 '-y+1/3, x-y+2/3, z+2/3'
18 'x+1/3, y+2/3, z+2/3'
loop_
_atom_type_symbol
_atom_type_oxidation_number
Li1+ 1
Mn3+ 3
Se4+ 4
O2- -2
H1+ 1
loop_
_atom_site_label
_atom_site_type_symbol
_atom_site_symmetry_multiplicity
_atom_site_Wyckoff_symbol
_atom_site_fract_x
_atom_site_fract_y
_atom_site_fract_z
_atom_site_B_iso_or_equiv
_atom_site_occupancy
_atom_site_attached_hydrogens
Li1 Li1+ 3 a 0. 0. 0. 0.014(2) 1 0
Mn1 Mn3+ 9 e 0.5 0. 0. 0.01285(12) 1 0
Se1 Se4+ 6 c 0.6667 0.3333 0.00352(3) 0.01332(10) 1 0
Se2 Se4+ 18 f 0.24779(3) -0.03816(3) 0.118531(19) 0.01641(8) 1 0
O1 O2- 18 f 0.6117(2) 0.18051(18) -0.05156(14) 0.0184(4) 1 0
O2 O2- 18 f 0.2766(2) -0.0008(2) 0.22770(14) 0.0220(4) 1 0
O3 O2- 18 f 0.4109(2) 0.0652(2) 0.07860(15) 0.0214(4) 1 0
O4 O2- 18 f 0.1816(2) 0.0688(2) 0.08317(16) 0.0242(5) 1 0
H1 H1+ 18 f 0.2363 0.1592 0.081 0.029 1 0
loop_
_atom_site_aniso_label
_atom_site_aniso_type_symbol
_atom_site_aniso_U_11
_atom_site_aniso_U_22
_atom_site_aniso_U_33
_atom_site_aniso_U_12
_atom_site_aniso_U_13
_atom_site_aniso_U_23
Li1 Li1+ 0.009(3) 0.009(3) 0.022(6) 0.0047(14) 0. 0.
Mn1 Mn3+ 0.0128(2) 0.0100(2) 0.0153(3) 0.0053(2) 0.0020(2) 0.0004(2)
Se1 Se4+ 0.01196(13) 0.01196(13) 0.0160(2) 0.00598(6) 0. 0.
Se2 Se4+ 0.01468(13) 0.01390(13) 0.01889(15) 0.00581(10) 0.00124(10)
-0.00142(10)
O1 O2- 0.0211(9) 0.0112(9) 0.0215(11) 0.0069(8) 0.0043(8) 0.0009(8)
O2 O2- 0.0270(11) 0.0189(9) 0.0157(10) 0.0082(8) 0.0000(8) 0.0012(8)
O3 O2- 0.0176(9) 0.0157(9) 0.0275(12) 0.0058(8) 0.0093(9) -0.0021(8)
O4 O2- 0.0197(10) 0.0217(10) 0.0327(13) 0.0113(8) -0.0083(9) -0.0032(9)
#End of TTdata_172979-ICSD