
#(C) 2018 by FIZ Karlsruhe - Leibniz Institute for Information Infrastructure.  All rights reserved.
data_174383-ICSD
_database_code_ICSD 174383
_audit_creation_date 2010-08-01
_audit_update_record 2013-08-01
_chemical_name_systematic
'Lithium phosphorous germanium molybdenum oxide (2.87/0.7/0.23/0.07/4)'
_chemical_formula_structural 'Li2.87 (P0.7 Ge0.23 Mo0.07) O4'
_chemical_formula_sum 'Ge0.23 Li2.87 Mo0.07 O4 P0.7'
_chemical_name_structure_type Li3-x(P,Ge,Mo)O4
_exptl_crystal_density_diffrn 2.56
_cell_measurement_temperature 573.
_publ_section_title

;
Change in the crystal structure of germanium - containing lithiophosphate upon
heating
;
loop_
_citation_id
_citation_journal_full
_citation_year
_citation_journal_volume
_citation_page_first
_citation_page_last
_citation_journal_id_ASTM
primary Kristallografiya 2010 55 261 266 KRISAJ
loop_
_publ_author_name
'Ksenofontov, D.A.'
'Kabalov, Yu.K.'
'Dem'yanets, L.N. (Demyanets, L.N.)'
_cell_length_a 10.6786(5)
_cell_length_b 6.2096(10)
_cell_length_c 5.0420(7)
_cell_angle_alpha 90.
_cell_angle_beta 90.
_cell_angle_gamma 90.
_cell_volume 334.33
_cell_formula_units_Z 4
_symmetry_space_group_name_H-M 'P n m a'
_symmetry_Int_Tables_number 62
_refine_ls_R_factor_all 0.0349
loop_
_symmetry_equiv_pos_site_id
_symmetry_equiv_pos_as_xyz
1 'x+1/2, y, -z+1/2'
2 'x, -y+1/2, z'
3 '-x+1/2, y+1/2, z+1/2'
4 '-x, -y, -z'
5 '-x+1/2, -y, z+1/2'
6 '-x, y+1/2, -z'
7 'x+1/2, -y+1/2, -z+1/2'
8 'x, y, z'
loop_
_atom_type_symbol
_atom_type_oxidation_number
P5+ 5
Ge4+ 4
Mo6+ 6
O2- -2
Li1+ 1
loop_
_atom_site_label
_atom_site_type_symbol
_atom_site_symmetry_multiplicity
_atom_site_Wyckoff_symbol
_atom_site_fract_x
_atom_site_fract_y
_atom_site_fract_z
_atom_site_B_iso_or_equiv
_atom_site_occupancy
_atom_site_attached_hydrogens
P1 P5+ 4 c 0.0878(3) 0.75 0.1811(7) 1.85(8) 0.7 0
Ge1 Ge4+ 4 c 0.0878(3) 0.75 0.1811(7) 1.85(9) 0.23 0
Mo1 Mo6+ 4 c 0.0878(3) 0.75 0.1811(7) 1.85(8) 0.07 0
O1 O2- 8 d 0.1594(5) 0.5367(8) 0.2829(13) 2.3(2) 1. 0
O2 O2- 4 c -0.0566(2) 0.75 0.2850(20) 3.0(3) 1. 0
O3 O2- 4 c 0.0894(8) 0.75 -0.1440(20) 2.8(3) 1. 0
Li1 Li1+ 8 d 0.166(2) 0.516(3) -0.337(5) 1.3(7) 0.72(8) 0
Li2 Li1+ 4 c -0.072(3) 0.75 -0.307(8) 3.3(9) 0.75(1) 0
Li3 Li1+ 8 d 0.169(9) 0.445(14) -0.094(20) 1.3(7) 0.16(2) 0
Li4 Li1+ 4 c -0.116(17) 0.75 -0.157(4) 3.3(9) 0.14(5) 0
Li5 Li1+ 4 c -0.215 0.75 -0.03 4.07 0.109 0
Li6 Li1+ 8 d 0.494 0.418 0.02 1.32 0.054 0
#End of TTdata_174383-ICSD