
#(C) 2018 by FIZ Karlsruhe - Leibniz Institute for Information Infrastructure.  All rights reserved.
data_174352-ICSD
_database_code_ICSD 174352
_audit_creation_date 2010-08-01
_chemical_name_systematic 'Lithium zinc vanadate'
_chemical_formula_structural 'Li Zn (V O4)'
_chemical_formula_sum 'Li1 O4 V1 Zn1'
_chemical_name_structure_type Be2SiO4
_exptl_crystal_density_diffrn 3.44
_cell_measurement_temperature 298.
_publ_section_title 'Disordered Li Zn V O4 with a phenacite structure'
loop_
_citation_id
_citation_journal_full
_citation_year
_citation_journal_volume
_citation_page_first
_citation_page_last
_citation_journal_id_ASTM
primary 'Acta Crystallographica, Section E: Structure Reports Online' 2010 66
i39 i39 ACSEBH
loop_
_publ_author_name
'Azrour, M.'
'Elouadi, B.'
'El Ammari, L.'
_cell_length_a 14.107(3)
_cell_length_b 14.107(3)
_cell_length_c 9.441(2)
_cell_angle_alpha 90.
_cell_angle_beta 90.
_cell_angle_gamma 120.
_cell_volume 1627.11
_cell_formula_units_Z 18
_symmetry_space_group_name_H-M 'R -3 H'
_symmetry_Int_Tables_number 148
_refine_ls_R_factor_all 0.0242
loop_
_symmetry_equiv_pos_site_id
_symmetry_equiv_pos_as_xyz
1 'x-y, x, -z'
2 'y, -x+y, -z'
3 '-x, -y, -z'
4 '-x+y, -x, z'
5 '-y, x-y, z'
6 'x, y, z'
7 'x-y+2/3, x+1/3, -z+1/3'
8 'y+2/3, -x+y+1/3, -z+1/3'
9 '-x+2/3, -y+1/3, -z+1/3'
10 '-x+y+2/3, -x+1/3, z+1/3'
11 '-y+2/3, x-y+1/3, z+1/3'
12 'x+2/3, y+1/3, z+1/3'
13 'x-y+1/3, x+2/3, -z+2/3'
14 'y+1/3, -x+y+2/3, -z+2/3'
15 '-x+1/3, -y+2/3, -z+2/3'
16 '-x+y+1/3, -x+2/3, z+2/3'
17 '-y+1/3, x-y+2/3, z+2/3'
18 'x+1/3, y+2/3, z+2/3'
loop_
_atom_type_symbol
_atom_type_oxidation_number
V5+ 5
Zn2+ 2
Li1+ 1
Zn2+ 2
Li1+ 1
O2- -2
loop_
_atom_site_label
_atom_site_type_symbol
_atom_site_symmetry_multiplicity
_atom_site_Wyckoff_symbol
_atom_site_fract_x
_atom_site_fract_y
_atom_site_fract_z
_atom_site_B_iso_or_equiv
_atom_site_occupancy
_atom_site_attached_hydrogens
V1 V5+ 18 f 0.454581(17) 0.138171(16) 0.08352(2) 0.00790(7) 1 0
Zn1 Zn2+ 18 f 0.45273(2) 0.14015(2) -0.24915(3) 0.01132(7) 0.5 0
Li1 Li1+ 18 f 0.45273(2) 0.14015(2) -0.24915(3) 0.01132(7) 0.5 0
Zn2 Zn2+ 18 f 0.64622(2) 0.12175(3) 0.24882(3) 0.01150(7) 0.5 0
Li2 Li1+ 18 f 0.64622(2) 0.12175(3) 0.24882(3) 0.01150(7) 0.5 0
O1 O2- 18 f 0.34102(7) 0.01142(7) 0.08427(11) 0.01335(17) 1 0
O2 O2- 18 f 0.56475(8) 0.11882(9) 0.08215(10) 0.01353(17) 1 0
O3 O2- 18 f 0.45578(8) 0.20780(8) -0.06565(10) 0.01419(18) 1 0
O4 O2- 18 f 0.45936(8) 0.20728(8) 0.23409(10) 0.01377(17) 1 0
loop_
_atom_site_aniso_label
_atom_site_aniso_type_symbol
_atom_site_aniso_U_11
_atom_site_aniso_U_22
_atom_site_aniso_U_33
_atom_site_aniso_U_12
_atom_site_aniso_U_13
_atom_site_aniso_U_23
V1 V5+ 0.00918(10) 0.00812(10) 0.00692(9) 0.00472(8) -0.00012(6) -0.00004(6)
Zn1 Zn2+ 0.01190(12) 0.01217(13) 0.01038(12) 0.00637(10) 0.00052(9) 0.00069(9)
Li1 Li1+ 0.01190(12) 0.01217(13) 0.01038(12) 0.00637(10) 0.00052(9) 0.00069(9)
Zn2 Zn2+ 0.01159(13) 0.01368(13) 0.01016(12) 0.00701(10) 0.00005(9) 0.00037(9)
Li2 Li1+ 0.01159(13) 0.01368(13) 0.01016(12) 0.00701(10) 0.00005(9) 0.00037(9)
O1 O2- 0.0109(4) 0.0102(4) 0.0180(4) 0.0046(3) -0.0010(3) 0.0000(3)
O2 O2- 0.0121(4) 0.0198(4) 0.0115(3) 0.0101(3) -0.0005(3) -0.0005(3)
O3 O2- 0.0219(5) 0.0120(4) 0.0103(3) 0.0096(3) -0.0007(3) 0.0009(3)
O4 O2- 0.0209(4) 0.0125(4) 0.0104(4) 0.0102(4) 0.0003(3) -0.0004(3)
#End of TTdata_174352-ICSD