
#(C) 2018 by FIZ Karlsruhe - Leibniz Institute for Information Infrastructure.  All rights reserved.
data_180108-ICSD
_database_code_ICSD 180108
_audit_creation_date 2011-08-01
_audit_update_record 2012-08-01
_chemical_name_systematic 'Dilithium dilead copper tetraborate'
_chemical_formula_structural 'Li2 Pb2 (Cu B4 O10)'
_chemical_formula_sum 'B4 Cu1 Li2 O10 Pb2'
_exptl_crystal_density_diffrn 5.05
_cell_measurement_temperature 153.
_publ_section_title

;
Synthesis, structure and properties of Li2 Pb2 Cu B4 O10 with isolated (Cu B4
O10)(6-) units
;
loop_
_citation_id
_citation_journal_full
_citation_year
_citation_journal_volume
_citation_page_first
_citation_page_last
_citation_journal_id_ASTM
primary 'Journal of Alloys and Compounds' 2011 509 3310 3313 JALCEU
loop_
_publ_author_name
'Li Hongyi'
'Pan Shilie'
'Wu Hongping'
'Smit, J.P.'
'Poeppelmeier, K.R.'
_cell_length_a 16.8419(12)
_cell_length_b 4.7895(4)
_cell_length_c 13.8976(10)
_cell_angle_alpha 90.
_cell_angle_beta 125.3620(10)
_cell_angle_gamma 90.
_cell_volume 914.22
_cell_formula_units_Z 4
_symmetry_space_group_name_H-M 'C 1 2/c 1'
_symmetry_Int_Tables_number 15
_refine_ls_R_factor_all 0.0438
loop_
_symmetry_equiv_pos_site_id
_symmetry_equiv_pos_as_xyz
1 'x, -y, z+1/2'
2 '-x, -y, -z'
3 '-x, y, -z+1/2'
4 'x, y, z'
5 'x+1/2, -y+1/2, z+1/2'
6 '-x+1/2, -y+1/2, -z'
7 '-x+1/2, y+1/2, -z+1/2'
8 'x+1/2, y+1/2, z'
loop_
_atom_type_symbol
_atom_type_oxidation_number
Li1+ 1
Pb2+ 2
Cu2+ 2
B3+ 3
O2- -2
loop_
_atom_site_label
_atom_site_type_symbol
_atom_site_symmetry_multiplicity
_atom_site_Wyckoff_symbol
_atom_site_fract_x
_atom_site_fract_y
_atom_site_fract_z
_atom_site_B_iso_or_equiv
_atom_site_occupancy
_atom_site_attached_hydrogens
Li1 Li1+ 8 f 0.1864(17) 0.3100(30) 0.1370(20) 0.012(5) 1. 0
Pb1 Pb2+ 8 f 0.0320(1) 0.6800(1) 0.1386(1) 0.007(1) 1. 0
Cu1 Cu2+ 4 c 0.25 0.25 0 0.007(1) 1. 0
B1 B3+ 8 f 0.1529(9) 0.1885(19) 0.3191(10) 0.006(2) 1. 0
B2 B3+ 8 f 0.1257(9) 0.2060(20) 0.4804(11) 0.009(2) 1. 0
O1 O2- 8 f 0.1270(7) 0.3117(12) 0.2158(8) 0.012(2) 1. 0
O2 O2- 8 f 0.2955(5) 0.4480(14) 0.1435(6) 0.008(1) 1. 0
O3 O2- 8 f 0.1673(5) 0.0357(14) 0.0290(6) 0.008(1) 1. 0
O4 O2- 8 f 0.1187(7) 0.3172(12) 0.3795(9) 0.009(2) 1. 0
O5 O2- 8 f 0.0794(5) 0.6206(14) 0.0152(7) 0.009(1) 1. 0
#End of TTdata_180108-ICSD