
#(C) 2018 by FIZ Karlsruhe - Leibniz Institute for Information Infrastructure.  All rights reserved.
data_180730-ICSD
_database_code_ICSD 180730
_audit_creation_date 2011-08-01
_chemical_name_systematic 'Trilithium dicesium pentaborate'
_chemical_formula_structural 'Li3 Cs2 (B5 O10)'
_chemical_formula_sum 'B5 Cs2 Li3 O10'
_exptl_crystal_density_diffrn 3.09
_cell_measurement_temperature 293.
_publ_section_title
'A congruently melting and deep UV nonlinear optical material: Li3 Cs2 B5 O10'
loop_
_citation_id
_citation_journal_full
_citation_year
_citation_journal_volume
_citation_page_first
_citation_page_last
_citation_journal_id_ASTM
primary 'Journal of Materials Chemistry' 2011 21 2890 2894 JMACEP
loop_
_publ_author_name
'Yang, Yun'
'Pan, Shi Lie'
'Hou, Xue Ling'
'Wang, Chuan Yi'
'Poeppelmeier, K.R.'
'Chen, Zhao Hui'
'Wu, Hong Ping'
'Zhou, Zhong Xiang'
_cell_length_a 7.2256(2)
_cell_length_b 11.6583(4)
_cell_length_c 12.7817(4)
_cell_angle_alpha 90.
_cell_angle_beta 90.
_cell_angle_gamma 90.
_cell_volume 1076.71
_cell_formula_units_Z 4
_symmetry_space_group_name_H-M 'C 2 2 21'
_symmetry_Int_Tables_number 20
_refine_ls_R_factor_all 0.0246
loop_
_symmetry_equiv_pos_site_id
_symmetry_equiv_pos_as_xyz
1 '-x, y, -z+1/2'
2 '-x, -y, z+1/2'
3 'x, -y, -z'
4 'x, y, z'
5 '-x+1/2, y+1/2, -z+1/2'
6 '-x+1/2, -y+1/2, z+1/2'
7 'x+1/2, -y+1/2, -z'
8 'x+1/2, y+1/2, z'
loop_
_atom_type_symbol
_atom_type_oxidation_number
Cs1+ 1
O2- -2
B3+ 3
Li1+ 1
loop_
_atom_site_label
_atom_site_type_symbol
_atom_site_symmetry_multiplicity
_atom_site_Wyckoff_symbol
_atom_site_fract_x
_atom_site_fract_y
_atom_site_fract_z
_atom_site_B_iso_or_equiv
_atom_site_occupancy
_atom_site_attached_hydrogens
Cs1 Cs1+ 4 a 1.20383(4) 0.5 0.5 0.01466(14) 1 0
Cs2 Cs1+ 4 b 1. 0.22753(3) 0.25 0.01673(14) 1 0
O1 O2- 8 c 1.1153(4) 0.7555(2) 0.5015(3) 0.0131(5) 1 0
O2 O2- 8 c 0.7751(5) 0.5967(2) 0.5882(2) 0.0137(6) 1 0
O3 O2- 8 c 0.6643(4) 0.4749(2) 0.2496(3) 0.0171(6) 1 0
O4 O2- 8 c 0.9936(6) 0.8249(2) 0.3419(2) 0.0169(6) 1 0
O5 O2- 8 c 1.1196(4) 0.5830(2) 0.1522(2) 0.0133(6) 1 0
B1 B3+ 4 b 0.5 0.4012(5) 0.25 0.0154(12) 1 0
B2 B3+ 8 c 1.2243(6) 0.4915(4) 0.1641(3) 0.0098(8) 1 0
B3 B3+ 8 c 1.1261(6) 0.8259(4) 0.4209(3) 0.0106(9) 1 0
Li1 Li1+ 8 c 1.1312(11) 0.6918(7) 0.0450(6) 0.0175(16) 1 0
Li2 Li1+ 4 b 1. 0.6723(8) 0.25 0.0122(17) 1 0
loop_
_atom_site_aniso_label
_atom_site_aniso_type_symbol
_atom_site_aniso_U_11
_atom_site_aniso_U_22
_atom_site_aniso_U_33
_atom_site_aniso_U_12
_atom_site_aniso_U_13
_atom_site_aniso_U_23
Cs1 Cs1+ 0.0144(2) 0.01095(19) 0.0186(2) 0. 0. 0.00105(15)
Cs2 Cs1+ 0.0171(2) 0.0126(2) 0.0205(2) 0. 0.0041(2) 0.
O1 O2- 0.0122(14) 0.0116(14) 0.0155(12) -0.0029(10) -0.0021(14) 0.0017(14)
O2 O2- 0.0099(15) 0.0124(14) 0.0187(16) 0.0048(11) 0.0053(12) 0.0026(12)
O3 O2- 0.0221(15) 0.0112(16) 0.0180(13) -0.0072(10) -0.0082(17) 0.0021(16)
O4 O2- 0.0142(14) 0.0134(13) 0.0231(14) -0.0063(14) -0.0104(18) 0.0063(11)
O5 O2- 0.0132(16) 0.0113(14) 0.0152(13) 0.0056(10) 0.0039(12) 0.0012(11)
B1 B3+ 0.015(3) 0.007(3) 0.024(3) 0. -0.010(4) 0.
B2 B3+ 0.0074(18) 0.0103(19) 0.0117(19) -0.0046(17) 0.0030(14) -0.0012(18)
B3 B3+ 0.008(2) 0.011(2) 0.013(2) -0.0006(15) -0.0013(17) -0.0008(17)
Li1 Li1+ 0.007(4) 0.022(4) 0.024(4) 0.004(3) 0.004(3) 0.008(3)
Li2 Li1+ 0.008(4) 0.022(5) 0.007(4) 0. 0.003(5) 0.
#End of TTdata_180730-ICSD