
#(C) 2018 by FIZ Karlsruhe - Leibniz Institute for Information Infrastructure.  All rights reserved.
data_181265-ICSD
_database_code_ICSD 181265
_audit_creation_date 2012-02-01
_chemical_name_systematic
'Lithium nickel manganese cobalt oxide (1/0.45/0.4/0.15/2)'
_chemical_formula_structural
'(Li0.935 Ni0.065) (Ni0.385 Mn0.4 Co0.15 Li0.065) O2'
_chemical_formula_sum 'Co0.15 Li1 Mn0.4 Ni0.45 O2'
_chemical_name_structure_type Delafossite-NaCrS2
_exptl_crystal_density_diffrn 4.69
_publ_section_title

;
Structural characterization of layered Li Ni0.85-x Mnx Co0.15 O2 with
x=0,0.1,0.2 and 0.4 oxide electrodes for Li batteries
;
loop_
_citation_id
_citation_journal_full
_citation_year
_citation_journal_volume
_citation_page_first
_citation_page_last
_citation_journal_id_ASTM
primary 'Journal of Alloys and Compounds' 2011 509 7915 7921 JALCEU
loop_
_publ_author_name
'Gu Yi Jie'
'Chen Yun Bo'
'Liu Hong Quan'
'Wang Yan Ming'
'Wang Cui Ling'
'Wu Hui Kang'
_cell_length_a 2.874(19)
_cell_length_b 2.874(19)
_cell_length_c 14.267(41)
_cell_angle_alpha 90.
_cell_angle_beta 90.
_cell_angle_gamma 120.
_cell_volume 102.06
_cell_formula_units_Z 3
_symmetry_space_group_name_H-M 'R -3 m H'
_symmetry_Int_Tables_number 166
loop_
_symmetry_equiv_pos_site_id
_symmetry_equiv_pos_as_xyz
1 'x-y, -y, -z'
2 '-x, -x+y, -z'
3 'y, x, -z'
4 'x-y, x, -z'
5 'y, -x+y, -z'
6 '-x, -y, -z'
7 '-x+y, y, z'
8 'x, x-y, z'
9 '-y, -x, z'
10 '-x+y, -x, z'
11 '-y, x-y, z'
12 'x, y, z'
13 'x-y+2/3, -y+1/3, -z+1/3'
14 '-x+2/3, -x+y+1/3, -z+1/3'
15 'y+2/3, x+1/3, -z+1/3'
16 'x-y+2/3, x+1/3, -z+1/3'
17 'y+2/3, -x+y+1/3, -z+1/3'
18 '-x+2/3, -y+1/3, -z+1/3'
19 '-x+y+2/3, y+1/3, z+1/3'
20 'x+2/3, x-y+1/3, z+1/3'
21 '-y+2/3, -x+1/3, z+1/3'
22 '-x+y+2/3, -x+1/3, z+1/3'
23 '-y+2/3, x-y+1/3, z+1/3'
24 'x+2/3, y+1/3, z+1/3'
25 'x-y+1/3, -y+2/3, -z+2/3'
26 '-x+1/3, -x+y+2/3, -z+2/3'
27 'y+1/3, x+2/3, -z+2/3'
28 'x-y+1/3, x+2/3, -z+2/3'
29 'y+1/3, -x+y+2/3, -z+2/3'
30 '-x+1/3, -y+2/3, -z+2/3'
31 '-x+y+1/3, y+2/3, z+2/3'
32 'x+1/3, x-y+2/3, z+2/3'
33 '-y+1/3, -x+2/3, z+2/3'
34 '-x+y+1/3, -x+2/3, z+2/3'
35 '-y+1/3, x-y+2/3, z+2/3'
36 'x+1/3, y+2/3, z+2/3'
loop_
_atom_type_symbol
_atom_type_oxidation_number
Li1+ 1
Ni2+ 2
Ni2+ 2.13
Mn4+ 4
Co3+ 3
Li1+ 1
O2- -2
loop_
_atom_site_label
_atom_site_type_symbol
_atom_site_symmetry_multiplicity
_atom_site_Wyckoff_symbol
_atom_site_fract_x
_atom_site_fract_y
_atom_site_fract_z
_atom_site_B_iso_or_equiv
_atom_site_occupancy
_atom_site_attached_hydrogens
Li1 Li1+ 3 b 0 0 0.5 3.175(62) 0.935(5) 0
Ni1 Ni2+ 3 b 0 0 0.5 3.175(62) 0.065(5) 0
Ni2 Ni2+ 3 a 0 0 0 0.422(88) 0.385(0) 0
Mn1 Mn4+ 3 a 0 0 0 0.422(88) 0.4 0
Co1 Co3+ 3 a 0 0 0 0.422(88) 0.15 0
Li2 Li1+ 3 a 0 0 0 0.422(88) 0.065(5) 0
O1 O2- 6 c 0 0 0.25739(20) 0.500(0) 1. 0
#End of TTdata_181265-ICSD