
#(C) 2017 by FIZ Karlsruhe - Leibniz Institute for Information Infrastructure.  All rights reserved.
data_183611-ICSD
_database_code_ICSD 183611
_audit_creation_date 2012-08-01
_chemical_name_systematic 'Dilithium cobalt phosphate fluoride'
_chemical_formula_structural 'Li2 Co (P O4) F'
_chemical_formula_sum 'Co1 F1 Li2 O4 P1'
_chemical_name_structure_type Li2NiFPO4
_exptl_crystal_density_diffrn 3.42
_publ_section_title

;
Solving the structure of Li ion battery materials with precession electron
diffraction: application to Li2 Co P O4 F
;
loop_
_citation_id
_citation_journal_full
_citation_year
_citation_journal_volume
_citation_page_first
_citation_page_last
_citation_journal_id_ASTM
primary 'Chemistry of Materials' 2011 23 3540 3545 CMATEX
loop_
_publ_author_name
'Hadermann, J.'
'Abakumov, A.M.'
'Turner, S.'
'Hafideddine, Z.'
'Khasanova, N.R.'
'Antipov, E.V.'
'van Tendeloo, G.'
_cell_length_a 10.452(2)
_cell_length_b 6.3911(8)
_cell_length_c 10.874(2)
_cell_angle_alpha 90.
_cell_angle_beta 90.
_cell_angle_gamma 90.
_cell_volume 726.38
_cell_formula_units_Z 8
_symmetry_space_group_name_H-M 'P n m a'
_symmetry_Int_Tables_number 62
_refine_ls_R_factor_all 0.24
loop_
_symmetry_equiv_pos_site_id
_symmetry_equiv_pos_as_xyz
1 'x+1/2, y, -z+1/2'
2 'x, -y+1/2, z'
3 '-x+1/2, y+1/2, z+1/2'
4 '-x, -y, -z'
5 '-x+1/2, -y, z+1/2'
6 '-x, y+1/2, -z'
7 'x+1/2, -y+1/2, -z+1/2'
8 'x, y, z'
loop_
_atom_type_symbol
_atom_type_oxidation_number
Li1+ 1
Co2+ 2
P5+ 5
O2- -2
F1- -1
loop_
_atom_site_label
_atom_site_type_symbol
_atom_site_symmetry_multiplicity
_atom_site_Wyckoff_symbol
_atom_site_fract_x
_atom_site_fract_y
_atom_site_fract_z
_atom_site_B_iso_or_equiv
_atom_site_occupancy
_atom_site_attached_hydrogens
Li1 Li1+ 8 d 0.724(13) 0.963(11) 0.665(5) 0.014(2) 1. 0
Li2 Li1+ 4 c 0.936(14) 0.75 0.729(9) 0.014(2) 1. 0
Li3 Li1+ 4 c 0.244(19) 0.25 0.581(7) 0.014(2) 1. 0
Co1 Co2+ 4 a 0 0 0 0.014(2) 1. 0
Co2 Co2+ 4 b 0 0 0.5 0.014(2) 1. 0
P1 P5+ 4 c 0.739(3) 0.75 0.9278(12) 0.014(2) 1. 0
P2 P5+ 4 c 0.008(3) 0.25 0.7470(13) 0.014(2) 1. 0
O1 O2- 8 d 0.800(3) 0.945 0.9833(12) 0.014(2) 1. 0
O2 O2- 4 c 0.596(3) 0.75 0.9562(12) 0.014(2) 1. 0
O3 O2- 4 c 0.759(3) 0.75 0.7885(12) 0.014(2) 1. 0
O4 O2- 8 d -0.041(3) 0.445 0.6808(13) 0.014(2) 1. 0
O5 O2- 4 c 0.154(3) 0.25 0.7466(12) 0.014(2) 1. 0
O6 O2- 4 c -0.041(3) 0.25 0.8798(13) 0.014(2) 1. 0
F1 F1- 4 c 0.047(6) 0.75 0.877(4) 0.014(2) 1. 0
F2 F1- 4 c 0.872(5) 0.75 0.545(5) 0.014(2) 1. 0
#End of TTdata_183611-ICSD