
#(C) 2018 by FIZ Karlsruhe - Leibniz Institute for Information Infrastructure.  All rights reserved.
data_183876-ICSD
_database_code_ICSD 183876
_audit_creation_date 2012-08-01
_chemical_name_systematic 'Lithium vanadium phosphate fluoride'
_chemical_formula_structural 'Li V (P O4) F'
_chemical_formula_sum 'F1 Li1 O4 P1 V1'
_exptl_crystal_density_diffrn 3.27
_publ_section_title

;
Structure and electrochemistry of two-electron redox couples in lithium metal
fluorophosphates based on the tavorite structure
;
loop_
_citation_id
_citation_journal_full
_citation_year
_citation_journal_volume
_citation_page_first
_citation_page_last
_citation_journal_id_ASTM
primary 'Chemistry of Materials' 2011 23 5138 5148 CMATEX
loop_
_publ_author_name
'Ellis, B.L.'
'Ramesh, T.N.'
'Davis, L.J.M.'
'Goward, G.R.'
'Nazar, L.F.'
_cell_length_a 5.30941(1)
_cell_length_b 7.49936(2)
_cell_length_c 5.16888(1)
_cell_angle_alpha 112.933(0)
_cell_angle_beta 81.664(0)
_cell_angle_gamma 113.125(0)
_cell_volume 174.31
_cell_formula_units_Z 2
_symmetry_space_group_name_H-M 'P -1'
_symmetry_Int_Tables_number 2
_refine_ls_R_factor_all 0.0345
loop_
_symmetry_equiv_pos_site_id
_symmetry_equiv_pos_as_xyz
1 '-x, -y, -z'
2 'x, y, z'
loop_
_atom_type_symbol
_atom_type_oxidation_number
Li1+ 1
V3+ 3
P5+ 5
O2- -2
F1- -1
loop_
_atom_site_label
_atom_site_type_symbol
_atom_site_symmetry_multiplicity
_atom_site_Wyckoff_symbol
_atom_site_fract_x
_atom_site_fract_y
_atom_site_fract_z
_atom_site_B_iso_or_equiv
_atom_site_occupancy
_atom_site_attached_hydrogens
Li1 Li1+ 2 i 0.389(2) 0.334(1) 0.659(2) 0.015 0.18(1) 0
Li2 Li1+ 2 i 0.373(2) 0.236(1) 0.517(2) 0.015 0.82(1) 0
V1 V3+ 1 a 0 0 0 0.0043(3) 1. 0
V2 V3+ 1 g 0 0.5 0.5 0.0059(3) 1. 0
P1 P5+ 2 i -0.6476(2) -0.2515(2) 0.0719(2) 0.0070(3) 1. 0
O1 O2- 2 i 0.2109(4) -0.0936(3) 0.1701(4) 0.015(2) 1. 0
O2 O2- 2 i -0.3420(4) -0.1375(3) 0.1705(4) 0.016(2) 1. 0
O3 O2- 2 i -0.7627(4) -0.4100(3) 0.2163(4) 0.013(2) 1. 0
O4 O2- 2 i -0.6695(4) -0.3597(3) -0.2503(4) 0.014(2) 1. 0
F1 F1- 2 i 0.0875(3) 0.2450(2) 0.3585(3) 0.015(2) 1. 0
#End of TTdata_183876-ICSD