
#(C) 2018 by FIZ Karlsruhe - Leibniz Institute for Information Infrastructure.  All rights reserved.
data_183832-ICSD
_database_code_ICSD 183832
_audit_creation_date 2012-08-01
_chemical_name_systematic
'Lithium iron manganese tetraoxosilicate (2/0.53/0.47/1) - beta II'
_chemical_formula_structural 'Li2 Fe0.53 Mn0.47 (Si O4)'
_chemical_formula_sum 'Fe0.53 Li2 Mn0.47 O4 Si1'
_chemical_name_structure_type Enargite-Cu3AsS4
_exptl_crystal_density_diffrn 3.21
_cell_measurement_temperature 298.
_publ_section_title
'Polymorphism in Li2 (Fe, Mn) Si O4 : a combined diffraction and NMR study'
loop_
_citation_id
_citation_journal_full
_citation_year
_citation_journal_volume
_citation_page_first
_citation_page_last
_citation_journal_id_ASTM
primary 'Journal of Materials Chemistry' 2011 21 17823 17831 JMACEP
loop_
_publ_author_name
'Sirisopanaporn, C.'
'Dominko, R.'
'Masquelier, C.'
'Armstrong, A.R.'
'Mali, G.'
'Bruce, P.G.'
_cell_length_a 6.2850(2)
_cell_length_b 5.3540(2)
_cell_length_c 4.9684(2)
_cell_angle_alpha 90.
_cell_angle_beta 90.
_cell_angle_gamma 90.
_cell_volume 167.19
_cell_formula_units_Z 2
_symmetry_space_group_name_H-M 'P m n 21'
_symmetry_Int_Tables_number 31
_refine_ls_R_factor_all 0.0106
loop_
_symmetry_equiv_pos_site_id
_symmetry_equiv_pos_as_xyz
1 'x+1/2, -y, z+1/2'
2 '-x+1/2, -y, z+1/2'
3 '-x, y, z'
4 'x, y, z'
loop_
_atom_type_symbol
_atom_type_oxidation_number
Li1+ 1
Fe2+ 2
Mn2+ 2
Si4+ 4
O2- -2
loop_
_atom_site_label
_atom_site_type_symbol
_atom_site_symmetry_multiplicity
_atom_site_Wyckoff_symbol
_atom_site_fract_x
_atom_site_fract_y
_atom_site_fract_z
_atom_site_B_iso_or_equiv
_atom_site_occupancy
_atom_site_attached_hydrogens
Li1 Li1+ 4 b 0.7438(8) 0.3327(12) 0.0035(12) 0.58(6) 1. 0
Fe1 Fe2+ 2 a 0 0.1692(8) 0.4855(9) 0.3 0.53(1) 0
Mn1 Mn2+ 2 a 0 0.1692(8) 0.4855(9) 0.3 0.47(1) 0
Si1 Si4+ 2 a 0 0.8232(6) 0 0.16(3) 1. 0
O1 O2- 4 b 0.7884(2) 0.6878(3) 0.8935(7) 0.64(3) 1. 0
O2 O2- 2 a 0 0.1237(4) 0.9124(13) 0.65(4) 1. 0
O3 O2- 2 a 0 0.8177(5) 0.3345(8) 0.46(3) 1. 0
#End of TTdata_183832-ICSD