
#(C) 2018 by FIZ Karlsruhe - Leibniz Institute for Information Infrastructure.  All rights reserved.
data_184601-ICSD
_database_code_ICSD 184601
_audit_creation_date 2012-08-01
_chemical_name_systematic 'Lithium vanadium phosphate fluoride'
_chemical_formula_structural 'Li V (P O4) F'
_chemical_formula_sum 'F1 Li1 O4 P1 V1'
_chemical_name_structure_type LiCoSO4F
_exptl_crystal_density_diffrn 3.27
_publ_section_title
'Synthesis and crystallographic study of homeotypic Li V PO4 F and Li V PO4 O'
loop_
_citation_id
_citation_journal_full
_citation_year
_citation_journal_volume
_citation_page_first
_citation_page_last
_citation_journal_id_ASTM
primary 'Chemistry of Materials' 2012 24 1223 1234 CMATEX
loop_
_publ_author_name
'Ateba Mba, J.-M.'
'Masquelier, C.'
'Suard, E.'
'Croguennec, L.'
_cell_length_a 5.1708(3)
_cell_length_b 5.3083(3)
_cell_length_c 7.2631(4)
_cell_angle_alpha 107.595(3)
_cell_angle_beta 107.969(2)
_cell_angle_gamma 98.388(2)
_cell_volume 174.36
_cell_formula_units_Z 2
_symmetry_space_group_name_H-M 'P -1'
_symmetry_Int_Tables_number 2
_refine_ls_R_factor_all 0.0188
loop_
_symmetry_equiv_pos_site_id
_symmetry_equiv_pos_as_xyz
1 '-x, -y, -z'
2 'x, y, z'
loop_
_atom_type_symbol
_atom_type_oxidation_number
V3+ 3
P5+ 5
O2- -2
F1- -1
Li1+ 1
loop_
_atom_site_label
_atom_site_type_symbol
_atom_site_symmetry_multiplicity
_atom_site_Wyckoff_symbol
_atom_site_fract_x
_atom_site_fract_y
_atom_site_fract_z
_atom_site_B_iso_or_equiv
_atom_site_occupancy
_atom_site_attached_hydrogens
V1 V3+ 1 a 0 0 0 0.404(1) 1. 0
V2 V3+ 1 b 0 0 0.5 0.306(1) 1. 0
P1 P5+ 2 i 0.3264(1) 0.6494(1) 0.2533(1) 0.557(4) 1. 0
O1 O2- 2 i 0.3737(3) 0.2374(2) 0.5962(2) 0.417(3) 1. 0
O2 O2- 2 i 0.1072(2) -0.3218(2) 0.3508(2) 0.425(3) 1. 0
O3 O2- 2 i 0.6906(2) 0.6567(2) -0.1471(2) 0.752(3) 1. 0
O4 O2- 2 i 0.2567(2) 0.7848(2) 0.0885(2) 0.299(2) 1. 0
F1 F1- 2 i -0.1135(2) 0.0873(2) 0.2438(2) 0.842(3) 1. 0
Li1 Li1+ 2 i 0.703(1) 0.371(1) 0.233(1) 2.635(2) 1. 0
#End of TTdata_184601-ICSD