
#(C) 2018 by FIZ Karlsruhe - Leibniz Institute for Information Infrastructure.  All rights reserved.
data_187799-ICSD
_database_code_ICSD 187799
_audit_creation_date 2013-08-01
_chemical_name_systematic 'Lithium iron sulfate fluoride'
_chemical_formula_structural 'Li Fe (S O4) F'
_chemical_formula_sum 'F1 Fe1 Li1 O4 S1'
_chemical_name_structure_type Triplite-(Mn,Fe)2PO4F
_exptl_crystal_density_diffrn 3.32
_cell_measurement_temperature 300.
_publ_section_title 'Ultra-rapid microwave synthesis of triplite Li Fe S O4 F'
loop_
_citation_id
_citation_journal_full
_citation_year
_citation_journal_volume
_citation_page_first
_citation_page_last
_citation_journal_id_ASTM
primary
'Journal of Materials Chemistry A: Materials for Energy and Sustainability' 2013 1 2990 2994 JMCAET
loop_
_publ_author_name
'Tripathi, R.'
'Popov. G.'
'Xiaoqi Sun'
'Ryan, D.H.'
'Nazar, L.F.'
_cell_length_a 13.0275(3)
_cell_length_b 6.3953(1)
_cell_length_c 9.8443(2)
_cell_angle_alpha 90.
_cell_angle_beta 119.753(1)
_cell_angle_gamma 90.
_cell_volume 712.05
_cell_formula_units_Z 8
_symmetry_space_group_name_H-M 'C 1 2/c 1'
_symmetry_Int_Tables_number 15
_refine_ls_R_factor_all 0.0134
loop_
_symmetry_equiv_pos_site_id
_symmetry_equiv_pos_as_xyz
1 'x, -y, z+1/2'
2 '-x, -y, -z'
3 '-x, y, -z+1/2'
4 'x, y, z'
5 'x+1/2, -y+1/2, z+1/2'
6 '-x+1/2, -y+1/2, -z'
7 '-x+1/2, y+1/2, -z+1/2'
8 'x+1/2, y+1/2, z'
loop_
_atom_type_symbol
_atom_type_oxidation_number
Li1+ 1
Fe2+ 2
Li1+ 1
Fe2+ 2
S6+ 6
F1- -1
O2- -2
loop_
_atom_site_label
_atom_site_type_symbol
_atom_site_symmetry_multiplicity
_atom_site_Wyckoff_symbol
_atom_site_fract_x
_atom_site_fract_y
_atom_site_fract_z
_atom_site_B_iso_or_equiv
_atom_site_occupancy
_atom_site_attached_hydrogens
Li1 Li1+ 8 f 0.6469(2) 0.8947(4) 0.8475(3) 0.0215(8) 0.426(2) 0
Fe1 Fe2+ 8 f 0.6469(2) 0.8947(4) 0.8475(3) 0.0215(8) 0.574(2) 0
Li2 Li1+ 8 f 0.9473(3) 0.2482(5) 0.0007(4) 0.027(1) 0.574(2) 0
Fe2 Fe2+ 8 f 0.9473(3) 0.2482(5) 0.0007(4) 0.027(1) 0.426(2) 0
S1 S6+ 8 f 0.3279(2) 0.5923(4) 0.1967(3) 0.0271(7) 1. 0
F1 F1- 8 f 0.9867(3) 0.4037(6) 0.6091(4) 0.043(1) 1. 0
O1 O2- 8 f 0.2150(3) 0.63399(4) 0.1929(3) 0.0239(8) 1. 0
O2 O2- 8 f 0.5792(3) 0.5354(4) 0.1443(3) 0.0236(8) 1. 0
O3 O2- 8 f 0.6928(2) 0.4155(5) 0.4138(3) 0.0234(8) 1. 0
O4 O2- 8 f 0.6350(3) 0.7720(4) 0.3589(3) 0.0209(7) 1. 0
#End of TTdata_187799-ICSD