
#(C) 2018 by FIZ Karlsruhe - Leibniz Institute for Information Infrastructure.  All rights reserved.
data_188648-ICSD
_database_code_ICSD 188648
_audit_creation_date 2014-02-01
_chemical_name_systematic 'Lithium manganese nickel oxide (1/1.5/0.5/4)'
_chemical_formula_structural 'Li Mn1.51 Ni0.49 O4'
_chemical_formula_sum 'Li1 Mn1.51 Ni0.49 O4'
_chemical_name_structure_type Spinel-LiFe5O8
_chemical_name_mineral Spinel-(Li,Mn,Ni)
_exptl_crystal_density_diffrn 4.44
_cell_measurement_temperature 300.
_publ_section_title

;
Unraveling structural evolution of Li Ni0.5 Mn1.5 O4 by in situ neutron
diffraction
;
loop_
_citation_id
_citation_journal_full
_citation_year
_citation_journal_volume
_citation_page_first
_citation_page_last
_citation_journal_id_ASTM
primary
'Journal of Materials Chemistry A: Materials for Energy and Sustainability' 2013 1 6908 6914 JMCAET
loop_
_publ_author_name
'Lu Cai'
'Zengcai Liu'
'Ke An'
'Chengdu Liang'
_cell_length_a 8.1733(4)
_cell_length_b 8.1733(4)
_cell_length_c 8.1733(4)
_cell_angle_alpha 90.0000(0)
_cell_angle_beta 90.0000(0)
_cell_angle_gamma 90.0000(0)
_cell_volume 546.
_cell_formula_units_Z 8
_symmetry_space_group_name_H-M 'P 43 3 2'
_symmetry_Int_Tables_number 212
_refine_ls_R_factor_all 0.0436
loop_
_symmetry_equiv_pos_site_id
_symmetry_equiv_pos_as_xyz
1 'z+1/4, y+3/4, -x+3/4'
2 '-z+3/4, y+1/4, x+3/4'
3 'y+1/4, x+3/4, -z+3/4'
4 '-y+3/4, x+1/4, z+3/4'
5 'x+1/4, z+3/4, -y+3/4'
6 '-x+3/4, z+1/4, y+3/4'
7 'z+3/4, -y+3/4, x+1/4'
8 '-z+1/4, -y+1/4, -x+1/4'
9 'y+3/4, -x+3/4, z+1/4'
10 '-y+1/4, -x+1/4, -z+1/4'
11 'x+3/4, -z+3/4, y+1/4'
12 '-x+1/4, -z+1/4, -y+1/4'
13 '-y+1/2, -z, x+1/2'
14 '-y, z+1/2, -x+1/2'
15 'y+1/2, -z+1/2, -x'
16 'y, z, x'
17 'z+1/2, -x+1/2, -y'
18 '-z+1/2, -x, y+1/2'
19 '-z, x+1/2, -y+1/2'
20 'z, x, y'
21 '-x+1/2, -y, z+1/2'
22 '-x, y+1/2, -z+1/2'
23 'x+1/2, -y+1/2, -z'
24 'x, y, z'
loop_
_atom_type_symbol
_atom_type_oxidation_number
Li1+ 1
Mn3+ 3.5
Ni3+ 3.5
Mn3+ 3.5
O2- -2
loop_
_atom_site_label
_atom_site_type_symbol
_atom_site_symmetry_multiplicity
_atom_site_Wyckoff_symbol
_atom_site_fract_x
_atom_site_fract_y
_atom_site_fract_z
_atom_site_B_iso_or_equiv
_atom_site_occupancy
_atom_site_attached_hydrogens
Li1 Li1+ 8 c 0.0037 0.0037 0.0037 0.0073 1. 0
Mn1 Mn3+ 12 d 0.125 0.3794 0.8706 0.0032 1. 0
Ni1 Ni3+ 4 b 0.625 0.625 0.625 0.0037 0.9717 0
Mn2 Mn3+ 4 b 0.625 0.625 0.625 0.0037 0.0283 0
O1 O2- 8 c 0.3847 0.3847 0.3847 0.0017 1. 0
O2 O2- 24 e 0.1498 0.8577 0.1245 0.0017 1. 0
#End of TTdata_188648-ICSD