
#(C) 2018 by FIZ Karlsruhe - Leibniz Institute for Information Infrastructure.  All rights reserved.
data_188763-ICSD
_database_code_ICSD 188763
_audit_creation_date 2014-02-01
_chemical_name_systematic 'Lithium vanado(V)molybdate(VI)'
_chemical_formula_structural 'Li (V Mo O6)'
_chemical_formula_sum 'Li1 Mo1 O6 V1'
_chemical_name_structure_type ThTi2O6
_exptl_crystal_density_diffrn 3.92
_cell_measurement_temperature 298.
_publ_section_title 'Lithium vanado(V)molybdate(VI), Li (V Mo O6)'
loop_
_citation_id
_citation_journal_full
_citation_year
_citation_journal_volume
_citation_page_first
_citation_page_last
_citation_journal_id_ASTM
primary 'Acta Crystallographica, Section E: Structure Reports Online' 2013 69
i57 i58 ACSEBH
loop_
_publ_author_name
'Safa Ezzine Yahmed'
'Rawia Nasri'
'Mohamed Faouzi Zid'
'Ahmed Driss'
_cell_length_a 9.3555(9)
_cell_length_b 3.6432(5)
_cell_length_c 6.6887(7)
_cell_angle_alpha 90.
_cell_angle_beta 111.669(6)
_cell_angle_gamma 90.
_cell_volume 211.87
_cell_formula_units_Z 2
_symmetry_space_group_name_H-M 'C 1 2/m 1'
_symmetry_Int_Tables_number 12
_refine_ls_R_factor_all 0.0175
loop_
_symmetry_equiv_pos_site_id
_symmetry_equiv_pos_as_xyz
1 '-x, y, -z'
2 '-x, -y, -z'
3 'x, -y, z'
4 'x, y, z'
5 '-x+1/2, y+1/2, -z'
6 '-x+1/2, -y+1/2, -z'
7 'x+1/2, -y+1/2, z'
8 'x+1/2, y+1/2, z'
loop_
_atom_type_symbol
_atom_type_oxidation_number
Mo6+ 6
V5+ 5
Li1+ 1
O2- -2
loop_
_atom_site_label
_atom_site_type_symbol
_atom_site_symmetry_multiplicity
_atom_site_Wyckoff_symbol
_atom_site_fract_x
_atom_site_fract_y
_atom_site_fract_z
_atom_site_B_iso_or_equiv
_atom_site_occupancy
_atom_site_attached_hydrogens
Mo1 Mo6+ 4 i 0.18622(4) 0. 0.65068(5) 0.00752(17) 0.5 0
V1 V5+ 4 i 0.18622(4) 0. 0.65068(5) 0.00752(17) 0.5 0
Li1 Li1+ 2 a 0. 0. 0. 0.0152(17) 1 0
O1 O2- 4 i 0.0259(3) 0. 0.7107(5) 0.0167(5) 1 0
O2 O2- 4 i 0.3080(3) 0. 0.4362(4) 0.0096(4) 1 0
O3 O2- 4 i 0.3319(3) 0. 0.8860(4) 0.0173(5) 1 0
loop_
_atom_site_aniso_label
_atom_site_aniso_type_symbol
_atom_site_aniso_U_11
_atom_site_aniso_U_22
_atom_site_aniso_U_33
_atom_site_aniso_U_12
_atom_site_aniso_U_13
_atom_site_aniso_U_23
Mo1 Mo6+ 0.0082(2) 0.0049(2) 0.0100(2) 0. 0.00406(14) 0.
V1 V5+ 0.0082(2) 0.0049(2) 0.0100(2) 0. 0.00406(14) 0.
Li1 Li1+ 0.015(4) 0.026(5) 0.006(3) 0. 0.005(3) 0.
O1 O2- 0.0108(10) 0.0092(12) 0.0320(14) 0. 0.0102(10) 0.
O2 O2- 0.0118(10) 0.0039(10) 0.0159(10) 0. 0.0083(8) 0.
O3 O2- 0.0131(11) 0.0221(15) 0.0151(11) 0. 0.0032(9) 0.
#End of TTdata_188763-ICSD