
#(C) 2018 by FIZ Karlsruhe - Leibniz Institute for Information Infrastructure.  All rights reserved.
data_189118-ICSD
_database_code_ICSD 189118
_audit_creation_date 2014-02-01
_chemical_name_systematic 'Lithium ferrotitanate'
_chemical_formula_structural 'Li Fe (Ti O4)'
_chemical_formula_sum 'Fe1 Li1 O4 Ti1'
_chemical_name_structure_type CaFe2O4
_exptl_crystal_density_diffrn 4.09
_publ_section_title

;
Novel Li Fe Ti O4 polymorph with a tunnel structure: synthesis, structural and
electrochemical characterization
;
loop_
_citation_id
_citation_journal_full
_citation_year
_citation_journal_volume
_citation_page_first
_citation_page_last
_citation_journal_id_ASTM
primary 'ECS Transactions' 2012 41 29 34 ECSTF8
loop_
_publ_author_name
'Bruno, S.R.'
'Blakely, C.K.'
'Poltavets, V.V.'
_cell_length_a 8.9498(6)
_cell_length_b 2.9528(6)
_cell_length_c 10.7457(8)
_cell_angle_alpha 90.
_cell_angle_beta 90.
_cell_angle_gamma 90.
_cell_volume 283.98
_cell_formula_units_Z 4
_symmetry_space_group_name_H-M 'P n m a'
_symmetry_Int_Tables_number 62
loop_
_symmetry_equiv_pos_site_id
_symmetry_equiv_pos_as_xyz
1 'x+1/2, y, -z+1/2'
2 'x, -y+1/2, z'
3 '-x+1/2, y+1/2, z+1/2'
4 '-x, -y, -z'
5 '-x+1/2, -y, z+1/2'
6 '-x, y+1/2, -z'
7 'x+1/2, -y+1/2, -z+1/2'
8 'x, y, z'
loop_
_atom_type_symbol
_atom_type_oxidation_number
Li1+ 1
Fe3+ 3
Ti4+ 4
Fe3+ 3
Ti4+ 4
O2- -2
loop_
_atom_site_label
_atom_site_type_symbol
_atom_site_symmetry_multiplicity
_atom_site_Wyckoff_symbol
_atom_site_fract_x
_atom_site_fract_y
_atom_site_fract_z
_atom_site_B_iso_or_equiv
_atom_site_occupancy
_atom_site_attached_hydrogens
Li1 Li1+ 4 c 0.2387(3) 0.25 0.3573(5) 1.75 1. 0
Fe1 Fe3+ 4 c 0.0873(1) 0.25 0.6107(2) 1.19 0.5 0
Ti1 Ti4+ 4 c 0.0873(1) 0.25 0.6107(2) 1.19 0.5 0
Fe2 Fe3+ 4 c 0.0700(9) 0.25 0.1169(1) 0.22 0.5 0
Ti2 Ti4+ 4 c 0.0700(9) 0.25 0.1169(1) 0.22 0.5 0
O1 O2- 4 c 0.2800(4) 0.25 0.6500(9) 1. 1. 0
O2 O2- 4 c 0.3800(3) 0.25 0.9770(7) 1. 1. 0
O3 O2- 4 c 0.4800(1) 0.25 0.2100(3) 1. 1. 0
O4 O2- 4 c 0.0800(5) 0.25 0.9274(6) 1. 1. 0
#End of TTdata_189118-ICSD