
#(C) 2018 by FIZ Karlsruhe - Leibniz Institute for Information Infrastructure.  All rights reserved.
data_189529-ICSD
_database_code_ICSD 189529
_audit_creation_date 2014-02-01
_chemical_name_systematic 'Trineodymium dizirconium heptalithium dodecaoxide'
_chemical_formula_structural 'Nd3 Zr2 Li7 O12'
_chemical_formula_sum 'Li7 Nd3 O12 Zr2'
_chemical_name_structure_type Li7La3Sn2O12
_exptl_crystal_density_diffrn 5.4
_publ_section_title
'Synthesis, conductivity and structural aspects of Nd3 Zr2 Li7-3x Alx O12'
loop_
_citation_id
_citation_journal_full
_citation_year
_citation_journal_volume
_citation_page_first
_citation_page_last
_citation_journal_id_ASTM
primary
'Journal of Materials Chemistry A: Materials for Energy and Sustainability' 2013 1 14013 14022 JMCAET
loop_
_publ_author_name
'M. A. Howard'
'O. Clemens'
'K. S. Knight'
'P. A. Anderson'
'S. Hafiz'
'P. M. Panchmatia'
'P. R. Slater'
_cell_length_a 12.94711(9)
_cell_length_b 12.94711(9)
_cell_length_c 12.5512(1)
_cell_angle_alpha 90.
_cell_angle_beta 90.
_cell_angle_gamma 90.
_cell_volume 2103.93
_cell_formula_units_Z 8
_symmetry_space_group_name_H-M 'I 41/a c d Z'
_symmetry_Int_Tables_number 142
_refine_ls_R_factor_all 0.0115
loop_
_symmetry_equiv_pos_site_id
_symmetry_equiv_pos_as_xyz
1 'y+1/4, x+3/4, -z+3/4'
2 '-y+3/4, x+3/4, -z+1/4'
3 'x, y+1/2, -z'
4 '-x, y+1/2, -z+1/2'
5 '-y+3/4, -x+1/4, z+1/4'
6 'y+1/4, -x+1/4, z+3/4'
7 '-x, -y+1/2, z'
8 'x, -y+1/2, z+1/2'
9 'y+1/4, -x+3/4, -z+1/4'
10 '-y+3/4, -x+3/4, -z+3/4'
11 'x, -y, -z+1/2'
12 '-x, -y, -z'
13 '-y+3/4, x+1/4, z+3/4'
14 'y+1/4, x+1/4, z+1/4'
15 '-x, y, z+1/2'
16 'x, y, z'
17 'y+3/4, x+1/4, -z+1/4'
18 '-y+1/4, x+1/4, -z+3/4'
19 'x+1/2, y, -z+1/2'
20 '-x+1/2, y, -z'
21 '-y+1/4, -x+3/4, z+3/4'
22 'y+3/4, -x+3/4, z+1/4'
23 '-x+1/2, -y, z+1/2'
24 'x+1/2, -y, z'
25 'y+3/4, -x+1/4, -z+3/4'
26 '-y+1/4, -x+1/4, -z+1/4'
27 'x+1/2, -y+1/2, -z'
28 '-x+1/2, -y+1/2, -z+1/2'
29 '-y+1/4, x+3/4, z+1/4'
30 'y+3/4, x+3/4, z+3/4'
31 '-x+1/2, y+1/2, z'
32 'x+1/2, y+1/2, z+1/2'
loop_
_atom_type_symbol
_atom_type_oxidation_number
Nd3+ 3
Zr4+ 4
Li1+ 1
O2- -2
loop_
_atom_site_label
_atom_site_type_symbol
_atom_site_symmetry_multiplicity
_atom_site_Wyckoff_symbol
_atom_site_fract_x
_atom_site_fract_y
_atom_site_fract_z
_atom_site_B_iso_or_equiv
_atom_site_occupancy
_atom_site_attached_hydrogens
Nd1 Nd3+ 8 b 0 0.25 0.125 0.25(1) 1. 0
Nd2 Nd3+ 16 e 0.1271(1) 0 0.25 0.25(1) 1. 0
Zr1 Zr4+ 16 c 0 0 0 0.25(1) 1. 0
Li1 Li1+ 8 a 0 0.25 0.375 0.25(1) 1. 0
Li2 Li1+ 16 f 0.1819(4) 0.4319(4) 0.125 0.25(1) 1. 0
Li3 Li1+ 32 g 0.0803(4) 0.0885(4) 0.8042(4) 0.25(1) 1. 0
O1 O2- 32 g 0.2773(1) 0.0986(1) 0.1949(1) 0.25(1) 1. 0
O2 O2- 32 g 0.1945(1) 0.2834(1) 0.0971(1) 0.25(1) 1. 0
O3 O2- 32 g 0.1012(1) 0.1942(1) 0.2828(1) 0.25(1) 1. 0
#End of TTdata_189529-ICSD