
#(C) 2018 by FIZ Karlsruhe - Leibniz Institute for Information Infrastructure.  All rights reserved.
data_189655-ICSD
_database_code_ICSD 189655
_audit_creation_date 2014-02-01
_chemical_name_systematic 'Dilithium dicopper tellurate'
_chemical_formula_structural 'Li2 Cu2 (Te O6)'
_chemical_formula_sum 'Cu2 Li2 O6 Te1'
_exptl_crystal_density_diffrn 5.15
_cell_measurement_temperature 298.
_publ_section_title

;
Formation of honeycomb ordered monoclinic Li2 M2 TeO6 (M = Cu, Ni) and
disordered orthorhombic Li2 Ni2 Te O6 oxides
;
loop_
_citation_id
_citation_journal_full
_citation_year
_citation_journal_volume
_citation_page_first
_citation_page_last
_citation_journal_id_ASTM
primary 'Dalton Transactions' 2013 42 14992 14998 DTARAF
loop_
_publ_author_name
'Vinod Kumar'
'Akanksha Gupta'
'S. Uma'
_cell_length_a 5.6435(7)
_cell_length_b 8.607(1)
_cell_length_c 5.3515(6)
_cell_angle_alpha 90.
_cell_angle_beta 115.222(2)
_cell_angle_gamma 90.
_cell_volume 235.16
_cell_formula_units_Z 2
_symmetry_space_group_name_H-M 'C 1 2/m 1'
_symmetry_Int_Tables_number 12
_refine_ls_R_factor_all 0.0447
loop_
_symmetry_equiv_pos_site_id
_symmetry_equiv_pos_as_xyz
1 '-x, y, -z'
2 '-x, -y, -z'
3 'x, -y, z'
4 'x, y, z'
5 '-x+1/2, y+1/2, -z'
6 '-x+1/2, -y+1/2, -z'
7 'x+1/2, -y+1/2, z'
8 'x+1/2, y+1/2, z'
loop_
_atom_type_symbol
_atom_type_oxidation_number
Te6+ 6
Cu2+ 2
Li1+ 1
O2- -2
loop_
_atom_site_label
_atom_site_type_symbol
_atom_site_symmetry_multiplicity
_atom_site_Wyckoff_symbol
_atom_site_fract_x
_atom_site_fract_y
_atom_site_fract_z
_atom_site_B_iso_or_equiv
_atom_site_occupancy
_atom_site_attached_hydrogens
Te1 Te6+ 2 a 0 0 0 0.0097(1) 1. 0
Cu1 Cu2+ 4 g 0 0.6624(4) 0 0.0069(1) 1. 0
Li1 Li1+ 4 h 0 0.185(5) 0.5 0.0450(8) 1. 0
O1 O2- 4 i 0.7690(2) 0 0.174(2) 0.0126(2) 1. 0
O2 O2- 8 j 0.1917(2) 0.157(1) 0.247(1) 0.0126(2) 1. 0
#End of TTdata_189655-ICSD