
#(C) 2017 by FIZ Karlsruhe - Leibniz Institute for Information Infrastructure.  All rights reserved.
data_1903-ICSD
_database_code_ICSD 1903
_audit_creation_date 1980-01-01
_audit_update_record 2010-02-01
_chemical_name_systematic 'Lithium hydrazinium tetrafluoroberyllate'
_chemical_formula_structural 'Li (N2 H5) (Be F4)'
_chemical_formula_sum 'H5 Be1 F4 Li1 N2'
_chemical_name_structure_type LiN2H5SO4
_exptl_crystal_density_diffrn 1.87
_publ_section_title
'A neutron diffraction refinement of lithium hydrazinium fluoroberyllate'
loop_
_citation_id
_citation_journal_full
_citation_year
_citation_journal_volume
_citation_page_first
_citation_page_last
_citation_journal_id_ASTM
primary 'Acta Crystallographica B (24,1968-38,1982)' 1975 31 1500 1501 ACBCAR
loop_
_publ_author_name
'Anderson, M.R.'
'Brown, I.D.'
_cell_length_a 9.811(4)
_cell_length_b 8.800(8)
_cell_length_c 5.139(4)
_cell_angle_alpha 90.
_cell_angle_beta 90.
_cell_angle_gamma 90.
_cell_volume 443.68
_cell_formula_units_Z 4
_symmetry_space_group_name_H-M 'P n a 21'
_symmetry_Int_Tables_number 33
_refine_ls_R_factor_all 0.122
loop_
_symmetry_equiv_pos_site_id
_symmetry_equiv_pos_as_xyz
1 'x+1/2, -y+1/2, z'
2 '-x+1/2, y+1/2, z+1/2'
3 '-x, -y, z+1/2'
4 'x, y, z'
loop_
_atom_type_symbol
_atom_type_oxidation_number
Li1+ 1
N2- -2
Be2+ 2
F1- -1
H1+ 1
loop_
_atom_site_label
_atom_site_type_symbol
_atom_site_symmetry_multiplicity
_atom_site_Wyckoff_symbol
_atom_site_fract_x
_atom_site_fract_y
_atom_site_fract_z
_atom_site_B_iso_or_equiv
_atom_site_occupancy
_atom_site_attached_hydrogens
Li1 Li1+ 4 a 0.3213(18) 0.4353(20) 0.2766(86) 0.033(5) 1. 0
N1 N2- 4 a 0.0228(6) 0.4107(7) 0.7455 . 1. 0
N2 N2- 4 a 0.4418(6) 0.2219(6) 0.7397(39) . 1. 0
Be1 Be2+ 4 a 0.1585(4) 0.1260(5) 0.2468(36) . 1. 0
F1 F1- 4 a 0.1963(8) 0.1058(9) 0.5505(37) . 1. 0
F2 F1- 4 a 0.0001(6) 0.1416(8) 0.2305(41) . 1. 0
F3 F1- 4 a 0.2263(7) 0.2704(7) 0.1447(30) . 1. 0
F4 F1- 4 a 0.2985(8) 0.4877(8) 0.5980(37) . 1. 0
H1 H1+ 4 a 0.116(1) 0.384(2) 0.791(7) . 1. 0
H2 H1+ 4 a 0.019(2) 0.451(3) 0.572(7) . 1. 0
H3 H1+ 4 a 0.347(1) 0.195(2) 0.710(9) . 1. 0
H4 H1+ 4 a 0.445(3) 0.275(3) 0.926(8) . 1. 0
H5 H1+ 4 a 0.472(2) 0.292(4) 0.613(6) . 1. 0
loop_
_atom_site_aniso_label
_atom_site_aniso_type_symbol
_atom_site_aniso_U_11
_atom_site_aniso_U_22
_atom_site_aniso_U_33
_atom_site_aniso_U_12
_atom_site_aniso_U_13
_atom_site_aniso_U_23
N1 N2- 0.031(3) 0.036(3) 0.061(9) -.007(2) 0.002(6) 0.000(5)
N2 N2- 0.026(3) 0.031(3) 0.048(6) 0.002(2) 0.002(6) -.006(6)
Be1 Be2+ 0.015(2) 0.023(2) 0.031(5) -.001(2) -.001(5) 0.009(5)
F1 F1- 0.031(4) 0.025(4) 0.049(9) -.005(3) -.007(5) 0.010(5)
F2 F1- 0.014(3) 0.038(3) 0.036(6) -.004(2) 0.004(3) -.012(7)
F3 F1- 0.028(3) 0.026(4) 0.032(9) -.008(3) -.002(4) 0.005(4)
F4 F1- 0.030(4) 0.028(4) 0.053(8) -.007(3) -.003(5) -.017(5)
H1 H1+ 0.033(7) 0.084(10) 0.086(25) -.015(8) -.013(16) -.013(17)
H2 H1+ 0.088(16) 0.069(15) 0.028(21) -.028(12) 0.012(16) 0.001(12)
H3 H1+ 0.030(7) 0.084(11) 0.145(29) 0.010(8) -.025(15) 0.014(19)
H4 H1+ 0.089(20) 0.068(13) 0.083(29) 0.048(14) 0.011(18) -.015(15)
H5 H1+ 0.05(1) 0.111(17) 0.014(14) 0.007(12) 0.013(10) 0.024(13)
#End of TTdata_1903-ICSD