
#(C) 2018 by FIZ Karlsruhe - Leibniz Institute for Information Infrastructure.  All rights reserved.
data_191287-ICSD
_database_code_ICSD 191287
_audit_creation_date 2014-08-01
_chemical_name_systematic 'Lithium europium boron nitride (0.44/3/3/6)'
_chemical_formula_structural 'Li0.44 Eu3 (B3 N6)'
_chemical_formula_sum 'B3 Eu3 Li0.44 N6'
_exptl_crystal_density_diffrn 6.68
_cell_measurement_temperature 293.
_publ_section_title
'Synthesis, crystal structure and magnetic properties of Li0.44 Eu3 (B3 N6)'
loop_
_citation_id
_citation_journal_full
_citation_year
_citation_journal_volume
_citation_page_first
_citation_page_last
_citation_journal_id_ASTM
primary 'Journal of Solid State Chemistry' 2014 210 96 101 JSSCBI
loop_
_publ_author_name
'Kokal, I.'
'Aydemir, U.'
'Prots, Yu.'
'Foerster, T.'
'Sichelschmidt, J.'
'Yahyaoglu, M.'
'Auffermann, G.'
'Schnelle, W.'
'Schappacher, F.'
'Poettgen, R.'
'Somer, M.'
_cell_length_a 12.0225(2)
_cell_length_b 12.0225(2)
_cell_length_c 6.8556(2)
_cell_angle_alpha 90.
_cell_angle_beta 90.
_cell_angle_gamma 120.
_cell_volume 858.15
_cell_formula_units_Z 6
_symmetry_space_group_name_H-M 'R -3 c H'
_symmetry_Int_Tables_number 167
_refine_ls_R_factor_all 0.017
loop_
_symmetry_equiv_pos_site_id
_symmetry_equiv_pos_as_xyz
1 'x-y, -y, -z+1/2'
2 '-x, -x+y, -z+1/2'
3 'y, x, -z+1/2'
4 'x-y, x, -z'
5 'y, -x+y, -z'
6 '-x, -y, -z'
7 '-x+y, y, z+1/2'
8 'x, x-y, z+1/2'
9 '-y, -x, z+1/2'
10 '-x+y, -x, z'
11 '-y, x-y, z'
12 'x, y, z'
13 'x-y+2/3, -y+1/3, -z+5/6'
14 '-x+2/3, -x+y+1/3, -z+5/6'
15 'y+2/3, x+1/3, -z+5/6'
16 'x-y+2/3, x+1/3, -z+1/3'
17 'y+2/3, -x+y+1/3, -z+1/3'
18 '-x+2/3, -y+1/3, -z+1/3'
19 '-x+y+2/3, y+1/3, z+5/6'
20 'x+2/3, x-y+1/3, z+5/6'
21 '-y+2/3, -x+1/3, z+5/6'
22 '-x+y+2/3, -x+1/3, z+1/3'
23 '-y+2/3, x-y+1/3, z+1/3'
24 'x+2/3, y+1/3, z+1/3'
25 'x-y+1/3, -y+2/3, -z+1/6'
26 '-x+1/3, -x+y+2/3, -z+1/6'
27 'y+1/3, x+2/3, -z+1/6'
28 'x-y+1/3, x+2/3, -z+2/3'
29 'y+1/3, -x+y+2/3, -z+2/3'
30 '-x+1/3, -y+2/3, -z+2/3'
31 '-x+y+1/3, y+2/3, z+1/6'
32 'x+1/3, x-y+2/3, z+1/6'
33 '-y+1/3, -x+2/3, z+1/6'
34 '-x+y+1/3, -x+2/3, z+2/3'
35 '-y+1/3, x-y+2/3, z+2/3'
36 'x+1/3, y+2/3, z+2/3'
loop_
_atom_type_symbol
_atom_type_oxidation_number
Li1+ 1
Eu2+ 2.85
B3+ 3
N3- -3
loop_
_atom_site_label
_atom_site_type_symbol
_atom_site_symmetry_multiplicity
_atom_site_Wyckoff_symbol
_atom_site_fract_x
_atom_site_fract_y
_atom_site_fract_z
_atom_site_B_iso_or_equiv
_atom_site_occupancy
_atom_site_attached_hydrogens
Li1 Li1+ 6 b 0 0 0 0.014(11) 0.44(8) 0
Eu1 Eu2+ 18 e 0.45327(2) 0 0.25 0.0062(1) 1. 0
B1 B3+ 18 e 0.1208(4) 0 0.25 0.0057(8) 1. 0
N1 N3- 18 e 0.8765(3) 0 0.25 0.0115(8) 1. 0
N2 N3- 18 e 0.2434(3) 0 0.25 0.0099(7) 1. 0
loop_
_atom_site_aniso_label
_atom_site_aniso_type_symbol
_atom_site_aniso_U_11
_atom_site_aniso_U_22
_atom_site_aniso_U_33
_atom_site_aniso_U_12
_atom_site_aniso_U_13
_atom_site_aniso_U_23
Eu1 Eu2+ 0.0049(1) 0.0059(1) 0.0080(2) 0.00297(8) 0.00112(3) 0.00224(7)
N1 N3- 0.005(1) 0.008(2) 0.023(2) 0.0039(8) -0.0030(7) -0.006(2)
N2 N3- 0.007(1) 0.011(2) 0.013(2) 0.0055(8) -0.0018(7) -0.004(1)
#End of TTdata_191287-ICSD