
#(C) 2018 by FIZ Karlsruhe - Leibniz Institute for Information Infrastructure.  All rights reserved.
data_192541-ICSD
_database_code_ICSD 192541
_audit_creation_date 2015-02-01
_chemical_name_systematic 'Tetralithium chromium antimony hexaoxide'
_chemical_formula_structural 'Li4 Cr Sb O6'
_chemical_formula_sum 'Cr1 Li4 O6 Sb1'
_chemical_name_structure_type Li2SnO3
_exptl_crystal_density_diffrn 4.48
_cell_measurement_temperature 293.
_publ_section_title

;
Evidence of cationic mixing and ordering in the honeycomb layer of Li4 M Sb O6
(M(III) = Cr, Mn, Al, Ga) (S.G. C2/c) oxides
;
loop_
_citation_id
_citation_journal_full
_citation_year
_citation_journal_volume
_citation_page_first
_citation_page_last
_citation_journal_id_ASTM
primary 'Dalton Transactions' 2014 43 12050 12057 DTARAF
loop_
_publ_author_name
'Bhardwaj, Neha'
'Gupta, Akanksha'
'Uma, S.'
_cell_length_a 5.1368(12)
_cell_length_b 8.890(2)
_cell_length_c 9.809(3)
_cell_angle_alpha 90
_cell_angle_beta 99.93(2)
_cell_angle_gamma 90
_cell_volume 441.22
_cell_formula_units_Z 4
_symmetry_space_group_name_H-M 'C 1 2/c 1'
_symmetry_Int_Tables_number 15
_refine_ls_R_factor_all 0.0456
loop_
_symmetry_equiv_pos_site_id
_symmetry_equiv_pos_as_xyz
1 'x, -y, z+1/2'
2 '-x, -y, -z'
3 '-x, y, -z+1/2'
4 'x, y, z'
5 'x+1/2, -y+1/2, z+1/2'
6 '-x+1/2, -y+1/2, -z'
7 '-x+1/2, y+1/2, -z+1/2'
8 'x+1/2, y+1/2, z'
loop_
_atom_type_symbol
_atom_type_oxidation_number
Li1+ 1
Sb5+ 5
Li1+ 1
Cr3+ 3
Li1+ 1
Sb5+ 5
O2- -2
loop_
_atom_site_label
_atom_site_type_symbol
_atom_site_symmetry_multiplicity
_atom_site_Wyckoff_symbol
_atom_site_fract_x
_atom_site_fract_y
_atom_site_fract_z
_atom_site_B_iso_or_equiv
_atom_site_occupancy
_atom_site_attached_hydrogens
Li1 Li1+ 8 f 0.245(2) 0.0785(13) 0.0004(10) 0.020(3) 1 0
Li2 Li1+ 4 d 0.25 0.25 0.5 0.023(4) 1 0
Sb1 Sb5+ 4 e 0 0.75128(7) 0.25 0.0061(3) 0.75 0
Li3 Li1+ 4 e 0 0.75128(7) 0.25 0.0061(3) 0.25 0
Li4 Li1+ 4 e 0 0.0869(4) 0.25 0.0254(8) 0.47 0
Cr1 Cr3+ 4 e 0 0.0869(4) 0.25 0.0254(8) 0.53 0
Cr2 Cr3+ 4 e 0 0.41940(12) 0.25 0.0029(4) 0.45 0
Li5 Li1+ 4 e 0 0.41940(12) 0.25 0.0029(4) 0.3 0
Sb2 Sb5+ 4 e 0 0.41940(12) 0.25 0.0029(4) 0.25 0
O1 O2- 8 f 0.1380(10) 0.2546(5) 0.1363(5) 0.0137(11) 1 0
O2 O2- 8 f 0.1175(10) 0.5876(5) 0.1360(5) 0.0129(11) 1 0
O3 O2- 8 f 0.1288(10) 0.9106(5) 0.1347(5) 0.0139(11) 1 0
loop_
_atom_site_aniso_label
_atom_site_aniso_type_symbol
_atom_site_aniso_U_11
_atom_site_aniso_U_22
_atom_site_aniso_U_33
_atom_site_aniso_U_12
_atom_site_aniso_U_13
_atom_site_aniso_U_23
Li1 Li1+ 0.022(8) 0.020(8) 0.016(7) -0.006(6) 0.002(6) 0.005(5)
Li2 Li1+ 0.032(11) 0.026(11) 0.012(9) 0.005(8) 0.005(8) -0.006(7)
Sb1 Sb5+ 0.0065(5) 0.0061(5) 0.0056(4) 0 0.0009(3) 0
Li3 Li1+ 0.0065(5) 0.0061(5) 0.0056(4) 0 0.0009(3) 0
Li4 Li1+ 0.0274(17) 0.037(2) 0.0106(14) 0 0.0015(12) 0
Cr1 Cr3+ 0.0274(17) 0.037(2) 0.0106(14) 0 0.0015(12) 0
Cr2 Cr3+ 0.0033(6) 0.0024(6) 0.0029(6) 0 0.0002(4) 0
Li5 Li1+ 0.0033(6) 0.0024(6) 0.0029(6) 0 0.0002(4) 0
Sb2 Sb5+ 0.0033(6) 0.0024(6) 0.0029(6) 0 0.0002(4) 0
#End of TTdata_192541-ICSD