
#(C) 2018 by FIZ Karlsruhe - Leibniz Institute for Information Infrastructure.  All rights reserved.
data_193037-ICSD
_database_code_ICSD 193037
_audit_creation_date 2015-02-01
_chemical_name_systematic
'Lithium titanium(III) aluminium phosphate (3/1.8/0.2/3)'
_chemical_formula_structural 'Li3 (Ti1.79 Al0.21) (P O4)3'
_chemical_formula_sum 'Al0.21 Li3 O12 P3 Ti1.79'
_exptl_crystal_density_diffrn 2.88
_cell_measurement_temperature 100.
_publ_section_title

;
Local structure and lithium mobility in intercalated Li3 Alx Ti2-x (P O4)3
NASICON type materials: a combined neutron diffraction and NMR study
;
loop_
_citation_id
_citation_journal_full
_citation_year
_citation_journal_volume
_citation_page_first
_citation_page_last
_citation_journal_id_ASTM
primary 'Physical Chemistry Chemical Physics' 2014 16 18397 18405 PPCPFQ
loop_
_publ_author_name
'Arbi, K.'
'Hoelzel, M.'
'Kuhn, A.'
'Garcia-Alvarado, F.'
'Sanz, J.'
_cell_length_a 8.34714(10)
_cell_length_b 8.34714(10)
_cell_length_c 22.78375(36)
_cell_angle_alpha 90.
_cell_angle_beta 90.
_cell_angle_gamma 120.
_cell_volume 1374.76
_cell_formula_units_Z 6
_symmetry_space_group_name_H-M 'R -3 H'
_symmetry_Int_Tables_number 148
_refine_ls_R_factor_all 0.028
loop_
_symmetry_equiv_pos_site_id
_symmetry_equiv_pos_as_xyz
1 'x-y, x, -z'
2 'y, -x+y, -z'
3 '-x, -y, -z'
4 '-x+y, -x, z'
5 '-y, x-y, z'
6 'x, y, z'
7 'x-y+2/3, x+1/3, -z+1/3'
8 'y+2/3, -x+y+1/3, -z+1/3'
9 '-x+2/3, -y+1/3, -z+1/3'
10 '-x+y+2/3, -x+1/3, z+1/3'
11 '-y+2/3, x-y+1/3, z+1/3'
12 'x+2/3, y+1/3, z+1/3'
13 'x-y+1/3, x+2/3, -z+2/3'
14 'y+1/3, -x+y+2/3, -z+2/3'
15 '-x+1/3, -y+2/3, -z+2/3'
16 '-x+y+1/3, -x+2/3, z+2/3'
17 '-y+1/3, x-y+2/3, z+2/3'
18 'x+1/3, y+2/3, z+2/3'
loop_
_atom_type_symbol
_atom_type_oxidation_number
Li1+ 1
Ti3+ 3
Al3+ 3
Ti3+ 3
Al3+ 3
P5+ 5
O2- -2
loop_
_atom_site_label
_atom_site_type_symbol
_atom_site_symmetry_multiplicity
_atom_site_Wyckoff_symbol
_atom_site_fract_x
_atom_site_fract_y
_atom_site_fract_z
_atom_site_B_iso_or_equiv
_atom_site_occupancy
_atom_site_attached_hydrogens
Li1 Li1+ 18 f 0.0306(12) 0.3111(11) 0.0448(4) 0.8 0.707 0
Li2 Li1+ 18 f 0.0474(26) 0.3697(27) 0.1191(9) 0.8 0.293 0
Ti1 Ti3+ 6 c 0 0 0.1435(3) 0.38 0.9 0
Al1 Al3+ 6 c 0 0 0.1435(3) 0.38 0.1 0
Ti2 Ti3+ 6 c 0 0 0.3477(3) 0.38 0.89 0
Al2 Al3+ 6 c 0 0 0.3477(3) 0.38 0.11 0
P1 P5+ 18 f 0.2909(3) -0.0008(3) 0.2506(1) 0.46 1. 0
O1 O2- 18 f 0.1664(3) 0.2153(3) 0.0900(1) 0.82 1. 0
O2 O2- 18 f 0.1356(3) 0.2300(3) 0.3985(1) 0.83 1. 0
O3 O2- 18 f 0.1932(3) 0.9921(3) 0.1935(1) 1.52 1. 0
O4 O2- 18 f 0.9106(3) 0.1461(3) 0.2998(1) 1.16 1. 0
#End of TTdata_193037-ICSD