
#(C) 2018 by FIZ Karlsruhe - Leibniz Institute for Information Infrastructure.  All rights reserved.
data_193977-ICSD
_database_code_ICSD 193977
_audit_creation_date 2015-08-01
_chemical_name_systematic 'Lithium iron selenide hydrate (0.81/1.19/1/1)'
_chemical_formula_structural '(Li0.8 Fe0.2) (O H2.08) Fe Se'
_chemical_formula_sum 'H2.08 Fe1.2 Li0.8 O1 Se1'
_exptl_crystal_density_diffrn 4.31
_cell_measurement_temperature 4.
_publ_section_title

;
Coexistence of superconductivity and antiferromagnetism in (Li0.8 Fe0.2) O H
Fe Se
;
loop_
_citation_id
_citation_journal_full
_citation_year
_citation_journal_volume
_citation_page_first
_citation_page_last
_citation_journal_id_ASTM
primary 'Nature Materials' 2015 14 325 329 NMAACR
loop_
_publ_author_name
'Lu, X.F.'
'Wang, N.Z.'
'Wu, H.'
'Wu, Y.P.'
'Zhao, D.'
'Zeng, X.Z.'
'Luo, X.G.'
'Wu, T.'
'Bao, W.'
'Zhang, G.H.'
'Huang, F.Q.'
'Huang, Q.Z.'
'Chen, X.H.'
_cell_length_a 3.77887(6)
_cell_length_b 3.77887(6)
_cell_length_c 9.1609(2)
_cell_angle_alpha 90.
_cell_angle_beta 90.
_cell_angle_gamma 90.
_cell_volume 130.82
_cell_formula_units_Z 2
_symmetry_space_group_name_H-M 'P 4/n m m Z'
_symmetry_Int_Tables_number 129
loop_
_symmetry_equiv_pos_site_id
_symmetry_equiv_pos_as_xyz
1 'y+1/2, x+1/2, -z'
2 '-y, x+1/2, -z'
3 'y+1/2, -x, -z'
4 '-y, -x, -z'
5 'x+1/2, y+1/2, -z'
6 '-x, y+1/2, -z'
7 'x+1/2, -y, -z'
8 '-x, -y, -z'
9 '-y+1/2, -x+1/2, z'
10 'y, -x+1/2, z'
11 '-y+1/2, x, z'
12 'y, x, z'
13 '-x+1/2, -y+1/2, z'
14 'x, -y+1/2, z'
15 '-x+1/2, y, z'
16 'x, y, z'
loop_
_atom_type_symbol
_atom_type_oxidation_number
H1+ 1
O2- -2
Li1+ 1
Fe1+ 1
Se2- -2
loop_
_atom_site_label
_atom_site_type_symbol
_atom_site_symmetry_multiplicity
_atom_site_Wyckoff_symbol
_atom_site_fract_x
_atom_site_fract_y
_atom_site_fract_z
_atom_site_B_iso_or_equiv
_atom_site_occupancy
_atom_site_attached_hydrogens
H1 H1+ 2 c 0.75 0.75 0.1756(4) . 1.04(1) 0
H2 H1+ 8 j 0.7934(19) 0.7934(19) 0.1755(4) 0.011(1) 0.259(3) 0
O1 O2- 2 c 0.25 0.25 -0.07607(2) 0.0071(5) 1. 0
Li1 Li1+ 2 a 0.75 0.25 0 0.01 0.814(2) 0
Fe1 Fe1+ 2 a 0.75 0.25 0 0.01 0.186(2) 0
Fe2 Fe1+ 2 b 0.75 0.25 0.5 0.0068(3) 1. 0
Se1 Se2- 2 c 0.25 0.25 0.33898(1) 0.0054(4) 1. 0
loop_
_atom_site_aniso_label
_atom_site_aniso_type_symbol
_atom_site_aniso_U_11
_atom_site_aniso_U_22
_atom_site_aniso_U_33
_atom_site_aniso_U_12
_atom_site_aniso_U_13
_atom_site_aniso_U_23
H1 H1+ 0.043(1) 0.043(1) 0.011(2) 0. 0. 0.
#End of TTdata_193977-ICSD