
#(C) 2018 by FIZ Karlsruhe - Leibniz Institute for Information Infrastructure.  All rights reserved.
data_194597-ICSD
_database_code_ICSD 194597
_audit_creation_date 2015-08-01
_chemical_name_systematic 'Lithium iron sulfate fluoride'
_chemical_formula_structural 'Li Fe (S O4) F'
_chemical_formula_sum 'F1 Fe1 Li1 O4 S1'
_chemical_name_structure_type LiCoSO4F
_exptl_crystal_density_diffrn 3.24
_publ_section_title

;
Identification of an intermediate phase, Li0.5 Fe S O4 F, formed during
electrochemical cycling of tavorite Li Fe S O4 F
;
loop_
_citation_id
_citation_journal_full
_citation_year
_citation_journal_volume
_citation_page_first
_citation_page_last
_citation_journal_id_ASTM
primary 'Chemistry of Materials' 2014 26 4620 4628 CMATEX
loop_
_publ_author_name
'Sobkowiak, Adam'
'Roberts, Matthew R.'
'H aaggstroem, Lennart'
'Ericsson, Tore'
'Andersson, Anna M.'
'Edstroem, Kristina'
'Gustafsson, Torbjoern'
'Bjoerefors, Fredrik'
_cell_length_a 5.1754(1)
_cell_length_b 5.4896(2)
_cell_length_c 7.2216(2)
_cell_angle_alpha 106.514(3)
_cell_angle_beta 107.191(3)
_cell_angle_gamma 97.843(3)
_cell_volume 182.4
_cell_formula_units_Z 2
_symmetry_space_group_name_H-M 'P -1'
_symmetry_Int_Tables_number 2
_refine_ls_R_factor_all 0.0472
loop_
_symmetry_equiv_pos_site_id
_symmetry_equiv_pos_as_xyz
1 '-x, -y, -z'
2 'x, y, z'
loop_
_atom_type_symbol
_atom_type_oxidation_number
S6+ 6
Fe2+ 2
F1- -1
O2- -2
Li1+ 1
loop_
_atom_site_label
_atom_site_type_symbol
_atom_site_symmetry_multiplicity
_atom_site_Wyckoff_symbol
_atom_site_fract_x
_atom_site_fract_y
_atom_site_fract_z
_atom_site_B_iso_or_equiv
_atom_site_occupancy
_atom_site_attached_hydrogens
S1 S6+ 2 i 0.319(1) 0.630(1) 0.246(1) 5.3(1) 1. 0
Fe1 Fe2+ 1 b 0 0 0.5 5.3(1) 1. 0
Fe2 Fe2+ 1 a 0 0 0 5.3(1) 1. 0
F1 F1- 2 i 0.120(2) 0.908(2) 0.758(1) 5.3(1) 1. 0
O1 O2- 2 i 0.597(3) 0.747(2) 0.402(2) 5.3(1) 1. 0
O2 O2- 2 i 0.103(2) 0.641(2) 0.347(2) 5.3(1) 1. 0
O3 O2- 2 i 0.310(2) 0.351(3) 0.144(2) 5.3(1) 1. 0
O4 O2- 2 i 0.273(2) 0.785(2) 0.113(2) 5.3(1) 1. 0
Li1 Li1+ 2 i 0.27 0.634 0.757 5.3(1) 1. 0
#End of TTdata_194597-ICSD