
#(C) 2018 by FIZ Karlsruhe - Leibniz Institute for Information Infrastructure.  All rights reserved.
data_196093-ICSD
_database_code_ICSD 196093
_audit_creation_date 2016-02-01
_chemical_name_systematic 'Lithium iron hexaoxodigermanate'
_chemical_formula_structural 'Li Fe (Ge2 O6)'
_chemical_formula_sum 'Fe1 Ge2 Li1 O6'
_chemical_name_structure_type Pyroxene-MgSiO3-LT
_chemical_name_mineral 'Clinopyroxene - (Li,Fe,Ge)'
_exptl_crystal_density_diffrn 4.56
_cell_measurement_temperature 571.
_publ_section_title

;
The (Na,Li) Fe Ge2 O6 clinopyroxene-type series: a temperature-dependent
single-crystal X-ray diffraction and (57)Fe Moessbauer spectroscopic study
;
loop_
_citation_id
_citation_journal_full
_citation_year
_citation_journal_volume
_citation_page_first
_citation_page_last
_citation_journal_id_ASTM
primary 'Physics and Chemistry of Minerals' 2016 43 1 22 PCMIDU
loop_
_publ_author_name
'Redhammer, Guenther J.'
'Tippelt, Gerold'
_cell_length_a 9.8801(9)
_cell_length_b 8.8097(7)
_cell_length_c 5.3763(7)
_cell_angle_alpha 90.
_cell_angle_beta 108.846(5)
_cell_angle_gamma 90.
_cell_volume 442.86
_cell_formula_units_Z 4
_symmetry_space_group_name_H-M 'P 1 21/c 1'
_symmetry_Int_Tables_number 14
_refine_ls_R_factor_all 0.0232
loop_
_symmetry_equiv_pos_site_id
_symmetry_equiv_pos_as_xyz
1 'x, -y+1/2, z+1/2'
2 '-x, -y, -z'
3 '-x, y+1/2, -z+1/2'
4 'x, y, z'
loop_
_atom_type_symbol
_atom_type_oxidation_number
Li1+ 1
Fe3+ 3
Ge4+ 4
O2- -2
loop_
_atom_site_label
_atom_site_type_symbol
_atom_site_symmetry_multiplicity
_atom_site_Wyckoff_symbol
_atom_site_fract_x
_atom_site_fract_y
_atom_site_fract_z
_atom_site_B_iso_or_equiv
_atom_site_occupancy
_atom_site_attached_hydrogens
Li1 Li1+ 4 e 0.2581(4) 0.4882(6) 0.7213(8) 0.0185(10) 1 0
Fe1 Fe3+ 4 e 0.25072(3) 0.65059(4) 0.21424(7) 0.00510(13) 1. 0
Ge1 Ge4+ 4 e 0.04598(2) 0.34190(2) 0.28019(5) 0.00522(12) 1 0
Ge2 Ge4+ 4 e 0.55218(2) 0.83959(2) 0.23044(5) 0.00505(12) 1 0
O1 O2- 4 e -0.14118(17) 0.33149(16) 0.1757(3) 0.0062(3) 1 0
O2 O2- 4 e 0.11448(17) 0.52109(17) 0.2858(3) 0.0114(3) 1 0
O3 O2- 4 e 0.11728(14) 0.28991(17) 0.6136(3) 0.0089(3) 1 0
O4 O2- 4 e 0.36442(17) 0.83163(15) 0.1074(3) 0.0065(3) 1 0
O5 O2- 4 e 0.62890(17) 1.00427(16) 0.3832(3) 0.0084(3) 1 0
O6 O2- 4 e 0.61247(14) 0.69059(16) 0.4595(3) 0.0080(3) 1 0
loop_
_atom_site_aniso_label
_atom_site_aniso_type_symbol
_atom_site_aniso_U_11
_atom_site_aniso_U_22
_atom_site_aniso_U_33
_atom_site_aniso_U_12
_atom_site_aniso_U_13
_atom_site_aniso_U_23
Li1 Li1+ 0.019(2) 0.020(2) 0.014(2) -0.0037(14) 0.0008(19) 0.0006(16)
Fe1 Fe3+ 0.0049(2) 0.0044(2) 0.0054(2) 0.00002(8) 0.00072(15) 0.00024(10)
Ge1 Ge4+ 0.00433(16) 0.00504(17) 0.00573(17) -0.00086(7) 0.00087(11) -0.00021(7)
Ge2 Ge4+ 0.00449(16) 0.00447(17) 0.00547(17) -0.00073(7) 0.00059(11) -0.00020(7)
O1 O2- 0.0050(7) 0.0058(7) 0.0070(8) -0.0004(5) 0.0009(6) 0.0000(5)
O2 O2- 0.0118(8) 0.0073(8) 0.0163(8) -0.0044(6) 0.0060(7) -0.0022(6)
O3 O2- 0.0076(7) 0.0112(8) 0.0073(7) -0.0027(5) 0.0015(6) 0.0008(6)
O4 O2- 0.0053(7) 0.0065(7) 0.0073(8) -0.0007(5) 0.0013(6) 0.0003(5)
O5 O2- 0.0096(7) 0.0062(7) 0.0094(7) -0.0040(5) 0.0029(6) -0.0021(6)
O6 O2- 0.0072(7) 0.0100(7) 0.0071(8) 0.0011(5) 0.0026(6) 0.0020(6)
#End of TTdata_196093-ICSD