
#(C) 2018 by FIZ Karlsruhe - Leibniz Institute for Information Infrastructure.  All rights reserved.
data_196392-ICSD
_database_code_ICSD 196392
_audit_creation_date 2016-08-01
_chemical_name_systematic 'Lithium aluminium tetrakis(dideuterioamide)'
_chemical_formula_structural 'Li Al (N D2)4'
_chemical_formula_sum 'D8 Al1 Li1 N4'
_exptl_crystal_density_diffrn 1.36
_cell_measurement_temperature 295.
_publ_section_title
'Metal aluminum amides for hydrogen storage - Crystal structure studies'
loop_
_citation_id
_citation_journal_full
_citation_year
_citation_journal_volume
_citation_page_first
_citation_page_last
_citation_journal_id_ASTM
primary 'International Journal of Hydrogen Energy' 2015 40 16938 16947 IJHEDX
loop_
_publ_author_name
'Hino, Satoshi'
'Grove, Hilde'
'Ichikawa, Takayuki'
'Kojima, Yoshitsugu'
'Soerby, Magnus H.'
'Hauback, Bjoern C.'
_cell_length_a 9.5075(3)
_cell_length_b 7.3610(2)
_cell_length_c 7.4076(2)
_cell_angle_alpha 90.
_cell_angle_beta 90.165(3)
_cell_angle_gamma 90.
_cell_volume 518.42
_cell_formula_units_Z 4
_symmetry_space_group_name_H-M 'P 1 21/n 1'
_symmetry_Int_Tables_number 14
_refine_ls_R_factor_all 0.0448
loop_
_symmetry_equiv_pos_site_id
_symmetry_equiv_pos_as_xyz
1 '-x+1/2, y+1/2, -z+1/2'
2 '-x, -y, -z'
3 'x+1/2, -y+1/2, z+1/2'
4 'x, y, z'
loop_
_atom_type_symbol
_atom_type_oxidation_number
Al3+ 3
N3- -3
Li1+ 1
D1+ 1
loop_
_atom_site_label
_atom_site_type_symbol
_atom_site_symmetry_multiplicity
_atom_site_Wyckoff_symbol
_atom_site_fract_x
_atom_site_fract_y
_atom_site_fract_z
_atom_site_B_iso_or_equiv
_atom_site_occupancy
_atom_site_attached_hydrogens
Al1 Al3+ 4 e 0.8582(3) 0.2481(12) 0.0060(9) 0.0262(10) 1. 0
N1 N3- 4 e 0.5256(4) 0.7533(8) 0.2967(7) 0.0282(11) 1. 0
N2 N3- 4 e 0.7549(7) 0.4687(7) -0.0014(8) 0.0513(17) 1. 0
N3 N3- 4 e 0.4637(5) 0.2331(8) 0.2976(8) 0.0458(16) 1. 0
N4 N3- 4 e 0.2280(5) 0.4439(6) 0.4716(7) 0.0306(12) 1. 0
Li1 Li1+ 4 e 0.1215(17) 0.4838(18) 0.2379(17) 0.005(3) 1. 0
D1 D1+ 4 e 0.5645(8) 0.7647(13) 0.1799(14) 0.0621(8) 1. 0
D2 D1+ 4 e 0.4645(9) 0.6381(13) 0.2750(12) 0.0621(8) 1. 0
D3 D1+ 4 e 0.6638(10) 0.4489(13) 0.0133(13) 0.0621(8) 1. 0
D4 D1+ 4 e 0.7553(10) 0.5408(11) 0.1171(13) 0.0621(8) 1. 0
D5 D1+ 4 e 0.5660(7) 0.2404(14) 0.3024(11) 0.0621(8) 1. 0
D6 D1+ 4 e 0.4203(8) 0.3030(10) 0.1824(15) 0.0621(8) 1. 0
D7 D1+ 4 e 0.2710(9) 0.5685(10) 0.4979(14) 0.0621(8) 1. 0
D8 D1+ 4 e 0.1534(11) 0.4362(12) 0.5675(10) 0.0621(8) 1. 0
#End of TTdata_196392-ICSD