
#(C) 2018 by FIZ Karlsruhe - Leibniz Institute for Information Infrastructure.  All rights reserved.
data_200128-ICSD
_database_code_ICSD 200128
_audit_creation_date 1980-01-01
_chemical_name_systematic 'Lithium scandium catena-silicate'
_chemical_formula_structural 'Li Sc Si2 O6'
_chemical_formula_sum 'Li1 O6 Sc1 Si2'
_chemical_name_structure_type Pyroxene-CaMg(SiO3)2
_exptl_crystal_density_diffrn 3.07
_publ_section_title

;
Refinement of the crystal structure of Li Sc Si2 O6 and structural variations
in alkali pyroxenes
;
loop_
_citation_id
_citation_journal_full
_citation_year
_citation_journal_volume
_citation_page_first
_citation_page_last
_citation_journal_id_ASTM
primary 'Canadian Mineralogist' 1977 15 50 58 CAMIA6
loop_
_publ_author_name
'Hawthorne, F.C.'
'Grundy, H.D.'
_cell_length_a 9.8033(7)
_cell_length_b 8.9581(7)
_cell_length_c 5.3515(4)
_cell_angle_alpha 90.
_cell_angle_beta 110.281(4)
_cell_angle_gamma 90.
_cell_volume 440.83
_cell_formula_units_Z 4
_symmetry_space_group_name_H-M 'C 1 2/c 1'
_symmetry_Int_Tables_number 15
_refine_ls_R_factor_all 0.032
loop_
_symmetry_equiv_pos_site_id
_symmetry_equiv_pos_as_xyz
1 'x, -y, z+1/2'
2 '-x, -y, -z'
3 '-x, y, -z+1/2'
4 'x, y, z'
5 'x+1/2, -y+1/2, z+1/2'
6 '-x+1/2, -y+1/2, -z'
7 '-x+1/2, y+1/2, -z+1/2'
8 'x+1/2, y+1/2, z'
loop_
_atom_type_symbol
_atom_type_oxidation_number
O2- -2
Si4+ 4
Sc3+ 3
Li1+ 1
loop_
_atom_site_label
_atom_site_type_symbol
_atom_site_symmetry_multiplicity
_atom_site_Wyckoff_symbol
_atom_site_fract_x
_atom_site_fract_y
_atom_site_fract_z
_atom_site_B_iso_or_equiv
_atom_site_occupancy
_atom_site_attached_hydrogens
O1 O2- 8 f 0.1209(1) 0.0835(1) 0.1582(3) . 1. 0
O2 O2- 8 f 0.3709(2) 0.2486(3) 0.3448(3) . 1. 0
O3 O2- 8 f 0.3545(2) 0.0057(2) 0.0579(3) . 1. 0
Si1 Si4+ 8 f 0.29900(5) 0.08678(5) 0.2778(1) . 1. 0
Sc1 Sc3+ 4 e 0 0.89501(5) 0.25 . 1. 0
Li1 Li1+ 4 e 0 0.2574(7) 0.25 . 1. 0
loop_
_atom_site_aniso_label
_atom_site_aniso_type_symbol
_atom_site_aniso_beta_11
_atom_site_aniso_beta_22
_atom_site_aniso_beta_33
_atom_site_aniso_beta_12
_atom_site_aniso_beta_13
_atom_site_aniso_beta_23
O1 O2- 0.00101(11) 0.00183(13) 0.00451(38) -.00011(9) 0.00070(16) 0.00011(17)
O2 O2- 0.00221(13) 0.00180(13) 0.00893(48) -.00076(10) 0.00222(21) -.00083(19)
O3 O2- 0.00161(13) 0.00400(15) 0.00661(49) -.00046(11) 0.00116(20) -.00278(20)
Si1 Si4+ 0.00112(4) 0.00145(5) 0.00363(16) -.00019(4) 0.00072(6) -.00004(6)
Sc1 Sc3+ 0.00126(4) 0.00129(4) 0.00376(15) 0 0.00081(6) 0
Li1 Li1+ 0.00536(68) 0.00593(72) 0.0096(20) 0 0.00311(94) 0
#End of TTdata_200128-ICSD