
#(C) 2018 by FIZ Karlsruhe - Leibniz Institute for Information Infrastructure.  All rights reserved.
data_200615-ICSD
_database_code_ICSD 200615
_audit_creation_date 1980-01-01
_audit_update_record 2013-02-01
_chemical_name_systematic 'Lithium cadmium borate'
_chemical_formula_structural 'Li Cd (B O3)'
_chemical_formula_sum 'B1 Cd1 Li1 O3'
_exptl_crystal_density_diffrn 4.49
_publ_section_title 'The crystal structure of triclinic Li Cd B O3'
loop_
_citation_id
_citation_journal_full
_citation_year
_citation_journal_volume
_citation_page_first
_citation_page_last
_citation_journal_id_ASTM
primary 'Doklady Akademii Nauk SSSR' 1979 246 1126 1129 DANKAS
loop_
_publ_author_name
'Sokolova, E.V.'
'Boronikhin, V.A.'
'Simonov, M.A.'
'Belov, N.V.'
_cell_length_a 6.118(4)
_cell_length_b 8.486(3)
_cell_length_c 5.257(2)
_cell_angle_alpha 91.46(3)
_cell_angle_beta 89.64(4)
_cell_angle_gamma 104.85(4)
_cell_volume 263.73
_cell_formula_units_Z 4
_symmetry_space_group_name_H-M 'I -1'
_symmetry_Int_Tables_number 2
_refine_ls_R_factor_all 0.034
loop_
_symmetry_equiv_pos_site_id
_symmetry_equiv_pos_as_xyz
1 '-x, -y, -z'
2 'x, y, z'
3 '-x+1/2, -y+1/2, -z+1/2'
4 'x+1/2, y+1/2, z+1/2'
loop_
_atom_type_symbol
_atom_type_oxidation_number
Cd2+ 2
B3+ 3
Li1+ 1
O2- -2
loop_
_atom_site_label
_atom_site_type_symbol
_atom_site_symmetry_multiplicity
_atom_site_Wyckoff_symbol
_atom_site_fract_x
_atom_site_fract_y
_atom_site_fract_z
_atom_site_B_iso_or_equiv
_atom_site_occupancy
_atom_site_attached_hydrogens
Cd1 Cd2+ 4 i 0.31217(6) 0.07819(4) 0.33603(7) . 1. 0
B1 B3+ 4 i 0.8319(8) 0.0979(6) 0.1662(9) . 1. 0
Li1 Li1+ 4 i 0.551(2) 0.217(1) 0.850(2) . 1. 0
O1 O2- 4 i 0.0041(6) 0.1858(4) 0.3275(7) . 1. 0
O2 O2- 4 i 0.3433(6) 0.0213(5) 0.7343(7) . 1. 0
O3 O2- 4 i 0.8344(6) 0.1351(5) 0.9129(7) . 1. 0
loop_
_atom_site_aniso_label
_atom_site_aniso_type_symbol
_atom_site_aniso_B_11
_atom_site_aniso_B_22
_atom_site_aniso_B_33
_atom_site_aniso_B_12
_atom_site_aniso_B_13
_atom_site_aniso_B_23
Cd1 Cd2+ 0.62(1) 0.56(1) 0.60(1) 0.12(1) -.05(1) 0.13(1)
B1 B3+ 0.5(1) 0.3(1) 0.4(1) 0.0(1) 0.0(1) 0.2(1)
Li1 Li1+ 1.0(3) 0.3(3) 0.7(3) -.2(2) 0.0(2) -.2(2)
O1 O2- 0.41(6) 0.6(1) 0.56(9) 0.02(7) -.10(7) -.03(8)
O2 O2- 0.5(1) 0.8(1) 0.6(1) -.15(8) 0.09(8) 0.24(8)
O3 O2- 0.8(1) 0.6(1) 0.37(9) -.11(8) -.09(8) 0.06(7)
#End of TTdata_200615-ICSD