
#(C) 2018 by FIZ Karlsruhe - Leibniz Institute for Information Infrastructure.  All rights reserved.
data_200669-ICSD
_database_code_ICSD 200669
_audit_creation_date 1980-01-01
_audit_update_record 2013-02-01
_chemical_name_systematic 'Rubidium dilithium tris(iodate(V))'
_chemical_formula_structural 'Rb Li2 (I O3)3'
_chemical_formula_sum 'I3 Li2 O9 Rb1'
_chemical_name_structure_type RbLi2(IO3)3
_exptl_crystal_density_diffrn 4.26
_publ_section_title

;
Refinment of crystal structure of mixed rubidium-lithium iodate Rb I O3 * 2 Li
I O3
;
loop_
_citation_id
_citation_journal_full
_citation_year
_citation_journal_volume
_citation_page_first
_citation_page_last
_citation_journal_id_ASTM
primary 'Doklady Akademii Nauk SSSR' 1978 241 583 585 DANKAS
loop_
_publ_author_name
'Kalinin, V.R.'
'Ilyukhin, V.V.'
'Belov, N.V.'
_cell_length_a 8.333(1)
_cell_length_b 11.292(3)
_cell_length_c 11.121(1)
_cell_angle_alpha 90.
_cell_angle_beta 90.
_cell_angle_gamma 111.64(4)
_cell_volume 972.69
_cell_formula_units_Z 4
_symmetry_space_group_name_H-M 'P 1 1 21/b'
_symmetry_Int_Tables_number 14
_refine_ls_R_factor_all 0.033
loop_
_symmetry_equiv_pos_site_id
_symmetry_equiv_pos_as_xyz
1 'x, y+1/2, -z+1/2'
2 '-x, -y, -z'
3 '-x, -y+1/2, z+1/2'
4 'x, y, z'
loop_
_atom_type_symbol
_atom_type_oxidation_number
I5+ 5
Rb1+ 1
O2- -2
Li1+ 1
loop_
_atom_site_label
_atom_site_type_symbol
_atom_site_symmetry_multiplicity
_atom_site_Wyckoff_symbol
_atom_site_fract_x
_atom_site_fract_y
_atom_site_fract_z
_atom_site_B_iso_or_equiv
_atom_site_occupancy
_atom_site_attached_hydrogens
I1 I5+ 4 e 0.22067(6) 0.17467(5) 0.05380(4) . 1. 0
I2 I5+ 4 e 0.41173(6) 0.04647(5) 0.31998(4) . 1. 0
I3 I5+ 4 e 0.91571(6) 0.06373(4) 0.36923(4) . 1. 0
Rb1 Rb1+ 4 e 0.7087(1) 0.16117(8) 0.04235(7) . 1. 0
O1 O2- 4 e 0.9600(8) 0.3381(7) 0.4586(5) . 1. 0
O2 O2- 4 e 0.6547(7) 0.3849(6) 0.4579(5) . 1. 0
O3 O2- 4 e 0.6591(10) 0.1587(6) 0.5374(6) . 1. 0
O4 O2- 4 e 0.2586(7) 0.4476(6) 0.2859(5) . 1. 0
O5 O2- 4 e 0.4691(7) 0.1958(5) 0.2382(5) . 1. 0
O6 O2- 4 e 0.5963(7) 0.0096(6) 0.2785(5) . 1. 0
O7 O2- 4 e 0.9697(7) 0.1727(5) 0.2430(5) . 1. 0
O8 O2- 4 e 0.1379(7) 0.0887(5) 0.7055(5) . 1. 0
O9 O2- 4 e 0.1318(7) 0.0874(5) 0.4203(5) . 1. 0
Li1 Li1+ 4 e 0.0147(17) 0.3478(13) 0.2890(13) . 1. 0
Li2 Li1+ 4 e 0.6267(18) 0.3614(14) 0.2858(13) . 1. 0
loop_
_atom_site_aniso_label
_atom_site_aniso_type_symbol
_atom_site_aniso_U_11
_atom_site_aniso_U_22
_atom_site_aniso_U_33
_atom_site_aniso_U_12
_atom_site_aniso_U_13
_atom_site_aniso_U_23
I1 I5+ 0.00623(8) 0.00440(5) 0.00175(3) 0.00296(5) 0.00002(3) -.00009(4)
I2 I5+ 0.00420(7) 0.00265(4) 0.00200(3) 0.00118(4) 0.00000(3) 0.00014(4)
I3 I5+ 0.00451(7) 0.00269(4) 0.00196(3) 0.00143(4) -.00024(3) -.00003(4)
Rb1 Rb1+ 0.0074(11) 0.00448(7) 0.00400(6) 0.00206(8) 0.00035(6) 0.0009(7)
O1 O2- 0.0077(10) 0.0132(9) 0.0024(4) 0.0069(8) 0.0002(5) 0.0007(5)
O2 O2- 0.0077(9) 0.0071(6) 0.0029(4) 0.0043(7) 0.0003(4) -.0009(5)
O3 O2- 0.0213(15) 0.0047(6) 0.0045(5) 0.0052(8) 0.0005(5) 0.0023(7)
O4 O2- 0.0069(9) 0.0051(6) 0.0036(5) 0.0014(6) 0.0007(4) 0.0007(5)
O5 O2- 0.0054(8) 0.0032(5) 0.0042(5) 0.0015(6) 0.0006(4) -.0004(5)
O6 O2- 0.0051(8) 0.0056(6) 0.0038(5) 0.0029(6) -.0007(4) 0.0006(5)
O7 O2- 0.0075(9) 0.0032(5) 0.0031(4) 0.0013(6) 0.0008(4) 0.0006(6)
O8 O2- 0.0048(8) 0.0036(5) 0.0034(4) 0.0019(5) -.0010(4) -.0001(5)
O9 O2- 0.0060(9) 0.0050(5) 0.0030(4) 0.0027(6) -.0008(4) -.0012(5)
Li1 Li1+ 0.0060(21) 0.0029(12) 0.0045(11) 0.0013(13) 0.0012(9) 0.0006(12)
Li2 Li1+ 0.0060(22) 0.0051(14) 0.0033(11) 0.0015(15) 0.0007(9) 0.0005(12)
#End of TTdata_200669-ICSD