
#(C) 2018 by FIZ Karlsruhe - Leibniz Institute for Information Infrastructure.  All rights reserved.
data_20096-ICSD
_database_code_ICSD 20096
_audit_creation_date 1980-01-01
_audit_update_record 2012-08-01
_chemical_name_systematic
'Lithium tetracadmium pentagermanium 14-oxide hydroxide'
_chemical_formula_structural 'Li Cd4 (Ge5 O14 O H)'
_chemical_formula_sum 'H1 Cd4 Ge5 Li1 O15'
_chemical_name_structure_type NaHCd4Ge5O15
_exptl_crystal_density_diffrn 5.36
_publ_section_title 'Crystal structure of Li-Cd Rhodonite Li H Cd4 (Ge5 O15)'
loop_
_citation_id
_citation_journal_full
_citation_year
_citation_journal_volume
_citation_page_first
_citation_page_last
_citation_journal_id_ASTM
primary 'Doklady Akademii Nauk SSSR' 1976 231 346 349 DANKAS
loop_
_publ_author_name
'Simonov, M.A.'
'Belokoneva, E.L.'
'Kuznetsov, A.I.'
'Belov, N.V.'
_cell_length_a 7.058(2)
_cell_length_b 7.931(2)
_cell_length_c 12.673(4)
_cell_angle_alpha 68.71(2)
_cell_angle_beta 95.78(2)
_cell_angle_gamma 94.60(2)
_cell_volume 656.89
_cell_formula_units_Z 2
_symmetry_space_group_name_H-M 'P -1'
_symmetry_Int_Tables_number 2
_refine_ls_R_factor_all 0.042
loop_
_symmetry_equiv_pos_site_id
_symmetry_equiv_pos_as_xyz
1 '-x, -y, -z'
2 'x, y, z'
loop_
_atom_type_symbol
_atom_type_oxidation_number
Li1+ 1
H1+ 1
Cd2+ 2
Ge4+ 4
O2- -2
loop_
_atom_site_label
_atom_site_type_symbol
_atom_site_symmetry_multiplicity
_atom_site_Wyckoff_symbol
_atom_site_fract_x
_atom_site_fract_y
_atom_site_fract_z
_atom_site_B_iso_or_equiv
_atom_site_occupancy
_atom_site_attached_hydrogens
Li1 Li1+ 2 i 0.336(5) 0.548(4) 0.611(3) 4.3(2) 1. 0
H1 H1+ 2 i 0.443(21) 0.793(20) 0.591(12) 2.00(2) 1. 0
Cd1 Cd2+ 2 i 0.05690(11) 0.94759(10) 0.15014(6) . 1. 0
Cd2 Cd2+ 2 i 0.13117(11) 0.87498(11) 0.44227(7) . 1. 0
Cd3 Cd2+ 2 i 0.18255(11) 0.79987(11) 0.73556(6) . 1. 0
Cd4 Cd2+ 2 i 0.27189(12) 0.72374(11) 0.01930(7) . 1. 0
Ge1 Ge4+ 2 i 0.42818(15) 0.14706(15) 0.82660(9) . 1. 0
Ge2 Ge4+ 2 i 0.35734(15) 0.22002(15) 0.55765(9) . 1. 0
Ge3 Ge4+ 2 i 0.30000(16) 0.28533(15) 0.22611(9) . 1. 0
Ge4 Ge4+ 2 i 0.22078(16) 0.36105(15) 0.95790(9) . 1. 0
Ge5 Ge4+ 2 i 0.10848(16) 0.50417(15) 0.35165(9) . 1. 0
O1 O2- 2 i 0.42061(11) 0.2728(10) 0.6795(6) . 1. 0
O2 O2- 2 i 0.0335(10) 0.2003(10) 0.9759(6) . 1. 0
O3 O2- 2 i 0.1267(11) 0.1124(10) 0.2690(7) . 1. 0
O4 O2- 2 i 0.2723(12) 0.4372(10) 0.4738(6) . 1. 0
O5 O2- 2 i 0.1832(10) 0.050(1) 0.5645(7) . 1. 0
O6 O2- 2 i 0.2534(11) 0.9752(10) 0.8484(6) . 1. 0
O7 O2- 2 i 0.3575(12) 0.3474(12) 0.0862(6) . 1. 0
O8 O2- 2 i 0.3938(11) 0.3212(11) 0.8790(7) . 1. 0
O9 O2- 2 i 0.0615(12) 0.7281(10) 0.3213(6) . 1. 0
O10 O2- 2 i 0.2268(11) 0.4856(10) 0.2390(6) . 1. 0
O11 O2- 2 i 0.4366(10) 0.7970(12) 0.5011(7) . 1. 0
O12 O2- 2 i 0.0941(11) 0.6419(10) 0.6194(6) . 1. 0
O13 O2- 2 i 0.3499(10) 0.9177(11) 0.1078(7) . 1. 0
O14 O2- 2 i 0.1589(12) 0.5847(11) 0.9051(7) . 1. 0
O15 O2- 2 i 0.4843(12) 0.7835(14) 0.6949(7) . 1. 0
loop_
_atom_site_aniso_label
_atom_site_aniso_type_symbol
_atom_site_aniso_U_11
_atom_site_aniso_U_22
_atom_site_aniso_U_33
_atom_site_aniso_U_12
_atom_site_aniso_U_13
_atom_site_aniso_U_23
Cd1 Cd2+ 0.51(2) 0.52(3) 0.47(2) 0.14(2) -.03(2) -.19(2)
Cd2 Cd2+ 0.59(2) 0.59(2) 0.49(2) 0.21(2) -.06(2) -.20(2)
Cd3 Cd2+ 0.60(2) 0.52(2) 0.48(2) 0.09(2) 0.01(2) -.21(2)
Cd4 Cd2+ 0.76(3) 0.76(3) 0.83(3) 0.25(2) -.28(2) -.48(2)
Ge1 Ge4+ 0.16(3) 0.32(4) 0.19(3) 0.02(3) -.05(3) -.14(3)
Ge2 Ge4+ 0.24(3) 0.26(3) 0.17(3) 0.05(3) -.06(3) -.09(3)
Ge3 Ge4+ 0.26(3) 0.35(4) 0.20(3) 0.09(3) -.01(3) -.10(3)
Ge4 Ge4+ 0.33(3) 0.17(3) 0.21(3) -.01(3) 0.04(3) -.11(3)
Ge5 Ge4+ 0.21(3) 0.10(3) 0.32(3) 0.07(3) -.03(3) -.05(3)
O1 O2- 1.08(28) 0.48(24) 0.24(21) -.25(21) -.03(20) -.15(19)
O2 O2- 0.39(24) 0.30(24) 0.63(25) -.07(19) -.17(20) -.29(21)
O3 O2- 0.50(25) 0.34(24) 0.74(26) -.04(20) 0.21(20) -.08(20)
O4 O2- 1.33(31) 0.38(23) 0.39(23) 0.44(22) -.41(22) 0.22(19)
O5 O2- 0.07(22) 0.39(25) 0.80(26) 0.03(19) -.23(19) -.18(21)
O6 O2- 0.76(26) 0.50(26) 0.60(24) 0.03(21) 0.25(21) -.36(21)
O7 O2- 0.83(27) 1.54(33) 0.24(22) -.07(24) -.25(20) -.40(22)
O8 O2- 0.61(25) 0.99(28) 0.88(26) -.28(21) 0.32(21) -.86(23)
O9 O2- 1.28(30) 0.23(24) 0.38(23) 0.10(22) -.04(21) -.11(19)
O10 O2- 1.00(28) 0.59(26) 0.66(25) 0.10(22) 0.17(22) -.37(21)
O11 O2- 0.10(23) 1.66(33) 0.84(26) 0.28(22) -.2(2) -.82(25)
O12 O2- 0.54(25) 0.23(23) 0.73(26) -.10(19) 0.09(20) -.12(20)
O13 O2- 0.17(23) 0.91(28) 0.83(26) 0.04(20) -.19(20) -.43(23)
O14 O2- 1.41(31) 0.43(26) 0.53(25) 0.25(23) 0.00(23) -.08(20)
O15 O2- 0.40(27) 2.70(44) 0.62(27) 0.90(27) -.09(22) 0.13(28)
#End of TTdata_20096-ICSD