
#(C) 2018 by FIZ Karlsruhe - Leibniz Institute for Information Infrastructure.  All rights reserved.
data_201959-ICSD
_database_code_ICSD 201959
_audit_creation_date 1988-12-19
_audit_update_record 1998-06-26
_chemical_name_systematic 'Lithium molybdenum oxide (.33/1/3)'
_chemical_formula_structural 'Li.33 Mo O3'
_chemical_formula_sum 'Li0.33 Mo1 O3'
_exptl_crystal_density_diffrn 4.22
_publ_section_title

;
Crystal structure of Li.33 Mo O3, a stoichiometric, triclinic lithium
molybdenum bronze
;
loop_
_citation_id
_citation_journal_full
_citation_year
_citation_journal_volume
_citation_page_first
_citation_page_last
_citation_journal_id_ASTM
primary 'Journal of Solid State Chemistry' 1986 64 47 56 JSSCBI
loop_
_publ_author_name
'Tsai, P.-P.'
'Potenza, J.A.'
'Greenblatt, M.'
'Schugar, H.J.'
_cell_length_a 13.079(2)
_cell_length_b 15.453(2)
_cell_length_c 7.476(1)
_cell_angle_alpha 96.97(2)
_cell_angle_beta 106.56(2)
_cell_angle_gamma 103.368(9)
_cell_volume 1380.36
_cell_formula_units_Z 24
_symmetry_space_group_name_H-M 'P -1'
_symmetry_Int_Tables_number 2
_refine_ls_R_factor_all 0.032
loop_
_symmetry_equiv_pos_site_id
_symmetry_equiv_pos_as_xyz
1 '-x, -y, -z'
2 'x, y, z'
loop_
_atom_type_symbol
_atom_type_oxidation_number
Mo6+ 6
O2- -2
Li1+ 1
loop_
_atom_site_label
_atom_site_type_symbol
_atom_site_symmetry_multiplicity
_atom_site_Wyckoff_symbol
_atom_site_fract_x
_atom_site_fract_y
_atom_site_fract_z
_atom_site_B_iso_or_equiv
_atom_site_occupancy
_atom_site_attached_hydrogens
Mo1 Mo6+ 2 i -.42950(2) -.10927(2) 0.38213(4) 0.777(4) 1. 0
Mo2 Mo6+ 2 i 0.3559(2) -.11749(2) 0.01822(3) 0.608(4) 1. 0
Mo3 Mo6+ 2 i -.14516(2) -.10903(2) 0.02645(4) 0.777(4) 1. 0
Mo4 Mo6+ 2 i 0.06374(2) -.11927(2) 0.38291(3) 0.594(4) 1. 0
Mo5 Mo6+ 2 i -.04765(2) 0.16427(2) 0.14080(3) 0.578(4) 1. 0
Mo6 Mo6+ 2 i -.34108(2) 0.16385(2) 0.49586(3) 0.591(4) 1. 0
Mo7 Mo6+ 2 i -.23986(2) 0.59883(2) 0.41142(3) 0.554(4) 1. 0
Mo8 Mo6+ 2 i -.03586(2) 0.60010(2) 0.25764(3) 0.555(4) 1. 0
Mo9 Mo6+ 2 i -.23984(2) 0.59644(2) -.10133(3) 0.527(4) 1. 0
Mo10 Mo6+ 2 i -.53360(2) 0.60115(2) 0.75167(3) 0.573(4) 1. 0
Mo11 Mo6+ 2 i 0.26420(2) 0.59709(2) -.09381(3) 0.536(4) 1. 0
Mo12 Mo6+ 2 i -.53429(2) 0.59914(2) 0.26373(3) 0.648(4) 1. 0
O1 O2- 2 i 0.3681(2) -.1474(2) 0.7730(4) 1.22(4) 1. 0
O2 O2- 2 i -.4918(2) -.1413(2) 0.5666(3) 0.92(3) 1. 0
O3 O2- 2 i 0.2022(2) -.1427(2) 0.4614(4) 1.31(4) 1. 0
O4 O2- 2 i 0.3987(2) -.0074(2) 0.5794(4) 1.26(4) 1. 0
O5 O2- 2 i -.4878(2) -.2872(2) 0.3190(4) 1.34(4) 1. 0
O6 O2- 2 i -.4946(2) -.1432(2) 0.1193(3) 0.94(3) 1. 0
O7 O2- 2 i 0.2982(2) -.2879(2) -.0439(4) 1.13(3) 1. 0
O8 O2- 2 i 0.2014(2) -.1428(2) -.0798(4) 1.31(4) 1. 0
O9 O2- 2 i -.0949(2) 0.0078(2) 0.0818(4) 1.32(4) 1. 0
O10 O2- 2 i -.2153(2) -.2911(2) -.0560(4) 1.33(4) 1. 0
O11 O2- 2 i -.0314(2) 0.1467(2) 0.3944(4) 1.18(4) 1. 0
O12 O2- 2 i -.0583(2) 0.1383(2) -.1226(4) 1.67(4) 1. 0
O13 O2- 2 i -.0085(2) 0.2792(2) 0.1830(4) 1.30(4) 1. 0
O14 O2- 2 i 0.1050(2) 0.1438(2) 0.1827(4) 0.98(3) 1. 0
O15 O2- 2 i -.2850(2) -.1324(2) -.0483(4) 1.53(4) 1. 0
O16 O2- 2 i 0.1031(2) 0.1424(2) 0.7391(4) 0.98(3) 1. 0
O17 O2- 2 i 0.0068(2) -.2837(2) 0.3038(4) 1.17(3) 1. 0
O18 O2- 2 i -.1001(2) 0.0054(2) 0.5666(4) 1.30(4) 1. 0
O19 O2- 2 i 0.3050(2) -.2784(2) 0.4481(4) 1.41(4) 1. 0
O20 O2- 2 i -.3483(2) 0.1375(2) 0.7375(4) 1.81(4) 1. 0
O21 O2- 2 i 0.3045(2) 0.1332(2) 0.5616(4) 1.56(4) 1. 0
O22 O2- 2 i 0.3976(2) -.0038(2) 0.0617(4) 1.34(4) 1. 0
O23 O2- 2 i -.4500(2) 0.4256(2) 0.5061(3) 1.02(3) 1. 0
O24 O2- 2 i -.4314(2) 0.4149(2) 0.0136(3) 0.86(3) 1. 0
O25 O2- 2 i 0.4028(2) 0.4387(2) 0.1754(3) 0.73(3) 1. 0
O26 O2- 2 i -.4015(2) 0.5621(2) 0.3054(3) 0.80(3) 1. 0
O27 O2- 2 i -.2946(2) 0.4336(2) -.1561(3) 0.63(3) 1. 0
O28 O2- 2 i -.0880(2) 0.5835(2) 0.4683(3) 0.79(3) 1. 0
O29 O2- 2 i 0.2962(2) 0.5697(2) 0.6727(3) 0.80(3) 1. 0
O30 O2- 2 i -.2269(2) 0.5662(2) 0.1547(3) 0.76(3) 1. 0
O31 O2- 2 i 0.1186(2) 0.5608(2) -.1776(3) 0.93(3) 1. 0
O32 O2- 2 i -.2161(2) -.2889(2) 0.4485(4) 1.42(4) 1. 0
O33 O2- 2 i -.2415(2) 0.5686(2) 0.6456(3) 1.00(3) 1. 0
O34 O2- 2 i -.0893(2) 0.5807(2) -.0141(3) 0.77(3) 1. 0
O35 O2- 2 i 0.0839(2) 0.5657(2) 0.3106(3) 1.05(3) 1. 0
O36 O2- 2 i -.5147(2) 0.2854(2) 0.2026(4) 1.29(4) 1. 0
Li1 Li1+ 2 i -.0308(5) 0.5872(5) -.245(1) 1.5(1) 1. 0
Li2 Li1+ 2 i 0.4457(6) 0.1379(5) 0.136(1) 1.9(1) 1. 0
Li3 Li1+ 2 i -.1508(6) -.1369(5) 0.518(1) 2.0(1) 1. 0
Li4 Li1+ 2 i 0.2427(6) 0.5897(5) 0.394(1) 2.1(1) 1. 0
#End of TTdata_201959-ICSD