
#(C) 2018 by FIZ Karlsruhe - Leibniz Institute for Information Infrastructure.  All rights reserved.
data_202560-ICSD
_database_code_ICSD 202560
_audit_creation_date 1988-12-19
_audit_update_record 2007-08-01
_chemical_name_systematic 'Tetrapotassium lithium iodate(VII)'
_chemical_formula_structural 'K4 Li (I O6)'
_chemical_formula_sum 'I1 K4 Li1 O6'
_chemical_name_structure_type LiLa(MoO4)2
_exptl_crystal_density_diffrn 3.5
_publ_section_title
'Eine "misslungene" Synthese: ueber K2 Li (I O6) und K5 I2 (Au O2)'
loop_
_citation_id
_citation_journal_full
_citation_year
_citation_journal_volume
_citation_page_first
_citation_page_last
_citation_journal_id_ASTM
primary 'Journal of the Less-Common Metals' 1988 137 85 103 JCOMAH
loop_
_publ_author_name
'Hoppe, R.'
'Schneider, J.'
_cell_length_a 13.122(3)
_cell_length_b 9.982(2)
_cell_length_c 11.189(3)
_cell_angle_alpha 90.
_cell_angle_beta 90.
_cell_angle_gamma 90.
_cell_volume 1465.58
_cell_formula_units_Z 8
_symmetry_space_group_name_H-M 'P b c a'
_symmetry_Int_Tables_number 61
_refine_ls_R_factor_all 0.046
loop_
_symmetry_equiv_pos_site_id
_symmetry_equiv_pos_as_xyz
1 'x+1/2, y, -z+1/2'
2 'x, -y+1/2, z+1/2'
3 '-x+1/2, y+1/2, z'
4 '-x, -y, -z'
5 '-x+1/2, -y, z+1/2'
6 '-x, y+1/2, -z+1/2'
7 'x+1/2, -y+1/2, -z'
8 'x, y, z'
loop_
_atom_type_symbol
_atom_type_oxidation_number
K1+ 1
Li1+ 1
I7+ 7
O2- -2
loop_
_atom_site_label
_atom_site_type_symbol
_atom_site_symmetry_multiplicity
_atom_site_Wyckoff_symbol
_atom_site_fract_x
_atom_site_fract_y
_atom_site_fract_z
_atom_site_B_iso_or_equiv
_atom_site_occupancy
_atom_site_attached_hydrogens
K1 K1+ 8 c 0.8903(1) 0.0631(1) 0.5582(1) . 1. 0
K2 K1+ 8 c 0.9340(1) 0.6643(2) 0.4766(1) . 1. 0
K3 K1+ 8 c 0.6882(1) 0.2056(2) 0.1876(1) . 1. 0
K4 K1+ 8 c 0.6891(1) 0.6198(2) 0.9077(2) . 1. 0
Li1 Li1+ 8 c 0.4906(9) 0.1979(11) 0.7478(12) . 1. 0
I1 I7+ 8 c 0.8973 0.0462 0.2558 . 1. 0
O1 O2- 8 c 0.2928(3) 0.1102(5) 0.1456(4) . 1. 0
O2 O2- 8 c 0.5951(3) 0.1113(4) 0.8501(4) . 1. 0
O3 O2- 8 c 0.6060(3) 0.7987(4) 0.6589(4) . 1. 0
O4 O2- 8 c 0.6965(4) 0.0333(4) 0.6512(4) . 1. 0
O5 O2- 8 c 0.4921(4) 0.0276(4) 0.6684(4) . 1. 0
O6 O2- 8 c 0.5076(3) 0.8588(5) 0.8532(4) . 1. 0
loop_
_atom_site_aniso_label
_atom_site_aniso_type_symbol
_atom_site_aniso_U_11
_atom_site_aniso_U_22
_atom_site_aniso_U_33
_atom_site_aniso_U_12
_atom_site_aniso_U_13
_atom_site_aniso_U_23
K1 K1+ 0.0153(6) 0.0129(7) 0.0125(6) 0.0002(6) -.0015(6) -.0006(5)
K2 K1+ 0.0264(8) 0.0140(7) 0.0148(8) 0.0051(6) 0.0056(6) 0.0016(6)
K3 K1+ 0.0138(7) 0.0177(7) 0.0240(9) 0.0035(6) -.0051(6) 0.0002(7)
K4 K1+ 0.0158(7) 0.0175(8) 0.0391(10) -.0014(6) -.0033(7) -.0020(8)
Li1 Li1+ 0.0587(63) 0.0468(55) 0.0609(66) -.0008(46) 0.0032(60) 0.0124(66)
I1 I7+ 0.0062(1) 0.0054(1) 0.0073(2) 0.0002(1) -.0003(2) 0.0004(2)
O1 O2- 0.0108(22) 0.0139(24) 0.0081(22) 0.0043(18) -.0048(17) -.0013(19)
O2 O2- 0.0098(21) 0.0078(22) 0.0103(22) 0.0017(18) -.0013(18) -.0071(17)
O3 O2- 0.0099(19) 0.0091(20) 0.0143(22) -.0033(19) 0.0016(19) -.0047(18)
O4 O2- 0.0164(23) 0.0080(23) 0.0150(24) 0.0000(19) 0.0045(18) 0.0048(20)
O5 O2- 0.0178(23) 0.0103(25) 0.0093(22) 0.0035(19) -.0049(18) -.0021(18)
O6 O2- 0.0147(23) 0.0127(24) 0.0090(23) -.0034(19) 0.0009(18) -.0013(20)
#End of TTdata_202560-ICSD