
#(C) 2017 by FIZ Karlsruhe - Leibniz Institute for Information Infrastructure.  All rights reserved.
data_202642-ICSD
_database_code_ICSD 202642
_audit_creation_date 1989-06-19
_audit_update_record 1990-05-24
_chemical_name_systematic 'Lithium gallium triiodide'
_chemical_formula_structural 'Li Ga I3'
_chemical_formula_sum 'Ga1 I3 Li1'
_chemical_name_structure_type LiGaBr3
_exptl_crystal_density_diffrn 4.43
_cell_measurement_temperature 463.
_publ_section_title

;
Preparation, Crystal Structures, and Electronic Properties of Li Ga Cl3 and Li
Ga I3
;
loop_
_citation_id
_citation_journal_full
_citation_year
_citation_journal_volume
_citation_page_first
_citation_page_last
_citation_journal_id_ASTM
primary 'Journal of Solid State Chemistry' 1988 75 147 155 JSSCBI
loop_
_publ_author_name
'Hoenle, W.'
'Miller, G.'
'Simon, A.'
_cell_length_a 8.467(3)
_cell_length_b 11.372(3)
_cell_length_c 7.132(2)
_cell_angle_alpha 90.
_cell_angle_beta 91.77(5)
_cell_angle_gamma 90.
_cell_volume 686.39
_cell_formula_units_Z 4
_symmetry_space_group_name_H-M 'P 1 21/m 1'
_symmetry_Int_Tables_number 11
_refine_ls_R_factor_all 0.056
loop_
_symmetry_equiv_pos_site_id
_symmetry_equiv_pos_as_xyz
1 'x, -y+1/2, z'
2 '-x, -y, -z'
3 '-x, y+1/2, -z'
4 'x, y, z'
loop_
_atom_type_symbol
_atom_type_oxidation_number
Ga2+ 2
I1- -1
Li1+ 1
loop_
_atom_site_label
_atom_site_type_symbol
_atom_site_symmetry_multiplicity
_atom_site_Wyckoff_symbol
_atom_site_fract_x
_atom_site_fract_y
_atom_site_fract_z
_atom_site_B_iso_or_equiv
_atom_site_occupancy
_atom_site_attached_hydrogens
Ga1 Ga2+ 2 e 0.2434(2) 0.25 0.8674(2) . 1. 0
Ga2 Ga2+ 2 e 0.9716(2) 0.25 0.9664(2) . 1. 0
I1 I1- 2 e 0.4521(1) 0.25 0.1420(1) . 1. 0
I2 I1- 2 e 0.9337(1) 0.25 0.3264(1) . 1. 0
I3 I1- 4 f 0.32075(9) 0.0709(6) 0.6609(1) . 1. 0
I4 I1- 4 f 0.81678(9) 0.06975(6) 0.8251(1) . 1. 0
Li1 Li1+ 2 c 0 0 0.5 . 1. 0
Li2 Li1+ 2 b 0.5 0 0 . 1. 0
loop_
_atom_site_aniso_label
_atom_site_aniso_type_symbol
_atom_site_aniso_U_11
_atom_site_aniso_U_22
_atom_site_aniso_U_33
_atom_site_aniso_U_12
_atom_site_aniso_U_13
_atom_site_aniso_U_23
Ga1 Ga2+ 0.0164(8) 0.0317(7) 0.0256(8) 0 0.0017(6) 0
Ga2 Ga2+ 0.0176(9) 0.0322(7) 0.0240(8) 0 0.0010(6) 0
I1 I1- 0.0276(6) 0.0406(6) 0.0295(5) 0 -.0082(4) 0
I2 I1- 0.0401(7) 0.0337(5) 0.0212(5) 0 0.0012(4) 0
I3 I1- 0.0297(5) 0.0339(4) 0.0286(4) -.0058(2) 0.0007(3) 0.0033(3)
I4 I1- 0.0266(5) 0.0404(4) 0.0296(4) -.0074(3) 0.0035(3) -.0083(3)
Li1 Li1+ 0.035(21) 0.077(24) 0.080(26) -0.019(21) 0.005(19) -0.022(18)
Li2 Li1+ 0.045(24) 0.061(20) 0.093(29) -0.001(20) -0.009(21) 0.020(18)
#End of TTdata_202642-ICSD