
#(C) 2017 by FIZ Karlsruhe - Leibniz Institute for Information Infrastructure.  All rights reserved.
data_202705-ICSD
_database_code_ICSD 202705
_audit_creation_date 1989-12-04
_audit_update_record 2014-08-01
_chemical_name_systematic 'Lithium iron(II) iron(III) fluoride'
_chemical_formula_structural 'Li Fe2 F6'
_chemical_formula_sum 'F6 Fe2 Li1'
_chemical_name_structure_type LiFe2F6
_exptl_crystal_density_diffrn 3.78
_cell_measurement_temperature 293.
_publ_section_title
'Le trirutile ordonne Li Fe2 F6: Croissance cristalline et etude structurale'
loop_
_citation_id
_citation_journal_full
_citation_year
_citation_journal_volume
_citation_page_first
_citation_page_last
_citation_journal_id_ASTM
primary 'Journal of Solid State Chemistry' 1988 77 84 89 JSSCBI
loop_
_publ_author_name
'Fourquet, J.L.'
'le Samedi, E.'
'Calage, Y.'
_cell_length_a 4.679(1)
_cell_length_b 4.679(1)
_cell_length_c 9.324(2)
_cell_angle_alpha 90.
_cell_angle_beta 90.
_cell_angle_gamma 90.
_cell_volume 204.13
_cell_formula_units_Z 2
_symmetry_space_group_name_H-M 'P 42 n m'
_symmetry_Int_Tables_number 102
_refine_ls_R_factor_all 0.0208
loop_
_symmetry_equiv_pos_site_id
_symmetry_equiv_pos_as_xyz
1 '-y+1/2, x+1/2, z+1/2'
2 'y+1/2, -x+1/2, z+1/2'
3 '-y, -x, z'
4 'y, x, z'
5 '-x+1/2, y+1/2, z+1/2'
6 'x+1/2, -y+1/2, z+1/2'
7 '-x, -y, z'
8 'x, y, z'
loop_
_atom_type_symbol
_atom_type_oxidation_number
Li1+ 1
Fe2+ 2
Fe3+ 3
F1- -1
loop_
_atom_site_label
_atom_site_type_symbol
_atom_site_symmetry_multiplicity
_atom_site_Wyckoff_symbol
_atom_site_fract_x
_atom_site_fract_y
_atom_site_fract_z
_atom_site_B_iso_or_equiv
_atom_site_occupancy
_atom_site_attached_hydrogens
Li1 Li1+ 2 a 0 0 0.6664(35) . 1. 0
Fe1 Fe2+ 2 a 0 0 0.3339(1) . 1. 0
Fe2 Fe3+ 2 a 0 0 0 . 1. 0
F1 F1- 4 c 0.6938(2) 0.6938(2) 0.6568(4) . 1. 0
F2 F1- 4 c 0.2914(2) 0.2914(2) 0.0026(6) . 1. 0
F3 F1- 4 c 0.3053(3) 0.3053(3) 0.3440(5) . 1. 0
loop_
_atom_site_aniso_label
_atom_site_aniso_type_symbol
_atom_site_aniso_U_11
_atom_site_aniso_U_22
_atom_site_aniso_U_33
_atom_site_aniso_U_12
_atom_site_aniso_U_13
_atom_site_aniso_U_23
Li1 Li1+ 0.0165(4) 0.0165(4) 0.0107(2) 0.0153(2) 0 0
Fe1 Fe2+ 0.0079(3) 0.0079(3) 0.0077(5) -.0022(1) 0 0
Fe2 Fe3+ 0.0077(3) 0.0077(3) 0.0070(4) -.0002(1) 0 0
F1 F1- 0.0122(2) 0.0122(2) 0.0081(11) -.0045(3) 0.0002(3) 0.0002(3)
F2 F1- 0.0128(3) 0.0128(3) 0.0121(4) -.0055(4) -.0017(5) -.0017(5)
F3 F1- 0.0148(4) 0.0148(4) 0.0124(12) -.0052(5) -.0018(3) -.0018(3)
#End of TTdata_202705-ICSD