
#(C) 2017 by FIZ Karlsruhe - Leibniz Institute for Information Infrastructure.  All rights reserved.
data_23173-ICSD
_database_code_ICSD 23173
_audit_creation_date 1986-10-06
_audit_update_record 2006-04-01
_chemical_name_systematic 'Dilithium hexafluoromolybdate(IV)'
_chemical_formula_structural 'Li2 (Mo F6)'
_chemical_formula_sum 'F6 Li2 Mo1'
_exptl_crystal_density_diffrn 3.68
_publ_section_title 'The crystal structure of Li2 Mo F6'
loop_
_citation_id
_citation_journal_full
_citation_year
_citation_journal_volume
_citation_page_first
_citation_page_last
_citation_journal_id_ASTM
primary 'Materials Research Bulletin' 1971 6 555 560 MRBUAC
loop_
_publ_author_name
'Brunton, G.'
_cell_length_a 4.6863(7)
_cell_length_b 4.6863(7)
_cell_length_c 9.191(2)
_cell_angle_alpha 90.
_cell_angle_beta 90.
_cell_angle_gamma 90.
_cell_volume 201.85
_cell_formula_units_Z 2
_symmetry_space_group_name_H-M 'P 42 21 2'
_symmetry_Int_Tables_number 94
loop_
_symmetry_equiv_pos_site_id
_symmetry_equiv_pos_as_xyz
1 '-y+1/2, x+1/2, z+1/2'
2 'y+1/2, -x+1/2, z+1/2'
3 '-y, -x, -z'
4 'y, x, -z'
5 'x+1/2, -y+1/2, -z+1/2'
6 '-x+1/2, y+1/2, -z+1/2'
7 '-x, -y, z'
8 'x, y, z'
loop_
_atom_type_symbol
_atom_type_oxidation_number
Li1+ 1
Mo4+ 4
F1- -1
loop_
_atom_site_label
_atom_site_type_symbol
_atom_site_symmetry_multiplicity
_atom_site_Wyckoff_symbol
_atom_site_fract_x
_atom_site_fract_y
_atom_site_fract_z
_atom_site_B_iso_or_equiv
_atom_site_occupancy
_atom_site_attached_hydrogens
Li1 Li1+ 4 c 0 0 0.3377(9) . 1. 0
Mo1 Mo4+ 2 a 0 0 0 . 1. 0
F1 F1- 8 g 0.293(2) 0.316(2) 0.3424(2) . 1. 0
F2 F1- 4 e 0.2907(5) 0.2907(5) 0 . 1. 0
loop_
_atom_site_aniso_label
_atom_site_aniso_type_symbol
_atom_site_aniso_U_11
_atom_site_aniso_U_22
_atom_site_aniso_U_33
_atom_site_aniso_U_12
_atom_site_aniso_U_13
_atom_site_aniso_U_23
Mo1 Mo4+ 0.0108(2) 0.0108(2) 0.00213(4) 0.0003(3) 0 0
F1 F1- 0.0126(21) 0.0115(17) 0.0031(2) -.0005(11) -.0017(7) -.0001(7)
F2 F1- 0.0137(8) 0.0137(8) 0.0042(3) -.0048(11) -.0037(14) 0.0037(14)
#End of TTdata_23173-ICSD