
#(C) 2018 by FIZ Karlsruhe - Leibniz Institute for Information Infrastructure.  All rights reserved.
data_236329-ICSD
_database_code_ICSD 236329
_audit_creation_date 2014-02-01
_chemical_name_systematic 'Lithium ammonium chlorate(VII)'
_chemical_formula_structural 'Li0.41 (N H4)0.59 (Cl O4)'
_chemical_formula_sum 'H2.36 Cl1 Li0.41 N0.59 O4'
_chemical_name_structure_type (K,NH4)H2PO4
_exptl_crystal_density_diffrn 1.77
_cell_measurement_temperature 293.
_publ_section_title

;
The interpenetrated three-dimensional framework of a new mixed
lithium/ammonium perchlorate grown in a gel medium
;
loop_
_citation_id
_citation_journal_full
_citation_year
_citation_journal_volume
_citation_page_first
_citation_page_last
_citation_journal_id_ASTM
primary 'Acta Crystallographica, Section C: Crystal Structure Communications'
2013 69 315 318 ACSCEE
loop_
_publ_author_name
'Walha, Siwar'
'Bouchaala, Mahmoud'
'Ben Salah, Abdelhamid'
_cell_length_a 7.4946(2)
_cell_length_b 7.4946(2)
_cell_length_c 7.5457(2)
_cell_angle_alpha 90.
_cell_angle_beta 90.
_cell_angle_gamma 90.
_cell_volume 423.83
_cell_formula_units_Z 4
_symmetry_space_group_name_H-M 'I -4 2 d'
_symmetry_Int_Tables_number 122
_refine_ls_R_factor_all 0.0349
loop_
_symmetry_equiv_pos_site_id
_symmetry_equiv_pos_as_xyz
1 '-y, -x+1/2, z+1/4'
2 'y, -x, -z'
3 'y, x+1/2, z+1/4'
4 '-y, x, -z'
5 'x, -y+1/2, -z+1/4'
6 '-x, -y, z'
7 '-x, y+1/2, -z+1/4'
8 'x, y, z'
9 '-y+1/2, -x, z+3/4'
10 'y+1/2, -x+1/2, -z+1/2'
11 'y+1/2, x, z+3/4'
12 '-y+1/2, x+1/2, -z+1/2'
13 'x+1/2, -y, -z+3/4'
14 '-x+1/2, -y+1/2, z+1/2'
15 '-x+1/2, y, -z+3/4'
16 'x+1/2, y+1/2, z+1/2'
loop_
_atom_type_symbol
_atom_type_oxidation_number
Cl7+ 7
O2- -2
Li1+ 1
N3- -3
H1+ 1
loop_
_atom_site_label
_atom_site_type_symbol
_atom_site_symmetry_multiplicity
_atom_site_Wyckoff_symbol
_atom_site_fract_x
_atom_site_fract_y
_atom_site_fract_z
_atom_site_B_iso_or_equiv
_atom_site_occupancy
_atom_site_attached_hydrogens
Cl1 Cl7+ 4 a 0.5 0.5 0.5 0.0218(2) 1 0
O1 O2- 16 e 0.4152(2) 0.3535(2) 0.3858(2) 0.0240(4) 1 0
Li1 Li1+ 4 b 0.5 0. 0.25 0.0197(11) 0.41(3) 0
N1 N3- 4 b 0.5 0. 0.25 0.0197(11) 0.59(3) 0
H1 H1+ 16 e 0.605(2) 0.018(11) 0.1733(15) 0.03 0.59(3) 0
loop_
_atom_site_aniso_label
_atom_site_aniso_type_symbol
_atom_site_aniso_U_11
_atom_site_aniso_U_22
_atom_site_aniso_U_33
_atom_site_aniso_U_12
_atom_site_aniso_U_13
_atom_site_aniso_U_23
Cl1 Cl7+ 0.0190(3) 0.0190(3) 0.0275(4) 0. 0. 0.
O1 O2- 0.0199(7) 0.0209(6) 0.0309(7) 0.0038(5) -0.0062(6) -0.0095(6)
Li1 Li1+ 0.0230(14) 0.0230(14) 0.0130(15) 0. 0. 0.
N1 N3- 0.0230(14) 0.0230(14) 0.0130(15) 0. 0. 0.
#End of TTdata_236329-ICSD