
#(C) 2018 by FIZ Karlsruhe - Leibniz Institute for Information Infrastructure.  All rights reserved.
data_237729-ICSD
_database_code_ICSD 237729
_audit_creation_date 2015-02-01
_chemical_name_systematic 'Dilithium tricalcium tris(dinitride)'
_chemical_formula_structural 'Li2 Ca3 (N2)3'
_chemical_formula_sum 'Ca3 Li2 N6'
_exptl_crystal_density_diffrn 2.69
_cell_measurement_temperature 298.
_publ_section_title

;
High-pressure synthesis and characterization of Li2 Ca3 [N2]3 - An uncommon
metallic diazenide with [N2]2- ions
;
loop_
_citation_id
_citation_journal_full
_citation_year
_citation_journal_volume
_citation_page_first
_citation_page_last
_citation_journal_id_ASTM
primary 'Journal of the American Chemical Society' 2013 135 16668 16679 JACSAT
loop_
_publ_author_name
'Schneider, Sebastian B.'
'Seibald, Markus'
'Deringer, Volker L.'
'Stoffel, Ralf P.'
'Frankovsky, Rainer'
'Friederichs, Gina M.'
'Laqua, Henryk'
'Duppel, Viola'
'Jeschke, Gunnar'
'Dronskowski, Richard'
'Schnick, Wolfgang'
_cell_length_a 4.77472(7)
_cell_length_b 13.9792(4)
_cell_length_c 8.0718(4)
_cell_angle_alpha 90.
_cell_angle_beta 90.
_cell_angle_gamma 90.
_cell_volume 538.76
_cell_formula_units_Z 4
_symmetry_space_group_name_H-M 'P m m a'
_symmetry_Int_Tables_number 51
_refine_ls_R_factor_all 0.0379
loop_
_symmetry_equiv_pos_site_id
_symmetry_equiv_pos_as_xyz
1 '-x+1/2, -y, z'
2 'x+1/2, -y, -z'
3 'x, -y, z'
4 '-x, -y, -z'
5 'x+1/2, y, -z'
6 '-x+1/2, y, z'
7 '-x, y, -z'
8 'x, y, z'
loop_
_atom_type_symbol
_atom_type_oxidation_number
N1- -1.33
Ca2+ 2
Li1+ 1
loop_
_atom_site_label
_atom_site_type_symbol
_atom_site_symmetry_multiplicity
_atom_site_Wyckoff_symbol
_atom_site_fract_x
_atom_site_fract_y
_atom_site_fract_z
_atom_site_B_iso_or_equiv
_atom_site_occupancy
_atom_site_attached_hydrogens
N1 N1- 4 k 0.25 0.1769(12) 0.7043(9) 0.027(6) 1. 0
N2 N1- 4 k 0.25 0.8027(14) 0.8667(13) 0.040(11) 1. 0
N3 N1- 4 k 0.25 0.6656(8) 0.2002(9) 0.048(9) 1. 0
N4 N1- 4 k 0.25 0.2860(8) 0.343(2) 0.026(5) 1. 0
N5 N1- 4 k 0.25 0.0484(16) 0.410(4) 0.064(11) 1. 0
N6 N1- 4 k 0.25 0.5482(13) 0.91(3) 0.027(7) 1. 0
Ca1 Ca2+ 2 e 0.25 0. 0.6965(15) 0.039(3) 1. 0
Ca2 Ca2+ 2 f 0.25 0.5 0.1952(17) 0.042(4) 1. 0
Ca3 Ca2+ 4 k 0.25 0.1446(5) 0.1642(12) 0.055(3) 1. 0
Ca4 Ca2+ 4 k 0.25 0.6435(5) 0.6510(12) 0.057(3) 1. 0
Li1 Li1+ 4 g 0. 0.346(2) 0. 0.033(9) 1. 0
Li2 Li1+ 4 h 0. 0.847(3) 0.5 0.021(12) 1. 0
#End of TTdata_237729-ICSD