
#(C) 2018 by FIZ Karlsruhe - Leibniz Institute for Information Infrastructure.  All rights reserved.
data_237900-ICSD
_database_code_ICSD 237900
_audit_creation_date 2015-08-01
_chemical_name_systematic 'Iron lithium phosphorus oxide (1.02/0.95/1/4)'
_chemical_formula_structural 'Fe1.02 Li0.95 P O4'
_chemical_formula_sum 'Fe1.02 Li0.95 O4 P1'
_chemical_name_structure_type Olivine-Mg2SiO4
_exptl_crystal_density_diffrn 3.62
_publ_section_title

;
Defects in hydrothermally synthesized Li Fe P O4 and Li Fe1-x Mnx P O4 cathode
materials
;
loop_
_citation_id
_citation_journal_full
_citation_year
_citation_journal_volume
_citation_page_first
_citation_page_last
_citation_journal_id_ASTM
primary 'Chemistry of Materials' 2013 25 2282 2290 CMATEX
loop_
_publ_author_name
'Jensen, Kirsten M.O.'
'Christensen, Mogens'
'Gunnlaugsson, Haraldur P.'
'Lock, Nina'
'Boejesen, Espen D.'
'Proffen, Thomas'
'Iversen, Bo B.'
_cell_length_a 10.33183(9)
_cell_length_b 6.00300(5)
_cell_length_c 4.69447(4)
_cell_angle_alpha 90.
_cell_angle_beta 90.
_cell_angle_gamma 90.
_cell_volume 291.16
_cell_formula_units_Z 4
_symmetry_space_group_name_H-M 'P n m a'
_symmetry_Int_Tables_number 62
_refine_ls_R_factor_all 0.0317
loop_
_symmetry_equiv_pos_site_id
_symmetry_equiv_pos_as_xyz
1 'x+1/2, y, -z+1/2'
2 'x, -y+1/2, z'
3 '-x+1/2, y+1/2, z+1/2'
4 '-x, -y, -z'
5 '-x+1/2, -y, z+1/2'
6 '-x, y+1/2, -z'
7 'x+1/2, -y+1/2, -z+1/2'
8 'x, y, z'
loop_
_atom_type_symbol
_atom_type_oxidation_number
Li1+ 1
Fe2+ 2
P5+ 5
O2- -2
loop_
_atom_site_label
_atom_site_type_symbol
_atom_site_symmetry_multiplicity
_atom_site_Wyckoff_symbol
_atom_site_fract_x
_atom_site_fract_y
_atom_site_fract_z
_atom_site_B_iso_or_equiv
_atom_site_occupancy
_atom_site_attached_hydrogens
Li1 Li1+ 4 a 0 0 0 0.0169(6) 0.954(7) 0
Fe1 Fe2+ 4 a 0 0 0 0.0169(6) 0.021 0
Fe2 Fe2+ 4 c 0.2820(3) 0.25 0.97508(8) 0.0077(1) 1. 0
P1 P5+ 4 c 0.09495(6) 0.25 0.4172(1) 0.0063(1) 1. 0
O1 O2- 4 c 0.09730(7) 0.25 0.7413(1) 0.0090(1) 1. 0
O2 O2- 4 c 0.45692(6) 0.25 0.2056(2) 0.0101(1) 1. 0
O3 O2- 8 d 0.16585(5) 0.04670(7) 0.2844(1) 0.0096(1) 1. 0
#End of TTdata_237900-ICSD