
#(C) 2018 by FIZ Karlsruhe - Leibniz Institute for Information Infrastructure.  All rights reserved.
data_237936-ICSD
_database_code_ICSD 237936
_audit_creation_date 2015-08-01
_chemical_name_systematic 'Lithium cobalt oxide (1.02/0.98/1.98)'
_chemical_formula_structural 'Li (Li0.02 Co0.98) O1.98'
_chemical_formula_sum 'Co0.98 Li1.02 O1.98'
_chemical_name_structure_type Delafossite-NaCrS2
_exptl_crystal_density_diffrn 5.02
_cell_measurement_temperature 100.
_publ_section_title

;
Structural phase transition from rhombohedral (R-3m) to monoclinic (C2/m)
symmetry in lithium overstoichiometric Li(1+delta) Co(1-delta) O(2-delta)
;
loop_
_citation_id
_citation_journal_full
_citation_year
_citation_journal_volume
_citation_page_first
_citation_page_last
_citation_journal_id_ASTM
primary 'Chemistry of Materials' 2013 25 2828 2837 CMATEX
loop_
_publ_author_name
'Mukai, Kazuhiko'
'Kishida, Yoshihiro'
'Nozaki, Hiroshi'
'Dohmae, Kazuhiko'
_cell_length_a 2.8106(1)
_cell_length_b 2.8106(1)
_cell_length_c 14.009(1)
_cell_angle_alpha 90.
_cell_angle_beta 90.
_cell_angle_gamma 120.
_cell_volume 95.84
_cell_formula_units_Z 3
_symmetry_space_group_name_H-M 'R -3 m H'
_symmetry_Int_Tables_number 166
_refine_ls_R_factor_all 0.0496
loop_
_symmetry_equiv_pos_site_id
_symmetry_equiv_pos_as_xyz
1 'x-y, -y, -z'
2 '-x, -x+y, -z'
3 'y, x, -z'
4 'x-y, x, -z'
5 'y, -x+y, -z'
6 '-x, -y, -z'
7 '-x+y, y, z'
8 'x, x-y, z'
9 '-y, -x, z'
10 '-x+y, -x, z'
11 '-y, x-y, z'
12 'x, y, z'
13 'x-y+2/3, -y+1/3, -z+1/3'
14 '-x+2/3, -x+y+1/3, -z+1/3'
15 'y+2/3, x+1/3, -z+1/3'
16 'x-y+2/3, x+1/3, -z+1/3'
17 'y+2/3, -x+y+1/3, -z+1/3'
18 '-x+2/3, -y+1/3, -z+1/3'
19 '-x+y+2/3, y+1/3, z+1/3'
20 'x+2/3, x-y+1/3, z+1/3'
21 '-y+2/3, -x+1/3, z+1/3'
22 '-x+y+2/3, -x+1/3, z+1/3'
23 '-y+2/3, x-y+1/3, z+1/3'
24 'x+2/3, y+1/3, z+1/3'
25 'x-y+1/3, -y+2/3, -z+2/3'
26 '-x+1/3, -x+y+2/3, -z+2/3'
27 'y+1/3, x+2/3, -z+2/3'
28 'x-y+1/3, x+2/3, -z+2/3'
29 'y+1/3, -x+y+2/3, -z+2/3'
30 '-x+1/3, -y+2/3, -z+2/3'
31 '-x+y+1/3, y+2/3, z+2/3'
32 'x+1/3, x-y+2/3, z+2/3'
33 '-y+1/3, -x+2/3, z+2/3'
34 '-x+y+1/3, -x+2/3, z+2/3'
35 '-y+1/3, x-y+2/3, z+2/3'
36 'x+1/3, y+2/3, z+2/3'
loop_
_atom_type_symbol
_atom_type_oxidation_number
Li1+ 1
Co3+ 3
Li1+ 1
O2- -2
loop_
_atom_site_label
_atom_site_type_symbol
_atom_site_symmetry_multiplicity
_atom_site_Wyckoff_symbol
_atom_site_fract_x
_atom_site_fract_y
_atom_site_fract_z
_atom_site_B_iso_or_equiv
_atom_site_occupancy
_atom_site_attached_hydrogens
Li1 Li1+ 3 b 0 0 0.5 1.1(1) 1. 0
Co1 Co3+ 3 a 0 0 0 0.8(1) 0.98 0
Li2 Li1+ 3 a 0 0 0 0.8(1) 0.02 0
O1 O2- 6 c 0 0 0.260(1) 0.9(1) 0.99 0
#End of TTdata_237936-ICSD