
#(C) 2018 by FIZ Karlsruhe - Leibniz Institute for Information Infrastructure.  All rights reserved.
data_238236-ICSD
_database_code_ICSD 238236
_audit_creation_date 2015-08-01
_chemical_name_systematic 'Dilithium iron(II) tin(IV) tetrasulfide'
_chemical_formula_structural 'Li2 Fe Sn S4'
_chemical_formula_sum 'Fe1 Li2 S4 Sn1'
_exptl_crystal_density_diffrn 3.07
_cell_measurement_temperature 300.
_publ_section_title

;
Field-induced spin-flop in antiferromagnetic semiconductors with commensurate
and incommensurate magnetic structures: Li2 Fe Ge S4 (LIGS) and Li2 Fe Sn S4
(LITS)
;
loop_
_citation_id
_citation_journal_full
_citation_year
_citation_journal_volume
_citation_page_first
_citation_page_last
_citation_journal_id_ASTM
primary 'Inorganic Chemistry' 2014 53 12265 12274 INOCAJ
loop_
_publ_author_name
'Brant, Jacilynn A.'
'Dela Cruz, Clarina'
'Yao, Jinlei'
'Douvalis, Alexios P.'
'Bakas, Thomas'
'Sorescu, Monica'
'Aitken, Jennifer A.'
_cell_length_a 6.37419(7)
_cell_length_b 6.78396(7)
_cell_length_c 7.93071(9)
_cell_angle_alpha 90
_cell_angle_beta 90.2639(9)
_cell_angle_gamma 90
_cell_volume 342.94
_cell_formula_units_Z 2
_symmetry_space_group_name_H-M 'P 1 n 1'
_symmetry_Int_Tables_number 7
_refine_ls_R_factor_all 0.0102
loop_
_symmetry_equiv_pos_site_id
_symmetry_equiv_pos_as_xyz
1 'x+1/2, -y, z+1/2'
2 'x, y, z'
loop_
_atom_type_symbol
_atom_type_oxidation_number
Li1+ 1
Fe2+ 2
Sn4+ 4
S2- -2
loop_
_atom_site_label
_atom_site_type_symbol
_atom_site_symmetry_multiplicity
_atom_site_Wyckoff_symbol
_atom_site_fract_x
_atom_site_fract_y
_atom_site_fract_z
_atom_site_B_iso_or_equiv
_atom_site_occupancy
_atom_site_attached_hydrogens
Li1 Li1+ 2 a 0.607(5) 0.660(5) 0.912(3) 0.010(2) 1. 0
Li2 Li1+ 2 a 0.109(5) 0.826(5) 0.190(4) 0.014(2) 1. 0
Fe1 Fe2+ 2 a 0.1300(9) 0.830(1) 0.6832(8) 0.0202(7) 1. 0
Sn1 Sn4+ 2 a 0.627(1) 0.673(2) 0.4343(7) 0.0078(8) 1. 0
S1 S2- 2 a 0.254(2) 0.672(4) 0.441(2) 0.009(2) 1. 0
S2 S2- 2 a 0.248(3) 0.166(4) 0.683(3) 0.010(2) 1. 0
S3 S2- 2 a 0.255(3) 0.661(4) 0.931(2) 0.009(2) 1. 0
S4 S2- 2 a 0.766(3) 0.821(3) 0.680(3) 0.012(2) 1. 0
#End of TTdata_238236-ICSD