
#(C) 2018 by FIZ Karlsruhe - Leibniz Institute for Information Infrastructure.  All rights reserved.
data_238714-ICSD
_database_code_ICSD 238714
_audit_creation_date 2016-02-01
_chemical_name_systematic 'Ammonium lithium bis(dihydrogenphosphate)'
_chemical_formula_structural 'N H4 Li (H2 P O4)2'
_chemical_formula_sum 'H8 Li1 N1 O8 P2'
_exptl_crystal_density_diffrn 1.99
_publ_section_title

;
Crystal structure and spectroscopic studies of Li N H4 (H2 P O4)2 - A new
solid acid in the Li H2 P O4- N H4 H2 P O4 system
;
loop_
_citation_id
_citation_journal_full
_citation_year
_citation_journal_volume
_citation_page_first
_citation_page_last
_citation_journal_id_ASTM
primary 'Journal of Solid State Chemistry' 2015 230 272 278 JSSCBI
loop_
_publ_author_name
'Nguili, Narjess'
'Sunol, Joan Josep'
'Bulou, Alain'
'Toumi, Mohamed'
_cell_length_a 7.6811(19)
_cell_length_b 12.900(3)
_cell_length_c 7.5078(18)
_cell_angle_alpha 90
_cell_angle_beta 100.092(4)
_cell_angle_gamma 90
_cell_volume 732.41
_cell_formula_units_Z 4
_symmetry_space_group_name_H-M 'P 1 21/a 1'
_symmetry_Int_Tables_number 14
_refine_ls_R_factor_all 0.029
loop_
_symmetry_equiv_pos_site_id
_symmetry_equiv_pos_as_xyz
1 'x+1/2, -y+1/2, z'
2 '-x, -y, -z'
3 '-x+1/2, y+1/2, -z'
4 'x, y, z'
loop_
_atom_type_symbol
_atom_type_oxidation_number
P5+ 5
O2- -2
Li1+ 1
N3- -3
H1+ 1
loop_
_atom_site_label
_atom_site_type_symbol
_atom_site_symmetry_multiplicity
_atom_site_Wyckoff_symbol
_atom_site_fract_x
_atom_site_fract_y
_atom_site_fract_z
_atom_site_B_iso_or_equiv
_atom_site_occupancy
_atom_site_attached_hydrogens
P1 P5+ 4 e 0.08548(4) 0.66462(2) 0.18703(4) 0.01484 1. 0
P2 P5+ 4 e 0.04508(4) 0.92166(2) 0.75632(4) 0.01635(15) 1. 0
O1 O2- 4 e 0.26655(13) 0.66175(7) 0.32639(4) 0.0240(2) 1. 0
O2 O2- 4 e 0.12629(4) 0.60943(8) 0.01827(2) 0.0251(2) 1. 0
O3 O2- 4 e -0.05188(12) 0.60736(8) 0.26989(12) 0.0211(2) 1. 0
O4 O2- 4 e 0.03303(12) 0.77497(7) 0.13658(12) 0.0209(2) 1. 0
O5 O2- 4 e -0.09302(13) 0.00357(7) 0.69172(12) 0.0216(2) 1. 0
O6 O2- 4 e -0.05737(16) 0.81910(9) 0.79299(15) 0.0253(2) 1. 0
O7 O2- 4 e 0.17873(13) 0.94617(8) 0.92033(13) 0.0249(2) 1. 0
O8 O2- 4 e 0.14626(14) 0.88997(9) 0.60307(13) 0.0294(3) 1. 0
Li1 Li1+ 4 e 0.1925(3) 0.89852(18) 0.1622(3) 0.0206(4) 1. 0
N1 N3- 4 e 0.04768(19) 0.62079(11) -0.35939(17) 0.0279(3) 1. 0
H1 H1+ 4 e 0.045(3) 0.556(2) -0.304(3) 0.05 1. 0
H2 H1+ 4 e -0.002(3) 0.618(2) -0.475(4) 0.05 1. 0
H3 H1+ 4 e 0.148(4) 0.649(2) -0.347(3) 0.05 1. 0
H4 H1+ 4 e -0.040(3) 0.6519(19) -0.323(4) 0.05 1. 0
H5 H1+ 4 e 0.351(4) 0.6785(19) 0.287(3) 0.05 1. 0
H6 H1+ 4 e 0.181(4) 0.568(4) 0.036(4) 0.05 1. 0
H7 H1+ 4 e -0.027(5) 0.818(3) 0.872(4) 0.05 1. 0
H8 H1+ 4 e 0.106(3) 0.9234(8) 0.499(4) 0.05 1. 0
loop_
_atom_site_aniso_label
_atom_site_aniso_type_symbol
_atom_site_aniso_U_11
_atom_site_aniso_U_22
_atom_site_aniso_U_33
_atom_site_aniso_U_12
_atom_site_aniso_U_13
_atom_site_aniso_U_23
P1 P5+ 0.0163(2) 0.0152(2) 0.0131(2) 0.00031(10) 0.00267(15) 0.00179(9)
P2 P5+ 0.0187(2) 0.0176(2) 0.0125(2) 0.00114(10) 0.00227(15) 0.00128(9)
O1 O2- 0.0180(5) 0.0318(6) 0.0209(5) -0.0014(4) -0.0003(4) 0.0033(3)
O2 O2- 0.0349(6) 0.0251(5) 0.0158(5) 0.0087(4) 0.0061(4) 0.0006(3)
O3 O2- 0.0210(5) 0.0253(5) 0.0172(4) -0.0042(3) 0.0038(4) 0.0042(4)
O4 O2- 0.0241(5) 0.0153(4) 0.0234(5) 0.0012(4) 0.0040(4) 0.0027(3)
O5 O2- 0.0264(5) 0.0229(5) 0.0159(4) 0.0075(4) 0.0052(4) 0.0018(3)
O6 O2- 0.0347(6) 0.0213(5) 0.0183(5) -0.0076(4) -0.0002(4) 0.0018(4)
O7 O2- 0.0285(5) 0.0273(5) 0.0165(5) -0.0099(4) -0.0027(4) 0.0056(4)
O8 O2- 0.0340(6) 0.0388(6) 0.0178(5) 0.0181(5) 0.0108(4) 0.0074(4)
Li1 Li1+ 0.0214(0) 0.0199(9) 0.0201(10) 0.0008(8) 0.0026(8) 0.0011(8)
N1 N3- 0.0291(6) 0.0335(7) 0.0205(6) 0.0018(5) 0.0028(5) -0.0012(5)
#End of TTdata_238714-ICSD