
#(C) 2018 by FIZ Karlsruhe - Leibniz Institute for Information Infrastructure.  All rights reserved.
data_239609-ICSD
_database_code_ICSD 239609
_audit_creation_date 2016-08-01
_chemical_name_systematic 'Lithium titanium vanadium oxide (0.5/0.5/0.5/2)'
_chemical_formula_structural 'Li0.5 Ti0.5 V0.5 O2'
_chemical_formula_sum 'Li0.5 O2 Ti0.5 V0.5'
_chemical_name_structure_type Li.5TiO2
_exptl_crystal_density_diffrn 4.
_publ_section_title

;
Structural and electrochemical study of vanadium-doped Ti O2 ramsdellite with
superior lithium storage properties for lithium-ion batteries
;
loop_
_citation_id
_citation_journal_full
_citation_year
_citation_journal_volume
_citation_page_first
_citation_page_last
_citation_journal_id_ASTM
primary ChemPhysChem 2016 17 1062 1069 CPCHFT
loop_
_publ_author_name
'Perez-Flores, Juan Carlos'
'Hoelzel, Markus'
'Garcia-Alvarado, Flaviano'
'Kuhn, Alois'
_cell_length_a 5.0092(1)
_cell_length_b 9.5581(1)
_cell_length_c 2.94275(4)
_cell_angle_alpha 90.
_cell_angle_beta 90.
_cell_angle_gamma 90.
_cell_volume 140.9
_cell_formula_units_Z 4
_symmetry_space_group_name_H-M 'P b n m'
_symmetry_Int_Tables_number 62
_refine_ls_R_factor_all 0.046
loop_
_symmetry_equiv_pos_site_id
_symmetry_equiv_pos_as_xyz
1 '-x+1/2, y+1/2, z'
2 'x, y, -z+1/2'
3 'x+1/2, -y+1/2, z+1/2'
4 '-x, -y, -z'
5 'x+1/2, -y+1/2, -z'
6 '-x, -y, z+1/2'
7 '-x+1/2, y+1/2, -z+1/2'
8 'x, y, z'
loop_
_atom_type_symbol
_atom_type_oxidation_number
Li1+ 1
Ti2+ 2
V5+ 5
O2- -2
loop_
_atom_site_label
_atom_site_type_symbol
_atom_site_symmetry_multiplicity
_atom_site_Wyckoff_symbol
_atom_site_fract_x
_atom_site_fract_y
_atom_site_fract_z
_atom_site_B_iso_or_equiv
_atom_site_occupancy
_atom_site_attached_hydrogens
Li1 Li1+ 4 c -0.0508 0.4753 0.25 1 0.5 0
Ti1 Ti2+ 4 c -0.0185(8) 0.1410(3) 0.25 0.31(6) 0.5 0
V1 V5+ 4 c -0.0185(8) 0.1410(3) 0.25 0.31(6) 0.5 0
O1 O2- 4 c 0.7089(19) 0.2808(9) 0.25 0.55(14) 1. 0
O2 O2- 4 c 0.2067(16) -0.0368(9) 0.25 0.55(14) 1. 0
#End of TTdata_239609-ICSD