
#(C) 2018 by FIZ Karlsruhe - Leibniz Institute for Information Infrastructure.  All rights reserved.
data_239794-ICSD
_database_code_ICSD 239794
_audit_creation_date 2016-08-01
_chemical_name_systematic 'Lithium scandium bis(selenate(IV))'
_chemical_formula_structural 'Li Sc (Se O3)2'
_chemical_formula_sum 'Li1 O6 Sc1 Se2'
_exptl_crystal_density_diffrn 3.31
_cell_measurement_temperature 298.
_publ_section_title

;
Li Sc (Se O3)2.x H2 O (0 <= x <= 1): new selenites revealing water
molecule-driven extremely high temperature single-crystal-to-single-crystal
transformations
;
loop_
_citation_id
_citation_journal_full
_citation_year
_citation_journal_volume
_citation_page_first
_citation_page_last
_citation_journal_id_ASTM
primary 'Crystal Growth & Design' 2016 16 3076 3080 CGDEFU
loop_
_publ_author_name
'Song, Seung Yoon'
'Ok, Kang Min'
_cell_length_a 10.9369(2)
_cell_length_b 10.9369(2)
_cell_length_c 10.2464(3)
_cell_angle_alpha 90
_cell_angle_beta 90
_cell_angle_gamma 90
_cell_volume 1225.63
_cell_formula_units_Z 8
_symmetry_space_group_name_H-M 'I -4 2 d'
_symmetry_Int_Tables_number 122
_refine_ls_R_factor_all 0.0417
loop_
_symmetry_equiv_pos_site_id
_symmetry_equiv_pos_as_xyz
1 '-y, -x+1/2, z+1/4'
2 'y, -x, -z'
3 'y, x+1/2, z+1/4'
4 '-y, x, -z'
5 'x, -y+1/2, -z+1/4'
6 '-x, -y, z'
7 '-x, y+1/2, -z+1/4'
8 'x, y, z'
9 '-y+1/2, -x, z+3/4'
10 'y+1/2, -x+1/2, -z+1/2'
11 'y+1/2, x, z+3/4'
12 '-y+1/2, x+1/2, -z+1/2'
13 'x+1/2, -y, -z+3/4'
14 '-x+1/2, -y+1/2, z+1/2'
15 '-x+1/2, y, -z+3/4'
16 'x+1/2, y+1/2, z+1/2'
loop_
_atom_type_symbol
_atom_type_oxidation_number
Se4+ 4
Sc3+ 3
O2- -2
Li1+ 1
loop_
_atom_site_label
_atom_site_type_symbol
_atom_site_symmetry_multiplicity
_atom_site_Wyckoff_symbol
_atom_site_fract_x
_atom_site_fract_y
_atom_site_fract_z
_atom_site_B_iso_or_equiv
_atom_site_occupancy
_atom_site_attached_hydrogens
Se1 Se4+ 16 e 0.27536(12) 0.55564(13) 0.09211(13) 0.0156(4) 0.823(10) 0
Se2 Se4+ 16 e 0.1356(6) 0.5506(7) 0.1048(7) 0.025(2) 0.177(6) 0
Sc1 Sc3+ 8 d 0.25 0.7121(3) 0.375 0.0152(9) 1 0
O1 O2- 16 e 0.2126(9) 0.4228(7) 0.0439(8) 0.0253(19) 1 0
O2 O2- 16 e 0.2118(8) 0.5699(6) 0.2435(7) 0.0199(17) 1 0
O3 O2- 16 e 0.1866(8) 0.6574(7) 0.0111(7) 0.027(2) 1 0
Li1 Li1+ 8 d 0.072(3) 0.75 0.125 0.060(13) 1 0
loop_
_atom_site_aniso_label
_atom_site_aniso_type_symbol
_atom_site_aniso_U_11
_atom_site_aniso_U_22
_atom_site_aniso_U_33
_atom_site_aniso_U_12
_atom_site_aniso_U_13
_atom_site_aniso_U_23
Se1 Se4+ 0.0157(7) 0.0097(6) 0.0214(7) -0.0002(5) 0.0011(5) 0.0005(6)
Se2 Se4+ 0.031(4) 0.019(4) 0.025(4) 0.004(3) -0.004(3) 0.000(3)
Sc1 Sc3+ 0.0122(15) 0.0161(15) 0.0173(15) 0 -0.0006(9) 0
O1 O2- 0.038(5) 0.013(4) 0.025(4) 0.000(4) -0.004(4) -0.003(3)
O2 O2- 0.029(4) 0.009(3) 0.022(4) -0.005(4) -0.002(4) -0.003(3)
O3 O2- 0.031(5) 0.026(5) 0.023(4) 0.001(4) 0.004(4) 0.006(4)
Li1 Li1+ 0.031(19) 0.04(2) 0.11(4) 0 0 -0.02(2)
#End of TTdata_239794-ICSD