
#(C) 2017 by FIZ Karlsruhe - Leibniz Institute for Information Infrastructure.  All rights reserved.
data_240272-ICSD
_database_code_ICSD 240272
_audit_creation_date 2005-10-01
_chemical_name_systematic 'Dilithiumdiberylloheptafluoro ammonium'
_chemical_formula_structural 'Be2 F7 Li2 (N H4)'
_chemical_formula_sum 'H4 Be2 F7 Li2 N1'
_exptl_crystal_density_diffrn 2.02
_cell_measurement_temperature 120.
_publ_section_title

;
3-Dimensional Methylammonium and Ammonium Templated Lithiumberyllofluoro
Frameworks
;
loop_
_citation_id
_citation_journal_full
_citation_year
_citation_journal_volume
_citation_page_first
_citation_page_last
_citation_journal_id_ASTM
primary 'Chemistry of Materials' 2004 16 1650 1659 CMATEX
loop_
_publ_author_name
'Gerrard, L.A.'
'Weller, M.T.'
_cell_length_a 9.842(2)
_cell_length_b 12.221(2)
_cell_length_c 10.025(2)
_cell_angle_alpha 90
_cell_angle_beta 90
_cell_angle_gamma 90
_cell_volume 1205.8
_cell_formula_units_Z 8
_symmetry_space_group_name_H-M 'P c a 21'
_symmetry_Int_Tables_number 29
_refine_ls_R_factor_all 0.0724
loop_
_symmetry_equiv_pos_site_id
_symmetry_equiv_pos_as_xyz
1 'x+1/2, -y, z'
2 '-x+1/2, y, z+1/2'
3 '-x, -y, z+1/2'
4 'x, y, z'
loop_
_atom_type_symbol
_atom_type_oxidation_number
N3- -3
H1+ 1
N3- -3
H1+ 1
Li1+ 1
Be2+ 2
F1- -1
loop_
_atom_site_label
_atom_site_type_symbol
_atom_site_symmetry_multiplicity
_atom_site_Wyckoff_symbol
_atom_site_fract_x
_atom_site_fract_y
_atom_site_fract_z
_atom_site_B_iso_or_equiv
_atom_site_occupancy
_atom_site_attached_hydrogens
N1 N3- 4 a 0.2567(6) -0.0002(2) 0.7411(8) 0.0193(15) 1 0
H1 H1+ 4 a 0.306(3) 0.0580(19) 0.757(3) 0.029 1 0
H2 H1+ 4 a 0.174(2) 0.002(3) 0.768(3) 0.029 1 0
H3 H1+ 4 a 0.307(3) -0.0581(19) 0.758(3) 0.029 1 0
H4 H1+ 4 a 0.242(3) -0.003(2) 0.6518(19) 0.029 1 0
N2 N3- 4 a 0.0087(7) 0.4996(2) 0.5147(8) 0.0211(16) 1 0
H5 H1+ 4 a -0.019(3) 0.542(3) 0.584(2) 0.032 1 0
H6 H1+ 4 a -0.057(3) 0.449(2) 0.500(3) 0.032 1 0
H7 H1+ 4 a 0.007(3) 0.545(2) 0.444(2) 0.032 1 0
H8 H1+ 4 a 0.088(2) 0.466(3) 0.533(3) 0.032 1 0
Li1 Li1+ 4 a 0.0216(9) 0.2513(8) 0.7296(11) 0.0166(18) 1 0
Li2 Li1+ 4 a -0.0238(9) 0.2496(8) 0.2224(11) 0.0145(19) 1 0
Li3 Li1+ 4 a -0.2208(9) 0.2452(9) 0.5336(12) 0.020(2) 1 0
Li4 Li1+ 4 a 0.2734(10) 0.2518(9) 0.5349(12) 0.020(2) 1 0
Be1 Be2+ 4 a -0.2354(7) 0.3778(7) 0.7868(7) 0.0154(15) 1 0
Be2 Be2+ 4 a 0.2785(7) 0.3855(7) 0.7778(7) 0.0153(15) 1 0
Be3 Be2+ 4 a -0.0204(7) 0.1160(7) 0.9717(8) 0.0159(15) 1 0
Be4 Be2+ 4 a 0.0239(7) 0.1167(8) 0.4773(8) 0.0166(15) 1 0
F1 F1- 4 a 0.0264(3) 0.1275(3) 0.8281(3) 0.0262(7) 1 0
F2 F1- 4 a 0.1986(3) 0.3015(3) 0.6956(3) 0.0171(8) 1 0
F3 F1- 4 a 0.4306(2) 0.3774(2) 0.7466(3) 0.0126(5) 1 0
F4 F1- 4 a 0.2486(2) 0.3737(2) 0.4281(2) 0.0155(5) 1 0
F5 F1- 4 a -0.2691(4) 0.49548(13) 0.7312(5) 0.0142(9) 1 0
F6 F1- 4 a -0.2953(3) 0.2935(3) 0.6923(3) 0.0150(8) 1 0
F7 F1- 4 a -0.0796(2) 0.3650(2) 0.7964(3) 0.0140(5) 1 0
F8 F1- 4 a -0.2029(2) 0.3676(2) 0.4274(3) 0.0143(5) 1 0
F9 F1- 4 a -0.0205(3) 0.1327(3) 0.3325(3) 0.0289(7) 1 0
F10 F1- 4 a -0.0477(3) 0.2020(3) 0.5681(3) 0.0177(8) 1 0
F11 F1- 4 a 0.1777(3) 0.1281(3) 0.4911(4) 0.0289(7) 1 0
F12 F1- 4 a 0.0200(5) -0.00016(13) 1.0264(5) 0.0178(10) 1 0
F13 F1- 4 a -0.3254(3) 0.1291(3) 0.4844(3) 0.0288(7) 1 0
F14 F1- 4 a 0.4493(3) 0.2036(3) 0.5603(3) 0.0175(8) 1 0
loop_
_atom_site_aniso_label
_atom_site_aniso_type_symbol
_atom_site_aniso_U_11
_atom_site_aniso_U_22
_atom_site_aniso_U_33
_atom_site_aniso_U_12
_atom_site_aniso_U_13
_atom_site_aniso_U_23
N1 N3- 0.019(3) 0.022(4) 0.017(3) 0.0007(11) 0.005(2) 0.0023(14)
N2 N3- 0.018(3) 0.019(4) 0.027(4) -0.0008(11) 0.006(2) -0.0014(14)
Li1 Li1+ 0.023(4) 0.012(5) 0.015(4) 0.001(4) -0.010(4) 0.001(4)
Li2 Li1+ 0.020(4) 0.008(5) 0.016(4) 0.004(4) 0.007(4) -0.001(4)
Li3 Li1+ 0.016(4) 0.020(6) 0.024(4) 0.000(4) -0.008(3) 0.001(4)
Li4 Li1+ 0.020(4) 0.020(6) 0.022(4) -0.002(4) -0.009(4) 0.000(4)
Be1 Be2+ 0.017(3) 0.016(4) 0.014(3) -0.001(3) 0.000(2) 0.000(3)
Be2 Be2+ 0.020(3) 0.018(4) 0.008(3) 0.000(3) 0.000(2) 0.000(3)
Be3 Be2+ 0.011(3) 0.011(4) 0.026(3) 0.001(3) -0.001(2) -0.002(3)
Be4 Be2+ 0.010(3) 0.019(4) 0.021(3) -0.001(3) 0.002(3) -0.002(3)
F1 F1- 0.0457(14) 0.0180(13) 0.0150(11) 0.0045(12) 0.0018(10) 0.0027(12)
F2 F1- 0.0155(14) 0.019(2) 0.0171(15) -0.0008(12) 0.0014(12) -0.0041(13)
F3 F1- 0.0123(10) 0.0164(11) 0.0092(9) 0.0004(9) 0.0017(9) 0.0021(11)
F4 F1- 0.0139(10) 0.0195(12) 0.0132(10) 0.0025(10) -0.0037(10) 0.0001(12)
F5 F1- 0.0131(16) 0.015(2) 0.0141(17) -0.0007(7) 0.0012(16) 0.0004(9)
F6 F1- 0.0117(14) 0.018(2) 0.0152(14) 0.0000(11) -0.0005(11) -0.0045(12)
F7 F1- 0.0111(9) 0.0178(12) 0.0131(10) 0.0004(10) 0.0008(8) -0.0009(10)
F8 F1- 0.0097(9) 0.0183(12) 0.0149(9) -0.0012(9) -0.0023(10) -0.0002(13)
F9 F1- 0.0546(15) 0.0151(13) 0.0169(11) -0.0039(12) -0.0032(12) 0.0015(13)
F10 F1- 0.0158(15) 0.019(2) 0.0183(15) 0.0046(12) -0.0034(12) -0.0026(12)
F11 F1- 0.0178(12) 0.0174(13) 0.0517(13) -0.0017(11) 0.0046(11) -0.0108(13)
F12 F1- 0.0216(19) 0.015(2) 0.0172(19) -0.0006(7) -0.0014(17) -0.0013(8)
F13 F1- 0.0174(12) 0.0210(13) 0.0479(13) -0.0008(11) 0.0029(10) -0.0120(12)
F14 F1- 0.0184(15) 0.014(2) 0.0199(16) 0.0046(12) -0.0020(12) -0.0015(12)
#End of TTdata_240272-ICSD