
#(C) 2018 by FIZ Karlsruhe - Leibniz Institute for Information Infrastructure.  All rights reserved.
data_241134-ICSD
_database_code_ICSD 241134
_audit_creation_date 2008-08-01
_chemical_name_systematic 'Lithium iron(III) dimolybdate(VI)'
_chemical_formula_structural 'Li Fe (Mo O4)2'
_chemical_formula_sum 'Fe1 Li1 Mo2 O8'
_chemical_name_structure_type CuLa(WO4)2
_exptl_crystal_density_diffrn 4.03
_cell_measurement_temperature 173.
_publ_section_title 'Li Fe (Mo O4)2, Li Ga (Mo  O4)2 and Li3 Ga (Mo O4)3'
loop_
_citation_id
_citation_journal_full
_citation_year
_citation_journal_volume
_citation_page_first
_citation_page_last
_citation_journal_id_ASTM
primary 'Acta Crystallographica, Section C: Crystal Structure Communications'
2008 64 i1 i4 ACSCEE
loop_
_publ_author_name
'van der Lee, A.'
'Beaurain, M.'
'Armand, P.'
_cell_length_a 6.7592(2)
_cell_length_b 7.1773(2)
_cell_length_c 7.2398(2)
_cell_angle_alpha 90.806(3)
_cell_angle_beta 110.315(3)
_cell_angle_gamma 105.3850(15)
_cell_volume 315.38
_cell_formula_units_Z 2
_symmetry_space_group_name_H-M 'P -1'
_symmetry_Int_Tables_number 2
_refine_ls_R_factor_all 0.0136
loop_
_symmetry_equiv_pos_site_id
_symmetry_equiv_pos_as_xyz
1 '-x, -y, -z'
2 'x, y, z'
loop_
_atom_type_symbol
_atom_type_oxidation_number
Mo6+ 6
Fe3+ 3
Li1+ 1
O2- -2
loop_
_atom_site_label
_atom_site_type_symbol
_atom_site_symmetry_multiplicity
_atom_site_Wyckoff_symbol
_atom_site_fract_x
_atom_site_fract_y
_atom_site_fract_z
_atom_site_B_iso_or_equiv
_atom_site_occupancy
_atom_site_attached_hydrogens
Mo1 Mo6+ 2 i 0.33314(3) 0.57612(2) 0.29130(2) 0.0054 1. 0
Mo2 Mo6+ 2 i 0.82113(2) -0.03786(2) 0.22280(2) 0.0046 1. 0
Fe1 Fe3+ 2 i 0.39993(4) 0.10025(4) 0.31839(4) 0.0041 1. 0
Li1 Li1+ 2 i 0.7711(6) 0.4465(6) 0.2593(6) 0.0142 1. 0
O1 O2- 2 i 0.4178(2) 0.84077(19) 0.3846(2) 0.0062 1. 0
O2 O2- 2 i 0.2536(3) 0.5702(2) 0.0397(2) 0.012 1. 0
O3 O2- 2 i 0.0947(2) 0.4847(2) 0.3361(2) 0.0111 1. 0
O4 O2- 2 i 0.4814(2) 0.3844(2) 0.3508(2) 0.0077 1. 0
O5 O2- 2 i 0.6858(2) 0.1297(2) 0.2697(2) 0.0075 1. 0
O6 O2- 2 i 0.7680(2) -0.0471(2) -0.0336(2) 0.0114 1. 0
O7 O2- 2 i 0.7130(2) -0.2750(2) 0.2649(2) 0.0096 1. 0
O8 O2- 2 i 1.1113(2) 0.0466(2) 0.3552(2) 0.0083 1. 0
loop_
_atom_site_aniso_label
_atom_site_aniso_type_symbol
_atom_site_aniso_U_11
_atom_site_aniso_U_22
_atom_site_aniso_U_33
_atom_site_aniso_U_12
_atom_site_aniso_U_13
_atom_site_aniso_U_23
Mo1 Mo6+ 0.00488(7) 0.00357(7) 0.00636(7) 0.00158(5) 0.00027(5) 0.00015(5)
Mo2 Mo6+ 0.00306(7) 0.00566(7) 0.00493(7) 0.00144(5) 0.00102(5) -0.00004(5)
Fe1 Fe3+ 0.00384(11) 0.00372(10) 0.00487(11) 0.00124(8) 0.00148(9) 0.00045(8)
Li1 Li1+ 0.0099(16) 0.0157(17) 0.0186(18) 0.0055(13) 0.0055(14) 0.0029(14)
O1 O2- 0.0076(6) 0.0046(5) 0.0065(6) 0.0022(5) 0.0024(5) 0.0012(4)
O2 O2- 0.0130(6) 0.0130(7) 0.0079(6) 0.0047(5) 0.0007(5) 0.0005(5)
O3 O2- 0.0066(6) 0.0105(6) 0.0147(7) 0.0013(5) 0.0027(5) 0.0029(5)
O4 O2- 0.0080(6) 0.0048(6) 0.0098(6) 0.0028(5) 0.0020(5) 0.0010(5)
O5 O2- 0.0066(6) 0.0075(6) 0.0107(6) 0.0028(5) 0.0052(5) 0.0024(5)
O6 O2- 0.0084(6) 0.0183(7) 0.0067(6) 0.0030(5) 0.0023(5) -0.0002(5)
O7 O2- 0.0098(6) 0.0069(6) 0.0117(6) 0.0019(5) 0.0038(5) 0.0001(5)
O8 O2- 0.0046(6) 0.0111(6) 0.0089(6) 0.0020(5) 0.0025(5) 0.0009(5)
#End of TTdata_241134-ICSD