
#(C) 2018 by FIZ Karlsruhe - Leibniz Institute for Information Infrastructure.  All rights reserved.
data_241829-ICSD
_database_code_ICSD 241829
_audit_creation_date 2017-08-01
_chemical_name_systematic 'Dilithium vanadyl bis(sulfate(VI))'
_chemical_formula_structural 'Li2 V O (S O4)2'
_chemical_formula_sum 'Li2 O9 S2 V1'
_exptl_crystal_density_diffrn 2.67
_publ_section_title
'A2 V O (S O4)2 (A = Li, Na) as electrodes for Li-ion and Na-ion batteries'
loop_
_citation_id
_citation_journal_full
_citation_year
_citation_journal_volume
_citation_page_first
_citation_page_last
_citation_journal_id_ASTM
primary 'Chemistry of Materials' 2016 28 6637 6643 CMATEX
loop_
_publ_author_name
'Sun, Meiling'
'Rousse, Gwenaelle'
'Saubanere, Matthieu'
'Doublet, Marie-Liesse'
'Dalla Corte, Daniel'
'Tarascon, Jean-Marie'
_cell_length_a 8.81158(4)
_cell_length_b 8.81158(4)
_cell_length_c 8.75256(6)
_cell_angle_alpha 90.
_cell_angle_beta 90.
_cell_angle_gamma 90.
_cell_volume 679.58
_cell_formula_units_Z 4
_symmetry_space_group_name_H-M 'I 4 c m'
_symmetry_Int_Tables_number 108
_refine_ls_R_factor_all 0.0386
loop_
_symmetry_equiv_pos_site_id
_symmetry_equiv_pos_as_xyz
1 'y+1/2, x+1/2, z'
2 '-y+1/2, -x+1/2, z'
3 'y, -x, z'
4 '-y, x, z'
5 'x+1/2, -y+1/2, z'
6 '-x+1/2, y+1/2, z'
7 '-x, -y, z'
8 'x, y, z'
9 'y, x, z+1/2'
10 '-y, -x, z+1/2'
11 'y+1/2, -x+1/2, z+1/2'
12 '-y+1/2, x+1/2, z+1/2'
13 'x, -y, z+1/2'
14 '-x, y, z+1/2'
15 '-x+1/2, -y+1/2, z+1/2'
16 'x+1/2, y+1/2, z+1/2'
loop_
_atom_type_symbol
_atom_type_oxidation_number
Li1+ 1
V4+ 4
S6+ 6
O2- -2
loop_
_atom_site_label
_atom_site_type_symbol
_atom_site_symmetry_multiplicity
_atom_site_Wyckoff_symbol
_atom_site_fract_x
_atom_site_fract_y
_atom_site_fract_z
_atom_site_B_iso_or_equiv
_atom_site_occupancy
_atom_site_attached_hydrogens
Li1 Li1+ 8 c 0.3865(6) 0.8865(6) 0.1681(8) 0.0075(16) 1. 0
V1 V4+ 4 a 0. 0. 0. 0.0061(4) 1. 0
S1 S6+ 8 c 0.30544(13) 0.80544(13) 0.5250(4) 0.0078(4) 1. 0
O1 O2- 8 c 0.3902(2) 0.8902(2) 0.6377(4) 0.0175(7) 1. 0
O2 O2- 16 d 0.36268(17) 0.32610(18) 0.5522(3) 0.0119(3) 1. 0
O3 O2- 8 c 0.3454(2) 0.8454(2) 0.3704(4) 0.0227(7) 1. 0
O4 O2- 4 a 0. 0. 0.8200(5) 0.0177(10) 1. 0
#End of TTdata_241829-ICSD