
#(C) 2018 by FIZ Karlsruhe - Leibniz Institute for Information Infrastructure.  All rights reserved.
data_241922-ICSD
_database_code_ICSD 241922
_audit_creation_date 2017-08-01
_chemical_name_systematic 'Lithium lead phosphate'
_chemical_formula_structural 'Li Pb P O4'
_chemical_formula_sum 'Li1 O4 P1 Pb1'
_chemical_name_structure_type PbZnSiO4
_exptl_crystal_density_diffrn 5.51
_cell_measurement_temperature 296.
_publ_section_title

;
Experimental and theoretical studies on the linear and nonlinear optical
properties of lead phosphate crystals Li Pb P O4
;
loop_
_citation_id
_citation_journal_full
_citation_year
_citation_journal_volume
_citation_page_first
_citation_page_last
_citation_journal_id_ASTM
primary 'Physical Chemistry Chemical Physics' 2016 18 19123 19129 PPCPFQ
loop_
_publ_author_name
'Han, Guopeng'
'Liu, Qiong'
'Wang, Ying'
'Su, Xin'
'Yang, Zhihua'
'Pan, Shilie'
_cell_length_a 8.027(8)
_cell_length_b 18.689(18)
_cell_length_c 4.965(5)
_cell_angle_alpha 90.
_cell_angle_beta 90.
_cell_angle_gamma 90.
_cell_volume 744.83
_cell_formula_units_Z 8
_symmetry_space_group_name_H-M 'P n a 21'
_symmetry_Int_Tables_number 33
_refine_ls_R_factor_all 0.0352
loop_
_symmetry_equiv_pos_site_id
_symmetry_equiv_pos_as_xyz
1 'x+1/2, -y+1/2, z'
2 '-x+1/2, y+1/2, z+1/2'
3 '-x, -y, z+1/2'
4 'x, y, z'
loop_
_atom_type_symbol
_atom_type_oxidation_number
Pb2+ 2
P5+ 5
Li1+ 1
O2- -2
loop_
_atom_site_label
_atom_site_type_symbol
_atom_site_symmetry_multiplicity
_atom_site_Wyckoff_symbol
_atom_site_fract_x
_atom_site_fract_y
_atom_site_fract_z
_atom_site_B_iso_or_equiv
_atom_site_occupancy
_atom_site_attached_hydrogens
Pb1 Pb2+ 4 a 0.32569(6) 0.44650(3) 0.08852(12) 0.01205(15) 1 0
Pb2 Pb2+ 4 a 0.47267(6) 0.22895(3) 0.0729(2) 0.01542(16) 1 0
P1 P5+ 4 a 0.2670(4) 0.07157(19) 0.0379(10) 0.0075(8) 1 0
P2 P5+ 4 a 0.2877(5) 0.32044(19) 0.5339(9) 0.0077(9) 1 0
Li1 Li1+ 4 a 0.491(3) 0.0592(12) -0.461(6) 0.011(5) 1 0
Li2 Li1+ 4 a 0.180(3) 0.1489(13) -0.464(6) 0.012(6) 1 0
O1 O2- 4 a 0.2815(13) 0.0738(6) 0.346(2) 0.009(2) 1 0
O2 O2- 4 a 0.2479(13) 0.1478(6) -0.079(2) 0.012(2) 1 0
O3 O2- 4 a 0.1367(13) 0.3645(6) 0.454(2) 0.017(3) 1 0
O4 O2- 4 a 0.3087(14) 0.3180(7) 0.842(2) 0.016(3) 1 0
O5 O2- 4 a 0.1082(13) 0.0275(6) -0.044(2) 0.011(2) 1 0
O6 O2- 4 a 0.4160(14) 0.0342(6) -0.093(2) 0.011(2) 1 0
O7 O2- 4 a 0.4436(13) 0.3531(6) 0.399(2) 0.013(2) 1 0
O8 O2- 4 a 0.2695(14) 0.2445(6) 0.420(2) 0.014(2) 1 0
loop_
_atom_site_aniso_label
_atom_site_aniso_type_symbol
_atom_site_aniso_U_11
_atom_site_aniso_U_22
_atom_site_aniso_U_33
_atom_site_aniso_U_12
_atom_site_aniso_U_13
_atom_site_aniso_U_23
Pb1 Pb2+ 0.0148(3) 0.0087(3) 0.0126(3) 0.00011(16) -0.0005(4) -0.0004(4)
Pb2 Pb2+ 0.0157(3) 0.0155(3) 0.0151(3) 0.00368(18) 0.0011(4) 0.0004(5)
P1 P5+ 0.0108(15) 0.0012(15) 0.011(2) -0.0002(12) 0.0008(16) -0.0003(17)
P2 P5+ 0.0110(15) 0.0036(16) 0.008(3) 0.0020(12) 0.0017(15) -0.0002(16)
Li1 Li1+ 0.010(6) 0.010(7) 0.012(7) 0.000(4) -0.002(5) -0.003(5)
Li2 Li1+ 0.012(7) 0.011(7) 0.012(7) -0.001(4) 0.001(5) 0.003(5)
O1 O2- 0.016(5) 0.008(6) 0.004(5) 0.001(4) -0.002(4) -0.004(4)
O2 O2- 0.018(4) 0.006(4) 0.012(4) 0.000(3) -0.002(3) 0.000(3)
O3 O2- 0.018(6) 0.009(6) 0.023(6) 0.007(5) 0.004(5) 0.004(5)
O4 O2- 0.028(6) 0.017(7) 0.002(5) 0.002(5) -0.002(4) -0.001(5)
O5 O2- 0.009(4) 0.010(4) 0.015(4) 0.001(3) 0.000(3) -0.008(3)
O6 O2- 0.014(5) 0.011(6) 0.008(5) 0.008(5) 0.005(4) 0.004(5)
O7 O2- 0.009(5) 0.012(6) 0.018(6) -0.007(4) -0.001(4) -0.002(5)
O8 O2- 0.019(4) 0.014(4) 0.009(4) -0.002(4) 0.005(3) -0.003(3)
#End of TTdata_241922-ICSD