
#(C) 2018 by FIZ Karlsruhe - Leibniz Institute for Information Infrastructure.  All rights reserved.
data_243927-ICSD
_database_code_ICSD 243927
_audit_creation_date 2018-02-01
_chemical_name_systematic 'Lithium ruthenium oxide (0.75/0.25/1)'
_chemical_formula_structural '(Li0.75 Ru0.25) O'
_chemical_formula_sum 'Li0.75 O1 Ru0.25'
_chemical_name_structure_type Na3BiO4
_exptl_crystal_density_diffrn 4.3
_publ_section_title

;
The Li3RuyNb1-yO4 (0 <= Y <= 1) system: structural diversity and Li insertion
and extraction capabilities
;
loop_
_citation_id
_citation_journal_full
_citation_year
_citation_journal_volume
_citation_page_first
_citation_page_last
_citation_journal_id_ASTM
primary 'Chemistry of Materials' 2017 29 5331 5343 CMATEX
loop_
_publ_author_name
'Jacquet, Quentin'
'Perez, Arnaud'
'Batuk, Dmitry'
'Tendeloo, Gustaaf van'
'Rousse, Gwenaelle'
'Tarascon, Jean-Marie'
_cell_length_a 5.08487(3)
_cell_length_b 5.87207(3)
_cell_length_c 5.12450(2)
_cell_angle_alpha 90
_cell_angle_beta 110.2130(4)
_cell_angle_gamma 90
_cell_volume 143.58
_cell_formula_units_Z 8
_symmetry_space_group_name_H-M 'P 1 2/a 1'
_symmetry_Int_Tables_number 13
loop_
_symmetry_equiv_pos_site_id
_symmetry_equiv_pos_as_xyz
1 'x+1/2, -y, z'
2 '-x, -y, -z'
3 '-x+1/2, y, -z'
4 'x, y, z'
loop_
_atom_type_symbol
_atom_type_oxidation_number
O2- -2
Li1+ 1
Ru5+ 5
loop_
_atom_site_label
_atom_site_type_symbol
_atom_site_symmetry_multiplicity
_atom_site_Wyckoff_symbol
_atom_site_fract_x
_atom_site_fract_y
_atom_site_fract_z
_atom_site_B_iso_or_equiv
_atom_site_occupancy
_atom_site_attached_hydrogens
O1 O2- 4 g 0.0178(7) 0.6356(5) 0.7578(5) 0.0104 1. 0
O2 O2- 4 g 0.5029(7) 0.1136(5) 0.2263(7) 0.0104 1. 0
Li1 Li1+ 2 e 0.75 0.616(2) 0. 0.0059 1. 0
Li2 Li1+ 2 f 0.75 0.879(2) 0.5 0.0059 1. 0
Li3 Li1+ 2 f 0.75 0.389(2) 0.5 0.0059 1. 0
Ru1 Ru5+ 2 e 0.25 0.85775(16) 0. 0.00028 1. 0
#End of TTdata_243927-ICSD