
#(C) 2018 by FIZ Karlsruhe - Leibniz Institute for Information Infrastructure.  All rights reserved.
data_244141-ICSD
_database_code_ICSD 244141
_audit_creation_date 2018-02-01
_chemical_name_systematic 'Trilithium potassium iron(II) trioxalate'
_chemical_formula_structural 'K Li3 Fe (C2 O4)3'
_chemical_formula_sum 'C6 Fe1 K1 Li3 O12'
_exptl_crystal_density_diffrn 2.23
_cell_measurement_temperature 173.
_publ_section_title

;
KLi3Fe(C2O4)3. A perovskite-like compound with 1:3 ordering at both A and B
sites
;
loop_
_citation_id
_citation_journal_full
_citation_year
_citation_journal_volume
_citation_page_first
_citation_page_last
_citation_journal_id_ASTM
primary 'Dalton Transactions' 2017 46 13349 13351 DTARAF
loop_
_publ_author_name
'Yao, Wenjiao'
'Guo, Yuan-Yuan'
'Lightfoot, Philip'
_cell_length_a 11.3897(8)
_cell_length_b 11.3897(8)
_cell_length_c 15.1197(12)
_cell_angle_alpha 90
_cell_angle_beta 90
_cell_angle_gamma 120
_cell_volume 1698.62
_cell_formula_units_Z 6
_symmetry_space_group_name_H-M 'R -3 c H'
_symmetry_Int_Tables_number 167
_refine_ls_R_factor_all 0.0269
loop_
_symmetry_equiv_pos_site_id
_symmetry_equiv_pos_as_xyz
1 'x-y, -y, -z+1/2'
2 '-x, -x+y, -z+1/2'
3 'y, x, -z+1/2'
4 'x-y, x, -z'
5 'y, -x+y, -z'
6 '-x, -y, -z'
7 '-x+y, y, z+1/2'
8 'x, x-y, z+1/2'
9 '-y, -x, z+1/2'
10 '-x+y, -x, z'
11 '-y, x-y, z'
12 'x, y, z'
13 'x-y+2/3, -y+1/3, -z+5/6'
14 '-x+2/3, -x+y+1/3, -z+5/6'
15 'y+2/3, x+1/3, -z+5/6'
16 'x-y+2/3, x+1/3, -z+1/3'
17 'y+2/3, -x+y+1/3, -z+1/3'
18 '-x+2/3, -y+1/3, -z+1/3'
19 '-x+y+2/3, y+1/3, z+5/6'
20 'x+2/3, x-y+1/3, z+5/6'
21 '-y+2/3, -x+1/3, z+5/6'
22 '-x+y+2/3, -x+1/3, z+1/3'
23 '-y+2/3, x-y+1/3, z+1/3'
24 'x+2/3, y+1/3, z+1/3'
25 'x-y+1/3, -y+2/3, -z+1/6'
26 '-x+1/3, -x+y+2/3, -z+1/6'
27 'y+1/3, x+2/3, -z+1/6'
28 'x-y+1/3, x+2/3, -z+2/3'
29 'y+1/3, -x+y+2/3, -z+2/3'
30 '-x+1/3, -y+2/3, -z+2/3'
31 '-x+y+1/3, y+2/3, z+1/6'
32 'x+1/3, x-y+2/3, z+1/6'
33 '-y+1/3, -x+2/3, z+1/6'
34 '-x+y+1/3, -x+2/3, z+2/3'
35 '-y+1/3, x-y+2/3, z+2/3'
36 'x+1/3, y+2/3, z+2/3'
loop_
_atom_type_symbol
_atom_type_oxidation_number
Fe2+ 2
K1+ 1
O2- -2
C3+ 3
Li1+ 1
loop_
_atom_site_label
_atom_site_type_symbol
_atom_site_symmetry_multiplicity
_atom_site_Wyckoff_symbol
_atom_site_fract_x
_atom_site_fract_y
_atom_site_fract_z
_atom_site_B_iso_or_equiv
_atom_site_occupancy
_atom_site_attached_hydrogens
Fe1 Fe2+ 6 a 0. 0. 0.25 0.0124(3) 1 0
K1 K1+ 6 b 0.6667 0.3333 0.3333 0.0272(4) 1 0
O1 O2- 36 f 0.38490(18) 0.29134(18) 0.31640(12) 0.0174(5) 1 0
O2 O2- 36 f 0.17997(18) 0.10804(17) 0.32579(12) 0.0166(5) 1 0
C1 C3+ 36 f 0.2669(2) 0.2193(3) 0.29054(16) 0.0134(5) 1 0
Li1 Li1+ 18 e 0.4691(5) 0.4691(5) 0.25 0.0180(12) 1 0
loop_
_atom_site_aniso_label
_atom_site_aniso_type_symbol
_atom_site_aniso_U_11
_atom_site_aniso_U_22
_atom_site_aniso_U_33
_atom_site_aniso_U_12
_atom_site_aniso_U_13
_atom_site_aniso_U_23
Fe1 Fe2+ 0.0120(4) 0.0120(4) 0.0132(5) 0.00599(18) 0. 0.
K1 K1+ 0.0251(5) 0.0251(5) 0.0316(9) 0.0125(3) 0. 0.
O1 O2- 0.0165(9) 0.0186(9) 0.0152(8) 0.0073(8) -0.0031(7) 0.0016(7)
O2 O2- 0.0159(9) 0.0159(9) 0.0151(8) 0.0056(7) -0.0011(7) 0.0033(7)
C1 C3+ 0.0152(12) 0.0156(11) 0.0115(11) 0.0093(10) -0.0021(9) -0.0012(9)
Li1 Li1+ 0.018(2) 0.018(2) 0.012(3) 0.004(2) 0.0004(11) -0.0004(11)
#End of TTdata_244141-ICSD