
#(C) 2018 by FIZ Karlsruhe - Leibniz Institute for Information Infrastructure.  All rights reserved.
data_245734-ICSD
_database_code_ICSD 245734
_audit_creation_date 2008-08-01
_chemical_name_systematic
'Tetralithium bis(dioxouranium(VI)) decaoxoditungstate'
_chemical_formula_structural 'Li4 ((U O2)2 (W2 O10))'
_chemical_formula_sum 'Li4 O14 U2 W2'
_exptl_crystal_density_diffrn 6.89
_publ_section_title

;
The crystal structure of Li4 [(U O2)2 (W2 O10)] and crystal chemistry of Li
uranyl tungstates
;
loop_
_citation_id
_citation_journal_full
_citation_year
_citation_journal_volume
_citation_page_first
_citation_page_last
_citation_journal_id_ASTM
primary 'Zeitschrift fuer Kristallographie - New Crystal Structures' 2007 222
391 395 ZKNSFT
loop_
_publ_author_name
'Alekseev, E.V.'
'Krivovichev, S.V.'
'Depmeier, W.'
'Malcherek, T.'
'Suleimanov, E.V.'
'Chuprunov, E.V.'
_cell_length_a 7.3823(3)
_cell_length_b 14.0498(5)
_cell_length_c 10.1887(3)
_cell_angle_alpha 90.
_cell_angle_beta 90.
_cell_angle_gamma 90.
_cell_volume 1056.77
_cell_formula_units_Z 4
_symmetry_space_group_name_H-M 'C m c 21'
_symmetry_Int_Tables_number 36
_refine_ls_R_factor_all 0.0363
loop_
_symmetry_equiv_pos_site_id
_symmetry_equiv_pos_as_xyz
1 'x, -y, z+1/2'
2 '-x, -y, z+1/2'
3 '-x, y, z'
4 'x, y, z'
5 'x+1/2, -y+1/2, z+1/2'
6 '-x+1/2, -y+1/2, z+1/2'
7 '-x+1/2, y+1/2, z'
8 'x+1/2, y+1/2, z'
loop_
_atom_type_symbol
_atom_type_oxidation_number
U6+ 6
W6+ 6
Li1+ 1
O2- -2
loop_
_atom_site_label
_atom_site_type_symbol
_atom_site_symmetry_multiplicity
_atom_site_Wyckoff_symbol
_atom_site_fract_x
_atom_site_fract_y
_atom_site_fract_z
_atom_site_B_iso_or_equiv
_atom_site_occupancy
_atom_site_attached_hydrogens
U1 U6+ 4 a 0 0.03418(4) 0.00064(6) 0.0086(1) 1. 0
U2 U6+ 4 a 0 0.50790(4) -0.03454(7) 0.0086(1) 1. 0
W1 W6+ 8 b 0.25156(6) 0.34996(3) -0.24036(9) 0.0087(1) 1. 0
Li1 Li1+ 4 a 0.5 0.285(2) 0.053(4) 0.0180(7) 1. 0
Li2 Li1+ 8 b 0.249(3) 0.108(2) -0.270(4) 0.0260(7) 1. 0
Li3 Li1+ 8 b 0.102(6) 0.262(4) 0.037(6) 0.0300(1) 0.5 0
O1 O2- 8 b 0.283(1) 0.4836(6) -0.140(1) 0.0120(2) 1. 0
O2 O2- 4 a 0 0.1483(8) -0.088(1) 0.0110(2) 1. 0
O3 O2- 4 a 0 0.3998(9) 0.073(2) 0.0140(3) 1. 0
O4 O2- 4 a 0 -0.0744(9) 0.102(2) 0.0150(3) 1. 0
O5 O2- 4 a 0.5 0.3629(9) -0.301(1) 0.0100(2) 1. 0
O6 O2- 8 b 0.218(1) 0.4364(6) -0.404(1) 0.0140(2) 1. 0
O7 O2- 4 a 0 0.3796(9) -0.193(2) 0.0150(3) 1. 0
O8 O2- 4 a 0 0.6124(9) -0.137(2) 0.0170(3) 1. 0
O9 O2- 8 b 0.203(1) 0.2443(6) -0.328(1) 0.0130(2) 1. 0
O10 O2- 8 b 0.311(1) 0.2977(6) -0.0919(9) 0.0110(2) 1. 0
#End of TTdata_245734-ICSD