
#(C) 2018 by FIZ Karlsruhe - Leibniz Institute for Information Infrastructure.  All rights reserved.
data_245788-ICSD
_database_code_ICSD 245788
_audit_creation_date 2008-08-01
_chemical_name_systematic 'Lithium chromium titanium oxide (1/0.95/0.95/4)'
_chemical_formula_structural 'Li (Cr Ti)0.95 O4'
_chemical_formula_sum 'Cr0.95 Li1 O4 Ti0.95'
_chemical_name_structure_type Li.5TiO2
_exptl_crystal_density_diffrn 3.98
_publ_section_title

;
Synthesis, structure and electrochemical lithium intercalation chemistry of
ramsdellite-type Li Cr Ti O4
;
loop_
_citation_id
_citation_journal_full
_citation_year
_citation_journal_volume
_citation_page_first
_citation_page_last
_citation_journal_id_ASTM
primary 'Zeitschrift fuer Anorganische und Allgemeine Chemie (1950) (DE)' 2008
634 880 886 ZAACAB
loop_
_publ_author_name
'Kuhn, A.'
'Martin, M.'
'Garcia-Alvarado, F.'
_cell_length_a 4.9818(3)
_cell_length_b 9.503(1)
_cell_length_c 2.9263(3)
_cell_angle_alpha 90.
_cell_angle_beta 90.
_cell_angle_gamma 90.
_cell_volume 138.54
_cell_formula_units_Z 2
_symmetry_space_group_name_H-M 'P b n m'
_symmetry_Int_Tables_number 62
_refine_ls_R_factor_all 0.04
loop_
_symmetry_equiv_pos_site_id
_symmetry_equiv_pos_as_xyz
1 '-x+1/2, y+1/2, z'
2 'x, y, -z+1/2'
3 'x+1/2, -y+1/2, z+1/2'
4 '-x, -y, -z'
5 'x+1/2, -y+1/2, -z'
6 '-x, -y, z+1/2'
7 '-x+1/2, y+1/2, -z+1/2'
8 'x, y, z'
loop_
_atom_type_symbol
_atom_type_oxidation_number
Li1+ 1
Cr3+ 3.15
Ti4+ 4.2
O2- -2
loop_
_atom_site_label
_atom_site_type_symbol
_atom_site_symmetry_multiplicity
_atom_site_Wyckoff_symbol
_atom_site_fract_x
_atom_site_fract_y
_atom_site_fract_z
_atom_site_B_iso_or_equiv
_atom_site_occupancy
_atom_site_attached_hydrogens
Li1 Li1+ 4 c -0.058 0.467 0.25 . 0.5 0
Cr1 Cr3+ 4 c -0.0194(12) 0.1399(4) 0.25 0.4(4) 0.475(7) 0
Ti1 Ti4+ 4 c -0.0194(12) 0.1399(4) 0.25 0.4(4) 0.475(7) 0
O1 O2- 4 c 0.689(4) 0.2816(14) 0.25 3.2(1) 1. 0
O2 O2- 4 c 0.202(4) -0.0407(14) 0.25 3.2(1) 1. 0
#End of TTdata_245788-ICSD