
#(C) 2018 by FIZ Karlsruhe - Leibniz Institute for Information Infrastructure.  All rights reserved.
data_247218-ICSD
_database_code_ICSD 247218
_audit_creation_date 2010-08-01
_chemical_name_systematic 'Hexalithium copper(II) decaoxotetraborate'
_chemical_formula_structural 'Li6 Cu B4 O10'
_chemical_formula_sum 'B4 Cu1 Li6 O10'
_chemical_name_structure_type Li6CuB4O10
_exptl_crystal_density_diffrn 2.63
_cell_measurement_temperature 100.
_publ_section_title

;
Structural investigation of quaternary copper oxides with low dimensional
magnetic properties
;
loop_
_citation_id
_citation_journal_full
_citation_year
_citation_journal_volume
_citation_page_first
_citation_page_last
_citation_journal_id_ASTM
primary 'Dissertation Rheinisch-Westfaelische Hochschule Aachen' 2003 2003 1 132
DIAACP
loop_
_publ_author_name
'Sparta, K.'
_cell_length_a 4.791(10)
_cell_length_b 9.211(10)
_cell_length_c 13.826(2)
_cell_angle_alpha 104.04
_cell_angle_beta 95.82
_cell_angle_gamma 96.26
_cell_volume 583.19
_cell_formula_units_Z 3
_symmetry_space_group_name_H-M 'P -1'
_symmetry_Int_Tables_number 2
_refine_ls_R_factor_all 0.0364
loop_
_symmetry_equiv_pos_site_id
_symmetry_equiv_pos_as_xyz
1 '-x, -y, -z'
2 'x, y, z'
loop_
_atom_type_symbol
_atom_type_oxidation_number
Cu2+ 2
B3+ 3
Li1+ 1
O2- -2
loop_
_atom_site_label
_atom_site_type_symbol
_atom_site_symmetry_multiplicity
_atom_site_Wyckoff_symbol
_atom_site_fract_x
_atom_site_fract_y
_atom_site_fract_z
_atom_site_B_iso_or_equiv
_atom_site_occupancy
_atom_site_attached_hydrogens
Cu1 Cu2+ 1 a 0 0 0 . 1. 0
Cu2 Cu2+ 2 i 0.29745(5) 0.31522(3) 0.67027(2) . 1. 0
B1 B3+ 2 i 0.0824(5) 0.4519(3) 0.3316(2) 0.0052(4) 1. 0
B2 B3+ 2 i 0.1741(5) 0.6855(3) 0.4798(2) 0.0046(4) 1. 0
B3 B3+ 2 i 0.2012(5) 0.6594(3) 0.1838(2) 0.0048(4) 1. 0
B4 B3+ 2 i 0.2734(5) 0.8936(3) 0.3321(2) 0.0548(4) 1. 0
B5 B3+ 2 i 0.4144(5) 0.7740(3) 0.9940(2) 0.0046(4) 1. 0
B6 B3+ 2 i 0.4616(5) -0.0013(3) 0.1466(2) 0.0049(4) 1. 0
Li1 Li1+ 2 i 0.0431(8) 0.8045(4) 0.8145(3) 0.0084(7) 1. 0
Li2 Li1+ 2 i 0.0632(8) 0.3795(5) 0.0332(3) 0.0095(7) 1. 0
Li3 Li1+ 2 i 0.0880(8) 0.0805(5) 0.8102(3) 0.0106(7) 1. 0
Li4 Li1+ 2 i 0.2133(8) 0.9391(5) 0.6312(3) 0.0090(7) 1. 0
Li5 Li1+ 2 i 0.3291(8) 0.1394(4) 0.4870(3) 0.0078(7) 1. 0
Li6 Li1+ 2 i 0.3708(8) 0.4316(4) 0.9133(3) 0.0083(7) 1. 0
Li7 Li1+ 2 i 0.3809(8) 0.1706(4) 0.3107(3) 0.0087(7) 1. 0
Li8 Li1+ 2 i 0.4402(8) 0.5713(5) 0.6031(3) 0.0110(7) 1. 0
Li9 Li1+ 2 i 0.4966(8) 0.4038(4) 0.1959(3) 0.0093(7) 1. 0
O1 O2- 2 i 0.0286(3) 0.5895(2) 0.0999(1) 0.0049(3) 1. 0
O2 O2- 2 i 0.0584(3) 0.2543(2) 0.5464(1) 0.0066(3) 1. 0
O3 O2- 2 i 0.1117(3) 0.7834(2) 0.2504(1) 0.0046(3) 1. 0
O4 O2- 2 i 0.1621(3) 0.8069(2) 0.9528(1) 0.0056(3) 1. 0
O5 O2- 2 i 0.1603(3) 0.0233(2) 0.3571(1) 0.0048(3) 1. 0
O6 O2- 2 i 0.1866(3) 0.5237(2) 0.6966(1) 0.0052(3) 1. 0
O7 O2- 2 i 0.1917(3) 0.0322(2) 0.1323(1) 0.0040(3) 1. 0
O8 O2- 2 i 0.2190(3) 0.3411(2) 0.2812(1) 0.0047(3) 1. 0
O9 O2- 2 i 0.2420(3) 0.5464(2) 0.4206(1) 0.0051(3) 1. 0
O10 O2- 2 i 0.3589(3) 0.7504(2) 0.5630(1) 0.0051(3) 1. 0
O11 O2- 2 i 0.3508(3) 0.9267(2) 0.7731(1) 0.0045(3) 1. 0
O12 O2- 2 i 0.4353(3) 0.1216(2) 0.9196(1) 0.0048(3) 1. 0
O13 O2- 2 i 0.4704(3) 0.1289(2) 0.6254(1) 0.0045(3) 1. 0
O14 O2- 2 i 0.4710(3) 0.3533(2) 0.0425(1) 0.0051(3) 1. 0
O15 O2- 2 i 0.4599(3) 0.6159(2) 0.2066(1) 0.0039(3) 1. 0
loop_
_atom_site_aniso_label
_atom_site_aniso_type_symbol
_atom_site_aniso_U_11
_atom_site_aniso_U_22
_atom_site_aniso_U_33
_atom_site_aniso_U_12
_atom_site_aniso_U_13
_atom_site_aniso_U_23
Cu1 Cu2+ 0.0041(2) 0.0054(2) 0.0018(2) 0.0022(1) -0.0004(1) 0.0001(1)
Cu2 Cu2+ 0.0038(1) 0.0051(1) 0.0018(1) 0.0023(1) -0.0009(1) -0.0002(1)
#End of TTdata_247218-ICSD