
#(C) 2018 by FIZ Karlsruhe - Leibniz Institute for Information Infrastructure.  All rights reserved.
data_248311-ICSD
_database_code_ICSD 248311
_audit_creation_date 2014-08-01
_chemical_name_systematic 'Dilithium tetragermanate'
_chemical_formula_structural 'Li2 Ge4 O9'
_chemical_formula_sum 'Ge4 Li2 O9'
_exptl_crystal_density_diffrn 4.37
_cell_measurement_temperature 150.
_publ_section_title 'The polar phase of Li2 Ge4 O9 at 298, 150 and 90 K'
loop_
_citation_id
_citation_journal_full
_citation_year
_citation_journal_volume
_citation_page_first
_citation_page_last
_citation_journal_id_ASTM
primary 'Acta Crystallographica, Section C: Crystal Structure Communications'
2013 69 1091 1095 ACSCEE
loop_
_publ_author_name
'Redhammer, Guenther J.'
'Tippelt, Gerold'
_cell_length_a 9.3081(6)
_cell_length_b 4.6267(3)
_cell_length_c 15.8298(11)
_cell_angle_alpha 90
_cell_angle_beta 90
_cell_angle_gamma 90
_cell_volume 681.72
_cell_formula_units_Z 4
_symmetry_space_group_name_H-M 'P 21 c a'
_symmetry_Int_Tables_number 29
_refine_ls_R_factor_all 0.0153
loop_
_symmetry_equiv_pos_site_id
_symmetry_equiv_pos_as_xyz
1 'x, -y, z+1/2'
2 'x+1/2, y, -z+1/2'
3 'x+1/2, -y, -z'
4 'x, y, z'
loop_
_atom_type_symbol
_atom_type_oxidation_number
Li1+ 1
Ge4+ 4
O2- -2
loop_
_atom_site_label
_atom_site_type_symbol
_atom_site_symmetry_multiplicity
_atom_site_Wyckoff_symbol
_atom_site_fract_x
_atom_site_fract_y
_atom_site_fract_z
_atom_site_B_iso_or_equiv
_atom_site_occupancy
_atom_site_attached_hydrogens
Li1 Li1+ 4 a 0.4677(7) 0.4512(10) 0.2644(4) 0.0125(12) 1 0
Li2 Li1+ 4 a 0.2706(6) 0.5785(13) 0.4764(4) 0.0222(13) 1 0
Ge1 Ge4+ 4 a 0.23544(8) 0.48602(5) 0.155881(15) 0.00472(7) 1 0
Ge2 Ge4+ 4 a 0.23406(9) 0.99080(5) 0.295800(15) 0.00504(7) 1 0
Ge3 Ge4+ 4 a 0.52526(4) 1.00156(5) 0.40174(3) 0.00538(10) 1 0
Ge4 Ge4+ 4 a 0.44492(3) 1.02095(6) 0.59443(2) 0.00508(10) 1 0
O1 O2- 4 a 0.0718(3) 0.7110(4) 0.16157(12) 0.0064(4) 1 0
O2 O2- 4 a 0.1530(3) 0.2581(4) 0.06947(13) 0.0073(4) 1 0
O3 O2- 4 a 0.3234(3) 0.7022(4) 0.07140(14) 0.0071(4) 1 0
O4 O2- 4 a 0.3968(3) 0.2469(4) 0.16474(14) 0.0071(4) 1 0
O5 O2- 4 a 0.3170(3) 0.7109(4) 0.24156(14) 0.0072(4) 1 0
O6 O2- 4 a 0.1449(3) 0.2489(4) 0.23675(14) 0.0074(4) 1 0
O7 O2- 4 a 0.3709(3) 1.1674(4) 0.35604(13) 0.0070(4) 1 0
O8 O2- 4 a 0.1162(3) 0.8447(4) 0.37349(13) 0.0094(4) 1 0
O9 O2- 4 a 0.4616(2) 0.8421(3) 0.49602(13) 0.0081(4) 1 0
loop_
_atom_site_aniso_label
_atom_site_aniso_type_symbol
_atom_site_aniso_U_11
_atom_site_aniso_U_22
_atom_site_aniso_U_33
_atom_site_aniso_U_12
_atom_site_aniso_U_13
_atom_site_aniso_U_23
Li1 Li1+ 0.006(3) 0.015(2) 0.017(4) -0.001(2) -0.001(2) -0.001(2)
Li2 Li1+ 0.020(3) 0.027(3) 0.020(3) -0.002(2) 0.012(2) 0.012(2)
Ge1 Ge4+ 0.00448(13) 0.00538(11) 0.00431(13) -0.00012(16) 0.0002(2) -0.00008(9)
Ge2 Ge4+ 0.00473(12) 0.00570(11) 0.00468(13) 0.00034(13) -0.0005(2) 0.00009(9)
Ge3 Ge4+ 0.0049(2) 0.00607(18) 0.0051(2) -0.00011(10) 0.00016(17) -0.00024(9)
Ge4 Ge4+ 0.0051(2) 0.00578(16) 0.0043(2) 0.0002(2) 0.00010(18) 0.00018(9)
O1 O2- 0.0057(12) 0.0070(8) 0.0065(10) 0.0035(8) 0.0000(8) 0.0013(7)
O2 O2- 0.0072(11) 0.0087(8) 0.0060(10) -0.0010(8) -0.0004(8) -0.0014(7)
O3 O2- 0.0078(12) 0.0073(8) 0.0062(10) -0.0008(8) -0.0004(8) -0.0001(7)
O4 O2- 0.0077(11) 0.0075(9) 0.0062(11) 0.0010(8) -0.0003(8) -0.0018(7)
O5 O2- 0.0083(12) 0.0065(8) 0.0066(10) 0.0010(8) -0.0004(8) -0.0014(7)
O6 O2- 0.0054(11) 0.0073(8) 0.0094(11) 0.0014(7) -0.0003(8) 0.0038(7)
O7 O2- 0.0040(10) 0.0082(9) 0.0089(11) 0.0002(7) -0.0017(8) -0.0005(7)
O8 O2- 0.0075(11) 0.0097(9) 0.0109(11) 0.0010(7) 0.0017(9) 0.0028(8)
O9 O2- 0.0094(12) 0.0094(8) 0.0056(9) -0.0005(8) 0.0008(9) -0.0004(7)
#End of TTdata_248311-ICSD