
#(C) 2018 by FIZ Karlsruhe - Leibniz Institute for Information Infrastructure.  All rights reserved.
data_249137-ICSD
_database_code_ICSD 249137
_audit_creation_date 2008-02-01
_audit_update_record 2011-02-01
_chemical_name_systematic 'Lithium dioxobis(trioxoiodato(V))vanadate(V)'
_chemical_formula_structural 'Li (V O2 (I O3)2)'
_chemical_formula_sum 'I2 Li1 O8 V1'
_exptl_crystal_density_diffrn 4.62
_cell_measurement_temperature 290.
_publ_section_title
'Lithium dioxobis[trioxoiodato(V)]-vanadate, Li [V O2 (I O3)2]'
loop_
_citation_id
_citation_journal_full
_citation_year
_citation_journal_volume
_citation_page_first
_citation_page_last
_citation_journal_id_ASTM
primary 'Acta Crystallographica, Section C: Crystal Structure Communications'
2006 62 i76 i78 ACSCEE
loop_
_publ_author_name
'Chen Xue An'
'Zhang Li'
'Chang Xin An'
'Zang Hegui'
'Xiao Wei Qiang'
_cell_length_a 9.994(2)
_cell_length_b 5.2020(10)
_cell_length_c 13.798(3)
_cell_angle_alpha 90.
_cell_angle_beta 118.28(3)
_cell_angle_gamma 90.
_cell_volume 631.72
_cell_formula_units_Z 4
_symmetry_space_group_name_H-M 'P 1 21/c 1'
_symmetry_Int_Tables_number 14
_refine_ls_R_factor_all 0.0369
loop_
_symmetry_equiv_pos_site_id
_symmetry_equiv_pos_as_xyz
1 'x, -y+1/2, z+1/2'
2 '-x, -y, -z'
3 '-x, y+1/2, -z+1/2'
4 'x, y, z'
loop_
_atom_type_symbol
_atom_type_oxidation_number
I5+ 5
V5+ 5
O2- -2
Li1+ 1
loop_
_atom_site_label
_atom_site_type_symbol
_atom_site_symmetry_multiplicity
_atom_site_Wyckoff_symbol
_atom_site_fract_x
_atom_site_fract_y
_atom_site_fract_z
_atom_site_B_iso_or_equiv
_atom_site_occupancy
_atom_site_attached_hydrogens
I1 I5+ 4 e 0.57929(3) 0.30811(6) 0.67238(2) 0.00600(8) 1 0
I2 I5+ 4 e 0.07444(3) 0.32376(6) 0.66973(2) 0.00558(8) 1 0
V1 V5+ 4 e 0.26661(10) 0.77925(16) 0.55011(7) 0.00729(14) 1 0
O1 O2- 4 e 0.6885(5) 0.5834(9) 0.6730(4) 0.0137(7) 1 0
O2 O2- 4 e 0.3883(4) 0.4125(7) 0.5782(3) 0.0103(6) 1 0
O3 O2- 4 e 0.5714(4) 0.3814(8) 0.8005(3) 0.0089(6) 1 0
O4 O2- 4 e 0.0777(5) 0.4328(8) 0.7941(3) 0.0112(6) 1 0
O5 O2- 4 e 0.1877(5) 0.5828(9) 0.6584(3) 0.0140(7) 1 0
O6 O2- 4 e -0.1151(4) 0.4451(7) 0.5678(3) 0.0100(6) 1 0
O7 O2- 4 e 0.1511(5) 1.0191(8) 0.5299(3) 0.0128(7) 1 0
O8 O2- 4 e 0.3593(5) 0.8869(9) 0.4864(3) 0.0140(7) 1 0
Li1 Li1+ 4 e 0.2400(9) 0.2272(16) 0.4400(7) 0.0023(12) 1 0
loop_
_atom_site_aniso_label
_atom_site_aniso_type_symbol
_atom_site_aniso_U_11
_atom_site_aniso_U_22
_atom_site_aniso_U_33
_atom_site_aniso_U_12
_atom_site_aniso_U_13
_atom_site_aniso_U_23
I1 I5+ 0.00596(13) 0.00648(13) 0.00548(12) 0.00022(8) 0.00264(9) -0.00006(8)
I2 I5+ 0.00557(12) 0.00554(12) 0.00575(12) -0.00056(8) 0.00276(9) -0.00036(8)
V1 V5+ 0.0082(3) 0.0062(3) 0.0067(3) -0.0006(2) 0.0028(3) 0.0002(2)
O1 O2- 0.0121(16) 0.0151(18) 0.0156(17) -0.0053(14) 0.0079(14) -0.0023(14)
O2 O2- 0.0094(14) 0.0070(14) 0.0098(14) 0.0005(12) 0.0007(12) -0.0017(12)
O3 O2- 0.0108(14) 0.0114(15) 0.0058(13) 0.0022(12) 0.0050(12) -0.0010(12)
O4 O2- 0.0157(16) 0.0110(16) 0.0083(14) 0.0036(13) 0.0068(13) -0.0023(12)
O5 O2- 0.0119(16) 0.0171(18) 0.0132(16) -0.0073(14) 0.0060(14) 0.0007(14)
O6 O2- 0.0080(14) 0.0070(14) 0.0101(14) 0.0000(12) 0.0003(12) -0.0009(12)
O7 O2- 0.0108(15) 0.0118(16) 0.0143(16) 0.0029(13) 0.0047(13) -0.0018(13)
O8 O2- 0.0168(17) 0.0139(17) 0.0141(16) -0.0016(14) 0.0096(14) -0.0011(14)
#End of TTdata_249137-ICSD