
#(C) 2018 by FIZ Karlsruhe - Leibniz Institute for Information Infrastructure.  All rights reserved.
data_249325-ICSD
_database_code_ICSD 249325
_audit_creation_date 2008-02-01
_chemical_name_systematic
'Lithium tris(dioxidovanadium(V)) bis(trioxidotellurium(IV))'
_chemical_formula_structural 'Li (V O2)3 (Te O3)2'
_chemical_formula_sum 'Li1 O12 Te2 V3'
_exptl_crystal_density_diffrn 4.37
_cell_measurement_temperature 120.
_publ_section_title 'Li (V O2)3 (Te O3)2'
loop_
_citation_id
_citation_journal_full
_citation_year
_citation_journal_volume
_citation_page_first
_citation_page_last
_citation_journal_id_ASTM
primary 'Acta Crystallographica, Section C: Crystal Structure Communications'
2007 63 i57 i59 ACSCEE
loop_
_publ_author_name
'Johnston, M.G.'
'Harrison, W.T.A.'
_cell_length_a 6.2370(4)
_cell_length_b 7.2005(5)
_cell_length_c 10.7066(8)
_cell_angle_alpha 92.868(4)
_cell_angle_beta 92.743(5)
_cell_angle_gamma 105.524(4)
_cell_volume 461.77
_cell_formula_units_Z 2
_symmetry_space_group_name_H-M 'P -1'
_symmetry_Int_Tables_number 2
_refine_ls_R_factor_all 0.0435
loop_
_symmetry_equiv_pos_site_id
_symmetry_equiv_pos_as_xyz
1 '-x, -y, -z'
2 'x, y, z'
loop_
_atom_type_symbol
_atom_type_oxidation_number
Li1+ 1
V5+ 5
Te4+ 4
O2- -2
loop_
_atom_site_label
_atom_site_type_symbol
_atom_site_symmetry_multiplicity
_atom_site_Wyckoff_symbol
_atom_site_fract_x
_atom_site_fract_y
_atom_site_fract_z
_atom_site_B_iso_or_equiv
_atom_site_occupancy
_atom_site_attached_hydrogens
Li1 Li1+ 2 i 0.210(2) 0.2067(17) -0.1027(11) 0.012(3) 1 0
V1 V5+ 2 i 0.62115(19) 0.19341(16) 0.41698(10) 0.0064(3) 1 0
V2 V5+ 2 i 0.6617(2) 0.20350(17) 0.75112(11) 0.0070(3) 1 0
V3 V5+ 2 i 0.6156(2) 0.22364(18) 0.08061(11) 0.0090(3) 1 0
Te1 Te4+ 2 i 0.17387(7) 0.21515(6) 0.59701(4) 0.00690(16) 1 0
Te2 Te4+ 2 i 0.13180(7) 0.18355(6) 0.21170(4) 0.00772(16) 1 0
O1 O2- 2 i 0.1459(8) -0.0551(7) 0.5944(4) 0.0084(10) 1 0
O2 O2- 2 i 0.3658(8) 0.2691(7) 0.4643(4) 0.0084(10) 1 0
O3 O2- 2 i 0.3794(7) 0.2694(7) 0.7386(4) 0.0092(10) 1 0
O4 O2- 2 i -0.1411(8) 0.1208(7) 0.1142(4) 0.0108(11) 1 0
O5 O2- 2 i 0.3000(8) 0.2305(7) 0.0707(4) 0.0098(10) 1 0
O6 O2- 2 i 0.0930(8) -0.0875(7) 0.2115(4) 0.0087(10) 1 0
O7 O2- 2 i 0.7975(8) 0.3982(7) 0.4247(4) 0.0117(11) 1 0
O8 O2- 2 i 0.6218(7) 0.1153(7) 0.5929(4) 0.0094(10) 1 0
O9 O2- 2 i 0.8241(8) 0.4144(7) 0.7561(4) 0.0139(11) 1 0
O10 O2- 2 i 0.5791(8) 0.1493(7) 0.9206(4) 0.0109(11) 1 0
O11 O2- 2 i 0.5282(8) 0.1550(7) 0.2546(4) 0.0095(10) 1 0
O12 O2- 2 i 0.7362(8) 0.4485(8) 0.0910(5) 0.0158(11) 1 0
loop_
_atom_site_aniso_label
_atom_site_aniso_type_symbol
_atom_site_aniso_U_11
_atom_site_aniso_U_22
_atom_site_aniso_U_33
_atom_site_aniso_U_12
_atom_site_aniso_U_13
_atom_site_aniso_U_23
Li1 Li1+ 0.010(3) 0.014(4) 0.011(3) 0.000(3) -0.002(3) 0.001(3)
V1 V5+ 0.0078(6) 0.0059(6) 0.0063(6) 0.0036(5) 0.0001(5) 0.0001(5)
V2 V5+ 0.0075(6) 0.0079(6) 0.0070(6) 0.0046(5) 0.0011(5) 0.0004(4)
V3 V5+ 0.0092(6) 0.0143(7) 0.0054(6) 0.0060(5) 0.0007(5) 0.0018(5)
Te1 Te4+ 0.0085(3) 0.0065(3) 0.0067(3) 0.00394(19) 0.00026(18) -0.00020(18)
Te2 Te4+ 0.0102(3) 0.0074(3) 0.0068(3) 0.00451(19) 0.00105(18) 0.00044(18)
O1 O2- 0.011(2) 0.007(2) 0.009(2) 0.005(2) -0.0018(19) -0.0024(19)
O2 O2- 0.0092(17) 0.0094(18) 0.0075(17) 0.0041(14) 0.0034(14) -0.0004(14)
O3 O2- 0.0098(17) 0.0115(18) 0.0068(17) 0.0046(14) -0.0011(14) -0.0025(14)
O4 O2- 0.012(3) 0.015(3) 0.007(2) 0.008(2) 0.000(2) -0.004(2)
O5 O2- 0.011(2) 0.012(3) 0.008(2) 0.007(2) 0.001(2) -0.002(2)
O6 O2- 0.011(2) 0.008(2) 0.008(2) 0.004(2) -0.0005(19) -0.0004(19)
O7 O2- 0.011(2) 0.010(3) 0.015(3) 0.004(2) 0.002(2) 0.000(2)
O8 O2- 0.010(2) 0.010(3) 0.009(2) 0.003(2) 0.000(2) 0.0011(19)
O9 O2- 0.014(3) 0.016(3) 0.013(3) 0.007(2) 0.000(2) -0.003(2)
O10 O2- 0.016(3) 0.014(3) 0.005(2) 0.009(2) 0.0010(19) 0.0029(19)
O11 O2- 0.010(2) 0.014(3) 0.005(2) 0.004(2) 0.0005(19) 0.002(2)
O12 O2- 0.016(3) 0.016(3) 0.017(3) 0.008(2) 0.003(2) 0.000(2)
#End of TTdata_249325-ICSD