
#(C) 2018 by FIZ Karlsruhe - Leibniz Institute for Information Infrastructure.  All rights reserved.
data_249680-ICSD
_database_code_ICSD 249680
_audit_creation_date 2009-02-01
_chemical_name_systematic 'Dilithium calcium bis(deuteroamide)'
_chemical_formula_structural 'Li1.7 Ca (N D)2'
_chemical_formula_sum 'D2 Ca1 Li1.7 N2'
_chemical_name_structure_type Li2Ca(NH)2
_exptl_crystal_density_diffrn 2.13
_cell_measurement_temperature 295.
_publ_section_title

;
Structure of ternary imide Li2 Ca (N H)2 and hydrogen storage mechanisms in
amide-hydride system
;
loop_
_citation_id
_citation_journal_full
_citation_year
_citation_journal_volume
_citation_page_first
_citation_page_last
_citation_journal_id_ASTM
primary 'Journal of the American Chemical Society' 2008 130 6515 6522 JACSAT
loop_
_publ_author_name
'Wu Hui'
_cell_length_a 3.56787(7)
_cell_length_b 3.56787(7)
_cell_length_c 5.9482(2)
_cell_angle_alpha 90.
_cell_angle_beta 90.
_cell_angle_gamma 120.
_cell_volume 65.57
_cell_formula_units_Z 1
_symmetry_space_group_name_H-M 'P -3 m 1'
_symmetry_Int_Tables_number 164
loop_
_symmetry_equiv_pos_site_id
_symmetry_equiv_pos_as_xyz
1 'x-y, -y, -z'
2 '-x, -x+y, -z'
3 'y, x, -z'
4 'x-y, x, -z'
5 'y, -x+y, -z'
6 '-x, -y, -z'
7 '-x+y, y, z'
8 'x, x-y, z'
9 '-y, -x, z'
10 '-x+y, -x, z'
11 '-y, x-y, z'
12 'x, y, z'
loop_
_atom_type_symbol
_atom_type_oxidation_number
Ca2+ 2
Li1+ 1
N3- -3
D1+ 1
loop_
_atom_site_label
_atom_site_type_symbol
_atom_site_symmetry_multiplicity
_atom_site_Wyckoff_symbol
_atom_site_fract_x
_atom_site_fract_y
_atom_site_fract_z
_atom_site_B_iso_or_equiv
_atom_site_occupancy
_atom_site_attached_hydrogens
Ca1 Ca2+ 1 a 0. 0. 0. 0.01384 1. 0
Li1 Li1+ 2 d 0.3333 0.6667 0.6370(1) 0.03214 0.86(4) 0
N1 N3- 2 d 0.3333 0.6667 0.2496(2) 0.0119 1. 0
D1 D1+ 6 i 0.0998(2) 0.5499(1) 0.3190(1) 0.07379 0.34(1) 0
loop_
_atom_site_aniso_label
_atom_site_aniso_type_symbol
_atom_site_aniso_U_11
_atom_site_aniso_U_22
_atom_site_aniso_U_33
_atom_site_aniso_U_12
_atom_site_aniso_U_13
_atom_site_aniso_U_23
Ca1 Ca2+ 0.0121(11) 0.0121(11) 0.0174(25) 0.0060(5) 0. 0.
Li1 Li1+ 0.031(4) 0.031(4) 0.035(7) 0.0153(19) 0. 0.
N1 N3- 0.0138(5) 0.0138(5) 0.0082(7) 0.00688(23) 0. 0.
D1 D1+ 0.070(4) 0.084(4) 0.063(5) 0.0350(18) 0.0186(29) 0.0093(14)
#End of TTdata_249680-ICSD