
#(C) 2018 by FIZ Karlsruhe - Leibniz Institute for Information Infrastructure.  All rights reserved.
data_250066-ICSD
_database_code_ICSD 250066
_audit_creation_date 2004-04-01
_chemical_name_systematic
'Lithium germanium phosphorus oxide (3.05/0.31/0.69/4)'
_chemical_formula_structural 'Li3.05 (Ge0.31 P0.69 O4)'
_chemical_formula_sum 'Ge0.31 Li3.05 O4 P0.69'
_exptl_crystal_density_diffrn 2.57
_publ_section_title

;
Atomic structure and mechanism of superionic conductivity of Li3.31 Ge0.31
P0.69 O4 single crystals
;
loop_
_citation_id
_citation_journal_full
_citation_year
_citation_journal_volume
_citation_page_first
_citation_page_last
_citation_journal_id_ASTM
primary Kristallografiya 2003 48 802 807 KRISAJ
loop_
_publ_author_name
'Rabadanov, M.Kh.'
'Pietraszko, A.'
'Kireev, V.V.'
'Ivanov Shits, A.K.'
'Simonov, V.I.'
_cell_length_a 10.690(1)
_cell_length_b 6.1946(7)
_cell_length_c 5.0266(6)
_cell_angle_alpha 90
_cell_angle_beta 90
_cell_angle_gamma 90
_cell_volume 332.86
_cell_formula_units_Z 4
_symmetry_space_group_name_H-M 'P n m a'
_symmetry_Int_Tables_number 62
_refine_ls_R_factor_all 0.0108
loop_
_symmetry_equiv_pos_site_id
_symmetry_equiv_pos_as_xyz
1 'x+1/2, y, -z+1/2'
2 'x, -y+1/2, z'
3 '-x+1/2, y+1/2, z+1/2'
4 '-x, -y, -z'
5 '-x+1/2, -y, z+1/2'
6 '-x, y+1/2, -z'
7 'x+1/2, -y+1/2, -z+1/2'
8 'x, y, z'
loop_
_atom_type_symbol
_atom_type_oxidation_number
Li1+ 1
P5+ 5
Ge4+ 4
Li1+ 1
O2- -2
loop_
_atom_site_label
_atom_site_type_symbol
_atom_site_symmetry_multiplicity
_atom_site_Wyckoff_symbol
_atom_site_fract_x
_atom_site_fract_y
_atom_site_fract_z
_atom_site_B_iso_or_equiv
_atom_site_occupancy
_atom_site_attached_hydrogens
Li1 Li1+ 8 d 0.1643(2) -0.0027(3) 0.3131(5) . 0.850(7) 0
Li2 Li1+ 4 c 0.0742(3) 0.25 0.6885(7) . 0.830(5) 0
P1 P5+ 4 c 0.41280(2) 0.25 0.32194(4) . 0.69 0
Ge1 Ge4+ 4 c 0.41280(2) 0.25 0.32194(4) . 0.31 0
Li3 Li1+ 8 d 0.171(2) 0.037(3) 0.149(4) . 0.102(5) 0
Li4 Li1+ 4 c 0.095(4) 0.25 0.844(8) . 0.082(4) 0
Li5 Li1+ 4 c 0.210(3) 0.25 0.009(8) 0.09(1) 0.063(6) 0
Li6 Li1+ 8 d 0.021(5) -0.046(7) 0.428(9) 0.04(1) 0.088(6) 0
O1 O2- 8 d 0.33968(6) 0.0363(1) 0.2141(1) . 1. 0
O2 O2- 4 c 0.0556(2) 0.25 0.2834(3) . 1. 0
O3 O2- 4 c 0.0885(1) 0.75 0.1452(2) . 1. 0
loop_
_atom_site_aniso_label
_atom_site_aniso_type_symbol
_atom_site_aniso_U_11
_atom_site_aniso_U_22
_atom_site_aniso_U_33
_atom_site_aniso_U_12
_atom_site_aniso_U_13
_atom_site_aniso_U_23
Li1 Li1+ 0.022(1) 0.021(1) 0.028(1) -0.0007(7) 0.005(1) -0.004(1)
Li2 Li1+ 0.027(2) 0.021(1) 0.039(2) 0. 0.012(2) 0.
P1 P5+ 0.0088(1) 0.00970(8) 0.0114(1) 0. -0.0011(1) 0.
Ge1 Ge4+ 0.0088(1) 0.00970(8) 0.0114(1) 0. -0.0011(1) 0.
Li3 Li1+ 0.022(1) 0.021(1) 0.028(1) -0.0007(7) 0.005(1) -0.004(1)
Li4 Li1+ 0.027(2) 0.021(1) 0.039(2) 0. 0.012(2) 0.
O1 O2- 0.0339(3) 0.0374(3) 0.0344(4) 0.0027(3) 0.0003(3) 0.0016(3)
O2 O2- 0.041(1) 0.025(1) 0.037(1) 0. -0.002(1) 0.
O3 O2- 0.0418(4) 0.0258(4) 0.0460(5) 0. 0.0064(5) 0.
#End of TTdata_250066-ICSD