
#(C) 2018 by FIZ Karlsruhe - Leibniz Institute for Information Infrastructure.  All rights reserved.
data_250486-ICSD
_database_code_ICSD 250486
_audit_creation_date 2014-02-01
_chemical_name_systematic 'Tetralithium hypodiphosphate hexahydrate'
_chemical_formula_structural 'Li4 P2 O6 (H2 O)6'
_chemical_formula_sum 'H12 Li4 O12 P2'
_exptl_crystal_density_diffrn 1.91
_cell_measurement_temperature 85.
_publ_section_title

;
Electron density distribution in tetralithium hypodiphosphate hexahydrate, Li4
P2 O6 * 6 H2 O
;
loop_
_citation_id
_citation_journal_full
_citation_year
_citation_journal_volume
_citation_page_first
_citation_page_last
_citation_journal_id_ASTM
primary

;
Acta Crystallographica, Section B: Structural Science, Crystal Engineering and
Materials
; 2013 69 344 355 ACSBDA
loop_
_publ_author_name
'Kinzhybalo, Vasyl'
'Mermer, Adrian'
'Lis, Tadeusz'
'Starynowicz, Przemyslaw'
_cell_length_a 12.700(3)
_cell_length_b 12.700(3)
_cell_length_c 12.700(3)
_cell_angle_alpha 90
_cell_angle_beta 90
_cell_angle_gamma 90
_cell_volume 2048.38
_cell_formula_units_Z 8
_symmetry_space_group_name_H-M 'I a -3'
_symmetry_Int_Tables_number 206
_refine_ls_R_factor_all 0.014
loop_
_symmetry_equiv_pos_site_id
_symmetry_equiv_pos_as_xyz
1 '-z, x, y+1/2'
2 'z, x+1/2, -y'
3 'z+1/2, -x, y'
4 '-z, -x, -y'
5 'y+1/2, -z, x'
6 '-y, z, x+1/2'
7 'y, z+1/2, -x'
8 '-y, -z, -x'
9 'x, y+1/2, -z'
10 'x+1/2, -y, z'
11 '-x, y, z+1/2'
12 '-x, -y, -z'
13 'z, -x, -y+1/2'
14 '-z, -x+1/2, y'
15 '-z+1/2, x, -y'
16 'z, x, y'
17 '-y+1/2, z, -x'
18 'y, -z, -x+1/2'
19 '-y, -z+1/2, x'
20 'y, z, x'
21 '-x, -y+1/2, z'
22 '-x+1/2, y, -z'
23 'x, -y, -z+1/2'
24 'x, y, z'
25 '-z+1/2, x+1/2, y'
26 'z+1/2, x, -y+1/2'
27 'z, -x+1/2, y+1/2'
28 '-z+1/2, -x+1/2, -y+1/2'
29 'y, -z+1/2, x+1/2'
30 '-y+1/2, z+1/2, x'
31 'y+1/2, z, -x+1/2'
32 '-y+1/2, -z+1/2, -x+1/2'
33 'x+1/2, y, -z+1/2'
34 'x, -y+1/2, z+1/2'
35 '-x+1/2, y+1/2, z'
36 '-x+1/2, -y+1/2, -z+1/2'
37 'z+1/2, -x+1/2, -y'
38 '-z+1/2, -x, y+1/2'
39 '-z, x+1/2, -y+1/2'
40 'z+1/2, x+1/2, y+1/2'
41 '-y, z+1/2, -x+1/2'
42 'y+1/2, -z+1/2, -x'
43 '-y+1/2, -z, x+1/2'
44 'y+1/2, z+1/2, x+1/2'
45 '-x+1/2, -y, z+1/2'
46 '-x, y+1/2, -z+1/2'
47 'x+1/2, -y+1/2, -z'
48 'x+1/2, y+1/2, z+1/2'
loop_
_atom_type_symbol
_atom_type_oxidation_number
P4+ 4
O2- -2
Li1+ 1
H1+ 1
loop_
_atom_site_label
_atom_site_type_symbol
_atom_site_symmetry_multiplicity
_atom_site_Wyckoff_symbol
_atom_site_fract_x
_atom_site_fract_y
_atom_site_fract_z
_atom_site_B_iso_or_equiv
_atom_site_occupancy
_atom_site_attached_hydrogens
P1 P4+ 16 c 0.200353(3) 0.200353(3) 0.200353(3) 0.004 1 0
O1 O2- 48 e 0.174504(9) 0.264039(8) 0.101346(8) 0.006 1 0
O2 O2- 48 e 0.431732(11) 0.149707(10) 0.051172(10) 0.008 1 0
Li1 Li1+ 24 d 0.25 0.34863(4) 0 0.01 1 0
Li2 Li1+ 8 a 0.5 0 0 0.011 1 0
H1 H1+ 48 e 0.405447 0.19426 -0.00944 0.026(2) 1 0
H2 H1+ 48 e 0.366639 0.123312 0.091399 0.024(2) 1 0
loop_
_atom_site_aniso_label
_atom_site_aniso_type_symbol
_atom_site_aniso_U_11
_atom_site_aniso_U_22
_atom_site_aniso_U_33
_atom_site_aniso_U_12
_atom_site_aniso_U_13
_atom_site_aniso_U_23
P1 P4+ 0.003899(19) 0.003899(19) 0.003899(19) -0.000086(6) -0.000086(6)
-0.000086(6)
O1 O2- 0.00747(3) 0.00639(3) 0.00513(3) 0.00026(2) -0.00052(2) 0.001072(19)
O2 O2- 0.00742(4) 0.00807(4) 0.00721(4) 0.00006(2) -0.00002(2) 0.00034(3)
Li1 Li1+ 0.01037(17) 0.00940(17) 0.00885(16) 0 0.00072(13) 0
Li2 Li1+ 0.01128(13) 0.01128(13) 0.01128(13) 0.00010(15) -0.00010(15)
0.00010(15)
#End of TTdata_250486-ICSD