
#(C) 2018 by FIZ Karlsruhe - Leibniz Institute for Information Infrastructure.  All rights reserved.
data_250748-ICSD
_database_code_ICSD 250748
_audit_creation_date 2015-02-01
_chemical_name_systematic 'Strontium lithium arsenide (1/1/1)'
_chemical_formula_structural 'Sr Li As'
_chemical_formula_sum 'As1 Li1 Sr1'
_chemical_name_structure_type TiNiSi-MgSrSi
_exptl_crystal_density_diffrn 4.06
_cell_measurement_temperature 295.
_publ_section_title

;
Synthesis, structure, and properties of two Zintl phases around the
composition SrLiAs
;
loop_
_citation_id
_citation_journal_full
_citation_year
_citation_journal_volume
_citation_page_first
_citation_page_last
_citation_journal_id_ASTM
primary 'Inorganic Chemistry' 2013 52 8971 8978 INOCAJ
loop_
_publ_author_name
'Feng, Xian-Juan'
'Prots, Yurii'
'Schmidt, Marcus Peter'
'Hoffmann, Stefan'
'Veremchuk, Igor'
'Schnelle, Walter'
'Burkhardt, Ulrich'
'Zhao, Jing-Tai'
'Grin, Yuri'
_cell_length_a 7.6458(2)
_cell_length_b 4.5158(1)
_cell_length_c 8.0403(3)
_cell_angle_alpha 90
_cell_angle_beta 90
_cell_angle_gamma 90
_cell_volume 277.6
_cell_formula_units_Z 4
_symmetry_space_group_name_H-M 'P n m a'
_symmetry_Int_Tables_number 62
_refine_ls_R_factor_all 0.028
loop_
_symmetry_equiv_pos_site_id
_symmetry_equiv_pos_as_xyz
1 'x+1/2, y, -z+1/2'
2 'x, -y+1/2, z'
3 '-x+1/2, y+1/2, z+1/2'
4 '-x, -y, -z'
5 '-x+1/2, -y, z+1/2'
6 '-x, y+1/2, -z'
7 'x+1/2, -y+1/2, -z+1/2'
8 'x, y, z'
loop_
_atom_type_symbol
_atom_type_oxidation_number
As3- -3
Sr2+ 2
Li1+ 1
loop_
_atom_site_label
_atom_site_type_symbol
_atom_site_symmetry_multiplicity
_atom_site_Wyckoff_symbol
_atom_site_fract_x
_atom_site_fract_y
_atom_site_fract_z
_atom_site_B_iso_or_equiv
_atom_site_occupancy
_atom_site_attached_hydrogens
As1 As3- 4 c 0.27496(8) 0.25 0.40622(8) 0.0097(2) 1. 0
Sr1 Sr2+ 4 c 0.00642(7) 0.25 0.70636(7) 0.0113(2) 1. 0
Li1 Li1+ 4 c 0.157(2) 0.25 0.074(2) 0.020(3) 1. 0
loop_
_atom_site_aniso_label
_atom_site_aniso_type_symbol
_atom_site_aniso_U_11
_atom_site_aniso_U_22
_atom_site_aniso_U_33
_atom_site_aniso_U_12
_atom_site_aniso_U_13
_atom_site_aniso_U_23
As1 As3- 0.0119(3) 0.0065(3) 0.0107(3) 0 0.0005(2) 0
Sr1 Sr2+ 0.0118(3) 0.0092(3) 0.0130(3) 0 -0.0009(2) 0
#End of TTdata_250748-ICSD