
#(C) 2018 by FIZ Karlsruhe - Leibniz Institute for Information Infrastructure.  All rights reserved.
data_250896-ICSD
_database_code_ICSD 250896
_audit_creation_date 2015-02-01
_chemical_name_systematic 'Lithium manganese(II) sulfate'
_chemical_formula_structural 'Li2 Mn (S O4)2'
_chemical_formula_sum 'Li2 Mn1 O8 S2'
_exptl_crystal_density_diffrn 2.75
_cell_measurement_temperature 298.
_publ_section_title

;
Marinite Li2 M (S O4)2 (M = Co, Fe, Mn) and Li1 Fe (S O4)2: Model Compounds
for Super-Super-Exchange Magnetic Interactions
;
loop_
_citation_id
_citation_journal_full
_citation_year
_citation_journal_volume
_citation_page_first
_citation_page_last
_citation_journal_id_ASTM
primary 'Inorganic Chemistry' 2013 52 10456 10466 INOCAJ
loop_
_publ_author_name
'Reynaud, Marine'
'Rousse, Gwenaelle'
'Chotard, Jean-Noel'
'Rodriguez-Carvajal, Juan'
'Tarascon, Jean-Marie'
_cell_length_a 4.99198(5)
_cell_length_b 8.33959(8)
_cell_length_c 8.86140(8)
_cell_angle_alpha 90.
_cell_angle_beta 121.2263(3)
_cell_angle_gamma 90.
_cell_volume 315.46
_cell_formula_units_Z 2
_symmetry_space_group_name_H-M 'P 1 21/c 1'
_symmetry_Int_Tables_number 14
_refine_ls_R_factor_all 0.0192
loop_
_symmetry_equiv_pos_site_id
_symmetry_equiv_pos_as_xyz
1 'x, -y+1/2, z+1/2'
2 '-x, -y, -z'
3 '-x, y+1/2, -z+1/2'
4 'x, y, z'
loop_
_atom_type_symbol
_atom_type_oxidation_number
Li1+ 1
Mn2+ 2
S2- -2
O2- -2
loop_
_atom_site_label
_atom_site_type_symbol
_atom_site_symmetry_multiplicity
_atom_site_Wyckoff_symbol
_atom_site_fract_x
_atom_site_fract_y
_atom_site_fract_z
_atom_site_B_iso_or_equiv
_atom_site_occupancy
_atom_site_attached_hydrogens
Li1 Li1+ 4 e 0.021(2) 0.6326(13) 0.1010(15) 0.024(4) 1. 0
Mn1 Mn2+ 2 a 0. 0. 0. 0.0167(5) 1. 0
S1 S2- 4 e 0.3284(4) 0.3029(3) 0.2969(3) 0.0224(6) 1. 0
O1 O2- 4 e 0.1761(8) 0.4140(4) 0.1490(5) 0.0107(12) 1. 0
O2 O2- 4 e 0.1954(9) 0.1405(4) 0.2460(4) 0.0163(14) 1. 0
O3 O2- 4 e 0.2813(8) 0.3508(4) 0.4379(5) 0.0228(15) 1. 0
O4 O2- 4 e 0.6619(8) 0.2974(4) 0.3607(5) 0.0078(12) 1. 0
#End of TTdata_250896-ICSD