
#(C) 2018 by FIZ Karlsruhe - Leibniz Institute for Information Infrastructure.  All rights reserved.
data_251041-ICSD
_database_code_ICSD 251041
_audit_creation_date 2015-02-01
_chemical_name_systematic 'Dilithium platinum hexahydroxide'
_chemical_formula_structural 'Li2 Pt (O H)6'
_chemical_formula_sum 'H6 Li2 O6 Pt1'
_exptl_crystal_density_diffrn 4.58
_cell_measurement_temperature 100.
_publ_section_title

;
Hydroflux crystal growth of platinum group metal hydroxides: Sr6NaPd2(OH)17,
Li2Pt(OH)6, Na2Pt(OH)6, Sr2Pt(OH)8, and Ba2Pt(OH)8
;
loop_
_citation_id
_citation_journal_full
_citation_year
_citation_journal_volume
_citation_page_first
_citation_page_last
_citation_journal_id_ASTM
primary 'Inorganic Chemistry' 2013 52 3836 3844 INOCAJ
loop_
_publ_author_name
'Bugaris, Daniel E.'
'Smith, Mark D.'
'zur Loye, Hans-Conrad'
_cell_length_a 5.3406(8)
_cell_length_b 5.3406(8)
_cell_length_c 4.5684(9)
_cell_angle_alpha 90.
_cell_angle_beta 90.
_cell_angle_gamma 120.
_cell_volume 112.84
_cell_formula_units_Z 1
_symmetry_space_group_name_H-M 'P -3'
_symmetry_Int_Tables_number 147
_refine_ls_R_factor_all 0.0144
loop_
_symmetry_equiv_pos_site_id
_symmetry_equiv_pos_as_xyz
1 'x-y, x, -z'
2 'y, -x+y, -z'
3 '-x, -y, -z'
4 '-x+y, -x, z'
5 '-y, x-y, z'
6 'x, y, z'
loop_
_atom_type_symbol
_atom_type_oxidation_number
Li1+ 1
Pt4+ 4
O2- -2
H1+ 1
loop_
_atom_site_label
_atom_site_type_symbol
_atom_site_symmetry_multiplicity
_atom_site_Wyckoff_symbol
_atom_site_fract_x
_atom_site_fract_y
_atom_site_fract_z
_atom_site_B_iso_or_equiv
_atom_site_occupancy
_atom_site_attached_hydrogens
Li1 Li1+ 2 d 0.3333 0.6667 -0.052(2) 0.0132(14) 1 0
Pt1 Pt4+ 1 a 0. 0. 0. 0.00585(8) 1 0
O1 O2- 6 g 0.0061(4) 0.6871(4) 0.2372(4) 0.0096(3) 1 0
H1 H1+ 6 g 0.119(11) 0.766(12) 0.383(9) 0.019(13) 1 0
loop_
_atom_site_aniso_label
_atom_site_aniso_type_symbol
_atom_site_aniso_U_11
_atom_site_aniso_U_22
_atom_site_aniso_U_33
_atom_site_aniso_U_12
_atom_site_aniso_U_13
_atom_site_aniso_U_23
Li1 Li1+ 0.013(2) 0.013(2) 0.014(4) 0.0064(11) 0. 0.
Pt1 Pt4+ 0.00573(9) 0.00573(9) 0.00608(10) 0.00287(4) 0. 0.
O1 O2- 0.0110(7) 0.0085(6) 0.0091(6) 0.0046(5) -0.0017(5) 0.0005(5)
#End of TTdata_251041-ICSD