
#(C) 2017 by FIZ Karlsruhe - Leibniz Institute for Information Infrastructure.  All rights reserved.
data_251074-ICSD
_database_code_ICSD 251074
_audit_creation_date 2015-02-01
_chemical_name_systematic 'Lithium hafnium fluoride (2/1/6)'
_chemical_formula_structural 'Li2 Hf F6'
_chemical_formula_sum 'F6 Hf1 Li2'
_chemical_name_structure_type Li2ZrF6
_exptl_crystal_density_diffrn 5.11
_cell_measurement_temperature 293.
_publ_section_title

;
Hydrothermal chemistry, structures, and luminescence studies of alkali hafnium
fluorides
;
loop_
_citation_id
_citation_journal_full
_citation_year
_citation_journal_volume
_citation_page_first
_citation_page_last
_citation_journal_id_ASTM
primary 'Inorganic Chemistry' 2013 52 237 244 INOCAJ
loop_
_publ_author_name
'Underwood, Christopher C.'
'McMillen, Colin D.'
'Chen, Hongyu'
'Anker, Jeffery N.'
'Kolis, Joseph W.'
_cell_length_a 4.9748(7)
_cell_length_b 4.9748(7)
_cell_length_c 4.6449(9)
_cell_angle_alpha 90.
_cell_angle_beta 90.
_cell_angle_gamma 120.
_cell_volume 99.55
_cell_formula_units_Z 1
_symmetry_space_group_name_H-M 'P -3 1 m'
_symmetry_Int_Tables_number 162
_refine_ls_R_factor_all 0.0319
loop_
_symmetry_equiv_pos_site_id
_symmetry_equiv_pos_as_xyz
1 '-x+y, y, -z'
2 'x, x-y, -z'
3 '-y, -x, -z'
4 'x-y, x, -z'
5 'y, -x+y, -z'
6 '-x, -y, -z'
7 'x-y, -y, z'
8 '-x, -x+y, z'
9 'y, x, z'
10 '-x+y, -x, z'
11 '-y, x-y, z'
12 'x, y, z'
loop_
_atom_type_symbol
_atom_type_oxidation_number
Hf4+ 4
Li1+ 1
F1- -1
loop_
_atom_site_label
_atom_site_type_symbol
_atom_site_symmetry_multiplicity
_atom_site_Wyckoff_symbol
_atom_site_fract_x
_atom_site_fract_y
_atom_site_fract_z
_atom_site_B_iso_or_equiv
_atom_site_occupancy
_atom_site_attached_hydrogens
Hf1 Hf4+ 1 a 0. 0. 0. 0.0027(11) 1 0
Li1 Li1+ 2 d 0.3333 0.6667 0.5 0.009(8) 1 0
F1 F1- 6 k 1. 0.3278(19) 0.2554(17) 0.0050(15) 1 0
loop_
_atom_site_aniso_label
_atom_site_aniso_type_symbol
_atom_site_aniso_U_11
_atom_site_aniso_U_22
_atom_site_aniso_U_33
_atom_site_aniso_U_12
_atom_site_aniso_U_13
_atom_site_aniso_U_23
Hf1 Hf4+ 0.0035(11) 0.0035(11) 0.0011(12) 0.0017(6) 0. 0.
Li1 Li1+ 0.010(13) 0.010(13) 0.007(19) 0.005(6) 0. 0.
F1 F1- 0.007(4) 0.005(3) 0.004(4) 0.003(2) 0. -0.001(3)
#End of TTdata_251074-ICSD