
#(C) 2017 by FIZ Karlsruhe - Leibniz Institute for Information Infrastructure.  All rights reserved.
data_252226-ICSD
_database_code_ICSD 252226
_audit_creation_date 2016-08-01
_chemical_name_systematic 'Trilithium hexafluoroaluminate - beta, HT'
_chemical_formula_structural 'Li3 Al F6'
_chemical_formula_sum 'Al1 F6 Li3'
_chemical_name_structure_type Zn4Ta2O9
_exptl_crystal_density_diffrn 2.74
_cell_measurement_temperature 300.
_publ_section_title

;
Photoluminescence of monoclinic Li3AlF6 crystals under vacuum ultraviolet and
soft X-ray excitations
;
loop_
_citation_id
_citation_journal_full
_citation_year
_citation_journal_volume
_citation_page_first
_citation_page_last
_citation_journal_id_ASTM
primary 'Optical Materials, Elsevier' 2015 49 201 207 OMATET
loop_
_publ_author_name
'Pustovarov, V.A.'
'Ogorodnikov, I.N.'
'Omelkov, S.I.'
'Molokeev, M.S.'
'Kozlov, A.V.'
'Isaenko, L.I.'
_cell_length_a 14.2292(7)
_cell_length_b 8.4038(5)
_cell_length_c 9.8800(5)
_cell_angle_alpha 90
_cell_angle_beta 94.078(2)
_cell_angle_gamma 90
_cell_volume 1178.45
_cell_formula_units_Z 12
_symmetry_space_group_name_H-M 'C 1 2/c 1'
_symmetry_Int_Tables_number 15
_refine_ls_R_factor_all 0.0776
loop_
_symmetry_equiv_pos_site_id
_symmetry_equiv_pos_as_xyz
1 'x, -y, z+1/2'
2 '-x, -y, -z'
3 '-x, y, -z+1/2'
4 'x, y, z'
5 'x+1/2, -y+1/2, z+1/2'
6 '-x+1/2, -y+1/2, -z'
7 '-x+1/2, y+1/2, -z+1/2'
8 'x+1/2, y+1/2, z'
loop_
_atom_type_symbol
_atom_type_oxidation_number
Li1+ 1
Al3+ 3
F1- -1
loop_
_atom_site_label
_atom_site_type_symbol
_atom_site_symmetry_multiplicity
_atom_site_Wyckoff_symbol
_atom_site_fract_x
_atom_site_fract_y
_atom_site_fract_z
_atom_site_B_iso_or_equiv
_atom_site_occupancy
_atom_site_attached_hydrogens
Li1 Li1+ 4 e 0 0.164(6) 0.25 3.0(12) 1. 0
Li2 Li1+ 8 f 0.298(2) 0.338(4) 0.589(3) 1.0(6) 1. 0
Li3 Li1+ 8 f 0.315(2) 0.205(3) 0.922(3) 1.7(6) 1. 0
Li4 Li1+ 8 f 0.0473(19) 0.337(4) 0.531(3) 2.1(7) 1. 0
Li5 Li1+ 8 f 0.1488(17) 0.857(3) 0.266(3) 1.0(6) 1. 0
Al1 Al3+ 4 a 0 0 0 1.33(19) 1. 0
Al2 Al3+ 8 f 0.3366(4) 0.0091(11) 0.7004(4) 1.27(14) 1. 0
F1 F1- 8 f 0.0952(6) 0.3431(14) 0.1995(9) 2.00(12) 1. 0
F2 F1- 8 f 0.2297(5) 0.3477(13) 0.8815(8) 2.00(12) 1. 0
F3 F1- 8 f 0.1033(6) 0.3419(13) 0.6989(9) 2.00(12) 1. 0
F4 F1- 8 f 0.2512(5) 0.0154(12) 0.8280(7) 2.00(12) 1. 0
F5 F1- 8 f 0.0778(6) 0.1548(11) 0.9403(8) 2.00(12) 1. 0
F6 F1- 8 f 0.9361(6) 0.1637(11) 0.0595(9) 2.00(12) 1. 0
F7 F1- 8 f 0.4220(5) 0.9777(10) 0.5687(8) 2.00(12) 1. 0
F8 F1- 8 f 0.2637(6) 0.1505(13) 0.6039(8) 2.00(12) 1. 0
F9 F1- 8 f 0.0706(5) 0.0086(14) 0.1588(6) 2.00(12) 1. 0
#End of TTdata_252226-ICSD