
#(C) 2018 by FIZ Karlsruhe - Leibniz Institute for Information Infrastructure.  All rights reserved.
data_252511-ICSD
_database_code_ICSD 252511
_audit_creation_date 2016-08-01
_chemical_name_systematic 'Lithium chromium hexaoxodigermanate'
_chemical_formula_structural 'Li Cr Ge2 O6'
_chemical_formula_sum 'Cr1 Ge2 Li1 O6'
_chemical_name_structure_type Pyroxene-MgSiO3-LT
_exptl_crystal_density_diffrn 4.63
_cell_measurement_temperature 2.
_publ_section_title

;
Magnetic pyroxenes LiCrGe2O6 and LiCrSi2O6: dimensionality crossover in a
nonfrustrated S = 3/2 Heisenberg model
;
loop_
_citation_id
_citation_journal_full
_citation_year
_citation_journal_volume
_citation_page_first
_citation_page_last
_citation_journal_id_ASTM
primary 'Physical Review, Serie 3. B - Condensed Matter (18,1978-)' 2014 90
214424-1 214424-11 PRBMDO
loop_
_publ_author_name
'Janson, O.'
'Nenert, G.'
'Isobe, M.'
'Skourski, Y.'
'Ueda, Y.'
'Rosner, H.'
'Tsirlin, A.A.'
_cell_length_a 9.7919(1)
_cell_length_b 8.7149(1)
_cell_length_c 5.33461(6)
_cell_angle_alpha 90
_cell_angle_beta 108.9146(6)
_cell_angle_gamma 90
_cell_volume 430.65
_cell_formula_units_Z 4
_symmetry_space_group_name_H-M 'P 1 21/c 1'
_symmetry_Int_Tables_number 14
_refine_ls_R_factor_all 0.0455
loop_
_symmetry_equiv_pos_site_id
_symmetry_equiv_pos_as_xyz
1 'x, -y+1/2, z+1/2'
2 '-x, -y, -z'
3 '-x, y+1/2, -z+1/2'
4 'x, y, z'
loop_
_atom_type_symbol
_atom_type_oxidation_number
Li1+ 1
Cr3+ 3
Ge4+ 4
O2- -2
loop_
_atom_site_label
_atom_site_type_symbol
_atom_site_symmetry_multiplicity
_atom_site_Wyckoff_symbol
_atom_site_fract_x
_atom_site_fract_y
_atom_site_fract_z
_atom_site_B_iso_or_equiv
_atom_site_occupancy
_atom_site_attached_hydrogens
Li1 Li1+ 4 e 0.2579(7) 0.0138(6) 0.2184(12) 0.0062(11) 1. 0
Cr1 Cr3+ 4 e 0.2515(3) 0.6593(4) 0.2118(6) 0.0039(5) 1. 0
Ge1 Ge4+ 4 e 0.04756(14) 0.34430(17) 0.2750(3) 0.0038(2) 1. 0
Ge2 Ge4+ 4 e 0.55472(13) 0.84153(19) 0.2294(2) 0.0038(2) 1. 0
O1 O2- 4 e 0.85755(19) 0.3326(3) 0.1740(3) 0.0050(2) 1. 0
O2 O2- 4 e 0.36416(19) 0.8316(3) 0.1043(4) 0.0050(2) 1. 0
O3 O2- 4 e 0.11481(20) 0.5264(2) 0.2840(4) 0.0050(2) 1. 0
O4 O2- 4 e 0.6312(2) 0.0065(2) 0.3874(4) 0.0050(2) 1. 0
O5 O2- 4 e 0.11786(19) 0.29075(20) 0.6099(4) 0.0050(2) 1. 0
O6 O2- 4 e 0.6136(2) 0.6879(2) 0.4544(4) 0.0050(2) 1. 0
#End of TTdata_252511-ICSD