
#(C) 2018 by FIZ Karlsruhe - Leibniz Institute for Information Infrastructure.  All rights reserved.
data_252841-ICSD
_database_code_ICSD 252841
_audit_creation_date 2017-08-01
_chemical_name_systematic 'Lithium cesium orthophosphate'
_chemical_formula_structural 'Li Cs2 P O4'
_chemical_formula_sum 'Cs2 Li1 O4 P1'
_chemical_name_structure_type Rb2LiAsO4
_exptl_crystal_density_diffrn 4.35
_cell_measurement_temperature 296.
_publ_section_title

;
A new deep-ultraviolet transparent orthophosphate LiCs2PO4 with large second
harmonic generation response
;
loop_
_citation_id
_citation_journal_full
_citation_year
_citation_journal_volume
_citation_page_first
_citation_page_last
_citation_journal_id_ASTM
primary 'Journal of the American Chemical Society' 2016 138 9101 9104 JACSAT
loop_
_publ_author_name
'Li, Lin'
'Wang, Ying'
'Lei, Bing-Hua'
'Han, Shujuan'
'Yang, Zhihua'
'Poeppelmeier, Kenneth R.'
'Pan, Shilie'
_cell_length_a 5.813(5)
_cell_length_b 12.016(10)
_cell_length_c 8.035(7)
_cell_angle_alpha 90.
_cell_angle_beta 90.
_cell_angle_gamma 90.
_cell_volume 561.23
_cell_formula_units_Z 4
_symmetry_space_group_name_H-M 'C m c 21'
_symmetry_Int_Tables_number 36
_refine_ls_R_factor_all 0.0182
loop_
_symmetry_equiv_pos_site_id
_symmetry_equiv_pos_as_xyz
1 'x, -y, z+1/2'
2 '-x, -y, z+1/2'
3 '-x, y, z'
4 'x, y, z'
5 'x+1/2, -y+1/2, z+1/2'
6 '-x+1/2, -y+1/2, z+1/2'
7 '-x+1/2, y+1/2, z'
8 'x+1/2, y+1/2, z'
loop_
_atom_type_symbol
_atom_type_oxidation_number
Li1+ 1
Cs1+ 1
P5+ 5
O2- -2
loop_
_atom_site_label
_atom_site_type_symbol
_atom_site_symmetry_multiplicity
_atom_site_Wyckoff_symbol
_atom_site_fract_x
_atom_site_fract_y
_atom_site_fract_z
_atom_site_B_iso_or_equiv
_atom_site_occupancy
_atom_site_attached_hydrogens
Li1 Li1+ 4 a 0.5 0.7934(13) 0.983(2) 0.016(3) 1 0
Cs1 Cs1+ 4 a 1. 0.57214(4) 0.89135(8) 0.01838(14) 1 0
Cs2 Cs1+ 4 a 1. 0.89620(4) 0.74519(6) 0.01736(14) 1 0
P1 P5+ 4 a 1. 0.79784(18) 1.1913(3) 0.0118(4) 1 0
O1 O2- 8 b 0.7823(6) 0.8284(3) 1.0908(6) 0.0196(10) 1 0
O2 O2- 4 a 1. 0.6717(4) 1.2342(9) 0.0202(14) 1 0
O3 O2- 4 a 1. 0.8594(5) 1.3621(8) 0.0169(14) 1 0
loop_
_atom_site_aniso_label
_atom_site_aniso_type_symbol
_atom_site_aniso_U_11
_atom_site_aniso_U_22
_atom_site_aniso_U_33
_atom_site_aniso_U_12
_atom_site_aniso_U_13
_atom_site_aniso_U_23
Li1 Li1+ 0.003(6) 0.024(8) 0.021(9) 0. 0. 0.005(6)
Cs1 Cs1+ 0.0141(3) 0.0223(3) 0.0187(3) 0. 0. -0.0026(3)
Cs2 Cs1+ 0.0132(2) 0.0198(3) 0.0191(3) 0. 0. -0.0030(2)
P1 P5+ 0.0101(9) 0.0168(10) 0.0087(11) 0. 0. -0.0007(8)
O1 O2- 0.014(2) 0.030(2) 0.015(3) 0.0013(17) -0.0046(18) 0.0014(18)
O2 O2- 0.019(3) 0.018(3) 0.024(4) 0. 0. -0.002(3)
O3 O2- 0.015(3) 0.014(3) 0.022(4) 0. 0. 0.000(3)
#End of TTdata_252841-ICSD