
#(C) 2018 by FIZ Karlsruhe - Leibniz Institute for Information Infrastructure.  All rights reserved.
data_253046-ICSD
_database_code_ICSD 253046
_audit_creation_date 2017-08-01
_chemical_name_systematic 'Dicesium lithium phosphate'
_chemical_formula_structural 'Cs2 Li P O4'
_chemical_formula_sum 'Cs2 Li1 O4 P1'
_chemical_name_structure_type Rb2LiAsO4
_exptl_crystal_density_diffrn 4.4
_cell_measurement_temperature 100.
_publ_section_title

;
Deep-ultraviolet transparent Cs2LiPO4 exhibits an unprecedented second
harmonic generation
;
loop_
_citation_id
_citation_journal_full
_citation_year
_citation_journal_volume
_citation_page_first
_citation_page_last
_citation_journal_id_ASTM
primary 'Chemistry of Materials' 2016 28 7110 7116 CMATEX
loop_
_publ_author_name
'Shen, Yaoguo'
'Yang, Yi'
'Zhao, Sangen'
'Zhao, Bingqing'
'Lin, Zheshuai'
'Ji, Chengmin'
'Li, Lina'
'Fu, Ping'
'Hong, Maochun'
'Luo, Junhua'
_cell_length_a 5.8116(6)
_cell_length_b 11.9381(17)
_cell_length_c 8.0070(10)
_cell_angle_alpha 90.
_cell_angle_beta 90.
_cell_angle_gamma 90.
_cell_volume 555.52
_cell_formula_units_Z 4
_symmetry_space_group_name_H-M 'C m c 21'
_symmetry_Int_Tables_number 36
_refine_ls_R_factor_all 0.0303
loop_
_symmetry_equiv_pos_site_id
_symmetry_equiv_pos_as_xyz
1 'x, -y, z+1/2'
2 '-x, -y, z+1/2'
3 '-x, y, z'
4 'x, y, z'
5 'x+1/2, -y+1/2, z+1/2'
6 '-x+1/2, -y+1/2, z+1/2'
7 '-x+1/2, y+1/2, z'
8 'x+1/2, y+1/2, z'
loop_
_atom_type_symbol
_atom_type_oxidation_number
Cs1+ 1
P5+ 5
O2- -2
Li1+ 1
loop_
_atom_site_label
_atom_site_type_symbol
_atom_site_symmetry_multiplicity
_atom_site_Wyckoff_symbol
_atom_site_fract_x
_atom_site_fract_y
_atom_site_fract_z
_atom_site_B_iso_or_equiv
_atom_site_occupancy
_atom_site_attached_hydrogens
Cs1 Cs1+ 4 a 1. 0.60435(8) 0.62553(9) 0.0260(3) 1 0
Cs2 Cs1+ 4 a 1. 0.92919(8) 0.48045(14) 0.0257(3) 1 0
P1 P5+ 4 a 1. 0.7010(4) 0.1805(6) 0.0249(9) 1 0
O1 O2- 4 a 1. 0.8283(8) 0.1383(15) 0.026(2) 1 0
O2 O2- 8 b 0.7812(12) 0.6701(6) 0.2813(10) 0.0262(17) 1 0
O3 O2- 4 a 1. 0.6390(10) 0.0101(14) 0.029(3) 1 0
Li1 Li1+ 4 a 0.5 0.706(2) 0.394(4) 0.023(5) 1 0
loop_
_atom_site_aniso_label
_atom_site_aniso_type_symbol
_atom_site_aniso_U_11
_atom_site_aniso_U_22
_atom_site_aniso_U_33
_atom_site_aniso_U_12
_atom_site_aniso_U_13
_atom_site_aniso_U_23
Cs1 Cs1+ 0.0234(4) 0.0278(5) 0.0267(5) 0. 0. -0.0016(5)
Cs2 Cs1+ 0.0225(5) 0.0287(5) 0.0258(5) 0. 0. -0.0012(5)
P1 P5+ 0.0233(19) 0.0268(18) 0.025(2) 0. 0. 0.0007(17)
O1 O2- 0.029(5) 0.021(4) 0.026(6) 0. 0. -0.004(6)
O2 O2- 0.021(4) 0.028(4) 0.030(5) -0.006(3) -0.002(3) 0.002(3)
O3 O2- 0.026(6) 0.030(6) 0.032(8) 0. 0. -0.002(5)
Li1 Li1+ 0.024(8) 0.026(9) 0.018(9) 0. 0. -0.012(8)
#End of TTdata_253046-ICSD