
#(C) 2018 by FIZ Karlsruhe - Leibniz Institute for Information Infrastructure.  All rights reserved.
data_253059-ICSD
_database_code_ICSD 253059
_audit_creation_date 2017-08-01
_chemical_name_systematic
'Lithium lanthanum europium hafnium oxide (7/2.85/0.15/2/12)'
_chemical_formula_structural 'Li7 (La0.95 Eu0.05)3 Hf2 O12'
_chemical_formula_sum 'Eu0.15 Hf2 La2.85 Li7 O12'
_chemical_name_structure_type Li7La3Sn2O12
_exptl_crystal_density_diffrn 6.23
_cell_measurement_temperature 293.
_publ_section_title

;
Crystal structure and spectroscopic properties of garnet-type Li7 La3 Hf2
O12:Eu3+
;
loop_
_citation_id
_citation_journal_full
_citation_year
_citation_journal_volume
_citation_page_first
_citation_page_last
_citation_journal_id_ASTM
primary 'Journal of Alloys and Compounds' 2016 686 204 215 JALCEU
loop_
_publ_author_name
'Leonidov, Ivan I.'
'Baklanova, Yana V.'
'Maksimova, Lidiya G.'
'Tyutyunnik, Alexander P.'
'Akashev, Lev A.'
'Vovkotrub, Emma G.'
'Denisova, Tatyana A.'
'Zubkov, Vladimir G.'
_cell_length_a 13.09104(7)
_cell_length_b 13.09104(7)
_cell_length_c 12.62457(8)
_cell_angle_alpha 90.
_cell_angle_beta 90.
_cell_angle_gamma 90.
_cell_volume 2163.53
_cell_formula_units_Z 8
_symmetry_space_group_name_H-M 'I 41/a c d Z'
_symmetry_Int_Tables_number 142
_refine_ls_R_factor_all 0.026
loop_
_symmetry_equiv_pos_site_id
_symmetry_equiv_pos_as_xyz
1 'y+1/4, x+3/4, -z+3/4'
2 '-y+3/4, x+3/4, -z+1/4'
3 'x, y+1/2, -z'
4 '-x, y+1/2, -z+1/2'
5 '-y+3/4, -x+1/4, z+1/4'
6 'y+1/4, -x+1/4, z+3/4'
7 '-x, -y+1/2, z'
8 'x, -y+1/2, z+1/2'
9 'y+1/4, -x+3/4, -z+1/4'
10 '-y+3/4, -x+3/4, -z+3/4'
11 'x, -y, -z+1/2'
12 '-x, -y, -z'
13 '-y+3/4, x+1/4, z+3/4'
14 'y+1/4, x+1/4, z+1/4'
15 '-x, y, z+1/2'
16 'x, y, z'
17 'y+3/4, x+1/4, -z+1/4'
18 '-y+1/4, x+1/4, -z+3/4'
19 'x+1/2, y, -z+1/2'
20 '-x+1/2, y, -z'
21 '-y+1/4, -x+3/4, z+3/4'
22 'y+3/4, -x+3/4, z+1/4'
23 '-x+1/2, -y, z+1/2'
24 'x+1/2, -y, z'
25 'y+3/4, -x+1/4, -z+3/4'
26 '-y+1/4, -x+1/4, -z+1/4'
27 'x+1/2, -y+1/2, -z'
28 '-x+1/2, -y+1/2, -z+1/2'
29 '-y+1/4, x+3/4, z+1/4'
30 'y+3/4, x+3/4, z+3/4'
31 '-x+1/2, y+1/2, z'
32 'x+1/2, y+1/2, z+1/2'
loop_
_atom_type_symbol
_atom_type_oxidation_number
Li1+ 1
La3+ 3
Eu3+ 3
La3+ 3
Eu3+ 3
Hf4+ 4
O2- -2
loop_
_atom_site_label
_atom_site_type_symbol
_atom_site_symmetry_multiplicity
_atom_site_Wyckoff_symbol
_atom_site_fract_x
_atom_site_fract_y
_atom_site_fract_z
_atom_site_B_iso_or_equiv
_atom_site_occupancy
_atom_site_attached_hydrogens
Li1 Li1+ 8 a 0 0.25 0.375 0.0299(15) 1. 0
Li2 Li1+ 16 f 0.8227 0.0727 0.125 0.0299(15) 1. 0
Li3 Li1+ 32 g 0.0802 0.0856 0.8054 0.0299(15) 1. 0
La1 La3+ 8 b 0 0.25 0.125 0.0311(9) 0.95 0
Eu1 Eu3+ 8 b 0 0.25 0.125 0.0311(9) 0.05 0
La2 La3+ 16 e 0.62741(10) 0 0.25 0.0307(9) 0.95 0
Eu3 Eu3+ 16 e 0.62741(10) 0 0.25 0.0307(9) 0.05 0
Hf1 Hf4+ 16 c 0 0 0 0.0324(9) 1. 0
O1 O2- 32 g -0.0313(5) 0.0564(5) 0.1508(5) 0.0299(15) 1. 0
O2 O2- 32 g 0.0542(5) 0.8520(5) 0.5347(5) 0.0299(15) 1. 0
O3 O2- 32 g 0.1491(5) 0.0299(5) 0.4457(5) 0.0299(15) 1. 0
#End of TTdata_253059-ICSD