
#(C) 2018 by FIZ Karlsruhe - Leibniz Institute for Information Infrastructure.  All rights reserved.
data_253339-ICSD
_database_code_ICSD 253339
_audit_creation_date 2017-08-01
_chemical_name_systematic 'Lithium zinc borate'
_chemical_formula_structural 'Li Zn B O3'
_chemical_formula_sum 'B1 Li1 O3 Zn1'
_exptl_crystal_density_diffrn 3.63
_cell_measurement_temperature 290.
_publ_section_title

;
Syntheses and characterization of two alkaline and transition metal
orthoborates, LiMBO3 (M=Zn, Cd)
;
loop_
_citation_id
_citation_journal_full
_citation_year
_citation_journal_volume
_citation_page_first
_citation_page_last
_citation_journal_id_ASTM
primary 'Solid State Sciences' 2016 52 132 140 SSSCFJ
loop_
_publ_author_name
'Chen, Xuean'
'Wang, Kun'
'Chang, Xinan'
'Xiao, Weiqiang'
_cell_length_a 5.0559(15)
_cell_length_b 6.097(2)
_cell_length_c 8.0359(18)
_cell_angle_alpha 75.75(2)
_cell_angle_beta 89.86(2)
_cell_angle_gamma 89.79(3)
_cell_volume 240.08
_cell_formula_units_Z 4
_symmetry_space_group_name_H-M 'P -1'
_symmetry_Int_Tables_number 2
_refine_ls_R_factor_all 0.0498
loop_
_symmetry_equiv_pos_site_id
_symmetry_equiv_pos_as_xyz
1 '-x, -y, -z'
2 'x, y, z'
loop_
_atom_type_symbol
_atom_type_oxidation_number
Li1+ 1
Zn2+ 2
B3+ 3
O2- -2
loop_
_atom_site_label
_atom_site_type_symbol
_atom_site_symmetry_multiplicity
_atom_site_Wyckoff_symbol
_atom_site_fract_x
_atom_site_fract_y
_atom_site_fract_z
_atom_site_B_iso_or_equiv
_atom_site_occupancy
_atom_site_attached_hydrogens
Li1 Li1+ 2 i 0.170(2) 0.513(2) 0.2660(16) 0.0068(17) 1 0
Li2 Li1+ 2 i -0.169(2) -0.225(2) 0.3995(15) 0.0048(16) 1 0
Zn1 Zn2+ 2 i 0.34136(17) 0.03820(14) 0.28537(11) 0.0081(3) 1 0
Zn2 Zn2+ 2 i 0.3270(2) 0.3336(2) -0.08254(13) 0.0237(3) 1 0
B1 B3+ 2 i 0.6666(15) 0.3374(13) 0.4215(10) 0.0065(10) 1 0
B2 B3+ 2 i -0.1715(16) 0.1645(13) 0.0861(10) 0.0067(10) 1 0
O1 O2- 2 i 0.4020(10) 0.2873(9) 0.3999(7) 0.0088(5) 1 0
O2 O2- 2 i 0.7986(10) 0.2317(9) 0.5681(7) 0.0093(6) 1 0
O3 O2- 2 i 0.7967(10) 0.5000(9) 0.3006(7) 0.0085(6) 1 0
O4 O2- 2 i -0.3054(10) -0.0078(9) 0.1967(7) 0.0092(6) 1 0
O5 O2- 2 i 0.1006(10) 0.1790(9) 0.0998(7) 0.0091(5) 1 0
O6 O2- 2 i -0.2980(10) 0.3290(9) -0.0369(7) 0.0094(6) 1 0
loop_
_atom_site_aniso_label
_atom_site_aniso_type_symbol
_atom_site_aniso_U_11
_atom_site_aniso_U_22
_atom_site_aniso_U_33
_atom_site_aniso_U_12
_atom_site_aniso_U_13
_atom_site_aniso_U_23
Zn1 Zn2+ 0.0056(4) 0.0091(4) 0.0074(4) -0.0013(3) -0.0016(3) 0.0026(3)
Zn2 Zn2+ 0.0078(5) 0.0414(6) 0.0114(5) -0.0046(4) -0.0033(3) 0.0134(4)
B1 B3+ 0.006(2) 0.009(2) 0.004(2) 0.0012(19) -0.0034(19) -0.001(2)
B2 B3+ 0.006(2) 0.009(2) 0.005(2) 0.0011(19) -0.0034(19) -0.001(2)
O1 O2- 0.0038(10) 0.0116(11) 0.0079(11) -0.0009(9) -0.0018(8) 0.0033(9)
O2 O2- 0.0041(11) 0.0121(12) 0.0081(11) -0.0013(10) -0.0022(9) 0.0042(10)
O3 O2- 0.0039(11) 0.0113(12) 0.0073(11) -0.0011(10) -0.0019(9) 0.0033(10)
O4 O2- 0.0039(11) 0.0120(12) 0.0082(12) -0.0005(10) -0.0015(10) 0.0041(10)
O5 O2- 0.0037(10) 0.0119(11) 0.0081(11) -0.0007(9) -0.0020(9) 0.0041(9)
O6 O2- 0.0039(11) 0.0123(12) 0.0084(11) -0.0008(10) -0.0022(9) 0.0043(10)
#End of TTdata_253339-ICSD