
#(C) 2018 by FIZ Karlsruhe - Leibniz Institute for Information Infrastructure.  All rights reserved.
data_253685-ICSD
_database_code_ICSD 253685
_audit_creation_date 2017-08-01
_chemical_name_systematic
'Dilead heptabarium dilithium bis(diphosphate) bis(tridecaoxo-tetraphosphate)'
_chemical_formula_structural 'Pb2 Ba7 (Li2 (P2 O7)2 (P4 O13)2)'
_chemical_formula_sum 'Ba7 Li2 O40 P12 Pb2'
_exptl_crystal_density_diffrn 4.42
_cell_measurement_temperature 296.
_publ_section_title

;
Application of the dimensional reduction formalism to Pb9-x Bax [Li2 (P2O7)2
(P4O13)2] (x = 0, 2, 6, 7). A series of phosphates with two types of isolated
polyphosphate groups
;
loop_
_citation_id
_citation_journal_full
_citation_year
_citation_journal_volume
_citation_page_first
_citation_page_last
_citation_journal_id_ASTM
primary 'Dalton Transactions' 2017 46 4678 4684 DTARAF
loop_
_publ_author_name
'Zhang, Xiangyu'
'Wu, Hongping'
'Liu, Qiong'
'Dong, Xiaoyu'
'Chen, Yunlei'
'Yang, Zhihua'
'Wen, Xiao-Dong'
'Pan, Shilie'
_cell_length_a 7.5485(2)
_cell_length_b 7.8382(2)
_cell_length_c 15.8290(4)
_cell_angle_alpha 80.262(2)
_cell_angle_beta 84.733(2)
_cell_angle_gamma 78.558(2)
_cell_volume 903.06
_cell_formula_units_Z 1
_symmetry_space_group_name_H-M 'P -1'
_symmetry_Int_Tables_number 2
_refine_ls_R_factor_all 0.0362
loop_
_symmetry_equiv_pos_site_id
_symmetry_equiv_pos_as_xyz
1 '-x, -y, -z'
2 'x, y, z'
loop_
_atom_type_symbol
_atom_type_oxidation_number
Li1+ 1
Ba2+ 2
Pb2+ 2
Ba2+ 2
P5+ 5
O2- -2
loop_
_atom_site_label
_atom_site_type_symbol
_atom_site_symmetry_multiplicity
_atom_site_Wyckoff_symbol
_atom_site_fract_x
_atom_site_fract_y
_atom_site_fract_z
_atom_site_B_iso_or_equiv
_atom_site_occupancy
_atom_site_attached_hydrogens
Li1 Li1+ 2 i 0.011(2) 0.490(2) 0.3088(11) 0.021(3) 1 0
Ba1 Ba2+ 1 a 1. 1. 0. 0.01660(18) 1 0
Pb1 Pb2+ 2 i 0.60712(5) 0.69990(5) -0.00395(2) 0.02000(13) 1 0
Ba2 Ba2+ 2 i 0.58991(7) 0.33824(7) 0.25286(3) 0.01220(13) 1 0
Ba3 Ba2+ 2 i 0.23794(6) 0.64856(6) 0.49307(3) 0.00886(13) 1 0
Ba4 Ba2+ 2 i 0.16259(6) 0.00850(7) 0.24487(3) 0.01106(13) 1 0
P1 P5+ 2 i 1.0290(3) 0.5900(3) -0.12323(14) 0.0089(4) 1 0
P2 P5+ 2 i 0.7270(3) 0.7428(3) 0.57504(14) 0.0086(4) 1 0
P3 P5+ 2 i 0.8176(3) 0.9504(3) 0.40736(14) 0.0089(4) 1 0
P4 P5+ 2 i 0.6155(3) 0.7421(3) 0.32358(14) 0.0089(4) 1 0
P5 P5+ 2 i 0.6665(3) 0.9684(3) 0.15862(14) 0.0102(4) 1 0
P6 P5+ 2 i 0.7765(3) 0.3678(3) -0.14545(15) 0.0113(4) 1 0
O1 O2- 2 i 0.9481(8) 0.4095(8) -0.1019(4) 0.0122(12) 1 0
O2 O2- 2 i 0.9053(8) 0.6139(8) 0.5709(4) 0.0142(12) 1 0
O3 O2- 2 i 0.7558(8) 0.9208(8) 0.5059(4) 0.0135(12) 1 0
O4 O2- 2 i 0.8987(8) 0.7307(8) -0.0810(4) 0.0147(12) 1 0
O5 O2- 2 i 0.6570(9) 0.7834(8) 0.2219(4) 0.0159(13) 1 0
O6 O2- 2 i 0.4891(9) 1.0913(9) 0.1731(5) 0.0195(14) 1 0
O7 O2- 2 i 0.9913(9) 0.8330(9) 0.3884(4) 0.0178(13) 1 0
O8 O2- 2 i 0.8120(9) 1.1431(8) 0.3808(4) 0.0167(13) 1 0
O9 O2- 2 i 0.6842(9) 0.8117(9) 0.6591(4) 0.0169(13) 1 0
O10 O2- 2 i 0.4189(8) 0.7469(9) 0.3414(4) 0.0189(14) 1 0
O11 O2- 2 i 0.6607(8) 0.9042(8) 0.3600(4) 0.0131(12) 1 0
O12 O2- 2 i 1.2151(8) 0.5426(9) -0.0866(4) 0.0171(13) 1 0
O13 O2- 2 i 1.0410(8) 0.6437(8) -0.2200(4) 0.0129(12) 1 0
O14 O2- 2 i 0.7674(9) 0.1791(9) -0.1053(5) 0.0201(14) 1 0
O15 O2- 2 i 0.6106(9) 0.4946(9) -0.1163(5) 0.0219(15) 1 0
O16 O2- 2 i 0.5750(8) 0.6711(8) 0.5459(4) 0.0165(13) 1 0
O17 O2- 2 i 0.7388(9) 0.5721(8) 0.3526(4) 0.0157(13) 1 0
O18 O2- 2 i 0.8120(11) 0.3891(11) -0.2400(5) 0.0295(18) 1 0
O19 O2- 2 i 0.6907(10) 0.9173(9) 0.0695(4) 0.0226(15) 1 0
O20 O2- 2 i 0.8264(9) 1.0360(9) 0.1809(5) 0.0210(14) 1 0
loop_
_atom_site_aniso_label
_atom_site_aniso_type_symbol
_atom_site_aniso_U_11
_atom_site_aniso_U_22
_atom_site_aniso_U_33
_atom_site_aniso_U_12
_atom_site_aniso_U_13
_atom_site_aniso_U_23
Li1 Li1+ 0.017(8) 0.034(9) 0.014(8) -0.006(7) -0.009(6) -0.004(7)
Ba1 Ba2+ 0.0038(3) 0.0323(4) 0.0100(4) -0.0037(3) -0.0010(2) 0.0079(3)
Pb1 Pb2+ 0.0253(2) 0.0173(2) 0.0181(2) -0.00594(14) -0.00001(14) -0.00312(14)
Ba2 Ba2+ 0.0112(2) 0.0135(3) 0.0117(3) -0.00291(18) -0.00190(18) -0.00003(19)
Ba3 Ba2+ 0.0079(2) 0.0094(2) 0.0079(2) 0.00125(16) -0.00105(16) -0.00049(17)
Ba4 Ba2+ 0.0096(2) 0.0122(2) 0.0108(3) -0.00165(18) -0.00095(17) -0.00048(19)
P1 P5+ 0.0074(9) 0.0108(10) 0.0075(10) -0.0005(7) 0.0002(7) -0.0004(8)
P2 P5+ 0.0085(9) 0.0093(9) 0.0077(10) -0.0013(7) 0.0001(7) -0.0011(8)
P3 P5+ 0.0088(9) 0.0091(10) 0.0078(10) -0.0008(7) -0.0005(7) -0.0001(8)
P4 P5+ 0.0107(9) 0.0082(9) 0.0077(10) -0.0022(7) -0.0019(7) 0.0006(8)
P5 P5+ 0.0109(10) 0.0095(10) 0.0094(10) -0.0015(8) 0.0008(8) -0.0004(8)
P6 P5+ 0.0137(10) 0.0088(10) 0.0110(10) -0.0020(8) 0.0004(8) -0.0014(8)
O1 O2- 0.012(3) 0.012(3) 0.011(3) -0.001(2) -0.004(2) 0.003(2)
O2 O2- 0.013(3) 0.013(3) 0.015(3) -0.001(2) 0.000(2) 0.001(2)
O3 O2- 0.014(3) 0.011(3) 0.014(3) 0.002(2) 0.000(2) -0.001(2)
O4 O2- 0.013(3) 0.016(3) 0.015(3) -0.001(2) 0.003(2) -0.006(2)
O5 O2- 0.025(3) 0.012(3) 0.010(3) -0.002(3) 0.000(2) -0.001(2)
O6 O2- 0.014(3) 0.022(3) 0.022(4) 0.000(3) 0.005(3) -0.005(3)
O7 O2- 0.014(3) 0.023(3) 0.013(3) 0.002(3) 0.002(2) -0.001(3)
O8 O2- 0.026(3) 0.010(3) 0.015(3) -0.008(3) -0.004(3) 0.002(2)
O9 O2- 0.021(3) 0.017(3) 0.012(3) -0.004(3) 0.003(2) -0.003(3)
O10 O2- 0.011(3) 0.021(3) 0.025(4) -0.006(3) -0.003(3) 0.001(3)
O11 O2- 0.014(3) 0.011(3) 0.015(3) 0.001(2) -0.004(2) -0.005(2)
O12 O2- 0.012(3) 0.018(3) 0.021(3) -0.004(2) -0.001(2) 0.000(3)
O13 O2- 0.018(3) 0.015(3) 0.006(3) -0.008(2) 0.000(2) 0.003(2)
O14 O2- 0.023(3) 0.013(3) 0.024(4) -0.006(3) 0.000(3) 0.000(3)
O15 O2- 0.016(3) 0.016(3) 0.034(4) 0.002(3) -0.004(3) -0.009(3)
O16 O2- 0.010(3) 0.016(3) 0.025(4) -0.003(2) -0.004(2) -0.006(3)
O17 O2- 0.017(3) 0.014(3) 0.016(3) -0.001(2) -0.002(2) -0.002(3)
O18 O2- 0.034(4) 0.047(5) 0.015(4) -0.029(4) 0.001(3) -0.002(3)
O19 O2- 0.036(4) 0.022(4) 0.009(3) -0.008(3) 0.005(3) -0.003(3)
O20 O2- 0.017(3) 0.019(3) 0.027(4) -0.008(3) -0.005(3) 0.004(3)
#End of TTdata_253685-ICSD