
#(C) 2018 by FIZ Karlsruhe - Leibniz Institute for Information Infrastructure.  All rights reserved.
data_254331-ICSD
_database_code_ICSD 254331
_audit_creation_date 2018-02-01
_chemical_name_systematic 'Lithium iron pyrovanadate'
_chemical_formula_structural 'Li Fe V2 O7'
_chemical_formula_sum 'Fe1 Li1 O7 V2'
_exptl_crystal_density_diffrn 3.5
_cell_measurement_temperature 293.
_publ_section_title
'Synthesis, structure, and electrochemical properties of LiFeV2O7'
loop_
_citation_id
_citation_journal_full
_citation_year
_citation_journal_volume
_citation_page_first
_citation_page_last
_citation_journal_id_ASTM
primary 'Chemistry of Materials' 2017 29 9292 9299 CMATEX
loop_
_publ_author_name
'Benabed, Yasmine'
'Castro, Laurent'
'Penin, Nicolas'
'Darriet, Jacques'
'Dolle, Mickael'
_cell_length_a 13.4630(2)
_cell_length_b 8.1882(1)
_cell_length_c 14.3860(2)
_cell_angle_alpha 90
_cell_angle_beta 96.547(1)
_cell_angle_gamma 90
_cell_volume 1575.53
_cell_formula_units_Z 12
_symmetry_space_group_name_H-M 'C 1 c 1'
_symmetry_Int_Tables_number 9
_refine_ls_R_factor_all 0.0328
loop_
_symmetry_equiv_pos_site_id
_symmetry_equiv_pos_as_xyz
1 'x, -y, z+1/2'
2 'x, y, z'
3 'x+1/2, -y+1/2, z+1/2'
4 'x+1/2, y+1/2, z'
loop_
_atom_type_symbol
_atom_type_oxidation_number
Fe3+ 3
V5+ 5
O2- -2
Li1+ 1
loop_
_atom_site_label
_atom_site_type_symbol
_atom_site_symmetry_multiplicity
_atom_site_Wyckoff_symbol
_atom_site_fract_x
_atom_site_fract_y
_atom_site_fract_z
_atom_site_B_iso_or_equiv
_atom_site_occupancy
_atom_site_attached_hydrogens
Fe1 Fe3+ 4 a 0.49889 0.80072 0.36826 0.007921 1. 0
Fe2 Fe3+ 4 a 0.85156 0.82494 0.5417 0.00809 1. 0
Fe3 Fe3+ 4 a 0.69964 0.30573 0.71176 0.008245 1. 0
V1 V5+ 4 a 0.4238 1.02662 0.17633 0.007979 1. 0
V2 V5+ 4 a 0.70455 0.96309 0.35716 0.0081 1. 0
V3 V5+ 4 a 0.57425 0.45767 0.51521 0.008222 1. 0
V4 V5+ 4 a 0.62672 0.95462 0.56703 0.007766 1. 0
V5 V5+ 4 a 0.27404 0.97422 0.40437 0.007395 1. 0
V6 V5+ 4 a 0.40598 0.45972 0.2403 0.007922 1. 0
O1 O2- 4 a 0.4794 0.3226 0.4852 0.011124 1. 0
O2 O2- 4 a 0.3234 1.1494 0.1467 0.011623 1. 0
O3 O2- 4 a 0.2372 0.9924 0.2878 0.010139 1. 0
O4 O2- 4 a 0.3942 0.4865 0.12 0.009944 1. 0
O5 O2- 4 a 0.4227 0.6411 0.2926 0.014144 1. 0
O6 O2- 4 a 0.2953 1.1601 0.4489 0.017244 1. 0
O7 O2- 4 a 0.5269 0.8842 0.6239 0.013603 1. 0
O8 O2- 4 a 0.6207 0.7893 0.3038 0.00994 1. 0
O9 O2- 4 a 0.5922 0.9684 0.4426 0.009498 1. 0
O10 O2- 4 a 0.6755 1.1358 0.307 0.013731 1. 0
O11 O2- 4 a 0.6619 1.1367 0.6087 0.014417 1. 0
O12 O2- 4 a 0.674 0.382 0.4572 0.014727 1. 0
O13 O2- 4 a 0.2932 0.3696 0.2783 0.010563 1. 0
O14 O2- 4 a 0.5034 0.3436 0.2737 0.013618 1. 0
O15 O2- 4 a 0.4545 1.0028 0.2937 0.01114 1. 0
O16 O2- 4 a 0.5417 0.6433 0.4736 0.015578 1. 0
O17 O2- 4 a 0.4042 0.8428 0.1296 0.015468 1. 0
O18 O2- 4 a 0.7884 0.9996 0.4533 0.011523 1. 0
O19 O2- 4 a 0.6144 0.4635 0.6326 0.01107 1. 0
O20 O2- 4 a 0.3761 0.8541 0.4337 0.012906 1. 0
O21 O2- 4 a 0.7179 0.8182 0.5967 0.01407 1. 0
Li1 Li1+ 4 a 0.6376 0.6777 0.7103 0.007729 1. 0
Li2 Li1+ 4 a 0.3365 0.3049 0.0355 0.033742 1. 0
Li3 Li1+ 4 a 0.5247 0.1853 0.3792 0.023574 1. 0
loop_
_atom_site_aniso_label
_atom_site_aniso_type_symbol
_atom_site_aniso_U_11
_atom_site_aniso_U_22
_atom_site_aniso_U_33
_atom_site_aniso_U_12
_atom_site_aniso_U_13
_atom_site_aniso_U_23
Fe1 Fe3+ 0.0069 0.0077 0.009 -0.0002 0.0002 0.0001
Fe2 Fe3+ 0.0075 0.0078 0.0088 0.0011 0.0002 -0.0004
Fe3 Fe3+ 0.0079 0.0087 0.0082 -0.0001 0.0012 0.
V1 V5+ 0.0068 0.0087 0.0084 0.0006 0.0007 0.0002
V2 V5+ 0.0082 0.0078 0.0082 -0.0002 0.0005 0.0002
V3 V5+ 0.0081 0.0084 0.008 -0.0002 0.0002 0.0005
V4 V5+ 0.0075 0.0087 0.007 -0.0001 0.0004 -0.0003
V5 V5+ 0.0074 0.008 0.0066 0.0007 0. 0.0002
V6 V5+ 0.0079 0.0081 0.0077 -0.0001 0.0006 0.0003
O1 O2- 0.0087 0.013 0.012 -0.003 0.0026 -0.0023
O2 O2- 0.0059 0.018 0.011 0.0033 0.0011 0.0053
O3 O2- 0.0123 0.011 0.007 -0.0016 0.0006 0.0016
O4 O2- 0.0126 0.0075 0.0091 -0.0001 -0.0015 0.003
O5 O2- 0.017 0.011 0.014 -0.0043 -0.0001 -0.0037
O6 O2- 0.02 0.013 0.018 -0.0022 -0.001 -0.0021
O7 O2- 0.0108 0.017 0.014 0.0029 0.0057 -0.003
O8 O2- 0.01 0.0105 0.0098 -0.0021 0.0032 -0.0025
O9 O2- 0.0097 0.0125 0.0062 -0.0012 0.0005 0.0008
O10 O2- 0.015 0.014 0.012 0. 0.0007 0.0024
O11 O2- 0.02 0.01 0.013 -0.0017 0.0008 -0.0003
O12 O2- 0.0158 0.0137 0.0157 0.0025 0.0062 -0.001
O13 O2- 0.0095 0.0106 0.012 -0.0014 0.003 -0.0013
O14 O2- 0.0107 0.015 0.015 0.0038 0.0008 0.0044
O15 O2- 0.0139 0.011 0.008 0.0011 -0.001 0.0001
O16 O2- 0.02 0.013 0.013 0.0036 -0.0013 0.0041
O17 O2- 0.021 0.01 0.015 -0.0028 0.0003 -0.0053
O18 O2- 0.0133 0.011 0.0093 0.0015 -0.0029 -0.0008
O19 O2- 0.0094 0.013 0.01 0.002 -0.0024 -0.0008
O20 O2- 0.014 0.013 0.012 0.0031 0.0027 0.002
O21 O2- 0.0093 0.014 0.019 0.0006 0.002 0.0053
Li1 Li1+ 0.008 0.007 0.008 -0.0001 0.0001 -0.0011
Li2 Li1+ 0.036 0.033 0.032 0.0001 0.0029 0.
Li3 Li1+ 0.039 0.022 0.01 0.012 0.004 0.
#End of TTdata_254331-ICSD