
#(C) 2018 by FIZ Karlsruhe - Leibniz Institute for Information Infrastructure.  All rights reserved.
data_254737-ICSD
_database_code_ICSD 254737
_audit_creation_date 2018-02-01
_chemical_name_systematic 'Heptalithium tris(tellurate(IV) fluoride'
_chemical_formula_structural 'Li7 (Te O3)3 F'
_chemical_formula_sum 'F1 Li7 O9 Te3'
_exptl_crystal_density_diffrn 3.61
_cell_measurement_temperature 293.
_publ_section_title

;
Li7(TeO3)3F. A lithium fluoride tellurite with large second harmonic
generation responses and a short ultraviolet cutoff edge
;
loop_
_citation_id
_citation_journal_full
_citation_year
_citation_journal_volume
_citation_page_first
_citation_page_last
_citation_journal_id_ASTM
primary 'Inorganic Chemistry' 2017 56 14697 14705 INOCAJ
loop_
_publ_author_name
'Feng, Jiang-He'
'Hu, Chun-Li'
'Xia, Hou-Ping'
'Kong, Fang'
'Mao, Jiang-Gao'
_cell_length_a 11.4178(7)
_cell_length_b 11.4178(7)
_cell_length_c 4.8433(5)
_cell_angle_alpha 90.
_cell_angle_beta 90.
_cell_angle_gamma 120.
_cell_volume 546.81
_cell_formula_units_Z 2
_symmetry_space_group_name_H-M 'P 63'
_symmetry_Int_Tables_number 173
_refine_ls_R_factor_all 0.0234
loop_
_symmetry_equiv_pos_site_id
_symmetry_equiv_pos_as_xyz
1 'x-y, x, z+1/2'
2 'y, -x+y, z+1/2'
3 '-x, -y, z+1/2'
4 '-x+y, -x, z'
5 '-y, x-y, z'
6 'x, y, z'
loop_
_atom_type_symbol
_atom_type_oxidation_number
Li1+ 1
Te4+ 4
O2- -2
F1- -1
loop_
_atom_site_label
_atom_site_type_symbol
_atom_site_symmetry_multiplicity
_atom_site_Wyckoff_symbol
_atom_site_fract_x
_atom_site_fract_y
_atom_site_fract_z
_atom_site_B_iso_or_equiv
_atom_site_occupancy
_atom_site_attached_hydrogens
Li1 Li1+ 6 c 0.4945(9) 0.2058(9) 0.616(5) 0.0152(19) 1 0
Li2 Li1+ 6 c 0.5565(9) -0.0307(9) 0.620(7) 0.020(2) 1 0
Li3 Li1+ 2 b 0.6667 0.3333 0.130(11) 0.008(3) 1 0
Te1 Te4+ 6 c 0.23725(3) -0.09399(3) 0.6185(4) 0.01094(18) 1 0
O1 O2- 6 c 0.4193(4) 0.0152(4) 0.5265(8) 0.0128(11) 1 0
O2 O2- 6 c 0.2569(5) -0.0998(5) 0.9970(12) 0.0164(12) 1 0
O3 O2- 6 c 0.2138(5) -0.2636(5) 0.5277(8) 0.0150(11) 1 0
F1 F1- 2 b 0.6667 0.3333 0.5219(12) 0.0143(15) 1 0
loop_
_atom_site_aniso_label
_atom_site_aniso_type_symbol
_atom_site_aniso_U_11
_atom_site_aniso_U_22
_atom_site_aniso_U_33
_atom_site_aniso_U_12
_atom_site_aniso_U_13
_atom_site_aniso_U_23
Li1 Li1+ 0.018(3) 0.012(3) 0.013(3) 0.006(2) 0.001(3) -0.001(3)
Li2 Li1+ 0.020(3) 0.021(3) 0.021(3) 0.012(2) -0.002(3) 0.002(3)
Li3 Li1+ 0.009(4) 0.009(4) 0.006(8) 0.005(2) 0. 0.
Te1 Te4+ 0.0111(2) 0.0107(2) 0.0109(2) 0.00541(15) -0.0010(5) -0.0004(4)
O1 O2- 0.012(2) 0.012(2) 0.015(3) 0.007(2) -0.0011(16) -0.0016(16)
O2 O2- 0.023(3) 0.014(3) 0.008(2) 0.005(2) 0.000(2) -0.0022(17)
O3 O2- 0.015(2) 0.012(2) 0.016(2) 0.006(2) -0.0001(17) 0.0038(17)
F1 F1- 0.014(2) 0.014(2) 0.014(3) 0.0071(10) 0. 0.
#End of TTdata_254737-ICSD