
#(C) 2017 by FIZ Karlsruhe - Leibniz Institute for Information Infrastructure.  All rights reserved.
data_25668-ICSD
_database_code_ICSD 25668
_audit_creation_date 1980-01-01
_audit_update_record 1988-05-18
_chemical_name_systematic 'Lithium tribismuth tetraoxide dichloride'
_chemical_formula_structural 'Li Bi3 O4 Cl2'
_chemical_formula_sum 'Bi3 Cl2 Li1 O4'
_chemical_name_structure_type LiBi3O4Cl2
_exptl_crystal_density_diffrn 7.2
_publ_section_title
'Roentgenuntersuchung von Li Bi3 O4 Cl2 und verwandten Stoffen'
loop_
_citation_id
_citation_journal_full
_citation_year
_citation_journal_volume
_citation_page_first
_citation_page_last
_citation_journal_id_ASTM
primary 'Zeitschrift fuer Anorganische und Allgemeine Chemie (1950) (DE)' 1939
242 41 46 ZAACAB
loop_
_publ_author_name
'Sillen, L.G.'
_cell_length_a 3.84
_cell_length_b 3.84
_cell_length_c 12.03
_cell_angle_alpha 90.
_cell_angle_beta 90.
_cell_angle_gamma 90.
_cell_volume 177.39
_cell_formula_units_Z 1
_symmetry_space_group_name_H-M 'I 4/m m m'
_symmetry_Int_Tables_number 139
loop_
_symmetry_equiv_pos_site_id
_symmetry_equiv_pos_as_xyz
1 'y, x, -z'
2 '-y, -x, -z'
3 '-y, x, -z'
4 'y, -x, -z'
5 '-x, y, -z'
6 'x, -y, -z'
7 'x, y, -z'
8 '-x, -y, -z'
9 '-y, -x, z'
10 'y, x, z'
11 'y, -x, z'
12 '-y, x, z'
13 'x, -y, z'
14 '-x, y, z'
15 '-x, -y, z'
16 'x, y, z'
17 'y+1/2, x+1/2, -z+1/2'
18 '-y+1/2, -x+1/2, -z+1/2'
19 '-y+1/2, x+1/2, -z+1/2'
20 'y+1/2, -x+1/2, -z+1/2'
21 '-x+1/2, y+1/2, -z+1/2'
22 'x+1/2, -y+1/2, -z+1/2'
23 'x+1/2, y+1/2, -z+1/2'
24 '-x+1/2, -y+1/2, -z+1/2'
25 '-y+1/2, -x+1/2, z+1/2'
26 'y+1/2, x+1/2, z+1/2'
27 'y+1/2, -x+1/2, z+1/2'
28 '-y+1/2, x+1/2, z+1/2'
29 'x+1/2, -y+1/2, z+1/2'
30 '-x+1/2, y+1/2, z+1/2'
31 '-x+1/2, -y+1/2, z+1/2'
32 'x+1/2, y+1/2, z+1/2'
loop_
_atom_type_symbol
_atom_type_oxidation_number
Li1+ 1
Bi3+ 3
O2- -2
Cl1- -1
loop_
_atom_site_label
_atom_site_type_symbol
_atom_site_symmetry_multiplicity
_atom_site_Wyckoff_symbol
_atom_site_fract_x
_atom_site_fract_y
_atom_site_fract_z
_atom_site_B_iso_or_equiv
_atom_site_occupancy
_atom_site_attached_hydrogens
Li1 Li1+ 4 e 0 0 0.154(2) . 0.25 0
Bi1 Bi3+ 4 e 0 0 0.154(2) . 0.75 0
O1 O2- 4 d 0 0.5 0.25 . 1. 0
Cl1 Cl1- 2 b 0 0 0.5 . 1. 0
#End of TTdata_25668-ICSD