
#(C) 2018 by FIZ Karlsruhe - Leibniz Institute for Information Infrastructure.  All rights reserved.
data_257269-ICSD
_database_code_ICSD 257269
_audit_creation_date 2018-02-01
_chemical_name_systematic 'Lithium zinc cobalt borate - alpha phase'
_chemical_formula_structural 'Li Zn0.9 Co0.1 B O3'
_chemical_formula_sum 'B1 Co0.1 Li1 O3 Zn0.9'
_exptl_crystal_density_diffrn 3.59
_publ_section_title

;
Developing intense blue and magenta colors in alpha-LiZnBO3: The role of
3d-metal substitution and coordination
;
loop_
_citation_id
_citation_journal_full
_citation_year
_citation_journal_volume
_citation_page_first
_citation_page_last
_citation_journal_id_ASTM
primary 'Chemistry - an Asian Journal' 2016 11 3234 3240 CAAJBI
loop_
_publ_author_name
'Tamilarasan, S.'
'Reddy, M.L.P.'
'Natarajan, S.'
'Gopalakrishnan, J.'
_cell_length_a 8.780(1)
_cell_length_b 5.104(1)
_cell_length_c 6.137(1)
_cell_angle_alpha 90.
_cell_angle_beta 118.89(2)
_cell_angle_gamma 90.
_cell_volume 240.79
_cell_formula_units_Z 4
_symmetry_space_group_name_H-M 'C 1 2/c 1'
_symmetry_Int_Tables_number 15
_refine_ls_R_factor_all 0.0202
loop_
_symmetry_equiv_pos_site_id
_symmetry_equiv_pos_as_xyz
1 'x, -y, z+1/2'
2 '-x, -y, -z'
3 '-x, y, -z+1/2'
4 'x, y, z'
5 'x+1/2, -y+1/2, z+1/2'
6 '-x+1/2, -y+1/2, -z'
7 '-x+1/2, y+1/2, -z+1/2'
8 'x+1/2, y+1/2, z'
loop_
_atom_type_symbol
_atom_type_oxidation_number
Li1+ 1
Zn2+ 2
Co2+ 2
B3+ 3
O2- -2
loop_
_atom_site_label
_atom_site_type_symbol
_atom_site_symmetry_multiplicity
_atom_site_Wyckoff_symbol
_atom_site_fract_x
_atom_site_fract_y
_atom_site_fract_z
_atom_site_B_iso_or_equiv
_atom_site_occupancy
_atom_site_attached_hydrogens
Li1 Li1+ 8 f 0.348(3) 0.597(5) 0.792(5) 0.037(1) 0.5 0
Zn1 Zn2+ 8 f 0.317(2) 0.569(3) 0.708(3) 0.031(5) 0.45(1) 0
Co1 Co2+ 8 f 0.317(2) 0.569(3) 0.708(3) 0.031(5) 0.05(1) 0
B1 B3+ 4 e 0. 0.412(2) 0.25 0.020(3) 1. 0
O1 O2- 8 f 0.149(3) 0.555(6) 0.306(5) 0.012(1) 1. 0
O2 O2- 4 e 0. 0.153(1) 0.25 0.028(2) 1. 0
#End of TTdata_257269-ICSD