
#(C) 2018 by FIZ Karlsruhe - Leibniz Institute for Information Infrastructure.  All rights reserved.
data_257567-ICSD
_database_code_ICSD 257567
_audit_creation_date 2018-02-01
_chemical_name_systematic 'Lithium nickel(II/III) ruthenium(V) oxide'
_chemical_formula_structural 'Li5 Ni1.5 Ru1.5 O8'
_chemical_formula_sum 'Li5 Ni1.5 O8 Ru1.5'
_chemical_name_structure_type Li2SnO3
_exptl_crystal_density_diffrn 4.65
_publ_section_title

;
Synthesis, structure and electrochemical behaviour of new Ru-containing
lithium-rich layered oxides
;
loop_
_citation_id
_citation_journal_full
_citation_year
_citation_journal_volume
_citation_page_first
_citation_page_last
_citation_journal_id_ASTM
primary 'Solid State Ionics' 2016 297 49 58 SSIOD3
loop_
_publ_author_name
'Tamilarasan, S.'
'Mukherjee, Debdyuti'
'Sampath, S.'
'Natarajan, S.'
'Gopalakrishnan, J.'
_cell_length_a 5.088(1)
_cell_length_b 8.823(1)
_cell_length_c 9.745(1)
_cell_angle_alpha 90.
_cell_angle_beta 100.08(1)
_cell_angle_gamma 90
_cell_volume 430.71
_cell_formula_units_Z 3
_symmetry_space_group_name_H-M 'C 1 2/c 1'
_symmetry_Int_Tables_number 15
_refine_ls_R_factor_all 0.0171
loop_
_symmetry_equiv_pos_site_id
_symmetry_equiv_pos_as_xyz
1 'x, -y, z+1/2'
2 '-x, -y, -z'
3 '-x, y, -z+1/2'
4 'x, y, z'
5 'x+1/2, -y+1/2, z+1/2'
6 '-x+1/2, -y+1/2, -z'
7 '-x+1/2, y+1/2, -z+1/2'
8 'x+1/2, y+1/2, z'
loop_
_atom_type_symbol
_atom_type_oxidation_number
Li1+ 1
Ni2+ 2.33
Ru6+ 6
Li1+ 1
Ni2+ 2.33
Ru5+ 5
Li1+ 1
Ni2+ 2.33
Ru5+ 5
Li1+ 1
Ni2+ 2.33
Ru6+ 6
O2- -2
loop_
_atom_site_label
_atom_site_type_symbol
_atom_site_symmetry_multiplicity
_atom_site_Wyckoff_symbol
_atom_site_fract_x
_atom_site_fract_y
_atom_site_fract_z
_atom_site_B_iso_or_equiv
_atom_site_occupancy
_atom_site_attached_hydrogens
Li1 Li1+ 8 f 0.243(7) 0.080(4) 0.012(3) 0.062(1) 1. 0
Li2 Li1+ 4 d 0.25 0.25 0.5 0.054(1) 0.94(1) 0
Ni1 Ni2+ 4 d 0.25 0.25 0.5 0.054(1) 0.02(1) 0
Ru1 Ru6+ 4 d 0.25 0.25 0.5 0.054(1) 0.03(1) 0
Li3 Li1+ 4 e 0 0.092(1) 0.25 0.011(1) 0.34(1) 0
Ni2 Ni2+ 4 e 0 0.092(1) 0.25 0.011(1) 0.33(1) 0
Ru2 Ru5+ 4 e 0 0.092(1) 0.25 0.011(1) 0.33(1) 0
Li4 Li1+ 4 e 0 0.411(1) 0.25 0.009(1) 0.23(1) 0
Ni3 Ni2+ 4 e 0 0.411(1) 0.25 0.009(1) 0.39(1) 0
Ru3 Ru5+ 4 e 0 0.411(1) 0.25 0.009(1) 0.38(1) 0
Li5 Li1+ 4 e 0 0.747(1) 0.25 0.021(1) 0.24(1) 0
Ni4 Ni2+ 4 e 0 0.747(1) 0.25 0.021(1) 0.38(1) 0
Ru4 Ru6+ 4 e 0 0.747(1) 0.25 0.021(1) 0.38(1) 0
O1 O2- 8 f 0.156(4) 0.255(2) 0.124(1) 0.005(2) 1. 0
O2 O2- 8 f 0.109(4) 0.586(2) 0.133(1) 0.008(1) 1. 0
O3 O2- 8 f 0.141(3) 0.895(2) 0.140(1) 0.005(1) 1. 0
#End of TTdata_257567-ICSD