
#(C) 2018 by FIZ Karlsruhe - Leibniz Institute for Information Infrastructure.  All rights reserved.
data_260199-ICSD
_database_code_ICSD 260199
_audit_creation_date 2009-08-01
_chemical_name_systematic

;
Trilithium(I) aluminium(III) bis(dioxidomolybdenum(VI)) dioxide
bis(arsenate(V))
;
_chemical_formula_structural 'Li3 Al (Mo O2)2 O2 (As O4)2'
_chemical_formula_sum 'Al1 As2 Li3 Mo2 O14'
_exptl_crystal_density_diffrn 4.09
_cell_measurement_temperature 298.
_publ_section_title 'Li3 Al (Mo O2)2 O2 (As O4)2'
loop_
_citation_id
_citation_journal_full
_citation_year
_citation_journal_volume
_citation_page_first
_citation_page_last
_citation_journal_id_ASTM
primary 'Acta Crystallographica, Section E: Structure Reports Online' 2009 65
i21 i21 ACSEBH
loop_
_publ_author_name
'Hajji, M.'
'Zid, M.F.'
'Driss, A.'
_cell_length_a 5.2130(10)
_cell_length_b 5.4260(10)
_cell_length_c 9.474(2)
_cell_angle_alpha 95.98(2)
_cell_angle_beta 102.250(10)
_cell_angle_gamma 105.300(10)
_cell_volume 248.92
_cell_formula_units_Z 1
_symmetry_space_group_name_H-M 'P -1'
_symmetry_Int_Tables_number 2
_refine_ls_R_factor_all 0.0126
loop_
_symmetry_equiv_pos_site_id
_symmetry_equiv_pos_as_xyz
1 '-x, -y, -z'
2 'x, y, z'
loop_
_atom_type_symbol
_atom_type_oxidation_number
Mo6+ 6
As5+ 5
Al3+ 3
Li1+ 1
O2- -2
loop_
_atom_site_label
_atom_site_type_symbol
_atom_site_symmetry_multiplicity
_atom_site_Wyckoff_symbol
_atom_site_fract_x
_atom_site_fract_y
_atom_site_fract_z
_atom_site_B_iso_or_equiv
_atom_site_occupancy
_atom_site_attached_hydrogens
Mo1 Mo6+ 2 i 0.49876(4) 0.84099(4) 0.35495(2) 0.00633(9) 1 0
As1 As5+ 2 i 0.15020(5) 0.23501(5) 0.17692(3) 0.00601(10) 1 0
Al1 Al3+ 1 d 0.5 0. 0. 0.0026(2) 1 0
Li1 Li1+ 1 g 0. 0.5 0.5 0.0225(16) 1 0
Li2 Li1+ 2 i 0.8077(14) 0.6121(14) 0.1486(9) 0.0392(16) 1 0
O1 O2- 2 i 0.6756(4) 0.1635(4) 0.4618(2) 0.0099(4) 1 0
O2 O2- 2 i 0.7195(4) 0.6684(4) 0.4132(2) 0.0132(4) 1 0
O3 O2- 2 i 0.4158(4) 0.2923(4) 0.0959(2) 0.0109(4) 1 0
O4 O2- 2 i 0.8654(4) 0.2067(4) 0.0441(2) 0.0110(4) 1 0
O5 O2- 2 i 0.5596(4) 0.8659(4) 0.1781(2) 0.0098(4) 1 0
O6 O2- 2 i 0.1363(4) -0.0156(4) 0.2672(2) 0.0101(4) 1 0
O7 O2- 2 i 0.1633(4) 0.5095(4) 0.2895(2) 0.0106(4) 1 0
loop_
_atom_site_aniso_label
_atom_site_aniso_type_symbol
_atom_site_aniso_U_11
_atom_site_aniso_U_22
_atom_site_aniso_U_33
_atom_site_aniso_U_12
_atom_site_aniso_U_13
_atom_site_aniso_U_23
Mo1 Mo6+ 0.00695(13) 0.00664(13) 0.00518(13) 0.00175(8) 0.00146(8) 0.00074(8)
As1 As5+ 0.00626(14) 0.00629(14) 0.00524(14) 0.00179(10) 0.00123(10) 0.00057(9)
Al1 Al3+ 0.0027(5) 0.0038(4) 0.0011(4) 0.0005(4) 0.0004(3) 0.0002(3)
Li1 Li1+ 0.018(4) 0.018(4) 0.031(4) 0.007(3) -0.001(3) 0.011(3)
Li2 Li1+ 0.031(3) 0.031(3) 0.063(5) 0.017(3) 0.014(3) 0.017(3)
O1 O2- 0.0108(9) 0.0086(9) 0.0086(8) 0.0001(7) 0.0024(7) 0.0012(7)
O2 O2- 0.0137(10) 0.0127(9) 0.0146(10) 0.0055(8) 0.0035(8) 0.0044(8)
O3 O2- 0.0115(9) 0.0094(9) 0.0126(9) 0.0020(7) 0.0067(7) 0.0010(7)
O4 O2- 0.0086(9) 0.0135(9) 0.0092(9) 0.0025(7) -0.0009(7) 0.0025(7)
O5 O2- 0.0093(9) 0.0115(9) 0.0083(9) 0.0020(7) 0.0025(7) 0.0020(7)
O6 O2- 0.0099(9) 0.0110(9) 0.0114(9) 0.0044(7) 0.0032(7) 0.0061(7)
O7 O2- 0.0109(9) 0.0086(9) 0.0108(9) 0.0004(7) 0.0048(7) -0.0023(7)
#End of TTdata_260199-ICSD