
#(C) 2018 by FIZ Karlsruhe - Leibniz Institute for Information Infrastructure.  All rights reserved.
data_261381-ICSD
_database_code_ICSD 261381
_audit_creation_date 2011-08-01
_chemical_name_systematic
'Hexaammino aluminium dilithium pentakis(borotetrahydride)'
_chemical_formula_structural '(Al (N H3)6) (Li2 (B H4)5)'
_chemical_formula_sum 'H38 Al1 B5 Li2 N6'
_exptl_crystal_density_diffrn 0.86
_cell_measurement_temperature 298.
_publ_section_title
'Dehydrogenation tuning of ammine borohydrides using double-metal cations'
loop_
_citation_id
_citation_journal_full
_citation_year
_citation_journal_volume
_citation_page_first
_citation_page_last
_citation_journal_id_ASTM
primary 'Journal of the American Chemical Society' 2011 133 4690 4693 JACSAT
loop_
_publ_author_name
'Guo Yanhui'
'Wu Hui'
'Zhou Wei'
'Yu Xuebin'
_cell_length_a 7.79779
_cell_length_b 7.79779
_cell_length_c 15.96933(17)
_cell_angle_alpha 90.
_cell_angle_beta 90.
_cell_angle_gamma 120.
_cell_volume 840.93
_cell_formula_units_Z 2
_symmetry_space_group_name_H-M 'P -3 c 1'
_symmetry_Int_Tables_number 165
_refine_ls_R_factor_all 0.0138
loop_
_symmetry_equiv_pos_site_id
_symmetry_equiv_pos_as_xyz
1 'x-y, -y, -z+1/2'
2 '-x, -x+y, -z+1/2'
3 'y, x, -z+1/2'
4 'x-y, x, -z'
5 'y, -x+y, -z'
6 '-x, -y, -z'
7 '-x+y, y, z+1/2'
8 'x, x-y, z+1/2'
9 '-y, -x, z+1/2'
10 '-x+y, -x, z'
11 '-y, x-y, z'
12 'x, y, z'
loop_
_atom_type_symbol
_atom_type_oxidation_number
N3- -3
H1+ 1
B3+ 3
H1- -1
B3+ 3
H1- -1
Al3+ 3
Li1+ 1
loop_
_atom_site_label
_atom_site_type_symbol
_atom_site_symmetry_multiplicity
_atom_site_Wyckoff_symbol
_atom_site_fract_x
_atom_site_fract_y
_atom_site_fract_z
_atom_site_B_iso_or_equiv
_atom_site_occupancy
_atom_site_attached_hydrogens
N1 N3- 12 g 0.1706 0.93181 0.57508 0.03552 1. 0
H1 H1+ 12 g 0.12053 0.86782 0.63328 0.04592 1. 0
H2 H1+ 12 g 0.21047 0.83979 0.54469 0.04592 1. 0
H3 H1+ 12 g 0.30277 1.06059 0.58676 0.04592 1. 0
B1 B3+ 6 f 0.62513 0.62513 0.25 0.02247 1. 0
H4 H1- 12 g 0.58223 0.48199 0.29553 0.0663 1. 0
H5 H1- 12 g 0.66373 0.77047 0.29334 0.0663 1. 0
B2 B3+ 4 d 0.33333 0.66667 0.45445 0.0238 1. 0
H6 H1- 4 d 0.33333 0.66667 0.53148 0.06293 1. 0
H7 H1- 12 g 0.36923 0.83001 0.42874 0.06293 1. 0
Al1 Al3+ 2 b 0. 0. 0.5 0.01549 1. 0
Li1 Li1+ 4 d 0.33333 0.66667 0.28642 0.03245 1. 0
#End of TTdata_261381-ICSD