
#(C) 2017 by FIZ Karlsruhe - Leibniz Institute for Information Infrastructure.  All rights reserved.
data_261343-ICSD
_database_code_ICSD 261343
_audit_creation_date 2011-08-01
_chemical_name_systematic 'Lithium zinc sulfate(VI) fluoride'
_chemical_formula_structural 'Li Zn (S O4) F'
_chemical_formula_sum 'F1 Li1 O4 S1 Zn1'
_exptl_crystal_density_diffrn 3.58
_publ_section_title

;
Li Zn S O4 F made in an ionic liquid: A ceramic electrolyte composite for
solid-state lithium batteries
;
loop_
_citation_id
_citation_journal_full
_citation_year
_citation_journal_volume
_citation_page_first
_citation_page_last
_citation_journal_id_ASTM
primary 'Angewandte Chemie. International Edition' 2011 50 2526 2531 ACIEF5
loop_
_publ_author_name
'Barpanda, P.'
'Chotard, J.N.'
'Delacourt, C.'
'Reynaud, M.'
'Filinchuk, Ya.'
'Armand, M.'
'Deschamps, M.'
'Tarascon, J.M.'
_cell_length_a 7.40357(9)
_cell_length_b 6.32995(7)
_cell_length_c 7.42016(9)
_cell_angle_alpha 90.
_cell_angle_beta 90.
_cell_angle_gamma 90.
_cell_volume 347.74
_cell_formula_units_Z 4
_symmetry_space_group_name_H-M 'P n m a'
_symmetry_Int_Tables_number 62
_refine_ls_R_factor_all 0.0326
loop_
_symmetry_equiv_pos_site_id
_symmetry_equiv_pos_as_xyz
1 'x+1/2, y, -z+1/2'
2 'x, -y+1/2, z'
3 '-x+1/2, y+1/2, z+1/2'
4 '-x, -y, -z'
5 '-x+1/2, -y, z+1/2'
6 '-x, y+1/2, -z'
7 'x+1/2, -y+1/2, -z+1/2'
8 'x, y, z'
loop_
_atom_type_symbol
_atom_type_oxidation_number
Li1+ 1
Zn2+ 2
F1- -1
S6+ 6
O2- -2
loop_
_atom_site_label
_atom_site_type_symbol
_atom_site_symmetry_multiplicity
_atom_site_Wyckoff_symbol
_atom_site_fract_x
_atom_site_fract_y
_atom_site_fract_z
_atom_site_B_iso_or_equiv
_atom_site_occupancy
_atom_site_attached_hydrogens
Li1 Li1+ 4 a 0 0 0 . 1. 0
Zn1 Zn2+ 4 c 0.14345(18) 0.25 0.29262(14) . 1. 0
F1 F1- 4 c 0.4011(7) 0.25 0.3660(3) . 1. 0
S1 S6+ 4 c 0.3623(4) 0.25 0.8589(3) . 1. 0
O1 O2- 8 d 0.1270(5) 0.5625(4) 0.2352(3) . 1. 0
O2 O2- 4 c 0.2033(7) 0.25 -0.0239(5) . 1. 0
O3 O2- 4 c 0.0298(8) 0.25 0.5380(5) . 1. 0
#End of TTdata_261343-ICSD