
#(C) 2018 by FIZ Karlsruhe - Leibniz Institute for Information Infrastructure.  All rights reserved.
data_262048-ICSD
_database_code_ICSD 262048
_audit_creation_date 2012-02-01
_chemical_name_systematic 'Lithium iron silicate (2.04/0.96/1) - as prepared'
_chemical_formula_structural '(Li2.04 Fe0.96) Si O4'
_chemical_formula_sum 'Fe0.96 Li2.04 O4 Si1'
_chemical_name_structure_type Li2(Fe,Mn)SiO4
_exptl_crystal_density_diffrn 3.17
_publ_section_title

;
Structure and lithium transport pathways in Li2 Fe Si O4 cathodes for lithium
batteries
;
loop_
_citation_id
_citation_journal_full
_citation_year
_citation_journal_volume
_citation_page_first
_citation_page_last
_citation_journal_id_ASTM
primary 'Journal of the American Chemical Society' 2011 133 13031 13035 JACSAT
loop_
_publ_author_name
'Armstrong, A.R.'
'Kuganathan, N.'
'Islam, M.S.'
'Bruce, P.G.'
_cell_length_a 8.2385(6)
_cell_length_b 5.0034(2)
_cell_length_c 8.2338(6)
_cell_angle_alpha 90.
_cell_angle_beta 99.060(3)
_cell_angle_gamma 90.
_cell_volume 335.17
_cell_formula_units_Z 4
_symmetry_space_group_name_H-M 'P 1 21/n 1'
_symmetry_Int_Tables_number 14
_refine_ls_R_factor_all 0.0267
loop_
_symmetry_equiv_pos_site_id
_symmetry_equiv_pos_as_xyz
1 '-x+1/2, y+1/2, -z+1/2'
2 '-x, -y, -z'
3 'x+1/2, -y+1/2, z+1/2'
4 'x, y, z'
loop_
_atom_type_symbol
_atom_type_oxidation_number
Li1+ 1
Fe2+ 2
Li1+ 1
Fe2+ 2
Li1+ 1
Si4+ 4
O2- -2
loop_
_atom_site_label
_atom_site_type_symbol
_atom_site_symmetry_multiplicity
_atom_site_Wyckoff_symbol
_atom_site_fract_x
_atom_site_fract_y
_atom_site_fract_z
_atom_site_B_iso_or_equiv
_atom_site_occupancy
_atom_site_attached_hydrogens
Li1 Li1+ 4 e 0.6696(18) 0.782(3) 0.6661(17) 0.5 0.969 0
Fe1 Fe2+ 4 e 0.6696(18) 0.782(3) 0.6661(17) 0.5 0.031 0
Li2 Li1+ 4 e 0.5502(27) 0.198(5) 0.1014(21) 1.3(3) 0.96 0
Fe2 Fe2+ 4 e 0.5502(27) 0.198(5) 0.1014(21) 1.3(3) 0.04 0
Fe3 Fe2+ 4 e 0.2898(3) 0.7958(6) 0.5410(3) 0.46(3) 0.885 0
Li3 Li1+ 4 e 0.2898(3) 0.7958(6) 0.5410(3) 0.46(3) 0.115 0
Si1 Si4+ 4 e 0.0369(6) 0.8081(8) 0.7917(6) 0.24(4) 1. 0
O1 O2- 4 e 0.8591(4) 0.7018(10) 0.8213(4) 0.48(4) 1. 0
O2 O2- 4 e 0.4229(5) 0.2092(11) 0.8836(4) 0.66(5) 1. 0
O3 O2- 4 e 0.6891(6) 0.7758(8) 0.4339(6) 0.78(4) 1. 0
O4 O2- 4 e 0.9639(5) 0.8544(6) 0.2175(5) 0.71(4) 1. 0
#End of TTdata_262048-ICSD