
#(C) 2018 by FIZ Karlsruhe - Leibniz Institute for Information Infrastructure.  All rights reserved.
data_262378-ICSD
_database_code_ICSD 262378
_audit_creation_date 2012-08-01
_audit_update_record 2015-02-01
_chemical_name_systematic
'Lithium nonacerium hexadecamolybdenum pentatridecaoxide'
_chemical_formula_structural 'Li Ce9 Mo16 O35'
_chemical_formula_sum 'Ce9 Li1 Mo16 O35'
_chemical_name_structure_type LiCe9Mo16O35
_exptl_crystal_density_diffrn 7.37
_cell_measurement_temperature 293.
_publ_section_title 'Li Ce9 Mo16 O35'
loop_
_citation_id
_citation_journal_full
_citation_year
_citation_journal_volume
_citation_page_first
_citation_page_last
_citation_journal_id_ASTM
primary 'Acta Crystallographica, Section E: Structure Reports Online' 2012 68
i21 i22 ACSEBH
loop_
_publ_author_name
'Gougeon, P.'
'Gall, P.'
_cell_length_a 18.3000(2)
_cell_length_b 8.63260(10)
_cell_length_c 9.81720(10)
_cell_angle_alpha 90.
_cell_angle_beta 102.0953(7)
_cell_angle_gamma 90.
_cell_volume 1516.46
_cell_formula_units_Z 2
_symmetry_space_group_name_H-M 'C 1 2/m 1'
_symmetry_Int_Tables_number 12
_refine_ls_R_factor_all 0.0164
loop_
_symmetry_equiv_pos_site_id
_symmetry_equiv_pos_as_xyz
1 '-x, y, -z'
2 '-x, -y, -z'
3 'x, -y, z'
4 'x, y, z'
5 '-x+1/2, y+1/2, -z'
6 '-x+1/2, -y+1/2, -z'
7 'x+1/2, -y+1/2, z'
8 'x+1/2, y+1/2, z'
loop_
_atom_type_symbol
_atom_type_oxidation_number
Li1+ 1
Ce3+ 3
Mo2+ 2.63
O2- -2
loop_
_atom_site_label
_atom_site_type_symbol
_atom_site_symmetry_multiplicity
_atom_site_Wyckoff_symbol
_atom_site_fract_x
_atom_site_fract_y
_atom_site_fract_z
_atom_site_B_iso_or_equiv
_atom_site_occupancy
_atom_site_attached_hydrogens
Li1 Li1+ 2 a -0.5 -0.5 1. 0.038(4) 1 0
Ce1 Ce3+ 8 j -0.345982(8) -0.273486(15) 0.201055(12) 0.00556(3) 1 0
Ce2 Ce3+ 4 i -0.191529(11) -0.5 0.071345(17) 0.00625(4) 1 0
Ce3 Ce3+ 4 i -0.298077(11) 0. 0.534154(17) 0.00582(4) 1 0
Ce4 Ce3+ 2 b 0. -0.5 0. 0.00664(5) 1 0
Mo1 Mo2+ 4 i -0.290730(16) -0.5 0.74596(2) 0.00368(5) 1 0
Mo2 Mo2+ 8 j -0.401044(12) -0.33869(2) 0.828637(17) 0.00338(4) 1 0
Mo3 Mo2+ 8 j -0.388827(11) -0.34166(2) 0.551746(17) 0.00319(4) 1 0
Mo4 Mo2+ 8 j -0.000772(11) -0.31629(2) 0.357312(17) 0.00311(4) 1 0
Mo5 Mo2+ 4 i -0.490663(16) -0.5 0.35678(2) 0.00316(5) 1 0
O1 O2- 4 i -0.17701(15) -0.5 0.8112(2) 0.0070(4) 1 0
O2 O2- 8 j -0.28523(11) -0.3349(2) 0.88711(16) 0.0064(3) 1 0
O3 O2- 8 j -0.10014(11) -0.6759(2) 0.02198(16) 0.0062(3) 1 0
O4 O2- 8 j -0.27246(11) -0.3355(2) 0.60863(16) 0.0059(3) 1 0
O5 O2- 8 j -0.38352(11) -0.1616(2) 0.69257(16) 0.0051(3) 1 0
O6 O2- 4 i 0.00695(16) -0.5 0.2346(2) 0.0066(4) 1 0
O7 O2- 4 i -0.40015(16) -0.5 0.9860(2) 0.0067(4) 1 0
O8 O2- 8 j -0.38482(10) -0.1769(2) 0.40574(15) 0.0050(3) 1 0
O9 O2- 2 d 0. -0.5 0.5 0.0059(6) 1 0
O10 O2- 8 j -0.51815(10) -0.33622(19) 0.79643(16) 0.0050(3) 1 0
O11 O2- 4 i -0.37455(15) -0.5 0.3998(2) 0.0052(4) 1 0
O12 O2- 4 i -0.26903(15) -0.5 0.2327(2) 0.0063(4) 1 0
loop_
_atom_site_aniso_label
_atom_site_aniso_type_symbol
_atom_site_aniso_U_11
_atom_site_aniso_U_22
_atom_site_aniso_U_33
_atom_site_aniso_U_12
_atom_site_aniso_U_13
_atom_site_aniso_U_23
Li1 Li1+ 0.007(6) 0.070(12) 0.037(7) 0. 0.005(5) 0.
Ce1 Ce3+ 0.00563(6) 0.00466(5) 0.00630(5) 0.00095(4) 0.00106(4) 0.00077(3)
Ce2 Ce3+ 0.00587(9) 0.00703(8) 0.00639(6) 0. 0.00251(5) 0.
Ce3 Ce3+ 0.00568(9) 0.00564(7) 0.00553(6) 0. -0.00025(5) 0.
Ce4 Ce3+ 0.00575(12) 0.00932(11) 0.00530(9) 0. 0.00216(7) 0.
Mo1 Mo2+ 0.00269(12) 0.00349(10) 0.00447(9) 0. -0.00012(7) 0.
Mo2 Mo2+ 0.00339(9) 0.00276(7) 0.00372(6) 0.00000(6) 0.00011(5) -0.00036(5)
Mo3 Mo2+ 0.00291(9) 0.00265(7) 0.00385(6) -0.00007(6) 0.00036(5) 0.00014(5)
Mo4 Mo2+ 0.00306(9) 0.00221(7) 0.00386(6) -0.00005(6) 0.00029(5) -0.00010(5)
Mo5 Mo2+ 0.00309(12) 0.00254(10) 0.00372(9) 0. 0.00047(7) 0.
O1 O2- 0.0034(11) 0.0067(10) 0.0095(9) 0. -0.0014(7) 0.
O2 O2- 0.0061(8) 0.0056(7) 0.0068(6) 0.0004(6) -0.0004(5) -0.0021(5)
O3 O2- 0.0073(8) 0.0050(7) 0.0063(6) 0.0000(6) 0.0010(5) 0.0013(5)
O4 O2- 0.0038(8) 0.0062(7) 0.0077(6) -0.0006(6) 0.0010(5) 0.0006(5)
O5 O2- 0.0044(8) 0.0043(7) 0.0062(6) -0.0001(6) 0.0006(5) 0.0000(5)
O6 O2- 0.0110(12) 0.0039(10) 0.0047(8) 0. 0.0013(7) 0.
O7 O2- 0.0089(12) 0.0051(10) 0.0058(8) 0. 0.0011(7) 0.
O8 O2- 0.0039(8) 0.0051(7) 0.0055(6) -0.0001(6) 0.0000(5) 0.0009(5)
O9 O2- 0.0100(17) 0.0036(13) 0.0041(11) 0. 0.0014(10) 0.
O10 O2- 0.0037(8) 0.0041(7) 0.0073(6) -0.0001(6) 0.0013(5) 0.0000(5)
O11 O2- 0.0046(11) 0.0060(10) 0.0053(8) 0. 0.0017(7) 0.
O12 O2- 0.0063(12) 0.0063(10) 0.0060(8) 0. 0.0002(7) 0.
#End of TTdata_262378-ICSD