
#(C) 2018 by FIZ Karlsruhe - Leibniz Institute for Information Infrastructure.  All rights reserved.
data_262643-ICSD
_database_code_ICSD 262643
_audit_creation_date 2012-08-01
_chemical_name_systematic 'Diindium dilithium germanium hexasulfide'
_chemical_formula_structural 'In2 Li2 Ge S6'
_chemical_formula_sum 'Ge1 In2 Li2 S6'
_chemical_name_structure_type Cd4GeS6
_exptl_crystal_density_diffrn 3.44
_cell_measurement_temperature 296.
_publ_section_title

;
Synthesis, structure, and properties of Li2 In2 M Q6 (M = Si, Ge; Q = S, Se):
a new series of IR nonlinear optical materials
;
loop_
_citation_id
_citation_journal_full
_citation_year
_citation_journal_volume
_citation_page_first
_citation_page_last
_citation_journal_id_ASTM
primary 'Inorganic Chemistry' 2012 51 5839 5843 INOCAJ
loop_
_publ_author_name
'Yin Wenlong'
'Feng Kai'
'Hao Wenyu'
'Yao Jiyong'
'Wu Yicheng'
_cell_length_a 12.165(2)
_cell_length_b 7.0840(14)
_cell_length_c 12.131(2)
_cell_angle_alpha 90.
_cell_angle_beta 110.26(3)
_cell_angle_gamma 90.
_cell_volume 980.73
_cell_formula_units_Z 4
_symmetry_space_group_name_H-M 'C 1 c 1'
_symmetry_Int_Tables_number 9
_refine_ls_R_factor_all 0.0215
loop_
_symmetry_equiv_pos_site_id
_symmetry_equiv_pos_as_xyz
1 'x, -y, z+1/2'
2 'x, y, z'
3 'x+1/2, -y+1/2, z+1/2'
4 'x+1/2, y+1/2, z'
loop_
_atom_type_symbol
_atom_type_oxidation_number
Li1+ 1
In3+ 3
Ge4+ 4
S2- -2
loop_
_atom_site_label
_atom_site_type_symbol
_atom_site_symmetry_multiplicity
_atom_site_Wyckoff_symbol
_atom_site_fract_x
_atom_site_fract_y
_atom_site_fract_z
_atom_site_B_iso_or_equiv
_atom_site_occupancy
_atom_site_attached_hydrogens
Li1 Li1+ 4 a 0.7937(8) 0.7982(14) 0.3412(8) 0.0209(19) 1 0
Li2 Li1+ 4 a 1.0005(8) 0.6001(12) 0.9958(8) 0.0177(18) 1 0
In1 In3+ 4 a 0.97846(2) 0.90594(4) 0.68719(2) 0.00900(8) 1 0
In2 In3+ 4 a 0.65670(2) 0.57444(4) 0.99327(2) 0.00891(7) 1 0
Ge1 Ge4+ 4 a 0.72633(4) 0.73417(6) 0.74845(4) 0.00648(10) 1 0
S1 S2- 4 a 0.98571(10) 0.75406(15) 0.50757(11) 0.0092(2) 1 0
S2 S2- 4 a 0.60465(10) 0.72223(15) 0.37827(10) 0.00869(19) 1 0
S3 S2- 4 a 0.53567(10) 0.74532(15) 0.69220(10) 0.0102(2) 1 0
S4 S2- 4 a 0.79735(10) 0.48063(16) 0.69550(10) 0.0107(2) 1 0
S5 S2- 4 a 0.77555(9) 0.98585(15) 0.67044(10) 0.0095(2) 1 0
S6 S2- 4 a 0.80158(10) 0.76201(16) 0.93967(10) 0.0105(2) 1 0
loop_
_atom_site_aniso_label
_atom_site_aniso_type_symbol
_atom_site_aniso_U_11
_atom_site_aniso_U_22
_atom_site_aniso_U_33
_atom_site_aniso_U_12
_atom_site_aniso_U_13
_atom_site_aniso_U_23
Li1 Li1+ 0.013(4) 0.029(5) 0.018(5) 0.000(4) 0.003(4) 0.007(4)
Li2 Li1+ 0.021(4) 0.015(4) 0.015(5) -0.004(3) 0.004(4) -0.001(3)
In1 In3+ 0.00797(13) 0.01076(14) 0.00881(17) -0.00040(11) 0.00360(12)
-0.00046(12)
In2 In3+ 0.00890(14) 0.01023(13) 0.00835(17) -0.00039(11) 0.00394(12)
0.00010(12)
Ge1 Ge4+ 0.00615(19) 0.0066(2) 0.0069(2) -0.00064(15) 0.00260(16) 0.00009(17)
S1 S2- 0.0092(5) 0.0095(5) 0.0087(5) -0.0008(4) 0.0028(4) -0.0009(4)
S2 S2- 0.0092(4) 0.0084(4) 0.0080(5) 0.0003(4) 0.0023(4) -0.0004(4)
S3 S2- 0.0059(4) 0.0095(5) 0.0149(6) 0.0001(4) 0.0030(4) 0.0008(4)
S4 S2- 0.0109(5) 0.0101(5) 0.0100(6) 0.0037(4) 0.0022(4) -0.0014(4)
S5 S2- 0.0087(4) 0.0084(5) 0.0123(6) 0.0007(4) 0.0050(4) 0.0036(4)
S6 S2- 0.0102(4) 0.0142(5) 0.0069(5) -0.0037(4) 0.0024(4) -0.0018(4)
#End of TTdata_262643-ICSD