
#(C) 2018 by FIZ Karlsruhe - Leibniz Institute for Information Infrastructure.  All rights reserved.
data_262730-ICSD
_database_code_ICSD 262730
_audit_creation_date 2012-08-01
_chemical_name_systematic 'Distrontium lithium beryllium triborate'
_chemical_formula_structural 'Sr2 Li (Be B3 O8)'
_chemical_formula_sum 'B3 Be1 Li1 O8 Sr2'
_exptl_crystal_density_diffrn 3.4
_cell_measurement_temperature 293.
_publ_section_title 'Distrontium lithium beryllium triborate, Sr2 Li Be B3 O8'
loop_
_citation_id
_citation_journal_full
_citation_year
_citation_journal_volume
_citation_page_first
_citation_page_last
_citation_journal_id_ASTM
primary 'Acta Crystallographica, Section E: Structure Reports Online' 2012 68
i32 i32 ACSEBH
loop_
_publ_author_name
'Yu Na'
'Ye Ning'
_cell_length_a 8.609(5)
_cell_length_b 6.486(4)
_cell_length_c 12.868(8)
_cell_angle_alpha 90.
_cell_angle_beta 106.910(10)
_cell_angle_gamma 90.
_cell_volume 687.46
_cell_formula_units_Z 4
_symmetry_space_group_name_H-M 'P 1 21/c 1'
_symmetry_Int_Tables_number 14
_refine_ls_R_factor_all 0.0259
loop_
_symmetry_equiv_pos_site_id
_symmetry_equiv_pos_as_xyz
1 'x, -y+1/2, z+1/2'
2 '-x, -y, -z'
3 '-x, y+1/2, -z+1/2'
4 'x, y, z'
loop_
_atom_type_symbol
_atom_type_oxidation_number
Sr2+ 2
B3+ 3
Be2+ 2
Li1+ 1
O2- -2
loop_
_atom_site_label
_atom_site_type_symbol
_atom_site_symmetry_multiplicity
_atom_site_Wyckoff_symbol
_atom_site_fract_x
_atom_site_fract_y
_atom_site_fract_z
_atom_site_B_iso_or_equiv
_atom_site_occupancy
_atom_site_attached_hydrogens
Sr1 Sr2+ 4 e 0.35975(4) 0.24425(5) 0.42862(2) 0.00870(12) 1 0
Sr2 Sr2+ 4 e 0.96530(4) 0.89027(5) 0.34184(2) 0.01077(12) 1 0
B1 B3+ 4 e 0.7378(5) 0.2697(6) 0.4861(3) 0.0081(7) 1 0
B2 B3+ 4 e 0.9374(5) 0.3471(6) 0.3805(3) 0.0086(7) 1 0
B3 B3+ 4 e 0.4005(5) 0.4529(6) 0.2060(3) 0.0089(7) 1 0
Be1 Be2+ 4 e 0.6756(5) 0.5709(7) 0.3439(3) 0.0087(9) 1 0
Li1 Li1+ 4 e 0.3681(9) 0.7734(10) 0.3261(5) 0.0212(15) 1 0
O1 O2- 4 e 0.8842(3) 0.2319(4) 0.4584(2) 0.0115(5) 1 0
O2 O2- 4 e 0.6391(3) 0.4284(4) 0.43886(18) 0.0108(5) 1 0
O3 O2- 4 e 0.7074(3) 0.1423(4) 0.56005(19) 0.0135(5) 1 0
O4 O2- 4 e 0.8589(3) 0.5215(4) 0.3371(2) 0.0143(5) 1 0
O5 O2- 4 e 1.0594(3) 0.2620(4) 0.3497(2) 0.0118(5) 1 0
O6 O2- 4 e 0.5555(3) 0.5273(4) 0.22195(18) 0.0105(5) 1 0
O7 O2- 4 e 0.6566(3) 0.8100(4) 0.37736(19) 0.0132(5) 1 0
O8 O2- 4 e 0.3055(3) 0.5106(4) 0.26900(19) 0.0114(5) 1 0
loop_
_atom_site_aniso_label
_atom_site_aniso_type_symbol
_atom_site_aniso_U_11
_atom_site_aniso_U_22
_atom_site_aniso_U_33
_atom_site_aniso_U_12
_atom_site_aniso_U_13
_atom_site_aniso_U_23
Sr1 Sr2+ 0.01050(19) 0.0059(2) 0.01079(19) 0.00014(11) 0.00487(13) 0.00049(11)
Sr2 Sr2+ 0.01267(19) 0.00595(19) 0.01254(19) -0.00039(12) 0.00184(13)
0.00046(12)
B1 B3+ 0.0104(19) 0.0045(19) 0.0099(18) -0.0021(14) 0.0039(14) -0.0027(14)
B2 B3+ 0.0091(18) 0.008(2) 0.0102(17) -0.0036(14) 0.0042(14) -0.0019(15)
B3 B3+ 0.0151(19) 0.0043(19) 0.0073(17) 0.0016(15) 0.0032(14) 0.0022(14)
Be1 Be2+ 0.012(2) 0.005(2) 0.010(2) -0.0002(16) 0.0055(16) 0.0020(16)
Li1 Li1+ 0.039(4) 0.010(4) 0.021(3) -0.007(3) 0.019(3) -0.005(3)
O1 O2- 0.0113(13) 0.0102(14) 0.0147(12) 0.0034(9) 0.0063(9) 0.0045(10)
O2 O2- 0.0117(12) 0.0087(13) 0.0136(12) 0.0004(9) 0.0062(9) 0.0027(10)
O3 O2- 0.0227(14) 0.0057(13) 0.0154(12) 0.0011(10) 0.0109(10) 0.0022(10)
O4 O2- 0.0122(13) 0.0085(13) 0.0248(13) 0.0011(10) 0.0093(10) 0.0070(11)
O5 O2- 0.0127(13) 0.0097(14) 0.0148(12) 0.0001(9) 0.0069(10) -0.0013(10)
O6 O2- 0.0123(12) 0.0091(13) 0.0112(12) -0.0013(9) 0.0050(9) -0.0012(10)
O7 O2- 0.0253(14) 0.0039(13) 0.0091(11) 0.0031(10) 0.0029(10) 0.0009(10)
O8 O2- 0.0126(12) 0.0103(14) 0.0125(12) -0.0018(10) 0.0054(9) -0.0019(10)
#End of TTdata_262730-ICSD