
#(C) 2018 by FIZ Karlsruhe - Leibniz Institute for Information Infrastructure.  All rights reserved.
data_26411-ICSD
_database_code_ICSD 26411
_audit_creation_date 1981-12-31
_audit_update_record 2011-02-01
_chemical_name_systematic 'Lithium silicon oxide nitride - alpha'
_chemical_formula_structural 'Li Si O N'
_chemical_formula_sum 'Li1 N1 O1 Si1'
_chemical_name_structure_type LiSiON
_exptl_crystal_density_diffrn 2.74
_cell_measurement_temperature 293.
_publ_section_title

;
Etude par diffraction de neutron selon la methode du temps de vol de Li Si O N
alpha
;
loop_
_citation_id
_citation_journal_full
_citation_year
_citation_journal_volume
_citation_page_first
_citation_page_last
_citation_journal_id_ASTM
primary

;
Acta Crystallographica, Section B: Structural Crystallography and Crystal
Chemistry
; 1981 37 911 913 ACBCAR
loop_
_publ_author_name
'Laurent, Y.'
'Guyader, J.'
'Roult, G.'
_cell_length_a 5.1991(7)
_cell_length_b 6.3889(9)
_cell_length_c 4.7390(6)
_cell_angle_alpha 90.
_cell_angle_beta 90.
_cell_angle_gamma 90.
_cell_volume 157.41
_cell_formula_units_Z 4
_symmetry_space_group_name_H-M 'P c a 21'
_symmetry_Int_Tables_number 29
_refine_ls_R_factor_all 0.046
loop_
_symmetry_equiv_pos_site_id
_symmetry_equiv_pos_as_xyz
1 'x+1/2, -y, z'
2 '-x+1/2, y, z+1/2'
3 '-x, -y, z+1/2'
4 'x, y, z'
loop_
_atom_type_symbol
_atom_type_oxidation_number
Li1+ 1
Si4+ 4
O2- -2
N3- -3
loop_
_atom_site_label
_atom_site_type_symbol
_atom_site_symmetry_multiplicity
_atom_site_Wyckoff_symbol
_atom_site_fract_x
_atom_site_fract_y
_atom_site_fract_z
_atom_site_B_iso_or_equiv
_atom_site_occupancy
_atom_site_attached_hydrogens
Li1 Li1+ 4 a 0.5989(39) 0.3797(27) 0.0019(31) 0.66 1. 0
Si1 Si4+ 4 a 0.0817(19) 0.1167(13) 0 0.52 1. 0
O1 O2- 4 a 0.5403(11) 0.346(1) 0.5727(12) 0.93 1. 0
N1 N3- 4 a 0.1080(7) 0.0844(5) 0.6278(11) 0.84 1. 0
#End of TTdata_26411-ICSD