
#(C) 2017 by FIZ Karlsruhe - Leibniz Institute for Information Infrastructure.  All rights reserved.
data_27672-ICSD
_database_code_ICSD 27672
_audit_creation_date 1986-10-02
_audit_update_record 2014-08-01
_chemical_name_systematic 'Dipotassium lithium hexafluoroaluminate - HT'
_chemical_formula_structural 'K2 Li (Al F6)'
_chemical_formula_sum 'Al1 F6 K2 Li1'
_chemical_name_structure_type K2LiAlF6
_exptl_crystal_density_diffrn 3.
_publ_section_title
'Betrachtungen zur Polymorphie. Die Polymorphie des K2 Li (Al F6)'
loop_
_citation_id
_citation_journal_full
_citation_year
_citation_journal_volume
_citation_page_first
_citation_page_last
_citation_journal_id_ASTM
primary 'Acta Crystallographica (1,1948-23,1967)' 1954 7 33 40 ACCRA9
loop_
_publ_author_name
'Winkler, H.G.F.'
_cell_length_a 5.6145(10)
_cell_length_b 5.6145(10)
_cell_length_c 13.754(10)
_cell_angle_alpha 90.
_cell_angle_beta 90.
_cell_angle_gamma 120.
_cell_volume 375.48
_cell_formula_units_Z 3
_symmetry_space_group_name_H-M 'P 3 m 1'
_symmetry_Int_Tables_number 156
loop_
_symmetry_equiv_pos_site_id
_symmetry_equiv_pos_as_xyz
1 '-x+y, y, z'
2 'x, x-y, z'
3 '-y, -x, z'
4 '-x+y, -x, z'
5 '-y, x-y, z'
6 'x, y, z'
loop_
_atom_type_symbol
_atom_type_oxidation_number
F1- -1
K1+ 1
Al3+ 3
F1- -1
K1+ 1
Li1+ 1
F1- -1
K1+ 1
Al3+ 3
F1- -1
K1+ 1
Li1+ 1
F1- -1
K1+ 1
Al3+ 3
F1- -1
K1+ 1
Li1+ 1
loop_
_atom_site_label
_atom_site_type_symbol
_atom_site_symmetry_multiplicity
_atom_site_Wyckoff_symbol
_atom_site_fract_x
_atom_site_fract_y
_atom_site_fract_z
_atom_site_B_iso_or_equiv
_atom_site_occupancy
_atom_site_attached_hydrogens
F1 F1- 3 d 0.158(20) -.158(20) -.08(1) . 1. 0
K1 K1+ 1 c 0.6667 0.3333 -.08(1) . 1. 0
Al1 Al3+ 1 a 0 0 0 . 1. 0
F2 F1- 3 d -.158(20) 0.158(20) 0.08(1) . 1. 0
K2 K1+ 1 b 0.3333 0.6667 0.08(1) . 1. 0
Li1 Li1+ 1 a 0 0 0.1667 . 1. 0
F3 F1- 3 d 0.175(20) 0.825 0.253(10) . 1. 0
K3 K1+ 1 c 0.6667 0.3333 0.253(10) . 1. 0
Al2 Al3+ 1 b 0.3333 0.6667 0.3333 . 1. 0
F4 F1- 3 d 0.491(20) 0.509(20) 0.413(10) . 1. 0
K4 K1+ 1 a 0 0 0.413(10) . 1. 0
Li2 Li1+ 1 c 0.6667 0.3333 0.5 . 1. 0
F5 F1- 3 d 0.825(20) 0.175(20) 0.587(10) . 1. 0
K5 K1+ 1 b 0.3333 0.6667 0.587(10) . 1. 0
Al3 Al3+ 1 c 0.6667 0.3333 0.6667 . 1. 0
F6 F1- 3 d 0.509(20) 0.491(20) 0.747(10) . 1. 0
K6 K1+ 1 a 0 0 0.747(10) . 1. 0
Li3 Li1+ 1 b 0.3333 0.6667 0.8333 . 1. 0
#End of TTdata_27672-ICSD