
#(C) 2017 by FIZ Karlsruhe - Leibniz Institute for Information Infrastructure.  All rights reserved.
data_2773-ICSD
_database_code_ICSD 2773
_audit_creation_date 1980-01-01
_chemical_name_systematic 'Potassium lithium tetrafluoroberyllate'
_chemical_formula_structural 'K Li Be F4'
_chemical_formula_sum 'Be1 F4 K1 Li1'
_chemical_name_structure_type LiKSO4
_exptl_crystal_density_diffrn 2.28
_publ_section_title 'Structure des orthofluoroberyllates de lithium M Li Be F4'
loop_
_citation_id
_citation_journal_full
_citation_year
_citation_journal_volume
_citation_page_first
_citation_page_last
_citation_journal_id_ASTM
primary 'Acta Crystallographica B (24,1968-38,1982)' 1972 28 1383 1387 ACBCAR
loop_
_publ_author_name
'le Roy, J.'
'Aleonard, S.'
_cell_length_a 5.07
_cell_length_b 5.07
_cell_length_c 8.56
_cell_angle_alpha 90.
_cell_angle_beta 90.
_cell_angle_gamma 120.
_cell_volume 190.55
_cell_formula_units_Z 2
_symmetry_space_group_name_H-M 'P 63'
_symmetry_Int_Tables_number 173
_refine_ls_R_factor_all 0.082
loop_
_symmetry_equiv_pos_site_id
_symmetry_equiv_pos_as_xyz
1 'x-y, x, z+1/2'
2 'y, -x+y, z+1/2'
3 '-x, -y, z+1/2'
4 '-x+y, -x, z'
5 '-y, x-y, z'
6 'x, y, z'
loop_
_atom_type_symbol
_atom_type_oxidation_number
K1+ 1
Be2+ 2
Li1+ 1
F1- -1
loop_
_atom_site_label
_atom_site_type_symbol
_atom_site_symmetry_multiplicity
_atom_site_Wyckoff_symbol
_atom_site_fract_x
_atom_site_fract_y
_atom_site_fract_z
_atom_site_B_iso_or_equiv
_atom_site_occupancy
_atom_site_attached_hydrogens
K1 K1+ 2 a 0 0 0.016(20) . 1. 0
Be1 Be2+ 2 b 0.3333 0.6666 0.187(13) . 1. 0
Li1 Li1+ 2 b 0.3333 0.6666 0.81 . 1. 0
F1 F1- 2 b 0.3333 0.6666 -.005(19) . 1. 0
F2 F1- 6 c 0.337(3) 0.949(3) 0.256(19) . 1. 0
#End of TTdata_2773-ICSD