
#(C) 2018 by FIZ Karlsruhe - Leibniz Institute for Information Infrastructure.  All rights reserved.
data_280011-ICSD
_database_code_ICSD 280011
_audit_creation_date 2000-07-15
_chemical_name_systematic 'Lithium tetrafluorodioxorhenate'
_chemical_formula_structural 'Li (Re O2 F4)'
_chemical_formula_sum 'F4 Li1 O2 Re1'
_exptl_crystal_density_diffrn 5.04
_publ_section_title

;
Lewis acid behavior of ReO2F3: Synthesis of (ReO2F3),ReO2F4-, Re2O4F7-,
Re3O6F10-, and ReO2F3(CH3CN) and study by NMR-, Raman Spectroscopy, and
DFT-calculations; and x-ray structures of
Li(ReO2F4),K(Re2O4F7),K(Re2O4F7)2.2ReO2F3, Cs(Re3O6F10)
;
loop_
_citation_id
_citation_journal_full
_citation_year
_citation_journal_volume
_citation_page_first
_citation_page_last
_citation_journal_id_ASTM
primary 'Inorganic Chemistry' 1999 38 2340 2358 INOCAJ
loop_
_publ_author_name
'Casteel, W.J.jr.'
'Dixon, D.A.'
'LeBlond, N.'
'Lock, P.E.'
'Mercier, H.P.A.'
'Schrobilgen, G.J.D.'
_cell_length_a 4.727(3)
_cell_length_b 4.727(3)
_cell_length_c 8.880(7)
_cell_angle_alpha 90.
_cell_angle_beta 90.
_cell_angle_gamma 90.
_cell_volume 198.42
_cell_formula_units_Z 2
_symmetry_space_group_name_H-M 'P -4 21 m'
_symmetry_Int_Tables_number 113
_refine_ls_R_factor_all 0.0397
loop_
_symmetry_equiv_pos_site_id
_symmetry_equiv_pos_as_xyz
1 '-y+1/2, -x+1/2, z'
2 'y, -x, -z'
3 'y+1/2, x+1/2, z'
4 '-y, x, -z'
5 'x+1/2, -y+1/2, -z'
6 '-x, -y, z'
7 '-x+1/2, y+1/2, -z'
8 'x, y, z'
loop_
_atom_type_symbol
_atom_type_oxidation_number
Re7+ 7
F1- -1
O2- -2
Li1+ 1
loop_
_atom_site_label
_atom_site_type_symbol
_atom_site_symmetry_multiplicity
_atom_site_Wyckoff_symbol
_atom_site_fract_x
_atom_site_fract_y
_atom_site_fract_z
_atom_site_B_iso_or_equiv
_atom_site_occupancy
_atom_site_attached_hydrogens
Re1 Re7+ 2 c 0 0.5 0.77478(4) . 1. 0
F1 F1- 4 e 0.2239(11) 0.2761(11) 0.2565(10) . 1. 0
F2 F1- 4 e 0.1851(9) 0.3149(9) 0.5975(8) . 1. 0
O1 O2- 4 e 0.1926(13) 0.3074(13) 0.896(1) . 1. 0
Li1 Li1+ 2 c 0 0.5 0.4148(36) 0.021(4) 1. 0
loop_
_atom_site_aniso_label
_atom_site_aniso_type_symbol
_atom_site_aniso_U_11
_atom_site_aniso_U_22
_atom_site_aniso_U_33
_atom_site_aniso_U_12
_atom_site_aniso_U_13
_atom_site_aniso_U_23
Re1 Re7+ 0.00921(14) 0.00921(14) 0.0070(2) 0.0018(2) 0 0
F1 F1- 0.014(2) 0.014(2) 0.023(3) 0.006(2) -.002(2) 0.002(2)
F2 F1- 0.0127(14) 0.0127(14) 0.013(2) 0.005(2) -.0001(14) 0.0001(14)
O1 O2- 0.020(2) 0.020(2) 0.014(3) 0.005(3) -.003(2) 0.003(2)
#End of TTdata_280011-ICSD