
#(C) 2018 by FIZ Karlsruhe - Leibniz Institute for Information Infrastructure.  All rights reserved.
data_280296-ICSD
_database_code_ICSD 280296
_audit_creation_date 2002-04-01
_chemical_name_systematic 'Lithium potassium tetraborate'
_chemical_formula_structural 'Li K (B4 O7)'
_chemical_formula_sum 'B4 K1 Li1 O7'
_chemical_name_structure_type LiKB4O7
_exptl_crystal_density_diffrn 2.23
_publ_section_title

;
Lithium potassium borate and lithium rubidium borate: new nonlinear optical
crystals
;
loop_
_citation_id
_citation_journal_full
_citation_year
_citation_journal_volume
_citation_page_first
_citation_page_last
_citation_journal_id_ASTM
primary 'Acta Crystallographica, Section C: Crystal Structure Communications'
2000 56 1413 1415 ACSCEE
loop_
_publ_author_name
'Ono, Y.'
'Nakaya, M.'
'Kajitani, T.'
'Sugawara, T.'
'Watanabe, N.'
'Shiraishi, H.'
'Komatsu, R.'
_cell_length_a 8.4915(12)
_cell_length_b 11.1454(13)
_cell_length_c 12.6558(13)
_cell_angle_alpha 90.
_cell_angle_beta 90.
_cell_angle_gamma 90.
_cell_volume 1197.76
_cell_formula_units_Z 8
_symmetry_space_group_name_H-M 'P 21 21 21'
_symmetry_Int_Tables_number 19
_refine_ls_R_factor_all 0.033
loop_
_symmetry_equiv_pos_site_id
_symmetry_equiv_pos_as_xyz
1 '-x, y+1/2, -z+1/2'
2 'x+1/2, -y+1/2, -z'
3 '-x+1/2, -y, z+1/2'
4 'x, y, z'
loop_
_atom_type_symbol
_atom_type_oxidation_number
K1+ 1
B3+ 3
Li1+ 1
O2- -2
loop_
_atom_site_label
_atom_site_type_symbol
_atom_site_symmetry_multiplicity
_atom_site_Wyckoff_symbol
_atom_site_fract_x
_atom_site_fract_y
_atom_site_fract_z
_atom_site_B_iso_or_equiv
_atom_site_occupancy
_atom_site_attached_hydrogens
K1 K1+ 4 a 0.80757(5) 0.62347(3) 0.30141(3) . 1. 0
K2 K1+ 4 a 0.14117(4) 0.54328(4) 0.59747(3) . 1. 0
B1 B3+ 4 a 0.89264(18) 0.36599(15) 0.48874(13) . 1. 0
B2 B3+ 4 a 0.7082(2) 0.51670(15) 0.56554(13) . 1. 0
B3 B3+ 4 a 0.5150(2) 0.63624(15) 0.65814(13) . 1. 0
B4 B3+ 4 a 0.4948(2) 0.61801(16) 0.46273(13) . 1. 0
B5 B3+ 4 a 0.4423(2) 0.75218(15) 0.30763(14) . 1. 0
B6 B3+ 4 a 0.2794(2) 0.57237(15) 0.33415(14) . 1. 0
B7 B3+ 4 a 0.08840(19) 0.39616(14) 0.34085(13) . 1. 0
B8 B3+ 4 a 0.1572(2) 0.27084(14) 0.49550(12) . 1. 0
Li1 Li1+ 4 a 0.4319(3) 0.3569(3) 0.3821(2) . 1. 0
Li2 Li1+ 4 a 0.7600(4) 0.3306(3) 0.2998(2) . 1. 0
O1 O2- 4 a 0.01048(13) 0.28548(10) 0.53693(9) . 1. 0
O2 O2- 4 a 0.76089(13) 0.29504(10) 0.44590(8) . 1. 0
O3 O2- 4 a 0.95888(13) 0.43721(10) 0.40457(9) . 1. 0
O4 O2- 4 a 0.83425(12) 0.44373(10) 0.57531(8) . 1. 0
O5 O2- 4 a 0.64988(13) 0.5655(1) 0.66018(8) . 1. 0
O6 O2- 4 a 0.44191(14) 0.66384(11) 0.56678(9) . 1. 0
O7 O2- 4 a 0.63568(14) 0.54263(11) 0.47334(8) . 1. 0
O8 O2- 4 a 0.36794(14) 0.54105(10) 0.41977(8) . 1. 0
O9 O2- 4 a 0.53240(13) 0.71772(11) 0.39267(9) . 1. 0
O10 O2- 4 a 0.46795(14) 0.84825(10) 0.24945(9) . 1. 0
O11 O2- 4 a 0.30894(15) 0.67984(11) 0.28246(10) . 1. 0
O12 O2- 4 a 0.16686(13) 0.50085(10) 0.29274(9) . 1. 0
O13 O2- 4 a 0.03543(15) 0.31903(10) 0.25193(9) . 1. 0
O14 O2- 4 a 0.20173(12) 0.32249(10) 0.40197(9) . 1. 0
loop_
_atom_site_aniso_label
_atom_site_aniso_type_symbol
_atom_site_aniso_U_11
_atom_site_aniso_U_22
_atom_site_aniso_U_33
_atom_site_aniso_U_12
_atom_site_aniso_U_13
_atom_site_aniso_U_23
K1 K1+ 0.0295(2) 0.01566(16) 0.02753(19) 0.00171(15) 0.01122(16) 0.00185(14)
K2 K1+ 0.01755(16) 0.02517(18) 0.02230(17) -.00122(14) 0.00258(14) -.00714(15)
B1 B3+ 0.0057(7) 0.0116(7) 0.0096(7) 0.0002(5) 0.0000(5) 0.0011(6)
B2 B3+ 0.0092(7) 0.0131(7) 0.0102(7) -.0003(6) 0.0015(6) -.0002(6)
B3 B3+ 0.0100(7) 0.0110(7) 0.0118(7) -.0007(6) 0.0012(6) -.0006(6)
B4 B3+ 0.0122(8) 0.0156(8) 0.0103(7) 0.0018(6) -.0032(6) 0.0009(6)
B5 B3+ 0.0102(7) 0.0137(7) 0.0123(7) -.0006(6) -.0001(6) 0.0004(6)
B6 B3+ 0.0091(7) 0.0152(7) 0.0104(7) -.0003(6) 0.0005(6) 0.0021(6)
B7 B3+ 0.0061(6) 0.0110(7) 0.0099(6) -.0010(5) -.0005(5) 0.0026(5)
B8 B3+ 0.0085(7) 0.0087(6) 0.0088(6) -.0005(5) -.0006(5) -.0001(5)
Li1 Li1+ 0.0169(13) 0.0181(14) 0.0138(13) 0.0022(11) 0.0051(10) 0.0024(10)
Li2 Li1+ 0.0213(15) 0.0293(15) 0.0128(13) -.0051(12) -.0025(11) 0.0027(12)
O1 O2- 0.0083(5) 0.0145(5) 0.0128(5) 0.0023(4) 0.0023(4) 0.0055(4)
O2 O2- 0.0109(5) 0.0135(5) 0.0094(5) -.0045(4) -.0006(4) 0.0017(4)
O3 O2- 0.0109(5) 0.0136(5) 0.0162(5) 0.0038(4) 0.0059(4) 0.0067(4)
O4 O2- 0.0105(5) 0.0146(5) 0.0114(5) 0.0034(4) -.0018(4) -.0019(4)
O5 O2- 0.0122(5) 0.0213(6) 0.0091(4) 0.0069(4) -.0005(4) -.0016(4)
O6 O2- 0.0148(5) 0.0214(6) 0.0126(5) 0.0076(5) -.0020(4) -.0032(4)
O7 O2- 0.0168(5) 0.0230(6) 0.0086(4) 0.0098(5) -.0007(4) 0.0001(4)
O8 O2- 0.0180(5) 0.0145(5) 0.0129(5) -.0032(4) -.0054(4) 0.0038(4)
O9 O2- 0.0150(5) 0.0170(5) 0.0170(6) -.0025(4) -.0063(5) 0.0053(5)
O10 O2- 0.0151(6) 0.0136(5) 0.0116(5) -.0025(4) 0.0012(4) 0.0009(4)
O11 O2- 0.0165(5) 0.0200(6) 0.0201(6) -.0064(5) -.0084(5) 0.0108(5)
O12 O2- 0.0123(5) 0.0182(5) 0.0133(5) -.0059(4) -.0022(4) 0.0076(4)
O13 O2- 0.0272(7) 0.0126(5) 0.0123(5) 0.0035(5) -.0070(5) -.0003(4)
O14 O2- 0.0068(4) 0.0187(5) 0.0108(5) 0.0025(4) 0.0010(4) 0.0066(4)
#End of TTdata_280296-ICSD