
#(C) 2018 by FIZ Karlsruhe - Leibniz Institute for Information Infrastructure.  All rights reserved.
data_280391-ICSD
_database_code_ICSD 280391
_audit_creation_date 2002-04-01
_audit_update_record 2006-04-01
_chemical_name_systematic 'Lithium potassium sulfate(VI)'
_chemical_formula_structural 'Li K (S O4)'
_chemical_formula_sum 'K1 Li1 O4 S1'
_chemical_name_structure_type LiKSO4
_exptl_crystal_density_diffrn 2.33
_cell_measurement_temperature 573.
_publ_section_title
'Analysis of Li K S O4 crystals in the temperature range from 573 K to 943 K'
loop_
_citation_id
_citation_journal_full
_citation_year
_citation_journal_volume
_citation_page_first
_citation_page_last
_citation_journal_id_ASTM
primary 'Acta Crystallographica, Section B: Structural Science' 2000 56 607 617
ASBSDK
loop_
_publ_author_name
'Pinheiro, C.B.'
'Pimenta, M.A.'
'Chapuis, G.'
'Speziali, N.L.'
_cell_length_a 5.202(1)
_cell_length_b 5.202(1)
_cell_length_c 8.647(2)
_cell_angle_alpha 90.
_cell_angle_beta 90.
_cell_angle_gamma 120.
_cell_volume 202.65
_cell_formula_units_Z 2
_symmetry_space_group_name_H-M 'P 63'
_symmetry_Int_Tables_number 173
_refine_ls_R_factor_all 0.0223
loop_
_symmetry_equiv_pos_site_id
_symmetry_equiv_pos_as_xyz
1 'x-y, x, z+1/2'
2 'y, -x+y, z+1/2'
3 '-x, -y, z+1/2'
4 '-x+y, -x, z'
5 '-y, x-y, z'
6 'x, y, z'
loop_
_atom_type_symbol
_atom_type_oxidation_number
K1+ 1
Li1+ 1
S6+ 6
O2- -2
loop_
_atom_site_label
_atom_site_type_symbol
_atom_site_symmetry_multiplicity
_atom_site_Wyckoff_symbol
_atom_site_fract_x
_atom_site_fract_y
_atom_site_fract_z
_atom_site_B_iso_or_equiv
_atom_site_occupancy
_atom_site_attached_hydrogens
K1 K1+ 2 a 0 0 0 . 1. 0
Li1 Li1+ 2 b 0.33333 0.66667 0.311(2) . 1. 0
S1 S6+ 2 b 0.33333 0.66667 0.70785(9) . 1. 0
O1 O2- 2 b 0.33333 0.66667 0.5411(8) . 1. 0
O2 O2- 6 c 0.3589(7) 0.4211(6) 0.7615(6) . 1. 0
loop_
_atom_site_aniso_label
_atom_site_aniso_type_symbol
_atom_site_aniso_U_11
_atom_site_aniso_U_22
_atom_site_aniso_U_33
_atom_site_aniso_U_12
_atom_site_aniso_U_13
_atom_site_aniso_U_23
K1 K1+ 0.0484(2) 0.0484(2) 0.0443(3) 0.0242(1) 0 0
Li1 Li1+ 0.033(1) 0.033(1) 0.051(4) 0.0166(6) 0 0
S1 S6+ 0.0254(2) 0.0254(2) 0.0265(2) 0.0127(1) 0 0
O1 O2- 0.111(2) 0.111(2) 0.0304(8) 0.0553(8) 0 0
O2 O2- 0.0590(8) 0.0447(7) 0.0982(9) 0.0328(6) -.0014(8) 0.0190(8)
#End of TTdata_280391-ICSD