
#(C) 2018 by FIZ Karlsruhe - Leibniz Institute for Information Infrastructure.  All rights reserved.
data_280870-ICSD
_database_code_ICSD 280870
_audit_creation_date 2002-10-01
_chemical_name_systematic 'Lithium vanadium oxide (1/6/13)'
_chemical_formula_structural 'Li V6 O13'
_chemical_formula_sum 'Li1 O13 V6'
_exptl_crystal_density_diffrn 3.85
_publ_section_title

;
Superlattice formation in the lithiated vanadium oxide phases Li0.67 V6 O13
and Li V6 O13
;
loop_
_citation_id
_citation_journal_full
_citation_year
_citation_journal_volume
_citation_page_first
_citation_page_last
_citation_journal_id_ASTM
primary 'Acta Crystallographica, Section B: Structural Science' 2001 57 759 765
ASBSDK
loop_
_publ_author_name
'Bjoerk, H.'
'Lidin, S.'
'Gustafsson, T.'
'Thomas, J.O.'
_cell_length_a 21.955(10)
_cell_length_b 3.686(2)
_cell_length_c 11.850(6)
_cell_angle_alpha 90.
_cell_angle_beta 110.656(10)
_cell_angle_gamma 90.
_cell_volume 897.33
_cell_formula_units_Z 4
_symmetry_space_group_name_H-M 'C 1 2/m 1'
_symmetry_Int_Tables_number 12
_refine_ls_R_factor_all 0.0269
loop_
_symmetry_equiv_pos_site_id
_symmetry_equiv_pos_as_xyz
1 '-x, y, -z'
2 '-x, -y, -z'
3 'x, -y, z'
4 'x, y, z'
5 '-x+1/2, y+1/2, -z'
6 '-x+1/2, -y+1/2, -z'
7 'x+1/2, -y+1/2, z'
8 'x+1/2, y+1/2, z'
loop_
_atom_type_symbol
_atom_type_oxidation_number
V4+ 4
V4+ 4.5
V4+ 4
O2- -2
Li1+ 1
loop_
_atom_site_label
_atom_site_type_symbol
_atom_site_symmetry_multiplicity
_atom_site_Wyckoff_symbol
_atom_site_fract_x
_atom_site_fract_y
_atom_site_fract_z
_atom_site_B_iso_or_equiv
_atom_site_occupancy
_atom_site_attached_hydrogens
V1 V4+ 4 i -.224400(7) 0 -.0728 . 1. 0
V2 V4+ 4 i 0.249780(8) 0 0.393910(13) . 1. 0
V3 V4+ 4 i -.046850(8) 0 0.039720(13) . 1. 0
V4 V4+ 4 i 0.429190(7) 0 0.517670(12) . 1. 0
V5 V4+ 4 i -.073100(7) 0 -.288800(12) . 1. 0
V6 V4+ 4 i 0.436180(8) 0 0.228260(14) . 1. 0
O1 O2- 4 i 0.75350(4) 0 1.07500(6) . 1. 0
O2 O2- 4 i 0.24874(4) 0 0.56894(7) . 1. 0
O3 O2- 4 i -.06013(4) 0 -.44368(6) . 1. 0
O4 O2- 4 i 0.44623(4) 0 0.06385(6) . 1. 0
O5 O2- 4 i -.04309(4) 0 0.21544(6) . 1. 0
O6 O2- 4 i 0.44950(4) 0 0.69911(6) . 1. 0
O7 O2- 4 i 0.74967(4) 0 0.75183(6) . 1. 0
O8 O2- 4 i -.14567(4) 0 -.02786(7) . 1. 0
O9 O2- 4 i 0.34862(4) 0 0.45210(7) . 1. 0
O10 O2- 4 i -.15270(4) 0 -.32901(7) . 1. 0
O11 O2- 4 i 0.35732(4) 0 0.19222(8) . 1. 0
O12 O2- 4 i -.04508(4) 0 -.11457(6) . 1. 0
O13 O2- 4 i 0.45801(4) 0 0.39539(6) . 1. 0
Li1 Li1+ 4 i -.1849(2) 0 0.2422(3) . 1. 0
loop_
_atom_site_aniso_label
_atom_site_aniso_type_symbol
_atom_site_aniso_U_11
_atom_site_aniso_U_22
_atom_site_aniso_U_33
_atom_site_aniso_U_12
_atom_site_aniso_U_13
_atom_site_aniso_U_23
V1 V4+ 0.006 0.0049 0.0064 0 0.0024 0
V2 V4+ 0.00742(4) 0.00518(5) 0.00583(4) 0 0.00254(3) 0
V3 V4+ 0.00650(4) 0.01355(6) 0.00484(4) 0 0.00234(3) 0
V4 V4+ 0.00511(4) 0.00418(4) 0.00529(4) 0 0.00144(3) 0
V5 V4+ 0.00526(4) 0.00421(4) 0.00498(4) 0 0.00194(3) 0
V6 V4+ 0.00761(4) 0.00410(4) 0.00757(4) 0 0.00379(3) 0
O1 O2- 0.0096(2) 0.0053(2) 0.0077(2) 0 0.00422(17) 0
O2 O2- 0.0109(3) 0.0066(2) 0.0108(2) 0 0.0034(2) 0
O3 O2- 0.0106(2) 0.0047(2) 0.00696(19) 0 0.00421(17) 0
O4 O2- 0.0103(2) 0.0052(2) 0.0073(2) 0 0.00402(17) 0
O5 O2- 0.0133(3) 0.0049(2) 0.0070(2) 0 0.00484(18) 0
O6 O2- 0.0092(2) 0.0046(2) 0.00666(19) 0 0.00295(17) 0
O7 O2- 0.0110(3) 0.0145(3) 0.0069(2) 0 0.00300(18) 0
O8 O2- 0.0068(2) 0.0133(3) 0.0127(3) 0 0.0027(2) 0
O9 O2- 0.0057(2) 0.0112(3) 0.0129(3) 0 0.00183(18) 0
O10 O2- 0.0058(2) 0.0121(3) 0.0110(2) 0 0.00224(17) 0
O11 O2- 0.0088(3) 0.0167(3) 0.0143(3) 0 0.0043(2) 0
O12 O2- 0.00659(19) 0.0095(2) 0.00513(18) 0 0.00210(15) 0
O13 O2- 0.0111(3) 0.0087(2) 0.0069(2) 0 0.00445(18) 0
Li1 Li1+ 0.036(2) 0.045(2) 0.0261(15) 0 -.0074(14) 0
#End of TTdata_280870-ICSD