
#(C) 2017 by FIZ Karlsruhe - Leibniz Institute for Information Infrastructure.  All rights reserved.
data_281119-ICSD
_database_code_ICSD 281119
_audit_creation_date 2003-04-01
_chemical_name_systematic 'Lithium magnesium fluoride sulfate(VI)'
_chemical_formula_structural 'Li Mg F (S O4)'
_chemical_formula_sum 'F1 Li1 Mg1 O4 S1'
_chemical_name_structure_type LiFeSiO4F
_exptl_crystal_density_diffrn 2.78
_publ_section_title
'Synthesis, crystal structure and lithium ion conductivity of Li Mg F S O4'
loop_
_citation_id
_citation_journal_full
_citation_year
_citation_journal_volume
_citation_page_first
_citation_page_last
_citation_journal_id_ASTM
primary 'Journal of Materials Chemistry' 2002 12 374 377 JMACEP
loop_
_publ_author_name
'Sebastian, L.'
'Gopalakrishnan, J.'
'Piffard, Y.'
_cell_length_a 5.1623(7)
_cell_length_b 5.388(1)
_cell_length_c 7.073(1)
_cell_angle_alpha 106.68(1)
_cell_angle_beta 107.40(1)
_cell_angle_gamma 97.50(1)
_cell_volume 174.72
_cell_formula_units_Z 2
_symmetry_space_group_name_H-M 'P -1'
_symmetry_Int_Tables_number 2
_refine_ls_R_factor_all 0.0521
loop_
_symmetry_equiv_pos_site_id
_symmetry_equiv_pos_as_xyz
1 '-x, -y, -z'
2 'x, y, z'
loop_
_atom_type_symbol
_atom_type_oxidation_number
S6+ 6
Mg2+ 2
F1- -1
O2- -2
Li1+ 1
loop_
_atom_site_label
_atom_site_type_symbol
_atom_site_symmetry_multiplicity
_atom_site_Wyckoff_symbol
_atom_site_fract_x
_atom_site_fract_y
_atom_site_fract_z
_atom_site_B_iso_or_equiv
_atom_site_occupancy
_atom_site_attached_hydrogens
S1 S6+ 2 i 0.3316(2) 0.6353(2) 0.2515(1) 0.0086(3) 1. 0
Mg1 Mg2+ 1 b 0 0 0.5 0.0079(6) 1. 0
Mg2 Mg2+ 1 a 0 0 0 0.0100(6) 1. 0
F1 F1- 2 i 0.1103(4) 0.9176(4) 0.7554(3) 0.0109(7) 1. 0
O1 O2- 2 i 0.6177(5) 0.7455(4) 0.4045(4) 0.0153(9) 1. 0
O2 O2- 2 i 0.1263(4) 0.6561(4) 0.3602(4) 0.0114(9) 1. 0
O3 O2- 2 i 0.3177(4) 0.3525(4) 0.1449(4) 0.0119(8) 1. 0
O4 O2- 2 i 0.2713(5) 0.7721(5) 0.0973(4) 0.0142(9) 1. 0
Li1 Li1+ 2 i 0.275(3) 0.643(3) 0.789(2) 0.021(2) 0.5 0
Li2 Li1+ 2 i 0.253(3) 0.623(3) 0.714(2) 0.021(2) 0.5 0
loop_
_atom_site_aniso_label
_atom_site_aniso_type_symbol
_atom_site_aniso_U_11
_atom_site_aniso_U_22
_atom_site_aniso_U_33
_atom_site_aniso_U_12
_atom_site_aniso_U_13
_atom_site_aniso_U_23
S1 S6+ 0.0069(4) 0.0082(4) 0.0102(4) 0.0017(3) 0.0024(3) 0.0032(3)
Mg1 Mg2+ 0.0101(7) 0.0108(7) 0.0052(8) 0.0041(6) 0.0038(6) 0.0042(6)
Mg2 Mg2+ 0.0132(8) 0.0118(8) 0.0073(8) 0.0044(6) 0.0063(7) 0.0033(7)
F1 F1- 0.0152(9) 0.0139(9) 0.009(1) 0.0067(7) 0.0064(8) 0.0082(8)
O1 O2- 0.010(1) 0.013(1) 0.018(1) -0.0021(9) -0.001(1) 0.007(1)
O2 O2- 0.013(1) 0.012(1) 0.015(1) 0.0066(9) 0.011(1) 0.005(1)
O3 O2- 0.011(1) 0.007(1) 0.017(1) 0.0038(8) 0.008(1) 0.0009(9)
O4 O2- 0.016(1) 0.020(1) 0.013(1) 0.008(1) 0.007(1) 0.012(1)
#End of TTdata_281119-ICSD