
#(C) 2017 by FIZ Karlsruhe - Leibniz Institute for Information Infrastructure.  All rights reserved.
data_281162-ICSD
_database_code_ICSD 281162
_audit_creation_date 2003-10-01
_chemical_name_systematic 'Diaqualithium trichlorooxoaquabis(dioxouranate)'
_chemical_formula_structural '(Li (H2 O)2) ((U O2)2 Cl3 O (H2 O))'
_chemical_formula_sum 'H6 Cl3 Li1 O8 U2'
_exptl_crystal_density_diffrn 4.3
_cell_measurement_temperature 203.
_publ_section_title

;
Aqueous reactions of U(VI) at high chloride concentrations: syntheses and
structures of new uranyl chloride polymers
;
loop_
_citation_id
_citation_journal_full
_citation_year
_citation_journal_volume
_citation_page_first
_citation_page_last
_citation_journal_id_ASTM
primary 'Inorganic Chemistry' 2002 41 6775 6779 INOCAJ
loop_
_publ_author_name
'Bean, A.C.'
'Xu, Y.-W.'
'Danis, J.A.'
'Albrecht Schmitt, T.E.'
'Scott, B.L.'
'Runde, W.'
_cell_length_a 8.1101(10)
_cell_length_b 8.6207(11)
_cell_length_c 8.7398(10)
_cell_angle_alpha 112.228(2)
_cell_angle_beta 96.378(2)
_cell_angle_gamma 93.665(2)
_cell_volume 558.39
_cell_formula_units_Z 2
_symmetry_space_group_name_H-M 'P -1'
_symmetry_Int_Tables_number 2
_refine_ls_R_factor_all 0.0402
loop_
_symmetry_equiv_pos_site_id
_symmetry_equiv_pos_as_xyz
1 '-x, -y, -z'
2 'x, y, z'
loop_
_atom_type_symbol
_atom_type_oxidation_number
U6+ 6
Cl1- -1
O2- -2
Li1+ 1
H1+ 1
loop_
_atom_site_label
_atom_site_type_symbol
_atom_site_symmetry_multiplicity
_atom_site_Wyckoff_symbol
_atom_site_fract_x
_atom_site_fract_y
_atom_site_fract_z
_atom_site_B_iso_or_equiv
_atom_site_occupancy
_atom_site_attached_hydrogens
U1 U6+ 2 i 0.80297(6) 0.80497(7) 0.79781(7) 0.0112(3) 1. 0
U2 U6+ 2 i 0.37857(6) 0.50036(7) 0.66603(7) 0.0097(3) 1. 0
Cl1 Cl1- 2 i 0.5515(5) 0.7405(5) 0.9684(5) 0.0177(10) 1. 0
Cl2 Cl1- 2 i 0.0974(4) 0.0229(5) 0.8524(5) 0.0150(10) 1. 0
Cl3 Cl1- 2 i 0.8975(5) 0.7495(5) 0.4836(5) 0.0185(10) 1. 0
O1 O2- 2 i 0.6939(13) 0.9721(16) 0.7813(15) 0.024(3) 1. 0
O2 O2- 2 i 0.9151(14) 0.6443(16) 0.8160(16) 0.026(3) 1. 0
O3 O2- 2 i 0.2653(14) 0.6604(17) 0.6486(17) 0.031(4) 1. 0
O4 O2- 2 i 0.4872(14) 0.3382(16) 0.6923(15) 0.022(3) 1. 0
O5 O2- 2 i 0.6106(12) 0.6135(14) 0.6115(13) 0.014(2) 1. 0
O6 O2- 2 i 0.2307(13) 0.4832(15) 0.8942(13) 0.019(3) 1. 0
O7 O2- 2 i 0.1662(14) 0.7114(15) 0.2033(16) 0.024(3) 1. 0
O8 O2- 2 i 0.3573(14) 0.9673(15) 0.5708(14) 0.022(3) 1. 0
Li1 Li1+ 2 i 0.395(3) 0.869(3) 0.330(4) 0.016(6) 1. 0
loop_
_atom_site_aniso_label
_atom_site_aniso_type_symbol
_atom_site_aniso_U_11
_atom_site_aniso_U_22
_atom_site_aniso_U_33
_atom_site_aniso_U_12
_atom_site_aniso_U_13
_atom_site_aniso_U_23
U1 U6+ 0.0104(4) 0.0114(5) 0.0089(4) -0.0049(3) -0.0039(3) 0.0030(3)
U2 U6+ 0.0097(4) 0.0103(4) 0.0074(4) -0.0037(2) -0.0023(2) 0.0031(3)
Cl1 Cl1- 0.019(2) 0.018(2) 0.011(2) -0.0083(16) -0.0012(16) 0.0034(18)
Cl2 Cl1- 0.0128(19) 0.019(2) 0.009(2) -0.0100(15) -0.0033(15) 0.0043(18)
Cl3 Cl1- 0.0138(19) 0.020(2) 0.016(2) -0.0108(16) -0.0025(16) 0.0048(19)
O1 O2- 0.012(6) 0.025(8) 0.020(7) -0.006(5) 0.001(5) -0.004(6)
O2 O2- 0.020(6) 0.020(7) 0.022(7) -0.001(5) -0.002(5) -0.007(6)
O3 O2- 0.015(6) 0.034(9) 0.026(8) -0.004(5) 0.002(5) -0.007(6)
O4 O2- 0.017(6) 0.024(8) 0.015(7) -0.004(5) 0.006(5) -0.003(6)
O6 O2- 0.017(6) 0.027(8) 0.012(7) -0.008(5) 0.006(5) 0.006(6)
O7 O2- 0.017(6) 0.016(7) 0.042(9) -0.003(5) 0.006(5) 0.014(6)
O8 O2- 0.024(6) 0.024(8) 0.011(7) -0.003(5) 0.002(5) 0.002(6)
Li1 Li1+ 0.023(14) 0.007(15) 0.016(15) 0.004(11) 0.001(11) 0.003(12)
#End of TTdata_281162-ICSD