
#(C) 2018 by FIZ Karlsruhe - Leibniz Institute for Information Infrastructure.  All rights reserved.
data_281301-ICSD
_database_code_ICSD 281301
_audit_creation_date 2003-10-01
_audit_update_record 2008-02-01
_chemical_name_systematic 'Trilithium tantalate - beta'
_chemical_formula_structural 'Li3 (Ta O4)'
_chemical_formula_sum 'Li3 O4 Ta1'
_chemical_name_structure_type Li3TaO4
_exptl_crystal_density_diffrn 5.85
_publ_section_title 'Reinvestigation of beta-(Li3 Ta O4)'
loop_
_citation_id
_citation_journal_full
_citation_year
_citation_journal_volume
_citation_page_first
_citation_page_last
_citation_journal_id_ASTM
primary 'Acta Crystallographica, Section E: Structure Reports Online' 2003 59
i80 i82 ACSEBH
loop_
_publ_author_name
'du Boulay, D.'
'Sakaguchi, A.'
'Suda, K.'
'Ishizawa, N.'
_cell_length_a 8.508(1)
_cell_length_b 8.516(1)
_cell_length_c 9.338(1)
_cell_angle_alpha 90.
_cell_angle_beta 116.869(10)
_cell_angle_gamma 90.
_cell_volume 603.53
_cell_formula_units_Z 8
_symmetry_space_group_name_H-M 'C 1 2/c 1'
_symmetry_Int_Tables_number 15
_refine_ls_R_factor_all 0.033
loop_
_symmetry_equiv_pos_site_id
_symmetry_equiv_pos_as_xyz
1 'x, -y, z+1/2'
2 '-x, -y, -z'
3 '-x, y, -z+1/2'
4 'x, y, z'
5 'x+1/2, -y+1/2, z+1/2'
6 '-x+1/2, -y+1/2, -z'
7 '-x+1/2, y+1/2, -z+1/2'
8 'x+1/2, y+1/2, z'
loop_
_atom_type_symbol
_atom_type_oxidation_number
Ta5+ 5
Li1+ 1
O2- -2
loop_
_atom_site_label
_atom_site_type_symbol
_atom_site_symmetry_multiplicity
_atom_site_Wyckoff_symbol
_atom_site_fract_x
_atom_site_fract_y
_atom_site_fract_z
_atom_site_B_iso_or_equiv
_atom_site_occupancy
_atom_site_attached_hydrogens
Ta1 Ta5+ 8 f 0.078942(14) -.140811(13) 0.124844(12) 0.00618(4) 1. 0
Li1 Li1+ 8 f 0.3164(10) -.1184(9) 0.6182(9) 0.012(2) 1. 0
Li2 Li1+ 8 f 0.5425(12) -.1073(9) 0.1263(11) 0.017(2) 1. 0
Li3 Li1+ 8 f 0.8205(12) -.1201(9) 0.6388(11) 0.017(3) 1. 0
O1 O2- 8 f 0.1643(3) -.1228(3) 0.3608(2) 0.0079(6) 1. 0
O2 O2- 8 f 0.4394(3) -.1389(3) 0.8822(3) 0.0092(6) 1. 0
O3 O2- 8 f 0.6961(3) -.1258(3) 0.3660(3) 0.0090(6) 1. 0
O4 O2- 8 f 0.9436(3) -.1106(3) 0.8886(3) 0.0084(6) 1. 0
loop_
_atom_site_aniso_label
_atom_site_aniso_type_symbol
_atom_site_aniso_U_11
_atom_site_aniso_U_22
_atom_site_aniso_U_33
_atom_site_aniso_U_12
_atom_site_aniso_U_13
_atom_site_aniso_U_23
Ta1 Ta5+ 0.00648(5) 0.00666(4) 0.00567(4) 0.00038(3) 0.00297(3) 0.00036(3)
Li1 Li1+ 0.010(3) 0.016(3) 0.014(2) 0.005(2) 0.010(2) 0.008(2)
Li2 Li1+ 0.026(3) 0.005(2) 0.025(4) 0.001(2) 0.015(3) -0.005(2)
Li3 Li1+ 0.022(4) 0.009(3) 0.021(3) -0.005(2) 0.010(3) -0.005(2)
O1 O2- 0.0074(7) 0.0114(8) 0.0037(6) 0.0005(5) 0.0016(5) -0.0001(5)
O2 O2- 0.0102(8) 0.0064(6) 0.0110(7) -0.0019(6) 0.0048(6) -0.0033(6)
O3 O2- 0.0088(7) 0.0093(7) 0.0087(7) 0.0004(5) 0.0037(6) -0.0027(5)
O4 O2- 0.0069(7) 0.0101(6) 0.0067(6) -0.0005(5) 0.0018(5) 0.0013(5)
#End of TTdata_281301-ICSD