
#(C) 2018 by FIZ Karlsruhe - Leibniz Institute for Information Infrastructure.  All rights reserved.
data_281331-ICSD
_database_code_ICSD 281331
_audit_creation_date 2004-04-01
_chemical_name_systematic
'Cesium lithium rubidium sulfate(VI) (0.9/2.88/0.22/2)'
_chemical_formula_structural 'Cs0.9 Li2.88 Rb0.22 (S O4)2'
_chemical_formula_sum 'Cs0.9 Li2.88 O8 Rb0.22 S2'
_exptl_crystal_density_diffrn 2.77
_publ_section_title 'New crystals in the lithium sulfate family'
loop_
_citation_id
_citation_journal_full
_citation_year
_citation_journal_volume
_citation_page_first
_citation_page_last
_citation_journal_id_ASTM
primary 'Acta Crystallographica, Section C: Crystal Structure Communications'
2003 59 i67 i70 ACSCEE
loop_
_publ_author_name
'Lima, R.J.C.'
'Sasaki, J.M.'
'Ayala, A.P.'
'Freire, P.T.C.'
'Mendes-Filho, J.'
'Melo, F.E.A.'
'Ellena, J.'
'Santos, S.jr.'
_cell_length_a 5.0530(2)
_cell_length_b 5.1990(4)
_cell_length_c 15.9840(8)
_cell_angle_alpha 90.
_cell_angle_beta 90.297(3)
_cell_angle_gamma 90.
_cell_volume 419.9
_cell_formula_units_Z 2
_symmetry_space_group_name_H-M 'P 1 c 1'
_symmetry_Int_Tables_number 7
_refine_ls_R_factor_all 0.025
loop_
_symmetry_equiv_pos_site_id
_symmetry_equiv_pos_as_xyz
1 'x, -y, z+1/2'
2 'x, y, z'
loop_
_atom_type_symbol
_atom_type_oxidation_number
Cs1+ 1
Rb1+ 1
S6+ 6
O2- -2
Li1+ 1
loop_
_atom_site_label
_atom_site_type_symbol
_atom_site_symmetry_multiplicity
_atom_site_Wyckoff_symbol
_atom_site_fract_x
_atom_site_fract_y
_atom_site_fract_z
_atom_site_B_iso_or_equiv
_atom_site_occupancy
_atom_site_attached_hydrogens
Cs1 Cs1+ 2 a -.92955(8) 0.73641(5) 0.43372(4) 0.02641(15) 0.9 0
Rb1 Rb1+ 2 a -.4254(9) 0.7880(7) 0.5725(3) 0.0592(10) 0.22 0
S1 S6+ 2 a -.9224(3) 0.6654(2) 0.14039(9) 0.0165(2) 1. 0
S2 S6+ 2 a -.4230(2) 0.26658(18) 0.34727(8) 0.0150(3) 1. 0
O1 O2- 2 a -.9573(7) 0.3843(6) 0.1509(2) 0.0270(7) 1. 0
O2 O2- 2 a -.6352(8) 0.7213(6) 0.1402(3) 0.0227(8) 1. 0
O3 O2- 2 a -.0442(10) 0.7448(5) 0.0621(3) 0.0230(9) 1. 0
O4 O2- 2 a -.0432(8) 0.8017(7) 0.2113(2) 0.0225(7) 1. 0
O5 O2- 2 a -.5625(6) 0.1038(6) 0.2851(2) 0.0261(6) 1. 0
O6 O2- 2 a -.4782(7) 0.5377(6) 0.3292(2) 0.0300(7) 1. 0
O7 O2- 2 a -.1375(9) 0.2181(7) 0.3416(3) 0.0265(8) 1. 0
O8 O2- 2 a -.5178(9) 0.2059(8) 0.4312(3) 0.0280(8) 1. 0
Li1 Li1+ 2 a -.4158(16) 0.1581(18) 0.5448(5) 0.0200(11) 0.92 0
Li2 Li1+ 2 a -.9212(14) 0.1540(15) 0.2464(4) 0.0200(11) 0.96 0
Li3 Li1+ 2 a -.418(2) 0.7820(16) 0.2419(6) 0.0213(19) 1. 0
loop_
_atom_site_aniso_label
_atom_site_aniso_type_symbol
_atom_site_aniso_U_11
_atom_site_aniso_U_22
_atom_site_aniso_U_33
_atom_site_aniso_U_12
_atom_site_aniso_U_13
_atom_site_aniso_U_23
Cs1 Cs1+ 0.0261(2) 0.0252(2) 0.0280(2) -0.00027(16) 0.00142(12) 0.00056(15)
Rb1 Rb1+ 0.056(2) 0.0536(19) 0.068(3) -0.0005(15) 0.000(2) 0.0065(17)
S1 S6+ 0.0157(4) 0.0152(5) 0.0185(4) 0.0001(4) 0.0000(3) -0.0008(4)
S2 S6+ 0.0156(6) 0.0154(5) 0.0138(5) 0.0006(3) 0.0003(4) -0.0004(3)
O1 O2- 0.0370(18) 0.0171(16) 0.0267(15) -0.0031(14) -0.0023(12) -0.0016(12)
O2 O2- 0.0145(18) 0.0337(18) 0.0199(17) -0.0007(12) -0.0008(14) -0.0008(12)
O3 O2- 0.022(2) 0.027(2) 0.0196(19) 0.0024(10) -0.0027(16) 0.0044(9)
O4 O2- 0.0178(16) 0.0241(15) 0.0257(17) -0.0016(14) 0.0032(13) -0.0076(14)
O5 O2- 0.0240(15) 0.0243(16) 0.0300(14) 0.0054(13) -0.0058(11) -0.0094(13)
O6 O2- 0.0372(18) 0.0184(15) 0.0346(16) 0.0047(13) 0.0067(13) 0.0027(13)
O7 O2- 0.0168(17) 0.0368(19) 0.0259(18) 0.0028(13) -0.0039(14) -0.0055(14)
O8 O2- 0.0247(19) 0.0419(19) 0.0174(18) -0.0035(15) 0.0027(15) 0.0049(14)
Li1 Li1+ 0.018(3) 0.016(3) 0.026(3) 0.000(2) 0.000(2) 0.001(2)
Li2 Li1+ 0.018(3) 0.016(3) 0.026(3) 0.000(2) 0.000(2) 0.001(2)
Li3 Li1+ 0.029(5) 0.025(4) 0.010(4) -0.004(3) 0.001(3) -0.001(3)
#End of TTdata_281331-ICSD