
#(C) 2017 by FIZ Karlsruhe - Leibniz Institute for Information Infrastructure.  All rights reserved.
data_28986-ICSD
_database_code_ICSD 28986
_audit_creation_date 1980-01-01
_audit_update_record 2000-07-15
_chemical_name_systematic 'Lithium zinc rhodium(III) fluoride'
_chemical_formula_structural 'Li Zn Rh F6'
_chemical_formula_sum 'F6 Li1 Rh1 Zn1'
_chemical_name_structure_type ZnSb2O6
_exptl_crystal_density_diffrn 4.75
_publ_section_title

;
Untersuchungen an quaternaeren Fluoriden Li M(II) M(III) F6. Ueber die
Kationenverteilung in Fluortrirutilen
;
loop_
_citation_id
_citation_journal_full
_citation_year
_citation_journal_volume
_citation_page_first
_citation_page_last
_citation_journal_id_ASTM
primary 'Zeitschrift fuer Anorganische und Allgemeine Chemie (1950) (DE)' 1976
427 45 54 ZAACAB
loop_
_publ_author_name
'Viebahn, W.'
'Epple, P.'
_cell_length_a 4.663
_cell_length_b 4.663
_cell_length_c 9.235
_cell_angle_alpha 90.
_cell_angle_beta 90.
_cell_angle_gamma 90.
_cell_volume 200.8
_cell_formula_units_Z 2
_symmetry_space_group_name_H-M 'P 42/m n m'
_symmetry_Int_Tables_number 136
_refine_ls_R_factor_all 0.068
loop_
_symmetry_equiv_pos_site_id
_symmetry_equiv_pos_as_xyz
1 '-y+1/2, x+1/2, -z+1/2'
2 'y+1/2, -x+1/2, -z+1/2'
3 'y, x, -z'
4 '-y, -x, -z'
5 'y+1/2, -x+1/2, z+1/2'
6 '-y+1/2, x+1/2, z+1/2'
7 '-y, -x, z'
8 'y, x, z'
9 'x+1/2, -y+1/2, -z+1/2'
10 '-x+1/2, y+1/2, -z+1/2'
11 'x, y, -z'
12 '-x, -y, -z'
13 '-x+1/2, y+1/2, z+1/2'
14 'x+1/2, -y+1/2, z+1/2'
15 '-x, -y, z'
16 'x, y, z'
loop_
_atom_type_symbol
_atom_type_oxidation_number
Li1+ 1
Zn2+ 2
Rh3+ 3
F1- -1
loop_
_atom_site_label
_atom_site_type_symbol
_atom_site_symmetry_multiplicity
_atom_site_Wyckoff_symbol
_atom_site_fract_x
_atom_site_fract_y
_atom_site_fract_z
_atom_site_B_iso_or_equiv
_atom_site_occupancy
_atom_site_attached_hydrogens
Li1 Li1+ 2 a 0 0 0 . 1. 0
Zn1 Zn2+ 4 e 0 0 0.333 . 0.5 0
Rh1 Rh3+ 4 e 0 0 0.333 . 0.5 0
F1 F1- 4 f 0.3 0.3 0 . 1. 0
F2 F1- 8 j 0.3 0.3 0.333 . 1. 0
#End of TTdata_28986-ICSD