
#(C) 2018 by FIZ Karlsruhe - Leibniz Institute for Information Infrastructure.  All rights reserved.
data_290185-ICSD
_database_code_ICSD 290185
_audit_creation_date 2013-08-01
_chemical_name_systematic
'Lithium manganese iron phosphate(V) (0.76/0.8/0.18/1)'
_chemical_formula_structural 'Li0.76 (Mn0.800 Fe0.180) (P O4)'
_chemical_formula_sum 'Fe0.18 Li0.76 Mn0.8 O4 P1'
_chemical_name_structure_type Olivine-Mg2SiO4
_chemical_name_mineral Lithiophilite-sicklerite
_exptl_crystal_density_diffrn 3.4
_publ_section_title 'A structural study of the lithiophilite-sicklerite series'
loop_
_citation_id
_citation_journal_full
_citation_year
_citation_journal_volume
_citation_page_first
_citation_page_last
_citation_journal_id_ASTM
primary 'Canadian Mineralogist' 2012 50 843 854 CAMIA6
loop_
_publ_author_name
'Hatert, F.'
'Ottolini, L.'
'Wouters, J.'
'Fontan, F.'
_cell_length_a 4.767(1)
_cell_length_b 10.403(2)
_cell_length_c 6.072(1)
_cell_angle_alpha 90.
_cell_angle_beta 90.
_cell_angle_gamma 90.
_cell_volume 301.12
_cell_formula_units_Z 4
_symmetry_space_group_name_H-M 'P b n m'
_symmetry_Int_Tables_number 62
_refine_ls_R_factor_all 0.0292
loop_
_symmetry_equiv_pos_site_id
_symmetry_equiv_pos_as_xyz
1 '-x+1/2, y+1/2, z'
2 'x, y, -z+1/2'
3 'x+1/2, -y+1/2, z+1/2'
4 '-x, -y, -z'
5 'x+1/2, -y+1/2, -z'
6 '-x, -y, z+1/2'
7 '-x+1/2, y+1/2, -z+1/2'
8 'x, y, z'
loop_
_atom_type_symbol
_atom_type_oxidation_number
Li1+ 1
Mn2+ 2
Fe3+ 3.55
P5+ 5
O2- -2
loop_
_atom_site_label
_atom_site_type_symbol
_atom_site_symmetry_multiplicity
_atom_site_Wyckoff_symbol
_atom_site_fract_x
_atom_site_fract_y
_atom_site_fract_z
_atom_site_B_iso_or_equiv
_atom_site_occupancy
_atom_site_attached_hydrogens
Li1 Li1+ 4 a 0 0 0 0.019(2) 0.76(3) 0
Mn1 Mn2+ 4 c 0.97049(9) 0.28133(4) 0.25 0.0079(1) 0.8 0
Fe1 Fe3+ 4 c 0.97049(9) 0.28133(4) 0.25 0.0079(1) 0.180(3) 0
P1 P5+ 4 c 0.4108(1) 0.09375(7) 0.25 0.0079(2) 1. 0
O1 O2- 4 c 0.7299(5) 0.1007(2) 0.25 0.0137(4) 1. 0
O2 O2- 4 c 0.2030(4) 0.4555(2) 0.25 0.0126(4) 1. 0
O3 O2- 8 d 0.2763(3) 0.1637(2) 0.0497(2) 0.0131(3) 1. 0
#End of TTdata_290185-ICSD