
#(C) 2018 by FIZ Karlsruhe - Leibniz Institute for Information Infrastructure.  All rights reserved.
data_290202-ICSD
_database_code_ICSD 290202
_audit_creation_date 2013-08-01
_chemical_name_systematic 'Dilithium triodium aluminum bis(silicate)'
_chemical_formula_structural 'Li2 Na3 Al (Si O4)2'
_chemical_formula_sum 'Al1 Li2 Na3 O8 Si2'
_exptl_crystal_density_diffrn 2.67
_cell_measurement_temperature 294.
_publ_section_title

;
Synthesis, Structure Characterization, and Optical Properties of the
Aluminosilicate Li2 Na3 Al Si2 O8
;
loop_
_citation_id
_citation_journal_full
_citation_year
_citation_journal_volume
_citation_page_first
_citation_page_last
_citation_journal_id_ASTM
primary 'Zeitschrift fuer Anorganische und Allgemeine Chemie (1950) (DE)' 2013
639 779 783 ZAACAB
loop_
_publ_author_name
'Han, Shujuan'
'Pan, Shilie'
'Yang, Zhihua'
'Wang, Ying'
'Zhang, Bingbing'
'Zhang, Min'
'Huang, Zhenjun'
'Dong, Lingyun'
'Yu, Hongwei'
_cell_length_a 14.1045(19)
_cell_length_b 14.7054(19)
_cell_length_c 7.0635(9)
_cell_angle_alpha 90.
_cell_angle_beta 90.
_cell_angle_gamma 90.
_cell_volume 1465.06
_cell_formula_units_Z 8
_symmetry_space_group_name_H-M 'C m c a'
_symmetry_Int_Tables_number 64
_refine_ls_R_factor_all 0.0213
loop_
_symmetry_equiv_pos_site_id
_symmetry_equiv_pos_as_xyz
1 '-x, -y+1/2, z+1/2'
2 '-x, y+1/2, -z+1/2'
3 '-x, y, z'
4 '-x, -y, -z'
5 'x, y+1/2, -z+1/2'
6 'x, -y+1/2, z+1/2'
7 'x, -y, -z'
8 'x, y, z'
9 '-x+1/2, -y, z+1/2'
10 '-x+1/2, y, -z+1/2'
11 '-x+1/2, y+1/2, z'
12 '-x+1/2, -y+1/2, -z'
13 'x+1/2, y, -z+1/2'
14 'x+1/2, -y, z+1/2'
15 'x+1/2, -y+1/2, -z'
16 'x+1/2, y+1/2, z'
loop_
_atom_type_symbol
_atom_type_oxidation_number
Si4+ 4
Al3+ 3
Na1+ 1
Li1+ 1
O2- -2
loop_
_atom_site_label
_atom_site_type_symbol
_atom_site_symmetry_multiplicity
_atom_site_Wyckoff_symbol
_atom_site_fract_x
_atom_site_fract_y
_atom_site_fract_z
_atom_site_B_iso_or_equiv
_atom_site_occupancy
_atom_site_attached_hydrogens
Si1 Si4+ 8 f 0.5 0.5976(1) 0.2839(1) 0.007(1) 1. 0
Si2 Si4+ 8 e 0.75 0.6544(1) -0.25 0.007(1) 1. 0
Al1 Al3+ 8 d 0.6618(1) 0.5 0.5 0.007(1) 1. 0
Na1 Na1+ 8 d 0.6223(1) 0.5 0 0.018(1) 1. 0
Na2 Na1+ 8 e 0.75 0.8483(1) -0.25 0.021(1) 1. 0
Na3 Na1+ 8 f 0.5 0.3656(1) 0.2474(1) 0.022(1) 1. 0
Li1 Li1+ 16 g 0.5950(2) 0.7570(2) 0.5138(4) 0.013(1) 1. 0
O1 O2- 8 f 0.5 0.6706(1) 0.4496(2) 0.011(1) 1. 0
O2 O2- 8 f 0.5 0.6338(1) 0.0692(2) 0.012(1) 1. 0
O3 O2- 16 g 0.5936(1) 0.5295(1) 0.3044(2) 0.014(1) 1. 0
O4 O2- 16 g 0.7593(1) 0.5878(1) -0.0617(2) 0.011(1) 1. 0
O5 O2- 16 g 0.6557(1) 0.7157(1) -0.2327(1) 0.011(1) 1. 0
#End of TTdata_290202-ICSD