
#(C) 2017 by FIZ Karlsruhe - Leibniz Institute for Information Infrastructure.  All rights reserved.
data_290252-ICSD
_database_code_ICSD 290252
_audit_creation_date 2013-08-01
_chemical_name_systematic 'Dilithium hexafluorovanadate'
_chemical_formula_structural 'Li2 V F6'
_chemical_formula_sum 'F6 Li2 V1'
_chemical_name_structure_type ZnSb2O6
_exptl_crystal_density_diffrn 3.13
_cell_measurement_temperature 293.
_publ_section_title

;
Preparation and crystal structure of a new lithium vanadium fluoride Li2 V F6
with trirutile-type structure
;
loop_
_citation_id
_citation_journal_full
_citation_year
_citation_journal_volume
_citation_page_first
_citation_page_last
_citation_journal_id_ASTM
primary 'Zeitschrift fuer Naturforschung, B: Chemical Sciences' 2013 68 121 126
ZNBSEN
loop_
_publ_author_name
'Nakhal, Suliman'
'Weber, Dominik'
'Lerch, Martin'
_cell_length_a 4.5999(1)
_cell_length_b 4.5999(1)
_cell_length_c 8.9664(2)
_cell_angle_alpha 90.
_cell_angle_beta 90.
_cell_angle_gamma 90.
_cell_volume 189.72
_cell_formula_units_Z 2
_symmetry_space_group_name_H-M 'P 42/m n m'
_symmetry_Int_Tables_number 136
_refine_ls_R_factor_all 0.0473
loop_
_symmetry_equiv_pos_site_id
_symmetry_equiv_pos_as_xyz
1 '-y+1/2, x+1/2, -z+1/2'
2 'y+1/2, -x+1/2, -z+1/2'
3 'y, x, -z'
4 '-y, -x, -z'
5 'y+1/2, -x+1/2, z+1/2'
6 '-y+1/2, x+1/2, z+1/2'
7 '-y, -x, z'
8 'y, x, z'
9 'x+1/2, -y+1/2, -z+1/2'
10 '-x+1/2, y+1/2, -z+1/2'
11 'x, y, -z'
12 '-x, -y, -z'
13 '-x+1/2, y+1/2, z+1/2'
14 'x+1/2, -y+1/2, z+1/2'
15 '-x, -y, z'
16 'x, y, z'
loop_
_atom_type_symbol
_atom_type_oxidation_number
V4+ 4
Li1+ 1
F1- -1
loop_
_atom_site_label
_atom_site_type_symbol
_atom_site_symmetry_multiplicity
_atom_site_Wyckoff_symbol
_atom_site_fract_x
_atom_site_fract_y
_atom_site_fract_z
_atom_site_B_iso_or_equiv
_atom_site_occupancy
_atom_site_attached_hydrogens
V1 V4+ 2 b 0 0 0.5 0.42(5) 1. 0
Li1 Li1+ 4 e 0 0 0.1646 0.7 1. 0
F1 F1- 8 j 0.1979(3) 0.1979(3) 0.3429(2) 0.41(7) 1. 0
F2 F1- 4 f -0.2868(4) 0.2868(4) 0.5 0.72(9) 1. 0
#End of TTdata_290252-ICSD