
#(C) 2018 by FIZ Karlsruhe - Leibniz Institute for Information Infrastructure.  All rights reserved.
data_290325-ICSD
_database_code_ICSD 290325
_audit_creation_date 2014-02-01
_chemical_name_systematic 'Lithium sodium undecamolybdate'
_chemical_formula_structural 'Li0.17 Na5.83 Mo11 O36'
_chemical_formula_sum 'Li0.17 Mo11 Na5.83 O36'
_exptl_crystal_density_diffrn 4.12
_cell_measurement_temperature 298.
_publ_section_title 'Li0.17 Na5.83 Mo11 O36'
loop_
_citation_id
_citation_journal_full
_citation_year
_citation_journal_volume
_citation_page_first
_citation_page_last
_citation_journal_id_ASTM
primary 'Acta Crystallographica, Section E: Structure Reports Online' 2012 68
i88 i88 ACSEBH
loop_
_publ_author_name
'Ennajeh, I.'
'Hamza, H.'
'Zid, M.F.'
'Driss, A.'
_cell_length_a 7.2250(9)
_cell_length_b 17.863(2)
_cell_length_c 22.086(3)
_cell_angle_alpha 90.
_cell_angle_beta 90.162(8)
_cell_angle_gamma 90.
_cell_volume 2850.41
_cell_formula_units_Z 4
_symmetry_space_group_name_H-M 'C 1 2/c 1'
_symmetry_Int_Tables_number 15
_refine_ls_R_factor_all 0.0365
loop_
_symmetry_equiv_pos_site_id
_symmetry_equiv_pos_as_xyz
1 'x, -y, z+1/2'
2 '-x, -y, -z'
3 '-x, y, -z+1/2'
4 'x, y, z'
5 'x+1/2, -y+1/2, z+1/2'
6 '-x+1/2, -y+1/2, -z'
7 '-x+1/2, y+1/2, -z+1/2'
8 'x+1/2, y+1/2, z'
loop_
_atom_type_symbol
_atom_type_oxidation_number
Mo6+ 6
Na1+ 1
Li1+ 1
O2- -2
loop_
_atom_site_label
_atom_site_type_symbol
_atom_site_symmetry_multiplicity
_atom_site_Wyckoff_symbol
_atom_site_fract_x
_atom_site_fract_y
_atom_site_fract_z
_atom_site_B_iso_or_equiv
_atom_site_occupancy
_atom_site_attached_hydrogens
Mo1 Mo6+ 8 f -0.05004(7) 0.09121(3) 0.08276(2) 0.00620(14) 1 0
Mo2 Mo6+ 8 f -0.04296(7) 0.09488(3) -0.08670(2) 0.00647(15) 1 0
Mo3 Mo6+ 8 f 0.28669(7) 0.16698(3) 0.17148(2) 0.00669(15) 1 0
Mo4 Mo6+ 4 e 0. 0.06761(4) 0.25 0.00700(18) 1 0
Mo5 Mo6+ 8 f 0.29608(6) 0.15641(3) 0.00098(2) 0.00611(14) 1 0
Mo6 Mo6+ 8 f 0.28716(7) 0.15684(3) -0.17582(2) 0.00792(15) 1 0
Na1 Na1+ 8 f 0.7353(3) 0.24829(16) -0.17054(12) 0.0162(5) 1 0
Na2 Na1+ 4 e 0.5 -0.0049(3) 0.25 0.0223(9) 1 0
Na3 Na1+ 8 f 0.4865(3) -0.00129(15) 0.08703(11) 0.0146(9) 0.974(12) 0
Na4 Na1+ 4 d 0.75 0.25 0. 0.0144(13) 0.884(17) 0
Li1 Li1+ 4 e 0. 0.080(5) 0.75 0.0144(13) 0.17(3) 0
O1 O2- 8 f 0.8364(6) 0.0093(3) 0.91649(19) 0.0096(8) 1 0
O2 O2- 8 f 0.1841(6) 0.0087(3) 0.2570(2) 0.0155(9) 1 0
O3 O2- 8 f 0.0629(6) 0.2560(3) 0.8312(2) 0.0114(9) 1 0
O4 O2- 8 f 0.8115(6) 0.0125(3) 0.0820(2) 0.0116(9) 1 0
O5 O2- 8 f 0.4298(6) 0.2375(3) 0.0005(2) 0.0116(9) 1 0
O6 O2- 8 f 0.4138(5) 0.2410(2) 0.84170(19) 0.0085(8) 1 0
O7 O2- 8 f 0.0400(6) 0.1004(3) 0.83715(19) 0.0105(9) 1 0
O8 O2- 8 f 0.7382(7) 0.1602(3) 0.7519(2) 0.0183(10) 1 0
O9 O2- 8 f 0.2093(6) 0.1534(2) 0.9216(2) 0.0093(9) 1 0
O10 O2- 8 f 0.0275(6) 0.0968(3) 0.16486(18) 0.0097(9) 1 0
O11 O2- 8 f 0.2069(6) 0.1538(2) 0.08222(19) 0.0086(9) 1 0
O12 O2- 8 f 0.0345(6) 0.0951(2) 0.00058(18) 0.0098(9) 1 0
O13 O2- 8 f 0.4304(7) 0.0913(3) 0.1661(2) 0.0152(9) 1 0
O14 O2- 8 f 0.2059(7) 0.1611(2) 0.2469(2) 0.0111(9) 1 0
O15 O2- 8 f 0.7919(6) 0.1631(3) 0.9173(2) 0.0145(10) 1 0
O16 O2- 8 f 0.4536(6) 0.0861(3) 0.0022(2) 0.0145(10) 1 0
O17 O2- 8 f 0.7944(7) 0.1625(3) 0.0817(2) 0.0157(10) 1 0
O18 O2- 8 f 0.4428(7) 0.0853(3) 0.8357(2) 0.0139(9) 1 0
loop_
_atom_site_aniso_label
_atom_site_aniso_type_symbol
_atom_site_aniso_U_11
_atom_site_aniso_U_22
_atom_site_aniso_U_33
_atom_site_aniso_U_12
_atom_site_aniso_U_13
_atom_site_aniso_U_23
Mo1 Mo6+ 0.0053(2) 0.0088(3) 0.0045(2) -0.00116(18) 0.00002(16) 0.00022(17)
Mo2 Mo6+ 0.0057(2) 0.0083(3) 0.0054(2) -0.00105(17) -0.00061(17) 0.00018(17)
Mo3 Mo6+ 0.0053(2) 0.0087(3) 0.0060(2) -0.00102(18) -0.00057(17) 0.00020(17)
Mo4 Mo6+ 0.0072(3) 0.0091(3) 0.0047(3) 0. 0.0014(2) 0.
Mo5 Mo6+ 0.0057(2) 0.0083(3) 0.0044(2) -0.00079(18) 0.00004(17) -0.00012(17)
Mo6 Mo6+ 0.0070(2) 0.0083(3) 0.0084(3) -0.00041(18) 0.00160(17) 0.00070(17)
Na1 Na1+ 0.0115(12) 0.0206(14) 0.0166(13) -0.0003(11) -0.0004(9) -0.0012(11)
Na2 Na1+ 0.0123(17) 0.034(2) 0.020(2) 0. 0.0043(14) 0.
Na3 Na1+ 0.0097(13) 0.0197(16) 0.0143(15) 0.0014(11) -0.0013(10) 0.0010(11)
Na4 Na1+ 0.012(2) 0.017(2) 0.014(2) 0.0019(16) -0.0013(15) -0.0008(16)
Li1 Li1+ 0.012(2) 0.017(2) 0.014(2) 0.0019(16) -0.0013(15) -0.0008(16)
O1 O2- 0.0059(18) 0.014(2) 0.009(2) -0.0004(17) -0.0012(14) -0.0016(16)
O2 O2- 0.013(2) 0.015(2) 0.018(2) 0.0023(19) 0.0045(17) 0.0058(19)
O3 O2- 0.0074(19) 0.012(2) 0.015(2) -0.0013(17) -0.0008(16) 0.0025(17)
O4 O2- 0.0072(19) 0.015(2) 0.012(2) -0.0031(17) 0.0005(16) -0.0022(17)
O5 O2- 0.0109(19) 0.013(2) 0.011(2) -0.0021(18) -0.0003(16) 0.0008(17)
O6 O2- 0.0052(17) 0.010(2) 0.010(2) -0.0023(16) 0.0013(15) -0.0002(16)
O7 O2- 0.012(2) 0.012(2) 0.008(2) -0.0028(17) 0.0002(15) -0.0005(16)
O8 O2- 0.021(3) 0.022(3) 0.012(2) 0.005(2) -0.0009(18) -0.0007(19)
O9 O2- 0.011(2) 0.011(2) 0.0065(19) -0.0018(16) 0.0010(16) -0.0036(15)
O10 O2- 0.011(2) 0.015(2) 0.0028(19) -0.0045(17) 0.0008(15) 0.0009(15)
O11 O2- 0.009(2) 0.011(2) 0.0052(19) -0.0031(16) 0.0013(15) -0.0009(15)
O12 O2- 0.013(2) 0.014(2) 0.0029(18) -0.0053(17) 0.0017(16) -0.0010(15)
O13 O2- 0.016(2) 0.014(2) 0.015(2) 0.0051(18) -0.0008(17) 0.0000(18)
O14 O2- 0.014(2) 0.014(2) 0.0057(19) -0.0003(17) 0.0002(16) -0.0009(16)
O15 O2- 0.014(2) 0.015(2) 0.014(2) 0.0034(18) 0.0010(18) 0.0006(17)
O16 O2- 0.016(2) 0.012(2) 0.015(2) 0.0039(18) -0.0007(18) -0.0012(18)
O17 O2- 0.017(2) 0.015(2) 0.014(2) 0.0004(18) -0.0015(18) 0.0026(18)
O18 O2- 0.015(2) 0.012(2) 0.014(2) 0.0038(18) 0.0031(17) 0.0010(17)
#End of TTdata_290325-ICSD