
#(C) 2018 by FIZ Karlsruhe - Leibniz Institute for Information Infrastructure.  All rights reserved.
data_291187-ICSD
_database_code_ICSD 291187
_audit_creation_date 2015-08-01
_chemical_name_systematic 'Sodium lithium iron digermanate (0.5/0.5/1/1)'
_chemical_formula_structural 'Na0.5 Li0.5 Fe Ge2 O6'
_chemical_formula_sum 'Fe1 Ge2 Li0.5 Na0.5 O6'
_chemical_name_mineral Pyroxene
_exptl_crystal_density_diffrn 2.92
_cell_measurement_temperature 133.
_publ_section_title

;
Crystal and magnetic structures, phase transitions in quasi-one-dimensional
pyroxenes Na0.5 Li0.5 Fe Ge2 O6
;
loop_
_citation_id
_citation_journal_full
_citation_year
_citation_journal_volume
_citation_page_first
_citation_page_last
_citation_journal_id_ASTM
primary 'Journal of Magnetism and Magnetic Materials' 2015 385 243 249 JMMMDC
loop_
_publ_author_name
'Drokina, T.V.'
'Petrakovskii, G.A.'
'Molokeev, M.S.'
'Misyul, S.V.'
'Bondarev, V.S.'
'Velikanov, D.A.'
'Frontzek, M.'
'Schefer, J.'
_cell_length_a 9.9692(3)
_cell_length_b 8.8545(3)
_cell_length_c 8.4752(2)
_cell_angle_alpha 90
_cell_angle_beta 108.494(1)
_cell_angle_gamma 90
_cell_volume 709.49
_cell_formula_units_Z 4
_symmetry_space_group_name_H-M 'P 1 21/c 1'
_symmetry_Int_Tables_number 14
_refine_ls_R_factor_all 0.0284
loop_
_symmetry_equiv_pos_site_id
_symmetry_equiv_pos_as_xyz
1 'x, -y+1/2, z+1/2'
2 '-x, -y, -z'
3 '-x, y+1/2, -z+1/2'
4 'x, y, z'
loop_
_atom_type_symbol
_atom_type_oxidation_number
Li1+ 1
Na1+ 1
Fe3+ 3
Ge4+ 4
O2- -2
loop_
_atom_site_label
_atom_site_type_symbol
_atom_site_symmetry_multiplicity
_atom_site_Wyckoff_symbol
_atom_site_fract_x
_atom_site_fract_y
_atom_site_fract_z
_atom_site_B_iso_or_equiv
_atom_site_occupancy
_atom_site_attached_hydrogens
Li1 Li1+ 4 e 0.228(3) 0.033(2) 0.192(6) 0.5(5) 0.5 0
Na1 Na1+ 4 e 0.228(2) 0.033(2) 0.192(6) 0.5(5) 0.5 0
Fe1 Fe3+ 4 e 0.260(1) 0.6546(6) 0.222(2) 0.5(2) 1. 0
Ge1 Ge4+ 4 e 0.0435(8) 0.341(1) 0.253(2) 0.5(2) 1. 0
Ge2 Ge4+ 4 e 0.5447(7) 0.846(1) 0.237(3) 1.5(3) 1. 0
O1 O2- 4 e 0.876(3) 0.349(3) 0.204(6) 1.5(3) 1. 0
O2 O2- 4 e 0.118(3) 0.526(4) 0.318(7) 1.5(3) 1. 0
O3 O2- 4 e 0.085(3) 0.241(3) 0.546(7) 1.5(3) 1. 0
O4 O2- 4 e 0.364(3) 0.807(3) 0.135(7) 1.5(3) 1. 0
O5 O2- 4 e 0.603(3) 1.015(4) 0.334(8) 1.5(3) 1. 0
O6 O2- 4 e 0.620(3) 0.713(3) 0.515(6) 1.5(3) 1. 0
#End of TTdata_291187-ICSD