
#(C) 2018 by FIZ Karlsruhe - Leibniz Institute for Information Infrastructure.  All rights reserved.
data_300010-ICSD
_database_code_ICSD 300010
_audit_creation_date 1985-01-24
_audit_update_record 1998-06-26
_chemical_name_systematic 'Lithium heptaoxotetraborate'
_chemical_formula_structural 'Li2 (B4 O7)'
_chemical_formula_sum 'B4 Li2 O7'
_chemical_name_structure_type Li2B4O7
_chemical_name_mineral Diomignite
_exptl_crystal_density_diffrn 2.43
_publ_section_title 'Dilithium tetraborate, Li2 B4 O7'
loop_
_citation_id
_citation_journal_full
_citation_year
_citation_journal_volume
_citation_page_first
_citation_page_last
_citation_journal_id_ASTM
primary 'Crystal Structure Communications' 1979 8 367 370 CSCMCS
loop_
_publ_author_name
'Natarajan-Iyer, M.'
'Faggiani, R.'
'Brown, I.D.'
_cell_length_a 9.477(5)
_cell_length_b 9.477(5)
_cell_length_c 10.286(6)
_cell_angle_alpha 90.
_cell_angle_beta 90.
_cell_angle_gamma 90.
_cell_volume 923.82
_cell_formula_units_Z 8
_symmetry_space_group_name_H-M 'I 41 c d'
_symmetry_Int_Tables_number 110
_refine_ls_R_factor_all 0.032
loop_
_symmetry_equiv_pos_site_id
_symmetry_equiv_pos_as_xyz
1 '-y, -x+1/2, z+3/4'
2 '-y, x+1/2, z+1/4'
3 'x, -y, z+1/2'
4 '-x, -y, z'
5 'y, x+1/2, z+3/4'
6 'y, -x+1/2, z+1/4'
7 '-x, y, z+1/2'
8 'x, y, z'
9 '-y+1/2, -x, z+1/4'
10 '-y+1/2, x, z+3/4'
11 'x+1/2, -y+1/2, z'
12 '-x+1/2, -y+1/2, z+1/2'
13 'y+1/2, x, z+1/4'
14 'y+1/2, -x, z+3/4'
15 '-x+1/2, y+1/2, z'
16 'x+1/2, y+1/2, z+1/2'
loop_
_atom_type_symbol
_atom_type_oxidation_number
Li1+ 1
B3+ 3
O2- -2
loop_
_atom_site_label
_atom_site_type_symbol
_atom_site_symmetry_multiplicity
_atom_site_Wyckoff_symbol
_atom_site_fract_x
_atom_site_fract_y
_atom_site_fract_z
_atom_site_B_iso_or_equiv
_atom_site_occupancy
_atom_site_attached_hydrogens
Li1 Li1+ 16 b 0.1496(5) 0.1657(5) 0.8519(5) . 1. 0
B1 B3+ 16 b 0.1683(3) 0.0862(3) 0.2010(4) . 1. 0
B2 B3+ 16 b 0.9465(2) 0.1126(2) 0.0824(4) . 1. 0
O1 O2- 16 b 0.2813(4) 0.1372(1) 0.2653(3) . 1. 0
O2 O2- 16 b 0.0671(2) 0.1777(1) 0.1565(3) . 1. 0
O3 O2- 16 b 0.1562(2) 0.9432(1) 0.1814(3) . 1. 0
O4 O2- 8 a 0 0 0 . 1. 0
loop_
_atom_site_aniso_label
_atom_site_aniso_type_symbol
_atom_site_aniso_U_11
_atom_site_aniso_U_22
_atom_site_aniso_U_33
_atom_site_aniso_U_12
_atom_site_aniso_U_13
_atom_site_aniso_U_23
Li1 Li1+ 0.0258(22) 0.0285(23) 0.0385(29) 0.0119(19) -.0088(20) -.0159(22)
B1 B3+ 0.0103(9) 0.0098(10) 0.0114(10) 0.0013(8) 0.0006(8) 0.0003(9)
B2 B3+ 0.009(1) 0.0102(10) 0.0133(10) 0.0008(8) -.0006(9) 0.0028(9)
O1 O2- 0.0103(7) 0.0068(7) 0.0180(8) 0.0(5) -.0037(7) 0.0012(6)
O2 O2- 0.0099(7) 0.0082(6) 0.0173(8) 0.0016(5) -.0034(6) 0.0004(6)
O3 O2- 0.0113(7) 0.0079(7) 0.0154(8) -.0002(6) -.0042(6) -.0003(6)
O4 O2- 0.0086(8) 0.0129(9) 0.0116(10) 0.0009(8) 0 0
#End of TTdata_300010-ICSD