
#(C) 2017 by FIZ Karlsruhe - Leibniz Institute for Information Infrastructure.  All rights reserved.
data_30338-ICSD
_database_code_ICSD 30338
_audit_creation_date 1986-10-02
_audit_update_record 2012-08-01
_chemical_name_systematic 'Tetralithium octafluorouranate(IV)'
_chemical_formula_structural 'Li4 (U F8)'
_chemical_formula_sum 'F8 Li4 U1'
_chemical_name_structure_type Li4UF8
_exptl_crystal_density_diffrn 4.71
_publ_section_title 'The crystal structure of Li4 U F8'
loop_
_citation_id
_citation_journal_full
_citation_year
_citation_journal_volume
_citation_page_first
_citation_page_last
_citation_journal_id_ASTM
primary 'Journal of Inorganic and Nuclear Chemistry' 1967 29 1631 1636 JINCAO
loop_
_publ_author_name
'Brunton, G.'
_cell_length_a 9.96
_cell_length_b 9.883
_cell_length_c 5.986
_cell_angle_alpha 90.
_cell_angle_beta 90.
_cell_angle_gamma 90.
_cell_volume 589.23
_cell_formula_units_Z 4
_symmetry_space_group_name_H-M 'P n m a'
_symmetry_Int_Tables_number 62
_refine_ls_R_factor_all 0.082
loop_
_symmetry_equiv_pos_site_id
_symmetry_equiv_pos_as_xyz
1 'x+1/2, y, -z+1/2'
2 'x, -y+1/2, z'
3 '-x+1/2, y+1/2, z+1/2'
4 '-x, -y, -z'
5 '-x+1/2, -y, z+1/2'
6 '-x, y+1/2, -z'
7 'x+1/2, -y+1/2, -z+1/2'
8 'x, y, z'
loop_
_atom_type_symbol
_atom_type_oxidation_number
U4+ 4
F1- -1
Li1+ 1
loop_
_atom_site_label
_atom_site_type_symbol
_atom_site_symmetry_multiplicity
_atom_site_Wyckoff_symbol
_atom_site_fract_x
_atom_site_fract_y
_atom_site_fract_z
_atom_site_B_iso_or_equiv
_atom_site_occupancy
_atom_site_attached_hydrogens
U1 U4+ 4 c 0.14000(1) 0.25 0.36340(2) . 1. 0
F1 F1- 8 d 0.027(2) 0.107(2) 0.128(3) 0.0224 1. 0
F2 F1- 8 d 0.023(2) 0.121(2) 0.608(2) 0.018 1. 0
F3 F1- 8 d 0.241(2) 0.031(2) 0.375(3) 0.0232 1. 0
F4 F1- 4 c 0.309(3) 0.25 0.117(4) 0.0236 1. 0
F5 F1- 4 c 0.292(2) 0.25 0.633(4) 0.018 1. 0
Li1 Li1+ 8 d 0.376(9) 0.055(9) 0.099(15) 0.0424 1. 0
Li2 Li1+ 8 d 0.395(13) 0.060(16) 0.649(22) 0.0696 1. 0
loop_
_atom_site_aniso_label
_atom_site_aniso_type_symbol
_atom_site_aniso_beta_11
_atom_site_aniso_beta_22
_atom_site_aniso_beta_33
_atom_site_aniso_beta_12
_atom_site_aniso_beta_13
_atom_site_aniso_beta_23
U1 U4+ 0.0007(1) 0.0011(1) 0.0085(3) 0 0.0001(2) 0
#End of TTdata_30338-ICSD