
#(C) 2018 by FIZ Karlsruhe - Leibniz Institute for Information Infrastructure.  All rights reserved.
data_33251-ICSD
_database_code_ICSD 33251
_audit_creation_date 1985-03-07
_audit_update_record 2006-04-01
_chemical_name_systematic 'Potassium lithium sulfate(VI)'
_chemical_formula_structural 'K Li (S O4)'
_chemical_formula_sum 'K1 Li1 O4 S1'
_chemical_name_structure_type LiKSO4
_exptl_crystal_density_diffrn 2.37
_publ_section_title
'Determining the position of lithium atom in lithium potassium sulphate'
loop_
_citation_id
_citation_journal_full
_citation_year
_citation_journal_volume
_citation_page_first
_citation_page_last
_citation_journal_id_ASTM
primary 'Wu Li Hsueh Pao (= Acta Physica Sinica)' 1983 32 1196 1199 WLHPAR
loop_
_publ_author_name
'Gu, Y.-X.'
_cell_length_a 5.154(3)
_cell_length_b 5.154(3)
_cell_length_c 8.648(4)
_cell_angle_alpha 90.
_cell_angle_beta 90.
_cell_angle_gamma 120.
_cell_volume 198.95
_cell_formula_units_Z 2
_symmetry_space_group_name_H-M 'P 63'
_symmetry_Int_Tables_number 173
loop_
_symmetry_equiv_pos_site_id
_symmetry_equiv_pos_as_xyz
1 'x-y, x, z+1/2'
2 'y, -x+y, z+1/2'
3 '-x, -y, z+1/2'
4 '-x+y, -x, z'
5 '-y, x-y, z'
6 'x, y, z'
loop_
_atom_type_symbol
_atom_type_oxidation_number
K1+ 1
S6+ 6
O2- -2
Li1+ 1
loop_
_atom_site_label
_atom_site_type_symbol
_atom_site_symmetry_multiplicity
_atom_site_Wyckoff_symbol
_atom_site_fract_x
_atom_site_fract_y
_atom_site_fract_z
_atom_site_B_iso_or_equiv
_atom_site_occupancy
_atom_site_attached_hydrogens
K1 K1+ 2 a 0 0 0 . 1. 0
S1 S6+ 2 b 0.6667 0.3333 0.2942(2) . 1. 0
O1 O2- 2 b 0.6667 0.3333 0.4609(9) . 1. 0
O2 O2- 6 c 0.4020(7) 0.3437(7) 0.2401(5) . 1. 0
Li1 Li1+ 2 b 0.3333 0.6667 0.1797(16) 0.0205(24) 1. 0
loop_
_atom_site_aniso_label
_atom_site_aniso_type_symbol
_atom_site_aniso_U_11
_atom_site_aniso_U_22
_atom_site_aniso_U_33
_atom_site_aniso_U_12
_atom_site_aniso_U_13
_atom_site_aniso_U_23
K1 K1+ 0.0202(4) 0.0202(4) 0.0188(5) 0.0101(2) 0 0
S1 S6+ 0.0100(3) 0.0100(3) 0.0100(4) 0.0050(2) 0 0
O1 O2- 0.0620(31) 0.0620(31) 0.0119(19) 0.0310(16) 0 0
O2 O2- 0.0159(13) 0.0222(16) 0.0489(17) 0.0113(12) -.0093(14) 0.0012(14)
#End of TTdata_33251-ICSD