
#(C) 2018 by FIZ Karlsruhe - Leibniz Institute for Information Infrastructure.  All rights reserved.
data_33506-ICSD
_database_code_ICSD 33506
_audit_creation_date 1982-12-31
_audit_update_record 2006-04-01
_chemical_name_systematic 'Tetralithium hexathioduo-diphosphate(IV)'
_chemical_formula_structural 'Li4 (P2 S6)'
_chemical_formula_sum 'Li4 P2 S6'
_exptl_crystal_density_diffrn 2.23
_cell_measurement_temperature 293.
_publ_section_title

;
Synthese, structure cristalline et analyse vibrationelle de
l'hexathiohypophosphate de lithium Li4 P2 S6
;
loop_
_citation_id
_citation_journal_full
_citation_year
_citation_journal_volume
_citation_page_first
_citation_page_last
_citation_journal_id_ASTM
primary 'Journal of Solid State Chemistry' 1982 43 151 162 JSSCBI
loop_
_publ_author_name
'Mercier, R.'
'Malugani, J.P.'
'Fahys, B.'
'Douglade, J.'
'Robert, G.'
_cell_length_a 6.070(4)
_cell_length_b 6.070(4)
_cell_length_c 6.577(4)
_cell_angle_alpha 90.
_cell_angle_beta 90.
_cell_angle_gamma 120.
_cell_volume 209.86
_cell_formula_units_Z 1
_symmetry_space_group_name_H-M 'P 63/m c m'
_symmetry_Int_Tables_number 193
_refine_ls_R_factor_all 0.047
loop_
_symmetry_equiv_pos_site_id
_symmetry_equiv_pos_as_xyz
1 '-x, -x+y, -z+1/2'
2 'x-y, -y, -z+1/2'
3 'y, x, -z+1/2'
4 '-x+y, -x, -z+1/2'
5 '-y, x-y, -z+1/2'
6 'x, y, -z+1/2'
7 'x, x-y, z+1/2'
8 '-x+y, y, z+1/2'
9 '-y, -x, z+1/2'
10 'x-y, x, z+1/2'
11 'y, -x+y, z+1/2'
12 '-x, -y, z+1/2'
13 'x, x-y, -z'
14 '-x+y, y, -z'
15 '-y, -x, -z'
16 'x-y, x, -z'
17 'y, -x+y, -z'
18 '-x, -y, -z'
19 '-x, -x+y, z'
20 'x-y, -y, z'
21 'y, x, z'
22 '-x+y, -x, z'
23 '-y, x-y, z'
24 'x, y, z'
loop_
_atom_type_symbol
_atom_type_oxidation_number
Li1+ 1
P4+ 4
S2- -2
loop_
_atom_site_label
_atom_site_type_symbol
_atom_site_symmetry_multiplicity
_atom_site_Wyckoff_symbol
_atom_site_fract_x
_atom_site_fract_y
_atom_site_fract_z
_atom_site_B_iso_or_equiv
_atom_site_occupancy
_atom_site_attached_hydrogens
Li1 Li1+ 4 d 0.3333 0.6667 0 3.2 1. 0
P1 P4+ 4 e 0 0 0.1715(10) . 0.5 0
S1 S2- 6 g 0.3237(7) 0 0.25 . 1. 0
loop_
_atom_site_aniso_label
_atom_site_aniso_type_symbol
_atom_site_aniso_U_11
_atom_site_aniso_U_22
_atom_site_aniso_U_33
_atom_site_aniso_U_12
_atom_site_aniso_U_13
_atom_site_aniso_U_23
P1 P4+ 0.0195(20) 0.0195(20) 0.0167(24) 0.0098(10) 0 0
S1 S2- 0.0220(13) 0.0255(18) 0.026(1) 0.0128(9) 0 0
#End of TTdata_33506-ICSD