
#(C) 2017 by FIZ Karlsruhe - Leibniz Institute for Information Infrastructure.  All rights reserved.
data_33953-ICSD
_database_code_ICSD 33953
_audit_creation_date 1992-01-20
_chemical_name_systematic 'Lithium tetrafluoroaurate'
_chemical_formula_structural 'Li (Au F4)'
_chemical_formula_sum 'Au1 F4 Li1'
_exptl_crystal_density_diffrn 6.02
_publ_section_title

;
Darstellung und Struktur der Tetrafluoroaurate(III) M(I)(AuF4) mit M(I) = Li,
Rb
;
loop_
_citation_id
_citation_journal_full
_citation_year
_citation_journal_volume
_citation_page_first
_citation_page_last
_citation_journal_id_ASTM
primary 'Zeitschrift fuer Anorganische und Allgemeine Chemie (1950) (DE)' 1991
598 103 110 ZAACAB
loop_
_publ_author_name
'Engelmann, U.'
'Mueller, B.G.'
_cell_length_a 4.8532(7)
_cell_length_b 6.3429(8)
_cell_length_c 10.0443(13)
_cell_angle_alpha 90.
_cell_angle_beta 92.759(12)
_cell_angle_gamma 90.
_cell_volume 308.84
_cell_formula_units_Z 4
_symmetry_space_group_name_H-M 'P 1 2/c 1'
_symmetry_Int_Tables_number 13
_refine_ls_R_factor_all 0.0415
loop_
_symmetry_equiv_pos_site_id
_symmetry_equiv_pos_as_xyz
1 'x, -y, z+1/2'
2 '-x, -y, -z'
3 '-x, y, -z+1/2'
4 'x, y, z'
loop_
_atom_type_symbol
_atom_type_oxidation_number
Au3+ 3
Li1+ 1
F1- -1
loop_
_atom_site_label
_atom_site_type_symbol
_atom_site_symmetry_multiplicity
_atom_site_Wyckoff_symbol
_atom_site_fract_x
_atom_site_fract_y
_atom_site_fract_z
_atom_site_B_iso_or_equiv
_atom_site_occupancy
_atom_site_attached_hydrogens
Au1 Au3+ 2 d 0.5 0 0 . 1. 0
Au2 Au3+ 2 c 0 0.5 0 . 1. 0
Li1 Li1+ 2 e 0 0.8823(46) 0.25 0.0241(50) 1. 0
Li2 Li1+ 2 f 0.5 0.5693(41) 0.25 0.0168(44) 1. 0
F1 F1- 4 g 0.8237(19) 0.6346(16) 0.1502(9) . 1. 0
F2 F1- 4 g 0.6802(19) 0.1537(15) 0.8684(8) . 1. 0
F3 F1- 4 g 0.1983(19) 0.9028(13) 0.8808(9) . 1. 0
F4 F1- 4 g 0.2863(22) 0.4109(19) 0.1218(12) . 1. 0
loop_
_atom_site_aniso_label
_atom_site_aniso_type_symbol
_atom_site_aniso_U_11
_atom_site_aniso_U_22
_atom_site_aniso_U_33
_atom_site_aniso_U_12
_atom_site_aniso_U_13
_atom_site_aniso_U_23
Au1 Au3+ 0.0091(3) 0.0089(3) 0.0092(3) 0.0023(3) 0.0009(3) -.0066(3)
Au2 Au3+ 0.0166(4) 0.0170(4) 0.0159(4) -.0053(4) 0.0003(3) -.0045(4)
F1 F1- 0.0198(34) 0.0257(37) 0.0070(29) 0.0004(27) 0.0062(26) -.0017(30)
F2 F1- 0.0178(32) 0.0235(36) 0.0067(29) -.0007(27) 0.0028(25) -.0064(28)
F3 F1- 0.0201(34) 0.0102(31) 0.0150(32) 0.0096(26) -.0116(29) -.0021(26)
F4 F1- 0.0215(38) 0.0361(44) 0.0418(47) 0.0135(40) -.0002(38) 0.0204(36)
#End of TTdata_33953-ICSD