
#(C) 2018 by FIZ Karlsruhe - Leibniz Institute for Information Infrastructure.  All rights reserved.
data_36509-ICSD
_database_code_ICSD 36509
_audit_creation_date 1992-01-20
_chemical_name_systematic 'Lithium nickel arsenide (3.2/10.8/7)'
_chemical_formula_structural 'Li3.2 Ni10.8 As7'
_chemical_formula_sum 'As7 Li3.2 Ni10.8'
_chemical_name_structure_type Zr2Fe12P7
_exptl_crystal_density_diffrn 6.94
_publ_section_title 'Neue ternaere Alkaliphosphide und -arsenide des Nickels'
loop_
_citation_id
_citation_journal_full
_citation_year
_citation_journal_volume
_citation_page_first
_citation_page_last
_citation_journal_id_ASTM
primary 'Zeitschrift fuer Kristallographie (1979-2010)' 1991 196 179 192 ZEKRDZ
loop_
_publ_author_name
'Welzl, C.'
'Schuster, H.U.'
_cell_length_a 9.386(4)
_cell_length_b 9.386(4)
_cell_length_c 3.701(1)
_cell_angle_alpha 90.
_cell_angle_beta 90.
_cell_angle_gamma 120.
_cell_volume 282.36
_cell_formula_units_Z 1
_symmetry_space_group_name_H-M 'P -6'
_symmetry_Int_Tables_number 174
_refine_ls_R_factor_all 0.036
loop_
_symmetry_equiv_pos_site_id
_symmetry_equiv_pos_as_xyz
1 '-x+y, -x, -z'
2 '-y, x-y, -z'
3 'x, y, -z'
4 '-x+y, -x, z'
5 '-y, x-y, z'
6 'x, y, z'
loop_
_atom_type_symbol
_atom_type_oxidation_number
As3- -3
Ni1+ 1.648
Li1+ 1
Ni1+ 1.648
Li1+ 1
loop_
_atom_site_label
_atom_site_type_symbol
_atom_site_symmetry_multiplicity
_atom_site_Wyckoff_symbol
_atom_site_fract_x
_atom_site_fract_y
_atom_site_fract_z
_atom_site_B_iso_or_equiv
_atom_site_occupancy
_atom_site_attached_hydrogens
As1 As3- 1 a 0 0 0 0.0125(8) 1. 0
As2 As3- 3 k 0.1266(3) 0.4174(3) 0.5 0.0101(5) 1. 0
As3 As3- 3 j 0.4208(2) 0.2923(3) 0 0.0081(5) 1. 0
Ni1 Ni1+ 3 k 0.3859(3) 0.4298(3) 0.5 0.0079(6) 1. 0
Ni2 Ni1+ 3 j 0.4301(4) 0.0511(3) 0 0.0091(7) 1. 0
Ni3 Ni1+ 3 j 0.1647(3) 0.2845(3) 0 0.009(5) 1. 0
Li1 Li1+ 3 k 0.2170(4) 0.0946(5) 0.5 0.0110(9) 0.4 0
Ni4 Ni1+ 3 k 0.2170(4) 0.0946(5) 0.5 0.0110(9) 0.6 0
Li2 Li1+ 1 c 0.3333 0.6667 0 0.031(17) 1. 0
Li3 Li1+ 1 f 0.6667 0.3333 0.5 0.048(16) 1. 0
#End of TTdata_36509-ICSD