
#(C) 2018 by FIZ Karlsruhe - Leibniz Institute for Information Infrastructure.  All rights reserved.
data_36645-ICSD
_database_code_ICSD 36645
_audit_creation_date 1993-01-06
_chemical_name_systematic 'Dicesium lithium arsenate(V)'
_chemical_formula_structural 'Cs2 Li (As O4)'
_chemical_formula_sum 'As1 Cs2 Li1 O4'
_chemical_name_structure_type Rb2LiAsO4
_exptl_crystal_density_diffrn 4.57
_publ_section_title
'Neue Alkalioxoarsenate (V): Zur Kenntnis von Rb2Li(AsO4) und Cs2Li(AsO4)'
loop_
_citation_id
_citation_journal_full
_citation_year
_citation_journal_volume
_citation_page_first
_citation_page_last
_citation_journal_id_ASTM
primary 'Zeitschrift fuer Anorganische und Allgemeine Chemie (1950) (DE)' 1992
610 103 111 ZAACAB
loop_
_publ_author_name
'Schneidersmann, C.'
'Hoppe, R.'
_cell_length_a 5.964(2)
_cell_length_b 12.234(2)
_cell_length_c 8.197(3)
_cell_angle_alpha 90.
_cell_angle_beta 90.
_cell_angle_gamma 90.
_cell_volume 598.08
_cell_formula_units_Z 4
_symmetry_space_group_name_H-M 'C m c 21'
_symmetry_Int_Tables_number 36
_refine_ls_R_factor_all 0.026
loop_
_symmetry_equiv_pos_site_id
_symmetry_equiv_pos_as_xyz
1 'x, -y, z+1/2'
2 '-x, -y, z+1/2'
3 '-x, y, z'
4 'x, y, z'
5 'x+1/2, -y+1/2, z+1/2'
6 '-x+1/2, -y+1/2, z+1/2'
7 '-x+1/2, y+1/2, z'
8 'x+1/2, y+1/2, z'
loop_
_atom_type_symbol
_atom_type_oxidation_number
Cs1+ 1
As5+ 5
Li1+ 1
O2- -2
loop_
_atom_site_label
_atom_site_type_symbol
_atom_site_symmetry_multiplicity
_atom_site_Wyckoff_symbol
_atom_site_fract_x
_atom_site_fract_y
_atom_site_fract_z
_atom_site_B_iso_or_equiv
_atom_site_occupancy
_atom_site_attached_hydrogens
Cs1 Cs1+ 4 a 0 0.3953(1) 0 . 1. 0
Cs2 Cs1+ 4 a 0 0.9357(1) 0.6516(1) . 1. 0
As1 As5+ 4 a 0 0.3031(1) 0.4457(2) . 1. 0
Li1 Li1+ 4 a 0 0.7932(18) 0.2339(27) . 1. 0
O1 O2- 4 a 0 0.1687(6) 0.4864(11) . 1. 0
O2 O2- 4 a 0 0.3648(7) 0.6313(10) . 1. 0
O3 O2- 8 b 0.7645(11) 0.3394(6) 0.3413(9) . 1. 0
loop_
_atom_site_aniso_label
_atom_site_aniso_type_symbol
_atom_site_aniso_U_11
_atom_site_aniso_U_22
_atom_site_aniso_U_33
_atom_site_aniso_U_12
_atom_site_aniso_U_13
_atom_site_aniso_U_23
Cs1 Cs1+ 0.0164(3) 0.0206(4) 0.0197(3) 0 0 -.0024(3)
Cs2 Cs1+ 0.0176(3) 0.0217(4) 0.0208(3) 0 0 0.0028(3)
As1 As5+ 0.0107(5) 0.0129(5) 0.0121(4) 0 0 -.0014(4)
Li1 Li1+ 0.0044(78) 0.024(11) 0.0240(97) 0 0 -.0078(85)
O1 O2- 0.0229(43) 0.0160(37) 0.0174(38) 0 0 -.0027(35)
O2 O2- 0.0254(44) 0.0231(43) 0.0130(39) 0 0 -.0069(32)
O3 O2- 0.0135(26) 0.0385(39) 0.0221(29) 0.0029(27) -.0092(24) 0.0011(24)
#End of TTdata_36645-ICSD