
#(C) 2018 by FIZ Karlsruhe - Leibniz Institute for Information Infrastructure.  All rights reserved.
data_38036-ICSD
_database_code_ICSD 38036
_audit_creation_date 1983-12-31
_audit_update_record 2007-04-01
_chemical_name_systematic 'Trilithium tellurate(IV) hydroxide'
_chemical_formula_structural '(Li2 (Te O3)) (Li (O H))'
_chemical_formula_sum 'H1 Li3 O4 Te1'
_exptl_crystal_density_diffrn 3.32
_publ_section_title

;
Synthese, etude structurale par rayons X et par spectrometrie infrarouge et
Raman du tellurite basique Li2 Te O3, Li O H
;
loop_
_citation_id
_citation_journal_full
_citation_year
_citation_journal_volume
_citation_page_first
_citation_page_last
_citation_journal_id_ASTM
primary 'Revue de Chimie Minerale' 1983 20 129 139 RVCMA8
loop_
_publ_author_name
'Cachau-Herreillat, D.'
'Norbert, A.'
'Maurin, M.'
'Fourcade, R.'
'Philippot, E.'
_cell_length_a 6.771(2)
_cell_length_b 6.309(2)
_cell_length_c 5.433(2)
_cell_angle_alpha 90.
_cell_angle_beta 113.20(1)
_cell_angle_gamma 90.
_cell_volume 213.32
_cell_formula_units_Z 2
_symmetry_space_group_name_H-M 'P 1 21/m 1'
_symmetry_Int_Tables_number 11
_refine_ls_R_factor_all 0.046
loop_
_symmetry_equiv_pos_site_id
_symmetry_equiv_pos_as_xyz
1 'x, -y+1/2, z'
2 '-x, -y, -z'
3 '-x, y+1/2, -z'
4 'x, y, z'
loop_
_atom_type_symbol
_atom_type_oxidation_number
Te4+ 4
O2- -2
Li1+ 1
H1+ 1
loop_
_atom_site_label
_atom_site_type_symbol
_atom_site_symmetry_multiplicity
_atom_site_Wyckoff_symbol
_atom_site_fract_x
_atom_site_fract_y
_atom_site_fract_z
_atom_site_B_iso_or_equiv
_atom_site_occupancy
_atom_site_attached_hydrogens
Te1 Te4+ 2 e 0.1864(1) 0.25 0.1761(1) . 1. 0
O1 O2- 2 e 0.324(1) 0.25 0.548(1) . 1. 0
O2 O2- 4 f 0.328(1) 0.0259(8) 0.095(1) . 1. 0
O3 O2- 2 e 0.789(1) 0.25 0.476(1) . 1. 0
Li1 Li1+ 2 e 0.648(3) 0.25 0.716(4) . 1. 0
Li2 Li1+ 4 f 0.654(2) 0.017(2) 0.253(3) . 1. 0
H1 H1+ 2 e 0.93(2) 0.25 0.51(2) 3. 1. 0
loop_
_atom_site_aniso_label
_atom_site_aniso_type_symbol
_atom_site_aniso_U_11
_atom_site_aniso_U_22
_atom_site_aniso_U_33
_atom_site_aniso_U_12
_atom_site_aniso_U_13
_atom_site_aniso_U_23
Te1 Te4+ 0.0086(4) 0.0156(4) 0.0068(3) 0 0.0050(5) 0
O1 O2- 0.021(4) 0.011(3) 0.006(3) 0 0.009(2) 0
O2 O2- 0.017(2) 0.012(2) 0.009(2) 0.002(4) 0.014(4) -.001(4)
O3 O2- 0.015(4) 0.020(4) 9.(3) 0 0.013(5) 0
Li1 Li1+ 0.024(9) 0.001(7) 0.03(1) 0 0.03(2) 0
Li2 Li1+ 0.022(6) 0.011(5) 0.012(6) 0.004(6) 0.01(1) 0.002(9)
#End of TTdata_38036-ICSD