
#(C) 2018 by FIZ Karlsruhe - Leibniz Institute for Information Infrastructure.  All rights reserved.
data_380320-ICSD
_database_code_ICSD 380320
_audit_creation_date 2012-02-01
_chemical_name_systematic 'Tetrapotassium dilithium decavanadate decahydrate'
_chemical_formula_structural 'K4 Li2 (V10 O28) (H2 O)10'
_chemical_formula_sum 'H20 K4 Li2 O38 V10'
_chemical_name_structure_type K2NaV5O14(H2O)5
_exptl_crystal_density_diffrn 2.74
_cell_measurement_temperature 296.
_publ_section_title

;
A potassium-lithium double salt of decavanadate showing unprecedented
(6,8)-connected topology
;
loop_
_citation_id
_citation_journal_full
_citation_year
_citation_journal_volume
_citation_page_first
_citation_page_last
_citation_journal_id_ASTM
primary 'Chinese Journal of Chemistry' 2010 28 2404 2410 CJOCEV
loop_
_publ_author_name
'Lu Yao Kang'
'Feng Yun Long'
_cell_length_a 8.51290(10)
_cell_length_b 10.10400(10)
_cell_length_c 10.7280(2)
_cell_angle_alpha 69.3190(10)
_cell_angle_beta 87.4320(10)
_cell_angle_gamma 67.4800(10)
_cell_volume 793.09
_cell_formula_units_Z 1
_symmetry_space_group_name_H-M 'P -1'
_symmetry_Int_Tables_number 2
_refine_ls_R_factor_all 0.0202
loop_
_symmetry_equiv_pos_site_id
_symmetry_equiv_pos_as_xyz
1 '-x, -y, -z'
2 'x, y, z'
loop_
_atom_type_symbol
_atom_type_oxidation_number
V5+ 5
O2- -2
H1+ 1
O2- -2
H1+ 1
O2- -2
H1+ 1
O2- -2
H1+ 1
O2- -2
H1+ 1
Li1+ 1
K1+ 1
loop_
_atom_site_label
_atom_site_type_symbol
_atom_site_symmetry_multiplicity
_atom_site_Wyckoff_symbol
_atom_site_fract_x
_atom_site_fract_y
_atom_site_fract_z
_atom_site_B_iso_or_equiv
_atom_site_occupancy
_atom_site_attached_hydrogens
V1 V5+ 2 i 0.81012(5) -0.00353(4) 1.01902(4) 0.01297(11) 1 0
V2 V5+ 2 i 0.87777(5) 0.28847(4) 1.00386(4) 0.01552(11) 1 0
V3 V5+ 2 i 0.97255(5) 0.00836(4) 0.74723(4) 0.01521(11) 1 0
V4 V5+ 2 i 0.67320(5) 0.29179(4) 0.77123(4) 0.01740(12) 1 0
V5 V5+ 2 i 1.02919(5) 0.30046(4) 0.73090(4) 0.01708(12) 1 0
O1 O2- 2 i 1.1109(2) 0.41002(19) 0.63130(18) 0.0262(4) 1 0
O2 O2- 2 i 1.0060(2) -0.09664(19) 0.65740(17) 0.0221(4) 1 0
O3 O2- 2 i 0.8425(2) 0.38818(18) 1.09828(17) 0.0224(4) 1 0
O4 O2- 2 i 0.81748(19) 0.11521(17) 1.12345(15) 0.0139(3) 1 0
O5 O2- 2 i 0.4802(2) 0.39138(19) 0.70234(18) 0.0257(4) 1 0
O6 O2- 2 i 0.93131(18) 0.12823(16) 0.89149(15) 0.0130(3) 1 0
O7 O2- 2 i 0.7984(2) 0.39156(17) 0.66903(16) 0.0184(4) 1 0
O8 O2- 2 i 0.89580(19) -0.12198(16) 0.90870(16) 0.0139(3) 1 0
O9 O2- 2 i 0.62515(19) 0.12288(17) 0.92566(16) 0.0167(4) 1 0
O10 O2- 2 i 1.23729(19) 0.13886(17) 0.85561(16) 0.0166(3) 1 0
O11 O2- 2 i 0.9834(2) 0.37839(17) 0.86903(16) 0.0174(4) 1 0
O12 O2- 2 i 0.7497(2) 0.13964(17) 0.69328(16) 0.0176(4) 1 0
O13 O2- 2 i 0.6716(2) 0.37177(17) 0.90447(16) 0.0182(4) 1 0
O14 O2- 2 i 1.0595(2) 0.14929(18) 0.65741(16) 0.0182(4) 1 0
O15 O2- 2 i 0.8125(2) 0.6976(2) 0.7437(2) 0.0351(5) 1 0
H1 H1+ 2 i 0.885(3) 0.736(3) 0.741(3) 0.042 1 0
H2 H1+ 2 i 0.875(3) 0.6031(13) 0.768(2) 0.042 1 0
O16 O2- 2 i 0.5270(2) 0.9763(2) 0.7496(2) 0.0302(4) 1 0
H3 H1+ 2 i 0.440(3) 1.029(3) 0.774(3) 0.036 1 0
H4 H1+ 2 i 0.591(3) 1.020(3) 0.741(3) 0.036 1 0
O17 O2- 2 i 0.6782(2) 0.9928(2) 0.4861(2) 0.0313(5) 1 0
H5 H1+ 2 i 0.730(3) 1.012(3) 0.534(3) 0.038 1 0
H6 H1+ 2 i 0.752(3) 0.939(3) 0.453(3) 0.038 1 0
O18 O2- 2 i 0.5785(3) 0.7029(2) 0.5260(2) 0.0362(5) 1 0
H7 H1+ 2 i 0.597(4) 0.740(3) 0.452(2) 0.043 1 0
H8 H1+ 2 i 0.657(3) 0.618(2) 0.559(3) 0.043 1 0
O19 O2- 2 i 0.4618(3) 0.6985(2) 0.7813(2) 0.0392(5) 1 0
H9 H1+ 2 i 0.377(2) 0.743(3) 0.815(3) 0.047 1 0
H10 H1+ 2 i 0.489(3) 0.6050(12) 0.824(2) 0.047 1 0
Li1 Li1+ 2 i 0.5600(6) 0.8384(5) 0.6344(5) 0.0304(10) 1 0
K1 K1+ 2 i 0.67761(7) 0.70769(6) 0.99307(6) 0.02807(15) 1 0
K2 K1+ 2 i 0.23196(9) 0.67353(7) 0.57853(7) 0.04274(19) 1 0
loop_
_atom_site_aniso_label
_atom_site_aniso_type_symbol
_atom_site_aniso_U_11
_atom_site_aniso_U_22
_atom_site_aniso_U_33
_atom_site_aniso_U_12
_atom_site_aniso_U_13
_atom_site_aniso_U_23
V1 V5+ 0.0111(2) 0.0111(2) 0.0153(2) -0.00361(16) 0.00181(15) -0.00416(16)
V2 V5+ 0.0173(2) 0.01003(19) 0.0173(2) -0.00358(16) 0.00168(16) -0.00480(16)
V3 V5+ 0.0167(2) 0.0130(2) 0.0141(2) -0.00382(16) 0.00067(16) -0.00494(16)
V4 V5+ 0.0139(2) 0.0131(2) 0.0197(2) -0.00241(16) -0.00161(16) -0.00250(17)
V5 V5+ 0.0168(2) 0.0134(2) 0.0174(2) -0.00550(17) 0.00192(16) -0.00200(17)
O1 O2- 0.0272(10) 0.0237(9) 0.0246(10) -0.0136(8) 0.0050(7) -0.0018(8)
O2 O2- 0.0261(9) 0.0221(9) 0.0201(9) -0.0085(7) 0.0029(7) -0.0111(7)
O3 O2- 0.0262(9) 0.0155(8) 0.0255(10) -0.0060(7) 0.0028(7) -0.0099(7)
O4 O2- 0.0134(8) 0.0110(7) 0.0156(8) -0.0031(6) 0.0023(6) -0.0047(6)
O5 O2- 0.0189(9) 0.0203(9) 0.0300(10) -0.0018(7) -0.0050(7) -0.0059(8)
O6 O2- 0.0119(8) 0.0103(7) 0.0145(8) -0.0028(6) 0.0015(6) -0.0035(6)
O7 O2- 0.0184(8) 0.0135(8) 0.0182(9) -0.0042(7) -0.0003(7) -0.0019(7)
O8 O2- 0.0139(8) 0.0113(7) 0.0157(8) -0.0048(6) 0.0017(6) -0.0042(6)
O9 O2- 0.0131(8) 0.0152(8) 0.0197(9) -0.0047(6) 0.0010(6) -0.0046(7)
O10 O2- 0.0144(8) 0.0146(8) 0.0190(9) -0.0057(6) 0.0023(6) -0.0042(7)
O11 O2- 0.0194(8) 0.0115(8) 0.0199(9) -0.0059(7) 0.0024(7) -0.0043(7)
O12 O2- 0.0160(8) 0.0155(8) 0.0180(9) -0.0043(7) -0.0010(6) -0.0040(7)
O13 O2- 0.0164(8) 0.0123(8) 0.0210(9) -0.0013(6) 0.0006(7) -0.0050(7)
O14 O2- 0.0185(8) 0.0169(8) 0.0169(9) -0.0062(7) 0.0034(7) -0.0047(7)
O15 O2- 0.0300(11) 0.0182(9) 0.0517(13) -0.0060(8) -0.0057(9) -0.0092(9)
O16 O2- 0.0251(10) 0.0371(11) 0.0418(12) -0.0163(9) 0.0133(9) -0.0262(10)
O17 O2- 0.0250(10) 0.0374(12) 0.0309(12) -0.0074(9) 0.0034(8) -0.0172(9)
O18 O2- 0.0445(13) 0.0271(11) 0.0243(11) -0.0014(9) -0.0015(9) -0.0083(9)
O19 O2- 0.0388(12) 0.0239(10) 0.0512(14) -0.0111(9) 0.0274(10) -0.0133(10)
Li1 Li1+ 0.031(3) 0.027(2) 0.035(3) -0.012(2) 0.006(2) -0.014(2)
K1 K1+ 0.0269(3) 0.0230(3) 0.0340(4) -0.0080(2) 0.0025(2) -0.0120(3)
K2 K1+ 0.0497(4) 0.0272(3) 0.0295(4) 0.0063(3) -0.0022(3) -0.0084(3)
#End of TTdata_380320-ICSD