
#(C) 2017 by FIZ Karlsruhe - Leibniz Institute for Information Infrastructure.  All rights reserved.
data_391154-ICSD
_database_code_ICSD 391154
_audit_creation_date 2003-10-01
_audit_update_record 2005-10-01
_chemical_name_systematic 'Lithium bromide hydrate - LT'
_chemical_formula_structural 'Li Br (H2 O)'
_chemical_formula_sum 'H2 Br1 Li1 O1'
_chemical_name_structure_type LiClH2O
_exptl_crystal_density_diffrn 2.72
_cell_measurement_temperature 220.
_publ_section_title
'Die Kristallstrukturen der Monohydrate von Lithiumchlorid und Lithiumbromid'
loop_
_citation_id
_citation_journal_full
_citation_year
_citation_journal_volume
_citation_page_first
_citation_page_last
_citation_journal_id_ASTM
primary 'Zeitschrift fuer Anorganische und Allgemeine Chemie (1950) (DE)' 2003
629 312 316 ZAACAB
loop_
_publ_author_name
'Hoennerscheid, A.'
'Nuss, J.'
'Muehle, C.'
'Jansen, M.'
_cell_length_a 8.0615(1)
_cell_length_b 7.9944(1)
_cell_length_c 7.9461(1)
_cell_angle_alpha 90.
_cell_angle_beta 90.
_cell_angle_gamma 90.
_cell_volume 512.1
_cell_formula_units_Z 8
_symmetry_space_group_name_H-M 'C m c m'
_symmetry_Int_Tables_number 63
_refine_ls_R_factor_all 0.0657
loop_
_symmetry_equiv_pos_site_id
_symmetry_equiv_pos_as_xyz
1 '-x, y, -z+1/2'
2 '-x, -y, z+1/2'
3 '-x, y, z'
4 '-x, -y, -z'
5 'x, -y, z+1/2'
6 'x, y, -z+1/2'
7 'x, -y, -z'
8 'x, y, z'
9 '-x+1/2, y+1/2, -z+1/2'
10 '-x+1/2, -y+1/2, z+1/2'
11 '-x+1/2, y+1/2, z'
12 '-x+1/2, -y+1/2, -z'
13 'x+1/2, -y+1/2, z+1/2'
14 'x+1/2, y+1/2, -z+1/2'
15 'x+1/2, -y+1/2, -z'
16 'x+1/2, y+1/2, z'
loop_
_atom_type_symbol
_atom_type_oxidation_number
Li1+ 1
Br1- -1
O2- -2
H1+ 1
loop_
_atom_site_label
_atom_site_type_symbol
_atom_site_symmetry_multiplicity
_atom_site_Wyckoff_symbol
_atom_site_fract_x
_atom_site_fract_y
_atom_site_fract_z
_atom_site_B_iso_or_equiv
_atom_site_occupancy
_atom_site_attached_hydrogens
Li1 Li1+ 4 a 0 0 0.5 0.0339(29) 1. 0
Li2 Li1+ 4 c 0 0.318(2) 0.25 0.0339(29) 1. 0
Br1 Br1- 8 g 0.2434(1) 0.0224(1) 0.25 0.0124(1) 1. 0
O1 O2- 8 f 0 0.2565(5) 0.4974(8) 0.0126(5) 1. 0
H1 H1+ 16 h 0.089(1) 0.2964(5) 0.5483(8) 0.025(3) 1. 0
#End of TTdata_391154-ICSD