
#(C) 2018 by FIZ Karlsruhe - Leibniz Institute for Information Infrastructure.  All rights reserved.
data_39534-ICSD
_database_code_ICSD 39534
_audit_creation_date 1992-08-20
_audit_update_record 2012-08-01
_chemical_name_systematic 'Lithium titanium oxide phosphate(V) - LT'
_chemical_formula_structural 'Li Ti O (P O4)'
_chemical_formula_sum 'Li1 O5 P1 Ti1'
_chemical_name_structure_type Al2SiO5-Sillimanite
_exptl_crystal_density_diffrn 3.23
_publ_section_title
'Synthesis and structure of double lithium titanium phosphate Li Ti O P O4'
loop_
_citation_id
_citation_journal_full
_citation_year
_citation_journal_volume
_citation_page_first
_citation_page_last
_citation_journal_id_ASTM
primary 'Zhurnal Neorganicheskoi Khimii' 1991 36 2766 2768 ZNOKAQ
loop_
_publ_author_name
'Nagornyi, P.G.'
'Kapshuk, A.A.'
'Stus', N.V. (Stus, N.V.)'
'Slobodyanik, N.S.'
'Chernega, A.N.'
_cell_length_a 7.394(2)
_cell_length_b 6.371(2)
_cell_length_c 7.228(1)
_cell_angle_alpha 90.
_cell_angle_beta 90.
_cell_angle_gamma 90.
_cell_volume 340.49
_cell_formula_units_Z 4
_symmetry_space_group_name_H-M 'P n m a'
_symmetry_Int_Tables_number 62
_refine_ls_R_factor_all 0.036
loop_
_symmetry_equiv_pos_site_id
_symmetry_equiv_pos_as_xyz
1 'x+1/2, y, -z+1/2'
2 'x, -y+1/2, z'
3 '-x+1/2, y+1/2, z+1/2'
4 '-x, -y, -z'
5 '-x+1/2, -y, z+1/2'
6 '-x, y+1/2, -z'
7 'x+1/2, -y+1/2, -z+1/2'
8 'x, y, z'
loop_
_atom_type_symbol
_atom_type_oxidation_number
Ti4+ 4
Li1+ 1
P5+ 5
O2- -2
loop_
_atom_site_label
_atom_site_type_symbol
_atom_site_symmetry_multiplicity
_atom_site_Wyckoff_symbol
_atom_site_fract_x
_atom_site_fract_y
_atom_site_fract_z
_atom_site_B_iso_or_equiv
_atom_site_occupancy
_atom_site_attached_hydrogens
Ti1 Ti4+ 4 c 0.1677(7) 0.25 0.7197(7) 0.001 1. 0
Li1 Li1+ 4 a 0.5 0 0.5 0.011 1. 0
P1 P5+ 4 c 0.1252(1) 0.75 0.6280(1) 0.001 1. 0
O1 O2- 4 c 0.2918(3) 0.75 0.4998(3) 0.0041 1. 0
O2 O2- 8 d 0.1287(2) 0.5563(2) 0.7528(2) 0.0045 1. 0
O3 O2- 4 c -.0482(3) 0.75 0.5151(3) 0.005 1. 0
O4 O2- 4 c 0.3876(3) 0.25 0.6531(3) 0.0046 1. 0
#End of TTdata_39534-ICSD