
#(C) 2018 by FIZ Karlsruhe - Leibniz Institute for Information Infrastructure.  All rights reserved.
data_39581-ICSD
_database_code_ICSD 39581
_audit_creation_date 1993-08-22
_audit_update_record 2012-02-01
_chemical_name_systematic 'Trilithium dibarium trithulium octakis(molybdate)'
_chemical_formula_structural 'Li3 Ba2 Tm3 (Mo O4)8'
_chemical_formula_sum 'Ba2 Li3 Mo8 O32 Tm3'
_chemical_name_structure_type Li3Ba2Tm3(MoO4)8
_exptl_crystal_density_diffrn 5.55
_publ_section_title

;
Crystal structure investigation of triple molybdates Li3 Ba2 Ln3 (Mo O4)8,
where Ln= Gd, Tm
;
loop_
_citation_id
_citation_journal_full
_citation_year
_citation_journal_volume
_citation_page_first
_citation_page_last
_citation_journal_id_ASTM
primary 'Zhurnal Strukturnoi Khimii (Issue-No. from 1981)' 1992 33 126 130
ZSTKAI
loop_
_publ_author_name
'Klevtsova, R.F.'
'Vasil'ev, A.D. (Vasilev, A.D.)'
'Glinskaya, L.A.'
'Kruglik, A.I.'
'Kozhevnikova, N.M.'
'Korsun, V.P.'
_cell_length_a 5.1804(5)
_cell_length_b 12.614(1)
_cell_length_c 19.057(2)
_cell_angle_alpha 90.
_cell_angle_beta 91.419(9)
_cell_angle_gamma 90.
_cell_volume 1244.91
_cell_formula_units_Z 2
_symmetry_space_group_name_H-M 'C 1 2/c 1'
_symmetry_Int_Tables_number 15
_refine_ls_R_factor_all 0.039
loop_
_symmetry_equiv_pos_site_id
_symmetry_equiv_pos_as_xyz
1 'x, -y, z+1/2'
2 '-x, -y, -z'
3 '-x, y, -z+1/2'
4 'x, y, z'
5 'x+1/2, -y+1/2, z+1/2'
6 '-x+1/2, -y+1/2, -z'
7 '-x+1/2, y+1/2, -z+1/2'
8 'x+1/2, y+1/2, z'
loop_
_atom_type_symbol
_atom_type_oxidation_number
Ba2+ 2
Tm3+ 3
Ba2+ 2
Li1+ 1
Mo6+ 6
O2- -2
loop_
_atom_site_label
_atom_site_type_symbol
_atom_site_symmetry_multiplicity
_atom_site_Wyckoff_symbol
_atom_site_fract_x
_atom_site_fract_y
_atom_site_fract_z
_atom_site_B_iso_or_equiv
_atom_site_occupancy
_atom_site_attached_hydrogens
Ba1 Ba2+ 4 e 0.5 0.4702 0.25 0.0101(2) 0.85 0
Tm1 Tm3+ 4 e 0.5 0.4702 0.25 0.0101(2) 0.15 0
Tm2 Tm3+ 8 f 0.4976(1) 0.3525 0.0314 0.0058(1) 0.675 0
Ba2 Ba2+ 8 f 0.4976(1) 0.3525 0.0314 0.0058(1) 0.075 0
Li1 Li1+ 8 f 0.4976(1) 0.3525 0.0314 0.0058(1) 0.25 0
Li2 Li1+ 4 e 0.5 0.1879(27) 0.25 0.048(7) 1. 0
Mo1 Mo6+ 8 f 0.5000(1) 0.7604 0.1488 0.0067(2) 1. 0
Mo2 Mo6+ 8 f 0.5113(1) 0.0594 0.0916 0.0069(2) 1. 0
O1 O2- 8 f 0.2434(9) 0.8520(3) 0.1348(3) 0.010(2) 1. 0
O2 O2- 8 f 0.3566(9) 0.6442(4) 0.1788(3) 0.013(2) 1. 0
O3 O2- 8 f 0.7282(10) 0.7988(4) 0.2128(3) 0.014(2) 1. 0
O4 O2- 8 f 0.6678(9) 0.7388(4) 0.0676(3) 0.012(2) 1. 0
O5 O2- 8 f 0.2451(9) 0.0179(4) 0.0359(3) 0.014(2) 1. 0
O6 O2- 8 f 0.7311(9) -.0448(4) 0.1038(3) 0.013(2) 1. 0
O7 O2- 8 f 0.3756(9) 0.0857(4) 0.1721(3) 0.011(2) 1. 0
O8 O2- 8 f 0.6603(8) 0.1690(4) 0.0456(3) 0.011(2) 1. 0
#End of TTdata_39581-ICSD