
#(C) 2017 by FIZ Karlsruhe - Leibniz Institute for Information Infrastructure.  All rights reserved.
data_400447-ICSD
_database_code_ICSD 400447
_audit_creation_date 1995-01-10
_chemical_name_systematic
'Heptalithium octaeuropium(II) tetrasilicate heptachloride'
_chemical_formula_structural 'Li7 Eu8 (Si O4)4 Cl7'
_chemical_formula_sum 'Cl7 Eu8 Li7 O16 Si4'
_exptl_crystal_density_diffrn 4.63
_publ_section_title

;
Zwei neue Silicat-chloride mit zweiwertigem Europium: LiEu3(SiO4)Cl3 und
Li7Eu8(SiO4)4Cl7
;
loop_
_citation_id
_citation_journal_full
_citation_year
_citation_journal_volume
_citation_page_first
_citation_page_last
_citation_journal_id_ASTM
primary 'Zeitschrift fuer Anorganische und Allgemeine Chemie (1950) (DE)' 1994
620 1351 1356 ZAACAB
loop_
_publ_author_name
'Jacobsen, H.'
'Meyer, G.'
_cell_length_a 8.5185(5)
_cell_length_b 9.4862(7)
_cell_length_c 16.790(2)
_cell_angle_alpha 90.
_cell_angle_beta 96.221(8)
_cell_angle_gamma 90.
_cell_volume 1348.78
_cell_formula_units_Z 2
_symmetry_space_group_name_H-M 'P 1 21/c 1'
_symmetry_Int_Tables_number 14
_refine_ls_R_factor_all 0.06
loop_
_symmetry_equiv_pos_site_id
_symmetry_equiv_pos_as_xyz
1 'x, -y+1/2, z+1/2'
2 '-x, -y, -z'
3 '-x, y+1/2, -z+1/2'
4 'x, y, z'
loop_
_atom_type_symbol
_atom_type_oxidation_number
Li1+ 1
Eu2+ 2
Si4+ 4
O2- -2
Cl1- -1
loop_
_atom_site_label
_atom_site_type_symbol
_atom_site_symmetry_multiplicity
_atom_site_Wyckoff_symbol
_atom_site_fract_x
_atom_site_fract_y
_atom_site_fract_z
_atom_site_B_iso_or_equiv
_atom_site_occupancy
_atom_site_attached_hydrogens
Li1 Li1+ 4 e 0.2404(14) 0.4008(13) 0.5156(7) . 1. 0
Li2 Li1+ 4 e 0.2203(16) 0.5731(15) 0.2377(7) . 1. 0
Li3 Li1+ 4 e 0.1811(21) 0.5019(14) 0.3757(8) . 1. 0
Li4 Li1+ 4 e 0.5096(35) 0.4792(32) 0.4788(21) . 0.5 0
Eu1 Eu2+ 4 e 0.3894(1) 0.2156(1) 0.2124(1) . 1. 0
Eu2 Eu2+ 4 e 0.3370(1) 0.1082(1) 0.4672(1) . 1. 0
Eu3 Eu2+ 4 e 0.1326(1) 0.8797(1) 0.3040(1) . 1. 0
Eu4 Eu2+ 4 e 0.1546(1) 0.7429(1) 0.5576(1) . 1. 0
Si1 Si4+ 4 e 0.3796(2) 0.7012(2) 0.4225(1) . 1. 0
Si2 Si4+ 4 e 0.8845(2) 0.7513(2) 0.1714(1) . 1. 0
O1 O2- 4 e 0.3155(7) 0.8513(6) 0.4509(3) . 1. 0
O2 O2- 4 e 0.0668(6) 0.7987(6) 0.6926(3) . 1. 0
O3 O2- 4 e 0.2995(6) 0.5757(5) 0.4722(3) . 1. 0
O4 O2- 4 e 0.3265(6) 0.6781(5) 0.3281(3) . 1. 0
O5 O2- 4 e 0.1398(6) 0.3048(5) 0.4226(3) . 1. 0
O6 O2- 4 e 0.4294(6) 0.1888(5) 0.0577(3) . 1. 0
O7 O2- 4 e 0.8465(6) 0.8830(5) 0.2287(3) . 1. 0
O8 O2- 4 e 0.2386(6) 0.1225(5) 0.3208(3) . 1. 0
Cl1 Cl1- 4 e 0.3880(2) 0.5216(2) 0.1344(1) . 1. 0
Cl2 Cl1- 4 e 0.6013(3) 0.3994(2) 0.3238(1) . 1. 0
Cl3 Cl1- 4 e 0.0631(2) 0.1378(3) 0.1137(1) . 1. 0
Cl4 Cl1- 2 c 0 0 0.5 . 1. 0
loop_
_atom_site_aniso_label
_atom_site_aniso_type_symbol
_atom_site_aniso_U_11
_atom_site_aniso_U_22
_atom_site_aniso_U_33
_atom_site_aniso_U_12
_atom_site_aniso_U_13
_atom_site_aniso_U_23
Li1 Li1+ 0.006(5) 0.016(6) 0.016(5) 0.003(4) -.002(4) -.002(4)
Li2 Li1+ 0.018(6) 0.022(6) 0.012(5) 0.001(5) 0.003(4) 0.000(5)
Li3 Li1+ 0.045(10) 0.014(6) 0.016(6) 0.001(5) -.006(6) -.009(6)
Li4 Li1+ 0.009(11) 0.021(12) 0.058(16) -.006(11) 0.007(11) 0.01(1)
Eu1 Eu2+ 0.0140(12) 0.0183(2) 0.01482(15) -.00094(12) 0.00392(12) -.00186(13)
Eu2 Eu2+ 0.0226(2) 0.01110(15) 0.0151(2) -.00105(11) -.00523(13) 0.00314(13)
Eu3 Eu2+ 0.0184(2) 0.0128(2) 0.0204(2) -.00221(12) -.00665(13) -.00013(13)
Eu4 Eu2+ 0.0145(2) 0.0172(2) 0.01381(15) 0.00068(11) 0.00446(12) 0.00214(12)
Si1 Si4+ 0.0097(8) 0.0097(7) 0.0110(7) -.0002(6) 0.0003(6) 0.0002(6)
Si2 Si4+ 0.0091(7) 0.0099(7) 0.0094(7) 0.0002(6) 0.0005(6) 0.0001(6)
O1 O2- 0.030(3) 0.014(2) 0.021(2) -.001(2) 0.015(2) -.001(2)
O2 O2- 0.017(2) 0.019(2) 0.014(2) 0.003(2) 0.001(2) -.005(2)
O3 O2- 0.010(2) 0.013(2) 0.016(2) 0.004(2) 0.000(2) 0.001(2)
O4 O2- 0.013(2) 0.018(2) 0.014(2) 0.001(2) 0.000(2) 0.000(2)
O5 O2- 0.017(2) 0.011(2) 0.011(2) -.003(2) -.001(2) -.001(2)
O6 O2- 0.013(2) 0.015(2) 0.018(2) -.002(2) -.006(2) 0.000(2)
O7 O2- 0.016(2) 0.009(2) 0.014(2) -.001(2) 0.000(2) 0.004(2)
O8 O2- 0.016(2) 0.010(2) 0.012(2) 0.000(2) 0.002(2) -.002(2)
Cl1 Cl1- 0.0238(9) 0.0226(8) 0.0165(7) -.0009(6) 0.0046(6) 0.0046(7)
Cl2 Cl1- 0.0314(11) 0.0199(9) 0.0277(9) -.0032(7) -.0117(8) 0.0057(8)
Cl3 Cl1- 0.0173(9) 0.0499(13) 0.0223(9) -.0077(8) 0.0056(7) -.0058(9)
Cl4 Cl1- 0.018(2) 0.039(2) 0.137(4) 0.054(3) 0.016(2) 0.0110(14)
#End of TTdata_400447-ICSD