
#(C) 2018 by FIZ Karlsruhe - Leibniz Institute for Information Infrastructure.  All rights reserved.
data_411453-ICSD
_database_code_ICSD 411453
_audit_creation_date 2002-10-01
_audit_update_record 2012-02-01
_chemical_name_systematic 'Lithium dibarium tetranitridorhenate(VII)'
_chemical_formula_structural 'Li Ba2 (Re N4)'
_chemical_formula_sum 'Ba2 Li1 N4 Re1'
_chemical_name_structure_type LiBa2ReN4
_exptl_crystal_density_diffrn 6.38
_cell_measurement_temperature 295.
_publ_section_title
'Li Sr2 (Re N4) und Li Ba2 (Re N4): isotype Nitridorhenate(VII)'
loop_
_citation_id
_citation_journal_full
_citation_year
_citation_journal_volume
_citation_page_first
_citation_page_last
_citation_journal_id_ASTM
primary 'Zeitschrift fuer Anorganische und Allgemeine Chemie (1950) (DE)' 2001
627 37 42 ZAACAB
loop_
_publ_author_name
'Hochrein, O.'
'Borrmann, H.'
'Kniep, R.'
_cell_length_a 6.5104(12)
_cell_length_b 5.9886(9)
_cell_length_c 7.3743(5)
_cell_angle_alpha 90.
_cell_angle_beta 108.5350(15)
_cell_angle_gamma 90.
_cell_volume 272.6
_cell_formula_units_Z 2
_symmetry_space_group_name_H-M 'P 1 21/m 1'
_symmetry_Int_Tables_number 11
_refine_ls_R_factor_all 0.0277
loop_
_symmetry_equiv_pos_site_id
_symmetry_equiv_pos_as_xyz
1 'x, -y+1/2, z'
2 '-x, -y, -z'
3 '-x, y+1/2, -z'
4 'x, y, z'
loop_
_atom_type_symbol
_atom_type_oxidation_number
Re7+ 7
Ba2+ 2
N3- -3
Li1+ 1
loop_
_atom_site_label
_atom_site_type_symbol
_atom_site_symmetry_multiplicity
_atom_site_Wyckoff_symbol
_atom_site_fract_x
_atom_site_fract_y
_atom_site_fract_z
_atom_site_B_iso_or_equiv
_atom_site_occupancy
_atom_site_attached_hydrogens
Re1 Re7+ 2 e 0.29338(5) 0.25 0.21196(3) . 1. 0
Ba1 Ba2+ 2 e 0.19806(7) -.25 0.42532(5) . 1. 0
Ba2 Ba2+ 2 e 0.73923(7) 0.25 0.05669(5) . 1. 0
N1 N3- 2 e 0.1191(10) 0.25 0.3658(8) . 1. 0
N2 N3- 2 e 0.1323(11) 0.25 -.0384(8) . 1. 0
N3 N3- 4 f 0.4695(7) 0.0078(7) 0.2622(6) . 1. 0
Li1 Li1+ 2 e 0.656(3) -.25 0.352(2) . 1. 0
loop_
_atom_site_aniso_label
_atom_site_aniso_type_symbol
_atom_site_aniso_U_11
_atom_site_aniso_U_22
_atom_site_aniso_U_33
_atom_site_aniso_U_12
_atom_site_aniso_U_13
_atom_site_aniso_U_23
Re1 Re7+ 0.00679(14) 0.00398(11) 0.00690(11) 0 0.00137(9) 0
Ba1 Ba2+ 0.0116(2) 0.00737(17) 0.00912(16) 0 0.00359(15) 0
Ba2 Ba2+ 0.0091(2) 0.01015(19) 0.00723(17) 0 0.00217(15) 0
N1 N3- 0.005(3) 0.012(3) 0.011(2) 0 0.001(2) 0
N2 N3- 0.012(3) 0.014(3) 0.010(2) 0 0.001(2) 0
N3 N3- 0.013(2) 0.0054(18) 0.0104(16) 0.0039(15) 0.0015(15) 0.0008(13)
Li1 Li1+ 0.011(8) 0.016(7) 0.035(8) 0 -.004(6) 0
#End of TTdata_411453-ICSD