
#(C) 2018 by FIZ Karlsruhe - Leibniz Institute for Information Infrastructure.  All rights reserved.
data_412615-ICSD
_database_code_ICSD 412615
_audit_creation_date 2003-10-01
_audit_update_record 2013-02-01
_chemical_name_systematic
'Lead potassium lithium niobium oxide (0.75/1.8/1.7/5/15)'
_chemical_formula_structural 'Pb0.75 K1.8 Li1.7 Nb5 O15'
_chemical_formula_sum 'K1.8 Li1.7 Nb5 O15 Pb0.75'
_exptl_crystal_density_diffrn 4.93
_publ_section_title

;
Synthesis, X-ray crystal structure and dielectric measurements of a tetragonal
tungsten bronze: Pb0.75 K1.80 Li1.70 Nb5 O15
;
loop_
_citation_id
_citation_journal_full
_citation_year
_citation_journal_volume
_citation_page_first
_citation_page_last
_citation_journal_id_ASTM
primary 'Zeitschrift fuer Kristallographie (1979-2010)' 2003 218 26 31 ZEKRDZ
loop_
_publ_author_name
'Elaatmani, M.'
'Zegzouti, A.'
'Capitelli, F.'
'Moliterni, A.G.G.'
'Migliori, A.'
'Calestani, G.'
_cell_length_a 12.540(2)
_cell_length_b 12.540(2)
_cell_length_c 4.037(1)
_cell_angle_alpha 90.
_cell_angle_beta 90.
_cell_angle_gamma 90.
_cell_volume 634.82
_cell_formula_units_Z 2
_symmetry_space_group_name_H-M 'P 4 b m'
_symmetry_Int_Tables_number 100
_refine_ls_R_factor_all 0.0309
loop_
_symmetry_equiv_pos_site_id
_symmetry_equiv_pos_as_xyz
1 '-y+1/2, -x+1/2, z'
2 'y+1/2, x+1/2, z'
3 'y, -x, z'
4 '-y, x, z'
5 '-x+1/2, y+1/2, z'
6 'x+1/2, -y+1/2, z'
7 '-x, -y, z'
8 'x, y, z'
loop_
_atom_type_symbol
_atom_type_oxidation_number
Nb5+ 5
Pb2+ 2
K1+ 1
O2- -2
Li1+ 1
loop_
_atom_site_label
_atom_site_type_symbol
_atom_site_symmetry_multiplicity
_atom_site_Wyckoff_symbol
_atom_site_fract_x
_atom_site_fract_y
_atom_site_fract_z
_atom_site_B_iso_or_equiv
_atom_site_occupancy
_atom_site_attached_hydrogens
Nb1 Nb5+ 8 d 0.57514(3) 0.70994(3) 0.5029(2) 0.00743(13) 1. 0
Nb2 Nb5+ 2 b 0.5 0 0.4934(6) 0.0078(2) 1. 0
Pb1 Pb2+ 2 a 0.5 0.5 0.9985(15) 0.0156(2) 0.538(3) 0
Pb2 Pb2+ 8 d 0.8480(7) 0.6887(7) 0.0543(27) 0.025 0.053(2) 0
K1 K1+ 4 c 0.8292(2) 0.6708(2) 0.9823(19) 0.0258(9) 0.901(13) 0
O1 O2- 8 d 0.6398(4) 0.5688(3) 0.4487(16) 0.0140(11) 1. 0
O2 O2- 8 d 0.5001(4) 0.8446(4) 0.5571(18) 0.019(2) 1. 0
O3 O2- 4 c 0.7120(4) 0.7880(4) 0.4489(30) 0.018(3) 1. 0
O4 O2- 2 b 0.5 1 0.9530(25) 0.041(5) 1. 0
O5 O2- 8 d 0.5790(5) 0.7122(5) 0.9601(20) 0.024(2) 1. 0
Li1 Li1+ 4 c 0.6217(17) 0.8783(17) 0.9570(98) 0.030(6) 0.848(10) 0
loop_
_atom_site_aniso_label
_atom_site_aniso_type_symbol
_atom_site_aniso_U_11
_atom_site_aniso_U_22
_atom_site_aniso_U_33
_atom_site_aniso_U_12
_atom_site_aniso_U_13
_atom_site_aniso_U_23
Nb1 Nb5+ 0.0079(2) 0.0066(2) 0.0077(2) 0.00057(9) 0.0002(3) -0.0011(3)
Nb2 Nb5+ 0.0076(2) 0.0076(2) 0.0080(3) -0.0002(2) 0 0
Pb1 Pb2+ 0.0142(2) 0.0142(2) 0.0185(4) 0 0 0
K1 K1+ 0.0207(8) 0.0207(8) 0.036(2) 0.0009(10) -0.0067(13) 0.0067(13)
O1 O2- 0.0112(15) 0.0074(13) 0.024(3) 0.0033(11) -0.002(2) -0.0018(14)
O2 O2- 0.013(2) 0.0065(14) 0.037(5) 0.0020(12) 0.000(2) 0.001(2)
O3 O2- 0.0075(12) 0.0075(12) 0.040(8) -0.0044(15) 0.001(2) -0.001(2)
O4 O2- 0.061(8) 0.061(8) 0.002(5) -0.033(9) 0 0
O5 O2- 0.028(3) 0.028(3) 0.016(5) -0.006(2) -0.003(2) -0.010(2)
#End of TTdata_412615-ICSD