
#(C) 2018 by FIZ Karlsruhe - Leibniz Institute for Information Infrastructure.  All rights reserved.
data_412836-ICSD
_database_code_ICSD 412836
_audit_creation_date 2004-04-01
_audit_update_record 2008-08-01
_chemical_name_systematic 'Barium lithium ruthenium oxide (7/3/4/20)'
_chemical_formula_structural 'Ba7 Li3 Ru4 O20'
_chemical_formula_sum 'Ba7 Li3 O20 Ru4'
_exptl_crystal_density_diffrn 5.81
_publ_section_title

;
Crystal growth of a novel oxygen-deficient layered perovskite: Ba7 Li3 Ru4 O20
;
loop_
_citation_id
_citation_journal_full
_citation_year
_citation_journal_volume
_citation_page_first
_citation_page_last
_citation_journal_id_ASTM
primary 'Journal of Solid State Chemistry' 2003 175 39 45 JSSCBI
loop_
_publ_author_name
'Stitzer, K.E.'
'Gemmill, W.R.'
'Smith, M.D.'
'zur Loye, H.C.'
_cell_length_a 5.7927(1)
_cell_length_b 5.7927(1)
_cell_length_c 50.3364(15)
_cell_angle_alpha 90.
_cell_angle_beta 90.
_cell_angle_gamma 120.
_cell_volume 1462.77
_cell_formula_units_Z 3
_symmetry_space_group_name_H-M 'R -3 m H'
_symmetry_Int_Tables_number 166
_refine_ls_R_factor_all 0.032
loop_
_symmetry_equiv_pos_site_id
_symmetry_equiv_pos_as_xyz
1 'x-y, -y, -z'
2 '-x, -x+y, -z'
3 'y, x, -z'
4 'x-y, x, -z'
5 'y, -x+y, -z'
6 '-x, -y, -z'
7 '-x+y, y, z'
8 'x, x-y, z'
9 '-y, -x, z'
10 '-x+y, -x, z'
11 '-y, x-y, z'
12 'x, y, z'
13 'x-y+2/3, -y+1/3, -z+1/3'
14 '-x+2/3, -x+y+1/3, -z+1/3'
15 'y+2/3, x+1/3, -z+1/3'
16 'x-y+2/3, x+1/3, -z+1/3'
17 'y+2/3, -x+y+1/3, -z+1/3'
18 '-x+2/3, -y+1/3, -z+1/3'
19 '-x+y+2/3, y+1/3, z+1/3'
20 'x+2/3, x-y+1/3, z+1/3'
21 '-y+2/3, -x+1/3, z+1/3'
22 '-x+y+2/3, -x+1/3, z+1/3'
23 '-y+2/3, x-y+1/3, z+1/3'
24 'x+2/3, y+1/3, z+1/3'
25 'x-y+1/3, -y+2/3, -z+2/3'
26 '-x+1/3, -x+y+2/3, -z+2/3'
27 'y+1/3, x+2/3, -z+2/3'
28 'x-y+1/3, x+2/3, -z+2/3'
29 'y+1/3, -x+y+2/3, -z+2/3'
30 '-x+1/3, -y+2/3, -z+2/3'
31 '-x+y+1/3, y+2/3, z+2/3'
32 'x+1/3, x-y+2/3, z+2/3'
33 '-y+1/3, -x+2/3, z+2/3'
34 '-x+y+1/3, -x+2/3, z+2/3'
35 '-y+1/3, x-y+2/3, z+2/3'
36 'x+1/3, y+2/3, z+2/3'
loop_
_atom_type_symbol
_atom_type_oxidation_number
Ba2+ 2
Ru5+ 5.75
Li1+ 1
O2- -2
loop_
_atom_site_label
_atom_site_type_symbol
_atom_site_symmetry_multiplicity
_atom_site_Wyckoff_symbol
_atom_site_fract_x
_atom_site_fract_y
_atom_site_fract_z
_atom_site_B_iso_or_equiv
_atom_site_occupancy
_atom_site_attached_hydrogens
Ba1 Ba2+ 3 a 0 0 0 0.0502(3) 1. 0
Ba2 Ba2+ 6 c 0 0 0.191656(8) 0.01304(8) 1. 0
Ba3 Ba2+ 6 c 0 0 0.278334(7) 0.01084(8) 1. 0
Ba4 Ba2+ 6 c 0 0 0.430683(8) 0.01062(7) 1. 0
Ru1 Ru5+ 6 c 0 0 0.068982(9) 0.00765(8) 1. 0
Ru2 Ru5+ 6 c 0 0 0.123554(9) 0.00791(8) 1. 0
Li1 Li1+ 6 c 0 0 0.3657(3) 0.018(2) 1. 0
Li2 Li1+ 3 b 0 0 0.5 0.022(4) 1. 0
O1 O2- 18 h 0.3018(5) 0.1509(3) 0.09624(5) 0.0105(4) 1. 0
O2 O2- 18 h 0.1591(3) 0.3182(5) 0.14266(5) 0.0133(4) 1. 0
O3 O2- 18 h 0.1589(3) 0.3178(6) 0.04900(6) 0.0148(5) 1. 0
O4 O2- 18 h 0.6143(14) 0.3857(14) 0.00339(19) 0.036(3) 0.33 0
loop_
_atom_site_aniso_label
_atom_site_aniso_type_symbol
_atom_site_aniso_U_11
_atom_site_aniso_U_22
_atom_site_aniso_U_33
_atom_site_aniso_U_12
_atom_site_aniso_U_13
_atom_site_aniso_U_23
Ba1 Ba2+ 0.0686(5) 0.0686(5) 0.0133(3) 0.0343(2) 0 0
Ba2 Ba2+ 0.01162(10) 0.01162(10) 0.01588(15) 0.00581(5) 0 0
Ba3 Ba2+ 0.00991(10) 0.00991(10) 0.01271(13) 0.00495(5) 0 0
Ba4 Ba2+ 0.00963(9) 0.00963(9) 0.01260(13) 0.00481(5) 0 0
Ru1 Ru5+ 0.00672(11) 0.00672(11) 0.00950(16) 0.00336(5) 0 0
Ru2 Ru5+ 0.00687(11) 0.00687(11) 0.01001(16) 0.00343(5) 0 0
Li1 Li1+ 0.014(3) 0.014(3) 0.025(6) 0.0070(17) 0 0
Li2 Li1+ 0.024(6) 0.024(6) 0.020(9) 0.012(3) 0 0
O1 O2- 0.0081(9) 0.0110(7) 0.0115(9) 0.0041(5) -0.0010(8) -0.0005(4)
O2 O2- 0.0140(8) 0.0093(10) 0.0152(10) 0.0046(5) -0.0018(4) -0.0036(8)
O3 O2- 0.0157(9) 0.0110(11) 0.0159(10) 0.0055(5) 0.0023(4) 0.0046(9)
O4 O2- 0.044(5) 0.044(5) 0.010(3) 0.015(5) -0.0001(19) 0.0001(19)
#End of TTdata_412836-ICSD