
#(C) 2018 by FIZ Karlsruhe - Leibniz Institute for Information Infrastructure.  All rights reserved.
data_413744-ICSD
_database_code_ICSD 413744
_audit_creation_date 2005-10-01
_chemical_name_systematic 'Tetraamminelithium rubidiumtriselenide'
_chemical_formula_structural 'Li (N H3)4 Rb Se3'
_chemical_formula_sum 'H12 Li1 N4 Rb1 Se3'
_exptl_crystal_density_diffrn 2.35
_cell_measurement_temperature 123.
_publ_section_title

;
Synthesis and Crystal Structure of Tetraamminelithium-Rubidiumtriselenide, Li
(N H3)4 Rb Se3 and Pentaamminesodium-Rubidiumtriselenide-Ammonia (1/3), Na (N
H3)5 Rb Se3 * 3(N H3)
;
loop_
_citation_id
_citation_journal_full
_citation_year
_citation_journal_volume
_citation_page_first
_citation_page_last
_citation_journal_id_ASTM
primary 'Monatshefte fuer Chemie' 2005 136 119 125 MOCMB7
loop_
_publ_author_name
'Hanauer, T.'
'Kraus, F.'
'Korber, N.'
_cell_length_a 19.924(2)
_cell_length_b 5.9664(4)
_cell_length_c 20.476(2)
_cell_angle_alpha 90.
_cell_angle_beta 112.920(10)
_cell_angle_gamma 90.
_cell_volume 2241.9
_cell_formula_units_Z 8
_symmetry_space_group_name_H-M 'C 1 2/c 1'
_symmetry_Int_Tables_number 15
_refine_ls_R_factor_all 0.0392
loop_
_symmetry_equiv_pos_site_id
_symmetry_equiv_pos_as_xyz
1 'x, -y, z+1/2'
2 '-x, -y, -z'
3 '-x, y, -z+1/2'
4 'x, y, z'
5 'x+1/2, -y+1/2, z+1/2'
6 '-x+1/2, -y+1/2, -z'
7 '-x+1/2, y+1/2, -z+1/2'
8 'x+1/2, y+1/2, z'
loop_
_atom_type_symbol
_atom_type_oxidation_number
Rb1+ 1
Se0+ -0.67
N3- -3
H1+ 1
N3- -3
H1+ 1
N3- -3
H1+ 1
N3- -3
H1+ 1
Li1+ 1
loop_
_atom_site_label
_atom_site_type_symbol
_atom_site_symmetry_multiplicity
_atom_site_Wyckoff_symbol
_atom_site_fract_x
_atom_site_fract_y
_atom_site_fract_z
_atom_site_B_iso_or_equiv
_atom_site_occupancy
_atom_site_attached_hydrogens
Rb1 Rb1+ 8 f 0.18851(2) 0.98122(7) 0.26001(2) 0.02390(12) 1 0
Se1 Se0+ 8 f 0.10987(2) 1.47601(8) 0.16073(3) 0.02581(13) 1 0
Se2 Se0+ 8 f 0.21796(2) 0.48385(8) 0.35558(2) 0.02287(12) 1 0
Se3 Se0+ 8 f 0.09692(2) 0.48254(8) 0.27061(3) 0.02575(13) 1 0
N1 N3- 8 f 0.30017(18) 0.5144(7) 0.5484(2) 0.0263(8) 1 0
H1 H1+ 8 f 0.2845 0.6275 0.5688 0.032 1 0
H2 H1+ 8 f 0.3033 0.3854 0.5731 0.032 1 0
H3 H1+ 8 f 0.268 0.4954 0.5028 0.032 1 0
N2 N3- 8 f 0.4087(2) 0.4781(7) 0.4557(2) 0.0313(9) 1 0
H4 H1+ 8 f 0.3707 0.385 0.4326 0.038 1 0
H5 H1+ 8 f 0.4514 0.4024 0.4666 0.038 1 0
H6 H1+ 8 f 0.4075 0.5969 0.4274 0.038 1 0
N3 N3- 8 f -0.0177(2) 0.9932(8) 0.1462(2) 0.0354(10) 1 0
H7 H1+ 8 f 0.0054 1.1191 0.1408 0.042 1 0
H8 H1+ 8 f 0.015 0.879 0.1618 0.042 1 0
H9 H1+ 8 f -0.0379 1.0194 0.1784 0.042 1 0
N4 N3- 8 f -0.0909(2) 1.5600(7) 0.0444(2) 0.0354(10) 1 0
H10 H1+ 8 f -0.0431 1.5192 0.0635 0.042 1 0
H11 H1+ 8 f -0.1111 1.515 -0.0017 0.042 1 0
H12 H1+ 8 f -0.1149 1.4942 0.0691 0.042 1 0
Li1 Li1+ 8 f 0.4010(4) 0.5936(15) 0.5494(5) 0.0329(19) 1 0
loop_
_atom_site_aniso_label
_atom_site_aniso_type_symbol
_atom_site_aniso_U_11
_atom_site_aniso_U_22
_atom_site_aniso_U_33
_atom_site_aniso_U_12
_atom_site_aniso_U_13
_atom_site_aniso_U_23
Rb1 Rb1+ 0.0249(2) 0.0196(2) 0.0279(3) 0.00026(15) 0.01114(18) 0.00047(17)
Se1 Se0+ 0.0253(2) 0.0245(3) 0.0246(3) -0.00082(16) 0.00635(18) 0.00154(18)
Se2 Se0+ 0.0235(2) 0.0228(3) 0.0221(2) -0.00017(16) 0.00864(18) 0.00003(17)
Se3 Se0+ 0.01949(19) 0.0289(3) 0.0297(3) -0.00056(16) 0.01047(18) -0.00121(19)
N1 N3- 0.0267(16) 0.025(2) 0.023(2) 0.0002(15) 0.0057(16) -0.0003(16)
N2 N3- 0.0329(19) 0.032(2) 0.029(2) -0.0017(16) 0.0121(18) -0.0009(18)
N3 N3- 0.0314(18) 0.042(3) 0.028(2) -0.0047(17) 0.0062(18) 0.0000(19)
N4 N3- 0.0309(19) 0.037(3) 0.037(3) 0.0015(17) 0.0124(19) -0.002(2)
Li1 Li1+ 0.031(4) 0.035(5) 0.040(5) 0.000(3) 0.021(4) -0.003(4)
#End of TTdata_413744-ICSD