
#(C) 2017 by FIZ Karlsruhe - Leibniz Institute for Information Infrastructure.  All rights reserved.
data_414082-ICSD
_database_code_ICSD 414082
_audit_creation_date 2005-10-01
_chemical_name_systematic
'Lithium hydrogen oxo nitridophosphate chloride bromide'
_chemical_formula_structural 'Li6.48 H9.2 P12 N24 Cl3.68'
_chemical_formula_sum 'H9.2 Cl3.68 Li6.48 N24 P12'
_exptl_crystal_density_diffrn 2.65
_publ_section_title

;
Li(x) H(12-x-y+z) (P12 O(y) N(24-y))X(z) (X = Cl, Br) - Oxonitridophosphate
mit NPO-Zeolithstruktur
;
loop_
_citation_id
_citation_journal_full
_citation_year
_citation_journal_volume
_citation_page_first
_citation_page_last
_citation_journal_id_ASTM
primary 'Zeitschrift fuer Anorganische und Allgemeine Chemie (1950) (DE)' 2004
630 2205 2217 ZAACAB
loop_
_publ_author_name
'Correll, S.'
'Stock, N.'
'Oeckler, O.'
'Senker, J.'
'Nilges, T.'
'Schnick, W.'
_cell_length_a 4.766(1)
_cell_length_b 14.263(3)
_cell_length_c 8.235(2)
_cell_angle_alpha 90.
_cell_angle_beta 90.
_cell_angle_gamma 90.
_cell_volume 559.79
_cell_formula_units_Z 1
_symmetry_space_group_name_H-M 'P n a 21'
_symmetry_Int_Tables_number 33
_refine_ls_R_factor_all 0.0636
loop_
_symmetry_equiv_pos_site_id
_symmetry_equiv_pos_as_xyz
1 'x+1/2, -y+1/2, z'
2 '-x+1/2, y+1/2, z+1/2'
3 '-x, -y, z+1/2'
4 'x, y, z'
loop_
_atom_type_symbol
_atom_type_oxidation_number
P5+ 5
N3- -3
Cl1- -1
Li1+ 1
H1+ 1
loop_
_atom_site_label
_atom_site_type_symbol
_atom_site_symmetry_multiplicity
_atom_site_Wyckoff_symbol
_atom_site_fract_x
_atom_site_fract_y
_atom_site_fract_z
_atom_site_B_iso_or_equiv
_atom_site_occupancy
_atom_site_attached_hydrogens
P1 P5+ 4 a 0.179(2) 0.9379(10) 0.9300(18) 0.0146(2) 0.10(1) 0
P2 P5+ 4 a 0.32184(19) 0.93596(11) 0.94053(15) 0.0146(2) 0.9 0
P3 P5+ 4 a -0.3200(18) 0.9933(9) 0.7487(17) 0.0140(2) 0.11(1) 0
P4 P5+ 4 a -0.17679(16) 0.99622(11) 0.75959(13) 0.0140(2) 0.89 0
P5 P5+ 4 a 0.162(4) 0.8112(12) 1.197(2) 0.0167(2) 0.07(1) 0
P6 P5+ 4 a 0.2926(3) 0.80957(11) 1.20391(17) 0.0167(2) 0.93 0
N1 N3- 4 a -0.2676(5) 0.9824(4) 0.5789(8) 0.0204(10) 1 0
N2 N3- 4 a -0.2136(7) 1.1034(3) 0.8208(6) 0.0202(7) 1 0
N3 N3- 4 a 0.2442(4) 0.8325(3) 1.0126(6) 0.0158(9) 1 0
N4 N3- 4 a -0.644(5) 0.970(3) 0.789(5) 0.0170(6) 0.09(1) 0
N5 N3- 4 a -0.8503(5) 0.9618(3) 0.7770(5) 0.0170(6) 0.91 0
N6 N3- 4 a 0.371(4) 0.715(2) 1.239(4) 0.0160(6) 0.11(1) 0
N7 N3- 4 a 0.1220(5) 0.7147(2) 1.2473(5) 0.0160(6) 0.89 0
N8 N3- 4 a -0.139(5) 0.923(2) 0.879(4) 0.0167(6) 0.11(1) 0
N9 N3- 4 a -0.3482(6) 0.9288(3) 0.8844(5) 0.0167(6) 0.89 0
Cl1 Cl1- 4 a -0.4735(12) 0.75120(10) 0.6385(5) 0.1891(16) 0.92(1) 0
Li1 Li1+ 4 a 0.323(3) 0.6428(10) 1.445(2) 0.047(3) 0.56(1) 0
Li2 Li1+ 4 a -0.687(3) 0.8975(11) 0.574(2) 0.047(3) 0.56(3) 0
Li3 Li1+ 4 a -0.153(3) 0.7964(11) 0.8953(18) 0.047(3) 0.50(3) 0
loop_
_atom_site_aniso_label
_atom_site_aniso_type_symbol
_atom_site_aniso_U_11
_atom_site_aniso_U_22
_atom_site_aniso_U_33
_atom_site_aniso_U_12
_atom_site_aniso_U_13
_atom_site_aniso_U_23
P1 P5+ 0.0153(5) 0.0133(4) 0.0152(5) 0.0001(4) 0.0009(5) -0.0007(3)
P2 P5+ 0.0153(5) 0.0133(4) 0.0152(5) 0.0001(4) 0.0009(5) -0.0007(3)
P3 P5+ 0.0151(4) 0.0118(4) 0.0151(5) 0.0011(4) 0.0016(4) 0.0010(3)
P4 P5+ 0.0151(4) 0.0118(4) 0.0151(5) 0.0011(4) 0.0016(4) 0.0010(3)
P5 P5+ 0.0204(6) 0.0127(4) 0.0171(5) 0.0002(4) 0.0009(6) -0.0003(4)
P6 P5+ 0.0204(6) 0.0127(4) 0.0171(5) 0.0002(4) 0.0009(6) -0.0003(4)
N1 N3- 0.0221(13) 0.015(2) 0.025(3) 0.0017(8) 0.0010(9) -0.0012(16)
N2 N3- 0.0288(15) 0.0164(16) 0.0154(17) 0.0041(11) -0.0010(11) -0.0004(13)
N3 N3- 0.017(2) 0.014(2) 0.016(2) -0.0018(7) -0.0009(7) -0.0009(16)
N4 N3- 0.0133(10) 0.0222(14) 0.0155(14) -0.0007(9) 0.0004(10) 0.0027(12)
N5 N3- 0.0133(10) 0.0222(14) 0.0155(14) -0.0007(9) 0.0004(10) 0.0027(12)
N6 N3- 0.0151(10) 0.0152(12) 0.0176(15) 0.0000(8) -0.0016(8) 0.0012(10)
N7 N3- 0.0151(10) 0.0152(12) 0.0176(15) 0.0000(8) -0.0016(8) 0.0012(10)
N8 N3- 0.0133(10) 0.0164(13) 0.0204(13) 0.0021(9) -0.0030(9) 0.0012(10)
N9 N3- 0.0133(10) 0.0164(13) 0.0204(13) 0.0021(9) -0.0030(9) 0.0012(10)
Cl1 Cl1- 0.525(5) 0.0187(17) 0.0236(19) 0.018(3) 0.000(2) -0.0015(5)
#End of TTdata_414082-ICSD