
#(C) 2018 by FIZ Karlsruhe - Leibniz Institute for Information Infrastructure.  All rights reserved.
data_414184-ICSD
_database_code_ICSD 414184
_audit_creation_date 2005-10-01
_chemical_name_systematic 'Dipotassium lithium thiovanadate'
_chemical_formula_structural 'K2 Li V S4'
_chemical_formula_sum 'K2 Li1 S4 V1'
_exptl_crystal_density_diffrn 2.22
_cell_measurement_temperature 153.
_publ_section_title

;
Syntheses and structures of six compounds in the A2 Li M S4 (A = K, Rb, Cs; M
= V, Nb, Ta) family
;
loop_
_citation_id
_citation_journal_full
_citation_year
_citation_journal_volume
_citation_page_first
_citation_page_last
_citation_journal_id_ASTM
primary 'Journal of Solid State Chemistry' 2005 178 194 199 JSSCBI
loop_
_publ_author_name
'Huang, F.-Q.'
'Deng, B.'
'Ibers, J.A.'
_cell_length_a 10.4788(7)
_cell_length_b 8.4250(6)
_cell_length_c 17.9897(12)
_cell_angle_alpha 90.
_cell_angle_beta 94.7478(11)
_cell_angle_gamma 90.
_cell_volume 1582.75
_cell_formula_units_Z 8
_symmetry_space_group_name_H-M 'C 1 2/c 1'
_symmetry_Int_Tables_number 15
_refine_ls_R_factor_all 0.0428
loop_
_symmetry_equiv_pos_site_id
_symmetry_equiv_pos_as_xyz
1 'x, -y, z+1/2'
2 '-x, -y, -z'
3 '-x, y, -z+1/2'
4 'x, y, z'
5 'x+1/2, -y+1/2, z+1/2'
6 '-x+1/2, -y+1/2, -z'
7 '-x+1/2, y+1/2, -z+1/2'
8 'x+1/2, y+1/2, z'
loop_
_atom_type_symbol
_atom_type_oxidation_number
K1+ 1
Li1+ 1
V5+ 5
S2- -2
loop_
_atom_site_label
_atom_site_type_symbol
_atom_site_symmetry_multiplicity
_atom_site_Wyckoff_symbol
_atom_site_fract_x
_atom_site_fract_y
_atom_site_fract_z
_atom_site_B_iso_or_equiv
_atom_site_occupancy
_atom_site_attached_hydrogens
K1 K1+ 8 f 0.36998(6) 0.47465(7) 0.07276(3) 0.02019(16) 1 0
K2 K1+ 8 f 0.5169(5) 0.0178(7) 0.0038(4) 0.0266(8) 0.5 0
K3 K1+ 4 e 0. 0.31953(9) 0.25 0.01687(19) 1 0
Li1 Li1+ 8 f 0.3551(5) 0.2419(5) 0.2840(3) 0.0234(11) 1 0
V1 V5+ 8 f 0.24501(4) 0.05497(5) 0.14467(2) 0.01092(13) 1 0
S1 S2- 8 f 0.11684(6) 0.21930(8) 0.08643(4) 0.01678(16) 1 0
S2 S2- 8 f 0.19478(6) 0.01940(7) 0.25737(3) 0.01506(16) 1 0
S3 S2- 8 f 0.26447(7) 0.33166(8) 0.41133(4) 0.01962(17) 1 0
S4 S2- 8 f 0.43817(6) 0.14701(8) 0.15235(4) 0.01660(16) 1 0
loop_
_atom_site_aniso_label
_atom_site_aniso_type_symbol
_atom_site_aniso_U_11
_atom_site_aniso_U_22
_atom_site_aniso_U_33
_atom_site_aniso_U_12
_atom_site_aniso_U_13
_atom_site_aniso_U_23
K1 K1+ 0.0291(3) 0.0172(3) 0.0147(3) -0.0033(2) 0.0043(3) -0.0003(2)
K2 K1+ 0.039(3) 0.025(2) 0.0167(13) 0.0178(13) 0.0066(17) 0.0066(14)
K3 K1+ 0.0163(4) 0.0146(4) 0.0198(4) 0. 0.0021(3) 0.
Li1 Li1+ 0.022(2) 0.019(2) 0.028(3) -0.0008(19) -0.007(2) -0.001(2)
V1 V5+ 0.0125(2) 0.0109(2) 0.0095(2) 0.00071(15) 0.00142(17) 0.00061(15)
S1 S2- 0.0172(3) 0.0164(3) 0.0163(3) 0.0032(2) -0.0013(3) 0.0035(3)
S2 S2- 0.0208(3) 0.0139(3) 0.0109(3) -0.0016(2) 0.0042(3) -0.0001(2)
S3 S2- 0.0312(4) 0.0131(3) 0.0151(3) -0.0005(3) 0.0050(3) 0.0028(2)
S4 S2- 0.0137(3) 0.0197(3) 0.0163(3) -0.0017(2) 0.0005(3) 0.0024(3)
#End of TTdata_414184-ICSD