
#(C) 2018 by FIZ Karlsruhe - Leibniz Institute for Information Infrastructure.  All rights reserved.
data_415121-ICSD
_database_code_ICSD 415121
_audit_creation_date 2007-08-01
_chemical_name_systematic 'Dilithium triselenotellurate(IV)'
_chemical_formula_structural 'Li2 (Te Se3)'
_chemical_formula_sum 'Li2 Se3 Te1'
_chemical_name_structure_type Ag2SeO3
_exptl_crystal_density_diffrn 4.46
_publ_section_title

;
Li2 Te S3 and Li2 Te Se3: preparation, crystal structure and impedance
spectroscopic characterization
;
loop_
_citation_id
_citation_journal_full
_citation_year
_citation_journal_volume
_citation_page_first
_citation_page_last
_citation_journal_id_ASTM
primary 'Zeitschrift fuer Anorganische und Allgemeine Chemie (1950) (DE)' 2005
631 1227 1232 ZAACAB
loop_
_publ_author_name
'Preitschaft, C.'
'Zabel, M.'
'Pfitzner, A.'
_cell_length_a 5.6580(10)
_cell_length_b 12.032(2)
_cell_length_c 8.2780(10)
_cell_angle_alpha 90.
_cell_angle_beta 92.690(10)
_cell_angle_gamma 90.
_cell_volume 562.92
_cell_formula_units_Z 4
_symmetry_space_group_name_H-M 'P 1 21/c 1'
_symmetry_Int_Tables_number 14
_refine_ls_R_factor_all 0.0451
loop_
_symmetry_equiv_pos_site_id
_symmetry_equiv_pos_as_xyz
1 'x, -y+1/2, z+1/2'
2 '-x, -y, -z'
3 '-x, y+1/2, -z+1/2'
4 'x, y, z'
loop_
_atom_type_symbol
_atom_type_oxidation_number
Li1+ 1
Te4+ 4
Se2- -2
loop_
_atom_site_label
_atom_site_type_symbol
_atom_site_symmetry_multiplicity
_atom_site_Wyckoff_symbol
_atom_site_fract_x
_atom_site_fract_y
_atom_site_fract_z
_atom_site_B_iso_or_equiv
_atom_site_occupancy
_atom_site_attached_hydrogens
Li1 Li1+ 4 e 1.237(4) -0.0855(15) 0.3666(19) 0.044(4) 1 0
Li2 Li1+ 4 e 0.732(3) -0.2280(15) 0.1454(16) 0.041(3) 1 0
Te1 Te4+ 4 e 0.71024(9) 0.08753(4) 0.18906(5) 0.02199(15) 1 0
Se1 Se2- 4 e 0.76997(15) 0.24672(6) 0.38501(8) 0.02745(19) 1 0
Se2 Se2- 4 e 0.74439(15) -0.07593(6) 0.37464(8) 0.0289(2) 1 0
Se3 Se2- 4 e 0.26938(14) 0.09717(6) 0.13398(9) 0.02676(18) 1 0
loop_
_atom_site_aniso_label
_atom_site_aniso_type_symbol
_atom_site_aniso_U_11
_atom_site_aniso_U_22
_atom_site_aniso_U_33
_atom_site_aniso_U_12
_atom_site_aniso_U_13
_atom_site_aniso_U_23
Li1 Li1+ 0.036(13) 0.061(10) 0.033(7) 0.000(9) -0.004(7) 0.008(7)
Li2 Li1+ 0.038(10) 0.056(9) 0.028(5) 0.003(7) 0.005(5) 0.002(6)
Te1 Te4+ 0.0192(3) 0.0245(2) 0.0224(2) -0.00017(16) 0.00187(15) -0.00042(15)
Se1 Se2- 0.0292(5) 0.0271(4) 0.0262(3) -0.0010(3) 0.0023(3) -0.0035(2)
Se2 Se2- 0.0315(5) 0.0278(4) 0.0273(4) 0.0009(3) 0.0019(3) 0.0038(3)
Se3 Se2- 0.0196(4) 0.0327(4) 0.0280(3) 0.0008(3) 0.0010(3) 0.0000(3)
#End of TTdata_415121-ICSD