
#(C) 2018 by FIZ Karlsruhe - Leibniz Institute for Information Infrastructure.  All rights reserved.
data_415618-ICSD
_database_code_ICSD 415618
_audit_creation_date 2006-10-01
_audit_update_record 2007-04-01
_chemical_name_systematic 'Lithium bis(fluorosulfonyl)imide'
_chemical_formula_structural 'Li (N (S O2 F)2)'
_chemical_formula_sum 'F2 Li1 N1 O4 S2'
_exptl_crystal_density_diffrn 2.39
_cell_measurement_temperature 120.
_publ_section_title

;
A new route to the syntheses of alkali metal bis(fluorosulfuryl)imides Crystal
structure of Li N (S O2 F)2
;
loop_
_citation_id
_citation_journal_full
_citation_year
_citation_journal_volume
_citation_page_first
_citation_page_last
_citation_journal_id_ASTM
primary Polyhedron 2006 25 1292 1298 PLYHDE
loop_
_publ_author_name
'Beran, M.'
'Prihoda, J.'
'Zak, Z.'
'Cernik, M.'
_cell_length_a 8.4260(10)
_cell_length_b 8.4260(10)
_cell_length_c 12.682(3)
_cell_angle_alpha 90.
_cell_angle_beta 90.
_cell_angle_gamma 120.
_cell_volume 779.76
_cell_formula_units_Z 6
_symmetry_space_group_name_H-M 'P -3'
_symmetry_Int_Tables_number 147
_refine_ls_R_factor_all 0.0268
loop_
_symmetry_equiv_pos_site_id
_symmetry_equiv_pos_as_xyz
1 'x-y, x, -z'
2 'y, -x+y, -z'
3 '-x, -y, -z'
4 '-x+y, -x, z'
5 '-y, x-y, z'
6 'x, y, z'
loop_
_atom_type_symbol
_atom_type_oxidation_number
Li1+ 1
S6+ 6
O2- -2
F1- -1
N3- -3
S6+ 6
O2- -2
F1- -1
loop_
_atom_site_label
_atom_site_type_symbol
_atom_site_symmetry_multiplicity
_atom_site_Wyckoff_symbol
_atom_site_fract_x
_atom_site_fract_y
_atom_site_fract_z
_atom_site_B_iso_or_equiv
_atom_site_occupancy
_atom_site_attached_hydrogens
Li1 Li1+ 2 d -0.3333 0.3333 0.2500(4) 0.0178(12) 1 0
Li2 Li1+ 2 d 0.3333 0.6667 -0.0203(4) 0.0196(12) 1 0
Li3 Li1+ 2 d 0.3333 0.6667 0.5201(4) 0.0202(12) 1 0
S1 S6+ 6 g 0.03019(6) 0.36096(6) 0.35784(4) 0.01223(18) 1 0
O1 O2- 6 g 0.16068(17) 0.43763(18) 0.43941(10) 0.0189(3) 1 0
O2 O2- 6 g -0.12216(17) 0.39021(18) 0.36010(10) 0.0151(3) 1 0
F1 F1- 6 g -0.05688(15) 0.15215(14) 0.37175(9) 0.0200(3) 1 0
N1 N3- 6 g 0.1309(2) 0.3993(2) 0.25002(12) 0.0156(4) 1 0
S2 S6+ 6 g 0.03015(6) 0.36094(6) 0.14215(4) 0.01220(18) 1 0
O3 O2- 6 g 0.16072(17) 0.43769(18) 0.06054(10) 0.0190(3) 1 0
O4 O2- 6 g -0.12212(17) 0.39014(18) 0.13990(10) 0.0149(3) 1 0
F2 F1- 6 g -0.05700(15) 0.15207(14) 0.12822(9) 0.0202(3) 1 0
loop_
_atom_site_aniso_label
_atom_site_aniso_type_symbol
_atom_site_aniso_U_11
_atom_site_aniso_U_22
_atom_site_aniso_U_33
_atom_site_aniso_U_12
_atom_site_aniso_U_13
_atom_site_aniso_U_23
Li1 Li1+ 0.0173(18) 0.0173(18) 0.019(3) 0.0087(9) 0. 0.
Li2 Li1+ 0.0211(19) 0.0211(19) 0.016(3) 0.0106(9) 0. 0.
Li3 Li1+ 0.0219(19) 0.0219(19) 0.017(3) 0.0110(10) 0. 0.
S1 S6+ 0.0129(3) 0.0124(3) 0.0115(3) 0.0064(2) -0.00071(17) -0.00027(16)
O1 O2- 0.0186(7) 0.0222(8) 0.0157(7) 0.0101(6) -0.0045(5) -0.0027(5)
O2 O2- 0.0161(7) 0.0180(7) 0.0126(7) 0.0095(6) 0.0011(5) 0.0002(5)
F1 F1- 0.0233(6) 0.0139(6) 0.0222(6) 0.0089(5) 0.0018(5) 0.0015(5)
N1 N3- 0.0115(8) 0.0188(8) 0.0160(8) 0.0073(7) -0.0002(6) -0.0001(7)
S2 S6+ 0.0128(3) 0.0123(3) 0.0116(3) 0.0064(2) 0.00058(17) 0.00028(16)
O3 O2- 0.0190(7) 0.0211(8) 0.0165(7) 0.0099(6) 0.0038(6) 0.0023(5)
O4 O2- 0.0159(7) 0.0179(7) 0.0123(7) 0.0095(6) -0.0007(5) -0.0002(5)
F2 F1- 0.0234(6) 0.0142(6) 0.0222(6) 0.0088(5) -0.0018(5) -0.0018(5)
#End of TTdata_415618-ICSD