
#(C) 2018 by FIZ Karlsruhe - Leibniz Institute for Information Infrastructure.  All rights reserved.
data_416197-ICSD
_database_code_ICSD 416197
_audit_creation_date 2007-08-01
_chemical_name_systematic 'Dipraseodymium lithium osmium hexaoxide'
_chemical_formula_structural 'Pr2 Li Os O6'
_chemical_formula_sum 'Li1 O6 Os1 Pr2'
_chemical_name_structure_type Perovskite-Na3AlF6
_chemical_name_mineral 'Perovskite, double'
_exptl_crystal_density_diffrn 7.89
_cell_measurement_temperature 150.
_publ_section_title

;
Synthesis, structural characterization, and magnetic properties of the
antiferromagnetic double perovskites Ln2 Li Os O6 (Ln = La, Pr, Nd, Sm)
;
loop_
_citation_id
_citation_journal_full
_citation_year
_citation_journal_volume
_citation_page_first
_citation_page_last
_citation_journal_id_ASTM
primary 'Journal of Solid State Chemistry' 2006 179 1750 1756 JSSCBI
loop_
_publ_author_name
'Gemmill, W.R.'
'Smith, M.D.'
'zur Loye, H.C.'
_cell_length_a 5.4611(2)
_cell_length_b 5.7279(2)
_cell_length_c 7.7328(3)
_cell_angle_alpha 90.
_cell_angle_beta 90.407(2)
_cell_angle_gamma 90.
_cell_volume 241.88
_cell_formula_units_Z 2
_symmetry_space_group_name_H-M 'P 1 21/n 1'
_symmetry_Int_Tables_number 14
_refine_ls_R_factor_all 0.0295
loop_
_symmetry_equiv_pos_site_id
_symmetry_equiv_pos_as_xyz
1 '-x+1/2, y+1/2, -z+1/2'
2 '-x, -y, -z'
3 'x+1/2, -y+1/2, z+1/2'
4 'x, y, z'
loop_
_atom_type_symbol
_atom_type_oxidation_number
Os5+ 5
Pr3+ 3
Li1+ 1
O2- -2
loop_
_atom_site_label
_atom_site_type_symbol
_atom_site_symmetry_multiplicity
_atom_site_Wyckoff_symbol
_atom_site_fract_x
_atom_site_fract_y
_atom_site_fract_z
_atom_site_B_iso_or_equiv
_atom_site_occupancy
_atom_site_attached_hydrogens
Os1 Os5+ 2 b 0.5 0.5 0. 0.00451(9) 1 0
Pr1 Pr3+ 4 e 0.48639(6) 0.06263(5) 0.25115(4) 0.00543(9) 1 0
Li1 Li1+ 2 a 0. 0. 0. 0.008(3) 1 0
O1 O2- 4 e 0.2064(7) 0.3114(7) 0.0456(5) 0.0070(7) 1 0
O2 O2- 4 e 0.5920(8) 0.4712(7) 0.2439(6) 0.0077(7) 1 0
O3 O2- 4 e 0.3163(7) 0.7868(7) 0.0504(6) 0.0066(7) 1 0
loop_
_atom_site_aniso_label
_atom_site_aniso_type_symbol
_atom_site_aniso_U_11
_atom_site_aniso_U_22
_atom_site_aniso_U_33
_atom_site_aniso_U_12
_atom_site_aniso_U_13
_atom_site_aniso_U_23
Os1 Os5+ 0.00536(13) 0.00369(13) 0.00449(13) -0.00011(8) 0.00023(9) 0.00007(9)
Pr1 Pr3+ 0.00627(14) 0.00474(14) 0.00528(14) -0.00032(9) 0.00003(9) 0.00012(9)
O1 O2- 0.0106(17) 0.0040(16) 0.0063(18) -0.0029(13) 0.0014(13) 0.0011(14)
O2 O2- 0.0071(18) 0.0068(18) 0.0092(19) -0.0009(13) 0.0002(14) 0.0005(14)
O3 O2- 0.0063(16) 0.0043(17) 0.0092(19) 0.0012(13) -0.0005(13) -0.0033(14)
#End of TTdata_416197-ICSD