
#(C) 2018 by FIZ Karlsruhe - Leibniz Institute for Information Infrastructure.  All rights reserved.
data_417657-ICSD
_database_code_ICSD 417657
_audit_creation_date 2008-02-01
_chemical_name_systematic
'Hexalithium trilutetium pentakis(orthothiophosphate(V))'
_chemical_formula_structural 'Li6 Lu3 (P S4)5'
_chemical_formula_sum 'Li6 Lu3 P5 S20'
_chemical_name_structure_type Li6Y3(PS4)5
_exptl_crystal_density_diffrn 3.14
_cell_measurement_temperature 293.
_publ_section_title

;
Neue Thiophosphate: Die Verbindungen Li6 Ln3 (P S4)5 (Ln: Y, Gd, Dy, Yb, Lu)
und Ag3 Y (P S4)2
;
loop_
_citation_id
_citation_journal_full
_citation_year
_citation_journal_volume
_citation_page_first
_citation_page_last
_citation_journal_id_ASTM
primary 'Zeitschrift fuer Anorganische und Allgemeine Chemie (1950) (DE)' 2007
633 1633 1638 ZAACAB
loop_
_publ_author_name
'Mueller, C.'
'Joergens, S.'
'Mewis, A.'
_cell_length_a 28.169(6)
_cell_length_b 10.002(2)
_cell_length_c 33.432(7)
_cell_angle_alpha 90.
_cell_angle_beta 113.54(3)
_cell_angle_gamma 90.
_cell_volume 8635.48
_cell_formula_units_Z 12
_symmetry_space_group_name_H-M 'C 1 2/c 1'
_symmetry_Int_Tables_number 15
_refine_ls_R_factor_all 0.027
loop_
_symmetry_equiv_pos_site_id
_symmetry_equiv_pos_as_xyz
1 'x, -y, z+1/2'
2 '-x, -y, -z'
3 '-x, y, -z+1/2'
4 'x, y, z'
5 'x+1/2, -y+1/2, z+1/2'
6 '-x+1/2, -y+1/2, -z'
7 '-x+1/2, y+1/2, -z+1/2'
8 'x+1/2, y+1/2, z'
loop_
_atom_type_symbol
_atom_type_oxidation_number
Lu3+ 3
P5+ 5
S2- -2
Li1+ 1
loop_
_atom_site_label
_atom_site_type_symbol
_atom_site_symmetry_multiplicity
_atom_site_Wyckoff_symbol
_atom_site_fract_x
_atom_site_fract_y
_atom_site_fract_z
_atom_site_B_iso_or_equiv
_atom_site_occupancy
_atom_site_attached_hydrogens
Lu1 Lu3+ 8 f 0.12830(2) 0.15616(5) 0.831183(15) 0.01555(12) 1 0
Lu2 Lu3+ 8 f 0.16339(2) 0.35037(5) 0.294728(16) 0.01635(13) 1 0
Lu3 Lu3+ 8 f 0.11625(2) 0.25547(5) 0.432617(16) 0.01586(12) 1 0
Lu4 Lu3+ 8 f 0.03832(2) 0.61848(6) 0.572722(17) 0.02263(14) 1 0
Lu5 Lu3+ 8 f 0.08553(3) 0.13793(8) 0.55487(2) 0.0198(3) 0.646(3) 0
P1 P5+ 4 e 0. 0.1735(4) 0.75 0.0167(10) 1 0
P2 P5+ 8 f 0.31558(13) 0.5401(3) 0.55920(10) 0.0180(7) 1 0
P3 P5+ 8 f 0.49011(13) 0.4443(3) 0.56916(10) 0.0182(7) 1 0
P4 P5+ 8 f 0.36519(12) 0.9740(3) 0.62428(9) 0.0164(7) 1 0
P5 P5+ 8 f 0.20766(12) 0.1498(3) 0.63181(9) 0.0185(7) 1 0
P6 P5+ 8 f 0.39998(14) 0.0593(3) 0.81495(10) 0.0173(6) 1 0
P7 P5+ 8 f 0.40639(12) 0.0449(3) 0.48984(9) 0.0175(7) 1 0
P8 P5+ 8 f 0.33942(12) 0.4813(3) 0.74292(10) 0.0170(7) 1 0
S1 S2- 8 f 0.28739(11) 0.3617(3) 0.52894(9) 0.0177(6) 1 0
S2 S2- 8 f 0.30003(12) 0.6435(3) 0.70946(9) 0.0183(7) 1 0
S3 S2- 8 f 0.32355(12) 0.9115(3) 0.65869(9) 0.0172(7) 1 0
S4 S2- 8 f 0.50827(13) 0.6373(3) 0.58955(9) 0.0218(7) 1 0
S5 S2- 8 f 0.40367(12) 0.1459(3) 0.65307(9) 0.0194(7) 1 0
S6 S2- 8 f 0.38579(12) 0.4896(3) 0.60742(9) 0.0182(7) 1 0
S7 S2- 8 f 0.42990(12) 0.1647(3) 0.77725(9) 0.0193(7) 1 0
S8 S2- 8 f 0.38638(12) 0.5321(3) 0.80632(9) 0.0201(7) 1 0
S9 S2- 8 f 0.31962(12) 0.0223(3) 0.56090(9) 0.0193(7) 1 0
S10 S2- 8 f 0.23727(12) 0.0569(3) 0.69130(9) 0.0196(7) 1 0
S11 S2- 8 f 0.44092(12) 0.0237(3) 0.55652(9) 0.0196(7) 1 0
S12 S2- 8 f 0.61434(13) 0.1340(3) 0.53953(10) 0.0254(7) 1 0
S13 S2- 8 f 0.62483(12) 0.1697(3) 0.64485(9) 0.0220(7) 1 0
S14 S2- 8 f 0.33983(13) 0.9622(3) 0.76886(9) 0.0215(7) 1 0
S15 S2- 8 f 0.29336(12) 0.3248(3) 0.74431(9) 0.0184(7) 1 0
S16 S2- 8 f 0.54306(12) 0.9447(3) 0.64092(9) 0.0209(7) 1 0
S17 S2- 8 f 0.32056(13) 0.6728(3) 0.51496(10) 0.0261(8) 1 0
S18 S2- 8 f 0.53782(11) 0.8741(3) 0.52859(9) 0.0187(7) 1 0
S19 S2- 8 f 0.26775(12) 0.2534(4) 0.62708(9) 0.0252(7) 1 0
S20 S2- 8 f 0.34594(13) 0.1697(3) 0.47693(9) 0.0278(8) 1 0
S21 S2- 8 f 0.27647(12) 0.6258(3) 0.59327(9) 0.0203(7) 1 0
S22 S2- 8 f 0.47860(12) 0.5658(3) 0.69353(9) 0.0184(7) 1 0
S23 S2- 8 f 0.38234(12) 0.4143(3) 0.70962(9) 0.0185(7) 1 0
S24 S2- 8 f 0.41446(12) 0.8211(3) 0.62773(9) 0.0192(7) 1 0
S25 S2- 8 f 0.54295(13) 0.3814(3) 0.54584(10) 0.0270(8) 1 0
S26 S2- 8 f 0.43725(12) 0.7882(3) 0.74392(9) 0.0209(7) 1 0
S27 S2- 8 f 0.41707(13) 0.4281(4) 0.52230(10) 0.0289(8) 1 0
S28 S2- 8 f 0.49245(12) 0.3053(3) 0.61584(9) 0.0190(7) 1 0
S29 S2- 8 f 0.17743(15) 0.0114(4) 0.58334(11) 0.0393(9) 1 0
S30 S2- 8 f 0.15006(13) 0.2787(4) 0.62838(10) 0.0307(8) 1 0
Li1 Li1+ 8 f 0.4572(8) 0.391(2) 0.8057(6) 0.022(4) 1 0
Li2 Li1+ 8 f 0.6715(9) 0.375(2) 0.6749(7) 0.035(5) 1 0
Li3 Li1+ 8 f 0.5427(9) 0.711(2) 0.6766(7) 0.033(5) 1 0
Li4 Li1+ 8 f 0.1830(9) 0.237(3) 0.7115(7) 0.039(6) 1 0
Li5 Li1+ 8 f 0.4106(12) 0.751(3) 0.5534(9) 0.063(8) 1 0
Li6 Li1+ 8 f 0.2678(17) 0.818(4) 0.5402(13) 0.098(12) 1 0
Li7 Li1+ 8 f 0.2467(15) 0.156(4) 0.5552(12) 0.086(10) 1 0
Li8 Li1+ 8 f 0.2090(9) 0.506(2) 0.6304(7) 0.029(5) 1 0
Li9 Li1+ 8 f 0.491(4) 0.980(10) 0.712(3) 0.26(4) 1 0
loop_
_atom_site_aniso_label
_atom_site_aniso_type_symbol
_atom_site_aniso_U_11
_atom_site_aniso_U_22
_atom_site_aniso_U_33
_atom_site_aniso_U_12
_atom_site_aniso_U_13
_atom_site_aniso_U_23
Lu1 Lu3+ 0.0173(3) 0.0146(3) 0.0158(2) -0.0005(2) 0.0077(2) -0.0003(2)
Lu2 Lu3+ 0.0179(3) 0.0150(3) 0.0163(2) -0.0001(2) 0.0070(2) 0.0003(2)
Lu3 Lu3+ 0.0181(3) 0.0153(3) 0.0147(2) 0.0003(2) 0.0072(2) 0.0001(2)
Lu4 Lu3+ 0.0246(3) 0.0235(3) 0.0220(3) 0.0000(3) 0.0117(2) 0.0006(2)
Lu5 Lu3+ 0.0209(5) 0.0169(5) 0.0235(5) 0.0012(4) 0.0108(4) 0.0002(4)
P1 P5+ 0.015(2) 0.017(2) 0.020(2) 0. 0.0085(18) 0.
P2 P5+ 0.0191(18) 0.0185(17) 0.0167(15) -0.0003(15) 0.0075(13) -0.0019(13)
P3 P5+ 0.0208(18) 0.0169(16) 0.0198(16) 0.0013(14) 0.0111(14) 0.0014(13)
P4 P5+ 0.0184(18) 0.0131(16) 0.0182(16) -0.0006(14) 0.0080(14) 0.0015(13)
P5 P5+ 0.0172(17) 0.0191(17) 0.0196(15) 0.0000(15) 0.0077(13) 0.0010(14)
P6 P5+ 0.0201(17) 0.0153(15) 0.0157(14) -0.0005(16) 0.0063(12) 0.0004(14)
P7 P5+ 0.0185(17) 0.0201(17) 0.0161(15) 0.0011(14) 0.0092(13) -0.0010(13)
P8 P5+ 0.0196(18) 0.0141(16) 0.0195(16) 0.0002(14) 0.0100(14) 0.0006(13)
S1 S2- 0.0176(16) 0.0169(16) 0.0177(14) -0.0010(14) 0.0060(12) 0.0000(13)
S2 S2- 0.0212(17) 0.0169(16) 0.0192(14) 0.0015(14) 0.0106(12) 0.0024(13)
S3 S2- 0.0218(17) 0.0129(15) 0.0185(15) -0.0016(14) 0.0097(13) 0.0002(12)
S4 S2- 0.0263(18) 0.0178(17) 0.0242(15) 0.0017(15) 0.0131(13) 0.0015(14)
S5 S2- 0.0235(17) 0.0178(16) 0.0169(14) 0.0001(15) 0.0080(13) -0.0015(13)
S6 S2- 0.0203(17) 0.0151(15) 0.0171(15) 0.0011(14) 0.0054(13) -0.0001(12)
S7 S2- 0.0238(17) 0.0198(16) 0.0163(14) -0.0028(14) 0.0101(13) 0.0003(13)
S8 S2- 0.0206(19) 0.0218(16) 0.0187(16) -0.0019(14) 0.0085(14) -0.0003(13)
S9 S2- 0.0246(18) 0.0188(16) 0.0141(14) 0.0030(14) 0.0073(13) 0.0017(12)
S10 S2- 0.0176(17) 0.0217(17) 0.0200(15) 0.0029(14) 0.0079(13) 0.0046(13)
S11 S2- 0.0199(17) 0.0252(17) 0.0151(14) 0.0030(14) 0.0085(13) 0.0022(13)
S12 S2- 0.0260(18) 0.0225(18) 0.0346(17) -0.0061(15) 0.0193(14) -0.0073(15)
S13 S2- 0.0236(17) 0.0249(17) 0.0184(15) -0.0032(15) 0.0093(13) -0.0004(14)
S14 S2- 0.0249(18) 0.0185(16) 0.0179(15) -0.0027(14) 0.0052(13) 0.0011(13)
S15 S2- 0.0195(17) 0.0153(15) 0.0231(15) -0.0013(14) 0.0113(13) -0.0006(13)
S16 S2- 0.0236(18) 0.0175(16) 0.0189(15) -0.0038(14) 0.0059(13) -0.0033(13)
S17 S2- 0.0274(19) 0.0255(18) 0.0204(15) -0.0009(16) 0.0041(14) 0.0066(14)
S18 S2- 0.0171(16) 0.0196(16) 0.0203(14) -0.0010(14) 0.0083(12) -0.0005(13)
S19 S2- 0.0222(16) 0.0306(18) 0.0230(16) -0.0002(17) 0.0093(13) 0.0090(15)
S20 S2- 0.0280(18) 0.0342(19) 0.0173(15) 0.0143(16) 0.0050(13) -0.0052(14)
S21 S2- 0.0209(17) 0.0197(17) 0.0202(14) 0.0044(14) 0.0083(13) -0.0017(13)
S22 S2- 0.0160(16) 0.0202(16) 0.0192(15) 0.0001(14) 0.0072(13) -0.0009(12)
S23 S2- 0.0238(18) 0.0159(16) 0.0197(15) 0.0001(14) 0.0130(13) 0.0005(12)
S24 S2- 0.0223(17) 0.0161(16) 0.0221(15) 0.0024(14) 0.0119(13) 0.0028(13)
S25 S2- 0.038(2) 0.0217(17) 0.0339(17) 0.0033(16) 0.0274(16) 0.0046(14)
S26 S2- 0.0213(17) 0.0214(17) 0.0196(15) 0.0012(14) 0.0078(13) -0.0025(13)
S27 S2- 0.0257(18) 0.039(2) 0.0212(16) -0.0065(16) 0.0088(14) 0.0067(15)
S28 S2- 0.0209(17) 0.0184(16) 0.0179(15) 0.0014(13) 0.0079(13) 0.0030(12)
S29 S2- 0.040(2) 0.0239(19) 0.0320(19) 0.0050(17) -0.0089(17) -0.0073(15)
S30 S2- 0.0326(19) 0.040(2) 0.0217(16) 0.0194(17) 0.0137(14) 0.0072(15)
#End of TTdata_417657-ICSD