
#(C) 2018 by FIZ Karlsruhe - Leibniz Institute for Information Infrastructure.  All rights reserved.
data_419670-ICSD
_database_code_ICSD 419670
_audit_creation_date 2009-02-01
_chemical_name_systematic 'Dilithium tetraborate'
_chemical_formula_structural 'Li2 B4 O7'
_chemical_formula_sum 'B4 Li2 O7'
_chemical_name_structure_type Li2B4O7
_exptl_crystal_density_diffrn 2.44
_cell_measurement_temperature 148.
_publ_section_title
'Temperature-dependent changes of the crystal structure of Li2 B4 O7'
loop_
_citation_id
_citation_journal_full
_citation_year
_citation_journal_volume
_citation_page_first
_citation_page_last
_citation_journal_id_ASTM
primary 'Zeitschrift fuer Anorganische und Allgemeine Chemie (1950) (DE)' 2008
634 2601 2607 ZAACAB
loop_
_publ_author_name
'Sennova, N.'
'Bubnova, R.S.'
'Cordier, G.'
'Albert, B.'
'Filatov, S.K.'
'Isaenko, L.'
_cell_length_a 9.451(5)
_cell_length_b 9.451(5)
_cell_length_c 10.295(6)
_cell_angle_alpha 90.
_cell_angle_beta 90.
_cell_angle_gamma 90.
_cell_volume 919.56
_cell_formula_units_Z 8
_symmetry_space_group_name_H-M 'I 41 c d'
_symmetry_Int_Tables_number 110
_refine_ls_R_factor_all 0.0263
loop_
_symmetry_equiv_pos_site_id
_symmetry_equiv_pos_as_xyz
1 '-y, -x+1/2, z+3/4'
2 '-y, x+1/2, z+1/4'
3 'x, -y, z+1/2'
4 '-x, -y, z'
5 'y, x+1/2, z+3/4'
6 'y, -x+1/2, z+1/4'
7 '-x, y, z+1/2'
8 'x, y, z'
9 '-y+1/2, -x, z+1/4'
10 '-y+1/2, x, z+3/4'
11 'x+1/2, -y+1/2, z'
12 '-x+1/2, -y+1/2, z+1/2'
13 'y+1/2, x, z+1/4'
14 'y+1/2, -x, z+3/4'
15 '-x+1/2, y+1/2, z'
16 'x+1/2, y+1/2, z+1/2'
loop_
_atom_type_symbol
_atom_type_oxidation_number
Li1+ 1
B3+ 3
O2- -2
loop_
_atom_site_label
_atom_site_type_symbol
_atom_site_symmetry_multiplicity
_atom_site_Wyckoff_symbol
_atom_site_fract_x
_atom_site_fract_y
_atom_site_fract_z
_atom_site_B_iso_or_equiv
_atom_site_occupancy
_atom_site_attached_hydrogens
Li1 Li1+ 16 b 0.3492(4) 0.3327(4) 0.3489(3) 0.0162(7) 1 0
B1 B3+ 16 b 0.0868(2) 0.33169(19) 0.45135(18) 0.0068(3) 1 0
B2 B3+ 16 b 0.05411(19) 0.11221(19) 0.58236(17) 0.0062(3) 1 0
O1 O2- 16 b 0.13833(11) 0.21815(12) 0.51588(10) 0.0065(3) 1 0
O2 O2- 16 b 0.17795(12) 0.43296(12) 0.40618(11) 0.0063(3) 1 0
O3 O2- 16 b -0.05682(11) 0.34335(12) 0.43133(10) 0.0064(3) 1 0
O4 O2- 8 a 0. 0. 0.50001(15) 0.0061(3) 1 0
loop_
_atom_site_aniso_label
_atom_site_aniso_type_symbol
_atom_site_aniso_U_11
_atom_site_aniso_U_22
_atom_site_aniso_U_33
_atom_site_aniso_U_12
_atom_site_aniso_U_13
_atom_site_aniso_U_23
Li1 Li1+ 0.0133(15) 0.0162(15) 0.0192(17) 0.0067(12) 0.0049(12) 0.0069(12)
B1 B3+ 0.0084(8) 0.0056(7) 0.0064(6) -0.0002(6) -0.0005(6) -0.0010(6)
B2 B3+ 0.0051(8) 0.0073(7) 0.0063(6) 0.0008(6) -0.0011(6) 0.0016(6)
O1 O2- 0.0049(5) 0.0065(6) 0.0081(5) 0.0001(4) 0.0008(4) 0.0015(4)
O2 O2- 0.0052(5) 0.0067(5) 0.0070(5) 0.0001(4) 0.0006(4) 0.0013(4)
O3 O2- 0.0054(5) 0.0068(5) 0.0070(5) -0.0003(4) -0.0002(4) 0.0020(4)
O4 O2- 0.0065(7) 0.0072(7) 0.0046(6) -0.0006(6) 0. 0.
#End of TTdata_419670-ICSD