
#(C) 2018 by FIZ Karlsruhe - Leibniz Institute for Information Infrastructure.  All rights reserved.
data_423176-ICSD
_database_code_ICSD 423176
_audit_creation_date 2012-08-01
_chemical_name_systematic 'Indium dipotassium lithium trimolybdate'
_chemical_formula_structural 'In K2 Li Mo3 O12'
_chemical_formula_sum 'In1 K2 Li1 Mo3 O12'
_exptl_crystal_density_diffrn 3.61
_cell_measurement_temperature 296.
_publ_section_title

;
Phase formation in the Li2 Mo O4 - K2 Mo O4 - In2 (Mo O4)3 system and crystal
structures of new compounds K3 In Mo4 O15 and Li K2 In (Mo O4)3
;
loop_
_citation_id
_citation_journal_full
_citation_year
_citation_journal_volume
_citation_page_first
_citation_page_last
_citation_journal_id_ASTM
primary 'Journal of Solid State Chemistry' 2012 187 276 281 JSSCBI
loop_
_publ_author_name
'Khal'baeva, K.M. (Khalbaeva, K.M.)'
'Solodovnikov, S.F.'
'Khaikina, E.G.'
'Kadyrova, Y.M.'
'Solodovnikova, Z.A.'
'Basovich, O.M.'
_cell_length_a 7.0087(2)
_cell_length_b 9.2269(3)
_cell_length_c 10.1289(3)
_cell_angle_alpha 90.
_cell_angle_beta 107.4010(10)
_cell_angle_gamma 90.
_cell_volume 625.04
_cell_formula_units_Z 2
_symmetry_space_group_name_H-M 'P 1 21 1'
_symmetry_Int_Tables_number 4
_refine_ls_R_factor_all 0.028
loop_
_symmetry_equiv_pos_site_id
_symmetry_equiv_pos_as_xyz
1 '-x, y+1/2, -z'
2 'x, y, z'
loop_
_atom_type_symbol
_atom_type_oxidation_number
In3+ 3
Mo6+ 6
K1+ 1
O2- -2
Li1+ 1
loop_
_atom_site_label
_atom_site_type_symbol
_atom_site_symmetry_multiplicity
_atom_site_Wyckoff_symbol
_atom_site_fract_x
_atom_site_fract_y
_atom_site_fract_z
_atom_site_B_iso_or_equiv
_atom_site_occupancy
_atom_site_attached_hydrogens
In1 In3+ 2 a 0.72164(4) 0.90414(3) 0.26193(3) 0.00910(6) 1 0
Mo1 Mo6+ 2 a 0.80454(5) 0.32843(4) 0.81174(4) 0.01172(8) 1 0
Mo2 Mo6+ 2 a 0.57175(5) 0.71572(5) -0.07909(4) 0.01290(8) 1 0
Mo3 Mo6+ 2 a 0.95177(5) 0.21316(4) 0.45816(4) 0.01173(8) 1 0
K1 K1+ 2 a 1.15969(17) -0.00207(13) 0.79700(13) 0.0244(2) 1 0
K2 K1+ 2 a 0.4538(3) 0.4940(3) 0.42063(19) 0.0945(10) 1 0
O1 O2- 2 a 0.8317(6) 0.1575(5) 0.7506(4) 0.0273(9) 1 0
O2 O2- 2 a 0.8228(5) 0.3080(4) 0.9867(4) 0.0202(8) 1 0
O3 O2- 2 a 1.0091(5) 0.4354(4) 0.7943(4) 0.0162(7) 1 0
O4 O2- 2 a 0.5641(4) 0.3937(4) 0.7083(3) 0.0146(6) 1 0
O5 O2- 2 a 0.5304(6) 0.8743(4) -0.1727(4) 0.0296(10) 1 0
O6 O2- 2 a 0.7831(5) 0.6297(5) -0.0966(4) 0.0243(8) 1 0
O7 O2- 2 a 0.6223(5) 0.7496(4) 0.1006(4) 0.0186(8) 1 0
O8 O2- 2 a 0.3596(5) 0.5974(4) -0.1407(4) 0.0178(7) 1 0
O9 O2- 2 a 0.7859(5) 0.3468(4) 0.4697(4) 0.0254(9) 1 0
O10 O2- 2 a 1.0257(6) 0.2500(4) 0.3123(4) 0.0222(8) 1 0
O11 O2- 2 a 0.8313(5) 0.0395(4) 0.4432(4) 0.0177(7) 1 0
O12 O2- 2 a 1.1707(5) 0.2193(4) 0.6067(3) 0.0167(7) 1 0
Li1 Li1+ 2 a 0.9488(13) 0.1493(10) 0.1279(10) 0.0213(19) 1 0
loop_
_atom_site_aniso_label
_atom_site_aniso_type_symbol
_atom_site_aniso_U_11
_atom_site_aniso_U_22
_atom_site_aniso_U_33
_atom_site_aniso_U_12
_atom_site_aniso_U_13
_atom_site_aniso_U_23
In1 In3+ 0.00749(11) 0.00991(14) 0.00946(13) -0.00004(11) 0.00189(10)
-0.00026(12)
Mo1 Mo6+ 0.00765(16) 0.01331(19) 0.01393(19) -0.00033(14) 0.00280(14)
0.00079(15)
Mo2 Mo6+ 0.01123(15) 0.01294(18) 0.01276(18) -0.00110(15) 0.00088(13)
-0.00258(17)
Mo3 Mo6+ 0.01151(15) 0.01170(18) 0.01030(18) -0.00104(15) 0.00069(13)
-0.00149(16)
K1 K1+ 0.0249(5) 0.0167(6) 0.0277(6) 0.0013(4) 0.0022(5) 0.0000(5)
K2 K1+ 0.0788(13) 0.179(3) 0.0355(9) 0.1031(16) 0.0320(9) 0.0410(13)
O1 O2- 0.0212(18) 0.026(2) 0.033(2) -0.0006(16) 0.0062(17) -0.0044(19)
O2 O2- 0.0203(16) 0.027(2) 0.0123(16) -0.0023(15) 0.0027(13) 0.0042(15)
O3 O2- 0.0120(14) 0.0156(18) 0.0229(19) -0.0023(12) 0.0081(13) -0.0023(14)
O4 O2- 0.0062(12) 0.0231(17) 0.0142(15) -0.0003(14) 0.0028(11) 0.0003(16)
O5 O2- 0.033(2) 0.023(2) 0.030(2) -0.0035(16) 0.0043(18) 0.0075(17)
O6 O2- 0.0145(16) 0.030(2) 0.030(2) -0.0020(16) 0.0102(15) -0.0054(18)
O7 O2- 0.0220(17) 0.0157(18) 0.0163(18) -0.0028(14) 0.0030(14) -0.0082(14)
O8 O2- 0.0125(15) 0.0180(19) 0.0218(19) -0.0039(14) 0.0033(14) -0.0070(15)
O9 O2- 0.0161(16) 0.026(2) 0.032(2) 0.0080(15) 0.0037(15) -0.0061(18)
O10 O2- 0.033(2) 0.023(2) 0.0109(17) -0.0058(15) 0.0070(15) -0.0011(14)
O11 O2- 0.0199(16) 0.0182(18) 0.0132(17) -0.0053(14) 0.0024(13) -0.0029(14)
O12 O2- 0.0163(15) 0.0155(16) 0.0141(16) 0.0001(15) -0.0019(12) 0.0002(16)
Li1 Li1+ 0.019(4) 0.017(5) 0.024(5) 0.004(4) 0.001(4) 0.000(4)
#End of TTdata_423176-ICSD