
#(C) 2018 by FIZ Karlsruhe - Leibniz Institute for Information Infrastructure.  All rights reserved.
data_423470-ICSD
_database_code_ICSD 423470
_audit_creation_date 2012-02-01
_chemical_name_systematic 'Pentalanthanum lithium oxodecanitridotetrasilicate'
_chemical_formula_structural 'La5 Li O N10 Si4'
_chemical_formula_sum 'La5 Li1 N10 O1 Si4'
_exptl_crystal_density_diffrn 5.58
_cell_measurement_temperature 293.
_publ_section_title
'Li La5 Si4 N10 O and Li Pr5 Si4 N10 O - chain-type oxonitridosilicates'
loop_
_citation_id
_citation_journal_full
_citation_year
_citation_journal_volume
_citation_page_first
_citation_page_last
_citation_journal_id_ASTM
primary 'Zeitschrift fuer Anorganische und Allgemeine Chemie (1950) (DE)' 2012
638 94 97 ZAACAB
loop_
_publ_author_name
'Lupart, S.'
'Schnick, W.'
_cell_length_a 5.7462(11)
_cell_length_b 6.5620(13)
_cell_length_c 8.3732(17)
_cell_angle_alpha 103.54(3)
_cell_angle_beta 107.77(3)
_cell_angle_gamma 94.30(3)
_cell_volume 288.63
_cell_formula_units_Z 1
_symmetry_space_group_name_H-M 'P -1'
_symmetry_Int_Tables_number 2
_refine_ls_R_factor_all 0.0165
loop_
_symmetry_equiv_pos_site_id
_symmetry_equiv_pos_as_xyz
1 '-x, -y, -z'
2 'x, y, z'
loop_
_atom_type_symbol
_atom_type_oxidation_number
La3+ 3
Si4+ 4
N3- -3
O2- -2
Li1+ 1
loop_
_atom_site_label
_atom_site_type_symbol
_atom_site_symmetry_multiplicity
_atom_site_Wyckoff_symbol
_atom_site_fract_x
_atom_site_fract_y
_atom_site_fract_z
_atom_site_B_iso_or_equiv
_atom_site_occupancy
_atom_site_attached_hydrogens
La1 La3+ 1 h 0.5 0.5 1.5 0.01168(10) 1 0
La2 La3+ 2 i 0.71540(4) 1.27195(4) 0.87509(3) 0.00983(9) 1 0
La3 La3+ 2 i 1.08924(4) 0.85354(4) 1.66903(3) 0.01017(9) 1 0
Si1 Si4+ 2 i 0.82792(18) 1.64276(16) 0.25902(13) 0.0071(2) 1 0
Si2 Si4+ 2 i 0.62292(19) 0.79100(16) 0.90609(13) 0.0067(2) 1 0
N1 N3- 1 d 0.5 1. 1. 0.0123(9) 1 0
N2 N3- 2 i 0.8282(6) 1.7048(5) 0.0654(4) 0.0107(6) 1 0
N3 N3- 2 i 0.7064(6) 0.8246(5) 1.3833(4) 0.0105(6) 1 0
N4 N3- 2 i 1.1303(6) 1.6374(6) 0.3699(4) 0.0130(7) 1 0
N5 N3- 2 i 0.3661(6) 0.5950(5) 0.7947(5) 0.0138(7) 1 0
N6 N3- 2 i 0.7282(6) 0.8668(5) 0.7596(4) 0.0177(7) 0.5 0
O1 O2- 2 i 0.7282(6) 0.8668(5) 0.7596(4) 0.0177(7) 0.5 0
Li1 Li1+ 1 f 0.5 1. 1.5 0.044(4) 1 0
loop_
_atom_site_aniso_label
_atom_site_aniso_type_symbol
_atom_site_aniso_U_11
_atom_site_aniso_U_22
_atom_site_aniso_U_33
_atom_site_aniso_U_12
_atom_site_aniso_U_13
_atom_site_aniso_U_23
La1 La3+ 0.00984(16) 0.01635(18) 0.01056(17) 0.00649(12) 0.00401(12) 0.00467(13)
La2 La3+ 0.00899(12) 0.01099(13) 0.00913(13) -0.00014(8) 0.00321(9) 0.00228(9)
La3 La3+ 0.00923(13) 0.01179(13) 0.00939(13) 0.00282(8) 0.00279(9) 0.00271(9)
Si1 Si4+ 0.0063(5) 0.0070(5) 0.0073(5) 0.0012(4) 0.0019(4) 0.0012(4)
Si2 Si4+ 0.0073(5) 0.0059(5) 0.0070(5) 0.0011(4) 0.0027(4) 0.0011(4)
N1 N3- 0.016(2) 0.010(2) 0.015(2) 0.0064(18) 0.0100(19) 0.0032(19)
N2 N3- 0.0117(15) 0.0123(17) 0.0078(14) 0.0029(13) 0.0023(12) 0.0035(13)
N3 N3- 0.0093(15) 0.0098(16) 0.0122(16) 0.0020(12) 0.0046(13) 0.0010(13)
N4 N3- 0.0093(15) 0.0234(19) 0.0077(15) 0.0049(13) 0.0035(12) 0.0054(14)
N5 N3- 0.0136(16) 0.0087(16) 0.0148(17) -0.0040(13) 0.0017(13) 0.0008(13)
N6 N3- 0.0229(17) 0.0127(16) 0.0219(17) -0.0006(13) 0.0156(14) 0.0030(13)
O1 O2- 0.0229(17) 0.0127(16) 0.0219(17) -0.0006(13) 0.0156(14) 0.0030(13)
#End of TTdata_423470-ICSD