
#(C) 2018 by FIZ Karlsruhe - Leibniz Institute for Information Infrastructure.  All rights reserved.
data_424896-ICSD
_database_code_ICSD 424896
_audit_creation_date 2017-08-01
_chemical_name_systematic 'Lithium-1.2 zinc-1.8 octaoxo-trimolybdate(III/IV)'
_chemical_formula_structural '(Li1.2 Zn1.8) Mo3 O8'
_chemical_formula_sum 'Li1.2 Mo3 O8 Zn1.8'
_exptl_crystal_density_diffrn 5.98
_cell_measurement_temperature 12.
_publ_section_title

;
Possible valence-bond condensation in the frustrated cluster magnet LiZn2Mo3O8
;
loop_
_citation_id
_citation_journal_full
_citation_year
_citation_journal_volume
_citation_page_first
_citation_page_last
_citation_journal_id_ASTM
primary 'Nature Materials' 2012 11 493 496 NMAACR
loop_
_publ_author_name
'Sheckelton, J.P.'
'Neilson, J.R.'
'Soltan, D.G.'
'McQueen, T.M.'
_cell_length_a 5.7956(3)
_cell_length_b 5.7956(3)
_cell_length_c 31.0399(3)
_cell_angle_alpha 90
_cell_angle_beta 90
_cell_angle_gamma 120
_cell_volume 902.92
_cell_formula_units_Z 6
_symmetry_space_group_name_H-M 'R -3 m H'
_symmetry_Int_Tables_number 166
_refine_ls_R_factor_all 0.0445
loop_
_symmetry_equiv_pos_site_id
_symmetry_equiv_pos_as_xyz
1 'x-y, -y, -z'
2 '-x, -x+y, -z'
3 'y, x, -z'
4 'x-y, x, -z'
5 'y, -x+y, -z'
6 '-x, -y, -z'
7 '-x+y, y, z'
8 'x, x-y, z'
9 '-y, -x, z'
10 '-x+y, -x, z'
11 '-y, x-y, z'
12 'x, y, z'
13 'x-y+2/3, -y+1/3, -z+1/3'
14 '-x+2/3, -x+y+1/3, -z+1/3'
15 'y+2/3, x+1/3, -z+1/3'
16 'x-y+2/3, x+1/3, -z+1/3'
17 'y+2/3, -x+y+1/3, -z+1/3'
18 '-x+2/3, -y+1/3, -z+1/3'
19 '-x+y+2/3, y+1/3, z+1/3'
20 'x+2/3, x-y+1/3, z+1/3'
21 '-y+2/3, -x+1/3, z+1/3'
22 '-x+y+2/3, -x+1/3, z+1/3'
23 '-y+2/3, x-y+1/3, z+1/3'
24 'x+2/3, y+1/3, z+1/3'
25 'x-y+1/3, -y+2/3, -z+2/3'
26 '-x+1/3, -x+y+2/3, -z+2/3'
27 'y+1/3, x+2/3, -z+2/3'
28 'x-y+1/3, x+2/3, -z+2/3'
29 'y+1/3, -x+y+2/3, -z+2/3'
30 '-x+1/3, -y+2/3, -z+2/3'
31 '-x+y+1/3, y+2/3, z+2/3'
32 'x+1/3, x-y+2/3, z+2/3'
33 '-y+1/3, -x+2/3, z+2/3'
34 '-x+y+1/3, -x+2/3, z+2/3'
35 '-y+1/3, x-y+2/3, z+2/3'
36 'x+1/3, y+2/3, z+2/3'
loop_
_atom_type_symbol
_atom_type_oxidation_number
Mo3+ 3.733
O2- -2
Zn2+ 2
Li1+ 1
Zn2+ 2
Li1+ 1
Zn2+ 2
Li1+ 1
loop_
_atom_site_label
_atom_site_type_symbol
_atom_site_symmetry_multiplicity
_atom_site_Wyckoff_symbol
_atom_site_fract_x
_atom_site_fract_y
_atom_site_fract_z
_atom_site_B_iso_or_equiv
_atom_site_occupancy
_atom_site_attached_hydrogens
Mo1 Mo3+ 18 h 0.18573(7) 0.81428(7) 0.08401(4) 0.0033(1) 1. 0
O1 O2- 18 h 0.84500(9) 0.15498(9) 0.04766(3) 0.0012(1) 1. 0
O2 O2- 18 h 0.49217(10) 0.50783(10) 0.12404(3) 0.0060(1) 1. 0
O3 O2- 6 c 0. 0. 0.11820(7) 0.0052(2) 1. 0
O4 O2- 6 c 0. 0. 0.37178(6) 0.0029(2) 1. 0
Zn1 Zn2+ 6 c 0.3333 0.6667 -0.64148(6) 0.0014(1) 0.901(4) 0
Zn2 Zn2+ 6 c 0. 0. 0.18132(9) 0.0014(1) 0.716(4) 0
Li1 Li1+ 6 c 0.3333 0.6667 -0.64148(6) 0.0014(1) 0.099(4) 0
Zn3 Zn2+ 3 a 0. 0. 0. 0.0014(1) 0.230(7) 0
Li2 Li1+ 6 c 0. 0. 0.18132(9) 0.0014(1) 0.284(4) 0
Zn4 Zn2+ 3 b 0. 0. 0.5 0.0014(1) 0.143(6) 0
Li3 Li1+ 3 a 0. 0. 0. 0.0014(1) 0.774(7) 0
Li4 Li1+ 3 b 0. 0. 0.5 0.0014(1) 0.857(6) 0
#End of TTdata_424896-ICSD