
#(C) 2018 by FIZ Karlsruhe - Leibniz Institute for Information Infrastructure.  All rights reserved.
data_425174-ICSD
_database_code_ICSD 425174
_audit_creation_date 2015-02-01
_chemical_name_systematic 'Lithium bis(sulfato)borate'
_chemical_formula_structural 'Li (B (S O4)2)'
_chemical_formula_sum 'B1 Li1 O8 S2'
_exptl_crystal_density_diffrn 2.32
_cell_measurement_temperature 293.
_publ_section_title

;
Exploring a new structure family: Alkali borosulfates Na5[B(SO4)4],
A3[B(SO4)3] (A = K, Rb), Li[B(SO4)2], and Li[B(S2O7)2]
;
loop_
_citation_id
_citation_journal_full
_citation_year
_citation_journal_volume
_citation_page_first
_citation_page_last
_citation_journal_id_ASTM
primary 'Inorganic Chemistry' 2013 52 6011 6020 INOCAJ
loop_
_publ_author_name
'Daub, Michael'
'Kazmierczak, Karolina'
'Gross, Peter'
'Hoeppe, Henning'
'Hillebrecht, Harald'
_cell_length_a 7.6353(15)
_cell_length_b 9.3424(19)
_cell_length_c 8.4324(17)
_cell_angle_alpha 90.
_cell_angle_beta 92.55(3)
_cell_angle_gamma 90.
_cell_volume 600.9
_cell_formula_units_Z 4
_symmetry_space_group_name_H-M 'P 1 c 1'
_symmetry_Int_Tables_number 7
_refine_ls_R_factor_all 0.0278
loop_
_symmetry_equiv_pos_site_id
_symmetry_equiv_pos_as_xyz
1 'x, -y, z+1/2'
2 'x, y, z'
loop_
_atom_type_symbol
_atom_type_oxidation_number
S6+ 6
O2- -2
S6+ 6
O2- -2
S6+ 6
O2- -2
S6+ 6
O2- -2
B3+ 3
Li1+ 1
loop_
_atom_site_label
_atom_site_type_symbol
_atom_site_symmetry_multiplicity
_atom_site_Wyckoff_symbol
_atom_site_fract_x
_atom_site_fract_y
_atom_site_fract_z
_atom_site_B_iso_or_equiv
_atom_site_occupancy
_atom_site_attached_hydrogens
S1 S6+ 2 a 0.57233(10) 0.62231(8) 0.51316(9) 0.01198(16) 1 0
O1 O2- 2 a 0.5732(3) 0.6770(3) 0.6712(3) 0.0198(5) 1 0
O2 O2- 2 a 0.6924(3) 0.5099(3) 0.4831(4) 0.0248(6) 1 0
S2 S6+ 2 a 0.11959(9) 0.61194(8) 0.82086(8) 0.01157(16) 1 0
O3 O2- 2 a 0.2341(4) 0.7083(3) 0.9058(3) 0.0236(5) 1 0
O4 O2- 2 a -0.0495(3) 0.6645(3) 0.7729(3) 0.0228(6) 1 0
S3 S6+ 2 a -0.35396(10) 0.94272(8) 1.09768(8) 0.01402(17) 1 0
O5 O2- 2 a -0.5362(4) 0.9669(4) 1.0618(4) 0.0294(6) 1 0
O6 O2- 2 a -0.2826(4) 0.8133(3) 1.0402(3) 0.0280(7) 1 0
S4 S6+ 2 a 0.08570(10) 0.16117(8) 0.87863(9) 0.01346(16) 1 0
O7 O2- 2 a 0.0875(4) 0.0151(3) 0.9253(4) 0.0235(6) 1 0
O8 O2- 2 a 0.1633(4) 0.1962(3) 0.7332(3) 0.0283(7) 1 0
O9 O2- 2 a 0.3903(3) 0.5712(3) 0.4589(3) 0.0167(5) 1 0
O10 O2- 2 a 0.5951(3) 0.7443(2) 0.3956(3) 0.0166(5) 1 0
O11 O2- 2 a 0.2141(3) 0.5513(2) 0.6812(3) 0.0161(5) 1 0
O12 O2- 2 a 0.0906(3) 0.4777(3) 0.9188(3) 0.0142(5) 1 0
O13 O2- 2 a -0.3154(4) 1.0421(3) 0.7756(3) 0.0208(5) 1 0
O14 O2- 2 a -0.2479(3) 1.0708(2) 1.0467(3) 0.0147(5) 1 0
O15 O2- 2 a 0.1736(3) 0.7543(3) 0.5146(3) 0.0172(5) 1 0
O16 O2- 2 a -0.1005(3) 0.2194(3) 0.8694(3) 0.0196(5) 1 0
B1 B3+ 2 a 0.2175(5) 0.6009(4) 0.5187(4) 0.0130(6) 1 0
B2 B3+ 2 a -0.2656(5) 1.1468(4) 0.8978(4) 0.0122(6) 1 0
Li1 Li1+ 2 a -0.7624(8) 0.8767(7) 1.0344(7) 0.0212(13) 1 0
Li2 Li1+ 2 a 0.7216(9) 0.3311(7) 0.3694(8) 0.0231(13) 1 0
loop_
_atom_site_aniso_label
_atom_site_aniso_type_symbol
_atom_site_aniso_U_11
_atom_site_aniso_U_22
_atom_site_aniso_U_33
_atom_site_aniso_U_12
_atom_site_aniso_U_13
_atom_site_aniso_U_23
S1 S6+ 0.0105(3) 0.0128(3) 0.0128(3) -0.0013(3) 0.0015(3) 0.0002(3)
O1 O2- 0.0204(12) 0.0268(14) 0.0121(11) -0.0044(9) -0.0007(10) 0.0012(9)
O2 O2- 0.0215(12) 0.0151(12) 0.0380(16) 0.0040(9) 0.0031(12) -0.0024(11)
S2 S6+ 0.0134(3) 0.0119(3) 0.0095(3) 0.0025(3) 0.0027(3) 0.0011(3)
O3 O2- 0.0310(14) 0.0186(12) 0.0212(12) -0.0042(10) 0.0003(11) -0.0070(10)
O4 O2- 0.0183(12) 0.0295(14) 0.0209(12) 0.0098(10) 0.0043(11) 0.0099(10)
S3 S6+ 0.0198(4) 0.0117(3) 0.0106(3) -0.0023(3) 0.0014(3) 0.0007(3)
O5 O2- 0.0181(12) 0.0362(16) 0.0338(15) -0.0079(11) -0.0006(12) 0.0071(12)
O6 O2- 0.0487(18) 0.0172(13) 0.0178(12) 0.0045(11) -0.0015(13) -0.0050(10)
S4 S6+ 0.0126(3) 0.0132(3) 0.0148(3) 0.0000(3) 0.0028(3) -0.0024(3)
O7 O2- 0.0218(12) 0.0111(11) 0.0374(15) 0.0033(9) -0.0012(12) -0.0024(10)
O8 O2- 0.0292(14) 0.0409(17) 0.0159(12) -0.0046(12) 0.0119(12) -0.0088(11)
O9 O2- 0.0118(11) 0.0224(12) 0.0163(10) -0.0066(8) 0.0053(9) -0.0057(9)
O10 O2- 0.0192(11) 0.0178(12) 0.0129(10) -0.0064(9) 0.0014(9) 0.0023(9)
O11 O2- 0.0210(11) 0.0186(11) 0.0091(10) 0.0055(9) 0.0048(9) 0.0012(8)
O12 O2- 0.0114(10) 0.0177(11) 0.0136(10) -0.0006(8) 0.0016(9) 0.0057(8)
O13 O2- 0.0401(15) 0.0138(11) 0.0087(10) -0.0024(10) 0.0022(11) -0.0018(8)
O14 O2- 0.0178(11) 0.0147(10) 0.0117(10) -0.0029(8) 0.0003(9) 0.0019(8)
O15 O2- 0.0225(12) 0.0130(11) 0.0159(11) 0.0000(9) -0.0020(10) -0.0010(8)
O16 O2- 0.0118(10) 0.0142(11) 0.0331(13) 0.0005(9) 0.0034(10) 0.0076(10)
B1 B3+ 0.0144(15) 0.0150(15) 0.0097(14) -0.0021(12) 0.0030(13) -0.0002(12)
B2 B3+ 0.0139(15) 0.0103(14) 0.0127(14) -0.0005(11) 0.0026(13) 0.0002(12)
Li1 Li1+ 0.021(3) 0.026(3) 0.017(3) -0.007(2) 0.008(2) -0.006(2)
Li2 Li1+ 0.029(3) 0.021(3) 0.020(3) 0.002(2) 0.005(3) 0.003(2)
#End of TTdata_425174-ICSD