
#(C) 2018 by FIZ Karlsruhe - Leibniz Institute for Information Infrastructure.  All rights reserved.
data_425286-ICSD
_database_code_ICSD 425286
_audit_creation_date 2014-08-01
_chemical_name_systematic 'Dilithium tin(II) octaoxotrimolybdate(IV)'
_chemical_formula_structural 'Li2 Sn Mo3 O8'
_chemical_formula_sum 'Li2 Mo3 O8 Sn1'
_exptl_crystal_density_diffrn 6.07
_cell_measurement_temperature 293.
_publ_section_title

;
Synthesis, crystal and electronic structures and magnetic properties of
Li2SnMo3O8: A novel reduced molybdenum oxide containing Mo3O13 cluster units
;
loop_
_citation_id
_citation_journal_full
_citation_year
_citation_journal_volume
_citation_page_first
_citation_page_last
_citation_journal_id_ASTM
primary 'Journal of Solid State Chemistry' 2013 201 312 316 JSSCBI
loop_
_publ_author_name
'Gall, Philippe'
'Al Rahal Al Orabi, Rabih'
'Guizouarn, Thierry'
'Cuny, Jerome'
'Fontaine, Bruno'
'Gautier, Regis'
'Gougeon, Patrick'
_cell_length_a 5.7720(2)
_cell_length_b 5.7720(2)
_cell_length_c 10.3941(3)
_cell_angle_alpha 90.
_cell_angle_beta 90.
_cell_angle_gamma 120.
_cell_volume 299.89
_cell_formula_units_Z 2
_symmetry_space_group_name_H-M 'P 63 m c'
_symmetry_Int_Tables_number 186
_refine_ls_R_factor_all 0.0354
loop_
_symmetry_equiv_pos_site_id
_symmetry_equiv_pos_as_xyz
1 '-x, -x+y, z+1/2'
2 'x-y, -y, z+1/2'
3 'y, x, z+1/2'
4 'x-y, x, z+1/2'
5 'y, -x+y, z+1/2'
6 '-x, -y, z+1/2'
7 'x, x-y, z'
8 '-x+y, y, z'
9 '-y, -x, z'
10 '-x+y, -x, z'
11 '-y, x-y, z'
12 'x, y, z'
loop_
_atom_type_symbol
_atom_type_oxidation_number
Li1+ 1
Sn2+ 2
Mo4+ 4
O2- -2
loop_
_atom_site_label
_atom_site_type_symbol
_atom_site_symmetry_multiplicity
_atom_site_Wyckoff_symbol
_atom_site_fract_x
_atom_site_fract_y
_atom_site_fract_z
_atom_site_B_iso_or_equiv
_atom_site_occupancy
_atom_site_attached_hydrogens
Li1 Li1+ 2 a 0. 0. -0.5852(16) 0.0013(19) 1 0
Li2 Li1+ 2 b -0.3333 0.3333 -0.5041(18) 0.0013(19) 1 0
Sn1 Sn2+ 2 b -0.3333 0.3333 -0.09318(5) 0.00609(11) 1 0
Mo1 Mo4+ 6 c -0.37749(8) -0.18875(4) -0.30946(7) 0.00439(7) 1 0
O1 O2- 6 c -0.4840(4) 0.4840(4) -0.9463(5) 0.0059(6) 1 0
O2 O2- 6 c -0.1606(4) 0.1606(4) -0.1959(5) 0.0058(6) 1 0
O3 O2- 2 a 0. 0. -0.4000(7) 0.0069(11) 1 0
O4 O2- 2 b -0.3333 0.3333 -0.6737(9) 0.0096(14) 1 0
loop_
_atom_site_aniso_label
_atom_site_aniso_type_symbol
_atom_site_aniso_U_11
_atom_site_aniso_U_22
_atom_site_aniso_U_33
_atom_site_aniso_U_12
_atom_site_aniso_U_13
_atom_site_aniso_U_23
Sn1 Sn2+ 0.00648(14) 0.00648(14) 0.0053(2) 0.00324(7) 0. 0.
Mo1 Mo4+ 0.00448(13) 0.00448(11) 0.00422(14) 0.00224(7) -0.00036(15) -0.00018(8)
O1 O2- 0.0047(9) 0.0047(9) 0.0063(14) 0.0008(11) -0.0004(7) 0.0004(7)
O2 O2- 0.0058(10) 0.0058(10) 0.0057(16) 0.0027(12) 0.0007(6) -0.0007(6)
O3 O2- 0.0080(16) 0.0080(16) 0.005(3) 0.0040(8) 0. 0.
O4 O2- 0.0097(18) 0.0097(18) 0.009(3) 0.0049(9) 0. 0.
#End of TTdata_425286-ICSD