
#(C) 2018 by FIZ Karlsruhe - Leibniz Institute for Information Infrastructure.  All rights reserved.
data_425893-ICSD
_database_code_ICSD 425893
_audit_creation_date 2018-02-01
_chemical_name_systematic 'Lithium europium(III) tetramolybdate(VI)'
_chemical_formula_structural 'Li3.5 Eu1.5 (Mo O4)4'
_chemical_formula_sum 'Eu1.5 Li3.5 Mo4 O16'
_chemical_name_structure_type Li7Ho3(MoO4)8
_exptl_crystal_density_diffrn 4.63
_cell_measurement_temperature 293.
_publ_section_title

;
Solid solution between lithium-rich yttrium and europium molybdate as new
efficient red-emitting phosphors
;
loop_
_citation_id
_citation_journal_full
_citation_year
_citation_journal_volume
_citation_page_first
_citation_page_last
_citation_journal_id_ASTM
primary

;
Journal of Materials Chemistry C: Materials for Optical and Electronic Devices
; 2016 4 596 602 JMCCCX
loop_
_publ_author_name
'Litterscheid, C.'
'Krueger, S.'
'Euler, M.'
'Dreizler, A.'
'Wickleder, C.'
'Albert, B.'
_cell_length_a 5.2279(2)
_cell_length_b 6.7346(2)
_cell_length_c 10.3243(3)
_cell_angle_alpha 100.106(2)
_cell_angle_beta 100.457(2)
_cell_angle_gamma 111.840(2)
_cell_volume 319.83
_cell_formula_units_Z 1
_symmetry_space_group_name_H-M 'P -1'
_symmetry_Int_Tables_number 2
_refine_ls_R_factor_all 0.0357
loop_
_symmetry_equiv_pos_site_id
_symmetry_equiv_pos_as_xyz
1 '-x, -y, -z'
2 'x, y, z'
loop_
_atom_type_symbol
_atom_type_oxidation_number
Li1+ 1
Eu3+ 3
Mo6+ 6
O2- -2
loop_
_atom_site_label
_atom_site_type_symbol
_atom_site_symmetry_multiplicity
_atom_site_Wyckoff_symbol
_atom_site_fract_x
_atom_site_fract_y
_atom_site_fract_z
_atom_site_B_iso_or_equiv
_atom_site_occupancy
_atom_site_attached_hydrogens
Li1 Li1+ 1 a 0 0 0 0.051(4) 1 0
Li2 Li1+ 2 i 0.845(3) 0.414(3) 0.1244(17) 0.064(4) 1 0
Li3 Li1+ 2 i 0.12000(5) 0.77165(4) 0.43947(2) 0.00658(12) 0.25 0
Eu1 Eu3+ 2 i 0.12000(5) 0.77165(4) 0.43947(2) 0.00658(12) 0.75 0
Mo1 Mo6+ 2 i 0.33378(7) 0.29986(5) 0.31819(3) 0.00739(12) 1 0
Mo2 Mo6+ 2 i 0.41800(8) 0.15523(6) 0.80289(4) 0.00927(13) 1 0
O1 O2- 2 i 0.1199(6) 0.1173(5) 0.4045(3) 0.0100(6) 1 0
O2 O2- 2 i 0.3073(6) 0.5648(5) 0.5734(3) 0.0130(6) 1 0
O3 O2- 2 i 0.3560(7) 0.1756(5) 0.1615(3) 0.0162(7) 1 0
O4 O2- 2 i 0.1913(7) 0.4946(5) 0.2914(3) 0.0121(6) 1 0
O5 O2- 2 i 0.2697(8) 0.6898(5) 0.0687(3) 0.0198(7) 1 0
O6 O2- 2 i 0.2332(7) 0.3265(5) 0.7766(3) 0.0155(6) 1 0
O7 O2- 2 i 0.7992(7) 0.0555(6) 0.1368(3) 0.0167(7) 1 0
O8 O2- 2 i 0.4813(6) 0.0453(5) 0.6440(3) 0.0113(6) 1 0
loop_
_atom_site_aniso_label
_atom_site_aniso_type_symbol
_atom_site_aniso_U_11
_atom_site_aniso_U_22
_atom_site_aniso_U_33
_atom_site_aniso_U_12
_atom_site_aniso_U_13
_atom_site_aniso_U_23
Li3 Li1+ 0.00713(18) 0.00616(17) 0.00625(18) 0.00234(12) 0.00254(12) 0.00138(12)
Eu1 Eu3+ 0.00713(18) 0.00616(17) 0.00625(18) 0.00234(12) 0.00254(12) 0.00138(12)
Mo1 Mo6+ 0.0070(2) 0.0086(2) 0.0072(2) 0.00296(16) 0.00313(16) 0.00310(15)
Mo2 Mo6+ 0.0102(2) 0.0126(2) 0.0057(2) 0.00530(16) 0.00306(15) 0.00180(14)
O1 O2- 0.0104(14) 0.0083(13) 0.0127(15) 0.0039(11) 0.0062(12) 0.0036(11)
O2 O2- 0.0126(15) 0.0124(14) 0.0124(15) 0.0034(12) 0.0030(12) 0.0038(12)
O3 O2- 0.0139(16) 0.0215(16) 0.0125(15) 0.0098(14) 0.0027(12) -0.0020(13)
O4 O2- 0.0151(16) 0.0117(13) 0.0120(15) 0.0073(12) 0.0047(12) 0.0039(11)
O5 O2- 0.0169(17) 0.0231(17) 0.0104(15) 0.0006(14) 0.0004(13) 0.0031(13)
O6 O2- 0.0200(17) 0.0156(15) 0.0153(16) 0.0114(13) 0.0051(13) 0.0055(12)
O7 O2- 0.0162(17) 0.0229(16) 0.0177(16) 0.0102(14) 0.0102(14) 0.0107(13)
O8 O2- 0.0096(15) 0.0126(14) 0.0096(14) 0.0026(12) 0.0043(12) 0.0006(11)
#End of TTdata_425893-ICSD