
#(C) 2017 by FIZ Karlsruhe - Leibniz Institute for Information Infrastructure.  All rights reserved.
data_425923-ICSD
_database_code_ICSD 425923
_audit_creation_date 2014-08-01
_chemical_name_systematic 'Dilithium hexafluorosilicate'
_chemical_formula_structural 'Li2 Si F6'
_chemical_formula_sum 'F6 Li2 Si1'
_chemical_name_structure_type Na2SiF6
_exptl_crystal_density_diffrn 2.91
_cell_measurement_temperature 293.
_publ_section_title

;
Pressure-supported crystal growth and single-crystal structure determination
of Li2SiF6
;
loop_
_citation_id
_citation_journal_full
_citation_year
_citation_journal_volume
_citation_page_first
_citation_page_last
_citation_journal_id_ASTM
primary 'Zeitschrift fuer Kristallographie - Crystalline Materials' 2014 229 77
82 ZKCMAJ
loop_
_publ_author_name
'Hinteregger, Ernst'
'Wurst, Klaus'
'Niederwieser, Niklas'
'Heymann, Gunter'
'Huppertz, Hubert'
_cell_length_a 8.2190(12)
_cell_length_b 8.2190(12)
_cell_length_c 4.5580(9)
_cell_angle_alpha 90.
_cell_angle_beta 90.
_cell_angle_gamma 120.
_cell_volume 266.65
_cell_formula_units_Z 3
_symmetry_space_group_name_H-M 'P 3 2 1'
_symmetry_Int_Tables_number 150
_refine_ls_R_factor_all 0.0171
loop_
_symmetry_equiv_pos_site_id
_symmetry_equiv_pos_as_xyz
1 'x-y, -y, -z'
2 '-x, -x+y, -z'
3 'y, x, -z'
4 '-x+y, -x, z'
5 '-y, x-y, z'
6 'x, y, z'
loop_
_atom_type_symbol
_atom_type_oxidation_number
Li1+ 1
Si4+ 4
F1- -1
loop_
_atom_site_label
_atom_site_type_symbol
_atom_site_symmetry_multiplicity
_atom_site_Wyckoff_symbol
_atom_site_fract_x
_atom_site_fract_y
_atom_site_fract_z
_atom_site_B_iso_or_equiv
_atom_site_occupancy
_atom_site_attached_hydrogens
Li1 Li1+ 3 f 0.2945(5) 0. 0.5 0.0174(6) 1 0
Li2 Li1+ 3 e 0.6287(5) 0. 0. 0.0219(7) 1 0
Si1 Si4+ 1 a 0. 0. 0. 0.00760(12) 1 0
Si2 Si4+ 2 d 0.3333 0.6667 0.48386(11) 0.00802(9) 1 0
F1 F1- 6 g 0.10264(15) 0.19483(14) 0.20983(18) 0.01300(16) 1 0
F2 F1- 6 g 0.13907(14) 0.55790(15) 0.27190(14) 0.01288(18) 1 0
F3 F1- 6 g 0.47175(11) 0.24523(13) 0.30507(19) 0.01200(14) 1 0
loop_
_atom_site_aniso_label
_atom_site_aniso_type_symbol
_atom_site_aniso_U_11
_atom_site_aniso_U_22
_atom_site_aniso_U_33
_atom_site_aniso_U_12
_atom_site_aniso_U_13
_atom_site_aniso_U_23
Li1 Li1+ 0.0166(9) 0.0108(13) 0.0229(16) 0.0054(6) -0.0003(7) -0.0006(14)
Li2 Li1+ 0.0214(11) 0.0254(18) 0.0202(13) 0.0127(9) 0.0018(7) 0.0036(15)
Si1 Si4+ 0.00691(16) 0.00691(16) 0.0090(2) 0.00346(8) 0. 0.
Si2 Si4+ 0.00759(12) 0.00759(12) 0.00888(16) 0.00379(6) 0. 0.
F1 F1- 0.0122(4) 0.0104(4) 0.0147(3) 0.0044(4) -0.0028(5) -0.0048(3)
F2 F1- 0.0091(4) 0.0154(5) 0.0128(3) 0.0052(4) -0.0031(2) -0.0026(4)
F3 F1- 0.0097(3) 0.0129(4) 0.0132(2) 0.0055(4) -0.0032(3) -0.0014(4)
#End of TTdata_425923-ICSD