
#(C) 2018 by FIZ Karlsruhe - Leibniz Institute for Information Infrastructure.  All rights reserved.
data_426198-ICSD
_database_code_ICSD 426198
_audit_creation_date 2015-02-01
_chemical_name_systematic 'Lithium magnesium phosphate fluoride'
_chemical_formula_structural 'Li2 Mg (P O4) F'
_chemical_formula_sum 'F1 Li2 Mg1 O4 P1'
_chemical_name_structure_type Li2NiFPO4
_exptl_crystal_density_diffrn 2.8
_cell_measurement_temperature 293.
_publ_section_title

;
Crystal structures of the new fluorophosphates Li9 Mg3 [P O4]4 F3 and Li2 Mg
[P O4] F and ionic conductivities of selected compositions
;
loop_
_citation_id
_citation_journal_full
_citation_year
_citation_journal_volume
_citation_page_first
_citation_page_last
_citation_journal_id_ASTM
primary
'Journal of Materials Chemistry A: Materials for Energy and Sustainability' 2014 2 5858 5869 JMCAET
loop_
_publ_author_name
'Yahia, Hamdi Ben'
'Shikano, Masahiro'
'Takeuchi, Tomonari'
'Kobayashi, Hironori'
'Itoh, Mitsuru'
_cell_length_a 10.5773(8)
_cell_length_b 6.2378(5)
_cell_length_c 10.9297(9)
_cell_angle_alpha 90
_cell_angle_beta 90
_cell_angle_gamma 90
_cell_volume 721.13
_cell_formula_units_Z 8
_symmetry_space_group_name_H-M 'P n m a'
_symmetry_Int_Tables_number 62
_refine_ls_R_factor_all 0.023
loop_
_symmetry_equiv_pos_site_id
_symmetry_equiv_pos_as_xyz
1 'x+1/2, y, -z+1/2'
2 'x, -y+1/2, z'
3 '-x+1/2, y+1/2, z+1/2'
4 '-x, -y, -z'
5 '-x+1/2, -y, z+1/2'
6 '-x, y+1/2, -z'
7 'x+1/2, -y+1/2, -z+1/2'
8 'x, y, z'
loop_
_atom_type_symbol
_atom_type_oxidation_number
Li1+ 1
Mg2+ 2
Li1+ 1
P5+ 5
O2- -2
F1- -1
loop_
_atom_site_label
_atom_site_type_symbol
_atom_site_symmetry_multiplicity
_atom_site_Wyckoff_symbol
_atom_site_fract_x
_atom_site_fract_y
_atom_site_fract_z
_atom_site_B_iso_or_equiv
_atom_site_occupancy
_atom_site_attached_hydrogens
Li1 Li1+ 8 d 0.2397(2) 0.0031(4) 0.3311(3) 0.0327(9) 1 0
Li2 Li1+ 4 c 0.2682(3) 0.25 0.5832(2) 0.0140(8) 1 0
Li3 Li1+ 4 c 0.5304(2) 0.25 0.2249(2) 0.0151(6) 0.916(3) 0
Mg1 Mg2+ 4 c 0.5304(2) 0.25 0.2249(2) 0.0151(6) 0.084(3) 0
Mg2 Mg2+ 4 a 0 0 0 0.00927(17) 1 0
Mg3 Mg2+ 4 b 0 0 0.5 0.00705(18) 0.916(3) 0
Li4 Li1+ 4 b 0 0 0.5 0.00705(18) 0.084(3) 0
P1 P5+ 4 c 0.02405(4) 0.25 0.74436(3) 0.00850(13) 1 0
P2 P5+ 4 c 0.24429(3) 0.25 0.07838(3) 0.00781(13) 1 0
O1 O2- 8 d 0.18834(7) 0.04841(12) 0.01742(7) 0.0122(2) 1 0
O2 O2- 4 c 0.22005(11) 0.25 0.21616(10) 0.0146(3) 1 0
O3 O2- 4 c 0.16911(12) 0.25 0.74264(9) 0.0169(3) 1 0
O4 O2- 4 c 0.38680(10) 0.25 0.05221(9) 0.0119(3) 1 0
O5 O2- 4 c 0.47738(10) 0.25 0.62237(9) 0.0102(3) 1 0
O6 O2- 8 d 0.03073(7) 0.55180(12) 0.31982(7) 0.0134(2) 1 0
F1 F1- 4 c 0.12231(9) 0.25 0.47681(8) 0.0141(2) 1 0
F2 F1- 4 c 0.45638(9) 0.25 0.38653(8) 0.0142(3) 1 0
loop_
_atom_site_aniso_label
_atom_site_aniso_type_symbol
_atom_site_aniso_U_11
_atom_site_aniso_U_22
_atom_site_aniso_U_33
_atom_site_aniso_U_12
_atom_site_aniso_U_13
_atom_site_aniso_U_23
Li1 Li1+ 0.0382(15) 0.0345(18) 0.0253(14) 0.0087(10) 0.0047(9) 0.0079(10)
Li2 Li1+ 0.0143(13) 0.0137(14) 0.0141(13) 0 0.0017(9) 0
Li3 Li1+ 0.0266(13) 0.0043(9) 0.0145(9) 0 -0.0023(8) 0
Mg1 Mg2+ 0.0266(13) 0.0043(9) 0.0145(9) 0 -0.0023(8) 0
Mg2 Mg2+ 0.0093(3) 0.0100(3) 0.0085(3) -0.00051(19) -0.00085(15) 0.00112(15)
Mg3 Mg2+ 0.0088(3) 0.0081(3) 0.0043(3) 0.00049(19) 0.00032(15) -0.00042(15)
Li4 Li1+ 0.0088(3) 0.0081(3) 0.0043(3) 0.00049(19) 0.00032(15) -0.00042(15)
P1 P5+ 0.0110(2) 0.0091(2) 0.0055(2) 0 0.00110(11) 0
P2 P5+ 0.0067(2) 0.0087(2) 0.0080(2) 0 0.00035(11) 0
O1 O2- 0.0096(4) 0.0102(3) 0.0166(4) -0.0013(3) -0.0020(2) -0.0014(3)
O2 O2- 0.0168(6) 0.0180(5) 0.0090(5) 0 0.0023(4) 0
O3 O2- 0.0113(6) 0.0262(6) 0.0131(5) 0 0.0022(4) 0
O4 O2- 0.0081(5) 0.0106(4) 0.0171(5) 0 0.0028(4) 0
O5 O2- 0.0134(5) 0.0105(5) 0.0066(4) 0 -0.0001(3) 0
O6 O2- 0.0224(4) 0.0097(4) 0.0082(3) 0.0019(3) 0.0007(3) 0.0011(3)
F1 F1- 0.0104(5) 0.0138(4) 0.0182(4) 0 -0.0025(3) 0
F2 F1- 0.0173(5) 0.0146(4) 0.0107(4) 0 0.0001(3) 0
#End of TTdata_426198-ICSD