
#(C) 2018 by FIZ Karlsruhe - Leibniz Institute for Information Infrastructure.  All rights reserved.
data_426109-ICSD
_database_code_ICSD 426109
_audit_creation_date 2015-02-01
_chemical_name_systematic 'Lithium distrontium trihydroxodecaborate'
_chemical_formula_structural 'Li Sr2 (B10 O16 (O H)3)'
_chemical_formula_sum 'H3 B10 Li1 O19 Sr2'
_exptl_crystal_density_diffrn 2.91
_cell_measurement_temperature 293.
_publ_section_title

;
Three new mixed-alkali- and alkaline-earth-metal borates: From 1D chain to 2D
layer to 3D framework
;
loop_
_citation_id
_citation_journal_full
_citation_year
_citation_journal_volume
_citation_page_first
_citation_page_last
_citation_journal_id_ASTM
primary 'Inorganic Chemistry' 2013 52 10566 10570 INOCAJ
loop_
_publ_author_name
'Wu, Han-Qing'
'Ju, Ping'
'He, Huan'
'Yang, Bai-Feng'
'Yang, Guo-Yu'
_cell_length_a 6.6427(16)
_cell_length_b 11.005(3)
_cell_length_c 11.330(5)
_cell_angle_alpha 61.42(3)
_cell_angle_beta 72.954(19)
_cell_angle_gamma 72.434(14)
_cell_volume 682.38
_cell_formula_units_Z 2
_symmetry_space_group_name_H-M 'P -1'
_symmetry_Int_Tables_number 2
_refine_ls_R_factor_all 0.0332
loop_
_symmetry_equiv_pos_site_id
_symmetry_equiv_pos_as_xyz
1 '-x, -y, -z'
2 'x, y, z'
loop_
_atom_type_symbol
_atom_type_oxidation_number
Sr2+ 2
Li1+ 1
B3+ 3
O2- -2
H1+ 1
O2- -2
H1+ 1
O2- -2
H1+ 1
loop_
_atom_site_label
_atom_site_type_symbol
_atom_site_symmetry_multiplicity
_atom_site_Wyckoff_symbol
_atom_site_fract_x
_atom_site_fract_y
_atom_site_fract_z
_atom_site_B_iso_or_equiv
_atom_site_occupancy
_atom_site_attached_hydrogens
Sr1 Sr2+ 2 i 0.80291(5) 0.46411(4) 0.90680(3) 0.01071(10) 1 0
Sr2 Sr2+ 2 i 0.32062(5) 0.98681(4) 0.37713(3) 0.00890(10) 1 0
Li1 Li1+ 2 i 0.924(3) 0.8805(15) 0.0864(14) 0.037(5) 0.5 0
Li2 Li1+ 1 d 0.5 0. 0. 0.035(3) 1 0
B1 B3+ 2 i 0.9574(6) 0.7046(5) 0.3522(4) 0.0117(9) 1 0
B2 B3+ 2 i 0.4930(6) 0.6922(5) 0.7023(4) 0.0105(9) 1 0
B3 B3+ 2 i 0.8292(6) 0.7780(5) 0.5374(4) 0.0071(8) 1 0
B4 B3+ 2 i 0.8165(6) 0.9617(5) 0.2994(5) 0.0122(9) 1 0
B5 B3+ 2 i 0.7125(6) 1.1463(5) 0.0762(4) 0.0089(9) 1 0
B6 B3+ 2 i 1.0526(6) 1.1310(5) 0.1435(4) 0.0108(9) 1 0
B7 B3+ 2 i 0.4538(6) 0.3027(5) 0.7553(5) 0.0142(10) 1 0
B8 B3+ 2 i 0.3572(6) 0.2627(5) 0.9946(4) 0.0092(9) 1 0
B9 B3+ 2 i 0.1469(6) 0.7285(5) 0.6457(4) 0.0108(9) 1 0
B10 B3+ 2 i 0.2945(6) 0.5032(5) 0.8137(4) 0.0104(9) 1 0
O1 O2- 2 i 0.4053(4) 0.2082(3) 0.8862(3) 0.0138(6) 1 0
O2 O2- 2 i 0.7159(3) 0.9068(3) 0.4441(2) 0.0077(5) 1 0
O3 O2- 2 i 0.2169(4) 0.4033(3) 0.9471(2) 0.0089(5) 1 0
O4 O2- 2 i 0.9189(4) 1.1983(3) 0.0492(2) 0.0101(6) 1 0
O5 O2- 2 i 0.1033(4) 0.6095(3) 0.7581(2) 0.0106(6) 1 0
O6 O2- 2 i 1.0092(4) 0.8186(3) 0.5584(2) 0.0099(5) 1 0
O7 O2- 2 i 0.9143(4) 0.8397(3) 0.2597(3) 0.0139(6) 1 0
O8 O2- 2 i 0.4138(4) 0.4443(3) 0.7157(3) 0.0157(6) 1 0
O9 O2- 2 i 0.3481(4) 0.7649(3) 0.6112(2) 0.0107(6) 1 0
O10 O2- 2 i 0.2522(4) 0.1600(3) 1.1187(2) 0.0118(6) 1 0
O11 O2- 2 i 0.9176(4) 0.6673(3) 0.4891(2) 0.0125(6) 1 0
O12 O2- 2 i 0.4363(4) 0.5805(3) 0.8226(2) 0.0117(6) 1 0
O13 O2- 2 i 0.5561(4) 1.2724(3) 0.0162(2) 0.0091(5) 1 0
O14 O2- 2 i 1.0459(5) 0.6005(3) 0.3053(3) 0.0188(6) 1 0
H1 H1+ 2 i 1.054 0.5227 0.3706 0.028 1 0
O15 O2- 2 i 0.6902(4) 0.7214(3) 0.6728(2) 0.0103(6) 1 0
O16 O2- 2 i 0.9975(4) 1.0299(3) 0.2712(3) 0.0132(6) 1 0
O17 O2- 2 i 0.7641(4) 1.0539(3) 0.0040(3) 0.0159(6) 1 0
H2 H1+ 2 i 0.804 1.0993 -0.0779 0.024 1 0
O18 O2- 2 i 0.6540(4) 1.0609(3) 0.2205(2) 0.0112(6) 1 0
O19 O2- 2 i 0.5481(5) 0.2506(3) 0.6565(3) 0.0249(7) 1 0
H3 H1+ 2 i 0.5647 0.3167 0.5808 0.037 1 0
loop_
_atom_site_aniso_label
_atom_site_aniso_type_symbol
_atom_site_aniso_U_11
_atom_site_aniso_U_22
_atom_site_aniso_U_33
_atom_site_aniso_U_12
_atom_site_aniso_U_13
_atom_site_aniso_U_23
Sr1 Sr2+ 0.00876(18) 0.0130(2) 0.01246(19) -0.00338(14) -0.00356(14)
-0.00534(17)
Sr2 Sr2+ 0.00703(17) 0.0104(2) 0.01075(19) -0.00139(14) -0.00368(13)
-0.00462(16)
Li1 Li1+ 0.083(13) 0.009(8) 0.012(7) 0.018(8) -0.018(8) -0.009(7)
Li2 Li1+ 0.037(6) 0.020(6) 0.051(8) 0.000(5) -0.024(6) -0.012(6)
B1 B3+ 0.009(2) 0.018(3) 0.013(2) -0.0045(18) -0.0014(17) -0.010(2)
B2 B3+ 0.012(2) 0.012(2) 0.011(2) -0.0048(18) -0.0022(17) -0.006(2)
B3 B3+ 0.0070(19) 0.008(2) 0.008(2) -0.0018(16) -0.0025(15) -0.0038(18)
B4 B3+ 0.008(2) 0.012(2) 0.018(2) -0.0029(17) -0.0034(17) -0.007(2)
B5 B3+ 0.0076(11) 0.0097(12) 0.0103(12) -0.0030(9) -0.0027(8) -0.0037(9)
B6 B3+ 0.010(2) 0.013(2) 0.012(2) -0.0031(18) -0.0047(17) -0.006(2)
B7 B3+ 0.008(2) 0.020(3) 0.022(3) -0.0028(18) -0.0034(18) -0.013(2)
B8 B3+ 0.0094(19) 0.009(2) 0.012(2) -0.0017(17) -0.0082(16) -0.0030(19)
B9 B3+ 0.011(2) 0.015(2) 0.013(2) -0.0039(18) -0.0023(17) -0.009(2)
B10 B3+ 0.0081(19) 0.012(2) 0.012(2) -0.0061(17) -0.0007(16) -0.005(2)
O1 O2- 0.0170(13) 0.0123(15) 0.0179(15) 0.0020(11) -0.0103(11) -0.0097(13)
O2 O2- 0.0060(12) 0.0089(14) 0.0088(13) -0.0016(10) -0.0024(10) -0.0035(12)
O3 O2- 0.0068(12) 0.0090(14) 0.0094(13) -0.0012(10) -0.0029(10) -0.0021(12)
O4 O2- 0.0073(12) 0.0130(15) 0.0122(13) -0.0043(10) -0.0027(10) -0.0052(12)
O5 O2- 0.0065(12) 0.0114(14) 0.0130(13) -0.0022(10) -0.0050(10) -0.0025(12)
O6 O2- 0.0091(12) 0.0104(14) 0.0109(13) -0.0036(10) -0.0065(10) -0.0015(12)
O7 O2- 0.0189(14) 0.0106(15) 0.0110(14) -0.0005(11) -0.0036(11) -0.0045(12)
O8 O2- 0.0196(14) 0.0149(16) 0.0122(14) -0.0020(12) -0.0006(11) -0.0076(13)
O9 O2- 0.0061(12) 0.0114(14) 0.0118(13) -0.0032(10) -0.0056(10) 0.0004(12)
O10 O2- 0.0095(12) 0.0138(15) 0.0108(13) -0.0043(11) -0.0073(10) 0.0001(12)
O11 O2- 0.0194(14) 0.0099(14) 0.0107(14) -0.0012(11) -0.0059(11) -0.0054(12)
O12 O2- 0.0108(12) 0.0123(15) 0.0134(14) -0.0069(11) -0.0047(10) -0.0023(12)
O13 O2- 0.0090(12) 0.0087(14) 0.0103(13) -0.0018(10) -0.0068(10) -0.0018(12)
O14 O2- 0.0304(16) 0.0143(15) 0.0139(14) -0.0029(13) -0.0039(13) -0.0085(13)
O15 O2- 0.0067(12) 0.0155(15) 0.0093(13) -0.0044(11) -0.0022(10) -0.0040(12)
O16 O2- 0.0101(12) 0.0170(15) 0.0133(14) -0.0057(11) -0.0067(10) -0.0026(13)
O17 O2- 0.0139(13) 0.0188(16) 0.0205(15) -0.0013(12) -0.0056(12) -0.0124(14)
O18 O2- 0.0080(12) 0.0123(14) 0.0112(13) -0.0047(11) -0.0039(10) -0.0005(12)
O19 O2- 0.0345(17) 0.0221(18) 0.0195(16) -0.0050(14) 0.0015(14) -0.0138(15)
#End of TTdata_426109-ICSD