
#(C) 2018 by FIZ Karlsruhe - Leibniz Institute for Information Infrastructure.  All rights reserved.
data_427432-ICSD
_database_code_ICSD 427432
_audit_creation_date 2015-02-01
_chemical_name_systematic 'Trilithium lanthanum diarsenide'
_chemical_formula_structural 'Li3 La As2'
_chemical_formula_sum 'As2 La1 Li3'
_chemical_name_structure_type Li3LaSb2
_exptl_crystal_density_diffrn 4.4
_cell_measurement_temperature 293.
_publ_section_title

;
Structure and solid-state NMR spectroscopy of the ternary pnictides Li3 La X2
(X = P, As, Sb, Bi)
;
loop_
_citation_id
_citation_journal_full
_citation_year
_citation_journal_volume
_citation_page_first
_citation_page_last
_citation_journal_id_ASTM
primary 'Monatshefte fuer Chemie' 2014 145 1381 1387 MOCMB7
loop_
_publ_author_name
'Winter, Florian'
'Dupke, Sven'
'Eckert, Hellmut'
'Poettgen, Rainer'
_cell_length_a 4.3568(6)
_cell_length_b 4.3568(6)
_cell_length_c 7.108(1)
_cell_angle_alpha 90.
_cell_angle_beta 90.
_cell_angle_gamma 120.
_cell_volume 116.85
_cell_formula_units_Z 1
_symmetry_space_group_name_H-M 'P -3 m 1'
_symmetry_Int_Tables_number 164
_refine_ls_R_factor_all 0.046
loop_
_symmetry_equiv_pos_site_id
_symmetry_equiv_pos_as_xyz
1 'x-y, -y, -z'
2 '-x, -x+y, -z'
3 'y, x, -z'
4 'x-y, x, -z'
5 'y, -x+y, -z'
6 '-x, -y, -z'
7 '-x+y, y, z'
8 'x, x-y, z'
9 '-y, -x, z'
10 '-x+y, -x, z'
11 '-y, x-y, z'
12 'x, y, z'
loop_
_atom_type_symbol
_atom_type_oxidation_number
La3+ 3
Li1+ 1
As3- -3
loop_
_atom_site_label
_atom_site_type_symbol
_atom_site_symmetry_multiplicity
_atom_site_Wyckoff_symbol
_atom_site_fract_x
_atom_site_fract_y
_atom_site_fract_z
_atom_site_B_iso_or_equiv
_atom_site_occupancy
_atom_site_attached_hydrogens
La1 La3+ 1 a 0. 0. 0. 0.0238(12) 1 0
Li1 Li1+ 1 b 0. 0. 0.5 0.032(17) 1 0
Li2 Li1+ 2 d 0.3333 0.6667 0.347(6) 0.010(7) 1 0
As1 As3- 2 d 0.3333 0.6667 0.7409(5) 0.0223(12) 1 0
loop_
_atom_site_aniso_label
_atom_site_aniso_type_symbol
_atom_site_aniso_U_11
_atom_site_aniso_U_22
_atom_site_aniso_U_33
_atom_site_aniso_U_12
_atom_site_aniso_U_13
_atom_site_aniso_U_23
La1 La3+ 0.0207(14) 0.0207(14) 0.030(3) 0.0104(7) 0. 0.
As1 As3- 0.0210(15) 0.0210(15) 0.025(3) 0.0105(8) 0. 0.
#End of TTdata_427432-ICSD