
#(C) 2018 by FIZ Karlsruhe - Leibniz Institute for Information Infrastructure.  All rights reserved.
data_427658-ICSD
_database_code_ICSD 427658
_audit_creation_date 2018-02-01
_chemical_name_systematic
'Lithium europium(III) yttrium(III) tetramolybdate(VI)'
_chemical_formula_structural 'Li3.50 Eu0.75 Y0.75 (Mo O4)4'
_chemical_formula_sum 'Eu0.75 Li3.5 Mo4 O16 Y0.75'
_chemical_name_structure_type Li7Ho3(MoO4)8
_exptl_crystal_density_diffrn 4.44
_cell_measurement_temperature 293.
_publ_section_title

;
Solid solution between lithium-rich yttrium and europium molybdate as new
efficient red-emitting phosphors
;
loop_
_citation_id
_citation_journal_full
_citation_year
_citation_journal_volume
_citation_page_first
_citation_page_last
_citation_journal_id_ASTM
primary

;
Journal of Materials Chemistry C: Materials for Optical and Electronic Devices
; 2016 4 596 602 JMCCCX
loop_
_publ_author_name
'Litterscheid, C.'
'Krueger, S.'
'Euler, M.'
'Dreizler, A.'
'Wickleder, C.'
'Albert, B.'
_cell_length_a 5.2107(3)
_cell_length_b 6.6850(4)
_cell_length_c 10.3025(4)
_cell_angle_alpha 100.106(4)
_cell_angle_beta 100.362(4)
_cell_angle_gamma 111.879(4)
_cell_volume 315.82
_cell_formula_units_Z 1
_symmetry_space_group_name_H-M 'P -1'
_symmetry_Int_Tables_number 2
_refine_ls_R_factor_all 0.0344
loop_
_symmetry_equiv_pos_site_id
_symmetry_equiv_pos_as_xyz
1 '-x, -y, -z'
2 'x, y, z'
loop_
_atom_type_symbol
_atom_type_oxidation_number
Li1+ 1
Y3+ 3
Eu3+ 3
Mo6+ 6
O2- -2
loop_
_atom_site_label
_atom_site_type_symbol
_atom_site_symmetry_multiplicity
_atom_site_Wyckoff_symbol
_atom_site_fract_x
_atom_site_fract_y
_atom_site_fract_z
_atom_site_B_iso_or_equiv
_atom_site_occupancy
_atom_site_attached_hydrogens
Li1 Li1+ 1 a 0 0 0 0.053(5) 1 0
Li2 Li1+ 2 i 0.831(3) 0.397(3) 0.1245(18) 0.061(4) 1 0
Li3 Li1+ 2 i 0.12033(7) 0.77205(6) 0.43980(3) 0.00850(12) 0.25 0
Y1 Y3+ 2 i 0.12033(7) 0.77205(6) 0.43980(3) 0.00850(12) 0.38 0
Eu1 Eu3+ 2 i 0.12033(7) 0.77205(6) 0.43980(3) 0.00850(12) 0.38 0
Mo1 Mo6+ 2 i 0.33484(7) 0.29990(6) 0.31928(4) 0.01027(12) 1 0
Mo2 Mo6+ 2 i 0.41777(8) 0.15446(7) 0.80161(4) 0.01195(13) 1 0
O1 O2- 2 i 0.1184(6) 0.1175(5) 0.4056(3) 0.0126(6) 1 0
O2 O2- 2 i 0.3048(6) 0.5650(5) 0.5721(3) 0.0157(6) 1 0
O3 O2- 2 i 0.3557(7) 0.1757(6) 0.1620(3) 0.0179(7) 1 0
O4 O2- 2 i 0.1945(7) 0.4965(5) 0.2931(3) 0.0149(6) 1 0
O5 O2- 2 i 0.2685(8) 0.6877(6) 0.0687(3) 0.0249(8) 1 0
O6 O2- 2 i 0.2313(7) 0.3252(6) 0.7739(3) 0.0200(7) 1 0
O7 O2- 2 i 0.8003(7) 0.0563(6) 0.1378(3) 0.0183(7) 1 0
O8 O2- 2 i 0.4837(6) 0.0439(5) 0.6429(3) 0.0159(6) 1 0
loop_
_atom_site_aniso_label
_atom_site_aniso_type_symbol
_atom_site_aniso_U_11
_atom_site_aniso_U_22
_atom_site_aniso_U_33
_atom_site_aniso_U_12
_atom_site_aniso_U_13
_atom_site_aniso_U_23
Li3 Li1+ 0.00842(19) 0.0074(2) 0.0088(2) 0.00290(15) 0.00219(14) 0.00092(15)
Y1 Y3+ 0.00842(19) 0.0074(2) 0.0088(2) 0.00290(15) 0.00219(14) 0.00092(15)
Eu1 Eu3+ 0.00842(19) 0.0074(2) 0.0088(2) 0.00290(15) 0.00219(14) 0.00092(15)
Mo1 Mo6+ 0.00935(19) 0.0106(2) 0.0105(2) 0.00381(15) 0.00283(14) 0.00272(15)
Mo2 Mo6+ 0.0124(2) 0.0142(2) 0.00903(19) 0.00601(15) 0.00306(14) 0.00147(14)
O1 O2- 0.0123(13) 0.0089(14) 0.0174(15) 0.0040(12) 0.0060(11) 0.0044(12)
O2 O2- 0.0129(14) 0.0148(16) 0.0153(14) 0.0024(12) 0.0022(11) 0.0030(12)
O3 O2- 0.0164(14) 0.0223(17) 0.0140(15) 0.0096(13) 0.0044(12) -0.0013(13)
O4 O2- 0.0186(14) 0.0114(14) 0.0151(14) 0.0073(12) 0.0041(12) 0.0021(12)
O5 O2- 0.0234(16) 0.0257(19) 0.0155(16) 0.0019(15) 0.0015(13) 0.0040(14)
O6 O2- 0.0211(16) 0.0192(17) 0.0218(17) 0.0120(14) 0.0060(13) 0.0025(14)
O7 O2- 0.0167(15) 0.0224(18) 0.0181(15) 0.0078(13) 0.0078(12) 0.0083(14)
O8 O2- 0.0150(14) 0.0140(15) 0.0173(15) 0.0047(13) 0.0060(12) 0.0021(12)
#End of TTdata_427658-ICSD