
#(C) 2018 by FIZ Karlsruhe - Leibniz Institute for Information Infrastructure.  All rights reserved.
data_427906-ICSD
_database_code_ICSD 427906
_audit_creation_date 2015-02-01
_chemical_name_systematic 'Aluminium lithium magnesium tris(molybdate(VI))'
_chemical_formula_structural 'Li Mg Al (Mo O4)3'
_chemical_formula_sum 'Al1 Li1 Mg1 Mo3 O12'
_exptl_crystal_density_diffrn 3.62
_cell_measurement_temperature 293.
_publ_section_title

;
Growth, structure and spectral properties of Cr3+-doped Li Mg Al (Mo O4)3
crystals with a disordered structure
;
loop_
_citation_id
_citation_journal_full
_citation_year
_citation_journal_volume
_citation_page_first
_citation_page_last
_citation_journal_id_ASTM
primary 'Royal Society of Chemistry Advances' 2012 2 5271 5276 RSCACL
loop_
_publ_author_name
'Xiao, Bin'
'Huang, Yisheng'
'Zhang, Lizhen'
'Lin, Zhoubin'
'Wang, Guofu'
_cell_length_a 6.6969(7)
_cell_length_b 6.8104(5)
_cell_length_c 11.3290(7)
_cell_angle_alpha 77.597(19)
_cell_angle_beta 85.79(2)
_cell_angle_gamma 77.94(2)
_cell_volume 493.28
_cell_formula_units_Z 2
_symmetry_space_group_name_H-M 'P -1'
_symmetry_Int_Tables_number 2
_refine_ls_R_factor_all 0.0267
loop_
_symmetry_equiv_pos_site_id
_symmetry_equiv_pos_as_xyz
1 '-x, -y, -z'
2 'x, y, z'
loop_
_atom_type_symbol
_atom_type_oxidation_number
Mo6+ 6
O2- -2
Mg2+ 2
Al3+ 3
Mg2+ 2
Al3+ 3
Li1+ 1
loop_
_atom_site_label
_atom_site_type_symbol
_atom_site_symmetry_multiplicity
_atom_site_Wyckoff_symbol
_atom_site_fract_x
_atom_site_fract_y
_atom_site_fract_z
_atom_site_B_iso_or_equiv
_atom_site_occupancy
_atom_site_attached_hydrogens
Mo1 Mo6+ 2 i 0.25251(5) 0.09508(5) 0.35013(3) 0.00807(11) 1 0
Mo2 Mo6+ 2 i 0.25389(5) -0.30310(5) -0.05050(3) 0.00926(11) 1 0
Mo3 Mo6+ 2 i 0.79747(5) 0.71493(5) 0.31025(3) 0.00968(11) 1 0
O1 O2- 2 i 0.3955(4) 0.2694(4) 0.3840(2) 0.0123(6) 1 0
O2 O2- 2 i 0.3005(4) -0.1506(4) 0.4503(3) 0.0135(6) 1 0
O3 O2- 2 i 0.7128(5) 0.9480(5) 0.3624(3) 0.0192(6) 1 0
O4 O2- 2 i -0.0082(4) 0.2004(5) 0.3619(3) 0.0173(6) 1 0
O5 O2- 2 i 0.2955(5) -0.5523(5) 0.0387(3) 0.0207(7) 1 0
O6 O2- 2 i 0.3160(4) 0.0602(5) 0.2037(3) 0.0160(6) 1 0
O7 O2- 2 i -0.0034(5) -0.1930(5) -0.0438(3) 0.0236(7) 1 0
O8 O2- 2 i 0.7475(5) 0.7581(5) 0.1573(3) 0.0207(7) 1 0
O9 O2- 2 i 0.3186(5) -0.3151(5) -0.2018(3) 0.0176(6) 1 0
O10 O2- 2 i 0.3877(4) -0.1352(4) 0.0025(3) 0.0145(6) 1 0
O11 O2- 2 i 1.0564(5) 0.6402(5) 0.3297(3) 0.0252(7) 1 0
O12 O2- 2 i 0.6667(4) 0.5147(4) 0.3942(2) 0.0114(5) 1 0
Mg1 Mg2+ 2 i 0.69588(17) 0.23124(18) 0.37429(10) 0.0058(2) 0.575(2) 0
Al1 Al3+ 2 i 0.69588(17) 0.23124(18) 0.37429(10) 0.0058(2) 0.425(2) 0
Mg2 Mg2+ 2 i 0.30267(18) 0.15909(19) 0.02130(11) 0.0110(3) 0.425(2) 0
Al2 Al3+ 2 i 0.30267(18) 0.15909(19) 0.02130(11) 0.0110(3) 0.575(2) 0
Li1 Li1+ 2 i 0.3259(11) 0.5628(11) 0.4115(7) 0.0198(15) 1 0
loop_
_atom_site_aniso_label
_atom_site_aniso_type_symbol
_atom_site_aniso_U_11
_atom_site_aniso_U_22
_atom_site_aniso_U_33
_atom_site_aniso_U_12
_atom_site_aniso_U_13
_atom_site_aniso_U_23
Mo1 Mo6+ 0.00767(17) 0.00805(18) 0.00877(18) -0.00194(12) -0.00003(12)
-0.00200(13)
Mo2 Mo6+ 0.01064(18) 0.00903(18) 0.00927(18) -0.00445(13) -0.00075(12)
-0.00185(13)
Mo3 Mo6+ 0.00896(17) 0.00809(18) 0.01188(18) -0.00276(12) 0.00109(12)
-0.00123(12)
O1 O2- 0.0120(13) 0.0115(14) 0.0139(14) -0.0027(11) -0.0016(11) -0.0032(11)
O2 O2- 0.0131(13) 0.0127(14) 0.0155(14) -0.0053(11) -0.0025(11) -0.0013(11)
O3 O2- 0.0219(15) 0.0158(15) 0.0218(16) -0.0069(12) 0.0053(12) -0.0069(13)
O4 O2- 0.0129(14) 0.0148(14) 0.0246(16) -0.0012(11) -0.0003(12) -0.0064(12)
O5 O2- 0.0308(18) 0.0153(15) 0.0161(15) -0.0073(13) -0.0014(13) -0.0007(12)
O6 O2- 0.0174(14) 0.0180(15) 0.0137(14) -0.0024(12) -0.0013(11) -0.0067(12)
O7 O2- 0.0159(15) 0.0298(18) 0.0280(18) -0.0081(14) 0.0009(13) -0.0094(14)
O8 O2- 0.0296(17) 0.0185(16) 0.0147(15) -0.0086(13) 0.0034(13) -0.0026(12)
O9 O2- 0.0214(15) 0.0168(15) 0.0161(15) -0.0056(12) 0.0012(12) -0.0052(12)
O10 O2- 0.0166(14) 0.0151(14) 0.0138(14) -0.0078(12) -0.0035(11) -0.0017(11)
O11 O2- 0.0117(14) 0.0214(17) 0.041(2) -0.0025(12) -0.0035(14) -0.0042(15)
O12 O2- 0.0130(13) 0.0115(13) 0.0094(13) -0.0044(11) 0.0026(10) -0.0011(10)
Mg1 Mg2+ 0.0048(5) 0.0058(5) 0.0071(5) -0.0014(4) 0.0009(4) -0.0022(4)
Al1 Al3+ 0.0048(5) 0.0058(5) 0.0071(5) -0.0014(4) 0.0009(4) -0.0022(4)
Mg2 Mg2+ 0.0093(6) 0.0128(6) 0.0110(6) -0.0025(5) 0.0001(4) -0.0025(5)
Al2 Al3+ 0.0093(6) 0.0128(6) 0.0110(6) -0.0025(5) 0.0001(4) -0.0025(5)
Li1 Li1+ 0.018(4) 0.013(3) 0.027(4) 0.004(3) 0.000(3) -0.010(3)
#End of TTdata_427906-ICSD