
#(C) 2018 by FIZ Karlsruhe - Leibniz Institute for Information Infrastructure.  All rights reserved.
data_428677-ICSD
_database_code_ICSD 428677
_audit_creation_date 2017-08-01
_chemical_name_systematic
'Lithium tribarium hydrxide nonaborate tetrahydroxoborate'
_chemical_formula_structural 'Li Ba3 (O H) (B9 O16) (B (O H)4)'
_chemical_formula_sum 'H5 B10 Ba3 Li1 O21'
_exptl_crystal_density_diffrn 3.61
_cell_measurement_temperature 293.
_publ_section_title
'Deep-Ultraviolet nonlinear optics in a borate framework with 21-ring channels'
loop_
_citation_id
_citation_journal_full
_citation_year
_citation_journal_volume
_citation_page_first
_citation_page_last
_citation_journal_id_ASTM
primary 'Chemistry - A European Journal' 2016 22 10759 10762 CEUJED
loop_
_publ_author_name
'Wei, Qi'
'Wang, Jia-Jia'
'He, Chao'
'Cheng, Jian-Wen'
'Yang, Guo-Yu.'
_cell_length_a 10.2716(8)
_cell_length_b 10.2716(8)
_cell_length_c 8.7431(13)
_cell_angle_alpha 90.
_cell_angle_beta 90.
_cell_angle_gamma 120.
_cell_volume 798.86
_cell_formula_units_Z 2
_symmetry_space_group_name_H-M 'P 3 1 c'
_symmetry_Int_Tables_number 159
_refine_ls_R_factor_all 0.026
loop_
_symmetry_equiv_pos_site_id
_symmetry_equiv_pos_as_xyz
1 '-x, -x+y, z+1/2'
2 'x-y, -y, z+1/2'
3 'y, x, z+1/2'
4 '-x+y, -x, z'
5 '-y, x-y, z'
6 'x, y, z'
loop_
_atom_type_symbol
_atom_type_oxidation_number
Ba2+ 2
Li1+ 1
O2- -2
H1+ 1
O2- -2
H1+ 1
O2- -2
H1+ 1
O2- -2
H1+ 1
B3+ 3
O2- -2
loop_
_atom_site_label
_atom_site_type_symbol
_atom_site_symmetry_multiplicity
_atom_site_Wyckoff_symbol
_atom_site_fract_x
_atom_site_fract_y
_atom_site_fract_z
_atom_site_B_iso_or_equiv
_atom_site_occupancy
_atom_site_attached_hydrogens
Ba1 Ba2+ 6 c 0.25958(5) 0.37521(5) 0.57443(7) 0.01805(11) 1 0
Li1 Li1+ 2 b 0.6667 0.3333 0.810(5) 0.058(9) 1 0
O1 O2- 2 b 0.6667 0.3333 0.4025(9) 0.0077(15) 1 0
O2 O2- 2 b 0.3333 0.6667 0.5174(12) 0.022(2) 1 0
H1 H1+ 6 c 0.2483 0.5985 0.5498 0.033 0.33 0
O3 O2- 6 c 0.3995(6) 0.0030(6) 0.5576(5) 0.0144(11) 1 0
O4 O2- 6 c 0.4703(5) 0.2623(5) 0.5938(5) 0.0079(9) 1 0
O5 O2- 6 c 0.1298(18) 0.1146(17) 0.412(2) 0.044(4) 0.5 0
H2 H1+ 6 c 0.1904 0.0676 0.4342 0.052 0.5 0
O6 O2- 6 c 0.1379(17) 0.1291(15) 0.322(2) 0.028(3) 0.5 0
H3 H1+ 6 c 0.1979 0.144 0.2513 0.033 0.5 0
O7 O2- 6 c 0.4437(5) 0.1114(5) 0.8091(5) 0.0082(9) 1 0
O8 O2- 6 c 0.4103(5) 0.1514(5) 0.3419(5) 0.0071(9) 1 0
O9 O2- 6 c 0.026(2) -0.062(3) 0.161(2) 0.040(5) 0.33 0
H4 H1+ 6 c -0.0138 -0.12 0.0851 0.048 0.33 0
B1 B3+ 6 c 0.4376(8) 0.1242(8) 0.6526(8) 0.0092(13) 1 0
B2 B3+ 6 c 0.5031(7) 0.2899(8) 0.4249(8) 0.0078(13) 1 0
B3 B3+ 2 a 0. 0. 0.311(2) 0.024(3) 1 0
B4 B3+ 6 c 0.4352(8) 0.0301(8) 0.3888(9) 0.0081(13) 1 0
O10 O2- 6 c 0.5938(5) 0.0702(5) 0.3678(5) 0.0071(8) 1 0
loop_
_atom_site_aniso_label
_atom_site_aniso_type_symbol
_atom_site_aniso_U_11
_atom_site_aniso_U_22
_atom_site_aniso_U_33
_atom_site_aniso_U_12
_atom_site_aniso_U_13
_atom_site_aniso_U_23
Ba1 Ba2+ 0.0157(2) 0.0312(3) 0.01346(17) 0.0164(2) 0.00228(17) 0.00031(18)
Li1 Li1+ 0.063(14) 0.063(14) 0.05(2) 0.031(7) 0. 0.
O1 O2- 0.004(2) 0.004(2) 0.016(4) 0.0018(10) 0. 0.
O2 O2- 0.012(3) 0.012(3) 0.042(6) 0.0061(13) 0. 0.
O3 O2- 0.025(3) 0.012(2) 0.005(2) 0.008(2) 0.0017(18) 0.0036(19)
O4 O2- 0.0109(16) 0.0056(14) 0.0085(17) 0.0052(13) 0.0016(13) -0.0016(13)
O5 O2- 0.031(8) 0.022(8) 0.081(14) 0.015(6) -0.009(10) -0.025(9)
O6 O2- 0.021(6) 0.013(6) 0.046(9) 0.005(5) 0.019(7) 0.017(7)
O7 O2- 0.010(2) 0.008(2) 0.008(2) 0.0062(18) -0.0014(17) 0.0004(17)
O8 O2- 0.008(2) 0.004(2) 0.009(2) 0.0032(18) -0.0003(17) -0.0004(17)
O9 O2- 0.054(13) 0.067(14) 0.027(11) 0.051(12) -0.016(9) -0.023(10)
B1 B3+ 0.008(2) 0.009(2) 0.010(2) 0.0039(16) -0.0022(16) -0.0002(16)
B2 B3+ 0.0067(19) 0.007(2) 0.009(2) 0.0033(16) 0.0005(16) 0.0004(15)
B3 B3+ 0.027(5) 0.027(5) 0.018(8) 0.014(2) 0. 0.
B4 B3+ 0.009(2) 0.008(2) 0.008(2) 0.0042(16) -0.0020(16) -0.0013(16)
O10 O2- 0.0032(19) 0.009(2) 0.009(2) 0.0028(17) -0.0009(16) 0.0009(17)
#End of TTdata_428677-ICSD