
#(C) 2018 by FIZ Karlsruhe - Leibniz Institute for Information Infrastructure.  All rights reserved.
data_428671-ICSD
_database_code_ICSD 428671
_audit_creation_date 2016-02-01
_chemical_name_systematic 'Dicalcium dilithium disilicate'
_chemical_formula_structural 'Ca2 Li2 Si2 O7'
_chemical_formula_sum 'Ca2 Li2 O7 Si2'
_exptl_crystal_density_diffrn 2.81
_cell_measurement_temperature 295.
_publ_section_title

;
Li2 Ca2 Si2 O7: Structural, spectroscopic and computational studies on a
sorosilicate
;
loop_
_citation_id
_citation_journal_full
_citation_year
_citation_journal_volume
_citation_page_first
_citation_page_last
_citation_journal_id_ASTM
primary 'Journal of Solid State Chemistry' 2015 225 155 167 JSSCBI
loop_
_publ_author_name
'Kahlenberg, Volker'
'Brunello, Emanuele'
'Hejny, Clivia'
'Krueger, Hannes'
'Schmidmair, Daniela'
'Tribus, Martina'
'Toebbens, Daniel M.'
_cell_length_a 5.09611(17)
_cell_length_b 5.09611(17)
_cell_length_c 41.2640(17)
_cell_angle_alpha 90
_cell_angle_beta 90
_cell_angle_gamma 120
_cell_volume 928.06
_cell_formula_units_Z 6
_symmetry_space_group_name_H-M 'P 61 2 2'
_symmetry_Int_Tables_number 178
_refine_ls_R_factor_all 0.026
loop_
_symmetry_equiv_pos_site_id
_symmetry_equiv_pos_as_xyz
1 'x, x-y, -z'
2 '-x+y, y, -z+1/2'
3 '-y, -x, -z'
4 '-x, -x+y, -z+2/3'
5 'x-y, -y, -z'
6 'y, x, -z+1/3'
7 'x-y, x, z'
8 'y, -x+y, z'
9 '-x, -y, z+1/2'
10 '-x+y, -x, z+2/3'
11 '-y, x-y, z+1/3'
12 'x, y, z'
loop_
_atom_type_symbol
_atom_type_oxidation_number
Ca2+ 2
Li1+ 1
Si4+ 4
O2- -2
loop_
_atom_site_label
_atom_site_type_symbol
_atom_site_symmetry_multiplicity
_atom_site_Wyckoff_symbol
_atom_site_fract_x
_atom_site_fract_y
_atom_site_fract_z
_atom_site_B_iso_or_equiv
_atom_site_occupancy
_atom_site_attached_hydrogens
Ca1 Ca2+ 6 a 0.96079(15) 0 0.5 0.0084(2) 1 0
Ca2 Ca2+ 6 b 0.96416(9) 0.03584(9) 0.4167 0.0149(2) 1 0
Li1 Li1+ 12 c 0.6969(11) 0.4099(11) 0.47301(12) 0.0145(10) 1 0
Si1 Si4+ 12 c 0.35320(16) 0.72664(16) 0.454034(16) 0.00540(19) 1 0
O1 O2- 6 b 0.3876(3) 0.6124(3) 0.4167 0.0112(6) 1 0
O2 O2- 12 c 0.6643(5) 0.0466(5) 0.45883(5) 0.0091(4) 1 0
O3 O2- 12 c 1.0581(5) 0.7654(5) 0.45520(5) 0.0084(4) 1 0
O4 O2- 12 c 0.8679(5) 0.5221(5) 0.52151(5) 0.0108(5) 1 0
loop_
_atom_site_aniso_label
_atom_site_aniso_type_symbol
_atom_site_aniso_U_11
_atom_site_aniso_U_22
_atom_site_aniso_U_33
_atom_site_aniso_U_12
_atom_site_aniso_U_13
_atom_site_aniso_U_23
Ca1 Ca2+ 0.0096(3) 0.0095(4) 0.0060(4) 0.0048(2) 0.00004(14) 0.0001(3)
Ca2 Ca2+ 0.0203(4) 0.0203(4) 0.0117(4) 0.0159(4) 0.0086(3) 0.0086(3)
Li1 Li1+ 0.013(3) 0.014(2) 0.015(3) 0.005(2) 0.0028(19) -0.0003(19)
Si1 Si4+ 0.0058(4) 0.0062(4) 0.0045(3) 0.0032(3) -0.0005(3) -0.0004(2)
O1 O2- 0.0162(12) 0.0162(12) 0.0067(13) 0.0121(13) -0.0031(10) -0.0031(10)
O2 O2- 0.0081(10) 0.0086(10) 0.0104(10) 0.0040(8) -0.0001(8) -0.0016(8)
O3 O2- 0.0083(10) 0.0111(11) 0.0076(10) 0.0062(9) 0.0009(8) 0.0021(8)
O4 O2- 0.0090(10) 0.0124(11) 0.0098(10) 0.0044(8) 0.0022(8) 0.0053(8)
#End of TTdata_428671-ICSD