
#(C) 2018 by FIZ Karlsruhe - Leibniz Institute for Information Infrastructure.  All rights reserved.
data_428746-ICSD
_database_code_ICSD 428746
_audit_creation_date 2015-08-01
_chemical_name_systematic 'Dilithium heptaoxodiselenate'
_chemical_formula_structural 'Li2 (Se2 O7)'
_chemical_formula_sum 'Li2 O7 Se2'
_exptl_crystal_density_diffrn 3.19
_cell_measurement_temperature 293.
_publ_section_title

;
Synthesis, crystal structure, and vibrational spectroscopy of the alkali
diselenates A2 Se2 O7 (A = Li - Cs)
;
loop_
_citation_id
_citation_journal_full
_citation_year
_citation_journal_volume
_citation_page_first
_citation_page_last
_citation_journal_id_ASTM
primary 'Zeitschrift fuer Anorganische und Allgemeine Chemie (1950) (DE)' 2015
641 1293 1300 ZAACAB
loop_
_publ_author_name
'Daub, Michael'
'Hillebrecht, Harald'
_cell_length_a 13.815(3)
_cell_length_b 8.4519(17)
_cell_length_c 5.0585(10)
_cell_angle_alpha 90.
_cell_angle_beta 90.
_cell_angle_gamma 90.
_cell_volume 590.65
_cell_formula_units_Z 4
_symmetry_space_group_name_H-M 'P n m a'
_symmetry_Int_Tables_number 62
_refine_ls_R_factor_all 0.0171
loop_
_symmetry_equiv_pos_site_id
_symmetry_equiv_pos_as_xyz
1 'x+1/2, y, -z+1/2'
2 'x, -y+1/2, z'
3 '-x+1/2, y+1/2, z+1/2'
4 '-x, -y, -z'
5 '-x+1/2, -y, z+1/2'
6 '-x, y+1/2, -z'
7 'x+1/2, -y+1/2, -z+1/2'
8 'x, y, z'
loop_
_atom_type_symbol
_atom_type_oxidation_number
Li1+ 1
Se6+ 6
O2- -2
loop_
_atom_site_label
_atom_site_type_symbol
_atom_site_symmetry_multiplicity
_atom_site_Wyckoff_symbol
_atom_site_fract_x
_atom_site_fract_y
_atom_site_fract_z
_atom_site_B_iso_or_equiv
_atom_site_occupancy
_atom_site_attached_hydrogens
Li1 Li1+ 8 d 0.1018(3) -0.0664(5) 0.5919(9) 0.0229(9) 1 0
Se1 Se6+ 4 c 0.21905(2) 0.25 0.76222(7) 0.01469(9) 1 0
Se2 Se6+ 4 c 0.50348(2) 0.25 0.60731(6) 0.01174(8) 1 0
O1 O2- 8 d 0.20533(13) 0.0899(2) 0.5985(4) 0.0276(4) 1 0
O2 O2- 4 c 0.31278(18) 0.25 0.9504(5) 0.0211(5) 1 0
O3 O2- 8 d 0.49206(12) 0.08995(19) 0.7787(3) 0.0184(3) 1 0
O4 O2- 4 c 0.44068(19) 0.25 0.3395(5) 0.0186(5) 1 0
O5 O2- 4 c 0.12357(17) 0.25 1.0075(5) 0.0173(5) 1 0
loop_
_atom_site_aniso_label
_atom_site_aniso_type_symbol
_atom_site_aniso_U_11
_atom_site_aniso_U_22
_atom_site_aniso_U_33
_atom_site_aniso_U_12
_atom_site_aniso_U_13
_atom_site_aniso_U_23
Li1 Li1+ 0.021(2) 0.020(2) 0.028(2) -0.0007(15) 0.0008(18) -0.0024(18)
Se1 Se6+ 0.01151(14) 0.01386(14) 0.01872(15) 0. -0.00220(15) 0.
Se2 Se6+ 0.01231(14) 0.01129(13) 0.01162(13) 0. -0.00064(12) 0.
O1 O2- 0.0235(10) 0.0247(10) 0.0347(11) -0.0045(7) 0.0051(8) -0.0123(9)
O2 O2- 0.0160(11) 0.0174(11) 0.0300(14) 0. -0.0080(11) 0.
O3 O2- 0.0191(8) 0.0148(7) 0.0212(8) 0.0018(6) 0.0013(8) 0.0050(6)
O4 O2- 0.0236(12) 0.0159(11) 0.0162(11) 0. -0.0084(9) 0.
O5 O2- 0.0141(11) 0.0229(12) 0.0150(10) 0. -0.0035(9) 0.
#End of TTdata_428746-ICSD