
#(C) 2018 by FIZ Karlsruhe - Leibniz Institute for Information Infrastructure.  All rights reserved.
data_429825-ICSD
_database_code_ICSD 429825
_audit_creation_date 2016-08-01
_chemical_name_systematic 'Barium lithium manganese(II) vanadate(V)'
_chemical_formula_structural 'Ba Li2 Mn (V O4)2'
_chemical_formula_sum 'Ba1 Li2 Mn1 O8 V2'
_chemical_name_structure_type K3Na(SeO4)2
_exptl_crystal_density_diffrn 4.09
_cell_measurement_temperature 293.
_publ_section_title

;
Hydrothermal synthesis of single crystals of transition metal vanadates in the
glaserite phase
;
loop_
_citation_id
_citation_journal_full
_citation_year
_citation_journal_volume
_citation_page_first
_citation_page_last
_citation_journal_id_ASTM
primary 'Journal of Solid State Chemistry' 2016 236 61 68 JSSCBI
loop_
_publ_author_name
'Sanjeewa, Liurukara D.'
'McMillen, Colin D.'
'Willett, Daniel'
'Chumanov, George'
'Kolis, Joseph W.'
_cell_length_a 5.2887(7)
_cell_length_b 5.2887(7)
_cell_length_c 7.3026(15)
_cell_angle_alpha 90.
_cell_angle_beta 90.
_cell_angle_gamma 120.
_cell_volume 176.89
_cell_formula_units_Z 1
_symmetry_space_group_name_H-M 'P -3'
_symmetry_Int_Tables_number 147
_refine_ls_R_factor_all 0.0207
loop_
_symmetry_equiv_pos_site_id
_symmetry_equiv_pos_as_xyz
1 'x-y, x, -z'
2 'y, -x+y, -z'
3 '-x, -y, -z'
4 '-x+y, -x, z'
5 '-y, x-y, z'
6 'x, y, z'
loop_
_atom_type_symbol
_atom_type_oxidation_number
Mn2+ 2
V5+ 5
O2- -2
Ba2+ 2
Li1+ 1
loop_
_atom_site_label
_atom_site_type_symbol
_atom_site_symmetry_multiplicity
_atom_site_Wyckoff_symbol
_atom_site_fract_x
_atom_site_fract_y
_atom_site_fract_z
_atom_site_B_iso_or_equiv
_atom_site_occupancy
_atom_site_attached_hydrogens
Mn1 Mn2+ 1 a 0. 0. 0. 0.0078(4) 1 0
V1 V5+ 2 d 0.6667 0.3333 0.74636(13) 0.0062(3) 1 0
O1 O2- 6 g 0.3033(4) 0.3400(3) 0.1852(3) 0.0109(4) 1 0
O2 O2- 2 d 0.6667 0.3333 0.5150(5) 0.0141(8) 1 0
Ba1 Ba2+ 1 b 0. 0. 0.5 0.0097(3) 1 0
Li1 Li1+ 2 d 0.3333 0.6667 0.7700(18) 0.015(3) 1 0
loop_
_atom_site_aniso_label
_atom_site_aniso_type_symbol
_atom_site_aniso_U_11
_atom_site_aniso_U_22
_atom_site_aniso_U_33
_atom_site_aniso_U_12
_atom_site_aniso_U_13
_atom_site_aniso_U_23
Mn1 Mn2+ 0.0076(4) 0.0076(4) 0.0082(6) 0.0038(2) 0. 0.
V1 V5+ 0.0050(3) 0.0050(3) 0.0086(5) 0.00251(17) 0. 0.
O1 O2- 0.0098(8) 0.0092(8) 0.0137(9) 0.0048(7) -0.0023(6) -0.0029(6)
O2 O2- 0.0140(12) 0.0140(12) 0.0142(19) 0.0070(6) 0. 0.
Ba1 Ba2+ 0.0100(3) 0.0100(3) 0.0091(3) 0.00500(13) 0. 0.
Li1 Li1+ 0.009(3) 0.009(3) 0.028(6) 0.0044(16) 0. 0.
#End of TTdata_429825-ICSD