
#(C) 2018 by FIZ Karlsruhe - Leibniz Institute for Information Infrastructure.  All rights reserved.
data_429816-ICSD
_database_code_ICSD 429816
_audit_creation_date 2016-02-01
_chemical_name_systematic 'Dilithium manganese tetrathiostannate'
_chemical_formula_structural 'Li2 Mn (Sn S4)'
_chemical_formula_sum 'Li2 Mn1 S4 Sn1'
_exptl_crystal_density_diffrn 2.98
_cell_measurement_temperature 300.
_publ_section_title

;
Polymorphism and second harmonic generation in a novel diamond-like
semiconductor: Li2 Mn Sn S4
;
loop_
_citation_id
_citation_journal_full
_citation_year
_citation_journal_volume
_citation_page_first
_citation_page_last
_citation_journal_id_ASTM
primary 'Journal of Solid State Chemistry' 2015 231 256 266 JSSCBI
loop_
_publ_author_name
'Devlin, Kasey P.'
'Glaid, Andrew J.'
'Brant, Jacilynn A.'
'Zhang, Jian-Han'
'Srnec, Matthew N.'
'Clark, Daniel J.'
'Soo Kim, Yong'
'Jang, Joon I.'
'Daley, Kimberly R.'
'Moreau, Meghann A.'
'Madura, Jeffry D.'
'Aitken, Jennifer A.'
_cell_length_a 6.4143(6)
_cell_length_b 6.8475(6)
_cell_length_c 8.0078(7)
_cell_angle_alpha 90.
_cell_angle_beta 89.980(6)
_cell_angle_gamma 90.
_cell_volume 351.71
_cell_formula_units_Z 2
_symmetry_space_group_name_H-M 'P 1 n 1'
_symmetry_Int_Tables_number 7
_refine_ls_R_factor_all 0.0362
loop_
_symmetry_equiv_pos_site_id
_symmetry_equiv_pos_as_xyz
1 'x+1/2, -y, z+1/2'
2 'x, y, z'
loop_
_atom_type_symbol
_atom_type_oxidation_number
Sn4+ 4
S2- -2
Mn2+ 2
Li1+ 1
loop_
_atom_site_label
_atom_site_type_symbol
_atom_site_symmetry_multiplicity
_atom_site_Wyckoff_symbol
_atom_site_fract_x
_atom_site_fract_y
_atom_site_fract_z
_atom_site_B_iso_or_equiv
_atom_site_occupancy
_atom_site_attached_hydrogens
Sn1 Sn4+ 2 a 0.60977(14) 0.32851(6) 0.27180(13) 0.01410(15) 1 0
S1 S2- 2 a 0.7337(4) 0.6572(3) 0.2714(2) 0.0149(4) 1 0
S2 S2- 2 a 0.7303(4) 0.1630(3) 0.0277(2) 0.0144(4) 1 0
S3 S2- 2 a 0.7321(4) 0.1708(3) 0.5194(2) 0.0146(4) 1 0
S4 S2- 2 a 0.2364(4) 0.3239(3) 0.2754(2) 0.0151(4) 1 0
Mn1 Mn2+ 2 a 0.6097(3) 0.8295(2) 0.0292(3) 0.0131(5) 1 0
Li1 Li1+ 2 a 1.101(5) 0.6638(13) 0.261(4) 0.000(3) 1 0
Li2 Li1+ 2 a 0.097(14) 0.170(6) 0.029(8) 0.13(3) 1 0
loop_
_atom_site_aniso_label
_atom_site_aniso_type_symbol
_atom_site_aniso_U_11
_atom_site_aniso_U_22
_atom_site_aniso_U_33
_atom_site_aniso_U_12
_atom_site_aniso_U_13
_atom_site_aniso_U_23
Sn1 Sn4+ 0.0127(3) 0.0130(2) 0.0166(3) -0.0003(4) -0.00028(18) -0.0001(4)
S1 S2- 0.0173(11) 0.0121(9) 0.0151(9) -0.0017(8) -0.0012(7) 0.0005(6)
S2 S2- 0.0170(11) 0.0110(9) 0.0151(9) -0.0006(8) 0.0033(7) -0.0004(6)
S3 S2- 0.0152(10) 0.0150(9) 0.0135(9) 0.0023(9) -0.0003(7) 0.0024(7)
S4 S2- 0.0153(11) 0.0171(10) 0.0131(9) -0.0008(9) -0.0006(7) 0.0013(7)
Mn1 Mn2+ 0.0124(8) 0.0144(7) 0.0127(8) 0.0004(7) 0.0003(6) -0.0004(6)
Li2 Li1+ 0.21(7) 0.12(4) 0.06(3) 0.04(4) -0.02(3) 0.00(2)
#End of TTdata_429816-ICSD