
#(C) 2018 by FIZ Karlsruhe - Leibniz Institute for Information Infrastructure.  All rights reserved.
data_430332-ICSD
_database_code_ICSD 430332
_audit_creation_date 2018-02-01
_chemical_name_systematic
'Triammonium tetraaquato-trilithium tetraicosaoxo-heptamolybdate dihydrate'
_chemical_formula_structural '(N H4)3 (Li3 (H2 O)4) (Mo7 O24) (H2 O)2'
_chemical_formula_sum 'H24 Li3 Mo7 N3 O30'
_exptl_crystal_density_diffrn 3.12
_cell_measurement_temperature 200.
_publ_section_title
'Syntheses and structures of two new lithium-heptamolybdates'
loop_
_citation_id
_citation_journal_full
_citation_year
_citation_journal_volume
_citation_page_first
_citation_page_last
_citation_journal_id_ASTM
primary 'Journal of Coordination Chemistry' 2016 69 1166 1178 JCCMBQ
loop_
_publ_author_name
'Khandolkar, Savita S.'
'Naether, Christian'
'Bensch, Wolfgang'
'Srinivasan, Bikshandarkoil R.'
_cell_length_a 14.0745(10)
_cell_length_b 10.8681(6)
_cell_length_c 17.2459(11)
_cell_angle_alpha 90.
_cell_angle_beta 90.
_cell_angle_gamma 90.
_cell_volume 2637.98
_cell_formula_units_Z 4
_symmetry_space_group_name_H-M 'P n m a'
_symmetry_Int_Tables_number 62
_refine_ls_R_factor_all 0.0309
loop_
_symmetry_equiv_pos_site_id
_symmetry_equiv_pos_as_xyz
1 'x+1/2, y, -z+1/2'
2 'x, -y+1/2, z'
3 '-x+1/2, y+1/2, z+1/2'
4 '-x, -y, -z'
5 '-x+1/2, -y, z+1/2'
6 '-x, y+1/2, -z'
7 'x+1/2, -y+1/2, -z+1/2'
8 'x, y, z'
loop_
_atom_type_symbol
_atom_type_oxidation_number
Mo6+ 6
O2- -2
Li1+ 1
N3- -3
H1+ 1
N3- -3
H1+ 1
O2- -2
H1+ 1
O2- -2
H1+ 1
O2- -2
H1+ 1
O2- -2
H1+ 1
O2- -2
loop_
_atom_site_label
_atom_site_type_symbol
_atom_site_symmetry_multiplicity
_atom_site_Wyckoff_symbol
_atom_site_fract_x
_atom_site_fract_y
_atom_site_fract_z
_atom_site_B_iso_or_equiv
_atom_site_occupancy
_atom_site_attached_hydrogens
Mo1 Mo6+ 8 d 0.32235(2) 0.45061(3) 1.060046(16) 0.00548(9) 1 0
Mo2 Mo6+ 8 d 0.29238(2) 0.44140(3) 0.873363(16) 0.00587(9) 1 0
Mo3 Mo6+ 4 c 0.23068(3) 0.25 1.17371(2) 0.00512(10) 1 0
Mo4 Mo6+ 4 c 0.15921(3) 0.25 0.98656(2) 0.00365(10) 1 0
Mo5 Mo6+ 4 c 0.15742(3) 0.25 0.78718(2) 0.00580(10) 1 0
O1 O2- 8 d 0.42610(19) 0.4401(3) 1.11236(15) 0.0151(6) 1 0
O2 O2- 8 d 0.22946(18) 0.4197(2) 1.14288(14) 0.0082(5) 1 0
O3 O2- 8 d 0.29969(19) 0.6060(3) 1.05507(15) 0.0119(5) 1 0
O4 O2- 4 c 0.2924(2) 0.25 1.06172(19) 0.0048(7) 1 0
O5 O2- 8 d 0.37874(16) 0.4195(3) 0.95936(14) 0.0073(5) 1 0
O6 O2- 8 d 0.20107(16) 0.4158(2) 0.97914(13) 0.0054(5) 1 0
O7 O2- 8 d 0.2768(2) 0.5987(3) 0.87642(15) 0.0143(6) 1 0
O8 O2- 4 c 0.2567(2) 0.25 0.88251(19) 0.0059(7) 1 0
O9 O2- 8 d 0.37435(19) 0.4108(3) 0.80174(15) 0.0150(6) 1 0
O10 O2- 8 d 0.17157(17) 0.4178(3) 0.81734(15) 0.0092(5) 1 0
O11 O2- 4 c 0.3301(3) 0.25 1.2312(2) 0.0133(8) 1 0
O12 O2- 4 c 0.1337(3) 0.25 1.2375(2) 0.0093(7) 1 0
O13 O2- 4 c 0.1015(2) 0.25 1.0761(2) 0.0102(7) 1 0
O14 O2- 4 c 0.0695(2) 0.25 0.9176(2) 0.0108(7) 1 0
O15 O2- 4 c 0.2295(3) 0.25 0.7075(2) 0.0136(8) 1 0
O16 O2- 4 c 0.0407(3) 0.25 0.7525(2) 0.0123(8) 1 0
Li1 Li1+ 4 c 0.3378(6) 0.75 0.8511(6) 0.0121(18) 1 0
Li2 Li1+ 4 c 0.3991(7) 0.25 0.7202(5) 0.017(2) 1 0
Li3 Li1+ 4 c 0.2941(7) 0.25 0.5806(6) 0.019(2) 1 0
N1 N3- 4 c 0.0213(3) 0.25 0.5857(3) 0.0125(9) 1 0
H1 H1+ 4 c 0.0259 0.25 0.6343 0.019 1 0
H2 H1+ 4 c 0.0753 0.25 0.565 0.019 1 0
H3 H1+ 8 d -0.0124 0.1943 0.5662 0.019 1 0
N2 N3- 8 d 0.4808(2) 0.0681(4) 0.2750(2) 0.0181(7) 1 0
H4 H1+ 8 d 0.5148 0.0169 0.2515 0.027 1 0
H5 H1+ 8 d 0.453 0.0362 0.3131 0.027 1 0
H6 H1+ 8 d 0.4342 0.09 0.2478 0.027 1 0
H7 H1+ 8 d 0.5219 0.1183 0.2907 0.027 1 0
O17 O2- 8 d 0.38956(19) 0.3784(3) 0.63465(15) 0.0154(6) 1 0
H8 H1+ 8 d 0.3539 0.4335 0.6582 0.023 1 0
H9 H1+ 8 d 0.4289 0.3847 0.5952 0.023 1 0
O18 O2- 4 c 0.4491(3) 0.75 0.9119(3) 0.0214(9) 1 0
H10 H1+ 8 d 0.4881 0.8114 0.9022 0.032 1 0
O19 O2- 4 c 0.3670(4) 0.25 0.4765(3) 0.090(4) 1 0
H11 H1+ 8 d 0.3911 0.1814 0.4578 0.135 1 0
O20 O2- 8 d 0.4535(4) 0.0505(6) 0.4383(3) 0.0465(16) 0.75 0
H12 H1+ 8 d 0.4644 0.1053 0.4748 0.07 1 0
H13 H1+ 8 d 0.3977 0.0242 0.4541 0.07 1 0
O21 O2- 8 d 0.4923(12) 0.0010(19) 0.4747(10) 0.047(5) 0.25 0
loop_
_atom_site_aniso_label
_atom_site_aniso_type_symbol
_atom_site_aniso_U_11
_atom_site_aniso_U_22
_atom_site_aniso_U_33
_atom_site_aniso_U_12
_atom_site_aniso_U_13
_atom_site_aniso_U_23
Mo1 Mo6+ 0.00449(14) 0.00508(17) 0.00689(15) -0.00220(10) 0.00018(9)
-0.00116(10)
Mo2 Mo6+ 0.00549(15) 0.00569(17) 0.00644(15) -0.00184(10) 0.00097(10)
0.00083(10)
Mo3 Mo6+ 0.00355(18) 0.0065(2) 0.00530(19) 0. 0.00082(13) 0.
Mo4 Mo6+ 0.00032(17) 0.0054(2) 0.00519(19) 0. -0.00028(13) 0.
Mo5 Mo6+ 0.00244(18) 0.0096(2) 0.0054(2) 0. -0.00151(13) 0.
O1 O2- 0.0092(12) 0.0240(18) 0.0121(13) -0.0031(11) -0.0019(10) -0.0007(11)
O2 O2- 0.0098(11) 0.0066(13) 0.0080(11) 0.0009(10) 0.0033(9) -0.0017(10)
O3 O2- 0.0139(12) 0.0054(14) 0.0165(13) -0.0026(10) 0.0034(10) -0.0035(10)
O4 O2- 0.0030(14) 0.0064(18) 0.0051(15) 0. 0.0018(11) 0.
O5 O2- 0.0037(10) 0.0109(13) 0.0072(11) -0.0032(9) 0.0012(9) -0.0004(10)
O6 O2- 0.0040(10) 0.0050(12) 0.0071(11) -0.0003(9) -0.0001(8) -0.0003(9)
O7 O2- 0.0219(14) 0.0062(14) 0.0148(13) -0.0042(12) -0.0030(10) 0.0027(10)
O8 O2- 0.0056(16) 0.0069(18) 0.0053(15) 0. -0.0011(12) 0.
O9 O2- 0.0096(12) 0.0241(16) 0.0113(12) -0.0029(12) 0.0017(10) 0.0013(11)
O10 O2- 0.0072(11) 0.0079(13) 0.0126(12) 0.0021(10) -0.0038(9) -0.0002(10)
O11 O2- 0.0085(17) 0.018(2) 0.0139(18) 0. -0.0036(14) 0.
O12 O2- 0.0084(16) 0.0102(19) 0.0094(17) 0. 0.0019(13) 0.
O13 O2- 0.0056(16) 0.015(2) 0.0098(16) 0. 0.0032(13) 0.
O14 O2- 0.0039(15) 0.014(2) 0.0150(18) 0. -0.0027(13) 0.
O15 O2- 0.0124(17) 0.018(2) 0.0108(18) 0. 0.0010(14) 0.
O16 O2- 0.0080(16) 0.020(2) 0.0092(17) 0. -0.0023(13) 0.
Li1 Li1+ 0.012(4) 0.007(5) 0.017(5) 0. -0.006(3) 0.
Li2 Li1+ 0.014(4) 0.027(6) 0.010(4) 0. 0.000(3) 0.
Li3 Li1+ 0.015(5) 0.023(6) 0.017(5) 0. -0.003(4) 0.
N1 N3- 0.0062(19) 0.018(3) 0.013(2) 0. -0.0018(16) 0.
N2 N3- 0.0136(16) 0.021(2) 0.0201(17) -0.0033(14) -0.0030(13) 0.0069(14)
O17 O2- 0.0099(12) 0.0210(16) 0.0153(13) 0.0022(11) 0.0025(10) 0.0044(11)
O18 O2- 0.0095(19) 0.028(3) 0.027(2) 0. -0.0038(16) 0.
O19 O2- 0.020(3) 0.222(12) 0.027(3) 0. -0.007(2) 0.
O20 O2- 0.037(3) 0.059(4) 0.043(3) -0.031(3) 0.010(3) -0.011(3)
O21 O2- 0.034(9) 0.053(12) 0.052(12) 0.013(8) -0.016(9) 0.023(11)
#End of TTdata_430332-ICSD