
#(C) 2018 by FIZ Karlsruhe - Leibniz Institute for Information Infrastructure.  All rights reserved.
data_430769-ICSD
_database_code_ICSD 430769
_audit_creation_date 2016-08-01
_chemical_name_systematic 'Lithium tribismuth pentasulfide'
_chemical_formula_structural 'Li Bi3 S5'
_chemical_formula_sum 'Bi3 Li1 S5'
_chemical_name_structure_type AgBi3S5
_exptl_crystal_density_diffrn 6.11
_cell_measurement_temperature 293.
_publ_section_title
'Li Bi3 S5 - A lithium bismuth sulfide with strong cation disorder'
loop_
_citation_id
_citation_journal_full
_citation_year
_citation_journal_volume
_citation_page_first
_citation_page_last
_citation_journal_id_ASTM
primary 'Journal of Solid State Chemistry' 2016 238 60 67 JSSCBI
loop_
_publ_author_name
'Nakhal, Suliman'
'Wiedemann, Dennis'
'Stanje, Bernhard'
'Dolotko, Oleksandr'
'Wilkening, Martin'
'Lerch, Martin'
_cell_length_a 13.1023(6)
_cell_length_b 4.00054(18)
_cell_length_c 16.5092(7)
_cell_angle_alpha 90
_cell_angle_beta 94.0840(10)
_cell_angle_gamma 90
_cell_volume 863.14
_cell_formula_units_Z 4
_symmetry_space_group_name_H-M 'C 1 2/m 1'
_symmetry_Int_Tables_number 12
_refine_ls_R_factor_all 0.0426
loop_
_symmetry_equiv_pos_site_id
_symmetry_equiv_pos_as_xyz
1 '-x, y, -z'
2 '-x, -y, -z'
3 'x, -y, z'
4 'x, y, z'
5 '-x+1/2, y+1/2, -z'
6 '-x+1/2, -y+1/2, -z'
7 'x+1/2, -y+1/2, z'
8 'x+1/2, y+1/2, z'
loop_
_atom_type_symbol
_atom_type_oxidation_number
Bi3+ 3
Li1+ 1
Bi3+ 3
Li1+ 1
Bi3+ 3
Li1+ 1
Bi3+ 3
Li1+ 1
Bi3+ 3
Li1+ 1
S2- -2
loop_
_atom_site_label
_atom_site_type_symbol
_atom_site_symmetry_multiplicity
_atom_site_Wyckoff_symbol
_atom_site_fract_x
_atom_site_fract_y
_atom_site_fract_z
_atom_site_B_iso_or_equiv
_atom_site_occupancy
_atom_site_attached_hydrogens
Bi1 Bi3+ 4 i 0.2378(2) 0.5 0.11120(14) 0.0223(13) 0.875(4) 0
Li1 Li1+ 4 i 0.2378(2) 0.5 0.11120(14) 0.0223(13) 0.125(4) 0
Bi2 Bi3+ 4 i 0.4725(2) 0. 0.21770(13) 0.0198(12) 0.862(3) 0
Li2 Li1+ 4 i 0.4725(2) 0. 0.21770(13) 0.0198(12) 0.138(3) 0
Bi3 Bi3+ 4 i 0.21592(16) 0. 0.39037(13) 0.0180(11) 0.943(5) 0
Li3 Li1+ 4 i 0.21592(16) 0. 0.39037(13) 0.0180(11) 0.057(5) 0
Bi4 Bi3+ 2 a 0. 0. 0. 0.019 0.467(4) 0
Li4 Li1+ 2 a 0. 0. 0. 0.019 0.533(4) 0
Bi5 Bi3+ 2 d 0. 0.5 0.5 0.019 0.172(4) 0
Li5 Li1+ 2 d 0. 0.5 0.5 0.019 0.828(4) 0
S1 S2- 4 i 0.3776(10) 0. 0.0548(7) 0.010(4) 1. 0
S2 S2- 4 i 0.1107(10) 0. 0.1494(7) 0.013(4) 1. 0
S3 S2- 4 i 0.3408(10) 0.5 0.2562(7) 0.019(4) 1. 0
S4 S2- 4 i 0.0650(8) 0.5 0.3725(7) 0.007(4) 1. 0
S5 S2- 4 i 0.3611(9) 0.5 0.4618(7) 0.017(4) 1. 0
#End of TTdata_430769-ICSD