
#(C) 2018 by FIZ Karlsruhe - Leibniz Institute for Information Infrastructure.  All rights reserved.
data_431037-ICSD
_database_code_ICSD 431037
_audit_creation_date 2017-08-01
_chemical_name_systematic 'Lithium heptaoxo-dititanoniobate(V)'
_chemical_formula_structural 'Li Ti2 Nb O7'
_chemical_formula_sum 'Li1 Nb1 O7 Ti2'
_exptl_crystal_density_diffrn 3.47
_cell_measurement_temperature 300.
_publ_section_title

;
A novel layered lithium niobium titanate as battery anode material: Crystal
structure and charge-discharge properties
;
loop_
_citation_id
_citation_journal_full
_citation_year
_citation_journal_volume
_citation_page_first
_citation_page_last
_citation_journal_id_ASTM
primary 'Solid State Ionics' 2016 295 72 77 SSIOD3
loop_
_publ_author_name
'Catti, Michele'
'Pinus, Ilya'
'Ruffo, Riccardo'
'Salamone, Matteo M.'
'Mari, Claudio M.'
_cell_length_a 9.2476(6)
_cell_length_b 16.9550(19)
_cell_length_c 3.75424(23)
_cell_angle_alpha 90.
_cell_angle_beta 90.
_cell_angle_gamma 90.
_cell_volume 588.63
_cell_formula_units_Z 4
_symmetry_space_group_name_H-M 'P b n m'
_symmetry_Int_Tables_number 62
_refine_ls_R_factor_all 0.0384
loop_
_symmetry_equiv_pos_site_id
_symmetry_equiv_pos_as_xyz
1 '-x+1/2, y+1/2, z'
2 'x, y, -z+1/2'
3 'x+1/2, -y+1/2, z+1/2'
4 '-x, -y, -z'
5 'x+1/2, -y+1/2, -z'
6 '-x, -y, z+1/2'
7 '-x+1/2, y+1/2, -z+1/2'
8 'x, y, z'
loop_
_atom_type_symbol
_atom_type_oxidation_number
Ti4+ 4
O2- -2
Nb5+ 5
Li1+ 1
loop_
_atom_site_label
_atom_site_type_symbol
_atom_site_symmetry_multiplicity
_atom_site_Wyckoff_symbol
_atom_site_fract_x
_atom_site_fract_y
_atom_site_fract_z
_atom_site_B_iso_or_equiv
_atom_site_occupancy
_atom_site_attached_hydrogens
Ti1 Ti4+ 4 c 0.9460(29) 0.0661(15) 0.25 0.001 0.852 0
Ti2 Ti4+ 4 c 0.2745(30) 0.0272(24) 0.25 0.043(11) 0.858 0
Ti3 Ti4+ 4 c 0.6498(23) 0.1360(15) 0.25 0.064(6) 0.29 0
O1 O2- 4 c 0.5618(11) 0.2310(9) 0.25 0.0439(32) 1. 0
O2 O2- 4 c 0.8423(10) 0.1581(7) 0.25 0.0105(22) 1. 0
O3 O2- 4 c 0.1345(9) 0.1106(6) 0.25 0.0145(19) 1. 0
O4 O2- 4 c 0.4371(10) 0.0769(6) 0.25 0.0166(21) 1. 0
O5 O2- 4 c 0.1507(8) 0.4031(6) 0.25 0.0095(20) 1. 0
O6 O2- 4 c 0.4421(9) 0.4590(6) 0.25 0.0027(18) 1. 0
O7 O2- 4 c 0.7499(12) 0.5075(7) 0.25 0.0161(20) 1. 0
Nb1 Nb5+ 4 c 0.9460(29) 0.0661(15) 0.25 0.001 0.148 0
Nb2 Nb5+ 4 c 0.2745(30) 0.0272(24) 0.25 0.043(11) 0.142 0
Nb3 Nb5+ 4 c 0.6498(23) 0.1360(15) 0.25 0.064(6) 0.71 0
Li1 Li1+ 4 c 0.055(4) 0.2050(16) 0.25 0.083(18) 1. 0
#End of TTdata_431037-ICSD