
#(C) 2018 by FIZ Karlsruhe - Leibniz Institute for Information Infrastructure.  All rights reserved.
data_431319-ICSD
_database_code_ICSD 431319
_audit_creation_date 2017-08-01
_chemical_name_systematic 'Dilithium distrontium aluminium tris(phosphate)'
_chemical_formula_structural 'Li2 Sr2 Al (P O4)3'
_chemical_formula_sum 'Al1 Li2 O12 P3 Sr2'
_chemical_name_structure_type Li3Fe2(PO4)3(P21/n)
_exptl_crystal_density_diffrn 3.53
_cell_measurement_temperature 293.
_publ_section_title

;
Synthesis, crystal structure, and ionic conductivity of a new layered metal
phosphate, Li2Sr2Al(PO4)3
;
loop_
_citation_id
_citation_journal_full
_citation_year
_citation_journal_volume
_citation_page_first
_citation_page_last
_citation_journal_id_ASTM
primary 'Journal of Solid State Chemistry' 2016 243 12 17 JSSCBI
loop_
_publ_author_name
'Kim, Sung-Chul'
'Kwak, Hyun-Jung'
'Yoo, Chung-Yul'
'Yun, Hoseop'
'Kim, Seung-Joo'
_cell_length_a 4.945(1)
_cell_length_b 22.088(3)
_cell_length_c 8.632(2)
_cell_angle_alpha 90.
_cell_angle_beta 91.47(1)
_cell_angle_gamma 90.
_cell_volume 942.52
_cell_formula_units_Z 4
_symmetry_space_group_name_H-M 'P 1 21/n 1'
_symmetry_Int_Tables_number 14
_refine_ls_R_factor_all 0.0391
loop_
_symmetry_equiv_pos_site_id
_symmetry_equiv_pos_as_xyz
1 '-x+1/2, y+1/2, -z+1/2'
2 '-x, -y, -z'
3 'x+1/2, -y+1/2, z+1/2'
4 'x, y, z'
loop_
_atom_type_symbol
_atom_type_oxidation_number
Li1+ 1
Sr2+ 2
Al3+ 3
P5+ 5
O2- -2
loop_
_atom_site_label
_atom_site_type_symbol
_atom_site_symmetry_multiplicity
_atom_site_Wyckoff_symbol
_atom_site_fract_x
_atom_site_fract_y
_atom_site_fract_z
_atom_site_B_iso_or_equiv
_atom_site_occupancy
_atom_site_attached_hydrogens
Li1 Li1+ 4 e 0.2282(18) 0.4308(4) 0.9032(10) 0.0185(18) 1 0
Li2 Li1+ 4 e 0.7388(16) 0.2356(5) 1.0697(10) 0.0174(18) 1 0
Sr1 Sr2+ 4 e 0.71698(9) 0.33966(2) 0.73597(5) 0.01190(17) 1 0
Sr2 Sr2+ 4 e 0.76352(9) 0.16090(2) 0.74358(5) 0.01152(17) 1 0
Al1 Al3+ 4 e 0.2379(3) 0.50881(7) 1.24988(14) 0.0083(3) 1 0
P1 P5+ 4 e 0.2417(2) 0.42373(6) 0.56534(14) 0.0084(3) 1 0
P2 P5+ 4 e 0.7234(2) 0.43385(6) 1.09699(14) 0.0085(3) 1 0
P3 P5+ 4 e 0.2428(2) 0.27281(6) 0.91005(13) 0.0089(3) 1 0
O1 O2- 4 e 0.7700(6) 0.37333(15) 1.1731(4) 0.0143(7) 1 0
O2 O2- 4 e -0.0894(6) 0.48306(15) 1.1627(4) 0.0114(7) 1 0
O3 O2- 4 e 0.4547(6) 0.44738(15) 0.6832(4) 0.0121(7) 1 0
O4 O2- 4 e 0.4235(6) 0.45329(15) 1.1172(4) 0.0113(7) 1 0
O5 O2- 4 e 0.3987(7) 0.24952(14) 0.7712(4) 0.0127(7) 1 0
O6 O2- 4 e 0.9424(7) 0.25582(14) 0.8940(4) 0.0144(8) 1 0
O7 O2- 4 e 0.7705(6) 0.42973(15) 0.9201(4) 0.0125(7) 1 0
O8 O2- 4 e 0.8640(7) 0.25332(14) 0.5621(4) 0.0141(8) 1 0
O9 O2- 4 e 0.9625(6) 0.43283(15) 0.6368(4) 0.0114(7) 1 0
O10 O2- 4 e 0.2567(6) 0.45240(15) 1.4057(4) 0.0149(7) 1 0
O11 O2- 4 e 0.2670(7) 0.34235(14) 0.9159(4) 0.0152(8) 1 0
O12 O2- 4 e 0.2885(7) 0.35560(16) 0.5445(4) 0.0147(7) 1 0
loop_
_atom_site_aniso_label
_atom_site_aniso_type_symbol
_atom_site_aniso_U_11
_atom_site_aniso_U_22
_atom_site_aniso_U_33
_atom_site_aniso_U_12
_atom_site_aniso_U_13
_atom_site_aniso_U_23
Li1 Li1+ 0.027(4) 0.018(5) 0.010(4) 0.002(4) -0.006(4) -0.002(3)
Li2 Li1+ 0.009(4) 0.037(5) 0.006(4) -0.002(4) -0.005(3) 0.003(4)
Sr1 Sr2+ 0.0143(3) 0.0103(3) 0.0110(3) -0.00052(16) -0.00206(19) 0.00003(16)
Sr2 Sr2+ 0.0148(3) 0.0121(3) 0.0075(3) 0.00003(17) -0.00244(19) 0.00008(16)
Al1 Al3+ 0.0077(7) 0.0129(8) 0.0040(7) -0.0004(5) -0.0038(6) -0.0006(5)
P1 P5+ 0.0100(5) 0.0092(6) 0.0058(5) 0.0002(5) -0.0020(4) 0.0001(4)
P2 P5+ 0.0093(5) 0.0109(6) 0.0053(5) -0.0001(5) -0.0023(4) 0.0000(5)
P3 P5+ 0.0098(5) 0.0120(7) 0.0049(5) -0.0004(5) -0.0031(4) -0.0001(5)
O1 O2- 0.0153(15) 0.0166(18) 0.0109(16) 0.0018(14) -0.0025(13) 0.0033(14)
O2 O2- 0.0078(14) 0.0176(18) 0.0083(15) -0.0001(14) -0.0066(12) -0.0030(14)
O3 O2- 0.0111(14) 0.0171(18) 0.0077(15) -0.0022(14) -0.0045(12) -0.0014(13)
O4 O2- 0.0114(14) 0.0153(18) 0.0073(15) 0.0003(13) 0.0005(13) -0.0005(13)
O5 O2- 0.0133(16) 0.0178(19) 0.0070(17) 0.0005(13) -0.0008(13) -0.0013(12)
O6 O2- 0.0144(16) 0.0168(19) 0.0121(18) -0.0022(13) 0.0018(14) 0.0014(13)
O7 O2- 0.0158(15) 0.0142(18) 0.0074(16) 0.0008(14) 0.0005(13) 0.0014(13)
O8 O2- 0.0155(17) 0.019(2) 0.0080(17) -0.0013(13) 0.0005(14) -0.0030(13)
O9 O2- 0.0103(14) 0.0138(17) 0.0101(16) -0.0012(13) -0.0021(13) -0.0010(14)
O10 O2- 0.0178(16) 0.0172(19) 0.0097(16) 0.0016(14) 0.0000(14) 0.0044(14)
O11 O2- 0.0207(17) 0.0086(18) 0.0164(18) 0.0013(13) -0.0002(15) -0.0003(13)
O12 O2- 0.0193(16) 0.0147(18) 0.0100(16) 0.0037(15) -0.0047(14) 0.0013(14)
#End of TTdata_431319-ICSD