
#(C) 2018 by FIZ Karlsruhe - Leibniz Institute for Information Infrastructure.  All rights reserved.
data_431339-ICSD
_database_code_ICSD 431339
_audit_creation_date 2018-02-01
_chemical_name_systematic 'Lithium cesium molybdenum oxide (1/1/3/10)'
_chemical_formula_structural 'Li Cs Mo3 O10'
_chemical_formula_sum 'Cs1 Li1 Mo3 O10'
_exptl_crystal_density_diffrn 4.27
_cell_measurement_temperature 296.
_publ_section_title

;
The enhancement of birefringence resulted from anionic dimensionality changes
through adjusting cationic density
;
loop_
_citation_id
_citation_journal_full
_citation_year
_citation_journal_volume
_citation_page_first
_citation_page_last
_citation_journal_id_ASTM
primary 'Journal of Alloys and Compounds' 2017 717 317 325 JALCEU
loop_
_publ_author_name
'Liu, Lili'
'Yang, Yun'
'Yang, Zhihua'
'Pan, Shilie'
_cell_length_a 8.6487(14)
_cell_length_b 7.5933(10)
_cell_length_c 13.9199(19)
_cell_angle_alpha 90.
_cell_angle_beta 90.
_cell_angle_gamma 90.
_cell_volume 914.15
_cell_formula_units_Z 4
_symmetry_space_group_name_H-M 'P n m a'
_symmetry_Int_Tables_number 62
_refine_ls_R_factor_all 0.0367
loop_
_symmetry_equiv_pos_site_id
_symmetry_equiv_pos_as_xyz
1 'x+1/2, y, -z+1/2'
2 'x, -y+1/2, z'
3 '-x+1/2, y+1/2, z+1/2'
4 '-x, -y, -z'
5 '-x+1/2, -y, z+1/2'
6 '-x, y+1/2, -z'
7 'x+1/2, -y+1/2, -z+1/2'
8 'x, y, z'
loop_
_atom_type_symbol
_atom_type_oxidation_number
Cs1+ 1
Mo6+ 6
O2- -2
Li1+ 1
loop_
_atom_site_label
_atom_site_type_symbol
_atom_site_symmetry_multiplicity
_atom_site_Wyckoff_symbol
_atom_site_fract_x
_atom_site_fract_y
_atom_site_fract_z
_atom_site_B_iso_or_equiv
_atom_site_occupancy
_atom_site_attached_hydrogens
Cs1 Cs1+ 4 c 0.60056(8) 0.25 0.60124(4) 0.0219(3) 1 0
Mo1 Mo6+ 4 c 0.17472(8) 0.25 0.40523(4) 0.0104(3) 1 0
Mo2 Mo6+ 8 d 0.86840(7) -0.00006(6) 0.40075(3) 0.0106(2) 1 0
O1 O2- 4 c 0.9201(7) 0.25 0.4161(4) 0.0116(11) 1 0
O2 O2- 8 d 0.1160(5) 0.0125(4) 0.4381(3) 0.0124(8) 1 0
O3 O2- 4 c 0.8658(6) -0.25 0.4327(4) 0.0142(11) 1 0
O4 O2- 8 d 0.9115(5) -0.0258(5) 0.2826(3) 0.0201(9) 1 0
O5 O2- 4 c 0.1544(7) 0.25 0.2833(4) 0.0181(12) 1 0
O6 O2- 8 d 0.6722(5) 0.0445(6) 0.4032(3) 0.0188(10) 1 0
O7 O2- 4 c 0.3729(7) 0.25 0.4228(5) 0.0191(13) 1 0
Li1 Li1+ 4 c 0.0511(18) 0.25 0.1614(12) 0.031(3) 1 0
loop_
_atom_site_aniso_label
_atom_site_aniso_type_symbol
_atom_site_aniso_U_11
_atom_site_aniso_U_22
_atom_site_aniso_U_33
_atom_site_aniso_U_12
_atom_site_aniso_U_13
_atom_site_aniso_U_23
Cs1 Cs1+ 0.0289(4) 0.0221(4) 0.0148(4) 0. 0.0016(2) 0.
Mo1 Mo6+ 0.0113(4) 0.0105(4) 0.0094(4) 0. 0.0015(2) 0.
Mo2 Mo6+ 0.0149(4) 0.0075(3) 0.0094(4) -0.00038(17) -0.00178(17) 0.00027(13)
O1 O2- 0.013(3) 0.007(2) 0.015(3) 0. 0.001(2) 0.
O2 O2- 0.017(2) 0.0098(17) 0.011(2) -0.0002(13) -0.0040(16) 0.0000(13)
O3 O2- 0.018(3) 0.010(2) 0.014(3) 0. -0.001(2) 0.
O4 O2- 0.023(2) 0.0228(19) 0.015(2) 0.0013(16) -0.0049(18) -0.0047(15)
O5 O2- 0.026(3) 0.017(3) 0.011(3) 0. -0.001(2) 0.
O6 O2- 0.024(3) 0.0146(19) 0.018(2) 0.0028(18) -0.0007(16) 0.0011(15)
O7 O2- 0.020(3) 0.018(3) 0.020(3) 0. 0.000(2) 0.
Li1 Li1+ 0.024(8) 0.041(8) 0.027(9) 0. -0.015(7) 0.
#End of TTdata_431339-ICSD