
#(C) 2018 by FIZ Karlsruhe - Leibniz Institute for Information Infrastructure.  All rights reserved.
data_431573-ICSD
_database_code_ICSD 431573
_audit_creation_date 2017-08-01
_chemical_name_systematic 'Dilithium diphosphido-silicate'
_chemical_formula_structural 'Li2 Si P2'
_chemical_formula_sum 'Li2 P2 Si1'
_exptl_crystal_density_diffrn 2.02
_cell_measurement_temperature 298.
_publ_section_title
'Supertetrahedral networks and lithium-ion mobility in Li2SiP2 and LiSi2P3'
loop_
_citation_id
_citation_journal_full
_citation_year
_citation_journal_volume
_citation_page_first
_citation_page_last
_citation_journal_id_ASTM
primary 'Angewandte Chemie, International Edition' 2016 55 13585 13588 ACIEF5
loop_
_publ_author_name
'Haffner, Arthur'
'Braeuniger, Thomas'
'Johrendt, Dirk'
_cell_length_a 12.1107(10)
_cell_length_b 12.1107(10)
_cell_length_c 18.6582(16)
_cell_angle_alpha 90
_cell_angle_beta 90
_cell_angle_gamma 90
_cell_volume 2736.58
_cell_formula_units_Z 32
_symmetry_space_group_name_H-M 'I 41/a c d Z'
_symmetry_Int_Tables_number 142
_refine_ls_R_factor_all 0.0232
loop_
_symmetry_equiv_pos_site_id
_symmetry_equiv_pos_as_xyz
1 'y+1/4, x+3/4, -z+3/4'
2 '-y+3/4, x+3/4, -z+1/4'
3 'x, y+1/2, -z'
4 '-x, y+1/2, -z+1/2'
5 '-y+3/4, -x+1/4, z+1/4'
6 'y+1/4, -x+1/4, z+3/4'
7 '-x, -y+1/2, z'
8 'x, -y+1/2, z+1/2'
9 'y+1/4, -x+3/4, -z+1/4'
10 '-y+3/4, -x+3/4, -z+3/4'
11 'x, -y, -z+1/2'
12 '-x, -y, -z'
13 '-y+3/4, x+1/4, z+3/4'
14 'y+1/4, x+1/4, z+1/4'
15 '-x, y, z+1/2'
16 'x, y, z'
17 'y+3/4, x+1/4, -z+1/4'
18 '-y+1/4, x+1/4, -z+3/4'
19 'x+1/2, y, -z+1/2'
20 '-x+1/2, y, -z'
21 '-y+1/4, -x+3/4, z+3/4'
22 'y+3/4, -x+3/4, z+1/4'
23 '-x+1/2, -y, z+1/2'
24 'x+1/2, -y, z'
25 'y+3/4, -x+1/4, -z+3/4'
26 '-y+1/4, -x+1/4, -z+1/4'
27 'x+1/2, -y+1/2, -z'
28 '-x+1/2, -y+1/2, -z+1/2'
29 '-y+1/4, x+3/4, z+1/4'
30 'y+3/4, x+3/4, z+3/4'
31 '-x+1/2, y+1/2, z'
32 'x+1/2, y+1/2, z+1/2'
loop_
_atom_type_symbol
_atom_type_oxidation_number
P3- -3
Si4+ 4
Li1+ 1
loop_
_atom_site_label
_atom_site_type_symbol
_atom_site_symmetry_multiplicity
_atom_site_Wyckoff_symbol
_atom_site_fract_x
_atom_site_fract_y
_atom_site_fract_z
_atom_site_B_iso_or_equiv
_atom_site_occupancy
_atom_site_attached_hydrogens
P1 P3- 32 g 0.53452(4) 0.03715(4) 0.12236(3) 0.01111(14) 1 0
P2 P3- 16 e 0.75 0.06796(6) 0. 0.00887(17) 1 0
P3 P3- 16 d 0.5 0.25 -0.01885(4) 0.01041(18) 1 0
Si1 Si4+ 32 g 0.62070(4) 0.16757(4) 0.05714(3) 0.00790(14) 1 0
Li1 Li1+ 16 f 0.5949(3) -0.1551(3) 0.125 0.0176(11) 1 0
Li2 Li1+ 32 g 0.6218(4) -0.0910(4) -0.0317(2) 0.0273(10) 1 0
Li3 Li1+ 16 f 0.8496(5) 0.0996(5) 0.125 0.0372(16) 1 0
loop_
_atom_site_aniso_label
_atom_site_aniso_type_symbol
_atom_site_aniso_U_11
_atom_site_aniso_U_22
_atom_site_aniso_U_33
_atom_site_aniso_U_12
_atom_site_aniso_U_13
_atom_site_aniso_U_23
P1 P3- 0.0117(3) 0.0080(3) 0.0136(3) 0.0000(2) 0.0040(2) 0.0003(2)
P2 P3- 0.0081(4) 0.0076(4) 0.0109(4) 0. 0.0032(3) 0.
P3 P3- 0.0112(4) 0.0114(4) 0.0086(3) 0.0012(3) 0. 0.
Si1 Si4+ 0.0074(3) 0.0075(3) 0.0088(3) 0.0002(2) 0.0013(2) -0.0014(2)
Li1 Li1+ 0.0179(17) 0.0179(17) 0.017(3) 0.006(2) 0.0002(15) -0.0002(15)
Li2 Li1+ 0.031(2) 0.023(2) 0.028(2) -0.0079(18) -0.0015(18) -0.0020(18)
Li3 Li1+ 0.042(2) 0.042(2) 0.028(3) 0.014(3) -0.004(2) 0.004(2)
#End of TTdata_431573-ICSD