
#(C) 2018 by FIZ Karlsruhe - Leibniz Institute for Information Infrastructure.  All rights reserved.
data_432281-ICSD
_database_code_ICSD 432281
_audit_creation_date 2018-02-01
_chemical_name_systematic 'Cobalt lithium phosphate(V)'
_chemical_formula_structural 'Co1.03 Li0.95 (P O4)'
_chemical_formula_sum 'Co1.03 Li0.95 O4 P1'
_chemical_name_structure_type KNiPO4
_exptl_crystal_density_diffrn 3.22
_cell_measurement_temperature 298.
_publ_section_title

;
Synthesis and characterization of metastable, 20 nm-sized Pna21-LiCoPO4
nanospheres
;
loop_
_citation_id
_citation_journal_full
_citation_year
_citation_journal_volume
_citation_page_first
_citation_page_last
_citation_journal_id_ASTM
primary 'Journal of Solid State Chemistry' 2017 248 9 17 JSSCBI
loop_
_publ_author_name
'Ludwig, Jennifer'
'Nordlund, Dennis'
'Doeff, Marca M.'
'Nilges, Tom'
_cell_length_a 10.035(4)
_cell_length_b 4.967(2)
_cell_length_c 6.716(2)
_cell_angle_alpha 90
_cell_angle_beta 90
_cell_angle_gamma 90
_cell_volume 334.75
_cell_formula_units_Z 4
_symmetry_space_group_name_H-M 'P n a 21'
_symmetry_Int_Tables_number 33
_refine_ls_R_factor_all 0.0213
loop_
_symmetry_equiv_pos_site_id
_symmetry_equiv_pos_as_xyz
1 'x+1/2, -y+1/2, z'
2 '-x+1/2, y+1/2, z+1/2'
3 '-x, -y, z+1/2'
4 'x, y, z'
loop_
_atom_type_symbol
_atom_type_oxidation_number
Li1+ 1
Co2+ 2
P5+ 5
O2- -2
loop_
_atom_site_label
_atom_site_type_symbol
_atom_site_symmetry_multiplicity
_atom_site_Wyckoff_symbol
_atom_site_fract_x
_atom_site_fract_y
_atom_site_fract_z
_atom_site_B_iso_or_equiv
_atom_site_occupancy
_atom_site_attached_hydrogens
Li1 Li1+ 4 a 0.15412 0.18989 0.51848 0.0139 0.952(8) 0
Co1 Co2+ 4 a 0.15412 0.18989 0.51848 0.0139 0.048(8) 0
Co2 Co2+ 4 a 0.1544(12) 0.199(3) 0 0.019(6) 0.979(12) 0
P1 P5+ 4 a 0.403(4) 0.233(9) 0.2404(17) 0.012(3) 1 0
O1 O2- 4 a 0.080(6) 0.269(10) 0.259(9) 0.009(2) 1 0
O2 O2- 4 a 0.084(4) 0.323(5) 0.791(5) 0.007(2) 1 0
O3 O2- 4 a 0.365(3) 0.285(9) 0.528(9) 0.008(2) 1 0
O4 O2- 4 a 0.311(2) 0.273(6) 0.051(6) 0.006(2) 1 0
#End of TTdata_432281-ICSD