
#(C) 2017 by FIZ Karlsruhe - Leibniz Institute for Information Infrastructure.  All rights reserved.
data_48012-ICSD
_database_code_ICSD 48012
_audit_creation_date 1980-01-01
_audit_update_record 2009-02-01
_chemical_name_systematic 'Lithium aluminium fluoride phosphate(V)'
_chemical_formula_structural 'Li Al F (P O4)'
_chemical_formula_sum 'Al1 F1 Li1 O4 P1'
_chemical_name_structure_type Amblygonite
_chemical_name_mineral Amblygonite
_exptl_crystal_density_diffrn 3.07
_publ_section_title

;
The determination of the structure of amblygonite by the Minimum-Function
Method
;
loop_
_citation_id
_citation_journal_full
_citation_year
_citation_journal_volume
_citation_page_first
_citation_page_last
_citation_journal_id_ASTM
primary Kristallografiya 1958 3 428 437 KRISAJ
loop_
_publ_author_name
'Simonov, V.I.'
'Belov, N.V.'
_cell_length_a 5.06
_cell_length_b 5.16
_cell_length_c 7.08
_cell_angle_alpha 109.87
_cell_angle_beta 107.5
_cell_angle_gamma 97.9
_cell_volume 159.78
_cell_formula_units_Z 2
_symmetry_space_group_name_H-M 'P -1'
_symmetry_Int_Tables_number 2
_refine_ls_R_factor_all 0.15
loop_
_symmetry_equiv_pos_site_id
_symmetry_equiv_pos_as_xyz
1 '-x, -y, -z'
2 'x, y, z'
loop_
_atom_type_symbol
_atom_type_oxidation_number
Al3+ 3
P5+ 5
O2- -2
F1- -1
Li1+ 1
loop_
_atom_site_label
_atom_site_type_symbol
_atom_site_symmetry_multiplicity
_atom_site_Wyckoff_symbol
_atom_site_fract_x
_atom_site_fract_y
_atom_site_fract_z
_atom_site_B_iso_or_equiv
_atom_site_occupancy
_atom_site_attached_hydrogens
Al1 Al3+ 1 a 0 0 0 0.5 1. 0
Al2 Al3+ 1 h 0.5 0.5 0.5 0.5 1. 0
P1 P5+ 2 i 0.565 0.883 0.238 0.5 1. 0
O1 O2- 2 i 0.646 0.68 0.3485 0.5 1. 0
O2 O2- 2 i 0.659 0.194 0.402 0.5 1. 0
O3 O2- 2 i 0.724 0.836 0.0805 0.5 1. 0
O4 O2- 2 i 0.234 0.795 0.1115 0.5 1. 0
F1 F1- 2 i 0.143 0.319 0.267 0.5 1. 0
Li1 Li1+ 2 i 0.92 0.575 0.18 0.5 0.5 0
Li2 Li1+ 2 i 0.995 0.65 0.25 0.5 0.5 0
#End of TTdata_48012-ICSD