
#(C) 2018 by FIZ Karlsruhe - Leibniz Institute for Information Infrastructure.  All rights reserved.
data_50588-ICSD
_database_code_ICSD 50588
_audit_creation_date 2000-07-15
_audit_update_record 2014-08-01
_chemical_name_systematic 'Dilithium fluorophosphato(V)niccolatee'
_chemical_formula_structural 'Li2 (Ni F (P O4))'
_chemical_formula_sum 'F1 Li2 Ni1 O4 P1'
_chemical_name_structure_type Li2NiFPO4
_exptl_crystal_density_diffrn 3.47
_publ_section_title

;
Synthesis and crystal structure of a new lithium nickel fluorophosphate Li2
(Ni F (P O4)) with an ordered mixed anionic framework
;
loop_
_citation_id
_citation_journal_full
_citation_year
_citation_journal_volume
_citation_page_first
_citation_page_last
_citation_journal_id_ASTM
primary 'Journal of Solid State Chemistry' 1999 142 1 5 JSSCBI
loop_
_publ_author_name
'Dutreilh, M.'
'Chevalier, C.'
'El Ghozzi, M.'
'Avignant, D.'
_cell_length_a 10.473(3)
_cell_length_b 6.2887(8)
_cell_length_c 10.846(1)
_cell_angle_alpha 90.
_cell_angle_beta 90.
_cell_angle_gamma 90.
_cell_volume 714.33
_cell_formula_units_Z 8
_symmetry_space_group_name_H-M 'P n m a'
_symmetry_Int_Tables_number 62
_refine_ls_R_factor_all 0.03
loop_
_symmetry_equiv_pos_site_id
_symmetry_equiv_pos_as_xyz
1 'x+1/2, y, -z+1/2'
2 'x, -y+1/2, z'
3 '-x+1/2, y+1/2, z+1/2'
4 '-x, -y, -z'
5 '-x+1/2, -y, z+1/2'
6 '-x, y+1/2, -z'
7 'x+1/2, -y+1/2, -z+1/2'
8 'x, y, z'
loop_
_atom_type_symbol
_atom_type_oxidation_number
Ni2+ 2
P5+ 5
Li1+ 1
O2- -2
F1- -1
loop_
_atom_site_label
_atom_site_type_symbol
_atom_site_symmetry_multiplicity
_atom_site_Wyckoff_symbol
_atom_site_fract_x
_atom_site_fract_y
_atom_site_fract_z
_atom_site_B_iso_or_equiv
_atom_site_occupancy
_atom_site_attached_hydrogens
Ni1 Ni2+ 4 a 0 0 0 0.36(1) 1. 0
Ni2 Ni2+ 4 b 0.5 0 0 0.38(1) 1. 0
P1 P5+ 4 c 0.4764(2) 0.25 0.2441(2) 0.26(2) 1. 0
P2 P5+ 4 c 0.2432(2) 0.75 0.0781(2) 0.32(3) 1. 0
Li1 Li1+ 8 d 0.260(1) 0.488(2) 0.835(1) 1.5(2) 1. 0
Li2 Li1+ 4 c 0.729(1) 0.25 0.418(1) 0.4(2) 1. 0
Li3 Li1+ 4 c 0.473(1) 0.25 0.776(1) 0.2(2) 1. 0
O1 O2- 8 d 0.3109(4) 0.4506(6) 0.5150(4) 0.94(6) 1. 0
O2 O2- 4 c 0.7816(6) 0.25 0.7833(5) 1.2(1) 1. 0
O3 O2- 4 c 0.3306(6) 0.25 0.2440(7) 1.23(9) 1. 0
O4 O2- 4 c 0.8890(6) 0.75 0.4478(6) 1.0(1) 1. 0
O5 O2- 4 c 0.5261(6) 0.25 0.3785(5) 0.82(9) 1. 0
O6 O2- 8 d 0.9680(4) 0.9483(7) 0.6805(4) 0.99(7) 1. 0
F1 F1- 4 c 0.6272(5) 0.75 0.0271(5) 0.61(8) 1. 0
F2 F1- 4 c 0.5497(5) 0.25 0.6162(5) 0.62(8) 1. 0
#End of TTdata_50588-ICSD