
#(C) 2018 by FIZ Karlsruhe - Leibniz Institute for Information Infrastructure.  All rights reserved.
data_50958-ICSD
_database_code_ICSD 50958
_audit_creation_date 2000-12-16
_audit_update_record 2005-10-01
_chemical_name_systematic
'Nonalithium triiron(III) tris(diphosphate(V)) bis(phosphate(V))'
_chemical_formula_structural 'Li9 Fe3 (P2 O7)3 (P O4)2'
_chemical_formula_sum 'Fe3 Li9 O29 P8'
_chemical_name_structure_type Li9Al3(P2O7)3(PO4)2
_exptl_crystal_density_diffrn 2.81
_cell_measurement_temperature 294.
_publ_section_title

;
Crystal structure and cation transport properties of the layered
monodiphosphates: Li9 M3 (P2 O7)3 (P O4)3 (M= Al, Ga, Cr, Fe)
;
loop_
_citation_id
_citation_journal_full
_citation_year
_citation_journal_volume
_citation_page_first
_citation_page_last
_citation_journal_id_ASTM
primary 'Journal of Solid State Chemistry' 1998 138 32 40 JSSCBI
loop_
_publ_author_name
'Poisson, S.'
'd'Yvoire, F.'
'Nguyen, H.D.'
'Bretey, E.'
'Berthet, P.'
_cell_length_a 9.721(2)
_cell_length_b 9.721(2)
_cell_length_c 13.594(5)
_cell_angle_alpha 90.
_cell_angle_beta 90.
_cell_angle_gamma 120.
_cell_volume 1112.5
_cell_formula_units_Z 2
_symmetry_space_group_name_H-M 'P -3 c 1'
_symmetry_Int_Tables_number 165
_refine_ls_R_factor_all 0.025
loop_
_symmetry_equiv_pos_site_id
_symmetry_equiv_pos_as_xyz
1 'x-y, -y, -z+1/2'
2 '-x, -x+y, -z+1/2'
3 'y, x, -z+1/2'
4 'x-y, x, -z'
5 'y, -x+y, -z'
6 '-x, -y, -z'
7 '-x+y, y, z+1/2'
8 'x, x-y, z+1/2'
9 '-y, -x, z+1/2'
10 '-x+y, -x, z'
11 '-y, x-y, z'
12 'x, y, z'
loop_
_atom_type_symbol
_atom_type_oxidation_number
P5+ 5
Fe3+ 3
Li1+ 1
O2- -2
loop_
_atom_site_label
_atom_site_type_symbol
_atom_site_symmetry_multiplicity
_atom_site_Wyckoff_symbol
_atom_site_fract_x
_atom_site_fract_y
_atom_site_fract_z
_atom_site_B_iso_or_equiv
_atom_site_occupancy
_atom_site_attached_hydrogens
P1 P5+ 4 d 0.6667 0.3333 0.62484(9) 0.47(1) 1. 0
P2 P5+ 12 g 0.31610(8) 0.08895(8) 0.84424(5) 0.52(1) 1. 0
Fe1 Fe3+ 6 f 0.56704(6) 0 0.75 0.52(1) 1. 0
Li1 Li1+ 2 b 0 0 0 5.7(5) 1. 0
Li2 Li1+ 4 d 0.6667 0.3333 0.8813(7) 1.7(1) 1. 0
Li3 Li1+ 12 g 0.3341(7) 0.0989(6) 0.0631(4) 1.5(1) 1. 0
O1 O2- 4 d 0.6667 0.3333 0.5143(3) 2.25(6) 1. 0
O2 O2- 6 f 0.2128(3) 0 0.75 0.96(6) 1. 0
O3 O2- 12 g 0.6778(2) 0.1899(2) 0.6631(2) 0.92(4) 1. 0
O4 O2- 12 g 0.4802(2) 0.1075(2) 0.8324(2) 0.94(4) 1. 0
O5 O2- 12 g 0.3297(2) 0.2516(2) 0.8446(1) 0.77(4) 1. 0
O6 O2- 12 g 0.2268(3) -.0049(2) 0.9330(2) 1.17(4) 1. 0
#End of TTdata_50958-ICSD