
#(C) 2018 by FIZ Karlsruhe - Leibniz Institute for Information Infrastructure.  All rights reserved.
data_51078-ICSD
_database_code_ICSD 51078
_audit_creation_date 2001-07-16
_chemical_name_systematic 'Lithium vanadium boron oxide (0.31/0.69/1/5)'
_chemical_formula_structural '(Li0.31 V0.69)3 B O5'
_chemical_formula_sum 'B1 Li0.93 O5 V2.07'
_chemical_name_structure_type Ludwigite
_exptl_crystal_density_diffrn 4.01
_cell_measurement_temperature 297.
_publ_section_title

;
Crystal structure and electronic state of the disordered S=1 system (Li(x)
V(1-x)3) B O5 with x = 0.3
;
loop_
_citation_id
_citation_journal_full
_citation_year
_citation_journal_volume
_citation_page_first
_citation_page_last
_citation_journal_id_ASTM
primary 'Journal of Solid State Chemistry' 1998 141 418 423 JSSCBI
loop_
_publ_author_name
'Onoda, M.'
_cell_length_a 9.195(1)
_cell_length_b 12.209(1)
_cell_length_c 2.9922(9)
_cell_angle_alpha 90.
_cell_angle_beta 90.
_cell_angle_gamma 90.
_cell_volume 335.91
_cell_formula_units_Z 4
_symmetry_space_group_name_H-M 'P b a m'
_symmetry_Int_Tables_number 55
_refine_ls_R_factor_all 0.017
loop_
_symmetry_equiv_pos_site_id
_symmetry_equiv_pos_as_xyz
1 'x+1/2, -y+1/2, z'
2 '-x+1/2, y+1/2, z'
3 'x, y, -z'
4 '-x, -y, -z'
5 '-x+1/2, y+1/2, -z'
6 'x+1/2, -y+1/2, -z'
7 '-x, -y, z'
8 'x, y, z'
loop_
_atom_type_symbol
_atom_type_oxidation_number
V2+ 2.932
Li1+ 1
V2+ 2.932
Li1+ 1
V2+ 2.932
Li1+ 1
V2+ 2.932
Li1+ 1
O2- -2
B3+ 3
loop_
_atom_site_label
_atom_site_type_symbol
_atom_site_symmetry_multiplicity
_atom_site_Wyckoff_symbol
_atom_site_fract_x
_atom_site_fract_y
_atom_site_fract_z
_atom_site_B_iso_or_equiv
_atom_site_occupancy
_atom_site_attached_hydrogens
V1 V2+ 4 h 0.24183(3) 0.11146(2) 0.5 . 0.69 0
Li1 Li1+ 4 h 0.24183(3) 0.11146(2) 0.5 . 0.31 0
V2 V2+ 4 g 0.00191(4) 0.28162(3) 0 . 0.69 0
Li2 Li1+ 4 g 0.00191(4) 0.28162(3) 0 . 0.31 0
V3 V2+ 2 a 0 0 0 . 0.69 0
Li3 Li1+ 2 a 0 0 0 . 0.31 0
V4 V2+ 2 d 0 0.5 0.5 . 0.69 0
Li4 Li1+ 2 d 0 0.5 0.5 . 0.31 0
O1 O2- 4 g 0.1077(4) 0.14498(9) 0 . 1. 0
O2 O2- 4 g 0.3837(1) 0.07476(8) 0 . 1. 0
O3 O2- 4 h 0.1260(1) 0.35758(9) 0.5 . 1. 0
O4 O2- 4 h 0.3514(1) 0.45679(8) 0.5 . 1. 0
O5 O2- 4 h 0.3510(1) 0.26147(8) 0.5 . 1. 0
B1 B3+ 4 h 0.2756(2) 0.3595(1) 0.5 . 1. 0
loop_
_atom_site_aniso_label
_atom_site_aniso_type_symbol
_atom_site_aniso_U_11
_atom_site_aniso_U_22
_atom_site_aniso_U_33
_atom_site_aniso_U_12
_atom_site_aniso_U_13
_atom_site_aniso_U_23
V1 V2+ 0.00580(9) 0.00521(8) 0.00569(9) -.00064(8) 0 0
Li1 Li1+ 0.00580(9) 0.00521(8) 0.00569(9) -.00064(8) 0 0
V2 V2+ 0.0046(2) 0.0055(1) 0.0070(2) 0.0002(1) 0 0
Li2 Li1+ 0.0046(2) 0.0055(1) 0.0070(2) 0.0002(1) 0 0
V3 V2+ 0.0050(2) 0.0051(2) 0.0071(3) -.0003(2) 0 0
Li3 Li1+ 0.0050(2) 0.0051(2) 0.0071(3) -.0003(2) 0 0
V4 V2+ 0.0079(2) 0.0061(2) 0.0078(2) 0.0019(1) 0 0
Li4 Li1+ 0.0079(2) 0.0061(2) 0.0078(2) 0.0019(1) 0 0
O1 O2- 0.0082(4) 0.0117(4) 0.0076(5) 0.0019(4) 0 0
O2 O2- 0.0075(4) 0.0087(4) 0.0104(5) 0.0012(3) 0 0
O3 O2- 0.0058(4) 0.0091(4) 0.0161(5) 0.0002(4) 0 0
O4 O2- 0.0075(4) 0.0062(4) 0.0140(5) -.0005(3) 0 0
O5 O2- 0.0073(4) 0.0060(4) 0.0151(6) 0.0009(3) 0 0
B1 B3+ 0.0071(6) 0.0069(5) 0.0082(6) 0.0000(5) 0 0
#End of TTdata_51078-ICSD