
#(C) 2018 by FIZ Karlsruhe - Leibniz Institute for Information Infrastructure.  All rights reserved.
data_51632-ICSD
_database_code_ICSD 51632
_audit_creation_date 2003-10-01
_chemical_name_systematic 'Lithium mangansese tris(phosphate(V))'
_chemical_formula_structural 'Li Mn (P O3)3'
_chemical_formula_sum 'Li1 Mn1 O9 P3'
_chemical_name_structure_type CuLiP3O9
_exptl_crystal_density_diffrn 3.2
_publ_section_title

;
Synthesis and crystal structures of lithium polyphosphates, Li P O3, Li4 H (P
O3)5, and Li Mn (P O3)3
;
loop_
_citation_id
_citation_journal_full
_citation_year
_citation_journal_volume
_citation_page_first
_citation_page_last
_citation_journal_id_ASTM
primary Kristallografiya 2001 46 1024 1029 KRISAJ
loop_
_publ_author_name
'Murashova, E.V.'
'Chudinova, N.N.'
_cell_length_a 8.364(2)
_cell_length_b 8.561(2)
_cell_length_c 8.6600(9)
_cell_angle_alpha 90
_cell_angle_beta 90
_cell_angle_gamma 90
_cell_volume 620.09
_cell_formula_units_Z 4
_symmetry_space_group_name_H-M 'P 21 21 21'
_symmetry_Int_Tables_number 19
_refine_ls_R_factor_all 0.035
loop_
_symmetry_equiv_pos_site_id
_symmetry_equiv_pos_as_xyz
1 '-x, y+1/2, -z+1/2'
2 'x+1/2, -y+1/2, -z'
3 '-x+1/2, -y, z+1/2'
4 'x, y, z'
loop_
_atom_type_symbol
_atom_type_oxidation_number
Mn2+ 2
P5+ 5
O2- -2
Li1+ 1
loop_
_atom_site_label
_atom_site_type_symbol
_atom_site_symmetry_multiplicity
_atom_site_Wyckoff_symbol
_atom_site_fract_x
_atom_site_fract_y
_atom_site_fract_z
_atom_site_B_iso_or_equiv
_atom_site_occupancy
_atom_site_attached_hydrogens
Mn1 Mn2+ 4 a 0.12897(11) 0.85641(11) 0.15864(11) 0.0075(2) 1. 0
P1 P5+ 4 a 0.20179(19) 0.80733(19) 0.55968(18) 0.0086(3) 1. 0
P2 P5+ 4 a 0.31298(18) 0.52094(18) 0.68931(18) 0.0079(3) 1. 0
P3 P5+ 4 a 0.02851(17) 0.32069(19) 0.68323(17) 0.0081(3) 1. 0
O1 O2- 4 a 0.1589(5) 0.8612(6) 0.4031(5) 0.0144(10) 1. 0
O2 O2- 4 a 0.3103(5) 0.9063(5) 0.6546(5) 0.0108(9) 1. 0
O3 O2- 4 a 0.2744(5) 0.6350(5) 0.5476(5) 0.0086(8) 1. 0
O4 O2- 4 a 0.0411(5) 0.7731(5) 0.6534(5) 0.0123(9) 1. 0
O5 O2- 4 a 0.3775(5) 0.6155(5) 0.8194(5) 0.0116(9) 1. 0
O6 O2- 4 a 0.1383(5) 0.4637(5) 0.7358(5) 0.0117(9) 1. 0
O7 O2- 4 a 0.5905(5) 0.8874(5) 0.8660(5) 0.0128(10) 1. 0
O8 O2- 4 a -0.1041(5) 0.3744(6) 0.5819(5) 0.0118(9) 1. 0
O9 O2- 4 a 0.1305(5) 0.1918(6) 0.6221(5) 0.0137(9) 1. 0
Li1 Li1+ 4 a 0.3464(13) 0.8649(16) 0.8842(14) 0.019(3) 1. 0
#End of TTdata_51632-ICSD