
#(C) 2018 by FIZ Karlsruhe - Leibniz Institute for Information Infrastructure.  All rights reserved.
data_54827-ICSD
_database_code_ICSD 54827
_audit_creation_date 2005-10-01
_audit_update_record 2015-08-01
_chemical_name_systematic 'Lithium iron manganese phosphate(V) (1/0.5/0.5/1)'
_chemical_formula_structural 'Li (Fe0.5 Mn0.5) (P O4)'
_chemical_formula_sum 'Fe0.5 Li1 Mn0.5 O4 P1'
_chemical_name_structure_type Olivine-Mg2SiO4
_chemical_name_mineral Sicklerite
_exptl_crystal_density_diffrn 3.53
_publ_section_title

;
Structural variation in the lithiophilite-triphylite series and other
olivine-group structures
;
loop_
_citation_id
_citation_journal_full
_citation_year
_citation_journal_volume
_citation_page_first
_citation_page_last
_citation_journal_id_ASTM
primary 'Canadian Mineralogist' 2004 42 1105 1115 CAMIA6
loop_
_publ_author_name
'Losey, A.'
'Rakovan, J.'
'Hughes, J.M.'
'Francis, C.A.'
'Dyar, M.D.'
_cell_length_a 4.7138(6)
_cell_length_b 10.3826(1)
_cell_length_c 6.0499(5)
_cell_angle_alpha 90.
_cell_angle_beta 90.
_cell_angle_gamma 90.
_cell_volume 296.09
_cell_formula_units_Z 4
_symmetry_space_group_name_H-M 'P b n m'
_symmetry_Int_Tables_number 62
_refine_ls_R_factor_all 0.015
loop_
_symmetry_equiv_pos_site_id
_symmetry_equiv_pos_as_xyz
1 '-x+1/2, y+1/2, z'
2 'x, y, -z+1/2'
3 'x+1/2, -y+1/2, z+1/2'
4 '-x, -y, -z'
5 'x+1/2, -y+1/2, -z'
6 '-x, -y, z+1/2'
7 '-x+1/2, y+1/2, -z+1/2'
8 'x, y, z'
loop_
_atom_type_symbol
_atom_type_oxidation_number
Li1+ 1
Mn2+ 2
Fe2+ 2
P5+ 5
O2- -2
loop_
_atom_site_label
_atom_site_type_symbol
_atom_site_symmetry_multiplicity
_atom_site_Wyckoff_symbol
_atom_site_fract_x
_atom_site_fract_y
_atom_site_fract_z
_atom_site_B_iso_or_equiv
_atom_site_occupancy
_atom_site_attached_hydrogens
Li1 Li1+ 4 a 0 0 0 1.50(8) 1. 0
Mn1 Mn2+ 4 c 0.97362(8) 0.28199(3) 0.25 0.594(5) 0.5 0
Fe1 Fe2+ 4 c 0.97362(8) 0.28199(3) 0.25 0.594(5) 0.5 0
P1 P5+ 4 c 0.4138(1) 0.09364(6) 0.25 0.65(1) 1. 0
O1 O2- 4 c 0.7366(4) 0.0969(2) 0.25 0.94(3) 1. 0
O2 O2- 4 c 0.2089(4) 0.4562(2) 0.25 0.92(3) 1. 0
O3 O2- 8 d 0.2813(2) 0.1635(1) 0.0478(2) 0.97(2) 1. 0
#End of TTdata_54827-ICSD