
#(C) 2018 by FIZ Karlsruhe - Leibniz Institute for Information Infrastructure.  All rights reserved.
data_56772-ICSD
_database_code_ICSD 56772
_audit_creation_date 2003-04-01
_chemical_name_systematic 'Lithium cerium oxide'
_chemical_formula_structural 'Li Ce O2'
_chemical_formula_sum 'Ce1 Li1 O2'
_chemical_name_structure_type SmLiO2
_exptl_crystal_density_diffrn 5.85
_publ_section_title

;
Die Kristallstrukturen von Ce2 O3 (A-Form), Li Ce O2 und Ce F3 - Ein Beitrag
zur Kristallchemie des dreiwertigen Cers
;
loop_
_citation_id
_citation_journal_full
_citation_year
_citation_journal_volume
_citation_page_first
_citation_page_last
_citation_journal_id_ASTM
primary 'Dissertation Universitaet Karlsruhe' 1985 1985 1 110 DIKARM
loop_
_publ_author_name
'Schiller, G.'
_cell_length_a 5.826(2)
_cell_length_b 6.167(1)
_cell_length_c 5.794(2)
_cell_angle_alpha 90.
_cell_angle_beta 102.48(2)
_cell_angle_gamma 90.
_cell_volume 203.25
_cell_formula_units_Z 4
_symmetry_space_group_name_H-M 'P 1 21/c 1'
_symmetry_Int_Tables_number 14
_refine_ls_R_factor_all 0.0232
loop_
_symmetry_equiv_pos_site_id
_symmetry_equiv_pos_as_xyz
1 'x, -y+1/2, z+1/2'
2 '-x, -y, -z'
3 '-x, y+1/2, -z+1/2'
4 'x, y, z'
loop_
_atom_type_symbol
_atom_type_oxidation_number
Li1+ 1
Ce3+ 3
O2- -2
loop_
_atom_site_label
_atom_site_type_symbol
_atom_site_symmetry_multiplicity
_atom_site_Wyckoff_symbol
_atom_site_fract_x
_atom_site_fract_y
_atom_site_fract_z
_atom_site_B_iso_or_equiv
_atom_site_occupancy
_atom_site_attached_hydrogens
Li1 Li1+ 4 e 0.6540(12) 0.1381(9) 0.1641(15) . 1. 0
Ce1 Ce3+ 4 e 0.20030(1) 0.06802(1) 0.30633(1) . 1. 0
O1 O2- 4 e 0.4293(2) 0.1282(2) 0.7133(2) . 1. 0
O2 O2- 4 e -.0849(2) 0.2620(2) 0.4890(2) . 1. 0
loop_
_atom_site_aniso_label
_atom_site_aniso_type_symbol
_atom_site_aniso_U_11
_atom_site_aniso_U_22
_atom_site_aniso_U_33
_atom_site_aniso_U_12
_atom_site_aniso_U_13
_atom_site_aniso_U_23
Li1 Li1+ 0.0197(22) 0.0116(21) 0.0557(11) 0.0020(23) 0.0251(27) 0.0057(18)
Ce1 Ce3+ 0.00524(2) 0.00643(4) 0.00584(3) 0.00005(2) 0.00097(2) 0.00013(2)
O1 O2- 0.0074(3) 0.0089(5) 0.0111(4) -0.0001(3) 0.0015(3) -0.0004(3)
O2 O2- 0.0085(3) 0.0099(5) 0.0075(3) 0.0004(3) 0.0022(3) 0.0008(3)
#End of TTdata_56772-ICSD