
#(C) 2018 by FIZ Karlsruhe - Leibniz Institute for Information Infrastructure.  All rights reserved.
data_59244-ICSD
_database_code_ICSD 59244
_audit_creation_date 1999-01-19
_chemical_name_systematic 'Lithium vanadium catena-disilicate'
_chemical_formula_structural 'Li V (Si2 O6)'
_chemical_formula_sum 'Li1 O6 Si2 V1'
_chemical_name_structure_type Pyroxene-CaMg(SiO3)2
_exptl_crystal_density_diffrn 3.38
_publ_section_title 'Lithium vanadium metasilicate, Li V Si2 O6'
loop_
_citation_id
_citation_journal_full
_citation_year
_citation_journal_volume
_citation_page_first
_citation_page_last
_citation_journal_id_ASTM
primary 'Acta Crystallographica, Section C: Crystal Structure Communications'
1997 53 1727 1728 ACSCEE
loop_
_publ_author_name
'Satto, C.'
'Millet, P.'
'Galy, J.'
_cell_length_a 9.634(4)
_cell_length_b 8.586(2)
_cell_length_c 5.304(2)
_cell_angle_alpha 90.
_cell_angle_beta 109.69(3)
_cell_angle_gamma 90.
_cell_volume 413.08
_cell_formula_units_Z 4
_symmetry_space_group_name_H-M 'C 1 2/c 1'
_symmetry_Int_Tables_number 15
_refine_ls_R_factor_all 0.0189
loop_
_symmetry_equiv_pos_site_id
_symmetry_equiv_pos_as_xyz
1 'x, -y, z+1/2'
2 '-x, -y, -z'
3 '-x, y, -z+1/2'
4 'x, y, z'
5 'x+1/2, -y+1/2, z+1/2'
6 '-x+1/2, -y+1/2, -z'
7 '-x+1/2, y+1/2, -z+1/2'
8 'x+1/2, y+1/2, z'
loop_
_atom_type_symbol
_atom_type_oxidation_number
V3+ 3
Si4+ 4
O2- -2
Li1+ 1
loop_
_atom_site_label
_atom_site_type_symbol
_atom_site_symmetry_multiplicity
_atom_site_Wyckoff_symbol
_atom_site_fract_x
_atom_site_fract_y
_atom_site_fract_z
_atom_site_B_iso_or_equiv
_atom_site_occupancy
_atom_site_attached_hydrogens
V1 V3+ 4 e 0 0.09408(4) 0.25 . 1. 0
Si1 Si4+ 8 f 0.20309(5) 0.40936(5) 0.23099(9) . 1. 0
O1 O2- 8 f -.1168(1) 0.0864(1) -.1559(2) . 1. 0
O2 O2- 8 f 0.1311(1) 0.2403(1) 0.1729(3) . 1. 0
O3 O2- 8 f 0.1443(1) 0.5026(2) 0.4418(2) . 1. 0
Li1 Li1+ 4 e 0 0.7343(6) 0.25 . 1. 0
loop_
_atom_site_aniso_label
_atom_site_aniso_type_symbol
_atom_site_aniso_U_11
_atom_site_aniso_U_22
_atom_site_aniso_U_33
_atom_site_aniso_U_12
_atom_site_aniso_U_13
_atom_site_aniso_U_23
V1 V3+ 0.0041(2) 0.0034(2) 0.0053(2) 0 0.0016(1) 0
Si1 Si4+ 0.0044(2) 0.0046(2) 0.0053(2) -.0007(1) 0.0016(2) -.0003(1)
O1 O2- 0.0048(5) 0.0060(5) 0.0066(5) 0.0010(4) 0.0014(4) 0.0000(4)
O2 O2- 0.0101(6) 0.0079(6) 0.0115(6) -.0030(4) 0.0047(5) -.0013(4)
O3 O2- 0.0068(6) 0.0142(6) 0.0086(5) 0.0000(5) 0.0026(4) -.0041(5)
Li1 Li1+ 0.019(2) 0.016(2) 0.016(2) 0 0.006(2) 0
#End of TTdata_59244-ICSD