
#(C) 2018 by FIZ Karlsruhe - Leibniz Institute for Information Infrastructure.  All rights reserved.
data_59823-ICSD
_database_code_ICSD 59823
_audit_creation_date 2005-10-01
_audit_update_record 2012-08-01
_chemical_name_systematic 'Lithium dihydrogenphosphate(I)'
_chemical_formula_structural 'Li H2 P O2'
_chemical_formula_sum 'H2 Li1 O2 P1'
_exptl_crystal_density_diffrn 1.55
_publ_section_title 'Lithium and beryllium hypophosphites'
loop_
_citation_id
_citation_journal_full
_citation_year
_citation_journal_volume
_citation_page_first
_citation_page_last
_citation_journal_id_ASTM
primary 'Acta Crystallographica, Section C: Crystal Structure Communications'
2004 60 i73 i75 ACSCEE
loop_
_publ_author_name
'Naumov, D.Yu.'
'Naumova, M.I.'
'Podberezskaya, N.V.'
'Kuratieva, N.V.'
_cell_length_a 9.3557(11)
_cell_length_b 5.3107(7)
_cell_length_c 6.5432(12)
_cell_angle_alpha 90.
_cell_angle_beta 108.259(11)
_cell_angle_gamma 90.
_cell_volume 308.73
_cell_formula_units_Z 4
_symmetry_space_group_name_H-M 'C 1 2/m 1'
_symmetry_Int_Tables_number 12
_refine_ls_R_factor_all 0.0391
loop_
_symmetry_equiv_pos_site_id
_symmetry_equiv_pos_as_xyz
1 '-x, y, -z'
2 '-x, -y, -z'
3 'x, -y, z'
4 'x, y, z'
5 '-x+1/2, y+1/2, -z'
6 '-x+1/2, -y+1/2, -z'
7 'x+1/2, -y+1/2, z'
8 'x+1/2, y+1/2, z'
loop_
_atom_type_symbol
_atom_type_oxidation_number
Li1+ 1
P5+ 5
H1- -1
O2- -2
loop_
_atom_site_label
_atom_site_type_symbol
_atom_site_symmetry_multiplicity
_atom_site_Wyckoff_symbol
_atom_site_fract_x
_atom_site_fract_y
_atom_site_fract_z
_atom_site_B_iso_or_equiv
_atom_site_occupancy
_atom_site_attached_hydrogens
Li1 Li1+ 4 g 0. 0.2503(10) 0. 0.0417(12) 1 0
P1 P5+ 4 i 0.30832(9) 0.5 0.26808(14) 0.0539(5) 1 0
H1 H1- 8 j 0.346(4) 0.317(7) 0.419(5) 0.077(10) 1 0
O1 O2- 4 i 0.4156(3) 0.5 0.1435(4) 0.0451(7) 1 0
O2 O2- 4 i 0.1438(2) 0.5 0.1556(4) 0.0446(7) 1 0
loop_
_atom_site_aniso_label
_atom_site_aniso_type_symbol
_atom_site_aniso_U_11
_atom_site_aniso_U_22
_atom_site_aniso_U_33
_atom_site_aniso_U_12
_atom_site_aniso_U_13
_atom_site_aniso_U_23
Li1 Li1+ 0.028(2) 0.036(3) 0.066(3) 0. 0.021(2) 0.
P1 P5+ 0.0225(6) 0.0985(10) 0.0443(7) 0. 0.0156(4) 0.
O1 O2- 0.0332(12) 0.0454(14) 0.0678(16) 0. 0.0319(11) 0.
O2 O2- 0.0210(11) 0.0464(13) 0.0672(15) 0. 0.0148(10) 0.
#End of TTdata_59823-ICSD