
#(C) 2017 by FIZ Karlsruhe - Leibniz Institute for Information Infrastructure.  All rights reserved.
data_6044-ICSD
_database_code_ICSD 6044
_audit_creation_date 1980-01-01
_audit_update_record 1999-05-11
_chemical_name_systematic 'Lithium hexafluororhodate(IV)'
_chemical_formula_structural 'Li2 Rh F6'
_chemical_formula_sum 'F6 Li2 Rh1'
_chemical_name_structure_type Na2SnF6
_exptl_crystal_density_diffrn 3.9
_publ_section_title 'Zur Kenntnis von Li2 Rh F6'
loop_
_citation_id
_citation_journal_full
_citation_year
_citation_journal_volume
_citation_page_first
_citation_page_last
_citation_journal_id_ASTM
primary 'Zeitschrift fuer Anorganische und Allgemeine Chemie (1950) (DE)' 1974
405 193 196 ZAACAB
loop_
_publ_author_name
'Wilhelm, V.'
'Hoppe, R.'
_cell_length_a 4.637
_cell_length_b 4.634
_cell_length_c 10.185
_cell_angle_alpha 90.
_cell_angle_beta 117.1
_cell_angle_gamma 90.
_cell_volume 194.83
_cell_formula_units_Z 2
_symmetry_space_group_name_H-M 'P 1 21/c 1'
_symmetry_Int_Tables_number 14
loop_
_symmetry_equiv_pos_site_id
_symmetry_equiv_pos_as_xyz
1 'x, -y+1/2, z+1/2'
2 '-x, -y, -z'
3 '-x, y+1/2, -z+1/2'
4 'x, y, z'
loop_
_atom_type_symbol
_atom_type_oxidation_number
Rh4+ 4
Li1+ 1
F1- -1
loop_
_atom_site_label
_atom_site_type_symbol
_atom_site_symmetry_multiplicity
_atom_site_Wyckoff_symbol
_atom_site_fract_x
_atom_site_fract_y
_atom_site_fract_z
_atom_site_B_iso_or_equiv
_atom_site_occupancy
_atom_site_attached_hydrogens
Rh1 Rh4+ 2 a 0 0 0 . 1. 0
Li1 Li1+ 4 e 0.34 -.028 0.336 . 1. 0
F1 F1- 4 e 0.252 0.252 -.008 . 1. 0
F2 F1- 4 e -.043 0.167 0.143 . 1. 0
F3 F1- 4 e 0.326 0.817 0.145 . 1. 0
#End of TTdata_6044-ICSD