
#(C) 2017 by FIZ Karlsruhe - Leibniz Institute for Information Infrastructure.  All rights reserved.
data_61337-ICSD
_database_code_ICSD 61337
_audit_creation_date 1987-03-16
_chemical_name_systematic 'Lithium gallium tetrabromide'
_chemical_formula_structural 'Li Ga Br4'
_chemical_formula_sum 'Br4 Ga1 Li1'
_chemical_name_structure_type LiAlCl4
_exptl_crystal_density_diffrn 3.79
_publ_section_title
'Darstellung und Kristallstrukturen von Li Ga Br4 und Li Ga Br3'
loop_
_citation_id
_citation_journal_full
_citation_year
_citation_journal_volume
_citation_page_first
_citation_page_last
_citation_journal_id_ASTM
primary

;
Zeitschrift fuer Naturforschung, Teil B. Anorganische Chemie, Organische
Chemie (33,1978-41,1986)
; 1986 41 1391 1398 ZNBAD2
loop_
_publ_author_name
'Hoenle, W.'
'Simon, A.'
_cell_length_a 13.696
_cell_length_b 6.854(7)
_cell_length_c 7.416(7)
_cell_angle_alpha 90.
_cell_angle_beta 93.14(8)
_cell_angle_gamma 90.
_cell_volume 695.11
_cell_formula_units_Z 4
_symmetry_space_group_name_H-M 'P 1 21/a 1'
_symmetry_Int_Tables_number 14
_refine_ls_R_factor_all 0.064
loop_
_symmetry_equiv_pos_site_id
_symmetry_equiv_pos_as_xyz
1 'x+1/2, -y+1/2, z'
2 '-x, -y, -z'
3 '-x+1/2, y+1/2, -z'
4 'x, y, z'
loop_
_atom_type_symbol
_atom_type_oxidation_number
Ga3+ 3
Br1- -1
Li1+ 1
loop_
_atom_site_label
_atom_site_type_symbol
_atom_site_symmetry_multiplicity
_atom_site_Wyckoff_symbol
_atom_site_fract_x
_atom_site_fract_y
_atom_site_fract_z
_atom_site_B_iso_or_equiv
_atom_site_occupancy
_atom_site_attached_hydrogens
Ga1 Ga3+ 4 e 0.8998(1) 0.3223(2) 0.7044(2) . 1. 0
Br1 Br1- 4 e 0.0513(1) 0.1766(2) 0.6905(2) . 1. 0
Br2 Br1- 4 e 0.9306(1) 0.6402(2) 0.8084(2) . 1. 0
Br3 Br1- 4 e 0.8142(1) 0.1775(2) 0.9351(2) . 1. 0
Br4 Br1- 4 e 0.8073(1) 0.3102(2) 0.4361(2) . 1. 0
Li1 Li1+ 4 e 0.3731(26) -.0118(48) 0.1569(45) . 1. 0
loop_
_atom_site_aniso_label
_atom_site_aniso_type_symbol
_atom_site_aniso_U_11
_atom_site_aniso_U_22
_atom_site_aniso_U_33
_atom_site_aniso_U_12
_atom_site_aniso_U_13
_atom_site_aniso_U_23
Ga1 Ga3+ 0.0295(10) 0.0318(8) 0.0202(8) -.0004(8) 0.0010(7) -.0019(7)
Br1 Br1- 0.0331(9) 0.0423(9) 0.041(1) 0.0085(8) 0.0013(8) -.0094(8)
Br2 Br1- 0.0430(9) 0.0283(8) 0.0313(8) -.0003(8) -.0046(7) -.0021(7)
Br3 Br1- 0.0411(9) 0.0458(9) 0.0263(8) -.0117(9) 0.0047(7) 0.0016(8)
Br4 Br1- 0.0387(9) 0.0429(9) 0.0241(8) -.0068(9) -.0054(7) 0.0012(8)
Li1 Li1+ 0.058(22) 0.069(21) 0.055(24) 0.016(19) -0.015(19) -0.027(18)
#End of TTdata_61337-ICSD