
#(C) 2018 by FIZ Karlsruhe - Leibniz Institute for Information Infrastructure.  All rights reserved.
data_63130-ICSD
_database_code_ICSD 63130
_audit_creation_date 1989-06-19
_audit_update_record 2003-04-01
_chemical_name_systematic 'Lithium nonavanadate (1.2/1) - phase I'
_chemical_formula_structural 'Li1.2 (V9 O22)'
_chemical_formula_sum 'Li1.2 O22 V9'
_exptl_crystal_density_diffrn 3.55
_publ_section_title

;
Die Strukturen der Lithium-Vanadiumbronzen beta Li1.2 V9 O22 (I) und
beta'-Li1.7 V9 O22.
;
loop_
_citation_id
_citation_journal_full
_citation_year
_citation_journal_volume
_citation_page_first
_citation_page_last
_citation_journal_id_ASTM
primary 'Acta Crystallographica, Section C: Crystal Structure Communications'
1987 43 1451 1454 ACSCEE
loop_
_publ_author_name
'Kato, K.'
'Takayama Muromachi, E.'
_cell_length_a 21.8160(3)
_cell_length_b 3.6055(1)
_cell_length_c 10.1048(1)
_cell_angle_alpha 90.
_cell_angle_beta 105.246(1)
_cell_angle_gamma 90.
_cell_volume 766.85
_cell_formula_units_Z 2
_symmetry_space_group_name_H-M 'P 1 21/m 1'
_symmetry_Int_Tables_number 11
_refine_ls_R_factor_all 0.036
loop_
_symmetry_equiv_pos_site_id
_symmetry_equiv_pos_as_xyz
1 'x, -y+1/2, z'
2 '-x, -y, -z'
3 '-x, y+1/2, -z'
4 'x, y, z'
loop_
_atom_type_symbol
_atom_type_oxidation_number
V4+ 4.63
V5+ 5
O2- -2
Li1+ 1
loop_
_atom_site_label
_atom_site_type_symbol
_atom_site_symmetry_multiplicity
_atom_site_Wyckoff_symbol
_atom_site_fract_x
_atom_site_fract_y
_atom_site_fract_z
_atom_site_B_iso_or_equiv
_atom_site_occupancy
_atom_site_attached_hydrogens
V1 V4+ 2 e 0.91260(4) 0.25 0.14108(10) 0.545(15) 1. 0
V2 V4+ 2 e 0.06130(4) 0.25 0.09135(10) 0.481(14) 1. 0
V3 V4+ 2 e 0.28349(4) 0.25 0.83158(9) 0.485(13) 1. 0
V4 V4+ 2 e 0.42741(4) 0.25 0.77491(9) 0.496(13) 1. 0
V5 V4+ 2 e 0.59357(4) 0.25 0.98644(9) 0.375(14) 1. 0
V6 V4+ 2 e 0.74941(4) 0.25 0.94565(10) 0.545(14) 1. 0
V7 V5+ 2 e 0.02763(4) 0.25 0.4085(1) 0.536(15) 1. 0
V8 V5+ 2 e 0.31235(4) 0.25 0.50871(9) 0.562(14) 1. 0
V9 V5+ 2 e 0.63435(4) 0.25 0.67665(9) 0.582(14) 1. 0
O1 O2- 2 e 0.01066(17) 0.25 0.2233(4) 0.62(6) 1. 0
O2 O2- 2 e 0.90425(18) 0.25 0.2934(4) 0.94(7) 1. 0
O3 O2- 2 e 0.82772(19) 0.25 0.0367(5) 0.88(5) 1. 0
O4 O2- 2 e 0.95523(19) 0.25 0.9534(4) 1.02(7) 1. 0
O5 O2- 2 e 0.08058(17) 0.25 0.9075(4) 0.66(8) 1. 0
O6 O2- 2 e 0.12935(18) 0.25 0.1966(4) 2.27(11) 1. 0
O7 O2- 2 e 0.33332(16) 0.25 0.6967(4) 0.61(6) 1. 0
O8 O2- 2 e 0.21542(18) 0.25 0.7276(4) 2.69(12) 1. 0
O9 O2- 2 e 0.26530(16) 0.25 0.0119(4) 0.58(5) 1. 0
O10 O2- 2 e 0.39054(16) 0.25 0.9658(4) 0.73(6) 1. 0
O11 O2- 2 e 0.52160(16) 0.25 0.8839(4) 0.76(6) 1. 0
O12 O2- 2 e 0.43844(18) 0.25 0.6243(4) 1.15(7) 1. 0
O13 O2- 2 e 0.64412(16) 0.25 0.8577(4) 0.59(5) 1. 0
O14 O2- 2 e 0.75179(19) 0.25 0.7875(4) 1.03(6) 1. 0
O15 O2- 2 e 0.57354(16) 0.25 0.1700(4) 0.61(6) 1. 0
O16 O2- 2 e 0.69873(19) 0.25 0.1251(4) 1.09(6) 1. 0
O17 O2- 2 e 0.99496(19) 0.25 0.5746(4) 0.88(7) 1. 0
O18 O2- 2 e 0.10276(18) 0.25 0.4590(4) 1.82(9) 1. 0
O19 O2- 2 e 0.34323(18) 0.25 0.3431(4) 0.76(6) 1. 0
O20 O2- 2 e 0.23704(19) 0.25 0.4635(5) 2.13(10) 1. 0
O21 O2- 2 e 0.66549(19) 0.25 0.5051(4) 0.93(6) 1. 0
O22 O2- 2 e 0.55936(19) 0.25 0.6181(4) 1.65(8) 1. 0
Li1 Li1+ 2 e 0.8158(13) 0.25 0.685(3) 2.5(7) 0.45(3) 0
Li2 Li1+ 2 e 0.8427(14) 0.25 0.401(3) 2.6(7) 0.43(3) 0
Li3 Li1+ 2 e 0.4966(28) 0.25 0.460(6) 5.3(15) 0.32 0
#End of TTdata_63130-ICSD