
#(C) 2017 by FIZ Karlsruhe - Leibniz Institute for Information Infrastructure.  All rights reserved.
data_63389-ICSD
_database_code_ICSD 63389
_audit_creation_date 1990-12-27
_audit_update_record 2008-02-01
_chemical_name_systematic 'Lithium terbium yttrium fluoride (1/0.3/0.7/4)'
_chemical_formula_structural 'Li (Tb0.3 Y0.7) F4'
_chemical_formula_sum 'F4 Li1 Tb0.3 Y0.7'
_chemical_name_structure_type Scheelite-CaWO4
_exptl_crystal_density_diffrn 4.4
_cell_measurement_temperature 175.
_publ_section_title

;
A neutron scattering study of the dilute dipolar-coupled ferromagnets Li Tb0.3
Y0.7 and Li Ho0.3 Y.7 F4. Structure, magnetisation and critical scattering
;
loop_
_citation_id
_citation_journal_full
_citation_year
_citation_journal_volume
_citation_page_first
_citation_page_last
_citation_journal_id_ASTM
primary 'Journal of Physics: Condensed Matter' 1989 1 5743 5757 JCOMEL
loop_
_publ_author_name
'Kjaer, K.'
'Als-Nielsen, J.'
'Laursen, I.'
'Krebs Larsen, F.'
_cell_length_a 5.186(5)
_cell_length_b 5.186(5)
_cell_length_c 10.826(5)
_cell_angle_alpha 90.
_cell_angle_beta 90.
_cell_angle_gamma 90.
_cell_volume 291.16
_cell_formula_units_Z 4
_symmetry_space_group_name_H-M 'I 41/a Z'
_symmetry_Int_Tables_number 88
_refine_ls_R_factor_all 0.033
loop_
_symmetry_equiv_pos_site_id
_symmetry_equiv_pos_as_xyz
1 '-y+3/4, x+3/4, -z+3/4'
2 'y+1/4, -x+3/4, -z+3/4'
3 'x, y+1/2, -z'
4 '-x, -y, -z'
5 'y+1/4, -x+1/4, z+1/4'
6 '-y+3/4, x+1/4, z+1/4'
7 '-x, -y+1/2, z'
8 'x, y, z'
9 '-y+1/4, x+1/4, -z+1/4'
10 'y+3/4, -x+1/4, -z+1/4'
11 'x+1/2, y, -z+1/2'
12 '-x+1/2, -y+1/2, -z+1/2'
13 'y+3/4, -x+3/4, z+3/4'
14 '-y+1/4, x+3/4, z+3/4'
15 '-x+1/2, -y, z+1/2'
16 'x+1/2, y+1/2, z+1/2'
loop_
_atom_type_symbol
_atom_type_oxidation_number
Li1+ 1
Tb3+ 3
Y3+ 3
F1- -1
loop_
_atom_site_label
_atom_site_type_symbol
_atom_site_symmetry_multiplicity
_atom_site_Wyckoff_symbol
_atom_site_fract_x
_atom_site_fract_y
_atom_site_fract_z
_atom_site_B_iso_or_equiv
_atom_site_occupancy
_atom_site_attached_hydrogens
Li1 Li1+ 4 a 0 0.25 0.125 . 1. 0
Tb1 Tb3+ 4 b 0 0.25 0.625 . 0.3 0
Y1 Y3+ 4 b 0 0.25 0.625 . 0.7 0
F1 F1- 16 f 0.21914(8) 0.41329(8) 0.45623(4) . 1. 0
loop_
_atom_site_aniso_label
_atom_site_aniso_type_symbol
_atom_site_aniso_U_11
_atom_site_aniso_U_22
_atom_site_aniso_U_33
_atom_site_aniso_U_12
_atom_site_aniso_U_13
_atom_site_aniso_U_23
Li1 Li1+ 0.0086(5) 0.0086(5) 0.0118(10) 0 0 0
Tb1 Tb3+ 0.0035(2) 0.0035(2) 0.0025(3) 0 0 0
Y1 Y3+ 0.0035(2) 0.0035(2) 0.0025(3) 0 0 0
F1 F1- 0.0066(2) 0.0066(2) 0.0058(3) -.0017(1) 0.0019(1) -.0013(1)
#End of TTdata_63389-ICSD