
#(C) 2017 by FIZ Karlsruhe - Leibniz Institute for Information Infrastructure.  All rights reserved.
data_63476-ICSD
_database_code_ICSD 63476
_audit_creation_date 1992-01-20
_audit_update_record 2012-08-01
_chemical_name_systematic 'Dilithium terbium(IV) fluoride'
_chemical_formula_structural 'Li2 Tb F6'
_chemical_formula_sum 'F6 Li2 Tb1'
_chemical_name_structure_type Li2TbF6
_exptl_crystal_density_diffrn 4.83
_cell_measurement_temperature 5.
_publ_section_title

;
Determination of the crystal structure of Li2 Tb F6 from X-ray and neutron
powder diffraction. An example of lithium in five-fold coordination.
;
loop_
_citation_id
_citation_journal_full
_citation_year
_citation_journal_volume
_citation_page_first
_citation_page_last
_citation_journal_id_ASTM
primary 'European Journal of Solid State Inorganic Chemistry' 1988 25 551 563
EJSCE5
loop_
_publ_author_name
'Laligant, Y.'
'Le Bail, A.'
'Ferey, G.'
'Avignant, D.'
'Cousseins, J.C.'
_cell_length_a 7.560(1)
_cell_length_b 4.934(1)
_cell_length_c 11.066(1)
_cell_angle_alpha 90.
_cell_angle_beta 107.02(1)
_cell_angle_gamma 90.
_cell_volume 394.69
_cell_formula_units_Z 4
_symmetry_space_group_name_H-M 'P 1 21/c 1'
_symmetry_Int_Tables_number 14
_refine_ls_R_factor_all 0.0156
loop_
_symmetry_equiv_pos_site_id
_symmetry_equiv_pos_as_xyz
1 'x, -y+1/2, z+1/2'
2 '-x, -y, -z'
3 '-x, y+1/2, -z+1/2'
4 'x, y, z'
loop_
_atom_type_symbol
_atom_type_oxidation_number
Tb4+ 4
F1- -1
Li1+ 1
loop_
_atom_site_label
_atom_site_type_symbol
_atom_site_symmetry_multiplicity
_atom_site_Wyckoff_symbol
_atom_site_fract_x
_atom_site_fract_y
_atom_site_fract_z
_atom_site_B_iso_or_equiv
_atom_site_occupancy
_atom_site_attached_hydrogens
Tb1 Tb4+ 4 e 0.2539(5) 0.5162(5) 0.0016(3) 0.10(1) 1. 0
F1 F1- 4 e 0.4583(6) 0.1863(7) 0.4261(3) 0.31(2) 1. 0
F2 F1- 4 e 0.1020(7) 0.3613(8) 0.8224(4) 0.31(2) 1. 0
F3 F1- 4 e 0.0427(5) 0.2338(8) 0.5438(4) 0.31(2) 1. 0
F4 F1- 4 e 0.3978(6) 0.2350(8) 0.6551(3) 0.31(2) 1. 0
F5 F1- 4 e 0.2480(6) 0.6298(8) 0.4027(4) 0.31(2) 1. 0
F6 F1- 4 e 0.2486(5) 0.7521(8) 0.6589(4) 0.31(2) 1. 0
Li1 Li1+ 4 e 0.408(2) 0.502(2) 0.305(1) 0.7(1) 1. 0
Li2 Li1+ 4 e 0.048(2) 0.024(3) 0.159(1) 0.7(1) 1. 0
#End of TTdata_63476-ICSD