
#(C) 2017 by FIZ Karlsruhe - Leibniz Institute for Information Infrastructure.  All rights reserved.
data_63475-ICSD
_database_code_ICSD 63475
_audit_creation_date 1992-01-20
_audit_update_record 2012-08-01
_chemical_name_systematic 'Dilithium terbium(IV) fluoride'
_chemical_formula_structural 'Li2 Tb F6'
_chemical_formula_sum 'F6 Li2 Tb1'
_chemical_name_structure_type Li2TbF6
_exptl_crystal_density_diffrn 4.76
_cell_measurement_temperature 300.
_publ_section_title

;
Determination of the crystal structure of Li2 Tb F6 from X-ray and neutron
powder diffraction. An example of lithium in five-fold coordination.
;
loop_
_citation_id
_citation_journal_full
_citation_year
_citation_journal_volume
_citation_page_first
_citation_page_last
_citation_journal_id_ASTM
primary 'European Journal of Solid State Inorganic Chemistry' 1988 25 551 563
EJSCE5
loop_
_publ_author_name
'Laligant, Y.'
'Le Bail, A.'
'Ferey, G.'
'Avignant, D.'
'Cousseins, J.C.'
_cell_length_a 7.585(1)
_cell_length_b 4.965(1)
_cell_length_c 11.116(2)
_cell_angle_alpha 90.
_cell_angle_beta 106.96(1)
_cell_angle_gamma 90.
_cell_volume 400.42
_cell_formula_units_Z 4
_symmetry_space_group_name_H-M 'P 1 21/c 1'
_symmetry_Int_Tables_number 14
_refine_ls_R_factor_all 0.0372
loop_
_symmetry_equiv_pos_site_id
_symmetry_equiv_pos_as_xyz
1 'x, -y+1/2, z+1/2'
2 '-x, -y, -z'
3 '-x, y+1/2, -z+1/2'
4 'x, y, z'
loop_
_atom_type_symbol
_atom_type_oxidation_number
Tb4+ 4
F1- -1
Li1+ 1
loop_
_atom_site_label
_atom_site_type_symbol
_atom_site_symmetry_multiplicity
_atom_site_Wyckoff_symbol
_atom_site_fract_x
_atom_site_fract_y
_atom_site_fract_z
_atom_site_B_iso_or_equiv
_atom_site_occupancy
_atom_site_attached_hydrogens
Tb1 Tb4+ 4 e 0.2534(3) 0.5135(2) 0.0016(2) . 1. 0
F1 F1- 4 e 0.459(1) 0.185(2) 0.4275(9) 0.18(16) 1. 0
F2 F1- 4 e 0.102(1) 0.357(1) 0.8215(8) 1.2(2) 1. 0
F3 F1- 4 e 0.047(1) 0.238(2) 0.5431(8) 1.2(2) 1. 0
F4 F1- 4 e 0.408(2) 0.223(2) 0.6570(9) 3.0(2) 1. 0
F5 F1- 4 e 0.248(1) 0.631(1) 0.3969(7) 1.1(1) 1. 0
F6 F1- 4 e 0.248(1) 0.755(1) 0.6597(9) 1.2(1) 1. 0
Li1 Li1+ 4 e 0.405(2) 0.501(8) 0.326(2) 1.5(3) 1. 0
Li2 Li1+ 4 e 0.036(3) -.033(8) 0.194(2) 1.5(3) 1. 0
loop_
_atom_site_aniso_label
_atom_site_aniso_type_symbol
_atom_site_aniso_beta_11
_atom_site_aniso_beta_22
_atom_site_aniso_beta_33
_atom_site_aniso_beta_12
_atom_site_aniso_beta_13
_atom_site_aniso_beta_23
Tb1 Tb4+ 0.00164(12) 0.00598(26) 0.00104(5) 0.00160(31) 0.00006(3) -.00009(23)
#End of TTdata_63475-ICSD