
#(C) 2018 by FIZ Karlsruhe - Leibniz Institute for Information Infrastructure.  All rights reserved.
data_65170-ICSD
_database_code_ICSD 65170
_audit_creation_date 1989-12-04
_chemical_name_systematic 'Rubidium lithium oxide'
_chemical_formula_structural 'Rb Li O'
_chemical_formula_sum 'Li1 O1 Rb1'
_exptl_crystal_density_diffrn 3.51
_publ_section_title 'Rb Li O: Eine Variante der K Na S - Struktur'
loop_
_citation_id
_citation_journal_full
_citation_year
_citation_journal_volume
_citation_page_first
_citation_page_last
_citation_journal_id_ASTM
primary 'Zeitschrift fuer Anorganische und Allgemeine Chemie (1950) (DE)' 1987
553 226 230 ZAACAB
loop_
_publ_author_name
'Sabrowsky, H.'
'Vogt, P.'
_cell_length_a 6.568(6)
_cell_length_b 3.518(3)
_cell_length_c 8.888(9)
_cell_angle_alpha 90.
_cell_angle_beta 90.
_cell_angle_gamma 90.
_cell_volume 205.37
_cell_formula_units_Z 4
_symmetry_space_group_name_H-M 'P n m a'
_symmetry_Int_Tables_number 62
_refine_ls_R_factor_all 0.03
loop_
_symmetry_equiv_pos_site_id
_symmetry_equiv_pos_as_xyz
1 'x+1/2, y, -z+1/2'
2 'x, -y+1/2, z'
3 '-x+1/2, y+1/2, z+1/2'
4 '-x, -y, -z'
5 '-x+1/2, -y, z+1/2'
6 '-x, y+1/2, -z'
7 'x+1/2, -y+1/2, -z+1/2'
8 'x, y, z'
loop_
_atom_type_symbol
_atom_type_oxidation_number
Rb1+ 1
Li1+ 1
O2- -2
loop_
_atom_site_label
_atom_site_type_symbol
_atom_site_symmetry_multiplicity
_atom_site_Wyckoff_symbol
_atom_site_fract_x
_atom_site_fract_y
_atom_site_fract_z
_atom_site_B_iso_or_equiv
_atom_site_occupancy
_atom_site_attached_hydrogens
Rb1 Rb1+ 4 c -.0038(5) 0.25 0.1797(2) . 1. 0
Li1 Li1+ 4 c 0.1043(40) 0.25 0.4978(35) . 1. 0
O1 O2- 4 c 0.3121(16) 0.25 0.9522(16) . 1. 0
loop_
_atom_site_aniso_label
_atom_site_aniso_type_symbol
_atom_site_aniso_U_11
_atom_site_aniso_U_22
_atom_site_aniso_U_33
_atom_site_aniso_U_12
_atom_site_aniso_U_13
_atom_site_aniso_U_23
Rb1 Rb1+ 0.0101(5) 0.0267(7) 0.0303(7) 0 -.0006(23) 0
Li1 Li1+ 0.002(12) 0.011(14) 0.025(16) 0 -0.007(11) 0
O1 O2- 0.0029(48) 0.0102(56) 0.0339(67) 0 -.0042(53) 0
#End of TTdata_65170-ICSD