
#(C) 2018 by FIZ Karlsruhe - Leibniz Institute for Information Infrastructure.  All rights reserved.
data_65442-ICSD
_database_code_ICSD 65442
_audit_creation_date 1989-12-04
_audit_update_record 2006-04-01
_chemical_name_systematic 'Lithium lead phosphate(V)'
_chemical_formula_structural 'Li Pb (P O4)'
_chemical_formula_sum 'Li1 O4 P1 Pb1'
_chemical_name_structure_type PbZnSiO4
_exptl_crystal_density_diffrn 5.68
_publ_section_title
'Structure determination of a lead-lithium monophosphate, Li Pb P O4'
loop_
_citation_id
_citation_journal_full
_citation_year
_citation_journal_volume
_citation_page_first
_citation_page_last
_citation_journal_id_ASTM
primary 'Zeitschrift fuer Kristallographie (1979-2010)' 1989 188 5 10 ZEKRDZ
loop_
_publ_author_name
'Bagieu Beucher, M.'
'Masse, R.'
_cell_length_a 7.945(6)
_cell_length_b 18.46(2)
_cell_length_c 4.928(4)
_cell_angle_alpha 90.
_cell_angle_beta 90.
_cell_angle_gamma 90.
_cell_volume 722.76
_cell_formula_units_Z 8
_symmetry_space_group_name_H-M 'P n a 21'
_symmetry_Int_Tables_number 33
_refine_ls_R_factor_all 0.032
loop_
_symmetry_equiv_pos_site_id
_symmetry_equiv_pos_as_xyz
1 'x+1/2, -y+1/2, z'
2 '-x+1/2, y+1/2, z+1/2'
3 '-x, -y, z+1/2'
4 'x, y, z'
loop_
_atom_type_symbol
_atom_type_oxidation_number
Pb2+ 2
P5+ 5
O2- -2
Li1+ 1
loop_
_atom_site_label
_atom_site_type_symbol
_atom_site_symmetry_multiplicity
_atom_site_Wyckoff_symbol
_atom_site_fract_x
_atom_site_fract_y
_atom_site_fract_z
_atom_site_B_iso_or_equiv
_atom_site_occupancy
_atom_site_attached_hydrogens
Pb1 Pb2+ 4 a 0.82585(7) 0.44626(3) 0 . 1. 0
Pb2 Pb2+ 4 a 0.97041(7) 0.22837(3) -.0182(3) . 1. 0
P1 P5+ 4 a 0.2664(5) 0.4284(2) -.0538(8) . 1. 0
P2 P5+ 4 a 0.2873(5) 0.1797(2) 0.4434(8) . 1. 0
O1 O2- 4 a 0.918(2) 0.0346(7) 0.819(3) . 1. 0
O2 O2- 4 a 0.106(2) 0.4723(7) 0.864(3) . 1. 0
O3 O2- 4 a 0.285(2) 0.4269(7) 0.263(3) . 1. 0
O4 O2- 4 a 0.746(2) 0.1483(7) 0.841(3) . 1. 0
O5 O2- 4 a 0.307(2) 0.1841(7) 0.747(4) . 1. 0
O6 O2- 4 a 0.769(2) 0.2438(7) 0.326(3) . 1. 0
O7 O2- 4 a 0.140(2) 0.1337(8) 0.370(3) . 1. 0
O8 O2- 4 a 0.444(2) 0.1467(8) 0.312(3) . 1. 0
Li1 Li1+ 4 a 0.686(4) 0.150(2) 0.431(6) 0.8(4) 1. 0
Li2 Li1+ 4 a 0.489(4) 0.445(2) 0.443(7) 1.2(5) 1. 0
loop_
_atom_site_aniso_label
_atom_site_aniso_type_symbol
_atom_site_aniso_U_11
_atom_site_aniso_U_22
_atom_site_aniso_U_33
_atom_site_aniso_U_12
_atom_site_aniso_U_13
_atom_site_aniso_U_23
Pb1 Pb2+ 0.0138(2) 0.0103(1) 0.0126(2) 0.0002(2) -.0003(3) -.0005(3)
Pb2 Pb2+ 0.0129(2) 0.0160(2) 0.0142(2) 0.0027(2) 0.0015(3) 0.0007(4)
P1 P5+ 0.010(1) 0.006(1) 0.009(2) 0.001(1) -.002(1) -.001(1)
P2 P5+ 0.012(1) 0.008(1) 0.007(2) -.003(1) 0.000(1) 0.001(1)
O1 O2- 0.011(4) 0.014(4) 0.009(5) 0.004(4) 0.007(4) 0.007(4)
O2 O2- 0.011(5) 0.022(5) 0.013(5) 0.005(4) 0.001(4) 0.014(4)
O3 O2- 0.021(5) 0.011(4) 0.003(4) 0.002(4) 0.000(4) -.001(4)
O4 O2- 0.011(5) 0.019(5) 0.015(5) -.003(4) -.004(4) 0.008(5)
O5 O2- 0.024(6) 0.009(4) 0.028(7) -.001(4) -.005(6) 0.004(5)
O6 O2- 0.024(6) 0.011(4) 0.015(5) -.001(4) 0.007(5) -.011(4)
O7 O2- 0.023(6) 0.028(6) 0.003(5) -.014(5) 0.004(4) -.004(4)
O8 O2- 0.013(5) 0.022(6) 0.017(6) -.001(4) 0.002(5) -.001(5)
#End of TTdata_65442-ICSD