
#(C) 2018 by FIZ Karlsruhe - Leibniz Institute for Information Infrastructure.  All rights reserved.
data_65474-ICSD
_database_code_ICSD 65474
_audit_creation_date 1989-12-04
_audit_update_record 2012-08-01
_chemical_name_systematic
'Trilithium trisodium cyclo-hexaphosphate(V) dodecahydrate'
_chemical_formula_structural 'Li3 Na3 (P6 O18) (H2 O)12'
_chemical_formula_sum 'H24 Li3 Na3 O30 P6'
_exptl_crystal_density_diffrn 1.96
_publ_section_title

;
On the existence of two new mixed-alkali cyclohexaphosphates Li3 Na3 P6 O18
(H2 O)12 and Li3 K3 P6 O18 (H2 O)
;
loop_
_citation_id
_citation_journal_full
_citation_year
_citation_journal_volume
_citation_page_first
_citation_page_last
_citation_journal_id_ASTM
primary 'Zeitschrift fuer Anorganische und Allgemeine Chemie (1950) (DE)' 1989
574 225 234 ZAACAB
loop_
_publ_author_name
'Averbuch-Pouchot, M.T.'
_cell_length_a 10.474(8)
_cell_length_b 10.474(8)
_cell_length_c 41.680(50)
_cell_angle_alpha 90.
_cell_angle_beta 90.
_cell_angle_gamma 120.
_cell_volume 3959.89
_cell_formula_units_Z 6
_symmetry_space_group_name_H-M 'R -3 c H'
_symmetry_Int_Tables_number 167
_refine_ls_R_factor_all 0.02
loop_
_symmetry_equiv_pos_site_id
_symmetry_equiv_pos_as_xyz
1 'x-y, -y, -z+1/2'
2 '-x, -x+y, -z+1/2'
3 'y, x, -z+1/2'
4 'x-y, x, -z'
5 'y, -x+y, -z'
6 '-x, -y, -z'
7 '-x+y, y, z+1/2'
8 'x, x-y, z+1/2'
9 '-y, -x, z+1/2'
10 '-x+y, -x, z'
11 '-y, x-y, z'
12 'x, y, z'
13 'x-y+2/3, -y+1/3, -z+5/6'
14 '-x+2/3, -x+y+1/3, -z+5/6'
15 'y+2/3, x+1/3, -z+5/6'
16 'x-y+2/3, x+1/3, -z+1/3'
17 'y+2/3, -x+y+1/3, -z+1/3'
18 '-x+2/3, -y+1/3, -z+1/3'
19 '-x+y+2/3, y+1/3, z+5/6'
20 'x+2/3, x-y+1/3, z+5/6'
21 '-y+2/3, -x+1/3, z+5/6'
22 '-x+y+2/3, -x+1/3, z+1/3'
23 '-y+2/3, x-y+1/3, z+1/3'
24 'x+2/3, y+1/3, z+1/3'
25 'x-y+1/3, -y+2/3, -z+1/6'
26 '-x+1/3, -x+y+2/3, -z+1/6'
27 'y+1/3, x+2/3, -z+1/6'
28 'x-y+1/3, x+2/3, -z+2/3'
29 'y+1/3, -x+y+2/3, -z+2/3'
30 '-x+1/3, -y+2/3, -z+2/3'
31 '-x+y+1/3, y+2/3, z+1/6'
32 'x+1/3, x-y+2/3, z+1/6'
33 '-y+1/3, -x+2/3, z+1/6'
34 '-x+y+1/3, -x+2/3, z+2/3'
35 '-y+1/3, x-y+2/3, z+2/3'
36 'x+1/3, y+2/3, z+2/3'
loop_
_atom_type_symbol
_atom_type_oxidation_number
Na1+ 1
Li1+ 1
P5+ 5
O2- -2
H1+ 1
loop_
_atom_site_label
_atom_site_type_symbol
_atom_site_symmetry_multiplicity
_atom_site_Wyckoff_symbol
_atom_site_fract_x
_atom_site_fract_y
_atom_site_fract_z
_atom_site_B_iso_or_equiv
_atom_site_occupancy
_atom_site_attached_hydrogens
Na1 Na1+ 12 c 0 0 0.13218(3) . 1. 0
Na2 Na1+ 6 a 0 0 0.25 . 1. 0
Li1 Li1+ 18 e 0.4979(5) 0 0.25 . 1. 0
P1 P5+ 36 f 0.81310(4) 0.10869(4) 0.48666(1) . 1. 0
O1 O2- 36 f 0.5640(1) 0.6287(1) 0.21224(3) . 1. 0
O2 O2- 36 f 0.4517(1) 0.1291(1) 0.34690(3) . 1. 0
O3 O2- 36 f 0.1330(2) 0.2177(2) 0.16463(3) . 1. 0
O4 O2- 36 f 0.3635(1) 0.8589(2) 0.07523(3) . 1. 0
O5 O2- 36 f 0.5624(2) 0.1212(2) 0.04933(2) . 1. 0
H1 H1+ 36 f 0.218(3) 0.736(3) 0.2420(7) 2.6(7) 1. 0
H2 H1+ 36 f 0.521(3) 0.585(3) 0.0673(6) 1.4(6) 1. 0
H3 H1+ 36 f 0.799(3) 0.278(3) 0.1320(6) 1.4(6) 1. 0
H4 H1+ 36 f 0.193(3) 0.958(3) 0.2892(7) 2.5(8) 1. 0
loop_
_atom_site_aniso_label
_atom_site_aniso_type_symbol
_atom_site_aniso_beta_11
_atom_site_aniso_beta_22
_atom_site_aniso_beta_33
_atom_site_aniso_beta_12
_atom_site_aniso_beta_13
_atom_site_aniso_beta_23
Na1 Na1+ 0.00495(9) 0.00495(9) 0.00023(1) 0.00248(5) 0 0
Na2 Na1+ 0.0056(1) 0.0056(1) 0.00023(1) 0.0028(1) 0 0
Li1 Li1+ 0.0060(4) 0.0063(6) 0.00016(2) 0.00315 -.00005(5) -.0001(1)
P1 P5+ 0.00330(3) 0.00288(3) 0.00011(1) 0.00132(3) -.00005(1) 0.00004(1)
O1 O2- 0.0051(1) 0.0041(1) 0.00013(1) 0.0015(1) -.00026(3) -.00008(3)
O2 O2- 0.0097(1) 0.0081(1) 0.00014(1) 0.0073(1) -.00016(3) -.00025(3)
O3 O2- 0.0074(2) 0.0039(1) 0.00024(1) 0.0013(1) -.00004(3) 0.00004(3)
O4 O2- 0.0052(1) 0.0058(1) 0.00028(1) 0.0025(1) -.00002(3) 0.00018(3)
O5 O2- 0.0063(2) 0.0063(1) 0.00029(1) 0.0035(1) 0.00015(3) 0.00000(3)
#End of TTdata_65474-ICSD