
#(C) 2018 by FIZ Karlsruhe - Leibniz Institute for Information Infrastructure.  All rights reserved.
data_66944-ICSD
_database_code_ICSD 66944
_audit_creation_date 1998-06-26
_audit_update_record 2012-08-01
_chemical_name_systematic 'Lithium potassium carbonate'
_chemical_formula_structural '(Li0.5 K0.5)2 (C O3)'
_chemical_formula_sum 'C1 K1 Li1 O3'
_chemical_name_structure_type KLiCO3
_exptl_crystal_density_diffrn 2.28
_publ_section_title

;
Crystal structure of (Lix K1-x)2 (C O3) (x= 0, 0.43, 0.5, 0.62, 1) by neutron
powder diffraction analysis
;
loop_
_citation_id
_citation_journal_full
_citation_year
_citation_journal_volume
_citation_page_first
_citation_page_last
_citation_journal_id_ASTM
primary 'Journal of Physics and Chemistry of Solids' 1998 59 363 376 JPCSAW
loop_
_publ_author_name
'Idemoto, Y.'
'Ricardson, J.W.jr.'
'Koura, N.'
'Kohara, S.'
'Loong, C.-K.'
_cell_length_a 7.2232(1)
_cell_length_b 7.0769(1)
_cell_length_c 7.5951(1)
_cell_angle_alpha 90.
_cell_angle_beta 127.422(1)
_cell_angle_gamma 90.
_cell_volume 308.34
_cell_formula_units_Z 4
_symmetry_space_group_name_H-M 'P 1 21/c 1'
_symmetry_Int_Tables_number 14
_refine_ls_R_factor_all 0.0229
loop_
_symmetry_equiv_pos_site_id
_symmetry_equiv_pos_as_xyz
1 'x, -y+1/2, z+1/2'
2 '-x, -y, -z'
3 '-x, y+1/2, -z+1/2'
4 'x, y, z'
loop_
_atom_type_symbol
_atom_type_oxidation_number
Li1+ 1
K1+ 1
C4+ 4
O2- -2
loop_
_atom_site_label
_atom_site_type_symbol
_atom_site_symmetry_multiplicity
_atom_site_Wyckoff_symbol
_atom_site_fract_x
_atom_site_fract_y
_atom_site_fract_z
_atom_site_B_iso_or_equiv
_atom_site_occupancy
_atom_site_attached_hydrogens
Li1 Li1+ 4 e 0.403(1) 0.0681(8) 0.1007(10) . 1. 0
K1 K1+ 4 e -.1720(5) 0.3545(5) 0.1670(6) . 1. 0
C1 C4+ 4 e 0.2938(3) 0.3322(3) 0.2136(3) . 1. 0
O1 O2- 4 e 0.7437(4) -.0244(3) 0.2104(4) . 1. 0
O2 O2- 4 e 0.1602(4) 0.1898(3) 0.1293(4) . 1. 0
O3 O2- 4 e 0.4785(4) 0.3327(4) 0.2194(4) . 1. 0
loop_
_atom_site_aniso_label
_atom_site_aniso_type_symbol
_atom_site_aniso_U_11
_atom_site_aniso_U_22
_atom_site_aniso_U_33
_atom_site_aniso_U_12
_atom_site_aniso_U_13
_atom_site_aniso_U_23
Li1 Li1+ 0.0122(31) 0.0178(33) 0.0215(38) 0.0043(32) 0.0145(32) -.0007(27)
K1 K1+ 0.0087(19) 0.0165(22) 0.0409(29) -.0024(13) 0.0162(20) -.0018(16)
C1 C4+ 0.0130(9) 0.0083(10) 0.0203(13) -.0045(9) 0.0142(9) -.0065(10)
O1 O2- 0.0197(13) 0.0101(12) 0.0229(16) 0.0044(9) 0.0170(12) 0.0071(11)
O2 O2- 0.0180(14) 0.0084(12) 0.0438(19) -.0029(10) 0.0234(14) -.0012(11)
O3 O2- 0.0185(13) 0.0217(12) 0.0501(19) -.0059(12) 0.0294(14) -.0102(14)
#End of TTdata_66944-ICSD