
#(C) 2017 by FIZ Karlsruhe - Leibniz Institute for Information Infrastructure.  All rights reserved.
data_67512-ICSD
_database_code_ICSD 67512
_audit_creation_date 1993-08-22
_chemical_name_systematic 'Lithium barium phyllo-undecafluorodizirconate'
_chemical_formula_structural 'Li Ba (Zr2 F11)'
_chemical_formula_sum 'Ba1 F11 Li1 Zr2'
_exptl_crystal_density_diffrn 4.71
_publ_section_title 'Crystal structure determination of LiBaZr2F11'
loop_
_citation_id
_citation_journal_full
_citation_year
_citation_journal_volume
_citation_page_first
_citation_page_last
_citation_journal_id_ASTM
primary 'European Journal of Solid State Inorganic Chemistry' 1992 29 1243 1252
EJSCE5
loop_
_publ_author_name
'Gao, Y.'
'Guery, J.'
'Jacoboni, C.'
_cell_length_a 8.1837(4)
_cell_length_b 8.1837(4)
_cell_length_c 11.2772(6)
_cell_angle_alpha 90.
_cell_angle_beta 90.
_cell_angle_gamma 90.
_cell_volume 755.27
_cell_formula_units_Z 4
_symmetry_space_group_name_H-M 'I 4/m'
_symmetry_Int_Tables_number 87
_refine_ls_R_factor_all 0.022
loop_
_symmetry_equiv_pos_site_id
_symmetry_equiv_pos_as_xyz
1 '-y, x, -z'
2 'y, -x, -z'
3 'x, y, -z'
4 '-x, -y, -z'
5 'y, -x, z'
6 '-y, x, z'
7 '-x, -y, z'
8 'x, y, z'
9 '-y+1/2, x+1/2, -z+1/2'
10 'y+1/2, -x+1/2, -z+1/2'
11 'x+1/2, y+1/2, -z+1/2'
12 '-x+1/2, -y+1/2, -z+1/2'
13 'y+1/2, -x+1/2, z+1/2'
14 '-y+1/2, x+1/2, z+1/2'
15 '-x+1/2, -y+1/2, z+1/2'
16 'x+1/2, y+1/2, z+1/2'
loop_
_atom_type_symbol
_atom_type_oxidation_number
Zr4+ 4
Ba2+ 2
F1- -1
Li1+ 1
loop_
_atom_site_label
_atom_site_type_symbol
_atom_site_symmetry_multiplicity
_atom_site_Wyckoff_symbol
_atom_site_fract_x
_atom_site_fract_y
_atom_site_fract_z
_atom_site_B_iso_or_equiv
_atom_site_occupancy
_atom_site_attached_hydrogens
Zr1 Zr4+ 8 h 0.78559(3) 0.63807(3) 0 . 1. 0
Ba1 Ba2+ 4 e 0 0 0.19482(2) . 1. 0
F1 F1- 4 c 0 0.5 0.5 . 1. 0
F2 F1- 8 h 0.3120(2) 0.3801(2) 0.5 . 1. 0
F3 F1- 16 i 0.3885(2) 0.1757(2) 0.6636(1) . 1. 0
F4 F1- 16 i 0.0723(1) 0.2057(2) 0.6039(1) . 1. 0
Li1 Li1+ 4 d 0 0.5 0.75 1.34(11) 1. 0
loop_
_atom_site_aniso_label
_atom_site_aniso_type_symbol
_atom_site_aniso_U_11
_atom_site_aniso_U_22
_atom_site_aniso_U_33
_atom_site_aniso_U_12
_atom_site_aniso_U_13
_atom_site_aniso_U_23
Zr1 Zr4+ 0.0053(1) 0.0057(1) 0.0066(1) 0.0000(1) 0 0
Ba1 Ba2+ 0.0114(1) 0.0114(1) 0.0082(1) 0 0 0
F1 F1- 0.0119(9) 0.0106(9) 0.0169(11) -.00300(7) 0 0
F2 F1- 0.0112(6) 0.0086(6) 0.0157(7) -.0006(5) 0 0
F3 F1- 0.0159(5) 0.0138(5) 0.0087(5) -.0016(4) -.0032(4) -.0001(4)
F4 F1- 0.099(4) 0.0165(5) 0.0102(5) 0.0032(3) 0.0010(3) 0.007(4)
#End of TTdata_67512-ICSD