
#(C) 2018 by FIZ Karlsruhe - Leibniz Institute for Information Infrastructure.  All rights reserved.
data_67523-ICSD
_database_code_ICSD 67523
_audit_creation_date 1993-08-22
_chemical_name_systematic 'Lithium magnesium arsenate'
_chemical_formula_structural 'Li Mg (As O4)'
_chemical_formula_sum 'As1 Li1 Mg1 O4'
_chemical_name_structure_type Olivine-Mg2SiO4
_exptl_crystal_density_diffrn 3.73
_publ_section_title 'Structural Refinement of Olivine-Type LiMgAsO4'
loop_
_citation_id
_citation_journal_full
_citation_year
_citation_journal_volume
_citation_page_first
_citation_page_last
_citation_journal_id_ASTM
primary 'Australian Journal of Chemistry' 1992 45 1355 1362 AJCHAS
loop_
_publ_author_name
'Barbier, J.'
_cell_length_a 10.4183(15)
_cell_length_b 5.9660(8)
_cell_length_c 4.8692(5)
_cell_angle_alpha 90.
_cell_angle_beta 90.
_cell_angle_gamma 90.
_cell_volume 302.65
_cell_formula_units_Z 4
_symmetry_space_group_name_H-M 'P n m a'
_symmetry_Int_Tables_number 62
_refine_ls_R_factor_all 0.027
loop_
_symmetry_equiv_pos_site_id
_symmetry_equiv_pos_as_xyz
1 'x+1/2, y, -z+1/2'
2 'x, -y+1/2, z'
3 '-x+1/2, y+1/2, z+1/2'
4 '-x, -y, -z'
5 '-x+1/2, -y, z+1/2'
6 '-x, y+1/2, -z'
7 'x+1/2, -y+1/2, -z+1/2'
8 'x, y, z'
loop_
_atom_type_symbol
_atom_type_oxidation_number
Li1+ 1
Mg2+ 2
As5+ 5
O2- -2
loop_
_atom_site_label
_atom_site_type_symbol
_atom_site_symmetry_multiplicity
_atom_site_Wyckoff_symbol
_atom_site_fract_x
_atom_site_fract_y
_atom_site_fract_z
_atom_site_B_iso_or_equiv
_atom_site_occupancy
_atom_site_attached_hydrogens
Li1 Li1+ 4 a 0 0 0 0.7(3) 1. 0
Mg1 Mg2+ 4 c 0.2738(5) 0.25 0.9972(12) 0.5(1) 1. 0
As1 As5+ 4 c 0.0928(5) 0.25 0.4298(8) 0.9(1) 1. 0
O1 O2- 4 c 0.1007(5) 0.25 0.7738(10) 0.4(1) 1. 0
O2 O2- 4 c 0.4489(5) 0.25 0.1975(10) 0.5(1) 1. 0
O3 O2- 8 d 0.1723(4) 0.0339(5) 0.2810(8) 0.52(7) 1. 0
#End of TTdata_67523-ICSD