
#(C) 2018 by FIZ Karlsruhe - Leibniz Institute for Information Infrastructure.  All rights reserved.
data_67921-ICSD
_database_code_ICSD 67921
_audit_creation_date 1995-01-10
_chemical_name_systematic 'Lithium triaquatrisulfato(IV)rhodate hydroxide'
_chemical_formula_structural 'Li4 (Rh (S O3)3 (O H2)3) (O H)'
_chemical_formula_sum 'H7 Li4 O13 Rh1 S3'
_exptl_crystal_density_diffrn 2.9
_publ_section_title

;
The Crystal Structure of Lithium fac-Triaquatrisulfitorhodate(III) hydroxide,
Li4(Rh(SO3)3(OH2)3)(OH)
;
loop_
_citation_id
_citation_journal_full
_citation_year
_citation_journal_volume
_citation_page_first
_citation_page_last
_citation_journal_id_ASTM
primary 'Zeitschrift fuer Naturforschung, B: Chemical Sciences' 1993 48 1187
1192 ZNBSEN
loop_
_publ_author_name
'Maeurer, A.'
'Breitinger, D.K.'
'Breiter, R.'
_cell_length_a 8.077(2)
_cell_length_b 8.077(2)
_cell_length_c 13.381(6)
_cell_angle_alpha 90.
_cell_angle_beta 90.
_cell_angle_gamma 120.
_cell_volume 756.
_cell_formula_units_Z 3
_symmetry_space_group_name_H-M 'R 3 H'
_symmetry_Int_Tables_number 146
_refine_ls_R_factor_all 0.0232
loop_
_symmetry_equiv_pos_site_id
_symmetry_equiv_pos_as_xyz
1 '-x+y, -x, z'
2 '-y, x-y, z'
3 'x, y, z'
4 '-x+y+2/3, -x+1/3, z+1/3'
5 '-y+2/3, x-y+1/3, z+1/3'
6 'x+2/3, y+1/3, z+1/3'
7 '-x+y+1/3, -x+2/3, z+2/3'
8 '-y+1/3, x-y+2/3, z+2/3'
9 'x+1/3, y+2/3, z+2/3'
loop_
_atom_type_symbol
_atom_type_oxidation_number
Rh3+ 3
S4+ 4
O2- -2
H1+ 1
O2- -2
H1+ 1
Li1+ 1
loop_
_atom_site_label
_atom_site_type_symbol
_atom_site_symmetry_multiplicity
_atom_site_Wyckoff_symbol
_atom_site_fract_x
_atom_site_fract_y
_atom_site_fract_z
_atom_site_B_iso_or_equiv
_atom_site_occupancy
_atom_site_attached_hydrogens
Rh1 Rh3+ 3 a 0 0 0 . 1. 0
S1 S4+ 9 b 0.2588(2) 0.681(2) 0.9103(1) . 1. 0
O1 O2- 9 b 0.2384(4) 0.0943(4) 0.8020(2) . 1. 0
O2 O2- 9 b 0.2969(4) -.0923(4) 0.9229(2) . 1. 0
O3 O2- 9 b 0.4177(4) 0.2462(4) 0.9516(2) . 1. 0
O4 O2- 9 b 0.0583(5) -.1749(5) 0.1016(2) . 1. 0
H1 H1+ 9 b 0.1308(21) -.1033(21) 0.1477(19) 0.0328(22) 1. 0
H2 H1+ 9 b -.0577(21) -.2649(21) 0.1166(21) 0.0328(22) 1. 0
O5 O2- 3 a 0 0 0.4166(4) . 1. 0
H3 H1+ 3 a 0 0 0.4612(20) 0.0418(22) 1. 0
Li1 Li1+ 3 a 0 0 0.7106(9) 0.0243(16) 1. 0
Li2 Li1+ 9 b 0.4189(14) 0.2802(14) 0.6892(9) 0.0746(18) 1. 0
loop_
_atom_site_aniso_label
_atom_site_aniso_type_symbol
_atom_site_aniso_U_11
_atom_site_aniso_U_22
_atom_site_aniso_U_33
_atom_site_aniso_U_12
_atom_site_aniso_U_13
_atom_site_aniso_U_23
Rh1 Rh3+ 0.0095(1) 0.0095(1) 0.0070(1) 0.0047(1) 0 0
S1 S4+ 0.0149(4) 0.0175(4) 0.0123(4) 0.0090(3) 0.0015(3) -.0001(3)
O1 O2- 0.0202(10) 0.0347(12) 0.0099(9) 0.0112(9) 0.0010(8) 0.0000(9)
O2 O2- 0.0427(13) 0.0338(12) 0.0284(12) 0.0306(10) 0.0123(10) 0.0049(10)
O3 O2- 0.016(1) 0.0304(12) 0.0167(10) 0.0078(9) -.0021(8) 0.0000(9)
O4 O2- 0.0211(12) 0.0208(12) 0.0169(11) 0.0088(10) -.0034(10) 0.0022(10)
O5 O2- 0.0224(11) 0.0224(11) 0.0286(16) 0.0112(6) 0 0
#End of TTdata_67921-ICSD