
#(C) 2018 by FIZ Karlsruhe - Leibniz Institute for Information Infrastructure.  All rights reserved.
data_68921-ICSD
_database_code_ICSD 68921
_audit_creation_date 1992-01-20
_audit_update_record 2008-02-01
_chemical_name_systematic 'Lithium aluminium phosphate(V) hydroxide'
_chemical_formula_structural 'Li Al (P O4) (O H)'
_chemical_formula_sum 'H1 Al1 Li1 O5 P1'
_chemical_name_structure_type LiAlPO4(OH/F)
_chemical_name_mineral Montebrasite
_exptl_crystal_density_diffrn 3.02
_publ_section_title

;
The amblygonite-montebrasite series: characterization by single-crystal
structure refinement, infrared spectroscopy and multinuclear MAS-NMR
spectroscopy
;
loop_
_citation_id
_citation_journal_full
_citation_year
_citation_journal_volume
_citation_page_first
_citation_page_last
_citation_journal_id_ASTM
primary 'American Mineralogist' 1990 75 992 1008 AMMIAY
loop_
_publ_author_name
'Groat, L.A.'
'Raudsepp, M.'
'Hawthorne, F.C.'
'Ercit, T.S.'
'Sherriff, B.L.'
'Hartman, J.S.'
_cell_length_a 6.713(1)
_cell_length_b 7.708(1)
_cell_length_c 7.0194(7)
_cell_angle_alpha 91.31(1)
_cell_angle_beta 117.93(1)
_cell_angle_gamma 91.77(1)
_cell_volume 320.46
_cell_formula_units_Z 4
_symmetry_space_group_name_H-M 'C -1'
_symmetry_Int_Tables_number 2
_refine_ls_R_factor_all 0.022
loop_
_symmetry_equiv_pos_site_id
_symmetry_equiv_pos_as_xyz
1 '-x, -y, -z'
2 'x, y, z'
3 '-x+1/2, -y+1/2, -z'
4 'x+1/2, y+1/2, z'
loop_
_atom_type_symbol
_atom_type_oxidation_number
P5+ 5
Al3+ 3
O2- -2
Li1+ 1
H1+ 1
loop_
_atom_site_label
_atom_site_type_symbol
_atom_site_symmetry_multiplicity
_atom_site_Wyckoff_symbol
_atom_site_fract_x
_atom_site_fract_y
_atom_site_fract_z
_atom_site_B_iso_or_equiv
_atom_site_occupancy
_atom_site_attached_hydrogens
P1 P5+ 4 i 0.98395(6) 0.34212(4) 0.26653(6) 0.0041(2) 1. 0
Al1 Al3+ 2 a 0 0 0 0.0048(2) 1. 0
Al2 Al3+ 2 b 0 0 0.5 0.0046(2) 1. 0
O1 O2- 4 i -.3172(2) 0.0154(1) -.1592(2) 0.0065(4) 1. 0
O2 O2- 4 i 0.2981(2) 0.0581(1) 0.5743(2) 0.0065(4) 1. 0
O3 O2- 4 i 0.1013(2) -.2234(1) -.3897(2) 0.0063(4) 1. 0
O4 O2- 4 i 0.0265(2) 0.2362(1) 0.1035(2) 0.0076(4) 1. 0
O5 O2- 4 i 0.0471(2) 0.0890(1) -.2265(2) 0.0059(4) 1. 0
Li1 Li1+ 4 i 0.07(5) -.32(5) 0.31(4) 0.0172(94) 1. 0
H1 H1+ 4 i 0.183(4) 0.129(3) 0.848(4) 0.0000(94) 1. 0
#End of TTdata_68921-ICSD