
#(C) 2018 by FIZ Karlsruhe - Leibniz Institute for Information Infrastructure.  All rights reserved.
data_69846-ICSD
_database_code_ICSD 69846
_audit_creation_date 1993-01-06
_chemical_name_systematic 'Lithium uranium oxide (0.9/3/8)'
_chemical_formula_structural 'Li0.88 U3 O8'
_chemical_formula_sum 'Li0.88 O8 U3'
_exptl_crystal_density_diffrn 8.28
_cell_measurement_temperature 295.
_publ_section_title
'Structure of the insertion compound Li0.88U3O8 by powder neutron diffraction'
loop_
_citation_id
_citation_journal_full
_citation_year
_citation_journal_volume
_citation_page_first
_citation_page_last
_citation_journal_id_ASTM
primary 'Journal of Solid State Chemistry' 1991 92 169 169 JSSCBI
loop_
_publ_author_name
'Dickens, P.G.'
'Powell, A.V.'
_cell_length_a 6.9107(8)
_cell_length_b 11.7472(10)
_cell_length_c 4.1919(4)
_cell_angle_alpha 90.
_cell_angle_beta 90.
_cell_angle_gamma 90.
_cell_volume 340.3
_cell_formula_units_Z 2
_symmetry_space_group_name_H-M 'C 2 m m'
_symmetry_Int_Tables_number 38
_refine_ls_R_factor_all 0.014
loop_
_symmetry_equiv_pos_site_id
_symmetry_equiv_pos_as_xyz
1 'x, -y, z'
2 'x, y, -z'
3 'x, -y, -z'
4 'x, y, z'
5 'x+1/2, -y+1/2, z'
6 'x+1/2, y+1/2, -z'
7 'x+1/2, -y+1/2, -z'
8 'x+1/2, y+1/2, z'
loop_
_atom_type_symbol
_atom_type_oxidation_number
U5+ 5.04
O2- -2
Li1+ 1
loop_
_atom_site_label
_atom_site_type_symbol
_atom_site_symmetry_multiplicity
_atom_site_Wyckoff_symbol
_atom_site_fract_x
_atom_site_fract_y
_atom_site_fract_z
_atom_site_B_iso_or_equiv
_atom_site_occupancy
_atom_site_attached_hydrogens
U1 U5+ 2 a 0.015(1) 0 0 0.27(4) 1. 0
U2 U5+ 4 d 0 0.3195(4) 0 0.27(4) 1. 0
O1 O2- 2 b 0.053(2) 0 0.5 1.4(1) 1. 0
O2 O2- 4 e 0 0.3216(8) 0.5 1.4(1) 1. 0
O3 O2- 2 a 0.445(2) 0 0 1.4(1) 1. 0
O4 O2- 4 d 0.811(2) 0.136(1) 0 1.4(1) 1. 0
O5 O2- 4 d 0.683(2) 0.340(1) 0 1.4(1) 1. 0
Li1 Li1+ 2 b 0.445(2) 0 0.5 1.9(1) 0.176 0
Li2 Li1+ 4 e 0.811(2) 0.136(1) 0.5 1.9(1) 0.176 0
Li3 Li1+ 4 e 0.683(2) 0.340(1) 0.5 1.9(1) 0.176 0
#End of TTdata_69846-ICSD