
#(C) 2018 by FIZ Karlsruhe - Leibniz Institute for Information Infrastructure.  All rights reserved.
data_71431-ICSD
_database_code_ICSD 71431
_audit_creation_date 1993-01-06
_audit_update_record 1999-11-30
_chemical_name_systematic 'Calcium lithium tecto-beryllophosphate *'
_chemical_formula_structural 'Ca5.18 Li13.64 (Be24 P24 O96)'
_chemical_formula_sum 'Be24 Ca5.18 Li13.64 O96 P24'
_chemical_name_mineral 'Pahasapaite (dehydrated)'
_exptl_crystal_density_diffrn 2.07
_cell_measurement_temperature 296.
_publ_section_title

;
Flexibility of the zeolite RHO framework: effect of dehydration on the crystal
structure of the beryllophosphate mineral, pahasapaite
;
loop_
_citation_id
_citation_journal_full
_citation_year
_citation_journal_volume
_citation_page_first
_citation_page_last
_citation_journal_id_ASTM
primary Zeolites 1991 11 364 367 ZEOLD3
loop_
_publ_author_name
'Corbin, D.R.'
'Abrams, L.'
'Jones, G.A.'
'Harlow, R.L.'
'Dunn, P.J.'
_cell_length_a 13.100(3)
_cell_length_b 13.100(3)
_cell_length_c 13.100(13)
_cell_angle_alpha 90.
_cell_angle_beta 90.
_cell_angle_gamma 90.
_cell_volume 2248.09
_cell_formula_units_Z 1
_symmetry_space_group_name_H-M 'I 2 3'
_symmetry_Int_Tables_number 197
_refine_ls_R_factor_all 0.042
loop_
_symmetry_equiv_pos_site_id
_symmetry_equiv_pos_as_xyz
1 '-z, -x, y'
2 '-y, -z, x'
3 '-x, -y, z'
4 '-z, x, -y'
5 '-y, z, -x'
6 '-x, y, -z'
7 'z, -x, -y'
8 'y, -z, -x'
9 'x, -y, -z'
10 'z, x, y'
11 'y, z, x'
12 'x, y, z'
13 '-z+1/2, -x+1/2, y+1/2'
14 '-y+1/2, -z+1/2, x+1/2'
15 '-x+1/2, -y+1/2, z+1/2'
16 '-z+1/2, x+1/2, -y+1/2'
17 '-y+1/2, z+1/2, -x+1/2'
18 '-x+1/2, y+1/2, -z+1/2'
19 'z+1/2, -x+1/2, -y+1/2'
20 'y+1/2, -z+1/2, -x+1/2'
21 'x+1/2, -y+1/2, -z+1/2'
22 'z+1/2, x+1/2, y+1/2'
23 'y+1/2, z+1/2, x+1/2'
24 'x+1/2, y+1/2, z+1/2'
loop_
_atom_type_symbol
_atom_type_oxidation_number
Ca2+ 2
P5+ 5
O2- -2
Be2+ 2
Li1+ 1
loop_
_atom_site_label
_atom_site_type_symbol
_atom_site_symmetry_multiplicity
_atom_site_Wyckoff_symbol
_atom_site_fract_x
_atom_site_fract_y
_atom_site_fract_z
_atom_site_B_iso_or_equiv
_atom_site_occupancy
_atom_site_attached_hydrogens
Ca1 Ca2+ 6 b 0.5 0 0.5 . 0.864(4) 0
P1 P5+ 24 f 0.28798(9) 0.13226(9) 0.43907(9) . 1. 0
O1 O2- 24 f 0.2491(2) 0.2405(2) 0.4136(2) . 1. 0
O2 O2- 24 f 0.3972(2) 0.1203(2) 0.3970(2) . 1. 0
O3 O2- 24 f 0.2973(2) 0.1168(3) 0.5532(2) . 1. 0
O4 O2- 24 f 0.2141(3) 0.0564(2) 0.3906(3) . 1. 0
Be1 Be2+ 24 f 0.2201(4) -.0622(4) 0.3684(4) . 1. 0
Li1 Li1+ 8 c 0.3204(10) 0.3204(10) 0.3204(10) 1.7(6) 0.75(3) 0
Li2 Li1+ 8 c 0.1908(7) 0.1908(7) 0.1908(7) 3.5(4) 0.655 0
Li3 Li1+ 8 c 0.3607(28) 0.3607(28) 0.3607(28) 3.00(16) 0.30(3) 0
loop_
_atom_site_aniso_label
_atom_site_aniso_type_symbol
_atom_site_aniso_U_11
_atom_site_aniso_U_22
_atom_site_aniso_U_33
_atom_site_aniso_U_12
_atom_site_aniso_U_13
_atom_site_aniso_U_23
Ca1 Ca2+ 0.053(2) 0.049(2) 0.135(4) 0 0 0
P1 P5+ 0.0190(5) 0.0165(5) 0.0162(6) 0.0004(5) 0.0017(5) -.0005(5)
O1 O2- 0.018(1) 0.016(1) 0.022(2) 0.001(1) 0.002(1) 0.001(1)
O2 O2- 0.019(2) 0.031(2) 0.021(2) 0.006(1) 0.009(1) 0.005(1)
O3 O2- 0.028(2) 0.035(2) 0.018(2) -.004(2) 0.003(1) 0.004(1)
O4 O2- 0.030(2) 0.017(1) 0.033(2) -.002(1) -.007(2) -.007(1)
Be1 Be2+ 0.014(2) 0.017(2) 0.018(2) -.003(2) 0.001(2) -.002(2)
#End of TTdata_71431-ICSD