
#(C) 2017 by FIZ Karlsruhe - Leibniz Institute for Information Infrastructure.  All rights reserved.
data_72176-ICSD
_database_code_ICSD 72176
_audit_creation_date 1993-08-22
_audit_update_record 2013-08-01
_chemical_name_systematic 'Lithium trifluoromethylsulfonate'
_chemical_formula_structural 'Li ((C F3) (S O3))'
_chemical_formula_sum 'C1 F3 Li1 O3 S1'
_chemical_name_structure_type LiCF3SO3
_exptl_crystal_density_diffrn 2.09
_publ_section_title

;
Ab initio structure determination of LiCF3SO3 from X-ray powderdiffraction
data using entropy maximization and likelihood ranking
;
loop_
_citation_id
_citation_journal_full
_citation_year
_citation_journal_volume
_citation_page_first
_citation_page_last
_citation_journal_id_ASTM
primary 'Journal of Solid State Chemistry' 1992 100 191 196 JSSCBI
loop_
_publ_author_name
'Tremayne, M.'
'Lightfoot, P.'
'Mehta, M.A.'
'Bruce, P.G.'
'Harris, K.D.M.'
'Shankland, K.'
'Gilmore, C.J.'
'Bricogne, G.'
_cell_length_a 10.2432(2)
_cell_length_b 5.0591(1)
_cell_length_c 9.5592(3)
_cell_angle_alpha 90.
_cell_angle_beta 90.319(2)
_cell_angle_gamma 90.
_cell_volume 495.36
_cell_formula_units_Z 4
_symmetry_space_group_name_H-M 'P 1 21/c 1'
_symmetry_Int_Tables_number 14
_refine_ls_R_factor_all 0.071
loop_
_symmetry_equiv_pos_site_id
_symmetry_equiv_pos_as_xyz
1 'x, -y+1/2, z+1/2'
2 '-x, -y, -z'
3 '-x, y+1/2, -z+1/2'
4 'x, y, z'
loop_
_atom_type_symbol
_atom_type_oxidation_number
S4+ 4
C4+ 4
Li1+ 1
F1- -1
O2- -2
loop_
_atom_site_label
_atom_site_type_symbol
_atom_site_symmetry_multiplicity
_atom_site_Wyckoff_symbol
_atom_site_fract_x
_atom_site_fract_y
_atom_site_fract_z
_atom_site_B_iso_or_equiv
_atom_site_occupancy
_atom_site_attached_hydrogens
S1 S4+ 4 e 0.8287(4) 0.3950(6) 0.0944(4) 0.010(1) 1. 0
C1 C4+ 4 e 0.6620(6) 0.2434(13) 0.1081(6) 0.030(2) 1. 0
Li1 Li1+ 4 e 0.0869(14) 0.119(4) 0.0796(17) 0.034(4) 1. 0
F1 F1- 4 e 0.5766(5) 0.4366(12) 0.1426(6) 0.048(2) 1. 0
F2 F1- 4 e 0.6264(6) 0.1413(11) -.0121(7) 0.060(2) 1. 0
F3 F1- 4 e 0.6627(6) 0.0571(12) 0.1942(7) 0.063(22) 1. 0
O1 O2- 4 e 0.8583(6) 0.5016(10) 0.2283(6) 0.046(2) 1. 0
O2 O2- 4 e 0.9121(5) 0.1680(11) 0.0584(6) 0.021(2) 1. 0
O3 O2- 4 e 0.8109(6) 0.5996(13) -.0091(7) 0.025(2) 1. 0
#End of TTdata_72176-ICSD