
#(C) 2018 by FIZ Karlsruhe - Leibniz Institute for Information Infrastructure.  All rights reserved.
data_72848-ICSD
_database_code_ICSD 72848
_audit_creation_date 1994-01-19
_chemical_name_systematic 'Lithium copper vanadate (0.9/1/1) - HT'
_chemical_formula_structural 'Li0.9 Cu (V O4)'
_chemical_formula_sum 'Cu1 Li0.9 O4 V1'
_chemical_name_structure_type LiCuVO4
_exptl_crystal_density_diffrn 4.27
_publ_section_title

;
Structure and phase transition in the spinel system Li1-xCuVO4 (0<x<0.2), with
one-dimensional cooperative Jahn-Teller ordering
;
loop_
_citation_id
_citation_journal_full
_citation_year
_citation_journal_volume
_citation_page_first
_citation_page_last
_citation_journal_id_ASTM
primary 'Journal of Solid State Chemistry' 1992 96 397 407 JSSCBI
loop_
_publ_author_name
'Kanno, R.'
'Kawamoto, Y.'
'Takeda, Y.'
'Hasegawa, M.'
'Yamamoto, O.'
'Kinomura, N.'
_cell_length_a 5.6435(1)
_cell_length_b 5.7983(1)
_cell_length_c 8.7812(2)
_cell_angle_alpha 90.
_cell_angle_beta 90.
_cell_angle_gamma 90.
_cell_volume 287.34
_cell_formula_units_Z 4
_symmetry_space_group_name_H-M 'I m m a'
_symmetry_Int_Tables_number 74
_refine_ls_R_factor_all 0.03
loop_
_symmetry_equiv_pos_site_id
_symmetry_equiv_pos_as_xyz
1 '-x, y+1/2, -z'
2 '-x, -y+1/2, z'
3 '-x, y, z'
4 '-x, -y, -z'
5 'x, -y+1/2, z'
6 'x, y+1/2, -z'
7 'x, -y, -z'
8 'x, y, z'
9 '-x+1/2, y, -z+1/2'
10 '-x+1/2, -y, z+1/2'
11 '-x+1/2, y+1/2, z+1/2'
12 '-x+1/2, -y+1/2, -z+1/2'
13 'x+1/2, -y, z+1/2'
14 'x+1/2, y, -z+1/2'
15 'x+1/2, -y+1/2, -z+1/2'
16 'x+1/2, y+1/2, z+1/2'
loop_
_atom_type_symbol
_atom_type_oxidation_number
V5+ 5
Cu2+ 2.1
Li1+ 1
Cu2+ 2.1
O2- -2
loop_
_atom_site_label
_atom_site_type_symbol
_atom_site_symmetry_multiplicity
_atom_site_Wyckoff_symbol
_atom_site_fract_x
_atom_site_fract_y
_atom_site_fract_z
_atom_site_B_iso_or_equiv
_atom_site_occupancy
_atom_site_attached_hydrogens
V1 V5+ 4 e 0 0.25 0.3862(8) 0.5(2) 1. 0
Cu1 Cu2+ 4 a 0 0 0 1.5(2) 0.954(6) 0
Li1 Li1+ 4 d 0.25 0.25 0.75 1.5(2) 0.9 0
Cu2 Cu2+ 4 d 0.25 0.25 0.75 1.5(2) 0.045(6) 0
O1 O2- 8 h 0 0.017(2) 0.277(1) 1.6(2) 1. 0
O2 O2- 8 i 0.234(1) 0.25 0.003(1) 0.9(4) 1. 0
#End of TTdata_72848-ICSD