
#(C) 2018 by FIZ Karlsruhe - Leibniz Institute for Information Infrastructure.  All rights reserved.
data_73151-ICSD
_database_code_ICSD 73151
_audit_creation_date 1994-06-30
_chemical_name_systematic 'Lithium tecto-thioborate *'
_chemical_formula_structural 'Li9 B19 S33'
_chemical_formula_sum 'B19 Li9 S33'
_exptl_crystal_density_diffrn 2.18
_cell_measurement_temperature 295.
_publ_section_title

;
Li5B7S13 und Li9B19S33: zwei Lithiumthioborate mit neuen hochpolymeren
Anionengeruesten
;
loop_
_citation_id
_citation_journal_full
_citation_year
_citation_journal_volume
_citation_page_first
_citation_page_last
_citation_journal_id_ASTM
primary 'Zeitschrift fuer Anorganische und Allgemeine Chemie (1950) (DE)' 1993
619 293 302 ZAACAB
loop_
_publ_author_name
'Hiltmann, F.'
'zum Hecht, P.'
'Hammerschmidt, A.'
'Krebs, B.'
_cell_length_a 23.669(9)
_cell_length_b 14.361(3)
_cell_length_c 12.237(3)
_cell_angle_alpha 90.
_cell_angle_beta 103.77(2)
_cell_angle_gamma 90.
_cell_volume 4039.94
_cell_formula_units_Z 4
_symmetry_space_group_name_H-M 'C 1 2/c 1'
_symmetry_Int_Tables_number 15
_refine_ls_R_factor_all 0.046
loop_
_symmetry_equiv_pos_site_id
_symmetry_equiv_pos_as_xyz
1 'x, -y, z+1/2'
2 '-x, -y, -z'
3 '-x, y, -z+1/2'
4 'x, y, z'
5 'x+1/2, -y+1/2, z+1/2'
6 '-x+1/2, -y+1/2, -z'
7 '-x+1/2, y+1/2, -z+1/2'
8 'x+1/2, y+1/2, z'
loop_
_atom_type_symbol
_atom_type_oxidation_number
S2- -2
B3+ 3
Li1+ 1
loop_
_atom_site_label
_atom_site_type_symbol
_atom_site_symmetry_multiplicity
_atom_site_Wyckoff_symbol
_atom_site_fract_x
_atom_site_fract_y
_atom_site_fract_z
_atom_site_B_iso_or_equiv
_atom_site_occupancy
_atom_site_attached_hydrogens
S1 S2- 8 f 0.14758(4) 0.14207(7) 0.27848(8) . 1. 0
S2 S2- 8 f 0.06723(4) 0.12105(7) 0.02489(8) . 1. 0
S3 S2- 8 f 0.05205(4) 0.30168(7) 0.17983(8) . 1. 0
S4 S2- 8 f 0.16665(4) 0.28032(7) 0.08183(8) . 1. 0
S5 S2- 8 f 0.04255(4) 0.14709(7) 0.37583(8) . 1. 0
S6 S2- 8 f 0.15175(5) 0.45236(7) 0.22358(8) . 1. 0
S7 S2- 8 f 0.22557(5) 0.46666(8) 0.47336(8) . 1. 0
S8 S2- 8 f 0.13048(5) 0.31728(7) 0.42293(8) . 1. 0
S9 S2- 4 e 0 0.41467(10) 0.75 . 1. 0
S10 S2- 8 f 0.16270(5) 0.97095(7) 0.13021(9) . 1. 0
S11 S2- 8 f 0.09014(4) 0.25525(8) 0.83797(8) . 1. 0
S12 S2- 8 f 0.24405(5) 0.29610(8) 0.32648(9) . 1. 0
S13 S2- 8 f 0.25919(5) 0.12973(8) 0.18725(9) . 1. 0
S14 S2- 8 f 0.05219(7) 0.98727(7) 0.20943(9) . 1. 0
S15 S2- 8 f 0.18142(5) 0.10855(8) 0.93644(8) . 1. 0
S16 S2- 8 f 0.97494(5) 0.27296(8) 0.93280(8) . 1. 0
S17 S2- 8 f 0.07250(5) 0.43065(7) 0.98754(9) . 1. 0
B1 B3+ 8 f 0.1082(2) 0.0561(3) 0.1595(4) . 1. 0
B2 B3+ 8 f 0.1108(2) 0.3653(3) 0.1195(4) . 1. 0
B3 B3+ 8 f 0.2172(2) 0.0446(3) 0.0735(4) . 1. 0
B4 B3+ 8 f 0.0157(2) 0.2136(3) 0.0667(4) . 1. 0
B5 B3+ 4 e 0 0.0712(5) 0.25 . 1. 0
B6 B3+ 8 f 0.0926(2) 0.2319(3) 0.3117(4) . 1. 0
B7 B3+ 8 f 0.2033(2) 0.2128(3) 0.2183(4) . 1. 0
B8 B3+ 8 f 0.1871(2) 0.3810(3) 0.3553(4) . 1. 0
B9 B3+ 8 f 0.1258(2) 0.1908(3) -.0285(4) . 1. 0
B10 B3+ 8 f 0.0344(2) 0.3385(3) 0.8783(4) . 1. 0
Li1 Li1+ 4 e 0 0.1623(11) 0.75 . 0.96 0
Li2 Li1+ 8 f 0.2547(5) 0.4734(14) 0.1898(10) . 1. 0
Li3 Li1+ 4 c 0.25 0.25 0 . 0.74 0
Li4 Li1+ 8 f 0.1409(8) 0.4134(11) 0.8561(16) . 0.87 0
Li5 Li1+ 8 f -.0469(9) 0.4112(11) 0.0289(18) . 0.81 0
Li6 Li1+ 8 f 0.2122(13) 0.1902(19) 0.4850(19) . 0.5 0
Li7 Li1+ 8 f 0.3595(11) 0.2862(22) 0.3644(33) . 0.47 0
loop_
_atom_site_aniso_label
_atom_site_aniso_type_symbol
_atom_site_aniso_U_11
_atom_site_aniso_U_22
_atom_site_aniso_U_33
_atom_site_aniso_U_12
_atom_site_aniso_U_13
_atom_site_aniso_U_23
S1 S2- 0.0079(5) 0.0117(5) 0.0103(4) 0.0010(4) 0.0019(4) -.0001(4)
S2 S2- 0.0097(5) 0.0099(5) 0.0098(4) 0.0013(4) 0.0016(4) 0.0000(4)
S3 S2- 0.0083(5) 0.0102(5) 0.0097(5) -.0003(4) 0.0015(4) -.0005(4)
S4 S2- 0.0124(5) 0.0110(5) 0.0101(5) -.0009(4) 0.0022(4) -.0003(4)
S5 S2- 0.0076(5) 0.0096(5) 0.0112(4) 0.0010(4) 0.0030(3) 0.0004(4)
S6 S2- 0.0180(6) 0.0117(5) 0.0117(5) -.0047(4) 0.0012(4) -.0025(4)
S7 S2- 0.0137(5) 0.0156(5) 0.0099(5) -.0067(4) 0.0043(4) -.0031(4)
S8 S2- 0.0131(5) 0.0145(5) 0.0105(4) -.0043(4) 0.0035(4) -.0032(4)
S9 S2- 0.0179(8) 0.0094(7) 0.0087(6) 0 -.0019(5) 0
S10 S2- 0.0127(5) 0.0121(5) 0.0175(5) 0.0037(4) 0.0064(4) 0.0006(4)
S11 S2- 0.0140(5) 0.0137(5) 0.0093(4) 0.0021(4) 0.0022(4) 0.0008(4)
S12 S2- 0.0110(5) 0.0235(6) 0.0219(6) -.0030(4) 0.0034(4) -.0114(5)
S13 S2- 0.0092(5) 0.0212(6) 0.0166(5) 0.0044(4) 0.0019(4) -.0056(4)
S14 S2- 0.0133(5) 0.0086(5) 0.0199(5) 0.0017(4) 0.0086(4) 0.0015(4)
S15 S2- 0.0147(5) 0.0190(5) 0.0109(5) 0.0076(4) 0.0044(4) 0.0010(4)
S16 S2- 0.0115(5) 0.0155(5) 0.0107(5) 0.0008(4) 0.0005(4) 0.0027(4)
S17 S2- 0.0255(6) 0.0095(5) 0.0119(5) -.0020(4) -.0032(4) 0.0009(4)
B1 B3+ 0.009(2) 0.010(2) 0.011(2) 0.003(2) 0.003(2) 0.000(2)
B2 B3+ 0.012(2) 0.010(2) 0.009(2) -.001(2) 0.002(2) 0.000(2)
B3 B3+ 0.014(2) 0.014(2) 0.009(2) 0.005(2) 0.004(2) 0.002(2)
B4 B3+ 0.008(2) 0.014(2) 0.013(2) 0.000(2) 0.004(2) -.001(2)
B5 B3+ 0.014(3) 0.009(3) 0.011(3) 0 0.005(3) 0
B6 B3+ 0.007(2) 0.009(2) 0.013(2) 0.000(2) 0.000(2) 0.002(2)
B7 B3+ 0.010(2) 0.017(2) 0.009(2) 0.000(2) 0.004(2) 0.002(2)
B8 B3+ 0.011(2) 0.015(2) 0.010(2) -.003(2) 0.001(2) -.006(2)
B9 B3+ 0.011(2) 0.014(2) 0.007(2) 0.005(2) 0.000(2) -.001(2)
B10 B3+ 0.013(2) 0.013(2) 0.010(2) 0.000(2) 0.000(2) 0.000(2)
Li1 Li1+ 0.038(10) 0.014(8) 0.21(3) 0 -.061(3) 0.00(12)
Li2 Li1+ 0.046(7) 0.18(2) 0.039(7) -.035(9) 0.020(6) -.043(9)
Li3 Li1+ 0.053(14) 0.058(15) 0.10(2) -.014(12) 0.059(14) -.022(14)
Li4 Li1+ 0.118(15) 0.054(10) 0.125(14) -.025(10) 0.094(13) 0.001(9)
Li5 Li1+ 0.12(2) 0.028(8) 0.13(2) 0.021(9) 0.072(14) -.005(9)
Li6 Li1+ 0.11(2) 0.06(2) 0.043(13) 0.06(2) -.016(13) 0.009(12)
Li7 Li1+ 0.024(13) 0.07(2) 0.19(4) -.025(13) -.04(2) 0.04(2)
#End of TTdata_73151-ICSD