
#(C) 2017 by FIZ Karlsruhe - Leibniz Institute for Information Infrastructure.  All rights reserved.
data_73228-ICSD
_database_code_ICSD 73228
_audit_creation_date 1994-06-30
_chemical_name_systematic 'Lithium tetrachlorocobaltate(II) - LT'
_chemical_formula_structural 'Li2 (Co Cl4)'
_chemical_formula_sum 'Cl4 Co1 Li2'
_chemical_name_structure_type Mn2SnS4
_exptl_crystal_density_diffrn 2.67
_publ_section_title 'Polymorphie und Pseudosymmetrie von Li2CoCl4'
loop_
_citation_id
_citation_journal_full
_citation_year
_citation_journal_volume
_citation_page_first
_citation_page_last
_citation_journal_id_ASTM
primary 'Zeitschrift fuer Kristallographie (1979-2010)' 1993 203 183 197 ZEKRDZ
loop_
_publ_author_name
'Schneider, M.'
'Lutz, H.D.'
'Cockcroft, J.K.'
_cell_length_a 7.241(1)
_cell_length_b 10.278(1)
_cell_length_c 3.5869(3)
_cell_angle_alpha 90.
_cell_angle_beta 90.
_cell_angle_gamma 90.
_cell_volume 266.95
_cell_formula_units_Z 2
_symmetry_space_group_name_H-M 'C m m m'
_symmetry_Int_Tables_number 65
_refine_ls_R_factor_all 0.039
loop_
_symmetry_equiv_pos_site_id
_symmetry_equiv_pos_as_xyz
1 'x, -y, z'
2 '-x, y, z'
3 'x, y, -z'
4 '-x, -y, -z'
5 '-x, y, -z'
6 'x, -y, -z'
7 '-x, -y, z'
8 'x, y, z'
9 'x+1/2, -y+1/2, z'
10 '-x+1/2, y+1/2, z'
11 'x+1/2, y+1/2, -z'
12 '-x+1/2, -y+1/2, -z'
13 '-x+1/2, y+1/2, -z'
14 'x+1/2, -y+1/2, -z'
15 '-x+1/2, -y+1/2, z'
16 'x+1/2, y+1/2, z'
loop_
_atom_type_symbol
_atom_type_oxidation_number
Li1+ 1
Co2+ 2
Cl1- -1
loop_
_atom_site_label
_atom_site_type_symbol
_atom_site_symmetry_multiplicity
_atom_site_Wyckoff_symbol
_atom_site_fract_x
_atom_site_fract_y
_atom_site_fract_z
_atom_site_B_iso_or_equiv
_atom_site_occupancy
_atom_site_attached_hydrogens
Li1 Li1+ 4 f 0.25 0.25 0.5 3.8(5) 1. 0
Co1 Co2+ 2 a 0 0 0 2.3(5) 1. 0
Cl1 Cl1- 4 h 0.2331(7) 0 0.5 1.5(1) 1. 0
Cl2 Cl1- 4 i 0 0.2384(5) 0 1.5(1) 1. 0
#End of TTdata_73228-ICSD