
#(C) 2018 by FIZ Karlsruhe - Leibniz Institute for Information Infrastructure.  All rights reserved.
data_73836-ICSD
_database_code_ICSD 73836
_audit_creation_date 1995-01-10
_chemical_name_systematic 'Hexalithium dizirconium oxide'
_chemical_formula_structural 'Li6 Zr2 O7'
_chemical_formula_sum 'Li6 O7 Zr2'
_chemical_name_structure_type Li6Zr2O7
_exptl_crystal_density_diffrn 3.56
_publ_section_title

;
Li6Zr2O7, a new anion vacancy ccp based structure, determinedby ab initio
powder diffraction methods
;
loop_
_citation_id
_citation_journal_full
_citation_year
_citation_journal_volume
_citation_page_first
_citation_page_last
_citation_journal_id_ASTM
primary 'Journal of Solid State Chemistry' 1993 104 397 403 JSSCBI
loop_
_publ_author_name
'Abrahams, I.'
'Lightfoot, P.'
'Bruce, P.G.'
_cell_length_a 10.4428(1)
_cell_length_b 5.9877(1)
_cell_length_c 10.2014(1)
_cell_angle_alpha 90.
_cell_angle_beta 100.266(1)
_cell_angle_gamma 90.
_cell_volume 627.66
_cell_formula_units_Z 4
_symmetry_space_group_name_H-M 'C 1 2/c 1'
_symmetry_Int_Tables_number 15
_refine_ls_R_factor_all 0.05
loop_
_symmetry_equiv_pos_site_id
_symmetry_equiv_pos_as_xyz
1 'x, -y, z+1/2'
2 '-x, -y, -z'
3 '-x, y, -z+1/2'
4 'x, y, z'
5 'x+1/2, -y+1/2, z+1/2'
6 '-x+1/2, -y+1/2, -z'
7 '-x+1/2, y+1/2, -z+1/2'
8 'x+1/2, y+1/2, z'
loop_
_atom_type_symbol
_atom_type_oxidation_number
Zr4+ 4
Li1+ 1
O2- -2
loop_
_atom_site_label
_atom_site_type_symbol
_atom_site_symmetry_multiplicity
_atom_site_Wyckoff_symbol
_atom_site_fract_x
_atom_site_fract_y
_atom_site_fract_z
_atom_site_B_iso_or_equiv
_atom_site_occupancy
_atom_site_attached_hydrogens
Zr1 Zr4+ 8 f 0.1833(1) 0.1223(2) 0.3642(1) 0.0137(3) 1. 0
Li1 Li1+ 8 f 0.2927(7) 0.1286(16) 0.1075(7) 0.016(2) 1. 0
Li2 Li1+ 8 f 0.4341(7) 0.4030(18) 0.3980(7) 0.012(2) 1. 0
Li3 Li1+ 8 f 0.0622(7) 0.3539(20) 0.0833(8) 0.018(2) 1. 0
O1 O2- 4 e 0 0.1467(9) 0.25 0.016(1) 1. 0
O2 O2- 8 f 0.1343(2) 0.3639(9) 0.5023(3) 0.0072(7) 1. 0
O3 O2- 8 f 0.3784(3) 0.3775(8) 0.0216(2) 0.0073(6) 1. 0
O4 O2- 8 f 0.2505(3) 0.3867(9) 0.2550(3) 0.0104(7) 1. 0
#End of TTdata_73836-ICSD