
#(C) 2018 by FIZ Karlsruhe - Leibniz Institute for Information Infrastructure.  All rights reserved.
data_73989-ICSD
_database_code_ICSD 73989
_audit_creation_date 1995-01-10
_audit_update_record 2012-02-01
_chemical_name_systematic 'Lithium ammonium sulfate(VI) - II'
_chemical_formula_structural 'Li (N H4) (S O4)'
_chemical_formula_sum 'H4 Li1 N1 O4 S1'
_chemical_name_structure_type NH4LiSO4
_exptl_crystal_density_diffrn 1.9
_cell_measurement_temperature 298.
_publ_section_title

;
Refined crystal structure of Li N H4 S O4 including hydrogen atoms in phases
II and III
;
loop_
_citation_id
_citation_journal_full
_citation_year
_citation_journal_volume
_citation_page_first
_citation_page_last
_citation_journal_id_ASTM
primary 'Journal of the Physical Society of Japan' 1993 62 155 162 JUPSAU
loop_
_publ_author_name
'Mashiyama, H.'
'Kasano, H.'
_cell_length_a 5.282(1)
_cell_length_b 9.131(3)
_cell_length_c 8.780(2)
_cell_angle_alpha 90.
_cell_angle_beta 90.
_cell_angle_gamma 90.
_cell_volume 423.46
_cell_formula_units_Z 4
_symmetry_space_group_name_H-M 'P 21 c n'
_symmetry_Int_Tables_number 33
_refine_ls_R_factor_all 0.036
loop_
_symmetry_equiv_pos_site_id
_symmetry_equiv_pos_as_xyz
1 'x, -y+1/2, z+1/2'
2 'x+1/2, y+1/2, -z+1/2'
3 'x+1/2, -y, -z'
4 'x, y, z'
loop_
_atom_type_symbol
_atom_type_oxidation_number
Li1+ 1
S6+ 6
O2- -2
N3- -3
H1+ 1
loop_
_atom_site_label
_atom_site_type_symbol
_atom_site_symmetry_multiplicity
_atom_site_Wyckoff_symbol
_atom_site_fract_x
_atom_site_fract_y
_atom_site_fract_z
_atom_site_B_iso_or_equiv
_atom_site_occupancy
_atom_site_attached_hydrogens
Li1 Li1+ 4 a 0.2507(19) 0.0871(4) 0.3231(3) . 1. 0
S1 S6+ 4 a 0.25 0.41651(4) 0.20198(4) . 1. 0
O1 O2- 4 a 0.250(1) 0.4044(3) 0.0383(2) . 1. 0
O2 O2- 4 a 0.3423(4) 0.2804(2) 0.2706(3) . 1. 0
O3 O2- 4 a -.0096(3) 0.4459(2) 0.2567(2) . 1. 0
O4 O2- 4 a 0.4151(4) 0.5382(2) 0.2502(2) . 1. 0
N1 N3- 4 a 0.7549(7) 0.2857(2) 0.5001(2) . 1. 0
H1 H1+ 4 a 0.835(18) 0.177(7) 0.506(8) 12.6(3) 1. 0
H2 H1+ 4 a 0.634(13) 0.295(5) 0.466(6) 6.5(2) 1. 0
H3 H1+ 4 a 0.844(18) 0.329(7) 0.424(9) 13.8(4) 1. 0
H4 H1+ 4 a 0.788(9) 0.340(4) 0.602(4) 2.0(2) 1. 0
loop_
_atom_site_aniso_label
_atom_site_aniso_type_symbol
_atom_site_aniso_U_11
_atom_site_aniso_U_22
_atom_site_aniso_U_33
_atom_site_aniso_U_12
_atom_site_aniso_U_13
_atom_site_aniso_U_23
Li1 Li1+ 0.0225(11) 0.0222(11) 0.0220(11) -.0042(23) -.0052(31) 0.0007(11)
S1 S6+ 0.0145(1) 0.0156(1) 0.0158(1) 0.0012(2) 0.0002(3) 0.0018(1)
O1 O2- 0.0418(9) 0.1205(18) 0.0162(5) -.0087(25) -.0032(18) -.0067(9)
O2 O2- 0.0313(8) 0.0220(6) 0.0807(14) 0.0035(6) -.0066(10) 0.0206(7)
O3 O2- 0.0181(5) 0.0352(7) 0.0419(8) 0.0061(6) 0.0110(6) 0.0144(6)
O4 O2- 0.0317(7) 0.0264(6) 0.0474(9) -.0126(6) 0.0160(7) -.0139(6)
N1 N3- 0.0296(7) 0.0301(6) 0.0237(6) -.0043(14) 0.0000(13) -.0005(5)
#End of TTdata_73989-ICSD