
#(C) 2018 by FIZ Karlsruhe - Leibniz Institute for Information Infrastructure.  All rights reserved.
data_74929-ICSD
_database_code_ICSD 74929
_audit_creation_date 1995-10-17
_audit_update_record 2015-02-01
_chemical_name_systematic 'Tetralithium chloride trihydroxide'
_chemical_formula_structural 'Li4 Cl (O H)3'
_chemical_formula_sum 'H3 Cl1 Li4 O3'
_chemical_name_structure_type Li4Cl(OH)3
_exptl_crystal_density_diffrn 1.53
_publ_section_title
'Ungewoehnliche Koordinationspolyeder um Sauerstoff in Li4Cl(OH)3'
loop_
_citation_id
_citation_journal_full
_citation_year
_citation_journal_volume
_citation_page_first
_citation_page_last
_citation_journal_id_ASTM
primary 'Zeitschrift fuer Anorganische und Allgemeine Chemie (1950) (DE)' 1994
620 471 474 ZAACAB
loop_
_publ_author_name
'Barlage, H.'
'Jacobs, H.'
_cell_length_a 5.4096(8)
_cell_length_b 7.382(2)
_cell_length_c 6.2076(8)
_cell_angle_alpha 90.
_cell_angle_beta 94.40(1)
_cell_angle_gamma 90.
_cell_volume 247.16
_cell_formula_units_Z 2
_symmetry_space_group_name_H-M 'P 1 21/m 1'
_symmetry_Int_Tables_number 11
_refine_ls_R_factor_all 0.022
loop_
_symmetry_equiv_pos_site_id
_symmetry_equiv_pos_as_xyz
1 'x, -y+1/2, z'
2 '-x, -y, -z'
3 '-x, y+1/2, -z'
4 'x, y, z'
loop_
_atom_type_symbol
_atom_type_oxidation_number
Cl1- -1
O2- -2
Li1+ 1
H1+ 1
loop_
_atom_site_label
_atom_site_type_symbol
_atom_site_symmetry_multiplicity
_atom_site_Wyckoff_symbol
_atom_site_fract_x
_atom_site_fract_y
_atom_site_fract_z
_atom_site_B_iso_or_equiv
_atom_site_occupancy
_atom_site_attached_hydrogens
Cl1 Cl1- 2 e 0.1807(1) 0.25 0.3170(1) . 1. 0
O1 O2- 2 e 0.7479(2) 0.25 0.7490(2) . 1. 0
O2 O2- 4 f 0.2863(1) 0.0502(2) 0.8432(2) . 1. 0
Li1 Li1+ 2 e 0.0700(4) 0.25 0.9149(7) . 1. 0
Li2 Li1+ 2 e 0.3905(4) 0.25 0.6679(6) . 1. 0
Li3 Li1+ 4 f 0.6469(3) 0.0166(4) 0.8589(4) . 1. 0
H1 H1+ 2 e 0.814(4) 0.25 0.629(5) 0.1(4) 1. 0
H2 H1+ 4 f 0.794(4) 0.023(6) 0.216(7) 2.2(5) 1. 0
loop_
_atom_site_aniso_label
_atom_site_aniso_type_symbol
_atom_site_aniso_U_11
_atom_site_aniso_U_22
_atom_site_aniso_U_33
_atom_site_aniso_U_12
_atom_site_aniso_U_13
_atom_site_aniso_U_23
Cl1 Cl1- 0.0277(1) 0.0221(2) 0.0183(2) 0 -.0019(1) 0
O1 O2- 0.0161(3) 0.0201(6) 0.0204(6) 0 0.0010(3) 0
O2 O2- 0.0178(2) 0.0185(4) 0.0218(4) 0.0011(2) -.0031(2) -.0001(4)
Li1 Li1+ 0.0158(2) 0.026(2) 0.032(2) 0 -.0015(8) 0
Li2 Li1+ 0.0198(8) 0.024(2) 0.022(2) 0 -.0013(8) 0
Li3 Li1+ 0.0202(2) 0.028(1) 0.029(1) -.0011(6) -.0006(6) -.002(1)
#End of TTdata_74929-ICSD