
#(C) 2017 by FIZ Karlsruhe - Leibniz Institute for Information Infrastructure.  All rights reserved.
data_74931-ICSD
_database_code_ICSD 74931
_audit_creation_date 1995-10-17
_chemical_name_systematic 'Lithium bromide amide'
_chemical_formula_structural 'Li2 Br (N H2)'
_chemical_formula_sum 'H2 Br1 Li2 N1'
_exptl_crystal_density_diffrn 2.3
_publ_section_title 'Li2Br(NH2): das erste ternaere Alkalimetallamidhalogenid'
loop_
_citation_id
_citation_journal_full
_citation_year
_citation_journal_volume
_citation_page_first
_citation_page_last
_citation_journal_id_ASTM
primary 'Zeitschrift fuer Anorganische und Allgemeine Chemie (1950) (DE)' 1994
620 479 482 ZAACAB
loop_
_publ_author_name
'Barlage, H.'
'Jacobs, H.'
_cell_length_a 12.484(2)
_cell_length_b 7.959(1)
_cell_length_c 6.385(1)
_cell_angle_alpha 90.
_cell_angle_beta 90.
_cell_angle_gamma 90.
_cell_volume 634.41
_cell_formula_units_Z 8
_symmetry_space_group_name_H-M 'P n m a'
_symmetry_Int_Tables_number 62
_refine_ls_R_factor_all 0.019
loop_
_symmetry_equiv_pos_site_id
_symmetry_equiv_pos_as_xyz
1 'x+1/2, y, -z+1/2'
2 'x, -y+1/2, z'
3 '-x+1/2, y+1/2, z+1/2'
4 '-x, -y, -z'
5 '-x+1/2, -y, z+1/2'
6 '-x, y+1/2, -z'
7 'x+1/2, -y+1/2, -z+1/2'
8 'x, y, z'
loop_
_atom_type_symbol
_atom_type_oxidation_number
Br1- -1
N3- -3
Li1+ 1
H1+ 1
loop_
_atom_site_label
_atom_site_type_symbol
_atom_site_symmetry_multiplicity
_atom_site_Wyckoff_symbol
_atom_site_fract_x
_atom_site_fract_y
_atom_site_fract_z
_atom_site_B_iso_or_equiv
_atom_site_occupancy
_atom_site_attached_hydrogens
Br1 Br1- 4 c 0.3640(1) 0.25 0.6801(2) . 1. 0
Br2 Br1- 4 c 0.1429(1) 0.25 0.1627(1) . 1. 0
N1 N3- 8 d 0.1000(3) 0.005(2) 0.6635(7) . 1. 0
Li1 Li1+ 4 c 0.347(2) 0.25 0.100(2) . 1. 0
Li2 Li1+ 4 c 0.073(2) 0.25 0.781(3) . 1. 0
Li3 Li1+ 8 d 0.062(1) 0.008(3) 0.356(1) . 1. 0
H1 H1+ 8 d 0.350(5) 0.02(1) 0.16(1) 0.025(25) 1. 0
H2 H1+ 8 d 0.402(6) 0.04(1) 0.27(1) 0.025(25) 1. 0
loop_
_atom_site_aniso_label
_atom_site_aniso_type_symbol
_atom_site_aniso_U_11
_atom_site_aniso_U_22
_atom_site_aniso_U_33
_atom_site_aniso_U_12
_atom_site_aniso_U_13
_atom_site_aniso_U_23
Br1 Br1- 0.0304(4) 0.0289(4) 0.0322(4) 0 0.0064(6) 0
Br2 Br1- 0.0179(3) 0.0195(3) 0.0196(3) 0 0.0026(6) 0
N1 N3- 0.017(1) 0.022(2) 0.017(2) -.006(5) 0.002(2) 0.005(4)
Li1 Li1+ 0.04(1) 0.029(8) 0.021(7) 0 -.003(8) 0
Li2 Li1+ 0.041(9) 0.016(7) 0.04(1) 0 -.005(8) 0
Li3 Li1+ 0.024(4) 0.037(5) 0.021(4) 0.00(1) -.004(4) 0.00(1)
#End of TTdata_74931-ICSD