
#(C) 2018 by FIZ Karlsruhe - Leibniz Institute for Information Infrastructure.  All rights reserved.
data_75283-ICSD
_database_code_ICSD 75283
_audit_creation_date 1996-04-22
_audit_update_record 2015-02-01
_chemical_name_systematic
'Manganese aluminium lithium oxide hydroxide (1/0.7/0.3/2/2)'
_chemical_formula_structural 'Mn (Al0.65 Li0.33) O2 (O H)2'
_chemical_formula_sum 'H2 Al0.65 Li0.33 Mn1 O4'
_chemical_name_mineral Lithiophorite
_exptl_crystal_density_diffrn 3.36
_publ_section_title 'Crystal structure refinement of lithiophorite'
loop_
_citation_id
_citation_journal_full
_citation_year
_citation_journal_volume
_citation_page_first
_citation_page_last
_citation_journal_id_ASTM
primary 'American Mineralogist' 1994 79 370 374 AMMIAY
loop_
_publ_author_name
'Post, J.E.'
'Appleman, D.E.'
_cell_length_a 2.9247(4)
_cell_length_b 2.9247(4)
_cell_length_c 28.1690(60)
_cell_angle_alpha 90.
_cell_angle_beta 90.
_cell_angle_gamma 120.
_cell_volume 208.67
_cell_formula_units_Z 3
_symmetry_space_group_name_H-M 'R -3 m H'
_symmetry_Int_Tables_number 166
_refine_ls_R_factor_all 0.028
loop_
_symmetry_equiv_pos_site_id
_symmetry_equiv_pos_as_xyz
1 'x-y, -y, -z'
2 '-x, -x+y, -z'
3 'y, x, -z'
4 'x-y, x, -z'
5 'y, -x+y, -z'
6 '-x, -y, -z'
7 '-x+y, y, z'
8 'x, x-y, z'
9 '-y, -x, z'
10 '-x+y, -x, z'
11 '-y, x-y, z'
12 'x, y, z'
13 'x-y+2/3, -y+1/3, -z+1/3'
14 '-x+2/3, -x+y+1/3, -z+1/3'
15 'y+2/3, x+1/3, -z+1/3'
16 'x-y+2/3, x+1/3, -z+1/3'
17 'y+2/3, -x+y+1/3, -z+1/3'
18 '-x+2/3, -y+1/3, -z+1/3'
19 '-x+y+2/3, y+1/3, z+1/3'
20 'x+2/3, x-y+1/3, z+1/3'
21 '-y+2/3, -x+1/3, z+1/3'
22 '-x+y+2/3, -x+1/3, z+1/3'
23 '-y+2/3, x-y+1/3, z+1/3'
24 'x+2/3, y+1/3, z+1/3'
25 'x-y+1/3, -y+2/3, -z+2/3'
26 '-x+1/3, -x+y+2/3, -z+2/3'
27 'y+1/3, x+2/3, -z+2/3'
28 'x-y+1/3, x+2/3, -z+2/3'
29 'y+1/3, -x+y+2/3, -z+2/3'
30 '-x+1/3, -y+2/3, -z+2/3'
31 '-x+y+1/3, y+2/3, z+2/3'
32 'x+1/3, x-y+2/3, z+2/3'
33 '-y+1/3, -x+2/3, z+2/3'
34 '-x+y+1/3, -x+2/3, z+2/3'
35 '-y+1/3, x-y+2/3, z+2/3'
36 'x+1/3, y+2/3, z+2/3'
loop_
_atom_type_symbol
_atom_type_oxidation_number
Mn3+ 3.72
Al3+ 3
Li1+ 1
O2- -2
H1+ 1
loop_
_atom_site_label
_atom_site_type_symbol
_atom_site_symmetry_multiplicity
_atom_site_Wyckoff_symbol
_atom_site_fract_x
_atom_site_fract_y
_atom_site_fract_z
_atom_site_B_iso_or_equiv
_atom_site_occupancy
_atom_site_attached_hydrogens
Mn1 Mn3+ 3 a 0 0 0 . 1. 0
Al1 Al3+ 3 b 0.3333 0.6667 0.1667 . 0.65(2) 0
Li1 Li1+ 3 b 0.3333 0.6667 0.1667 . 0.333 0
O1 O2- 6 c 0.6667 0.3333 0.0343(1) . 1. 0
O2 O2- 6 c 0.6667 0.3333 0.1319(1) . 1. 0
H1 H1+ 6 c 0.6667 0.3333 0.099(2) 0.12(3) 1. 0
loop_
_atom_site_aniso_label
_atom_site_aniso_type_symbol
_atom_site_aniso_U_11
_atom_site_aniso_U_22
_atom_site_aniso_U_33
_atom_site_aniso_U_12
_atom_site_aniso_U_13
_atom_site_aniso_U_23
Mn1 Mn3+ 0.0131(3) 0.0131(3) 0.0158(4) 0.0066(1) 0 0
Al1 Al3+ 0.0073(6) 0.0073(6) 0.0128(9) 0.0036(3) 0 0
Li1 Li1+ 0.0073(6) 0.0073(6) 0.0128(9) 0.0036(3) 0 0
O1 O2- 0.0224(11) 0.0224(11) 0.0182(13) 0.0112(5) 0 0
O2 O2- 0.0217(10) 0.0217(10) 0.0129(11) 0.0109(5) 0 0
#End of TTdata_75283-ICSD