
#(C) 2018 by FIZ Karlsruhe - Leibniz Institute for Information Infrastructure.  All rights reserved.
data_75538-ICSD
_database_code_ICSD 75538
_audit_creation_date 1996-04-22
_audit_update_record 1999-01-19
_chemical_name_systematic 'Lithium thulium silicate'
_chemical_formula_structural 'Li Tm (Si O4)'
_chemical_formula_sum 'Li1 O4 Si1 Tm1'
_chemical_name_structure_type Olivine-Mg2SiO4
_chemical_name_mineral 'Olivine-(Li, REE)'
_exptl_crystal_density_diffrn 5.37
_publ_section_title

;
Structural analysis and electrical property of Li-Ln-Si oxide systems (Ln:
rare earths)
;
loop_
_citation_id
_citation_journal_full
_citation_year
_citation_journal_volume
_citation_page_first
_citation_page_last
_citation_journal_id_ASTM
primary Kidorui 1994 24 148 149 KIDOEP
loop_
_publ_author_name
'Kono, Y.'
'Uematsu, K.'
'Sato, M.'
_cell_length_a 10.7896(2)
_cell_length_b 6.2677(2)
_cell_length_c 4.898(1)
_cell_angle_alpha 90.
_cell_angle_beta 90.
_cell_angle_gamma 90.
_cell_volume 331.23
_cell_formula_units_Z 4
_symmetry_space_group_name_H-M 'P n m a'
_symmetry_Int_Tables_number 62
_refine_ls_R_factor_all 0.021
loop_
_symmetry_equiv_pos_site_id
_symmetry_equiv_pos_as_xyz
1 'x+1/2, y, -z+1/2'
2 'x, -y+1/2, z'
3 '-x+1/2, y+1/2, z+1/2'
4 '-x, -y, -z'
5 '-x+1/2, -y, z+1/2'
6 '-x, y+1/2, -z'
7 'x+1/2, -y+1/2, -z+1/2'
8 'x, y, z'
loop_
_atom_type_symbol
_atom_type_oxidation_number
Li1+ 1
Tm3+ 3
Si4+ 4
O2- -2
loop_
_atom_site_label
_atom_site_type_symbol
_atom_site_symmetry_multiplicity
_atom_site_Wyckoff_symbol
_atom_site_fract_x
_atom_site_fract_y
_atom_site_fract_z
_atom_site_B_iso_or_equiv
_atom_site_occupancy
_atom_site_attached_hydrogens
Li1 Li1+ 4 a 0 0 0 3.(2) 1. 0
Tm1 Tm3+ 4 c 0.2784(3) 0.25 0.0281(8) 0.3(1) 1. 0
Si1 Si4+ 4 c 0.087(2) 0.25 0.587(4) 0.9(5) 1. 0
O1 O2- 4 c 0.101(4) 0.25 0.276(8) 0.4(1) 1. 0
O2 O2- 4 c 0.048(4) 0.75 0.282(8) 0.1(5) 1. 0
O3 O2- 8 d 0.160(3) 0.047(4) 0.723(4) 0.1(5) 1. 0
#End of TTdata_75538-ICSD