
#(C) 2018 by FIZ Karlsruhe - Leibniz Institute for Information Infrastructure.  All rights reserved.
data_75554-ICSD
_database_code_ICSD 75554
_audit_creation_date 1996-04-22
_chemical_name_systematic 'Lithium iron(III) bis(selenate(IV))'
_chemical_formula_structural 'Li Fe (Se O3)2'
_chemical_formula_sum 'Fe1 Li1 O6 Se2'
_exptl_crystal_density_diffrn 3.73
_publ_section_title 'Crystal structure of (Li Fe)3+ (Se O3)2'
loop_
_citation_id
_citation_journal_full
_citation_year
_citation_journal_volume
_citation_page_first
_citation_page_last
_citation_journal_id_ASTM
primary 'Monatshefte fuer Chemie' 1994 125 535 538 MOCMB7
loop_
_publ_author_name
'Giester, G.'
_cell_length_a 10.649(2)
_cell_length_b 10.649(2)
_cell_length_c 9.959(2)
_cell_angle_alpha 90.
_cell_angle_beta 90.
_cell_angle_gamma 90.
_cell_volume 1129.36
_cell_formula_units_Z 8
_symmetry_space_group_name_H-M 'I -4 2 d'
_symmetry_Int_Tables_number 122
_refine_ls_R_factor_all 0.037
loop_
_symmetry_equiv_pos_site_id
_symmetry_equiv_pos_as_xyz
1 '-y, -x+1/2, z+1/4'
2 'y, -x, -z'
3 'y, x+1/2, z+1/4'
4 '-y, x, -z'
5 'x, -y+1/2, -z+1/4'
6 '-x, -y, z'
7 '-x, y+1/2, -z+1/4'
8 'x, y, z'
9 '-y+1/2, -x, z+3/4'
10 'y+1/2, -x+1/2, -z+1/2'
11 'y+1/2, x, z+3/4'
12 '-y+1/2, x+1/2, -z+1/2'
13 'x+1/2, -y, -z+3/4'
14 '-x+1/2, -y+1/2, z+1/2'
15 '-x+1/2, y, -z+3/4'
16 'x+1/2, y+1/2, z+1/2'
loop_
_atom_type_symbol
_atom_type_oxidation_number
Li1+ 1
Fe3+ 3
Se4+ 4
O2- -2
loop_
_atom_site_label
_atom_site_type_symbol
_atom_site_symmetry_multiplicity
_atom_site_Wyckoff_symbol
_atom_site_fract_x
_atom_site_fract_y
_atom_site_fract_z
_atom_site_B_iso_or_equiv
_atom_site_occupancy
_atom_site_attached_hydrogens
Li1 Li1+ 8 d 0.5630(16) 0.25 0.125 . 1. 0
Fe1 Fe3+ 8 d 0.2889(1) 0.25 0.125 . 1. 0
Se1 Se4+ 16 e 0.44610(6) 0.27469(5) 0.40998(6) . 1. 0
O1 O2- 16 e 0.5816(4) 0.2090(4) 0.4593(4) . 1. 0
O2 O2- 16 e 0.3410(4) 0.1837(4) 0.4959(4) . 1. 0
O3 O2- 16 e 0.4288(4) 0.2080(4) 0.2547(4) . 1. 0
loop_
_atom_site_aniso_label
_atom_site_aniso_type_symbol
_atom_site_aniso_U_11
_atom_site_aniso_U_22
_atom_site_aniso_U_33
_atom_site_aniso_U_12
_atom_site_aniso_U_13
_atom_site_aniso_U_23
Li1 Li1+ 0.0165(69) 0.045(11) 0.0231(83) 0 0 -.0048(29)
Fe1 Fe3+ 0.0126(5) 0.0134(5) 0.0097(4) 0 0 0.0001(1)
Se1 Se4+ 0.0138(2) 0.0152(2) 0.0107(2) 0.0001(1) -.0001(1) -.0002(1)
O1 O2- 0.0115(18) 0.0269(24) 0.0157(18) 0.0015(7) 0.0006(6) 0.0005(7)
O2 O2- 0.0162(19) 0.0176(20) 0.0129(19) -.0009(7) 0.0015(6) -.0007(7)
O3 O2- 0.0147(19) 0.0238(23) 0.0119(17) 0.0016(7) -.0008(6) -.0007(6)
#End of TTdata_75554-ICSD