
#(C) 2018 by FIZ Karlsruhe - Leibniz Institute for Information Infrastructure.  All rights reserved.
data_78326-ICSD
_database_code_ICSD 78326
_audit_creation_date 1996-04-22
_chemical_name_systematic 'Dekalithium plumbodisilicate'
_chemical_formula_structural 'Li10 (Si2 Pb O10)'
_chemical_formula_sum 'Li10 O10 Pb1 Si2'
_exptl_crystal_density_diffrn 3.55
_publ_section_title

;
Li10 Si2 Pb(II) O10 = Li20 ((Si O4)4 (O Pb2 Pb O)) - Das erste "gemischte"
Silicat-Plumbat(II)
;
loop_
_citation_id
_citation_journal_full
_citation_year
_citation_journal_volume
_citation_page_first
_citation_page_last
_citation_journal_id_ASTM
primary 'Zeitschrift fuer Anorganische und Allgemeine Chemie (1950) (DE)' 1994
620 2026 2032 ZAACAB
loop_
_publ_author_name
'Brandes, R.'
'Hoppe, R.'
_cell_length_a 29.85069(40)
_cell_length_b 6.1061(1)
_cell_length_c 5.1283(1)
_cell_angle_alpha 90.
_cell_angle_beta 99.70(9)
_cell_angle_gamma 90.
_cell_volume 921.38
_cell_formula_units_Z 4
_symmetry_space_group_name_H-M 'C 1 2/m 1'
_symmetry_Int_Tables_number 12
_refine_ls_R_factor_all 0.0284
loop_
_symmetry_equiv_pos_site_id
_symmetry_equiv_pos_as_xyz
1 '-x, y, -z'
2 '-x, -y, -z'
3 'x, -y, z'
4 'x, y, z'
5 '-x+1/2, y+1/2, -z'
6 '-x+1/2, -y+1/2, -z'
7 'x+1/2, -y+1/2, z'
8 'x+1/2, y+1/2, z'
loop_
_atom_type_symbol
_atom_type_oxidation_number
Pb2+ 2
Si4+ 4
O2- -2
Li1+ 1
loop_
_atom_site_label
_atom_site_type_symbol
_atom_site_symmetry_multiplicity
_atom_site_Wyckoff_symbol
_atom_site_fract_x
_atom_site_fract_y
_atom_site_fract_z
_atom_site_B_iso_or_equiv
_atom_site_occupancy
_atom_site_attached_hydrogens
Pb1 Pb2+ 4 i 0.0386 0 0.7932(1) . 1. 0
Si1 Si4+ 4 i 0.7809(1) 0 0.6918(6) . 1. 0
Si2 Si4+ 4 i 0.8997(1) 0.5 0.3057(6) . 1. 0
O1 O2- 4 g 0 0.7512(12) 0 . 1. 0
O2 O2- 4 i 0.0956(3) 0.5 0.0068(16) . 1. 0
O3 O2- 4 i 0.2144(3) 0 0.6166(16) . 1. 0
O4 O2- 8 j 0.1937(2) 0.7771(10) 0.1708(12) . 1. 0
O5 O2- 4 i 0.0919(3) 0 0.1392(16) . 1. 0
O6 O2- 4 i 0.2714(3) 0 0.2599(16) . 1. 0
O7 O2- 4 i 0.0512(3) 0.5 0.5045(16) . 1. 0
O8 O2- 8 j 0.1294(9) 0.7170(9) 0.6374(12) . 1. 0
Li1 Li1+ 4 i 0.9923(8) 0.5 0.2490(39) . 1. 0
Li2 Li1+ 8 j 0.0646(6) 0.7149(26) 0.2390(31) . 1. 0
Li3 Li1+ 8 j 0.1942(6) 0.2401(25) 0.7899(33) . 1. 0
Li4 Li1+ 4 i 0.1736(12) 0.5 0.4047(53) . 1. 0
Li5 Li1+ 4 i 0.1317(9) 0 0.4912(43) . 1. 0
Li6 Li1+ 4 i 0.2683(9) 0 0.8628(49) . 1. 0
Li7 Li1+ 8 j 0.1313(6) 0.7795(26) 0.0334(34) . 1. 0
loop_
_atom_site_aniso_label
_atom_site_aniso_type_symbol
_atom_site_aniso_U_11
_atom_site_aniso_U_22
_atom_site_aniso_U_33
_atom_site_aniso_U_12
_atom_site_aniso_U_13
_atom_site_aniso_U_23
Pb1 Pb2+ 0.0094(2) 0.0116(2) 0.0094(2) 0 -.0001(1) 0
Si1 Si4+ 0.0071(15) 0.0125(13) 0.0084(13) 0 0.0003(11) 0
Si2 Si4+ 0.0056(14) 0.0075(12) 0.0091(13) 0 0.0017(11) 0
O1 O2- 0.0104(42) 0.0077(33) 0.0154(13) 0 0.00(32) 0
O2 O2- 0.0114(44) 0.0088(35) 0.0157(38) 0 0.0061(33) 0
O3 O2- 0.0128(45) 0.0134(37) 0.0124(36) 0 0.0048(33) 0
O4 O2- 0.0111(30) 0.0179(29) 0.0141(27) -.0009(24) 0.0015(23) -.0025(21)
O5 O2- 0.0104(43) 0.0075(33) 0.0119(36) 0 -.0032(32) 0
O6 O2- 0.0086(42) 0.0091(34) 0.0177(40) 0 0.0038(33) 0
O7 O2- 0.0065(40) 0.0114(35) 0.0107(35) 0 0.0011(30) 0
O8 O2- 0.0134(32) 0.0115(27) 0.0180(28) -.0051(24) 0.0011(24) 0.0020(21)
Li1 Li1+ 0.015(11) 0.0187(98) 0.0076(83) 0 -.0048(79) 0
Li2 Li1+ 0.0192(86) 0.0225(75) 0.0175(70) -.0047(66) 0.0082(63) 0.0081(56)
Li3 Li1+ 0.0223(93) 0.0116(67) 0.0307(86) 0.0005(64) 0.0021(74) -.0046(58)
Li4 Li1+ 0.039(18) 0.033(14) 0.024(13) 0 0.003(12) 0
Li5 Li1+ 0.019(13) 0.034(13) 0.0098(94) 0 0.0015(89) 0
Li6 Li1+ 0.018(13) 0.017(11) 0.028(12) 0 -.0105(98) 0
Li7 Li1+ 0.0085(76) 0.0199(76) 0.0313(86) 0.0010(62) -.0014(67) -.0093(62)
#End of TTdata_78326-ICSD