
#(C) 2018 by FIZ Karlsruhe - Leibniz Institute for Information Infrastructure.  All rights reserved.
data_78596-ICSD
_database_code_ICSD 78596
_audit_creation_date 1997-05-13
_chemical_name_systematic
'Barium copper lithium carbonate oxide (4/1.5/0.9/1.7/4.6)'
_chemical_formula_structural 'Ba4 Cu1.45 Li0.85 (C O3)1.7 O4.6'
_chemical_formula_sum 'C1.7 Ba4 Cu1.45 Li0.85 O9.7'
_exptl_crystal_density_diffrn 5.35
_publ_section_title

;
Synthesis, single crystal growth and structural determination of new copper
oxycarbonates A4 Cu M (C O3)2 O4, A= Sr, Ba, M= Li, Na, Ca
;
loop_
_citation_id
_citation_journal_full
_citation_year
_citation_journal_volume
_citation_page_first
_citation_page_last
_citation_journal_id_ASTM
primary 'Physica C, Superconductivity' 1995 247 359 370 PHYCE6
loop_
_publ_author_name
'Calestani, G.'
'Ganguly, P.'
'Matacotta, F.C.'
'Nozar, P.'
'Migliori, A.'
'Thomas, K.A.'
'Tomasi, A.'
_cell_length_a 5.726(1)
_cell_length_b 5.726(1)
_cell_length_c 15.583(2)
_cell_angle_alpha 90.
_cell_angle_beta 90.
_cell_angle_gamma 90.
_cell_volume 510.92
_cell_formula_units_Z 2
_symmetry_space_group_name_H-M 'I 4/m m m'
_symmetry_Int_Tables_number 139
_refine_ls_R_factor_all 0.0472
loop_
_symmetry_equiv_pos_site_id
_symmetry_equiv_pos_as_xyz
1 'y, x, -z'
2 '-y, -x, -z'
3 '-y, x, -z'
4 'y, -x, -z'
5 '-x, y, -z'
6 'x, -y, -z'
7 'x, y, -z'
8 '-x, -y, -z'
9 '-y, -x, z'
10 'y, x, z'
11 'y, -x, z'
12 '-y, x, z'
13 'x, -y, z'
14 '-x, y, z'
15 '-x, -y, z'
16 'x, y, z'
17 'y+1/2, x+1/2, -z+1/2'
18 '-y+1/2, -x+1/2, -z+1/2'
19 '-y+1/2, x+1/2, -z+1/2'
20 'y+1/2, -x+1/2, -z+1/2'
21 '-x+1/2, y+1/2, -z+1/2'
22 'x+1/2, -y+1/2, -z+1/2'
23 'x+1/2, y+1/2, -z+1/2'
24 '-x+1/2, -y+1/2, -z+1/2'
25 '-y+1/2, -x+1/2, z+1/2'
26 'y+1/2, x+1/2, z+1/2'
27 'y+1/2, -x+1/2, z+1/2'
28 '-y+1/2, x+1/2, z+1/2'
29 'x+1/2, -y+1/2, z+1/2'
30 '-x+1/2, y+1/2, z+1/2'
31 '-x+1/2, -y+1/2, z+1/2'
32 'x+1/2, y+1/2, z+1/2'
loop_
_atom_type_symbol
_atom_type_oxidation_number
Cu2+ 2.32
Li1+ 1
Cu3+ 3
Ba2+ 2
C4+ 4
Cu3+ 3
O2- -2
loop_
_atom_site_label
_atom_site_type_symbol
_atom_site_symmetry_multiplicity
_atom_site_Wyckoff_symbol
_atom_site_fract_x
_atom_site_fract_y
_atom_site_fract_z
_atom_site_B_iso_or_equiv
_atom_site_occupancy
_atom_site_attached_hydrogens
Cu1 Cu2+ 2 b 0.5 0.5 0 . 1. 0
Li1 Li1+ 2 a 0 0 0 . 0.85(1) 0
Cu2 Cu3+ 2 a 0 0 0 . 0.15(1) 0
Ba1 Ba2+ 8 g 0 0.5 0.1172(1) . 1. 0
C1 C4+ 4 e 0 0 0.2287(3) . 0.85(2) 0
Cu3 Cu3+ 4 e 0 0 0.25 . 0.15(2) 0
O1 O2- 8 h 0.7350(13) 0.7350(13) 0 . 1. 0
O2 O2- 4 e 0 0 0.1493(11) . 0.85(2) 0
O3 O2- 16 m 0.1413(27) 0.1413(27) 0.2648(13) . 0.42(2) 0
O4 O2- 4 e 0 0 0.3681(31) 0.041(13) 0.15(2) 0
O5 O2- 4 e 0 0 0.1312(29) 0.033(11) 0.15(2) 0
loop_
_atom_site_aniso_label
_atom_site_aniso_type_symbol
_atom_site_aniso_U_11
_atom_site_aniso_U_22
_atom_site_aniso_U_33
_atom_site_aniso_U_12
_atom_site_aniso_U_13
_atom_site_aniso_U_23
Cu1 Cu2+ 0.007(1) 0.007(1) 0.042(3) 0 0 0
Li1 Li1+ 0.005(2) 0.005(2) 0.002(2) 0 0 0
Cu2 Cu3+ 0.005(2) 0.005(2) 0.002(2) 0 0 0
Ba1 Ba2+ 0.009(1) 0.009(1) 0.026(1) 0 0 0
C1 C4+ 0.019(8) 0.019(8) 0.011(9) 0 0 0
Cu3 Cu3+ 0.029(10) 0.029(10) 0.032(6) 0 0 0
O1 O2- 0.016(3) 0.016(3) 0.037(6) 0.002(4) 0 0
O2 O2- 0.036(9) 0.036(9) 0.010(9) 0 0 0
O3 O2- 0.032(8) 0.032(8) 0.032(8) 0.016(9) -.034(8) -.034(8)
#End of TTdata_78596-ICSD