
#(C) 2017 by FIZ Karlsruhe - Leibniz Institute for Information Infrastructure.  All rights reserved.
data_78927-ICSD
_database_code_ICSD 78927
_audit_creation_date 1998-06-26
_audit_update_record 1999-11-30
_chemical_name_systematic 'Tetracesium potassium lithium bis(hexafluorogallate)'
_chemical_formula_structural 'Cs4 K (Li (Ga F6)2)'
_chemical_formula_sum 'Cs4 F12 Ga2 K1 Li1'
_chemical_name_structure_type Ba2NiTeO6
_exptl_crystal_density_diffrn 4.47
_publ_section_title

;
Die ersten oligomeren Anionen bei Fluoro-Litho-Metallaten mit
Oktaeder-Sandwich-Motiv: Cs4 K ((F3 M(III) F3) Li (F3 M(III) F3)), M(III) =
Ga, Fe
;
loop_
_citation_id
_citation_journal_full
_citation_year
_citation_journal_volume
_citation_page_first
_citation_page_last
_citation_journal_id_ASTM
primary 'Zeitschrift fuer Anorganische und Allgemeine Chemie (1950) (DE)' 1996
622 297 307 ZAACAB
loop_
_publ_author_name
'Bork, M.'
'Hoppe, R.'
_cell_length_a 6.307(1)
_cell_length_b 6.307(1)
_cell_length_c 30.5870(30)
_cell_angle_alpha 90.
_cell_angle_beta 90.
_cell_angle_gamma 120.
_cell_volume 1053.69
_cell_formula_units_Z 3
_symmetry_space_group_name_H-M 'R -3 m H'
_symmetry_Int_Tables_number 166
_refine_ls_R_factor_all 0.0295
loop_
_symmetry_equiv_pos_site_id
_symmetry_equiv_pos_as_xyz
1 'x-y, -y, -z'
2 '-x, -x+y, -z'
3 'y, x, -z'
4 'x-y, x, -z'
5 'y, -x+y, -z'
6 '-x, -y, -z'
7 '-x+y, y, z'
8 'x, x-y, z'
9 '-y, -x, z'
10 '-x+y, -x, z'
11 '-y, x-y, z'
12 'x, y, z'
13 'x-y+2/3, -y+1/3, -z+1/3'
14 '-x+2/3, -x+y+1/3, -z+1/3'
15 'y+2/3, x+1/3, -z+1/3'
16 'x-y+2/3, x+1/3, -z+1/3'
17 'y+2/3, -x+y+1/3, -z+1/3'
18 '-x+2/3, -y+1/3, -z+1/3'
19 '-x+y+2/3, y+1/3, z+1/3'
20 'x+2/3, x-y+1/3, z+1/3'
21 '-y+2/3, -x+1/3, z+1/3'
22 '-x+y+2/3, -x+1/3, z+1/3'
23 '-y+2/3, x-y+1/3, z+1/3'
24 'x+2/3, y+1/3, z+1/3'
25 'x-y+1/3, -y+2/3, -z+2/3'
26 '-x+1/3, -x+y+2/3, -z+2/3'
27 'y+1/3, x+2/3, -z+2/3'
28 'x-y+1/3, x+2/3, -z+2/3'
29 'y+1/3, -x+y+2/3, -z+2/3'
30 '-x+1/3, -y+2/3, -z+2/3'
31 '-x+y+1/3, y+2/3, z+2/3'
32 'x+1/3, x-y+2/3, z+2/3'
33 '-y+1/3, -x+2/3, z+2/3'
34 '-x+y+1/3, -x+2/3, z+2/3'
35 '-y+1/3, x-y+2/3, z+2/3'
36 'x+1/3, y+2/3, z+2/3'
loop_
_atom_type_symbol
_atom_type_oxidation_number
Cs1+ 1
K1+ 1
Li1+ 1
Ga3+ 3
F1- -1
loop_
_atom_site_label
_atom_site_type_symbol
_atom_site_symmetry_multiplicity
_atom_site_Wyckoff_symbol
_atom_site_fract_x
_atom_site_fract_y
_atom_site_fract_z
_atom_site_B_iso_or_equiv
_atom_site_occupancy
_atom_site_attached_hydrogens
Cs1 Cs1+ 6 c 0 0 0.13359(3) . 1. 0
Cs2 Cs1+ 6 c 0 0 0.71377(3) . 1. 0
K1 K1+ 3 a 0 0 0 . 1. 0
Li1 Li1+ 3 b 0 0 0.5 . 1. 0
Ga1 Ga3+ 6 c 0 0 0.41544(4) . 1. 0
F1 F1- 18 h 0.1364(4) -.1364(4) 0.4549(1) . 1. 0
F2 F1- 18 h 0.4764(4) -.4764(4) 0.2849(2) . 1. 0
loop_
_atom_site_aniso_label
_atom_site_aniso_type_symbol
_atom_site_aniso_U_11
_atom_site_aniso_U_22
_atom_site_aniso_U_33
_atom_site_aniso_U_12
_atom_site_aniso_U_13
_atom_site_aniso_U_23
Cs1 Cs1+ 0.0199(3) 0.0199(3) 0.0232(4) 0.0100(2) 0 0
Cs2 Cs1+ 0.0211(3) 0.0211(3) 0.0232(4) 0.0105(2) 0 0
K1 K1+ 0.0164(10) 0.0164(10) 0.0129(16) 0.0082(5) 0 0
Li1 Li1+ 0.025(10) 0.025(10) 0.010(14) 0.0126(51) 0 0
Ga1 Ga3+ 0.0139(4) 0.0139(4) 0.0094(6) 0.0070(2) 0 0
F1 F1- 0.0226(16) 0.0226(16) 0.0173(21) 0.0134(19) -.0013(8) 0.0013(8)
F2 F1- 0.0281(19) 0.0281(19) 0.0216(23) 0.0170(21) -.0053(9) 0.0053(9)
#End of TTdata_78927-ICSD