
#(C) 2018 by FIZ Karlsruhe - Leibniz Institute for Information Infrastructure.  All rights reserved.
data_78938-ICSD
_database_code_ICSD 78938
_audit_creation_date 1998-06-26
_chemical_name_systematic 'Potassium dilithium arsenide'
_chemical_formula_structural 'K Li2 As'
_chemical_formula_sum 'As1 K1 Li2'
_exptl_crystal_density_diffrn 2.26
_cell_measurement_temperature 295.
_publ_section_title
'Darstellung, Kristallstruktur und Eigenschaften von K Li2 As'
loop_
_citation_id
_citation_journal_full
_citation_year
_citation_journal_volume
_citation_page_first
_citation_page_last
_citation_journal_id_ASTM
primary 'Zeitschrift fuer Anorganische und Allgemeine Chemie (1950) (DE)' 1996
622 319 324 ZAACAB
loop_
_publ_author_name
'Gil, R.H.C.'
'Hoenle, W.'
'von Schnering, H.G.'
_cell_length_a 4.458(9)
_cell_length_b 6.715(11)
_cell_length_c 6.270(12)
_cell_angle_alpha 90.
_cell_angle_beta 90.
_cell_angle_gamma 90.
_cell_volume 187.7
_cell_formula_units_Z 2
_symmetry_space_group_name_H-M 'P m m n Z'
_symmetry_Int_Tables_number 59
_refine_ls_R_factor_all 0.039
loop_
_symmetry_equiv_pos_site_id
_symmetry_equiv_pos_as_xyz
1 'x+1/2, y+1/2, -z'
2 '-x, y+1/2, -z'
3 'x+1/2, -y, -z'
4 '-x, -y, -z'
5 '-x+1/2, -y+1/2, z'
6 'x, -y+1/2, z'
7 '-x+1/2, y, z'
8 'x, y, z'
loop_
_atom_type_symbol
_atom_type_oxidation_number
As3- -3
K1+ 1
Li1+ 1
loop_
_atom_site_label
_atom_site_type_symbol
_atom_site_symmetry_multiplicity
_atom_site_Wyckoff_symbol
_atom_site_fract_x
_atom_site_fract_y
_atom_site_fract_z
_atom_site_B_iso_or_equiv
_atom_site_occupancy
_atom_site_attached_hydrogens
As1 As3- 2 b 0.25 0.75 0.3382(4) . 1. 0
K1 K1+ 2 a 0.25 0.25 0.1016(9) . 1. 0
Li1 Li1+ 4 e 0.25 0.0579(33) 0.6018(37) . 1. 0
loop_
_atom_site_aniso_label
_atom_site_aniso_type_symbol
_atom_site_aniso_U_11
_atom_site_aniso_U_22
_atom_site_aniso_U_33
_atom_site_aniso_U_12
_atom_site_aniso_U_13
_atom_site_aniso_U_23
As1 As3- 0.0212(9) 0.0198(11) 0.0214(13) 0 0 0
K1 K1+ 0.0377(16) 0.0469(32) 0.0347(13) 0 0 0
Li1 Li1+ 0.0236(57) 0.024(12) 0.024(12) 0 0 0.001(12)
#End of TTdata_78938-ICSD