
#(C) 2017 by FIZ Karlsruhe - Leibniz Institute for Information Infrastructure.  All rights reserved.
data_80399-ICSD
_database_code_ICSD 80399
_audit_creation_date 1997-05-13
_chemical_name_systematic 'Trilithium tetrazirconium fluoride'
_chemical_formula_structural 'Li3 Zr4 F19'
_chemical_formula_sum 'F19 Li3 Zr4'
_exptl_crystal_density_diffrn 3.61
_cell_measurement_temperature 294.
_publ_section_title

;
Crystal structures of Li4 Zr F8 and Li3 Zr4 F19 and reinvestigation of the Li
F - Zr F4 phase diagram
;
loop_
_citation_id
_citation_journal_full
_citation_year
_citation_journal_volume
_citation_page_first
_citation_page_last
_citation_journal_id_ASTM
primary 'Journal of Solid State Chemistry' 1995 120 187 196 JSSCBI
loop_
_publ_author_name
'Dugat, P.'
'El Ghozzi, M.'
'Metin, J.'
'Avignant, D.'
_cell_length_a 5.418(2)
_cell_length_b 10.822(2)
_cell_length_c 12.708(2)
_cell_angle_alpha 107.7(1)
_cell_angle_beta 92.0(1)
_cell_angle_gamma 103.4(2)
_cell_volume 686.04
_cell_formula_units_Z 2
_symmetry_space_group_name_H-M 'P -1'
_symmetry_Int_Tables_number 2
_refine_ls_R_factor_all 0.028
loop_
_symmetry_equiv_pos_site_id
_symmetry_equiv_pos_as_xyz
1 '-x, -y, -z'
2 'x, y, z'
loop_
_atom_type_symbol
_atom_type_oxidation_number
Zr4+ 4
Li1+ 1
F1- -1
loop_
_atom_site_label
_atom_site_type_symbol
_atom_site_symmetry_multiplicity
_atom_site_Wyckoff_symbol
_atom_site_fract_x
_atom_site_fract_y
_atom_site_fract_z
_atom_site_B_iso_or_equiv
_atom_site_occupancy
_atom_site_attached_hydrogens
Zr1 Zr4+ 2 i 0.33371(6) 0.87713(3) 0.36924(3) . 1. 0
Zr2 Zr4+ 2 i 0.06152(6) 0.33804(3) 0.94659(3) . 1. 0
Zr3 Zr4+ 2 i 0.09931(6) 0.94827(3) 0.79185(3) . 1. 0
Zr4 Zr4+ 2 i 0.13795(6) 0.61669(3) 0.63427(3) . 1. 0
Li1 Li1+ 2 i 0.716(2) 0.738(1) 0.489(1) . 1. 0
Li2 Li1+ 2 i 0.524(2) 0.835(1) 0.940(1) . 1. 0
Li3 Li1+ 2 i 0.586(2) 0.489(1) 0.791(1) . 1. 0
F1 F1- 2 i 0.3742(5) 0.0694(2) 0.4947(2) . 1. 0
F2 F1- 2 i 0.5082(5) 0.2752(2) 0.6547(2) . 1. 0
F3 F1- 2 i 0.8722(5) 0.5709(2) 0.4872(2) . 1. 0
F4 F1- 2 i 0.6613(6) 0.0006(3) 0.0741(2) . 1. 0
F5 F1- 2 i 0.9662(5) 0.7827(2) 0.6447(2) . 1. 0
F6 F1- 2 i 0.2439(6) 0.7463(3) -.0024(3) . 1. 0
F7 F1- 2 i 0.1486(6) 0.4586(3) 0.2965(3) . 1. 0
F8 F1- 2 i 0.8739(5) 0.4800(2) 0.9174(2) . 1. 0
F9 F1- 2 i 0.4152(5) 0.6993(3) 0.5602(2) . 1. 0
F10 F1- 2 i 0.6120(5) 0.9813(3) 0.2967(2) . 1. 0
F11 F1- 2 i 0.7355(5) 0.2163(2) 0.2186(2) . 1. 0
F12 F1- 2 i 0.1195(5) 0.9871(2) 0.3106(2) . 1. 0
F13 F1- 2 i 0.2013(6) 0.1114(3) 0.1441(3) . 1. 0
F14 F1- 2 i 0.9553(5) 0.1906(3) 0.5620(2) . 1. 0
F15 F1- 2 i 0.1225(6) 0.1480(3) 0.8744(3) . 1. 0
F16 F1- 2 i 0.1693(5) 0.7541(2) 0.2135(2) . 1. 0
F17 F1- 2 i 0.3358(5) 0.4087(3) 0.8687(2) . 1. 0
F18 F1- 2 i 0.2973(5) 0.3220(2) 0.0617(2) . 1. 0
F19 F1- 2 i 0.3627(5) 0.5486(3) 0.7117(2) . 1. 0
loop_
_atom_site_aniso_label
_atom_site_aniso_type_symbol
_atom_site_aniso_U_11
_atom_site_aniso_U_22
_atom_site_aniso_U_33
_atom_site_aniso_U_12
_atom_site_aniso_U_13
_atom_site_aniso_U_23
Zr1 Zr4+ 0.0073(1) 0.0073(1) 0.0066(1) 0.0019(1) 0.0010(1) 0.0028(1)
Zr2 Zr4+ 0.0092(1) 0.0070(1) 0.0076(1) 0.0024(1) 0.0012(1) 0.0020(1)
Zr3 Zr4+ 0.0076(1) 0.0072(1) 0.0072(1) 0.0026(1) 0.0017(1) 0.0029(1)
Zr4 Zr4+ 0.0095(1) 0.0077(1) 0.0091(1) 0.0029(1) 0.0024(1) 0.0030(1)
Li1 Li1+ 0.018(23) 0.036(3) 0.036(3) 0.003(3) 0.011(3) 0.022(3)
Li2 Li1+ 0.026(13) 0.041(4) 0.033(4) 0.011(3) 0.018(3) 0.016(3)
Li3 Li1+ 0.020(23) 0.040(3) 0.032(3) 0.004(3) 0.007(3) 0.026(2)
F1 F1- 0.0212(29) 0.0162(8) 0.0143(9) 0.0112(6) -.0038(8) -.0004(7)
F2 F1- 0.0204(9) 0.0152(8) 0.018(1) 0.0096(7) -.0009(8) -.0022(7)
F3 F1- 0.0213(9) 0.0114(7) 0.0160(9) 0.0089(6) -.0016(8) 0.0013(7)
F4 F1- 0.036(1) 0.0209(9) 0.019(1) 0.0150(8) -.013(1) -.0006(8)
F5 F1- 0.0198(9) 0.0116(7) 0.0135(9) 0.0088(6) -.0035(8) 0.0008(6)
F6 F1- 0.020(1) 0.034(1) 0.034(1) 0.001(1) 0.012(1) 0.0188(9)
F7 F1- 0.021(1) 0.032(1) 0.026(1) 0.003(1) 0.0130(9) 0.0185(8)
F8 F1- 0.024(1) 0.0116(7) 0.0127(9) 0.0092(7) -.0058(8) -.0015(7)
F9 F1- 0.017(1) 0.026(1) 0.027(1) 0.0044(8) 0.0102(9) 0.0146(8)
F10 F1- 0.018(1) 0.0224(9) 0.0230(9) 0.0013(8) 0.0101(8) 0.0129(7)
F11 F1- 0.024(1) 0.0164(8) 0.0142(9) 0.0110(7) -.0058(8) -.0005(7)
F12 F1- 0.025(1) 0.0163(8) 0.0139(9) 0.0114(7) -.0043(8) 0.0023(7)
F13 F1- 0.021(1) 0.038(1) 0.029(1) 0.006(1) 0.0163(9) 0.015(1)
F14 F1- 0.0144(9) 0.026(1) 0.029(1) 0.0022(8) 0.0108(8) 0.0155(8)
F15 F1- 0.045(1) 0.0160(8) 0.022(1) 0.0184(8) -.013(1) -.0041(8)
F16 F1- 0.028(1) 0.0150(8) 0.015(1) 0.0100(7) -.0081(9) -.0012(7)
F17 F1- 0.022(1) 0.029(1) 0.030(1) 0.002(1) 0.0145(9) 0.0162(8)
F18 F1- 0.025(1) 0.0192(8) 0.016(1) 0.0118(7) -.0045(8) 0.0038(7)
F19 F1- 0.025(1) 0.0279(1) 0.026(1) 0.0141(8) -.0032(9) 0.0103(8)
#End of TTdata_80399-ICSD