
#(C) 2018 by FIZ Karlsruhe - Leibniz Institute for Information Infrastructure.  All rights reserved.
data_81249-ICSD
_database_code_ICSD 81249
_audit_creation_date 1997-11-05
_chemical_name_systematic 'Tetralithium silicate'
_chemical_formula_structural 'Li4 (Si O4)'
_chemical_formula_sum 'Li4 O4 Si1'
_exptl_crystal_density_diffrn 2.41
_cell_measurement_temperature 150.
_publ_section_title

;
Low-temperature structure of lithium nesosilicate, Li4 Si O4, and its Li1s and
O1s X ray photoelectron spectrum
;
loop_
_citation_id
_citation_journal_full
_citation_year
_citation_journal_volume
_citation_page_first
_citation_page_last
_citation_journal_id_ASTM
primary 'Acta Crystallographica, Section B: Structural Science' 1994 50 511 518
ASBSDK
loop_
_publ_author_name
'de Jong, B.H.W.S.'
'Ellerbroek, D.'
'Spek, A.L.'
_cell_length_a 11.532(1)
_cell_length_b 6.075(1)
_cell_length_c 16.6780(10)
_cell_angle_alpha 90.
_cell_angle_beta 99.04(1)
_cell_angle_gamma 90.
_cell_volume 1153.9
_cell_formula_units_Z 14
_symmetry_space_group_name_H-M 'P 1 21/m 1'
_symmetry_Int_Tables_number 11
_refine_ls_R_factor_all 0.028
loop_
_symmetry_equiv_pos_site_id
_symmetry_equiv_pos_as_xyz
1 'x, -y+1/2, z'
2 '-x, -y, -z'
3 '-x, y+1/2, -z'
4 'x, y, z'
loop_
_atom_type_symbol
_atom_type_oxidation_number
Si4+ 4
O2- -2
Li1+ 1
loop_
_atom_site_label
_atom_site_type_symbol
_atom_site_symmetry_multiplicity
_atom_site_Wyckoff_symbol
_atom_site_fract_x
_atom_site_fract_y
_atom_site_fract_z
_atom_site_B_iso_or_equiv
_atom_site_occupancy
_atom_site_attached_hydrogens
Si1 Si4+ 2 e 0.34163(6) 0.25 0.00662(4) 0.0039(2) 1. 0
Si2 Si4+ 2 e 0.75400(6) 0.25 0.13848(5) 0.0043(2) 1. 0
Si3 Si4+ 2 e 0.52292(6) 0.75 0.28628(4) 0.0036(2) 1. 0
Si4 Si4+ 2 e 0.20097(6) 0.25 0.29134(4) 0.0037(2) 1. 0
Si5 Si4+ 2 e 0.04009(6) 0.25 0.57822(4) 0.0039(2) 1. 0
Si6 Si4+ 2 e 0.10533(6) 0.75 0.14378(5) 0.0042(2) 1. 0
Si7 Si4+ 2 e 0.61539(6) 0.25 0.42877(4) 0.0035(2) 1. 0
O1 O2- 4 f 0.35828(9) 0.0270(3) 0.06061(7) 0.0053(4) 1. 0
O2 O2- 2 e 0.20147(14) 0.25 0.96168(11) 0.0065(6) 1. 0
O3 O2- 2 e 0.42052(15) 0.25 0.93393(11) 0.0052(6) 1. 0
O4 O2- 4 f 0.78618(9) 0.0323(3) 0.19691(7) 0.0071(4) 1. 0
O5 O2- 2 e 0.61856(14) 0.25 0.09887(10) 0.0053(6) 1. 0
O6 O2- 2 e 0.84629(15) 0.25 0.07235(11) 0.0058(6) 1. 0
O7 O2- 4 f 0.50229(9) 0.5292(3) 0.23058(7) 0.0052(4) 1. 0
O8 O2- 2 e 0.66579(15) 0.75 0.32421(11) 0.0061(6) 1. 0
O9 O2- 2 e 0.44438(15) 0.75 0.35907(11) 0.0054(6) 1. 0
O10 O2- 4 f 0.21590(9) 0.0269(3) 0.34544(7) 0.0055(4) 1. 0
O11 O2- 2 e 0.06236(15) 0.25 0.24352(11) 0.0070(6) 1. 0
O12 O2- 2 e 0.28297(15) 0.25 0.22079(11) 0.0057(6) 1. 0
O13 O2- 4 f 0.06893(10) 0.0321(3) 0.63729(7) 0.0060(4) 1. 0
O14 O2- 2 e 0.90891(14) 0.25 0.52927(11) 0.0059(6) 1. 0
O15 O2- 2 e 0.13291(15) 0.25 0.51416(10) 0.0058(6) 1. 0
O16 O2- 4 f 0.07437(10) 0.5328(3) 0.08453(7) 0.0072(4) 1. 0
O17 O2- 2 e 0.23875(15) 0.75 0.18764(11) 0.0055(6) 1. 0
O18 O2- 2 e 0.01023(14) 0.75 0.20779(11) 0.0058(6) 1. 0
O19 O2- 4 f 0.65440(9) 0.0288(3) 0.48129(7) 0.0051(4) 1. 0
O20 O2- 2 e 0.47630(14) 0.25 0.3950(1) 0.0060(6) 1. 0
O21 O2- 2 e 0.69526(15) 0.25 0.35310(11) 0.0060(6) 1. 0
Li1 Li1+ 4 f 0.3838(2) 0.0038(6) 0.40796(17) 0.0072(6) 1. 0
Li2 Li1+ 4 f 0.1878(2) 0.5033(6) 0.45404(17) 0.0078(6) 1. 0
Li3 Li1+ 4 f 0.3374(2) 0.5082(7) 0.17286(17) 0.0076(6) 1. 0
Li4 Li1+ 4 f 0.5237(2) 0.4943(7) 0.11688(17) 0.0077(6) 1. 0
Li5 Li1+ 2 e 0.7282(4) 0.75 0.1400(3) 0.0124(10) 1. 0
Li6 Li1+ 2 e 0.4175(4) 0.25 0.5489(3) 0.0163(11) 1. 0
Li7 Li1+ 2 e 0.1350(4) 0.25 0.1435(3) 0.0123(11) 1. 0
Li8 Li1+ 2 e 0.0279(4) 0.75 0.5702(3) 0.0128(11) 1. 0
Li9 Li1+ 2 e 0.4529(4) 0.25 0.2763(3) 0.0095(9) 1. 0
Li10 Li1+ 2 e 0.2710(4) 0.75 0.3038(3) 0.0098(10) 1. 0
Li11 Li1+ 2 e 0.4108(4) 0.75 0.0173(3) 0.0088(10) 1. 0
Li12 Li1+ 4 f 0.1918(3) 0.5308(7) 0.01313(18) 0.0117(7) 1. 0
Li13 Li1+ 4 f 0.6657(2) 0.0340(6) 0.26721(17) 0.0090(6) 1. 0
Li14 Li1+ 4 f 0.0503(3) 0.5299(7) 0.29348(18) 0.0120(7) 1. 0
Li15 Li1+ 4 f 0.9478(6) 0.4564(15) 0.1553(5) 0.014(2) 0.5 0
Li16 Li1+ 4 f 0.2382(3) 0.0391(6) 0.59744(17) 0.0105(6) 1. 0
Li17 Li1+ 2 e 0.8588(4) 0.75 0.2667(3) 0.0141(11) 1. 0
Li18 Li1+ 2 e 0.0037(5) 0.25 0.0123(3) 0.0186(12) 1. 0
Li19 Li1+ 2 e 0.8556(10) 0.25 0.2978(7) 0.010(3) 0.5 0
Li20 Li1+ 4 f 0.0887(6) 0.0460(14) 0.8759(4) 0.011(2) 0.5 0
Li21 Li1+ 2 e 0.8809(11) 0.25 0.2875(8) 0.015(3) 0.5 0
#End of TTdata_81249-ICSD