
#(C) 2018 by FIZ Karlsruhe - Leibniz Institute for Information Infrastructure.  All rights reserved.
data_81872-ICSD
_database_code_ICSD 81872
_audit_creation_date 1999-11-30
_chemical_name_systematic 'Lithium lanthanum ditantalate'
_chemical_formula_structural 'Li La (Ta2 O7)'
_chemical_formula_sum 'La1 Li1 O7 Ta2'
_exptl_crystal_density_diffrn 6.69
_publ_section_title

;
Synthesis and structure determination of new layered perovskite compounds, A
La Ta2 O7 and A Ca2 Ta3 O10 (A = Rb, Li)
;
loop_
_citation_id
_citation_journal_full
_citation_year
_citation_journal_volume
_citation_page_first
_citation_page_last
_citation_journal_id_ASTM
primary 'Journal of Materials Chemistry' 1996 6 1067 1071 JMACEP
loop_
_publ_author_name
'Toda, K.'
'Sato, M.'
_cell_length_a 3.8795(2)
_cell_length_b 3.8795(2)
_cell_length_c 20.43709(10)
_cell_angle_alpha 90.
_cell_angle_beta 90.
_cell_angle_gamma 90.
_cell_volume 307.59
_cell_formula_units_Z 2
_symmetry_space_group_name_H-M 'I 4/m m m'
_symmetry_Int_Tables_number 139
_refine_ls_R_factor_all 0.014
loop_
_symmetry_equiv_pos_site_id
_symmetry_equiv_pos_as_xyz
1 'y, x, -z'
2 '-y, -x, -z'
3 '-y, x, -z'
4 'y, -x, -z'
5 '-x, y, -z'
6 'x, -y, -z'
7 'x, y, -z'
8 '-x, -y, -z'
9 '-y, -x, z'
10 'y, x, z'
11 'y, -x, z'
12 '-y, x, z'
13 'x, -y, z'
14 '-x, y, z'
15 '-x, -y, z'
16 'x, y, z'
17 'y+1/2, x+1/2, -z+1/2'
18 '-y+1/2, -x+1/2, -z+1/2'
19 '-y+1/2, x+1/2, -z+1/2'
20 'y+1/2, -x+1/2, -z+1/2'
21 '-x+1/2, y+1/2, -z+1/2'
22 'x+1/2, -y+1/2, -z+1/2'
23 'x+1/2, y+1/2, -z+1/2'
24 '-x+1/2, -y+1/2, -z+1/2'
25 '-y+1/2, -x+1/2, z+1/2'
26 'y+1/2, x+1/2, z+1/2'
27 'y+1/2, -x+1/2, z+1/2'
28 '-y+1/2, x+1/2, z+1/2'
29 'x+1/2, -y+1/2, z+1/2'
30 '-x+1/2, y+1/2, z+1/2'
31 '-x+1/2, -y+1/2, z+1/2'
32 'x+1/2, y+1/2, z+1/2'
loop_
_atom_type_symbol
_atom_type_oxidation_number
Li1+ 1
La3+ 3
Ta5+ 5
O2- -2
loop_
_atom_site_label
_atom_site_type_symbol
_atom_site_symmetry_multiplicity
_atom_site_Wyckoff_symbol
_atom_site_fract_x
_atom_site_fract_y
_atom_site_fract_z
_atom_site_B_iso_or_equiv
_atom_site_occupancy
_atom_site_attached_hydrogens
Li1 Li1+ 4 c 0.5 0 0.5 0.1(2) 0.5 0
La1 La3+ 2 a 0 0 0 0.1(2) 1. 0
Ta1 Ta5+ 4 e 0 0 0.3895(3) 0.1(2) 1. 0
O1 O2- 8 g 0 0.5 0.092(2) 0.1(2) 1. 0
O2 O2- 4 e 0 0 0.313(3) 0.1(2) 1. 0
O3 O2- 2 b 0 0 0.5 0.1(2) 1. 0
#End of TTdata_81872-ICSD