
#(C) 2017 by FIZ Karlsruhe - Leibniz Institute for Information Infrastructure.  All rights reserved.
data_83298-ICSD
_database_code_ICSD 83298
_audit_creation_date 1998-06-26
_audit_update_record 2004-04-01
_chemical_name_systematic 'Dilithium hexaiodouranate - HT'
_chemical_formula_structural 'Li2 (U I6)'
_chemical_formula_sum 'I6 Li2 U1'
_chemical_name_structure_type Li2UBr6
_exptl_crystal_density_diffrn 4.59
_cell_measurement_temperature 800.
_publ_section_title

;
Neutron diffraction and electrical conductivity studies of Li2 U I6 ionic
conductor
;
loop_
_citation_id
_citation_journal_full
_citation_year
_citation_journal_volume
_citation_page_first
_citation_page_last
_citation_journal_id_ASTM
primary 'Solid State Ionics' 1996 90 67 74 SSIOD3
loop_
_publ_author_name
'Maletka, K.'
'Tellgren, R.'
'Rundloef, H.'
'Szczepaniak, W.'
'Rycerz, L.'
_cell_length_a 7.733(5)
_cell_length_b 13.234(7)
_cell_length_c 7.645(4)
_cell_angle_alpha 90.
_cell_angle_beta 110.59(3)
_cell_angle_gamma 90.
_cell_volume 732.4
_cell_formula_units_Z 2
_symmetry_space_group_name_H-M 'C 1 2/m 1'
_symmetry_Int_Tables_number 12
_refine_ls_R_factor_all 0.038
loop_
_symmetry_equiv_pos_site_id
_symmetry_equiv_pos_as_xyz
1 '-x, y, -z'
2 '-x, -y, -z'
3 'x, -y, z'
4 'x, y, z'
5 '-x+1/2, y+1/2, -z'
6 '-x+1/2, -y+1/2, -z'
7 'x+1/2, -y+1/2, z'
8 'x+1/2, y+1/2, z'
loop_
_atom_type_symbol
_atom_type_oxidation_number
I1- -1
U4+ 4
Li1+ 1
loop_
_atom_site_label
_atom_site_type_symbol
_atom_site_symmetry_multiplicity
_atom_site_Wyckoff_symbol
_atom_site_fract_x
_atom_site_fract_y
_atom_site_fract_z
_atom_site_B_iso_or_equiv
_atom_site_occupancy
_atom_site_attached_hydrogens
I1 I1- 4 i 0.219(6) 0 0.761(5) . 1. 0
I2 I1- 8 j 0.236(6) 0.166(3) 0.245(4) . 1. 0
U1 U4+ 2 a 0 0 0 7.(9) 1. 0
Li1 Li1+ 4 h 0.5 0.666(2) 0.5 22.(9) 0.24(18) 0
Li2 Li1+ 4 g 0 0.666(2) 0 22.(9) 0.24(18) 0
loop_
_atom_site_aniso_label
_atom_site_aniso_type_symbol
_atom_site_aniso_beta_11
_atom_site_aniso_beta_22
_atom_site_aniso_beta_33
_atom_site_aniso_beta_12
_atom_site_aniso_beta_13
_atom_site_aniso_beta_23
I1 I1- 0.0691(99) 0.0085(19) 0.0753(52) -.0102(42) 0.0477(77) 0.0163(47)
I2 I1- 0.0691(99) 0.0085(19) 0.0753(52) -.0102(42) 0.0477(77) 0.0163(47)
#End of TTdata_83298-ICSD