
#(C) 2018 by FIZ Karlsruhe - Leibniz Institute for Information Infrastructure.  All rights reserved.
data_83483-ICSD
_database_code_ICSD 83483
_audit_creation_date 1998-06-26
_chemical_name_systematic
'Potassium lithium oxotitanium arsenate(V) (0.53/0.34/1/1)'
_chemical_formula_structural 'K0.534 Li0.34 (Ti O) (As O4)'
_chemical_formula_sum 'As1 K0.534 Li0.34 O5 Ti1'
_exptl_crystal_density_diffrn 3.25
_cell_measurement_temperature 298.
_publ_section_title

;
Single-crystal structures and optical properties of the nonlinear optical K Ti
O P O4 - type materials K0.55 Li0.45 Ti O P O4 and K0.54 Li0.46 Ti O As O4
prepared by molten salt ion-exchange
;
loop_
_citation_id
_citation_journal_full
_citation_year
_citation_journal_volume
_citation_page_first
_citation_page_last
_citation_journal_id_ASTM
primary 'Chemistry of Materials' 1997 9 1138 1144 CMATEX
loop_
_publ_author_name
'Harrison, W.T.A.'
'Phillips, M.L.F.'
'Stucky, G.D.'
_cell_length_a 13.018(2)
_cell_length_b 6.589(1)
_cell_length_c 10.766(2)
_cell_angle_alpha 90.
_cell_angle_beta 90.
_cell_angle_gamma 90.
_cell_volume 923.46
_cell_formula_units_Z 8
_symmetry_space_group_name_H-M 'P n a 21'
_symmetry_Int_Tables_number 33
_refine_ls_R_factor_all 0.038
loop_
_symmetry_equiv_pos_site_id
_symmetry_equiv_pos_as_xyz
1 'x+1/2, -y+1/2, z'
2 '-x+1/2, y+1/2, z+1/2'
3 '-x, -y, z+1/2'
4 'x, y, z'
loop_
_atom_type_symbol
_atom_type_oxidation_number
K1+ 1
Li1+ 1
Ti4+ 4
As5+ 5
O2- -2
loop_
_atom_site_label
_atom_site_type_symbol
_atom_site_symmetry_multiplicity
_atom_site_Wyckoff_symbol
_atom_site_fract_x
_atom_site_fract_y
_atom_site_fract_z
_atom_site_B_iso_or_equiv
_atom_site_occupancy
_atom_site_attached_hydrogens
K1 K1+ 4 a 0.3920(3) 0.8027(5) 0.3211(4) 0.042 0.891(7) 0
K2 K1+ 4 a 0.102(1) 0.673(3) 0.079(2) 0.0362 0.178(7) 0
Li1 Li1+ 4 a 0.602(2) 0.567(3) 0.037(2) 0.015(8) 0.68(4) 0
Ti1 Ti4+ 4 a 0.3709(1) 0.5155(4) 0.0052(3) 0.0091(8) 1. 0
Ti2 Ti4+ 4 a 0.2432(2) 0.2816(3) 0.2518(3) 0.0102(8) 1. 0
As1 As5+ 4 a 0.4951(1) 0.3289(1) 0.2670(2) 0.0096(8) 1. 0
As2 As5+ 4 a 0.18287(6) 0.5144(2) 0.5145(2) 0.0103(8) 1. 0
O1 O2- 4 a 0.4910(6) 0.499(1) 0.1537(7) 0.0132(8) 1. 0
O2 O2- 4 a 0.5012(6) 0.457(1) 0.4024(6) 0.0098(8) 1. 0
O3 O2- 4 a 0.3888(5) 0.182(1) 0.2785(8) 0.0048(8) 1. 0
O4 O2- 4 a 0.5953(6) 0.172(1) 0.2562(8) 0.0152(8) 1. 0
O5 O2- 4 a 0.1132(6) 0.312(1) 0.5554(8) 0.0118(8) 1. 0
O6 O2- 4 a 0.1078(6) 0.714(1) 0.4868(8) 0.0114(8) 1. 0
O7 O2- 4 a 0.2718(7) 0.557(2) 0.6301(7) 0.0095(8) 1. 0
O8 O2- 4 a 0.2617(8) 0.470(2) 0.3954(7) 0.0146(8) 1. 0
O9 O2- 4 a 0.2768(7) 0.465(2) 0.1443(7) 0.0094(8) 1. 0
O10 O2- 4 a 0.2124(7) 0.058(2) 0.3888(7) 0.0119(8) 1. 0
#End of TTdata_83483-ICSD