
#(C) 2018 by FIZ Karlsruhe - Leibniz Institute for Information Infrastructure.  All rights reserved.
data_84617-ICSD
_database_code_ICSD 84617
_audit_creation_date 1999-01-19
_chemical_name_systematic 'Lithium triborate'
_chemical_formula_structural 'Li (B3 O5)'
_chemical_formula_sum 'B3 Li1 O5'
_chemical_name_structure_type LiB3O5
_exptl_crystal_density_diffrn 2.48
_publ_section_title 'Electron density distribution in Li B3 O5 at 293 K'
loop_
_citation_id
_citation_journal_full
_citation_year
_citation_journal_volume
_citation_page_first
_citation_page_last
_citation_journal_id_ASTM
primary 'Acta Crystallographica, Section B: Structural Science' 1997 53 870 879
ASBSDK
loop_
_publ_author_name
'le Henaff, C.'
'Hansen, N.K.'
'Protas, J.'
'Marnier, G.'
_cell_length_a 8.444(2)
_cell_length_b 7.378(2)
_cell_length_c 5.1416(6)
_cell_angle_alpha 90.
_cell_angle_beta 90.
_cell_angle_gamma 90.
_cell_volume 320.32
_cell_formula_units_Z 4
_symmetry_space_group_name_H-M 'P n a 21'
_symmetry_Int_Tables_number 33
_refine_ls_R_factor_all 0.015
loop_
_symmetry_equiv_pos_site_id
_symmetry_equiv_pos_as_xyz
1 'x+1/2, -y+1/2, z'
2 '-x+1/2, y+1/2, z+1/2'
3 '-x, -y, z+1/2'
4 'x, y, z'
loop_
_atom_type_symbol
_atom_type_oxidation_number
Li1+ 1
B3+ 3
O2- -2
loop_
_atom_site_label
_atom_site_type_symbol
_atom_site_symmetry_multiplicity
_atom_site_Wyckoff_symbol
_atom_site_fract_x
_atom_site_fract_y
_atom_site_fract_z
_atom_site_B_iso_or_equiv
_atom_site_occupancy
_atom_site_attached_hydrogens
Li1 Li1+ 4 a 0.91284(18) 0.56672(15) 0.04979(30) . 1. 0
B1 B3+ 4 a 0.99034(5) 0.16429(6) 0.90497(11) . 1. 0
B2 B3+ 4 a 0.84290(5) 0.24848(5) 0.28469(10) . 1. 0
B3 B3+ 4 a 0.80573(5) 0.94323(6) 0.10169(10) . 1. 0
O1 O2- 4 a 0.11613(4) 0.20462(4) 0.749 . 1. 0
O2 O2- 4 a 0.94193(4) 0.29785(4) 0.08035(9) . 1. 0
O3 O2- 4 a 0.91351(4) 0.00438(4) 0.89782(9) . 1. 0
O4 O2- 4 a 0.83874(4) 0.37480(4) 0.47909(9) . 1. 0
O5 O2- 4 a 0.76120(4) 0.09032(4) 0.28520(9) . 1. 0
loop_
_atom_site_aniso_label
_atom_site_aniso_type_symbol
_atom_site_aniso_U_11
_atom_site_aniso_U_22
_atom_site_aniso_U_33
_atom_site_aniso_U_12
_atom_site_aniso_U_13
_atom_site_aniso_U_23
Li1 Li1+ 0.02373(49) 0.01044(34) 0.02259(54) 0.00155(32) -.00682(38) -.00300(36)
B1 B3+ 0.00846(12) 0.00605(12) 0.00651(12) -.00026(9) 0.00172(10) -.00039(10)
B2 B3+ 0.00711(11) 0.0050(1) 0.00659(12) -.0028(9) 0.00102(10) -.00144(10)
B3 B3+ 0.00669(11) 0.00522(11) 0.00579(12) -.00029(9) -.00045(10) -.00101(10)
O1 O2- 0.00837(9) 0.00570(8) 0.00867(10) 0.00018(7) 0.00348(7) -.00003(8)
O2 O2- 0.01047(10) 0.00599(10) 0.00812(10) -.00108(7) 0.00403(8) -.00133(8)
O3 O2- 0.01072(9) 0.00696(8) 0.00754(9) -.00219(7) 0.00336(8) -.00202(8)
O4 O2- 0.00671(8) 0.00712(9) 0.00909(10) -.00051(7) 0.00210(8) -.00426(8)
O5 O2- 0.00789(9) 0.00532(8) 0.00677(9) -.00142(7) 0.00155(8) -.00222(8)
#End of TTdata_84617-ICSD