
#(C) 2018 by FIZ Karlsruhe - Leibniz Institute for Information Infrastructure.  All rights reserved.
data_85735-ICSD
_database_code_ICSD 85735
_audit_creation_date 1999-11-30
_chemical_name_systematic 'Zinc lithium niobium oxide'
_chemical_formula_structural 'Zn Li Nb O4'
_chemical_formula_sum 'Li1 Nb1 O4 Zn1'
_chemical_name_structure_type TiMn2O4
_exptl_crystal_density_diffrn 4.91
_publ_section_title 'Structural characterization of Zn Li Nb O4'
loop_
_citation_id
_citation_journal_full
_citation_year
_citation_journal_volume
_citation_page_first
_citation_page_last
_citation_journal_id_ASTM
primary 'European Journal of Solid State and Inorganic Chemistry' 1998 35 707
714 EJSCE5
loop_
_publ_author_name
'Ferriol, M.'
'Lecocq, S.'
_cell_length_a 6.0818(9)
_cell_length_b 6.0818(9)
_cell_length_c 8.3818(17)
_cell_angle_alpha 90.
_cell_angle_beta 90.
_cell_angle_gamma 90.
_cell_volume 310.03
_cell_formula_units_Z 4
_symmetry_space_group_name_H-M 'P 41 2 2'
_symmetry_Int_Tables_number 91
_refine_ls_R_factor_all 0.049
loop_
_symmetry_equiv_pos_site_id
_symmetry_equiv_pos_as_xyz
1 'y, x, -z+3/4'
2 '-y, -x, -z+1/4'
3 'x, -y, -z+1/2'
4 '-x, y, -z'
5 'y, -x, z+3/4'
6 '-y, x, z+1/4'
7 '-x, -y, z+1/2'
8 'x, y, z'
loop_
_atom_type_symbol
_atom_type_oxidation_number
Nb5+ 5
O2- -2
Zn2+ 2
Li1+ 1
loop_
_atom_site_label
_atom_site_type_symbol
_atom_site_symmetry_multiplicity
_atom_site_Wyckoff_symbol
_atom_site_fract_x
_atom_site_fract_y
_atom_site_fract_z
_atom_site_B_iso_or_equiv
_atom_site_occupancy
_atom_site_attached_hydrogens
Nb1 Nb5+ 4 b 0.5 0.7854(2) 0 . 1. 0
O1 O2- 8 d 0.2647(10) 0.9834(9) -.0067(8) . 1. 0
O2 O2- 8 d 0.2694(10) 0.5223(9) 0.0167(7) . 1. 0
Zn1 Zn2+ 4 c 0.2609(2) 0.2609(2) 0.875 . 1. 0
Li1 Li1+ 4 a 0 0.7723(39) 0 0.033(7) 1. 0
loop_
_atom_site_aniso_label
_atom_site_aniso_type_symbol
_atom_site_aniso_U_11
_atom_site_aniso_U_22
_atom_site_aniso_U_33
_atom_site_aniso_U_12
_atom_site_aniso_U_13
_atom_site_aniso_U_23
Nb1 Nb5+ 0.010(1) 0.009(1) 0.010(1) 0 0.001(1) 0
O1 O2- 0.012(2) 0.006(2) 0.016(3) 0.001(2) 0.001(2) 0.002(3)
O2 O2- 0.010(3) 0.009(2) 0.008(2) -.003(2) 0.001(2) -.001(2)
Zn1 Zn2+ 0.013(1) 0.013(1) 0.011(1) 0.002(1) 0.000(1) 0.000(1)
#End of TTdata_85735-ICSD