
#(C) 2018 by FIZ Karlsruhe - Leibniz Institute for Information Infrastructure.  All rights reserved.
data_87703-ICSD
_database_code_ICSD 87703
_audit_creation_date 2000-12-16
_chemical_name_systematic 'Magnesium lithium scandium catena-disilicate *'
_chemical_formula_structural '(Mg1.54 Li0.23 Sc0.23) (Si2 O6)'
_chemical_formula_sum 'Li0.23 Mg1.54 O6 Sc0.23 Si2'
_chemical_name_structure_type Protoenstatite
_chemical_name_mineral Unnamed_Pyroxene
_exptl_crystal_density_diffrn 3.14
_cell_measurement_pressure 2030000.
_publ_section_title

;
A new pyroxene structure at high pressure: single-crystal X-ray and Raman
study of the Pbcn-P21cn phase transition in protopyroxene
;
loop_
_citation_id
_citation_journal_full
_citation_year
_citation_journal_volume
_citation_page_first
_citation_page_last
_citation_journal_id_ASTM
primary 'American Mineralogist' 1999 84 245 256 AMMIAY
loop_
_publ_author_name
'Yang, H.-X.'
'Finger, L.W.'
'Conrad, P.G.'
'Prewitt, C.T.'
'Hazen, R.M.'
_cell_length_a 9.2178(6)
_cell_length_b 8.7039(6)
_cell_length_c 5.3119(4)
_cell_angle_alpha 90.
_cell_angle_beta 90.
_cell_angle_gamma 90.
_cell_volume 426.18
_cell_formula_units_Z 4
_symmetry_space_group_name_H-M 'P b c n'
_symmetry_Int_Tables_number 60
_refine_ls_R_factor_all 0.036
loop_
_symmetry_equiv_pos_site_id
_symmetry_equiv_pos_as_xyz
1 'x, -y, z+1/2'
2 '-x+1/2, y+1/2, z'
3 'x+1/2, y+1/2, -z+1/2'
4 '-x, -y, -z'
5 '-x, y, -z+1/2'
6 'x+1/2, -y+1/2, -z'
7 '-x+1/2, -y+1/2, z+1/2'
8 'x, y, z'
loop_
_atom_type_symbol
_atom_type_oxidation_number
Mg2+ 2
Li1+ 1
Sc3+ 3
Mg2+ 2
Li1+ 1
Sc3+ 3
Si4+ 4
O2- -2
loop_
_atom_site_label
_atom_site_type_symbol
_atom_site_symmetry_multiplicity
_atom_site_Wyckoff_symbol
_atom_site_fract_x
_atom_site_fract_y
_atom_site_fract_z
_atom_site_B_iso_or_equiv
_atom_site_occupancy
_atom_site_attached_hydrogens
Mg1 Mg2+ 4 c 0 0.0976(2) 0.75 0.60(3) 0.77 0
Li1 Li1+ 4 c 0 0.0976(2) 0.75 0.60(3) 0.115 0
Sc1 Sc3+ 4 c 0 0.0976(2) 0.75 0.60(3) 0.115 0
Mg2 Mg2+ 4 c 0 0.2656(4) 0.25 0.74(5) 0.77 0
Li2 Li1+ 4 c 0 0.2656(4) 0.25 0.74(5) 0.115 0
Sc2 Sc3+ 4 c 0 0.2656(4) 0.25 0.74(5) 0.115 0
Si1 Si4+ 8 d 0.2930(2) 0.0908(2) 0.0743(2) 0.49(3) 1. 0
O1 O2- 8 d 0.1187(3) 0.0921(4) 0.0800(6) 0.61(6) 1. 0
O2 O2- 8 d 0.3740(3) 0.2509(4) 0.0728(6) 0.78(6) 1. 0
O3 O2- 8 d 0.3509(4) 0.9811(5) 0.3051(6) 0.64(6) 1. 0
#End of TTdata_87703-ICSD