
#(C) 2018 by FIZ Karlsruhe - Leibniz Institute for Information Infrastructure.  All rights reserved.
data_88639-ICSD
_database_code_ICSD 88639
_audit_creation_date 2001-07-16
_chemical_name_systematic 'Lithium vanadium(IV) vanadium oxide - epsilon'
_chemical_formula_structural 'Li V2 O5'
_chemical_formula_sum 'Li1 O5 V2'
_chemical_name_structure_type CaV2O5
_exptl_crystal_density_diffrn 3.32
_cell_measurement_temperature 413.
_publ_section_title

;
The delta - epsilon - gamma Li V2 O5 "high temperature" phase transitions
evidenced by synchrotron X-ray powder diffraction analysis
;
loop_
_citation_id
_citation_journal_full
_citation_year
_citation_journal_volume
_citation_page_first
_citation_page_last
_citation_journal_id_ASTM
primary 'Journal of Solid State Chemistry' 1999 146 103 109 JSSCBI
loop_
_publ_author_name
'Satto, C.'
'Sciau, P.'
'Dooryhee, E.'
'Galy, J.'
'Millet, P.'
_cell_length_a 11.3552(6)
_cell_length_b 3.5732(2)
_cell_length_c 4.6548(3)
_cell_angle_alpha 90.
_cell_angle_beta 90.
_cell_angle_gamma 90.
_cell_volume 188.87
_cell_formula_units_Z 2
_symmetry_space_group_name_H-M 'P m m n Z'
_symmetry_Int_Tables_number 59
_refine_ls_R_factor_all 0.026
loop_
_symmetry_equiv_pos_site_id
_symmetry_equiv_pos_as_xyz
1 'x+1/2, y+1/2, -z'
2 '-x, y+1/2, -z'
3 'x+1/2, -y, -z'
4 '-x, -y, -z'
5 '-x+1/2, -y+1/2, z'
6 'x, -y+1/2, z'
7 '-x+1/2, y, z'
8 'x, y, z'
loop_
_atom_type_symbol
_atom_type_oxidation_number
V4+ 4.5
O2- -2
Li1+ 1
loop_
_atom_site_label
_atom_site_type_symbol
_atom_site_symmetry_multiplicity
_atom_site_Wyckoff_symbol
_atom_site_fract_x
_atom_site_fract_y
_atom_site_fract_z
_atom_site_B_iso_or_equiv
_atom_site_occupancy
_atom_site_attached_hydrogens
V1 V4+ 4 f 0.4002(1) 0.25 0.8932(2) 0.76(2) 1. 0
O1 O2- 4 f 0.1193(3) 0.25 0.5510(7) 2.39(9) 1. 0
O2 O2- 4 f 0.5733(3) 0.25 -.0221(6) 0.83(8) 1. 0
O3 O2- 2 a 0.25 0.25 0.0293(9) 1.0(1) 1. 0
Li1 Li1+ 2 b 0.25 0.75 0.284(5) 6.7(8) 1. 0
#End of TTdata_88639-ICSD