
#(C) 2018 by FIZ Karlsruhe - Leibniz Institute for Information Infrastructure.  All rights reserved.
data_88969-ICSD
_database_code_ICSD 88969
_audit_creation_date 2001-07-16
_chemical_name_systematic 'Lithium copper diiron(III) tris(vanadate(V))'
_chemical_formula_structural 'Li Cu Fe2 (V O4)3'
_chemical_formula_sum 'Cu1 Fe2 Li1 O12 V3'
_exptl_crystal_density_diffrn 3.73
_publ_section_title
'Synthesis and crystal structure of Li Cu Fe2 (V O4)3 by Rietveld method'
loop_
_citation_id
_citation_journal_full
_citation_year
_citation_journal_volume
_citation_page_first
_citation_page_last
_citation_journal_id_ASTM
primary 'Materials Research Bulletin' 1999 34 1973 1980 MRBUAC
loop_
_publ_author_name
'Belik, A.A.'
_cell_length_a 8.1484(5)
_cell_length_b 9.8024(7)
_cell_length_c 6.6355(4)
_cell_angle_alpha 103.832(3)
_cell_angle_beta 102.353(3)
_cell_angle_gamma 106.975(3)
_cell_volume 468.68
_cell_formula_units_Z 2
_symmetry_space_group_name_H-M 'P -1'
_symmetry_Int_Tables_number 2
_refine_ls_R_factor_all 0.018
loop_
_symmetry_equiv_pos_site_id
_symmetry_equiv_pos_as_xyz
1 '-x, -y, -z'
2 'x, y, z'
loop_
_atom_type_symbol
_atom_type_oxidation_number
Li1+ 1
Cu2+ 2
Fe3+ 3
V5+ 5
O2- -2
loop_
_atom_site_label
_atom_site_type_symbol
_atom_site_symmetry_multiplicity
_atom_site_Wyckoff_symbol
_atom_site_fract_x
_atom_site_fract_y
_atom_site_fract_z
_atom_site_B_iso_or_equiv
_atom_site_occupancy
_atom_site_attached_hydrogens
Li1 Li1+ 1 a 0 0 0 2.(2) 1. 0
Li2 Li1+ 2 i 0.037(9) 0.087(9) 0.40(1) 2.(2) 0.5 0
Cu1 Cu2+ 2 i 0.7845(6) 0.2916(5) 0.2730(8) 1.3(2) 1. 0
Fe1 Fe3+ 2 i 0.4484(7) 0.1079(6) 0.3768(9) 0.1(1) 1. 0
Fe2 Fe3+ 2 i 0.7003(6) 0.5130(5) 0.0456(8) 0.1(1) 1. 0
V1 V5+ 2 i 0.6020(7) 0.8359(7) 0.1208(9) 0.7(2) 1. 0
V2 V5+ 2 i 0.2301(7) 0.3780(6) 0.4075(9) 0.9(1) 1. 0
V3 V5+ 2 i 0.1644(7) 0.7651(6) 0.2303(9) 0.1(1) 1. 0
O1 O2- 2 i 0.020(2) 0.251(2) 0.302(3) 0.3(1) 1. 0
O2 O2- 2 i 0.534(2) -.079(2) 0.334(3) 0.3(1) 1. 0
O3 O2- 2 i 0.284(2) 0.484(2) 0.248(3) 0.3(1) 1. 0
O4 O2- 2 i 0.320(2) 0.243(2) 0.420(3) 0.3(1) 1. 0
O5 O2- 2 i 0.256(2) 0.753(2) 0.460(3) 0.3(1) 1. 0
O6 O2- 2 i 0.579(2) 0.648(2) 0.101(3) 0.3(1) 1. 0
O7 O2- 2 i 0.821(2) -.071(2) 0.175(3) 0.3(1) 1. 0
O8 O2- 2 i 0.499(2) 0.152(2) 0.127(3) 0.3(1) 1. 0
O9 O2- 2 i 0.777(2) 0.331(2) 0.058(3) 0.3(1) 1. 0
O10 O2- 2 i 0.720(2) 0.492(2) 0.334(3) 0.3(1) 1. 0
O11 O2- 2 i 0.192(2) -.055(2) 0.223(3) 0.3(1) 1. 0
O12 O2- 2 i -.068(2) 0.684(2) 0.196(3) 0.3(1) 1. 0
#End of TTdata_88969-ICSD