
#(C) 2018 by FIZ Karlsruhe - Leibniz Institute for Information Infrastructure.  All rights reserved.
data_89440-ICSD
_database_code_ICSD 89440
_audit_creation_date 2001-07-16
_chemical_name_systematic 'Dirubidium tetralithium tris(selenate(VI)) dihydrate'
_chemical_formula_structural 'Rb2 Li4 (Se O4)3 (H2 O)2'
_chemical_formula_sum 'H4 Li4 O14 Rb2 Se3'
_exptl_crystal_density_diffrn 3.03
_publ_section_title
'Rb2 Li4 (Se O4)3 . 2(H2 O) - the new crystal of selenates hydrates family'
loop_
_citation_id
_citation_journal_full
_citation_year
_citation_journal_volume
_citation_page_first
_citation_page_last
_citation_journal_id_ASTM
primary 'Solid State Communications' 1999 111 205 209 SSCOA4
loop_
_publ_author_name
'Pietraszko, A.'
'Bronowska, W.'
_cell_length_a 5.256(1)
_cell_length_b 5.178(1)
_cell_length_c 26.739(5)
_cell_angle_alpha 90.
_cell_angle_beta 93.11(3)
_cell_angle_gamma 90.
_cell_volume 726.65
_cell_formula_units_Z 2
_symmetry_space_group_name_H-M 'P 1 21/c 1'
_symmetry_Int_Tables_number 14
_refine_ls_R_factor_all 0.042
loop_
_symmetry_equiv_pos_site_id
_symmetry_equiv_pos_as_xyz
1 'x, -y+1/2, z+1/2'
2 '-x, -y, -z'
3 '-x, y+1/2, -z+1/2'
4 'x, y, z'
loop_
_atom_type_symbol
_atom_type_oxidation_number
Se6+ 6
O2- -2
Rb1+ 1
Li1+ 1
Se6+ 6
O2- -2
Li1+ 1
O2- -2
H1+ 1
loop_
_atom_site_label
_atom_site_type_symbol
_atom_site_symmetry_multiplicity
_atom_site_Wyckoff_symbol
_atom_site_fract_x
_atom_site_fract_y
_atom_site_fract_z
_atom_site_B_iso_or_equiv
_atom_site_occupancy
_atom_site_attached_hydrogens
Se1 Se6+ 4 e 0.1745(1) 0.1232(1) 0.1855(1) . 1. 0
O1 O2- 4 e 0.8719(4) 0.1828(5) 0.1915(1) . 1. 0
O2 O2- 4 e 0.2627(5) 0.2371(6) 0.1319(1) . 1. 0
O3 O2- 4 e 0.2197(5) 0.8095(5) 0.1875(1) . 1. 0
O4 O2- 4 e 0.3469(5) 0.2603(5) 0.2318(1) . 1. 0
Rb1 Rb1+ 4 e 0.6825(1) 0.6380(1) 0.1408(1) . 1. 0
Li1 Li1+ 4 e 0.3103(11) 0.6271(14) 0.2487(3) . 1. 0
Se2 Se6+ 4 e 0.4040(1) 0.5956(1) 0.0001(1) . 0.5 0
O5 O2- 4 e 0.6914(1) 0.6213(11) -.0224(2) . 0.5 0
O6 O2- 4 e 0.1961(11) 0.6391(13) -.0459(2) . 0.5 0
O7 O2- 4 e 0.3771(11) 0.7948(11) 0.0464(2) . 0.5 0
O8 O2- 4 e 0.3807(11) 0.2997(10) 0.0204(2) . 0.5 0
Li2 Li1+ 4 e 0.1620(18) 0.1393(22) 0.0664(4) . 1. 0
O9 O2- 4 e 0.0353(10) 0.8077(12) 0.0570(2) . 0.5 0
O10 O2- 4 e 0.8266(11) 0.0248(12) 0.0568(3) . 0.5 0
H1 H1+ 4 e 0.204(16) 0.709(20) 0.0564(40) 0.042(29) 0.5 0
H2 H1+ 4 e -0.081(16) 0.805(19) 0.0391(39) 0.032(27) 0.5 0
H3 H1+ 4 e 0.761(22) -0.046(28) 0.0410(55) 0.092(48) 0.5 0
H4 H1+ 4 e 0.837(23) 0.090(31) 0.1045(61) 0.117(58) 0.5 0
loop_
_atom_site_aniso_label
_atom_site_aniso_type_symbol
_atom_site_aniso_U_11
_atom_site_aniso_U_22
_atom_site_aniso_U_33
_atom_site_aniso_U_12
_atom_site_aniso_U_13
_atom_site_aniso_U_23
Se1 Se6+ 0.014(1) 0.015(1) 0.013(1) 0.000(1) 0.000(1) 0.000(1)
O1 O2- 0.016(1) 0.027(2) 0.029(2) 0.004(1) 0.002(1) 0.002(1)
O2 O2- 0.028(1) 0.032(2) 0.012(1) -.005(1) 0.003(1) 0.000(1)
O3 O2- 0.032(1) 0.018(1) 0.016(1) 0.007(1) 0.000(1) -.001(1)
O4 O2- 0.023(1) 0.020(1) 0.021(2) 0.000(1) -.009(1) -.007(1)
Rb1 Rb1+ 0.028(1) 0.027(1) 0.028(1) -.002(1) 0.003(1) 0.002(1)
Li1 Li1+ 0.021(3) 0.024(3) 0.028(4) 0.007(3) -.002(3) 0.002(4)
Se2 Se6+ 0.016(1) 0.015(1) 0.014(1) 0.001(1) 0.001(1) -.001(1)
O5 O2- 0.022(2) 0.028(3) 0.014(3) -.003(3) 0.008(2) -.006(3)
O6 O2- 0.031(3) 0.049(4) 0.016(3) 0.006(3) -.012(2) 0.000(3)
O7 O2- 0.047(3) 0.025(3) 0.021(3) 0.004(3) 0.004(3) -.011(3)
O8 O2- 0.038(3) 0.010(2) 0.025(3) -.001(2) 0.016(3) -.010(2)
Li2 Li1+ 0.073(5) 0.086(7) 0.032(5) -.045(5) 0.019(4) 0.013(5)
O9 O2- 0.029(3) 0.030(3) 0.019(3) -.001(3) -.007(3) 0.003(3)
O10 O2- 0.028(3) 0.034(3) 0.035(4) -.003(3) -.007(3) -.002(3)
#End of TTdata_89440-ICSD