
#(C) 2018 by FIZ Karlsruhe - Leibniz Institute for Information Infrastructure.  All rights reserved.
data_90991-ICSD
_database_code_ICSD 90991
_audit_creation_date 2002-04-01
_chemical_name_systematic 'Lithium oxovadium(IV) arsenate(V) - beta'
_chemical_formula_structural 'Li (V O) (As O4)'
_chemical_formula_sum 'As1 Li1 O5 V1'
_chemical_name_structure_type Al2SiO5-Sillimanite
_exptl_crystal_density_diffrn 3.88
_publ_section_title

;
Synthesis, structure and physical studies of the new beta-(Li V O As O4)
compound
;
loop_
_citation_id
_citation_journal_full
_citation_year
_citation_journal_volume
_citation_page_first
_citation_page_last
_citation_journal_id_ASTM
primary 'Journal of Solid State Chemistry' 2000 150 250 257 JSSCBI
loop_
_publ_author_name
'Gaubicher, J.'
'Orsini, F.'
'le Mercier, T.'
'Llorente, S.'
'Villesuzanne, A.'
'Angenault, J.'
'Quarton, M.'
_cell_length_a 7.5916(2)
_cell_length_b 6.4713(2)
_cell_length_c 7.4216(2)
_cell_angle_alpha 90.
_cell_angle_beta 90.
_cell_angle_gamma 90.
_cell_volume 364.6
_cell_formula_units_Z 4
_symmetry_space_group_name_H-M 'P n m a'
_symmetry_Int_Tables_number 62
_refine_ls_R_factor_all 0.041
loop_
_symmetry_equiv_pos_site_id
_symmetry_equiv_pos_as_xyz
1 'x+1/2, y, -z+1/2'
2 'x, -y+1/2, z'
3 '-x+1/2, y+1/2, z+1/2'
4 '-x, -y, -z'
5 '-x+1/2, -y, z+1/2'
6 '-x, y+1/2, -z'
7 'x+1/2, -y+1/2, -z+1/2'
8 'x, y, z'
loop_
_atom_type_symbol
_atom_type_oxidation_number
Li1+ 1
V4+ 4
As5+ 5
O2- -2
loop_
_atom_site_label
_atom_site_type_symbol
_atom_site_symmetry_multiplicity
_atom_site_Wyckoff_symbol
_atom_site_fract_x
_atom_site_fract_y
_atom_site_fract_z
_atom_site_B_iso_or_equiv
_atom_site_occupancy
_atom_site_attached_hydrogens
Li1 Li1+ 4 a 0 0 0 2.73(7) 1. 0
V1 V4+ 4 c 0.326(2) 0.75 0.225(2) 0.08(4) 1. 0
As1 As5+ 4 c 0.376(1) 0.25 0.128(2) 0.08(4) 1. 0
O1 O2- 4 c 0.119(7) 0.75 0.165(7) 0.47(9) 1. 0
O2 O2- 4 c 0.816(8) 0.75 -.003(8) 0.47(9) 1. 0
O3 O2- 4 c 0.066(8) 0.25 0.495(7) 0.47(9) 1. 0
O4 O2- 8 d 0.872(5) 0.455(7) 0.235(5) 0.47(9) 1. 0
#End of TTdata_90991-ICSD