
#(C) 2018 by FIZ Karlsruhe - Leibniz Institute for Information Infrastructure.  All rights reserved.
data_91170-ICSD
_database_code_ICSD 91170
_audit_creation_date 2002-10-01
_chemical_name_systematic 'Lithium lead tetrathiogermanate (0.5/1.75/1)'
_chemical_formula_structural 'Li0.5 Pb1.75 (Ge S4)'
_chemical_formula_sum 'Ge1 Li0.5 Pb1.75 S4'
_chemical_name_structure_type Na6Pb3(PSe4)4
_exptl_crystal_density_diffrn 5.47
_cell_measurement_temperature 173.
_publ_section_title

;
Flux synthesis and isostructural relationship of cubic Na1.5 Pb0.75P Se4,
Na0.5 Pb1.75 Ge S4 and Li0.5 Pb1.75 Ge S4
;
loop_
_citation_id
_citation_journal_full
_citation_year
_citation_journal_volume
_citation_page_first
_citation_page_last
_citation_journal_id_ASTM
primary 'Journal of Solid State Chemistry' 2000 153 158 169 JSSCBI
loop_
_publ_author_name
'Aitken, J.A.'
'Marking, G.A.'
'Evain, M.'
'Iordanidis, L.'
'Kanatzidis, M.G.'
_cell_length_a 14.0163(6)
_cell_length_b 14.0163(6)
_cell_length_c 14.0163(6)
_cell_angle_alpha 90.
_cell_angle_beta 90.
_cell_angle_gamma 90.
_cell_volume 2753.6
_cell_formula_units_Z 16
_symmetry_space_group_name_H-M 'I -4 3 d'
_symmetry_Int_Tables_number 220
_refine_ls_R_factor_all 0.027
loop_
_symmetry_equiv_pos_site_id
_symmetry_equiv_pos_as_xyz
1 '-y+1/4, -x+3/4, z+3/4'
2 'y+3/4, -x+1/4, -z+3/4'
3 '-y+3/4, x+3/4, -z+1/4'
4 'y+1/4, x+1/4, z+1/4'
5 'z+1/2, -x+1/2, -y'
6 '-z+1/2, -x, y+1/2'
7 '-z, x+1/2, -y+1/2'
8 'z, x, y'
9 'z+3/4, -y+1/4, -x+3/4'
10 '-z+3/4, y+3/4, -x+1/4'
11 '-z+1/4, -y+3/4, x+3/4'
12 'z+1/4, y+1/4, x+1/4'
13 '-y, z+1/2, -x+1/2'
14 'y+1/2, -z+1/2, -x'
15 '-y+1/2, -z, x+1/2'
16 'y, z, x'
17 '-x+3/4, z+3/4, -y+1/4'
18 '-x+1/4, -z+3/4, y+3/4'
19 'x+3/4, -z+1/4, -y+3/4'
20 'x+1/4, z+1/4, y+1/4'
21 '-x+1/2, -y, z+1/2'
22 '-x, y+1/2, -z+1/2'
23 'x+1/2, -y+1/2, -z'
24 'x, y, z'
25 '-y+3/4, -x+1/4, z+1/4'
26 'y+1/4, -x+3/4, -z+1/4'
27 '-y+1/4, x+1/4, -z+3/4'
28 'y+3/4, x+3/4, z+3/4'
29 'z, -x, -y+1/2'
30 '-z, -x+1/2, y'
31 '-z+1/2, x, -y'
32 'z+1/2, x+1/2, y+1/2'
33 'z+1/4, -y+3/4, -x+1/4'
34 '-z+1/4, y+1/4, -x+3/4'
35 '-z+3/4, -y+1/4, x+1/4'
36 'z+3/4, y+3/4, x+3/4'
37 '-y+1/2, z, -x'
38 'y, -z, -x+1/2'
39 '-y, -z+1/2, x'
40 'y+1/2, z+1/2, x+1/2'
41 '-x+1/4, z+1/4, -y+3/4'
42 '-x+3/4, -z+1/4, y+1/4'
43 'x+1/4, -z+3/4, -y+1/4'
44 'x+3/4, z+3/4, y+3/4'
45 '-x, -y+1/2, z'
46 '-x+1/2, y, -z'
47 'x, -y, -z+1/2'
48 'x+1/2, y+1/2, z+1/2'
loop_
_atom_type_symbol
_atom_type_oxidation_number
Pb2+ 2
Li1+ 1
Ge4+ 4
S2- -2
loop_
_atom_site_label
_atom_site_type_symbol
_atom_site_symmetry_multiplicity
_atom_site_Wyckoff_symbol
_atom_site_fract_x
_atom_site_fract_y
_atom_site_fract_z
_atom_site_B_iso_or_equiv
_atom_site_occupancy
_atom_site_attached_hydrogens
Pb1 Pb2+ 24 d 0.0076(1) 0 0.25 . 1. 0
Pb2 Pb2+ 24 d 0.3405(2) 0 0.25 . 0.167 0
Li1 Li1+ 24 d 0.3405(2) 0 0.25 . 0.333 0
Ge1 Ge4+ 16 c 0.2229(1) 0.2229(1) 0.2229(1) . 1. 0
S1 S2- 16 c 0.0654(1) 0.0654(1) 0.0654(1) . 1. 0
S2 S2- 48 e 0.1317(2) 0.3228(2) 0.1419(2) . 1. 0
loop_
_atom_site_aniso_label
_atom_site_aniso_type_symbol
_atom_site_aniso_U_11
_atom_site_aniso_U_22
_atom_site_aniso_U_33
_atom_site_aniso_U_12
_atom_site_aniso_U_13
_atom_site_aniso_U_23
Pb1 Pb2+ 0.013(1) 0.040(1) 0.015(1) 0 0 0.004(1)
Pb2 Pb2+ 0.048(2) 0.009(1) 0.010(1) 0 0 0.003(1)
Li1 Li1+ 0.048(2) 0.009(1) 0.010(1) 0 0 0.003(1)
Ge1 Ge4+ 0.010(1) 0.010(1) 0.010(1) -.001(1) -.001(1) -.001(1)
S1 S2- 0.009(1) 0.009(1) 0.009(1) 0.001(1) 0.001(1) 0.001(1)
S2 S2- 0.032(1) 0.013(1) 0.035(2) 0.001(1) 0.001(1) 0.001(1)
#End of TTdata_91170-ICSD