
#(C) 2018 by FIZ Karlsruhe - Leibniz Institute for Information Infrastructure.  All rights reserved.
data_91810-ICSD
_database_code_ICSD 91810
_audit_creation_date 2002-10-01
_audit_update_record 2010-08-01
_chemical_name_systematic 'Lanthanum lithium titanate (0.5/0.5/1)'
_chemical_formula_structural '(La0.5 Li0.5) (Ti O3)'
_chemical_formula_sum 'La0.5 Li0.5 O3 Ti1'
_chemical_name_structure_type (La,Li)TiO3
_exptl_crystal_density_diffrn 4.84
_cell_measurement_temperature 295.
_publ_section_title

;
Relationship between crystal structure and Li(+) - conductivity in La0.5 Li0.5
Ti O3 perovskite
;
loop_
_citation_id
_citation_journal_full
_citation_year
_citation_journal_volume
_citation_page_first
_citation_page_last
_citation_journal_id_ASTM
primary 'Materials Research Society Symposium Proceedings' 2000 575 337 342
MRSPDH
loop_
_publ_author_name
'Alonso, J.A.'
'Ibarra, J.'
'Paris, M.A.'
'Sanz, J.'
'Santamaria, J.'
'Leon, C.'
'Varez, A.'
'Fernandez, M.T.'
_cell_length_a 5.4711(4)
_cell_length_b 5.4711(4)
_cell_length_c 13.404(1)
_cell_angle_alpha 90.
_cell_angle_beta 90.
_cell_angle_gamma 120.
_cell_volume 347.47
_cell_formula_units_Z 6
_symmetry_space_group_name_H-M 'R -3 c H'
_symmetry_Int_Tables_number 167
_refine_ls_R_factor_all 0.019
loop_
_symmetry_equiv_pos_site_id
_symmetry_equiv_pos_as_xyz
1 'x-y, -y, -z+1/2'
2 '-x, -x+y, -z+1/2'
3 'y, x, -z+1/2'
4 'x-y, x, -z'
5 'y, -x+y, -z'
6 '-x, -y, -z'
7 '-x+y, y, z+1/2'
8 'x, x-y, z+1/2'
9 '-y, -x, z+1/2'
10 '-x+y, -x, z'
11 '-y, x-y, z'
12 'x, y, z'
13 'x-y+2/3, -y+1/3, -z+5/6'
14 '-x+2/3, -x+y+1/3, -z+5/6'
15 'y+2/3, x+1/3, -z+5/6'
16 'x-y+2/3, x+1/3, -z+1/3'
17 'y+2/3, -x+y+1/3, -z+1/3'
18 '-x+2/3, -y+1/3, -z+1/3'
19 '-x+y+2/3, y+1/3, z+5/6'
20 'x+2/3, x-y+1/3, z+5/6'
21 '-y+2/3, -x+1/3, z+5/6'
22 '-x+y+2/3, -x+1/3, z+1/3'
23 '-y+2/3, x-y+1/3, z+1/3'
24 'x+2/3, y+1/3, z+1/3'
25 'x-y+1/3, -y+2/3, -z+1/6'
26 '-x+1/3, -x+y+2/3, -z+1/6'
27 'y+1/3, x+2/3, -z+1/6'
28 'x-y+1/3, x+2/3, -z+2/3'
29 'y+1/3, -x+y+2/3, -z+2/3'
30 '-x+1/3, -y+2/3, -z+2/3'
31 '-x+y+1/3, y+2/3, z+1/6'
32 'x+1/3, x-y+2/3, z+1/6'
33 '-y+1/3, -x+2/3, z+1/6'
34 '-x+y+1/3, -x+2/3, z+2/3'
35 '-y+1/3, x-y+2/3, z+2/3'
36 'x+1/3, y+2/3, z+2/3'
loop_
_atom_type_symbol
_atom_type_oxidation_number
La3+ 3
Li1+ 1
Ti4+ 4
O2- -2
loop_
_atom_site_label
_atom_site_type_symbol
_atom_site_symmetry_multiplicity
_atom_site_Wyckoff_symbol
_atom_site_fract_x
_atom_site_fract_y
_atom_site_fract_z
_atom_site_B_iso_or_equiv
_atom_site_occupancy
_atom_site_attached_hydrogens
La1 La3+ 6 a 0 0 0.25 0.11(10) 0.504(9) 0
Li1 Li1+ 18 d 0.5 0 0 6.7(1) 0.162(3) 0
Ti1 Ti4+ 6 b 0 0 0 1.08(12) 1. 0
O1 O2- 18 e 0.5321(6) 0 0.25 1.87(8) 1. 0
#End of TTdata_91810-ICSD