
#(C) 2018 by FIZ Karlsruhe - Leibniz Institute for Information Infrastructure.  All rights reserved.
data_92854-ICSD
_database_code_ICSD 92854
_audit_creation_date 2003-04-01
_chemical_name_systematic 'Dilithium copper bis(tungstate)'
_chemical_formula_structural 'Li2 Cu (W O4)2'
_chemical_formula_sum 'Cu1 Li2 O8 W2'
_chemical_name_structure_type Cu3(PO4)2(P1-)
_exptl_crystal_density_diffrn 6.88
_publ_section_title

;
Synthesis and characterization of new double tungstates Li2 M(II) (W O4)2 (M =
Co, Ni and Cu)
;
loop_
_citation_id
_citation_journal_full
_citation_year
_citation_journal_volume
_citation_page_first
_citation_page_last
_citation_journal_id_ASTM
primary 'Chemistry of Materials' 2001 13 3871 3875 CMATEX
loop_
_publ_author_name
'Alvarez-Vega, M.'
'Rodriguez Carvajal, J.'
'Reyes-Cardenas, J.G.'
'Fuentes, A.F.'
'Amador, U.'
_cell_length_a 4.9669(1)
_cell_length_b 5.4969(1)
_cell_length_c 5.8883(1)
_cell_angle_alpha 70.72(1)
_cell_angle_beta 85.99(1)
_cell_angle_gamma 66.04(1)
_cell_volume 138.29
_cell_formula_units_Z 1
_symmetry_space_group_name_H-M 'P -1'
_symmetry_Int_Tables_number 2
_refine_ls_R_factor_all 0.047
loop_
_symmetry_equiv_pos_site_id
_symmetry_equiv_pos_as_xyz
1 '-x, -y, -z'
2 'x, y, z'
loop_
_atom_type_symbol
_atom_type_oxidation_number
W6+ 6
Cu2+ 2
O2- -2
Li1+ 1
loop_
_atom_site_label
_atom_site_type_symbol
_atom_site_symmetry_multiplicity
_atom_site_Wyckoff_symbol
_atom_site_fract_x
_atom_site_fract_y
_atom_site_fract_z
_atom_site_B_iso_or_equiv
_atom_site_occupancy
_atom_site_attached_hydrogens
W1 W6+ 2 i 0.2732(6) 0.9619(6) 0.3385(5) 1.06(7) 1. 0
Cu1 Cu2+ 1 e 0.5 0.5 0 0.80(6) 1. 0
O1 O2- 2 i 0.8479(5) 0.2218(4) 0.3494(4) 1.08(4) 1. 0
O2 O2- 2 i 0.2377(5) 0.7505(5) 0.1810(5) 1.08(4) 1. 0
O3 O2- 2 i 0.6640(5) 0.7878(5) 0.4381(4) 1.08(4) 1. 0
O4 O2- 2 i 0.2779(5) 0.2686(5) 0.0890(4) 1.08(4) 1. 0
Li1 Li1+ 2 i -0.057(2) 0.573(2) 0.236(2) 1.9(2) 1. 0
#End of TTdata_92854-ICSD