
#(C) 2018 by FIZ Karlsruhe - Leibniz Institute for Information Infrastructure.  All rights reserved.
data_93015-ICSD
_database_code_ICSD 93015
_audit_creation_date 2003-04-01
_chemical_name_systematic 'Strontium lithium tecto-nonaborate'
_chemical_formula_structural 'Sr Li (B9 O15)'
_chemical_formula_sum 'B9 Li1 O15 Sr1'
_chemical_name_structure_type BaLiB9O15
_exptl_crystal_density_diffrn 2.51
_cell_measurement_temperature 298.
_publ_section_title

;
Synthesis and crystal structure of three M M' B9 O15 borates (M = Ba, Sr and
M' = Li; M = Ba and M' = Na)
;
loop_
_citation_id
_citation_journal_full
_citation_year
_citation_journal_volume
_citation_page_first
_citation_page_last
_citation_journal_id_ASTM
primary 'International Journal of Inorganic Materials' 2001 3 1015 1023 IJIMCR
loop_
_publ_author_name
'Penin, N.'
'Seguin, L.'
'Touboul, M.'
'Nowogrocki, G.'
_cell_length_a 10.6129(9)
_cell_length_b 10.6129(9)
_cell_length_c 17.555(2)
_cell_angle_alpha 90
_cell_angle_beta 90
_cell_angle_gamma 120
_cell_volume 1712.38
_cell_formula_units_Z 6
_symmetry_space_group_name_H-M 'R 3 c H'
_symmetry_Int_Tables_number 161
_refine_ls_R_factor_all 0.037
loop_
_symmetry_equiv_pos_site_id
_symmetry_equiv_pos_as_xyz
1 '-x+y, y, z+1/2'
2 'x, x-y, z+1/2'
3 '-y, -x, z+1/2'
4 '-x+y, -x, z'
5 '-y, x-y, z'
6 'x, y, z'
7 '-x+y+2/3, y+1/3, z+5/6'
8 'x+2/3, x-y+1/3, z+5/6'
9 '-y+2/3, -x+1/3, z+5/6'
10 '-x+y+2/3, -x+1/3, z+1/3'
11 '-y+2/3, x-y+1/3, z+1/3'
12 'x+2/3, y+1/3, z+1/3'
13 '-x+y+1/3, y+2/3, z+1/6'
14 'x+1/3, x-y+2/3, z+1/6'
15 '-y+1/3, -x+2/3, z+1/6'
16 '-x+y+1/3, -x+2/3, z+2/3'
17 '-y+1/3, x-y+2/3, z+2/3'
18 'x+1/3, y+2/3, z+2/3'
loop_
_atom_type_symbol
_atom_type_oxidation_number
Sr2+ 2
Li1+ 1
O2- -2
B3+ 3
loop_
_atom_site_label
_atom_site_type_symbol
_atom_site_symmetry_multiplicity
_atom_site_Wyckoff_symbol
_atom_site_fract_x
_atom_site_fract_y
_atom_site_fract_z
_atom_site_B_iso_or_equiv
_atom_site_occupancy
_atom_site_attached_hydrogens
Sr1 Sr2+ 6 a 0 0 0 0.018(1) 1. 0
Li1 Li1+ 6 a 0 0 0.2292(15) 0.028(6) 1. 0
O1 O2- 18 b 0.4943(6) 0.3336(11) 0.1061(4) 0.020(1) 1. 0
O2 O2- 18 b 0.2584(8) 0.2476(7) 0.0522(4) 0.017(2) 1. 0
O3 O2- 18 b 0.2061(10) 0.4410(8) 0.0644(4) 0.017(2) 1. 0
O4 O2- 18 b 0.3455(8) 0.4178(8) 0.1598(6) 0.017(2) 1. 0
O5 O2- 18 b 0.1008(11) 0.2231(8) 0.1508(5) 0.020(2) 1. 0
B1 B3+ 18 b 0.3954(13) 0.2702(13) 0.0461(5) 0.014(3) 1. 0
B2 B3+ 18 b 0.4588(12) 0.3942(13) 0.1670(6) 0.015(2) 1. 0
B3 B3+ 18 b 0.2256(11) 0.3300(17) 0.1069(7) 0.015(2) 1. 0
loop_
_atom_site_aniso_label
_atom_site_aniso_type_symbol
_atom_site_aniso_U_11
_atom_site_aniso_U_22
_atom_site_aniso_U_33
_atom_site_aniso_U_12
_atom_site_aniso_U_13
_atom_site_aniso_U_23
Sr1 Sr2+ 0.015(1) 0.015(1) 0.024(1) 0.007(1) 0. 0.
O1 O2- 0.017(4) 0.028(3) 0.018(3) 0.014(4) -0.004(3) -0.008(2)
O2 O2- 0.014(4) 0.021(4) 0.017(4) 0.008(3) -0.003(3) -0.008(3)
O3 O2- 0.018(5) 0.016(4) 0.018(3) 0.009(4) -0.007(4) -0.001(3)
O4 O2- 0.018(4) 0.023(5) 0.015(4) 0.014(4) -0.007(3) -0.007(3)
O5 O2- 0.024(5) 0.017(4) 0.019(4) 0.011(4) 0.001(4) 0.000(3)
B1 B3+ 0.017(7) 0.014(6) 0.010(5) 0.007(5) -0.001(4) 0.001(4)
B2 B3+ 0.013(6) 0.014(7) 0.017(5) 0.006(6) -0.001(4) -0.001(4)
B3 B3+ 0.012(6) 0.016(4) 0.014(4) 0.006(6) -0.006(4) -0.004(3)
#End of TTdata_93015-ICSD