
#(C) 2018 by FIZ Karlsruhe - Leibniz Institute for Information Infrastructure.  All rights reserved.
data_93090-ICSD
_database_code_ICSD 93090
_audit_creation_date 2003-04-01
_chemical_name_systematic 'Lithium gallium vanadium oxide (1/0.82/0.18/1.94)'
_chemical_formula_structural 'Li (Ga0.82 V0.18) O1.94'
_chemical_formula_sum 'Ga0.82 Li1 O1.94 V0.18'
_chemical_name_structure_type NaFeO2(beta)
_exptl_crystal_density_diffrn 4.03
_publ_section_title 'Structure and properties of Li Ga O2 crystals'
loop_
_citation_id
_citation_journal_full
_citation_year
_citation_journal_volume
_citation_page_first
_citation_page_last
_citation_journal_id_ASTM
primary 'Inorganic Materials' 2001 37 281 285 INOMAF
loop_
_publ_author_name
'Kuz'micheva, G.M. (Kuzmicheva, G.M.)'
'Rybakov, V.B.'
'Gaister, A.V.'
'Zharikov, E.V.'
_cell_length_a 5.395(1)
_cell_length_b 6.367(1)
_cell_length_c 5.0039(9)
_cell_angle_alpha 90
_cell_angle_beta 90
_cell_angle_gamma 90
_cell_volume 171.88
_cell_formula_units_Z 4
_symmetry_space_group_name_H-M 'P n a 21'
_symmetry_Int_Tables_number 33
_refine_ls_R_factor_all 0.023
loop_
_symmetry_equiv_pos_site_id
_symmetry_equiv_pos_as_xyz
1 'x+1/2, -y+1/2, z'
2 '-x+1/2, y+1/2, z+1/2'
3 '-x, -y, z+1/2'
4 'x, y, z'
loop_
_atom_type_symbol
_atom_type_oxidation_number
Ga3+ 3
V2+ 2.33
Li1+ 1
O2- -2
loop_
_atom_site_label
_atom_site_type_symbol
_atom_site_symmetry_multiplicity
_atom_site_Wyckoff_symbol
_atom_site_fract_x
_atom_site_fract_y
_atom_site_fract_z
_atom_site_B_iso_or_equiv
_atom_site_occupancy
_atom_site_attached_hydrogens
Ga1 Ga3+ 4 a 0.91770(4) 0.87383(4) 0 0.0056(1) 0.82(4) 0
V1 V2+ 4 a 0.91770(4) 0.87383(4) 0 0.0056(1) 0.18(4) 0
Li1 Li1+ 4 a 0.582(1) 0.8748(9) 0.501(7) 0.016(2) 1. 0
O1 O2- 4 a 0.5930(4) 0.8620(3) 0.1072(5) 0.0082(4) 0.98(3) 0
O2 O2- 4 a 0.9314(4) 0.8874(3) 0.6304(5) 0.0070(4) 0.96(3) 0
loop_
_atom_site_aniso_label
_atom_site_aniso_type_symbol
_atom_site_aniso_U_11
_atom_site_aniso_U_22
_atom_site_aniso_U_33
_atom_site_aniso_U_12
_atom_site_aniso_U_13
_atom_site_aniso_U_23
Ga1 Ga3+ 0.0050(1) 0.0048(1) 0.0064(1) -0.00013(6) 0.0002(1) 0.0014(2)
V1 V2+ 0.0050(1) 0.0048(1) 0.0064(1) -0.00013(6) 0.0002(1) 0.0014(2)
Li1 Li1+ 0.014(2) 0.013(3) 0.019(3) -0.001(1) -0.008(3) 0.007(5)
O1 O2- 0.0057(6) 0.0081(7) 0.0109(8) -0.0019(4) -0.0001(5) -0.0025(6)
O2 O2- 0.0078(6) 0.0056(6) 0.0077(7) -0.0015(4) -0.0019(5) -0.0019(5)
#End of TTdata_93090-ICSD