
#(C) 2018 by FIZ Karlsruhe - Leibniz Institute for Information Infrastructure.  All rights reserved.
data_93486-ICSD
_database_code_ICSD 93486
_audit_creation_date 2003-04-01
_audit_update_record 2005-04-01
_chemical_name_systematic 'Lithium zinc borate (1.13/0.93/1)'
_chemical_formula_structural 'Li1.13 Zn0.93 (B O3)'
_chemical_formula_sum 'B1 Li1.13 O3 Zn0.93'
_exptl_crystal_density_diffrn 3.51
_cell_measurement_temperature 296.
_publ_section_title 'Li Zn B O3 : crystal structure'
loop_
_citation_id
_citation_journal_full
_citation_year
_citation_journal_volume
_citation_page_first
_citation_page_last
_citation_journal_id_ASTM
primary 'Journal of the Korean Chemical Society' 2001 45 251 255 JKCSEZ
loop_
_publ_author_name
'Chang, K.-S.'
_cell_length_a 5.0915(9)
_cell_length_b 5.059(1)
_cell_length_c 6.156(1)
_cell_angle_alpha 65.81(1)
_cell_angle_beta 65.56(1)
_cell_angle_gamma 59.77(1)
_cell_volume 120.57
_cell_formula_units_Z 2
_symmetry_space_group_name_H-M 'P -1'
_symmetry_Int_Tables_number 2
_refine_ls_R_factor_all 0.039
loop_
_symmetry_equiv_pos_site_id
_symmetry_equiv_pos_as_xyz
1 '-x, -y, -z'
2 'x, y, z'
loop_
_atom_type_symbol
_atom_type_oxidation_number
Zn2+ 2
O2- -2
B3+ 3
Li1+ 1
loop_
_atom_site_label
_atom_site_type_symbol
_atom_site_symmetry_multiplicity
_atom_site_Wyckoff_symbol
_atom_site_fract_x
_atom_site_fract_y
_atom_site_fract_z
_atom_site_B_iso_or_equiv
_atom_site_occupancy
_atom_site_attached_hydrogens
Zn1 Zn2+ 2 i 0.7466(2) 0.0678(3) 0.8030(3) . 0.46 0
Zn2 Zn2+ 2 i 0.1179(3) 0.4330(3) 0.6952(3) . 0.475 0
O1 O2- 2 i 0.7075(6) 0.5022(7) 0.6941(5) . 1. 0
O2 O2- 2 i 0.4039(6) -0.0020(7) 0.8044(5) . 1. 0
O3 O2- 2 i 0.1539(7) 0.7501(8) 0.7468(8) . 1. 0
B1 B3+ 2 i 0.577(1) 0.250(1) 0.254(1) . 1. 0
Li1 Li1+ 2 i 0.048(2) 0.401(2) 0.810(2) . 0.55 0
Li2 Li1+ 2 i 0.761(3) 0.102(2) 0.684(2) . 0.58 0
loop_
_atom_site_aniso_label
_atom_site_aniso_type_symbol
_atom_site_aniso_U_11
_atom_site_aniso_U_22
_atom_site_aniso_U_33
_atom_site_aniso_U_12
_atom_site_aniso_U_13
_atom_site_aniso_U_23
Zn1 Zn2+ .0132(6) .0150(6) .030(1) -.0054(4) -.0051(6) -.0077(6)
Zn2 Zn2+ .0174(7) .0156(7) .029(1) -.0039(5) -.0115(7) -.0080(7)
O1 O2- .010(1) .010(1) .010(2) -.003(1) -.004(1) -.001(1)
O2 O2- .015(1) .012(1) .009(2) -.007(1) -.004(1) -.002(1)
O3 O2- .013(2) .024(2) .061(3) -.003(1) -.015(2) -.021(2)
B1 B3+ .010(2) .010(2) .012(2) -.003(2) -.005(2) -.002(2)
Li1 Li1+ -.013(4) -.009(4) -.015(5) .002(3) .007(4) .008(4)
Li2 Li1+ .021(7) .007(6) -.024(4) -.009(5) -.010(5) .008(4)
#End of TTdata_93486-ICSD