
#(C) 2018 by FIZ Karlsruhe - Leibniz Institute for Information Infrastructure.  All rights reserved.
data_94003-ICSD
_database_code_ICSD 94003
_audit_creation_date 2003-04-01
_chemical_name_systematic 'Zinc lithium oxide (0.91/0.09/0.96)'
_chemical_formula_structural '(Zn0.914 Li0.086) O0.957'
_chemical_formula_sum 'Li0.086 O0.957 Zn0.914'
_chemical_name_structure_type Wurtzite-ZnS(2H)
_exptl_crystal_density_diffrn 5.29
_publ_section_title
'Crystal structure of ZnO:Li at 293K and 19K by X-ray diffraction'
loop_
_citation_id
_citation_journal_full
_citation_year
_citation_journal_volume
_citation_page_first
_citation_page_last
_citation_journal_id_ASTM
primary Ferroelectrics 2001 264 133 138 FEROA8
loop_
_publ_author_name
'Yoshio, K.'
'Onodera, A.'
'Satoh, H.'
'Sakagami, N.'
'Yamashita, H.'
_cell_length_a 3.2467(3)
_cell_length_b 3.2467(3)
_cell_length_c 5.2032(1)
_cell_angle_alpha 90
_cell_angle_beta 90
_cell_angle_gamma 120
_cell_volume 47.5
_cell_formula_units_Z 2
_symmetry_space_group_name_H-M 'P 63 m c'
_symmetry_Int_Tables_number 186
_refine_ls_R_factor_all 0.03
loop_
_symmetry_equiv_pos_site_id
_symmetry_equiv_pos_as_xyz
1 '-x, -x+y, z+1/2'
2 'x-y, -y, z+1/2'
3 'y, x, z+1/2'
4 'x-y, x, z+1/2'
5 'y, -x+y, z+1/2'
6 '-x, -y, z+1/2'
7 'x, x-y, z'
8 '-x+y, y, z'
9 '-y, -x, z'
10 '-x+y, -x, z'
11 '-y, x-y, z'
12 'x, y, z'
loop_
_atom_type_symbol
_atom_type_oxidation_number
Zn2+ 2
Li1+ 1
O2- -2
loop_
_atom_site_label
_atom_site_type_symbol
_atom_site_symmetry_multiplicity
_atom_site_Wyckoff_symbol
_atom_site_fract_x
_atom_site_fract_y
_atom_site_fract_z
_atom_site_B_iso_or_equiv
_atom_site_occupancy
_atom_site_attached_hydrogens
Zn1 Zn2+ 2 b 0.3333 0.6667 0.3804(3) 0.0068(1) 0.914 0
Li1 Li1+ 2 b 0.3333 0.6667 0.376(36) 0.0036(48) 0.086 0
O1 O2- 2 b 0.3333 0.6667 0 0.0078(3) 0.957 0
loop_
_atom_site_aniso_label
_atom_site_aniso_type_symbol
_atom_site_aniso_U_11
_atom_site_aniso_U_22
_atom_site_aniso_U_33
_atom_site_aniso_U_12
_atom_site_aniso_U_13
_atom_site_aniso_U_23
Zn1 Zn2+ 0.0075(1) 0.0075(1) 0.0055(1) 0.0038(1) 0. 0.
O1 O2- 0.0088(3) 0.0088(3) 0.0057(4) 0.0044(2) 0. 0.
#End of TTdata_94003-ICSD