
#(C) 2017 by FIZ Karlsruhe - Leibniz Institute for Information Infrastructure.  All rights reserved.
data_9430-ICSD
_database_code_ICSD 9430
_audit_creation_date 1980-01-01
_chemical_name_systematic 'Disodium lithium heptafluorodiberyllate'
_chemical_formula_structural 'Na2 Li Be2 F7'
_chemical_formula_sum 'Be2 F7 Li1 Na2'
_chemical_name_structure_type Melilite-Ca2MgSi2O7
_exptl_crystal_density_diffrn 2.43
_publ_section_title 'The crystal structure of Na2 Li Be2 F7'
loop_
_citation_id
_citation_journal_full
_citation_year
_citation_journal_volume
_citation_page_first
_citation_page_last
_citation_journal_id_ASTM
primary 'Materials Research Bulletin' 1972 7 641 646 MRBUAC
loop_
_publ_author_name
'Brunton, G.'
_cell_length_a 7.593(2)
_cell_length_b 7.593(2)
_cell_length_c 4.841(2)
_cell_angle_alpha 90.
_cell_angle_beta 90.
_cell_angle_gamma 90.
_cell_volume 279.1
_cell_formula_units_Z 2
_symmetry_space_group_name_H-M 'P -4 21 m'
_symmetry_Int_Tables_number 113
_refine_ls_R_factor_all 0.0551
loop_
_symmetry_equiv_pos_site_id
_symmetry_equiv_pos_as_xyz
1 '-y+1/2, -x+1/2, z'
2 'y, -x, -z'
3 'y+1/2, x+1/2, z'
4 '-y, x, -z'
5 'x+1/2, -y+1/2, -z'
6 '-x, -y, z'
7 '-x+1/2, y+1/2, -z'
8 'x, y, z'
loop_
_atom_type_symbol
_atom_type_oxidation_number
Na1+ 1
Li1+ 1
Be2+ 2
F1- -1
loop_
_atom_site_label
_atom_site_type_symbol
_atom_site_symmetry_multiplicity
_atom_site_Wyckoff_symbol
_atom_site_fract_x
_atom_site_fract_y
_atom_site_fract_z
_atom_site_B_iso_or_equiv
_atom_site_occupancy
_atom_site_attached_hydrogens
Na1 Na1+ 4 e 0.1669(2) 0.6669(2) 0.4927(4) . 1. 0
Li1 Li1+ 2 a 0 0 0 . 1. 0
Be1 Be2+ 4 e 0.3597(5) 0.8597(5) 0.0656(9) . 1. 0
F1 F1- 2 c 0 0.5 0.8282(7) . 1. 0
F2 F1- 4 e 0.3586(3) 0.8586(3) 0.7547(4) . 1. 0
F3 F1- 8 f 0.0828(3) 0.1870(3) 0.8014(4) . 1. 0
loop_
_atom_site_aniso_label
_atom_site_aniso_type_symbol
_atom_site_aniso_beta_11
_atom_site_aniso_beta_22
_atom_site_aniso_beta_33
_atom_site_aniso_beta_12
_atom_site_aniso_beta_13
_atom_site_aniso_beta_23
Na1 Na1+ 0.0127(3) 0.0127(3) 0.0238(7) -.0045(3) 0.0028(3) 0.0028(3)
Li1 Li1+ 0.0072(9) 0.0072(9) 0.024(4) 0 0 0
Be1 Be2+ 0.0067(5) 0.0067(5) 0.013(2) -.0002(6) 0.000(6) 0.000(6)
F1 F1- 0.0124(5) 0.0124(5) 0.016(2) 0.0085(6) 0 0
F2 F1- 0.0138(4) 0.0138(4) 0.015(2) -.0033(4) -.0020(4) -.0020(4)
F3 F1- 0.0185(5) 0.0068(3) 0.0239(7) -.0041(3) 0.0057(5) -.0009(4)
#End of TTdata_9430-ICSD