
#(C) 2018 by FIZ Karlsruhe - Leibniz Institute for Information Infrastructure.  All rights reserved.
data_94318-ICSD
_database_code_ICSD 94318
_audit_creation_date 2003-10-01
_chemical_name_systematic 'Lithium manganese borate'
_chemical_formula_structural 'Li Mn (B O3)'
_chemical_formula_sum 'B1 Li1 Mn1 O3'
_chemical_name_structure_type LiCdBO3
_exptl_crystal_density_diffrn 3.3
_publ_section_title

;
Li M B O3 (M = Mn, Fe, Co): synthesis, crystal structure and lithium
deinsertion/insertion properties
;
loop_
_citation_id
_citation_journal_full
_citation_year
_citation_journal_volume
_citation_page_first
_citation_page_last
_citation_journal_id_ASTM
primary 'Solid State Ionics' 2001 139 37 46 SSIOD3
loop_
_publ_author_name
'Legagneur, V.'
'An, Y.'
'Mosbah, A.'
'Portal, R.'
'le Gal la Salle, A.'
'Verbaere, A.'
'Guyomard, D.'
'Piffard, Y.'
_cell_length_a 8.172(1)
_cell_length_b 8.172(1)
_cell_length_c 3.1473(6)
_cell_angle_alpha 90
_cell_angle_beta 90
_cell_angle_gamma 120
_cell_volume 182.02
_cell_formula_units_Z 3
_symmetry_space_group_name_H-M 'P -6'
_symmetry_Int_Tables_number 174
_refine_ls_R_factor_all 0.019
loop_
_symmetry_equiv_pos_site_id
_symmetry_equiv_pos_as_xyz
1 '-x+y, -x, -z'
2 '-y, x-y, -z'
3 'x, y, -z'
4 '-x+y, -x, z'
5 '-y, x-y, z'
6 'x, y, z'
loop_
_atom_type_symbol
_atom_type_oxidation_number
Mn2+ 2
B3+ 3
O2- -2
Li1+ 1
loop_
_atom_site_label
_atom_site_type_symbol
_atom_site_symmetry_multiplicity
_atom_site_Wyckoff_symbol
_atom_site_fract_x
_atom_site_fract_y
_atom_site_fract_z
_atom_site_B_iso_or_equiv
_atom_site_occupancy
_atom_site_attached_hydrogens
Mn1 Mn2+ 3 j 0.37077(7) 0.35891(5) 0 0.0105(2) 1. 0
B1 B3+ 1 d 0.3333 0.6667 0.5 0.006(1) 1. 0
B2 B3+ 1 a 0 0 0 0.0076(8) 1. 0
B3 B3+ 1 f 0.6667 0.3333 0.5 0.009(1) 1. 0
O1 O2- 3 k 0.1389(3) 0.5808(8) 0.5 0.0112(7) 1. 0
O2 O2- 3 j 0.1162(3) -0.0780(3) 0 0.0106(6) 1. 0
O3 O2- 3 k 0.7505(3) 0.2227(3) 0.5 0.0114(7) 1. 0
Li1 Li1+ 3 k 0.019(1) 0.303(1) 0.5 0.014(1) 1. 0
loop_
_atom_site_aniso_label
_atom_site_aniso_type_symbol
_atom_site_aniso_U_11
_atom_site_aniso_U_22
_atom_site_aniso_U_33
_atom_site_aniso_U_12
_atom_site_aniso_U_13
_atom_site_aniso_U_23
Mn1 Mn2+ 0.0094(2) 0.0104(2) 0.0119(1) 0.0051(2) 0. 0.
B1 B3+ 0.0044(13) 0.0044(13) 0.0095(27) 0.0022(7) 0. 0.
B2 B3+ 0.068(10) 0.0068(10) 0.0091(15) 0.0034(5) 0. 0.
B3 B3+ 0.0113(14) 0.0113(14) 0.0049(20) 0.0056(7) 0. 0.
O1 O2- 0.0065(8) 0.0114(9) 0.0149(8) 0.0039(6) 0. 0.
O2 O2- 0.0101(9) 0.0097(7) 0.0140(8) 0.0065(7) 0. 0.
O3 O2- 0.0099(8) 0.0074(7) 0.0178(9) 0.0050(8) 0. 0.
#End of TTdata_94318-ICSD