
#(C) 2018 by FIZ Karlsruhe - Leibniz Institute for Information Infrastructure.  All rights reserved.
data_95380-ICSD
_database_code_ICSD 95380
_audit_creation_date 2003-10-01
_audit_update_record 2013-08-01
_chemical_name_systematic 'Lithium erbium oxide - beta'
_chemical_formula_structural 'Li Er O2'
_chemical_formula_sum 'Er1 Li1 O2'
_chemical_name_structure_type ErLiO2
_exptl_crystal_density_diffrn 6.76
_cell_measurement_temperature 150.
_publ_section_title

;
Structures and magnetic properties of ternary lithium oxides Li R O2 ( R =
rare earths)
;
loop_
_citation_id
_citation_journal_full
_citation_year
_citation_journal_volume
_citation_page_first
_citation_page_last
_citation_journal_id_ASTM
primary 'Chemistry of Materials' 2002 14 3245 3251 CMATEX
loop_
_publ_author_name
'Hashimoto, Y.'
'Wakeshima, M.'
'Matsuhira, K.'
'Hinatsu, Y.'
_cell_length_a 6.0761(6)
_cell_length_b 6.1617(4)
_cell_length_c 6.1546(6)
_cell_angle_alpha 90
_cell_angle_beta 118.479(4)
_cell_angle_gamma 90
_cell_volume 202.54
_cell_formula_units_Z 4
_symmetry_space_group_name_H-M 'P 1 21/c 1'
_symmetry_Int_Tables_number 14
_refine_ls_R_factor_all 0.0443
loop_
_symmetry_equiv_pos_site_id
_symmetry_equiv_pos_as_xyz
1 'x, -y+1/2, z+1/2'
2 '-x, -y, -z'
3 '-x, y+1/2, -z+1/2'
4 'x, y, z'
loop_
_atom_type_symbol
_atom_type_oxidation_number
Li1+ 1
Er3+ 3
O2- -2
loop_
_atom_site_label
_atom_site_type_symbol
_atom_site_symmetry_multiplicity
_atom_site_Wyckoff_symbol
_atom_site_fract_x
_atom_site_fract_y
_atom_site_fract_z
_atom_site_B_iso_or_equiv
_atom_site_occupancy
_atom_site_attached_hydrogens
Li1 Li1+ 4 e 0.284(9) 0.649(9) 0.052(9) 0.69(18) 1. 0
Er1 Er3+ 4 e 0.2376(6) 0.1311(5) -0.0149(5) 0.29(5) 1. 0
O1 O2- 4 e 0.4555(6) 0.3924(6) 0.2617(6) 0.03(6) 1. 0
O2 O2- 4 e -0.0079(7) 0.1645(5) 0.1672(7) 0.17(6) 1. 0
#End of TTdata_95380-ICSD