
#(C) 2018 by FIZ Karlsruhe - Leibniz Institute for Information Infrastructure.  All rights reserved.
data_95790-ICSD
_database_code_ICSD 95790
_audit_creation_date 2004-04-01
_chemical_name_systematic 'Lithium dicadmium bis(selenate(IV)) hydroxide'
_chemical_formula_structural 'Li Cd2 (Se O3)2 (O H)'
_chemical_formula_sum 'H1 Cd2 Li1 O7 Se2'
_exptl_crystal_density_diffrn 4.85
_cell_measurement_temperature 298.
_publ_section_title

;
Synthesis and structure of lithium cadmium selenite hydroxide, Li Cd2 (Se O3)2
(O H)
;
loop_
_citation_id
_citation_journal_full
_citation_year
_citation_journal_volume
_citation_page_first
_citation_page_last
_citation_journal_id_ASTM
primary 'Zeitschrift fuer Anorganische und Allgemeine Chemie (1950) (DE)' 2002
628 1913 1916 ZAACAB
loop_
_publ_author_name
'Johnston, M.G.'
'Harrison, W.T.A.'
_cell_length_a 5.8184(3)
_cell_length_b 10.2790(5)
_cell_length_c 11.5021(5)
_cell_angle_alpha 90
_cell_angle_beta 90.446(1)
_cell_angle_gamma 90
_cell_volume 687.89
_cell_formula_units_Z 4
_symmetry_space_group_name_H-M 'P 1 21/c 1'
_symmetry_Int_Tables_number 14
_refine_ls_R_factor_all 0.021
loop_
_symmetry_equiv_pos_site_id
_symmetry_equiv_pos_as_xyz
1 'x, -y+1/2, z+1/2'
2 '-x, -y, -z'
3 '-x, y+1/2, -z+1/2'
4 'x, y, z'
loop_
_atom_type_symbol
_atom_type_oxidation_number
Li1+ 1
Cd2+ 2
Se4+ 4
O2- -2
H1+ 1
loop_
_atom_site_label
_atom_site_type_symbol
_atom_site_symmetry_multiplicity
_atom_site_Wyckoff_symbol
_atom_site_fract_x
_atom_site_fract_y
_atom_site_fract_z
_atom_site_B_iso_or_equiv
_atom_site_occupancy
_atom_site_attached_hydrogens
Li1 Li1+ 4 e 0.3715(9) 0.3118(5) 0.3606(5) 0.0156 1. 0
Cd1 Cd2+ 4 e 0.61851(4) 0.39807(2) 0.104406(19) 0.0133 1. 0
Cd2 Cd2+ 4 e 0.14754(4) 0.61756(2) 0.204323(19) 0.0138 1. 0
Se1 Se4+ 4 e 0.89605(5) 0.16554(3) -.00165(3) 0.0116 1. 0
Se2 Se4+ 4 e 0.37861(5) 0.08886(3) 0.15596(2) 0.0105 1. 0
O1 O2- 4 e 0.9405(4) 0.2457(2) 0.12599(18) 0.0152 1. 0
O2 O2- 4 e 0.6357(4) 0.2301(2) -.03833(19) 0.0171 1. 0
O3 O2- 4 e 0.0694(4) 0.2494(2) -.09260(19) 0.0182 1. 0
O4 O2- 4 e 0.6185(4) -0.0028(2) 0.1699(2) 0.0168 1. 0
O5 O2- 4 e 0.4777(4) 0.2247(2) 0.22394(18) 0.0149 1. 0
O6 O2- 4 e 0.2057(4) 0.0181(2) 0.25768(19) 0.016 1. 0
O7 O2- 4 e 0.2746(4) 0.4853(2) 0.06025(18) 0.0153 1. 0
H1 H1+ 4 e 0.176 0.4211 0.0452 0.018 1. 0
#End of TTdata_95790-ICSD