
#(C) 2018 by FIZ Karlsruhe - Leibniz Institute for Information Infrastructure.  All rights reserved.
data_95973-ICSD
_database_code_ICSD 95973
_audit_creation_date 2004-04-01
_chemical_name_systematic 'Trilithium diiron(III) tris(phosphate(V)) - R'
_chemical_formula_structural 'Li3 Fe2 (P O4)3'
_chemical_formula_sum 'Fe2 Li3 O12 P3'
_chemical_name_structure_type Li3In2(PO4)3
_exptl_crystal_density_diffrn 3.1
_cell_measurement_temperature 295.
_publ_section_title

;
A neutron powder diffraction study of electrochemically lithiated R - (Li3+x
Fe2 (P O4)3) for x = 1.8
;
loop_
_citation_id
_citation_journal_full
_citation_year
_citation_journal_volume
_citation_page_first
_citation_page_last
_citation_journal_id_ASTM
primary 'Journal of Materials Chemistry' 2002 12 2343 2347 JMACEP
loop_
_publ_author_name
'Eyob, P.'
'Andersson, A.S.'
'Thomas, J.O.'
_cell_length_a 8.3009(5)
_cell_length_b 8.3009(5)
_cell_length_c 22.502(2)
_cell_angle_alpha 90
_cell_angle_beta 90
_cell_angle_gamma 120
_cell_volume 1342.77
_cell_formula_units_Z 6
_symmetry_space_group_name_H-M 'R -3 H'
_symmetry_Int_Tables_number 148
_refine_ls_R_factor_all 0.029
loop_
_symmetry_equiv_pos_site_id
_symmetry_equiv_pos_as_xyz
1 'x-y, x, -z'
2 'y, -x+y, -z'
3 '-x, -y, -z'
4 '-x+y, -x, z'
5 '-y, x-y, z'
6 'x, y, z'
7 'x-y+2/3, x+1/3, -z+1/3'
8 'y+2/3, -x+y+1/3, -z+1/3'
9 '-x+2/3, -y+1/3, -z+1/3'
10 '-x+y+2/3, -x+1/3, z+1/3'
11 '-y+2/3, x-y+1/3, z+1/3'
12 'x+2/3, y+1/3, z+1/3'
13 'x-y+1/3, x+2/3, -z+2/3'
14 'y+1/3, -x+y+2/3, -z+2/3'
15 '-x+1/3, -y+2/3, -z+2/3'
16 '-x+y+1/3, -x+2/3, z+2/3'
17 '-y+1/3, x-y+2/3, z+2/3'
18 'x+1/3, y+2/3, z+2/3'
loop_
_atom_type_symbol
_atom_type_oxidation_number
Fe3+ 3
P5+ 5
O2- -2
Li1+ 1
loop_
_atom_site_label
_atom_site_type_symbol
_atom_site_symmetry_multiplicity
_atom_site_Wyckoff_symbol
_atom_site_fract_x
_atom_site_fract_y
_atom_site_fract_z
_atom_site_B_iso_or_equiv
_atom_site_occupancy
_atom_site_attached_hydrogens
Fe1 Fe3+ 6 c 0 0 0.1468(3) 0.174(4) 1. 0
Fe2 Fe3+ 6 c 0 0 0.6503(3) 0.28(7) 1. 0
P1 P5+ 18 f 0.2909(6) 0.0009(7) 0.2500(3) 0.36(8) 1. 0
O1 O2- 18 f 0.1909(7) -0.0098(6) 0.1928(2) 1.03(9) 1. 0
O2 O2- 18 f 0.7670(7) 0.9108(7) 0.7007(2) 1.04(9) 1. 0
O3 O2- 18 f 0.2414(6) 0.8023(6) 0.2685(2) 0.69(9) 1. 0
O4 O2- 18 f 0.4991(6) 0.8799(6) 0.7556(2) 0.55(9) 1. 0
Li1 Li1+ 18 f 0.347(3) 0.034(3) 0.384(1) . 1. 0
loop_
_atom_site_aniso_label
_atom_site_aniso_type_symbol
_atom_site_aniso_U_11
_atom_site_aniso_U_22
_atom_site_aniso_U_33
_atom_site_aniso_U_12
_atom_site_aniso_U_13
_atom_site_aniso_U_23
Li1 Li1+ 0.0241(56) 0.0221(56) 0.0010(4) 0.0212(49) 0.0025(14) 0.0023(13)
#End of TTdata_95973-ICSD