
#(C) 2018 by FIZ Karlsruhe - Leibniz Institute for Information Infrastructure.  All rights reserved.
data_96914-ICSD
_database_code_ICSD 96914
_audit_creation_date 2004-10-01
_chemical_name_systematic 'Lithium gallium sulfide'
_chemical_formula_structural 'Li Ga S2'
_chemical_formula_sum 'Ga1 Li1 S2'
_chemical_name_structure_type NaFeO2(beta)
_exptl_crystal_density_diffrn 2.94
_cell_measurement_temperature 296.
_publ_section_title

;
Growth and properties of Li Ga X2 (X = S, Se, Te) single crystals for
nonlinear optical applications in the mid-IR
;
loop_
_citation_id
_citation_journal_full
_citation_year
_citation_journal_volume
_citation_page_first
_citation_page_last
_citation_journal_id_ASTM
primary 'Crystal Research and Technology' 2003 38 379 387 CRTEDF
loop_
_publ_author_name
'Isaenko, L.'
'Yelisseyev, A.'
'Lobanov, S.'
'Titov, A.'
'Petrov, V.'
'Zondy, J.J.'
'Krinitsin, P.'
'Merkulov, A.'
'Vedenyapin, V.'
'Smirnova, J.'
_cell_length_a 6.5133(6)
_cell_length_b 7.8629(8)
_cell_length_c 6.2175(5)
_cell_angle_alpha 90
_cell_angle_beta 90
_cell_angle_gamma 90
_cell_volume 318.42
_cell_formula_units_Z 4
_symmetry_space_group_name_H-M 'P n a 21'
_symmetry_Int_Tables_number 33
_refine_ls_R_factor_all 0.0279
loop_
_symmetry_equiv_pos_site_id
_symmetry_equiv_pos_as_xyz
1 'x+1/2, -y+1/2, z'
2 '-x+1/2, y+1/2, z+1/2'
3 '-x, -y, z+1/2'
4 'x, y, z'
loop_
_atom_type_symbol
_atom_type_oxidation_number
Ga3+ 3
Li1+ 1
S2- -2
loop_
_atom_site_label
_atom_site_type_symbol
_atom_site_symmetry_multiplicity
_atom_site_Wyckoff_symbol
_atom_site_fract_x
_atom_site_fract_y
_atom_site_fract_z
_atom_site_B_iso_or_equiv
_atom_site_occupancy
_atom_site_attached_hydrogens
Ga1 Ga3+ 4 a 0.07347(4) 0.87402(4) 0.62281(6) 0.0101(1) 1. 0
Li1 Li1+ 4 a 0.417(1) 0.877(1) 0.116(4) 0.015(3) 1. 0
S1 S2- 4 a -0.0944(1) 0.6367(1) 0.5080(2) 0.0117(3) 1. 0
S2 S2- 4 a 0.0662(1) 0.8836(1) 0.9894(2) 0.0118(3) 1. 0
#End of TTdata_96914-ICSD