
#(C) 2018 by FIZ Karlsruhe - Leibniz Institute for Information Infrastructure.  All rights reserved.
data_96964-ICSD
_database_code_ICSD 96964
_audit_creation_date 2004-10-01
_audit_update_record 2012-02-01
_chemical_name_systematic 'Lithium divanadium(IV) tris(phosphate(V)) - D'
_chemical_formula_structural 'Li V2 (P O4)3'
_chemical_formula_sum 'Li1 O12 P3 V2'
_chemical_name_structure_type LiV2(PO4)3
_exptl_crystal_density_diffrn 3.17
_cell_measurement_temperature 300.
_publ_section_title

;
Electrochemical property: structure relationships in monoclinic Li3-y V2 (P
O4)3
;
loop_
_citation_id
_citation_journal_full
_citation_year
_citation_journal_volume
_citation_page_first
_citation_page_last
_citation_journal_id_ASTM
primary 'Journal of the American Chemical Society' 2003 125 10402 10411 JACSAT
loop_
_publ_author_name
'Yin, S.-C.'
'Grondey, H.'
'Strobel, P.'
'Anne, M.'
'Nazar, L.F.'
_cell_length_a 8.3006(2)
_cell_length_b 8.5176(1)
_cell_length_c 11.6526(2)
_cell_angle_alpha 90
_cell_angle_beta 89.605(2)
_cell_angle_gamma 90
_cell_volume 823.83
_cell_formula_units_Z 4
_symmetry_space_group_name_H-M 'P 1 21/n 1'
_symmetry_Int_Tables_number 14
_refine_ls_R_factor_all 0.0386
loop_
_symmetry_equiv_pos_site_id
_symmetry_equiv_pos_as_xyz
1 '-x+1/2, y+1/2, -z+1/2'
2 '-x, -y, -z'
3 'x+1/2, -y+1/2, z+1/2'
4 'x, y, z'
loop_
_atom_type_symbol
_atom_type_oxidation_number
V4+ 4
P5+ 5
O2- -2
Li1+ 1
loop_
_atom_site_label
_atom_site_type_symbol
_atom_site_symmetry_multiplicity
_atom_site_Wyckoff_symbol
_atom_site_fract_x
_atom_site_fract_y
_atom_site_fract_z
_atom_site_B_iso_or_equiv
_atom_site_occupancy
_atom_site_attached_hydrogens
V1 V4+ 4 e 0.252923 0.462856 0.122649 0.006 1. 0
V2 V4+ 4 e 0.754067 0.466659 0.383757 0.006 1. 0
P1 P5+ 4 e 0.1036(6) 0.1170(5) 0.1467(4) 0.0071(6) 1. 0
P2 P5+ 4 e 0.6069(6) 0.1125(6) 0.3575(4) 0.0071(6) 1. 0
P3 P5+ 4 e 0.0326(6) 0.2481(6) 0.5085(4) 0.0071(6) 1. 0
O1 O2- 4 e 0.9247(5) 0.0758(5) 0.1713(4) 0.01030(26) 1. 0
O2 O2- 4 e 0.2076(5) 0.0210(5) 0.2310(4) 0.01030(26) 1. 0
O3 O2- 4 e 0.1472(6) 0.0781(5) 0.0257(4) 0.01030(26) 1. 0
O4 O2- 4 e 0.1125(5) 0.2955(5) 0.1677(4) 0.01030(26) 1. 0
O5 O2- 4 e 0.4254(6) 0.1173(5) 0.3794(4) 0.01030(26) 1. 0
O6 O2- 4 e 0.6474(5) 0.9919(5) 0.2654(4) 0.01030(26) 1. 0
O7 O2- 4 e 0.7002(5) 0.0638(5) 0.4655(4) 0.01030(26) 1. 0
O8 O2- 4 e 0.6729(5) 0.2718(5) 0.3156(4) 0.01030(26) 1. 0
O9 O2- 4 e 0.9198(5) 0.1858(5) 0.6021(4) 0.01030(26) 1. 0
O10 O2- 4 e 0.9394(5) 0.3685(5) 0.4330(4) 0.01030(26) 1. 0
O11 O2- 4 e 0.0932(5) 0.1266(5) 0.4241(4) 0.01030(26) 1. 0
O12 O2- 4 e 0.1741(5) 0.3302(5) 0.5675(4) 0.01030(26) 1. 0
Li1 Li1+ 4 e 0.8173(19) 0.2867(19) 0.1775(13) 0.0215(34) 1. 0
#End of TTdata_96964-ICSD