
#(C) 2018 by FIZ Karlsruhe - Leibniz Institute for Information Infrastructure.  All rights reserved.
data_97291-ICSD
_database_code_ICSD 97291
_audit_creation_date 2004-10-01
_chemical_name_systematic 'Lithium aluminium catena-disilicate'
_chemical_formula_structural 'Li Al (Si2 O6)'
_chemical_formula_sum 'Al1 Li1 O6 Si2'
_chemical_name_structure_type Pyroxene-CaMg(SiO3)2
_chemical_name_mineral Spodumene
_exptl_crystal_density_diffrn 3.16
_cell_measurement_temperature 298.
_publ_section_title
'A single-crystal neutron diffraction investigation of spodumene at 54 K'
loop_
_citation_id
_citation_journal_full
_citation_year
_citation_journal_volume
_citation_page_first
_citation_page_last
_citation_journal_id_ASTM
primary 'Canadian Mineralogist' 2003 41 521 527 CAMIA6
loop_
_publ_author_name
'Tribaudino, M.'
'Nestola, F.'
'Prencipe, M.'
'Rundlof, H.'
_cell_length_a 9.479(2)
_cell_length_b 8.403(2)
_cell_length_c 5.223(1)
_cell_angle_alpha 90
_cell_angle_beta 110.14(1)
_cell_angle_gamma 90
_cell_volume 390.58
_cell_formula_units_Z 4
_symmetry_space_group_name_H-M 'C 1 2/c 1'
_symmetry_Int_Tables_number 15
_refine_ls_R_factor_all 0.017
loop_
_symmetry_equiv_pos_site_id
_symmetry_equiv_pos_as_xyz
1 'x, -y, z+1/2'
2 '-x, -y, -z'
3 '-x, y, -z+1/2'
4 'x, y, z'
5 'x+1/2, -y+1/2, z+1/2'
6 '-x+1/2, -y+1/2, -z'
7 '-x+1/2, y+1/2, -z+1/2'
8 'x+1/2, y+1/2, z'
loop_
_atom_type_symbol
_atom_type_oxidation_number
Li1+ 1
Al3+ 3
Si4+ 4
O2- -2
loop_
_atom_site_label
_atom_site_type_symbol
_atom_site_symmetry_multiplicity
_atom_site_Wyckoff_symbol
_atom_site_fract_x
_atom_site_fract_y
_atom_site_fract_z
_atom_site_B_iso_or_equiv
_atom_site_occupancy
_atom_site_attached_hydrogens
Li1 Li1+ 4 e 0 0.2741(2) 0.25 0.0164(3) 1. 0
Al1 Al3+ 4 e 0 0.90661(2) 0.25 0.00457(4) 1. 0
Si1 Si4+ 8 f 0.29410(1) 0.09345(1) 0.25609(2) 0.00434(4) 1. 0
O1 O2- 8 f 0.10972(3) 0.08233(3) 0.14057(6) 0.00532(5) 1. 0
O2 O2- 8 f 0.36476(3) 0.26704(4) 0.30051(7) 0.00812(5) 1. 0
O3 O2- 8 f 0.35664(3) -.01332(4) 0.05854(6) 0.00802(5) 1. 0
loop_
_atom_site_aniso_label
_atom_site_aniso_type_symbol
_atom_site_aniso_U_11
_atom_site_aniso_U_22
_atom_site_aniso_U_33
_atom_site_aniso_U_12
_atom_site_aniso_U_13
_atom_site_aniso_U_23
Li1 Li1+ 0.0158(6) 0.0152(6) 0.0181(7) 0. 0.0055(4) 0.
Al1 Al3+ 0.00411(7) 0.00444(7) 0.00494(7) 0. 0.00129(5) 0.
Si1 Si4+ 0.00370(5) 0.00473(5) 0.00439(5) -.00062(2) 0.00115(3) -.00022(2)
O1 O2- 0.00383(8) 0.00626(9) 0.00536(9) -.00037(6) 0.00092(6) 0.00015(6)
O2 O2- 0.00823(9) 0.00595(9) 0.00107(1) -.00288(7) 0.00391(8) -.00093(7)
O3 O2- 0.00587(9) 0.0118(1) 0.00599(9) 0.00063(7) 0.00150(7) -.00316(7)
#End of TTdata_97291-ICSD