
#(C) 2018 by FIZ Karlsruhe - Leibniz Institute for Information Infrastructure.  All rights reserved.
data_98097-ICSD
_database_code_ICSD 98097
_audit_creation_date 2004-10-01
_chemical_name_systematic 'Lithium cobalt titanium oxide (2.3/0.52/3.18/8)'
_chemical_formula_structural
'(Li0.572 Ti0.428) (Co0.521 Li1.479) (Ti2.752 Li0.248 O8)'
_chemical_formula_sum 'Co0.521 Li2.299 O8 Ti3.18'
_chemical_name_structure_type Spinel-LiFe5O8
_exptl_crystal_density_diffrn 3.71
_publ_section_title

;
Cation ordering and order-disorder phase transition in Co-substituted Li4 Ti5
O12 spinels
;
loop_
_citation_id
_citation_journal_full
_citation_year
_citation_journal_volume
_citation_page_first
_citation_page_last
_citation_journal_id_ASTM
primary 'Physica Status Solidi A - Applications and Materials' 2003 198 18 28
PSSABA
loop_
_publ_author_name
'Jovic, N.'
'Antic, B.'
'Kremenovic, A.'
'Spasojevic-de Bire, A.'
'Spasojevic, V.'
_cell_length_a 8.3687(4)
_cell_length_b 8.3687(4)
_cell_length_c 8.3687(4)
_cell_angle_alpha 90
_cell_angle_beta 90
_cell_angle_gamma 90
_cell_volume 586.1
_cell_formula_units_Z 4
_symmetry_space_group_name_H-M 'P 43 3 2'
_symmetry_Int_Tables_number 212
_refine_ls_R_factor_all 0.039
loop_
_symmetry_equiv_pos_site_id
_symmetry_equiv_pos_as_xyz
1 'z+1/4, y+3/4, -x+3/4'
2 '-z+3/4, y+1/4, x+3/4'
3 'y+1/4, x+3/4, -z+3/4'
4 '-y+3/4, x+1/4, z+3/4'
5 'x+1/4, z+3/4, -y+3/4'
6 '-x+3/4, z+1/4, y+3/4'
7 'z+3/4, -y+3/4, x+1/4'
8 '-z+1/4, -y+1/4, -x+1/4'
9 'y+3/4, -x+3/4, z+1/4'
10 '-y+1/4, -x+1/4, -z+1/4'
11 'x+3/4, -z+3/4, y+1/4'
12 '-x+1/4, -z+1/4, -y+1/4'
13 '-y+1/2, -z, x+1/2'
14 '-y, z+1/2, -x+1/2'
15 'y+1/2, -z+1/2, -x'
16 'y, z, x'
17 'z+1/2, -x+1/2, -y'
18 '-z+1/2, -x, y+1/2'
19 '-z, x+1/2, -y+1/2'
20 'z, x, y'
21 '-x+1/2, -y, z+1/2'
22 '-x, y+1/2, -z+1/2'
23 'x+1/2, -y+1/2, -z'
24 'x, y, z'
loop_
_atom_type_symbol
_atom_type_oxidation_number
Li1+ 1
Ti4+ 4
Co2+ 2
Li1+ 1
Ti4+ 4
O2- -2
loop_
_atom_site_label
_atom_site_type_symbol
_atom_site_symmetry_multiplicity
_atom_site_Wyckoff_symbol
_atom_site_fract_x
_atom_site_fract_y
_atom_site_fract_z
_atom_site_B_iso_or_equiv
_atom_site_occupancy
_atom_site_attached_hydrogens
Li1 Li1+ 4 b 0.625 0.625 0.625 0.72(4) 0.572(6) 0
Ti1 Ti4+ 4 b 0.625 0.625 0.625 0.72(4) 0.428(6) 0
Co1 Co2+ 8 c 0.9991(6) 0.9991(6) 0.9991(6) 0.72(4) 0.2605(15) 0
Li2 Li1+ 8 c 0.9991(6) 0.9991(6) 0.9991(6) 0.72(4) 0.7395(15) 0
Li3 Li1+ 12 d 0.125 0.3698(2) 0.8802(2) 0.72(4) 0.0827(20) 0
Ti2 Ti4+ 12 d 0.125 0.3698(2) 0.8802(2) 0.72(4) 0.9173(20) 0
O1 O2- 8 c 0.3893(6) 0.3893(6) 0.3893(6) 0.72(4) 1. 0
O2 O2- 24 e 0.1115(6) 0.1197(6) 0.3860(6) 0.72(4) 1. 0
#End of TTdata_98097-ICSD