
#(C) 2018 by FIZ Karlsruhe - Leibniz Institute for Information Infrastructure.  All rights reserved.
data_98123-ICSD
_database_code_ICSD 98123
_audit_creation_date 2004-10-01
_chemical_name_systematic 'Lithium zinc niobium oxide (0.94/0.08/0.98/3)'
_chemical_formula_structural '(Li0.937 Zn0.063) ((Nb0.979 Zn0.021) O3)'
_chemical_formula_sum 'Li0.937 Nb0.979 O3 Zn0.084'
_chemical_name_structure_type LiNbO3
_exptl_crystal_density_diffrn 4.71
_publ_section_title
'Neutron and X-ray study of stoichiometric and doped Li Nb O3 : Zn0.08'
loop_
_citation_id
_citation_journal_full
_citation_year
_citation_journal_volume
_citation_page_first
_citation_page_last
_citation_journal_id_ASTM
primary 'Applied Physics A: Materials Science & Processing' 2002 74 S1031 S1033
APAMFC
loop_
_publ_author_name
'Sulyanov, S.'
'Maximov, B.'
'Volk, T.'
'Boysen, H.'
'Schneider, J.'
'Rubinina, N.'
'Hansen, T.'
_cell_length_a 5.1534(3)
_cell_length_b 5.1534(3)
_cell_length_c 13.8696(7)
_cell_angle_alpha 90
_cell_angle_beta 90
_cell_angle_gamma 120
_cell_volume 318.99
_cell_formula_units_Z 6
_symmetry_space_group_name_H-M 'R 3 c H'
_symmetry_Int_Tables_number 161
_refine_ls_R_factor_all 0.0495
loop_
_symmetry_equiv_pos_site_id
_symmetry_equiv_pos_as_xyz
1 '-x+y, y, z+1/2'
2 'x, x-y, z+1/2'
3 '-y, -x, z+1/2'
4 '-x+y, -x, z'
5 '-y, x-y, z'
6 'x, y, z'
7 '-x+y+2/3, y+1/3, z+5/6'
8 'x+2/3, x-y+1/3, z+5/6'
9 '-y+2/3, -x+1/3, z+5/6'
10 '-x+y+2/3, -x+1/3, z+1/3'
11 '-y+2/3, x-y+1/3, z+1/3'
12 'x+2/3, y+1/3, z+1/3'
13 '-x+y+1/3, y+2/3, z+1/6'
14 'x+1/3, x-y+2/3, z+1/6'
15 '-y+1/3, -x+2/3, z+1/6'
16 '-x+y+1/3, -x+2/3, z+2/3'
17 '-y+1/3, x-y+2/3, z+2/3'
18 'x+1/3, y+2/3, z+2/3'
loop_
_atom_type_symbol
_atom_type_oxidation_number
Li1+ 1
Zn2+ 2
Nb5+ 5
Zn2+ 2
O2- -2
loop_
_atom_site_label
_atom_site_type_symbol
_atom_site_symmetry_multiplicity
_atom_site_Wyckoff_symbol
_atom_site_fract_x
_atom_site_fract_y
_atom_site_fract_z
_atom_site_B_iso_or_equiv
_atom_site_occupancy
_atom_site_attached_hydrogens
Li1 Li1+ 6 a 0 0 0.2796(4) . 0.937(2) 0
Zn1 Zn2+ 6 a 0 0 0.2796(4) 0.31 0.063(2) 0
Nb1 Nb5+ 6 a 0 0 0 . 0.979(1) 0
Zn2 Zn2+ 6 a 0 0 0 0.31 0.021(1) 0
O1 O2- 18 b 0.0480(2) 0.3426(4) 0.06349(9) . 1. 0
loop_
_atom_site_aniso_label
_atom_site_aniso_type_symbol
_atom_site_aniso_beta_11
_atom_site_aniso_beta_22
_atom_site_aniso_beta_33
_atom_site_aniso_beta_12
_atom_site_aniso_beta_13
_atom_site_aniso_beta_23
Li1 Li1+ 0.014(2) 0.014(2) 0.0030(4) 0.007(1) 0. 0.
Nb1 Nb5+ 0.0048(2) 0.0048(2) 0.00024(2) 0.0024(1) 0. 0.
O1 O2- 0.0096(5) 0.0058(4) 0.00082(3) 0.0051(5) -.0007(1) -.0006(1)
#End of TTdata_98123-ICSD