
#(C) 2018 by FIZ Karlsruhe - Leibniz Institute for Information Infrastructure.  All rights reserved.
data_99396-ICSD
_database_code_ICSD 99396
_audit_creation_date 2005-04-01
_audit_update_record 2007-08-01
_chemical_name_systematic 'Lithium lanthanum trioxotitanate (0.18/0.6/1)'
_chemical_formula_structural '(Li0.18 La0.119) La0.483 (Ti O3)'
_chemical_formula_sum 'La0.602 Li0.18 O3 Ti1'
_chemical_name_structure_type (Li,La)TiO3
_exptl_crystal_density_diffrn 5.17
_cell_measurement_temperature 100.
_publ_section_title

;
Structural changes produced during heating of the fast ion conductor Li0.18
La0.61 Ti O3. A neutron diffraction study
;
loop_
_citation_id
_citation_journal_full
_citation_year
_citation_journal_volume
_citation_page_first
_citation_page_last
_citation_journal_id_ASTM
primary 'Journal of Solid State Chemistry' 2004 177 1157 1164 JSSCBI
loop_
_publ_author_name
'Sanz, J.'
'Varez, A.'
'Alonso, J.A.'
'Fernandez, M.T.'
_cell_length_a 7.720(2)
_cell_length_b 7.739(2)
_cell_length_c 7.771(2)
_cell_angle_alpha 90
_cell_angle_beta 90
_cell_angle_gamma 90
_cell_volume 464.28
_cell_formula_units_Z 8
_symmetry_space_group_name_H-M 'C m m m'
_symmetry_Int_Tables_number 65
_refine_ls_R_factor_all 0.0267
loop_
_symmetry_equiv_pos_site_id
_symmetry_equiv_pos_as_xyz
1 'x, -y, z'
2 '-x, y, z'
3 'x, y, -z'
4 '-x, -y, -z'
5 '-x, y, -z'
6 'x, -y, -z'
7 '-x, -y, z'
8 'x, y, z'
9 'x+1/2, -y+1/2, z'
10 '-x+1/2, y+1/2, z'
11 'x+1/2, y+1/2, -z'
12 '-x+1/2, -y+1/2, -z'
13 '-x+1/2, y+1/2, -z'
14 'x+1/2, -y+1/2, -z'
15 '-x+1/2, -y+1/2, z'
16 'x+1/2, y+1/2, z'
loop_
_atom_type_symbol
_atom_type_oxidation_number
La3+ 3
Li1+ 1
Ti4+ 4
O2- -2
loop_
_atom_site_label
_atom_site_type_symbol
_atom_site_symmetry_multiplicity
_atom_site_Wyckoff_symbol
_atom_site_fract_x
_atom_site_fract_y
_atom_site_fract_z
_atom_site_B_iso_or_equiv
_atom_site_occupancy
_atom_site_attached_hydrogens
La1 La3+ 4 i 0 0.2557(3) 0 0.38(3) 0.965(6) 0
La2 La3+ 4 j 0 0.2620(15) 0.5 0.32(15) 0.238(5) 0
Li1 Li1+ 4 j 0 0.2620(15) 0.5 0.32(15) 0.36 0
Ti1 Ti4+ 8 o 0.2486(10) 0 0.2596(4) 0.41(3) 1. 0
O1 O2- 4 g 0.2715(5) 0 0 0.91(6) 1. 0
O2 O2- 4 k 0 0 0.2137(4) 0.66(6) 1. 0
O3 O2- 4 l 0 0.5 0.2613(4) 0.89(7) 1. 0
O4 O2- 8 m 0.25 0.25 0.2333(4) 1.03(4) 1. 0
O5 O2- 4 h 0.2311(6) 0 0.5 1.21(6) 1. 0
#End of TTdata_99396-ICSD