
#(C) 2019 by FIZ Karlsruhe - Leibniz Institute for Information Infrastructure.  All rights reserved.
data_100221-ICSD
_database_code_ICSD 100221
_audit_creation_date 1980-12-31
_audit_update_record 2019-02-01
_chemical_name_systematic 'Calcium sodium aluminium oxide (8.3/1.5/6/18)'
_chemical_formula_structural 'Ca8.25 Na1.5 (Al6 O18)'
_chemical_formula_sum 'Al6 Ca8.25 Na1.5 O18'
_chemical_name_structure_type Ca8+xNa1.5Al6O18
_exptl_crystal_density_diffrn 3.03
_publ_section_title

;
Crystal-chemical characterization of the (Ca O)3 * (Al2 O3) - (Na2 O)
solid-solution series
;
loop_
_citation_id
_citation_journal_full
_citation_year
_citation_journal_volume
_citation_page_first
_citation_page_last
_citation_journal_id_ASTM
primary 'Zeitschrift fuer Kristallographie' 1980 152 259 307 ZEKRDZ
loop_
_publ_author_name
'Takeuchi, Y.'
'Nishi, F.'
'Maki, I.'
_cell_length_a 10.877(6)
_cell_length_b 10.854(13)
_cell_length_c 15.135(13)
_cell_angle_alpha 90.
_cell_angle_beta 90.
_cell_angle_gamma 90.1(1)
_cell_volume 1786.82
_cell_formula_units_Z 4
_symmetry_space_group_name_H-M 'P 1 1 21/a'
_symmetry_Int_Tables_number 14
_refine_ls_R_factor_all 0.037
loop_
_symmetry_equiv_pos_site_id
_symmetry_equiv_pos_as_xyz
1 'x+1/2, y, -z+1/2'
2 '-x, -y, -z'
3 '-x+1/2, -y, z+1/2'
4 'x, y, z'
loop_
_atom_type_symbol
_atom_type_oxidation_number
Ca2+ 2
Na1+ 1
Ca2+ 2
Na1+ 1
Al3+ 3
O2- -2
loop_
_atom_site_label
_atom_site_type_symbol
_atom_site_symmetry_multiplicity
_atom_site_Wyckoff_symbol
_atom_site_fract_x
_atom_site_fract_y
_atom_site_fract_z
_atom_site_B_iso_or_equiv
_atom_site_occupancy
_atom_site_attached_hydrogens
Ca1 Ca2+ 4 e 0.0009(2) 0.0021(2) 0.5196(1) 1.17(1) 0.5 0
Ca2 Ca2+ 4 e 0.00079(8) 0.01849(8) 0.23822(7) 0.78(1) 1. 0
Ca3 Ca2+ 4 e 0.01190(8) 0.26769(8) 0.13253(7) 0.76(1) 1. 0
Ca4 Ca2+ 4 e 0.26248(9) 0.27015(9) 0.25230(6) 1.07(1) 1. 0
Ca5 Ca2+ 4 e 0.2610(1) 0.2460(1) 0.49889(8) 0.84(4) 0.803(4) 0
Na1 Na1+ 4 e 0.2610(1) 0.2460(1) 0.49889(8) 0.84(4) 0.197(4) 0
Ca6 Ca2+ 4 e 0.5024(2) 0.4979(3) 0.4838(1) 0.95(4) 0.5 0
Ca7 Ca2+ 4 e 0.49159(8) 0.48333(8) -.24018(7) 0.76(4) 1. 0
Ca8 Ca2+ 4 e 0.50547(8) 0.23286(8) -.13408(7) 0.79(4) 1. 0
Ca9 Ca2+ 4 e 0.74938(10) 0.22972(9) -.25329(6) 1.07(4) 1. 0
Ca10 Ca2+ 4 e 0.76290(13) 0.2524(1) -.4986(1) 1.23(4) 0.447(4) 0
Na2 Na1+ 4 e 0.76290(13) 0.2524(1) -.4986(1) 1.23(4) 0.553(4) 0
Na3 Na1+ 4 e 0.001(1) -.015(1) -.0099(6) 2.56(4) 0.375 0
Na4 Na1+ 4 e 0.5023(9) 0.5184(8) 0.0110(5) 2.72(4) 0.375 0
Al1 Al3+ 4 e -.0027(1) -.2155(1) 0.11637(9) 0.50(4) 1. 0
Al2 Al3+ 4 e 0.2403(1) -.0041(1) 0.11432(9) 0.60(4) 1. 0
Al3 Al3+ 4 e 0.2395(1) 0.0058(1) -.10741(9) 0.56(4) 1. 0
Al4 Al3+ 4 e 0.4944(1) 0.7137(1) -.11610(9) 0.53(4) 1. 0
Al5 Al3+ 4 e 0.7351(1) 0.5030(1) -.11134(9) 0.53(4) 1. 0
Al6 Al3+ 4 e 0.7442(1) 0.4950(1) 0.10988(9) 0.55(4) 1. 0
O1 O2- 4 e -.1380(4) -.1309(4) 0.1070(3) 1.88(4) 1. 0
O2 O2- 4 e 0.1172(3) -.1079(4) 0.1287(3) 1.81(4) 1. 0
O3 O2- 4 e 0.2864(3) -.0223(3) 0.0026(2) 1.12(4) 1. 0
O4 O2- 4 e -.0150(4) -.2877(4) 0.2174(2) 1.55(4) 1. 0
O5 O2- 4 e 0.0235(3) -.2941(3) 0.0174(2) 1.08(4) 1. 0
O6 O2- 4 e 0.3611(3) -.0703(3) 0.1727(3) 1.29(4) 1. 0
O7 O2- 4 e 0.1849(3) 0.1433(3) 0.1367(3) 1.54(4) 1. 0
O8 O2- 4 e 0.1617(3) -.1295(3) -.1379(2) 1.25(4) 1. 0
O9 O2- 4 e 0.3680(3) 0.0677(3) -.1604(2) 1.15(4) 1. 0
O10 O2- 4 e 0.3522(3) 0.6365(3) -.1118(3) 1.42(4) 1. 0
O11 O2- 4 e 0.6053(3) 0.5968(4) -.1242(3) 1.73(4) 1. 0
O12 O2- 4 e 0.7853(3) 0.5221(3) -.0013(2) 1.26(4) 1. 0
O13 O2- 4 e 0.4990(4) 0.7844(3) -.2184(2) 1.75(4) 1. 0
O14 O2- 4 e 0.5142(4) 0.7929(3) -.0173(2) 1.59(4) 1. 0
O15 O2- 4 e 0.8508(3) 0.5733(3) -.1727(2) 1.14(4) 1. 0
O16 O2- 4 e 0.6888(3) 0.3503(3) -.1297(2) 1.26(4) 1. 0
O17 O2- 4 e 0.6638(3) 0.6255(3) 0.1450(2) 1.06(4) 1. 0
O18 O2- 4 e 0.8760(3) 0.4337(3) 0.1591(2) 1.14(4) 1. 0
#End of TTdata_100221-ICSD