
#(C) 2019 by FIZ Karlsruhe - Leibniz Institute for Information Infrastructure.  All rights reserved.
data_100232-ICSD
_database_code_ICSD 100232
_audit_creation_date 1980-12-31
_audit_update_record 2015-02-01
_chemical_name_systematic 'Calcium sodium tecto-alumosilicate *'
_chemical_formula_structural 'Ca0.63 Na0.37 (Al1.63 Si2.37 O8)'
_chemical_formula_sum 'Al1.63 Ca0.63 Na0.37 O8 Si2.37'
_chemical_name_structure_type Feldspar#-(TC)-Albite-NaAlSi3O8
_chemical_name_mineral Labradorite
_exptl_crystal_density_diffrn 2.7
_publ_section_title 'The average structure of An 62-66 labradorite'
loop_
_citation_id
_citation_journal_full
_citation_year
_citation_journal_volume
_citation_page_first
_citation_page_last
_citation_journal_id_ASTM
primary 'American Mineralogist' 1980 65 81 95 AMMIAY
loop_
_publ_author_name
'Wenk, H.R.'
'Joswig, W.'
'Tagai, T.'
'Korekawa, M.'
'Smith, B.K.'
_cell_length_a 8.1736(5)
_cell_length_b 12.8736(5)
_cell_length_c 7.1022(2)
_cell_angle_alpha 93.462(6)
_cell_angle_beta 116.054(5)
_cell_angle_gamma 90.475(5)
_cell_volume 669.65
_cell_formula_units_Z 4
_symmetry_space_group_name_H-M 'C -1'
_symmetry_Int_Tables_number 2
_refine_ls_R_factor_all 0.038
loop_
_symmetry_equiv_pos_site_id
_symmetry_equiv_pos_as_xyz
1 '-x, -y, -z'
2 'x, y, z'
3 '-x+1/2, -y+1/2, -z'
4 'x+1/2, y+1/2, z'
loop_
_atom_type_symbol
_atom_type_oxidation_number
Ca2+ 2
Na1+ 1
Ca2+ 2
Na1+ 1
Si4+ 4
Al3+ 3
Si4+ 4
Al3+ 3
Si4+ 4
Al3+ 3
Si4+ 4
Al3+ 3
O2- -2
loop_
_atom_site_label
_atom_site_type_symbol
_atom_site_symmetry_multiplicity
_atom_site_Wyckoff_symbol
_atom_site_fract_x
_atom_site_fract_y
_atom_site_fract_z
_atom_site_B_iso_or_equiv
_atom_site_occupancy
_atom_site_attached_hydrogens
Ca1 Ca2+ 4 i 0.2665(3) 0.9862(5) 0.1649(7) . 0.315 0
Na1 Na1+ 4 i 0.2665(3) 0.9862(5) 0.1649(7) . 0.185 0
Ca2 Ca2+ 4 i 0.2723(2) 0.0306(2) 0.0952(4) . 0.315 0
Na2 Na1+ 4 i 0.2723(2) 0.0306(2) 0.0952(4) . 0.185 0
Si1 Si4+ 4 i 0.00632(10) 0.16304(5) 0.21518(10) . 0.593 0
Al1 Al3+ 4 i 0.00632(10) 0.16304(5) 0.21518(10) . 0.407 0
Si2 Si4+ 4 i 0.00264(10) 0.81626(5) 0.23099(10) . 0.593 0
Al2 Al3+ 4 i 0.00264(10) 0.81626(5) 0.23099(10) . 0.407 0
Si3 Si4+ 4 i 0.68589(10) 0.10882(5) 0.31775(11) . 0.593 0
Al3 Al3+ 4 i 0.68589(10) 0.10882(5) 0.31775(11) . 0.407 0
Si4 Si4+ 4 i 0.6810(1) 0.87870(5) 0.35715(10) . 0.593 0
Al4 Al3+ 4 i 0.6810(1) 0.87870(5) 0.35715(10) . 0.407 0
O1 O2- 4 i 0.0042(3) 0.1290(2) 0.9811(3) . 1. 0
O2 O2- 4 i 0.5798(3) 0.9914(1) 0.2789(3) . 1. 0
O3 O2- 4 i 0.8131(3) 0.1037(2) 0.1886(4) . 1. 0
O4 O2- 4 i 0.8156(3) 0.8532(2) 0.2435(4) . 1. 0
O5 O2- 4 i 0.0139(3) 0.2895(2) 0.2818(3) . 1. 0
O6 O2- 4 i 0.0125(3) 0.6869(2) 0.2133(3) . 1. 0
O7 O2- 4 i 0.1979(3) 0.1073(2) 0.3822(3) . 1. 0
O8 O2- 4 i 0.1900(3) 0.8661(2) 0.4292(3) . 1. 0
loop_
_atom_site_aniso_label
_atom_site_aniso_type_symbol
_atom_site_aniso_beta_11
_atom_site_aniso_beta_22
_atom_site_aniso_beta_33
_atom_site_aniso_beta_12
_atom_site_aniso_beta_13
_atom_site_aniso_beta_23
Ca1 Ca2+ 0.0047(3) 0.0095(4) 0.0156(8) -.0023(2) 0.0048(4) -.0074(5)
Na1 Na1+ 0.0047(3) 0.0095(4) 0.0156(8) -.0023(2) 0.0048(4) -.0074(5)
Ca2 Ca2+ 0.0034(2) 0.00276(10) 0.0087(4) 0.00127(10) 0.0011(2) -.00157(14)
Na2 Na1+ 0.0034(2) 0.00276(10) 0.0087(4) 0.00127(10) 0.0011(2) -.00157(14)
Si1 Si4+ 0.0033(3) 0.00120(8) 0.0042(3) -.00043(5) 0.00153(15) 0.00022(5)
Al1 Al3+ 0.0033(3) 0.00120(8) 0.0042(3) -.00043(5) 0.00153(15) 0.00022(5)
Si2 Si4+ 0.00342(14) 0.00126(4) 0.00389(17) 0.00090(5) 0.00145(11) 0.00020(5)
Al2 Al3+ 0.00342(14) 0.00126(4) 0.00389(17) 0.00090(5) 0.00145(11) 0.00020(5)
Si3 Si4+ 0.0030(3) 0.00091(8) 0.0062(3) 0.00024(5) 0.00144(16) 0.00013(5)
Al3 Al3+ 0.0030(3) 0.00091(8) 0.0062(3) 0.00024(5) 0.00144(16) 0.00013(5)
Si4 Si4+ 0.0025(3) 0.00070(9) 0.0049(4) 0.00017(5) 0.00128(16) 0.00043(5)
Al4 Al3+ 0.0025(3) 0.00070(9) 0.0049(4) 0.00017(5) 0.00128(16) 0.00043(5)
O1 O2- 0.0114(4) 0.00287(11) 0.0080(4) 0.00101(18) 0.0058(4) 0.00086(17)
O2 O2- 0.0043(3) 0.00146(9) 0.0099(4) 0.00017(13) 0.0026(3) 0.00079(15)
O3 O2- 0.0082(4) 0.00192(10) 0.0147(5) -.00041(16) 0.0067(4) -.00031(17)
O4 O2- 0.0082(4) 0.00269(12) 0.0212(6) 0.00081(7) 0.0079(4) -.0007(2)
O5 O2- 0.0072(4) 0.00242(11) 0.0122(5) -.00056(16) 0.0045(4) 0.00048(17)
O6 O2- 0.0074(4) 0.00244(11) 0.0097(4) 0.00181(16) 0.0021(3) -.0002(2)
O7 O2- 0.0070(4) 0.00226(10) 0.0086(4) 0.00060(15) 0.0015(3) 0.00055(16)
O8 O2- 0.0075(4) 0.00263(11) 0.0118(5) 0.00085(17) -.0001(4) -.00062(18)
#End of TTdata_100232-ICSD