
#(C) 2019 by FIZ Karlsruhe - Leibniz Institute for Information Infrastructure.  All rights reserved.
data_100283-ICSD
_database_code_ICSD 100283
_audit_creation_date 1980-12-31
_audit_update_record 2012-08-01
_chemical_name_systematic 'Calcium sodium tecto-alumosilicate *'
_chemical_formula_structural '(Ca0.64 Na0.32) ((Al1.775 Si2.275) O8)'
_chemical_formula_sum 'Al1.775 Ca0.64 Na0.32 O8 Si2.275'
_chemical_name_mineral 'Anorthite, sodian'
_exptl_crystal_density_diffrn 2.71
_publ_section_title

;
Bestimmung der Al:Si-Verteilung mittels Neutronenbeugung in einem Plagioklas
(An66)
;
loop_
_citation_id
_citation_journal_full
_citation_year
_citation_journal_volume
_citation_page_first
_citation_page_last
_citation_journal_id_ASTM
primary 'Zeitschrift fuer Kristallographie' 1980 151 77 89 ZEKRDZ
loop_
_publ_author_name
'Tagai, T.'
'Joswig, W.'
'Korekawa, M.'
'Wenk, H.R.'
_cell_length_a 8.175(1)
_cell_length_b 12.871(1)
_cell_length_c 14.203(1)
_cell_angle_alpha 93.46(1)
_cell_angle_beta 116.09(1)
_cell_angle_gamma 90.51(1)
_cell_volume 1338.67
_cell_formula_units_Z 8
_symmetry_space_group_name_H-M 'I -1'
_symmetry_Int_Tables_number 2
_refine_ls_R_factor_all 0.056
loop_
_symmetry_equiv_pos_site_id
_symmetry_equiv_pos_as_xyz
1 '-x, -y, -z'
2 'x, y, z'
3 '-x+1/2, -y+1/2, -z+1/2'
4 'x+1/2, y+1/2, z+1/2'
loop_
_atom_type_symbol
_atom_type_oxidation_number
Si4+ 4
Al3+ 3
Si4+ 4
Al3+ 3
Si4+ 4
Al3+ 3
Si4+ 4
Al3+ 3
Si4+ 4
Al3+ 3
Si4+ 4
Al3+ 3
Si4+ 4
Al3+ 3
O2- -2
Ca2+ 2
Na1+ 1
Ca2+ 2
Na1+ 1
Ca2+ 2
Na1+ 1
loop_
_atom_site_label
_atom_site_type_symbol
_atom_site_symmetry_multiplicity
_atom_site_Wyckoff_symbol
_atom_site_fract_x
_atom_site_fract_y
_atom_site_fract_z
_atom_site_B_iso_or_equiv
_atom_site_occupancy
_atom_site_attached_hydrogens
Si1 Si4+ 4 i 0.0069(8) 0.1602(4) 0.1047(4) . 0.86 0
Al1 Al3+ 4 i 0.0069(8) 0.1602(4) 0.1047(4) . 0.14 0
Si2 Si4+ 4 i 0.0038(8) 0.1656(5) 0.6115(5) . 0.1 0
Al2 Al3+ 4 i 0.0038(8) 0.1656(5) 0.6115(5) . 0.9 0
Si3 Si4+ 4 i 0.0007(8) 0.8149(5) 0.1193(5) . 0.25 0
Al3 Al3+ 4 i 0.0007(8) 0.8149(5) 0.1193(5) . 0.75 0
Si4 Si4+ 4 i 0.0043(8) 0.8172(4) 0.6116(4) . 1. 0
Si5 Si4+ 4 i 0.6903(8) 0.1118(5) 0.1579(5) . 0.2 0
Al4 Al3+ 4 i 0.6903(8) 0.1118(5) 0.1579(5) . 0.8 0
Si6 Si4+ 4 i 0.6785(8) 0.1050(4) 0.6587(4) . 0.92 0
Al5 Al3+ 4 i 0.6785(8) 0.1050(4) 0.6587(4) . 0.08 0
Si7 Si4+ 4 i 0.6759(8) 0.8817(5) 0.1809(5) . 0.81 0
Al6 Al3+ 4 i 0.6759(8) 0.8817(5) 0.1809(5) . 0.19 0
Si8 Si4+ 4 i 0.6844(8) 0.8751(5) 0.6764(5) . 0.31 0
Al7 Al3+ 4 i 0.6844(8) 0.8751(5) 0.6764(5) . 0.69 0
O1 O2- 4 i 0.0099(6) 0.1282(4) 0.9918(3) . 1. 0
O2 O2- 4 i 0.9957(7) 0.1297(4) 0.4876(3) . 1. 0
O3 O2- 4 i 0.5801(6) 0.9905(3) 0.1398(3) . 1. 0
O4 O2- 4 i 0.5782(6) 0.9922(3) 0.6384(3) . 1. 0
O5 O2- 4 i 0.8222(8) 0.1029(4) 0.0922(4) . 1. 0
O6 O2- 4 i 0.8025(8) 0.1033(4) 0.5958(4) . 1. 0
O7 O2- 4 i 0.8095(8) 0.8533(4) 0.1286(5) . 1. 0
O8 O2- 4 i 0.8226(8) 0.8541(4) 0.6163(5) . 1. 0
O9 O2- 4 i 0.0123(6) 0.2817(3) 0.1342(3) . 1. 0
O10 O2- 4 i 0.0157(6) 0.2964(3) 0.6476(3) . 1. 0
O11 O2- 4 i 0.0114(6) 0.6812(4) 0.1101(3) . 1. 0
O12 O2- 4 i 0.0113(6) 0.6929(3) 0.6024(3) . 1. 0
O13 O2- 4 i 0.1910(7) 0.1092(4) 0.1893(4) . 1. 0
O14 O2- 4 i 0.2031(7) 0.1040(4) 0.6925(3) . 1. 0
O15 O2- 4 i 0.1967(7) 0.8691(4) 0.2192(4) . 1. 0
O16 O2- 4 i 0.1845(7) 0.8624(4) 0.7116(4) . 1. 0
Ca1 Ca2+ 4 i 0.2697(10) 0.9756(9) 0.0882(8) . 0.32 0
Na1 Na1+ 4 i 0.2697(10) 0.9756(9) 0.0882(8) . 0.16 0
Ca2 Ca2+ 4 i 0.2725(11) 0.0321(9) 0.0494(9) . 0.32 0
Na2 Na1+ 4 i 0.2725(11) 0.0321(9) 0.0494(9) . 0.16 0
Ca3 Ca2+ 4 i 0.2676(9) 0.0238(7) 0.5532(7) . 0.64 0
Na3 Na1+ 4 i 0.2676(9) 0.0238(7) 0.5532(7) . 0.32 0
loop_
_atom_site_aniso_label
_atom_site_aniso_type_symbol
_atom_site_aniso_U_11
_atom_site_aniso_U_22
_atom_site_aniso_U_33
_atom_site_aniso_U_12
_atom_site_aniso_U_13
_atom_site_aniso_U_23
Si1 Si4+ 0.018(4) 0.019(4) 0.023(4) -.002(2) 0.005(2) 0.000(2)
Al1 Al3+ 0.018(4) 0.019(4) 0.023(4) -.002(2) 0.005(2) 0.000(2)
Si2 Si4+ 0.006(5) 0.006(5) 0.006(5) -.001(2) -.005(3) 0.000(2)
Al2 Al3+ 0.006(5) 0.006(5) 0.006(5) -.001(2) -.005(3) 0.000(2)
Si3 Si4+ 0.006(5) 0.007(5) 0.011(5) -.002(2) -.001(3) 0.002(2)
Al3 Al3+ 0.006(5) 0.007(5) 0.011(5) -.002(2) -.001(3) 0.002(2)
Si4 Si4+ 0.022(4) 0.025(4) 0.018(4) 0.005(2) 0.006(2) 0.001(2)
Si5 Si4+ 0.008(5) 0.004(4) 0.010(5) -.001(2) -.003(3) 0.001(2)
Al4 Al3+ 0.008(5) 0.004(4) 0.010(5) -.001(2) -.003(3) 0.001(2)
Si6 Si4+ 0.016(4) 0.015(4) 0.015(4) -.001(2) 0.006(2) -.001(2)
Al5 Al3+ 0.016(4) 0.015(4) 0.015(4) -.001(2) 0.006(2) -.001(2)
Si7 Si4+ 0.013(5) 0.009(4) 0.008(5) 0.002(2) 0.001(3) -.004(2)
Al6 Al3+ 0.013(5) 0.009(4) 0.008(5) 0.002(2) 0.001(3) -.004(2)
Si8 Si4+ 0.015(5) 0.011(4) 0.018(5) -.003(2) 0.000(3) -.002(2)
Al7 Al3+ 0.015(5) 0.011(4) 0.018(5) -.003(2) 0.000(3) -.002(2)
O1 O2- 0.027(3) 0.023(2) 0.014(2) 0.003(2) 0.006(2) 0.004(2)
O2 O2- 0.035(3) 0.029(2) 0.010(2) 0.005(2) 0.011(2) 0.005(2)
O3 O2- 0.017(2) 0.015(2) 0.019(2) -.001(2) 0.001(2) -.001(2)
O4 O2- 0.015(2) 0.017(2) 0.021(2) 0.000(2) 0.005(2) 0.001(2)
O5 O2- 0.023(2) 0.020(2) 0.026(2) -.001(2) -.010(2) -.004(2)
O6 O2- 0.018(2) 0.023(2) 0.032(2) -.007(2) 0.012(2) -.005(2)
O7 O2- 0.022(2) 0.027(2) 0.047(3) 0.003(2) 0.020(2) -.003(2)
O8 O2- 0.020(2) 0.027(2) 0.039(2) 0.001(2) 0.015(2) -.004(2)
O9 O2- 0.021(2) 0.018(2) 0.026(2) -.003(4) 0.009(2) 0.002(2)
O10 O2- 0.016(2) 0.020(2) 0.018(1) -.005(2) -.001(2) -.003(2)
O11 O2- 0.021(2) 0.022(2) 0.022(2) 0.009(2) 0.003(2) 0.004(2)
O12 O2- 0.023(2) 0.016(2) 0.020(2) 0.003(2) 0.004(2) -.001(1)
O13 O2- 0.020(2) 0.024(2) 0.024(2) 0.002(2) 0.001(2) 0.006(2)
O14 O2- 0.018(2) 0.021(2) 0.015(2) 0.006(2) -.009(2) 0.003(1)
O15 O2- 0.022(2) 0.022(2) 0.022(2) 0.003(2) -.005(2) -.005(2)
O16 O2- 0.019(2) 0.029(3) 0.020(2) 0.000(2) -.009(2) -.005(2)
Ca1 Ca2+ 0.016(10) 0.048(10) 0.046(6) -.006(6) 0.003(6) -.017(9)
Na1 Na1+ 0.016(10) 0.048(10) 0.046(6) -.006(6) 0.003(6) -.017(9)
Ca2 Ca2+ 0.014(9) 0.027(11) 0.021(8) 0.010(8) -.007(8) -.018(9)
Na2 Na1+ 0.014(9) 0.027(11) 0.021(8) 0.010(8) -.007(8) -.018(9)
Ca3 Ca2+ 0.020(5) 0.067(6) 0.054(6) 0.003(3) -.001(3) -.034(4)
Na3 Na1+ 0.020(5) 0.067(6) 0.054(6) 0.003(3) -.001(3) -.034(4)
#End of TTdata_100283-ICSD