
#(C) 2019 by FIZ Karlsruhe - Leibniz Institute for Information Infrastructure.  All rights reserved.
data_100235-ICSD
_database_code_ICSD 100235
_audit_creation_date 1980-12-31
_audit_update_record 2015-02-01
_chemical_name_systematic 'Calcium sodium tecto-alumosilicate *'
_chemical_formula_structural 'Ca0.65 Na0.35 (Al1.65 Si2.35 O8)'
_chemical_formula_sum 'Al1.65 Ca0.65 Na0.35 O8 Si2.35'
_chemical_name_structure_type Feldspar#-(TC)-Albite-NaAlSi3O8
_chemical_name_mineral Labradorite
_exptl_crystal_density_diffrn 2.71
_publ_section_title 'The average structure of An 62-66 labradorite'
loop_
_citation_id
_citation_journal_full
_citation_year
_citation_journal_volume
_citation_page_first
_citation_page_last
_citation_journal_id_ASTM
primary 'American Mineralogist' 1980 65 81 95 AMMIAY
loop_
_publ_author_name
'Wenk, H.R.'
'Joswig, W.'
'Tagai, T.'
'Korekawa, M.'
'Smith, B.K.'
_cell_length_a 8.1747(9)
_cell_length_b 12.8706(6)
_cell_length_c 7.1014(3)
_cell_angle_alpha 93.461(5)
_cell_angle_beta 116.086(5)
_cell_angle_gamma 90.514(6)
_cell_volume 669.3
_cell_formula_units_Z 4
_symmetry_space_group_name_H-M 'C -1'
_symmetry_Int_Tables_number 2
_refine_ls_R_factor_all 0.041
loop_
_symmetry_equiv_pos_site_id
_symmetry_equiv_pos_as_xyz
1 '-x, -y, -z'
2 'x, y, z'
3 '-x+1/2, -y+1/2, -z'
4 'x+1/2, y+1/2, z'
loop_
_atom_type_symbol
_atom_type_oxidation_number
Ca2+ 2
Na1+ 1
Ca2+ 2
Na1+ 1
Si4+ 4
Al3+ 3
Si4+ 4
Al3+ 3
Si4+ 4
Al3+ 3
Si4+ 4
Al3+ 3
O2- -2
loop_
_atom_site_label
_atom_site_type_symbol
_atom_site_symmetry_multiplicity
_atom_site_Wyckoff_symbol
_atom_site_fract_x
_atom_site_fract_y
_atom_site_fract_z
_atom_site_B_iso_or_equiv
_atom_site_occupancy
_atom_site_attached_hydrogens
Ca1 Ca2+ 4 i 0.269(1) 0.975(1) 0.176(1) . 0.325 0
Na1 Na1+ 4 i 0.269(1) 0.975(1) 0.176(1) . 0.175 0
Ca2 Ca2+ 4 i 0.273(2) 0.032(1) 0.098(1) . 0.325 0
Na2 Na1+ 4 i 0.273(2) 0.032(1) 0.098(1) . 0.175 0
Si1 Si4+ 4 i 0.0053(6) 0.1632(3) 0.2152(3) . 0.5875 0
Al1 Al3+ 4 i 0.0053(6) 0.1632(3) 0.2152(3) . 0.4125 0
Si2 Si4+ 4 i 0.0034(6) 0.8163(4) 0.2314(3) . 0.5875 0
Al2 Al3+ 4 i 0.0034(6) 0.8163(4) 0.2314(3) . 0.4125 0
Si3 Si4+ 4 i 0.6831(6) 0.1087(3) 0.3158(3) . 0.5875 0
Al3 Al3+ 4 i 0.6831(6) 0.1087(3) 0.3158(3) . 0.4125 0
Si4 Si4+ 4 i 0.6796(6) 0.8786(3) 0.3584(3) . 0.5875 0
Al4 Al3+ 4 i 0.6796(6) 0.8786(3) 0.3584(3) . 0.4125 0
O1 O2- 4 i 0.0029(4) 0.1279(2) 0.9794(2) . 1. 0
O2 O2- 4 i 0.5794(4) 0.9913(2) 0.2784(2) . 1. 0
O3 O2- 4 i 0.8123(5) 0.1030(3) 0.1882(3) . 1. 0
O4 O2- 4 i 0.8160(5) 0.8537(3) 0.2444(3) . 1. 0
O5 O2- 4 i 0.0145(4) 0.2869(3) 0.2823(3) . 1. 0
O6 O2- 4 i 0.0117(5) 0.6868(3) 0.2126(3) . 1. 0
O7 O2- 4 i 0.1974(4) 0.1065(2) 0.3822(3) . 1. 0
O8 O2- 4 i 0.1905(5) 0.8656(3) 0.4299(3) . 1. 0
loop_
_atom_site_aniso_label
_atom_site_aniso_type_symbol
_atom_site_aniso_beta_11
_atom_site_aniso_beta_22
_atom_site_aniso_beta_33
_atom_site_aniso_beta_12
_atom_site_aniso_beta_13
_atom_site_aniso_beta_23
Ca1 Ca2+ 0.0051(11) 0.0052(20) 0.0187(41) -.0010(8) 0.0008(12) -.0034(14)
Na1 Na1+ 0.0051(11) 0.0052(20) 0.0187(41) -.0010(8) 0.0008(12) -.0034(14)
Ca2 Ca2+ 0.0050(17) 0.0033(11) 0.0100(35) 0.0035(17) -.0031(15) -.0047(19)
Na2 Na1+ 0.0050(17) 0.0033(11) 0.0100(35) 0.0035(17) -.0031(15) -.0047(19)
Si1 Si4+ 0.0049(9) 0.0015(3) 0.0068(11) -.0004(4) 0.0000(8) 0.0003(5)
Al1 Al3+ 0.0049(9) 0.0015(3) 0.0068(11) -.0004(4) 0.0000(8) 0.0003(5)
Si2 Si4+ 0.0048(9) 0.0020(3) 0.0062(11) 0.0006(4) 0.0003(8) 0.0003(5)
Al2 Al3+ 0.0048(9) 0.0020(3) 0.0062(11) 0.0006(4) 0.0003(8) 0.0003(5)
Si3 Si4+ 0.0051(9) 0.0189(3) 0.0046(11) 0.0002(4) 0.0002(8) -.0002(4)
Al3 Al3+ 0.0051(9) 0.0189(3) 0.0046(11) 0.0002(4) 0.0002(8) -.0002(4)
Si4 Si4+ 0.0047(9) 0.0012(3) 0.0059(12) -.0005(5) -.0003(8) -.0001(4)
Al4 Al3+ 0.0047(9) 0.0012(3) 0.0059(12) -.0005(5) -.0003(8) -.0001(4)
O1 O2- 0.0119(7) 0.0029(2) 0.0060(9) 0.0005(3) 0.0039(6) 0.0010(3)
O2 O2- 0.0049(6) 0.0019(2) 0.0104(9) -.0001(3) 0.0017(6) 0.0002(3)
O3 O2- 0.0090(7) 0.0026(2) 0.0145(9) -.0006(3) 0.0039(7) -.0012(4)
O4 O2- 0.0086(8) 0.0031(3) 0.0268(11) 0.0006(3) 0.0059(8) -.0010(4)
O5 O2- 0.0071(7) 0.0028(2) 0.0128(9) -.0008(3) 0.0020(6) 0.0015(3)
O6 O2- 0.0086(7) 0.0039(2) 0.0117(9) 0.0017(3) 0.0022(6) 0.0000(3)
O7 O2- 0.0074(7) 0.0024(2) 0.0100(9) 0.0005(3) -.0013(6) 0.0010(3)
O8 O2- 0.0082(7) 0.0031(2) 0.011(1) 0.0007(3) -.0079(7) -.0009(4)
#End of TTdata_100235-ICSD