
#(C) 2019 by FIZ Karlsruhe - Leibniz Institute for Information Infrastructure.  All rights reserved.
data_100497-ICSD
_database_code_ICSD 100497
_audit_creation_date 1980-01-01
_audit_update_record 1999-06-02
_chemical_name_systematic 'Sodium tecto-alumotrisilicate'
_chemical_formula_structural 'Na Al Si3 O8'
_chemical_formula_sum 'Al1 Na1 O8 Si3'
_chemical_name_structure_type Feldspar#-(TC)-Albite-NaAlSi3O8
_chemical_name_mineral 'Albite high'
_exptl_crystal_density_diffrn 2.61
_publ_section_title

;
A high temperature structural study of high albite, monalbite, and the
analbite-monalbite phase transition
;
loop_
_citation_id
_citation_journal_full
_citation_year
_citation_journal_volume
_citation_page_first
_citation_page_last
_citation_journal_id_ASTM
primary 'American Mineralogist' 1979 64 409 423 AMMIAY
loop_
_publ_author_name
'Winter, J.K.'
'Okamura, F.P.'
'Ghose, S.'
_cell_length_a 8.161(1)
_cell_length_b 12.875(2)
_cell_length_c 7.110(1)
_cell_angle_alpha 93.53(1)
_cell_angle_beta 116.46(1)
_cell_angle_gamma 90.24(1)
_cell_volume 667.12
_cell_formula_units_Z 4
_symmetry_space_group_name_H-M 'C -1'
_symmetry_Int_Tables_number 2
_refine_ls_R_factor_all 0.02
loop_
_symmetry_equiv_pos_site_id
_symmetry_equiv_pos_as_xyz
1 '-x, -y, -z'
2 'x, y, z'
3 '-x+1/2, -y+1/2, -z'
4 'x+1/2, y+1/2, z'
loop_
_atom_type_symbol
_atom_type_oxidation_number
Na1+ 1
Si4+ 4
Al3+ 3
Si4+ 4
Al3+ 3
Si4+ 4
Al3+ 3
Si4+ 4
Al3+ 3
O2- -2
loop_
_atom_site_label
_atom_site_type_symbol
_atom_site_symmetry_multiplicity
_atom_site_Wyckoff_symbol
_atom_site_fract_x
_atom_site_fract_y
_atom_site_fract_z
_atom_site_B_iso_or_equiv
_atom_site_occupancy
_atom_site_attached_hydrogens
Na1 Na1+ 4 i 0.2716(4) 0.9852(3) 0.1639(5) . 0.5 0
Na2 Na1+ 4 i 0.2785(4) 0.0264(2) 0.1068(5) . 0.5 0
Si1 Si4+ 4 i 0.0090(1) 0.1649(1) 0.2147(1) . 0.75 0
Al1 Al3+ 4 i 0.0090(1) 0.1649(1) 0.2147(1) . 0.25 0
Si2 Si4+ 4 i 0.0048(1) 0.8146(1) 0.2289(1) . 0.75 0
Al2 Al3+ 4 i 0.0048(1) 0.8146(1) 0.2289(1) . 0.25 0
Si3 Si4+ 4 i 0.6904(1) 0.1080(1) 0.3202(1) . 0.75 0
Al3 Al3+ 4 i 0.6904(1) 0.1080(1) 0.3202(1) . 0.25 0
Si4 Si4+ 4 i 0.6849(1) 0.8776(1) 0.3537(1) . 0.75 0
Al4 Al3+ 4 i 0.6849(1) 0.8776(1) 0.3537(1) . 0.25 0
O1 O2- 4 i 0.0053(3) 0.1348(1) 0.9844(3) . 1. 0
O2 O2- 4 i 0.5917(2) 0.9908(1) 0.2787(3) . 1. 0
O3 O2- 4 i 0.8214(2) 0.1086(1) 0.1991(3) . 1. 0
O4 O2- 4 i 0.8188(3) 0.8472(2) 0.2456(3) . 1. 0
O5 O2- 4 i 0.0129(2) 0.2906(1) 0.2773(3) . 1. 0
O6 O2- 4 i 0.0217(2) 0.6872(1) 0.2184(3) . 1. 0
O7 O2- 4 i 0.1962(2) 0.1122(1) 0.3879(3) . 1. 0
O8 O2- 4 i 0.1884(2) 0.8674(1) 0.4267(3) . 1. 0
loop_
_atom_site_aniso_label
_atom_site_aniso_type_symbol
_atom_site_aniso_beta_11
_atom_site_aniso_beta_22
_atom_site_aniso_beta_33
_atom_site_aniso_beta_12
_atom_site_aniso_beta_13
_atom_site_aniso_beta_23
Na1 Na1+ 0.0086(4) 0.0086(3) 0.024(1) -.0031(3) 0.0076(5) -.0070(4)
Na2 Na1+ 0.0063(4) 0.0057(2) 0.0198(8) 0.0017(2) 0.0017(4) -.0035(3)
Si1 Si4+ 0.0043(1) 0.0014(1) 0.0048(1) -.0004(1) 0.0021(1) 0.0001(1)
Al1 Al3+ 0.0043(1) 0.0014(1) 0.0048(1) -.0004(1) 0.0021(1) 0.0001(1)
Si2 Si4+ 0.0041(1) 0.0015(1) 0.0047(1) 0.0004(1) 0.0020(1) 0.0003(1)
Al2 Al3+ 0.0041(1) 0.0015(1) 0.0047(1) 0.0004(1) 0.0020(1) 0.0003(1)
Si3 Si4+ 0.0038(1) 0.0012(1) 0.0059(1) -.0001(1) 0.0018(1) 0.0002(1)
Al3 Al3+ 0.0038(1) 0.0012(1) 0.0059(1) -.0001(1) 0.0018(1) 0.0002(1)
Si4 Si4+ 0.0039(1) 0.0011(1) 0.0059(1) 0.0001(1) 0.0019(1) 0.0003(1)
Al4 Al3+ 0.0039(1) 0.0011(1) 0.0059(1) 0.0001(1) 0.0019(1) 0.0003(1)
O1 O2- 0.0107(4) 0.0025(1) 0.0085(4) 0.0002(2) 0.0055(3) 0.0005(2)
O2 O2- 0.0056(3) 0.0017(1) 0.0102(4) -.0001(1) 0.0025(3) 0.0008(2)
O3 O2- 0.0078(3) 0.0025(1) 0.0132(5) -.0009(1) 0.0061(3) -.0004(2)
O4 O2- 0.0073(3) 0.0035(1) 0.0143(5) 0.0008(1) 0.0065(3) -.0002(2)
O5 O2- 0.0065(3) 0.0021(1) 0.0111(4) -.0003(1) 0.0036(3) -.0002(2)
O6 O2- 0.0067(3) 0.0021(1) 0.0099(4) 0.0008(1) 0.0020(3) 0.0002(2)
O7 O2- 0.0070(3) 0.0022(1) 0.0078(4) 0.0006(1) 0.0018(3) 0.0006(2)
O8 O2- 0.0070(3) 0.0026(1) 0.0083(4) -.0004(1) 0.0007(3) -.0005(2)
#End of TTdata_100497-ICSD