
#(C) 2019 by FIZ Karlsruhe - Leibniz Institute for Information Infrastructure.  All rights reserved.
data_100458-ICSD
_database_code_ICSD 100458
_audit_creation_date 1981-12-31
_audit_update_record 2006-04-01
_chemical_name_systematic 'Disodium sulfate(VI) - III'
_chemical_formula_structural 'Na2 (S O4)'
_chemical_formula_sum 'Na2 O4 S1'
_chemical_name_structure_type Na2CrO4
_exptl_crystal_density_diffrn 2.7
_publ_section_title 'The crystal structure of Na2 S O4 (III)'
loop_
_citation_id
_citation_journal_full
_citation_year
_citation_journal_volume
_citation_page_first
_citation_page_last
_citation_journal_id_ASTM
primary 'Zeitschrift fuer Kristallographie' 1981 155 159 163 ZEKRDZ
loop_
_publ_author_name
'Mehrotra, B.N.'
_cell_length_a 5.607(1)
_cell_length_b 8.955(2)
_cell_length_c 6.967(1)
_cell_angle_alpha 90.
_cell_angle_beta 90.
_cell_angle_gamma 90.
_cell_volume 349.82
_cell_formula_units_Z 4
_symmetry_space_group_name_H-M 'C m c m'
_symmetry_Int_Tables_number 63
_refine_ls_R_factor_all 0.045
loop_
_symmetry_equiv_pos_site_id
_symmetry_equiv_pos_as_xyz
1 '-x, y, -z+1/2'
2 '-x, -y, z+1/2'
3 '-x, y, z'
4 '-x, -y, -z'
5 'x, -y, z+1/2'
6 'x, y, -z+1/2'
7 'x, -y, -z'
8 'x, y, z'
9 '-x+1/2, y+1/2, -z+1/2'
10 '-x+1/2, -y+1/2, z+1/2'
11 '-x+1/2, y+1/2, z'
12 '-x+1/2, -y+1/2, -z'
13 'x+1/2, -y+1/2, z+1/2'
14 'x+1/2, y+1/2, -z+1/2'
15 'x+1/2, -y+1/2, -z'
16 'x+1/2, y+1/2, z'
loop_
_atom_type_symbol
_atom_type_oxidation_number
Na1+ 1
S6+ 6
O2- -2
loop_
_atom_site_label
_atom_site_type_symbol
_atom_site_symmetry_multiplicity
_atom_site_Wyckoff_symbol
_atom_site_fract_x
_atom_site_fract_y
_atom_site_fract_z
_atom_site_B_iso_or_equiv
_atom_site_occupancy
_atom_site_attached_hydrogens
Na1 Na1+ 4 c 0 0.1881(3) 0.25 . 1. 0
Na2 Na1+ 4 b 0 0.5 0 . 1. 0
S1 S6+ 4 c 0 0.8487(1) 0.25 . 1. 0
O1 O2- 8 g 0.2849(4) 0.4453(3) 0.25 . 1. 0
O2 O2- 8 f 0 0.2446(3) 0.5776(4) . 1. 0
loop_
_atom_site_aniso_label
_atom_site_aniso_type_symbol
_atom_site_aniso_beta_11
_atom_site_aniso_beta_22
_atom_site_aniso_beta_33
_atom_site_aniso_beta_12
_atom_site_aniso_beta_13
_atom_site_aniso_beta_23
Na1 Na1+ 0.0217(8) 0.0036(3) 0.0086(4) 0 0 0
Na2 Na1+ 0.0119(6) 0.0046(3) 0.0058(3) 0 0 0.0004(2)
S1 S6+ 0.0047(2) 0.0017(1) 0.0040(1) 0 0 0
O1 O2- 0.0088(8) 0.0049(3) 0.0076(4) 0.0034(4) 0 0
O2 O2- 0.0173(8) 0.0039(3) 0.0088(5) 0 0 0.0037(3)
#End of TTdata_100458-ICSD