
#(C) 2019 by FIZ Karlsruhe - Leibniz Institute for Information Infrastructure.  All rights reserved.
data_100508-ICSD
_database_code_ICSD 100508
_audit_creation_date 1980-01-01
_audit_update_record 1998-06-29
_chemical_name_systematic 'Sodium alumotrisilicate *'
_chemical_formula_structural 'Na (Al Si3 O8)'
_chemical_formula_sum 'Al1 Na1 O8 Si3'
_chemical_name_structure_type Feldspar#-(MO,C12/m1)-KAlSi3O8
_chemical_name_mineral Monalbite
_exptl_crystal_density_diffrn 2.52
_cell_measurement_temperature 1333.
_publ_section_title

;
A high temperature structural study of high albite, monalbite, and the
analbite-monalbite phase transition
;
loop_
_citation_id
_citation_journal_full
_citation_year
_citation_journal_volume
_citation_page_first
_citation_page_last
_citation_journal_id_ASTM
primary 'American Mineralogist' 1979 64 409 423 AMMIAY
loop_
_publ_author_name
'Winter, J.K.'
'Okamura, F.P.'
'Ghose, S.'
_cell_length_a 8.297(5)
_cell_length_b 12.994(6)
_cell_length_c 7.144(5)
_cell_angle_alpha 90.
_cell_angle_beta 116.01(4)
_cell_angle_gamma 90.
_cell_volume 692.2
_cell_formula_units_Z 4
_symmetry_space_group_name_H-M 'C 1 2/m 1'
_symmetry_Int_Tables_number 12
_refine_ls_R_factor_all 0.044
loop_
_symmetry_equiv_pos_site_id
_symmetry_equiv_pos_as_xyz
1 '-x, y, -z'
2 '-x, -y, -z'
3 'x, -y, z'
4 'x, y, z'
5 '-x+1/2, y+1/2, -z'
6 '-x+1/2, -y+1/2, -z'
7 'x+1/2, -y+1/2, z'
8 'x+1/2, y+1/2, z'
loop_
_atom_type_symbol
_atom_type_oxidation_number
Na1+ 1
Si4+ 4
Al3+ 3
Si4+ 4
Al3+ 3
O2- -2
loop_
_atom_site_label
_atom_site_type_symbol
_atom_site_symmetry_multiplicity
_atom_site_Wyckoff_symbol
_atom_site_fract_x
_atom_site_fract_y
_atom_site_fract_z
_atom_site_B_iso_or_equiv
_atom_site_occupancy
_atom_site_attached_hydrogens
Na1 Na1+ 4 i 0.2775(19) 0 0.1385(16) . 1. 0
Si1 Si4+ 8 j 0.0084(6) 0.1787(1) 0.2236(2) . 0.71 0
Al1 Al3+ 8 j 0.0084(6) 0.1787(1) 0.2236(2) . 0.29 0
Si2 Si4+ 8 j 0.6975(5) 0.1166(1) 0.3421(3) . 0.79 0
Al2 Al3+ 8 j 0.6975(5) 0.1166(1) 0.3421(3) . 0.21 0
O1 O2- 4 g 0 0.1411(5) 0 . 1. 0
O2 O2- 4 i 0.6126(17) 0 0.2852(10) . 1. 0
O3 O2- 8 j 0.8227(16) 0.1366(5) 0.2246(10) . 1. 0
O4 O2- 8 j 0.0294(15) 0.3049(3) 0.2537(8) . 1. 0
O5 O2- 8 j 0.1873(13) 0.1233(4) 0.4044(7) . 1. 0
loop_
_atom_site_aniso_label
_atom_site_aniso_type_symbol
_atom_site_aniso_beta_11
_atom_site_aniso_beta_22
_atom_site_aniso_beta_33
_atom_site_aniso_beta_12
_atom_site_aniso_beta_13
_atom_site_aniso_beta_23
Na1 Na1+ 0.058(10) 0.0275(13) 0.0787(39) 0 0.0077(44) 0
Si1 Si4+ 0.0219(21) 0.0042(7) 0.0148(3) -.0008(2) 0.0061(5) -.0002(1)
Al1 Al3+ 0.0219(21) 0.0042(7) 0.0148(3) -.0008(2) 0.0061(5) -.0002(1)
Si2 Si4+ 0.0194(17) 0.0034(6) 0.0195(3) -.0007(2) 0.0053(5) -.0003(1)
Al2 Al3+ 0.0194(17) 0.0034(6) 0.0195(3) -.0007(2) 0.0053(5) -.0003(1)
O1 O2- 0.0305(68) 0.0076(4) 0.0218(14) 0 0.0180(22) 0
O2 O2- 0.0281(62) 0.0038(2) 0.0315(18) 0 0.0092(22) 0
O3 O2- 0.0235(74) 0.0098(5) 0.0423(19) -.0063(12) 0.0174(25) 0.0015(7)
O4 O2- 0.0362(57) 0.0049(2) 0.0348(15) -.0017(7) 0.0109(19) -.0012(4)
O5 O2- 0.0256(52) 0.0085(3) 0.0231(10) 0.0018(8) 0.0028(16) 0.0023(5)
#End of TTdata_100508-ICSD