
#(C) 2019 by FIZ Karlsruhe - Leibniz Institute for Information Infrastructure.  All rights reserved.
data_100558-ICSD
_database_code_ICSD 100558
_audit_creation_date 1980-01-01
_audit_update_record 2005-10-01
_chemical_name_systematic
'Potassium sodium tecto-alumotrisilicate (0.22/0.78/1)'
_chemical_formula_structural '(K0.22 Na0.78) Al Si3 O8'
_chemical_formula_sum 'Al1 K0.22 Na0.78 O8 Si3'
_chemical_name_structure_type Feldspar#-(TC)-Albite-NaAlSi3O8
_chemical_name_mineral 'Albite high (K-bearing)'
_exptl_crystal_density_diffrn 2.61
_publ_section_title

;
Crystal structure and composition of Sanidine and High Albite in
cryptoperthitic intergrowth
;
loop_
_citation_id
_citation_journal_full
_citation_year
_citation_journal_volume
_citation_page_first
_citation_page_last
_citation_journal_id_ASTM
primary 'American Mineralogist' 1978 63 1264 1273 AMMIAY
loop_
_publ_author_name
'Keefer, K.D.'
'Brown, G.E.'
_cell_length_a 8.144(2)
_cell_length_b 12.989(3)
_cell_length_c 7.160(2)
_cell_angle_alpha 92.10(2)
_cell_angle_beta 116.56(2)
_cell_angle_gamma 90.21(2)
_cell_volume 676.85
_cell_formula_units_Z 4
_symmetry_space_group_name_H-M 'C -1'
_symmetry_Int_Tables_number 2
_refine_ls_R_factor_all 0.083
loop_
_symmetry_equiv_pos_site_id
_symmetry_equiv_pos_as_xyz
1 '-x, -y, -z'
2 'x, y, z'
3 '-x+1/2, -y+1/2, -z'
4 'x+1/2, y+1/2, z'
loop_
_atom_type_symbol
_atom_type_oxidation_number
K1+ 1
Na1+ 1
Si4+ 4
Al3+ 3
Si4+ 4
Al3+ 3
Si4+ 4
Al3+ 3
Si4+ 4
Al3+ 3
O2- -2
loop_
_atom_site_label
_atom_site_type_symbol
_atom_site_symmetry_multiplicity
_atom_site_Wyckoff_symbol
_atom_site_fract_x
_atom_site_fract_y
_atom_site_fract_z
_atom_site_B_iso_or_equiv
_atom_site_occupancy
_atom_site_attached_hydrogens
K1 K1+ 4 i 0.2690(4) 0.0048(5) 0.1319(8) . 0.22(5) 0
Na1 Na1+ 4 i 0.2690(4) 0.0048(5) 0.1319(8) . 0.78(5) 0
Si1 Si4+ 4 i 0.0078(2) 0.1694(1) 0.2182(2) . 0.75 0
Al1 Al3+ 4 i 0.0078(2) 0.1694(1) 0.2182(2) . 0.25 0
Si2 Si4+ 4 i 0.0057(2) 0.8175(1) 0.2261(2) . 0.75 0
Al2 Al3+ 4 i 0.0057(2) 0.8175(1) 0.2261(2) . 0.25 0
Si3 Si4+ 4 i 0.6893(2) 0.1104(1) 0.3287(2) . 0.75 0
Al3 Al3+ 4 i 0.6893(2) 0.1104(1) 0.3287(2) . 0.25 0
Si4 Si4+ 4 i 0.6857(2) 0.8802(1) 0.3484(2) . 0.75 0
Al4 Al3+ 4 i 0.6857(2) 0.8802(1) 0.3484(2) . 0.25 0
O1 O2- 4 i 0.0035(7) 0.1359(3) 0.9914(8) . 1. 0
O2 O2- 4 i 0.5913(5) 0.9943(3) 0.2821(6) . 1. 0
O3 O2- 4 i 0.8216(6) 0.1145(4) 0.2108(8) . 1. 0
O4 O2- 4 i 0.8184(6) 0.8552(4) 0.2378(8) . 1. 0
O5 O2- 4 i 0.0152(6) 0.2959(3) 0.2658(7) . 1. 0
O6 O2- 4 i 0.0202(6) 0.6893(3) 0.2329(7) . 1. 0
O7 O2- 4 i 0.1965(6) 0.1168(3) 0.3950(7) . 1. 0
O8 O2- 4 i 0.1918(6) 0.8710(3) 0.4190(7) . 1. 0
loop_
_atom_site_aniso_label
_atom_site_aniso_type_symbol
_atom_site_aniso_beta_11
_atom_site_aniso_beta_22
_atom_site_aniso_beta_33
_atom_site_aniso_beta_12
_atom_site_aniso_beta_13
_atom_site_aniso_beta_23
K1 K1+ 0.0101(4) 0.0143(4) 0.0357(12) 0.0009(3) 0.0026(5) -.0113(6)
Na1 Na1+ 0.0101(4) 0.0143(4) 0.0357(12) 0.0009(3) 0.0026(5) -.0113(6)
Si1 Si4+ 0.0063(2) 0.0030(1) 0.0036(3) -.0002(1) 0.0023(2) 0.0000(1)
Al1 Al3+ 0.0063(2) 0.0030(1) 0.0036(3) -.0002(1) 0.0023(2) 0.0000(1)
Si2 Si4+ 0.0059(2) 0.0030(1) 0.0036(3) 0.0006(1) 0.0017(2) 0.0005(1)
Al2 Al3+ 0.0059(2) 0.0030(1) 0.0036(3) 0.0006(1) 0.0017(2) 0.0005(1)
Si3 Si4+ 0.0050(2) 0.0029(1) 0.0050(3) 0.0000(1) 0.0012(2) 0.0003(1)
Al3 Al3+ 0.0050(2) 0.0029(1) 0.0050(3) 0.0000(1) 0.0012(2) 0.0003(1)
Si4 Si4+ 0.0051(2) 0.0029(1) 0.0045(3) 0.0003(1) 0.0013(2) 0.0003(1)
Al4 Al3+ 0.0051(2) 0.0029(1) 0.0045(3) 0.0003(1) 0.0013(2) 0.0003(1)
O1 O2- 0.0125(6) 0.0042(2) 0.0088(8) -.0001(3) 0.0059(5) -.0003(3)
O2 O2- 0.0071(5) 0.0035(2) 0.0091(7) -.0002(2) 0.0026(4) 0.0001(3)
O3 O2- 0.0081(6) 0.0054(3) 0.0154(11) -.0011(3) 0.0074(7) -.0003(4)
O4 O2- 0.0089(6) 0.0061(3) 0.0122(10) 0.0013(3) 0.0048(6) -.0001(4)
O5 O2- 0.0090(6) 0.0040(2) 0.0097(9) -.0010(3) 0.0032(6) -.0004(3)
O6 O2- 0.0089(6) 0.0034(2) 0.0096(9) 0.0010(3) 0.0015(5) 0.0006(3)
O7 O2- 0.0091(6) 0.0040(2) 0.0077(9) 0.0009(3) 0.0018(5) 0.0008(3)
O8 O2- 0.0100(6) 0.0039(2) 0.0069(8) -.0004(3) -.0010(5) -.0006(3)
#End of TTdata_100558-ICSD