
#(C) 2019 by FIZ Karlsruhe - Leibniz Institute for Information Infrastructure.  All rights reserved.
data_100503-ICSD
_database_code_ICSD 100503
_audit_creation_date 1980-01-01
_audit_update_record 1999-06-02
_chemical_name_systematic 'Sodium tecto-alumotrisilicate'
_chemical_formula_structural 'Na Al Si3 O8'
_chemical_formula_sum 'Al1 Na1 O8 Si3'
_chemical_name_structure_type Feldspar#-(TC)-Albite-NaAlSi3O8
_chemical_name_mineral 'Albite high'
_exptl_crystal_density_diffrn 2.53
_cell_measurement_temperature 1253.
_publ_section_title

;
A high temperature structural study of high albite, monalbite, and the
analbite-monalbite phase transition
;
loop_
_citation_id
_citation_journal_full
_citation_year
_citation_journal_volume
_citation_page_first
_citation_page_last
_citation_journal_id_ASTM
primary 'American Mineralogist' 1979 64 409 423 AMMIAY
loop_
_publ_author_name
'Winter, J.K.'
'Okamura, F.P.'
'Ghose, S.'
_cell_length_a 8.259(1)
_cell_length_b 12.975(3)
_cell_length_c 7.151(2)
_cell_angle_alpha 90.81(2)
_cell_angle_beta 116.08(2)
_cell_angle_gamma 89.99(2)
_cell_volume 688.2
_cell_formula_units_Z 4
_symmetry_space_group_name_H-M 'C -1'
_symmetry_Int_Tables_number 2
_refine_ls_R_factor_all 0.03
loop_
_symmetry_equiv_pos_site_id
_symmetry_equiv_pos_as_xyz
1 '-x, -y, -z'
2 'x, y, z'
3 '-x+1/2, -y+1/2, -z'
4 'x+1/2, y+1/2, z'
loop_
_atom_type_symbol
_atom_type_oxidation_number
Na1+ 1
Si4+ 4
Al3+ 3
Si4+ 4
Al3+ 3
Si4+ 4
Al3+ 3
Si4+ 4
Al3+ 3
O2- -2
Na1+ 1
loop_
_atom_site_label
_atom_site_type_symbol
_atom_site_symmetry_multiplicity
_atom_site_Wyckoff_symbol
_atom_site_fract_x
_atom_site_fract_y
_atom_site_fract_z
_atom_site_B_iso_or_equiv
_atom_site_occupancy
_atom_site_attached_hydrogens
Na1 Na1+ 4 i 0.2730(15) 0.9827(9) 0.1523(23) . 0.5 0
Si1 Si4+ 4 i 0.0082(1) 0.1757(1) 0.2217(1) . 0.75 0
Al1 Al3+ 4 i 0.0082(1) 0.1757(1) 0.2217(1) . 0.25 0
Si2 Si4+ 4 i 0.0074(1) 0.8199(1) 0.2245(1) . 0.75 0
Al2 Al3+ 4 i 0.0074(1) 0.8199(1) 0.2245(1) . 0.25 0
Si3 Si4+ 4 i 0.6952(1) 0.1146(1) 0.3382(1) . 0.75 0
Al3 Al3+ 4 i 0.6952(1) 0.1146(1) 0.3382(1) . 0.25 0
Si4 Si4+ 4 i 0.6944(1) 0.8824(1) 0.3448(1) . 0.75 0
Al4 Al3+ 4 i 0.6944(1) 0.8824(1) 0.3448(1) . 0.25 0
O1 O2- 4 i 0.0007(4) 0.1390(2) 0.9970(4) . 1. 0
O2 O2- 4 i 0.6051(3) 0.9982(2) 0.2843(4) . 1. 0
O3 O2- 4 i 0.8231(3) 0.1302(2) 0.2199(5) . 1. 0
O4 O2- 4 i 0.8233(1) 0.8608(3) 0.2293(5) . 1. 0
O5 O2- 4 i 0.0243(3) 0.3012(2) 0.2596(4) . 1. 0
O6 O2- 4 i 0.0248(3) 0.6943(2) 0.2477(4) . 1. 0
O7 O2- 4 i 0.1894(3) 0.1211(2) 0.4022(4) . 1. 0
O8 O2- 4 i 0.1881(3) 0.8741(2) 0.4095(4) . 1. 0
Na2 Na1+ 4 i 0.2874(11) 0.2111(8) 0.1252(24) . 0.5 0
loop_
_atom_site_aniso_label
_atom_site_aniso_type_symbol
_atom_site_aniso_beta_11
_atom_site_aniso_beta_22
_atom_site_aniso_beta_33
_atom_site_aniso_beta_12
_atom_site_aniso_beta_13
_atom_site_aniso_beta_23
Na1 Na1+ 0.0277(13) 0.0176(9) 0.0654(30) -.0092(9) 0.0178(15) -.0036(13)
Si1 Si4+ 0.0108(1) 0.0039(1) 0.0116(2) -.0008(1) 0.0051(1) 0.0001(1)
Al1 Al3+ 0.0108(1) 0.0039(1) 0.0116(2) -.0008(1) 0.0051(1) 0.0001(1)
Si2 Si4+ 0.0108(1) 0.0039(1) 0.0116(2) 0.0012(1) 0.0052(1) 0.0004(1)
Al2 Al3+ 0.0108(1) 0.0039(1) 0.0116(2) 0.0012(1) 0.0052(1) 0.0004(1)
Si3 Si4+ 0.0098(1) 0.0031(1) 0.0150(2) -.0003(1) 0.0045(1) 0.0002(1)
Al3 Al3+ 0.0098(1) 0.0031(1) 0.0150(2) -.0003(1) 0.0045(1) 0.0002(1)
Si4 Si4+ 0.0098(1) 0.0032(1) 0.0148(2) 0.0006(1) 0.0047(1) 0.0005(4)
Al4 Al3+ 0.0098(1) 0.0032(1) 0.0148(2) 0.0006(1) 0.0047(1) 0.0005(4)
O1 O2- 0.0266(6) 0.0072(2) 0.0172(6) 0.0005(3) 0.0120(5) 0.0004(3)
O2 O2- 0.0134(4) 0.0036(1) 0.0243(6) 0.0002(2) 0.0046(4) 0.0005(2)
O3 O2- 0.0178(5) 0.0087(2) 0.0331(8) -.0029(3) 0.0146(6) -.0006(3)
O4 O2- 0.0182(6) 0.0093(2) 0.0339(7) 0.0034(3) 0.0155(6) -.0003(3)
O5 O2- 0.0161(5) 0.0046(1) 0.0294(7) -.0012(2) 0.0079(5) -.0008(2)
O6 O2- 0.0160(5) 0.0046(1) 0.0294(7) 0.0018(2) 0.0067(5) 0.0010(2)
O7 O2- 0.0182(6) 0.0074(2) 0.0177(6) 0.0020(2) 0.0023(4) 0.0016(3)
O8 O2- 0.0188(6) 0.0074(2) 0.0179(6) -.0018(2) 0.0012(4) -.0016(3)
Na2 Na1+ 0.0176(12) 0.0179(10) 0.0733(29) 0.0027(9) 0.0103(15) 0.0043(14)
#End of TTdata_100503-ICSD