
#(C) 2019 by FIZ Karlsruhe - Leibniz Institute for Information Infrastructure.  All rights reserved.
data_100506-ICSD
_database_code_ICSD 100506
_audit_creation_date 1980-01-01
_audit_update_record 1998-06-29
_chemical_name_systematic 'Sodium alumotrisilicate *'
_chemical_formula_structural 'Na (Al Si3 O8)'
_chemical_formula_sum 'Al1 Na1 O8 Si3'
_chemical_name_structure_type Feldspar#-(MO,C12/m1)-KAlSi3O8
_chemical_name_mineral 'Monalbite (annealed at 1373K for 133d)'
_exptl_crystal_density_diffrn 2.53
_cell_measurement_temperature 1253.
_publ_section_title

;
A high temperature structural study of high albite, monalbite, and the
analbite-monalbite phase transition
;
loop_
_citation_id
_citation_journal_full
_citation_year
_citation_journal_volume
_citation_page_first
_citation_page_last
_citation_journal_id_ASTM
primary 'American Mineralogist' 1979 64 409 423 AMMIAY
loop_
_publ_author_name
'Winter, J.K.'
'Okamura, F.P.'
'Ghose, S.'
_cell_length_a 8.274(5)
_cell_length_b 12.991(6)
_cell_length_c 7.144(4)
_cell_angle_alpha 90.
_cell_angle_beta 116.13(4)
_cell_angle_gamma 90.
_cell_volume 689.41
_cell_formula_units_Z 4
_symmetry_space_group_name_H-M 'C 1 2/m 1'
_symmetry_Int_Tables_number 12
_refine_ls_R_factor_all 0.04
loop_
_symmetry_equiv_pos_site_id
_symmetry_equiv_pos_as_xyz
1 '-x, y, -z'
2 '-x, -y, -z'
3 'x, -y, z'
4 'x, y, z'
5 '-x+1/2, y+1/2, -z'
6 '-x+1/2, -y+1/2, -z'
7 'x+1/2, -y+1/2, z'
8 'x+1/2, y+1/2, z'
loop_
_atom_type_symbol
_atom_type_oxidation_number
Na1+ 1
Si4+ 4
Al3+ 3
Si4+ 4
Al3+ 3
O2- -2
loop_
_atom_site_label
_atom_site_type_symbol
_atom_site_symmetry_multiplicity
_atom_site_Wyckoff_symbol
_atom_site_fract_x
_atom_site_fract_y
_atom_site_fract_z
_atom_site_B_iso_or_equiv
_atom_site_occupancy
_atom_site_attached_hydrogens
Na1 Na1+ 4 i 0.2789(6) 0 0.1378(9) . 1. 0
Si1 Si4+ 8 j 0.0081(1) 0.1784(1) 0.2233(1) . 0.72 0
Al1 Al3+ 8 j 0.0081(1) 0.1784(1) 0.2233(1) . 0.28 0
Si2 Si4+ 8 j 0.6959(1) 0.1163(1) 0.3420(1) . 0.78 0
Al2 Al3+ 8 j 0.6959(1) 0.1163(1) 0.3420(1) . 0.22 0
O1 O2- 4 g 0 0.1393(3) 0 . 1. 0
O2 O2- 4 i 0.6063(5) 0 0.2835(6) . 1. 0
O3 O2- 8 j 0.8233(4) 0.1350(3) 0.2252(5) . 1. 0
O4 O2- 8 j 0.0257(4) 0.3044(2) 0.2535(5) . 1. 0
O5 O2- 8 j 0.1891(4) 0.1229(3) 0.4049(4) . 1. 0
loop_
_atom_site_aniso_label
_atom_site_aniso_type_symbol
_atom_site_aniso_beta_11
_atom_site_aniso_beta_22
_atom_site_aniso_beta_33
_atom_site_aniso_beta_12
_atom_site_aniso_beta_13
_atom_site_aniso_beta_23
Na1 Na1+ 0.0244(9) 0.0261(9) 0.0775(32) 0 0.0112(12) 0
Si1 Si4+ 0.0113(1) 0.0042(1) 0.0127(1) -.0011(1) 0.0053(1) -.0002(1)
Al1 Al3+ 0.0113(1) 0.0042(1) 0.0127(1) -.0011(1) 0.0053(1) -.0002(1)
Si2 Si4+ 0.0104(1) 0.0035(1) 0.0159(2) -.0005(1) 0.0047(1) -.0002(1)
Al2 Al3+ 0.0104(1) 0.0035(1) 0.0159(2) -.0005(1) 0.0047(1) -.0002(1)
O1 O2- 0.0286(10) 0.0072(3) 0.0180(8) 0 0.0123(7) 0
O2 O2- 0.0142(6) 0.0038(1) 0.0262(9) 0 0.0052(6) 0
O3 O2- 0.0183(5) 0.0101(3) 0.0371(9) -.0036(3) 0.0163(6) 0.0002(4)
O4 O2- 0.0176(5) 0.0048(1) 0.0330(8) -.0019(2) 0.0085(5) -.0013(3)
O5 O2- 0.0193(5) 0.0085(2) 0.0184(5) 0.0024(3) 0.0021(4) 0.0024(3)
#End of TTdata_100506-ICSD