
#(C) 2019 by FIZ Karlsruhe - Leibniz Institute for Information Infrastructure.  All rights reserved.
data_100867-ICSD
_database_code_ICSD 100867
_audit_creation_date 1981-12-31
_audit_update_record 2000-07-15
_chemical_name_systematic 'Sodium calcium alumosilicate *'
_chemical_formula_structural 'Na0.622 Ca0.368 Al1.29 Si2.71 O8'
_chemical_formula_sum 'Al1.29 Ca0.368 Na0.622 O8 Si2.71'
_chemical_name_structure_type Feldspar#-(TC)-Albite-NaAlSi3O8
_chemical_name_mineral Andesine
_exptl_crystal_density_diffrn 2.66
_publ_section_title
'Modulated structure of a plagioclase An52: Theory and structure determination'
loop_
_citation_id
_citation_journal_full
_citation_year
_citation_journal_volume
_citation_page_first
_citation_page_last
_citation_journal_id_ASTM
primary 'Zeitschrift fuer Kristallographie' 1981 157 233 250 ZEKRDZ
loop_
_publ_author_name
'Horst, W.'
'Tagai, T.'
'Korekawa, M.'
'Jagodzinski, H.'
_cell_length_a 8.178(1)
_cell_length_b 12.865(1)
_cell_length_c 7.109(1)
_cell_angle_alpha 93.53(1)
_cell_angle_beta 116.21(1)
_cell_angle_gamma 89.92(1)
_cell_volume 669.48
_cell_formula_units_Z 4
_symmetry_space_group_name_H-M 'C -1'
_symmetry_Int_Tables_number 2
_refine_ls_R_factor_all 0.08
loop_
_symmetry_equiv_pos_site_id
_symmetry_equiv_pos_as_xyz
1 '-x, -y, -z'
2 'x, y, z'
3 '-x+1/2, -y+1/2, -z'
4 'x+1/2, y+1/2, z'
loop_
_atom_type_symbol
_atom_type_oxidation_number
Ca2+ 2
Na1+ 1
Si4+ 4
Al3+ 3
Si4+ 4
Al3+ 3
Si4+ 4
Al3+ 3
Si4+ 4
Al3+ 3
O2- -2
loop_
_atom_site_label
_atom_site_type_symbol
_atom_site_symmetry_multiplicity
_atom_site_Wyckoff_symbol
_atom_site_fract_x
_atom_site_fract_y
_atom_site_fract_z
_atom_site_B_iso_or_equiv
_atom_site_occupancy
_atom_site_attached_hydrogens
Ca1 Ca2+ 4 i 0.2718(8) 0.0279(4) 0.0981(9) . 0.368 0
Na1 Na1+ 4 i 0.2683(5) 0.9889(4) 0.1599(7) . 0.622 0
Si1 Si4+ 4 i 0.0070(3) 0.1648(1) 0.2125(5) . 0.58 0
Al1 Al3+ 4 i 0.0070(3) 0.1648(1) 0.2125(5) . 0.42 0
Si2 Si4+ 4 i 0.6871(3) 0.1096(2) 0.3164(3) . 0.73 0
Al2 Al3+ 4 i 0.6871(3) 0.1096(2) 0.3164(3) . 0.27 0
Si3 Si4+ 4 i 0.0032(3) 0.8178(1) 0.2331(3) . 0.6 0
Al3 Al3+ 4 i 0.0032(3) 0.8178(1) 0.2331(3) . 0.4 0
Si4 Si4+ 4 i 0.6810(3) 0.8798(2) 0.3567(3) . 0.8 0
Al4 Al3+ 4 i 0.6810(3) 0.8798(2) 0.3567(3) . 0.2 0
O1 O2- 4 i 0.0015(1) 0.1284(7) 0.9843(1) . 1. 0
O2 O2- 4 i 0.5853(7) 0.9938(5) 0.2792(9) . 1. 0
O3 O2- 4 i 0.8148(8) 0.1066(4) 0.1903(9) . 1. 0
O4 O2- 4 i 0.8161(9) 0.8542(5) 0.250(1) . 1. 0
O5 O2- 4 i 0.0139(7) 0.2922(4) 0.2756(8) . 1. 0
O6 O2- 4 i 0.0147(8) 0.6888(4) 0.2194(9) . 1. 0
O7 O2- 4 i 0.1976(7) 0.1074(4) 0.3817(7) . 1. 0
O8 O2- 4 i 0.1899(9) 0.8671(4) 0.4308(9) . 1. 0
loop_
_atom_site_aniso_label
_atom_site_aniso_type_symbol
_atom_site_aniso_beta_11
_atom_site_aniso_beta_22
_atom_site_aniso_beta_33
_atom_site_aniso_beta_12
_atom_site_aniso_beta_13
_atom_site_aniso_beta_23
Ca1 Ca2+ 0.0064(10) 0.0004(3) 0.0106(13) 0.0015(4) -.0008(9) -.0004(4)
Na1 Na1+ 0.0016(6) 0.0072(4) 0.0210(12) 0.0005(3) -.0016(7) -.0112(4)
Si1 Si4+ 0.0052(3) 0.0005(1) 0.0029(4) 0.0001(1) 0.0007(3) 0.0001(1)
Al1 Al3+ 0.0052(3) 0.0005(1) 0.0029(4) 0.0001(1) 0.0007(3) 0.0001(1)
Si2 Si4+ 0.0061(4) 0.0029(1) 0.0065(5) 0.0009(2) 0.0012(3) -.0004(2)
Al2 Al3+ 0.0061(4) 0.0029(1) 0.0065(5) 0.0009(2) 0.0012(3) -.0004(2)
Si3 Si4+ 0.0068(4) 0.0003(1) 0.0028(4) 0.0006(1) 0.0004(1) 0.0003(1)
Al3 Al3+ 0.0068(4) 0.0003(1) 0.0028(4) 0.0006(1) 0.0004(1) 0.0003(1)
Si4 Si4+ 0.0055(4) 0.0034(2) 0.0063(5) -.0008(2) 0.0014(4) 0.0004(4)
Al4 Al3+ 0.0055(4) 0.0034(2) 0.0063(5) -.0008(2) 0.0014(4) 0.0004(4)
O1 O2- 0.0147(16) 0.0102(7) 0.0093(15) 0.0054(9) -.0009(13) 0.0027(8)
O2 O2- 0.0034(9) 0.0038(4) 0.0139(15) -.0010(5) 0.0005(10) 0.0001(6)
O3 O2- 0.0078(10) 0.0022(3) 0.0118(13) 0.0012(5) 0.0051(10) 0.0009(5)
O4 O2- 0.0100(12) 0.0040(4) 0.0164(16) -.0019(6) 0.0013(12) -.0007(6)
O5 O2- 0.0035(8) 0.0024(3) 0.0068(11) 0.0009(4) 0.0016(8) 0.0007(5)
O6 O2- 0.0041(9) 0.0018(3) 0.0158(15) 0.0002(4) -.0044(10) -.0010(5)
O7 O2- 0.0068(9) 0.0010(3) 0.0049(10) 0.0002(4) 0.0014(8) 0.0005(4)
O8 O2- 0.0132(12) 0.0006(3) 0.0106(13) 0.0015(5) -.0002(10) -.0005(5)
#End of TTdata_100867-ICSD