
#(C) 2019 by FIZ Karlsruhe - Leibniz Institute for Information Infrastructure.  All rights reserved.
data_100823-ICSD
_database_code_ICSD 100823
_audit_creation_date 1981-12-31
_chemical_name_systematic 'Dipotassium sodium cyclo-triantimonate'
_chemical_formula_structural 'K2 Na Sb3 O9'
_chemical_formula_sum 'K2 Na1 O9 Sb3'
_exptl_crystal_density_diffrn 4.71
_publ_section_title

;
Classement des porteurs de charge et conductivite du compose K8 Na4 Sb12 O36
de structure K Sb O3 cubique
;
loop_
_citation_id
_citation_journal_full
_citation_year
_citation_journal_volume
_citation_page_first
_citation_page_last
_citation_journal_id_ASTM
primary 'Materials Research Bulletin' 1981 16 877 882 MRBUAC
loop_
_publ_author_name
'Watelet, H.'
'Picard, J.P.'
'Baud, G.'
'Besse, J.P.'
'Chevalier, R.'
_cell_length_a 9.515(3)
_cell_length_b 9.515(3)
_cell_length_c 9.515(3)
_cell_angle_alpha 90.
_cell_angle_beta 90.
_cell_angle_gamma 90.
_cell_volume 861.44
_cell_formula_units_Z 4
_symmetry_space_group_name_H-M 'P n -3 Z'
_symmetry_Int_Tables_number 201
_refine_ls_R_factor_all 0.059
loop_
_symmetry_equiv_pos_site_id
_symmetry_equiv_pos_as_xyz
1 '-z, x+1/2, y+1/2'
2 'z+1/2, x+1/2, -y'
3 'z+1/2, -x, y+1/2'
4 '-z, -x, -y'
5 'y+1/2, -z, x+1/2'
6 '-y, z+1/2, x+1/2'
7 'y+1/2, z+1/2, -x'
8 '-y, -z, -x'
9 'x+1/2, y+1/2, -z'
10 'x+1/2, -y, z+1/2'
11 '-x, y+1/2, z+1/2'
12 '-x, -y, -z'
13 'z, -x+1/2, -y+1/2'
14 '-z+1/2, -x+1/2, y'
15 '-z+1/2, x, -y+1/2'
16 'z, x, y'
17 '-y+1/2, z, -x+1/2'
18 'y, -z+1/2, -x+1/2'
19 '-y+1/2, -z+1/2, x'
20 'y, z, x'
21 '-x+1/2, -y+1/2, z'
22 '-x+1/2, y, -z+1/2'
23 'x, -y+1/2, -z+1/2'
24 'x, y, z'
loop_
_atom_type_symbol
_atom_type_oxidation_number
Sb5+ 5
Na1+ 1
K1+ 1
O2- -2
loop_
_atom_site_label
_atom_site_type_symbol
_atom_site_symmetry_multiplicity
_atom_site_Wyckoff_symbol
_atom_site_fract_x
_atom_site_fract_y
_atom_site_fract_z
_atom_site_B_iso_or_equiv
_atom_site_occupancy
_atom_site_attached_hydrogens
Sb1 Sb5+ 12 g 0.590(1) 0.75 0.25 0.2 1. 0
Na1 Na1+ 8 e 0.018(1) 0.018(1) 0.018(1) 0.7 0.5 0
K1 K1+ 8 e 0.399(4) 0.399(4) 0.399(4) 1. 1. 0
O1 O2- 12 f 0.613(8) 0.25 0.25 0.2 1. 0
O2 O2- 24 h 0.250(8) 0.592(7) 0.542(6) 0.2 1. 0
#End of TTdata_100823-ICSD