
#(C) 2019 by FIZ Karlsruhe - Leibniz Institute for Information Infrastructure.  All rights reserved.
data_10279-ICSD
_database_code_ICSD 10279
_audit_creation_date 1980-01-01
_audit_update_record 1998-06-26
_chemical_name_systematic 'Sodium dihydroxoheptaoxotetraborate trihydrate'
_chemical_formula_structural 'Na2 B4 O6 (O H)2 (H2 O)3'
_chemical_formula_sum 'H8 B4 Na2 O11'
_chemical_name_structure_type Na2B4O6(OH)2(H2O)3
_chemical_name_mineral Kernite
_exptl_crystal_density_diffrn 1.9
_publ_section_title
'La struttura cristallina della kernite, Na2 B4 O6 (O H)2 (H2 O)3'
loop_
_citation_id
_citation_journal_full
_citation_year
_citation_journal_volume
_citation_page_first
_citation_page_last
_citation_journal_id_ASTM
primary

;
Atti della Accademia Nazionale dei Lincei, Classe di Scienze Fisiche,
Matematiche e Naturali, Rendiconti
; 1967 42 236 251 AANLAW
loop_
_publ_author_name
'Cialdi, G.'
'Corazza, E.'
'Sabelli, C.'
_cell_length_a 7.022(2)
_cell_length_b 9.151(2)
_cell_length_c 15.676(3)
_cell_angle_alpha 90.
_cell_angle_beta 108.83(8)
_cell_angle_gamma 90.
_cell_volume 953.4
_cell_formula_units_Z 4
_symmetry_space_group_name_H-M 'P 1 21/c 1'
_symmetry_Int_Tables_number 14
_refine_ls_R_factor_all 0.083
loop_
_symmetry_equiv_pos_site_id
_symmetry_equiv_pos_as_xyz
1 'x, -y+1/2, z+1/2'
2 '-x, -y, -z'
3 '-x, y+1/2, -z+1/2'
4 'x, y, z'
loop_
_atom_type_symbol
_atom_type_oxidation_number
Na1+ 1
O2- -2
B3+ 3
H1+ 1
loop_
_atom_site_label
_atom_site_type_symbol
_atom_site_symmetry_multiplicity
_atom_site_Wyckoff_symbol
_atom_site_fract_x
_atom_site_fract_y
_atom_site_fract_z
_atom_site_B_iso_or_equiv
_atom_site_occupancy
_atom_site_attached_hydrogens
Na1 Na1+ 4 e 0.3142(4) 0.6341(5) 0.4277(2) 3.14(6) 1. 0
Na2 Na1+ 4 e 0.1807(4) 0.9652(4) 0.6890(2) 2.24(5) 1. 0
O1 O2- 4 e 0.0350(6) 0.6497(6) 0.2911(3) 1.23(7) 1. 0
O2 O2- 4 e 0.0120(6) 0.4751(7) 0.3970(3) 1.56(8) 1. 0
O3 O2- 4 e 0.4619(7) 0.5624(7) 0.5849(3) 2.42(10) 1. 0
O4 O2- 4 e 0.0606(6) 0.9013(6) 0.2592(3) 1.33(7) 1. 0
O5 O2- 4 e 0.2674(6) 0.2938(7) 0.2685(3) 1.68(8) 1. 0
O6 O2- 4 e 0.2915(6) 0.4483(7) 0.7155(3) 1.86(9) 1. 0
O7 O2- 4 e 0.3335(7) 0.8821(8) 0.4234(3) 2.49(10) 1. 0
O8 O2- 4 e 0.0649(6) 0.2279(7) 0.3626(3) 1.66(8) 1. 0
O9 O2- 4 e 0.4366(7) 0.7101(7) 0.2592(3) 2.37(10) 1. 0
O10 O2- 4 e 0.0849(7) 0.2941(8) 0.5101(3) 2.5(1) 1. 0
O11 O2- 4 e 0.2749(7) 0.0341(7) 0.5681(3) 2.62(10) 1. 0
B1 B3+ 4 e 0.0543(9) 0.2662(11) 0.2692(4) 1.22(10) 1. 0
B2 B3+ 4 e 0.0737(10) 0.4815(12) 0.6994(4) 1.46(10) 1. 0
B3 B3+ 4 e 0.3692(10) 0.3128(13) 0.7418(5) 1.69(10) 1. 0
B4 B3+ 4 e 0.0524(10) 0.3313(12) 0.4220(5) 1.6(1) 1. 0
H1 H1+ 4 e 0.94 0.62 0.46 6.(1) 1. 0
H2 H1+ 4 e 0.78 0.868 0.448 6.(1) 1. 0
H3 H1+ 4 e 0.7 0.485 0.98 6.(1) 1. 0
H4 H1+ 4 e 0.54 0.417 0.075 6.(1) 1. 0
H5 H1+ 4 e 0.76 0.395 0.135 6.(1) 1. 0
H6 H1+ 4 e 0.615 0.49 0.377 6.(1) 1. 0
H7 H1+ 4 e 0.445 0.37 0.365 6.(1) 1. 0
H8 H1+ 4 e 0.69 0.275 0.24 6.(1) 1. 0
#End of TTdata_10279-ICSD