
#(C) 2019 by FIZ Karlsruhe - Leibniz Institute for Information Infrastructure.  All rights reserved.
data_10378-ICSD
_database_code_ICSD 10378
_audit_creation_date 1980-01-01
_audit_update_record 2007-08-01
_chemical_name_systematic 'Disodium dihydroxohexaoxotetraborate trihydrate'
_chemical_formula_structural 'Na2 (B4 O6 (O H)2) (H2 O)3'
_chemical_formula_sum 'H8 B4 Na2 O11'
_chemical_name_structure_type Na2B4O6(OH)2(H2O)3
_chemical_name_mineral Kernite
_exptl_crystal_density_diffrn 1.9
_publ_section_title

;
Electron population of accurate diffraction data. V. Structure and one-center
charge refinement of the light-atom mineral kernite, Na2 B4 O6 (O H)2 * 3(H2
O)
;
loop_
_citation_id
_citation_journal_full
_citation_year
_citation_journal_volume
_citation_page_first
_citation_page_last
_citation_journal_id_ASTM
primary 'American Mineralogist' 1973 58 21 31 AMMIAY
loop_
_publ_author_name
'Cooper, W.F.'
'Larsen, F.K.'
'Coppens, P.'
'Giese, R.F.jr.'
_cell_length_a 7.0172(2)
_cell_length_b 9.1582(2)
_cell_length_c 15.6774(5)
_cell_angle_alpha 90.
_cell_angle_beta 108.861(2)
_cell_angle_gamma 90.
_cell_volume 953.41
_cell_formula_units_Z 4
_symmetry_space_group_name_H-M 'P 1 21/c 1'
_symmetry_Int_Tables_number 14
_refine_ls_R_factor_all 0.034
loop_
_symmetry_equiv_pos_site_id
_symmetry_equiv_pos_as_xyz
1 'x, -y+1/2, z+1/2'
2 '-x, -y, -z'
3 '-x, y+1/2, -z+1/2'
4 'x, y, z'
loop_
_atom_type_symbol
_atom_type_oxidation_number
Na1+ 1
O2- -2
B3+ 3
H1+ 1
loop_
_atom_site_label
_atom_site_type_symbol
_atom_site_symmetry_multiplicity
_atom_site_Wyckoff_symbol
_atom_site_fract_x
_atom_site_fract_y
_atom_site_fract_z
_atom_site_B_iso_or_equiv
_atom_site_occupancy
_atom_site_attached_hydrogens
Na1 Na1+ 4 e 0.31928(9) 0.46486(6) 0.31089(4) . 1. 0
Na2 Na1+ 4 e 0.18557(10) 0.36637(7) 0.07245(5) . 1. 0
O1 O2- 4 e 0.51273(14) 0.02504(9) 0.39728(6) . 1. 0
O2 O2- 4 e 0.44023(13) 0.09882(9) 0.24094(6) . 1. 0
O3 O2- 4 e 0.76727(13) 0.2059(1) 0.26849(6) . 1. 0
O4 O2- 4 e 0.46493(12) 0.35087(9) 0.20889(6) . 1. 0
O5 O2- 4 e 0.79170(14) 0.44864(10) 0.21540(7) . 1. 0
O6 O2- 4 e 0.06216(16) 0.29094(12) 0.24052(9) . 1. 0
O7 O2- 4 e 0.58479(19) 0.29347(12) 0.00999(7) . 1. 0
O8 O2- 4 e 0.77580(19) 0.03282(15) 0.06828(8) . 1. 0
O9 O2- 4 e 0.56568(14) 0.27262(9) 0.36309(6) . 1. 0
O10 O2- 4 e 0.03920(19) 0.06215(14) 0.41534(8) . 1. 0
O11 O2- 4 e 0.16711(19) 0.11744(12) 0.07617(8) . 1. 0
B1 B3+ 4 e 0.55313(22) 0.16779(16) 0.42154(10) . 1. 0
B2 B3+ 4 e 0.55340(21) 0.23267(14) 0.26884(9) . 1. 0
B3 B3+ 4 e 0.57414(20) 0.48048(14) 0.19969(9) . 1. 0
B4 B3+ 4 e 0.86829(22) 0.31396(16) 0.2418(1) . 1. 0
H1 H1+ 4 e 0.2506(35) 0.1008(23) 0.1206(16) 3.9 1. 0
H2 H1+ 4 e 0.0934(32) 0.2134(23) 0.2498(15) 4.3 1. 0
H3 H1+ 4 e 0.9720(32) 0.1114(25) 0.3818(15) 4.6 1. 0
H4 H1+ 4 e 0.5666(30) 0.3580(21) 0.0360(13) 3.3 1. 0
H5 H1+ 4 e 0.1086(35) 0.0233(26) 0.3802(16) 5.4 1. 0
H6 H1+ 4 e 0.7212(30) 0.1005(24) 0.0512(14) 3.3 1. 0
H7 H1+ 4 e 0.2233(55) 0.4689(36) 0.4882(27) 12.6 1. 0
H8 H1+ 4 e 0.0314(45) 0.0928(31) 0.0812(19) 7.9 1. 0
loop_
_atom_site_aniso_label
_atom_site_aniso_type_symbol
_atom_site_aniso_beta_11
_atom_site_aniso_beta_22
_atom_site_aniso_beta_33
_atom_site_aniso_beta_12
_atom_site_aniso_beta_13
_atom_site_aniso_beta_23
Na1 Na1+ 0.01180(14) 0.00377(6) 0.00251(3) 0.00037(7) 0.00332(5) 0.00011(3)
Na2 Na1+ 0.01409(16) 0.00501(8) 0.00309(3) -.00047(8) -.00086(6) 0.00013(4)
O1 O2- 0.01255(22) 0.00220(9) 0.00101(4) -.00040(12) 0.00163(7) -.00006(5)
O2 O2- 0.0086(2) 0.00173(9) 0.00104(4) -.00077(11) 0.00083(7) 0.00004(5)
O3 O2- 0.00601(19) 0.00308(10) 0.00215(4) 0.00121(11) 0.00140(7) 0.00072(5)
O4 O2- 0.00527(18) 0.00168(9) 0.00134(4) 0.00003(10) 0.00089(7) 0.00030(5)
O5 O2- 0.00644(20) 0.00301(10) 0.00248(5) 0.00018(11) 0.00214(8) 0.00034(5)
O6 O2- 0.00683(22) 0.00502(13) 0.00432(6) 0.00100(14) 0.00290(9) 0.00024(7)
O7 O2- 0.02726(36) 0.00359(12) 0.00119(4) 0.00335(16) 0.00289(10) 0.00038(6)
O8 O2- 0.01854(32) 0.00669(15) 0.00265(6) 0.00329(18) 0.00335(11) 0.00125(8)
O9 O2- 0.01193(23) 0.00229(10) 0.00108(4) -.00099(11) 0.00136(7) -.00018(5)
O10 O2- 0.01360(28) 0.00796(15) 0.00197(5) 0.00303(16) 0.00157(10) 0.00073(7)
O11 O2- 0.01219(28) 0.00616(13) 0.00194(5) -.00022(15) 0.00025(10) -.00015(6)
B1 B3+ 0.00849(30) 0.00290(15) 0.00123(6) -.00026(17) 0.00117(11) -.00022(7)
B2 B3+ 0.00599(27) 0.00192(13) 0.00113(5) -.00001(15) 0.00088(10) 0.00008(7)
B3 B3+ 0.00593(27) 0.00201(13) 0.00116(5) 0.00012(15) 0.00114(10) 0.00012(7)
B4 B3+ 0.00563(28) 0.00370(15) 0.00177(6) 0.00026(17) 0.00113(11) -.00017(8)
#End of TTdata_10378-ICSD