
#(C) 2019 by FIZ Karlsruhe - Leibniz Institute for Information Infrastructure.  All rights reserved.
data_108837-ICSD
_database_code_ICSD 108837
_audit_creation_date 2007-04-01
_chemical_name_systematic 'Disodium hydrogenphosphate(V) dihydrate'
_chemical_formula_structural 'Na2 (H P O4) (H2 O)2'
_chemical_formula_sum 'H5 Na2 O6 P1'
_chemical_name_structure_type Na2HPO4(H2O)2
_chemical_name_mineral Dorfmanite
_exptl_crystal_density_diffrn 2.06
_cell_measurement_temperature 296.
_publ_section_title
'Entropy and  crystal structure of hydrates of disodium hydrogen phosphate'
loop_
_citation_id
_citation_journal_full
_citation_year
_citation_journal_volume
_citation_page_first
_citation_page_last
_citation_journal_id_ASTM
primary 'Journal of Chemical Physics' 1990 94 7830 7834 JCPSA6
loop_
_publ_author_name
'Templeton, D.H.'
'Ruben, H.W.'
'Zalkin, A.'
_cell_length_a 10.343(2)
_cell_length_b 6.596(2)
_cell_length_c 16.833(2)
_cell_angle_alpha 90.
_cell_angle_beta 90.
_cell_angle_gamma 90.
_cell_volume 1148.39
_cell_formula_units_Z 8
_symmetry_space_group_name_H-M 'P b c a'
_symmetry_Int_Tables_number 61
_refine_ls_R_factor_all 0.029
loop_
_symmetry_equiv_pos_site_id
_symmetry_equiv_pos_as_xyz
1 'x+1/2, y, -z+1/2'
2 'x, -y+1/2, z+1/2'
3 '-x+1/2, y+1/2, z'
4 '-x, -y, -z'
5 '-x+1/2, -y, z+1/2'
6 '-x, y+1/2, -z+1/2'
7 'x+1/2, -y+1/2, -z'
8 'x, y, z'
loop_
_atom_type_symbol
_atom_type_oxidation_number
P5+ 5
Na1+ 1
O2- -2
H1+ 1
loop_
_atom_site_label
_atom_site_type_symbol
_atom_site_symmetry_multiplicity
_atom_site_Wyckoff_symbol
_atom_site_fract_x
_atom_site_fract_y
_atom_site_fract_z
_atom_site_B_iso_or_equiv
_atom_site_occupancy
_atom_site_attached_hydrogens
P1 P5+ 8 c 0.01708(5) 0.12172(8) 0.16262(3) 0.89 1. 0
Na1 Na1+ 8 c 0.26795(8) 0.3296(1) 0.27109(5) 1.47 1. 0
Na2 Na1+ 8 c 0.35019(9) 0.3579(1) 0.00013(5) 1.83 1. 0
O1 O2- 8 c -.0213(1) 0.3441(2) 0.14902(9) 1.44 1. 0
O2 O2- 8 c 0.1535(1) 0.0999(2) 0.19388(8) 1.24 1. 0
O3 O2- 8 c -.0104(1) -.0059(2) 0.09017(8) 1.49 1. 0
O4 O2- 8 c -.0788(1) 0.0492(2) 0.23177(9) 1.32 1. 0
O5 O2- 8 c 0.3163(2) 0.0505(3) 0.0674(1) 1.86 1. 0
O6 O2- 8 c 0.1795(2) 0.1817(3) 0.3957(1) 1.95 1. 0
H1 H1+ 8 c 0.387(4) -.018(6) 0.086(2) 3.8(8) 1. 0
H2 H1+ 8 c 0.269(4) 0.064(6) 0.111(2) 4.1(9) 1. 0
H3 H1+ 8 c 0.901(2) 0.381(4) 0.778(7) 1.6 1. 0
H4 H1+ 8 c 0.889(3) 0.373(4) 0.566(7) 1.7 1. 0
H5 H1+ 8 c 0.772(2) 0.536(4) 0.479(6) 1.3 1. 0
#End of TTdata_108837-ICSD