
#(C) 2019 by FIZ Karlsruhe - Leibniz Institute for Information Infrastructure.  All rights reserved.
data_109824-ICSD
_database_code_ICSD 109824
_audit_creation_date 2008-02-01
_chemical_name_systematic 'Tetrasodium tin trioxalate hexafluoride'
_chemical_formula_structural 'Na4 Sn4 (C2 O4)3 F6'
_chemical_formula_sum 'C6 F6 Na4 O12 Sn4'
_exptl_crystal_density_diffrn 3.51
_cell_measurement_temperature 293.
_publ_section_title
'BING-1: a tin oxalate sodium fluoride framework, = Na4 Sn4 (C2 O4)3 F6'
loop_
_citation_id
_citation_journal_full
_citation_year
_citation_journal_volume
_citation_page_first
_citation_page_last
_citation_journal_id_ASTM
primary 'Acta Crystallographica, Section E: Structure Reports Online' 2001 57
m111 m113 ACSEBH
loop_
_publ_author_name
'Salami, T.O.'
'Zavalij, P.Y.'
'Oliver, S.R.J.'
_cell_length_a 6.0283(4)
_cell_length_b 8.7916(6)
_cell_length_c 9.1191(6)
_cell_angle_alpha 69.4860(10)
_cell_angle_beta 81.5080(10)
_cell_angle_gamma 83.0170(10)
_cell_volume 446.41
_cell_formula_units_Z 1
_symmetry_space_group_name_H-M 'P -1'
_symmetry_Int_Tables_number 2
_refine_ls_R_factor_all 0.0395
loop_
_symmetry_equiv_pos_site_id
_symmetry_equiv_pos_as_xyz
1 '-x, -y, -z'
2 'x, y, z'
loop_
_atom_type_symbol
_atom_type_oxidation_number
Na1+ 1
Sn2+ 2
F1- -1
C3+ 3
O2- -2
C3+ 3
O2- -2
C3+ 3
O2- -2
loop_
_atom_site_label
_atom_site_type_symbol
_atom_site_symmetry_multiplicity
_atom_site_Wyckoff_symbol
_atom_site_fract_x
_atom_site_fract_y
_atom_site_fract_z
_atom_site_B_iso_or_equiv
_atom_site_occupancy
_atom_site_attached_hydrogens
Na1 Na1+ 2 i -.2913(3) .0444(2) -.4217(2) .0316(4) 1 0
Na2 Na1+ 2 i .1397(3) .2643(2) -.3760(2) .0272(4) 1 0
Sn1 Sn2+ 2 i .16908(4) -.13839(3) -.13383(3) .02056(9) 1 0
Sn2 Sn2+ 2 i .16735(5) .43093(3) -.82016(3) .02177(10) 1 0
F1 F1- 2 i .3612(4) -.0411(3) -.3430(3) .0309(6) 1 0
F2 F1- 2 i -.0601(4) .0434(3) -.2572(3) .0307(6) 1 0
F3 F1- 2 i .1316(5) .2346(3) -.6173(3) .0334(6) 1 0
C1 C3+ 2 i .4140(7) .0761(5) -.0139(5) .0209(8) 1 0
O1 O2- 2 i .2467(5) .0761(4) -.0830(4) .0245(6) 1 0
O2 O2- 2 i .4532(6) .1848(4) .0324(4) .0340(8) 1 0
C2 C3+ 2 i .6026(7) .5028(5) -.7296(5) .0199(7) 1 0
O3 O2- 2 i .5433(5) .4089(4) -.7904(4) .0298(7) 1 0
O4 O2- 2 i .7991(5) .5225(4) -.7153(4) .0265(7) 1 0
C3 C3+ 2 i .4118(6) .6055(5) -.6648(5) .0187(7) 1 0
O5 O2- 2 i .2124(5) .5788(4) -.6765(4) .0259(6) 1 0
O6 O2- 2 i .4600(5) .7024(4) -.6081(4) .0234(6) 1 0
#End of TTdata_109824-ICSD