
#(C) 2019 by FIZ Karlsruhe - Leibniz Institute for Information Infrastructure.  All rights reserved.
data_12134-ICSD
_database_code_ICSD 12134
_audit_creation_date 1986-08-08
_audit_update_record 2013-08-01
_chemical_name_systematic 'Sodium borodisilicate dihydroxide'
_chemical_formula_structural 'Na (B Si2 O5) (O H)2'
_chemical_formula_sum 'H2 B1 Na1 O7 Si2'
_chemical_name_structure_type NaBSi2O5(OH)2
_chemical_name_mineral Searlesite
_exptl_crystal_density_diffrn 2.86
_publ_section_title

;
Structural chemistry of borosilicates, part II: Searlesite, Na B Si2 O5 (O H):
Absolute configuration, hydrogen locations, and refinement of the structure
;
loop_
_citation_id
_citation_journal_full
_citation_year
_citation_journal_volume
_citation_page_first
_citation_page_last
_citation_journal_id_ASTM
primary 'American Mineralogist' 1976 61 123 129 AMMIAY
loop_
_publ_author_name
'Ghose, S.'
'Wan, C.'
_cell_length_a 7.9814(12)
_cell_length_b 6.0657(8)
_cell_length_c 4.9054(4)
_cell_angle_alpha 90.
_cell_angle_beta 93.95(1)
_cell_angle_gamma 90.
_cell_volume 236.92
_cell_formula_units_Z 2
_symmetry_space_group_name_H-M 'P 1 21 1'
_symmetry_Int_Tables_number 4
_refine_ls_R_factor_all 0.034
loop_
_symmetry_equiv_pos_site_id
_symmetry_equiv_pos_as_xyz
1 '-x, y+1/2, -z'
2 'x, y, z'
loop_
_atom_type_symbol
_atom_type_oxidation_number
Na1+ 1
B3+ 3
Si4+ 4
O2- -2
H1+ 1
loop_
_atom_site_label
_atom_site_type_symbol
_atom_site_symmetry_multiplicity
_atom_site_Wyckoff_symbol
_atom_site_fract_x
_atom_site_fract_y
_atom_site_fract_z
_atom_site_B_iso_or_equiv
_atom_site_occupancy
_atom_site_attached_hydrogens
Na1 Na1+ 2 a 0.4390(1) 0 0.9812(2) . 1. 0
B1 B3+ 2 a 0.3514(2) 0.7084(3) 0.3984(3) . 1. 0
Si1 Si4+ 2 a 0.13465(6) 0.41571(18) 0.21207(9) . 1. 0
Si2 Si4+ 2 a 0.08340(6) 0.98671(18) 0.31053(8) . 1. 0
O1 O2- 2 a 0.1651(2) 0.1903(3) 0.2492(4) . 1. 0
O2 O2- 2 a 0.0851(2) 0.4610(3) 0.8931(2) . 1. 0
O3 O2- 2 a 0.2202(2) 0.8314(3) 0.2566(3) . 1. 0
O4 O2- 2 a 0.3114(2) 0.5110(2) 0.3087(3) . 1. 0
O5 O2- 2 a 0.0222(2) 0.9842(3) 0.6177(3) . 1. 0
O6 O2- 2 a 0.3604(2) 0.7261(3) 0.6953(3) . 1. 0
O7 O2- 2 a 0.4858(2) 0.2563(3) 0.7005(3) . 1. 0
H1 H1+ 2 a 0.267(4) 0.699(6) 0.769(7) -.9(5) 1. 0
H2 H1+ 2 a 0.578(5) 0.424(6) 0.416(8) -.5(6) 1. 0
loop_
_atom_site_aniso_label
_atom_site_aniso_type_symbol
_atom_site_aniso_beta_11
_atom_site_aniso_beta_22
_atom_site_aniso_beta_33
_atom_site_aniso_beta_12
_atom_site_aniso_beta_13
_atom_site_aniso_beta_23
Na1 Na1+ 0.0071(1) 0.0068(2) 0.0197(2) -.0006(1) 0.0032(2) 0.0037(2)
B1 B3+ 0.0019(2) 0.0028(2) 0.0083(4) -.0002(2) -.0001(2) -.0003(3)
Si1 Si4+ 0.0015(1) 0.0024(1) 0.0067(1) -.0004(1) -.0006(1) 0.0005(1)
Si2 Si4+ 0.0013(1) 0.0020(1) 0.0063(1) 0.0001(1) 0.0001(1) 0.0002(1)
O1 O2- 0.0050(2) 0.0025(2) 0.0223(6) -.0016(2) -.0013(3) 0.0027(3)
O2 O2- 0.0022(2) 0.0071(2) 0.0064(3) 0.0003(2) -.0003(2) 0.0013(2)
O3 O2- 0.0041(2) 0.0047(2) 0.0137(4) 0.0030(18) 0.0007(2) 0.0003(2)
O4 O2- 0.0018(2) 0.0023(2) 0.0141(4) -.0003(1) -.0012(2) -.0010(2)
O5 O2- 0.0029(2) 0.0102(3) 0.0071(3) -.0003(2) 0.0013(2) -.0003(3)
O6 O2- 0.0039(2) 0.0074(2) 0.0084(3) -.0015(2) 0.0004(2) -.0011(2)
O7 O2- 0.0025(17) 0.0055(2) 0.0111(4) 0.0016(2) 0.0006(2) 0.0013(2)
#End of TTdata_12134-ICSD