
#(C) 2019 by FIZ Karlsruhe - Leibniz Institute for Information Infrastructure.  All rights reserved.
data_1386-ICSD
_database_code_ICSD 1386
_audit_creation_date 1980-01-01
_audit_update_record 2010-02-01
_chemical_name_systematic 'Sodium closo-tetrahydroxohexaoxopentaborate'
_chemical_formula_structural 'Na (B5 O6 (O H)4)'
_chemical_formula_sum 'H4 B5 Na1 O10'
_exptl_crystal_density_diffrn 1.84
_publ_section_title 'The crystal structure of  Na B5 O6 (O H)4'
loop_
_citation_id
_citation_journal_full
_citation_year
_citation_journal_volume
_citation_page_first
_citation_page_last
_citation_journal_id_ASTM
primary

;
Acta Crystallographica, Section B: Structural Crystallography and Crystal
Chemistry
; 1978 34 45 49 ACBCAR
loop_
_publ_author_name
'Menchetti, S.'
'Sabelli, C.'
_cell_length_a 8.701(4)
_cell_length_b 8.067(4)
_cell_length_c 12.977(4)
_cell_angle_alpha 90.
_cell_angle_beta 106.77(2)
_cell_angle_gamma 90.
_cell_volume 872.13
_cell_formula_units_Z 4
_symmetry_space_group_name_H-M 'P 1 21/c 1'
_symmetry_Int_Tables_number 14
_refine_ls_R_factor_all 0.051
loop_
_symmetry_equiv_pos_site_id
_symmetry_equiv_pos_as_xyz
1 'x, -y+1/2, z+1/2'
2 '-x, -y, -z'
3 '-x, y+1/2, -z+1/2'
4 'x, y, z'
loop_
_atom_type_symbol
_atom_type_oxidation_number
Na1+ 1
O2- -2
B3+ 3
H1+ 1
loop_
_atom_site_label
_atom_site_type_symbol
_atom_site_symmetry_multiplicity
_atom_site_Wyckoff_symbol
_atom_site_fract_x
_atom_site_fract_y
_atom_site_fract_z
_atom_site_B_iso_or_equiv
_atom_site_occupancy
_atom_site_attached_hydrogens
Na1 Na1+ 4 e 0.0787(2) 0.7601(2) 0.2362(1) . 1. 0
O1 O2- 4 e 0.4200(3) 0.3160(3) 0.3225(2) . 1. 0
O2 O2- 4 e 0.3595(3) 0.1603(3) 0.4631(2) . 1. 0
O3 O2- 4 e 0.1758(3) 0.3693(3) 0.3660(2) . 1. 0
O4 O2- 4 e 0.0981(3) 0.1866(3) 0.4872(2) . 1. 0
O5 O2- 4 e 0.3017(3) 0.3982(3) 0.5556(2) . 1. 0
O6 O2- 4 e 0.0978(3) 0.3515(3) 0.6411(2) . 1. 0
O7 O2- 4 e 0.2789(3) 0.5656(3) 0.7009(2) . 1. 0
O8 O2- 4 e -.0816(3) 0.1345(3) 0.5930(2) . 1. 0
O9 O2- 4 e 0.2432(4) 0.5328(4) 0.2370(2) . 1. 0
O10 O2- 4 e 0.5759(3) 0.0859(3) 0.3947(2) . 1. 0
B1 B3+ 4 e 0.2816(5) 0.4061(5) 0.3103(3) . 1. 0
B2 B3+ 4 e 0.4524(5) 0.1850(5) 0.3957(3) . 1. 0
B3 B3+ 4 e 0.2339(5) 0.2823(5) 0.4689(3) . 1. 0
B4 B3+ 4 e 0.2291(5) 0.4383(5) 0.6306(3) . 1. 0
B5 B3+ 4 e 0.0383(5) 0.2218(5) 0.5709(3) . 1. 0
H1 H1+ 4 e 0.38 0.6 0.705 4. 1. 0
H2 H1+ 4 e -.1 0.04 0.56 4. 1. 0
H3 H1+ 4 e 0.31 0.54 0.2 4. 1. 0
H4 H1+ 4 e 0.595 0 0.445 4. 1. 0
loop_
_atom_site_aniso_label
_atom_site_aniso_type_symbol
_atom_site_aniso_beta_11
_atom_site_aniso_beta_22
_atom_site_aniso_beta_33
_atom_site_aniso_beta_12
_atom_site_aniso_beta_13
_atom_site_aniso_beta_23
Na1 Na1+ 0.0107(3) 0.0099(3) 0.0050(1) 0.0013(2) 0.0049(1) 0.0002(1)
O1 O2- 0.0070(4) 0.0065(4) 0.0033(2) 0.0014(3) 0.0034(2) 0.0014(2)
O2 O2- 0.0088(4) 0.0063(4) 0.0032(2) 0.0016(3) 0.0039(2) 0.0011(2)
O3 O2- 0.0075(4) 0.0069(4) 0.0032(2) 0.0012(3) 0.0035(2) 0.0012(2)
O4 O2- 0.0092(4) 0.0065(4) 0.0032(2) -.0022(3) 0.0041(2) 0.0014(2)
O5 O2- 0.0088(4) 0.0086(5) 0.0037(2) -.0024(4) 0.0044(2) -.0017(2)
O6 O2- 0.0091(4) 0.0078(4) 0.0040(2) -.0023(4) 0.0047(2) -.0019(2)
O7 O2- 0.0096(5) 0.0088(5) 0.0049(2) -.0027(4) 0.0044(3) -.0026(3)
O8 O2- 0.0103(5) 0.0095(5) 0.0050(2) -.0055(4) 0.0056(3) -.0029(3)
O9 O2- 0.0111(5) 0.0083(5) 0.0052(2) 0.0029(4) 0.0054(3) 0.0027(3)
O10 O2- 0.0094(4) 0.0096(5) 0.0039(2) 0.0044(4) 0.0046(2) 0.0028(3)
B1 B3+ 0.0078(7) 0.0064(7) 0.0024(3) -.0001(6) 0.0020(3) 0.0000(4)
B2 B3+ 0.0075(7) 0.0066(7) 0.0028(3) -.0014(6) 0.0024(4) -.0006(4)
B3 B3+ 0.0055(6) 0.0065(7) 0.0034(3) 0.0003(6) 0.0028(3) 0.0001(4)
B4 B3+ 0.0072(7) 0.0062(7) 0.0032(3) -.0004(6) 0.0023(4) -.0008(4)
B5 B3+ 0.0066(6) 0.0074(8) 0.0034(3) 0.0001(6) 0.0028(4) 0.0001(4)
#End of TTdata_1386-ICSD