
#(C) 2019 by FIZ Karlsruhe - Leibniz Institute for Information Infrastructure.  All rights reserved.
data_1392-ICSD
_database_code_ICSD 1392
_audit_creation_date 1980-01-01
_audit_update_record 2015-02-01
_chemical_name_systematic 'Disodium diferro(III)hexatitanate'
_chemical_formula_structural 'Na2 (Fe2 Ti6 O16)'
_chemical_formula_sum 'Fe2 Na2 O16 Ti6'
_chemical_name_structure_type NaTi4O8
_chemical_name_mineral Freudenbergite
_exptl_crystal_density_diffrn 4.01
_publ_section_title Freudenbergite
loop_
_citation_id
_citation_journal_full
_citation_year
_citation_journal_volume
_citation_page_first
_citation_page_last
_citation_journal_id_ASTM
primary

;
Acta Crystallographica, Section B: Structural Crystallography and Crystal
Chemistry
; 1978 34 255 256 ACBCAR
loop_
_publ_author_name
'Ishiguro, T.'
'Tanaka, K.'
'Marumo, F.'
'Ismail, M.G.M.U.'
'Hirano, S.'
'Somiya, S.'
_cell_length_a 12.267(6)
_cell_length_b 3.823(5)
_cell_length_c 6.483(3)
_cell_angle_alpha 90.
_cell_angle_beta 107.16(5)
_cell_angle_gamma 90.
_cell_volume 290.5
_cell_formula_units_Z 1
_symmetry_space_group_name_H-M 'C 1 2/m 1'
_symmetry_Int_Tables_number 12
_refine_ls_R_factor_all 0.053
loop_
_symmetry_equiv_pos_site_id
_symmetry_equiv_pos_as_xyz
1 '-x, y, -z'
2 '-x, -y, -z'
3 'x, -y, z'
4 'x, y, z'
5 '-x+1/2, y+1/2, -z'
6 '-x+1/2, -y+1/2, -z'
7 'x+1/2, -y+1/2, z'
8 'x+1/2, y+1/2, z'
loop_
_atom_type_symbol
_atom_type_oxidation_number
Ti4+ 4
Fe3+ 3
Ti4+ 4
Fe3+ 3
Na1+ 1
O2- -2
loop_
_atom_site_label
_atom_site_type_symbol
_atom_site_symmetry_multiplicity
_atom_site_Wyckoff_symbol
_atom_site_fract_x
_atom_site_fract_y
_atom_site_fract_z
_atom_site_B_iso_or_equiv
_atom_site_occupancy
_atom_site_attached_hydrogens
Ti1 Ti4+ 4 i 0.29759(8) 0 0.7106(2) . 0.73(2) 0
Fe1 Fe3+ 4 i 0.29759(8) 0 0.7106(2) . 0.27(2) 0
Ti2 Ti4+ 4 i 0.39774(8) 0 0.3023(2) . 0.77(2) 0
Fe2 Fe3+ 4 i 0.39774(8) 0 0.3023(2) . 0.23(2) 0
Na1 Na1+ 2 a 0 0 0 . 1. 0
O1 O2- 4 i 0.3725(4) 0 0.9958(8) . 1. 0
O2 O2- 4 i 0.2366(4) 0 0.3465(8) . 1. 0
O3 O2- 4 i 0.1349(4) 0 0.7094(8) . 1. 0
O4 O2- 4 i 0.4412(4) 0 0.6333(8) . 1. 0
loop_
_atom_site_aniso_label
_atom_site_aniso_type_symbol
_atom_site_aniso_U_11
_atom_site_aniso_U_22
_atom_site_aniso_U_33
_atom_site_aniso_U_12
_atom_site_aniso_U_13
_atom_site_aniso_U_23
Ti1 Ti4+ 0.0081(3) 0.0040(3) 0.0068(4) 0 0.0007(3) 0
Fe1 Fe3+ 0.0081(3) 0.0040(3) 0.0068(4) 0 0.0007(3) 0
Ti2 Ti4+ 0.0074(3) 0.0053(3) 0.0100(4) 0 0.0015(3) 0
Fe2 Fe3+ 0.0074(3) 0.0053(3) 0.0100(4) 0 0.0015(3) 0
Na1 Na1+ 0.0204(25) 0.0099(18) 0.0604(47) 0 0.0152(26) 0
O1 O2- 0.0126(15) 0.0086(14) 0.0089(17) 0 0.0008(13) 0
O2 O2- 0.0096(14) 0.0045(12) 0.0117(17) 0 0.0030(12) 0
O3 O2- 0.0114(16) 0.0047(12) 0.0118(18) 0 0.0017(13) 0
O4 O2- 0.0104(15) 0.0102(15) 0.0082(16) 0 0.0018(12) 0
#End of TTdata_1392-ICSD