
#(C) 2019 by FIZ Karlsruhe - Leibniz Institute for Information Infrastructure.  All rights reserved.
data_14106-ICSD
_database_code_ICSD 14106
_audit_creation_date 1980-12-31
_chemical_name_systematic 'Sodium hexachlorothallate dodecahydrate'
_chemical_formula_structural 'Na3 Tl Cl6 (H2 O)12'
_chemical_formula_sum 'H24 Cl6 Na3 O12 Tl1'
_exptl_crystal_density_diffrn 2.1
_publ_section_title

;
Crystal and Molecular Structure of Trisodiumhexachlorothallium(III)
Dodekahydrate, Na3 Tl Cl6 (H2 O)12
;
loop_
_citation_id
_citation_journal_full
_citation_year
_citation_journal_volume
_citation_page_first
_citation_page_last
_citation_journal_id_ASTM
primary 'Acta Chemica Scandinavica, Series A: Physical and Inorganic Chemistry'
1980 34 141 146 ACAPCT
loop_
_publ_author_name
'Glaser, J.'
_cell_length_a 10.345(5)
_cell_length_b 10.345(5)
_cell_length_c 18.007(5)
_cell_angle_alpha 90.
_cell_angle_beta 90.
_cell_angle_gamma 120.
_cell_volume 1668.91
_cell_formula_units_Z 3
_symmetry_space_group_name_H-M 'R -3 m H'
_symmetry_Int_Tables_number 166
_refine_ls_R_factor_all 0.024
loop_
_symmetry_equiv_pos_site_id
_symmetry_equiv_pos_as_xyz
1 'x-y, -y, -z'
2 '-x, -x+y, -z'
3 'y, x, -z'
4 'x-y, x, -z'
5 'y, -x+y, -z'
6 '-x, -y, -z'
7 '-x+y, y, z'
8 'x, x-y, z'
9 '-y, -x, z'
10 '-x+y, -x, z'
11 '-y, x-y, z'
12 'x, y, z'
13 'x-y+2/3, -y+1/3, -z+1/3'
14 '-x+2/3, -x+y+1/3, -z+1/3'
15 'y+2/3, x+1/3, -z+1/3'
16 'x-y+2/3, x+1/3, -z+1/3'
17 'y+2/3, -x+y+1/3, -z+1/3'
18 '-x+2/3, -y+1/3, -z+1/3'
19 '-x+y+2/3, y+1/3, z+1/3'
20 'x+2/3, x-y+1/3, z+1/3'
21 '-y+2/3, -x+1/3, z+1/3'
22 '-x+y+2/3, -x+1/3, z+1/3'
23 '-y+2/3, x-y+1/3, z+1/3'
24 'x+2/3, y+1/3, z+1/3'
25 'x-y+1/3, -y+2/3, -z+2/3'
26 '-x+1/3, -x+y+2/3, -z+2/3'
27 'y+1/3, x+2/3, -z+2/3'
28 'x-y+1/3, x+2/3, -z+2/3'
29 'y+1/3, -x+y+2/3, -z+2/3'
30 '-x+1/3, -y+2/3, -z+2/3'
31 '-x+y+1/3, y+2/3, z+2/3'
32 'x+1/3, x-y+2/3, z+2/3'
33 '-y+1/3, -x+2/3, z+2/3'
34 '-x+y+1/3, -x+2/3, z+2/3'
35 '-y+1/3, x-y+2/3, z+2/3'
36 'x+1/3, y+2/3, z+2/3'
loop_
_atom_type_symbol
_atom_type_oxidation_number
Tl3+ 3
Cl1- -1
Na1+ 1
O2- -2
H1+ 1
loop_
_atom_site_label
_atom_site_type_symbol
_atom_site_symmetry_multiplicity
_atom_site_Wyckoff_symbol
_atom_site_fract_x
_atom_site_fract_y
_atom_site_fract_z
_atom_site_B_iso_or_equiv
_atom_site_occupancy
_atom_site_attached_hydrogens
Tl1 Tl3+ 3 a 0 0 0 . 1. 0
Cl1 Cl1- 36 i 0.1112(2) 0.6149(3) 0.7514(1) . 0.5 0
Na1 Na1+ 6 c 0 0 0.3199(2) . 1. 0
Na2 Na1+ 3 b 0 0 0.5 . 1. 0
O1 O2- 18 h 0.4340(3) 0.566 0.0776(3) . 1. 0
O2 O2- 36 i 0.4991(9) 0.6257(9) 0.4240(4) . 0.5 0
H1 H1+ 18 h 0.470(7) 0.53 0.411(6) 0.09(4) 1. 0
H2 H1+ 36 i 0.534(7) 0.623(7) 0.074(4) 0.08(2) 1. 0
H3 H1+ 18 h 0.405(13) 0.595 0.476(12) 0.30(13) 1. 0
loop_
_atom_site_aniso_label
_atom_site_aniso_type_symbol
_atom_site_aniso_U_11
_atom_site_aniso_U_22
_atom_site_aniso_U_33
_atom_site_aniso_U_12
_atom_site_aniso_U_13
_atom_site_aniso_U_23
Tl1 Tl3+ 0.0298(3) 0.0298 0.0295(3) 0.0149 0 0
Cl1 Cl1- 0.0377(10) 0.0578(13) 0.0537(13) 0.0241(10) 0.0120(9) 0.0058(10)
Na1 Na1+ 0.0443(15) 0.0443 0.0389(20) 0.0222 0 0
Na2 Na1+ 0.0555(23) 0.0555 0.0353(29) 0.0277 0 0
O1 O2- 0.0642(27) 0.0642 0.0576(29) 0.0427(32) 0.0005(11) -.0005
O2 O2- 0.0637(41) 0.0580(42) 0.0526(37) 0.0388(33) 0.0009(32) 0.0046(32)
#End of TTdata_14106-ICSD