
#(C) 2019 by FIZ Karlsruhe - Leibniz Institute for Information Infrastructure.  All rights reserved.
data_14243-ICSD
_database_code_ICSD 14243
_audit_creation_date 1984-09-06
_audit_update_record 2000-07-15
_chemical_name_systematic 'Calcium sodium aluminium disilicate'
_chemical_formula_structural 'Ca Na Al (Si2 O7)'
_chemical_formula_sum 'Al1 Ca1 Na1 O7 Si2'
_chemical_name_structure_type Melilite-Ca2MgSi2O7
_chemical_name_mineral Soda-melilite
_exptl_crystal_density_diffrn 2.91
_publ_section_title
'The crystal structure of synthetic soda melilite, Ca Na Al Si2 O7'
loop_
_citation_id
_citation_journal_full
_citation_year
_citation_journal_volume
_citation_page_first
_citation_page_last
_citation_journal_id_ASTM
primary 'Zeitschrift fuer Kristallographie' 1970 131 314 321 ZEKRDZ
loop_
_publ_author_name
'Louisnathan, S.J.'
_cell_length_a 7.6344(6)
_cell_length_b 7.6344(6)
_cell_length_c 5.0513(6)
_cell_angle_alpha 90.
_cell_angle_beta 90.
_cell_angle_gamma 90.
_cell_volume 294.41
_cell_formula_units_Z 2
_symmetry_space_group_name_H-M 'P -4 21 m'
_symmetry_Int_Tables_number 113
_refine_ls_R_factor_all 0.051
loop_
_symmetry_equiv_pos_site_id
_symmetry_equiv_pos_as_xyz
1 '-y+1/2, -x+1/2, z'
2 'y, -x, -z'
3 'y+1/2, x+1/2, z'
4 '-y, x, -z'
5 'x+1/2, -y+1/2, -z'
6 '-x, -y, z'
7 '-x+1/2, y+1/2, -z'
8 'x, y, z'
loop_
_atom_type_symbol
_atom_type_oxidation_number
Na1+ 1
Ca2+ 2
Al3+ 3
Si4+ 4
O2- -2
loop_
_atom_site_label
_atom_site_type_symbol
_atom_site_symmetry_multiplicity
_atom_site_Wyckoff_symbol
_atom_site_fract_x
_atom_site_fract_y
_atom_site_fract_z
_atom_site_B_iso_or_equiv
_atom_site_occupancy
_atom_site_attached_hydrogens
Na1 Na1+ 4 e 0.3399(2) 0.1601 0.5134(3) . 0.498(3) 0
Ca1 Ca2+ 4 e 0.3399(2) 0.1601 0.5134(3) . 0.498(3) 0
Al1 Al3+ 2 a 0 0 0 . 1. 0
Si1 Si4+ 4 e 0.1416(2) 0.3584 0.9531(3) . 1. 0
O1 O2- 2 c 0.5 0 0.1687(12) . 1. 0
O2 O2- 4 e 0.1428(6) 0.3572 0.2652(9) . 1. 0
O3 O2- 8 f 0.0852(4) 0.1747(5) 0.8120(6) . 1. 0
loop_
_atom_site_aniso_label
_atom_site_aniso_type_symbol
_atom_site_aniso_beta_11
_atom_site_aniso_beta_22
_atom_site_aniso_beta_33
_atom_site_aniso_beta_12
_atom_site_aniso_beta_13
_atom_site_aniso_beta_23
Na1 Na1+ 0.0050(2) 0.0050(2) 0.0071(5) 0.0015(3) 0.0009(2) -.0009(2)
Ca1 Ca2+ 0.0050(2) 0.0050(2) 0.0071(5) 0.0015(3) 0.0009(2) -.0009(2)
Al1 Al3+ 0.0018 0.0018 0.0047(7) 0 0 0
Si1 Si4+ 0.0009(2) 0.0009(2) 0.0010(4) -.0003(2) -.0002(2) -.0002(2)
O1 O2- 0.0034(6) 0.0034(6) 0.0034(16) -.0023(9) 0 0
O2 O2- 0.0074(6) 0.0074(6) 0.0075(12) 0.0007(10) -.0012(7) -.0012(7)
O3 O2- 0.0045(6) 0.0035(6) 0.0059(8) -.0013(5) 0.0013(6) 0.0010(6)
#End of TTdata_14243-ICSD