
#(C) 2019 by FIZ Karlsruhe - Leibniz Institute for Information Infrastructure.  All rights reserved.
data_14306-ICSD
_database_code_ICSD 14306
_audit_creation_date 1980-01-01
_audit_update_record 2015-08-01
_chemical_name_systematic 'Sodium aluminium sulfate(VI) dodecahydrate'
_chemical_formula_structural 'Na Al (S O4)2 (H2 O)12'
_chemical_formula_sum 'H24 Al1 Na1 O20 S2'
_chemical_name_structure_type KAl(SO4)2(H2O)12
_chemical_name_mineral Alum-(Na)
_exptl_crystal_density_diffrn 1.67
_publ_section_title
'Thermal motion of the sulfate group in sodium alum Na Al (S O4)2 (H2 O)12'
loop_
_citation_id
_citation_journal_full
_citation_year
_citation_journal_volume
_citation_page_first
_citation_page_last
_citation_journal_id_ASTM
primary

;
Acta Crystallographica, Section B: Structural Crystallography and Crystal
Chemistry
; 1970 26 1349 1354 ACBCAR
loop_
_publ_author_name
'Kay, M.I.'
'Cromer, D.T.'
_cell_length_a 12.213(3)
_cell_length_b 12.213(3)
_cell_length_c 12.213(3)
_cell_angle_alpha 90.
_cell_angle_beta 90.
_cell_angle_gamma 90.
_cell_volume 1821.66
_cell_formula_units_Z 4
_symmetry_space_group_name_H-M 'P a -3'
_symmetry_Int_Tables_number 205
_refine_ls_R_factor_all 0.0366
loop_
_symmetry_equiv_pos_site_id
_symmetry_equiv_pos_as_xyz
1 '-z+1/2, x+1/2, y'
2 'z+1/2, x, -y+1/2'
3 'z, -x+1/2, y+1/2'
4 '-z, -x, -y'
5 'y, -z+1/2, x+1/2'
6 '-y+1/2, z+1/2, x'
7 'y+1/2, z, -x+1/2'
8 '-y, -z, -x'
9 'x+1/2, y, -z+1/2'
10 'x, -y+1/2, z+1/2'
11 '-x+1/2, y+1/2, z'
12 '-x, -y, -z'
13 'z+1/2, -x+1/2, -y'
14 '-z+1/2, -x, y+1/2'
15 '-z, x+1/2, -y+1/2'
16 'z, x, y'
17 '-y, z+1/2, -x+1/2'
18 'y+1/2, -z+1/2, -x'
19 '-y+1/2, -z, x+1/2'
20 'y, z, x'
21 '-x+1/2, -y, z+1/2'
22 '-x, y+1/2, -z+1/2'
23 'x+1/2, -y+1/2, -z'
24 'x, y, z'
loop_
_atom_type_symbol
_atom_type_oxidation_number
Na1+ 1
Al3+ 3
S6+ 6
O2- -2
H1+ 1
loop_
_atom_site_label
_atom_site_type_symbol
_atom_site_symmetry_multiplicity
_atom_site_Wyckoff_symbol
_atom_site_fract_x
_atom_site_fract_y
_atom_site_fract_z
_atom_site_B_iso_or_equiv
_atom_site_occupancy
_atom_site_attached_hydrogens
Na1 Na1+ 4 b 0.5 0.5 0.5 . 1. 0
Al1 Al3+ 4 a 0 0 0 . 1. 0
S1 S6+ 8 c 0.2653(1) 0.2653(1) 0.2653(1) . 1. 0
O1 O2- 8 c 0.3343(2) 0.3343(2) 0.3343(2) . 1. 0
O2 O2- 24 d 0.2958(3) 0.2783(3) 0.1505(2) . 1. 0
O3 O2- 24 d 0.0767(2) 0.0403(2) 0.3188(2) . 1. 0
O4 O2- 24 d 0.1371(2) 0.9596(2) 0.0573(2) . 1. 0
H1 H1+ 24 d 0.5958(21) 0.3172(20) 0.3663(21) 3.4 1. 0
H2 H1+ 24 d 0.4709(22) 0.3123(21) 0.3808(20) 4. 1. 0
H3 H1+ 24 d 0.5504(18) 0.2031(15) 0.4958(17) 3.2 1. 0
H4 H1+ 24 d 0.5926(17) 0.3422(16) 0.1104(18) 2.4 1. 0
loop_
_atom_site_aniso_label
_atom_site_aniso_type_symbol
_atom_site_aniso_beta_11
_atom_site_aniso_beta_22
_atom_site_aniso_beta_33
_atom_site_aniso_beta_12
_atom_site_aniso_beta_13
_atom_site_aniso_beta_23
Na1 Na1+ 0.00412(10) 0.00412(10) 0.00412(10) -.00015(10) -.00015(10) -.00015(10)
Al1 Al3+ 0.00284(7) 0.00284(7) 0.00284(7) 0.00025(7) 0.00025(7) 0.00025(7)
S1 S6+ 0.00392(7) 0.00392(7) 0.00392(7) 0.00022(7) 0.00022(7) 0.00022(7)
O1 O2- 0.00686(22) 0.00686(22) 0.00686(22) -.00161(22) -.00161(22) -.00161(22)
O2 O2- 0.01358(41) 0.00725(31) 0.00514(24) -.00485(28) 0.00381(26) -.00055(23)
O3 O2- 0.00619(21) 0.00591(21) 0.00419(18) -0.00184(20) 0.00024(17) 0.00055(16)
O4 O2- 0.00338(16) 0.00438(17) 0.00498(17) 0.00038(15) -0.00049(14) 0.00086(14)
#End of TTdata_14306-ICSD