
#(C) 2019 by FIZ Karlsruhe - Leibniz Institute for Information Infrastructure.  All rights reserved.
data_14310-ICSD
_database_code_ICSD 14310
_audit_creation_date 1980-01-01
_audit_update_record 2012-02-01
_chemical_name_systematic 'Sodium ammonium sulfate(VI) dihydrate'
_chemical_formula_structural 'Na (N H4) (S O4) (H2 O)2'
_chemical_formula_sum 'H8 N1 Na1 O6 S1'
_chemical_name_structure_type NaNH4CrO4(H2O)2
_chemical_name_mineral Lecontite
_exptl_crystal_density_diffrn 1.75
_publ_section_title 'The Crystal Structure of Lecontite, Na N H4 S O4 (H2 O)2'
loop_
_citation_id
_citation_journal_full
_citation_year
_citation_journal_volume
_citation_page_first
_citation_page_last
_citation_journal_id_ASTM
primary 'Acta Crystallographica' 1967 22 683 687 ACCRA9
loop_
_publ_author_name
'Corazza, E.'
'Sabelli, C.'
'Giuseppetti, G.'
_cell_length_a 8.216(8)
_cell_length_b 12.854(11)
_cell_length_c 6.232(8)
_cell_angle_alpha 90.
_cell_angle_beta 90.
_cell_angle_gamma 90.
_cell_volume 658.15
_cell_formula_units_Z 4
_symmetry_space_group_name_H-M 'P 21 21 21'
_symmetry_Int_Tables_number 19
_refine_ls_R_factor_all 0.08
loop_
_symmetry_equiv_pos_site_id
_symmetry_equiv_pos_as_xyz
1 '-x, y+1/2, -z+1/2'
2 'x+1/2, -y+1/2, -z'
3 '-x+1/2, -y, z+1/2'
4 'x, y, z'
loop_
_atom_type_symbol
_atom_type_oxidation_number
S6+ 6
Na1+ 1
O2- -2
N3- -3
H1+ 1
loop_
_atom_site_label
_atom_site_type_symbol
_atom_site_symmetry_multiplicity
_atom_site_Wyckoff_symbol
_atom_site_fract_x
_atom_site_fract_y
_atom_site_fract_z
_atom_site_B_iso_or_equiv
_atom_site_occupancy
_atom_site_attached_hydrogens
S1 S6+ 4 a 0.0842(2) 0.1277(1) 0.3733(6) . 1. 0
Na1 Na1+ 4 a 0.2652(4) 0.4847(2) 0.9133(8) . 1. 0
O1 O2- 4 a 0.0690(9) 0.2001(6) 0.1890(28) . 1. 0
O2 O2- 4 a 0.0617(12) 0.1894(3) 0.5740(27) . 1. 0
O3 O2- 4 a 0.245(1) 0.0807(5) 0.3719(24) . 1. 0
O4 O2- 4 a 0.0392(10) 0.5455(5) 0.138(2) . 1. 0
O5 O2- 4 a 0.2115(7) 0.6350(4) 0.6949(16) . 1. 0
O6 O2- 4 a 0.0793(6) 0.4039(4) 0.6625(19) . 1. 0
N1 N3- 4 a 0.1719(8) 0.8541(5) 0.3678(24) . 1. 0
H1 H1+ 4 a 0.91 0.145 0.7 . 1. 0
H2 H1+ 4 a 0.71 0.19 0.78 . 1. 0
H3 H1+ 4 a 0.57 0.175 0.37 . 1. 0
H4 H1+ 4 a 0.48 0.09 0.36 . 1. 0
H5 H1+ 4 a 0.395 0.2 0.855 . 1. 0
H6 H1+ 4 a 0.41 0.06 0.86 . 1. 0
H7 H1+ 4 a 0.23 0.16 0.99 . 1. 0
H8 H1+ 4 a 0.24 0.16 0.78 . 1. 0
loop_
_atom_site_aniso_label
_atom_site_aniso_type_symbol
_atom_site_aniso_beta_11
_atom_site_aniso_beta_22
_atom_site_aniso_beta_33
_atom_site_aniso_beta_12
_atom_site_aniso_beta_13
_atom_site_aniso_beta_23
S1 S6+ 0.0048(1) 0.0026 0.0069(16) -.0005(2) 0.0002(5) 0.0001(3)
Na1 Na1+ 0.0091(2) 0.0041(1) 0.0006(24) -.0009(4) -.0003(10) 0.0005(6)
O1 O2- 0.0146(5) 0.0048(4) 0.0245(78) -.0007(11) -.0006(32) 0.0064(23)
O2 O2- 0.0171(9) 0.0055(1) 0.0191(66) -.0040(8) 0.0066(32) -.0037(12)
O3 O2- 0.0051(1) 0.0055(3) 0.0386(71) 0.0004(8) -.0037(21) 0.0004(18)
O4 O2- 0.0066(4) 0.0043(3) 0.0108(51) 0.0019(8) 0.0009(21) 0.0018(15)
O5 O2- 0.0103(6) 0.0038(2) 0.0041(41) 0.0008(7) 0.001(2) -.0026(10)
O6 O2- 0.0073(3) 0.0048(2) 0.0164(50) -.0003(7) -.0012(18) -.0021(12)
N1 N3- 0.0108(3) 0.0030(2) 0.0198(62) -.0006(8) -.0083(19) 0.0005(15)
#End of TTdata_14310-ICSD