
#(C) 2019 by FIZ Karlsruhe - Leibniz Institute for Information Infrastructure.  All rights reserved.
data_150464-ICSD
_database_code_ICSD 150464
_audit_creation_date 2006-04-01
_audit_update_record 2009-02-01
_chemical_name_systematic 'Sodium chlorate(V) bromate(V) (1/0.75/0.26)'
_chemical_formula_structural 'Na ((Cl O3)0.745 (Br O3)0.255)'
_chemical_formula_sum 'Br0.255 Cl0.745 Na1 O3'
_chemical_name_structure_type NaClO3
_exptl_crystal_density_diffrn 2.71
_publ_section_title
'Kinetic ordering of atoms in sodium chlorate-bromate solid solutions'
loop_
_citation_id
_citation_journal_full
_citation_year
_citation_journal_volume
_citation_page_first
_citation_page_last
_citation_journal_id_ASTM
primary 'Journal of Solid State Chemistry' 2004 177 4732 4742 JSSCBI
loop_
_publ_author_name
'Shtukenberg, A.G.'
'Rozhdestvenskaya, I.V.'
'Popov, D.Yu.'
'Punin, Yu.O.'
_cell_length_a 6.611(1)
_cell_length_b 6.611(1)
_cell_length_c 6.611(1)
_cell_angle_alpha 90.
_cell_angle_beta 90.
_cell_angle_gamma 90.
_cell_volume 288.94
_cell_formula_units_Z 4
_symmetry_space_group_name_H-M 'P 21 3'
_symmetry_Int_Tables_number 198
_refine_ls_R_factor_all 0.032
loop_
_symmetry_equiv_pos_site_id
_symmetry_equiv_pos_as_xyz
1 '-z+1/2, -x, y+1/2'
2 '-y+1/2, -z, x+1/2'
3 '-x+1/2, -y, z+1/2'
4 '-z, x+1/2, -y+1/2'
5 '-y, z+1/2, -x+1/2'
6 '-x, y+1/2, -z+1/2'
7 'z+1/2, -x+1/2, -y'
8 'y+1/2, -z+1/2, -x'
9 'x+1/2, -y+1/2, -z'
10 'z, x, y'
11 'y, z, x'
12 'x, y, z'
loop_
_atom_type_symbol
_atom_type_oxidation_number
Cl5+ 5
Br5+ 5
Na1+ 1
O2- -2
loop_
_atom_site_label
_atom_site_type_symbol
_atom_site_symmetry_multiplicity
_atom_site_Wyckoff_symbol
_atom_site_fract_x
_atom_site_fract_y
_atom_site_fract_z
_atom_site_B_iso_or_equiv
_atom_site_occupancy
_atom_site_attached_hydrogens
Cl1 Cl5+ 4 a 0.41393(6) 0.41393(6) 0.41393(6) 0.01610(6) 0.747(6) 0
Br1 Br5+ 4 a 0.41393(6) 0.41393(6) 0.41393(6) 0.01610(6) 0.253(6) 0
Na1 Na1+ 4 a 0.0703(2) 0.0703(2) 0.0703(2) 0.0223(2) 1. 0
O1 O2- 12 b 0.3006(3) 0.5949(3) 0.5051(3) 0.0250(5) 1. 0
#End of TTdata_150464-ICSD