
#(C) 2019 by FIZ Karlsruhe - Leibniz Institute for Information Infrastructure.  All rights reserved.
data_150468-ICSD
_database_code_ICSD 150468
_audit_creation_date 2006-04-01
_audit_update_record 2013-02-01
_chemical_name_systematic 'Sodium chlorate(V) bromate(V) (1/0.75/0.26)'
_chemical_formula_structural 'Na ((Cl O3)0.745 (Br O3)0.255)'
_chemical_formula_sum 'Br0.255 Cl0.745 Na1 O3'
_chemical_name_structure_type Na(Cl,Br)O3(P1)
_exptl_crystal_density_diffrn 2.71
_publ_section_title
'Kinetic ordering of atoms in sodium chlorate-bromate solid solutions'
loop_
_citation_id
_citation_journal_full
_citation_year
_citation_journal_volume
_citation_page_first
_citation_page_last
_citation_journal_id_ASTM
primary 'Journal of Solid State Chemistry' 2004 177 4732 4742 JSSCBI
loop_
_publ_author_name
'Shtukenberg, A.G.'
'Rozhdestvenskaya, I.V.'
'Popov, D.Yu.'
'Punin, Yu.O.'
_cell_length_a 6.611(1)
_cell_length_b 6.610(1)
_cell_length_c 6.611(1)
_cell_angle_alpha 89.99(1)
_cell_angle_beta 90.06(1)
_cell_angle_gamma 90.01(1)
_cell_volume 288.89
_cell_formula_units_Z 4
_symmetry_space_group_name_H-M 'P 1'
_symmetry_Int_Tables_number 1
_refine_ls_R_factor_all 0.038
loop_
_symmetry_equiv_pos_site_id
_symmetry_equiv_pos_as_xyz
1 'x, y, z'
loop_
_atom_type_symbol
_atom_type_oxidation_number
Cl5+ 5
Br5+ 5
Cl5+ 5
Br5+ 5
Cl5+ 5
Br5+ 5
Cl5+ 5
Br5+ 5
Na1+ 1
O2- -2
loop_
_atom_site_label
_atom_site_type_symbol
_atom_site_symmetry_multiplicity
_atom_site_Wyckoff_symbol
_atom_site_fract_x
_atom_site_fract_y
_atom_site_fract_z
_atom_site_B_iso_or_equiv
_atom_site_occupancy
_atom_site_attached_hydrogens
Cl1 Cl5+ 1 a 0.4098(1) 0.4165(1) 0.4179(1) 0.0161(1) 0.730(5) 0
Br1 Br5+ 1 a 0.4098(1) 0.4165(1) 0.4179(1) 0.0161(1) 0.270(5) 0
Cl2 Cl5+ 1 a 0.0823(1) 0.5888(1) 0.9188(1) 0.0167(1) 0.725(5) 0
Br2 Br5+ 1 a 0.0823(1) 0.5888(1) 0.9188(1) 0.0167(1) 0.275(5) 0
Cl3 Cl5+ 1 a 0.5831(1) 0.9164(1) 0.0912(1) 0.0166(1) 0.713(5) 0
Br3 Br5+ 1 a 0.5831(1) 0.9164(1) 0.0912(1) 0.0166(1) 0.287(5) 0
Cl4 Cl5+ 1 a 0.9116(1) 0.0882(1) 0.5896(1) 0.0170(1) 0.788(5) 0
Br4 Br5+ 1 a 0.9116(1) 0.0882(1) 0.5896(1) 0.0170(1) 0.212(5) 0
Na1 Na1+ 1 a 0.0699(3) 0.0740(3) 0.0741(3) 0.0236(4) 1. 0
Na2 Na1+ 1 a 0.4287(3) -0.0675(3) 0.5758(3) 0.0231(4) 1. 0
Na3 Na1+ 1 a -0.0713(3) 0.5736(3) 0.4338(3) 0.0231(4) 1. 0
Na4 Na1+ 1 a 0.5696(3) 0.4322(3) -0.0665(3) 0.0240(4) 1. 0
O1 O2- 1 a 0.2996(5) 0.5983(5) 0.5088(5) 0.0258(7) 1. 0
O2 O2- 1 a 0.1986(5) 0.4088(5) 0.0100(5) 0.0264(8) 1. 0
O3 O2- 1 a 0.6996(5) 0.0981(5) -0.0006(5) 0.0264(8) 1. 0
O4 O2- 1 a 0.8004(5) -0.0910(5) 0.4999(5) 0.0261(8) 1. 0
O5 O2- 1 a 0.5049(5) 0.3025(5) 0.5985(5) 0.0266(8) 1. 0
O6 O2- 1 a 0.0039(5) 0.2017(5) 0.4103(5) 0.0255(7) 1. 0
O7 O2- 1 a -0.0070(5) 0.7023(5) 0.0982(5) 0.0257(7) 1. 0
O8 O2- 1 a 0.4939(5) 0.8027(5) -0.0905(5) 0.0264(8) 1. 0
O9 O2- 1 a 0.5941(5) 0.5083(5) 0.3054(5) 0.0261(8) 1. 0
O10 O2- 1 a 0.4049(5) 0.0085(5) 0.2043(5) 0.0261(8) 1. 0
O11 O2- 1 a 0.0934(5) -0.0029(5) 0.7038(5) 0.0261(8) 1. 0
O12 O2- 1 a -0.0957(3) 0.4977(5) 0.8058(5) 0.0261(8) 1. 0
#End of TTdata_150468-ICSD