
#(C) 2019 by FIZ Karlsruhe - Leibniz Institute for Information Infrastructure.  All rights reserved.
data_150465-ICSD
_database_code_ICSD 150465
_audit_creation_date 2006-04-01
_audit_update_record 2010-02-01
_chemical_name_systematic 'Sodium chlorate(V) bromate(V) (1/0.9/0.1)'
_chemical_formula_structural 'Na ((Cl O3)0.9 (Br O3)0.1)'
_chemical_formula_sum 'Br0.1 Cl0.9 Na1 O3'
_chemical_name_structure_type Na(Cl,Br)O3
_exptl_crystal_density_diffrn 2.57
_publ_section_title
'Kinetic ordering of atoms in sodium chlorate-bromate solid solutions'
loop_
_citation_id
_citation_journal_full
_citation_year
_citation_journal_volume
_citation_page_first
_citation_page_last
_citation_journal_id_ASTM
primary 'Journal of Solid State Chemistry' 2004 177 4732 4742 JSSCBI
loop_
_publ_author_name
'Shtukenberg, A.G.'
'Rozhdestvenskaya, I.V.'
'Popov, D.Yu.'
'Punin, Yu.O.'
_cell_length_a 6.590(1)
_cell_length_b 6.591(1)
_cell_length_c 6.592(1)
_cell_angle_alpha 90.
_cell_angle_beta 90.06(1)
_cell_angle_gamma 90.
_cell_volume 286.32
_cell_formula_units_Z 4
_symmetry_space_group_name_H-M 'P 1 21 1'
_symmetry_Int_Tables_number 4
_refine_ls_R_factor_all 0.034
loop_
_symmetry_equiv_pos_site_id
_symmetry_equiv_pos_as_xyz
1 '-x, y+1/2, -z'
2 'x, y, z'
loop_
_atom_type_symbol
_atom_type_oxidation_number
Cl5+ 5
Br5+ 5
Cl5+ 5
Br5+ 5
Na1+ 1
O2- -2
loop_
_atom_site_label
_atom_site_type_symbol
_atom_site_symmetry_multiplicity
_atom_site_Wyckoff_symbol
_atom_site_fract_x
_atom_site_fract_y
_atom_site_fract_z
_atom_site_B_iso_or_equiv
_atom_site_occupancy
_atom_site_attached_hydrogens
Cl1 Cl5+ 2 a 0.58457(6) 0.9159 0.33453(6) 0.01599(8) 0.865(2) 0
Br1 Br5+ 2 a 0.58457(6) 0.9159 0.33453(6) 0.01599(8) 0.135(2) 0
Cl2 Cl5+ 2 a 0.08317(6) 0.58325(8) 0.16667(6) 0.01564(9) 0.932(2) 0
Br2 Br5+ 2 a 0.08317(6) 0.58325(8) 0.16667(6) 0.01564(9) 0.068(2) 0
Na1 Na1+ 2 a 0.4307(2) 0.9294(2) 0.8197(2) 0.0236(3) 1. 0
Na2 Na1+ 2 a 0.9308(2) 0.5680(2) 0.6810(2) 0.0240(3) 1. 0
O1 O2- 2 a 0.8029(3) 0.9064(4) 0.7443(3) 0.0259(4) 1. 0
O2 O2- 2 a 0.3015(3) 0.5927(3) 0.7540(3) 0.0259(4) 1. 0
O3 O2- 2 a 0.4951(3) 0.8004(4) 0.1573(3) 0.0259(5) 1. 0
O4 O2- 2 a 0.9950(3) 0.6957(4) 0.3422(3) 0.0264(5) 1. 0
O5 O2- 2 a 0.5927(3) 0.5039(4) 0.5515(3) 0.0266(5) 1. 0
O6 O2- 2 a 0.9075(3) 0.4937(4) 0.0527(3) 0.0263(5) 1. 0
#End of TTdata_150465-ICSD