
#(C) 2019 by FIZ Karlsruhe - Leibniz Institute for Information Infrastructure.  All rights reserved.
data_151411-ICSD
_database_code_ICSD 151411
_audit_creation_date 2006-10-01
_chemical_name_systematic 'Sodium cadmium vanadate'
_chemical_formula_structural 'Na Cd (V O4)'
_chemical_formula_sum 'Cd1 Na1 O4 V1'
_chemical_name_structure_type Na2CrO4
_exptl_crystal_density_diffrn 4.51
_publ_section_title 'Structure cristalline de l'orthovanadate Na Cd V O4'
loop_
_citation_id
_citation_journal_full
_citation_year
_citation_journal_volume
_citation_page_first
_citation_page_last
_citation_journal_id_ASTM
primary 'Annales de Chimie (Cachan, France)' 2004 29 95 104 ANCPAC
loop_
_publ_author_name
'Azrour, M.'
'El Ammari, L.'
'le Fur, Y.'
'Elouadi, B.'
_cell_length_a 5.778(1)
_cell_length_b 9.132(2)
_cell_length_c 6.993(1)
_cell_angle_alpha 90.
_cell_angle_beta 90.
_cell_angle_gamma 90.
_cell_volume 368.98
_cell_formula_units_Z 4
_symmetry_space_group_name_H-M 'C m c m'
_symmetry_Int_Tables_number 63
_refine_ls_R_factor_all 0.033
loop_
_symmetry_equiv_pos_site_id
_symmetry_equiv_pos_as_xyz
1 '-x, y, -z+1/2'
2 '-x, -y, z+1/2'
3 '-x, y, z'
4 '-x, -y, -z'
5 'x, -y, z+1/2'
6 'x, y, -z+1/2'
7 'x, -y, -z'
8 'x, y, z'
9 '-x+1/2, y+1/2, -z+1/2'
10 '-x+1/2, -y+1/2, z+1/2'
11 '-x+1/2, y+1/2, z'
12 '-x+1/2, -y+1/2, -z'
13 'x+1/2, -y+1/2, z+1/2'
14 'x+1/2, y+1/2, -z+1/2'
15 'x+1/2, -y+1/2, -z'
16 'x+1/2, y+1/2, z'
loop_
_atom_type_symbol
_atom_type_oxidation_number
Cd2+ 2
V5+ 5
Na1+ 1
O2- -2
loop_
_atom_site_label
_atom_site_type_symbol
_atom_site_symmetry_multiplicity
_atom_site_Wyckoff_symbol
_atom_site_fract_x
_atom_site_fract_y
_atom_site_fract_z
_atom_site_B_iso_or_equiv
_atom_site_occupancy
_atom_site_attached_hydrogens
Cd1 Cd2+ 4 a 0 0 0 0.0104(3) 1. 0
V1 V5+ 4 c 0.5 0.1491(2) 0.75 0.0081(3) 1. 0
Na1 Na1+ 4 c 0.5 0.1841(4) 0.25 0.0213(2) 1. 0
O1 O2- 8 f 0 0.2433(6) 0.0582(7) 0.018(3) 1. 0
O2 O2- 8 g 0.257(1) 0.0379(5) 0.75 0.012(2) 1. 0
loop_
_atom_site_aniso_label
_atom_site_aniso_type_symbol
_atom_site_aniso_U_11
_atom_site_aniso_U_22
_atom_site_aniso_U_33
_atom_site_aniso_U_12
_atom_site_aniso_U_13
_atom_site_aniso_U_23
Cd1 Cd2+ 0.0111(3) 0.0107(3) 0.0094(3) 0. 0. 0.0002(2)
V1 V5+ 0.0056(6) 0.0095(5) 0.0091(6) 0. 0. 0.
Na1 Na1+ 0.038(2) 0.011(2) 0.015(2) 0. 0. 0.
O1 O2- 0.025(3) 0.016(2) 0.013(2) 0. 0. -0.004(2)
O2 O2- 0.008(2) 0.018(2) 0.009(2) -0.002(2) 0. 0.
#End of TTdata_151411-ICSD