
#(C) 2019 by FIZ Karlsruhe - Leibniz Institute for Information Infrastructure.  All rights reserved.
data_151456-ICSD
_database_code_ICSD 151456
_audit_creation_date 2006-10-01
_chemical_name_systematic 'Disodium zinc bis(sulfate(VI)) tetrahydrate'
_chemical_formula_structural 'Na2 Zn (S O4)2 (H2 O)4'
_chemical_formula_sum 'H8 Na2 O12 S2 Zn1'
_chemical_name_structure_type Bloedite
_exptl_crystal_density_diffrn 2.5
_publ_section_title

;
Bloedite-type compounds Na2 Me (S O4)2 * 4(H2 O) (Me = Mg, Co, Ni, Zn):
crystal structures and hydrogen bonding systems
;
loop_
_citation_id
_citation_journal_full
_citation_year
_citation_journal_volume
_citation_page_first
_citation_page_last
_citation_journal_id_ASTM
primary 'Journal of Molecular Structure' 2004 706 57 63 JMOSB4
loop_
_publ_author_name
'Stoilova, D.'
'Wildner, M.'
_cell_length_a 11.081(1)
_cell_length_b 8.258(1)
_cell_length_c 5.538(1)
_cell_angle_alpha 90.
_cell_angle_beta 100.20(1)
_cell_angle_gamma 90.
_cell_volume 498.76
_cell_formula_units_Z 2
_symmetry_space_group_name_H-M 'P 1 21/a 1'
_symmetry_Int_Tables_number 14
_refine_ls_R_factor_all 0.0205
loop_
_symmetry_equiv_pos_site_id
_symmetry_equiv_pos_as_xyz
1 'x+1/2, -y+1/2, z'
2 '-x, -y, -z'
3 '-x+1/2, y+1/2, -z'
4 'x, y, z'
loop_
_atom_type_symbol
_atom_type_oxidation_number
Zn2+ 2
S6+ 6
Na1+ 1
O2- -2
H1+ 1
loop_
_atom_site_label
_atom_site_type_symbol
_atom_site_symmetry_multiplicity
_atom_site_Wyckoff_symbol
_atom_site_fract_x
_atom_site_fract_y
_atom_site_fract_z
_atom_site_B_iso_or_equiv
_atom_site_occupancy
_atom_site_attached_hydrogens
Zn1 Zn2+ 2 a 0 0 0 0.0136(1) 1. 0
S1 S6+ 4 e 0.13649(2) 0.28838(2) 0.37167(3) 0.0119(1) 1. 0
Na1 Na1+ 4 e 0.36190(3) 0.07004(5) 0.12802(8) 0.0209(1) 1. 0
O1 O2- 4 e 0.26701(6) 0.27064(9) 0.34841(14) 0.0214(1) 1. 0
O2 O2- 4 e 0.07895(6) 0.41538(9) 0.20744(14) 0.0226(1) 1. 0
O3 O2- 4 e 0.07197(7) 0.13280(9) 0.31731(13) 0.0221(1) 1. 0
O4 O2- 4 e 0.13199(7) 0.32890(9) 0.63129(12) 0.0220(1) 1. 0
O5 O2- 4 e 0.16197(6) 0.03739(10) 0.87266(13) 0.0170(1) 1. 0
O6 O2- 4 e 0.41841(7) 0.28688(9) 0.82482(13) 0.0186(1) 1. 0
H1 H1+ 4 e 0.175(2) -0.034(2) 0.785(3) 0.028(4) 1. 0
H2 H1+ 4 e 0.159(2) 0.118(2) 0.789(3) 0.035(4) 1. 0
H3 H1+ 4 e 0.364(2) 0.294(3) 0.699(4) 0.048(5) 1. 0
H4 H1+ 4 e 0.465(2) 0.227(3) 0.767(4) 0.062(6) 1. 0
#End of TTdata_151456-ICSD