
#(C) 2019 by FIZ Karlsruhe - Leibniz Institute for Information Infrastructure.  All rights reserved.
data_151454-ICSD
_database_code_ICSD 151454
_audit_creation_date 2006-10-01
_chemical_name_systematic 'Disodium cobalt bis(sulfate(VI)) tetrahydrate'
_chemical_formula_structural 'Na2 Co (S O4)2 (H2 O)4'
_chemical_formula_sum 'H8 Co1 Na2 O12 S2'
_chemical_name_structure_type Bloedite
_exptl_crystal_density_diffrn 2.45
_publ_section_title

;
Bloedite-type compounds Na2 Me (S O4)2 * 4(H2 O) (Me = Mg, Co, Ni, Zn):
crystal structures and hydrogen bonding systems
;
loop_
_citation_id
_citation_journal_full
_citation_year
_citation_journal_volume
_citation_page_first
_citation_page_last
_citation_journal_id_ASTM
primary 'Journal of Molecular Structure' 2004 706 57 63 JMOSB4
loop_
_publ_author_name
'Stoilova, D.'
'Wildner, M.'
_cell_length_a 11.109(1)
_cell_length_b 8.252(1)
_cell_length_c 5.542(1)
_cell_angle_alpha 90.
_cell_angle_beta 100.39(1)
_cell_angle_gamma 90.
_cell_volume 499.71
_cell_formula_units_Z 2
_symmetry_space_group_name_H-M 'P 1 21/a 1'
_symmetry_Int_Tables_number 14
_refine_ls_R_factor_all 0.0204
loop_
_symmetry_equiv_pos_site_id
_symmetry_equiv_pos_as_xyz
1 'x+1/2, -y+1/2, z'
2 '-x, -y, -z'
3 '-x+1/2, y+1/2, -z'
4 'x, y, z'
loop_
_atom_type_symbol
_atom_type_oxidation_number
Co2+ 2
S6+ 6
Na1+ 1
O2- -2
H1+ 1
loop_
_atom_site_label
_atom_site_type_symbol
_atom_site_symmetry_multiplicity
_atom_site_Wyckoff_symbol
_atom_site_fract_x
_atom_site_fract_y
_atom_site_fract_z
_atom_site_B_iso_or_equiv
_atom_site_occupancy
_atom_site_attached_hydrogens
Co1 Co2+ 2 a 0 0 0 0.0120(1) 1. 0
S1 S6+ 4 e 0.13642(2) 0.28798(2) 0.36961(3) 0.0118(1) 1. 0
Na1 Na1+ 4 e 0.36178(3) 0.06992(5) 0.12862(7) 0.0210(1) 1. 0
O1 O2- 4 e 0.26680(6) 0.27065(9) 0.34748(13) 0.0211(1) 1. 0
O2 O2- 4 e 0.07861(6) 0.41466(9) 0.20475(13) 0.0223(1) 1. 0
O3 O2- 4 e 0.07261(7) 0.13159(8) 0.31487(12) 0.0214(1) 1. 0
O4 O2- 4 e 0.13136(7) 0.32871(9) 0.62833(11) 0.0217(1) 1. 0
O5 O2- 4 e 0.16203(6) 0.03821(9) 0.87195(12) 0.0169(1) 1. 0
O6 O2- 4 e 0.41834(6) 0.28619(8) 0.82425(12) 0.0184(1) 1. 0
H1 H1+ 4 e 0.176(2) -0.035(2) 0.787(3) 0.034(4) 1. 0
H2 H1+ 4 e 0.156(2) 0.120(3) 0.787(4) 0.048(5) 1. 0
H3 H1+ 4 e 0.365(2) 0.301(2) 0.710(3) 0.038(4) 1. 0
H4 H1+ 4 e 0.465(2) 0.223(3) 0.775(4) 0.052(5) 1. 0
#End of TTdata_151454-ICSD