
#(C) 2019 by FIZ Karlsruhe - Leibniz Institute for Information Infrastructure.  All rights reserved.
data_151525-ICSD
_database_code_ICSD 151525
_audit_creation_date 2006-10-01
_chemical_name_systematic 'Sodium europium diphosphate(V)'
_chemical_formula_structural 'Na Eu (P2 O7)'
_chemical_formula_sum 'Eu1 Na1 O7 P2'
_chemical_name_structure_type Ca2P2O7
_exptl_crystal_density_diffrn 4.2
_publ_section_title
'Preparation, structure and infrared spectrum of Na Eu P2 O7'
loop_
_citation_id
_citation_journal_full
_citation_year
_citation_journal_volume
_citation_page_first
_citation_page_last
_citation_journal_id_ASTM
primary 'Materials Research Bulletin' 2004 39 1949 1955 MRBUAC
loop_
_publ_author_name
'Ferid, M.'
'Horchani, K.'
'Amami, J.'
_cell_length_a 5.238(2)
_cell_length_b 8.443(4)
_cell_length_c 12.486(6)
_cell_angle_alpha 90.
_cell_angle_beta 91.404(2)
_cell_angle_gamma 90.
_cell_volume 552.02
_cell_formula_units_Z 4
_symmetry_space_group_name_H-M 'P 1 21/n 1'
_symmetry_Int_Tables_number 14
_refine_ls_R_factor_all 0.049
loop_
_symmetry_equiv_pos_site_id
_symmetry_equiv_pos_as_xyz
1 '-x+1/2, y+1/2, -z+1/2'
2 '-x, -y, -z'
3 'x+1/2, -y+1/2, z+1/2'
4 'x, y, z'
loop_
_atom_type_symbol
_atom_type_oxidation_number
Eu3+ 3
Na1+ 1
P5+ 5
O2- -2
loop_
_atom_site_label
_atom_site_type_symbol
_atom_site_symmetry_multiplicity
_atom_site_Wyckoff_symbol
_atom_site_fract_x
_atom_site_fract_y
_atom_site_fract_z
_atom_site_B_iso_or_equiv
_atom_site_occupancy
_atom_site_attached_hydrogens
Eu1 Eu3+ 4 e 0.26724(9) 0.19879(6) 0.23338(4) 0.015 1. 0
Na1 Na1+ 4 e 0.7692(10) -0.6121(6) 0.4224(4) 0.026 1. 0
P1 P5+ 4 e 0.7396(5) -0.0023(3) 0.3177(2) 0.015 1. 0
P2 P5+ 4 e 0.7423(5) -0.2550(3) 0.4680(2) 0.015 1. 0
O1 O2- 4 e 0.9952(15) -0.0424(9) 0.2678(6) 0.018 1. 0
O2 O2- 4 e 0.5059(14) -0.0748(10) 0.2606(6) 0.017 1. 0
O3 O2- 4 e 0.7012(18) 0.1717(10) 0.3222(7) 0.023 1. 0
O4 O2- 4 e 0.7745(17) -0.2609(11) 0.5879(6) 0.024 1. 0
O5 O2- 4 e 0.4951(15) -0.3245(10) 0.4260(6) 0.02 1. 0
O6 O2- 4 e 0.7470(16) -0.0707(9) 0.4368(6) 0.019 1. 0
O7 O2- 4 e 0.9677(16) -0.3348(10) 0.4145(7) 0.022 1. 0
loop_
_atom_site_aniso_label
_atom_site_aniso_type_symbol
_atom_site_aniso_U_11
_atom_site_aniso_U_22
_atom_site_aniso_U_33
_atom_site_aniso_U_12
_atom_site_aniso_U_13
_atom_site_aniso_U_23
Eu1 Eu3+ 0.0138(4) 0.0157(4) 0.0147(4) 0.0004(2) -0.0001(2) -0.0002(2)
Na1 Na1+ 0.036(3) 0.023(2) 0.020(2) -0.001(2) -0.001(2) 0.000(2)
P1 P5+ 0.015(1) 0.015(1) 0.016(1) 0.000(1) -0.001(1) 0.000(1)
P2 P5+ 0.017(1) 0.015(1) 0.013(1) 0.001(1) -0.002(1) 0.000(1)
O1 O2- 0.015(4) 0.021(4) 0.019(3) -0.002(3) 0.003(3) 0.000(3)
O2 O2- 0.007(3) 0.023(4) 0.020(3) -0.003(3) -0.003(2) 0.001(3)
O3 O2- 0.027(4) 0.016(3) 0.027(4) 0.004(3) -0.005(3) -0.001(3)
O4 O2- 0.033(5) 0.025(4) 0.013(3) -0.008(4) -0.005(3) 0.001(3)
O5 O2- 0.015(4) 0.022(4) 0.021(4) -0.003(3) -0.004(3) 0.001(3)
O6 O2- 0.023(4) 0.017(4) 0.016(3) 0.003(3) -0.001(3) -0.001(3)
O7 O2- 0.022(4) 0.022(4) 0.021(4) 0.001(3) 0.002(3) 0.003(3)
#End of TTdata_151525-ICSD