
#(C) 2019 by FIZ Karlsruhe - Leibniz Institute for Information Infrastructure.  All rights reserved.
data_151973-ICSD
_database_code_ICSD 151973
_audit_creation_date 2006-10-01
_chemical_name_systematic 'Hexasodium undecamolybdate(VI)'
_chemical_formula_structural 'Na6 Mo11 O36'
_chemical_formula_sum 'Mo11 Na6 O36'
_exptl_crystal_density_diffrn 4.03
_publ_section_title

;
Study of the (Na2 O) - (Mo O3) system. Na6 Mo11 O36 - a new oxide with
anatase-related structure and the crystal structures of Na2 Mo O4
;
loop_
_citation_id
_citation_journal_full
_citation_year
_citation_journal_volume
_citation_page_first
_citation_page_last
_citation_journal_id_ASTM
primary 'Zeitschrift fuer Anorganische und Allgemeine Chemie (1950) (DE)' 2004
630 1336 1341 ZAACAB
loop_
_publ_author_name
'Bramnik, K.G.'
'Ehrenberg, H.'
_cell_length_a 7.2722(6)
_cell_length_b 22.376(1)
_cell_length_c 9.6686(8)
_cell_angle_alpha 89.98(1)
_cell_angle_beta 112.12(1)
_cell_angle_gamma 90.29(1)
_cell_volume 1457.48
_cell_formula_units_Z 2
_symmetry_space_group_name_H-M 'P -1'
_symmetry_Int_Tables_number 2
_refine_ls_R_factor_all 0.0289
loop_
_symmetry_equiv_pos_site_id
_symmetry_equiv_pos_as_xyz
1 '-x, -y, -z'
2 'x, y, z'
loop_
_atom_type_symbol
_atom_type_oxidation_number
Mo6+ 6
Na1+ 1
O2- -2
loop_
_atom_site_label
_atom_site_type_symbol
_atom_site_symmetry_multiplicity
_atom_site_Wyckoff_symbol
_atom_site_fract_x
_atom_site_fract_y
_atom_site_fract_z
_atom_site_B_iso_or_equiv
_atom_site_occupancy
_atom_site_attached_hydrogens
Mo1 Mo6+ 2 i -0.04764(6) -0.498983(18) -0.18736(5) 0.00792(9) 1. 0
Mo2 Mo6+ 2 i -0.36034(6) 0.001027(18) 0.18741(5) 0.00782(9) 1. 0
Mo3 Mo6+ 2 i -0.44766(6) -0.586874(19) -0.31031(4) 0.00834(9) 1. 0
Mo4 Mo6+ 2 i -0.36273(6) 0.086871(18) -0.31030(4) 0.00822(9) 1. 0
Mo5 Mo6+ 2 i -0.35970(6) -0.082833(18) -0.31806(5) 0.00799(9) 1. 0
Mo6 Mo6+ 2 i -0.04587(6) -0.328361(19) -0.16554(5) 0.00869(9) 1. 0
Mo7 Mo6+ 2 i -0.37020(6) -0.176189(19) 0.18664(5) 0.00995(9) 1. 0
Mo8 Mo6+ 2 i -0.45838(6) -0.417188(18) -0.31795(5) 0.00813(9) 1. 0
Mo9 Mo6+ 2 i 0.05687(6) -0.323831(19) 0.18659(5) 0.00995(9) 1. 0
Mo10 Mo6+ 2 i -0.43255(6) -0.249976(19) -0.36515(5) 0.00903(9) 1. 0
Mo11 Mo6+ 2 i -0.61973(6) -0.171629(19) -0.16559(5) 0.00870(9) 1. 0
Na1 Na1+ 1 e 0.5 0.5 0 0.0182(7) 1. 0
Na2 Na1+ 1 a 0 0 0 0.0175(7) 1. 0
Na3 Na1+ 2 i -0.0113(3) 0.08714(10) -0.4976(2) 0.0190(5) 1. 0
Na4 Na1+ 2 i -0.0052(3) -0.25001(10) -0.5113(2) 0.0237(5) 1. 0
Na5 Na1+ 2 i -0.0137(3) -0.41261(10) 0.4976(2) 0.0193(5) 1. 0
Na6 Na1+ 2 i -0.4832(3) -0.32933(9) 0.0033(2) 0.0190(5) 1. 0
Na7 Na1+ 2 i -0.0127(3) -0.17064(9) 0.0034(2) 0.0188(5) 1. 0
O1 O2- 2 i -0.1405(5) -0.41800(15) -0.1939(4) 0.0111(7) 1. 0
O2 O2- 2 i -0.5448(5) -0.58208(17) -0.1746(4) 0.0166(8) 1. 0
O3 O2- 2 i -0.2990(5) -0.08177(15) -0.4751(4) 0.0127(8) 1. 0
O4 O2- 2 i -0.5416(5) -0.41841(16) -0.1741(4) 0.0164(8) 1. 0
O5 O2- 2 i -0.5439(5) -0.24711(15) -0.1769(4) 0.0127(8) 1. 0
O6 O2- 2 i 0.0756(6) -0.24805(17) 0.1780(4) 0.0179(8) 1. 0
O7 O2- 2 i -0.1329(5) -0.08069(16) -0.1744(4) 0.0173(8) 1. 0
O8 O2- 2 i -0.1314(5) 0.00217(16) 0.3286(4) 0.0153(8) 1. 0
O9 O2- 2 i -0.0269(5) -0.33555(16) 0.3299(4) 0.0163(8) 1. 0
O10 O2- 2 i -0.1327(5) -0.25330(16) -0.1767(4) 0.0132(8) 1. 0
O11 O2- 2 i -0.4459(5) 0.08193(15) 0.1945(4) 0.0101(7) 1. 0
O12 O2- 2 i -0.1390(5) -0.57802(15) -0.1943(4) 0.0106(7) 1. 0
O13 O2- 2 i -0.3255(5) 0.08397(15) -0.4809(4) 0.0124(8) 1. 0
O14 O2- 2 i 0.1662(5) -0.49893(16) -0.0254(4) 0.0139(8) 1. 0
O15 O2- 2 i -0.4400(5) -0.00065(14) -0.3105(4) 0.0100(7) 1. 0
O16 O2- 2 i -0.3976(6) -0.25199(17) 0.1782(4) 0.0178(8) 1. 0
O17 O2- 2 i -0.4311(5) -0.16488(15) -0.3073(4) 0.0110(7) 1. 0
O18 O2- 2 i -0.3091(5) -0.24298(16) -0.4829(4) 0.0174(8) 1. 0
O19 O2- 2 i -0.3082(5) 0.00103(15) 0.0251(4) 0.0125(8) 1. 0
O20 O2- 2 i 0.0219(5) -0.33417(16) -0.3177(4) 0.0171(8) 1. 0
O21 O2- 2 i -0.1532(5) -0.34209(15) 0.0185(4) 0.0130(8) 1. 0
O22 O2- 2 i -0.6549(5) -0.58395(15) -0.4807(4) 0.0129(8) 1. 0
O23 O2- 2 i -0.6757(5) -0.41806(16) -0.4746(4) 0.0129(8) 1. 0
O24 O2- 2 i 0.1818(5) -0.33040(15) -0.0120(4) 0.0124(8) 1. 0
O25 O2- 2 i 0.0400(5) -0.49775(16) -0.3286(4) 0.0162(8) 1. 0
O26 O2- 2 i -0.6737(5) -0.25696(16) -0.4824(4) 0.0173(8) 1. 0
O27 O2- 2 i -0.1290(5) 0.08225(16) -0.1749(4) 0.0163(8) 1. 0
O28 O2- 2 i -0.8395(5) -0.16620(16) -0.3174(4) 0.0158(8) 1. 0
O29 O2- 2 i -0.3594(5) -0.66232(15) -0.2991(4) 0.0131(8) 1. 0
O30 O2- 2 i -0.4394(5) 0.16215(15) -0.2990(4) 0.0133(8) 1. 0
O31 O2- 2 i -0.6932(5) -0.16929(15) -0.0120(4) 0.0131(8) 1. 0
O32 O2- 2 i -0.1438(5) -0.16425(16) 0.3291(4) 0.0175(8) 1. 0
O33 O2- 2 i -0.3287(5) -0.15795(15) 0.0179(4) 0.0120(7) 1. 0
O34 O2- 2 i -0.3766(5) -0.33506(15) -0.3070(4) 0.0112(7) 1. 0
O35 O2- 2 i -0.4443(5) -0.07839(15) 0.1947(4) 0.0101(7) 1. 0
O36 O2- 2 i -0.3707(5) -0.49911(15) -0.3103(4) 0.0111(7) 1. 0
#End of TTdata_151973-ICSD