
#(C) 2019 by FIZ Karlsruhe - Leibniz Institute for Information Infrastructure.  All rights reserved.
data_152187-ICSD
_database_code_ICSD 152187
_audit_creation_date 2006-10-01
_chemical_name_systematic 'Sodium nitrate(III) - paraelectric'
_chemical_formula_structural 'Na (N O2)'
_chemical_formula_sum 'N1 Na1 O2'
_chemical_name_structure_type NaNO2
_exptl_crystal_density_diffrn 2.03
_cell_measurement_temperature 480.
_publ_section_title

;
Diffuse scattering and ordering in the short-range modulated paraelectric
phase of sodium nitrite
;
loop_
_citation_id
_citation_journal_full
_citation_year
_citation_journal_volume
_citation_page_first
_citation_page_last
_citation_journal_id_ASTM
primary 'Acta Crystallographica, Section B: Structural Science' 2005 61 473 480
ASBSDK
loop_
_publ_author_name
'Lukaszewicz, K.'
'Pietraszko, A.'
'Kucharska, M.'
_cell_length_a 3.706(4)
_cell_length_b 5.714(4)
_cell_length_c 5.335(3)
_cell_angle_alpha 90.
_cell_angle_beta 90.
_cell_angle_gamma 90.
_cell_volume 112.97
_cell_formula_units_Z 2
_symmetry_space_group_name_H-M 'I m m m'
_symmetry_Int_Tables_number 71
loop_
_symmetry_equiv_pos_site_id
_symmetry_equiv_pos_as_xyz
1 'x, y, -z'
2 'x, -y, z'
3 '-x, y, z'
4 '-x, -y, -z'
5 '-x, -y, z'
6 '-x, y, -z'
7 'x, -y, -z'
8 'x, y, z'
9 'x+1/2, y+1/2, -z+1/2'
10 'x+1/2, -y+1/2, z+1/2'
11 '-x+1/2, y+1/2, z+1/2'
12 '-x+1/2, -y+1/2, -z+1/2'
13 '-x+1/2, -y+1/2, z+1/2'
14 '-x+1/2, y+1/2, -z+1/2'
15 'x+1/2, -y+1/2, -z+1/2'
16 'x+1/2, y+1/2, z+1/2'
loop_
_atom_type_symbol
_atom_type_oxidation_number
Na1+ 1
N3+ 3
O2- -2
loop_
_atom_site_label
_atom_site_type_symbol
_atom_site_symmetry_multiplicity
_atom_site_Wyckoff_symbol
_atom_site_fract_x
_atom_site_fract_y
_atom_site_fract_z
_atom_site_B_iso_or_equiv
_atom_site_occupancy
_atom_site_attached_hydrogens
Na1 Na1+ 4 g 0 0.535(2) 0 0.059(3) 0.5 0
N1 N3+ 4 g 0 0.074(1) 0 0.066(2) 0.5 0
O1 O2- 8 l 0 -0.046(2) 0.193(1) 0.073(3) 0.5 0
#End of TTdata_152187-ICSD