
#(C) 2019 by FIZ Karlsruhe - Leibniz Institute for Information Infrastructure.  All rights reserved.
data_152238-ICSD
_database_code_ICSD 152238
_audit_creation_date 2006-10-01
_chemical_name_systematic 'Lanthanum sodium dititanate (1.22/0.33/1)'
_chemical_formula_structural 'La1.22 Na0.33 (Ti2 O6)'
_chemical_formula_sum 'La1.22 Na0.33 O6 Ti2'
_chemical_name_structure_type (Li,La)TiO3(defect)
_exptl_crystal_density_diffrn 5.26
_publ_section_title

;
Structural modifications induced by composition in the La1.33-x Na3x Ti2 O6
perovskites: a neutron diffraction study
;
loop_
_citation_id
_citation_journal_full
_citation_year
_citation_journal_volume
_citation_page_first
_citation_page_last
_citation_journal_id_ASTM
primary 'Chemistry of Materials' 2005 17 1391 1397 CMATEX
loop_
_publ_author_name
'Ruiz, A.I.'
'Lopez, M.L.'
'Pico, C.'
'Veiga, M.L.'
_cell_length_a 7.7234(2)
_cell_length_b 7.7485(2)
_cell_length_c 7.7803(3)
_cell_angle_alpha 90.
_cell_angle_beta 90.
_cell_angle_gamma 90.
_cell_volume 465.61
_cell_formula_units_Z 4
_symmetry_space_group_name_H-M 'C m m m'
_symmetry_Int_Tables_number 65
_refine_ls_R_factor_all 0.0352
loop_
_symmetry_equiv_pos_site_id
_symmetry_equiv_pos_as_xyz
1 'x, -y, z'
2 '-x, y, z'
3 'x, y, -z'
4 '-x, -y, -z'
5 '-x, y, -z'
6 'x, -y, -z'
7 '-x, -y, z'
8 'x, y, z'
9 'x+1/2, -y+1/2, z'
10 '-x+1/2, y+1/2, z'
11 'x+1/2, y+1/2, -z'
12 '-x+1/2, -y+1/2, -z'
13 '-x+1/2, y+1/2, -z'
14 'x+1/2, -y+1/2, -z'
15 '-x+1/2, -y+1/2, z'
16 'x+1/2, y+1/2, z'
loop_
_atom_type_symbol
_atom_type_oxidation_number
La3+ 3
Na1+ 1
La3+ 3
Na1+ 1
Ti4+ 4
O2- -2
loop_
_atom_site_label
_atom_site_type_symbol
_atom_site_symmetry_multiplicity
_atom_site_Wyckoff_symbol
_atom_site_fract_x
_atom_site_fract_y
_atom_site_fract_z
_atom_site_B_iso_or_equiv
_atom_site_occupancy
_atom_site_attached_hydrogens
La1 La3+ 4 i 0 0.2530(1) 0 0.12(3) 0.94(2) 0
Na1 Na1+ 4 i 0 0.2530(1) 0 0.12(3) 0.01(2) 0
La2 La3+ 4 j 0 0.2576(3) 0.5 1.12(5) 0.28(5) 0
Na2 Na1+ 4 j 0 0.2576(3) 0.5 1.12(5) 0.32(1) 0
Ti1 Ti4+ 8 o 0.2471(6) 0 0.2604(3) 0.32(5) 1. 0
O1 O2- 4 g 0.2727(2) 0 0 0.78(2) 1. 0
O2 O2- 4 h 0.2269(4) 0 0.5 1.16(5) 1. 0
O3 O2- 4 k 0 0 0.2117(2) 0.70(1) 1. 0
O4 O2- 4 l 0 0.5 0.2635(4) 0.77(4) 1. 0
O5 O2- 8 m 0.25 0.75 0.2367(5) 0.57(4) 1. 0
#End of TTdata_152238-ICSD