
#(C) 2019 by FIZ Karlsruhe - Leibniz Institute for Information Infrastructure.  All rights reserved.
data_15253-ICSD
_database_code_ICSD 15253
_audit_creation_date 1981-12-31
_audit_update_record 2006-04-01
_chemical_name_systematic 'Sodium barium phosphate(V) - LT'
_chemical_formula_structural 'Na Ba (P O4)'
_chemical_formula_sum 'Ba1 Na1 O4 P1'
_exptl_crystal_density_diffrn 4.26
_publ_section_title 'Structure cristalline de Na Ba P O4'
loop_
_citation_id
_citation_journal_full
_citation_year
_citation_journal_volume
_citation_page_first
_citation_page_last
_citation_journal_id_ASTM
primary 'Journal of Solid State Chemistry' 1981 36 107 111 JSSCBI
loop_
_publ_author_name
'Kolsi, A.W.'
'Quarton, M.'
'Freundlich, W.'
_cell_length_a 9.743(3)
_cell_length_b 5.622(1)
_cell_length_c 7.260(1)
_cell_angle_alpha 90.
_cell_angle_beta 90.10(3)
_cell_angle_gamma 90.
_cell_volume 397.67
_cell_formula_units_Z 4
_symmetry_space_group_name_H-M 'C 1 2/m 1'
_symmetry_Int_Tables_number 12
_refine_ls_R_factor_all 0.058
loop_
_symmetry_equiv_pos_site_id
_symmetry_equiv_pos_as_xyz
1 '-x, y, -z'
2 '-x, -y, -z'
3 'x, -y, z'
4 'x, y, z'
5 '-x+1/2, y+1/2, -z'
6 '-x+1/2, -y+1/2, -z'
7 'x+1/2, -y+1/2, z'
8 'x+1/2, y+1/2, z'
loop_
_atom_type_symbol
_atom_type_oxidation_number
Na1+ 1
Ba2+ 2
Na1+ 1
P5+ 5
O2- -2
loop_
_atom_site_label
_atom_site_type_symbol
_atom_site_symmetry_multiplicity
_atom_site_Wyckoff_symbol
_atom_site_fract_x
_atom_site_fract_y
_atom_site_fract_z
_atom_site_B_iso_or_equiv
_atom_site_occupancy
_atom_site_attached_hydrogens
Na1 Na1+ 2 b 0 0.5 0 . 1. 0
Ba1 Ba2+ 2 d 0 0.5 0.5 . 1. 0
Ba2 Ba2+ 4 i 0.3332(1) 0.5 0.1580(2) . 0.5 0
Na2 Na1+ 4 i 0.3332(1) 0.5 0.1580(2) . 0.5 0
P1 P5+ 4 i 0.1659(3) 0 0.2823(4) . 1. 0
O1 O2- 4 i 0.1687(8) 0 0.4855(10) . 1. 0
O2 O2- 4 i 0.3136(8) 0 0.2109(10) . 1. 0
O3 O2- 8 j 0.0937(6) 0.2233(8) 0.2060(7) . 1. 0
loop_
_atom_site_aniso_label
_atom_site_aniso_type_symbol
_atom_site_aniso_beta_11
_atom_site_aniso_beta_22
_atom_site_aniso_beta_33
_atom_site_aniso_beta_12
_atom_site_aniso_beta_13
_atom_site_aniso_beta_23
Na1 Na1+ 0.0027(4) 0.0057(14) 0.0075(13) 0 0.00055(35) 0
Ba1 Ba2+ 0.0019(1) 0.0058(2) 0.0048(2) 0 0.00005(5) 0
Ba2 Ba2+ 0.0033(1) 0.0105(3) 0.0079(3) 0 -.00010(5) 0
Na2 Na1+ 0.0033(1) 0.0105(3) 0.0079(3) 0 -.00010(5) 0
P1 P5+ 0.0044(3) 0.0097(7) 0.0036(6) 0 0.00050(15) 0
O1 O2- 0.0021(5) 0.0090(19) 0.0174(24) 0 0.00005(10) 0
O2 O2- 0.0066(9) 0.0107(22) 0.0118(22) 0 0.0003(4) 0
O3 O2- 0.0077(7) 0.0125(17) 0.0080(13) -.00050(45) -.00085(40) 0.0008(7)
#End of TTdata_15253-ICSD