
#(C) 2019 by FIZ Karlsruhe - Leibniz Institute for Information Infrastructure.  All rights reserved.
data_152961-ICSD
_database_code_ICSD 152961
_audit_creation_date 2006-10-01
_chemical_name_systematic 'Sodium bismuth tetrakis(trioxophosphate(V))'
_chemical_formula_structural 'Na Bi (P O3)4'
_chemical_formula_sum 'Bi1 Na1 O12 P4'
_chemical_name_structure_type KCe(PO3)4
_exptl_crystal_density_diffrn 3.92
_publ_section_title
'Synthesis and crystal structure of sodium-bismuth polyphosphate Na Bi (P O3)4'
loop_
_citation_id
_citation_journal_full
_citation_year
_citation_journal_volume
_citation_page_first
_citation_page_last
_citation_journal_id_ASTM
primary 'Journal of Crystal Growth' 2005 273 638 645 JCRGAE
loop_
_publ_author_name
'Jaouadi, K.'
'Zouari, N.'
'Mhiri, T.'
'Pierrot, M.'
_cell_length_a 7.194(1)
_cell_length_b 13.097(2)
_cell_length_c 9.858(2)
_cell_angle_alpha 90.
_cell_angle_beta 90.43(1)
_cell_angle_gamma 90.
_cell_volume 928.79
_cell_formula_units_Z 4
_symmetry_space_group_name_H-M 'P 1 21/n 1'
_symmetry_Int_Tables_number 14
_refine_ls_R_factor_all 0.0211
loop_
_symmetry_equiv_pos_site_id
_symmetry_equiv_pos_as_xyz
1 '-x+1/2, y+1/2, -z+1/2'
2 '-x, -y, -z'
3 'x+1/2, -y+1/2, z+1/2'
4 'x, y, z'
loop_
_atom_type_symbol
_atom_type_oxidation_number
Bi3+ 3
Na1+ 1
P5+ 5
O2- -2
loop_
_atom_site_label
_atom_site_type_symbol
_atom_site_symmetry_multiplicity
_atom_site_Wyckoff_symbol
_atom_site_fract_x
_atom_site_fract_y
_atom_site_fract_z
_atom_site_B_iso_or_equiv
_atom_site_occupancy
_atom_site_attached_hydrogens
Bi1 Bi3+ 4 e 0.987727(19) 0.782765(9) 0.022914(12) 0.00895(4) 1. 0
Na1 Na1+ 4 e 0.4996(3) 0.22247(14) 0.06590(17) 0.0163(3) 1. 0
P1 P5+ 4 e 0.37829(14) 0.11473(6) -0.23602(9) 0.00774(15) 1. 0
P2 P5+ 4 e 0.77006(14) 0.08865(6) -0.30282(9) 0.00827(15) 1. 0
P3 P5+ 4 e 0.85387(13) 0.87116(6) -0.30494(9) 0.00696(15) 1. 0
P4 P5+ 4 e 0.25129(14) 0.89982(6) -0.24248(9) 0.00772(15) 1. 0
O1 O2- 4 e 0.3056(4) 0.1444(2) -0.1008(3) 0.0126(5) 1. 0
O2 O2- 4 e 0.5896(4) 0.0809(2) -0.2117(3) 0.0117(5) 1. 0
O3 O2- 4 e 0.2849(4) 0.0140(2) -0.2904(3) 0.0129(6) 1. 0
O4 O2- 4 e 0.3635(4) 0.1905(2) -0.3476(3) 0.0143(5) 1. 0
O5 O2- 4 e 0.9311(4) 0.1073(2) -0.2110(3) 0.0176(6) 1. 0
O6 O2- 4 e 0.7413(4) 0.1596(2) -0.4190(3) 0.0147(5) 1. 0
O7 O2- 4 e 0.7835(4) 0.97652(19) -0.3663(3) 0.0109(5) 1. 0
O8 O2- 4 e 0.0724(4) 0.8752(2) -0.3308(3) 0.0113(5) 1. 0
O9 O2- 4 e 0.7861(4) 0.7877(2) -0.3948(3) 0.0126(5) 1. 0
O10 O2- 4 e 0.8163(4) 0.8668(2) -0.1567(3) 0.0123(5) 1. 0
O11 O2- 4 e 0.2149(4) 0.8946(2) -0.0937(3) 0.0117(5) 1. 0
O12 O2- 4 e 0.4081(4) 0.8355(2) -0.2922(3) 0.0135(5) 1. 0
loop_
_atom_site_aniso_label
_atom_site_aniso_type_symbol
_atom_site_aniso_U_11
_atom_site_aniso_U_22
_atom_site_aniso_U_33
_atom_site_aniso_U_12
_atom_site_aniso_U_13
_atom_site_aniso_U_23
Bi1 Bi3+ 0.00835(7) 0.00955(5) 0.00894(5) 0.00008(4) 0.00009(4) -0.00026(4)
Na1 Na1+ 0.0117(9) 0.0254(8) 0.0117(6) 0.0074(6) -0.0025(6) 0.0022(6)
P1 P5+ 0.0079(4) 0.0065(3) 0.0088(3) -0.0004(2) 0.0013(3) 0.0010(2)
P2 P5+ 0.0069(4) 0.0072(3) 0.0107(3) 0.0007(3) 0.0001(3) -0.0006(2)
P3 P5+ 0.0066(4) 0.0068(3) 0.0075(3) -0.0003(3) -0.0006(3) 0.0003(2)
P4 P5+ 0.0068(4) 0.0074(3) 0.0090(3) -0.0010(3) 0.0004(3) -0.0001(2)
O1 O2- 0.0119(13) 0.0156(11) 0.0102(10) 0.0037(9) 0.0036(10) -0.0005(8)
O2 O2- 0.0068(13) 0.0175(11) 0.0109(10) 0.0044(9) 0.0020(9) 0.0039(9)
O3 O2- 0.0139(15) 0.0091(10) 0.0173(12) -0.0049(8) -0.0017(11) -0.0013(8)
O4 O2- 0.0180(15) 0.0106(9) 0.0144(11) 0.0031(9) 0.0045(11) 0.0077(8)
O5 O2- 0.0080(14) 0.0206(13) 0.0242(14) -0.0004(10) -0.0039(12) -0.0118(11)
O6 O2- 0.0141(14) 0.0127(10) 0.0175(12) 0.0039(9) 0.0043(11) 0.0055(9)
O7 O2- 0.0150(14) 0.0070(8) 0.0108(10) 0.0049(8) -0.0039(10) 0.0005(7)
O8 O2- 0.0102(13) 0.0144(10) 0.0094(9) -0.0031(9) -0.0009(10) -0.0006(8)
O9 O2- 0.0104(14) 0.0115(10) 0.0160(11) -0.0033(9) -0.0023(10) -0.0024(9)
O10 O2- 0.0116(14) 0.0158(11) 0.0095(10) 0.0001(9) 0.0004(10) 0.0041(8)
O11 O2- 0.0135(14) 0.0130(10) 0.0086(9) -0.0012(9) -0.0011(10) -0.0016(8)
O12 O2- 0.0104(14) 0.0144(11) 0.0156(11) 0.0022(9) -0.0026(10) -0.0047(9)
#End of TTdata_152961-ICSD