
#(C) 2019 by FIZ Karlsruhe - Leibniz Institute for Information Infrastructure.  All rights reserved.
data_153129-ICSD
_database_code_ICSD 153129
_audit_creation_date 2006-10-01
_chemical_name_systematic 'Sodium bismuth bis(molybdate)'
_chemical_formula_structural 'Na Bi (Mo O4)2'
_chemical_formula_sum 'Bi1 Mo2 Na1 O8'
_chemical_name_structure_type Scheelite-CaWO4
_exptl_crystal_density_diffrn 5.69
_cell_measurement_temperature 297.
_publ_section_title

;
Low-temperature and high-pressure structural behaviour of Na Bi (Mo O4)2 - an
X-ray diffraction study
;
loop_
_citation_id
_citation_journal_full
_citation_year
_citation_journal_volume
_citation_page_first
_citation_page_last
_citation_journal_id_ASTM
primary 'Journal of Solid State Chemistry' 2005 178 2218 2224 JSSCBI
loop_
_publ_author_name
'Waskowska, A.'
'Gerward, L.'
'Olsen, J.S.'
'Maczka, M.'
'Lis, T.'
'Pietraszko, A.'
'Morgenroth, W.'
_cell_length_a 5.2744(7)
_cell_length_b 5.2744(7)
_cell_length_c 11.578(2)
_cell_angle_alpha 90.
_cell_angle_beta 90.
_cell_angle_gamma 90.
_cell_volume 322.09
_cell_formula_units_Z 2
_symmetry_space_group_name_H-M 'I 41/a Z'
_symmetry_Int_Tables_number 88
_refine_ls_R_factor_all 0.034
loop_
_symmetry_equiv_pos_site_id
_symmetry_equiv_pos_as_xyz
1 '-y+3/4, x+3/4, -z+3/4'
2 'y+1/4, -x+3/4, -z+3/4'
3 'x, y+1/2, -z'
4 '-x, -y, -z'
5 'y+1/4, -x+1/4, z+1/4'
6 '-y+3/4, x+1/4, z+1/4'
7 '-x, -y+1/2, z'
8 'x, y, z'
9 '-y+1/4, x+1/4, -z+1/4'
10 'y+3/4, -x+1/4, -z+1/4'
11 'x+1/2, y, -z+1/2'
12 '-x+1/2, -y+1/2, -z+1/2'
13 'y+3/4, -x+3/4, z+3/4'
14 '-y+1/4, x+3/4, z+3/4'
15 '-x+1/2, -y, z+1/2'
16 'x+1/2, y+1/2, z+1/2'
loop_
_atom_type_symbol
_atom_type_oxidation_number
Bi3+ 3
Na1+ 1
Mo6+ 6
O2- -2
loop_
_atom_site_label
_atom_site_type_symbol
_atom_site_symmetry_multiplicity
_atom_site_Wyckoff_symbol
_atom_site_fract_x
_atom_site_fract_y
_atom_site_fract_z
_atom_site_B_iso_or_equiv
_atom_site_occupancy
_atom_site_attached_hydrogens
Bi1 Bi3+ 4 b 0 0.25 0.625 0.0173(2) 0.5 0
Na1 Na1+ 4 b 0 0.25 0.625 0.0173(2) 0.5 0
Mo1 Mo6+ 4 a 0 0.25 0.125 0.0106(1) 1. 0
O1 O2- 16 f 0.1494(5) 0.4888(5) 0.2084(3) 0.0250(2) 1. 0
#End of TTdata_153129-ICSD