
#(C) 2019 by FIZ Karlsruhe - Leibniz Institute for Information Infrastructure.  All rights reserved.
data_153147-ICSD
_database_code_ICSD 153147
_audit_creation_date 2006-10-01
_chemical_name_systematic
'Sodium europium titanium niobium oxide (0.75/0.25/0.5/0.5/3)'
_chemical_formula_structural '(Na0.75 Eu0.25) ((Ti0.5 Nb0.5) O3)'
_chemical_formula_sum 'Eu0.25 Na0.75 Nb0.5 O3 Ti0.5'
_chemical_name_structure_type Perovskite-GdFeO3
_exptl_crystal_density_diffrn 4.99
_publ_section_title
'A structural study of the perovskite series Na0.75 Ln0.25 Ti0.5 Nb0.5 O3'
loop_
_citation_id
_citation_journal_full
_citation_year
_citation_journal_volume
_citation_page_first
_citation_page_last
_citation_journal_id_ASTM
primary 'Journal of Solid State Chemistry' 2005 178 2586 2593 JSSCBI
loop_
_publ_author_name
'Mitchell, R.H.'
'Liferovich, R.P.'
_cell_length_a 5.4424(1)
_cell_length_b 5.4871(1)
_cell_length_c 7.7345(2)
_cell_angle_alpha 90.
_cell_angle_beta 90.
_cell_angle_gamma 90.
_cell_volume 230.98
_cell_formula_units_Z 4
_symmetry_space_group_name_H-M 'P b n m'
_symmetry_Int_Tables_number 62
_refine_ls_R_factor_all 0.0304
loop_
_symmetry_equiv_pos_site_id
_symmetry_equiv_pos_as_xyz
1 '-x+1/2, y+1/2, z'
2 'x, y, -z+1/2'
3 'x+1/2, -y+1/2, z+1/2'
4 '-x, -y, -z'
5 'x+1/2, -y+1/2, -z'
6 '-x, -y, z+1/2'
7 '-x+1/2, y+1/2, -z+1/2'
8 'x, y, z'
loop_
_atom_type_symbol
_atom_type_oxidation_number
Na1+ 1
Eu3+ 3
Nb5+ 5
Ti4+ 4
O2- -2
loop_
_atom_site_label
_atom_site_type_symbol
_atom_site_symmetry_multiplicity
_atom_site_Wyckoff_symbol
_atom_site_fract_x
_atom_site_fract_y
_atom_site_fract_z
_atom_site_B_iso_or_equiv
_atom_site_occupancy
_atom_site_attached_hydrogens
Na1 Na1+ 4 c 0.9934(9) 0.0262(5) 0.25 1.24(4) 0.75 0
Eu1 Eu3+ 4 c 0.9934(9) 0.0262(5) 0.25 1.24(4) 0.25 0
Nb1 Nb5+ 4 b 0 0.5 0 0.65(2) 0.5 0
Ti1 Ti4+ 4 b 0 0.5 0 0.65(2) 0.5 0
O1 O2- 4 c 0.0629(21) 0.4897(18) 0.25 1.67(11) 1. 0
O2 O2- 8 d 0.7264(18) 0.2881(14) 0.0339(11) 1.67(11) 1. 0
#End of TTdata_153147-ICSD