
#(C) 2019 by FIZ Karlsruhe - Leibniz Institute for Information Infrastructure.  All rights reserved.
data_153130-ICSD
_database_code_ICSD 153130
_audit_creation_date 2006-10-01
_chemical_name_systematic 'Sodium bismuth bis(molybdate) - LT'
_chemical_formula_structural 'Na Bi (Mo O4)2'
_chemical_formula_sum 'Bi1 Mo2 Na1 O8'
_exptl_crystal_density_diffrn 5.77
_cell_measurement_temperature 13.
_publ_section_title

;
Low-temperature and high-pressure structural behaviour of Na Bi (Mo O4)2 - an
X-ray diffraction study
;
loop_
_citation_id
_citation_journal_full
_citation_year
_citation_journal_volume
_citation_page_first
_citation_page_last
_citation_journal_id_ASTM
primary 'Journal of Solid State Chemistry' 2005 178 2218 2224 JSSCBI
loop_
_publ_author_name
'Waskowska, A.'
'Gerward, L.'
'Olsen, J.S.'
'Maczka, M.'
'Lis, T.'
'Pietraszko, A.'
'Morgenroth, W.'
_cell_length_a 5.257(1)
_cell_length_b 11.552(2)
_cell_length_c 5.233(1)
_cell_angle_alpha 90.
_cell_angle_beta 90.29(3)
_cell_angle_gamma 90.
_cell_volume 317.79
_cell_formula_units_Z 2
_symmetry_space_group_name_H-M 'I 1 2/a 1'
_symmetry_Int_Tables_number 15
_refine_ls_R_factor_all 0.023
loop_
_symmetry_equiv_pos_site_id
_symmetry_equiv_pos_as_xyz
1 'x+1/2, -y, z'
2 '-x, -y, -z'
3 '-x+1/2, y, -z'
4 'x, y, z'
5 'x, -y+1/2, z+1/2'
6 '-x+1/2, -y+1/2, -z+1/2'
7 '-x, y+1/2, -z+1/2'
8 'x+1/2, y+1/2, z+1/2'
loop_
_atom_type_symbol
_atom_type_oxidation_number
Bi3+ 3
Na1+ 1
Mo6+ 6
O2- -2
loop_
_atom_site_label
_atom_site_type_symbol
_atom_site_symmetry_multiplicity
_atom_site_Wyckoff_symbol
_atom_site_fract_x
_atom_site_fract_y
_atom_site_fract_z
_atom_site_B_iso_or_equiv
_atom_site_occupancy
_atom_site_attached_hydrogens
Bi1 Bi3+ 4 e 0.25 0.62335(4) 0 0.0092(1) 0.5 0
Na1 Na1+ 4 e 0.25 0.6436(4) 0 0.0081(6) 0.5 0
Mo1 Mo6+ 4 e 0.25 0.12475(4) 0 0.0059(1) 1. 0
O1 O2- 8 f 0.1032(4) 0.0420(2) 0.2383(5) 0.0121(3) 1. 0
O2 O2- 8 f 0.0092(4) 0.2090(2) -0.1475(7) 0.0100(3) 1. 0
#End of TTdata_153130-ICSD