
#(C) 2019 by FIZ Karlsruhe - Leibniz Institute for Information Infrastructure.  All rights reserved.
data_153282-ICSD
_database_code_ICSD 153282
_audit_creation_date 2006-10-01
_audit_update_record 2008-02-01
_chemical_name_systematic
'Sodium nickel arsenic(V) phosphorus(V) oxide (3/2/1.41/1.59/11)'
_chemical_formula_structural 'Na3 Ni2 ((P0.89 As0.11) O4) ((As1.3 P0.7) O7)'
_chemical_formula_sum 'As1.41 Na3 Ni2 O11 P1.59'
_exptl_crystal_density_diffrn 3.86
_publ_section_title

;
Synthese, structure cristalline d'une solution solide Na3 Ni2 (As0.1, P0.9) O4
(As1.3, P0.7) O7 et etude de la conductivite ionique de sa limite arseniate
;
loop_
_citation_id
_citation_journal_full
_citation_year
_citation_journal_volume
_citation_page_first
_citation_page_last
_citation_journal_id_ASTM
primary 'Annales de Chimie (Cachan, France)' 2005 30 119 132 ANCPAC
loop_
_publ_author_name
'Ben Smail, R.'
'Jouini, T.'
_cell_length_a 10.2599(7)
_cell_length_b 15.825(1)
_cell_length_c 6.377(1)
_cell_angle_alpha 90.
_cell_angle_beta 120.76(3)
_cell_angle_gamma 90.
_cell_volume 889.73
_cell_formula_units_Z 4
_symmetry_space_group_name_H-M 'C 1 2/m 1'
_symmetry_Int_Tables_number 12
_refine_ls_R_factor_all 0.0221
loop_
_symmetry_equiv_pos_site_id
_symmetry_equiv_pos_as_xyz
1 '-x, y, -z'
2 '-x, -y, -z'
3 'x, -y, z'
4 'x, y, z'
5 '-x+1/2, y+1/2, -z'
6 '-x+1/2, -y+1/2, -z'
7 'x+1/2, -y+1/2, z'
8 'x+1/2, y+1/2, z'
loop_
_atom_type_symbol
_atom_type_oxidation_number
Ni2+ 2
As5+ 5
P5+ 5
As5+ 5
P5+ 5
Na1+ 1
O2- -2
loop_
_atom_site_label
_atom_site_type_symbol
_atom_site_symmetry_multiplicity
_atom_site_Wyckoff_symbol
_atom_site_fract_x
_atom_site_fract_y
_atom_site_fract_z
_atom_site_B_iso_or_equiv
_atom_site_occupancy
_atom_site_attached_hydrogens
Ni1 Ni2+ 4 g 0.5 0.1760(1) 0 0.008(1) 1. 0
Ni2 Ni2+ 4 i 0.3032(1) 0 0.0833(2) 0.010(1) 1. 0
As1 As5+ 4 i 0.3920(2) 0 0.6750(3) 0.007(1) 0.111(8) 0
P1 P5+ 4 i 0.3920(2) 0 0.6750(3) 0.007(1) 0.889(9) 0
As2 As5+ 8 j 0.1185(1) 0.1646(1) 0.7694(1) 0.008(1) 0.648(6) 0
P2 P5+ 8 j 0.1185(1) 0.1646(1) 0.7694(1) 0.008(1) 0.352(6) 0
Na1 Na1+ 8 j 0.3103(5) 0.1675(2) 0.4000(6) 0.043(1) 1. 0
Na2 Na1+ 4 i 0.0555(6) 0 0.292(1) 0.027(2) 0.78(2) 0
Na3 Na1+ 4 i 0.032(2) 0 0.111(3) 0.055(5) 0.22(2) 0
O1 O2- 8 j 0.1491(5) 0.0970(3) 0.9813(8) 0.014(1) 1. 0
O2 O2- 8 j 0.0162(5) 0.2442(3) 0.7557(8) 0.020(1) 1. 0
O3 O2- 8 j 0.2662(5) 0.1923(3) 0.7573(8) 0.016(1) 1. 0
O4 O2- 4 h 0 0.1109(4) 0.5 0.013(1) 1. 0
O5 O2- 8 j 0.4976(4) 0.0784(2) 0.2285(7) 0.010(1) 1. 0
O6 O2- 4 i 0.2997(6) 0 0.393(1) 0.013(1) 1. 0
O7 O2- 4 i 0.2760(6) 0 0.756(1) 0.011(1) 1. 0
loop_
_atom_site_aniso_label
_atom_site_aniso_type_symbol
_atom_site_aniso_U_11
_atom_site_aniso_U_22
_atom_site_aniso_U_33
_atom_site_aniso_U_12
_atom_site_aniso_U_13
_atom_site_aniso_U_23
Ni1 Ni2+ 0.008(1) 0.008(1) 0.007(1) 0. 0.004(1) 0.
Ni2 Ni2+ 0.011(1) 0.011(1) 0.010(1) 0. 0.006(1) 0.
As1 As5+ 0.009(1) 0.007(1) 0.007(1) 0. 0.005(1) 0.
P1 P5+ 0.009(1) 0.007(1) 0.007(1) 0. 0.005(1) 0.
As2 As5+ 0.007(1) 0.007(1) 0.007(1) 0.000(1) 0.003(1) 0.000(1)
P2 P5+ 0.007(1) 0.007(1) 0.007(1) 0.000(1) 0.003(1) 0.000(1)
Na1 Na1+ 0.082(3) 0.017(2) 0.021(2) -0.010(2) 0.019(2) 0.001(1)
Na2 Na1+ 0.015(3) 0.023(3) 0.037(4) 0. 0.010(3) 0.
Na3 Na1+ 0.049(9) 0.046(9) 0.077(10) 0. 0.036(8) 0.
O1 O2- 0.014(2) 0.015(2) 0.015(2) 0.002(2) 0.008(2) 0.001(2)
O2 O2- 0.027(2) 0.017(2) 0.012(2) 0.008(2) 0.009(2) -0.001(2)
O3 O2- 0.009(2) 0.019(2) 0.014(2) 0.001(2) 0.003(2) 0.004(2)
O4 O2- 0.012(3) 0.013(3) 0.012(3) 0. 0.004(2) 0.
O5 O2- 0.010(2) 0.008(2) 0.013(2) 0.001(2) 0.007(2) 0.002(2)
O6 O2- 0.013(3) 0.021(3) 0.007(3) 0. 0.006(2) 0.
O7 O2- 0.013(3) 0.014(3) 0.009(3) 0. 0.008(2) 0.
#End of TTdata_153282-ICSD