
#(C) 2019 by FIZ Karlsruhe - Leibniz Institute for Information Infrastructure.  All rights reserved.
data_153217-ICSD
_database_code_ICSD 153217
_audit_creation_date 2006-10-01
_chemical_name_systematic 'Sodium boron oxide (6/13/22.5)'
_chemical_formula_structural 'Na6 (B13 O22.5)'
_chemical_formula_sum 'B13 Na6 O22.5'
_exptl_crystal_density_diffrn 2.5
_publ_section_title 'Na6 B13 O22.5, a new noncentrosymmetric sodium borate'
loop_
_citation_id
_citation_journal_full
_citation_year
_citation_journal_volume
_citation_page_first
_citation_page_last
_citation_journal_id_ASTM
primary 'Journal of Solid State Chemistry' 2005 178 671 679 JSSCBI
loop_
_publ_author_name
'Penin, N.'
'Touboul, M.'
'Nowogrocki, G.'
_cell_length_a 33.359(11)
_cell_length_b 9.554(3)
_cell_length_c 10.644(4)
_cell_angle_alpha 90.
_cell_angle_beta 90.
_cell_angle_gamma 90.
_cell_volume 3392.37
_cell_formula_units_Z 8
_symmetry_space_group_name_H-M 'I b a 2'
_symmetry_Int_Tables_number 45
_refine_ls_R_factor_all 0.0385
loop_
_symmetry_equiv_pos_site_id
_symmetry_equiv_pos_as_xyz
1 'x, -y, z+1/2'
2 '-x, y, z+1/2'
3 '-x, -y, z'
4 'x, y, z'
5 'x+1/2, -y+1/2, z'
6 '-x+1/2, y+1/2, z'
7 '-x+1/2, -y+1/2, z+1/2'
8 'x+1/2, y+1/2, z+1/2'
loop_
_atom_type_symbol
_atom_type_oxidation_number
Na1+ 1
O2- -2
B3+ 3
loop_
_atom_site_label
_atom_site_type_symbol
_atom_site_symmetry_multiplicity
_atom_site_Wyckoff_symbol
_atom_site_fract_x
_atom_site_fract_y
_atom_site_fract_z
_atom_site_B_iso_or_equiv
_atom_site_occupancy
_atom_site_attached_hydrogens
Na1 Na1+ 8 c 0.54509(5) 0.93450(13) 0.14581(15) 0.0283(4) 1. 0
Na2 Na1+ 8 c 0.69979(4) 0.60529(13) 0.00254(13) 0.0241(3) 1. 0
Na3 Na1+ 8 c 0.54450(4) 0.42049(14) -0.26660(14) 0.0290(4) 1. 0
Na4 Na1+ 8 c 0.62350(4) 0.34421(14) 0.05176(14) 0.0275(3) 1. 0
Na5 Na1+ 8 c 0.70318(4) 0.11348(14) -0.13085(13) 0.0260(3) 1. 0
Na6 Na1+ 8 c 0.62768(4) 0.87666(15) 0.82859(14) 0.0318(3) 1. 0
O1 O2- 8 c 0.71411(6) 0.42260(20) 0.1248(2) 0.0166(5) 1. 0
O2 O2- 8 c 0.72755(6) 0.1916(2) 0.0525(2) 0.0149(4) 1. 0
O3 O2- 8 c 0.74698(7) 0.39464(18) -0.0649(3) 0.0189(4) 1. 0
O4 O2- 8 c 0.72595(6) 0.3006(2) 0.3227(2) 0.0161(5) 1. 0
O5 O2- 8 c 0.71862(6) 0.0678(2) 0.2484(2) 0.0158(4) 1. 0
O6 O2- 8 c 0.67026(5) 0.2381(2) 0.1871(2) 0.0151(4) 1. 0
O7 O2- 8 c 0.67664(6) 0.0187(2) 0.0686(2) 0.0174(5) 1. 0
O8 O2- 8 c 0.67182(6) 0.4574(2) 0.3058(2) 0.0177(5) 1. 0
O9 O2- 8 c 0.64179(7) 0.8063(2) 0.0384(3) 0.0186(5) 1. 0
O10 O2- 8 c 0.64487(6) 0.9109(2) 0.2431(2) 0.0179(5) 1. 0
O11 O2- 8 c 0.59130(5) 0.7518(2) 0.1938(3) 0.0148(4) 1. 0
O12 O2- 8 c 0.64364(7) 0.6801(2) 0.3400(2) 0.0190(5) 1. 0
O13 O2- 8 c 0.59742(7) 0.8614(2) 0.4002(2) 0.0201(5) 1. 0
O14 O2- 8 c 0.63936(6) 0.5755(2) 0.1367(2) 0.0175(5) 1. 0
O15 O2- 8 c 0.58950(7) 0.6376(2) -0.0074(2) 0.0200(5) 1. 0
O16 O2- 8 c 0.56703(7) 0.8281(2) 0.5994(2) 0.0200(5) 1. 0
O17 O2- 8 c 0.54887(6) 0.6714(2) 0.4303(2) 0.0191(5) 1. 0
O18 O2- 8 c 0.52766(7) 0.9086(2) 0.4209(3) 0.0291(6) 1. 0
O19 O2- 8 c 0.57029(7) 0.6914(2) 0.7870(2) 0.0202(5) 1. 0
O20 O2- 8 c 0.53435(7) 0.7915(2) 0.9575(2) 0.0223(5) 1. 0
O21 O2- 8 c 0.52130(7) 0.6306(2) 0.6333(2) 0.0184(5) 1. 0
O22 O2- 8 c 0.51326(7) 0.8451(2) 0.7480(2) 0.0215(5) 1. 0
O23 O2- 4 a 0.5 0.5 0.4528(3) 0.0195(6) 1. 0
B1 B3+ 8 c 0.72979(10) 0.3338(4) 0.0391(3) 0.0147(7) 1. 0
B2 B3+ 8 c 0.73240(10) 0.1610(3) 0.3337(4) 0.0152(7) 1. 0
B3 B3+ 8 c 0.69697(10) 0.1280(4) 0.1412(4) 0.0152(7) 1. 0
B4 B3+ 8 c 0.69439(10) 0.3553(4) 0.2332(4) 0.0147(7) 1. 0
B5 B3+ 8 c 0.65404(10) 0.9132(4) 0.1164(4) 0.0168(7) 1. 0
B6 B3+ 8 c 0.61729(10) 0.7998(4) 0.2957(5) 0.0140(7) 1. 0
B7 B3+ 8 c 0.61446(11) 0.6948(4) 0.0917(3) 0.0158(7) 1. 0
B8 B3+ 8 c 0.65136(10) 0.5707(4) 0.2609(3) 0.0149(7) 1. 0
B9 B3+ 8 c 0.56186(10) 0.8191(3) 0.4630(3) 0.0158(7) 1. 0
B10 B3+ 8 c 0.56467(11) 0.7048(3) 0.9126(4) 0.0163(7) 1. 0
B11 B3+ 8 c 0.54361(8) 0.7522(4) 0.6889(4) 0.0150(6) 1. 0
B12 B3+ 8 c 0.52397(11) 0.6036(4) 0.5079(4) 0.0196(7) 1. 0
B13 B3+ 8 c 0.50684(11) 0.8535(4) 0.8753(3) 0.0205(8) 1. 0
loop_
_atom_site_aniso_label
_atom_site_aniso_type_symbol
_atom_site_aniso_U_11
_atom_site_aniso_U_22
_atom_site_aniso_U_33
_atom_site_aniso_U_12
_atom_site_aniso_U_13
_atom_site_aniso_U_23
Na1 Na1+ 0.0256(7) 0.0209(7) 0.0383(10) 0.0002(5) 0.0051(6) -0.0032(6)
Na2 Na1+ 0.0306(7) 0.0125(7) 0.0182(7) -0.0014(6) 0.0018(6) 0.0060(6)
Na3 Na1+ 0.0323(8) 0.0298(7) 0.0249(9) 0.0115(6) 0.0010(6) 0.0057(6)
Na4 Na1+ 0.0243(7) 0.0351(8) 0.0230(8) -0.0010(6) -0.0029(6) -0.0037(6)
Na5 Na1+ 0.0303(7) 0.0253(7) 0.0224(8) -0.0019(6) -0.0027(6) -0.0075(6)
Na6 Na1+ 0.0330(8) 0.0333(8) 0.0292(9) 0.0006(6) 0.0095(7) 0.0072(6)
O1 O2- 0.0192(10) 0.0151(10) 0.0155(12) 0.0004(8) 0.0024(10) 0.0004(9)
O2 O2- 0.0161(10) 0.0136(10) 0.0150(12) -0.0015(8) 0.0011(9) 0.0007(8)
O3 O2- 0.0263(11) 0.0137(9) 0.0167(9) 0.0001(10) 0.0083(8) 0.0003(10)
O4 O2- 0.0182(11) 0.0145(10) 0.0155(12) 0.0009(8) -0.0026(10) -0.0011(9)
O5 O2- 0.0217(11) 0.0150(10) 0.0107(11) -0.0002(8) -0.0021(9) 0.0002(8)
O6 O2- 0.0144(9) 0.0159(9) 0.0149(9) -0.0005(9) 0.0007(10) 0.0001(7)
O7 O2- 0.0219(10) 0.0184(11) 0.0119(11) -0.0074(9) 0.0001(9) -0.0001(8)
O8 O2- 0.0218(11) 0.0167(11) 0.0146(11) 0.0065(8) 0.0003(9) 0.0007(9)
O9 O2- 0.0243(12) 0.0182(11) 0.0134(12) -0.0071(9) 0.0019(9) 0.0001(8)
O10 O2- 0.0200(11) 0.0206(11) 0.0130(12) -0.0069(9) 0.0001(9) -0.0006(9)
O11 O2- 0.0137(9) 0.0148(9) 0.0159(9) 0.0004(9) -0.0010(10) -0.0005(7)
O12 O2- 0.0249(12) 0.0170(11) 0.0152(12) 0.0056(9) -0.0049(10) -0.0028(9)
O13 O2- 0.0205(11) 0.0206(12) 0.0191(13) -0.0031(9) 0.0060(9) -0.0030(9)
O14 O2- 0.0217(11) 0.0174(11) 0.0135(12) 0.0049(9) -0.0028(9) -0.0030(9)
O15 O2- 0.0230(12) 0.0171(11) 0.0199(12) 0.0031(9) -0.0089(10) -0.0048(9)
O16 O2- 0.0279(12) 0.0180(11) 0.0140(12) -0.0064(9) 0.0006(9) 0.0001(8)
O17 O2- 0.0248(11) 0.0166(10) 0.0159(11) -0.0041(9) 0.0041(9) -0.0040(8)
O18 O2- 0.0220(11) 0.0196(12) 0.0458(15) -0.0005(9) -0.0133(11) 0.0026(11)
O19 O2- 0.0195(11) 0.0271(12) 0.0139(12) 0.0064(9) -0.0013(9) -0.0004(9)
O20 O2- 0.0264(12) 0.0264(13) 0.0140(11) 0.0092(10) 0.0006(9) -0.0013(9)
O21 O2- 0.0237(11) 0.0174(10) 0.0143(12) -0.0033(9) 0.0018(9) -0.0001(8)
O22 O2- 0.0243(12) 0.0193(11) 0.0207(13) 0.0069(9) -0.0016(10) -0.0028(9)
O23 O2- 0.0228(14) 0.0199(14) 0.0158(15) -0.0042(13) 0. 0.
B1 B3+ 0.0140(15) 0.0158(16) 0.0144(19) 0.0000(13) 0.0001(14) 0.0006(14)
B2 B3+ 0.0149(16) 0.0149(15) 0.0159(19) -0.0015(13) 0.0019(14) 0.0024(14)
B3 B3+ 0.0132(16) 0.0171(17) 0.0150(20) -0.0028(12) -0.0003(14) 0.0039(13)
B4 B3+ 0.0141(15) 0.0163(17) 0.0136(19) 0.0023(13) 0.0023(14) -0.0019(13)
B5 B3+ 0.0160(16) 0.0172(17) 0.0173(19) -0.0006(13) 0.0008(15) 0.0000(13)
B6 B3+ 0.0132(16) 0.0122(16) 0.0167(17) -0.0005(13) 0.0011(13) 0.0026(12)
B7 B3+ 0.0171(17) 0.0160(17) 0.0143(18) -0.0020(13) -0.0031(13) 0.0028(12)
B8 B3+ 0.0162(15) 0.0120(15) 0.0164(18) -0.0010(12) 0.0019(15) -0.0032(13)
B9 B3+ 0.0161(16) 0.0150(17) 0.0162(18) -0.0005(13) -0.0003(13) 0.0006(13)
B10 B3+ 0.0165(16) 0.0134(17) 0.0191(18) -0.0025(13) -0.0007(14) -0.0023(13)
B11 B3+ 0.0163(13) 0.0171(14) 0.0115(13) -0.0011(15) -0.0017(15) -0.0019(11)
B12 B3+ 0.0225(18) 0.0142(17) 0.0222(18) -0.0013(14) -0.0019(16) 0.0018(14)
B13 B3+ 0.0188(18) 0.0181(17) 0.0246(19) -0.0033(14) -0.0006(14) 0.0024(14)
#End of TTdata_153217-ICSD