
#(C) 2019 by FIZ Karlsruhe - Leibniz Institute for Information Infrastructure.  All rights reserved.
data_153439-ICSD
_database_code_ICSD 153439
_audit_creation_date 2006-10-01
_chemical_name_systematic 'Disodium terbium(IV) oxide'
_chemical_formula_structural 'Na2 Tb O3'
_chemical_formula_sum 'Na2 O3 Tb1'
_chemical_name_structure_type Li2SnO3
_exptl_crystal_density_diffrn 5.33
_cell_measurement_temperature 2.6
_publ_section_title

;
Structure and magnetic properties of the two-dimensional antiferromagnet Na2
Tb O3
;
loop_
_citation_id
_citation_journal_full
_citation_year
_citation_journal_volume
_citation_page_first
_citation_page_last
_citation_journal_id_ASTM
primary 'Journal of Physics: Condensed Matter' 2005 17 4393 4401 JCOMEL
loop_
_publ_author_name
'Doi, Y.'
'Ninomiya, K.'
'Hinatsu, Y.'
'Ohoyama, K.'
_cell_length_a 5.7671(8)
_cell_length_b 9.9653(10)
_cell_length_c 11.1249(11)
_cell_angle_alpha 90.
_cell_angle_beta 99.700(9)
_cell_angle_gamma 90.
_cell_volume 630.22
_cell_formula_units_Z 8
_symmetry_space_group_name_H-M 'C 1 2/c 1'
_symmetry_Int_Tables_number 15
_refine_ls_R_factor_all 0.0331
loop_
_symmetry_equiv_pos_site_id
_symmetry_equiv_pos_as_xyz
1 'x, -y, z+1/2'
2 '-x, -y, -z'
3 '-x, y, -z+1/2'
4 'x, y, z'
5 'x+1/2, -y+1/2, z+1/2'
6 '-x+1/2, -y+1/2, -z'
7 '-x+1/2, y+1/2, -z+1/2'
8 'x+1/2, y+1/2, z'
loop_
_atom_type_symbol
_atom_type_oxidation_number
Na1+ 1
Tb4+ 4
Na1+ 1
Tb4+ 4
O2- -2
loop_
_atom_site_label
_atom_site_type_symbol
_atom_site_symmetry_multiplicity
_atom_site_Wyckoff_symbol
_atom_site_fract_x
_atom_site_fract_y
_atom_site_fract_z
_atom_site_B_iso_or_equiv
_atom_site_occupancy
_atom_site_attached_hydrogens
Na1 Na1+ 4 d 0.25 0.25 0.5 0.1(1) 1. 0
Na2 Na1+ 8 f 0.223(2) 0.4111(18) 0.0039(16) 0.1(1) 1. 0
Na3 Na1+ 4 e 0 0.7321(18) 0.25 0.1(1) 0.8 0
Tb1 Tb4+ 4 e 0 0.7321(18) 0.25 0.1(1) 0.2 0
Na4 Na1+ 4 e 0 0.4234(5) 0.25 0.1(1) 0.2 0
Tb2 Tb4+ 4 e 0 0.4234(5) 0.25 0.1(1) 0.8 0
Tb3 Tb4+ 4 e 0 0.0866(7) 0.25 0.1(1) 1. 0
O1 O2- 8 f 0.154(2) 0.5709(18) 0.1454(15) 0.2(1) 1. 0
O2 O2- 8 f 0.1025(15) 0.2563(19) 0.1411(10) 0.2(1) 1. 0
O3 O2- 8 f 0.141(2) 0.9327(15) 0.1421(14) 0.2(1) 1. 0
#End of TTdata_153439-ICSD