
#(C) 2019 by FIZ Karlsruhe - Leibniz Institute for Information Infrastructure.  All rights reserved.
data_153520-ICSD
_database_code_ICSD 153520
_audit_creation_date 2006-10-01
_chemical_name_systematic 'Sodium gadolinium tetrakis-catena-(phosphate(V))'
_chemical_formula_structural 'Na Gd (P O3)4'
_chemical_formula_sum 'Gd1 Na1 O12 P4'
_chemical_name_structure_type KCe(PO3)4
_exptl_crystal_density_diffrn 3.62
_publ_section_title
'Crystal structure and spectroscopic studies of Na Gd (P O3)4'
loop_
_citation_id
_citation_journal_full
_citation_year
_citation_journal_volume
_citation_page_first
_citation_page_last
_citation_journal_id_ASTM
primary 'Materials Research Bulletin' 2005 40 2144 2152 MRBUAC
loop_
_publ_author_name
'Amami, J.'
'Ferid, M.'
'Trabelsi-Ayedi, M.'
_cell_length_a 9.767(3)
_cell_length_b 13.017(1)
_cell_length_c 7.160(2)
_cell_angle_alpha 90.
_cell_angle_beta 90.564(5)
_cell_angle_gamma 90.
_cell_volume 910.26
_cell_formula_units_Z 4
_symmetry_space_group_name_H-M 'P 1 21/n 1'
_symmetry_Int_Tables_number 14
_refine_ls_R_factor_all 0.0219
loop_
_symmetry_equiv_pos_site_id
_symmetry_equiv_pos_as_xyz
1 '-x+1/2, y+1/2, -z+1/2'
2 '-x, -y, -z'
3 'x+1/2, -y+1/2, z+1/2'
4 'x, y, z'
loop_
_atom_type_symbol
_atom_type_oxidation_number
Gd3+ 3
P5+ 5
Na1+ 1
O2- -2
loop_
_atom_site_label
_atom_site_type_symbol
_atom_site_symmetry_multiplicity
_atom_site_Wyckoff_symbol
_atom_site_fract_x
_atom_site_fract_y
_atom_site_fract_z
_atom_site_B_iso_or_equiv
_atom_site_occupancy
_atom_site_attached_hydrogens
Gd1 Gd3+ 4 e 0.52355(1) 0.21827(1) 0.01292(2) 0.006 1. 0
P1 P5+ 4 e 0.25577(1) 0.10137(5) 0.74965(9) 0.007 1. 0
P2 P5+ 4 e 0.80122(7) 0.09053(5) 0.76811(9) 0.007 1. 0
P3 P5+ 4 e 0.19532(7) 0.12806(5) 0.14709(9) 0.006 1. 0
P4 P5+ 4 e 0.73637(7) 0.11476(5) 0.37701(9) 0.006 1. 0
Na1 Na1+ 4 e 0.4356(2) 0.2220(1) 0.5000(2) 0.021 1. 0
O1 O2- 4 e 0.3447(2) 0.1328(2) 0.1791(3) 0.011 1. 0
O2 O2- 4 e 0.6019(2) 0.1463(2) 0.3005(3) 0.01 1. 0
O3 O2- 4 e 0.7084(2) 0.0808(2) 0.5870(3) 0.01 1. 0
O4 O2- 4 e 0.8660(2) -0.0218(2) 0.7822(3) 0.011 1. 0
O5 O2- 4 e 0.4053(2) 0.1083(2) 0.7865(3) 0.011 1. 0
O6 O2- 4 e 0.8500(2) 0.1896(2) 0.3672(3) 0.011 1. 0
O7 O2- 4 e 0.1057(2) 0.2110(2) 0.2205(3) 0.01 1. 0
O8 O2- 4 e 0.2043(2) 0.1658(2) 0.5935(3) 0.011 1. 0
O9 O2- 4 e 0.1654(2) 0.1250(2) 0.9296(3) 0.01 1. 0
O10 O2- 4 e 0.9176(2) 0.1615(2) 0.7373(3) 0.012 1. 0
O11 O2- 4 e 0.2086(2) -0.0133(2) 0.7160(3) 0.011 1. 0
O12 O2- 4 e 0.7087(2) 0.1107(2) 0.9292(3) 0.013 1. 0
#End of TTdata_153520-ICSD