
#(C) 2019 by FIZ Karlsruhe - Leibniz Institute for Information Infrastructure.  All rights reserved.
data_15389-ICSD
_database_code_ICSD 15389
_audit_creation_date 1980-01-01
_audit_update_record 1988-03-29
_chemical_name_systematic 'Sodium diphosphate decahydrate'
_chemical_formula_structural 'Na4 P2 O7 (H2 O)10'
_chemical_formula_sum 'H20 Na4 O17 P2'
_exptl_crystal_density_diffrn 1.82
_publ_section_title 'A reinvestigation of the structure of Na4 P2 O7 (H2 O)10'
loop_
_citation_id
_citation_journal_full
_citation_year
_citation_journal_volume
_citation_page_first
_citation_page_last
_citation_journal_id_ASTM
primary 'Acta Crystallographica' 1967 22 43 48 ACCRA9
loop_
_publ_author_name
'McDonald, W.S.'
'Cruickshank, D.W.J.'
_cell_length_a 17.01(2)
_cell_length_b 6.96(1)
_cell_length_c 14.85(2)
_cell_angle_alpha 90.
_cell_angle_beta 112.0(2)
_cell_angle_gamma 90.
_cell_volume 1630.07
_cell_formula_units_Z 4
_symmetry_space_group_name_H-M 'C 1 2/c 1'
_symmetry_Int_Tables_number 15
_refine_ls_R_factor_all 0.072
loop_
_symmetry_equiv_pos_site_id
_symmetry_equiv_pos_as_xyz
1 'x, -y, z+1/2'
2 '-x, -y, -z'
3 '-x, y, -z+1/2'
4 'x, y, z'
5 'x+1/2, -y+1/2, z+1/2'
6 '-x+1/2, -y+1/2, -z'
7 '-x+1/2, y+1/2, -z+1/2'
8 'x+1/2, y+1/2, z'
loop_
_atom_type_symbol
_atom_type_oxidation_number
P5+ 5
Na1+ 1
O2- -2
H1+ 1
loop_
_atom_site_label
_atom_site_type_symbol
_atom_site_symmetry_multiplicity
_atom_site_Wyckoff_symbol
_atom_site_fract_x
_atom_site_fract_y
_atom_site_fract_z
_atom_site_B_iso_or_equiv
_atom_site_occupancy
_atom_site_attached_hydrogens
P1 P5+ 8 f 0.0657(1) 0.2710(3) 0.3477(1) . 1. 0
Na1 Na1+ 8 f 0.2413(2) 0.3065(5) 0.1069(2) . 1. 0
Na2 Na1+ 8 f 0.3848(3) 0.0845(5) 0.3016(2) . 1. 0
O1 O2- 4 e 0 0.1735(11) 0.25 . 1. 0
O2 O2- 8 f 0.0254(3) 0.4484(8) 0.3702(3) . 1. 0
O3 O2- 8 f 0.0778(3) 0.1135(9) 0.4209(3) . 1. 0
O4 O2- 8 f 0.1447(3) 0.3223(8) 0.3272(3) . 1. 0
O5 O2- 8 f 0.1014(3) 0.3890(9) 0.0540(4) . 1. 0
O6 O2- 8 f 0.2405(3) 0.0212(8) 0.0214(4) . 1. 0
O7 O2- 8 f 0.2302(3) 0.0849(10) 0.2516(4) . 1. 0
O8 O2- 8 f 0.3926(3) 0.2647(8) 0.1710(4) . 1. 0
O9 O2- 8 f 0.4160(3) 0.3847(9) 0.3891(4) . 1. 0
H1 H1+ 8 f 0.064(7) 0.417(16) -.012(8) 0.075(34) 1. 0
H2 H1+ 8 f 0.065(10) 0.408(24) 0.066(11) 0.136(66) 1. 0
H3 H1+ 8 f 0.192(5) -.065(13) -.005(6) 0.045(25) 1. 0
H4 H1+ 8 f 0.270(8) 0.003(20) 0.095(8) 0.092(40) 1. 0
H5 H1+ 8 f 0.193(10) 0.175(24) 0.257(11) 0.147(59) 1. 0
H6 H1+ 8 f 0.177(6) 0.006(16) 0.192(7) 0.074(31) 1. 0
H7 H1+ 8 f 0.432(6) 0.171(14) 0.152(6) 0.059(27) 1. 0
H8 H1+ 8 f 0.398(14) 0.327(32) 0.140(14) 0.215(88) 1. 0
H9 H1+ 8 f 0.467(8) 0.411(18) 0.410(8) 0.082(42) 1. 0
H10 H1+ 8 f 0.41(1) 0.413(26) 0.464(11) 0.180(68) 1. 0
loop_
_atom_site_aniso_label
_atom_site_aniso_type_symbol
_atom_site_aniso_U_11
_atom_site_aniso_U_22
_atom_site_aniso_U_33
_atom_site_aniso_U_12
_atom_site_aniso_U_13
_atom_site_aniso_U_23
P1 P5+ 0.0142(6) 0.0146(13) 0.0145(6) 0.00250(65) 0.0034(5) 0.00105(65)
Na1 Na1+ 0.0282(13) 0.0378(25) 0.0359(14) 0.0086(14) 0.0127(11) 0.0053(14)
Na2 Na1+ 0.0275(13) 0.0326(24) 0.0311(13) 0.0021(13) 0.0121(11) 0.0026(13)
O1 O2- 0.0299(32) 0.0145(51) 0.0236(30) 0 -.0048(25) 0
O2 O2- 0.0260(21) 0.0119(34) 0.0320(22) 0.0027(15) 0.0107(19) -0.0029(21)
O3 O2- 0.0374(25) 0.0357(41) 0.0223(22) 0.0010(25) 0.0098(20) 0.0095(22)
O4 O2- 0.0221(21) 0.0333(40) 0.0363(24) -0.0067(22) 0.0159(19) -.0089(23)
O5 O2- 0.0237(21) 0.0535(46) 0.0268(23) 0.0058(25) 0.0097(19) 0.0032(25)
O6 O2- 0.0273(23) 0.0297(40) 0.0336(25) -0.0027(24) 0.0040(19) 0.0000(24)
O7 O2- 0.0266(24) 0.0545(50) 0.0465(30) 0.0026(27) 0.0176(24) -0.0155(28)
O8 O2- 0.0315(23) 0.0266(40) 0.0375(25) 0.0049(24) 0.0159(21) 0.0081(25)
O9 O2- 0.0413(28) 0.0402(45) 0.0331(25) -.0012(27) 0.0147(22) -.0010(25)
#End of TTdata_15389-ICSD