
#(C) 2019 by FIZ Karlsruhe - Leibniz Institute for Information Infrastructure.  All rights reserved.
data_154072-ICSD
_database_code_ICSD 154072
_audit_creation_date 2007-04-01
_chemical_name_systematic
'Sodium aluminium hafnium phosphate(V) (1.09/0.09/1.91/3)'
_chemical_formula_structural 'Na1.093 (Al0.092 Hf1.908) (P O4)3'
_chemical_formula_sum 'Al0.092 Hf1.908 Na1.093 O12 P3'
_chemical_name_structure_type Na2TiFe(PO4)3
_exptl_crystal_density_diffrn 4.31
_publ_section_title

;
Nominal vs. actual stoichiometries in Al-doped NASICONs: a study of the Na1.4
Al0.4 M1.6 (P O4)3 (M= Ge, Sn, Ti, Hf, Zr) family
;
loop_
_citation_id
_citation_journal_full
_citation_year
_citation_journal_volume
_citation_page_first
_citation_page_last
_citation_journal_id_ASTM
primary 'Solid State Ionics' 2005 176 1613 1625 SSIOD3
loop_
_publ_author_name
'Maldonado-Manso, P.'
'Aranda, M.A.G.'
'Bruque, S.'
'Sanz, J.'
'Losilla, E.R.'
_cell_length_a 8.7659(1)
_cell_length_b 8.7659(1)
_cell_length_c 22.7027(5)
_cell_angle_alpha 90.
_cell_angle_beta 90.
_cell_angle_gamma 120.
_cell_volume 1510.78
_cell_formula_units_Z 6
_symmetry_space_group_name_H-M 'R -3 c H'
_symmetry_Int_Tables_number 167
_refine_ls_R_factor_all 0.018
loop_
_symmetry_equiv_pos_site_id
_symmetry_equiv_pos_as_xyz
1 'x-y, -y, -z+1/2'
2 '-x, -x+y, -z+1/2'
3 'y, x, -z+1/2'
4 'x-y, x, -z'
5 'y, -x+y, -z'
6 '-x, -y, -z'
7 '-x+y, y, z+1/2'
8 'x, x-y, z+1/2'
9 '-y, -x, z+1/2'
10 '-x+y, -x, z'
11 '-y, x-y, z'
12 'x, y, z'
13 'x-y+2/3, -y+1/3, -z+5/6'
14 '-x+2/3, -x+y+1/3, -z+5/6'
15 'y+2/3, x+1/3, -z+5/6'
16 'x-y+2/3, x+1/3, -z+1/3'
17 'y+2/3, -x+y+1/3, -z+1/3'
18 '-x+2/3, -y+1/3, -z+1/3'
19 '-x+y+2/3, y+1/3, z+5/6'
20 'x+2/3, x-y+1/3, z+5/6'
21 '-y+2/3, -x+1/3, z+5/6'
22 '-x+y+2/3, -x+1/3, z+1/3'
23 '-y+2/3, x-y+1/3, z+1/3'
24 'x+2/3, y+1/3, z+1/3'
25 'x-y+1/3, -y+2/3, -z+1/6'
26 '-x+1/3, -x+y+2/3, -z+1/6'
27 'y+1/3, x+2/3, -z+1/6'
28 'x-y+1/3, x+2/3, -z+2/3'
29 'y+1/3, -x+y+2/3, -z+2/3'
30 '-x+1/3, -y+2/3, -z+2/3'
31 '-x+y+1/3, y+2/3, z+1/6'
32 'x+1/3, x-y+2/3, z+1/6'
33 '-y+1/3, -x+2/3, z+1/6'
34 '-x+y+1/3, -x+2/3, z+2/3'
35 '-y+1/3, x-y+2/3, z+2/3'
36 'x+1/3, y+2/3, z+2/3'
loop_
_atom_type_symbol
_atom_type_oxidation_number
Na1+ 1
Al3+ 3
Hf4+ 4
P5+ 5
O2- -2
loop_
_atom_site_label
_atom_site_type_symbol
_atom_site_symmetry_multiplicity
_atom_site_Wyckoff_symbol
_atom_site_fract_x
_atom_site_fract_y
_atom_site_fract_z
_atom_site_B_iso_or_equiv
_atom_site_occupancy
_atom_site_attached_hydrogens
Na1 Na1+ 6 b 0 0 0 0.038(2) 1. 0
Na2 Na1+ 18 e 0.69(1) 0 0.25 0.03 0.031(7) 0
Al1 Al3+ 12 c 0 0 0.14563(4) 0.0044(3) 0.046(6) 0
Hf1 Hf4+ 12 c 0 0 0.14563(4) 0.0044(3) 0.954(6) 0
P1 P5+ 18 e 0.2912(2) 0 0.25 0.0086(6) 1. 0
O1 O2- 36 f 0.1829(3) -0.0187(2) 0.19532(6) 0.0151(4) 1. 0
O2 O2- 36 f 0.1936(2) 0.1690(2) 0.08759(6) 0.0135(4) 1. 0
#End of TTdata_154072-ICSD