
#(C) 2019 by FIZ Karlsruhe - Leibniz Institute for Information Infrastructure.  All rights reserved.
data_154124-ICSD
_database_code_ICSD 154124
_audit_creation_date 2007-04-01
_chemical_name_systematic 'Disodium cuprotrisilicate'
_chemical_formula_structural 'Na2 (Cu Si3 O8)'
_chemical_formula_sum 'Cu1 Na2 O8 Si3'
_exptl_crystal_density_diffrn 2.82
_publ_section_title

;
Hydrothermal synthesis and structures of the open-framework copper silicates
Na2 (Cu2 Si4 O11) (H2 O)2 (CuSH-2Na), Na2 (Cu Si3 O8) (CuSH-3Na), Cs2 Na4 (Cu2
Si12 O27 (O H)2) (O H)2 (CuSH-4NaCs) and Na2 (Cu2 Si5 O13) (H2 O)3 (CuSH-6Na)
;
loop_
_citation_id
_citation_journal_full
_citation_year
_citation_journal_volume
_citation_page_first
_citation_page_last
_citation_journal_id_ASTM
primary 'Solid State Sciences' 2005 7 1415 1422 SSSCFJ
loop_
_publ_author_name
'Wang Xiqu'
'Liu Lumei'
'Wang Lingbao'
'Jacobson, A.J.'
_cell_length_a 7.9324(5)
_cell_length_b 10.3285(6)
_cell_length_c 9.6005(6)
_cell_angle_alpha 90.
_cell_angle_beta 105.6(1)
_cell_angle_gamma 90.
_cell_volume 757.59
_cell_formula_units_Z 4
_symmetry_space_group_name_H-M 'P 1 21/c 1'
_symmetry_Int_Tables_number 14
_refine_ls_R_factor_all 0.0292
loop_
_symmetry_equiv_pos_site_id
_symmetry_equiv_pos_as_xyz
1 'x, -y+1/2, z+1/2'
2 '-x, -y, -z'
3 '-x, y+1/2, -z+1/2'
4 'x, y, z'
loop_
_atom_type_symbol
_atom_type_oxidation_number
Na1+ 1
Cu2+ 2
Si4+ 4
O2- -2
loop_
_atom_site_label
_atom_site_type_symbol
_atom_site_symmetry_multiplicity
_atom_site_Wyckoff_symbol
_atom_site_fract_x
_atom_site_fract_y
_atom_site_fract_z
_atom_site_B_iso_or_equiv
_atom_site_occupancy
_atom_site_attached_hydrogens
Na1 Na1+ 4 e -0.1998(2) -0.0249(1) 0.0390(1) 0.022(1) 1. 0
Na2 Na1+ 4 e 0.2073(2) 0.4898(1) 0.1293(1) 0.018(1) 1. 0
Cu1 Cu2+ 4 e 0.0144(1) 0.2282(1) 0.1867(1) 0.010(1) 1. 0
Si1 Si4+ 4 e -0.3839(1) -0.2833(1) 0.1081(1) 0.008(1) 1. 0
Si2 Si4+ 4 e -0.3814(1) 0.2288(1) 0.1935(1) 0.009(1) 1. 0
Si3 Si4+ 4 e 0.1963(1) -0.0228(1) 0.3088(1) 0.009(1) 1. 0
O1 O2- 4 e -0.3462(2) 0.3825(2) 0.2257(2) 0.014(1) 1. 0
O2 O2- 4 e -0.0722(2) 0.3962(2) 0.1165(2) 0.012(1) 1. 0
O3 O2- 4 e 0.2393(2) 0.3071(2) 0.2902(2) 0.013(1) 1. 0
O4 O2- 4 e -0.2099(2) 0.1496(2) 0.1910(2) 0.013(1) 1. 0
O5 O2- 4 e 0.1034(2) 0.0563(2) 0.1637(2) 0.012(1) 1. 0
O6 O2- 4 e -0.5416(3) -0.3279(2) 0.1774(2) 0.012(1) 1. 0
O7 O2- 4 e -0.2981(2) -0.4173(2) 0.0674(2) 0.011(1) 1. 0
O8 O2- 4 e -0.4656(3) -0.2060(2) -0.0428(2) 0.014(1) 1. 0
#End of TTdata_154124-ICSD