
#(C) 2019 by FIZ Karlsruhe - Leibniz Institute for Information Infrastructure.  All rights reserved.
data_154419-ICSD
_database_code_ICSD 154419
_audit_creation_date 2007-04-01
_chemical_name_systematic
'Sodium manganese manganese(III) phosphate(V) (1.27/2.69/0.79/3)'
_chemical_formula_structural 'Na1.265 Mn3.475 (P O4)3'
_chemical_formula_sum 'Mn3.475 Na1.265 O12 P3'
_chemical_name_structure_type Wyllieite
_chemical_name_mineral Unnamed_Wyllieite
_exptl_crystal_density_diffrn 3.74
_publ_section_title

;
The crystal structure of a new synthetic member in the wyllieite group:
Na1.265 Mn(2+)2.690 Mn(3+)0.785 (P O4)3
;
loop_
_citation_id
_citation_journal_full
_citation_year
_citation_journal_volume
_citation_page_first
_citation_page_last
_citation_journal_id_ASTM
primary 'European Journal of Mineralogy' 2005 17 741 747 EJMIER
loop_
_publ_author_name
'Yakubovich, O.V.'
'Massa, W.'
'Gavrilenko, P.G.'
'Dimitrova, O.V.'
_cell_length_a 6.5291(6)
_cell_length_b 12.653(1)
_cell_length_c 10.952(1)
_cell_angle_alpha 90.
_cell_angle_beta 97.18(1)
_cell_angle_gamma 90.
_cell_volume 897.68
_cell_formula_units_Z 4
_symmetry_space_group_name_H-M 'P 1 21/c 1'
_symmetry_Int_Tables_number 14
_refine_ls_R_factor_all 0.0277
loop_
_symmetry_equiv_pos_site_id
_symmetry_equiv_pos_as_xyz
1 'x, -y+1/2, z+1/2'
2 '-x, -y, -z'
3 '-x, y+1/2, -z+1/2'
4 'x, y, z'
loop_
_atom_type_symbol
_atom_type_oxidation_number
Mn2+ 2
Mn2+ 2.785
Mn2+ 2
Na1+ 1
P5+ 5
O2- -2
loop_
_atom_site_label
_atom_site_type_symbol
_atom_site_symmetry_multiplicity
_atom_site_Wyckoff_symbol
_atom_site_fract_x
_atom_site_fract_y
_atom_site_fract_z
_atom_site_B_iso_or_equiv
_atom_site_occupancy
_atom_site_attached_hydrogens
Mn1 Mn2+ 4 e 0.76656(9) 0.26564(4) 0.49928(5) 0.0095(1) 1. 0
Mn2 Mn2+ 4 e 0.08817(8) 0.14513(3) 0.72576(4) 0.0076(1) 1. 0
Mn3 Mn2+ 4 e 0.42027(8) 0.16786(4) 0.28292(4) 0.0070(1) 1. 0
Mn4 Mn2+ 4 e 0.0266(7) 0.5028(4) 0.5130(4) 0.0136(7) 0.475(2) 0
Na1 Na1+ 4 e 0.2468(4) 0.0182(1) 0.5007(2) 0.0322(8) 0.854(7) 0
Na2 Na1+ 2 b 0.5 0.5 0.5 0.0344(12) 0.822(10) 0
P1 P5+ 4 e 0.6195(1) 0.40115(6) 0.23241(7) 0.0074(2) 1. 0
P2 P5+ 4 e 0.0915(1) 0.88358(6) 0.73581(7) 0.0061(2) 1. 0
P3 P5+ 4 e 0.2655(1) 0.28952(5) 0.50696(7) 0.0052(2) 1. 0
O1 O2- 4 e 0.4221(4) 0.3345(2) 0.2312(2) 0.0166(5) 1. 0
O2 O2- 4 e 0.0508(4) 0.9885(2) 0.6700(2) 0.0131(5) 1. 0
O3 O2- 4 e 0.1557(4) 0.6013(2) 0.3754(2) 0.0093(5) 1. 0
O4 O2- 4 e 0.1633(4) 0.3743(2) 0.4198(2) 0.0124(5) 1. 0
O5 O2- 4 e 0.4385(4) 0.0095(2) 0.3255(2) 0.0182(5) 1. 0
O6 O2- 4 e 0.3862(4) 0.3552(2) 0.6108(2) 0.0159(5) 1. 0
O7 O2- 4 e 0.2606(4) 0.8251(2) 0.6757(2) 0.0123(5) 1. 0
O8 O2- 4 e 0.1036(4) 0.1862(2) 0.2816(2) 0.0111(5) 1. 0
O9 O2- 4 e 0.4341(4) 0.2239(2) 0.4529(2) 0.0097(5) 1. 0
O10 O2- 4 e 0.0988(4) 0.2161(2) 0.5443(2) 0.0078(5) 1. 0
O11 O2- 4 e 0.7645(4) 0.3466(2) 0.1508(2) 0.0120(5) 1. 0
O12 O2- 4 e 0.7266(4) 0.4102(2) 0.3660(2) 0.0143(5) 1. 0
loop_
_atom_site_aniso_label
_atom_site_aniso_type_symbol
_atom_site_aniso_U_11
_atom_site_aniso_U_22
_atom_site_aniso_U_33
_atom_site_aniso_U_12
_atom_site_aniso_U_13
_atom_site_aniso_U_23
Mn1 Mn2+ 0.0086(3) 0.0121(2) 0.0071(2) 0.0010(2) -0.0018(2) -0.0009(2)
Mn2 Mn2+ 0.0055(3) 0.0115(2) 0.0039(2) -0.0007(2) 0.0004(2) -0.0012(2)
Mn3 Mn2+ 0.0077(3) 0.0086(2) 0.0063(2) -0.0008(2) -0.0007(2) 0.0002(2)
Mn4 Mn2+ 0.029(2) 0.0057(6) 0.0083(16) -0.0033(12) 0.0104(11) -0.0033(10)
Na1 Na1+ 0.0398(14) 0.0425(13) 0.0162(9) -0.0005(9) 0.0108(8) -0.0029(8)
Na2 Na1+ 0.051(2) 0.0150(14) 0.0442(19) -0.0051(13) 0.0354(15) -0.0015(12)
P1 P5+ 0.0039(4) 0.0131(4) 0.0053(3) 0.0013(3) 0.0009(3) -0.0012(3)
P2 P5+ 0.0079(4) 0.0062(3) 0.0047(3) -0.0002(3) 0.0026(3) -0.0003(3)
P3 P5+ 0.0046(4) 0.0070(3) 0.0044(3) 0.0001(3) 0.0015(3) 0.0003(3)
O1 O2- 0.0048(13) 0.0347(14) 0.0107(10) -0.0014(10) 0.0020(9) -0.0009(9)
O2 O2- 0.0161(14) 0.0105(10) 0.0125(10) 0.0015(9) 0.0011(9) 0.0002(8)
O3 O2- 0.0116(12) 0.0108(10) 0.0055(9) 0.0004(8) 0.0003(9) 0.0008(7)
O4 O2- 0.0156(13) 0.0126(10) 0.0092(10) 0.0066(9) 0.0015(9) 0.0010(8)
O5 O2- 0.0181(15) 0.0248(12) 0.0119(10) -0.0130(10) 0.0019(10) -0.0040(9)
O6 O2- 0.0200(15) 0.0159(11) 0.0109(10) -0.0098(9) -0.0013(10) 0.0008(8)
O7 O2- 0.0164(14) 0.0118(10) 0.0103(10) -0.0003(9) 0.0075(9) -0.0023(8)
O8 O2- 0.0122(13) 0.0139(10) 0.0070(9) -0.0054(9) 0.0004(9) -0.0011(8)
O9 O2- 0.0059(12) 0.0164(11) 0.0074(9) 0.0030(9) 0.0026(9) 0.0017(8)
O10 O2- 0.0055(12) 0.0126(10) 0.0054(9) -0.0018(8) 0.0017(8) 0.0003(8)
O11 O2- 0.0074(13) 0.0169(11) 0.0128(10) -0.0010(9) 0.0054(9) -0.0044(8)
O12 O2- 0.0164(13) 0.0159(11) 0.0094(10) 0.0017(9) -0.0029(9) -0.0002(8)
#End of TTdata_154419-ICSD