
#(C) 2019 by FIZ Karlsruhe - Leibniz Institute for Information Infrastructure.  All rights reserved.
data_154429-ICSD
_database_code_ICSD 154429
_audit_creation_date 2007-04-01
_chemical_name_systematic 'Lithium sodium zinc diphosphate(V)'
_chemical_formula_structural 'Li Na Zn (P2 O7)'
_chemical_formula_sum 'Li1 Na1 O7 P2 Zn1'
_exptl_crystal_density_diffrn 3.02
_publ_section_title

;
Crystal structure of the Li Na Zn P2 O7 compound in the (Li2 Zn P2 O7) - (Na2
Zn P2 O7) glass-forming system
;
loop_
_citation_id
_citation_journal_full
_citation_year
_citation_journal_volume
_citation_page_first
_citation_page_last
_citation_journal_id_ASTM
primary 'Glass Physics and Chemistry' 2005 31 690 693 GPHCEE
loop_
_publ_author_name
'Shepelev, Yu.F.'
'Lapshin, A.E.'
'Petrova, M.A.'
'Novikova, A.S.'
_cell_length_a 12.431(8)
_cell_length_b 7.589(7)
_cell_length_c 6.283(6)
_cell_angle_alpha 90.
_cell_angle_beta 90.
_cell_angle_gamma 90.
_cell_volume 592.73
_cell_formula_units_Z 4
_symmetry_space_group_name_H-M 'C m c m'
_symmetry_Int_Tables_number 63
_refine_ls_R_factor_all 0.076
loop_
_symmetry_equiv_pos_site_id
_symmetry_equiv_pos_as_xyz
1 '-x, y, -z+1/2'
2 '-x, -y, z+1/2'
3 '-x, y, z'
4 '-x, -y, -z'
5 'x, -y, z+1/2'
6 'x, y, -z+1/2'
7 'x, -y, -z'
8 'x, y, z'
9 '-x+1/2, y+1/2, -z+1/2'
10 '-x+1/2, -y+1/2, z+1/2'
11 '-x+1/2, y+1/2, z'
12 '-x+1/2, -y+1/2, -z'
13 'x+1/2, -y+1/2, z+1/2'
14 'x+1/2, y+1/2, -z+1/2'
15 'x+1/2, -y+1/2, -z'
16 'x+1/2, y+1/2, z'
loop_
_atom_type_symbol
_atom_type_oxidation_number
P5+ 5
O2- -2
Na1+ 1
Zn2+ 2
Li1+ 1
loop_
_atom_site_label
_atom_site_type_symbol
_atom_site_symmetry_multiplicity
_atom_site_Wyckoff_symbol
_atom_site_fract_x
_atom_site_fract_y
_atom_site_fract_z
_atom_site_B_iso_or_equiv
_atom_site_occupancy
_atom_site_attached_hydrogens
P1 P5+ 8 g 0.3843(3) 0.1950(6) 0.25 2.0(1) 1. 0
O1 O2- 16 h 0.3775(6) 0.305(1) 0.459(2) 4.8(3) 1. 0
O2 O2- 4 c 0.5 0.087(2) 0.25 2.0(3) 1. 0
O3 O2- 8 g 0.307(1) 0.045(2) 0.25 5.6(4) 1. 0
Na1 Na1+ 4 c 0.5 0.257(2) 0.75 6.7(5) 1. 0
Zn1 Zn2+ 8 e 0.281(3) 0.5 0 3.7(3) 0.5 0
Li1 Li1+ 8 e 0.281(3) 0.5 0 3.7(3) 0.5 0
#End of TTdata_154429-ICSD