
#(C) 2019 by FIZ Karlsruhe - Leibniz Institute for Information Infrastructure.  All rights reserved.
data_154650-ICSD
_database_code_ICSD 154650
_audit_creation_date 2007-04-01
_chemical_name_systematic 'Disodium plutonium(IV) tris(molybdate)'
_chemical_formula_structural 'Na2 Pu (Mo O4)3'
_chemical_formula_sum 'Mo3 Na2 O12 Pu1'
_exptl_crystal_density_diffrn 4.11
_publ_section_title

;
Structural and thermal studies on Na2 Th (Mo O4)3, Na2 Pu (Mo O4)3, Na4 Th (Mo
O4)4 and Na4 Pu (Mo O4)4
;
loop_
_citation_id
_citation_journal_full
_citation_year
_citation_journal_volume
_citation_page_first
_citation_page_last
_citation_journal_id_ASTM
primary 'Journal of Alloys and Compounds' 2006 415 244 250 JALCEU
loop_
_publ_author_name
'Dahale, N.D.'
'Keskar, M.'
'Singh Mudher, K.D.'
_cell_length_a 5.2277(8)
_cell_length_b 5.2277(8)
_cell_length_c 11.3810(15)
_cell_angle_alpha 90.
_cell_angle_beta 90.
_cell_angle_gamma 90.
_cell_volume 311.03
_cell_formula_units_Z 1
_symmetry_space_group_name_H-M 'I 41/a Z'
_symmetry_Int_Tables_number 88
_refine_ls_R_factor_all 0.082
loop_
_symmetry_equiv_pos_site_id
_symmetry_equiv_pos_as_xyz
1 '-y+3/4, x+3/4, -z+3/4'
2 'y+1/4, -x+3/4, -z+3/4'
3 'x, y+1/2, -z'
4 '-x, -y, -z'
5 'y+1/4, -x+1/4, z+1/4'
6 '-y+3/4, x+1/4, z+1/4'
7 '-x, -y+1/2, z'
8 'x, y, z'
9 '-y+1/4, x+1/4, -z+1/4'
10 'y+3/4, -x+1/4, -z+1/4'
11 'x+1/2, y, -z+1/2'
12 '-x+1/2, -y+1/2, -z+1/2'
13 'y+3/4, -x+3/4, z+3/4'
14 '-y+1/4, x+3/4, z+3/4'
15 '-x+1/2, -y, z+1/2'
16 'x+1/2, y+1/2, z+1/2'
loop_
_atom_type_symbol
_atom_type_oxidation_number
Na1+ 1
Pu4+ 4
Mo6+ 6
O2- -2
loop_
_atom_site_label
_atom_site_type_symbol
_atom_site_symmetry_multiplicity
_atom_site_Wyckoff_symbol
_atom_site_fract_x
_atom_site_fract_y
_atom_site_fract_z
_atom_site_B_iso_or_equiv
_atom_site_occupancy
_atom_site_attached_hydrogens
Na1 Na1+ 4 b 0 0.25 0.625 1.5(3) 0.5 0
Pu1 Pu4+ 4 b 0 0.25 0.625 1.5(3) 0.25 0
Mo1 Mo6+ 4 a 0 0.25 0.125 2.5(4) 0.75 0
O1 O2- 16 f 0.166(2) 0.015(3) 0.209(1) 3.9(4) 0.75 0
#End of TTdata_154650-ICSD