
#(C) 2019 by FIZ Karlsruhe - Leibniz Institute for Information Infrastructure.  All rights reserved.
data_154706-ICSD
_database_code_ICSD 154706
_audit_creation_date 2007-04-01
_audit_update_record 2015-02-01
_chemical_name_systematic 'Disodium praseodymium(IV) oxide'
_chemical_formula_structural 'Na2 Pr O3'
_chemical_formula_sum 'Na2 O3 Pr1'
_chemical_name_structure_type Li2SnO3
_exptl_crystal_density_diffrn 4.6
_publ_section_title

;
Crystal structures and magnetic properties of alkali-metal lanthanide oxides
A2 Ln O3 (A = Li, Na; Ln = Ce, Pr, Tb)
;
loop_
_citation_id
_citation_journal_full
_citation_year
_citation_journal_volume
_citation_page_first
_citation_page_last
_citation_journal_id_ASTM
primary 'Journal of Alloys and Compounds' 2006 418 155 160 JALCEU
loop_
_publ_author_name
'Hinatsu, Y.'
'Doi, Y.'
_cell_length_a 5.9649(9)
_cell_length_b 10.314(1)
_cell_length_c 11.749(2)
_cell_angle_alpha 90.
_cell_angle_beta 110.09(1)
_cell_angle_gamma 90.
_cell_volume 678.84
_cell_formula_units_Z 8
_symmetry_space_group_name_H-M 'C 1 2/c 1'
_symmetry_Int_Tables_number 15
_refine_ls_R_factor_all 0.0791
loop_
_symmetry_equiv_pos_site_id
_symmetry_equiv_pos_as_xyz
1 'x, -y, z+1/2'
2 '-x, -y, -z'
3 '-x, y, -z+1/2'
4 'x, y, z'
5 'x+1/2, -y+1/2, z+1/2'
6 '-x+1/2, -y+1/2, -z'
7 '-x+1/2, y+1/2, -z+1/2'
8 'x+1/2, y+1/2, z'
loop_
_atom_type_symbol
_atom_type_oxidation_number
Na1+ 1
Pr4+ 4
Na1+ 1
Pr4+ 4
O2- -2
loop_
_atom_site_label
_atom_site_type_symbol
_atom_site_symmetry_multiplicity
_atom_site_Wyckoff_symbol
_atom_site_fract_x
_atom_site_fract_y
_atom_site_fract_z
_atom_site_B_iso_or_equiv
_atom_site_occupancy
_atom_site_attached_hydrogens
Na1 Na1+ 4 a 0 0 0 0.49(4) 1. 0
Na2 Na1+ 8 f -0.040(2) 0.325(1) -0.004(2) 0.49(4) 1. 0
Na3 Na1+ 4 e 0 0.8146(9) 0.25 0.49(4) 0.66(1) 0
Pr1 Pr4+ 4 e 0 0.8146(9) 0.25 0.49(4) 0.34(1) 0
Na4 Na1+ 4 e 0 0.1681(7) 0.25 0.49(4) 0.34(1) 0
Pr2 Pr4+ 4 e 0 0.1681(7) 0.25 0.49(4) 0.66(1) 0
Pr3 Pr4+ 4 e 0 0.4994(6) 0.25 0.49(4) 1. 0
O1 O2- 8 f 0.241(4) 0.501(3) 0.141(2) 1. 1. 0
O2 O2- 8 f 0.251(5) 0.135(2) 0.144(2) 1. 1. 0
O3 O2- 8 f 0.301(4) 0.861(3) 0.143(2) 1. 1. 0
#End of TTdata_154706-ICSD