
#(C) 2019 by FIZ Karlsruhe - Leibniz Institute for Information Infrastructure.  All rights reserved.
data_15489-ICSD
_database_code_ICSD 15489
_audit_creation_date 1980-01-01
_audit_update_record 1998-06-26
_chemical_name_systematic 'Sodium aluminium disilicate *'
_chemical_formula_structural 'Na Al (Si2 O6)'
_chemical_formula_sum 'Al1 Na1 O6 Si2'
_chemical_name_structure_type Pyroxene-CaMg(SiO3)2
_chemical_name_mineral Jadeite
_exptl_crystal_density_diffrn 3.35
_publ_section_title 'The crystal structure of jadeite, Na Al Si2 O6'
loop_
_citation_id
_citation_journal_full
_citation_year
_citation_journal_volume
_citation_page_first
_citation_page_last
_citation_journal_id_ASTM
primary 'American Mineralogist' 1966 51 956 975 AMMIAY
loop_
_publ_author_name
'Prewitt, C.T.'
'Burnham, C.W.'
_cell_length_a 9.418(1)
_cell_length_b 8.562(2)
_cell_length_c 5.219(1)
_cell_angle_alpha 90.
_cell_angle_beta 107.58(1)
_cell_angle_gamma 90.
_cell_volume 401.19
_cell_formula_units_Z 4
_symmetry_space_group_name_H-M 'C 1 2/c 1'
_symmetry_Int_Tables_number 15
_refine_ls_R_factor_all 0.037
loop_
_symmetry_equiv_pos_site_id
_symmetry_equiv_pos_as_xyz
1 'x, -y, z+1/2'
2 '-x, -y, -z'
3 '-x, y, -z+1/2'
4 'x, y, z'
5 'x+1/2, -y+1/2, z+1/2'
6 '-x+1/2, -y+1/2, -z'
7 '-x+1/2, y+1/2, -z+1/2'
8 'x+1/2, y+1/2, z'
loop_
_atom_type_symbol
_atom_type_oxidation_number
Na1+ 1
Al3+ 3
Si4+ 4
O2- -2
loop_
_atom_site_label
_atom_site_type_symbol
_atom_site_symmetry_multiplicity
_atom_site_Wyckoff_symbol
_atom_site_fract_x
_atom_site_fract_y
_atom_site_fract_z
_atom_site_B_iso_or_equiv
_atom_site_occupancy
_atom_site_attached_hydrogens
Na1 Na1+ 4 e 0 0.3009(2) 0.25 . 1. 0
Al1 Al3+ 4 e 0 0.0940(1) 0.75 . 1. 0
Si1 Si4+ 8 f 0.2906(1) 0.0934(1) 0.2277(2) . 1. 0
O1 O2- 8 f 0.1090(2) 0.0763(3) 0.1275(4) . 1. 0
O2 O2- 8 f 0.3608(2) 0.2630(3) 0.2929(4) . 1. 0
O3 O2- 8 f 0.3533(2) 0.0070(3) 0.0058(4) . 1. 0
loop_
_atom_site_aniso_label
_atom_site_aniso_type_symbol
_atom_site_aniso_beta_11
_atom_site_aniso_beta_22
_atom_site_aniso_beta_33
_atom_site_aniso_beta_12
_atom_site_aniso_beta_13
_atom_site_aniso_beta_23
Na1 Na1+ 0.0035(2) 0.0026(3) 0.0074(8) 0 -.0002(3) 0
Al1 Al3+ 0.0013(2) 0.0015(2) 0.0035(6) 0 0.0005(3) 0
Si1 Si4+ 0.0011(1) 0.0017(2) 0.0036(5) 0.0000(1) 0.0006(2) -.0001(2)
O1 O2- 0.0004(3) 0.0020(3) 0.0032(9) -.0004(2) 0.0000(4) -.0007(4)
O2 O2- 0.0010(3) 0.0020(3) 0.0047(9) -.0004(2) 0.0000(4) 0.0002(4)
O3 O2- 0.0013(3) 0.0022(3) 0.0041(10) -.0003(2) 0.0009(4) 0.0000(4)
#End of TTdata_15489-ICSD