
#(C) 2019 by FIZ Karlsruhe - Leibniz Institute for Information Infrastructure.  All rights reserved.
data_155001-ICSD
_database_code_ICSD 155001
_audit_creation_date 2007-04-01
_chemical_name_systematic 'Octasodium tecto-octaalumooctasilicate'
_chemical_formula_structural 'Na8 (Al8 Si8 O32)'
_chemical_formula_sum 'Al8 Na8 O32 Si8'
_chemical_name_mineral 'Nepheline, sodian'
_exptl_crystal_density_diffrn 2.63
_publ_section_title

;
Structural characterization of pure Na-nephelines synthesized by zeolite
conversion route
;
loop_
_citation_id
_citation_journal_full
_citation_year
_citation_journal_volume
_citation_page_first
_citation_page_last
_citation_journal_id_ASTM
primary 'Journal of Physics and Chemistry of Solids' 2004 65 1623 1633 JPCSAW
loop_
_publ_author_name
'Dimitrijevic, R.'
'Dondur, V.'
'Vulic, P.'
'Markovic, S.'
'Macura, S.'
_cell_length_a 9.978(2)
_cell_length_b 9.978(2)
_cell_length_c 8.336(2)
_cell_angle_alpha 90.
_cell_angle_beta 90.
_cell_angle_gamma 120.
_cell_volume 718.75
_cell_formula_units_Z 1
_symmetry_space_group_name_H-M 'P 63'
_symmetry_Int_Tables_number 173
_refine_ls_R_factor_all 0.0793
loop_
_symmetry_equiv_pos_site_id
_symmetry_equiv_pos_as_xyz
1 'x-y, x, z+1/2'
2 'y, -x+y, z+1/2'
3 '-x, -y, z+1/2'
4 '-x+y, -x, z'
5 '-y, x-y, z'
6 'x, y, z'
loop_
_atom_type_symbol
_atom_type_oxidation_number
Si4+ 4
Al3+ 3
Si4+ 4
Na1+ 1
O2- -2
loop_
_atom_site_label
_atom_site_type_symbol
_atom_site_symmetry_multiplicity
_atom_site_Wyckoff_symbol
_atom_site_fract_x
_atom_site_fract_y
_atom_site_fract_z
_atom_site_B_iso_or_equiv
_atom_site_occupancy
_atom_site_attached_hydrogens
Si1 Si4+ 2 b 0.3333 0.6667 0.4329 1.05(8) 1. 0
Al1 Al3+ 2 b 0.3333 0.6667 0.053(8) 1.05(8) 1. 0
Al2 Al3+ 6 c 0.337(3) 0.238(4) 0.068(4) 1.05(8) 1. 0
Si2 Si4+ 6 c 0.319(2) 0.230(4) 0.441(8) 1.05(8) 1. 0
Na1 Na1+ 6 c 0.555(2) 0.554(2) 0.257(8) 2.2(4) 1. 0
Na2 Na1+ 6 c 0.051(8) 0.03(1) 0.272(8) 2.2(4) 0.333 0
O1 O2- 6 c 0.61(3) 0.32(3) 0.740(8) 3.9(4) 0.333 0
O2 O2- 6 c 0.310(3) 0.285(3) 0.260(8) 3.9(4) 1. 0
O3 O2- 6 c 0.520(4) 0.348(4) 0.460(8) 3.9(4) 1. 0
O4 O2- 6 c 0.520(4) 0.349(4) -0.006(8) 3.9(4) 1. 0
O5 O2- 6 c 0.234(8) 0.274(8) 0.56(1) 3.9(4) 1. 0
O6 O2- 6 c 0.216(8) 0.262(8) -0.06(1) 3.9(4) 1. 0
#End of TTdata_155001-ICSD