
#(C) 2019 by FIZ Karlsruhe - Leibniz Institute for Information Infrastructure.  All rights reserved.
data_155227-ICSD
_database_code_ICSD 155227
_audit_creation_date 2007-04-01
_chemical_name_systematic
'Octasodium tecto-hexalumohexasilicate bis(rhenate(VII))'
_chemical_formula_structural 'Na8 (Al6 Si6 O24) (Re O4)2'
_chemical_formula_sum 'Al6 Na8 O32 Re2 Si6'
_chemical_name_structure_type Sodalite-frame
_chemical_name_mineral 'Sodalite, perrhenate'
_exptl_crystal_density_diffrn 3.03
_publ_section_title 'Synthesis and structure of perrhenate sodalite'
loop_
_citation_id
_citation_journal_full
_citation_year
_citation_journal_volume
_citation_page_first
_citation_page_last
_citation_journal_id_ASTM
primary 'Microporous and Mesoporous Materials' 2006 91 139 144 MIMMFJ
loop_
_publ_author_name
'Mattigod, S.V.'
'McGrail, B.P.'
'McCready, D.E.'
'Wang Liquong'
'Parker, K.E.'
'Young, J.S.'
_cell_length_a 9.1528(1)
_cell_length_b 9.1528(1)
_cell_length_c 9.1528(1)
_cell_angle_alpha 90.
_cell_angle_beta 90.
_cell_angle_gamma 90.
_cell_volume 766.76
_cell_formula_units_Z 1
_symmetry_space_group_name_H-M 'P -4 3 n'
_symmetry_Int_Tables_number 218
_refine_ls_R_factor_all 0.0383
loop_
_symmetry_equiv_pos_site_id
_symmetry_equiv_pos_as_xyz
1 '-z+1/2, y+1/2, -x+1/2'
2 '-y+1/2, x+1/2, -z+1/2'
3 '-x+1/2, z+1/2, -y+1/2'
4 'z+1/2, -y+1/2, -x+1/2'
5 'y+1/2, -x+1/2, -z+1/2'
6 'x+1/2, -z+1/2, -y+1/2'
7 '-z+1/2, -y+1/2, x+1/2'
8 '-y+1/2, -x+1/2, z+1/2'
9 '-x+1/2, -z+1/2, y+1/2'
10 'z+1/2, y+1/2, x+1/2'
11 'y+1/2, x+1/2, z+1/2'
12 'x+1/2, z+1/2, y+1/2'
13 '-z, -x, y'
14 '-y, -z, x'
15 '-x, -y, z'
16 'z, -x, -y'
17 'y, -z, -x'
18 'x, -y, -z'
19 '-z, x, -y'
20 '-y, z, -x'
21 '-x, y, -z'
22 'z, x, y'
23 'y, z, x'
24 'x, y, z'
loop_
_atom_type_symbol
_atom_type_oxidation_number
Al3+ 3
Si4+ 4
O2- -2
Na1+ 1
Re7+ 7
O2- -2
loop_
_atom_site_label
_atom_site_type_symbol
_atom_site_symmetry_multiplicity
_atom_site_Wyckoff_symbol
_atom_site_fract_x
_atom_site_fract_y
_atom_site_fract_z
_atom_site_B_iso_or_equiv
_atom_site_occupancy
_atom_site_attached_hydrogens
Al1 Al3+ 6 c 0.25 0.5 0 0.40(10) 1. 0
Si1 Si4+ 6 d 0.25 0 0.5 0.53(9) 1. 0
O1 O2- 24 i 0.1548(2) 0.1456(2) 0.4729(3) 0.86(4) 1. 0
Na1 Na1+ 8 e 0.2339(2) 0.2339(2) 0.2339(2) 1.43(5) 1. 0
Re1 Re7+ 2 a 0 0 0 2.30(1) 1. 0
O2 O2- 24 i 0.1533(6) 0.1004(7) 0.0269(12) 3.30(24) 0.3333 0
#End of TTdata_155227-ICSD