
#(C) 2019 by FIZ Karlsruhe - Leibniz Institute for Information Infrastructure.  All rights reserved.
data_155267-ICSD
_database_code_ICSD 155267
_audit_creation_date 2007-04-01
_chemical_name_systematic 'Sodium nickel antimony(V) oxide (0.67/0.58/0.42/2)'
_chemical_formula_structural 'Na0.673 (Ni0.58 Sb0.42) O2'
_chemical_formula_sum 'Na0.673 Ni0.58 O2 Sb0.42'
_chemical_name_structure_type NaCo2O4
_exptl_crystal_density_diffrn 4.99
_publ_section_title

;
First observation of the reversible O3 - P2 phase transition. Crystal
structure of the quenched high-temperature phase Na0.74 Ni0.58 Sb0.42 O2
;
loop_
_citation_id
_citation_journal_full
_citation_year
_citation_journal_volume
_citation_page_first
_citation_page_last
_citation_journal_id_ASTM
primary 'Materials Research Bulletin' 2006 41 1056 1062 MRBUAC
loop_
_publ_author_name
'Smirnova, O.A.'
'Avdeev, M.'
'Nalbandyan, V.B.'
'Kharton, V.V.'
'Marques, F.M.B.'
_cell_length_a 3.0123(2)
_cell_length_b 3.0123(2)
_cell_length_c 11.2264(7)
_cell_angle_alpha 90.
_cell_angle_beta 90.
_cell_angle_gamma 120.
_cell_volume 88.22
_cell_formula_units_Z 2
_symmetry_space_group_name_H-M 'P 63/m m c'
_symmetry_Int_Tables_number 194
_refine_ls_R_factor_all 0.087
loop_
_symmetry_equiv_pos_site_id
_symmetry_equiv_pos_as_xyz
1 'x, x-y, -z+1/2'
2 '-x+y, y, -z+1/2'
3 '-y, -x, -z+1/2'
4 '-x+y, -x, -z+1/2'
5 '-y, x-y, -z+1/2'
6 'x, y, -z+1/2'
7 '-x, -x+y, z+1/2'
8 'x-y, -y, z+1/2'
9 'y, x, z+1/2'
10 'x-y, x, z+1/2'
11 'y, -x+y, z+1/2'
12 '-x, -y, z+1/2'
13 '-x, -x+y, -z'
14 'x-y, -y, -z'
15 'y, x, -z'
16 'x-y, x, -z'
17 'y, -x+y, -z'
18 '-x, -y, -z'
19 'x, x-y, z'
20 '-x+y, y, z'
21 '-y, -x, z'
22 '-x+y, -x, z'
23 '-y, x-y, z'
24 'x, y, z'
loop_
_atom_type_symbol
_atom_type_oxidation_number
Na1+ 1
O2- -2
Ni2+ 2
Sb5+ 5
loop_
_atom_site_label
_atom_site_type_symbol
_atom_site_symmetry_multiplicity
_atom_site_Wyckoff_symbol
_atom_site_fract_x
_atom_site_fract_y
_atom_site_fract_z
_atom_site_B_iso_or_equiv
_atom_site_occupancy
_atom_site_attached_hydrogens
Na1 Na1+ 2 d 0.6667 0.3333 0.25 0.027(4) 0.473(12) 0
Na2 Na1+ 2 b 0 0 0.25 0.027(4) 0.200(10) 0
O1 O2- 4 f 0.3333 0.6667 0.0938(6) 0.0021(15) 1. 0
Ni1 Ni2+ 2 a 0 0 0 . 0.58 0
Sb1 Sb5+ 2 a 0 0 0 . 0.42 0
loop_
_atom_site_aniso_label
_atom_site_aniso_type_symbol
_atom_site_aniso_U_11
_atom_site_aniso_U_22
_atom_site_aniso_U_33
_atom_site_aniso_U_12
_atom_site_aniso_U_13
_atom_site_aniso_U_23
Ni1 Ni2+ 0.0205(8) 0.0205(8) 0.0025(10) 0. 0. 0.
Sb1 Sb5+ 0.0205(8) 0.0205(8) 0.0025(10) 0. 0. 0.
#End of TTdata_155267-ICSD