
#(C) 2019 by FIZ Karlsruhe - Leibniz Institute for Information Infrastructure.  All rights reserved.
data_155491-ICSD
_database_code_ICSD 155491
_audit_creation_date 2007-08-01
_chemical_name_systematic 'Sodium cobalt oxide (0.5/1/2)'
_chemical_formula_structural 'Na0.5 (Co O2)'
_chemical_formula_sum 'Co1 Na0.5 O2'
_chemical_name_structure_type Na.5CoO2
_exptl_crystal_density_diffrn 4.48
_cell_measurement_temperature 10.
_publ_section_title

;
High-resolution neutron diffraction study of possible charge ordering in Na0.5
Co O2
;
loop_
_citation_id
_citation_journal_full
_citation_year
_citation_journal_volume
_citation_page_first
_citation_page_last
_citation_journal_id_ASTM
primary 'Physical Review B: Condensed Matter and Materials Physics' 2006 73
134401-1 134401-5 PRBMDO
loop_
_publ_author_name
'Williams, A.J.'
'Attfield, J.P.'
'Foo, M.L.'
'Viciu, L.'
'Cava, R.J.'
_cell_length_a 4.8763(1)
_cell_length_b 5.6278(1)
_cell_length_c 11.0620(1)
_cell_angle_alpha 90.
_cell_angle_beta 90.
_cell_angle_gamma 90.
_cell_volume 303.57
_cell_formula_units_Z 8
_symmetry_space_group_name_H-M 'P n m m Z'
_symmetry_Int_Tables_number 59
_refine_ls_R_factor_all 0.0259
loop_
_symmetry_equiv_pos_site_id
_symmetry_equiv_pos_as_xyz
1 '-x, y+1/2, z+1/2'
2 '-x, y+1/2, -z'
3 '-x, -y, z+1/2'
4 '-x, -y, -z'
5 'x, -y+1/2, -z+1/2'
6 'x, -y+1/2, z'
7 'x, y, -z+1/2'
8 'x, y, z'
loop_
_atom_type_symbol
_atom_type_oxidation_number
Co3+ 3.5
Na1+ 1
O2- -2
loop_
_atom_site_label
_atom_site_type_symbol
_atom_site_symmetry_multiplicity
_atom_site_Wyckoff_symbol
_atom_site_fract_x
_atom_site_fract_y
_atom_site_fract_z
_atom_site_B_iso_or_equiv
_atom_site_occupancy
_atom_site_attached_hydrogens
Co1 Co3+ 4 e 0.0039(8) 0.25 0.0030(3) 0.0036(2) 1. 0
Co2 Co3+ 4 d 0.5 0 0 0.0036(2) 1. 0
Na1 Na1+ 2 b -0.0321(6) 0.25 0.75 0.0057(3) 1. 0
Na2 Na1+ 2 a 0.3609(6) 0.75 0.75 0.0057(3) 1. 0
O1 O2- 4 e 0.3359(4) 0.25 0.0878(1) 0.0019(4) 1. 0
O2 O2- 4 e 0.3285(4) 0.75 0.0858(1) 0.0034(5) 1. 0
O3 O2- 8 g -0.1616(4) -0.0013(2) 0.08890(6) 0.0062(2) 1. 0
#End of TTdata_155491-ICSD