
#(C) 2019 by FIZ Karlsruhe - Leibniz Institute for Information Infrastructure.  All rights reserved.
data_155501-ICSD
_database_code_ICSD 155501
_audit_creation_date 2007-08-01
_chemical_name_systematic 'Sodium cobalt oxide (0.6/1/2) - P1-type'
_chemical_formula_structural 'Na0.6 (Co O2)'
_chemical_formula_sum 'Co1 Na0.6 O2'
_chemical_name_structure_type NaxCoO2(mS7)
_exptl_crystal_density_diffrn 4.57
_publ_section_title

;
Crystal structure and elementary properties of Nax Co O2 (x = 0.32, 0.51, 0.6,
0.75 and 0.92) in the three-layer Na Co O2 family
;
loop_
_citation_id
_citation_journal_full
_citation_year
_citation_journal_volume
_citation_page_first
_citation_page_last
_citation_journal_id_ASTM
primary 'Physical Review B: Condensed Matter and Materials Physics' 2006 73
174104-1 174104-10 PRBMDO
loop_
_publ_author_name
'Viciu, L.'
'Bos, J.W.G.'
'Zandbergen, H.W.'
'Huang, Q.'
'Foo, M.L.'
'Ishiwata, S.'
'Ramirez, A.P.'
'Lee, M.'
'Ong, N.P.'
'Cava, R.J.'
_cell_length_a 4.9043(2)
_cell_length_b 2.8275(1)
_cell_length_c 5.7097(3)
_cell_angle_alpha 90.
_cell_angle_beta 106.052(3)
_cell_angle_gamma 90.
_cell_volume 76.09
_cell_formula_units_Z 2
_symmetry_space_group_name_H-M 'C 1 2/m 1'
_symmetry_Int_Tables_number 12
_refine_ls_R_factor_all 0.0472
loop_
_symmetry_equiv_pos_site_id
_symmetry_equiv_pos_as_xyz
1 '-x, y, -z'
2 '-x, -y, -z'
3 'x, -y, z'
4 'x, y, z'
5 '-x+1/2, y+1/2, -z'
6 '-x+1/2, -y+1/2, -z'
7 'x+1/2, -y+1/2, z'
8 'x+1/2, y+1/2, z'
loop_
_atom_type_symbol
_atom_type_oxidation_number
Co3+ 3.4
Na1+ 1
O2- -2
loop_
_atom_site_label
_atom_site_type_symbol
_atom_site_symmetry_multiplicity
_atom_site_Wyckoff_symbol
_atom_site_fract_x
_atom_site_fract_y
_atom_site_fract_z
_atom_site_B_iso_or_equiv
_atom_site_occupancy
_atom_site_attached_hydrogens
Co1 Co3+ 2 a 0 0 0 0.0101(5) 1. 0
Na1 Na1+ 8 j 0.812(2) 0.049(6) 0.493(1) 0.016(3) 0.149(3) 0
O1 O2- 4 i 0.3886(2) 0 0.1792(3) 0.0094(2) 1. 0
#End of TTdata_155501-ICSD