
#(C) 2019 by FIZ Karlsruhe - Leibniz Institute for Information Infrastructure.  All rights reserved.
data_155541-ICSD
_database_code_ICSD 155541
_audit_creation_date 2007-08-01
_audit_update_record 2013-02-01
_chemical_name_systematic 'Trisodium nonalanthanum trioxide octakis(borate)'
_chemical_formula_structural 'Na3 La9 O3 (B O3)8'
_chemical_formula_sum 'B8 La9 Na3 O27'
_exptl_crystal_density_diffrn 5.07
_publ_section_title
'Crystal structure of sodium lanthanum oxyborate Na3 La9 O3 (B O3)8'
loop_
_citation_id
_citation_journal_full
_citation_year
_citation_journal_volume
_citation_page_first
_citation_page_last
_citation_journal_id_ASTM
primary 'Rengong Jingti Xuebao' 2005 34 765 771 RJXUEN
loop_
_publ_author_name
'Zhang Guochun'
'Fu Pei Zhen'
'Li Yun-Ge'
'Wu Xicheng'
_cell_length_a 8.9229(13)
_cell_length_b 8.9229(13)
_cell_length_c 8.7366(17)
_cell_angle_alpha 90.
_cell_angle_beta 90.
_cell_angle_gamma 120.
_cell_volume 602.4
_cell_formula_units_Z 1
_symmetry_space_group_name_H-M 'P -6 2 m'
_symmetry_Int_Tables_number 189
_refine_ls_R_factor_all 0.0188
loop_
_symmetry_equiv_pos_site_id
_symmetry_equiv_pos_as_xyz
1 '-x, -x+y, -z'
2 'x-y, -y, -z'
3 'y, x, -z'
4 '-x, -x+y, z'
5 'x-y, -y, z'
6 'y, x, z'
7 '-x+y, -x, -z'
8 '-y, x-y, -z'
9 'x, y, -z'
10 '-x+y, -x, z'
11 '-y, x-y, z'
12 'x, y, z'
loop_
_atom_type_symbol
_atom_type_oxidation_number
La3+ 3
Na1+ 1
B3+ 3
O2- -2
loop_
_atom_site_label
_atom_site_type_symbol
_atom_site_symmetry_multiplicity
_atom_site_Wyckoff_symbol
_atom_site_fract_x
_atom_site_fract_y
_atom_site_fract_z
_atom_site_B_iso_or_equiv
_atom_site_occupancy
_atom_site_attached_hydrogens
La1 La3+ 6 i 0.6517(1) 0 0.7332(1) 0.002(1) 1. 0
La2 La3+ 3 f 0.2833(1) 0 0 0.002(1) 1. 0
Na1 Na1+ 3 g 0.3352(5) 0 0.5 0.013(2) 1. 0
B1 B3+ 2 e 0 0 0.7132(18) 0.003(3) 1. 0
B2 B3+ 4 h 0.3333 0.6667 0.8226(14) 0.004(2) 1. 0
B3 B3+ 2 d 0.3333 0.6667 0.5 0.008(4) 1. 0
O1 O2- 6 i 0 0.1552(6) 0.7113(7) 0.007(1) 1. 0
O2 O2- 6 k 0.1818(7) 0.6773(6) 0.5 0.004(1) 1. 0
O3 O2- 3 f 0.7420(9) 0 0 0.006(2) 1. 0
O4 O2- 12 l 0.3333(5) 0.8209(6) 0.8168(5) 0.008(1) 1. 0
loop_
_atom_site_aniso_label
_atom_site_aniso_type_symbol
_atom_site_aniso_U_11
_atom_site_aniso_U_22
_atom_site_aniso_U_33
_atom_site_aniso_U_12
_atom_site_aniso_U_13
_atom_site_aniso_U_23
La1 La3+ 0.004(1) 0.003(1) 0.001(1) 0.002(1) 0.001(1) 0.
La2 La3+ 0.003(1) 0.002(1) 0.001(1) 0.001(1) 0. 0.
Na1 Na1+ 0.008(2) 0.012(2) 0.020(4) 0.006(1) 0. 0.
B1 B3+ 0.005(4) 0.005(4) 0.001(7) 0.002(2) 0. 0.
B2 B3+ 0.006(3) 0.006(3) 0.001(5) 0.003(2) 0. 0.
B3 B3+ 0.007(5) 0.007(5) 0.011(11) 0.003(3) 0. 0.
O1 O2- 0.006(2) 0.003(2) 0.012(3) 0.003(1) 0. 0.001(2)
O2 O2- 0.006(3) 0.009(3) 0.001(3) 0.005(2) 0. 0.
O3 O2- 0.009(3) 0.010(4) 0.001(4) 0.005(2) 0. 0.
O4 O2- 0.008(2) 0.005(2) 0.011(2) 0.003(1) 0.001(2) 0.001(2)
#End of TTdata_155541-ICSD