
#(C) 2019 by FIZ Karlsruhe - Leibniz Institute for Information Infrastructure.  All rights reserved.
data_155759-ICSD
_database_code_ICSD 155759
_audit_creation_date 2007-08-01
_chemical_name_systematic 'Pentasodium mue-fluoro-bis(hexafluorozirconate)'
_chemical_formula_structural 'Na5 (F (Zr F6)2)'
_chemical_formula_sum 'F13 Na5 Zr2'
_exptl_crystal_density_diffrn 3.43
_cell_measurement_temperature 295.
_publ_section_title

;
Synthesis, crystal structure, fluorescent and thermal properties of sodium
tridecafluorodizirconate Na5 Zr2 F13 compound
;
loop_
_citation_id
_citation_journal_full
_citation_year
_citation_journal_volume
_citation_page_first
_citation_page_last
_citation_journal_id_ASTM
primary 'Jiegou Huaxue ' 2006 25 173 179 JHUADF
loop_
_publ_author_name
'Mao Shaoyu'
'Kang Youjun'
'Mi Jinxiao'
'Li Man Rong'
'Wei Zanbin'
'Wu Xueyan'
'Zhao Jing Thai'
_cell_length_a 11.5600(9)
_cell_length_b 5.4759(4)
_cell_length_c 8.3989(6)
_cell_angle_alpha 90.
_cell_angle_beta 97.361(10)
_cell_angle_gamma 90.
_cell_volume 527.28
_cell_formula_units_Z 2
_symmetry_space_group_name_H-M 'C 1 2/m 1'
_symmetry_Int_Tables_number 12
_refine_ls_R_factor_all 0.0173
loop_
_symmetry_equiv_pos_site_id
_symmetry_equiv_pos_as_xyz
1 '-x, y, -z'
2 '-x, -y, -z'
3 'x, -y, z'
4 'x, y, z'
5 '-x+1/2, y+1/2, -z'
6 '-x+1/2, -y+1/2, -z'
7 'x+1/2, -y+1/2, z'
8 'x+1/2, y+1/2, z'
loop_
_atom_type_symbol
_atom_type_oxidation_number
Zr4+ 4
Na1+ 1
F1- -1
loop_
_atom_site_label
_atom_site_type_symbol
_atom_site_symmetry_multiplicity
_atom_site_Wyckoff_symbol
_atom_site_fract_x
_atom_site_fract_y
_atom_site_fract_z
_atom_site_B_iso_or_equiv
_atom_site_occupancy
_atom_site_attached_hydrogens
Zr1 Zr4+ 4 i 0.07306(2) 0 0.24271(3) 0.01131(12) 1. 0
Na1 Na1+ 4 i 0.83779(11) 0.5 0.07034(14) 0.0197(3) 1. 0
Na2 Na1+ 4 i 0.77747(10) 0 0.34682(14) 0.0195(3) 1. 0
Na3 Na1+ 2 d 0.5 0 0.5 0.0253(4) 1. 0
F1 F1- 2 a 0 0 0 0.0384(8) 1. 0
F2 F1- 8 j 0.13239(10) 0.2246(2) 0.42835(14) 0.0213(3) 1. 0
F3 F1- 8 j 0.43945(11) 0.2639(3) 0.24821(16) 0.0264(3) 1. 0
F4 F1- 8 j 0.18097(11) 0.2354(2) 0.14391(14) 0.0220(3) 1. 0
loop_
_atom_site_aniso_label
_atom_site_aniso_type_symbol
_atom_site_aniso_U_11
_atom_site_aniso_U_22
_atom_site_aniso_U_33
_atom_site_aniso_U_12
_atom_site_aniso_U_13
_atom_site_aniso_U_23
Zr1 Zr4+ 0.01059(16) 0.01324(17) 0.01009(16) 0. 0.00127(9) 0.
Na1 Na1+ 0.0221(6) 0.0202(6) 0.0168(6) 0. 0.0021(4) 0.
Na2 Na1+ 0.0200(6) 0.0191(6) 0.0190(6) 0. 0.0005(4) 0.
Na3 Na1+ 0.0251(9) 0.0173(8) 0.0361(10) 0. 0.0135(8) 0.
F1 F1- 0.0240(14) 0.077(2) 0.0130(12) 0. -0.0027(10) 0.
F2 F1- 0.0248(6) 0.0205(6) 0.0177(6) 0.0004(5) -0.0010(5) -0.0057(5)
F3 F1- 0.0214(6) 0.0261(7) 0.0310(7) -0.0092(5) 0.0001(5) 0.0001(5)
F4 F1- 0.0263(6) 0.0188(6) 0.0225(6) -0.0039(5) 0.0091(5) 0.0026(5)
#End of TTdata_155759-ICSD