
#(C) 2019 by FIZ Karlsruhe - Leibniz Institute for Information Infrastructure.  All rights reserved.
data_15618-ICSD
_database_code_ICSD 15618
_audit_creation_date 1981-12-31
_audit_update_record 2005-10-01
_chemical_name_systematic 'Disodium magnesium silicate'
_chemical_formula_structural 'Na2 Mg (Si O4)'
_chemical_formula_sum 'Mg1 Na2 O4 Si1'
_exptl_crystal_density_diffrn 2.66
_publ_section_title

;
Structure of magnesium disodium silicate Na2 Mg Si O4 and ionic conductivity
in tetrahedral structures
;
loop_
_citation_id
_citation_journal_full
_citation_year
_citation_journal_volume
_citation_page_first
_citation_page_last
_citation_journal_id_ASTM
primary

;
Acta Crystallographica, Section B: Structural Crystallography and Crystal
Chemistry
; 1981 37 1483 1491 ACBCAR
loop_
_publ_author_name
'Baur, W.H.'
'Ohta, T.'
'Shannon, R.D.'
_cell_length_a 7.015(2)
_cell_length_b 10.968(2)
_cell_length_c 5.260(1)
_cell_angle_alpha 90.
_cell_angle_beta 89.97(1)
_cell_angle_gamma 90.
_cell_volume 404.71
_cell_formula_units_Z 4
_symmetry_space_group_name_H-M 'P 1 n 1'
_symmetry_Int_Tables_number 7
_refine_ls_R_factor_all 0.029
loop_
_symmetry_equiv_pos_site_id
_symmetry_equiv_pos_as_xyz
1 'x+1/2, -y, z+1/2'
2 'x, y, z'
loop_
_atom_type_symbol
_atom_type_oxidation_number
Si4+ 4
Mg2+ 2
Na1+ 1
O2- -2
Si4+ 4
Mg2+ 2
Na1+ 1
O2- -2
loop_
_atom_site_label
_atom_site_type_symbol
_atom_site_symmetry_multiplicity
_atom_site_Wyckoff_symbol
_atom_site_fract_x
_atom_site_fract_y
_atom_site_fract_z
_atom_site_B_iso_or_equiv
_atom_site_occupancy
_atom_site_attached_hydrogens
Si1 Si4+ 2 a 0.2480(1) 0.3437(1) 0.0072(1) . 1. 0
Mg1 Mg2+ 2 a 0 0.0932(1) 0 . 1. 0
Na1 Na1+ 2 a 0.7520(2) 0.3359(1) 0.9860(3) . 1. 0
Na2 Na1+ 2 a 0.4952(3) 0.0933(1) 0.9944(3) . 1. 0
O1 O2- 2 a 0.7184(4) 0.2983(2) 0.4403(4) . 1. 0
O2 O2- 2 a 0.2774(3) 0.3580(2) 0.3122(3) . 1. 0
O3 O2- 2 a 0.5575(3) 0.0778(2) 0.4264(3) . 1. 0
O4 O2- 2 a 0.9415(3) 0.1073(2) 0.3665(4) . 1. 0
Si2 Si4+ 2 a 0.2489(2) 0.8438(1) 0.0064(2) . 1. 0
Mg2 Mg2+ 2 a 0.0019(1) 0.5930(1) 0.0033(2) . 1. 0
Na3 Na1+ 2 a 0.7497(3) 0.8359(2) 0.9869(3) . 1. 0
Na4 Na1+ 2 a 0.4962(3) 0.5924(1) 0.9872(2) . 1. 0
O5 O2- 2 a 0.7166(3) 0.8013(2) 0.4333(4) . 1. 0
O6 O2- 2 a 0.2800(4) 0.8563(2) 0.3138(3) . 1. 0
O7 O2- 2 a 0.5610(4) 0.5778(2) 0.4287(5) . 1. 0
O8 O2- 2 a 0.9358(4) 0.6044(2) 0.3599(4) . 1. 0
loop_
_atom_site_aniso_label
_atom_site_aniso_type_symbol
_atom_site_aniso_U_11
_atom_site_aniso_U_22
_atom_site_aniso_U_33
_atom_site_aniso_U_12
_atom_site_aniso_U_13
_atom_site_aniso_U_23
Si1 Si4+ 0.0052(3) 0.0051(3) 0.0041(3) -.0008(3) 0.0000(3) 0.0001(3)
Mg1 Mg2+ 0.0072(6) 0.0103(6) 0.0093(7) 0.0008(5) -.0011(6) -.0008(4)
Na1 Na1+ 0.0140(7) 0.0129(6) 0.0153(7) -.0010(6) -.0003(6) 0.0004(5)
Na2 Na1+ 0.0114(8) 0.0161(8) 0.0140(9) 0.0002(7) 0.0000(8) 0.0014(5)
O1 O2- 0.0121(12) 0.0136(10) 0.0164(9) 0.0000(9) 0.0001(9) -.0024(7)
O2 O2- 0.0063(8) 0.0145(10) 0.0045(7) 0.0010(7) -.0011(6) 0.0002(6)
O3 O2- 0.0056(7) 0.0096(9) 0.0064(6) -.0040(7) -.0018(6) 0.0000(6)
O4 O2- 0.0073(8) 0.0133(10) 0.0076(8) 0.0027(7) 0.0038(6) 0.0005(7)
Si2 Si4+ 0.0087(4) 0.0085(4) 0.0069(3) 0.0002(4) -.0005(4) -.0004(3)
Mg2 Mg2+ 0.0091(6) 0.0064(6) 0.0057(6) -.0002(5) 0.0003(6) 0.0004(4)
Na3 Na1+ 0.0134(7) 0.0207(8) 0.0184(7) 0.0015(7) -.0007(7) -.0022(7)
Na4 Na1+ 0.0125(9) 0.0129(8) 0.0150(9) 0.0012(6) 0.0004(7) -.0002(5)
O5 O2- 0.0081(9) 0.0020(6) 0.0127(7) 0.0018(6) 0.0003(7) 0.0004(5)
O6 O2- 0.0170(13) 0.0210(14) 0.0064(8) -.0057(11) 0.0007(9) -.0019(8)
O7 O2- 0.0161(11) 0.0078(10) 0.0209(10) -.0010(9) -.0031(11) 0.0027(8)
O8 O2- 0.0141(11) 0.0129(10) 0.0087(9) 0.0031(8) -.0007(8) -.0014(7)
#End of TTdata_15618-ICSD