
#(C) 2019 by FIZ Karlsruhe - Leibniz Institute for Information Infrastructure.  All rights reserved.
data_156346-ICSD
_database_code_ICSD 156346
_audit_creation_date 2007-08-01
_chemical_name_systematic 'Sodium neodymium strontium titanate (0.4/0.4/0.2/1)'
_chemical_formula_structural '((Na0.5 Nd0.5)0.8 Sr0.2) (Ti O3)'
_chemical_formula_sum 'Na0.4 Nd0.4 O3 Sr0.2 Ti1'
_chemical_name_structure_type Perovskite-GdFeO3
_exptl_crystal_density_diffrn 5.2
_publ_section_title

;
Phases in the system (Na1/2 Nd1/2 Ti O3) - (Sr Ti O3): a powder neutron
diffraction study
;
loop_
_citation_id
_citation_journal_full
_citation_year
_citation_journal_volume
_citation_page_first
_citation_page_last
_citation_journal_id_ASTM
primary 'Journal of Physics: Condensed Matter' 2006 18 9679 9690 JCOMEL
loop_
_publ_author_name
'Ranjan, R.'
'Agrawal, A.'
'Senyshyn, A.'
'Boysen, H.'
_cell_length_a 5.4637(2)
_cell_length_b 5.4629(2)
_cell_length_c 7.7142(2)
_cell_angle_alpha 90.
_cell_angle_beta 90.
_cell_angle_gamma 90.
_cell_volume 230.25
_cell_formula_units_Z 4
_symmetry_space_group_name_H-M 'P b n m'
_symmetry_Int_Tables_number 62
_refine_ls_R_factor_all 0.0348
loop_
_symmetry_equiv_pos_site_id
_symmetry_equiv_pos_as_xyz
1 '-x+1/2, y+1/2, z'
2 'x, y, -z+1/2'
3 'x+1/2, -y+1/2, z+1/2'
4 '-x, -y, -z'
5 'x+1/2, -y+1/2, -z'
6 '-x, -y, z+1/2'
7 '-x+1/2, y+1/2, -z+1/2'
8 'x, y, z'
loop_
_atom_type_symbol
_atom_type_oxidation_number
Na1+ 1
Nd3+ 3
Sr2+ 2
Ti4+ 4
O2- -2
loop_
_atom_site_label
_atom_site_type_symbol
_atom_site_symmetry_multiplicity
_atom_site_Wyckoff_symbol
_atom_site_fract_x
_atom_site_fract_y
_atom_site_fract_z
_atom_site_B_iso_or_equiv
_atom_site_occupancy
_atom_site_attached_hydrogens
Na1 Na1+ 4 c 0.002(2) 0.501(1) 0.25 0.76(3) 0.4 0
Nd1 Nd3+ 4 c 0.002(2) 0.501(1) 0.25 0.76(3) 0.4 0
Sr1 Sr2+ 4 c 0.002(2) 0.501(1) 0.25 0.76(3) 0.2 0
Ti1 Ti4+ 4 a 0 0 0 0.57(5) 1. 0
O1 O2- 4 c -0.0534(6) 0.003(2) 0.25 0.69(6) 1. 0
O2 O2- 8 d 0.2376(7) 0.2629(7) 0.0280(3) 1.14(4) 1. 0
#End of TTdata_156346-ICSD