
#(C) 2019 by FIZ Karlsruhe - Leibniz Institute for Information Infrastructure.  All rights reserved.
data_156351-ICSD
_database_code_ICSD 156351
_audit_creation_date 2007-08-01
_chemical_name_systematic
'Sodium neodymium strontium titanate (0.15/0.15/0.7/1)'
_chemical_formula_structural '((Na0.5 Nd0.5)0.3 Sr0.7) (Ti O3)'
_chemical_formula_sum 'Na0.15 Nd0.15 O3 Sr0.7 Ti1'
_chemical_name_structure_type Perovskite-SrTiO3
_exptl_crystal_density_diffrn 5.13
_publ_section_title

;
Phases in the system (Na1/2 Nd1/2 Ti O3) - (Sr Ti O3): a powder neutron
diffraction study
;
loop_
_citation_id
_citation_journal_full
_citation_year
_citation_journal_volume
_citation_page_first
_citation_page_last
_citation_journal_id_ASTM
primary 'Journal of Physics: Condensed Matter' 2006 18 9679 9690 JCOMEL
loop_
_publ_author_name
'Ranjan, R.'
'Agrawal, A.'
'Senyshyn, A.'
'Boysen, H.'
_cell_length_a 5.5006(1)
_cell_length_b 5.5006(1)
_cell_length_c 7.7966(3)
_cell_angle_alpha 90.
_cell_angle_beta 90.
_cell_angle_gamma 90.
_cell_volume 235.9
_cell_formula_units_Z 4
_symmetry_space_group_name_H-M 'I 4/m c m'
_symmetry_Int_Tables_number 140
_refine_ls_R_factor_all 0.0462
loop_
_symmetry_equiv_pos_site_id
_symmetry_equiv_pos_as_xyz
1 'y, x, -z+1/2'
2 '-y, -x, -z+1/2'
3 '-y, x, -z'
4 'y, -x, -z'
5 'x, -y, -z+1/2'
6 '-x, y, -z+1/2'
7 'x, y, -z'
8 '-x, -y, -z'
9 '-y, -x, z+1/2'
10 'y, x, z+1/2'
11 'y, -x, z'
12 '-y, x, z'
13 '-x, y, z+1/2'
14 'x, -y, z+1/2'
15 '-x, -y, z'
16 'x, y, z'
17 'y+1/2, x+1/2, -z'
18 '-y+1/2, -x+1/2, -z'
19 '-y+1/2, x+1/2, -z+1/2'
20 'y+1/2, -x+1/2, -z+1/2'
21 'x+1/2, -y+1/2, -z'
22 '-x+1/2, y+1/2, -z'
23 'x+1/2, y+1/2, -z+1/2'
24 '-x+1/2, -y+1/2, -z+1/2'
25 '-y+1/2, -x+1/2, z'
26 'y+1/2, x+1/2, z'
27 'y+1/2, -x+1/2, z+1/2'
28 '-y+1/2, x+1/2, z+1/2'
29 '-x+1/2, y+1/2, z'
30 'x+1/2, -y+1/2, z'
31 '-x+1/2, -y+1/2, z+1/2'
32 'x+1/2, y+1/2, z+1/2'
loop_
_atom_type_symbol
_atom_type_oxidation_number
Na1+ 1
Nd3+ 3
Sr2+ 2
Ti4+ 4
O2- -2
loop_
_atom_site_label
_atom_site_type_symbol
_atom_site_symmetry_multiplicity
_atom_site_Wyckoff_symbol
_atom_site_fract_x
_atom_site_fract_y
_atom_site_fract_z
_atom_site_B_iso_or_equiv
_atom_site_occupancy
_atom_site_attached_hydrogens
Na1 Na1+ 4 b 0 0.5 0.25 0.46(2) 0.15 0
Nd1 Nd3+ 4 b 0 0.5 0.25 0.46(2) 0.15 0
Sr1 Sr2+ 4 b 0 0.5 0.25 0.46(2) 0.7 0
Ti1 Ti4+ 4 c 0 0 0 0.21(4) 1. 0
O1 O2- 4 a 0 0 0.25 0.81(7) 1. 0
O2 O2- 8 h 0.2315(2) 0.2685(2) 0 0.62(3) 1. 0
#End of TTdata_156351-ICSD