
#(C) 2019 by FIZ Karlsruhe - Leibniz Institute for Information Infrastructure.  All rights reserved.
data_156354-ICSD
_database_code_ICSD 156354
_audit_creation_date 2007-08-01
_chemical_name_systematic 'Sodium praseodymium titanate (0.5/0.5/1)'
_chemical_formula_structural '(Na0.5 Pr0.5) (Ti O3)'
_chemical_formula_sum 'Na0.5 O3 Pr0.5 Ti1'
_chemical_name_structure_type Perovskite-GdFeO3
_exptl_crystal_density_diffrn 5.15
_publ_section_title

;
Crystal structure of high temperature quantum paraelectrics Na1/2 Nd1/2 Ti O3
and Na1/2 Pr1/2 Ti O3
;
loop_
_citation_id
_citation_journal_full
_citation_year
_citation_journal_volume
_citation_page_first
_citation_page_last
_citation_journal_id_ASTM
primary 'Journal of Physics: Condensed Matter' 2006 18 L515 L522 JCOMEL
loop_
_publ_author_name
'Ranjan, R.'
'Agrawal, A.'
'Senyshyn, A.'
'Boysen, H.'
_cell_length_a 5.4543(3)
_cell_length_b 5.4567(1)
_cell_length_c 7.7085(3)
_cell_angle_alpha 90.
_cell_angle_beta 90.
_cell_angle_gamma 90.
_cell_volume 229.42
_cell_formula_units_Z 4
_symmetry_space_group_name_H-M 'P b n m'
_symmetry_Int_Tables_number 62
_refine_ls_R_factor_all 0.0432
loop_
_symmetry_equiv_pos_site_id
_symmetry_equiv_pos_as_xyz
1 '-x+1/2, y+1/2, z'
2 'x, y, -z+1/2'
3 'x+1/2, -y+1/2, z+1/2'
4 '-x, -y, -z'
5 'x+1/2, -y+1/2, -z'
6 '-x, -y, z+1/2'
7 '-x+1/2, y+1/2, -z+1/2'
8 'x, y, z'
loop_
_atom_type_symbol
_atom_type_oxidation_number
Na1+ 1
Pr3+ 3
Ti4+ 4
O2- -2
loop_
_atom_site_label
_atom_site_type_symbol
_atom_site_symmetry_multiplicity
_atom_site_Wyckoff_symbol
_atom_site_fract_x
_atom_site_fract_y
_atom_site_fract_z
_atom_site_B_iso_or_equiv
_atom_site_occupancy
_atom_site_attached_hydrogens
Na1 Na1+ 4 c 0.000(2) 0.5121(7) 0.25 . 0.5 0
Pr1 Pr3+ 4 c 0.000(2) 0.5121(7) 0.25 . 0.5 0
Ti1 Ti4+ 4 a 0 0 0 . 1. 0
O1 O2- 4 c -0.0603(9) -0.0077(8) 0.25 . 1. 0
O2 O2- 8 d 0.2252(5) 0.2756(4) 0.0313(5) . 1. 0
loop_
_atom_site_aniso_label
_atom_site_aniso_type_symbol
_atom_site_aniso_beta_11
_atom_site_aniso_beta_22
_atom_site_aniso_beta_33
_atom_site_aniso_beta_12
_atom_site_aniso_beta_13
_atom_site_aniso_beta_23
Na1 Na1+ 0.001(3) 0.007(2) 0.005(1) 0.001(1) 0. 0.
Pr1 Pr3+ 0.001(3) 0.007(2) 0.005(1) 0.001(1) 0. 0.
Ti1 Ti4+ 0.000(3) 0.001(1) 0.011(6) 0.006(2) 0.005(2) 0.003(1)
O1 O2- 0.003(2) 0.013(2) 0.0010(8) 0.002(1) 0. 0.
O2 O2- 0.016(1) 0.001(1) 0.0055(6) -0.0083(8) -0.0015(7) -0.0017(5)
#End of TTdata_156354-ICSD