
#(C) 2019 by FIZ Karlsruhe - Leibniz Institute for Information Infrastructure.  All rights reserved.
data_156546-ICSD
_database_code_ICSD 156546
_audit_creation_date 2007-08-01
_chemical_name_systematic
'Calcium sodium iron catena-disilicate (0.62/0.38/1/1)'
_chemical_formula_structural '(Ca0.615 Na0.385) Fe (Si2 O6)'
_chemical_formula_sum 'Ca0.615 Fe1 Na0.385 O6 Si2'
_chemical_name_structure_type Pyroxene-CaMg(SiO3)2
_chemical_name_mineral Unnamed_Clinopyroxene
_exptl_crystal_density_diffrn 3.63
_cell_measurement_temperature 298.
_publ_section_title

;
Single crystal X-ray diffraction and temperature dependent (57)Fe Moessbauer
spectroscopy on the hedenbergite - aegirine (Ca, Na) (Fe(2+), Fe(3+)) Si2 O6
solid solution
;
loop_
_citation_id
_citation_journal_full
_citation_year
_citation_journal_volume
_citation_page_first
_citation_page_last
_citation_journal_id_ASTM
primary 'American Mineralogist' 2006 91 1271 1292 AMMIAY
loop_
_publ_author_name
'Redhammer, G.J.'
'Amthauer, G.'
'Roth, G.'
'Tippelt, G.'
'Lottermoser, W.'
_cell_length_a 9.7560(7)
_cell_length_b 8.9252(7)
_cell_length_c 5.2739(4)
_cell_angle_alpha 90
_cell_angle_beta 106.031(5)
_cell_angle_gamma 90
_cell_volume 441.36
_cell_formula_units_Z 4
_symmetry_space_group_name_H-M 'C 1 2/c 1'
_symmetry_Int_Tables_number 15
_refine_ls_R_factor_all 0.0167
loop_
_symmetry_equiv_pos_site_id
_symmetry_equiv_pos_as_xyz
1 'x, -y, z+1/2'
2 '-x, -y, -z'
3 '-x, y, -z+1/2'
4 'x, y, z'
5 'x+1/2, -y+1/2, z+1/2'
6 '-x+1/2, -y+1/2, -z'
7 '-x+1/2, y+1/2, -z+1/2'
8 'x+1/2, y+1/2, z'
loop_
_atom_type_symbol
_atom_type_oxidation_number
Ca2+ 2
Na1+ 1
Fe2+ 2
Fe3+ 3
Si4+ 4
O2- -2
loop_
_atom_site_label
_atom_site_type_symbol
_atom_site_symmetry_multiplicity
_atom_site_Wyckoff_symbol
_atom_site_fract_x
_atom_site_fract_y
_atom_site_fract_z
_atom_site_B_iso_or_equiv
_atom_site_occupancy
_atom_site_attached_hydrogens
Ca1 Ca2+ 4 e 0. 0.3007 0.25 0.0103 0.615(8) 0
Na1 Na1+ 4 e 0. 0.3007 0.25 0.0103 0.385(8) 0
Fe1 Fe2+ 4 e 0. 0.9037 0.25 0.0056 0.615(8) 0
Fe2 Fe3+ 4 e 0. 0.9037 0.25 0.0056 0.385(8) 0
Si1 Si4+ 8 f 0.2885 0.0914 0.2335 0.0035 1. 0
O1 O2- 8 f 0.1166 0.0845 0.1459 0.0081 1. 0
O2 O2- 8 f 0.3603 0.2507 0.3151 0.0094 1. 0
O3 O2- 8 f 0.351 0.0153 0.0012 0.0074 1. 0
#End of TTdata_156546-ICSD