
#(C) 2019 by FIZ Karlsruhe - Leibniz Institute for Information Infrastructure.  All rights reserved.
data_156542-ICSD
_database_code_ICSD 156542
_audit_creation_date 2007-08-01
_chemical_name_systematic 'Calcium sodium iron catena-disilicate (0.9/0.1/1/1)'
_chemical_formula_structural '(Ca.904 Na.096) Fe Si2 O6'
_chemical_formula_sum 'Ca0.904 Fe1 Na0.096 O6 Si2'
_chemical_name_structure_type Pyroxene-CaMg(SiO3)2
_chemical_name_mineral Unnamed_Clinopyroxene
_exptl_crystal_density_diffrn 3.65
_cell_measurement_temperature 298.
_publ_section_title

;
Single crystal X-ray diffraction and temperature dependent (57)Fe Moessbauer
spectroscopy on the hedenbergite - aegirine (Ca, Na) (Fe(2+), Fe(3+)) Si2 O6
solid solution
;
loop_
_citation_id
_citation_journal_full
_citation_year
_citation_journal_volume
_citation_page_first
_citation_page_last
_citation_journal_id_ASTM
primary 'American Mineralogist' 2006 91 1271 1292 AMMIAY
loop_
_publ_author_name
'Redhammer, G.J.'
'Amthauer, G.'
'Roth, G.'
'Tippelt, G.'
'Lottermoser, W.'
_cell_length_a 9.8248(8)
_cell_length_b 8.9973(7)
_cell_length_c 5.2549(4)
_cell_angle_alpha 90
_cell_angle_beta 105.013(6)
_cell_angle_gamma 90
_cell_volume 448.66
_cell_formula_units_Z 4
_symmetry_space_group_name_H-M 'C 1 2/c 1'
_symmetry_Int_Tables_number 15
_refine_ls_R_factor_all 0.028
loop_
_symmetry_equiv_pos_site_id
_symmetry_equiv_pos_as_xyz
1 'x, -y, z+1/2'
2 '-x, -y, -z'
3 '-x, y, -z+1/2'
4 'x, y, z'
5 'x+1/2, -y+1/2, z+1/2'
6 '-x+1/2, -y+1/2, -z'
7 '-x+1/2, y+1/2, -z+1/2'
8 'x+1/2, y+1/2, z'
loop_
_atom_type_symbol
_atom_type_oxidation_number
Ca2+ 2
Na1+ 1
Fe2+ 2
Fe3+ 3
Si4+ 4
O2- -2
loop_
_atom_site_label
_atom_site_type_symbol
_atom_site_symmetry_multiplicity
_atom_site_Wyckoff_symbol
_atom_site_fract_x
_atom_site_fract_y
_atom_site_fract_z
_atom_site_B_iso_or_equiv
_atom_site_occupancy
_atom_site_attached_hydrogens
Ca1 Ca2+ 4 e 0. 0.3006 0.25 0.0086 0.904(7) 0
Na1 Na1+ 4 e 0. 0.3006 0.25 0.0086 0.096(7) 0
Fe1 Fe2+ 4 e 0. 0.9064 0.25 0.0054 0.904(7) 0
Fe2 Fe3+ 4 e 0. 0.9064 0.25 0.0054 0.096(7) 0
Si1 Si4+ 8 f 0.2878 0.0922 0.2328 0.004 1. 0
O1 O2- 8 f 0.1189 0.0888 0.1503 0.0076 1. 0
O2 O2- 8 f 0.3619 0.2476 0.3214 0.0088 1. 0
O3 O2- 8 f 0.3505 0.0183 0.9954 0.0075 1. 0
#End of TTdata_156542-ICSD