
#(C) 2019 by FIZ Karlsruhe - Leibniz Institute for Information Infrastructure.  All rights reserved.
data_157058-ICSD
_database_code_ICSD 157058
_audit_creation_date 2008-02-01
_chemical_name_systematic
'Sodium zirconium iron(III) phosphate(V) oxide (1.48/1.6/0.4/3/0.52)'
_chemical_formula_structural 'Na1.482 Zr1.596 Fe0.404 (P O4)3 O0.516'
_chemical_formula_sum 'Fe0.404 Na1.482 O12.516 P3 Zr1.596'
_exptl_crystal_density_diffrn 3.2
_cell_measurement_temperature 293.
_publ_section_title

;
Synthesis, crystallographic characterization and ionic conductivity of iron
substituted sodium zirconium phosphate Na1.2 Zr1.8 Fe0.2 (P O4)3
;
loop_
_citation_id
_citation_journal_full
_citation_year
_citation_journal_volume
_citation_page_first
_citation_page_last
_citation_journal_id_ASTM
primary 'Journal of Materials Science' 2007 42 2551 2556 JMTSAS
loop_
_publ_author_name
'Shrivastava, O.P.'
'Kumar, N.'
'Chourasia, R.'
_cell_length_a 8.83498(18)
_cell_length_b 8.83498(18)
_cell_length_c 22.7821(8)
_cell_angle_alpha 90.
_cell_angle_beta 90.
_cell_angle_gamma 120.
_cell_volume 1540.05
_cell_formula_units_Z 6
_symmetry_space_group_name_H-M 'R -3 c H'
_symmetry_Int_Tables_number 167
_refine_ls_R_factor_all 0.0623
loop_
_symmetry_equiv_pos_site_id
_symmetry_equiv_pos_as_xyz
1 'x-y, -y, -z+1/2'
2 '-x, -x+y, -z+1/2'
3 'y, x, -z+1/2'
4 'x-y, x, -z'
5 'y, -x+y, -z'
6 '-x, -y, -z'
7 '-x+y, y, z+1/2'
8 'x, x-y, z+1/2'
9 '-y, -x, z+1/2'
10 '-x+y, -x, z'
11 '-y, x-y, z'
12 'x, y, z'
13 'x-y+2/3, -y+1/3, -z+5/6'
14 '-x+2/3, -x+y+1/3, -z+5/6'
15 'y+2/3, x+1/3, -z+5/6'
16 'x-y+2/3, x+1/3, -z+1/3'
17 'y+2/3, -x+y+1/3, -z+1/3'
18 '-x+2/3, -y+1/3, -z+1/3'
19 '-x+y+2/3, y+1/3, z+5/6'
20 'x+2/3, x-y+1/3, z+5/6'
21 '-y+2/3, -x+1/3, z+5/6'
22 '-x+y+2/3, -x+1/3, z+1/3'
23 '-y+2/3, x-y+1/3, z+1/3'
24 'x+2/3, y+1/3, z+1/3'
25 'x-y+1/3, -y+2/3, -z+1/6'
26 '-x+1/3, -x+y+2/3, -z+1/6'
27 'y+1/3, x+2/3, -z+1/6'
28 'x-y+1/3, x+2/3, -z+2/3'
29 'y+1/3, -x+y+2/3, -z+2/3'
30 '-x+1/3, -y+2/3, -z+2/3'
31 '-x+y+1/3, y+2/3, z+1/6'
32 'x+1/3, x-y+2/3, z+1/6'
33 '-y+1/3, -x+2/3, z+1/6'
34 '-x+y+1/3, -x+2/3, z+2/3'
35 '-y+1/3, x-y+2/3, z+2/3'
36 'x+1/3, y+2/3, z+2/3'
loop_
_atom_type_symbol
_atom_type_oxidation_number
Na1+ 1
Zr4+ 4
Fe3+ 3
P5+ 5
O2- -2
loop_
_atom_site_label
_atom_site_type_symbol
_atom_site_symmetry_multiplicity
_atom_site_Wyckoff_symbol
_atom_site_fract_x
_atom_site_fract_y
_atom_site_fract_z
_atom_site_B_iso_or_equiv
_atom_site_occupancy
_atom_site_attached_hydrogens
Na1 Na1+ 6 b 0 0 0 0.19359 1.06485 0
Na2 Na1+ 36 f 0.05765 0.37398 0.11257 0.28881 0.0695 0
Zr1 Zr4+ 12 c 0 0 0.14559 0.067 0.79812 0
Fe1 Fe3+ 12 c 0 0 0.14559 0.09 0.20188 0
P1 P5+ 18 e 0.28261 0 0.25 0.08465 1. 0
O1 O2- 36 f 0.17702 -0.04138 0.19278 0.09047 1.0512 0
O2 O2- 36 f 0.19016 0.15762 0.08887 0.08697 1.03482 0
#End of TTdata_157058-ICSD