
#(C) 2019 by FIZ Karlsruhe - Leibniz Institute for Information Infrastructure.  All rights reserved.
data_157119-ICSD
_database_code_ICSD 157119
_audit_creation_date 2008-02-01
_chemical_name_systematic 'Terbium sodium manganese oxide (0.85/0.15/1/2.85)'
_chemical_formula_structural '(Tb0.851 Na0.149) (Mn O2.852)'
_chemical_formula_sum 'Mn1 Na0.149 O2.852 Tb0.851'
_chemical_name_structure_type Perovskite-GdFeO3
_exptl_crystal_density_diffrn 7.
_cell_measurement_temperature 300.
_publ_section_title
'Magnetic instability and oxygen deficiency in Na-doped Tb Mn O3'
loop_
_citation_id
_citation_journal_full
_citation_year
_citation_journal_volume
_citation_page_first
_citation_page_last
_citation_journal_id_ASTM
primary 'Physical Review B: Condensed Matter and Materials Physics' 2006 74
094409-1 094409-6 PRBMDO
loop_
_publ_author_name
'Yang, C.-C.'
'Chung, M.-K.'
'Li, W.-H.'
'Chan, T.-S.'
'Liu, R.-S.'
'Lien, Y.-H.'
'Huang, C.-Y.'
'Chan, Y.-Y.'
'Yao, Y.-D.'
'Lynn, J.W.'
_cell_length_a 5.29748(24)
_cell_length_b 5.77762(26)
_cell_length_c 7.41518(33)
_cell_angle_alpha 90.
_cell_angle_beta 90.
_cell_angle_gamma 90.
_cell_volume 226.96
_cell_formula_units_Z 4
_symmetry_space_group_name_H-M 'P b n m'
_symmetry_Int_Tables_number 62
_refine_ls_R_factor_all 0.0539
loop_
_symmetry_equiv_pos_site_id
_symmetry_equiv_pos_as_xyz
1 '-x+1/2, y+1/2, z'
2 'x, y, -z+1/2'
3 'x+1/2, -y+1/2, z+1/2'
4 '-x, -y, -z'
5 'x+1/2, -y+1/2, -z'
6 '-x, -y, z+1/2'
7 '-x+1/2, y+1/2, -z+1/2'
8 'x, y, z'
loop_
_atom_type_symbol
_atom_type_oxidation_number
Tb3+ 3
Na1+ 1
Mn3+ 3
O2- -2
loop_
_atom_site_label
_atom_site_type_symbol
_atom_site_symmetry_multiplicity
_atom_site_Wyckoff_symbol
_atom_site_fract_x
_atom_site_fract_y
_atom_site_fract_z
_atom_site_B_iso_or_equiv
_atom_site_occupancy
_atom_site_attached_hydrogens
Tb1 Tb3+ 4 c -0.0165(4) 0.07802(34) 0.25 0.69(3) 0.851(2) 0
Na1 Na1+ 4 c -0.0165(4) 0.07802(34) 0.25 0.69(3) 0.149(2) 0
Mn1 Mn3+ 4 b 0.5 0 0 0.58(6) 1. 0
O1 O2- 4 c 0.1033(5) 0.46686(40) 0.25 0.47(6) 0.936(9) 0
O2 O2- 8 d -0.2965(4) 0.32267(31) 0.04995(25) 0.73(3) 0.958(4) 0
#End of TTdata_157119-ICSD