
#(C) 2019 by FIZ Karlsruhe - Leibniz Institute for Information Infrastructure.  All rights reserved.
data_15717-ICSD
_database_code_ICSD 15717
_audit_creation_date 1980-01-01
_chemical_name_systematic 'Sodium vanadomolybdate'
_chemical_formula_structural 'Na (V Mo O6)'
_chemical_formula_sum 'Mo1 Na1 O6 V1'
_chemical_name_structure_type ThTi2O6
_exptl_crystal_density_diffrn 3.8
_publ_section_title 'Structure cristalline de Na V Mo O6'
loop_
_citation_id
_citation_journal_full
_citation_year
_citation_journal_volume
_citation_page_first
_citation_page_last
_citation_journal_id_ASTM
primary 'Bulletin de la Societe Francaise de Mineralogie et de Cristallographie'
1968 91 325 331 BUFCAE
loop_
_publ_author_name
'Darriet, B.'
'Galy, J.'
_cell_length_a 9.422(8)
_cell_length_b 3.656(3)
_cell_length_c 7.228(5)
_cell_angle_alpha 90.
_cell_angle_beta 111.00(17)
_cell_angle_gamma 90.
_cell_volume 232.44
_cell_formula_units_Z 2
_symmetry_space_group_name_H-M 'C 1 2/m 1'
_symmetry_Int_Tables_number 12
_refine_ls_R_factor_all 0.095
loop_
_symmetry_equiv_pos_site_id
_symmetry_equiv_pos_as_xyz
1 '-x, y, -z'
2 '-x, -y, -z'
3 'x, -y, z'
4 'x, y, z'
5 '-x+1/2, y+1/2, -z'
6 '-x+1/2, -y+1/2, -z'
7 'x+1/2, -y+1/2, z'
8 'x+1/2, y+1/2, z'
loop_
_atom_type_symbol
_atom_type_oxidation_number
Na1+ 1
V5+ 5
Mo6+ 6
O2- -2
loop_
_atom_site_label
_atom_site_type_symbol
_atom_site_symmetry_multiplicity
_atom_site_Wyckoff_symbol
_atom_site_fract_x
_atom_site_fract_y
_atom_site_fract_z
_atom_site_B_iso_or_equiv
_atom_site_occupancy
_atom_site_attached_hydrogens
Na1 Na1+ 2 a 0 0 0 2.63 1. 0
V1 V5+ 4 i 0.8152 0 0.3607 0.03 0.5 0
Mo1 Mo6+ 4 i 0.8152 0 0.3607 0.03 0.5 0
O1 O2- 4 i 0.9805 0 0.308 2.32 1. 0
O2 O2- 4 i 0.678 0 0.1441 2.17 1. 0
O3 O2- 4 i 0.3081 0 0.4393 1.2 1. 0
#End of TTdata_15717-ICSD