
#(C) 2019 by FIZ Karlsruhe - Leibniz Institute for Information Infrastructure.  All rights reserved.
data_157342-ICSD
_database_code_ICSD 157342
_audit_creation_date 2008-02-01
_chemical_name_systematic 'Tetrasodium uranium(IV) tetrakis(molybdate)'
_chemical_formula_structural 'Na4 U (Mo O4)4'
_chemical_formula_sum 'Mo4 Na4 O16 U1'
_chemical_name_structure_type K4Th(MoO4)4
_exptl_crystal_density_diffrn 4.21
_publ_section_title
'Structural and thermal studies on Na2 U (Mo O4)3 and Na4 U (Mo O4)4'
loop_
_citation_id
_citation_journal_full
_citation_year
_citation_journal_volume
_citation_page_first
_citation_page_last
_citation_journal_id_ASTM
primary 'Journal of Alloys and Compounds' 2007 440 145 149 JALCEU
loop_
_publ_author_name
'Dahale, N.D.'
'Keskar, M.'
'Kulkarni, N.K.'
'Singh Mudher, K.D.'
_cell_length_a 11.1623(2)
_cell_length_b 11.1623(2)
_cell_length_c 12.2799(3)
_cell_angle_alpha 90.
_cell_angle_beta 90.
_cell_angle_gamma 90.
_cell_volume 1530.04
_cell_formula_units_Z 4
_symmetry_space_group_name_H-M 'I 41/a Z'
_symmetry_Int_Tables_number 88
_refine_ls_R_factor_all 0.061
loop_
_symmetry_equiv_pos_site_id
_symmetry_equiv_pos_as_xyz
1 '-y+3/4, x+3/4, -z+3/4'
2 'y+1/4, -x+3/4, -z+3/4'
3 'x, y+1/2, -z'
4 '-x, -y, -z'
5 'y+1/4, -x+1/4, z+1/4'
6 '-y+3/4, x+1/4, z+1/4'
7 '-x, -y+1/2, z'
8 'x, y, z'
9 '-y+1/4, x+1/4, -z+1/4'
10 'y+3/4, -x+1/4, -z+1/4'
11 'x+1/2, y, -z+1/2'
12 '-x+1/2, -y+1/2, -z+1/2'
13 'y+3/4, -x+3/4, z+3/4'
14 '-y+1/4, x+3/4, z+3/4'
15 '-x+1/2, -y, z+1/2'
16 'x+1/2, y+1/2, z+1/2'
loop_
_atom_type_symbol
_atom_type_oxidation_number
Mo6+ 6
U4+ 4
Na1+ 1
O2- -2
loop_
_atom_site_label
_atom_site_type_symbol
_atom_site_symmetry_multiplicity
_atom_site_Wyckoff_symbol
_atom_site_fract_x
_atom_site_fract_y
_atom_site_fract_z
_atom_site_B_iso_or_equiv
_atom_site_occupancy
_atom_site_attached_hydrogens
Mo1 Mo6+ 16 f 0.5883(3) 0.4254(3) 0.1263(3) 1.4(2) 1. 0
U1 U4+ 4 b 0.5 0.75 0.125 1.1(1) 1. 0
Na1 Na1+ 16 f 0.726(1) 0.140(1) 0.094(1) 0.9(3) 1. 0
O1 O2- 16 f 0.584(2) 0.565(2) 0.058(2) 2.2(3) 1. 0
O2 O2- 16 f 0.464(2) 0.391(2) 0.204(1) 2.2(3) 1. 0
O3 O2- 16 f 0.621(1) 0.314(2) 0.031(2) 2.2(3) 1. 0
O4 O2- 16 f 0.714(2) 0.411(2) 0.218(2) 2.2(3) 1. 0
#End of TTdata_157342-ICSD