
#(C) 2019 by FIZ Karlsruhe - Leibniz Institute for Information Infrastructure.  All rights reserved.
data_157467-ICSD
_database_code_ICSD 157467
_audit_creation_date 2008-02-01
_chemical_name_systematic 'Disodium dialumodiborate'
_chemical_formula_structural 'Na2 (Al2 B2 O7)'
_chemical_formula_sum 'Al2 B2 Na2 O7'
_exptl_crystal_density_diffrn 2.54
_cell_measurement_temperature 293.
_publ_section_title
'Room temperature stable structures and phase transition of Na2 Al2 B2 O7'
loop_
_citation_id
_citation_journal_full
_citation_year
_citation_journal_volume
_citation_page_first
_citation_page_last
_citation_journal_id_ASTM
primary 'Journal of Physics and Chemistry of Solids' 2007 68 536 540 JPCSAW
loop_
_publ_author_name
'Gao, J.-H.'
'Xia, W.-B.'
'Li, R.-K.'
_cell_length_a 4.80760(11)
_cell_length_b 4.80760(11)
_cell_length_c 15.2684(5)
_cell_angle_alpha 90.
_cell_angle_beta 90.
_cell_angle_gamma 120.
_cell_volume 305.62
_cell_formula_units_Z 2
_symmetry_space_group_name_H-M 'P 63/m'
_symmetry_Int_Tables_number 176
_refine_ls_R_factor_all 0.041
loop_
_symmetry_equiv_pos_site_id
_symmetry_equiv_pos_as_xyz
1 '-x+y, -x, -z+1/2'
2 '-y, x-y, -z+1/2'
3 'x, y, -z+1/2'
4 'x-y, x, -z'
5 'y, -x+y, -z'
6 '-x, -y, -z'
7 'x-y, x, z+1/2'
8 'y, -x+y, z+1/2'
9 '-x, -y, z+1/2'
10 '-x+y, -x, z'
11 '-y, x-y, z'
12 'x, y, z'
loop_
_atom_type_symbol
_atom_type_oxidation_number
Na1+ 1
Al3+ 3
B3+ 3
O2- -2
loop_
_atom_site_label
_atom_site_type_symbol
_atom_site_symmetry_multiplicity
_atom_site_Wyckoff_symbol
_atom_site_fract_x
_atom_site_fract_y
_atom_site_fract_z
_atom_site_B_iso_or_equiv
_atom_site_occupancy
_atom_site_attached_hydrogens
Na1 Na1+ 2 b 0 0 0 0.019(2) 1. 0
Na2 Na1+ 2 a 0 0 0.25 0.042(3) 1. 0
Al1 Al3+ 4 f 0.3333 0.6667 0.643(10) 0.0110(10) 1. 0
B1 B3+ 4 f 0.3333 0.6667 0.115(4) 0.023(4) 1. 0
O1 O2- 12 i 0.955(4) 0.608(4) 0.8868(6) 0.0245(14) 1. 0
O2 O2- 6 h 0.703(5) 0.297(5) 0.25 0.061(10) 0.3333 0
#End of TTdata_157467-ICSD