
#(C) 2019 by FIZ Karlsruhe - Leibniz Institute for Information Infrastructure.  All rights reserved.
data_15764-ICSD
_database_code_ICSD 15764
_audit_creation_date 1980-01-01
_audit_update_record 1985-04-24
_chemical_name_systematic 'Rubidium sodium tetrafluoroberyllate (1.5/.5/1)'
_chemical_formula_structural 'Rb1.5 Na0.5 Be F4'
_chemical_formula_sum 'Be1 F4 Na0.5 Rb1.5'
_chemical_name_structure_type K3Na(SO4)2
_exptl_crystal_density_diffrn 3.38
_publ_section_title 'Etude des systemes Me(I)2 Be F4 - Na2 Be F4'
loop_
_citation_id
_citation_journal_full
_citation_year
_citation_journal_volume
_citation_page_first
_citation_page_last
_citation_journal_id_ASTM
primary 'Materials Research Bulletin' 1972 7 799 812 MRBUAC
loop_
_publ_author_name
'Pontonnier, L.'
'Caillet, M.'
'Aleonard, S.'
_cell_length_a 5.805(2)
_cell_length_b 5.805
_cell_length_c 7.556
_cell_angle_alpha 90.
_cell_angle_beta 90.
_cell_angle_gamma 120.
_cell_volume 220.51
_cell_formula_units_Z 2
_symmetry_space_group_name_H-M 'P -3 m 1'
_symmetry_Int_Tables_number 164
_refine_ls_R_factor_all 0.09
loop_
_symmetry_equiv_pos_site_id
_symmetry_equiv_pos_as_xyz
1 'x-y, -y, -z'
2 '-x, -x+y, -z'
3 'y, x, -z'
4 'x-y, x, -z'
5 'y, -x+y, -z'
6 '-x, -y, -z'
7 '-x+y, y, z'
8 'x, x-y, z'
9 '-y, -x, z'
10 '-x+y, -x, z'
11 '-y, x-y, z'
12 'x, y, z'
loop_
_atom_type_symbol
_atom_type_oxidation_number
Na1+ 1
Rb1+ 1
Be2+ 2
F1- -1
loop_
_atom_site_label
_atom_site_type_symbol
_atom_site_symmetry_multiplicity
_atom_site_Wyckoff_symbol
_atom_site_fract_x
_atom_site_fract_y
_atom_site_fract_z
_atom_site_B_iso_or_equiv
_atom_site_occupancy
_atom_site_attached_hydrogens
Na1 Na1+ 1 a 0 0 0 2.15 1. 0
Rb1 Rb1+ 1 b 0 0 0.5 2.01 1. 0
Rb2 Rb1+ 2 d 0.3333 0.6667 0.145(1) 1.68 1. 0
Be1 Be2+ 2 d 0.3333 0.6667 0.743(9) 0.77 1. 0
F1 F1- 2 d 0.3333 0.6667 0.542(4) 0.53 1. 0
F2 F1- 6 i 0.188(2) -.188 -.173(4) 1.8 1. 0
#End of TTdata_15764-ICSD