
#(C) 2019 by FIZ Karlsruhe - Leibniz Institute for Information Infrastructure.  All rights reserved.
data_157732-ICSD
_database_code_ICSD 157732
_audit_creation_date 2008-02-01
_chemical_name_systematic
'Sodium iron(III) aluminium catena-disilicate (1/0.65/0.35/1)'
_chemical_formula_structural 'Na (Fe0.65 Al0.355) (Si2 O6)'
_chemical_formula_sum 'Al0.355 Fe0.65 Na1 O6 Si2'
_chemical_name_structure_type Pyroxene-CaMg(SiO3)2
_chemical_name_mineral Unnamed_Pyroxene
_exptl_crystal_density_diffrn 3.51
_publ_section_title

;
The crystal structure of pyroxenes along the jadeite - hedenbergite and
jadeite - aegirine joins
;
loop_
_citation_id
_citation_journal_full
_citation_year
_citation_journal_volume
_citation_page_first
_citation_page_last
_citation_journal_id_ASTM
primary 'American Mineralogist' 2007 92 1492 1501 AMMIAY
loop_
_publ_author_name
'Nestola, F.'
'Tribaudino, M.'
'Boffa Ballaran, T.'
'Liebske, C.'
'Bruno, M.'
_cell_length_a 9.5663(2)
_cell_length_b 8.7040(3)
_cell_length_c 5.2733(2)
_cell_angle_alpha 90.
_cell_angle_beta 107.600(2)
_cell_angle_gamma 90.
_cell_volume 418.53
_cell_formula_units_Z 4
_symmetry_space_group_name_H-M 'C 1 2/c 1'
_symmetry_Int_Tables_number 15
_refine_ls_R_factor_all 0.0218
loop_
_symmetry_equiv_pos_site_id
_symmetry_equiv_pos_as_xyz
1 'x, -y, z+1/2'
2 '-x, -y, -z'
3 '-x, y, -z+1/2'
4 'x, y, z'
5 'x+1/2, -y+1/2, z+1/2'
6 '-x+1/2, -y+1/2, -z'
7 '-x+1/2, y+1/2, -z+1/2'
8 'x+1/2, y+1/2, z'
loop_
_atom_type_symbol
_atom_type_oxidation_number
Na1+ 1
Al3+ 3
Fe3+ 3
Si4+ 4
O2- -2
loop_
_atom_site_label
_atom_site_type_symbol
_atom_site_symmetry_multiplicity
_atom_site_Wyckoff_symbol
_atom_site_fract_x
_atom_site_fract_y
_atom_site_fract_z
_atom_site_B_iso_or_equiv
_atom_site_occupancy
_atom_site_attached_hydrogens
Na1 Na1+ 4 e 0 0.29844(8) 0.25 0.0118(2) 1. 0
Al1 Al3+ 4 e 0 0.90134(3) 0.25 0.00542(7) 0.35(1) 0
Fe1 Fe3+ 4 e 0 0.90134(3) 0.25 0.00542(7) 0.65(1) 0
Si1 Si4+ 8 f 0.29075(3) 0.09083(3) 0.23362(6) 0.00500(7) 1. 0
O1 O2- 8 f 0.11233(9) 0.07785(9) 0.1345(2) 0.0078(1) 1. 0
O2 O2- 8 f 0.35929(9) 0.25862(9) 0.2992(2) 0.0096(1) 1. 0
O3 O2- 8 f 0.35289(8) 0.00802(9) 0.0111(2) 0.0078(1) 1. 0
loop_
_atom_site_aniso_label
_atom_site_aniso_type_symbol
_atom_site_aniso_U_11
_atom_site_aniso_U_22
_atom_site_aniso_U_33
_atom_site_aniso_U_12
_atom_site_aniso_U_13
_atom_site_aniso_U_23
Na1 Na1+ 0.0140(3) 0.0095(3) 0.0086(3) 0. -0.0014(2) 0.
Al1 Al3+ 0.0053(1) 0.0053(1) 0.0054(1) 0. 0.00117(8) 0.
Fe1 Fe3+ 0.0053(1) 0.0053(1) 0.0054(1) 0. 0.00117(8) 0.
Si1 Si4+ 0.0046(1) 0.0053(1) 0.0051(1) -0.00007(8) 0.00150(9) -0.00021(8)
O1 O2- 0.0052(3) 0.0086(3) 0.0094(3) 0.0006(2) 0.0018(2) -0.0002(2)
O2 O2- 0.0118(4) 0.0061(3) 0.0109(3) -0.0020(2) 0.0033(2) -0.0010(2)
O3 O2- 0.0065(4) 0.0104(3) 0.0064(3) 0.0008(2) 0.0018(2) -0.0021(2)
#End of TTdata_157732-ICSD