
#(C) 2019 by FIZ Karlsruhe - Leibniz Institute for Information Infrastructure.  All rights reserved.
data_157708-ICSD
_database_code_ICSD 157708
_audit_creation_date 2008-02-01
_chemical_name_systematic 'Potassium sodium alumosilicate (0.57/3.24/4)'
_chemical_formula_structural 'K0.57 Na3.24 (Al Si O4)4'
_chemical_formula_sum 'Al4 K0.57 Na3.24 O16 Si4'
_chemical_name_structure_type KNa3Al4(SiO4)4
_chemical_name_mineral Nepheline
_exptl_crystal_density_diffrn 2.97
_cell_measurement_pressure 7462000.
_publ_section_title

;
Elastic behavior and pressure-induced structural evolution of nepheline:
implications for the nature of the modulated superstructure
;
loop_
_citation_id
_citation_journal_full
_citation_year
_citation_journal_volume
_citation_page_first
_citation_page_last
_citation_journal_id_ASTM
primary 'American Mineralogist' 2007 92 1446 1455 AMMIAY
loop_
_publ_author_name
'Gatta, G.D.'
'Angel, R.J.'
_cell_length_a 9.5587(3)
_cell_length_b 9.5587(3)
_cell_length_c 8.1051(2)
_cell_angle_alpha 90.
_cell_angle_beta 90.
_cell_angle_gamma 120.
_cell_volume 641.34
_cell_formula_units_Z 2
_symmetry_space_group_name_H-M 'P 63'
_symmetry_Int_Tables_number 173
_refine_ls_R_factor_all 0.0458
loop_
_symmetry_equiv_pos_site_id
_symmetry_equiv_pos_as_xyz
1 'x-y, x, z+1/2'
2 'y, -x+y, z+1/2'
3 '-x, -y, z+1/2'
4 '-x+y, -x, z'
5 '-y, x-y, z'
6 'x, y, z'
loop_
_atom_type_symbol
_atom_type_oxidation_number
K1+ 1
Na1+ 1
Al3+ 3
Si4+ 4
Al3+ 3
O2- -2
loop_
_atom_site_label
_atom_site_type_symbol
_atom_site_symmetry_multiplicity
_atom_site_Wyckoff_symbol
_atom_site_fract_x
_atom_site_fract_y
_atom_site_fract_z
_atom_site_B_iso_or_equiv
_atom_site_occupancy
_atom_site_attached_hydrogens
K1 K1+ 2 a 0 0 0.0028(20) 0.0220(11) 0.57 0
Na1 Na1+ 2 a 0 0 0.0028(20) 0.0220(11) 0.24 0
Na2 Na1+ 6 c 0.56008(41) 0.00140(46) 0.5064(14) 0.0195(8) 1. 0
Al1 Al3+ 2 b 0.6667 0.3333 0.71012(96) 0.0108(19) 1. 0
Si1 Si4+ 2 b 0.6667 0.3333 0.30483(83) 0.0101(17) 1. 0
Si2 Si4+ 6 c 0.92358(62) 0.67276(69) 0.82528(33) 0.0100(10) 1. 0
Al2 Al3+ 6 c 0.92423(69) 0.67448(80) 0.19201(40) 0.0114(13) 1. 0
O1 O2- 2 b 0.6667 0.3333 0.5018(15) 0.0299(27) 1. 0
O2 O2- 6 c 0.01431(70) 0.70341(69) 0.0017(12) 0.0143(12) 1. 0
O3 O2- 6 c 0.8408(15) 0.4758(12) 0.2446(15) 0.0202(32) 1. 0
O4 O2- 6 c 0.8457(14) 0.4826(12) 0.7859(14) 0.0164(29) 1. 0
O5 O2- 6 c 0.7801(10) 0.7144(11) 0.8417(9) 0.0077(17) 1. 0
O6 O2- 6 c 0.7866(12) 0.7396(13) 0.1862(12) 0.0197(25) 1. 0
#End of TTdata_157708-ICSD