
#(C) 2019 by FIZ Karlsruhe - Leibniz Institute for Information Infrastructure.  All rights reserved.
data_157709-ICSD
_database_code_ICSD 157709
_audit_creation_date 2008-02-01
_chemical_name_systematic 'Potassium sodium alumosilicate (0.57/3.24/4)'
_chemical_formula_structural 'K0.57 Na3.24 (Al Si O4)4'
_chemical_formula_sum 'Al4 K0.57 Na3.24 O16 Si4'
_chemical_name_structure_type KNa3Al4(SiO4)4
_chemical_name_mineral Nepheline
_exptl_crystal_density_diffrn 2.63
_publ_section_title

;
Elastic behavior and pressure-induced structural evolution of nepheline:
implications for the nature of the modulated superstructure
;
loop_
_citation_id
_citation_journal_full
_citation_year
_citation_journal_volume
_citation_page_first
_citation_page_last
_citation_journal_id_ASTM
primary 'American Mineralogist' 2007 92 1446 1455 AMMIAY
loop_
_publ_author_name
'Gatta, G.D.'
'Angel, R.J.'
_cell_length_a 9.9907(2)
_cell_length_b 9.9907(2)
_cell_length_c 8.3695(2)
_cell_angle_alpha 90.
_cell_angle_beta 90.
_cell_angle_gamma 120.
_cell_volume 723.47
_cell_formula_units_Z 2
_symmetry_space_group_name_H-M 'P 63'
_symmetry_Int_Tables_number 173
_refine_ls_R_factor_all 0.0291
loop_
_symmetry_equiv_pos_site_id
_symmetry_equiv_pos_as_xyz
1 'x-y, x, z+1/2'
2 'y, -x+y, z+1/2'
3 '-x, -y, z+1/2'
4 '-x+y, -x, z'
5 '-y, x-y, z'
6 'x, y, z'
loop_
_atom_type_symbol
_atom_type_oxidation_number
K1+ 1
Na1+ 1
Al3+ 3
Si4+ 4
Al3+ 3
O2- -2
loop_
_atom_site_label
_atom_site_type_symbol
_atom_site_symmetry_multiplicity
_atom_site_Wyckoff_symbol
_atom_site_fract_x
_atom_site_fract_y
_atom_site_fract_z
_atom_site_B_iso_or_equiv
_atom_site_occupancy
_atom_site_attached_hydrogens
K1 K1+ 2 a 0 0 0.00350(81) 0.03448(37) 0.57 0
Na1 Na1+ 2 a 0 0 0.00350(81) 0.03448(37) 0.24 0
Na2 Na1+ 6 c 0.55414(11) 0.99762(11) 0.50785(55) 0.02594(24) 1. 0
Al1 Al3+ 2 b 0.6667 0.3333 0.70209(33) 0.01355(56) 1. 0
Si1 Si4+ 2 b 0.6667 0.3333 0.31353(29) 0.01392(52) 1. 0
Si2 Si4+ 6 c 0.90606(16) 0.66644(16) 0.82291(11) 0.01334(30) 1. 0
Al2 Al3+ 6 c 0.90620(18) 0.66767(18) 0.19635(14) 0.01306(34) 1. 0
O1 O2- 6 c 0.6708(45) 0.2957(35) 0.5008(11) 0.0348(32) 0.333 0
O2 O2- 6 c 0.97316(24) 0.68409(28) 0.00228(64) 0.03106(49) 1. 0
O3 O2- 6 c 0.82600(49) 0.47725(41) 0.25143(87) 0.0360(11) 1. 0
O4 O2- 6 c 0.83662(45) 0.48965(40) 0.76565(86) 0.0328(10) 1. 0
O5 O2- 6 c 0.77305(48) 0.71396(42) 0.82379(67) 0.01929(78) 1. 0
O6 O2- 6 c 0.77664(47) 0.73391(42) 0.20013(72) 0.0230(9) 1. 0
#End of TTdata_157709-ICSD