
#(C) 2019 by FIZ Karlsruhe - Leibniz Institute for Information Infrastructure.  All rights reserved.
data_157731-ICSD
_database_code_ICSD 157731
_audit_creation_date 2008-02-01
_chemical_name_systematic
'Sodium iron(III) aluminium catena-disilicate (1/0.26/0.74/1)'
_chemical_formula_structural 'Na (Fe0.26 Al0.74) (Si2 O6)'
_chemical_formula_sum 'Al0.74 Fe0.26 Na1 O6 Si2'
_chemical_name_structure_type Pyroxene-CaMg(SiO3)2
_chemical_name_mineral Unnamed_Pyroxene
_exptl_crystal_density_diffrn 3.41
_publ_section_title

;
The crystal structure of pyroxenes along the jadeite - hedenbergite and
jadeite - aegirine joins
;
loop_
_citation_id
_citation_journal_full
_citation_year
_citation_journal_volume
_citation_page_first
_citation_page_last
_citation_journal_id_ASTM
primary 'American Mineralogist' 2007 92 1492 1501 AMMIAY
loop_
_publ_author_name
'Nestola, F.'
'Tribaudino, M.'
'Boffa Ballaran, T.'
'Liebske, C.'
'Bruno, M.'
_cell_length_a 9.4781(2)
_cell_length_b 8.6180(3)
_cell_length_c 5.2449(2)
_cell_angle_alpha 90.
_cell_angle_beta 107.570(2)
_cell_angle_gamma 90.
_cell_volume 408.43
_cell_formula_units_Z 4
_symmetry_space_group_name_H-M 'C 1 2/c 1'
_symmetry_Int_Tables_number 15
_refine_ls_R_factor_all 0.0283
loop_
_symmetry_equiv_pos_site_id
_symmetry_equiv_pos_as_xyz
1 'x, -y, z+1/2'
2 '-x, -y, -z'
3 '-x, y, -z+1/2'
4 'x, y, z'
5 'x+1/2, -y+1/2, z+1/2'
6 '-x+1/2, -y+1/2, -z'
7 '-x+1/2, y+1/2, -z+1/2'
8 'x+1/2, y+1/2, z'
loop_
_atom_type_symbol
_atom_type_oxidation_number
Na1+ 1
Al3+ 3
Fe3+ 3
Si4+ 4
O2- -2
loop_
_atom_site_label
_atom_site_type_symbol
_atom_site_symmetry_multiplicity
_atom_site_Wyckoff_symbol
_atom_site_fract_x
_atom_site_fract_y
_atom_site_fract_z
_atom_site_B_iso_or_equiv
_atom_site_occupancy
_atom_site_attached_hydrogens
Na1 Na1+ 4 e 0 0.30029(7) 0.25 0.0114(1) 1. 0
Al1 Al3+ 4 e 0 0.90369(3) 0.25 0.00494(9) 0.74(1) 0
Fe1 Fe3+ 4 e 0 0.90369(3) 0.25 0.00494(9) 0.26(1) 0
Si1 Si4+ 8 f 0.29055(3) 0.09232(3) 0.22978(5) 0.00443(7) 1. 0
O1 O2- 8 f 0.11032(8) 0.07663(8) 0.1303(1) 0.0063(1) 1. 0
O2 O2- 8 f 0.36029(8) 0.26139(8) 0.2952(1) 0.0078(1) 1. 0
O3 O2- 8 f 0.35324(8) 0.00755(8) 0.0075(1) 0.0068(1) 1. 0
loop_
_atom_site_aniso_label
_atom_site_aniso_type_symbol
_atom_site_aniso_U_11
_atom_site_aniso_U_22
_atom_site_aniso_U_33
_atom_site_aniso_U_12
_atom_site_aniso_U_13
_atom_site_aniso_U_23
Na1 Na1+ 0.0143(3) 0.0076(2) 0.0094(2) 0. -0.0008(2) 0.
Al1 Al3+ 0.0050(1) 0.0047(1) 0.0050(1) 0. 0.0012(1) 0.
Fe1 Fe3+ 0.0050(1) 0.0047(1) 0.0050(1) 0. 0.0012(1) 0.
Si1 Si4+ 0.0042(1) 0.0046(1) 0.0045(1) -0.00024(7) 0.00125(8) -0.00023(6)
O1 O2- 0.0046(3) 0.0069(2) 0.0070(2) 0.0001(2) 0.0014(2) -0.0001(2)
O2 O2- 0.0094(3) 0.0052(2) 0.0085(2) -0.0019(2) 0.0027(2) -0.0007(2)
O3 O2- 0.0062(3) 0.0085(2) 0.0057(2) 0.0001(2) 0.0019(2) -0.0021(2)
#End of TTdata_157731-ICSD