
#(C) 2019 by FIZ Karlsruhe - Leibniz Institute for Information Infrastructure.  All rights reserved.
data_158117-ICSD
_database_code_ICSD 158117
_audit_creation_date 2008-02-01
_chemical_name_systematic 'Sodium gadolinium bis(sulfate(VI)) hydrate'
_chemical_formula_structural 'Na Gd (S O4)2 (H2 O)'
_chemical_formula_sum 'H2 Gd1 Na1 O9 S2'
_chemical_name_structure_type CeNa(SO4)2H2O
_exptl_crystal_density_diffrn 3.71
_cell_measurement_temperature 296.
_publ_section_title
'Synthesis, structure and catalytic properties of rare-earth ternary sulfates'
loop_
_citation_id
_citation_journal_full
_citation_year
_citation_journal_volume
_citation_page_first
_citation_page_last
_citation_journal_id_ASTM
primary 'Journal of Materials Chemistry' 2005 17 2701 2706 JMACEP
loop_
_publ_author_name
'Perles, J.'
'Fortes-Revilla, C.'
'Gutierrez Puebla, E.'
'Iglesias, M.'
'Monge, M.A.'
'Ruiz Valero, C.'
'Snejko, N.'
_cell_length_a 6.8816(6)
_cell_length_b 6.8816(6)
_cell_length_c 12.7702(17)
_cell_angle_alpha 90.
_cell_angle_beta 90.
_cell_angle_gamma 120.
_cell_volume 523.73
_cell_formula_units_Z 3
_symmetry_space_group_name_H-M 'P 32 2 1'
_symmetry_Int_Tables_number 154
_refine_ls_R_factor_all 0.0519
loop_
_symmetry_equiv_pos_site_id
_symmetry_equiv_pos_as_xyz
1 '-x, -x+y, -z+2/3'
2 'x-y, -y, -z+1/3'
3 'y, x, -z'
4 '-x+y, -x, z+1/3'
5 '-y, x-y, z+2/3'
6 'x, y, z'
loop_
_atom_type_symbol
_atom_type_oxidation_number
Gd3+ 3
S6+ 6
O2- -2
Na1+ 1
H1+ 1
loop_
_atom_site_label
_atom_site_type_symbol
_atom_site_symmetry_multiplicity
_atom_site_Wyckoff_symbol
_atom_site_fract_x
_atom_site_fract_y
_atom_site_fract_z
_atom_site_B_iso_or_equiv
_atom_site_occupancy
_atom_site_attached_hydrogens
Gd1 Gd3+ 3 a 0.56458(12) 0.56458(12) 0. 0.0098(2) 1. 0
S1 S6+ 6 c 0.5454(4) 0.5579(5) -0.24222(15) 0.0109(4) 1. 0
O1 O2- 6 c 0.4859(13) 0.3523(13) 0.1688(5) 0.018(2) 1. 0
O2 O2- 6 c 0.7422(11) 0.6117(11) -0.1748(5) 0.0167(18) 1. 0
O3 O2- 6 c 0.1696(11) 0.4128(11) 0.0298(6) 0.0152(18) 1. 0
O4 O2- 6 c 0.8722(14) 0.4959(13) 0.0169(6) 0.0133(19) 1. 0
O5 O2- 3 a 0.922(2) 0.922(2) 0. 0.047(6) 1. 0
Na1 Na1+ 3 b 0.4688(9) 0. 0.1667 0.0165(12) 1. 0
H1 H1+ 6 c 0.91(3) 1.03(2) 0.041(10) 0.08(5) 1. 0
loop_
_atom_site_aniso_label
_atom_site_aniso_type_symbol
_atom_site_aniso_U_11
_atom_site_aniso_U_22
_atom_site_aniso_U_33
_atom_site_aniso_U_12
_atom_site_aniso_U_13
_atom_site_aniso_U_23
Gd1 Gd3+ 0.0101(3) 0.0101(3) 0.0098(3) 0.0055(5) 0.0000(2) 0.0000(2)
S1 S6+ 0.0143(12) 0.0108(12) 0.0099(9) 0.0081(12) -0.0005(9) 0.0015(10)
O1 O2- 0.020(5) 0.018(4) 0.016(4) 0.010(4) -0.003(3) -0.002(3)
O2 O2- 0.011(4) 0.022(5) 0.016(3) 0.007(4) -0.005(3) 0.000(3)
O3 O2- 0.007(3) 0.015(4) 0.022(4) 0.004(3) 0.006(3) 0.006(3)
O4 O2- 0.011(4) 0.015(5) 0.011(3) 0.005(4) -0.003(3) -0.002(3)
O5 O2- 0.015(6) 0.015(6) 0.103(14) 0.001(7) 0.016(5) -0.016(5)
Na1 Na1+ 0.015(2) 0.014(4) 0.020(3) 0.007(2) 0.0013(15) 0.003(3)
#End of TTdata_158117-ICSD