
#(C) 2019 by FIZ Karlsruhe - Leibniz Institute for Information Infrastructure.  All rights reserved.
data_158116-ICSD
_database_code_ICSD 158116
_audit_creation_date 2008-02-01
_chemical_name_systematic 'Sodium lanthanum bis(sulfate(VI)) hydrate'
_chemical_formula_structural 'Na La (S O4)2 (H2 O)'
_chemical_formula_sum 'H2 La1 Na1 O9 S2'
_chemical_name_structure_type CeNa(SO4)2H2O
_exptl_crystal_density_diffrn 3.32
_cell_measurement_temperature 296.
_publ_section_title
'Synthesis, structure and catalytic properties of rare-earth ternary sulfates'
loop_
_citation_id
_citation_journal_full
_citation_year
_citation_journal_volume
_citation_page_first
_citation_page_last
_citation_journal_id_ASTM
primary 'Journal of Materials Chemistry' 2005 17 2701 2706 JMACEP
loop_
_publ_author_name
'Perles, J.'
'Fortes-Revilla, C.'
'Gutierrez Puebla, E.'
'Iglesias, M.'
'Monge, M.A.'
'Ruiz Valero, C.'
'Snejko, N.'
_cell_length_a 7.0538(5)
_cell_length_b 7.0538(5)
_cell_length_c 12.9625(14)
_cell_angle_alpha 90.
_cell_angle_beta 90.
_cell_angle_gamma 120.
_cell_volume 558.55
_cell_formula_units_Z 3
_symmetry_space_group_name_H-M 'P 31 2 1'
_symmetry_Int_Tables_number 152
_refine_ls_R_factor_all 0.0362
loop_
_symmetry_equiv_pos_site_id
_symmetry_equiv_pos_as_xyz
1 'x-y, -y, -z+2/3'
2 '-x, -x+y, -z+1/3'
3 'y, x, -z'
4 '-x+y, -x, z+2/3'
5 '-y, x-y, z+1/3'
6 'x, y, z'
loop_
_atom_type_symbol
_atom_type_oxidation_number
La3+ 3
O2- -2
S6+ 6
O2- -2
Na1+ 1
H1+ 1
loop_
_atom_site_label
_atom_site_type_symbol
_atom_site_symmetry_multiplicity
_atom_site_Wyckoff_symbol
_atom_site_fract_x
_atom_site_fract_y
_atom_site_fract_z
_atom_site_B_iso_or_equiv
_atom_site_occupancy
_atom_site_attached_hydrogens
La1 La3+ 3 a 0.56735(8) 0.56735(8) 0 0.01057(14) 1. 0
O1 O2- 6 c 0.4956(9) 0.3630(9) 0.8257(3) 0.0210(12) 1. 0
O2 O2- 6 c 0.6109(7) 0.7406(7) 0.8184(3) 0.0180(11) 1. 0
O3 O2- 6 c 0.4090(8) 0.1637(8) 0.0262(4) 0.0206(12) 1. 0
O4 O2- 6 c 0.4975(9) 0.8821(9) 0.0137(3) 0.0195(12) 1. 0
S1 S6+ 6 c 0.5600(3) 0.5474(3) 0.75332(9) 0.0119(3) 1. 0
O5 O2- 3 a 0.9302(14) 0.9302(14) 0 0.058(4) 1. 0
Na1 Na1+ 3 b 0 0.4700(6) 0.1667 0.0228(8) 1. 0
H1 H1+ 6 c 0.049(17) 0.93(2) 0.056(7) 0.08(4) 1. 0
loop_
_atom_site_aniso_label
_atom_site_aniso_type_symbol
_atom_site_aniso_U_11
_atom_site_aniso_U_22
_atom_site_aniso_U_33
_atom_site_aniso_U_12
_atom_site_aniso_U_13
_atom_site_aniso_U_23
La1 La3+ 0.0109(2) 0.0109(2) 0.0107(2) 0.0060(3) 0.00002(12) -0.00002(12)
O1 O2- 0.032(3) 0.023(3) 0.015(2) 0.018(3) 0.001(2) -0.0001(17)
O2 O2- 0.024(3) 0.016(3) 0.0156(19) 0.011(2) -0.0003(16) -0.0037(18)
O3 O2- 0.025(3) 0.020(2) 0.023(2) 0.015(2) -0.0002(18) 0.0063(19)
O4 O2- 0.029(4) 0.016(3) 0.017(2) 0.014(3) 0.004(2) 0.001(2)
S1 S6+ 0.0113(7) 0.0145(7) 0.0109(5) 0.0071(7) 0.0002(6) -0.0006(5)
O5 O2- 0.023(4) 0.023(4) 0.116(9) 0.003(4) -0.013(3) 0.013(3)
Na1 Na1+ 0.018(3) 0.0268(17) 0.0209(16) 0.0088(13) -0.0011(17) -0.0006(9)
#End of TTdata_158116-ICSD