
#(C) 2019 by FIZ Karlsruhe - Leibniz Institute for Information Infrastructure.  All rights reserved.
data_158605-ICSD
_database_code_ICSD 158605
_audit_creation_date 2008-08-01
_chemical_name_systematic
'Sodium dialuminium phyllo-decaoxodihydroxoalumotrisilicate'
_chemical_formula_structural 'Na Al2 ((Al Si3) O10 (O H)2)'
_chemical_formula_sum 'H2 Al3 Na1 O12 Si3'
_chemical_name_structure_type Mica#-(2M1)-15
_chemical_name_mineral 'Paragonite 2M1'
_exptl_crystal_density_diffrn 2.8
_cell_measurement_temperature 723.
_publ_section_title

;
Structural thermal behavior of paragonite and its dehydroxylate: a
high-temperature single-crystal study
;
loop_
_citation_id
_citation_journal_full
_citation_year
_citation_journal_volume
_citation_page_first
_citation_page_last
_citation_journal_id_ASTM
primary 'Physics and Chemistry of Minerals' 2000 27 377 385 PCMIDU
loop_
_publ_author_name
'Comodi, P.'
'Zanazzi, P.F.'
_cell_length_a 5.173(2)
_cell_length_b 8.985(5)
_cell_length_c 19.553(12)
_cell_angle_alpha 90.
_cell_angle_beta 93.58(1)
_cell_angle_gamma 90.
_cell_volume 907.04
_cell_formula_units_Z 4
_symmetry_space_group_name_H-M 'C 1 2/c 1'
_symmetry_Int_Tables_number 15
_refine_ls_R_factor_all 0.029
loop_
_symmetry_equiv_pos_site_id
_symmetry_equiv_pos_as_xyz
1 'x, -y, z+1/2'
2 '-x, -y, -z'
3 '-x, y, -z+1/2'
4 'x, y, z'
5 'x+1/2, -y+1/2, z+1/2'
6 '-x+1/2, -y+1/2, -z'
7 '-x+1/2, y+1/2, -z+1/2'
8 'x+1/2, y+1/2, z'
loop_
_atom_type_symbol
_atom_type_oxidation_number
Na1+ 1
Al3+ 3
Si4+ 4
Al3+ 3
Si4+ 4
O2- -2
H1+ 1
loop_
_atom_site_label
_atom_site_type_symbol
_atom_site_symmetry_multiplicity
_atom_site_Wyckoff_symbol
_atom_site_fract_x
_atom_site_fract_y
_atom_site_fract_z
_atom_site_B_iso_or_equiv
_atom_site_occupancy
_atom_site_attached_hydrogens
Na1 Na1+ 4 e 0 0.0957(5) 0.25 0.086(2) 1. 0
Al1 Al3+ 8 f 0.2502(3) 0.0836(1) -0.00002(7) 0.0221(6) 1. 0
Al2 Al3+ 8 f 0.9457(3) 0.4287(1) 0.13942(7) 0.0239(6) 0.25 0
Si1 Si4+ 8 f 0.9457(3) 0.4287(1) 0.13942(7) 0.0239(6) 0.75 0
Al3 Al3+ 8 f 0.4321(3) 0.2576(1) 0.13929(7) 0.0239(6) 0.25 0
Si2 Si4+ 8 f 0.4321(3) 0.2576(1) 0.13929(7) 0.0239(6) 0.75 0
O1 O2- 8 f 0.9548(6) 0.4440(4) 0.0550(2) 0.0246(9) 1. 0
O2 O2- 8 f 0.3763(6) 0.2515(4) 0.0553(2) 0.0250(9) 1. 0
O3 O2- 8 f 0.3748(7) 0.0919(4) 0.1726(2) 0.032(1) 1. 0
O4 O2- 8 f 0.7343(7) 0.3026(4) 0.1609(2) 0.035(1) 1. 0
O5 O2- 8 f 0.2336(7) 0.3764(4) 0.1731(2) 0.031(1) 1. 0
O6 O2- 8 f 0.9488(7) 0.0623(5) 0.0508(2) 0.029(1) 1. 0
H1 H1+ 8 f 0.879(15) 0.124(9) 0.060(4) 0.08(3) 1. 0
#End of TTdata_158605-ICSD