
#(C) 2019 by FIZ Karlsruhe - Leibniz Institute for Information Infrastructure.  All rights reserved.
data_158607-ICSD
_database_code_ICSD 158607
_audit_creation_date 2008-08-01
_chemical_name_systematic
'Sodium dialuminium phyllo-decaoxodihydroxoalumotrisilicate'
_chemical_formula_structural 'Na Al2 ((Al Si3) O11)'
_chemical_formula_sum 'Al3 Na1 O11 Si3'
_exptl_crystal_density_diffrn 2.62
_cell_measurement_temperature 298.
_publ_section_title

;
Structural thermal behavior of paragonite and its dehydroxylate: a
high-temperature single-crystal study
;
loop_
_citation_id
_citation_journal_full
_citation_year
_citation_journal_volume
_citation_page_first
_citation_page_last
_citation_journal_id_ASTM
primary 'Physics and Chemistry of Minerals' 2000 27 377 385 PCMIDU
loop_
_publ_author_name
'Comodi, P.'
'Zanazzi, P.F.'
_cell_length_a 5.182(2)
_cell_length_b 9.117(5)
_cell_length_c 19.550(12)
_cell_angle_alpha 90.
_cell_angle_beta 92.70(1)
_cell_angle_gamma 90.
_cell_volume 922.6
_cell_formula_units_Z 4
_symmetry_space_group_name_H-M 'C 1 2/c 1'
_symmetry_Int_Tables_number 15
_refine_ls_R_factor_all 0.057
loop_
_symmetry_equiv_pos_site_id
_symmetry_equiv_pos_as_xyz
1 'x, -y, z+1/2'
2 '-x, -y, -z'
3 '-x, y, -z+1/2'
4 'x, y, z'
5 'x+1/2, -y+1/2, z+1/2'
6 '-x+1/2, -y+1/2, -z'
7 '-x+1/2, y+1/2, -z+1/2'
8 'x+1/2, y+1/2, z'
loop_
_atom_type_symbol
_atom_type_oxidation_number
Na1+ 1
Al3+ 3
Si4+ 4
Al3+ 3
Si4+ 4
O2- -2
loop_
_atom_site_label
_atom_site_type_symbol
_atom_site_symmetry_multiplicity
_atom_site_Wyckoff_symbol
_atom_site_fract_x
_atom_site_fract_y
_atom_site_fract_z
_atom_site_B_iso_or_equiv
_atom_site_occupancy
_atom_site_attached_hydrogens
Na1 Na1+ 4 e 0 0.909(12) 0.25 0.082(4) 1. 0
Al1 Al3+ 8 f 0.2774(5) 0.0937(4) 0.0002(2) 0.0228(8) 1. 0
Al2 Al3+ 8 f 0.9414(5) 0.4308(3) 0.1415(1) 0.0232(9) 0.25 0
Si1 Si4+ 8 f 0.9414(5) 0.4308(3) 0.1415(1) 0.0232(9) 0.75 0
Al3 Al3+ 8 f 0.4192(5) 0.2547(4) 0.1414(1) 0.0250(8) 0.25 0
Si2 Si4+ 8 f 0.4192(5) 0.2547(4) 0.1414(1) 0.0250(8) 0.75 0
O1 O2- 8 f 0.9784(12) 0.4616(8) 0.0586(3) 0.025(2) 1. 0
O2 O2- 8 f 0.3360(12) 0.2443(8) 0.0585(3) 0.027(2) 1. 0
O3 O2- 8 f 0.3674(13) 0.0909(8) 0.1755(3) 0.030(2) 1. 0
O4 O2- 8 f 0.7212(12) 0.3053(9) 0.1574(3) 0.034(2) 1. 0
O5 O2- 8 f 0.2230(13) 0.3746(8) 0.1769(3) 0.030(2) 1. 0
O6 O2- 4 a 0 0 0 0.055(4) 1. 0
#End of TTdata_158607-ICSD