
#(C) 2019 by FIZ Karlsruhe - Leibniz Institute for Information Infrastructure.  All rights reserved.
data_159068-ICSD
_database_code_ICSD 159068
_audit_creation_date 2008-08-01
_chemical_name_systematic 'Sodium aluminium catena-disilicate'
_chemical_formula_structural 'Na Al (Si2 O6)'
_chemical_formula_sum 'Al1 Na1 O6 Si2'
_chemical_name_structure_type Pyroxene-CaMg(SiO3)2
_chemical_name_mineral Jadeite
_exptl_crystal_density_diffrn 3.34
_cell_measurement_temperature 293.
_publ_section_title

;
Compressibility trends of the clinopyroxenes and in-situ high-pressure
single-crystal X-ray diffraction study of jadeite
;
loop_
_citation_id
_citation_journal_full
_citation_year
_citation_journal_volume
_citation_page_first
_citation_page_last
_citation_journal_id_ASTM
primary 'American Mineralogist' 2008 93 198 209 AMMIAY
loop_
_publ_author_name
'McCarthy, A.C.'
'Downs, R.T.'
'Thompson, R.M.'
_cell_length_a 9.4242(2)
_cell_length_b 8.5657(2)
_cell_length_c 5.2242(2)
_cell_angle_alpha 90.
_cell_angle_beta 107.578(2)
_cell_angle_gamma 90.
_cell_volume 402.03
_cell_formula_units_Z 4
_symmetry_space_group_name_H-M 'C 1 2/c 1'
_symmetry_Int_Tables_number 15
_refine_ls_R_factor_all 0.04
loop_
_symmetry_equiv_pos_site_id
_symmetry_equiv_pos_as_xyz
1 'x, -y, z+1/2'
2 '-x, -y, -z'
3 '-x, y, -z+1/2'
4 'x, y, z'
5 'x+1/2, -y+1/2, z+1/2'
6 '-x+1/2, -y+1/2, -z'
7 '-x+1/2, y+1/2, -z+1/2'
8 'x+1/2, y+1/2, z'
loop_
_atom_type_symbol
_atom_type_oxidation_number
Na1+ 1
Al3+ 3
Si4+ 4
O2- -2
loop_
_atom_site_label
_atom_site_type_symbol
_atom_site_symmetry_multiplicity
_atom_site_Wyckoff_symbol
_atom_site_fract_x
_atom_site_fract_y
_atom_site_fract_z
_atom_site_B_iso_or_equiv
_atom_site_occupancy
_atom_site_attached_hydrogens
Na1 Na1+ 4 e 0 0.3006(1) 0.25 1.305(17) 1. 0
Al1 Al3+ 4 e 0 0.90601(7) 0.25 0.746(14) 1. 0
Si1 Si4+ 8 f 0.29063(4) 0.09334(4) 0.22786(8) 0.733(12) 1. 0
O1 O2- 8 f 0.1093(1) 0.0759(1) 0.1280(2) 0.824(19) 1. 0
O2 O2- 8 f 0.3611(1) 0.2634(1) 0.2929(2) 0.975(19) 1. 0
O3 O2- 8 f 0.3537(1) 0.0071(1) 0.0057(2) 0.935(19) 1. 0
loop_
_atom_site_aniso_label
_atom_site_aniso_type_symbol
_atom_site_aniso_beta_11
_atom_site_aniso_beta_22
_atom_site_aniso_beta_33
_atom_site_aniso_beta_12
_atom_site_aniso_beta_13
_atom_site_aniso_beta_23
Na1 Na1+ 0.00432(10) 0.00419(12) 0.01090(33) 0. 0.00034(15) 0.
Al1 Al3+ 0.00197(7) 0.00324(9) 0.00637(24) 0. 0.00091(103) 0.
Si1 Si4+ 0.00189(5) 0.00320(7) 0.00640(17) -0.00007(3) 0.00094(7) -0.00005(6)
O1 O2- 0.00207(12) 0.00373(13) 0.00692(37) -0.00006(9) 0.00093(16) 0.00014(17)
O2 O2- 0.00284(11) 0.00374(13) 0.00929(36) -0.00037(10) 0.00164(17) -0.00031(17)
O3 O2- 0.00249(10) 0.00415(129) 0.00779(19) 0.00003(12) 0.00124(14) -0.00063(37)
#End of TTdata_159068-ICSD