
#(C) 2019 by FIZ Karlsruhe - Leibniz Institute for Information Infrastructure.  All rights reserved.
data_159178-ICSD
_database_code_ICSD 159178
_audit_creation_date 2008-08-01
_chemical_name_systematic 'Sodium magnesium iron phosphate(V) (1.25/1.1/1.9/3)'
_chemical_formula_structural 'Na1.25 Mg1.1 Fe1.9 (P O4)3'
_chemical_formula_sum 'Fe1.9 Mg1.1 Na1.25 O12 P3'
_chemical_name_structure_type Alluaudite
_exptl_crystal_density_diffrn 3.45
_cell_measurement_temperature 293.
_publ_section_title

;
Structural investigation of the alluaudite-like mixed-valence iron phosphate:
Na1.25 Mg1.10 Fe1.90 (P O4)3
;
loop_
_citation_id
_citation_journal_full
_citation_year
_citation_journal_volume
_citation_page_first
_citation_page_last
_citation_journal_id_ASTM
primary 'Journal of Alloys and Compounds' 2008 450 301 305 JALCEU
loop_
_publ_author_name
'Hidouri, M.'
'Lajmi, B.'
'Wattiaux, A.'
'Fournes, L.'
'Darriet, J.'
'Ben Amara, M.'
_cell_length_a 11.7831(3)
_cell_length_b 12.4740(3)
_cell_length_c 6.3761(2)
_cell_angle_alpha 90.
_cell_angle_beta 113.643(2)
_cell_angle_gamma 90.
_cell_volume 858.51
_cell_formula_units_Z 4
_symmetry_space_group_name_H-M 'C 1 2/c 1'
_symmetry_Int_Tables_number 15
_refine_ls_R_factor_all 0.032
loop_
_symmetry_equiv_pos_site_id
_symmetry_equiv_pos_as_xyz
1 'x, -y, z+1/2'
2 '-x, -y, -z'
3 '-x, y, -z+1/2'
4 'x, y, z'
5 'x+1/2, -y+1/2, z+1/2'
6 '-x+1/2, -y+1/2, -z'
7 '-x+1/2, y+1/2, -z+1/2'
8 'x+1/2, y+1/2, z'
loop_
_atom_type_symbol
_atom_type_oxidation_number
Na1+ 1
Fe2+ 2.92
Mg2+ 2
Fe2+ 2.92
Mg2+ 2
P5+ 5
O2- -2
loop_
_atom_site_label
_atom_site_type_symbol
_atom_site_symmetry_multiplicity
_atom_site_Wyckoff_symbol
_atom_site_fract_x
_atom_site_fract_y
_atom_site_fract_z
_atom_site_B_iso_or_equiv
_atom_site_occupancy
_atom_site_attached_hydrogens
Na1 Na1+ 4 b 0.5 0 0 0.018(1) 0.625 0
Na2 Na1+ 4 e 0 0.0091(3) 0.75 0.040(1) 0.625 0
Fe1 Fe2+ 4 e 0 0.2628(1) 0.25 0.009(1) 0.1 0
Mg1 Mg2+ 4 e 0 0.2628(1) 0.25 0.009(1) 0.9 0
Fe2 Fe2+ 8 f 0.2158(1) 0.1521(1) 0.1258(1) 0.007(1) 0.9 0
Mg2 Mg2+ 8 f 0.2158(1) 0.1521(1) 0.1258(1) 0.007(1) 0.1 0
P1 P5+ 4 e 0 0.2870(1) 0.75 0.007(1) 1. 0
P2 P5+ 8 f 0.2406(1) -0.1099(1) 0.1269(1) 0.009(1) 1. 0
O1 O2- 8 f 0.0430(1) 0.2172(2) 0.9683(3) 0.011(1) 1. 0
O2 O2- 8 f 0.1031(2) 0.3631(1) 0.7512(3) 0.011(1) 1. 0
O3 O2- 8 f 0.3778(2) -0.1053(2) 0.1269(1) 0.013(1) 1. 0
O4 O2- 8 f 0.1856(1) 0.0018(1) 0.1212(3) 0.013(1) 1. 0
O5 O2- 8 f 0.1670(1) -0.1649(1) -0.1069(2) 0.010(1) 1. 0
O6 O2- 8 f 0.2229(2) -0.1784(2) 0.3160(2) 0.010(1) 1. 0
#End of TTdata_159178-ICSD