
#(C) 2019 by FIZ Karlsruhe - Leibniz Institute for Information Infrastructure.  All rights reserved.
data_159260-ICSD
_database_code_ICSD 159260
_audit_creation_date 2008-08-01
_chemical_name_systematic
'Calcium sodium neodymium zirconate (0.44/0.28/0.28/1)'
_chemical_formula_structural '(Ca0.44 Na0.28 Nd0.28) (Zr O3)'
_chemical_formula_sum 'Ca0.44 Na0.28 Nd0.28 O3 Zr1'
_chemical_name_structure_type Perovskite-GdFeO3
_exptl_crystal_density_diffrn 5.2
_publ_section_title
'Preparation and characterization of sodium bearing perovskite phases'
loop_
_citation_id
_citation_journal_full
_citation_year
_citation_journal_volume
_citation_page_first
_citation_page_last
_citation_journal_id_ASTM
primary 'Materials Research Bulletin' 2008 43 222 229 MRBUAC
loop_
_publ_author_name
'Kulkarni, N.K.'
'Sali, S.K.'
'Singh Mudher, K.D.'
'Venugopal, V.'
_cell_length_a 5.620(2)
_cell_length_b 8.053(5)
_cell_length_c 5.747(2)
_cell_angle_alpha 90.
_cell_angle_beta 90.
_cell_angle_gamma 90.
_cell_volume 260.1
_cell_formula_units_Z 4
_symmetry_space_group_name_H-M 'P c m n'
_symmetry_Int_Tables_number 62
_refine_ls_R_factor_all 0.0727
loop_
_symmetry_equiv_pos_site_id
_symmetry_equiv_pos_as_xyz
1 '-x+1/2, y, z+1/2'
2 'x, -y+1/2, z'
3 'x+1/2, y+1/2, -z+1/2'
4 '-x, -y, -z'
5 'x+1/2, -y, -z+1/2'
6 '-x, y+1/2, -z'
7 '-x+1/2, -y+1/2, z+1/2'
8 'x, y, z'
loop_
_atom_type_symbol
_atom_type_oxidation_number
Ca2+ 2
Na1+ 1
Nd3+ 3
Zr4+ 4
O2- -2
loop_
_atom_site_label
_atom_site_type_symbol
_atom_site_symmetry_multiplicity
_atom_site_Wyckoff_symbol
_atom_site_fract_x
_atom_site_fract_y
_atom_site_fract_z
_atom_site_B_iso_or_equiv
_atom_site_occupancy
_atom_site_attached_hydrogens
Ca1 Ca2+ 4 c 0.008 0.25 0.0463 1.2 0.44 0
Na1 Na1+ 4 c 0.008 0.25 0.0463 1.2 0.28 0
Nd1 Nd3+ 4 c 0.008 0.25 0.0463 1.2 0.28 0
Zr1 Zr4+ 4 b 0.5 0 0 0.6 1. 0
O1 O2- 4 c 0.578 0.25 -0.0328 1.6 1. 0
O2 O2- 8 d 0.297 0.0466 0.2926 1.6 1. 0
#End of TTdata_159260-ICSD