
#(C) 2019 by FIZ Karlsruhe - Leibniz Institute for Information Infrastructure.  All rights reserved.
data_159694-ICSD
_database_code_ICSD 159694
_audit_creation_date 2008-08-01
_chemical_name_systematic 'Holmium sodium hexapalladate'
_chemical_formula_structural 'Ho Na (Pd6 O8)'
_chemical_formula_sum 'Ho1 Na1 O8 Pd6'
_chemical_name_structure_type TbNaPd6O8
_exptl_crystal_density_diffrn 8.36
_cell_measurement_temperature 294.
_publ_section_title

;
Crystal growth and structural characterization of a new series of rare earth
palladates, Ln Na Pd6 O8 (Ln= Tb - Lu, Y)
;
loop_
_citation_id
_citation_journal_full
_citation_year
_citation_journal_volume
_citation_page_first
_citation_page_last
_citation_journal_id_ASTM
primary 'Crystal Growth & Design' 2008 8 494 500 CGDEFU
loop_
_publ_author_name
'Mugavero, S.J.'
'Smith, M.D.'
'zur Loye, H.C.'
_cell_length_a 5.74360(10)
_cell_length_b 5.74360(10)
_cell_length_c 5.74360(10)
_cell_angle_alpha 90.
_cell_angle_beta 90.
_cell_angle_gamma 90.
_cell_volume 189.48
_cell_formula_units_Z 1
_symmetry_space_group_name_H-M 'P m -3'
_symmetry_Int_Tables_number 200
_refine_ls_R_factor_all 0.0306
loop_
_symmetry_equiv_pos_site_id
_symmetry_equiv_pos_as_xyz
1 '-z, x, y'
2 'z, x, -y'
3 'z, -x, y'
4 '-z, -x, -y'
5 'y, -z, x'
6 '-y, z, x'
7 'y, z, -x'
8 '-y, -z, -x'
9 'x, y, -z'
10 'x, -y, z'
11 '-x, y, z'
12 '-x, -y, -z'
13 'z, -x, -y'
14 '-z, -x, y'
15 '-z, x, -y'
16 'z, x, y'
17 '-y, z, -x'
18 'y, -z, -x'
19 '-y, -z, x'
20 'y, z, x'
21 '-x, -y, z'
22 '-x, y, -z'
23 'x, -y, -z'
24 'x, y, z'
loop_
_atom_type_symbol
_atom_type_oxidation_number
Ho3+ 3
Na1+ 1
Ho3+ 3
Na1+ 1
Pd2+ 2
O2- -2
loop_
_atom_site_label
_atom_site_type_symbol
_atom_site_symmetry_multiplicity
_atom_site_Wyckoff_symbol
_atom_site_fract_x
_atom_site_fract_y
_atom_site_fract_z
_atom_site_B_iso_or_equiv
_atom_site_occupancy
_atom_site_attached_hydrogens
Ho1 Ho3+ 1 a 0 0 0 0.007(1) 0.919(5) 0
Na1 Na1+ 1 a 0 0 0 0.007(1) 0.081(5) 0
Ho2 Ho3+ 1 b 0.5 0.5 0.5 0.007(1) 0.081(5) 0
Na2 Na1+ 1 b 0.5 0.5 0.5 0.007(1) 0.919(5) 0
Pd1 Pd2+ 6 g 0.2510(1) 0.5 0 0.007(1) 1. 0
O1 O2- 8 i 0.2427(6) 0.2427(6) 0.2427(6) 0.008(1) 1. 0
#End of TTdata_159694-ICSD