
#(C) 2019 by FIZ Karlsruhe - Leibniz Institute for Information Infrastructure.  All rights reserved.
data_159673-ICSD
_database_code_ICSD 159673
_audit_creation_date 2008-08-01
_audit_update_record 2013-02-01
_chemical_name_systematic
'Cesium sodium aluminium silicon oxide (52/40/92/100/384)'
_chemical_formula_structural 'Cs52 Na40 (Al92 Si100 O384)'
_chemical_formula_sum 'Al92 Cs52 Na40 O384 Si100'
_chemical_name_structure_type Faujasite-Fd3--frame
_chemical_name_mineral 'Zeolite X (Cs-exchanged, dehyd.)'
_exptl_crystal_density_diffrn 2.05
_cell_measurement_temperature 294.
_publ_section_title

;
Crystal structure of fully dehydrated partially Cs(+)-exchanged zeolite X,
(Cs52 Na40)-X (the highest Cs(+)-exchanged level achieved by conventional
method and confirmation of special site selectivity)
;
loop_
_citation_id
_citation_journal_full
_citation_year
_citation_journal_volume
_citation_page_first
_citation_page_last
_citation_journal_id_ASTM
primary 'Bulletin of the Korean Chemical Society' 2007 28 251 256 BKCSDE
loop_
_publ_author_name
'Bae Myung Nam'
_cell_length_a 24.9765(10)
_cell_length_b 24.9765(10)
_cell_length_c 24.9765(10)
_cell_angle_alpha 90.
_cell_angle_beta 90.
_cell_angle_gamma 90.
_cell_volume 15580.98
_cell_formula_units_Z 1
_symmetry_space_group_name_H-M 'F d -3 Z'
_symmetry_Int_Tables_number 203
_refine_ls_R_factor_all 0.052
loop_
_symmetry_equiv_pos_site_id
_symmetry_equiv_pos_as_xyz
1 '-z, x+3/4, y+3/4'
2 'z+3/4, x+3/4, -y'
3 'z+3/4, -x, y+3/4'
4 '-z, -x, -y'
5 'y+3/4, -z, x+3/4'
6 '-y, z+3/4, x+3/4'
7 'y+3/4, z+3/4, -x'
8 '-y, -z, -x'
9 'x+3/4, y+3/4, -z'
10 'x+3/4, -y, z+3/4'
11 '-x, y+3/4, z+3/4'
12 '-x, -y, -z'
13 'z, -x+1/4, -y+1/4'
14 '-z+1/4, -x+1/4, y'
15 '-z+1/4, x, -y+1/4'
16 'z, x, y'
17 '-y+1/4, z, -x+1/4'
18 'y, -z+1/4, -x+1/4'
19 '-y+1/4, -z+1/4, x'
20 'y, z, x'
21 '-x+1/4, -y+1/4, z'
22 '-x+1/4, y, -z+1/4'
23 'x, -y+1/4, -z+1/4'
24 'x, y, z'
25 '-z, x+1/4, y+1/4'
26 'z+3/4, x+1/4, -y+1/2'
27 'z+3/4, -x+1/2, y+1/4'
28 '-z, -x+1/2, -y+1/2'
29 'y+3/4, -z+1/2, x+1/4'
30 '-y, z+1/4, x+1/4'
31 'y+3/4, z+1/4, -x+1/2'
32 '-y, -z+1/2, -x+1/2'
33 'x+3/4, y+1/4, -z+1/2'
34 'x+3/4, -y+1/2, z+1/4'
35 '-x, y+1/4, z+1/4'
36 '-x, -y+1/2, -z+1/2'
37 'z, -x+3/4, -y+3/4'
38 '-z+1/4, -x+3/4, y+1/2'
39 '-z+1/4, x+1/2, -y+3/4'
40 'z, x+1/2, y+1/2'
41 '-y+1/4, z+1/2, -x+3/4'
42 'y, -z+3/4, -x+3/4'
43 '-y+1/4, -z+3/4, x+1/2'
44 'y, z+1/2, x+1/2'
45 '-x+1/4, -y+3/4, z+1/2'
46 '-x+1/4, y+1/2, -z+3/4'
47 'x, -y+3/4, -z+3/4'
48 'x, y+1/2, z+1/2'
49 '-z+1/2, x+3/4, y+1/4'
50 'z+1/4, x+3/4, -y+1/2'
51 'z+1/4, -x, y+1/4'
52 '-z+1/2, -x, -y+1/2'
53 'y+1/4, -z, x+1/4'
54 '-y+1/2, z+3/4, x+1/4'
55 'y+1/4, z+3/4, -x+1/2'
56 '-y+1/2, -z, -x+1/2'
57 'x+1/4, y+3/4, -z+1/2'
58 'x+1/4, -y, z+1/4'
59 '-x+1/2, y+3/4, z+1/4'
60 '-x+1/2, -y, -z+1/2'
61 'z+1/2, -x+1/4, -y+3/4'
62 '-z+3/4, -x+1/4, y+1/2'
63 '-z+3/4, x, -y+3/4'
64 'z+1/2, x, y+1/2'
65 '-y+3/4, z, -x+3/4'
66 'y+1/2, -z+1/4, -x+3/4'
67 '-y+3/4, -z+1/4, x+1/2'
68 'y+1/2, z, x+1/2'
69 '-x+3/4, -y+1/4, z+1/2'
70 '-x+3/4, y, -z+3/4'
71 'x+1/2, -y+1/4, -z+3/4'
72 'x+1/2, y, z+1/2'
73 '-z+1/2, x+1/4, y+3/4'
74 'z+1/4, x+1/4, -y'
75 'z+1/4, -x+1/2, y+3/4'
76 '-z+1/2, -x+1/2, -y'
77 'y+1/4, -z+1/2, x+3/4'
78 '-y+1/2, z+1/4, x+3/4'
79 'y+1/4, z+1/4, -x'
80 '-y+1/2, -z+1/2, -x'
81 'x+1/4, y+1/4, -z'
82 'x+1/4, -y+1/2, z+3/4'
83 '-x+1/2, y+1/4, z+3/4'
84 '-x+1/2, -y+1/2, -z'
85 'z+1/2, -x+3/4, -y+1/4'
86 '-z+3/4, -x+3/4, y'
87 '-z+3/4, x+1/2, -y+1/4'
88 'z+1/2, x+1/2, y'
89 '-y+3/4, z+1/2, -x+1/4'
90 'y+1/2, -z+3/4, -x+1/4'
91 '-y+3/4, -z+3/4, x'
92 'y+1/2, z+1/2, x'
93 '-x+3/4, -y+3/4, z'
94 '-x+3/4, y+1/2, -z+1/4'
95 'x+1/2, -y+3/4, -z+1/4'
96 'x+1/2, y+1/2, z'
loop_
_atom_type_symbol
_atom_type_oxidation_number
Si4+ 4
Al3+ 3
Si4+ 4
O2- -2
Na1+ 1
Cs1+ 1
loop_
_atom_site_label
_atom_site_type_symbol
_atom_site_symmetry_multiplicity
_atom_site_Wyckoff_symbol
_atom_site_fract_x
_atom_site_fract_y
_atom_site_fract_z
_atom_site_B_iso_or_equiv
_atom_site_occupancy
_atom_site_attached_hydrogens
Si1 Si4+ 96 g -0.0545(4) 0.1243(5) 0.0340(3) . 1 0
Al1 Al3+ 96 g -0.0542(3) 0.0358(3) 0.1217(5) . 0.9583 0
Si2 Si4+ 96 g -0.0542(3) 0.0358(3) 0.1217(5) . 0.0417 0
O1 O2- 96 g -0.1125(8) -0.0013(9) 0.1087(8) . 1 0
O2 O2- 96 g -0.0036(8) -0.0057(8) 0.1440(7) . 1 0
O3 O2- 96 g -0.0353(9) 0.0686(8) 0.0643(7) . 1 0
O4 O2- 96 g -0.0663(7) 0.0786(8) 0.1719(8) . 1 0
Na1 Na1+ 16 c 0. 0. 0. 0.0121(74) 0.875 0
Na2 Na1+ 32 e 0.2261(9) 0.2261(9) 0.2261(9) . 0.8125 0
Cs1 Cs1+ 16 c 0. 0. 0. 0.0121(74) 0.0625 0
Cs2 Cs1+ 32 e 0.0902(21) 0.0902(21) 0.0902(21) . 0.0625 0
Cs3 Cs1+ 32 e 0.2621(5) 0.2621(5) 0.2621(5) . 0.1875 0
Cs4 Cs1+ 32 e 0.1652(7) 0.1652(7) 0.1652(7) . 0.1875 0
Cs5 Cs1+ 48 f 0.41951(10) 0.125 0.125 . 0.75 0
Cs6 Cs1+ 96 g 0.4475(46) 0.1701(55) 0.0875(59) 0.0032(467) 0.0104 0
loop_
_atom_site_aniso_label
_atom_site_aniso_type_symbol
_atom_site_aniso_U_11
_atom_site_aniso_U_22
_atom_site_aniso_U_33
_atom_site_aniso_U_12
_atom_site_aniso_U_13
_atom_site_aniso_U_23
Si1 Si4+ 0.0127(45) 0.0198(44) 0.0113(51) 0.0016(54) 0.0062(45) 0.0051(57)
Al1 Al3+ 0.0159(47) 0.0026(48) 0.0059(45) 0.0005(44) -0.0072(53) -0.0027(48)
Si2 Si4+ 0.0159(47) 0.0026(48) 0.0059(45) 0.0005(44) -0.0072(53) -0.0027(48)
O1 O2- 0.0284(162) 0.0520(136) 0.0111(122) -0.0283(128) -0.0029(89) 0.0057(104)
O2 O2- 0.0054(110) 0.0146(116) 0.0211(112) 0.0077(87) 0.0004(88) 0.0036(101)
O3 O2- 0.0309(126) 0.0178(139) 0.0040(123) 0.0126(115) 0.0133(119) 0.0075(88)
O4 O2- 0.0310(130) 0.0087(122) 0.0150(127) -0.0077(121) 0.0095(128) -0.0014(88)
Na2 Na1+ 0.0573(87) 0.0573(87) 0.0573(87) 0.0166(125) 0.0166(125) 0.0166(125)
Cs2 Cs1+ 0.0927(425) 0.0927(425) 0.0927(425) -0.0068(283) -0.0068(283)
-0.0068(283)
Cs3 Cs1+ 0.0264(63) 0.0264(63) 0.0264(63) -0.0025(56) -0.0025(56) -0.0025(56)
Cs4 Cs1+ 0.0639(142) 0.0639(142) 0.0639(142) -0.0143(98) -0.0143(98) -0.0143(98)
Cs5 Cs1+ 0.0204(25) 0.0837(49) 0.0892(57) 0. 0. -0.0226(42)
#End of TTdata_159673-ICSD