
#(C) 2019 by FIZ Karlsruhe - Leibniz Institute for Information Infrastructure.  All rights reserved.
data_159905-ICSD
_database_code_ICSD 159905
_audit_creation_date 2008-08-01
_audit_update_record 2009-02-01
_chemical_name_systematic 'Sodium vanado(III)vanadate(IV)'
_chemical_formula_structural 'Na (V2 O4)'
_chemical_formula_sum 'Na1 O4 V2'
_chemical_name_structure_type CaV2O4
_exptl_crystal_density_diffrn 4.48
_cell_measurement_temperature 293.
_publ_section_title
'Na V2 O4: a quasi-1D metallic antiferromagnet with half-metallic chains'
loop_
_citation_id
_citation_journal_full
_citation_year
_citation_journal_volume
_citation_page_first
_citation_page_last
_citation_journal_id_ASTM
primary 'Physical Review Letters' 2007 99 196601-1 196601-4 PRLTAO
loop_
_publ_author_name
'Yamaura, K.'
'Arai, M.'
'Sato, A.'
'Karki, A.B.'
'Young, D.P.'
'Movshovich, R.'
'Okamoto, S.'
'Mandrus, D.'
'Takayama Muromachi, E.'
_cell_length_a 9.1304(11)
_cell_length_b 2.8844(4)
_cell_length_c 10.6284(13)
_cell_angle_alpha 90.
_cell_angle_beta 90.
_cell_angle_gamma 90.
_cell_volume 279.91
_cell_formula_units_Z 4
_symmetry_space_group_name_H-M 'P n m a'
_symmetry_Int_Tables_number 62
_refine_ls_R_factor_all 0.0224
loop_
_symmetry_equiv_pos_site_id
_symmetry_equiv_pos_as_xyz
1 'x+1/2, y, -z+1/2'
2 'x, -y+1/2, z'
3 '-x+1/2, y+1/2, z+1/2'
4 '-x, -y, -z'
5 '-x+1/2, -y, z+1/2'
6 '-x, y+1/2, -z'
7 'x+1/2, -y+1/2, -z+1/2'
8 'x, y, z'
loop_
_atom_type_symbol
_atom_type_oxidation_number
Na1+ 1
V3+ 3.5
O2- -2
loop_
_atom_site_label
_atom_site_type_symbol
_atom_site_symmetry_multiplicity
_atom_site_Wyckoff_symbol
_atom_site_fract_x
_atom_site_fract_y
_atom_site_fract_z
_atom_site_B_iso_or_equiv
_atom_site_occupancy
_atom_site_attached_hydrogens
Na1 Na1+ 4 c 0.24271(13) 0.25 0.34620(10) . 1. 0
V1 V3+ 4 c 0.08309(5) 0.25 0.60374(4) . 1. 0
V2 V3+ 4 c 0.06330(5) 0.25 0.11198(4) . 1. 0
O1 O2- 4 c 0.2910(2) 0.25 0.64828(16) . 1. 0
O2 O2- 4 c 0.3872(2) 0.25 -0.02053(17) . 1. 0
O3 O2- 4 c 0.4793(2) 0.25 0.21757(18) . 1. 0
O4 O2- 4 c 0.0785(2) 0.25 -0.07120(18) . 1. 0
loop_
_atom_site_aniso_label
_atom_site_aniso_type_symbol
_atom_site_aniso_U_11
_atom_site_aniso_U_22
_atom_site_aniso_U_33
_atom_site_aniso_U_12
_atom_site_aniso_U_13
_atom_site_aniso_U_23
Na1 Na1+ 0.0128(6) 0.0135(6) 0.0122(6) 0. 0.0002(4) 0.
V1 V3+ 0.0094(2) 0.0081(3) 0.0058(3) 0. 0.00013(15) 0.
V2 V3+ 0.0093(2) 0.0086(3) 0.0059(3) 0. -0.00013(15) 0.
O1 O2- 0.0109(9) 0.0097(9) 0.0090(9) 0. 0.0005(6) 0.
O2 O2- 0.0097(9) 0.0097(9) 0.0074(9) 0. -0.0005(7) 0.
O3 O2- 0.0109(9) 0.0105(9) 0.0074(8) 0. 0.0004(7) 0.
O4 O2- 0.0108(9) 0.0091(9) 0.0067(8) 0. 0.0003(6) 0.
#End of TTdata_159905-ICSD