
#(C) 2019 by FIZ Karlsruhe - Leibniz Institute for Information Infrastructure.  All rights reserved.
data_160176-ICSD
_database_code_ICSD 160176
_audit_creation_date 2008-08-01
_chemical_name_systematic 'Sodium dibarium distrontium triantimony(V) oxide'
_chemical_formula_structural 'Na Ba2 Sr2 Sb3 O12'
_chemical_formula_sum 'Ba2 Na1 O12 Sb3 Sr2'
_exptl_crystal_density_diffrn 6.2
_cell_measurement_temperature 293.
_publ_section_title

;
Composition- and temperature-dependent phase transitions in 1:3 ordered
perovskites Ba4-x Srx Na Sb3 O12
;
loop_
_citation_id
_citation_journal_full
_citation_year
_citation_journal_volume
_citation_page_first
_citation_page_last
_citation_journal_id_ASTM
primary 'Journal of Solid State Chemistry' 2007 180 3082 3092 JSSCBI
loop_
_publ_author_name
'Zhou Qing Di'
'Kennedy, B.J.'
'Elcombe, M.M.'
'Withers, R.L.'
_cell_length_a 11.6157(7)
_cell_length_b 11.5949(5)
_cell_length_c 8.1879(3)
_cell_angle_alpha 90.
_cell_angle_beta 90.
_cell_angle_gamma 90.
_cell_volume 1102.77
_cell_formula_units_Z 4
_symmetry_space_group_name_H-M 'C m c a'
_symmetry_Int_Tables_number 64
_refine_ls_R_factor_all 0.0518
loop_
_symmetry_equiv_pos_site_id
_symmetry_equiv_pos_as_xyz
1 '-x, -y+1/2, z+1/2'
2 '-x, y+1/2, -z+1/2'
3 '-x, y, z'
4 '-x, -y, -z'
5 'x, y+1/2, -z+1/2'
6 'x, -y+1/2, z+1/2'
7 'x, -y, -z'
8 'x, y, z'
9 '-x+1/2, -y, z+1/2'
10 '-x+1/2, y, -z+1/2'
11 '-x+1/2, y+1/2, z'
12 '-x+1/2, -y+1/2, -z'
13 'x+1/2, y, -z+1/2'
14 'x+1/2, -y, z+1/2'
15 'x+1/2, -y+1/2, -z'
16 'x+1/2, y+1/2, z'
loop_
_atom_type_symbol
_atom_type_oxidation_number
Ba2+ 2
Sr2+ 2
Ba2+ 2
Sr2+ 2
Na1+ 1
Sb5+ 5
O2- -2
loop_
_atom_site_label
_atom_site_type_symbol
_atom_site_symmetry_multiplicity
_atom_site_Wyckoff_symbol
_atom_site_fract_x
_atom_site_fract_y
_atom_site_fract_z
_atom_site_B_iso_or_equiv
_atom_site_occupancy
_atom_site_attached_hydrogens
Ba1 Ba2+ 8 e 0.25 0.006(2) 0.25 0.43(8) 0.5 0
Sr1 Sr2+ 8 e 0.25 0.006(2) 0.25 0.43(8) 0.5 0
Ba2 Ba2+ 8 f 0 0.746(3) 0.234(2) 0.43(8) 0.5 0
Sr2 Sr2+ 8 f 0 0.746(3) 0.234(2) 0.43(8) 0.5 0
Na1 Na1+ 4 a 0 0 0 0.1(4) 1. 0
Sb1 Sb5+ 4 b 0.5 0 0 0.8(1) 1. 0
Sb2 Sb5+ 8 c 0.25 0.25 0 0.8(1) 1. 0
O1 O2- 8 e 0.25 0.271(2) 0.25 1.66(7) 1. 0
O2 O2- 8 f 0 -0.026(2) 0.258(5) 1.66(7) 1. 0
O3 O2- 16 g 0.131(1) 0.128(2) 0.016(2) 1.66(7) 1. 0
O4 O2- 16 g 0.140(1) 0.113(1) 0.484(1) 1.66(7) 1. 0
#End of TTdata_160176-ICSD