
#(C) 2019 by FIZ Karlsruhe - Leibniz Institute for Information Infrastructure.  All rights reserved.
data_160199-ICSD
_database_code_ICSD 160199
_audit_creation_date 2008-08-01
_chemical_name_systematic
'Sodium cesium lithium silicon oxide (7.2/7.6/39.2/72/172)'
_chemical_formula_structural 'Na7.2 Cs7.6 Li21.2 (Li18 Si72 O172)'
_chemical_formula_sum 'Cs7.6 Li39.2 Na7.2 O172 Si72'
_chemical_name_mineral 'Zeolite RUB-29, Na-exchanged'
_exptl_crystal_density_diffrn 2.23
_cell_measurement_temperature 673.
_publ_section_title

;
Increase of ionic conductivity in the microporous lithosilicate RUB-29 by
Na-ion exchange processes
;
loop_
_citation_id
_citation_journal_full
_citation_year
_citation_journal_volume
_citation_page_first
_citation_page_last
_citation_journal_id_ASTM
primary 'Journal of Solid State Chemistry' 2007 180 3366 3380 JSSCBI
loop_
_publ_author_name
'Park, S.-H.'
'Senyshyn, A.'
'Paulmann, C.'
_cell_length_a 11.1560(6)
_cell_length_b 17.3965(9)
_cell_length_c 23.888(1)
_cell_angle_alpha 90.
_cell_angle_beta 90.
_cell_angle_gamma 90.
_cell_volume 4636.07
_cell_formula_units_Z 1
_symmetry_space_group_name_H-M 'I 2 2 2'
_symmetry_Int_Tables_number 23
_refine_ls_R_factor_all 0.0334
loop_
_symmetry_equiv_pos_site_id
_symmetry_equiv_pos_as_xyz
1 '-x, y, -z'
2 'x, -y, -z'
3 '-x, -y, z'
4 'x, y, z'
5 '-x+1/2, y+1/2, -z+1/2'
6 'x+1/2, -y+1/2, -z+1/2'
7 '-x+1/2, -y+1/2, z+1/2'
8 'x+1/2, y+1/2, z+1/2'
loop_
_atom_type_symbol
_atom_type_oxidation_number
Si4+ 4
O2- -2
Li1+ 1
Cs1+ 1
Na1+ 1
loop_
_atom_site_label
_atom_site_type_symbol
_atom_site_symmetry_multiplicity
_atom_site_Wyckoff_symbol
_atom_site_fract_x
_atom_site_fract_y
_atom_site_fract_z
_atom_site_B_iso_or_equiv
_atom_site_occupancy
_atom_site_attached_hydrogens
Si1 Si4+ 8 k 0.362(1) 0.506(1) -0.3469(5) 0.010(1) 1. 0
Si2 Si4+ 8 k -0.242(2) 0.413(1) -0.1260(8) 0.010(1) 1. 0
Si3 Si4+ 8 k 0.135(2) 0.277(1) 0.066(1) 0.010(1) 1. 0
Si4 Si4+ 8 k 0.003(3) 0.3007(8) 0.3253(6) 0.010(1) 1. 0
Si5 Si4+ 8 k 0.258(2) 0.346(1) 0.3527(8) 0.010(1) 1. 0
Si6 Si4+ 8 k -0.241(2) 0.585(1) -0.1171(8) 0.010(1) 1. 0
Si7 Si4+ 8 k 0.257(2) 0.658(1) 0.3524(9) 0.010(1) 1. 0
Si8 Si4+ 8 k -0.499(3) 0.6263(8) -0.1439(5) 0.010(1) 1. 0
Si9 Si4+ 8 k -0.139(2) 0.276(1) 0.064(1) 0.010(1) 1. 0
O1 O2- 8 k 0.3437(1) 0.495(1) 0.2803(5) 0.028(1) 1. 0
O2 O2- 8 k -0.002(1) 0.2592(9) 0.0812(6) 0.028(1) 1. 0
O3 O2- 8 k 0.017(2) 0.286(1) 0.2587(6) 0.028(1) 1. 0
O4 O2- 8 k -0.201(1) 0.497(1) -0.1075(7) 0.028(1) 1. 0
O5 O2- 8 k -0.204(3) 0.384(1) -0.1862(9) 0.028(1) 1. 0
O6 O2- 8 k 0.015(3) 0.2197(7) 0.3594(7) 0.028(1) 1. 0
O7 O2- 8 k 0.280(3) 0.277(1) 0.396(1) 0.028(1) 1. 0
O8 O2- 8 k 0.219(3) 0.215(1) 0.096(1) 0.028(1) 1. 0
O9 O2- 8 k -0.211(3) 0.609(1) -0.1804(9) 0.028(1) 1. 0
O10 O2- 8 k -0.148(1) 0.2558(9) -0.001(1) 0.028(1) 1. 0
O11 O2- 8 k -0.384(2) 0.409(1) -0.113(1) 0.028(1) 1. 0
O12 O2- 4 i 0 0 0.132(9) 0.028(1) 1. 0
O13 O2- 8 k 0.319(3) 0.314(1) 0.2960(9) 0.028(1) 1. 0
O14 O2- 8 k -0.382(2) 0.603(1) -0.107(1) 0.028(1) 1. 0
O15 O2- 8 k 0.322(3) 0.682(1) 0.295(1) 0.028(1) 1. 0
O16 O2- 8 k -0.175(2) 0.365(1) 0.069(1) 0.028(1) 1. 0
O17 O2- 8 k 0.115(2) 0.649(1) 0.340(1) 0.028(1) 1. 0
O18 O2- 8 k -0.168(2) 0.365(1) -0.081(1) 0.028(1) 1. 0
O19 O2- 8 k 0.113(2) 0.351(1) 0.349(1) 0.028(1) 1. 0
O20 O2- 8 k 0.297(2) 0.426(1) 0.3826(9) 0.028(1) 1. 0
O21 O2- 8 k -0.492(3) 0.605(7) -0.2090(5) 0.028(1) 1. 0
O22 O2- 8 k 0.310(2) 0.576(1) 0.3699(9) 0.028(1) 1. 0
Li1 Li1+ 4 i 0.5 0.5 -0.240(1) 0.02(1) 1.0(1) 0
Li2 Li1+ 8 k 0.340(2) 0.397(2) 0.239(1) 0.02(1) 0.6(2) 0
Li3 Li1+ 8 k -0.326(3) 0.595(1) -0.241(1) 0.02(1) 1.0(1) 0
Li4 Li1+ 8 k 0.003(3) 0.182(1) 0.228(1) 0.02(1) 1.0(1) 0
Li5 Li1+ 8 k -0.143(3) 0.700(1) -0.222(2) 0.02(1) 1.0(1) 0
Li6 Li1+ 8 k -0.189(3) 0.291(1) -0.234(2) 0.02(1) 0.8(1) 0
Cs1 Cs1+ 2 d 0 0.5 0 0.03(1) 1.0(1) 0
Cs2 Cs1+ 2 c 0.5 0.5 0 0.12(3) 1.0(1) 0
Cs3 Cs1+ 4 j 0 0.5 0.760(2) 0.09(2) 0.9(1) 0
Na1 Na1+ 4 j 0.5 0 0.134(3) 0.04(3) 0.6(1) 0
Na2 Na1+ 2 a 0 0 0 0.2(1) 0.6(1) 0
Na3 Na1+ 4 h 0.5 0.077(6) 0 0.1(1) 0.5(1) 0
Na4 Na1+ 4 h 0.5 -0.23(12) 0 0.2(1) 0.4(1) 0
#End of TTdata_160199-ICSD