
#(C) 2019 by FIZ Karlsruhe - Leibniz Institute for Information Infrastructure.  All rights reserved.
data_160189-ICSD
_database_code_ICSD 160189
_audit_creation_date 2008-08-01
_audit_update_record 2012-02-01
_chemical_name_systematic 'Sodium lutetium diphosphate(V)'
_chemical_formula_structural 'Na Lu (P2 O7)'
_chemical_formula_sum 'Lu1 Na1 O7 P2'
_chemical_name_structure_type NaLuP2O7
_exptl_crystal_density_diffrn 4.11
_cell_measurement_temperature 293.
_publ_section_title

;
Synthesis, structure and X-ray excited luminescence of Ce(3+)-doped (A RE P2
O7)-type alkali rare earth diphosphates (A= Na, K, Rb, Cs; RE= Y, Lu)
;
loop_
_citation_id
_citation_journal_full
_citation_year
_citation_journal_volume
_citation_page_first
_citation_page_last
_citation_journal_id_ASTM
primary 'Journal of Solid State Chemistry' 2007 180 3381 3387 JSSCBI
loop_
_publ_author_name
'Yuan Jun Lin'
'Zhang Hui'
'Chen Hao Hong'
'Yang Xin Xin'
'Zhao Jing Tai'
'Gu Mu'
_cell_length_a 9.0277(1)
_cell_length_b 5.3629(1)
_cell_length_c 12.7710(1)
_cell_angle_alpha 90.
_cell_angle_beta 103.36(0)
_cell_angle_gamma 90.
_cell_volume 601.57
_cell_formula_units_Z 4
_symmetry_space_group_name_H-M 'P 1 21/n 1'
_symmetry_Int_Tables_number 14
_refine_ls_R_factor_all 0.0255
loop_
_symmetry_equiv_pos_site_id
_symmetry_equiv_pos_as_xyz
1 '-x+1/2, y+1/2, -z+1/2'
2 '-x, -y, -z'
3 'x+1/2, -y+1/2, z+1/2'
4 'x, y, z'
loop_
_atom_type_symbol
_atom_type_oxidation_number
Na1+ 1
Lu3+ 3
P5+ 5
O2- -2
loop_
_atom_site_label
_atom_site_type_symbol
_atom_site_symmetry_multiplicity
_atom_site_Wyckoff_symbol
_atom_site_fract_x
_atom_site_fract_y
_atom_site_fract_z
_atom_site_B_iso_or_equiv
_atom_site_occupancy
_atom_site_attached_hydrogens
Na1 Na1+ 4 e 0.6378(8) 0.228(3) 0.1920(6) 0.027(3) 1. 0
Lu1 Lu3+ 4 e 0.77057(14) 0.7629(4) 0.02406(9) 0.0086(2) 1. 0
P1 P5+ 4 e 0.9739(6) 0.251(3) 0.1535(4) 0.0104(17) 1. 0
P2 P5+ 4 e 0.5670(7) 0.285(2) 0.8816(5) 0.015(2) 1. 0
O1 O2- 4 e 0.0614(13) 0.272(5) 0.0668(10) 0.013(4) 1. 0
O2 O2- 4 e 0.896(2) -0.001(4) 0.1622(14) 0.008(6) 1. 0
O3 O2- 4 e 0.8635(20) 0.466(4) 0.1491(14) 0.012(6) 1. 0
O4 O2- 4 e 0.1009(11) 0.269(4) 0.2679(9) 0.011(4) 1. 0
O5 O2- 4 e 0.6771(14) 0.123(2) 0.9531(12) 0.009(5) 1. 0
O6 O2- 4 e 0.4066(13) 0.212(4) 0.8754(8) 0.007(5) 1. 0
O7 O2- 4 e 0.5992(16) 0.544(3) 0.9092(12) 0.017(5) 1. 0
#End of TTdata_160189-ICSD