
#(C) 2019 by FIZ Karlsruhe - Leibniz Institute for Information Infrastructure.  All rights reserved.
data_160304-ICSD
_database_code_ICSD 160304
_audit_creation_date 2008-08-01
_chemical_name_systematic 'Sodium potassium zinc diphosphate(V)'
_chemical_formula_structural 'Na K Zn (P2 O7)'
_chemical_formula_sum 'K1 Na1 O7 P2 Zn1'
_exptl_crystal_density_diffrn 2.94
_cell_measurement_temperature 293.
_publ_section_title
'Crystal structure of sodium potassium zinc diphosphate Na K Zn P2 O7'
loop_
_citation_id
_citation_journal_full
_citation_year
_citation_journal_volume
_citation_page_first
_citation_page_last
_citation_journal_id_ASTM
primary 'Zhurnal Strukturnoi Khimii' 2006 47 1110 1114 ZSTKAI
loop_
_publ_author_name
'Shepelev, Yu.F.'
'Lapshin, A.E.'
'Petrova, M.A.'
_cell_length_a 12.585(5)
_cell_length_b 7.277(5)
_cell_length_c 7.428(5)
_cell_angle_alpha 90.
_cell_angle_beta 90.00(5)
_cell_angle_gamma 90.
_cell_volume 680.26
_cell_formula_units_Z 4
_symmetry_space_group_name_H-M 'P 1 21/n 1'
_symmetry_Int_Tables_number 14
_refine_ls_R_factor_all 0.0461
loop_
_symmetry_equiv_pos_site_id
_symmetry_equiv_pos_as_xyz
1 '-x+1/2, y+1/2, -z+1/2'
2 '-x, -y, -z'
3 'x+1/2, -y+1/2, z+1/2'
4 'x, y, z'
loop_
_atom_type_symbol
_atom_type_oxidation_number
Zn2+ 2
K1+ 1
P5+ 5
Na1+ 1
O2- -2
loop_
_atom_site_label
_atom_site_type_symbol
_atom_site_symmetry_multiplicity
_atom_site_Wyckoff_symbol
_atom_site_fract_x
_atom_site_fract_y
_atom_site_fract_z
_atom_site_B_iso_or_equiv
_atom_site_occupancy
_atom_site_attached_hydrogens
Zn1 Zn2+ 4 e 0.3789(1) 0.4801(1) 0.1696(1) 0.011(1) 1. 0
K1 K1+ 4 e 0.3970(1) 0.2085(2) 0.5991(2) 0.026(1) 1. 0
P1 P5+ 4 e 0.4004(1) 0.7145(2) 0.8254(2) 0.010(1) 1. 0
P2 P5+ 4 e 0.2963(1) 0.7181(2) 0.4760(2) 0.010(1) 1. 0
Na1 Na1+ 4 e 0.6120(1) 0.0230(3) 0.8711(3) 0.015(1) 1. 0
O1 O2- 4 e 0.4485(3) 0.9020(5) 0.8138(5) 0.019(1) 1. 0
O2 O2- 4 e 0.3494(3) 0.6830(4) 0.0094(5) 0.016(1) 1. 0
O3 O2- 4 e 0.4730(3) 0.5558(5) 0.7704(5) 0.019(1) 1. 0
O4 O2- 4 e 0.2996(2) 0.7038(4) 0.6922(5) 0.012(1) 1. 0
O5 O2- 4 e 0.3752(3) 0.8589(5) 0.4136(5) 0.017(1) 1. 0
O6 O2- 4 e 0.1802(2) 0.7635(4) 0.4412(5) 0.016(1) 1. 0
O7 O2- 4 e 0.3173(3) 0.5234(5) 0.4065(4) 0.016(1) 1. 0
#End of TTdata_160304-ICSD