
#(C) 2019 by FIZ Karlsruhe - Leibniz Institute for Information Infrastructure.  All rights reserved.
data_160430-ICSD
_database_code_ICSD 160430
_audit_creation_date 2008-08-01
_chemical_name_systematic
'Tripotassium tetrasodium tris(hexafluorosilicate) tetrafluoroborate'
_chemical_formula_structural 'K3 Na4 (Si F6)3 (B F4)'
_chemical_formula_sum 'B1 F22 K3 Na4 Si3'
_chemical_name_mineral Knasibfite
_exptl_crystal_density_diffrn 2.77
_publ_section_title

;
Knasibfite, K3 Na4 (Si F6)3 (B F4), a new hexafluorosilicate -
tetrafluoroborate from La Fossa crater, Vulcano, Aeolian Islands, Italy
;
loop_
_citation_id
_citation_journal_full
_citation_year
_citation_journal_volume
_citation_page_first
_citation_page_last
_citation_journal_id_ASTM
primary 'Canadian Mineralogist' 2008 46 447 453 CAMIA6
loop_
_publ_author_name
'Demartin, F.'
'Gramaccioli, C.M.'
'Campostrini, I.'
'Orlandi, P.'
_cell_length_a 5.522(1)
_cell_length_b 17.106(3)
_cell_length_c 9.175(2)
_cell_angle_alpha 90.
_cell_angle_beta 90.
_cell_angle_gamma 90.
_cell_volume 866.66
_cell_formula_units_Z 2
_symmetry_space_group_name_H-M 'I m m 2'
_symmetry_Int_Tables_number 44
_refine_ls_R_factor_all 0.0272
loop_
_symmetry_equiv_pos_site_id
_symmetry_equiv_pos_as_xyz
1 'x, -y, z'
2 '-x, y, z'
3 '-x, -y, z'
4 'x, y, z'
5 'x+1/2, -y+1/2, z+1/2'
6 '-x+1/2, y+1/2, z+1/2'
7 '-x+1/2, -y+1/2, z+1/2'
8 'x+1/2, y+1/2, z+1/2'
loop_
_atom_type_symbol
_atom_type_oxidation_number
K1+ 1
Na1+ 1
Si4+ 4
F1- -1
B3+ 3
loop_
_atom_site_label
_atom_site_type_symbol
_atom_site_symmetry_multiplicity
_atom_site_Wyckoff_symbol
_atom_site_fract_x
_atom_site_fract_y
_atom_site_fract_z
_atom_site_B_iso_or_equiv
_atom_site_occupancy
_atom_site_attached_hydrogens
K1 K1+ 4 d 0.5 0.37387(8) 0.2826(2) 0.0353(4) 1. 0
K2 K1+ 2 b 0.5 0 0.4448(2) 0.0266(5) 1. 0
Na1 Na1+ 4 d 0 0.1714(1) 0.3514(3) 0.0333(7) 1. 0
Na2 Na1+ 4 d 0 0.3583(1) 0.6039(3) 0.0226(6) 1. 0
Si1 Si4+ 2 a 0 0 0.2030(3) 0.0187(6) 1. 0
Si2 Si4+ 4 d 0.5 0.2142(1) 0.5193(2) 0.0192(4) 1. 0
F1 F1- 2 a 0 0 0.3864(5) 0.0334(14) 1. 0
F2 F1- 2 a 0 0 0.0242(6) 0.0393(14) 1. 0
F3 F1- 8 e -0.2144(5) 0.0697(13) 0.2094(3) 0.0368(7) 1. 0
F4 F1- 4 d 0.5 0.2254(2) 0.6987(4) 0.0473(11) 1. 0
F5 F1- 4 d 0.5 0.2038(2) 0.3369(4) 0.0328(11) 1. 0
F6 F1- 8 e 0.7156(4) 0.14567(14) 0.5318(3) 0.0350(7) 1. 0
F7 F1- 8 e 0.2853(5) 0.28234(14) 0.5000(3) 0.0423(9) 1. 0
F8 F1- 4 c 0.2043(6) 0.5 0.2255(4) 0.0314(9) 1. 0
F9 F1- 4 d 0 0.4332(2) 0.3987(4) 0.0412(11) 1. 0
B1 B3+ 2 b 0 0.5 0.3131(11) 0.0260(30) 1. 0
loop_
_atom_site_aniso_label
_atom_site_aniso_type_symbol
_atom_site_aniso_U_11
_atom_site_aniso_U_22
_atom_site_aniso_U_33
_atom_site_aniso_U_12
_atom_site_aniso_U_13
_atom_site_aniso_U_23
K1 K1+ 0.0399(10) 0.0283(8) 0.0376(9) 0. 0. 0.0088(8)
K2 K1+ 0.0273(12) 0.0242(11) 0.0282(12) 0. 0. 0.
Na1 Na1+ 0.0375(16) 0.0319(16) 0.0304(14) 0. 0. 0.0011(14)
Na2 Na1+ 0.0247(13) 0.0195(12) 0.0235(14) 0. 0. -0.0036(11)
Si1 Si4+ 0.0172(14) 0.0147(13) 0.0242(15) 0. 0. 0.
Si2 Si4+ 0.0192(10) 0.0182(10) 0.0201(10) 0. 0. -0.0015(6)
F1 F1- 0.027(3) 0.050(4) 0.023(3) 0. 0. 0.
F2 F1- 0.038(3) 0.057(4) 0.023(3) 0. 0. 0.
F3 F1- 0.0312(17) 0.0285(15) 0.0507(19) 0.0153(12) -0.0014(13) 0.0035(16)
F4 F1- 0.079(3) 0.044(2) 0.019(2) 0. 0. -0.009(2)
F5 F1- 0.048(3) 0.028(2) 0.023(2) 0. 0. -0.005(2)
F6 F1- 0.0299(16) 0.0298(15) 0.0455(17) 0.0131(12) 0.0043(14) 0.0063(15)
F7 F1- 0.0410(18) 0.0359(17) 0.050(2) 0.0183(14) 0.0111(14) 0.0064(16)
F8 F1- 0.027(2) 0.032(2) 0.035(2) 0. 0.0042(18) 0.
F9 F1- 0.053(3) 0.034(2) 0.036(3) 0. 0. 0.016(2)
B1 B3+ 0.030(6) 0.022(6) 0.025(7) 0. 0. 0.
#End of TTdata_160430-ICSD