
#(C) 2019 by FIZ Karlsruhe - Leibniz Institute for Information Infrastructure.  All rights reserved.
data_160608-ICSD
_database_code_ICSD 160608
_audit_creation_date 2009-02-01
_audit_update_record 2012-02-01
_chemical_name_systematic 'Lithium disodium triamide'
_chemical_formula_structural 'Li Na2 (N H2)3'
_chemical_formula_sum 'H6 Li1 N3 Na2'
_chemical_name_structure_type LiK2(NH2)3
_exptl_crystal_density_diffrn 1.52
_publ_section_title
'The synthesis and structural investigation of mixed lithium/sodium amides'
loop_
_citation_id
_citation_journal_full
_citation_year
_citation_journal_volume
_citation_page_first
_citation_page_last
_citation_journal_id_ASTM
primary 'Journal of Materials Chemistry' 2008 18 2355 2360 JMACEP
loop_
_publ_author_name
'Lowton, R.L.'
'Jones, M.O.'
'David, W.I.F.'
'Johnson, S.R.'
'Sommariva, M.'
'Edwards, P.P.'
_cell_length_a 6.2838(1)
_cell_length_b 6.2838(1)
_cell_length_c 11.1485(2)
_cell_angle_alpha 90.
_cell_angle_beta 90.
_cell_angle_gamma 90.
_cell_volume 440.21
_cell_formula_units_Z 4
_symmetry_space_group_name_H-M 'P 42/m'
_symmetry_Int_Tables_number 84
loop_
_symmetry_equiv_pos_site_id
_symmetry_equiv_pos_as_xyz
1 '-y, x, -z+1/2'
2 'y, -x, -z+1/2'
3 'x, y, -z'
4 '-x, -y, -z'
5 'y, -x, z+1/2'
6 '-y, x, z+1/2'
7 '-x, -y, z'
8 'x, y, z'
loop_
_atom_type_symbol
_atom_type_oxidation_number
Na1+ 1
Li1+ 1
N3- -3
H1+ 1
loop_
_atom_site_label
_atom_site_type_symbol
_atom_site_symmetry_multiplicity
_atom_site_Wyckoff_symbol
_atom_site_fract_x
_atom_site_fract_y
_atom_site_fract_z
_atom_site_B_iso_or_equiv
_atom_site_occupancy
_atom_site_attached_hydrogens
Na1 Na1+ 4 i 0.5 0 0.14216 2. 1. 0
Na2 Na1+ 2 a 0 0 0 2. 1. 0
Na3 Na1+ 2 f 0.5 0.5 0.25 2. 1. 0
Li1 Li1+ 4 j 0.35356 0.36094 0 2. 1. 0
N1 N3- 4 j 0.66317 0.27595 0 2. 1. 0
N2 N3- 8 k 0.20732 0.27336 0.15765 2. 1. 0
H1 H1+ 8 k 0.73697 0.29827 0.056 2. 1. 0
H2 H1+ 8 k 0.16362 0.18116 0.21186 2. 1. 0
H3 H1+ 8 k 0.10362 0.32316 0.14126 2. 1. 0
#End of TTdata_160608-ICSD