
#(C) 2019 by FIZ Karlsruhe - Leibniz Institute for Information Infrastructure.  All rights reserved.
data_160818-ICSD
_database_code_ICSD 160818
_audit_creation_date 2009-02-01
_chemical_name_systematic 'Disodium diberyllohexasilicate hydrate'
_chemical_formula_structural 'Na2 Be2 (Si6 O15) (H2 O)'
_chemical_formula_sum 'H2 Be2 Na2 O16 Si6'
_chemical_name_mineral Eudidymite
_exptl_crystal_density_diffrn 2.57
_cell_measurement_temperature 293.
_publ_section_title

;
New insights into the crystal chemistry of epididymite and eudidymite from
Malosa, Malawi: a single-crystal neutron diffraction study
;
loop_
_citation_id
_citation_journal_full
_citation_year
_citation_journal_volume
_citation_page_first
_citation_page_last
_citation_journal_id_ASTM
primary 'American Mineralogist' 2008 93 1158 1165 AMMIAY
loop_
_publ_author_name
'Gatta, G.D.'
'Rotiroti, N.'
'McIntyre, G.J.'
'Guastoni, A.'
'Nestola, F.'
_cell_length_a 12.6188(10)
_cell_length_b 7.3781(5)
_cell_length_c 13.9940(9)
_cell_angle_alpha 90.
_cell_angle_beta 103.762(5)
_cell_angle_gamma 90.
_cell_volume 1265.48
_cell_formula_units_Z 4
_symmetry_space_group_name_H-M 'C 1 2/c 1'
_symmetry_Int_Tables_number 15
_refine_ls_R_factor_all 0.0478
loop_
_symmetry_equiv_pos_site_id
_symmetry_equiv_pos_as_xyz
1 'x, -y, z+1/2'
2 '-x, -y, -z'
3 '-x, y, -z+1/2'
4 'x, y, z'
5 'x+1/2, -y+1/2, z+1/2'
6 '-x+1/2, -y+1/2, -z'
7 '-x+1/2, y+1/2, -z+1/2'
8 'x+1/2, y+1/2, z'
loop_
_atom_type_symbol
_atom_type_oxidation_number
Na1+ 1
Be2+ 2
Si4+ 4
O2- -2
H1+ 1
loop_
_atom_site_label
_atom_site_type_symbol
_atom_site_symmetry_multiplicity
_atom_site_Wyckoff_symbol
_atom_site_fract_x
_atom_site_fract_y
_atom_site_fract_z
_atom_site_B_iso_or_equiv
_atom_site_occupancy
_atom_site_attached_hydrogens
Na1 Na1+ 8 f 0.02899(15) 0.34078(26) 0.92853(13) 0.0260(4) 1. 0
Be1 Be2+ 8 f 0.16817(5) 0.32317(7) 0.49710(4) 0.0067(1) 1. 0
Si1 Si4+ 8 f 0.20415(8) 0.01965(13) 0.64127(7) 0.0045(2) 1. 0
Si2 Si4+ 8 f 0.25166(8) 0.10250(13) 0.86648(7) 0.0050(2) 1. 0
Si3 Si4+ 8 f 0.02964(8) 0.09397(13) 0.36195(7) 0.0050(2) 1. 0
O1 O2- 8 f 0.07277(6) 0.03247(11) 0.62614(6) 0.0108(2) 1. 0
O2 O2- 8 f 0.24036(7) 0.18030(11) 0.11540(6) 0.0127(2) 1. 0
O3 O2- 8 f 0.24045(6) 0.16471(10) 0.57054(5) 0.0073(1) 1. 0
O4 O2- 8 f 0.23677(7) 0.43859(12) 0.24484(6) 0.0122(2) 1. 0
O5 O2- 8 f 0.15480(6) 0.49864(10) 0.05623(6) 0.0087(1) 1. 0
O6 O2- 8 f 0.12854(7) 0.05189(11) 0.87541(6) 0.0103(1) 1. 0
O7 O2- 4 e 0 0.17321(16) 0.25 0.0109(2) 1. 0
O8 O2- 8 f 0.05237(6) 0.25694(11) 0.43729(6) 0.0092(1) 1. 0
O9 O2- 8 f 0.01209(19) 0.43098(26) 0.74466(21) 0.0241(4) 0.5 0
H1 H1+ 8 f 0.0840(5) 0.4645(11) 0.7449(4) 0.059(2) 0.5 0
H2 H1+ 8 f -0.02277(5) 0.5419(7) 0.7486(6) 0.054(2) 0.5 0
loop_
_atom_site_aniso_label
_atom_site_aniso_type_symbol
_atom_site_aniso_U_11
_atom_site_aniso_U_22
_atom_site_aniso_U_33
_atom_site_aniso_U_12
_atom_site_aniso_U_13
_atom_site_aniso_U_23
Na1 Na1+ 0.0256(7) 0.0299(8) 0.0241(7) -0.0102(6) 0.0089(6) -0.0089(6)
Be1 Be2+ 0.0068(2) 0.0058(2) 0.0073(2) 0.00050(2) 0.0015(2) -0.0005(2)
Si1 Si4+ 0.0068(4) 0.0026(3) 0.0047(3) -0.0004(3) 0.0024(3) 0.0012(3)
Si2 Si4+ 0.0058(4) 0.0037(3) 0.0051(3) -0.0010(3) 0.0005(3) 0.0010(3)
Si3 Si4+ 0.0042(4) 0.0062(4) 0.0044(3) -0.0011(3) 0.0007(3) -0.0006(3)
O1 O2- 0.0073(3) 0.0108(3) 0.0148(3) -0.0022(2) 0.0038(2) 0.0019(3)
O2 O2- 0.0191(3) 0.0038(3) 0.0159(3) -0.0023(3) 0.0055(3) -0.0004(2)
O3 O2- 0.0087(3) 0.0063(3) 0.0076(3) 0.0004(2) 0.0034(2) 0.0030(2)
O4 O2- 0.0149(3) 0.0167(3) 0.0051(3) -0.0009(3) 0.0028(2) -0.0022(2)
O5 O2- 0.0083(3) 0.0079(3) 0.0088(3) -0.0011(2) 0.0001(2) 0.0032(2)
O6 O2- 0.0080(3) 0.0092(3) 0.0138(3) -0.0029(2) 0.0030(2) 0.0010(2)
O7 O2- 0.0169(5) 0.0089(4) 0.0064(4) 0. 0.0016(4) 0.
O8 O2- 0.0073(3) 0.0108(3) 0.0088(3) -0.0003(2) 0.0004(2) -0.0039(2)
H1 H1+ 0.042(2) 0.083(4) 0.050(3) -0.018(3) 0.007(2) -0.001(3)
H2 H1+ 0.064(5) 0.043(2) 0.055(2) 0.020(2) 0.016(4) 0.004(3)
#End of TTdata_160818-ICSD