
#(C) 2019 by FIZ Karlsruhe - Leibniz Institute for Information Infrastructure.  All rights reserved.
data_160821-ICSD
_database_code_ICSD 160821
_audit_creation_date 2009-02-01
_audit_update_record 2013-08-01
_chemical_name_systematic 'Disodium dialumotrisilicate - alpha2'
_chemical_formula_structural 'Na2 (Al2 Si3 O10)'
_chemical_formula_sum 'Al2 Na2 O10 Si3'
_chemical_name_structure_type Natrolite-frame
_chemical_name_mineral Metanatrolite
_exptl_crystal_density_diffrn 2.25
_cell_measurement_temperature 673.
_publ_section_title
'A P(H2 O)-dependent structural phase transition in zeolite natrolite'
loop_
_citation_id
_citation_journal_full
_citation_year
_citation_journal_volume
_citation_page_first
_citation_page_last
_citation_journal_id_ASTM
primary 'American Mineralogist' 2008 93 1191 1194 AMMIAY
loop_
_publ_author_name
'Wang Hsiu Wen'
'Bish, D.L.'
_cell_length_a 17.574(1)
_cell_length_b 18.161(1)
_cell_length_c 6.3674(3)
_cell_angle_alpha 90.
_cell_angle_beta 90.
_cell_angle_gamma 90.
_cell_volume 2032.23
_cell_formula_units_Z 8
_symmetry_space_group_name_H-M 'F d d 2'
_symmetry_Int_Tables_number 43
loop_
_symmetry_equiv_pos_site_id
_symmetry_equiv_pos_as_xyz
1 'x+1/4, -y+1/4, z+1/4'
2 '-x+1/4, y+1/4, z+1/4'
3 '-x, -y, z'
4 'x, y, z'
5 'x+1/4, -y+3/4, z+3/4'
6 '-x+1/4, y+3/4, z+3/4'
7 '-x, -y+1/2, z+1/2'
8 'x, y+1/2, z+1/2'
9 'x+3/4, -y+1/4, z+3/4'
10 '-x+3/4, y+1/4, z+3/4'
11 '-x+1/2, -y, z+1/2'
12 'x+1/2, y, z+1/2'
13 'x+3/4, -y+3/4, z+1/4'
14 '-x+3/4, y+3/4, z+1/4'
15 '-x+1/2, -y+1/2, z'
16 'x+1/2, y+1/2, z'
loop_
_atom_type_symbol
_atom_type_oxidation_number
Si4+ 4
Al3+ 3
O2- -2
Na1+ 1
loop_
_atom_site_label
_atom_site_type_symbol
_atom_site_symmetry_multiplicity
_atom_site_Wyckoff_symbol
_atom_site_fract_x
_atom_site_fract_y
_atom_site_fract_z
_atom_site_B_iso_or_equiv
_atom_site_occupancy
_atom_site_attached_hydrogens
Si1 Si4+ 8 a 0 0 0 0.009(1) 1. 0
Si2 Si4+ 16 b 0.1448(3) 0.2189(3) 0.623(1) 0.009(1) 1. 0
Al1 Al3+ 16 b 0.0339(3) 0.0990(3) 0.606(1) 0.009(1) 1. 0
O1 O2- 16 b 0.0325(5) 0.0673(3) 0.861(1) 0.020(2) 1. 0
O2 O2- 16 b 0.0572(3) 0.1920(3) 0.611(2) 0.020(2) 1. 0
O3 O2- 16 b 0.1020(4) 0.0513(3) 0.468(2) 0.020(2) 1. 0
O4 O2- 16 b 0.1939(4) 0.1602(4) 0.757(1) 0.020(2) 1. 0
O5 O2- 16 b 0.1798(2) 0.2204(4) 0.389(1) 0.020(2) 1. 0
Na1 Na1+ 16 b 0.005(1) 0.148(1) 0.742(6) 0.051(2) 0.41(1) 0
Na2 Na1+ 16 b 0.207(2) 0.051(2) 0.264(8) 0.051(2) 0.59(1) 0
#End of TTdata_160821-ICSD