
#(C) 2019 by FIZ Karlsruhe - Leibniz Institute for Information Infrastructure.  All rights reserved.
data_160820-ICSD
_database_code_ICSD 160820
_audit_creation_date 2009-02-01
_chemical_name_systematic 'Disodium dialumotrisilicate - alpha1'
_chemical_formula_structural 'Na2 (Al2 Si3 O10)'
_chemical_formula_sum 'Al2 Na2 O10 Si3'
_chemical_name_mineral Metanatrolite
_exptl_crystal_density_diffrn 2.59
_cell_measurement_temperature 673.
_publ_section_title
'A P(H2 O)-dependent structural phase transition in zeolite natrolite'
loop_
_citation_id
_citation_journal_full
_citation_year
_citation_journal_volume
_citation_page_first
_citation_page_last
_citation_journal_id_ASTM
primary 'American Mineralogist' 2008 93 1191 1194 AMMIAY
loop_
_publ_author_name
'Wang Hsiu Wen'
'Bish, D.L.'
_cell_length_a 16.167(1)
_cell_length_b 16.938(1)
_cell_length_c 6.4380(4)
_cell_angle_alpha 90.
_cell_angle_beta 90.
_cell_angle_gamma 89.680(2)
_cell_volume 1762.93
_cell_formula_units_Z 8
_symmetry_space_group_name_H-M 'F 1 1 2'
_symmetry_Int_Tables_number 5
loop_
_symmetry_equiv_pos_site_id
_symmetry_equiv_pos_as_xyz
1 '-x, -y, z'
2 'x, y, z'
3 '-x, -y+1/2, z+1/2'
4 'x, y+1/2, z+1/2'
5 '-x+1/2, -y, z+1/2'
6 'x+1/2, y, z+1/2'
7 '-x+1/2, -y+1/2, z'
8 'x+1/2, y+1/2, z'
loop_
_atom_type_symbol
_atom_type_oxidation_number
Si4+ 4
Al3+ 3
O2- -2
Na1+ 1
loop_
_atom_site_label
_atom_site_type_symbol
_atom_site_symmetry_multiplicity
_atom_site_Wyckoff_symbol
_atom_site_fract_x
_atom_site_fract_y
_atom_site_fract_z
_atom_site_B_iso_or_equiv
_atom_site_occupancy
_atom_site_attached_hydrogens
Si1 Si4+ 4 a 0 0 0 0.009(1) 1. 0
Si2 Si4+ 4 b 0.25 0.25 0.25 0.009(1) 1. 0
Si3 Si4+ 8 c 0.1356(3) 0.2335(3) 0.619(1) 0.009(1) 1. 0
Si4 Si4+ 8 c 0.1122(3) -0.0197(3) 0.370(1) 0.009(1) 1. 0
Al1 Al3+ 8 c 0.0246(3) 0.1066(2) 0.615(1) 0.009(1) 1. 0
Al2 Al3+ 8 c 0.2685(3) 0.1398(2) 0.863(1) 0.009(1) 1. 0
O1 O2- 8 c 0.0420(3) 0.0674(3) 0.860(1) 0.020(2) 1. 0
O2 O2- 8 c 0.2417(4) 0.1716(2) 0.112(1) 0.020(2) 1. 0
O3 O2- 8 c 0.0390(3) 0.2078(2) 0.614(1) 0.020(2) 1. 0
O4 O2- 8 c 0.2096(3) -0.0400(3) 0.359(1) 0.020(2) 1. 0
O5 O2- 8 c 0.0950(4) 0.0686(3) 0.437(1) 0.020(2) 1. 0
O6 O2- 8 c 0.1476(4) 0.3044(4) 0.781(1) 0.020(2) 1. 0
O7 O2- 8 c 0.0736(3) -0.0785(3) 0.543(1) 0.020(2) 1. 0
O8 O2- 8 c 0.1874(4) 0.1570(3) 0.693(1) 0.020(2) 1. 0
O9 O2- 8 c 0.0707(3) -0.0381(4) 0.146(1) 0.020(2) 1. 0
O10 O2- 8 c 0.1682(2) 0.2584(4) 0.393(1) 0.020(2) 1. 0
Na1 Na1+ 8 c 0.0683(5) 0.1911(4) 0.149(3) 0.051(2) 1. 0
Na2 Na1+ 8 c 0.2912(6) 0.0793(4) 0.403(3) 0.051(2) 1. 0
#End of TTdata_160820-ICSD