
#(C) 2019 by FIZ Karlsruhe - Leibniz Institute for Information Infrastructure.  All rights reserved.
data_160812-ICSD
_database_code_ICSD 160812
_audit_creation_date 2009-02-01
_chemical_name_systematic 'Sodium aluminium silicon oxide (7.85/7.85/8.15/32)'
_chemical_formula_structural 'Na7.85 (Al7.85 Si8.15 O32)'
_chemical_formula_sum 'Al7.85 Na7.85 O32 Si8.15'
_chemical_name_mineral Trinepheline
_exptl_crystal_density_diffrn 2.62
_cell_measurement_temperature 302.
_publ_section_title

;
On the existance of a Na-deficient monoclinic trinepheline with composition
Na7.85 Al7.85 Si8.15 O32
;
loop_
_citation_id
_citation_journal_full
_citation_year
_citation_journal_volume
_citation_page_first
_citation_page_last
_citation_journal_id_ASTM
primary 'American Mineralogist' 2008 93 1072 1079 AMMIAY
loop_
_publ_author_name
'Vulic, P.'
'Kahlenberg, V.'
'Konzett, J.'
_cell_length_a 9.9897(6)
_cell_length_b 9.9622(6)
_cell_length_c 24.979(2)
_cell_angle_alpha 90.
_cell_angle_beta 90.
_cell_angle_gamma 119.788(4)
_cell_volume 2157.43
_cell_formula_units_Z 3
_symmetry_space_group_name_H-M 'P 1 1 21'
_symmetry_Int_Tables_number 4
_refine_ls_R_factor_all 0.028
loop_
_symmetry_equiv_pos_site_id
_symmetry_equiv_pos_as_xyz
1 '-x, -y, z+1/2'
2 'x, y, z'
loop_
_atom_type_symbol
_atom_type_oxidation_number
Si4+ 4
Al3+ 3
Si4+ 4
Al3+ 3
Si4+ 4
Al3+ 3
Si4+ 4
Al3+ 3
Si4+ 4
Al3+ 3
Si4+ 4
Al3+ 3
Si4+ 4
Al3+ 3
Si4+ 4
Al3+ 3
Si4+ 4
Al3+ 3
Si4+ 4
Al3+ 3
Si4+ 4
Al3+ 3
Si4+ 4
Al3+ 3
Si4+ 4
Na1+ 1
O2- -2
loop_
_atom_site_label
_atom_site_type_symbol
_atom_site_symmetry_multiplicity
_atom_site_Wyckoff_symbol
_atom_site_fract_x
_atom_site_fract_y
_atom_site_fract_z
_atom_site_B_iso_or_equiv
_atom_site_occupancy
_atom_site_attached_hydrogens
Si1 Si4+ 2 a 0.7561(2) 0.6722(2) 0.8687(1) 0.010(1) 1. 0
Si2 Si4+ 2 a 0.6497(2) 0.8996(2) 0.0344(1) 0.011(1) 1. 0
Si3 Si4+ 2 a 0.0981(1) 0.8031(1) 0.7077(1) 0.010(1) 1. 0
Si4 Si4+ 2 a 0.6691(1) 0.3381(1) 0.0377(1) 0.011(1) 1. 0
Si5 Si4+ 2 a 0.7044(1) 0.3494(1) 0.7006(1) 0.011(1) 1. 0
Si6 Si4+ 2 a 0.3173(2) 0.6453(2) 0.8739(1) 0.013(1) 1. 0
Si7 Si4+ 2 a 0.0836(1) 0.7548(1) 0.0342(1) 0.011(1) 1. 0
Si8 Si4+ 2 a 0.2349(1) 0.3209(1) 0.6990(1) 0.010(1) 1. 0
Si9 Si4+ 2 a 0.3337(2) 0.0967(1) 0.8691(1) 0.010(1) 1. 0
Si10 Si4+ 2 a 0.8853(1) 0.2266(1) 0.8617(1) 0.010(1) 1. 0
Si11 Si4+ 2 a 0.7915(1) 0.6932(1) 0.5333(1) 0.010(1) 1. 0
Si12 Si4+ 2 a 0.6318(1) 0.8752(1) 0.7000(1) 0.010(1) 1. 0
Al1 Al3+ 2 a 0.6539(2) 0.9027(2) 0.9106(1) 0.010(1) 0.9812 0
Si13 Si4+ 2 a 0.6539(2) 0.9027(2) 0.9106(1) 0.010(1) 0.0188 0
Al2 Al3+ 2 a 0.1137(2) 0.7767(2) 0.5822(1) 0.011(1) 0.9812 0
Si14 Si4+ 2 a 0.1137(2) 0.7767(2) 0.5822(1) 0.011(1) 0.0188 0
Al3 Al3+ 2 a 0.7631(2) 0.6809(2) 0.7456(1) 0.010(1) 0.9812 0
Si15 Si4+ 2 a 0.7631(2) 0.6809(2) 0.7456(1) 0.010(1) 0.0188 0
Al4 Al3+ 2 a 0.0846(2) 0.7536(2) 0.9080(1) 0.010(1) 0.9812 0
Si16 Si4+ 2 a 0.0846(2) 0.7536(2) 0.9080(1) 0.010(1) 0.0188 0
Al5 Al3+ 2 a 0.2458(2) 0.3301(2) 0.5749(1) 0.011(1) 0.9812 0
Si17 Si4+ 2 a 0.2458(2) 0.3301(2) 0.5749(1) 0.011(1) 0.0188 0
Al6 Al3+ 2 a 0.3704(2) 0.1290(1) 0.7440(1) 0.010(1) 0.9812 0
Si18 Si4+ 2 a 0.3704(2) 0.1290(1) 0.7440(1) 0.010(1) 0.0188 0
Al7 Al3+ 2 a 0.2082(2) 0.3054(2) 0.9106(1) 0.012(1) 0.9812 0
Si19 Si4+ 2 a 0.2082(2) 0.3054(2) 0.9106(1) 0.012(1) 0.0188 0
Al8 Al3+ 2 a 0.6702(2) 0.9054(2) 0.5741(1) 0.010(1) 0.9812 0
Si20 Si4+ 2 a 0.6702(2) 0.9054(2) 0.5741(1) 0.010(1) 0.0188 0
Al9 Al3+ 2 a 0.9000(2) 0.1992(1) 0.7366(1) 0.010(1) 0.9812 0
Si21 Si4+ 2 a 0.9000(2) 0.1992(1) 0.7366(1) 0.010(1) 0.0188 0
Al10 Al3+ 2 a 0.6708(2) 0.3424(2) 0.9092(1) 0.011(1) 0.9812 0
Si22 Si4+ 2 a 0.6708(2) 0.3424(2) 0.9092(1) 0.011(1) 0.0188 0
Al11 Al3+ 2 a 0.6874(2) 0.3575(2) 0.5707(1) 0.011(1) 0.9812 0
Si23 Si4+ 2 a 0.6874(2) 0.3575(2) 0.5707(1) 0.011(1) 0.0188 0
Al12 Al3+ 2 a 0.2970(2) 0.6550(2) 0.7435(1) 0.012(1) 0.9812 0
Si24 Si4+ 2 a 0.2970(2) 0.6550(2) 0.7435(1) 0.012(1) 0.0188 0
Na1 Na1+ 2 a 0.9921(1) 0.4366(1) 0.9717(1) 0.023(1) 1. 0
Na2 Na1+ 2 a 0.5617(3) 0.5500(3) 0.6300(1) 0.023(1) 1. 0
Na3 Na1+ 2 a 0.5459(3) 0.9763(3) 0.8033(1) 0.026(1) 1. 0
Na4 Na1+ 2 a 0.5302(1) 0.5497(1) 0.9730(1) 0.024(1) 1. 0
Na5 Na1+ 2 a 0.4511(3) 0.0147(3) 0.6410(1) 0.025(1) 1. 0
Na6 Na1+ 2 a 0.9594(3) 0.5273(3) 0.8031(1) 0.026(1) 1. 0
Na7 Na1+ 2 a 0.4411(3) 0.4527(2) 0.8149(1) 0.022(1) 1. 0
Na8 Na1+ 2 a 0.4298(1) 0.9931(1) 0.9722(1) 0.021(1) 1. 0
Na9 Na1+ 2 a 0.0353(3) 0.4702(3) 0.6401(1) 0.027(1) 1. 0
Na10 Na1+ 2 a 0.9637(3) 0.9596(3) 0.9723(2) 0.057(1) 0.852(5) 0
Na11 Na1+ 2 a 0.9828(6) 0.9842(5) 0.6433(2) 0.091(2) 1. 0
Na12 Na1+ 2 a 0.0431(4) 0.0355(4) 0.7974(2) 0.054(1) 0.923(5) 0
O1 O2- 2 a 0.6450(4) 0.4956(4) 0.8904(2) 0.020(1) 1. 0
O2 O2- 2 a 0.4706(4) 0.8168(4) 0.0524(2) 0.023(1) 1. 0
O3 O2- 2 a 0.1380(4) 0.6819(4) 0.7367(2) 0.018(1) 1. 0
O4 O2- 2 a 0.0509(4) 0.2701(5) 0.5761(2) 0.020(1) 1. 0
O5 O2- 2 a 0.3264(4) 0.2780(4) 0.7433(2) 0.016(1) 1. 0
O6 O2- 2 a 0.2198(5) 0.9464(4) 0.9038(2) 0.024(1) 1. 0
O7 O2- 2 a 0.9333(4) 0.7126(4) 0.8648(2) 0.017(1) 1. 0
O8 O2- 2 a 0.7122(4) 0.7785(4) 0.0315(2) 0.020(1) 1. 0
O9 O2- 2 a 0.2431(4) 0.9746(3) 0.7039(2) 0.015(1) 1. 0
O10 O2- 2 a 0.6978(4) 0.6869(4) 0.8096(1) 0.016(1) 1. 0
O11 O2- 2 a 0.6666(2) 0.9723(2) 0.9750(2) 0.019(1) 1. 0
O12 O2- 2 a 0.0408(4) 0.7450(4) 0.6471(1) 0.018(1) 1. 0
O13 O2- 2 a 0.9613(4) 0.2582(4) 0.8025(2) 0.018(1) 1. 0
O14 O2- 2 a 0.2391(2) 0.2594(2) 0.9741(2) 0.021(1) 1. 0
O15 O2- 2 a 0.6541(5) 0.9480(4) 0.6406(1) 0.019(1) 1. 0
O16 O2- 2 a 0.7409(5) 0.7882(4) 0.9107(2) 0.022(1) 1. 0
O17 O2- 2 a 0.2511(4) 0.9696(4) 0.5780(1) 0.019(1) 1. 0
O18 O2- 2 a 0.9604(3) 0.8118(3) 0.7393(2) 0.013(1) 1. 0
O19 O2- 2 a 0.3305(4) 0.5029(4) 0.9002(2) 0.019(1) 1. 0
O20 O2- 2 a 0.5086(4) 0.1771(4) 0.0441(2) 0.020(1) 1. 0
O21 O2- 2 a 0.8535(4) 0.3275(4) 0.7062(2) 0.020(1) 1. 0
O22 O2- 2 a 0.7786(4) 0.0673(4) 0.5367(2) 0.016(1) 1. 0
O23 O2- 2 a 0.0515(4) 0.1949(4) 0.7026(2) 0.018(1) 1. 0
O24 O2- 2 a 0.2563(5) 0.2063(4) 0.8644(2) 0.019(1) 1. 0
O25 O2- 2 a 0.0172(2) 0.7179(2) 0.9739(2) 0.023(1) 1. 0
O26 O2- 2 a 0.2993(4) 0.3136(4) 0.6399(1) 0.016(1) 1. 0
O27 O2- 2 a 0.3568(5) 0.0564(5) 0.8086(2) 0.023(1) 1. 0
O28 O2- 2 a 0.8565(4) 0.3644(4) 0.5501(2) 0.025(1) 1. 0
O29 O2- 2 a 0.2581(4) 0.4912(4) 0.7077(2) 0.022(1) 1. 0
O30 O2- 2 a 0.4973(4) 0.1766(4) 0.8995(2) 0.019(1) 1. 0
O31 O2- 2 a 0.8204(4) 0.3437(4) 0.8732(2) 0.019(1) 1. 0
O32 O2- 2 a 0.6726(4) 0.5094(4) 0.5425(2) 0.018(1) 1. 0
O33 O2- 2 a 0.4593(4) 0.8218(4) 0.7204(2) 0.020(1) 1. 0
O34 O2- 2 a 0.4626(4) 0.8076(5) 0.8920(2) 0.028(1) 1. 0
O35 O2- 2 a 0.8060(4) 0.3423(4) 0.0743(2) 0.017(1) 1. 0
O36 O2- 2 a 0.7285(4) 0.4934(4) 0.7375(2) 0.022(1) 1. 0
O37 O2- 2 a 0.7442(4) 0.0508(4) 0.8650(2) 0.018(1) 1. 0
O38 O2- 2 a 0.9654(4) 0.7277(4) 0.5363(2) 0.019(1) 1. 0
O39 O2- 2 a 0.6646(4) 0.7301(4) 0.6990(1) 0.013(1) 1. 0
O40 O2- 2 a 0.7232(2) 0.3582(2) 0.9759(2) 0.022(1) 1. 0
O41 O2- 2 a 0.6861(5) 0.3854(5) 0.6399(2) 0.029(1) 1. 0
O42 O2- 2 a 0.3231(6) 0.6273(6) 0.8106(2) 0.034(1) 1. 0
O43 O2- 2 a 0.0144(4) 0.2527(4) 0.9060(1) 0.016(1) 1. 0
O44 O2- 2 a 0.7580(4) 0.7915(4) 0.5780(1) 0.016(1) 1. 0
O45 O2- 2 a 0.7510(4) 0.0075(3) 0.7403(1) 0.014(1) 1. 0
O46 O2- 2 a 0.1571(4) 0.6340(4) 0.8917(2) 0.024(1) 1. 0
O47 O2- 2 a 0.3588(4) 0.5200(4) 0.5557(2) 0.021(1) 1. 0
O48 O2- 2 a 0.5536(4) 0.1915(4) 0.7193(2) 0.020(1) 1. 0
loop_
_atom_site_aniso_label
_atom_site_aniso_type_symbol
_atom_site_aniso_U_11
_atom_site_aniso_U_22
_atom_site_aniso_U_33
_atom_site_aniso_U_12
_atom_site_aniso_U_13
_atom_site_aniso_U_23
Si1 Si4+ 0.014(1) 0.012(1) 0.009(1) 0.009(1) 0.001(1) 0.000(1)
Si2 Si4+ 0.013(1) 0.009(1) 0.010(1) 0.005(1) -0.001(1) -0.001(1)
Si3 Si4+ 0.009(1) 0.009(1) 0.010(1) 0.004(1) -0.001(1) 0.000(1)
Si4 Si4+ 0.010(1) 0.009(1) 0.013(1) 0.004(1) -0.001(1) -0.001(1)
Si5 Si4+ 0.010(1) 0.010(1) 0.014(1) 0.005(1) 0.000(1) -0.001(1)
Si6 Si4+ 0.011(1) 0.011(1) 0.018(1) 0.007(1) -0.001(1) 0.001(1)
Si7 Si4+ 0.009(1) 0.011(1) 0.011(1) 0.005(1) -0.001(1) 0.000(1)
Si8 Si4+ 0.011(1) 0.011(1) 0.010(1) 0.007(1) 0.000(1) 0.000(1)
Si9 Si4+ 0.013(1) 0.009(1) 0.009(1) 0.006(1) -0.001(1) 0.000(1)
Si10 Si4+ 0.008(1) 0.009(1) 0.009(1) 0.002(1) 0.000(1) 0.000(1)
Si11 Si4+ 0.012(1) 0.012(1) 0.008(1) 0.007(1) -0.001(1) 0.000(1)
Si12 Si4+ 0.011(1) 0.010(1) 0.010(1) 0.005(1) -0.001(1) 0.000(1)
Al1 Al3+ 0.012(1) 0.009(1) 0.010(1) 0.006(1) 0.000(1) 0.000(1)
Si13 Si4+ 0.012(1) 0.009(1) 0.010(1) 0.006(1) 0.000(1) 0.000(1)
Al2 Al3+ 0.013(1) 0.012(1) 0.010(1) 0.007(1) 0.001(1) 0.000(1)
Si14 Si4+ 0.013(1) 0.012(1) 0.010(1) 0.007(1) 0.001(1) 0.000(1)
Al3 Al3+ 0.011(1) 0.011(1) 0.009(1) 0.006(1) 0.000(1) 0.000(1)
Si15 Si4+ 0.011(1) 0.011(1) 0.009(1) 0.006(1) 0.000(1) 0.000(1)
Al4 Al3+ 0.010(1) 0.009(1) 0.010(1) 0.004(1) -0.001(1) 0.000(1)
Si16 Si4+ 0.010(1) 0.009(1) 0.010(1) 0.004(1) -0.001(1) 0.000(1)
Al5 Al3+ 0.010(1) 0.011(1) 0.010(1) 0.005(1) 0.000(1) 0.000(1)
Si17 Si4+ 0.010(1) 0.011(1) 0.010(1) 0.005(1) 0.000(1) 0.000(1)
Al6 Al3+ 0.011(1) 0.012(1) 0.008(1) 0.006(1) 0.000(1) -0.001(1)
Si18 Si4+ 0.011(1) 0.012(1) 0.008(1) 0.006(1) 0.000(1) -0.001(1)
Al7 Al3+ 0.014(1) 0.014(1) 0.010(1) 0.008(1) 0.002(1) 0.000(1)
Si19 Si4+ 0.014(1) 0.014(1) 0.010(1) 0.008(1) 0.002(1) 0.000(1)
Al8 Al3+ 0.010(1) 0.010(1) 0.010(1) 0.004(1) 0.000(1) 0.000(1)
Si20 Si4+ 0.010(1) 0.010(1) 0.010(1) 0.004(1) 0.000(1) 0.000(1)
Al9 Al3+ 0.009(1) 0.009(1) 0.011(1) 0.004(1) 0.002(1) 0.001(1)
Si21 Si4+ 0.009(1) 0.009(1) 0.011(1) 0.004(1) 0.002(1) 0.001(1)
Al10 Al3+ 0.009(1) 0.011(1) 0.011(1) 0.005(1) 0.000(1) 0.001(1)
Si22 Si4+ 0.009(1) 0.011(1) 0.011(1) 0.005(1) 0.000(1) 0.001(1)
Al11 Al3+ 0.010(1) 0.011(1) 0.011(1) 0.004(1) -0.001(1) -0.001(1)
Si23 Si4+ 0.010(1) 0.011(1) 0.011(1) 0.004(1) -0.001(1) -0.001(1)
Al12 Al3+ 0.013(1) 0.012(1) 0.012(1) 0.008(1) -0.003(1) -0.001(1)
Si24 Si4+ 0.013(1) 0.012(1) 0.012(1) 0.008(1) -0.003(1) -0.001(1)
Na1 Na1+ 0.023(1) 0.023(1) 0.026(1) 0.014(1) 0.000(1) 0.000(1)
Na2 Na1+ 0.026(1) 0.024(1) 0.019(1) 0.011(1) -0.003(1) -0.007(1)
Na3 Na1+ 0.022(1) 0.038(1) 0.018(1) 0.016(1) -0.004(1) -0.007(1)
Na4 Na1+ 0.024(1) 0.028(1) 0.019(1) 0.012(1) -0.001(1) -0.003(1)
Na5 Na1+ 0.022(1) 0.040(1) 0.020(1) 0.020(1) -0.002(1) -0.002(1)
Na6 Na1+ 0.031(1) 0.024(1) 0.024(1) 0.015(1) 0.009(1) 0.012(1)
Na7 Na1+ 0.021(1) 0.014(1) 0.024(1) 0.004(1) 0.002(1) -0.002(1)
Na8 Na1+ 0.021(1) 0.027(1) 0.017(1) 0.013(1) -0.002(1) -0.001(1)
Na9 Na1+ 0.029(1) 0.023(1) 0.025(1) 0.010(1) 0.009(1) 0.003(1)
Na10 Na1+ 0.066(1) 0.067(1) 0.037(1) 0.032(1) 0.000(3) -0.002(2)
Na11 Na1+ 0.174(4) 0.095(3) 0.062(2) 0.111(3) -0.053(2) -0.051(2)
Na12 Na1+ 0.050(1) 0.074(2) 0.054(2) 0.043(1) -0.030(1) -0.036(2)
O1 O2- 0.018(2) 0.017(1) 0.029(2) 0.012(1) 0.005(1) 0.007(1)
O2 O2- 0.017(2) 0.014(2) 0.033(2) 0.005(1) 0.008(2) 0.004(1)
O3 O2- 0.008(1) 0.015(1) 0.032(2) 0.005(1) 0.001(1) 0.003(1)
O4 O2- 0.010(1) 0.028(2) 0.019(2) 0.007(1) 0.000(1) 0.005(1)
O5 O2- 0.022(2) 0.020(1) 0.013(1) 0.015(1) -0.003(1) -0.003(1)
O6 O2- 0.019(2) 0.016(1) 0.026(2) 0.001(1) 0.000(1) 0.000(1)
O7 O2- 0.017(1) 0.023(1) 0.013(1) 0.012(1) -0.002(1) -0.001(1)
O8 O2- 0.032(2) 0.023(1) 0.013(1) 0.021(1) 0.002(1) 0.004(1)
O9 O2- 0.012(1) 0.010(1) 0.019(2) 0.002(1) -0.003(1) 0.001(1)
O10 O2- 0.017(2) 0.025(2) 0.010(1) 0.014(1) -0.001(1) -0.001(1)
O11 O2- 0.034(1) 0.020(1) 0.012(1) 0.019(1) 0.000(2) -0.001(1)
O12 O2- 0.015(1) 0.020(2) 0.010(1) 0.001(1) 0.001(1) 0.000(1)
O13 O2- 0.015(1) 0.019(2) 0.012(1) 0.001(1) 0.000(1) -0.004(1)
O14 O2- 0.030(1) 0.035(1) 0.010(1) 0.025(1) -0.004(2) -0.003(2)
O15 O2- 0.033(2) 0.024(2) 0.008(1) 0.020(1) 0.004(1) 0.000(1)
O16 O2- 0.040(2) 0.033(2) 0.012(1) 0.032(2) -0.007(1) -0.005(1)
O17 O2- 0.022(2) 0.014(1) 0.013(1) 0.002(1) 0.000(1) 0.001(1)
O18 O2- 0.008(1) 0.010(1) 0.018(2) 0.002(1) 0.000(1) -0.001(1)
O19 O2- 0.008(1) 0.014(1) 0.033(2) 0.004(1) 0.002(1) 0.007(1)
O20 O2- 0.015(2) 0.016(2) 0.029(2) 0.008(1) 0.009(1) -0.001(1)
O21 O2- 0.016(1) 0.017(1) 0.030(2) 0.009(1) 0.006(1) 0.011(1)
O22 O2- 0.019(1) 0.010(1) 0.016(1) 0.004(1) 0.002(1) 0.002(1)
O23 O2- 0.014(1) 0.026(2) 0.015(2) 0.011(1) 0.003(1) -0.005(1)
O24 O2- 0.029(2) 0.022(2) 0.011(1) 0.017(1) 0.000(1) -0.001(1)
O25 O2- 0.017(1) 0.024(1) 0.012(1) -0.001(1) 0.004(2) 0.002(2)
O26 O2- 0.014(1) 0.022(2) 0.011(1) 0.009(1) 0.000(1) 0.001(1)
O27 O2- 0.047(2) 0.028(2) 0.011(1) 0.032(2) -0.002(1) 0.000(1)
O28 O2- 0.013(1) 0.017(2) 0.044(2) 0.007(1) 0.003(1) -0.001(2)
O29 O2- 0.029(2) 0.015(1) 0.024(2) 0.014(1) 0.001(1) -0.003(1)
O30 O2- 0.013(1) 0.014(1) 0.022(2) 0.001(1) -0.001(1) 0.004(1)
O31 O2- 0.016(1) 0.016(2) 0.024(2) 0.009(1) 0.004(1) 0.003(1)
O32 O2- 0.023(2) 0.014(1) 0.019(2) 0.011(1) -0.004(1) -0.002(1)
O33 O2- 0.010(1) 0.012(1) 0.034(2) 0.003(1) 0.001(1) -0.003(1)
O34 O2- 0.011(2) 0.018(2) 0.051(3) 0.005(1) -0.001(2) -0.004(2)
O35 O2- 0.018(1) 0.016(2) 0.022(2) 0.012(1) -0.006(1) -0.005(1)
O36 O2- 0.023(2) 0.011(1) 0.028(2) 0.006(1) -0.002(1) -0.001(1)
O37 O2- 0.022(2) 0.010(1) 0.014(1) 0.003(1) 0.001(1) 0.000(1)
O38 O2- 0.017(1) 0.026(2) 0.016(1) 0.011(1) -0.002(1) -0.003(1)
O39 O2- 0.016(1) 0.016(1) 0.009(1) 0.009(1) -0.005(1) -0.002(1)
O40 O2- 0.021(1) 0.023(1) 0.013(1) 0.005(1) -0.001(1) 0.000(1)
O41 O2- 0.040(2) 0.039(2) 0.016(2) 0.025(2) -0.005(1) -0.001(1)
O42 O2- 0.046(2) 0.063(3) 0.006(1) 0.036(2) -0.006(1) -0.002(1)
O43 O2- 0.009(1) 0.024(2) 0.012(1) 0.006(1) -0.002(1) 0.001(1)
O44 O2- 0.025(2) 0.021(2) 0.011(1) 0.019(1) -0.002(1) -0.001(1)
O45 O2- 0.016(1) 0.010(1) 0.011(1) 0.003(1) 0.001(1) 0.000(1)
O46 O2- 0.013(2) 0.012(2) 0.047(2) 0.006(1) 0.005(1) -0.002(1)
O47 O2- 0.013(2) 0.016(1) 0.032(2) 0.008(1) 0.004(1) 0.005(1)
O48 O2- 0.011(1) 0.011(1) 0.036(2) 0.005(1) 0.005(1) -0.003(1)
#End of TTdata_160812-ICSD