
#(C) 2019 by FIZ Karlsruhe - Leibniz Institute for Information Infrastructure.  All rights reserved.
data_161375-ICSD
_database_code_ICSD 161375
_audit_creation_date 2009-02-01
_chemical_name_systematic 'Sodium cobalt oxide (0.62/1/2) - P3'
_chemical_formula_structural 'Na0.62 (Co O2)'
_chemical_formula_sum 'Co1 Na0.62 O2'
_exptl_crystal_density_diffrn 4.58
_cell_measurement_temperature 393.
_publ_section_title

;
High-temperature phase transition in the three-layered sodium cobaltite
P'3-(Nax Co O2) (x = 0.62)
;
loop_
_citation_id
_citation_journal_full
_citation_year
_citation_journal_volume
_citation_page_first
_citation_page_last
_citation_journal_id_ASTM
primary 'Physical Review B: Condensed Matter and Materials Physics' 2008 77
184116-1 184116-8 PRBMDO
loop_
_publ_author_name
'Blangero, M.'
'Carlier, D.'
'Pollet, M.'
'Darriet, J.'
'Delmas, C.'
'Doumerc, J.P.'
_cell_length_a 2.8276(2)
_cell_length_b 2.8276(2)
_cell_length_c 16.518(3)
_cell_angle_alpha 90.
_cell_angle_beta 90.
_cell_angle_gamma 120.
_cell_volume 114.37
_cell_formula_units_Z 3
_symmetry_space_group_name_H-M 'R 3 m H'
_symmetry_Int_Tables_number 160
_refine_ls_R_factor_all 0.055
loop_
_symmetry_equiv_pos_site_id
_symmetry_equiv_pos_as_xyz
1 '-x+y, y, z'
2 'x, x-y, z'
3 '-y, -x, z'
4 '-x+y, -x, z'
5 '-y, x-y, z'
6 'x, y, z'
7 '-x+y+2/3, y+1/3, z+1/3'
8 'x+2/3, x-y+1/3, z+1/3'
9 '-y+2/3, -x+1/3, z+1/3'
10 '-x+y+2/3, -x+1/3, z+1/3'
11 '-y+2/3, x-y+1/3, z+1/3'
12 'x+2/3, y+1/3, z+1/3'
13 '-x+y+1/3, y+2/3, z+2/3'
14 'x+1/3, x-y+2/3, z+2/3'
15 '-y+1/3, -x+2/3, z+2/3'
16 '-x+y+1/3, -x+2/3, z+2/3'
17 '-y+1/3, x-y+2/3, z+2/3'
18 'x+1/3, y+2/3, z+2/3'
loop_
_atom_type_symbol
_atom_type_oxidation_number
Na1+ 1
Co3+ 3.38
O2- -2
loop_
_atom_site_label
_atom_site_type_symbol
_atom_site_symmetry_multiplicity
_atom_site_Wyckoff_symbol
_atom_site_fract_x
_atom_site_fract_y
_atom_site_fract_z
_atom_site_B_iso_or_equiv
_atom_site_occupancy
_atom_site_attached_hydrogens
Na1 Na1+ 3 a 0 0 0.8324(3) 0.030(3) 0.31 0
Na2 Na1+ 3 a 0.3333 0.6667 0.8343(3) 0.030(3) 0.31 0
Co1 Co3+ 3 a 0 0 0 0.008(4) 1. 0
O1 O2- 3 a 0 0 0.3901(6) 0.014(4) 1. 0
O2 O2- 3 a 0 0 0.6099(6) 0.014(4) 1. 0
#End of TTdata_161375-ICSD