
#(C) 2019 by FIZ Karlsruhe - Leibniz Institute for Information Infrastructure.  All rights reserved.
data_161374-ICSD
_database_code_ICSD 161374
_audit_creation_date 2009-02-01
_chemical_name_systematic 'Sodium cobalt oxide (0.62/1/2) - P'3'
_chemical_formula_structural 'Na0.62 (Co O2)'
_chemical_formula_sum 'Co1 Na0.62 O2'
_chemical_name_structure_type NaxCoO2(mS7)
_exptl_crystal_density_diffrn 4.59
_cell_measurement_temperature 300.
_publ_section_title

;
High-temperature phase transition in the three-layered sodium cobaltite
P'3-(Nax Co O2) (x = 0.62)
;
loop_
_citation_id
_citation_journal_full
_citation_year
_citation_journal_volume
_citation_page_first
_citation_page_last
_citation_journal_id_ASTM
primary 'Physical Review B: Condensed Matter and Materials Physics' 2008 77
184116-1 184116-8 PRBMDO
loop_
_publ_author_name
'Blangero, M.'
'Carlier, D.'
'Pollet, M.'
'Darriet, J.'
'Delmas, C.'
'Doumerc, J.P.'
_cell_length_a 4.8995(6)
_cell_length_b 2.8263(2)
_cell_length_c 5.7155(5)
_cell_angle_alpha 90.
_cell_angle_beta 106.069(6)
_cell_angle_gamma 90.
_cell_volume 76.05
_cell_formula_units_Z 2
_symmetry_space_group_name_H-M 'C 1 2/m 1'
_symmetry_Int_Tables_number 12
_refine_ls_R_factor_all 0.0571
loop_
_symmetry_equiv_pos_site_id
_symmetry_equiv_pos_as_xyz
1 '-x, y, -z'
2 '-x, -y, -z'
3 'x, -y, z'
4 'x, y, z'
5 '-x+1/2, y+1/2, -z'
6 '-x+1/2, -y+1/2, -z'
7 'x+1/2, -y+1/2, z'
8 'x+1/2, y+1/2, z'
loop_
_atom_type_symbol
_atom_type_oxidation_number
Na1+ 1
Co3+ 3.38
O2- -2
loop_
_atom_site_label
_atom_site_type_symbol
_atom_site_symmetry_multiplicity
_atom_site_Wyckoff_symbol
_atom_site_fract_x
_atom_site_fract_y
_atom_site_fract_z
_atom_site_B_iso_or_equiv
_atom_site_occupancy
_atom_site_attached_hydrogens
Na1 Na1+ 8 j 0.820(2) 0.098(5) 0.492(1) 0.0076(13) 0.155 0
Co1 Co3+ 2 a 0 0 0 0.009(4) 1. 0
O1 O2- 4 i 0.3892(6) 0 0.1791(4) 0.0076(6) 1. 0
#End of TTdata_161374-ICSD