
#(C) 2019 by FIZ Karlsruhe - Leibniz Institute for Information Infrastructure.  All rights reserved.
data_161317-ICSD
_database_code_ICSD 161317
_audit_creation_date 2009-02-01
_chemical_name_systematic 'Barium sodium titanate niobate (0.99/0.01/0.99/0.01)'
_chemical_formula_structural '(Ba0.985 Na0.015) ((Ti0.985 Nb0.015) O3)'
_chemical_formula_sum 'Ba0.985 Na0.015 Nb0.015 O3 Ti0.985'
_chemical_name_structure_type Perovskite-PbTiO3
_exptl_crystal_density_diffrn 5.98
_cell_measurement_temperature 295.
_publ_section_title

;
X-ray diffraction study of Ba0.985 Na0.015 Ti0.985 Nb0.015 O3, Ba0.6 Na0.4
Ti0.6 Nb0.4 O3 and Ba0.3 Na0.7 Ti0.3 Nb0.7 O3 compositions
;
loop_
_citation_id
_citation_journal_full
_citation_year
_citation_journal_volume
_citation_page_first
_citation_page_last
_citation_journal_id_ASTM
primary 'Journal of Alloys and Compounds' 2008 463 423 427 JALCEU
loop_
_publ_author_name
'Abdelkefi, H.'
'Khemakhem, H.'
'Simon, A.'
'Darriet, J.'
_cell_length_a 4.0047(2)
_cell_length_b 4.0047(2)
_cell_length_c 4.02214(6)
_cell_angle_alpha 90.
_cell_angle_beta 90.
_cell_angle_gamma 90.
_cell_volume 64.51
_cell_formula_units_Z 1
_symmetry_space_group_name_H-M 'P 4 m m'
_symmetry_Int_Tables_number 99
_refine_ls_R_factor_all 0.0067
loop_
_symmetry_equiv_pos_site_id
_symmetry_equiv_pos_as_xyz
1 'y, -x, z'
2 '-y, x, z'
3 '-y, -x, z'
4 'y, x, z'
5 'x, -y, z'
6 '-x, y, z'
7 '-x, -y, z'
8 'x, y, z'
loop_
_atom_type_symbol
_atom_type_oxidation_number
Ba2+ 2
Na1+ 1
Ti4+ 4
Nb5+ 5
O2- -2
loop_
_atom_site_label
_atom_site_type_symbol
_atom_site_symmetry_multiplicity
_atom_site_Wyckoff_symbol
_atom_site_fract_x
_atom_site_fract_y
_atom_site_fract_z
_atom_site_B_iso_or_equiv
_atom_site_occupancy
_atom_site_attached_hydrogens
Ba1 Ba2+ 1 a 0 0 0 0.00415(1) 0.985 0
Na1 Na1+ 1 a 0 0 0 0.00415(1) 0.015 0
Ti1 Ti4+ 1 b 0.5 0.5 0.4887(6) 0.00596(8) 0.985 0
Nb1 Nb5+ 1 b 0.5 0.5 0.4887(6) 0.00596(8) 0.015 0
O1 O2- 1 b 0.5 0.5 0.0209(4) 0.00680(1) 1. 0
O2 O2- 2 c 0 0.5 0.5288(3) 0.00322(1) 1. 0
#End of TTdata_161317-ICSD