
#(C) 2019 by FIZ Karlsruhe - Leibniz Institute for Information Infrastructure.  All rights reserved.
data_161735-ICSD
_database_code_ICSD 161735
_audit_creation_date 2009-02-01
_chemical_name_systematic
'Sodium selenato(IV)hydrogenselenato(IV)dioxouranate tetrahydrate'
_chemical_formula_structural 'Na ((U O2) (Se O3) (H Se O3)) (H2 O)4'
_chemical_formula_sum 'H9 Na1 O12 Se2 U1'
_exptl_crystal_density_diffrn 3.53
_cell_measurement_temperature 293.
_publ_section_title
'Synthesis and structure of Na (U O2 (Se O3) (H Se O3)) * 4(H2 O)'
loop_
_citation_id
_citation_journal_full
_citation_year
_citation_journal_volume
_citation_page_first
_citation_page_last
_citation_journal_id_ASTM
primary 'Zhurnal Neorganicheskoi Khimii' 2008 53 901 906 ZNOKAQ
loop_
_publ_author_name
'Marukhnov, A.V.'
'Pushkin, D.V.'
'Peresypkina, E.V.'
'Virovets, A.V.'
'Serezhkina, L.B.'
_cell_length_a 8.8032(5)
_cell_length_b 10.4610(7)
_cell_length_c 13.1312(7)
_cell_angle_alpha 90.
_cell_angle_beta 105.054(2)
_cell_angle_gamma 90.
_cell_volume 1167.76
_cell_formula_units_Z 4
_symmetry_space_group_name_H-M 'P 1 21/n 1'
_symmetry_Int_Tables_number 14
_refine_ls_R_factor_all 0.0394
loop_
_symmetry_equiv_pos_site_id
_symmetry_equiv_pos_as_xyz
1 '-x+1/2, y+1/2, -z+1/2'
2 '-x, -y, -z'
3 'x+1/2, -y+1/2, z+1/2'
4 'x, y, z'
loop_
_atom_type_symbol
_atom_type_oxidation_number
U6+ 6
Na1+ 1
Se4+ 4
O2- -2
H1+ 1
loop_
_atom_site_label
_atom_site_type_symbol
_atom_site_symmetry_multiplicity
_atom_site_Wyckoff_symbol
_atom_site_fract_x
_atom_site_fract_y
_atom_site_fract_z
_atom_site_B_iso_or_equiv
_atom_site_occupancy
_atom_site_attached_hydrogens
U1 U6+ 4 e 0.28626(5) 0.18162(4) 0.83842(3) 0.01326(13) 1. 0
Na1 Na1+ 4 e -0.0791(6) 0.9211(5) 0.7870(4) 0.0347(13) 1. 0
Se1 Se4+ 4 e 0.41491(12) 0.85862(11) 0.90574(8) 0.0161(3) 1. 0
Se2 Se4+ 4 e 0.11571(13) 0.49692(11) 0.87386(9) 0.0206(3) 1. 0
O1 O2- 4 e 0.1399(9) 0.0813(8) 0.8704(6) 0.0213(18) 1. 0
O2 O2- 4 e 0.4326(9) 0.2721(8) 0.8010(6) 0.0238(19) 1. 0
O3 O2- 4 e 0.4659(9) 0.0104(7) 0.8785(6) 0.0195(17) 1. 0
O4 O2- 4 e 0.4108(9) 0.7858(7) 0.7901(6) 0.0228(19) 1. 0
O5 O2- 4 e 0.5859(10) 0.8004(8) 0.9787(6) 0.027(2) 1. 0
O6 O2- 4 e 0.2523(9) 0.5576(8) 0.8201(6) 0.0244(19) 1. 0
O7 O2- 4 e 0.1913(10) 0.3561(7) 0.9214(6) 0.0253(19) 1. 0
O8 O2- 4 e 0.1575(12) 0.5826(9) 0.9923(7) 0.038(2) 1. 0
O9 O2- 4 e -0.2944(12) 0.7896(11) 0.7294(10) 0.056(3) 1. 0
O10 O2- 4 e 0.0057(13) 0.8169(10) 0.9534(8) 0.044(3) 1. 0
O11 O2- 4 e -0.0893(10) 0.0303(9) 0.6200(7) 0.038(2) 1. 0
O12 O2- 4 e -0.2211(10) 0.0558(9) 0.8725(7) 0.034(2) 1. 0
H1 H1+ 4 e 0.1025 0.6568 0.9822 0.05 1. 0
H2 H1+ 4 e -0.3641 0.7813 0.7684 0.05 1. 0
H3 H1+ 4 e -0.2853 0.7097 0.7023 0.05 1. 0
H4 H1+ 4 e -0.0744 0.7969 0.9799 0.05 1. 0
H5 H1+ 4 e 0.0688 0.8676 0.9974 0.05 1. 0
H6 H1+ 4 e 0.016 0.0392 0.626 0.05 1. 0
H7 H1+ 4 e -0.1428 0.0903 0.5738 0.05 1. 0
H8 H1+ 4 e -0.3062 0.0313 0.8951 0.05 1. 0
H9 H1+ 4 e -0.1974 0.133 0.9139 0.05 1. 0
#End of TTdata_161735-ICSD