
#(C) 2019 by FIZ Karlsruhe - Leibniz Institute for Information Infrastructure.  All rights reserved.
data_161993-ICSD
_database_code_ICSD 161993
_audit_creation_date 2009-02-01
_chemical_name_systematic 'Sodium potassium octaborate (1.8/2.2/1)'
_chemical_formula_structural '(Na0.45 K0.55)4 (B8 O14)'
_chemical_formula_sum 'B8 K2.2 Na1.8 O14'
_chemical_name_structure_type K2B4O7
_exptl_crystal_density_diffrn 2.43
_cell_measurement_temperature 293.
_publ_section_title

;
Thermal "order-disorder" behaviour in (Na1-x Kx)4 B8 O14 solid solutions
investigated by X-ray powder diffraction
;
loop_
_citation_id
_citation_journal_full
_citation_year
_citation_journal_volume
_citation_page_first
_citation_page_last
_citation_journal_id_ASTM
primary 'Crystal Research and Technology' 2008 43 1150 1160 CRTEDF
loop_
_publ_author_name
'Georgievskaya, M.'
'Albert, B.'
'Bubnova, R.'
'Cordier, G.'
'Baehtz, C.'
'Filatov, S.'
_cell_length_a 6.454(4)
_cell_length_b 9.507(5)
_cell_length_c 10.178(7)
_cell_angle_alpha 87.89(6)
_cell_angle_beta 100.82(6)
_cell_angle_gamma 102.47(4)
_cell_volume 598.93
_cell_formula_units_Z 2
_symmetry_space_group_name_H-M 'P -1'
_symmetry_Int_Tables_number 2
_refine_ls_R_factor_all 0.03
loop_
_symmetry_equiv_pos_site_id
_symmetry_equiv_pos_as_xyz
1 '-x, -y, -z'
2 'x, y, z'
loop_
_atom_type_symbol
_atom_type_oxidation_number
O2- -2
B3+ 3
K1+ 1
Na1+ 1
K1+ 1
Na1+ 1
K1+ 1
Na1+ 1
loop_
_atom_site_label
_atom_site_type_symbol
_atom_site_symmetry_multiplicity
_atom_site_Wyckoff_symbol
_atom_site_fract_x
_atom_site_fract_y
_atom_site_fract_z
_atom_site_B_iso_or_equiv
_atom_site_occupancy
_atom_site_attached_hydrogens
O1 O2- 2 i 0.9844(12) 0.1845(12) 0.9600(4) 0.8(4) 1. 0
O2 O2- 2 i 0.7820(15) 0.1035(11) 0.1403(5) 0.8(4) 1. 0
O3 O2- 2 i 0.8483(20) 0.3522(9) 0.0813(9) 0.8(4) 1. 0
O4 O2- 2 i 0.1458(7) 0.2479(12) 0.1904(5) 0.8(4) 1. 0
O5 O2- 2 i 0.9402(13) 0.1794(10) 0.3603(6) 0.8(4) 1. 0
O6 O2- 2 i 0.3060(8) 0.3103(11) 0.4116(5) 0.8(4) 1. 0
O7 O2- 2 i 0.02783(19) 0.4359(9) 0.3044(7) 0.8(4) 1. 0
O8 O2- 2 i 0.3386(18) 0.0253(6) 0.6709(8) 0.8(4) 1. 0
O9 O2- 2 i 0.6488(7) 0.1255(9) 0.8107(9) 0.8(4) 1. 0
O10 O2- 2 i 0.3280(15) 0.2303(10) 0.8014(7) 0.8(4) 1. 0
O11 O2- 2 i 0.2276(17) 0.4465(10) 0.8334(11) 0.8(4) 1. 0
O12 O2- 2 i 0.5111(11) 0.2527(14) 0.6150(9) 0.8(4) 1. 0
O13 O2- 2 i 0.2291(22) 0.3786(10) 0.6142(8) 0.8(4) 1. 0
O14 O2- 2 i 0.9489(12) 0.2350(16) 0.7293(6) 0.8(4) 1. 0
B1 B3+ 2 i 0.9407(7) 0.2215(5) 0.0919(4) 0.8(4) 1. 0
B2 B3+ 2 i 0.1015(7) 0.2979(5) 0.3155(4) 0.8(4) 1. 0
B3 B3+ 2 i 0.4580(7) 0.1635(5) 0.7290(4) 0.8(4) 1. 0
B4 B3+ 2 i 0.1745(7) 0.3206(5) 0.7433(4) 0.8(4) 1. 0
B5 B3+ 2 i 0.7756(23) 0.0938(13) 0.2744(4) 0.8(4) 1. 0
B6 B3+ 2 i 0.9020(28) 0.4543(15) 0.1821(10) 0.8(4) 1. 0
B7 B3+ 2 i 0.8552(7) 0.2078(13) 0.8403(5) 0.8(4) 1. 0
B8 B3+ 2 i 0.3343(22) 0.3006(20) 0.5469(4) 0.8(4) 1. 0
K1 K1+ 2 i 0.3694(12) 0.1253(9) 0.0399(8) 1.44(7) 0.63(2) 0
Na1 Na1+ 2 i 0.3694(12) 0.1253(9) 0.0399(8) 1.44(7) 0.37(2) 0
K2 K1+ 2 i 0.3283(11) 0.5171(8) 0.1307(7) 1.67(7) 0.70(2) 0
Na2 Na1+ 2 i 0.3283(11) 0.5171(8) 0.1307(7) 1.67(7) 0.30(2) 0
Na3 Na1+ 2 i 0.8081(16) 0.3741(11) 0.5177(10) 1.75(7) 1.00(1) 0
K3 K1+ 2 i 0.2501(9) 0.0079(7) 0.4023(6) 1.44(7) 0.89(2) 0
Na4 Na1+ 2 i 0.2501(9) 0.0079(7) 0.4023(6) 1.44(7) 0.11(2) 0
#End of TTdata_161993-ICSD