
#(C) 2019 by FIZ Karlsruhe - Leibniz Institute for Information Infrastructure.  All rights reserved.
data_161975-ICSD
_database_code_ICSD 161975
_audit_creation_date 2009-02-01
_chemical_name_systematic 'Sodium iron catena-disilicate'
_chemical_formula_structural 'Na Fe (Si2 O6)'
_chemical_formula_sum 'Fe1 Na1 O6 Si2'
_chemical_name_structure_type Pyroxene-CaMg(SiO3)2
_chemical_name_mineral Aegirine
_exptl_crystal_density_diffrn 3.58
_cell_measurement_temperature 293.
_publ_section_title

;
In situ high-pressure single-crystal X-ray study of aegirine, Na Fe(3+) Si2
O6, and the role of M1 size in clinopyroxene compressibility
;
loop_
_citation_id
_citation_journal_full
_citation_year
_citation_journal_volume
_citation_page_first
_citation_page_last
_citation_journal_id_ASTM
primary 'American Mineralogist' 2008 93 1829 1837 AMMIAY
loop_
_publ_author_name
'McCarthy, A.C.'
'Downs, R.T.'
'Thompson, R.M.'
'Redhammer, G.J.'
_cell_length_a 9.6539(2)
_cell_length_b 8.7928(2)
_cell_length_c 5.2935(2)
_cell_angle_alpha 90.
_cell_angle_beta 107.436(2)
_cell_angle_gamma 90.
_cell_volume 428.69
_cell_formula_units_Z 4
_symmetry_space_group_name_H-M 'C 1 2/c 1'
_symmetry_Int_Tables_number 15
_refine_ls_R_factor_all 0.046
loop_
_symmetry_equiv_pos_site_id
_symmetry_equiv_pos_as_xyz
1 'x, -y, z+1/2'
2 '-x, -y, -z'
3 '-x, y, -z+1/2'
4 'x, y, z'
5 'x+1/2, -y+1/2, z+1/2'
6 '-x+1/2, -y+1/2, -z'
7 '-x+1/2, y+1/2, -z+1/2'
8 'x+1/2, y+1/2, z'
loop_
_atom_type_symbol
_atom_type_oxidation_number
Na1+ 1
Fe3+ 3
Si4+ 4
O2- -2
loop_
_atom_site_label
_atom_site_type_symbol
_atom_site_symmetry_multiplicity
_atom_site_Wyckoff_symbol
_atom_site_fract_x
_atom_site_fract_y
_atom_site_fract_z
_atom_site_B_iso_or_equiv
_atom_site_occupancy
_atom_site_attached_hydrogens
Na1 Na1+ 4 e 0 0.2992(1) 0.25 1.022(19) 1. 0
Fe1 Fe3+ 4 e 0 0.89878(5) 0.25 0.407(8) 1. 0
Si1 Si4+ 8 f 0.29072(5) 0.08945(6) 0.23561(8) 0.370(8) 1. 0
O1 O2- 8 f 0.1143(1) 0.0786(1) 0.1376(2) 0.508(20) 1. 0
O2 O2- 8 f 0.3588(1) 0.2558(2) 0.3007(2) 0.674(21) 1. 0
O3 O2- 8 f 0.3520(1) 0.0078(1) 0.0120(3) 0.585(18) 1. 0
loop_
_atom_site_aniso_label
_atom_site_aniso_type_symbol
_atom_site_aniso_U_11
_atom_site_aniso_U_22
_atom_site_aniso_U_33
_atom_site_aniso_U_12
_atom_site_aniso_U_13
_atom_site_aniso_U_23
Na1 Na1+ 0.00364(14) 0.00275(14) 0.00714(40) 0. -0.00050(19) 0.
Fe1 Fe3+ 0.00119(5) 0.00128(5) 0.00404(14) 0. 0.00057(6) 0.
Si1 Si4+ 0.00106(5) 0.00132(6) 0.00344(16) -0.00012(5) 0.00066(8) -0.00008(9)
O1 O2- 0.00124(12) 0.00187(16) 0.00508(41) -0.00018(12) 0.00069(19) -0.00008(21)
O2 O2- 0.00238(15) 0.00170(16) 0.00722(45) -0.00059(12) 0.00164(21) -0.00062(21)
O3 O2- 0.00145(12) 0.00241(14) 0.00510(40) 0.00001(13) 0.00081(18) -0.00077(24)
#End of TTdata_161975-ICSD