
#(C) 2019 by FIZ Karlsruhe - Leibniz Institute for Information Infrastructure.  All rights reserved.
data_162087-ICSD
_database_code_ICSD 162087
_audit_creation_date 2009-08-01
_audit_update_record 2011-02-01
_chemical_name_systematic 'Disodium dimagnesium decavanadate icosahydrate'
_chemical_formula_structural 'Na2 Mg2 (V10 O28) (H2 O)20'
_chemical_formula_sum 'H40 Mg2 Na2 O48 V10'
_chemical_name_mineral Lasalite
_exptl_crystal_density_diffrn 2.38
_publ_section_title

;
Lasalite, Na2 Mg2 (V10 O28) * 20(H2 O), a new decavanadate mineral species
from the Vanadium Queen mine, La Sal district, Utah: description, atomic
arrangement and relationship to the pascoite group of minerals
;
loop_
_citation_id
_citation_journal_full
_citation_year
_citation_journal_volume
_citation_page_first
_citation_page_last
_citation_journal_id_ASTM
primary 'Canadian Mineralogist' 2008 46 1365 1372 CAMIA6
loop_
_publ_author_name
'Hughes, J.M.'
'Wise, W.S.'
'Gunter, M.E.'
'Morton, J.P.'
'Rakovan, J.'
_cell_length_a 23.9019(7)
_cell_length_b 10.9993(3)
_cell_length_c 17.0504(5)
_cell_angle_alpha 90.
_cell_angle_beta 118.284(1)
_cell_angle_gamma 90.
_cell_volume 3947.44
_cell_formula_units_Z 4
_symmetry_space_group_name_H-M 'C 1 2/c 1'
_symmetry_Int_Tables_number 15
_refine_ls_R_factor_all 0.0289
loop_
_symmetry_equiv_pos_site_id
_symmetry_equiv_pos_as_xyz
1 'x, -y, z+1/2'
2 '-x, -y, -z'
3 '-x, y, -z+1/2'
4 'x, y, z'
5 'x+1/2, -y+1/2, z+1/2'
6 '-x+1/2, -y+1/2, -z'
7 '-x+1/2, y+1/2, -z+1/2'
8 'x+1/2, y+1/2, z'
loop_
_atom_type_symbol
_atom_type_oxidation_number
V5+ 5
O2- -2
Mg2+ 2
Na1+ 1
O2- -2
H1+ 1
O2- -2
H1+ 1
O2- -2
H1+ 1
O2- -2
H1+ 1
O2- -2
H1+ 1
O2- -2
H1+ 1
O2- -2
H1+ 1
O2- -2
H1+ 1
O2- -2
H1+ 1
O2- -2
H1+ 1
loop_
_atom_site_label
_atom_site_type_symbol
_atom_site_symmetry_multiplicity
_atom_site_Wyckoff_symbol
_atom_site_fract_x
_atom_site_fract_y
_atom_site_fract_z
_atom_site_B_iso_or_equiv
_atom_site_occupancy
_atom_site_attached_hydrogens
V1 V5+ 8 f 0.011823(13) 0.08649(2) 0.852530(17) 0.01374(7) 1. 0
V2 V5+ 8 f -0.072825(13) -0.11481(3) 0.714987(18) 0.01598(7) 1. 0
V3 V5+ 8 f 0.071806(13) 0.29236(3) 0.783156(19) 0.01658(7) 1. 0
V4 V5+ 8 f 0.132628(14) 0.08738(3) 0.719361(19) 0.01731(7) 1. 0
V5 V5+ 8 f 0.155643(14) 0.09083(3) 0.911954(19) 0.01845(7) 1. 0
O1 O2- 8 f -0.04289(6) 0.08873(11) 0.88829(8) 0.0184(2) 1. 0
O2 O2- 8 f 0.08380(6) 0.08685(11) 0.94487(8) 0.0185(2) 1. 0
O3 O2- 8 f -0.00967(6) -0.08342(10) 0.67228(8) 0.0151(2) 1. 0
O4 O2- 8 f 0.00969(5) 0.25823(10) 0.82766(7) 0.0153(2) 1. 0
O5 O2- 8 f -0.06272(5) 0.08728(10) 0.72167(7) 0.0145(2) 1. 0
O6 O2- 8 f -0.07332(6) -0.26098(12) 0.71410(9) 0.0258(3) 1. 0
O7 O2- 8 f -0.13774(6) -0.07787(11) 0.60724(8) 0.0196(2) 1. 0
O8 O2- 8 f -0.11641(6) -0.07713(11) 0.77623(8) 0.0188(2) 1. 0
O9 O2- 8 f 0.13689(6) 0.25559(11) 0.89341(8) 0.0199(2) 1. 0
O10 O2- 8 f 0.11612(6) 0.25431(11) 0.72347(8) 0.0187(2) 1. 0
O11 O2- 8 f 0.17222(6) 0.08862(13) 0.66527(9) 0.0258(3) 1. 0
O12 O2- 8 f 0.19171(6) 0.08930(12) 0.83800(8) 0.0203(2) 1. 0
O13 O2- 8 f 0.07163(7) 0.43782(13) 0.78232(9) 0.0271(3) 1. 0
O14 O2- 8 f 0.21463(6) 0.08846(14) 0.01063(9) 0.0295(3) 1. 0
Mg1 Mg2+ 8 f 0.11242(3) 0.59615(5) 0.59125(4) 0.01950(12) 1. 0
Na1 Na1+ 8 f 0.19432(6) -0.17951(10) 0.03761(6) 0.0497(3) 1. 0
O15 O2- 8 f 0.11247(8) 0.40968(13) 0.59659(10) 0.0280(3) 1. 0
H1 H1+ 8 f 0.1126(15) 0.373(3) 0.634(2) 0.05 1. 0
H2 H1+ 8 f 0.0996(15) 0.372(3) 0.558(2) 0.05 1. 0
O16 O2- 8 f 0.04133(7) 0.40772(14) 0.96382(9) 0.0277(3) 1. 0
H3 H1+ 8 f 0.0318(14) 0.363(3) 0.929(2) 0.05 1. 0
H4 H1+ 8 f 0.0213(15) 0.461(3) 0.941(2) 0.05 1. 0
O17 O2- 8 f 0.17730(7) 0.59206(14) 0.54119(10) 0.0267(3) 1. 0
H5 H1+ 8 f 0.2095(15) 0.594(3) 0.572(2) 0.05 1. 0
H6 H1+ 8 f 0.1717(14) 0.633(3) 0.501(2) 0.05 1. 0
O18 O2- 8 f 0.17826(8) 0.59226(15) 0.72130(10) 0.0342(4) 1. 0
H7 H1+ 8 f 0.1941(15) 0.643(3) 0.750(2) 0.05 1. 0
H8 H1+ 8 f 0.1952(15) 0.536(3) 0.744(2) 0.05 1. 0
O19 O2- 8 f 0.03719(8) 0.60329(15) 0.62597(11) 0.0299(3) 1. 0
H9 H1+ 8 f 0.0456(15) 0.600(3) 0.675(2) 0.05 1. 0
H10 H1+ 8 f 0.0188(15) 0.657(3) 0.607(2) 0.05 1. 0
O20 O2- 8 f 0.11564(9) 0.21806(14) 0.09537(11) 0.0359(4) 1. 0
H11 H1+ 8 f 0.1145(15) 0.185(3) 0.131(2) 0.05 1. 0
H12 H1+ 8 f 0.1039(14) 0.180(3) 0.054(2) 0.05 1. 0
O21 O2- 8 f 0.26202(9) -0.29234(17) 0.16608(14) 0.0428(4) 1. 0
H13 H1+ 8 f 0.2853(15) -0.336(3) 0.168(2) 0.05 1. 0
H14 H1+ 8 f 0.2538(15) -0.318(3) 0.204(2) 0.05 1. 0
O22 O2- 8 f -0.05898(11) -0.21698(16) 0.52068(12) 0.0446(5) 1. 0
H15 H1+ 8 f -0.0481(15) -0.187(3) 0.490(2) 0.05 1. 0
H16 H1+ 8 f -0.0469(14) -0.181(3) 0.562(2) 0.05 1. 0
O23 O2- 8 f 0.18925(12) -0.3592(2) 0.95033(15) 0.0604(6) 1. 0
H17 H1+ 8 f 0.1861(14) -0.429(3) 0.968(2) 0.05 1. 0
H18 H1+ 8 f 0.1629(16) -0.357(3) 0.912(2) 0.05 1. 0
O24 O2- 8 f 0.23209(8) 0.62491(16) 0.29829(12) 0.0388(4) 1. 0
H19 H1+ 8 f 0.2586(15) 0.627(3) 0.351(2) 0.05 1. 0
H20 H1+ 8 f 0.2067(15) 0.661(3) 0.295(2) 0.05 1. 0
#End of TTdata_162087-ICSD