
#(C) 2019 by FIZ Karlsruhe - Leibniz Institute for Information Infrastructure.  All rights reserved.
data_162601-ICSD
_database_code_ICSD 162601
_audit_creation_date 2009-08-01
_chemical_name_systematic 'Sodium cobalt oxide (0.68/1/2)'
_chemical_formula_structural 'Na0.68 Co O2'
_chemical_formula_sum 'Co1 Na0.68 O2'
_exptl_crystal_density_diffrn 4.66
_cell_measurement_temperature 293.
_publ_section_title

;
Influence of cooling rate on the structure and composition of Nax Co O2 (x ~
0.65)
;
loop_
_citation_id
_citation_journal_full
_citation_year
_citation_journal_volume
_citation_page_first
_citation_page_last
_citation_journal_id_ASTM
primary 'Journal of Materials Chemistry' 2009 19 1123 1128 JMACEP
loop_
_publ_author_name
'Zhou Tong'
'Zhang Dou'
'Button, T.W.'
'Wright, A.J.'
'Greaves, C.'
_cell_length_a 2.83333(4)
_cell_length_b 4.92297(7)
_cell_length_c 10.8948(2)
_cell_angle_alpha 90.
_cell_angle_beta 90.
_cell_angle_gamma 90.
_cell_volume 151.97
_cell_formula_units_Z 4
_symmetry_space_group_name_H-M 'C m c m'
_symmetry_Int_Tables_number 63
_refine_ls_R_factor_all 0.025
loop_
_symmetry_equiv_pos_site_id
_symmetry_equiv_pos_as_xyz
1 '-x, y, -z+1/2'
2 '-x, -y, z+1/2'
3 '-x, y, z'
4 '-x, -y, -z'
5 'x, -y, z+1/2'
6 'x, y, -z+1/2'
7 'x, -y, -z'
8 'x, y, z'
9 '-x+1/2, y+1/2, -z+1/2'
10 '-x+1/2, -y+1/2, z+1/2'
11 '-x+1/2, y+1/2, z'
12 '-x+1/2, -y+1/2, -z'
13 'x+1/2, -y+1/2, z+1/2'
14 'x+1/2, y+1/2, -z+1/2'
15 'x+1/2, -y+1/2, -z'
16 'x+1/2, y+1/2, z'
loop_
_atom_type_symbol
_atom_type_oxidation_number
Na1+ 1
Co3+ 3.32
O2- -2
loop_
_atom_site_label
_atom_site_type_symbol
_atom_site_symmetry_multiplicity
_atom_site_Wyckoff_symbol
_atom_site_fract_x
_atom_site_fract_y
_atom_site_fract_z
_atom_site_B_iso_or_equiv
_atom_site_occupancy
_atom_site_attached_hydrogens
Na1 Na1+ 8 g 0.108(5) 0.054(2) 0.25 0.016(1) 0.109(2) 0
Na2 Na1+ 8 g 0.073(2) 0.659(1) 0.25 0.016(1) 0.231(2) 0
Co1 Co3+ 4 a 0 0 0.5 0.0056(3) 1. 0
O1 O2- 8 f 0 0.6660(2) 0.59030(5) 0.0060(2) 1. 0
#End of TTdata_162601-ICSD