
#(C) 2019 by FIZ Karlsruhe - Leibniz Institute for Information Infrastructure.  All rights reserved.
data_1626-ICSD
_database_code_ICSD 1626
_audit_creation_date 1980-01-01
_audit_update_record 2010-02-01
_chemical_name_systematic 'Sodium trithallium bis(sulfate(IV)) - alpha'
_chemical_formula_structural 'Na Tl3 (S O3)2'
_chemical_formula_sum 'Na1 O6 S2 Tl3'
_chemical_name_structure_type K2SO3
_exptl_crystal_density_diffrn 6.46
_publ_section_title
'Crystal structure of sodium trithallium(I) sulphite, Tl3 Na (S O3)2'
loop_
_citation_id
_citation_journal_full
_citation_year
_citation_journal_volume
_citation_page_first
_citation_page_last
_citation_journal_id_ASTM
primary 'Journal of Chemical Research, Synopses' 1977 1977 138 139 JRPSDC
loop_
_publ_author_name
'Oddon, Y.'
'Pepe, G.'
'Tranquard, A.'
_cell_length_a 5.723(5)
_cell_length_b 5.723(5)
_cell_length_c 7.216(7)
_cell_angle_alpha 90.
_cell_angle_beta 90.
_cell_angle_gamma 120.
_cell_volume 204.68
_cell_formula_units_Z 1
_symmetry_space_group_name_H-M 'P -3 m 1'
_symmetry_Int_Tables_number 164
_refine_ls_R_factor_all 0.041
loop_
_symmetry_equiv_pos_site_id
_symmetry_equiv_pos_as_xyz
1 'x-y, -y, -z'
2 '-x, -x+y, -z'
3 'y, x, -z'
4 'x-y, x, -z'
5 'y, -x+y, -z'
6 '-x, -y, -z'
7 '-x+y, y, z'
8 'x, x-y, z'
9 '-y, -x, z'
10 '-x+y, -x, z'
11 '-y, x-y, z'
12 'x, y, z'
loop_
_atom_type_symbol
_atom_type_oxidation_number
Tl1+ 1
Na1+ 1
S4+ 4
O2- -2
loop_
_atom_site_label
_atom_site_type_symbol
_atom_site_symmetry_multiplicity
_atom_site_Wyckoff_symbol
_atom_site_fract_x
_atom_site_fract_y
_atom_site_fract_z
_atom_site_B_iso_or_equiv
_atom_site_occupancy
_atom_site_attached_hydrogens
Tl1 Tl1+ 1 a 0 0 0 2.23 1. 0
Tl2 Tl1+ 2 d 0.3333 0.6667 0.6131(3) 2.61 1. 0
Na1 Na1+ 1 b 0 0 0.5 3.71 1. 0
S1 S4+ 2 d 0.3333 0.6667 0.1975(23) 2.71 1. 0
O1 O2- 6 i 0.1956(80) 0.3912(160) 0.2863(56) 2.47 1. 0
#End of TTdata_1626-ICSD