
#(C) 2019 by FIZ Karlsruhe - Leibniz Institute for Information Infrastructure.  All rights reserved.
data_163132-ICSD
_database_code_ICSD 163132
_audit_creation_date 2009-08-01
_chemical_name_systematic 'Sodium vanadium catena-disilicate'
_chemical_formula_structural 'Na V (Si2 O6)'
_chemical_formula_sum 'Na1 O6 Si2 V1'
_chemical_name_structure_type Pyroxene-CaMg(SiO3)2
_chemical_name_mineral Unnamed_Clinopyroxene
_exptl_crystal_density_diffrn 3.63
_cell_measurement_pressure 4610000.
_publ_section_title

;
Lattice compression and structural behavior of Na V Si2 O6 clinopyroxene to 11
GPa
;
loop_
_citation_id
_citation_journal_full
_citation_year
_citation_journal_volume
_citation_page_first
_citation_page_last
_citation_journal_id_ASTM
primary 'American Mineralogist' 2009 94 557 564 AMMIAY
loop_
_publ_author_name
'Ullrich, A.'
'Miletich, R.'
'Nestola, F.'
'Weikusat, C.'
'Ohashi, H.'
_cell_length_a 9.545(8)
_cell_length_b 8.634(7)
_cell_length_c 5.233(4)
_cell_angle_alpha 90.
_cell_angle_beta 106.59(9)
_cell_angle_gamma 90.
_cell_volume 413.31
_cell_formula_units_Z 4
_symmetry_space_group_name_H-M 'C 1 2/c 1'
_symmetry_Int_Tables_number 15
_refine_ls_R_factor_all 0.0421
loop_
_symmetry_equiv_pos_site_id
_symmetry_equiv_pos_as_xyz
1 'x, -y, z+1/2'
2 '-x, -y, -z'
3 '-x, y, -z+1/2'
4 'x, y, z'
5 'x+1/2, -y+1/2, z+1/2'
6 '-x+1/2, -y+1/2, -z'
7 '-x+1/2, y+1/2, -z+1/2'
8 'x+1/2, y+1/2, z'
loop_
_atom_type_symbol
_atom_type_oxidation_number
Na1+ 1
V3+ 3
Si4+ 4
O2- -2
loop_
_atom_site_label
_atom_site_type_symbol
_atom_site_symmetry_multiplicity
_atom_site_Wyckoff_symbol
_atom_site_fract_x
_atom_site_fract_y
_atom_site_fract_z
_atom_site_B_iso_or_equiv
_atom_site_occupancy
_atom_site_attached_hydrogens
Na1 Na1+ 4 e 0 0.3049(7) 0.25 0.0158(11) 1. 0
V1 V3+ 4 e 0 0.9062(3) 0.25 0.0069(6) 1. 0
Si1 Si4+ 8 f 0.2918(3) 0.0926(3) 0.2398(4) 0.0065(6) 1. 0
O1 O2- 8 f 0.1148(6) 0.0809(7) 0.1448(8) 0.0045(11) 1. 0
O2 O2- 8 f 0.3613(7) 0.2581(7) 0.3153(10) 0.0077(13) 1. 0
O3 O2- 8 f 0.3543(6) 0.0137(7) 0.0076(10) 0.0098(12) 1. 0
#End of TTdata_163132-ICSD