
#(C) 2019 by FIZ Karlsruhe - Leibniz Institute for Information Infrastructure.  All rights reserved.
data_163129-ICSD
_database_code_ICSD 163129
_audit_creation_date 2009-08-01
_chemical_name_systematic 'Sodium vanadium catena-disilicate'
_chemical_formula_structural 'Na V (Si2 O6)'
_chemical_formula_sum 'Na1 O6 Si2 V1'
_chemical_name_structure_type Pyroxene-CaMg(SiO3)2
_chemical_name_mineral Unnamed_Clinopyroxene
_exptl_crystal_density_diffrn 3.75
_cell_measurement_pressure 9390000.
_publ_section_title

;
Lattice compression and structural behavior of Na V Si2 O6 clinopyroxene to 11
GPa
;
loop_
_citation_id
_citation_journal_full
_citation_year
_citation_journal_volume
_citation_page_first
_citation_page_last
_citation_journal_id_ASTM
primary 'American Mineralogist' 2009 94 557 564 AMMIAY
loop_
_publ_author_name
'Ullrich, A.'
'Miletich, R.'
'Nestola, F.'
'Weikusat, C.'
'Ohashi, H.'
_cell_length_a 9.469(9)
_cell_length_b 8.521(8)
_cell_length_c 5.169(5)
_cell_angle_alpha 90.
_cell_angle_beta 105.99(8)
_cell_angle_gamma 90.
_cell_volume 400.93
_cell_formula_units_Z 4
_symmetry_space_group_name_H-M 'C 1 2/c 1'
_symmetry_Int_Tables_number 15
_refine_ls_R_factor_all 0.0443
loop_
_symmetry_equiv_pos_site_id
_symmetry_equiv_pos_as_xyz
1 'x, -y, z+1/2'
2 '-x, -y, -z'
3 '-x, y, -z+1/2'
4 'x, y, z'
5 'x+1/2, -y+1/2, z+1/2'
6 '-x+1/2, -y+1/2, -z'
7 '-x+1/2, y+1/2, -z+1/2'
8 'x+1/2, y+1/2, z'
loop_
_atom_type_symbol
_atom_type_oxidation_number
Na1+ 1
V3+ 3
Si4+ 4
O2- -2
loop_
_atom_site_label
_atom_site_type_symbol
_atom_site_symmetry_multiplicity
_atom_site_Wyckoff_symbol
_atom_site_fract_x
_atom_site_fract_y
_atom_site_fract_z
_atom_site_B_iso_or_equiv
_atom_site_occupancy
_atom_site_attached_hydrogens
Na1 Na1+ 4 e 0 0.3081(6) 0.25 0.0134(11) 1. 0
V1 V3+ 4 e 0 0.9078(3) 0.25 0.0062(6) 1. 0
Si1 Si4+ 8 f 0.2921(3) 0.0934(3) 0.2399(4) 0.0062(6) 1. 0
O1 O2- 8 f 0.1150(6) 0.0845(7) 0.1457(9) 0.0055(11) 1. 0
O2 O2- 8 f 0.3601(8) 0.2612(7) 0.3220(11) 0.0092(13) 1. 0
O3 O2- 8 f 0.3550(7) 0.0188(7) 0.0021(10) 0.0083(12) 1. 0
#End of TTdata_163129-ICSD