
#(C) 2019 by FIZ Karlsruhe - Leibniz Institute for Information Infrastructure.  All rights reserved.
data_163206-ICSD
_database_code_ICSD 163206
_audit_creation_date 2009-08-01
_chemical_name_systematic
'Sodium zirconium molybdate phosphate(V) (1/1/0.1/2.9)'
_chemical_formula_structural 'Na Zr2 (Mo O4)0.1 (P O4)2.9'
_chemical_formula_sum 'Mo0.1 Na1 O12 P2.9 Zr2'
_chemical_name_structure_type NaZr2(PO4)3
_exptl_crystal_density_diffrn 3.25
_publ_section_title

;
Synthesis, characterization and structure refinement of sodium zirconium
molibdo-phosphate: Na0.9 Zr2 Mo0.1 P2.9 O12 (MoNZP)
;
loop_
_citation_id
_citation_journal_full
_citation_year
_citation_journal_volume
_citation_page_first
_citation_page_last
_citation_journal_id_ASTM
primary 'Journal of Alloys and Compounds' 2009 473 579 583 JALCEU
loop_
_publ_author_name
'Chourasia, R.'
'Shrivastava, O.P.'
'Wattal, P.K.'
_cell_length_a 8.79255(11)
_cell_length_b 8.79255(11)
_cell_length_c 22.7495(5)
_cell_angle_alpha 90.
_cell_angle_beta 90.
_cell_angle_gamma 120.
_cell_volume 1523.11
_cell_formula_units_Z 6
_symmetry_space_group_name_H-M 'R -3 c H'
_symmetry_Int_Tables_number 167
_refine_ls_R_factor_all 0.0495
loop_
_symmetry_equiv_pos_site_id
_symmetry_equiv_pos_as_xyz
1 'x-y, -y, -z+1/2'
2 '-x, -x+y, -z+1/2'
3 'y, x, -z+1/2'
4 'x-y, x, -z'
5 'y, -x+y, -z'
6 '-x, -y, -z'
7 '-x+y, y, z+1/2'
8 'x, x-y, z+1/2'
9 '-y, -x, z+1/2'
10 '-x+y, -x, z'
11 '-y, x-y, z'
12 'x, y, z'
13 'x-y+2/3, -y+1/3, -z+5/6'
14 '-x+2/3, -x+y+1/3, -z+5/6'
15 'y+2/3, x+1/3, -z+5/6'
16 'x-y+2/3, x+1/3, -z+1/3'
17 'y+2/3, -x+y+1/3, -z+1/3'
18 '-x+2/3, -y+1/3, -z+1/3'
19 '-x+y+2/3, y+1/3, z+5/6'
20 'x+2/3, x-y+1/3, z+5/6'
21 '-y+2/3, -x+1/3, z+5/6'
22 '-x+y+2/3, -x+1/3, z+1/3'
23 '-y+2/3, x-y+1/3, z+1/3'
24 'x+2/3, y+1/3, z+1/3'
25 'x-y+1/3, -y+2/3, -z+1/6'
26 '-x+1/3, -x+y+2/3, -z+1/6'
27 'y+1/3, x+2/3, -z+1/6'
28 'x-y+1/3, x+2/3, -z+2/3'
29 'y+1/3, -x+y+2/3, -z+2/3'
30 '-x+1/3, -y+2/3, -z+2/3'
31 '-x+y+1/3, y+2/3, z+1/6'
32 'x+1/3, x-y+2/3, z+1/6'
33 '-y+1/3, -x+2/3, z+1/6'
34 '-x+y+1/3, -x+2/3, z+2/3'
35 '-y+1/3, x-y+2/3, z+2/3'
36 'x+1/3, y+2/3, z+2/3'
loop_
_atom_type_symbol
_atom_type_oxidation_number
Na1+ 1
Zr4+ 4
P5+ 5
Mo6+ 6
O2- -2
loop_
_atom_site_label
_atom_site_type_symbol
_atom_site_symmetry_multiplicity
_atom_site_Wyckoff_symbol
_atom_site_fract_x
_atom_site_fract_y
_atom_site_fract_z
_atom_site_B_iso_or_equiv
_atom_site_occupancy
_atom_site_attached_hydrogens
Na1 Na1+ 6 b 0 0 0 0.0426 1. 0
Zr1 Zr4+ 12 c 0 0 0.146 0.02133 1. 0
P1 P5+ 18 e 0.29078 0 0.25 0.03901 0.968 0
Mo1 Mo6+ 18 e 0.29078 0 0.25 0.03901 0.03255 0
O1 O2- 36 f 0.1792 -0.03 0.1956 0.02906 1. 0
O2 O2- 36 f 0.1933 0.17 0.0874 0.02906 1. 0
#End of TTdata_163206-ICSD