
#(C) 2019 by FIZ Karlsruhe - Leibniz Institute for Information Infrastructure.  All rights reserved.
data_163234-ICSD
_database_code_ICSD 163234
_audit_creation_date 2009-08-01
_chemical_name_systematic 'Disodium trivanadate(IV) - nanotube'
_chemical_formula_structural 'Na2 (V3 O7)'
_chemical_formula_sum 'Na2 O7 V3'
_exptl_crystal_density_diffrn 3.16
_cell_measurement_temperature 200.
_publ_section_title
'Structural and magnetic aspects of the nanotube system Na2-x V3 O7'
loop_
_citation_id
_citation_journal_full
_citation_year
_citation_journal_volume
_citation_page_first
_citation_page_last
_citation_journal_id_ASTM
primary 'Physical Review B: Condensed Matter and Materials Physics' 2008 78
214426-1 214426-12 PRBMDO
loop_
_publ_author_name
'Zaharko, O.'
'Gavilano, J.L.'
'Straessle, T.'
'Miclea, C.F.'
'Mota, A.C.'
'Filinchuk, Y.'
'Chernyshov, D.'
'Deen, P.'
'Rahaman, B.'
'Saha Dasgupta, T.'
'Valenti, R.'
'Matsushita, Y.'
'Doenni, A.'
'Kitazawa, H.'
_cell_length_a 10.8827(5)
_cell_length_b 10.8827(5)
_cell_length_c 9.5506(2)
_cell_angle_alpha 90.
_cell_angle_beta 90.
_cell_angle_gamma 120.
_cell_volume 979.57
_cell_formula_units_Z 6
_symmetry_space_group_name_H-M 'P -3'
_symmetry_Int_Tables_number 147
_refine_ls_R_factor_all 0.0124
loop_
_symmetry_equiv_pos_site_id
_symmetry_equiv_pos_as_xyz
1 'x-y, x, -z'
2 'y, -x+y, -z'
3 '-x, -y, -z'
4 '-x+y, -x, z'
5 '-y, x-y, z'
6 'x, y, z'
loop_
_atom_type_symbol
_atom_type_oxidation_number
V4+ 4
Na1+ 1
O2- -2
loop_
_atom_site_label
_atom_site_type_symbol
_atom_site_symmetry_multiplicity
_atom_site_Wyckoff_symbol
_atom_site_fract_x
_atom_site_fract_y
_atom_site_fract_z
_atom_site_B_iso_or_equiv
_atom_site_occupancy
_atom_site_attached_hydrogens
V1 V4+ 6 g 0.31549(3) 0.10972(3) 0.40031(3) 0.00354(7) 1. 0
V2 V4+ 6 g 0.31643(3) 0.149623(3) 0.75026(4) 0.00316(6) 1. 0
V3 V4+ 6 g 0.31391(3) 0.18514(3) 0.10094(3) 0.00390(7) 1. 0
Na1 Na1+ 1 a 0 0 0 0.008(1) 1. 0
Na2 Na1+ 1 b 0 0 0.5 0.012(1) 1. 0
Na3 Na1+ 2 d 0.3333 0.6667 0.0701(1) 0.0079(2) 1. 0
Na4 Na1+ 2 d 0.3333 0.6667 0.4332(1) 0.0095(2) 1. 0
Na5 Na1+ 6 g 0.5074(1) 0.4805(1) 0.2492(1) 0.0207(2) 1. 0
O1 O2- 6 g 0.4780(1) 0.1491(2) 0.4380(1) 0.0102(2) 1. 0
O2 O2- 6 g 0.4889(1) 0.2194(1) 0.7517(2) 0.0102(3) 1. 0
O3 O2- 6 g 0.4760(2) 0.3083(2) 0.0636(1) 0.0115(3) 1. 0
O4 O2- 6 g 0.2475(1) 0.9508(1) 0.7091(1) 0.0059(2) 1. 0
O5 O2- 6 g 0.2432(2) 0.0664(1) 0.9329(1) 0.0065(2) 1. 0
O6 O2- 6 g 0.2526(1) 0.1701(2) 0.5668(1) 0.0067(2) 1. 0
O7 O2- 6 g 0.2715(1) 0.2987(1) 0.7911(1) 0.0052(2) 1. 0
loop_
_atom_site_aniso_label
_atom_site_aniso_type_symbol
_atom_site_aniso_U_11
_atom_site_aniso_U_22
_atom_site_aniso_U_33
_atom_site_aniso_U_12
_atom_site_aniso_U_13
_atom_site_aniso_U_23
V1 V4+ 0.0036(1) 0.0040(1) 0.0030(1) 0.0019(1) -0.0007(1) -0.00044(9)
V2 V4+ 0.0028(1) 0.0039(1) 0.0025(1) 0.0015(1) -0.0002(1) -0.00023(9)
V3 V4+ 0.0042(1) 0.0046(1) 0.0031(1) 0.0023(1) 0.0006(1) 0.00011(9)
Na1 Na1+ 0.007(2) 0.007(2) 0.012(2) 0.0034(8) 0. 0.
Na2 Na1+ 0.011(1) 0.011(1) 0.017(2) 0.0054(7) 0. 0.
Na3 Na1+ 0.0079(3) 0.0079(3) 0.0080(6) 0.0039(2) 0. 0.
Na4 Na1+ 0.0100(3) 0.0100(3) 0.0087(6) 0.0050(2) 0. 0.
Na5 Na1+ 0.0116(4) 0.0156(4) 0.0251(4) -0.0005(3) -0.0052(3) -0.0040(3)
O1 O2- 0.0069(6) 0.0139(7) 0.0108(6) 0.0058(5) -0.0025(5) -0.0042(5)
O2 O2- 0.0054(6) 0.0130(7) 0.0089(5) 0.0022(5) -0.0003(5) -0.0012(5)
O3 O2- 0.0069(6) 0.0131(7) 0.0111(6) 0.0025(5) 0.0016(5) -0.0016(5)
O4 O2- 0.0080(5) 0.0041(5) 0.0034(5) 0.0014(5) 0.0003(4) -0.0004(4)
O5 O2- 0.0099(6) 0.0048(6) 0.0038(6) 0.0031(5) 0.0011(4) -0.0004(4)
O6 O2- 0.0123(6) 0.0077(6) 0.0033(6) 0.0074(6) 0.0004(5) -0.0004(4)
O7 O2- 0.0065(5) 0.0067(6) 0.0038(5) 0.0043(5) 0.0002(4) -0.0002(4)
#End of TTdata_163234-ICSD