
#(C) 2019 by FIZ Karlsruhe - Leibniz Institute for Information Infrastructure.  All rights reserved.
data_163466-ICSD
_database_code_ICSD 163466
_audit_creation_date 2009-08-01
_chemical_name_systematic 'Pentasodium erbium tetrakis(molybdate)'
_chemical_formula_structural 'Na5 Er (Mo O4)4'
_chemical_formula_sum 'Er1 Mo4 Na5 O16'
_chemical_name_structure_type Na5Lu(WO4)4
_exptl_crystal_density_diffrn 4.14
_cell_measurement_temperature 293.
_publ_section_title

;
Syntheses, crystal structures, energy bands and optical characterizations of
Na5 Ln (Mo O4)4 (Ln= Gd, Er)
;
loop_
_citation_id
_citation_journal_full
_citation_year
_citation_journal_volume
_citation_page_first
_citation_page_last
_citation_journal_id_ASTM
primary 'Journal of Molecular Structure' 2009 919 178 184 JMOSB4
loop_
_publ_author_name
'Zhao, D.'
'Cheng, W.-D.'
'Zhang, H.'
'Huang, S.-P.'
'Fang, M.'
'Zhang, W.-L.'
'Yang, S.-L.'
_cell_length_a 11.3745(3)
_cell_length_b 11.3745(3)
_cell_length_c 11.4371(4)
_cell_angle_alpha 90.
_cell_angle_beta 90.
_cell_angle_gamma 90.
_cell_volume 1479.72
_cell_formula_units_Z 4
_symmetry_space_group_name_H-M 'I 41/a Z'
_symmetry_Int_Tables_number 88
_refine_ls_R_factor_all 0.0514
loop_
_symmetry_equiv_pos_site_id
_symmetry_equiv_pos_as_xyz
1 '-y+3/4, x+3/4, -z+3/4'
2 'y+1/4, -x+3/4, -z+3/4'
3 'x, y+1/2, -z'
4 '-x, -y, -z'
5 'y+1/4, -x+1/4, z+1/4'
6 '-y+3/4, x+1/4, z+1/4'
7 '-x, -y+1/2, z'
8 'x, y, z'
9 '-y+1/4, x+1/4, -z+1/4'
10 'y+3/4, -x+1/4, -z+1/4'
11 'x+1/2, y, -z+1/2'
12 '-x+1/2, -y+1/2, -z+1/2'
13 'y+3/4, -x+3/4, z+3/4'
14 '-y+1/4, x+3/4, z+3/4'
15 '-x+1/2, -y, z+1/2'
16 'x+1/2, y+1/2, z+1/2'
loop_
_atom_type_symbol
_atom_type_oxidation_number
Na1+ 1
Er3+ 3
Mo6+ 6
O2- -2
loop_
_atom_site_label
_atom_site_type_symbol
_atom_site_symmetry_multiplicity
_atom_site_Wyckoff_symbol
_atom_site_fract_x
_atom_site_fract_y
_atom_site_fract_z
_atom_site_B_iso_or_equiv
_atom_site_occupancy
_atom_site_attached_hydrogens
Na1 Na1+ 16 f 0.7049(4) 0.8692(4) 0.4058(5) 0.0155(9) 1. 0
Na2 Na1+ 4 b 0.5 0.75 0.125 0.032(3) 1. 0
Er1 Er3+ 4 a 0.5 0.75 0.625 0.0106(4) 1. 0
Mo1 Mo6+ 16 f 0.40664(7) 0.93134(9) 0.36344(8) 0.0113(4) 1. 0
O1 O2- 16 f 0.4159(6) 0.0702(6) 0.4368(7) 0.0139(14) 1. 0
O2 O2- 16 f 0.2851(6) 0.9273(7) 0.2719(7) 0.0191(16) 1. 0
O3 O2- 16 f 0.3886(6) 0.8126(6) 0.4628(7) 0.0157(15) 1. 0
O4 O2- 16 f 0.5311(6) 0.8992(6) 0.2776(7) 0.0170(16) 1. 0
#End of TTdata_163466-ICSD