
#(C) 2019 by FIZ Karlsruhe - Leibniz Institute for Information Infrastructure.  All rights reserved.
data_163632-ICSD
_database_code_ICSD 163632
_audit_creation_date 2009-08-01
_audit_update_record 2019-02-01
_chemical_name_systematic
'Hexasodium bis(arsenato(V))diarsenato(V)bis(dioxouranate)'
_chemical_formula_structural 'Na6 ((U O2)2 (As O4)2 (As2 O7))'
_chemical_formula_sum 'As4 Na6 O19 U2'
_chemical_name_structure_type Na6(UO2)2(AsO4)2As2O7
_exptl_crystal_density_diffrn 4.8
_cell_measurement_temperature 293.
_publ_section_title

;
Novel layered uranyl arsenates, Ag6 ((U O2) (As2 O7) (As4 O13)) and A(I)6 ((U
O2)2 (As O4)2 (As2 O7)) (A(I)-Ag and Na): first observation of a linear (As4
O13)(6-) anion and structure type evolution
;
loop_
_citation_id
_citation_journal_full
_citation_year
_citation_journal_volume
_citation_page_first
_citation_page_last
_citation_journal_id_ASTM
primary 'Journal of Materials Chemistry' 2009 19 2583 2587 JMACEP
loop_
_publ_author_name
'Alekseev, E.V.'
'Krivovichev, S.V.'
'Depmeier, W.'
_cell_length_a 10.996(3)
_cell_length_b 11.633(3)
_cell_length_c 14.057(4)
_cell_angle_alpha 108.63(3)
_cell_angle_beta 91.27(2)
_cell_angle_gamma 97.40(2)
_cell_volume 1685.87
_cell_formula_units_Z 4
_symmetry_space_group_name_H-M 'P -1'
_symmetry_Int_Tables_number 2
_refine_ls_R_factor_all 0.0475
loop_
_symmetry_equiv_pos_site_id
_symmetry_equiv_pos_as_xyz
1 '-x, -y, -z'
2 'x, y, z'
loop_
_atom_type_symbol
_atom_type_oxidation_number
U6+ 6
As5+ 5
Na1+ 1
O2- -2
loop_
_atom_site_label
_atom_site_type_symbol
_atom_site_symmetry_multiplicity
_atom_site_Wyckoff_symbol
_atom_site_fract_x
_atom_site_fract_y
_atom_site_fract_z
_atom_site_B_iso_or_equiv
_atom_site_occupancy
_atom_site_attached_hydrogens
U1 U6+ 2 i 0.75550(4) 0.08003(4) 0.08919(3) 0.00772(10) 1 0
U2 U6+ 2 i 0.76793(4) 0.07202(4) 0.57773(3) 0.00801(11) 1 0
U3 U6+ 2 i 0.73768(4) -0.49473(4) -0.06071(3) 0.01157(11) 1 0
U4 U6+ 2 i 0.75021(5) -0.49163(4) -0.54923(3) 0.01608(13) 1 0
As1 As5+ 2 i 0.76737(11) -0.20508(11) 0.15191(9) 0.0095(3) 1 0
As2 As5+ 2 i 0.77038(11) -0.21064(11) -0.12399(8) 0.0087(3) 1 0
As3 As5+ 2 i 0.77601(12) -0.21864(12) 0.37271(9) 0.0105(3) 1 0
As4 As5+ 2 i 0.74530(11) -0.82766(11) -0.14139(8) 0.0086(3) 1 0
As5 As5+ 2 i 0.79288(11) -0.19880(11) -0.34406(9) 0.0076(3) 1 0
As6 As5+ 2 i 0.74670(12) 0.41235(12) 0.16870(9) 0.0095(3) 1 0
As7 As5+ 2 i 0.70879(11) -0.82381(11) -0.64326(8) 0.0085(3) 1 0
As8 As5+ 2 i 0.71679(12) -0.61035(12) -0.33545(9) 0.0112(3) 1 0
Na1 Na1+ 2 i 0.9853(5) 0.3284(5) 0.0308(4) 0.0168(12) 1 0
Na2 Na1+ 2 i 0.5094(5) -0.7572(6) 0.0006(4) 0.0291(15) 1 0
Na3 Na1+ 2 i 1.0341(5) -0.3163(5) -0.5208(4) 0.0197(13) 1 0
Na4 Na1+ 2 i 0.4877(5) -0.7609(6) -0.5058(4) 0.0238(14) 1 0
Na5 Na1+ 2 i 0.5550(5) 0.5975(5) 0.2054(4) 0.0215(13) 1 0
Na6 Na1+ 2 i 0.9742(5) -0.9594(5) -0.0988(4) 0.0212(12) 1 0
Na7 Na1+ 2 i 1.0041(5) 0.6460(5) 0.2049(4) 0.0240(13) 1 0
Na8 Na1+ 2 i 0.9341(5) -0.9759(5) -0.6627(4) 0.0221(13) 1 0
Na9 Na1+ 2 i 0.5618(5) -1.0752(5) -0.2095(4) 0.0183(12) 1 0
Na10 Na1+ 2 i 0.4885(5) 0.1204(5) 0.6856(5) 0.0266(13) 1 0
Na11 Na1+ 2 i 0.9661(6) -0.3887(6) -0.2812(4) 0.0292(14) 1 0
Na12 Na1+ 2 i 0.5280(6) -1.3789(6) -0.3117(5) 0.0377(17) 1 0
O1 O2- 2 i 0.6422(8) -0.2191(8) -0.3549(6) 0.0137(18) 1 0
O2 O2- 2 i 0.6203(8) -0.2255(8) -0.1405(6) 0.0147(19) 1 0
O3 O2- 2 i 0.6244(9) -0.2455(8) 0.3612(6) 0.017(2) 1 0
O4 O2- 2 i 0.6697(8) -0.7018(7) -0.0998(6) 0.0097(17) 1 0
O5 O2- 2 i 0.6166(9) -0.2248(8) 0.1512(6) 0.018(2) 1 0
O6 O2- 2 i 0.6884(8) 0.2622(8) 0.1135(6) 0.0164(19) 1 0
O7 O2- 2 i 0.6233(8) -0.0154(8) 0.5337(6) 0.0136(18) 1 0
O8 O2- 2 i 0.8276(9) -0.3049(8) 0.0563(6) 0.019(2) 1 0
O9 O2- 2 i 0.8340(7) -0.0606(7) 0.1739(6) 0.0089(16) 1 0
O10 O2- 2 i 0.6817(8) 0.4637(8) 0.2789(6) 0.0132(18) 1 0
O11 O2- 2 i 0.6597(8) -0.7594(8) -0.3883(6) 0.0153(19) 1 0
O12 O2- 2 i 0.8585(8) -0.3223(7) -0.3986(6) 0.0108(17) 1 0
O13 O2- 2 i 0.6891(8) 0.4862(8) 0.0945(6) 0.0127(18) 1 0
O14 O2- 2 i 0.6516(8) -0.6876(8) -0.5979(6) 0.0109(18) 1 0
O15 O2- 2 i 0.8273(8) -0.3398(7) -0.1381(6) 0.0098(17) 1 0
O16 O2- 2 i 0.6953(8) -0.9208(7) -0.0737(6) 0.0125(18) 1 0
O17 O2- 2 i 0.8970(9) 0.4348(8) 0.1787(6) 0.018(2) 1 0
O18 O2- 2 i 0.8968(8) -0.7958(7) -0.1297(6) 0.0129(17) 1 0
O19 O2- 2 i 0.6892(7) -0.9061(7) -0.2601(5) 0.0078(16) 1 0
O20 O2- 2 i 0.8297(8) -0.2453(8) 0.2521(6) 0.0160(18) 1 0
O21 O2- 2 i 0.9107(8) 0.1657(8) 0.6283(6) 0.0151(18) 1 0
O22 O2- 2 i 0.8439(8) -0.1538(8) -0.2141(6) 0.0149(18) 1 0
O23 O2- 2 i 0.8601(8) -0.0763(8) -0.3698(6) 0.0143(18) 1 0
O24 O2- 2 i 0.8889(9) -0.5314(9) -0.0551(7) 0.021(2) 1 0
O25 O2- 2 i 0.9113(8) 0.1469(8) 0.0796(6) 0.0135(18) 1 0
O26 O2- 2 i 0.5891(9) -0.9308(8) -0.6737(7) 0.021(2) 1 0
O27 O2- 2 i 0.8070(8) -0.8401(8) -0.5556(6) 0.0132(18) 1 0
O28 O2- 2 i 0.8964(10) -0.5436(10) -0.5782(7) 0.029(2) 1 0
O29 O2- 2 i 0.8328(8) -0.0739(8) 0.4323(6) 0.0125(17) 1 0
O30 O2- 2 i 0.8313(8) -0.0938(7) -0.0219(6) 0.0122(17) 1 0
O31 O2- 2 i 0.6042(8) 0.0082(8) 0.0934(6) 0.0134(18) 1 0
O32 O2- 2 i 0.7989(8) -0.8200(8) -0.7397(6) 0.0141(18) 1 0
O33 O2- 2 i 0.8421(9) -0.3190(8) 0.4095(6) 0.0183(19) 1 0
O34 O2- 2 i 0.6074(11) -0.4401(10) -0.5267(8) 0.035(3) 1 0
O35 O2- 2 i 0.5905(11) -0.4534(11) -0.0668(8) 0.038(3) 1 0
O36 O2- 2 i 0.6542(16) -0.5551(16) -0.2238(12) 0.011(3) 0.5 0
O37 O2- 2 i 0.6782(16) -0.5268(16) -0.4062(12) 0.010(4) 0.5 0
O38 O2- 2 i 0.8772(15) -0.5858(14) -0.3213(11) 0.006(3) 0.5 0
O39 O2- 2 i 0.8059(16) -0.5677(15) -0.4136(12) 0.013(4) 0.5 0
O40 O2- 2 i 0.7962(17) -0.5950(16) -0.2320(12) 0.016(4) 0.5 0
O41 O2- 2 i 0.5863(17) -0.5446(16) -0.3159(12) 0.017(4) 0.5 0
loop_
_atom_site_aniso_label
_atom_site_aniso_type_symbol
_atom_site_aniso_U_11
_atom_site_aniso_U_22
_atom_site_aniso_U_33
_atom_site_aniso_U_12
_atom_site_aniso_U_13
_atom_site_aniso_U_23
U1 U6+ 0.0067(2) 0.0072(2) 0.0094(2) 0.00255(17) 0.00116(15) 0.00227(16)
U2 U6+ 0.0075(2) 0.0075(2) 0.0095(2) 0.00339(17) 0.00101(16) 0.00251(17)
U3 U6+ 0.0134(2) 0.0102(2) 0.0102(2) -0.00327(19) -0.00252(17) 0.00425(17)
U4 U6+ 0.0298(3) 0.0076(3) 0.0096(2) -0.0010(2) 0.00449(19) 0.00219(18)
As1 As5+ 0.0089(6) 0.0084(6) 0.0110(5) 0.0021(5) 0.0015(4) 0.0027(4)
As2 As5+ 0.0101(6) 0.0087(6) 0.0084(5) 0.0050(5) 0.0020(4) 0.0029(4)
As3 As5+ 0.0146(6) 0.0088(6) 0.0099(5) 0.0039(5) 0.0064(5) 0.0045(5)
As4 As5+ 0.0066(5) 0.0098(6) 0.0092(5) 0.0029(5) 0.0010(4) 0.0020(4)
As5 As5+ 0.0070(5) 0.0076(6) 0.0090(5) 0.0030(4) -0.0005(4) 0.0031(4)
As6 As5+ 0.0100(6) 0.0093(6) 0.0107(5) 0.0045(5) 0.0029(4) 0.0041(4)
As7 As5+ 0.0106(6) 0.0053(6) 0.0099(5) 0.0039(5) 0.0003(4) 0.0016(4)
As8 As5+ 0.0151(6) 0.0103(6) 0.0098(5) 0.0071(5) 0.0033(4) 0.0033(4)
Na1 Na1+ 0.010(2) 0.024(3) 0.014(2) 0.001(2) -0.0018(19) 0.005(2)
Na2 Na1+ 0.015(3) 0.052(4) 0.023(3) 0.003(3) 0.007(2) 0.016(3)
Na3 Na1+ 0.007(2) 0.021(3) 0.033(3) 0.003(2) -0.002(2) 0.012(2)
Na4 Na1+ 0.013(3) 0.038(3) 0.025(3) 0.005(2) -0.003(2) 0.018(2)
Na5 Na1+ 0.009(2) 0.010(3) 0.035(3) -0.001(2) 0.003(2) -0.007(2)
Na6 Na1+ 0.015(3) 0.023(3) 0.030(3) 0.012(2) 0.011(2) 0.011(2)
Na7 Na1+ 0.019(3) 0.023(3) 0.035(3) 0.013(2) 0.002(2) 0.012(2)
Na8 Na1+ 0.012(3) 0.031(3) 0.019(2) -0.004(2) 0.005(2) 0.005(2)
Na9 Na1+ 0.019(3) 0.017(3) 0.018(2) 0.006(2) 0.003(2) 0.005(2)
Na10 Na1+ 0.016(3) 0.021(3) 0.053(3) 0.007(2) 0.008(2) 0.025(2)
Na11 Na1+ 0.040(3) 0.036(3) 0.019(3) 0.026(3) 0.004(2) 0.013(2)
Na12 Na1+ 0.032(4) 0.036(4) 0.043(3) -0.009(3) 0.012(3) 0.014(3)
#End of TTdata_163632-ICSD