
#(C) 2019 by FIZ Karlsruhe - Leibniz Institute for Information Infrastructure.  All rights reserved.
data_163894-ICSD
_database_code_ICSD 163894
_audit_creation_date 2009-08-01
_chemical_name_systematic
'Sodium magnesium silicon catena-disilicate (0.53/0.98/0.49/1)'
_chemical_formula_structural '(Mg0.51 Si0.49) (Na0.98 Mg0.02) (Si2 O6)'
_chemical_formula_sum 'Mg0.53 Na0.98 O6 Si2.49'
_chemical_name_structure_type Pyroxene-Omphacite
_chemical_name_mineral Unnamed_Clinopyroxene
_exptl_crystal_density_diffrn 3.29
_publ_section_title

;
X-ray diffraction and Raman spectroscopic study of clinopyroxenes with
six-coordinated Si in the Na (Mg0.5 Si0.5) Si2 O6 - Na Al Si2 O6 system
;
loop_
_citation_id
_citation_journal_full
_citation_year
_citation_journal_volume
_citation_page_first
_citation_page_last
_citation_journal_id_ASTM
primary 'American Mineralogist' 2009 94 942 949 AMMIAY
loop_
_publ_author_name
'Yang He Xiong'
'Konzett, J.'
'Frost, D.J.'
'Downs, R.T.'
_cell_length_a 9.4051(6)
_cell_length_b 8.6436(5)
_cell_length_c 5.2679(3)
_cell_angle_alpha 90.
_cell_angle_beta 108.142(3)
_cell_angle_gamma 90.
_cell_volume 406.96
_cell_formula_units_Z 4
_symmetry_space_group_name_H-M 'P 1 2/n 1'
_symmetry_Int_Tables_number 13
_refine_ls_R_factor_all 0.032
loop_
_symmetry_equiv_pos_site_id
_symmetry_equiv_pos_as_xyz
1 'x+1/2, -y, z+1/2'
2 '-x+1/2, y, -z+1/2'
3 '-x, -y, -z'
4 'x, y, z'
loop_
_atom_type_symbol
_atom_type_oxidation_number
Na1+ 1
Mg2+ 2
Na1+ 1
Mg2+ 2
Si4+ 4
Mg2+ 2
Si4+ 4
O2- -2
loop_
_atom_site_label
_atom_site_type_symbol
_atom_site_symmetry_multiplicity
_atom_site_Wyckoff_symbol
_atom_site_fract_x
_atom_site_fract_y
_atom_site_fract_z
_atom_site_B_iso_or_equiv
_atom_site_occupancy
_atom_site_attached_hydrogens
Na1 Na1+ 2 f 0.75 0.0515(1) 0.25 0.0106(3) 0.96 0
Mg1 Mg2+ 2 f 0.75 0.0515(1) 0.25 0.0106(3) 0.04 0
Na2 Na1+ 2 e 0.75 0.4564(1) 0.75 0.0155(3) 1. 0
Mg2 Mg2+ 2 f 0.75 0.6547(1) 0.25 0.0069(3) 1. 0
Si1 Si4+ 2 e 0.75 0.8471(1) 0.75 0.0052(2) 0.98 0
Mg3 Mg2+ 2 e 0.75 0.8471(1) 0.75 0.0052(2) 0.02 0
Si2 Si4+ 4 g 0.0447(1) 0.8485(1) 0.2263(1) 0.0059(1) 1. 0
Si3 Si4+ 4 g 0.0372(1) 0.6653(1) 0.7357(1) 0.0060(1) 1. 0
O1 O2- 4 g 0.8622(1) 0.8442(1) 0.1017(2) 0.0075(2) 1. 0
O2 O2- 4 g 0.8563(1) 0.6930(1) 0.6565(2) 0.0073(2) 1. 0
O3 O2- 4 g 0.1236(1) 0.0150(1) 0.3069(2) 0.0085(2) 1. 0
O4 O2- 4 g 0.0892(1) 0.4950(1) 0.7906(2) 0.0109(2) 1. 0
O5 O2- 4 g 0.1125(1) 0.7669(1) 0.0120(2) 0.0086(2) 1. 0
O6 O2- 4 g 0.0926(1) 0.7526(1) 0.5067(2) 0.0084(2) 1. 0
loop_
_atom_site_aniso_label
_atom_site_aniso_type_symbol
_atom_site_aniso_U_11
_atom_site_aniso_U_22
_atom_site_aniso_U_33
_atom_site_aniso_U_12
_atom_site_aniso_U_13
_atom_site_aniso_U_23
Na1 Na1+ 0.0122(6) 0.0089(5) 0.0086(5) 0. 0.0003(4) 0.
Mg1 Mg2+ 0.0122(6) 0.0089(5) 0.0086(5) 0. 0.0003(4) 0.
Na2 Na1+ 0.0206(7) 0.0089(5) 0.0124(5) 0. -0.0016(5) 0.
Mg2 Mg2+ 0.0070(4) 0.0064(4) 0.0070(4) 0. 0.0017(3) 0.
Si1 Si4+ 0.0051(3) 0.0046(3) 0.0057(3) 0. 0.0016(2) 0.
Mg3 Mg2+ 0.0051(3) 0.0046(3) 0.0057(3) 0. 0.0016(2) 0.
Si2 Si4+ 0.0058(2) 0.0057(2) 0.0060(2) -0.0004(2) 0.0016(2) -0.0002(1)
Si3 Si4+ 0.0057(2) 0.0059(2) 0.0063(2) 0.0003(2) 0.0018(2) 0.0005(1)
O1 O2- 0.0059(5) 0.0088(5) 0.0069(5) -0.0006(4) 0.0009(4) -0.0006(4)
O2 O2- 0.0055(5) 0.0083(5) 0.0083(5) 0.0006(4) 0.0024(4) -0.0003(4)
O3 O2- 0.0099(6) 0.0064(5) 0.0093(5) -0.0020(4) 0.0033(5) -0.0003(4)
O4 O2- 0.0119(6) 0.0087(5) 0.0120(5) 0.0018(5) 0.0037(5) 0.0004(4)
O5 O2- 0.0076(6) 0.0100(5) 0.0081(5) -0.0001(4) 0.0023(5) -0.0020(4)
O6 O2- 0.0084(6) 0.0096(5) 0.0074(5) -0.0012(4) 0.0027(4) 0.0018(4)
#End of TTdata_163894-ICSD