
#(C) 2019 by FIZ Karlsruhe - Leibniz Institute for Information Infrastructure.  All rights reserved.
data_163896-ICSD
_database_code_ICSD 163896
_audit_creation_date 2009-08-01
_chemical_name_systematic
'Sodium magnesium aluminium silicon catena-disilicate (0.97/0.40/0.30/0.33/1)'
_chemical_formula_structural '(Mg0.37 Al0.30 Si0.33) (Na0.97 Mg0.03) (Si2 O6)'
_chemical_formula_sum 'Al0.3 Mg0.4 Na0.97 O6 Si2.33'
_chemical_name_structure_type Pyroxene-CaMg(SiO3)2
_chemical_name_mineral Unnamed_Clinopyroxene
_exptl_crystal_density_diffrn 3.29
_publ_section_title

;
X-ray diffraction and Raman spectroscopic study of clinopyroxenes with
six-coordinated Si in the Na (Mg0.5 Si0.5) Si2 O6 - Na Al Si2 O6 system
;
loop_
_citation_id
_citation_journal_full
_citation_year
_citation_journal_volume
_citation_page_first
_citation_page_last
_citation_journal_id_ASTM
primary 'American Mineralogist' 2009 94 942 949 AMMIAY
loop_
_publ_author_name
'Yang He Xiong'
'Konzett, J.'
'Frost, D.J.'
'Downs, R.T.'
_cell_length_a 9.4410(3)
_cell_length_b 8.6038(3)
_cell_length_c 5.2547(2)
_cell_angle_alpha 90.
_cell_angle_beta 107.833(2)
_cell_angle_gamma 90.
_cell_volume 406.32
_cell_formula_units_Z 4
_symmetry_space_group_name_H-M 'C 1 2/c 1'
_symmetry_Int_Tables_number 15
_refine_ls_R_factor_all 0.027
loop_
_symmetry_equiv_pos_site_id
_symmetry_equiv_pos_as_xyz
1 'x, -y, z+1/2'
2 '-x, -y, -z'
3 '-x, y, -z+1/2'
4 'x, y, z'
5 'x+1/2, -y+1/2, z+1/2'
6 '-x+1/2, -y+1/2, -z'
7 '-x+1/2, y+1/2, -z+1/2'
8 'x+1/2, y+1/2, z'
loop_
_atom_type_symbol
_atom_type_oxidation_number
Na1+ 1
Mg2+ 2
Al3+ 3
Si4+ 4
O2- -2
loop_
_atom_site_label
_atom_site_type_symbol
_atom_site_symmetry_multiplicity
_atom_site_Wyckoff_symbol
_atom_site_fract_x
_atom_site_fract_y
_atom_site_fract_z
_atom_site_B_iso_or_equiv
_atom_site_occupancy
_atom_site_attached_hydrogens
Na1 Na1+ 4 e 0 0.2990(1) 0.25 0.0154(3) 0.97 0
Mg1 Mg2+ 4 e 0 0.2990(1) 0.25 0.0154(3) 0.03 0
Mg2 Mg2+ 4 e 0 0.9048(1) 0.25 0.0065(2) 0.37 0
Al1 Al3+ 4 e 0 0.9048(1) 0.25 0.0065(2) 0.3 0
Si1 Si4+ 4 e 0 0.9048(1) 0.25 0.0065(2) 0.33 0
Si2 Si4+ 8 f 0.2905(1) 0.0925(1) 0.2301(1) 0.0074(1) 1. 0
O1 O2- 8 f 0.1093(1) 0.0767(1) 0.1293(3) 0.0175(3) 1. 0
O2 O2- 8 f 0.3607(1) 0.2619(1) 0.2973(2) 0.0143(2) 1. 0
O3 O2- 8 f 0.3532(1) 0.0076(1) 0.0086(2) 0.0117(2) 1. 0
loop_
_atom_site_aniso_label
_atom_site_aniso_type_symbol
_atom_site_aniso_U_11
_atom_site_aniso_U_22
_atom_site_aniso_U_33
_atom_site_aniso_U_12
_atom_site_aniso_U_13
_atom_site_aniso_U_23
Na1 Na1+ 0.0201(5) 0.0111(4) 0.0105(5) 0. -0.0017(4) 0.
Mg1 Mg2+ 0.0201(5) 0.0111(4) 0.0105(5) 0. -0.0017(4) 0.
Mg2 Mg2+ 0.0069(3) 0.0073(3) 0.0047(3) 0. 0.0011(2) 0.
Al1 Al3+ 0.0069(3) 0.0073(3) 0.0047(3) 0. 0.0011(2) 0.
Si1 Si4+ 0.0069(3) 0.0073(3) 0.0047(3) 0. 0.0011(2) 0.
Si2 Si4+ 0.0070(2) 0.0098(2) 0.0051(2) 0.0001(1) 0.0013(1) -0.0009(1)
O1 O2- 0.0074(4) 0.0233(6) 0.0201(6) 0.0009(4) 0.0014(5) -0.0117(5)
O2 O2- 0.0209(5) 0.0108(4) 0.0111(5) -0.0012(4) 0.0047(4) -0.0007(4)
O3 O2- 0.0121(5) 0.0168(5) 0.0063(5) 0.0039(4) 0.0030(4) -0.0015(4)
#End of TTdata_163896-ICSD