
#(C) 2019 by FIZ Karlsruhe - Leibniz Institute for Information Infrastructure.  All rights reserved.
data_165790-ICSD
_database_code_ICSD 165790
_audit_creation_date 2010-08-01
_chemical_name_systematic 'Disodium tetraneodymium oxide nitride nonachloride'
_chemical_formula_structural 'Na2 Nd4 O N Cl9'
_chemical_formula_sum 'Cl9 N1 Na2 Nd4 O1'
_chemical_name_structure_type Na2Pr4Cl9O2
_exptl_crystal_density_diffrn 3.99
_publ_section_title

;
Chains of trans-edge connected (Z M4) tetrahedra (Z= N and O) in the
lanthanide nitride chlorides M2 N Cl3 and Na2 M4 O N Cl9 (M= La-Nd)
;
loop_
_citation_id
_citation_journal_full
_citation_year
_citation_journal_volume
_citation_page_first
_citation_page_last
_citation_journal_id_ASTM
primary 'Journal of Alloys and Compounds' 2009 485 110 118 JALCEU
loop_
_publ_author_name
'Schurz, C.M.'
'Schleid, T.'
_cell_length_a 8.0354(6)
_cell_length_b 11.3426(8)
_cell_length_c 9.2831(7)
_cell_angle_alpha 90.
_cell_angle_beta 107.109(5)
_cell_angle_gamma 90.
_cell_volume 808.64
_cell_formula_units_Z 2
_symmetry_space_group_name_H-M 'P 1 21/m 1'
_symmetry_Int_Tables_number 11
_refine_ls_R_factor_all 0.035
loop_
_symmetry_equiv_pos_site_id
_symmetry_equiv_pos_as_xyz
1 'x, -y+1/2, z'
2 '-x, -y, -z'
3 '-x, y+1/2, -z'
4 'x, y, z'
loop_
_atom_type_symbol
_atom_type_oxidation_number
Na1+ 1
Nd3+ 3
O2- -2
N3- -3
Cl1- -1
loop_
_atom_site_label
_atom_site_type_symbol
_atom_site_symmetry_multiplicity
_atom_site_Wyckoff_symbol
_atom_site_fract_x
_atom_site_fract_y
_atom_site_fract_z
_atom_site_B_iso_or_equiv
_atom_site_occupancy
_atom_site_attached_hydrogens
Na1 Na1+ 4 f 0.2282(7) 0.9950(6) 0.4292(5) 0.0803(20) 1. 0
Nd1 Nd3+ 2 e 0.59561(6) 0.25 0.83039(5) 0.0118(1) 1. 0
Nd2 Nd3+ 2 e 0.61146(6) 0.25 0.21779(5) 0.0134(1) 1. 0
Nd3 Nd3+ 4 f 0.27974(4) 0.04376(3) 0.94932(4) 0.0152(1) 1. 0
O1 O2- 4 f 0.5611(6) 0.1243(4) 0.0147(5) 0.0142(9) 0.5 0
N1 N3- 4 f 0.5611(6) 0.1243(4) 0.0147(5) 0.0142(9) 0.5 0
Cl1 Cl1- 2 e 0.2469(4) 0.25 0.1415(3) 0.0238(5) 1. 0
Cl2 Cl1- 2 e 0.2269(4) 0.25 0.7379(3) 0.0224(5) 1. 0
Cl3 Cl1- 2 e 0.6334(5) 0.25 0.5312(4) 0.0530(9) 1. 0
Cl4 Cl1- 4 f 0.8926(3) 0.4022(2) 0.8751(2) 0.0305(4) 1. 0
Cl5 Cl1- 4 f 0.5076(3) 0.9977(2) 0.3041(2) 0.0438(6) 1. 0
Cl6 Cl1- 4 f 0.9065(3) 0.0924(2) 0.3167(2) 0.0404(5) 1. 0
loop_
_atom_site_aniso_label
_atom_site_aniso_type_symbol
_atom_site_aniso_U_11
_atom_site_aniso_U_22
_atom_site_aniso_U_33
_atom_site_aniso_U_12
_atom_site_aniso_U_13
_atom_site_aniso_U_23
Na1 Na1+ 0.0531(28) 0.1503(58) 0.0336(21) 0.0465(35) 0.0069(20) 0.0023(28)
Nd1 Nd3+ 0.0131(2) 0.0103(2) 0.0123(2) 0. 0.0040(2) 0.
Nd2 Nd3+ 0.0160(2) 0.0116(2) 0.0121(2) 0. 0.0035(2) 0.
Nd3 Nd3+ 0.0120(2) 0.0099(2) 0.0234(2) 0.0012(1) 0.0050(1) 0.0013(1)
O1 O2- 0.0163(23) 0.0120(23) 0.0137(21) -0.0003(19) 0.0036(18) -0.0003(17)
N1 N3- 0.0163(23) 0.0120(23) 0.0137(21) -0.0003(19) 0.0036(18) -0.0003(17)
Cl1 Cl1- 0.0187(11) 0.0270(12) 0.0281(12) 0. 0.0106(9) 0.
Cl2 Cl1- 0.0174(11) 0.0233(12) 0.0249(11) 0. 0.0034(9) 0.
Cl3 Cl1- 0.0999(32) 0.0379(18) 0.0275(14) 0. 0.0281(18) 0.
Cl4 Cl1- 0.0219(9) 0.0312(10) 0.0426(10) -0.0102(7) 0.0164(8) -0.0152(8)
Cl5 Cl1- 0.0698(17) 0.0363(12) 0.0288(10) -0.0211(12) 0.0199(10) -0.0052(9)
Cl6 Cl1- 0.0315(10) 0.0449(13) 0.0366(10) 0.0157(9) -0.0028(8) -0.0104(9)
#End of TTdata_165790-ICSD