
#(C) 2019 by FIZ Karlsruhe - Leibniz Institute for Information Infrastructure.  All rights reserved.
data_165963-ICSD
_database_code_ICSD 165963
_audit_creation_date 2010-08-01
_chemical_name_systematic 'Disodium sulfate(VI) decakis(dideuteriohydrate)'
_chemical_formula_structural 'Na2 (S O4) (D2 O)10'
_chemical_formula_sum 'D20 Na2 O14 S1'
_chemical_name_structure_type Na2SO4(H2O)10
_chemical_name_mineral 'Mirabilite (deuterated)'
_exptl_crystal_density_diffrn 1.58
_cell_measurement_temperature 4.2
_publ_section_title

;
The thermal expansion and crystal structure of mirabilite (Na2 S O4 * 10(D2
O)) from 4.2 to 300 K, determined by time-of-flight neutron powder diffraction
;
loop_
_citation_id
_citation_journal_full
_citation_year
_citation_journal_volume
_citation_page_first
_citation_page_last
_citation_journal_id_ASTM
primary 'Physics and Chemistry of Minerals' 2009 36 29 46 PCMIDU
loop_
_publ_author_name
'Brand, H.E.A.'
'Fortes, A.D.'
'Wood, I.G.'
'Knight, K.S.'
'Vocadlo, L.'
_cell_length_a 11.44190(6)
_cell_length_b 10.34307(5)
_cell_length_c 12.75316(6)
_cell_angle_alpha 90.
_cell_angle_beta 107.838(1)
_cell_angle_gamma 90.
_cell_volume 1436.71
_cell_formula_units_Z 4
_symmetry_space_group_name_H-M 'P 1 21/c 1'
_symmetry_Int_Tables_number 14
_refine_ls_R_factor_all 0.025
loop_
_symmetry_equiv_pos_site_id
_symmetry_equiv_pos_as_xyz
1 'x, -y+1/2, z+1/2'
2 '-x, -y, -z'
3 '-x, y+1/2, -z+1/2'
4 'x, y, z'
loop_
_atom_type_symbol
_atom_type_oxidation_number
S6+ 6
Na1+ 1
O2- -2
D1+ 1
loop_
_atom_site_label
_atom_site_type_symbol
_atom_site_symmetry_multiplicity
_atom_site_Wyckoff_symbol
_atom_site_fract_x
_atom_site_fract_y
_atom_site_fract_z
_atom_site_B_iso_or_equiv
_atom_site_occupancy
_atom_site_attached_hydrogens
S1 S6+ 4 e 0.2477(3) 0.3599(3) 0.2592(3) 0.00396(0) 1. 0
Na1 Na1+ 4 e 0.2582(7) 0.7453(8) 0.0173(7) 0.0118(11) 1. 0
Na2 Na1+ 4 e 0.2460(7) 0.6121(7) 0.7613(6) 0.0118(11) 1. 0
O1 O2- 4 e 0.2642(3) 0.2864(4) 0.3611(3) 0.0108(6) 1. 0
O2 O2- 4 e 0.1409(3) 0.3095(4) 0.1730(3) 0.0108(6) 1. 0
O3 O2- 4 e 0.3575(3) 0.3466(3) 0.2235(3) 0.0108(6) 1. 0
O4 O2- 4 e 0.22887(3) 0.4969(3) 0.2790(3) 0.0108(6) 1. 0
O5 O2- 4 e 0.1234(4) 0.4551(4) 0.6399(4) 0.0131(4) 1. 0
O6 O2- 4 e 0.3676(4) 0.4551(4) 0.8793(4) 0.0131(4) 1. 0
O7 O2- 4 e 0.0996(4) 0.3500(4) 0.9454(4) 0.0113(7) 1. 0
O8 O2- 4 e 0.3976(4) 0.3473(4) 0.5833(4) 0.0113(7) 1. 0
O9 O2- 4 e 0.1149(3) 0.6110(4) 0.8804(4) 0.0131(4) 1. 0
O10 O2- 4 e 0.38519(3) 0.6076(4) 0.6512(4) 0.0131(4) 1. 0
O11 O2- 4 e 0.1453(4) 0.7149(4) 0.1472(4) 0.0131(4) 1. 0
O12 O2- 4 e 0.3566(4) 0.7170(4) 0.3812(4) 0.0131(4) 1. 0
O13 O2- 4 e 0.1280(4) 0.5683(5) 0.4429(4) 0.0131(4) 1. 0
O14 O2- 4 e 0.3814(4) 0.5587(4) 0.0817(4) 0.0131(4) 1. 0
D1 D1+ 4 e 0.1435(4) 0.3630(4) 0.6523(4) 0.0211(7) 1. 0
D2 D1+ 4 e 0.1380(7) 0.4758(6) 0.5692(5) 0.0286(4) 0.654(5) 0
D3 D1+ 4 e 0.0328(5) 0.4568(8) 0.6088(11) 0.0286(4) 0.346(5) 0
D4 D1+ 4 e 0.3345(4) 0.1333(5) 0.3708(4) 0.0211(7) 1. 0
D5 D1+ 4 e 0.4557(4) 0.4442(6) 0.8869(6) 0.0286(4) 0.654(5) 0
D6 D1+ 4 e 0.3627(12) 0.4839(9) 0.9519(7) 0.0286(4) 0.346(5) 0
D7 D1+ 4 e 0.1233(4) 0.3346(5) 0.0256(3) 0.0211(7) 1. 0
D8 D1+ 4 e 0.1541(4) 0.2930(4) 0.9195(3) 0.0211(7) 1. 0
D9 D1+ 4 e 0.3487(4) 0.3308(4) 0.5061(3) 0.0211(7) 1. 0
D10 D1+ 4 e 0.3699(4) 0.2808(5) 0.6261(3) 0.0211(7) 1. 0
D11 D1+ 4 e 0.1117(4) 0.5213(4) 0.9058(4) 0.0243(4) 1. 0
D12 D1+ 4 e 0.0283(4) 0.6385(4) 0.8543(3) 0.0211(7) 1. 0
D13 D1+ 4 e 0.3885(4) 0.5188(4) 0.6246(4) 0.0243(4) 1. 0
D14 D1+ 4 e 0.4717(4) 0.6298(4) 0.6897(4) 0.0211(7) 1. 0
D15 D1+ 4 e 0.0564(4) 0.7040(5) 0.1109(4) 0.0243(4) 1. 0
D16 D1+ 4 e 0.1706(3) 0.6316(5) 0.1856(4) 0.0211(7) 1. 0
D17 D1+ 4 e 0.3233(3) 0.6340(5) 0.3466(4) 0.0243(4) 1. 0
D18 D1+ 4 e 0.4462(4) 0.7050(5) 0.4022(4) 0.0211(7) 1. 0
D19 D1+ 4 e 0.1652(4) 0.5274(5) 0.3911(4) 0.0211(7) 1. 0
D20 D1+ 4 e 0.0387(4) 0.5582(7) 0.4072(5) 0.0286(4) 0.654(5) 0
D21 D1+ 4 e 0.1452(11) 0.5083(11) 0.5061(6) 0.0286(4) 0.346(5) 0
D22 D1+ 4 e 0.3661(4) 0.4922(5) 0.1313(3) 0.0211(7) 1. 0
D23 D1+ 4 e 0.3709(6) 0.5121(6) 0.0114(4) 0.0286(4) 0.654(5) 0
D24 D1+ 4 e 0.4717(5) 0.5680(12) 0.1055(10) 0.0286(4) 0.346(5) 0
#End of TTdata_165963-ICSD