
#(C) 2019 by FIZ Karlsruhe - Leibniz Institute for Information Infrastructure.  All rights reserved.
data_166361-ICSD
_database_code_ICSD 166361
_audit_creation_date 2010-08-01
_chemical_name_systematic 'Sodium tetrafluoroaluminate - metastable'
_chemical_formula_structural 'Na (Al F4)'
_chemical_formula_sum 'Al1 F4 Na1'
_chemical_name_structure_type ReBiO4
_exptl_crystal_density_diffrn 2.94
_publ_section_title 'Crystal structure of Na Al F4, a new aristotype'
loop_
_citation_id
_citation_journal_full
_citation_year
_citation_journal_volume
_citation_page_first
_citation_page_last
_citation_journal_id_ASTM
primary 'Powder Diffraction' 2009 24 301 305 PODIE2
loop_
_publ_author_name
'Le Bail, A.'
_cell_length_a 3.6121(3)
_cell_length_b 14.952(1)
_cell_length_c 5.2692(4)
_cell_angle_alpha 90.
_cell_angle_beta 90.
_cell_angle_gamma 90.
_cell_volume 284.58
_cell_formula_units_Z 4
_symmetry_space_group_name_H-M 'C m c m'
_symmetry_Int_Tables_number 63
_refine_ls_R_factor_all 0.0557
loop_
_symmetry_equiv_pos_site_id
_symmetry_equiv_pos_as_xyz
1 '-x, y, -z+1/2'
2 '-x, -y, z+1/2'
3 '-x, y, z'
4 '-x, -y, -z'
5 'x, -y, z+1/2'
6 'x, y, -z+1/2'
7 'x, -y, -z'
8 'x, y, z'
9 '-x+1/2, y+1/2, -z+1/2'
10 '-x+1/2, -y+1/2, z+1/2'
11 '-x+1/2, y+1/2, z'
12 '-x+1/2, -y+1/2, -z'
13 'x+1/2, -y+1/2, z+1/2'
14 'x+1/2, y+1/2, -z+1/2'
15 'x+1/2, -y+1/2, -z'
16 'x+1/2, y+1/2, z'
loop_
_atom_type_symbol
_atom_type_oxidation_number
Na1+ 1
Al3+ 3
F1- -1
loop_
_atom_site_label
_atom_site_type_symbol
_atom_site_symmetry_multiplicity
_atom_site_Wyckoff_symbol
_atom_site_fract_x
_atom_site_fract_y
_atom_site_fract_z
_atom_site_B_iso_or_equiv
_atom_site_occupancy
_atom_site_attached_hydrogens
Na1 Na1+ 4 c 0 0.3083(3) 0.25 3.87(11) 1. 0
Al1 Al3+ 4 c 0 0.0822(2) 0.25 1.45(7) 1. 0
F1 F1- 8 f 0 0.1672(2) 0.5038(4) 3.74(7) 1. 0
F2 F1- 4 a 0 0 0 3.74(7) 1. 0
F3 F1- 4 c 0 0.5827(4) 0.25 3.74(7) 1. 0
#End of TTdata_166361-ICSD