
#(C) 2019 by FIZ Karlsruhe - Leibniz Institute for Information Infrastructure.  All rights reserved.
data_166505-ICSD
_database_code_ICSD 166505
_audit_creation_date 2010-08-01
_audit_update_record 2012-08-01
_chemical_name_systematic 'Disodium calcium phosphate(V) fluoride'
_chemical_formula_structural 'Na2 Ca (P O4) F'
_chemical_formula_sum 'Ca1 F1 Na2 O4 P1'
_chemical_name_mineral Nacaphite
_exptl_crystal_density_diffrn 2.88
_publ_section_title

;
The crystal chemistry of the (M3 phi11-14) trimeric structures: from
hyperagpaitic complex to saline lakes
;
loop_
_citation_id
_citation_journal_full
_citation_year
_citation_journal_volume
_citation_page_first
_citation_page_last
_citation_journal_id_ASTM
primary 'Canadian Mineralogist' 2001 30 1275 1294 CAMIA6
loop_
_publ_author_name
'Sokolova, E.'
'Hawthorne, F.C.'
_cell_length_a 5.3232(2)
_cell_length_b 12.2103(4)
_cell_length_c 7.0961(2)
_cell_angle_alpha 90.002(1)
_cell_angle_beta 89.998(1)
_cell_angle_gamma 89.965(1)
_cell_volume 461.23
_cell_formula_units_Z 4
_symmetry_space_group_name_H-M 'P -1'
_symmetry_Int_Tables_number 2
_refine_ls_R_factor_all 0.0557
loop_
_symmetry_equiv_pos_site_id
_symmetry_equiv_pos_as_xyz
1 '-x, -y, -z'
2 'x, y, z'
loop_
_atom_type_symbol
_atom_type_oxidation_number
Na1+ 1
Ca2+ 2
Na1+ 1
Ca2+ 2
Na1+ 1
Ca2+ 2
Na1+ 1
Ca2+ 2
Na1+ 1
Ca2+ 2
Na1+ 1
P5+ 5
F1- -1
O2- -2
loop_
_atom_site_label
_atom_site_type_symbol
_atom_site_symmetry_multiplicity
_atom_site_Wyckoff_symbol
_atom_site_fract_x
_atom_site_fract_y
_atom_site_fract_z
_atom_site_B_iso_or_equiv
_atom_site_occupancy
_atom_site_attached_hydrogens
Na1 Na1+ 2 i -0.2336(3) 0.8298(1) 0.4894(2) 0.0160(6) 0.50(3) 0
Ca1 Ca2+ 2 i -0.2336(3) 0.8298(1) 0.4894(2) 0.0160(6) 0.50(2) 0
Na2 Na1+ 2 i -0.2334(3) 0.8297(1) 0.0106(2) 0.0150(6) 0.53(3) 0
Ca2 Ca2+ 2 i -0.2334(3) 0.8297(1) 0.0106(2) 0.0150(6) 0.47(2) 0
Na3 Na1+ 2 i 0.2365(4) 0.9096(2) 0.2501(3) 0.0203(9) 0.95(3) 0
Ca3 Ca2+ 2 i 0.2365(4) 0.9096(2) 0.2501(3) 0.0203(9) 0.05(2) 0
Na4 Na1+ 2 i 0.2465(4) 0.6691(1) 0.0139(2) 0.0239(7) 0.55(3) 0
Ca4 Ca2+ 2 i 0.2465(4) 0.6691(1) 0.0139(2) 0.0239(7) 0.45(2) 0
Na5 Na1+ 2 i 0.2465(4) 0.6691(1) 0.4860(2) 0.0251(7) 0.51(3) 0
Ca5 Ca2+ 2 i 0.2465(4) 0.6691(1) 0.4860(2) 0.0251(7) 0.49(2) 0
Na6 Na1+ 2 i -0.2638(4) 0.5875(2) 0.2502(4) 0.0251(8) 1. 0
P1 P5+ 2 i -0.2048(2) 0.5868(1) 0.7501(2) 0.0110(3) 1. 0
P2 P5+ 2 i 0.2956(2) 0.9165(1) 0.7500(2) 0.0094(3) 1. 0
F1 F1- 2 i 0.0038(6) 0.7371(3) 0.2496(5) 0.0220(7) 1. 0
F2 F1- 2 i -0.4973(6) 0.7578(2) 0.2496(5) 0.0235(7) 1. 0
O1 O2- 2 i -0.4134(7) 0.9160(3) 0.7499(6) 0.0169(7) 1. 0
O2 O2- 2 i 0.2011(8) 0.8563(3) 0.9262(5) 0.0220(8) 1. 0
O3 O2- 2 i 0.2007(8) 0.8563(3) 0.5738(5) 0.0227(8) 1. 0
O4 O2- 2 i 0.1995(8) 0.0348(3) 0.7502(6) 0.0215(8) 1. 0
O5 O2- 2 i -0.3035(8) 0.4690(3) 0.7503(6) 0.0232(8) 1. 0
O6 O2- 2 i 0.0803(8) 0.5864(3) 0.7500(8) 0.0304(10) 1. 0
O7 O2- 2 i -0.295(2) 0.6475(4) 0.9240(8) 0.0633(22) 1. 0
O8 O2- 2 i -0.296(2) 0.6476(4) 0.5764(8) 0.0617(21) 1. 0
loop_
_atom_site_aniso_label
_atom_site_aniso_type_symbol
_atom_site_aniso_U_11
_atom_site_aniso_U_22
_atom_site_aniso_U_33
_atom_site_aniso_U_12
_atom_site_aniso_U_13
_atom_site_aniso_U_23
Na1 Na1+ 0.0180(8) 0.0147(8) 0.0154(8) -0.0029(5) 0.0042(5) -0.0029(5)
Ca1 Ca2+ 0.0180(8) 0.0147(8) 0.0154(8) -0.0029(5) 0.0042(5) -0.0029(5)
Na2 Na1+ 0.0176(8) 0.0133(8) 0.0140(8) -0.0027(5) -0.0027(5) 0.0028(5)
Ca2 Ca2+ 0.0176(8) 0.0133(8) 0.0140(8) -0.0027(5) -0.0027(5) 0.0028(5)
Na3 Na1+ 0.0245(14) 0.0182(13) 0.0183(12) -0.0003(9) 0.0011(9) 0.0001(8)
Ca3 Ca2+ 0.0245(14) 0.0182(13) 0.0183(12) -0.0003(9) 0.0011(9) 0.0001(8)
Na4 Na1+ 0.0503(13) 0.0111(9) 0.0103(8) 0.0010(7) 0.0052(7) -0.0002(5)
Ca4 Ca2+ 0.0503(13) 0.0111(9) 0.0103(8) 0.0010(7) 0.0052(7) -0.0002(5)
Na5 Na1+ 0.0506(13) 0.0130(9) 0.0118(8) -0.0012(7) -0.0035(7) 0.0003(5)
Ca5 Ca2+ 0.0506(13) 0.0130(9) 0.0118(8) -0.0012(7) -0.0035(7) 0.0003(5)
Na6 Na1+ 0.0107(11) 0.0138(12) 0.0507(17) -0.0012(9) 0.0017(11) 0.0004(10)
P1 P5+ 0.0124(8) 0.0079(5) 0.0126(5) -0.0016(5) 0.0012(5) 0.0002(4)
P2 P5+ 0.0079(5) 0.0098(5) 0.0104(5) -0.0002(3) 0.0007(5) -0.0002(4)
F1 F1- 0.0073(13) 0.0204(16) 0.0383(20) -0.0027(12) 0.0013(13) 0.0002(14)
F2 F1- 0.0174(15) 0.0136(15) 0.0392(21) -0.0028(12) 0.0015(14) -0.0012(14)
O1 O2- 0.0108(15) 0.0191(18) 0.0207(16) -0.0013(14) -0.0002(14) 0.0003(14)
O2 O2- 0.0330(21) 0.0172(18) 0.0160(17) -0.0019(16) 0.0144(16) 0.0018(13)
O3 O2- 0.0355(21) 0.0169(18) 0.0159(17) -0.0027(17) -0.0131(16) -0.0015(13)
O4 O2- 0.0223(18) 0.0094(16) 0.0328(20) 0.0032(15) 0.0002(17) 0.0000(14)
O5 O2- 0.0225(19) 0.0086(16) 0.0384(22) -0.0038(15) 0.0009(18) -0.0009(15)
O6 O2- 0.0130(18) 0.0157(19) 0.0624(29) -0.0011(15) 0.0005(20) -0.0002(19)
O7 O2- 0.1185(56) 0.0140(21) 0.0594(34) -0.0127(27) 0.0701(38) -0.0120(21)
O8 O2- 0.1165(56) 0.0143(21) 0.0544(32) -0.0129(27) -0.00627(37) 0.0111(21)
#End of TTdata_166505-ICSD