
#(C) 2019 by FIZ Karlsruhe - Leibniz Institute for Information Infrastructure.  All rights reserved.
data_1665-ICSD
_database_code_ICSD 1665
_audit_creation_date 1980-01-01
_audit_update_record 2010-02-01
_chemical_name_systematic 'Disodium heptafluoromangano(II)vanadate(III)'
_chemical_formula_structural 'Na2 (Mn V F7)'
_chemical_formula_sum 'F7 Mn1 Na2 V1'
_chemical_name_structure_type Mn2Sb2O7
_exptl_crystal_density_diffrn 3.2
_publ_section_title

;
Roentgen- und Neutronen-Strukturbestimmung des Na2 Mn Fe F7-Typs: eine
trigonale Weberit-Variante
;
loop_
_citation_id
_citation_journal_full
_citation_year
_citation_journal_volume
_citation_page_first
_citation_page_last
_citation_journal_id_ASTM
primary 'Journal of Solid State Chemistry' 1978 24 405 421 JSSCBI
loop_
_publ_author_name
'Verscharen, W.'
'Babel, D.'
_cell_length_a 7.492(2)
_cell_length_b 7.492(2)
_cell_length_c 18.261(7)
_cell_angle_alpha 90.
_cell_angle_beta 90.
_cell_angle_gamma 120.
_cell_volume 887.67
_cell_formula_units_Z 6
_symmetry_space_group_name_H-M 'P 31 2 1'
_symmetry_Int_Tables_number 152
_refine_ls_R_factor_all 0.054
loop_
_symmetry_equiv_pos_site_id
_symmetry_equiv_pos_as_xyz
1 'x-y, -y, -z+2/3'
2 '-x, -x+y, -z+1/3'
3 'y, x, -z'
4 '-x+y, -x, z+2/3'
5 '-y, x-y, z+1/3'
6 'x, y, z'
loop_
_atom_type_symbol
_atom_type_oxidation_number
V3+ 3
Mn2+ 2
Na1+ 1
F1- -1
loop_
_atom_site_label
_atom_site_type_symbol
_atom_site_symmetry_multiplicity
_atom_site_Wyckoff_symbol
_atom_site_fract_x
_atom_site_fract_y
_atom_site_fract_z
_atom_site_B_iso_or_equiv
_atom_site_occupancy
_atom_site_attached_hydrogens
V1 V3+ 3 a 0.3177(5) 0 0.3333 . 1. 0
V2 V3+ 3 b 0.3399(5) 0 0.8333 . 1. 0
Mn1 Mn2+ 6 c 0.4957(5) 0.8377(4) 0.1698(1) . 1. 0
Na1 Na1+ 6 c 0.5143(15) 0.8723(10) 0.6694(3) . 1. 0
Na2 Na1+ 3 a 0.8245(19) 0 0.3333 . 1. 0
Na3 Na1+ 6 c 0.8674(22) 0.0378(25) 0.8382(15) . 0.5 0
F1 F1- 6 c 0.7557(12) 0.1939(15) 0.6057(4) . 1. 0
F2 F1- 6 c 0.7957(18) 0.9346(13) 0.9470(4) . 1. 0
F3 F1- 6 c 0.5589(18) 0.4249(13) 0.0541(4) . 1. 0
F4 F1- 6 c 0.8092(12) 0.4361(13) 0.1884(4) . 1. 0
F5 F1- 6 c 0.0658(12) 0.3766(13) 0.2688(3) . 1. 0
F6 F1- 6 c 0.1959(13) 0.2473(12) 0.1452(4) . 1. 0
F7 F1- 6 c 0.0527(12) 0.4275(12) 0.8730(4) . 1. 0
loop_
_atom_site_aniso_label
_atom_site_aniso_type_symbol
_atom_site_aniso_B_11
_atom_site_aniso_B_22
_atom_site_aniso_B_33
_atom_site_aniso_B_12
_atom_site_aniso_B_13
_atom_site_aniso_B_23
V1 V3+ 1.79(12) 0.78(11) 0.20(9) 0.39(6) -.01(3) -.03(7)
V2 V3+ 0.94(10) 0.60(12) 0.98(9) 0.30(6) 0.05(3) 0.11(7)
Mn1 Mn2+ 0.95(6) 0.94(7) 1.29(6) 0.44(6) 0.01(5) -.03(6)
Na1 Na1+ 3.31(28) 1.82(27) 2.96(20) 0.70(26) 0.41(18) -1.07(17)
Na2 Na1+ 5.40(54) 8.74(81) 5.52(44) 4.37(41) 1.21(21) 2.42(42)
Na3 Na1+ 2.73(62) 1.46(1) 0.48(56) 0.48(67) 0.10(49) -.01(68)
F1 F1- 2.57(34) 3.57(47) 1.90(29) 0.72(40) -1.39(25) -.99(32)
F2 F1- 5.52(58) 2.72(35) 2.51(31) 2.92(42) 0.19(37) 1.09(27)
F3 F1- 4.65(55) 3.66(39) 2.28(31) 2.32(45) 1.48(38) 1.78(29)
F4 F1- 2.28(39) 4.07(42) 2.87(32) 2.18(34) -.78(29) -.80(29)
F5 F1- 3.32(38) 3.74(39) 1.81(27) 2.17(34) -.54(25) -.59(27)
F6 F1- 1.85(35) 3.16(34) 3.37(33) 1.55(31) -.43(29) -.33(28)
F7 F1- 2.00(34) 4.32(41) 4.30(36) 2.22(32) -.05(30) 0.26(31)
#End of TTdata_1665-ICSD