
#(C) 2019 by FIZ Karlsruhe - Leibniz Institute for Information Infrastructure.  All rights reserved.
data_166606-ICSD
_database_code_ICSD 166606
_audit_creation_date 2010-08-01
_chemical_name_systematic 'Sodium neodymium sulfate(VI) (1.85/0.05/1)'
_chemical_formula_structural '(Na0.95 Nd0.05) Na0.9 (S O4)'
_chemical_formula_sum 'Na1.85 Nd0.05 O4 S1'
_exptl_crystal_density_diffrn 2.73
_publ_section_title
'Crystal structure of the solid electrolyte Na1.85 Nd0.05 (vac)0.1 (S O4)'
loop_
_citation_id
_citation_journal_full
_citation_year
_citation_journal_volume
_citation_page_first
_citation_page_last
_citation_journal_id_ASTM
primary 'Doklady Akademii Nauk SSSR' 1985 282 612 616 DANKAS
loop_
_publ_author_name
'Rastsvetaeva, R.K.'
'Andrianov, V.I.'
_cell_length_a 5.3508(7)
_cell_length_b 5.3508(7)
_cell_length_c 7.1602(11)
_cell_angle_alpha 90.
_cell_angle_beta 90.
_cell_angle_gamma 120.
_cell_volume 177.54
_cell_formula_units_Z 2
_symmetry_space_group_name_H-M 'P 63/m m c'
_symmetry_Int_Tables_number 194
_refine_ls_R_factor_all 0.0487
loop_
_symmetry_equiv_pos_site_id
_symmetry_equiv_pos_as_xyz
1 'x, x-y, -z+1/2'
2 '-x+y, y, -z+1/2'
3 '-y, -x, -z+1/2'
4 '-x+y, -x, -z+1/2'
5 '-y, x-y, -z+1/2'
6 'x, y, -z+1/2'
7 '-x, -x+y, z+1/2'
8 'x-y, -y, z+1/2'
9 'y, x, z+1/2'
10 'x-y, x, z+1/2'
11 'y, -x+y, z+1/2'
12 '-x, -y, z+1/2'
13 '-x, -x+y, -z'
14 'x-y, -y, -z'
15 'y, x, -z'
16 'x-y, x, -z'
17 'y, -x+y, -z'
18 '-x, -y, -z'
19 'x, x-y, z'
20 '-x+y, y, z'
21 '-y, -x, z'
22 '-x+y, -x, z'
23 '-y, x-y, z'
24 'x, y, z'
loop_
_atom_type_symbol
_atom_type_oxidation_number
Na1+ 1
Nd3+ 3
Na1+ 1
S6+ 6
O2- -2
loop_
_atom_site_label
_atom_site_type_symbol
_atom_site_symmetry_multiplicity
_atom_site_Wyckoff_symbol
_atom_site_fract_x
_atom_site_fract_y
_atom_site_fract_z
_atom_site_B_iso_or_equiv
_atom_site_occupancy
_atom_site_attached_hydrogens
Na1 Na1+ 2 a 0 0 0 3.09 0.95 0
Nd1 Nd3+ 2 a 0 0 0 3.09 0.05 0
Na2 Na1+ 4 f 0.3333 0.6667 0.216(2) 2.85 0.46 0
S1 S6+ 2 d 0.3333 0.6667 0.75 3.03 1. 0
O1 O2- 6 h 0.180(1) 0.360(1) 0.75 4.58 0.65 0
O2 O2- 12 k 0.207(2) 0.414(4) 0.855(2) 3.86 0.167 0
O3 O2- 12 k 0.253(3) 0.506(6) -0.058(2) 5.62 0.18 0
loop_
_atom_site_aniso_label
_atom_site_aniso_type_symbol
_atom_site_aniso_U_11
_atom_site_aniso_U_22
_atom_site_aniso_U_33
_atom_site_aniso_U_12
_atom_site_aniso_U_13
_atom_site_aniso_U_23
Na1 Na1+ 0.0489 0.0489 0.0133 0.0489 0. 0.
Nd1 Nd3+ 0.0489 0.0489 0.0133 0.0489 0. 0.
Na2 Na1+ 0.044 0.044 0.0493 0.044 0. 0.
S1 S6+ 0.0252 0.0252 0.0288 0.0252 0. 0.
O1 O2- 0.0728 0.0236 0.0205 0.0236 0. 0.
O2 O2- 0.1074 0.0626 0.0354 0.0626 0.039 0.078
O3 O2- 0.1566 0.1619 0.0252 0.1619 0.0563 0.1126
#End of TTdata_166606-ICSD