
#(C) 2019 by FIZ Karlsruhe - Leibniz Institute for Information Infrastructure.  All rights reserved.
data_166605-ICSD
_database_code_ICSD 166605
_audit_creation_date 2010-08-01
_audit_update_record 2013-02-01
_chemical_name_systematic 'Sodium dioxouranium(VI) catena-tris(phosphate(V))'
_chemical_formula_structural 'Na (U O2) (P O3)3'
_chemical_formula_sum 'Na1 O11 P3 U1'
_exptl_crystal_density_diffrn 3.97
_publ_section_title 'Synthesis and structure of the crystals Na U O2 (P O3)3'
loop_
_citation_id
_citation_journal_full
_citation_year
_citation_journal_volume
_citation_page_first
_citation_page_last
_citation_journal_id_ASTM
primary 'Doklady Akademii Nauk SSSR' 1977 235 394 397 DANKAS
loop_
_publ_author_name
'Linde, S.A.'
'Gorbunova, Yu.E.'
'Lavrov, A.V.'
'Kusnetsov, V.G.'
_cell_length_a 7.070(2)
_cell_length_b 13.481(5)
_cell_length_c 9.660(3)
_cell_angle_alpha 90.
_cell_angle_beta 105.48(2)
_cell_angle_gamma 90.
_cell_volume 887.3
_cell_formula_units_Z 4
_symmetry_space_group_name_H-M 'P 1 21/c 1'
_symmetry_Int_Tables_number 14
_refine_ls_R_factor_all 0.043
loop_
_symmetry_equiv_pos_site_id
_symmetry_equiv_pos_as_xyz
1 'x, -y+1/2, z+1/2'
2 '-x, -y, -z'
3 '-x, y+1/2, -z+1/2'
4 'x, y, z'
loop_
_atom_type_symbol
_atom_type_oxidation_number
Na1+ 1
U6+ 6
P5+ 5
O2- -2
loop_
_atom_site_label
_atom_site_type_symbol
_atom_site_symmetry_multiplicity
_atom_site_Wyckoff_symbol
_atom_site_fract_x
_atom_site_fract_y
_atom_site_fract_z
_atom_site_B_iso_or_equiv
_atom_site_occupancy
_atom_site_attached_hydrogens
Na1 Na1+ 4 e 0.25027(83) 0.47469(42) 0.07160(58) . 1. 0
U1 U6+ 4 e 0.37616(6) 0.15401(3) 0.25208(5) . 1. 0
P1 P5+ 4 e 0.68734(46) 0.38761(22) 0.34217(32) . 1. 0
P2 P5+ 4 e 0.97070(46) 0.33256(22) 0.18889(33) . 1. 0
P3 P5+ 4 e 0.83716(45) 0.12855(22) 0.15804(32) . 1. 0
O1 O2- 4 e 0.60017(131) 0.47622(60) 0.25751(90) . 1. 0
O2 O2- 4 e 0.56900(133) 0.29527(65) 0.31461(98) . 1. 0
O3 O2- 4 e 0.73815(139) 0.42040(62) 0.50637(89) . 1. 0
O4 O2- 4 e 0.90030(124) 0.36476(60) 0.32687(88) . 1. 0
O5 O2- 4 e 0.94039(155) 0.41443(69) 0.08244(95) . 1. 0
O6 O2- 4 e 0.17307(127) 0.29100(69) 0.24783(102) . 1. 0
O7 O2- 4 e 0.82151(126) 0.24375(60) 0.11952(88) . 1. 0
O8 O2- 4 e 0.71092(123) 0.10500(65) 0.25308(85) . 1. 0
O9 O2- 4 e 0.04601(132) 0.09644(66) 0.20777(100) . 1. 0
O10 O2- 4 e 0.41747(141) 0.12856(71) 0.44103(91) . 1. 0
O11 O2- 4 e 0.33860(145) 0.17125(74) 0.06718(98) . 1. 0
loop_
_atom_site_aniso_label
_atom_site_aniso_type_symbol
_atom_site_aniso_B_11
_atom_site_aniso_B_22
_atom_site_aniso_B_33
_atom_site_aniso_B_12
_atom_site_aniso_B_13
_atom_site_aniso_B_23
Na1 Na1+ 1.13(21) 1.20(22) 1.78(21) -0.12(18) 0.34(18) -0.39(18)
U1 U6+ 0.10(1) 0.22(1) 0.52(1) -0.01(1) -0.05(1) 0.00(1)
P1 P5+ 0.31(10) 0.18(10) 0.74(10) 0.07(9) 0.00(9) 0.03(8)
P2 P5+ 0.39(10) 0.24(11) 1.12(11) -0.03(9) 0.23(9) -0.05(8)
P3 P5+ 0.30(10) 0.30(10) 0.60(10) -0.07(8) 0.01(8) 0.02(8)
O1 O2- 0.93(35) 0.17(29) 1.25(32) 0.07(27) -0.01(28) 0.14(26)
O2 O2- 0.61(34) 0.49(33) 1.76(38) -0.33(28) -0.06(29) -0.20(28)
O3 O2- 1.37(36) 0.44(31) 0.54(30) 0.34(28) 0.12(27) 0.25(24)
O4 O2- 0.37(30) 0.55(33) 0.92(31) -0.16(25) 0.06(25) -0.41(24)
O5 O2- 2.08(44) 0.90(36) 1.03(34) -0.41(33) 0.41(32) 0.28(28)
O6 O2- 0.19(32) 0.94(36) 2.17(40) 0.08(27) -0.04(31) -0.38(31)
O7 O2- 0.57(32) 0.24(30) 0.81(31) -0.11(25) -0.16(26) 0.16(24)
O8 O2- 0.12(29) 0.89(34) 0.68(30) -0.15(26) 0.03(24) 0.16(25)
O9 O2- 0.39(32) 0.67(33) 1.77(37) 0.34(28) 0.19(29) 0.13(28)
O10 O2- 1.11(37) 1.50(40) 0.70(31) -0.31(31) 0.04(28) 0.26(27)
O11 O2- 1.20(38) 1.70(44) 1.16(34) 0.21(33) 0.06(30) 0.33(30)
#End of TTdata_166605-ICSD