
#(C) 2019 by FIZ Karlsruhe - Leibniz Institute for Information Infrastructure.  All rights reserved.
data_166893-ICSD
_database_code_ICSD 166893
_audit_creation_date 2010-08-01
_chemical_name_systematic 'Sodium dioxovanadium bis(iodate(V)) hydrate'
_chemical_formula_structural 'Na (V O2) (I O3)2 (H2 O)'
_chemical_formula_sum 'H2 I2 Na1 O9 V1'
_exptl_crystal_density_diffrn 3.86
_cell_measurement_temperature 293.
_publ_section_title

;
Na V O2 (I O3)2 (H2 O): a unique layered material produces a very strong SHG
response
;
loop_
_citation_id
_citation_journal_full
_citation_year
_citation_journal_volume
_citation_page_first
_citation_page_last
_citation_journal_id_ASTM
primary 'Chemistry of Materials' 2010 22 1545 1550 CMATEX
loop_
_publ_author_name
'Yang Bingping'
'Hu Chunli'
'Xu Xiang'
'Sun Chuan Fu'
'Zhang Jian Han'
'Mao Jiang Gao'
_cell_length_a 9.1139(13)
_cell_length_b 5.2146(5)
_cell_length_c 9.2164(14)
_cell_angle_alpha 90.
_cell_angle_beta 111.298(8)
_cell_angle_gamma 90.
_cell_volume 408.1
_cell_formula_units_Z 2
_symmetry_space_group_name_H-M 'P 1 21 1'
_symmetry_Int_Tables_number 4
_refine_ls_R_factor_all 0.0266
loop_
_symmetry_equiv_pos_site_id
_symmetry_equiv_pos_as_xyz
1 '-x, y+1/2, -z'
2 'x, y, z'
loop_
_atom_type_symbol
_atom_type_oxidation_number
Na1+ 1
V5+ 5
I5+ 5
O2- -2
H1+ 1
loop_
_atom_site_label
_atom_site_type_symbol
_atom_site_symmetry_multiplicity
_atom_site_Wyckoff_symbol
_atom_site_fract_x
_atom_site_fract_y
_atom_site_fract_z
_atom_site_B_iso_or_equiv
_atom_site_occupancy
_atom_site_attached_hydrogens
Na1 Na1+ 2 a 1.0404(4) 0.2634(7) 0.8165(4) 0.0240(7) 1 0
V1 V5+ 2 a 0.72618(15) 0.2888(2) 0.88415(15) 0.0136(3) 1 0
I1 I5+ 2 a 0.37397(5) 0.60261(8) 0.81464(5) 0.01292(13) 1 0
I2 I5+ 2 a 0.67494(5) 0.67696(7) 0.56257(5) 0.01267(13) 1 0
O1 O2- 2 a 0.2592(6) 0.5498(10) 0.9395(6) 0.0158(12) 1 0
O2 O2- 2 a 0.5226(6) 0.3603(11) 0.9209(6) 0.0192(12) 1 0
O3 O2- 2 a 0.2546(7) 0.4090(11) 0.6581(6) 0.0213(12) 1 0
O4 O2- 2 a 0.5776(7) 0.4483(12) 0.4153(7) 0.0270(14) 1 0
O5 O2- 2 a 0.8742(6) 0.5592(11) 0.6222(6) 0.0204(12) 1 0
O6 O2- 2 a 0.6122(6) 0.5291(11) 0.7159(7) 0.0199(12) 1 0
O7 O2- 2 a 0.8807(7) 0.4625(11) 0.9700(6) 0.0208(12) 1 0
O8 O2- 2 a 0.7802(6) 0.0736(10) 0.7837(6) 0.0195(11) 1 0
O9 O2- 2 a 1.1111(7) -0.0798(12) 0.6837(7) 0.0236(13) 1 0
H1 H1+ 2 a 1.0423 -0.0943 0.5925 0.035 1 0
H2 H1+ 2 a 1.1159 -0.2186 0.7335 0.035 1 0
loop_
_atom_site_aniso_label
_atom_site_aniso_type_symbol
_atom_site_aniso_U_11
_atom_site_aniso_U_22
_atom_site_aniso_U_33
_atom_site_aniso_U_12
_atom_site_aniso_U_13
_atom_site_aniso_U_23
Na1 Na1+ 0.0202(16) 0.0207(16) 0.0300(18) -0.0007(14) 0.0080(13) 0.0035(14)
V1 V5+ 0.0145(6) 0.0132(6) 0.0145(6) 0.0001(5) 0.0069(5) 0.0002(5)
I1 I5+ 0.0144(2) 0.0135(2) 0.0123(2) 0.00045(17) 0.00657(17) -0.00047(17)
I2 I5+ 0.0137(2) 0.0131(2) 0.0125(2) -0.00076(17) 0.00640(18) 0.00020(17)
O1 O2- 0.015(2) 0.015(3) 0.020(3) -0.004(2) 0.010(2) -0.005(2)
O2 O2- 0.020(3) 0.023(3) 0.019(3) 0.005(2) 0.012(2) 0.004(2)
O3 O2- 0.024(3) 0.024(3) 0.018(3) -0.004(2) 0.011(2) -0.009(2)
O4 O2- 0.024(3) 0.032(3) 0.026(3) -0.012(3) 0.010(3) -0.015(3)
O5 O2- 0.017(2) 0.021(3) 0.024(3) -0.001(2) 0.008(2) -0.001(2)
O6 O2- 0.021(3) 0.020(3) 0.023(3) 0.004(2) 0.012(2) 0.008(2)
O7 O2- 0.022(3) 0.022(3) 0.018(3) -0.004(2) 0.008(2) 0.001(2)
O8 O2- 0.022(3) 0.016(3) 0.023(3) 0.003(2) 0.010(2) -0.001(2)
O9 O2- 0.030(3) 0.019(3) 0.025(3) 0.000(3) 0.014(3) 0.005(2)
#End of TTdata_166893-ICSD