
#(C) 2019 by FIZ Karlsruhe - Leibniz Institute for Information Infrastructure.  All rights reserved.
data_167112-ICSD
_database_code_ICSD 167112
_audit_creation_date 2010-08-01
_chemical_name_systematic 'Sodium tetrahydroxoborate'
_chemical_formula_structural 'Na (B (O H)4)'
_chemical_formula_sum 'H4 B1 Na1 O4'
_exptl_crystal_density_diffrn 2.03
_cell_measurement_temperature 293.
_publ_section_title

;
Synthesis and crystal structure of a new modification of sodium
tetrahydroxyborate Na B (O H)4
;
loop_
_citation_id
_citation_journal_full
_citation_year
_citation_journal_volume
_citation_page_first
_citation_page_last
_citation_journal_id_ASTM
primary 'Glass Physics and Chemistry' 2009 35 308 312 GPHCEE
loop_
_publ_author_name
'Lapshin, A.E.'
'Medvedev, E.F.'
'Polyakova, I.G.'
'Shepelev, Yu.F.'
_cell_length_a 5.323(5)
_cell_length_b 9.496(5)
_cell_length_c 6.596(5)
_cell_angle_alpha 90.
_cell_angle_beta 90.
_cell_angle_gamma 90.
_cell_volume 333.41
_cell_formula_units_Z 4
_symmetry_space_group_name_H-M 'P 21 21 21'
_symmetry_Int_Tables_number 19
_refine_ls_R_factor_all 0.0188
loop_
_symmetry_equiv_pos_site_id
_symmetry_equiv_pos_as_xyz
1 '-x, y+1/2, -z+1/2'
2 'x+1/2, -y+1/2, -z'
3 '-x+1/2, -y, z+1/2'
4 'x, y, z'
loop_
_atom_type_symbol
_atom_type_oxidation_number
Na1+ 1
O2- -2
B3+ 3
H1+ 1
loop_
_atom_site_label
_atom_site_type_symbol
_atom_site_symmetry_multiplicity
_atom_site_Wyckoff_symbol
_atom_site_fract_x
_atom_site_fract_y
_atom_site_fract_z
_atom_site_B_iso_or_equiv
_atom_site_occupancy
_atom_site_attached_hydrogens
Na1 Na1+ 4 a 0.7140(1) -0.0199(1) 0.9668(1) 0.022(1) 1. 0
O1 O2- 4 a 0.8622(2) 0.3791(1) 0.9407(1) 0.019(1) 1. 0
O2 O2- 4 a 0.8749(2) 0.3819(1) 0.5745(1) 0.019(1) 1. 0
O3 O2- 4 a 0.4950(2) 0.3121(1) 0.7439(2) 0.018(1) 1. 0
O4 O2- 4 a 0.8556(2) 0.1613(1) 0.7583(1) 0.017(1) 1. 0
B1 B3+ 4 a 0.7724(2) 0.3106(1) 0.7556(2) 0.013(1) 1. 0
H1 H1+ 4 a 0.778(4) 0.448(2) 0.966(3) 0.039(5) 1. 0
H2 H1+ 4 a 0.893(4) 0.330(2) 0.492(3) 0.029(5) 1. 0
H3 H1+ 4 a 0.442(5) 0.268(2) 0.841(3) 0.051(6) 1. 0
H4 H1+ 4 a 0.002(5) 0.158(3) 0.786(3) 0.056(7) 1. 0
#End of TTdata_167112-ICSD