
#(C) 2019 by FIZ Karlsruhe - Leibniz Institute for Information Infrastructure.  All rights reserved.
data_167343-ICSD
_database_code_ICSD 167343
_audit_creation_date 2011-02-01
_chemical_name_systematic 'Sodium cobalt oxide (0.67/1/2)'
_chemical_formula_structural 'Na0.667 (Co O2)'
_chemical_formula_sum 'Co1 Na0.667 O2'
_exptl_crystal_density_diffrn 4.65
_publ_section_title

;
Nuclear quadrupole resonance and X-ray investigation of the structure of Na2/3
Co O2
;
loop_
_citation_id
_citation_journal_full
_citation_year
_citation_journal_volume
_citation_page_first
_citation_page_last
_citation_journal_id_ASTM
primary 'Physical Review B: Condensed Matter and Materials Physics' 2009 80
224106-1 224106-11 PRBMDO
loop_
_publ_author_name
'Platova, T.A.'
'Mukhamedshin, I.R.'
'Alloul, H.'
'Dooglav, A.V.'
'Collin, G.'
_cell_length_a 9.8007(1)
_cell_length_b 9.8007(1)
_cell_length_c 32.8151(4)
_cell_angle_alpha 90.
_cell_angle_beta 90.
_cell_angle_gamma 120.
_cell_volume 2729.72
_cell_formula_units_Z 72
_symmetry_space_group_name_H-M 'R -3 c H'
_symmetry_Int_Tables_number 167
_refine_ls_R_factor_all 0.0541
loop_
_symmetry_equiv_pos_site_id
_symmetry_equiv_pos_as_xyz
1 'x-y, -y, -z+1/2'
2 '-x, -x+y, -z+1/2'
3 'y, x, -z+1/2'
4 'x-y, x, -z'
5 'y, -x+y, -z'
6 '-x, -y, -z'
7 '-x+y, y, z+1/2'
8 'x, x-y, z+1/2'
9 '-y, -x, z+1/2'
10 '-x+y, -x, z'
11 '-y, x-y, z'
12 'x, y, z'
13 'x-y+2/3, -y+1/3, -z+5/6'
14 '-x+2/3, -x+y+1/3, -z+5/6'
15 'y+2/3, x+1/3, -z+5/6'
16 'x-y+2/3, x+1/3, -z+1/3'
17 'y+2/3, -x+y+1/3, -z+1/3'
18 '-x+2/3, -y+1/3, -z+1/3'
19 '-x+y+2/3, y+1/3, z+5/6'
20 'x+2/3, x-y+1/3, z+5/6'
21 '-y+2/3, -x+1/3, z+5/6'
22 '-x+y+2/3, -x+1/3, z+1/3'
23 '-y+2/3, x-y+1/3, z+1/3'
24 'x+2/3, y+1/3, z+1/3'
25 'x-y+1/3, -y+2/3, -z+1/6'
26 '-x+1/3, -x+y+2/3, -z+1/6'
27 'y+1/3, x+2/3, -z+1/6'
28 'x-y+1/3, x+2/3, -z+2/3'
29 'y+1/3, -x+y+2/3, -z+2/3'
30 '-x+1/3, -y+2/3, -z+2/3'
31 '-x+y+1/3, y+2/3, z+1/6'
32 'x+1/3, x-y+2/3, z+1/6'
33 '-y+1/3, -x+2/3, z+1/6'
34 '-x+y+1/3, -x+2/3, z+2/3'
35 '-y+1/3, x-y+2/3, z+2/3'
36 'x+1/3, y+2/3, z+2/3'
loop_
_atom_type_symbol
_atom_type_oxidation_number
Co3+ 3.33
Na1+ 1
O2- -2
loop_
_atom_site_label
_atom_site_type_symbol
_atom_site_symmetry_multiplicity
_atom_site_Wyckoff_symbol
_atom_site_fract_x
_atom_site_fract_y
_atom_site_fract_z
_atom_site_B_iso_or_equiv
_atom_site_occupancy
_atom_site_attached_hydrogens
Co1 Co3+ 6 b 0 0 0 0.34(2) 1. 0
Co2 Co3+ 12 c 0 0 0.3315(3) 0.34(2) 1. 0
Co3 Co3+ 18 d 0.5 0 0 0.34(2) 1. 0
Co4 Co3+ 36 f 0.3333(5) 0.1667(6) 0.0000(3) 0.34(2) 1. 0
Na1 Na1+ 12 c 0 0 0.0833 0.52(7) 1. 0
Na2 Na1+ 18 e 0.632(2) 0 0.25 0.52(7) 1. 0
Na3 Na1+ 18 e 0.187(2) 0 0.25 0.52(7) 1. 0
O1 O2- 36 f 0.1667(20) 0 0.0298(5) 1.3(2) 1. 0
O2 O2- 36 f 0.6667(20) 0 0.0290(4) 1.3(2) 1. 0
O3 O2- 36 f 0.500(2) 0.1667(29) 0.0320(5) 1.3(2) 1. 0
O4 O2- 36 f 0.1667(20) 0.500(2) 0.0295(5) 1.3(2) 1. 0
#End of TTdata_167343-ICSD