
#(C) 2019 by FIZ Karlsruhe - Leibniz Institute for Information Infrastructure.  All rights reserved.
data_167333-ICSD
_database_code_ICSD 167333
_audit_creation_date 2011-02-01
_chemical_name_systematic 'Disodium zinc hexaborate'
_chemical_formula_structural 'Na2 Zn (B6 O11)'
_chemical_formula_sum 'B6 Na2 O11 Zn1'
_exptl_crystal_density_diffrn 2.77
_publ_section_title
'Synthesis and crystal structure of a novel hexaborate, Na2 Zn B6 O11'
loop_
_citation_id
_citation_journal_full
_citation_year
_citation_journal_volume
_citation_page_first
_citation_page_last
_citation_journal_id_ASTM
primary 'Powder Diffraction' 2010 25 9 14 PODIE2
loop_
_publ_author_name
'Chen, Y.-Q.'
'Liang, J.-K.'
'Gu, Y.-X.'
'Luo, J.'
'Li, J.-B.'
'Rao, G.H.'
_cell_length_a 10.7329(2)
_cell_length_b 7.4080(3)
_cell_length_c 11.4822(2)
_cell_angle_alpha 90.
_cell_angle_beta 112.16(2)
_cell_angle_gamma 90.
_cell_volume 845.51
_cell_formula_units_Z 4
_symmetry_space_group_name_H-M 'C 1 c 1'
_symmetry_Int_Tables_number 9
_refine_ls_R_factor_all 0.0575
loop_
_symmetry_equiv_pos_site_id
_symmetry_equiv_pos_as_xyz
1 'x, -y, z+1/2'
2 'x, y, z'
3 'x+1/2, -y+1/2, z+1/2'
4 'x+1/2, y+1/2, z'
loop_
_atom_type_symbol
_atom_type_oxidation_number
Zn2+ 2
Na1+ 1
O2- -2
B3+ 3
loop_
_atom_site_label
_atom_site_type_symbol
_atom_site_symmetry_multiplicity
_atom_site_Wyckoff_symbol
_atom_site_fract_x
_atom_site_fract_y
_atom_site_fract_z
_atom_site_B_iso_or_equiv
_atom_site_occupancy
_atom_site_attached_hydrogens
Zn1 Zn2+ 4 a 0.90325(3) 0.13330(2) 0.62026(1) 1.21(3) 1. 0
Na1 Na1+ 4 a 0.04017(4) 0.40683(3) 0.39484(2) 1.64(3) 1. 0
Na2 Na1+ 4 a 0.25570(3) 0.08153(2) 0.32768(3) 0.75(3) 1. 0
O1 O2- 4 a 0.11454(2) 0.95881(3) 0.62620(2) 1.30(5) 1. 0
O2 O2- 4 a 0.80859(2) 0.69922(2) 0.75679(4) 1.48(6) 1. 0
O3 O2- 4 a 0.21041(3) 0.15562(2) 0.52650(1) 1.10(6) 1. 0
O4 O2- 4 a 0.71967(2) 0.94754(3) 0.83054(1) 1.49(4) 1. 0
O5 O2- 4 a 0.07481(3) 0.94808(4) 0.39818(2) 1.71(4) 1. 0
O6 O2- 4 a 0.89450(2) 0.86821(3) 0.62805(4) 1.82(4) 1. 0
O7 O2- 4 a 0.86688(1) 0.26888(2) 0.46647(1) 1.39(1) 1. 0
O8 O2- 4 a 0.19570(1) 0.44880(2) 0.62033(3) 1.47(3) 1. 0
O9 O2- 4 a 0.08301(1) 0.68346(2) 0.70838(4) 1.65(2) 1. 0
O10 O2- 4 a 0.91051(2) 0.25375(3) 0.76405(2) 2.01(4) 1. 0
O11 O2- 4 a 0.97509(3) 0.71551(4) 0.48085(1) 1.44(3) 1. 0
B1 B3+ 4 a 0.12618(2) 0.01897(1) 0.51457(3) 1.97(4) 1. 0
B2 B3+ 4 a 0.78526(3) 0.78455(3) 0.85623(2) 1.85(4) 1. 0
B3 B3+ 4 a 0.28487(2) 0.29330(1) 0.63372(1) 1.79(4) 1. 0
B4 B3+ 4 a 0.01766(1) 0.80941(2) 0.61093(3) 1.54(4) 1. 0
B5 B3+ 4 a 0.97120(3) 0.18101(2) 0.87363(1) 1.61(5) 1. 0
B6 B3+ 4 a 0.66346(2) 0.01855(4) 0.71538(3) 1.83(5) 1. 0
#End of TTdata_167333-ICSD