
#(C) 2019 by FIZ Karlsruhe - Leibniz Institute for Information Infrastructure.  All rights reserved.
data_167619-ICSD
_database_code_ICSD 167619
_audit_creation_date 2011-02-01
_chemical_name_systematic 'Disodium dialuminium trisilicate - alpha2'
_chemical_formula_structural 'Na2 Al2 (Si3 O10)'
_chemical_formula_sum 'Al2 Na2 O10 Si3'
_chemical_name_structure_type Natrolite-frame
_chemical_name_mineral 'Natrolite (dehydrated)'
_exptl_crystal_density_diffrn 2.25
_cell_measurement_temperature 673.
_publ_section_title 'X-ray diffraction study of the zeolite natrolite'
loop_
_citation_id
_citation_journal_full
_citation_year
_citation_journal_volume
_citation_page_first
_citation_page_last
_citation_journal_id_ASTM
primary 'European Journal of Mineralogy' 2010 22 271 284 EJMIER
loop_
_publ_author_name
'Wang Hsiu Wen'
'Bish, D.L.'
_cell_length_a 17.576(1)
_cell_length_b 18.163(1)
_cell_length_c 6.3704(4)
_cell_angle_alpha 90.
_cell_angle_beta 90.
_cell_angle_gamma 90.
_cell_volume 2033.64
_cell_formula_units_Z 8
_symmetry_space_group_name_H-M 'F d d 2'
_symmetry_Int_Tables_number 43
_refine_ls_R_factor_all 0.0483
loop_
_symmetry_equiv_pos_site_id
_symmetry_equiv_pos_as_xyz
1 'x+1/4, -y+1/4, z+1/4'
2 '-x+1/4, y+1/4, z+1/4'
3 '-x, -y, z'
4 'x, y, z'
5 'x+1/4, -y+3/4, z+3/4'
6 '-x+1/4, y+3/4, z+3/4'
7 '-x, -y+1/2, z+1/2'
8 'x, y+1/2, z+1/2'
9 'x+3/4, -y+1/4, z+3/4'
10 '-x+3/4, y+1/4, z+3/4'
11 '-x+1/2, -y, z+1/2'
12 'x+1/2, y, z+1/2'
13 'x+3/4, -y+3/4, z+1/4'
14 '-x+3/4, y+3/4, z+1/4'
15 '-x+1/2, -y+1/2, z'
16 'x+1/2, y+1/2, z'
loop_
_atom_type_symbol
_atom_type_oxidation_number
Si4+ 4
Al3+ 3
O2- -2
Na1+ 1
loop_
_atom_site_label
_atom_site_type_symbol
_atom_site_symmetry_multiplicity
_atom_site_Wyckoff_symbol
_atom_site_fract_x
_atom_site_fract_y
_atom_site_fract_z
_atom_site_B_iso_or_equiv
_atom_site_occupancy
_atom_site_attached_hydrogens
Si1 Si4+ 8 a 0 0 0 0.016(2) 1. 0
Si2 Si4+ 16 b 0.1471(3) 0.2207(3) 0.620(1) 0.016(2) 1. 0
Al1 Al3+ 16 b 0.0307(3) 0.0989(3) 0.610(1) 0.016(2) 1. 0
O1 O2- 16 b 0.0000(5) 0.0738(3) 0.858(1) 0.035(3) 1. 0
O2 O2- 16 b 0.0613(3) 0.1891(3) 0.611(2) 0.035(3) 1. 0
O3 O2- 16 b 0.1012(4) 0.0393(3) 0.532(2) 0.035(3) 1. 0
O4 O2- 16 b 0.2044(4) 0.1554(4) 0.687(1) 0.035(3) 1. 0
O5 O2- 16 b 0.1735(2) 0.2500(4) 0.392(1) 0.035(3) 1. 0
Na1 Na1+ 16 b 0.1453(1) 0.115(1) 0.101(5) 0.037(3) 0.57(2) 0
Na2 Na1+ 16 b 0.2741(2) 0.021(3) 0.182(6) 0.037(3) 0.43(2) 0
#End of TTdata_167619-ICSD