
#(C) 2019 by FIZ Karlsruhe - Leibniz Institute for Information Infrastructure.  All rights reserved.
data_167771-ICSD
_database_code_ICSD 167771
_audit_creation_date 2011-02-01
_chemical_name_systematic 'Potassium trisodium pentauranyl hexaoxide sulfate'
_chemical_formula_structural 'K Na3 ((U O2)5 O6 (S O4))'
_chemical_formula_sum 'K1 Na3 O20 S1 U5'
_exptl_crystal_density_diffrn 6.1
_cell_measurement_temperature 293.
_publ_section_title 'Crystal structure of K Na3 ((U O2)5 O6 (S O4))'
loop_
_citation_id
_citation_journal_full
_citation_year
_citation_journal_volume
_citation_page_first
_citation_page_last
_citation_journal_id_ASTM
primary Radiokhimiya 2008 50 389 392 RADKAU
loop_
_publ_author_name
'Krivovichev, S.V.'
_cell_length_a 13.2855(15)
_cell_length_b 13.7258(18)
_cell_length_c 19.712(2)
_cell_angle_alpha 90.
_cell_angle_beta 90.
_cell_angle_gamma 90.
_cell_volume 3594.56
_cell_formula_units_Z 8
_symmetry_space_group_name_H-M 'P b c a'
_symmetry_Int_Tables_number 61
_refine_ls_R_factor_all 0.055
loop_
_symmetry_equiv_pos_site_id
_symmetry_equiv_pos_as_xyz
1 'x+1/2, y, -z+1/2'
2 'x, -y+1/2, z+1/2'
3 '-x+1/2, y+1/2, z'
4 '-x, -y, -z'
5 '-x+1/2, -y, z+1/2'
6 '-x, y+1/2, -z+1/2'
7 'x+1/2, -y+1/2, -z'
8 'x, y, z'
loop_
_atom_type_symbol
_atom_type_oxidation_number
U6+ 6
S6+ 6
K1+ 1
Na1+ 1
O2- -2
loop_
_atom_site_label
_atom_site_type_symbol
_atom_site_symmetry_multiplicity
_atom_site_Wyckoff_symbol
_atom_site_fract_x
_atom_site_fract_y
_atom_site_fract_z
_atom_site_B_iso_or_equiv
_atom_site_occupancy
_atom_site_attached_hydrogens
U1 U6+ 8 c 0.73885(5) 0.61712(5) 0.53486(3) 0.00967(16) 1. 0
U2 U6+ 8 c 0.72506(4) 0.62535(5) 0.75360(3) 0.00797(15) 1. 0
U3 U6+ 8 c 0.25636(5) 0.35662(6) 0.84406(3) 0.00852(16) 1. 0
U4 U6+ 8 c 0.73934(5) 0.60673(6) 0.34903(3) 0.00857(16) 1. 0
U5 U6+ 8 c 0.23981(5) 0.86840(5) 0.03039(3) 0.00921(16) 1. 0
S1 S6+ 8 c 0.9886(3) 0.8863(3) 0.2290(2) 0.0117(9) 1. 0
K1 K1+ 8 c -0.0037(4) 0.7298(5) 0.0606(4) 0.0401(14) 1. 0
Na1 Na1+ 8 c 0.0100(5) 0.1369(7) 0.2475(5) 0.0231(18) 1. 0
Na2 Na1+ 8 c 0.4796(7) 0.9433(8) 0.1149(5) 0.036(2) 1. 0
Na3 Na1+ 8 c 0.9885(8) 0.0346(9) 0.0782(5) 0.037(2) 1. 0
O1 O2- 8 c 0.7385(9) 0.7774(9) 0.7646(7) 0.011(2) 1. 0
O2 O2- 8 c 0.1196(13) 0.3467(13) 0.8402(8) 0.028(3) 1. 0
O3 O2- 8 c 0.7223(10) 0.5955(10) 0.8456(6) 0.015(2) 1. 0
O4 O2- 8 c 0.6020(10) 0.5896(10) 0.3419(6) 0.014(3) 1. 0
O5 O2- 8 c 0.2452(10) 0.7759(12) -0.0593(7) 0.018(3) 1. 0
O6 O2- 8 c 0.7515(8) 0.4754(10) 0.7413(6) 0.012(3) 1. 0
O7 O2- 8 c 0.8762(11) 0.6142(12) 0.3503(7) 0.021(3) 1. 0
O8 O2- 8 c 0.7306(10) 0.6533(10) 0.6598(6) 0.013(2) 1. 0
O9 O2- 8 c 0.7342(11) 0.5241(11) 0.4433(7) 0.018(3) 1. 0
O10 O2- 8 c 0.3926(10) 0.3597(10) 0.8442(6) 0.013(3) 1. 0
O11 O2- 8 c 0.7183(10) 0.7147(9) 0.4310(6) 0.012(2) 1. 0
O12 O2- 8 c 0.6019(10) 0.6163(10) 0.5409(7) 0.018(3) 1. 0
O13 O2- 8 c 0.3766(10) 0.8537(11) 0.0408(7) 0.018(3) 1. 0
O14 O2- 8 c 0.2510(9) 0.4613(10) 0.9277(6) 0.014(3) 1. 0
O15 O2- 8 c 0.1025(10) 0.8879(10) 0.0238(7) 0.017(3) 1. 0
O16 O2- 8 c 0.8744(11) 0.6187(11) 0.5258(7) 0.021(3) 1. 0
O17 O2- 8 c 0.0554(10) 0.9555(10) 0.2660(7) 0.019(3) 1. 0
O18 O2- 8 c 0.9030(10) 0.8627(10) 0.2760(7) 0.020(3) 1. 0
O19 O2- 8 c 0.0502(12) 0.7966(12) 0.2193(8) 0.032(4) 1. 0
O20 O2- 8 c 0.9532(13) 0.9241(13) 0.1660(8) 0.032(4) 1. 0
#End of TTdata_167771-ICSD