
#(C) 2019 by FIZ Karlsruhe - Leibniz Institute for Information Infrastructure.  All rights reserved.
data_167782-ICSD
_database_code_ICSD 167782
_audit_creation_date 2011-02-01
_chemical_name_systematic 'Sodium praseodymium titanate (0.5/0.5/1) - RT'
_chemical_formula_structural '(Na0.5 Pr0.5) (Ti O3)'
_chemical_formula_sum 'Na0.5 O3 Pr0.5 Ti1'
_chemical_name_structure_type Perovskite-GdFeO3
_exptl_crystal_density_diffrn 5.14
_cell_measurement_temperature 373.
_publ_section_title

;
Phase changes in Na0.5 Pr0.5 Ti O3 : a synchrotron X-ray powder diffraction
study
;
loop_
_citation_id
_citation_journal_full
_citation_year
_citation_journal_volume
_citation_page_first
_citation_page_last
_citation_journal_id_ASTM
primary 'Solid State Communications' 2010 150 1128 1131 SSCOA4
loop_
_publ_author_name
'Ranjan, R.'
'Boysen, H.'
_cell_length_a 5.4589(3)
_cell_length_b 5.4604(3)
_cell_length_c 7.7108(2)
_cell_angle_alpha 90.
_cell_angle_beta 90.
_cell_angle_gamma 90.
_cell_volume 229.84
_cell_formula_units_Z 4
_symmetry_space_group_name_H-M 'P b n m'
_symmetry_Int_Tables_number 62
_refine_ls_R_factor_all 0.0379
loop_
_symmetry_equiv_pos_site_id
_symmetry_equiv_pos_as_xyz
1 '-x+1/2, y+1/2, z'
2 'x, y, -z+1/2'
3 'x+1/2, -y+1/2, z+1/2'
4 '-x, -y, -z'
5 'x+1/2, -y+1/2, -z'
6 '-x, -y, z+1/2'
7 '-x+1/2, y+1/2, -z+1/2'
8 'x, y, z'
loop_
_atom_type_symbol
_atom_type_oxidation_number
Na1+ 1
Pr3+ 3
Ti4+ 4
O2- -2
loop_
_atom_site_label
_atom_site_type_symbol
_atom_site_symmetry_multiplicity
_atom_site_Wyckoff_symbol
_atom_site_fract_x
_atom_site_fract_y
_atom_site_fract_z
_atom_site_B_iso_or_equiv
_atom_site_occupancy
_atom_site_attached_hydrogens
Na1 Na1+ 4 c 0.000(2) 0.5095(4) 0.25 0.47(2) 0.5 0
Pr1 Pr3+ 4 c 0.000(2) 0.5095(4) 0.25 0.47(2) 0.5 0
Ti1 Ti4+ 4 a 0 0 0 0.30(2) 1. 0
O1 O2- 4 c -0.067(3) -0.011(3) 0.25 0.1(2) 1. 0
O2 O2- 8 d 0.236(3) 0.269(4) 0.026(1) 0.1(2) 1. 0
#End of TTdata_167782-ICSD