
#(C) 2019 by FIZ Karlsruhe - Leibniz Institute for Information Infrastructure.  All rights reserved.
data_168392-ICSD
_database_code_ICSD 168392
_audit_creation_date 2011-02-01
_chemical_name_systematic 'Disodium pentasilver triiron tetrakis(pyrophosphate)'
_chemical_formula_structural 'Ag5 Na2 Fe3 (P2 O7)4'
_chemical_formula_sum 'Ag5 Fe3 Na2 O28 P8'
_exptl_crystal_density_diffrn 4.29
_cell_measurement_temperature 298.
_publ_section_title

;
Crystal structures and sodium/silver distributions within the ionic conductors
Na5 Ag2 Fe3 (As2 O7)4 and Na2 Ag5 Fe3 (P2 O7)4
;
loop_
_citation_id
_citation_journal_full
_citation_year
_citation_journal_volume
_citation_page_first
_citation_page_last
_citation_journal_id_ASTM
primary 'New Journal of Chemistry' 2010 34 287 293 NJCHE5
loop_
_publ_author_name
'Quarez, E.'
'Mentre, O.'
'Djellab, K.'
'Masquelier, C.'
_cell_length_a 9.5375(3)
_cell_length_b 8.3886(3)
_cell_length_c 28.0971(9)
_cell_angle_alpha 90
_cell_angle_beta 93.6230(18)
_cell_angle_gamma 90
_cell_volume 2243.45
_cell_formula_units_Z 4
_symmetry_space_group_name_H-M 'C 1 2/c 1'
_symmetry_Int_Tables_number 15
_refine_ls_R_factor_all 0.0262
loop_
_symmetry_equiv_pos_site_id
_symmetry_equiv_pos_as_xyz
1 'x, -y, z+1/2'
2 '-x, -y, -z'
3 '-x, y, -z+1/2'
4 'x, y, z'
5 'x+1/2, -y+1/2, z+1/2'
6 '-x+1/2, -y+1/2, -z'
7 '-x+1/2, y+1/2, -z+1/2'
8 'x+1/2, y+1/2, z'
loop_
_atom_type_symbol
_atom_type_oxidation_number
Ag1+ 1
Na1+ 1
Ag1+ 1
Na1+ 1
Ag1+ 1
P5+ 5
Fe3+ 3
O2- -2
loop_
_atom_site_label
_atom_site_type_symbol
_atom_site_symmetry_multiplicity
_atom_site_Wyckoff_symbol
_atom_site_fract_x
_atom_site_fract_y
_atom_site_fract_z
_atom_site_B_iso_or_equiv
_atom_site_occupancy
_atom_site_attached_hydrogens
Ag1 Ag1+ 8 f 0.25863(6) 0.38934(6) 0.44259(2) 0.02471(13) 0.258(12) 0
Na1 Na1+ 8 f 0.25863(6) 0.38934(6) 0.44259(2) 0.02471(13) 0.742(12) 0
Na2 Na1+ 4 e 0.5 0.9874(12) 0.25 0.050(6) 0.156(11) 0
Ag2 Ag1+ 8 f 0.50999(3) 0.33905(3) 0.356060(8) 0.02877(7) 0.818(14) 0
Na3 Na1+ 8 f 0.50999(3) 0.33905(3) 0.356060(8) 0.02877(7) 0.182(14) 0
Ag3 Ag1+ 8 f 0.5045(4) 0.9194(4) 0.32907(8) 0.0470(8) 0.240(8) 0
Ag4 Ag1+ 8 f 0.5396(5) 0.9540(7) 0.3108(3) 0.0456(10) 0.20(2) 0
Ag5 Ag1+ 8 f 0.5222(3) 0.9363(3) 0.31503(11) 0.0313(6) 0.32(2) 0
Ag6 Ag1+ 8 f 0.2974(5) 0.6376(8) 0.34993(14) 0.0853(14) 0.211(14) 0
Ag7 Ag1+ 8 f 0.2997(2) 0.5977(2) 0.34803(8) 0.0353(4) 0.290(7) 0
Ag8 Ag1+ 8 f 0.2810(7) 0.6504(8) 0.35694(15) 0.0541(12) 0.163(13) 0
P1 P5+ 8 f 0.29827(5) 0.26689(6) 0.246852(18) 0.00878(11) 1 0
P2 P5+ 8 f 0.22340(5) 0.14331(6) 0.336696(17) 0.00872(11) 1 0
P3 P5+ 8 f 0.50757(5) 0.66253(6) 0.443900(17) 0.00741(10) 1 0
P4 P5+ 8 f 0.41675(5) 0.79009(6) 0.534120(17) 0.00657(10) 1 0
Fe1 Fe3+ 4 e 0 0.08787(5) 0.25 0.00819(8) 1 0
Fe2 Fe3+ 8 f 0.31620(3) 0.97438(3) 0.437120(10) 0.00709(6) 1 0
O1 O2- 8 f 0.37325(17) 0.1970(2) 0.20614(6) 0.0153(4) 1 0
O2 O2- 8 f 0.35767(16) 0.42554(19) 0.26508(6) 0.0131(4) 1 0
O3 O2- 8 f 0.13795(15) 0.27165(19) 0.23725(6) 0.0119(3) 1 0
O4 O2- 8 f 0.32142(15) 0.14453(19) 0.29162(5) 0.0103(3) 1 0
O5 O2- 8 f 0.07463(15) 0.0975(2) 0.31735(5) 0.0134(4) 1 0
O6 O2- 8 f 0.2299(2) 0.3059(2) 0.35875(6) 0.0176(4) 1 0
O7 O2- 8 f 0.28814(17) 0.00845(19) 0.36709(5) 0.0127(4) 1 0
O8 O2- 8 f 0.47991(15) 0.83279(18) 0.42619(5) 0.0109(3) 1 0
O9 O2- 8 f 0.66502(15) 0.63185(18) 0.45225(6) 0.0120(3) 1 0
O10 O2- 8 f 0.43111(17) 0.5369(2) 0.41467(6) 0.0135(4) 1 0
O11 O2- 8 f 0.44819(16) 0.65492(18) 0.49640(5) 0.0105(3) 1 0
O12 O2- 8 f 0.34641(15) 0.92906(18) 0.50735(5) 0.0096(3) 1 0
O13 O2- 8 f 0.55573(15) 0.83612(18) 0.55970(6) 0.0121(3) 1 0
O14 O2- 8 f 0.32167(15) 0.71065(18) 0.56867(5) 0.0100(3) 1 0
loop_
_atom_site_aniso_label
_atom_site_aniso_type_symbol
_atom_site_aniso_U_11
_atom_site_aniso_U_22
_atom_site_aniso_U_33
_atom_site_aniso_U_12
_atom_site_aniso_U_13
_atom_site_aniso_U_23
Ag1 Ag1+ 0.0218(2) 0.0184(2) 0.0353(3) -0.00674(17) 0.01307(19) -0.00870(19)
Na1 Na1+ 0.0218(2) 0.0184(2) 0.0353(3) -0.00674(17) 0.01307(19) -0.00870(19)
Na2 Na1+ 0.017(5) 0.001(3) 0.136(16) 0 0.033(7) 0
Ag2 Ag1+ 0.04113(14) 0.03047(12) 0.01526(9) -0.01743(11) 0.00628(9) -0.00515(8)
Na3 Na1+ 0.04113(14) 0.03047(12) 0.01526(9) -0.01743(11) 0.00628(9) -0.00515(8)
Ag3 Ag1+ 0.0401(12) 0.0650(18) 0.0336(10) 0.0407(14) -0.0149(7) -0.0224(10)
Ag4 Ag1+ 0.0331(13) 0.0069(7) 0.097(3) 0.0010(8) 0.0095(11) 0.0024(9)
Ag5 Ag1+ 0.0276(8) 0.0133(9) 0.0506(14) 0.0039(6) -0.0173(10) -0.0074(8)
Ag6 Ag1+ 0.092(2) 0.152(4) 0.0115(11) 0.105(2) -0.0017(10) 0.0081(14)
Ag7 Ag1+ 0.0418(7) 0.0436(6) 0.0191(6) 0.0011(7) -0.0093(5) 0.0146(5)
Ag8 Ag1+ 0.063(2) 0.087(2) 0.0106(11) 0.026(2) -0.0137(14) -0.0076(10)
P1 P5+ 0.00709(17) 0.01015(19) 0.00905(18) -0.00209(15) 0.00000(14) 0.00124(15)
P2 P5+ 0.00882(18) 0.00980(19) 0.00736(17) -0.00006(15) -0.00099(14) 0.00086(15)
P3 P5+ 0.00612(17) 0.00709(18) 0.00910(18) 0.00078(14) 0.00105(14) 0.00035(15)
P4 P5+ 0.00553(16) 0.00657(17) 0.00755(17) -0.00053(14) -0.00002(13) 0.00087(14)
Fe1 Fe3+ 0.00674(14) 0.00888(15) 0.00873(14) 0 -0.00114(11) 0
Fe2 Fe3+ 0.00617(10) 0.00691(10) 0.00812(10) 0.00007(8) 0.00000(8) 0.00110(8)
O1 O2- 0.0156(7) 0.0186(7) 0.0121(6) -0.0010(6) 0.0039(5) -0.0016(5)
O2 O2- 0.0115(6) 0.0111(6) 0.0167(6) -0.0043(5) 0.0012(5) -0.0007(5)
O3 O2- 0.0080(5) 0.0118(6) 0.0157(6) -0.0019(5) -0.0019(5) 0.0040(5)
O4 O2- 0.0081(5) 0.0123(6) 0.0106(5) 0.0003(4) 0.0006(4) 0.0027(5)
O5 O2- 0.0080(5) 0.0228(7) 0.0094(5) -0.0023(5) -0.0008(4) 0.0022(5)
O6 O2- 0.0253(8) 0.0116(7) 0.0160(7) -0.0007(6) 0.0021(6) -0.0026(5)
O7 O2- 0.0166(6) 0.0128(6) 0.0083(5) 0.0020(5) -0.0019(5) 0.0026(5)
O8 O2- 0.0102(6) 0.0090(6) 0.0139(6) 0.0027(4) 0.0032(5) 0.0032(5)
O9 O2- 0.0061(5) 0.0098(6) 0.0201(7) 0.0021(4) 0.0016(5) 0.0018(5)
O10 O2- 0.0153(6) 0.0129(6) 0.0123(6) -0.0028(5) -0.0004(5) -0.0028(5)
O11 O2- 0.0138(6) 0.0091(6) 0.0090(5) 0.0017(5) 0.0036(4) 0.0000(4)
O12 O2- 0.0106(5) 0.0095(6) 0.0086(5) 0.0023(4) -0.0011(4) 0.0017(4)
O13 O2- 0.0078(5) 0.0105(6) 0.0173(6) -0.0029(4) -0.0043(5) 0.0022(5)
O14 O2- 0.0093(5) 0.0110(6) 0.0100(5) -0.0032(4) 0.0024(4) 0.0006(5)
#End of TTdata_168392-ICSD