
#(C) 2019 by FIZ Karlsruhe - Leibniz Institute for Information Infrastructure.  All rights reserved.
data_168391-ICSD
_database_code_ICSD 168391
_audit_creation_date 2011-02-01
_chemical_name_systematic 'Disilver pentasodium triiron tetrakis(diarsenate)'
_chemical_formula_structural 'Ag2 Na5 Fe3 (As2 O7)4'
_chemical_formula_sum 'Ag2 As8 Fe3 Na5 O28'
_chemical_name_structure_type Na7Fe3(As2O7)4
_exptl_crystal_density_diffrn 4.18
_cell_measurement_temperature 298.
_publ_section_title

;
Crystal structures and sodium/silver distributions within the ionic conductors
Na5 Ag2 Fe3 (As2 O7)4 and Na2 Ag5 Fe3 (P2 O7)4
;
loop_
_citation_id
_citation_journal_full
_citation_year
_citation_journal_volume
_citation_page_first
_citation_page_last
_citation_journal_id_ASTM
primary 'New Journal of Chemistry' 2010 34 287 293 NJCHE5
loop_
_publ_author_name
'Quarez, E.'
'Mentre, O.'
'Djellab, K.'
'Masquelier, C.'
_cell_length_a 9.9512(3)
_cell_length_b 8.5741(2)
_cell_length_c 28.8231(8)
_cell_angle_alpha 90
_cell_angle_beta 93.9100(12)
_cell_angle_gamma 90
_cell_volume 2453.54
_cell_formula_units_Z 4
_symmetry_space_group_name_H-M 'C 1 2/c 1'
_symmetry_Int_Tables_number 15
_refine_ls_R_factor_all 0.0311
loop_
_symmetry_equiv_pos_site_id
_symmetry_equiv_pos_as_xyz
1 'x, -y, z+1/2'
2 '-x, -y, -z'
3 '-x, y, -z+1/2'
4 'x, y, z'
5 'x+1/2, -y+1/2, z+1/2'
6 '-x+1/2, -y+1/2, -z'
7 '-x+1/2, y+1/2, -z+1/2'
8 'x+1/2, y+1/2, z'
loop_
_atom_type_symbol
_atom_type_oxidation_number
As5+ 5
Fe3+ 3
Na1+ 1
Ag1+ 1
Na1+ 1
Ag1+ 1
Na1+ 1
Ag1+ 1
O2- -2
loop_
_atom_site_label
_atom_site_type_symbol
_atom_site_symmetry_multiplicity
_atom_site_Wyckoff_symbol
_atom_site_fract_x
_atom_site_fract_y
_atom_site_fract_z
_atom_site_B_iso_or_equiv
_atom_site_occupancy
_atom_site_attached_hydrogens
As1 As5+ 8 f 0.29887(2) 0.29537(3) 0.246895(8) 0.00961(5) 1 0
As2 As5+ 8 f 0.22053(2) 0.16121(3) 0.339049(8) 0.00946(5) 1 0
As3 As5+ 8 f 0.51002(2) 0.66302(3) 0.442799(8) 0.00730(4) 1 0
As4 As5+ 8 f 0.41282(2) 0.79512(3) 0.535810(7) 0.00663(4) 1 0
Fe1 Fe3+ 4 e 0 0.12041(6) 0.25 0.00820(9) 1 0
Fe2 Fe3+ 8 f 0.31699(3) 0.97662(4) 0.436322(11) 0.00714(6) 1 0
Na1 Na1+ 8 f 0.27611(12) 0.38193(13) 0.44619(4) 0.0150(3) 1 0
Ag1 Ag1+ 8 f 0.51604(7) 0.35399(7) 0.354944(19) 0.02656(16) 0.35(1) 0
Na2 Na1+ 8 f 0.51604(7) 0.35399(7) 0.354944(19) 0.02656(16) 0.65(1) 0
Na3 Na1+ 4 e 0.5 0.0153(4) 0.25 0.0347(16) 0.480(7) 0
Na4 Na1+ 8 f 0.4735(10) 0.0374(7) 0.6880(8) 0.050(4) 0.36(2) 0
Na5 Na1+ 8 f 0.507(2) 0.075(4) 0.6682(7) 0.040(5) 0.16(2) 0
Ag2 Ag1+ 8 f 0.78457(19) 0.10763(15) 0.34819(6) 0.0398(4) 0.42(1) 0
Na6 Na1+ 8 f 0.78457(19) 0.10763(15) 0.34819(6) 0.0398(4) 0.09(1) 0
Ag3 Ag1+ 8 f 0.8018(10) 0.1613(17) 0.35132(13) 0.124(3) 0.23(1) 0
O1 O2- 8 f 0.3741(2) 0.2204(3) 0.20261(7) 0.0168(4) 1 0
O2 O2- 8 f 0.3620(2) 0.4644(2) 0.26764(7) 0.0159(4) 1 0
O3 O2- 8 f 0.13042(18) 0.2996(2) 0.23874(7) 0.0149(4) 1 0
O4 O2- 8 f 0.32958(18) 0.1611(2) 0.29306(6) 0.0133(4) 1 0
O5 O2- 8 f 0.06432(18) 0.1191(3) 0.31651(6) 0.0149(4) 1 0
O6 O2- 8 f 0.2364(3) 0.3333(3) 0.36373(8) 0.0239(6) 1 0
O7 O2- 8 f 0.2761(2) 0.0038(2) 0.36885(6) 0.0162(4) 1 0
O8 O2- 8 f 0.47733(18) 0.8461(2) 0.42594(7) 0.0130(4) 1 0
O9 O2- 8 f 0.67612(17) 0.6359(2) 0.45321(7) 0.0130(4) 1 0
O10 O2- 8 f 0.4322(2) 0.5290(2) 0.41007(6) 0.0139(4) 1 0
O11 O2- 8 f 0.4458(2) 0.6444(2) 0.49786(6) 0.0126(4) 1 0
O12 O2- 8 f 0.34131(18) 0.9442(2) 0.50594(6) 0.0109(3) 1 0
O13 O2- 8 f 0.56051(18) 0.8362(2) 0.56372(7) 0.0134(4) 1 0
O14 O2- 8 f 0.30963(18) 0.7129(2) 0.57202(6) 0.0120(4) 1 0
loop_
_atom_site_aniso_label
_atom_site_aniso_type_symbol
_atom_site_aniso_U_11
_atom_site_aniso_U_22
_atom_site_aniso_U_33
_atom_site_aniso_U_12
_atom_site_aniso_U_13
_atom_site_aniso_U_23
As1 As5+ 0.00805(8) 0.01182(9) 0.00886(8) -0.00268(7) -0.00011(6) 0.00246(7)
As2 As5+ 0.01080(8) 0.01100(9) 0.00623(7) -0.00200(7) -0.00192(6) 0.00169(7)
As3 As5+ 0.00684(7) 0.00710(8) 0.00799(8) 0.00036(6) 0.00058(6) -0.00032(6)
As4 As5+ 0.00618(7) 0.00702(8) 0.00662(7) -0.00025(6) -0.00008(5) 0.00102(6)
Fe1 Fe3+ 0.00715(14) 0.00979(16) 0.00750(14) 0 -0.00080(11) 0
Fe2 Fe3+ 0.00738(10) 0.00679(10) 0.00708(10) 0.00008(8) -0.00072(8) 0.00146(8)
Na1 Na1+ 0.0170(5) 0.0085(4) 0.0208(5) -0.0053(3) 0.0101(4) -0.0037(4)
Ag1 Ag1+ 0.0357(3) 0.0256(3) 0.0197(2) -0.0049(2) 0.01105(19) -0.00836(18)
Na2 Na1+ 0.0357(3) 0.0256(3) 0.0197(2) -0.0049(2) 0.01105(19) -0.00836(18)
Na3 Na1+ 0.0141(15) 0.0046(13) 0.087(4) 0 0.019(2) 0
Na4 Na1+ 0.025(3) 0.014(2) 0.106(11) 0.007(2) -0.021(5) -0.025(3)
Na5 Na1+ 0.021(7) 0.062(12) 0.035(8) 0.035(8) -0.014(5) -0.025(8)
Ag2 Ag1+ 0.0539(7) 0.0368(7) 0.0264(5) 0.0124(6) -0.0133(4) 0.0117(4)
Na6 Na1+ 0.0539(7) 0.0368(7) 0.0264(5) 0.0124(6) -0.0133(4) 0.0117(4)
Ag3 Ag1+ 0.146(5) 0.197(7) 0.0239(9) 0.137(5) -0.0206(18) -0.004(2)
O1 O2- 0.0179(8) 0.0193(8) 0.0137(7) -0.0003(7) 0.0047(6) -0.0002(6)
O2 O2- 0.0147(7) 0.0144(7) 0.0186(8) -0.0061(6) 0.0023(6) 0.0001(6)
O3 O2- 0.0082(6) 0.0141(7) 0.0220(8) -0.0013(5) -0.0015(5) 0.0061(6)
O4 O2- 0.0108(6) 0.0168(7) 0.0124(6) 0.0003(6) 0.0013(5) 0.0056(6)
O5 O2- 0.0100(6) 0.0262(9) 0.0083(6) -0.0041(6) -0.0013(5) 0.0023(6)
O6 O2- 0.0397(13) 0.0124(8) 0.0195(9) -0.0043(8) 0.0007(9) -0.0044(7)
O7 O2- 0.0269(9) 0.0123(7) 0.0087(6) 0.0005(6) -0.0043(6) 0.0029(5)
O8 O2- 0.0114(6) 0.0101(6) 0.0178(7) 0.0041(5) 0.0040(5) 0.0046(6)
O9 O2- 0.0072(5) 0.0102(6) 0.0216(8) 0.0013(5) 0.0008(5) 0.0010(6)
O10 O2- 0.0162(7) 0.0141(7) 0.0113(6) -0.0037(6) -0.0002(5) -0.0037(6)
O11 O2- 0.0197(7) 0.0086(6) 0.0101(6) 0.0016(5) 0.0056(5) 0.0003(5)
O12 O2- 0.0135(6) 0.0104(6) 0.0085(6) 0.0041(5) -0.0017(5) 0.0017(5)
O13 O2- 0.0095(6) 0.0101(6) 0.0197(8) -0.0030(5) -0.0059(5) 0.0030(6)
O14 O2- 0.0135(6) 0.0128(7) 0.0102(6) -0.0051(5) 0.0043(5) 0.0000(5)
#End of TTdata_168391-ICSD