
#(C) 2019 by FIZ Karlsruhe - Leibniz Institute for Information Infrastructure.  All rights reserved.
data_168499-ICSD
_database_code_ICSD 168499
_audit_creation_date 2011-02-01
_chemical_name_systematic
'Disodium closo-(dodecachlorododecaborate) tetrakis(sulfur dioxide)'
_chemical_formula_structural '(Na2 (B12 Cl12)) (S O2)4'
_chemical_formula_sum 'B12 Cl12 Na2 O8 S4'
_exptl_crystal_density_diffrn 1.98
_cell_measurement_temperature 120.
_publ_section_title

;
Alkali metal-sulfur dioxide complexes stabilized by halogenated
closo-dodecaborate anions
;
loop_
_citation_id
_citation_journal_full
_citation_year
_citation_journal_volume
_citation_page_first
_citation_page_last
_citation_journal_id_ASTM
primary 'Dalton Transactions' 2010 39 8671 8678 DTARAF
loop_
_publ_author_name
'Derendorf, J.'
'Kessler, M.'
'Knapp, C.'
'Ruehle, M.'
'Schulz, C.'
_cell_length_a 9.990(2)
_cell_length_b 11.603(2)
_cell_length_c 12.550(3)
_cell_angle_alpha 90.
_cell_angle_beta 99.32(3)
_cell_angle_gamma 90.
_cell_volume 1435.52
_cell_formula_units_Z 2
_symmetry_space_group_name_H-M 'P 1 21/n 1'
_symmetry_Int_Tables_number 14
_refine_ls_R_factor_all 0.032
loop_
_symmetry_equiv_pos_site_id
_symmetry_equiv_pos_as_xyz
1 '-x+1/2, y+1/2, -z+1/2'
2 '-x, -y, -z'
3 'x+1/2, -y+1/2, z+1/2'
4 'x, y, z'
loop_
_atom_type_symbol
_atom_type_oxidation_number
B0+ 0.833
Cl1- -1
B0+ 0.833
Cl1- -1
B0+ 0.833
Cl1- -1
B0+ 0.833
Cl1- -1
B0+ 0.833
Cl1- -1
B0+ 0.833
Cl1- -1
Na1+ 1
O2- -2
S4+ 4
O2- -2
S4+ 4
O2- -2
S4+ 4
O2- -2
loop_
_atom_site_label
_atom_site_type_symbol
_atom_site_symmetry_multiplicity
_atom_site_Wyckoff_symbol
_atom_site_fract_x
_atom_site_fract_y
_atom_site_fract_z
_atom_site_B_iso_or_equiv
_atom_site_occupancy
_atom_site_attached_hydrogens
B1 B0+ 4 e 0.0802(3) 0.6231(2) 0.5458(2) 0.0155(6) 1 0
Cl1 Cl1- 4 e 0.16580(6) 0.75370(5) 0.59502(5) 0.02111(15) 1 0
B2 B0+ 4 e 0.0715(3) 0.3750(2) 0.5508(2) 0.0179(6) 1 0
Cl2 Cl1- 4 e 0.14959(7) 0.24345(5) 0.60565(6) 0.03242(19) 1 0
B3 B0+ 4 e -0.0824(3) 0.4276(2) 0.5882(2) 0.0165(6) 1 0
Cl3 Cl1- 4 e -0.17170(7) 0.35112(6) 0.67870(6) 0.03276(18) 1 0
B4 B0+ 4 e 0.1718(3) 0.4961(2) 0.5247(2) 0.0164(6) 1 0
Cl4 Cl1- 4 e 0.35328(6) 0.49233(5) 0.55119(6) 0.02673(16) 1 0
B5 B0+ 4 e 0.0737(3) 0.5015(2) 0.6318(2) 0.0173(6) 1 0
Cl5 Cl1- 4 e 0.15443(7) 0.50560(6) 0.77041(5) 0.03376(18) 1 0
B6 B0+ 4 e -0.0769(3) 0.5811(2) 0.5845(2) 0.0170(6) 1 0
Cl6 Cl1- 4 e -0.15615(7) 0.66812(6) 0.67543(6) 0.0346(2) 1 0
Na1 Na1+ 4 e 0.42677(11) 0.30522(9) 0.70479(9) 0.0300(3) 1 0
O1 O2- 4 e 0.5547(2) 0.45900(18) 0.79176(19) 0.0440(6) 1 0
S1 S4+ 4 e 0.62184(10) 0.53419(7) 0.86861(8) 0.0507(3) 1 0
O2 O2- 4 e 0.7594(4) 0.5038(4) 0.9280(3) 0.0417(11) 0.5 0
O3 O2- 4 e 0.5619(5) 0.5017(4) 0.9710(4) 0.0540(13) 0.5 0
O4 O2- 4 e 0.4990(2) 0.77874(19) 0.44461(17) 0.0421(6) 1 0
S2 S4+ 4 e 0.4956(6) 0.8060(3) 0.5555(4) 0.0354(8) 0.5 0
O5 O2- 4 e 0.5248(4) 0.7104(4) 0.6267(4) 0.0432(11) 0.5 0
S3 S4+ 4 e 0.5123(6) 0.8404(4) 0.5387(5) 0.0382(9) 0.5 0
O6 O2- 4 e 0.6063(5) 0.9323(4) 0.5453(4) 0.0471(12) 0.5 0
loop_
_atom_site_aniso_label
_atom_site_aniso_type_symbol
_atom_site_aniso_U_11
_atom_site_aniso_U_22
_atom_site_aniso_U_33
_atom_site_aniso_U_12
_atom_site_aniso_U_13
_atom_site_aniso_U_23
B1 B0+ 0.0140(14) 0.0136(14) 0.0190(15) -0.0019(11) 0.0029(12) 0.0005(11)
Cl1 Cl1- 0.0213(3) 0.0166(3) 0.0254(4) -0.0051(3) 0.0039(3) -0.0047(2)
B2 B0+ 0.0138(14) 0.0134(14) 0.0257(17) -0.0008(11) 0.0013(13) 0.0020(11)
Cl2 Cl1- 0.0205(4) 0.0171(3) 0.0551(5) 0.0001(3) -0.0078(3) 0.0116(3)
B3 B0+ 0.0174(14) 0.0175(14) 0.0151(15) -0.0040(11) 0.0039(12) -0.0012(11)
Cl3 Cl1- 0.0372(4) 0.0420(4) 0.0206(4) -0.0205(3) 0.0092(3) 0.0018(3)
B4 B0+ 0.0136(13) 0.0143(13) 0.0208(14) -0.0013(11) 0.0019(11) -0.0006(12)
Cl4 Cl1- 0.0125(3) 0.0244(3) 0.0426(4) 0.0002(3) 0.0022(3) 0.0030(3)
B5 B0+ 0.0184(14) 0.0193(14) 0.0136(13) -0.0040(12) 0.0004(11) 0.0006(12)
Cl5 Cl1- 0.0405(4) 0.0412(4) 0.0159(3) -0.0203(3) -0.0067(3) 0.0053(3)
B6 B0+ 0.0145(14) 0.0166(14) 0.0214(16) -0.0034(11) 0.0070(12) -0.0039(11)
Cl6 Cl1- 0.0298(4) 0.0327(4) 0.0462(5) -0.0077(3) 0.0210(3) -0.0229(3)
Na1 Na1+ 0.0283(6) 0.0347(6) 0.0260(6) 0.0003(5) 0.0012(5) 0.0019(5)
O1 O2- 0.0360(12) 0.0364(12) 0.0563(15) -0.0014(10) -0.0024(11) -0.0024(11)
S1 S4+ 0.0561(6) 0.0276(4) 0.0615(6) 0.0104(4) -0.0108(5) -0.0096(4)
O2 O2- 0.035(2) 0.046(3) 0.042(3) 0.002(2) -0.001(2) -0.007(2)
O3 O2- 0.076(4) 0.037(3) 0.050(3) 0.002(3) 0.012(3) -0.009(2)
O4 O2- 0.0396(13) 0.0545(14) 0.0319(13) 0.0077(11) 0.0055(10) -0.0052(10)
S2 S4+ 0.0350(16) 0.033(2) 0.039(2) 0.0021(15) 0.0084(13) -0.0117(15)
O5 O2- 0.037(3) 0.049(3) 0.041(3) -0.006(2) 0.000(2) -0.004(2)
S3 S4+ 0.0422(17) 0.045(3) 0.0293(15) -0.0040(17) 0.0114(11) -0.0043(16)
O6 O2- 0.053(3) 0.046(3) 0.041(3) -0.012(2) 0.002(2) -0.009(2)
#End of TTdata_168499-ICSD