
#(C) 2019 by FIZ Karlsruhe - Leibniz Institute for Information Infrastructure.  All rights reserved.
data_168494-ICSD
_database_code_ICSD 168494
_audit_creation_date 2011-02-01
_chemical_name_systematic
'Disodium closo-dodecaiodododecaborate octakis(sulfur dioxide)'
_chemical_formula_structural '(Na2 (B12 I12)) (S O2)8'
_chemical_formula_sum 'B12 I12 Na2 O16 S8'
_exptl_crystal_density_diffrn 3.23
_cell_measurement_temperature 160.
_publ_section_title

;
Alkali metal-sulfur dioxide complexes stabilized by halogenated
closo-dodecaborate anions
;
loop_
_citation_id
_citation_journal_full
_citation_year
_citation_journal_volume
_citation_page_first
_citation_page_last
_citation_journal_id_ASTM
primary 'Dalton Transactions' 2010 39 8671 8678 DTARAF
loop_
_publ_author_name
'Derendorf, J.'
'Kessler, M.'
'Knapp, C.'
'Ruehle, M.'
'Schulz, C.'
_cell_length_a 19.834(4)
_cell_length_b 20.079(4)
_cell_length_c 11.421(2)
_cell_angle_alpha 90.
_cell_angle_beta 90.
_cell_angle_gamma 90.
_cell_volume 4548.38
_cell_formula_units_Z 4
_symmetry_space_group_name_H-M 'P n m a'
_symmetry_Int_Tables_number 62
_refine_ls_R_factor_all 0.0192
loop_
_symmetry_equiv_pos_site_id
_symmetry_equiv_pos_as_xyz
1 'x+1/2, y, -z+1/2'
2 'x, -y+1/2, z'
3 '-x+1/2, y+1/2, z+1/2'
4 '-x, -y, -z'
5 '-x+1/2, -y, z+1/2'
6 '-x, y+1/2, -z'
7 'x+1/2, -y+1/2, -z+1/2'
8 'x, y, z'
loop_
_atom_type_symbol
_atom_type_oxidation_number
B0+ 0.833
I1- -1
B0+ 0.833
I1- -1
B0+ 0.833
I1- -1
B0+ 0.833
I1- -1
B0+ 0.833
I1- -1
B0+ 0.833
I1- -1
B0+ 0.833
I1- -1
B0+ 0.833
I1- -1
O2- -2
S4+ 4
O2- -2
S4+ 4
O2- -2
S4+ 4
O2- -2
S4+ 4
O2- -2
S4+ 4
Na1+ 1
loop_
_atom_site_label
_atom_site_type_symbol
_atom_site_symmetry_multiplicity
_atom_site_Wyckoff_symbol
_atom_site_fract_x
_atom_site_fract_y
_atom_site_fract_z
_atom_site_B_iso_or_equiv
_atom_site_occupancy
_atom_site_attached_hydrogens
B1 B0+ 8 d 0.21288(17) 0.17740(18) 0.3951(3) 0.0148(7) 1 0
I1 I1- 8 d 0.187671(12) 0.085133(11) 0.48263(2) 0.02493(6) 1 0
B2 B0+ 4 c 0.1606(2) 0.25 0.4058(4) 0.0146(9) 1 0
I2 I1- 4 c 0.069609(15) 0.25 0.51086(3) 0.02015(7) 1 0
B3 B0+ 8 d 0.16616(17) 0.20561(17) 0.2697(3) 0.0138(6) 1 0
I3 I1- 8 d 0.082804(10) 0.148976(11) 0.198300(19) 0.02090(5) 1 0
B4 B0+ 8 d 0.25128(17) 0.17812(18) 0.2539(3) 0.0138(6) 1 0
I4 I1- 8 d 0.276290(11) 0.086666(11) 0.16168(2) 0.02166(5) 1 0
B5 B0+ 8 d 0.29810(17) 0.20566(18) 0.3794(3) 0.0145(7) 1 0
I5 I1- 8 d 0.382243(11) 0.149039(11) 0.44710(2) 0.02241(5) 1 0
B6 B0+ 4 c 0.2413(2) 0.25 0.4731(4) 0.0158(10) 1 0
I6 I1- 4 c 0.251376(17) 0.25 0.66085(3) 0.02628(8) 1 0
B7 B0+ 4 c 0.2228(2) 0.25 0.1766(4) 0.0137(9) 1 0
I7 I1- 4 c 0.210761(15) 0.25 -0.01228(3) 0.02124(7) 1 0
B8 B0+ 4 c 0.3040(2) 0.25 0.2433(4) 0.0116(9) 1 0
I8 I1- 4 c 0.398022(14) 0.25 0.14828(3) 0.01658(6) 1 0
O1 O2- 8 d 0.6118(3) 0.0303(2) 0.5420(4) 0.0862(16) 1 0
S1 S4+ 8 d 0.65851(8) 0.06026(7) 0.61678(12) 0.0553(3) 1 0
O2 O2- 8 d 0.63230(18) 0.09317(18) 0.7165(3) 0.0492(8) 1 0
O3 O2- 8 d 0.8159(2) 0.0771(2) 0.7054(4) 0.0712(12) 1 0
S2 S4+ 8 d 0.85701(7) 0.04737(6) 0.78872(12) 0.0495(3) 1 0
O4 O2- 8 d 0.92823(18) 0.05315(16) 0.7783(3) 0.0495(8) 1 0
O5 O2- 8 d 0.47349(17) 0.08565(17) 0.0046(3) 0.0453(8) 1 0
S3 S4+ 8 d 0.45589(5) 0.07534(4) 0.12309(9) 0.02724(19) 1 0
O6 O2- 8 d 0.45241(17) 0.00842(15) 0.1629(3) 0.0465(8) 1 0
O7 O2- 8 d 0.53093(17) 0.18967(17) 0.6426(3) 0.0471(8) 1 0
S4 S4+ 4 c 0.53018(7) 0.25 0.57824(12) 0.0296(3) 1 0
O8 O2- 8 d 0.92652(16) 0.18998(15) 0.6676(3) 0.0400(7) 1 0
S5 S4+ 4 c 0.88963(6) 0.25 0.65164(11) 0.0236(2) 1 0
Na1 Na1+ 8 d 0.52200(9) 0.10933(8) 0.81069(15) 0.0363(4) 1 0
loop_
_atom_site_aniso_label
_atom_site_aniso_type_symbol
_atom_site_aniso_U_11
_atom_site_aniso_U_22
_atom_site_aniso_U_33
_atom_site_aniso_U_12
_atom_site_aniso_U_13
_atom_site_aniso_U_23
B1 B0+ 0.0142(16) 0.0152(16) 0.0149(16) 0.0003(13) -0.0003(13) 0.0014(13)
I1 I1- 0.02729(12) 0.02096(11) 0.02655(12) -0.00306(9) 0.00300(9) 0.01017(9)
B2 B0+ 0.012(2) 0.018(2) 0.014(2) 0. 0.0005(18) 0.
I2 I1- 0.01452(13) 0.02919(16) 0.01676(14) 0. 0.00500(11) 0.
B3 B0+ 0.0124(15) 0.0158(16) 0.0131(16) -0.0006(13) -0.0009(12) -0.0024(13)
I3 I1- 0.01645(10) 0.02612(11) 0.02012(11) -0.00698(8) -0.00171(8) -0.00302(9)
B4 B0+ 0.0124(15) 0.0156(16) 0.0134(16) -0.0011(13) 0.0000(12) -0.0010(13)
I4 I1- 0.02026(10) 0.01671(10) 0.02800(12) 0.00025(8) 0.00267(9) -0.00780(9)
B5 B0+ 0.0119(15) 0.0184(16) 0.0133(16) -0.0006(13) -0.0015(12) 0.0008(13)
I5 I1- 0.01713(10) 0.02504(11) 0.02505(11) 0.00449(8) -0.00360(8) 0.00741(9)
B6 B0+ 0.013(2) 0.022(3) 0.013(2) 0. -0.0001(18) 0.
I6 I1- 0.02505(16) 0.0440(2) 0.00983(14) 0. -0.00216(12) 0.
B7 B0+ 0.013(2) 0.016(2) 0.013(2) 0. 0.0023(18) 0.
I7 I1- 0.01852(14) 0.03561(18) 0.00959(13) 0. 0.00010(11) 0.
B8 B0+ 0.010(2) 0.014(2) 0.011(2) 0. 0.0006(17) 0.
I8 I1- 0.01319(13) 0.01901(14) 0.01755(14) 0. 0.00417(11) 0.
O1 O2- 0.157(5) 0.051(2) 0.051(2) -0.009(3) -0.012(3) 0.001(2)
S1 S4+ 0.0656(9) 0.0608(8) 0.0394(7) 0.0174(7) 0.0157(6) 0.0115(6)
O2 O2- 0.053(2) 0.060(2) 0.0342(17) -0.0013(17) 0.0061(15) 0.0022(16)
O3 O2- 0.056(2) 0.066(3) 0.091(3) -0.015(2) -0.001(2) -0.006(2)
S2 S4+ 0.0628(8) 0.0373(6) 0.0484(7) -0.0193(6) 0.0138(6) -0.0078(5)
O4 O2- 0.055(2) 0.0367(18) 0.057(2) -0.0010(15) 0.0148(17) 0.0025(16)
O5 O2- 0.0473(18) 0.051(2) 0.0378(17) 0.0021(16) 0.0024(15) 0.0050(15)
S3 S4+ 0.0258(4) 0.0209(4) 0.0350(5) 0.0025(4) -0.0026(4) -0.0010(4)
O6 O2- 0.0460(18) 0.0281(15) 0.065(2) 0.0093(14) 0.0084(16) 0.0132(15)
O7 O2- 0.0446(18) 0.053(2) 0.0440(19) -0.0067(16) 0.0024(15) 0.0182(16)
S4 S4+ 0.0285(7) 0.0395(8) 0.0206(6) 0. 0.0029(5) 0.
O8 O2- 0.0480(18) 0.0308(16) 0.0411(17) 0.0070(13) 0.0031(14) 0.0052(13)
S5 S4+ 0.0174(5) 0.0321(7) 0.0213(6) 0. 0.0006(5) 0.
Na1 Na1+ 0.0428(9) 0.0280(8) 0.0382(9) 0.0044(7) 0.0081(8) 0.0047(7)
#End of TTdata_168494-ICSD