
#(C) 2019 by FIZ Karlsruhe - Leibniz Institute for Information Infrastructure.  All rights reserved.
data_168693-ICSD
_database_code_ICSD 168693
_audit_creation_date 2011-02-01
_chemical_name_systematic 'Octasodium hexakis(gallosilicate) dinitrate(III)'
_chemical_formula_structural 'Na8 (Ga Si O4)6 (N O2)2'
_chemical_formula_sum 'Ga6 N2 Na8 O28 Si6'
_chemical_name_structure_type Sodalite-frame
_chemical_name_mineral Unnamed_Sodalite
_exptl_crystal_density_diffrn 2.85
_cell_measurement_temperature 293.
_publ_section_title

;
Temperature dependent structural and spectroscopic studies of sodium
gallosilicate nitrite sodalite
;
loop_
_citation_id
_citation_journal_full
_citation_year
_citation_journal_volume
_citation_page_first
_citation_page_last
_citation_journal_id_ASTM
primary 'Materials Research Bulletin' 2010 45 1618 1624 MRBUAC
loop_
_publ_author_name
'Gesing, T.M.'
'Schmidt, B.C.'
'Murshed, M.M.'
_cell_length_a 8.9893(2)
_cell_length_b 8.9893(2)
_cell_length_c 8.9893(2)
_cell_angle_alpha 90.
_cell_angle_beta 90.
_cell_angle_gamma 90.
_cell_volume 726.4
_cell_formula_units_Z 1
_symmetry_space_group_name_H-M 'P -4 3 n'
_symmetry_Int_Tables_number 218
loop_
_symmetry_equiv_pos_site_id
_symmetry_equiv_pos_as_xyz
1 '-z+1/2, y+1/2, -x+1/2'
2 '-y+1/2, x+1/2, -z+1/2'
3 '-x+1/2, z+1/2, -y+1/2'
4 'z+1/2, -y+1/2, -x+1/2'
5 'y+1/2, -x+1/2, -z+1/2'
6 'x+1/2, -z+1/2, -y+1/2'
7 '-z+1/2, -y+1/2, x+1/2'
8 '-y+1/2, -x+1/2, z+1/2'
9 '-x+1/2, -z+1/2, y+1/2'
10 'z+1/2, y+1/2, x+1/2'
11 'y+1/2, x+1/2, z+1/2'
12 'x+1/2, z+1/2, y+1/2'
13 '-z, -x, y'
14 '-y, -z, x'
15 '-x, -y, z'
16 'z, -x, -y'
17 'y, -z, -x'
18 'x, -y, -z'
19 '-z, x, -y'
20 '-y, z, -x'
21 '-x, y, -z'
22 'z, x, y'
23 'y, z, x'
24 'x, y, z'
loop_
_atom_type_symbol
_atom_type_oxidation_number
Na1+ 1
Ga3+ 3
Si4+ 4
O2- -2
N3+ 3
O2- -2
loop_
_atom_site_label
_atom_site_type_symbol
_atom_site_symmetry_multiplicity
_atom_site_Wyckoff_symbol
_atom_site_fract_x
_atom_site_fract_y
_atom_site_fract_z
_atom_site_B_iso_or_equiv
_atom_site_occupancy
_atom_site_attached_hydrogens
Na1 Na1+ 8 e 0.1792(2) 0.1792(2) 0.1792(2) 1.87(18) 1. 0
Ga1 Ga3+ 6 c 0.25 0.5 0 1.36(6) 1. 0
Si1 Si4+ 6 d 0.25 0 0.5 0.72(1) 1. 0
O1 O2- 24 i 0.1527(3) 0.1350(3) 0.4318(4) 0.47(2) 1. 0
N1 N3+ 8 e 0.4816(25) 0.4816(25) 0.4816(25) 1.87(2) 0.25 0
O2 O2- 24 i 0.3891(34) 0.5593(54) 0.5384(82) 1.87(2) 0.1667 0
#End of TTdata_168693-ICSD