
#(C) 2019 by FIZ Karlsruhe - Leibniz Institute for Information Infrastructure.  All rights reserved.
data_168918-ICSD
_database_code_ICSD 168918
_audit_creation_date 2011-02-01
_chemical_name_systematic
'Sodium gadolinium tungsten oxide (0.45/0.55/0.96/3.92) - colourless'
_chemical_formula_structural '(Na0.45 Gd0.55) (W0.96 O3.92)'
_chemical_formula_sum 'Gd0.55 Na0.45 O3.92 W0.96'
_exptl_crystal_density_diffrn 7.22
_cell_measurement_temperature 293.
_publ_section_title
'Symmetry of (Na0.5 R0.5) M O4 crystals (R = Gd, La; M = W, Mo)'
loop_
_citation_id
_citation_journal_full
_citation_year
_citation_journal_volume
_citation_page_first
_citation_page_last
_citation_journal_id_ASTM
primary 'Zhurnal Neorganicheskoi Khimii' 2010 55 1534 1539 ZNOKAQ
loop_
_publ_author_name
'Kuz'micheva, G.M. (Kuzmicheva, G.M.)'
'Rybakov, V.B.'
'Panyutin, V.L.'
'Zharikov, E.V.'
'Subbotin, K.A.'
_cell_length_a 5.2250(16)
_cell_length_b 5.2250(16)
_cell_length_c 11.3261(58)
_cell_angle_alpha 90.
_cell_angle_beta 90.
_cell_angle_gamma 90.
_cell_volume 309.21
_cell_formula_units_Z 4
_symmetry_space_group_name_H-M 'I -4'
_symmetry_Int_Tables_number 82
_refine_ls_R_factor_all 0.0975
loop_
_symmetry_equiv_pos_site_id
_symmetry_equiv_pos_as_xyz
1 '-y, x, -z'
2 'y, -x, -z'
3 '-x, -y, z'
4 'x, y, z'
5 '-y+1/2, x+1/2, -z+1/2'
6 'y+1/2, -x+1/2, -z+1/2'
7 '-x+1/2, -y+1/2, z+1/2'
8 'x+1/2, y+1/2, z+1/2'
loop_
_atom_type_symbol
_atom_type_oxidation_number
Na1+ 1
Gd3+ 3
Na1+ 1
Gd3+ 3
W6+ 6
O2- -2
loop_
_atom_site_label
_atom_site_type_symbol
_atom_site_symmetry_multiplicity
_atom_site_Wyckoff_symbol
_atom_site_fract_x
_atom_site_fract_y
_atom_site_fract_z
_atom_site_B_iso_or_equiv
_atom_site_occupancy
_atom_site_attached_hydrogens
Na1 Na1+ 2 d 0.5 0 0.25 0.00641(11) 0.450(2) 0
Gd1 Gd3+ 2 d 0.5 0 0.25 0.00641(11) 0.550(2) 0
Na2 Na1+ 2 b 0.5 0.5 0 0.00717(11) 0.458(2) 0
Gd2 Gd3+ 2 b 0.5 0.5 0 0.00717(11) 0.542(2) 0
W1 W6+ 2 a 0 0 0 0.01061(4) 1.000(4) 0
W2 W6+ 2 c 0 0.5 0.25 0.01500(8) 0.916(4) 0
O1 O2- 8 g 0.2392(5) -0.1577(5) 0.0872(3) 0.0216(6) 0.958(8) 0
O2 O2- 8 g 0.2408(4) 0.3507(5) 0.1638(2) 0.0149(4) 1.000(7) 0
#End of TTdata_168918-ICSD