
#(C) 2019 by FIZ Karlsruhe - Leibniz Institute for Information Infrastructure.  All rights reserved.
data_169234-ICSD
_database_code_ICSD 169234
_audit_creation_date 2011-02-01
_chemical_name_systematic 'Potassium sodium strontium borate (0.7/0.3/4/3)'
_chemical_formula_structural '(K0.7 Na0.3) Sr4 (B O3)3'
_chemical_formula_sum 'B3 K0.7 Na0.3 O9 Sr4'
_chemical_name_structure_type NaCa4(BO3)3
_exptl_crystal_density_diffrn 4.1
_publ_section_title
'Structural study of nonlinear optical borates K1-x Nax Sr4 (B O3)3  (x<=0.5)'
loop_
_citation_id
_citation_journal_full
_citation_year
_citation_journal_volume
_citation_page_first
_citation_page_last
_citation_journal_id_ASTM
primary 'Powder Diffraction' 2010 25 S11 S16 PODIE2
loop_
_publ_author_name
'Wu, L.'
'Zhang, Y.'
'Su, W.-W.'
'Kong, Y.-F.'
'Xu, J.-J.'
_cell_length_a 11.02391(8)
_cell_length_b 11.98285(9)
_cell_length_c 6.89003(5)
_cell_angle_alpha 90.
_cell_angle_beta 90.
_cell_angle_gamma 90.
_cell_volume 910.16
_cell_formula_units_Z 4
_symmetry_space_group_name_H-M 'A m a 2'
_symmetry_Int_Tables_number 40
_refine_ls_R_factor_all 0.0252
loop_
_symmetry_equiv_pos_site_id
_symmetry_equiv_pos_as_xyz
1 'x+1/2, -y, z'
2 '-x+1/2, y, z'
3 '-x, -y, z'
4 'x, y, z'
5 'x+1/2, -y+1/2, z+1/2'
6 '-x+1/2, y+1/2, z+1/2'
7 '-x, -y+1/2, z+1/2'
8 'x, y+1/2, z+1/2'
loop_
_atom_type_symbol
_atom_type_oxidation_number
Sr2+ 2
K1+ 1
Na1+ 1
O2- -2
B3+ 3
loop_
_atom_site_label
_atom_site_type_symbol
_atom_site_symmetry_multiplicity
_atom_site_Wyckoff_symbol
_atom_site_fract_x
_atom_site_fract_y
_atom_site_fract_z
_atom_site_B_iso_or_equiv
_atom_site_occupancy
_atom_site_attached_hydrogens
Sr1 Sr2+ 4 b 0.25 0.3557(1) 0.0604(3) 0.016(2) 1. 0
Sr2 Sr2+ 8 c -0.0281(1) 0.2154(1) 0.9300(3) 0.011(1) 1. 0
Sr3 Sr2+ 4 a 0 0 0.2829 0.012(2) 1. 0
K1 K1+ 4 b 0.25 0.5906(2) 0.3237(4) 0.021(8) 0.694(2) 0
Na1 Na1+ 4 b 0.25 0.5906(2) 0.3237(4) 0.021(8) 0.306(2) 0
O1 O2- 4 b 0.25 0.3463(1) 0.4471(3) 0.007(6) 1. 0
O2 O2- 4 b 0.25 0.5591(2) 0.9026(4) 0.045(7) 1. 0
O3 O2- 8 c 0.1409(2) 0.6670(1) 0.6705(2) 0.006(4) 1. 0
O4 O2- 8 c 0.0302(1) 0.4014(1) 0.1065(2) 0.003(3) 1. 0
O5 O2- 8 c 0.8528(2) 0.1895(1) 0.2410(3) 0.016(5) 1. 0
O6 O2- 4 a 0 0.5 0.3988(4) 0.013(7) 1. 0
B1 B3+ 4 b 0.25 0.6414(4) 0.7796(6) 0.006(9) 1. 0
B2 B3+ 4 b 0.25 0.3288(3) 0.6393(5) 0.009(7) 1. 0
B3 B3+ 4 a 0 0.5 0.1933(6) 0.005(9) 1. 0
#End of TTdata_169234-ICSD