
#(C) 2019 by FIZ Karlsruhe - Leibniz Institute for Information Infrastructure.  All rights reserved.
data_169443-ICSD
_database_code_ICSD 169443
_audit_creation_date 2011-08-01
_chemical_name_systematic 'Tetrasodium nickel iron triphosphate'
_chemical_formula_structural 'Na4 Ni Fe (P O4)3'
_chemical_formula_sum 'Fe1 Na4 Ni1 O12 P3'
_chemical_name_structure_type Na4Zr2(SiO4)3
_exptl_crystal_density_diffrn 3.42
_cell_measurement_temperature 293.
_publ_section_title

;
Crystal structures and magnetic properties of iron(III)-based phosphates Na4
Ni Fe (P O4) and Na2 Ni2 Fe (P O4)3
;
loop_
_citation_id
_citation_journal_full
_citation_year
_citation_journal_volume
_citation_page_first
_citation_page_last
_citation_journal_id_ASTM
primary 'Journal of Alloys and Compounds' 2011 509 1163 1171 JALCEU
loop_
_publ_author_name
'Essehli, R.'
'El Bali, B.'
'Benmokhtar, S.'
'Bouziane, K.'
'Manoun, B.'
'Abdalslam, M.A.'
'Ehrenberg, H.'
_cell_length_a 8.7350(9)
_cell_length_b 8.7350(9)
_cell_length_c 21.643(4)
_cell_angle_alpha 90.
_cell_angle_beta 90.
_cell_angle_gamma 120.
_cell_volume 1430.12
_cell_formula_units_Z 6
_symmetry_space_group_name_H-M 'R -3 c H'
_symmetry_Int_Tables_number 167
_refine_ls_R_factor_all 0.0414
loop_
_symmetry_equiv_pos_site_id
_symmetry_equiv_pos_as_xyz
1 'x-y, -y, -z+1/2'
2 '-x, -x+y, -z+1/2'
3 'y, x, -z+1/2'
4 'x-y, x, -z'
5 'y, -x+y, -z'
6 '-x, -y, -z'
7 '-x+y, y, z+1/2'
8 'x, x-y, z+1/2'
9 '-y, -x, z+1/2'
10 '-x+y, -x, z'
11 '-y, x-y, z'
12 'x, y, z'
13 'x-y+2/3, -y+1/3, -z+5/6'
14 '-x+2/3, -x+y+1/3, -z+5/6'
15 'y+2/3, x+1/3, -z+5/6'
16 'x-y+2/3, x+1/3, -z+1/3'
17 'y+2/3, -x+y+1/3, -z+1/3'
18 '-x+2/3, -y+1/3, -z+1/3'
19 '-x+y+2/3, y+1/3, z+5/6'
20 'x+2/3, x-y+1/3, z+5/6'
21 '-y+2/3, -x+1/3, z+5/6'
22 '-x+y+2/3, -x+1/3, z+1/3'
23 '-y+2/3, x-y+1/3, z+1/3'
24 'x+2/3, y+1/3, z+1/3'
25 'x-y+1/3, -y+2/3, -z+1/6'
26 '-x+1/3, -x+y+2/3, -z+1/6'
27 'y+1/3, x+2/3, -z+1/6'
28 'x-y+1/3, x+2/3, -z+2/3'
29 'y+1/3, -x+y+2/3, -z+2/3'
30 '-x+1/3, -y+2/3, -z+2/3'
31 '-x+y+1/3, y+2/3, z+1/6'
32 'x+1/3, x-y+2/3, z+1/6'
33 '-y+1/3, -x+2/3, z+1/6'
34 '-x+y+1/3, -x+2/3, z+2/3'
35 '-y+1/3, x-y+2/3, z+2/3'
36 'x+1/3, y+2/3, z+2/3'
loop_
_atom_type_symbol
_atom_type_oxidation_number
Fe3+ 3
Ni2+ 2
P5+ 5
Na1+ 1
O2- -2
loop_
_atom_site_label
_atom_site_type_symbol
_atom_site_symmetry_multiplicity
_atom_site_Wyckoff_symbol
_atom_site_fract_x
_atom_site_fract_y
_atom_site_fract_z
_atom_site_B_iso_or_equiv
_atom_site_occupancy
_atom_site_attached_hydrogens
Fe1 Fe3+ 12 c 0 0 0.1482(4) 0.0091(3) 0.5 0
Ni1 Ni2+ 12 c 0 0 0.1482(4) 0.0091(3) 0.5 0
P1 P5+ 18 e -0.3333 -0.3740(1) 0.0833 0.0079(3) 1. 0
Na1 Na1+ 6 b 0 0 0 0.071(3) 1. 0
Na2 Na1+ 18 e -0.3333 -0.0301(5) 0.0833 0.0545(1) 1. 0
O1 O2- 36 f 0.1819(5) 0.2060(5) 0.1924(1) 0.0235(7) 1. 0
O2 O2- 36 f 0.1900(4) 0.0215(4) 0.0874(1) 0.0132(6) 1. 0
loop_
_atom_site_aniso_label
_atom_site_aniso_type_symbol
_atom_site_aniso_U_11
_atom_site_aniso_U_22
_atom_site_aniso_U_33
_atom_site_aniso_U_12
_atom_site_aniso_U_13
_atom_site_aniso_U_23
Fe1 Fe3+ 0.0093(3) 0.0093(3) 0.0089(4) 0.00463(17) 0. 0.
Ni1 Ni2+ 0.0093(3) 0.0093(3) 0.0089(4) 0.00463(17) 0. 0.
P1 P5+ 0.0059(5) 0.0055(4) 0.0123(6) 0.0030(3) -0.0025(4) -0.0012(2)
Na1 Na1+ 0.099(5) 0.099(5) 0.016(3) 0.049(2) 0. 0.
Na2 Na1+ 0.0268(18) 0.0301(14) 0.106(4) 0.0134(9) -0.018(2) -0.0091(11)
O1 O2- 0.0187(15) 0.0208(15) 0.0287(16) 0.0082(13) -0.0121(12) -0.0147(13)
O2 O2- 0.0080(12) 0.0155(13) 0.0169(12) 0.0066(10) 0.0033(9) 0.0014(10)
#End of TTdata_169443-ICSD