
#(C) 2019 by FIZ Karlsruhe - Leibniz Institute for Information Infrastructure.  All rights reserved.
data_169831-ICSD
_database_code_ICSD 169831
_audit_creation_date 2011-08-01
_audit_update_record 2013-02-01
_chemical_name_systematic
'Sodium holmium silicate oxide chloride (0.96/9.04/6/0.02/1.98)'
_chemical_formula_structural 'Na0.96 Ho9.04 (Si O4)6 Cl0.02 O1.98'
_chemical_formula_sum 'Cl0.02 Ho9.04 Na0.96 O25.98 Si6'
_chemical_name_structure_type Apatite#-(HE,P63/m)
_chemical_name_mineral Apatite-(Na,Ho,Si,Cl,O)
_exptl_crystal_density_diffrn 6.81
_cell_measurement_temperature 293.
_publ_section_title

;
Structural characterization of Na0.96 Ho9.04 (Si O4)6 Cl0.02 O1.98 apatite
prepared by mechanical milling
;
loop_
_citation_id
_citation_journal_full
_citation_year
_citation_journal_volume
_citation_page_first
_citation_page_last
_citation_journal_id_ASTM
primary 'Journal of Chemical Crystallography' 2010 40 323 327 JCCYEV
loop_
_publ_author_name
'Rosales, I.'
'Orozco, E.'
'Bucio, L.'
'Fuentes, M.E.'
'Fuentes, L.'
_cell_length_a 9.3444(1)
_cell_length_b 9.3444(1)
_cell_length_c 6.7611(1)
_cell_angle_alpha 90.
_cell_angle_beta 90.
_cell_angle_gamma 120.
_cell_volume 511.27
_cell_formula_units_Z 1
_symmetry_space_group_name_H-M 'P 63/m'
_symmetry_Int_Tables_number 176
_refine_ls_R_factor_all 0.03
loop_
_symmetry_equiv_pos_site_id
_symmetry_equiv_pos_as_xyz
1 '-x+y, -x, -z+1/2'
2 '-y, x-y, -z+1/2'
3 'x, y, -z+1/2'
4 'x-y, x, -z'
5 'y, -x+y, -z'
6 '-x, -y, -z'
7 'x-y, x, z+1/2'
8 'y, -x+y, z+1/2'
9 '-x, -y, z+1/2'
10 '-x+y, -x, z'
11 '-y, x-y, z'
12 'x, y, z'
loop_
_atom_type_symbol
_atom_type_oxidation_number
Ho3+ 3
Na1+ 1
Ho3+ 3
Si4+ 4
O2- -2
Cl1- -1
loop_
_atom_site_label
_atom_site_type_symbol
_atom_site_symmetry_multiplicity
_atom_site_Wyckoff_symbol
_atom_site_fract_x
_atom_site_fract_y
_atom_site_fract_z
_atom_site_B_iso_or_equiv
_atom_site_occupancy
_atom_site_attached_hydrogens
Ho1 Ho3+ 6 h 0.2370(2) 0.0028(4) 0.25 0.0010(2) 1. 0
Na1 Na1+ 4 f 0.3333 0.6667 -0.0008(7) 0.0010(2) 0.24 0
Ho2 Ho3+ 4 f 0.3333 0.6667 -0.0008(7) 0.0010(2) 0.76 0
Si1 Si4+ 6 h 0.3742(10) 0.4000(10) 0.25 0.0018(2) 1. 0
O1 O2- 12 i 0.2465(11) 0.3350(11) 0.4381(14) 0.008(3) 1. 0
O2 O2- 6 h 0.4851(18) 0.3202(20) 0.25 0.008(3) 1. 0
O3 O2- 6 h 0.5189(19) 0.3947(20) 0.75 0.008(3) 1. 0
O4 O2- 2 a 0 0 0.25 0.008(3) 0.99 0
Cl1 Cl1- 2 a 0 0 0.25 0.008(3) 0.01 0
#End of TTdata_169831-ICSD