
#(C) 2019 by FIZ Karlsruhe - Leibniz Institute for Information Infrastructure.  All rights reserved.
data_169991-ICSD
_database_code_ICSD 169991
_audit_creation_date 2011-08-01
_audit_update_record 2017-08-01
_chemical_name_systematic 'Sodium potassium aluminium arsenate (2.08/0.92/3/4)'
_chemical_formula_structural 'Na2.08 K0.92 Al3 (As O4)4'
_chemical_formula_sum 'Al3 As4 K0.92 Na2.08 O16'
_chemical_name_mineral Ozerovaite
_exptl_crystal_density_diffrn 3.5
_cell_measurement_temperature 293.
_publ_section_title
'New arsenates(V) Na K Al2 O (As O4)2 and Na2 K Al3 (As O4)4'
loop_
_citation_id
_citation_journal_full
_citation_year
_citation_journal_volume
_citation_page_first
_citation_page_last
_citation_journal_id_ASTM
primary 'Materials Research Bulletin' 2010 45 2017 2023 MRBUAC
loop_
_publ_author_name
'Ben Yahia, H.'
'Nilges, T.'
'Rodewald, U.C.'
'Poettgen, R.'
_cell_length_a 10.5049(9)
_cell_length_b 20.482(2)
_cell_length_c 6.3574(6)
_cell_angle_alpha 90.
_cell_angle_beta 90.
_cell_angle_gamma 90.
_cell_volume 1367.87
_cell_formula_units_Z 4
_symmetry_space_group_name_H-M 'C m c e'
_symmetry_Int_Tables_number 64
_refine_ls_R_factor_all 0.0365
loop_
_symmetry_equiv_pos_site_id
_symmetry_equiv_pos_as_xyz
1 '-x, -y+1/2, z+1/2'
2 '-x, y+1/2, -z+1/2'
3 '-x, y, z'
4 '-x, -y, -z'
5 'x, y+1/2, -z+1/2'
6 'x, -y+1/2, z+1/2'
7 'x, -y, -z'
8 'x, y, z'
9 '-x+1/2, -y, z+1/2'
10 '-x+1/2, y, -z+1/2'
11 '-x+1/2, y+1/2, z'
12 '-x+1/2, -y+1/2, -z'
13 'x+1/2, y, -z+1/2'
14 'x+1/2, -y, z+1/2'
15 'x+1/2, -y+1/2, -z'
16 'x+1/2, y+1/2, z'
loop_
_atom_type_symbol
_atom_type_oxidation_number
K1+ 1
Na1+ 1
Al3+ 3
As5+ 5
O2- -2
loop_
_atom_site_label
_atom_site_type_symbol
_atom_site_symmetry_multiplicity
_atom_site_Wyckoff_symbol
_atom_site_fract_x
_atom_site_fract_y
_atom_site_fract_z
_atom_site_B_iso_or_equiv
_atom_site_occupancy
_atom_site_attached_hydrogens
K1 K1+ 16 g 0.2263(14) 0.2292(5) 0.124(2) 0.069(3) 0.23(2) 0
Na1 Na1+ 16 g 0.2263(14) 0.2292(5) 0.124(2) 0.069(3) 0.14(3) 0
Na2 Na1+ 8 f 0 0.1629(6) 0.0566(16) 0.0491(19) 0.76(8) 0
Al1 Al3+ 4 b 0 0 0.5 0.0100(6) 1. 0
Al2 Al3+ 8 e 0.25 0.09158(9) 0.75 0.0106(4) 1. 0
As1 As5+ 8 f 0 0.34546(3) 0.05952(9) 0.01072(16) 1. 0
As2 As5+ 8 e 0.25 0.04441(3) 0.25 0.01004(16) 1. 0
O1 O2- 8 f 0 0.4149(2) -0.0867(7) 0.0130(11) 1. 0
O2 O2- 8 f 0 0.2821(2) -0.1010(8) 0.0214(13) 1. 0
O3 O2- 16 g 0.1369(3) -0.01464(15) 0.2971(4) 0.0113(7) 1. 0
O4 O2- 16 g 0.2108(3) 0.09074(14) 0.0460(5) 0.0135(8) 1. 0
O5 O2- 16 g 0.1265(3) 0.34672(15) 0.2230(5) 0.0146(8) 1. 0
loop_
_atom_site_aniso_label
_atom_site_aniso_type_symbol
_atom_site_aniso_U_11
_atom_site_aniso_U_22
_atom_site_aniso_U_33
_atom_site_aniso_U_12
_atom_site_aniso_U_13
_atom_site_aniso_U_23
K1 K1+ 0.069(4) 0.036(3) 0.102(6) 0.026(3) 0.037(5) -0.003(3)
Na1 Na1+ 0.069(4) 0.036(3) 0.102(6) 0.026(3) 0.037(5) -0.003(3)
Na2 Na1+ 0.067(4) 0.063(4) 0.018(2) 0. 0. -0.004(2)
Al1 Al3+ 0.0079(10) 0.0136(11) 0.0086(10) 0. 0. 0.0001(8)
Al2 Al3+ 0.0077(7) 0.0151(8) 0.0090(7) 0. -0.0009(6) 0.
As1 As5+ 0.0077(3) 0.0149(3) 0.0095(3) 0. 0. -0.0009(2)
As2 As5+ 0.0091(3) 0.0137(3) 0.0073(3) 0. 0.00048(19) 0.
O1 O2- 0.0137(9) 0.0145(18) 0.011(2) 0. 0. 0.0006(15)
O2 O2- 0.027(2) 0.019(2) 0.018(2) 0. 0. -0.0067(18)
O3 O2- 0.0096(11) 0.0152(13) 0.0092(12) 0.0021(11) 0.0019(9) -0.0007(10)
O4 O2- 0.0150(14) 0.0174(15) 0.0080(13) 0.0014(11) 0.0028(11) 0.0006(10)
O5 O2- 0.0106(13) 0.0182(14) 0.0151(14) -0.0037(11) -0.0028(10) 0.0022(11)
#End of TTdata_169991-ICSD