
#(C) 2019 by FIZ Karlsruhe - Leibniz Institute for Information Infrastructure.  All rights reserved.
data_170176-ICSD
_database_code_ICSD 170176
_audit_creation_date 2006-04-01
_chemical_name_systematic 'Dipraseodymium sodium osmium oxide'
_chemical_formula_structural 'Pr2 Na Os O6'
_chemical_formula_sum 'Na1 O6 Os1 Pr2'
_chemical_name_structure_type Perovskite-Na3AlF6
_exptl_crystal_density_diffrn 7.51
_cell_measurement_temperature 294.
_publ_section_title

;
Crystal growth and magnetic properties of lanthanide-containing osmium double
perovskites, Ln2 Na Os O6 (Ln = La, Pr, Nd)
;
loop_
_citation_id
_citation_journal_full
_citation_year
_citation_journal_volume
_citation_page_first
_citation_page_last
_citation_journal_id_ASTM
primary 'Inorganic Chemistry' 2005 44 2639 2646 INOCAJ
loop_
_publ_author_name
'Gemmill, W.R.'
'Smith, M.D.'
'Prozorov, R.'
'zur Loye, H.C.'
_cell_length_a 5.5427(2)
_cell_length_b 5.9289(2)
_cell_length_c 7.9509(3)
_cell_angle_alpha 90.
_cell_angle_beta 90.8540(10)
_cell_angle_gamma 90.
_cell_volume 261.25
_cell_formula_units_Z 2
_symmetry_space_group_name_H-M 'P 1 21/n 1'
_symmetry_Int_Tables_number 14
_refine_ls_R_factor_all 0.0262
loop_
_symmetry_equiv_pos_site_id
_symmetry_equiv_pos_as_xyz
1 '-x+1/2, y+1/2, -z+1/2'
2 '-x, -y, -z'
3 'x+1/2, -y+1/2, z+1/2'
4 'x, y, z'
loop_
_atom_type_symbol
_atom_type_oxidation_number
Pr3+ 3
Os5+ 5
Na1+ 1
O2- -2
loop_
_atom_site_label
_atom_site_type_symbol
_atom_site_symmetry_multiplicity
_atom_site_Wyckoff_symbol
_atom_site_fract_x
_atom_site_fract_y
_atom_site_fract_z
_atom_site_B_iso_or_equiv
_atom_site_occupancy
_atom_site_attached_hydrogens
Pr1 Pr3+ 4 e 0.48153(4) 0.06874(5) 0.25277(3) 0.00656(8) 1 0
Os1 Os5+ 2 b 0.5 0.5 0. 0.00439(7) 1 0
Na1 Na1+ 2 a 0. 0. 0. 0.0080(5) 1 0
O1 O2- 4 e 0.2078(6) 0.3272(6) 0.0508(4) 0.0077(6) 1 0
O2 O2- 4 e 0.6161(7) 0.4502(7) 0.2318(5) 0.0089(6) 1 0
O3 O2- 4 e 0.3363(6) 0.7809(7) 0.0674(5) 0.0093(6) 1 0
loop_
_atom_site_aniso_label
_atom_site_aniso_type_symbol
_atom_site_aniso_U_11
_atom_site_aniso_U_22
_atom_site_aniso_U_33
_atom_site_aniso_U_12
_atom_site_aniso_U_13
_atom_site_aniso_U_23
Pr1 Pr3+ 0.00747(12) 0.00546(13) 0.00674(12) -0.00045(8) -0.00031(8) 0.00017(8)
Os1 Os5+ 0.00468(11) 0.00437(12) 0.00410(11) -0.00021(7) -0.00021(7) 0.00016(8)
Na1 Na1+ 0.0094(13) 0.0088(14) 0.0058(12) -0.0002(10) -0.0007(10) 0.0010(10)
O1 O2- 0.0094(14) 0.0059(16) 0.0078(15) -0.0023(11) 0.0016(11) 0.0005(12)
O2 O2- 0.0120(16) 0.0087(17) 0.0061(15) -0.0025(12) -0.0014(12) 0.0001(12)
O3 O2- 0.0119(15) 0.0061(16) 0.0100(16) 0.0004(12) -0.0018(12) -0.0021(13)
#End of TTdata_170176-ICSD