
#(C) 2019 by FIZ Karlsruhe - Leibniz Institute for Information Infrastructure.  All rights reserved.
data_170177-ICSD
_database_code_ICSD 170177
_audit_creation_date 2006-04-01
_chemical_name_systematic 'Dineodymium sodium osmium oxide'
_chemical_formula_structural 'Nd2 Na Os O6'
_chemical_formula_sum 'Na1 Nd2 O6 Os1'
_chemical_name_structure_type Perovskite-Na3AlF6
_exptl_crystal_density_diffrn 7.67
_publ_section_title

;
Crystal growth and magnetic properties of lanthanide-containing osmium double
perovskites, Ln2 Na Os O6 (Ln = La, Pr, Nd)
;
loop_
_citation_id
_citation_journal_full
_citation_year
_citation_journal_volume
_citation_page_first
_citation_page_last
_citation_journal_id_ASTM
primary 'Inorganic Chemistry' 2005 44 2639 2646 INOCAJ
loop_
_publ_author_name
'Gemmill, W.R.'
'Smith, M.D.'
'Prozorov, R.'
'zur Loye, H.C.'
_cell_length_a 5.5162(2)
_cell_length_b 5.9189(2)
_cell_length_c 7.9293(3)
_cell_angle_alpha 90.
_cell_angle_beta 90.9870(10)
_cell_angle_gamma 90.
_cell_volume 258.85
_cell_formula_units_Z 2
_symmetry_space_group_name_H-M 'P 1 21/n 1'
_symmetry_Int_Tables_number 14
_refine_ls_R_factor_all 0.0311
loop_
_symmetry_equiv_pos_site_id
_symmetry_equiv_pos_as_xyz
1 '-x+1/2, y+1/2, -z+1/2'
2 '-x, -y, -z'
3 'x+1/2, -y+1/2, z+1/2'
4 'x, y, z'
loop_
_atom_type_symbol
_atom_type_oxidation_number
Nd3+ 3
Na1+ 1
Os5+ 5
O2- -2
loop_
_atom_site_label
_atom_site_type_symbol
_atom_site_symmetry_multiplicity
_atom_site_Wyckoff_symbol
_atom_site_fract_x
_atom_site_fract_y
_atom_site_fract_z
_atom_site_B_iso_or_equiv
_atom_site_occupancy
_atom_site_attached_hydrogens
Nd1 Nd3+ 4 e 0.48048(5) 0.06998(5) 0.25299(3) 0.00635(8) 1 0
Na1 Na1+ 2 a 0. 0. 0. 0.0086(6) 1 0
Os1 Os5+ 2 b 0.5 0.5 0. 0.00422(7) 1 0
O1 O2- 4 e 0.2070(7) 0.3274(7) 0.0514(5) 0.0088(7) 1 0
O2 O2- 4 e 0.6181(7) 0.4487(7) 0.2309(5) 0.0070(6) 1 0
O3 O2- 4 e 0.3373(7) 0.7805(7) 0.0680(5) 0.0094(7) 1 0
loop_
_atom_site_aniso_label
_atom_site_aniso_type_symbol
_atom_site_aniso_U_11
_atom_site_aniso_U_22
_atom_site_aniso_U_33
_atom_site_aniso_U_12
_atom_site_aniso_U_13
_atom_site_aniso_U_23
Nd1 Nd3+ 0.00682(12) 0.00526(13) 0.00697(13) -0.00039(8) 0.00044(8) 0.00023(9)
Na1 Na1+ 0.0080(13) 0.0108(15) 0.0069(14) -0.0018(10) -0.0002(10) 0.0008(12)
Os1 Os5+ 0.00426(11) 0.00401(13) 0.00439(12) -0.00007(7) 0.00047(8) 0.00010(9)
O1 O2- 0.0099(15) 0.0072(18) 0.0094(17) -0.0021(12) 0.0007(12) -0.0014(13)
O2 O2- 0.0086(15) 0.0071(16) 0.0053(15) -0.0026(12) 0.0000(12) 0.0014(13)
O3 O2- 0.0123(16) 0.0076(17) 0.0083(17) 0.0011(13) -0.0009(13) -0.0015(14)
#End of TTdata_170177-ICSD