
#(C) 2019 by FIZ Karlsruhe - Leibniz Institute for Information Infrastructure.  All rights reserved.
data_170596-ICSD
_database_code_ICSD 170596
_audit_creation_date 2006-04-01
_chemical_name_systematic
'Sodium cerium silicate fluoride oxide (1.33/8.67/6/0.68/1.34)'
_chemical_formula_structural 'Na1.33 Ce8.67 (Si O4)6 (F0.34 O0.67)2'
_chemical_formula_sum 'Ce8.67 F0.68 Na1.33 O25.34 Si6'
_chemical_name_structure_type Apatite#-(HE,P63/m)
_exptl_crystal_density_diffrn 5.34
_publ_section_title

;
Synthesis and structure of Na4/3 Ce26/3 (Si O4)6 (F1/3 O2/3)2; ionic
conductivity in the apatite series Na4/3 Ln26/3 (Si O4)6 (F1/3 O2/3)2 (Ln =
La, Ce, Gd) and Na4/3 Ce26/3 (Si O4)6 O2
;
loop_
_citation_id
_citation_journal_full
_citation_year
_citation_journal_volume
_citation_page_first
_citation_page_last
_citation_journal_id_ASTM
primary 'Chemistry of Materials' 2004 16 5220 5222 CMATEX
loop_
_publ_author_name
'Maisonneuve, V.'
'Leduc, E.'
'Bohnke, O.'
'Leblanc, M.'
_cell_length_a 9.64(2)
_cell_length_b 9.64(2)
_cell_length_c 7.08(2)
_cell_angle_alpha 90.
_cell_angle_beta 90.
_cell_angle_gamma 120.
_cell_volume 569.79
_cell_formula_units_Z 1
_symmetry_space_group_name_H-M 'P 63/m'
_symmetry_Int_Tables_number 176
_refine_ls_R_factor_all 0.0509
loop_
_symmetry_equiv_pos_site_id
_symmetry_equiv_pos_as_xyz
1 '-x+y, -x, -z+1/2'
2 '-y, x-y, -z+1/2'
3 'x, y, -z+1/2'
4 'x-y, x, -z'
5 'y, -x+y, -z'
6 '-x, -y, -z'
7 'x-y, x, z+1/2'
8 'y, -x+y, z+1/2'
9 '-x, -y, z+1/2'
10 '-x+y, -x, z'
11 '-y, x-y, z'
12 'x, y, z'
loop_
_atom_type_symbol
_atom_type_oxidation_number
Ce3+ 3
Na1+ 1
Si4+ 4
O2- -2
F1- -1
O2- -2
loop_
_atom_site_label
_atom_site_type_symbol
_atom_site_symmetry_multiplicity
_atom_site_Wyckoff_symbol
_atom_site_fract_x
_atom_site_fract_y
_atom_site_fract_z
_atom_site_B_iso_or_equiv
_atom_site_occupancy
_atom_site_attached_hydrogens
Ce1 Ce3+ 6 h 0.25027(4) 0.01290(4) 0.25 0.00982(10) 1 0
Ce2 Ce3+ 4 f 0.6667 0.3333 -0.00269(11) 0.01140(13) 0.67 0
Na1 Na1+ 4 f 0.6667 0.3333 -0.00269(11) 0.01140(13) 0.33 0
Si1 Si4+ 6 h 0.37253(19) 0.39917(19) 0.25 0.0071(3) 1 0
O1 O2- 6 h 0.4830(6) 0.3177(7) 0.25 0.0157(9) 1 0
O2 O2- 6 h 0.4718(6) 0.5931(6) 0.25 0.0203(11) 1 0
O3 O2- 12 i 0.2519(5) 0.3381(7) 0.0700(7) 0.0390(14) 1 0
F1 F1- 4 e 0. 0. 0.330(5) 0.091(19) 0.17 0
O4 O2- 4 e 0. 0. 0.330(5) 0.091(19) 0.33 0
loop_
_atom_site_aniso_label
_atom_site_aniso_type_symbol
_atom_site_aniso_U_11
_atom_site_aniso_U_22
_atom_site_aniso_U_33
_atom_site_aniso_U_12
_atom_site_aniso_U_13
_atom_site_aniso_U_23
Ce1 Ce3+ 0.00997(15) 0.00743(15) 0.01057(15) 0.00324(12) 0. 0.
Ce2 Ce3+ 0.00880(15) 0.00880(15) 0.0166(3) 0.00440(8) 0. 0.
Na1 Na1+ 0.00880(15) 0.00880(15) 0.0166(3) 0.00440(8) 0. 0.
Si1 Si4+ 0.0065(6) 0.0077(6) 0.0070(7) 0.0035(5) 0. 0.
O1 O2- 0.016(2) 0.025(2) 0.017(2) 0.018(2) 0. 0.
O2 O2- 0.013(2) 0.009(2) 0.036(3) 0.0033(17) 0. 0.
O3 O2- 0.0211(19) 0.086(4) 0.021(2) 0.036(2) -0.0119(17) -0.032(3)
F1 F1- 0.017(3) 0.017(3) 0.24(6) 0.0083(14) 0. 0.
O4 O2- 0.016(2) 0.025(2) 0.017(2) 0.018(2) 0. 0.
#End of TTdata_170596-ICSD