
#(C) 2019 by FIZ Karlsruhe - Leibniz Institute for Information Infrastructure.  All rights reserved.
data_17056-ICSD
_database_code_ICSD 17056
_audit_creation_date 1982-12-31
_chemical_name_systematic 'Trisodium trilithium dodecafluorodiferrate(III)'
_chemical_formula_structural 'Na3 Li3 Fe2 F12'
_chemical_formula_sum 'F12 Fe2 Li3 Na3'
_chemical_name_structure_type Garnet-Ca3Al2Si3O12
_exptl_crystal_density_diffrn 3.
_publ_section_title

;
Verfeinerung der Granatstruktur des Natrium-Lithium-Eisen(III)fluorids Na3 Li3
Fe2 F12
;
loop_
_citation_id
_citation_journal_full
_citation_year
_citation_journal_volume
_citation_page_first
_citation_page_last
_citation_journal_id_ASTM
primary 'Zeitschrift fuer Kristallographie' 1982 158 299 306 ZEKRDZ
loop_
_publ_author_name
'Massa, W.'
'Post, B.'
'Babel, D.'
_cell_length_a 12.387(2)
_cell_length_b 12.387(2)
_cell_length_c 12.387(2)
_cell_angle_alpha 90.
_cell_angle_beta 90.
_cell_angle_gamma 90.
_cell_volume 1900.63
_cell_formula_units_Z 8
_symmetry_space_group_name_H-M 'I a -3 d'
_symmetry_Int_Tables_number 230
_refine_ls_R_factor_all 0.018
loop_
_symmetry_equiv_pos_site_id
_symmetry_equiv_pos_as_xyz
1 '-z+3/4, y+1/4, x+3/4'
2 'z+3/4, -y+3/4, x+1/4'
3 'z+1/4, y+3/4, -x+3/4'
4 '-z+1/4, -y+1/4, -x+1/4'
5 'y+1/4, x+3/4, -z+3/4'
6 '-y+3/4, x+1/4, z+3/4'
7 'y+3/4, -x+3/4, z+1/4'
8 '-y+1/4, -x+1/4, -z+1/4'
9 'x+3/4, -z+3/4, y+1/4'
10 'x+1/4, z+3/4, -y+3/4'
11 '-x+3/4, z+1/4, y+3/4'
12 '-x+1/4, -z+1/4, -y+1/4'
13 'z+3/4, -y+1/4, -x+3/4'
14 '-z+3/4, y+3/4, -x+1/4'
15 '-z+1/4, -y+3/4, x+3/4'
16 'z+1/4, y+1/4, x+1/4'
17 '-y+1/4, -x+3/4, z+3/4'
18 'y+3/4, -x+1/4, -z+3/4'
19 '-y+3/4, x+3/4, -z+1/4'
20 'y+1/4, x+1/4, z+1/4'
21 '-x+3/4, z+3/4, -y+1/4'
22 '-x+1/4, -z+3/4, y+3/4'
23 'x+3/4, -z+1/4, -y+3/4'
24 'x+1/4, z+1/4, y+1/4'
25 '-z+1/2, x+1/2, y'
26 'z+1/2, x, -y+1/2'
27 'z, -x+1/2, y+1/2'
28 '-z, -x, -y'
29 'y, -z+1/2, x+1/2'
30 '-y+1/2, z+1/2, x'
31 'y+1/2, z, -x+1/2'
32 '-y, -z, -x'
33 'x+1/2, y, -z+1/2'
34 'x, -y+1/2, z+1/2'
35 '-x+1/2, y+1/2, z'
36 '-x, -y, -z'
37 'z+1/2, -x+1/2, -y'
38 '-z+1/2, -x, y+1/2'
39 '-z, x+1/2, -y+1/2'
40 'z, x, y'
41 '-y, z+1/2, -x+1/2'
42 'y+1/2, -z+1/2, -x'
43 '-y+1/2, -z, x+1/2'
44 'y, z, x'
45 '-x+1/2, -y, z+1/2'
46 '-x, y+1/2, -z+1/2'
47 'x+1/2, -y+1/2, -z'
48 'x, y, z'
49 '-z+1/4, y+3/4, x+1/4'
50 'z+1/4, -y+1/4, x+3/4'
51 'z+3/4, y+1/4, -x+1/4'
52 '-z+3/4, -y+3/4, -x+3/4'
53 'y+3/4, x+1/4, -z+1/4'
54 '-y+1/4, x+3/4, z+1/4'
55 'y+1/4, -x+1/4, z+3/4'
56 '-y+3/4, -x+3/4, -z+3/4'
57 'x+1/4, -z+1/4, y+3/4'
58 'x+3/4, z+1/4, -y+1/4'
59 '-x+1/4, z+3/4, y+1/4'
60 '-x+3/4, -z+3/4, -y+3/4'
61 'z+1/4, -y+3/4, -x+1/4'
62 '-z+1/4, y+1/4, -x+3/4'
63 '-z+3/4, -y+1/4, x+1/4'
64 'z+3/4, y+3/4, x+3/4'
65 '-y+3/4, -x+1/4, z+1/4'
66 'y+1/4, -x+3/4, -z+1/4'
67 '-y+1/4, x+1/4, -z+3/4'
68 'y+3/4, x+3/4, z+3/4'
69 '-x+1/4, z+1/4, -y+3/4'
70 '-x+3/4, -z+1/4, y+1/4'
71 'x+1/4, -z+3/4, -y+1/4'
72 'x+3/4, z+3/4, y+3/4'
73 '-z, x, y+1/2'
74 'z, x+1/2, -y'
75 'z+1/2, -x, y'
76 '-z+1/2, -x+1/2, -y+1/2'
77 'y+1/2, -z, x'
78 '-y, z, x+1/2'
79 'y, z+1/2, -x'
80 '-y+1/2, -z+1/2, -x+1/2'
81 'x, y+1/2, -z'
82 'x+1/2, -y, z'
83 '-x, y, z+1/2'
84 '-x+1/2, -y+1/2, -z+1/2'
85 'z, -x, -y+1/2'
86 '-z, -x+1/2, y'
87 '-z+1/2, x, -y'
88 'z+1/2, x+1/2, y+1/2'
89 '-y+1/2, z, -x'
90 'y, -z, -x+1/2'
91 '-y, -z+1/2, x'
92 'y+1/2, z+1/2, x+1/2'
93 '-x, -y+1/2, z'
94 '-x+1/2, y, -z'
95 'x, -y, -z+1/2'
96 'x+1/2, y+1/2, z+1/2'
loop_
_atom_type_symbol
_atom_type_oxidation_number
Fe3+ 3
Na1+ 1
Li1+ 1
F1- -1
loop_
_atom_site_label
_atom_site_type_symbol
_atom_site_symmetry_multiplicity
_atom_site_Wyckoff_symbol
_atom_site_fract_x
_atom_site_fract_y
_atom_site_fract_z
_atom_site_B_iso_or_equiv
_atom_site_occupancy
_atom_site_attached_hydrogens
Fe1 Fe3+ 16 a 0 0 0 . 1. 0
Na1 Na1+ 24 c 0.125 0 0.25 . 1. 0
Li1 Li1+ 24 d 0.375 0 0.25 . 1. 0
F1 F1- 96 h -.02954(6) 0.04737(7) 0.14538(7) . 1. 0
loop_
_atom_site_aniso_label
_atom_site_aniso_type_symbol
_atom_site_aniso_U_11
_atom_site_aniso_U_22
_atom_site_aniso_U_33
_atom_site_aniso_U_12
_atom_site_aniso_U_13
_atom_site_aniso_U_23
Fe1 Fe3+ 0.0092(1) 0.0092(1) 0.0092(1) 0 0 0
Na1 Na1+ 0.0153(3) 0.0224(4) 0.0224(4) 0 0 0.0034(5)
Li1 Li1+ 0.0134(20) 0.0167(13) 0.0167(13) 0 0 0
F1 F1- 0.0172(4) 0.0195(4) 0.0115(4) -.0008(3) 0.0028(3) -.0020(3)
#End of TTdata_17056-ICSD