
#(C) 2019 by FIZ Karlsruhe - Leibniz Institute for Information Infrastructure.  All rights reserved.
data_170991-ICSD
_database_code_ICSD 170991
_audit_creation_date 2006-04-01
_chemical_name_systematic
'Poly(penta-mue-aqua-tetraaqua-mue-decavanadato-lithium disodium)'
_chemical_formula_structural '(Li Na2 (H2 O)9)2 V10 O28'
_chemical_formula_sum 'H36 Li2 Na4 O46 V10'
_exptl_crystal_density_diffrn 2.33
_cell_measurement_temperature 273.
_publ_section_title

;
Polymeric bis(lithium disodium nonahydrate) decavanadate, {[Li Na2 (H2 O)9]2
[V10 O28]}n
;
loop_
_citation_id
_citation_journal_full
_citation_year
_citation_journal_volume
_citation_page_first
_citation_page_last
_citation_journal_id_ASTM
primary 'Acta Crystallographica, Section E: Structure Reports Online' 2005 61
i185 i187 ACSEBH
loop_
_publ_author_name
'Ma, C.-A.'
'Xie, A.-L.'
'Wang, L.-B.'
_cell_length_a 8.5386(6)
_cell_length_b 10.6333(7)
_cell_length_c 11.8912(6)
_cell_angle_alpha 105.636(3)
_cell_angle_beta 101.852(3)
_cell_angle_gamma 99.257(3)
_cell_volume 990.39
_cell_formula_units_Z 1
_symmetry_space_group_name_H-M 'P -1'
_symmetry_Int_Tables_number 2
_refine_ls_R_factor_all 0.027
loop_
_symmetry_equiv_pos_site_id
_symmetry_equiv_pos_as_xyz
1 '-x, -y, -z'
2 'x, y, z'
loop_
_atom_type_symbol
_atom_type_oxidation_number
V5+ 5
Na1+ 1
O2- -2
Li1+ 1
H1+ 1
loop_
_atom_site_label
_atom_site_type_symbol
_atom_site_symmetry_multiplicity
_atom_site_Wyckoff_symbol
_atom_site_fract_x
_atom_site_fract_y
_atom_site_fract_z
_atom_site_B_iso_or_equiv
_atom_site_occupancy
_atom_site_attached_hydrogens
V1 V5+ 2 i 0.78731(4) 0.66163(3) 0.27151(3) 0.01683(9) 1. 0
V2 V5+ 2 i 0.59589(4) 0.76990(3) 0.07942(3) 0.01567(9) 1. 0
V3 V5+ 2 i 0.30870(4) 0.51024(3) -0.00358(3) 0.01229(9) 1. 0
V4 V5+ 2 i 0.50849(4) 0.40158(3) 0.18695(3) 0.01479(9) 1. 0
V5 V5+ 2 i 0.42980(4) 0.68105(3) 0.26387(3) 0.01749(9) 1. 0
Na1 Na1+ 2 i 0.22480(10) 0.85169(9) 0.51660(8) 0.0262(2) 1. 0
Na2 Na1+ 2 i -0.00620(10) 0.74750(10) 0.68900(10) 0.0418(3) 1. 0
O1 O2- 2 i 0.9595(2) 0.7141(2) 0.37110(10) 0.0272(4) 1. 0
O2 O2- 2 i 0.7894(2) 0.79200(10) 0.19620(10) 0.0182(3) 1. 0
O3 O2- 2 i 0.6315(2) 0.90240(10) 0.04020(10) 0.0252(4) 1. 0
O4 O2- 2 i 0.3971(2) 0.66510(10) -0.04930(10) 0.0138(3) 1. 0
O5 O2- 2 i 0.1470(2) 0.44540(10) -0.12850(10) 0.0165(3) 1. 0
O6 O2- 2 i 0.3151(2) 0.35440(10) 0.04010(10) 0.0138(3) 1. 0
O7 O2- 2 i 0.4710(2) 0.26600(10) 0.22330(10) 0.0225(4) 1. 0
O8 O2- 2 i 0.7085(2) 0.48850(10) 0.28310(10) 0.0179(3) 1. 0
O9 O2- 2 i 0.54460(10) 0.57390(10) 0.11620(10) 0.0132(3) 1. 0
O10 O2- 2 i 0.6422(2) 0.72550(10) 0.35510(10) 0.0193(3) 1. 0
O11 O2- 2 i 0.4782(2) 0.81220(10) 0.18770(10) 0.0198(3) 1. 0
O12 O2- 2 i 0.2404(2) 0.59910(10) 0.10890(10) 0.0176(3) 1. 0
O13 O2- 2 i 0.3961(2) 0.50800(10) 0.27390(10) 0.0173(3) 1. 0
O14 O2- 2 i 0.3319(2) 0.7523(2) 0.35460(10) 0.0284(4) 1. 0
O15 O2- 2 i 0.2600(2) 1.0422(2) 0.45210(10) 0.0290(4) 1. 0
O16 O2- 2 i 0.4808(2) 0.93120(10) 0.66520(10) 0.0291(4) 1. 0
O17 O2- 2 i 0.0608(2) 0.9448(2) 0.6432(2) 0.0303(4) 1. 0
O18 O2- 2 i 0.1555(2) 0.6484(2) 0.5706(2) 0.0383(5) 1. 0
O19 O2- 2 i -0.2580(3) 0.6177(2) 0.5676(2) 0.0551(7) 1. 0
O20 O2- 2 i 0.2060(2) 0.83050(10) 0.8840(2) 0.0298(4) 1. 0
O21 O2- 2 i -0.0552(2) 0.6102(2) 0.8107(2) 0.0285(4) 1. 0
O22 O2- 2 i -0.1331(2) 0.8813(2) 0.8537(2) 0.0358(5) 1. 0
O23 O2- 2 i 0.0669(2) 0.8304(2) 1.1090(2) 0.0321(4) 1. 0
Li1 Li1+ 2 i 0.0023(5) 0.7854(4) 0.9355(4) 0.0340(10) 1. 0
H1 H1+ 2 i 0.304 1.1184 0.516 0.032 1. 0
H2 H1+ 2 i 0.336 1.0424 0.415 0.033 1. 0
H3 H1+ 2 i 0.4931 0.9971 0.7087 0.034 1. 0
H4 H1+ 2 i 0.4981 0.8701 0.6957 0.034 1. 0
H5 H1+ 2 i 0.1117 1.0212 0.7 0.034 1. 0
H6 H1+ 2 i -0.0223 0.9621 0.618 0.034 1. 0
H7 H1+ 2 i 0.1 0.5845 0.5005 0.047 1. 0
H8 H1+ 2 i 0.2114 0.6055 0.6145 0.047 1. 0
H9 H1+ 2 i -0.3278 0.5786 0.5993 0.069 1. 0
H10 H1+ 2 i -0.324 0.6463 0.5216 0.069 1. 0
H11 H1+ 2 i 0.2581 0.902 0.8985 0.038 1. 0
H12 H1+ 2 i 0.2702 0.777 0.8995 0.038 1. 0
H13 H1+ 2 i -0.1388 0.5683 0.7907 0.039 1. 0
H14 H1+ 2 i -0.0028 0.5453 0.8247 0.038 1. 0
H15 H1+ 2 i -0.1177 0.9643 0.852 0.043 1. 0
H16 H1+ 2 i -0.2298 0.8553 0.837 0.043 1. 0
H17 H1+ 2 i -0.015 0.8087 1.1475 0.041 1. 0
H18 H1+ 2 i 0.123 0.7788 1.1285 0.041 1. 0
loop_
_atom_site_aniso_label
_atom_site_aniso_type_symbol
_atom_site_aniso_U_11
_atom_site_aniso_U_22
_atom_site_aniso_U_33
_atom_site_aniso_U_12
_atom_site_aniso_U_13
_atom_site_aniso_U_23
V1 V5+ 0.0150(2) 0.0188(2) 0.0125(2) 0.00080(10) 0.00020(10) 0.00230(10)
V2 V5+ 0.0192(2) 0.0104(2) 0.0153(2) 0.00170(10) 0.00300(10) 0.00290(10)
V3 V5+ 0.0115(2) 0.0129(2) 0.0124(2) 0.00320(10) 0.00270(10) 0.00390(10)
V4 V5+ 0.0173(2) 0.0149(2) 0.0129(2) 0.00310(10) 0.00330(10) 0.00620(10)
V5 V5+ 0.0186(2) 0.0177(2) 0.0143(2) 0.00460(10) 0.00590(10) 0.00050(10)
Na1 Na1+ 0.0260(4) 0.0274(5) 0.0239(4) 0.0056(4) 0.0081(4) 0.0052(4)
Na2 Na1+ 0.0483(6) 0.0382(6) 0.0418(6) 0.0040(5) 0.0171(5) 0.0168(5)
O1 O2- 0.0196(7) 0.0321(9) 0.0231(8) -0.0001(6) -0.0027(6) 0.0073(7)
O2 O2- 0.0177(7) 0.0149(6) 0.0176(7) -0.0006(5) 0.0029(5) 0.0021(5)
O3 O2- 0.0307(8) 0.0148(7) 0.0289(8) 0.0017(6) 0.0061(7) 0.0080(6)
O4 O2- 0.0141(6) 0.0128(6) 0.0151(6) 0.0046(5) 0.0031(5) 0.0050(5)
O5 O2- 0.0123(6) 0.0192(7) 0.0173(7) 0.0034(5) 0.0021(5) 0.0059(5)
O6 O2- 0.0143(6) 0.0130(6) 0.0140(6) 0.0029(5) 0.0036(5) 0.0045(5)
O7 O2- 0.0251(7) 0.0216(7) 0.0246(8) 0.0049(6) 0.0058(6) 0.0141(6)
O8 O2- 0.0170(7) 0.0213(7) 0.0160(7) 0.0047(5) 0.0020(5) 0.0082(6)
O9 O2- 0.0138(7) 0.0116(6) 0.0134(6) 0.0025(5) 0.0029(5) 0.0033(5)
O10 O2- 0.0210(7) 0.0188(7) 0.0136(6) 0.0021(5) 0.0028(5) 0.0004(5)
O11 O2- 0.0238(7) 0.0141(6) 0.0202(7) 0.0058(5) 0.0064(6) 0.0021(5)
O12 O2- 0.0162(6) 0.0189(7) 0.0186(7) 0.0065(5) 0.0060(5) 0.0048(6)
O13 O2- 0.0175(6) 0.0201(7) 0.0155(7) 0.0042(5) 0.0059(5) 0.0063(5)
O14 O2- 0.0297(8) 0.0304(8) 0.0255(8) 0.0123(7) 0.0134(7) 0.0018(7)
O15 O2- 0.0293(8) 0.0248(8) 0.0268(8) 0.0049(6) 0.0063(7) -0.0002(7)
O16 O2- 0.0426(9) 0.0173(7) 0.0254(8) 0.0085(7) 0.0060(7) 0.0049(6)
O17 O2- 0.0276(8) 0.0259(8) 0.0319(9) 0.0088(7) 0.0037(7) 0.0020(7)
O18 O2- 0.0440(10) 0.0370(10) 0.0348(9) 0.0161(8) -0.0010(8) 0.0169(8)
O19 O2- 0.0500(10) 0.086(2) 0.0350(10) 0.0070(10) 0.0150(9) 0.0310(10)
O20 O2- 0.0211(7) 0.0196(7) 0.0490(10) 0.0053(6) 0.0043(7) 0.0136(7)
O21 O2- 0.0189(7) 0.0251(8) 0.0460(10) 0.0050(6) 0.0105(7) 0.0176(7)
O22 O2- 0.0222(8) 0.0317(9) 0.0580(10) 0.0065(7) 0.0102(8) 0.0224(8)
O23 O2- 0.0319(8) 0.0350(9) 0.0369(9) 0.0112(7) 0.0128(7) 0.0187(7)
Li1 Li1+ 0.041(2) 0.032(2) 0.029(2) 0.011(2) 0.007(2) 0.007(2)
#End of TTdata_170991-ICSD