
#(C) 2019 by FIZ Karlsruhe - Leibniz Institute for Information Infrastructure.  All rights reserved.
data_171103-ICSD
_database_code_ICSD 171103
_audit_creation_date 2006-10-01
_chemical_name_systematic 'Sodium manganese iron phosphate (1.90/1.91/1/3)'
_chemical_formula_structural 'Na1.896 Mn1.911 Fe (P O4)3'
_chemical_formula_sum 'Fe1 Mn1.911 Na1.896 O12 P3'
_chemical_name_structure_type Alluaudite
_chemical_name_mineral Alluaudite
_exptl_crystal_density_diffrn 3.61
_publ_section_title

;
A structural, magnetic, and Moessbauer spectral study of several
Na-Mn-Fe-bearing alluaudites
;
loop_
_citation_id
_citation_journal_full
_citation_year
_citation_journal_volume
_citation_page_first
_citation_page_last
_citation_journal_id_ASTM
primary 'Physics and Chemistry of Minerals' 2004 31 487 506 PCMIDU
loop_
_publ_author_name
'Hatert, F.'
'Long, G.-J.'
'Hautot, D.'
'Fransolet, A.M.'
'Delwiche, J.'
'Hubin-Franskin, M.J.'
'Grandjean, F.'
_cell_length_a 12.048(3)
_cell_length_b 12.623(2)
_cell_length_c 6.511(1)
_cell_angle_alpha 90
_cell_angle_beta 114.58(2)
_cell_angle_gamma 90
_cell_volume 900.47
_cell_formula_units_Z 4
_symmetry_space_group_name_H-M 'C 1 2/c 1'
_symmetry_Int_Tables_number 15
_refine_ls_R_factor_all 0.0258
loop_
_symmetry_equiv_pos_site_id
_symmetry_equiv_pos_as_xyz
1 'x, -y, z+1/2'
2 '-x, -y, -z'
3 '-x, y, -z+1/2'
4 'x, y, z'
5 'x+1/2, -y+1/2, z+1/2'
6 '-x+1/2, -y+1/2, -z'
7 '-x+1/2, y+1/2, -z+1/2'
8 'x+1/2, y+1/2, z'
loop_
_atom_type_symbol
_atom_type_oxidation_number
Na1+ 1
Mn2+ 2.15
Na1+ 1
Mn2+ 2.15
Fe3+ 3
P5+ 5
O2- -2
loop_
_atom_site_label
_atom_site_type_symbol
_atom_site_symmetry_multiplicity
_atom_site_Wyckoff_symbol
_atom_site_fract_x
_atom_site_fract_y
_atom_site_fract_z
_atom_site_B_iso_or_equiv
_atom_site_occupancy
_atom_site_attached_hydrogens
Na1 Na1+ 4 e 0 -0.0145(8) 0.25 0.01267 0.822 0
Na2 Na1+ 4 b .5 0 0 0.01267 0.97 0
Mn1 Mn2+ 4 b .5 0 0 0.01267 0.015 0
Mn2 Mn2+ 4 e 0 0.2742(4) 0.25 0.00633 0.896 0
Na3 Na1+ 4 e 0 0.2742(4) 0.25 0.00633 0.104 0
Mn3 Mn2+ 8 f 0.2825 0.6580(2) 0.3590(6) 0.00633 0.5 0
Fe1 Fe3+ 8 f 0.2825 0.6580(2) 0.3590(6) 0.00633 0.5 0
P1 P5+ 4 e 0 -0.2885(5) 0.25 0.00633 1. 0
P2 P5+ 8 f 0.2325 -0.1110(4) 0.130(1) 0.00633 1. 0
O1 O2- 8 f 0.4659 0.7244(6) 0.557(2) 0.01267 1. 0
O2 O2- 8 f 0.0939 0.6360(6) 0.215(1) 0.01267 1. 0
O3 O2- 8 f 0.3256 0.6614(6) 0.108(1) 0.01267 1. 0
O4 O2- 8 f 0.1366 0.4080(6) 0.329(1) 0.01267 1. 0
O5 O2- 8 f 0.2289 0.8335(6) 0.342(2) 0.01267 1. 0
O6 O2- 8 f 0.3238 0.4983(8) 0.391(1) 0.01267 1. 0
#End of TTdata_171103-ICSD