
#(C) 2019 by FIZ Karlsruhe - Leibniz Institute for Information Infrastructure.  All rights reserved.
data_171374-ICSD
_database_code_ICSD 171374
_audit_creation_date 2006-10-01
_audit_update_record 2013-08-01
_chemical_name_systematic 'Disodium peroxodisulfate'
_chemical_formula_structural 'Na2 S2 O8'
_chemical_formula_sum 'Na2 O8 S2'
_exptl_crystal_density_diffrn 2.6
_cell_measurement_temperature 150.
_publ_section_title 'Sodium peroxodisulfate'
loop_
_citation_id
_citation_journal_full
_citation_year
_citation_journal_volume
_citation_page_first
_citation_page_last
_citation_journal_id_ASTM
primary 'Acta Crystallographica, Section E: Structure Reports Online' 2006 62
i44 i46 ACSEBH
loop_
_publ_author_name
'Allan, D.R.'
_cell_length_a 4.780(2)
_cell_length_b 5.575(2)
_cell_length_c 6.091(3)
_cell_angle_alpha 101.871(7)
_cell_angle_beta 103.337(7)
_cell_angle_gamma 97.418(7)
_cell_volume 151.88
_cell_formula_units_Z 1
_symmetry_space_group_name_H-M 'P -1'
_symmetry_Int_Tables_number 2
_refine_ls_R_factor_all 0.045
loop_
_symmetry_equiv_pos_site_id
_symmetry_equiv_pos_as_xyz
1 '-x, -y, -z'
2 'x, y, z'
loop_
_atom_type_symbol
_atom_type_oxidation_number
Na1+ 1
S6+ 6
O1- -1
O2- -2
loop_
_atom_site_label
_atom_site_type_symbol
_atom_site_symmetry_multiplicity
_atom_site_Wyckoff_symbol
_atom_site_fract_x
_atom_site_fract_y
_atom_site_fract_z
_atom_site_B_iso_or_equiv
_atom_site_occupancy
_atom_site_attached_hydrogens
Na1 Na1+ 2 i 0.0359(2) 0.31397(19) 0.20685(18) 0.0131 1. 0
S1 S6+ 2 i 0.61154(13) 0.78124(11) 0.24744(11) 0.008 1. 0
O1 O1- 2 i 0.5785(4) 1.0388(3) 0.4180(3) 0.0143 1. 0
O2 O2- 2 i 0.7722(4) 0.8959(3) 0.1113(3) 0.0113 1. 0
O3 O2- 2 i 0.3176(4) 0.6526(3) 0.1263(3) 0.0111 1. 0
O4 O2- 2 i 0.7701(4) 0.6451(3) 0.3949(3) 0.013 1. 0
loop_
_atom_site_aniso_label
_atom_site_aniso_type_symbol
_atom_site_aniso_U_11
_atom_site_aniso_U_22
_atom_site_aniso_U_33
_atom_site_aniso_U_12
_atom_site_aniso_U_13
_atom_site_aniso_U_23
Na1 Na1+ 0.0141(5) 0.0136(5) 0.0102(5) 0.0005(4) 0.0012(4) 0.0032(4)
S1 S6+ 0.0088(3) 0.0082(3) 0.0068(3) 0.00165(19) 0.0025(2) 0.00122(19)
O1 O1- 0.0223(10) 0.0094(8) 0.0132(9) -0.0009(7) 0.0125(8) 0.0006(7)
O2 O2- 0.0135(9) 0.0106(8) 0.0112(8) 0.0013(7) 0.0063(7) 0.0031(6)
O3 O2- 0.0099(9) 0.0106(8) 0.0114(8) 0.0004(7) 0.0016(7) 0.0017(7)
O4 O2- 0.0119(9) 0.0165(9) 0.0116(9) 0.0046(7) 0.0013(7) 0.0065(7)
#End of TTdata_171374-ICSD