
#(C) 2019 by FIZ Karlsruhe - Leibniz Institute for Information Infrastructure.  All rights reserved.
data_171406-ICSD
_database_code_ICSD 171406
_audit_creation_date 2006-10-01
_chemical_name_systematic
'Calcium sodium vanadium(III) phosphate (8.41/1.16/1/7)'
_chemical_formula_structural 'Ca8.42 Na1.16 V (P O4)7'
_chemical_formula_sum 'Ca8.42 Na1.16 O28 P7 V1'
_chemical_name_structure_type Whitlockite-Ca9FeH(PO4)7
_exptl_crystal_density_diffrn 3.14
_cell_measurement_temperature 173.
_publ_section_title 'A new whitlockite Ca8.42 Na1.16 V (P O4)7'
loop_
_citation_id
_citation_journal_full
_citation_year
_citation_journal_volume
_citation_page_first
_citation_page_last
_citation_journal_id_ASTM
primary 'Acta Crystallographica, Section C: Crystal Structure Communications'
2006 62 i13 i15 ACSCEE
loop_
_publ_author_name
'Tsirlin, A.A.'
'Dikarev, E.V.'
'Shpanchenko, R.V.'
'Antipov, E.V.'
_cell_length_a 10.3273(3)
_cell_length_b 10.3273(3)
_cell_length_c 37.098(2)
_cell_angle_alpha 90.
_cell_angle_beta 90.
_cell_angle_gamma 120.
_cell_volume 3426.53
_cell_formula_units_Z 6
_symmetry_space_group_name_H-M 'R 3 c H'
_symmetry_Int_Tables_number 161
_refine_ls_R_factor_all 0.016
loop_
_symmetry_equiv_pos_site_id
_symmetry_equiv_pos_as_xyz
1 '-x+y, y, z+1/2'
2 'x, x-y, z+1/2'
3 '-y, -x, z+1/2'
4 '-x+y, -x, z'
5 '-y, x-y, z'
6 'x, y, z'
7 '-x+y+2/3, y+1/3, z+5/6'
8 'x+2/3, x-y+1/3, z+5/6'
9 '-y+2/3, -x+1/3, z+5/6'
10 '-x+y+2/3, -x+1/3, z+1/3'
11 '-y+2/3, x-y+1/3, z+1/3'
12 'x+2/3, y+1/3, z+1/3'
13 '-x+y+1/3, y+2/3, z+1/6'
14 'x+1/3, x-y+2/3, z+1/6'
15 '-y+1/3, -x+2/3, z+1/6'
16 '-x+y+1/3, -x+2/3, z+2/3'
17 '-y+1/3, x-y+2/3, z+2/3'
18 'x+1/3, y+2/3, z+2/3'
loop_
_atom_type_symbol
_atom_type_oxidation_number
V3+ 3
Ca2+ 2
P5+ 5
Na1+ 1
O2- -2
loop_
_atom_site_label
_atom_site_type_symbol
_atom_site_symmetry_multiplicity
_atom_site_Wyckoff_symbol
_atom_site_fract_x
_atom_site_fract_y
_atom_site_fract_z
_atom_site_B_iso_or_equiv
_atom_site_occupancy
_atom_site_attached_hydrogens
V1 V3+ 6 a 0.3333 0.6667 0.435576(17) 0.00602(11) 1 0
Ca1 Ca2+ 18 b 0.47745(4) 0.94303(4) 0.366928(11) 0.00863(10) 1 0
Ca2 Ca2+ 18 b 0.20426(4) 0.82509(4) 0.499885(10) 0.00806(10) 1 0
Ca3 Ca2+ 18 b 0.79266(4) 0.60531(5) 0.426576(13) 0.00783(14) 0.806(2) 0
P1 P5+ 6 a 0.6667 0.3333 0.36911(2) 0.00679(17) 1 0
P2 P5+ 18 b 0.48571(6) 0.47541(5) 0.465697(12) 0.00599(11) 1 0
P3 P5+ 18 b 0.17400(6) 0.86029(6) 0.403712(12) 0.00643(11) 1 0
Na1 Na1+ 6 a 0. 0. 0.45676(8) 0.0116(8) 0.582(6) 0
Na2 Na1+ 18 b 0.79266(4) 0.60531(5) 0.426576(13) 0.00783(14) 0.194 0
O1 O2- 6 a 0.6667 0.3333 0.41030(7) 0.0115(5) 1 0
O2 O2- 18 b 0.42872(14) 0.83736(18) 0.47201(4) 0.0096(3) 1 0
O3 O2- 18 b 0.51579(14) 0.47258(14) 0.42569(4) 0.0087(3) 1 0
O4 O2- 18 b 0.27556(15) 0.99779(14) 0.38046(3) 0.0085(3) 1 0
O5 O2- 18 b 0.24821(14) 0.75839(14) 0.40139(4) 0.0103(3) 1 0
O6 O2- 18 b 0.01562(15) 0.76711(16) 0.38913(3) 0.0120(3) 1 0
O7 O2- 18 b 0.63333(16) 0.55003(16) 0.48613(4) 0.0120(3) 1 0
O8 O2- 18 b 0.52275(14) 0.32709(17) 0.35553(4) 0.0140(3) 1 0
O9 O2- 18 b 0.17915(16) 0.91481(17) 0.44209(4) 0.0138(3) 1 0
O10 O2- 18 b 0.37735(14) 0.31579(15) 0.47842(4) 0.0106(3) 1 0
loop_
_atom_site_aniso_label
_atom_site_aniso_type_symbol
_atom_site_aniso_U_11
_atom_site_aniso_U_22
_atom_site_aniso_U_33
_atom_site_aniso_U_12
_atom_site_aniso_U_13
_atom_site_aniso_U_23
V1 V3+ 0.00558(15) 0.00558(15) 0.0069(2) 0.00279(8) 0. 0.
Ca1 Ca2+ 0.00882(18) 0.00833(19) 0.0090(2) 0.00449(14) 0.00078(13) 0.00014(14)
Ca2 Ca2+ 0.00893(17) 0.00759(18) 0.00776(18) 0.00422(15) 0.00085(15)
-0.00043(15)
Ca3 Ca2+ 0.0059(2) 0.0109(2) 0.0074(2) 0.00476(16) -0.00024(14) 0.00287(14)
P1 P5+ 0.0055(2) 0.0055(2) 0.0094(4) 0.00274(12) 0. 0.
P2 P5+ 0.0062(2) 0.0061(2) 0.0064(2) 0.00367(16) 0.0001(2) 0.00009(19)
P3 P5+ 0.0060(2) 0.0063(2) 0.0072(2) 0.00322(17) 0.00003(19) 0.00021(18)
Na1 Na1+ 0.0122(10) 0.0122(10) 0.0105(15) 0.0061(5) 0. 0.
Na2 Na1+ 0.0059(2) 0.0109(2) 0.0074(2) 0.00476(16) -0.00024(14) 0.00287(14)
O1 O2- 0.0124(8) 0.0124(8) 0.0096(12) 0.0062(4) 0. 0.
O2 O2- 0.0070(6) 0.0070(6) 0.0137(7) 0.0028(5) 0.0006(4) 0.0019(5)
O3 O2- 0.0091(6) 0.0094(6) 0.0072(7) 0.0043(5) 0.0002(4) -0.0001(5)
O4 O2- 0.0103(6) 0.0089(6) 0.0071(5) 0.0054(5) 0.0008(4) 0.0017(4)
O5 O2- 0.0086(6) 0.0071(6) 0.0162(7) 0.0048(5) 0.0001(4) -0.0004(4)
O6 O2- 0.0066(6) 0.0143(7) 0.0128(6) 0.0033(5) -0.0022(5) 0.0013(5)
O7 O2- 0.0091(7) 0.0147(7) 0.0106(6) 0.0048(5) -0.0031(5) -0.0008(5)
O8 O2- 0.0091(6) 0.0129(6) 0.0214(6) 0.0066(6) -0.0046(5) -0.0049(5)
O9 O2- 0.0145(7) 0.0162(7) 0.0084(6) 0.0059(6) 0.0004(5) -0.0006(5)
O10 O2- 0.0126(6) 0.0080(6) 0.0105(6) 0.0045(5) 0.0018(5) 0.0001(4)
#End of TTdata_171406-ICSD