
#(C) 2019 by FIZ Karlsruhe - Leibniz Institute for Information Infrastructure.  All rights reserved.
data_171630-ICSD
_database_code_ICSD 171630
_audit_creation_date 2006-10-01
_audit_update_record 2012-02-01
_chemical_name_systematic 'Disodium tricopper tetragermanate'
_chemical_formula_structural 'Na2 Cu3 (Ge O3)4'
_chemical_formula_sum 'Cu3 Ge4 Na2 O12'
_chemical_name_structure_type Na2Cu3(GeO3)4
_exptl_crystal_density_diffrn 4.69
_cell_measurement_temperature 298.
_publ_section_title

;
New cuprates featuring ladderlike periodic arrays of [Cu3 O8](10-) trimeric
magnetic nanostructure
;
loop_
_citation_id
_citation_journal_full
_citation_year
_citation_journal_volume
_citation_page_first
_citation_page_last
_citation_journal_id_ASTM
primary 'Inorganic Chemistry' 2006 45 3478 3480 INOCAJ
loop_
_publ_author_name
'Mo, X.'
'Etheredge, K.M.S.'
'Hwu, S.-J.'
'Huang, Q.'
_cell_length_a 6.1876(12)
_cell_length_b 7.6979(15)
_cell_length_c 5.4801(11)
_cell_angle_alpha 102.36(3)
_cell_angle_beta 93.28(3)
_cell_angle_gamma 87.53(3)
_cell_volume 254.43
_cell_formula_units_Z 1
_symmetry_space_group_name_H-M 'P -1'
_symmetry_Int_Tables_number 2
_refine_ls_R_factor_all 0.0398
loop_
_symmetry_equiv_pos_site_id
_symmetry_equiv_pos_as_xyz
1 '-x, -y, -z'
2 'x, y, z'
loop_
_atom_type_symbol
_atom_type_oxidation_number
Ge4+ 4
Cu2+ 2
Na1+ 1
O2- -2
loop_
_atom_site_label
_atom_site_type_symbol
_atom_site_symmetry_multiplicity
_atom_site_Wyckoff_symbol
_atom_site_fract_x
_atom_site_fract_y
_atom_site_fract_z
_atom_site_B_iso_or_equiv
_atom_site_occupancy
_atom_site_attached_hydrogens
Ge1 Ge4+ 2 i 0.22143(12) 0.37133(9) 0.30717(13) 0.0075(3) 1 0
Ge2 Ge4+ 2 i 0.39842(12) 0.18142(9) 0.75783(14) 0.0077(3) 1 0
Cu1 Cu2+ 1 a 0. 0. 0. 0.0106(4) 1 0
Cu2 Cu2+ 2 i 0.15727(15) 0.82246(11) 0.49104(16) 0.0088(3) 1 0
Na1 Na1+ 2 i 0.2453(5) 0.5904(4) 0.9082(6) 0.0158(7) 1 0
O1 O2- 2 i 0.0087(8) 0.2241(7) 0.2340(10) 0.0104(11) 1 0
O2 O2- 2 i 0.4070(8) 0.3188(7) 0.0656(9) 0.0127(11) 1 0
O3 O2- 2 i 0.3670(9) 0.3513(7) 0.5837(10) 0.0129(11) 1 0
O4 O2- 2 i 0.1684(8) 0.0544(7) 0.7320(9) 0.0099(11) 1 0
O5 O2- 2 i 0.6568(8) 0.0919(7) 0.7251(10) 0.0130(11) 1 0
O6 O2- 2 i 0.1202(9) 0.5820(7) 0.3004(10) 0.0131(12) 1 0
loop_
_atom_site_aniso_label
_atom_site_aniso_type_symbol
_atom_site_aniso_U_11
_atom_site_aniso_U_22
_atom_site_aniso_U_33
_atom_site_aniso_U_12
_atom_site_aniso_U_13
_atom_site_aniso_U_23
Ge1 Ge4+ 0.0100(5) 0.0055(5) 0.0062(5) 0.0027(3) 0.0005(3) 0.0003(3)
Ge2 Ge4+ 0.0090(5) 0.0067(5) 0.0070(5) 0.0025(3) 0.0014(3) 0.0006(3)
Cu1 Cu2+ 0.0163(8) 0.0060(7) 0.0085(7) -0.0002(5) 0.0046(5) -0.0017(5)
Cu2 Cu2+ 0.0122(5) 0.0062(5) 0.0075(5) 0.0023(3) 0.0027(4) 0.0000(4)
Na1 Na1+ 0.0147(15) 0.0191(16) 0.0144(16) 0.0046(12) -0.0004(12) 0.0064(13)
O1 O2- 0.009(3) 0.009(2) 0.013(3) -0.0008(19) 0.007(2) -0.002(2)
O2 O2- 0.012(3) 0.012(3) 0.011(3) 0.004(2) 0.004(2) -0.005(2)
O3 O2- 0.016(3) 0.010(2) 0.013(3) 0.002(2) -0.003(2) 0.005(2)
O4 O2- 0.013(3) 0.009(2) 0.007(2) -0.003(2) 0.002(2) 0.001(2)
O5 O2- 0.011(3) 0.012(3) 0.018(3) 0.004(2) 0.005(2) 0.007(2)
O6 O2- 0.020(3) 0.008(2) 0.011(3) 0.006(2) 0.000(2) 0.002(2)
#End of TTdata_171630-ICSD