
#(C) 2019 by FIZ Karlsruhe - Leibniz Institute for Information Infrastructure.  All rights reserved.
data_171916-ICSD
_database_code_ICSD 171916
_audit_creation_date 2007-04-01
_chemical_name_systematic 'Sodium manganese iron phosphate (1.86/2.02/1/3)'
_chemical_formula_structural 'Na1.862 Mn2.02 Fe (P O4)3'
_chemical_formula_sum 'Fe1 Mn2.02 Na1.862 O12 P3'
_chemical_name_structure_type Alluaudite
_chemical_name_mineral Alluaudite
_exptl_crystal_density_diffrn 3.65
_publ_section_title

;
Crystal chemistry of the hydrothermally synthesized Na2 (Mn(1-x) Fe(2+)(x))2
Fe(3+) (P O4)3 alluaudite-type solid solution
;
loop_
_citation_id
_citation_journal_full
_citation_year
_citation_journal_volume
_citation_page_first
_citation_page_last
_citation_journal_id_ASTM
primary 'American Mineralogist' 2005 90 653 662 AMMIAY
loop_
_publ_author_name
'Hatert, F.'
'Rebbough, L.'
'Hermann, R.P.'
'Fransolet, A.M.'
'Long, G.-J.'
'Grandjean, F.'
_cell_length_a 12.024(4)
_cell_length_b 12.629(6)
_cell_length_c 6.515(3)
_cell_angle_alpha 90
_cell_angle_beta 114.58(4)
_cell_angle_gamma 90
_cell_volume 899.66
_cell_formula_units_Z 4
_symmetry_space_group_name_H-M 'C 1 2/c 1'
_symmetry_Int_Tables_number 15
_refine_ls_R_factor_all 0.0252
loop_
_symmetry_equiv_pos_site_id
_symmetry_equiv_pos_as_xyz
1 'x, -y, z+1/2'
2 '-x, -y, -z'
3 '-x, y, -z+1/2'
4 'x, y, z'
5 'x+1/2, -y+1/2, z+1/2'
6 '-x+1/2, -y+1/2, -z'
7 '-x+1/2, y+1/2, -z+1/2'
8 'x+1/2, y+1/2, z'
loop_
_atom_type_symbol
_atom_type_oxidation_number
Na1+ 1
Mn2+ 2
Na1+ 1
Mn2+ 2
Fe3+ 3.1
P5+ 5
O2- -2
loop_
_atom_site_label
_atom_site_type_symbol
_atom_site_symmetry_multiplicity
_atom_site_Wyckoff_symbol
_atom_site_fract_x
_atom_site_fract_y
_atom_site_fract_z
_atom_site_B_iso_or_equiv
_atom_site_occupancy
_atom_site_attached_hydrogens
Na1 Na1+ 4 e 0. -0.021(1) 0.25 0.0304 0.922(9) 0
Na2 Na1+ 4 b 0.5 0. 0. 0.0152 0.82(1) 0
Mn1 Mn2+ 4 b 0.5 0. 0. 0.0152 0.18(1) 0
Mn2 Mn2+ 4 e 0. 0.2693(7) 0.25 0.0304 0.88(2) 0
Na3 Na1+ 4 e 0. 0.2693(7) 0.25 0.0304 0.12(2) 0
Mn3 Mn2+ 8 f 0.2779(5) 0.6559(4) 0.359(1) 0.0063 0.48(2) 0
Fe1 Fe3+ 8 f 0.2779(5) 0.6559(4) 0.359(1) 0.0063 0.5 0
P1 P5+ 4 e 0. -0.287(1) 0.25 0.0266 1. 0
P2 P5+ 8 f 0.2344(8) -0.1056(7) 0.134(2) 0.0266 1. 0
O1 O2- 8 f 0.463(1) 0.710(1) 0.553(3) 0.0114 1. 0
O2 O2- 8 f 0.089(1) 0.6318(8) 0.247(2) 0.0114 1. 0
O3 O2- 8 f 0.334(1) 0.671(1) 0.114(2) 0.0114 1. 0
O4 O2- 8 f 0.137(1) 0.398(1) 0.340(2) 0.0114 1. 0
O5 O2- 8 f 0.232 0.823(1) 0.319(3) 0.0114 1. 0
O6 O2- 8 f 0.327(1) 0.503(1) 0.393(2) 0.0114 1. 0
#End of TTdata_171916-ICSD