
#(C) 2019 by FIZ Karlsruhe - Leibniz Institute for Information Infrastructure.  All rights reserved.
data_171920-ICSD
_database_code_ICSD 171920
_audit_creation_date 2007-04-01
_chemical_name_systematic 'Sodium iron phosphate (1.70/3/3)'
_chemical_formula_structural 'Na1.702 Fe3 (P O4)3'
_chemical_formula_sum 'Fe3 Na1.702 O12 P3'
_chemical_name_structure_type Alluaudite
_chemical_name_mineral Alluaudite
_exptl_crystal_density_diffrn 3.72
_publ_section_title

;
Crystal chemistry of the hydrothermally synthesized Na2 (Mn(1-x) Fe(2+)(x))2
Fe(3+) (P O4)3 alluaudite-type solid solution
;
loop_
_citation_id
_citation_journal_full
_citation_year
_citation_journal_volume
_citation_page_first
_citation_page_last
_citation_journal_id_ASTM
primary 'American Mineralogist' 2005 90 653 662 AMMIAY
loop_
_publ_author_name
'Hatert, F.'
'Rebbough, L.'
'Hermann, R.P.'
'Fransolet, A.M.'
'Long, G.-J.'
'Grandjean, F.'
_cell_length_a 11.849(2)
_cell_length_b 12.539(1)
_cell_length_c 6.486(1)
_cell_angle_alpha 90
_cell_angle_beta 114.51(1)
_cell_angle_gamma 90
_cell_volume 876.82
_cell_formula_units_Z 4
_symmetry_space_group_name_H-M 'C 1 2/c 1'
_symmetry_Int_Tables_number 15
_refine_ls_R_factor_all 0.0265
loop_
_symmetry_equiv_pos_site_id
_symmetry_equiv_pos_as_xyz
1 'x, -y, z+1/2'
2 '-x, -y, -z'
3 '-x, y, -z+1/2'
4 'x, y, z'
5 'x+1/2, -y+1/2, z+1/2'
6 '-x+1/2, -y+1/2, -z'
7 '-x+1/2, y+1/2, -z+1/2'
8 'x+1/2, y+1/2, z'
loop_
_atom_type_symbol
_atom_type_oxidation_number
Na1+ 1
Fe2+ 2.43
P5+ 5
O2- -2
loop_
_atom_site_label
_atom_site_type_symbol
_atom_site_symmetry_multiplicity
_atom_site_Wyckoff_symbol
_atom_site_fract_x
_atom_site_fract_y
_atom_site_fract_z
_atom_site_B_iso_or_equiv
_atom_site_occupancy
_atom_site_attached_hydrogens
Na1 Na1+ 4 e 0. -0.0117(7) 0.25 0.01267 0.754(2) 0
Na2 Na1+ 4 b 0.5 0. 0. 0.00507 0.948(5) 0
Fe1 Fe2+ 4 e 0. 0.2688(2) 0.25 0.01646 1. 0
Fe2 Fe2+ 8 f 0.2819(3) 0.6580(2) 0.3674(5) 0.01748 1. 0
P1 P5+ 4 e 0. -0.2866(4) 0.25 0.00507 1. 0
P2 P5+ 8 f 0.2330(4) -0.1097(3) 0.1230(8) 0.00507 1. 0
O1 O2- 8 f 0.4580(7) 0.7196(5) 0.541(1) 0.00633 1. 0
O2 O2- 8 f 0.0989(7) 0.6354(4) 0.239(1) 0.00633 1. 0
O3 O2- 8 f 0.3327(6) 0.6668(5) 0.109(1) 0.00633 1. 0
O4 O2- 8 f 0.1300(7) 0.3976(4) 0.329(1) 0.00633 1. 0
O5 O2- 8 f 0.2230(7) 0.8275(5) 0.321(1) 0.00633 1. 0
O6 O2- 8 f 0.3252(5) 0.5020(6) 0.389(1) 0.00633 1. 0
#End of TTdata_171920-ICSD