
#(C) 2019 by FIZ Karlsruhe - Leibniz Institute for Information Infrastructure.  All rights reserved.
data_172060-ICSD
_database_code_ICSD 172060
_audit_creation_date 2007-04-01
_chemical_name_systematic 'Trisodium dihydroxotetraoxoosmate(VII)'
_chemical_formula_structural 'Na3 Os O4 (O H)2'
_chemical_formula_sum 'H2 Na3 O6 Os1'
_exptl_crystal_density_diffrn 4.22
_publ_section_title 'Trisodium dihydroxotetraoxoosmate(VII), Na3 [Os O4 (O H)2]'
loop_
_citation_id
_citation_journal_full
_citation_year
_citation_journal_volume
_citation_page_first
_citation_page_last
_citation_journal_id_ASTM
primary 'Acta Crystallographica, Section E: Structure Reports Online' 2006 62
i52 i54 ACSEBH
loop_
_publ_author_name
'Mogare, K.M.'
'Klein, W.'
'Jansen, M.'
_cell_length_a 5.7605(5)
_cell_length_b 9.2995(7)
_cell_length_c 5.9485(5)
_cell_angle_alpha 90.
_cell_angle_beta 118.168(2)
_cell_angle_gamma 90.
_cell_volume 280.92
_cell_formula_units_Z 2
_symmetry_space_group_name_H-M 'P 1 21/m 1'
_symmetry_Int_Tables_number 11
_refine_ls_R_factor_all 0.0258
loop_
_symmetry_equiv_pos_site_id
_symmetry_equiv_pos_as_xyz
1 'x, -y+1/2, z'
2 '-x, -y, -z'
3 '-x, y+1/2, -z'
4 'x, y, z'
loop_
_atom_type_symbol
_atom_type_oxidation_number
Na1+ 1
Os7+ 7
O2- -2
H1+ 1
loop_
_atom_site_label
_atom_site_type_symbol
_atom_site_symmetry_multiplicity
_atom_site_Wyckoff_symbol
_atom_site_fract_x
_atom_site_fract_y
_atom_site_fract_z
_atom_site_B_iso_or_equiv
_atom_site_occupancy
_atom_site_attached_hydrogens
Na1 Na1+ 2 e 0.0207(6) 0.25 -0.0150(6) 0.0293(7) 1 0
Na2 Na1+ 4 f 0.4553(4) 0.0719(2) 0.7497(4) 0.0242(4) 1 0
Os1 Os7+ 2 e 0.78102(5) 0.25 0.38101(4) 0.01551(11) 1 0
O1 O2- 2 e 1.1298(10) 0.25 0.5210(10) 0.0227(10) 1 0
O2 O2- 2 e 0.4624(10) 0.25 0.1089(10) 0.0278(12) 1 0
O3 O2- 4 f 0.7415(7) 0.1095(4) 0.5701(7) 0.0242(8) 1 0
O4 O2- 4 f 0.8200(7) 0.0850(4) 0.1473(7) 0.0217(7) 1 0
H1 H1+ 4 f 0.958(13) 0.039(6) 0.241(11) 0.019(15) 1 0
loop_
_atom_site_aniso_label
_atom_site_aniso_type_symbol
_atom_site_aniso_U_11
_atom_site_aniso_U_22
_atom_site_aniso_U_33
_atom_site_aniso_U_12
_atom_site_aniso_U_13
_atom_site_aniso_U_23
Na1 Na1+ 0.0198(14) 0.044(2) 0.0265(14) 0. 0.0132(12) 0.
Na2 Na1+ 0.0204(10) 0.0277(11) 0.0229(9) -0.0027(8) 0.0088(8) -0.0002(8)
Os1 Os7+ 0.01277(14) 0.01910(18) 0.01401(14) 0. 0.00579(10) 0.
O1 O2- 0.017(2) 0.024(3) 0.023(2) 0. 0.0059(19) 0.
O2 O2- 0.018(2) 0.037(3) 0.023(2) 0. 0.006(2) 0.
O3 O2- 0.0270(19) 0.025(2) 0.0245(16) 0.0002(15) 0.0153(15) 0.0052(15)
O4 O2- 0.0179(16) 0.0245(19) 0.0184(15) -0.0004(15) 0.0050(13) -0.0036(14)
#End of TTdata_172060-ICSD