
#(C) 2019 by FIZ Karlsruhe - Leibniz Institute for Information Infrastructure.  All rights reserved.
data_172310-ICSD
_database_code_ICSD 172310
_audit_creation_date 2007-04-01
_audit_update_record 2008-08-01
_chemical_name_systematic
'Sodium magnesium dihydroxodocosaoxooctasilicate (1.62/6.19/1)'
_chemical_formula_structural 'Na1.62 Mg6.19 (Si8 O22 (O H)2)'
_chemical_formula_sum 'H2 Mg6.19 Na1.62 O24 Si8'
_chemical_name_structure_type Amphibole#-(MO,P121/m1)
_chemical_name_mineral 'Richterite (Ca-free)'
_exptl_crystal_density_diffrn 2.97
_publ_section_title

;
The P21/m - C2/m phase transition in synthetic amphibole Na Na Mg Mg5 Si8 O22
(O H)2: thermodynamic and crystal-chemical evaluation
;
loop_
_citation_id
_citation_journal_full
_citation_year
_citation_journal_volume
_citation_page_first
_citation_page_last
_citation_journal_id_ASTM
primary 'Physics and Chemistry of Minerals' 2003 30 570 581 PCMIDU
loop_
_publ_author_name
'Camara, F.'
'Oberti, R.'
'Iezzi, G.'
'della Ventura, G.'
_cell_length_a 9.685(1)
_cell_length_b 17.920(2)
_cell_length_c 5.268(1)
_cell_angle_alpha 90
_cell_angle_beta 102.44(3)
_cell_angle_gamma 90
_cell_volume 892.82
_cell_formula_units_Z 2
_symmetry_space_group_name_H-M 'P 1 21/m 1'
_symmetry_Int_Tables_number 11
_refine_ls_R_factor_all 0.059
loop_
_symmetry_equiv_pos_site_id
_symmetry_equiv_pos_as_xyz
1 'x, -y+1/2, z'
2 '-x, -y, -z'
3 '-x, y+1/2, -z'
4 'x, y, z'
loop_
_atom_type_symbol
_atom_type_oxidation_number
Na1+ 1
Mg2+ 2
Na1+ 1
Si4+ 4
O2- -2
H1+ 1
loop_
_atom_site_label
_atom_site_type_symbol
_atom_site_symmetry_multiplicity
_atom_site_Wyckoff_symbol
_atom_site_fract_x
_atom_site_fract_y
_atom_site_fract_z
_atom_site_B_iso_or_equiv
_atom_site_occupancy
_atom_site_attached_hydrogens
Na1 Na1+ 2 e 0.2658(3) 0.25 0.0456(7) 0.04851 0.81 0
Mg1 Mg2+ 4 f -0.2500(1) 0.3382(1) 0.4847(1) 0.00811 1. 0
Mg2 Mg2+ 4 f -0.2501(1) 0.4295(1) 0.9838(2) 0.00823 1. 0
Mg3 Mg2+ 2 e -0.2496(1) 0.25 0.9858(2) 0.00773 1. 0
Mg4 Mg2+ 4 f -0.2468(2) 0.5065(1) 0.4812(3) 0.01013 0.595 0
Na2 Na1+ 4 f -0.2606(3) 0.5209(1) 0.4797(5) 0.01849 0.405 0
Si1 Si4+ 4 f 0.0324(1) 0.3355(1) 0.2616(1) 0.00633 1. 0
Si2 Si4+ 4 f 0.5320(1) 0.8344(1) 0.2951(1) 0.00621 1. 0
Si3 Si4+ 4 f 0.0407(1) 0.4215(1) 0.7678(1) 0.00659 1. 0
Si4 Si4+ 4 f 0.5441(1) 0.9195(1) 0.7991(1) 0.0076 1. 0
O1 O2- 4 f -0.1368(2) 0.3365(1) 0.1970(3) 0.00747 1. 0
O2 O2- 4 f 0.3629(2) 0.8367(1) 0.2257(3) 0.00735 1. 0
O3 O2- 4 f -0.1300(2) 0.4215(1) 0.7021(3) 0.00912 1. 0
O4 O2- 4 f 0.3735(2) 0.9219(1) 0.7355(3) 0.00975 1. 0
O5 O2- 2 e -0.1398(3) 0.25 0.6937(4) 0.00861 1. 0
O6 O2- 2 e 0.3576(3) 0.75 0.7219(5) 0.00899 1. 0
O7 O2- 4 f 0.1199(2) 0.4990(1) 0.7951(4) 0.01368 1. 0
O8 O2- 4 f 0.6260(3) 0.9938(1) 0.7662(4) 0.02356 1. 0
O9 O2- 4 f 0.0965(2) 0.3676(1) 0.0237(3) 0.01203 1. 0
O10 O2- 4 f 0.6000(2) 0.8852(1) 0.0970(3) 0.0114 1. 0
O11 O2- 4 f 0.0996(2) 0.3802(1) 0.5269(3) 0.01267 1. 0
O12 O2- 4 f 0.5928(2) 0.8578(1) 0.5969(3) 0.01279 1. 0
O13 O2- 2 e 0.0922(3) 0.25 0.3006(5) 0.01089 1. 0
O14 O2- 2 e 0.5896(3) 0.75 0.2607(5) 0.01102 1. 0
H1 H1+ 2 e -0.056(7) 0.25 0.727(13) 0.04889 1. 0
H2 H1+ 2 e 0.561(6) 0.25 0.246(13) 0.02799 1. 0
loop_
_atom_site_aniso_label
_atom_site_aniso_type_symbol
_atom_site_aniso_U_11
_atom_site_aniso_U_22
_atom_site_aniso_U_33
_atom_site_aniso_U_12
_atom_site_aniso_U_13
_atom_site_aniso_U_23
Na1 Na1+ 0.02855 0.07158 0.0555 0. 0.03204 0.
Mg1 Mg2+ 0.01042 0.00813 0.00644 0. 0.00197 -0.00047
Mg2 Mg2+ 0.00952 0.00651 0.00845 0. 0.00246 0.00093
Mg3 Mg2+ 0.00952 0.00651 0.0067 0. 0.00099 0.
Mg4 Mg2+ 0.01088 0.01139 0.00965 0. 0.00665 0.00093
Si1 Si4+ 0.0077 0.00651 0.00576 -0.00086 0.00123 -0.00047
Si2 Si4+ 0.0077 0.00651 0.00496 0. 0.00148 0.00047
Si3 Si4+ 0.0077 0.00651 0.0055 -0.00086 0.00123 -0.00047
Si4 Si4+ 0.00906 0.00813 0.00617 -0.00258 0.00099 0.00093
O1 O2- 0.00861 0.00813 0.00644 -0.00086 0.00173 -0.00093
O2 O2- 0.00816 0.00813 0.00617 0. 0.00148 0.
O3 O2- 0.00816 0.01139 0.00831 -0.00086 0.00246 -0.00234
O4 O2- 0.01133 0.01139 0.0067 -0.00086 0.00197 -0.0014
O5 O2- 0.00997 0.00813 0.00778 0. 0.00173 0.
O6 O2- 0.0077 0.00976 0.00952 0. 0.00222 0.
O7 O2- 0.01903 0.00813 0.01247 -0.00515 -0.00173 -0.00093
O8 O2- 0.02991 0.0179 0.01703 -0.0146 -0.00961 0.00841
O9 O2- 0.01088 0.01627 0.00992 0.00086 0.0032 0.0056
O10 O2- 0.01042 0.01301 0.01019 -0.00172 0.00222 0.0042
O11 O2- 0.01042 0.01627 0.01099 0.00258 0. -0.00794
O12 O2- 0.01042 0.01952 0.00791 0.00172 0.00074 -0.00514
O13 O2- 0.01088 0.00651 0.01555 0. 0.00296 0.
O14 O2- 0.00952 0.00651 0.01823 0. 0.00468 0.
#End of TTdata_172310-ICSD