
#(C) 2019 by FIZ Karlsruhe - Leibniz Institute for Information Infrastructure.  All rights reserved.
data_172471-ICSD
_database_code_ICSD 172471
_audit_creation_date 2007-04-01
_chemical_name_systematic 'Sodium tin(II) nitride'
_chemical_formula_structural 'N Na Sn'
_chemical_formula_sum 'N1 Na1 Sn1'
_chemical_name_structure_type CdI2(hP6)
_exptl_crystal_density_diffrn 4.94
_cell_measurement_temperature 220.
_publ_section_title 'The first ternary tin(II) nitride: Na Sn N'
loop_
_citation_id
_citation_journal_full
_citation_year
_citation_journal_volume
_citation_page_first
_citation_page_last
_citation_journal_id_ASTM
primary 'Chemical Communications (Cambridge, United Kingdom)' 2005 2005 4190
4192 CHCOFS
loop_
_publ_author_name
'Watney, N.S.P.'
'Gal, Z.A.'
'Webster, M.D.S.'
'Clarke, S.J.'
_cell_length_a 3.33060(10)
_cell_length_b 3.33060(10)
_cell_length_c 10.8919(5)
_cell_angle_alpha 90
_cell_angle_beta 90
_cell_angle_gamma 120
_cell_volume 104.64
_cell_formula_units_Z 2
_symmetry_space_group_name_H-M 'P 63 m c'
_symmetry_Int_Tables_number 186
_refine_ls_R_factor_all 0.0262
loop_
_symmetry_equiv_pos_site_id
_symmetry_equiv_pos_as_xyz
1 '-x, -x+y, z+1/2'
2 'x-y, -y, z+1/2'
3 'y, x, z+1/2'
4 'x-y, x, z+1/2'
5 'y, -x+y, z+1/2'
6 '-x, -y, z+1/2'
7 'x, x-y, z'
8 '-x+y, y, z'
9 '-y, -x, z'
10 '-x+y, -x, z'
11 '-y, x-y, z'
12 'x, y, z'
loop_
_atom_type_symbol
_atom_type_oxidation_number
Sn2+ 2
Na1+ 1
N3- -3
loop_
_atom_site_label
_atom_site_type_symbol
_atom_site_symmetry_multiplicity
_atom_site_Wyckoff_symbol
_atom_site_fract_x
_atom_site_fract_y
_atom_site_fract_z
_atom_site_B_iso_or_equiv
_atom_site_occupancy
_atom_site_attached_hydrogens
Sn1 Sn2+ 2 a 0. 0. 0.00004(18) 0.0069 1. 0
Na1 Na1+ 2 b 0.3333 0.6667 0.2466(7) 0.0128 1. 0
N1 N3- 2 b 0.6667 0.3333 0.0980(4) 0.0081 1. 0
loop_
_atom_site_aniso_label
_atom_site_aniso_type_symbol
_atom_site_aniso_U_11
_atom_site_aniso_U_22
_atom_site_aniso_U_33
_atom_site_aniso_U_12
_atom_site_aniso_U_13
_atom_site_aniso_U_23
Sn1 Sn2+ 0.00627(9) 0.00627(9) 0.00823(12) 0.00313(5) 0. 0.
Na1 Na1+ 0.0128(5) 0.0128(5) 0.0127(9) 0.0064(3) 0. 0.
N1 N3- 0.0067(10) 0.0067(10) 0.0108(16) 0.0033(5) 0. 0.
#End of TTdata_172471-ICSD