
#(C) 2019 by FIZ Karlsruhe - Leibniz Institute for Information Infrastructure.  All rights reserved.
data_172576-ICSD
_database_code_ICSD 172576
_audit_creation_date 2007-04-01
_audit_update_record 2013-08-01
_chemical_name_systematic 'Sodium tecto-gallosilicate'
_chemical_formula_structural 'Na12.4 (Ga12.4 Si47.6 O120)'
_chemical_formula_sum 'Ga12.4 Na12.4 O120 Si47.6'
_chemical_name_mineral 'Zeolite TNU-7'
_exptl_crystal_density_diffrn 2.07
_publ_section_title
'Structural chemical zoning in the boundary phase zeolite TNU-7 (EON)'
loop_
_citation_id
_citation_journal_full
_citation_year
_citation_journal_volume
_citation_page_first
_citation_page_last
_citation_journal_id_ASTM
primary 'Chemistry of Materials' 2006 18 3023 3033 CMATEX
loop_
_publ_author_name
'Han, B.'
'Chin, C.-H.'
'Warrender, S.J.'
'Lightfoot, P.'
'Wright, P.A.'
'Camblor, M.A.'
'Hong, S.B.'
_cell_length_a 7.57214(9)
_cell_length_b 18.0739(2)
_cell_length_c 25.8438(5)
_cell_angle_alpha 90.
_cell_angle_beta 90.
_cell_angle_gamma 90.
_cell_volume 3536.93
_cell_formula_units_Z 1
_symmetry_space_group_name_H-M 'P m m n Z'
_symmetry_Int_Tables_number 59
_refine_ls_R_factor_all 0.0474
loop_
_symmetry_equiv_pos_site_id
_symmetry_equiv_pos_as_xyz
1 'x+1/2, y+1/2, -z'
2 '-x, y+1/2, -z'
3 'x+1/2, -y, -z'
4 '-x, -y, -z'
5 '-x+1/2, -y+1/2, z'
6 'x, -y+1/2, z'
7 '-x+1/2, y, z'
8 'x, y, z'
loop_
_atom_type_symbol
_atom_type_oxidation_number
Na1+ 1
Si4+ 4
Ga3+ 3
Si4+ 4
Ga3+ 3
Si4+ 4
Ga3+ 3
Si4+ 4
Ga3+ 3
Si4+ 4
Ga3+ 3
Si4+ 4
Ga3+ 3
Si4+ 4
Ga3+ 3
Si4+ 4
Ga3+ 3
Si4+ 4
Ga3+ 3
Si4+ 4
Ga3+ 3
O2- -2
loop_
_atom_site_label
_atom_site_type_symbol
_atom_site_symmetry_multiplicity
_atom_site_Wyckoff_symbol
_atom_site_fract_x
_atom_site_fract_y
_atom_site_fract_z
_atom_site_B_iso_or_equiv
_atom_site_occupancy
_atom_site_attached_hydrogens
Na1 Na1+ 4 c 0 0 0 . .89(1) 0
Na2 Na1+ 4 f 0.059(3) 0.25 0.299(1) . .59(1) 0
Na3 Na1+ 4 f 0.168(9) 0.75 0.482(2) . .23(1) 0
Na4 Na1+ 4 e 0.75 0.557(1) 0.230(1) . .67(1) 0
Na5 Na1+ 4 e 0.25 0.688(2) 0.145(2) . .32(2) 0
Na6 Na1+ 2 b 0.25 0.75 0.905(2) . .45(2) 0
Si1 Si4+ 4 e 0.75 0.16264(4) -0.00396(3) .0207(3) .7933 0
Ga1 Ga3+ 4 e 0.75 0.16264(4) -0.00396(3) .0207(3) .2067 0
Si2 Si4+ 4 e 0.75 0.0747(5) 0.1037(5) .0207(3) .7933 0
Ga2 Ga3+ 4 e 0.75 0.0747(5) 0.1037(5) .0207(3) .2067 0
Si3 Si4+ 4 e 0.75 0.1607(4) 0.2119(3) .0207(3) .7933 0
Ga3 Ga3+ 4 e 0.75 0.1607(4) 0.2119(3) .0207(3) .2067 0
Si4 Si4+ 8 g 0.0353(7) 0.1617(3) -0.0893(2) .0207(3) .7933 0
Ga4 Ga3+ 8 g 0.0353(7) 0.1617(3) -0.0893(2) .0207(3) .2067 0
Si5 Si4+ 8 g 0.04717(7) -0.0203(3) 0.1447(3) .0207(3) .7933 0
Ga5 Ga3+ 8 g 0.04717(7) -0.0203(3) 0.1447(3) .0207(3) .2067 0
Si6 Si4+ 8 g 0.0429(8) 0.0577(3) 0.2489(5) .0207(3) .7933 0
Ga6 Ga3+ 8 g 0.0429(8) 0.0577(3) 0.2489(5) .0207(3) .2067 0
Si7 Si4+ 4 e 0.25 0.1637(4) 0.3958(3) .0207(3) .7933 0
Ga7 Ga3+ 4 e 0.25 0.1637(4) 0.3958(3) .0207(3) .2067 0
Si8 Si4+ 4 e 0.25 0.1675(4) 0.5187(3) .0207(3) .7933 0
Ga8 Ga3+ 4 e 0.25 0.1675(4) 0.5187(3) .0207(3) .2067 0
Si9 Si4+ 8 g -0.0468(7) 0.0524(3) 0.3633(2) .0207(3) .7933 0
Ga9 Ga3+ 8 g -0.0468(7) 0.0524(3) 0.3633(2) .0207(3) .2067 0
Si10 Si4+ 8 g 0.0496(8) -0.0513(3) 0.4516(2) .0207(3) .7933 0
Ga10 Ga3+ 8 g 0.0496(8) -0.0513(3) 0.4516(2) .0207(3) .2067 0
O1 O2- 2 b 0.75 0.25 0.012(1) .039(1) 1. 0
O2 O2- 4 e 0.75 0.1134(9) 0.0479(5) .039(1) 1. 0
O3 O2- 4 e 0.75 0.1304(9) 0.1523(4) .039(1) 1. 0
O4 O2- 2 b 0.75 0.25 0.203(1) .039(1) 1. 0
O5 O2- 8 g -0.078(1) 0.1335(6) -.0376(4) .039(1) 1. 0
O6 O2- 8 g -0.064(1) 0.028(1) 0.1017(4) .039(1) 1. 0
O7 O2- 8 g -.079(1) 0.1348(5) 0.2473(2) .039(1) 1. 0
O8 O2- 4 f -.019(3) 0.25 -0.1054(7) .039(1) 1. 0
O9 O2- 8 g -.015(2) -0.006(1) 0.2064(4) .039(1) 1. 0
O10 O2- 4 e 0.25 0.156(1) -0.0739(7) .039(1) 1. 0
O11 O2- 4 e 0.25 -.004(1) 0.1373(8) .039(1) 1. 0
O12 O2- 4 e 0.25 0.0841(9) 0.2508(8) .039(1) 1. 0
O13 O2- 8 g -.004(2) 0.1108(4) -.1413(4) .039(1) 1. 0
O14 O2- 8 g -.001(2) 0.0183(6) 0.3051(3) .039(1) 1. 0
O15 O2- 2 a 0.25 0.25 0.3769(9) .039(1) 1. 0
O16 O2- 2 a 0.25 0.25 0.5445(7) .039(1) 1. 0
O17 O2- 4 e 0.25 0.159(1) 0.4571(3) .039(1) 1. 0
O18 O2- 8 g 0.071(1) 0.127(1) 0.372(1) .039(1) 1. 0
O19 O2- 8 g 0.075(1) 0.1253(5) 0.5387(5) .039(1) 1. 0
O20 O2- 8 g 0.014(1) -.021(1) 0.3928(3) .039(1) 1. 0
O21 O2- 4 d 0 0 0.5 .039(1) 1. 0
O22 O2- 4 e 0.75 0.069(1) 0.3744(8) .039(1) 1. 0
O23 O2- 4 e 0.75 0.0887(8) 0.5384(8) .039(1) 1. 0
#End of TTdata_172576-ICSD