
#(C) 2019 by FIZ Karlsruhe - Leibniz Institute for Information Infrastructure.  All rights reserved.
data_172539-ICSD
_database_code_ICSD 172539
_audit_creation_date 2007-04-01
_chemical_name_systematic 'Disodium manganese(II) hexacyanoferrate(II)'
_chemical_formula_structural '(Na2 (Mn Fe (C N)6))0.5'
_chemical_formula_sum 'C3 Fe0.5 Mn0.5 N3 Na1'
_exptl_crystal_density_diffrn 1.78
_publ_section_title

;
Synthesis, structures, and magnetic properties of a series of cyano-bridged
Fe-Mn bimetallic complexes
;
loop_
_citation_id
_citation_journal_full
_citation_year
_citation_journal_volume
_citation_page_first
_citation_page_last
_citation_journal_id_ASTM
primary 'Inorganic Chemistry' 2006 45 5018 5026 INOCAJ
loop_
_publ_author_name
'Jiang, L.'
'Feng, X.-L.'
'Lu, T.-B.'
'Gao, S.'
_cell_length_a 5.2647(7)
_cell_length_b 5.2647(7)
_cell_length_c 5.2647(7)
_cell_angle_alpha 90.
_cell_angle_beta 90.
_cell_angle_gamma 90.
_cell_volume 145.92
_cell_formula_units_Z 1
_symmetry_space_group_name_H-M 'P m -3 m'
_symmetry_Int_Tables_number 221
_refine_ls_R_factor_all 0.0115
loop_
_symmetry_equiv_pos_site_id
_symmetry_equiv_pos_as_xyz
1 'z, y, -x'
2 'y, x, -z'
3 'x, z, -y'
4 'z, x, -y'
5 'y, z, -x'
6 'x, y, -z'
7 'z, -y, x'
8 'y, -x, z'
9 'x, -z, y'
10 'z, -x, y'
11 'y, -z, x'
12 'x, -y, z'
13 '-z, y, x'
14 '-y, x, z'
15 '-x, z, y'
16 '-z, x, y'
17 '-y, z, x'
18 '-x, y, z'
19 '-z, -y, -x'
20 '-y, -x, -z'
21 '-x, -z, -y'
22 '-z, -x, -y'
23 '-y, -z, -x'
24 '-x, -y, -z'
25 '-z, -y, x'
26 '-y, -x, z'
27 '-x, -z, y'
28 '-z, -x, y'
29 '-y, -z, x'
30 '-x, -y, z'
31 '-z, y, -x'
32 '-y, x, -z'
33 '-x, z, -y'
34 '-z, x, -y'
35 '-y, z, -x'
36 '-x, y, -z'
37 'z, -y, -x'
38 'y, -x, -z'
39 'x, -z, -y'
40 'z, -x, -y'
41 'y, -z, -x'
42 'x, -y, -z'
43 'z, y, x'
44 'y, x, z'
45 'x, z, y'
46 'z, x, y'
47 'y, z, x'
48 'x, y, z'
loop_
_atom_type_symbol
_atom_type_oxidation_number
Na1+ 1
Fe2+ 2
Mn2+ 2
C2+ 2
N3- -3
loop_
_atom_site_label
_atom_site_type_symbol
_atom_site_symmetry_multiplicity
_atom_site_Wyckoff_symbol
_atom_site_fract_x
_atom_site_fract_y
_atom_site_fract_z
_atom_site_B_iso_or_equiv
_atom_site_occupancy
_atom_site_attached_hydrogens
Na1 Na1+ 1 a 0. 0. 0. 0.287(10) 1 0
Fe1 Fe2+ 1 b 0.5 0.5 0.5 0.0247(3) 0.5 0
Mn1 Mn2+ 1 b 0.5 0.5 0.5 0.0247(3) 0.5 0
C1 C2+ 6 f 0.5 0.128(5) 0.5 0.041(2) 0.5 0
N1 N3- 6 f 0.5 0.083(4) 0.5 0.076(7) 0.5 0
loop_
_atom_site_aniso_label
_atom_site_aniso_type_symbol
_atom_site_aniso_U_11
_atom_site_aniso_U_22
_atom_site_aniso_U_33
_atom_site_aniso_U_12
_atom_site_aniso_U_13
_atom_site_aniso_U_23
Na1 Na1+ 0.287(10) 0.287(10) 0.287(10) 0. 0. 0.
Fe1 Fe2+ 0.0247(3) 0.0247(3) 0.0247(3) 0. 0. 0.
Mn1 Mn2+ 0.0247(3) 0.0247(3) 0.0247(3) 0. 0. 0.
C1 C2+ 0.045(4) 0.034(7) 0.045(4) 0. 0. 0.
N1 N3- 0.098(7) 0.032(8) 0.098(7) 0. 0. 0.
#End of TTdata_172539-ICSD