
#(C) 2019 by FIZ Karlsruhe - Leibniz Institute for Information Infrastructure.  All rights reserved.
data_172577-ICSD
_database_code_ICSD 172577
_audit_creation_date 2007-04-01
_audit_update_record 2007-08-01
_chemical_name_systematic 'Sodium tecto-gallosilicate'
_chemical_formula_structural 'Na8.34 (Ga6.998 Si41 O96)'
_chemical_formula_sum 'Ga6.998 Na8.34 O96 Si41'
_chemical_name_structure_type Mordenite-frame
_chemical_name_mineral 'Zeolite MOR (Na-,Ga-exchanged)'
_exptl_crystal_density_diffrn 2.04
_publ_section_title
'Structural chemical zoning in the boundary phase zeolite TNU-7 (EON)'
loop_
_citation_id
_citation_journal_full
_citation_year
_citation_journal_volume
_citation_page_first
_citation_page_last
_citation_journal_id_ASTM
primary 'Chemistry of Materials' 2006 18 3023 3033 CMATEX
loop_
_publ_author_name
'Han, B.'
'Chin, C.-H.'
'Warrender, S.J.'
'Lightfoot, P.'
'Wright, P.A.'
'Camblor, M.A.'
'Hong, S.B.'
_cell_length_a 18.0176(1)
_cell_length_b 20.2835(2)
_cell_length_c 7.49243(2)
_cell_angle_alpha 90.
_cell_angle_beta 90.
_cell_angle_gamma 90.
_cell_volume 2738.18
_cell_formula_units_Z 1
_symmetry_space_group_name_H-M 'C m c m'
_symmetry_Int_Tables_number 63
_refine_ls_R_factor_all 0.0562
loop_
_symmetry_equiv_pos_site_id
_symmetry_equiv_pos_as_xyz
1 '-x, y, -z+1/2'
2 '-x, -y, z+1/2'
3 '-x, y, z'
4 '-x, -y, -z'
5 'x, -y, z+1/2'
6 'x, y, -z+1/2'
7 'x, -y, -z'
8 'x, y, z'
9 '-x+1/2, y+1/2, -z+1/2'
10 '-x+1/2, -y+1/2, z+1/2'
11 '-x+1/2, y+1/2, z'
12 '-x+1/2, -y+1/2, -z'
13 'x+1/2, -y+1/2, z+1/2'
14 'x+1/2, y+1/2, -z+1/2'
15 'x+1/2, -y+1/2, -z'
16 'x+1/2, y+1/2, z'
loop_
_atom_type_symbol
_atom_type_oxidation_number
Na1+ 1
Si4+ 4
Ga3+ 3
Si4+ 4
Ga3+ 3
Si4+ 4
Ga3+ 3
Si4+ 4
Ga3+ 3
O2- -2
loop_
_atom_site_label
_atom_site_type_symbol
_atom_site_symmetry_multiplicity
_atom_site_Wyckoff_symbol
_atom_site_fract_x
_atom_site_fract_y
_atom_site_fract_z
_atom_site_B_iso_or_equiv
_atom_site_occupancy
_atom_site_attached_hydrogens
Na1 Na1+ 4 a 0 0 0 . .55(1) 0
Na2 Na1+ 16 h 0.810(2) 0.112(3) 0.242(7) . .24(1) 0
Na3 Na1+ 8 g 0.169(1) 0.969(1) 0.25 . .29(1) 0
Si1 Si4+ 16 h 0.20113(1) 0.4281(2) 0.54193(4) .0232(4) .8542 0
Ga1 Ga3+ 16 h 0.20113(1) 0.4281(2) 0.54193(4) .0232(4) .1458 0
Si2 Si4+ 16 h 0.1934(2) 0.1904(2) 0.5427(5) .0232(4) .8542 0
Ga2 Ga3+ 16 h 0.1934(2) 0.1904(2) 0.5427(5) .0232(4) .1458 0
Si3 Si4+ 8 g 0.0861(1) 0.3846(2) 0.25 .0232(4) .8542 0
Ga3 Ga3+ 8 g 0.0861(1) 0.3846(2) 0.25 .0232(4) .1458 0
Si4 Si4+ 8 g 0.0849(2) 0.2261(1) 0.25 .0232(4) .8542 0
Ga4 Ga3+ 8 g 0.0849(2) 0.2261(1) 0.25 .0232(4) .1458 0
O1 O2- 16 h 0.1289(4) 0.4134(4) 0.4262(7) .044(1) 1. 0
O2 O2- 16 h 0.1170(3) 0.1949(7) 0.4391(7) .044(1) 1. 0
O3 O2- 16 h 0.2661(3) 0.3827(3) 0.4776(9) .044(1) 1. 0
O4 O2- 8 g 0.0939(5) 0.3051(3) 0.25 .044(1) 1. 0
O5 O2- 8 g 0.1721(5) 0.1985(7) 0.75 .044(1) 1. 0
O6 O2- 8 g 0.1808(6) 0.4152(6) 0.75 .044(1) 1. 0
O7 O2- 8 e 0.2324(6) 0.5 0.5 .044(1) 1. 0
O8 O2- 8 d 0.25 0.25 0.5 .044(1) 1. 0
O9 O2- 4 c 0 0.4074(8) 0.25 .044(1) 1. 0
O10 O2- 4 c 0 0.2001(7) 0.25 .044(1) 1. 0
#End of TTdata_172577-ICSD