
#(C) 2019 by FIZ Karlsruhe - Leibniz Institute for Information Infrastructure.  All rights reserved.
data_172807-ICSD
_database_code_ICSD 172807
_audit_creation_date 2007-08-01
_chemical_name_systematic 'Trisodium nickel zirconium tris(tetraoxophosphate)'
_chemical_formula_structural 'Na3 Ni Zr (P O4)3'
_chemical_formula_sum 'Na3 Ni1 O12 P3 Zr1'
_chemical_name_structure_type 'Nasicon high'
_exptl_crystal_density_diffrn 3.3
_publ_section_title

;
Synthesis, crystal structure and spectroscopy properties of Na3 A Zr (P O4)3
(A = Mg, Ni) and Li2.6 Na0.4 Ni Zr (P O4)3 phosphates
;
loop_
_citation_id
_citation_journal_full
_citation_year
_citation_journal_volume
_citation_page_first
_citation_page_last
_citation_journal_id_ASTM
primary 'Journal of Solid State Chemistry' 2006 179 1883 1891 JSSCBI
loop_
_publ_author_name
'Chakir, M.'
'El Jazouli, A.'
'de Waal, D.'
_cell_length_a 8.8909(4)
_cell_length_b 8.8909(4)
_cell_length_c 22.225(1)
_cell_angle_alpha 90.
_cell_angle_beta 90.
_cell_angle_gamma 120.
_cell_volume 1521.47
_cell_formula_units_Z 6
_symmetry_space_group_name_H-M 'R -3 c H'
_symmetry_Int_Tables_number 167
_refine_ls_R_factor_all 0.06
loop_
_symmetry_equiv_pos_site_id
_symmetry_equiv_pos_as_xyz
1 'x-y, -y, -z+1/2'
2 '-x, -x+y, -z+1/2'
3 'y, x, -z+1/2'
4 'x-y, x, -z'
5 'y, -x+y, -z'
6 '-x, -y, -z'
7 '-x+y, y, z+1/2'
8 'x, x-y, z+1/2'
9 '-y, -x, z+1/2'
10 '-x+y, -x, z'
11 '-y, x-y, z'
12 'x, y, z'
13 'x-y+2/3, -y+1/3, -z+5/6'
14 '-x+2/3, -x+y+1/3, -z+5/6'
15 'y+2/3, x+1/3, -z+5/6'
16 'x-y+2/3, x+1/3, -z+1/3'
17 'y+2/3, -x+y+1/3, -z+1/3'
18 '-x+2/3, -y+1/3, -z+1/3'
19 '-x+y+2/3, y+1/3, z+5/6'
20 'x+2/3, x-y+1/3, z+5/6'
21 '-y+2/3, -x+1/3, z+5/6'
22 '-x+y+2/3, -x+1/3, z+1/3'
23 '-y+2/3, x-y+1/3, z+1/3'
24 'x+2/3, y+1/3, z+1/3'
25 'x-y+1/3, -y+2/3, -z+1/6'
26 '-x+1/3, -x+y+2/3, -z+1/6'
27 'y+1/3, x+2/3, -z+1/6'
28 'x-y+1/3, x+2/3, -z+2/3'
29 'y+1/3, -x+y+2/3, -z+2/3'
30 '-x+1/3, -y+2/3, -z+2/3'
31 '-x+y+1/3, y+2/3, z+1/6'
32 'x+1/3, x-y+2/3, z+1/6'
33 '-y+1/3, -x+2/3, z+1/6'
34 '-x+y+1/3, -x+2/3, z+2/3'
35 '-y+1/3, x-y+2/3, z+2/3'
36 'x+1/3, y+2/3, z+2/3'
loop_
_atom_type_symbol
_atom_type_oxidation_number
Zr4+ 4
Ni2+ 2
Na1+ 1
P5+ 5
O2- -2
loop_
_atom_site_label
_atom_site_type_symbol
_atom_site_symmetry_multiplicity
_atom_site_Wyckoff_symbol
_atom_site_fract_x
_atom_site_fract_y
_atom_site_fract_z
_atom_site_B_iso_or_equiv
_atom_site_occupancy
_atom_site_attached_hydrogens
Zr1 Zr4+ 12 c 0 0 0.1474(1) .9(1) 0.5 0
Ni1 Ni2+ 12 c 0 0 0.1474(1) .9(1) 0.5 0
Na1 Na1+ 6 b 0 0 0 4.2(7) .91(1) 0
Na2 Na1+ 18 e 0.6340(14) 0 0.25 6.3(3) 0.697(1) 0
P1 P5+ 18 e 0.2934(5) 0 0.25 .9(3) 1. 0
O1 O2- 36 f 0.1865(9) -.0249(10) 0.1941(3) 1.1(4) 1. 0
O2 O2- 36 f 0.1908(7) 0.1717(8) 0.0872(3) 1.1(4) 1. 0
#End of TTdata_172807-ICSD