
#(C) 2019 by FIZ Karlsruhe - Leibniz Institute for Information Infrastructure.  All rights reserved.
data_173140-ICSD
_database_code_ICSD 173140
_audit_creation_date 2008-08-01
_chemical_name_systematic 'Trisodium ditanium bisphosphate dioxofluoride'
_chemical_formula_structural 'Na3 Ti2 (P O4)2 O2 F'
_chemical_formula_sum 'F1 Na3 O10 P2 Ti2'
_exptl_crystal_density_diffrn 3.06
_publ_section_title

;
Na3 [Ti2 P2 O10 F]: A new oxyfluorinated titanium phosphate with an ionic
conductive property
;
loop_
_citation_id
_citation_journal_full
_citation_year
_citation_journal_volume
_citation_page_first
_citation_page_last
_citation_journal_id_ASTM
primary 'Chemistry of Materials' 2007 19 942 947 CMATEX
loop_
_publ_author_name
'Yang Sihai'
'Li Guo Bao'
'You Liping'
'Tao Julian'
'Loong Chun-K'
'Tian Shujian'
'Liao Fuhui'
'Lin Jian Hua'
_cell_length_a 6.4208(1)
_cell_length_b 6.4208(1)
_cell_length_c 10.6756(2)
_cell_angle_alpha 90.
_cell_angle_beta 90.
_cell_angle_gamma 90.
_cell_volume 440.12
_cell_formula_units_Z 2
_symmetry_space_group_name_H-M 'I 4/m m m'
_symmetry_Int_Tables_number 139
_refine_ls_R_factor_all 0.045
loop_
_symmetry_equiv_pos_site_id
_symmetry_equiv_pos_as_xyz
1 'y, x, -z'
2 '-y, -x, -z'
3 '-y, x, -z'
4 'y, -x, -z'
5 '-x, y, -z'
6 'x, -y, -z'
7 'x, y, -z'
8 '-x, -y, -z'
9 '-y, -x, z'
10 'y, x, z'
11 'y, -x, z'
12 '-y, x, z'
13 'x, -y, z'
14 '-x, y, z'
15 '-x, -y, z'
16 'x, y, z'
17 'y+1/2, x+1/2, -z+1/2'
18 '-y+1/2, -x+1/2, -z+1/2'
19 '-y+1/2, x+1/2, -z+1/2'
20 'y+1/2, -x+1/2, -z+1/2'
21 '-x+1/2, y+1/2, -z+1/2'
22 'x+1/2, -y+1/2, -z+1/2'
23 'x+1/2, y+1/2, -z+1/2'
24 '-x+1/2, -y+1/2, -z+1/2'
25 '-y+1/2, -x+1/2, z+1/2'
26 'y+1/2, x+1/2, z+1/2'
27 'y+1/2, -x+1/2, z+1/2'
28 '-y+1/2, x+1/2, z+1/2'
29 'x+1/2, -y+1/2, z+1/2'
30 '-x+1/2, y+1/2, z+1/2'
31 '-x+1/2, -y+1/2, z+1/2'
32 'x+1/2, y+1/2, z+1/2'
loop_
_atom_type_symbol
_atom_type_oxidation_number
Ti4+ 4
P5+ 5
F1- -1
O2- -2
Na1+ 1
loop_
_atom_site_label
_atom_site_type_symbol
_atom_site_symmetry_multiplicity
_atom_site_Wyckoff_symbol
_atom_site_fract_x
_atom_site_fract_y
_atom_site_fract_z
_atom_site_B_iso_or_equiv
_atom_site_occupancy
_atom_site_attached_hydrogens
Ti1 Ti4+ 4 e 0. 0. 0.8015(1) 0.02366 1. 0
P1 P5+ 4 d 0. 0.5 0.75 0.00802 1. 0
F1 F1- 2 a 0. 0. 0. 0.0321 1. 0
O1 O2- 4 e 0. 0. 0.6463(1) 0.01901 1. 0
O2 O2- 16 n 0. 0.3079(1) 0.8353(1) 0.00962 1. 0
Na1 Na1+ 8 h 0.2741(1) 0.2741(1) 0. 0.05234 0.75 0
#End of TTdata_173140-ICSD