
#(C) 2019 by FIZ Karlsruhe - Leibniz Institute for Information Infrastructure.  All rights reserved.
data_173275-ICSD
_database_code_ICSD 173275
_audit_creation_date 2008-08-01
_chemical_name_systematic 'Trineodymium sodium platinum(IV) oxide'
_chemical_formula_structural '(Nd3 Na) Pt O7'
_chemical_formula_sum 'Na1 Nd3 O7 Pt1'
_exptl_crystal_density_diffrn 7.78
_cell_measurement_temperature 294.
_publ_section_title

;
Crystal growth and structures of three new platinates: Ln3 Na Pt O7 (Ln = La,
Nd) and La4 Pt O7
;
loop_
_citation_id
_citation_journal_full
_citation_year
_citation_journal_volume
_citation_page_first
_citation_page_last
_citation_journal_id_ASTM
primary 'Solid State Sciences' 2007 9 785 791 SSSCFJ
loop_
_publ_author_name
'Hansen, T.J.'
'Macquart, R.B.'
'Smith, M.D.'
'zur Loye, H.C.'
_cell_length_a 5.6862(5)
_cell_length_b 5.6862(5)
_cell_length_c 34.896(3)
_cell_angle_alpha 90.
_cell_angle_beta 90.
_cell_angle_gamma 120.
_cell_volume 977.13
_cell_formula_units_Z 6
_symmetry_space_group_name_H-M 'R -3 c H'
_symmetry_Int_Tables_number 167
_refine_ls_R_factor_all 0.0678
loop_
_symmetry_equiv_pos_site_id
_symmetry_equiv_pos_as_xyz
1 'x-y, -y, -z+1/2'
2 '-x, -x+y, -z+1/2'
3 'y, x, -z+1/2'
4 'x-y, x, -z'
5 'y, -x+y, -z'
6 '-x, -y, -z'
7 '-x+y, y, z+1/2'
8 'x, x-y, z+1/2'
9 '-y, -x, z+1/2'
10 '-x+y, -x, z'
11 '-y, x-y, z'
12 'x, y, z'
13 'x-y+2/3, -y+1/3, -z+5/6'
14 '-x+2/3, -x+y+1/3, -z+5/6'
15 'y+2/3, x+1/3, -z+5/6'
16 'x-y+2/3, x+1/3, -z+1/3'
17 'y+2/3, -x+y+1/3, -z+1/3'
18 '-x+2/3, -y+1/3, -z+1/3'
19 '-x+y+2/3, y+1/3, z+5/6'
20 'x+2/3, x-y+1/3, z+5/6'
21 '-y+2/3, -x+1/3, z+5/6'
22 '-x+y+2/3, -x+1/3, z+1/3'
23 '-y+2/3, x-y+1/3, z+1/3'
24 'x+2/3, y+1/3, z+1/3'
25 'x-y+1/3, -y+2/3, -z+1/6'
26 '-x+1/3, -x+y+2/3, -z+1/6'
27 'y+1/3, x+2/3, -z+1/6'
28 'x-y+1/3, x+2/3, -z+2/3'
29 'y+1/3, -x+y+2/3, -z+2/3'
30 '-x+1/3, -y+2/3, -z+2/3'
31 '-x+y+1/3, y+2/3, z+1/6'
32 'x+1/3, x-y+2/3, z+1/6'
33 '-y+1/3, -x+2/3, z+1/6'
34 '-x+y+1/3, -x+2/3, z+2/3'
35 '-y+1/3, x-y+2/3, z+2/3'
36 'x+1/3, y+2/3, z+2/3'
loop_
_atom_type_symbol
_atom_type_oxidation_number
Nd3+ 3
Na1+ 1
Pt4+ 4
O2- -2
loop_
_atom_site_label
_atom_site_type_symbol
_atom_site_symmetry_multiplicity
_atom_site_Wyckoff_symbol
_atom_site_fract_x
_atom_site_fract_y
_atom_site_fract_z
_atom_site_B_iso_or_equiv
_atom_site_occupancy
_atom_site_attached_hydrogens
Nd1 Nd3+ 12 c 0 0 0.1888(1) 0.016(1) 1 0
Nd2 Nd3+ 12 c 0 0 0.0859(1) 0.027(1) 0.5 0
Na1 Na1+ 12 c 0 0 0.0859(1) 0.027(1) 0.5 0
Pt1 Pt4+ 6 b 0 0 0 0.013(1) 1 0
O1 O2- 36 f 0.2386(11) 0.3302(13) 0.0320(2) 0.021(1) 1 0
O2 O2- 18 e 0.149(4) 0.149(4) 0.25 0.015(4) 0.3333 0
#End of TTdata_173275-ICSD