
#(C) 2019 by FIZ Karlsruhe - Leibniz Institute for Information Infrastructure.  All rights reserved.
data_173547-ICSD
_database_code_ICSD 173547
_audit_creation_date 2009-02-01
_chemical_name_systematic 'Praseodymium sodium manganese oxide (0.79/0.21/1/3)'
_chemical_formula_structural 'Pr0.79 Na0.21 Mn O3'
_chemical_formula_sum 'Mn1 Na0.21 O3 Pr0.79'
_chemical_name_structure_type (Pr,Ca)MnO3
_chemical_name_mineral Perovskite
_exptl_crystal_density_diffrn 6.43
_cell_measurement_temperature 150.
_publ_section_title

;
Charge ordering and dielectric properties in the near half-doped Pr(0.79)
Na(0.21) Mn O3 perovskite
;
loop_
_citation_id
_citation_journal_full
_citation_year
_citation_journal_volume
_citation_page_first
_citation_page_last
_citation_journal_id_ASTM
primary 'Journal of Solid State Chemistry' 2008 181 1354 1360 JSSCBI
loop_
_publ_author_name
'Sanchez-Andujar, M.'
'Yanez-Vilar, S.'
'Castro-Garcia, S.'
'Senaris Rodriguez, M.A.'
_cell_length_a 10.8513(2)
_cell_length_b 7.6718(2)
_cell_length_c 5.4406(1)
_cell_angle_alpha 90.
_cell_angle_beta 89.909(2)
_cell_angle_gamma 90.
_cell_volume 452.92
_cell_formula_units_Z 8
_symmetry_space_group_name_H-M 'P 1 21/m 1'
_symmetry_Int_Tables_number 11
_refine_ls_R_factor_all 0.0357
loop_
_symmetry_equiv_pos_site_id
_symmetry_equiv_pos_as_xyz
1 'x, -y+1/2, z'
2 '-x, -y, -z'
3 '-x, y+1/2, -z'
4 'x, y, z'
loop_
_atom_type_symbol
_atom_type_oxidation_number
Pr3+ 3
Na1+ 1
Pr3+ 3
Na1+ 1
Pr3+ 3
Na1+ 1
Pr3+ 3
Na1+ 1
Mn3+ 3.42
O2- -2
loop_
_atom_site_label
_atom_site_type_symbol
_atom_site_symmetry_multiplicity
_atom_site_Wyckoff_symbol
_atom_site_fract_x
_atom_site_fract_y
_atom_site_fract_z
_atom_site_B_iso_or_equiv
_atom_site_occupancy
_atom_site_attached_hydrogens
Pr1 Pr3+ 2 e 0.0122(7) 0.25 -0.0017(13) 0.0039(1) 0.79 0
Na1 Na1+ 2 e 0.0122(7) 0.25 -0.0017(13) 0.0039(1) 0.21 0
Pr2 Pr3+ 2 e 0.2611(6) 0.25 0.5156(6) 0.0039(1) 0.79 0
Na2 Na1+ 2 e 0.2611(6) 0.25 0.5156(6) 0.0039(1) 0.21 0
Pr3 Pr3+ 2 e 0.5128(7) 0.25 -0.0033(12) 0.0039(1) 0.79 0
Na3 Na1+ 2 e 0.5128(7) 0.25 -0.0033(12) 0.0039(1) 0.21 0
Pr4 Pr3+ 2 e 0.7636(7) 0.25 0.4961(6) 0.0039(1) 0.79 0
Na4 Na1+ 2 e 0.7636(7) 0.25 0.4961(6) 0.0039(1) 0.21 0
Mn1 Mn3+ 4 f 0.2488(12) -0.0020(12) 0.0060(14) 0.0030(2) 1. 0
Mn2 Mn3+ 2 c 0 0 0.5 0.0030(2) 1. 0
Mn3 Mn3+ 2 d 0.5 0 0.5 0.0030(2) 1. 0
O1 O2- 2 e 0.016(5) 0.25 0.436(9) 0.0069(3) 1. 0
O2 O2- 2 e 0.228(4) 0.25 0.064(8) 0.0069(3) 1. 0
O3 O2- 2 e 0.486(4) 0.25 0.451(10) 0.0069(3) 1. 0
O4 O2- 2 e 0.755(5) 0.25 0.066(9) 0.0069(3) 1. 0
O5 O2- 4 f 0.357(2) -0.060(4) 0.300(4) 0.0069(3) 1. 0
O6 O2- 4 f -0.144(3) 0.38(5) 0.755(5) 0.0069(3) 1. 0
O7 O2- 4 f 0.859(3) -0.017(4) 0.254(6) 0.0069(3) 1. 0
O8 O2- 4 f 0.402(4) 0.023(4) 0.826(5) 0.0069(3) 1. 0
#End of TTdata_173547-ICSD