
#(C) 2019 by FIZ Karlsruhe - Leibniz Institute for Information Infrastructure.  All rights reserved.
data_173633-ICSD
_database_code_ICSD 173633
_audit_creation_date 2009-02-01
_chemical_name_systematic 'Dibismuth strontium disodium tetraniobate'
_chemical_formula_structural 'Bi2 Sr Na2 (Nb4 O15)'
_chemical_formula_sum 'Bi2 Na2 Nb4 O15 Sr1'
_chemical_name_structure_type BaBi4Ti4O15
_exptl_crystal_density_diffrn 6.23
_publ_section_title

;
Synthesis and characterization of a new four-layer Aurivillius phase Bi2 Sr
Na2 Nb4 O24 and its protonated form
;
loop_
_citation_id
_citation_journal_full
_citation_year
_citation_journal_volume
_citation_page_first
_citation_page_last
_citation_journal_id_ASTM
primary 'Journal of Solid State Chemistry' 2008 181 2565 2571 JSSCBI
loop_
_publ_author_name
'Liang Zhenhua'
'Tang Kaibin'
'Zeng Suyuan'
'Wang Dong'
'Li Tanwei'
'Zheng Huagui'
_cell_length_a 3.9021(1)
_cell_length_b 3.9021(1)
_cell_length_c 40.7554(10)
_cell_angle_alpha 90.
_cell_angle_beta 90.
_cell_angle_gamma 90.
_cell_volume 620.56
_cell_formula_units_Z 2
_symmetry_space_group_name_H-M 'I 4/m m m'
_symmetry_Int_Tables_number 139
_refine_ls_R_factor_all 0.0953
loop_
_symmetry_equiv_pos_site_id
_symmetry_equiv_pos_as_xyz
1 'y, x, -z'
2 '-y, -x, -z'
3 '-y, x, -z'
4 'y, -x, -z'
5 '-x, y, -z'
6 'x, -y, -z'
7 'x, y, -z'
8 '-x, -y, -z'
9 '-y, -x, z'
10 'y, x, z'
11 'y, -x, z'
12 '-y, x, z'
13 'x, -y, z'
14 '-x, y, z'
15 '-x, -y, z'
16 'x, y, z'
17 'y+1/2, x+1/2, -z+1/2'
18 '-y+1/2, -x+1/2, -z+1/2'
19 '-y+1/2, x+1/2, -z+1/2'
20 'y+1/2, -x+1/2, -z+1/2'
21 '-x+1/2, y+1/2, -z+1/2'
22 'x+1/2, -y+1/2, -z+1/2'
23 'x+1/2, y+1/2, -z+1/2'
24 '-x+1/2, -y+1/2, -z+1/2'
25 '-y+1/2, -x+1/2, z+1/2'
26 'y+1/2, x+1/2, z+1/2'
27 'y+1/2, -x+1/2, z+1/2'
28 '-y+1/2, x+1/2, z+1/2'
29 'x+1/2, -y+1/2, z+1/2'
30 '-x+1/2, y+1/2, z+1/2'
31 '-x+1/2, -y+1/2, z+1/2'
32 'x+1/2, y+1/2, z+1/2'
loop_
_atom_type_symbol
_atom_type_oxidation_number
Bi3+ 3
Sr2+ 2
Bi3+ 3
Sr2+ 2
Na1+ 1
Sr2+ 2
Na1+ 1
Nb5+ 5
O2- -2
loop_
_atom_site_label
_atom_site_type_symbol
_atom_site_symmetry_multiplicity
_atom_site_Wyckoff_symbol
_atom_site_fract_x
_atom_site_fract_y
_atom_site_fract_z
_atom_site_B_iso_or_equiv
_atom_site_occupancy
_atom_site_attached_hydrogens
Bi1 Bi3+ 4 e 0 0 0.22014(2) 1.878(31) 0.82 0
Sr1 Sr2+ 4 e 0 0 0.22014(2) 1.878(31) 0.18 0
Bi2 Bi3+ 4 e 0 0 0.10046(5) 2.001(87) 0.18 0
Sr2 Sr2+ 4 e 0 0 0.10046(5) 2.001(87) 0.16 0
Na1 Na1+ 4 e 0 0 0.10046(5) 2.001(87) 0.66 0
Sr3 Sr2+ 2 a 0 0 0 1.937(165) 0.32 0
Na2 Na1+ 2 a 0 0 0 1.937(165) 0.68 0
Nb1 Nb5+ 4 e 0 0 0.45122(3) 0.238(35) 1. 0
Nb2 Nb5+ 4 e 0 0 0.35027(3) 0.565(40) 1. 0
O1 O2- 2 b 0 0 0.5 3.241(391) 1. 0
O2 O2- 8 g 0 0.5 0.04773(14) 4.040(226) 1. 0
O3 O2- 4 e 0 0 0.40343(21) 3.197(253) 1. 0
O4 O2- 8 g 0 0.5 0.14434(12) 2.498(187) 1. 0
O5 O2- 4 e 0 0 0.30781(25) 5.412(372) 1. 0
O6 O2- 4 d 0 0.5 0.25 5.900(353) 1. 0
#End of TTdata_173633-ICSD