
#(C) 2019 by FIZ Karlsruhe - Leibniz Institute for Information Infrastructure.  All rights reserved.
data_173741-ICSD
_database_code_ICSD 173741
_audit_creation_date 2009-08-01
_chemical_name_systematic 'Potassium sodium niobate (0.3/0.7/1)'
_chemical_formula_structural '(K0.30 Na0.70) (Nb O3)'
_chemical_formula_sum 'K0.3 Na0.7 Nb1 O3'
_chemical_name_structure_type Perovskite-PbTiO3
_exptl_crystal_density_diffrn 4.48
_cell_measurement_temperature 523.
_publ_section_title

;
Structural study of K(x) Na(1-x) Nb O3 (KNN) for compositions in the range of
x = 0.24 - 0.36
;
loop_
_citation_id
_citation_journal_full
_citation_year
_citation_journal_volume
_citation_page_first
_citation_page_last
_citation_journal_id_ASTM
primary 'Acta Crystallographica, Section B: Structural Science' 2009 65 22 28
ASBSDK
loop_
_publ_author_name
'Baker, D.W.'
'Thomas, P.A.'
'Zhang, N.'
'Glazer, A.M.'
_cell_length_a 3.950920(10)
_cell_length_b 3.950920(10)
_cell_length_c 4.00852(2)
_cell_angle_alpha 90
_cell_angle_beta 90
_cell_angle_gamma 90
_cell_volume 62.57
_cell_formula_units_Z 1
_symmetry_space_group_name_H-M 'P 4 m m'
_symmetry_Int_Tables_number 99
_refine_ls_R_factor_all 0.063
loop_
_symmetry_equiv_pos_site_id
_symmetry_equiv_pos_as_xyz
1 'y, -x, z'
2 '-y, x, z'
3 '-y, -x, z'
4 'y, x, z'
5 'x, -y, z'
6 '-x, y, z'
7 '-x, -y, z'
8 'x, y, z'
loop_
_atom_type_symbol
_atom_type_oxidation_number
Na1+ 1
K1+ 1
Nb5+ 5
O2- -2
loop_
_atom_site_label
_atom_site_type_symbol
_atom_site_symmetry_multiplicity
_atom_site_Wyckoff_symbol
_atom_site_fract_x
_atom_site_fract_y
_atom_site_fract_z
_atom_site_B_iso_or_equiv
_atom_site_occupancy
_atom_site_attached_hydrogens
Na1 Na1+ 1 a 0 0 0 0.0357 0.7 0
K1 K1+ 1 a 0 0 0 0.0357 0.3 0
Nb1 Nb5+ 1 b 0.5 0.5 0.492(11) 0.0114 1 0
O1 O2- 1 b 0.5 0.5 0.038(10) 0.0241 1 0
O2 O2- 2 c 0.5 0 0.539(10) 0.0221 1 0
loop_
_atom_site_aniso_label
_atom_site_aniso_type_symbol
_atom_site_aniso_U_11
_atom_site_aniso_U_22
_atom_site_aniso_U_33
_atom_site_aniso_U_12
_atom_site_aniso_U_13
_atom_site_aniso_U_23
Na1 Na1+ 0.0307(11) 0.0307(11) 0.046(3) 0 0 0
K1 K1+ 0.0307(11) 0.0307(11) 0.046(3) 0 0 0
Nb1 Nb5+ 0.0101(4) 0.0101(4) 0.014(3) 0 0 0
O1 O2- 0.0248(8) 0.0248(8) 0.023(3) 0 0 0
O2 O2- 0.0175(7) 0.0175(7) 0.031(3) -0.0014(6) 0 0
#End of TTdata_173741-ICSD