
#(C) 2019 by FIZ Karlsruhe - Leibniz Institute for Information Infrastructure.  All rights reserved.
data_174133-ICSD
_database_code_ICSD 174133
_audit_creation_date 2010-02-01
_chemical_name_systematic 'Sodium vanadotungstate'
_chemical_formula_structural 'Na (V W O6)'
_chemical_formula_sum 'Na1 O6 V1 W1'
_chemical_name_structure_type ThTi2O6
_exptl_crystal_density_diffrn 5.04
_publ_section_title

;
Crystal structure, spectroscopy and thermodynamic properties of M(I) V W O6
(M(I) - Li, Na)
;
loop_
_citation_id
_citation_journal_full
_citation_year
_citation_journal_volume
_citation_page_first
_citation_page_last
_citation_journal_id_ASTM
primary 'Journal of Solid State Chemistry' 2009 182 3003 3012 JSSCBI
loop_
_publ_author_name
'Knyazev, A.V.'
'Maczka, M.'
'Smirnova, N.N.'
'Macalik, L.'
'Kuznetsova, N.Yu.'
'Letyanina, I.A.'
_cell_length_a 9.4422(1)
_cell_length_b 3.67734(4)
_cell_length_c 7.2345(1)
_cell_angle_alpha 90.
_cell_angle_beta 111.769(1)
_cell_angle_gamma 90.
_cell_volume 233.28
_cell_formula_units_Z 2
_symmetry_space_group_name_H-M 'C 1 2/m 1'
_symmetry_Int_Tables_number 12
_refine_ls_R_factor_all 0.0285
loop_
_symmetry_equiv_pos_site_id
_symmetry_equiv_pos_as_xyz
1 '-x, y, -z'
2 '-x, -y, -z'
3 'x, -y, z'
4 'x, y, z'
5 '-x+1/2, y+1/2, -z'
6 '-x+1/2, -y+1/2, -z'
7 'x+1/2, -y+1/2, z'
8 'x+1/2, y+1/2, z'
loop_
_atom_type_symbol
_atom_type_oxidation_number
Na1+ 1
V5+ 5
W6+ 6
O2- -2
loop_
_atom_site_label
_atom_site_type_symbol
_atom_site_symmetry_multiplicity
_atom_site_Wyckoff_symbol
_atom_site_fract_x
_atom_site_fract_y
_atom_site_fract_z
_atom_site_B_iso_or_equiv
_atom_site_occupancy
_atom_site_attached_hydrogens
Na1 Na1+ 2 a 0 0 0 1.6(2) 1. 0
V1 V5+ 4 i 0.8180(1) 0 0.3663(2) 0.25(3) 0.5 0
W1 W6+ 4 i 0.8180(1) 0 0.3663(2) 0.25(3) 0.5 0
O1 O2- 4 i 0.9752(8) 0 0.310(1) 1.0(2) 1. 0
O2 O2- 4 i 0.6711(9) 0 0.135(1) 0.9(2) 1. 0
O3 O2- 4 i 0.3094(8) 0 0.438(1) 0.3(2) 1. 0
#End of TTdata_174133-ICSD