
#(C) 2019 by FIZ Karlsruhe - Leibniz Institute for Information Infrastructure.  All rights reserved.
data_174338-ICSD
_database_code_ICSD 174338
_audit_creation_date 2010-08-01
_chemical_name_systematic 'Potassium sodium magnesium borate (0.83/0.17/1/1)'
_chemical_formula_structural 'K0.83 Na0.17 Mg (B O3)'
_chemical_formula_sum 'B1 K0.83 Mg1 Na0.17 O3'
_chemical_name_structure_type KMgBO3
_exptl_crystal_density_diffrn 2.5
_cell_measurement_temperature 295.
_publ_section_title

;
Structure determination and relative properties of novel chiral orthoborate K
Mg B O3
;
loop_
_citation_id
_citation_journal_full
_citation_year
_citation_journal_volume
_citation_page_first
_citation_page_last
_citation_journal_id_ASTM
primary 'Inorganic Chemistry' 2010 49 2715 2720 INOCAJ
loop_
_publ_author_name
'Wu, L.'
'Sun, J.C.'
'Zhang, Y.'
'Jin, S.-F.'
'Kong, Y.-F.'
'Xu, J.-J.'
_cell_length_a 6.82370(6)
_cell_length_b 6.82370(6)
_cell_length_c 6.82370(6)
_cell_angle_alpha 90.
_cell_angle_beta 90.
_cell_angle_gamma 90.
_cell_volume 317.73
_cell_formula_units_Z 4
_symmetry_space_group_name_H-M 'P 21 3'
_symmetry_Int_Tables_number 198
_refine_ls_R_factor_all 0.0707
loop_
_symmetry_equiv_pos_site_id
_symmetry_equiv_pos_as_xyz
1 '-z+1/2, -x, y+1/2'
2 '-y+1/2, -z, x+1/2'
3 '-x+1/2, -y, z+1/2'
4 '-z, x+1/2, -y+1/2'
5 '-y, z+1/2, -x+1/2'
6 '-x, y+1/2, -z+1/2'
7 'z+1/2, -x+1/2, -y'
8 'y+1/2, -z+1/2, -x'
9 'x+1/2, -y+1/2, -z'
10 'z, x, y'
11 'y, z, x'
12 'x, y, z'
loop_
_atom_type_symbol
_atom_type_oxidation_number
Mg2+ 2
K1+ 1
Na1+ 1
O2- -2
B3+ 3
loop_
_atom_site_label
_atom_site_type_symbol
_atom_site_symmetry_multiplicity
_atom_site_Wyckoff_symbol
_atom_site_fract_x
_atom_site_fract_y
_atom_site_fract_z
_atom_site_B_iso_or_equiv
_atom_site_occupancy
_atom_site_attached_hydrogens
Mg1 Mg2+ 4 a .8551(2) .8551(2) .8551(2) .0101(8) 1 0
K1 K1+ 4 a .1343(2) .1343(2) .1343(2) .00985(8) 0.8342(4) 0
Na1 Na1+ 4 a .1343(2) .1343(2) .1343(2) .00985(8) 0.1658(4) 0
O1 O2- 12 b .4172(2) .2582(2) .5413(2) .0174(2) 1 0
B1 B3+ 4 a .4084(2) .4084(2) .4084(2) .0524(8) 1 0
#End of TTdata_174338-ICSD