
#(C) 2019 by FIZ Karlsruhe - Leibniz Institute for Information Infrastructure.  All rights reserved.
data_174310-ICSD
_database_code_ICSD 174310
_audit_creation_date 2010-08-01
_chemical_name_systematic 'Sodium trioxoferrate(II) - beta'
_chemical_formula_structural 'Na4 Fe O3'
_chemical_formula_sum 'Fe1 Na4 O3'
_exptl_crystal_density_diffrn 2.73
_publ_section_title
'Neue Oxoferrate der Alkalimetalle. Synthesen und Kristallchemie'
loop_
_citation_id
_citation_journal_full
_citation_year
_citation_journal_volume
_citation_page_first
_citation_page_last
_citation_journal_id_ASTM
primary 'Dissertation Albert-Ludwigs-Universitaet Freiburg' 2006 2006 1 203
DIUFRJ
loop_
_publ_author_name
'Frisch, G.'
_cell_length_a 8.2577(9)
_cell_length_b 11.665(1)
_cell_length_c 10.554(1)
_cell_angle_alpha 90.
_cell_angle_beta 110.579(8)
_cell_angle_gamma 90.
_cell_volume 951.75
_cell_formula_units_Z 8
_symmetry_space_group_name_H-M 'P 1 21/c 1'
_symmetry_Int_Tables_number 14
_refine_ls_R_factor_all 0.1
loop_
_symmetry_equiv_pos_site_id
_symmetry_equiv_pos_as_xyz
1 'x, -y+1/2, z+1/2'
2 '-x, -y, -z'
3 '-x, y+1/2, -z+1/2'
4 'x, y, z'
loop_
_atom_type_symbol
_atom_type_oxidation_number
Na1+ 1
Fe2+ 2
O2- -2
loop_
_atom_site_label
_atom_site_type_symbol
_atom_site_symmetry_multiplicity
_atom_site_Wyckoff_symbol
_atom_site_fract_x
_atom_site_fract_y
_atom_site_fract_z
_atom_site_B_iso_or_equiv
_atom_site_occupancy
_atom_site_attached_hydrogens
Na1 Na1+ 4 e 0.1262(5) 0.7898(3) 0.1267(3) 0.0465(8) 1. 0
Na2 Na1+ 4 e 0.0746(4) 0.3077(3) 0.1447(3) 0.0412(7) 1. 0
Na3 Na1+ 4 e 0.3066(4) 0.2074(3) 0.4707(3) 0.0412(7) 1. 0
Na4 Na1+ 4 e 0.3904(4) 0.4622(3) 0.3687(3) 0.0466(8) 1. 0
Na5 Na1+ 4 e 0.1984(4) 0.5293(3) 0.0413(3) 0.0438(7) 1. 0
Na6 Na1+ 4 e 0.5840(4) 0.4538(3) 0.1428(3) 0.0438(7) 1. 0
Na7 Na1+ 4 e 0.6804(4) 0.2254(3) 0.0667(4) 0.0513(9) 1. 0
Na8 Na1+ 4 e 0.1743(4) 0.0372(3) 0.0558(4) 0.0494(9) 1. 0
Fe1 Fe2+ 4 e 0.4642(1) 0.1977(1) 0.2441(1) 0.0360(3) 1. 0
Fe2 Fe2+ 4 e 0.0111(1) 0.0590(1) 0.2558(1) 0.0359(3) 1. 0
O1 O2- 4 e 0.5420(7) 0.1323(5) 0.4157(5) 0.0400(10) 1. 0
O2 O2- 4 e 0.3786(8) 0.3466(5) 0.2006(6) 0.0450(10) 1. 0
O3 O2- 4 e 0.4345(6) 0.1189(4) 0.0815(5) 0.0370(10) 1. 0
O4 O2- 4 e 0.0780(7) 0.6217(5) 0.4196(5) 0.0410(10) 1. 0
O5 O2- 4 e 0.0282(7) 0.1294(4) 0.4174(5) 0.0390(10) 1. 0
O6 O2- 4 e 0.1222(8) 0.9151(5) 0.2796(6) 0.0480(10) 1. 0
loop_
_atom_site_aniso_label
_atom_site_aniso_type_symbol
_atom_site_aniso_U_11
_atom_site_aniso_U_22
_atom_site_aniso_U_33
_atom_site_aniso_U_12
_atom_site_aniso_U_13
_atom_site_aniso_U_23
Na1 Na1+ 0.0591(19) 0.0461(18) 0.0373(17) -0.0076(14) 0.0206(14) -0.0009(14)
Na2 Na1+ 0.0453(16) 0.0402(17) 0.0407(16) -0.0022(13) 0.0184(13) -0.0011(13)
Na3 Na1+ 0.0404(15) 0.0471(18) 0.0388(16) -0.0014(13) 0.0172(13) -0.0010(13)
Na4 Na1+ 0.0552(19) 0.0472(19) 0.0411(18) -0.0104(14) 0.0214(15) -0.0030(14)
Na5 Na1+ 0.0407(15) 0.0454(18) 0.0494(19) -0.0034(13) 0.0208(14) -0.0078(14)
Na6 Na1+ 0.0456(16) 0.0439(18) 0.0449(18) 0.0022(13) 0.0194(14) 0.0028(13)
Na7 Na1+ 0.0451(17) 0.0570(2) 0.0600(2) 0.0112(15) 0.0283(16) 0.0116(17)
Na8 Na1+ 0.0399(16) 0.0560(2) 0.0590(2) -0.0084(14) 0.0256(15) -0.0145(16)
Fe1 Fe2+ 0.0373(6) 0.0404(6) 0.0334(6) -0.0018(4) 0.0163(4) -0.0008(4)
Fe2 Fe2+ 0.0363(5) 0.0413(6) 0.0330(6) -0.0014(4) 0.0159(4) -0.0001(4)
O1 O2- 0.0440(30) 0.0440(30) 0.0330(30) 0.0010(20) 0.0170(20) -0.0010(20)
O2 O2- 0.0550(30) 0.0410(30) 0.0410(30) 0.0000(20) 0.0210(20) -0.0030(20)
O3 O2- 0.0390(30) 0.0360(30) 0.0390(30) 0.0010(20) 0.0170(20) -0.0030(20)
O4 O2- 0.0450(30) 0.0440(30) 0.0350(30) -0.0050(20) 0.0160(20) -0.0040(20)
O5 O2- 0.0450(30) 0.0380(30) 0.0370(30) 0.0010(20) 0.0180(20) 0.0000(20)
O6 O2- 0.0500(30) 0.0480(30) 0.0500(30) -0.0020(30) 0.0200(30) -0.0080(30)
#End of TTdata_174310-ICSD