
#(C) 2019 by FIZ Karlsruhe - Leibniz Institute for Information Infrastructure.  All rights reserved.
data_180321-ICSD
_database_code_ICSD 180321
_audit_creation_date 2011-08-01
_chemical_name_systematic 'Disodium magnesium disilicon trisilicate'
_chemical_formula_structural '(Na2 Mg) Si2 (Si O4)3'
_chemical_formula_sum 'Mg1 Na2 O12 Si5'
_chemical_name_structure_type ErFe2(FeO4)3
_chemical_name_mineral Unnamed_Garnet
_exptl_crystal_density_diffrn 3.63
_cell_measurement_temperature 298.
_publ_section_title

;
Crystal chemistry of sodium in the Earth's interior: the structure of Na2 Mg
Si5 O12 synthesized at 17.5 GPa and 1700 C
;
loop_
_citation_id
_citation_journal_full
_citation_year
_citation_journal_volume
_citation_page_first
_citation_page_last
_citation_journal_id_ASTM
primary 'American Mineralogist' 2011 96 447 450 AMMIAY
loop_
_publ_author_name
'Bindi, L.'
'Dymshits, A.M.'
'Bobrov, A.V.'
'Litasov, K.D.'
'Shatskiy, A.F.'
'Ohtani, E.'
'Litvin, Y.A.'
_cell_length_a 11.3966(6)
_cell_length_b 11.3966(6)
_cell_length_c 11.3369(5)
_cell_angle_alpha 90.
_cell_angle_beta 90.
_cell_angle_gamma 90.
_cell_volume 1472.46
_cell_formula_units_Z 8
_symmetry_space_group_name_H-M 'I 41/a c d Z'
_symmetry_Int_Tables_number 142
_refine_ls_R_factor_all 0.0402
loop_
_symmetry_equiv_pos_site_id
_symmetry_equiv_pos_as_xyz
1 'y+1/4, x+3/4, -z+3/4'
2 '-y+3/4, x+3/4, -z+1/4'
3 'x, y+1/2, -z'
4 '-x, y+1/2, -z+1/2'
5 '-y+3/4, -x+1/4, z+1/4'
6 'y+1/4, -x+1/4, z+3/4'
7 '-x, -y+1/2, z'
8 'x, -y+1/2, z+1/2'
9 'y+1/4, -x+3/4, -z+1/4'
10 '-y+3/4, -x+3/4, -z+3/4'
11 'x, -y, -z+1/2'
12 '-x, -y, -z'
13 '-y+3/4, x+1/4, z+3/4'
14 'y+1/4, x+1/4, z+1/4'
15 '-x, y, z+1/2'
16 'x, y, z'
17 'y+3/4, x+1/4, -z+1/4'
18 '-y+1/4, x+1/4, -z+3/4'
19 'x+1/2, y, -z+1/2'
20 '-x+1/2, y, -z'
21 '-y+1/4, -x+3/4, z+3/4'
22 'y+3/4, -x+3/4, z+1/4'
23 '-x+1/2, -y, z+1/2'
24 'x+1/2, -y, z'
25 'y+3/4, -x+1/4, -z+3/4'
26 '-y+1/4, -x+1/4, -z+1/4'
27 'x+1/2, -y+1/2, -z'
28 '-x+1/2, -y+1/2, -z+1/2'
29 '-y+1/4, x+3/4, z+1/4'
30 'y+3/4, x+3/4, z+3/4'
31 '-x+1/2, y+1/2, z'
32 'x+1/2, y+1/2, z+1/2'
loop_
_atom_type_symbol
_atom_type_oxidation_number
Na1+ 1
Mg2+ 2
Na1+ 1
Mg2+ 2
Si4+ 4
O2- -2
loop_
_atom_site_label
_atom_site_type_symbol
_atom_site_symmetry_multiplicity
_atom_site_Wyckoff_symbol
_atom_site_fract_x
_atom_site_fract_y
_atom_site_fract_z
_atom_site_B_iso_or_equiv
_atom_site_occupancy
_atom_site_attached_hydrogens
Na1 Na1+ 8 b 0 0.25 0.125 0.020(1) 0.667 0
Mg1 Mg2+ 8 b 0 0.25 0.125 0.020(1) 0.333 0
Na2 Na1+ 16 e 0.1246(3) 0 0.25 0.020(1) 0.667 0
Mg2 Mg2+ 16 e 0.1246(3) 0 0.25 0.020(1) 0.333 0
Si1 Si4+ 16 c 0 0 0 0.0211(5) 1. 0
Si2 Si4+ 8 a 0 0.25 0.375 0.022(1) 1. 0
Si3 Si4+ 16 e 0.3747(3) 0 0.25 0.0228(8) 1. 0
O1 O2- 32 g -0.0348(4) 0.0423(4) 0.1474(4) 0.022(1) 1. 0
O2 O2- 32 g 0.1492(4) -0.0343(4) 0.0433(4) 0.026(1) 1. 0
O3 O2- 32 g 0.0411(4) 0.1470(4) -0.0341(4) 0.023(1) 1. 0
loop_
_atom_site_aniso_label
_atom_site_aniso_type_symbol
_atom_site_aniso_U_11
_atom_site_aniso_U_22
_atom_site_aniso_U_33
_atom_site_aniso_U_12
_atom_site_aniso_U_13
_atom_site_aniso_U_23
Na1 Na1+ 0.023(2) 0.023(2) 0.012(4) -0.001(3) 0. 0.
Mg1 Mg2+ 0.023(2) 0.023(2) 0.012(4) -0.001(3) 0. 0.
Na2 Na1+ 0.013(3) 0.023(2) 0.025(3) 0. 0. 0.004(3)
Mg2 Mg2+ 0.013(3) 0.023(2) 0.025(3) 0. 0. 0.004(3)
Si1 Si4+ 0.021(1) 0.022(1) 0.020(1) -0.001(2) 0.001(2) -0.001(2)
Si2 Si4+ 0.021(1) 0.021(1) 0.023(3) 0. 0. 0.
Si3 Si4+ 0.024(2) 0.025(2) 0.019(2) 0. 0. 0.003(2)
O1 O2- 0.024(3) 0.019(3) 0.022(3) -0.004(2) 0.005(2) 0.004(2)
O2 O2- 0.028(3) 0.020(3) 0.029(3) 0.001(2) -0.008(3) -0.005(2)
O3 O2- 0.016(3) 0.027(3) 0.026(3) -0.001(2) -0.004(2) 0.002(2)
#End of TTdata_180321-ICSD