
#(C) 2019 by FIZ Karlsruhe - Leibniz Institute for Information Infrastructure.  All rights reserved.
data_180328-ICSD
_database_code_ICSD 180328
_audit_creation_date 2011-08-01
_chemical_name_systematic 'Sodium aluminotrisilicate'
_chemical_formula_structural 'Na ((Al Si3) O8)'
_chemical_formula_sum 'Al1 Na1 O8 Si3'
_chemical_name_structure_type Feldspar#-(TC)-Albite-NaAlSi3O8
_chemical_name_mineral Analbite
_exptl_crystal_density_diffrn 2.67
_cell_measurement_pressure 1200000.
_publ_section_title
'High-pressure structural evolution and equation of state of analbite'
loop_
_citation_id
_citation_journal_full
_citation_year
_citation_journal_volume
_citation_page_first
_citation_page_last
_citation_journal_id_ASTM
primary 'American Mineralogist' 2011 96 383 392 AMMIAY
loop_
_publ_author_name
'Curetti, N.'
'Sochalsky-Kolbus, L.M.'
'Angel, R.J.'
'Benna, P.'
'Nestola, F.'
'Bruno, E.'
_cell_length_a 8.0813(17)
_cell_length_b 12.8061(8)
_cell_length_c 7.073(2)
_cell_angle_alpha 93.549(17)
_cell_angle_beta 116.55(3)
_cell_angle_gamma 90.337(12)
_cell_volume 653.08
_cell_formula_units_Z 4
_symmetry_space_group_name_H-M 'C -1'
_symmetry_Int_Tables_number 2
_refine_ls_R_factor_all 0.0762
loop_
_symmetry_equiv_pos_site_id
_symmetry_equiv_pos_as_xyz
1 '-x, -y, -z'
2 'x, y, z'
3 '-x+1/2, -y+1/2, -z'
4 'x+1/2, y+1/2, z'
loop_
_atom_type_symbol
_atom_type_oxidation_number
Na1+ 1
Al3+ 3
Si4+ 4
Al3+ 3
Si4+ 4
Al3+ 3
Si4+ 4
Al3+ 3
Si4+ 4
O2- -2
loop_
_atom_site_label
_atom_site_type_symbol
_atom_site_symmetry_multiplicity
_atom_site_Wyckoff_symbol
_atom_site_fract_x
_atom_site_fract_y
_atom_site_fract_z
_atom_site_B_iso_or_equiv
_atom_site_occupancy
_atom_site_attached_hydrogens
Na1 Na1+ 4 i 0.2695(14) 0.0086(8) 0.126(4) 0.082(14) 1. 0
Al1 Al3+ 4 i 0.0084(5) 0.1635(2) 0.2146(12) 0.015(1) 0.25 0
Si1 Si4+ 4 i 0.0084(5) 0.1635(2) 0.2146(12) 0.015(1) 0.75 0
Al2 Al3+ 4 i 0.0044(5) 0.8145(2) 0.2311(13) 0.015(1) 0.25 0
Si2 Si4+ 4 i 0.0044(5) 0.8145(2) 0.2311(13) 0.015(1) 0.75 0
Al3 Al3+ 4 i 0.6884(5) 0.1071(2) 0.3199(12) 0.014(1) 0.25 0
Si3 Si4+ 4 i 0.6884(5) 0.1071(2) 0.3199(12) 0.014(1) 0.75 0
Al4 Al3+ 4 i 0.6796(6) 0.8773(2) 0.3498(13) 0.015(1) 0.25 0
Si4 Si4+ 4 i 0.6796(6) 0.8773(2) 0.3498(13) 0.015(1) 0.75 0
O1 O2- 4 i 0.0032(13) 0.1336(5) 0.981(2) 0.023(2) 1. 0
O2 O2- 4 i 0.5864(14) 0.9909(5) 0.282(3) 0.020(2) 1. 0
O3 O2- 4 i 0.8231(16) 0.1037(5) 0.204(3) 0.023(2) 1. 0
O4 O2- 4 i 0.8087(15) 0.8467(5) 0.227(3) 0.021(2) 1. 0
O5 O2- 4 i 0.0133(14) 0.2884(5) 0.285(3) 0.017(1) 1. 0
O6 O2- 4 i 0.0179(15) 0.6867(5) 0.214(4) 0.024(2) 1. 0
O7 O2- 4 i 0.1990(13) 0.1120(6) 0.387(2) 0.027(2) 1. 0
O8 O2- 4 i 0.1864(13) 0.8670(6) 0.420(2) 0.026(2) 1. 0
#End of TTdata_180328-ICSD