
#(C) 2019 by FIZ Karlsruhe - Leibniz Institute for Information Infrastructure.  All rights reserved.
data_180313-ICSD
_database_code_ICSD 180313
_audit_creation_date 2011-08-01
_chemical_name_systematic 'Sodium iron disilicate'
_chemical_formula_structural 'Na Fe (Si2 O6)'
_chemical_formula_sum 'Fe1 Na1 O6 Si2'
_chemical_name_structure_type Pyroxene-CaMg(SiO3)2
_chemical_name_mineral Aegirine
_exptl_crystal_density_diffrn 3.58
_cell_measurement_temperature 190.
_publ_section_title

;
Nuclear and incommensurate magnetic structure of Na Fe Ge2 O6 between 5 K and
298 K and new data on multiferroic Na Fe Si2 O6
;
loop_
_citation_id
_citation_journal_full
_citation_year
_citation_journal_volume
_citation_page_first
_citation_page_last
_citation_journal_id_ASTM
primary 'Physics and Chemistry of Minerals' 2011 38 139 157 PCMIDU
loop_
_publ_author_name
'Redhammer, G.J.'
'Senyshyn, A.'
'Meven, M.'
'Roth, G.'
'Prinz, S.'
'Pachler, A.'
'Tippelt, G.'
'Pietzonka, C.'
'Treutmann, W.'
'Hoelzel, M.'
'Pedersen, B.'
'Amthauer, G.'
_cell_length_a 9.6501(7)
_cell_length_b 8.8003(4)
_cell_length_c 5.2818(2)
_cell_angle_alpha 90.
_cell_angle_beta 107.313(4)
_cell_angle_gamma 90.
_cell_volume 428.23
_cell_formula_units_Z 4
_symmetry_space_group_name_H-M 'C 1 2/c 1'
_symmetry_Int_Tables_number 15
_refine_ls_R_factor_all 0.0182
loop_
_symmetry_equiv_pos_site_id
_symmetry_equiv_pos_as_xyz
1 'x, -y, z+1/2'
2 '-x, -y, -z'
3 '-x, y, -z+1/2'
4 'x, y, z'
5 'x+1/2, -y+1/2, z+1/2'
6 '-x+1/2, -y+1/2, -z'
7 '-x+1/2, y+1/2, -z+1/2'
8 'x+1/2, y+1/2, z'
loop_
_atom_type_symbol
_atom_type_oxidation_number
Na1+ 1
Fe3+ 3
Si4+ 4
O2- -2
loop_
_atom_site_label
_atom_site_type_symbol
_atom_site_symmetry_multiplicity
_atom_site_Wyckoff_symbol
_atom_site_fract_x
_atom_site_fract_y
_atom_site_fract_z
_atom_site_B_iso_or_equiv
_atom_site_occupancy
_atom_site_attached_hydrogens
Na1 Na1+ 4 e 0 0.2998(1) 0.25 0.0107(4) 1. 0
Fe1 Fe3+ 4 e 0 0.89930(3) 0.25 0.0048(2) 1. 0
Si1 Si4+ 8 f 0.29066(5) 0.08982(5) 0.23495(9) 0.0059(2) 1. 0
O1 O2- 8 f 0.1139(2) 0.0785(1) 0.1377(2) 0.0081(3) 1. 0
O2 O2- 8 f 0.3585(1) 0.2565(1) 0.3007(2) 0.0095(3) 1. 0
O3 O2- 8 f 0.3523(1) 0.0077(1) 0.0120(2) 0.0091(3) 1. 0
loop_
_atom_site_aniso_label
_atom_site_aniso_type_symbol
_atom_site_aniso_U_11
_atom_site_aniso_U_22
_atom_site_aniso_U_33
_atom_site_aniso_U_12
_atom_site_aniso_U_13
_atom_site_aniso_U_23
Na1 Na1+ 0.0132(6) 0.0077(5) 0.0089(5) 0. -0.000(4) 0.
Fe1 Fe3+ 0.0051(2) 0.0048(2) 0.0045(2) 0. 0.0014(1) 0.
Si1 Si4+ 0.0057(3) 0.0060(3) 0.0060(3) -0.0002(2) 0.0019(2) -0.0003(1)
O1 O2- 0.0080(6) 0.0091(6) 0.0073(6) -0.0001(4) 0.0026(4) 0.0004(4)
O2 O2- 0.0098(6) 0.0089(6) 0.0099(6) -0.0009(4) 0.0033(4) 0.0002(4)
O3 O2- 0.0093(6) 0.0093(6) 0.0090(6) 0.0011(4) 0.0029(5) -0.0010(4)
#End of TTdata_180313-ICSD