
#(C) 2019 by FIZ Karlsruhe - Leibniz Institute for Information Infrastructure.  All rights reserved.
data_180331-ICSD
_database_code_ICSD 180331
_audit_creation_date 2011-08-01
_chemical_name_systematic 'Sodium aluminotrisilicate'
_chemical_formula_structural 'Na ((Al Si3) O8)'
_chemical_formula_sum 'Al1 Na1 O8 Si3'
_chemical_name_structure_type Feldspar#-(TC)-Albite-NaAlSi3O8
_chemical_name_mineral Analbite
_exptl_crystal_density_diffrn 2.91
_cell_measurement_pressure 7200000.
_publ_section_title
'High-pressure structural evolution and equation of state of analbite'
loop_
_citation_id
_citation_journal_full
_citation_year
_citation_journal_volume
_citation_page_first
_citation_page_last
_citation_journal_id_ASTM
primary 'American Mineralogist' 2011 96 383 392 AMMIAY
loop_
_publ_author_name
'Curetti, N.'
'Sochalsky-Kolbus, L.M.'
'Angel, R.J.'
'Benna, P.'
'Nestola, F.'
'Bruno, E.'
_cell_length_a 7.7267(16)
_cell_length_b 12.565(6)
_cell_length_c 6.9109(19)
_cell_angle_alpha 93.52(4)
_cell_angle_beta 116.46(2)
_cell_angle_gamma 90.89(3)
_cell_volume 598.84
_cell_formula_units_Z 4
_symmetry_space_group_name_H-M 'C -1'
_symmetry_Int_Tables_number 2
_refine_ls_R_factor_all 0.0725
loop_
_symmetry_equiv_pos_site_id
_symmetry_equiv_pos_as_xyz
1 '-x, -y, -z'
2 'x, y, z'
3 '-x+1/2, -y+1/2, -z'
4 'x+1/2, y+1/2, z'
loop_
_atom_type_symbol
_atom_type_oxidation_number
Na1+ 1
Al3+ 3
Si4+ 4
Al3+ 3
Si4+ 4
Al3+ 3
Si4+ 4
Al3+ 3
Si4+ 4
O2- -2
loop_
_atom_site_label
_atom_site_type_symbol
_atom_site_symmetry_multiplicity
_atom_site_Wyckoff_symbol
_atom_site_fract_x
_atom_site_fract_y
_atom_site_fract_z
_atom_site_B_iso_or_equiv
_atom_site_occupancy
_atom_site_attached_hydrogens
Na1 Na1+ 4 i 0.2581(11) 0.006(2) 0.1313(15) 0.104(18) 1. 0
Al1 Al3+ 4 i 0.0047(5) 0.1586(9) 0.2128(6) 0.017(1) 0.25 0
Si1 Si4+ 4 i 0.0047(5) 0.1586(9) 0.2128(6) 0.017(1) 0.75 0
Al2 Al3+ 4 i -0.0008(5) 0.8134(9) 0.2285(6) 0.016(1) 0.25 0
Si2 Si4+ 4 i -0.0008(5) 0.8134(9) 0.2285(6) 0.016(1) 0.75 0
Al3 Al3+ 4 i 0.6807(6) 0.1018(9) 0.3136(6) 0.019(1) 0.25 0
Si3 Si4+ 4 i 0.6807(6) 0.1018(9) 0.3136(6) 0.019(1) 0.75 0
Al4 Al3+ 4 i 0.6604(5) 0.8731(8) 0.3513(6) 0.018(1) 0.25 0
Si4 Si4+ 4 i 0.6604(5) 0.8731(8) 0.3513(6) 0.018(1) 0.75 0
O1 O2- 4 i 0.0046(14) 0.129(2) 0.9777(15) 0.024(2) 1. 0
O2 O2- 4 i 0.5628(13) 0.9851(13) 0.2742(15) 0.024(2) 1. 0
O3 O2- 4 i 0.8181(14) 0.083(2) 0.1920(16) 0.036(3) 1. 0
O4 O2- 4 i 0.8020(15) 0.841(3) 0.2417(16) 0.030(2) 1. 0
O5 O2- 4 i -0.0171(12) 0.2845(14) 0.2734(13) 0.024(2) 1. 0
O6 O2- 4 i 0.0143(14) 0.6851(14) 0.2031(5) 0.028(2) 1. 0
O7 O2- 4 i 0.2102(15) 0.114(2) 0.3865(15) 0.031(2) 1. 0
O8 O2- 4 i 0.1879(13) 0.871(2) 0.4321(14) 0.032(2) 1. 0
#End of TTdata_180331-ICSD