
#(C) 2019 by FIZ Karlsruhe - Leibniz Institute for Information Infrastructure.  All rights reserved.
data_180735-ICSD
_database_code_ICSD 180735
_audit_creation_date 2011-08-01
_audit_update_record 2015-02-01
_chemical_name_systematic
'Sodium manganese oxide dideuteriumoxid hydrate (0.60/2/4/1/0.5)'
_chemical_formula_structural 'Na0.60 (Mn2 O4) (D2 O) (H2 O)0.5'
_chemical_formula_sum 'H1 D2 Mn2 Na0.6 O5.5'
_chemical_name_structure_type NaxMn2O4(H2O)1.5
_chemical_name_mineral 'Birnessite, sodian'
_exptl_crystal_density_diffrn 3.41
_cell_measurement_temperature 298.
_publ_section_title
'Neutron diffraction study of hydrogen in birnessite structures'
loop_
_citation_id
_citation_journal_full
_citation_year
_citation_journal_volume
_citation_page_first
_citation_page_last
_citation_journal_id_ASTM
primary 'American Mineralogist' 2011 96 534 540 AMMIAY
loop_
_publ_author_name
'Post, J.E.'
'Heaney, P.J.'
'Cho, Yun Chul'
_cell_length_a 5.176(1)
_cell_length_b 2.8483(2)
_cell_length_c 7.347(1)
_cell_angle_alpha 89.57(3)
_cell_angle_beta 103.20(2)
_cell_angle_gamma 89.87(2)
_cell_volume 105.45
_cell_formula_units_Z 1
_symmetry_space_group_name_H-M 'C -1'
_symmetry_Int_Tables_number 2
_refine_ls_R_factor_all 0.057
loop_
_symmetry_equiv_pos_site_id
_symmetry_equiv_pos_as_xyz
1 '-x, -y, -z'
2 'x, y, z'
3 '-x+1/2, -y+1/2, -z'
4 'x+1/2, y+1/2, z'
loop_
_atom_type_symbol
_atom_type_oxidation_number
Mn3+ 3.7
O2- -2
Na1+ 1
D1+ 1
H1+ 1
loop_
_atom_site_label
_atom_site_type_symbol
_atom_site_symmetry_multiplicity
_atom_site_Wyckoff_symbol
_atom_site_fract_x
_atom_site_fract_y
_atom_site_fract_z
_atom_site_B_iso_or_equiv
_atom_site_occupancy
_atom_site_attached_hydrogens
Mn1 Mn3+ 2 a 0 0 0 0.008(2) 1. 0
O1 O2- 4 i 0.392(1) 0.005(3) 0.138(1) 0.008(1) 1. 0
O2 O2- 4 i 0.546(7) 0.205(4) 0.498(8) 0.11(1) 0.375 0
Na1 Na1+ 4 i 0.546(7) 0.205(4) 0.498(8) 0.11(1) 0.15 0
D1 D1+ 4 i 0.569(6) -0.02(2) 0.602(1) 0.16(1) 0.5 0
H1 H1+ 4 i 0.569(6) -0.02(2) 0.602(1) 0.16(1) 0.25 0
#End of TTdata_180735-ICSD