
#(C) 2019 by FIZ Karlsruhe - Leibniz Institute for Information Infrastructure.  All rights reserved.
data_181980-ICSD
_database_code_ICSD 181980
_audit_creation_date 2012-02-01
_audit_update_record 2013-02-01
_chemical_name_systematic 'Disodium dinickel hexaoxotellurate'
_chemical_formula_structural 'Na1.97 Ni2 (Te O6)'
_chemical_formula_sum 'Na1.97 Ni2 O6 Te1'
_exptl_crystal_density_diffrn 4.9
_cell_measurement_temperature 293.
_publ_section_title
'A new family of fast sodium ion conductors: Na2 M2 Te O6 (M = Ni, Co, Zn, Mg)'
loop_
_citation_id
_citation_journal_full
_citation_year
_citation_journal_volume
_citation_page_first
_citation_page_last
_citation_journal_id_ASTM
primary 'Chemistry of Materials' 2011 23 1174 1181 CMATEX
loop_
_publ_author_name
'Evstigneeva, M.A.'
'Nalbandyan, V.B.'
'Petrenko, A.A.'
'Medvedev, B.S.'
'Kataev, A.A.'
_cell_length_a 5.2074(1)
_cell_length_b 5.2074(1)
_cell_length_c 11.1558(4)
_cell_angle_alpha 90.
_cell_angle_beta 90.
_cell_angle_gamma 120.
_cell_volume 261.98
_cell_formula_units_Z 2
_symmetry_space_group_name_H-M 'P 63/m c m'
_symmetry_Int_Tables_number 193
_refine_ls_R_factor_all 0.0525
loop_
_symmetry_equiv_pos_site_id
_symmetry_equiv_pos_as_xyz
1 '-x, -x+y, -z+1/2'
2 'x-y, -y, -z+1/2'
3 'y, x, -z+1/2'
4 '-x+y, -x, -z+1/2'
5 '-y, x-y, -z+1/2'
6 'x, y, -z+1/2'
7 'x, x-y, z+1/2'
8 '-x+y, y, z+1/2'
9 '-y, -x, z+1/2'
10 'x-y, x, z+1/2'
11 'y, -x+y, z+1/2'
12 '-x, -y, z+1/2'
13 'x, x-y, -z'
14 '-x+y, y, -z'
15 '-y, -x, -z'
16 'x-y, x, -z'
17 'y, -x+y, -z'
18 '-x, -y, -z'
19 '-x, -x+y, z'
20 'x-y, -y, z'
21 'y, x, z'
22 '-x+y, -x, z'
23 '-y, x-y, z'
24 'x, y, z'
loop_
_atom_type_symbol
_atom_type_oxidation_number
Te6+ 6
Ni2+ 2
O2- -2
Na1+ 1
loop_
_atom_site_label
_atom_site_type_symbol
_atom_site_symmetry_multiplicity
_atom_site_Wyckoff_symbol
_atom_site_fract_x
_atom_site_fract_y
_atom_site_fract_z
_atom_site_B_iso_or_equiv
_atom_site_occupancy
_atom_site_attached_hydrogens
Te1 Te6+ 2 b 0. 0. 0. 0.00274(9) 1. 0
Ni1 Ni2+ 4 d 0.6667 0.3333 0. 0.00100(5) 1. 0
O1 O2- 12 k 0.6729(5) 0.6729(5) 0.5927(4) 0.0010(2) 1. 0
Na1 Na1+ 6 g 0.3495(7) 0. 0.25 0.01684(9) 0.438(4) 0
Na2 Na1+ 4 c 0.3333 0.6667 0.25 0.00151(3) 0.207(2) 0
Na3 Na1+ 2 a 0. 0. 0.25 0.07088(9) 0.245(2) 0
#End of TTdata_181980-ICSD