
#(C) 2019 by FIZ Karlsruhe - Leibniz Institute for Information Infrastructure.  All rights reserved.
data_182078-ICSD
_database_code_ICSD 182078
_audit_creation_date 2012-02-01
_chemical_name_systematic 'Cerium calcium sodium fluoride (1.1/0.9/0.9/6)'
_chemical_formula_structural '(Ce1.1 Ca0.9) Na0.9 F6'
_chemical_formula_sum 'Ca0.9 Ce1.1 F6 Na0.9'
_chemical_name_structure_type Na1-xCa1-xY1+xF6
_chemical_name_mineral Gagarinite-(Ce)
_exptl_crystal_density_diffrn 4.57
_publ_section_title 'The single-crystal X-ray structure of gagarinite-(Ce)'
loop_
_citation_id
_citation_journal_full
_citation_year
_citation_journal_volume
_citation_page_first
_citation_page_last
_citation_journal_id_ASTM
primary 'Canadian Mineralogist' 2011 49 1111 1114 CAMIA6
loop_
_publ_author_name
'Sciberras, M.J.'
'Leverett, P.'
'Williams, P.A.'
'Hibbs, D.E.'
'Roberts, A.C.'
'Grice, J.D.'
_cell_length_a 6.0861(12)
_cell_length_b 6.0861(12)
_cell_length_c 3.6810(8)
_cell_angle_alpha 90.
_cell_angle_beta 90.
_cell_angle_gamma 120.
_cell_volume 118.08
_cell_formula_units_Z 1
_symmetry_space_group_name_H-M 'P 63/m'
_symmetry_Int_Tables_number 176
_refine_ls_R_factor_all 0.031
loop_
_symmetry_equiv_pos_site_id
_symmetry_equiv_pos_as_xyz
1 '-x+y, -x, -z+1/2'
2 '-y, x-y, -z+1/2'
3 'x, y, -z+1/2'
4 'x-y, x, -z'
5 'y, -x+y, -z'
6 '-x, -y, -z'
7 'x-y, x, z+1/2'
8 'y, -x+y, z+1/2'
9 '-x, -y, z+1/2'
10 '-x+y, -x, z'
11 '-y, x-y, z'
12 'x, y, z'
loop_
_atom_type_symbol
_atom_type_oxidation_number
Ce3+ 3
Ca2+ 2
Na1+ 1
F1- -1
loop_
_atom_site_label
_atom_site_type_symbol
_atom_site_symmetry_multiplicity
_atom_site_Wyckoff_symbol
_atom_site_fract_x
_atom_site_fract_y
_atom_site_fract_z
_atom_site_B_iso_or_equiv
_atom_site_occupancy
_atom_site_attached_hydrogens
Ce1 Ce3+ 2 d 0.6667 0.3333 0.25 0.006(1) 0.55 0
Ca1 Ca2+ 2 d 0.6667 0.3333 0.25 0.006(1) 0.45 0
Na1 Na1+ 2 b 0 0 0 0.012(4) 0.45 0
F1 F1- 6 h 0.3046(12) 0.3890(12) 0.25 0.008(1) 1. 0
loop_
_atom_site_aniso_label
_atom_site_aniso_type_symbol
_atom_site_aniso_U_11
_atom_site_aniso_U_22
_atom_site_aniso_U_33
_atom_site_aniso_U_12
_atom_site_aniso_U_13
_atom_site_aniso_U_23
Ce1 Ce3+ 0.007(1) 0.007(1) 0.003(1) 0.0035(5) 0. 0.
Ca1 Ca2+ 0.007(1) 0.007(1) 0.003(1) 0.0035(5) 0. 0.
Na1 Na1+ 0.002(4) 0.002(4) 0.033(11) 0.001(2) 0. 0.
F1 F1- 0.008(3) 0.008(3) 0.008(3) 0.0040(15) 0. 0.
#End of TTdata_182078-ICSD