
#(C) 2019 by FIZ Karlsruhe - Leibniz Institute for Information Infrastructure.  All rights reserved.
data_182031-ICSD
_database_code_ICSD 182031
_audit_creation_date 2012-02-01
_chemical_name_systematic 'Disodium dicadmium iron triphosphate'
_chemical_formula_structural 'Na2 Cd2 Fe (P O4)3'
_chemical_formula_sum 'Cd2 Fe1 Na2 O12 P3'
_chemical_name_structure_type Alluaudite
_exptl_crystal_density_diffrn 4.33
_cell_measurement_temperature 298.
_publ_section_title

;
Structural study by X-ray diffraction, magnetic susceptibility and Moessbauer
spectroscopy of the Na2 Mn2-2x Cd2x Fe (P O4)3 (0 <= x <= 1) solid solution
;
loop_
_citation_id
_citation_journal_full
_citation_year
_citation_journal_volume
_citation_page_first
_citation_page_last
_citation_journal_id_ASTM
primary 'Comptes Rendus Chimie' 2011 14 904 910 CRCOCR
loop_
_publ_author_name
'Hidouri, M.'
'Wattiaux, A.'
'Fournes, L.'
'Darriet, J.'
'Amara, M.B.'
_cell_length_a 12.297(4)
_cell_length_b 12.799(4)
_cell_length_c 6.562(2)
_cell_angle_alpha 90.
_cell_angle_beta 114.85(2)
_cell_angle_gamma 90.
_cell_volume 937.16
_cell_formula_units_Z 4
_symmetry_space_group_name_H-M 'C 1 2/c 1'
_symmetry_Int_Tables_number 15
_refine_ls_R_factor_all 0.1
loop_
_symmetry_equiv_pos_site_id
_symmetry_equiv_pos_as_xyz
1 'x, -y, z+1/2'
2 '-x, -y, -z'
3 '-x, y, -z+1/2'
4 'x, y, z'
5 'x+1/2, -y+1/2, z+1/2'
6 '-x+1/2, -y+1/2, -z'
7 '-x+1/2, y+1/2, -z+1/2'
8 'x+1/2, y+1/2, z'
loop_
_atom_type_symbol
_atom_type_oxidation_number
Na1+ 1
Cd2+ 2
Na1+ 1
Fe3+ 3
Cd2+ 2
P5+ 5
O2- -2
loop_
_atom_site_label
_atom_site_type_symbol
_atom_site_symmetry_multiplicity
_atom_site_Wyckoff_symbol
_atom_site_fract_x
_atom_site_fract_y
_atom_site_fract_z
_atom_site_B_iso_or_equiv
_atom_site_occupancy
_atom_site_attached_hydrogens
Na1 Na1+ 4 e 0 0.023(2) 0.75 1. 1. 0
Na2 Na1+ 4 b 0.5 0 0 1. 0.8 0
Cd1 Cd2+ 4 b 0.5 0 0 1. 0.2 0
Cd2 Cd2+ 4 e 0 0.270(1) 0.25 0.4(1) 0.8 0
Na3 Na1+ 4 e 0 0.270(1) 0.25 0.4(1) 0.2 0
Fe1 Fe3+ 8 f 0.226(1) 0.152(1) 0.147(1) 0.5(1) 0.5 0
Cd3 Cd2+ 8 f 0.226(1) 0.152(1) 0.147(1) 0.5(1) 0.5 0
P1 P5+ 4 e 0 0.282(1) 0.75 0.5(2) 1. 0
P2 P5+ 8 f 0.236(1) -0.104(1) 0.134(1) 0.5(2) 1. 0
O1 O2- 8 f 0.046(1) 0.206(1) 0.958(2) 0.7(2) 1. 0
O2 O2- 8 f 0.093(1) 0.359(1) 0.734(2) 0.7(2) 1. 0
O3 O2- 8 f 0.366(1) -0.085(1) 0.174(2) 0.7(2) 1. 0
O4 O2- 8 f 0.172(1) -0.001(1) 0.119(2) 0.7(2) 1. 0
O5 O2- 8 f 0.165(1) -0.158(1) 0.906(2) 0.7(2) 1. 0
O6 O2- 8 f 0.228(1) -0.168(1) 0.316(2) 0.7(2) 1. 0
#End of TTdata_182031-ICSD