
#(C) 2019 by FIZ Karlsruhe - Leibniz Institute for Information Infrastructure.  All rights reserved.
data_182235-ICSD
_database_code_ICSD 182235
_audit_creation_date 2012-02-01
_chemical_name_systematic 'Sodium chromate(III)'
_chemical_formula_structural 'Na (Cr O2)'
_chemical_formula_sum 'Cr1 Na1 O2'
_chemical_name_structure_type Delafossite-NaFeO2
_exptl_crystal_density_diffrn 4.36
_publ_section_title
'Ueber den alpha-Na Fe O2-Typ: Zur Kenntnis von Na Cr O2 und K Cr O2'
loop_
_citation_id
_citation_journal_full
_citation_year
_citation_journal_volume
_citation_page_first
_citation_page_last
_citation_journal_id_ASTM
primary 'Zeitschrift fuer Anorganische und Allgemeine Chemie (1950) (DE)' 1989
568 151 156 ZAACAB
loop_
_publ_author_name
'Scheld, W.'
'Hoppe, R.'
_cell_length_a 2.9747(1)
_cell_length_b 2.9747(1)
_cell_length_c 15.9538(3)
_cell_angle_alpha 90.
_cell_angle_beta 90.
_cell_angle_gamma 120.
_cell_volume 122.26
_cell_formula_units_Z 3
_symmetry_space_group_name_H-M 'R -3 m HR'
_symmetry_Int_Tables_number 166
_refine_ls_R_factor_all 0.02
loop_
_symmetry_equiv_pos_site_id
_symmetry_equiv_pos_as_xyz
1 'x-y, -y, -z'
2 '-x, -x+y, -z'
3 'y, x, -z'
4 'x-y, x, -z'
5 'y, -x+y, -z'
6 '-x, -y, -z'
7 '-x+y, y, z'
8 'x, x-y, z'
9 '-y, -x, z'
10 '-x+y, -x, z'
11 '-y, x-y, z'
12 'x, y, z'
13 'x-y+1/3, -y+2/3, -z+1/3'
14 '-x+1/3, -x+y+2/3, -z+1/3'
15 'y+1/3, x+2/3, -z+1/3'
16 'x-y+1/3, x+2/3, -z+1/3'
17 'y+1/3, -x+y+2/3, -z+1/3'
18 '-x+1/3, -y+2/3, -z+1/3'
19 '-x+y+1/3, y+2/3, z+1/3'
20 'x+1/3, x-y+2/3, z+1/3'
21 '-y+1/3, -x+2/3, z+1/3'
22 '-x+y+1/3, -x+2/3, z+1/3'
23 '-y+1/3, x-y+2/3, z+1/3'
24 'x+1/3, y+2/3, z+1/3'
25 'x-y+2/3, -y+1/3, -z+2/3'
26 '-x+2/3, -x+y+1/3, -z+2/3'
27 'y+2/3, x+1/3, -z+2/3'
28 'x-y+2/3, x+1/3, -z+2/3'
29 'y+2/3, -x+y+1/3, -z+2/3'
30 '-x+2/3, -y+1/3, -z+2/3'
31 '-x+y+2/3, y+1/3, z+2/3'
32 'x+2/3, x-y+1/3, z+2/3'
33 '-y+2/3, -x+1/3, z+2/3'
34 '-x+y+2/3, -x+1/3, z+2/3'
35 '-y+2/3, x-y+1/3, z+2/3'
36 'x+2/3, y+1/3, z+2/3'
loop_
_atom_type_symbol
_atom_type_oxidation_number
Na1+ 1
Cr3+ 3
O2- -2
loop_
_atom_site_label
_atom_site_type_symbol
_atom_site_symmetry_multiplicity
_atom_site_Wyckoff_symbol
_atom_site_fract_x
_atom_site_fract_y
_atom_site_fract_z
_atom_site_B_iso_or_equiv
_atom_site_occupancy
_atom_site_attached_hydrogens
Na1 Na1+ 3 a 0 0 0 . 1. 0
Cr1 Cr3+ 3 b 0 0 0.5 . 1. 0
O1 O2- 6 c 0 0 0.2325 . 1. 0
loop_
_atom_site_aniso_label
_atom_site_aniso_type_symbol
_atom_site_aniso_U_11
_atom_site_aniso_U_22
_atom_site_aniso_U_33
_atom_site_aniso_U_12
_atom_site_aniso_U_13
_atom_site_aniso_U_23
Na1 Na1+ 0.0104(5) 0.0104(5) 0.0068(9) 0.0052(2) 0. 0.
Cr1 Cr3+ 0.0043(2) 0.0043(2) 0.0049(3) 0.0022(1) 0. 0.
O1 O2- 0.0070(5) 0.0070(5) 0.0056(10) 0.0035(3) 0. 0.
#End of TTdata_182235-ICSD