
#(C) 2019 by FIZ Karlsruhe - Leibniz Institute for Information Infrastructure.  All rights reserved.
data_182502-ICSD
_database_code_ICSD 182502
_audit_creation_date 2012-02-01
_chemical_name_systematic 'Sodium potassium lead phosphate (0.3/0.7/4/3)'
_chemical_formula_structural '(Na0.3 K0.7) Pb4 (P O4)3'
_chemical_formula_sum 'K0.7 Na0.3 O12 P3 Pb4'
_chemical_name_structure_type Er3Pb1.5(SiO4)3
_exptl_crystal_density_diffrn 6.3
_publ_section_title

;
Rietveld refinements and vibrational spectroscopic studies of Na1-x Kx Pb4 (P
O4)3 lacunar apatites
;
loop_
_citation_id
_citation_journal_full
_citation_year
_citation_journal_volume
_citation_page_first
_citation_page_last
_citation_journal_id_ASTM
primary 'Journal of Physics and Chemistry of Solids' 2011 72 1109 1205 JPCSAW
loop_
_publ_author_name
'Azrour, M.'
'Azdouz, M.'
'Manoun, B.'
'Essehli, R.'
'Benmokhtar, S.'
'Bih, L.'
'El Ammari, L.'
'Ezzahi, A.'
'Ider, A.'
'Ait Hou, A.'
_cell_length_a 9.8040(2)
_cell_length_b 9.8040(2)
_cell_length_c 7.2748(1)
_cell_angle_alpha 90.
_cell_angle_beta 90.
_cell_angle_gamma 120.
_cell_volume 605.56
_cell_formula_units_Z 2
_symmetry_space_group_name_H-M 'P 63/m'
_symmetry_Int_Tables_number 176
_refine_ls_R_factor_all 0.0456
loop_
_symmetry_equiv_pos_site_id
_symmetry_equiv_pos_as_xyz
1 '-x+y, -x, -z+1/2'
2 '-y, x-y, -z+1/2'
3 'x, y, -z+1/2'
4 'x-y, x, -z'
5 'y, -x+y, -z'
6 '-x, -y, -z'
7 'x-y, x, z+1/2'
8 'y, -x+y, z+1/2'
9 '-x, -y, z+1/2'
10 '-x+y, -x, z'
11 '-y, x-y, z'
12 'x, y, z'
loop_
_atom_type_symbol
_atom_type_oxidation_number
Pb2+ 2
Na1+ 1
K1+ 1
P5+ 5
O2- -2
loop_
_atom_site_label
_atom_site_type_symbol
_atom_site_symmetry_multiplicity
_atom_site_Wyckoff_symbol
_atom_site_fract_x
_atom_site_fract_y
_atom_site_fract_z
_atom_site_B_iso_or_equiv
_atom_site_occupancy
_atom_site_attached_hydrogens
Pb1 Pb2+ 6 h 0.2565(4) 0.2575(3) 0.25 1.17(4) 1. 0
Pb2 Pb2+ 4 f 0.6667 0.3333 0.5047(4) 1.17(4) 0.5 0
Na1 Na1+ 4 f 0.6667 0.3333 0.5047(4) 1.17(4) 0.15 0
K1 K1+ 4 f 0.6667 0.3333 0.5047(4) 1.17(4) 0.35 0
P1 P5+ 6 h 0.3787(3) 0.3985(4) 0.75 0.88(3) 1. 0
O1 O2- 6 h 0.4845(5) 0.3220(6) 0.75 1.39(5) 1. 0
O2 O2- 12 i 0.2683(5) 0.3482(5) 0.5800(4) 1.39(5) 1. 0
O3 O2- 6 h 0.4814(4) 0.5836(6) 0.75 1.39(5) 1. 0
#End of TTdata_182502-ICSD