
#(C) 2019 by FIZ Karlsruhe - Leibniz Institute for Information Infrastructure.  All rights reserved.
data_182617-ICSD
_database_code_ICSD 182617
_audit_creation_date 2012-02-01
_audit_update_record 2013-08-01
_chemical_name_systematic 'Sodium manganese oxide (0.44/1/2)'
_chemical_formula_structural 'Na0.39 (Mn O2)'
_chemical_formula_sum 'Mn1 Na0.39 O2'
_exptl_crystal_density_diffrn 4.22
_cell_measurement_temperature 293.
_publ_section_title
'Single crystal synthesis and structure refinement of Na0.44 Mn O2'
loop_
_citation_id
_citation_journal_full
_citation_year
_citation_journal_volume
_citation_page_first
_citation_page_last
_citation_journal_id_ASTM
primary
'Diffusion and Defect Data--Solid State Data, Pt. B: Solid State Phenomena' 2011 170 198 202 DDBPE8
loop_
_publ_author_name
'Akimoto, J.'
'Hayakawa, H.'
'Kijima, N.'
'Awaka, J.'
'Funabiki, F.'
_cell_length_a 9.1025(8)
_cell_length_b 26.340(2)
_cell_length_c 2.8300(2)
_cell_angle_alpha 90.
_cell_angle_beta 90.
_cell_angle_gamma 90.
_cell_volume 678.52
_cell_formula_units_Z 18
_symmetry_space_group_name_H-M 'P b a m'
_symmetry_Int_Tables_number 55
_refine_ls_R_factor_all 0.089
loop_
_symmetry_equiv_pos_site_id
_symmetry_equiv_pos_as_xyz
1 'x+1/2, -y+1/2, z'
2 '-x+1/2, y+1/2, z'
3 'x, y, -z'
4 '-x, -y, -z'
5 '-x+1/2, y+1/2, -z'
6 'x+1/2, -y+1/2, -z'
7 '-x, -y, z'
8 'x, y, z'
loop_
_atom_type_symbol
_atom_type_oxidation_number
Na1+ 1
Mn3+ 3.61
O2- -2
loop_
_atom_site_label
_atom_site_type_symbol
_atom_site_symmetry_multiplicity
_atom_site_Wyckoff_symbol
_atom_site_fract_x
_atom_site_fract_y
_atom_site_fract_z
_atom_site_B_iso_or_equiv
_atom_site_occupancy
_atom_site_attached_hydrogens
Na1 Na1+ 4 g 0.2192(11) 0.2050(3) 0 0.060(9) 0.82(3) 0
Na2 Na1+ 4 h 0.201(2) 0.4155(6) 0.5 0.036(13) 0.43(3) 0
Na3 Na1+ 4 g 0.1234(19) 0.0028(5) 0 0.043(11) 0.51(2) 0
Mn1 Mn3+ 4 g 0.0391(3) 0.30631(10) 0 0.0208(15) 1. 0
Mn2 Mn3+ 4 h 0.3604(3) 0.08857(9) 0.5 0.0197(16) 1. 0
Mn3 Mn3+ 2 c 0 0.5 0 0.019(2) 1. 0
Mn4 Mn3+ 4 h 0.3671(3) 0.30707(10) 0.5 0.0181(14) 1. 0
Mn5 Mn3+ 4 g 0.0203(3) 0.11067(9) 0 0.0182(15) 1. 0
O1 O2- 4 h 0.3603(14) 0.0025(4) 0.5 0.024(7) 1. 0
O2 O2- 4 g 0.2239(13) 0.0945(4) 0 0.021(7) 1. 0
O3 O2- 4 h 0.0546(13) 0.1600(4) 0.5 0.021(7) 1. 0
O4 O2- 4 h 0.4276(14) 0.1659(4) 0.5 0.027(7) 1. 0
O5 O2- 4 h 0.1668(13) 0.2845(4) 0.5 0.026(7) 1. 0
O6 O2- 4 g 0.4180(14) 0.2642(4) 0 0.021(7) 1. 0
O7 O2- 4 g 0.3286(13) 0.3559(4) 0 0.018(7) 1. 0
O8 O2- 4 g 0.4973(13) 0.0735(4) 0 0.023(7) 1. 0
O9 O2- 4 h 0.4725(13) 0.4327(4) 0.5 0.022(7) 1. 0
loop_
_atom_site_aniso_label
_atom_site_aniso_type_symbol
_atom_site_aniso_U_11
_atom_site_aniso_U_22
_atom_site_aniso_U_33
_atom_site_aniso_U_12
_atom_site_aniso_U_13
_atom_site_aniso_U_23
Na1 Na1+ 0.027(7) 0.035(7) 0.118(12) -0.004(5) 0. 0.
Na2 Na1+ 0.047(15) 0.036(12) 0.024(12) 0.014(9) 0. 0.
Na3 Na1+ 0.044(13) 0.019(8) 0.066(13) -0.006(7) 0. 0.
Mn1 Mn3+ 0.0257(17) 0.0267(14) 0.0101(13) 0.0011(4) 0. 0.
Mn2 Mn3+ 0.0259(18) 0.0240(15) 0.0091(13) 0.0004(12) 0. 0.
Mn3 Mn3+ 0.028(3) 0.020(2) 0.0097(19) -0.0024(16) 0. 0.
Mn4 Mn3+ 0.0227(17) 0.0218(14) 0.0100(13) 0.0009(13) 0. 0.
Mn5 Mn3+ 0.0242(18) 0.0218(14) 0.0086(13) -0.0009(12) 0. 0.
O1 O2- 0.031(8) 0.022(6) 0.019(6) 0.002(5) 0. 0.
O2 O2- 0.021(8) 0.029(6) 0.012(6) 0.011(5) 0. 0.
O3 O2- 0.025(8) 0.016(6) 0.021(7) -0.001(5) 0. 0.
O4 O2- 0.027(8) 0.031(7) 0.023(7) 0.003(6) 0. 0.
O5 O2- 0.019(7) 0.035(7) 0.022(7) -0.010(6) 0. 0.
O6 O2- 0.026(8) 0.021(6) 0.016(6) 0.009(5) 0. 0.
O7 O2- 0.019(7) 0.018(6) 0.018(6) 0.009(5) 0. 0.
O8 O2- 0.029(9) 0.027(6) 0.015(6) -0.003(5) 0. 0.
O9 O2- 0.020(7) 0.026(6) 0.019(7) 0.003(6) 0. 0.
#End of TTdata_182617-ICSD