
#(C) 2019 by FIZ Karlsruhe - Leibniz Institute for Information Infrastructure.  All rights reserved.
data_182965-ICSD
_database_code_ICSD 182965
_audit_creation_date 2012-08-01
_chemical_name_systematic 'Disodium hexatitanate(IV)'
_chemical_formula_structural 'Na2 (Ti6 O13)'
_chemical_formula_sum 'Na2 O13 Ti6'
_chemical_name_structure_type Na2Ti6O13
_exptl_crystal_density_diffrn 3.51
_cell_measurement_temperature 295.
_publ_section_title

;
Ion-exchange synthesis, crystal structure and electrochemical properties of
Li2 Ti6 O13
;
loop_
_citation_id
_citation_journal_full
_citation_year
_citation_journal_volume
_citation_page_first
_citation_page_last
_citation_journal_id_ASTM
primary 'Chemistry of Materials' 2011 23 2344 2352 CMATEX
loop_
_publ_author_name
'Kataoka, K.'
'Awaka, J.'
'Kijima, N.'
'Hayakawa, H.'
'Ohshima, K.I.'
'Akimoto, J.'
_cell_length_a 15.110(1)
_cell_length_b 3.7440(5)
_cell_length_c 9.1693(15)
_cell_angle_alpha 90.
_cell_angle_beta 98.984(7)
_cell_angle_gamma 90.
_cell_volume 512.36
_cell_formula_units_Z 2
_symmetry_space_group_name_H-M 'C 1 2/m 1'
_symmetry_Int_Tables_number 12
_refine_ls_R_factor_all 0.027
loop_
_symmetry_equiv_pos_site_id
_symmetry_equiv_pos_as_xyz
1 '-x, y, -z'
2 '-x, -y, -z'
3 'x, -y, z'
4 'x, y, z'
5 '-x+1/2, y+1/2, -z'
6 '-x+1/2, -y+1/2, -z'
7 'x+1/2, -y+1/2, z'
8 'x+1/2, y+1/2, z'
loop_
_atom_type_symbol
_atom_type_oxidation_number
Na1+ 1
Ti4+ 4
O2- -2
loop_
_atom_site_label
_atom_site_type_symbol
_atom_site_symmetry_multiplicity
_atom_site_Wyckoff_symbol
_atom_site_fract_x
_atom_site_fract_y
_atom_site_fract_z
_atom_site_B_iso_or_equiv
_atom_site_occupancy
_atom_site_attached_hydrogens
Na1 Na1+ 4 i 0.46112(8) 0 0.26583(18) 0.0367(5) 1 0
Ti1 Ti4+ 4 i 0.11444(2) 0 0.09726(4) 0.00475(11) 1 0
Ti2 Ti4+ 4 i 0.16630(2) 0 0.43635(4) 0.00429(12) 1 0
Ti3 Ti4+ 4 i 0.22804(2) 0 0.77086(4) 0.00421(11) 1 0
O1 O2- 2 a 0 0 0 0.0131(7) 1 0
O2 O2- 4 i 0.23996(10) 0 0.24471(18) 0.0059(4) 1 0
O3 O2- 4 i 0.07049(10) 0 0.29239(17) 0.0073(4) 1 0
O4 O2- 4 i 0.29701(10) 0 0.57131(16) 0.0058(4) 1 0
O5 O2- 4 i 0.12659(10) 0 0.61413(17) 0.0079(4) 1 0
O6 O2- 4 i 0.35669(10) 0 0.88297(17) 0.0066(4) 1 0
O7 O2- 4 i 0.16371(10) 0 0.91319(17) 0.0106(5) 1 0
loop_
_atom_site_aniso_label
_atom_site_aniso_type_symbol
_atom_site_aniso_U_11
_atom_site_aniso_U_22
_atom_site_aniso_U_33
_atom_site_aniso_U_12
_atom_site_aniso_U_13
_atom_site_aniso_U_23
Na1 Na1+ 0.0200(6) 0.0247(6) 0.0662(10) 0 0.0092(6) 0
Ti1 Ti4+ 0.00429(19) 0.0047(2) 0.00463(18) 0 -0.00121(13) 0
Ti2 Ti4+ 0.0045(2) 0.0042(2) 0.00387(19) 0 -0.00041(14) 0
Ti3 Ti4+ 0.00474(19) 0.00372(19) 0.00407(18) 0 0.00037(13) 0
O1 O2- 0.0056(10) 0.0230(12) 0.0093(11) 0 -0.0031(8) 0
O2 O2- 0.0063(7) 0.0050(7) 0.0061(6) 0 0.0003(5) 0
O3 O2- 0.0057(7) 0.0109(7) 0.0049(7) 0 -0.0011(6) 0
O4 O2- 0.0060(7) 0.0049(7) 0.0059(7) 0 -0.0007(5) 0
O5 O2- 0.0067(7) 0.0122(7) 0.0046(7) 0 0.0001(5) 0
O6 O2- 0.0073(7) 0.0048(6) 0.0066(7) 0 -0.0023(5) 0
O7 O2- 0.0126(8) 0.0129(8) 0.0071(7) 0 0.0038(6) 0
#End of TTdata_182965-ICSD