
#(C) 2019 by FIZ Karlsruhe - Leibniz Institute for Information Infrastructure.  All rights reserved.
data_183395-ICSD
_database_code_ICSD 183395
_audit_creation_date 2012-08-01
_chemical_name_systematic 'Sodium cadmium antimony trisulfide'
_chemical_formula_structural 'Na Cd Sb S3'
_chemical_formula_sum 'Cd1 Na1 S3 Sb1'
_exptl_crystal_density_diffrn 4.23
_cell_measurement_temperature 293.
_publ_section_title

;
Synthesis, crystal structures and optical properties of Na Cd Pn S3 (Pn = As,
Sb)
;
loop_
_citation_id
_citation_journal_full
_citation_year
_citation_journal_volume
_citation_page_first
_citation_page_last
_citation_journal_id_ASTM
primary 'Journal of Alloys and Compounds' 2012 511 35 40 JALCEU
loop_
_publ_author_name
'Wu, Yuan Dong'
'Bensch, W.'
_cell_length_a 8.1329(6)
_cell_length_b 8.1296(4)
_cell_length_c 17.2600(13)
_cell_angle_alpha 90.
_cell_angle_beta 103.499(6)
_cell_angle_gamma 90.
_cell_volume 1109.66
_cell_formula_units_Z 8
_symmetry_space_group_name_H-M 'C 1 2/c 1'
_symmetry_Int_Tables_number 15
_refine_ls_R_factor_all 0.0793
loop_
_symmetry_equiv_pos_site_id
_symmetry_equiv_pos_as_xyz
1 'x, -y, z+1/2'
2 '-x, -y, -z'
3 '-x, y, -z+1/2'
4 'x, y, z'
5 'x+1/2, -y+1/2, z+1/2'
6 '-x+1/2, -y+1/2, -z'
7 '-x+1/2, y+1/2, -z+1/2'
8 'x+1/2, y+1/2, z'
loop_
_atom_type_symbol
_atom_type_oxidation_number
Sb3+ 3
Cd2+ 2
S2- -2
Na1+ 1
loop_
_atom_site_label
_atom_site_type_symbol
_atom_site_symmetry_multiplicity
_atom_site_Wyckoff_symbol
_atom_site_fract_x
_atom_site_fract_y
_atom_site_fract_z
_atom_site_B_iso_or_equiv
_atom_site_occupancy
_atom_site_attached_hydrogens
Sb1 Sb3+ 8 f 0.1760(2) 0.1262(2) 0.5930(1) 0.020(1) 1. 0
Cd1 Cd2+ 4 e 0 0.1112(3) 0.25 0.029(1) 1. 0
Cd2 Cd2+ 4 e 0 0.6131(3) 0.25 0.037(1) 1. 0
S1 S2- 8 f 0.0545(9) 0.0652(7) 0.4025(3) 0.034(1) 1. 0
S2 S2- 8 f 0.4071(7) 0.0732(6) 0.0949(3) 0.025(1) 1. 0
S3 S2- 8 f 0.2494(7) 0.3329(7) 0.2582(3) 0.028(1) 1. 0
Na1 Na1+ 8 f 0.1597(13) 0.3527(13) 0.0777(3) 0.037(1) 1. 0
#End of TTdata_183395-ICSD