
#(C) 2019 by FIZ Karlsruhe - Leibniz Institute for Information Infrastructure.  All rights reserved.
data_183394-ICSD
_database_code_ICSD 183394
_audit_creation_date 2012-08-01
_chemical_name_systematic 'Sodium cadmium arsenic trisulfide'
_chemical_formula_structural 'Na Cd As S3'
_chemical_formula_sum 'As1 Cd1 Na1 S3'
_chemical_name_structure_type AgPbAsS3
_exptl_crystal_density_diffrn 3.82
_cell_measurement_temperature 293.
_publ_section_title

;
Synthesis, crystal structures and optical properties of Na Cd Pn S3 (Pn = As,
Sb)
;
loop_
_citation_id
_citation_journal_full
_citation_year
_citation_journal_volume
_citation_page_first
_citation_page_last
_citation_journal_id_ASTM
primary 'Journal of Alloys and Compounds' 2012 511 35 40 JALCEU
loop_
_publ_author_name
'Wu, Yuan Dong'
'Bensch, W.'
_cell_length_a 5.6561(8)
_cell_length_b 16.5487(15)
_cell_length_c 5.6954(8)
_cell_angle_alpha 90.
_cell_angle_beta 90.315(11)
_cell_angle_gamma 90.
_cell_volume 533.09
_cell_formula_units_Z 4
_symmetry_space_group_name_H-M 'P 1 21/n 1'
_symmetry_Int_Tables_number 14
_refine_ls_R_factor_all 0.0473
loop_
_symmetry_equiv_pos_site_id
_symmetry_equiv_pos_as_xyz
1 '-x+1/2, y+1/2, -z+1/2'
2 '-x, -y, -z'
3 'x+1/2, -y+1/2, z+1/2'
4 'x, y, z'
loop_
_atom_type_symbol
_atom_type_oxidation_number
Cd2+ 2
As3+ 3
S2- -2
Na1+ 1
loop_
_atom_site_label
_atom_site_type_symbol
_atom_site_symmetry_multiplicity
_atom_site_Wyckoff_symbol
_atom_site_fract_x
_atom_site_fract_y
_atom_site_fract_z
_atom_site_B_iso_or_equiv
_atom_site_occupancy
_atom_site_attached_hydrogens
Cd1 Cd2+ 4 e 0.0013(1) 0.2506(1) 0.2485(1) 0.031(1) 1. 0
As1 As3+ 4 e 0.4892(1) 0.3990(1) 0.2311(2) 0.026(1) 1. 0
S1 S2- 4 e 0.0335(4) 0.1000(1) 0.3391(4) 0.028(1) 1. 0
S2 S2- 4 e 0.0914(3) 0.4027(1) 0.2720(5) 0.027(1) 1. 0
S3 S2- 4 e 0.0335(4) 0.2371(1) 0.7849(5) 0.027(1) 1. 0
Na1 Na1+ 4 e 0.5333(7) 0.0739(2) 0.2659(8) 0.038(1) 1. 0
#End of TTdata_183394-ICSD