
#(C) 2019 by FIZ Karlsruhe - Leibniz Institute for Information Infrastructure.  All rights reserved.
data_183578-ICSD
_database_code_ICSD 183578
_audit_creation_date 2012-08-01
_chemical_name_systematic 'Trisodium aluminium decavanadate 22-hydrate'
_chemical_formula_structural 'Na3 Al (V10 O28) (H2 O)22'
_chemical_formula_sum 'H44 Al1 Na3 O50 V10'
_chemical_name_mineral Hughesite
_exptl_crystal_density_diffrn 2.29
_publ_section_title

;
Hughesite, Na3 Al (V10 O28) * 22(H2 O), a new member of the pascoite family of
minerals from the Sundy mine, San Miguel County, Colorado
;
loop_
_citation_id
_citation_journal_full
_citation_year
_citation_journal_volume
_citation_page_first
_citation_page_last
_citation_journal_id_ASTM
primary 'Canadian Mineralogist' 2011 49 1253 1265 CAMIA6
loop_
_publ_author_name
'Rakovan, J.'
'Schmidt, G.R.'
'Gunter, M.E.'
'Nash, B.'
'Marty, J.'
'Kampf, A.R.'
'Wise, W.S.'
_cell_length_a 8.668(4)
_cell_length_b 10.295(4)
_cell_length_c 12.908(5)
_cell_angle_alpha 105.826(9)
_cell_angle_beta 97.899(9)
_cell_angle_gamma 103.385(9)
_cell_volume 1053.06
_cell_formula_units_Z 1
_symmetry_space_group_name_H-M 'P -1'
_symmetry_Int_Tables_number 2
_refine_ls_R_factor_all 0.0496
loop_
_symmetry_equiv_pos_site_id
_symmetry_equiv_pos_as_xyz
1 '-x, -y, -z'
2 'x, y, z'
loop_
_atom_type_symbol
_atom_type_oxidation_number
V5+ 5
O2- -2
Na1+ 1
Al3+ 3
O2- -2
H1+ 1
loop_
_atom_site_label
_atom_site_type_symbol
_atom_site_symmetry_multiplicity
_atom_site_Wyckoff_symbol
_atom_site_fract_x
_atom_site_fract_y
_atom_site_fract_z
_atom_site_B_iso_or_equiv
_atom_site_occupancy
_atom_site_attached_hydrogens
V1 V5+ 2 i 0.19664(7) 0.07252(7) 0.53427(5) 0.0125(2) 1. 0
V2 V5+ 2 i 0.00684(8) -0.01910(7) 0.70657(5) 0.0140(2) 1. 0
V3 V5+ 2 i 0.05702(8) -0.24605(7) 0.51040(5) 0.0130(2) 1. 0
V4 V5+ 2 i 0.13793(8) 0.29976(7) 0.72602(6) 0.0159(2) 1. 0
V5 V5+ 2 i 0.23092(8) -0.15303(7) 0.33568(6) 0.015(2) 1. 0
O1 O2- 2 i 0.0777(3) -0.3380(3) 0.5906(2) 0.0205(7) 1. 0
O2 O2- 2 i 0.0306(3) -0.1114(3) 0.7861(2) 0.0218(7) 1. 0
O3 O2- 2 i 0.2935(3) 0.2256(3) 0.6399(2) 0.0152(6) 1. 0
O4 O2- 2 i 0.1426(3) 0.1546(3) 0.7872(2) 0.0160(6) 1. 0
O5 O2- 2 i 0.0639(3) -0.3000(3) 0.2426(2) 0.0164(6) 1. 0
O6 O2- 2 i 0.3388(3) 0.0267(3) 0.4679(2) 0.0163(6) 1. 0
O7 O2- 2 i 0.1205(3) 0.1691(3) 0.4334(2) 0.0116(6) 1. 0
O8 O2- 2 i 0.3853(3) -0.1811(3) 0.2887(2) 0.0239(7) 1. 0
O9 O2- 2 i 0.1756(3) -0.0537(3) 0.6175(2) 0.0119(6) 1. 0
O10 O2- 2 i 0.2318(3) -0.2436(3) 0.4451(2) 0.0155(6) 1. 0
O11 O2- 2 i -0.0937(3) -0.3713(3) 0.3912(2) 0.0153(6) 1. 0
O12 O2- 2 i -0.1796(3) 0.0251(3) 0.7324(2) 0.0164(6) 1. 0
O13 O2- 2 i 0.0236(3) -0.0972(3) 0.4164(2) 0.0123(6) 1. 0
O14 O2- 2 i 0.2603(3) 0.4354(3) 0.8177(2) 0.0273(7) 1. 0
Na1 Na1+ 1 d 0.5 0 0 0.0138(6) 1. 0
Na2 Na1+ 2 i 0.0840(2) -0.23409(19) 0.91567(14) 0.045(1) 1. 0
Al1 Al3+ 1 h 0.5 0.5 0.5 0.0308(7) 1. 0
O15 O2- 2 i 0.3401(6) -0.2340(5) 0.8678(4) 0.047(1) 1. 0
O16 O2- 2 i -0.1577(5) -0.2284(4) 0.9817(3) 0.0361(9) 1. 0
O17 O2- 2 i 0.2394(5) -0.0098(4) 0.0568(3) 0.0343(9) 1. 0
O18 O2- 2 i 0.1335(6) -0.3768(5) 0.0298(3) 0.042(1) 1. 0
O19 O2- 2 i 0.3240(4) 0.3649(4) 0.3938(3) 0.0219(7) 1. 0
O20 O2- 2 i 0.3641(4) 0.5526(4) 0.5967(3) 0.0225(7) 1. 0
O21 O2- 2 i 0.4653(4) 0.6348(3) 0.4336(3) 0.0221(7) 1. 0
O22 O2- 2 i -0.0907(5) -0.4258(4) 0.7443(3) 0.0314(9) 1. 0
O23 O2- 2 i 0.4448(6) 0.1295(6) 0.8839(4) 0.054(1) 1. 0
O24 O2- 2 i 0.3910(6) -0.4946(6) 0.0844(5) 0.097(2) 1. 0
O25 O2- 2 i 0.4448(6) 0.8361(4) 0.6853(3) 0.0339(9) 1. 0
H1 H1+ 2 i 0.365(9) -0.234(8) 0.816(6) 0.09(3) 1. 0
H2 H1+ 2 i 0.395(11) -0.276(10) 0.891(7) 0.14(4) 1. 0
H3 H1+ 2 i -0.229(6) -0.292(5) 0.954(4) 0.02(1) 1. 0
H4 H1+ 2 i -0.147(5) -0.209(5) 0.048(4) 0.02(1) 1. 0
H5 H1+ 2 i 0.222(6) -0.007(5) 0.119(4) 0.03(1) 1. 0
H6 H1+ 2 i 0.209(6) 0.053(5) 0.054(4) 0.02(1) 1. 0
H7 H1+ 2 i 0.117(8) -0.347(7) 0.085(5) 0.06(2) 1. 0
H8 H1+ 2 i 0.209(6) -0.411(7) 0.042(6) 0.11(3) 1. 0
H9 H1+ 2 i 0.264(6) 0.308(6) 0.404(4) 0.04(2) 1. 0
H10 H1+ 2 i 0.269(5) 0.394(4) 0.353(3) 0.01(1) 1. 0
H11 H1+ 2 i 0.289(5) 0.514(5) 0.590(3) 0.01(1) 1. 0
H12 H1+ 2 i 0.385(6) 0.646(6) 0.638(4) 0.05(1) 1. 0
H13 H1+ 2 i 0.531(6) 0.672(5) 0.408(4) 0.02(1) 1. 0
H14 H1+ 2 i 0.385(6) 0.667(5) 0.433(4) 0.02(1) 1. 0
H15 H1+ 2 i -0.093(6) -0.486(5) 0.754(4) 0.02(2) 1. 0
H16 H1+ 2 i 0.018(11) -0.409(9) 0.693(7) 0.17(4) 1. 0
H17 H1+ 2 i 0.369(7) 0.140(7) 0.851(5) 0.07(3) 1. 0
H18 H1+ 2 i 0.492(6) 0.131(5) 0.848(4) 0.02(2) 1. 0
H19 H1+ 2 i 0.443(7) -0.413(6) 0.054(5) 0.06(2) 1. 0
H20 H1+ 2 i 0.414(7) -0.554(6) 0.160(5) 0.08(2) 1. 0
H21 H1+ 2 i 0.544(8) 0.873(7) 0.690(5) 0.07(2) 1. 0
H22 H1+ 2 i 0.404(7) 0.877(6) 0.675(5) 0.03(2) 1. 0
loop_
_atom_site_aniso_label
_atom_site_aniso_type_symbol
_atom_site_aniso_U_11
_atom_site_aniso_U_22
_atom_site_aniso_U_33
_atom_site_aniso_U_12
_atom_site_aniso_U_13
_atom_site_aniso_U_23
V1 V5+ 0.0099(3) 0.0133(4) 0.0161(4) 0.003(3) 0.0031(3) 0.0072(3)
V2 V5+ 0.0185(4) 0.0141(4) 0.0123(4) 0.0059(3) 0.0045(3) 0.0073(3)
V3 V5+ 0.0148(3) 0.0124(4) 0.0161(4) 0.0061(3) 0.0056(3) 0.0082(3)
V4 V5+ 0.0174(4) 0.0141(4) 0.0157(4) 0.0045(3) 0.0034(3) 0.0039(3)
V5 V5+ 0.0151(3) 0.0182(4) 0.0177(4) 0.0077(3) 0.0077(3) 0.0085(3)
O1 O2- 0.023(2) 0.021(2) 0.024(2) 0.009(1) 0.008(1) 0.014(1)
O2 O2- 0.030(2) 0.020(2) 0.022(2) 0.010(1) 0.009(1) 0.014(1)
O3 O2- 0.011(1) 0.015(2) 0.019(1) 0.002(1) 0.002(1) 0.008(1)
O4 O2- 0.020(1) 0.014(2) 0.014(1) 0.005(1) 0.003(1) 0.005(1)
O5 O2- 0.021(1) 0.014(2) 0.015(1) 0.008(1) 0.005(1) 0.005(1)
O6 O2- 0.010(1) 0.018(2) 0.020(2) 0.004(1) 0.004(1) 0.007(1)
O7 O2- 0.012(1) 0.010(1) 0.013(1) 0.003(1) 0.005(1) 0.005(1)
O8 O2- 0.025(2) 0.029(2) 0.026(2) 0.015(1) 0.012(1) 0.014(1)
O9 O2- 0.013(1) 0.011(1) 0.013(1) 0.003(1) 0.001(1) 0.007(1)
O10 O2- 0.017(1) 0.015(2) 0.017(1) 0.008(1) 0.007(1) 0.007(1)
O11 O2- 0.014(1) 0.014(2) 0.019(2) 0.005(1) 0.004(1) 0.006(1)
O12 O2- 0.017(1) 0.019(2) 0.016(1) 0.006(1) 0.007(1) 0.011(1)
O13 O2- 0.009(1) 0.015(2) 0.015(1) 0.003(1) 0.003(1) 0.009(1)
O14 O2- 0.027(2) 0.022(2) 0.026(2) 0.002(1) 0.001(1) 0.003(1)
Na1 Na1+ 0.0117(9) 0.011(1) 0.021(1) 0.0039(7) 0.0063(7) 0.0093(8)
Na2 Na1+ 0.031(2) 0.066(2) 0.042(2) 0.010(1) 0.008(1) 0.024(2)
Al1 Al3+ 0.036(1) 0.033(1) 0.027(1) 0.0100(9) 0.0066(8) 0.0149(9)
O15 O2- 0.054(3) 0.054(3) 0.044(3) 0.023(2) 0.021(2) 0.019(2)
O16 O2- 0.045(2) 0.040(3) 0.020(2) 0.009(2) 0.011(2) 0.007(2)
O17 O2- 0.044(2) 0.039(2) 0.029(2) 0.021(2) 0.017(2) 0.015(2)
O18 O2- 0.061(3) 0.049(3) 0.028(2) 0.029(2) 0.015(2) 0.017(2)
O19 O2- 0.016(2) 0.020(2) 0.029(2) -0.001(1) 0.001(1) 0.015(2)
O20 O2- 0.015(2) 0.018(2) 0.033(2) 0.001(1) 0.012(1) 0.007(2)
O21 O2- 0.018(2) 0.020(2) 0.038(2) 0.008(1) 0.012(1) 0.021(2)
O22 O2- 0.040(2) 0.024(2) 0.036(2) 0.011(2) 0.011(2) 0.018(2)
O23 O2- 0.037(2) 0.102(4) 0.050(3) 0.034(3) 0.019(2) 0.048(3)
O24 O2- 0.057(3) 0.077(4) 0.147(6) 0.009(3) -0.004(3) 0.041(4)
O25 O2- 0.032(2) 0.027(2) 0.041(2) 0.008(2) 0.005(2) 0.011(2)
#End of TTdata_183578-ICSD