
#(C) 2019 by FIZ Karlsruhe - Leibniz Institute for Information Infrastructure.  All rights reserved.
data_183781-ICSD
_database_code_ICSD 183781
_audit_creation_date 2012-08-01
_chemical_name_systematic 'Sodium indium disilicate'
_chemical_formula_structural 'Na In (Si2 O6)'
_chemical_formula_sum 'In1 Na1 O6 Si2'
_chemical_name_structure_type Pyroxene-CaMg(SiO3)2
_chemical_name_mineral 'Clinopyroxene - (Na,In)'
_exptl_crystal_density_diffrn 4.4
_cell_measurement_pressure 6710000.
_publ_section_title

;
High-pressure behavior of Na In Si2 O6 and the influence of Me(3+) on the
compressibility of Na Me(3+) Si2 O6 silicates
;
loop_
_citation_id
_citation_journal_full
_citation_year
_citation_journal_volume
_citation_page_first
_citation_page_last
_citation_journal_id_ASTM
primary 'Solid State Communications' 2012 152 132 137 SSCOA4
loop_
_publ_author_name
'Periotto, B.'
'Nestola, F.'
'Balic Zunic, T.'
'Pasqual, D.'
'Alvaro, M.'
'Ohashi, H.'
_cell_length_a 9.7206(6)
_cell_length_b 8.9212(6)
_cell_length_c 5.2662(3)
_cell_angle_alpha 90.
_cell_angle_beta 106.423(5)
_cell_angle_gamma 90.
_cell_volume 438.05
_cell_formula_units_Z 4
_symmetry_space_group_name_H-M 'C 1 2/c 1'
_symmetry_Int_Tables_number 15
_refine_ls_R_factor_all 0.046
loop_
_symmetry_equiv_pos_site_id
_symmetry_equiv_pos_as_xyz
1 'x, -y, z+1/2'
2 '-x, -y, -z'
3 '-x, y, -z+1/2'
4 'x, y, z'
5 'x+1/2, -y+1/2, z+1/2'
6 '-x+1/2, -y+1/2, -z'
7 '-x+1/2, y+1/2, -z+1/2'
8 'x+1/2, y+1/2, z'
loop_
_atom_type_symbol
_atom_type_oxidation_number
In3+ 3
Na1+ 1
Si4+ 4
O2- -2
loop_
_atom_site_label
_atom_site_type_symbol
_atom_site_symmetry_multiplicity
_atom_site_Wyckoff_symbol
_atom_site_fract_x
_atom_site_fract_y
_atom_site_fract_z
_atom_site_B_iso_or_equiv
_atom_site_occupancy
_atom_site_attached_hydrogens
In1 In3+ 4 e 0 0.8957(1) 0.25 0.0070(5) 1. 0
Na1 Na1+ 4 e 0 0.3074(8) 0.25 0.014(1) 1. 0
Si1 Si4+ 8 f 0.2927(3) 0.0887(4) 0.2491(4) 0.0058(6) 1. 0
O1 O2- 8 f 0.1200(8) 0.0843(9) 0.155(1) 0.005(1) 1. 0
O2 O2- 8 f 0.3559(7) 0.249(1) 0.332(1) 0.009(2) 1. 0
O3 O2- 8 f 0.3517(7) 0.0190(9) 0.013(1) 0.008(2) 1. 0
loop_
_atom_site_aniso_label
_atom_site_aniso_type_symbol
_atom_site_aniso_U_11
_atom_site_aniso_U_22
_atom_site_aniso_U_33
_atom_site_aniso_U_12
_atom_site_aniso_U_13
_atom_site_aniso_U_23
In1 In3+ 0.0063(9) 0.007(1) 0.0072(5) 0. 0.0016(4) 0.
#End of TTdata_183781-ICSD