
#(C) 2019 by FIZ Karlsruhe - Leibniz Institute for Information Infrastructure.  All rights reserved.
data_185594-ICSD
_database_code_ICSD 185594
_audit_creation_date 2013-02-01
_chemical_name_systematic 'Sodium zinc tris(tetrahydridoborate) diammine'
_chemical_formula_structural 'Na Zn (B H4)3 (N H3)2'
_chemical_formula_sum 'H18 B3 N2 Na1 Zn1'
_exptl_crystal_density_diffrn 1.15
_publ_section_title
'Ammine bimetallic (Na, Zn) borohydride for advanced chemical hydrogen storage'
loop_
_citation_id
_citation_journal_full
_citation_year
_citation_journal_volume
_citation_page_first
_citation_page_last
_citation_journal_id_ASTM
primary 'Journal of Materials Chemistry' 2012 22 7300 7307 JMACEP
loop_
_publ_author_name
'Xia Guanglin'
'Gu Qinfen'
'Guo Yanhui'
'Yu Xuebin'
_cell_length_a 7.2965(2)
_cell_length_b 10.1444(2)
_cell_length_c 12.9714(3)
_cell_angle_alpha 90.
_cell_angle_beta 90.
_cell_angle_gamma 90.
_cell_volume 960.13
_cell_formula_units_Z 4
_symmetry_space_group_name_H-M 'P 21 n b'
_symmetry_Int_Tables_number 33
_refine_ls_R_factor_all 0.038
loop_
_symmetry_equiv_pos_site_id
_symmetry_equiv_pos_as_xyz
1 'x, y+1/2, -z+1/2'
2 'x+1/2, -y+1/2, z+1/2'
3 'x+1/2, -y, -z'
4 'x, y, z'
loop_
_atom_type_symbol
_atom_type_oxidation_number
Zn2+ 2
Na1+ 1
B3+ 3
H1- -1
B3+ 3
H1- -1
B3+ 3
H1- -1
N3- -3
H1+ 1
N3- -3
H1+ 1
loop_
_atom_site_label
_atom_site_type_symbol
_atom_site_symmetry_multiplicity
_atom_site_Wyckoff_symbol
_atom_site_fract_x
_atom_site_fract_y
_atom_site_fract_z
_atom_site_B_iso_or_equiv
_atom_site_occupancy
_atom_site_attached_hydrogens
Zn1 Zn2+ 4 a 0.69084(43) 0.24742(24) 0.41352(13) 1.792(51) 1 0
Na1 Na1+ 4 a 0.77549(77) 0.04133(50) 0.84756(32) 1.792(51) 1 0
B1 B3+ 4 a 0.1771273 0.6523169 0.8935581 1.792(51) 1 0
H1 H1- 4 a 0.2114499 0.7445287 0.9384541 1.792(51) 1 0
H2 H1- 4 a 0.2351695 0.5653656 0.9371344 1.792(51) 1 0
H3 H1- 4 a 0.02312018 0.6479061 0.88505 1.792(51) 1 0
H4 H1- 4 a 0.2418133 0.6571619 0.814497 1.792(51) 1 0
B2 B3+ 4 a 0.2239291 0.3032633 0.07085576 1.792(51) 1 0
H5 H1- 4 a 0.2224661 0.3496134 0.1500665 1.792(51) 1 0
H6 H1- 4 a 0.2761917 0.3795602 0.01460287 1.792(51) 1 0
H7 H1- 4 a 0.3136741 0.2126175 0.07474341 1.792(51) 1 0
H8 H1- 4 a 0.08033195 0.2730921 0.04832155 1.792(51) 1 0
B3 B3+ 4 a 0.4444309 0.7099737 0.1709103 1.792(51) 1 0
H9 H1- 4 a 0.5377909 0.6211006 0.1703489 1.792(51) 1 0
H10 H1- 4 a 0.4083317 0.7338378 0.08827664 1.792(51) 1 0
H11 H1- 4 a 0.3207073 0.6846082 0.2194076 1.792(51) 1 0
H12 H1- 4 a 0.51782 0.7968399 0.2065434 1.792(51) 1 0
N1 N3- 4 a 0.2184091 0.05903506 0.8969688 1.792(51) 1 0
H13 H1+ 4 a 0.1011637 0.02213942 0.9223241 1.792(51) 1 0
H14 H1+ 4 a 0.2449155 0.02341496 0.8274945 1.792(51) 1 0
H15 H1+ 4 a 0.3184585 0.03431092 0.944759 1.792(51) 1 0
N2 N3- 4 a 0.9219173 0.1794509 0.3613046 1.792(51) 1 0
H16 H1+ 4 a 1.006064 0.1985114 0.4192906 1.792(51) 1 0
H17 H1+ 4 a 0.9147128 0.08297577 0.3505335 1.792(51) 1 0
H18 H1+ 4 a 0.9684482 0.2221538 0.2978646 1.792(51) 1 0
#End of TTdata_185594-ICSD