
#(C) 2019 by FIZ Karlsruhe - Leibniz Institute for Information Infrastructure.  All rights reserved.
data_186309-ICSD
_database_code_ICSD 186309
_audit_creation_date 2013-02-01
_chemical_name_systematic 'Sodium iron dioxide'
_chemical_formula_structural 'Na (Fe O2)'
_chemical_formula_sum 'Fe1 Na1 O2'
_chemical_name_structure_type NaFeO2(beta)
_exptl_crystal_density_diffrn 3.38
_cell_measurement_temperature 150.
_publ_section_title
'Beta- Na Fe O2, a new room-temperature multiferroic material'
loop_
_citation_id
_citation_journal_full
_citation_year
_citation_journal_volume
_citation_page_first
_citation_page_last
_citation_journal_id_ASTM
primary 'Materials Research Bulletin' 2012 47 2294 2298 MRBUAC
loop_
_publ_author_name
'Viret, M.'
'Rubi, D.'
'Colson, D.'
'Lebeugle, D.'
'Forget, A.'
'Bonville, P.'
'Dhalenne, G.'
'Saint Martin, R.'
'Andre, G.'
'Ott, F.'
_cell_length_a 5.6793(4)
_cell_length_b 7.1243(5)
_cell_length_c 5.3784(2)
_cell_angle_alpha 90.
_cell_angle_beta 90.
_cell_angle_gamma 90.
_cell_volume 217.62
_cell_formula_units_Z 4
_symmetry_space_group_name_H-M 'P n a 21'
_symmetry_Int_Tables_number 33
_refine_ls_R_factor_all 0.0526
loop_
_symmetry_equiv_pos_site_id
_symmetry_equiv_pos_as_xyz
1 'x+1/2, -y+1/2, z'
2 '-x+1/2, y+1/2, z+1/2'
3 '-x, -y, z+1/2'
4 'x, y, z'
loop_
_atom_type_symbol
_atom_type_oxidation_number
Fe3+ 3
Na1+ 1
O2- -2
loop_
_atom_site_label
_atom_site_type_symbol
_atom_site_symmetry_multiplicity
_atom_site_Wyckoff_symbol
_atom_site_fract_x
_atom_site_fract_y
_atom_site_fract_z
_atom_site_B_iso_or_equiv
_atom_site_occupancy
_atom_site_attached_hydrogens
Fe1 Fe3+ 4 a 0.06822(17) 0.12658(17) 0. 0.0067(3) 1 0
Na1 Na1+ 4 a 0.4241(5) 0.1229(5) 0.503(3) 0.0133(7) 1 0
O1 O2- 4 a 0.0424(12) 0.0875(10) -0.3440(16) 0.0158(14) 1 0
O2 O2- 4 a 0.3877(12) 0.1610(10) -0.0831(16) 0.0147(13) 1 0
loop_
_atom_site_aniso_label
_atom_site_aniso_type_symbol
_atom_site_aniso_U_11
_atom_site_aniso_U_22
_atom_site_aniso_U_33
_atom_site_aniso_U_12
_atom_site_aniso_U_13
_atom_site_aniso_U_23
Fe1 Fe3+ 0.0074(5) 0.0064(5) 0.0062(5) 0.0001(4) 0.0021(6) -0.0002(10)
Na1 Na1+ 0.0112(13) 0.0104(13) 0.0183(16) 0.0005(12) -0.007(2) -0.006(3)
O1 O2- 0.014(3) 0.019(3) 0.014(4) -0.001(3) 0.005(3) 0.000(3)
O2 O2- 0.015(3) 0.019(3) 0.010(3) 0.000(3) 0.000(2) -0.004(3)
#End of TTdata_186309-ICSD