
#(C) 2019 by FIZ Karlsruhe - Leibniz Institute for Information Infrastructure.  All rights reserved.
data_186310-ICSD
_database_code_ICSD 186310
_audit_creation_date 2013-02-01
_chemical_name_systematic 'Sodium potassium niobate (0.5/0.5/1)'
_chemical_formula_structural '(K0.50 Na0.50) (Nb O3)'
_chemical_formula_sum 'K0.5 Na0.5 Nb1 O3'
_chemical_name_structure_type Perovskite-BaTiO3(orh)
_exptl_crystal_density_diffrn 4.5
_cell_measurement_temperature 392.
_publ_section_title
'Structural evolution of Na0.5 K0.5 Nb O3 at high temperatures'
loop_
_citation_id
_citation_journal_full
_citation_year
_citation_journal_volume
_citation_page_first
_citation_page_last
_citation_journal_id_ASTM
primary 'Journal of Solid State Chemistry' 2010 183 2731 2738 JSSCBI
loop_
_publ_author_name
'Ishizawa, N.'
'Wang Jun'
'Sakakura, T.'
'Inagaki, Y.'
'Kakimoto, K.'
_cell_length_a 5.6569(2)
_cell_length_b 3.96210(10)
_cell_length_c 5.6678(2)
_cell_angle_alpha 90.
_cell_angle_beta 90.
_cell_angle_gamma 90.
_cell_volume 127.03
_cell_formula_units_Z 2
_symmetry_space_group_name_H-M 'B m m 2'
_symmetry_Int_Tables_number 38
_refine_ls_R_factor_all 0.0197
loop_
_symmetry_equiv_pos_site_id
_symmetry_equiv_pos_as_xyz
1 '-x, y, z'
2 'x, -y, z'
3 '-x, -y, z'
4 'x, y, z'
5 '-x+1/2, y, z+1/2'
6 'x+1/2, -y, z+1/2'
7 '-x+1/2, -y, z+1/2'
8 'x+1/2, y, z+1/2'
loop_
_atom_type_symbol
_atom_type_oxidation_number
Nb5+ 5
O2- -2
K1+ 1
Na1+ 1
loop_
_atom_site_label
_atom_site_type_symbol
_atom_site_symmetry_multiplicity
_atom_site_Wyckoff_symbol
_atom_site_fract_x
_atom_site_fract_y
_atom_site_fract_z
_atom_site_B_iso_or_equiv
_atom_site_occupancy
_atom_site_attached_hydrogens
Nb1 Nb5+ 2 b 0. 0.5 0.5 0.00887(4) 1 0
O1 O2- 4 e 0.2482(7) 0.5 0.2216(5) 0.0165(4) 1 0
O2 O2- 2 a 0. 0. 0.4636(5) 0.0100(4) 1 0
K1 K1+ 2 a 0. 0. -0.0143(5) 0.0108(2) 0.5 0
Na1 Na1+ 2 a 0. 0. 0.005(4) 0.0257(10) 0.5 0
loop_
_atom_site_aniso_label
_atom_site_aniso_type_symbol
_atom_site_aniso_U_11
_atom_site_aniso_U_22
_atom_site_aniso_U_33
_atom_site_aniso_U_12
_atom_site_aniso_U_13
_atom_site_aniso_U_23
Nb1 Nb5+ 0.00883(10) 0.01049(6) 0.00731(11) 0. 0. 0.
#End of TTdata_186310-ICSD