
#(C) 2019 by FIZ Karlsruhe - Leibniz Institute for Information Infrastructure.  All rights reserved.
data_186877-ICSD
_database_code_ICSD 186877
_audit_creation_date 2013-08-01
_chemical_name_systematic 'Disodium dimagnesium tris(trioxophosphate) nitrate'
_chemical_formula_structural 'Na2 Mg2 (P O3)3 N'
_chemical_formula_sum 'Mg2 N1 Na2 O9 P3'
_chemical_name_structure_type Na3AlN(PO3)3
_exptl_crystal_density_diffrn 2.91
_publ_section_title
'Crystal structure and ionic conductivity of Na2 Mg2 (PO3)3 N'
loop_
_citation_id
_citation_journal_full
_citation_year
_citation_journal_volume
_citation_page_first
_citation_page_last
_citation_journal_id_ASTM
primary 'Bulletin of the Korean Chemical Society' 2012 33 2083 2086 BKCSDE
loop_
_publ_author_name
'Lee, Mi-Sun'
'Kang, Jun-Kun'
'Kim, Seung-Joo'
_cell_length_a 9.24119(10)
_cell_length_b 9.24119(10)
_cell_length_c 9.24119(10)
_cell_angle_alpha 90.
_cell_angle_beta 90.
_cell_angle_gamma 90.
_cell_volume 789.19
_cell_formula_units_Z 4
_symmetry_space_group_name_H-M 'P 21 3'
_symmetry_Int_Tables_number 198
_refine_ls_R_factor_all 0.0354
loop_
_symmetry_equiv_pos_site_id
_symmetry_equiv_pos_as_xyz
1 '-z+1/2, -x, y+1/2'
2 '-y+1/2, -z, x+1/2'
3 '-x+1/2, -y, z+1/2'
4 '-z, x+1/2, -y+1/2'
5 '-y, z+1/2, -x+1/2'
6 '-x, y+1/2, -z+1/2'
7 'z+1/2, -x+1/2, -y'
8 'y+1/2, -z+1/2, -x'
9 'x+1/2, -y+1/2, -z'
10 'z, x, y'
11 'y, z, x'
12 'x, y, z'
loop_
_atom_type_symbol
_atom_type_oxidation_number
P5+ 5
Mg2+ 2
Na1+ 1
O2- -2
N3- -3
loop_
_atom_site_label
_atom_site_type_symbol
_atom_site_symmetry_multiplicity
_atom_site_Wyckoff_symbol
_atom_site_fract_x
_atom_site_fract_y
_atom_site_fract_z
_atom_site_B_iso_or_equiv
_atom_site_occupancy
_atom_site_attached_hydrogens
P1 P5+ 12 b 0.3424(3) 0.0917(3) 0.2604(4) 1.16(5) 1. 0
Mg1 Mg2+ 4 a 0.5785(3) 0.5785(3) 0.5785(3) 0.82(13) 1. 0
Mg2 Mg2+ 4 a 0.3956(5) 0.3956(5) 0.3956(5) 1.31(14) 1. 0
Na1 Na1+ 4 a 0.0367(3) 0.0367(3) 0.0367(3) 1.08(14) 1. 0
Na2 Na1+ 4 a 0.7923(4) 0.7923(4) 0.7923(4) 1.7(2) 1. 0
O1 O2- 12 b 0.2251(7) 0.0176(6) 0.8686(5) 1.20(9) 1. 0
O2 O2- 12 b 0.4009(6) 0.0046(6) 0.1329(5) 1.20(9) 1. 0
O3 O2- 12 b 0.4574(6) 0.1934(5) 0.3283(6) 1.20(9) 1. 0
N1 N3- 4 a 0.1956(6) 0.1956(6) 0.1956(6) 1.5(3) 1. 0
#End of TTdata_186877-ICSD