
#(C) 2019 by FIZ Karlsruhe - Leibniz Institute for Information Infrastructure.  All rights reserved.
data_186900-ICSD
_database_code_ICSD 186900
_audit_creation_date 2013-08-01
_audit_update_record 2014-08-01
_chemical_name_systematic 'Lithium sodium tetraborate'
_chemical_formula_structural 'Li Na (B4 O7)'
_chemical_formula_sum 'B4 Li1 Na1 O7'
_chemical_name_structure_type LiNaB2O7
_exptl_crystal_density_diffrn 2.56
_cell_measurement_temperature 290.
_publ_section_title

;
Linear and nonlinear optical susceptibilities and hyperpolarizability of
borate Li Na B4 O7 single crystals: Theory and experiment
;
loop_
_citation_id
_citation_journal_full
_citation_year
_citation_journal_volume
_citation_page_first
_citation_page_last
_citation_journal_id_ASTM
primary 'Journal of Applied Physics (Melville, NY, United States)' 2012 112
053526-1 053526-11 JAPIAU
loop_
_publ_author_name
'Reshak, Ali Hussain'
'Chen, Xuean'
'Auluck, S.'
'Kamarudin, H.'
_cell_length_a 13.326(3)
_cell_length_b 14.072(3)
_cell_length_c 10.238(2)
_cell_angle_alpha 90.
_cell_angle_beta 90.
_cell_angle_gamma 90.
_cell_volume 1919.87
_cell_formula_units_Z 16
_symmetry_space_group_name_H-M 'F d d 2'
_symmetry_Int_Tables_number 43
_refine_ls_R_factor_all 0.0327
loop_
_symmetry_equiv_pos_site_id
_symmetry_equiv_pos_as_xyz
1 'x+1/4, -y+1/4, z+1/4'
2 '-x+1/4, y+1/4, z+1/4'
3 '-x, -y, z'
4 'x, y, z'
5 'x+1/4, -y+3/4, z+3/4'
6 '-x+1/4, y+3/4, z+3/4'
7 '-x, -y+1/2, z+1/2'
8 'x, y+1/2, z+1/2'
9 'x+3/4, -y+1/4, z+3/4'
10 '-x+3/4, y+1/4, z+3/4'
11 '-x+1/2, -y, z+1/2'
12 'x+1/2, y, z+1/2'
13 'x+3/4, -y+3/4, z+1/4'
14 '-x+3/4, y+3/4, z+1/4'
15 '-x+1/2, -y+1/2, z'
16 'x+1/2, y+1/2, z'
loop_
_atom_type_symbol
_atom_type_oxidation_number
Li1+ 1
Na1+ 1
B3+ 3
O2- -2
loop_
_atom_site_label
_atom_site_type_symbol
_atom_site_symmetry_multiplicity
_atom_site_Wyckoff_symbol
_atom_site_fract_x
_atom_site_fract_y
_atom_site_fract_z
_atom_site_B_iso_or_equiv
_atom_site_occupancy
_atom_site_attached_hydrogens
Li1 Li1+ 16 b 0.0047(5) 0.3569(7) 0.1220(8) 0.040(2) 1. 0
Na1 Na1+ 16 b 0.10116(11) 0.23889(10) 0.37457(16) 0.0244(4) 1. 0
B1 B3+ 16 b 0.1646(2) 0.22276(18) 0.0797(3) 0.0073(5) 1. 0
B2 B3+ 16 b 0.0447(2) 0.1219(2) -0.0521(3) 0.0091(5) 1. 0
B3 B3+ 16 b 0.2153(2) 0.17260(19) 0.5971(3) 0.0066(5) 1. 0
B4 B3+ 16 b 0.1264(2) 0.0443(2) 0.4655(3) 0.0072(5) 1. 0
O1 O2- 16 b 0.07228(15) 0.20174(14) 0.0105(2) 0.0119(4) 1. 0
O2 O2- 8 a 0.25 0.25 -0.0025(3) 0.0106(5) 1. 0
O3 O2- 16 b 0.19556(15) 0.14068(14) 0.1644(2) 0.0133(4) 1. 0
O4 O2- 16 b 0.13551(15) 0.30374(14) 0.1680(2) 0.0116(4) 1. 0
O5 O2- 16 b 0.20520(13) 0.08226(14) 0.5287(2) 0.0100(4) 1. 0
O6 O2- 8 a 0.25 0.25 0.5145(3) 0.0079(5) 1. 0
O7 O2- 16 b 0.29022(15) 0.15260(14) 0.7021(2) 0.0096(4) 1. 0
O8 O2- 16 b 0.11986(14) 0.20357(14) 0.6642(2) 0.0091(4) 1. 0
#End of TTdata_186900-ICSD