
#(C) 2019 by FIZ Karlsruhe - Leibniz Institute for Information Infrastructure.  All rights reserved.
data_187063-ICSD
_database_code_ICSD 187063
_audit_creation_date 2013-08-01
_chemical_name_systematic 'Bismuth sodium niobium oxide (2.5/0.5/2/9)'
_chemical_formula_structural '(Bi2.5 Na0.5) (Nb2 O9)'
_chemical_formula_sum 'Bi2.5 Na0.5 Nb2 O9'
_chemical_name_structure_type TiNbBi3O9
_exptl_crystal_density_diffrn 7.67
_cell_measurement_temperature 298.
_publ_section_title

;
Effect of lanthanum and tungsten co-substitution on the structure and
properties of new Aurivillius oxides Na0.5 La0.5 Bi2 Nb2-x Wx O9
;
loop_
_citation_id
_citation_journal_full
_citation_year
_citation_journal_volume
_citation_page_first
_citation_page_last
_citation_journal_id_ASTM
primary CrystEngComm 2012 14 7201 7208 CRECF4
loop_
_publ_author_name
'Long, Changbai'
'Fan, Huiqing'
'Li, Mengmeng'
'Li, Qiang'
_cell_length_a 5.48888(9)
_cell_length_b 5.46110(9)
_cell_length_c 24.9512(4)
_cell_angle_alpha 90.
_cell_angle_beta 90.
_cell_angle_gamma 90.
_cell_volume 747.92
_cell_formula_units_Z 4
_symmetry_space_group_name_H-M 'A 21 a m'
_symmetry_Int_Tables_number 36
_refine_ls_R_factor_all 0.0768
loop_
_symmetry_equiv_pos_site_id
_symmetry_equiv_pos_as_xyz
1 'x+1/2, -y, z'
2 'x+1/2, -y, -z'
3 'x, y, -z'
4 'x, y, z'
5 'x+1/2, -y+1/2, z+1/2'
6 'x+1/2, -y+1/2, -z+1/2'
7 'x, y+1/2, -z+1/2'
8 'x, y+1/2, z+1/2'
loop_
_atom_type_symbol
_atom_type_oxidation_number
Bi3+ 3
Na1+ 1
Bi3+ 3
Na1+ 1
Nb5+ 5
O2- -2
loop_
_atom_site_label
_atom_site_type_symbol
_atom_site_symmetry_multiplicity
_atom_site_Wyckoff_symbol
_atom_site_fract_x
_atom_site_fract_y
_atom_site_fract_z
_atom_site_B_iso_or_equiv
_atom_site_occupancy
_atom_site_attached_hydrogens
Bi1 Bi3+ 4 a 0. 0.2363(7) 0. 0.0099(5) 0.5316(22) 0
Na1 Na1+ 4 a 0. 0.2363(7) 0. 0.0099(5) 0.4684(22) 0
Bi2 Bi3+ 8 b 0.5012(6) 0.73085(26) 0.19959(4) 0.01743(19) 0.9842(11) 0
Na2 Na1+ 8 b 0.5012(6) 0.73085(26) 0.19959(4) 0.01743(19) 0.0158(11) 0
Nb1 Nb5+ 8 b 0.4606(5) 0.7457(8) 0.41500(7) 0.0073(5) 1. 0
O1 O2- 4 a 0.424(5) 0.200(6) 0. 0.0248(27) 1. 0
O2 O2- 8 b 0.439(4) 0.807(4) 0.3459(6) 0.0248(27) 1. 0
O3 O2- 8 b 0.729(6) -0.004(10) 0.2461(10) 0.0248(27) 1. 0
O4 O2- 8 b 0.642(4) 0.968(4) 0.0874(7) 0.0248(27) 1. 0
O5 O2- 8 b 0.708(5) 0.957(4) 0.5699(6) 0.0248(27) 1. 0
#End of TTdata_187063-ICSD