
#(C) 2019 by FIZ Karlsruhe - Leibniz Institute for Information Infrastructure.  All rights reserved.
data_187229-ICSD
_database_code_ICSD 187229
_audit_creation_date 2013-08-01
_chemical_name_systematic 'Sodium titanium antimony phosphate (1.5/1.5/0.3/3)'
_chemical_formula_structural 'Na1.5 Ti1.5 Sb0.3 (P O4)3'
_chemical_formula_sum 'Na1.5 O12 P3 Sb0.3 Ti1.5'
_exptl_crystal_density_diffrn 3.15
_publ_section_title

;
Synthesis and structural characterisation of Ag2 Sn Fe (P O4)3 and Na1.5 X1.5
Sb0.3 (P O4)3  (X = Ti, Sn) nasicon-like phosphates
;
loop_
_citation_id
_citation_journal_full
_citation_year
_citation_journal_volume
_citation_page_first
_citation_page_last
_citation_journal_id_ASTM
primary 'Global Journal of Physical Chemistry' 2011 2 129 135 GJPCA8
loop_
_publ_author_name
'Aatiq, A.'
'Haggouch, B.'
'Tigha, R.'
_cell_length_a 8.461(1)
_cell_length_b 8.461(1)
_cell_length_c 21.834(2)
_cell_angle_alpha 90.
_cell_angle_beta 90.
_cell_angle_gamma 120.
_cell_volume 1353.65
_cell_formula_units_Z 6
_symmetry_space_group_name_H-M 'R -3 H'
_symmetry_Int_Tables_number 148
_refine_ls_R_factor_all 0.054
loop_
_symmetry_equiv_pos_site_id
_symmetry_equiv_pos_as_xyz
1 'x-y, x, -z'
2 'y, -x+y, -z'
3 '-x, -y, -z'
4 '-x+y, -x, z'
5 '-y, x-y, z'
6 'x, y, z'
7 'x-y+2/3, x+1/3, -z+1/3'
8 'y+2/3, -x+y+1/3, -z+1/3'
9 '-x+2/3, -y+1/3, -z+1/3'
10 '-x+y+2/3, -x+1/3, z+1/3'
11 '-y+2/3, x-y+1/3, z+1/3'
12 'x+2/3, y+1/3, z+1/3'
13 'x-y+1/3, x+2/3, -z+2/3'
14 'y+1/3, -x+y+2/3, -z+2/3'
15 '-x+1/3, -y+2/3, -z+2/3'
16 '-x+y+1/3, -x+2/3, z+2/3'
17 '-y+1/3, x-y+2/3, z+2/3'
18 'x+1/3, y+2/3, z+2/3'
loop_
_atom_type_symbol
_atom_type_oxidation_number
Ti4+ 4
Sb5+ 5
Na1+ 1
Ti4+ 4
Sb5+ 5
Na1+ 1
P5+ 5
O2- -2
loop_
_atom_site_label
_atom_site_type_symbol
_atom_site_symmetry_multiplicity
_atom_site_Wyckoff_symbol
_atom_site_fract_x
_atom_site_fract_y
_atom_site_fract_z
_atom_site_B_iso_or_equiv
_atom_site_occupancy
_atom_site_attached_hydrogens
Ti1 Ti4+ 6 c 0 0 0.1426(2) 1.0(3) 0.86(1) 0
Sb1 Sb5+ 6 c 0 0 0.1426(2) 1.0(3) 0.06(1) 0
Na1 Na1+ 6 c 0 0 0.1426(2) 1.0(3) 0.08(1) 0
Ti2 Ti4+ 6 c 0 0 0.6464(1) 1.0(3) 0.64(1) 0
Sb2 Sb5+ 6 c 0 0 0.6464(1) 1.0(3) 0.24(1) 0
Na2 Na1+ 6 c 0 0 0.6464(1) 1.0(3) 0.12(1) 0
Na3 Na1+ 3 a 0 0 0 0.7(1) 1. 0
Na4 Na1+ 3 b 0 0 0.5 0.7(1) 0.70(1) 0
Na5 Na1+ 18 f 0.3498(2) 0.046(1) 0.385(1) 3.8(1) 0.15(1) 0
P1 P5+ 18 f 0.2856(6) -0.0001(5) 0.2511(4) 0.27(4) 1. 0
O1 O2- 18 f 0.1897(6) 0.1727(3) 0.0839(4) 0.25(5) 1. 0
O2 O2- 18 f 0.1470(4) 0.2100(6) 0.4104(4) 0.25(5) 1. 0
O3 O2- 18 f 0.1738(4) 0.9880(6) 0.1958(5) 0.25(5) 1. 0
O4 O2- 18 f 0.9280(5) 0.1630(4) 0.3090(4) 0.25(5) 1. 0
#End of TTdata_187229-ICSD