
#(C) 2019 by FIZ Karlsruhe - Leibniz Institute for Information Infrastructure.  All rights reserved.
data_187629-ICSD
_database_code_ICSD 187629
_audit_creation_date 2013-08-01
_chemical_name_systematic 'Sodium bismuth calcium titanate (0.44/0.44/0.12/1)'
_chemical_formula_structural '((Na0.5 Bi0.5)0.88 Ca0.12) (Ti O3)'
_chemical_formula_sum 'Bi0.44 Ca0.12 Na0.44 O3 Ti1'
_chemical_name_structure_type Perovskite-GdFeO3
_exptl_crystal_density_diffrn 5.8
_cell_measurement_temperature 293.
_publ_section_title

;
Complex structural phase transitions in slightly Ca modified Na0.5 Bi0.5 Ti O3
;
loop_
_citation_id
_citation_journal_full
_citation_year
_citation_journal_volume
_citation_page_first
_citation_page_last
_citation_journal_id_ASTM
primary 'Journal of Physics: Condensed Matter' 2012 24 455902-1 455902-10 JCOMEL
loop_
_publ_author_name
'Garg, Rohini'
'Senyshyn, Anatoliy'
'Ranjan, Rajeev'
_cell_length_a 5.4592(1)
_cell_length_b 5.4884(1)
_cell_length_c 7.7458(1)
_cell_angle_alpha 90.
_cell_angle_beta 90.
_cell_angle_gamma 90.
_cell_volume 232.08
_cell_formula_units_Z 4
_symmetry_space_group_name_H-M 'P b n m'
_symmetry_Int_Tables_number 62
_refine_ls_R_factor_all 0.0158
loop_
_symmetry_equiv_pos_site_id
_symmetry_equiv_pos_as_xyz
1 '-x+1/2, y+1/2, z'
2 'x, y, -z+1/2'
3 'x+1/2, -y+1/2, z+1/2'
4 '-x, -y, -z'
5 'x+1/2, -y+1/2, -z'
6 '-x, -y, z+1/2'
7 '-x+1/2, y+1/2, -z+1/2'
8 'x, y, z'
loop_
_atom_type_symbol
_atom_type_oxidation_number
Na1+ 1
Bi3+ 3
Ca2+ 2
Ti4+ 4
O2- -2
loop_
_atom_site_label
_atom_site_type_symbol
_atom_site_symmetry_multiplicity
_atom_site_Wyckoff_symbol
_atom_site_fract_x
_atom_site_fract_y
_atom_site_fract_z
_atom_site_B_iso_or_equiv
_atom_site_occupancy
_atom_site_attached_hydrogens
Na1 Na1+ 4 c -0.0002(8) 0.5116(10) 0.25 . 0.44 0
Bi1 Bi3+ 4 c -0.0002(8) 0.5116(10) 0.25 . 0.44 0
Ca1 Ca2+ 4 c -0.0002(8) 0.5116(10) 0.25 . 0.12 0
Ti1 Ti4+ 4 a 0 0 0 0.76(3) 1. 0
O1 O2- 4 c -0.0529(4) -0.0063(7) 0.25 . 1. 0
O2 O2- 8 d 0.2218(2) 0.2764(3) 0.0264(1) . 1. 0
loop_
_atom_site_aniso_label
_atom_site_aniso_type_symbol
_atom_site_aniso_beta_11
_atom_site_aniso_beta_22
_atom_site_aniso_beta_33
_atom_site_aniso_beta_12
_atom_site_aniso_beta_13
_atom_site_aniso_beta_23
Na1 Na1+ 0.0226(10) 0.0477(16) 0.0055(6) -0.00009(9) 0. 0.
Bi1 Bi3+ 0.0226(10) 0.0477(16) 0.0055(6) -0.00009(9) 0. 0.
Ca1 Ca2+ 0.0226(10) 0.0477(16) 0.0055(6) -0.00009(9) 0. 0.
O1 O2- 0.0142(6) 0.0205(9) -0.0006(4) -0.0008(10) 0. 0.
O2 O2- 0.0162(4) 0.0188(5) 0.0041(1) -0.0117(6) 0.0034(3) -0.0030(3)
#End of TTdata_187629-ICSD