
#(C) 2019 by FIZ Karlsruhe - Leibniz Institute for Information Infrastructure.  All rights reserved.
data_187631-ICSD
_database_code_ICSD 187631
_audit_creation_date 2013-08-01
_chemical_name_systematic 'Sodium bismuth calcium titanate (0.47/0.47/0.06/1)'
_chemical_formula_structural '((Na0.5 Bi0.5)0.94 Ca0.06) (Ti O3)'
_chemical_formula_sum 'Bi0.47 Ca0.06 Na0.47 O3 Ti1'
_chemical_name_structure_type LiNbO3
_exptl_crystal_density_diffrn 5.9
_cell_measurement_temperature 293.
_publ_section_title

;
Complex structural phase transitions in slightly Ca modified Na0.5 Bi0.5 Ti O3
;
loop_
_citation_id
_citation_journal_full
_citation_year
_citation_journal_volume
_citation_page_first
_citation_page_last
_citation_journal_id_ASTM
primary 'Journal of Physics: Condensed Matter' 2012 24 455902-1 455902-10 JCOMEL
loop_
_publ_author_name
'Garg, Rohini'
'Senyshyn, Anatoliy'
'Ranjan, Rajeev'
_cell_length_a 5.47889(21)
_cell_length_b 5.47889(21)
_cell_length_c 13.4725(8)
_cell_angle_alpha 90.
_cell_angle_beta 90.
_cell_angle_gamma 120.
_cell_volume 350.24
_cell_formula_units_Z 6
_symmetry_space_group_name_H-M 'R 3 c H'
_symmetry_Int_Tables_number 161
loop_
_symmetry_equiv_pos_site_id
_symmetry_equiv_pos_as_xyz
1 '-x+y, y, z+1/2'
2 'x, x-y, z+1/2'
3 '-y, -x, z+1/2'
4 '-x+y, -x, z'
5 '-y, x-y, z'
6 'x, y, z'
7 '-x+y+2/3, y+1/3, z+5/6'
8 'x+2/3, x-y+1/3, z+5/6'
9 '-y+2/3, -x+1/3, z+5/6'
10 '-x+y+2/3, -x+1/3, z+1/3'
11 '-y+2/3, x-y+1/3, z+1/3'
12 'x+2/3, y+1/3, z+1/3'
13 '-x+y+1/3, y+2/3, z+1/6'
14 'x+1/3, x-y+2/3, z+1/6'
15 '-y+1/3, -x+2/3, z+1/6'
16 '-x+y+1/3, -x+2/3, z+2/3'
17 '-y+1/3, x-y+2/3, z+2/3'
18 'x+1/3, y+2/3, z+2/3'
loop_
_atom_type_symbol
_atom_type_oxidation_number
Na1+ 1
Bi3+ 3
Ca2+ 2
Ti4+ 4
O2- -2
loop_
_atom_site_label
_atom_site_type_symbol
_atom_site_symmetry_multiplicity
_atom_site_Wyckoff_symbol
_atom_site_fract_x
_atom_site_fract_y
_atom_site_fract_z
_atom_site_B_iso_or_equiv
_atom_site_occupancy
_atom_site_attached_hydrogens
Na1 Na1+ 6 a 0 0 0.24227(77) . 0.47 0
Bi1 Bi3+ 6 a 0 0 0.24227(77) . 0.47 0
Ca1 Ca2+ 6 a 0 0 0.24227(77) . 0.06 0
Ti1 Ti4+ 6 a 0 0 -0.00505(0) 0.86(5) 1. 0
O1 O2- 18 b 0.12185(19) 0.33115(0) 0.08333 . 1. 0
loop_
_atom_site_aniso_label
_atom_site_aniso_type_symbol
_atom_site_aniso_beta_11
_atom_site_aniso_beta_22
_atom_site_aniso_beta_33
_atom_site_aniso_beta_12
_atom_site_aniso_beta_13
_atom_site_aniso_beta_23
Na1 Na1+ 0.0209(7) 0.0209(7) 0.0072(3) -0.0104(0) 0. 0.
Bi1 Bi3+ 0.0209(7) 0.0209(7) 0.0072(3) -0.0104(0) 0. 0.
Ca1 Ca2+ 0.0209(7) 0.0209(7) 0.0072(3) -0.0104(0) 0. 0.
O1 O2- 0.0094(10) 0.0127(8) 0.0040(1) -0.0046(12) 0.0017(4) -0.0051(2)
#End of TTdata_187631-ICSD