
#(C) 2019 by FIZ Karlsruhe - Leibniz Institute for Information Infrastructure.  All rights reserved.
data_187750-ICSD
_database_code_ICSD 187750
_audit_creation_date 2013-08-01
_chemical_name_systematic 'Tetrasodium dirubidium decavanadate decahydrate'
_chemical_formula_structural 'Na4 Rb2 (V10 O28) (H2 O)10'
_chemical_formula_sum 'H20 Na4 O38 Rb2 V10'
_chemical_name_structure_type K2NaV5O14(H2O)5
_exptl_crystal_density_diffrn 2.71
_cell_measurement_temperature 293.
_publ_section_title
'Crystal structure of Na4 Rb2 (V10 O28) * 10H2 O, H20 Na4 O38 Rb2 V10'
loop_
_citation_id
_citation_journal_full
_citation_year
_citation_journal_volume
_citation_page_first
_citation_page_last
_citation_journal_id_ASTM
primary 'Zeitschrift fuer Kristallographie - New Crystal Structures' 2012 227
429 430 ZKNSFT
loop_
_publ_author_name
'Hai-Xing Liu'
'Xiao-Yan Ren'
'Jing-Zhong Xiao'
'Hui-Juan Yue'
'Xi-Shi Tai'
_cell_length_a 8.5555(9)
_cell_length_b 10.4476(13)
_cell_length_c 11.2373(15)
_cell_angle_alpha 68.4830(10)
_cell_angle_beta 87.170(2)
_cell_angle_gamma 67.2910(10)
_cell_volume 857.01
_cell_formula_units_Z 1
_symmetry_space_group_name_H-M 'P -1'
_symmetry_Int_Tables_number 2
_refine_ls_R_factor_all 0.0611
loop_
_symmetry_equiv_pos_site_id
_symmetry_equiv_pos_as_xyz
1 '-x, -y, -z'
2 'x, y, z'
loop_
_atom_type_symbol
_atom_type_oxidation_number
Rb1+ 1
Na1+ 1
V5+ 5
O2- -2
H1+ 1
O2- -2
H1+ 1
O2- -2
H1+ 1
O2- -2
H1+ 1
O2- -2
H1+ 1
loop_
_atom_site_label
_atom_site_type_symbol
_atom_site_symmetry_multiplicity
_atom_site_Wyckoff_symbol
_atom_site_fract_x
_atom_site_fract_y
_atom_site_fract_z
_atom_site_B_iso_or_equiv
_atom_site_occupancy
_atom_site_attached_hydrogens
Rb1 Rb1+ 2 i 0.17675(13) 0.20504(11) 0.49370(10) 0.0281(3) 0.5 0
Rb2 Rb1+ 2 i 0.28281(16) 0.82357(12) 0.92667(11) 0.0401(4) 0.5 0
Na1 Na1+ 2 i 0.17675(13) 0.20504(11) 0.49370(10) 0.0281(3) 0.5 0
Na2 Na1+ 2 i 0.28281(16) 0.82357(12) 0.92667(11) 0.0401(4) 0.5 0
Na3 Na1+ 2 i 0.0679(4) 0.3327(3) 0.1268(3) 0.0371(7) 1 0
V1 V5+ 2 i 0.31053(12) 0.49681(10) 0.52043(9) 0.0164(3) 1 0
V2 V5+ 2 i 0.37814(13) 0.78188(10) 0.49840(10) 0.0192(3) 1 0
V3 V5+ 2 i 0.17251(13) 0.78389(11) 0.27801(10) 0.0217(3) 1 0
V4 V5+ 2 i 0.52816(14) 0.79152(11) 0.23642(10) 0.0207(3) 1 0
V5 V5+ 2 i 0.52860(13) 0.49419(11) 0.74117(9) 0.0192(3) 1 0
O1 O2- 2 i 0.4321(5) 0.6242(4) 0.3944(3) 0.0154(9) 1 0
O2 O2- 2 i 0.3169(5) 0.6138(4) 0.6171(4) 0.0178(9) 1 0
O3 O2- 2 i 0.1263(5) 0.6194(4) 0.4279(4) 0.0225(9) 1 0
O4 O2- 2 i 0.3969(5) 0.3804(4) 0.4158(4) 0.0170(9) 1 0
O5 O2- 2 i 0.2626(5) 0.3650(4) 0.6425(4) 0.0208(9) 1 0
O6 O2- 2 i 0.1715(5) 0.8631(4) 0.4037(4) 0.0216(9) 1 0
O7 O2- 2 i 0.4828(5) 0.8689(4) 0.3669(4) 0.0209(9) 1 0
O8 O2- 2 i 0.3438(6) 0.8804(5) 0.5863(4) 0.0290(10) 1 0
O9 O2- 2 i 0.2978(5) 0.8814(4) 0.1768(4) 0.0219(9) 1 0
O10 O2- 2 i -0.0218(6) 0.8819(5) 0.2112(4) 0.0315(11) 1 0
O11 O2- 2 i 0.6093(6) 0.8974(5) 0.1366(4) 0.0315(11) 1 0
O12 O2- 2 i 0.7500(5) 0.3643(4) 0.7944(4) 0.0201(9) 1 0
O13 O2- 2 i 0.4406(5) 0.3570(4) 0.8309(4) 0.0214(9) 1 0
O14 O2- 2 i 0.4945(6) 0.5955(5) 0.8278(4) 0.0270(10) 1 0
O15 O2- 2 i -0.2096(7) 0.5126(5) 0.0146(5) 0.0390(12) 1 0
H1 H1+ 2 i -0.2089 0.5634 -0.0641 0.047 1 0
H2 H1+ 2 i -0.2698 0.5674 0.0539 0.047 1 0
O16 O2- 2 i -0.0349(7) 0.1811(6) 0.2936(5) 0.0486(15) 1 0
H3 H1+ 2 i -0.1419 0.2207 0.2957 0.058 1 0
H4 H1+ 2 i -0.0042 0.0927 0.2954 0.058 1 0
O17 O2- 2 i 0.0738(7) 0.1739(6) 0.0243(5) 0.0461(14) 1 0
H5 H1+ 2 i 0.1518 0.0869 0.0596 0.055 1 0
H6 H1+ 2 i 0.0841 0.2096 -0.0555 0.055 1 0
O18 O2- 2 i 0.0226(7) 0.4878(6) 0.2441(5) 0.0473(14) 1 0
H7 H1+ 2 i 0.0803 0.5417 0.2231 0.057 1 0
H8 H1+ 2 i -0.082 0.5403 0.244 0.057 1 0
O19 O2- 2 i 0.3424(7) 0.1810(5) 0.2488(5) 0.0462(14) 1 0
H9 H1+ 2 i 0.3846 0.0925 0.2497 0.055 1 0
H10 H1+ 2 i 0.4137 0.2219 0.2285 0.055 1 0
loop_
_atom_site_aniso_label
_atom_site_aniso_type_symbol
_atom_site_aniso_U_11
_atom_site_aniso_U_22
_atom_site_aniso_U_33
_atom_site_aniso_U_12
_atom_site_aniso_U_13
_atom_site_aniso_U_23
Rb1 Rb1+ 0.0296(6) 0.0205(5) 0.0387(6) -0.0100(4) 0.0040(4) -0.0160(4)
Rb2 Rb1+ 0.0471(8) 0.0264(6) 0.0352(7) 0.0003(5) -0.0045(5) -0.0140(5)
Na1 Na1+ 0.0296(6) 0.0205(5) 0.0387(6) -0.0100(4) 0.0040(4) -0.0160(4)
Na2 Na1+ 0.0471(8) 0.0264(6) 0.0352(7) 0.0003(5) -0.0045(5) -0.0140(5)
Na3 Na1+ 0.0404(18) 0.0267(14) 0.0487(17) -0.0151(13) 0.0031(13) -0.0170(13)
V1 V5+ 0.0164(6) 0.0123(5) 0.0214(6) -0.0055(4) 0.0009(4) -0.0076(4)
V2 V5+ 0.0237(6) 0.0111(5) 0.0238(6) -0.0053(4) 0.0006(4) -0.0088(4)
V3 V5+ 0.0197(6) 0.0159(5) 0.0264(6) -0.0048(4) -0.0030(4) -0.0063(4)
V4 V5+ 0.0229(6) 0.0148(5) 0.0238(6) -0.0081(4) 0.0009(4) -0.0057(4)
V5 V5+ 0.0244(6) 0.0147(5) 0.0203(6) -0.0068(4) 0.0007(4) -0.0092(4)
O1 O2- 0.019(2) 0.0100(18) 0.016(2) -0.0049(16) 0.0025(16) -0.0051(16)
O2 O2- 0.019(2) 0.017(2) 0.020(2) -0.0072(17) 0.0010(16) -0.0094(17)
O3 O2- 0.022(2) 0.017(2) 0.029(2) -0.0070(17) 0.0001(17) -0.0084(18)
O4 O2- 0.016(2) 0.0139(19) 0.020(2) -0.0046(16) -0.0006(16) -0.0067(16)
O5 O2- 0.017(2) 0.018(2) 0.027(2) -0.0063(17) -0.0005(16) -0.0086(17)
O6 O2- 0.021(2) 0.015(2) 0.027(2) -0.0034(17) 0.0027(17) -0.0092(18)
O7 O2- 0.024(2) 0.0120(19) 0.027(2) -0.0055(17) -0.0003(17) -0.0086(17)
O8 O2- 0.037(3) 0.020(2) 0.036(3) -0.010(2) 0.000(2) -0.018(2)
O9 O2- 0.023(2) 0.015(2) 0.025(2) -0.0064(17) -0.0033(17) -0.0053(17)
O10 O2- 0.028(3) 0.022(2) 0.037(3) -0.0052(19) -0.007(2) -0.007(2)
O11 O2- 0.040(3) 0.018(2) 0.034(3) -0.014(2) 0.002(2) -0.005(2)
O12 O2- 0.021(2) 0.016(2) 0.024(2) -0.0069(17) -0.0044(16) -0.0079(17)
O13 O2- 0.024(2) 0.016(2) 0.023(2) -0.0055(17) 0.0014(17) -0.0086(18)
O14 O2- 0.035(3) 0.025(2) 0.030(2) -0.013(2) 0.0054(19) -0.018(2)
O15 O2- 0.041(3) 0.042(3) 0.034(3) -0.014(2) 0.012(2) -0.017(2)
O16 O2- 0.043(3) 0.032(3) 0.069(4) -0.013(2) 0.029(3) -0.022(3)
O17 O2- 0.058(4) 0.036(3) 0.028(3) -0.001(3) -0.004(2) -0.011(2)
O18 O2- 0.046(3) 0.058(4) 0.070(4) -0.031(3) 0.026(3) -0.050(3)
O19 O2- 0.042(3) 0.023(2) 0.073(4) -0.011(2) -0.009(3) -0.018(3)
#End of TTdata_187750-ICSD