
#(C) 2019 by FIZ Karlsruhe - Leibniz Institute for Information Infrastructure.  All rights reserved.
data_187846-ICSD
_database_code_ICSD 187846
_audit_creation_date 2013-08-01
_chemical_name_systematic 'Sodium nonaneodymium hexasilicate dioxide'
_chemical_formula_structural 'Na Nd9 (Si O4)6 O2'
_chemical_formula_sum 'Na1 Nd9 O26 Si6'
_chemical_name_structure_type Apatite#-(HE,P63/m)
_exptl_crystal_density_diffrn 5.71
_publ_section_title 'Synthesis and study of Na Nd9 (Si O4)6 O2'
loop_
_citation_id
_citation_journal_full
_citation_year
_citation_journal_volume
_citation_page_first
_citation_page_last
_citation_journal_id_ASTM
primary 'Russian Journal of Inorganic Chemistry' 2013 58 265 268 RJICAQ
loop_
_publ_author_name
'Get'man, E.I.'
'Borisova, E.V.'
'Loboda, S.N.'
'Ignatov, A.V.'
_cell_length_a 9.5416(7)
_cell_length_b 9.5416(7)
_cell_length_c 7.0282(5)
_cell_angle_alpha 90.
_cell_angle_beta 90.
_cell_angle_gamma 120.
_cell_volume 554.14
_cell_formula_units_Z 1
_symmetry_space_group_name_H-M 'P 63/m'
_symmetry_Int_Tables_number 176
_refine_ls_R_factor_all 0.0501
loop_
_symmetry_equiv_pos_site_id
_symmetry_equiv_pos_as_xyz
1 '-x+y, -x, -z+1/2'
2 '-y, x-y, -z+1/2'
3 'x, y, -z+1/2'
4 'x-y, x, -z'
5 'y, -x+y, -z'
6 '-x, -y, -z'
7 'x-y, x, z+1/2'
8 'y, -x+y, z+1/2'
9 '-x, -y, z+1/2'
10 '-x+y, -x, z'
11 '-y, x-y, z'
12 'x, y, z'
loop_
_atom_type_symbol
_atom_type_oxidation_number
Nd3+ 3
Na1+ 1
Nd3+ 3
Si4+ 4
O2- -2
loop_
_atom_site_label
_atom_site_type_symbol
_atom_site_symmetry_multiplicity
_atom_site_Wyckoff_symbol
_atom_site_fract_x
_atom_site_fract_y
_atom_site_fract_z
_atom_site_B_iso_or_equiv
_atom_site_occupancy
_atom_site_attached_hydrogens
Nd1 Nd3+ 4 f 0.6667 0.3333 0.006(2) 0.9(2) 0.736(7) 0
Na1 Na1+ 4 f 0.6667 0.3333 0.006(2) 0.9(2) 0.264(7) 0
Nd2 Nd3+ 6 h 0.2321(6) 0.9877(9) 0.25 0.6(1) 1. 0
Si1 Si4+ 6 h 0.404(3) 0.369(4) 0.25 3.2(8) 1. 0
O1 O2- 6 h 0.322(6) 0.487(8) 0.25 3.0(7) 1. 0
O2 O2- 6 h 0.603(8) 0.471(5) 0.25 3.0(7) 1. 0
O3 O2- 12 i 0.332(3) 0.246(3) 0.061(4) 3.0(7) 1. 0
O4 O2- 2 a 0 0 0.25 3.0(7) 1. 0
#End of TTdata_187846-ICSD