
#(C) 2019 by FIZ Karlsruhe - Leibniz Institute for Information Infrastructure.  All rights reserved.
data_188584-ICSD
_database_code_ICSD 188584
_audit_creation_date 2014-02-01
_chemical_name_systematic 'Sodium rhodium oxide (1/1.86/4)'
_chemical_formula_structural 'Na (Rh1.86 O4)'
_chemical_formula_sum 'Na1 O4 Rh1.86'
_chemical_name_structure_type CaV2O4-defect
_exptl_crystal_density_diffrn 6.27
_publ_section_title
'Metal-insulator transition in Na-doped post-spinel Cd Rh2 O4'
loop_
_citation_id
_citation_journal_full
_citation_year
_citation_journal_volume
_citation_page_first
_citation_page_last
_citation_journal_id_ASTM
primary 'Journal of Alloys and Compounds' 2013 563 119 123 JALCEU
loop_
_publ_author_name
'Wang, Xia'
'Guo, Yanfeng'
'Sun, Ying'
'Yamaura, Kazunari'
_cell_length_a 8.9625(2)
_cell_length_b 3.03938(7)
_cell_length_c 10.6987(2)
_cell_angle_alpha 90.
_cell_angle_beta 90.
_cell_angle_gamma 90.
_cell_volume 291.44
_cell_formula_units_Z 4
_symmetry_space_group_name_H-M 'P n m a'
_symmetry_Int_Tables_number 62
_refine_ls_R_factor_all 0.0431
loop_
_symmetry_equiv_pos_site_id
_symmetry_equiv_pos_as_xyz
1 'x+1/2, y, -z+1/2'
2 'x, -y+1/2, z'
3 '-x+1/2, y+1/2, z+1/2'
4 '-x, -y, -z'
5 '-x+1/2, -y, z+1/2'
6 '-x, y+1/2, -z'
7 'x+1/2, -y+1/2, -z+1/2'
8 'x, y, z'
loop_
_atom_type_symbol
_atom_type_oxidation_number
Na1+ 1
Rh3+ 3.76
O2- -2
loop_
_atom_site_label
_atom_site_type_symbol
_atom_site_symmetry_multiplicity
_atom_site_Wyckoff_symbol
_atom_site_fract_x
_atom_site_fract_y
_atom_site_fract_z
_atom_site_B_iso_or_equiv
_atom_site_occupancy
_atom_site_attached_hydrogens
Na1 Na1+ 4 c 0.7638(7) 0.25 0.6494(5) 0.2(1) 1. 0
Rh1 Rh3+ 4 c 0.4151(1) 0.25 0.1026(1) 0.03(4) 0.920(7) 0
Rh2 Rh3+ 4 c 0.4464(1) 0.25 0.6167(1) 0.68(5) 0.939(8) 0
O1 O2- 4 c 0.197(1) 0.25 0.1557(7) 0.1 1. 0
O2 O2- 4 c 0.1089(9) 0.25 0.4665(8) 0.1 1. 0
O3 O2- 4 c 0.5256(9) 0.25 0.7917(7) 0.1 1. 0
O4 O2- 4 c 0.4242(9) 0.25 0.4205(6) 0.1 1. 0
#End of TTdata_188584-ICSD