
#(C) 2019 by FIZ Karlsruhe - Leibniz Institute for Information Infrastructure.  All rights reserved.
data_188685-ICSD
_database_code_ICSD 188685
_audit_creation_date 2014-02-01
_chemical_name_systematic
'Potassium sodium molybdenum oxide arsenate (0.78/0.22/1/2/1)'
_chemical_formula_structural '(K0.78 Na0.22) (Mo O2) (As O4)'
_chemical_formula_sum 'As1 K0.78 Mo1 Na0.22 O6'
_exptl_crystal_density_diffrn 4.12
_cell_measurement_temperature 298.
_publ_section_title 'K0.78 Na0.22 Mo O2 As O4'
loop_
_citation_id
_citation_journal_full
_citation_year
_citation_journal_volume
_citation_page_first
_citation_page_last
_citation_journal_id_ASTM
primary 'Acta Crystallographica, Section E: Structure Reports Online' 2013 69
i47 i47 ACSEBH
loop_
_publ_author_name
'Raja Jouini'
'Chahira Bouzidi'
'Mohamed Faouzi Zid'
'Ahmed Driss'
_cell_length_a 10.5672(9)
_cell_length_b 6.6323(8)
_cell_length_c 6.9621(8)
_cell_angle_alpha 90.
_cell_angle_beta 90.
_cell_angle_gamma 90.
_cell_volume 487.94
_cell_formula_units_Z 4
_symmetry_space_group_name_H-M 'P n m a'
_symmetry_Int_Tables_number 62
_refine_ls_R_factor_all 0.0246
loop_
_symmetry_equiv_pos_site_id
_symmetry_equiv_pos_as_xyz
1 'x+1/2, y, -z+1/2'
2 'x, -y+1/2, z'
3 '-x+1/2, y+1/2, z+1/2'
4 '-x, -y, -z'
5 '-x+1/2, -y, z+1/2'
6 '-x, y+1/2, -z'
7 'x+1/2, -y+1/2, -z+1/2'
8 'x, y, z'
loop_
_atom_type_symbol
_atom_type_oxidation_number
Mo6+ 6
As5+ 5
K1+ 1
Na1+ 1
O2- -2
loop_
_atom_site_label
_atom_site_type_symbol
_atom_site_symmetry_multiplicity
_atom_site_Wyckoff_symbol
_atom_site_fract_x
_atom_site_fract_y
_atom_site_fract_z
_atom_site_B_iso_or_equiv
_atom_site_occupancy
_atom_site_attached_hydrogens
Mo1 Mo6+ 4 c 0.33773(3) 0.25 0.04848(5) 0.0073(2) 1 0
As1 As5+ 4 c 0.15597(4) 0.25 0.46230(6) 0.0063(2) 1 0
K1 K1+ 4 a 0. 0. 1. 0.026(2) 0.78(4) 0
Na1 Na1+ 8 d 0.019(4) 0.004(7) 0.909(13) 0.045(8) 0.11(2) 0
O1 O2- 4 c 0.4059(3) 0.25 0.8266(5) 0.0162(7) 1 0
O2 O2- 4 c 0.5287(3) 0.25 0.1823(5) 0.0112(6) 1 0
O3 O2- 4 c 0.1832(3) 0.25 0.9890(5) 0.0221(8) 1 0
O4 O2- 8 d 0.1507(2) 0.0449(4) 0.6066(3) 0.0135(5) 1 0
O5 O2- 4 c 0.2973(3) 0.25 0.3516(4) 0.0108(6) 1 0
loop_
_atom_site_aniso_label
_atom_site_aniso_type_symbol
_atom_site_aniso_U_11
_atom_site_aniso_U_22
_atom_site_aniso_U_33
_atom_site_aniso_U_12
_atom_site_aniso_U_13
_atom_site_aniso_U_23
Mo1 Mo6+ 0.0091(3) 0.0092(3) 0.0037(3) 0. -0.00043(12) 0.
As1 As5+ 0.0082(3) 0.0069(3) 0.0038(3) 0. 0.00037(14) 0.
K1 K1+ 0.0228(19) 0.0218(13) 0.034(5) -0.0057(8) 0.0014(16) -0.0102(19)
Na1 Na1+ 0.050(17) 0.039(15) 0.05(2) -0.019(11) 0.011(16) -0.025(18)
O1 O2- 0.0176(15) 0.0227(17) 0.0082(15) 0. 0.0042(12) 0.
O2 O2- 0.0107(12) 0.0181(16) 0.0047(14) 0. 0.0007(13) 0.
O3 O2- 0.0126(14) 0.042(2) 0.0118(16) 0. -0.0015(14) 0.
O4 O2- 0.0235(13) 0.0091(10) 0.0079(10) -0.0024(8) 0.0005(9) 0.0024(8)
O5 O2- 0.0081(13) 0.0167(15) 0.0076(14) 0. 0.0014(11) 0.
#End of TTdata_188685-ICSD