
#(C) 2019 by FIZ Karlsruhe - Leibniz Institute for Information Infrastructure.  All rights reserved.
data_188636-ICSD
_database_code_ICSD 188636
_audit_creation_date 2014-02-01
_chemical_name_systematic 'Barium sodium zinc boron oxide (4/2/4/18/36)'
_chemical_formula_structural 'Ba4 Na2 Zn4 (B3 O6)2 (B12 O24)'
_chemical_formula_sum 'B18 Ba4 Na2 O36 Zn4'
_exptl_crystal_density_diffrn 3.62
_cell_measurement_temperature 290.
_publ_section_title

;
Synthesis, crystal structure, spectrum properties, and electronic structure of
a new three-borate Ba4 Na2 Zn4 (B3 O6)2 (B12 O24) with two isolated types of
blocks: 3[3.DELTA.] and 3[2.DELTA. + 1T]
;
loop_
_citation_id
_citation_journal_full
_citation_year
_citation_journal_volume
_citation_page_first
_citation_page_last
_citation_journal_id_ASTM
primary 'Journal of Alloys and Compounds' 2013 568 60 67 JALCEU
loop_
_publ_author_name
'Chen, Xuean'
'Chen, Yanjun'
'Sun, Chong'
'Chang, Xinan'
'Xiao, Weiqiang'
_cell_length_a 7.0288(14)
_cell_length_b 7.0687(14)
_cell_length_c 17.501(4)
_cell_angle_alpha 91.92(3)
_cell_angle_beta 96.46(3)
_cell_angle_gamma 119.72(3)
_cell_volume 746.33
_cell_formula_units_Z 1
_symmetry_space_group_name_H-M 'P -1'
_symmetry_Int_Tables_number 2
_refine_ls_R_factor_all 0.0587
loop_
_symmetry_equiv_pos_site_id
_symmetry_equiv_pos_as_xyz
1 '-x, -y, -z'
2 'x, y, z'
loop_
_atom_type_symbol
_atom_type_oxidation_number
Na1+ 1
Ba2+ 2
Zn2+ 2
B3+ 3
O2- -2
loop_
_atom_site_label
_atom_site_type_symbol
_atom_site_symmetry_multiplicity
_atom_site_Wyckoff_symbol
_atom_site_fract_x
_atom_site_fract_y
_atom_site_fract_z
_atom_site_B_iso_or_equiv
_atom_site_occupancy
_atom_site_attached_hydrogens
Na1 Na1+ 2 i -0.5486(11) 0.4507(11) -0.0431(4) 0.013(2) 0.47(1) 0
Na2 Na1+ 2 i 0.3387(13) 0.3652(13) -0.0743(5) 0.0282(15) 0.53(1) 0
Ba1 Ba2+ 2 i -0.64890(7) -0.31701(7) -0.44026(3) 0.01588(15) 1. 0
Ba2 Ba2+ 2 i -0.23144(9) -0.16786(8) -0.18337(3) 0.02425(17) 1. 0
Zn1 Zn2+ 2 i -0.13299(15) -0.52278(16) 0.22691(6) 0.0186(2) 1. 0
Zn2 Zn2+ 2 i 0.27691(15) -0.38442(15) 0.36088(6) 0.0163(2) 1. 0
B1 B3+ 2 i -0.7399(16) 0.1985(16) -0.2380(6) 0.0212(18) 1. 0
B2 B3+ 2 i -0.6124(15) -0.0602(14) -0.2591(6) 0.0178(16) 1. 0
B3 B3+ 2 i -0.3324(17) 0.3331(15) -0.2097(6) 0.0204(18) 1. 0
B4 B3+ 2 i -0.227(2) 0.2982(18) -0.0668(7) 0.035(3) 1. 0
B5 B3+ 2 i -0.084(2) 0.0791(19) -0.0001(7) 0.033(3) 1. 0
B6 B3+ 2 i -0.2671(18) 0.2508(19) 0.0679(7) 0.031(2) 1. 0
B7 B3+ 2 i 0.0168(15) -0.1986(14) 0.4082(6) 0.0173(16) 1. 0
B8 B3+ 2 i 0.1367(14) 0.1918(14) 0.4169(6) 0.0162(15) 1. 0
B9 B3+ 2 i -0.2537(14) -0.0813(13) 0.4142(5) 0.0147(15) 1. 0
O1 O2- 2 i -0.9079(11) 0.2300(11) -0.2284(5) 0.0267(14) 1. 0
O2 O2- 2 i -0.7839(10) -0.0135(10) -0.2580(4) 0.0220(12) 1. 0
O3 O2- 2 i -0.5249(11) 0.3668(11) -0.2273(6) 0.040(2) 1. 0
O4 O2- 2 i -0.6479(10) -0.2569(10) -0.2874(4) 0.0213(12) 1. 0
O5 O2- 2 i -0.3970(10) 0.1038(9) -0.2308(4) 0.0196(12) 1. 0
O6 O2- 2 i -0.1644(10) 0.4828(10) -0.2532(4) 0.0187(11) 1. 0
O7 O2- 2 i -0.2611(19) 0.3983(12) -0.1279(5) 0.045(2) 1. 0
O8 O2- 2 i -0.1277(14) 0.1775(15) -0.0676(4) 0.0375(18) 1. 0
O9 O2- 2 i -0.1561(12) -0.1509(12) -0.0207(5) 0.0334(17) 1. 0
O10 O2- 2 i -0.1768(15) 0.1172(15) 0.0674(5) 0.040(2) 1. 0
O11 O2- 2 i -0.3274(12) 0.3150(15) 0.1300(5) 0.0380(19) 1. 0
O12 O2- 2 i -0.3004(17) 0.3350(14) 0.0002(5) 0.044(2) 1. 0
O13 O2- 2 i 0.0598(3) -0.3602(9) 0.4145(4) 0.0198(12) 1. 0
O14 O2- 2 i 0.1806(10) 0.0218(9) 0.4075(4) 0.0217(13) 1. 0
O15 O2- 2 i 0.3025(10) 0.3959(10) 0.4202(4) 0.0219(12) 1. 0
O16 O2- 2 i -0.0780(9) 0.1362(9) 0.4266(4) 0.0192(12) 1. 0
O17 O2- 2 i -0.4590(9) -0.1181(10) 0.4137(4) 0.0196(12) 1. 0
O18 O2- 2 i -0.2005(9) -0.2429(9) 0.4074(4) 0.0197(12) 1. 0
#End of TTdata_188636-ICSD