
#(C) 2019 by FIZ Karlsruhe - Leibniz Institute for Information Infrastructure.  All rights reserved.
data_188865-ICSD
_database_code_ICSD 188865
_audit_creation_date 2014-02-01
_chemical_name_systematic 'Sodium tantalate niobate (1/0.1/0.9)'
_chemical_formula_structural 'Na ((Ta0.1 Nb0.9) O3)'
_chemical_formula_sum 'Na1 Nb0.9 O3 Ta0.1'
_chemical_name_structure_type Perovskite-NaNbO3
_exptl_crystal_density_diffrn 4.74
_publ_section_title

;
Investigation into the structure of ceramic Lix Na1-x Ta0.1 Nb0.9 O3 solid
solutions by X-ray analysis and Raman spectroscopy
;
loop_
_citation_id
_citation_journal_full
_citation_year
_citation_journal_volume
_citation_page_first
_citation_page_last
_citation_journal_id_ASTM
primary 'Crystallography Reports' 2013 58 541 547 CYSTE3
loop_
_publ_author_name
'N.V. Sidorov'
'M.N. Palatnikov'
'N.A. Teplyakova'
'E.Yu. Obryadina'
'L.A. Alyoshina'
'N.A. Evdokimova'
'E.P. Feklistova'
_cell_length_a 5.463(6)
_cell_length_b 5.695(3)
_cell_length_c 15.561(1)
_cell_angle_alpha 90.
_cell_angle_beta 90.
_cell_angle_gamma 90.
_cell_volume 484.13
_cell_formula_units_Z 8
_symmetry_space_group_name_H-M 'P b c m'
_symmetry_Int_Tables_number 57
_refine_ls_R_factor_all 0.058
loop_
_symmetry_equiv_pos_site_id
_symmetry_equiv_pos_as_xyz
1 'x, -y+1/2, z+1/2'
2 '-x, y+1/2, z'
3 'x, y, -z+1/2'
4 '-x, -y, -z'
5 '-x, y+1/2, -z+1/2'
6 'x, -y+1/2, -z'
7 '-x, -y, z+1/2'
8 'x, y, z'
loop_
_atom_type_symbol
_atom_type_oxidation_number
Nb5+ 5
Ta5+ 5
Na1+ 1
O2- -2
loop_
_atom_site_label
_atom_site_type_symbol
_atom_site_symmetry_multiplicity
_atom_site_Wyckoff_symbol
_atom_site_fract_x
_atom_site_fract_y
_atom_site_fract_z
_atom_site_B_iso_or_equiv
_atom_site_occupancy
_atom_site_attached_hydrogens
Nb1 Nb5+ 8 e 0.241(8) 0.266(8) 0.125(3) 0.381(0) 0.9 0
Ta1 Ta5+ 8 e 0.241(8) 0.266(8) 0.125(3) 0.381(0) 0.1 0
Na1 Na1+ 4 c 0.259(6) 0.75 0 0.767(7) 1. 0
Na2 Na1+ 4 d 0.256(8) 0.779(6) 0.25 0.700(0) 1. 0
O1 O2- 4 c 0.311(5) 0.25 0 0.311(9) 1. 0
O2 O2- 4 d 0.172(1) 0.252(1) 0.25 0.300(0) 1. 0
O3 O2- 8 e 0.531(2) 0.031(8) 0.140(0) 0.409(6) 1. 0
O4 O2- 8 e 0.960(5) 0.447(7) 0.113(4) 0.415(0) 1. 0
#End of TTdata_188865-ICSD