
#(C) 2019 by FIZ Karlsruhe - Leibniz Institute for Information Infrastructure.  All rights reserved.
data_188868-ICSD
_database_code_ICSD 188868
_audit_creation_date 2014-02-01
_chemical_name_systematic 'Lithium sodium tantalate niobate (0.16/0.84/0.1/0.9)'
_chemical_formula_structural '(Li0.16 Na0.84) ((Ta0.1 Nb0.9) O3)'
_chemical_formula_sum 'Li0.16 Na0.84 Nb0.9 O3 Ta0.1'
_chemical_name_structure_type Perovskite-GdFeO3
_exptl_crystal_density_diffrn 5.13
_publ_section_title

;
Investigation into the structure of ceramic Lix Na1-x Ta0.1 Nb0.9 O3 solid
solutions by X-ray analysis and Raman spectroscopy
;
loop_
_citation_id
_citation_journal_full
_citation_year
_citation_journal_volume
_citation_page_first
_citation_page_last
_citation_journal_id_ASTM
primary 'Crystallography Reports' 2013 58 541 547 CYSTE3
loop_
_publ_author_name
'N.V. Sidorov'
'M.N. Palatnikov'
'N.A. Teplyakova'
'E.Yu. Obryadina'
'L.A. Alyoshina'
'N.A. Evdokimova'
'E.P. Feklistova'
_cell_length_a 5.213(4)
_cell_length_b 5.526(2)
_cell_length_c 7.653(2)
_cell_angle_alpha 90.
_cell_angle_beta 90.
_cell_angle_gamma 90.
_cell_volume 220.46
_cell_formula_units_Z 4
_symmetry_space_group_name_H-M 'P b n m'
_symmetry_Int_Tables_number 62
_refine_ls_R_factor_all 0.081
loop_
_symmetry_equiv_pos_site_id
_symmetry_equiv_pos_as_xyz
1 '-x+1/2, y+1/2, z'
2 'x, y, -z+1/2'
3 'x+1/2, -y+1/2, z+1/2'
4 '-x, -y, -z'
5 'x+1/2, -y+1/2, -z'
6 '-x, -y, z+1/2'
7 '-x+1/2, y+1/2, -z+1/2'
8 'x, y, z'
loop_
_atom_type_symbol
_atom_type_oxidation_number
Na1+ 1
Li1+ 1
Nb5+ 5
Ta5+ 5
O2- -2
loop_
_atom_site_label
_atom_site_type_symbol
_atom_site_symmetry_multiplicity
_atom_site_Wyckoff_symbol
_atom_site_fract_x
_atom_site_fract_y
_atom_site_fract_z
_atom_site_B_iso_or_equiv
_atom_site_occupancy
_atom_site_attached_hydrogens
Na1 Na1+ 4 c 0.003(1) 0.526(9) 0.25 1.03(1) 0.84 0
Li1 Li1+ 4 c 0.003(1) 0.526(9) 0.25 1.03(1) 0.16 0
Nb1 Nb5+ 4 a 0 0 0 0.39(5) 0.9 0
Ta1 Ta5+ 4 a 0 0 0 0.39(5) 0.1 0
O1 O2- 4 c -0.065(3) -0.023(8) 0.25 0.66(6) 1. 0
O2 O2- 8 d 0.207(4) 0.294(0) 0.040(1) 0.6 1. 0
#End of TTdata_188868-ICSD