
#(C) 2019 by FIZ Karlsruhe - Leibniz Institute for Information Infrastructure.  All rights reserved.
data_189046-ICSD
_database_code_ICSD 189046
_audit_creation_date 2014-02-01
_audit_update_record 2016-02-01
_chemical_name_systematic 'Sodium europium bismuth tungstate (5/0.8/0.2/4)'
_chemical_formula_structural 'Na5 (Eu0.8 Bi0.2) (W O4)4'
_chemical_formula_sum 'Bi0.2 Eu0.8 Na5 O16 W4'
_chemical_name_structure_type Na5Lu(WO4)4
_exptl_crystal_density_diffrn 5.54
_publ_section_title

;
Photoluminescence properties of M(3+) (M(3+) = Bi(3+), Sm(3+)) activated Na5
Eu (W O4)4 red-emitting phosphors for white LEDs
;
loop_
_citation_id
_citation_journal_full
_citation_year
_citation_journal_volume
_citation_page_first
_citation_page_last
_citation_journal_id_ASTM
primary 'Journal of Alloys and Compounds' 2013 554 312 318 JALCEU
loop_
_publ_author_name
'Huang, Decai'
'Zhou, Youfu'
'Xu, Wentao'
'Yang, Zhangfu'
'Liu, Zhuguang'
'Hong, Maochun'
'Lin, Yuanhua'
'Yu, Jianchang'
_cell_length_a 11.53102(24)
_cell_length_b 11.53102(24)
_cell_length_c 11.45864(25)
_cell_angle_alpha 90.
_cell_angle_beta 90.
_cell_angle_gamma 90.
_cell_volume 1523.59
_cell_formula_units_Z 4
_symmetry_space_group_name_H-M 'I 41/a Z'
_symmetry_Int_Tables_number 88
_refine_ls_R_factor_all 0.0534
loop_
_symmetry_equiv_pos_site_id
_symmetry_equiv_pos_as_xyz
1 '-y+3/4, x+3/4, -z+3/4'
2 'y+1/4, -x+3/4, -z+3/4'
3 'x, y+1/2, -z'
4 '-x, -y, -z'
5 'y+1/4, -x+1/4, z+1/4'
6 '-y+3/4, x+1/4, z+1/4'
7 '-x, -y+1/2, z'
8 'x, y, z'
9 '-y+1/4, x+1/4, -z+1/4'
10 'y+3/4, -x+1/4, -z+1/4'
11 'x+1/2, y, -z+1/2'
12 '-x+1/2, -y+1/2, -z+1/2'
13 'y+3/4, -x+3/4, z+3/4'
14 '-y+1/4, x+3/4, z+3/4'
15 '-x+1/2, -y, z+1/2'
16 'x+1/2, y+1/2, z+1/2'
loop_
_atom_type_symbol
_atom_type_oxidation_number
Na1+ 1
Bi3+ 3
Eu3+ 3
W6+ 6
O2- -2
loop_
_atom_site_label
_atom_site_type_symbol
_atom_site_symmetry_multiplicity
_atom_site_Wyckoff_symbol
_atom_site_fract_x
_atom_site_fract_y
_atom_site_fract_z
_atom_site_B_iso_or_equiv
_atom_site_occupancy
_atom_site_attached_hydrogens
Na1 Na1+ 4 b 0 0.25 0.625 0.034 1. 0
Na2 Na1+ 16 f 0.1332(13) 0.0464(14) 0.3454(14) 0.0341 1. 0
Bi1 Bi3+ 4 a 0 0.25 0.125 0.0451 0.2 0
Eu1 Eu3+ 4 a 0 0.25 0.125 0.0451 0.8 0
W1 W6+ 16 f 0.1828(14) 0.3435(21) 0.3881(16) 0.0431 1. 0
O1 O2- 16 f 0.1987(25) 0.4724(18) 0.3587(14) 0.0314 1. 0
O2 O2- 16 f 0.1561(17) 0.2587(21) 0.4992(27) 0.0312 1. 0
O3 O2- 16 f 0.0758(24) 0.3561(12) 0.3037(21) 0.031 1. 0
O4 O2- 16 f 0.3457(21) 0.3258(18) 0.3078(19) 0.0302 1. 0
#End of TTdata_189046-ICSD