
#(C) 2019 by FIZ Karlsruhe - Leibniz Institute for Information Infrastructure.  All rights reserved.
data_189275-ICSD
_database_code_ICSD 189275
_audit_creation_date 2014-02-01
_chemical_name_systematic 'Bismuth sodium barium titanate (0.465/0.465/0.07/1)'
_chemical_formula_structural '(Bi0.465 Na0.465 Ba0.07) (Ti O3)'
_chemical_formula_sum 'Ba0.07 Bi0.465 Na0.465 O3 Ti1'
_chemical_name_structure_type Perovskite-NaBi(TiO3)2
_exptl_crystal_density_diffrn 5.95
_cell_measurement_temperature 295.
_publ_section_title

;
Crystal structural analyses of ferrielectric tetragonal (Bi1/2 Na1/2) Ti O3 -
7% Ba Ti O3 powders and single crystals
;
loop_
_citation_id
_citation_journal_full
_citation_year
_citation_journal_volume
_citation_page_first
_citation_page_last
_citation_journal_id_ASTM
primary 'Japanese Journal of Applied Physics' 2013 52 09KD01-1 09KD01-5 JJAPB6
loop_
_publ_author_name
'Kitanaka, Yuuki'
'Ogino, Motohiro'
'Hirano, Kiyotaka'
'Noguchi, Yuji'
'Miyayama, Masaru'
'Kagawa, Yutaka'
'Moriyoshi, Chikako'
'Kuroiwa, Yoshihiro'
'Torii, Shuki'
'Kamiyama, Takeshi'
_cell_length_a 5.5229(1)
_cell_length_b 5.5229(1)
_cell_length_c 3.9063(1)
_cell_angle_alpha 90.
_cell_angle_beta 90.
_cell_angle_gamma 90.
_cell_volume 119.15
_cell_formula_units_Z 2
_symmetry_space_group_name_H-M 'P 4 b m'
_symmetry_Int_Tables_number 100
_refine_ls_R_factor_all 0.055
loop_
_symmetry_equiv_pos_site_id
_symmetry_equiv_pos_as_xyz
1 '-y+1/2, -x+1/2, z'
2 'y+1/2, x+1/2, z'
3 'y, -x, z'
4 '-y, x, z'
5 '-x+1/2, y+1/2, z'
6 'x+1/2, -y+1/2, z'
7 '-x, -y, z'
8 'x, y, z'
loop_
_atom_type_symbol
_atom_type_oxidation_number
Na1+ 1
Bi3+ 3
Ba2+ 2
Ti4+ 4
O2- -2
loop_
_atom_site_label
_atom_site_type_symbol
_atom_site_symmetry_multiplicity
_atom_site_Wyckoff_symbol
_atom_site_fract_x
_atom_site_fract_y
_atom_site_fract_z
_atom_site_B_iso_or_equiv
_atom_site_occupancy
_atom_site_attached_hydrogens
Na1 Na1+ 2 b 0 0.5 0.553(2) . 0.465 0
Bi1 Bi3+ 2 b 0 0.5 0.553(2) . 0.465 0
Ba1 Ba2+ 2 b 0 0.5 0.553(2) . 0.07 0
Ti1 Ti4+ 2 a 0 0 0 . 1. 0
O1 O2- 2 a 0 0 0.512(2) . 1. 0
O2 O2- 4 c 0.263(1) 0.237(1) 0.030(1) . 1. 0
loop_
_atom_site_aniso_label
_atom_site_aniso_type_symbol
_atom_site_aniso_U_11
_atom_site_aniso_U_22
_atom_site_aniso_U_33
_atom_site_aniso_U_12
_atom_site_aniso_U_13
_atom_site_aniso_U_23
Na1 Na1+ 0.043(1) 0.043(1) 0.071(1) -0.002(1) 0. 0.
Bi1 Bi3+ 0.043(1) 0.043(1) 0.071(1) -0.002(1) 0. 0.
Ba1 Ba2+ 0.043(1) 0.043(1) 0.071(1) -0.002(1) 0. 0.
Ti1 Ti4+ 0.011(1) 0.011(1) 0.010(1) 0. 0. 0.
O1 O2- 0.030(1) 0.030(1) 0.022(1) 0. 0. 0.
O2 O2- 0.029(1) 0.029(1) 0.046(1) -0.021(1) -0.001(1) 0.001(1)
#End of TTdata_189275-ICSD