
#(C) 2019 by FIZ Karlsruhe - Leibniz Institute for Information Infrastructure.  All rights reserved.
data_189836-ICSD
_database_code_ICSD 189836
_audit_creation_date 2014-02-01
_chemical_name_systematic 'Sodium manganese sulfate fluoride'
_chemical_formula_structural 'Na Mn (S O4) F'
_chemical_formula_sum 'F1 Mn1 Na1 O4 S1'
_chemical_name_structure_type Triplite-(Mn,Fe)2PO4F
_exptl_crystal_density_diffrn 3.18
_cell_measurement_temperature 298.
_publ_section_title 'Sodium manganese fluorosulfate with a triplite structure'
loop_
_citation_id
_citation_journal_full
_citation_year
_citation_journal_volume
_citation_page_first
_citation_page_last
_citation_journal_id_ASTM
primary

;
Acta Crystallographica, Section B: Structural Science, Crystal Engineering and
Materials
; 2013 69 584 588 ACSBDA
loop_
_publ_author_name
'Barpanda, Prabeer'
'Ling, Chris D.'
'Oyama, Gosuke'
'Yamada, Atsuo'
_cell_length_a 13.77027(17)
_cell_length_b 6.63687(8)
_cell_length_c 10.35113(14)
_cell_angle_alpha 90.
_cell_angle_beta 121.47950(30)
_cell_angle_gamma 90.
_cell_volume 806.78
_cell_formula_units_Z 8
_symmetry_space_group_name_H-M 'C 1 2/c 1'
_symmetry_Int_Tables_number 15
_refine_ls_R_factor_all 0.037
loop_
_symmetry_equiv_pos_site_id
_symmetry_equiv_pos_as_xyz
1 'x, -y, z+1/2'
2 '-x, -y, -z'
3 '-x, y, -z+1/2'
4 'x, y, z'
5 'x+1/2, -y+1/2, z+1/2'
6 '-x+1/2, -y+1/2, -z'
7 '-x+1/2, y+1/2, -z+1/2'
8 'x+1/2, y+1/2, z'
loop_
_atom_type_symbol
_atom_type_oxidation_number
F1- -1
Na1+ 1
Mn2+ 2
Na1+ 1
Mn2+ 2
O2- -2
S6+ 6
loop_
_atom_site_label
_atom_site_type_symbol
_atom_site_symmetry_multiplicity
_atom_site_Wyckoff_symbol
_atom_site_fract_x
_atom_site_fract_y
_atom_site_fract_z
_atom_site_B_iso_or_equiv
_atom_site_occupancy
_atom_site_attached_hydrogens
F1 F1- 8 f 0.51332(19) 0.0824(4) 0.38834(25) 0.0227(7) 1. 0
Na1 Na1+ 8 f 0.64582(9) 0.09644(17) 0.33843(12) 0.0115(4) 0.4326(18) 0
Mn1 Mn2+ 8 f 0.64582(9) 0.09644(17) 0.33843(12) 0.0115(4) 0.5674(18) 0
Na2 Na1+ 8 f 0.54839(9) 0.24073(17) 0.98754(13) 0.0103(4) 0.5674(18) 0
Mn2 Mn2+ 8 f 0.54839(9) 0.24073(17) 0.98754(13) 0.0103(4) 0.4326(18) 0
O1 O2- 8 f 0.91027(29) 0.0192(4) 0.3509(4) 0.0370(11) 1. 0
O2 O2- 8 f 0.71689(21) 0.1289(4) 0.19009(28) 0.0096(9) 1. 0
O3 O2- 8 f 0.86554(21) 0.2585(5) 0.15438(30) 0.0155(9) 1. 0
O4 O2- 8 f 0.69423(21) 0.4138(5) 0.41040(30) 0.0182(9) 1. 0
S1 S6+ 8 f 0.82345(11) 0.08213(22) 0.19515(14) 0.01582(31) 1. 0
#End of TTdata_189836-ICSD