
#(C) 2019 by FIZ Karlsruhe - Leibniz Institute for Information Infrastructure.  All rights reserved.
data_190009-ICSD
_database_code_ICSD 190009
_audit_creation_date 2014-08-01
_chemical_name_systematic

;
Sodium cobalt arsenate phosphate diarsenate diphosphate
(3/2/0.52/0.48/0.95/0.05)
;
_chemical_formula_structural 'Na3 Co2 ((As0.52 P0.48) O4) ((As0.95 P0.05)2 O7)'
_chemical_formula_sum 'As2.42 Co2 Na3 O11 P0.58'
_exptl_crystal_density_diffrn 4.02
_cell_measurement_temperature 298.
_publ_section_title 'Na3 Co2 (As0.52 P0.48) O4 (As0.95 P0.05)2 O7'
loop_
_citation_id
_citation_journal_full
_citation_year
_citation_journal_volume
_citation_page_first
_citation_page_last
_citation_journal_id_ASTM
primary 'Acta Crystallographica, Section E: Structure Reports Online' 2013 69
i85 i86 ACSEBH
loop_
_publ_author_name
'Y. Ben Smida'
'A. Guesmi'
'M.F. Zid'
'A. Driss'
_cell_length_a 10.3982(9)
_cell_length_b 16.087(2)
_cell_length_c 6.4421(6)
_cell_angle_alpha 90.
_cell_angle_beta 120.425(9)
_cell_angle_gamma 90.
_cell_volume 929.21
_cell_formula_units_Z 4
_symmetry_space_group_name_H-M 'C 1 2/m 1'
_symmetry_Int_Tables_number 12
_refine_ls_R_factor_all 0.0199
loop_
_symmetry_equiv_pos_site_id
_symmetry_equiv_pos_as_xyz
1 '-x, y, -z'
2 '-x, -y, -z'
3 'x, -y, z'
4 'x, y, z'
5 '-x+1/2, y+1/2, -z'
6 '-x+1/2, -y+1/2, -z'
7 'x+1/2, -y+1/2, z'
8 'x+1/2, y+1/2, z'
loop_
_atom_type_symbol
_atom_type_oxidation_number
As5+ 5
P5+ 5
As5+ 5
P5+ 5
Co2+ 2
O2- -2
Na1+ 1
loop_
_atom_site_label
_atom_site_type_symbol
_atom_site_symmetry_multiplicity
_atom_site_Wyckoff_symbol
_atom_site_fract_x
_atom_site_fract_y
_atom_site_fract_z
_atom_site_B_iso_or_equiv
_atom_site_occupancy
_atom_site_attached_hydrogens
As1 As5+ 4 i 0.61047(7) 0.5 0.82497(11) 0.0066(2) 0.519(5) 0
P1 P5+ 4 i 0.61047(7) 0.5 0.82497(11) 0.0066(2) 0.481(6) 0
As2 As5+ 8 j 0.11976(4) 0.33459(2) 0.26883(6) 0.00837(13) 0.953(4) 0
P2 P5+ 8 j 0.11976(4) 0.33459(2) 0.26883(6) 0.00837(13) 0.047(4) 0
Co1 Co2+ 4 h 0.5 0.32278(4) 0.5 0.00767(18) 1 0
Co2 Co2+ 4 i 0.30246(7) 0.5 0.58620(11) 0.00979(18) 1 0
O1 O2- 8 j 0.2677(3) 0.30726(17) 0.2518(4) 0.0159(5) 1 0
O2 O2- 8 j 0.4973(3) 0.42032(15) 0.7288(4) 0.0125(5) 1 0
O3 O2- 4 i 0.7294(4) 0.5 0.7420(6) 0.0130(7) 1 0
O4 O2- 4 i 0.7069(4) 0.5 1.1130(6) 0.0175(8) 1 0
O5 O2- 8 j 0.1483(3) 0.40165(15) 0.4838(4) 0.0137(5) 1 0
O6 O2- 4 g 0. 0.3895(2) 0. 0.0126(7) 1 0
O7 O2- 8 j 0.0195(3) 0.25247(17) 0.2544(4) 0.0204(6) 1 0
Na1 Na1+ 8 j 0.1865(3) 0.16850(11) 0.0966(3) 0.0443(6) 1 0
Na2 Na1+ 4 i 0.0524(3) 0.5 0.7917(8) 0.0361(12) 0.871(10) 0
Na3 Na1+ 2 d 0. 0.5 0.5 0.0361(12) 0.111(12) 0
Na4 Na1+ 4 i 0.038(4) 0.5 0.643(13) 0.0361(12) 0.071(9) 0
loop_
_atom_site_aniso_label
_atom_site_aniso_type_symbol
_atom_site_aniso_U_11
_atom_site_aniso_U_22
_atom_site_aniso_U_33
_atom_site_aniso_U_12
_atom_site_aniso_U_13
_atom_site_aniso_U_23
As1 As5+ 0.0072(3) 0.0073(4) 0.0058(3) 0. 0.0037(3) 0.
P1 P5+ 0.0072(3) 0.0073(4) 0.0058(3) 0. 0.0037(3) 0.
As2 As5+ 0.00761(19) 0.0082(2) 0.00724(19) -0.00078(13) 0.00228(14) -0.00001(13)
P2 P5+ 0.00761(19) 0.0082(2) 0.00724(19) -0.00078(13) 0.00228(14) -0.00001(13)
Co1 Co2+ 0.0072(3) 0.0082(3) 0.0074(3) 0. 0.0036(2) 0.
Co2 Co2+ 0.0096(3) 0.0113(3) 0.0094(3) 0. 0.0055(3) 0.
O1 O2- 0.0096(11) 0.0173(13) 0.0166(12) 0.0020(10) 0.0035(10) -0.0054(10)
O2 O2- 0.0133(11) 0.0115(12) 0.0147(11) -0.0007(10) 0.0086(10) -0.0013(10)
O3 O2- 0.0176(17) 0.0123(17) 0.0101(16) 0. 0.0078(14) 0.
O4 O2- 0.0177(18) 0.027(2) 0.0113(17) 0. 0.0101(15) 0.
O5 O2- 0.0154(12) 0.0144(12) 0.0121(11) -0.0043(10) 0.0075(10) -0.0042(10)
O6 O2- 0.0122(15) 0.0100(16) 0.0091(14) 0. 0.0008(13) 0.
O7 O2- 0.0276(14) 0.0179(13) 0.0121(12) -0.0130(12) 0.0074(11) 0.0016(11)
Na1 Na1+ 0.0860(17) 0.0175(9) 0.0239(9) 0.0096(10) 0.0238(10) -0.0010(7)
Na2 Na1+ 0.0202(14) 0.0243(15) 0.054(3) 0. 0.0117(15) 0.
Na3 Na1+ 0.0202(14) 0.0243(15) 0.054(3) 0. 0.0117(15) 0.
Na4 Na1+ 0.0202(14) 0.0243(15) 0.054(3) 0. 0.0117(15) 0.
#End of TTdata_190009-ICSD