
#(C) 2019 by FIZ Karlsruhe - Leibniz Institute for Information Infrastructure.  All rights reserved.
data_1904-ICSD
_database_code_ICSD 1904
_audit_creation_date 1980-01-01
_audit_update_record 2010-02-01
_chemical_name_systematic 'Sodium tripotassium bis(trioxofluorophosphate(V))'
_chemical_formula_structural 'Na K3 (P O3 F)2'
_chemical_formula_sum 'F2 K3 Na1 O6 P2'
_chemical_name_structure_type K3Na(SO4)2
_exptl_crystal_density_diffrn 2.63
_publ_section_title

;
Etudes structurales de composes oxyfluores du P(V). III. Structure cristalline
de  Na K3 (P O3 F)2
;
loop_
_citation_id
_citation_journal_full
_citation_year
_citation_journal_volume
_citation_page_first
_citation_page_last
_citation_journal_id_ASTM
primary

;
Acta Crystallographica, Section B: Structural Crystallography and Crystal
Chemistry
; 1975 31 1533 1535 ACBCAR
loop_
_publ_author_name
'Durand, J.'
'Granier, W.'
'le Cot, L.'
'Galigne, J.L.'
_cell_length_a 5.761(6)
_cell_length_b 5.761(6)
_cell_length_c 7.374(7)
_cell_angle_alpha 90.
_cell_angle_beta 90.
_cell_angle_gamma 120.
_cell_volume 211.95
_cell_formula_units_Z 1
_symmetry_space_group_name_H-M 'P -3 m 1'
_symmetry_Int_Tables_number 164
_refine_ls_R_factor_all 0.067
loop_
_symmetry_equiv_pos_site_id
_symmetry_equiv_pos_as_xyz
1 'x-y, -y, -z'
2 '-x, -x+y, -z'
3 'y, x, -z'
4 'x-y, x, -z'
5 'y, -x+y, -z'
6 '-x, -y, -z'
7 '-x+y, y, z'
8 'x, x-y, z'
9 '-y, -x, z'
10 '-x+y, -x, z'
11 '-y, x-y, z'
12 'x, y, z'
loop_
_atom_type_symbol
_atom_type_oxidation_number
Na1+ 1
K1+ 1
P5+ 5
O2- -2
F1- -1
loop_
_atom_site_label
_atom_site_type_symbol
_atom_site_symmetry_multiplicity
_atom_site_Wyckoff_symbol
_atom_site_fract_x
_atom_site_fract_y
_atom_site_fract_z
_atom_site_B_iso_or_equiv
_atom_site_occupancy
_atom_site_attached_hydrogens
Na1 Na1+ 1 a 0 0 0 . 1. 0
K1 K1+ 1 b 0 0 0.5 . 1. 0
K2 K1+ 2 d 0.6666 0.3333 0.1737(4) . 1. 0
P1 P5+ 2 d 0.6666 0.3333 0.7452(5) . 1. 0
O1 O2- 6 i -.1876(11) 0.1876(11) 0.7923(8) . 1. 0
F1 F1- 2 d 0.6666 0.3333 0.5242(12) . 1. 0
loop_
_atom_site_aniso_label
_atom_site_aniso_type_symbol
_atom_site_aniso_beta_11
_atom_site_aniso_beta_22
_atom_site_aniso_beta_33
_atom_site_aniso_beta_12
_atom_site_aniso_beta_13
_atom_site_aniso_beta_23
Na1 Na1+ 0.0116(29) 0.0116(29) 0.0008(13) 0.0058(4) 0 0
K1 K1+ 0.0195(19) 0.0195(19) 0.0020(8) 0.0097(9) 0 0
K2 K1+ 0.0124(12) 0.0124(12) 0.0010(7) 0.0062(6) 0 0
P1 P5+ 0.0053(13) 0.0063(13) 0.0005(3) 0.0026(6) 0 0
O1 O2- 0.0165(36) 0.0165(36) 0.0093(12) 0.0122(20) -.0019(13) 0.0019(13)
F1 F1- 0.043(5) 0.043(5) 0.0008(7) 0.0215(25) 0 0
#End of TTdata_1904-ICSD