
#(C) 2019 by FIZ Karlsruhe - Leibniz Institute for Information Infrastructure.  All rights reserved.
data_190674-ICSD
_database_code_ICSD 190674
_audit_creation_date 2014-08-01
_chemical_name_systematic 'Trisodium magnesium triphosphate dodecahydrate'
_chemical_formula_structural 'Na3 Mg (P3 O10) (H2 O)12'
_chemical_formula_sum 'H24 Mg1 Na3 O22 P3'
_chemical_name_structure_type CdNa3P3O10(H2O)12
_chemical_name_mineral Hylbrownite
_exptl_crystal_density_diffrn 1.82
_cell_measurement_temperature 123.
_publ_section_title

;
Hylbrownite, Na3 Mg P3 O10 * 12(H2 O), a new triphosphate mineral from the
Dome Rock Mine, South Australia: description and crystal structure
;
loop_
_citation_id
_citation_journal_full
_citation_year
_citation_journal_volume
_citation_page_first
_citation_page_last
_citation_journal_id_ASTM
primary 'Mineralogical Magazine' 2013 77 385 398 MNLMBB
loop_
_publ_author_name
'Elliott, P.'
'Brugger, J.'
'Caradoc-Davies, T.'
'Pring, A.'
_cell_length_a 14.722(3)
_cell_length_b 9.240(2)
_cell_length_c 15.052(3)
_cell_angle_alpha 90.
_cell_angle_beta 90.01(3)
_cell_angle_gamma 90.
_cell_volume 2047.54
_cell_formula_units_Z 4
_symmetry_space_group_name_H-M 'P 1 21/n 1'
_symmetry_Int_Tables_number 14
_refine_ls_R_factor_all 0.045
loop_
_symmetry_equiv_pos_site_id
_symmetry_equiv_pos_as_xyz
1 '-x+1/2, y+1/2, -z+1/2'
2 '-x, -y, -z'
3 'x+1/2, -y+1/2, z+1/2'
4 'x, y, z'
loop_
_atom_type_symbol
_atom_type_oxidation_number
Na1+ 1
Mg2+ 2
P5+ 5
O2- -2
H1+ 1
loop_
_atom_site_label
_atom_site_type_symbol
_atom_site_symmetry_multiplicity
_atom_site_Wyckoff_symbol
_atom_site_fract_x
_atom_site_fract_y
_atom_site_fract_z
_atom_site_B_iso_or_equiv
_atom_site_occupancy
_atom_site_attached_hydrogens
Na1 Na1+ 4 e 0.64272(12) 0.5333(2) 0.70920(11) 0.0138(10) 1. 0
Na2 Na1+ 4 e 0.74705(12) 0.2664(2) 0.43719(11) 0.0157(10) 1. 0
Na3 Na1+ 4 e 0.88656(12) 0.6910(2) 0.70257(12) 0.0184(11) 1. 0
Mg1 Mg2+ 4 e 0.74842(9) 0.54443(15) 0.32017(9) 0.0093(8) 1. 0
P1 P5+ 4 e 0.90421(7) 0.77053(13) 0.40312(7) 0.0087(7) 1. 0
P2 P5+ 4 e 0.60850(7) 0.77852(13) 0.40899(7) 0.0097(7) 1. 0
P3 P5+ 4 e 0.75830(8) 0.65684(13) 0.51764(7) 0.0105(7) 1. 0
O1 O2- 4 e 0.9041(2) 0.9333(4) 0.3925(2) 0.0139(8) 1. 0
O2 O2- 4 e 0.8513(2) 0.6951(4) 0.3300(2) 0.0140(8) 1. 0
O3 O2- 4 e 0.9984(2) 0.7073(4) 0.4202(2) 0.0175(8) 1. 0
O4 O2- 4 e 0.8518(2) 0.7380(4) 0.4966(2) 0.0168(8) 1. 0
O5 O2- 4 e 0.5252(2) 0.7074(4) 0.4476(2) 0.0183(8) 1. 0
O6 O2- 4 e 0.5977(2) 0.9384(4) 0.3898(2) 0.0148(8) 1. 0
O7 O2- 4 e 0.6457(2) 0.6944(4) 0.3290(2) 0.0148(8) 1. 0
O8 O2- 4 e 0.6860(2) 0.7753(4) 0.4867(2) 0.0203(9) 1. 0
O9 O2- 4 e 0.7540(2) 0.6445(4) 0.6157(2) 0.0150(8) 1. 0
O10 O2- 4 e 0.7490(2) 0.5251(4) 0.4610(2) 0.0149(8) 1. 0
O11 O2- 4 e 0.7490(2) 0.5533(4) 0.1812(2) 0.0154(8) 1. 0
O12 O2- 4 e 0.8401(2) 0.3690(4) 0.3207(2) 0.0154(8) 1. 0
O13 O2- 4 e 0.6508(2) 0.3719(4) 0.3205(2) 0.0171(8) 1. 0
O14 O2- 4 e 0.6202(2) 0.7627(4) 0.7783(2) 0.0201(8) 1. 0
O15 O2- 4 e 0.8031(2) 0.7945(4) 0.8246(2) 0.0191(8) 1. 0
O16 O2- 4 e 0.5170(2) 0.5665(4) 0.6092(2) 0.0172(8) 1. 0
O17 O2- 4 e 0.7239(3) 0.4710(4) 0.8428(2) 0.0257(9) 1. 0
O18 O2- 4 e 0.9873(2) 0.8923(4) 0.7176(2) 0.0186(8) 1. 0
O19 O2- 4 e 0.8563(2) 0.1326(4) 0.5159(2) 0.0177(8) 1. 0
O20 O2- 4 e 0.6298(2) 0.1489(4) 0.5161(2) 0.0177(8) 1. 0
O21 O2- 4 e 0.9944(2) 0.5834(4) 0.6054(2) 0.0181(8) 1. 0
O22 O2- 4 e 0.9307(2) 0.5118(4) 0.8120(2) 0.0217(9) 1. 0
H1 H1+ 4 e 0.696(3) 0.507(7) 0.163(4) 0.041(4) 1. 0
H2 H1+ 4 e 0.796(3) 0.513(7) 0.146(4) 0.041(4) 1. 0
H3 H1+ 4 e 0.901(3) 0.374(8) 0.341(4) 0.041(4) 1. 0
H4 H1+ 4 e 0.841(4) 0.308(7) 0.271(4) 0.041(4) 1. 0
H5 H1+ 4 e 0.642(4) 0.309(7) 0.274(4) 0.041(4) 1. 0
H6 H1+ 4 e 0.593(3) 0.393(8) 0.342(4) 0.041(4) 1. 0
H7 H1+ 4 e 0.602(5) 0.839(6) 0.741(4) 0.041(4) 1. 0
H8 H1+ 4 e 0.575(4) 0.749(7) 0.820(4) 0.041(4) 1. 0
H9 H1+ 4 e 0.817(4) 0.746(7) 0.876(4) 0.041(4) 1. 0
H10 H1+ 4 e 0.740(3) 0.795(8) 0.817(4) 0.041(4) 1. 0
H11 H1+ 4 e 0.521(5) 0.624(6) 0.559(4) 0.041(4) 1. 0
H12 H1+ 4 e 0.499(5) 0.477(5) 0.592(4) 0.041(4) 1. 0
H13 H1+ 4 e 0.698(4) 0.516(7) 0.891(4) 0.041(4) 1. 0
H14 H1+ 4 e 0.750(4) 0.386(6) 0.866(4) 0.041(4) 1. 0
H15 H1+ 4 e 0.025(4) 0.883(8) 0.767(3) 0.041(4) 1. 0
H16 H1+ 4 e 0.018(4) 0.947(7) 0.675(3) 0.041(4) 1. 0
H17 H1+ 4 e 0.914(4) 0.179(7) 0.538(4) 0.041(4) 1. 0
H18 H1+ 4 e 0.886(4) 0.061(6) 0.481(4) 0.041(4) 1. 0
H19 H1+ 4 e 0.616(4) 0.065(6) 0.485(4) 0.041(4) 1. 0
H20 H1+ 4 e 0.571(4) 0.193(7) 0.524(4) 0.041(4) 1. 0
H21 H1+ 4 e 0.989(5) 0.617(6) 0.548(3) 0.041(4) 1. 0
H22 H1+ 4 e 0.989(7) 0.481(5) 0.598(5) 0.041(4) 1. 0
H23 H1+ 4 e 0.990(3) 0.530(11) 0.834(5) 0.041(4) 1. 0
H24 H1+ 4 e 0.895(4) 0.528(11) 0.863(4) 0.041(4) 1. 0
loop_
_atom_site_aniso_label
_atom_site_aniso_type_symbol
_atom_site_aniso_U_11
_atom_site_aniso_U_22
_atom_site_aniso_U_33
_atom_site_aniso_U_12
_atom_site_aniso_U_13
_atom_site_aniso_U_23
Na1 Na1+ 0.0108(13) 0.0152(14) 0.0153(13) 0.0010(7) 0.0016(7) 0.0002(7)
Na2 Na1+ 0.0136(13) 0.0156(15) 0.0180(13) 0.0028(7) 0.0008(7) -0.0001(7)
Na3 Na1+ 0.0094(13) 0.0256(16) 0.0200(14) -0.0060(8) 0.0013(7) -0.0015(8)
Mg1 Mg2+ 0.0064(10) 0.0095(11) 0.0121(10) 0.0000(5) 0.0014(5) 0.0002(5)
P1 P5+ 0.0058(9) 0.0097(10) 0.0108(9) 0.0008(5) 0.0012(4) 0.0002(4)
P2 P5+ 0.0071(9) 0.0102(10) 0.0117(9) 0.0002(4) 0.0007(4) 0.0014(4)
P3 P5+ 0.0087(9) 0.0119(10) 0.0110(9) 0.0000(5) 0.0010(4) -0.0006(5)
O1 O2- 0.0152(16) 0.0090(19) 0.0175(16) 0.0010(13) 0.0020(12) -0.0010(13)
O2 O2- 0.0113(16) 0.0156(19) 0.0149(16) 0.0010(13) 0.0014(12) 0.0004(13)
O3 O2- 0.0100(16) 0.019(2) 0.0230(18) -0.0007(14) -0.0010(13) 0.0014(13)
O4 O2- 0.0133(17) 0.023(2) 0.0141(16) -0.0016(14) 0.0033(12) -0.0072(14)
O5 O2- 0.0128(16) 0.018(2) 0.0238(18) 0.0013(14) 0.0066(13) -0.0004(13)
O6 O2- 0.0141(17) 0.0127(19) 0.0175(16) 0.0010(13) 0.0009(12) 0.0000(13)
O7 O2- 0.0123(16) 0.017(2) 0.0148(16) -0.0007(13) 0.0006(12) -0.0010(13)
O8 O2- 0.0190(18) 0.023(2) 0.0186(17) -0.0044(14) -0.0037(13) 0.0058(14)
O9 O2- 0.0128(16) 0.016(2) 0.0157(16) -0.0013(13) 0.0007(12) -0.0023(13)
O10 O2- 0.0110(16) 0.0158(19) 0.0180(17) 0.0015(13) 0.0012(12) -0.0020(13)
O11 O2- 0.0133(17) 0.0120(19) 0.0208(17) -0.0009(13) 0.0034(13) -0.0012(13)
O12 O2- 0.0105(17) 0.022(2) 0.0142(16) -0.0030(14) 0.0017(12) -0.0021(13)
O13 O2- 0.0135(17) 0.022(2) 0.0157(17) -0.0021(14) 0.0012(13) 0.0013(14)
O14 O2- 0.0141(17) 0.025(2) 0.0208(18) 0.0008(15) 0.0049(13) 0.0017(14)
O15 O2- 0.0162(18) 0.018(2) 0.0228(18) 0.0020(14) 0.0023(14) -0.0004(14)
O16 O2- 0.0151(17) 0.020(2) 0.0169(17) 0.0013(14) -0.0010(13) -0.0016(14)
O17 O2- 0.033(2) 0.023(2) 0.0216(19) 0.0026(15) 0.0016(15) 0.0050(16)
O18 O2- 0.0155(17) 0.019(2) 0.0208(18) -0.0002(14) 0.0028(13) -0.0003(14)
O19 O2- 0.0135(17) 0.020(2) 0.0194(17) -0.0023(14) 0.0009(13) 0.0017(14)
O20 O2- 0.0136(17) 0.021(2) 0.0188(17) -0.0036(14) 0.0019(13) 0.0002(14)
O21 O2- 0.0169(17) 0.016(2) 0.0211(18) -0.0009(14) -0.0015(13) 0.0017(14)
O22 O2- 0.0146(18) 0.021(2) 0.0291(19) -0.0036(15) 0.0003(14) -0.0003(14)
#End of TTdata_190674-ICSD