
#(C) 2019 by FIZ Karlsruhe - Leibniz Institute for Information Infrastructure.  All rights reserved.
data_190894-ICSD
_database_code_ICSD 190894
_audit_creation_date 2014-08-01
_chemical_name_systematic 'Sodium thorium uranium molybdate (4/0.5/0.5/4)'
_chemical_formula_structural 'Na4 (Th0.5 U0.5) (Mo O4)4'
_chemical_formula_sum 'Mo4 Na4 O16 Th0.5 U0.5'
_chemical_name_structure_type K4Th(MoO4)4
_exptl_crystal_density_diffrn 4.15
_cell_measurement_temperature 298.
_publ_section_title
'Structural studies of Na4 (Thx U1-x) (Mo O4)4 (x = 0.5, 0.8)'
loop_
_citation_id
_citation_journal_full
_citation_year
_citation_journal_volume
_citation_page_first
_citation_page_last
_citation_journal_id_ASTM
primary 'AIP Conference Proceedings' 2013 1512 1248 1249 APCPCS
loop_
_publ_author_name
'Dahale, N.D.'
'Sali, S.K.'
'Keskar, Meera'
'Phatak, Rohan'
'Kannan, S.'
_cell_length_a 11.2255(4)
_cell_length_b 11.2255(4)
_cell_length_c 12.2668(9)
_cell_angle_alpha 90.
_cell_angle_beta 90.
_cell_angle_gamma 90.
_cell_volume 1545.76
_cell_formula_units_Z 4
_symmetry_space_group_name_H-M 'I 41/a Z'
_symmetry_Int_Tables_number 88
loop_
_symmetry_equiv_pos_site_id
_symmetry_equiv_pos_as_xyz
1 '-y+3/4, x+3/4, -z+3/4'
2 'y+1/4, -x+3/4, -z+3/4'
3 'x, y+1/2, -z'
4 '-x, -y, -z'
5 'y+1/4, -x+1/4, z+1/4'
6 '-y+3/4, x+1/4, z+1/4'
7 '-x, -y+1/2, z'
8 'x, y, z'
9 '-y+1/4, x+1/4, -z+1/4'
10 'y+3/4, -x+1/4, -z+1/4'
11 'x+1/2, y, -z+1/2'
12 '-x+1/2, -y+1/2, -z+1/2'
13 'y+3/4, -x+3/4, z+3/4'
14 '-y+1/4, x+3/4, z+3/4'
15 '-x+1/2, -y, z+1/2'
16 'x+1/2, y+1/2, z+1/2'
loop_
_atom_type_symbol
_atom_type_oxidation_number
Th4+ 4
U4+ 4
Na1+ 1
Mo6+ 6
O2- -2
loop_
_atom_site_label
_atom_site_type_symbol
_atom_site_symmetry_multiplicity
_atom_site_Wyckoff_symbol
_atom_site_fract_x
_atom_site_fract_y
_atom_site_fract_z
_atom_site_B_iso_or_equiv
_atom_site_occupancy
_atom_site_attached_hydrogens
Th1 Th4+ 4 b 0.5 0.75 0.125 0.081(4) 0.5 0
U1 U4+ 4 b 0.5 0.75 0.125 0.081(4) 0.5 0
Na1 Na1+ 16 f 0.7171(16) 0.1281(19) 0.0950(14) 0.04(1) 1. 0
Mo1 Mo6+ 16 f 0.5829(5) 0.4246(6) 0.1189(6) 0.049(3) 1. 0
O1 O2- 16 f 0.5785(22) 0.5672(17) 0.0616(18) 0.037(7) 1. 0
O2 O2- 16 f 0.4528(18) 0.3893(22) 0.1839(20) 0.037(7) 1. 0
O3 O2- 16 f 0.6175(21) 0.3158(19) 0.0226(17) 0.037(7) 1. 0
O4 O2- 16 f 0.6731(21) 0.3995(22) 0.2222(18) 0.037(7) 1. 0
#End of TTdata_190894-ICSD