
#(C) 2019 by FIZ Karlsruhe - Leibniz Institute for Information Infrastructure.  All rights reserved.
data_191320-ICSD
_database_code_ICSD 191320
_audit_creation_date 2014-08-01
_chemical_name_systematic 'Sodium diuranium nonafluoride'
_chemical_formula_structural 'Na U2 F9'
_chemical_formula_sum 'F9 Na1 U2'
_exptl_crystal_density_diffrn 6.51
_cell_measurement_temperature 293.
_publ_section_title

;
Crystal structures of tetravalent uranium fluorides obtained in the presence
of hydrazine from uranyl source
;
loop_
_citation_id
_citation_journal_full
_citation_year
_citation_journal_volume
_citation_page_first
_citation_page_last
_citation_journal_id_ASTM
primary 'Journal of Fluorine Chemistry' 2014 159 1 7 JFLCAR
loop_
_publ_author_name
'Olchowka, Jakub'
'Volkringer, Christophe'
'Henry, Natacha'
'Loiseau, Thierry'
_cell_length_a 11.5750(6)
_cell_length_b 7.0008(4)
_cell_length_c 8.6549(4)
_cell_angle_alpha 90
_cell_angle_beta 102.978(2)
_cell_angle_gamma 90
_cell_volume 683.42
_cell_formula_units_Z 4
_symmetry_space_group_name_H-M 'C 1 2/c 1'
_symmetry_Int_Tables_number 15
_refine_ls_R_factor_all 0.0146
loop_
_symmetry_equiv_pos_site_id
_symmetry_equiv_pos_as_xyz
1 'x, -y, z+1/2'
2 '-x, -y, -z'
3 '-x, y, -z+1/2'
4 'x, y, z'
5 'x+1/2, -y+1/2, z+1/2'
6 '-x+1/2, -y+1/2, -z'
7 '-x+1/2, y+1/2, -z+1/2'
8 'x+1/2, y+1/2, z'
loop_
_atom_type_symbol
_atom_type_oxidation_number
U4+ 4
F1- -1
Na1+ 1
loop_
_atom_site_label
_atom_site_type_symbol
_atom_site_symmetry_multiplicity
_atom_site_Wyckoff_symbol
_atom_site_fract_x
_atom_site_fract_y
_atom_site_fract_z
_atom_site_B_iso_or_equiv
_atom_site_occupancy
_atom_site_attached_hydrogens
U1 U4+ 8 f 0.199880(12) 0.09287(2) 0.811244(16) 0.00703(8) 1 0
F1 F1- 4 e 0 0.0832(4) 0.75 0.0173(13) 1 0
F2 F1- 8 f 0.3587(2) -0.1103(3) 0.8228(3) 0.0146(9) 1 0
F3 F1- 8 f 0.3506(2) 0.2704(3) 0.7359(3) 0.0127(8) 1 0
F4 F1- 8 f 0.1696(2) 0.0453(4) 0.5437(3) 0.0167(8) 1 0
F5 F1- 8 f 0.1468(2) 0.3266(3) 0.9727(3) 0.0129(8) 1 0
Na1 Na1+ 8 f 0.5217(4) 0.1058(5) 0.9012(6) 0.0313(11) 0.5 0
loop_
_atom_site_aniso_label
_atom_site_aniso_type_symbol
_atom_site_aniso_U_11
_atom_site_aniso_U_22
_atom_site_aniso_U_33
_atom_site_aniso_U_12
_atom_site_aniso_U_13
_atom_site_aniso_U_23
U1 U4+ 0.00867(13) 0.00610(13) 0.00642(13) 0.00000(5) 0.00189(9) -0.00041(5)
F1 F1- 0.013(2) 0.013(2) 0.025(2) 0 0.0014(17) 0
F2 F1- 0.0126(14) 0.0098(14) 0.0213(15) 0.0000(9) 0.0035(12) -0.0034(9)
F3 F1- 0.0126(13) 0.0107(12) 0.0156(12) -0.0010(10) 0.0044(11) -0.0004(10)
F4 F1- 0.0247(14) 0.0156(12) 0.0102(13) -0.0017(12) 0.0046(11) -0.0033(10)
F5 F1- 0.0118(12) 0.0143(14) 0.0114(12) 0.0037(10) -0.0001(10) -0.0047(10)
#End of TTdata_191320-ICSD