
#(C) 2019 by FIZ Karlsruhe - Leibniz Institute for Information Infrastructure.  All rights reserved.
data_191580-ICSD
_database_code_ICSD 191580
_audit_creation_date 2014-08-01
_chemical_name_systematic
'Potassium sodium niobium magnesium oxide (0.5/0.5/0.99/0.01/2.985)'
_chemical_formula_structural 'K0.5 Na0.5 (Nb0.99 Mg0.01) O2.985'
_chemical_formula_sum 'K0.5 Mg0.01 Na0.5 Nb0.99 O2.985'
_chemical_name_structure_type Perovskite-BaTiO3(orh)
_exptl_crystal_density_diffrn 4.5
_publ_section_title

;
Defect dipoles and electrical properties of magnesium B-site substituted
sodium potassium niobates
;
loop_
_citation_id
_citation_journal_full
_citation_year
_citation_journal_volume
_citation_page_first
_citation_page_last
_citation_journal_id_ASTM
primary 'Journal of Alloys and Compounds' 2014 609 60 67 JALCEU
loop_
_publ_author_name
'Li, Tangyuan'
'Fan, Huiqing'
'Long, Changbai'
'Dong, Guangzhi'
'Sun, Sheji'
_cell_length_a 5.64306(7)
_cell_length_b 3.94541(4)
_cell_length_c 5.67406(7)
_cell_angle_alpha 90.
_cell_angle_beta 90.
_cell_angle_gamma 90.
_cell_volume 126.33
_cell_formula_units_Z 2
_symmetry_space_group_name_H-M 'B m m 2'
_symmetry_Int_Tables_number 38
_refine_ls_R_factor_all 0.0405
loop_
_symmetry_equiv_pos_site_id
_symmetry_equiv_pos_as_xyz
1 '-x, y, z'
2 'x, -y, z'
3 '-x, -y, z'
4 'x, y, z'
5 '-x+1/2, y, z+1/2'
6 'x+1/2, -y, z+1/2'
7 '-x+1/2, -y, z+1/2'
8 'x+1/2, y, z+1/2'
loop_
_atom_type_symbol
_atom_type_oxidation_number
K1+ 1
Na1+ 1
Nb5+ 5
Mg2+ 2
O2- -2
loop_
_atom_site_label
_atom_site_type_symbol
_atom_site_symmetry_multiplicity
_atom_site_Wyckoff_symbol
_atom_site_fract_x
_atom_site_fract_y
_atom_site_fract_z
_atom_site_B_iso_or_equiv
_atom_site_occupancy
_atom_site_attached_hydrogens
K1 K1+ 2 b 0 0.5 0.5061(12) 0.01393(34) 0.5 0
Na1 Na1+ 2 b 0 0.5 0.5061(12) 0.01393(34) 0.5 0
Nb1 Nb5+ 2 a 0 0 0 0.00667(9) 0.99 0
Mg1 Mg2+ 2 a 0 0 0 0.00667(9) 0.01 0
O1 O2- 2 b 0 0.5 0.0395(11) 0.0049(12) 0.995 0
O2 O2- 4 d 0.2399(11) 0 0.2866(7) 0.0051(8) 0.995 0
#End of TTdata_191580-ICSD