
#(C) 2019 by FIZ Karlsruhe - Leibniz Institute for Information Infrastructure.  All rights reserved.
data_191947-ICSD
_database_code_ICSD 191947
_audit_creation_date 2015-02-01
_chemical_name_systematic
'Sodium vanadium phosphate oxide fluoride (2.62/2/2/1.6/1.4)'
_chemical_formula_structural 'Na2.62 V2 (P O4)2 (O1.6 F1.4)'
_chemical_formula_sum 'F1.4 Na2.62 O9.6 P2 V2'
_exptl_crystal_density_diffrn 3.07
_publ_section_title

;
Structural evolution of high energy density V(3+)/V(4+) mixed valent Na3 V2
O2x (P O4)2 F3-2x (x = 0.8) sodium vanadium fluorophosphate using in situ
synchrotron X - ray powder diffraction
;
loop_
_citation_id
_citation_journal_full
_citation_year
_citation_journal_volume
_citation_page_first
_citation_page_last
_citation_journal_id_ASTM
primary
'Journal of Materials Chemistry A: Materials for Energy and Sustainability' 2014 2 7766 7779 JMCAET
loop_
_publ_author_name
'Serras, Paula'
'Palomares, Veronica'
'Rojo, Teofilo'
'Brand, Helen E.A.'
'Sharma, Neeraj'
_cell_length_a 9.06024(20)
_cell_length_b 9.06024(20)
_cell_length_c 10.6594(7)
_cell_angle_alpha 90.
_cell_angle_beta 90.
_cell_angle_gamma 90.
_cell_volume 875.
_cell_formula_units_Z 4
_symmetry_space_group_name_H-M 'P 42/m n m'
_symmetry_Int_Tables_number 136
_refine_ls_R_factor_all 0.022
loop_
_symmetry_equiv_pos_site_id
_symmetry_equiv_pos_as_xyz
1 '-y+1/2, x+1/2, -z+1/2'
2 'y+1/2, -x+1/2, -z+1/2'
3 'y, x, -z'
4 '-y, -x, -z'
5 'y+1/2, -x+1/2, z+1/2'
6 '-y+1/2, x+1/2, z+1/2'
7 '-y, -x, z'
8 'y, x, z'
9 'x+1/2, -y+1/2, -z+1/2'
10 '-x+1/2, y+1/2, -z+1/2'
11 'x, y, -z'
12 '-x, -y, -z'
13 '-x+1/2, y+1/2, z+1/2'
14 'x+1/2, -y+1/2, z+1/2'
15 '-x, -y, z'
16 'x, y, z'
loop_
_atom_type_symbol
_atom_type_oxidation_number
Na1+ 1
V3+ 3.99
P5+ 5
O2- -2
F1- -1
O2- -2
F1- -1
O2- -2
loop_
_atom_site_label
_atom_site_type_symbol
_atom_site_symmetry_multiplicity
_atom_site_Wyckoff_symbol
_atom_site_fract_x
_atom_site_fract_y
_atom_site_fract_z
_atom_site_B_iso_or_equiv
_atom_site_occupancy
_atom_site_attached_hydrogens
Na1 Na1+ 8 i 0.5562 0.20262 0 0.0213 0.57(6) 0
Na2 Na1+ 8 i 0.72933 0.01458 0 0.0131 0.74(5) 0
V1 V3+ 8 j 0.24(2) 0.24(2) 0.1960(8) 0.027(4) 1. 0
P1 P5+ 4 d 0 0.5 0.25 0.047(1) 1. 0
P2 P5+ 4 e 0 0 0.235(5) 0.031(1) 1. 0
O1 O2- 16 k 0.123(3) 0.394(3) 0.161(2) 0.006(5) 1. 0
O2 O2- 8 j 0.085(3) 0.085(3) 0.141(5) 0.006(5) 1. 0
O3 O2- 8 j 0.435(3) 0.435(3) 0.175(5) 0.006(5) 1. 0
F1 F1- 4 f 0.220(3) 0.220(3) 0 0.019(8) 0.467 0
O4 O2- 4 f 0.220(3) 0.220(3) 0 0.019(8) 0.533 0
F2 F1- 8 j 0.281(3) 0.281(3) 0.364(3) 0.019(8) 0.467 0
O5 O2- 8 j 0.281(3) 0.281(3) 0.364(3) 0.019(8) 0.533 0
#End of TTdata_191947-ICSD