
#(C) 2019 by FIZ Karlsruhe - Leibniz Institute for Information Infrastructure.  All rights reserved.
data_191958-ICSD
_database_code_ICSD 191958
_audit_creation_date 2015-02-01
_chemical_name_systematic 'Trirubidium sodium dimolybdate'
_chemical_formula_structural 'Rb3 Na (Mo O4)2'
_chemical_formula_sum 'Mo2 Na1 O8 Rb3'
_chemical_name_structure_type K3Na(SO4)2
_exptl_crystal_density_diffrn 3.89
_cell_measurement_temperature 293.
_publ_section_title

;
Syntheses, structures and characterizations of Rb3 Na(M O4)2 (M = Mo, W)
crystals
;
loop_
_citation_id
_citation_journal_full
_citation_year
_citation_journal_volume
_citation_page_first
_citation_page_last
_citation_journal_id_ASTM
primary 'Solid State Sciences' 2014 33 32 37 SSSCFJ
loop_
_publ_author_name
'Bai, Chunyan'
'Lei, Chen'
'Pan, Shilie'
'Wang, Ying'
'Yang, Zhihua'
'Han, Shujuan'
'Yu, Hongwei'
'Yang, Yun'
'Zhang, Fangyuan'
_cell_length_a 6.138(2)
_cell_length_b 6.138(2)
_cell_length_c 7.844(3)
_cell_angle_alpha 90.
_cell_angle_beta 90.
_cell_angle_gamma 120.
_cell_volume 255.93
_cell_formula_units_Z 1
_symmetry_space_group_name_H-M 'P -3 m 1'
_symmetry_Int_Tables_number 164
_refine_ls_R_factor_all 0.0236
loop_
_symmetry_equiv_pos_site_id
_symmetry_equiv_pos_as_xyz
1 'x-y, -y, -z'
2 '-x, -x+y, -z'
3 'y, x, -z'
4 'x-y, x, -z'
5 'y, -x+y, -z'
6 '-x, -y, -z'
7 '-x+y, y, z'
8 'x, x-y, z'
9 '-y, -x, z'
10 '-x+y, -x, z'
11 '-y, x-y, z'
12 'x, y, z'
loop_
_atom_type_symbol
_atom_type_oxidation_number
Na1+ 1
Rb1+ 1
Mo6+ 6
O2- -2
loop_
_atom_site_label
_atom_site_type_symbol
_atom_site_symmetry_multiplicity
_atom_site_Wyckoff_symbol
_atom_site_fract_x
_atom_site_fract_y
_atom_site_fract_z
_atom_site_B_iso_or_equiv
_atom_site_occupancy
_atom_site_attached_hydrogens
Na1 Na1+ 1 b 0 0 0.5 0.022(1) 1. 0
Rb1 Rb1+ 2 d 0.6667 0.3333 0.3362(1) 0.027(1) 1. 0
Rb2 Rb1+ 1 a 0 0 0 0.032(1) 1. 0
Mo1 Mo6+ 2 d 0.3333 0.6667 0.2244(1) 0.018(1) 1. 0
O1 O2- 6 i 0.1787(4) 0.3573(8) 0.3026(6) 0.037(1) 1. 0
O2 O2- 2 d 0.3333 0.6667 0.0019(1) 0.054(3) 1. 0
#End of TTdata_191958-ICSD