
#(C) 2019 by FIZ Karlsruhe - Leibniz Institute for Information Infrastructure.  All rights reserved.
data_192001-ICSD
_database_code_ICSD 192001
_audit_creation_date 2015-02-01
_chemical_name_systematic 'Bismuth sodium titanate (0.5/0.5/1)'
_chemical_formula_structural '(Bi0.5 Na0.5) (Ti O3)'
_chemical_formula_sum 'Bi0.5 Na0.5 O3 Ti1'
_chemical_name_structure_type Pb(Ti,Zr)O3
_exptl_crystal_density_diffrn 5.99
_cell_measurement_temperature 293.
_publ_section_title

;
Structure and temperature-dependent phase transitions of lead-free Bi1/2 Na1/2
Ti O3 - Bi1/2 K1/2 Ti O3 - K0.5 Na0.5 Nb O3 piezoceramics
;
loop_
_citation_id
_citation_journal_full
_citation_year
_citation_journal_volume
_citation_page_first
_citation_page_last
_citation_journal_id_ASTM
primary 'Journal of Materials Research' 2012 27 2466 2478 JMREEE
loop_
_publ_author_name
'Anton, Eva-Maria'
'Schmitt, Ljubomira Ana'
'Hinterstein, Manuel'
'Trodahl, Joe'
'Kowalski, Ben'
'Jo, Wook'
'Kleebe, Hans-Joachim'
'Roedel, Juergen'
'Jones, Jacob L.'
_cell_length_a 9.5513(8)
_cell_length_b 5.4802(5)
_cell_length_c 5.5205(6)
_cell_angle_alpha 90.
_cell_angle_beta 125.577(6)
_cell_angle_gamma 90.
_cell_volume 235.02
_cell_formula_units_Z 4
_symmetry_space_group_name_H-M 'C 1 c 1'
_symmetry_Int_Tables_number 9
_refine_ls_R_factor_all 0.042
loop_
_symmetry_equiv_pos_site_id
_symmetry_equiv_pos_as_xyz
1 'x, -y, z+1/2'
2 'x, y, z'
3 'x+1/2, -y+1/2, z+1/2'
4 'x+1/2, y+1/2, z'
loop_
_atom_type_symbol
_atom_type_oxidation_number
O2- -2
Bi3+ 3
Na1+ 1
Ti4+ 4
loop_
_atom_site_label
_atom_site_type_symbol
_atom_site_symmetry_multiplicity
_atom_site_Wyckoff_symbol
_atom_site_fract_x
_atom_site_fract_y
_atom_site_fract_z
_atom_site_B_iso_or_equiv
_atom_site_occupancy
_atom_site_attached_hydrogens
O1 O2- 4 a 0.017(4) 0.193(3) -0.049(6) 0.0085(9) 1. 0
O2 O2- 4 a 0.225(5) 0.487(3) -0.085(9) 0.0085(9) 1. 0
O3 O2- 4 a 0.294(5) 0.025(3) 0.525(9) 0.0085(9) 1. 0
Bi1 Bi3+ 4 a 0. 0.75 0. 0.029(3) 0.5 0
Na1 Na1+ 4 a 0. 0.75 0. 0.029(3) 0.5 0
Ti1 Ti4+ 4 a 0.264(6) 0.261(6) 0.234(9) -0.002(3) 1. 0
#End of TTdata_192001-ICSD