
#(C) 2019 by FIZ Karlsruhe - Leibniz Institute for Information Infrastructure.  All rights reserved.
data_192194-ICSD
_database_code_ICSD 192194
_audit_creation_date 2015-02-01
_chemical_name_systematic 'Sodium potassium aluminosilicate (3/0.57/4)'
_chemical_formula_structural 'Na3 K0.57 (Al Si O4)4'
_chemical_formula_sum 'Al4 K0.57 Na3 O16 Si4'
_chemical_name_structure_type KNa3Al4(SiO4)4
_chemical_name_mineral Nepheline
_exptl_crystal_density_diffrn 2.61
_cell_measurement_temperature 298.
_publ_section_title

;
Nephelines from the Somma-Vesuvius volcanic complex (Southern Italy):
crystal-chemical, structural and genetic investigations
;
loop_
_citation_id
_citation_journal_full
_citation_year
_citation_journal_volume
_citation_page_first
_citation_page_last
_citation_journal_id_ASTM
primary 'Mineralogy and Petrology' 2014 108 71 90 MIPEE9
loop_
_publ_author_name
'Balassone, Giuseppina'
'Kahlenberg, Volker'
'Altomare, Angela'
'Mormone, Angela'
'Rizzi, Rosanna'
'Saviano, Michele'
'Mondillo, Nicola'
_cell_length_a 9.9780(2)
_cell_length_b 9.9780(2)
_cell_length_c 8.3614(2)
_cell_angle_alpha 90
_cell_angle_beta 90
_cell_angle_gamma 120
_cell_volume 720.93
_cell_formula_units_Z 2
_symmetry_space_group_name_H-M 'P 63'
_symmetry_Int_Tables_number 173
_refine_ls_R_factor_all 0.0355
loop_
_symmetry_equiv_pos_site_id
_symmetry_equiv_pos_as_xyz
1 'x-y, x, z+1/2'
2 'y, -x+y, z+1/2'
3 '-x, -y, z+1/2'
4 '-x+y, -x, z'
5 '-y, x-y, z'
6 'x, y, z'
loop_
_atom_type_symbol
_atom_type_oxidation_number
K1+ 1
Na1+ 1
Al3+ 3
Si4+ 4
Al3+ 3
O2- -2
loop_
_atom_site_label
_atom_site_type_symbol
_atom_site_symmetry_multiplicity
_atom_site_Wyckoff_symbol
_atom_site_fract_x
_atom_site_fract_y
_atom_site_fract_z
_atom_site_B_iso_or_equiv
_atom_site_occupancy
_atom_site_attached_hydrogens
K1 K1+ 2 a 0 0 0.5086(4) 0.0255(4) 0.575(4) 0
Na1 Na1+ 6 c 0.44600(8) 0.44264(8) 0.5150(3) 0.01992(15) 1 0
Al1 Al3+ 2 b 0.3333 0.6667 0.70862(17) 0.0096(2) 1 0
Si1 Si4+ 2 b 0.3333 0.6667 0.31985(15) 0.0101(2) 1 0
Si2 Si4+ 6 c 0.24002(7) 0.33400(7) 0.82922(6) 0.00911(13) 1 0
Al2 Al3+ 6 c 0.23855(8) 0.33166(8) 0.20234(7) 0.00863(16) 1 0
O1 O2- 6 c 0.2906(8) 0.6627(17) 0.5082(10) 0.0278(10) 0.33 0
O2 O2- 6 c 0.70962(15) 0.6825(2) 0.5091(4) 0.0263(3) 1 0
O3 O2- 6 c 0.3490(3) 0.5231(2) 0.2583(5) 0.0323(6) 1 0
O4 O2- 6 c 0.3484(3) 0.5105(2) 0.7707(5) 0.0286(5) 1 0
O5 O2- 6 c 0.2871(2) 0.2273(2) 0.3307(3) 0.0142(3) 1 0
O6 O2- 6 c 0.2677(2) 0.2249(2) 0.7084(3) 0.0175(4) 1 0
loop_
_atom_site_aniso_label
_atom_site_aniso_type_symbol
_atom_site_aniso_U_11
_atom_site_aniso_U_22
_atom_site_aniso_U_33
_atom_site_aniso_U_12
_atom_site_aniso_U_13
_atom_site_aniso_U_23
K1 K1+ 0.0211(4) 0.0211(4) 0.0344(9) 0.0105(2) 0 0
Na1 Na1+ 0.0209(3) 0.0159(3) 0.0168(3) 0.0047(2) -0.0002(7) -0.0012(6)
Al1 Al3+ 0.0089(3) 0.0089(3) 0.0111(6) 0.00443(14) 0 0
Si1 Si4+ 0.0102(3) 0.0102(3) 0.0099(6) 0.00509(13) 0 0
Si2 Si4+ 0.0078(2) 0.0089(2) 0.0115(3) 0.00485(19) -0.0007(3) -0.0001(3)
Al2 Al3+ 0.0072(3) 0.0084(3) 0.0118(4) 0.0050(2) 0.0004(3) 0.0009(3)
O1 O2- 0.035(4) 0.041(2) 0.0104(15) 0.021(5) -0.004(3) 0.000(5)
O2 O2- 0.0199(6) 0.0543(9) 0.0136(6) 0.0253(6) 0.0017(9) 0.0025(12)
O3 O2- 0.0111(8) 0.0084(8) 0.0780(18) 0.0054(7) -0.0029(10) -0.0065(10)
O4 O2- 0.0117(8) 0.0080(7) 0.0662(15) 0.0049(7) 0.0056(9) 0.0068(9)
O5 O2- 0.0192(7) 0.0131(6) 0.0153(8) 0.0117(6) -0.0002(7) 0.0012(7)
O6 O2- 0.0220(8) 0.0180(8) 0.0196(9) 0.0153(7) -0.0032(7) -0.0043(7)
#End of TTdata_192194-ICSD