
#(C) 2019 by FIZ Karlsruhe - Leibniz Institute for Information Infrastructure.  All rights reserved.
data_192192-ICSD
_database_code_ICSD 192192
_audit_creation_date 2015-02-01
_chemical_name_systematic 'Sodium potassium aluminosilicate (3/0.57/4)'
_chemical_formula_structural 'Na3 K0.57 (Al Si O4)4'
_chemical_formula_sum 'Al4 K0.57 Na3 O16 Si4'
_chemical_name_structure_type KNa3Al4(SiO4)4
_chemical_name_mineral Nepheline
_exptl_crystal_density_diffrn 2.61
_cell_measurement_temperature 298.
_publ_section_title

;
Nephelines from the Somma-Vesuvius volcanic complex (Southern Italy):
crystal-chemical, structural and genetic investigations
;
loop_
_citation_id
_citation_journal_full
_citation_year
_citation_journal_volume
_citation_page_first
_citation_page_last
_citation_journal_id_ASTM
primary 'Mineralogy and Petrology' 2014 108 71 90 MIPEE9
loop_
_publ_author_name
'Balassone, Giuseppina'
'Kahlenberg, Volker'
'Altomare, Angela'
'Mormone, Angela'
'Rizzi, Rosanna'
'Saviano, Michele'
'Mondillo, Nicola'
_cell_length_a 9.9827(2)
_cell_length_b 9.9827(2)
_cell_length_c 8.3664(3)
_cell_angle_alpha 90
_cell_angle_beta 90
_cell_angle_gamma 120
_cell_volume 722.04
_cell_formula_units_Z 2
_symmetry_space_group_name_H-M 'P 63'
_symmetry_Int_Tables_number 173
_refine_ls_R_factor_all 0.0279
loop_
_symmetry_equiv_pos_site_id
_symmetry_equiv_pos_as_xyz
1 'x-y, x, z+1/2'
2 'y, -x+y, z+1/2'
3 '-x, -y, z+1/2'
4 '-x+y, -x, z'
5 '-y, x-y, z'
6 'x, y, z'
loop_
_atom_type_symbol
_atom_type_oxidation_number
K1+ 1
Na1+ 1
Al3+ 3
Si4+ 4
Al3+ 3
O2- -2
loop_
_atom_site_label
_atom_site_type_symbol
_atom_site_symmetry_multiplicity
_atom_site_Wyckoff_symbol
_atom_site_fract_x
_atom_site_fract_y
_atom_site_fract_z
_atom_site_B_iso_or_equiv
_atom_site_occupancy
_atom_site_attached_hydrogens
K1 K1+ 2 a 0 0 0.5088(5) 0.0261(4) 0.577(4) 0
Na1 Na1+ 6 c 0.44603(8) 0.44267(8) 0.5152(3) 0.02040(14) 1 0
Al1 Al3+ 2 b 0.3333 0.6667 0.70880(19) 0.0102(2) 1 0
Si1 Si4+ 2 b 0.3333 0.6667 0.31989(17) 0.0107(2) 1 0
Si2 Si4+ 6 c 0.24004(8) 0.33408(8) 0.82922(6) 0.00971(13) 1 0
Al2 Al3+ 6 c 0.23846(8) 0.33154(8) 0.20228(7) 0.00923(16) 1 0
O1 O2- 6 c 0.2905(8) 0.6629(16) 0.5075(11) 0.0284(10) 0.33 0
O2 O2- 6 c 0.70949(15) 0.6821(2) 0.5092(4) 0.0270(3) 1 0
O3 O2- 6 c 0.3495(3) 0.5235(2) 0.2577(5) 0.0331(6) 1 0
O4 O2- 6 c 0.3481(3) 0.5100(3) 0.7704(5) 0.0288(5) 1 0
O5 O2- 6 c 0.2870(2) 0.2270(2) 0.3307(4) 0.0150(3) 1 0
O6 O2- 6 c 0.2679(2) 0.2251(2) 0.7084(4) 0.0183(4) 1 0
loop_
_atom_site_aniso_label
_atom_site_aniso_type_symbol
_atom_site_aniso_U_11
_atom_site_aniso_U_22
_atom_site_aniso_U_33
_atom_site_aniso_U_12
_atom_site_aniso_U_13
_atom_site_aniso_U_23
K1 K1+ 0.0217(4) 0.0217(4) 0.0348(8) 0.01086(19) 0 0
Na1 Na1+ 0.0218(3) 0.0162(3) 0.0172(3) 0.0050(2) -0.0002(7) -0.0013(6)
Al1 Al3+ 0.0096(3) 0.0096(3) 0.0114(6) 0.00479(15) 0 0
Si1 Si4+ 0.0108(3) 0.0108(3) 0.0104(6) 0.00540(14) 0 0
Si2 Si4+ 0.0087(2) 0.0097(2) 0.0121(3) 0.0057(2) -0.0007(3) 0.0001(3)
Al2 Al3+ 0.0078(3) 0.0091(3) 0.0119(4) 0.0051(2) 0.0005(3) 0.0012(4)
O1 O2- 0.034(4) 0.042(2) 0.0112(16) 0.020(4) 0.001(3) 0.000(5)
O2 O2- 0.0205(5) 0.0553(9) 0.0138(6) 0.0254(6) 0.0011(10) 0.0004(13)
O3 O2- 0.0125(9) 0.0086(8) 0.0790(19) 0.0058(7) -0.0001(10) -0.0068(10)
O4 O2- 0.0124(8) 0.0089(7) 0.0651(16) 0.0054(7) 0.0076(10) 0.0061(9)
O5 O2- 0.0203(7) 0.0138(7) 0.0159(8) 0.0122(6) 0.0003(7) 0.0011(7)
O6 O2- 0.0241(8) 0.0197(8) 0.0196(9) 0.0174(7) -0.0028(8) -0.0042(8)
#End of TTdata_192192-ICSD