
#(C) 2019 by FIZ Karlsruhe - Leibniz Institute for Information Infrastructure.  All rights reserved.
data_192195-ICSD
_database_code_ICSD 192195
_audit_creation_date 2015-02-01
_chemical_name_systematic 'Sodium potassium aluminosilicate (3/0.61/4)'
_chemical_formula_structural 'Na3 K0.61 (Al Si O4)4'
_chemical_formula_sum 'Al4 K0.61 Na3 O16 Si4'
_chemical_name_structure_type KNa3Al4(SiO4)4
_chemical_name_mineral Nepheline
_exptl_crystal_density_diffrn 2.62
_cell_measurement_temperature 298.
_publ_section_title

;
Nephelines from the Somma-Vesuvius volcanic complex (Southern Italy):
crystal-chemical, structural and genetic investigations
;
loop_
_citation_id
_citation_journal_full
_citation_year
_citation_journal_volume
_citation_page_first
_citation_page_last
_citation_journal_id_ASTM
primary 'Mineralogy and Petrology' 2014 108 71 90 MIPEE9
loop_
_publ_author_name
'Balassone, Giuseppina'
'Kahlenberg, Volker'
'Altomare, Angela'
'Mormone, Angela'
'Rizzi, Rosanna'
'Saviano, Michele'
'Mondillo, Nicola'
_cell_length_a 9.9839(3)
_cell_length_b 9.9839(3)
_cell_length_c 8.3656(3)
_cell_angle_alpha 90
_cell_angle_beta 90
_cell_angle_gamma 120
_cell_volume 722.15
_cell_formula_units_Z 2
_symmetry_space_group_name_H-M 'P 63'
_symmetry_Int_Tables_number 173
_refine_ls_R_factor_all 0.0279
loop_
_symmetry_equiv_pos_site_id
_symmetry_equiv_pos_as_xyz
1 'x-y, x, z+1/2'
2 'y, -x+y, z+1/2'
3 '-x, -y, z+1/2'
4 '-x+y, -x, z'
5 '-y, x-y, z'
6 'x, y, z'
loop_
_atom_type_symbol
_atom_type_oxidation_number
K1+ 1
Na1+ 1
Al3+ 3
Si4+ 4
Al3+ 3
O2- -2
loop_
_atom_site_label
_atom_site_type_symbol
_atom_site_symmetry_multiplicity
_atom_site_Wyckoff_symbol
_atom_site_fract_x
_atom_site_fract_y
_atom_site_fract_z
_atom_site_B_iso_or_equiv
_atom_site_occupancy
_atom_site_attached_hydrogens
K1 K1+ 2 a 0 0 0.5092(5) 0.0266(4) 0.609(3) 0
Na1 Na1+ 6 c 0.44607(8) 0.44279(8) 0.5149(3) 0.02064(14) 1 0
Al1 Al3+ 2 b 0.3333 0.6667 0.70872(19) 0.0105(2) 1 0
Si1 Si4+ 2 b 0.3333 0.6667 0.31985(17) 0.0113(2) 1 0
Si2 Si4+ 6 c 0.24003(8) 0.33393(8) 0.82915(6) 0.01002(14) 1 0
Al2 Al3+ 6 c 0.23882(9) 0.33186(9) 0.20228(7) 0.00989(17) 1 0
O1 O2- 6 c 0.2900(8) 0.6614(18) 0.5080(12) 0.0299(11) 0.33 0
O2 O2- 6 c 0.70965(15) 0.68267(19) 0.5095(4) 0.0275(3) 1 0
O3 O2- 6 c 0.3495(3) 0.5233(3) 0.2583(6) 0.0342(7) 1 0
O4 O2- 6 c 0.3482(3) 0.5105(3) 0.7710(5) 0.0293(6) 1 0
O5 O2- 6 c 0.2871(2) 0.2272(2) 0.3311(4) 0.0157(4) 1 0
O6 O2- 6 c 0.2678(2) 0.2247(3) 0.7083(4) 0.0186(4) 1 0
loop_
_atom_site_aniso_label
_atom_site_aniso_type_symbol
_atom_site_aniso_U_11
_atom_site_aniso_U_22
_atom_site_aniso_U_33
_atom_site_aniso_U_12
_atom_site_aniso_U_13
_atom_site_aniso_U_23
K1 K1+ 0.0223(4) 0.0223(4) 0.0353(8) 0.01115(18) 0 0
Na1 Na1+ 0.0222(3) 0.0168(3) 0.0174(3) 0.0055(2) -0.0002(7) -0.0008(7)
Al1 Al3+ 0.0100(3) 0.0100(3) 0.0115(7) 0.00501(17) 0 0
Si1 Si4+ 0.0114(3) 0.0114(3) 0.0112(6) 0.00568(15) 0 0
Si2 Si4+ 0.0087(3) 0.0101(3) 0.0125(4) 0.0057(2) -0.0008(3) 0.0001(3)
Al2 Al3+ 0.0086(3) 0.0096(3) 0.0127(4) 0.0056(3) 0.0005(4) 0.0012(4)
O1 O2- 0.034(4) 0.044(2) 0.0114(17) 0.020(5) -0.005(4) -0.003(6)
O2 O2- 0.0215(6) 0.0551(9) 0.0153(6) 0.0261(6) -0.0002(10) -0.0005(14)
O3 O2- 0.0118(9) 0.0091(8) 0.082(2) 0.0055(8) -0.0016(11) -0.0073(11)
O4 O2- 0.0134(9) 0.0100(8) 0.0656(16) 0.0067(7) 0.0058(10) 0.0062(10)
O5 O2- 0.0225(8) 0.0143(7) 0.0156(8) 0.0132(6) -0.0001(7) 0.0001(7)
O6 O2- 0.0232(9) 0.0190(9) 0.0210(10) 0.0161(7) -0.0045(8) -0.0053(8)
#End of TTdata_192195-ICSD