
#(C) 2019 by FIZ Karlsruhe - Leibniz Institute for Information Infrastructure.  All rights reserved.
data_192197-ICSD
_database_code_ICSD 192197
_audit_creation_date 2015-02-01
_chemical_name_systematic 'Sodium potassium aluminosilicate (3/0.58/4)'
_chemical_formula_structural 'Na3 K0.58 (Al Si O4)4'
_chemical_formula_sum 'Al4 K0.58 Na3 O16 Si4'
_chemical_name_structure_type KNa3Al4(SiO4)4
_chemical_name_mineral Nepheline
_exptl_crystal_density_diffrn 2.61
_cell_measurement_temperature 298.
_publ_section_title

;
Nephelines from the Somma-Vesuvius volcanic complex (Southern Italy):
crystal-chemical, structural and genetic investigations
;
loop_
_citation_id
_citation_journal_full
_citation_year
_citation_journal_volume
_citation_page_first
_citation_page_last
_citation_journal_id_ASTM
primary 'Mineralogy and Petrology' 2014 108 71 90 MIPEE9
loop_
_publ_author_name
'Balassone, Giuseppina'
'Kahlenberg, Volker'
'Altomare, Angela'
'Mormone, Angela'
'Rizzi, Rosanna'
'Saviano, Michele'
'Mondillo, Nicola'
_cell_length_a 9.9886(3)
_cell_length_b 9.9886(3)
_cell_length_c 8.3688(2)
_cell_angle_alpha 90
_cell_angle_beta 90
_cell_angle_gamma 120
_cell_volume 723.1
_cell_formula_units_Z 2
_symmetry_space_group_name_H-M 'P 63'
_symmetry_Int_Tables_number 173
_refine_ls_R_factor_all 0.0272
loop_
_symmetry_equiv_pos_site_id
_symmetry_equiv_pos_as_xyz
1 'x-y, x, z+1/2'
2 'y, -x+y, z+1/2'
3 '-x, -y, z+1/2'
4 '-x+y, -x, z'
5 '-y, x-y, z'
6 'x, y, z'
loop_
_atom_type_symbol
_atom_type_oxidation_number
K1+ 1
Na1+ 1
Al3+ 3
Si4+ 4
Al3+ 3
O2- -2
loop_
_atom_site_label
_atom_site_type_symbol
_atom_site_symmetry_multiplicity
_atom_site_Wyckoff_symbol
_atom_site_fract_x
_atom_site_fract_y
_atom_site_fract_z
_atom_site_B_iso_or_equiv
_atom_site_occupancy
_atom_site_attached_hydrogens
K1 K1+ 2 a 0 0 0.5096(6) 0.0234(4) 0.578(4) 0
Na1 Na1+ 6 c 0.44608(9) 0.44280(9) 0.5147(4) 0.02012(16) 1 0
Al1 Al3+ 2 b 0.3333 0.6667 0.7090(2) 0.0100(3) 1 0
Si1 Si4+ 2 b 0.3333 0.6667 0.3202(2) 0.0112(3) 1 0
Si2 Si4+ 6 c 0.24005(11) 0.33405(11) 0.82898(7) 0.00973(17) 1 0
Al2 Al3+ 6 c 0.23873(12) 0.33161(12) 0.20197(8) 0.0095(2) 1 0
O1 O2- 6 c 0.2952(17) 0.670(2) 0.5081(11) 0.031(2) 0.33 0
O2 O2- 6 c 0.70886(17) 0.6815(2) 0.5113(5) 0.0265(4) 1 0
O3 O2- 6 c 0.3498(4) 0.5237(3) 0.2573(6) 0.0340(8) 1 0
O4 O2- 6 c 0.3480(4) 0.5098(3) 0.7703(6) 0.0276(6) 1 0
O5 O2- 6 c 0.2871(3) 0.2274(3) 0.3330(4) 0.0148(5) 1 0
O6 O2- 6 c 0.2688(3) 0.2252(4) 0.7114(4) 0.0179(5) 1 0
loop_
_atom_site_aniso_label
_atom_site_aniso_type_symbol
_atom_site_aniso_U_11
_atom_site_aniso_U_22
_atom_site_aniso_U_33
_atom_site_aniso_U_12
_atom_site_aniso_U_13
_atom_site_aniso_U_23
K1 K1+ 0.0188(4) 0.0188(4) 0.0326(9) 0.0094(2) 0 0
Na1 Na1+ 0.0210(4) 0.0163(3) 0.0168(3) 0.0046(3) 0.0001(10) -0.0011(8)
Al1 Al3+ 0.0090(5) 0.0090(5) 0.0118(9) 0.0045(3) 0 0
Si1 Si4+ 0.0114(5) 0.0114(5) 0.0108(8) 0.0057(2) 0 0
Si2 Si4+ 0.0088(4) 0.0097(3) 0.0122(5) 0.0057(3) -0.0002(4) 0.0011(5)
Al2 Al3+ 0.0080(4) 0.0090(4) 0.0122(5) 0.0048(4) 0.0009(5) 0.0022(5)
O1 O2- 0.054(9) 0.041(3) 0.0113(19) 0.034(6) 0.000(5) 0.014(6)
O2 O2- 0.0186(7) 0.0505(9) 0.0171(6) 0.0223(7) 0.0032(14) -0.004(2)
O3 O2- 0.0132(13) 0.0077(11) 0.081(2) 0.0052(10) 0.0004(16) -0.0062(13)
O4 O2- 0.0137(12) 0.0098(11) 0.0603(17) 0.0067(9) 0.0088(14) 0.0061(12)
O5 O2- 0.0208(10) 0.0153(10) 0.0129(10) 0.0125(9) -0.0005(8) 0.0007(9)
O6 O2- 0.0242(12) 0.0184(12) 0.0184(10) 0.0162(10) 0.0002(9) -0.0029(9)
#End of TTdata_192197-ICSD