
#(C) 2019 by FIZ Karlsruhe - Leibniz Institute for Information Infrastructure.  All rights reserved.
data_192112-ICSD
_database_code_ICSD 192112
_audit_creation_date 2015-02-01
_chemical_name_systematic 'Sodium yttrium tungsten oxide (0.46/0.54/0.99/4)'
_chemical_formula_structural '(Na0.497 Y0.503) (W0.998 O4)'
_chemical_formula_sum 'Na0.497 O4 W0.998 Y0.503'
_chemical_name_structure_type Scheelite-CaWO4
_exptl_crystal_density_diffrn 6.6
_cell_measurement_temperature 293.
_publ_section_title

;
Structure-property relationship for complex-substituted molybdates and
tungstates of the scheelite family
;
loop_
_citation_id
_citation_journal_full
_citation_year
_citation_journal_volume
_citation_page_first
_citation_page_last
_citation_journal_id_ASTM
primary 'Crystallography Reports' 2014 59 22 29 CYSTE3
loop_
_publ_author_name
'Kuz'micheva, G.M.'
'Zagorul'ko, E.A.'
'Bolotina, N.B.'
'Rybakov, V.B.'
'Zharikov, E.V.'
'Lis, D.A.'
'Subbotin, K.A.'
_cell_length_a 5.2047(6)
_cell_length_b 5.2047(6)
_cell_length_c 11.2821(4)
_cell_angle_alpha 90.
_cell_angle_beta 90.
_cell_angle_gamma 90.
_cell_volume 305.62
_cell_formula_units_Z 4
_symmetry_space_group_name_H-M 'I 41/a S'
_symmetry_Int_Tables_number 88
_refine_ls_R_factor_all 0.0379
loop_
_symmetry_equiv_pos_site_id
_symmetry_equiv_pos_as_xyz
1 'y, -x+1/2, z+1/4'
2 '-y, x+1/2, z+1/4'
3 'y, -x, -z'
4 '-y, x, -z'
5 '-x, -y+1/2, -z+1/4'
6 'x, y+1/2, -z+1/4'
7 '-x, -y, z'
8 'x, y, z'
9 'y+1/2, -x, z+3/4'
10 '-y+1/2, x, z+3/4'
11 'y+1/2, -x+1/2, -z+1/2'
12 '-y+1/2, x+1/2, -z+1/2'
13 '-x+1/2, -y, -z+3/4'
14 'x+1/2, y, -z+3/4'
15 '-x+1/2, -y+1/2, z+1/2'
16 'x+1/2, y+1/2, z+1/2'
loop_
_atom_type_symbol
_atom_type_oxidation_number
Na1+ 1
Y3+ 3
W6+ 6
O2- -2
loop_
_atom_site_label
_atom_site_type_symbol
_atom_site_symmetry_multiplicity
_atom_site_Wyckoff_symbol
_atom_site_fract_x
_atom_site_fract_y
_atom_site_fract_z
_atom_site_B_iso_or_equiv
_atom_site_occupancy
_atom_site_attached_hydrogens
Na1 Na1+ 4 b 0 0 0.5 0.009087(12) 0.4972(4) 0
Y1 Y3+ 4 b 0 0 0.5 0.009087(12) 0.5032(12) 0
W1 W6+ 4 a 0 0 0 0.010438(4) 0.9980(8) 0
O1 O2- 16 f 0.2569(8) 0.1546(7) 0.6630(4) 0.019090(7) 1.00(1) 0
#End of TTdata_192112-ICSD