
#(C) 2019 by FIZ Karlsruhe - Leibniz Institute for Information Infrastructure.  All rights reserved.
data_192196-ICSD
_database_code_ICSD 192196
_audit_creation_date 2015-02-01
_chemical_name_systematic 'Sodium potassium aluminosilicate (3/0.55/4)'
_chemical_formula_structural 'Na3 K0.55 (Al Si O4)4'
_chemical_formula_sum 'Al4 K0.55 Na3 O16 Si4'
_chemical_name_structure_type KNa3Al4(SiO4)4
_chemical_name_mineral Nepheline
_exptl_crystal_density_diffrn 2.61
_cell_measurement_temperature 298.
_publ_section_title

;
Nephelines from the Somma-Vesuvius volcanic complex (Southern Italy):
crystal-chemical, structural and genetic investigations
;
loop_
_citation_id
_citation_journal_full
_citation_year
_citation_journal_volume
_citation_page_first
_citation_page_last
_citation_journal_id_ASTM
primary 'Mineralogy and Petrology' 2014 108 71 90 MIPEE9
loop_
_publ_author_name
'Balassone, Giuseppina'
'Kahlenberg, Volker'
'Altomare, Angela'
'Mormone, Angela'
'Rizzi, Rosanna'
'Saviano, Michele'
'Mondillo, Nicola'
_cell_length_a 9.9774(2)
_cell_length_b 9.9774(2)
_cell_length_c 8.3634(2)
_cell_angle_alpha 90
_cell_angle_beta 90
_cell_angle_gamma 120
_cell_volume 721.02
_cell_formula_units_Z 2
_symmetry_space_group_name_H-M 'P 63'
_symmetry_Int_Tables_number 173
_refine_ls_R_factor_all 0.0272
loop_
_symmetry_equiv_pos_site_id
_symmetry_equiv_pos_as_xyz
1 'x-y, x, z+1/2'
2 'y, -x+y, z+1/2'
3 '-x, -y, z+1/2'
4 '-x+y, -x, z'
5 '-y, x-y, z'
6 'x, y, z'
loop_
_atom_type_symbol
_atom_type_oxidation_number
K1+ 1
Na1+ 1
Al3+ 3
Si4+ 4
Al3+ 3
O2- -2
loop_
_atom_site_label
_atom_site_type_symbol
_atom_site_symmetry_multiplicity
_atom_site_Wyckoff_symbol
_atom_site_fract_x
_atom_site_fract_y
_atom_site_fract_z
_atom_site_B_iso_or_equiv
_atom_site_occupancy
_atom_site_attached_hydrogens
K1 K1+ 2 a 0 0 0.5092(5) 0.0267(4) 0.549(3) 0
Na1 Na1+ 6 c 0.44607(7) 0.44244(7) 0.5149(3) 0.02016(13) 1 0
Al1 Al3+ 2 b 0.3333 0.6667 0.70864(17) 0.0101(2) 1 0
Si1 Si4+ 2 b 0.3333 0.6667 0.31993(16) 0.0115(2) 1 0
Si2 Si4+ 6 c 0.24012(7) 0.33412(7) 0.82926(6) 0.01011(13) 1 0
Al2 Al3+ 6 c 0.23854(8) 0.33157(8) 0.20235(7) 0.00954(15) 1 0
O1 O2- 6 c 0.2900(7) 0.6616(16) 0.5069(10) 0.0293(10) 0.33 0
O2 O2- 6 c 0.70922(14) 0.68173(18) 0.5091(4) 0.0274(3) 1 0
O3 O2- 6 c 0.3492(3) 0.5230(2) 0.2586(5) 0.0343(6) 1 0
O4 O2- 6 c 0.3484(3) 0.5104(2) 0.7710(5) 0.0302(5) 1 0
O5 O2- 6 c 0.2875(2) 0.2274(2) 0.3302(3) 0.0159(3) 1 0
O6 O2- 6 c 0.2684(2) 0.2253(2) 0.7078(3) 0.0185(4) 1 0
loop_
_atom_site_aniso_label
_atom_site_aniso_type_symbol
_atom_site_aniso_U_11
_atom_site_aniso_U_22
_atom_site_aniso_U_33
_atom_site_aniso_U_12
_atom_site_aniso_U_13
_atom_site_aniso_U_23
K1 K1+ 0.0220(4) 0.0220(4) 0.0361(8) 0.01098(19) 0 0
Na1 Na1+ 0.0218(3) 0.0161(3) 0.0167(3) 0.0051(2) -0.0008(6) -0.0012(6)
Al1 Al3+ 0.0096(3) 0.0096(3) 0.0111(6) 0.00481(14) 0 0
Si1 Si4+ 0.0114(3) 0.0114(3) 0.0119(6) 0.00568(13) 0 0
Si2 Si4+ 0.0088(2) 0.0101(2) 0.0127(3) 0.00574(19) -0.0006(3) 0.0002(3)
Al2 Al3+ 0.0083(3) 0.0093(3) 0.0119(4) 0.0051(2) 0.0006(3) 0.0014(3)
O1 O2- 0.035(4) 0.044(2) 0.0106(16) 0.021(4) -0.003(3) 0.001(5)
O2 O2- 0.0210(5) 0.0558(8) 0.0143(6) 0.0258(6) -0.0001(9) 0.0009(12)
O3 O2- 0.0121(8) 0.0100(8) 0.0810(18) 0.0058(7) -0.0011(9) -0.0082(9)
O4 O2- 0.0131(8) 0.0100(7) 0.0685(15) 0.0066(7) 0.0071(9) 0.0063(9)
O5 O2- 0.0203(7) 0.0142(7) 0.0178(8) 0.0122(6) 0.0004(7) 0.0016(7)
O6 O2- 0.0243(8) 0.0191(8) 0.0198(9) 0.0166(7) -0.0040(7) -0.0039(7)
#End of TTdata_192196-ICSD