
#(C) 2019 by FIZ Karlsruhe - Leibniz Institute for Information Infrastructure.  All rights reserved.
data_192198-ICSD
_database_code_ICSD 192198
_audit_creation_date 2015-02-01
_chemical_name_systematic 'Sodium potassium aluminosilicate (3/0.86/4)'
_chemical_formula_structural 'Na3 K0.86 (Al Si O4)4'
_chemical_formula_sum 'Al4 K0.86 Na3 O16 Si4'
_chemical_name_structure_type KNa3Al4(SiO4)4
_chemical_name_mineral Nepheline
_exptl_crystal_density_diffrn 2.65
_cell_measurement_temperature 298.
_publ_section_title

;
Nephelines from the Somma-Vesuvius volcanic complex (Southern Italy):
crystal-chemical, structural and genetic investigations
;
loop_
_citation_id
_citation_journal_full
_citation_year
_citation_journal_volume
_citation_page_first
_citation_page_last
_citation_journal_id_ASTM
primary 'Mineralogy and Petrology' 2014 108 71 90 MIPEE9
loop_
_publ_author_name
'Balassone, Giuseppina'
'Kahlenberg, Volker'
'Altomare, Angela'
'Mormone, Angela'
'Rizzi, Rosanna'
'Saviano, Michele'
'Mondillo, Nicola'
_cell_length_a 9.9946(3)
_cell_length_b 9.9946(3)
_cell_length_c 8.3777(3)
_cell_angle_alpha 90
_cell_angle_beta 90
_cell_angle_gamma 120
_cell_volume 724.74
_cell_formula_units_Z 2
_symmetry_space_group_name_H-M 'P 63'
_symmetry_Int_Tables_number 173
_refine_ls_R_factor_all 0.0296
loop_
_symmetry_equiv_pos_site_id
_symmetry_equiv_pos_as_xyz
1 'x-y, x, z+1/2'
2 'y, -x+y, z+1/2'
3 '-x, -y, z+1/2'
4 '-x+y, -x, z'
5 '-y, x-y, z'
6 'x, y, z'
loop_
_atom_type_symbol
_atom_type_oxidation_number
K1+ 1
Na1+ 1
Al3+ 3
Si4+ 4
Al3+ 3
O2- -2
loop_
_atom_site_label
_atom_site_type_symbol
_atom_site_symmetry_multiplicity
_atom_site_Wyckoff_symbol
_atom_site_fract_x
_atom_site_fract_y
_atom_site_fract_z
_atom_site_B_iso_or_equiv
_atom_site_occupancy
_atom_site_attached_hydrogens
K1 K1+ 2 a 0 0 0.5092(3) 0.0201(3) 0.855(4) 0
Na1 Na1+ 6 c 0.44556(10) 0.44389(9) 0.5150(3) 0.02062(16) 1 0
Al1 Al3+ 2 b 0.3333 0.6667 0.70891(18) 0.0082(3) 1 0
Si1 Si4+ 2 b 0.3333 0.6667 0.31924(16) 0.0092(3) 1 0
Si2 Si4+ 6 c 0.24063(10) 0.33412(10) 0.82904(7) 0.00830(15) 1 0
Al2 Al3+ 6 c 0.23977(11) 0.33248(11) 0.20240(8) 0.00764(19) 1 0
O1 O2- 6 c 0.316(6) 0.684(4) 0.5074(9) 0.043(4) 0.33 0
O2 O2- 6 c 0.71060(17) 0.6851(2) 0.5083(4) 0.0204(3) 1 0
O3 O2- 6 c 0.3514(3) 0.5247(3) 0.2579(5) 0.0263(6) 1 0
O4 O2- 6 c 0.3486(3) 0.5095(3) 0.7721(5) 0.0233(5) 1 0
O5 O2- 6 c 0.2856(3) 0.2259(3) 0.3323(4) 0.0124(4) 1 0
O6 O2- 6 c 0.2657(3) 0.2226(3) 0.7098(4) 0.0150(4) 1 0
loop_
_atom_site_aniso_label
_atom_site_aniso_type_symbol
_atom_site_aniso_U_11
_atom_site_aniso_U_22
_atom_site_aniso_U_33
_atom_site_aniso_U_12
_atom_site_aniso_U_13
_atom_site_aniso_U_23
K1 K1+ 0.0166(3) 0.0166(3) 0.0272(5) 0.00831(14) 0 0
Na1 Na1+ 0.0207(4) 0.0173(4) 0.0172(3) 0.0045(3) -0.0001(9) -0.0015(8)
Al1 Al3+ 0.0072(4) 0.0072(4) 0.0101(7) 0.0036(2) 0 0
Si1 Si4+ 0.0091(4) 0.0091(4) 0.0094(7) 0.00454(19) 0 0
Si2 Si4+ 0.0079(3) 0.0080(3) 0.0097(3) 0.0044(3) 0.0001(4) 0.0011(4)
Al2 Al3+ 0.0063(4) 0.0070(3) 0.0105(4) 0.0040(3) 0.0005(4) 0.0014(4)
O1 O2- 0.105(13) 0.048(4) 0.0123(17) 0.064(7) 0.020(7) 0.018(6)
O2 O2- 0.0155(6) 0.0399(8) 0.0116(6) 0.0182(6) -0.0007(10) -0.0029(13)
O3 O2- 0.0092(11) 0.0074(9) 0.0629(17) 0.0047(9) -0.0024(12) -0.0068(11)
O4 O2- 0.0113(10) 0.0064(9) 0.0521(14) 0.0044(8) 0.0077(12) 0.0068(10)
O5 O2- 0.0170(9) 0.0129(9) 0.0114(8) 0.0106(7) -0.0006(7) 0.0004(8)
O6 O2- 0.0194(10) 0.0155(10) 0.0170(9) 0.0139(9) -0.0023(8) -0.0035(8)
#End of TTdata_192198-ICSD