
#(C) 2019 by FIZ Karlsruhe - Leibniz Institute for Information Infrastructure.  All rights reserved.
data_192204-ICSD
_database_code_ICSD 192204
_audit_creation_date 2015-02-01
_chemical_name_systematic 'Sodium potassium aluminosilicate (3/0.71/4)'
_chemical_formula_structural 'Na3 K0.71 (Al Si O4)4'
_chemical_formula_sum 'Al4 K0.71 Na3 O16 Si4'
_chemical_name_structure_type KNa3Al4(SiO4)4
_chemical_name_mineral Nepheline
_exptl_crystal_density_diffrn 2.63
_cell_measurement_temperature 298.
_publ_section_title

;
Nephelines from the Somma-Vesuvius volcanic complex (Southern Italy):
crystal-chemical, structural and genetic investigations
;
loop_
_citation_id
_citation_journal_full
_citation_year
_citation_journal_volume
_citation_page_first
_citation_page_last
_citation_journal_id_ASTM
primary 'Mineralogy and Petrology' 2014 108 71 90 MIPEE9
loop_
_publ_author_name
'Balassone, Giuseppina'
'Kahlenberg, Volker'
'Altomare, Angela'
'Mormone, Angela'
'Rizzi, Rosanna'
'Saviano, Michele'
'Mondillo, Nicola'
_cell_length_a 9.9878(6)
_cell_length_b 9.9878(6)
_cell_length_c 8.3750(6)
_cell_angle_alpha 90
_cell_angle_beta 90
_cell_angle_gamma 120
_cell_volume 723.52
_cell_formula_units_Z 2
_symmetry_space_group_name_H-M 'P 63'
_symmetry_Int_Tables_number 173
_refine_ls_R_factor_all 0.0265
loop_
_symmetry_equiv_pos_site_id
_symmetry_equiv_pos_as_xyz
1 'x-y, x, z+1/2'
2 'y, -x+y, z+1/2'
3 '-x, -y, z+1/2'
4 '-x+y, -x, z'
5 '-y, x-y, z'
6 'x, y, z'
loop_
_atom_type_symbol
_atom_type_oxidation_number
K1+ 1
Na1+ 1
Al3+ 3
Si4+ 4
Al3+ 3
O2- -2
loop_
_atom_site_label
_atom_site_type_symbol
_atom_site_symmetry_multiplicity
_atom_site_Wyckoff_symbol
_atom_site_fract_x
_atom_site_fract_y
_atom_site_fract_z
_atom_site_B_iso_or_equiv
_atom_site_occupancy
_atom_site_attached_hydrogens
K1 K1+ 2 a 0 0 0.5090(3) 0.0216(3) 0.714(3) 0
Na1 Na1+ 6 c 0.44601(7) 0.44299(7) 0.5152(2) 0.01870(13) 1 0
Al1 Al3+ 2 b 0.3333 0.6667 0.70857(16) 0.0093(2) 1 0
Si1 Si4+ 2 b 0.3333 0.6667 0.31968(14) 0.01014(19) 1 0
Si2 Si4+ 6 c 0.24077(7) 0.33424(7) 0.82912(6) 0.00906(12) 1 0
Al2 Al3+ 6 c 0.23939(7) 0.33209(8) 0.20248(6) 0.00888(14) 1 0
O1 O2- 6 c 0.2922(8) 0.6624(19) 0.5066(9) 0.0278(10) 0.33 0
O2 O2- 6 c 0.70900(13) 0.68254(16) 0.5084(3) 0.0227(2) 1 0
O3 O2- 6 c 0.3503(3) 0.5238(2) 0.2581(5) 0.0313(5) 1 0
O4 O2- 6 c 0.3492(3) 0.5106(2) 0.7710(4) 0.0265(5) 1 0
O5 O2- 6 c 0.2874(2) 0.2267(2) 0.3310(3) 0.0143(3) 1 0
O6 O2- 6 c 0.2676(2) 0.2244(2) 0.7084(3) 0.0162(3) 1 0
loop_
_atom_site_aniso_label
_atom_site_aniso_type_symbol
_atom_site_aniso_U_11
_atom_site_aniso_U_22
_atom_site_aniso_U_33
_atom_site_aniso_U_12
_atom_site_aniso_U_13
_atom_site_aniso_U_23
K1 K1+ 0.0173(3) 0.0173(3) 0.0300(5) 0.00867(13) 0 0
Na1 Na1+ 0.0197(3) 0.0152(3) 0.0153(3) 0.0043(2) -0.0005(6) -0.0010(5)
Al1 Al3+ 0.0092(3) 0.0092(3) 0.0096(5) 0.00458(14) 0 0
Si1 Si4+ 0.0098(2) 0.0098(2) 0.0108(5) 0.00492(12) 0 0
Si2 Si4+ 0.0080(2) 0.0087(2) 0.0113(3) 0.00482(18) -0.0006(3) -0.0004(3)
Al2 Al3+ 0.0077(3) 0.0085(3) 0.0112(4) 0.0046(2) 0.0000(3) 0.0001(3)
O1 O2- 0.034(4) 0.041(2) 0.0098(14) 0.019(5) 0.002(3) 0.001(4)
O2 O2- 0.0172(5) 0.0439(7) 0.0121(5) 0.0192(5) -0.0004(8) 0.0005(10)
O3 O2- 0.0114(8) 0.0091(7) 0.0734(16) 0.0052(7) -0.0033(9) -0.0091(9)
O4 O2- 0.0123(8) 0.0090(7) 0.0594(13) 0.0062(6) 0.0079(8) 0.0071(8)
O5 O2- 0.0194(6) 0.0133(6) 0.0146(7) 0.0116(5) 0.0000(6) 0.0008(6)
O6 O2- 0.0205(7) 0.0169(7) 0.0176(8) 0.0141(6) -0.0035(7) -0.0043(7)
#End of TTdata_192204-ICSD