
#(C) 2019 by FIZ Karlsruhe - Leibniz Institute for Information Infrastructure.  All rights reserved.
data_192213-ICSD
_database_code_ICSD 192213
_audit_creation_date 2015-02-01
_chemical_name_systematic 'Sodium manganese molybdate (1.66/2.17/3)'
_chemical_formula_structural 'Na1.66 Mn2.17 (Mo O4)3'
_chemical_formula_sum 'Mn2.17 Mo3 Na1.66 O12'
_exptl_crystal_density_diffrn 3.74
_publ_section_title

;
Homogeneity regions of double molybdates in the Na2 Mo O4  -Mg Mo O4 system
and structures of triclinic Na1.51 Mg2.245 (Mo O4)3 and Na1.66 Mn2.17(Mo O4)3
;
loop_
_citation_id
_citation_journal_full
_citation_year
_citation_journal_volume
_citation_page_first
_citation_page_last
_citation_journal_id_ASTM
primary 'Journal of Structural Chemistry' 2013 54 917 925 JSTCAM
loop_
_publ_author_name
'Solodovnikov, S.F.'
'Solodovnikova, Z.A.'
'Gudkova, I.A.'
'Zolotova, E.S.'
'Yudin, V.N.'
_cell_length_a 7.0778(2)
_cell_length_b 8.8115(2)
_cell_length_c 10.4256(2)
_cell_angle_alpha 106.521(1)
_cell_angle_beta 105.639(1)
_cell_angle_gamma 103.233(1)
_cell_volume 566.45
_cell_formula_units_Z 2
_symmetry_space_group_name_H-M 'P -1'
_symmetry_Int_Tables_number 2
_refine_ls_R_factor_all 0.0175
loop_
_symmetry_equiv_pos_site_id
_symmetry_equiv_pos_as_xyz
1 '-x, -y, -z'
2 'x, y, z'
loop_
_atom_type_symbol
_atom_type_oxidation_number
Mo6+ 6
Mn2+ 2
Na1+ 1
O2- -2
loop_
_atom_site_label
_atom_site_type_symbol
_atom_site_symmetry_multiplicity
_atom_site_Wyckoff_symbol
_atom_site_fract_x
_atom_site_fract_y
_atom_site_fract_z
_atom_site_B_iso_or_equiv
_atom_site_occupancy
_atom_site_attached_hydrogens
Mo1 Mo6+ 2 i 0.38607(3) -0.09288(3) 0.66617(2) 0.01181(6) 1. 0
Mo2 Mo6+ 2 i 0.28404(3) 0.33823(3) 0.73607(2) 0.01213(7) 1. 0
Mo3 Mo6+ 2 i 0.09703(3) 0.26129(3) 0.13033(2) 0.01490(7) 1. 0
Mn1 Mn2+ 2 i 0.54363(6) 0.20449(5) 0.01853(1) 0.01330(9) 1. 0
Mn2 Mn2+ 2 i 0.12269(6) 0.04422(5) 0.39240(4) 0.01335(9) 1. 0
Mn3 Mn2+ 2 i 0.2117(1) -0.2945(1) 0.1995(1) 0.0224(3) 0.171(2) 0
Na1 Na1+ 2 i 0.2117(1) -0.2945(1) 0.1995(1) 0.0224(3) 0.829(1) 0
Na2 Na1+ 2 i 0.483(6) 0.496(4) 0.483(2) 0.0354(3) 0.5 0
Na3 Na1+ 2 i 0.0331(8) -0.5419(6) 0.4413(5) 0.048(1) 0.329(3) 0
O1 O2- 2 i 0.3266(4) -0.3050(3) 0.5782(2) 0.0290(5) 1. 0
O2 O2- 2 i 0.4218(3) -0.0555(2) 0.8496(2) 0.0160(4) 1. 0
O3 O2- 2 i 0.1774(3) -0.0293(2) 0.5815(2) 0.0160(4) 1. 0
O4 O2- 2 i 0.6183(3) 0.0120(3) 0.6508(2) 0.0198(4) 1. 0
O5 O2- 2 i 0.0388(3) 0.2267(2) 0.7302(2) 0.0187(4) 1. 0
O6 O2- 2 i 0.3253(4) 0.5501(3) 0.8183(2) 0.0275(5) 1. 0
O7 O2- 2 i 0.4798(3) 0.2779(3) 0.8359(2) 0.0214(4) 1. 0
O8 O2- 2 i 0.2793(3) 0.2986(2) 0.5582(2) 0.0200(4) 1. 0
O9 O2- 2 i -0.1448(3) 0.2452(3) 0.0091(2) 0.0236(4) 1. 0
O10 O2- 2 i 0.2520(3) 0.1884(3) 0.0350(2) 0.0249(4) 1. 0
O11 O2- 2 i 0.0601(4) 0.1468(3) 0.2388(3) 0.0390(6) 1. 0
O12 O2- 2 i 0.2321(5) 0.4688(3) 0.2467(3) 0.0477(7) 1. 0
#End of TTdata_192213-ICSD