
#(C) 2019 by FIZ Karlsruhe - Leibniz Institute for Information Infrastructure.  All rights reserved.
data_192201-ICSD
_database_code_ICSD 192201
_audit_creation_date 2015-02-01
_chemical_name_systematic 'Sodium potassium aluminosilicate (3/0.57/4)'
_chemical_formula_structural 'Na3 K0.57 (Al Si O4)4'
_chemical_formula_sum 'Al4 K0.57 Na3 O16 Si4'
_chemical_name_structure_type KNa3Al4(SiO4)4
_chemical_name_mineral Nepheline
_exptl_crystal_density_diffrn 2.61
_cell_measurement_temperature 298.
_publ_section_title

;
Nephelines from the Somma-Vesuvius volcanic complex (Southern Italy):
crystal-chemical, structural and genetic investigations
;
loop_
_citation_id
_citation_journal_full
_citation_year
_citation_journal_volume
_citation_page_first
_citation_page_last
_citation_journal_id_ASTM
primary 'Mineralogy and Petrology' 2014 108 71 90 MIPEE9
loop_
_publ_author_name
'Balassone, Giuseppina'
'Kahlenberg, Volker'
'Altomare, Angela'
'Mormone, Angela'
'Rizzi, Rosanna'
'Saviano, Michele'
'Mondillo, Nicola'
_cell_length_a 9.9785(3)
_cell_length_b 9.9785(3)
_cell_length_c 8.3655(3)
_cell_angle_alpha 90
_cell_angle_beta 90
_cell_angle_gamma 120
_cell_volume 721.36
_cell_formula_units_Z 2
_symmetry_space_group_name_H-M 'P 63'
_symmetry_Int_Tables_number 173
_refine_ls_R_factor_all 0.028
loop_
_symmetry_equiv_pos_site_id
_symmetry_equiv_pos_as_xyz
1 'x-y, x, z+1/2'
2 'y, -x+y, z+1/2'
3 '-x, -y, z+1/2'
4 '-x+y, -x, z'
5 '-y, x-y, z'
6 'x, y, z'
loop_
_atom_type_symbol
_atom_type_oxidation_number
K1+ 1
Na1+ 1
Al3+ 3
Si4+ 4
Al3+ 3
O2- -2
loop_
_atom_site_label
_atom_site_type_symbol
_atom_site_symmetry_multiplicity
_atom_site_Wyckoff_symbol
_atom_site_fract_x
_atom_site_fract_y
_atom_site_fract_z
_atom_site_B_iso_or_equiv
_atom_site_occupancy
_atom_site_attached_hydrogens
K1 K1+ 2 a 0 0 0.5095(6) 0.0264(4) 0.572(4) 0
Na1 Na1+ 6 c 0.44601(8) 0.44271(8) 0.5151(3) 0.02027(14) 1 0
Al1 Al3+ 2 b 0.3333 0.6667 0.7087(2) 0.0102(3) 1 0
Si1 Si4+ 2 b 0.3333 0.6667 0.3200(2) 0.0111(2) 1 0
Si2 Si4+ 6 c 0.23999(9) 0.33411(8) 0.82923(7) 0.00980(15) 1 0
Al2 Al3+ 6 c 0.23864(9) 0.33158(10) 0.20226(9) 0.00938(18) 1 0
O1 O2- 6 c 0.305(3) 0.6336(19) 0.5071(12) 0.058(2) 0.33 0
O2 O2- 6 c 0.70966(16) 0.6824(2) 0.5098(5) 0.0275(3) 1 0
O3 O2- 6 c 0.3494(3) 0.5233(3) 0.2568(6) 0.0337(7) 1 0
O4 O2- 6 c 0.3481(3) 0.5101(3) 0.7698(6) 0.0292(6) 1 0
O5 O2- 6 c 0.2871(2) 0.2271(3) 0.3315(4) 0.0149(4) 1 0
O6 O2- 6 c 0.2679(3) 0.2248(3) 0.7094(5) 0.0182(4) 1 0
loop_
_atom_site_aniso_label
_atom_site_aniso_type_symbol
_atom_site_aniso_U_11
_atom_site_aniso_U_22
_atom_site_aniso_U_33
_atom_site_aniso_U_12
_atom_site_aniso_U_13
_atom_site_aniso_U_23
K1 K1+ 0.0217(4) 0.0217(4) 0.0358(9) 0.0109(2) 0 0
Na1 Na1+ 0.0216(3) 0.0163(3) 0.0172(3) 0.0051(3) 0.0008(8) -0.0004(7)
Al1 Al3+ 0.0088(4) 0.0088(4) 0.0128(8) 0.00442(18) 0 0
Si1 Si4+ 0.0115(3) 0.0115(3) 0.0102(7) 0.00576(16) 0 0
Si2 Si4+ 0.0087(3) 0.0094(3) 0.0125(4) 0.0054(2) -0.0004(4) 0.0004(4)
Al2 Al3+ 0.0076(3) 0.0094(3) 0.0122(5) 0.0051(3) 0.0009(4) 0.0017(4)
O1 O2- 0.058(4) 0.033(3) 0.013(2) -0.029(2) -0.021(6) 0.005(4)
O2 O2- 0.0208(6) 0.0555(9) 0.0153(6) 0.0260(6) 0.0000(12) -0.0021(16)
O3 O2- 0.0125(10) 0.0087(9) 0.081(2) 0.0061(8) 0.0009(12) -0.0061(11)
O4 O2- 0.0123(9) 0.0095(9) 0.0662(18) 0.0059(8) 0.0078(11) 0.0058(10)
O5 O2- 0.0208(8) 0.0142(8) 0.0142(9) 0.0121(7) -0.0013(8) 0.0000(8)
O6 O2- 0.0235(9) 0.0188(9) 0.0204(11) 0.0167(8) -0.0038(9) -0.0050(9)
#End of TTdata_192201-ICSD