
#(C) 2019 by FIZ Karlsruhe - Leibniz Institute for Information Infrastructure.  All rights reserved.
data_192205-ICSD
_database_code_ICSD 192205
_audit_creation_date 2015-02-01
_chemical_name_systematic 'Sodium potassium aluminosilicate (3/0.74/4)'
_chemical_formula_structural 'Na3 K0.74 (Al Si O4)4'
_chemical_formula_sum 'Al4 K0.74 Na3 O16 Si4'
_chemical_name_structure_type KNa3Al4(SiO4)4
_chemical_name_mineral Nepheline
_exptl_crystal_density_diffrn 2.63
_cell_measurement_temperature 298.
_publ_section_title

;
Nephelines from the Somma-Vesuvius volcanic complex (Southern Italy):
crystal-chemical, structural and genetic investigations
;
loop_
_citation_id
_citation_journal_full
_citation_year
_citation_journal_volume
_citation_page_first
_citation_page_last
_citation_journal_id_ASTM
primary 'Mineralogy and Petrology' 2014 108 71 90 MIPEE9
loop_
_publ_author_name
'Balassone, Giuseppina'
'Kahlenberg, Volker'
'Altomare, Angela'
'Mormone, Angela'
'Rizzi, Rosanna'
'Saviano, Michele'
'Mondillo, Nicola'
_cell_length_a 9.9890(2)
_cell_length_b 9.9890(2)
_cell_length_c 8.3766(2)
_cell_angle_alpha 90
_cell_angle_beta 90
_cell_angle_gamma 120
_cell_volume 723.83
_cell_formula_units_Z 2
_symmetry_space_group_name_H-M 'P 63'
_symmetry_Int_Tables_number 173
_refine_ls_R_factor_all 0.0271
loop_
_symmetry_equiv_pos_site_id
_symmetry_equiv_pos_as_xyz
1 'x-y, x, z+1/2'
2 'y, -x+y, z+1/2'
3 '-x, -y, z+1/2'
4 '-x+y, -x, z'
5 '-y, x-y, z'
6 'x, y, z'
loop_
_atom_type_symbol
_atom_type_oxidation_number
K1+ 1
Na1+ 1
Al3+ 3
Si4+ 4
Al3+ 3
O2- -2
loop_
_atom_site_label
_atom_site_type_symbol
_atom_site_symmetry_multiplicity
_atom_site_Wyckoff_symbol
_atom_site_fract_x
_atom_site_fract_y
_atom_site_fract_z
_atom_site_B_iso_or_equiv
_atom_site_occupancy
_atom_site_attached_hydrogens
K1 K1+ 2 a 0 0 0.5085(3) 0.0215(3) 0.738(3) 0
Na1 Na1+ 6 c 0.44592(7) 0.44311(7) 0.5154(3) 0.01924(13) 1 0
Al1 Al3+ 2 b 0.3333 0.6667 0.70871(16) 0.0093(2) 1 0
Si1 Si4+ 2 b 0.3333 0.6667 0.31966(14) 0.0103(2) 1 0
Si2 Si4+ 6 c 0.24076(7) 0.33431(8) 0.82920(5) 0.00911(12) 1 0
Al2 Al3+ 6 c 0.23946(8) 0.33211(8) 0.20254(6) 0.00898(15) 1 0
O1 O2- 6 c 0.2947(13) 0.666(2) 0.5068(8) 0.0282(12) 0.33 0
O2 O2- 6 c 0.70931(13) 0.68270(17) 0.5077(3) 0.0225(3) 1 0
O3 O2- 6 c 0.3504(3) 0.5244(2) 0.2581(5) 0.0308(5) 1 0
O4 O2- 6 c 0.3491(3) 0.5101(2) 0.7712(4) 0.0262(5) 1 0
O5 O2- 6 c 0.2869(2) 0.2266(2) 0.3302(3) 0.0140(3) 1 0
O6 O2- 6 c 0.2675(2) 0.2242(2) 0.7078(3) 0.0172(4) 1 0
loop_
_atom_site_aniso_label
_atom_site_aniso_type_symbol
_atom_site_aniso_U_11
_atom_site_aniso_U_22
_atom_site_aniso_U_33
_atom_site_aniso_U_12
_atom_site_aniso_U_13
_atom_site_aniso_U_23
K1 K1+ 0.0175(3) 0.0175(3) 0.0295(5) 0.00874(13) 0 0
Na1 Na1+ 0.0199(3) 0.0158(3) 0.0157(3) 0.0042(2) -0.0003(6) -0.0012(6)
Al1 Al3+ 0.0089(3) 0.0089(3) 0.0103(6) 0.00443(15) 0 0
Si1 Si4+ 0.0102(3) 0.0102(3) 0.0104(5) 0.00512(14) 0 0
Si2 Si4+ 0.0081(2) 0.0089(2) 0.0113(3) 0.0050(2) -0.0006(3) -0.0003(3)
Al2 Al3+ 0.0078(3) 0.0084(3) 0.0114(3) 0.0045(2) -0.0001(3) 0.0002(3)
O1 O2- 0.042(6) 0.042(2) 0.0085(14) 0.027(5) -0.004(4) -0.002(5)
O2 O2- 0.0169(5) 0.0444(7) 0.0115(5) 0.0194(5) -0.0015(8) -0.0006(10)
O3 O2- 0.0107(8) 0.0090(8) 0.0728(16) 0.0050(7) -0.0015(9) -0.0081(9)
O4 O2- 0.0132(8) 0.0084(7) 0.0589(13) 0.0069(7) 0.0081(9) 0.0074(8)
O5 O2- 0.0187(7) 0.0132(7) 0.0143(7) 0.0112(6) 0.0012(6) 0.0012(7)
O6 O2- 0.0220(8) 0.0172(8) 0.0191(8) 0.0148(7) -0.0040(7) -0.0042(7)
#End of TTdata_192205-ICSD