
#(C) 2019 by FIZ Karlsruhe - Leibniz Institute for Information Infrastructure.  All rights reserved.
data_192401-ICSD
_database_code_ICSD 192401
_audit_creation_date 2015-02-01
_chemical_name_systematic 'Sodium niobate'
_chemical_formula_structural 'Na (Nb O3)'
_chemical_formula_sum 'Na1 Nb1 O3'
_chemical_name_structure_type Perovskite-GdFeO3
_chemical_name_mineral Lueshite
_exptl_crystal_density_diffrn 4.56
_publ_section_title 'Observations on the crystal structures of lueshite'
loop_
_citation_id
_citation_journal_full
_citation_year
_citation_journal_volume
_citation_page_first
_citation_page_last
_citation_journal_id_ASTM
primary 'Physics and Chemistry of Minerals' 2014 41 393 401 PCMIDU
loop_
_publ_author_name
'Mitchell, Roger H.'
'Burns, Peter C.'
'Knight, Kevin S.'
'Howard, Christopher J.'
'Chakhmouradian, Anton R.'
_cell_length_a 5.5257(8)
_cell_length_b 5.5257(8)
_cell_length_c 7.8125(8)
_cell_angle_alpha 90.
_cell_angle_beta 90.
_cell_angle_gamma 90.
_cell_volume 238.54
_cell_formula_units_Z 4
_symmetry_space_group_name_H-M 'P b n m'
_symmetry_Int_Tables_number 62
_refine_ls_R_factor_all 0.0275
loop_
_symmetry_equiv_pos_site_id
_symmetry_equiv_pos_as_xyz
1 '-x+1/2, y+1/2, z'
2 'x, y, -z+1/2'
3 'x+1/2, -y+1/2, z+1/2'
4 '-x, -y, -z'
5 'x+1/2, -y+1/2, -z'
6 '-x, -y, z+1/2'
7 '-x+1/2, y+1/2, -z+1/2'
8 'x, y, z'
loop_
_atom_type_symbol
_atom_type_oxidation_number
Nb5+ 5
Na1+ 1
O2- -2
loop_
_atom_site_label
_atom_site_type_symbol
_atom_site_symmetry_multiplicity
_atom_site_Wyckoff_symbol
_atom_site_fract_x
_atom_site_fract_y
_atom_site_fract_z
_atom_site_B_iso_or_equiv
_atom_site_occupancy
_atom_site_attached_hydrogens
Nb1 Nb5+ 4 b 0 0.5 0 0.0080(3) 1. 0
Na1 Na1+ 4 c 0.9924(5) 0.0087(5) 0.25 0.0222(17) 1. 0
O1 O2- 4 c 0.0595(11) 0.4939(9) 0.25 0.0175(14) 1. 0
O2 O2- 8 d 0.7259(9) 0.2745(10) 0.0241(5) 0.0344(17) 1. 0
loop_
_atom_site_aniso_label
_atom_site_aniso_type_symbol
_atom_site_aniso_U_11
_atom_site_aniso_U_22
_atom_site_aniso_U_33
_atom_site_aniso_U_12
_atom_site_aniso_U_13
_atom_site_aniso_U_23
Nb1 Nb5+ 0.0117(20) 0.0040(16) 0.0082(4) 0.0030(3) 0.0001(1) 0.0003(2)
Na1 Na1+ 0.0022(42) 0.0428(67) 0.0217(22) -0.0031(8) 0. 0.
O1 O2- 0.0082(24) 0.0259(35) 0.0185(27) 0.0001(24) 0. 0.
O2 O2- 0.0181(41) 0.0461(45) 0.0389(24) -0.0157(23) 0.0064(21) 0.0008(26)
#End of TTdata_192401-ICSD