
#(C) 2019 by FIZ Karlsruhe - Leibniz Institute for Information Infrastructure.  All rights reserved.
data_192406-ICSD
_database_code_ICSD 192406
_audit_creation_date 2015-02-01
_chemical_name_systematic 'Sodium niobate'
_chemical_formula_structural 'Na (Nb O3)'
_chemical_formula_sum 'Na1 Nb1 O3'
_chemical_name_structure_type Perovskite-NaNbO3(tP10)
_chemical_name_mineral Lueshite
_exptl_crystal_density_diffrn 4.46
_cell_measurement_temperature 898.
_publ_section_title 'Observations on the crystal structures of lueshite'
loop_
_citation_id
_citation_journal_full
_citation_year
_citation_journal_volume
_citation_page_first
_citation_page_last
_citation_journal_id_ASTM
primary 'Physics and Chemistry of Minerals' 2014 41 393 401 PCMIDU
loop_
_publ_author_name
'Mitchell, Roger H.'
'Burns, Peter C.'
'Knight, Kevin S.'
'Howard, Christopher J.'
'Chakhmouradian, Anton R.'
_cell_length_a 5.56816(7)
_cell_length_b 5.56816(7)
_cell_length_c 3.93976(6)
_cell_angle_alpha 90.
_cell_angle_beta 90.
_cell_angle_gamma 90.
_cell_volume 122.15
_cell_formula_units_Z 2
_symmetry_space_group_name_H-M 'P 4/m b m'
_symmetry_Int_Tables_number 127
loop_
_symmetry_equiv_pos_site_id
_symmetry_equiv_pos_as_xyz
1 'y+1/2, x+1/2, -z'
2 '-y+1/2, -x+1/2, -z'
3 '-y, x, -z'
4 'y, -x, -z'
5 'x+1/2, -y+1/2, -z'
6 '-x+1/2, y+1/2, -z'
7 'x, y, -z'
8 '-x, -y, -z'
9 '-y+1/2, -x+1/2, z'
10 'y+1/2, x+1/2, z'
11 'y, -x, z'
12 '-y, x, z'
13 '-x+1/2, y+1/2, z'
14 'x+1/2, -y+1/2, z'
15 '-x, -y, z'
16 'x, y, z'
loop_
_atom_type_symbol
_atom_type_oxidation_number
Na1+ 1
Nb5+ 5
O2- -2
loop_
_atom_site_label
_atom_site_type_symbol
_atom_site_symmetry_multiplicity
_atom_site_Wyckoff_symbol
_atom_site_fract_x
_atom_site_fract_y
_atom_site_fract_z
_atom_site_B_iso_or_equiv
_atom_site_occupancy
_atom_site_attached_hydrogens
Na1 Na1+ 2 c 0 0.5 0.5 0.0501(6) 1. 0
Nb1 Nb5+ 2 a 0 0 0 0.0251(4) 1. 0
O1 O2- 2 b 0 0 0.5 0.0524(22) 1. 0
O2 O2- 4 g 0.2681(2) 0.7681(2) 0 0.0387(9) 1. 0
#End of TTdata_192406-ICSD