
#(C) 2019 by FIZ Karlsruhe - Leibniz Institute for Information Infrastructure.  All rights reserved.
data_192536-ICSD
_database_code_ICSD 192536
_audit_creation_date 2015-02-01
_chemical_name_systematic 'Disodium cobalt phosphate fluoride'
_chemical_formula_structural 'Na2 Co (P O4) F'
_chemical_formula_sum 'Co1 F1 Na2 O4 P1'
_exptl_crystal_density_diffrn 3.47
_cell_measurement_temperature 293.
_publ_section_title

;
Structural, magnetic, and electrochemical properties of the high pressure form
of Na2 Co (P O4) F
;
loop_
_citation_id
_citation_journal_full
_citation_year
_citation_journal_volume
_citation_page_first
_citation_page_last
_citation_journal_id_ASTM
primary 'Dalton Transactions' 2014 43 13630 13636 DTARAF
loop_
_publ_author_name
'Yahia, Hamdi Ben'
'Mori, Daisuke'
'Shikano, Masahiro'
'Kobayashi, Hironori'
'Inaguma, Yoshiyuki'
_cell_length_a 10.5484(15)
_cell_length_b 10.5484(15)
_cell_length_c 6.5261(9)
_cell_angle_alpha 90
_cell_angle_beta 90
_cell_angle_gamma 120
_cell_volume 628.86
_cell_formula_units_Z 6
_symmetry_space_group_name_H-M 'P 63/m'
_symmetry_Int_Tables_number 176
_refine_ls_R_factor_all 0.0349
loop_
_symmetry_equiv_pos_site_id
_symmetry_equiv_pos_as_xyz
1 '-x+y, -x, -z+1/2'
2 '-y, x-y, -z+1/2'
3 'x, y, -z+1/2'
4 'x-y, x, -z'
5 'y, -x+y, -z'
6 '-x, -y, -z'
7 'x-y, x, z+1/2'
8 'y, -x+y, z+1/2'
9 '-x, -y, z+1/2'
10 '-x+y, -x, z'
11 '-y, x-y, z'
12 'x, y, z'
loop_
_atom_type_symbol
_atom_type_oxidation_number
Na1+ 1
Co2+ 2
P5+ 5
O2- -2
F1- -1
loop_
_atom_site_label
_atom_site_type_symbol
_atom_site_symmetry_multiplicity
_atom_site_Wyckoff_symbol
_atom_site_fract_x
_atom_site_fract_y
_atom_site_fract_z
_atom_site_B_iso_or_equiv
_atom_site_occupancy
_atom_site_attached_hydrogens
Na1 Na1+ 4 f 0.333333 0.666667 0.0291(5) 0.0180(10) 1 0
Na2 Na1+ 6 h 0.1699(3) 0.3149(3) 0.25 0.0188(12) 1 0
Na3 Na1+ 2 b 0 0 0 0.0199(13) 1 0
Co1 Co2+ 6 g 0.5 0 0 0.0100(4) 1 0
P1 P5+ 6 h 0.82152(17) 0.19138(18) 0.25 0.0089(6) 1 0
O1 O2- 6 h 0.6520(5) 0.0928(5) 0.25 0.0136(18) 1 0
O2 O2- 12 i 0.8622(3) 0.2868(3) 0.4437(5) 0.0134(13) 1 0
O3 O2- 6 h 0.8972(5) 0.1007(5) 0.25 0.017(2) 1 0
F1 F1- 6 h 0.3792(4) 0.8617(4) 0.25 0.0130(15) 1 0
loop_
_atom_site_aniso_label
_atom_site_aniso_type_symbol
_atom_site_aniso_U_11
_atom_site_aniso_U_22
_atom_site_aniso_U_33
_atom_site_aniso_U_12
_atom_site_aniso_U_13
_atom_site_aniso_U_23
Na1 Na1+ 0.0169(11) 0.0169(11) 0.0202(19) 0.0084(5) 0 0
Na2 Na1+ 0.0230(15) 0.0206(15) 0.0150(15) 0.0125(13) 0 0
Na3 Na1+ 0.0191(15) 0.0191(15) 0.021(3) 0.0096(8) 0 0
Co1 Co2+ 0.0123(5) 0.0102(5) 0.0086(4) 0.0065(4) 0.0007(3) 0.0001(3)
P1 P5+ 0.0079(8) 0.0096(8) 0.0082(8) 0.0036(7) 0 0
O1 O2- 0.007(2) 0.017(2) 0.015(3) 0.0042(18) 0 0
O2 O2- 0.0139(16) 0.0133(16) 0.0097(16) 0.0044(13) 0.0005(13) 0.0004(13)
O3 O2- 0.018(2) 0.018(3) 0.022(3) 0.012(2) 0 0
F1 F1- 0.0113(18) 0.015(2) 0.0095(19) 0.0045(15) 0 0
#End of TTdata_192536-ICSD