
#(C) 2019 by FIZ Karlsruhe - Leibniz Institute for Information Infrastructure.  All rights reserved.
data_192632-ICSD
_database_code_ICSD 192632
_audit_creation_date 2015-02-01
_chemical_name_systematic 'Sodium aluminium pyrophosphate'
_chemical_formula_structural 'Na Al (P2 O7)'
_chemical_formula_sum 'Al1 Na1 O7 P2'
_chemical_name_structure_type Mg2P2O7
_exptl_crystal_density_diffrn 3.1
_publ_section_title

;
Structural relaxation around Cr(3+) at the Na (Al1-x Crx) P2 O7 octahedral
site: an XRPD and EAS study
;
loop_
_citation_id
_citation_journal_full
_citation_year
_citation_journal_volume
_citation_page_first
_citation_page_last
_citation_journal_id_ASTM
primary 'Zeitschrift fuer Kristallographie - Crystalline Materials' 2014 229 687
697 ZKCMAJ
loop_
_publ_author_name
'Ardit, Matteo'
'Dondi, Michele'
'Zanelli, Chiara'
'Cruciani, Giuseppe'
_cell_length_a 7.2009(1)
_cell_length_b 7.7030(1)
_cell_length_c 9.3183(2)
_cell_angle_alpha 90.
_cell_angle_beta 111.72(1)
_cell_angle_gamma 90.
_cell_volume 480.18
_cell_formula_units_Z 4
_symmetry_space_group_name_H-M 'P 1 21/c 1'
_symmetry_Int_Tables_number 14
_refine_ls_R_factor_all 0.0285
loop_
_symmetry_equiv_pos_site_id
_symmetry_equiv_pos_as_xyz
1 'x, -y+1/2, z+1/2'
2 '-x, -y, -z'
3 '-x, y+1/2, -z+1/2'
4 'x, y, z'
loop_
_atom_type_symbol
_atom_type_oxidation_number
P5+ 5
Al3+ 3
Na1+ 1
O2- -2
loop_
_atom_site_label
_atom_site_type_symbol
_atom_site_symmetry_multiplicity
_atom_site_Wyckoff_symbol
_atom_site_fract_x
_atom_site_fract_y
_atom_site_fract_z
_atom_site_B_iso_or_equiv
_atom_site_occupancy
_atom_site_attached_hydrogens
P1 P5+ 4 e 0.3297(4) 0.2094(4) 0.5444(3) 0.001 1. 0
P2 P5+ 4 e 0.9233(4) 0.2552(4) 0.5470(4) 0.0012 1. 0
Al1 Al3+ 4 e 0.7400(6) 0.4897(5) 0.2533(4) 0.0014 1. 0
Na1 Na1+ 4 e 0.2910(7) 0.9748(6) 0.7998(4) 0.0157 1. 0
O1 O2- 4 e 0.1190(5) 0.1511(5) 0.5527(6) 0.0076 1. 0
O2 O2- 4 e 0.4755(8) 0.0850(6) 0.6533(6) 0.0151 1. 0
O3 O2- 4 e 0.8054(7) 0.1403(6) 0.6172(6) 0.003 1. 0
O4 O2- 4 e -0.0023(8) 0.4126(6) 0.6464(5) 0.0076 1. 0
O5 O2- 4 e 0.3572(8) 0.3980(4) 0.5977(6) 0.0056 1. 0
O6 O2- 4 e 0.8113(7) 0.2873(8) 0.3768(4) 0.0052 1. 0
O7 O2- 4 e 0.3202(7) 0.1964(7) 0.3801(4) 0.0026 1. 0
#End of TTdata_192632-ICSD