
#(C) 2019 by FIZ Karlsruhe - Leibniz Institute for Information Infrastructure.  All rights reserved.
data_192635-ICSD
_database_code_ICSD 192635
_audit_creation_date 2015-02-01
_chemical_name_systematic
'Sodium aluminium chromium pyrophosphate (1/0.25/0.75/1)'
_chemical_formula_structural 'Na (Al0.25 Cr0.75) (P2 O7)'
_chemical_formula_sum 'Al0.25 Cr0.75 Na1 O7 P2'
_chemical_name_structure_type Mg2P2O7
_exptl_crystal_density_diffrn 3.24
_publ_section_title

;
Structural relaxation around Cr(3+) at the Na (Al1-x Crx) P2 O7 octahedral
site: an XRPD and EAS study
;
loop_
_citation_id
_citation_journal_full
_citation_year
_citation_journal_volume
_citation_page_first
_citation_page_last
_citation_journal_id_ASTM
primary 'Zeitschrift fuer Kristallographie - Crystalline Materials' 2014 229 687
697 ZKCMAJ
loop_
_publ_author_name
'Ardit, Matteo'
'Dondi, Michele'
'Zanelli, Chiara'
'Cruciani, Giuseppe'
_cell_length_a 7.2650(1)
_cell_length_b 7.8062(1)
_cell_length_c 9.4378(1)
_cell_angle_alpha 90.
_cell_angle_beta 111.71(1)
_cell_angle_gamma 90.
_cell_volume 497.27
_cell_formula_units_Z 4
_symmetry_space_group_name_H-M 'P 1 21/c 1'
_symmetry_Int_Tables_number 14
_refine_ls_R_factor_all 0.0207
loop_
_symmetry_equiv_pos_site_id
_symmetry_equiv_pos_as_xyz
1 'x, -y+1/2, z+1/2'
2 '-x, -y, -z'
3 '-x, y+1/2, -z+1/2'
4 'x, y, z'
loop_
_atom_type_symbol
_atom_type_oxidation_number
P5+ 5
Al3+ 3
Cr3+ 3
Na1+ 1
O2- -2
loop_
_atom_site_label
_atom_site_type_symbol
_atom_site_symmetry_multiplicity
_atom_site_Wyckoff_symbol
_atom_site_fract_x
_atom_site_fract_y
_atom_site_fract_z
_atom_site_B_iso_or_equiv
_atom_site_occupancy
_atom_site_attached_hydrogens
P1 P5+ 4 e 0.3292(2) 0.2107(2) 0.5444(2) 0.0047 1. 0
P2 P5+ 4 e 0.9242(2) 0.2581(2) 0.5466(2) 0.0048 1. 0
Al1 Al3+ 4 e 0.7399(2) 0.4936(2) 0.2532(1) 0.0014 0.25 0
Cr1 Cr3+ 4 e 0.7399(2) 0.4936(2) 0.2532(1) 0.0014 0.75 0
Na1 Na1+ 4 e 0.2915(3) 0.9787(3) 0.7959(2) 0.013 1. 0
O1 O2- 4 e 0.1187(2) 0.1559(3) 0.5522(3) 0.0059 1. 0
O2 O2- 4 e 0.4692(4) 0.0854(3) 0.6534(3) 0.0251 1. 0
O3 O2- 4 e 0.8052(3) 0.1369(3) 0.6087(3) 0.0016 1. 0
O4 O2- 4 e -0.0086(4) 0.4141(3) 0.6451(3) 0.0029 1. 0
O5 O2- 4 e 0.3656(4) 0.3959(2) 0.5998(3) 0.0032 1. 0
O6 O2- 4 e 0.8043(3) 0.2886(4) 0.3795(2) 0.0012 1. 0
O7 O2- 4 e 0.31380(3) 0.1983(4) 0.3805(2) 0.0123 1. 0
#End of TTdata_192635-ICSD