
#(C) 2019 by FIZ Karlsruhe - Leibniz Institute for Information Infrastructure.  All rights reserved.
data_192909-ICSD
_database_code_ICSD 192909
_audit_creation_date 2015-02-01
_chemical_name_systematic
'Indium sodium silicon aluminium oxide (34/50/100/92/384)'
_chemical_formula_structural 'In14 (In5)4 Na50 (Si100 Al92 O384)'
_chemical_formula_sum 'Al92 In34 Na50 O384 Si100'
_chemical_name_structure_type Faujasite-Fd3--frame
_chemical_name_mineral 'Zeolite Na-X (InCl-exchanged)'
_exptl_crystal_density_diffrn 1.75
_cell_measurement_temperature 294.
_publ_section_title

;
Using In Cl vapor to ion exchange indium into zeolite Na-X. Single crystal
structure of In34 Na50(Si100 Al92 O384)-FAU containing (In5)(7+) and In(+)
;
loop_
_citation_id
_citation_journal_full
_citation_year
_citation_journal_volume
_citation_page_first
_citation_page_last
_citation_journal_id_ASTM
primary 'Journal of Physical Chemistry C' 2012 116 14445 14453 JPCCCK
loop_
_publ_author_name
'Sen, Dipak'
'Heo, Nam Ho'
'Seff, Karl'
_cell_length_a 24.996(1)
_cell_length_b 24.996(1)
_cell_length_c 24.996(1)
_cell_angle_alpha 90.
_cell_angle_beta 90.
_cell_angle_gamma 90.
_cell_volume 15617.5
_cell_formula_units_Z 1
_symmetry_space_group_name_H-M 'F d -3 Z'
_symmetry_Int_Tables_number 203
_refine_ls_R_factor_all 0.076
loop_
_symmetry_equiv_pos_site_id
_symmetry_equiv_pos_as_xyz
1 '-z, x+3/4, y+3/4'
2 'z+3/4, x+3/4, -y'
3 'z+3/4, -x, y+3/4'
4 '-z, -x, -y'
5 'y+3/4, -z, x+3/4'
6 '-y, z+3/4, x+3/4'
7 'y+3/4, z+3/4, -x'
8 '-y, -z, -x'
9 'x+3/4, y+3/4, -z'
10 'x+3/4, -y, z+3/4'
11 '-x, y+3/4, z+3/4'
12 '-x, -y, -z'
13 'z, -x+1/4, -y+1/4'
14 '-z+1/4, -x+1/4, y'
15 '-z+1/4, x, -y+1/4'
16 'z, x, y'
17 '-y+1/4, z, -x+1/4'
18 'y, -z+1/4, -x+1/4'
19 '-y+1/4, -z+1/4, x'
20 'y, z, x'
21 '-x+1/4, -y+1/4, z'
22 '-x+1/4, y, -z+1/4'
23 'x, -y+1/4, -z+1/4'
24 'x, y, z'
25 '-z, x+1/4, y+1/4'
26 'z+3/4, x+1/4, -y+1/2'
27 'z+3/4, -x+1/2, y+1/4'
28 '-z, -x+1/2, -y+1/2'
29 'y+3/4, -z+1/2, x+1/4'
30 '-y, z+1/4, x+1/4'
31 'y+3/4, z+1/4, -x+1/2'
32 '-y, -z+1/2, -x+1/2'
33 'x+3/4, y+1/4, -z+1/2'
34 'x+3/4, -y+1/2, z+1/4'
35 '-x, y+1/4, z+1/4'
36 '-x, -y+1/2, -z+1/2'
37 'z, -x+3/4, -y+3/4'
38 '-z+1/4, -x+3/4, y+1/2'
39 '-z+1/4, x+1/2, -y+3/4'
40 'z, x+1/2, y+1/2'
41 '-y+1/4, z+1/2, -x+3/4'
42 'y, -z+3/4, -x+3/4'
43 '-y+1/4, -z+3/4, x+1/2'
44 'y, z+1/2, x+1/2'
45 '-x+1/4, -y+3/4, z+1/2'
46 '-x+1/4, y+1/2, -z+3/4'
47 'x, -y+3/4, -z+3/4'
48 'x, y+1/2, z+1/2'
49 '-z+1/2, x+3/4, y+1/4'
50 'z+1/4, x+3/4, -y+1/2'
51 'z+1/4, -x, y+1/4'
52 '-z+1/2, -x, -y+1/2'
53 'y+1/4, -z, x+1/4'
54 '-y+1/2, z+3/4, x+1/4'
55 'y+1/4, z+3/4, -x+1/2'
56 '-y+1/2, -z, -x+1/2'
57 'x+1/4, y+3/4, -z+1/2'
58 'x+1/4, -y, z+1/4'
59 '-x+1/2, y+3/4, z+1/4'
60 '-x+1/2, -y, -z+1/2'
61 'z+1/2, -x+1/4, -y+3/4'
62 '-z+3/4, -x+1/4, y+1/2'
63 '-z+3/4, x, -y+3/4'
64 'z+1/2, x, y+1/2'
65 '-y+3/4, z, -x+3/4'
66 'y+1/2, -z+1/4, -x+3/4'
67 '-y+3/4, -z+1/4, x+1/2'
68 'y+1/2, z, x+1/2'
69 '-x+3/4, -y+1/4, z+1/2'
70 '-x+3/4, y, -z+3/4'
71 'x+1/2, -y+1/4, -z+3/4'
72 'x+1/2, y, z+1/2'
73 '-z+1/2, x+1/4, y+3/4'
74 'z+1/4, x+1/4, -y'
75 'z+1/4, -x+1/2, y+3/4'
76 '-z+1/2, -x+1/2, -y'
77 'y+1/4, -z+1/2, x+3/4'
78 '-y+1/2, z+1/4, x+3/4'
79 'y+1/4, z+1/4, -x'
80 '-y+1/2, -z+1/2, -x'
81 'x+1/4, y+1/4, -z'
82 'x+1/4, -y+1/2, z+3/4'
83 '-x+1/2, y+1/4, z+3/4'
84 '-x+1/2, -y+1/2, -z'
85 'z+1/2, -x+3/4, -y+1/4'
86 '-z+3/4, -x+3/4, y'
87 '-z+3/4, x+1/2, -y+1/4'
88 'z+1/2, x+1/2, y'
89 '-y+3/4, z+1/2, -x+1/4'
90 'y+1/2, -z+3/4, -x+1/4'
91 '-y+3/4, -z+3/4, x'
92 'y+1/2, z+1/2, x'
93 '-x+3/4, -y+3/4, z'
94 '-x+3/4, y+1/2, -z+1/4'
95 'x+1/2, -y+3/4, -z+1/4'
96 'x+1/2, y+1/2, z'
loop_
_atom_type_symbol
_atom_type_oxidation_number
Si4+ 4
Al3+ 3
Si4+ 4
O2- -2
In1+ 1.4
In1+ 1
Na1+ 1
loop_
_atom_site_label
_atom_site_type_symbol
_atom_site_symmetry_multiplicity
_atom_site_Wyckoff_symbol
_atom_site_fract_x
_atom_site_fract_y
_atom_site_fract_z
_atom_site_B_iso_or_equiv
_atom_site_occupancy
_atom_site_attached_hydrogens
Si1 Si4+ 96 g -0.05212(7) 0.12481(6) 0.03585(6) . 1. 0
Al1 Al3+ 96 g -0.05297(7) 0.03659(7) 0.12408(7) . 0.9583 0
Si2 Si4+ 96 g -0.05297(7) 0.03659(7) 0.12408(7) . 0.0417 0
O1 O2- 96 g -0.10541(20) -0.00024(19) 0.10274(19) . 1. 0
O2 O2- 96 g -0.00108(19) -0.00165(19) 0.14569(19) . 1. 0
O3 O2- 96 g -0.02672(21) 0.07350(20) 0.07104(20) . 1. 0
O4 O2- 96 g -0.07082(19) 0.07653(20) 0.17528(20) . 1. 0
In1 In1+ 8 a 0.125 0.125 0.125 0.0146(10) 0.50(1) 0
In2 In1+ 32 e 0.06204(11) 0.06204(11) 0.06204(11) . 0.50(1) 0
In3 In1+ 32 e 0.07089(36) 0.07089(36) 0.07089(36) . 0.181(9) 0
In4 In1+ 32 e 0.24440(147) 0.24440(147) 0.24440(147) 0.0534(66) 0.084(22) 0
In5 In1+ 96 g -0.15347(189) 0.05548(194) 0.24072(202) 0.0854(186) 0.0271(42) 0
In6 In1+ 96 g -0.17294(206) 0.05040(213) 0.16913(218) 0.1096(226) 0.0323(52) 0
Na1 Na1+ 96 g -0.16714(141) 0.07810(145) 0.20451(150) 0.0681(139) 0.167(24) 0
Na2 Na1+ 96 g -0.15399(192) 0.01425(199) 0.18787(19) 0.0391(171) 0.096(18) 0
Na3 Na1+ 32 e 0.23527(52) 0.23527(52) 0.23527(52) 0.0178(42) 0.772(94) 0
loop_
_atom_site_aniso_label
_atom_site_aniso_type_symbol
_atom_site_aniso_U_11
_atom_site_aniso_U_22
_atom_site_aniso_U_33
_atom_site_aniso_U_12
_atom_site_aniso_U_13
_atom_site_aniso_U_23
Si1 Si4+ 0.0096(8) 0.0091(8) 0.0074(8) -0.0016(6) -0.0004(6) -0.0026(6)
Al1 Al3+ 0.0168(8) 0.0140(8) 0.0157(8) 0.0004(6) -0.0017(6) -0.0028(6)
Si2 Si4+ 0.0168(8) 0.0140(8) 0.0157(8) 0.0004(6) -0.0017(6) -0.0028(6)
O1 O2- 0.0246(23) 0.0215(23) 0.0233(23) -0.0062(19) 0.0018(19) -0.0058(19)
O2 O2- 0.0232(22) 0.0212(22) 0.0200(23) 0.0034(18) -0.0030(18) -0.0028(18)
O3 O2- 0.0275(25) 0.0237(24) 0.0250(24) -0.0049(19) -0.0050(20) 0.0057(20)
O4 O2- 0.0203(23) 0.0262(25) 0.0274(25) 0.0034(19) -0.0018(19) -0.0139(30)
In2 In1+ 0.0176(9) 0.0176(9) 0.0176(9) 0.0001(7) 0.0001(7) 0.0001(7)
In3 In1+ 0.0271(32) 0.0271(32) 0.0271(32) 0.0018(27) 0.0018(27) 0.0018(27)
#End of TTdata_192909-ICSD