
#(C) 2019 by FIZ Karlsruhe - Leibniz Institute for Information Infrastructure.  All rights reserved.
data_193200-ICSD
_database_code_ICSD 193200
_audit_creation_date 2015-08-01
_chemical_name_systematic 'Disodium diuranate(VI)'
_chemical_formula_structural 'Na2 (U2 O7)'
_chemical_formula_sum 'Na2 O7 U2'
_exptl_crystal_density_diffrn 6.39
_cell_measurement_temperature 773.
_publ_section_title

;
Crystal structure of alpha- and beta-Na2 U2 O7: From Rietveld refinement using
powder neutron diffraction data
;
loop_
_citation_id
_citation_journal_full
_citation_year
_citation_journal_volume
_citation_page_first
_citation_page_last
_citation_journal_id_ASTM
primary 'Journal of Solid State Chemistry' 2015 221 1 4 JSSCBI
loop_
_publ_author_name
'Ijdo, D.J.W.'
'Akerboom, S.'
'Bontenbal, A.'
_cell_length_a 12.933(1)
_cell_length_b 7.887(1)
_cell_length_c 6.9086(8)
_cell_angle_alpha 90.
_cell_angle_beta 110.816(10)
_cell_angle_gamma 90.
_cell_volume 658.7
_cell_formula_units_Z 4
_symmetry_space_group_name_H-M 'C 1 2/m 1'
_symmetry_Int_Tables_number 12
_refine_ls_R_factor_all 0.0409
loop_
_symmetry_equiv_pos_site_id
_symmetry_equiv_pos_as_xyz
1 '-x, y, -z'
2 '-x, -y, -z'
3 'x, -y, z'
4 'x, y, z'
5 '-x+1/2, y+1/2, -z'
6 '-x+1/2, -y+1/2, -z'
7 'x+1/2, -y+1/2, z'
8 'x+1/2, y+1/2, z'
loop_
_atom_type_symbol
_atom_type_oxidation_number
Na1+ 1
U6+ 6
O2- -2
loop_
_atom_site_label
_atom_site_type_symbol
_atom_site_symmetry_multiplicity
_atom_site_Wyckoff_symbol
_atom_site_fract_x
_atom_site_fract_y
_atom_site_fract_z
_atom_site_B_iso_or_equiv
_atom_site_occupancy
_atom_site_attached_hydrogens
Na1 Na1+ 2 a 0 0 0 3.25(20) 1. 0
Na2 Na1+ 2 b 0.5 0 0 3.25(20) 1. 0
Na3 Na1+ 4 h 0 0.26(2) 0.5 3.25(20) 1. 0
U1 U6+ 4 e 0.25 0.25 0 0.60(10) 1. 0
U2 U6+ 4 i 0.2438(6) 0 0.4593(9) 0.60(10) 1. 0
O1 O2- 4 i 0.2328(4) 0 0.1146(16) 3.20(10) 1. 0
O2 O2- 8 j 0.2625(13) 0.3012(6) 0.3102(13) 3.20(10) 1. 0
O3 O2- 8 j 0.4026(7) 0.2230(9) 0.0961(12) 3.20(10) 1. 0
O4 O2- 4 i -0.0913(10) 0 0.6374(16) 2.38(10) 1. 0
O5 O2- 4 i 0.3958(11) 0 0.5563(18) 2.38(10) 1. 0
#End of TTdata_193200-ICSD