
#(C) 2019 by FIZ Karlsruhe - Leibniz Institute for Information Infrastructure.  All rights reserved.
data_193389-ICSD
_database_code_ICSD 193389
_audit_creation_date 2015-08-01
_chemical_name_systematic 'Bismuth sodium barium titanate (0.465/0.465/0.07/1)'
_chemical_formula_structural '(Bi0.465 Na0.465 Ba0.07) (Ti O3)'
_chemical_formula_sum 'Ba0.07 Bi0.465 Na0.465 O3 Ti1'
_chemical_name_structure_type LiNbO3
_exptl_crystal_density_diffrn 5.96
_cell_measurement_temperature 293.
_publ_section_title

;
Structural and electromechanical study of Bi0.5 Na0.5 Ti O3 - Ba Ti O3
solid-solutions
;
loop_
_citation_id
_citation_journal_full
_citation_year
_citation_journal_volume
_citation_page_first
_citation_page_last
_citation_journal_id_ASTM
primary 'Processing and Application of Ceramics' 2013 7 73 80 PACRCQ
loop_
_publ_author_name
'Parija, Biswanath'
'Badapanda, Tanmaya'
'Sahoo, Pratap Kumar'
'Kar, Manoranjan'
'Kumar, Pawan'
'Panigrahi, Simanchalo'
_cell_length_a 5.5201(3)
_cell_length_b 5.5201(3)
_cell_length_c 13.5229(5)
_cell_angle_alpha 90.
_cell_angle_beta 90.
_cell_angle_gamma 120.
_cell_volume 356.86
_cell_formula_units_Z 6
_symmetry_space_group_name_H-M 'R 3 c H'
_symmetry_Int_Tables_number 161
_refine_ls_R_factor_all 0.081
loop_
_symmetry_equiv_pos_site_id
_symmetry_equiv_pos_as_xyz
1 '-x+y, y, z+1/2'
2 'x, x-y, z+1/2'
3 '-y, -x, z+1/2'
4 '-x+y, -x, z'
5 '-y, x-y, z'
6 'x, y, z'
7 '-x+y+2/3, y+1/3, z+5/6'
8 'x+2/3, x-y+1/3, z+5/6'
9 '-y+2/3, -x+1/3, z+5/6'
10 '-x+y+2/3, -x+1/3, z+1/3'
11 '-y+2/3, x-y+1/3, z+1/3'
12 'x+2/3, y+1/3, z+1/3'
13 '-x+y+1/3, y+2/3, z+1/6'
14 'x+1/3, x-y+2/3, z+1/6'
15 '-y+1/3, -x+2/3, z+1/6'
16 '-x+y+1/3, -x+2/3, z+2/3'
17 '-y+1/3, x-y+2/3, z+2/3'
18 'x+1/3, y+2/3, z+2/3'
loop_
_atom_type_symbol
_atom_type_oxidation_number
Bi3+ 3
Ba2+ 2
Na1+ 1
Ti4+ 4
O2- -2
loop_
_atom_site_label
_atom_site_type_symbol
_atom_site_symmetry_multiplicity
_atom_site_Wyckoff_symbol
_atom_site_fract_x
_atom_site_fract_y
_atom_site_fract_z
_atom_site_B_iso_or_equiv
_atom_site_occupancy
_atom_site_attached_hydrogens
Bi1 Bi3+ 6 a 0 0 0.2903(13) 0.3840(18) 0.465 0
Ba1 Ba2+ 6 a 0 0 0.2903(13) 0.3840(18) 0.07 0
Na1 Na1+ 6 a 0 0 0.2903(13) 0.3840(18) 0.465 0
Ti1 Ti4+ 6 a 0 0 0.0177(14) 0.2840(19) 1. 0
O1 O2- 18 b 0.1596(15) 0.3297(16) 0.8866(17) 0.9834(20) 1. 0
#End of TTdata_193389-ICSD