
#(C) 2019 by FIZ Karlsruhe - Leibniz Institute for Information Infrastructure.  All rights reserved.
data_193390-ICSD
_database_code_ICSD 193390
_audit_creation_date 2015-08-01
_chemical_name_systematic 'Bismuth sodium barium titanate (0.465/0.465/0.07/1)'
_chemical_formula_structural '(Bi0.465 Na0.465 Ba0.07) (Ti O3)'
_chemical_formula_sum 'Ba0.07 Bi0.465 Na0.465 O3 Ti1'
_chemical_name_structure_type Perovskite-PbTiO3
_exptl_crystal_density_diffrn 5.96
_publ_section_title

;
Structural and electromechanical study of Bi0.5 Na0.5 Ti O3 - Ba Ti O3
solid-solutions
;
loop_
_citation_id
_citation_journal_full
_citation_year
_citation_journal_volume
_citation_page_first
_citation_page_last
_citation_journal_id_ASTM
primary 'Processing and Application of Ceramics' 2013 7 73 80 PACRCQ
loop_
_publ_author_name
'Parija, Biswanath'
'Badapanda, Tanmaya'
'Sahoo, Pratap Kumar'
'Kar, Manoranjan'
'Kumar, Pawan'
'Panigrahi, Simanchalo'
_cell_length_a 3.9025(5)
_cell_length_b 3.9025(5)
_cell_length_c 3.9048(3)
_cell_angle_alpha 90.
_cell_angle_beta 90.
_cell_angle_gamma 90.
_cell_volume 59.47
_cell_formula_units_Z 1
_symmetry_space_group_name_H-M 'P 4 m m'
_symmetry_Int_Tables_number 99
_refine_ls_R_factor_all 0.081
loop_
_symmetry_equiv_pos_site_id
_symmetry_equiv_pos_as_xyz
1 'y, -x, z'
2 '-y, x, z'
3 '-y, -x, z'
4 'y, x, z'
5 'x, -y, z'
6 '-x, y, z'
7 '-x, -y, z'
8 'x, y, z'
loop_
_atom_type_symbol
_atom_type_oxidation_number
Bi3+ 3
Ba2+ 2
Na1+ 1
Ti4+ 4
O2- -2
loop_
_atom_site_label
_atom_site_type_symbol
_atom_site_symmetry_multiplicity
_atom_site_Wyckoff_symbol
_atom_site_fract_x
_atom_site_fract_y
_atom_site_fract_z
_atom_site_B_iso_or_equiv
_atom_site_occupancy
_atom_site_attached_hydrogens
Bi1 Bi3+ 1 a 0 0 0 0.3201(16) 0.465 0
Ba1 Ba2+ 1 a 0 0 0 0.3201(16) 0.07 0
Na1 Na1+ 1 a 0 0 0 0.3201(16) 0.465 0
Ti1 Ti4+ 1 b 0.5 0.5 0.5356 0.2485(17) 1. 0
O1 O2- 1 b 0.5 0.5 -0.10931 0.5447(18) 1. 0
O2 O2- 2 c 0.5 0 0.41957 0.0374(19) 1. 0
#End of TTdata_193390-ICSD