
#(C) 2019 by FIZ Karlsruhe - Leibniz Institute for Information Infrastructure.  All rights reserved.
data_193498-ICSD
_database_code_ICSD 193498
_audit_creation_date 2015-08-01
_chemical_name_systematic 'Disodium dicesium strontium bis(nonaborate)'
_chemical_formula_structural 'Na2 Cs2 Sr (B9 O15)2'
_chemical_formula_sum 'B18 Cs2 Na2 O30 Sr1'
_chemical_name_structure_type Na2Cs2Sr(B9O15)2
_exptl_crystal_density_diffrn 2.88
_cell_measurement_temperature 293.
_publ_section_title

;
Synthesis and characterization of a new quaternary borate Na2 Cs2 Sr (B9 O15)2
with the unprecedented (B9 O19)(11-) group, notation of 3 x (3:2Delta + T)
;
loop_
_citation_id
_citation_journal_full
_citation_year
_citation_journal_volume
_citation_page_first
_citation_page_last
_citation_journal_id_ASTM
primary 'Journal of Alloys and Compounds' 2015 623 157 163 JALCEU
loop_
_publ_author_name
'Chen, Xuean'
'Wu, Long'
'Wang, Kun'
'Chang, Xinan'
'Xiao, Weiqiang'
_cell_length_a 8.4670(17)
_cell_length_b 8.5220(17)
_cell_length_c 17.206(3)
_cell_angle_alpha 90.
_cell_angle_beta 92.60(3)
_cell_angle_gamma 90.
_cell_volume 1240.23
_cell_formula_units_Z 2
_symmetry_space_group_name_H-M 'P 1 21/c 1'
_symmetry_Int_Tables_number 14
_refine_ls_R_factor_all 0.042
loop_
_symmetry_equiv_pos_site_id
_symmetry_equiv_pos_as_xyz
1 'x, -y+1/2, z+1/2'
2 '-x, -y, -z'
3 '-x, y+1/2, -z+1/2'
4 'x, y, z'
loop_
_atom_type_symbol
_atom_type_oxidation_number
Na1+ 1
Cs1+ 1
Sr2+ 2
B3+ 3
O2- -2
loop_
_atom_site_label
_atom_site_type_symbol
_atom_site_symmetry_multiplicity
_atom_site_Wyckoff_symbol
_atom_site_fract_x
_atom_site_fract_y
_atom_site_fract_z
_atom_site_B_iso_or_equiv
_atom_site_occupancy
_atom_site_attached_hydrogens
Na1 Na1+ 4 e 0.77350(17) 0.76108(18) 0.11879(8) 0.0135(3) 1. 0
Cs1 Cs1+ 4 e 0.49751(3) 0.96229(3) 0.30302(2) 0.01989(12) 1. 0
Sr1 Sr2+ 2 a 0 0.5 0.5 0.01162(13) 1. 0
B1 B3+ 4 e 0.8302(4) 0.1507(4) 0.4185(2) 0.0078(6) 1. 0
B2 B3+ 4 e 0.8223(4) 0.1217(4) 0.5589(2) 0.0084(6) 1. 0
B3 B3+ 4 e 0.7808(4) 0.8954(4) 0.4750(2) 0.0081(6) 1. 0
B4 B3+ 4 e 0.6684(4) 0.6406(4) 0.4155(2) 0.0081(6) 1. 0
B5 B3+ 4 e 0.6238(4) 0.3582(5) 0.4076(2) 0.0097(6) 1. 0
B6 B3+ 4 e 0.4015(4) 0.5389(4) 0.3972(2) 0.0077(6) 1. 0
B7 B3+ 4 e 0.0458(4) 0.6919(4) 0.2106(2) 0.0089(6) 1. 0
B8 B3+ 4 e 0.1476(4) 0.6640(4) 0.34371(19) 0.0072(6) 1. 0
B9 B3+ 4 e 0.8630(4) 0.6744(4) 0.3145(2) 0.0092(6) 1. 0
O1 O2- 4 e 0.6705(3) 0.2097(3) 0.39851(14) 0.0108(5) 1. 0
O2 O2- 4 e 0.9489(3) 0.2129(3) 0.36787(13) 0.0100(4) 1. 0
O3 O2- 4 e 0.8797(3) 0.2022(3) 0.49832(13) 0.0093(4) 1. 0
O4 O2- 4 e 0.8200(3) 0.9789(3) 0.41197(14) 0.0102(5) 1. 0
O5 O2- 4 e 0.8100(3) 0.1769(3) 0.63176(13) 0.0094(4) 1. 0
O6 O2- 4 e 0.7687(3) 0.9673(3) 0.54710(16) 0.0119(5) 1. 0
O7 O2- 4 e 0.7490(3) 0.7378(3) 0.47529(14) 0.0093(4) 1. 0
O8 O2- 4 e 0.7168(3) 0.4782(3) 0.43485(15) 0.0097(5) 1. 0
O9 O2- 4 e 0.4964(3) 0.6611(3) 0.41768(14) 0.0100(4) 1. 0
O10 O2- 4 e 0.7111(3) 0.6775(3) 0.33566(14) 0.0098(4) 1. 0
O11 O2- 4 e 0.4668(3) 0.3903(3) 0.38501(15) 0.0119(5) 1. 0
O12 O2- 4 e 0.2417(3) 0.5427(3) 0.38486(15) 0.0096(5) 1. 0
O13 O2- 4 e 0.8926(3) 0.7123(3) 0.23840(14) 0.0147(5) 1. 0
O14 O2- 4 e 0.1690(3) 0.6555(3) 0.25962(13) 0.0105(5) 1. 0
O15 O2- 4 e 0.9843(3) 0.6276(3) 0.36400(13) 0.0092(4) 1. 0
#End of TTdata_193498-ICSD