
#(C) 2019 by FIZ Karlsruhe - Leibniz Institute for Information Infrastructure.  All rights reserved.
data_193669-ICSD
_database_code_ICSD 193669
_audit_creation_date 2015-08-01
_chemical_name_systematic 'Sodium silver cobalt pyrophosphate (1.42/0.58/1/1)'
_chemical_formula_structural '(Na0.71 Ag0.29)2 Co (P2 O7)'
_chemical_formula_sum 'Ag0.58 Co1 Na1.42 O7 P2'
_exptl_crystal_density_diffrn 3.8
_cell_measurement_temperature 298.
_publ_section_title

;
Synthesis, crystal structure and electrical properties of a new mixed compound
(Na0.71 Ag0.29)2 Co P2 O7
;
loop_
_citation_id
_citation_journal_full
_citation_year
_citation_journal_volume
_citation_page_first
_citation_page_last
_citation_journal_id_ASTM
primary 'Crystal Structure Theory and Applications' 2012 1 68 73 CSTAHE
loop_
_publ_author_name
'Marzouki, Riadh'
'Guesmi, Abderrahmen'
'Zid, Mohamed Faouzi'
'Driss, Ahmed'
_cell_length_a 6.417(3)
_cell_length_b 9.451(2)
_cell_length_c 10.935(3)
_cell_angle_alpha 115.24(2)
_cell_angle_beta 80.19(3)
_cell_angle_gamma 106.81(2)
_cell_volume 573.38
_cell_formula_units_Z 4
_symmetry_space_group_name_H-M 'P -1'
_symmetry_Int_Tables_number 2
_refine_ls_R_factor_all 0.0255
loop_
_symmetry_equiv_pos_site_id
_symmetry_equiv_pos_as_xyz
1 '-x, -y, -z'
2 'x, y, z'
loop_
_atom_type_symbol
_atom_type_oxidation_number
Co2+ 2
P5+ 5
O2- -2
Na1+ 1
Ag1+ 1
Na1+ 1
Ag1+ 1
Na1+ 1
Ag1+ 1
loop_
_atom_site_label
_atom_site_type_symbol
_atom_site_symmetry_multiplicity
_atom_site_Wyckoff_symbol
_atom_site_fract_x
_atom_site_fract_y
_atom_site_fract_z
_atom_site_B_iso_or_equiv
_atom_site_occupancy
_atom_site_attached_hydrogens
Co1 Co2+ 2 i 0.3545(7) 0.26562(5) 0.76417(4) 0.00967(2) 1. 0
Co2 Co2+ 2 i 0.2783(7) 0.61021(5) 0.71736(4) 0.01031(2) 1. 0
P1 P5+ 2 i 0.4257(3) 0.65654(1) 0.95528(8) 0.00855(8) 1. 0
P2 P5+ 2 i 0.2858(4) 0.27129(1) 0.46202(8) 0.00982(8) 1. 0
P3 P5+ 2 i 0.1219(3) 0.63778(1) 0.18316(9) 0.00952(8) 1. 0
P4 P5+ 2 i -0.0770(4) 0.10713(1) 0.28674(9) 0.01362(9) 1. 0
O1 O2- 2 i 0.6880(4) 0.2606(3) 0.7245(2) 0.0182(5) 1. 0
O2 O2- 2 i 0.2116(5) 0.4255(3) 0.5341(3) 0.0215(6) 1. 0
O3 O2- 2 i 0.4444(4) 0.5208(3) 0.8156(2) 0.0112(5) 1. 0
O4 O2- 2 i 0.0304(4) 0.2645(3) 0.8112(3) 0.0206(6) 1. 0
O5 O2- 2 i 0.2278(4) 0.5753(3) 0.0322(2) 0.0140(5) 1. 0
O6 O2- 2 i -0.0161(4) 0.5167(3) 0.7972(3) 0.0195(6) 1. 0
O7 O2- 2 i 0.9557(5) -0.0518(4) 0.8485(3) 0.0369(8) 1. 0
O8 O2- 2 i 0.5668(4) 0.7289(3) 0.6619(3) 0.0221(6) 1. 0
O9 O2- 2 i 0.2841(4) 0.0145(3) 0.6998(3) 0.0153(5) 1. 0
O10 O2- 2 i 0.3788(4) 0.2781(3) 0.9609(2) 0.0162(5) 1. 0
O11 O2- 2 i 0.1141(5) 0.7259(3) 0.6656(4) 0.0310(7) 1. 0
O12 O2- 2 i 0.9249(4) 0.8744(3) 0.5989(3) 0.0145(5) 1. 0
O13 O2- 2 i 0.3769(4) 0.2275(3) 0.5562(2) 0.0170(5) 1. 0
O14 O2- 2 i 0.3543(4) 0.7872(3) 0.9368(3) 0.0164(5) 1. 0
Na1 Na1+ 2 i 0.024(2) 0.2050(4) 0.0244(2) 0.019(3) 0.899(2) 0
Ag1 Ag1+ 2 i 0.027(4) 0.212(3) 0.016(2) 0.017(3) 0.101(2) 0
Na2 Na1+ 2 i 0.592(3) 0.0065(6) 0.8113(5) 0.0229(7) 0.340(2) 0
Ag2 Ag1+ 2 i 0.5754(4) -0.0075(2) 0.8338(3) 0.0229(7) 0.503(9) 0
Ag3 Ag1+ 2 i 0.6006(2) -0.0203(7) 0.8560(7) 0.0229(7) 0.157(8) 0
Ag4 Ag1+ 2 i 0.7170(2) 0.0533(1) 0.54694(9) 0.0492(5) 0.313(2) 0
Na3 Na1+ 2 i 0.7170(2) 0.0533(1) 0.54694(9) 0.0492(5) 0.424(7) 0
Na4 Na1+ 1 f 0.5 0 0.5 0.043(2) 0.526(2) 0
Na5 Na1+ 2 i 0.2060(2) 0.5653(9) 0.4081(7) 0.0278(1) 0.912(2) 0
Ag5 Ag1+ 2 i 0.2430(3) 0.5330(2) 0.3776(7) 0.0390(3) 0.088(2) 0
#End of TTdata_193669-ICSD