
#(C) 2019 by FIZ Karlsruhe - Leibniz Institute for Information Infrastructure.  All rights reserved.
data_193812-ICSD
_database_code_ICSD 193812
_audit_creation_date 2015-08-01
_chemical_name_systematic 'Bismuth sodium trioxotitanate (0.5/0.5/1)'
_chemical_formula_structural '(Bi0.5 Na0.5) (Ti O3)'
_chemical_formula_sum 'Bi0.5 Na0.5 O3 Ti1'
_chemical_name_structure_type Pb(Ti,Zr)O3
_exptl_crystal_density_diffrn 6.01
_cell_measurement_temperature 3.
_publ_section_title

;
Studying the effects of Zr-doping in (Bi0.5 Na0.5) Ti O3 via diffraction and
spectroscopy
;
loop_
_citation_id
_citation_journal_full
_citation_year
_citation_journal_volume
_citation_page_first
_citation_page_last
_citation_journal_id_ASTM
primary 'Dalton Transactions' 2014 43 17358 17365 DTARAF
loop_
_publ_author_name
'Blanchard, Peter E.R.'
'Liu, Samuel'
'Kennedy, Brendan J.'
'Ling, Chris D.'
'Zhang, Zhaoming'
'Avdeev, Maxim'
'Jang, Ling-Yun'
'Lee, Jyh-Fu'
'Pao, Chih-Wen'
'Chen, Jeng-Lung'
_cell_length_a 9.4857(11)
_cell_length_b 5.4730(4)
_cell_length_c 5.5142(7)
_cell_angle_alpha 90.
_cell_angle_beta 125.050(6)
_cell_angle_gamma 90.
_cell_volume 234.36
_cell_formula_units_Z 4
_symmetry_space_group_name_H-M 'C 1 c 1'
_symmetry_Int_Tables_number 9
_refine_ls_R_factor_all 0.0541
loop_
_symmetry_equiv_pos_site_id
_symmetry_equiv_pos_as_xyz
1 'x, -y, z+1/2'
2 'x, y, z'
3 'x+1/2, -y+1/2, z+1/2'
4 'x+1/2, y+1/2, z'
loop_
_atom_type_symbol
_atom_type_oxidation_number
Bi3+ 3
Na1+ 1
Ti4+ 4
O2- -2
loop_
_atom_site_label
_atom_site_type_symbol
_atom_site_symmetry_multiplicity
_atom_site_Wyckoff_symbol
_atom_site_fract_x
_atom_site_fract_y
_atom_site_fract_z
_atom_site_B_iso_or_equiv
_atom_site_occupancy
_atom_site_attached_hydrogens
Bi1 Bi3+ 4 a 0 0.25 0 0.0124(12) 0.5 0
Na1 Na1+ 4 a 0 0.25 0 0.0124(12) 0.5 0
Ti1 Ti4+ 4 a 0.2362(19) 0.246(4) 0.6998(12) 0.0024(17) 1. 0
O1 O2- 4 a -0.0186(15) 0.2013(17) 0.3965(17) 0.0012(16) 1. 0
O2 O2- 4 a 0.1980(23) 0.4790(24) -0.0704(33) 0.0106(16) 1. 0
O3 O2- 4 a 0.2618(22) 0.9804(25) -0.0703(33) 0.0091(24) 1. 0
#End of TTdata_193812-ICSD