
#(C) 2019 by FIZ Karlsruhe - Leibniz Institute for Information Infrastructure.  All rights reserved.
data_193813-ICSD
_database_code_ICSD 193813
_audit_creation_date 2015-08-01
_chemical_name_systematic 'Bismuth sodium trioxotitanate (0.5/0.5/1)'
_chemical_formula_structural '(Bi0.5 Na0.5) (Ti O3)'
_chemical_formula_sum 'Bi0.5 Na0.5 O3 Ti1'
_chemical_name_structure_type LiNbO3
_exptl_crystal_density_diffrn 6.02
_cell_measurement_temperature 3.
_publ_section_title

;
Studying the effects of Zr-doping in (Bi0.5 Na0.5) Ti O3 via diffraction and
spectroscopy
;
loop_
_citation_id
_citation_journal_full
_citation_year
_citation_journal_volume
_citation_page_first
_citation_page_last
_citation_journal_id_ASTM
primary 'Dalton Transactions' 2014 43 17358 17365 DTARAF
loop_
_publ_author_name
'Blanchard, Peter E.R.'
'Liu, Samuel'
'Kennedy, Brendan J.'
'Ling, Chris D.'
'Zhang, Zhaoming'
'Avdeev, Maxim'
'Jang, Ling-Yun'
'Lee, Jyh-Fu'
'Pao, Chih-Wen'
'Chen, Jeng-Lung'
_cell_length_a 5.4779(8)
_cell_length_b 5.4779(8)
_cell_length_c 13.4850(14)
_cell_angle_alpha 90.
_cell_angle_beta 90.
_cell_angle_gamma 120.
_cell_volume 350.44
_cell_formula_units_Z 6
_symmetry_space_group_name_H-M 'R 3 c H'
_symmetry_Int_Tables_number 161
_refine_ls_R_factor_all 0.0541
loop_
_symmetry_equiv_pos_site_id
_symmetry_equiv_pos_as_xyz
1 '-x+y, y, z+1/2'
2 'x, x-y, z+1/2'
3 '-y, -x, z+1/2'
4 '-x+y, -x, z'
5 '-y, x-y, z'
6 'x, y, z'
7 '-x+y+2/3, y+1/3, z+5/6'
8 'x+2/3, x-y+1/3, z+5/6'
9 '-y+2/3, -x+1/3, z+5/6'
10 '-x+y+2/3, -x+1/3, z+1/3'
11 '-y+2/3, x-y+1/3, z+1/3'
12 'x+2/3, y+1/3, z+1/3'
13 '-x+y+1/3, y+2/3, z+1/6'
14 'x+1/3, x-y+2/3, z+1/6'
15 '-y+1/3, -x+2/3, z+1/6'
16 '-x+y+1/3, -x+2/3, z+2/3'
17 '-y+1/3, x-y+2/3, z+2/3'
18 'x+1/3, y+2/3, z+2/3'
loop_
_atom_type_symbol
_atom_type_oxidation_number
Bi3+ 3
Na1+ 1
Ti4+ 4
O2- -2
loop_
_atom_site_label
_atom_site_type_symbol
_atom_site_symmetry_multiplicity
_atom_site_Wyckoff_symbol
_atom_site_fract_x
_atom_site_fract_y
_atom_site_fract_z
_atom_site_B_iso_or_equiv
_atom_site_occupancy
_atom_site_attached_hydrogens
Bi1 Bi3+ 6 a 0 0 0.242(6) 0.043(5) 0.5 0
Na1 Na1+ 6 a 0 0 0.242(6) 0.043(5) 0.5 0
Ti1 Ti4+ 6 a 0 0 -0.01302 0.040(10) 1. 0
O1 O2- 18 b 0.120(2) 0.334(4) 0.072(5) 0.034(3) 1. 0
#End of TTdata_193813-ICSD