
#(C) 2019 by FIZ Karlsruhe - Leibniz Institute for Information Infrastructure.  All rights reserved.
data_194195-ICSD
_database_code_ICSD 194195
_audit_creation_date 2015-08-01
_chemical_name_systematic 'Sodium selenate decahydrate'
_chemical_formula_structural 'Na2 (Se O4) (H2 O)10'
_chemical_formula_sum 'H20 Na2 O14 Se1'
_chemical_name_structure_type Na2SO4(H2O)10
_exptl_crystal_density_diffrn 1.64
_cell_measurement_temperature 100.
_publ_section_title
'Crystal structure of Na2 Se O4 * 1.5 (H2 O) and Na2 Se O4 * 10 (H2 O)'
loop_
_citation_id
_citation_journal_full
_citation_year
_citation_journal_volume
_citation_page_first
_citation_page_last
_citation_journal_id_ASTM
primary 'Acta Crystallographica, Section E: Structure Reports Online' 2014 70 54
57 ACSEBH
loop_
_publ_author_name
'Weil, Matthias'
'Bonneau, Barbara'
_cell_length_a 11.5758(6)
_cell_length_b 10.4911(5)
_cell_length_c 12.9570(7)
_cell_angle_alpha 90.
_cell_angle_beta 107.995(3)
_cell_angle_gamma 90.
_cell_volume 1496.56
_cell_formula_units_Z 4
_symmetry_space_group_name_H-M 'P 1 21/c 1'
_symmetry_Int_Tables_number 14
_refine_ls_R_factor_all 0.0206
loop_
_symmetry_equiv_pos_site_id
_symmetry_equiv_pos_as_xyz
1 'x, -y+1/2, z+1/2'
2 '-x, -y, -z'
3 '-x, y+1/2, -z+1/2'
4 'x, y, z'
loop_
_atom_type_symbol
_atom_type_oxidation_number
Se6+ 6
Na1+ 1
O2- -2
H1+ 1
loop_
_atom_site_label
_atom_site_type_symbol
_atom_site_symmetry_multiplicity
_atom_site_Wyckoff_symbol
_atom_site_fract_x
_atom_site_fract_y
_atom_site_fract_z
_atom_site_B_iso_or_equiv
_atom_site_occupancy
_atom_site_attached_hydrogens
Se1 Se6+ 4 e 0.752121(5) 0.139467(5) 0.740658(4) 0.007230(10) 1 0
Na1 Na1+ 4 e 0.74307(2) -0.24486(3) 0.97851(2) 0.01112(5) 1 0
Na2 Na1+ 4 e 0.75630(2) -0.11228(3) 0.23666(2) 0.01081(4) 1 0
O1 O2- 4 e 0.86910(4) 0.19770(5) 0.83551(4) 0.01211(7) 1 0
O2 O2- 4 e 0.73195(4) 0.21974(4) 0.62765(4) 0.01245(8) 1 0
O3 O2- 4 e 0.63136(4) 0.15034(5) 0.78083(4) 0.01257(7) 1 0
O4 O2- 4 e 0.77699(5) -0.00971(4) 0.71826(4) 0.01330(8) 1 0
O5 O2- 4 e 0.85363(4) -0.21683(5) 0.85304(4) 0.01236(7) 1 0
O6 O2- 4 e 0.64473(4) -0.27987(5) 0.11583(4) 0.01269(8) 1 0
O7 O2- 4 e 0.87675(5) 0.03985(5) 0.36196(4) 0.01443(8) 1 0
O8 O2- 4 e 0.87052(5) -0.42968(5) 0.05311(4) 0.01472(8) 1 0
O9 O2- 4 e 0.88112(4) -0.10907(5) 0.11623(4) 0.01306(8) 1 0
O10 O2- 4 e 0.61813(4) -0.39325(5) 0.84832(4) 0.01310(8) 1 0
O11 O2- 4 e 0.61541(5) -0.06034(5) 0.91589(4) 0.01584(9) 1 0
O12 O2- 4 e 0.63321(5) 0.04187(5) 0.11747(4) 0.01397(8) 1 0
O13 O2- 4 e 0.09783(5) -0.14961(5) 0.94520(4) 0.01473(8) 1 0
O14 O2- 4 e 0.39997(5) -0.34873(5) 0.08502(4) 0.01467(8) 1 0
H1 H1+ 4 e 0.8345(13) -0.1472(6) 0.8240(11) 0.0412(9) 1 0
H2 H1+ 4 e 0.9267(3) -0.2110(14) 0.8845(10) 0.0412(9) 1 0
H3 H1+ 4 e 0.5712(2) -0.2905(14) 0.1003(11) 0.0412(9) 1 0
H4 H1+ 4 e 0.6722(13) -0.3481(7) 0.1436(11) 0.0412(9) 1 0
H5 H1+ 4 e 0.8618(13) 0.1162(3) 0.3535(12) 0.0412(9) 1 0
H6 H1+ 4 e 0.8709(12) 0.0169(13) 0.4206(5) 0.0412(9) 1 0
H7 H1+ 4 e 0.8415(11) -0.4602(12) 0.0978(8) 0.0412(9) 1 0
H8 H1+ 4 e 0.9440(2) -0.4401(13) 0.0788(10) 0.0412(9) 1 0
H9 H1+ 4 e 0.9508(4) -0.1364(12) 0.1394(11) 0.0412(9) 1 0
H10 H1+ 4 e 0.8892(13) -0.0359(5) 0.0973(11) 0.0412(9) 1 0
H11 H1+ 4 e 0.6143(13) -0.4669(4) 0.8683(11) 0.0412(9) 1 0
H12 H1+ 4 e 0.5473(4) -0.3767(12) 0.8146(10) 0.0412(9) 1 0
H13 H1+ 4 e 0.6205(12) -0.0062(10) 0.8719(8) 0.0412(9) 1 0
H14 H1+ 4 e 0.6254(12) -0.0213(11) 0.9728(6) 0.0412(9) 1 0
H15 H1+ 4 e 0.6618(12) 0.1138(5) 0.1205(12) 0.0412(9) 1 0
H16 H1+ 4 e 0.5615(3) 0.0506(13) 0.1131(11) 0.0412(9) 1 0
H17 H1+ 4 e 0.1146(13) -0.1610(13) 1.0108(2) 0.0412(9) 1 0
H18 H1+ 4 e 0.1423(10) -0.1952(11) 0.9226(10) 0.0412(9) 1 0
H19 H1+ 4 e 0.3586(11) -0.3337(13) 0.0224(4) 0.0412(9) 1 0
H20 H1+ 4 e 0.3809(12) -0.2944(10) 0.1223(9) 0.0412(9) 1 0
loop_
_atom_site_aniso_label
_atom_site_aniso_type_symbol
_atom_site_aniso_U_11
_atom_site_aniso_U_22
_atom_site_aniso_U_33
_atom_site_aniso_U_12
_atom_site_aniso_U_13
_atom_site_aniso_U_23
Se1 Se6+ 0.00796(2) 0.00652(2) 0.00716(2) 0.00002(2) 0.002280(10) 0.00003(2)
Na1 Na1+ 0.01190(11) 0.01128(11) 0.01052(11) -0.00036(9) 0.00396(9) -0.00045(8)
Na2 Na1+ 0.01176(11) 0.01011(10) 0.01050(10) 0.00016(9) 0.00333(8) 0.00013(8)
O1 O2- 0.00993(17) 0.01300(18) 0.01144(17) -0.00124(14) 0.00041(14) -0.00188(14)
O2 O2- 0.0162(2) 0.01156(18) 0.00963(17) 0.00085(15) 0.00404(15) 0.00315(14)
O3 O2- 0.00980(17) 0.0156(2) 0.01373(18) -0.00012(15) 0.00571(14) -0.00071(15)
O4 O2- 0.0190(2) 0.00658(16) 0.01498(19) 0.00140(15) 0.00617(16) -0.00054(14)
O5 O2- 0.01162(18) 0.01215(18) 0.01230(18) -0.00102(15) 0.00222(14) 0.00144(14)
O6 O2- 0.01137(18) 0.01229(19) 0.01431(19) -0.00005(15) 0.00381(15) 0.00107(14)
O7 O2- 0.0160(2) 0.01212(19) 0.01404(19) -0.00039(16) 0.00291(16) 0.00042(15)
O8 O2- 0.01307(19) 0.0172(2) 0.0149(2) 0.00141(16) 0.00583(16) 0.00232(16)
O9 O2- 0.01073(18) 0.01301(18) 0.0154(2) 0.00022(14) 0.00393(15) 0.00012(15)
O10 O2- 0.01081(18) 0.01338(18) 0.01408(19) -0.00065(15) 0.00237(15) 0.00038(15)
O11 O2- 0.0166(2) 0.0150(2) 0.0176(2) 0.00205(17) 0.00788(17) 0.00367(16)
O12 O2- 0.01201(19) 0.01201(19) 0.0171(2) -0.00065(15) 0.00339(16) 0.00122(15)
O13 O2- 0.01312(19) 0.0176(2) 0.01342(19) 0.00137(16) 0.00410(15) 0.00051(16)
O14 O2- 0.0148(2) 0.0152(2) 0.01333(19) 0.00127(16) 0.00335(15) -0.00077(15)
#End of TTdata_194195-ICSD