
#(C) 2019 by FIZ Karlsruhe - Leibniz Institute for Information Infrastructure.  All rights reserved.
data_194188-ICSD
_database_code_ICSD 194188
_audit_creation_date 2015-08-01
_chemical_name_systematic 'Tetrasodium magnesium tritungstate'
_chemical_formula_structural 'Na4 Mg (W O4)3'
_chemical_formula_sum 'Mg1 Na4 O12 W3'
_exptl_crystal_density_diffrn 4.99
_cell_measurement_temperature 296.
_publ_section_title

;
Effect of the cation size on the framework structures of magnesium tungstate,
A4 Mg (W O4)3 (A = Na, K), R2 Mg2 (W O4)3 (R = Rb, Cs)
;
loop_
_citation_id
_citation_journal_full
_citation_year
_citation_journal_volume
_citation_page_first
_citation_page_last
_citation_journal_id_ASTM
primary 'Dalton Transactions' 2015 44 5810 5817 DTARAF
loop_
_publ_author_name
'Han, Shujuan'
'Wang, Ying'
'Jing, Qun'
'Wu, Hongping'
'Pan, Shilie'
'Yang, Zhihua'
_cell_length_a 12.6081(19)
_cell_length_b 13.619(2)
_cell_length_c 7.1886(11)
_cell_angle_alpha 90.
_cell_angle_beta 111.997(2)
_cell_angle_gamma 90.
_cell_volume 1144.49
_cell_formula_units_Z 4
_symmetry_space_group_name_H-M 'C 1 2/c 1'
_symmetry_Int_Tables_number 15
_refine_ls_R_factor_all 0.0199
loop_
_symmetry_equiv_pos_site_id
_symmetry_equiv_pos_as_xyz
1 'x, -y, z+1/2'
2 '-x, -y, -z'
3 '-x, y, -z+1/2'
4 'x, y, z'
5 'x+1/2, -y+1/2, z+1/2'
6 '-x+1/2, -y+1/2, -z'
7 '-x+1/2, y+1/2, -z+1/2'
8 'x+1/2, y+1/2, z'
loop_
_atom_type_symbol
_atom_type_oxidation_number
W6+ 6
Na1+ 1
Mg2+ 2
Na1+ 1
O2- -2
loop_
_atom_site_label
_atom_site_type_symbol
_atom_site_symmetry_multiplicity
_atom_site_Wyckoff_symbol
_atom_site_fract_x
_atom_site_fract_y
_atom_site_fract_z
_atom_site_B_iso_or_equiv
_atom_site_occupancy
_atom_site_attached_hydrogens
W1 W6+ 4 e 0.5 0.78717(2) 0.25 0.02124(12) 1 0
W2 W6+ 8 f 0.77205(2) 1.110064(17) 0.37785(3) 0.02055(11) 1 0
Na1 Na1+ 4 b 0.5 1. 0. 0.0451(11) 1 0
Na2 Na1+ 4 e 0.5 0.7705(2) -0.25 0.0199(7) 1 0
Na3 Na1+ 4 e 1. 1.020(3) 0.75 0.055(5) 0.45(5) 0
Na4 Na1+ 4 e 1. 0.980(3) 0.75 0.055(5) 0.55(5) 0
Mg1 Mg2+ 8 f 0.28967(16) 0.65786(15) -0.1230(3) 0.0183(4) 0.5 0
Na5 Na1+ 8 f 0.28967(16) 0.65786(15) -0.1230(3) 0.0183(4) 0.5 0
O1 O2- 8 f 0.6268(4) 1.0858(3) 0.3170(7) 0.0300(10) 1 0
O2 O2- 8 f 0.4625(4) 0.7150(3) 0.0292(6) 0.0279(10) 1 0
O3 O2- 8 f 0.8310(4) 1.1706(3) 0.6103(6) 0.0313(10) 1 0
O4 O2- 8 f 0.7848(4) 1.1809(3) 0.1784(7) 0.0367(11) 1 0
O5 O2- 8 f 0.8486(4) 0.9974(3) 0.4024(7) 0.0388(12) 1 0
O6 O2- 8 f 0.3912(4) 0.8690(3) 0.2445(8) 0.0443(14) 1 0
loop_
_atom_site_aniso_label
_atom_site_aniso_type_symbol
_atom_site_aniso_U_11
_atom_site_aniso_U_22
_atom_site_aniso_U_33
_atom_site_aniso_U_12
_atom_site_aniso_U_13
_atom_site_aniso_U_23
W1 W6+ 0.0298(2) 0.01859(18) 0.01032(17) 0. 0.00171(14) 0.
W2 W6+ 0.01771(16) 0.03026(16) 0.01108(14) 0.00376(9) 0.00241(10) -0.00071(9)
Na1 Na1+ 0.062(3) 0.0230(17) 0.030(2) -0.0025(17) -0.006(2) 0.0020(16)
Na2 Na1+ 0.0195(16) 0.0246(15) 0.0193(16) 0. 0.0114(14) 0.
Na3 Na1+ 0.025(2) 0.099(16) 0.039(3) 0. 0.010(2) 0.
Na4 Na1+ 0.025(2) 0.099(16) 0.039(3) 0. 0.010(2) 0.
Mg1 Mg2+ 0.0162(10) 0.0264(11) 0.0123(10) 0.0029(8) 0.0053(8) -0.0009(8)
Na5 Na1+ 0.0162(10) 0.0264(11) 0.0123(10) 0.0029(8) 0.0053(8) -0.0009(8)
O1 O2- 0.022(2) 0.030(2) 0.032(3) -0.0007(17) 0.004(2) -0.0072(19)
O2 O2- 0.032(2) 0.040(2) 0.016(2) -0.0035(19) 0.0140(19) -0.0054(18)
O3 O2- 0.033(2) 0.040(3) 0.015(2) -0.010(2) 0.0023(19) -0.0031(19)
O4 O2- 0.038(3) 0.049(3) 0.019(2) -0.005(2) 0.006(2) 0.003(2)
O5 O2- 0.037(3) 0.047(3) 0.028(3) 0.017(2) 0.006(2) -0.004(2)
O6 O2- 0.046(3) 0.035(3) 0.036(3) 0.010(2) -0.004(3) -0.010(2)
#End of TTdata_194188-ICSD