
#(C) 2019 by FIZ Karlsruhe - Leibniz Institute for Information Infrastructure.  All rights reserved.
data_194232-ICSD
_database_code_ICSD 194232
_audit_creation_date 2015-08-01
_chemical_name_systematic 'Tetrasodium copper hexauranium(IV) triacontafluoride'
_chemical_formula_structural 'Na4 Cu U6 F30'
_chemical_formula_sum 'Cu1 F30 Na4 U6'
_exptl_crystal_density_diffrn 6.5
_cell_measurement_temperature 100.
_publ_section_title

;
Application of a mild hydrothermal approach containing an in situ reduction
step to the growth of single crystals of the quaternary U(IV)-containing
fluorides Na4 M U6 F30 (M = Mn(2+), Co(2+), Ni(2+), Cu(2+), and Zn)2+))
crystal growth, structures, and magnetic properties
;
loop_
_citation_id
_citation_journal_full
_citation_year
_citation_journal_volume
_citation_page_first
_citation_page_last
_citation_journal_id_ASTM
primary 'Journal of the American Chemical Society' 2014 136 3955 3963 JACSAT
loop_
_publ_author_name
'Yeon, Jeongho'
'Smith, Mark D.'
'Tapp, Joshua'
'Moeller, Angela'
'zur Loye, Hans-Conrad'
_cell_length_a 9.8826(3)
_cell_length_b 9.8826(3)
_cell_length_c 13.0106(8)
_cell_angle_alpha 90.
_cell_angle_beta 90.
_cell_angle_gamma 120.
_cell_volume 1100.45
_cell_formula_units_Z 2
_symmetry_space_group_name_H-M 'P -3 1 c'
_symmetry_Int_Tables_number 163
_refine_ls_R_factor_all 0.0299
loop_
_symmetry_equiv_pos_site_id
_symmetry_equiv_pos_as_xyz
1 '-x+y, y, -z+1/2'
2 'x, x-y, -z+1/2'
3 '-y, -x, -z+1/2'
4 'x-y, x, -z'
5 'y, -x+y, -z'
6 '-x, -y, -z'
7 'x-y, -y, z+1/2'
8 '-x, -x+y, z+1/2'
9 'y, x, z+1/2'
10 '-x+y, -x, z'
11 '-y, x-y, z'
12 'x, y, z'
loop_
_atom_type_symbol
_atom_type_oxidation_number
U4+ 4
Cu2+ 2
Na1+ 1
F1- -1
loop_
_atom_site_label
_atom_site_type_symbol
_atom_site_symmetry_multiplicity
_atom_site_Wyckoff_symbol
_atom_site_fract_x
_atom_site_fract_y
_atom_site_fract_z
_atom_site_B_iso_or_equiv
_atom_site_occupancy
_atom_site_attached_hydrogens
U1 U4+ 12 i 0.39835(2) 0.32323(2) 0.398399(14) 0.00628(7) 1 0
Cu1 Cu2+ 2 a 0. 0. 0.25 0.0076(3) 1 0
Na1 Na1+ 4 f 0.3333 0.6667 0.3412(3) 0.0106(7) 1 0
Na2 Na1+ 2 b 0. 0. 0.5 0.0186(12) 1 0
Na3 Na1+ 12 i 0.037(2) 0.336(2) 0.2851(13) 0.019(3) 0.17 0
F1 F1- 12 i 0.3068(4) 0.4386(4) 0.2832(3) 0.0113(6) 1 0
F2 F1- 12 i 0.1899(4) 0.3108(4) 0.4805(3) 0.0117(6) 1 0
F3 F1- 12 i 0.5323(4) 0.4141(4) 0.5518(3) 0.0105(6) 1 0
F4 F1- 12 i 0.1879(4) 0.1051(4) 0.3404(3) 0.0146(7) 1 0
F5 F1- 12 i 0.5112(4) 0.1692(4) 0.3625(3) 0.0122(6) 1 0
loop_
_atom_site_aniso_label
_atom_site_aniso_type_symbol
_atom_site_aniso_U_11
_atom_site_aniso_U_22
_atom_site_aniso_U_33
_atom_site_aniso_U_12
_atom_site_aniso_U_13
_atom_site_aniso_U_23
U1 U4+ 0.00587(10) 0.00674(10) 0.00642(10) 0.00329(7) 0.00019(5) 0.00041(5)
Cu1 Cu2+ 0.0079(4) 0.0079(4) 0.0069(6) 0.00397(19) 0. 0.
Na1 Na1+ 0.0098(10) 0.0098(10) 0.0120(17) 0.0049(5) 0. 0.
Na2 Na1+ 0.0210(19) 0.0210(19) 0.014(3) 0.0105(9) 0. 0.
F1 F1- 0.0189(16) 0.0118(14) 0.0083(13) 0.0116(13) -0.0011(12) -0.0002(11)
F2 F1- 0.0099(14) 0.0115(14) 0.0141(14) 0.0058(12) 0.0048(11) 0.0006(12)
F3 F1- 0.0121(14) 0.0107(14) 0.0111(14) 0.0074(12) -0.0033(12) -0.0001(11)
F4 F1- 0.0122(15) 0.0119(15) 0.0193(17) 0.0056(13) 0.0015(12) 0.0019(13)
F5 F1- 0.0122(15) 0.0160(15) 0.0128(14) 0.0104(13) 0.0013(12) 0.0022(12)
#End of TTdata_194232-ICSD