
#(C) 2019 by FIZ Karlsruhe - Leibniz Institute for Information Infrastructure.  All rights reserved.
data_194229-ICSD
_database_code_ICSD 194229
_audit_creation_date 2015-08-01
_chemical_name_systematic
'Tetrasodium manganese hexauranium(VI) triacontafluoride'
_chemical_formula_structural 'Na4 Mn U6 F30'
_chemical_formula_sum 'F30 Mn1 Na4 U6'
_exptl_crystal_density_diffrn 6.42
_cell_measurement_temperature 100.
_publ_section_title

;
Application of a mild hydrothermal approach containing an in situ reduction
step to the growth of single crystals of the quaternary U(IV)-containing
fluorides Na4 M U6 F30 (M = Mn(2+), Co(2+), Ni(2+), Cu(2+), and Zn)2+))
crystal growth, structures, and magnetic properties
;
loop_
_citation_id
_citation_journal_full
_citation_year
_citation_journal_volume
_citation_page_first
_citation_page_last
_citation_journal_id_ASTM
primary 'Journal of the American Chemical Society' 2014 136 3955 3963 JACSAT
loop_
_publ_author_name
'Yeon, Jeongho'
'Smith, Mark D.'
'Tapp, Joshua'
'Moeller, Angela'
'zur Loye, Hans-Conrad'
_cell_length_a 9.9172(8)
_cell_length_b 9.9172(8)
_cell_length_c 13.033(2)
_cell_angle_alpha 90.
_cell_angle_beta 90.
_cell_angle_gamma 120.
_cell_volume 1110.08
_cell_formula_units_Z 2
_symmetry_space_group_name_H-M 'P -3 c 1'
_symmetry_Int_Tables_number 165
_refine_ls_R_factor_all 0.0449
loop_
_symmetry_equiv_pos_site_id
_symmetry_equiv_pos_as_xyz
1 'x-y, -y, -z+1/2'
2 '-x, -x+y, -z+1/2'
3 'y, x, -z+1/2'
4 'x-y, x, -z'
5 'y, -x+y, -z'
6 '-x, -y, -z'
7 '-x+y, y, z+1/2'
8 'x, x-y, z+1/2'
9 '-y, -x, z+1/2'
10 '-x+y, -x, z'
11 '-y, x-y, z'
12 'x, y, z'
loop_
_atom_type_symbol
_atom_type_oxidation_number
U4+ 4
Mn2+ 2
Na1+ 1
F1- -1
loop_
_atom_site_label
_atom_site_type_symbol
_atom_site_symmetry_multiplicity
_atom_site_Wyckoff_symbol
_atom_site_fract_x
_atom_site_fract_y
_atom_site_fract_z
_atom_site_B_iso_or_equiv
_atom_site_occupancy
_atom_site_attached_hydrogens
U1 U4+ 12 g 0.40004(3) 0.32469(3) 0.39895(2) 0.00985(12) 1 0
Mn1 Mn2+ 2 a 0. 0. 0.25 0.0135(5) 1 0
Na1 Na1+ 4 d 0.3333 0.6667 0.3407(5) 0.0158(12) 1 0
Na2 Na1+ 2 b 0. 0. 0.5 0.030(2) 1 0
Na3 Na1+ 12 g 0.046(3) 0.343(3) 0.2920(19) 0.024(5) 0.16667 0
F1 F1- 12 g 0.3078(6) 0.4382(6) 0.2835(4) 0.0153(9) 1 0
F2 F1- 12 g 0.1919(6) 0.3131(6) 0.4799(4) 0.0152(9) 1 0
F3 F1- 12 g 0.5309(6) 0.4139(6) 0.5525(4) 0.0141(9) 1 0
F4 F1- 12 g 0.1938(6) 0.1079(7) 0.3423(5) 0.0197(11) 1 0
F5 F1- 12 g 0.5107(6) 0.1697(6) 0.3624(4) 0.0161(9) 1 0
loop_
_atom_site_aniso_label
_atom_site_aniso_type_symbol
_atom_site_aniso_U_11
_atom_site_aniso_U_22
_atom_site_aniso_U_33
_atom_site_aniso_U_12
_atom_site_aniso_U_13
_atom_site_aniso_U_23
U1 U4+ 0.01013(16) 0.01048(16) 0.00899(16) 0.00520(11) -0.00022(8) 0.00002(8)
Mn1 Mn2+ 0.0136(8) 0.0136(8) 0.0133(12) 0.0068(4) 0. 0.
Na1 Na1+ 0.0146(18) 0.0146(18) 0.018(3) 0.0073(9) 0. 0.
Na2 Na1+ 0.035(4) 0.035(4) 0.018(5) 0.0176(18) 0. 0.
F1 F1- 0.024(3) 0.015(2) 0.011(2) 0.012(2) 0.0003(18) -0.0009(17)
F2 F1- 0.015(2) 0.017(2) 0.016(2) 0.0094(19) 0.0035(17) 0.0031(18)
F3 F1- 0.014(2) 0.015(2) 0.014(2) 0.0078(19) -0.0012(18) 0.0014(17)
F4 F1- 0.016(2) 0.018(3) 0.023(3) 0.007(2) -0.008(2) 0.001(2)
F5 F1- 0.015(2) 0.018(2) 0.018(2) 0.011(2) -0.0024(18) -0.0001(19)
#End of TTdata_194229-ICSD