
#(C) 2019 by FIZ Karlsruhe - Leibniz Institute for Information Infrastructure.  All rights reserved.
data_194299-ICSD
_database_code_ICSD 194299
_audit_creation_date 2015-08-01
_chemical_name_systematic
'Potassium-0.92 sodium-0.08 octaoxo-aluminotrisilicate'
_chemical_formula_structural '(K0.92 Na0.08) ((Al Si3) O8)'
_chemical_formula_sum 'Al1 K0.92 Na0.08 O8 Si3'
_chemical_name_structure_type Feldspar#-(MO,C12/m1)-KAlSi3O8
_chemical_name_mineral Orthoclase
_exptl_crystal_density_diffrn 2.55
_cell_measurement_temperature 293.
_publ_section_title

;
Structural controls on the anisotropy of tetrahedral frameworks: the example
of monoclinic feldspars
;
loop_
_citation_id
_citation_journal_full
_citation_year
_citation_journal_volume
_citation_page_first
_citation_page_last
_citation_journal_id_ASTM
primary 'European Journal of Mineralogy' 2013 25 597 614 EJMIER
loop_
_publ_author_name
'Angel, Ross J.'
'Ross, Nancy L.'
'Zhao, Jing'
'Sochalski-Kolbus, Lindsay'
'Kruger, Hannes'
'Schmidt, Burkhard C.'
_cell_length_a 8.5750(11)
_cell_length_b 12.9840(16)
_cell_length_c 7.2008(9)
_cell_angle_alpha 90
_cell_angle_beta 116.028(9)
_cell_angle_gamma 90
_cell_volume 720.41
_cell_formula_units_Z 4
_symmetry_space_group_name_H-M 'C 1 2/m 1'
_symmetry_Int_Tables_number 12
_refine_ls_R_factor_all 0.0266
loop_
_symmetry_equiv_pos_site_id
_symmetry_equiv_pos_as_xyz
1 '-x, y, -z'
2 '-x, -y, -z'
3 'x, -y, z'
4 'x, y, z'
5 '-x+1/2, y+1/2, -z'
6 '-x+1/2, -y+1/2, -z'
7 'x+1/2, -y+1/2, z'
8 'x+1/2, y+1/2, z'
loop_
_atom_type_symbol
_atom_type_oxidation_number
K1+ 1
Na1+ 1
Si4+ 4
Al3+ 3
O2- -2
loop_
_atom_site_label
_atom_site_type_symbol
_atom_site_symmetry_multiplicity
_atom_site_Wyckoff_symbol
_atom_site_fract_x
_atom_site_fract_y
_atom_site_fract_z
_atom_site_B_iso_or_equiv
_atom_site_occupancy
_atom_site_attached_hydrogens
K1 K1+ 4 i 0.28476(8) 0 0.13825(10) 0.0319(2) 0.92 0
Na1 Na1+ 4 i 0.28476(8) 0 0.13825(10) 0.0319(2) 0.08 0
Si1 Si4+ 8 j 0.00932(6) 0.18481(4) 0.22407(6) 0.01412(17) 0.62 0
Si2 Si4+ 8 j 0.70912(6) 0.11770(4) 0.34449(6) 0.01425(17) 0.88 0
Al1 Al3+ 8 j 0.00932(6) 0.18481(4) 0.22407(6) 0.01412(17) 0.38 0
Al2 Al3+ 8 j 0.70912(6) 0.11770(4) 0.34449(6) 0.01425(17) 0.12 0
O1 O2- 4 g 0 0.14607(16) 0 0.0246(4) 1 0
O2 O2- 4 i 0.6379(3) 0 0.2853(3) 0.0245(4) 1 0
O3 O2- 8 j 0.82665(19) 0.14651(13) 0.2277(2) 0.0285(3) 1 0
O4 O2- 8 j 0.03510(17) 0.31147(11) 0.2593(2) 0.0225(3) 1 0
O5 O2- 8 j 0.18081(18) 0.12583(11) 0.40697(18) 0.0233(3) 1 0
loop_
_atom_site_aniso_label
_atom_site_aniso_type_symbol
_atom_site_aniso_U_11
_atom_site_aniso_U_22
_atom_site_aniso_U_33
_atom_site_aniso_U_12
_atom_site_aniso_U_13
_atom_site_aniso_U_23
K1 K1+ 0.0225(3) 0.0379(4) 0.0322(3) 0 0.0092(2) 0
Na1 Na1+ 0.0225(3) 0.0379(4) 0.0322(3) 0 0.0092(2) 0
Si1 Si4+ 0.0152(3) 0.0145(3) 0.0135(2) -0.00238(16) 0.00705(17) -0.00143(15)
Si2 Si4+ 0.0147(3) 0.0129(3) 0.0150(2) -0.00001(15) 0.00640(17) 0.00039(14)
Al1 Al3+ 0.0152(3) 0.0145(3) 0.0135(2) -0.00238(16) 0.00705(17) -0.00143(15)
Al2 Al3+ 0.0147(3) 0.0129(3) 0.0150(2) -0.00001(15) 0.00640(17) 0.00039(14)
O1 O2- 0.0274(10) 0.0231(10) 0.0244(8) 0 0.0125(7) 0
O2 O2- 0.0247(9) 0.0163(9) 0.0258(9) 0 0.0049(7) 0
O3 O2- 0.0260(7) 0.0342(8) 0.0308(7) -0.0022(6) 0.0175(6) 0.0023(6)
O4 O2- 0.0197(6) 0.0213(7) 0.0248(6) -0.0020(5) 0.0082(5) -0.0027(5)
O5 O2- 0.0242(7) 0.0237(7) 0.0168(6) 0.0011(5) 0.0042(5) 0.0010(5)
#End of TTdata_194299-ICSD