
#(C) 2019 by FIZ Karlsruhe - Leibniz Institute for Information Infrastructure.  All rights reserved.
data_194246-ICSD
_database_code_ICSD 194246
_audit_creation_date 2015-08-01
_chemical_name_systematic 'Sodium-0.667 iron(II/III) orthophosphate'
_chemical_formula_structural 'Na0.667 Fe (P O4)'
_chemical_formula_sum 'Fe1 Na0.667 O4 P1'
_exptl_crystal_density_diffrn 3.58
_cell_measurement_temperature 293.
_publ_section_title

;
Elucidation of the Na2/3 Fe P O4 and Li2/3 Fe P O4 intermediate superstructure
revealing a pseudouniform ordering in 2D
;
loop_
_citation_id
_citation_journal_full
_citation_year
_citation_journal_volume
_citation_page_first
_citation_page_last
_citation_journal_id_ASTM
primary 'Journal of the American Chemical Society' 2014 136 9144 9157 JACSAT
loop_
_publ_author_name
'Boucher, Florent'
'Gaubicher, Joel'
'Cuisinier, Marine'
'Guyomard, Dominique'
'Moreau, Philippe'
_cell_length_a 18.23736(14)
_cell_length_b 4.93687(4)
_cell_length_c 11.96092(11)
_cell_angle_alpha 90.
_cell_angle_beta 120.7221(7)
_cell_angle_gamma 90.
_cell_volume 925.77
_cell_formula_units_Z 12
_symmetry_space_group_name_H-M 'P 1 21/n 1'
_symmetry_Int_Tables_number 14
_refine_ls_R_factor_all 0.0076
loop_
_symmetry_equiv_pos_site_id
_symmetry_equiv_pos_as_xyz
1 '-x+1/2, y+1/2, -z+1/2'
2 '-x, -y, -z'
3 'x+1/2, -y+1/2, z+1/2'
4 'x, y, z'
loop_
_atom_type_symbol
_atom_type_oxidation_number
Fe2+ 2
Fe3+ 3
Fe2+ 2
Na1+ 1
P5+ 5
O2- -2
loop_
_atom_site_label
_atom_site_type_symbol
_atom_site_symmetry_multiplicity
_atom_site_Wyckoff_symbol
_atom_site_fract_x
_atom_site_fract_y
_atom_site_fract_z
_atom_site_B_iso_or_equiv
_atom_site_occupancy
_atom_site_attached_hydrogens
Fe1 Fe2+ 4 e 0.1503(4) 0.9687(16) 0.2151(6) 0.0056(5) 1. 0
Fe2 Fe3+ 4 e 0.5077(4) 0.013(2) 0.7864(7) 0.0056(5) 1. 0
Fe3 Fe2+ 4 e 0.8247(5) 1.0014(12) 0.2186(7) 0.0056(5) 1. 0
Na1 Na1+ 4 e 0.6598(7) 0.974(3) 0.5219(10) 0.012(2) 1. 0
Na2 Na1+ 4 e 0.8427(10) 0.012(4) 0.5032(16) 0.012(2) 1. 0
P1 P5+ 4 e 0.2146(6) 0.4518(16) 0.3945(8) 0.0046(7) 1. 0
P2 P5+ 4 e 0.4523(5) 0.5683(16) 0.6113(7) 0.0046(7) 1. 0
P3 P5+ 4 e 0.8829(5) 0.4377(17) 0.3968(8) 0.0046(7) 1. 0
O1 O2- 4 e 0.2185(14) 0.751(2) 0.372(3) 0.00317 1. 0
O2 O2- 4 e 0.462(2) 0.260(2) 0.624(3) 0.00317 1. 0
O3 O2- 4 e 0.8755(18) 0.747(2) 0.393(2) 0.00317 1. 0
O4 O2- 4 e 0.0962(17) 0.131(4) 0.0360(11) 0.00317 1. 0
O5 O2- 4 e 0.5715(16) 0.829(4) 0.9611(13) 0.00317 1. 0
O6 O2- 4 e 0.7664(16) 0.144(6) 0.0377(13) 0.00317 1. 0
O7 O2- 4 e 0.1249(10) 0.311(5) 0.327(3) 0.00317 1. 0
O8 O2- 4 e 0.7537(16) 0.698(4) 0.687(2) 0.00317 1. 0
O9 O2- 4 e 0.7883(8) 0.334(4) 0.328(2) 0.00317 1. 0
O10 O2- 4 e 0.4083(19) 0.702(5) 0.678(3) 0.00317 1. 0
O11 O2- 4 e 0.4617(9) 0.287(4) 0.322(3) 0.00317 1. 0
O12 O2- 4 e 0.0710(17) 0.695(5) 0.667(3) 0.00317 1. 0
#End of TTdata_194246-ICSD