
#(C) 2019 by FIZ Karlsruhe - Leibniz Institute for Information Infrastructure.  All rights reserved.
data_194298-ICSD
_database_code_ICSD 194298
_audit_creation_date 2015-08-01
_chemical_name_systematic
'Potassium-0.92 Sodium-0.08 octaoxo-aluminotrisilicate'
_chemical_formula_structural '(K0.92 Na0.08) ((Al Si3) O8)'
_chemical_formula_sum 'Al1 K0.92 Na0.08 O8 Si3'
_chemical_name_structure_type Feldspar#-(MO,C12/m1)-KAlSi3O8
_chemical_name_mineral Orthoclase
_exptl_crystal_density_diffrn 2.55
_cell_measurement_temperature 293.
_publ_section_title

;
Structural controls on the anisotropy of tetrahedral frameworks: the example
of monoclinic feldspars
;
loop_
_citation_id
_citation_journal_full
_citation_year
_citation_journal_volume
_citation_page_first
_citation_page_last
_citation_journal_id_ASTM
primary 'European Journal of Mineralogy' 2013 25 597 614 EJMIER
loop_
_publ_author_name
'Angel, Ross J.'
'Ross, Nancy L.'
'Zhao, Jing'
'Sochalski-Kolbus, Lindsay'
'Kruger, Hannes'
'Schmidt, Burkhard C.'
_cell_length_a 8.5739(6)
_cell_length_b 12.9874(5)
_cell_length_c 7.2018(5)
_cell_angle_alpha 90
_cell_angle_beta 116.042(4)
_cell_angle_gamma 90
_cell_volume 720.52
_cell_formula_units_Z 4
_symmetry_space_group_name_H-M 'C 1 2/m 1'
_symmetry_Int_Tables_number 12
_refine_ls_R_factor_all 0.0204
loop_
_symmetry_equiv_pos_site_id
_symmetry_equiv_pos_as_xyz
1 '-x, y, -z'
2 '-x, -y, -z'
3 'x, -y, z'
4 'x, y, z'
5 '-x+1/2, y+1/2, -z'
6 '-x+1/2, -y+1/2, -z'
7 'x+1/2, -y+1/2, z'
8 'x+1/2, y+1/2, z'
loop_
_atom_type_symbol
_atom_type_oxidation_number
K1+ 1
Na1+ 1
Si4+ 4
Al3+ 3
O2- -2
loop_
_atom_site_label
_atom_site_type_symbol
_atom_site_symmetry_multiplicity
_atom_site_Wyckoff_symbol
_atom_site_fract_x
_atom_site_fract_y
_atom_site_fract_z
_atom_site_B_iso_or_equiv
_atom_site_occupancy
_atom_site_attached_hydrogens
K1 K1+ 4 i 0.28459(6) 0 0.13815(8) 0.02791(13) 0.92 0
Na1 Na1+ 4 i 0.28459(6) 0 0.13815(8) 0.02791(13) 0.08 0
Si1 Si4+ 8 j 0.00935(4) 0.18474(3) 0.22409(5) 0.01086(11) 0.62 0
Si2 Si4+ 8 j 0.70899(4) 0.11770(2) 0.34449(5) 0.01088(11) 0.88 0
Al1 Al3+ 8 j 0.00935(4) 0.18474(3) 0.22409(5) 0.01086(11) 0.38 0
Al2 Al3+ 8 j 0.70899(4) 0.11770(2) 0.34449(5) 0.01088(11) 0.12 0
O1 O2- 4 g 0 0.14592(11) 0 0.0211(3) 1 0
O2 O2- 4 i 0.63753(19) 0 0.2852(2) 0.0208(3) 1 0
O3 O2- 8 j 0.82646(14) 0.14651(9) 0.22738(17) 0.0249(2) 1 0
O4 O2- 8 j 0.03505(13) 0.31153(7) 0.25924(16) 0.0191(2) 1 0
O5 O2- 8 j 0.18100(13) 0.12582(7) 0.40703(14) 0.0196(2) 1 0
loop_
_atom_site_aniso_label
_atom_site_aniso_type_symbol
_atom_site_aniso_U_11
_atom_site_aniso_U_22
_atom_site_aniso_U_33
_atom_site_aniso_U_12
_atom_site_aniso_U_13
_atom_site_aniso_U_23
K1 K1+ 0.0185(2) 0.0336(3) 0.0281(2) 0 0.00699(18) 0
Na1 Na1+ 0.0185(2) 0.0336(3) 0.0281(2) 0 0.00699(18) 0
Si1 Si4+ 0.01133(17) 0.01162(17) 0.00984(16) -0.00226(10) 0.00484(12)
-0.00138(10)
Si2 Si4+ 0.01070(17) 0.00972(16) 0.01153(16) -0.00010(10) 0.00424(12)
0.00038(10)
Al1 Al3+ 0.01133(17) 0.01162(17) 0.00984(16) -0.00226(10) 0.00484(12)
-0.00138(10)
Al2 Al3+ 0.01070(17) 0.00972(16) 0.01153(16) -0.00010(10) 0.00424(12)
0.00038(10)
O1 O2- 0.0241(7) 0.0196(6) 0.0207(6) 0 0.0108(5) 0
O2 O2- 0.0202(6) 0.0128(6) 0.0223(6) 0 0.0027(5) 0
O3 O2- 0.0216(5) 0.0317(5) 0.0270(5) -0.0026(4) 0.0158(4) 0.0020(4)
O4 O2- 0.0161(4) 0.0177(4) 0.0214(4) -0.0025(3) 0.0063(3) -0.0031(3)
O5 O2- 0.0204(5) 0.0198(4) 0.0131(4) 0.0017(3) 0.0023(3) 0.0013(3)
#End of TTdata_194298-ICSD