
#(C) 2019 by FIZ Karlsruhe - Leibniz Institute for Information Infrastructure.  All rights reserved.
data_194230-ICSD
_database_code_ICSD 194230
_audit_creation_date 2015-08-01
_chemical_name_systematic 'Tetrasodium cobalt hexauranium(IV) triacontafluoride'
_chemical_formula_structural 'Na4 Co U6 F30'
_chemical_formula_sum 'Co1 F30 Na4 U6'
_exptl_crystal_density_diffrn 6.48
_cell_measurement_temperature 100.
_publ_section_title

;
Application of a mild hydrothermal approach containing an in situ reduction
step to the growth of single crystals of the quaternary U(IV)-containing
fluorides Na4 M U6 F30 (M = Mn(2+), Co(2+), Ni(2+), Cu(2+), and Zn)2+))
crystal growth, structures, and magnetic properties
;
loop_
_citation_id
_citation_journal_full
_citation_year
_citation_journal_volume
_citation_page_first
_citation_page_last
_citation_journal_id_ASTM
primary 'Journal of the American Chemical Society' 2014 136 3955 3963 JACSAT
loop_
_publ_author_name
'Yeon, Jeongho'
'Smith, Mark D.'
'Tapp, Joshua'
'Moeller, Angela'
'zur Loye, Hans-Conrad'
_cell_length_a 9.8882(3)
_cell_length_b 9.8882(3)
_cell_length_c 13.0152(9)
_cell_angle_alpha 90.
_cell_angle_beta 90.
_cell_angle_gamma 120.
_cell_volume 1102.09
_cell_formula_units_Z 2
_symmetry_space_group_name_H-M 'P -3 c 1'
_symmetry_Int_Tables_number 165
_refine_ls_R_factor_all 0.0304
loop_
_symmetry_equiv_pos_site_id
_symmetry_equiv_pos_as_xyz
1 'x-y, -y, -z+1/2'
2 '-x, -x+y, -z+1/2'
3 'y, x, -z+1/2'
4 'x-y, x, -z'
5 'y, -x+y, -z'
6 '-x, -y, -z'
7 '-x+y, y, z+1/2'
8 'x, x-y, z+1/2'
9 '-y, -x, z+1/2'
10 '-x+y, -x, z'
11 '-y, x-y, z'
12 'x, y, z'
loop_
_atom_type_symbol
_atom_type_oxidation_number
U4+ 4
Co2+ 2
Na1+ 1
F1- -1
loop_
_atom_site_label
_atom_site_type_symbol
_atom_site_symmetry_multiplicity
_atom_site_Wyckoff_symbol
_atom_site_fract_x
_atom_site_fract_y
_atom_site_fract_z
_atom_site_B_iso_or_equiv
_atom_site_occupancy
_atom_site_attached_hydrogens
U1 U4+ 12 g 0.39872(2) 0.32341(2) 0.398514(15) 0.00663(7) 1 0
Co1 Co2+ 2 a 0. 0. 0.25 0.0098(3) 1 0
Na1 Na1+ 4 d 0.3333 0.6667 0.3404(3) 0.0105(8) 1 0
Na2 Na1+ 2 b 0. 0. 0.5 0.0244(15) 1 0
Na3 Na1+ 12 g 0.037(2) 0.338(3) 0.2857(17) 0.028(4) 0.16667 0
F1 F1- 12 g 0.3056(5) 0.4376(4) 0.2833(3) 0.0127(7) 1 0
F2 F1- 12 g 0.1901(4) 0.3106(4) 0.4797(3) 0.0110(6) 1 0
F3 F1- 12 g 0.5319(4) 0.4136(4) 0.5523(3) 0.0108(6) 1 0
F4 F1- 12 g 0.1904(4) 0.1058(5) 0.3403(3) 0.0141(7) 1 0
F5 F1- 12 g 0.5112(5) 0.1696(5) 0.3631(3) 0.0143(7) 1 0
loop_
_atom_site_aniso_label
_atom_site_aniso_type_symbol
_atom_site_aniso_U_11
_atom_site_aniso_U_22
_atom_site_aniso_U_33
_atom_site_aniso_U_12
_atom_site_aniso_U_13
_atom_site_aniso_U_23
U1 U4+ 0.00696(10) 0.00795(10) 0.00511(10) 0.00383(7) 0.00003(6) 0.00044(6)
Co1 Co2+ 0.0102(5) 0.0102(5) 0.0090(8) 0.0051(2) 0. 0.
Na1 Na1+ 0.0101(11) 0.0101(11) 0.0113(18) 0.0051(6) 0. 0.
Na2 Na1+ 0.026(2) 0.026(2) 0.022(4) 0.0129(12) 0. 0.
F1 F1- 0.0233(19) 0.0136(16) 0.0062(14) 0.0131(15) -0.0022(13) -0.0005(12)
F2 F1- 0.0094(15) 0.0125(15) 0.0124(15) 0.0066(13) 0.0026(12) 0.0004(12)
F3 F1- 0.0121(15) 0.0109(15) 0.0109(15) 0.0067(13) -0.0030(12) 0.0001(12)
F4 F1- 0.0117(16) 0.0141(17) 0.0148(16) 0.0052(14) -0.0044(13) -0.0004(14)
F5 F1- 0.0152(17) 0.0166(17) 0.0154(17) 0.0111(15) 0.0013(14) 0.0033(14)
#End of TTdata_194230-ICSD