
#(C) 2019 by FIZ Karlsruhe - Leibniz Institute for Information Infrastructure.  All rights reserved.
data_194339-ICSD
_database_code_ICSD 194339
_audit_creation_date 2015-08-01
_chemical_name_systematic
'Sodium (carbon dioxide) aluminium silicon oxide (9.9/12/9.6/38.4/96)'
_chemical_formula_structural 'Na9.9 (C O2)12 ((Al9.6 Si38.4) O96)'
_chemical_formula_sum 'C12 Al9.6 Na9.9 O120 Si38.4'
_chemical_name_structure_type Zeolite-RHO-I4-3m-frame
_chemical_name_mineral 'Zeolite Rho (Na-exchanged, CO2-loaded)'
_exptl_crystal_density_diffrn 1.92
_cell_measurement_temperature 298.
_publ_section_title

;
Cation gating and relocation during the highly selective ''trapdoor''
adsorption of CO2 on univalent cation forms of zeolite rho
;
loop_
_citation_id
_citation_journal_full
_citation_year
_citation_journal_volume
_citation_page_first
_citation_page_last
_citation_journal_id_ASTM
primary 'Chemistry of Materials' 2014 26 2052 2061 CMATEX
loop_
_publ_author_name
'Lozinska, Magdalena M.'
'Mowat, John P.S.'
'Wright, Paul A.'
'Thompson, Stephen P.'
'Jorda, Jose L.'
'Palomino, Miguel'
'Valencia, Susana'
'Rey, Fernando'
_cell_length_a 14.65127(17)
_cell_length_b 14.65127
_cell_length_c 14.65127
_cell_angle_alpha 90.
_cell_angle_beta 90.
_cell_angle_gamma 90.
_cell_volume 3145.05
_cell_formula_units_Z 1
_symmetry_space_group_name_H-M 'I -4 3 m'
_symmetry_Int_Tables_number 217
_refine_ls_R_factor_all 0.0807
loop_
_symmetry_equiv_pos_site_id
_symmetry_equiv_pos_as_xyz
1 '-z, -y, x'
2 '-y, -x, z'
3 '-x, -z, y'
4 '-z, -x, y'
5 '-y, -z, x'
6 '-x, -y, z'
7 '-z, y, -x'
8 '-y, x, -z'
9 '-x, z, -y'
10 '-z, x, -y'
11 '-y, z, -x'
12 '-x, y, -z'
13 'z, -y, -x'
14 'y, -x, -z'
15 'x, -z, -y'
16 'z, -x, -y'
17 'y, -z, -x'
18 'x, -y, -z'
19 'z, y, x'
20 'y, x, z'
21 'x, z, y'
22 'z, x, y'
23 'y, z, x'
24 'x, y, z'
25 '-z+1/2, -y+1/2, x+1/2'
26 '-y+1/2, -x+1/2, z+1/2'
27 '-x+1/2, -z+1/2, y+1/2'
28 '-z+1/2, -x+1/2, y+1/2'
29 '-y+1/2, -z+1/2, x+1/2'
30 '-x+1/2, -y+1/2, z+1/2'
31 '-z+1/2, y+1/2, -x+1/2'
32 '-y+1/2, x+1/2, -z+1/2'
33 '-x+1/2, z+1/2, -y+1/2'
34 '-z+1/2, x+1/2, -y+1/2'
35 '-y+1/2, z+1/2, -x+1/2'
36 '-x+1/2, y+1/2, -z+1/2'
37 'z+1/2, -y+1/2, -x+1/2'
38 'y+1/2, -x+1/2, -z+1/2'
39 'x+1/2, -z+1/2, -y+1/2'
40 'z+1/2, -x+1/2, -y+1/2'
41 'y+1/2, -z+1/2, -x+1/2'
42 'x+1/2, -y+1/2, -z+1/2'
43 'z+1/2, y+1/2, x+1/2'
44 'y+1/2, x+1/2, z+1/2'
45 'x+1/2, z+1/2, y+1/2'
46 'z+1/2, x+1/2, y+1/2'
47 'y+1/2, z+1/2, x+1/2'
48 'x+1/2, y+1/2, z+1/2'
loop_
_atom_type_symbol
_atom_type_oxidation_number
Si4+ 4
Al3+ 3
O2- -2
Na1+ 1
O2- -2
C4+ 4
O2- -2
C4+ 4
O2- -2
loop_
_atom_site_label
_atom_site_type_symbol
_atom_site_symmetry_multiplicity
_atom_site_Wyckoff_symbol
_atom_site_fract_x
_atom_site_fract_y
_atom_site_fract_z
_atom_site_B_iso_or_equiv
_atom_site_occupancy
_atom_site_attached_hydrogens
Si1 Si4+ 48 h 0.26763(20) 0.11741(23) 0.41809(21) 0.0115(6) 0.8 0
Al1 Al3+ 48 h 0.26763(20) 0.11741(23) 0.41809(21) 0.0115(6) 0.2 0
O1 O2- 48 h 0.03025(28) 0.21070(30) 0.3769(4) 0.0115(6) 1. 0
O2 O2- 24 g 0.2101(4) 0.2101(4) 0.3928(7) 0.0115(6) 1. 0
O3 O2- 24 g 0.1342(4) 0.1342(4) 0.6202(4) 0.0115(6) 1. 0
Na1 Na1+ 8 c 0.3990(7) 0.3990(7) 0.3990(7) 0.02863 0.490(12) 0
Na2 Na1+ 24 g 0.0183(13) 0.0183(13) 0.4426(10) 0.02863 0.25 0
O4 O2- 12 e 0.3922(16) 0. 0. 0.068(7) 0.5 0
O5 O2- 12 e 0.2301(16) 0. 0. 0.068(7) 0.5 0
C1 C4+ 12 e 0.3106(16) 0. 0. 0.068(7) 0.5 0
O6 O2- 24 g 0.1337(16) 0.1337(16) 0.0505(16) 0.068(7) 0.24983 0
C2 C4+ 8 c 0.1352(14) 0.1350(14) 0.1350(14) 0.068(7) 0.74939 0
O7 O2- 24 g 0.1958(11) 0.1273(29) 0.1958(11) 0.068(7) 0.24983 0
#End of TTdata_194339-ICSD