
#(C) 2019 by FIZ Karlsruhe - Leibniz Institute for Information Infrastructure.  All rights reserved.
data_194302-ICSD
_database_code_ICSD 194302
_audit_creation_date 2015-08-01
_chemical_name_systematic
'Potassium-0.92 sodium-0.08 octaoxo-aluminotrisilicate'
_chemical_formula_structural '(K0.92 Na0.08) ((Al Si3) O8)'
_chemical_formula_sum 'Al1 K0.92 Na0.08 O8 Si3'
_chemical_name_structure_type Feldspar#-(MO,C12/m1)-KAlSi3O8
_chemical_name_mineral Orthoclase
_exptl_crystal_density_diffrn 2.53
_cell_measurement_temperature 900.
_publ_section_title

;
Structural controls on the anisotropy of tetrahedral frameworks: the example
of monoclinic feldspars
;
loop_
_citation_id
_citation_journal_full
_citation_year
_citation_journal_volume
_citation_page_first
_citation_page_last
_citation_journal_id_ASTM
primary 'European Journal of Mineralogy' 2013 25 597 614 EJMIER
loop_
_publ_author_name
'Angel, Ross J.'
'Ross, Nancy L.'
'Zhao, Jing'
'Sochalski-Kolbus, Lindsay'
'Kruger, Hannes'
'Schmidt, Burkhard C.'
_cell_length_a 8.6609(11)
_cell_length_b 12.9770(17)
_cell_length_c 7.2003(10)
_cell_angle_alpha 90
_cell_angle_beta 115.876(10)
_cell_angle_gamma 90
_cell_volume 728.12
_cell_formula_units_Z 4
_symmetry_space_group_name_H-M 'C 1 2/m 1'
_symmetry_Int_Tables_number 12
_refine_ls_R_factor_all 0.0323
loop_
_symmetry_equiv_pos_site_id
_symmetry_equiv_pos_as_xyz
1 '-x, y, -z'
2 '-x, -y, -z'
3 'x, -y, z'
4 'x, y, z'
5 '-x+1/2, y+1/2, -z'
6 '-x+1/2, -y+1/2, -z'
7 'x+1/2, -y+1/2, z'
8 'x+1/2, y+1/2, z'
loop_
_atom_type_symbol
_atom_type_oxidation_number
K1+ 1
Na1+ 1
Si4+ 4
Al3+ 3
O2- -2
loop_
_atom_site_label
_atom_site_type_symbol
_atom_site_symmetry_multiplicity
_atom_site_Wyckoff_symbol
_atom_site_fract_x
_atom_site_fract_y
_atom_site_fract_z
_atom_site_B_iso_or_equiv
_atom_site_occupancy
_atom_site_attached_hydrogens
K1 K1+ 4 i 0.29047(15) 0 0.14187(19) 0.0687(3) 0.92 0
Na1 Na1+ 4 i 0.29047(15) 0 0.14187(19) 0.0687(3) 0.08 0
Si1 Si4+ 8 j 0.01024(7) 0.18679(4) 0.22437(8) 0.0254(2) 0.62 0
Si2 Si4+ 8 j 0.71500(7) 0.11839(4) 0.34564(8) 0.0250(2) 0.88 0
Al1 Al3+ 8 j 0.01024(7) 0.18679(4) 0.22437(8) 0.0254(2) 0.38 0
Al2 Al3+ 8 j 0.71500(7) 0.11839(4) 0.34564(8) 0.0250(2) 0.12 0
O1 O2- 4 g 0 0.1484(2) 0 0.0440(6) 1 0
O2 O2- 4 i 0.6487(3) 0 0.2850(4) 0.0425(6) 1 0
O3 O2- 8 j 0.8291(3) 0.15091(18) 0.2288(3) 0.0528(5) 1 0
O4 O2- 8 j 0.0403(2) 0.31333(13) 0.2616(3) 0.0406(4) 1 0
O5 O2- 8 j 0.1775(2) 0.12599(15) 0.4067(3) 0.0450(5) 1 0
loop_
_atom_site_aniso_label
_atom_site_aniso_type_symbol
_atom_site_aniso_U_11
_atom_site_aniso_U_22
_atom_site_aniso_U_33
_atom_site_aniso_U_12
_atom_site_aniso_U_13
_atom_site_aniso_U_23
K1 K1+ 0.0511(6) 0.0792(8) 0.0726(7) 0 0.0239(5) 0
Na1 Na1+ 0.0511(6) 0.0792(8) 0.0726(7) 0 0.0239(5) 0
Si1 Si4+ 0.0277(3) 0.0265(3) 0.0232(3) -0.0046(2) 0.0123(2) -0.00204(18)
Si2 Si4+ 0.0257(3) 0.0217(3) 0.0271(3) -0.00113(18) 0.0110(2) 0.00003(17)
Al1 Al3+ 0.0277(3) 0.0265(3) 0.0232(3) -0.0046(2) 0.0123(2) -0.00204(18)
Al2 Al3+ 0.0257(3) 0.0217(3) 0.0271(3) -0.00113(18) 0.0110(2) 0.00003(17)
O1 O2- 0.0542(15) 0.0447(14) 0.0363(11) 0 0.0225(10) 0
O2 O2- 0.0439(13) 0.0228(11) 0.0487(13) 0 0.0091(11) 0
O3 O2- 0.0469(10) 0.0655(13) 0.0572(11) -0.0103(10) 0.0331(9) 0.0023(10)
O4 O2- 0.0366(8) 0.0327(9) 0.0502(9) -0.0063(7) 0.0169(7) -0.0050(7)
O5 O2- 0.0486(10) 0.0457(10) 0.0298(8) 0.0063(8) 0.0069(7) 0.0031(7)
#End of TTdata_194302-ICSD