
#(C) 2019 by FIZ Karlsruhe - Leibniz Institute for Information Infrastructure.  All rights reserved.
data_194367-ICSD
_database_code_ICSD 194367
_audit_creation_date 2015-08-01
_audit_update_record 2018-08-01
_chemical_name_systematic 'Sodium-0.5 dioxovanadate(III/IV)'
_chemical_formula_structural 'Na0.5 (V O2)'
_chemical_formula_sum 'Na0.5 O2 V1'
_exptl_crystal_density_diffrn 3.86
_cell_measurement_temperature 293.
_publ_section_title
'Vanadium clustering/declustering in P2 - Na0.5 V O2 layered oxide'
loop_
_citation_id
_citation_journal_full
_citation_year
_citation_journal_volume
_citation_page_first
_citation_page_last
_citation_journal_id_ASTM
primary 'Chemistry of Materials' 2014 26 1538 1548 CMATEX
loop_
_publ_author_name
'Guignard, Marie'
'Carlier, Dany'
'Didier, Christophe'
'Suchomel, Matthew R.'
'Elkaim, Erik'
'Bordet, Pierre'
'Decourt, Rodolphe'
'Darriet, Jacques'
'Delmas, Claude'
_cell_length_a 9.8879(3)
_cell_length_b 5.7418(2)
_cell_length_c 11.4581(6)
_cell_angle_alpha 90
_cell_angle_beta 90
_cell_angle_gamma 90
_cell_volume 650.52
_cell_formula_units_Z 16
_symmetry_space_group_name_H-M 'P n m a'
_symmetry_Int_Tables_number 62
loop_
_symmetry_equiv_pos_site_id
_symmetry_equiv_pos_as_xyz
1 'x+1/2, y, -z+1/2'
2 'x, -y+1/2, z'
3 '-x+1/2, y+1/2, z+1/2'
4 '-x, -y, -z'
5 '-x+1/2, -y, z+1/2'
6 '-x, y+1/2, -z'
7 'x+1/2, -y+1/2, -z+1/2'
8 'x, y, z'
loop_
_atom_type_symbol
_atom_type_oxidation_number
V3+ 3.5
Na1+ 1
O2- -2
loop_
_atom_site_label
_atom_site_type_symbol
_atom_site_symmetry_multiplicity
_atom_site_Wyckoff_symbol
_atom_site_fract_x
_atom_site_fract_y
_atom_site_fract_z
_atom_site_B_iso_or_equiv
_atom_site_occupancy
_atom_site_attached_hydrogens
V1 V3+ 8 d 0.2598(7) 0.0161(11) 0.5073(7) 0.13(6) 1. 0
V2 V3+ 4 c 0.4826(10) 0.25 0.5050(11) 0.13(6) 1. 0
V3 V3+ 4 c 0.4849(10) 0.25 -0.0144(13) 0.13(6) 1. 0
Na1 Na1+ 4 c 0.1672(17) 0.25 0.750(3) 1.15(26) 1. 0
Na2 Na1+ 4 c 0.0290(18) 0.25 0.256(3) 1.15(26) 1. 0
O1 O2- 8 d 0.418(2) 0.004(5) 0.098(2) 0.5 1. 0
O2 O2- 8 d 0.085(2) 0.002(5) 0.905(2) 0.5 1. 0
O3 O2- 4 c 0.162(4) 0.25 0.087(4) 0.5 1. 0
O4 O2- 4 c 0.164(4) 0.25 0.412(4) 0.5 1. 0
O5 O2- 4 c 0.329(4) 0.25 0.612(4) 0.5 1. 0
O6 O2- 4 c 0.334(4) 0.25 0.907(4) 0.5 1. 0
#End of TTdata_194367-ICSD