
#(C) 2019 by FIZ Karlsruhe - Leibniz Institute for Information Infrastructure.  All rights reserved.
data_194401-ICSD
_database_code_ICSD 194401
_audit_creation_date 2015-08-01
_chemical_name_systematic 'Sodium-0.7 iron phosphate'
_chemical_formula_structural 'Na0.7 Fe (P O4)'
_chemical_formula_sum 'Fe1 Na0.7 O4 P1'
_exptl_crystal_density_diffrn 3.59
_cell_measurement_temperature 293.
_publ_section_title 'Na-vacancy and charge ordering in Na(ca.)0.67 Fe P O4'
loop_
_citation_id
_citation_journal_full
_citation_year
_citation_journal_volume
_citation_page_first
_citation_page_last
_citation_journal_id_ASTM
primary 'Chemistry of Materials' 2014 26 3289 3294 CMATEX
loop_
_publ_author_name
'Galceran, M.'
'Roddatis, V.'
'Zuniga, F.J.'
'Perez-Mato, J.M.'
'Acebedo, B.'
'Arenal, R.'
'Peral, I.'
'Rojo, T.'
'Casas-Cabanas, M.'
_cell_length_a 10.27710(13)
_cell_length_b 6.07868(8)
_cell_length_c 4.93770(6)
_cell_angle_alpha 90.
_cell_angle_beta 90.
_cell_angle_gamma 89.7644(6)
_cell_volume 308.46
_cell_formula_units_Z 4
_symmetry_space_group_name_H-M 'P 1 1 21/a'
_symmetry_Int_Tables_number 14
_refine_ls_R_factor_all 0.005
loop_
_symmetry_equiv_pos_site_id
_symmetry_equiv_pos_as_xyz
1 'x+1/2, y, -z+1/2'
2 '-x, -y, -z'
3 '-x+1/2, -y, z+1/2'
4 'x, y, z'
loop_
_atom_type_symbol
_atom_type_oxidation_number
Na1+ 1
Fe2+ 2.3
O2- -2
P5+ 5
loop_
_atom_site_label
_atom_site_type_symbol
_atom_site_symmetry_multiplicity
_atom_site_Wyckoff_symbol
_atom_site_fract_x
_atom_site_fract_y
_atom_site_fract_z
_atom_site_B_iso_or_equiv
_atom_site_occupancy
_atom_site_attached_hydrogens
Na1 Na1+ 2 c 0 0 0.5 0.0048(7) 0.7 0
Na2 Na1+ 2 b 0 0.5 0 0.0048(7) 0.7 0
Fe1 Fe2+ 4 e 0.28384(4) 0.75145(11) 0.98692(9) 0.00239(13) 1. 0
O1 O2- 4 e 0.1197 0.753 0.7446 0.007293 1. 0
O2 O2- 4 e -0.0372 0.7491 0.3509 0.007293 1. 0
O3 O2- 4 e 0.1769 0.9477 0.3067 0.007293 1. 0
O4 O2- 4 e 0.1766 0.5514 0.3012 0.007293 1. 0
P1 P5+ 4 e 0.1066 0.7497 0.4403 0.002895 1. 0
loop_
_atom_site_aniso_label
_atom_site_aniso_type_symbol
_atom_site_aniso_U_11
_atom_site_aniso_U_22
_atom_site_aniso_U_33
_atom_site_aniso_U_12
_atom_site_aniso_U_13
_atom_site_aniso_U_23
Fe1 Fe2+ 0.0008(2) 0.00398(20) 0.0024(3) 0.00088(18) 0.0003(2) 0.0007(4)
P1 P5+ 0.002928 0.004586 0.001178 -0.000844 0.001352 -0.000906
#End of TTdata_194401-ICSD