
#(C) 2019 by FIZ Karlsruhe - Leibniz Institute for Information Infrastructure.  All rights reserved.
data_194469-ICSD
_database_code_ICSD 194469
_audit_creation_date 2015-08-01
_chemical_name_systematic 'Tricalcium disodium tetracarbonate'
_chemical_formula_structural 'Ca3 Na2 (C O3)4'
_chemical_formula_sum 'C4 Ca3 Na2 O12'
_exptl_crystal_density_diffrn 2.82
_publ_section_title

;
Synthesis and crystal structure of new carbonate Ca3 Na2 (C O3)4 homeotypic
with orthoborates M3 Ln2 (B O3)4 (M = Ca, Sr, and Ba)
;
loop_
_citation_id
_citation_journal_full
_citation_year
_citation_journal_volume
_citation_page_first
_citation_page_last
_citation_journal_id_ASTM
primary 'Crystal Growth & Design' 2014 14 4610 4616 CGDEFU
loop_
_publ_author_name
'Gavryushkin, Pavel N.'
'Bakakin, Vladimir V.'
'Bolotina, Nadezhda B.'
'Shatskiy, Anton F.'
'Seryotkin, Yurii V.'
'Litasov, Konstantin D.'
_cell_length_a 31.4421(8)
_cell_length_b 8.1960(2)
_cell_length_c 7.4360(2)
_cell_angle_alpha 90
_cell_angle_beta 89.923(2)
_cell_angle_gamma 90
_cell_volume 1916.25
_cell_formula_units_Z 8
_symmetry_space_group_name_H-M 'P 1 n 1'
_symmetry_Int_Tables_number 7
_refine_ls_R_factor_all 0.0441
loop_
_symmetry_equiv_pos_site_id
_symmetry_equiv_pos_as_xyz
1 'x+1/2, -y, z+1/2'
2 'x, y, z'
loop_
_atom_type_symbol
_atom_type_oxidation_number
Ca2+ 2
Na1+ 1
Ca2+ 2
Na1+ 1
Ca2+ 2
Na1+ 1
Ca2+ 2
Na1+ 1
Ca2+ 2
Na1+ 1
Ca2+ 2
Na1+ 1
Ca2+ 2
Na1+ 1
C4+ 4
O2- -2
loop_
_atom_site_label
_atom_site_type_symbol
_atom_site_symmetry_multiplicity
_atom_site_Wyckoff_symbol
_atom_site_fract_x
_atom_site_fract_y
_atom_site_fract_z
_atom_site_B_iso_or_equiv
_atom_site_occupancy
_atom_site_attached_hydrogens
Ca1 Ca2+ 2 a 0.33172(5) 0.91952(17) 0.0789(2) 0.017431 1. 0
Ca2 Ca2+ 2 a 0.67290(5) 0.92317(17) 0.07703(18) 0.017367 1. 0
Ca3 Ca2+ 2 a 0.33529(5) 0.06638(17) 0.5759(2) 0.01853 1. 0
Ca4 Ca2+ 2 a 0.67416(5) 0.06442(18) 0.5767(2) 0.021368 1. 0
Ca5 Ca2+ 2 a 0.08522(5) 0.42588(17) 0.6256(2) 0.016233 1. 0
Ca6 Ca2+ 2 a 0.92095(5) 0.43211(16) 0.6248(2) 0.016571 1. 0
Ca7 Ca2+ 2 a 0.08203(5) 0.56843(18) 0.1250(2) 0.022068 1. 0
Ca8 Ca2+ 2 a 0.92566(5) 0.57700(18) 0.1226(2) 0.019766 1. 0
Ca9 Ca2+ 2 a 0.00401(5) 0.70699(16) 0.4429(2) 0.020798 1. 0
Na1 Na1+ 2 a 0.31790(9) 0.4041(4) 0.9013(4) 0.020171 1. 0
Na2 Na1+ 2 a 0.68936(8) 0.4062(4) 0.9157(4) 0.018998 1. 0
Na3 Na1+ 2 a 0.06715(7) 0.0965(4) 0.3062(4) 0.00976 1. 0
Na4 Na1+ 2 a 0.93865(9) 0.0933(4) 0.3040(4) 0.01924 1. 0
Na5 Na1+ 2 a 0.00294(9) 0.2439(2) 0.9467(4) 0.012967 1. 0
Ca10 Ca2+ 2 a 0.31631(6) 0.5971(4) 0.4172(4) 0.025101 0.5 0
Na6 Na1+ 2 a 0.31631(6) 0.5971(4) 0.4172(4) 0.025101 0.5 0
Ca11 Ca2+ 2 a 0.68960(7) 0.5952(4) 0.4017(4) 0.032763 0.5 0
Na7 Na1+ 2 a 0.68960(7) 0.5952(4) 0.4017(4) 0.032763 0.5 0
Ca12 Ca2+ 2 a 0.94019(6) 0.9040(2) 0.7780(4) 0.022768 0.5 0
Na8 Na1+ 2 a 0.94019(6) 0.9040(2) 0.7780(4) 0.022768 0.5 0
Ca13 Ca2+ 2 a 0.06640(7) 0.9014(4) 0.7801(4) 0.036971 0.5 0
Na9 Na1+ 2 a 0.06640(7) 0.9014(4) 0.7801(4) 0.036971 0.5 0
Ca14 Ca2+ 2 a 0.75248(7) 0.2134(2) 0.2560(2) 0.023567 0.5 0
Na10 Na1+ 2 a 0.75248(7) 0.2134(2) 0.2560(2) 0.023567 0.5 0
Ca15 Ca2+ 2 a 0.25374(8) 0.2475(4) 0.2500(4) 0.0453 0.5 0
Na11 Na1+ 2 a 0.25374(8) 0.2475(4) 0.2500(4) 0.0453 0.5 0
C1 C4+ 2 a 0.2534(2) 0.3818(8) 0.5942(9) 0.0188 1. 0
C2 C4+ 2 a 0.7532(4) 0.3776(9) 0.5984(11) 0.0324 1. 0
C3 C4+ 2 a 0.2542(2) 0.1235(9) 0.8784(10) 0.0307 1. 0
C4 C4+ 2 a 0.7559(4) 0.0902(9) 0.8613(11) 0.0291 1. 0
C5 C4+ 2 a 0.3557(2) 0.2892(9) 0.2776(10) 0.0201 1. 0
C6 C4+ 2 a 0.6456(2) 0.2935(8) 0.2894(9) 0.0174 1. 0
C7 C4+ 2 a 0.3578(2) 0.6936(8) 0.7708(8) 0.0145 1. 0
C8 C4+ 2 a 0.6514(2) 0.7023(9) 0.7719(10) 0.0206 1. 0
C9 C4+ 2 a 0.6055(2) 0.7929(8) 0.4200(9) 0.0135 1. 0
C10 C4+ 2 a 0.4014(2) 0.7887(8) 0.4156(8) 0.0128 1. 0
C11 C4+ 2 a 0.6102(2) 0.1950(8) 0.9185(9) 0.0171 1. 0
C12 C4+ 2 a 0.3971(2) 0.1983(8) 0.9167(9) 0.0171 1. 0
C13 C4+ 2 a 0.5031(2) 0.8870(7) 0.1155(8) 0.013 1. 0
C14 C4+ 2 a 0.50372(16) 0.1327(5) 0.5965(7) 0.0025 1. 0
C15 C4+ 2 a 0.5038(2) 0.4114(7) 0.3405(8) 0.0117 1. 0
C16 C4+ 2 a 0.50394(16) 0.6355(7) 0.8184(7) 0.0054 1. 0
O1 O2- 2 a 0.28800(18) 0.3101(8) 0.5460(9) 0.040345 1. 0
O2 O2- 2 a 0.21776(16) 0.3198(7) 0.5608(8) 0.030661 1. 0
O3 O2- 2 a 0.2569(4) 0.5304(8) 0.6457(10) 0.072328 1. 0
O4 O2- 2 a 0.71763(18) 0.3281(7) 0.5251(8) 0.035319 1. 0
O5 O2- 2 a 0.78858(18) 0.3237(7) 0.5375(9) 0.038349 1. 0
O6 O2- 2 a 0.7524(2) 0.4576(7) 0.7433(8) 0.047 1. 0
O7 O2- 2 a 0.2174(2) 0.0638(7) 0.8531(8) 0.04166 1. 0
O8 O2- 2 a 0.2886(2) 0.0600(8) 0.8479(9) 0.048 1. 0
O9 O2- 2 a 0.25382(17) 0.2779(7) 0.9469(8) 0.037002 1. 0
O10 O2- 2 a 0.7915(2) 0.1161(8) 0.9051(10) 0.064631 1. 0
O11 O2- 2 a 0.7238(4) 0.1026(9) 0.9561(13) 0.092072 1. 0
O12 O2- 2 a 0.7494(2) 0.0317(7) 0.7012(9) 0.056657 1. 0
O13 O2- 2 a 0.3524(2) 0.4237(7) 0.1939(7) 0.029666 1. 0
O14 O2- 2 a 0.33170(18) 0.1690(7) 0.2545(7) 0.032679 1. 0
O15 O2- 2 a 0.3837(2) 0.2672(8) 0.4046(8) 0.045322 1. 0
O16 O2- 2 a 0.6487(2) 0.4340(7) 0.2107(11) 0.067929 1. 0
O17 O2- 2 a 0.6671(4) 0.1732(7) 0.2615(10) 0.071615 1. 0
O18 O2- 2 a 0.6172(2) 0.2997(11) 0.3970(10) 0.091724 1. 0
O19 O2- 2 a 0.3596(2) 0.5648(7) 0.6841(9) 0.036006 1. 0
O20 O2- 2 a 0.3338(2) 0.8127(7) 0.7411(9) 0.041012 1. 0
O21 O2- 2 a 0.3831(2) 0.7127(9) 0.9074(9) 0.05697 1. 0
O22 O2- 2 a 0.64972(18) 0.5759(7) 0.6763(10) 0.040325 1. 0
O23 O2- 2 a 0.67805(18) 0.8178(7) 0.7505(7) 0.032993 1. 0
O24 O2- 2 a 0.62572(18) 0.7091(7) 0.9069(7) 0.033022 1. 0
O25 O2- 2 a 0.6051(2) 0.9172(7) 0.5205(8) 0.03933 1. 0
O26 O2- 2 a 0.57889(16) 0.6784(7) 0.4556(8) 0.030009 1. 0
O27 O2- 2 a 0.63069(16) 0.7672(7) 0.2886(7) 0.024325 1. 0
O28 O2- 2 a 0.4029(2) 0.9197(7) 0.5044(10) 0.049022 1. 0
O29 O2- 2 a 0.42771(16) 0.6728(7) 0.4596(9) 0.036993 1. 0
O30 O2- 2 a 0.37560(16) 0.7706(7) 0.2881(7) 0.022666 1. 0
O31 O2- 2 a 0.6071(2) 0.0722(7) 0.0066(8) 0.044666 1. 0
O32 O2- 2 a 0.58538(17) 0.3101(8) 0.9594(10) 0.051653 1. 0
O33 O2- 2 a 0.6350(2) 0.2314(9) 0.7803(9) 0.051674 1. 0
O34 O2- 2 a 0.3966(2) 0.0615(7) 0.0056(10) 0.044353 1. 0
O35 O2- 2 a 0.42372(16) 0.3003(7) 0.9783(10) 0.042331 1. 0
O36 O2- 2 a 0.37575(16) 0.2203(7) 0.7803(7) 0.025004 1. 0
O37 O2- 2 a 0.50190(16) 0.0364(4) 0.0576(7) 0.020239 1. 0
O38 O2- 2 a 0.5387(2) 0.8211(7) 0.1340(9) 0.045979 1. 0
O39 O2- 2 a 0.4687(2) 0.8150(7) 0.1488(9) 0.035342 1. 0
O40 O2- 2 a 0.50383(16) 0.0539(4) 0.4500(5) 0.016033 1. 0
O41 O2- 2 a 0.53847(16) 0.1709(7) 0.6741(7) 0.020666 1. 0
O42 O2- 2 a 0.46834(12) 0.1707(5) 0.6736(7) 0.012766 1. 0
O43 O2- 2 a 0.5362(2) 0.3818(7) 0.2480(10) 0.054378 1. 0
O44 O2- 2 a 0.4669(2) 0.3765(7) 0.2722(11) 0.071596 1. 0
O45 O2- 2 a 0.50558(16) 0.4655(5) 0.4975(5) 0.015368 1. 0
O46 O2- 2 a 0.53821(14) 0.5584(5) 0.8563(7) 0.014929 1. 0
O47 O2- 2 a 0.46847(16) 0.5525(5) 0.8539(5) 0.015343 1. 0
O48 O2- 2 a 0.50286(17) 0.7726(5) 0.7536(5) 0.016666 1. 0
loop_
_atom_site_aniso_label
_atom_site_aniso_type_symbol
_atom_site_aniso_U_11
_atom_site_aniso_U_22
_atom_site_aniso_U_33
_atom_site_aniso_U_12
_atom_site_aniso_U_13
_atom_site_aniso_U_23
Ca1 Ca2+ 0.0192 0.0165 0.0166 0.0012 -0.0023 0.0025
Ca2 Ca2+ 0.0187 0.02 0.0134 -0.0014 -0.0002 0.0012
Ca3 Ca2+ 0.0216 0.0179 0.0161 0.0011 -0.0043 0.0001
Ca4 Ca2+ 0.0243 0.0204 0.0194 0.004 0.0018 0.001
Ca5 Ca2+ 0.0113 0.0187 0.0187 0.0012 -0.0007 0.0021
Ca6 Ca2+ 0.0154 0.016 0.0183 -0.005 0.005 0.
Ca7 Ca2+ 0.0172 0.0195 0.0295 -0.0022 0.001 0.0011
Ca8 Ca2+ 0.0161 0.0195 0.0237 0.0012 -0.001 -0.0021
Ca9 Ca2+ 0.0253 0.0109 0.0262 0.0025 -0.0028 -0.0043
Na1 Na1+ 0.0108 0.017 0.0327 -0.0036 0.0049 0.0006
Na2 Na1+ 0.01 0.014 0.033 -0.002 -0.0028 -0.0042
Na3 Na1+ 0.0015 0.0175 0.0103 0.0053 -0.0073 -0.0046
Na4 Na1+ 0.0118 0.0225 0.0234 -0.0004 0.007 -0.0002
Na5 Na1+ 0.0313 0.004 0.0036 -0.0014 0.0006 0.0027
Ca10 Ca2+ 0.0196 0.0197 0.036 0.0017 0.0012 0.0007
Na6 Na1+ 0.0196 0.0197 0.036 0.0017 0.0012 0.0007
Ca11 Ca2+ 0.0267 0.0247 0.0469 -0.002 -0.0046 0.0005
Na7 Na1+ 0.0267 0.0247 0.0469 -0.002 -0.0046 0.0005
Ca12 Ca2+ 0.0171 0.021 0.0302 -0.0021 0.002 0.0005
Na8 Na1+ 0.0171 0.021 0.0302 -0.0021 0.002 0.0005
Ca13 Ca2+ 0.0273 0.0339 0.0497 0.0028 0.0048 0.001
Na9 Na1+ 0.0273 0.0339 0.0497 0.0028 0.0048 0.001
Ca14 Ca2+ 0.0273 0.0299 0.0135 0.0017 -0.0002 -0.0085
Na10 Na1+ 0.0273 0.0299 0.0135 0.0017 -0.0002 -0.0085
Ca15 Ca2+ 0.0336 0.0578 0.0445 0.0027 -0.0006 -0.0123
Na11 Na1+ 0.0336 0.0578 0.0445 0.0027 -0.0006 -0.0123
O1 O2- 0.03 0.038 0.053 0.021 0.013 0.004
O2 O2- 0.009 0.033 0.05 -0.0091 -0.006 -0.006
O3 O2- 0.07 0.066 0.081 0.002 -0.006 -0.053
O4 O2- 0.027 0.037 0.042 0.003 -0.016 -0.012
O5 O2- 0.039 0.02 0.056 0.001 0.017 0.012
O6 O2- 0.029 0.062 0.05 -0.01 -0.001 -0.039
O7 O2- 0.029 0.056 0.04 -0.01 -0.008 0.018
O8 O2- 0.026 0.059 0.059 0.021 0.001 0.023
O9 O2- 0.023 0.029 0.059 0. 0.002 0.008
O10 O2- 0.038 0.042 0.114 -0.001 -0.04 0.036
O11 O2- 0.119 0.06 0.097 -0.045 0.08 -0.01
O12 O2- 0.081 0.038 0.051 0.007 -0.011 0.004
O13 O2- 0.048 0.021 0.02 0.009 -0.001 0.008
O14 O2- 0.061 0.02 0.017 -0.014 0.014 -0.0061
O15 O2- 0.045 0.062 0.029 0.022 -0.013 -0.012
O16 O2- 0.056 0.025 0.123 -0.023 -0.079 0.029
O17 O2- 0.127 0.024 0.064 0.037 -0.058 -0.02
O18 O2- 0.079 0.12 0.076 -0.057 0.064 -0.082
O19 O2- 0.034 0.034 0.04 -0.013 0.007 -0.022
O20 O2- 0.055 0.026 0.042 0.017 0.013 0.021
O21 O2- 0.059 0.079 0.033 -0.018 -0.033 0.013
O22 O2- 0.02 0.028 0.073 0.005 -0.009 -0.029
O23 O2- 0.037 0.042 0.02 -0.018 -0.008 0.009
O24 O2- 0.044 0.032 0.023 -0.007 0.025 0.01
O25 O2- 0.062 0.026 0.03 0.008 -0.004 -0.016
O26 O2- 0.016 0.025 0.049 -0.002 0.01 0.015
O27 O2- 0.014 0.032 0.027 -0.0065 -0.0094 -0.0068
O28 O2- 0.026 0.032 0.089 -0.008 0.025 -0.027
O29 O2- 0.011 0.04 0.06 0.009 -0.008 0.022
O30 O2- 0.017 0.029 0.022 0.0079 -0.0013 -0.002
O31 O2- 0.059 0.039 0.036 -0.01 -0.001 0.015
O32 O2- 0.019 0.061 0.075 0.02 -0.015 -0.048
O33 O2- 0.047 0.073 0.035 -0.027 0.008 0.001
O34 O2- 0.03 0.031 0.072 0.004 0.022 0.022
O35 O2- 0.013 0.044 0.07 -0.002 -0.003 -0.033
O36 O2- 0.02 0.035 0.02 -0.004 0.0046 0.003
O37 O2- 0.028 0.0047 0.028 0.0038 0.0067 0.0035
O38 O2- 0.051 0.023 0.064 0.02 -0.023 -0.02
O39 O2- 0.038 0.028 0.04 -0.004 0.01 0.003
O40 O2- 0.028 0.0135 0.0066 0.0063 -0.0007 0.0077
O41 O2- 0.01 0.026 0.026 -0.0003 -0.0011 -0.009
O42 O2- -0.0017 0.021 0.019 0.0026 -0.0002 -0.0104
O43 O2- 0.06 0.022 0.081 -0.01 0.05 -0.021
O44 O2- 0.087 0.027 0.101 0.012 -0.079 -0.034
O45 O2- 0.028 0.015 0.0031 -0.0087 0.0014 -0.0052
O46 O2- 0.019 0.018 0.0078 0.0062 -0.0043 0.0007
O47 O2- 0.023 0.016 0.007 0.0003 0.0113 0.0029
O48 O2- 0.046 0.0085 -0.0045 0.0008 -0.0009 0.0065
#End of TTdata_194469-ICSD