
#(C) 2019 by FIZ Karlsruhe - Leibniz Institute for Information Infrastructure.  All rights reserved.
data_194460-ICSD
_database_code_ICSD 194460
_audit_creation_date 2015-08-01
_chemical_name_systematic
'Strontium sodium tantalum oxide nitride (1/0.2/0.8/2.8/0.2)'
_chemical_formula_structural 'Sr (Na0.19 Ta0.81) (O2.8 N0.2)'
_chemical_formula_sum 'N0.2 Na0.19 O2.8 Sr1 Ta0.81'
_chemical_name_structure_type Perovskite-SrTiO3
_exptl_crystal_density_diffrn 7.17
_publ_section_title

;
Intercalation route to complex perovskites A M0.2 Ta0.8 O2.8 N0.2 (A = Sr, Ba;
M = Li, Na): neutron diffraction and nuclear magnetic resonance study
;
loop_
_citation_id
_citation_journal_full
_citation_year
_citation_journal_volume
_citation_page_first
_citation_page_last
_citation_journal_id_ASTM
primary 'Crystal Growth & Design' 2015 15 53 61 CGDEFU
loop_
_publ_author_name
'Kim, Young-Il'
'Paik, Younkee'
'Avdeev, Maxim'
_cell_length_a 5.7216
_cell_length_b 5.7216
_cell_length_c 8.0923(10)
_cell_angle_alpha 90.
_cell_angle_beta 90.
_cell_angle_gamma 90.
_cell_volume 264.91
_cell_formula_units_Z 4
_symmetry_space_group_name_H-M 'I 4/m c m'
_symmetry_Int_Tables_number 140
_refine_ls_R_factor_all 0.0251
loop_
_symmetry_equiv_pos_site_id
_symmetry_equiv_pos_as_xyz
1 'y, x, -z+1/2'
2 '-y, -x, -z+1/2'
3 '-y, x, -z'
4 'y, -x, -z'
5 'x, -y, -z+1/2'
6 '-x, y, -z+1/2'
7 'x, y, -z'
8 '-x, -y, -z'
9 '-y, -x, z+1/2'
10 'y, x, z+1/2'
11 'y, -x, z'
12 '-y, x, z'
13 '-x, y, z+1/2'
14 'x, -y, z+1/2'
15 '-x, -y, z'
16 'x, y, z'
17 'y+1/2, x+1/2, -z'
18 '-y+1/2, -x+1/2, -z'
19 '-y+1/2, x+1/2, -z+1/2'
20 'y+1/2, -x+1/2, -z+1/2'
21 'x+1/2, -y+1/2, -z'
22 '-x+1/2, y+1/2, -z'
23 'x+1/2, y+1/2, -z+1/2'
24 '-x+1/2, -y+1/2, -z+1/2'
25 '-y+1/2, -x+1/2, z'
26 'y+1/2, x+1/2, z'
27 'y+1/2, -x+1/2, z+1/2'
28 '-y+1/2, x+1/2, z+1/2'
29 '-x+1/2, y+1/2, z'
30 'x+1/2, -y+1/2, z'
31 '-x+1/2, -y+1/2, z+1/2'
32 'x+1/2, y+1/2, z+1/2'
loop_
_atom_type_symbol
_atom_type_oxidation_number
Sr2+ 2
Na1+ 1
Ta5+ 5
O2- -2
N3- -3
O2- -2
loop_
_atom_site_label
_atom_site_type_symbol
_atom_site_symmetry_multiplicity
_atom_site_Wyckoff_symbol
_atom_site_fract_x
_atom_site_fract_y
_atom_site_fract_z
_atom_site_B_iso_or_equiv
_atom_site_occupancy
_atom_site_attached_hydrogens
Sr1 Sr2+ 4 b 0. 0.5 0.25 0.01911 1. 0
Na1 Na1+ 4 c 0. 0. 0. 0.00821 0.19113 0
Ta1 Ta5+ 4 c 0. 0. 0. 0.00821 0.80887 0
O1 O2- 4 a 0. 0. 0.25 0.02007 0.8 0
N1 N3- 4 a 0. 0. 0.25 0.02007 0.2 0
O2 O2- 8 h 0.7709 0.2709 0. 0.02007 1. 0
#End of TTdata_194460-ICSD