
#(C) 2019 by FIZ Karlsruhe - Leibniz Institute for Information Infrastructure.  All rights reserved.
data_194404-ICSD
_database_code_ICSD 194404
_audit_creation_date 2015-08-01
_chemical_name_systematic 'Trisodium titanium(III) nitridoenneaoxo-triphosphate'
_chemical_formula_structural 'Na2.96 Ti (P3 O9 N)'
_chemical_formula_sum 'N1 Na2.96 O9 P3 Ti1'
_exptl_crystal_density_diffrn 2.82
_cell_measurement_temperature 300.
_publ_section_title

;
Ionic conduction in cubic Na3 Ti P3 O9 N, a secondary Na-ion battery cathode
with extremely low volume change
;
loop_
_citation_id
_citation_journal_full
_citation_year
_citation_journal_volume
_citation_page_first
_citation_page_last
_citation_journal_id_ASTM
primary 'Chemistry of Materials' 2014 26 3295 3305 CMATEX
loop_
_publ_author_name
'Liu, Jue'
'Chang, Donghee'
'Whitfield, Pamela'
'Janssen, Yuri'
'Yu, Xiqian'
'Zhou, Yongning'
'Bai, Jianming'
'Ko, Jonathan'
'Nam, Kyung-Wan'
'Wu, Lijun'
'Zhu, Yimei'
'Feygenson, Mikhail'
'Amatucci, Glenn'
'Van der Ven, Anton'
'Yang, Xiao-Qing'
'Khalifah, Peter'
_cell_length_a 9.5192(3)
_cell_length_b 9.5192(3)
_cell_length_c 9.5192(3)
_cell_angle_alpha 90.
_cell_angle_beta 90.
_cell_angle_gamma 90.
_cell_volume 862.58
_cell_formula_units_Z 4
_symmetry_space_group_name_H-M 'P 21 3'
_symmetry_Int_Tables_number 198
_refine_ls_R_factor_all 0.0188
loop_
_symmetry_equiv_pos_site_id
_symmetry_equiv_pos_as_xyz
1 '-z+1/2, -x, y+1/2'
2 '-y+1/2, -z, x+1/2'
3 '-x+1/2, -y, z+1/2'
4 '-z, x+1/2, -y+1/2'
5 '-y, z+1/2, -x+1/2'
6 '-x, y+1/2, -z+1/2'
7 'z+1/2, -x+1/2, -y'
8 'y+1/2, -z+1/2, -x'
9 'x+1/2, -y+1/2, -z'
10 'z, x, y'
11 'y, z, x'
12 'x, y, z'
loop_
_atom_type_symbol
_atom_type_oxidation_number
Na1+ 1
Ti3+ 3
P5+ 5
O2- -2
N3- -3
loop_
_atom_site_label
_atom_site_type_symbol
_atom_site_symmetry_multiplicity
_atom_site_Wyckoff_symbol
_atom_site_fract_x
_atom_site_fract_y
_atom_site_fract_z
_atom_site_B_iso_or_equiv
_atom_site_occupancy
_atom_site_attached_hydrogens
Na1 Na1+ 4 a 0.01231(18) 0.01231(18) 0.01231(18) 1.61(13) 0.963(10) 0
Na2 Na1+ 4 a 0.39364(21) 0.39364(21) 0.39364(21) 1.53(11) 1. 0
Na3 Na1+ 4 a 0.80348(25) 0.80348(25) 0.80348(25) 1.93(10) 1. 0
Ti1 Ti3+ 4 a 0.58129(8) 0.58129(8) 0.58129(8) 0.59(8) 1. 0
P1 P5+ 12 b 0.08636(12) 0.24551(13) 0.33344(13) 0.52(8) 1. 0
O1 O2- 12 b 0.02168(26) 0.84884(27) 0.23382(40) 1.01(10) 1. 0
O2 O2- 12 b 0.00552(30) 0.11398(27) 0.37635(27) 0.77(10) 1. 0
O3 O2- 12 b 0.16837(27) 0.30995(26) 0.44508(43) 0.90(10) 1. 0
N1 N3- 4 a 0.19893(32) 0.19893(32) 0.19893(32) 0.57(20) 1. 0
#End of TTdata_194404-ICSD