
#(C) 2019 by FIZ Karlsruhe - Leibniz Institute for Information Infrastructure.  All rights reserved.
data_194407-ICSD
_database_code_ICSD 194407
_audit_creation_date 2015-08-01
_chemical_name_systematic
'Sodium-2.08 titanium(III/IV) nitridoenneaoxo-triphosphate'
_chemical_formula_structural 'Na2.08 Ti (P3 O9 N)'
_chemical_formula_sum 'N1 Na2.08 O9 P3 Ti1'
_exptl_crystal_density_diffrn 2.68
_cell_measurement_temperature 300.
_publ_section_title

;
Ionic conduction in cubic Na3 Ti P3 O9 N, a secondary Na-ion battery cathode
with extremely low volume change
;
loop_
_citation_id
_citation_journal_full
_citation_year
_citation_journal_volume
_citation_page_first
_citation_page_last
_citation_journal_id_ASTM
primary 'Chemistry of Materials' 2014 26 3295 3305 CMATEX
loop_
_publ_author_name
'Liu, Jue'
'Chang, Donghee'
'Whitfield, Pamela'
'Janssen, Yuri'
'Yu, Xiqian'
'Zhou, Yongning'
'Bai, Jianming'
'Ko, Jonathan'
'Nam, Kyung-Wan'
'Wu, Lijun'
'Zhu, Yimei'
'Feygenson, Mikhail'
'Amatucci, Glenn'
'Van der Ven, Anton'
'Yang, Xiao-Qing'
'Khalifah, Peter'
_cell_length_a 9.5046(2)
_cell_length_b 9.5046(2)
_cell_length_c 9.5046(2)
_cell_angle_alpha 90.
_cell_angle_beta 90.
_cell_angle_gamma 90.
_cell_volume 858.62
_cell_formula_units_Z 4
_symmetry_space_group_name_H-M 'P 21 3'
_symmetry_Int_Tables_number 198
_refine_ls_R_factor_all 0.026
loop_
_symmetry_equiv_pos_site_id
_symmetry_equiv_pos_as_xyz
1 '-z+1/2, -x, y+1/2'
2 '-y+1/2, -z, x+1/2'
3 '-x+1/2, -y, z+1/2'
4 '-z, x+1/2, -y+1/2'
5 '-y, z+1/2, -x+1/2'
6 '-x, y+1/2, -z+1/2'
7 'z+1/2, -x+1/2, -y'
8 'y+1/2, -z+1/2, -x'
9 'x+1/2, -y+1/2, -z'
10 'z, x, y'
11 'y, z, x'
12 'x, y, z'
loop_
_atom_type_symbol
_atom_type_oxidation_number
Na1+ 1
Ti3+ 3.9
P5+ 5
O2- -2
N3- -3
loop_
_atom_site_label
_atom_site_type_symbol
_atom_site_symmetry_multiplicity
_atom_site_Wyckoff_symbol
_atom_site_fract_x
_atom_site_fract_y
_atom_site_fract_z
_atom_site_B_iso_or_equiv
_atom_site_occupancy
_atom_site_attached_hydrogens
Na1 Na1+ 12 b 0.01232(18) 0.0026(35) 0.0026(35) 2.17 0.0283 0
Na2 Na1+ 4 a 0.39090(25) 0.39090(25) 0.39090(25) 1.51(15) 1. 0
Na3 Na1+ 4 a 0.81422(32) 0.81422(32) 0.81422(32) 1.80(15) 1. 0
Ti1 Ti3+ 4 a 0.58518(10) 0.58518(10) 0.58518(10) 0.49(13) 1. 0
P1 P5+ 12 b 0.08541(15) 0.23998(11) 0.33038(15) 0.43(14) 1. 0
O1 O2- 12 b 0.02451(40) 0.83665(45) 0.23960(42) 0.67(15) 1. 0
O2 O2- 12 b 0.00848(40) 0.10458(41) 0.37511(42) 0.68(14) 1. 0
O3 O2- 12 b 0.16587(47) 0.30312(46) 0.44508(43) 1.21(16) 1. 0
N1 N3- 4 a 0.19524(51) 0.19524(51) 0.19524(51) 0.57(20) 1. 0
#End of TTdata_194407-ICSD