
#(C) 2019 by FIZ Karlsruhe - Leibniz Institute for Information Infrastructure.  All rights reserved.
data_194514-ICSD
_database_code_ICSD 194514
_audit_creation_date 2015-08-01
_chemical_name_systematic 'Sodium aluminium silicon oxide (28.7/12/12/48)'
_chemical_formula_structural 'Na16.7 Na12 (Al12 Si12 O48)'
_chemical_formula_sum 'Al12 Na28.7 O48 Si12'
_chemical_name_structure_type Faujasite-Fd3--frame
_chemical_name_mineral 'Zeolite LSX (heavily Na-loaded)'
_exptl_crystal_density_diffrn 1.79
_publ_section_title

;
Crystal structures of heavily Na-loaded low-silica X (LSX) zeolites in
insulating and metallic states
;
loop_
_citation_id
_citation_journal_full
_citation_year
_citation_journal_volume
_citation_page_first
_citation_page_last
_citation_journal_id_ASTM
primary 'Journal of Physical Chemistry C' 2014 118 23202 23211 JPCCCK
loop_
_publ_author_name
'Ikeda, Takuji'
'Nakano, Takehito'
'Nozue, Yasuo'
_cell_length_a 24.95060(11)
_cell_length_b 24.95060(11)
_cell_length_c 24.95060(11)
_cell_angle_alpha 90.
_cell_angle_beta 90.
_cell_angle_gamma 90.
_cell_volume 15532.56
_cell_formula_units_Z 8
_symmetry_space_group_name_H-M 'F d -3 Z'
_symmetry_Int_Tables_number 203
_refine_ls_R_factor_all 0.0096
loop_
_symmetry_equiv_pos_site_id
_symmetry_equiv_pos_as_xyz
1 '-z, x+3/4, y+3/4'
2 'z+3/4, x+3/4, -y'
3 'z+3/4, -x, y+3/4'
4 '-z, -x, -y'
5 'y+3/4, -z, x+3/4'
6 '-y, z+3/4, x+3/4'
7 'y+3/4, z+3/4, -x'
8 '-y, -z, -x'
9 'x+3/4, y+3/4, -z'
10 'x+3/4, -y, z+3/4'
11 '-x, y+3/4, z+3/4'
12 '-x, -y, -z'
13 'z, -x+1/4, -y+1/4'
14 '-z+1/4, -x+1/4, y'
15 '-z+1/4, x, -y+1/4'
16 'z, x, y'
17 '-y+1/4, z, -x+1/4'
18 'y, -z+1/4, -x+1/4'
19 '-y+1/4, -z+1/4, x'
20 'y, z, x'
21 '-x+1/4, -y+1/4, z'
22 '-x+1/4, y, -z+1/4'
23 'x, -y+1/4, -z+1/4'
24 'x, y, z'
25 '-z, x+1/4, y+1/4'
26 'z+3/4, x+1/4, -y+1/2'
27 'z+3/4, -x+1/2, y+1/4'
28 '-z, -x+1/2, -y+1/2'
29 'y+3/4, -z+1/2, x+1/4'
30 '-y, z+1/4, x+1/4'
31 'y+3/4, z+1/4, -x+1/2'
32 '-y, -z+1/2, -x+1/2'
33 'x+3/4, y+1/4, -z+1/2'
34 'x+3/4, -y+1/2, z+1/4'
35 '-x, y+1/4, z+1/4'
36 '-x, -y+1/2, -z+1/2'
37 'z, -x+3/4, -y+3/4'
38 '-z+1/4, -x+3/4, y+1/2'
39 '-z+1/4, x+1/2, -y+3/4'
40 'z, x+1/2, y+1/2'
41 '-y+1/4, z+1/2, -x+3/4'
42 'y, -z+3/4, -x+3/4'
43 '-y+1/4, -z+3/4, x+1/2'
44 'y, z+1/2, x+1/2'
45 '-x+1/4, -y+3/4, z+1/2'
46 '-x+1/4, y+1/2, -z+3/4'
47 'x, -y+3/4, -z+3/4'
48 'x, y+1/2, z+1/2'
49 '-z+1/2, x+3/4, y+1/4'
50 'z+1/4, x+3/4, -y+1/2'
51 'z+1/4, -x, y+1/4'
52 '-z+1/2, -x, -y+1/2'
53 'y+1/4, -z, x+1/4'
54 '-y+1/2, z+3/4, x+1/4'
55 'y+1/4, z+3/4, -x+1/2'
56 '-y+1/2, -z, -x+1/2'
57 'x+1/4, y+3/4, -z+1/2'
58 'x+1/4, -y, z+1/4'
59 '-x+1/2, y+3/4, z+1/4'
60 '-x+1/2, -y, -z+1/2'
61 'z+1/2, -x+1/4, -y+3/4'
62 '-z+3/4, -x+1/4, y+1/2'
63 '-z+3/4, x, -y+3/4'
64 'z+1/2, x, y+1/2'
65 '-y+3/4, z, -x+3/4'
66 'y+1/2, -z+1/4, -x+3/4'
67 '-y+3/4, -z+1/4, x+1/2'
68 'y+1/2, z, x+1/2'
69 '-x+3/4, -y+1/4, z+1/2'
70 '-x+3/4, y, -z+3/4'
71 'x+1/2, -y+1/4, -z+3/4'
72 'x+1/2, y, z+1/2'
73 '-z+1/2, x+1/4, y+3/4'
74 'z+1/4, x+1/4, -y'
75 'z+1/4, -x+1/2, y+3/4'
76 '-z+1/2, -x+1/2, -y'
77 'y+1/4, -z+1/2, x+3/4'
78 '-y+1/2, z+1/4, x+3/4'
79 'y+1/4, z+1/4, -x'
80 '-y+1/2, -z+1/2, -x'
81 'x+1/4, y+1/4, -z'
82 'x+1/4, -y+1/2, z+3/4'
83 '-x+1/2, y+1/4, z+3/4'
84 '-x+1/2, -y+1/2, -z'
85 'z+1/2, -x+3/4, -y+1/4'
86 '-z+3/4, -x+3/4, y'
87 '-z+3/4, x+1/2, -y+1/4'
88 'z+1/2, x+1/2, y'
89 '-y+3/4, z+1/2, -x+1/4'
90 'y+1/2, -z+3/4, -x+1/4'
91 '-y+3/4, -z+3/4, x'
92 'y+1/2, z+1/2, x'
93 '-x+3/4, -y+3/4, z'
94 '-x+3/4, y+1/2, -z+1/4'
95 'x+1/2, -y+3/4, -z+1/4'
96 'x+1/2, y+1/2, z'
loop_
_atom_type_symbol
_atom_type_oxidation_number
Si4+ 4
Al3+ 3
O2- -2
Na1+ 1
Na0+ 0.122
loop_
_atom_site_label
_atom_site_type_symbol
_atom_site_symmetry_multiplicity
_atom_site_Wyckoff_symbol
_atom_site_fract_x
_atom_site_fract_y
_atom_site_fract_z
_atom_site_B_iso_or_equiv
_atom_site_occupancy
_atom_site_attached_hydrogens
Si1 Si4+ 96 g -0.0518(3) 0.1247(2) 0.0366(3) 0.0163(3) 1. 0
Al1 Al3+ 96 g -0.0536(3) 0.0358(3) 0.1211(2) 0.0163(3) 1. 0
O1 O2- 96 g -0.1081(4) -0.0005(7) 0.1041(4) 0.0230(7) 1. 0
O2 O2- 96 g -0.0007(5) -0.0027(5) 0.1460(2) 0.0230(7) 1. 0
O3 O2- 96 g -0.0298(2) 0.0683(4) 0.0651(4) 0.0230(7) 1. 0
O4 O2- 96 g -0.0718(2) 0.0810(4) 0.1715(4) 0.0230(7) 1. 0
Na1 Na1+ 16 c 0 0 0 0.0417(10) 0.866(9) 0
Na2 Na1+ 32 e 0.2364(11) 0.2364(11) 0.2364(11) 0.0417(10) 1. 0
Na3 Na1+ 32 e 0.0709(12) 0.0709(12) 0.0709(12) 0.0417(10) 1. 0
Na4 Na0+ 48 f 0.398(2) 0.125 0.125 0.156(4) 0.153(8) 0
Na5 Na0+ 16 d 0.5 0.5 0.5 0.156(4) 0.807(9) 0
Na6 Na0+ 96 g 0.0839(4) 0.0530(4) 0.4115(4) 0.156(4) 0.642(7) 0
Na7 Na0+ 96 g 0.6338(6) 0.4831(8) 0.5233(9) 0.156(4) 0.332(7) 0
Na8 Na0+ 96 g 0.5219(6) 0.0832(5) 0.1247(7) 0.156(4) 0.354(6) 0
Na9 Na0+ 8 b 0.375 0.375 0.375 0.156(4) 0.54(2) 0
#End of TTdata_194514-ICSD