
#(C) 2019 by FIZ Karlsruhe - Leibniz Institute for Information Infrastructure.  All rights reserved.
data_194731-ICSD
_database_code_ICSD 194731
_audit_creation_date 2015-08-01
_chemical_name_systematic 'Sodium manganese iron oxide (0.67/0.5/0.5/2)'
_chemical_formula_structural 'Na0.667 (Mn0.5 Fe0.5) O2'
_chemical_formula_sum 'Fe0.5 Mn0.5 Na0.667 O2'
_chemical_name_structure_type NaxCoO2
_exptl_crystal_density_diffrn 4.07
_publ_section_title

;
Uptake of C O2 in layered P2-Na0.67 Mn0.5 Fe0.5 O2: insertion of carbonate
anions
;
loop_
_citation_id
_citation_journal_full
_citation_year
_citation_journal_volume
_citation_page_first
_citation_page_last
_citation_journal_id_ASTM
primary 'Chemistry of Materials' 2015 27 2515 2524 CMATEX
loop_
_publ_author_name
'Duffort, Victor'
'Talaie, Elahe'
'Black, Robert'
'Nazar, Linda F.'
_cell_length_a 2.9429(1)
_cell_length_b 2.9429(1)
_cell_length_c 11.1881(3)
_cell_angle_alpha 90.
_cell_angle_beta 90.
_cell_angle_gamma 120.
_cell_volume 83.91
_cell_formula_units_Z 2
_symmetry_space_group_name_H-M 'P 63/m m c'
_symmetry_Int_Tables_number 194
_refine_ls_R_factor_all 0.0627
loop_
_symmetry_equiv_pos_site_id
_symmetry_equiv_pos_as_xyz
1 'x, x-y, -z+1/2'
2 '-x+y, y, -z+1/2'
3 '-y, -x, -z+1/2'
4 '-x+y, -x, -z+1/2'
5 '-y, x-y, -z+1/2'
6 'x, y, -z+1/2'
7 '-x, -x+y, z+1/2'
8 'x-y, -y, z+1/2'
9 'y, x, z+1/2'
10 'x-y, x, z+1/2'
11 'y, -x+y, z+1/2'
12 '-x, -y, z+1/2'
13 '-x, -x+y, -z'
14 'x-y, -y, -z'
15 'y, x, -z'
16 'x-y, x, -z'
17 'y, -x+y, -z'
18 '-x, -y, -z'
19 'x, x-y, z'
20 '-x+y, y, z'
21 '-y, -x, z'
22 '-x+y, -x, z'
23 '-y, x-y, z'
24 'x, y, z'
loop_
_atom_type_symbol
_atom_type_oxidation_number
Na1+ 1
Fe3+ 3.33
Mn3+ 3.33
O2- -2
loop_
_atom_site_label
_atom_site_type_symbol
_atom_site_symmetry_multiplicity
_atom_site_Wyckoff_symbol
_atom_site_fract_x
_atom_site_fract_y
_atom_site_fract_z
_atom_site_B_iso_or_equiv
_atom_site_occupancy
_atom_site_attached_hydrogens
Na1 Na1+ 6 h 0.625(5) 0.375(5) 0.25 0.015(6) 0.153(6) 0
Na2 Na1+ 6 h 0.04(2) 0.96(2) 0.25 0.02(1) 0.07(3) 0
Fe1 Fe3+ 2 a 0 0 0 . 0.5 0
Mn1 Mn3+ 2 a 0 0 0 . 0.5 0
O1 O2- 4 f 0.3333 0.6667 0.0925(3) . 1. 0
loop_
_atom_site_aniso_label
_atom_site_aniso_type_symbol
_atom_site_aniso_U_11
_atom_site_aniso_U_22
_atom_site_aniso_U_33
_atom_site_aniso_U_12
_atom_site_aniso_U_13
_atom_site_aniso_U_23
Fe1 Fe3+ 0.013(1) 0.013(1) 0.012(2) 0.006(2) 0. 0.
Mn1 Mn3+ 0.013(1) 0.013(1) 0.012(2) 0.006(2) 0. 0.
O1 O2- 0.02(2) 0.012(2) 0.012(2) 0.006(2) 0. 0.
#End of TTdata_194731-ICSD