
#(C) 2019 by FIZ Karlsruhe - Leibniz Institute for Information Infrastructure.  All rights reserved.
data_194783-ICSD
_database_code_ICSD 194783
_audit_creation_date 2015-08-01
_chemical_name_systematic 'Trisodium tetraoxomolybdate fluoride'
_chemical_formula_structural 'Na3 (Mo O4) F'
_chemical_formula_sum 'F1 Mo1 Na3 O4'
_chemical_name_structure_type Ca2NaFSiO4
_exptl_crystal_density_diffrn 3.05
_cell_measurement_temperature 296.
_publ_section_title

;
Synthesis, crystal structure, and properties of the sodium molybdate fluoride
Na3 Mo O4 F
;
loop_
_citation_id
_citation_journal_full
_citation_year
_citation_journal_volume
_citation_page_first
_citation_page_last
_citation_journal_id_ASTM
primary 'Zeitschrift fuer Anorganische und Allgemeine Chemie' 2015 641 922 926
ZAACAB
loop_
_publ_author_name
'Zhang, Xiangyu'
'Li, Danni'
'Yang, Zhihua'
'Wu, Hongping'
'Pan, Shilie'
_cell_length_a 5.588(2)
_cell_length_b 7.515(3)
_cell_length_c 12.876(5)
_cell_angle_alpha 90.
_cell_angle_beta 90.
_cell_angle_gamma 90.
_cell_volume 540.71
_cell_formula_units_Z 4
_symmetry_space_group_name_H-M 'P n m a'
_symmetry_Int_Tables_number 62
_refine_ls_R_factor_all 0.016
loop_
_symmetry_equiv_pos_site_id
_symmetry_equiv_pos_as_xyz
1 'x+1/2, y, -z+1/2'
2 'x, -y+1/2, z'
3 '-x+1/2, y+1/2, z+1/2'
4 '-x, -y, -z'
5 '-x+1/2, -y, z+1/2'
6 '-x, y+1/2, -z'
7 'x+1/2, -y+1/2, -z+1/2'
8 'x, y, z'
loop_
_atom_type_symbol
_atom_type_oxidation_number
Na1+ 1
Mo6+ 6
F1- -1
O2- -2
loop_
_atom_site_label
_atom_site_type_symbol
_atom_site_symmetry_multiplicity
_atom_site_Wyckoff_symbol
_atom_site_fract_x
_atom_site_fract_y
_atom_site_fract_z
_atom_site_B_iso_or_equiv
_atom_site_occupancy
_atom_site_attached_hydrogens
Na1 Na1+ 4 c -0.2726(2) 0.25 -0.10737(10) 0.0191(3) 1 0
Na2 Na1+ 8 d 0.73034(16) 0.53960(13) 0.17937(7) 0.0196(2) 1 0
Mo1 Mo6+ 4 c 0.20876(5) 0.25 0.083952(19) 0.01267(11) 1 0
F1 F1- 4 c 0.0021(3) 0.25 -0.23294(13) 0.0170(4) 1 0
O1 O2- 4 c 0.3230(4) 0.25 -0.04281(17) 0.0211(5) 1 0
O2 O2- 8 d 0.3095(3) 0.4404(2) 0.14991(13) 0.0269(4) 1 0
O3 O2- 4 c -0.1061(5) 0.25 0.0789(2) 0.0379(7) 1 0
loop_
_atom_site_aniso_label
_atom_site_aniso_type_symbol
_atom_site_aniso_U_11
_atom_site_aniso_U_22
_atom_site_aniso_U_33
_atom_site_aniso_U_12
_atom_site_aniso_U_13
_atom_site_aniso_U_23
Na1 Na1+ 0.0205(7) 0.0175(7) 0.0195(7) 0. 0.0017(5) 0.
Na2 Na1+ 0.0221(5) 0.0194(5) 0.0172(4) -0.0001(4) -0.0003(4) 0.0019(4)
Mo1 Mo6+ 0.01585(16) 0.01167(15) 0.01050(15) 0. 0.00066(10) 0.
F1 F1- 0.0117(9) 0.0208(9) 0.0186(9) 0. -0.0005(7) 0.
O1 O2- 0.0284(13) 0.0240(12) 0.0110(10) 0. 0.0021(9) 0.
O2 O2- 0.0431(11) 0.0163(8) 0.0214(9) -0.0045(8) 0.0021(8) -0.0050(7)
O3 O2- 0.0177(13) 0.0594(19) 0.0365(15) 0. 0.0004(12) 0.
#End of TTdata_194783-ICSD