
#(C) 2019 by FIZ Karlsruhe - Leibniz Institute for Information Infrastructure.  All rights reserved.
data_194845-ICSD
_database_code_ICSD 194845
_audit_creation_date 2015-08-01
_chemical_name_systematic 'Sodium vanadium oxide fluoride (1/1/1.67/2.33)'
_chemical_formula_structural 'Na V (O1.67 F2.33)'
_chemical_formula_sum 'F2.33 Na1 O1.67 V1'
_exptl_crystal_density_diffrn 3.13
_cell_measurement_temperature 100.
_publ_section_title

;
Syntheses of two vanadium oxide-fluoride materials that differ in phase
matchability
;
loop_
_citation_id
_citation_journal_full
_citation_year
_citation_journal_volume
_citation_page_first
_citation_page_last
_citation_journal_id_ASTM
primary 'Inorganic Chemistry' 2015 54 765 772 INOCAJ
loop_
_publ_author_name
'Donakowski, Martin D.'
'Gautier, Romain'
'Lu, Hongcheng'
'Tran, T. Thao'
'Cantwell, Jacqueline R.'
'Halasyamani, P. Shiv'
'Poeppelmeier, Kenneth R.'
_cell_length_a 6.3742(3)
_cell_length_b 3.5963(2)
_cell_length_c 14.3641(7)
_cell_angle_alpha 90
_cell_angle_beta 110.787(3)
_cell_angle_gamma 90
_cell_volume 307.84
_cell_formula_units_Z 4
_symmetry_space_group_name_H-M 'P 1 21 1'
_symmetry_Int_Tables_number 4
_refine_ls_R_factor_all 0.0331
loop_
_symmetry_equiv_pos_site_id
_symmetry_equiv_pos_as_xyz
1 '-x, y+1/2, -z'
2 'x, y, z'
loop_
_atom_type_symbol
_atom_type_oxidation_number
V4+ 4.66
Na1+ 1
F1- -1
O2- -2
loop_
_atom_site_label
_atom_site_type_symbol
_atom_site_symmetry_multiplicity
_atom_site_Wyckoff_symbol
_atom_site_fract_x
_atom_site_fract_y
_atom_site_fract_z
_atom_site_B_iso_or_equiv
_atom_site_occupancy
_atom_site_attached_hydrogens
V1 V4+ 2 a 0.6374(4) 0.5126(6) 0.60636(18) 0.00621(15) 0.246(4) 0
V2 V4+ 2 a 0.63825(16) 0.42630(15) 0.60752(7) 0.00621(15) 0.754(4) 0
V3 V4+ 2 a 0.3634(2) -0.0305(4) 0.89389(11) 0.00758(17) 0.675(7) 0
V4 V4+ 2 a 0.3579(5) -0.0847(10) 0.8902(2) 0.00758(17) 0.325(7) 0
Na1 Na1+ 2 a 0.1342(2) -0.0267(5) 0.60397(11) 0.0068(2) 1 0
Na2 Na1+ 2 a 0.8663(3) 0.4374(5) 0.89636(14) 0.0155(4) 1 0
F1 F1- 2 a 0.8792(4) 0.4756(7) 0.55855(16) 0.0068(3) 1 0
F2 F1- 2 a 0.5938(4) 0.9662(6) 0.57061(19) 0.0073(3) 0.3333 0
F3 F1- 2 a 0.3591(4) 0.4742(7) 0.62025(17) 0.0076(3) 1 0
F4 F1- 2 a 0.1190(16) -0.024(2) 0.9438(7) 0.0094(7) 0.41(2) 0
F5 F1- 2 a 0.1224(11) -0.088(2) 0.9398(5) 0.0094(7) 0.59(2) 0
F6 F1- 2 a 0.4061(5) 0.4408(6) 0.9293(2) 0.0137(5) 0.3333 0
F7 F1- 2 a 0.6388(14) -0.022(2) 0.8802(6) 0.0104(7) 0.441(17) 0
F8 F1- 2 a 0.6423(11) -0.095(2) 0.8790(5) 0.0104(7) 0.559(17) 0
O1 O2- 2 a 0.5938(4) 0.9662(6) 0.57061(19) 0.0073(3) 0.6667 0
O2 O2- 2 a 0.7889(15) 0.521(3) 0.7216(7) 0.0115(6) 0.273(16) 0
O3 O2- 2 a 0.7883(8) 0.4163(16) 0.7224(4) 0.0115(6) 0.727(16) 0
O4 O2- 2 a 0.4061(5) 0.4408(6) 0.9293(2) 0.0137(5) 0.6667 0
O5 O2- 2 a 0.2125(13) -0.015(3) 0.7794(5) 0.0103(9) 0.57(2) 0
O6 O2- 2 a 0.2107(18) -0.087(3) 0.7751(8) 0.0103(9) 0.43(2) 0
loop_
_atom_site_aniso_label
_atom_site_aniso_type_symbol
_atom_site_aniso_U_11
_atom_site_aniso_U_22
_atom_site_aniso_U_33
_atom_site_aniso_U_12
_atom_site_aniso_U_13
_atom_site_aniso_U_23
V1 V4+ 0.00484(19) 0.0083(4) 0.0058(2) 0.00091(19) 0.00224(15) 0.00219(19)
V2 V4+ 0.00484(19) 0.0083(4) 0.0058(2) 0.00091(19) 0.00224(15) 0.00219(19)
V3 V4+ 0.00522(19) 0.0126(4) 0.0054(2) -0.0012(3) 0.00240(15) -0.0024(3)
V4 V4+ 0.00522(19) 0.0126(4) 0.0054(2) -0.0012(3) 0.00240(15) -0.0024(3)
Na1 Na1+ 0.0086(4) 0.0049(3) 0.0074(4) -0.0002(4) 0.0033(3) 0.0002(3)
Na2 Na1+ 0.0097(5) 0.0286(11) 0.0088(5) -0.0001(5) 0.0039(4) -0.0009(4)
F1 F1- 0.0062(5) 0.0073(4) 0.0080(6) -0.0011(5) 0.0038(4) -0.0003(5)
F2 F1- 0.0085(7) 0.0038(5) 0.0101(7) 0.0002(5) 0.0039(5) -0.0006(5)
F3 F1- 0.0062(6) 0.0069(4) 0.0114(6) -0.0005(4) 0.0054(5) 0.0005(5)
F4 F1- 0.0075(7) 0.014(2) 0.0072(8) 0.0030(12) 0.0037(6) -0.0022(11)
F5 F1- 0.0075(7) 0.014(2) 0.0072(8) 0.0030(12) 0.0037(6) -0.0022(11)
F6 F1- 0.0110(8) 0.0202(12) 0.0115(8) 0.0002(6) 0.0058(7) 0.0006(6)
F7 F1- 0.0086(7) 0.011(2) 0.0126(8) 0.0030(12) 0.0054(6) -0.0010(13)
F8 F1- 0.0086(7) 0.011(2) 0.0126(8) 0.0030(12) 0.0054(6) -0.0010(13)
O1 O2- 0.0085(7) 0.0038(5) 0.0101(7) 0.0002(5) 0.0039(5) -0.0006(5)
O2 O2- 0.0103(10) 0.0151(17) 0.0097(10) -0.0020(12) 0.0044(8) -0.0001(12)
O3 O2- 0.0103(10) 0.0151(17) 0.0097(10) -0.0020(12) 0.0044(8) -0.0001(12)
O4 O2- 0.0110(8) 0.0202(12) 0.0115(8) 0.0002(6) 0.0058(7) 0.0006(6)
O5 O2- 0.0099(9) 0.015(3) 0.0044(9) 0.0017(15) 0.0012(7) -0.0024(14)
O6 O2- 0.0099(9) 0.015(3) 0.0044(9) 0.0017(15) 0.0012(7) -0.0024(14)
#End of TTdata_194845-ICSD