
#(C) 2019 by FIZ Karlsruhe - Leibniz Institute for Information Infrastructure.  All rights reserved.
data_195086-ICSD
_database_code_ICSD 195086
_audit_creation_date 2015-08-01
_chemical_name_systematic 'Disodium dicobalt iron(III) tris(orthophosphate)'
_chemical_formula_structural 'Na2 Co2 Fe (P O4)3'
_chemical_formula_sum 'Co2 Fe1 Na2 O12 P3'
_chemical_name_structure_type Alluaudite
_exptl_crystal_density_diffrn 3.93
_cell_measurement_temperature 296.
_publ_section_title

;
Crystal structure of disodium dicobalt(II) iron(III) tris(orthophosphate) with
an alluaudite-like structure
;
loop_
_citation_id
_citation_journal_full
_citation_year
_citation_journal_volume
_citation_page_first
_citation_page_last
_citation_journal_id_ASTM
primary 'Acta Crystallographica, Section E: Crystallographic Communications'
2015 71 558 560 ACSECI
loop_
_publ_author_name
'Bouraima, Adam'
'Assani, Abderrazzak'
'Saadi, Mohamed'
'Makani, Thomas'
'El Ammari, Lahcen'
_cell_length_a 11.7106(6)
_cell_length_b 12.4083(7)
_cell_length_c 6.4285(3)
_cell_angle_alpha 90.
_cell_angle_beta 113.959(2)
_cell_angle_gamma 90.
_cell_volume 853.62
_cell_formula_units_Z 4
_symmetry_space_group_name_H-M 'C 1 2/c 1'
_symmetry_Int_Tables_number 15
_refine_ls_R_factor_all 0.0162
loop_
_symmetry_equiv_pos_site_id
_symmetry_equiv_pos_as_xyz
1 'x, -y, z+1/2'
2 '-x, -y, -z'
3 '-x, y, -z+1/2'
4 'x, y, z'
5 'x+1/2, -y+1/2, z+1/2'
6 '-x+1/2, -y+1/2, -z'
7 '-x+1/2, y+1/2, -z+1/2'
8 'x+1/2, y+1/2, z'
loop_
_atom_type_symbol
_atom_type_oxidation_number
Fe3+ 3
Co2+ 2
P5+ 5
Na1+ 1
O2- -2
loop_
_atom_site_label
_atom_site_type_symbol
_atom_site_symmetry_multiplicity
_atom_site_Wyckoff_symbol
_atom_site_fract_x
_atom_site_fract_y
_atom_site_fract_z
_atom_site_B_iso_or_equiv
_atom_site_occupancy
_atom_site_attached_hydrogens
Fe1 Fe3+ 8 f 0.717910(14) 0.842242(12) 0.13094(2) 0.00487(5) 0.5 0
Co1 Co2+ 8 f 0.717910(14) 0.842242(12) 0.13094(2) 0.00487(5) 0.5 0
Co2 Co2+ 4 e 0.5 0.731171(18) 0.25 0.00645(5) 1 0
P1 P5+ 8 f 0.76483(3) 0.60996(2) 0.37608(4) 0.00406(6) 1 0
P2 P5+ 4 e 0.5 0.29046(3) 0.25 0.00393(7) 1 0
Na1 Na1+ 4 a 0.5 0.5 0. 0.01623(17) 1 0
Na2 Na1+ 4 e 1. 0.48710(12) 0.75 0.0343(3) 1 0
O1 O2- 8 f 0.77862(8) 0.67773(7) 0.18650(14) 0.00805(14) 1 0
O2 O2- 8 f 0.83828(8) 0.66574(7) 0.60820(14) 0.00755(14) 1 0
O3 O2- 8 f 0.82670(9) 0.49990(7) 0.38761(16) 0.00954(15) 1 0
O4 O2- 8 f 0.62676(8) 0.60150(7) 0.32737(15) 0.00871(14) 1 0
O5 O2- 8 f 0.60276(8) 0.36657(7) 0.25279(15) 0.00938(15) 1 0
O6 O2- 8 f 0.45930(8) 0.21880(7) 0.03503(13) 0.00683(13) 1 0
loop_
_atom_site_aniso_label
_atom_site_aniso_type_symbol
_atom_site_aniso_U_11
_atom_site_aniso_U_22
_atom_site_aniso_U_33
_atom_site_aniso_U_12
_atom_site_aniso_U_13
_atom_site_aniso_U_23
Fe1 Fe3+ 0.00449(7) 0.00506(7) 0.00514(7) -0.00034(4) 0.00203(5) -0.00037(4)
Co1 Co2+ 0.00449(7) 0.00506(7) 0.00514(7) -0.00034(4) 0.00203(5) -0.00037(4)
Co2 Co2+ 0.00659(9) 0.00646(9) 0.00728(9) 0. 0.00381(7) 0.
P1 P5+ 0.00506(11) 0.00343(11) 0.00348(10) -0.00004(8) 0.00150(8) -0.00003(7)
P2 P5+ 0.00357(15) 0.00423(15) 0.00352(14) 0. 0.00094(11) 0.
Na1 Na1+ 0.0262(4) 0.0032(3) 0.0068(3) 0.0017(3) -0.0061(3) 0.0008(2)
Na2 Na1+ 0.0187(5) 0.0569(8) 0.0218(5) 0. 0.0026(4) 0.
O1 O2- 0.0094(3) 0.0097(3) 0.0052(3) -0.0011(3) 0.0031(3) 0.0014(3)
O2 O2- 0.0097(3) 0.0073(3) 0.0049(3) -0.0018(3) 0.0021(3) -0.0015(2)
O3 O2- 0.0113(4) 0.0061(3) 0.0109(3) 0.0026(3) 0.0043(3) -0.0012(3)
O4 O2- 0.0057(3) 0.0080(3) 0.0124(3) -0.0002(3) 0.0037(3) 0.0002(3)
O5 O2- 0.0063(3) 0.0081(3) 0.0124(3) -0.0022(3) 0.0024(3) 0.0024(3)
O6 O2- 0.0065(3) 0.0089(3) 0.0047(3) -0.0008(3) 0.0019(2) -0.0019(2)
#End of TTdata_195086-ICSD