
#(C) 2019 by FIZ Karlsruhe - Leibniz Institute for Information Infrastructure.  All rights reserved.
data_195301-ICSD
_database_code_ICSD 195301
_audit_creation_date 2016-02-01
_chemical_name_systematic 'Disodium tripalladium bis(heptaoxodiphosphate)'
_chemical_formula_structural 'Na2 Pd3 (P2 O7)2'
_chemical_formula_sum 'Na2 O14 P4 Pd3'
_exptl_crystal_density_diffrn 3.9
_cell_measurement_temperature 293.
_publ_section_title 'Neue Phosphate der Edelmetalle'
loop_
_citation_id
_citation_journal_full
_citation_year
_citation_journal_volume
_citation_page_first
_citation_page_last
_citation_journal_id_ASTM
primary 'Dissertation Universitaet Bonn' 2009 2009 1 310 DUMMY9
loop_
_publ_author_name
'Panagiotidis, Konstantinos'
_cell_length_a 9.534(1)
_cell_length_b 9.534(1)
_cell_length_c 13.373(1)
_cell_angle_alpha 90.
_cell_angle_beta 90.
_cell_angle_gamma 90.
_cell_volume 1215.57
_cell_formula_units_Z 4
_symmetry_space_group_name_H-M 'P 4/m n c'
_symmetry_Int_Tables_number 128
_refine_ls_R_factor_all 0.052
loop_
_symmetry_equiv_pos_site_id
_symmetry_equiv_pos_as_xyz
1 'y+1/2, x+1/2, -z+1/2'
2 '-y+1/2, -x+1/2, -z+1/2'
3 '-y, x, -z'
4 'y, -x, -z'
5 'x+1/2, -y+1/2, -z+1/2'
6 '-x+1/2, y+1/2, -z+1/2'
7 'x, y, -z'
8 '-x, -y, -z'
9 '-y+1/2, -x+1/2, z+1/2'
10 'y+1/2, x+1/2, z+1/2'
11 'y, -x, z'
12 '-y, x, z'
13 '-x+1/2, y+1/2, z+1/2'
14 'x+1/2, -y+1/2, z+1/2'
15 '-x, -y, z'
16 'x, y, z'
loop_
_atom_type_symbol
_atom_type_oxidation_number
Pd2+ 2
Na1+ 1
P5+ 5
O2- -2
loop_
_atom_site_label
_atom_site_type_symbol
_atom_site_symmetry_multiplicity
_atom_site_Wyckoff_symbol
_atom_site_fract_x
_atom_site_fract_y
_atom_site_fract_z
_atom_site_B_iso_or_equiv
_atom_site_occupancy
_atom_site_attached_hydrogens
Pd1 Pd2+ 4 e 0 0 0.3163(1) 0.0093(3) 1. 0
Pd2 Pd2+ 8 h -0.5594(1) 0.1839(1) 0.5 0.0106(3) 1. 0
Na1 Na1+ 8 g -0.6139(4) 0.1139(4) 0.25 0.020(1) 1. 0
P1 P5+ 16 i -0.2702(2) 0.1519(2) 0.3939(1) 0.0090(5) 1. 0
O1 O2- 8 h -0.2199(9) 0.0916(9) 0.5 0.010(2) 1. 0
O2 O2- 16 i -0.4280(5) 0.1310(6) 0.3876(4) 0.013(1) 1. 0
O3 O2- 16 i 0.0641(6) 0.2025(6) 0.3141(4) 0.013(1) 1. 0
O4 O2- 16 i -0.6965(6) 0.2242(7) 0.3896(4) 0.015(1) 1. 0
loop_
_atom_site_aniso_label
_atom_site_aniso_type_symbol
_atom_site_aniso_U_11
_atom_site_aniso_U_22
_atom_site_aniso_U_33
_atom_site_aniso_U_12
_atom_site_aniso_U_13
_atom_site_aniso_U_23
Pd1 Pd2+ 0.0071(4) 0.0071(4) 0.0138(8) 0. 0. 0.
Pd2 Pd2+ 0.0066(6) 0.0117(6) 0.0135(5) 0.0007(4) 0. 0.
Na1 Na1+ 0.021(2) 0.021(2) 0.019(3) 0.004(2) 0.001(2) 0.001(2)
P1 P5+ 0.007(1) 0.009(1) 0.010(1) -0.001(1) 0.001(1) -0.001(1)
O1 O2- 0.004(5) 0.015(5) 0.012(4) 0.005(3) 0. 0.
O2 O2- 0.006(3) 0.020(3) 0.012(3) -0.001(2) -0.002(3) -0.001(3)
O3 O2- 0.021(3) 0.004(3) 0.015(3) -0.006(2) -0.006(3) 0.001(3)
O4 O2- 0.002(3) 0.026(4) 0.017(3) 0.006(3) -0.001(3) 0.004(3)
#End of TTdata_195301-ICSD