
#(C) 2019 by FIZ Karlsruhe - Leibniz Institute for Information Infrastructure.  All rights reserved.
data_195508-ICSD
_database_code_ICSD 195508
_audit_creation_date 2016-02-01
_chemical_name_systematic
'Tetrasodium thorium-0.8 uranium-0.2 tetrakis(tetraoxomolybdate)'
_chemical_formula_structural 'Na4 (Th0.8 U0.2) (Mo O4)4'
_chemical_formula_sum 'Mo4 Na4 O16 Th0.8 U0.2'
_chemical_name_structure_type K4Th(MoO4)4
_exptl_crystal_density_diffrn 4.12
_publ_section_title

;
Preparation and characterization of new phases in Na - (U0.5 Pu0.5) - Mo - O
and Na - (Thx U1-x) - Mo - O (x = 0.5 and 0.8) systems by X-ray and thermal
methods
;
loop_
_citation_id
_citation_journal_full
_citation_year
_citation_journal_volume
_citation_page_first
_citation_page_last
_citation_journal_id_ASTM
primary 'Radiochimica Acta' 2015 103 39 48 RAACAP
loop_
_publ_author_name
'Dahale, Nandakumar Dattatrya'
'Sali, Sanjay Krishnarao'
'Keskar, Meera Sanjay'
'Phatak, Rohan Anil'
'Kesavaiyer, Krishnan'
'Kannan, Shanmugaperumal'
_cell_length_a 11.2538(3)
_cell_length_b 11.2538(3)
_cell_length_c 12.2959(5)
_cell_angle_alpha 90.
_cell_angle_beta 90.
_cell_angle_gamma 90.
_cell_volume 1557.25
_cell_formula_units_Z 4
_symmetry_space_group_name_H-M 'I 41/a Z'
_symmetry_Int_Tables_number 88
loop_
_symmetry_equiv_pos_site_id
_symmetry_equiv_pos_as_xyz
1 '-y+3/4, x+3/4, -z+3/4'
2 'y+1/4, -x+3/4, -z+3/4'
3 'x, y+1/2, -z'
4 '-x, -y, -z'
5 'y+1/4, -x+1/4, z+1/4'
6 '-y+3/4, x+1/4, z+1/4'
7 '-x, -y+1/2, z'
8 'x, y, z'
9 '-y+1/4, x+1/4, -z+1/4'
10 'y+3/4, -x+1/4, -z+1/4'
11 'x+1/2, y, -z+1/2'
12 '-x+1/2, -y+1/2, -z+1/2'
13 'y+3/4, -x+3/4, z+3/4'
14 '-y+1/4, x+3/4, z+3/4'
15 '-x+1/2, -y, z+1/2'
16 'x+1/2, y+1/2, z+1/2'
loop_
_atom_type_symbol
_atom_type_oxidation_number
Th4+ 4
U4+ 4
Na1+ 1
Mo6+ 6
O2- -2
loop_
_atom_site_label
_atom_site_type_symbol
_atom_site_symmetry_multiplicity
_atom_site_Wyckoff_symbol
_atom_site_fract_x
_atom_site_fract_y
_atom_site_fract_z
_atom_site_B_iso_or_equiv
_atom_site_occupancy
_atom_site_attached_hydrogens
Th1 Th4+ 4 b 0.5 0.75 0.125 0.031(3) 0.8 0
U1 U4+ 4 b 0.5 0.75 0.125 0.031(3) 0.2 0
Na1 Na1+ 16 f 0.7341(14) 0.1341(12) 0.0975(11) 0.04(1) 1. 0
Mo1 Mo6+ 16 f 0.5928(3) 0.4237(3) 0.1295(3) 0.022(1) 1. 0
O1 O2- 16 f 0.5928(18) 0.5539(14) 0.0446(16) 0.057(3) 1. 0
O2 O2- 16 f 0.4648(15) 0.3738(15) 0.2065(17) 0.057(3) 1. 0
O3 O2- 16 f 0.6247(16) 0.3031(15) 0.0499(15) 0.057(3) 1. 0
O4 O2- 16 f 0.7011(16) 0.3968(19) 0.2341(17) 0.057(3) 1. 0
#End of TTdata_195508-ICSD