
#(C) 2019 by FIZ Karlsruhe - Leibniz Institute for Information Infrastructure.  All rights reserved.
data_195514-ICSD
_database_code_ICSD 195514
_audit_creation_date 2016-02-01
_chemical_name_systematic
'Sodium trimagnesium bis(hydrogen orthophosphate) orthophosphate'
_chemical_formula_structural 'Na Mg3 (H P O4)2 (P O4)'
_chemical_formula_sum 'H2 Mg3 Na1 O12 P3'
_chemical_name_structure_type AgCo3H2(PO4)3
_exptl_crystal_density_diffrn 3.
_cell_measurement_temperature 296.
_publ_section_title
'Crystal structure of alluaudite-type Na Mg3 (H P O4)2 (P O4)'
loop_
_citation_id
_citation_journal_full
_citation_year
_citation_journal_volume
_citation_page_first
_citation_page_last
_citation_journal_id_ASTM
primary 'Acta Crystallographica, Section E: Crystallographic Communications'
2015 71 813 815 ACSECI
loop_
_publ_author_name
'Saleck, Ahmed Ould'
'Assani, Abderrazzak'
'Saadi, Mohamed'
'Mercier, Cyrille'
'Follet, Claudine'
'El Ammari, Lahcen'
_cell_length_a 11.8064(6)
_cell_length_b 12.0625(7)
_cell_length_c 6.4969(4)
_cell_angle_alpha 90
_cell_angle_beta 113.805(2)
_cell_angle_gamma 90
_cell_volume 846.53
_cell_formula_units_Z 4
_symmetry_space_group_name_H-M 'C 1 2/c 1'
_symmetry_Int_Tables_number 15
_refine_ls_R_factor_all 0.025
loop_
_symmetry_equiv_pos_site_id
_symmetry_equiv_pos_as_xyz
1 'x, -y, z+1/2'
2 '-x, -y, -z'
3 '-x, y, -z+1/2'
4 'x, y, z'
5 'x+1/2, -y+1/2, z+1/2'
6 '-x+1/2, -y+1/2, -z'
7 '-x+1/2, y+1/2, -z+1/2'
8 'x+1/2, y+1/2, z'
loop_
_atom_type_symbol
_atom_type_oxidation_number
Mg2+ 2
Na1+ 1
P5+ 5
O2- -2
H1+ 1
O2- -2
loop_
_atom_site_label
_atom_site_type_symbol
_atom_site_symmetry_multiplicity
_atom_site_Wyckoff_symbol
_atom_site_fract_x
_atom_site_fract_y
_atom_site_fract_z
_atom_site_B_iso_or_equiv
_atom_site_occupancy
_atom_site_attached_hydrogens
Mg1 Mg2+ 4 e 0. 0.27947(7) 0.25 0.00857(18) 1 0
Mg2 Mg2+ 8 f 0.29000(6) 0.66219(5) 0.37489(10) 0.00643(14) 1 0
Na1 Na1+ 4 e 0.5 0.52321(14) 0.75 0.0308(4) 1 0
P1 P5+ 4 e 0. 0.68659(5) 0.25 0.00564(14) 1 0
P2 P5+ 8 f 0.28093(4) 0.38887(3) 0.38603(7) 0.00494(11) 1 0
O1 O2- 8 f 0.03662(11) 0.75858(10) 0.4624(2) 0.0078(2) 1 0
O2 O2- 8 f 0.10795(12) 0.61003(10) 0.2634(2) 0.0084(2) 1 0
O3 O2- 8 f 0.34567(12) 0.32859(10) 0.6116(2) 0.0073(2) 1 0
O4 O2- 8 f 0.14051(11) 0.40754(10) 0.3420(2) 0.0085(2) 1 0
H1 H1+ 8 f 0.1241 0.4816 0.3033 0.013 1 0
O5 O2- 8 f 0.28443(11) 0.32046(10) 0.1916(2) 0.0068(2) 1 0
O6 O2- 8 f 0.34273(12) 0.50140(10) 0.4000(2) 0.0076(2) 1 0
loop_
_atom_site_aniso_label
_atom_site_aniso_type_symbol
_atom_site_aniso_U_11
_atom_site_aniso_U_22
_atom_site_aniso_U_33
_atom_site_aniso_U_12
_atom_site_aniso_U_13
_atom_site_aniso_U_23
Mg1 Mg2+ 0.0081(4) 0.0088(4) 0.0094(4) 0. 0.0041(3) 0.
Mg2 Mg2+ 0.0073(3) 0.0057(3) 0.0067(3) 0.0004(2) 0.0031(2) 0.0001(2)
Na1 Na1+ 0.0118(6) 0.0691(11) 0.0091(6) 0. 0.0016(5) 0.
P1 P5+ 0.0051(3) 0.0063(3) 0.0044(3) 0. 0.0007(2) 0.
P2 P5+ 0.0060(2) 0.00431(19) 0.0043(2) -0.00006(14) 0.00177(16) -0.00011(14)
O1 O2- 0.0063(6) 0.0110(5) 0.0054(5) -0.0010(4) 0.0014(5) -0.0022(4)
O2 O2- 0.0060(6) 0.0073(5) 0.0114(6) 0.0010(4) 0.0031(5) -0.0007(4)
O3 O2- 0.0086(6) 0.0080(5) 0.0049(5) 0.0020(4) 0.0024(5) 0.0016(4)
O4 O2- 0.0073(6) 0.0058(5) 0.0131(6) 0.0009(4) 0.0048(5) 0.0004(5)
O5 O2- 0.0077(6) 0.0077(5) 0.0052(5) 0.0003(4) 0.0028(5) -0.0009(4)
O6 O2- 0.0083(6) 0.0051(5) 0.0093(6) -0.0014(4) 0.0035(5) -0.0002(4)
#End of TTdata_195514-ICSD