
#(C) 2019 by FIZ Karlsruhe - Leibniz Institute for Information Infrastructure.  All rights reserved.
data_195511-ICSD
_database_code_ICSD 195511
_audit_creation_date 2016-02-01
_chemical_name_systematic 'Disodium tetraoxomolybdate bis(dideuteriohydrate)'
_chemical_formula_structural 'Na2 (Mo O4) (D2 O)2'
_chemical_formula_sum 'D4 Mo1 Na2 O6'
_chemical_name_structure_type Na2MoO4(H2O)2
_exptl_crystal_density_diffrn 2.64
_cell_measurement_temperature 295.
_publ_section_title

;
Crystal structures of deuterated sodium molybdate dihydrate and sodium
tungstate dihydrate from time-of-flight neutron powder diffraction
;
loop_
_citation_id
_citation_journal_full
_citation_year
_citation_journal_volume
_citation_page_first
_citation_page_last
_citation_journal_id_ASTM
primary 'Acta Crystallographica, Section E: Crystallographic Communications'
2015 71 799 806 ACSECI
loop_
_publ_author_name
'Fortes, A. Dominic'
_cell_length_a 8.482961(14)
_cell_length_b 10.566170(17)
_cell_length_c 13.83195(3)
_cell_angle_alpha 90.
_cell_angle_beta 90.
_cell_angle_gamma 90.
_cell_volume 1239.8
_cell_formula_units_Z 8
_symmetry_space_group_name_H-M 'P b c a'
_symmetry_Int_Tables_number 61
_refine_ls_R_factor_all 0.007
loop_
_symmetry_equiv_pos_site_id
_symmetry_equiv_pos_as_xyz
1 'x+1/2, y, -z+1/2'
2 'x, -y+1/2, z+1/2'
3 '-x+1/2, y+1/2, z'
4 '-x, -y, -z'
5 '-x+1/2, -y, z+1/2'
6 '-x, y+1/2, -z+1/2'
7 'x+1/2, -y+1/2, -z'
8 'x, y, z'
loop_
_atom_type_symbol
_atom_type_oxidation_number
Mo6+ 6
Na1+ 1
O2- -2
D1+ 1
loop_
_atom_site_label
_atom_site_type_symbol
_atom_site_symmetry_multiplicity
_atom_site_Wyckoff_symbol
_atom_site_fract_x
_atom_site_fract_y
_atom_site_fract_z
_atom_site_B_iso_or_equiv
_atom_site_occupancy
_atom_site_attached_hydrogens
Mo1 Mo6+ 8 c 0.51477(10) 0.80193(8) 0.52313(8) 0.01137 1. 0
Na1 Na1+ 8 c 0.3438(3) 0.4964(2) 0.58515(17) 0.02371 1. 0
Na2 Na1+ 8 c 0.7433(2) 0.5509(2) 0.64802(16) 0.0216 1. 0
O1 O2- 8 c 0.45103(15) 0.82353(12) 0.40216(9) 0.01917 1. 0
O2 O2- 8 c 0.55667(15) 0.64011(10) 0.54111(10) 0.01665 1. 0
O3 O2- 8 c 0.68676(15) 0.89087(11) 0.53936(11) 0.02282 1. 0
O4 O2- 8 c 0.37187(15) 0.85121(12) 0.60907(10) 0.0194 1. 0
O5 O2- 8 c 0.53793(19) 0.40846(16) 0.70077(14) 0.0252 1. 0
O6 O2- 8 c 0.2281(2) 0.64176(17) 0.70081(11) 0.02505 1. 0
D1 D1+ 8 c 0.5576(2) 0.32908(18) 0.66668(13) 0.03656 1. 0
D2 D1+ 8 c 0.5585(2) 0.39149(15) 0.76825(14) 0.03068 1. 0
D3 D1+ 8 c 0.1235(2) 0.64696(14) 0.67235(12) 0.03034 1. 0
D4 D1+ 8 c 0.27890(19) 0.71840(16) 0.67765(12) 0.03232 1. 0
loop_
_atom_site_aniso_label
_atom_site_aniso_type_symbol
_atom_site_aniso_U_11
_atom_site_aniso_U_22
_atom_site_aniso_U_33
_atom_site_aniso_U_12
_atom_site_aniso_U_13
_atom_site_aniso_U_23
Mo1 Mo6+ 0.0103(6) 0.0083(5) 0.0156(6) 0.0001(4) 0.0009(5) 0.0003(5)
Na1 Na1+ 0.0249(13) 0.0213(11) 0.0250(15) -0.0011(10) 0.0026(10) 0.0012(9)
Na2 Na1+ 0.0196(12) 0.0180(12) 0.0272(14) -0.0037(9) 0.0008(9) -0.0006(10)
O1 O2- 0.0188(7) 0.0191(7) 0.0196(8) 0.0025(6) 0.0004(6) 0.0017(6)
O2 O2- 0.0161(6) 0.0086(6) 0.0252(8) -0.0008(6) -0.0019(6) 0.0017(6)
O3 O2- 0.0197(7) 0.0199(7) 0.0289(9) -0.0079(6) -0.0020(6) -0.0022(7)
O4 O2- 0.0187(6) 0.0163(6) 0.0233(8) 0.0040(6) 0.0050(6) -0.0011(6)
O5 O2- 0.0272(9) 0.0207(9) 0.0277(10) -0.0006(7) -0.0036(8) 0.0001(8)
O6 O2- 0.0264(9) 0.0257(9) 0.0231(10) -0.0018(8) -0.0031(7) 0.0060(7)
D1 D1+ 0.0432(11) 0.0272(9) 0.0393(11) 0.0030(8) -0.0107(9) -0.0006(9)
D2 D1+ 0.0399(9) 0.0292(8) 0.0229(8) 0.0008(8) -0.0003(8) 0.0027(8)
D3 D1+ 0.0233(9) 0.0340(9) 0.0337(9) 0.0004(7) -0.0062(8) 0.0030(8)
D4 D1+ 0.0338(10) 0.0248(8) 0.0384(12) -0.0056(8) -0.0024(8) 0.0028(8)
#End of TTdata_195511-ICSD