
#(C) 2019 by FIZ Karlsruhe - Leibniz Institute for Information Infrastructure.  All rights reserved.
data_195625-ICSD
_database_code_ICSD 195625
_audit_creation_date 2016-02-01
_chemical_name_systematic 'Sodium lithium zirconium 15-oxohexasilicate'
_chemical_formula_structural 'Na Li Zr (Si6 O15)'
_chemical_formula_sum 'Li1 Na1 O15 Si6 Zr1'
_chemical_name_mineral Zektzerite
_exptl_crystal_density_diffrn 2.74
_cell_measurement_temperature 1323.
_publ_section_title

;
A first-order phase transition in zektzerite, Na Li Zr Si6 O15:
high-temperature single-crystal X-ray diffraction study
;
loop_
_citation_id
_citation_journal_full
_citation_year
_citation_journal_volume
_citation_page_first
_citation_page_last
_citation_journal_id_ASTM
primary 'Physics and Chemistry of Minerals' 2015 42 747 759 PCMIDU
loop_
_publ_author_name
'Shaikh, A.M.'
'Ghose, Subrata'
_cell_length_a 14.423(4)
_cell_length_b 17.503(4)
_cell_length_c 10.165(2)
_cell_angle_alpha 90.
_cell_angle_beta 90.
_cell_angle_gamma 90.
_cell_volume 2566.11
_cell_formula_units_Z 8
_symmetry_space_group_name_H-M 'C m c a'
_symmetry_Int_Tables_number 64
loop_
_symmetry_equiv_pos_site_id
_symmetry_equiv_pos_as_xyz
1 '-x, -y+1/2, z+1/2'
2 '-x, y+1/2, -z+1/2'
3 '-x, y, z'
4 '-x, -y, -z'
5 'x, y+1/2, -z+1/2'
6 'x, -y+1/2, z+1/2'
7 'x, -y, -z'
8 'x, y, z'
9 '-x+1/2, -y, z+1/2'
10 '-x+1/2, y, -z+1/2'
11 '-x+1/2, y+1/2, z'
12 '-x+1/2, -y+1/2, -z'
13 'x+1/2, y, -z+1/2'
14 'x+1/2, -y, z+1/2'
15 'x+1/2, -y+1/2, -z'
16 'x+1/2, y+1/2, z'
loop_
_atom_type_symbol
_atom_type_oxidation_number
Na1+ 1
Li1+ 1
Zr4+ 4
Si4+ 4
O2- -2
loop_
_atom_site_label
_atom_site_type_symbol
_atom_site_symmetry_multiplicity
_atom_site_Wyckoff_symbol
_atom_site_fract_x
_atom_site_fract_y
_atom_site_fract_z
_atom_site_B_iso_or_equiv
_atom_site_occupancy
_atom_site_attached_hydrogens
Na1 Na1+ 8 e 0.25 0.2219(6) 0.25 . 0.65 0
Na2 Na1+ 8 f 0 0.4170(22) 0.2494(47) . 0.35 0
Li1 Li1+ 8 d 0.2539(50) 0 0 . 1. 0
Zr1 Zr4+ 8 e 0.25 -0.08490(7) 0.25 . 1. 0
Si1 Si4+ 16 g 0.39169(25) 0.13272(16) 0.01666(28) . 1. 0
Si2 Si4+ 16 g 0.39168(27) 0.07390(17) 0.30857(30) . 1. 0
Si3 Si4+ 16 g 0.39108(25) 0.19147(17) 0.54137(28) . 1. 0
O1 O2- 16 g 0.36721(76) 0.22286(43) -0.00059(88) . 1. 0
O2 O2- 16 g 0.33236(70) 0.08308(45) -0.08102(77) . 1. 0
O3 O2- 16 g 0.36711(76) 0.11114(58) 0.16914(82) . 1. 0
O4 O2- 16 g 0.33245(69) 0.00074(48) 0.33509(81) . 1. 0
O5 O2- 16 g 0.36485(75) 0.13943(47) 0.41377(86) . 1. 0
O6 O2- 16 g 0.33291(75) 0.16797(47) 0.66423(76) . 1. 0
O7 O2- 8 f 0.5 0.12023(82) -0.0088(14) . 1. 0
O8 O2- 8 f 0.5 0.05355(85) 0.3160(16) . 1. 0
O9 O2- 8 f 0.5 0.18411(84) 0.5723(14) . 1. 0
loop_
_atom_site_aniso_label
_atom_site_aniso_type_symbol
_atom_site_aniso_beta_11
_atom_site_aniso_beta_22
_atom_site_aniso_beta_33
_atom_site_aniso_beta_12
_atom_site_aniso_beta_13
_atom_site_aniso_beta_23
Na1 Na1+ 0.0102(11) 0.00197(35) 0.02761(25) 0. 0.0095(17) 0.
Na2 Na1+ 0.0083(12) 0.0089(18) 0.0256(52) 0. -0.0004(32) 0.
Li1 Li1+ 0.0099(32) 0.0058(16) 0.0156(49) 0. 0. 0.0020(24)
Zr1 Zr4+ 0.00313(8) 0.00167(4) 0.00465(13) 0. -0.00004(12) 0.
Si1 Si4+ 0.00330(19) 0.00190(11) 0.00424(28) -0.00020(12) -0.00034(20)
-0.00008(14)
Si2 Si4+ 0.00305(18) 0.00195(10) 0.00496(28) -0.00035(13) -0.00019(20)
-0.00027(14)
Si3 Si4+ 0.00338(19) 0.00165(10) 0.00481(28) -0.00021(11) 0.00042(20)
-0.00020(15)
O1 O2- 0.00863(80) 0.00162(29) 0.01099(15) 0.00021(36) -0.00150(70) 0.00079(49)
O2 O2- 0.00546(55) 0.00340(31) 0.00617(80) -0.00068(39) -0.00282(61) 0.00013(41)
O3 O2- 0.00757(76) 0.00487(42) 0.00556(91) -0.00010(49) 0.00047(62) 0.00187(54)
O4 O2- 0.00560(57) 0.00266(29) 0.00857(96) -0.00153(41) -0.00088(66)
-0.00031(40)
O5 O2- 0.00668(71) 0.00295(33) 0.00806(92) 0.00000(37) 0.00002(68) -0.00212(48)
O6 O2- 0.00543(59) 0.00347(34) 0.00762(95) -0.00154(40) 0.00247(62) 0.00016(44)
O7 O2- 0.00393(84) 0.00435(60) 0.0173(20) 0. 0. -0.00014(96)
O8 O2- 0.00368(79) 0.00521(63) 0.0122(16) 0. 0. 0.00026(84)
O9 O2- 0.00180(26) 0.00400(31) 0.0130(10) 0. 0. 0.00065(45)
#End of TTdata_195625-ICSD