
#(C) 2019 by FIZ Karlsruhe - Leibniz Institute for Information Infrastructure.  All rights reserved.
data_195621-ICSD
_database_code_ICSD 195621
_audit_creation_date 2016-02-01
_chemical_name_systematic 'Sodium lithium zirconium pentadecaoxohexasilicate'
_chemical_formula_structural 'Na Li Zr (Si6 O15)'
_chemical_formula_sum 'Li1 Na1 O15 Si6 Zr1'
_chemical_name_structure_type Tuhualite
_chemical_name_mineral Zektzerite
_exptl_crystal_density_diffrn 2.79
_cell_measurement_temperature 300.
_publ_section_title

;
A first-order phase transition in zektzerite, Na Li Zr Si6 O15:
high-temperature single-crystal X-ray diffraction study
;
loop_
_citation_id
_citation_journal_full
_citation_year
_citation_journal_volume
_citation_page_first
_citation_page_last
_citation_journal_id_ASTM
primary 'Physics and Chemistry of Minerals' 2015 42 747 759 PCMIDU
loop_
_publ_author_name
'Shaikh, A.M.'
'Ghose, Subrata'
_cell_length_a 14.318(3)
_cell_length_b 17.358(4)
_cell_length_c 10.161(2)
_cell_angle_alpha 90.
_cell_angle_beta 90.
_cell_angle_gamma 90.
_cell_volume 2525.33
_cell_formula_units_Z 8
_symmetry_space_group_name_H-M 'C m c a'
_symmetry_Int_Tables_number 64
loop_
_symmetry_equiv_pos_site_id
_symmetry_equiv_pos_as_xyz
1 '-x, -y+1/2, z+1/2'
2 '-x, y+1/2, -z+1/2'
3 '-x, y, z'
4 '-x, -y, -z'
5 'x, y+1/2, -z+1/2'
6 'x, -y+1/2, z+1/2'
7 'x, -y, -z'
8 'x, y, z'
9 '-x+1/2, -y, z+1/2'
10 '-x+1/2, y, -z+1/2'
11 '-x+1/2, y+1/2, z'
12 '-x+1/2, -y+1/2, -z'
13 'x+1/2, y, -z+1/2'
14 'x+1/2, -y, z+1/2'
15 'x+1/2, -y+1/2, -z'
16 'x+1/2, y+1/2, z'
loop_
_atom_type_symbol
_atom_type_oxidation_number
Na1+ 1
Li1+ 1
Zr4+ 4
Si4+ 4
O2- -2
loop_
_atom_site_label
_atom_site_type_symbol
_atom_site_symmetry_multiplicity
_atom_site_Wyckoff_symbol
_atom_site_fract_x
_atom_site_fract_y
_atom_site_fract_z
_atom_site_B_iso_or_equiv
_atom_site_occupancy
_atom_site_attached_hydrogens
Na1 Na1+ 8 e 0.25 0.21638(11) 0.25 . 1. 0
Li1 Li1+ 8 d 0.2475(5) 0 0 . 1. 0
Zr1 Zr4+ 8 e 0.25 -0.08809(2) 0.25 . 1. 0
Si1 Si4+ 16 g 0.39093(5) 0.12864(4) 0.01818(6) . 1. 0
Si2 Si4+ 16 g 0.38969(5) 0.07317(4) 0.31150(6) . 1. 0
Si3 Si4+ 16 g 0.39086(5) 0.19290(4) 0.54137(6) . 1. 0
O1 O2- 16 g 0.37066(16) 0.21956(11) -0.00590(20) . 1. 0
O2 O2- 16 g 0.32807(14) 0.07850(10) -0.07843(18) . 1. 0
O3 O2- 16 g 0.36157(15) 0.11149(12) 0.17073(18) . 1. 0
O4 O2- 16 g 0.33000(17) -0.00219(11) 0.34100(18) . 1. 0
O5 O2- 16 g 0.36057(15) 0.14030(11) 0.41647(19) . 1. 0
O6 O2- 16 g 0.32971(14) 0.17408(11) 0.66839(18) . 1. 0
O7 O2- 8 f 0.5 0.11028(19) -0.00095(31) . 1. 0
O8 O2- 8 f 0.5 0.05681(17) 0.31736(30) . 1. 0
O9 O2- 8 f 0.5 0.18175(19) 0.57072(30) . 1. 0
loop_
_atom_site_aniso_label
_atom_site_aniso_type_symbol
_atom_site_aniso_beta_11
_atom_site_aniso_beta_22
_atom_site_aniso_beta_33
_atom_site_aniso_beta_12
_atom_site_aniso_beta_13
_atom_site_aniso_beta_23
Na1 Na1+ 0.00296(10) 0.00087(5) 0.00742(21) 0. 0.00206(13) 0.
Li1 Li1+ 0.0016(3) 0.0009(2) 0.0019(5) 0. 0. 0.0004(2)
Zr1 Zr4+ 0.00087(1) 0.00034(1) 0.00038(2) 0. 0.00001(1) 0.
Si1 Si4+ 0.00094(3) 0.00048(2) 0.00080(2) -0.00006(2) -0.00007(3) 0.00000(2)
Si2 Si4+ 0.00094(3) 0.00049(2) 0.00069(5) -0.00008(2) -0.00001(3) -0.00008(7)
Si3 Si4+ 0.00097(3) 0.00044(2) 0.00082(5) -0.00003(2) 0.00010(3) -0.00007(2)
O1 O2- 0.00270(10) 0.00061(5) 0.00231(16) 0.00006(6) -0.00033(11) -0.00009(7)
O2 O2- 0.00137(8) 0.00068(5) 0.00122(13) -0.00024(5) -0.00035(9) 0.00004(7)
O3 O2- 0.00169(9) 0.00113(6) 0.00117(14) 0.00008(6) -0.00010(9) 0.00027(7)
O4 O2- 0.00140(7) 0.00058(5) 0.00138(14) -0.00027(5) 0.00013(9) -0.00015(6)
O5 O2- 0.00183(9) 0.00081(5) 0.00175(14) -0.00006(6) -0.00011(9) -0.00059(7)
O6 O2- 0.00152(8) 0.00077(5) 0.00149(14) -0.00027(5) 0.00046(9) -0.00008(7)
O7 O2- 0.00098(11) 0.00172(10) 0.00290(24) 0. 0. -0.00047
O8 O2- 0.00084(11) 0.00123(9) 0.00334(25) 0. 0. -0.00003(12)
O9 O2- 0.00080(11) 0.00167(10) 0.00306(24) 0. 0. 0.00010(13)
#End of TTdata_195621-ICSD