
#(C) 2019 by FIZ Karlsruhe - Leibniz Institute for Information Infrastructure.  All rights reserved.
data_195779-ICSD
_database_code_ICSD 195779
_audit_creation_date 2016-02-01
_chemical_name_systematic
'Hexasodium decahydrogen bis(24-oxo-hexamolybdoplatinate(IV)) 29-hydrate'
_chemical_formula_structural 'Na6 (H5.5 Pt Mo6 O24) (H4.5 Pt Mo6 O24) (H2 O)29'
_chemical_formula_sum 'H68 Mo12 Na6 O77 Pt2'
_exptl_crystal_density_diffrn 2.89
_cell_measurement_temperature 173.
_publ_section_title

;
Double salt crystal structure of hexasodium hemiundecahydrogen
alpha-hexamolybdoplatinate(IV) heminonahydrogen alpha-hexamolybdoplatinate(IV)
nonacosahydrate: dihydrogen disordered-mixture double salt
;
loop_
_citation_id
_citation_journal_full
_citation_year
_citation_journal_volume
_citation_page_first
_citation_page_last
_citation_journal_id_ASTM
primary 'Acta Crystallographica, Section E: Crystallographic Communications'
2015 71 1250 1254 ACSECI
loop_
_publ_author_name
'Joo, Hea-Chung'
'Park, Ki-Min'
'Lee, Uk'
_cell_length_a 14.0384(6)
_cell_length_b 15.7969(6)
_cell_length_c 16.7235(6)
_cell_angle_alpha 72.825(2)
_cell_angle_beta 75.522(2)
_cell_angle_gamma 89.168(2)
_cell_volume 3423.69
_cell_formula_units_Z 2
_symmetry_space_group_name_H-M 'P -1'
_symmetry_Int_Tables_number 2
_refine_ls_R_factor_all 0.0357
loop_
_symmetry_equiv_pos_site_id
_symmetry_equiv_pos_as_xyz
1 '-x, -y, -z'
2 'x, y, z'
loop_
_atom_type_symbol
_atom_type_oxidation_number
Pt4+ 4
Mo6+ 6
Na1+ 1
O2- -2
H1+ 1
O2- -2
H1+ 1
O2- -2
H1+ 1
O2- -2
H1+ 1
O2- -2
H1+ 1
O2- -2
H1+ 1
O2- -2
H1+ 1
O2- -2
H1+ 1
O2- -2
H1+ 1
O2- -2
H1+ 1
O2- -2
H1+ 1
O2- -2
H1+ 1
O2- -2
H1+ 1
O2- -2
H1+ 1
O2- -2
H1+ 1
O2- -2
H1+ 1
O2- -2
H1+ 1
O2- -2
H1+ 1
O2- -2
H1+ 1
O2- -2
H1+ 1
O2- -2
H1+ 1
O2- -2
H1+ 1
O2- -2
H1+ 1
O2- -2
H1+ 1
O2- -2
H1+ 1
O2- -2
H1+ 1
O2- -2
H1+ 1
O2- -2
H1+ 1
O2- -2
H1+ 1
O2- -2
H1+ 1
O2- -2
H1+ 1
O2- -2
H1+ 1
O2- -2
H1+ 1
O2- -2
H1+ 1
O2- -2
H1+ 1
O2- -2
H1+ 1
O2- -2
H1+ 1
O2- -2
H1+ 1
O2- -2
H1+ 1
O2- -2
H1+ 1
loop_
_atom_site_label
_atom_site_type_symbol
_atom_site_symmetry_multiplicity
_atom_site_Wyckoff_symbol
_atom_site_fract_x
_atom_site_fract_y
_atom_site_fract_z
_atom_site_B_iso_or_equiv
_atom_site_occupancy
_atom_site_attached_hydrogens
Pt1 Pt4+ 2 i 0.37861(2) 0.80827(2) 0.33415(2) 0.00743(6) 1 0
Pt2 Pt4+ 2 i 0.13101(2) 0.69756(2) 0.15934(2) 0.00734(6) 1 0
Mo1 Mo6+ 2 i 0.48088(3) 0.73755(3) 0.17456(2) 0.01032(9) 1 0
Mo2 Mo6+ 2 i 0.38120(3) 0.92698(3) 0.13444(2) 0.01043(9) 1 0
Mo3 Mo6+ 2 i 0.27924(3) 1.00756(3) 0.29553(3) 0.01189(9) 1 0
Mo4 Mo6+ 2 i 0.27941(3) 0.89367(3) 0.49832(2) 0.01226(9) 1 0
Mo5 Mo6+ 2 i 0.37444(3) 0.69579(3) 0.54288(2) 0.01302(9) 1 0
Mo6 Mo6+ 2 i 0.47496(3) 0.61324(3) 0.38076(3) 0.01233(9) 1 0
Mo7 Mo6+ 2 i 0.02597(3) 0.89077(3) 0.11926(3) 0.01261(9) 1 0
Mo8 Mo6+ 2 i 0.12559(3) 0.81350(3) -0.04502(2) 0.01205(9) 1 0
Mo9 Mo6+ 2 i 0.22090(3) 0.61525(3) -0.00919(2) 0.01097(9) 1 0
Mo10 Mo6+ 2 i 0.21502(3) 0.49586(3) 0.19550(2) 0.01178(9) 1 0
Mo11 Mo6+ 2 i 0.12327(3) 0.56971(3) 0.35600(2) 0.01106(9) 1 0
Mo12 Mo6+ 2 i 0.02151(3) 0.76546(3) 0.32235(2) 0.01089(9) 1 0
Na1 Na1+ 2 i 0.23742(14) 0.46059(13) 0.69299(12) 0.0204(4) 1 0
Na2 Na1+ 2 i 0.23737(13) 0.33338(13) 0.89570(12) 0.0215(4) 1 0
Na3 Na1+ 2 i 0.00711(13) 1.06967(13) 0.39992(12) 0.0207(4) 1 0
Na4 Na1+ 2 i 0.02805(15) 1.23682(14) 0.20474(13) 0.0312(5) 1 0
Na5 Na1+ 2 i 0.25851(14) 1.04851(13) -0.20594(12) 0.0197(4) 1 0
Na6 Na1+ 2 i 0.50542(14) 0.56953(15) -0.10815(14) 0.0302(5) 1 0
O1 O2- 2 i 0.4984(2) 0.7498(2) 0.29268(19) 0.0093(6) 1 0
O2 O2- 2 i 0.3429(2) 0.7918(2) 0.2319(2) 0.0114(7) 1 0
H1 H1+ 2 i 0.302(6) 0.750(4) 0.236(6) 0.017 0.5 0
O3 O2- 2 i 0.4185(2) 0.9314(2) 0.25614(19) 0.0098(7) 1 0
H2 H1+ 2 i 0.470(2) 0.958(3) 0.260(3) 0.015 1 0
O4 O2- 2 i 0.2544(2) 0.8638(2) 0.3794(2) 0.0116(7) 1 0
H3 H1+ 2 i 0.199(2) 0.840(3) 0.382(3) 0.017 1 0
O5 O2- 2 i 0.4156(2) 0.8287(2) 0.43710(19) 0.0117(7) 1 0
H4 H1+ 2 i 0.471(2) 0.858(3) 0.423(3) 0.018 1 0
O6 O2- 2 i 0.3372(2) 0.6876(2) 0.4153(2) 0.0115(7) 1 0
H5 H1+ 2 i 0.283(2) 0.664(3) 0.415(3) 0.017 1 0
O7 O2- 2 i 0.4252(2) 0.6188(2) 0.2725(2) 0.0165(7) 1 0
H6 H1+ 2 i 0.372(3) 0.593(3) 0.275(3) 0.025 1 0
O8 O2- 2 i 0.5009(2) 0.8611(2) 0.12156(19) 0.0137(7) 1 0
O9 O2- 2 i 0.2635(2) 0.9556(2) 0.20675(19) 0.0146(7) 1 0
O10 O2- 2 i 0.3285(2) 0.9949(2) 0.3959(2) 0.0157(7) 1 0
O11 O2- 2 i 0.2613(2) 0.7673(2) 0.54830(19) 0.0155(7) 1 0
O12 O2- 2 i 0.4894(2) 0.6608(2) 0.4697(2) 0.0144(7) 1 0
O13 O2- 2 i 0.5925(2) 0.5883(2) 0.3436(2) 0.0215(8) 1 0
O14 O2- 2 i 0.4079(3) 0.5158(2) 0.4360(2) 0.0232(8) 1 0
O15 O2- 2 i 0.5986(2) 0.7061(2) 0.1477(2) 0.0187(8) 1 0
O16 O2- 2 i 0.4206(2) 0.7054(2) 0.1085(2) 0.0165(7) 1 0
O17 O2- 2 i 0.3308(2) 0.9010(2) 0.0596(2) 0.0163(7) 1 0
O18 O2- 2 i 0.4392(2) 1.0292(2) 0.0834(2) 0.0199(8) 1 0
O19 O2- 2 i 0.3365(3) 1.1085(2) 0.2315(2) 0.0230(8) 1 0
O20 O2- 2 i 0.1590(2) 1.0260(2) 0.3325(2) 0.0228(8) 1 0
O21 O2- 2 i 0.1608(2) 0.9179(2) 0.5323(2) 0.0250(9) 1 0
O22 O2- 2 i 0.3430(3) 0.9230(2) 0.5618(2) 0.0225(8) 1 0
O23 O2- 2 i 0.4295(3) 0.7258(3) 0.6111(2) 0.0262(9) 1 0
O24 O2- 2 i 0.3127(3) 0.5959(2) 0.5988(2) 0.0247(8) 1 0
O25 O2- 2 i 0.0097(2) 0.7540(2) 0.20418(19) 0.0101(7) 1 0
O26 O2- 2 i 0.1662(2) 0.8208(2) 0.0782(2) 0.0107(7) 1 0
H7 H1+ 2 i 0.220(2) 0.846(3) 0.073(3) 0.016 1 0
O27 O2- 2 i 0.0895(2) 0.6796(2) 0.05850(19) 0.0106(7) 1 0
H8 H1+ 2 i 0.030(2) 0.655(3) 0.075(3) 0.016 1 0
O28 O2- 2 i 0.2520(2) 0.6413(2) 0.1108(2) 0.0103(7) 1 0
H9 H1+ 2 i 0.311(2) 0.654(3) 0.111(3) 0.015 1 0
O29 O2- 2 i 0.0931(2) 0.5750(2) 0.23650(19) 0.0108(7) 1 0
O30 O2- 2 i 0.1708(2) 0.7142(2) 0.26046(19) 0.0119(7) 1 0
H10 H1+ 2 i 0.224(4) 0.744(5) 0.250(6) 0.018 0.5 0
O31 O2- 2 i 0.0771(2) 0.8849(2) 0.2266(2) 0.0165(7) 1 0
H11 H1+ 2 i 0.129(3) 0.910(3) 0.223(3) 0.025 1 0
O32 O2- 2 i 0.0110(2) 0.8455(2) 0.0295(2) 0.0150(7) 1 0
O33 O2- 2 i 0.2413(2) 0.7429(2) -0.05672(19) 0.0144(7) 1 0
O34 O2- 2 i 0.1690(2) 0.5144(2) 0.09047(19) 0.0141(7) 1 0
O35 O2- 2 i 0.2443(2) 0.5361(2) 0.28926(19) 0.0147(7) 1 0
O36 O2- 2 i 0.0079(2) 0.6417(2) 0.36859(19) 0.0132(7) 1 0
O37 O2- 2 i -0.0955(2) 0.7942(2) 0.3539(2) 0.0219(8) 1 0
O38 O2- 2 i 0.0849(2) 0.7958(2) 0.3885(2) 0.0180(8) 1 0
O39 O2- 2 i -0.0918(3) 0.9120(3) 0.1604(2) 0.0251(9) 1 0
O40 O2- 2 i 0.0901(3) 0.9901(2) 0.0659(2) 0.0265(9) 1 0
O41 O2- 2 i 0.1871(3) 0.9132(2) -0.1021(2) 0.0230(8) 1 0
O42 O2- 2 i 0.0681(3) 0.7831(2) -0.1111(2) 0.0219(8) 1 0
O43 O2- 2 i 0.1597(2) 0.5900(2) -0.0772(2) 0.0198(8) 1 0
O44 O2- 2 i 0.3380(2) 0.5884(2) -0.0418(2) 0.0210(8) 1 0
O45 O2- 2 i 0.3332(3) 0.4717(2) 0.1580(2) 0.0233(8) 1 0
O46 O2- 2 i 0.1507(3) 0.3978(2) 0.2531(2) 0.0264(8) 1 0
O47 O2- 2 i 0.0646(2) 0.4688(2) 0.4142(2) 0.0200(8) 1 0
O48 O2- 2 i 0.1785(2) 0.6017(2) 0.4253(2) 0.0169(7) 1 0
O49 O2- 2 i 0.1853(3) 0.4397(3) 0.5748(2) 0.0277(9) 1 0
H12 H1+ 2 i 0.124(2) 0.419(3) 0.591(3) 0.042 1 0
H13 H1+ 2 i 0.195(4) 0.479(3) 0.527(2) 0.042 1 0
O50 O2- 2 i 0.2834(3) 0.4879(3) 0.8111(2) 0.0258(9) 1 0
H14 H1+ 2 i 0.344(2) 0.506(3) 0.800(3) 0.039 1 0
H15 H1+ 2 i 0.251(3) 0.524(3) 0.837(3) 0.039 1 0
O51 O2- 2 i -0.0402(3) 0.9185(2) 0.4682(2) 0.0248(8) 1 0
H16 H1+ 2 i -0.1018(19) 0.904(4) 0.473(3) 0.037 1 0
H17 H1+ 2 i -0.003(3) 0.883(3) 0.447(4) 0.037 1 0
O52 O2- 2 i 0.0692(3) 0.2145(3) 0.3358(3) 0.0327(9) 1 0
H18 H1+ 2 i 0.131(2) 0.221(4) 0.336(4) 0.049 1 0
H19 H1+ 2 i 0.035(3) 0.245(4) 0.362(4) 0.049 1 0
O53 O2- 2 i 0.5335(3) 0.5855(3) 0.0218(3) 0.0339(10) 1 0
H20 H1+ 2 i 0.500(3) 0.621(3) 0.046(4) 0.051 1 0
H21 H1+ 2 i 0.591(2) 0.601(4) 0.007(4) 0.051 1 0
O54 O2- 2 i 0.1875(3) 0.3127(2) 0.7759(2) 0.0207(8) 1 0
H22 H1+ 2 i 0.1274(19) 0.292(3) 0.790(3) 0.031 1 0
H23 H1+ 2 i 0.225(3) 0.273(3) 0.760(3) 0.031 1 0
O55 O2- 2 i 0.1841(3) 0.1846(3) 0.9808(3) 0.0267(9) 1 0
H24 H1+ 2 i 0.221(3) 0.151(3) 0.959(4) 0.04 1 0
H25 H1+ 2 i 0.126(2) 0.175(4) 0.982(4) 0.04 1 0
O56 O2- 2 i 0.2657(3) 0.3672(2) 1.0195(2) 0.0254(8) 1 0
H26 H1+ 2 i 0.247(4) 0.411(2) 1.040(3) 0.038 1 0
H27 H1+ 2 i 0.239(4) 0.320(2) 1.061(3) 0.038 1 0
O57 O2- 2 i 0.1896(3) 0.2051(3) 0.1354(3) 0.0366(10) 1 0
H28 H1+ 2 i 0.229(4) 0.180(4) 0.162(3) 0.055 1 0
H29 H1+ 2 i 0.184(4) 0.183(4) 0.096(3) 0.055 1 0
O58 O2- 2 i 0.8819(3) 0.2975(3) 0.2745(3) 0.0474(11) 1 0
H30 H1+ 2 i 0.875(4) 0.287(5) 0.328(2) 0.071 1 0
H31 H1+ 2 i 0.832(4) 0.276(5) 0.263(4) 0.071 1 0
O59 O2- 2 i 0.0385(3) 0.3872(2) 0.0928(2) 0.0261(8) 1 0
H32 H1+ 2 i 0.073(3) 0.420(3) 0.109(3) 0.039 1 0
H33 H1+ 2 i -0.022(2) 0.398(4) 0.103(4) 0.039 1 0
O60 O2- 2 i 0.2141(3) 0.9781(4) 0.7002(3) 0.0618(16) 1 0
H34 H1+ 2 i 0.2596 0.9318 0.6923 0.093 1 0
H35 H1+ 2 i 0.2181 1.0222 0.644 0.093 1 0
O61 O2- 2 i -0.0165(3) 1.0739(3) 0.2621(2) 0.0315(9) 1 0
H36 H1+ 2 i -0.0853 1.0581 0.2644 0.047 1 0
H37 H1+ 2 i 0.03 1.0386 0.2321 0.047 1 0
O62 O2- 2 i 0.4187(2) 0.9806(2) 0.7644(2) 0.0233(8) 1 0
H38 H1+ 2 i 0.4196 0.9282 0.8133 0.035 1 0
H39 H1+ 2 i 0.4274 0.9631 0.7116 0.035 1 0
O63 O2- 2 i 0.0789(3) 0.3932(2) 0.9223(2) 0.0219(8) 1 0
H40 H1+ 2 i 0.073(4) 0.439(3) 0.884(2) 0.033 1 0
H41 H1+ 2 i 0.075(4) 0.399(3) 0.9722(19) 0.033 1 0
O64 O2- 2 i 0.4775(3) 0.5453(4) 0.7651(3) 0.0575(15) 1 0
H42 H1+ 2 i 0.461(5) 0.600(3) 0.762(5) 0.086 1 0
H43 H1+ 2 i 0.518(4) 0.550(4) 0.717(3) 0.086 1 0
O65 O2- 2 i 0.3075(3) 1.0648(3) -0.0822(2) 0.0257(9) 1 0
H44 H1+ 2 i 0.362(3) 1.089(3) -0.098(3) 0.039 1 0
H45 H1+ 2 i 0.300(4) 1.015(2) -0.043(3) 0.039 1 0
O66 O2- 2 i 0.3126(3) 0.1933(3) 0.7104(2) 0.0250(9) 1 0
H46 H1+ 2 i 0.308(4) 0.205(4) 0.660(2) 0.038 1 0
H47 H1+ 2 i 0.367(3) 0.208(4) 0.712(3) 0.038 1 0
O67 O2- 2 i 0.0830(3) 0.5111(3) 0.7640(3) 0.0279(9) 1 0
H48 H1+ 2 i 0.032(3) 0.493(3) 0.754(4) 0.042 1 0
H49 H1+ 2 i 0.093(4) 0.5638(18) 0.744(4) 0.042 1 0
O68 O2- 2 i 0.5152(5) 0.7241(3) 0.8036(4) 0.0765(17) 1 0
H50 H1+ 2 i 0.540(7) 0.731(6) 0.845(5) 0.115 1 0
H51 H1+ 2 i 0.483(6) 0.769(4) 0.785(5) 0.115 1 0
O69 O2- 2 i 0.2843(4) 0.7843(4) 0.7520(3) 0.0685(16) 1 0
H52 H1+ 2 i 0.340(4) 0.771(5) 0.720(4) 0.103 1 0
H53 H1+ 2 i 0.290(5) 0.766(6) 0.804(2) 0.103 1 0
O70 O2- 2 i -0.2460(4) 0.8598(3) 0.4844(3) 0.0504(12) 1 0
H54 H1+ 2 i -0.246(5) 0.824(4) 0.452(3) 0.076 1 0
H55 H1+ 2 i -0.257(6) 0.827(4) 0.5371(19) 0.076 1 0
O71 O2- 2 i 0.5070(3) 0.8893(3) 0.6478(3) 0.0476(12) 1 0
H56 H1+ 2 i 0.487(4) 0.889(5) 0.603(3) 0.071 1 0
H57 H1+ 2 i 0.564(3) 0.917(4) 0.628(4) 0.071 1 0
O72 O2- 2 i 0.3421(3) 0.3767(3) 0.3558(3) 0.0424(11) 1 0
H58 H1+ 2 i 0.339(5) 0.358(4) 0.409(2) 0.064 1 0
H59 H1+ 2 i 0.305(4) 0.423(3) 0.347(4) 0.064 1 0
O73 O2- 2 i -0.0526(4) 0.3217(3) 0.4196(3) 0.0541(14) 1 0
H60 H1+ 2 i -0.097(4) 0.302(4) 0.465(3) 0.081 1 0
H61 H1+ 2 i -0.029(5) 0.373(3) 0.416(4) 0.081 1 0
O74 O2- 2 i 0.2713(3) 0.2255(3) 0.3382(3) 0.0518(12) 1 0
H62 H1+ 2 i 0.277(5) 0.282(2) 0.335(4) 0.078 1 0
H63 H1+ 2 i 0.309(5) 0.219(4) 0.291(3) 0.078 1 0
O75 O2- 2 i 0.4268(3) 0.8374(3) -0.0976(3) 0.0378(10) 1 0
H64 H1+ 2 i 0.465(4) 0.845(4) -0.067(3) 0.057 1 0
H65 H1+ 2 i 0.379(3) 0.799(3) -0.065(3) 0.057 1 0
O76 O2- 2 i 0.3135(3) 0.3091(3) 0.5390(3) 0.0300(9) 1 0
H66 H1+ 2 i 0.373(2) 0.326(4) 0.533(4) 0.045 1 0
H67 H1+ 2 i 0.277(3) 0.348(3) 0.555(4) 0.045 1 0
O77 O2- 2 i 0.5730(3) 0.9091(3) 0.4418(3) 0.0440(12) 1 0
H68 H1+ 2 i 0.573(5) 0.966(2) 0.420(4) 0.066 1 0
H69 H1+ 2 i 0.621(4) 0.896(4) 0.463(4) 0.066 1 0
loop_
_atom_site_aniso_label
_atom_site_aniso_type_symbol
_atom_site_aniso_U_11
_atom_site_aniso_U_22
_atom_site_aniso_U_33
_atom_site_aniso_U_12
_atom_site_aniso_U_13
_atom_site_aniso_U_23
Pt1 Pt4+ 0.00954(10) 0.00867(10) 0.00598(9) -0.00002(7) -0.00068(6) -0.00612(7)
Pt2 Pt4+ 0.00933(10) 0.00833(10) 0.00628(9) 0.00006(7) -0.00122(6) -0.00569(7)
Mo1 Mo6+ 0.0110(2) 0.0139(2) 0.01004(19) 0.00019(16) -0.00179(15) -0.01018(16)
Mo2 Mo6+ 0.0118(2) 0.0125(2) 0.00893(19) -0.00137(16) -0.00222(14) -0.00634(16)
Mo3 Mo6+ 0.0139(2) 0.0111(2) 0.0126(2) 0.00246(16) -0.00246(15) -0.00733(16)
Mo4 Mo6+ 0.0147(2) 0.0147(2) 0.00968(19) 0.00173(16) -0.00023(15) -0.00955(17)
Mo5 Mo6+ 0.0176(2) 0.0135(2) 0.00813(19) 0.00016(17) -0.00184(15) -0.00471(16)
Mo6 Mo6+ 0.0149(2) 0.0109(2) 0.0134(2) 0.00249(16) -0.00354(15) -0.00718(17)
Mo7 Mo6+ 0.0148(2) 0.0111(2) 0.0145(2) 0.00282(16) -0.00414(16) -0.00732(17)
Mo8 Mo6+ 0.0162(2) 0.0121(2) 0.00841(19) -0.00019(16) -0.00287(15) -0.00410(16)
Mo9 Mo6+ 0.0123(2) 0.0136(2) 0.00969(19) 0.00170(16) -0.00127(15) -0.00888(16)
Mo10 Mo6+ 0.0152(2) 0.0105(2) 0.0114(2) 0.00199(16) -0.00271(15) -0.00665(16)
Mo11 Mo6+ 0.0133(2) 0.0140(2) 0.00731(19) -0.00197(16) -0.00172(14) -0.00598(16)
Mo12 Mo6+ 0.0122(2) 0.0140(2) 0.01044(19) 0.00028(16) -0.00208(15) -0.01016(17)
Na1 Na1+ 0.0246(11) 0.0195(10) 0.0167(10) -0.0017(8) -0.0031(8) -0.0068(8)
Na2 Na1+ 0.0182(10) 0.0275(11) 0.0215(10) 0.0043(8) -0.0049(8) -0.0117(9)
Na3 Na1+ 0.0208(11) 0.0216(11) 0.0191(10) 0.0018(9) -0.0013(8) -0.0083(9)
Na4 Na1+ 0.0332(12) 0.0398(13) 0.0217(11) 0.0021(10) -0.0076(9) -0.0105(10)
Na5 Na1+ 0.0196(10) 0.0193(10) 0.0213(10) -0.0013(8) -0.0044(8) -0.0083(8)
Na6 Na1+ 0.0196(11) 0.0406(14) 0.0390(13) 0.0043(10) -0.0025(9) -0.0292(11)
O1 O2- 0.0109(15) 0.0103(16) 0.0102(15) 0.0030(12) -0.0029(12) -0.0083(13)
O2 O2- 0.0134(13) 0.0141(14) 0.0093(13) -0.0001(11) -0.0014(10) -0.0088(11)
O3 O2- 0.0123(16) 0.0073(16) 0.0114(16) -0.0029(13) -0.0031(12) -0.0049(13)
O4 O2- 0.0082(16) 0.0139(17) 0.0170(17) 0.0010(13) -0.0028(13) -0.0115(14)
O5 O2- 0.0134(16) 0.0147(16) 0.0107(15) 0.0002(13) -0.0019(12) -0.0106(13)
O6 O2- 0.0096(16) 0.0118(17) 0.0130(16) -0.0011(13) -0.0008(12) -0.0054(14)
O7 O2- 0.0179(18) 0.0164(18) 0.0179(18) -0.0008(14) -0.0056(14) -0.0083(15)
O8 O2- 0.0117(16) 0.0169(17) 0.0131(16) -0.0017(13) -0.0007(12) -0.0076(14)
O9 O2- 0.0162(17) 0.0183(18) 0.0122(16) -0.0005(14) -0.0028(13) -0.0098(14)
O10 O2- 0.0210(18) 0.0127(17) 0.0143(17) -0.0001(14) -0.0017(13) -0.0079(14)
O11 O2- 0.0175(17) 0.0145(17) 0.0120(16) 0.0014(14) 0.0016(13) -0.0046(14)
O12 O2- 0.0171(17) 0.0152(17) 0.0147(17) 0.0039(14) -0.0060(13) -0.0088(14)
O13 O2- 0.0180(19) 0.028(2) 0.0227(19) 0.0080(16) -0.0045(14) -0.0154(16)
O14 O2- 0.034(2) 0.0139(18) 0.0215(19) -0.0022(16) -0.0071(16) -0.0049(15)
O15 O2- 0.0132(17) 0.025(2) 0.0213(18) 0.0026(15) -0.0010(14) -0.0142(16)
O16 O2- 0.0179(18) 0.0210(19) 0.0146(17) 0.0004(14) -0.0025(13) -0.0125(15)
O17 O2- 0.0168(17) 0.0228(19) 0.0122(16) -0.0011(14) -0.0023(13) -0.0104(15)
O18 O2- 0.0229(19) 0.0205(19) 0.0144(18) -0.0061(15) -0.0014(14) -0.0051(15)
O19 O2- 0.031(2) 0.0169(19) 0.0208(19) -0.0033(15) -0.0048(15) -0.0063(15)
O20 O2- 0.0149(18) 0.029(2) 0.027(2) 0.0067(16) -0.0029(15) -0.0146(17)
O21 O2- 0.0176(19) 0.029(2) 0.025(2) 0.0050(16) 0.0054(15) -0.0127(17)
O22 O2- 0.033(2) 0.024(2) 0.0157(18) -0.0011(16) -0.0057(15) -0.0140(16)
O23 O2- 0.032(2) 0.035(2) 0.0200(19) 0.0023(17) -0.0101(16) -0.0176(17)
O24 O2- 0.030(2) 0.0184(19) 0.0189(19) -0.0024(16) -0.0004(15) -0.0012(16)
O25 O2- 0.0109(13) 0.0106(13) 0.0118(13) 0.0017(11) -0.0010(10) -0.0095(11)
O26 O2- 0.0106(16) 0.0088(16) 0.0126(16) -0.0009(13) -0.0011(13) -0.0046(13)
O27 O2- 0.0116(16) 0.0128(17) 0.0118(16) 0.0008(13) -0.0036(12) -0.0097(13)
O28 O2- 0.0078(16) 0.0139(17) 0.0137(16) 0.0008(13) -0.0028(12) -0.0107(13)
O29 O2- 0.0149(16) 0.0083(16) 0.0090(15) -0.0016(13) -0.0019(12) -0.0033(13)
O30 O2- 0.0146(16) 0.0170(16) 0.0071(14) 0.0015(13) -0.0025(12) -0.0086(13)
O31 O2- 0.0172(18) 0.0169(18) 0.0187(18) -0.0032(14) -0.0050(14) -0.0098(15)
O32 O2- 0.0168(17) 0.0174(18) 0.0147(17) 0.0048(14) -0.0062(13) -0.0092(14)
O33 O2- 0.0142(17) 0.0170(18) 0.0115(16) -0.0008(14) -0.0005(12) -0.0060(14)
O34 O2- 0.0181(17) 0.0137(17) 0.0123(16) 0.0003(14) -0.0036(13) -0.0068(14)
O35 O2- 0.0151(17) 0.0201(18) 0.0122(16) 0.0034(14) -0.0029(13) -0.0104(14)
O36 O2- 0.0125(16) 0.0164(17) 0.0115(16) -0.0040(13) 0.0004(12) -0.0079(14)
O37 O2- 0.0159(18) 0.032(2) 0.0221(19) 0.0039(16) -0.0011(14) -0.0178(17)
O38 O2- 0.0196(18) 0.0205(19) 0.0149(17) -0.0046(15) -0.0007(14) -0.0097(15)
O39 O2- 0.0205(19) 0.033(2) 0.030(2) 0.0133(17) -0.0092(16) -0.0201(18)
O40 O2- 0.039(2) 0.0172(19) 0.025(2) -0.0015(17) -0.0113(17) -0.0063(16)
O41 O2- 0.030(2) 0.0172(19) 0.0171(18) -0.0043(16) -0.0003(15) -0.0032(15)
O42 O2- 0.028(2) 0.026(2) 0.0211(19) 0.0054(16) -0.0140(15) -0.0138(16)
O43 O2- 0.0244(19) 0.0236(19) 0.0180(18) 0.0016(15) -0.0083(14) -0.0135(16)
O44 O2- 0.0156(18) 0.027(2) 0.0215(19) 0.0048(15) -0.0002(14) -0.0134(16)
O45 O2- 0.0208(19) 0.031(2) 0.025(2) 0.0141(16) -0.0094(15) -0.0179(17)
O46 O2- 0.036(2) 0.0189(19) 0.025(2) -0.0033(16) -0.0065(16) -0.0082(16)
O47 O2- 0.026(2) 0.0193(19) 0.0133(18) -0.0052(15) -0.0020(14) -0.0045(15)
O48 O2- 0.0179(18) 0.0215(19) 0.0121(17) -0.0015(14) -0.0030(13) -0.0069(15)
O49 O2- 0.028(2) 0.034(2) 0.019(2) -0.0081(18) -0.0076(16) -0.0033(17)
O50 O2- 0.021(2) 0.032(2) 0.026(2) -0.0052(17) 0.0003(16) -0.0175(18)
O51 O2- 0.027(2) 0.027(2) 0.023(2) 0.0053(17) -0.0023(16) -0.0141(17)
O52 O2- 0.045(3) 0.027(2) 0.030(2) -0.0024(19) -0.0093(19) -0.0144(18)
O53 O2- 0.018(2) 0.044(3) 0.053(3) 0.0046(19) -0.0056(19) -0.039(2)
O54 O2- 0.0196(19) 0.021(2) 0.0224(19) -0.0023(15) -0.0023(15) -0.0101(16)
O55 O2- 0.022(2) 0.028(2) 0.035(2) 0.0009(17) -0.0071(17) -0.0165(18)
O56 O2- 0.029(2) 0.025(2) 0.024(2) -0.0001(17) -0.0029(16) -0.0139(17)
O57 O2- 0.046(3) 0.039(3) 0.026(2) 0.014(2) -0.0111(18) -0.0095(19)
O58 O2- 0.047(3) 0.062(3) 0.030(2) 0.006(2) -0.003(2) -0.015(2)
O59 O2- 0.0184(19) 0.032(2) 0.036(2) -0.0039(17) -0.0055(16) -0.0239(18)
O60 O2- 0.033(3) 0.122(5) 0.047(3) -0.013(3) 0.003(2) -0.059(3)
O61 O2- 0.031(2) 0.038(2) 0.029(2) 0.0038(18) -0.0092(17) -0.0140(18)
O62 O2- 0.0219(19) 0.026(2) 0.025(2) -0.0024(16) -0.0042(15) -0.0134(17)
O63 O2- 0.0180(18) 0.030(2) 0.0205(19) 0.0008(16) -0.0039(15) -0.0124(17)
O64 O2- 0.029(3) 0.104(4) 0.052(3) -0.008(3) -0.001(2) -0.050(3)
O65 O2- 0.025(2) 0.025(2) 0.023(2) -0.0075(17) -0.0051(16) -0.0021(17)
O66 O2- 0.024(2) 0.024(2) 0.028(2) -0.0037(17) -0.0076(17) -0.0068(18)
O67 O2- 0.022(2) 0.025(2) 0.036(2) -0.0005(17) -0.0053(17) -0.0087(19)
O68 O2- 0.086(5) 0.045(3) 0.084(5) -0.003(3) 0.015(3) -0.026(3)
O69 O2- 0.056(3) 0.109(5) 0.033(3) 0.002(3) 0.007(2) -0.024(3)
O70 O2- 0.051(3) 0.056(3) 0.063(3) 0.013(2) -0.022(3) -0.041(3)
O71 O2- 0.033(2) 0.077(3) 0.044(3) -0.017(2) -0.004(2) -0.037(3)
O72 O2- 0.065(3) 0.042(3) 0.029(2) 0.008(2) -0.023(2) -0.014(2)
O73 O2- 0.059(3) 0.052(3) 0.046(3) -0.027(2) 0.021(2) -0.033(3)
O74 O2- 0.047(3) 0.050(3) 0.069(3) 0.005(2) -0.011(2) -0.037(3)
O75 O2- 0.041(3) 0.038(3) 0.034(2) -0.007(2) -0.0026(19) -0.015(2)
O76 O2- 0.024(2) 0.036(2) 0.034(2) -0.0010(18) -0.0077(18) -0.0154(19)
O77 O2- 0.032(3) 0.036(3) 0.071(3) -0.003(2) -0.019(2) -0.022(3)
#End of TTdata_195779-ICSD