
#(C) 2019 by FIZ Karlsruhe - Leibniz Institute for Information Infrastructure.  All rights reserved.
data_195915-ICSD
_database_code_ICSD 195915
_audit_creation_date 2016-02-01
_chemical_name_systematic
'Tetrazinc tetrasodium dodecakis(tetraoxoaluminosilicate)'
_chemical_formula_structural '(Zn4 Na4) (Si12 Al12 O48)'
_chemical_formula_sum 'Al12 Na4 O48 Si12 Zn4'
_chemical_name_structure_type Zeolite-A-frame
_chemical_name_mineral 'Zeolite A (Na-,Zn-exchanged, dehydrated)'
_exptl_crystal_density_diffrn 1.64
_cell_measurement_temperature 100.
_publ_section_title

;
Single-crystal structures of Zn(2+)-exchanged zeolite A: dependence on Zn(2+)
concentration of aqueous solution during exchange
;
loop_
_citation_id
_citation_journal_full
_citation_year
_citation_journal_volume
_citation_page_first
_citation_page_last
_citation_journal_id_ASTM
primary 'Journal of Porous Materials' 2015 22 387 394 JPMAFX
loop_
_publ_author_name
'Kim, Hu Sik'
'Lee, Ha Young'
'Kim, Young Hun'
'Choi, Sang June'
'Lim, Woo Taik'
_cell_length_a 12.1634(1)
_cell_length_b 12.1634(1)
_cell_length_c 12.1634(1)
_cell_angle_alpha 90.
_cell_angle_beta 90.
_cell_angle_gamma 90.
_cell_volume 1799.55
_cell_formula_units_Z 1
_symmetry_space_group_name_H-M 'P m -3 m'
_symmetry_Int_Tables_number 221
_refine_ls_R_factor_all 0.0619
loop_
_symmetry_equiv_pos_site_id
_symmetry_equiv_pos_as_xyz
1 'z, y, -x'
2 'y, x, -z'
3 'x, z, -y'
4 'z, x, -y'
5 'y, z, -x'
6 'x, y, -z'
7 'z, -y, x'
8 'y, -x, z'
9 'x, -z, y'
10 'z, -x, y'
11 'y, -z, x'
12 'x, -y, z'
13 '-z, y, x'
14 '-y, x, z'
15 '-x, z, y'
16 '-z, x, y'
17 '-y, z, x'
18 '-x, y, z'
19 '-z, -y, -x'
20 '-y, -x, -z'
21 '-x, -z, -y'
22 '-z, -x, -y'
23 '-y, -z, -x'
24 '-x, -y, -z'
25 '-z, -y, x'
26 '-y, -x, z'
27 '-x, -z, y'
28 '-z, -x, y'
29 '-y, -z, x'
30 '-x, -y, z'
31 '-z, y, -x'
32 '-y, x, -z'
33 '-x, z, -y'
34 '-z, x, -y'
35 '-y, z, -x'
36 '-x, y, -z'
37 'z, -y, -x'
38 'y, -x, -z'
39 'x, -z, -y'
40 'z, -x, -y'
41 'y, -z, -x'
42 'x, -y, -z'
43 'z, y, x'
44 'y, x, z'
45 'x, z, y'
46 'z, x, y'
47 'y, z, x'
48 'x, y, z'
loop_
_atom_type_symbol
_atom_type_oxidation_number
Si4+ 4
Al3+ 3
O2- -2
Na1+ 1
Zn2+ 2
loop_
_atom_site_label
_atom_site_type_symbol
_atom_site_symmetry_multiplicity
_atom_site_Wyckoff_symbol
_atom_site_fract_x
_atom_site_fract_y
_atom_site_fract_z
_atom_site_B_iso_or_equiv
_atom_site_occupancy
_atom_site_attached_hydrogens
Si1 Si4+ 24 k 0 0.1822(1) 0.3667(1) . 0.5 0
Al1 Al3+ 24 k 0 0.1822(1) 0.3667(1) . 0.5 0
O1 O2- 12 h 0 0.1961(4) 0.5 . 1. 0
O2 O2- 12 i 0 0.2986(2) 0.2986(2) . 1. 0
O3 O2- 24 m 0.1130(3) 0.1130(3) 0.3217(3) . 1. 0
Na1 Na1+ 8 g 0.2163(3) 0.2163(3) 0.2163(3) 0.0301(13) 0.5 0
Zn1 Zn2+ 8 g 0.1579(9) 0.1579(9) 0.1579(9) 0.0441(30) 0.0625 0
Zn2 Zn2+ 8 g 0.1928(1) 0.1928(1) 0.1928(1) 0.0247(5) 0.4375 0
loop_
_atom_site_aniso_label
_atom_site_aniso_type_symbol
_atom_site_aniso_U_11
_atom_site_aniso_U_22
_atom_site_aniso_U_33
_atom_site_aniso_U_12
_atom_site_aniso_U_13
_atom_site_aniso_U_23
Si1 Si4+ 0.0307(6) 0.0294(6) 0.0274(6) 0. 0. 0.0001(3)
Al1 Al3+ 0.0307(6) 0.0294(6) 0.0274(6) 0. 0. 0.0001(3)
O1 O2- 0.0704(32) 0.0435(24) 0.0332(21) 0. 0. 0.
O2 O2- 0.0573(26) 0.0299(12) 0.0299(12) 0. 0. 0.0041(14)
O3 O2- 0.0615(15) 0.0615(15) 0.0414(17) 0.0299(17) -0.0147(12) -0.0147(12)
#End of TTdata_195915-ICSD