
#(C) 2019 by FIZ Karlsruhe - Leibniz Institute for Information Infrastructure.  All rights reserved.
data_195936-ICSD
_database_code_ICSD 195936
_audit_creation_date 2016-02-01
_chemical_name_systematic
'Sodium manganese vanadium germanium oxide (1/1/0.1/1.9/6)'
_chemical_formula_structural 'Na Mn ((V0.1 Ge1.9) O6)'
_chemical_formula_sum 'Ge1.9 Mn1 Na1 O6 V0.1'
_chemical_name_structure_type Pyroxene-CaMg(SiO3)2
_exptl_crystal_density_diffrn 4.47
_cell_measurement_temperature 293.
_publ_section_title
'Pyroxene-type compounds Na M(3+) Ge2 O6, with M = Ga, Mn, Sc and In'
loop_
_citation_id
_citation_journal_full
_citation_year
_citation_journal_volume
_citation_page_first
_citation_page_last
_citation_journal_id_ASTM
primary 'Acta Crystallographica, Section C: Structural Chemistry' 2014 70 852
857 ACSCGG
loop_
_publ_author_name
'Redhammer, Guenther J.'
'Tippelt, Gerold'
_cell_length_a 9.9611(13)
_cell_length_b 8.8630(11)
_cell_length_c 5.5598(7)
_cell_angle_alpha 90
_cell_angle_beta 106.3818(13)
_cell_angle_gamma 90
_cell_volume 470.92
_cell_formula_units_Z 4
_symmetry_space_group_name_H-M 'C 1 2/c 1'
_symmetry_Int_Tables_number 15
_refine_ls_R_factor_all 0.0213
loop_
_symmetry_equiv_pos_site_id
_symmetry_equiv_pos_as_xyz
1 'x, -y, z+1/2'
2 '-x, -y, -z'
3 '-x, y, -z+1/2'
4 'x, y, z'
5 'x+1/2, -y+1/2, z+1/2'
6 '-x+1/2, -y+1/2, -z'
7 '-x+1/2, y+1/2, -z+1/2'
8 'x+1/2, y+1/2, z'
loop_
_atom_type_symbol
_atom_type_oxidation_number
Na1+ 1
Mn3+ 3.1
Ge4+ 4
V3+ 3
O2- -2
loop_
_atom_site_label
_atom_site_type_symbol
_atom_site_symmetry_multiplicity
_atom_site_Wyckoff_symbol
_atom_site_fract_x
_atom_site_fract_y
_atom_site_fract_z
_atom_site_B_iso_or_equiv
_atom_site_occupancy
_atom_site_attached_hydrogens
Na1 Na1+ 4 e 0 0.30110(18) 0.25 0.0111(3) 1 0
Mn1 Mn3+ 4 e 0 0.90765(7) 0.25 0.00847(16) 1 0
Ge1 Ge4+ 8 f 0.28982(3) 0.09350(3) 0.23556(6) 0.01186(14) 0.95 0
V1 V3+ 8 f 0.28982(3) 0.09350(3) 0.23556(6) 0.01186(14) 0.05 0
O1 O2- 8 f 0.3585(3) 0.2713(3) 0.3065(5) 0.0233(5) 1 0
O2 O2- 8 f 0.1080(3) 0.0806(3) 0.1442(5) 0.0188(5) 1 0
O3 O2- 8 f 0.3622(2) 0.0100(3) 0.0145(4) 0.0183(5) 1 0
loop_
_atom_site_aniso_label
_atom_site_aniso_type_symbol
_atom_site_aniso_U_11
_atom_site_aniso_U_22
_atom_site_aniso_U_33
_atom_site_aniso_U_12
_atom_site_aniso_U_13
_atom_site_aniso_U_23
Na1 Na1+ 0.0156(8) 0.0057(7) 0.0095(7) 0 -0.0006(6) 0
Mn1 Mn3+ 0.0100(3) 0.0081(3) 0.0072(3) 0 0.0023(2) 0
Ge1 Ge4+ 0.0118(2) 0.0114(2) 0.0124(2) -0.00043(11) 0.00355(14) -0.00162(11)
V1 V3+ 0.0118(2) 0.0114(2) 0.0124(2) -0.00043(11) 0.00355(14) -0.00162(11)
O1 O2- 0.0318(15) 0.0142(11) 0.0249(12) -0.0040(10) 0.0096(11) -0.0022(10)
O2 O2- 0.0137(11) 0.0216(12) 0.0207(12) 0.0027(9) 0.0044(9) -0.0050(9)
O3 O2- 0.0164(12) 0.0247(13) 0.0140(11) 0.0010(9) 0.0045(9) -0.0047(8)
#End of TTdata_195936-ICSD