
#(C) 2019 by FIZ Karlsruhe - Leibniz Institute for Information Infrastructure.  All rights reserved.
data_196054-ICSD
_database_code_ICSD 196054
_audit_creation_date 2016-02-01
_chemical_name_systematic 'Sodium magnesium orthophosphate enneahydrate'
_chemical_formula_structural 'Na Mg (P O4) (H2 O)9'
_chemical_formula_sum 'H18 Mg1 Na1 O13 P1'
_chemical_name_mineral Apexite
_exptl_crystal_density_diffrn 1.74
_cell_measurement_temperature 293.
_publ_section_title

;
Apexite, Na Mg (P O4) . (H2 O)9, a new struvite-type phase with a
heteropolyhedral cluster
;
loop_
_citation_id
_citation_journal_full
_citation_year
_citation_journal_volume
_citation_page_first
_citation_page_last
_citation_journal_id_ASTM
primary 'American Mineralogist' 2015 100 2695 2701 AMMIAY
loop_
_publ_author_name
'Kampf, Anthony R.'
'Mills, Stuart J.'
'Nash, Barbara P.'
'Jensen, Martin'
'Nikischer, Tony'
_cell_length_a 6.9296(7)
_cell_length_b 11.9767(13)
_cell_length_c 14.9436(19)
_cell_angle_alpha 92.109(6)
_cell_angle_beta 102.884(7)
_cell_angle_gamma 105.171(7)
_cell_volume 1160.88
_cell_formula_units_Z 4
_symmetry_space_group_name_H-M 'P -1'
_symmetry_Int_Tables_number 2
_refine_ls_R_factor_all 0.0444
loop_
_symmetry_equiv_pos_site_id
_symmetry_equiv_pos_as_xyz
1 '-x, -y, -z'
2 'x, y, z'
loop_
_atom_type_symbol
_atom_type_oxidation_number
P5+ 5
Mg2+ 2
Na1+ 1
O2- -2
H1+ 1
O2- -2
H1+ 1
O2- -2
H1+ 1
O2- -2
H1+ 1
O2- -2
H1+ 1
O2- -2
H1+ 1
O2- -2
H1+ 1
O2- -2
H1+ 1
O2- -2
H1+ 1
O2- -2
H1+ 1
O2- -2
H1+ 1
O2- -2
H1+ 1
O2- -2
H1+ 1
O2- -2
H1+ 1
O2- -2
H1+ 1
O2- -2
H1+ 1
O2- -2
H1+ 1
O2- -2
H1+ 1
loop_
_atom_site_label
_atom_site_type_symbol
_atom_site_symmetry_multiplicity
_atom_site_Wyckoff_symbol
_atom_site_fract_x
_atom_site_fract_y
_atom_site_fract_z
_atom_site_B_iso_or_equiv
_atom_site_occupancy
_atom_site_attached_hydrogens
P1 P5+ 2 i 0.7051(3) 0.73255(16) 0.66342(13) 0.0187(5) 1 0
P2 P5+ 2 i 0.4859(3) 0.24050(17) 0.76778(13) 0.0209(6) 1 0
Mg1 Mg2+ 2 i 0.8528(3) 0.1163(2) 0.60609(16) 0.0228(7) 1 0
Mg2 Mg2+ 2 i 0.2012(4) 0.5829(2) 0.79178(16) 0.0245(7) 1 0
Na1 Na1+ 2 i 0.7538(4) 0.0028(3) 0.9988(2) 0.0390(9) 1 0
Na2 Na1+ 2 i 0.9896(4) 0.4003(2) 0.5845(2) 0.0338(8) 1 0
O1 O2- 2 i 0.5296(7) 0.7863(4) 0.6269(3) 0.0242(13) 1 0
O2 O2- 2 i 0.8935(7) 0.7856(4) 0.6244(3) 0.0264(13) 1 0
O3 O2- 2 i 0.6295(7) 0.5992(4) 0.6370(3) 0.0239(13) 1 0
O4 O2- 2 i 0.7735(7) 0.7565(4) 0.7705(3) 0.0291(13) 1 0
O5 O2- 2 i 0.4329(7) 0.1076(4) 0.7640(3) 0.0272(13) 1 0
O6 O2- 2 i 0.3481(7) 0.2850(4) 0.8197(3) 0.0315(14) 1 0
O7 O2- 2 i 0.4493(7) 0.2787(4) 0.6695(3) 0.0313(14) 1 0
O8 O2- 2 i 0.7145(7) 0.2964(4) 0.8181(3) 0.0244(13) 1 0
O9 O2- 2 i 0.9574(8) 0.2219(5) 0.7256(4) 0.0408(16) 1 0
H1 H1+ 2 i 1.085(5) 0.242(7) 0.761(4) 0.061 1 0
H2 H1+ 2 i 0.877(8) 0.237(7) 0.761(4) 0.061 1 0
O10 O2- 2 i 0.7478(8) 0.0078(5) 0.4870(3) 0.0341(14) 1 0
H3 H1+ 2 i 0.630(6) 0.001(6) 0.446(4) 0.051 1 0
H4 H1+ 2 i 0.824(8) -0.021(6) 0.455(4) 0.051 1 0
O11 O2- 2 i 0.6122(8) 0.0150(4) 0.6518(4) 0.0315(14) 1 0
H5 H1+ 2 i 0.584(11) -0.061(3) 0.651(5) 0.047 1 0
H6 H1+ 2 i 0.558(11) 0.042(5) 0.694(4) 0.047 1 0
O12 O2- 2 i 0.0462(7) 0.0141(4) 0.6550(4) 0.0317(14) 1 0
H7 H1+ 2 i 0.003(9) -0.062(3) 0.652(5) 0.048 1 0
H8 H1+ 2 i 0.165(7) 0.041(5) 0.692(4) 0.048 1 0
O13 O2- 2 i 0.0859(7) 0.2236(5) 0.5550(3) 0.0278(13) 1 0
H9 H1+ 2 i 0.097(9) 0.213(6) 0.498(2) 0.042 1 0
H10 H1+ 2 i 0.211(6) 0.240(6) 0.592(3) 0.042 1 0
O14 O2- 2 i 0.6726(7) 0.2273(5) 0.5564(3) 0.0303(14) 1 0
H11 H1+ 2 i 0.601(9) 0.224(6) 0.499(2) 0.045 1 0
H12 H1+ 2 i 0.594(9) 0.242(6) 0.593(3) 0.045 1 0
O15 O2- 2 i 0.2059(8) 0.7014(5) 0.6987(4) 0.0541(18) 1 0
H13 H1+ 2 i 0.312(8) 0.728(7) 0.674(5) 0.081 1 0
H14 H1+ 2 i 0.102(8) 0.724(7) 0.667(5) 0.081 1 0
O16 O2- 2 i 0.2102(9) 0.4599(5) 0.8842(3) 0.0366(15) 1 0
H15 H1+ 2 i 0.272(11) 0.407(5) 0.877(4) 0.055 1 0
H16 H1+ 2 i 0.206(12) 0.470(6) 0.942(3) 0.055 1 0
O17 O2- 2 i 0.9405(8) 0.3315(5) 0.1318(4) 0.0370(15) 1 0
H17 H1+ 2 i 1.049(8) 0.312(6) 0.166(4) 0.055 1 0
H18 H1+ 2 i 0.891(10) 0.280(5) 0.082(3) 0.055 1 0
O18 O2- 2 i 0.3172(7) 0.4855(4) 0.7095(3) 0.0261(13) 1 0
H19 H1+ 2 i 0.360(9) 0.422(4) 0.723(5) 0.039 1 0
H20 H1+ 2 i 0.413(8) 0.525(5) 0.680(4) 0.039 1 0
O19 O2- 2 i 0.5036(9) 0.6650(5) 0.8634(4) 0.0466(16) 1 0
H21 H1+ 2 i 0.589(11) 0.671(6) 0.825(5) 0.07 1 0
H22 H1+ 2 i 0.515(12) 0.740(3) 0.878(5) 0.07 1 0
O20 O2- 2 i 0.9006(7) 0.4837(4) 0.7212(3) 0.0275(13) 1 0
H23 H1+ 2 i 0.842(9) 0.435(5) 0.756(4) 0.041 1 0
H24 H1+ 2 i 0.805(8) 0.514(5) 0.691(4) 0.041 1 0
O21 O2- 2 i 0.7199(8) -0.1940(5) 0.0242(3) 0.0372(15) 1 0
H25 H1+ 2 i 0.841(7) -0.209(7) 0.038(5) 0.056 1 0
H26 H1+ 2 i 0.670(10) -0.216(6) 0.073(4) 0.056 1 0
O22 O2- 2 i 0.8693(8) 0.2000(5) 0.9691(4) 0.0343(14) 1 0
H27 H1+ 2 i 0.842(9) 0.243(6) 0.923(4) 0.051 1 0
H28 H1+ 2 i 1.000(5) 0.213(7) 0.987(5) 0.051 1 0
O23 O2- 2 i 0.5766(9) 0.0484(5) 0.1105(3) 0.0403(15) 1 0
H29 H1+ 2 i 0.640(11) 0.114(3) 0.148(4) 0.06 1 0
H30 H1+ 2 i 0.562(12) -0.007(4) 0.149(4) 0.06 1 0
O24 O2- 2 i 0.9268(9) -0.0327(5) 0.8772(3) 0.0419(15) 1 0
H31 H1+ 2 i 0.892(12) -0.101(3) 0.842(4) 0.063 1 0
H32 H1+ 2 i 0.922(12) 0.020(4) 0.836(4) 0.063 1 0
O25 O2- 2 i 0.7661(7) 0.5004(5) 0.5014(4) 0.0328(14) 1 0
H33 H1+ 2 i 0.646(7) 0.468(6) 0.461(4) 0.049 1 0
H34 H1+ 2 i 0.730(10) 0.540(6) 0.544(4) 0.049 1 0
O26 O2- 2 i 0.2575(8) 0.4981(5) 0.0730(4) 0.0399(15) 1 0
H35 H1+ 2 i 0.291(11) 0.570(3) 0.100(5) 0.06 1 0
H36 H1+ 2 i 0.152(8) 0.457(5) 0.092(5) 0.06 1 0
loop_
_atom_site_aniso_label
_atom_site_aniso_type_symbol
_atom_site_aniso_U_11
_atom_site_aniso_U_22
_atom_site_aniso_U_33
_atom_site_aniso_U_12
_atom_site_aniso_U_13
_atom_site_aniso_U_23
P1 P5+ 0.0174(12) 0.0208(13) 0.0190(13) 0.0069(10) 0.0046(10) 0.0011(10)
P2 P5+ 0.0174(13) 0.0214(13) 0.0224(14) 0.0038(10) 0.0036(10) 0.0010(10)
Mg1 Mg2+ 0.0215(15) 0.0238(15) 0.0211(15) 0.0042(12) 0.0039(12) 0.0008(12)
Mg2 Mg2+ 0.0235(15) 0.0247(16) 0.0262(16) 0.0061(13) 0.0079(12) 0.0051(13)
Na1 Na1+ 0.0378(19) 0.036(2) 0.043(2) 0.0098(16) 0.0095(16) 0.0026(16)
Na2 Na1+ 0.0317(18) 0.0327(19) 0.037(2) 0.0114(15) 0.0070(15) 0.0005(15)
O1 O2- 0.023(3) 0.026(3) 0.028(3) 0.015(3) 0.005(2) 0.004(2)
O2 O2- 0.026(3) 0.027(3) 0.027(3) 0.008(3) 0.008(2) 0.003(2)
O3 O2- 0.030(3) 0.016(3) 0.024(3) 0.005(2) 0.006(2) -0.004(2)
O4 O2- 0.030(3) 0.033(3) 0.024(3) 0.007(3) 0.006(3) 0.001(3)
O5 O2- 0.033(3) 0.021(3) 0.025(3) 0.004(3) 0.007(3) -0.002(2)
O6 O2- 0.022(3) 0.036(3) 0.038(3) 0.011(3) 0.008(3) -0.006(3)
O7 O2- 0.029(3) 0.039(3) 0.022(3) 0.005(3) 0.002(2) 0.009(3)
O8 O2- 0.019(3) 0.025(3) 0.028(3) 0.004(2) 0.004(2) 0.004(2)
O9 O2- 0.023(3) 0.055(4) 0.038(4) 0.011(3) -0.001(3) -0.025(3)
O10 O2- 0.024(3) 0.046(4) 0.029(4) 0.012(3) 0.000(3) -0.017(3)
O11 O2- 0.036(3) 0.021(3) 0.042(4) 0.008(3) 0.020(3) 0.000(3)
O12 O2- 0.027(3) 0.017(3) 0.045(4) 0.001(3) 0.000(3) 0.004(3)
O13 O2- 0.022(3) 0.039(3) 0.021(3) 0.005(3) 0.007(3) 0.007(3)
O14 O2- 0.029(3) 0.039(3) 0.025(3) 0.015(3) 0.004(3) 0.005(3)
O15 O2- 0.038(4) 0.065(4) 0.082(5) 0.029(4) 0.035(4) 0.056(4)
O16 O2- 0.051(4) 0.040(4) 0.026(3) 0.021(3) 0.013(3) 0.007(3)
O17 O2- 0.036(4) 0.043(4) 0.030(4) 0.015(3) 0.001(3) -0.007(3)
O18 O2- 0.031(3) 0.017(3) 0.035(4) 0.014(3) 0.010(3) 0.012(3)
O19 O2- 0.038(4) 0.053(4) 0.036(4) -0.008(3) 0.012(3) -0.015(3)
O20 O2- 0.024(3) 0.035(4) 0.025(4) 0.010(3) 0.006(3) 0.012(3)
O21 O2- 0.038(4) 0.044(4) 0.032(4) 0.014(3) 0.010(3) 0.004(3)
O22 O2- 0.039(3) 0.037(4) 0.027(4) 0.016(3) 0.001(3) 0.005(3)
O23 O2- 0.048(4) 0.033(4) 0.037(4) 0.008(3) 0.008(3) 0.010(3)
O24 O2- 0.049(4) 0.036(4) 0.033(4) 0.005(3) 0.004(3) -0.008(3)
O25 O2- 0.029(3) 0.041(4) 0.029(4) 0.014(3) 0.004(3) -0.006(3)
O26 O2- 0.050(4) 0.032(4) 0.034(4) 0.003(3) 0.014(3) 0.001(3)
#End of TTdata_196054-ICSD