
#(C) 2019 by FIZ Karlsruhe - Leibniz Institute for Information Infrastructure.  All rights reserved.
data_196081-ICSD
_database_code_ICSD 196081
_audit_creation_date 2016-02-01
_chemical_name_systematic 'Lithium-0.39 sodium-0.61 iron hexaoxodigermanate'
_chemical_formula_structural '(Li0.39 Na0.61) Fe (Ge2 O6)'
_chemical_formula_sum 'Fe1 Ge2 Li0.39 Na0.61 O6'
_chemical_name_structure_type Pyroxene-MgSiO3-LT
_chemical_name_mineral 'Clinopyroxene - (Li,Na,Fe,Ge)'
_exptl_crystal_density_diffrn 4.51
_cell_measurement_temperature 293.
_publ_section_title

;
The (Na,Li) Fe Ge2 O6 clinopyroxene-type series: a temperature-dependent
single-crystal X-ray diffraction and (57)Fe Moessbauer spectroscopic study
;
loop_
_citation_id
_citation_journal_full
_citation_year
_citation_journal_volume
_citation_page_first
_citation_page_last
_citation_journal_id_ASTM
primary 'Physics and Chemistry of Minerals' 2016 43 1 22 PCMIDU
loop_
_publ_author_name
'Redhammer, Guenther J.'
'Tippelt, Gerold'
_cell_length_a 9.9987(8)
_cell_length_b 8.8554(7)
_cell_length_c 5.5060(5)
_cell_angle_alpha 90
_cell_angle_beta 108.499(7)
_cell_angle_gamma 90
_cell_volume 462.32
_cell_formula_units_Z 4
_symmetry_space_group_name_H-M 'P 1 21/c 1'
_symmetry_Int_Tables_number 14
_refine_ls_R_factor_all 0.0297
loop_
_symmetry_equiv_pos_site_id
_symmetry_equiv_pos_as_xyz
1 'x, -y+1/2, z+1/2'
2 '-x, -y, -z'
3 '-x, y+1/2, -z+1/2'
4 'x, y, z'
loop_
_atom_type_symbol
_atom_type_oxidation_number
Li1+ 1
Na1+ 1
Fe3+ 3
Ge4+ 4
O2- -2
loop_
_atom_site_label
_atom_site_type_symbol
_atom_site_symmetry_multiplicity
_atom_site_Wyckoff_symbol
_atom_site_fract_x
_atom_site_fract_y
_atom_site_fract_z
_atom_site_B_iso_or_equiv
_atom_site_occupancy
_atom_site_attached_hydrogens
Li1 Li1+ 4 e 0.2570(6) 0.4587(4) 0.7438(8) 0.0159(11) 0.393(10) 0
Na1 Na1+ 4 e 0.2570(6) 0.4587(4) 0.7438(8) 0.0159(11) 0.607(10) 0
Fe1 Fe3+ 4 e 0.25061(13) 0.65357(9) 0.2364(2) 0.00680(19) 0.998 0
Ge1 Ge4+ 4 e 0.03941(8) 0.34332(10) 0.24811(13) 0.0073(2) 1 0
Ge2 Ge4+ 4 e 0.54246(8) 0.84270(10) 0.23258(13) 0.0070(2) 1 0
O1 O2- 4 e -0.1460(5) 0.3325(5) 0.1476(8) 0.0090(10) 1 0
O2 O2- 4 e 0.1082(4) 0.5234(5) 0.2830(8) 0.0126(12) 1 0
O3 O2- 4 e 0.1114(5) 0.2688(5) 0.5588(8) 0.0119(11) 1 0
O4 O2- 4 e 0.3576(5) 0.8328(5) 0.1213(8) 0.0078(10) 1 0
O5 O2- 4 e 0.6106(5) 1.0196(5) 0.3232(9) 0.0164(12) 1 0
O6 O2- 4 e 0.6142(5) 0.7296(6) 0.5072(8) 0.0170(13) 1 0
loop_
_atom_site_aniso_label
_atom_site_aniso_type_symbol
_atom_site_aniso_U_11
_atom_site_aniso_U_22
_atom_site_aniso_U_33
_atom_site_aniso_U_12
_atom_site_aniso_U_13
_atom_site_aniso_U_23
Li1 Li1+ 0.014(2) 0.019(2) 0.0128(18) -0.006(2) 0.0014(14) 0.000(2)
Na1 Na1+ 0.014(2) 0.019(2) 0.0128(18) -0.006(2) 0.0014(14) 0.000(2)
Fe1 Fe3+ 0.0059(4) 0.0061(4) 0.0082(4) -0.0006(6) 0.0019(3) -0.0002(5)
Ge1 Ge4+ 0.0056(4) 0.0087(4) 0.0081(4) -0.0006(4) 0.0029(3) -0.0002(3)
Ge2 Ge4+ 0.0057(4) 0.0068(4) 0.0085(4) -0.0014(4) 0.0023(3) -0.0007(3)
O1 O2- 0.012(3) 0.008(3) 0.007(2) -0.002(2) 0.0018(18) 0.002(2)
O2 O2- 0.014(3) 0.011(3) 0.013(2) 0.000(2) 0.005(2) 0.000(2)
O3 O2- 0.003(3) 0.021(3) 0.011(2) -0.001(2) 0.001(2) 0.004(2)
O4 O2- 0.004(2) 0.009(3) 0.009(2) 0.002(2) 0.0002(18) 0.003(2)
O5 O2- 0.016(3) 0.008(3) 0.027(3) -0.004(2) 0.010(2) -0.006(2)
O6 O2- 0.007(3) 0.027(3) 0.014(3) 0.001(2) 0.000(2) 0.011(2)
#End of TTdata_196081-ICSD