
#(C) 2019 by FIZ Karlsruhe - Leibniz Institute for Information Infrastructure.  All rights reserved.
data_196079-ICSD
_database_code_ICSD 196079
_audit_creation_date 2016-02-01
_chemical_name_systematic 'Lithium-0.39 sodium-0.61 iron hexaoxogermanate'
_chemical_formula_structural '(Li0.39 Na0.61) Fe (Ge2 O6)'
_chemical_formula_sum 'Fe1 Ge2 Li0.39 Na0.61 O6'
_chemical_name_structure_type Pyroxene-MgSiO3-LT
_chemical_name_mineral 'Clinopyroxene - (Li,Na,Fe,Ge)'
_exptl_crystal_density_diffrn 4.51
_cell_measurement_temperature 293.
_publ_section_title

;
The (Na,Li) Fe Ge2 O6 clinopyroxene-type series: a temperature-dependent
single-crystal X-ray diffraction and (57)Fe Moessbauer spectroscopic study
;
loop_
_citation_id
_citation_journal_full
_citation_year
_citation_journal_volume
_citation_page_first
_citation_page_last
_citation_journal_id_ASTM
primary 'Physics and Chemistry of Minerals' 2016 43 1 22 PCMIDU
loop_
_publ_author_name
'Redhammer, Guenther J.'
'Tippelt, Gerold'
_cell_length_a 9.9867(8)
_cell_length_b 8.8635(7)
_cell_length_c 5.4962(5)
_cell_angle_alpha 90
_cell_angle_beta 108.412(7)
_cell_angle_gamma 90
_cell_volume 461.6
_cell_formula_units_Z 4
_symmetry_space_group_name_H-M 'P 1 21/c 1'
_symmetry_Int_Tables_number 14
_refine_ls_R_factor_all 0.031
loop_
_symmetry_equiv_pos_site_id
_symmetry_equiv_pos_as_xyz
1 'x, -y+1/2, z+1/2'
2 '-x, -y, -z'
3 '-x, y+1/2, -z+1/2'
4 'x, y, z'
loop_
_atom_type_symbol
_atom_type_oxidation_number
Li1+ 1
Na1+ 1
Fe3+ 3
Ge4+ 4
O2- -2
loop_
_atom_site_label
_atom_site_type_symbol
_atom_site_symmetry_multiplicity
_atom_site_Wyckoff_symbol
_atom_site_fract_x
_atom_site_fract_y
_atom_site_fract_z
_atom_site_B_iso_or_equiv
_atom_site_occupancy
_atom_site_attached_hydrogens
Li1 Li1+ 4 e 0.2593(5) 0.4588(3) 0.7426(7) 0.0159(11) 0.386(10) 0
Na1 Na1+ 4 e 0.2593(5) 0.4588(3) 0.7426(7) 0.0159(11) 0.614(10) 0
Fe1 Fe3+ 4 e 0.25062(11) 0.65344(8) 0.23436(18) 0.00662(18) 0.998 0
Ge1 Ge4+ 4 e 0.03985(7) 0.34320(8) 0.24972(12) 0.00760(18) 1 0
Ge2 Ge4+ 4 e 0.54319(7) 0.84250(8) 0.23181(12) 0.00703(18) 1 0
O1 O2- 4 e -0.1447(4) 0.3329(5) 0.1500(7) 0.0096(9) 1 0
O2 O2- 4 e 0.1089(5) 0.5232(5) 0.2838(7) 0.0110(10) 1 0
O3 O2- 4 e 0.1113(5) 0.2695(5) 0.5609(8) 0.0146(10) 1 0
O4 O2- 4 e 0.3578(4) 0.8313(5) 0.1211(7) 0.0079(9) 1 0
O5 O2- 4 e 0.6117(5) 1.0184(5) 0.3302(8) 0.0153(10) 1 0
O6 O2- 4 e 0.6144(4) 0.7247(5) 0.5019(7) 0.0115(10) 1 0
loop_
_atom_site_aniso_label
_atom_site_aniso_type_symbol
_atom_site_aniso_U_11
_atom_site_aniso_U_22
_atom_site_aniso_U_33
_atom_site_aniso_U_12
_atom_site_aniso_U_13
_atom_site_aniso_U_23
Li1 Li1+ 0.014(2) 0.0183(19) 0.0144(17) -0.005(2) 0.0026(13) -0.0017(18)
Na1 Na1+ 0.014(2) 0.0183(19) 0.0144(17) -0.005(2) 0.0026(13) -0.0017(18)
Fe1 Fe3+ 0.0059(4) 0.0065(3) 0.0075(4) 0.0000(5) 0.0022(3) -0.0004(4)
Ge1 Ge4+ 0.0061(4) 0.0077(4) 0.0096(3) -0.0011(3) 0.0033(3) -0.0006(3)
Ge2 Ge4+ 0.0061(4) 0.0069(4) 0.0082(3) -0.0007(3) 0.0025(3) -0.0002(3)
O1 O2- 0.010(2) 0.010(2) 0.0085(19) 0.002(2) 0.0024(17) 0.0036(18)
O2 O2- 0.013(3) 0.007(2) 0.014(2) -0.0096(18) 0.0050(18) -0.0001(17)
O3 O2- 0.007(3) 0.022(3) 0.014(2) 0.003(2) 0.0019(18) 0.012(2)
O4 O2- 0.003(2) 0.010(2) 0.0102(19) 0.000(2) 0.0019(16) -0.0009(18)
O5 O2- 0.015(3) 0.010(3) 0.026(3) -0.0047(19) 0.015(2) -0.0042(19)
O6 O2- 0.004(2) 0.019(2) 0.013(2) 0.0046(18) 0.0041(19) 0.0057(17)
#End of TTdata_196079-ICSD