
#(C) 2019 by FIZ Karlsruhe - Leibniz Institute for Information Infrastructure.  All rights reserved.
data_196086-ICSD
_database_code_ICSD 196086
_audit_creation_date 2016-02-01
_chemical_name_systematic 'Lithium-0.4 sodium-0.6 iron hexaoxodigermanate'
_chemical_formula_structural '(Li0.40 Na0.60) Fe (Ge2 O6)'
_chemical_formula_sum 'Fe1 Ge2 Li0.4 Na0.6 O6'
_chemical_name_structure_type Pyroxene-CaMg(SiO3)2
_chemical_name_mineral 'Clinopyroxene - (Li,Na,Fe,Ge)'
_exptl_crystal_density_diffrn 4.49
_cell_measurement_temperature 293.
_publ_section_title

;
The (Na,Li) Fe Ge2 O6 clinopyroxene-type series: a temperature-dependent
single-crystal X-ray diffraction and (57)Fe Moessbauer spectroscopic study
;
loop_
_citation_id
_citation_journal_full
_citation_year
_citation_journal_volume
_citation_page_first
_citation_page_last
_citation_journal_id_ASTM
primary 'Physics and Chemistry of Minerals' 2016 43 1 22 PCMIDU
loop_
_publ_author_name
'Redhammer, Guenther J.'
'Tippelt, Gerold'
_cell_length_a 10.0208(9)
_cell_length_b 8.8342(8)
_cell_length_c 5.5307(5)
_cell_angle_alpha 90
_cell_angle_beta 108.716(2)
_cell_angle_gamma 90
_cell_volume 463.71
_cell_formula_units_Z 4
_symmetry_space_group_name_H-M 'C 1 2/c 1'
_symmetry_Int_Tables_number 15
_refine_ls_R_factor_all 0.0307
loop_
_symmetry_equiv_pos_site_id
_symmetry_equiv_pos_as_xyz
1 'x, -y, z+1/2'
2 '-x, -y, -z'
3 '-x, y, -z+1/2'
4 'x, y, z'
5 'x+1/2, -y+1/2, z+1/2'
6 '-x+1/2, -y+1/2, -z'
7 '-x+1/2, y+1/2, -z+1/2'
8 'x+1/2, y+1/2, z'
loop_
_atom_type_symbol
_atom_type_oxidation_number
Na1+ 1
Li1+ 1
Fe3+ 3
Ge4+ 4
O2- -2
loop_
_atom_site_label
_atom_site_type_symbol
_atom_site_symmetry_multiplicity
_atom_site_Wyckoff_symbol
_atom_site_fract_x
_atom_site_fract_y
_atom_site_fract_z
_atom_site_B_iso_or_equiv
_atom_site_occupancy
_atom_site_attached_hydrogens
Na1 Na1+ 4 e 0. 0.2923(5) 0.25 0.0152(9) 0.601(3) 0
Li1 Li1+ 4 e 0. 0.2923(5) 0.25 0.0152(9) 0.399(3) 0
Fe1 Fe3+ 4 e 0. 0.90458(11) 0.25 0.0077(2) 1 0
Ge1 Ge4+ 8 f 0.28932(5) 0.09326(6) 0.23918(10) 0.00759(19) 1 0
O1 O2- 8 f 0.3572(4) 0.2730(4) 0.2948(7) 0.0140(8) 1 0
O2 O2- 8 f 0.1052(3) 0.0831(4) 0.1356(7) 0.0085(7) 1 0
O3 O2- 8 f 0.3628(4) -0.0069(5) 0.0403(7) 0.0157(8) 1 0
loop_
_atom_site_aniso_label
_atom_site_aniso_type_symbol
_atom_site_aniso_U_11
_atom_site_aniso_U_22
_atom_site_aniso_U_33
_atom_site_aniso_U_12
_atom_site_aniso_U_13
_atom_site_aniso_U_23
Na1 Na1+ 0.017(2) 0.012(2) 0.015(2) 0. 0.0038(17) 0.
Li1 Li1+ 0.017(2) 0.012(2) 0.015(2) 0. 0.0038(17) 0.
Fe1 Fe3+ 0.0072(5) 0.0071(5) 0.0088(5) 0. 0.0025(4) 0.
Ge1 Ge4+ 0.0062(3) 0.0089(3) 0.0079(3) -0.0013(2) 0.00246(19) -0.0006(2)
O1 O2- 0.0122(18) 0.0090(17) 0.021(2) -0.0072(15) 0.0057(15) -0.0023(15)
O2 O2- 0.0057(16) 0.0083(17) 0.0103(17) -0.0039(13) 0.0007(13) 0.0006(14)
O3 O2- 0.0080(18) 0.027(2) 0.0113(19) 0.0005(16) 0.0024(15) -0.0091(16)
#End of TTdata_196086-ICSD