
#(C) 2019 by FIZ Karlsruhe - Leibniz Institute for Information Infrastructure.  All rights reserved.
data_196083-ICSD
_database_code_ICSD 196083
_audit_creation_date 2016-02-01
_chemical_name_systematic 'Lithium-0.37 sodium-0.63 iron hexaoxodigermanate'
_chemical_formula_structural '(Li0.37 Na0.63) Fe (Ge2 O6)'
_chemical_formula_sum 'Fe1 Ge2 Li0.37 Na0.63 O6'
_chemical_name_structure_type Pyroxene-MgSiO3-LT
_chemical_name_mineral 'Clinopyroxene - (Li,Na,Fe,Ge)'
_exptl_crystal_density_diffrn 4.5
_cell_measurement_temperature 293.
_publ_section_title

;
The (Na,Li) Fe Ge2 O6 clinopyroxene-type series: a temperature-dependent
single-crystal X-ray diffraction and (57)Fe Moessbauer spectroscopic study
;
loop_
_citation_id
_citation_journal_full
_citation_year
_citation_journal_volume
_citation_page_first
_citation_page_last
_citation_journal_id_ASTM
primary 'Physics and Chemistry of Minerals' 2016 43 1 22 PCMIDU
loop_
_publ_author_name
'Redhammer, Guenther J.'
'Tippelt, Gerold'
_cell_length_a 10.0175(9)
_cell_length_b 8.8433(8)
_cell_length_c 5.5210(5)
_cell_angle_alpha 90
_cell_angle_beta 108.635(7)
_cell_angle_gamma 90
_cell_volume 463.45
_cell_formula_units_Z 4
_symmetry_space_group_name_H-M 'P 1 21/c 1'
_symmetry_Int_Tables_number 14
_refine_ls_R_factor_all 0.0432
loop_
_symmetry_equiv_pos_site_id
_symmetry_equiv_pos_as_xyz
1 'x, -y+1/2, z+1/2'
2 '-x, -y, -z'
3 '-x, y+1/2, -z+1/2'
4 'x, y, z'
loop_
_atom_type_symbol
_atom_type_oxidation_number
Li1+ 1
Na1+ 1
Fe3+ 3
Ge4+ 4
O2- -2
loop_
_atom_site_label
_atom_site_type_symbol
_atom_site_symmetry_multiplicity
_atom_site_Wyckoff_symbol
_atom_site_fract_x
_atom_site_fract_y
_atom_site_fract_z
_atom_site_B_iso_or_equiv
_atom_site_occupancy
_atom_site_attached_hydrogens
Li1 Li1+ 4 e 0.2549(9) 0.4581(5) 0.7460(13) 0.0182(14) 0.372(13) 0
Na1 Na1+ 4 e 0.2549(9) 0.4581(5) 0.7460(13) 0.0182(14) 0.628(13) 0
Fe1 Fe3+ 4 e 0.2505(2) 0.65427(11) 0.2416(3) 0.0068(2) 0.998 0
Ge1 Ge4+ 4 e 0.03928(11) 0.34347(14) 0.24452(19) 0.0067(3) 1 0
Ge2 Ge4+ 4 e 0.54093(12) 0.84282(14) 0.23537(19) 0.0069(3) 1 0
O1 O2- 4 e -0.1453(7) 0.3326(8) 0.1410(11) 0.0079(14) 1 0
O2 O2- 4 e 0.1083(9) 0.5234(8) 0.2859(13) 0.0117(17) 1 0
O3 O2- 4 e 0.1118(8) 0.2647(8) 0.5505(13) 0.0098(16) 1 0
O4 O2- 4 e 0.3560(7) 0.8333(8) 0.1284(12) 0.0089(14) 1 0
O5 O2- 4 e 0.6087(8) 1.0214(9) 0.3114(14) 0.0168(18) 1 0
O6 O2- 4 e 0.6130(8) 0.7406(9) 0.5224(12) 0.019(2) 1 0
loop_
_atom_site_aniso_label
_atom_site_aniso_type_symbol
_atom_site_aniso_U_11
_atom_site_aniso_U_22
_atom_site_aniso_U_33
_atom_site_aniso_U_12
_atom_site_aniso_U_13
_atom_site_aniso_U_23
Li1 Li1+ 0.015(3) 0.019(3) 0.019(2) -0.005(4) 0.0027(18) -0.005(3)
Na1 Na1+ 0.015(3) 0.019(3) 0.019(2) -0.005(4) 0.0027(18) -0.005(3)
Fe1 Fe3+ 0.0055(5) 0.0057(5) 0.0093(5) -0.0002(9) 0.0026(4) -0.0003(8)
Ge1 Ge4+ 0.0041(6) 0.0082(6) 0.0084(5) -0.0014(5) 0.0029(4) -0.0010(4)
Ge2 Ge4+ 0.0055(6) 0.0069(6) 0.0079(5) -0.0014(5) 0.0017(4) -0.0003(4)
O1 O2- 0.005(4) 0.008(4) 0.009(3) -0.004(3) -0.001(3) 0.001(3)
O2 O2- 0.019(5) 0.005(4) 0.013(3) -0.009(3) 0.007(3) 0.001(3)
O3 O2- 0.005(4) 0.013(4) 0.011(3) -0.004(3) 0.001(3) 0.003(3)
O4 O2- 0.002(4) 0.009(4) 0.016(3) 0.004(4) 0.004(3) 0.006(3)
O5 O2- 0.003(4) 0.018(5) 0.031(4) -0.004(3) 0.007(3) -0.010(3)
O6 O2- 0.011(5) 0.035(6) 0.009(4) 0.002(3) -0.001(3) 0.019(3)
#End of TTdata_196083-ICSD