
#(C) 2019 by FIZ Karlsruhe - Leibniz Institute for Information Infrastructure.  All rights reserved.
data_196095-ICSD
_database_code_ICSD 196095
_audit_creation_date 2016-02-01
_chemical_name_systematic 'Sodium iron hexaoxodigermanate'
_chemical_formula_structural 'Na Fe (Ge2 O6)'
_chemical_formula_sum 'Fe1 Ge2 Na1 O6'
_chemical_name_structure_type Pyroxene-CaMg(SiO3)2
_chemical_name_mineral 'Clinopyroxene - (Na,Fe,Ge)'
_exptl_crystal_density_diffrn 4.52
_cell_measurement_temperature 293.
_publ_section_title

;
The (Na,Li) Fe Ge2 O6 clinopyroxene-type series: a temperature-dependent
single-crystal X-ray diffraction and (57)Fe Moessbauer spectroscopic study
;
loop_
_citation_id
_citation_journal_full
_citation_year
_citation_journal_volume
_citation_page_first
_citation_page_last
_citation_journal_id_ASTM
primary 'Physics and Chemistry of Minerals' 2016 43 1 22 PCMIDU
loop_
_publ_author_name
'Redhammer, Guenther J.'
'Tippelt, Gerold'
_cell_length_a 10.0072(10)
_cell_length_b 8.9382(6)
_cell_length_c 5.5187(5)
_cell_angle_alpha 90.
_cell_angle_beta 107.523(7)
_cell_angle_gamma 90.
_cell_volume 470.72
_cell_formula_units_Z 4
_symmetry_space_group_name_H-M 'C 1 2/c 1'
_symmetry_Int_Tables_number 15
_refine_ls_R_factor_all 0.0182
loop_
_symmetry_equiv_pos_site_id
_symmetry_equiv_pos_as_xyz
1 'x, -y, z+1/2'
2 '-x, -y, -z'
3 '-x, y, -z+1/2'
4 'x, y, z'
5 'x+1/2, -y+1/2, z+1/2'
6 '-x+1/2, -y+1/2, -z'
7 '-x+1/2, y+1/2, -z+1/2'
8 'x+1/2, y+1/2, z'
loop_
_atom_type_symbol
_atom_type_oxidation_number
Na1+ 1
Fe3+ 3
Ge4+ 4
O2- -2
loop_
_atom_site_label
_atom_site_type_symbol
_atom_site_symmetry_multiplicity
_atom_site_Wyckoff_symbol
_atom_site_fract_x
_atom_site_fract_y
_atom_site_fract_z
_atom_site_B_iso_or_equiv
_atom_site_occupancy
_atom_site_attached_hydrogens
Na1 Na1+ 4 e 0. 0.30052(17) 0.25 0.0160(3) 1 0
Fe1 Fe3+ 4 e 0. 0.90366(5) 0.25 0.00680(16) 1 0
Ge1 Ge4+ 8 f 0.28804(2) 0.09378(3) 0.22852(5) 0.00664(15) 1 0
O1 O2- 8 f 0.35703(18) 0.2714(2) 0.2983(3) 0.0119(4) 1 0
O2 O2- 8 f 0.10557(19) 0.08024(18) 0.1306(3) 0.0078(4) 1 0
O3 O2- 8 f 0.36115(16) 0.0066(2) 0.0142(3) 0.0116(4) 1 0
loop_
_atom_site_aniso_label
_atom_site_aniso_type_symbol
_atom_site_aniso_U_11
_atom_site_aniso_U_22
_atom_site_aniso_U_33
_atom_site_aniso_U_12
_atom_site_aniso_U_13
_atom_site_aniso_U_23
Na1 Na1+ 0.0174(7) 0.0115(7) 0.0163(7) 0. 0.0007(6) 0.
Fe1 Fe3+ 0.0066(3) 0.0062(3) 0.0073(3) 0. 0.0018(2) 0.
Ge1 Ge4+ 0.00598(19) 0.0066(2) 0.0072(2) -0.00066(7) 0.00184(12) -0.00032(7)
O1 O2- 0.0127(8) 0.0084(8) 0.0154(8) -0.0035(6) 0.0052(7) -0.0022(6)
O2 O2- 0.0062(8) 0.0086(8) 0.0086(8) -0.0007(6) 0.0018(6) 0.0006(6)
O3 O2- 0.0092(8) 0.0149(10) 0.0103(9) 0.0006(6) 0.0026(7) -0.0048(6)
#End of TTdata_196095-ICSD