
#(C) 2019 by FIZ Karlsruhe - Leibniz Institute for Information Infrastructure.  All rights reserved.
data_196080-ICSD
_database_code_ICSD 196080
_audit_creation_date 2016-02-01
_chemical_name_systematic 'Lithium-0.38 sodium-0.62 iron hexaoxodigermanate'
_chemical_formula_structural '(Li0.38 Na0.62) Fe (Ge2 O6)'
_chemical_formula_sum 'Fe1 Ge2 Li0.38 Na0.62 O6'
_chemical_name_structure_type Pyroxene-MgSiO3-LT
_chemical_name_mineral 'Clinopyroxene - (Li,Na,Fe,Ge)'
_exptl_crystal_density_diffrn 4.51
_cell_measurement_temperature 293.
_publ_section_title

;
The (Na,Li) Fe Ge2 O6 clinopyroxene-type series: a temperature-dependent
single-crystal X-ray diffraction and (57)Fe Moessbauer spectroscopic study
;
loop_
_citation_id
_citation_journal_full
_citation_year
_citation_journal_volume
_citation_page_first
_citation_page_last
_citation_journal_id_ASTM
primary 'Physics and Chemistry of Minerals' 2016 43 1 22 PCMIDU
loop_
_publ_author_name
'Redhammer, Guenther J.'
'Tippelt, Gerold'
_cell_length_a 9.9927(8)
_cell_length_b 8.8636(7)
_cell_length_c 5.5005(5)
_cell_angle_alpha 90
_cell_angle_beta 108.433(7)
_cell_angle_gamma 90
_cell_volume 462.19
_cell_formula_units_Z 4
_symmetry_space_group_name_H-M 'P 1 21/c 1'
_symmetry_Int_Tables_number 14
_refine_ls_R_factor_all 0.0301
loop_
_symmetry_equiv_pos_site_id
_symmetry_equiv_pos_as_xyz
1 'x, -y+1/2, z+1/2'
2 '-x, -y, -z'
3 '-x, y+1/2, -z+1/2'
4 'x, y, z'
loop_
_atom_type_symbol
_atom_type_oxidation_number
Li1+ 1
Na1+ 1
Fe3+ 3
Ge4+ 4
O2- -2
loop_
_atom_site_label
_atom_site_type_symbol
_atom_site_symmetry_multiplicity
_atom_site_Wyckoff_symbol
_atom_site_fract_x
_atom_site_fract_y
_atom_site_fract_z
_atom_site_B_iso_or_equiv
_atom_site_occupancy
_atom_site_attached_hydrogens
Li1 Li1+ 4 e 0.2589(5) 0.4592(4) 0.7421(7) 0.0171(11) 0.380(9) 0
Na1 Na1+ 4 e 0.2589(5) 0.4592(4) 0.7421(7) 0.0171(11) 0.620(9) 0
Fe1 Fe3+ 4 e 0.25069(12) 0.65334(8) 0.23501(18) 0.00695(18) 0.998 0
Ge1 Ge4+ 4 e 0.03969(7) 0.34338(8) 0.24937(12) 0.00756(18) 1 0
Ge2 Ge4+ 4 e 0.54291(7) 0.84248(8) 0.23212(12) 0.00697(18) 1 0
O1 O2- 4 e -0.1452(4) 0.3327(5) 0.1495(7) 0.0096(9) 1 0
O2 O2- 4 e 0.1086(5) 0.5236(5) 0.2840(7) 0.0097(10) 1 0
O3 O2- 4 e 0.1115(5) 0.2699(5) 0.5612(8) 0.0134(10) 1 0
O4 O2- 4 e 0.3576(4) 0.8318(5) 0.1194(7) 0.0084(9) 1 0
O5 O2- 4 e 0.6115(5) 1.0187(5) 0.3292(8) 0.0134(11) 1 0
O6 O2- 4 e 0.6149(4) 0.7266(5) 0.5021(7) 0.0118(10) 1 0
loop_
_atom_site_aniso_label
_atom_site_aniso_type_symbol
_atom_site_aniso_U_11
_atom_site_aniso_U_22
_atom_site_aniso_U_33
_atom_site_aniso_U_12
_atom_site_aniso_U_13
_atom_site_aniso_U_23
Li1 Li1+ 0.015(2) 0.0187(19) 0.0138(17) -0.005(2) -0.0005(13) -0.0017(18)
Na1 Na1+ 0.015(2) 0.0187(19) 0.0138(17) -0.005(2) -0.0005(13) -0.0017(18)
Fe1 Fe3+ 0.0060(4) 0.0064(4) 0.0083(4) 0.0004(6) 0.0021(3) -0.0002(5)
Ge1 Ge4+ 0.0056(4) 0.0078(4) 0.0097(3) -0.0008(3) 0.0030(3) -0.0002(3)
Ge2 Ge4+ 0.0059(4) 0.0068(4) 0.0083(3) -0.0005(3) 0.0025(3) -0.0007(3)
O1 O2- 0.008(2) 0.011(2) 0.0105(19) 0.003(2) 0.0035(17) 0.0017(19)
O2 O2- 0.007(2) 0.011(3) 0.010(2) -0.0031(19) 0.0022(17) 0.0002(17)
O3 O2- 0.007(3) 0.021(3) 0.012(2) 0.005(2) 0.0024(18) 0.008(2)
O4 O2- 0.005(2) 0.007(2) 0.013(2) 0.001(2) 0.0023(17) 0.0050(18)
O5 O2- 0.015(3) 0.011(3) 0.019(2) -0.006(2) 0.012(2) -0.0054(18)
O6 O2- 0.005(2) 0.019(3) 0.011(2) 0.0005(19) 0.0004(19) 0.0071(17)
#End of TTdata_196080-ICSD