
#(C) 2019 by FIZ Karlsruhe - Leibniz Institute for Information Infrastructure.  All rights reserved.
data_196091-ICSD
_database_code_ICSD 196091
_audit_creation_date 2016-02-01
_chemical_name_systematic 'Lithium-0.40 sodium-0.60 iron hexaoxodigermanate'
_chemical_formula_structural '(Li0.40 Na0.60) Fe (Ge2 O6)'
_chemical_formula_sum 'Fe1 Ge2 Li0.4 Na0.6 O6'
_chemical_name_structure_type Pyroxene-CaMg(SiO3)2
_chemical_name_mineral 'Clinopyroxene - (Li,Na,Fe,Ge)'
_exptl_crystal_density_diffrn 4.48
_cell_measurement_temperature 293.
_publ_section_title

;
The (Na,Li) Fe Ge2 O6 clinopyroxene-type series: a temperature-dependent
single-crystal X-ray diffraction and (57)Fe Moessbauer spectroscopic study
;
loop_
_citation_id
_citation_journal_full
_citation_year
_citation_journal_volume
_citation_page_first
_citation_page_last
_citation_journal_id_ASTM
primary 'Physics and Chemistry of Minerals' 2016 43 1 22 PCMIDU
loop_
_publ_author_name
'Redhammer, Guenther J.'
'Tippelt, Gerold'
_cell_length_a 10.0291(9)
_cell_length_b 8.8405(8)
_cell_length_c 5.5310(5)
_cell_angle_alpha 90
_cell_angle_beta 108.685(2)
_cell_angle_gamma 90
_cell_volume 464.54
_cell_formula_units_Z 4
_symmetry_space_group_name_H-M 'C 1 2/c 1'
_symmetry_Int_Tables_number 15
_refine_ls_R_factor_all 0.0278
loop_
_symmetry_equiv_pos_site_id
_symmetry_equiv_pos_as_xyz
1 'x, -y, z+1/2'
2 '-x, -y, -z'
3 '-x, y, -z+1/2'
4 'x, y, z'
5 'x+1/2, -y+1/2, z+1/2'
6 '-x+1/2, -y+1/2, -z'
7 '-x+1/2, y+1/2, -z+1/2'
8 'x+1/2, y+1/2, z'
loop_
_atom_type_symbol
_atom_type_oxidation_number
Na1+ 1
Li1+ 1
Fe3+ 3
Ge4+ 4
O2- -2
loop_
_atom_site_label
_atom_site_type_symbol
_atom_site_symmetry_multiplicity
_atom_site_Wyckoff_symbol
_atom_site_fract_x
_atom_site_fract_y
_atom_site_fract_z
_atom_site_B_iso_or_equiv
_atom_site_occupancy
_atom_site_attached_hydrogens
Na1 Na1+ 4 e 0. 0.2929(5) 0.25 0.0197(9) 0.603(3) 0
Li1 Li1+ 4 e 0. 0.2929(5) 0.25 0.0197(9) 0.397(3) 0
Fe1 Fe3+ 4 e 0. 0.90447(10) 0.25 0.0083(2) 1 0
Ge1 Ge4+ 8 f 0.28941(5) 0.09314(5) 0.23892(9) 0.00827(18) 1 0
O1 O2- 8 f 0.3572(4) 0.2735(4) 0.2939(7) 0.0157(7) 1 0
O2 O2- 8 f 0.1053(3) 0.0832(4) 0.1359(6) 0.0091(6) 1 0
O3 O2- 8 f 0.3621(3) -0.0059(4) 0.0387(6) 0.0165(8) 1 0
loop_
_atom_site_aniso_label
_atom_site_aniso_type_symbol
_atom_site_aniso_U_11
_atom_site_aniso_U_22
_atom_site_aniso_U_33
_atom_site_aniso_U_12
_atom_site_aniso_U_13
_atom_site_aniso_U_23
Na1 Na1+ 0.021(2) 0.015(2) 0.021(2) 0. 0.0031(18) 0.
Li1 Li1+ 0.021(2) 0.015(2) 0.021(2) 0. 0.0031(18) 0.
Fe1 Fe3+ 0.0083(4) 0.0079(4) 0.0088(4) 0. 0.0031(3) 0.
Ge1 Ge4+ 0.0071(3) 0.0094(3) 0.0085(3) -0.0018(2) 0.00276(18) -0.00092(18)
O1 O2- 0.0162(18) 0.0103(16) 0.0230(18) -0.0053(14) 0.0096(15) -0.0013(14)
O2 O2- 0.0067(15) 0.0104(16) 0.0099(15) -0.0002(12) 0.0020(12) 0.0024(13)
O3 O2- 0.0102(17) 0.027(2) 0.0114(17) 0.0018(14) 0.0016(14) -0.0099(14)
#End of TTdata_196091-ICSD