
#(C) 2019 by FIZ Karlsruhe - Leibniz Institute for Information Infrastructure.  All rights reserved.
data_196074-ICSD
_database_code_ICSD 196074
_audit_creation_date 2016-02-01
_chemical_name_systematic 'Lithium-0.41 sodium-0.59 iron hexaoxodigermanate'
_chemical_formula_structural '(Li0.41 Na0.59) Fe (Ge2 O6)'
_chemical_formula_sum 'Fe1 Ge2 Li0.41 Na0.59 O6'
_chemical_name_structure_type Pyroxene-MgSiO3-LT
_chemical_name_mineral 'Clinopyroxene - (Li,Na,Fe,Ge)'
_exptl_crystal_density_diffrn 4.53
_cell_measurement_temperature 293.
_publ_section_title

;
The (Na,Li) Fe Ge2 O6 clinopyroxene-type series: a temperature-dependent
single-crystal X-ray diffraction and (57)Fe Moessbauer spectroscopic study
;
loop_
_citation_id
_citation_journal_full
_citation_year
_citation_journal_volume
_citation_page_first
_citation_page_last
_citation_journal_id_ASTM
primary 'Physics and Chemistry of Minerals' 2016 43 1 22 PCMIDU
loop_
_publ_author_name
'Redhammer, Guenther J.'
'Tippelt, Gerold'
_cell_length_a 9.9727(8)
_cell_length_b 8.8601(7)
_cell_length_c 5.4851(5)
_cell_angle_alpha 90
_cell_angle_beta 108.362(7)
_cell_angle_gamma 90
_cell_volume 459.98
_cell_formula_units_Z 4
_symmetry_space_group_name_H-M 'P 1 21/c 1'
_symmetry_Int_Tables_number 14
_refine_ls_R_factor_all 0.0213
loop_
_symmetry_equiv_pos_site_id
_symmetry_equiv_pos_as_xyz
1 'x, -y+1/2, z+1/2'
2 '-x, -y, -z'
3 '-x, y+1/2, -z+1/2'
4 'x, y, z'
loop_
_atom_type_symbol
_atom_type_oxidation_number
Li1+ 1
Na1+ 1
Fe3+ 3
Ge4+ 4
O2- -2
loop_
_atom_site_label
_atom_site_type_symbol
_atom_site_symmetry_multiplicity
_atom_site_Wyckoff_symbol
_atom_site_fract_x
_atom_site_fract_y
_atom_site_fract_z
_atom_site_B_iso_or_equiv
_atom_site_occupancy
_atom_site_attached_hydrogens
Li1 Li1+ 4 e 0.2588(10) 0.4604(7) 0.7396(14) 0.012(3) 0.413(17) 0
Na1 Na1+ 4 e 0.2588(10) 0.4604(7) 0.7396(14) 0.012(3) 0.587(17) 0
Fe1 Fe3+ 4 e 0.2506(3) 0.65330(18) 0.2325(4) 0.0063(8) 0.998 0
Ge1 Ge4+ 4 e 0.04004(16) 0.34329(17) 0.2510(3) 0.0067(8) 1 0
Ge2 Ge4+ 4 e 0.54391(16) 0.84241(17) 0.2316(3) 0.0060(8) 1 0
O1 O2- 4 e -0.1442(9) 0.3325(10) 0.1496(15) 0.006(2) 1 0
O2 O2- 4 e 0.1089(10) 0.5216(9) 0.2833(15) 0.007(3) 1 0
O3 O2- 4 e 0.1111(10) 0.2703(10) 0.5620(16) 0.011(3) 1 0
O4 O2- 4 e 0.3586(9) 0.8329(9) 0.1177(16) 0.006(3) 1 0
O5 O2- 4 e 0.6120(10) 1.0193(10) 0.3346(15) 0.012(3) 1 0
O6 O2- 4 e 0.6141(9) 0.7218(10) 0.4947(13) 0.006(3) 1 0
loop_
_atom_site_aniso_label
_atom_site_aniso_type_symbol
_atom_site_aniso_U_11
_atom_site_aniso_U_22
_atom_site_aniso_U_33
_atom_site_aniso_U_12
_atom_site_aniso_U_13
_atom_site_aniso_U_23
Li1 Li1+ 0.007(5) 0.018(6) 0.007(5) -0.005(5) -0.001(4) -0.004(5)
Na1 Na1+ 0.007(5) 0.018(6) 0.007(5) -0.005(5) -0.001(4) -0.004(5)
Fe1 Fe3+ 0.0058(13) 0.0054(13) 0.0090(14) -0.0007(15) 0.0044(11) 0.0003(12)
Ge1 Ge4+ 0.0051(15) 0.0069(13) 0.0092(12) -0.0005(9) 0.0040(9) -0.0005(8)
Ge2 Ge4+ 0.0066(14) 0.0052(14) 0.0080(11) -0.0002(9) 0.0048(9) -0.0004(9)
O1 O2- 0.004(7) 0.004(6) 0.010(5) 0.005(5) 0.005(5) 0.003(5)
O2 O2- 0.011(7) -0.001(7) 0.010(5) -0.002(5) 0.003(5) -0.001(4)
O3 O2- 0.004(7) 0.015(7) 0.016(6) 0.005(4) 0.007(5) 0.015(5)
O4 O2- 0.001(6) 0.007(6) 0.012(5) -0.003(5) 0.005(5) -0.004(5)
O5 O2- 0.006(7) 0.008(6) 0.022(6) 0.005(5) 0.007(5) 0.002(5)
O6 O2- 0.007(7) 0.010(6) 0.002(5) 0.003(5) 0.004(5) 0.002(4)
#End of TTdata_196074-ICSD