
#(C) 2019 by FIZ Karlsruhe - Leibniz Institute for Information Infrastructure.  All rights reserved.
data_196100-ICSD
_database_code_ICSD 196100
_audit_creation_date 2016-02-01
_chemical_name_systematic 'Lithium-0.59 sodium-0.41 iron hexaoxodigermanate'
_chemical_formula_structural '(Li0.59 Na0.41) Fe (Ge2 O6)'
_chemical_formula_sum 'Fe1 Ge2 Li0.59 Na0.41 O6'
_chemical_name_structure_type Pyroxene-MgSiO3-LT
_chemical_name_mineral 'Clinopyroxene - (Li,Na,Fe,Ge)'
_exptl_crystal_density_diffrn 4.5
_cell_measurement_temperature 293.
_publ_section_title

;
The (Na,Li) Fe Ge2 O6 clinopyroxene-type series: a temperature-dependent
single-crystal X-ray diffraction and (57)Fe Moessbauer spectroscopic study
;
loop_
_citation_id
_citation_journal_full
_citation_year
_citation_journal_volume
_citation_page_first
_citation_page_last
_citation_journal_id_ASTM
primary 'Physics and Chemistry of Minerals' 2016 43 1 22 PCMIDU
loop_
_publ_author_name
'Redhammer, Guenther J.'
'Tippelt, Gerold'
_cell_length_a 9.9654(5)
_cell_length_b 8.8783(6)
_cell_length_c 5.4654(4)
_cell_angle_alpha 90.
_cell_angle_beta 108.629(3)
_cell_angle_gamma 90.
_cell_volume 458.22
_cell_formula_units_Z 4
_symmetry_space_group_name_H-M 'P 1 21/c 1'
_symmetry_Int_Tables_number 14
_refine_ls_R_factor_all 0.0171
loop_
_symmetry_equiv_pos_site_id
_symmetry_equiv_pos_as_xyz
1 'x, -y+1/2, z+1/2'
2 '-x, -y, -z'
3 '-x, y+1/2, -z+1/2'
4 'x, y, z'
loop_
_atom_type_symbol
_atom_type_oxidation_number
Li1+ 1
Na1+ 1
Fe3+ 3
Ge4+ 4
O2- -2
loop_
_atom_site_label
_atom_site_type_symbol
_atom_site_symmetry_multiplicity
_atom_site_Wyckoff_symbol
_atom_site_fract_x
_atom_site_fract_y
_atom_site_fract_z
_atom_site_B_iso_or_equiv
_atom_site_occupancy
_atom_site_attached_hydrogens
Li1 Li1+ 4 e 0.26020(18) 0.4650(2) 0.7376(3) 0.0216(7) 0.593(7) 0
Na1 Na1+ 4 e 0.26020(18) 0.4650(2) 0.7376(3) 0.0216(7) 0.407(7) 0
Fe1 Fe3+ 4 e 0.25059(3) 0.65225(4) 0.22728(6) 0.00762(11) 1. 0
Ge1 Ge4+ 4 e 0.04174(2) 0.34273(3) 0.25929(5) 0.00860(10) 1 0
Ge2 Ge4+ 4 e 0.54602(2) 0.84173(3) 0.23201(5) 0.00817(10) 1 0
O1 O2- 4 e -0.14388(17) 0.33190(16) 0.1585(3) 0.0094(3) 1 0
O2 O2- 4 e 0.11062(17) 0.52204(18) 0.2825(3) 0.0158(4) 1 0
O3 O2- 4 e 0.11239(17) 0.2781(2) 0.5801(3) 0.0162(4) 1 0
O4 O2- 4 e 0.36054(17) 0.83226(16) 0.1150(3) 0.0095(3) 1 0
O5 O2- 4 e 0.61740(18) 1.01396(18) 0.3489(3) 0.0173(4) 1 0
O6 O2- 4 e 0.61419(16) 0.7129(2) 0.4864(3) 0.0163(4) 1 0
loop_
_atom_site_aniso_label
_atom_site_aniso_type_symbol
_atom_site_aniso_U_11
_atom_site_aniso_U_22
_atom_site_aniso_U_33
_atom_site_aniso_U_12
_atom_site_aniso_U_13
_atom_site_aniso_U_23
Li1 Li1+ 0.0220(12) 0.0252(12) 0.0159(11) -0.0071(7) 0.0037(8) -0.0040(7)
Na1 Na1+ 0.0220(12) 0.0252(12) 0.0159(11) -0.0071(7) 0.0037(8) -0.0040(7)
Fe1 Fe3+ 0.00740(19) 0.00773(19) 0.00772(19) -0.00006(12) 0.00239(14)
0.00024(11)
Ge1 Ge4+ 0.00751(15) 0.00984(16) 0.00874(15) -0.00132(8) 0.00301(10) -0.00031(8)
Ge2 Ge4+ 0.00765(15) 0.00882(15) 0.00811(15) -0.00132(8) 0.00261(10) -0.00072(8)
O1 O2- 0.0069(8) 0.0104(8) 0.0104(8) -0.0010(6) 0.0020(6) 0.0000(6)
O2 O2- 0.0155(9) 0.0123(9) 0.0213(9) -0.0055(7) 0.0083(7) -0.0022(7)
O3 O2- 0.0100(8) 0.0254(9) 0.0134(8) -0.0008(7) 0.0038(6) 0.0077(7)
O4 O2- 0.0068(8) 0.0115(8) 0.0095(8) -0.0004(6) 0.0018(6) 0.0003(6)
O5 O2- 0.0187(9) 0.0129(9) 0.0246(9) -0.0079(7) 0.0130(7) -0.0074(7)
O6 O2- 0.0105(8) 0.0260(10) 0.0132(8) 0.0020(7) 0.0048(7) 0.0084(7)
#End of TTdata_196100-ICSD