
#(C) 2019 by FIZ Karlsruhe - Leibniz Institute for Information Infrastructure.  All rights reserved.
data_196107-ICSD
_database_code_ICSD 196107
_audit_creation_date 2016-02-01
_chemical_name_systematic 'Lithium-0.21 sodium-0.79 iron hexaoxodigermanate'
_chemical_formula_structural '(Li0.21 Na0.79) Fe (Ge2 O6)'
_chemical_formula_sum 'Fe1 Ge2 Li0.21 Na0.79 O6'
_chemical_name_structure_type Pyroxene-CaMg(SiO3)2
_chemical_name_mineral 'Clinopyroxene - (Li,Na,Fe,Ge)'
_exptl_crystal_density_diffrn 4.5
_cell_measurement_temperature 293.
_publ_section_title

;
The (Na,Li) Fe Ge2 O6 clinopyroxene-type series: a temperature-dependent
single-crystal X-ray diffraction and (57)Fe Moessbauer spectroscopic study
;
loop_
_citation_id
_citation_journal_full
_citation_year
_citation_journal_volume
_citation_page_first
_citation_page_last
_citation_journal_id_ASTM
primary 'Physics and Chemistry of Minerals' 2016 43 1 22 PCMIDU
loop_
_publ_author_name
'Redhammer, Guenther J.'
'Tippelt, Gerold'
_cell_length_a 10.0190(10)
_cell_length_b 8.8925(8)
_cell_length_c 5.5249(5)
_cell_angle_alpha 90.
_cell_angle_beta 108.1265(10)
_cell_angle_gamma 90.
_cell_volume 467.8
_cell_formula_units_Z 4
_symmetry_space_group_name_H-M 'C 1 2/c 1'
_symmetry_Int_Tables_number 15
_refine_ls_R_factor_all 0.014
loop_
_symmetry_equiv_pos_site_id
_symmetry_equiv_pos_as_xyz
1 'x, -y, z+1/2'
2 '-x, -y, -z'
3 '-x, y, -z+1/2'
4 'x, y, z'
5 'x+1/2, -y+1/2, z+1/2'
6 '-x+1/2, -y+1/2, -z'
7 '-x+1/2, y+1/2, -z+1/2'
8 'x+1/2, y+1/2, z'
loop_
_atom_type_symbol
_atom_type_oxidation_number
Na1+ 1
Li1+ 1
Fe3+ 3
Ge4+ 4
O2- -2
loop_
_atom_site_label
_atom_site_type_symbol
_atom_site_symmetry_multiplicity
_atom_site_Wyckoff_symbol
_atom_site_fract_x
_atom_site_fract_y
_atom_site_fract_z
_atom_site_B_iso_or_equiv
_atom_site_occupancy
_atom_site_attached_hydrogens
Na1 Na1+ 4 e 0. 0.29580(18) 0.25 0.0162(4) 0.789(4) 0
Li1 Li1+ 4 e 0. 0.29580(18) 0.25 0.0162(4) 0.211(4) 0
Fe1 Fe3+ 4 e 0. 0.90400(5) 0.25 0.00713(12) 1 0
Ge1 Ge4+ 8 f 0.28900(2) 0.09345(3) 0.23425(4) 0.00777(10) 1 0
O1 O2- 8 f 0.35708(18) 0.27217(19) 0.2960(3) 0.0141(3) 1 0
O2 O2- 8 f 0.10566(17) 0.08185(17) 0.1332(3) 0.0089(3) 1 0
O3 O2- 8 f 0.36201(16) 0.0004(2) 0.0273(3) 0.0151(4) 1 0
loop_
_atom_site_aniso_label
_atom_site_aniso_type_symbol
_atom_site_aniso_U_11
_atom_site_aniso_U_22
_atom_site_aniso_U_33
_atom_site_aniso_U_12
_atom_site_aniso_U_13
_atom_site_aniso_U_23
Na1 Na1+ 0.0192(8) 0.0123(8) 0.0135(8) 0. 0.0002(6) 0.
Li1 Li1+ 0.0192(8) 0.0123(8) 0.0135(8) 0. 0.0002(6) 0.
Fe1 Fe3+ 0.0072(2) 0.0070(2) 0.0067(2) 0. 0.00141(17) 0.
Ge1 Ge4+ 0.00737(14) 0.00865(14) 0.00714(14) -0.00107(9) 0.00203(9) -0.00049(9)
O1 O2- 0.0155(8) 0.0113(8) 0.0168(8) -0.0055(7) 0.0067(7) -0.0028(7)
O2 O2- 0.0075(7) 0.0100(8) 0.0083(7) -0.0011(6) 0.0011(6) 0.0009(6)
O3 O2- 0.0104(8) 0.0228(10) 0.0116(8) 0.0005(7) 0.0026(6) -0.0071(6)
#End of TTdata_196107-ICSD