
#(C) 2019 by FIZ Karlsruhe - Leibniz Institute for Information Infrastructure.  All rights reserved.
data_196102-ICSD
_database_code_ICSD 196102
_audit_creation_date 2016-02-01
_chemical_name_systematic 'Lithium-0.51 sodium-0.49 iron hexaoxodigermanate'
_chemical_formula_structural '(Li0.51 Na0.49) Fe (Ge2 O6)'
_chemical_formula_sum 'Fe1 Ge2 Li0.51 Na0.49 O6'
_chemical_name_structure_type Pyroxene-CaMg(SiO3)2
_chemical_name_mineral 'Clinopyroxene - (Li,Na,Fe,Ge)'
_exptl_crystal_density_diffrn 4.47
_cell_measurement_temperature 293.
_publ_section_title

;
The (Na,Li) Fe Ge2 O6 clinopyroxene-type series: a temperature-dependent
single-crystal X-ray diffraction and (57)Fe Moessbauer spectroscopic study
;
loop_
_citation_id
_citation_journal_full
_citation_year
_citation_journal_volume
_citation_page_first
_citation_page_last
_citation_journal_id_ASTM
primary 'Physics and Chemistry of Minerals' 2016 43 1 22 PCMIDU
loop_
_publ_author_name
'Redhammer, Guenther J.'
'Tippelt, Gerold'
_cell_length_a 10.0390(11)
_cell_length_b 8.8206(8)
_cell_length_c 5.5324(5)
_cell_angle_alpha 90.
_cell_angle_beta 108.9116(12)
_cell_angle_gamma 90.
_cell_volume 463.44
_cell_formula_units_Z 4
_symmetry_space_group_name_H-M 'C 1 2/c 1'
_symmetry_Int_Tables_number 15
_refine_ls_R_factor_all 0.0197
loop_
_symmetry_equiv_pos_site_id
_symmetry_equiv_pos_as_xyz
1 'x, -y, z+1/2'
2 '-x, -y, -z'
3 '-x, y, -z+1/2'
4 'x, y, z'
5 'x+1/2, -y+1/2, z+1/2'
6 '-x+1/2, -y+1/2, -z'
7 '-x+1/2, y+1/2, -z+1/2'
8 'x+1/2, y+1/2, z'
loop_
_atom_type_symbol
_atom_type_oxidation_number
Na1+ 1
Li1+ 1
Fe3+ 3
Ge4+ 4
O2- -2
loop_
_atom_site_label
_atom_site_type_symbol
_atom_site_symmetry_multiplicity
_atom_site_Wyckoff_symbol
_atom_site_fract_x
_atom_site_fract_y
_atom_site_fract_z
_atom_site_B_iso_or_equiv
_atom_site_occupancy
_atom_site_attached_hydrogens
Na1 Na1+ 4 e 0. 0.2923(4) 0.25 0.0177(8) 0.492(4) 0
Li1 Li1+ 4 e 0. 0.2923(4) 0.25 0.0177(8) 0.508(4) 0
Fe1 Fe3+ 4 e 0. 0.90439(7) 0.25 0.00779(16) 1 0
Ge1 Ge4+ 8 f 0.28946(3) 0.09318(4) 0.24038(6) 0.00845(13) 1 0
O1 O2- 8 f 0.3570(3) 0.2736(3) 0.2940(4) 0.0169(5) 1 0
O2 O2- 8 f 0.1054(2) 0.0837(2) 0.1364(4) 0.0090(5) 1 0
O3 O2- 8 f 0.3620(2) -0.0078(3) 0.0423(4) 0.0172(6) 1 0
loop_
_atom_site_aniso_label
_atom_site_aniso_type_symbol
_atom_site_aniso_U_11
_atom_site_aniso_U_22
_atom_site_aniso_U_33
_atom_site_aniso_U_12
_atom_site_aniso_U_13
_atom_site_aniso_U_23
Na1 Na1+ 0.0196(18) 0.0161(18) 0.0145(16) 0. 0.0014(14) 0.
Li1 Li1+ 0.0196(18) 0.0161(18) 0.0145(16) 0. 0.0014(14) 0.
Fe1 Fe3+ 0.0069(3) 0.0089(3) 0.0073(3) 0. 0.0020(2) 0.
Ge1 Ge4+ 0.00696(18) 0.0109(2) 0.00757(19) -0.00158(16) 0.00248(13) -0.00063(14)
O1 O2- 0.0179(13) 0.0146(12) 0.0196(12) -0.0065(11) 0.0080(10) -0.0022(11)
O2 O2- 0.0061(10) 0.0128(12) 0.0073(11) 0.0000(9) 0.0011(9) 0.0014(9)
O3 O2- 0.0076(12) 0.0305(16) 0.0125(13) -0.0004(11) 0.0018(10) -0.0113(10)
#End of TTdata_196102-ICSD