
#(C) 2019 by FIZ Karlsruhe - Leibniz Institute for Information Infrastructure.  All rights reserved.
data_196275-ICSD
_database_code_ICSD 196275
_audit_creation_date 2016-02-01
_chemical_name_systematic 'Sodium-0.64 (magnesium-0.8 manganese-0.2) dioxide'
_chemical_formula_structural 'Na0.64 (Mn0.8 Mg0.2) O2'
_chemical_formula_sum 'Mg0.2 Mn0.8 Na0.64 O2'
_chemical_name_structure_type NaCo2O4
_exptl_crystal_density_diffrn 3.97
_publ_section_title

;
Rate dependent performance related to crystal structure evolution of Na0.67
Mn0.8 Mg0.2 O2 in a sodium-ion battery
;
loop_
_citation_id
_citation_journal_full
_citation_year
_citation_journal_volume
_citation_page_first
_citation_page_last
_citation_journal_id_ASTM
primary 'Chemistry of Materials' 2015 27 6976 6986 CMATEX
loop_
_publ_author_name
'Sharma, Neeraj'
'Tapia-Ruiz, Nuria'
'Singh, Gurpreet'
'Armstrong, A. Robert'
'Pramudita, James C.'
'Brand, Helen E.A.'
'Billaud, Juliette'
'Bruce, Peter G.'
'Rojo, Teofilo'
_cell_length_a 2.8717(1)
_cell_length_b 2.8717(1)
_cell_length_c 11.1811(2)
_cell_angle_alpha 90.
_cell_angle_beta 90.
_cell_angle_gamma 120.
_cell_volume 79.85
_cell_formula_units_Z 2
_symmetry_space_group_name_H-M 'P 63/m m c'
_symmetry_Int_Tables_number 194
_refine_ls_R_factor_all 0.0257
loop_
_symmetry_equiv_pos_site_id
_symmetry_equiv_pos_as_xyz
1 'x, x-y, -z+1/2'
2 '-x+y, y, -z+1/2'
3 '-y, -x, -z+1/2'
4 '-x+y, -x, -z+1/2'
5 '-y, x-y, -z+1/2'
6 'x, y, -z+1/2'
7 '-x, -x+y, z+1/2'
8 'x-y, -y, z+1/2'
9 'y, x, z+1/2'
10 'x-y, x, z+1/2'
11 'y, -x+y, z+1/2'
12 '-x, -y, z+1/2'
13 '-x, -x+y, -z'
14 'x-y, -y, -z'
15 'y, x, -z'
16 'x-y, x, -z'
17 'y, -x+y, -z'
18 '-x, -y, -z'
19 'x, x-y, z'
20 '-x+y, y, z'
21 '-y, -x, z'
22 '-x+y, -x, z'
23 '-y, x-y, z'
24 'x, y, z'
loop_
_atom_type_symbol
_atom_type_oxidation_number
Na1+ 1
Mn3+ 3.7
Mg2+ 2
O2- -2
loop_
_atom_site_label
_atom_site_type_symbol
_atom_site_symmetry_multiplicity
_atom_site_Wyckoff_symbol
_atom_site_fract_x
_atom_site_fract_y
_atom_site_fract_z
_atom_site_B_iso_or_equiv
_atom_site_occupancy
_atom_site_attached_hydrogens
Na1 Na1+ 2 b 0 0 0.25 0.0108 0.240(6) 0
Na2 Na1+ 2 d 0.3333 0.6667 0.75 0.06 0.40(1) 0
Mn1 Mn3+ 2 a 0 0 0 0.0034 0.8 0
Mg1 Mg2+ 2 a 0 0 0 0.0034 0.2 0
O1 O2- 4 f 0.3333 0.6667 0.0803(5) 0.014 1. 0
#End of TTdata_196275-ICSD