
#(C) 2019 by FIZ Karlsruhe - Leibniz Institute for Information Infrastructure.  All rights reserved.
data_1968-ICSD
_database_code_ICSD 1968
_audit_creation_date 1980-01-01
_audit_update_record 2010-02-01
_chemical_name_systematic 'Sodium decafluorotriantimonate(III)'
_chemical_formula_structural 'Na (Sb3 F10)'
_chemical_formula_sum 'F10 Na1 Sb3'
_exptl_crystal_density_diffrn 4.25
_publ_section_title 'Structure cristalline et moleculaire de Na Sb3 F10'
loop_
_citation_id
_citation_journal_full
_citation_year
_citation_journal_volume
_citation_page_first
_citation_page_last
_citation_journal_id_ASTM
primary

;
Acta Crystallographica, Section B: Structural Crystallography and Crystal
Chemistry
; 1975 31 2322 2326 ACBCAR
loop_
_publ_author_name
'Fourcade, R.'
'Mascherpa, G.'
'Philippot, E.'
_cell_length_a 8.285(3)
_cell_length_b 8.285(3)
_cell_length_c 7.600(3)
_cell_angle_alpha 90.
_cell_angle_beta 90.
_cell_angle_gamma 120.
_cell_volume 451.78
_cell_formula_units_Z 2
_symmetry_space_group_name_H-M 'P 63'
_symmetry_Int_Tables_number 173
_refine_ls_R_factor_all 0.049
loop_
_symmetry_equiv_pos_site_id
_symmetry_equiv_pos_as_xyz
1 'x-y, x, z+1/2'
2 'y, -x+y, z+1/2'
3 '-x, -y, z+1/2'
4 '-x+y, -x, z'
5 '-y, x-y, z'
6 'x, y, z'
loop_
_atom_type_symbol
_atom_type_oxidation_number
Sb3+ 3
Na1+ 1
F1- -1
loop_
_atom_site_label
_atom_site_type_symbol
_atom_site_symmetry_multiplicity
_atom_site_Wyckoff_symbol
_atom_site_fract_x
_atom_site_fract_y
_atom_site_fract_z
_atom_site_B_iso_or_equiv
_atom_site_occupancy
_atom_site_attached_hydrogens
Sb1 Sb3+ 6 c 0.8837(1) 0.2243(1) 0.25 . 1. 0
Na1 Na1+ 2 b 0.3333 0.6667 0.167(2) . 1. 0
F1 F1- 6 c 0.204(1) 0.393(1) 0.994(1) . 1. 0
F2 F1- 6 c 0.111(1) 0.229(2) 0.340(1) . 1. 0
F3 F1- 6 c 0.035(1) 0.491(1) 0.281(2) . 1. 0
F4 F1- 2 b 0.6667 0.3333 0.245(5) . 1. 0
loop_
_atom_site_aniso_label
_atom_site_aniso_type_symbol
_atom_site_aniso_U_11
_atom_site_aniso_U_22
_atom_site_aniso_U_33
_atom_site_aniso_U_12
_atom_site_aniso_U_13
_atom_site_aniso_U_23
Sb1 Sb3+ 0.0240(3) 0.0250(3) 0.0175(3) 0.0136(5) 0.0010(5) -.0030(5)
Na1 Na1+ 0.039(4) 0.036(7) 0.025(6) 0.037 0 0
F1 F1- 0.040(7) 0.042(7) 0.020(3) 0.023(5) -.0015(5) -.0040(5)
F2 F1- 0.029(7) 0.043(7) 0.040(7) 0.019(3) -.003(1) -.004(1)
F3 F1- 0.031(4) 0.023(7) 0.049(4) 0.009(5) 0.011(3) 0.000(1)
F4 F1- 0.059(7) 0.050(7) 0.049(8) 0.051(5) 0 0
#End of TTdata_1968-ICSD