
#(C) 2019 by FIZ Karlsruhe - Leibniz Institute for Information Infrastructure.  All rights reserved.
data_20-ICSD
_database_code_ICSD 20
_audit_creation_date 1980-01-01
_audit_update_record 2009-08-01
_chemical_name_systematic 'Trisodium trioxothioarsenate(V) heptahydrate'
_chemical_formula_structural 'Na3 (As O3 S) (H2 O)7'
_chemical_formula_sum 'H14 As1 Na3 O10 S1'
_exptl_crystal_density_diffrn 1.98
_publ_section_title 'Structure christalline de Na3 As O3 (H2 O)7'
loop_
_citation_id
_citation_journal_full
_citation_year
_citation_journal_volume
_citation_page_first
_citation_page_last
_citation_journal_id_ASTM
primary

;
Acta Crystallographica, Section B: Structural Crystallography and Crystal
Chemistry
; 1976 32 516 520 ACBCAR
loop_
_publ_author_name
'Palazzi, M.'
_cell_length_a 6.708(3)
_cell_length_b 6.920(1)
_cell_length_c 12.681(3)
_cell_angle_alpha 90.
_cell_angle_beta 90.
_cell_angle_gamma 91.85(5)
_cell_volume 588.34
_cell_formula_units_Z 2
_symmetry_space_group_name_H-M 'P 1 1 21'
_symmetry_Int_Tables_number 4
_refine_ls_R_factor_all 0.054
loop_
_symmetry_equiv_pos_site_id
_symmetry_equiv_pos_as_xyz
1 '-x, -y, z+1/2'
2 'x, y, z'
loop_
_atom_type_symbol
_atom_type_oxidation_number
As5+ 5
S2- -2
O2- -2
Na1+ 1
H1+ 1
loop_
_atom_site_label
_atom_site_type_symbol
_atom_site_symmetry_multiplicity
_atom_site_Wyckoff_symbol
_atom_site_fract_x
_atom_site_fract_y
_atom_site_fract_z
_atom_site_B_iso_or_equiv
_atom_site_occupancy
_atom_site_attached_hydrogens
As1 As5+ 2 a 0.1997(2) 0.1976(2) 0.35 . 1. 0
S1 S2- 2 a 0.1425(7) 0.1123(6) 0.1904(4) . 1. 0
O1 O2- 2 a 0.3169(21) 0.0210(19) 0.4076(11) . 1. 0
O2 O2- 2 a -.0175(16) 0.2335(16) 0.4139(9) . 1. 0
O3 O2- 2 a 0.3397(16) 0.4023(17) 0.3598(14) . 1. 0
O4 O2- 2 a 0.3730(21) 0.7023(17) 0.2264(10) . 1. 0
O5 O2- 2 a 0.2926(17) 0.0641(17) 0.8946(11) . 1. 0
O6 O2- 2 a 0.1047(19) 0.7028(19) 0.4479(10) . 1. 0
O7 O2- 2 a 0.4917(22) 0.4915(20) 0.5537(11) . 1. 0
O8 O2- 2 a 0.2670(21) 0.5298(19) 0.8104(11) . 1. 0
O9 O2- 2 a 0.3758(18) 0.9679(16) 0.6192(10) . 1. 0
O10 O2- 2 a 0.0064(21) 0.3727(17) 0.6085(11) . 1. 0
Na1 Na1+ 2 a 0.2246(13) 0.2019(12) 0.7323(6) . 1. 0
Na2 Na1+ 2 a 0.2133(11) 0.6602(10) 0.6311(6) . 1. 0
Na3 Na1+ 2 a 0.2181(11) 0.3382(11) 0.9934(6) . 1. 0
H1 H1+ 2 a 0.375 0.589 0.268 2.59 1. 0
H2 H1+ 2 a 0.416 0.67 0.162 2.59 1. 0
H3 H1+ 2 a 0.203 -.052 0.908 2.36 1. 0
H4 H1+ 2 a 0.429 0.02 0.89 2.36 1. 0
H5 H1+ 2 a 0.146 0.584 0.422 2.86 1. 0
H6 H1+ 2 a 0.206 0.801 0.411 2.86 1. 0
H7 H1+ 2 a 0.416 0.435 0.499 2.87 1. 0
H8 H1+ 2 a 0.526 0.395 0.608 2.87 1. 0
H9 H1+ 2 a 0.39 0.578 0.82 2.86 1. 0
H10 H1+ 2 a 0.387 0.01 0.546 2.26 1. 0
H11 H1+ 2 a 0.472 0.042 0.659 2.26 1. 0
H12 H1+ 2 a -.03 0.331 0.529 2.92 1. 0
H13 H1+ 2 a 0.88 0.317 0.637 2.92 1. 0
H14 H1+ 2 a 0.182 0.607 0.862 2.86 1. 0
loop_
_atom_site_aniso_label
_atom_site_aniso_type_symbol
_atom_site_aniso_beta_11
_atom_site_aniso_beta_22
_atom_site_aniso_beta_33
_atom_site_aniso_beta_12
_atom_site_aniso_beta_13
_atom_site_aniso_beta_23
As1 As5+ 0.0077 0.0081 0.0022 0.0002 -.0001 0.0001
S1 S2- 0.0111 0.0098 0.0032 0.0004 -.0005 -.0002
O1 O2- 0.018 0.0156 0.0035 0.0017 -.0002 0.0006
O2 O2- 0.009 0.012 0.0035 0.00002 -.0002 -.0007
O3 O2- 0.0107 0.0164 0.0049 0.0014 -.0014 -.0016
O4 O2- 0.0211 0.009 0.0034 -.0001 0.0002 -.0013
O5 O2- 0.0114 0.0097 0.0044 -.0008 0.0009 0.0013
O6 O2- 0.0128 0.0172 0.0042 -.0038 0.0011 0.0014
O7 O2- 0.0181 0.0172 0.0034 0.0033 -.0012 0.0004
O8 O2- 0.0191 0.0157 0.0042 0.0042 0.0016 -.0004
O9 O2- 0.0095 0.0109 0.0038 -.0001 0.0008 0.0015
O10 O2- 0.0175 0.01 0.0046 -.0007 -.0006 0.0002
Na1 Na1+ 0.0193 0.0162 0.0039 0.0038 -.0004 -.0006
Na2 Na1+ 0.013 0.0127 0.0041 0.0004 -.0007 -.001
Na3 Na1+ 0.0132 0.0172 0.0047 0.0026 0.001 0.0006
#End of TTdata_20-ICSD