
#(C) 2019 by FIZ Karlsruhe - Leibniz Institute for Information Infrastructure.  All rights reserved.
data_200026-ICSD
_database_code_ICSD 200026
_audit_creation_date 1980-01-01
_audit_update_record 2006-04-01
_chemical_name_systematic
'Undecarubidium sodium tecto-dodecaalumododecasilicate'
_chemical_formula_structural 'Rb11 Na (Al12 Si12 O48)'
_chemical_formula_sum 'Al12 Na1 O48 Rb11 Si12'
_chemical_name_structure_type Zeolite-A-frame
_chemical_name_mineral 'Zeolite A (Rb-exchanged, dehydrated)'
_exptl_crystal_density_diffrn 2.15
_publ_section_title

;
Zero-coordinate Rb+. The dehydrated and hydrated crystal structures of
eleven-twelfths rubidium-exchanged zeolite A
;
loop_
_citation_id
_citation_journal_full
_citation_year
_citation_journal_volume
_citation_page_first
_citation_page_last
_citation_journal_id_ASTM
primary 'Journal of the American Chemical Society' 1977 99 1112 1117 JACSAT
loop_
_publ_author_name
'Firor, R.L.'
'Seff, K.'
_cell_length_a 12.261(2)
_cell_length_b 12.261(2)
_cell_length_c 12.261(2)
_cell_angle_alpha 90.
_cell_angle_beta 90.
_cell_angle_gamma 90.
_cell_volume 1843.22
_cell_formula_units_Z 1
_symmetry_space_group_name_H-M 'P m -3 m'
_symmetry_Int_Tables_number 221
_refine_ls_R_factor_all 0.087
loop_
_symmetry_equiv_pos_site_id
_symmetry_equiv_pos_as_xyz
1 'z, y, -x'
2 'y, x, -z'
3 'x, z, -y'
4 'z, x, -y'
5 'y, z, -x'
6 'x, y, -z'
7 'z, -y, x'
8 'y, -x, z'
9 'x, -z, y'
10 'z, -x, y'
11 'y, -z, x'
12 'x, -y, z'
13 '-z, y, x'
14 '-y, x, z'
15 '-x, z, y'
16 '-z, x, y'
17 '-y, z, x'
18 '-x, y, z'
19 '-z, -y, -x'
20 '-y, -x, -z'
21 '-x, -z, -y'
22 '-z, -x, -y'
23 '-y, -z, -x'
24 '-x, -y, -z'
25 '-z, -y, x'
26 '-y, -x, z'
27 '-x, -z, y'
28 '-z, -x, y'
29 '-y, -z, x'
30 '-x, -y, z'
31 '-z, y, -x'
32 '-y, x, -z'
33 '-x, z, -y'
34 '-z, x, -y'
35 '-y, z, -x'
36 '-x, y, -z'
37 'z, -y, -x'
38 'y, -x, -z'
39 'x, -z, -y'
40 'z, -x, -y'
41 'y, -z, -x'
42 'x, -y, -z'
43 'z, y, x'
44 'y, x, z'
45 'x, z, y'
46 'z, x, y'
47 'y, z, x'
48 'x, y, z'
loop_
_atom_type_symbol
_atom_type_oxidation_number
Al3+ 3
Si4+ 4
O2- -2
Rb1+ 1
Na1+ 1
loop_
_atom_site_label
_atom_site_type_symbol
_atom_site_symmetry_multiplicity
_atom_site_Wyckoff_symbol
_atom_site_fract_x
_atom_site_fract_y
_atom_site_fract_z
_atom_site_B_iso_or_equiv
_atom_site_occupancy
_atom_site_attached_hydrogens
Al1 Al3+ 24 k 0 0.1852(2) 0.3753(2) . 0.5 0
Si1 Si4+ 24 k 0 0.1852(2) 0.3753(2) . 0.5 0
O1 O2- 12 h 0 0.2405(8) 0.5 . 1. 0
O2 O2- 12 i 0 0.2871(6) 0.2871(6) . 1. 0
O3 O2- 24 m 0.1122(4) 0.1122(4) 0.3530(6) . 1. 0
Rb1 Rb1+ 8 g 0.2514(2) 0.2514(2) 0.2514(2) . 0.625 0
Rb2 Rb1+ 3 c 0 0.5 0.5 . 1. 0
Rb3 Rb1+ 8 g 0.3629(47) 0.3629(47) 0.3629(47) . 0.125 0
Rb4 Rb1+ 8 g 0.1125(13) 0.1125(13) 0.1125(13) . 0.125 0
Rb5 Rb1+ 8 g 0.1456(12) 0.1456(12) 0.1456(12) 3.4 0.125 0
Na1 Na1+ 8 g 0.1904(27) 0.1904(27) 0.1904(27) -.5 0.125 0
loop_
_atom_site_aniso_label
_atom_site_aniso_type_symbol
_atom_site_aniso_beta_11
_atom_site_aniso_beta_22
_atom_site_aniso_beta_33
_atom_site_aniso_beta_12
_atom_site_aniso_beta_13
_atom_site_aniso_beta_23
Al1 Al3+ 0.0021(2) 0.0020(2) 0.0014(2) 0 0 0.0004(2)
Si1 Si4+ 0.0021(2) 0.0020(2) 0.0014(2) 0 0 0.0004(2)
O1 O2- 0.0043(11) 0.0049(9) 0.0023(9) 0 0 0
O2 O2- 0.0044(9) 0.0036(6) 0.0036(6) 0 0 0.0011(7)
O3 O2- 0.0044(4) 0.0044(4) 0.0050(7) 0.0009(6) -.0001(4) -.0001(4)
Rb1 Rb1+ 0.0058(13) 0.0058(13) 0.0058(13) 0.0019(2) 0.0019(2) 0.0019(2)
Rb2 Rb1+ 0.0116(7) 0.0125(4) 0.0125(4) 0 0 0
Rb3 Rb1+ 0.113(15) 0.113(15) 0.113(15) -0.024(13) -0.024(13) -0.024(13)
Rb4 Rb1+ 0.0073(10) 0.0073(10) 0.0073(10) 0.0009(13) 0.0009(13) 0.0009(13)
#End of TTdata_200026-ICSD