
#(C) 2019 by FIZ Karlsruhe - Leibniz Institute for Information Infrastructure.  All rights reserved.
data_200111-ICSD
_database_code_ICSD 200111
_audit_creation_date 1980-01-01
_audit_update_record 2007-08-01
_chemical_name_systematic 'Sodium iron manganese phosphate(V) (1/0.9/0.1/1)'
_chemical_formula_structural 'Na (Fe0.9 Mn0.1) (P O4)'
_chemical_formula_sum 'Fe0.9 Mn0.1 Na1 O4 P1'
_chemical_name_structure_type Olivine-Mg2SiO4
_chemical_name_mineral Maricite
_exptl_crystal_density_diffrn 3.71
_publ_section_title
'The crystal structure of the new mineral maricite Na Fe P O4'
loop_
_citation_id
_citation_journal_full
_citation_year
_citation_journal_volume
_citation_page_first
_citation_page_last
_citation_journal_id_ASTM
primary 'Canadian Mineralogist' 1977 15 518 521 CAMIA6
loop_
_publ_author_name
'le Page, Y.'
'Donnay, G.'
_cell_length_a 6.861(1)
_cell_length_b 8.987(1)
_cell_length_c 5.045(1)
_cell_angle_alpha 90.
_cell_angle_beta 90.
_cell_angle_gamma 90.
_cell_volume 311.07
_cell_formula_units_Z 4
_symmetry_space_group_name_H-M 'P m n b'
_symmetry_Int_Tables_number 62
_refine_ls_R_factor_all 0.02
loop_
_symmetry_equiv_pos_site_id
_symmetry_equiv_pos_as_xyz
1 'x, y+1/2, -z+1/2'
2 '-x+1/2, y, z'
3 'x+1/2, -y+1/2, z+1/2'
4 '-x, -y, -z'
5 '-x, -y+1/2, z+1/2'
6 'x+1/2, -y, -z'
7 '-x+1/2, y+1/2, -z+1/2'
8 'x, y, z'
loop_
_atom_type_symbol
_atom_type_oxidation_number
Na1+ 1
Fe2+ 2
P5+ 5
O2- -2
Mn2+ 2
loop_
_atom_site_label
_atom_site_type_symbol
_atom_site_symmetry_multiplicity
_atom_site_Wyckoff_symbol
_atom_site_fract_x
_atom_site_fract_y
_atom_site_fract_z
_atom_site_B_iso_or_equiv
_atom_site_occupancy
_atom_site_attached_hydrogens
Na1 Na1+ 4 c 0.25 0.8508(3) 0.5305(5) . 1. 0
Fe1 Fe2+ 4 a 0 0 0 . 0.9 0
P1 P5+ 4 c 0.25 0.1760(1) 0.4640(3) . 1. 0
O1 O2- 4 c 0.25 0.1164(4) 0.7521(8) . 1. 0
O2 O2- 4 c 0.25 0.3492(4) 0.4557(8) . 1. 0
O3 O2- 8 d 0.0692(4) 0.1213(3) 0.3174(5) . 1. 0
Mn1 Mn2+ 4 a 0 0 0 . 0.1 0
loop_
_atom_site_aniso_label
_atom_site_aniso_type_symbol
_atom_site_aniso_U_11
_atom_site_aniso_U_22
_atom_site_aniso_U_33
_atom_site_aniso_U_12
_atom_site_aniso_U_13
_atom_site_aniso_U_23
Na1 Na1+ 0.016(1) 0.012(1) 0.011(1) 0 0 0.000(1)
Fe1 Fe2+ 0.0087(4) 0.0064(3) 0.0082(4) 0.0022(3) -.0031(3) -.0040(3)
P1 P5+ 0.0064(1) 0.0029(5) 0.0037(6) 0 0 -.0001(5)
O1 O2- 0.014(2) 0.0065(2) 0.0071(2) 0 0 0.002(1)
O2 O2- 0.009(2) 0.003(2) 0.010(2) 0 0 0.001(1)
O3 O2- 0.008(1) 0.010(1) 0.010(1) 0.002(1) -.001(1) -.004(1)
Mn1 Mn2+ 0.0087(4) 0.0064(3) 0.0082(4) 0.0022(3) -.0031(3) -.0040(3)
#End of TTdata_200111-ICSD