
#(C) 2019 by FIZ Karlsruhe - Leibniz Institute for Information Infrastructure.  All rights reserved.
data_200238-ICSD
_database_code_ICSD 200238
_audit_creation_date 1980-01-01
_audit_update_record 2014-02-01
_chemical_name_systematic 'Disodium diiron iron(III) tris(phosphate(V))'
_chemical_formula_structural 'Na2 Fe3 (P O4)3'
_chemical_formula_sum 'Fe3 Na2 O12 P3'
_chemical_name_structure_type Alluaudite
_chemical_name_mineral Alluaudite
_exptl_crystal_density_diffrn 3.72
_publ_section_title

;
The crystal structure of a synthetic variety of alluaudite Na2 (Fe(3+))0.5
(Fe(2+))0.5)2 (Fe(2+)) (P O4)3
;
loop_
_citation_id
_citation_journal_full
_citation_year
_citation_journal_volume
_citation_page_first
_citation_page_last
_citation_journal_id_ASTM
primary 'Doklady Akademii Nauk SSSR' 1977 236 1123 1126 DANKAS
loop_
_publ_author_name
'Yakubovich, O.V.'
'Simonov, M.A.'
'Egorov Tismenko, Yu.K.'
'Belov, N.V.'
_cell_length_a 10.923(1)
_cell_length_b 6.500(1)
_cell_length_c 12.538(2)
_cell_angle_alpha 90.
_cell_angle_beta 90.
_cell_angle_gamma 90.
_cell_volume 890.19
_cell_formula_units_Z 4
_symmetry_space_group_name_H-M 'I 1 1 2/a'
_symmetry_Int_Tables_number 15
_refine_ls_R_factor_all 0.043
loop_
_symmetry_equiv_pos_site_id
_symmetry_equiv_pos_as_xyz
1 '-x+1/2, -y, z'
2 'x+1/2, y, -z'
3 '-x, -y, -z'
4 'x, y, z'
5 '-x, -y+1/2, z+1/2'
6 'x, y+1/2, -z+1/2'
7 '-x+1/2, -y+1/2, -z+1/2'
8 'x+1/2, y+1/2, z+1/2'
loop_
_atom_type_symbol
_atom_type_oxidation_number
Fe2+ 2.5
Fe2+ 2
Na1+ 1
P5+ 5
O2- -2
loop_
_atom_site_label
_atom_site_type_symbol
_atom_site_symmetry_multiplicity
_atom_site_Wyckoff_symbol
_atom_site_fract_x
_atom_site_fract_y
_atom_site_fract_z
_atom_site_B_iso_or_equiv
_atom_site_occupancy
_atom_site_attached_hydrogens
Fe1 Fe2+ 8 f 0.47036(6) 0.33648(9) 0.09126(5) . 1. 0
Fe2 Fe2+ 4 e 0.25 0.5 0.51931(8) . 1. 0
Na1 Na1+ 4 d 0.75 0.25 0.25 . 1. 0
Na2 Na1+ 4 e 0.25 0.5 0.2345(3) . 1. 0
P1 P5+ 4 e 0.25 0.5 0.9624(1) . 1. 0
P2 P5+ 8 f 0.9855(1) 0.3613(2) 0.6416(1) . 1. 0
O1 O2- 8 f 0.7060(3) 0.1694(5) 0.5334(3) . 1. 0
O2 O2- 8 f 0.3516(3) 0.1030(5) 0.6131(3) . 1. 0
O3 O2- 8 f 0.9116(3) 0.0194(5) 0.9138(3) . 1. 0
O4 O2- 8 f 0.3782(3) 0.0518(5) 0.8495(3) . 1. 0
O5 O2- 8 f 0.4727(3) 0.1595(5) 0.4259(3) . 1. 0
O6 O2- 8 f 0.5773(3) 0.1906(5) 0.7494(3) . 1. 0
loop_
_atom_site_aniso_label
_atom_site_aniso_type_symbol
_atom_site_aniso_B_11
_atom_site_aniso_B_22
_atom_site_aniso_B_33
_atom_site_aniso_B_12
_atom_site_aniso_B_13
_atom_site_aniso_B_23
Fe1 Fe2+ 0.45(1) 0.53(1) 0.45(1) 0.06(1) -.02(1) 0.01(1)
Fe2 Fe2+ 1.00(3) 0.89(3) 0.70(2) -.06(2) 0 0
Na1 Na1+ 2.72(11) 1.95(10) 0.59(10) 1.67(9) -.16(8) -.04(7)
Na2 Na1+ 1.83(11) 2.47(12) 3.50(15) 0.74(9) 0 0
P1 P5+ 0.48(4) 0.47(4) 0.48(4) 0.16(3) 0 0
P2 P5+ 0.83(3) 0.45(3) 0.48(2) 0.22(2) 0.05(2) 0.02(2)
O1 O2- 0.66(7) 0.70(7) 0.84(8) 0.22(6) -.03(6) -.25(6)
O2 O2- 0.60(8) 1.39(9) 0.68(8) 0.15(7) -.03(6) -.45(7)
O3 O2- 1.50(9) 0.90(8) 0.68(8) 0.61(7) 0.06(7) -.05(7)
O4 O2- 0.95(9) 1.05(9) 0.94(9) -.02(7) -.08(7) -.04(7)
O5 O2- 1.05(9) 0.65(8) 1.19(10) 0.29(6) 0.11(7) 0.37(7)
O6 O2- 1.38(10) 1.26(9) 0.73(8) 0.40(7) 0.30(7) 0.36(7)
#End of TTdata_200238-ICSD