
#(C) 2019 by FIZ Karlsruhe - Leibniz Institute for Information Infrastructure.  All rights reserved.
data_200519-ICSD
_database_code_ICSD 200519
_audit_creation_date 1980-01-01
_audit_update_record 2013-02-01
_chemical_name_systematic 'Sodium lutetium cyclo-dodecasilicate (13.41/3/1)'
_chemical_formula_structural 'Na13.41 Lu3 (Si12 O36)'
_chemical_formula_sum 'Lu3 Na13.41 O36 Si12'
_exptl_crystal_density_diffrn 3.33
_publ_section_title

;
Structural characteristics of the family of rare earth silicates Na5 Tr Si4
O12- a new class of solid electrolytes
;
loop_
_citation_id
_citation_journal_full
_citation_year
_citation_journal_volume
_citation_page_first
_citation_page_last
_citation_journal_id_ASTM
primary Kristallografiya 1979 24 265 270 KRISAJ
loop_
_publ_author_name
'Maksimov, B.A.'
'Merinov, B.V.'
'Borovkov, V.S.'
'Ivanov Shits, A.K.'
'Kharitonov, Yu.A.'
_cell_length_a 21.926(4)
_cell_length_b 21.926(4)
_cell_length_c 12.556(2)
_cell_angle_alpha 90.
_cell_angle_beta 90.
_cell_angle_gamma 120.
_cell_volume 5227.58
_cell_formula_units_Z 6
_symmetry_space_group_name_H-M 'R 3 2 H'
_symmetry_Int_Tables_number 155
loop_
_symmetry_equiv_pos_site_id
_symmetry_equiv_pos_as_xyz
1 '-x, -x+y, -z'
2 'x-y, -y, -z'
3 'y, x, -z'
4 '-x+y, -x, z'
5 '-y, x-y, z'
6 'x, y, z'
7 '-x+2/3, -x+y+1/3, -z+1/3'
8 'x-y+2/3, -y+1/3, -z+1/3'
9 'y+2/3, x+1/3, -z+1/3'
10 '-x+y+2/3, -x+1/3, z+1/3'
11 '-y+2/3, x-y+1/3, z+1/3'
12 'x+2/3, y+1/3, z+1/3'
13 '-x+1/3, -x+y+2/3, -z+2/3'
14 'x-y+1/3, -y+2/3, -z+2/3'
15 'y+1/3, x+2/3, -z+2/3'
16 '-x+y+1/3, -x+2/3, z+2/3'
17 '-y+1/3, x-y+2/3, z+2/3'
18 'x+1/3, y+2/3, z+2/3'
loop_
_atom_type_symbol
_atom_type_oxidation_number
Lu3+ 3
Si4+ 4
O2- -2
Na1+ 1
loop_
_atom_site_label
_atom_site_type_symbol
_atom_site_symmetry_multiplicity
_atom_site_Wyckoff_symbol
_atom_site_fract_x
_atom_site_fract_y
_atom_site_fract_z
_atom_site_B_iso_or_equiv
_atom_site_occupancy
_atom_site_attached_hydrogens
Lu1 Lu3+ 9 e 0 0.75137(5) 0.5 0.32 1. 0
Lu2 Lu3+ 9 d 0 0.24831(3) 0 0.21 1. 0
Si1 Si4+ 18 f 0.9013(3) 0.5522(2) 0.1011(3) 0.16 1. 0
Si2 Si4+ 18 f -.9041(3) -.5493(3) 0.3888(3) 0.25 1. 0
Si3 Si4+ 18 f 0.5792(3) 0.1541(3) 0.4647(3) 0.17 1. 0
Si4 Si4+ 18 f -.5773(3) -.1478(3) 0.0443(3) 0.21 1. 0
O1 O2- 18 f 0.9032(6) 0.5966(7) -.0031(8) 0.62 1. 0
O2 O2- 18 f -.9054(7) -.5949(7) 0.4872(9) 0.39 1. 0
O3 O2- 18 f 0.0663(6) 0.2019(6) 0.7622(9) 0.25 1. 0
O4 O2- 18 f -.0794(6) -.2141(6) 0.7392(8) 0.14 1. 0
O5 O2- 18 f 0.2336(6) 0.6130(6) 0.0566(8) 0.6 1. 0
O6 O2- 18 f -.2356(6) -.6162(6) 0.4633(9) 0.52 1. 0
O7 O2- 18 f 0.9104(6) 0.2683(6) -.0022(9) 0.26 1. 0
O8 O2- 18 f -.9183(6) -.2767(6) 0.5041(9) 0.83 1. 0
O9 O2- 18 f 0.8917(5) 0.4721(5) 0.8577(8) 0.35 1. 0
O10 O2- 18 f -.8820(5) -.4699(5) 0.6399(8) 0.3 1. 0
O11 O2- 18 f 0.8729(6) 0.3612(6) 0.9690(8) 0.32 1. 0
O12 O2- 18 f -.8858(6) -.3713(6) 0.5303(8) 0.44 1. 0
Na1 Na1+ 18 f 0.0727(6) 0.1348(6) 0.6132(8) 0.65 1. 0
Na2 Na1+ 18 f -.0717(9) -.1447(9) 0.8917(8) 0.76 1. 0
Na3 Na1+ 6 c 0 0 0.7474(9) 0.11 1. 0
Na4 Na1+ 3 a 0 0 0 0.1 1. 0
Na5 Na1+ 9 d 0.277(1) 0.277(1) 0 0.13 1. 0
Na6 Na1+ 18 f 0.335(2) 0.186(2) 0.008(3) 2.4(3) 0.78(3) 0
Na7 Na1+ 18 f 0.145(2) 0.328(2) 0.210(3) 2.8(4) 0.69(4) 0
#End of TTdata_200519-ICSD