
#(C) 2019 by FIZ Karlsruhe - Leibniz Institute for Information Infrastructure.  All rights reserved.
data_200597-ICSD
_database_code_ICSD 200597
_audit_creation_date 1980-01-01
_audit_update_record 2006-04-01
_chemical_name_systematic 'Sodium antimony sulfide - alpha'
_chemical_formula_structural 'Na Sb S2'
_chemical_formula_sum 'Na1 S2 Sb1'
_exptl_crystal_density_diffrn 3.62
_publ_section_title 'Crystal structure of alpha-Na Sb S2'
loop_
_citation_id
_citation_journal_full
_citation_year
_citation_journal_volume
_citation_page_first
_citation_page_last
_citation_journal_id_ASTM
primary 'Zhurnal Strukturnoi Khimii' 1979 20 148 152 ZSTKAI
loop_
_publ_author_name
'Kanishcheva, A.S.'
'Kuznetsova, V.G.'
'Batog, V.N.'
_cell_length_a 5.828(1)
_cell_length_b 5.825(1)
_cell_length_c 6.833(1)
_cell_angle_alpha 113.48(2)
_cell_angle_beta 113.46(2)
_cell_angle_gamma 90.07(1)
_cell_volume 191.62
_cell_formula_units_Z 2
_symmetry_space_group_name_H-M 'P -1'
_symmetry_Int_Tables_number 2
_refine_ls_R_factor_all 0.048
loop_
_symmetry_equiv_pos_site_id
_symmetry_equiv_pos_as_xyz
1 '-x, -y, -z'
2 'x, y, z'
loop_
_atom_type_symbol
_atom_type_oxidation_number
Sb3+ 3
S2- -2
Na1+ 1
loop_
_atom_site_label
_atom_site_type_symbol
_atom_site_symmetry_multiplicity
_atom_site_Wyckoff_symbol
_atom_site_fract_x
_atom_site_fract_y
_atom_site_fract_z
_atom_site_B_iso_or_equiv
_atom_site_occupancy
_atom_site_attached_hydrogens
Sb1 Sb3+ 2 i 0.10271(5) 0.89721(5) 0.25000(5) . 1. 0
S1 S2- 2 i 0.1319(2) 0.3093(2) 0.2406(2) . 1. 0
S2 S2- 2 i 0.3091(2) 0.1319(2) 0.7399(2) . 1. 0
Na1 Na1+ 2 i 0.3684(4) 0.6338(4) 0.7495(4) . 1. 0
loop_
_atom_site_aniso_label
_atom_site_aniso_type_symbol
_atom_site_aniso_B_11
_atom_site_aniso_B_22
_atom_site_aniso_B_33
_atom_site_aniso_B_12
_atom_site_aniso_B_13
_atom_site_aniso_B_23
Sb1 Sb3+ 1.24(1) 1.32(1) 1.26(1) 0.34(1) 0.66(1) 0.68(1)
S1 S2- 1.37(3) 1.06(3) 0.78(3) 0.06(2) 0.45(2) 0.35(2)
S2 S2- 1.00(3) 1.45(3) 0.73(3) 0.01(2) 0.29(2) 0.45(2)
Na1 Na1+ 1.66(7) 1.66(7) 1.51(7) 0.18(6) 0.65(6) 0.53(6)
#End of TTdata_200597-ICSD