
#(C) 2019 by FIZ Karlsruhe - Leibniz Institute for Information Infrastructure.  All rights reserved.
data_2005-ICSD
_database_code_ICSD 2005
_audit_creation_date 1980-01-01
_audit_update_record 2010-02-01
_chemical_name_systematic 'Sodium thiocyanate'
_chemical_formula_structural 'Na (S C N)'
_chemical_formula_sum 'C1 N1 Na1 S1'
_chemical_name_structure_type NaSCN
_exptl_crystal_density_diffrn 1.74
_publ_section_title 'Sodium thiocyanate'
loop_
_citation_id
_citation_journal_full
_citation_year
_citation_journal_volume
_citation_page_first
_citation_page_last
_citation_journal_id_ASTM
primary

;
Acta Crystallographica, Section B: Structural Crystallography and Crystal
Chemistry
; 1975 31 2933 2934 ACBCAR
loop_
_publ_author_name
'van Rooyen, P.H.'
'Boeyens, J.C.A.'
_cell_length_a 13.38(1)
_cell_length_b 4.09(1)
_cell_length_c 5.66(1)
_cell_angle_alpha 90.
_cell_angle_beta 90.
_cell_angle_gamma 90.
_cell_volume 309.74
_cell_formula_units_Z 4
_symmetry_space_group_name_H-M 'P n m a'
_symmetry_Int_Tables_number 62
_refine_ls_R_factor_all 0.075
loop_
_symmetry_equiv_pos_site_id
_symmetry_equiv_pos_as_xyz
1 'x+1/2, y, -z+1/2'
2 'x, -y+1/2, z'
3 '-x+1/2, y+1/2, z+1/2'
4 '-x, -y, -z'
5 '-x+1/2, -y, z+1/2'
6 '-x, y+1/2, -z'
7 'x+1/2, -y+1/2, -z+1/2'
8 'x, y, z'
loop_
_atom_type_symbol
_atom_type_oxidation_number
Na1+ 1
S2- -2
C4+ 4
N3- -3
loop_
_atom_site_label
_atom_site_type_symbol
_atom_site_symmetry_multiplicity
_atom_site_Wyckoff_symbol
_atom_site_fract_x
_atom_site_fract_y
_atom_site_fract_z
_atom_site_B_iso_or_equiv
_atom_site_occupancy
_atom_site_attached_hydrogens
Na1 Na1+ 4 c 0.3919(3) 0.25 0.9337(7) 3.02 1. 0
S1 S2- 4 c 0.1856(2) 0.25 0.1137(4) 2.65 1. 0
C1 C4+ 4 c 0.1127(6) 0.25 0.8758(15) 2.42 1. 0
N1 N3- 4 c 0.0627(6) 0.25 0.7066(14) 2.99 1. 0
#End of TTdata_2005-ICSD