
#(C) 2019 by FIZ Karlsruhe - Leibniz Institute for Information Infrastructure.  All rights reserved.
data_200680-ICSD
_database_code_ICSD 200680
_audit_creation_date 1980-01-01
_audit_update_record 2012-02-01
_chemical_name_systematic 'Disodium cobalt(II) germanate'
_chemical_formula_structural 'Na2 Co Ge O4'
_chemical_formula_sum 'Co1 Ge1 Na2 O4'
_exptl_crystal_density_diffrn 3.75
_publ_section_title 'Crystal structure of Na2 Co Ge O4 orthogermanate'
loop_
_citation_id
_citation_journal_full
_citation_year
_citation_journal_volume
_citation_page_first
_citation_page_last
_citation_journal_id_ASTM
primary 'Doklady Akademii Nauk SSSR' 1978 242 1070 1073 DANKAS
loop_
_publ_author_name
'Maksimov, B.A.'
'Ilyukhin, V.V.'
'Belov, N.V.'
_cell_length_a 5.325(1)
_cell_length_b 8.935(2)
_cell_length_c 5.603(1)
_cell_angle_alpha 90.
_cell_angle_beta 90.
_cell_angle_gamma 126.59(1)
_cell_volume 214.05
_cell_formula_units_Z 2
_symmetry_space_group_name_H-M 'P 1 1 b'
_symmetry_Int_Tables_number 7
_refine_ls_R_factor_all 0.0293
loop_
_symmetry_equiv_pos_site_id
_symmetry_equiv_pos_as_xyz
1 'x, y+1/2, -z'
2 'x, y, z'
loop_
_atom_type_symbol
_atom_type_oxidation_number
Co2+ 2
Ge4+ 4
Na1+ 1
O2- -2
loop_
_atom_site_label
_atom_site_type_symbol
_atom_site_symmetry_multiplicity
_atom_site_Wyckoff_symbol
_atom_site_fract_x
_atom_site_fract_y
_atom_site_fract_z
_atom_site_B_iso_or_equiv
_atom_site_occupancy
_atom_site_attached_hydrogens
Co1 Co2+ 2 a 0 0 0.1855(1) . 1. 0
Ge1 Ge4+ 2 a 0.2512(2) 0.2451(1) 0.6845(1) . 1. 0
Na1 Na1+ 2 a 0.7346(8) 0.2504(5) 0.3212(4) . 1. 0
Na2 Na1+ 2 a 0.4829(7) 0.4862(4) 0.1804(4) . 1. 0
O1 O2- 2 a 0.9686(8) 0.5471(5) 0.1547(6) . 1. 0
O2 O2- 2 a 0.6079(8) 0.7733(5) 0.2925(6) . 1. 0
O3 O2- 2 a 0.1475(9) 0.2229(5) 0.3818(6) . 1. 0
O4 O2- 2 a 0.3182(8) 0.9518(5) 0.2047(6) . 1. 0
loop_
_atom_site_aniso_label
_atom_site_aniso_type_symbol
_atom_site_aniso_beta_11
_atom_site_aniso_beta_22
_atom_site_aniso_beta_33
_atom_site_aniso_beta_12
_atom_site_aniso_beta_13
_atom_site_aniso_beta_23
Co1 Co2+ 0.0086(3) 0.0028(1) 0.0054(2) 0.0056(3) 0 0
Ge1 Ge4+ 0.0064(2) 0.0025(1) 0.0043(1) 0.0043(2) -.0003(2) -.0006(3)
Na1 Na1+ 0.00158(9) 0.0055(4) 0.0138(7) 0.0097(9) 0.0015(13) 0.0027(18)
Na2 Na1+ 0.0118(9) 0.0045(4) 0.0082(7) 0.0088(13) 0 0
O1 O2- 0.0120(13) 0.0035(5) 0.0068(8) 0.0046(14) -.0025(10) 0
O2 O2- 0.0070(14) 0.0043(5) 0.0112(8) 0.0062(14) 0 0
O3 O2- 0.0162(14) 0.0045(5) 0.0052(8) 0.0100(15) 0 -.0049(17)
O4 O2- 0.0123(13) 0.0041(5) 0.0094(8) 0.0100(14) 0.0028(10) 0
#End of TTdata_200680-ICSD