
#(C) 2019 by FIZ Karlsruhe - Leibniz Institute for Information Infrastructure.  All rights reserved.
data_200789-ICSD
_database_code_ICSD 200789
_audit_creation_date 1980-12-31
_audit_update_record 2015-08-01
_chemical_name_systematic 'Trisodium manganese phosphate(V) carbonate'
_chemical_formula_structural 'Na3 Mn (P O4) (C O3)'
_chemical_formula_sum 'C1 Mn1 Na3 O7 P1'
_chemical_name_structure_type Na3MnPO4CO3
_chemical_name_mineral Sidorenkite
_exptl_crystal_density_diffrn 2.96
_publ_section_title 'Crystal structure of sidorenkite Na3 Mn (P O4) (C O3)'
loop_
_citation_id
_citation_journal_full
_citation_year
_citation_journal_volume
_citation_page_first
_citation_page_last
_citation_journal_id_ASTM
primary 'Doklady Akademii Nauk SSSR' 1980 251 605 607 DANKAS
loop_
_publ_author_name
'Kurova, T.A.'
'Shumyatskaya, N.G.'
'Voronkov, A.A.'
'Pyatenko, Yu.A.'
_cell_length_a 8.997(4)
_cell_length_b 6.741(2)
_cell_length_c 5.163(2)
_cell_angle_alpha 90.
_cell_angle_beta 90.16(4)
_cell_angle_gamma 90.
_cell_volume 313.13
_cell_formula_units_Z 2
_symmetry_space_group_name_H-M 'P 1 21/m 1'
_symmetry_Int_Tables_number 11
_refine_ls_R_factor_all 0.035
loop_
_symmetry_equiv_pos_site_id
_symmetry_equiv_pos_as_xyz
1 'x, -y+1/2, z'
2 '-x, -y, -z'
3 '-x, y+1/2, -z'
4 'x, y, z'
loop_
_atom_type_symbol
_atom_type_oxidation_number
Mn2+ 2
P5+ 5
Na1+ 1
C4+ 4
O2- -2
loop_
_atom_site_label
_atom_site_type_symbol
_atom_site_symmetry_multiplicity
_atom_site_Wyckoff_symbol
_atom_site_fract_x
_atom_site_fract_y
_atom_site_fract_z
_atom_site_B_iso_or_equiv
_atom_site_occupancy
_atom_site_attached_hydrogens
Mn1 Mn2+ 2 e 0.3624(2) 0.75 0.7799(3) 1. 1. 0
P1 P5+ 2 e 0.4125(3) 0.25 0.7011(6) 0.55 1. 0
Na1 Na1+ 4 f 0.7409(3) 0.9978(5) 0.7513(6) 1.44 1. 0
Na2 Na1+ 2 e 0.0822(5) 0.25 0.7615(9) 1.88 1. 0
C1 C4+ 2 e 0.0605(11) 0.75 0.7345(19) 0.76 1. 0
O1 O2- 2 e 0.1233(9) 0.75 0.9616(14) 1.37 1. 0
O2 O2- 2 e 0.1430(9) 0.75 0.5317(15) 1.3 1. 0
O3 O2- 2 e 0.9195(9) 0.75 0.7157(15) 1.48 1. 0
O4 O2- 4 f 0.3210(6) 0.4345(9) 0.7817(10) 1.23 1. 0
O5 O2- 2 e 0.5684(8) 0.25 0.8260(14) 1.05 1. 0
O6 O2- 2 e 0.5694(8) 0.75 0.5965(14) 1.07 1. 0
#End of TTdata_200789-ICSD