
#(C) 2019 by FIZ Karlsruhe - Leibniz Institute for Information Infrastructure.  All rights reserved.
data_200800-ICSD
_database_code_ICSD 200800
_audit_creation_date 1980-12-31
_audit_update_record 2015-02-01
_chemical_name_systematic 'Hexasodium calcium zirconium catena-hexasilicate'
_chemical_formula_structural 'Na6 Ca Zr (Si6 O18)'
_chemical_formula_sum 'Ca1 Na6 O18 Si6 Zr1'
_chemical_name_mineral Zirsinalite
_exptl_crystal_density_diffrn 3.
_publ_section_title 'Crystal structure of zirsinalite Na6 Ca (Zr (Si6 O18)'
loop_
_citation_id
_citation_journal_full
_citation_year
_citation_journal_volume
_citation_page_first
_citation_page_last
_citation_journal_id_ASTM
primary 'Doklady Akademii Nauk SSSR' 1980 250 865 867 DANKAS
loop_
_publ_author_name
'Pudovkina, Z.V.'
'Chernitsova, N.M.'
'Voronkov, A.A.'
'Pyatenko, Yu.A.'
_cell_length_a 10.593(5)
_cell_length_b 10.593(5)
_cell_length_c 10.593(5)
_cell_angle_alpha 58.13(2)
_cell_angle_beta 58.13(2)
_cell_angle_gamma 58.13(2)
_cell_volume 804.48
_cell_formula_units_Z 2
_symmetry_space_group_name_H-M 'R -3 c R'
_symmetry_Int_Tables_number 167
_refine_ls_R_factor_all 0.087
loop_
_symmetry_equiv_pos_site_id
_symmetry_equiv_pos_as_xyz
1 '-x+1/2, -z+1/2, -y+1/2'
2 '-z+1/2, -y+1/2, -x+1/2'
3 '-y+1/2, -x+1/2, -z+1/2'
4 'x+1/2, z+1/2, y+1/2'
5 'z+1/2, y+1/2, x+1/2'
6 'y+1/2, x+1/2, z+1/2'
7 '-z, -x, -y'
8 '-y, -z, -x'
9 '-x, -y, -z'
10 'z, x, y'
11 'y, z, x'
12 'x, y, z'
loop_
_atom_type_symbol
_atom_type_oxidation_number
Zr4+ 4
Ca2+ 2
Si4+ 4
Na1+ 1
O2- -2
loop_
_atom_site_label
_atom_site_type_symbol
_atom_site_symmetry_multiplicity
_atom_site_Wyckoff_symbol
_atom_site_fract_x
_atom_site_fract_y
_atom_site_fract_z
_atom_site_B_iso_or_equiv
_atom_site_occupancy
_atom_site_attached_hydrogens
Zr1 Zr4+ 2 b 0 0 0 0.93(5) 1. 0
Ca1 Ca2+ 4 c 0.3767(3) 0.3767(3) 0.3767(3) 1.16(11) 0.5 0
Si1 Si4+ 12 f 0.1307(9) 0.1346(9) 0.5853(3) 0.93(5) 1. 0
Na1 Na1+ 6 d 0.5 0 0 1.22(13) 1. 0
Na2 Na1+ 6 e 0.743(1) 0.757(1) 0.25 1.15(12) 1. 0
O1 O2- 12 f 0.255(1) 0.296(1) 0.938(1) 1.31(17) 1. 0
O2 O2- 12 f 0.950(1) 0.234(1) 0.968(1) 1.33(15) 1. 0
O3 O2- 6 e 0.013(1) 0.487(1) 0.25 3.31(41) 1. 0
O4 O2- 6 e 0.518(1) 0.982(1) 0.25 1.24(25) 1. 0
#End of TTdata_200800-ICSD