
#(C) 2019 by FIZ Karlsruhe - Leibniz Institute for Information Infrastructure.  All rights reserved.
data_200927-ICSD
_database_code_ICSD 200927
_audit_creation_date 1980-12-31
_audit_update_record 2015-02-01
_chemical_name_systematic 'Trisodium calcium catena-silicate phosphate'
_chemical_formula_structural 'Na3 Ca (Si O3) (P O4)'
_chemical_formula_sum 'Ca1 Na3 O7 P1 Si1'
_chemical_name_mineral Clinophosinaite
_exptl_crystal_density_diffrn 2.84
_publ_section_title

;
Anion radical of mixed type (four (S4 O12) rings and P orthotetrahedra) in the
structure of monoclinic phosinaite
;
loop_
_citation_id
_citation_journal_full
_citation_year
_citation_journal_volume
_citation_page_first
_citation_page_last
_citation_journal_id_ASTM
primary Kristallografiya 1980 25 240 247 KRISAJ
loop_
_publ_author_name
'Krutik, V.M.'
'Pushcharovskii, D.Yu.'
'Khomyakov, A.P.'
'Pobedimskaya, E.A.'
'Belov, N.V.'
_cell_length_a 7.303(2)
_cell_length_b 12.201(5)
_cell_length_c 14.715(4)
_cell_angle_alpha 90.
_cell_angle_beta 91.93
_cell_angle_gamma 90.
_cell_volume 1310.42
_cell_formula_units_Z 8
_symmetry_space_group_name_H-M 'P 1 2/c 1'
_symmetry_Int_Tables_number 13
_refine_ls_R_factor_all 0.061
loop_
_symmetry_equiv_pos_site_id
_symmetry_equiv_pos_as_xyz
1 'x, -y, z+1/2'
2 '-x, -y, -z'
3 '-x, y, -z+1/2'
4 'x, y, z'
loop_
_atom_type_symbol
_atom_type_oxidation_number
Ca2+ 2
Si4+ 4
P5+ 5
Na1+ 1
O2- -2
loop_
_atom_site_label
_atom_site_type_symbol
_atom_site_symmetry_multiplicity
_atom_site_Wyckoff_symbol
_atom_site_fract_x
_atom_site_fract_y
_atom_site_fract_z
_atom_site_B_iso_or_equiv
_atom_site_occupancy
_atom_site_attached_hydrogens
Ca1 Ca2+ 2 c 0 0.5 0 . 1. 0
Ca2 Ca2+ 2 e 0 0.1434(3) 0.75 . 1. 0
Ca3 Ca2+ 4 g 0.0002(3) 0.1909(2) 0.5147(2) . 1. 0
Si1 Si4+ 4 g 0.3005(4) 0.3157(3) 0.6391(2) . 1. 0
Si2 Si4+ 4 g 0.2658(4) 0.3578(2) 0.8405(2) . 1. 0
P1 P5+ 4 g 0.2543(3) 0.3066(2) 0.1340(2) . 1. 0
P2 P5+ 4 g 0.2431(4) 0.0281(3) 0.3797(2) . 1. 0
Na1 Na1+ 2 e 0 0.4622(6) 0.25 . 1. 0
Na2 Na1+ 2 e 0 0.1709(6) 0.25 . 1. 0
Na3 Na1+ 2 f 0.5 0.1251(8) 0.75 . 1. 0
Na4 Na1+ 2 f 0.5 0.1641(7) 0.25 . 1. 0
Na5 Na1+ 2 f 0.5 0.4545(6) 0.25 . 1. 0
Na6 Na1+ 2 b 0.5 0.5 0 . 1. 0
Na7 Na1+ 4 g 0.4841(7) 0.1760(5) -.0055(4) . 1. 0
Na8 Na1+ 4 g 0.2552(5) 0.3378(3) 0.3907(3) . 1. 0
Na9 Na1+ 4 g 0.2672(8) 0.0041(5) 0.1165(4) . 1. 0
O1 O2- 4 g 0.2496(10) 0.1878(7) 0.6499(5) . 1. 0
O2 O2- 4 g 0.2144(10) 0.3681(6) 0.5477(5) . 1. 0
O3 O2- 4 g 0.4759(12) 0.3203(8) 0.8651(6) . 1. 0
O4 O2- 4 g 0.2538(10) 0.3879(6) 0.7298(6) . 1. 0
O5 O2- 4 g 0.2183(10) 0.4689(6) 0.8900(5) . 1. 0
O6 O2- 4 g 0.1427(11) 0.2526(7) 0.8593(5) . 1. 0
O7 O2- 4 g 0.2586(11) 0.1858(7) 0.1043(5) . 1. 0
O8 O2- 4 g 0.2509(10) 0.3155(6) 0.2379(5) . 1. 0
O9 O2- 4 g 0.0743(10) 0.3545(6) 0.0925(5) . 1. 0
O10 O2- 4 g 0.4223(10) 0.3644(6) 0.0999(5) . 1. 0
O11 O2- 4 g 0.2348(11) 0.1501(7) 0.4082(5) . 1. 0
O12 O2- 4 g 0.0742(10) 0.0263(6) 0.9147(5) . 0.5 0
O13 O2- 4 g 0.2080(11) 0.0151(11) 0.2796(6) . 0.5 0
O14 O2- 4 g 0.4226(10) 0.0206(6) 0.9088(5) . 0.5 0
O15 O2- 4 g 0.3854(10) 0.0185(6) 0.3028(8) . 0.5 0
O16 O2- 4 g 0.2615(10) 0.0517(6) 0.9565(5) . 0.5 0
O17 O2- 4 g 0.0668(10) 0.0121(6) 0.3149(6) . 0.5 0
loop_
_atom_site_aniso_label
_atom_site_aniso_type_symbol
_atom_site_aniso_B_11
_atom_site_aniso_B_22
_atom_site_aniso_B_33
_atom_site_aniso_B_12
_atom_site_aniso_B_13
_atom_site_aniso_B_23
Ca1 Ca2+ 0.58(6) 0.67(6) 0.69(6) -.23(5) 0.07(5) 0.16(6)
Ca2 Ca2+ 2.38(9) 0.59(7) 1.30(7) 0 1.33(7) 0
Ca3 Ca2+ 1.04(5) 2.37(6) 0.71(5) 0.59(5) -.09(4) 0.21(5)
Si1 Si4+ 0.72(5) 0.78(6) 0.52(6) -.06(5) -.16(5) 0.03(5)
Si2 Si4+ 0.61(5) 0.89(6) 0.50(6) 0.06(5) 0.01(4) 0.03(5)
P1 P5+ 0.72(5) 0.78(6) 0.52(6) 0.02(5) -.16(4) 0.13(5)
P2 P5+ 0.68(6) 0.76(6) 0.67(7) -.06(5) -.09(5) 0.03(5)
Na1 Na1+ 1.72(19) 1.61(17) 2.71(20) 0 -.05(15) 0
Na2 Na1+ 3.30(21) 1.22(17) 3.34(22) 0 0.56(17) 0
Na3 Na1+ 7.03(34) 0.93(18) 8.16(35) 0 -6.28(29) 0
Na4 Na1+ 5.95(30) 1.5(2) 3.52(24) 0 -2.53(22) 0
Na5 Na1+ 1.92(17) 0.90(15) 2.35(18) 0 -.61(14) 0
Na6 Na1+ 0.88(13) 0.59(12) 0.54(12) 0.58(11) -.20(11) -.32(10)
Na7 Na1+ 2.38(14) 3.32(17) 2.30(13) -.79(13) 0.41(11) -.35(13)
Na8 Na1+ 1.37(10) 1.22(11) 0.82(9) 0.07(9) 0.04(8) 0.06(8)
Na9 Na1+ 4.08(19) 0.89(13) 6.34(21) -.07(13) -.40(16) 0.82(14)
O1 O2- 2.18(20) 0.61(16) 1.61(19) -.03(16) 0.18(16) 0.15(16)
O2 O2- 2.51(21) 1.70(21) 0.49(11) 1.01(17) -.28(15) 0.01(15)
O3 O2- 1.09(18) 7.2(4) 1.95(22) 1.25(24) -.03(16) 0.37(25)
O4 O2- 2.77(23) 1.07(19) 0.43(16) 0.35(17) -.15(15) -.07(14)
O5 O2- 3.09(23) 0.76(17) 1.26(18) -.08(16) 0.32(16) -.40(15)
O6 O2- 2.87(25) 1.50(21) 2.31(23) -1. 1.02(19) 0.06(18)
O7 O2- 2.78(23) 0.45(16) 2.70(23) 0.06(16) 0.28(18) -.23(16)
O8 O2- 1.65(18) 2.78(23) 0.36(14) -.45(18) -.08(13) 0.21(16)
O9 O2- 0.79(15) 1.64(20) 1.64(19) 0.15(15) -.45(13) 0.45(16)
O10 O2- 0.80(16) 1.94(21) 1.46(18) -.26(15) -.09(14) 0.73(17)
O11 O2- 2.05(21) 1.42(21) 2.92(24) -.03(18) 0.31(18) -1.20(19)
O12 O2- 2.50(33) 1.64(32) 11.22(62) -.28(27) 3.74(38) -1.05(37)
O13 O2- 13.79(8) 2.80(46) 2.30(34) -.14(50) 0.87(43) -.49(33)
O14 O2- 2.36(34) 2.73(44) 10.65(64) -.46(32) -2.74(38) -.56(43)
O15 O2- 2.52(75) 0.13(51) 0.10(47) 1.36(48) 1.60(49) 0.68(39)
O16 O2- 8.720(14) 4.04(97) 1.21(64) -3.74(96) 3.04(80) -3.6(2)
O17 O2- 1.29(79) 0.12(77) 4.000(11) 0.16(86) 1.680(14) 0.780(11)
#End of TTdata_200927-ICSD