
#(C) 2019 by FIZ Karlsruhe - Leibniz Institute for Information Infrastructure.  All rights reserved.
data_20114-ICSD
_database_code_ICSD 20114
_audit_creation_date 1980-01-01
_chemical_name_systematic 'Sodium zinc silicate *'
_chemical_formula_structural 'Na2 Zn (Si3 O8)'
_chemical_formula_sum 'Na2 O8 Si3 Zn1'
_exptl_crystal_density_diffrn 2.99
_publ_section_title

;
The new form of the oxysilicate bond (Si3 O8) (infinitely large grids) in the
crystal structure of Na2 Zn (Si3 O8)
;
loop_
_citation_id
_citation_journal_full
_citation_year
_citation_journal_volume
_citation_page_first
_citation_page_last
_citation_journal_id_ASTM
primary 'Doklady Akademii Nauk SSSR' 1974 215 1109 1112 DANKAS
loop_
_publ_author_name
'Plakhov, G.F.'
'Simonov, M.A.'
'Belov, N.V.'
_cell_length_a 6.671(4)
_cell_length_b 6.418(3)
_cell_length_c 8.650(4)
_cell_angle_alpha 90.
_cell_angle_beta 90.
_cell_angle_gamma 103.80(4)
_cell_volume 359.65
_cell_formula_units_Z 2
_symmetry_space_group_name_H-M 'P 1 1 21'
_symmetry_Int_Tables_number 4
_refine_ls_R_factor_all 0.049
loop_
_symmetry_equiv_pos_site_id
_symmetry_equiv_pos_as_xyz
1 '-x, -y, z+1/2'
2 'x, y, z'
loop_
_atom_type_symbol
_atom_type_oxidation_number
Zn2+ 2
Si4+ 4
Na1+ 1
O2- -2
loop_
_atom_site_label
_atom_site_type_symbol
_atom_site_symmetry_multiplicity
_atom_site_Wyckoff_symbol
_atom_site_fract_x
_atom_site_fract_y
_atom_site_fract_z
_atom_site_B_iso_or_equiv
_atom_site_occupancy
_atom_site_attached_hydrogens
Zn1 Zn2+ 2 a 0.3927 0.0354 0 0.38(4) 1. 0
Si1 Si4+ 2 a 0.2658 0.1448 0.6678 0.29(4) 1. 0
Si2 Si4+ 2 a 0.0124 0.4065 0.5045 0.26(4) 1. 0
Si3 Si4+ 2 a 0.1032 0.2498 0.1857 0.27(4) 1. 0
Na1 Na1+ 2 a 0.216 0.826 0.31 1.06(4) 1. 0
Na2 Na1+ 2 a 0.467 0.586 0.867 1.84(4) 1. 0
O1 O2- 2 a 0.184 0.363 0.625 0.78(4) 1. 0
O2 O2- 2 a -.003 0.659 0.534 0.62(4) 1. 0
O3 O2- 2 a 0.205 0.752 0.018 1.01(4) 1. 0
O4 O2- 2 a 0.431 0.206 0.808 0.63(4) 1. 0
O5 O2- 2 a 0.349 0.062 0.512 0.85(4) 1. 0
O6 O2- 2 a 0.054 0.976 0.732 0.77(4) 1. 0
O7 O2- 2 a 0.333 0.216 0.158 0.91(4) 1. 0
O8 O2- 2 a 0.11 0.422 0.329 0.79(4) 1. 0
#End of TTdata_20114-ICSD