
#(C) 2019 by FIZ Karlsruhe - Leibniz Institute for Information Infrastructure.  All rights reserved.
data_201439-ICSD
_database_code_ICSD 201439
_audit_creation_date 1985-03-08
_audit_update_record 2013-02-01
_chemical_name_systematic 'Sodium cobalt sulfide (5/2/5)'
_chemical_formula_structural 'Na5 Co2 S5'
_chemical_formula_sum 'Co2 Na5 S5'
_chemical_name_structure_type Na6PbO5
_exptl_crystal_density_diffrn 2.51
_publ_section_title 'Darstellung und Kristallstruktur von Na5 Co2 S5'
loop_
_citation_id
_citation_journal_full
_citation_year
_citation_journal_volume
_citation_page_first
_citation_page_last
_citation_journal_id_ASTM
primary 'Journal of the Less-Common Metals' 1984 98 165 172 JCOMAH
loop_
_publ_author_name
'Klepp, K.O.'
'Bronger, W.'
_cell_length_a 9.150(2)
_cell_length_b 9.150(2)
_cell_length_c 6.222(2)
_cell_angle_alpha 90.
_cell_angle_beta 90.
_cell_angle_gamma 90.
_cell_volume 520.92
_cell_formula_units_Z 2
_symmetry_space_group_name_H-M 'I 4 m m'
_symmetry_Int_Tables_number 107
_refine_ls_R_factor_all 0.068
loop_
_symmetry_equiv_pos_site_id
_symmetry_equiv_pos_as_xyz
1 '-y, x, z'
2 'y, -x, z'
3 '-y, -x, z'
4 'y, x, z'
5 'x, -y, z'
6 '-x, y, z'
7 '-x, -y, z'
8 'x, y, z'
9 '-y+1/2, x+1/2, z+1/2'
10 'y+1/2, -x+1/2, z+1/2'
11 '-y+1/2, -x+1/2, z+1/2'
12 'y+1/2, x+1/2, z+1/2'
13 'x+1/2, -y+1/2, z+1/2'
14 '-x+1/2, y+1/2, z+1/2'
15 '-x+1/2, -y+1/2, z+1/2'
16 'x+1/2, y+1/2, z+1/2'
loop_
_atom_type_symbol
_atom_type_oxidation_number
Na1+ 1
Co2+ 2.5
S2- -2
loop_
_atom_site_label
_atom_site_type_symbol
_atom_site_symmetry_multiplicity
_atom_site_Wyckoff_symbol
_atom_site_fract_x
_atom_site_fract_y
_atom_site_fract_z
_atom_site_B_iso_or_equiv
_atom_site_occupancy
_atom_site_attached_hydrogens
Na1 Na1+ 2 a 0 0 -.029(5) . 1. 0
Na2 Na1+ 8 c 0.2083(8) 0.2083(8) 0.312(2) . 1. 0
Co1 Co2+ 4 b 0 0.5 0.233(2) . 1. 0
S1 S2- 2 a 0 0 0.506(4) . 1. 0
S2 S2- 8 d 0.3101(5) 0 0 . 1. 0
loop_
_atom_site_aniso_label
_atom_site_aniso_type_symbol
_atom_site_aniso_U_11
_atom_site_aniso_U_22
_atom_site_aniso_U_33
_atom_site_aniso_U_12
_atom_site_aniso_U_13
_atom_site_aniso_U_23
Na1 Na1+ 0.014(5) 0.014(5) 0.030(9) 0 0 0
Na2 Na1+ 0.043(4) 0.043(4) 0.039(6) 0.006(3) -.005(2) -.005(2)
Co1 Co2+ 0.017(2) 0.014(2) 0.010(1) 0 0 0
S1 S2- 0.034(4) 0.034(4) 0.015(6) 0 0 0
S2 S2- 0.016(2) 0.021(2) 0.010(2) 0 -.001(4) 0
#End of TTdata_201439-ICSD