
#(C) 2019 by FIZ Karlsruhe - Leibniz Institute for Information Infrastructure.  All rights reserved.
data_201572-ICSD
_database_code_ICSD 201572
_audit_creation_date 1985-07-17
_audit_update_record 2007-08-01
_chemical_name_systematic 'Potassium sodium alumosilicate *'
_chemical_formula_structural '(K0.5 Na0.5) Na3 (Al4 Si4 O15.99)'
_chemical_formula_sum 'Al4 K0.5 Na3.5 O15.99 Si4'
_chemical_name_structure_type KNa3Al4(SiO4)4
_chemical_name_mineral 'Nepheline (Na-rich)'
_exptl_crystal_density_diffrn 2.64
_publ_section_title
'Crystal structure and Al/Si-ordering of a synthetic nepheline'
loop_
_citation_id
_citation_journal_full
_citation_year
_citation_journal_volume
_citation_page_first
_citation_page_last
_citation_journal_id_ASTM
primary 'Bulletin de Mineralogie' 1984 107 499 507 BULMD9
loop_
_publ_author_name
'Gregorkiewitz, M.'
_cell_length_a 9.989(3)
_cell_length_b 9.989(3)
_cell_length_c 8.380(5)
_cell_angle_alpha 90.
_cell_angle_beta 90.
_cell_angle_gamma 120.
_cell_volume 724.13
_cell_formula_units_Z 2
_symmetry_space_group_name_H-M 'P 63'
_symmetry_Int_Tables_number 173
_refine_ls_R_factor_all 0.064
loop_
_symmetry_equiv_pos_site_id
_symmetry_equiv_pos_as_xyz
1 'x-y, x, z+1/2'
2 'y, -x+y, z+1/2'
3 '-x, -y, z+1/2'
4 '-x+y, -x, z'
5 '-y, x-y, z'
6 'x, y, z'
loop_
_atom_type_symbol
_atom_type_oxidation_number
K1+ 1
Na1+ 1
Al3+ 3
Si4+ 4
Al3+ 3
O2- -2
loop_
_atom_site_label
_atom_site_type_symbol
_atom_site_symmetry_multiplicity
_atom_site_Wyckoff_symbol
_atom_site_fract_x
_atom_site_fract_y
_atom_site_fract_z
_atom_site_B_iso_or_equiv
_atom_site_occupancy
_atom_site_attached_hydrogens
K1 K1+ 2 a 0 0 0.2424(15) . 0.5 0
Na1 Na1+ 2 a 0 0 0.2424(15) . 0.5 0
Na2 Na1+ 6 c 0.5553(3) 0.5541(3) 0.2520(13) . 1. 0
Al1 Al3+ 2 b 0.6667 0.3333 -.0516(10) . 1. 0
Si1 Si4+ 2 b 0.6667 0.3333 0.5588(10) . 1. 0
Si2 Si4+ 6 c 0.3327(1) 0.2386(1) 0.0635(1) . 1. 0
Al2 Al3+ 6 c 0.3328(1) 0.2398(1) 0.4365 . 1. 0
O1 O2- 6 c 0.6212(14) 0.3279(23) 0.7368(21) . 0.33 0
O2 O2- 6 c 0.3131(6) 0.2888(5) 0.2418(15) . 1. 0
O3 O2- 6 c 0.5239(3) 0.3486(3) 0.4801(10) . 1. 0
O4 O2- 6 c 0.5074(3) 0.3448(3) -.005(1) . 1. 0
O5 O2- 6 c 0.2272(3) 0.2879(3) 0.5668(13) . 1. 0
O6 O2- 6 c 0.2176(3) 0.2610(3) -.0585(13) . 1. 0
loop_
_atom_site_aniso_label
_atom_site_aniso_type_symbol
_atom_site_aniso_U_11
_atom_site_aniso_U_22
_atom_site_aniso_U_33
_atom_site_aniso_U_12
_atom_site_aniso_U_13
_atom_site_aniso_U_23
K1 K1+ 0.0244(11) 0.0244(11) 0.0122 0 0 0
Na1 Na1+ 0.0244(11) 0.0244(11) 0.0122 0 0 0
Na2 Na1+ 0.0187(14) 0.0234(14) 0.0157(13) 0.0044(12) -.0074(25) -.0044(26)
Al1 Al3+ 0.0117(7) 0.0117(7) 0.0083(11) 0.0059 0 0
Si1 Si4+ 0.0117(7) 0.0117(7) 0.0083(11) 0.0059 0 0
Si2 Si4+ 0.0102(6) 0.0094(6) 0.0112(6) 0.0053(5) -.0003(6) -.0008(6)
Al2 Al3+ 0.0102(6) 0.0094(6) 0.0112(6) 0.0053(5) -.0003(6) -.0008(6)
O1 O2- 0.0329(29) 0.0387(28) 0.0024(28) 0.0076(2) 0.0050(2) -.0017(30)
O2 O2- 0.0526(22) 0.0266(20) 0.0105(20) 0.307(17) 0.0027(27) 0.0006(26)
O3 O2- 0.0095(13) 0.0195(14) 0.0457(19) 0.0073(12) 0.0076(16) 0.0013(17)
O4 O2- 0.0095(13) 0.0195(14) 0.0457(19) 0.0073(12) 0.0076(16) 0.0013(17)
O5 O2- 0.0200(14) 0.0196(15) 0.0184(16) 0.0147(13) -.0004(16) 0.0026(17)
O6 O2- 0.0200(14) 0.0196(15) 0.0184(16) 0.0147(13) -.0004(16) 0.0026(17)
#End of TTdata_201572-ICSD