
#(C) 2019 by FIZ Karlsruhe - Leibniz Institute for Information Infrastructure.  All rights reserved.
data_201647-ICSD
_database_code_ICSD 201647
_audit_creation_date 1985-08-06
_audit_update_record 1999-06-02
_chemical_name_systematic 'Calcium sodium tecto-alumosilicate *'
_chemical_formula_structural '(Ca.91 Na.09) Al2 Si2 O8'
_chemical_formula_sum 'Al2 Ca0.91 Na0.09 O8 Si2'
_chemical_name_structure_type Feldspar#-(TC,I1-,i28)-Bytownite
_chemical_name_mineral 'Anorthite An91'
_exptl_crystal_density_diffrn 2.74
_publ_section_title 'Analysis of P1-, I1-, and C1- plagioclase structures'
loop_
_citation_id
_citation_journal_full
_citation_year
_citation_journal_volume
_citation_page_first
_citation_page_last
_citation_journal_id_ASTM
primary 'Bulletin de Mineralogie' 1984 107 467 487 BULMD9
loop_
_publ_author_name
'Wenk, H.R.'
'Kroll, H.'
_cell_length_a 8.1805(6)
_cell_length_b 12.8738(6)
_cell_length_c 14.1835(10)
_cell_angle_alpha 93.258(6)
_cell_angle_beta 115.984(6)
_cell_angle_gamma 91.055(5)
_cell_volume 1339.
_cell_formula_units_Z 8
_symmetry_space_group_name_H-M 'I -1'
_symmetry_Int_Tables_number 2
_refine_ls_R_factor_all 0.0452
loop_
_symmetry_equiv_pos_site_id
_symmetry_equiv_pos_as_xyz
1 '-x, -y, -z'
2 'x, y, z'
3 '-x+1/2, -y+1/2, -z+1/2'
4 'x+1/2, y+1/2, z+1/2'
loop_
_atom_type_symbol
_atom_type_oxidation_number
Ca2+ 2
Na1+ 1
Ca2+ 2
Na1+ 1
Ca2+ 2
Na1+ 1
Ca2+ 2
Na1+ 1
Si4+ 4
Al3+ 3
Si4+ 4
Al3+ 3
Si4+ 4
Al3+ 3
O2- -2
loop_
_atom_site_label
_atom_site_type_symbol
_atom_site_symmetry_multiplicity
_atom_site_Wyckoff_symbol
_atom_site_fract_x
_atom_site_fract_y
_atom_site_fract_z
_atom_site_B_iso_or_equiv
_atom_site_occupancy
_atom_site_attached_hydrogens
Ca1 Ca2+ 4 i 0.2672(4) 0.9867(5) 0.0863(4) . 0.52 0
Na1 Na1+ 4 i 0.2672(4) 0.9867(5) 0.0863(4) . 0.04 0
Ca2 Ca2+ 4 i 0.2748(4) 0.0345(5) 0.0444(5) . 0.34 0
Na2 Na1+ 4 i 0.2748(4) 0.0345(5) 0.0444(5) . 0.04 0
Ca3 Ca2+ 4 i 0.264(2) -.007(3) 0.582(3) . 0.15 0
Na3 Na1+ 4 i 0.264(2) -.007(3) 0.582(3) . 0.01 0
Ca4 Ca2+ 4 i 0.2667(6) 0.0288(6) 0.5477(6) . 0.76 0
Na4 Na1+ 4 i 0.2667(6) 0.0288(6) 0.5477(6) . 0.07 0
Si1 Si4+ 4 i 0.00743(19) 0.15843(11) 0.10435(10) . 1. 0
Al1 Al3+ 4 i 0.0028(8) 0.1649(1) 0.6115(1) . 1. 0
Al2 Al3+ 4 i 0.9996(2) 0.8155(1) 0.1188(1) . 1. 0
Si2 Si4+ 4 i 0.00564(19) 0.81742(11) 0.61246(10) . 1. 0
Al3 Al3+ 4 i 0.6873(2) 0.1117(2) 0.1574(1) . 1. 0
Si3 Si4+ 4 i 0.6777(2) 0.1059(1) 0.6590(1) . 1. 0
Si4 Si4+ 4 i 0.6772(2) 0.8815(1) 0.1822(1) . 1. 0
Al4 Al3+ 4 i 0.6828(2) 0.8750(1) 0.6755(1) . 1. 0
O1 O2- 4 i 0.0106(5) 0.1261(2) 0.9924(2) . 1. 0
O2 O2- 4 i 0.9911(5) 0.1259(2) 0.4873(2) . 1. 0
O3 O2- 4 i 0.5776(4) 0.9901(2) 0.1405(2) . 1. 0
O4 O2- 4 i 0.5730(4) 0.9919(2) 0.6373(2) . 1. 0
O5 O2- 4 i 0.8192(5) 0.1007(2) 0.0899(3) . 1. 0
O6 O2- 4 i 0.8025(5) 0.1019(2) 0.5970(3) . 1. 0
O7 O2- 4 i 0.8113(5) 0.8555(3) 0.1307(3) . 1. 0
O8 O2- 4 i 0.8197(5) 0.8554(3) 0.6124(3) . 1. 0
O9 O2- 4 i 0.0127(4) 0.2795(2) 0.1353(2) . 1. 0
O10 O2- 4 i 0.0149(5) 0.2951(3) 0.6481(3) . 1. 0
O11 O2- 4 i 0.0096(4) 0.6807(2) 0.1084(2) . 1. 0
O12 O2- 4 i 0.0091(5) 0.6920(3) 0.6003(2) . 1. 0
O13 O2- 4 i 0.1884(5) 0.1066(3) 0.1883(2) . 1. 0
O14 O2- 4 i 0.2037(5) 0.1044(3) 0.6902(2) . 1. 0
O15 O2- 4 i 0.1995(5) 0.8689(3) 0.2180(3) . 1. 0
O16 O2- 4 i 0.1816(5) 0.8615(3) 0.7124(3) . 1. 0
loop_
_atom_site_aniso_label
_atom_site_aniso_type_symbol
_atom_site_aniso_beta_11
_atom_site_aniso_beta_22
_atom_site_aniso_beta_33
_atom_site_aniso_beta_12
_atom_site_aniso_beta_13
_atom_site_aniso_beta_23
Ca1 Ca2+ 0.00479(50) 0.00535(34) 0.0025(3) -.0008(3) 0.0017(3) -.0023(3)
Na1 Na1+ 0.00479(50) 0.00535(34) 0.0025(3) -.0008(3) 0.0017(3) -.0023(3)
Ca2 Ca2+ 0.00377(62) 0.00198(34) 0.0013(3) 0.0003(3) 0.0011(3) -.0001(3)
Na2 Na1+ 0.00377(62) 0.00198(34) 0.0013(3) 0.0003(3) 0.0011(3) -.0001(3)
Ca3 Ca2+ 0.0020(14) 0.0027(8) 0.0007(7) -.0002(7) 0.0001(7) 0.00000(64)
Na3 Na1+ 0.0020(14) 0.0027(8) 0.0007(7) -.0002(7) 0.0001(7) 0.00000(64)
Ca4 Ca2+ 0.0039(3) 0.0025(2) 0.0019(2) 0.0013(2) 0.0003(2) -.0007(2)
Na4 Na1+ 0.0039(3) 0.0025(2) 0.0019(2) 0.0013(2) 0.0003(2) -.0007(2)
Si1 Si4+ 0.0041(3) 0.00135(9) 0.00089(9) -.00004(12) 0.0007(1) -.00008(7)
Al1 Al3+ 0.0041(3) 0.0014(1) 0.00096(9) 0.00007(14) 0.0008(1) 0.00000(8)
Al2 Al3+ 0.0040(3) 0.0014(1) 0.0009(1) 0.0009(1) 0.0007(2) 0.00007(8)
Si2 Si4+ 0.0046(3) 0.00131(9) 0.00098(8) 0.0006(1) 0.0009(1) 0.0001(1)
Al3 Al3+ 0.0036(3) 0.0010(1) 0.0014(1) 0.0014(1) 0.0007(2) -.00012(8)
Si3 Si4+ 0.0039(3) 0.00112(9) 0.00172(9) 0.00036(12) 0.0008(1) -.00011(7)
Si4 Si4+ 0.0041(3) 0.0011(1) 0.0017(1) 0.0053(1) 0.0009(1) 0.0003(1)
Al4 Al3+ 0.0034(3) 0.0012(1) 0.0013(1) 0.0003(1) 0.0008(2) 0.00004(8)
O1 O2- 0.0098(9) 0.0021(2) 0.0015(2) 0.0003(4) 0.0022(4) -.0002(2)
O2 O2- 0.0101(11) 0.0015(2) 0.0013(3) 0.0008(4) 0.0024(4) 0.0004(2)
O3 O2- 0.0055(8) 0.0009(2) 0.0018(2) 0.0006(3) 0.0014(4) 0.0001(2)
O4 O2- 0.0031(7) 0.0016(2) 0.0017(2) 0.0003(3) 0.0005(3) 0.0003(2)
O5 O2- 0.0050(7) 0.0017(2) 0.0034(2) -.0005(3) 0.0024(4) -.0005(2)
O6 O2- 0.0068(7) 0.0017(2) 0.0037(3) -.0009(3) 0.0033(4) -.0001(2)
O7 O2- 0.0079(8) 0.0025(2) 0.0058(3) 0.0007(3) 0.0049(4) -.0006(2)
O8 O2- 0.0073(8) 0.0029(2) 0.0044(3) 0.0008(3) 0.0038(4) -.0001(2)
O9 O2- 0.0067(7) 0.0012(2) 0.0020(2) -.00002(30) 0.0018(3) -.0002(2)
O10 O2- 0.0055(7) 0.0016(2) 0.0020(2) -.00013(31) 0.0014(3) -.0003(2)
O11 O2- 0.0050(7) 0.0013(2) 0.0018(2) 0.0006(3) 0.0009(3) 0.0001(2)
O12 O2- 0.0065(8) 0.0017(2) 0.0015(2) 0.0007(3) 0.0008(3) -.0002(2)
O13 O2- 0.0069(8) 0.0024(2) 0.0016(2) 0.0002(3) 0.0005(3) -.0005(2)
O14 O2- 0.0051(7) 0.0018(2) 0.0020(2) 0.0006(3) -.0009(3) -.0003(2)
O15 O2- 0.0056(7) 0.0025(3) 0.0024(2) 0.0007(3) -.0012(3) -.0008(2)
O16 O2- 0.0090(8) 0.0024(3) 0.0028(3) 0.0005(4) -.0010(4) -.0010(2)
#End of TTdata_201647-ICSD