
#(C) 2019 by FIZ Karlsruhe - Leibniz Institute for Information Infrastructure.  All rights reserved.
data_20169-ICSD
_database_code_ICSD 20169
_audit_creation_date 1980-01-01
_audit_update_record 2010-08-01
_chemical_name_systematic 'Hexasodium diiron sulfate(VI) tetracarbonate'
_chemical_formula_structural 'Na6 Fe2 (S O4) (C O3)4'
_chemical_formula_sum 'C4 Fe2 Na6 O16 S1'
_chemical_name_structure_type Tychite
_chemical_name_mineral Ferrotychite
_exptl_crystal_density_diffrn 2.86
_publ_section_title 'The crystal structure of the Fe-thychite'
loop_
_citation_id
_citation_journal_full
_citation_year
_citation_journal_volume
_citation_page_first
_citation_page_last
_citation_journal_id_ASTM
primary 'Doklady Akademii Nauk SSSR' 1979 249 1365 1368 DANKAS
loop_
_publ_author_name
'Malinovskii, Yu.A.'
'Baturin, S.V.'
'Belov, N.V.'
_cell_length_a 13.962(5)
_cell_length_b 13.962(5)
_cell_length_c 13.962(5)
_cell_angle_alpha 90.
_cell_angle_beta 90.
_cell_angle_gamma 90.
_cell_volume 2721.72
_cell_formula_units_Z 8
_symmetry_space_group_name_H-M 'F d -3 Z'
_symmetry_Int_Tables_number 203
_refine_ls_R_factor_all 0.029
loop_
_symmetry_equiv_pos_site_id
_symmetry_equiv_pos_as_xyz
1 '-z, x+3/4, y+3/4'
2 'z+3/4, x+3/4, -y'
3 'z+3/4, -x, y+3/4'
4 '-z, -x, -y'
5 'y+3/4, -z, x+3/4'
6 '-y, z+3/4, x+3/4'
7 'y+3/4, z+3/4, -x'
8 '-y, -z, -x'
9 'x+3/4, y+3/4, -z'
10 'x+3/4, -y, z+3/4'
11 '-x, y+3/4, z+3/4'
12 '-x, -y, -z'
13 'z, -x+1/4, -y+1/4'
14 '-z+1/4, -x+1/4, y'
15 '-z+1/4, x, -y+1/4'
16 'z, x, y'
17 '-y+1/4, z, -x+1/4'
18 'y, -z+1/4, -x+1/4'
19 '-y+1/4, -z+1/4, x'
20 'y, z, x'
21 '-x+1/4, -y+1/4, z'
22 '-x+1/4, y, -z+1/4'
23 'x, -y+1/4, -z+1/4'
24 'x, y, z'
25 '-z, x+1/4, y+1/4'
26 'z+3/4, x+1/4, -y+1/2'
27 'z+3/4, -x+1/2, y+1/4'
28 '-z, -x+1/2, -y+1/2'
29 'y+3/4, -z+1/2, x+1/4'
30 '-y, z+1/4, x+1/4'
31 'y+3/4, z+1/4, -x+1/2'
32 '-y, -z+1/2, -x+1/2'
33 'x+3/4, y+1/4, -z+1/2'
34 'x+3/4, -y+1/2, z+1/4'
35 '-x, y+1/4, z+1/4'
36 '-x, -y+1/2, -z+1/2'
37 'z, -x+3/4, -y+3/4'
38 '-z+1/4, -x+3/4, y+1/2'
39 '-z+1/4, x+1/2, -y+3/4'
40 'z, x+1/2, y+1/2'
41 '-y+1/4, z+1/2, -x+3/4'
42 'y, -z+3/4, -x+3/4'
43 '-y+1/4, -z+3/4, x+1/2'
44 'y, z+1/2, x+1/2'
45 '-x+1/4, -y+3/4, z+1/2'
46 '-x+1/4, y+1/2, -z+3/4'
47 'x, -y+3/4, -z+3/4'
48 'x, y+1/2, z+1/2'
49 '-z+1/2, x+3/4, y+1/4'
50 'z+1/4, x+3/4, -y+1/2'
51 'z+1/4, -x, y+1/4'
52 '-z+1/2, -x, -y+1/2'
53 'y+1/4, -z, x+1/4'
54 '-y+1/2, z+3/4, x+1/4'
55 'y+1/4, z+3/4, -x+1/2'
56 '-y+1/2, -z, -x+1/2'
57 'x+1/4, y+3/4, -z+1/2'
58 'x+1/4, -y, z+1/4'
59 '-x+1/2, y+3/4, z+1/4'
60 '-x+1/2, -y, -z+1/2'
61 'z+1/2, -x+1/4, -y+3/4'
62 '-z+3/4, -x+1/4, y+1/2'
63 '-z+3/4, x, -y+3/4'
64 'z+1/2, x, y+1/2'
65 '-y+3/4, z, -x+3/4'
66 'y+1/2, -z+1/4, -x+3/4'
67 '-y+3/4, -z+1/4, x+1/2'
68 'y+1/2, z, x+1/2'
69 '-x+3/4, -y+1/4, z+1/2'
70 '-x+3/4, y, -z+3/4'
71 'x+1/2, -y+1/4, -z+3/4'
72 'x+1/2, y, z+1/2'
73 '-z+1/2, x+1/4, y+3/4'
74 'z+1/4, x+1/4, -y'
75 'z+1/4, -x+1/2, y+3/4'
76 '-z+1/2, -x+1/2, -y'
77 'y+1/4, -z+1/2, x+3/4'
78 '-y+1/2, z+1/4, x+3/4'
79 'y+1/4, z+1/4, -x'
80 '-y+1/2, -z+1/2, -x'
81 'x+1/4, y+1/4, -z'
82 'x+1/4, -y+1/2, z+3/4'
83 '-x+1/2, y+1/4, z+3/4'
84 '-x+1/2, -y+1/2, -z'
85 'z+1/2, -x+3/4, -y+1/4'
86 '-z+3/4, -x+3/4, y'
87 '-z+3/4, x+1/2, -y+1/4'
88 'z+1/2, x+1/2, y'
89 '-y+3/4, z+1/2, -x+1/4'
90 'y+1/2, -z+3/4, -x+1/4'
91 '-y+3/4, -z+3/4, x'
92 'y+1/2, z+1/2, x'
93 '-x+3/4, -y+3/4, z'
94 '-x+3/4, y+1/2, -z+1/4'
95 'x+1/2, -y+3/4, -z+1/4'
96 'x+1/2, y+1/2, z'
loop_
_atom_type_symbol
_atom_type_oxidation_number
Fe2+ 2
Na1+ 1
C4+ 4
O2- -2
S6+ 6
loop_
_atom_site_label
_atom_site_type_symbol
_atom_site_symmetry_multiplicity
_atom_site_Wyckoff_symbol
_atom_site_fract_x
_atom_site_fract_y
_atom_site_fract_z
_atom_site_B_iso_or_equiv
_atom_site_occupancy
_atom_site_attached_hydrogens
Fe1 Fe2+ 16 d 0.5 0.5 0.5 . 1. 0
Na1 Na1+ 48 f 0.90822(7) 0.125 0.125 . 1. 0
C1 C4+ 32 e 0.28077(9) 0.28077(9) 0.28077(9) . 1. 0
O1 O2- 32 e 0.93631(8) 0.93631(8) 0.93631(8) . 1. 0
O2 O2- 96 g 0.22233(8) 0.26721(8) 0.35078(7) . 1. 0
S1 S6+ 8 a 0.125 0.125 0.125 . 1. 0
loop_
_atom_site_aniso_label
_atom_site_aniso_type_symbol
_atom_site_aniso_B_11
_atom_site_aniso_B_22
_atom_site_aniso_B_33
_atom_site_aniso_B_12
_atom_site_aniso_B_13
_atom_site_aniso_B_23
Fe1 Fe2+ 0.57(1) 0.57 0.57 -.02(1) -.02 -.02
Na1 Na1+ 0.96(3) 1.66(4) 1.75(4) 0 0 0.66(3)
C1 C4+ 0.66(2) 0.66 0.66 0.00(3) 0 0
O1 O2- 1.41(3) 1.41 1.41 -.26(3) -.26 -.26
O2 O2- 0.94(3) 1.24(4) 0.78(3) 0.00(3) 0.29(3) 0.17(3)
S1 S6+ 0.83(3) 0.83 0.83 0 0 0
#End of TTdata_20169-ICSD