
#(C) 2019 by FIZ Karlsruhe - Leibniz Institute for Information Infrastructure.  All rights reserved.
data_201648-ICSD
_database_code_ICSD 201648
_audit_creation_date 1985-07-17
_audit_update_record 2015-02-01
_chemical_name_systematic 'Calcium sodium tecto-alumosilicate *'
_chemical_formula_structural 'Ca0.66 Na0.34 (Al1.66 Si2.34 O8)'
_chemical_formula_sum 'Al1.66 Ca0.66 Na0.34 O8 Si2.34'
_chemical_name_structure_type Feldspar#-(TC,I1-,i28)-Bytownite
_chemical_name_mineral 'Anorthite, sodian'
_exptl_crystal_density_diffrn 2.7
_publ_section_title 'Analysis of P1-, I1-, and C1- plagioclase structures'
loop_
_citation_id
_citation_journal_full
_citation_year
_citation_journal_volume
_citation_page_first
_citation_page_last
_citation_journal_id_ASTM
primary 'Bulletin de Mineralogie' 1984 107 467 487 BULMD9
loop_
_publ_author_name
'Wenk, H.R.'
'Kroll, H.'
_cell_length_a 8.1747(9)
_cell_length_b 12.8708(6)
_cell_length_c 14.230(12)
_cell_angle_alpha 93.461(5)
_cell_angle_beta 116.086(5)
_cell_angle_gamma 90.514(6)
_cell_volume 1341.19
_cell_formula_units_Z 8
_symmetry_space_group_name_H-M 'I -1'
_symmetry_Int_Tables_number 2
_refine_ls_R_factor_all 0.0293
loop_
_symmetry_equiv_pos_site_id
_symmetry_equiv_pos_as_xyz
1 '-x, -y, -z'
2 'x, y, z'
3 '-x+1/2, -y+1/2, -z+1/2'
4 'x+1/2, y+1/2, z+1/2'
loop_
_atom_type_symbol
_atom_type_oxidation_number
Ca2+ 2
Na1+ 1
Ca2+ 2
Na1+ 1
Ca2+ 2
Na1+ 1
Ca2+ 2
Na1+ 1
Si4+ 4
Al3+ 3
Si4+ 4
Al3+ 3
Si4+ 4
Al3+ 3
Si4+ 4
O2- -2
loop_
_atom_site_label
_atom_site_type_symbol
_atom_site_symmetry_multiplicity
_atom_site_Wyckoff_symbol
_atom_site_fract_x
_atom_site_fract_y
_atom_site_fract_z
_atom_site_B_iso_or_equiv
_atom_site_occupancy
_atom_site_attached_hydrogens
Ca1 Ca2+ 4 i 0.2670(2) 0.9831(2) 0.0850(2) . 0.32 0
Na1 Na1+ 4 i 0.2670(2) 0.9831(2) 0.0850(2) . 0.17 0
Ca2 Ca2+ 4 i 0.27456(18) 0.03304(16) 0.04677(15) . 0.31 0
Na2 Na1+ 4 i 0.27456(18) 0.03304(16) 0.04677(15) . 0.16 0
Ca3 Ca2+ 4 i 0.2641(3) -.0059(11) 0.5772(7) . 0.25 0
Na3 Na1+ 4 i 0.2641(3) -.0059(11) 0.5772(7) . 0.12 0
Ca4 Ca2+ 4 i 0.2696(3) 0.0270(3) 0.5474(2) . 0.42 0
Na4 Na1+ 4 i 0.2696(3) 0.0270(3) 0.5474(2) . 0.21 0
Si1 Si4+ 4 i 0.00762(7) 0.16079(4) 0.10511(4) . 1. 0
Al1 Al3+ 4 i 0.00400(8) 0.16475(4) 0.60990(4) . 1. 0
Al2 Al3+ 4 i 0.00071(7) 0.81565(4) 0.11783(4) . 0.8 0
Si2 Si4+ 4 i 0.00071(7) 0.81565(4) 0.11783(4) . 0.2 0
Si3 Si4+ 4 i 0.00469(7) 0.81718(4) 0.61340(4) . 1. 0
Al3 Al3+ 4 i 0.68774(7) 0.11092(4) 0.15841(4) . 0.7 0
Si4 Si4+ 4 i 0.68774(7) 0.11092(4) 0.15841(4) . 0.3 0
Si5 Si4+ 4 i 0.68090(7) 0.10676(4) 0.65872(4) . 1. 0
Si6 Si4+ 4 i 0.67851(7) 0.88083(4) 0.18039(4) . 1. 0
Al4 Al3+ 4 i 0.68331(7) 0.87650(4) 0.67724(4) . 0.8 0
Si7 Si4+ 4 i 0.68331(7) 0.87650(4) 0.67724(4) . 0.2 0
O1 O2- 4 i 0.0071(2) 0.1284(1) 0.9910(1) . 1. 0
O2 O2- 4 i 0.9981(2) 0.1279(1) 0.4887(1) . 1. 0
O3 O2- 4 i 0.57981(17) 0.99098(10) 0.13964(10) . 1. 0
O4 O2- 4 i 0.57736(18) 0.99173(10) 0.63817(10) . 1. 0
O5 O2- 4 i 0.8190(2) 0.1031(1) 0.0928(1) . 1. 0
O6 O2- 4 i 0.8051(2) 0.1033(1) 0.5949(1) . 1. 0
O7 O2- 4 i 0.8109(2) 0.8539(1) 0.1262(1) . 1. 0
O8 O2- 4 i 0.8192(2) 0.8541(1) 0.6173(1) . 1. 0
O9 O2- 4 i 0.0130(2) 0.2841(1) 0.1373(1) . 1. 0
O10 O2- 4 i 0.0149(2) 0.2942(1) 0.6457(1) . 1. 0
O11 O2- 4 i 0.0114(2) 0.6826(1) 0.1087(1) . 1. 0
O12 O2- 4 i 0.0116(2) 0.6905(1) 0.6030(1) . 1. 0
O13 O2- 4 i 0.1935(2) 0.1077(1) 0.1895(1) . 1. 0
O14 O2- 4 i 0.2015(2) 0.1052(1) 0.6921(1) . 1. 0
O15 O2- 4 i 0.1951(2) 0.8677(1) 0.2178(1) . 1. 0
O16 O2- 4 i 0.1861(2) 0.8636(1) 0.7130(1) . 1. 0
loop_
_atom_site_aniso_label
_atom_site_aniso_type_symbol
_atom_site_aniso_beta_11
_atom_site_aniso_beta_22
_atom_site_aniso_beta_33
_atom_site_aniso_beta_12
_atom_site_aniso_beta_13
_atom_site_aniso_beta_23
Ca1 Ca2+ 0.00496(25) 0.00737(19) 0.00329(12) -.00220(14) 0.00207(13) -.00316(13)
Na1 Na1+ 0.00496(25) 0.00737(19) 0.00329(12) -.00220(14) 0.00207(13) -.00316(13)
Ca2 Ca2+ 0.00363(22) 0.00273(11) 0.00192(10) 0.00085(10) 0.00054(11) -.00069(7)
Na2 Na1+ 0.00363(22) 0.00273(11) 0.00192(10) 0.00085(10) 0.00054(11) -.00069(7)
Ca3 Ca2+ 0.0045(3) 0.0011(5) 0.0036(3) -.0014(3) 0.0018(2) -.0040(34)
Na3 Na1+ 0.0045(3) 0.0011(5) 0.0036(3) -.0014(3) 0.0018(2) -.0040(34)
Ca4 Ca2+ 0.00327(16) 0.00243(9) 0.00154(9) 0.00099(8) 0.00044(8) -.00061(6)
Na4 Na1+ 0.00327(16) 0.00243(9) 0.00154(9) 0.00099(8) 0.00044(8) -.00061(6)
Si1 Si4+ 0.00404(10) 0.00155(3) 0.00106(3) -.00042(4) 0.00092(5) -.00002(3)
Al1 Al3+ 0.00351(11) 0.00123(3) 0.00087(3) -.00033(4) 0.00076(5) 0.00011(3)
Al2 Al3+ 0.00340(12) 0.00133(3) 0.00066(3) 0.0006(1) 0.0006(2) -.00001(3)
Si2 Si4+ 0.00340(12) 0.00133(3) 0.00066(3) 0.0006(1) 0.0006(2) -.00001(3)
Si3 Si4+ 0.00423(11) 0.00155(3) 0.00093(3) 0.00080(4) 0.00089(5) 0.00013(2)
Al3 Al3+ 0.00268(11) 0.00091(3) 0.00107(3) 0.00007(4) 0.00050(5) 0.00009(2)
Si4 Si4+ 0.00268(11) 0.00091(3) 0.00107(3) 0.00007(4) 0.00050(5) 0.00009(2)
Si5 Si4+ 0.00376(11) 0.00113(3) 0.00148(3) -.00002(4) 0.00081(5) -.00007(2)
Si6 Si4+ 0.00365(11) 0.00113(3) 0.00143(3) 0.00025(4) 0.00081(5) 0.00024(2)
Al4 Al3+ 0.00275(11) 0.00096(3) 0.00105(3) 0.00007(5) 0.00064(5) 0.00010(3)
Si7 Si4+ 0.00275(11) 0.00096(3) 0.00105(3) 0.00007(5) 0.00064(5) 0.00010(3)
O1 O2- 0.0101(3) 0.0028(1) 0.00147(9) 0.00033(13) 0.00240(14) 0.00017(7)
O2 O2- 0.0113(4) 0.00294(9) 0.00148(91) 0.00120(14) 0.00284(15) 0.00066(7)
O3 O2- 0.0047(3) 0.00144(8) 0.00169(9) 0.00046(11) 0.00084(13) 0.00047(6)
O4 O2- 0.0049(3) 0.00151(8) 0.00191(9) -.00037(11) 0.00088(13) 0.0001(1)
O5 O2- 0.0067(3) 0.00207(9) 0.00313(10) -.00082(12) 0.00258(15) -.00022(7)
O6 O2- 0.0076(3) 0.00198(8) 0.00333(10) -.00039(12) 0.00320(15) -.00024(7)
O7 O2- 0.0089(8) 0.00272(10) 0.00504(13) 0.00031(14) 0.00452(18) -.0004(1)
O8 O2- 0.0070(3) 0.00298(10) 0.00461(12) 0.0007(1) 0.0036(2) -.0004(1)
O9 O2- 0.0070(3) 0.00231(9) 0.00242(9) -.00054(13) 0.00205(14) 0.00009(7)
O10 O2- 0.0061(3) 0.00201(8) 0.00247(9) -.00101(13) 0.00149(13) -.00004(7)
O11 O2- 0.0054(3) 0.00234(9) 0.00191(9) 0.00104(12) 0.00065(13) -.00025(13)
O12 O2- 0.0074(3) 0.00223(8) 0.00195(9) 0.00124(12) 0.00084(14) -.00007(6)
O13 O2- 0.0068(3) 0.00223(8) 0.00167(8) 0.00040(12) 0.00015(13) 0.00027(7)
O14 O2- 0.0067(3) 0.00219(9) 0.00174(9) 0.00026(12) 0.00009(13) 0.00019(7)
O15 O2- 0.0073(3) 0.00247(9) 0.00227(9) 0.00029(13) -.00046(14) -.00054(7)
O16 O2- 0.0074(3) 0.00312(10) 0.00245(10) 0.00054(14) -.00059(15) -.00047(8)
#End of TTdata_201648-ICSD