
#(C) 2019 by FIZ Karlsruhe - Leibniz Institute for Information Infrastructure.  All rights reserved.
data_20168-ICSD
_database_code_ICSD 20168
_audit_creation_date 1980-01-01
_audit_update_record 2012-08-01
_chemical_name_systematic 'Sodium iodate'
_chemical_formula_structural 'Na I O3'
_chemical_formula_sum 'I1 Na1 O3'
_chemical_name_structure_type Perovskite-ScYS3
_exptl_crystal_density_diffrn 4.4
_publ_section_title 'About the crystal structure of sodium iodate'
loop_
_citation_id
_citation_journal_full
_citation_year
_citation_journal_volume
_citation_page_first
_citation_page_last
_citation_journal_id_ASTM
primary 'Doklady Akademii Nauk SSSR' 1979 249 613 616 DANKAS
loop_
_publ_author_name
'Sorokina, N.I.'
'Ilyukhin, V.V.'
'Pakhomov, V.I.'
'Belov, N.V.'
_cell_length_a 6.3959(4)
_cell_length_b 5.7475(4)
_cell_length_c 8.1286
_cell_angle_alpha 90.
_cell_angle_beta 90.
_cell_angle_gamma 90.
_cell_volume 298.81
_cell_formula_units_Z 4
_symmetry_space_group_name_H-M 'P b n 21'
_symmetry_Int_Tables_number 33
_refine_ls_R_factor_all 0.03
loop_
_symmetry_equiv_pos_site_id
_symmetry_equiv_pos_as_xyz
1 '-x+1/2, y+1/2, z'
2 'x+1/2, -y+1/2, z+1/2'
3 '-x, -y, z+1/2'
4 'x, y, z'
loop_
_atom_type_symbol
_atom_type_oxidation_number
I5+ 5
Na1+ 1
O2- -2
loop_
_atom_site_label
_atom_site_type_symbol
_atom_site_symmetry_multiplicity
_atom_site_Wyckoff_symbol
_atom_site_fract_x
_atom_site_fract_y
_atom_site_fract_z
_atom_site_B_iso_or_equiv
_atom_site_occupancy
_atom_site_attached_hydrogens
I1 I5+ 4 a 0.01321(2) 0.01123(2) 0.2527(3) . 1. 0
Na1 Na1+ 4 a -.0151(3) 0.4984(6) 0.0023(4) . 1. 0
O1 O2- 4 a 0.0984(4) 0.7123(4) 0.2448(6) . 1. 0
O2 O2- 4 a 0.1556(9) 0.1333(10) 0.0792(6) . 1. 0
O3 O2- 4 a 0.1707(15) 0.1380(7) 0.4128(6) . 1. 0
loop_
_atom_site_aniso_label
_atom_site_aniso_type_symbol
_atom_site_aniso_beta_11
_atom_site_aniso_beta_22
_atom_site_aniso_beta_33
_atom_site_aniso_beta_12
_atom_site_aniso_beta_13
_atom_site_aniso_beta_23
I1 I5+ 0.00477(4) 0.0039(3) 0.0040(3) 0.00023(3) -.00004(2) 0.0006(2)
Na1 Na1+ 0.0083(4) 0.0023(4) 0.0049(2) -.0010(3) -.0004(3) 0.0002(3)
O1 O2- 0.0060(5) 0.0073(5) 0.0037(4) 0.0017(4) 0.0004(4) -.0001(3)
O2 O2- 0.0118(14) 0.0123(10) 0.0043(6) -.0004(9) -.0008(7) 0.0020(5)
O3 O2- 0.0067(8) 0.0029(4) 0.0057(6) -.0002(5) -.0005(4) -.0015(5)
#End of TTdata_20168-ICSD