
#(C) 2019 by FIZ Karlsruhe - Leibniz Institute for Information Infrastructure.  All rights reserved.
data_20161-ICSD
_database_code_ICSD 20161
_audit_creation_date 1980-01-01
_audit_update_record 2012-08-01
_chemical_name_systematic 'Sodium yttrium silicate'
_chemical_formula_structural 'Na Y Si O4'
_chemical_formula_sum 'Na1 O4 Si1 Y1'
_exptl_crystal_density_diffrn 3.71
_publ_section_title
'The refinement of the crystal structure of Na, Y-orthosilicate Na Y Si O4'
loop_
_citation_id
_citation_journal_full
_citation_year
_citation_journal_volume
_citation_page_first
_citation_page_last
_citation_journal_id_ASTM
primary 'Doklady Akademii Nauk SSSR' 1979 248 1108 1111 DANKAS
loop_
_publ_author_name
'Merinov, B.V.'
'Maksimov, B.A.'
'Ilyukhin, V.V.'
'Belov, N.V.'
_cell_length_a 5.128(1)
_cell_length_b 6.393(1)
_cell_length_c 11.135(3)
_cell_angle_alpha 90.
_cell_angle_beta 90.
_cell_angle_gamma 90.
_cell_volume 365.04
_cell_formula_units_Z 4
_symmetry_space_group_name_H-M 'P c 21 n'
_symmetry_Int_Tables_number 33
_refine_ls_R_factor_all 0.039
loop_
_symmetry_equiv_pos_site_id
_symmetry_equiv_pos_as_xyz
1 '-x+1/2, y, z+1/2'
2 'x+1/2, y+1/2, -z+1/2'
3 '-x, y+1/2, -z'
4 'x, y, z'
loop_
_atom_type_symbol
_atom_type_oxidation_number
Y3+ 3
Na1+ 1
Si4+ 4
O2- -2
loop_
_atom_site_label
_atom_site_type_symbol
_atom_site_symmetry_multiplicity
_atom_site_Wyckoff_symbol
_atom_site_fract_x
_atom_site_fract_y
_atom_site_fract_z
_atom_site_B_iso_or_equiv
_atom_site_occupancy
_atom_site_attached_hydrogens
Y1 Y3+ 4 a 0.0003(2) 0 0.2197(6) . 1. 0
Na1 Na1+ 4 a 0.499(3) 0.253(3) 0.002(1) . 1. 0
Si1 Si4+ 4 a 0.0627(4) 0.506(4) 0.0996(2) . 1. 0
O1 O2- 4 a 0.206(3) 0.710(2) 0.166(1) . 1. 0
O2 O2- 4 a 0.201(3) 0.313(2) 0.176(2) . 1. 0
O3 O2- 4 a 0.330(1) 0.495(3) 0.462(1) . 1. 0
O4 O2- 4 a 0.249(1) 0.017(3) 0.387(3) . 1. 0
loop_
_atom_site_aniso_label
_atom_site_aniso_type_symbol
_atom_site_aniso_beta_11
_atom_site_aniso_beta_22
_atom_site_aniso_beta_33
_atom_site_aniso_beta_12
_atom_site_aniso_beta_13
_atom_site_aniso_beta_23
Y1 Y3+ 0.0051(2) 0.0033(1) 0.0008(1) -.0007(1) 0.000(2) .0002(9)
Na1 Na1+ 0.0096(9) 0.0062(5) 0.0020(2) 0.0003(2) 0.000(1) -.0016(5)
Si1 Si4+ 0.0053(6) 0.0036(4) 0.0007(1) -.0006(4) 0.0005(4) 0.000(2)
O1 O2- 0.003(5) 0.009(3) 0.0013(9) 0.003(1) -.001(2) -.002(3)
O2 O2- 0.007(5) 0.001(2) 0.0011(7) 0.002(1) 0.001(2) 0.0005(9)
O3 O2- 0.005(2) 0.005(1) 0.0009(3) 0.003(1) 0.000(1) -.001(3)
O4 O2- 0.003(1) 0.007(1) 0.0014(3) 0.003(1) 0.001(1) -.0002(5)
#End of TTdata_20161-ICSD