
#(C) 2019 by FIZ Karlsruhe - Leibniz Institute for Information Infrastructure.  All rights reserved.
data_201739-ICSD
_database_code_ICSD 201739
_audit_creation_date 1986-12-03
_audit_update_record 1999-11-30
_chemical_name_systematic 'Sodium aluminum cobalt oxide (1.82/10.2/.7/16.9)'
_chemical_formula_structural 'Na1.82 Al10.2 Co.701 O16.9'
_chemical_formula_sum 'Al10.2 Co0.701 Na1.82 O16.9'
_chemical_name_structure_type KAl10.67O17
_exptl_crystal_density_diffrn 3.4
_publ_section_title

;
Structural characterization and ionic conductivity of Co2+ stabilized beta"
-alumina
;
loop_
_citation_id
_citation_journal_full
_citation_year
_citation_journal_volume
_citation_page_first
_citation_page_last
_citation_journal_id_ASTM
primary 'Journal of Solid State Chemistry' 1986 62 26 34 JSSCBI
loop_
_publ_author_name
'Chen, S.'
'White, D.R.'
'Sato, H.'
'Lewis, J.B.'
'Robinson, W.R.'
_cell_length_a 5.6153(9)
_cell_length_b 5.6153(9)
_cell_length_c 33.7119(50)
_cell_angle_alpha 90.
_cell_angle_beta 90.
_cell_angle_gamma 120.
_cell_volume 920.58
_cell_formula_units_Z 3
_symmetry_space_group_name_H-M 'R -3 m H'
_symmetry_Int_Tables_number 166
_refine_ls_R_factor_all 0.064
loop_
_symmetry_equiv_pos_site_id
_symmetry_equiv_pos_as_xyz
1 'x-y, -y, -z'
2 '-x, -x+y, -z'
3 'y, x, -z'
4 'x-y, x, -z'
5 'y, -x+y, -z'
6 '-x, -y, -z'
7 '-x+y, y, z'
8 'x, x-y, z'
9 '-y, -x, z'
10 '-x+y, -x, z'
11 '-y, x-y, z'
12 'x, y, z'
13 'x-y+2/3, -y+1/3, -z+1/3'
14 '-x+2/3, -x+y+1/3, -z+1/3'
15 'y+2/3, x+1/3, -z+1/3'
16 'x-y+2/3, x+1/3, -z+1/3'
17 'y+2/3, -x+y+1/3, -z+1/3'
18 '-x+2/3, -y+1/3, -z+1/3'
19 '-x+y+2/3, y+1/3, z+1/3'
20 'x+2/3, x-y+1/3, z+1/3'
21 '-y+2/3, -x+1/3, z+1/3'
22 '-x+y+2/3, -x+1/3, z+1/3'
23 '-y+2/3, x-y+1/3, z+1/3'
24 'x+2/3, y+1/3, z+1/3'
25 'x-y+1/3, -y+2/3, -z+2/3'
26 '-x+1/3, -x+y+2/3, -z+2/3'
27 'y+1/3, x+2/3, -z+2/3'
28 'x-y+1/3, x+2/3, -z+2/3'
29 'y+1/3, -x+y+2/3, -z+2/3'
30 '-x+1/3, -y+2/3, -z+2/3'
31 '-x+y+1/3, y+2/3, z+2/3'
32 'x+1/3, x-y+2/3, z+2/3'
33 '-y+1/3, -x+2/3, z+2/3'
34 '-x+y+1/3, -x+2/3, z+2/3'
35 '-y+1/3, x-y+2/3, z+2/3'
36 'x+1/3, y+2/3, z+2/3'
loop_
_atom_type_symbol
_atom_type_oxidation_number
Al3+ 3
Co2+ 2
Al3+ 3
O2- -2
Na1+ 1
loop_
_atom_site_label
_atom_site_type_symbol
_atom_site_symmetry_multiplicity
_atom_site_Wyckoff_symbol
_atom_site_fract_x
_atom_site_fract_y
_atom_site_fract_z
_atom_site_B_iso_or_equiv
_atom_site_occupancy
_atom_site_attached_hydrogens
Al1 Al3+ 18 h 0.3347(3) 0.16735 0.0711(1) . 1. 0
Al2 Al3+ 6 c 0 0 0.3500(1) . 0.558 0
Co1 Co2+ 6 c 0 0 0.3500(1) . 0.3504 0
Al3 Al3+ 6 c 0 0 0.4502(1) . 1. 0
Al4 Al3+ 3 a 0 0 0 . 1. 0
O1 O2- 18 h 0.1535(4) 0.307 0.0343(1) . 1. 0
O2 O2- 18 h 0.1631(3) 0.3262 0.2353(1) . 1. 0
O3 O2- 6 c 0 0 0.2958(2) . 1. 0
O4 O2- 6 c 0 0 0.0966(2) . 1. 0
O5 O2- 3 b 0 0 0.5 . 0.936 0
Na1 Na1+ 6 c 0 0 0.176(1) . 0.306 0
Na2 Na1+ 18 h -.063(2) 0.063(2) 0.1713(3) . 0.2 0
loop_
_atom_site_aniso_label
_atom_site_aniso_type_symbol
_atom_site_aniso_U_11
_atom_site_aniso_U_22
_atom_site_aniso_U_33
_atom_site_aniso_U_12
_atom_site_aniso_U_13
_atom_site_aniso_U_23
Al1 Al3+ 0.0234(9) 0.0242(6) 0.0146(7) 0.0117(5) 0 0.000(2)
Al2 Al3+ 0.0219(8) 0.0219(8) 0.011(1) 0.0109(4) 0 0
Co1 Co2+ 0.0219(8) 0.0219(8) 0.011(1) 0.0109(4) 0 0
Al3 Al3+ 0.0249(9) 0.0249(9) 0.015(1) 0.0125 0 0
Al4 Al3+ 0.021(1) 0.021(1) 0.014(2) 0.0105 0 0
O1 O2- 0.029(1) 0.032(2) 0.017(2) 0.016(1) -.001 -.002(2)
O2 O2- 0.028(2) 0.023(2) 0.015(2) 0.0115(10) -.0005 -.001(2)
O3 O2- 0.022(2) 0.022(2) 0.027(3) 0.011(1) 0 0
O4 O2- 0.024(2) 0.024(2) 0.016(3) 0.012(1) 0 0
O5 O2- 0.006(1) 0.006(1) 0.024(5) 0.003 0 0
Na1 Na1+ 0.130(1) 0.130(1) 0.160(3) 0.065 0 0
Na2 Na1+ 0.076(6) 0.150(2) 0.021(5) 0.075(1) 0.09 0.18(3)
#End of TTdata_201739-ICSD