
#(C) 2019 by FIZ Karlsruhe - Leibniz Institute for Information Infrastructure.  All rights reserved.
data_20205-ICSD
_database_code_ICSD 20205
_audit_creation_date 1980-01-01
_audit_update_record 2012-08-01
_chemical_name_systematic 'Disodium oxotitanium silicate'
_chemical_formula_structural 'Na2 (Ti O) (Si O4)'
_chemical_formula_sum 'Na2 O5 Si1 Ti1'
_chemical_name_structure_type Na2Ti(SiO4)O
_chemical_name_mineral Natisite
_exptl_crystal_density_diffrn 3.13
_publ_section_title

;
The refinement of the crystal structure of the synthetic sodium titanosilicate
Na2 (Ti O) (Si O4)
;
loop_
_citation_id
_citation_journal_full
_citation_year
_citation_journal_volume
_citation_page_first
_citation_page_last
_citation_journal_id_ASTM
primary 'Doklady Akademii Nauk SSSR' 1978 240 78 80 DANKAS
loop_
_publ_author_name
'Egorov Tismenko, Yu.K.'
'Simonov, M.A.'
'Belov, N.V.'
_cell_length_a 6.485(1)
_cell_length_b 6.485(1)
_cell_length_c 5.0987(9)
_cell_angle_alpha 90.
_cell_angle_beta 90.
_cell_angle_gamma 90.
_cell_volume 214.43
_cell_formula_units_Z 2
_symmetry_space_group_name_H-M 'P 4/n m m S'
_symmetry_Int_Tables_number 129
_refine_ls_R_factor_all 0.052
loop_
_symmetry_equiv_pos_site_id
_symmetry_equiv_pos_as_xyz
1 '-y+1/2, -x+1/2, z'
2 'y+1/2, x+1/2, z'
3 '-y, -x, -z'
4 'y, x, -z'
5 'y+1/2, -x+1/2, z'
6 '-y+1/2, x+1/2, z'
7 'y, -x, -z'
8 '-y, x, -z'
9 'x+1/2, -y+1/2, -z'
10 '-x+1/2, y+1/2, -z'
11 'x, -y, z'
12 '-x, y, z'
13 '-x+1/2, -y+1/2, -z'
14 'x+1/2, y+1/2, -z'
15 '-x, -y, z'
16 'x, y, z'
loop_
_atom_type_symbol
_atom_type_oxidation_number
Ti4+ 4
Si4+ 4
Na1+ 1
O2- -2
loop_
_atom_site_label
_atom_site_type_symbol
_atom_site_symmetry_multiplicity
_atom_site_Wyckoff_symbol
_atom_site_fract_x
_atom_site_fract_y
_atom_site_fract_z
_atom_site_B_iso_or_equiv
_atom_site_occupancy
_atom_site_attached_hydrogens
Ti1 Ti4+ 2 c 0.5 0 0.9345(3) . 1. 0
Si1 Si4+ 2 a 0 0 0 . 1. 0
Na1 Na1+ 4 e 0.25 0.25 0.5 . 1. 0
O1 O2- 8 i 0.2060(6) 0 0.8168(8) . 1. 0
O2 O2- 2 c 0.5 0 0.269(1) . 1. 0
loop_
_atom_site_aniso_label
_atom_site_aniso_type_symbol
_atom_site_aniso_B_11
_atom_site_aniso_B_22
_atom_site_aniso_B_33
_atom_site_aniso_B_12
_atom_site_aniso_B_13
_atom_site_aniso_B_23
Ti1 Ti4+ 0.16(2) 0.16 0.28(3) 0 0 0
Si1 Si4+ 0.14(4) 0.14(4) 0.36(6) 0 0 0
Na1 Na1+ 1.06(7) 1.06(7) 0.99(10) 0.15(9) 0.34(7) 0.34
O1 O2- 0.38(8) 0.51(9) 0.66(8) 0 0 0.03(8)
O2 O2- 0.98(16) 0.98 0.34(16) 0 0 0
#End of TTdata_20205-ICSD