
#(C) 2019 by FIZ Karlsruhe - Leibniz Institute for Information Infrastructure.  All rights reserved.
data_202052-ICSD
_database_code_ICSD 202052
_audit_creation_date 1988-12-19
_audit_update_record 1997-05-13
_chemical_name_systematic 'Sodium lithium ytterbium fluoride (1/1/2/8)'
_chemical_formula_structural 'Na Li Yb2 F8'
_chemical_formula_sum 'F8 Li1 Na1 Yb2'
_exptl_crystal_density_diffrn 5.93
_publ_section_title 'Structure cristalline de Na Li Yb2 F8: Composes isotypes'
loop_
_citation_id
_citation_journal_full
_citation_year
_citation_journal_volume
_citation_page_first
_citation_page_last
_citation_journal_id_ASTM
primary 'Journal of Solid State Chemistry' 1986 65 205 214 JSSCBI
loop_
_publ_author_name
'Dib, A.'
'Gorius, F.'
'Aleonard, S.'
_cell_length_a 10.3516(9)
_cell_length_b 8.2069(9)
_cell_length_c 6.9674(7)
_cell_angle_alpha 90.
_cell_angle_beta 90.
_cell_angle_gamma 90.
_cell_volume 591.91
_cell_formula_units_Z 4
_symmetry_space_group_name_H-M 'C 1 2/c 1'
_symmetry_Int_Tables_number 15
_refine_ls_R_factor_all 0.021
loop_
_symmetry_equiv_pos_site_id
_symmetry_equiv_pos_as_xyz
1 'x, -y, z+1/2'
2 '-x, -y, -z'
3 '-x, y, -z+1/2'
4 'x, y, z'
5 'x+1/2, -y+1/2, z+1/2'
6 '-x+1/2, -y+1/2, -z'
7 '-x+1/2, y+1/2, -z+1/2'
8 'x+1/2, y+1/2, z'
loop_
_atom_type_symbol
_atom_type_oxidation_number
Yb3+ 3
Na1+ 1
F1- -1
Li1+ 1
loop_
_atom_site_label
_atom_site_type_symbol
_atom_site_symmetry_multiplicity
_atom_site_Wyckoff_symbol
_atom_site_fract_x
_atom_site_fract_y
_atom_site_fract_z
_atom_site_B_iso_or_equiv
_atom_site_occupancy
_atom_site_attached_hydrogens
Yb1 Yb3+ 8 f 0.68682(1) 0.23711(2) 0.25 . 1. 0
Na1 Na1+ 4 e 0 0.6547(4) 0.75 . 1. 0
F1 F1- 4 e 0.5 0.4115(5) 0.25 . 1. 0
F2 F1- 8 f 0.7188(3) 0.0261(4) 0.7488(6) . 1. 0
F3 F1- 8 f 0.8616(3) 0.2034(4) 0.4487(4) . 1. 0
F4 F1- 4 e 0.5 0.1101(6) 0.25 . 1. 0
F5 F1- 8 f 0.3621(3) 0.7035(4) 0.0516(4) . 1. 0
Li1 Li1+ 4 a 0 0 0 . 1. 0
loop_
_atom_site_aniso_label
_atom_site_aniso_type_symbol
_atom_site_aniso_beta_11
_atom_site_aniso_beta_22
_atom_site_aniso_beta_33
_atom_site_aniso_beta_12
_atom_site_aniso_beta_13
_atom_site_aniso_beta_23
Yb1 Yb3+ 0.00078(1) 0.00220(1) 0.00213(2) -.00005(2) -.00015(2) 0.00000(3)
Na1 Na1+ 0.0016(2) 0.0049(3) 0.0123(6) 0 -.0003(6) 0
F1 F1- 0.0017(2) 0.0036(4) 0.0051(6) 0 -.0002(6) 0
F2 F1- 0.0024(2) 0.0036(3) 0.0178(8) -.0006(4) -.00015(7) 0.00005(9)
F3 F1- 0.0017(2) 0.0082(4) 0.0028(3) 0.00075(4) -.0002(4) -.00005(5)
F4 F1- 0.0008(3) 0.0028(5) 0.0553(28) 0 0.0000(1) 0
F5 F1- 0.0016(2) 0.0085(4) 0.0028(3) 0.0010(4) -.00025(4) 0.00015(6)
Li1 Li1+ 0.004(1) 0.013(1) 0.003(2) -.002(3) -.0015(2) 0.0055(3)
#End of TTdata_202052-ICSD