
#(C) 2019 by FIZ Karlsruhe - Leibniz Institute for Information Infrastructure.  All rights reserved.
data_202112-ICSD
_database_code_ICSD 202112
_audit_creation_date 1988-12-19
_audit_update_record 2013-08-01
_chemical_name_systematic 'Calcium disodium tetraalumotetrasilicate'
_chemical_formula_structural 'Ca Na2 (Al4 Si4 O16)'
_chemical_formula_sum 'Al4 Ca1 Na2 O16 Si4'
_chemical_name_mineral Lisetite
_exptl_crystal_density_diffrn 2.74
_publ_section_title 'Crystal structure of lisetite, Ca Na2 Al4 Si4 O16'
loop_
_citation_id
_citation_journal_full
_citation_year
_citation_journal_volume
_citation_page_first
_citation_page_last
_citation_journal_id_ASTM
primary 'American Mineralogist' 1986 71 1378 1383 AMMIAY
loop_
_publ_author_name
'Rossi, G.'
'Oberti, R.'
'Smith, D.C.'
_cell_length_a 8.260(1)
_cell_length_b 17.086(1)
_cell_length_c 9.654(1)
_cell_angle_alpha 90.
_cell_angle_beta 90.
_cell_angle_gamma 90.
_cell_volume 1362.47
_cell_formula_units_Z 4
_symmetry_space_group_name_H-M 'P b c 21'
_symmetry_Int_Tables_number 29
_refine_ls_R_factor_all 0.026
loop_
_symmetry_equiv_pos_site_id
_symmetry_equiv_pos_as_xyz
1 '-x, y+1/2, z'
2 'x, -y+1/2, z+1/2'
3 '-x, -y, z+1/2'
4 'x, y, z'
loop_
_atom_type_symbol
_atom_type_oxidation_number
Ca2+ 2
Na1+ 1
Ca2+ 2
Na1+ 1
Al3+ 3
Si4+ 4
Al3+ 3
Si4+ 4
Al3+ 3
Si4+ 4
Al3+ 3
Si4+ 4
Al3+ 3
Si4+ 4
Al3+ 3
Si4+ 4
Al3+ 3
Si4+ 4
Al3+ 3
Si4+ 4
O2- -2
loop_
_atom_site_label
_atom_site_type_symbol
_atom_site_symmetry_multiplicity
_atom_site_Wyckoff_symbol
_atom_site_fract_x
_atom_site_fract_y
_atom_site_fract_z
_atom_site_B_iso_or_equiv
_atom_site_occupancy
_atom_site_attached_hydrogens
Ca1 Ca2+ 4 a 0.2542(2) 0.6615(1) 0.25 . 0.92 0
Na1 Na1+ 4 a 0.2542(2) 0.6615(1) 0.25 . 0.08 0
Na2 Na1+ 4 a 0.7852(2) 0.5961(1) 0.4147(2) . 0.94 0
Ca2 Ca2+ 4 a 0.7852(2) 0.5961(1) 0.4147(2) . 0.06 0
Na3 Na1+ 4 a 0.7171(2) 0.6008(1) 0.0811(2) . 0.95 0
Al1 Al3+ 4 a 0.9188(1) 0.3407(1) 0.0604(1) . 0.84 0
Si1 Si4+ 4 a 0.9188(1) 0.3407(1) 0.0604(1) . 0.16 0
Al2 Al3+ 4 a 0.0674(1) 0.2576(1) 0.3074(1) . 0.11 0
Si2 Si4+ 4 a 0.0674(1) 0.2576(1) 0.3074(1) . 0.89 0
Al3 Al3+ 4 a 0.9469(1) 0.4025(1) 0.4557(1) . 0.88 0
Si3 Si4+ 4 a 0.9469(1) 0.4025(1) 0.4557(1) . 0.12 0
Al4 Al3+ 4 a 0.0540(1) 0.4932(1) 0.2063(1) . 0.1 0
Si4 Si4+ 4 a 0.0540(1) 0.4932(1) 0.2063(1) . 0.9 0
Al5 Al3+ 4 a 0.5763(1) 0.3366(1) 0.4416(1) . 0.08 0
Si5 Si4+ 4 a 0.5763(1) 0.3366(1) 0.4416(1) . 0.92 0
Al6 Al3+ 4 a 0.4222(1) 0.2646(1) 0.1905(1) . 0.91 0
Si6 Si4+ 4 a 0.4222(1) 0.2646(1) 0.1905(1) . 0.09 0
Al7 Al3+ 4 a 0.5494(1) 0.4054(1) 0.0306(1) . 0.12 0
Si7 Si4+ 4 a 0.5494(1) 0.4054(1) 0.0306(1) . 0.88 0
Al8 Al3+ 4 a 0.4415(2) 0.4865(1) 0.2815(1) . 0.92 0
Si8 Si4+ 4 a 0.4415(2) 0.4865(1) 0.2815(1) . 0.08 0
O1 O2- 4 a 0.0408(4) 0.4172(2) 0.1091(3) . 1. 0
O2 O2- 4 a 0.9307(4) 0.2680(2) 0.1864(3) . 1. 0
O3 O2- 4 a 0.7227(4) 0.3626(2) 0.0121(3) . 1. 0
O4 O2- 4 a 0.9938(4) 0.3145(2) -.1032(3) . 1. 0
O5 O2- 4 a 0.0902(4) 0.3352(2) 0.3997(3) . 1. 0
O6 O2- 4 a 0.0124(4) 0.4305(2) 0.6223(3) . 1. 0
O7 O2- 4 a 0.9434(4) 0.4826(2) 0.3434(3) . 1. 0
O8 O2- 4 a 0.4592(4) 0.4064(2) 0.3878(3) . 1. 0
O9 O2- 4 a 0.5678(4) 0.2679(2) 0.3259(3) . 1. 0
O10 O2- 4 a 0.7588(4) 0.3608(2) 0.4791(4) . 1. 0
O11 O2- 4 a 0.5083(4) 0.3115(2) 0.5921(3) . 1. 0
O12 O2- 4 a 0.4111(4) 0.3480(2) 0.0899(3) . 1. 0
O13 O2- 4 a 0.4941(4) 0.4297(2) -.1257(3) . 1. 0
O14 O2- 4 a 0.5625(4) 0.4805(2) 0.1347(3) . 1. 0
O15 O2- 4 a 0.2385(7) 0.2279(1) 0.2457(8) . 1. 0
O16 O2- 4 a 0.2397(7) 0.5141(1) 0.2464(8) . 1. 0
loop_
_atom_site_aniso_label
_atom_site_aniso_type_symbol
_atom_site_aniso_beta_11
_atom_site_aniso_beta_22
_atom_site_aniso_beta_33
_atom_site_aniso_beta_12
_atom_site_aniso_beta_13
_atom_site_aniso_beta_23
Ca1 Ca2+ 0.0023(1) 0.0005(1) 0.0020(1) 0.0001(1) 0.0004(1) 0.0001(1)
Na1 Na1+ 0.0023(1) 0.0005(1) 0.0020(1) 0.0001(1) 0.0004(1) 0.0001(1)
Na2 Na1+ 0.0039(3) 0.0017(1) 0.0058(3) -.0002(1) -.0001(2) -.0004(1)
Ca2 Ca2+ 0.0039(3) 0.0017(1) 0.0058(3) -.0002(1) -.0001(2) -.0004(1)
Na3 Na1+ 0.0030(3) 0.0013(1) 0.0040(2) 0.0010(1) -.0012(2) -.0002(1)
Al1 Al3+ 0.0014(2) 0.0005(1) 0.0009(1) 0.0001(1) -.0001(1) 0.0000(1)
Si1 Si4+ 0.0014(2) 0.0005(1) 0.0009(1) 0.0001(1) -.0001(1) 0.0000(1)
Al2 Al3+ 0.0020(1) 0.0005(1) 0.0013(1) 0.0000(1) 0.0001(1) 0.0001(1)
Si2 Si4+ 0.0020(1) 0.0005(1) 0.0013(1) 0.0000(1) 0.0001(1) 0.0001(1)
Al3 Al3+ 0.0012(1) 0.0005(1) 0.0016(1) 0.0000(1) 0.0003(1) 0.0000(1)
Si3 Si4+ 0.0012(1) 0.0005(1) 0.0016(1) 0.0000(1) 0.0003(1) 0.0000(1)
Al4 Al3+ 0.0016(1) 0.0004(1) 0.0013(1) 0.0001(1) 0.0003(1) 0.0001(1)
Si4 Si4+ 0.0016(1) 0.0004(1) 0.0013(1) 0.0001(1) 0.0003(1) 0.0001(1)
Al5 Al3+ 0.0022(1) 0.0004(1) 0.0016(1) 0.0000(1) 0.0000(1) 0.0001(1)
Si5 Si4+ 0.0022(1) 0.0004(1) 0.0016(1) 0.0000(1) 0.0000(1) 0.0001(1)
Al6 Al3+ 0.0014(1) 0.0005(1) 0.0018(1) 0.0000(1) 0.0003(1) 0.0000(1)
Si6 Si4+ 0.0014(1) 0.0005(1) 0.0018(1) 0.0000(1) 0.0003(1) 0.0000(1)
Al7 Al3+ 0.0022(1) 0.0006(1) 0.0012(1) 0.0002(1) 0.0003(1) 0.0000(1)
Si7 Si4+ 0.0022(1) 0.0006(1) 0.0012(1) 0.0002(1) 0.0003(1) 0.0000(1)
Al8 Al3+ 0.0024(2) 0.0004(1) 0.0015(1) 0.0002(1) -.0007(1) 0.0000(1)
Si8 Si4+ 0.0024(2) 0.0004(1) 0.0015(1) 0.0002(1) -.0007(1) 0.0000(1)
O1 O2- 0.0056(5) 0.0006(1) 0.0025(3) -.0004(1) 0.0002(3) 0.0001(2)
O2 O2- 0.0028(4) 0.0006(1) 0.0013(3) 0.0000(1) -.0004(3) 0.0004(2)
O3 O2- 0.0023(4) 0.0011(1) 0.0017(3) 0.0003(1) -.0003(3) 0.0000(2)
O4 O2- 0.0023(4) 0.0009(1) 0.0013(3) 0.0003(1) 0.0004(3) -.0003(2)
O5 O2- 0.0028(4) 0.0008(1) 0.0026(3) 0.0001(1) 0.0008(3) 0.0000(2)
O6 O2- 0.0029(4) 0.0009(1) 0.0022(3) 0.0003(1) 0.0000(3) -.0002(2)
O7 O2- 0.0056(4) 0.0007(1) 0.0030(3) 0.0001(1) 0.0010(3) 0.0002(2)
O8 O2- 0.0032(4) 0.0006(1) 0.0017(3) 0.0001(1) 0.0004(3) 0.0001(2)
O9 O2- 0.0029(4) 0.0008(1) 0.0024(3) 0.0001(1) 0.0000(3) 0.0000(2)
O10 O2- 0.0034(4) 0.0011(1) 0.0041(4) -.0008(2) 0.0006(3) 0.0000(2)
O11 O2- 0.0043(4) 0.0007(1) 0.0017(3) 0.0001(1) 0.0006(3) 0.0000(2)
O12 O2- 0.0034(4) 0.0008(1) 0.0021(3) 0.0000(1) -.0001(3) 0.0003(2)
O13 O2- 0.0020(4) 0.0007(1) 0.0020(3) 0.0002(1) -.0001(3) 0.0002(2)
O14 O2- 0.0026(4) 0.0005(1) 0.0020(3) -.0002(1) 0.0005(3) -.0002(2)
O15 O2- 0.0029(4) 0.0007(1) 0.0032(3) 0.0000(3) 0.0013(3) -.0002(2)
O16 O2- 0.0020(4) 0.0007(1) 0.0035(3) -.0001(3) -.0008(3) 0.0000(2)
#End of TTdata_202112-ICSD