
#(C) 2019 by FIZ Karlsruhe - Leibniz Institute for Information Infrastructure.  All rights reserved.
data_202279-ICSD
_database_code_ICSD 202279
_audit_creation_date 1988-12-19
_audit_update_record 2006-04-01
_chemical_name_systematic
'Sodium zirconium silicon phosphorus oxide (3.09/2.01/2.09/0.91/12)'
_chemical_formula_structural 'Na3.09 Zr2.01 Si2.09 P0.91 O12'
_chemical_formula_sum 'Na3.09 O12 P0.91 Si2.09 Zr2.01'
_chemical_name_structure_type 'Nasicon high'
_chemical_name_mineral Nasicon
_exptl_crystal_density_diffrn 3.23
_cell_measurement_temperature 623.
_publ_section_title 'Crystal structure of the true Nasicon Na3 Zr2 Si2 P O12'
loop_
_citation_id
_citation_journal_full
_citation_year
_citation_journal_volume
_citation_page_first
_citation_page_last
_citation_journal_id_ASTM
primary 'Materials Research Bulletin' 1987 22 669 676 MRBUAC
loop_
_publ_author_name
'Boilot, J.P.'
'Collin, G.'
'Colomban, P.'
_cell_length_a 9.074(2)
_cell_length_b 9.074(2)
_cell_length_c 23.0570(40)
_cell_angle_alpha 90.
_cell_angle_beta 90.
_cell_angle_gamma 120.
_cell_volume 1644.11
_cell_formula_units_Z 6
_symmetry_space_group_name_H-M 'R -3 c H'
_symmetry_Int_Tables_number 167
_refine_ls_R_factor_all 0.0293
loop_
_symmetry_equiv_pos_site_id
_symmetry_equiv_pos_as_xyz
1 'x-y, -y, -z+1/2'
2 '-x, -x+y, -z+1/2'
3 'y, x, -z+1/2'
4 'x-y, x, -z'
5 'y, -x+y, -z'
6 '-x, -y, -z'
7 '-x+y, y, z+1/2'
8 'x, x-y, z+1/2'
9 '-y, -x, z+1/2'
10 '-x+y, -x, z'
11 '-y, x-y, z'
12 'x, y, z'
13 'x-y+2/3, -y+1/3, -z+5/6'
14 '-x+2/3, -x+y+1/3, -z+5/6'
15 'y+2/3, x+1/3, -z+5/6'
16 'x-y+2/3, x+1/3, -z+1/3'
17 'y+2/3, -x+y+1/3, -z+1/3'
18 '-x+2/3, -y+1/3, -z+1/3'
19 '-x+y+2/3, y+1/3, z+5/6'
20 'x+2/3, x-y+1/3, z+5/6'
21 '-y+2/3, -x+1/3, z+5/6'
22 '-x+y+2/3, -x+1/3, z+1/3'
23 '-y+2/3, x-y+1/3, z+1/3'
24 'x+2/3, y+1/3, z+1/3'
25 'x-y+1/3, -y+2/3, -z+1/6'
26 '-x+1/3, -x+y+2/3, -z+1/6'
27 'y+1/3, x+2/3, -z+1/6'
28 'x-y+1/3, x+2/3, -z+2/3'
29 'y+1/3, -x+y+2/3, -z+2/3'
30 '-x+1/3, -y+2/3, -z+2/3'
31 '-x+y+1/3, y+2/3, z+1/6'
32 'x+1/3, x-y+2/3, z+1/6'
33 '-y+1/3, -x+2/3, z+1/6'
34 '-x+y+1/3, -x+2/3, z+2/3'
35 '-y+1/3, x-y+2/3, z+2/3'
36 'x+1/3, y+2/3, z+2/3'
loop_
_atom_type_symbol
_atom_type_oxidation_number
Zr4+ 4
P5+ 5
Si4+ 4
O2- -2
Na1+ 1
loop_
_atom_site_label
_atom_site_type_symbol
_atom_site_symmetry_multiplicity
_atom_site_Wyckoff_symbol
_atom_site_fract_x
_atom_site_fract_y
_atom_site_fract_z
_atom_site_B_iso_or_equiv
_atom_site_occupancy
_atom_site_attached_hydrogens
Zr1 Zr4+ 12 c 0 0 0.1480(1) . 1.005 0
P1 P5+ 18 e 0.2903(1) 0 0.25 . 0.3 0
Si1 Si4+ 18 e 0.2903(1) 0 0.25 . 0.7 0
O1 O2- 36 f 0.1716(3) -.0356(4) 0.1948(1) . 1. 0
O2 O2- 36 f 0.1943(3) 0.1695(3) 0.0918(1) . 1. 0
Na1 Na1+ 6 b 0 0 0 . 0.40(2) 0
Na2 Na1+ 18 e 0.6345(5) 0 0.25 . 0.68 0
Na3 Na1+ 36 f 0.9764(4) 0.7958(60) 0.9773(35) . 0.106 0
loop_
_atom_site_aniso_label
_atom_site_aniso_type_symbol
_atom_site_aniso_U_11
_atom_site_aniso_U_22
_atom_site_aniso_U_33
_atom_site_aniso_U_12
_atom_site_aniso_U_13
_atom_site_aniso_U_23
Zr1 Zr4+ 0.0130(2) 0.013 0.0113(2) 0.0065 0 0
P1 P5+ 0.0138(3) 0.0156(4) 0.0151(4) 0.0078 0.00215 0.0043(3)
Si1 Si4+ 0.0138(3) 0.0156(4) 0.0151(4) 0.0078 0.00215 0.0043(3)
O1 O2- 0.0357(14) 0.0520(19) 0.0332(12) 0.0279(14) -.0151(11) 0.0015(12)
O2 O2- 0.0213(10) 0.0262(11) 0.0265(11) 0.0027(9) 0.0094(9) 0.0051(9)
Na1 Na1+ 0.3129(10) 0.3129 0.018(10) 0.1564 0 0
Na2 Na1+ 0.0408(21) 0.0524(31) 0.2281(46) 0.0262 0.03865 0.0773(61)
Na3 Na1+ 0.06(2) 0.28(5) 0.18(4) 0.15(2) 0.5(1) 0.19(4)
#End of TTdata_202279-ICSD