
#(C) 2019 by FIZ Karlsruhe - Leibniz Institute for Information Infrastructure.  All rights reserved.
data_202325-ICSD
_database_code_ICSD 202325
_audit_creation_date 1988-12-19
_chemical_name_systematic 'Tetrasodium pentaoxotellurate'
_chemical_formula_structural 'Na4 Te O5'
_chemical_formula_sum 'Na4 O5 Te1'
_chemical_name_structure_type Li4TeO5
_exptl_crystal_density_diffrn 4.19
_publ_section_title

;
Ein neues Oxotellurat, Na4 Te O5, und eine Revision der Struktur von Li4 Te O5
;
loop_
_citation_id
_citation_journal_full
_citation_year
_citation_journal_volume
_citation_page_first
_citation_page_last
_citation_journal_id_ASTM
primary 'Journal of the Less-Common Metals' 1987 132 79 92 JCOMAH
loop_
_publ_author_name
'Untenecker, H.'
'Hoppe, R.'
_cell_length_a 5.714(4)
_cell_length_b 8.462(6)
_cell_length_c 5.563(4)
_cell_angle_alpha 101.31(5)
_cell_angle_beta 102.22(6)
_cell_angle_gamma 109.25(6)
_cell_volume 237.66
_cell_formula_units_Z 2
_symmetry_space_group_name_H-M 'P -1'
_symmetry_Int_Tables_number 2
_refine_ls_R_factor_all 0.07
loop_
_symmetry_equiv_pos_site_id
_symmetry_equiv_pos_as_xyz
1 '-x, -y, -z'
2 'x, y, z'
loop_
_atom_type_symbol
_atom_type_oxidation_number
Te6+ 6
Na1+ 1
O2- -2
loop_
_atom_site_label
_atom_site_type_symbol
_atom_site_symmetry_multiplicity
_atom_site_Wyckoff_symbol
_atom_site_fract_x
_atom_site_fract_y
_atom_site_fract_z
_atom_site_B_iso_or_equiv
_atom_site_occupancy
_atom_site_attached_hydrogens
Te1 Te6+ 2 i 0.1956(1) 0.2025(1) 0.1048(1) . 1. 0
Na1 Na1+ 1 c 0 0.5 0 . 1. 0
Na2 Na1+ 1 b 0 0 0.5 . 1. 0
Na3 Na1+ 2 i 0.4220(8) 0.9004(5) 0.2138(8) . 1. 0
Na4 Na1+ 2 i 0.6059(9) 0.6000(6) 0.2942(8) . 1. 0
Na5 Na1+ 2 i 0.7983(7) 0.3038(5) 0.4260(7) . 1. 0
O1 O2- 2 i 0.5221(11) 0.3161(8) 0.0546(11) . 1. 0
O2 O2- 2 i 0.8497(11) 0.0382(8) 0.1220(11) . 1. 0
O3 O2- 2 i 0.9870(11) 0.7649(8) 0.2032(11) . 1. 0
O4 O2- 2 i 0.1783(10) 0.4027(8) 0.3128(11) . 1. 0
O5 O2- 2 i 0.3614(11) 0.1535(8) 0.4018(11) . 1. 0
loop_
_atom_site_aniso_label
_atom_site_aniso_type_symbol
_atom_site_aniso_U_11
_atom_site_aniso_U_22
_atom_site_aniso_U_33
_atom_site_aniso_U_12
_atom_site_aniso_U_13
_atom_site_aniso_U_23
Te1 Te6+ 0.0051(2) 0.0065(2) 0.0080(3) 0.0025(2) 0.0010(2) 0.0013(2)
Na1 Na1+ 0.0331(18) 0.0372(18) 0.0494(19) 0.0060(17) -.0057(18) 0.0117(17)
Na2 Na1+ 0.0552(17) 0.0227(15) 0.0060(15) 0.0340(14) 0.0063(15) 0.0033(14)
Na3 Na1+ 0.0133(13) 0.0200(14) 0.0199(15) 0.0083(11) 0.0024(12) 0.0042(12)
Na4 Na1+ 0.0334(16) 0.0219(14) 0.0168(14) 0.0167(13) 0.0089(13) 0.0062(13)
Na5 Na1+ 0.0124(13) 0.0187(13) 0.0124(13) 0.0080(11) 0.0061(11) 0.0047(12)
O1 O2- 0.0082(16) 0.0138(16) 0.0143(16) 0.0008(14) 0.0026(15) 0.0035(15)
O2 O2- 0.0091(16) 0.0148(16) 0.0111(16) 0.0062(14) -.0032(15) -.0005(15)
O3 O2- 0.0162(16) 0.0160(16) 0.0163(16) 0.0096(14) 0.0056(15) 0.0131(15)
O4 O2- 0.0127(16) 0.0125(15) 0.0099(16) 0.0114(13) 0.0054(14) 0.0053(14)
O5 O2- 0.0069(16) 0.0112(16) 0.0123(16) 0.0008(14) -.0009(15) -.0049(15)
#End of TTdata_202325-ICSD