
#(C) 2019 by FIZ Karlsruhe - Leibniz Institute for Information Infrastructure.  All rights reserved.
data_202529-ICSD
_database_code_ICSD 202529
_audit_creation_date 1988-12-19
_audit_update_record 1999-06-02
_chemical_name_systematic 'Sodium copper diiron(III) vanadate'
_chemical_formula_structural 'Na Cu Fe2 (V O4)3'
_chemical_formula_sum 'Cu1 Fe2 Na1 O12 V3'
_chemical_name_mineral Howardevansite
_exptl_crystal_density_diffrn 3.81
_publ_section_title

;
Howardevansite Na (Cu2+) (Fe3+)2 ((V O4)3-)3, a new fumarolic sublimate from
Izalco volcano, El Salvador: Descriptive mineralogy and crystal structure
;
loop_
_citation_id
_citation_journal_full
_citation_year
_citation_journal_volume
_citation_page_first
_citation_page_last
_citation_journal_id_ASTM
primary 'American Mineralogist' 1988 73 181 186 AMMIAY
loop_
_publ_author_name
'Hughes, J.M.'
'Drexler, J.W.'
'Campana, C.F.'
'Malinconico, M.L.'
_cell_length_a 8.198(2)
_cell_length_b 9.773(1)
_cell_length_c 6.6510(8)
_cell_angle_alpha 103.82(1)
_cell_angle_beta 101.99(1)
_cell_angle_gamma 106.74(1)
_cell_volume 473.1
_cell_formula_units_Z 2
_symmetry_space_group_name_H-M 'P -1'
_symmetry_Int_Tables_number 2
_refine_ls_R_factor_all 0.026
loop_
_symmetry_equiv_pos_site_id
_symmetry_equiv_pos_as_xyz
1 '-x, -y, -z'
2 'x, y, z'
loop_
_atom_type_symbol
_atom_type_oxidation_number
Cu2+ 2
Fe3+ 3
V5+ 5
Na1+ 1
O2- -2
loop_
_atom_site_label
_atom_site_type_symbol
_atom_site_symmetry_multiplicity
_atom_site_Wyckoff_symbol
_atom_site_fract_x
_atom_site_fract_y
_atom_site_fract_z
_atom_site_B_iso_or_equiv
_atom_site_occupancy
_atom_site_attached_hydrogens
Cu1 Cu2+ 2 i 0.78675(8) 0.79562(8) 0.7765(1) . 1. 0
Fe1 Fe3+ 2 i 0.54817(9) 0.39238(8) 0.1191(1) . 1. 0
Fe2 Fe3+ 2 i 0.29616(9) 0.98522(8) 0.4553(1) . 1. 0
V1 V5+ 2 i 0.4101(1) 0.66723(9) 0.3893(1) . 1. 0
V2 V5+ 2 i 0.8383(1) 0.73926(9) 0.2755(1) . 1. 0
V3 V5+ 2 i 0.7710(1) 0.12589(9) 0.0913(1) . 1. 0
Na1 Na1+ 1 g 0 0.5 0.5 . 1. 0
Na2 Na1+ 2 i 0.0234(9) 0.5509(7) -.016(1) . 0.5 0
O1 O2- 2 i 0.4450(4) 0.8570(4) 0.4201(5) . 1. 0
O2 O2- 2 i 0.4821(4) 0.3502(4) 0.3713(5) . 1. 0
O3 O2- 2 i 0.8014(5) 0.5556(4) 0.2637(6) . 1. 0
O4 O2- 2 i 0.2201(4) 1.1642(4) 0.5035(5) . 1. 0
O5 O2- 2 i 0.2729(5) 0.0075(4) 0.1599(5) . 1. 0
O6 O2- 2 i 0.4729(4) 0.5794(4) 0.1701(5) . 1. 0
O7 O2- 2 i 0.7287(4) 0.7421(4) 0.0244(5) . 1. 0
O8 O2- 2 i 0.0552(4) 0.8210(4) 0.3184(6) . 1. 0
O9 O2- 2 i 0.1981(5) 0.5800(4) 0.3385(6) . 1. 0
O10 O2- 2 i 0.9907(5) 0.2365(4) 0.1897(6) . 1. 0
O11 O2- 2 i 0.7176(5) 0.0361(4) 0.2674(5) . 1. 0
O12 O2- 2 i 0.6592(5) 0.2444(4) 0.0678(6) . 1. 0
loop_
_atom_site_aniso_label
_atom_site_aniso_type_symbol
_atom_site_aniso_beta_11
_atom_site_aniso_beta_22
_atom_site_aniso_beta_33
_atom_site_aniso_beta_12
_atom_site_aniso_beta_13
_atom_site_aniso_beta_23
Cu1 Cu2+ 0.00664(9) 0.00777(7) 0.0072(1) 0.0089(1) 0.0079(2) 0.0105(2)
Fe1 Fe3+ 0.0037(1) 0.00217(7) 0.0040(2) 0.0029(1) 0.0034(2) 0.0029(2)
Fe2 Fe3+ 0.0037(1) 0.00238(7) 0.0052(2) 0.0024(1) 0.0032(2) 0.0028(2)
V1 V5+ 0.0033(1) 0.00146(8) 0.0035(2) 0.0020(2) 0.0029(2) 0.0019(2)
V2 V5+ 0.0029(1) 0.00186(8) 0.0030(2) 0.0020(2) 0.0029(2) 0.0018(2)
V3 V5+ 0.0029(1) 0.00194(8) 0.0029(2) 0.0023(2) 0.0030(2) 0.0023(2)
Na1 Na1+ 0.0026(4) 0.0314(4) 0.0514(8) 0.0230(7) 0.0288(9) 0.0814(7)
Na2 Na1+ 0.0089(1) 0.0130(1) 0.0083(1) 0.0130(1) -.0069(1) -.0070(1)
O1 O2- 0.0022(5) 0.0017(3) 0.0059(8) 0.0025(6) 0.002(1) 0.0014(9)
O2 O2- 0.0048(5) 0.0034(4) 0.0049(7) 0.0022(7) 0.004(1) 0.0045(9)
O3 O2- 0.0056(5) 0.0033(4) 0.0086(8) 0.0042(7) 0.006(1) 0.0045(9)
O4 O2- 0.0061(5) 0.0036(4) 0.0040(7) 0.0062(7) 0.006(1) 0.0051(8)
O5 O2- 0.0068(5) 0.0040(4) 0.0045(7) 0.0057(7) 0.005(1) 0.0055(9)
O6 O2- 0.0067(5) 0.0020(3) 0.0032(7) 0.0039(7) 0.004(1) 0.0023(8)
O7 O2- 0.0056(5) 0.0039(4) 0.0054(8) 0.0047(7) 0.005(1) 0.0047(9)
O8 O2- 0.0040(6) 0.0040(4) 0.0080(8) -.0006(8) 0.004(1) 0.003(1)
O9 O2- 0.0037(6) 0.0040(4) 0.016(1) 0.0011(8) 0.000(1) 0.005(1)
O10 O2- 0.0039(6) 0.0061(4) 0.0080(9) 0.0008(8) 0.001(1) 0.005(1)
O11 O2- 0.0079(6) 0.0044(4) 0.0042(8) 0.0038(8) 0.006(1) 0.0044(9)
O12 O2- 0.0065(5) 0.0042(4) 0.0074(8) 0.0072(7) 0.003(1) 0.002(1)
#End of TTdata_202529-ICSD