
#(C) 2019 by FIZ Karlsruhe - Leibniz Institute for Information Infrastructure.  All rights reserved.
data_20258-ICSD
_database_code_ICSD 20258
_audit_creation_date 1981-12-31
_chemical_name_systematic 'Sodium yttrium disilicate'
_chemical_formula_structural 'Na3 Y Si2 O7'
_chemical_formula_sum 'Na3 O7 Si2 Y1'
_exptl_crystal_density_diffrn 3.06
_publ_section_title 'The crystal structure of Na3 Y Si2 O7'
loop_
_citation_id
_citation_journal_full
_citation_year
_citation_journal_volume
_citation_page_first
_citation_page_last
_citation_journal_id_ASTM
primary 'Doklady Akademii Nauk SSSR' 1981 260 1128 1130 DANKAS
loop_
_publ_author_name
'Merinov, B.V.'
'Maksimov, B.A.'
'Belov, N.V.'
_cell_length_a 9.422(1)
_cell_length_b 9.422(1)
_cell_length_c 13.790(2)
_cell_angle_alpha 90.
_cell_angle_beta 90.
_cell_angle_gamma 120.
_cell_volume 1060.18
_cell_formula_units_Z 6
_symmetry_space_group_name_H-M 'P 63/m'
_symmetry_Int_Tables_number 176
_refine_ls_R_factor_all 0.085
loop_
_symmetry_equiv_pos_site_id
_symmetry_equiv_pos_as_xyz
1 '-x+y, -x, -z+1/2'
2 '-y, x-y, -z+1/2'
3 'x, y, -z+1/2'
4 'x-y, x, -z'
5 'y, -x+y, -z'
6 '-x, -y, -z'
7 'x-y, x, z+1/2'
8 'y, -x+y, z+1/2'
9 '-x, -y, z+1/2'
10 '-x+y, -x, z'
11 '-y, x-y, z'
12 'x, y, z'
loop_
_atom_type_symbol
_atom_type_oxidation_number
Y3+ 3
Si4+ 4
Na1+ 1
O2- -2
loop_
_atom_site_label
_atom_site_type_symbol
_atom_site_symmetry_multiplicity
_atom_site_Wyckoff_symbol
_atom_site_fract_x
_atom_site_fract_y
_atom_site_fract_z
_atom_site_B_iso_or_equiv
_atom_site_occupancy
_atom_site_attached_hydrogens
Y1 Y3+ 2 a 0 0 0.25 0.38 1. 0
Y2 Y3+ 4 f 0.3333 0.6667 0.0189(1) 0.35 1. 0
Si1 Si4+ 12 i 0.3471(3) 0.3277(3) 0.1412(2) 0.04 1. 0
Na1 Na1+ 2 b 0 0 0.5 0.8 1. 0
Na2 Na1+ 12 i 0.3301(6) 0.3143(6) 0.5875(3) 0.97 1. 0
Na3 Na1+ 2 c 0.6667 0.3333 0.75 2. 1. 0
Na4 Na1+ 4 f 0.6667 0.3333 0.271(1) 2.5 0.5 0
O1 O2- 12 i 0.123(1) 0.608(1) 0.1209(6) 0.6 1. 0
O2 O2- 6 h 0.417(1) 0.320(1) 0.25 0.3 1. 0
O3 O2- 12 i 0.4402(9) 0.2694(9) 0.4335(5) 0.5 1. 0
O4 O2- 12 i 0.1503(9) 0.1981(9) 0.3612(5) 0.5 1. 0
#End of TTdata_20258-ICSD