
#(C) 2019 by FIZ Karlsruhe - Leibniz Institute for Information Infrastructure.  All rights reserved.
data_202587-ICSD
_database_code_ICSD 202587
_audit_creation_date 1989-06-19
_audit_update_record 2008-02-01
_chemical_name_systematic 'Sodium tricopper fluoride'
_chemical_formula_structural 'Na Cu3 F7'
_chemical_formula_sum 'Cu3 F7 Na1'
_exptl_crystal_density_diffrn 4.34
_publ_section_title

;
Complex copper(II) fluorides IX. Weberite-related Na Cu3 F7: The first
fluoride with copper both in square planar and octahedral coordination
;
loop_
_citation_id
_citation_journal_full
_citation_year
_citation_journal_volume
_citation_page_first
_citation_page_last
_citation_journal_id_ASTM
primary 'Journal of Solid State Chemistry' 1988 73 603 609 JSSCBI
loop_
_publ_author_name
'Renaudin, J.'
'le Blanc, M.'
'Ferey, G.'
'de Kozak, A.'
'Samouel, M.'
_cell_length_a 12.124(6)
_cell_length_b 7.344(4)
_cell_length_c 6.924(4)
_cell_angle_alpha 90.
_cell_angle_beta 120.59(4)
_cell_angle_gamma 90.
_cell_volume 530.71
_cell_formula_units_Z 4
_symmetry_space_group_name_H-M 'C 1 2/c 1'
_symmetry_Int_Tables_number 15
_refine_ls_R_factor_all 0.047
loop_
_symmetry_equiv_pos_site_id
_symmetry_equiv_pos_as_xyz
1 'x, -y, z+1/2'
2 '-x, -y, -z'
3 '-x, y, -z+1/2'
4 'x, y, z'
5 'x+1/2, -y+1/2, z+1/2'
6 '-x+1/2, -y+1/2, -z'
7 '-x+1/2, y+1/2, -z+1/2'
8 'x+1/2, y+1/2, z'
loop_
_atom_type_symbol
_atom_type_oxidation_number
Na1+ 1
Cu2+ 2
F1- -1
loop_
_atom_site_label
_atom_site_type_symbol
_atom_site_symmetry_multiplicity
_atom_site_Wyckoff_symbol
_atom_site_fract_x
_atom_site_fract_y
_atom_site_fract_z
_atom_site_B_iso_or_equiv
_atom_site_occupancy
_atom_site_attached_hydrogens
Na1 Na1+ 4 b 0 0.5 0 . 1. 0
Cu1 Cu2+ 4 a 0 0 0 . 1. 0
Cu2 Cu2+ 4 c 0.25 0.25 0 . 1. 0
Cu3 Cu2+ 4 d 0.25 0.25 0.5 . 1. 0
F1 F1- 8 f 0.0976(6) 0.2025(9) 0.0044(12) . 1. 0
F2 F1- 8 f 0.3292(5) 0.2992(9) 0.3186(11) . 1. 0
F3 F1- 8 f 0.1579(6) 0.4664(7) 0.4014(11) . 1. 0
F4 F1- 4 e 0 0.1070(13) 0.25 . 1. 0
loop_
_atom_site_aniso_label
_atom_site_aniso_type_symbol
_atom_site_aniso_U_11
_atom_site_aniso_U_22
_atom_site_aniso_U_33
_atom_site_aniso_U_12
_atom_site_aniso_U_13
_atom_site_aniso_U_23
Na1 Na1+ 0.0249(23) 0.0285(24) 0.0268(23) 0.0007(34) 0.019(2) 0.0009(20)
Cu1 Cu2+ 0.0112(4) 0.0099(4) 0.0091(4) -.0003(9) 0.0065(3) -.0014(9)
Cu2 Cu2+ 0.0079(6) 0.0112(10) 0.0080(7) -.0008(6) 0.0044(6) -.0023(6)
Cu3 Cu2+ 0.0190(9) 0.0102(11) 0.0179(9) 0.0014(7) 0.0138(8) 0.0023(7)
F1 F1- 0.0173(20) 0.0160(22) 0.0330(28) -.0044(22) 0.0195(22) -.0040(19)
F2 F1- 0.015(2) 0.0251(24) 0.0110(18) -.0033(18) 0.0083(16) -.0057(20)
F3 F1- 0.0234(22) 0.0075(20) 0.0219(21) 0.0018(14) 0.0147(19) 0.0029(15)
F4 F1- 0.0656(61) 0.0193(37) 0.0200(33) 0 0.0323(40) 0
#End of TTdata_202587-ICSD