
#(C) 2019 by FIZ Karlsruhe - Leibniz Institute for Information Infrastructure.  All rights reserved.
data_202657-ICSD
_database_code_ICSD 202657
_audit_creation_date 1989-06-19
_audit_update_record 1990-05-24
_chemical_name_systematic 'Sodium calcium aluminium fluoride (2/3/2/14)'
_chemical_formula_structural 'Na2 Ca3 Al2 F14'
_chemical_formula_sum 'Al2 Ca3 F14 Na2'
_exptl_crystal_density_diffrn 2.99
_publ_section_title

;
Na2 Ca3 Al2 F14: A New Example of a Structure with "Independent F(-)" - A New
Method of Comparison between Fluorides and Oxides of Different Formula
;
loop_
_citation_id
_citation_journal_full
_citation_year
_citation_journal_volume
_citation_page_first
_citation_page_last
_citation_journal_id_ASTM
primary 'Journal of Solid State Chemistry' 1988 76 426 431 JSSCBI
loop_
_publ_author_name
'Courbion, G.'
'Ferey, G.'
_cell_length_a 10.257(1)
_cell_length_b 10.257(1)
_cell_length_c 10.257(1)
_cell_angle_alpha 90.
_cell_angle_beta 90.
_cell_angle_gamma 90.
_cell_volume 1079.1
_cell_formula_units_Z 4
_symmetry_space_group_name_H-M 'I 21 3'
_symmetry_Int_Tables_number 199
_refine_ls_R_factor_all 0.032
loop_
_symmetry_equiv_pos_site_id
_symmetry_equiv_pos_as_xyz
1 '-z+1/2, -x, y+1/2'
2 '-y+1/2, -z, x+1/2'
3 '-x+1/2, -y, z+1/2'
4 '-z, x+1/2, -y+1/2'
5 '-y, z+1/2, -x+1/2'
6 '-x, y+1/2, -z+1/2'
7 'z+1/2, -x+1/2, -y'
8 'y+1/2, -z+1/2, -x'
9 'x+1/2, -y+1/2, -z'
10 'z, x, y'
11 'y, z, x'
12 'x, y, z'
13 '-z, -x+1/2, y'
14 '-y, -z+1/2, x'
15 '-x, -y+1/2, z'
16 '-z+1/2, x, -y'
17 '-y+1/2, z, -x'
18 '-x+1/2, y, -z'
19 'z, -x, -y+1/2'
20 'y, -z, -x+1/2'
21 'x, -y, -z+1/2'
22 'z+1/2, x+1/2, y+1/2'
23 'y+1/2, z+1/2, x+1/2'
24 'x+1/2, y+1/2, z+1/2'
loop_
_atom_type_symbol
_atom_type_oxidation_number
Ca2+ 2
Al3+ 3
Na1+ 1
F1- -1
loop_
_atom_site_label
_atom_site_type_symbol
_atom_site_symmetry_multiplicity
_atom_site_Wyckoff_symbol
_atom_site_fract_x
_atom_site_fract_y
_atom_site_fract_z
_atom_site_B_iso_or_equiv
_atom_site_occupancy
_atom_site_attached_hydrogens
Ca1 Ca2+ 12 b 0.4667 0 0.25 . 1. 0
Al1 Al3+ 8 a 0.2482 0.2482 0.2482 . 1. 0
Na1 Na1+ 8 a 0.0847 0.0847 0.0847 . 1. 0
F1 F1- 24 c 0.1387(1) 0.3062(1) 0.1206(1) . 1. 0
F2 F1- 24 c 0.3640(1) 0.3627(1) 0.1873(1) . 1. 0
F3 F1- 8 a 0.4614(1) 0.4614(1) 0.4614(1) . 1. 0
loop_
_atom_site_aniso_label
_atom_site_aniso_type_symbol
_atom_site_aniso_U_11
_atom_site_aniso_U_22
_atom_site_aniso_U_33
_atom_site_aniso_U_12
_atom_site_aniso_U_13
_atom_site_aniso_U_23
Ca1 Ca2+ 0.0078(1) 0.0091(1) 0.0078(1) 0 0 0
Al1 Al3+ 0.0075(1) 0.0075(1) 0.0075(1) -.0002(1) -.0002(1) -.0002(1)
Na1 Na1+ 0.0273(2) 0.0273(2) 0.0273(2) -.0088(2) -.0088(2) -.0088(2)
F1 F1- 0.0114(2) 0.0127(2) 0.0125(2) 0.0025(2) -.0029(2) -.0007(2)
F2 F1- 0.0131(2) 0.0147(2) 0.0154(2) 0.0026(2) -.0006(2) -.0059(2)
F3 F1- 0.0104(1) 0.0104(1) 0.0104(1) 0.0014(2) 0.0014(2) 0.0014(2)
#End of TTdata_202657-ICSD