
#(C) 2019 by FIZ Karlsruhe - Leibniz Institute for Information Infrastructure.  All rights reserved.
data_202766-ICSD
_database_code_ICSD 202766
_audit_creation_date 1989-12-04
_chemical_name_systematic 'Sodium hexalanthanum trigallium sulfide'
_chemical_formula_structural 'La6 (Ga Na) Ga2 S14'
_chemical_formula_sum 'Ga3 La6 Na1 S14'
_chemical_name_structure_type La3CuSiS7
_exptl_crystal_density_diffrn 4.64
_publ_section_title 'Preparation et structure de La6 (Ga,Na) Ga2 S14'
loop_
_citation_id
_citation_journal_full
_citation_year
_citation_journal_volume
_citation_page_first
_citation_page_last
_citation_journal_id_ASTM
primary 'Materials Research Bulletin' 1988 23 831 835 MRBUAC
loop_
_publ_author_name
'Jaulmes, S.'
'Palazzi, M.'
'Laruelle, P.'
_cell_length_a 10.158(6)
_cell_length_b 10.158(6)
_cell_length_c 6.059(2)
_cell_angle_alpha 90.
_cell_angle_beta 90.
_cell_angle_gamma 120.
_cell_volume 541.44
_cell_formula_units_Z 1
_symmetry_space_group_name_H-M 'P 63'
_symmetry_Int_Tables_number 173
_refine_ls_R_factor_all 0.048
loop_
_symmetry_equiv_pos_site_id
_symmetry_equiv_pos_as_xyz
1 'x-y, x, z+1/2'
2 'y, -x+y, z+1/2'
3 '-x, -y, z+1/2'
4 '-x+y, -x, z'
5 '-y, x-y, z'
6 'x, y, z'
loop_
_atom_type_symbol
_atom_type_oxidation_number
La3+ 3
Ga3+ 3
S2- -2
Na1+ 1
Ga3+ 3
loop_
_atom_site_label
_atom_site_type_symbol
_atom_site_symmetry_multiplicity
_atom_site_Wyckoff_symbol
_atom_site_fract_x
_atom_site_fract_y
_atom_site_fract_z
_atom_site_B_iso_or_equiv
_atom_site_occupancy
_atom_site_attached_hydrogens
La1 La3+ 6 c 0.14263(7) 0.37437(8) 0 . 1. 0
Ga1 Ga3+ 2 b 0.6667 0.3333 0.0781(5) . 1. 0
S1 S2- 6 c 0.2365(5) 0.1450(4) 0.9651(8) . 1. 0
S2 S2- 6 c 0.5184(4) 0.0965(4) 0.2313(6) . 1. 0
S3 S2- 2 b 0.3333 0.6667 0.218(1) . 1. 0
Na1 Na1+ 2 a 0 0 0.258(6) . 0.5 0
Ga2 Ga3+ 2 a 0 0 0.175(2) . 0.25 0
Ga3 Ga3+ 2 a 0 0 0.305(2) . 0.25 0
loop_
_atom_site_aniso_label
_atom_site_aniso_type_symbol
_atom_site_aniso_beta_11
_atom_site_aniso_beta_22
_atom_site_aniso_beta_33
_atom_site_aniso_beta_12
_atom_site_aniso_beta_13
_atom_site_aniso_beta_23
La1 La3+ 0.00407(9) 0.00311(8) 0.0116(2) 0.00171(7) 0.0010(2) 0.0004(2)
Ga1 Ga3+ 0.0044(2) 0.0044(2) 0.0055(6) 0.0022(1) 0 0
S1 S2- 0.0064(4) 0.0042(4) 0.019(2) 0.0031(3) 0.0016(7) 0.0023(6)
S2 S2- 0.0042(4) 0.0044(4) 0.0076(4) 0.0015(3) -.0003(6) -.0003(5)
S3 S2- 0.0046(4) 0.0046(4) 0.004(1) 0.0023(2) 0 0
Na1 Na1+ 0.0018(9) 0.0018(9) 0.022(6) 0.0009(5) 0 0
Ga2 Ga3+ 0.0058(7) 0.0058(7) 0.012(3) 0.0029(4) 0 0
Ga3 Ga3+ 0.0088(9) 0.0088(9) 0.021(3) 0.0044(5) 0 0
#End of TTdata_202766-ICSD