
#(C) 2019 by FIZ Karlsruhe - Leibniz Institute for Information Infrastructure.  All rights reserved.
data_202721-ICSD
_database_code_ICSD 202721
_audit_creation_date 1989-12-04
_audit_update_record 2015-02-01
_chemical_name_systematic 'Trisodium diiron(III) tris(arsenate(V))'
_chemical_formula_structural 'Na3 Fe2 (As O4)3'
_chemical_formula_sum 'As3 Fe2 Na3 O12'
_chemical_name_structure_type Na3+xFe2(AsO4)3
_exptl_crystal_density_diffrn 3.94
_publ_section_title

;
Crystal structure, non-stoichiometry and conductivity of II-Na3 M2 (As O4)3
(M= Al, Ga, Cr, Fe)
;
loop_
_citation_id
_citation_journal_full
_citation_year
_citation_journal_volume
_citation_page_first
_citation_page_last
_citation_journal_id_ASTM
primary 'Solid State Ionics' 1988 28 1259 1264 SSIOD3
loop_
_publ_author_name
'd'Yvoire, F.'
'Bretey, E.'
'Collin, G.'
_cell_length_a 13.698(5)
_cell_length_b 13.698(5)
_cell_length_c 18.590(6)
_cell_angle_alpha 90.
_cell_angle_beta 90.
_cell_angle_gamma 120.
_cell_volume 3020.82
_cell_formula_units_Z 12
_symmetry_space_group_name_H-M 'R -3 c H'
_symmetry_Int_Tables_number 167
_refine_ls_R_factor_all 0.048
loop_
_symmetry_equiv_pos_site_id
_symmetry_equiv_pos_as_xyz
1 'x-y, -y, -z+1/2'
2 '-x, -x+y, -z+1/2'
3 'y, x, -z+1/2'
4 'x-y, x, -z'
5 'y, -x+y, -z'
6 '-x, -y, -z'
7 '-x+y, y, z+1/2'
8 'x, x-y, z+1/2'
9 '-y, -x, z+1/2'
10 '-x+y, -x, z'
11 '-y, x-y, z'
12 'x, y, z'
13 'x-y+2/3, -y+1/3, -z+5/6'
14 '-x+2/3, -x+y+1/3, -z+5/6'
15 'y+2/3, x+1/3, -z+5/6'
16 'x-y+2/3, x+1/3, -z+1/3'
17 'y+2/3, -x+y+1/3, -z+1/3'
18 '-x+2/3, -y+1/3, -z+1/3'
19 '-x+y+2/3, y+1/3, z+5/6'
20 'x+2/3, x-y+1/3, z+5/6'
21 '-y+2/3, -x+1/3, z+5/6'
22 '-x+y+2/3, -x+1/3, z+1/3'
23 '-y+2/3, x-y+1/3, z+1/3'
24 'x+2/3, y+1/3, z+1/3'
25 'x-y+1/3, -y+2/3, -z+1/6'
26 '-x+1/3, -x+y+2/3, -z+1/6'
27 'y+1/3, x+2/3, -z+1/6'
28 'x-y+1/3, x+2/3, -z+2/3'
29 'y+1/3, -x+y+2/3, -z+2/3'
30 '-x+1/3, -y+2/3, -z+2/3'
31 '-x+y+1/3, y+2/3, z+1/6'
32 'x+1/3, x-y+2/3, z+1/6'
33 '-y+1/3, -x+2/3, z+1/6'
34 '-x+y+1/3, -x+2/3, z+2/3'
35 '-y+1/3, x-y+2/3, z+2/3'
36 'x+1/3, y+2/3, z+2/3'
loop_
_atom_type_symbol
_atom_type_oxidation_number
Na1+ 1
Fe3+ 3
As5+ 5
O2- -2
loop_
_atom_site_label
_atom_site_type_symbol
_atom_site_symmetry_multiplicity
_atom_site_Wyckoff_symbol
_atom_site_fract_x
_atom_site_fract_y
_atom_site_fract_z
_atom_site_B_iso_or_equiv
_atom_site_occupancy
_atom_site_attached_hydrogens
Na1 Na1+ 6 b 0 0 0 2.04(26) 1. 0
Na2 Na1+ 36 f 0.7867(7) 0.0107(6) 0.0489(3) 3.98(26) 0.83(2) 0
Fe1 Fe3+ 6 a 0 0 0.25 0.64(5) 1. 0
Fe2 Fe3+ 18 e 0.77267(9) 0 0.25 0.69(5) 1. 0
As1 As5+ 36 f 0.18175(6) -.01267(5) 0.14580(4) 0.80(2) 1. 0
O1 O2- 36 f 0.5271(4) 0.0620(4) 0.1469(3) 1.14(17) 1. 0
O2 O2- 36 f 0.7156(4) 0.0586(4) 0.1784(3) 1.21(17) 1. 0
O3 O2- 36 f 0.5965(5) 0.1938(4) 0.0243(3) 0.88(15) 1. 0
O4 O2- 36 f 0.0233(6) 0.1612(5) 0.0629(3) 1.80(21) 1. 0
#End of TTdata_202721-ICSD