
#(C) 2019 by FIZ Karlsruhe - Leibniz Institute for Information Infrastructure.  All rights reserved.
data_202879-ICSD
_database_code_ICSD 202879
_audit_creation_date 1990-06-08
_audit_update_record 2012-02-01
_chemical_name_systematic 'Sodium pentafluorotellurate(IV)'
_chemical_formula_structural 'Na (Te F5)'
_chemical_formula_sum 'F5 Na1 Te1'
_chemical_name_structure_type NaTeF5
_exptl_crystal_density_diffrn 3.77
_cell_measurement_temperature 293.
_publ_section_title 'The crystal structure of Na Te F5'
loop_
_citation_id
_citation_journal_full
_citation_year
_citation_journal_volume
_citation_page_first
_citation_page_last
_citation_journal_id_ASTM
primary 'Materials Research Bulletin' 1989 24 633 638 MRBUAC
loop_
_publ_author_name
'du Bois, A.'
'Abriel, W.'
_cell_length_a 10.1610(6)
_cell_length_b 5.9187(5)
_cell_length_c 7.1885(4)
_cell_angle_alpha 90.
_cell_angle_beta 90.
_cell_angle_gamma 90.
_cell_volume 432.32
_cell_formula_units_Z 4
_symmetry_space_group_name_H-M 'P n m a'
_symmetry_Int_Tables_number 62
_refine_ls_R_factor_all 0.038
loop_
_symmetry_equiv_pos_site_id
_symmetry_equiv_pos_as_xyz
1 'x+1/2, y, -z+1/2'
2 'x, -y+1/2, z'
3 '-x+1/2, y+1/2, z+1/2'
4 '-x, -y, -z'
5 '-x+1/2, -y, z+1/2'
6 '-x, y+1/2, -z'
7 'x+1/2, -y+1/2, -z+1/2'
8 'x, y, z'
loop_
_atom_type_symbol
_atom_type_oxidation_number
Te4+ 4
F1- -1
Na1+ 1
loop_
_atom_site_label
_atom_site_type_symbol
_atom_site_symmetry_multiplicity
_atom_site_Wyckoff_symbol
_atom_site_fract_x
_atom_site_fract_y
_atom_site_fract_z
_atom_site_B_iso_or_equiv
_atom_site_occupancy
_atom_site_attached_hydrogens
Te1 Te4+ 4 c 0.2647(2) 0.25 0.6556(3) . 1. 0
F1 F1- 4 c 0.3073(2) 0.25 0.4012(3) . 1. 0
F2 F1- 8 d 0.4002(3) 0.0215(6) 0.6514(3) . 1. 0
F3 F1- 8 d 0.1368(2) 0.0271(4) 0.5570(3) . 1. 0
Na1 Na1+ 4 c 0.9952(2) 0.25 0.3122(3) . 1. 0
loop_
_atom_site_aniso_label
_atom_site_aniso_type_symbol
_atom_site_aniso_U_11
_atom_site_aniso_U_22
_atom_site_aniso_U_33
_atom_site_aniso_U_12
_atom_site_aniso_U_13
_atom_site_aniso_U_23
Te1 Te4+ 0.0217(1) 0.0335(1) 0.0212(1) 0 -.0001(1) 0
F1 F1- 0.0359(9) 0.0043(1) 0.0237(8) 0 0.0037(8) 0
F2 F1- 0.0059(1) 0.0080(2) 0.0051(1) 0.0040(1) 0.00091(9) 0.0022(1)
F3 F1- 0.0049(1) 0.0049(1) 0.0045(1) -.00222(8) 0.0004(8) 0.0027(8)
Na1 Na1+ 0.0310(6) 0.0279(7) 0.0422(8) 0 0.0072(6) 0
#End of TTdata_202879-ICSD