
#(C) 2019 by FIZ Karlsruhe - Leibniz Institute for Information Infrastructure.  All rights reserved.
data_202976-ICSD
_database_code_ICSD 202976
_audit_creation_date 1990-06-08
_chemical_name_systematic 'Sodium calcium uranium oxide (8/3.1/3.7/17.5)'
_chemical_formula_structural 'Na8 Ca3.11 U3.7 O17.52'
_chemical_formula_sum 'Ca3.11 Na8 O17.52 U3.7'
_exptl_crystal_density_diffrn 4.33
_publ_section_title

;
Structure d'un Oxyde d'Uranium a Valence Mixte et Etude par Spectroscopie
Mossbauer (237Np) d'un Oxyde Isotype de Neptunium
;
loop_
_citation_id
_citation_journal_full
_citation_year
_citation_journal_volume
_citation_page_first
_citation_page_last
_citation_journal_id_ASTM
primary 'Journal of the Less-Common Metals' 1989 152 339 348 JCOMAH
loop_
_publ_author_name
'Gasperin, M.'
'Cousson, A.'
'He, L.'
'Jove, J.'
_cell_length_a 8.258(5)
_cell_length_b 8.271(5)
_cell_length_c 8.250(5)
_cell_angle_alpha 90.
_cell_angle_beta 91.78
_cell_angle_gamma 90.
_cell_volume 563.22
_cell_formula_units_Z 1
_symmetry_space_group_name_H-M 'P 1 21/n 1'
_symmetry_Int_Tables_number 14
_refine_ls_R_factor_all 0.06
loop_
_symmetry_equiv_pos_site_id
_symmetry_equiv_pos_as_xyz
1 '-x+1/2, y+1/2, -z+1/2'
2 '-x, -y, -z'
3 'x+1/2, -y+1/2, z+1/2'
4 'x, y, z'
loop_
_atom_type_symbol
_atom_type_oxidation_number
U5+ 5.64
Ca2+ 2
U5+ 5.64
Ca2+ 2
Na1+ 1
O2- -2
loop_
_atom_site_label
_atom_site_type_symbol
_atom_site_symmetry_multiplicity
_atom_site_Wyckoff_symbol
_atom_site_fract_x
_atom_site_fract_y
_atom_site_fract_z
_atom_site_B_iso_or_equiv
_atom_site_occupancy
_atom_site_attached_hydrogens
U1 U5+ 2 d 0.5 0 0 . 1. 0
U2 U5+ 2 b 0.5 0.5 0 . 0.4 0
U3 U5+ 2 a 0 0 0 . 0.222 0
Ca1 Ca2+ 2 a 0 0 0 . 0.778 0
U4 U5+ 2 c 0 0.5 0 . 0.222 0
Ca2 Ca2+ 2 c 0 0.5 0 . 0.778 0
Na1 Na1+ 4 e 0.2284(9) 0.2402(13) 0.2652(9) . 1. 0
Na2 Na1+ 4 e 0.2697(7) 0.7446(10) 0.7206(8) . 1. 0
O1 O2- 4 e 0.2685(20) 0.0543(18) 0.0485(18) . 0.73 0
O2 O2- 4 e 0.4476(24) 0.0546(21) 0.7612(20) . 0.73 0
O3 O2- 4 e 0.0684(20) 0.2576(16) 0.5386(16) . 0.73 0
O4 O2- 4 e 0.4705(16) 0.2493(30) 0.4335(17) . 0.73 0
O5 O2- 4 e 0.9461(21) 0.0521(21) 0.2598(22) . 0.73 0
O6 O2- 4 e 0.7661(20) 0.0560(19) 0.5540(22) . 0.73 0
loop_
_atom_site_aniso_label
_atom_site_aniso_type_symbol
_atom_site_aniso_beta_11
_atom_site_aniso_beta_22
_atom_site_aniso_beta_33
_atom_site_aniso_beta_12
_atom_site_aniso_beta_13
_atom_site_aniso_beta_23
U1 U5+ 0.0003(1) 0.0008(1) 0.0013(1) -.0013(1) -.0003(1) 0.0018(1)
U2 U5+ 0.0006(1) 0.0019(1) 0.0002(1) -.0026(3) -.0008(1) 0.0036(3)
U3 U5+ 0.0001(1) 0.0015(1) 0.0014(1) -.0007(5) -.0004(8) 0.0019(4)
Ca1 Ca2+ 0.0001(1) 0.0015(1) 0.0014(1) -.0007(5) -.0004(8) 0.0019(4)
U4 U5+ 0.0004(1) 0.0015(1) 0.0014(1) -.0013(4) -.0004(1) 0.0026(4)
Ca2 Ca2+ 0.0004(1) 0.0015(1) 0.0014(1) -.0013(4) -.0004(1) 0.0026(4)
Na1 Na1+ 0.0088(13) 0.0084(12) 0.0087(11) -.0018(10) -.001(1) -.0005(9)
Na2 Na1+ 0.0034(8) 0.0076(10) 0.0078(10) 0.0002(7) -.0010(7) -.0040(9)
O1 O2- 0.0077(21) 0.0036(16) 0.0048(18) -.0022(15) -.0030(15) -.0002(14)
O2 O2- 0.0105(27) 0.0064(31) 0.0061(22) 0.0019(21) 0.0020(19) -.0023(17)
O3 O2- 0.0107(34) 0.0029(15) 0.0056(17) -.0083(16) -.0058(17) 0.0055(13)
O4 O2- 0.0013(14) 0.0237(42) 0.0027(16) -.0004(21) 0.0002(11) -.0003(22)
O5 O2- 0.0061(21) 0.0061(19) 0.0094(26) -.0002(18) -.0002(18) -.0028(19)
O6 O2- 0.0062(20) 0.0036(17) 0.0098(26) -.0008(16) 0.0007(18) -.0014(18)
#End of TTdata_202976-ICSD