
#(C) 2019 by FIZ Karlsruhe - Leibniz Institute for Information Infrastructure.  All rights reserved.
data_203217-ICSD
_database_code_ICSD 203217
_audit_creation_date 1996-10-14
_audit_update_record 2005-10-01
_chemical_name_systematic 'Lithium sodium carbonate - alpha'
_chemical_formula_structural 'Li Na (C O3)'
_chemical_formula_sum 'C1 Li1 Na1 O3'
_exptl_crystal_density_diffrn 2.31
_cell_measurement_temperature 295.
_publ_section_title 'Triclinic alpha - Li Na (C O3)'
loop_
_citation_id
_citation_journal_full
_citation_year
_citation_journal_volume
_citation_page_first
_citation_page_last
_citation_journal_id_ASTM
primary 'Acta Crystallographica, Section C: Crystal Structure Communications'
1996 52 1 3 ACSCEE
loop_
_publ_author_name
'Yatsenko, A.V.'
'Zhukov, S.G.'
'D'yakov, V.A. (Dyakov, V.A.)'
'Schenk, H.'
_cell_length_a 14.265(4)
_cell_length_b 14.261(3)
_cell_length_c 3.305(1)
_cell_angle_alpha 88.41(2)
_cell_angle_beta 91.70(3)
_cell_angle_gamma 119.95(3)
_cell_volume 582.24
_cell_formula_units_Z 9
_symmetry_space_group_name_H-M 'P 1'
_symmetry_Int_Tables_number 1
_refine_ls_R_factor_all 0.0455
loop_
_symmetry_equiv_pos_site_id
_symmetry_equiv_pos_as_xyz
1 'x, y, z'
loop_
_atom_type_symbol
_atom_type_oxidation_number
Na1+ 1
C4+ 4
O2- -2
C4+ 4
O2- -2
C4+ 4
O2- -2
C4+ 4
O2- -2
C4+ 4
O2- -2
C4+ 4
O2- -2
C4+ 4
O2- -2
C4+ 4
O2- -2
C4+ 4
O2- -2
Li1+ 1
loop_
_atom_site_label
_atom_site_type_symbol
_atom_site_symmetry_multiplicity
_atom_site_Wyckoff_symbol
_atom_site_fract_x
_atom_site_fract_y
_atom_site_fract_z
_atom_site_B_iso_or_equiv
_atom_site_occupancy
_atom_site_attached_hydrogens
Na1 Na1+ 1 a 0.132 0.225 0.525 . 1. 0
Na2 Na1+ 1 a 0.0920(2) 0.8665(2) 0.5292(10) . 1. 0
Na3 Na1+ 1 a 0.7743(2) 0.9085(2) 0.4708(10) . 1. 0
Na4 Na1+ 1 a 0.4478(2) 0.2562(2) 0.4941(9) . 1. 0
Na5 Na1+ 1 a 0.8070(2) 0.5514(2) 0.4809(11) . 1. 0
Na6 Na1+ 1 a 0.7427(2) 0.1913(2) 0.5153(9) . 1. 0
Na7 Na1+ 1 a 0.1210(2) 0.5770(2) 0.4811(9) . 1. 0
Na8 Na1+ 1 a 0.4561(2) 0.8775(2) 0.5653(11) . 1. 0
Na9 Na1+ 1 a 0.4214(2) 0.5448(2) 0.4447(10) . 1. 0
C1 C4+ 1 a -.0003(4) -.0005(4) 0.0092(17) . 1. 0
O1 O2- 1 a -.0933(3) -.0066(3) -.0169(13) . 1. 0
O2 O2- 1 a 0.0856(3) 0.0927(3) 0.0299(13) . 1. 0
O3 O2- 1 a 0.0059(3) -.0871(3) 0.0055(13) . 1. 0
C2 C4+ 1 a 0.6661(4) 0.3337(4) -.0034(17) . 1. 0
O4 O2- 1 a 0.5802(3) 0.3405(3) 0.0034(14) . 1. 0
O5 O2- 1 a 0.7593(3) 0.4190(3) -.0120(13) . 1. 0
O6 O2- 1 a 0.6587(3) 0.2396(3) -.0015(13) . 1. 0
C3 C4+ 1 a 0.3331(4) 0.6673(4) 0.0010(15) . 1. 0
O7 O2- 1 a 0.2403(3) 0.5821(3) 0.0046(14) . 1. 0
O8 O2- 1 a 0.3421(3) 0.7587(3) 0.0762(13) . 1. 0
O9 O2- 1 a 0.4162(3) 0.6603(3) -.0860(14) . 1. 0
C4 C4+ 1 a -.0143(4) 0.3188(4) 0.5023(16) . 1. 0
O10 O2- 1 a -.0848(3) 0.3488(3) 0.4972(13) . 1. 0
O11 O2- 1 a -.0445(3) 0.2168(3) 0.5116(13) . 1. 0
O12 O2- 1 a 0.0874(3) 0.3883(3) 0.4977(13) . 1. 0
C5 C4+ 1 a 0.6809(4) 0.6687(4) 0.4674(16) . 1. 0
O13 O2- 1 a 0.6500(3) 0.5672(3) 0.4683(13) . 1. 0
O14 O2- 1 a 0.7819(3) 0.7393(3) 0.4737(13) . 1. 0
O15 O2- 1 a 0.6105(3) 0.6996(3) 0.4642(13) . 1. 0
C6 C4+ 1 a 0.3316(4) 0.0129(4) 0.5311(16) . 1. 0
O16 O2- 1 a 0.4329(3) 0.0832(3) 0.5175(13) . 1. 0
O17 O2- 1 a 0.2611(3) 0.0435(3) 0.5188(14) . 1. 0
O18 O2- 1 a 0.3001(3) -.0885(3) 0.5515(13) . 1. 0
C7 C4+ 1 a 0.3353(4) 0.3456(4) -.0085(16) . 1. 0
O19 O2- 1 a 0.2529(3) 0.3554(3) 0.0555(14) . 1. 0
O20 O2- 1 a 0.3263(3) 0.2531(3) -.0394(14) . 1. 0
O21 O2- 1 a 0.4279(3) 0.4310(3) -.0476(14) . 1. 0
C8 C4+ 1 a 0.0091(4) 0.6635(4) 0.0004(16) . 1. 0
O22 O2- 1 a 0.1016(3) 0.7456(3) 0.0728(14) . 1. 0
O23 O2- 1 a -.0745(3) 0.6734(3) -.0330(14) . 1. 0
O24 O2- 1 a 0.0010(3) 0.5705(3) -.0392(13) . 1. 0
C9 C4+ 1 a 0.6543(4) -.0088(4) 0.0116(15) . 1. 0
O25 O2- 1 a 0.6433(3) -.1008(3) -.0817(13) . 1. 0
O26 O2- 1 a 0.7474(3) 0.0736(3) 0.0476(14) . 1. 0
O27 O2- 1 a 0.5692(3) -.0020(3) 0.0688(13) . 1. 0
Li1 Li1+ 1 a 0.2254(7) 0.1002(7) 0.010(3) 0.018(2) 1. 0
Li2 Li1+ 1 a 0.8762(8) 0.7753(8) -.017(3) 0.023(2) 1. 0
Li3 Li1+ 1 a 0.8989(7) 0.1239(7) 0.013(3) 0.020(2) 1. 0
Li4 Li1+ 1 a 0.1792(7) 0.4322(7) 0.004(3) 0.017(2) 1. 0
Li5 Li1+ 1 a 0.2525(7) 0.8193(7) 0.053(3) 0.017(2) 1. 0
Li6 Li1+ 1 a 0.5662(7) 0.7464(7) -.051(3) 0.020(2) 1. 0
Li7 Li1+ 1 a 0.8944(7) 0.4196(7) -.011(3) 0.015(2) 1. 0
Li8 Li1+ 1 a 0.5251(7) 0.1056(7) 0.028(3) 0.018(2) 1. 0
Li9 Li1+ 1 a 0.5802(7) 0.4743(7) -.029(3) 0.018(2) 1. 0
loop_
_atom_site_aniso_label
_atom_site_aniso_type_symbol
_atom_site_aniso_U_11
_atom_site_aniso_U_22
_atom_site_aniso_U_33
_atom_site_aniso_U_12
_atom_site_aniso_U_13
_atom_site_aniso_U_23
Na1 Na1+ 0.0165(10) 0.0137(10) 0.0210(11) 0.0055(8) 0.0023(8) 0.0006(8)
Na2 Na1+ 0.0214(10) 0.0169(10) 0.0209(12) 0.0117(8) 0.0015(9) -0.0008(8)
Na3 Na1+ 0.0136(10) 0.0175(10) 0.0197(11) 0.0074(8) 0.0020(8) -0.0001(8)
Na4 Na1+ 0.017(1) 0.0231(11) 0.0236(12) 0.0114(9) 0.0003(8) -0.0005(9)
Na5 Na1+ 0.0200(11) 0.0164(10) 0.0250(13) 0.0078(8) 0.0004(9) -0.0003(9)
Na6 Na1+ 0.0214(11) 0.0182(11) 0.0238(12) 0.0116(9) -0.0002(9) -0.0014(8)
Na7 Na1+ 0.0226(11) 0.0320(12) 0.0250(13) 0.0183(10) 0.0008(9) -0.0022(9)
Na8 Na1+ 0.0145(10) 0.0204(10) 0.0227(12) 0.0017(8) 0.0013(8) -0.0021(9)
Na9 Na1+ 0.0316(12) 0.0143(10) 0.0225(12) 0.0123(9) 0.0010(9) -0.0003(8)
C1 C4+ 0.009(2) 0.010(2) 0.014(2) 0.004(2) 0.004(2) 0.002(2)
O1 O2- 0.011(2) 0.017(2) 0.021(2) 0.0083(14) -0.0014(13) -0.0011(14)
O2 O2- 0.010(2) 0.010(2) 0.021(2) 0.0014(13) -0.0004(13) 0.0003(13)
O3 O2- 0.014(2) 0.011(2) 0.024(2) 0.0069(13) 0.0013(14) -0.0006(13)
C2 C4+ 0.010(2) 0.010(2) 0.016(3) 0.004(2) -0.001(2) -0.001(2)
O4 O2- 0.013(2) 0.018(2) 0.030(2) 0.0104(15) 0.0008(14) -0.003(2)
O5 O2- 0.010(2) 0.011(2) 0.026(2) 0.0026(13) 0.0018(14) -0.0009(14)
O6 O2- 0.018(2) 0.009(2) 0.027(2) 0.0083(14) -0.0018(15) -0.0019(14)
C3 C4+ 0.008(2) 0.008(2) 0.007(2) 0.002(2) -0.001(2) 0.001(2)
O7 O2- 0.013(2) 0.011(2) 0.031(2) 0.0029(14) 0.0036(14) -0.0007(14)
O8 O2- 0.020(2) 0.012(2) 0.021(2) 0.0098(14) -0.0016(14) -0.0035(13)
O9 O2- 0.012(2) 0.024(2) 0.025(2) 0.0114(15) 0.0024(14) -0.0029(15)
C4 C4+ 0.011(2) 0.013(2) 0.010(2) 0.005(2) 0.000(2) -0.003(2)
O10 O2- 0.018(2) 0.022(2) 0.021(2) 0.015(2) -0.0031(14) -0.0043(15)
O11 O2- 0.022(2) 0.011(2) 0.024(2) 0.0077(14) -0.0002(15) -0.0012(13)
O12 O2- 0.009(2) 0.015(2) 0.026(2) -0.0006(14) -0.0004(14) -0.0012(15)
C5 C4+ 0.014(2) 0.011(2) 0.010(2) 0.007(2) 0.003(2) 0.003(2)
O13 O2- 0.021(2) 0.009(2) 0.022(2) 0.0062(14) 0.0012(14) 0.0021(13)
O14 O2- 0.012(2) 0.017(2) 0.020(2) 0.0032(14) 0.0023(13) -0.0003(14)
O15 O2- 0.016(2) 0.024(2) 0.024(2) 0.015(2) 0.0028(14) -0.0010(15)
C6 C4+ 0.014(2) 0.012(2) 0.005(2) 0.005(2) -0.001(2) -0.003(2)
O16 O2- 0.009(2) 0.018(2) 0.021(2) 0.0042(14) 0.0004(13) -0.0026(14)
O17 O2- 0.016(2) 0.020(2) 0.022(2) 0.013(2) -0.0015(14) -0.0023(14)
O18 O2- 0.020(2) 0.011(2) 0.020(2) 0.0066(14) 0.0024(14) -0.0014(13)
C7 C4+ 0.011(2) 0.012(2) 0.011(2) 0.008(2) 0.000(2) 0.001(2)
O19 O2- 0.013(2) 0.019(2) 0.034(2) 0.0089(15) 0.004(2) 0.001(2)
O20 O2- 0.017(2) 0.009(2) 0.034(2) 0.0052(14) 0.003(2) -0.0003(15)
O21 O2- 0.012(2) 0.012(2) 0.031(2) 0.0053(14) 0.0010(15) 0.0014(15)
C8 C4+ 0.008(2) 0.012(2) 0.010(2) 0.004(2) -0.001(2) 0.001(2)
O22 O2- 0.010(2) 0.017(2) 0.033(2) 0.0035(14) 0.0002(15) -0.003(2)
O23 O2- 0.013(2) 0.016(2) 0.039(2) 0.0096(14) -0.004(2) -0.002(2)
O24 O2- 0.017(2) 0.009(2) 0.034(2) 0.0063(14) 0.0028(15) -0.0022(14)
C9 C4+ 0.010(2) 0.011(2) 0.011(2) 0.008(2) -0.001(2) 0.000(2)
O25 O2- 0.021(2) 0.012(2) 0.022(2) 0.0078(14) 0.0049(15) -0.0007(14)
O26 O2- 0.006(2) 0.012(2) 0.035(2) 0.0001(13) 0.0000(14) -0.0019(15)
O27 O2- 0.010(2) 0.015(2) 0.026(2) 0.0080(13) 0.0044(14) 0.0037(14)
#End of TTdata_203217-ICSD