
#(C) 2019 by FIZ Karlsruhe - Leibniz Institute for Information Infrastructure.  All rights reserved.
data_2040-ICSD
_database_code_ICSD 2040
_audit_creation_date 1980-01-01
_audit_update_record 2007-08-01
_chemical_name_systematic 'Disodium boron oxide'
_chemical_formula_structural 'Na2 B4 O7'
_chemical_formula_sum 'B4 Na2 O7'
_chemical_name_structure_type K2B4O7
_exptl_crystal_density_diffrn 2.27
_publ_section_title 'The crystal structure of sodium diborate Na2 O (B2 O3)2'
loop_
_citation_id
_citation_journal_full
_citation_year
_citation_journal_volume
_citation_page_first
_citation_page_last
_citation_journal_id_ASTM
primary

;
Acta Crystallographica, Section B: Structural Crystallography and Crystal
Chemistry
; 1974 30 578 582 ACBCAR
loop_
_publ_author_name
'Krogh-Moe, J.'
_cell_length_a 6.5445(4)
_cell_length_b 8.6205(4)
_cell_length_c 10.4855(6)
_cell_angle_alpha 93.279(6)
_cell_angle_beta 94.870(6)
_cell_angle_gamma 90.843(6)
_cell_volume 588.34
_cell_formula_units_Z 4
_symmetry_space_group_name_H-M 'P -1'
_symmetry_Int_Tables_number 2
_refine_ls_R_factor_all 0.035
loop_
_symmetry_equiv_pos_site_id
_symmetry_equiv_pos_as_xyz
1 '-x, -y, -z'
2 'x, y, z'
loop_
_atom_type_symbol
_atom_type_oxidation_number
Na1+ 1
O2- -2
B3+ 3
loop_
_atom_site_label
_atom_site_type_symbol
_atom_site_symmetry_multiplicity
_atom_site_Wyckoff_symbol
_atom_site_fract_x
_atom_site_fract_y
_atom_site_fract_z
_atom_site_B_iso_or_equiv
_atom_site_occupancy
_atom_site_attached_hydrogens
Na1 Na1+ 2 i 0.1099 0.1331 0.6123 . 1. 0
Na2 Na1+ 2 i 0.1751 0.3394 0.0176 . 1. 0
Na3 Na1+ 2 i 0.4773 0.4643 0.2272 . 1. 0
Na4 Na1+ 2 i 0.4393 0.9221 0.8562 . 1. 0
O1 O2- 2 i 0.1481 0.0992 0.1548 . 1. 0
O2 O2- 2 i 0.1952 0.1369 0.3899 . 1. 0
O3 O2- 2 i 0.0992 0.3453 0.2499 . 1. 0
O4 O2- 2 i 0.1393 0.8652 0.7119 . 1. 0
O5 O2- 2 i 0.1987 0.7772 0.4918 . 1. 0
O6 O2- 2 i 0.2162 0.5973 0.6594 . 1. 0
O7 O2- 2 i 0.4719 0.7946 0.6649 . 1. 0
O8 O2- 2 i 0.3089 0.6936 0.2876 . 1. 0
O9 O2- 2 i 0.0347 0.8417 0.1884 . 1. 0
O10 O2- 2 i 0.1859 0.6245 0.0754 . 1. 0
O11 O2- 2 i 0.048 0.4043 0.7574 . 1. 0
O12 O2- 2 i 0.4509 0.2033 0.5527 . 1. 0
O13 O2- 2 i 0.3039 0.8873 0.0559 . 1. 0
O14 O2- 2 i 0.4746 0.6812 0.9551 . 1. 0
B1 B3+ 2 i 0.0409 0.177 0.2713 . 1. 0
B2 B3+ 2 i 0.2494 0.7605 0.6317 . 1. 0
B3 B3+ 2 i 0.1178 0.6847 0.2005 . 1. 0
B4 B3+ 2 i 0.329 0.7225 0.0254 . 1. 0
B5 B3+ 2 i 0.1555 0.9444 0.1335 . 1. 0
B6 B3+ 2 i 0.0512 0.5523 0.7202 . 1. 0
B7 B3+ 2 i 0.3917 0.1807 0.422 . 1. 0
B8 B3+ 2 i 0.3443 0.7561 0.4091 . 1. 0
loop_
_atom_site_aniso_label
_atom_site_aniso_type_symbol
_atom_site_aniso_U_11
_atom_site_aniso_U_22
_atom_site_aniso_U_33
_atom_site_aniso_U_12
_atom_site_aniso_U_13
_atom_site_aniso_U_23
Na1 Na1+ 0.0158 0.0467 0.0167 0.0083 0.0071 0.0096
Na2 Na1+ 0.0143 0.0257 0.0234 0.0028 -.0001 -.0027
Na3 Na1+ 0.0283 0.0285 0.0235 0.0167 -.0041 -.0085
Na4 Na1+ 0.0206 0.0184 0.0104 -.0073 0.002 -.0003
O1 O2- 0.0128 0.0065 0.0103 -.001 0.0059 0.0003
O2 O2- 0.0063 0.0173 0.0099 -.0016 0.0007 0.0035
O3 O2- 0.0088 0.0065 0.0156 -.0004 0.005 0.0008
O4 O2- 0.005 0.0086 0.0088 -.001 0.001 -.0008
O5 O2- 0.0081 0.0167 0.007 -.0001 0.0014 0.0011
O6 O2- 0.0104 0.0085 0.0164 0.0013 0.0076 0.0028
O7 O2- 0.0053 0.0178 0.0083 -.0009 0.001 0.0021
O8 O2- 0.008 0.0196 0.009 0.0015 0.001 -.003
O9 O2- 0.0111 0.0068 0.0166 0.0012 0.007 0.0024
O10 O2- 0.012 0.0079 0.0076 -.002 0.0028 -.0011
O11 O2- 0.0093 0.0082 0.0178 0.001 0.0058 0.0037
O12 O2- 0.0087 0.0323 0.0088 -.0037 0.0014 -.0009
O13 O2- 0.0132 0.009 0.0132 -.0008 0.0075 -.0005
O14 O2- 0.015 0.0137 0.0154 0.0035 0.0082 0.0021
B1 B3+ 0.0071 0.0092 0.0094 0 0.0023 -.0002
B2 B3+ 0.0086 0.0109 0.0101 -.0011 0.0014 0.0026
B3 B3+ 0.0094 0.0089 0.0083 -.0001 0.0017 0.0008
B4 B3+ 0.0097 0.0111 0.0084 0.0011 -.0016 0.0003
B5 B3+ 0.0107 0.012 0.0081 0.0002 0 0.0011
B6 B3+ 0.01 0.0104 0.0084 -.0011 -.0005 -.0003
B7 B3+ 0.0108 0.0109 0.0101 0.0008 0.0022 0.0017
B8 B3+ 0.011 0.0105 0.0118 0.0008 -.0001 0.0032
#End of TTdata_2040-ICSD