
#(C) 2019 by FIZ Karlsruhe - Leibniz Institute for Information Infrastructure.  All rights reserved.
data_2045-ICSD
_database_code_ICSD 2045
_audit_creation_date 1980-01-01
_audit_update_record 2012-08-01
_chemical_name_systematic 'Disodium hexaboron oxide * - alpha'
_chemical_formula_structural 'Na2 O (B2 O3)3'
_chemical_formula_sum 'B6 Na2 O10'
_exptl_crystal_density_diffrn 2.24
_publ_section_title
'The crystal structure of alpha-sodium triborate, alpha-Na2 O (B2 O3)3'
loop_
_citation_id
_citation_journal_full
_citation_year
_citation_journal_volume
_citation_page_first
_citation_page_last
_citation_journal_id_ASTM
primary

;
Acta Crystallographica, Section B: Structural Crystallography and Crystal
Chemistry
; 1974 30 747 752 ACBCAR
loop_
_publ_author_name
'Krogh-Moe, J.'
_cell_length_a 10.085(2)
_cell_length_b 11.363(2)
_cell_length_c 10.845(2)
_cell_angle_alpha 90.
_cell_angle_beta 104.48(2)
_cell_angle_gamma 90.
_cell_volume 1203.31
_cell_formula_units_Z 6
_symmetry_space_group_name_H-M 'P 1 21/c 1'
_symmetry_Int_Tables_number 14
_refine_ls_R_factor_all 0.098
loop_
_symmetry_equiv_pos_site_id
_symmetry_equiv_pos_as_xyz
1 'x, -y+1/2, z+1/2'
2 '-x, -y, -z'
3 '-x, y+1/2, -z+1/2'
4 'x, y, z'
loop_
_atom_type_symbol
_atom_type_oxidation_number
Na1+ 1
O2- -2
B3+ 3
loop_
_atom_site_label
_atom_site_type_symbol
_atom_site_symmetry_multiplicity
_atom_site_Wyckoff_symbol
_atom_site_fract_x
_atom_site_fract_y
_atom_site_fract_z
_atom_site_B_iso_or_equiv
_atom_site_occupancy
_atom_site_attached_hydrogens
Na1 Na1+ 4 e 0.07070(25) 0.13500(25) 0.37740(25) . 1. 0
Na2 Na1+ 4 e 0.40980(25) 0.36810(25) 0.08580(25) . 1. 0
Na3 Na1+ 4 e 0.3513(4) 0.65040(25) 0.39010(25) . 1. 0
O1 O2- 4 e 0.2929(4) 0.3565(4) 0.2425(4) . 1. 0
O2 O2- 4 e 0.2425(4) 0.9938(4) 0.4865(4) . 1. 0
O3 O2- 4 e 0.4816(4) 0.2372(4) 0.3049(4) . 1. 0
O4 O2- 4 e 0.3614(4) 0.9610(4) 0.3158(4) . 1. 0
O5 O2- 4 e 0.1659(4) 0.1818(4) 0.0202(4) . 1. 0
O6 O2- 4 e 0.3200(4) 0.6248(4) 0.1744(4) . 1. 0
O7 O2- 4 e 0.1274(4) 0.5013(4) 0.1634(4) . 1. 0
O8 O2- 4 e 0.3405(4) 0.0301(4) 0.1038(4) . 1. 0
O9 O2- 4 e 0.0979(4) 0.6636(4) 0.0250(4) . 1. 0
O10 O2- 4 e 0.4032(4) 0.8343(4) 0.4915(4) . 1. 0
O11 O2- 4 e 0.2119(4) 0.4743(4) 0.3872(4) . 1. 0
O12 O2- 4 e 0.1828(4) 0.8303(4) 0.3412(4) . 1. 0
O13 O2- 4 e 0.1881(4) 0.0951(4) 0.2240(4) . 1. 0
O14 O2- 4 e 0.0179(4) 0.2289(4) 0.1585(4) . 1. 0
O15 O2- 4 e 0.3810(4) 0.3209(4) 0.4640(4) . 1. 0
B1 B3+ 4 e 0.4123(7) 0.6748(6) 0.1172(6) . 1. 0
B2 B3+ 4 e 0.2922(7) 0.9093(6) 0.4088(6) . 1. 0
B3 B3+ 4 e 0.3873(7) 0.3049(6) 0.3420(6) . 1. 0
B4 B3+ 4 e 0.2058(7) 0.4454(6) 0.2648(6) . 1. 0
B5 B3+ 4 e 0.0875(7) 0.8027(6) 0.4027(6) . 1. 0
B6 B3+ 4 e 0.1228(7) 0.1702(6) 0.1286(6) . 1. 0
B7 B3+ 4 e 0.2984(7) 0.0262(6) 0.2133(6) . 1. 0
B8 B3+ 4 e 0.2727(7) 0.1020(6) 0.9970(6) . 1. 0
B9 B3+ 4 e 0.1970(7) 0.5698(6) 0.0848(6) . 1. 0
loop_
_atom_site_aniso_label
_atom_site_aniso_type_symbol
_atom_site_aniso_U_11
_atom_site_aniso_U_22
_atom_site_aniso_U_33
_atom_site_aniso_U_12
_atom_site_aniso_U_13
_atom_site_aniso_U_23
Na1 Na1+ 0.0181(14) 0.0279(14) 0.0192(14) 0.0004(11) 0.0122(11) 0.0029(11)
Na2 Na1+ 0.0181(14) 0.0260(14) 0.0175(14) 0.0070(11) 0.0090(11) 0.0025(11)
Na3 Na1+ 0.0708(14) 0.0228(14) 0.0220(14) -.0083(11) 0.0119(11) -.0089(11)
O1 O2- 0.0160(14) 0.0164(14) 0.0049(14) 0.0089(11) -.0004(11) -.0021(11)
O2 O2- 0.0115(14) 0.0100(14) 0.0119(14) 0.0016(11) 0.0027(11) -.0016(11)
O3 O2- 0.0131(20) 0.0197(20) 0.0058(20) 0.0076(16) 0.0025(16) 0.0012(16)
O4 O2- 0.0098(20) 0.012(2) 0.0078(20) 0.0014(16) 0.0008(16) 0.0029(16)
O5 O2- 0.0182(20) 0.0129(20) 0.0116(20) 0.0039(16) 0.0045(16) 0.0029(16)
O6 O2- 0.0115(20) 0.0162(20) 0.0078(20) -.0052(16) 0.0043(16) -.0020(16)
O7 O2- 0.0096(20) 0.0097(20) 0.0134(20) 0.0023(16) 0.0075(16) 0.0081(16)
O8 O2- 0.016(2) 0.0187(20) 0.0061(20) 0.0064(16) 0.0062(16) 0.0045(16)
O9 O2- 0.0139(20) 0.0142(20) 0.0134(20) 0.0064(16) 0.0041(16) 0.0033(16)
O10 O2- 0.020(2) 0.0149(20) 0.0079(20) 0.0050(16) 0.0076(16) 0.0048(16)
O11 O2- 0.0163(20) 0.0139(20) 0.0078(20) 0.0054(16) 0.0048(16) 0.0040(16)
O12 O2- 0.0114(20) 0.0189(20) 0.010(2) -.0029(16) 0.0076(16) -.0042(16)
O13 O2- 0.0122(20) 0.0282(20) 0.0101(20) 0.0104(16) 0.0068(16) 0.0071(16)
O14 O2- 0.0185(20) 0.0175(20) 0.0118(20) 0.0058(16) 0.0067(16) 0.0077(16)
O15 O2- 0.0165(20) 0.0164(20) 0.0064(20) 0.0060(16) 0.0027(16) 0.0009(16)
B1 B3+ 0.0065(29) 0.0119(29) 0.0150(29) -.0009(23) 0.0029(23) 0.0028(23)
B2 B3+ 0.0167(29) 0.0097(29) 0.0090(29) 0.0057(23) -.0005(23) 0.0002(23)
B3 B3+ 0.0119(29) 0.0149(29) 0.0122(29) -.0038(23) 0.0021(23) 0.0011(23)
B4 B3+ 0.0078(29) 0.0173(29) 0.0122(29) -.0020(23) 0.0051(23) 0.0032(23)
B5 B3+ 0.0149(29) 0.0039(29) 0.095(29) -.0033(23) 0.0061(23) -.0075(23)
B6 B3+ 0.0114(29) 0.0110(29) 0.0123(29) 0.0014(23) 0.0044(23) 0.0021(23)
B7 B3+ 0.0023(29) 0.0130(29) 0.0173(29) -.0046(23) -.0004(23) -.0030(23)
B8 B3+ 0.0172(29) 0.0112(29) 0.0063(29) -.0070(23) -.0003(23) -.0015(23)
B9 B3+ 0.0120(29) 0.0098(29) 0.0041(29) 0.0058(23) -.0003(23) 0.0044(23)
#End of TTdata_2045-ICSD