
#(C) 2019 by FIZ Karlsruhe - Leibniz Institute for Information Infrastructure.  All rights reserved.
data_20495-ICSD
_database_code_ICSD 20495
_audit_creation_date 1982-12-31
_chemical_name_systematic 'Sodium aluminoberyllosilicate *'
_chemical_formula_structural 'Na3 Al Be Si2 O8'
_chemical_formula_sum 'Al1 Be1 Na3 O8 Si2'
_exptl_crystal_density_diffrn 2.66
_publ_section_title

;
Refinement of the crystal structure of sodium aluminoberyllosilicate Na3 Al Be
Si2 O8 with a three-dimensional framework of three types of tetrahedra
;
loop_
_citation_id
_citation_journal_full
_citation_year
_citation_journal_volume
_citation_page_first
_citation_page_last
_citation_journal_id_ASTM
primary Kristallografiya 1982 27 675 679 KRISAJ
loop_
_publ_author_name
'Razmanova, Z.P.'
'Rastsvetaeva, R.K.'
'Kharitonov, Yu.A.'
'Belov, N.V.'
_cell_length_a 7.1978(9)
_cell_length_b 6.8726(5)
_cell_length_c 7.304(1)
_cell_angle_alpha 90.
_cell_angle_beta 90.
_cell_angle_gamma 90.
_cell_volume 361.31
_cell_formula_units_Z 2
_symmetry_space_group_name_H-M 'P 21 21 2'
_symmetry_Int_Tables_number 18
_refine_ls_R_factor_all 0.027
loop_
_symmetry_equiv_pos_site_id
_symmetry_equiv_pos_as_xyz
1 '-x+1/2, y+1/2, -z'
2 'x+1/2, -y+1/2, -z'
3 '-x, -y, z'
4 'x, y, z'
loop_
_atom_type_symbol
_atom_type_oxidation_number
Si4+ 4
Al3+ 3
Na1+ 1
Be2+ 2
O2- -2
loop_
_atom_site_label
_atom_site_type_symbol
_atom_site_symmetry_multiplicity
_atom_site_Wyckoff_symbol
_atom_site_fract_x
_atom_site_fract_y
_atom_site_fract_z
_atom_site_B_iso_or_equiv
_atom_site_occupancy
_atom_site_attached_hydrogens
Si1 Si4+ 4 c 0.1992(1) 0.2648(1) 0.2589(1) . 1. 0
Al1 Al3+ 2 a 0 0 -.0336(2) . 1. 0
Na1 Na1+ 2 b 0.5 0 0.0330(3) . 1. 0
Na2 Na1+ 4 c 0.2137(2) 0.7467(2) 0.3242(2) . 1. 0
Be1 Be2+ 2 b 0.5 0 0.4335(6) . 1. 0
O1 O2- 4 c 0.0890(3) 0.3285(3) 0.4407(3) . 1. 0
O2 O2- 4 c 0.0416(3) 0.2027(3) 0.1055(3) . 1. 0
O3 O2- 4 c 0.3385(3) 0.0847(3) 0.2937(3) . 1. 0
O4 O2- 4 c 0.3037(3) 0.4545(3) 0.1683(3) . 1. 0
loop_
_atom_site_aniso_label
_atom_site_aniso_type_symbol
_atom_site_aniso_B_11
_atom_site_aniso_B_22
_atom_site_aniso_B_33
_atom_site_aniso_B_12
_atom_site_aniso_B_13
_atom_site_aniso_B_23
Si1 Si4+ 2.8(1) 2.8(1) 2.7(1) 0.4(1) -.3(1) -.1(1)
Al1 Al3+ 2.9(1) 2.7(1) 3.0(1) 0.1(2) 0 0
Na1 Na1+ 7.5(2) 4.4(2) 4.2(2) -.1(1) 0 0
Na2 Na1+ 5.5(1) 8.5(2) 6.4(1) -1.5(3) -2.4(3) -1.6(3)
Be1 Be2+ 3.5(5) 3.4(5) 2.8(4) 0.3(9) 0 0
O1 O2- 4.8(2) 5.0(2) 3.5(2) 1.5(4) -1.5(3) 1.2(3)
O2 O2- 4.4(2) 3.6(2) 4.2(2) 0.7(3) -1.4(3) -2.3(3)
O3 O2- 4.2(2) 4.4(2) 4.2(2) 3.1(3) 0.1(3) -1.4(3)
O4 O2- 4.4(2) 3.9(2) 5.5(2) -1.3(4) 0.5(3) 2.0(4)
#End of TTdata_20495-ICSD