
#(C) 2019 by FIZ Karlsruhe - Leibniz Institute for Information Infrastructure.  All rights reserved.
data_20524-ICSD
_database_code_ICSD 20524
_audit_creation_date 1982-12-31
_audit_update_record 2015-02-01
_chemical_name_systematic 'Sodium thulium bis(sulfate(VI)) - alpha'
_chemical_formula_structural 'Na Tm (S O4)2'
_chemical_formula_sum 'Na1 O8 S2 Tm1'
_chemical_name_structure_type NaTm(SO4)2
_exptl_crystal_density_diffrn 4.21
_publ_section_title 'The crystal structure of alpha-Na Tm (S O4)2'
loop_
_citation_id
_citation_journal_full
_citation_year
_citation_journal_volume
_citation_page_first
_citation_page_last
_citation_journal_id_ASTM
primary Kristallografiya 1982 27 997 998 KRISAJ
loop_
_publ_author_name
'Chizhov, S.M.'
'Pokrovskii, A.N.'
'Kovba, L.M.'
_cell_length_a 4.662(3)
_cell_length_b 10.143(7)
_cell_length_c 6.837(4)
_cell_angle_alpha 90.
_cell_angle_beta 90.
_cell_angle_gamma 110.40(3)
_cell_volume 303.02
_cell_formula_units_Z 2
_symmetry_space_group_name_H-M 'P 1 1 21/m'
_symmetry_Int_Tables_number 11
_refine_ls_R_factor_all 0.06
loop_
_symmetry_equiv_pos_site_id
_symmetry_equiv_pos_as_xyz
1 'x, y, -z+1/2'
2 '-x, -y, -z'
3 '-x, -y, z+1/2'
4 'x, y, z'
loop_
_atom_type_symbol
_atom_type_oxidation_number
Tm3+ 3
S6+ 6
Na1+ 1
O2- -2
loop_
_atom_site_label
_atom_site_type_symbol
_atom_site_symmetry_multiplicity
_atom_site_Wyckoff_symbol
_atom_site_fract_x
_atom_site_fract_y
_atom_site_fract_z
_atom_site_B_iso_or_equiv
_atom_site_occupancy
_atom_site_attached_hydrogens
Tm1 Tm3+ 2 e 0.3297(2) 0.1789(1) 0.25 0.568(3) 1. 0
S1 S6+ 2 e 0.0770(12) 0.4077(6) 0.25 0.76(3) 1. 0
S2 S6+ 2 e 0.4300(12) 0.0723(6) 0.75 0.72(3) 1. 0
Na1 Na1+ 2 e 0.2124(24) 0.3486(12) 0.75 1.63(3) 1. 0
O1 O2- 2 e 0.2631(42) 0.9383(19) 0.25 0.98(3) 1. 0
O2 O2- 2 e 0.7864(39) 0.0758(18) 0.25 1.68(3) 1. 0
O3 O2- 4 f 0.1601(29) 0.3380(14) 0.4206(16) 0.95(3) 1. 0
O4 O2- 4 f 0.3880(29) 0.1435(14) 0.5761(17) 1.16(3) 1. 0
O5 O2- 2 e 0.7439(38) 0.3766(21) 0.25 1.29(3) 1. 0
O6 O2- 2 e 0.2269(42) 0.5572(19) 0.25 1.68(3) 1. 0
#End of TTdata_20524-ICSD