
#(C) 2019 by FIZ Karlsruhe - Leibniz Institute for Information Infrastructure.  All rights reserved.
data_20559-ICSD
_database_code_ICSD 20559
_audit_creation_date 1982-12-31
_chemical_name_systematic 'Sodium lithium catena-vanadate (.2/1.9/2)'
_chemical_formula_structural 'Na.15 Li1.85 V2 O6'
_chemical_formula_sum 'Li1.85 Na0.15 O6 V2'
_chemical_name_structure_type NaKV2O6
_exptl_crystal_density_diffrn 3.
_publ_section_title
'The crystal structure of vanadium pyroxenes Nax Li(2-x) V2 O6'
loop_
_citation_id
_citation_journal_full
_citation_year
_citation_journal_volume
_citation_page_first
_citation_page_last
_citation_journal_id_ASTM
primary Kristallografiya 1982 27 1094 1097 KRISAJ
loop_
_publ_author_name
'Bubnova, R.S.'
'Filatov, S.K.'
'Rozhdestvenskaya, I.V.'
'Gronin, V.S.'
'Zonn, Z.N.'
_cell_length_a 10.160(4)
_cell_length_b 8.471(3)
_cell_length_c 5.879(2)
_cell_angle_alpha 90.
_cell_angle_beta 110.21(3)
_cell_angle_gamma 90.
_cell_volume 474.83
_cell_formula_units_Z 4
_symmetry_space_group_name_H-M 'C 1 2/c 1'
_symmetry_Int_Tables_number 15
_refine_ls_R_factor_all 0.039
loop_
_symmetry_equiv_pos_site_id
_symmetry_equiv_pos_as_xyz
1 'x, -y, z+1/2'
2 '-x, -y, -z'
3 '-x, y, -z+1/2'
4 'x, y, z'
5 'x+1/2, -y+1/2, z+1/2'
6 '-x+1/2, -y+1/2, -z'
7 '-x+1/2, y+1/2, -z+1/2'
8 'x+1/2, y+1/2, z'
loop_
_atom_type_symbol
_atom_type_oxidation_number
V5+ 5
Na1+ 1
Li1+ 1
O2- -2
loop_
_atom_site_label
_atom_site_type_symbol
_atom_site_symmetry_multiplicity
_atom_site_Wyckoff_symbol
_atom_site_fract_x
_atom_site_fract_y
_atom_site_fract_z
_atom_site_B_iso_or_equiv
_atom_site_occupancy
_atom_site_attached_hydrogens
V1 V5+ 8 f 0.2885(1) 0.0946(1) 0.2644(1) . 1. 0
Na1 Na1+ 4 e 0.5 0.2138(11) 0.75 . 0.14(2) 0
Li1 Li1+ 4 e 0.5 0.4210(13) 0.25 . 0.96(3) 0
Li2 Li1+ 4 e 0.5 0.2138(11) 0.75 . 0.86(4) 0
O1 O2- 8 f 0.1151(3) 0.1098(3) 0.1644(5) . 1. 0
O2 O2- 8 f 0.3546(3) 0.2702(4) 0.2837(6) . 1. 0
O3 O2- 8 f 0.3551(3) -.0252(4) 0.0703 . 1. 0
loop_
_atom_site_aniso_label
_atom_site_aniso_type_symbol
_atom_site_aniso_B_11
_atom_site_aniso_B_22
_atom_site_aniso_B_33
_atom_site_aniso_B_12
_atom_site_aniso_B_13
_atom_site_aniso_B_23
V1 V5+ 0.83 1.66 0.66 -.15 0.2 -.02
Na1 Na1+ 1.81 3.54 2.76 0 0.46 0
Li1 Li1+ 2.01 2.09 2.76 0 1.32 0
Li2 Li1+ 1.81 3.54 2.76 0 0.46 0
O1 O2- 1.07 1.89 1.48 0.06 0.21 0.26
O2 O2- 2.24 2.22 2.16 -.92 1. -.38
O3 O2- 1.31 2.83 0.98 -.09 0.43 -.36
#End of TTdata_20559-ICSD