
#(C) 2019 by FIZ Karlsruhe - Leibniz Institute for Information Infrastructure.  All rights reserved.
data_20556-ICSD
_database_code_ICSD 20556
_audit_creation_date 1982-12-31
_audit_update_record 2003-04-01
_chemical_name_systematic 'Disodium bis(catena-vanadate) - HT'
_chemical_formula_structural 'Na2 (V O3)2'
_chemical_formula_sum 'Na2 O6 V2'
_chemical_name_structure_type NaKV2O6
_exptl_crystal_density_diffrn 2.89
_publ_section_title
'The crystal structure of vanadium pyroxenes Nax Li(2-x) V2 O6'
loop_
_citation_id
_citation_journal_full
_citation_year
_citation_journal_volume
_citation_page_first
_citation_page_last
_citation_journal_id_ASTM
primary Kristallografiya 1982 27 1094 1097 KRISAJ
loop_
_publ_author_name
'Bubnova, R.S.'
'Filatov, S.K.'
'Rozhdestvenskaya, I.V.'
'Gronin, V.S.'
'Zonn, Z.N.'
_cell_length_a 10.573(2)
_cell_length_b 9.482(2)
_cell_length_c 5.888(1)
_cell_angle_alpha 90.
_cell_angle_beta 108.55(2)
_cell_angle_gamma 90.
_cell_volume 559.62
_cell_formula_units_Z 4
_symmetry_space_group_name_H-M 'C 1 2/c 1'
_symmetry_Int_Tables_number 15
_refine_ls_R_factor_all 0.047
loop_
_symmetry_equiv_pos_site_id
_symmetry_equiv_pos_as_xyz
1 'x, -y, z+1/2'
2 '-x, -y, -z'
3 '-x, y, -z+1/2'
4 'x, y, z'
5 'x+1/2, -y+1/2, z+1/2'
6 '-x+1/2, -y+1/2, -z'
7 '-x+1/2, y+1/2, -z+1/2'
8 'x+1/2, y+1/2, z'
loop_
_atom_type_symbol
_atom_type_oxidation_number
V5+ 5
Na1+ 1
O2- -2
loop_
_atom_site_label
_atom_site_type_symbol
_atom_site_symmetry_multiplicity
_atom_site_Wyckoff_symbol
_atom_site_fract_x
_atom_site_fract_y
_atom_site_fract_z
_atom_site_B_iso_or_equiv
_atom_site_occupancy
_atom_site_attached_hydrogens
V1 V5+ 8 f 0.2934(1) 0.0898(1) 0.2615(1) . 1. 0
Na1 Na1+ 4 e 0.5 0.4122(2) 0.25 . 1. 0
Na2 Na1+ 4 e 0.5 0.2060(3) 0.75 . 1. 0
O1 O2- 8 f 0.1270(3) 0.1018(3) 0.1649(5) . 1. 0
O2 O2- 8 f 0.3560(3) 0.2478(3) 0.3231(5) . 1. 0
O3 O2- 8 f 0.3523(3) 0.0071(3) 0.0376(4) . 1. 0
loop_
_atom_site_aniso_label
_atom_site_aniso_type_symbol
_atom_site_aniso_B_11
_atom_site_aniso_B_22
_atom_site_aniso_B_33
_atom_site_aniso_B_12
_atom_site_aniso_B_13
_atom_site_aniso_B_23
V1 V5+ 0.86 0.89 0.52 -.13 0.18 -.06
Na1 Na1+ 1.38 1.27 1.09 0 0.36 0
Na2 Na1+ 2.4 1.34 1.71 0 -.27 0
O1 O2- 0.96 1.68 1.39 -.04 0.26 0.09
O2 O2- 2.16 1.41 1.76 -.65 0.62 -.24
O3 O2- 1.29 2.27 1.05 -.05 0.42 -.51
#End of TTdata_20556-ICSD