
#(C) 2019 by FIZ Karlsruhe - Leibniz Institute for Information Infrastructure.  All rights reserved.
data_20687-ICSD
_database_code_ICSD 20687
_audit_creation_date 1984-12-31
_audit_update_record 2011-02-01
_chemical_name_systematic 'Sodium barium neodymium cyclo-trisilicate'
_chemical_formula_structural 'Na Ba Nd (Si3 O9)'
_chemical_formula_sum 'Ba1 Na1 Nd1 O9 Si3'
_chemical_name_structure_type NaBaNdSi3O9
_exptl_crystal_density_diffrn 4.32
_publ_section_title 'The crystal structure of Na Ba Nd (Si3 O9)'
loop_
_citation_id
_citation_journal_full
_citation_year
_citation_journal_volume
_citation_page_first
_citation_page_last
_citation_journal_id_ASTM
primary 'Doklady Akademii Nauk SSSR' 1984 275 372 375 DANKAS
loop_
_publ_author_name
'Malinovskii, Yu.A.'
'Bondareva, O.S.'
'Baturin, S.V.'
_cell_length_a 5.661
_cell_length_b 11.486(2)
_cell_length_c 12.591(2)
_cell_angle_alpha 90.
_cell_angle_beta 90.
_cell_angle_gamma 90.
_cell_volume 818.7
_cell_formula_units_Z 4
_symmetry_space_group_name_H-M 'P 21 21 21'
_symmetry_Int_Tables_number 19
_refine_ls_R_factor_all 0.038
loop_
_symmetry_equiv_pos_site_id
_symmetry_equiv_pos_as_xyz
1 '-x, y+1/2, -z+1/2'
2 'x+1/2, -y+1/2, -z'
3 '-x+1/2, -y, z+1/2'
4 'x, y, z'
loop_
_atom_type_symbol
_atom_type_oxidation_number
Na1+ 1
Ba2+ 2
Nd3+ 3
Si4+ 4
O2- -2
loop_
_atom_site_label
_atom_site_type_symbol
_atom_site_symmetry_multiplicity
_atom_site_Wyckoff_symbol
_atom_site_fract_x
_atom_site_fract_y
_atom_site_fract_z
_atom_site_B_iso_or_equiv
_atom_site_occupancy
_atom_site_attached_hydrogens
Na1 Na1+ 4 a 0.0702(13) 0.2879(7) 0.1036(6) 1.83(12) 1. 0
Ba1 Ba2+ 4 a 0.3957(2) 0.38157(8) 0.58048(7) 1.14(1) 1. 0
Nd1 Nd3+ 4 a 0.3834(2) 0.02768(7) 0.63966(7) 0.98(1) 1. 0
Si1 Si4+ 4 a 0.0973(9) 0.3466(4) 0.8570(4) 1.00(6) 1. 0
Si2 Si4+ 4 a 0.3994(10) 0.3026(4) 0.3124(3) 1.00(6) 1. 0
Si3 Si4+ 4 a 0.1026(10) 0.0863(4) 0.8766(3) 1.00(6) 1. 0
O1 O2- 4 a 0.361(2) 0.3727(10) 0.8150(8) 1.3(2) 1. 0
O2 O2- 4 a -.029(2) 0.4385(10) 0.9334(9) 1.1(2) 1. 0
O3 O2- 4 a 0.410(2) 0.1817(10) 0.2436(9) 1.2(2) 1. 0
O4 O2- 4 a 0.407(2) 0.4049(9) 0.2215(9) 1.2(2) 1. 0
O5 O2- 4 a 0.126(2) 0.1888(9) 0.6107(9) 1.2(2) 1. 0
O6 O2- 4 a 0.101(3) 0.2198(10) 0.9283(9) 1.4(2) 1. 0
O7 O2- 4 a -.008(2) 0.4946(10) 0.5372(9) 1.0(2) 1. 0
O8 O2- 4 a 0.156(2) 0.3155(11) 0.3743(10) 1.5(2) 1. 0
O9 O2- 4 a 0.358(2) 0.057(1) 0.8224(9) 1.3(2) 1. 0
#End of TTdata_20687-ICSD