
#(C) 2019 by FIZ Karlsruhe - Leibniz Institute for Information Infrastructure.  All rights reserved.
data_20776-ICSD
_database_code_ICSD 20776
_audit_creation_date 1984-11-20
_chemical_name_systematic 'Sodium dititanium phosphate'
_chemical_formula_structural 'Na Ti2 (P O4)3'
_chemical_formula_sum 'Na1 O12 P3 Ti2'
_chemical_name_structure_type NaZr2(PO4)3
_exptl_crystal_density_diffrn 2.94
_publ_section_title
'The crystal structure of Na, Ti-orthophosphate Na Ti2 (P O4)3'
loop_
_citation_id
_citation_journal_full
_citation_year
_citation_journal_volume
_citation_page_first
_citation_page_last
_citation_journal_id_ASTM
primary 'Doklady Akademii Nauk SSSR' 1980 252 1122 1125 DANKAS
loop_
_publ_author_name
'Ivanov, Yu.A.'
'Belokoneva, E.L.'
'Egorov Tismenko, Yu.K.'
'Simonov, N.V.'
_cell_length_a 8.502(5)
_cell_length_b 8.502(5)
_cell_length_c 21.833(9)
_cell_angle_alpha 90.
_cell_angle_beta 90.
_cell_angle_gamma 120.
_cell_volume 1366.74
_cell_formula_units_Z 6
_symmetry_space_group_name_H-M 'R -3 c H'
_symmetry_Int_Tables_number 167
_refine_ls_R_factor_all 0.029
loop_
_symmetry_equiv_pos_site_id
_symmetry_equiv_pos_as_xyz
1 'x-y, -y, -z+1/2'
2 '-x, -x+y, -z+1/2'
3 'y, x, -z+1/2'
4 'x-y, x, -z'
5 'y, -x+y, -z'
6 '-x, -y, -z'
7 '-x+y, y, z+1/2'
8 'x, x-y, z+1/2'
9 '-y, -x, z+1/2'
10 '-x+y, -x, z'
11 '-y, x-y, z'
12 'x, y, z'
13 'x-y+2/3, -y+1/3, -z+5/6'
14 '-x+2/3, -x+y+1/3, -z+5/6'
15 'y+2/3, x+1/3, -z+5/6'
16 'x-y+2/3, x+1/3, -z+1/3'
17 'y+2/3, -x+y+1/3, -z+1/3'
18 '-x+2/3, -y+1/3, -z+1/3'
19 '-x+y+2/3, y+1/3, z+5/6'
20 'x+2/3, x-y+1/3, z+5/6'
21 '-y+2/3, -x+1/3, z+5/6'
22 '-x+y+2/3, -x+1/3, z+1/3'
23 '-y+2/3, x-y+1/3, z+1/3'
24 'x+2/3, y+1/3, z+1/3'
25 'x-y+1/3, -y+2/3, -z+1/6'
26 '-x+1/3, -x+y+2/3, -z+1/6'
27 'y+1/3, x+2/3, -z+1/6'
28 'x-y+1/3, x+2/3, -z+2/3'
29 'y+1/3, -x+y+2/3, -z+2/3'
30 '-x+1/3, -y+2/3, -z+2/3'
31 '-x+y+1/3, y+2/3, z+1/6'
32 'x+1/3, x-y+2/3, z+1/6'
33 '-y+1/3, -x+2/3, z+1/6'
34 '-x+y+1/3, -x+2/3, z+2/3'
35 '-y+1/3, x-y+2/3, z+2/3'
36 'x+1/3, y+2/3, z+2/3'
loop_
_atom_type_symbol
_atom_type_oxidation_number
Na1+ 1
Ti4+ 4
P5+ 5
O2- -2
loop_
_atom_site_label
_atom_site_type_symbol
_atom_site_symmetry_multiplicity
_atom_site_Wyckoff_symbol
_atom_site_fract_x
_atom_site_fract_y
_atom_site_fract_z
_atom_site_B_iso_or_equiv
_atom_site_occupancy
_atom_site_attached_hydrogens
Na1 Na1+ 6 b 0 0 0 . 1. 0
Ti1 Ti4+ 12 c 0 0 0.14514(1) . 1. 0
P1 P5+ 18 e 0.71236(4) 0 0.25 . 1. 0
O1 O2- 36 f 0.1741(1) 0.1972(1) 0.30735(4) . 1. 0
O2 O2- 36 f 0.4756(1) 0.3059(1) 0.25496(5) . 1. 0
loop_
_atom_site_aniso_label
_atom_site_aniso_type_symbol
_atom_site_aniso_B_11
_atom_site_aniso_B_22
_atom_site_aniso_B_33
_atom_site_aniso_B_12
_atom_site_aniso_B_13
_atom_site_aniso_B_23
Na1 Na1+ 2.34(3) 2.34 0.61(4) 1.17 0 0
Ti1 Ti4+ 0.28 0.28 0.23(1) 0.14 0 0
P1 P5+ 0.26(1) 0.32(1) 0.34(1) 0.16 -.18 -.09(1)
O1 O2- 0.97(2) 0.86(2) 0.87(2) 0.31(2) 0.47(2) 0.51(2)
O2 O2- 0.48(2) 1.15(2) 0.71(2) 0.49(2) -.18(2) -.02(2)
#End of TTdata_20776-ICSD