
#(C) 2019 by FIZ Karlsruhe - Leibniz Institute for Information Infrastructure.  All rights reserved.
data_2095-ICSD
_database_code_ICSD 2095
_audit_creation_date 1980-01-01
_audit_update_record 2015-02-01
_chemical_name_systematic 'Sodium ruthenium oxide (2.1/4/9)'
_chemical_formula_structural 'Na2.1 Ru4 O9'
_chemical_formula_sum 'Na2.1 O9 Ru4'
_chemical_name_structure_type Na2+xRu4O9
_exptl_crystal_density_diffrn 5.68
_publ_section_title
'Structure cristalline de la phase 'Bronze de Ruthenium' Na3-x Ru4 O9'
loop_
_citation_id
_citation_journal_full
_citation_year
_citation_journal_volume
_citation_page_first
_citation_page_last
_citation_journal_id_ASTM
primary

;
Acta Crystallographica, Section B: Structural Crystallography and Crystal
Chemistry
; 1974 30 1459 1462 ACBCAR
loop_
_publ_author_name
'Darriet, J.'
_cell_length_a 23.180(6)
_cell_length_b 2.831(2)
_cell_length_c 10.990(4)
_cell_angle_alpha 90.
_cell_angle_beta 104.50(3)
_cell_angle_gamma 90.
_cell_volume 698.22
_cell_formula_units_Z 4
_symmetry_space_group_name_H-M 'C 1 2/m 1'
_symmetry_Int_Tables_number 12
_refine_ls_R_factor_all 0.074
loop_
_symmetry_equiv_pos_site_id
_symmetry_equiv_pos_as_xyz
1 '-x, y, -z'
2 '-x, -y, -z'
3 'x, -y, z'
4 'x, y, z'
5 '-x+1/2, y+1/2, -z'
6 '-x+1/2, -y+1/2, -z'
7 'x+1/2, -y+1/2, z'
8 'x+1/2, y+1/2, z'
loop_
_atom_type_symbol
_atom_type_oxidation_number
Ru3+ 3.97
O2- -2
Na1+ 1
loop_
_atom_site_label
_atom_site_type_symbol
_atom_site_symmetry_multiplicity
_atom_site_Wyckoff_symbol
_atom_site_fract_x
_atom_site_fract_y
_atom_site_fract_z
_atom_site_B_iso_or_equiv
_atom_site_occupancy
_atom_site_attached_hydrogens
Ru1 Ru3+ 2 a 0 0 0 0.77 1. 0
Ru2 Ru3+ 2 c 0 0 0.5 0.93 1. 0
Ru3 Ru3+ 4 i 0.05824(4) 0.5 0.31121(9) 0.71 1. 0
Ru4 Ru3+ 4 i 0.21423(4) 0.5 0.37837(8) 0.76 1. 0
Ru5 Ru3+ 4 i 0.27111(4) 0 0.12923(8) 0.81 1. 0
O1 O2- 4 i -.0561(4) 0.5 0.0145(9) 1.68 1. 0
O2 O2- 4 i 0.0274(4) 0 0.1835(8) 0.98 1. 0
O3 O2- 4 i 0.1343(4) 0.5 0.2869(8) 1.44 1. 0
O4 O2- 4 i 0.0766(4) 0 0.4461(8) 0.93 1. 0
O5 O2- 4 i -.0221(4) 0.5 0.3673(8) 1.12 1. 0
O6 O2- 4 i 0.2040(4) 0 0.5008(8) 1.09 1. 0
O7 O2- 4 i 0.2378(4) 0 0.2743(9) 1.93 1. 0
O8 O2- 4 i 0.2131(4) 0.5 0.0430(8) 0.81 1. 0
O9 O2- 4 i 0.3273(4) 0.5 0.1982(8) 1.13 1. 0
Na1 Na1+ 4 i 0.1362(3) 0 0.1050(6) 2.53 0.95 0
Na2 Na1+ 4 i 0.1437(4) 0.5 0.6028(8) 2.6 0.76 0
Na3 Na1+ 4 i 0.0804(7) 0 0.8207(15) 2.63 0.39 0
#End of TTdata_2095-ICSD