
#(C) 2019 by FIZ Karlsruhe - Leibniz Institute for Information Infrastructure.  All rights reserved.
data_20962-ICSD
_database_code_ICSD 20962
_audit_creation_date 1988-05-17
_audit_update_record 2015-08-01
_chemical_name_systematic 'Sodium strontium barium phosphate(V) *'
_chemical_formula_structural
'Na (Sr0.52 Ba0.48) (Sr0.58 Na0.42) (Na0.81 Sr0.19) (P O3.4) (P0.76 O3.88)'
_chemical_formula_sum 'Ba0.48 Na2.23 O7.28 P1.76 Sr1.29'
_chemical_name_mineral Olgite
_exptl_crystal_density_diffrn 3.52
_publ_section_title

;
The crystal structure of olgite Na (Sr0.52 Ba0.48) (Sr0.58 Na0.42) (Na0.81
Sr0.19) (P O3.40) (P0.76 O3.88)
;
loop_
_citation_id
_citation_journal_full
_citation_year
_citation_journal_volume
_citation_page_first
_citation_page_last
_citation_journal_id_ASTM
primary Kristallografiya 1984 29 1079 1083 KRISAJ
loop_
_publ_author_name
'Sokolova, E.V.'
'Egorov Tismenko, Yu.K.'
'Yamnova, N.A.'
'Simonov, M.A.'
_cell_length_a 5.565(2)
_cell_length_b 5.565(2)
_cell_length_c 7.050(3)
_cell_angle_alpha 90.
_cell_angle_beta 90.
_cell_angle_gamma 120.
_cell_volume 189.08
_cell_formula_units_Z 1
_symmetry_space_group_name_H-M 'P 3'
_symmetry_Int_Tables_number 143
_refine_ls_R_factor_all 0.066
loop_
_symmetry_equiv_pos_site_id
_symmetry_equiv_pos_as_xyz
1 '-x+y, -x, z'
2 '-y, x-y, z'
3 'x, y, z'
loop_
_atom_type_symbol
_atom_type_oxidation_number
Sr2+ 2
Ba2+ 2
Sr2+ 2
Na1+ 1
Sr2+ 2
Na1+ 1
P5+ 5
O2- -2
loop_
_atom_site_label
_atom_site_type_symbol
_atom_site_symmetry_multiplicity
_atom_site_Wyckoff_symbol
_atom_site_fract_x
_atom_site_fract_y
_atom_site_fract_z
_atom_site_B_iso_or_equiv
_atom_site_occupancy
_atom_site_attached_hydrogens
Sr1 Sr2+ 1 a 0 0 0 1.96(7) 0.52 0
Ba1 Ba2+ 1 a 0 0 0 1.96(7) 0.48 0
Sr2 Sr2+ 1 c 0.6667 0.3333 0.3268(7) 1.7(1) 0.58 0
Na1 Na1+ 1 c 0.6667 0.3333 0.3268(7) 1.7(1) 0.42 0
Na2 Na1+ 1 b 0.3333 0.6667 0.649(1) 0.5(2) 0.81 0
Sr3 Sr2+ 1 b 0.3333 0.6667 0.649(1) 0.5(2) 0.19 0
Na3 Na1+ 1 a 0 0 0.491(4) 1.5(3) 1. 0
P1 P5+ 1 b 0.3333 0.6667 0.214(2) 0.6(2) 0.76 0
P2 P5+ 1 c 0.6667 0.3333 0.7777(9) 0.5(1) 1. 0
O1 O2- 3 d 0.823(6) 0.191(6) 0.691(3) 2.2(3) 0.8 0
O2 O2- 3 d 0.198(4) 0.816(4) 0.291(2) 2.2(6) 1. 0
O3 O2- 1 b 0.3333 0.6667 -.004(3) 1.7(4) 0.88 0
O4 O2- 1 c 0.6667 0.3333 -.007(5) 1.6(9) 1. 0
#End of TTdata_20962-ICSD