
#(C) 2019 by FIZ Karlsruhe - Leibniz Institute for Information Infrastructure.  All rights reserved.
data_2103-ICSD
_database_code_ICSD 2103
_audit_creation_date 1980-01-01
_audit_update_record 2018-08-01
_chemical_name_systematic 'Sodium catena-vanadate - alpha'
_chemical_formula_structural 'Na (V O3)'
_chemical_formula_sum 'Na1 O3 V1'
_chemical_name_structure_type NaKV2O6
_exptl_crystal_density_diffrn 2.91
_publ_section_title 'Alpha form of sodium metavanadate'
loop_
_citation_id
_citation_journal_full
_citation_year
_citation_journal_volume
_citation_page_first
_citation_page_last
_citation_journal_id_ASTM
primary

;
Acta Crystallographica, Section B: Structural Crystallography and Crystal
Chemistry
; 1974 30 1628 1630 ACBCAR
loop_
_publ_author_name
'Marumo, F.'
'Isobe, M.'
'Iwai, S.I.'
_cell_length_a 10.552(3)
_cell_length_b 9.468(2)
_cell_length_c 5.879(2)
_cell_angle_alpha 90.
_cell_angle_beta 108.47(3)
_cell_angle_gamma 90.
_cell_volume 557.09
_cell_formula_units_Z 8
_symmetry_space_group_name_H-M 'C 1 2/c 1'
_symmetry_Int_Tables_number 15
_refine_ls_R_factor_all 0.024
loop_
_symmetry_equiv_pos_site_id
_symmetry_equiv_pos_as_xyz
1 'x, -y, z+1/2'
2 '-x, -y, -z'
3 '-x, y, -z+1/2'
4 'x, y, z'
5 'x+1/2, -y+1/2, z+1/2'
6 '-x+1/2, -y+1/2, -z'
7 '-x+1/2, y+1/2, -z+1/2'
8 'x+1/2, y+1/2, z'
loop_
_atom_type_symbol
_atom_type_oxidation_number
V5+ 5
Na1+ 1
O2- -2
loop_
_atom_site_label
_atom_site_type_symbol
_atom_site_symmetry_multiplicity
_atom_site_Wyckoff_symbol
_atom_site_fract_x
_atom_site_fract_y
_atom_site_fract_z
_atom_site_B_iso_or_equiv
_atom_site_occupancy
_atom_site_attached_hydrogens
V1 V5+ 8 f 0.29227(3) 0.08979(3) 0.26127(5) . 1. 0
Na1 Na1+ 4 e 0.5 0.20571(15) 0.75 . 1. 0
Na2 Na1+ 4 e 0.5 0.41223(13) 0.25 . 1. 0
O1 O2- 8 f 0.12750(14) 0.10125(16) 0.16687(25) . 1. 0
O2 O2- 8 f 0.35556(17) 0.24768(18) 0.32358(29) . 1. 0
O3 O2- 8 f 0.35245(15) 0.00741(18) 0.03818(26) . 1. 0
loop_
_atom_site_aniso_label
_atom_site_aniso_type_symbol
_atom_site_aniso_beta_11
_atom_site_aniso_beta_22
_atom_site_aniso_beta_33
_atom_site_aniso_beta_12
_atom_site_aniso_beta_13
_atom_site_aniso_beta_23
V1 V5+ 0.00168(2) 0.00276(3) 0.00455(8) -.00035(2) 0.00050(3) 0.00026(4)
Na1 Na1+ 0.00534(13) 0.00449(14) 0.01432(39) 0 -.00139(18) 0
Na2 Na1+ 0.00292(10) 0.00371(12) 0.01003(31) 0 0.00145(14) 0
O1 O2- 0.00249(11) 0.00449(16) 0.00990(38) 0.00016(11) 0.00102(17) 0.00056(20)
O2 O2- 0.00478(15) 0.00443(16) 0.01433(45) -.00179(13) 0.00247(21) -.00148(22)
O3 O2- 0.00290(12) 0.00643(17) 0.00881(38) -.00005(12) 0.00124(18) -.00274(21)
#End of TTdata_2103-ICSD