
#(C) 2019 by FIZ Karlsruhe - Leibniz Institute for Information Infrastructure.  All rights reserved.
data_2135-ICSD
_database_code_ICSD 2135
_audit_creation_date 1980-01-01
_audit_update_record 2012-08-01
_chemical_name_systematic 'Sodium indium silicate *'
_chemical_formula_structural 'Na In Si2 O6'
_chemical_formula_sum 'In1 Na1 O6 Si2'
_chemical_name_structure_type Pyroxene-CaMg(SiO3)2
_exptl_crystal_density_diffrn 4.16
_publ_section_title 'Refinement of the crystal structure of  Na In S O6'
loop_
_citation_id
_citation_journal_full
_citation_year
_citation_journal_volume
_citation_page_first
_citation_page_last
_citation_journal_id_ASTM
primary

;
Acta Crystallographica, Section B: Structural Crystallography and Crystal
Chemistry
; 1974 30 1882 1884 ACBCAR
loop_
_publ_author_name
'Hawthorne, F.C.'
'Grundy, H.D.'
_cell_length_a 9.9023(4)
_cell_length_b 9.1307(4)
_cell_length_c 5.3589(2)
_cell_angle_alpha 90.
_cell_angle_beta 107.200(1)
_cell_angle_gamma 90.
_cell_volume 462.86
_cell_formula_units_Z 4
_symmetry_space_group_name_H-M 'C 1 2/c 1'
_symmetry_Int_Tables_number 15
_refine_ls_R_factor_all 0.024
loop_
_symmetry_equiv_pos_site_id
_symmetry_equiv_pos_as_xyz
1 'x, -y, z+1/2'
2 '-x, -y, -z'
3 '-x, y, -z+1/2'
4 'x, y, z'
5 'x+1/2, -y+1/2, z+1/2'
6 '-x+1/2, -y+1/2, -z'
7 '-x+1/2, y+1/2, -z+1/2'
8 'x+1/2, y+1/2, z'
loop_
_atom_type_symbol
_atom_type_oxidation_number
O2- -2
Si4+ 4
In3+ 3
Na1+ 1
loop_
_atom_site_label
_atom_site_type_symbol
_atom_site_symmetry_multiplicity
_atom_site_Wyckoff_symbol
_atom_site_fract_x
_atom_site_fract_y
_atom_site_fract_z
_atom_site_B_iso_or_equiv
_atom_site_occupancy
_atom_site_attached_hydrogens
O1 O2- 8 f 0.1193(2) 0.0795(2) 0.1519(4) . 1. 0
O2 O2- 8 f 0.3575(2) 0.2456(2) 0.3187(5) . 1. 0
O3 O2- 8 f 0.3493(2) 0.0118(2) 0.0180(4) . 1. 0
Si1 Si4+ 8 f 0.29175(8) 0.08640(8) 0.2477(1) . 1. 0
In1 In3+ 4 e 0 0.89466(3) 0.25 . 1. 0
Na1 Na1+ 4 e 0 0.3033(2) 0.25 . 1. 0
loop_
_atom_site_aniso_label
_atom_site_aniso_type_symbol
_atom_site_aniso_beta_11
_atom_site_aniso_beta_22
_atom_site_aniso_beta_33
_atom_site_aniso_beta_12
_atom_site_aniso_beta_13
_atom_site_aniso_beta_23
O1 O2- 0.00063(16) 0.00134(18) 0.00494(65) -.00018(13) 0.00063(25) 0.00024(24)
O2 O2- 0.00210(19) 0.00120(18) 0.00800(69) -.00066(15) -.00032(27) 0.00136(28)
O3 O2- 0.00150(18) 0.00209(19) 0.00335(66) 0.00001(15) -.00106(27) 0.00088(25)
Si1 Si4+ 0.00084(6) 0.00084(7) 0.00278(23) -.00017(5) -.00007(9) 0.00042(9)
In1 In3+ 0.00091(3) 0.00066(3) 0.00261(10) 0 0 0.00033(3)
Na1 Na1+ 0.00456(22) 0.00272(20) 0.00787(65) 0 0 -.00142(29)
#End of TTdata_2135-ICSD