
#(C) 2019 by FIZ Karlsruhe - Leibniz Institute for Information Infrastructure.  All rights reserved.
data_21951-ICSD
_database_code_ICSD 21951
_audit_creation_date 2019-08-01
_chemical_name_systematic 'Mamganese(II/III) sodium orthophsphate (11/4.35/9)'
_chemical_formula_structural 'Mn11 Na4.35 (P O4)9'
_chemical_formula_sum 'Mn11 Na4.35 O36 P9'
_exptl_crystal_density_diffrn 3.49
_cell_measurement_temperature 296.
_publ_section_title

;
Syntheses, structure and properties of a new Fillowite-type compound
Na0.48Mn1.22PO4
;
loop_
_citation_id
_citation_journal_full
_citation_year
_citation_journal_volume
_citation_page_first
_citation_page_last
_citation_journal_id_ASTM
primary 'Journal of Alloys and Compounds' 2018 734 229 234 JALCEU
loop_
_publ_author_name
'Zhao, Pan'
'Feng, Kai'
'Wang, Yonggang'
'Gao, Jianhua'
_cell_length_a 15.3672(17)
_cell_length_b 15.3672(17)
_cell_length_c 43.503(5)
_cell_angle_alpha 90.
_cell_angle_beta 90.
_cell_angle_gamma 120.
_cell_volume 8896.91
_cell_formula_units_Z 12
_symmetry_space_group_name_H-M 'R -3 H'
_symmetry_Int_Tables_number 148
_refine_ls_R_factor_all 0.0276
loop_
_symmetry_equiv_pos_site_id
_symmetry_equiv_pos_as_xyz
1 'x-y, x, -z'
2 'y, -x+y, -z'
3 '-x, -y, -z'
4 '-x+y, -x, z'
5 '-y, x-y, z'
6 'x, y, z'
7 'x-y+2/3, x+1/3, -z+1/3'
8 'y+2/3, -x+y+1/3, -z+1/3'
9 '-x+2/3, -y+1/3, -z+1/3'
10 '-x+y+2/3, -x+1/3, z+1/3'
11 '-y+2/3, x-y+1/3, z+1/3'
12 'x+2/3, y+1/3, z+1/3'
13 'x-y+1/3, x+2/3, -z+2/3'
14 'y+1/3, -x+y+2/3, -z+2/3'
15 '-x+1/3, -y+2/3, -z+2/3'
16 '-x+y+1/3, -x+2/3, z+2/3'
17 '-y+1/3, x-y+2/3, z+2/3'
18 'x+1/3, y+2/3, z+2/3'
loop_
_atom_type_symbol
_atom_type_oxidation_number
Mn2+ 2.059
P5+ 5
Na1+ 1
O2- -2
loop_
_atom_site_label
_atom_site_type_symbol
_atom_site_symmetry_multiplicity
_atom_site_Wyckoff_symbol
_atom_site_fract_x
_atom_site_fract_y
_atom_site_fract_z
_atom_site_B_iso_or_equiv
_atom_site_occupancy
_atom_site_attached_hydrogens
Mn1 Mn2+ 6 c 0.3333 -0.3333 0.06586(2) 0.0139(2) 1 0
Mn2 Mn2+ 6 c 0.6667 0.3333 0.15766(2) 0.01209(19) 1 0
Mn3 Mn2+ 6 c 0. 0. 0.10058(2) 0.0126(2) 1 0
Mn4 Mn2+ 18 f 0.22075(4) 0.09326(4) 0.128389(13) 0.01467(13) 1 0
Mn5 Mn2+ 18 f 0.26917(4) -0.06890(4) 0.080891(13) 0.01307(13) 1 0
Mn6 Mn2+ 18 f 0.44830(4) -0.11113(4) 0.033334(13) 0.01355(13) 1 0
Mn7 Mn2+ 18 f 0.51754(4) 0.09345(4) 0.115345(13) 0.01548(13) 1 0
Mn8 Mn2+ 18 f 0.41566(4) 0.17454(4) 0.042512(14) 0.01652(14) 1 0
Mn9 Mn2+ 18 f 0.65973(4) -0.01190(4) 0.084344(13) 0.01158(13) 1 0
Mn10 Mn2+ 3 a 0. 0. 0. 0.0119(3) 1 0
Mn11 Mn2+ 3 b 0.3333 -0.3333 0.1667 0.0330(4) 1 0
P1 P5+ 18 f 0.09052(6) -0.14125(6) 0.13851(2) 0.00914(18) 1 0
P2 P5+ 18 f 0.57227(7) 0.11542(7) 0.04312(2) 0.01091(19) 1 0
P3 P5+ 18 f 0.44869(7) 0.24497(7) 0.12730(2) 0.01103(19) 1 0
P4 P5+ 18 f 0.20595(6) 0.09643(6) 0.05485(2) 0.00929(18) 1 0
P5 P5+ 18 f 0.21666(7) -0.20873(7) 0.03260(2) 0.01019(18) 1 0
P6 P5+ 18 f 0.41957(7) -0.13300(7) 0.11225(2) 0.01165(19) 1 0
Na1 Na1+ 18 f 0.23930(14) -0.01402(12) -0.00162(4) 0.0279(4) 1 0
Na2 Na1+ 6 c 0.6667 0.3333 0.00872(6) 0.0170(5) 1 0
Na3 Na1+ 18 f 0.60769(16) -0.03509(16) 0.16739(4) 0.0329(5) 1 0
Na4 Na1+ 6 c 0.6667 0.3333 0.08209(6) 0.0258(6) 1 0
Na5 Na1+ 18 f 0.2085(5) -0.2486(5) 0.14589(16) 0.020(2) 0.236(7) 0
O1 O2- 18 f 0.5316(2) 0.32302(19) 0.04153(7) 0.0185(6) 1 0
O2 O2- 18 f 0.57496(18) 0.01797(18) 0.05032(6) 0.0137(5) 1 0
O3 O2- 18 f 0.31564(18) -0.10614(18) 0.03521(6) 0.0138(5) 1 0
O4 O2- 18 f 0.26755(19) 0.04042(18) 0.05279(6) 0.0135(5) 1 0
O5 O2- 18 f 0.3877(2) -0.05068(19) 0.10916(6) 0.0174(6) 1 0
O6 O2- 18 f 0.36569(19) 0.15840(19) -0.00432(6) 0.0148(5) 1 0
O7 O2- 18 f 0.78244(19) 0.3725(2) 0.19268(6) 0.0174(6) 1 0
O8 O2- 18 f 0.46304(18) -0.24431(18) 0.03060(6) 0.0129(5) 1 0
O9 O2- 18 f 0.14605(18) 0.06458(19) 0.08517(6) 0.0140(5) 1 0
O10 O2- 18 f 0.1137(2) -0.16949(19) 0.17002(6) 0.0160(5) 1 0
O11 O2- 18 f 0.01474(19) -0.23835(19) 0.12196(6) 0.0163(5) 1 0
O12 O2- 18 f 0.19065(19) -0.0786(2) 0.12133(6) 0.0184(6) 1 0
O13 O2- 18 f 0.53326(19) -0.0777(2) 0.11771(6) 0.0195(6) 1 0
O14 O2- 18 f 0.3626(2) -0.1995(2) 0.13937(8) 0.0319(8) 1 0
O15 O2- 18 f 0.28814(18) 0.20886(18) 0.05544(6) 0.0136(5) 1 0
O16 O2- 18 f 0.1398(2) 0.0737(2) 0.02698(6) 0.0183(6) 1 0
O17 O2- 18 f 0.5097(2) 0.1320(2) 0.06809(6) 0.0174(6) 1 0
O18 O2- 18 f 0.5150(2) 0.1010(2) 0.01315(6) 0.0235(6) 1 0
O19 O2- 18 f 0.45907(19) 0.33015(19) 0.10641(6) 0.0161(5) 1 0
O20 O2- 18 f 0.36739(19) 0.1417(2) 0.11558(6) 0.0184(6) 1 0
O21 O2- 18 f 0.54857(19) 0.24253(19) 0.12663(6) 0.0152(5) 1 0
O22 O2- 18 f 0.4273(2) 0.2660(2) 0.15998(6) 0.0220(6) 1 0
O23 O2- 18 f 0.3943(2) -0.1883(2) 0.08135(7) 0.0210(6) 1 0
O24 O2- 18 f 0.15740(19) -0.21781(19) 0.06232(6) 0.0146(5) 1 0
loop_
_atom_site_aniso_label
_atom_site_aniso_type_symbol
_atom_site_aniso_U_11
_atom_site_aniso_U_22
_atom_site_aniso_U_33
_atom_site_aniso_U_12
_atom_site_aniso_U_13
_atom_site_aniso_U_23
Mn1 Mn2+ 0.0133(3) 0.0133(3) 0.0151(5) 0.00664(14) 0. 0.
Mn2 Mn2+ 0.0124(3) 0.0124(3) 0.0115(5) 0.00620(14) 0. 0.
Mn3 Mn2+ 0.0115(3) 0.0115(3) 0.0148(5) 0.00576(14) 0. 0.
Mn4 Mn2+ 0.0133(3) 0.0170(3) 0.0134(3) 0.0074(2) -0.0009(2) -0.0002(2)
Mn5 Mn2+ 0.0147(3) 0.0142(3) 0.0116(3) 0.0082(2) 0.0000(2) 0.0001(2)
Mn6 Mn2+ 0.0111(3) 0.0130(3) 0.0166(3) 0.0061(2) -0.0013(2) -0.0029(2)
Mn7 Mn2+ 0.0156(3) 0.0135(3) 0.0128(3) 0.0038(2) -0.0010(2) -0.0004(2)
Mn8 Mn2+ 0.0098(3) 0.0141(3) 0.0225(3) 0.0037(2) -0.0026(2) 0.0043(2)
Mn9 Mn2+ 0.0112(3) 0.0123(3) 0.0118(3) 0.0062(2) -0.0008(2) 0.0002(2)
Mn10 Mn2+ 0.0118(4) 0.0118(4) 0.0120(6) 0.00591(19) 0. 0.
Mn11 Mn2+ 0.0422(6) 0.0422(6) 0.0145(8) 0.0211(3) 0. 0.
P1 P5+ 0.0092(4) 0.0089(4) 0.0096(4) 0.0047(3) 0.0001(3) -0.0004(3)
P2 P5+ 0.0102(4) 0.0110(4) 0.0125(4) 0.0060(3) 0.0011(3) 0.0028(3)
P3 P5+ 0.0096(4) 0.0111(4) 0.0107(4) 0.0039(3) -0.0009(3) 0.0001(3)
P4 P5+ 0.0085(4) 0.0094(4) 0.0095(4) 0.0041(3) 0.0002(3) 0.0002(3)
P5 P5+ 0.0096(4) 0.0091(4) 0.0122(4) 0.0050(3) -0.0001(3) 0.0003(3)
P6 P5+ 0.0106(4) 0.0105(4) 0.0115(4) 0.0035(3) -0.0012(3) 0.0004(3)
Na1 Na1+ 0.0369(10) 0.0174(8) 0.0187(8) 0.0055(7) -0.0052(7) -0.0032(7)
Na2 Na1+ 0.0188(8) 0.0188(8) 0.0134(13) 0.0094(4) 0. 0.
Na3 Na1+ 0.0655(13) 0.0657(13) 0.0086(7) 0.0635(12) -0.0112(8) -0.0116(8)
Na4 Na1+ 0.0313(10) 0.0313(10) 0.0147(14) 0.0156(5) 0. 0.
Na5 Na1+ 0.011(3) 0.025(4) 0.027(4) 0.011(3) -0.003(3) -0.010(3)
O1 O2- 0.0150(13) 0.0122(12) 0.0294(16) 0.0077(11) 0.0035(11) -0.0016(11)
O2 O2- 0.0137(12) 0.0097(11) 0.0176(13) 0.0058(10) -0.0046(10) -0.0004(10)
O3 O2- 0.0096(12) 0.0121(12) 0.0186(14) 0.0046(10) 0.0017(10) 0.0000(10)
O4 O2- 0.0161(12) 0.0139(12) 0.0139(13) 0.0100(11) 0.0042(10) 0.0023(10)
O5 O2- 0.0188(13) 0.0162(13) 0.0186(14) 0.0099(11) -0.0053(11) -0.0042(11)
O6 O2- 0.0116(12) 0.0152(12) 0.0152(13) 0.0048(10) 0.0022(10) 0.0020(10)
O7 O2- 0.0113(12) 0.0268(15) 0.0120(13) 0.0080(11) -0.0002(10) 0.0016(11)
O8 O2- 0.0104(12) 0.0140(12) 0.0145(13) 0.0062(10) 0.0003(10) 0.0016(10)
O9 O2- 0.0113(12) 0.0171(13) 0.0113(13) 0.0055(10) 0.0025(10) 0.0012(10)
O10 O2- 0.0202(13) 0.0184(13) 0.0124(13) 0.0119(11) -0.0017(10) 0.0014(10)
O11 O2- 0.0158(13) 0.0131(12) 0.0169(13) 0.0050(11) -0.0021(11) -0.0044(10)
O12 O2- 0.0133(13) 0.0201(13) 0.0156(13) 0.0038(11) 0.0042(11) 0.0003(11)
O13 O2- 0.0105(12) 0.0270(15) 0.0167(14) 0.0060(11) -0.0018(10) -0.0050(11)
O14 O2- 0.0223(15) 0.0332(17) 0.0279(17) 0.0047(13) 0.0031(13) 0.0155(14)
O15 O2- 0.0120(12) 0.0093(12) 0.0157(13) 0.0026(10) 0.0006(10) -0.0016(10)
O16 O2- 0.0151(13) 0.0228(14) 0.0133(13) 0.0068(11) -0.0036(10) -0.0001(11)
O17 O2- 0.0174(13) 0.0230(14) 0.0166(14) 0.0137(12) 0.0029(11) 0.0020(11)
O18 O2- 0.0225(14) 0.0361(17) 0.0143(14) 0.0164(13) -0.0029(11) 0.0058(12)
O19 O2- 0.0138(12) 0.0178(13) 0.0180(14) 0.0088(11) 0.0008(10) 0.0058(11)
O20 O2- 0.0122(12) 0.0159(13) 0.0243(15) 0.0048(11) -0.0013(11) -0.0052(11)
O21 O2- 0.0118(12) 0.0136(12) 0.0202(14) 0.0062(10) -0.0034(10) 0.0009(10)
O22 O2- 0.0247(15) 0.0235(14) 0.0105(13) 0.0066(12) 0.0012(11) -0.0018(11)
O23 O2- 0.0259(15) 0.0150(13) 0.0211(15) 0.0095(12) -0.0081(12) -0.0065(11)
O24 O2- 0.0135(12) 0.0140(12) 0.0153(13) 0.0061(10) 0.0034(10) 0.0013(10)
#End of TTdata_21951-ICSD