
#(C) 2019 by FIZ Karlsruhe - Leibniz Institute for Information Infrastructure.  All rights reserved.
data_2197-ICSD
_database_code_ICSD 2197
_audit_creation_date 1980-01-01
_audit_update_record 1985-04-12
_chemical_name_systematic 'Sodium catena-phosphatovanadate *'
_chemical_formula_structural 'Na V0.66 P0.34 O3'
_chemical_formula_sum 'Na1 O3 P0.34 V0.66'
_chemical_name_structure_type NaKV2O6
_exptl_crystal_density_diffrn 2.84
_publ_section_title

;
Crystallographic studies on cation substitution in the system (Na, K) (V, P)
O3
;
loop_
_citation_id
_citation_journal_full
_citation_year
_citation_journal_volume
_citation_page_first
_citation_page_last
_citation_journal_id_ASTM
primary 'Journal of Solid State Chemistry' 1978 25 285 294 JSSCBI
loop_
_publ_author_name
'Idler, K.L.'
'Calvo, C.'
'Ng, H.N.'
_cell_length_a 10.421(1)
_cell_length_b 9.475(1)
_cell_length_c 5.715(1)
_cell_angle_alpha 90.
_cell_angle_beta 107.62(1)
_cell_angle_gamma 90.
_cell_volume 537.82
_cell_formula_units_Z 8
_symmetry_space_group_name_H-M 'C 1 2/c 1'
_symmetry_Int_Tables_number 15
_refine_ls_R_factor_all 0.035
loop_
_symmetry_equiv_pos_site_id
_symmetry_equiv_pos_as_xyz
1 'x, -y, z+1/2'
2 '-x, -y, -z'
3 '-x, y, -z+1/2'
4 'x, y, z'
5 'x+1/2, -y+1/2, z+1/2'
6 '-x+1/2, -y+1/2, -z'
7 '-x+1/2, y+1/2, -z+1/2'
8 'x+1/2, y+1/2, z'
loop_
_atom_type_symbol
_atom_type_oxidation_number
V5+ 5
P5+ 5
Na1+ 1
O2- -2
loop_
_atom_site_label
_atom_site_type_symbol
_atom_site_symmetry_multiplicity
_atom_site_Wyckoff_symbol
_atom_site_fract_x
_atom_site_fract_y
_atom_site_fract_z
_atom_site_B_iso_or_equiv
_atom_site_occupancy
_atom_site_attached_hydrogens
V1 V5+ 8 f 0.29158(5) 0.08864(5) 0.25990(9) . 0.658(4) 0
P1 P5+ 8 f 0.29158(5) 0.08864(5) 0.25990(9) . 0.342 0
Na1 Na1+ 4 e 0 0.9086(2) 0.25 . 1. 0
Na2 Na1+ 4 e 0 0.2918(2) 0.25 . 1. 0
O1 O2- 8 f 0.1299(2) 0.0982(2) 0.1690(4) . 1. 0
O2 O2- 8 f 0.3561(2) 0.2416(2) 0.3226(4) . 1. 0
O3 O2- 8 f 0.3510(2) 0.0087(2) 0.0336(5) . 1. 0
loop_
_atom_site_aniso_label
_atom_site_aniso_type_symbol
_atom_site_aniso_U_11
_atom_site_aniso_U_22
_atom_site_aniso_U_33
_atom_site_aniso_U_12
_atom_site_aniso_U_13
_atom_site_aniso_U_23
V1 V5+ 0.0112(3) 0.0141(3) 0.0129(3) -.0016(2) 0.0022(2) -.0010(2)
P1 P5+ 0.0112(3) 0.0141(3) 0.0129(3) -.0016(2) 0.0022(2) -.0010(2)
Na1 Na1+ 0.0235(9) 0.0230(9) 0.0218(8) 0 0.0045(6) 0
Na2 Na1+ 0.0441(12) 0.028(1) 0.0327(10) 0 -.0063(9) 0
O1 O2- 0.0209(10) 0.0262(11) 0.0185(9) -.0029(9) 0.0032(8) -.0001(8)
O2 O2- 0.0306(12) 0.0295(12) 0.0291(11) -.0108(9) 0.0089(9) -.0024(9)
O3 O2- 0.0220(11) 0.0247(13) 0.0421(14) -.0006(9) 0.0067(10) -.0109(11)
#End of TTdata_2197-ICSD