
#(C) 2019 by FIZ Karlsruhe - Leibniz Institute for Information Infrastructure.  All rights reserved.
data_2199-ICSD
_database_code_ICSD 2199
_audit_creation_date 1980-01-01
_audit_update_record 2010-02-01
_chemical_name_systematic 'Sodium potassium catena-divanadate'
_chemical_formula_structural 'Na K (V2 O6)'
_chemical_formula_sum 'K1 Na1 O6 V2'
_chemical_name_structure_type NaKV2O6
_exptl_crystal_density_diffrn 2.91
_publ_section_title

;
Crystallographic studies on cation substitution in the system (Na, K) (V, P)
O3
;
loop_
_citation_id
_citation_journal_full
_citation_year
_citation_journal_volume
_citation_page_first
_citation_page_last
_citation_journal_id_ASTM
primary 'Journal of Solid State Chemistry' 1978 25 285 294 JSSCBI
loop_
_publ_author_name
'Idler, K.L.'
'Calvo, C.'
'Ng, H.N.'
_cell_length_a 10.533(1)
_cell_length_b 9.997(1)
_cell_length_c 5.804(2)
_cell_angle_alpha 90.
_cell_angle_beta 104.17(1)
_cell_angle_gamma 90.
_cell_volume 592.56
_cell_formula_units_Z 4
_symmetry_space_group_name_H-M 'C 1 2/c 1'
_symmetry_Int_Tables_number 15
_refine_ls_R_factor_all 0.032
loop_
_symmetry_equiv_pos_site_id
_symmetry_equiv_pos_as_xyz
1 'x, -y, z+1/2'
2 '-x, -y, -z'
3 '-x, y, -z+1/2'
4 'x, y, z'
5 'x+1/2, -y+1/2, z+1/2'
6 '-x+1/2, -y+1/2, -z'
7 '-x+1/2, y+1/2, -z+1/2'
8 'x+1/2, y+1/2, z'
loop_
_atom_type_symbol
_atom_type_oxidation_number
V5+ 5
Na1+ 1
K1+ 1
O2- -2
loop_
_atom_site_label
_atom_site_type_symbol
_atom_site_symmetry_multiplicity
_atom_site_Wyckoff_symbol
_atom_site_fract_x
_atom_site_fract_y
_atom_site_fract_z
_atom_site_B_iso_or_equiv
_atom_site_occupancy
_atom_site_attached_hydrogens
V1 V5+ 8 f 0.28614(6) 0.08586(7) 0.2240(1) . 1. 0
Na1 Na1+ 4 e 0 0.9048(2) 0.25 . 1. 0
K1 K1+ 4 e 0 0.3077(1) 0.25 . 1. 0
O1 O2- 8 f 0.1254(3) 0.0888(3) 0.1524(5) . 1. 0
O2 O2- 8 f 0.3441(3) 0.2364(3) 0.2874(5) . 1. 0
O3 O2- 8 f 0.3471(3) 0.0153(3) -.0141(5) . 1. 0
loop_
_atom_site_aniso_label
_atom_site_aniso_type_symbol
_atom_site_aniso_U_11
_atom_site_aniso_U_22
_atom_site_aniso_U_33
_atom_site_aniso_U_12
_atom_site_aniso_U_13
_atom_site_aniso_U_23
V1 V5+ 0.0119(3) 0.0154(3) 0.0091(3) -.0009(3) 0.0019(2) -.0002(2)
Na1 Na1+ 0.0187(11) 0.0185(11) 0.0181(10) 0 0.0025(9) 0
K1 K1+ 0.0311(8) 0.0193(6) 0.0203(6) 0 -.0036(5) 0
O1 O2- 0.0146(13) 0.0264(15) 0.0176(12) 0.0021(13) 0.0031(10) 0.0019(12)
O2 O2- 0.0337(18) 0.0191(14) 0.0229(15) -.0088(14) 0.0053(13) -.0007(10)
O3 O2- 0.0167(14) 0.0268(15) 0.0133(12) 0.0008(12) 0.0038(10) -.0039(11)
#End of TTdata_2199-ICSD