
#(C) 2019 by FIZ Karlsruhe - Leibniz Institute for Information Infrastructure.  All rights reserved.
data_22-ICSD
_database_code_ICSD 22
_audit_creation_date 1980-01-01
_audit_update_record 2008-02-01
_chemical_name_systematic 'Sodium chlorate(III)'
_chemical_formula_structural 'Na (Cl O2)'
_chemical_formula_sum 'Cl1 Na1 O2'
_exptl_crystal_density_diffrn 2.46
_publ_section_title 'Anhydrous sodium chlorite'
loop_
_citation_id
_citation_journal_full
_citation_year
_citation_journal_volume
_citation_page_first
_citation_page_last
_citation_journal_id_ASTM
primary

;
Acta Crystallographica, Section B: Structural Crystallography and Crystal
Chemistry
; 1976 32 610 612 ACBCAR
loop_
_publ_author_name
'Tarimci, C.'
'Rosenstein, R.D.'
'Schempp, E.'
_cell_length_a 6.456(2)
_cell_length_b 6.442(2)
_cell_length_c 6.813(2)
_cell_angle_alpha 90.
_cell_angle_beta 120.6(1)
_cell_angle_gamma 90.
_cell_volume 243.89
_cell_formula_units_Z 4
_symmetry_space_group_name_H-M 'I 1 2/a 1'
_symmetry_Int_Tables_number 15
_refine_ls_R_factor_all 0.056
loop_
_symmetry_equiv_pos_site_id
_symmetry_equiv_pos_as_xyz
1 'x+1/2, -y, z'
2 '-x, -y, -z'
3 '-x+1/2, y, -z'
4 'x, y, z'
5 'x, -y+1/2, z+1/2'
6 '-x+1/2, -y+1/2, -z+1/2'
7 '-x, y+1/2, -z+1/2'
8 'x+1/2, y+1/2, z+1/2'
loop_
_atom_type_symbol
_atom_type_oxidation_number
O2- -2
Na1+ 1
Cl3+ 3
loop_
_atom_site_label
_atom_site_type_symbol
_atom_site_symmetry_multiplicity
_atom_site_Wyckoff_symbol
_atom_site_fract_x
_atom_site_fract_y
_atom_site_fract_z
_atom_site_B_iso_or_equiv
_atom_site_occupancy
_atom_site_attached_hydrogens
O1 O2- 8 f 0.4766(4) 0.2923(4) 0.1341(5) . 1. 0
Na1 Na1+ 4 e 0.75 0.3662(3) 0 . 1. 0
Cl1 Cl3+ 4 e 0.25 0.1507(2) 0 . 1. 0
loop_
_atom_site_aniso_label
_atom_site_aniso_type_symbol
_atom_site_aniso_U_11
_atom_site_aniso_U_22
_atom_site_aniso_U_33
_atom_site_aniso_U_12
_atom_site_aniso_U_13
_atom_site_aniso_U_23
O1 O2- 0.0082(10) 0.0134(8) 0.0183(10) -.0029(5) 0.0028(8) -.0009(6)
Na1 Na1+ 0.0119(6) 0.0111(6) 0.0161(9) 0 0.0061(8) 0
Cl1 Cl3+ 0.0089(4) 0.0064(4) 0.0217(6) 0 0.0041(5) 0
#End of TTdata_22-ICSD