
#(C) 2019 by FIZ Karlsruhe - Leibniz Institute for Information Infrastructure.  All rights reserved.
data_2265-ICSD
_database_code_ICSD 2265
_audit_creation_date 1980-01-01
_audit_update_record 1999-05-18
_chemical_name_systematic 'Sodium tetraoxothallate'
_chemical_formula_structural 'Na5 Tl O4'
_chemical_formula_sum 'Na5 O4 Tl1'
_chemical_name_structure_type Li5GaO4-alpha
_exptl_crystal_density_diffrn 4.07
_publ_section_title 'Na5 Tl O4, ein neues Oxothallat(III)'
loop_
_citation_id
_citation_journal_full
_citation_year
_citation_journal_volume
_citation_page_first
_citation_page_last
_citation_journal_id_ASTM
primary 'Zeitschrift fuer Anorganische und Allgemeine Chemie (1950) (DE)' 1978
443 193 200 ZAACAB
loop_
_publ_author_name
'Hoppe, R.'
'Fink, D.'
_cell_length_a 10.78(3)
_cell_length_b 10.71(2)
_cell_length_c 10.83(6)
_cell_angle_alpha 90.
_cell_angle_beta 90.
_cell_angle_gamma 90.
_cell_volume 1250.36
_cell_formula_units_Z 8
_symmetry_space_group_name_H-M 'P b c a'
_symmetry_Int_Tables_number 61
_refine_ls_R_factor_all 0.0808
loop_
_symmetry_equiv_pos_site_id
_symmetry_equiv_pos_as_xyz
1 'x+1/2, y, -z+1/2'
2 'x, -y+1/2, z+1/2'
3 '-x+1/2, y+1/2, z'
4 '-x, -y, -z'
5 '-x+1/2, -y, z+1/2'
6 '-x, y+1/2, -z+1/2'
7 'x+1/2, -y+1/2, -z'
8 'x, y, z'
loop_
_atom_type_symbol
_atom_type_oxidation_number
Tl3+ 3
Na1+ 1
O2- -2
loop_
_atom_site_label
_atom_site_type_symbol
_atom_site_symmetry_multiplicity
_atom_site_Wyckoff_symbol
_atom_site_fract_x
_atom_site_fract_y
_atom_site_fract_z
_atom_site_B_iso_or_equiv
_atom_site_occupancy
_atom_site_attached_hydrogens
Tl1 Tl3+ 8 c 0.1492(1) 0.1165(1) 0.1167(1) 0.78 1. 0
Na1 Na1+ 8 c 0.6125(8) 0.1435(6) 0.1055(5) 1.1 1. 0
Na2 Na1+ 8 c 0.8754(7) 0.0991 0.1479 1.4 1. 0
Na3 Na1+ 8 c 0.3948 0.3358 0.1154 1.3 1. 0
Na4 Na1+ 8 c 0.6505 0.8711 0.1184 1.4 1. 0
Na5 Na1+ 8 c 0.3859 0.898 0.1624 1.6 1. 0
O1 O2- 8 c 0.011 0.2414(9) 0.039(1) 0.7 1. 0
O2 O2- 8 c 0.038(1) 0.001(9) 0.2437(9) 0.9 1. 0
O3 O2- 8 c 0.246(1) 0.2380(9) 0.245(1) 1.1 1. 0
O4 O2- 8 c 0.2487(9) 0.4842(9) 0.006(1) 1. 1. 0
#End of TTdata_2265-ICSD