
#(C) 2019 by FIZ Karlsruhe - Leibniz Institute for Information Infrastructure.  All rights reserved.
data_23020-ICSD
_database_code_ICSD 23020
_audit_creation_date 1984-09-10
_audit_update_record 2003-04-01
_chemical_name_systematic 'Sodium neodymium hexasilicate'
_chemical_formula_structural 'Na Nd Si6 O14'
_chemical_formula_sum 'Na1 Nd1 O14 Si6'
_chemical_name_structure_type NaPrSi6O14
_exptl_crystal_density_diffrn 3.2
_publ_section_title 'Crystal structure of Na Pr Si6 O14 and Na Nd Si6 O14'
loop_
_citation_id
_citation_journal_full
_citation_year
_citation_journal_volume
_citation_page_first
_citation_page_last
_citation_journal_id_ASTM
primary 'Doklady Akademii Nauk SSSR' 1976 228 88 91 DANKAS
loop_
_publ_author_name
'Karpov, O.G.'
'Pushcharovskii, D.Yu.'
'Pobedimskaya, E.A.'
'Belov, N.V.'
_cell_length_a 7.662(5)
_cell_length_b 15.392(5)
_cell_length_c 19.679(7)
_cell_angle_alpha 90.
_cell_angle_beta 90.
_cell_angle_gamma 90.
_cell_volume 2320.81
_cell_formula_units_Z 8
_symmetry_space_group_name_H-M 'I b a m'
_symmetry_Int_Tables_number 72
_refine_ls_R_factor_all 0.05
loop_
_symmetry_equiv_pos_site_id
_symmetry_equiv_pos_as_xyz
1 '-x, y, z+1/2'
2 'x, -y, z+1/2'
3 'x, y, -z'
4 '-x, -y, -z'
5 'x, -y, -z+1/2'
6 '-x, y, -z+1/2'
7 '-x, -y, z'
8 'x, y, z'
9 '-x+1/2, y+1/2, z'
10 'x+1/2, -y+1/2, z'
11 'x+1/2, y+1/2, -z+1/2'
12 '-x+1/2, -y+1/2, -z+1/2'
13 'x+1/2, -y+1/2, -z'
14 '-x+1/2, y+1/2, -z'
15 '-x+1/2, -y+1/2, z+1/2'
16 'x+1/2, y+1/2, z+1/2'
loop_
_atom_type_symbol
_atom_type_oxidation_number
Na1+ 1
Nd3+ 3
Si4+ 4
O2- -2
loop_
_atom_site_label
_atom_site_type_symbol
_atom_site_symmetry_multiplicity
_atom_site_Wyckoff_symbol
_atom_site_fract_x
_atom_site_fract_y
_atom_site_fract_z
_atom_site_B_iso_or_equiv
_atom_site_occupancy
_atom_site_attached_hydrogens
Na1 Na1+ 4 a 0 0 0.25 1.04 1. 0
Na2 Na1+ 4 d 0 0.5 0.5 1.47 1. 0
Nd1 Nd3+ 8 g 0 0.22878(5) 0.25 0.4 1. 0
Si1 Si4+ 16 k 0.2613(5) 0.0787(3) 0.3532(2) 0.39 1. 0
Si2 Si4+ 16 k 0.1499(5) 0.3802(3) 0.3522(2) 0.34 1. 0
Si3 Si4+ 8 j 0.1776(7) 0.1334(4) 0.5 0.4 1. 0
Si4 Si4+ 8 j 0.2683(7) 0.3337(4) 0.5 0.42 1. 0
O1 O2- 16 k 0.093(2) 0.1186(6) 0.3185(5) 0.74 1. 0
O2 O2- 16 k 0.239(2) 0.3033(6) 0.3129(5) 0.68 1. 0
O3 O2- 16 k 0.443(1) 0.1294(3) 0.3339(2) 0.71 1. 0
O4 O2- 16 k 0.214(2) 0.4761(6) 0.3317(5) 0.64 1. 0
O5 O2- 16 k 0.254(2) 0.0799(6) 0.4364(5) 0.81 1. 0
O6 O2- 16 k 0.168(2) 0.3742(6) 0.4354(5) 0.77 1. 0
O7 O2- 8 j 0.256(3) 0.2296(9) 0.5 1.28 1. 0
O8 O2- 8 j 0.472(3) 0.362(1) 0.5 1.41 1. 0
#End of TTdata_23020-ICSD