
#(C) 2019 by FIZ Karlsruhe - Leibniz Institute for Information Infrastructure.  All rights reserved.
data_230495-ICSD
_database_code_ICSD 230495
_audit_creation_date 2019-02-01
_chemical_name_systematic 'Sodium vanadium phosphate (3/1/2)'
_chemical_formula_structural 'Na3 V (P O4)2'
_chemical_formula_sum 'Na3 O8 P2 V1'
_chemical_name_structure_type Na2BaCu(VO4)2
_exptl_crystal_density_diffrn 3.24
_publ_section_title

;
Na3V(PO4)2. A new layered-type cathode material with high water stability and
power capability for Na-ion batteries
;
loop_
_citation_id
_citation_journal_full
_citation_year
_citation_journal_volume
_citation_page_first
_citation_page_last
_citation_journal_id_ASTM
primary 'Chemistry of Materials' 2018 30 3683 3689 CMATEX
loop_
_publ_author_name
'Kim, Jongsoon'
'Yoon, Gabin'
'Kim, Hyungsub'
'Park, Young-Uk'
'Kang, Kisuk'
_cell_length_a 9.09390(8)
_cell_length_b 5.03264(5)
_cell_length_c 13.86310(13)
_cell_angle_alpha 90.
_cell_angle_beta 91.2471(9)
_cell_angle_gamma 90.
_cell_volume 634.31
_cell_formula_units_Z 4
_symmetry_space_group_name_H-M 'C 1 2/c 1'
_symmetry_Int_Tables_number 15
_refine_ls_R_factor_all 0.0412
loop_
_symmetry_equiv_pos_site_id
_symmetry_equiv_pos_as_xyz
1 'x, -y, z+1/2'
2 '-x, -y, -z'
3 '-x, y, -z+1/2'
4 'x, y, z'
5 'x+1/2, -y+1/2, z+1/2'
6 '-x+1/2, -y+1/2, -z'
7 '-x+1/2, y+1/2, -z+1/2'
8 'x+1/2, y+1/2, z'
loop_
_atom_type_symbol
_atom_type_oxidation_number
V3+ 3.01
P5+ 5
Na1+ 1
O2- -2
loop_
_atom_site_label
_atom_site_type_symbol
_atom_site_symmetry_multiplicity
_atom_site_Wyckoff_symbol
_atom_site_fract_x
_atom_site_fract_y
_atom_site_fract_z
_atom_site_B_iso_or_equiv
_atom_site_occupancy
_atom_site_attached_hydrogens
V1 V3+ 4 a 0 0 0 0.95(9) 1. 0
P1 P5+ 8 f 0.1710(4) 0.5202(8) 0.3867(2) 1.03(11) 1. 0
Na1 Na1+ 4 e 0 0.0401(14) 0.25 1.78(9) 0.99(3) 0
Na2 Na1+ 8 f 0.3311(5) 0.0485(9) 0.3662(3) 1.78(9) 1.00(2) 0
O1 O2- 8 f 0.1188(8) 0.3397(13) 0.4668(5) 0.13(9) 1. 0
O2 O2- 8 f 0.3248(8) 0.6047(13) 0.4091(4) 0.13(9) 1. 0
O3 O2- 8 f 0.0781(8) 0.7725(12) 0.3852(5) 0.13(9) 1. 0
O4 O2- 8 f 0.1736(8) 0.3876(12) 0.2922(5) 0.13(9) 1. 0
#End of TTdata_230495-ICSD