
#(C) 2019 by FIZ Karlsruhe - Leibniz Institute for Information Infrastructure.  All rights reserved.
data_230749-ICSD
_database_code_ICSD 230749
_audit_creation_date 2019-08-01
_chemical_name_systematic 'Potassium sodium lanthanum borate (1.34/1.66/2/3)'
_chemical_formula_structural '(K1.34 Na1.66) La2 (B O3)3'
_chemical_formula_sum 'B3 K1.34 La2 Na1.66 O9'
_exptl_crystal_density_diffrn 4.22
_publ_section_title
'Crystal structure of (K,Na)3La2(BO3)3 solid solution system'
loop_
_citation_id
_citation_journal_full
_citation_year
_citation_journal_volume
_citation_page_first
_citation_page_last
_citation_journal_id_ASTM
primary 'Rengong Jingti Xuebao' 2013 42 815 818 RJXUEN
loop_
_publ_author_name
'Zeng, Qin-dan'
'Li, Ru-kang'
_cell_length_a 5.1629(10)
_cell_length_b 11.416(2)
_cell_length_c 7.263(2)
_cell_angle_alpha 90.
_cell_angle_beta 90.
_cell_angle_gamma 90.
_cell_volume 428.08
_cell_formula_units_Z 2
_symmetry_space_group_name_H-M 'A m m 2'
_symmetry_Int_Tables_number 38
_refine_ls_R_factor_all 0.0164
loop_
_symmetry_equiv_pos_site_id
_symmetry_equiv_pos_as_xyz
1 'x, -y, z'
2 '-x, y, z'
3 '-x, -y, z'
4 'x, y, z'
5 'x, -y+1/2, z+1/2'
6 '-x, y+1/2, z+1/2'
7 '-x, -y+1/2, z+1/2'
8 'x, y+1/2, z+1/2'
loop_
_atom_type_symbol
_atom_type_oxidation_number
La3+ 3
Na1+ 1
K1+ 1
Na1+ 1
K1+ 1
Na1+ 1
O2- -2
B3+ 3
loop_
_atom_site_label
_atom_site_type_symbol
_atom_site_symmetry_multiplicity
_atom_site_Wyckoff_symbol
_atom_site_fract_x
_atom_site_fract_y
_atom_site_fract_z
_atom_site_B_iso_or_equiv
_atom_site_occupancy
_atom_site_attached_hydrogens
La1 La3+ 4 e 0.5 0.28640(1) 0.17490(4) 0.00212(6) 1. 0
Na1 Na1+ 2 b 0.5 0 0.3188(3) 0.0098(4) 1. 0
K1 K1+ 2 a 0 0 0.5804(2) 0.0069(6) 0.44(2) 0
Na2 Na1+ 2 a 0 0 0.5804(2) 0.0069(6) 0.56(2) 0
K2 K1+ 2 a 0 0 0.0647(2) 0.0010(4) 0.90(2) 0
Na3 Na1+ 2 a 0 0 0.0647(2) 0.0010(4) 0.10(2) 0
O1 O2- 4 e 0.5 0.1051(2) 0.9914(4) 00.0055(5) 1. 0
O2 O2- 4 d 0 0.8174(3) 0.7609(4) 0.0086(5) 1. 0
O3 O2- 8 f 0.2333(3) 0.1557(2) 0.3859(3) 0.0044(3) 1. 0
O4 O2- 2 b 0.5 0.5 0.2072(4) 0.0069(8) 1. 0
B1 B3+ 2 b 0.5 0 0.8982(8) 0.0046(9) 1. 0
B2 B3+ 4 d 0 0.2109(3) 0.3492(6) 0.0046(7) 1. 0
#End of TTdata_230749-ICSD