
#(C) 2019 by FIZ Karlsruhe - Leibniz Institute for Information Infrastructure.  All rights reserved.
data_230862-ICSD
_database_code_ICSD 230862
_audit_creation_date 2019-08-01
_chemical_name_systematic
'Sodium cerium titantate(IV) niobate(V) (0.628/0.372/0.8/0.2)'
_chemical_formula_structural '(Na0.628 Ce0.372) (Ti0.80 Nb0.20) O3'
_chemical_formula_sum 'Ce0.372 Na0.628 Nb0.2 O3 Ti0.8'
_chemical_name_mineral Ioparite
_exptl_crystal_density_diffrn 4.81
_cell_measurement_temperature 296.
_publ_section_title 'The crystal structure of loparite: a new acentric variety'
loop_
_citation_id
_citation_journal_full
_citation_year
_citation_journal_volume
_citation_page_first
_citation_page_last
_citation_journal_id_ASTM
primary 'Mineralogy and Petrology' 2017 111 827 832 MIPEE9
loop_
_publ_author_name
'Popova, Elena A.'
'Lushnikov, Sergey G.'
'Yakovenchuk, Victor N.'
'Krivovichev, Sergey V.'
_cell_length_a 5.5129(2)
_cell_length_b 5.5129(2)
_cell_length_c 7.7874(5)
_cell_angle_alpha 90.
_cell_angle_beta 90.
_cell_angle_gamma 90.
_cell_volume 236.68
_cell_formula_units_Z 4
_symmetry_space_group_name_H-M 'I m a 2'
_symmetry_Int_Tables_number 46
_refine_ls_R_factor_all 0.0576
loop_
_symmetry_equiv_pos_site_id
_symmetry_equiv_pos_as_xyz
1 'x+1/2, -y, z'
2 '-x+1/2, y, z'
3 '-x, -y, z'
4 'x, y, z'
5 'x, -y+1/2, z+1/2'
6 '-x, y+1/2, z+1/2'
7 '-x+1/2, -y+1/2, z+1/2'
8 'x+1/2, y+1/2, z+1/2'
loop_
_atom_type_symbol
_atom_type_oxidation_number
Na1+ 1
Ce3+ 3
Ti4+ 4.072
Nb5+ 5
O2- -2
loop_
_atom_site_label
_atom_site_type_symbol
_atom_site_symmetry_multiplicity
_atom_site_Wyckoff_symbol
_atom_site_fract_x
_atom_site_fract_y
_atom_site_fract_z
_atom_site_B_iso_or_equiv
_atom_site_occupancy
_atom_site_attached_hydrogens
Na1 Na1+ 4 b 0.75 0.2498(1) 0.1303(1) 0.0152(2) 0.628 0
Ce1 Ce3+ 4 b 0.75 0.2498(1) 0.1303(1) 0.0152(2) 0.372 0
Ti1 Ti4+ 4 b 0.75 -0.2502(2) 0.3795(2) 0.0121(2) 0.8 0
Nb1 Nb5+ 4 b 0.75 -0.2502(2) 0.3795(2) 0.0121(2) 0.2 0
O1 O2- 4 a 0 0 0.3568(14) 0.036(3) 1. 0
O2 O2- 4 b 0.75 -0.2979(8) 0.1402(13) 0.033(1) 1. 0
O3 O2- 4 a 0 0.5 0.4052(17) 0.055(4) 1. 0
loop_
_atom_site_aniso_label
_atom_site_aniso_type_symbol
_atom_site_aniso_U_11
_atom_site_aniso_U_22
_atom_site_aniso_U_33
_atom_site_aniso_U_12
_atom_site_aniso_U_13
_atom_site_aniso_U_23
Na1 Na1+ 0.017(1) 0.014(1) 0.0143(2) 0 0 0.0001(4)
Ce1 Ce3+ 0.017(1) 0.014(1) 0.0143(2) 0 0 0.0001(4)
Ti1 Ti4+ 0.012(1) 0.012(1) 0.0119(2) 0 0 0.0001(1)
Nb1 Nb5+ 0.012(1) 0.012(1) 0.0119(2) 0 0 0.0001(1)
O1 O2- 0.046(6) 0.035(4) 0.027(3) -0.024(4) 0 0
O2 O2- 0.057(3) 0.033(2) 0.011(2) 0 0 0.001(2)
O3 O2- 0.048(8) 0.055(7) 0.061(6) 0.048(6) 0 0
#End of TTdata_230862-ICSD