
#(C) 2019 by FIZ Karlsruhe - Leibniz Institute for Information Infrastructure.  All rights reserved.
data_23517-ICSD
_database_code_ICSD 23517
_audit_creation_date 1980-01-01
_audit_update_record 1988-01-25
_chemical_name_systematic 'Sodium phyllo-fluorotetraoxodivanadate - alpha'
_chemical_formula_structural 'Na V2 O4 F'
_chemical_formula_sum 'F1 Na1 O4 V2'
_chemical_name_structure_type CaV2O5
_exptl_crystal_density_diffrn 3.52
_publ_section_title

;
Les bronzes oxyfluores Nax V2 O5-y Fy. Structure cristalline de la phase
limite Na V2 O4 F alpha' (x=y=1)
;
loop_
_citation_id
_citation_journal_full
_citation_year
_citation_journal_volume
_citation_page_first
_citation_page_last
_citation_journal_id_ASTM
primary 'Bulletin de la Societe Francaise de Mineralogie et de Cristallographie'
1971 94 24 29 BUFCAE
loop_
_publ_author_name
'Varpy, A.'
'Galy, J.'
_cell_length_a 11.318(5)
_cell_length_b 3.609(2)
_cell_length_c 4.802(3)
_cell_angle_alpha 90.
_cell_angle_beta 90.
_cell_angle_gamma 90.
_cell_volume 196.15
_cell_formula_units_Z 2
_symmetry_space_group_name_H-M 'P m m n S'
_symmetry_Int_Tables_number 59
_refine_ls_R_factor_all 0.081
loop_
_symmetry_equiv_pos_site_id
_symmetry_equiv_pos_as_xyz
1 'x+1/2, -y+1/2, -z'
2 'x+1/2, y+1/2, -z'
3 'x, -y, z'
4 '-x, y, z'
5 '-x+1/2, y+1/2, -z'
6 '-x+1/2, -y+1/2, -z'
7 '-x, -y, z'
8 'x, y, z'
loop_
_atom_type_symbol
_atom_type_oxidation_number
Na1+ 1
V4+ 4
O2- -2
F1- -1
loop_
_atom_site_label
_atom_site_type_symbol
_atom_site_symmetry_multiplicity
_atom_site_Wyckoff_symbol
_atom_site_fract_x
_atom_site_fract_y
_atom_site_fract_z
_atom_site_B_iso_or_equiv
_atom_site_occupancy
_atom_site_attached_hydrogens
Na1 Na1+ 2 b 0.5 0 0.3543 1.22 1. 0
V1 V4+ 4 f 0.1521 0 0.1083 0.51 1. 0
O1 O2- 4 f 0.1321 0 0.4391 1.24 0.8 0
O2 O2- 4 f 0.3237 0 0.0141 1.12 0.8 0
O3 O2- 2 a 0 0 -.0211 1.33 0.8 0
F1 F1- 4 f 0.1321 0 0.4391 1.24 0.2 0
F2 F1- 4 f 0.3237 0 0.0141 1.12 0.2 0
F3 F1- 2 a 0 0 -.0211 1.33 0.2 0
#End of TTdata_23517-ICSD