
#(C) 2019 by FIZ Karlsruhe - Leibniz Institute for Information Infrastructure.  All rights reserved.
data_236875-ICSD
_database_code_ICSD 236875
_audit_creation_date 2014-08-01
_chemical_name_systematic 'Strontium sodium silicon oxide (0.8/0.2/1/2.87)'
_chemical_formula_structural '(Sr0.8 Na0.2) Si O2.87'
_chemical_formula_sum 'Na0.2 O2.87 Si1 Sr0.8'
_exptl_crystal_density_diffrn 3.35
_publ_section_title

;
Structural investigation of the oxide-ion electrolyte with SrMO3 (M = Si/Ge)
structure
;
loop_
_citation_id
_citation_journal_full
_citation_year
_citation_journal_volume
_citation_page_first
_citation_page_last
_citation_journal_id_ASTM
primary
'Journal of Materials Chemistry A: Materials for Energy and Sustainability' 2014 2 4355 4360 JMCAET
loop_
_publ_author_name
'Martinez-Coronado, R.'
'Singh, Preetam'
'Alonso-Alonso, J.'
'Goodenough, John B.'
_cell_length_a 12.3001(3)
_cell_length_b 7.1271(2)
_cell_length_c 10.8528(3)
_cell_angle_alpha 90
_cell_angle_beta 111.580(6)
_cell_angle_gamma 90
_cell_volume 884.71
_cell_formula_units_Z 12
_symmetry_space_group_name_H-M 'C 1 2/c 1'
_symmetry_Int_Tables_number 15
_refine_ls_R_factor_all 0.0232
loop_
_symmetry_equiv_pos_site_id
_symmetry_equiv_pos_as_xyz
1 'x, -y, z+1/2'
2 '-x, -y, -z'
3 '-x, y, -z+1/2'
4 'x, y, z'
5 'x+1/2, -y+1/2, z+1/2'
6 '-x+1/2, -y+1/2, -z'
7 '-x+1/2, y+1/2, -z+1/2'
8 'x+1/2, y+1/2, z'
loop_
_atom_type_symbol
_atom_type_oxidation_number
Sr2+ 2
Na1+ 1
Sr2+ 2
Na1+ 1
Si4+ 4
O2- -2
loop_
_atom_site_label
_atom_site_type_symbol
_atom_site_symmetry_multiplicity
_atom_site_Wyckoff_symbol
_atom_site_fract_x
_atom_site_fract_y
_atom_site_fract_z
_atom_site_B_iso_or_equiv
_atom_site_occupancy
_atom_site_attached_hydrogens
Sr1 Sr2+ 8 f 0.0860(3) 0.2420(4) 0.4996(4) 0.26(4) 0.81 0
Na1 Na1+ 8 f 0.0860(3) 0.2420(4) 0.4996(4) 0.26(4) 0.19 0
Sr2 Sr2+ 4 c 0.25 0.25 0 0.31(3) 0.77 0
Na2 Na1+ 4 c 0.25 0.25 0 0.31(3) 0.23 0
Si1 Si4+ 8 f 0.1249(5) 0.4556(6) 0.2464(4) 1.19(8) 1. 0
Si2 Si4+ 4 e 0 0.8304(7) 0.25 1.09(7) 1. 0
O1 O2- 8 f 0.1280(3) 0.4094(5) 0.1053(3) 0.37(7) 0.98 0
O2 O2- 8 f 0.2228(3) 0.4061(6) 0.3861(3) 0.50(6) 0.97 0
O3 O2- 8 f 0.1072(3) 0.6891(4) 0.2482(3) 0.32(5) 0.94 0
O4 O2- 8 f 0.0478(3) 0.9372(5) 0.3898(4) 0.60(4) 0.96 0
O5 O2- 4 e 0 0.3689(6) 0.25 0.33(2) 0.91 0
#End of TTdata_236875-ICSD