
#(C) 2019 by FIZ Karlsruhe - Leibniz Institute for Information Infrastructure.  All rights reserved.
data_237134-ICSD
_database_code_ICSD 237134
_audit_creation_date 2015-02-01
_chemical_name_systematic
'Sodium strontium barium aluminium fluoride (2/1/2/4/20)'
_chemical_formula_structural 'Na2 Sr Ba2 Al4 F20'
_chemical_formula_sum 'Al4 Ba2 F20 Na2 Sr1'
_chemical_name_mineral Bogvadite
_exptl_crystal_density_diffrn 3.9
_publ_section_title 'The crystal structure of bogvadite (Na2 Sr Ba2 Al4 F20)'
loop_
_citation_id
_citation_journal_full
_citation_year
_citation_journal_volume
_citation_page_first
_citation_page_last
_citation_journal_id_ASTM
primary 'Mineralogy and Petrology' 2014 108 479 486 MIPEE9
loop_
_publ_author_name
'Balic-Zunic, Tonci'
_cell_length_a 7.134(1)
_cell_length_b 19.996(3)
_cell_length_c 5.3440(8)
_cell_angle_alpha 90
_cell_angle_beta 90.02(1)
_cell_angle_gamma 90
_cell_volume 762.33
_cell_formula_units_Z 2
_symmetry_space_group_name_H-M 'P 1 21/n 1'
_symmetry_Int_Tables_number 14
_refine_ls_R_factor_all 0.0439
loop_
_symmetry_equiv_pos_site_id
_symmetry_equiv_pos_as_xyz
1 '-x+1/2, y+1/2, -z+1/2'
2 '-x, -y, -z'
3 'x+1/2, -y+1/2, z+1/2'
4 'x, y, z'
loop_
_atom_type_symbol
_atom_type_oxidation_number
Ba2+ 2
Sr2+ 2
Al3+ 3
Na1+ 1
F1- -1
loop_
_atom_site_label
_atom_site_type_symbol
_atom_site_symmetry_multiplicity
_atom_site_Wyckoff_symbol
_atom_site_fract_x
_atom_site_fract_y
_atom_site_fract_z
_atom_site_B_iso_or_equiv
_atom_site_occupancy
_atom_site_attached_hydrogens
Ba1 Ba2+ 4 e 0.98486(8) 0.22261(2) -0.0137(1) 0.0203(2) 1. 0
Sr1 Sr2+ 2 a 0 0 0 0.0238(3) 1. 0
Al1 Al3+ 4 e 0.4581(3) 0.1365(1) 0.0074(5) 0.0179(5) 1. 0
Al2 Al3+ 4 e 0.2733(4) 0.4002(1) 0.0133(8) 0.0165(5) 1. 0
Na1 Na1+ 4 e 0.7454(6) 0.4048(2) -0.008(1) 0.0311(9) 1. 0
F1 F1- 4 e 0.3010(7) 0.0647(2) 0.005(1) 0.032(1) 1. 0
F2 F1- 4 e 0.2628(7) 0.3126(2) 0.026(1) 0.030(1) 1. 0
F3 F1- 4 e 0.304(1) 0.1782(2) 0.2334(8) 0.019(1) 1. 0
F4 F1- 4 e 0.323(1) 0.1763(3) 0.7664(9) 0.025(1) 1. 0
F5 F1- 4 e 0.2074(8) -0.0110(2) 0.510(2) 0.038(1) 1. 0
F6 F1- 4 e 0.968(1) 0.1020(3) 0.726(1) 0.028(2) 1. 0
F7 F1- 4 e 0.946(1) 0.1042(3) 0.254(1) 0.028(2) 1. 0
F8 F1- 4 e 0.6126(7) 0.2064(2) 0.022(1) 0.024(1) 1. 0
F9 F1- 4 e 0.580(1) 0.0957(3) 0.278(1) 0.037(2) 1. 0
F10 F1- 4 e 0.604(1) 0.0910(3) 0.777(1) 0.041(2) 1. 0
#End of TTdata_237134-ICSD