
#(C) 2019 by FIZ Karlsruhe - Leibniz Institute for Information Infrastructure.  All rights reserved.
data_237307-ICSD
_database_code_ICSD 237307
_audit_creation_date 2015-02-01
_chemical_name_systematic 'Sodium dibarium tricopper pentasulfide'
_chemical_formula_structural 'Na Ba2 Cu3 S5'
_chemical_formula_sum 'Ba2 Cu3 Na1 S5'
_exptl_crystal_density_diffrn 4.64
_cell_measurement_temperature 150.
_publ_section_title 'Na Ba2 Cu3 S5: A doped p - type degenerate semiconductor'
loop_
_citation_id
_citation_journal_full
_citation_year
_citation_journal_volume
_citation_page_first
_citation_page_last
_citation_journal_id_ASTM
primary 'Inorganic Chemistry' 2013 52 7210 7217 INOCAJ
loop_
_publ_author_name
'Sturza, Mihai'
'Han, Fei'
'Shoemaker, Daniel P.'
'Malliakas, Christos D.'
'Chung, Duck Young'
'Jin, Hosub'
'Freeman, Arthur J.'
'Kanatzidis, Mercouri G.'
_cell_length_a 16.4865(11)
_cell_length_b 5.5188(3)
_cell_length_c 10.3300(7)
_cell_angle_alpha 90.
_cell_angle_beta 98.534(5)
_cell_angle_gamma 90.
_cell_volume 929.47
_cell_formula_units_Z 4
_symmetry_space_group_name_H-M 'C 1 2/m 1'
_symmetry_Int_Tables_number 12
_refine_ls_R_factor_all 0.0305
loop_
_symmetry_equiv_pos_site_id
_symmetry_equiv_pos_as_xyz
1 '-x, y, -z'
2 '-x, -y, -z'
3 'x, -y, z'
4 'x, y, z'
5 '-x+1/2, y+1/2, -z'
6 '-x+1/2, -y+1/2, -z'
7 'x+1/2, -y+1/2, z'
8 'x+1/2, y+1/2, z'
loop_
_atom_type_symbol
_atom_type_oxidation_number
Ba2+ 2
Cu1+ 1.67
S2- -2
Na1+ 1
loop_
_atom_site_label
_atom_site_type_symbol
_atom_site_symmetry_multiplicity
_atom_site_Wyckoff_symbol
_atom_site_fract_x
_atom_site_fract_y
_atom_site_fract_z
_atom_site_B_iso_or_equiv
_atom_site_occupancy
_atom_site_attached_hydrogens
Ba1 Ba2+ 4 i 0.763609(19) 0. 0.30234(3) 0.00723(12) 1 0
Ba2 Ba2+ 4 i 0.957839(19) -0.5 0.29058(3) 0.00769(12) 1 0
Cu1 Cu1+ 4 g 0.5 -0.26169(15) 0. 0.00954(17) 1 0
Cu2 Cu1+ 8 j 0.66882(3) -0.25590(11) -0.00965(5) 0.00983(14) 1 0
S1 S2- 8 j 0.62408(6) 0.1914(2) 0.47010(10) 0.0097(2) 1 0
S2 S2- 4 i 0.59761(8) 0. 0.12157(15) 0.0057(3) 1 0
S3 S2- 4 i 0.57006(8) -0.5 -0.14857(15) 0.0067(3) 1 0
S4 S2- 4 i 0.76120(8) -0.5 0.14709(14) 0.0067(3) 1 0
Na1 Na1+ 4 i 0.60577(15) -0.5 0.2363(3) 0.0112(5) 1 0
loop_
_atom_site_aniso_label
_atom_site_aniso_type_symbol
_atom_site_aniso_U_11
_atom_site_aniso_U_22
_atom_site_aniso_U_33
_atom_site_aniso_U_12
_atom_site_aniso_U_13
_atom_site_aniso_U_23
Ba1 Ba2+ 0.00434(18) 0.00624(19) 0.01108(19) 0. 0.00109(13) 0.
Ba2 Ba2+ 0.00529(18) 0.00680(19) 0.01135(19) 0. 0.00248(13) 0.
Cu1 Cu1+ 0.0073(3) 0.0080(4) 0.0131(3) 0. 0.0009(3) 0.
Cu2 Cu1+ 0.0073(2) 0.0089(3) 0.0137(3) -0.00034(19) 0.0027(2) -0.0009(2)
S1 S2- 0.0085(4) 0.0093(5) 0.0113(4) -0.0020(4) 0.0017(3) -0.0008(4)
S2 S2- 0.0024(5) 0.0056(6) 0.0093(6) 0. 0.0015(4) 0.
S3 S2- 0.0039(5) 0.0053(6) 0.0112(6) 0. 0.0019(5) 0.
S4 S2- 0.0038(5) 0.0049(6) 0.0115(6) 0. 0.0018(5) 0.
Na1 Na1+ 0.0058(10) 0.0129(12) 0.0155(12) 0. 0.0038(9) 0.
#End of TTdata_237307-ICSD