
#(C) 2019 by FIZ Karlsruhe - Leibniz Institute for Information Infrastructure.  All rights reserved.
data_237462-ICSD
_database_code_ICSD 237462
_audit_creation_date 2015-02-01
_chemical_name_systematic 'Sodium trigallium bis(selenate(VI)) hexahydroxide'
_chemical_formula_structural 'Na Ga3 (Se O4)2 (O H)6'
_chemical_formula_sum 'H6 Ga3 Na1 O14 Se2'
_chemical_name_structure_type KAl3(SO4)2(OH)6
_exptl_crystal_density_diffrn 3.95
_cell_measurement_temperature 298.
_publ_section_title

;
From an open framework to a layered and a hexagonal tungsten oxide structure:
Controlled transformation reactions of an extended solid-state material, Cs3
Ga7 (Se O3)12 to Ga (O H) (Se O3) and K Ga3 (Se O4)2 (O H)6
;
loop_
_citation_id
_citation_journal_full
_citation_year
_citation_journal_volume
_citation_page_first
_citation_page_last
_citation_journal_id_ASTM
primary 'Inorganic Chemistry' 2013 52 12726 12730 INOCAJ
loop_
_publ_author_name
'Ahn, Hyun Sun'
'Lee, Dong Woo'
'Ok, Kang Min'
_cell_length_a 7.2325(10)
_cell_length_b 7.2325(10)
_cell_length_c 17.262(2)
_cell_angle_alpha 90
_cell_angle_beta 90
_cell_angle_gamma 120
_cell_volume 781.98
_cell_formula_units_Z 3
_symmetry_space_group_name_H-M 'R -3 m H'
_symmetry_Int_Tables_number 166
_refine_ls_R_factor_all 0.015
loop_
_symmetry_equiv_pos_site_id
_symmetry_equiv_pos_as_xyz
1 'x-y, -y, -z'
2 '-x, -x+y, -z'
3 'y, x, -z'
4 'x-y, x, -z'
5 'y, -x+y, -z'
6 '-x, -y, -z'
7 '-x+y, y, z'
8 'x, x-y, z'
9 '-y, -x, z'
10 '-x+y, -x, z'
11 '-y, x-y, z'
12 'x, y, z'
13 'x-y+2/3, -y+1/3, -z+1/3'
14 '-x+2/3, -x+y+1/3, -z+1/3'
15 'y+2/3, x+1/3, -z+1/3'
16 'x-y+2/3, x+1/3, -z+1/3'
17 'y+2/3, -x+y+1/3, -z+1/3'
18 '-x+2/3, -y+1/3, -z+1/3'
19 '-x+y+2/3, y+1/3, z+1/3'
20 'x+2/3, x-y+1/3, z+1/3'
21 '-y+2/3, -x+1/3, z+1/3'
22 '-x+y+2/3, -x+1/3, z+1/3'
23 '-y+2/3, x-y+1/3, z+1/3'
24 'x+2/3, y+1/3, z+1/3'
25 'x-y+1/3, -y+2/3, -z+2/3'
26 '-x+1/3, -x+y+2/3, -z+2/3'
27 'y+1/3, x+2/3, -z+2/3'
28 'x-y+1/3, x+2/3, -z+2/3'
29 'y+1/3, -x+y+2/3, -z+2/3'
30 '-x+1/3, -y+2/3, -z+2/3'
31 '-x+y+1/3, y+2/3, z+2/3'
32 'x+1/3, x-y+2/3, z+2/3'
33 '-y+1/3, -x+2/3, z+2/3'
34 '-x+y+1/3, -x+2/3, z+2/3'
35 '-y+1/3, x-y+2/3, z+2/3'
36 'x+1/3, y+2/3, z+2/3'
loop_
_atom_type_symbol
_atom_type_oxidation_number
Se6+ 6
Ga3+ 3
Na1+ 1
O2- -2
H1+ 1
loop_
_atom_site_label
_atom_site_type_symbol
_atom_site_symmetry_multiplicity
_atom_site_Wyckoff_symbol
_atom_site_fract_x
_atom_site_fract_y
_atom_site_fract_z
_atom_site_B_iso_or_equiv
_atom_site_occupancy
_atom_site_attached_hydrogens
Se1 Se6+ 6 c 0.6667 0.3333 0.02103(3) 0.00755(15) 1 0
Ga1 Ga3+ 9 d 0.8333 0.6667 0.1667 0.00772(15) 1 0
Na1 Na1+ 3 a 1 1 0 0.0488(12) 1 0
O1 O2- 18 h 0.79036(17) 0.5807(3) 0.05295(11) 0.0119(5) 1 0
O2 O2- 18 h 1.12427(18) 0.87573(18) 0.13967(13) 0.0108(4) 1 0
O3 O2- 6 c 0.6667 0.3333 -0.0728(2) 0.0138(9) 1 0
H1 H1+ 18 h 1.173(2) 0.827(2) 0.1162(19) 0.012(10) 1 0
loop_
_atom_site_aniso_label
_atom_site_aniso_type_symbol
_atom_site_aniso_U_11
_atom_site_aniso_U_22
_atom_site_aniso_U_33
_atom_site_aniso_U_12
_atom_site_aniso_U_13
_atom_site_aniso_U_23
Se1 Se6+ 0.00848(19) 0.00848(19) 0.0057(2) 0.00424(10) 0 0
Ga1 Ga3+ 0.0073(2) 0.0059(3) 0.0095(2) 0.00297(13) 0.00001(9) 0.00001(17)
Na1 Na1+ 0.0554(19) 0.0554(19) 0.036(2) 0.0277(9) 0 0
O1 O2- 0.0154(9) 0.0077(11) 0.0099(10) 0.0039(5) -0.0009(4) -0.0019(8)
O2 O2- 0.0073(8) 0.0073(8) 0.0170(11) 0.0029(9) 0.0026(5) -0.0026(5)
O3 O2- 0.0180(14) 0.0180(14) 0.0054(18) 0.0090(7) 0 0
#End of TTdata_237462-ICSD