
#(C) 2019 by FIZ Karlsruhe - Leibniz Institute for Information Infrastructure.  All rights reserved.
data_237540-ICSD
_database_code_ICSD 237540
_audit_creation_date 2015-02-01
_chemical_name_systematic 'Hexasodium (hexatungstate(VI)) bis(selenate(IV))'
_chemical_formula_structural 'Na6 (W6 O19) (Se O3)2'
_chemical_formula_sum 'Na6 O25 Se2 W6'
_exptl_crystal_density_diffrn 5.84
_cell_measurement_temperature 298.
_publ_section_title

;
Synthesis, structure, and characterization of two new polar sodium tungsten
selenites: Na2 (W O3)3 (Se O3) * 2 H2 O and Na6 (W6 O19) (Se O3)2
;
loop_
_citation_id
_citation_journal_full
_citation_year
_citation_journal_volume
_citation_page_first
_citation_page_last
_citation_journal_id_ASTM
primary 'Inorganic Chemistry' 2013 52 2637 2647 INOCAJ
loop_
_publ_author_name
'Nguyen, Sau Doan'
'Halasyamani, P.Shiv'
_cell_length_a 42.169(8)
_cell_length_b 7.2690(15)
_cell_length_c 6.7494(13)
_cell_angle_alpha 90
_cell_angle_beta 98.48(3)
_cell_angle_gamma 90
_cell_volume 2046.25
_cell_formula_units_Z 4
_symmetry_space_group_name_H-M 'C 1 2 1'
_symmetry_Int_Tables_number 5
_refine_ls_R_factor_all 0.032
loop_
_symmetry_equiv_pos_site_id
_symmetry_equiv_pos_as_xyz
1 '-x, y, -z'
2 'x, y, z'
3 '-x+1/2, y+1/2, -z'
4 'x+1/2, y+1/2, z'
loop_
_atom_type_symbol
_atom_type_oxidation_number
Na1+ 1
W6+ 6
Se4+ 4
O2- -2
loop_
_atom_site_label
_atom_site_type_symbol
_atom_site_symmetry_multiplicity
_atom_site_Wyckoff_symbol
_atom_site_fract_x
_atom_site_fract_y
_atom_site_fract_z
_atom_site_B_iso_or_equiv
_atom_site_occupancy
_atom_site_attached_hydrogens
Na1 Na1+ 4 c 0.11614(13) 0.1185(12) -0.4944(9) 0.0157(12) 1 0
Na2 Na1+ 4 c -0.03776(13) 1.1222(13) 0.2313(10) 0.0216(13) 1 0
Na3 Na1+ 4 c 0.03601(16) 0.6181(14) 0.8199(10) 0.0284(14) 1 0
Na4 Na1+ 4 c 0.17866(13) 0.1111(16) 0.2622(10) 0.0178(14) 1 0
Na5 Na1+ 4 c 0.25242(15) 0.5619(10) -0.0501(10) 0.0208(15) 1 0
Na6 Na1+ 4 c 0.18153(15) -0.1610(11) 0.7586(10) 0.0241(15) 1 0
W1 W6+ 4 c 0.108082(12) 0.35781(7) 0.03114(8) 0.00725(14) 1 0
W2 W6+ 4 c 0.045284(12) 0.37074(7) 0.30415(7) 0.00804(13) 1 0
W3 W6+ 4 c 0.107719(13) 0.87310(7) 0.02769(8) 0.00740(14) 1 0
W4 W6+ 4 c 0.045393(12) 0.87045(7) 0.30436(7) 0.00828(13) 1 0
W5 W6+ 4 c 0.181410(11) 0.61829(12) 0.22714(9) 0.00806(13) 1 0
W6 W6+ 4 c 0.251575(14) 0.84464(10) 0.53110(9) 0.00939(13) 1 0
Se1 Se4+ 4 c 0.11394(3) 0.6203(3) 0.50180(19) 0.0077(2) 1 0
Se2 Se4+ 4 c 0.18933(3) 0.2638(2) 0.7688(2) 0.0112(3) 1 0
O1 O2- 4 c 0.1118(3) 0.3056(13) -0.2103(14) 0.014(2) 1 0
O2 O2- 4 c 0.0646(2) 0.3236(14) 0.0336(14) 0.011(2) 1 0
O3 O2- 4 c 0.10164(18) 0.6198(15) -0.0141(13) 0.0089(16) 1 0
O4 O2- 4 c 0.11957(19) 0.1163(15) 0.1442(12) 0.0089(16) 1 0
O5 O2- 4 c 0.1521(2) 0.4346(12) 0.1398(14) 0.010(2) 1 0
O6 O2- 4 c 0.1010(2) 0.4326(12) 0.3488(14) 0.010(2) 1 0
O7 O2- 4 c 0.06012(19) 0.1205(15) 0.3516(13) 0.0117(17) 1 0
O8 O2- 4 c 0.2394(2) 0.8699(15) 0.7647(13) 0.014(2) 1 0
O9 O2- 4 c 0.04357(19) 0.6199(16) 0.2031(14) 0.0120(17) 1 0
O10 O2- 4 c 0.0055(2) 0.3225(16) 0.2220(15) 0.018(2) 1 0
O11 O2- 4 c 0.1005(2) 0.8057(12) 0.3468(15) 0.011(2) 1 0
O12 O2- 4 c 0.20185(19) 0.6201(17) 0.0230(14) 0.0118(17) 1 0
O13 O2- 4 c 0.0054(3) 0.9210(15) 0.2234(16) 0.018(2) 1 0
O14 O2- 4 c 0.15364(19) 0.6278(16) 0.4974(13) 0.0112(17) 1 0
O15 O2- 4 c 0.0649(2) 0.9154(13) 0.0273(13) 0.010(2) 1 0
O16 O2- 4 c 0.1137(3) 0.9291(14) -0.2123(15) 0.016(2) 1 0
O17 O2- 4 c 0.0473(3) 0.8162(14) 0.5555(15) 0.017(2) 1 0
O18 O2- 4 c 0.1734(2) 0.1241(17) 0.5863(14) 0.0156(19) 1 0
O19 O2- 4 c 0.0469(3) 0.4257(15) 0.5583(15) 0.017(2) 1 0
O20 O2- 4 c 0.2938(2) 0.9235(14) 0.6222(14) 0.013(2) 1 0
O21 O2- 4 c 0.2588(2) 0.5850(13) 0.5753(15) 0.013(2) 1 0
O22 O2- 4 c 0.1521(2) 0.8057(12) 0.1382(14) 0.010(2) 1 0
O23 O2- 4 c 0.1951(2) 0.1205(18) 0.9620(14) 0.0157(19) 1 0
O24 O2- 4 c 0.2091(2) 0.7808(14) 0.3922(15) 0.012(2) 1 0
O25 O2- 4 c 0.2300(2) 0.2882(14) 0.7385(15) 0.015(2) 1 0
loop_
_atom_site_aniso_label
_atom_site_aniso_type_symbol
_atom_site_aniso_U_11
_atom_site_aniso_U_22
_atom_site_aniso_U_33
_atom_site_aniso_U_12
_atom_site_aniso_U_13
_atom_site_aniso_U_23
Na1 Na1+ 0.016(3) 0.015(3) 0.015(3) 0.003(3) 0.002(2) -0.002(3)
Na2 Na1+ 0.015(3) 0.021(3) 0.026(3) -0.003(3) -0.003(2) 0.006(4)
Na3 Na1+ 0.037(3) 0.028(3) 0.022(3) -0.002(4) 0.011(3) 0.002(4)
Na4 Na1+ 0.014(3) 0.029(4) 0.010(3) -0.008(3) 0.001(2) 0.004(3)
Na5 Na1+ 0.014(3) 0.030(4) 0.018(4) -0.004(2) 0.001(2) 0.000(3)
Na6 Na1+ 0.024(3) 0.014(3) 0.033(4) -0.006(3) -0.001(3) 0.001(3)
W1 W6+ 0.0086(3) 0.0078(3) 0.0054(2) -0.0006(2) 0.00108(18) -0.0006(2)
W2 W6+ 0.0088(3) 0.0075(3) 0.0082(2) 0.0000(2) 0.00245(17) 0.0000(2)
W3 W6+ 0.0086(3) 0.0081(3) 0.0056(2) 0.0006(2) 0.00117(18) 0.0006(2)
W4 W6+ 0.0091(3) 0.0079(3) 0.0081(2) 0.0004(2) 0.00233(17) -0.0001(2)
W5 W6+ 0.0070(2) 0.0096(3) 0.0074(3) -0.0005(2) 0.00024(18) -0.0002(2)
W6 W6+ 0.0090(2) 0.0103(3) 0.0090(3) -0.0007(2) 0.00170(18) -0.0021(3)
Se1 Se4+ 0.0098(5) 0.0073(5) 0.0057(6) -0.0002(7) -0.0001(4) -0.0003(7)
Se2 Se4+ 0.0103(6) 0.0129(7) 0.0106(6) -0.0001(5) 0.0022(5) 0.0005(5)
O1 O2- 0.026(6) 0.016(6) 0.002(4) 0.001(4) 0.003(4) 0.002(3)
O2 O2- 0.005(4) 0.012(5) 0.015(5) 0.004(4) -0.001(3) -0.001(4)
O3 O2- 0.010(4) 0.007(4) 0.009(4) 0.000(4) 0.000(3) 0.001(4)
O4 O2- 0.017(4) 0.004(4) 0.006(4) -0.001(4) 0.003(3) -0.003(4)
O5 O2- 0.011(5) 0.009(5) 0.011(5) 0.003(4) 0.005(4) 0.001(3)
O6 O2- 0.005(5) 0.008(5) 0.015(5) -0.003(3) 0.001(4) -0.007(4)
O7 O2- 0.014(4) 0.006(4) 0.016(5) -0.002(5) 0.007(3) 0.001(4)
O8 O2- 0.007(4) 0.021(6) 0.015(5) 0.004(4) 0.005(3) 0.010(5)
O9 O2- 0.011(4) 0.008(4) 0.017(5) -0.003(4) 0.001(3) 0.000(4)
O10 O2- 0.009(5) 0.022(6) 0.022(5) -0.001(4) 0.002(4) 0.003(4)
O11 O2- 0.013(5) 0.008(6) 0.013(5) 0.005(4) 0.003(4) 0.005(4)
O12 O2- 0.011(4) 0.015(4) 0.010(5) 0.001(5) 0.003(3) -0.004(4)
O13 O2- 0.019(6) 0.014(6) 0.023(6) 0.002(4) 0.006(4) 0.004(4)
O14 O2- 0.008(4) 0.014(4) 0.010(4) 0.007(4) -0.001(3) 0.001(4)
O15 O2- 0.008(5) 0.010(5) 0.011(4) 0.002(4) 0.000(3) 0.000(4)
O16 O2- 0.019(6) 0.015(6) 0.016(5) 0.000(4) 0.005(4) 0.003(4)
O17 O2- 0.021(6) 0.013(6) 0.017(5) -0.002(4) 0.007(4) 0.000(4)
O18 O2- 0.020(5) 0.021(5) 0.005(4) 0.001(5) -0.002(3) 0.001(5)
O19 O2- 0.020(6) 0.021(6) 0.010(5) -0.003(4) 0.002(4) -0.002(4)
O20 O2- 0.006(5) 0.020(6) 0.012(5) -0.001(4) -0.002(4) -0.005(4)
O21 O2- 0.011(4) 0.007(5) 0.019(5) -0.001(3) -0.001(4) -0.006(4)
O22 O2- 0.011(5) 0.007(5) 0.011(5) -0.006(3) 0.004(4) -0.001(3)
O23 O2- 0.016(4) 0.025(5) 0.008(5) 0.007(5) 0.006(4) 0.012(5)
O24 O2- 0.007(5) 0.013(5) 0.013(5) -0.003(3) -0.005(4) 0.000(4)
O25 O2- 0.008(5) 0.021(6) 0.015(5) -0.003(4) -0.003(4) -0.001(4)
#End of TTdata_237540-ICSD