
#(C) 2019 by FIZ Karlsruhe - Leibniz Institute for Information Infrastructure.  All rights reserved.
data_237689-ICSD
_database_code_ICSD 237689
_audit_creation_date 2015-02-01
_chemical_name_systematic 'Sodium bis(fluorosulfonyl)amides'
_chemical_formula_structural 'Na (N (S O2 F)2)'
_chemical_formula_sum 'F2 N1 Na1 O4 S2'
_exptl_crystal_density_diffrn 2.36
_cell_measurement_temperature 113.
_publ_section_title

;
Polymorphism of alkali bis(fluorosulfonyl)amides (M [N (S O2 F)2], M = Na, K,
and Cs)
;
loop_
_citation_id
_citation_journal_full
_citation_year
_citation_journal_volume
_citation_page_first
_citation_page_last
_citation_journal_id_ASTM
primary 'Inorganic Chemistry' 2013 52 568 576 INOCAJ
loop_
_publ_author_name
'Matsumoto, Kazuhiko'
'Oka, Takaaki'
'Nohira, Toshiyuki'
'Hagiwara, Rika'
_cell_length_a 9.3056(9)
_cell_length_b 11.9158(8)
_cell_length_c 10.4106(8)
_cell_angle_alpha 90.
_cell_angle_beta 98.457(3)
_cell_angle_gamma 90.
_cell_volume 1141.81
_cell_formula_units_Z 8
_symmetry_space_group_name_H-M 'P 1 21/n 1'
_symmetry_Int_Tables_number 14
_refine_ls_R_factor_all 0.0432
loop_
_symmetry_equiv_pos_site_id
_symmetry_equiv_pos_as_xyz
1 '-x+1/2, y+1/2, -z+1/2'
2 '-x, -y, -z'
3 'x+1/2, -y+1/2, z+1/2'
4 'x, y, z'
loop_
_atom_type_symbol
_atom_type_oxidation_number
S6+ 6
Na1+ 1
F1- -1
O2- -2
N3- -3
loop_
_atom_site_label
_atom_site_type_symbol
_atom_site_symmetry_multiplicity
_atom_site_Wyckoff_symbol
_atom_site_fract_x
_atom_site_fract_y
_atom_site_fract_z
_atom_site_B_iso_or_equiv
_atom_site_occupancy
_atom_site_attached_hydrogens
S1 S6+ 4 e 0.12202(9) -0.36522(6) 0.67634(8) 0.01322(19) 1 0
S2 S6+ 4 e 0.15716(9) -0.14478(6) 1.03929(8) 0.01374(19) 1 0
S3 S6+ 4 e 0.20501(9) -0.35551(7) 1.14772(8) 0.0163(2) 1 0
S4 S6+ 4 e 0.14004(9) -0.18084(7) 0.52310(8) 0.01418(19) 1 0
Na1 Na1+ 4 e 0.04461(14) 0.01217(10) 0.75230(12) 0.0147(3) 1 0
Na2 Na1+ 4 e 0.39196(15) -0.17283(11) 0.82963(13) 0.0173(3) 1 0
F1 F1- 4 e 0.0284(2) -0.30863(17) 0.76987(19) 0.0190(4) 1 0
F2 F1- 4 e 0.2646(2) -0.08012(19) 1.1427(2) 0.0287(5) 1 0
F3 F1- 4 e 0.1314(3) -0.4500(2) 1.0599(3) 0.0382(6) 1 0
F4 F1- 4 e 0.2848(2) -0.20597(18) 0.4721(2) 0.0225(5) 1 0
O1 O2- 4 e 0.2686(3) -0.34558(19) 0.7369(2) 0.0167(5) 1 0
O2 O2- 4 e 0.1830(3) -0.11568(19) 0.6379(2) 0.0179(5) 1 0
O3 O2- 4 e 0.0206(3) -0.1304(2) 1.0815(3) 0.0206(5) 1 0
O4 O2- 4 e 0.0492(3) -0.1305(2) 0.4173(2) 0.0225(6) 1 0
O5 O2- 4 e 0.1059(3) -0.3290(2) 1.2338(3) 0.0258(6) 1 0
O6 O2- 4 e 0.3423(3) -0.4000(2) 1.1994(3) 0.0302(6) 1 0
O7 O2- 4 e 0.0716(3) -0.47729(19) 0.6621(3) 0.0209(5) 1 0
O8 O2- 4 e 0.1794(3) -0.0954(2) 0.9186(2) 0.0227(6) 1 0
N1 N3- 4 e 0.0767(3) -0.3008(2) 0.5446(3) 0.0162(6) 1 0
N2 N3- 4 e 0.2232(3) -0.2647(2) 1.0424(3) 0.0200(6) 1 0
loop_
_atom_site_aniso_label
_atom_site_aniso_type_symbol
_atom_site_aniso_U_11
_atom_site_aniso_U_22
_atom_site_aniso_U_33
_atom_site_aniso_U_12
_atom_site_aniso_U_13
_atom_site_aniso_U_23
S1 S6+ 0.0145(4) 0.0116(4) 0.0128(4) 0.0014(3) -0.0004(3) 0.0004(3)
S2 S6+ 0.0151(4) 0.0146(4) 0.0112(4) 0.0012(3) 0.0009(3) 0.0005(3)
S3 S6+ 0.0176(4) 0.0124(4) 0.0182(4) -0.0001(3) -0.0002(3) 0.0003(3)
S4 S6+ 0.0171(4) 0.0137(4) 0.0107(4) 0.0017(3) -0.0013(3) 0.0013(3)
Na1 Na1+ 0.0173(7) 0.0129(6) 0.0130(6) -0.0005(5) -0.0005(5) 0.0004(5)
Na2 Na1+ 0.0176(7) 0.0155(6) 0.0179(7) 0.0010(5) -0.0004(5) -0.0014(5)
F1 F1- 0.0187(10) 0.0226(10) 0.0162(10) 0.0030(8) 0.0041(8) -0.0013(8)
F2 F1- 0.0263(12) 0.0321(12) 0.0254(12) -0.0055(9) -0.0034(9) -0.0095(9)
F3 F1- 0.0452(16) 0.0248(12) 0.0426(15) -0.0121(11) 0.0002(12) -0.0127(10)
F4 F1- 0.0197(11) 0.0270(11) 0.0214(11) 0.0006(8) 0.0050(9) -0.0008(8)
O1 O2- 0.0160(12) 0.0151(11) 0.0175(12) 0.0012(9) -0.0022(10) 0.0011(9)
O2 O2- 0.0238(13) 0.0143(11) 0.0149(12) -0.0018(9) 0.0000(10) -0.0012(9)
O3 O2- 0.0202(13) 0.0195(12) 0.0225(13) 0.0032(9) 0.0049(10) -0.0003(9)
O4 O2- 0.0265(14) 0.0241(13) 0.0151(13) 0.0049(10) -0.0030(11) 0.0061(9)
O5 O2- 0.0304(15) 0.0238(13) 0.0250(14) 0.0026(11) 0.0104(12) 0.0082(10)
O6 O2- 0.0236(15) 0.0266(14) 0.0395(17) 0.0078(11) 0.0013(12) 0.0134(12)
O7 O2- 0.0223(13) 0.0135(12) 0.0262(14) -0.0008(9) 0.0009(11) 0.0010(9)
O8 O2- 0.0289(15) 0.0239(13) 0.0159(13) 0.0034(11) 0.0050(11) 0.0081(9)
N1 N3- 0.0204(15) 0.0145(13) 0.0117(14) -0.0019(11) -0.0040(11) 0.0014(10)
N2 N3- 0.0269(17) 0.0196(14) 0.0147(15) 0.0085(12) 0.0070(12) 0.0029(11)
#End of TTdata_237689-ICSD