
#(C) 2019 by FIZ Karlsruhe - Leibniz Institute for Information Infrastructure.  All rights reserved.
data_237691-ICSD
_database_code_ICSD 237691
_audit_creation_date 2015-02-01
_chemical_name_systematic 'Sodium bis(fluorosulfonyl)amides'
_chemical_formula_structural 'Na (N (S O2 F)2)'
_chemical_formula_sum 'F2 N1 Na1 O4 S2'
_exptl_crystal_density_diffrn 2.37
_cell_measurement_temperature 113.
_publ_section_title

;
Polymorphism of alkali bis(fluorosulfonyl)amides (M [N (S O2 F)2], M = Na, K,
and Cs)
;
loop_
_citation_id
_citation_journal_full
_citation_year
_citation_journal_volume
_citation_page_first
_citation_page_last
_citation_journal_id_ASTM
primary 'Inorganic Chemistry' 2013 52 568 576 INOCAJ
loop_
_publ_author_name
'Matsumoto, Kazuhiko'
'Oka, Takaaki'
'Nohira, Toshiyuki'
'Hagiwara, Rika'
_cell_length_a 9.8209(5)
_cell_length_b 9.1050(4)
_cell_length_c 7.3238(4)
_cell_angle_alpha 90.
_cell_angle_beta 119.814(3)
_cell_angle_gamma 90.
_cell_volume 568.21
_cell_formula_units_Z 4
_symmetry_space_group_name_H-M 'P 1 21/n 1'
_symmetry_Int_Tables_number 14
_refine_ls_R_factor_all 0.0275
loop_
_symmetry_equiv_pos_site_id
_symmetry_equiv_pos_as_xyz
1 '-x+1/2, y+1/2, -z+1/2'
2 '-x, -y, -z'
3 'x+1/2, -y+1/2, z+1/2'
4 'x, y, z'
loop_
_atom_type_symbol
_atom_type_oxidation_number
S6+ 6
F1- -1
O2- -2
N3- -3
Na1+ 1
loop_
_atom_site_label
_atom_site_type_symbol
_atom_site_symmetry_multiplicity
_atom_site_Wyckoff_symbol
_atom_site_fract_x
_atom_site_fract_y
_atom_site_fract_z
_atom_site_B_iso_or_equiv
_atom_site_occupancy
_atom_site_attached_hydrogens
S1 S6+ 4 e 0.10743(4) 0.77666(4) -0.01993(6) 0.01337(14) 1 0
S2 S6+ 4 e 0.23060(4) 0.77870(4) -0.28852(6) 0.01334(14) 1 0
F1 F1- 4 e -0.03072(11) 0.88283(10) -0.15396(15) 0.0203(2) 1 0
F2 F1- 4 e 0.11320(11) 0.89652(11) -0.43789(15) 0.0229(2) 1 0
O1 O2- 4 e 0.22805(13) 0.86844(13) 0.13119(17) 0.0184(2) 1 0
O2 O2- 4 e 0.36520(12) 0.86290(12) -0.14583(17) 0.0165(2) 1 0
O3 O2- 4 e 0.04206(13) 0.66577(13) 0.05042(18) 0.0200(3) 1 0
O4 O2- 4 e 0.24692(13) 0.67605(13) -0.42216(18) 0.0203(3) 1 0
N1 N3- 4 e 0.13956(16) 0.70227(14) -0.1889(2) 0.0150(3) 1 0
Na1 Na1+ 4 e 0.43554(7) 1.01293(6) 0.18531(9) 0.01539(17) 1 0
loop_
_atom_site_aniso_label
_atom_site_aniso_type_symbol
_atom_site_aniso_U_11
_atom_site_aniso_U_22
_atom_site_aniso_U_33
_atom_site_aniso_U_12
_atom_site_aniso_U_13
_atom_site_aniso_U_23
S1 S6+ 0.0126(2) 0.0128(2) 0.0135(2) -0.00077(12) 0.00552(16) 0.00014(12)
S2 S6+ 0.0128(2) 0.0129(2) 0.0130(2) -0.00104(12) 0.00537(16) -0.00071(12)
F1 F1- 0.0179(5) 0.0183(5) 0.0216(5) 0.0052(4) 0.0075(4) 0.0018(4)
F2 F1- 0.0201(5) 0.0218(5) 0.0210(5) 0.0036(4) 0.0058(4) 0.0079(4)
O1 O2- 0.0172(5) 0.0211(6) 0.0161(5) -0.0050(4) 0.0075(4) -0.0050(4)
O2 O2- 0.0148(5) 0.0175(5) 0.0162(5) -0.0040(4) 0.0070(4) -0.0030(4)
O3 O2- 0.0205(6) 0.0200(6) 0.0205(6) -0.0040(4) 0.0110(5) 0.0023(4)
O4 O2- 0.0219(6) 0.0211(6) 0.0202(6) -0.0040(4) 0.0120(5) -0.0064(4)
N1 N3- 0.0166(6) 0.0132(6) 0.0168(6) -0.0028(5) 0.0096(5) -0.0022(5)
Na1 Na1+ 0.0152(3) 0.0146(3) 0.0161(3) -0.0008(2) 0.0076(2) -0.0006(2)
#End of TTdata_237691-ICSD