
#(C) 2019 by FIZ Karlsruhe - Leibniz Institute for Information Infrastructure.  All rights reserved.
data_237764-ICSD
_database_code_ICSD 237764
_audit_creation_date 2015-08-01
_chemical_name_systematic 'Disodium tetraberyllium tetraborate'
_chemical_formula_structural 'Na2 Be4 B4 O11'
_chemical_formula_sum 'B4 Be4 Na2 O11'
_exptl_crystal_density_diffrn 2.48
_cell_measurement_temperature 153.15
_publ_section_title

;
Deep-ultraviolet nonlinear optical materials: Na2 Be4 B4 O11 and Li Na5 Be12
B12 O33
;
loop_
_citation_id
_citation_journal_full
_citation_year
_citation_journal_volume
_citation_page_first
_citation_page_last
_citation_journal_id_ASTM
primary 'Journal of the American Chemical Society' 2013 135 18319 18322 JACSAT
loop_
_publ_author_name
'Huang, Hongwei'
'Liu, Lijuan'
'Jin, Shifeng'
'Yao, Wenjiao'
'Zhang, Yihe'
'Chen, Chuangtian'
_cell_length_a 8.8444(16)
_cell_length_b 15.2496(24)
_cell_length_c 12.7402(23)
_cell_angle_alpha 89.935(19)
_cell_angle_beta 110.3497(30)
_cell_angle_gamma 89.9883(26)
_cell_volume 1611.07
_cell_formula_units_Z 8
_symmetry_space_group_name_H-M 'P 1'
_symmetry_Int_Tables_number 1
_refine_ls_R_factor_all 0.0349
loop_
_symmetry_equiv_pos_site_id
_symmetry_equiv_pos_as_xyz
1 'x, y, z'
loop_
_atom_type_symbol
_atom_type_oxidation_number
Na1+ 1
O2- -2
B3+ 3
Be2+ 2
B3+ 3
Be2+ 2
B3+ 3
Be2+ 2
B3+ 3
Be2+ 2
B3+ 3
Be2+ 2
B3+ 3
Be2+ 2
B3+ 3
Be2+ 2
B3+ 3
Be2+ 2
B3+ 3
Be2+ 2
B3+ 3
Be2+ 2
B3+ 3
Be2+ 2
loop_
_atom_site_label
_atom_site_type_symbol
_atom_site_symmetry_multiplicity
_atom_site_Wyckoff_symbol
_atom_site_fract_x
_atom_site_fract_y
_atom_site_fract_z
_atom_site_B_iso_or_equiv
_atom_site_occupancy
_atom_site_attached_hydrogens
Na1 Na1+ 1 a 0.75848(11) 0.89671(6) 0.78243(8) 0.0107(3) 1 0
Na2 Na1+ 1 a 0.60745(11) 0.79078(6) 0.27075(8) 0.0114(3) 1 0
Na3 Na1+ 1 a 0.31969(11) 1.28875(6) 0.39480(8) 0.0106(3) 1 0
Na4 Na1+ 1 a 1.75696(12) 1.02918(6) 1.31143(9) 0.0154(3) 1 0
Na5 Na1+ 1 a 0.77601(12) 0.43235(6) 0.84747(9) 0.0156(3) 1 0
Na6 Na1+ 1 a 1.17201(11) 1.39508(6) 0.90040(8) 0.0106(3) 1 0
Na7 Na1+ 1 a 0.63723(12) 0.65335(6) 0.80827(9) 0.0153(3) 1 0
Na8 Na1+ 1 a 0.28436(11) 1.15952(6) 0.85868(8) 0.0132(3) 1 0
Na9 Na1+ 1 a 0.80494(11) 0.48917(6) 0.37431(9) 0.0146(3) 1 0
Na10 Na1+ 1 a 0.12694(12) 0.99442(7) 0.30547(10) 0.0193(3) 1 0
Na11 Na1+ 1 a 1.25620(12) 0.75441(6) 1.32489(9) 0.0153(3) 1 0
Na12 Na1+ 1 a 0.66795(11) 1.25602(6) 0.34394(8) 0.0122(3) 1 0
Na13 Na1+ 1 a 0.16845(11) 0.53246(6) 0.37312(9) 0.0153(3) 1 0
Na14 Na1+ 1 a 0.65356(12) 1.18111(7) 0.84592(10) 0.0216(4) 1 0
Na15 Na1+ 1 a 1.15550(11) 0.93015(6) 0.82780(9) 0.0140(3) 1 0
Na16 Na1+ 1 a 1.26922(12) 0.68840(7) 0.82119(10) 0.0233(4) 1 0
O1 O2- 1 a 0.41165(18) 1.29020(10) 0.93823(13) 0.0093(5) 1 0
O2 O2- 1 a 0.57220(17) 0.39278(9) 0.62838(13) 0.0067(4) 1 0
O3 O2- 1 a 1.07418(17) 0.38989(9) 0.63333(13) 0.0058(4) 1 0
O4 O2- 1 a 0.93254(18) 0.31207(10) 0.92475(13) 0.0082(5) 1 0
O5 O2- 1 a 0.55769(16) 1.39082(9) 1.12019(13) 0.0051(4) 1 0
O6 O2- 1 a 0.61845(18) 0.52835(11) 0.91537(13) 0.0093(5) 1 0
O7 O2- 1 a 0.93759(18) 0.61831(10) 0.41744(13) 0.0084(5) 1 0
O8 O2- 1 a 1.37519(18) 0.56870(10) 0.77244(13) 0.0085(5) 1 0
O9 O2- 1 a 1.38836(18) 0.81854(10) 0.88680(13) 0.0091(5) 1 0
O10 O2- 1 a 0.39503(18) 0.62252(10) 0.39898(12) 0.0077(5) 1 0
O11 O2- 1 a 0.83077(18) 0.89921(10) 1.24584(12) 0.0083(5) 1 0
O12 O2- 1 a 0.49363(18) 0.65657(10) 0.25245(12) 0.0088(5) 1 0
O13 O2- 1 a 0.88924(18) 1.15445(10) 0.40673(12) 0.0069(4) 1 0
O14 O2- 1 a 1.06320(18) 1.52710(10) 0.91474(13) 0.0093(5) 1 0
O15 O2- 1 a 0.50819(19) 0.78404(10) 0.75019(13) 0.0097(5) 1 0
O16 O2- 1 a 0.87979(19) 0.75994(10) 0.33282(14) 0.0101(5) 1 0
O17 O2- 1 a 0.82313(18) 0.56302(10) 0.76599(12) 0.0081(5) 1 0
O18 O2- 1 a 0.08253(18) 0.40018(10) 0.42856(13) 0.0082(5) 1 0
O19 O2- 1 a 1.03209(19) 0.65577(10) 1.27213(13) 0.0093(5) 1 0
O20 O2- 1 a 0.87665(18) 0.77917(10) 0.89112(12) 0.0089(5) 1 0
O21 O2- 1 a 0.54215(17) 0.88938(9) 1.08642(12) 0.0053(4) 1 0
O22 O2- 1 a 1.05525(18) 1.27769(10) 0.79148(12) 0.0081(5) 1 0
O23 O2- 1 a 1.07646(17) 1.21824(10) 0.60312(13) 0.0061(4) 1 0
O24 O2- 1 a 1.05742(17) 1.39102(9) 1.11940(13) 0.0058(4) 1 0
O25 O2- 1 a 0.05026(18) 1.25780(10) 0.35110(13) 0.0085(5) 1 0
O26 O2- 1 a 0.59055(19) 1.37743(10) 0.42748(13) 0.0089(5) 1 0
O27 O2- 1 a 0.58611(17) 1.21767(9) 0.62945(12) 0.0059(4) 1 0
O28 O2- 1 a 0.30217(17) 0.96662(9) 0.55667(12) 0.0052(4) 1 0
O29 O2- 1 a 1.06110(17) 0.54682(9) 1.11866(13) 0.0071(5) 1 0
O30 O2- 1 a 0.89669(18) 1.17099(10) 0.84090(14) 0.0104(5) 1 0
O31 O2- 1 a 1.54774(17) 1.54614(9) 1.09972(13) 0.0060(4) 1 0
O32 O2- 1 a 0.80151(17) 0.96887(9) 0.55780(13) 0.0069(4) 1 0
O33 O2- 1 a 0.54171(18) 0.51561(10) 0.33532(13) 0.0086(5) 1 0
O34 O2- 1 a 1.33448(18) 1.40646(10) 1.29010(13) 0.0089(5) 1 0
O35 O2- 1 a 0.43200(19) 1.15453(10) 0.42779(13) 0.0095(5) 1 0
O36 O2- 1 a 1.39916(19) 1.42765(10) 0.85413(14) 0.0109(5) 1 0
O37 O2- 1 a 0.55737(17) 1.04337(9) 1.10714(13) 0.0058(4) 1 0
O38 O2- 1 a 0.08258(19) 0.87300(11) 0.38752(13) 0.0109(5) 1 0
O39 O2- 1 a 1.07071(17) 0.21707(9) 1.10822(13) 0.0055(4) 1 0
O40 O2- 1 a 1.03137(17) 0.89083(9) 1.06377(13) 0.0068(5) 1 0
O41 O2- 1 a 0.83429(18) 0.36246(10) 0.28768(12) 0.0080(5) 1 0
O42 O2- 1 a 1.06621(17) 0.71925(10) 1.08854(13) 0.0059(4) 1 0
O43 O2- 1 a 1.04337(17) 1.04429(9) 1.09104(12) 0.0058(4) 1 0
O44 O2- 1 a 0.54437(18) 1.06725(10) 0.90235(13) 0.0090(5) 1 0
O45 O2- 1 a 0.99047(18) 0.81157(10) 0.75186(12) 0.0078(5) 1 0
O46 O2- 1 a 1.31720(19) 0.88023(10) 1.24427(12) 0.0091(5) 1 0
O47 O2- 1 a 0.58618(17) 1.21739(9) 1.12552(12) 0.0055(4) 1 0
O48 O2- 1 a 0.5771(2) 0.89602(11) 0.38357(13) 0.0125(5) 1 0
O49 O2- 1 a 0.5206(2) 1.30640(11) 0.79260(13) 0.0130(5) 1 0
O50 O2- 1 a 0.54984(17) 0.88882(9) 0.58622(13) 0.0059(4) 1 0
O51 O2- 1 a 1.07667(17) 0.71832(10) 0.59776(13) 0.0066(4) 1 0
O52 O2- 1 a 1.10228(19) 1.06256(10) 0.90106(13) 0.0098(5) 1 0
O53 O2- 1 a 1.53243(19) 1.12501(10) 1.28227(13) 0.0098(5) 1 0
O54 O2- 1 a -0.01348(18) 1.11906(10) 0.26052(13) 0.0080(5) 1 0
O55 O2- 1 a 1.04793(17) 0.89116(9) 0.58518(13) 0.0064(4) 1 0
O56 O2- 1 a 0.38926(19) 1.01422(10) 0.34195(14) 0.0112(5) 1 0
O57 O2- 1 a 1.30640(18) 1.03115(10) 0.75405(12) 0.0081(5) 1 0
O58 O2- 1 a 1.32138(17) 0.46842(9) 0.59075(13) 0.0060(4) 1 0
O59 O2- 1 a 0.78093(17) 0.79535(9) 0.54818(13) 0.0057(4) 1 0
O60 O2- 1 a 0.82340(17) 0.46921(9) 1.11374(13) 0.0066(4) 1 0
O61 O2- 1 a 0.56489(17) 0.71645(10) 0.57687(13) 0.0061(4) 1 0
O62 O2- 1 a 0.78818(17) 0.64003(10) 1.07566(13) 0.0067(5) 1 0
O63 O2- 1 a 1.04105(17) 1.04579(9) 0.57420(13) 0.0063(4) 1 0
O64 O2- 1 a 0.55205(17) 1.04339(9) 0.60010(12) 0.0061(4) 1 0
O65 O2- 1 a 1.02886(19) 0.67061(10) 0.83637(13) 0.0091(5) 1 0
O66 O2- 1 a 1.55219(17) 0.71848(10) 1.07259(13) 0.0065(5) 1 0
O67 O2- 1 a 0.79172(17) 0.96934(9) 1.04962(13) 0.0063(4) 1 0
O68 O2- 1 a 1.27577(17) 0.79512(9) 1.05315(12) 0.0055(4) 1 0
O69 O2- 1 a 0.79432(17) 1.14169(9) 0.58605(13) 0.0054(4) 1 0
O70 O2- 1 a 0.52248(19) 0.92803(10) 0.81572(13) 0.0087(5) 1 0
O71 O2- 1 a 1.30267(17) 0.96936(9) 1.06278(12) 0.0058(4) 1 0
O72 O2- 1 a 0.77801(17) 1.14334(9) 1.06083(12) 0.0058(4) 1 0
O73 O2- 1 a 0.29126(17) 0.63845(9) 0.57205(12) 0.0059(4) 1 0
O74 O2- 1 a 0.79431(17) 0.64033(9) 0.57072(12) 0.0061(4) 1 0
O75 O2- 1 a 1.27744(17) 0.63871(9) 1.05500(13) 0.0057(4) 1 0
O76 O2- 1 a 0.82407(17) 1.46792(9) 0.59040(13) 0.0067(4) 1 0
O77 O2- 1 a 1.29517(18) 1.14190(9) 1.08621(13) 0.0067(4) 1 0
O78 O2- 1 a 0.79163(17) 1.29698(9) 1.08606(13) 0.0060(4) 1 0
O79 O2- 1 a 0.55548(17) 0.54546(9) 0.59561(13) 0.0060(4) 1 0
O80 O2- 1 a 1.06598(17) 0.54568(9) 0.61749(13) 0.0063(4) 1 0
O81 O2- 1 a 0.78181(17) 0.79531(9) 1.06622(12) 0.0052(4) 1 0
O82 O2- 1 a 0.28529(17) 0.79293(9) 0.55415(13) 0.0063(4) 1 0
O83 O2- 1 a 0.30719(17) 1.29530(9) 1.11630(13) 0.0071(5) 1 0
O84 O2- 1 a 1.30997(17) 1.46578(9) 1.08617(12) 0.0053(4) 1 0
O85 O2- 1 a 0.29947(18) 1.14024(10) 0.58783(13) 0.0070(5) 1 0
O86 O2- 1 a 0.85360(19) 1.03040(10) 0.75874(13) 0.0102(5) 1 0
O87 O2- 1 a 0.30205(17) 0.29627(9) 0.58610(13) 0.0059(4) 1 0
O88 O2- 1 a 0.80443(17) 1.29573(9) 0.60107(13) 0.0066(5) 1 0
B1 B3+ 1 a 0.9547(3) 1.08592(16) 0.8326(2) 0.0077(4) 1 0
B2 B3+ 1 a 0.4703(3) 0.84131(15) 0.8182(2) 0.0068(4) 1 0
B3 B3+ 1 a 1.4859(3) 1.43178(16) 1.35201(19) 0.0061(4) 1 0
B4 B3+ 1 a 0.9653(3) 1.25527(16) 0.8536(2) 0.0074(4) 1 0
B5 B3+ 1 a 0.4820(3) 0.46838(16) 0.60478(20) 0.0052(4) 1 0
B6 B3+ 1 a 0.4315(3) 0.92847(16) 0.3221(2) 0.0081(4) 1 0
Be1 Be2+ 1 a 0.4970(3) 1.30429(18) 0.6638(2) 0.0069(5) 1 0
B7 B3+ 1 a 0.9889(3) 0.46668(15) 0.61598(19) 0.0053(4) 1 0
B8 B3+ 1 a 0.4496(3) 1.33985(16) 0.8630(2) 0.0068(4) 1 0
B9 B3+ 1 a -0.0254(3) 1.17594(16) 0.3392(2) 0.0065(4) 1 0
B10 B3+ 1 a 0.9620(3) 0.75488(16) 0.8258(2) 0.0069(4) 1 0
B11 B3+ 1 a 0.9499(3) 0.67682(16) 0.3408(2) 0.0075(4) 1 0
Be2 Be2+ 1 a 1.2536(3) 1.39015(18) 1.1592(2) 0.0059(5) 1 0
B12 B3+ 1 a 0.9703(3) 0.58524(15) 0.8392(2) 0.0067(4) 1 0
B13 B3+ 1 a 1.4662(3) 0.50937(16) 0.8482(2) 0.0071(4) 1 0
B14 B3+ 1 a -0.0651(3) 0.84493(16) 0.3222(2) 0.0073(4) 1 0
B15 B3+ 1 a 1.4726(3) 1.46835(16) 1.10221(19) 0.0051(4) 1 0
Be3 Be2+ 1 a -0.0244(3) 1.13139(18) 0.1341(2) 0.0066(5) 1 0
Be4 Be2+ 1 a 0.9882(3) 0.64054(18) 1.1424(2) 0.0056(5) 1 0
B16 B3+ 1 a 0.4665(3) 0.96832(16) 1.08524(20) 0.0048(4) 1 0
B17 B3+ 1 a 0.2238(3) 1.21798(15) 1.10486(19) 0.0057(4) 1 0
Be5 Be2+ 1 a 1.4925(3) 1.13061(18) 1.1528(2) 0.0061(5) 1 0
B18 B3+ 1 a 0.9805(3) 0.46924(15) 1.11745(19) 0.0049(4) 1 0
B19 B3+ 1 a 0.4545(3) 1.09954(16) 0.3516(2) 0.0073(4) 1 0
Be6 Be2+ 1 a 1.0048(3) 1.29551(18) 0.6610(2) 0.0065(5) 1 0
Be7 Be2+ 1 a 0.9623(3) 0.63162(18) 0.5464(2) 0.0065(5) 1 0
Be8 Be2+ 1 a 0.7545(3) 1.37970(18) 1.1560(2) 0.0064(5) 1 0
Be9 Be2+ 1 a 0.7520(3) 0.55597(18) 0.6339(2) 0.0063(5) 1 0
B20 B3+ 1 a 0.7285(3) 1.21761(15) 0.60698(19) 0.0048(4) 1 0
B21 B3+ 1 a 0.7133(3) 0.71804(15) 0.56356(19) 0.0048(4) 1 0
Be10 Be2+ 1 a 0.4492(3) 0.63030(18) 0.5310(2) 0.0065(5) 1 0
B22 B3+ 1 a 0.4749(3) 0.59993(15) 0.32868(19) 0.0063(4) 1 0
B23 B3+ 1 a 0.7180(3) 1.21857(15) 1.09087(19) 0.0050(4) 1 0
Be11 Be2+ 1 a 0.9769(3) 0.80334(18) 0.6231(2) 0.0063(5) 1 0
B24 B3+ 1 a -0.0136(3) 0.34126(15) 0.35508(19) 0.0060(4) 1 0
B25 B3+ 1 a 0.2243(3) 1.21801(15) 0.59140(19) 0.0056(4) 1 0
B26 B3+ 1 a 1.2059(3) 0.71662(15) 1.06480(19) 0.0045(4) 1 0
B27 B3+ 1 a 0.4567(3) 1.01043(16) 0.8248(2) 0.0080(4) 1 0
B28 B3+ 1 a 0.7081(3) 0.71753(15) 1.07223(19) 0.0049(4) 1 0
Be12 Be2+ 1 a 1.2621(3) 0.55381(18) 0.6454(2) 0.0061(5) 1 0
B29 B3+ 1 a 0.9539(3) 0.96847(16) 1.06585(19) 0.0055(4) 1 0
Be13 Be2+ 1 a 0.7391(3) 0.88772(18) 1.1152(2) 0.0060(5) 1 0
B30 B3+ 1 a 0.4657(3) 0.96639(16) 0.5802(2) 0.0058(4) 1 0
B31 B3+ 1 a 0.9621(3) 0.96833(16) 0.57213(20) 0.0055(4) 1 0
Be14 Be2+ 1 a 0.4809(3) 0.79777(18) 0.6202(2) 0.0055(5) 1 0
B32 B3+ 1 a 0.2168(3) 0.71705(15) 0.57439(19) 0.0051(4) 1 0
Be15 Be2+ 1 a 0.4611(3) 1.29981(18) 1.0702(2) 0.0052(5) 1 0
Be16 Be2+ 1 a 0.4735(3) 0.63736(19) 0.1255(2) 0.0073(5) 1 0
Be17 Be2+ 1 a 1.2381(3) 1.04540(18) 0.6226(2) 0.0066(5) 1 0
Be18 Be2+ 1 a 0.9354(3) 0.79556(18) 1.0228(2) 0.0066(5) 1 0
Be19 Be2+ 1 a 1.4370(3) 0.80573(18) 1.0184(2) 0.0065(5) 1 0
Be20 Be2+ 1 a 0.9460(3) 1.14112(18) 0.5385(2) 0.0070(5) 1 0
Be21 Be2+ 1 a 1.2308(3) 0.88418(18) 1.1117(2) 0.0058(5) 1 0
Be22 Be2+ 1 a 0.9571(3) 0.30302(18) 1.0550(2) 0.0067(5) 1 0
Be23 Be2+ 1 a 0.7492(3) 1.04717(18) 0.6306(2) 0.0069(5) 1 0
Be24 Be2+ 1 a 0.4619(3) 1.13703(18) 0.5564(2) 0.0058(5) 1 0
Be25 Be2+ 1 a 1.1786(3) 1.54701(18) 1.0398(2) 0.0061(5) 1 0
Be26 Be2+ 1 a 1.1846(3) 1.05634(18) 1.0337(2) 0.0066(5) 1 0
Be27 Be2+ 1 a 0.6707(3) 1.05454(18) 1.0259(2) 0.0059(5) 1 0
Be28 Be2+ 1 a 0.1935(3) 0.38644(18) 0.5571(2) 0.0062(5) 1 0
Be29 Be2+ 1 a 0.1772(3) 0.88069(18) 0.5171(2) 0.0063(5) 1 0
Be30 Be2+ 1 a 0.6752(3) 0.88638(18) 0.5131(2) 0.0063(5) 1 0
Be31 Be2+ 1 a 0.6995(3) 1.38373(18) 0.5571(2) 0.0062(5) 1 0
Be32 Be2+ 1 a 0.6932(3) 0.54551(19) 1.0469(2) 0.0078(5) 1 0
loop_
_atom_site_aniso_label
_atom_site_aniso_type_symbol
_atom_site_aniso_U_11
_atom_site_aniso_U_22
_atom_site_aniso_U_33
_atom_site_aniso_U_12
_atom_site_aniso_U_13
_atom_site_aniso_U_23
Na1 Na1+ 0.0070(4) 0.0098(4) 0.0150(4) -0.0005(3) 0.0034(3) 0.0031(4)
Na2 Na1+ 0.0116(4) 0.0100(4) 0.0143(5) -0.0021(3) 0.0066(4) -0.0033(4)
Na3 Na1+ 0.0090(4) 0.0104(4) 0.0133(4) 0.0005(3) 0.0053(3) 0.0027(4)
Na4 Na1+ 0.0117(4) 0.0124(5) 0.0187(5) 0.0021(4) 0.0010(4) -0.0066(4)
Na5 Na1+ 0.0166(5) 0.0137(5) 0.0188(5) 0.0055(4) 0.0092(4) 0.0053(4)
Na6 Na1+ 0.0072(4) 0.0095(4) 0.0150(5) -0.0010(3) 0.0037(3) -0.0037(4)
Na7 Na1+ 0.0139(4) 0.0123(5) 0.0238(5) 0.0050(4) 0.0116(4) 0.0061(4)
Na8 Na1+ 0.0123(4) 0.0105(5) 0.0175(5) -0.0011(4) 0.0060(4) -0.0045(4)
Na9 Na1+ 0.0096(4) 0.0121(4) 0.0222(5) -0.0016(3) 0.0058(4) -0.0048(4)
Na10 Na1+ 0.0134(5) 0.0156(5) 0.0311(6) 0.0047(4) 0.0105(4) 0.0111(4)
Na11 Na1+ 0.0155(5) 0.0104(5) 0.0201(5) -0.0001(4) 0.0065(4) 0.0055(4)
Na12 Na1+ 0.0100(4) 0.0102(4) 0.0166(5) -0.0003(3) 0.0048(4) -0.0029(4)
Na13 Na1+ 0.0091(4) 0.0128(5) 0.0208(5) -0.0021(4) 0.0012(4) 0.0050(4)
Na14 Na1+ 0.0123(5) 0.0221(5) 0.0339(6) 0.0062(4) 0.0125(5) 0.0170(5)
Na15 Na1+ 0.0122(4) 0.0107(5) 0.0206(5) -0.0030(4) 0.0076(4) -0.0039(4)
Na16 Na1+ 0.0150(5) 0.0180(5) 0.0421(7) -0.0063(4) 0.0166(5) -0.0169(5)
O1 O2- 0.0094(7) 0.0101(7) 0.0076(7) -0.0028(6) 0.0020(6) 0.0005(6)
O2 O2- 0.0051(6) 0.0064(7) 0.0095(7) -0.0001(5) 0.0038(6) -0.0001(6)
O3 O2- 0.0050(6) 0.0054(7) 0.0081(7) -0.0001(5) 0.0038(5) 0.0002(6)
O4 O2- 0.0102(7) 0.0069(7) 0.0078(7) 0.0012(6) 0.0033(6) -0.0001(6)
O5 O2- 0.0018(6) 0.0063(7) 0.0072(7) -0.0001(5) 0.0014(5) 0.0003(5)
O6 O2- 0.0077(7) 0.0139(8) 0.0053(7) 0.0005(6) 0.0011(6) -0.0003(6)
O7 O2- 0.0095(7) 0.0072(7) 0.0089(7) -0.0009(6) 0.0035(6) 0.0006(6)
O8 O2- 0.0108(7) 0.0074(7) 0.0070(7) 0.0005(6) 0.0029(6) -0.0009(6)
O9 O2- 0.0078(7) 0.0125(8) 0.0064(7) -0.0010(6) 0.0018(6) 0.0000(6)
O10 O2- 0.0070(7) 0.0104(7) 0.0065(7) 0.0001(6) 0.0034(6) -0.0003(6)
O11 O2- 0.0094(7) 0.0077(7) 0.0057(7) 0.0025(6) -0.0001(5) 0.0002(6)
O12 O2- 0.0117(7) 0.0078(7) 0.0074(7) -0.0011(6) 0.0041(6) -0.0003(6)
O13 O2- 0.0062(7) 0.0095(7) 0.0052(7) -0.0007(5) 0.0021(5) -0.0008(6)
O14 O2- 0.0082(7) 0.0069(7) 0.0092(7) 0.0007(6) -0.0013(6) 0.0004(6)
O15 O2- 0.0134(7) 0.0077(7) 0.0079(7) 0.0013(6) 0.0033(6) -0.0002(6)
O16 O2- 0.0099(7) 0.0067(7) 0.0148(8) 0.0007(6) 0.0054(6) 0.0015(6)
O17 O2- 0.0068(7) 0.0109(7) 0.0057(7) 0.0001(6) 0.0010(6) 0.0008(6)
O18 O2- 0.0088(7) 0.0070(7) 0.0077(7) -0.0011(6) 0.0017(6) -0.0019(6)
O19 O2- 0.0102(7) 0.0117(8) 0.0071(7) 0.0017(6) 0.0043(6) 0.0006(6)
O20 O2- 0.0083(7) 0.0126(8) 0.0055(7) 0.0035(6) 0.0019(6) 0.0005(6)
O21 O2- 0.0023(6) 0.0050(7) 0.0075(7) -0.0003(5) 0.0004(5) 0.0002(5)
O22 O2- 0.0083(7) 0.0109(7) 0.0049(7) -0.0025(6) 0.0021(6) 0.0009(6)
O23 O2- 0.0036(6) 0.0055(7) 0.0097(7) -0.0005(5) 0.0028(5) -0.0009(6)
O24 O2- 0.0038(6) 0.0058(7) 0.0082(7) -0.0007(5) 0.0024(5) -0.0023(6)
O25 O2- 0.0081(7) 0.0070(7) 0.0097(7) -0.0011(6) 0.0024(6) -0.0015(6)
O26 O2- 0.0099(7) 0.0076(7) 0.0078(7) 0.0014(6) 0.0013(6) 0.0001(6)
O27 O2- 0.0037(6) 0.0057(7) 0.0089(7) -0.0013(5) 0.0032(5) -0.0016(6)
O28 O2- 0.0032(6) 0.0059(7) 0.0060(7) -0.0003(5) 0.0009(5) -0.0001(5)
O29 O2- 0.0051(6) 0.0047(7) 0.0129(7) -0.0013(5) 0.0050(6) -0.0020(6)
O30 O2- 0.0073(7) 0.0092(7) 0.0147(8) -0.0007(6) 0.0040(6) -0.0018(6)
O31 O2- 0.0048(6) 0.0053(7) 0.0093(7) -0.0014(5) 0.0042(6) -0.0015(6)
O32 O2- 0.0039(6) 0.0056(7) 0.0120(7) -0.0007(5) 0.0038(6) -0.0005(6)
O33 O2- 0.0068(7) 0.0068(7) 0.0131(7) 0.0000(5) 0.0045(6) 0.0007(6)
O34 O2- 0.0065(7) 0.0126(8) 0.0074(7) -0.0021(6) 0.0021(6) 0.0012(6)
O35 O2- 0.0134(7) 0.0089(7) 0.0071(7) 0.0037(6) 0.0046(6) 0.0011(6)
O36 O2- 0.0116(7) 0.0075(7) 0.0139(8) 0.0003(6) 0.0048(6) 0.0024(6)
O37 O2- 0.0043(6) 0.0055(7) 0.0088(7) -0.0023(5) 0.0039(5) -0.0018(6)
O38 O2- 0.0096(7) 0.0138(8) 0.0076(7) -0.0035(6) 0.0008(6) 0.0005(6)
O39 O2- 0.0037(6) 0.0047(6) 0.0088(7) -0.0005(5) 0.0033(5) 0.0001(5)
O40 O2- 0.0030(6) 0.0049(7) 0.0125(8) -0.0013(5) 0.0027(6) -0.0016(6)
O41 O2- 0.0066(7) 0.0107(7) 0.0066(7) 0.0003(6) 0.0022(6) 0.0002(6)
O42 O2- 0.0044(6) 0.0065(7) 0.0071(7) 0.0001(5) 0.0025(5) 0.0013(6)
O43 O2- 0.0043(6) 0.0055(7) 0.0088(7) -0.0011(5) 0.0037(5) -0.0018(6)
O44 O2- 0.0093(7) 0.0078(7) 0.0082(7) 0.0002(6) 0.0007(6) 0.0000(6)
O45 O2- 0.0106(7) 0.0065(7) 0.0072(7) -0.0002(6) 0.0041(6) 0.0007(6)
O46 O2- 0.0110(7) 0.0099(7) 0.0053(7) -0.0037(6) 0.0016(6) -0.0014(6)
O47 O2- 0.0036(6) 0.0051(7) 0.0084(7) -0.0006(5) 0.0029(5) 0.0002(6)
O48 O2- 0.0118(7) 0.0156(8) 0.0079(7) 0.0051(6) 0.0007(6) -0.0011(6)
O49 O2- 0.0158(8) 0.0177(9) 0.0061(7) 0.0076(7) 0.0047(6) 0.0027(6)
O50 O2- 0.0045(6) 0.0055(7) 0.0086(7) 0.0003(5) 0.0035(5) -0.0001(6)
O51 O2- 0.0049(6) 0.0067(7) 0.0093(7) -0.0011(5) 0.0041(6) -0.0004(6)
O52 O2- 0.0080(7) 0.0122(8) 0.0077(7) 0.0006(6) 0.0009(6) 0.0005(6)
O53 O2- 0.0111(7) 0.0112(8) 0.0075(7) -0.0008(6) 0.0039(6) 0.0003(6)
O54 O2- 0.0102(7) 0.0075(7) 0.0064(7) 0.0000(6) 0.0031(6) 0.0004(6)
O55 O2- 0.0043(6) 0.0067(7) 0.0089(7) 0.0002(5) 0.0032(6) 0.0014(6)
O56 O2- 0.0096(7) 0.0072(7) 0.0174(8) -0.0022(6) 0.0055(6) -0.0016(6)
O57 O2- 0.0076(7) 0.0104(7) 0.0060(7) 0.0004(6) 0.0021(6) -0.0008(6)
O58 O2- 0.0032(6) 0.0056(7) 0.0101(7) 0.0002(5) 0.0036(5) -0.0013(6)
O59 O2- 0.0024(6) 0.0060(7) 0.0078(7) -0.0009(5) 0.0007(5) 0.0002(6)
O60 O2- 0.0036(6) 0.0064(7) 0.0101(7) -0.0008(5) 0.0029(6) 0.0008(6)
O61 O2- 0.0041(6) 0.0065(7) 0.0093(7) -0.0009(5) 0.0045(5) -0.0011(6)
O62 O2- 0.0043(6) 0.0060(7) 0.0101(7) -0.0010(5) 0.0028(6) -0.0009(6)
O63 O2- 0.0039(6) 0.0051(7) 0.0102(7) -0.0004(5) 0.0028(6) -0.0003(6)
O64 O2- 0.0030(6) 0.0074(7) 0.0072(7) -0.0010(5) 0.0010(5) -0.0004(6)
O65 O2- 0.0093(7) 0.0062(7) 0.0112(7) 0.0000(6) 0.0029(6) 0.0018(6)
O66 O2- 0.0040(6) 0.0048(7) 0.0109(7) 0.0006(5) 0.0029(6) 0.0017(6)
O67 O2- 0.0042(6) 0.0058(7) 0.0095(7) 0.0003(5) 0.0031(6) 0.0003(6)
O68 O2- 0.0040(6) 0.0060(7) 0.0071(7) 0.0010(5) 0.0029(5) 0.0005(6)
O69 O2- 0.0041(6) 0.0049(7) 0.0079(7) 0.0010(5) 0.0030(5) 0.0015(5)
O70 O2- 0.0092(7) 0.0054(7) 0.0126(7) -0.0002(5) 0.0050(6) -0.0012(6)
O71 O2- 0.0046(6) 0.0048(7) 0.0083(7) -0.0002(5) 0.0025(5) -0.0003(6)
O72 O2- 0.0043(6) 0.0049(7) 0.0078(7) 0.0007(5) 0.0017(5) -0.0001(6)
O73 O2- 0.0049(6) 0.0060(7) 0.0084(7) 0.0004(5) 0.0041(6) 0.0002(6)
O74 O2- 0.0054(6) 0.0062(7) 0.0073(7) -0.0001(5) 0.0032(6) 0.0007(6)
O75 O2- 0.0036(6) 0.0046(7) 0.0086(7) -0.0005(5) 0.0020(5) -0.0008(6)
O76 O2- 0.0034(6) 0.0052(7) 0.0118(7) -0.0013(5) 0.0029(6) -0.0011(6)
O77 O2- 0.0046(6) 0.0051(7) 0.0108(7) 0.0008(5) 0.0032(6) -0.0018(6)
O78 O2- 0.0040(6) 0.0054(7) 0.0100(7) -0.0003(5) 0.0042(6) -0.0009(6)
O79 O2- 0.0039(6) 0.0058(7) 0.0080(7) 0.0000(5) 0.0018(5) 0.0012(6)
O80 O2- 0.0046(6) 0.0048(7) 0.0094(7) -0.0004(5) 0.0023(5) 0.0004(6)
O81 O2- 0.0044(6) 0.0034(6) 0.0081(7) -0.0004(5) 0.0026(5) 0.0013(5)
O82 O2- 0.0035(6) 0.0064(7) 0.0090(7) -0.0009(5) 0.0021(5) 0.0010(6)
O83 O2- 0.0047(6) 0.0051(7) 0.0125(7) -0.0004(5) 0.0042(6) -0.0001(6)
O84 O2- 0.0047(6) 0.0052(7) 0.0057(6) -0.0007(5) 0.0016(5) -0.0007(5)
O85 O2- 0.0035(6) 0.0064(7) 0.0124(7) -0.0003(5) 0.0043(6) -0.0002(6)
O86 O2- 0.0108(7) 0.0088(7) 0.0078(7) -0.0022(6) -0.0009(6) 0.0005(6)
O87 O2- 0.0033(6) 0.0059(7) 0.0087(7) -0.0002(5) 0.0021(5) 0.0008(6)
O88 O2- 0.0031(6) 0.0054(7) 0.0111(7) -0.0001(5) 0.0023(6) -0.0006(6)
#End of TTdata_237764-ICSD