
#(C) 2019 by FIZ Karlsruhe - Leibniz Institute for Information Infrastructure.  All rights reserved.
data_237830-ICSD
_database_code_ICSD 237830
_audit_creation_date 2015-08-01
_chemical_name_systematic
'Tetradecaaqua-tetrahydroxo-pentasodium tetranitrato-ytterbium(III)'
_chemical_formula_structural 'Na5 (O H)4 (H2 O)14 Yb (N O3)4'
_chemical_formula_sum 'H32 N4 Na5 O30 Yb1'
_exptl_crystal_density_diffrn 2.02
_cell_measurement_temperature 293.
_publ_section_title

;
Synthesis, crystal structures and properties of two alkali-lanthanide
heterometallic coordination polymers
;
loop_
_citation_id
_citation_journal_full
_citation_year
_citation_journal_volume
_citation_page_first
_citation_page_last
_citation_journal_id_ASTM
primary 'Journal of Chemical Crystallography' 2014 44 255 260 JCCYEV
loop_
_publ_author_name
'Martin-Ramos, Pablo'
'Coutinho, Joana T.'
'Silva, Manuela Ramos'
'Pereira, Laura C.J.'
'Matos Beja, Ana M.'
'Martin-Gil, Jesus'
_cell_length_a 15.8756(5)
_cell_length_b 13.3707(4)
_cell_length_c 13.3083(4)
_cell_angle_alpha 90.
_cell_angle_beta 93.584(2)
_cell_angle_gamma 90.
_cell_volume 2819.39
_cell_formula_units_Z 4
_symmetry_space_group_name_H-M 'P 1 21/c 1'
_symmetry_Int_Tables_number 14
_refine_ls_R_factor_all 0.0343
loop_
_symmetry_equiv_pos_site_id
_symmetry_equiv_pos_as_xyz
1 'x, -y+1/2, z+1/2'
2 '-x, -y, -z'
3 '-x, y+1/2, -z+1/2'
4 'x, y, z'
loop_
_atom_type_symbol
_atom_type_oxidation_number
Yb3+ 3
O2- -2
N5+ 5
O2- -2
H1+ 1
O2- -2
H1+ 1
O2- -2
H1+ 1
O2- -2
H1+ 1
O2- -2
H1+ 1
O2- -2
H1+ 1
O2- -2
H1+ 1
O2- -2
H1+ 1
O2- -2
H1+ 1
O2- -2
H1+ 1
O2- -2
H1+ 1
O2- -2
H1+ 1
O2- -2
H1+ 1
O2- -2
H1+ 1
O2- -2
H1+ 1
O2- -2
H1+ 1
O2- -2
H1+ 1
O2- -2
H1+ 1
Na1+ 1
loop_
_atom_site_label
_atom_site_type_symbol
_atom_site_symmetry_multiplicity
_atom_site_Wyckoff_symbol
_atom_site_fract_x
_atom_site_fract_y
_atom_site_fract_z
_atom_site_B_iso_or_equiv
_atom_site_occupancy
_atom_site_attached_hydrogens
Yb1 Yb3+ 4 e 0.248821(12) -0.486798(12) 0.465404(13) 0.01546(5) 1 0
O1 O2- 4 e 0.2216(2) -0.3164(2) 0.4646(2) 0.0253(7) 1 0
O2 O2- 4 e 0.3254(2) -0.2017(2) 0.4654(3) 0.0325(8) 1 0
O3 O2- 4 e 0.3524(2) -0.3661(2) 0.4578(3) 0.0324(8) 1 0
O4 O2- 4 e 0.24913(19) -0.6578(2) 0.5010(2) 0.0234(7) 1 0
O5 O2- 4 e 0.37075(19) -0.5783(2) 0.4995(2) 0.0225(7) 1 0
O6 O2- 4 e 0.3703(2) -0.7421(2) 0.5332(2) 0.0287(7) 1 0
O7 O2- 4 e 0.25124(18) -0.4701(2) 0.6424(2) 0.0234(7) 1 0
O8 O2- 4 e 0.12929(18) -0.4889(2) 0.5563(2) 0.0221(6) 1 0
O9 O2- 4 e 0.1313(2) -0.4589(2) 0.7218(2) 0.0282(7) 1 0
O10 O2- 4 e 0.27670(19) -0.5281(2) 0.3030(2) 0.0251(7) 1 0
O11 O2- 4 e 0.14481(18) -0.5053(2) 0.3342(2) 0.0274(7) 1 0
O12 O2- 4 e 0.1764(2) -0.5469(2) 0.1772(2) 0.0305(8) 1 0
N1 N5+ 4 e 0.3014(3) -0.2910(3) 0.4632(3) 0.0386(11) 1 0
N2 N5+ 4 e 0.3315(3) -0.6612(3) 0.5112(3) 0.0333(10) 1 0
N3 N5+ 4 e 0.1694(3) -0.4730(3) 0.6425(3) 0.0328(9) 1 0
N4 N5+ 4 e 0.1978(3) -0.5270(3) 0.2675(3) 0.0368(10) 1 0
O13 O2- 4 e 0.4856(2) -0.3058(2) 0.3492(2) 0.0263(7) 1 0
H1 H1+ 4 e 0.527(2) -0.299(4) 0.392(3) 0.039 0.89 0
H2 H1+ 4 e 0.447(3) -0.328(4) 0.384(4) 0.039 0.89 0
O14 O2- 4 e 0.4894(2) -0.2903(3) 0.0922(3) 0.0321(8) 1 0
H3 H1+ 4 e 0.529(3) -0.275(5) 0.056(4) 0.048 0.89 0
H4 H1+ 4 e 0.447(2) -0.288(5) 0.050(4) 0.048 0.89 0
O15 O2- 4 e -0.0001(2) -0.4026(2) 0.2252(3) 0.0292(7) 1 0
H5 H1+ 4 e -0.040(3) -0.439(4) 0.245(4) 0.044 0.89 0
H6 H1+ 4 e 0.045(2) -0.431(4) 0.249(4) 0.044 0.89 0
O16 O2- 4 e 0.0177(2) -0.6497(2) 0.3074(2) 0.0254(7) 1 0
H7 H1+ 4 e -0.027(2) -0.615(4) 0.310(4) 0.038 0.89 0
H8 H1+ 4 e 0.059(2) -0.610(3) 0.320(4) 0.038 0.89 0
O17 O2- 4 e 0.0148(3) -0.6061(3) 0.0647(3) 0.0336(8) 1 0
H9 H1+ 4 e -0.028(3) -0.567(4) 0.067(5) 0.05 0.89 0
H10 H1+ 4 e 0.059(2) -0.579(5) 0.093(5) 0.05 0.89 0
O18 O2- 4 e 0.0020(2) -0.6393(2) 0.5320(3) 0.0298(8) 1 0
H11 H1+ 4 e -0.041(2) -0.608(4) 0.508(4) 0.045 0.89 0
H12 H1+ 4 e 0.040(3) -0.594(3) 0.534(5) 0.045 0.89 0
O19 O2- 4 e 0.4981(2) -0.0357(3) 0.1336(2) 0.0314(8) 1 0
H13 H1+ 4 e 0.534(3) -0.043(5) 0.089(3) 0.047 0.89 0
H14 H1+ 4 e 0.459(3) -0.010(4) 0.096(4) 0.047 0.89 0
O20 O2- 4 e 0.1596(2) -0.7989(3) 0.3883(3) 0.0369(8) 1 0
H15 H1+ 4 e 0.189(4) -0.753(4) 0.418(5) 0.055 0.89 0
H16 H1+ 4 e 0.175(4) -0.800(5) 0.3282(19) 0.055 0.89 0
O21 O2- 4 e 0.1525(2) -0.4916(3) 0.9240(3) 0.0372(8) 1 0
H17 H1+ 4 e 0.147(4) -0.5549(6) 0.924(5) 0.056 0.89 0
H18 H1+ 4 e 0.160(4) -0.472(5) 0.8647(19) 0.056 0.89 0
O22 O2- 4 e 0.3397(2) -0.1771(3) 0.2506(3) 0.0391(9) 1 0
H19 H1+ 4 e 0.321(4) -0.176(5) 0.309(2) 0.059 0.89 0
H20 H1+ 4 e 0.314(4) -0.130(3) 0.219(5) 0.059 0.89 0
O23 O2- 4 e 0.1408(2) -0.3051(3) 0.0950(3) 0.0346(8) 1 0
H21 H1+ 4 e 0.165(4) -0.261(4) 0.060(4) 0.052 0.89 0
H22 H1+ 4 e 0.144(4) -0.287(5) 0.1563(14) 0.052 0.89 0
O24 O2- 4 e 0.1357(2) -0.2415(3) 0.2988(3) 0.0343(8) 1 0
H23 H1+ 4 e 0.170(3) -0.257(5) 0.348(3) 0.052 0.89 0
H24 H1+ 4 e 0.148(4) -0.1804(15) 0.289(5) 0.052 0.89 0
O25 O2- 4 e 0.1620(2) -0.7586(3) 0.1666(3) 0.0377(9) 1 0
H25 H1+ 4 e 0.189(4) -0.787(5) 0.121(4) 0.056 0.89 0
H26 H1+ 4 e 0.171(4) -0.6969(13) 0.156(5) 0.056 0.89 0
O26 O2- 4 e 0.6490(2) -0.4079(3) 0.2213(3) 0.0363(8) 1 0
H27 H1+ 4 e 0.684(3) -0.441(4) 0.259(4) 0.054 0.89 0
H28 H1+ 4 e 0.665(4) -0.3473(16) 0.225(5) 0.054 0.89 0
O27 O2- 4 e 0.3473(2) -0.3871(3) 0.1894(3) 0.0360(8) 1 0
H29 H1+ 4 e 0.329(4) -0.423(4) 0.236(3) 0.054 0.89 0
H30 H1+ 4 e 0.336(4) -0.3262(15) 0.200(5) 0.054 0.89 0
O28 O2- 4 e 0.3634(2) -0.6953(3) 0.2418(3) 0.0354(8) 1 0
H31 H1+ 4 e 0.353(4) -0.700(5) 0.1787(9) 0.053 0.89 0
H32 H1+ 4 e 0.335(4) -0.643(3) 0.254(5) 0.053 0.89 0
O29 O2- 4 e 0.6566(3) -0.4411(3) 0.0083(3) 0.0378(9) 1 0
H33 H1+ 4 e 0.659(5) -0.3781(8) 0.000(5) 0.057 0.89 0
H34 H1+ 4 e 0.653(5) -0.434(5) 0.0714(9) 0.057 0.89 0
O30 O2- 4 e 0.4992(3) -0.0615(3) 0.3881(3) 0.0403(9) 1 0
H35 H1+ 4 e 0.539(3) -0.053(5) 0.434(4) 0.06 0.89 0
H36 H1+ 4 e 0.456(3) -0.085(5) 0.414(5) 0.06 0.89 0
Na1 Na1+ 4 e 0.48632(13) -0.17463(13) 0.23478(15) 0.0323(4) 1 0
Na2 Na1+ 4 e 0.49766(13) -0.42160(13) 0.21750(14) 0.0317(4) 1 0
Na3 Na1+ 4 e 0.01139(13) -0.79041(14) 0.41909(13) 0.0299(4) 1 0
Na4 Na1+ 4 e 0.00996(12) -0.75632(13) 0.16968(13) 0.0275(4) 1 0
Na5 Na1+ 4 e 0.24835(13) -0.43250(13) 0.05229(13) 0.0298(4) 1 0
loop_
_atom_site_aniso_label
_atom_site_aniso_type_symbol
_atom_site_aniso_U_11
_atom_site_aniso_U_22
_atom_site_aniso_U_33
_atom_site_aniso_U_12
_atom_site_aniso_U_13
_atom_site_aniso_U_23
Yb1 Yb3+ 0.01428(8) 0.01651(8) 0.01580(8) -0.00002(8) 0.00247(5) -0.00026(7)
O1 O2- 0.0144(16) 0.0223(16) 0.0389(19) -0.0019(12) -0.0004(14) 0.0011(13)
O2 O2- 0.035(2) 0.0172(16) 0.046(2) -0.0093(14) 0.0096(17) -0.0070(14)
O3 O2- 0.0211(19) 0.0217(17) 0.056(2) 0.0017(14) 0.0135(16) 0.0001(15)
O4 O2- 0.0134(16) 0.0257(16) 0.0309(16) -0.0025(13) 0.0001(14) 0.0040(12)
O5 O2- 0.0172(16) 0.0192(15) 0.0312(17) -0.0030(12) 0.0032(13) 0.0038(12)
O6 O2- 0.0284(19) 0.0179(15) 0.0392(19) 0.0069(14) -0.0024(15) 0.0047(13)
O7 O2- 0.0118(15) 0.0362(18) 0.0219(15) -0.0011(13) 0.0000(12) -0.0028(13)
O8 O2- 0.0172(15) 0.0310(16) 0.0182(13) -0.0012(13) 0.0012(11) -0.0047(12)
O9 O2- 0.0270(18) 0.0404(19) 0.0183(15) 0.0039(14) 0.0110(13) -0.0013(13)
O10 O2- 0.0142(15) 0.0386(19) 0.0221(15) 0.0031(14) -0.0007(12) -0.0024(13)
O11 O2- 0.0181(15) 0.0403(19) 0.0239(15) 0.0012(15) 0.0034(12) -0.0073(14)
O12 O2- 0.037(2) 0.0381(19) 0.0160(15) -0.0058(15) -0.0042(14) -0.0034(13)
N1 N5+ 0.049(3) 0.041(3) 0.026(2) -0.002(2) 0.005(2) -0.0021(18)
N2 N5+ 0.039(3) 0.034(2) 0.028(2) 0.004(2) 0.0005(19) 0.0002(17)
N3 N5+ 0.038(3) 0.027(2) 0.034(2) 0.0011(19) 0.0033(19) 0.0002(17)
N4 N5+ 0.044(3) 0.031(2) 0.036(2) -0.003(2) 0.006(2) 0.0041(18)
O13 O2- 0.0205(19) 0.0318(18) 0.0266(18) -0.0045(14) 0.0012(14) 0.0020(13)
O14 O2- 0.026(2) 0.040(2) 0.0306(19) -0.0003(17) 0.0038(15) 0.0068(15)
O15 O2- 0.025(2) 0.0273(18) 0.0347(19) -0.0009(15) 0.0000(16) 0.0037(14)
O16 O2- 0.0220(19) 0.0244(17) 0.0299(17) -0.0013(13) 0.0010(15) -0.0025(13)
O17 O2- 0.042(2) 0.0309(19) 0.0277(19) 0.0028(16) 0.0040(17) -0.0014(14)
O18 O2- 0.031(2) 0.0301(19) 0.0279(17) 0.0005(15) -0.0027(16) 0.0047(14)
O19 O2- 0.029(2) 0.037(2) 0.0284(18) 0.0050(15) 0.0062(15) 0.0050(14)
O20 O2- 0.034(2) 0.032(2) 0.044(2) -0.0035(16) -0.0004(18) -0.0033(17)
O21 O2- 0.047(2) 0.0315(19) 0.0318(18) -0.0062(18) -0.0060(16) -0.0009(16)
O22 O2- 0.032(2) 0.040(2) 0.045(2) 0.0060(17) 0.0043(18) 0.0134(18)
O23 O2- 0.033(2) 0.038(2) 0.033(2) -0.0006(17) 0.0095(17) 0.0040(16)
O24 O2- 0.031(2) 0.037(2) 0.034(2) 0.0011(17) -0.0053(16) 0.0057(16)
O25 O2- 0.036(2) 0.037(2) 0.041(2) -0.0013(18) 0.0086(17) -0.0082(17)
O26 O2- 0.037(2) 0.034(2) 0.037(2) 0.0006(17) -0.0047(17) 0.0029(16)
O27 O2- 0.034(2) 0.044(2) 0.0301(19) -0.0118(18) 0.0001(16) 0.0066(16)
O28 O2- 0.031(2) 0.035(2) 0.041(2) 0.0089(16) 0.0050(17) -0.0038(17)
O29 O2- 0.050(2) 0.0298(18) 0.034(2) 0.0045(18) 0.0022(18) -0.0051(16)
O30 O2- 0.049(3) 0.039(2) 0.032(2) 0.0060(19) -0.0024(18) 0.0022(16)
Na1 Na1+ 0.0312(12) 0.0264(10) 0.0397(11) -0.0006(8) 0.0059(9) 0.0053(8)
Na2 Na1+ 0.0340(12) 0.0279(10) 0.0333(11) -0.0005(8) 0.0021(9) -0.0008(8)
Na3 Na1+ 0.0327(11) 0.0315(10) 0.0257(10) 0.0013(8) 0.0042(8) 0.0014(7)
Na4 Na1+ 0.0326(11) 0.0271(10) 0.0230(9) -0.0007(8) 0.0040(8) -0.0031(7)
Na5 Na1+ 0.0302(11) 0.0314(10) 0.0273(10) 0.0003(9) -0.0004(8) -0.0029(7)
#End of TTdata_237830-ICSD