
#(C) 2019 by FIZ Karlsruhe - Leibniz Institute for Information Infrastructure.  All rights reserved.
data_237846-ICSD
_database_code_ICSD 237846
_audit_creation_date 2015-08-01
_chemical_name_systematic
'Tetradecaaqua-tetrahydroxo-pentasodium tetranitrato-erbium(III)'
_chemical_formula_structural 'Na5 (O H)4 (H2 O)14 Er (N O3)4'
_chemical_formula_sum 'H32 Er1 N4 Na5 O30'
_exptl_crystal_density_diffrn 1.99
_cell_measurement_temperature 293.
_publ_section_title

;
Synthesis, crystal structures and properties of two alkali-lanthanide
heterometallic coordination polymers
;
loop_
_citation_id
_citation_journal_full
_citation_year
_citation_journal_volume
_citation_page_first
_citation_page_last
_citation_journal_id_ASTM
primary 'Journal of Chemical Crystallography' 2014 44 255 260 JCCYEV
loop_
_publ_author_name
'Martin-Ramos, Pablo'
'Coutinho, Joana T.'
'Silva, Manuela Ramos'
'Pereira, Laura C.J.'
'Matos Beja, Ana M.'
'Martin-Gil, Jesus'
_cell_length_a 15.8777(19)
_cell_length_b 13.4173(18)
_cell_length_c 13.3515(17)
_cell_angle_alpha 90.
_cell_angle_beta 93.585(9)
_cell_angle_gamma 90.
_cell_volume 2838.78
_cell_formula_units_Z 4
_symmetry_space_group_name_H-M 'P 1 21/c 1'
_symmetry_Int_Tables_number 14
_refine_ls_R_factor_all 0.0272
loop_
_symmetry_equiv_pos_site_id
_symmetry_equiv_pos_as_xyz
1 'x, -y+1/2, z+1/2'
2 '-x, -y, -z'
3 '-x, y+1/2, -z+1/2'
4 'x, y, z'
loop_
_atom_type_symbol
_atom_type_oxidation_number
Er3+ 3
O2- -2
N5+ 5
O2- -2
H1+ 1
O2- -2
H1+ 1
O2- -2
H1+ 1
O2- -2
H1+ 1
O2- -2
H1+ 1
O2- -2
H1+ 1
O2- -2
H1+ 1
O2- -2
H1+ 1
O2- -2
H1+ 1
O2- -2
H1+ 1
O2- -2
H1+ 1
O2- -2
H1+ 1
O2- -2
H1+ 1
O2- -2
H1+ 1
O2- -2
H1+ 1
O2- -2
H1+ 1
O2- -2
H1+ 1
O2- -2
H1+ 1
Na1+ 1
loop_
_atom_site_label
_atom_site_type_symbol
_atom_site_symmetry_multiplicity
_atom_site_Wyckoff_symbol
_atom_site_fract_x
_atom_site_fract_y
_atom_site_fract_z
_atom_site_B_iso_or_equiv
_atom_site_occupancy
_atom_site_attached_hydrogens
Er1 Er3+ 4 e 0.248687(7) -0.486436(8) 0.465074(8) 0.01592(4) 1 0
O1 O2- 4 e 0.22231(12) -0.31421(15) 0.46556(15) 0.0261(4) 1 0
O2 O2- 4 e 0.32638(14) -0.20026(15) 0.46491(17) 0.0321(5) 1 0
O3 O2- 4 e 0.35268(13) -0.36425(15) 0.45745(18) 0.0329(5) 1 0
O4 O2- 4 e 0.25020(11) -0.65866(14) 0.50143(16) 0.0243(4) 1 0
O5 O2- 4 e 0.37126(11) -0.57885(14) 0.49933(15) 0.0242(4) 1 0
O6 O2- 4 e 0.37116(13) -0.74243(15) 0.53328(16) 0.0300(5) 1 0
O7 O2- 4 e 0.25070(12) -0.47056(15) 0.64280(14) 0.0237(4) 1 0
O8 O2- 4 e 0.12840(12) -0.48859(14) 0.55690(14) 0.0231(4) 1 0
O9 O2- 4 e 0.13066(13) -0.45872(17) 0.72218(15) 0.0290(4) 1 0
O10 O2- 4 e 0.27659(12) -0.52863(16) 0.30092(15) 0.0270(4) 1 0
O11 O2- 4 e 0.14436(13) -0.50519(15) 0.33219(16) 0.0279(4) 1 0
O12 O2- 4 e 0.17612(14) -0.54744(18) 0.17586(15) 0.0320(5) 1 0
N1 N5+ 4 e 0.30284(18) -0.2893(2) 0.4635(2) 0.0356(6) 1 0
N2 N5+ 4 e 0.33237(16) -0.6623(2) 0.51150(19) 0.0310(5) 1 0
N3 N5+ 4 e 0.16885(16) -0.47334(19) 0.6430(2) 0.0297(5) 1 0
N4 N5+ 4 e 0.19706(17) -0.52733(19) 0.2657(2) 0.0314(6) 1 0
O13 O2- 4 e 0.48538(13) -0.30573(16) 0.34827(16) 0.0269(4) 1 0
H1 H1+ 4 e 0.5283(15) -0.301(3) 0.389(2) 0.04 0.89 0
H2 H1+ 4 e 0.4475(18) -0.328(3) 0.385(2) 0.04 0.89 0
O14 O2- 4 e 0.48937(14) -0.29013(18) 0.09217(17) 0.0339(5) 1 0
H3 H1+ 4 e 0.5279(19) -0.272(3) 0.054(3) 0.051 0.89 0
H4 H1+ 4 e 0.4423(13) -0.293(3) 0.058(3) 0.051 0.89 0
O15 O2- 4 e -0.00036(13) -0.40262(16) 0.22499(17) 0.0293(4) 1 0
H5 H1+ 4 e -0.0385(19) -0.441(3) 0.245(3) 0.044 0.89 0
H6 H1+ 4 e 0.0464(13) -0.425(3) 0.250(3) 0.044 0.89 0
O16 O2- 4 e 0.01788(13) -0.65029(15) 0.30700(16) 0.0273(4) 1 0
H7 H1+ 4 e -0.0290(13) -0.620(3) 0.307(3) 0.041 0.89 0
H8 H1+ 4 e 0.0592(16) -0.610(2) 0.317(3) 0.041 0.89 0
O17 O2- 4 e 0.01487(15) -0.60625(17) 0.06430(17) 0.0337(5) 1 0
H9 H1+ 4 e -0.0266(18) -0.568(3) 0.073(3) 0.051 0.89 0
H10 H1+ 4 e 0.0552(19) -0.574(3) 0.094(3) 0.051 0.89 0
O18 O2- 4 e 0.00191(14) -0.63979(16) 0.53173(17) 0.0304(4) 1 0
H11 H1+ 4 e -0.0378(18) -0.605(3) 0.505(3) 0.046 0.89 0
H12 H1+ 4 e 0.0389(19) -0.594(2) 0.540(3) 0.046 0.89 0
O19 O2- 4 e 0.49767(14) -0.03501(17) 0.13347(17) 0.0321(5) 1 0
H13 H1+ 4 e 0.533(2) -0.047(3) 0.089(2) 0.048 0.89 0
H14 H1+ 4 e 0.459(2) -0.010(3) 0.094(3) 0.048 0.89 0
O20 O2- 4 e 0.15990(15) -0.79929(18) 0.38849(19) 0.0368(5) 1 0
H15 H1+ 4 e 0.188(2) -0.753(2) 0.418(3) 0.055 0.89 0
H16 H1+ 4 e 0.178(3) -0.787(4) 0.3311(16) 0.055 0.89 0
O21 O2- 4 e 0.15255(17) -0.49174(17) 0.92435(18) 0.0369(5) 1 0
H17 H1+ 4 e 0.158(3) -0.5547(4) 0.924(4) 0.055 0.89 0
H18 H1+ 4 e 0.154(3) -0.482(3) 0.8617(7) 0.055 0.89 0
O22 O2- 4 e 0.33935(15) -0.17691(19) 0.24993(19) 0.0385(5) 1 0
H19 H1+ 4 e 0.325(3) -0.178(4) 0.3103(12) 0.058 0.89 0
H20 H1+ 4 e 0.308(2) -0.132(2) 0.223(3) 0.058 0.89 0
O23 O2- 4 e 0.14096(15) -0.30547(18) 0.09551(18) 0.0353(5) 1 0
H21 H1+ 4 e 0.163(3) -0.257(2) 0.066(3) 0.053 0.89 0
H22 H1+ 4 e 0.137(3) -0.287(3) 0.1560(11) 0.053 0.89 0
O24 O2- 4 e 0.13583(14) -0.24122(18) 0.29913(18) 0.0351(5) 1 0
H23 H1+ 4 e 0.167(2) -0.261(3) 0.350(2) 0.053 0.89 0
H24 H1+ 4 e 0.143(3) -0.1797(8) 0.287(3) 0.053 0.89 0
O25 O2- 4 e 0.16203(16) -0.75921(19) 0.16633(19) 0.0394(5) 1 0
H25 H1+ 4 e 0.188(3) -0.788(3) 0.121(3) 0.059 0.89 0
H26 H1+ 4 e 0.178(3) -0.6989(11) 0.165(4) 0.059 0.89 0
O26 O2- 4 e 0.64898(15) -0.40777(18) 0.22106(18) 0.0367(5) 1 0
H27 H1+ 4 e 0.684(2) -0.446(3) 0.252(3) 0.055 0.89 0
H28 H1+ 4 e 0.659(3) -0.3461(8) 0.230(4) 0.055 0.89 0
O27 O2- 4 e 0.34732(15) -0.38727(19) 0.18874(18) 0.0368(5) 1 0
H29 H1+ 4 e 0.330(3) -0.424(3) 0.235(2) 0.055 0.89 0
H30 H1+ 4 e 0.333(3) -0.3302(16) 0.210(3) 0.055 0.89 0
O28 O2- 4 e 0.63651(15) -0.19558(19) 0.25833(19) 0.0374(5) 1 0
H31 H1+ 4 e 0.638(3) -0.205(4) 0.3214(6) 0.056 0.89 0
H32 H1+ 4 e 0.666(2) -0.146(2) 0.243(3) 0.056 0.89 0
O29 O2- 4 e 0.65618(16) -0.44080(18) 0.00821(18) 0.0378(5) 1 0
H33 H1+ 4 e 0.657(3) -0.3785(7) -0.003(4) 0.057 0.89 0
H34 H1+ 4 e 0.654(3) -0.437(4) 0.0716(5) 0.057 0.89 0
O30 O2- 4 e 0.49900(17) -0.0616(2) 0.38775(19) 0.0424(6) 1 0
H35 H1+ 4 e 0.5427(18) -0.067(4) 0.428(3) 0.064 0.89 0
H36 H1+ 4 e 0.4567(19) -0.078(4) 0.420(3) 0.064 0.89 0
Na1 Na1+ 4 e 0.48614(8) -0.17439(9) 0.23428(10) 0.0324(3) 1 0
Na2 Na1+ 4 e 0.49755(8) -0.42143(9) 0.21720(9) 0.0321(3) 1 0
Na3 Na1+ 4 e 0.01151(8) -0.79037(9) 0.41876(9) 0.0300(3) 1 0
Na4 Na1+ 4 e 0.00999(7) -0.75650(9) 0.16936(8) 0.0277(2) 1 0
Na5 Na1+ 4 e 0.24837(7) -0.43312(9) 0.05201(9) 0.0295(3) 1 0
loop_
_atom_site_aniso_label
_atom_site_aniso_type_symbol
_atom_site_aniso_U_11
_atom_site_aniso_U_22
_atom_site_aniso_U_33
_atom_site_aniso_U_12
_atom_site_aniso_U_13
_atom_site_aniso_U_23
Er1 Er3+ 0.01462(5) 0.01720(6) 0.01607(5) 0.00003(4) 0.00206(4) -0.00015(4)
O1 O2- 0.0216(9) 0.0218(10) 0.0348(11) -0.0001(7) 0.0015(8) 0.0007(8)
O2 O2- 0.0390(12) 0.0172(10) 0.0405(13) -0.0060(8) 0.0063(10) -0.0061(8)
O3 O2- 0.0205(10) 0.0228(11) 0.0563(15) 0.0003(8) 0.0096(9) -0.0007(10)
O4 O2- 0.0169(9) 0.0210(10) 0.0348(11) -0.0025(7) 0.0001(8) 0.0034(8)
O5 O2- 0.0185(9) 0.0218(10) 0.0321(11) -0.0027(7) 0.0005(8) 0.0052(8)
O6 O2- 0.0296(11) 0.0218(10) 0.0379(12) 0.0053(8) -0.0031(9) 0.0049(8)
O7 O2- 0.0177(9) 0.0335(11) 0.0199(9) -0.0009(7) 0.0003(7) -0.0023(8)
O8 O2- 0.0167(8) 0.0327(11) 0.0196(9) -0.0010(7) -0.0005(7) -0.0015(8)
O9 O2- 0.0265(10) 0.0421(12) 0.0192(10) 0.0016(9) 0.0086(8) -0.0025(8)
O10 O2- 0.0216(9) 0.0406(12) 0.0188(9) 0.0027(8) 0.0014(7) -0.0021(8)
O11 O2- 0.0198(9) 0.0388(12) 0.0251(10) -0.0004(8) 0.0015(8) -0.0082(8)
O12 O2- 0.0372(12) 0.0400(12) 0.0182(10) -0.0067(10) -0.0019(8) -0.0045(9)
N1 N5+ 0.0364(15) 0.0395(16) 0.0312(14) -0.0021(12) 0.0046(11) -0.0037(11)
N2 N5+ 0.0295(13) 0.0357(15) 0.0278(13) 0.0021(11) 0.0025(10) 0.0015(11)
N3 N5+ 0.0294(13) 0.0308(14) 0.0289(13) 0.0008(10) 0.0026(10) 0.0016(10)
N4 N5+ 0.0352(14) 0.0285(14) 0.0305(14) -0.0043(10) 0.0013(11) 0.0005(10)
O13 O2- 0.0238(10) 0.0310(11) 0.0259(11) -0.0035(8) 0.0014(8) 0.0015(8)
O14 O2- 0.0284(11) 0.0418(13) 0.0316(12) 0.0004(10) 0.0031(9) 0.0082(10)
O15 O2- 0.0248(10) 0.0274(11) 0.0352(12) -0.0024(8) -0.0010(9) 0.0036(9)
O16 O2- 0.0260(10) 0.0259(11) 0.0299(11) -0.0014(8) 0.0005(9) -0.0015(8)
O17 O2- 0.0414(13) 0.0290(12) 0.0307(12) 0.0026(10) 0.0031(10) -0.0022(9)
O18 O2- 0.0336(12) 0.0274(12) 0.0296(11) -0.0012(8) -0.0026(9) 0.0038(9)
O19 O2- 0.0345(12) 0.0344(12) 0.0278(11) 0.0045(9) 0.0051(9) 0.0053(9)
O20 O2- 0.0328(12) 0.0332(13) 0.0437(14) -0.0043(9) -0.0032(10) -0.0019(10)
O21 O2- 0.0472(14) 0.0346(13) 0.0276(11) -0.0017(11) -0.0066(10) 0.0009(10)
O22 O2- 0.0311(12) 0.0422(14) 0.0422(14) 0.0079(10) 0.0032(10) 0.0149(11)
O23 O2- 0.0341(12) 0.0361(13) 0.0366(13) -0.0033(10) 0.0093(10) 0.0010(10)
O24 O2- 0.0299(11) 0.0378(13) 0.0369(13) 0.0005(10) -0.0045(9) 0.0082(10)
O25 O2- 0.0355(13) 0.0398(14) 0.0437(14) -0.0031(10) 0.0083(11) -0.0096(11)
O26 O2- 0.0351(12) 0.0366(13) 0.0376(13) 0.0029(10) -0.0045(10) 0.0030(10)
O27 O2- 0.0350(12) 0.0452(15) 0.0299(12) -0.0135(11) -0.0003(10) 0.0047(10)
O28 O2- 0.0331(12) 0.0392(14) 0.0402(13) -0.0092(10) 0.0037(10) 0.0071(11)
O29 O2- 0.0457(14) 0.0298(12) 0.0379(13) 0.0051(11) 0.0027(11) -0.0039(10)
O30 O2- 0.0522(16) 0.0404(14) 0.0341(14) 0.0091(12) -0.0016(11) 0.0045(11)
Na1 Na1+ 0.0294(6) 0.0282(6) 0.0399(7) -0.0002(5) 0.0037(5) 0.0049(5)
Na2 Na1+ 0.0349(7) 0.0279(6) 0.0335(7) -0.0001(5) 0.0015(5) -0.0010(5)
Na3 Na1+ 0.0332(6) 0.0315(7) 0.0254(6) 0.0011(5) 0.0037(5) 0.0025(5)
Na4 Na1+ 0.0321(6) 0.0280(6) 0.0231(6) 0.0010(5) 0.0032(5) -0.0025(4)
Na5 Na1+ 0.0298(6) 0.0314(7) 0.0270(6) 0.0000(5) -0.0014(5) -0.0035(5)
#End of TTdata_237846-ICSD