
#(C) 2019 by FIZ Karlsruhe - Leibniz Institute for Information Infrastructure.  All rights reserved.
data_237850-ICSD
_database_code_ICSD 237850
_audit_creation_date 2015-08-01
_chemical_name_systematic 'Disodium iron(III) diphosphate'
_chemical_formula_structural 'Na2 Fe P2 O7'
_chemical_formula_sum 'Fe1 Na2 O7 P2'
_exptl_crystal_density_diffrn 3.15
_publ_section_title
'Na2 Fe P2 O7: A safe cathode for rechargeable sodium-ion batteries'
loop_
_citation_id
_citation_journal_full
_citation_year
_citation_journal_volume
_citation_page_first
_citation_page_last
_citation_journal_id_ASTM
primary 'Chemistry of Materials' 2013 25 3480 3487 CMATEX
loop_
_publ_author_name
'Barpanda, Prabeer'
'Liu, Guandong'
'Ling, Chris D.'
'Tamaru, Mao'
'Avdeev, Maxim'
'Chung, Sai-Cheong'
'Yamada, Yuki'
'Yamada, Atsuo'
_cell_length_a 6.44903(5)
_cell_length_b 9.48247(8)
_cell_length_c 10.99331(8)
_cell_angle_alpha 64.8468(4)
_cell_angle_beta 86.2397(5)
_cell_angle_gamma 73.1333(5)
_cell_volume 581.04
_cell_formula_units_Z 4
_symmetry_space_group_name_H-M 'P -1'
_symmetry_Int_Tables_number 2
_refine_ls_R_factor_all 0.0203
loop_
_symmetry_equiv_pos_site_id
_symmetry_equiv_pos_as_xyz
1 '-x, -y, -z'
2 'x, y, z'
loop_
_atom_type_symbol
_atom_type_oxidation_number
Fe2+ 2
P5+ 5
Na1+ 1
O2- -2
loop_
_atom_site_label
_atom_site_type_symbol
_atom_site_symmetry_multiplicity
_atom_site_Wyckoff_symbol
_atom_site_fract_x
_atom_site_fract_y
_atom_site_fract_z
_atom_site_B_iso_or_equiv
_atom_site_occupancy
_atom_site_attached_hydrogens
Fe1 Fe2+ 2 i 0.7220(4) 0.39373(29) 0.21747(22) 0.0106(9) 1. 0
Fe2 Fe2+ 2 i 0.6457(4) -0.00120(29) 0.26610(24) 0.0095(9) 1. 0
P1 P5+ 2 i 0.5758(8) 0.2050(6) 0.4583(5) 0.0143(8) 1. 0
P2 P5+ 2 i 0.1229(7) 0.0481(6) 0.3138(5) 0.0143(8) 1. 0
P3 P5+ 2 i 0.0745(8) 0.3257(6) 0.7885(4) 0.0143(8) 1. 0
P4 P5+ 2 i 0.2895(7) 0.6900(5) 0.0374(5) 0.0143(8) 1. 0
Na1 Na1+ 2 i 0.0283(10) 0.3162(7) 0.4748(6) 0.0287(12) 1. 0
Na2 Na1+ 2 i 0.4107(9) 0.6428(7) 0.3381(5) 0.0287(12) 1. 0
Na3 Na1+ 2 i 0.2116(9) 0.3464(7) 0.1031(6) 0.0287(12) 1. 0
Na4 Na1+ 1 d 0.5 0. 0. 0.0287(12) 0.33333 0
Na5 Na1+ 2 i 0.1899(17) 0.0076(15) 0.0432(11) 0.0287(12) 0.5 0
Na6 Na1+ 2 i 0.3778(25) 0.0180(22) 0.0171(18) 0.0287(12) 0.33333 0
O1 O2- 2 i 0.0169(13) 0.2217(10) 0.3021(8) 0.0105(9) 1. 0
O2 O2- 2 i 0.6536(13) 0.3548(11) 0.4345(8) 0.0105(9) 1. 0
O3 O2- 2 i 0.3037(13) 0.0364(11) 0.2212(9) 0.0105(9) 1. 0
O4 O2- 2 i 0.1132(13) 0.4392(10) 0.8460(8) 0.0105(9) 1. 0
O5 O2- 2 i 0.7676(13) 0.0452(10) 0.5381(8) 0.0105(9) 1. 0
O6 O2- 2 i 0.2845(14) 0.1801(10) 0.8095(7) 0.0105(9) 1. 0
O7 O2- 2 i 0.0291(13) 0.0406(10) 0.6959(8) 0.0105(9) 1. 0
O8 O2- 2 i 0.7716(13) 0.3973(10) 0.0366(7) 0.0105(9) 1. 0
O9 O2- 2 i 0.4278(13) 0.5738(10) 0.1694(8) 0.0105(9) 1. 0
O10 O2- 2 i 0.6198(13) 0.1772(10) 0.0512(8) 0.0105(9) 1. 0
O11 O2- 2 i 0.3738(13) 0.1965(9) 0.5358(8) 0.0105(9) 1. 0
O12 O2- 2 i 0.5543(13) 0.2017(10) 0.3243(8) 0.0105(9) 1. 0
O13 O2- 2 i 0.0871(14) 0.7687(10) 0.1023(8) 0.0105(9) 1. 0
O14 O2- 2 i 0.0390(14) 0.6042(9) 0.3441(8) 0.0105(9) 1. 0
#End of TTdata_237850-ICSD