
#(C) 2019 by FIZ Karlsruhe - Leibniz Institute for Information Infrastructure.  All rights reserved.
data_237991-ICSD
_database_code_ICSD 237991
_audit_creation_date 2015-08-01
_chemical_name_systematic 'Sodium silicopolyoxoxtungstate hydrate'
_chemical_formula_structural 'Na H3 Si W12 O40 (H2 O)17'
_chemical_formula_sum 'H37 Na1 O57 Si1 W12'
_exptl_crystal_density_diffrn 4.76
_cell_measurement_temperature 293.
_publ_section_title

;
Synthesis and crystal structure of two polyoxometalate complexes Na H3 Si W12
O40 * 17 H2 O and [Mn (H2 O)4]2 (H2 Si W12 O40)2 * 13 H2 O
;
loop_
_citation_id
_citation_journal_full
_citation_year
_citation_journal_volume
_citation_page_first
_citation_page_last
_citation_journal_id_ASTM
primary 'Journal of Coordination Chemistry' 2014 67 3454 3462 JCCMBQ
loop_
_publ_author_name
'Wu, Chang-Sheng'
'Zhang, Bi-Song'
'Qiu, Jian-Ping'
'Li, Yun-Xia'
_cell_length_a 13.209(3)
_cell_length_b 13.774(3)
_cell_length_c 14.643(3)
_cell_angle_alpha 90.76(3)
_cell_angle_beta 109.36(3)
_cell_angle_gamma 115.21(3)
_cell_volume 2236.56
_cell_formula_units_Z 2
_symmetry_space_group_name_H-M 'P -1'
_symmetry_Int_Tables_number 2
_refine_ls_R_factor_all 0.0734
loop_
_symmetry_equiv_pos_site_id
_symmetry_equiv_pos_as_xyz
1 '-x, -y, -z'
2 'x, y, z'
loop_
_atom_type_symbol
_atom_type_oxidation_number
Na1+ 1
Si4+ 4
W6+ 6
O2- -2
H1+ 1
O2- -2
H1+ 1
O2- -2
H1+ 1
O2- -2
H1+ 1
O2- -2
H1+ 1
O2- -2
H1+ 1
O2- -2
H1+ 1
O2- -2
H1+ 1
O2- -2
H1+ 1
O2- -2
H1+ 1
O2- -2
H1+ 1
O2- -2
H1+ 1
O2- -2
H1+ 1
O2- -2
H1+ 1
O2- -2
H1+ 1
O2- -2
H1+ 1
O2- -2
H1+ 1
O2- -2
H1+ 1
O2- -2
H1+ 1
O2- -2
H1+ 1
O2- -2
H1+ 1
loop_
_atom_site_label
_atom_site_type_symbol
_atom_site_symmetry_multiplicity
_atom_site_Wyckoff_symbol
_atom_site_fract_x
_atom_site_fract_y
_atom_site_fract_z
_atom_site_B_iso_or_equiv
_atom_site_occupancy
_atom_site_attached_hydrogens
Na1 Na1+ 2 i 0.9918(8) 0.2730(8) 1.2643(5) 0.031(2) 1 0
Si1 Si4+ 2 i 1.0323(4) 0.2585(5) 1.7752(3) 0.0109(12) 1 0
W1 W6+ 2 i 1.10302(7) 0.53375(7) 1.83891(5) 0.0164(2) 1 0
W2 W6+ 2 i 1.30624(7) 0.45772(7) 1.76635(5) 0.0172(2) 1 0
W3 W6+ 2 i 0.84051(7) 0.34117(7) 1.83773(5) 0.0172(2) 1 0
W4 W6+ 2 i 0.75696(7) 0.04931(7) 1.77033(5) 0.0185(2) 1 0
W5 W6+ 2 i 1.08032(7) 0.30738(7) 1.55291(5) 0.0170(2) 1 0
W6 W6+ 2 i 0.87996(7) 0.38890(7) 1.62355(5) 0.0171(2) 1 0
W7 W6+ 2 i 0.94103(7) -0.02060(8) 1.70464(6) 0.0201(2) 1 0
W8 W6+ 2 i 0.79063(7) 0.09617(7) 1.55482(5) 0.0180(2) 1 0
W9 W6+ 2 i 1.00572(7) 0.21319(8) 2.00485(5) 0.0176(2) 1 0
W10 W6+ 2 i 1.26975(7) 0.40540(7) 2.00322(5) 0.0167(2) 1 0
W11 W6+ 2 i 1.18744(7) 0.13947(8) 1.94131(5) 0.0184(2) 1 0
W12 W6+ 2 i 1.23054(7) 0.19258(8) 1.70577(6) 0.0199(2) 1 0
O1 O2- 2 i 1.0475(12) 0.0329(12) 1.8405(9) 0.022(3) 1 0
O2 O2- 2 i 1.3257(11) 0.4322(12) 1.8997(8) 0.021(3) 1 0
O3 O2- 2 i 0.6858(12) 0.0452(13) 1.4373(9) 0.027(4) 1 0
O4 O2- 2 i 0.7959(11) 0.2317(12) 1.5807(8) 0.018(3) 1 0
O5 O2- 2 i 1.2084(11) 0.5200(12) 1.7803(8) 0.017(3) 1 0
H1 H1+ 2 i 1.156 0.5351 1.7841 0.021 1 0
O6 O2- 2 i 0.8091(12) -0.0562(13) 1.7505(9) 0.026(3) 1 0
O7 O2- 2 i 0.9933(11) 0.3800(12) 1.5794(8) 0.020(3) 1 0
O8 O2- 2 i 0.9381(12) 0.1780(13) 1.5315(9) 0.028(3) 1 0
H2 H1+ 2 i 0.8733 0.1244 1.5209 0.034 1 0
O9 O2- 2 i 1.1566(11) 0.3425(12) 2.0704(8) 0.015(3) 1 0
O10 O2- 2 i 0.9648(11) 0.4869(13) 1.8753(8) 0.021(3) 1 0
O11 O2- 2 i 0.8379(11) -0.0194(13) 1.5796(8) 0.021(3) 1 0
O12 O2- 2 i 0.6911(11) 0.0373(12) 1.6301(8) 0.016(3) 1 0
O13 O2- 2 i 0.9211(11) 0.1405(12) 1.7201(8) 0.017(3) 1 0
O14 O2- 2 i 1.3881(13) 0.5031(14) 2.0982(9) 0.027(3) 1 0
O15 O2- 2 i 1.2513(11) 0.1834(11) 1.8390(8) 0.015(3) 1 0
O16 O2- 2 i 1.1729(11) 0.2246(12) 1.5782(8) 0.020(3) 1 0
O17 O2- 2 i 1.1678(10) 0.6726(11) 1.8757(7) 0.0105(13) 1 0
O18 O2- 2 i 1.1262(10) 0.2896(12) 1.7182(8) 0.019(3) 1 0
O19 O2- 2 i 1.1807(12) 0.4880(13) 1.9460(8) 0.022(3) 1 0
O20 O2- 2 i 0.9620(14) 0.1889(13) 2.1032(9) 0.029(4) 1 0
O21 O2- 2 i 0.7611(11) 0.1893(12) 1.7820(8) 0.018(3) 1 0
H3 H1+ 2 i 0.7939 0.2479 1.8194 0.021 1 0
O22 O2- 2 i 1.0686(12) 0.3243(12) 1.4362(9) 0.023(3) 1 0
O23 O2- 2 i 0.7888(12) 0.3737(13) 1.7084(9) 0.024(3) 1 0
O24 O2- 2 i 0.8767(10) 0.1015(12) 1.9018(8) 0.018(3) 1 0
O25 O2- 2 i 0.9822(10) 0.3471(11) 1.7706(7) 0.010(3) 1 0
O26 O2- 2 i 1.4350(13) 0.5699(13) 1.7805(10) 0.030(4) 1 0
O27 O2- 2 i 0.6272(12) -0.0334(14) 1.7883(9) 0.029(3) 1 0
O28 O2- 2 i 0.7405(13) 0.3512(14) 1.8776(11) 0.035(4) 1 0
O29 O2- 2 i 1.2285(11) 0.4303(13) 1.6249(9) 0.023(4) 1 0
O30 O2- 2 i 1.0994(12) 0.1327(14) 2.0219(9) 0.028(4) 1 0
O31 O2- 2 i 0.9969(12) 0.5274(13) 1.7052(9) 0.022(3) 1 0
O32 O2- 2 i 1.2612(12) 0.0682(13) 1.9967(10) 0.030(4) 1 0
O33 O2- 2 i 0.8001(12) 0.4265(13) 1.5291(9) 0.024(3) 1 0
O34 O2- 2 i 1.3025(12) 0.2834(13) 2.0164(9) 0.025(4) 1 0
O35 O2- 2 i 0.9303(12) -0.1481(12) 1.6868(9) 0.023(3) 1 0
O36 O2- 2 i 1.0741(13) 0.0650(14) 1.6731(9) 0.030(3) 1 0
O37 O2- 2 i 1.3201(13) 0.1378(15) 1.6884(10) 0.034(4) 1 0
O38 O2- 2 i 1.0994(11) 0.2542(12) 1.8904(8) 0.014(3) 1 0
O39 O2- 2 i 1.3492(12) 0.3440(13) 1.7444(9) 0.025(3) 1 0
O40 O2- 2 i 0.9315(11) 0.3010(13) 1.9445(8) 0.022(3) 1 0
O41 O2- 2 i 0.5239(18) 0.274(2) 0.9397(16) 0.086(9) 1 0
H4 H1+ 2 i 0.5142 0.3128 0.8994 0.103 1 0
H5 H1+ 2 i 0.5729 0.2761 0.9929 0.103 1 0
O42 O2- 2 i 1.600(3) 0.992(4) 1.139(3) 0.19(2) 1 0
H6 H1+ 2 i 1.6659 1.0385 1.1842 0.232 1 0
H7 H1+ 2 i 1.5501 0.9282 1.1321 0.232 1 0
O43 O2- 2 i 1.454(2) 0.846(3) 1.1686(18) 0.119(13) 1 0
H8 H1+ 2 i 1.4525 0.8387 1.2238 0.143 1 0
H9 H1+ 2 i 1.3933 0.7918 1.1322 0.143 1 0
O44 O2- 2 i 0.526(3) 0.200(3) 1.420(2) 0.131(10) 1 0
H10 H1+ 2 i 0.5314 0.2508 1.4547 0.157 1 0
H11 H1+ 2 i 0.4869 0.1578 1.3673 0.157 1 0
O45 O2- 2 i 0.471(5) 0.057(6) 1.038(4) 0.133(17) 0.5 0
H12 H1+ 2 i 0.4865 0.024 1.0019 0.159 0.5 0
H13 H1+ 2 i 0.4464 0.0518 1.0829 0.159 0.5 0
O46 O2- 2 i 0.525(3) 0.244(3) 1.258(2) 0.040(9) 0.5 0
H14 H1+ 2 i 0.4658 0.2552 1.2353 0.048 0.5 0
H15 H1+ 2 i 0.5961 0.258 1.2831 0.048 0.5 0
O47 O2- 2 i 0.675(3) 0.125(3) 0.988(2) 0.152(11) 1 0
H16 H1+ 2 i 0.6964 0.0968 0.9538 0.183 1 0
H17 H1+ 2 i 0.7179 0.135 1.0464 0.183 1 0
O48 O2- 2 i 0.5276(17) 0.160(2) 1.642(2) 0.122(12) 1 0
H18 H1+ 2 i 0.4906 0.168 1.5875 0.147 1 0
H19 H1+ 2 i 0.4758 0.119 1.6611 0.147 1 0
O49 O2- 2 i 0.542(2) 0.412(2) 1.6733(14) 0.099(10) 1 0
H20 H1+ 2 i 0.6129 0.4276 1.6873 0.119 1 0
H21 H1+ 2 i 0.5105 0.394 1.7142 0.119 1 0
O50 O2- 2 i 0.8126(16) 0.146(2) 1.2853(14) 0.072(7) 1 0
H22 H1+ 2 i 0.8781 0.192 1.3241 0.087 1 0
H23 H1+ 2 i 0.7726 0.0793 1.2768 0.087 1 0
O51 O2- 2 i 0.5965(16) 0.4739(18) 1.4720(12) 0.062(6) 1 0
H24 H1+ 2 i 0.6123 0.472 1.5308 0.075 1 0
H25 H1+ 2 i 0.6154 0.536 1.4604 0.075 1 0
O52 O2- 2 i 0.6584(18) -0.273(2) 1.7475(13) 0.068(6) 1 0
H26 H1+ 2 i 0.6109 -0.3164 1.7695 0.082 1 0
H27 H1+ 2 i 0.6394 -0.2298 1.7176 0.082 1 0
O53 O2- 2 i 0.3449(16) 0.278(2) 1.4733(14) 0.086(9) 1 0
H28 H1+ 2 i 0.314 0.2305 1.5022 0.104 1 0
H29 H1+ 2 i 0.3994 0.2774 1.4588 0.104 1 0
O54 O2- 2 i 0.727(2) 0.283(2) 1.3306(14) 0.090(9) 1 0
H30 H1+ 2 i 0.7519 0.2422 1.3166 0.108 1 0
H31 H1+ 2 i 0.7462 0.3211 1.383 0.108 1 0
O55 O2- 2 i 0.6248(13) -0.4118(14) 1.6255(9) 0.034(4) 1 0
H32 H1+ 2 i 0.6094 -0.4228 1.5661 0.041 1 0
H33 H1+ 2 i 0.5836 -0.3795 1.6172 0.041 1 0
O56 O2- 2 i 1.1927(12) 0.4060(14) 1.2608(9) 0.032(4) 1 0
H34 H1+ 2 i 1.2051 0.4415 1.3122 0.039 1 0
H35 H1+ 2 i 1.2348 0.3749 1.2662 0.039 1 0
O57 O2- 2 i 0.551(2) 0.201(2) 1.1263(15) 0.097(9) 1 0
H36 H1+ 2 i 0.5168 0.1929 1.0666 0.117 1 0
H37 H1+ 2 i 0.542 0.217 1.1763 0.117 1 0
O58 O2- 2 i 0.5463(17) 0.3172(16) 1.5591(13) 0.055(5) 1 0
H38 H1+ 2 i 0.5702 0.3816 1.5805 0.066 1 0
H39 H1+ 2 i 0.5912 0.2908 1.586 0.066 1 0
loop_
_atom_site_aniso_label
_atom_site_aniso_type_symbol
_atom_site_aniso_U_11
_atom_site_aniso_U_22
_atom_site_aniso_U_33
_atom_site_aniso_U_12
_atom_site_aniso_U_13
_atom_site_aniso_U_23
Na1 Na1+ 0.042(5) 0.040(7) 0.021(4) 0.028(5) 0.011(4) 0.000(4)
Si1 Si4+ 0.008(2) 0.011(4) 0.008(2) 0.002(3) 0.000(2) -0.004(2)
W1 W6+ 0.0140(4) 0.0068(5) 0.0232(4) 0.0049(4) 0.0008(3) -0.0045(3)
W2 W6+ 0.0116(4) 0.0121(6) 0.0238(4) 0.0034(4) 0.0045(3) -0.0010(3)
W3 W6+ 0.0156(4) 0.0114(5) 0.0252(4) 0.0077(4) 0.0065(3) -0.0016(3)
W4 W6+ 0.0145(4) 0.0095(5) 0.0241(4) 0.0010(4) 0.0050(3) -0.0028(3)
W5 W6+ 0.0179(4) 0.0150(6) 0.0173(4) 0.0076(4) 0.0056(3) -0.0004(3)
W6 W6+ 0.0162(4) 0.0112(5) 0.0199(4) 0.0083(4) -0.0006(3) -0.0016(3)
W7 W6+ 0.0206(4) 0.0071(5) 0.0280(4) 0.0067(4) 0.0035(4) -0.0038(3)
W8 W6+ 0.0158(4) 0.0097(5) 0.0177(4) 0.0025(4) -0.0016(3) -0.0056(3)
W9 W6+ 0.0167(4) 0.0160(6) 0.0166(4) 0.0065(4) 0.0036(3) -0.0009(3)
W10 W6+ 0.0128(4) 0.0113(5) 0.0167(4) 0.0034(4) -0.0022(3) -0.0047(3)
W11 W6+ 0.0193(4) 0.0137(6) 0.0221(4) 0.0112(4) 0.0029(3) 0.0017(3)
W12 W6+ 0.0215(4) 0.0167(6) 0.0283(4) 0.0137(4) 0.0109(4) 0.0025(3)
O1 O2- 0.023(7) 0.007(9) 0.025(7) 0.000(7) 0.004(6) 0.003(6)
O2 O2- 0.020(3) 0.021(3) 0.021(3) 0.0098(16) 0.0073(14) 0.0038(12)
O3 O2- 0.020(7) 0.015(10) 0.024(7) 0.000(7) -0.006(6) -0.003(6)
O4 O2- 0.019(7) 0.008(9) 0.018(6) 0.007(6) -0.006(5) -0.001(5)
O5 O2- 0.015(6) 0.012(9) 0.020(6) 0.006(6) 0.001(5) -0.003(5)
O6 O2- 0.026(3) 0.026(3) 0.026(3) 0.0117(17) 0.0094(15) 0.0045(12)
O7 O2- 0.020(3) 0.020(3) 0.020(3) 0.0095(16) 0.0067(14) 0.0038(12)
O8 O2- 0.028(3) 0.028(3) 0.029(3) 0.0129(18) 0.0103(16) 0.0051(12)
O9 O2- 0.015(3) 0.015(3) 0.015(3) 0.0068(15) 0.0056(14) 0.0023(11)
O10 O2- 0.021(3) 0.021(3) 0.022(3) 0.0101(16) 0.0079(15) 0.0035(12)
O11 O2- 0.021(3) 0.021(3) 0.021(3) 0.0096(16) 0.0080(15) 0.0036(12)
O12 O2- 0.016(3) 0.016(3) 0.016(3) 0.0077(15) 0.0056(14) 0.0024(11)
O13 O2- 0.017(3) 0.017(3) 0.017(3) 0.0080(16) 0.0063(14) 0.0026(11)
O14 O2- 0.027(3) 0.028(3) 0.027(3) 0.0126(17) 0.0100(15) 0.0046(12)
O15 O2- 0.015(3) 0.015(3) 0.015(3) 0.0069(15) 0.0058(14) 0.0025(11)
O16 O2- 0.015(6) 0.019(10) 0.026(6) 0.007(7) 0.010(6) -0.002(6)
O17 O2- 0.0110(17) 0.0082(11) 0.0121(16) 0.0050(10) 0.0035(10) 0.0005(10)
O18 O2- 0.012(6) 0.020(10) 0.018(6) 0.008(7) -0.003(5) 0.009(6)
O19 O2- 0.022(3) 0.021(3) 0.021(3) 0.0101(16) 0.0074(15) 0.0038(12)
O20 O2- 0.056(10) 0.012(10) 0.025(7) 0.020(8) 0.018(7) 0.004(6)
O21 O2- 0.018(3) 0.017(3) 0.018(3) 0.0085(16) 0.0063(14) 0.0027(12)
O22 O2- 0.036(8) 0.012(9) 0.026(7) 0.012(7) 0.015(6) 0.011(6)
O23 O2- 0.024(3) 0.024(3) 0.024(3) 0.0112(17) 0.0085(15) 0.0043(12)
O24 O2- 0.007(6) 0.027(10) 0.022(6) 0.009(7) 0.005(5) 0.008(6)
O25 O2- 0.010(3) 0.010(3) 0.010(3) 0.0044(14) 0.0043(13) 0.0012(11)
O26 O2- 0.026(8) 0.016(11) 0.041(8) 0.003(7) 0.016(7) -0.004(7)
O27 O2- 0.028(3) 0.028(3) 0.029(3) 0.0129(18) 0.0105(16) 0.0049(12)
O28 O2- 0.028(8) 0.012(10) 0.054(9) 0.002(8) 0.012(7) -0.009(7)
O29 O2- 0.019(7) 0.028(11) 0.025(7) 0.011(7) 0.012(6) 0.004(6)
O30 O2- 0.023(7) 0.037(12) 0.018(7) 0.020(8) -0.006(6) 0.001(6)
O31 O2- 0.022(3) 0.022(3) 0.022(3) 0.0106(16) 0.0073(15) 0.0041(12)
O32 O2- 0.020(7) 0.018(11) 0.042(8) 0.005(7) 0.008(7) 0.002(7)
O33 O2- 0.024(3) 0.024(3) 0.024(3) 0.0112(17) 0.0086(15) 0.0043(12)
O34 O2- 0.022(7) 0.031(11) 0.024(7) 0.013(8) 0.009(6) -0.003(6)
O35 O2- 0.026(7) 0.013(10) 0.024(6) 0.009(7) 0.000(6) -0.009(6)
O36 O2- 0.030(3) 0.029(4) 0.030(3) 0.0136(18) 0.0109(16) 0.0050(12)
O37 O2- 0.034(4) 0.034(4) 0.034(4) 0.0156(19) 0.0127(16) 0.0059(12)
O38 O2- 0.014(3) 0.014(3) 0.014(3) 0.0068(15) 0.0048(14) 0.0026(11)
O39 O2- 0.025(3) 0.025(3) 0.025(3) 0.0115(17) 0.0094(15) 0.0041(12)
O40 O2- 0.019(7) 0.018(10) 0.024(6) 0.002(7) 0.011(6) 0.002(6)
O41 O2- 0.058(13) 0.06(2) 0.092(15) 0.007(13) 0.005(12) 0.021(14)
O42 O2- 0.08(2) 0.22(6) 0.22(4) 0.04(3) 0.03(2) 0.10(4)
O43 O2- 0.074(17) 0.14(4) 0.111(19) 0.013(19) 0.042(15) 0.027(19)
O44 O2- 0.130(10) 0.131(10) 0.131(10) 0.060(5) 0.049(4) 0.023(2)
O45 O2- 0.133(17) 0.133(17) 0.133(17) 0.061(8) 0.049(6) 0.024(3)
O46 O2- 0.019(15) 0.02(2) 0.07(2) -0.004(15) 0.025(15) -0.010(16)
O47 O2- 0.152(11) 0.152(11) 0.152(11) 0.070(5) 0.057(4) 0.027(2)
O48 O2- 0.021(10) 0.10(3) 0.20(3) 0.023(14) -0.009(14) 0.00(2)
O49 O2- 0.101(19) 0.14(3) 0.060(12) 0.06(2) 0.037(13) 0.022(15)
O50 O2- 0.039(10) 0.09(2) 0.087(14) 0.015(12) 0.039(10) 0.019(13)
O51 O2- 0.066(13) 0.056(17) 0.047(10) 0.028(13) -0.001(10) 0.014(10)
O52 O2- 0.068(6) 0.068(6) 0.069(6) 0.031(3) 0.026(2) 0.0124(15)
O53 O2- 0.029(10) 0.09(2) 0.082(14) -0.013(12) 0.014(10) -0.022(13)
O54 O2- 0.13(2) 0.13(3) 0.066(12) 0.09(2) 0.056(14) 0.048(15)
O55 O2- 0.034(4) 0.035(4) 0.034(4) 0.0163(19) 0.0120(17) 0.0062(12)
O56 O2- 0.029(8) 0.040(12) 0.020(7) 0.022(8) -0.008(6) -0.011(6)
O57 O2- 0.13(2) 0.07(2) 0.060(13) 0.037(18) 0.011(14) -0.002(12)
O58 O2- 0.070(13) 0.014(12) 0.091(13) 0.017(10) 0.045(11) 0.008(10)
#End of TTdata_237991-ICSD