
#(C) 2019 by FIZ Karlsruhe - Leibniz Institute for Information Infrastructure.  All rights reserved.
data_237919-ICSD
_database_code_ICSD 237919
_audit_creation_date 2015-08-01
_chemical_name_systematic 'Lutetium disodium fluoride bis(carbonate)'
_chemical_formula_structural 'Lu Na2 F (C O3)2'
_chemical_formula_sum 'C2 F1 Lu1 Na2 O6'
_chemical_name_structure_type Na2Y(CO3)2OH
_exptl_crystal_density_diffrn 3.97
_cell_measurement_temperature 293.
_publ_section_title

;
Na8 Lu2 (C O3)6 F2 and Na3 Lu (C O3)2 F2: Rare earth fluoride carbonates as
deep-U V nonlinear optical material
;
loop_
_citation_id
_citation_journal_full
_citation_year
_citation_journal_volume
_citation_page_first
_citation_page_last
_citation_journal_id_ASTM
primary 'Chemistry of Materials' 2013 25 3147 3153 CMATEX
loop_
_publ_author_name
'Luo, Min'
'Ye, Ning'
'Zou, Guohong'
'Lin, Chensheng'
'Cheng, Wendan'
_cell_length_a 17.534(4)
_cell_length_b 6.1084(14)
_cell_length_c 11.285(3)
_cell_angle_alpha 90.
_cell_angle_beta 95.429(16)
_cell_angle_gamma 90.
_cell_volume 1203.25
_cell_formula_units_Z 8
_symmetry_space_group_name_H-M 'C 1 2/c 1'
_symmetry_Int_Tables_number 15
_refine_ls_R_factor_all 0.0259
loop_
_symmetry_equiv_pos_site_id
_symmetry_equiv_pos_as_xyz
1 'x, -y, z+1/2'
2 '-x, -y, -z'
3 '-x, y, -z+1/2'
4 'x, y, z'
5 'x+1/2, -y+1/2, z+1/2'
6 '-x+1/2, -y+1/2, -z'
7 '-x+1/2, y+1/2, -z+1/2'
8 'x+1/2, y+1/2, z'
loop_
_atom_type_symbol
_atom_type_oxidation_number
Lu3+ 3
Na1+ 1
O2- -2
F1- -1
C4+ 4
loop_
_atom_site_label
_atom_site_type_symbol
_atom_site_symmetry_multiplicity
_atom_site_Wyckoff_symbol
_atom_site_fract_x
_atom_site_fract_y
_atom_site_fract_z
_atom_site_B_iso_or_equiv
_atom_site_occupancy
_atom_site_attached_hydrogens
Lu1 Lu3+ 8 f 0.060075(17) 0.15674(5) 0.63139(3) 0.00803(18) 1 0
Na1 Na1+ 8 f 0.10998(19) -0.4037(6) 0.8819(3) 0.0160(7) 1 0
Na2 Na1+ 8 f 0.2641(2) 0.0887(7) 0.8559(3) 0.0255(9) 1 0
O1 O2- 8 f 0.0780(3) 0.5087(9) 0.5847(6) 0.0175(13) 1 0
O2 O2- 8 f 0.1053(4) -0.1981(10) 0.7004(6) 0.0154(13) 1 0
O3 O2- 8 f -0.0062(3) 0.1833(9) 0.4344(6) 0.0115(12) 1 0
O4 O2- 8 f 0.1959(3) 0.1884(9) 0.6737(5) 0.0141(12) 1 0
O5 O2- 8 f 0.1485(3) 0.0670(10) 0.4976(5) 0.0132(12) 1 0
O6 O2- 8 f 0.2688(3) -0.0256(10) 0.5660(6) 0.0181(13) 1 0
F1 F1- 8 f 0.0614(3) 0.2269(10) 0.8256(5) 0.0271(13) 1 0
C1 C4+ 8 f 0.0634(4) 0.7033(14) 0.6162(7) 0.0113(16) 1 0
C2 C4+ 8 f 0.2065(4) 0.0782(14) 0.5789(7) 0.0109(15) 1 0
loop_
_atom_site_aniso_label
_atom_site_aniso_type_symbol
_atom_site_aniso_U_11
_atom_site_aniso_U_22
_atom_site_aniso_U_33
_atom_site_aniso_U_12
_atom_site_aniso_U_13
_atom_site_aniso_U_23
Lu1 Lu3+ 0.0093(2) 0.0064(2) 0.0083(2) 0.00047(11) 0.00070(14) -0.00063(11)
Na1 Na1+ 0.0163(17) 0.0181(18) 0.0139(17) 0.0003(14) 0.0026(14) 0.0009(14)
Na2 Na1+ 0.035(2) 0.022(2) 0.0185(19) 0.0039(17) -0.0024(17) 0.0010(16)
O1 O2- 0.023(3) 0.005(3) 0.024(3) 0.005(2) -0.002(3) -0.006(2)
O2 O2- 0.021(3) 0.011(3) 0.012(3) -0.002(2) -0.007(2) 0.003(2)
O3 O2- 0.010(3) 0.010(3) 0.015(3) 0.003(2) 0.001(2) 0.000(2)
O4 O2- 0.013(3) 0.015(3) 0.014(3) -0.001(2) 0.002(2) -0.004(2)
O5 O2- 0.013(3) 0.019(3) 0.008(3) 0.001(2) -0.001(2) 0.002(2)
O6 O2- 0.011(3) 0.019(3) 0.024(3) 0.004(2) 0.004(2) -0.006(3)
F1 F1- 0.024(3) 0.034(3) 0.023(3) -0.003(3) 0.003(2) -0.006(3)
C1 C4+ 0.014(4) 0.006(4) 0.014(4) -0.004(3) 0.004(3) 0.005(3)
C2 C4+ 0.008(3) 0.011(4) 0.013(4) -0.003(3) 0.001(3) 0.002(3)
#End of TTdata_237919-ICSD