
#(C) 2019 by FIZ Karlsruhe - Leibniz Institute for Information Infrastructure.  All rights reserved.
data_237917-ICSD
_database_code_ICSD 237917
_audit_creation_date 2015-08-01
_chemical_name_systematic 'Trisodium lutetium dicarbonate difluoride'
_chemical_formula_structural 'Na3 Lu (C O3)2 F2'
_chemical_formula_sum 'C2 F2 Lu1 Na3 O6'
_exptl_crystal_density_diffrn 3.96
_cell_measurement_temperature 293.
_publ_section_title

;
Na8 Lu2 (C O3)6 F2 and Na3 Lu (C O3)2 F2: Rare earth fluoride carbonates as
deep-U V nonlinear optical material
;
loop_
_citation_id
_citation_journal_full
_citation_year
_citation_journal_volume
_citation_page_first
_citation_page_last
_citation_journal_id_ASTM
primary 'Chemistry of Materials' 2013 25 3147 3153 CMATEX
loop_
_publ_author_name
'Luo, Min'
'Ye, Ning'
'Zou, Guohong'
'Lin, Chensheng'
'Cheng, Wendan'
_cell_length_a 7.073(6)
_cell_length_b 29.77(2)
_cell_length_c 6.909(7)
_cell_angle_alpha 90.
_cell_angle_beta 111.924(15)
_cell_angle_gamma 90.
_cell_volume 1349.57
_cell_formula_units_Z 8
_symmetry_space_group_name_H-M 'C 1 c 1'
_symmetry_Int_Tables_number 9
_refine_ls_R_factor_all 0.0355
loop_
_symmetry_equiv_pos_site_id
_symmetry_equiv_pos_as_xyz
1 'x, -y, z+1/2'
2 'x, y, z'
3 'x+1/2, -y+1/2, z+1/2'
4 'x+1/2, y+1/2, z'
loop_
_atom_type_symbol
_atom_type_oxidation_number
Lu3+ 3
Na1+ 1
Lu3+ 3
Na1+ 1
Lu3+ 3
Na1+ 1
C4+ 4
O2- -2
F1- -1
loop_
_atom_site_label
_atom_site_type_symbol
_atom_site_symmetry_multiplicity
_atom_site_Wyckoff_symbol
_atom_site_fract_x
_atom_site_fract_y
_atom_site_fract_z
_atom_site_B_iso_or_equiv
_atom_site_occupancy
_atom_site_attached_hydrogens
Lu1 Lu3+ 4 a 0.37312(8) 0.9761(2) 0.49855(8) 0.0126(3) 0.5 0
Na1 Na1+ 4 a 0.37312(8) 0.9761(2) 0.49855(8) 0.0126(3) 0.5 0
Lu2 Lu3+ 4 a 0.87196(7) 0.9746(2) 0.49985(8) 0.0107(3) 0.5 0
Na2 Na1+ 4 a 0.87196(7) 0.9746(2) 0.49985(8) 0.0107(3) 0.5 0
Lu3 Lu3+ 4 a 0.12247(11) 0.774121(10) -0.00163(12) 0.00849(14) 1 0
Na3 Na1+ 4 a 0.6307(18) 0.7816(2) 0.0160(17) 0.0440(17) 1 0
Na4 Na1+ 4 a 0.0016(10) 0.86950(17) 0.2607(9) 0.0154(11) 1 0
Na5 Na1+ 4 a 0.2470(9) 0.88171(19) 0.7569(8) 0.0149(9) 1 0
Na6 Na1+ 4 a 0.7467(11) 0.8805(2) 0.7609(10) 0.0212(11) 1 0
Na7 Na1+ 4 a 0.4906(11) 0.86907(18) 0.2536(11) 0.0182(12) 1 0
C1 C4+ 4 a 0.8495(15) 0.8043(4) 0.5160(15) 0.008(2) 1 0
C2 C4+ 4 a 0.115(2) 0.0547(3) 0.518(2) 0.013(2) 1 0
C3 C4+ 4 a 0.6032(19) 0.0566(3) 0.510(2) 0.012(2) 1 0
C4 C4+ 4 a 0.3658(14) 0.8073(5) 0.5046(14) 0.013(3) 1 0
O1 O2- 4 a 0.9228(12) 0.8428(2) 0.5494(12) 0.0161(14) 1 0
O2 O2- 4 a 0.9281(12) 0.7716(2) 0.6496(12) 0.0104(15) 1 0
O3 O2- 4 a 0.1888(13) 0.0225(3) 0.6360(13) 0.0262(18) 1 0
O4 O2- 4 a 0.6722(11) 0.0960(3) 0.5623(12) 0.0215(17) 1 0
O5 O2- 4 a 0.6921(10) 0.7937(2) 0.3596(10) 0.0112(13) 1 0
O6 O2- 4 a 0.4518(12) 0.0466(3) 0.3453(13) 0.036(2) 1 0
O7 O2- 4 a 0.9547(12) 0.0435(4) 0.3479(13) 0.039(2) 1 0
O8 O2- 4 a 0.1738(12) 0.0945(3) 0.5564(12) 0.0265(18) 1 0
O9 O2- 4 a 0.6887(13) 0.0232(3) 0.6357(14) 0.0281(19) 1 0
O10 O2- 4 a 0.4525(18) 0.7725(3) 0.6194(17) 0.032(3) 1 0
O11 O2- 4 a 0.2220(13) 0.7991(4) 0.3260(13) 0.043(3) 1 0
O12 O2- 4 a 0.4156(14) 0.8464(3) 0.5571(16) 0.0278(19) 1 0
F1 F1- 4 a 0.3327(15) 0.8191(3) 0.9659(14) 0.020(2) 1 0
F2 F1- 4 a 0.8890(12) 0.8225(3) 0.9807(13) 0.018(2) 1 0
F3 F1- 4 a 0.6154(19) 0.92933(19) 0.4719(14) 0.0206(17) 1 0
F4 F1- 4 a 0.1018(15) 0.9303(2) 0.4747(15) 0.0183(16) 1 0
loop_
_atom_site_aniso_label
_atom_site_aniso_type_symbol
_atom_site_aniso_U_11
_atom_site_aniso_U_22
_atom_site_aniso_U_33
_atom_site_aniso_U_12
_atom_site_aniso_U_13
_atom_site_aniso_U_23
Lu1 Lu3+ 0.0127(5) 0.0157(7) 0.0091(5) 0.0014(3) 0.0036(4) 0.0005(3)
Na1 Na1+ 0.0127(5) 0.0157(7) 0.0091(5) 0.0014(3) 0.0036(4) 0.0005(3)
Lu2 Lu3+ 0.0084(5) 0.0125(8) 0.0112(5) 0.0011(3) 0.0036(4) 0.0015(3)
Na2 Na1+ 0.0084(5) 0.0125(8) 0.0112(5) 0.0011(3) 0.0036(4) 0.0015(3)
Lu3 Lu3+ 0.00791(19) 0.0108(2) 0.00599(19) 0.0003(2) 0.00169(13) -0.0009(2)
Na3 Na1+ 0.053(3) 0.036(3) 0.046(4) -0.011(4) 0.022(3) -0.028(3)
Na4 Na1+ 0.026(2) 0.010(3) 0.014(2) 0.0021(19) 0.0121(17) 0.0047(17)
Na5 Na1+ 0.022(2) 0.005(2) 0.014(2) 0.0026(19) 0.0024(16) -0.0040(19)
Na6 Na1+ 0.030(3) 0.018(3) 0.016(2) 0.006(2) 0.0093(18) 0.002(2)
Na7 Na1+ 0.023(2) 0.016(3) 0.018(2) -0.002(2) 0.0111(17) 0.0021(19)
C1 C4+ 0.008(2) 0.008(2) 0.008(2) 0.0004(10) 0.0035(12) 0.0001(10)
C2 C4+ 0.017(4) 0.017(4) 0.004(5) -0.010(5) 0.001(4) -0.011(4)
C3 C4+ 0.012(2) 0.012(2) 0.012(2) -0.0005(10) 0.0045(11) -0.0002(10)
C4 C4+ 0.012(3) 0.013(3) 0.013(3) 0.0005(10) 0.0052(14) -0.0005(10)
O1 O2- 0.0163(16) 0.0159(17) 0.0164(17) -0.0011(10) 0.0065(10) 0.0005(10)
O2 O2- 0.0110(17) 0.0104(17) 0.0096(17) 0.0005(9) 0.0037(10) 0.0000(9)
O3 O2- 0.023(4) 0.019(4) 0.031(4) 0.002(3) 0.005(3) -0.004(3)
O4 O2- 0.022(4) 0.015(4) 0.030(5) 0.005(3) 0.012(3) 0.006(3)
O5 O2- 0.019(3) 0.005(3) 0.009(3) 0.000(3) 0.006(3) 0.000(2)
O6 O2- 0.019(4) 0.046(6) 0.033(5) 0.013(4) -0.001(3) -0.016(4)
O7 O2- 0.015(4) 0.062(7) 0.032(5) 0.009(4) 0.000(3) -0.011(4)
O8 O2- 0.030(4) 0.027(5) 0.023(5) -0.001(3) 0.010(3) 0.003(3)
O9 O2- 0.028(2) 0.027(2) 0.028(2) 0.0003(10) 0.0094(11) -0.0001(10)
O10 O2- 0.058(6) 0.023(5) 0.033(5) 0.029(4) 0.039(5) 0.017(3)
O11 O2- 0.024(4) 0.087(9) 0.015(4) -0.004(5) 0.003(3) -0.027(5)
O12 O2- 0.049(5) 0.009(4) 0.049(5) -0.011(4) 0.045(4) -0.009(4)
F1 F1- 0.020(2) 0.020(2) 0.021(2) 0.0003(10) 0.0075(11) 0.0006(10)
F2 F1- 0.020(4) 0.006(4) 0.032(5) 0.009(2) 0.015(4) 0.010(3)
F3 F1- 0.040(3) 0.015(3) 0.010(4) -0.009(4) 0.013(3) 0.003(3)
F4 F1- 0.017(4) 0.017(3) 0.014(4) -0.003(3) -0.002(3) 0.002(3)
#End of TTdata_237917-ICSD