
#(C) 2019 by FIZ Karlsruhe - Leibniz Institute for Information Infrastructure.  All rights reserved.
data_238092-ICSD
_database_code_ICSD 238092
_audit_creation_date 2015-08-01
_chemical_name_systematic 'Sodium dodecabarium heptaborate tetrafluoride'
_chemical_formula_structural 'Na Ba12 (B O3)7 F4'
_chemical_formula_sum 'B7 Ba12 F4 Na1 O21'
_exptl_crystal_density_diffrn 5.13
_cell_measurement_temperature 301.
_publ_section_title
'Two new barium borate fluorides A Ba12 (B O3)7 F4 (A = Li and Na)'
loop_
_citation_id
_citation_journal_full
_citation_year
_citation_journal_volume
_citation_page_first
_citation_page_last
_citation_journal_id_ASTM
primary 'Inorganic Chemistry' 2014 53 2501 2505 INOCAJ
loop_
_publ_author_name
'Zhao, Jing'
'Li, R.K.'
_cell_length_a 13.6443(9)
_cell_length_b 13.6443(9)
_cell_length_c 15.0214(17)
_cell_angle_alpha 90
_cell_angle_beta 90
_cell_angle_gamma 90
_cell_volume 2796.48
_cell_formula_units_Z 4
_symmetry_space_group_name_H-M 'I 4/m c m'
_symmetry_Int_Tables_number 140
_refine_ls_R_factor_all 0.0295
loop_
_symmetry_equiv_pos_site_id
_symmetry_equiv_pos_as_xyz
1 'y, x, -z+1/2'
2 '-y, -x, -z+1/2'
3 '-y, x, -z'
4 'y, -x, -z'
5 'x, -y, -z+1/2'
6 '-x, y, -z+1/2'
7 'x, y, -z'
8 '-x, -y, -z'
9 '-y, -x, z+1/2'
10 'y, x, z+1/2'
11 'y, -x, z'
12 '-y, x, z'
13 '-x, y, z+1/2'
14 'x, -y, z+1/2'
15 '-x, -y, z'
16 'x, y, z'
17 'y+1/2, x+1/2, -z'
18 '-y+1/2, -x+1/2, -z'
19 '-y+1/2, x+1/2, -z+1/2'
20 'y+1/2, -x+1/2, -z+1/2'
21 'x+1/2, -y+1/2, -z'
22 '-x+1/2, y+1/2, -z'
23 'x+1/2, y+1/2, -z+1/2'
24 '-x+1/2, -y+1/2, -z+1/2'
25 '-y+1/2, -x+1/2, z'
26 'y+1/2, x+1/2, z'
27 'y+1/2, -x+1/2, z+1/2'
28 '-y+1/2, x+1/2, z+1/2'
29 '-x+1/2, y+1/2, z'
30 'x+1/2, -y+1/2, z'
31 '-x+1/2, -y+1/2, z+1/2'
32 'x+1/2, y+1/2, z+1/2'
loop_
_atom_type_symbol
_atom_type_oxidation_number
Ba2+ 2
Na1+ 1
F1- -1
O2- -2
B3+ 3
O2- -2
loop_
_atom_site_label
_atom_site_type_symbol
_atom_site_symmetry_multiplicity
_atom_site_Wyckoff_symbol
_atom_site_fract_x
_atom_site_fract_y
_atom_site_fract_z
_atom_site_B_iso_or_equiv
_atom_site_occupancy
_atom_site_attached_hydrogens
Ba1 Ba2+ 32 m 0.20418(3) 0.07046(3) 0.13368(3) 0.01604(17) 1 0
Ba2 Ba2+ 8 g 0.5 0. 0.13288(5) 0.0213(2) 1 0
Ba3 Ba2+ 8 h 0.17465(4) 0.32535(4) 0. 0.0138(2) 1 0
Na1 Na1+ 4 c 0. 0. 0. 0.030(2) 1 0
F1 F1- 16 k 0.0767(4) 0.1428(4) 0. 0.0215(12) 1 0
O1 O2- 16 k 0.1454(4) 0.5223(4) 0. 0.0158(13) 1 0
O2 O2- 8 h 0.3085(5) 0.1915(5) 0. 0.0164(19) 1 0
O3 O2- 16 l 0.3777(4) 0.1223(4) 0.2079(5) 0.0211(14) 1 0
O4 O2- 32 m 0.2566(5) -0.1177(4) 0.1758(4) 0.0355(14) 1 0
B1 B3+ 16 l 0.3389(6) -0.1611(6) 0.2141(8) 0.022(2) 1 0
B2 B3+ 8 h 0.3797(7) 0.1203(7) 0. 0.009(2) 1 0
B3 B3+ 4 a 0. 0. 0.25 0.026(5) 1 0
O5 O2- 8 f 0. 0. 0.1487(13) 0.023(4) 0.5 0
O6 O2- 32 m 0.0778(17) 0.0422(18) 0.2841(15) 0.042(7) 0.25 0
loop_
_atom_site_aniso_label
_atom_site_aniso_type_symbol
_atom_site_aniso_U_11
_atom_site_aniso_U_22
_atom_site_aniso_U_33
_atom_site_aniso_U_12
_atom_site_aniso_U_13
_atom_site_aniso_U_23
Ba1 Ba2+ 0.0157(2) 0.0166(2) 0.0158(3) 0.00067(15) 0.00133(14) 0.00186(14)
Ba2 Ba2+ 0.0232(3) 0.0232(3) 0.0175(4) 0.0085(3) 0. 0.
Ba3 Ba2+ 0.0119(3) 0.0119(3) 0.0174(4) 0.0032(3) 0. 0.
Na1 Na1+ 0.018(2) 0.018(2) 0.055(6) 0. 0. 0.
F1 F1- 0.018(3) 0.016(3) 0.030(3) -0.004(2) 0. 0.
O1 O2- 0.015(3) 0.013(3) 0.020(3) 0.000(2) 0. 0.
O2 O2- 0.013(3) 0.013(3) 0.023(5) 0.002(3) 0. 0.
O3 O2- 0.024(2) 0.024(2) 0.016(3) -0.002(3) 0.006(2) -0.006(2)
O4 O2- 0.047(3) 0.027(3) 0.032(3) -0.005(3) -0.021(3) 0.003(2)
B1 B3+ 0.023(3) 0.023(3) 0.020(5) -0.007(5) 0.000(3) 0.000(3)
B2 B3+ 0.012(4) 0.012(4) 0.003(5) 0.001(5) 0. 0.
B3 B3+ 0.015(6) 0.015(6) 0.050(16) 0. 0. 0.
O5 O2- 0.026(6) 0.026(6) 0.015(9) 0. 0. 0.
O6 O2- 0.038(13) 0.052(15) 0.037(14) 0.014(11) -0.030(11) -0.028(11)
#End of TTdata_238092-ICSD