
#(C) 2019 by FIZ Karlsruhe - Leibniz Institute for Information Infrastructure.  All rights reserved.
data_238101-ICSD
_database_code_ICSD 238101
_audit_creation_date 2015-08-01
_chemical_name_systematic 'Trisodium octafluoroprotactinate'
_chemical_formula_structural 'Na3 Pa F8'
_chemical_formula_sum 'F8 Na3 Pa1'
_exptl_crystal_density_diffrn 4.67
_cell_measurement_temperature 100.
_publ_section_title
'Structural and spectroscopic studies of fluoroprotactinates'
loop_
_citation_id
_citation_journal_full
_citation_year
_citation_journal_volume
_citation_page_first
_citation_page_last
_citation_journal_id_ASTM
primary 'Inorganic Chemistry' 2014 53 1750 1755 INOCAJ
loop_
_publ_author_name
'De Sio, Stephanie M.'
'Wilson, Richard E.'
_cell_length_a 5.4415(9)
_cell_length_b 5.4415(9)
_cell_length_c 10.8482(19)
_cell_angle_alpha 90.
_cell_angle_beta 90.
_cell_angle_gamma 90.
_cell_volume 321.21
_cell_formula_units_Z 2
_symmetry_space_group_name_H-M 'I 4/m m m'
_symmetry_Int_Tables_number 139
_refine_ls_R_factor_all 0.0116
loop_
_symmetry_equiv_pos_site_id
_symmetry_equiv_pos_as_xyz
1 'y, x, -z'
2 '-y, -x, -z'
3 '-y, x, -z'
4 'y, -x, -z'
5 '-x, y, -z'
6 'x, -y, -z'
7 'x, y, -z'
8 '-x, -y, -z'
9 '-y, -x, z'
10 'y, x, z'
11 'y, -x, z'
12 '-y, x, z'
13 'x, -y, z'
14 '-x, y, z'
15 '-x, -y, z'
16 'x, y, z'
17 'y+1/2, x+1/2, -z+1/2'
18 '-y+1/2, -x+1/2, -z+1/2'
19 '-y+1/2, x+1/2, -z+1/2'
20 'y+1/2, -x+1/2, -z+1/2'
21 '-x+1/2, y+1/2, -z+1/2'
22 'x+1/2, -y+1/2, -z+1/2'
23 'x+1/2, y+1/2, -z+1/2'
24 '-x+1/2, -y+1/2, -z+1/2'
25 '-y+1/2, -x+1/2, z+1/2'
26 'y+1/2, x+1/2, z+1/2'
27 'y+1/2, -x+1/2, z+1/2'
28 '-y+1/2, x+1/2, z+1/2'
29 'x+1/2, -y+1/2, z+1/2'
30 '-x+1/2, y+1/2, z+1/2'
31 '-x+1/2, -y+1/2, z+1/2'
32 'x+1/2, y+1/2, z+1/2'
loop_
_atom_type_symbol
_atom_type_oxidation_number
Pa5+ 5
Na1+ 1
F1- -1
loop_
_atom_site_label
_atom_site_type_symbol
_atom_site_symmetry_multiplicity
_atom_site_Wyckoff_symbol
_atom_site_fract_x
_atom_site_fract_y
_atom_site_fract_z
_atom_site_B_iso_or_equiv
_atom_site_occupancy
_atom_site_attached_hydrogens
Pa1 Pa5+ 2 a 0. 0. 0. 0.00746(14) 1 0
Na1 Na1+ 4 d -0.5 0. 0.25 0.0119(5) 1 0
Na2 Na1+ 2 b -0.5 -0.5 0. 0.0116(6) 1 0
F1 F1- 16 m 0.2333(3) 0.2333(3) 0.11691(16) 0.0159(4) 1 0
loop_
_atom_site_aniso_label
_atom_site_aniso_type_symbol
_atom_site_aniso_U_11
_atom_site_aniso_U_22
_atom_site_aniso_U_33
_atom_site_aniso_U_12
_atom_site_aniso_U_13
_atom_site_aniso_U_23
Pa1 Pa5+ 0.00840(15) 0.00840(15) 0.00559(16) 0. 0. 0.
Na1 Na1+ 0.0133(7) 0.0133(7) 0.0091(10) 0. 0. 0.
Na2 Na1+ 0.0107(9) 0.0107(9) 0.0134(15) 0. 0. 0.
F1 F1- 0.0176(5) 0.0176(5) 0.0125(8) -0.0038(7) -0.0022(5) -0.0022(5)
#End of TTdata_238101-ICSD