
#(C) 2019 by FIZ Karlsruhe - Leibniz Institute for Information Infrastructure.  All rights reserved.
data_238570-ICSD
_database_code_ICSD 238570
_audit_creation_date 2016-02-01
_chemical_name_systematic 'Dipotassium sodium trialuminium dodecafluoride'
_chemical_formula_structural 'K2 Na Al3 F12'
_chemical_formula_sum 'Al3 F12 K2 Na1'
_exptl_crystal_density_diffrn 2.92
_cell_measurement_temperature 297.
_publ_section_title
'Na F - K F - Al F3 system: phase transition in K2 Na Al3 F12 ternary fluoride'
loop_
_citation_id
_citation_journal_full
_citation_year
_citation_journal_volume
_citation_page_first
_citation_page_last
_citation_journal_id_ASTM
primary 'Inorganic Chemistry' 2015 54 5960 5969 INOCAJ
loop_
_publ_author_name
'Kirik, Sergei D.'
'Zaitseva, Yulia N.'
'Leshok, Darya Yu.'
'Samoilo, Alexandr S.'
'Dubinin, Petr S.'
'Yakimov, Igor S.'
'Simakov, Dmitry A.'
'Gusev, Alexandr O.'
_cell_length_a 11.8793(8)
_cell_length_b 6.9711(4)
_cell_length_c 11.2531(6)
_cell_angle_alpha 90.
_cell_angle_beta 90.
_cell_angle_gamma 90.
_cell_volume 931.88
_cell_formula_units_Z 4
_symmetry_space_group_name_H-M 'P c m n'
_symmetry_Int_Tables_number 62
_refine_ls_R_factor_all 0.0789
loop_
_symmetry_equiv_pos_site_id
_symmetry_equiv_pos_as_xyz
1 '-x+1/2, y, z+1/2'
2 'x, -y+1/2, z'
3 'x+1/2, y+1/2, -z+1/2'
4 '-x, -y, -z'
5 'x+1/2, -y, -z+1/2'
6 '-x, y+1/2, -z'
7 '-x+1/2, -y+1/2, z+1/2'
8 'x, y, z'
loop_
_atom_type_symbol
_atom_type_oxidation_number
Al3+ 3
F1- -1
K1+ 1
Na1+ 1
Al3+ 3
F1- -1
loop_
_atom_site_label
_atom_site_type_symbol
_atom_site_symmetry_multiplicity
_atom_site_Wyckoff_symbol
_atom_site_fract_x
_atom_site_fract_y
_atom_site_fract_z
_atom_site_B_iso_or_equiv
_atom_site_occupancy
_atom_site_attached_hydrogens
Al1 Al3+ 8 d 0.1689(6) 0.5045(6) 0.7543(8) 0. 1. 0
F1 F1- 8 d 0.0256(9) 0.5516(8) 0.8026(7) 0.02533 1. 0
F2 F1- 4 c 0.1993(7) 0.75 0.7114(1) 0.02533 1. 0
F3 F1- 8 d 0.2180(7) 0.5438(2) 0.9046(9) 0.02533 1. 0
F4 F1- 4 c 0.1496(6) 0.25 0.7907(3) 0.02533 1. 0
F5 F1- 8 d 0.1232(9) 0.4616(3) 0.6056(7) 0.02533 1. 0
F6 F1- 8 d 0.3100(2) 0.4247(7) 0.7101(9) 0.02533 1. 0
K1 K1+ 4 c 0.1046(6) 0.75 0.0580(4) 0. 1. 0
K2 K1+ 4 c 0.4253(5) 0.75 0.9534(7) 0. 1. 0
Na1 Na1+ 4 c 0.2335(2) 0.25 0.4801(3) 0. 1. 0
Al2 Al3+ 4 c 0.4248(8) 0.25 0.6983(7) 0. 1. 0
F7 F1- 4 c 0.4206(9) 0.25 0.8596(3) 0.02533 1. 0
F8 F1- 4 c 0.4206(9) 0.25 0.5354(6) 0.02533 1. 0
loop_
_atom_site_aniso_label
_atom_site_aniso_type_symbol
_atom_site_aniso_U_11
_atom_site_aniso_U_22
_atom_site_aniso_U_33
_atom_site_aniso_U_12
_atom_site_aniso_U_13
_atom_site_aniso_U_23
Al1 Al3+ 0.03053 0.04367 0.01283 0. 0. 0.
K1 K1+ 0.0306 0.05527 0.06614 0. 0. 0.
K2 K1+ 0.02752 0.01598 0.08314 0. 0. 0.
Na1 Na1+ 0.01358 0.00955 0.06133 0. 0. 0.
Al2 Al3+ 0.01616 0.0337 0.046 0. 0. 0.
#End of TTdata_238570-ICSD