
#(C) 2019 by FIZ Karlsruhe - Leibniz Institute for Information Infrastructure.  All rights reserved.
data_238700-ICSD
_database_code_ICSD 238700
_audit_creation_date 2016-02-01
_chemical_name_systematic
'Sodium tungsten molybdenum oxide fluoride (3/0.5/0.5/4/1)'
_chemical_formula_structural 'Na3 W0.5 Mo0.5 O4 F'
_chemical_formula_sum 'F1 Mo0.5 Na3 O4 W0.5'
_chemical_name_structure_type Ca2NaFSiO4
_exptl_crystal_density_diffrn 3.57
_publ_section_title

;
Structure, stability, and photoluminescence in the anti-perovskites Na3 W1-x
Mox O4 F (0<=x<=1)
;
loop_
_citation_id
_citation_journal_full
_citation_year
_citation_journal_volume
_citation_page_first
_citation_page_last
_citation_journal_id_ASTM
primary 'Journal of Solid State Chemistry' 2015 230 279 286 JSSCBI
loop_
_publ_author_name
'Sullivan, Eirin'
'Avdeev, Maxim'
'Blom, Douglas A.'
'Gahrs, Casey J.'
'Green, Robert L.'
'Hamaker, Christopher G.'
'Vogt, Thomas'
_cell_length_a 5.5985(2)
_cell_length_b 7.5309(2)
_cell_length_c 12.8936(4)
_cell_angle_alpha 90.
_cell_angle_beta 90.
_cell_angle_gamma 90.
_cell_volume 543.62
_cell_formula_units_Z 4
_symmetry_space_group_name_H-M 'P n m a'
_symmetry_Int_Tables_number 62
_refine_ls_R_factor_all 0.0351
loop_
_symmetry_equiv_pos_site_id
_symmetry_equiv_pos_as_xyz
1 'x+1/2, y, -z+1/2'
2 'x, -y+1/2, z'
3 '-x+1/2, y+1/2, z+1/2'
4 '-x, -y, -z'
5 '-x+1/2, -y, z+1/2'
6 '-x, y+1/2, -z'
7 'x+1/2, -y+1/2, -z+1/2'
8 'x, y, z'
loop_
_atom_type_symbol
_atom_type_oxidation_number
Na1+ 1
F1- -1
W6+ 6
Mo6+ 6
O2- -2
loop_
_atom_site_label
_atom_site_type_symbol
_atom_site_symmetry_multiplicity
_atom_site_Wyckoff_symbol
_atom_site_fract_x
_atom_site_fract_y
_atom_site_fract_z
_atom_site_B_iso_or_equiv
_atom_site_occupancy
_atom_site_attached_hydrogens
Na1 Na1+ 4 c 0.223(1) 0.25 0.8921(5) 0.0226(9) 1. 0
Na2 Na1+ 8 d 0.2297(9) 0.5418(6) 0.1810(4) 0.0226(9) 1. 0
F1 F1- 4 c 0.0042(8) 0.25 0.7332(3) 0.0166(8) 1. 0
W1 W6+ 4 c 0.2106(7) 0.25 0.4139(3) 0.0101(8) 0.5 0
Mo1 Mo6+ 4 c 0.2106(7) 0.25 0.4139(3) 0.0101(8) 0.5 0
O1 O2- 4 c 0.3904(7) 0.25 0.0785(5) 0.0283(5) 1. 0
O2 O2- 4 c 0.326(1) 0.25 0.5443(4) 0.0283(5) 1. 0
O3 O2- 8 d 0.3097(6) 0.0594(4) 0.3491(3) 0.0283(5) 1. 0
#End of TTdata_238700-ICSD