
#(C) 2019 by FIZ Karlsruhe - Leibniz Institute for Information Infrastructure.  All rights reserved.
data_239003-ICSD
_database_code_ICSD 239003
_audit_creation_date 2016-02-01
_chemical_name_systematic 'Sodium strontium borate'
_chemical_formula_structural 'Na Sr B O3'
_chemical_formula_sum 'B1 Na1 O3 Sr1'
_chemical_name_structure_type RbHgSbSe3
_exptl_crystal_density_diffrn 3.82
_cell_measurement_temperature 296.
_publ_section_title

;
Effect of cation substitution on structural transition: synthesis,
characterization and theoretical studies of Na Ca4 B3 O9, Na Ca B O3, Na Sr B
O3 and Li4 Ca B2 O6
;
loop_
_citation_id
_citation_journal_full
_citation_year
_citation_journal_volume
_citation_page_first
_citation_page_last
_citation_journal_id_ASTM
primary 'Physical Chemistry Chemical Physics' 2015 17 26359 26368 PPCPFQ
loop_
_publ_author_name
'Yang, Yun'
'Su, Xin'
'Pan, Shilie'
'Yang, Zhihua'
_cell_length_a 5.325(4)
_cell_length_b 9.268(7)
_cell_length_c 6.075(5)
_cell_angle_alpha 90.
_cell_angle_beta 100.671(8)
_cell_angle_gamma 90.
_cell_volume 294.62
_cell_formula_units_Z 4
_symmetry_space_group_name_H-M 'P 1 21/c 1'
_symmetry_Int_Tables_number 14
_refine_ls_R_factor_all 0.0266
loop_
_symmetry_equiv_pos_site_id
_symmetry_equiv_pos_as_xyz
1 'x, -y+1/2, z+1/2'
2 '-x, -y, -z'
3 '-x, y+1/2, -z+1/2'
4 'x, y, z'
loop_
_atom_type_symbol
_atom_type_oxidation_number
Sr2+ 2
Na1+ 1
B3+ 3
O2- -2
loop_
_atom_site_label
_atom_site_type_symbol
_atom_site_symmetry_multiplicity
_atom_site_Wyckoff_symbol
_atom_site_fract_x
_atom_site_fract_y
_atom_site_fract_z
_atom_site_B_iso_or_equiv
_atom_site_occupancy
_atom_site_attached_hydrogens
Sr1 Sr2+ 4 e 0.74655(9) 0.08619(5) 0.21775(7) 0.00887(15) 1 0
Na1 Na1+ 4 e 0.7556(4) -0.2582(2) 0.0322(3) 0.0125(4) 1 0
B1 B3+ 4 e 0.7490(11) 0.4204(6) 0.2400(9) 0.0091(10) 1 0
O1 O2- 4 e 0.7738(7) -0.0605(4) -0.1892(6) 0.0114(7) 1 0
O2 O2- 4 e 0.9259(6) 0.3553(4) 0.1351(6) 0.0103(7) 1 0
O3 O2- 4 e 0.4613(7) -0.1571(4) 0.2165(6) 0.0122(8) 1 0
loop_
_atom_site_aniso_label
_atom_site_aniso_type_symbol
_atom_site_aniso_U_11
_atom_site_aniso_U_22
_atom_site_aniso_U_33
_atom_site_aniso_U_12
_atom_site_aniso_U_13
_atom_site_aniso_U_23
Sr1 Sr2+ 0.0081(2) 0.0105(2) 0.0083(2) -0.0005(2) 0.00244(16) -0.00042(18)
Na1 Na1+ 0.0126(10) 0.0123(10) 0.0141(11) 0.0012(8) 0.0063(8) 0.0026(8)
B1 B3+ 0.012(3) 0.010(2) 0.005(3) 0.001(2) 0.000(2) 0.003(2)
O1 O2- 0.0079(17) 0.0103(18) 0.0156(19) -0.0002(14) 0.0011(14) 0.0021(14)
O2 O2- 0.0039(17) 0.0158(18) 0.0109(19) 0.0023(14) 0.0006(13) 0.0003(14)
O3 O2- 0.0088(19) 0.0131(19) 0.015(2) 0.0031(15) 0.0035(14) 0.0007(15)
#End of TTdata_239003-ICSD