
#(C) 2019 by FIZ Karlsruhe - Leibniz Institute for Information Infrastructure.  All rights reserved.
data_239096-ICSD
_database_code_ICSD 239096
_audit_creation_date 2016-08-01
_chemical_name_systematic 'Sodium niobium oxo bis(selenate(IV))'
_chemical_formula_structural 'Na Nb O (Se O3)2'
_chemical_formula_sum 'Na1 Nb1 O7 Se2'
_exptl_crystal_density_diffrn 4.14
_cell_measurement_temperature 293.
_publ_section_title
'Explorations of new SHG materials in the alkali-metal-Nb5+-selenite system'
loop_
_citation_id
_citation_journal_full
_citation_year
_citation_journal_volume
_citation_page_first
_citation_page_last
_citation_journal_id_ASTM
primary 'Inorganic Chemistry' 2015 54 10978 10984 INOCAJ
loop_
_publ_author_name
'Cao, Xue-Li'
'Hu, Chun-Li'
'Kong, Fang'
'Mao, Jiang-Gao'
_cell_length_a 10.952(4)
_cell_length_b 7.676(3)
_cell_length_c 7.357(3)
_cell_angle_alpha 90.
_cell_angle_beta 90.
_cell_angle_gamma 90.
_cell_volume 618.48
_cell_formula_units_Z 4
_symmetry_space_group_name_H-M 'C m c 21'
_symmetry_Int_Tables_number 36
_refine_ls_R_factor_all 0.0159
loop_
_symmetry_equiv_pos_site_id
_symmetry_equiv_pos_as_xyz
1 'x, -y, z+1/2'
2 '-x, -y, z+1/2'
3 '-x, y, z'
4 'x, y, z'
5 'x+1/2, -y+1/2, z+1/2'
6 '-x+1/2, -y+1/2, z+1/2'
7 '-x+1/2, y+1/2, z'
8 'x+1/2, y+1/2, z'
loop_
_atom_type_symbol
_atom_type_oxidation_number
Na1+ 1
Nb5+ 5
Se4+ 4
O2- -2
loop_
_atom_site_label
_atom_site_type_symbol
_atom_site_symmetry_multiplicity
_atom_site_Wyckoff_symbol
_atom_site_fract_x
_atom_site_fract_y
_atom_site_fract_z
_atom_site_B_iso_or_equiv
_atom_site_occupancy
_atom_site_attached_hydrogens
Na1 Na1+ 4 a 0. 0.0191(5) -0.1359(4) 0.0291(10) 1 0
Nb1 Nb5+ 4 a 0. 0.48720(7) 0.40068(6) 0.00886(12) 1 0
Se1 Se4+ 8 b 0.20276(3) 0.23297(5) 0.12633(11) 0.01296(11) 1 0
O1 O2- 8 b 0.1275(4) 0.3270(5) 0.3096(5) 0.0348(10) 1 0
O2 O2- 8 b 0.1255(3) 0.3311(5) -0.0544(5) 0.0318(9) 1 0
O3 O2- 8 b 0.1405(3) 0.0392(4) 0.1219(5) 0.0275(8) 1 0
O4 O2- 4 a 0. 0.5891(4) 0.1313(6) 0.0132(7) 1 0
loop_
_atom_site_aniso_label
_atom_site_aniso_type_symbol
_atom_site_aniso_U_11
_atom_site_aniso_U_22
_atom_site_aniso_U_33
_atom_site_aniso_U_12
_atom_site_aniso_U_13
_atom_site_aniso_U_23
Na1 Na1+ 0.0201(11) 0.0461(18) 0.021(3) 0. 0. -0.0133(16)
Nb1 Nb5+ 0.0090(2) 0.0089(2) 0.0087(3) 0. 0. -0.0032(2)
Se1 Se4+ 0.01485(18) 0.0164(2) 0.0077(2) 0.00925(13) 0.0002(2) -0.0002(3)
O1 O2- 0.049(2) 0.050(2) 0.0061(17) 0.0369(19) 0.0014(16) -0.0018(15)
O2 O2- 0.041(2) 0.044(2) 0.010(2) 0.0345(17) -0.0008(16) 0.0010(15)
O3 O2- 0.0288(15) 0.0325(19) 0.021(2) -0.0117(13) -0.0007(17) -0.0005(17)
O4 O2- 0.0212(17) 0.0138(18) 0.0046(18) 0. 0. -0.0001(19)
#End of TTdata_239096-ICSD