
#(C) 2019 by FIZ Karlsruhe - Leibniz Institute for Information Infrastructure.  All rights reserved.
data_239391-ICSD
_database_code_ICSD 239391
_audit_creation_date 2016-08-01
_chemical_name_systematic 'Sodium vanadate - beta phase'
_chemical_formula_structural 'Na0.33 V2 O5'
_chemical_formula_sum 'Na0.33 O5 V2'
_chemical_name_structure_type NaxV2O5
_exptl_crystal_density_diffrn 3.56
_publ_section_title

;
Pressure-induced non-superconducting phase of beta-Na0.33 V2 O5 and the
mechanism of high-pressure phase transitions in beta-Na0.33 V2 O5 and
beta-Li0.33 V2 O5 at room temperature
;
loop_
_citation_id
_citation_journal_full
_citation_year
_citation_journal_volume
_citation_page_first
_citation_page_last
_citation_journal_id_ASTM
primary 'Journal of Physics: Condensed Matter' 2016 28 035401-1 035401-9 JCOMEL
loop_
_publ_author_name
'Grzechnik, A.'
'Ueda, Y.'
'Yamauchi, T.'
'Hanfland, M.'
'Hering, P.'
'Potapkin, V.'
'Friese, K.'
_cell_length_a 15.451(4)
_cell_length_b 3.6159(2)
_cell_length_c 10.084(2)
_cell_angle_alpha 90
_cell_angle_beta 109.55(2)
_cell_angle_gamma 90
_cell_volume 530.91
_cell_formula_units_Z 6
_symmetry_space_group_name_H-M 'C 1 2/m 1'
_symmetry_Int_Tables_number 12
_refine_ls_R_factor_all 0.0345
loop_
_symmetry_equiv_pos_site_id
_symmetry_equiv_pos_as_xyz
1 '-x, y, -z'
2 '-x, -y, -z'
3 'x, -y, z'
4 'x, y, z'
5 '-x+1/2, y+1/2, -z'
6 '-x+1/2, -y+1/2, -z'
7 'x+1/2, -y+1/2, z'
8 'x+1/2, y+1/2, z'
loop_
_atom_type_symbol
_atom_type_oxidation_number
V4+ 4.83
O2- -2
Na1+ 1
loop_
_atom_site_label
_atom_site_type_symbol
_atom_site_symmetry_multiplicity
_atom_site_Wyckoff_symbol
_atom_site_fract_x
_atom_site_fract_y
_atom_site_fract_z
_atom_site_B_iso_or_equiv
_atom_site_occupancy
_atom_site_attached_hydrogens
V1 V4+ 4 i 0.3373(4) 0 0.1005(4) 0.0055(3) 1. 0
V2 V4+ 4 i 0.1165(3) 0 0.1191(3) 0.0057(3) 1. 0
V3 V4+ 4 i 0.2873(2) 0 0.4092(3) 0.0057(3) 1. 0
O1 O2- 2 a 0 0 0 0.0107(17) 1. 0
O2 O2- 4 i 0.8134(11) 0 0.0539(12) 0.0071(10) 1. 0
O3 O2- 4 i 0.6342(10) 0 0.0780(12) 0.0084(10) 1. 0
O4 O2- 4 i 0.4367(13) 0 0.2197(15) 0.0133(14) 1. 0
O5 O2- 4 i 0.2605(10) 0 0.2215(11) 0.0098(10) 1. 0
O6 O2- 4 i 0.1088(11) 0 0.2742(12) 0.0140(11) 1. 0
O7 O2- 4 i 0.2429(9) 0 0.5745(11) 0.0075(10) 1. 0
O8 O2- 4 i 0.3978(11) 0 0.4712(13) 0.0164(12) 1. 0
Na1 Na1+ 4 i 0.0011(14) 0 0.4025(16) 0.0262(17) 0.5 0
#End of TTdata_239391-ICSD