
#(C) 2019 by FIZ Karlsruhe - Leibniz Institute for Information Infrastructure.  All rights reserved.
data_239566-ICSD
_database_code_ICSD 239566
_audit_creation_date 2016-08-01
_chemical_name_systematic 'Sodium uranyl hydroxo tellurate(VI)'
_chemical_formula_structural 'Na2 ((U O2) Te O5)'
_chemical_formula_sum 'Na2 O7 Te1 U1'
_exptl_crystal_density_diffrn 5.91
_cell_measurement_temperature 293.
_publ_section_title

;
Rich non-centrosymmetry in a Na-U-Te oxo-system achieved under extreme
conditions
;
loop_
_citation_id
_citation_journal_full
_citation_year
_citation_journal_volume
_citation_page_first
_citation_page_last
_citation_journal_id_ASTM
primary 'Inorganic Chemistry' 2016 55 4626 4635 INOCAJ
loop_
_publ_author_name
'Xiao, Bin'
'Kegler, Philip'
'Bosbach, Dirk'
'Alekseev, Evgeny V.'
_cell_length_a 7.5387(3)
_cell_length_b 10.3687(5)
_cell_length_c 7.5266(4)
_cell_angle_alpha 90.
_cell_angle_beta 90.
_cell_angle_gamma 90.
_cell_volume 588.32
_cell_formula_units_Z 4
_symmetry_space_group_name_H-M 'A m a 2'
_symmetry_Int_Tables_number 40
_refine_ls_R_factor_all 0.0317
loop_
_symmetry_equiv_pos_site_id
_symmetry_equiv_pos_as_xyz
1 'x+1/2, -y, z'
2 '-x+1/2, y, z'
3 '-x, -y, z'
4 'x, y, z'
5 'x+1/2, -y+1/2, z+1/2'
6 '-x+1/2, y+1/2, z+1/2'
7 '-x, -y+1/2, z+1/2'
8 'x, y+1/2, z+1/2'
loop_
_atom_type_symbol
_atom_type_oxidation_number
U6+ 6
Te6+ 6
Na1+ 1
O2- -2
loop_
_atom_site_label
_atom_site_type_symbol
_atom_site_symmetry_multiplicity
_atom_site_Wyckoff_symbol
_atom_site_fract_x
_atom_site_fract_y
_atom_site_fract_z
_atom_site_B_iso_or_equiv
_atom_site_occupancy
_atom_site_attached_hydrogens
U1 U6+ 4 b 0.25 0.23637(7) 0.84204(13) 0.0054(3) 1 0
Te1 Te6+ 4 a 0. 0. 1.0740(2) 0.0005(3) 1 0
Na1 Na1+ 4 b 0.25 0.2307(7) 1.330(2) 0.0014(19) 1 0
Na2 Na1+ 4 a 0. 0. 0.586(4) 0.025(3) 1 0
O1 O2- 4 b 0.25 0.3251(15) 1.051(2) 0.009(3) 1 0
O2 O2- 4 b 0.25 0.1462(12) 0.6334(18) 0.002(3) 1 0
O3 O2- 8 c 0.0181(13) -0.1294(9) 0.8947(17) 0.009(2) 1 0
O4 O2- 4 b 0.25 0.0516(13) 1.069(2) 0.005(3) 1 0
O5 O2- 8 c 0.0463(14) -0.1214(9) 1.2558(16) 0.009(2) 1 0
loop_
_atom_site_aniso_label
_atom_site_aniso_type_symbol
_atom_site_aniso_U_11
_atom_site_aniso_U_22
_atom_site_aniso_U_33
_atom_site_aniso_U_12
_atom_site_aniso_U_13
_atom_site_aniso_U_23
U1 U6+ 0.0054(3) 0.0076(4) 0.0031(4) 0. 0. 0.0007(5)
Na1 Na1+ 0.0014(19) 0.001(2) 0.001(2) 0. 0. -0.0001(10)
Na2 Na1+ 0.025(3) 0.025(3) 0.025(3) -0.0007(10) 0. 0.
O1 O2- 0.009(3) 0.009(3) 0.009(3) 0. 0. -0.0001(10)
O2 O2- 0.002(3) 0.002(3) 0.002(3) 0. 0. 0.0003(10)
O3 O2- 0.009(2) 0.009(2) 0.009(2) -0.0001(10) 0.0001(10) -0.0003(10)
O4 O2- 0.005(3) 0.005(3) 0.005(3) 0. 0. 0.0001(10)
O5 O2- 0.009(2) 0.009(2) 0.009(2) -0.0003(10) 0.0000(10) 0.0004(10)
#End of TTdata_239566-ICSD