
#(C) 2019 by FIZ Karlsruhe - Leibniz Institute for Information Infrastructure.  All rights reserved.
data_239691-ICSD
_database_code_ICSD 239691
_audit_creation_date 2016-08-01
_chemical_name_systematic 'Sodium tantalate(V) - Potassium doped'
_chemical_formula_structural 'Na Ta O3'
_chemical_formula_sum 'Na1 O3 Ta1'
_chemical_name_structure_type Perovskite-NaTaO3
_exptl_crystal_density_diffrn 6.91
_cell_measurement_temperature 783.
_publ_section_title

;
The impact of room temperature polymorphism in K doped Na Ta O3 on structural
phase transition behaviour
;
loop_
_citation_id
_citation_journal_full
_citation_year
_citation_journal_volume
_citation_page_first
_citation_page_last
_citation_journal_id_ASTM
primary 'Journal of Solid State Chemistry' 2016 238 109 112 JSSCBI
loop_
_publ_author_name
'Arulnesan, Shamanthini William'
'Kayser, Paula'
'Kennedy, Brendan J.'
'Knight, Kevin S.'
_cell_length_a 7.8424(6)
_cell_length_b 7.8531(6)
_cell_length_c 7.8622(6)
_cell_angle_alpha 90.
_cell_angle_beta 90.
_cell_angle_gamma 90.
_cell_volume 484.21
_cell_formula_units_Z 8
_symmetry_space_group_name_H-M 'C m c m'
_symmetry_Int_Tables_number 63
_refine_ls_R_factor_all 0.0592
loop_
_symmetry_equiv_pos_site_id
_symmetry_equiv_pos_as_xyz
1 '-x, y, -z+1/2'
2 '-x, -y, z+1/2'
3 '-x, y, z'
4 '-x, -y, -z'
5 'x, -y, z+1/2'
6 'x, y, -z+1/2'
7 'x, -y, -z'
8 'x, y, z'
9 '-x+1/2, y+1/2, -z+1/2'
10 '-x+1/2, -y+1/2, z+1/2'
11 '-x+1/2, y+1/2, z'
12 '-x+1/2, -y+1/2, -z'
13 'x+1/2, -y+1/2, z+1/2'
14 'x+1/2, y+1/2, -z+1/2'
15 'x+1/2, -y+1/2, -z'
16 'x+1/2, y+1/2, z'
loop_
_atom_type_symbol
_atom_type_oxidation_number
Na1+ 1
Ta5+ 5
O2- -2
loop_
_atom_site_label
_atom_site_type_symbol
_atom_site_symmetry_multiplicity
_atom_site_Wyckoff_symbol
_atom_site_fract_x
_atom_site_fract_y
_atom_site_fract_z
_atom_site_B_iso_or_equiv
_atom_site_occupancy
_atom_site_attached_hydrogens
Na1 Na1+ 4 c 0 -0.0004(32) 0.25 0.035(4) 1. 0
Na2 Na1+ 4 c 0 0.5042(31) 0.25 0.033(4) 1. 0
Ta1 Ta5+ 8 d 0.25 0.25 0 0.0025(3) 1. 0
O1 O2- 8 e 0.2753(8) 0 0 0.0237(11) 1. 0
O2 O2- 8 f 0 0.2249(8) 0.0239(6) 0.0155(11) 1. 0
O3 O2- 8 g 0.2723(7) 0.2560(13) 0.25 0.0214(11) 1. 0
#End of TTdata_239691-ICSD