
#(C) 2019 by FIZ Karlsruhe - Leibniz Institute for Information Infrastructure.  All rights reserved.
data_239704-ICSD
_database_code_ICSD 239704
_audit_creation_date 2016-08-01
_chemical_name_systematic 'Digallium disodium tin hexasulfide'
_chemical_formula_structural 'Ga2 Na2 Sn S6'
_chemical_formula_sum 'Ga2 Na2 S6 Sn1'
_exptl_crystal_density_diffrn 2.82
_cell_measurement_temperature 293.
_publ_section_title

;
Syntheses and structural characterization of non-centrosymmetric Na2 M2 M'S6
(M, M'=Ga, In, Si, Ge, Sn, Zn, Cd) sulfides
;
loop_
_citation_id
_citation_journal_full
_citation_year
_citation_journal_volume
_citation_page_first
_citation_page_last
_citation_journal_id_ASTM
primary 'Journal of Solid State Chemistry' 2016 238 147 155 JSSCBI
loop_
_publ_author_name
'Yohannan, Jinu P.'
'Vidyasagar, Kanamaluru'
_cell_length_a 8.547(3)
_cell_length_b 11.649(3)
_cell_length_c 12.494(4)
_cell_angle_alpha 90.
_cell_angle_beta 109.818(12)
_cell_angle_gamma 90.
_cell_volume 1170.27
_cell_formula_units_Z 4
_symmetry_space_group_name_H-M 'C 1 c 1'
_symmetry_Int_Tables_number 9
_refine_ls_R_factor_all 0.06
loop_
_symmetry_equiv_pos_site_id
_symmetry_equiv_pos_as_xyz
1 'x, -y, z+1/2'
2 'x, y, z'
3 'x+1/2, -y+1/2, z+1/2'
4 'x+1/2, y+1/2, z'
loop_
_atom_type_symbol
_atom_type_oxidation_number
Na1+ 1
Ga3+ 3
Sn4+ 4
Ga3+ 3
Sn4+ 4
Ga3+ 3
Sn4+ 4
S2- -2
loop_
_atom_site_label
_atom_site_type_symbol
_atom_site_symmetry_multiplicity
_atom_site_Wyckoff_symbol
_atom_site_fract_x
_atom_site_fract_y
_atom_site_fract_z
_atom_site_B_iso_or_equiv
_atom_site_occupancy
_atom_site_attached_hydrogens
Na1 Na1+ 4 a 0.649(7) 0.243(7) 0.093(4) 0.61(7) 1 0
Na2 Na1+ 4 a 0.093(4) 0.036(5) 0.942(4) 0.40(4) 1 0
Ga1 Ga3+ 4 a 0.2168(3) 0.2450(2) 0.30157(19) 0.0284(7) 0.67 0
Sn1 Sn4+ 4 a 0.2168(3) 0.2450(2) 0.30157(19) 0.0284(7) 0.33 0
Ga2 Ga3+ 4 a 0.4410(3) 0.0049(2) 0.74986(19) 0.0286(7) 0.67 0
Sn2 Sn4+ 4 a 0.4410(3) 0.0049(2) 0.74986(19) 0.0286(7) 0.33 0
Ga3 Ga3+ 4 a 0.5705(3) 0.1254(3) 0.5254(2) 0.0376(7) 0.67 0
Sn3 Sn4+ 4 a 0.5705(3) 0.1254(3) 0.5254(2) 0.0376(7) 0.33 0
S1 S2- 4 a 0.4538(9) 0.2012(7) 0.7948(6) 0.041(2) 1 0
S2 S2- 4 a 0.1829(9) 0.0501(7) 0.2558(6) 0.042(2) 1 0
S3 S2- 4 a 0.8119(10) 0.1536(7) 0.6772(6) 0.048(2) 1 0
S4 S2- 4 a 0.4405(10) 0.0354(6) 0.0659(6) 0.045(2) 1 0
S5 S2- 4 a 0.6612(10) 0.0968(8) 0.3746(6) 0.051(2) 1 0
S6 S2- 4 a 0.8998(10) 0.2137(6) 0.9848(6) 0.044(2) 1 0
loop_
_atom_site_aniso_label
_atom_site_aniso_type_symbol
_atom_site_aniso_U_11
_atom_site_aniso_U_22
_atom_site_aniso_U_33
_atom_site_aniso_U_12
_atom_site_aniso_U_13
_atom_site_aniso_U_23
Na1 Na1+ 0.54(7) 1.12(14) 0.42(6) -0.75(10) 0.46(6) -0.66(9)
Na2 Na1+ 0.16(3) 0.56(7) 0.31(4) 0.23(4) -0.14(3) -0.38(5)
Ga1 Ga3+ 0.0339(13) 0.0307(13) 0.0129(11) -0.0013(11) -0.0021(10) 0.0017(10)
Sn1 Sn4+ 0.0339(13) 0.0307(13) 0.0129(11) -0.0013(11) -0.0021(10) 0.0017(10)
Ga2 Ga3+ 0.0357(14) 0.0309(13) 0.0135(11) 0.0005(11) 0.0007(10) 0.0023(10)
Sn2 Sn4+ 0.0357(14) 0.0309(13) 0.0135(11) 0.0005(11) 0.0007(10) 0.0023(10)
Ga3 Ga3+ 0.0409(15) 0.0463(14) 0.0182(11) -0.0010(12) 0.0003(11) 0.0001(10)
Sn3 Sn4+ 0.0409(15) 0.0463(14) 0.0182(11) -0.0010(12) 0.0003(11) 0.0001(10)
S1 S2- 0.038(5) 0.046(5) 0.029(4) 0.004(3) 0.000(4) -0.003(3)
S2 S2- 0.044(5) 0.039(5) 0.040(5) -0.001(3) 0.011(4) -0.003(3)
S3 S2- 0.042(5) 0.074(6) 0.025(4) 0.009(4) 0.007(4) -0.013(4)
S4 S2- 0.055(5) 0.046(4) 0.022(4) 0.007(4) -0.003(4) 0.000(3)
S5 S2- 0.040(4) 0.080(6) 0.025(4) -0.020(4) -0.001(4) -0.009(4)
S6 S2- 0.053(5) 0.050(5) 0.018(4) -0.006(4) -0.003(4) 0.002(3)
#End of TTdata_239704-ICSD