
#(C) 2019 by FIZ Karlsruhe - Leibniz Institute for Information Infrastructure.  All rights reserved.
data_239702-ICSD
_database_code_ICSD 239702
_audit_creation_date 2016-08-01
_chemical_name_systematic 'Digallium germanium disodium hexasulfide'
_chemical_formula_structural 'Ga2 Ge Na2 S6'
_chemical_formula_sum 'Ga2 Ge1 Na2 S6'
_exptl_crystal_density_diffrn 2.92
_cell_measurement_temperature 293.
_publ_section_title

;
Syntheses and structural characterization of non-centrosymmetric Na2 M2 M'S6
(M, M'=Ga, In, Si, Ge, Sn, Zn, Cd) sulfides
;
loop_
_citation_id
_citation_journal_full
_citation_year
_citation_journal_volume
_citation_page_first
_citation_page_last
_citation_journal_id_ASTM
primary 'Journal of Solid State Chemistry' 2016 238 147 155 JSSCBI
loop_
_publ_author_name
'Yohannan, Jinu P.'
'Vidyasagar, Kanamaluru'
_cell_length_a 12.4051(11)
_cell_length_b 22.7301(14)
_cell_length_c 7.2737(5)
_cell_angle_alpha 90.
_cell_angle_beta 90.
_cell_angle_gamma 90.
_cell_volume 2050.95
_cell_formula_units_Z 8
_symmetry_space_group_name_H-M 'F d d 2'
_symmetry_Int_Tables_number 43
_refine_ls_R_factor_all 0.0325
loop_
_symmetry_equiv_pos_site_id
_symmetry_equiv_pos_as_xyz
1 'x+1/4, -y+1/4, z+1/4'
2 '-x+1/4, y+1/4, z+1/4'
3 '-x, -y, z'
4 'x, y, z'
5 'x+1/4, -y+3/4, z+3/4'
6 '-x+1/4, y+3/4, z+3/4'
7 '-x, -y+1/2, z+1/2'
8 'x, y+1/2, z+1/2'
9 'x+3/4, -y+1/4, z+3/4'
10 '-x+3/4, y+1/4, z+3/4'
11 '-x+1/2, -y, z+1/2'
12 'x+1/2, y, z+1/2'
13 'x+3/4, -y+3/4, z+1/4'
14 '-x+3/4, y+3/4, z+1/4'
15 '-x+1/2, -y+1/2, z'
16 'x+1/2, y+1/2, z'
loop_
_atom_type_symbol
_atom_type_oxidation_number
Ga3+ 3
Ge4+ 4
S2- -2
Na1+ 1
loop_
_atom_site_label
_atom_site_type_symbol
_atom_site_symmetry_multiplicity
_atom_site_Wyckoff_symbol
_atom_site_fract_x
_atom_site_fract_y
_atom_site_fract_z
_atom_site_B_iso_or_equiv
_atom_site_occupancy
_atom_site_attached_hydrogens
Ga1 Ga3+ 16 b 0.13493(6) 0.13470(3) 0.30885(11) 0.0205(2) 1 0
Ge1 Ge4+ 8 a 0. 0. 0.33062(18) 0.0236(3) 1 0
S1 S2- 16 b 0.04778(17) 0.07588(8) 0.5104(3) 0.0271(5) 1 0
S2 S2- 16 b 0.06081(17) 0.13647(8) 0.0229(3) 0.0287(5) 1 0
S3 S2- 16 b 0.10687(17) 0.22751(8) 0.4059(3) 0.0297(5) 1 0
Na1 Na1+ 16 b 0.1686(4) 0.0448(2) 0.8396(7) 0.0893(16) 1 0
loop_
_atom_site_aniso_label
_atom_site_aniso_type_symbol
_atom_site_aniso_U_11
_atom_site_aniso_U_22
_atom_site_aniso_U_33
_atom_site_aniso_U_12
_atom_site_aniso_U_13
_atom_site_aniso_U_23
Ga1 Ga3+ 0.0145(4) 0.0234(4) 0.0235(5) -0.0006(3) -0.0023(4) -0.0015(4)
Ge1 Ge4+ 0.0202(6) 0.0235(5) 0.0272(7) -0.0015(5) 0. 0.
S1 S2- 0.0288(13) 0.0321(11) 0.0205(11) -0.0047(9) 0.0045(9) -0.0038(10)
S2 S2- 0.0172(11) 0.0431(12) 0.0258(12) -0.0021(9) -0.0014(10) 0.0036(11)
S3 S2- 0.0232(11) 0.0243(11) 0.0417(13) -0.0011(9) -0.0059(10) -0.0045(10)
Na1 Na1+ 0.078(4) 0.142(4) 0.048(3) 0.046(3) 0.024(3) 0.021(3)
#End of TTdata_239702-ICSD