
#(C) 2019 by FIZ Karlsruhe - Leibniz Institute for Information Infrastructure.  All rights reserved.
data_239876-ICSD
_database_code_ICSD 239876
_audit_creation_date 2016-08-01
_chemical_name_systematic 'Sodium zirconium hexasilicate hydrate'
_chemical_formula_structural 'Na1.96 Zr Si5.97 O15 (H2 O)3'
_chemical_formula_sum 'H6 Na1.96 O18 Si5.97 Zr1'
_chemical_name_structure_type Na2ZrSi6O15(H2O)3
_chemical_name_mineral Elpidite
_exptl_crystal_density_diffrn 2.6
_cell_measurement_temperature 323.
_publ_section_title

;
Dehydration and thermal stability of elpidite: An in-situ single crystal X-ray
diffraction study
;
loop_
_citation_id
_citation_journal_full
_citation_year
_citation_journal_volume
_citation_page_first
_citation_page_last
_citation_journal_id_ASTM
primary 'Microporous and Mesoporous Materials' 2016 227 81 87 MIMMFJ
loop_
_publ_author_name
'Cametti, Georgia'
'Armbruster, Thomas'
'Nagashima, Mariko'
_cell_length_a 7.11430(10)
_cell_length_b 14.6792(2)
_cell_length_c 14.6046(2)
_cell_angle_alpha 90
_cell_angle_beta 90
_cell_angle_gamma 90
_cell_volume 1525.19
_cell_formula_units_Z 4
_symmetry_space_group_name_H-M 'P b c m'
_symmetry_Int_Tables_number 57
_refine_ls_R_factor_all 0.0217
loop_
_symmetry_equiv_pos_site_id
_symmetry_equiv_pos_as_xyz
1 'x, -y+1/2, z+1/2'
2 '-x, y+1/2, z'
3 'x, y, -z+1/2'
4 '-x, -y, -z'
5 '-x, y+1/2, -z+1/2'
6 'x, -y+1/2, -z'
7 '-x, -y, z+1/2'
8 'x, y, z'
loop_
_atom_type_symbol
_atom_type_oxidation_number
Zr4+ 4
Si4+ 4
Na1+ 1
O2- -2
H1+ 1
loop_
_atom_site_label
_atom_site_type_symbol
_atom_site_symmetry_multiplicity
_atom_site_Wyckoff_symbol
_atom_site_fract_x
_atom_site_fract_y
_atom_site_fract_z
_atom_site_B_iso_or_equiv
_atom_site_occupancy
_atom_site_attached_hydrogens
Zr1 Zr4+ 4 c 0.49577(2) 0.25 0.5 0.00568(4) 1 0
Si1 Si4+ 8 e 0.77250(4) 0.38593(2) 0.64609(2) 0.00733(6) 1 0
Si2 Si4+ 8 e 0.50737(4) 0.04736(2) 0.64171(2) 0.00714(6) 1 0
Si3 Si4+ 8 e 0.21881(4) 0.39196(2) 0.64416(2) 0.00693(6) 1 0
Na1 Na1+ 4 d 0.44291(17) 0.23180(7) 0.75 0.0342(2) 1 0
Na2 Na1+ 4 c -0.00393(10) 0.25 0.5 0.02069(18) 1 0
O1 O2- 8 e 0.99499(10) 0.40406(7) 0.63911(6) 0.01425(17) 1 0
O2 O2- 4 d 0.71857(18) 0.35508(9) 0.75 0.0143(2) 1 0
O3 O2- 8 e 0.70757(12) 0.30900(6) 0.57707(6) 0.01378(16) 1 0
O4 O2- 8 e 0.67644(13) 0.48405(6) 0.62534(7) 0.01596(17) 1 0
O5 O2- 4 d 0.52473(19) 0.07134(10) 0.75 0.0149(2) 1 0
O6 O2- 8 e 0.49088(12) 0.14049(6) 0.58835(6) 0.01378(16) 1 0
O7 O2- 8 e 0.30608(12) 0.48997(6) 0.61218(6) 0.01255(16) 1 0
O8 O2- 4 d 0.28389(17) 0.37608(9) 0.75 0.0122(2) 1 0
O9 O2- 8 e 0.29067(12) 0.31000(6) 0.58258(6) 0.01307(16) 1 0
O10 O2- 8 e 0.00906(15) 0.11335(9) 0.58032(10) 0.0304(3) 1 0
O11 O2- 4 d 0.1235(4) 0.18947(17) 0.75 0.0498(6) 1 0
H1 H1+ 8 e -0.095(3) 0.0752(15) 0.5805(16) 0.05 1 0
H2 H1+ 8 e 0.055(3) 0.1675(16) 0.7994(13) 0.05 1 0
H3 H1+ 8 e 0.112(3) 0.0780(15) 0.5813(16) 0.05 1 0
loop_
_atom_site_aniso_label
_atom_site_aniso_type_symbol
_atom_site_aniso_U_11
_atom_site_aniso_U_22
_atom_site_aniso_U_33
_atom_site_aniso_U_12
_atom_site_aniso_U_13
_atom_site_aniso_U_23
Zr1 Zr4+ 0.00674(6) 0.00479(7) 0.00550(6) 0. 0. -0.00003(4)
Si1 Si4+ 0.00566(12) 0.00823(14) 0.00812(13) 0.00025(9) -0.00057(9) -0.00144(10)
Si2 Si4+ 0.00820(12) 0.00564(13) 0.00758(12) 0.00011(9) 0.00015(9) 0.00131(9)
Si3 Si4+ 0.00556(12) 0.00747(13) 0.00774(13) -0.00021(9) 0.00046(9) -0.00127(10)
Na1 Na1+ 0.0431(6) 0.0149(4) 0.0446(6) 0.0079(4) 0. 0.
Na2 Na1+ 0.0174(4) 0.0196(4) 0.0251(4) 0. 0. -0.0008(3)
O1 O2- 0.0061(3) 0.0188(4) 0.0179(4) -0.0006(3) -0.0002(3) -0.0008(3)
O2 O2- 0.0149(5) 0.0193(6) 0.0087(5) -0.0035(4) 0. 0.
O3 O2- 0.0136(4) 0.0142(4) 0.0135(4) -0.0027(3) -0.0034(3) -0.0053(3)
O4 O2- 0.0126(4) 0.0122(4) 0.0230(4) 0.0055(3) 0.0003(3) 0.0009(3)
O5 O2- 0.0244(6) 0.0129(6) 0.0075(5) 0.0009(5) 0. 0.
O6 O2- 0.0187(4) 0.0088(4) 0.0138(4) 0.0010(3) 0.0010(3) 0.0049(3)
O7 O2- 0.0123(4) 0.0106(4) 0.0148(4) -0.0037(3) -0.0023(3) 0.0025(3)
O8 O2- 0.0133(5) 0.0151(6) 0.0082(5) 0.0009(4) 0. 0.
O9 O2- 0.0142(4) 0.0113(4) 0.0137(4) 0.0022(3) 0.0040(3) -0.0038(3)
O10 O2- 0.0249(6) 0.0264(6) 0.0400(7) -0.0029(4) -0.0036(5) 0.0113(5)
O11 O2- 0.0596(14) 0.0525(14) 0.0373(11) -0.0227(11) 0. 0.
#End of TTdata_239876-ICSD