
#(C) 2019 by FIZ Karlsruhe - Leibniz Institute for Information Infrastructure.  All rights reserved.
data_239914-ICSD
_database_code_ICSD 239914
_audit_creation_date 2016-08-01
_chemical_name_systematic 'Sodium scandium silicophosphate'
_chemical_formula_structural 'Na2.90 Sc2 (Si0.109 P2.9) O11.9'
_chemical_formula_sum 'Na2.9 O11.9 P2.9 Sc2 Si0.109'
_chemical_name_structure_type 'Nasicon high'
_exptl_crystal_density_diffrn 2.84
_publ_section_title

;
New promising NASICON material as solid electrolyte for sodium-ion batteries:
Correlation between composition, crystal structure and ionic conductivity of
Na3+x Sc2 Six P3-x O12
;
loop_
_citation_id
_citation_journal_full
_citation_year
_citation_journal_volume
_citation_page_first
_citation_page_last
_citation_journal_id_ASTM
primary 'Solid State Ionics' 2016 293 18 26 SSIOD3
loop_
_publ_author_name
'Guin, M.'
'Tietz, F.'
'Guillon, O.'
_cell_length_a 8.93926(3)
_cell_length_b 8.93926(3)
_cell_length_c 22.2735(1)
_cell_angle_alpha 90.
_cell_angle_beta 90.
_cell_angle_gamma 120.
_cell_volume 1541.44
_cell_formula_units_Z 6
_symmetry_space_group_name_H-M 'R -3 c H'
_symmetry_Int_Tables_number 167
_refine_ls_R_factor_all 0.0682
loop_
_symmetry_equiv_pos_site_id
_symmetry_equiv_pos_as_xyz
1 'x-y, -y, -z+1/2'
2 '-x, -x+y, -z+1/2'
3 'y, x, -z+1/2'
4 'x-y, x, -z'
5 'y, -x+y, -z'
6 '-x, -y, -z'
7 '-x+y, y, z+1/2'
8 'x, x-y, z+1/2'
9 '-y, -x, z+1/2'
10 '-x+y, -x, z'
11 '-y, x-y, z'
12 'x, y, z'
13 'x-y+2/3, -y+1/3, -z+5/6'
14 '-x+2/3, -x+y+1/3, -z+5/6'
15 'y+2/3, x+1/3, -z+5/6'
16 'x-y+2/3, x+1/3, -z+1/3'
17 'y+2/3, -x+y+1/3, -z+1/3'
18 '-x+2/3, -y+1/3, -z+1/3'
19 '-x+y+2/3, y+1/3, z+5/6'
20 'x+2/3, x-y+1/3, z+5/6'
21 '-y+2/3, -x+1/3, z+5/6'
22 '-x+y+2/3, -x+1/3, z+1/3'
23 '-y+2/3, x-y+1/3, z+1/3'
24 'x+2/3, y+1/3, z+1/3'
25 'x-y+1/3, -y+2/3, -z+1/6'
26 '-x+1/3, -x+y+2/3, -z+1/6'
27 'y+1/3, x+2/3, -z+1/6'
28 'x-y+1/3, x+2/3, -z+2/3'
29 'y+1/3, -x+y+2/3, -z+2/3'
30 '-x+1/3, -y+2/3, -z+2/3'
31 '-x+y+1/3, y+2/3, z+1/6'
32 'x+1/3, x-y+2/3, z+1/6'
33 '-y+1/3, -x+2/3, z+1/6'
34 '-x+y+1/3, -x+2/3, z+2/3'
35 '-y+1/3, x-y+2/3, z+2/3'
36 'x+1/3, y+2/3, z+2/3'
loop_
_atom_type_symbol
_atom_type_oxidation_number
Sc3+ 3
P5+ 5
Si4+ 4
O2- -2
Na1+ 1
loop_
_atom_site_label
_atom_site_type_symbol
_atom_site_symmetry_multiplicity
_atom_site_Wyckoff_symbol
_atom_site_fract_x
_atom_site_fract_y
_atom_site_fract_z
_atom_site_B_iso_or_equiv
_atom_site_occupancy
_atom_site_attached_hydrogens
Sc1 Sc3+ 12 c 0 0 0.14909 0.0098(2) 1. 0
P1 P5+ 18 e 0.2936(2) 0 0.25 0.0097(4) 0.9667 0
Si1 Si4+ 18 e 0.2936(2) 0 0.25 0.0097(4) 0.0333 0
O1 O2- 36 f 0.1858(3) -0.0247(3) 0.19403(9) 0.0261(8) 1. 0
O2 O2- 36 f 0.1920(2) 0.1697(2) 0.08660(9) 0.0221(6) 1. 0
Na1 Na1+ 6 b 0 0 0 0.036(3) 0.4 0
Na2 Na1+ 18 e 0.6359(4) 0 0.25 0.029(1) 0.6167 0
Na3 Na1+ 36 f 0.974(2) 0.726(2) 0.9579(5) 0.019(4) 0.1 0
#End of TTdata_239914-ICSD