
#(C) 2019 by FIZ Karlsruhe - Leibniz Institute for Information Infrastructure.  All rights reserved.
data_240882-ICSD
_database_code_ICSD 240882
_audit_creation_date 2008-08-01
_audit_update_record 2018-02-01
_chemical_name_systematic 'Disodium tungstate dihydrate'
_chemical_formula_structural 'Na2 (W O4) (H2 O)2'
_chemical_formula_sum 'H4 Na2 O6 W1'
_chemical_name_structure_type Na2MoO4(H2O)2
_exptl_crystal_density_diffrn 3.52
_cell_measurement_temperature 291.
_publ_section_title 'Sodium tungstate dihydrate: a redetermination'
loop_
_citation_id
_citation_journal_full
_citation_year
_citation_journal_volume
_citation_page_first
_citation_page_last
_citation_journal_id_ASTM
primary 'Acta Crystallographica, Section E: Structure Reports Online' 2007 63
i142 i142 ACSEBH
loop_
_publ_author_name
'Farrugia, L.J.'
_cell_length_a 8.4797(5)
_cell_length_b 10.5930(5)
_cell_length_c 13.8527(10)
_cell_angle_alpha 90
_cell_angle_beta 90
_cell_angle_gamma 90
_cell_volume 1244.33
_cell_formula_units_Z 8
_symmetry_space_group_name_H-M 'P b c a'
_symmetry_Int_Tables_number 61
_refine_ls_R_factor_all 0.021
loop_
_symmetry_equiv_pos_site_id
_symmetry_equiv_pos_as_xyz
1 'x+1/2, y, -z+1/2'
2 'x, -y+1/2, z+1/2'
3 '-x+1/2, y+1/2, z'
4 '-x, -y, -z'
5 '-x+1/2, -y, z+1/2'
6 '-x, y+1/2, -z+1/2'
7 'x+1/2, -y+1/2, -z'
8 'x, y, z'
loop_
_atom_type_symbol
_atom_type_oxidation_number
W6+ 6
Na1+ 1
O2- -2
H1+ 1
loop_
_atom_site_label
_atom_site_type_symbol
_atom_site_symmetry_multiplicity
_atom_site_Wyckoff_symbol
_atom_site_fract_x
_atom_site_fract_y
_atom_site_fract_z
_atom_site_B_iso_or_equiv
_atom_site_occupancy
_atom_site_attached_hydrogens
W1 W6+ 8 c 0.513897(17) 0.801647(13) 0.522950(10) 0.01283(7) 1 0
Na1 Na1+ 8 c 0.34357(17) 0.49523(14) 0.58520(11) 0.0210(3) 1 0
Na2 Na1+ 8 c 0.74189(16) 0.54972(15) 0.64750(12) 0.0214(3) 1 0
O1 O2- 8 c 0.4496(3) 0.8227(3) 0.4020(2) 0.0199(5) 1 0
O2 O2- 8 c 0.5570(3) 0.6393(2) 0.54181(19) 0.0179(5) 1 0
O3 O2- 8 c 0.6862(3) 0.8921(3) 0.5387(2) 0.0239(6) 1 0
O4 O2- 8 c 0.3692(3) 0.8508(3) 0.6089(2) 0.0215(5) 1 0
O5 O2- 8 c 0.5379(4) 0.4088(3) 0.6997(2) 0.0273(6) 1 0
O6 O2- 8 c 0.2280(3) 0.6403(3) 0.7015(2) 0.0245(6) 1 0
H1 H1+ 8 c 0.584(7) 0.349(4) 0.669(4) 0.050(9) 1 0
H2 H1+ 8 c 0.572(7) 0.395(6) 0.757(3) 0.050(9) 1 0
H3 H1+ 8 c 0.136(4) 0.644(6) 0.676(4) 0.050(9) 1 0
H4 H1+ 8 c 0.255(7) 0.715(3) 0.684(5) 0.050(9) 1 0
loop_
_atom_site_aniso_label
_atom_site_aniso_type_symbol
_atom_site_aniso_U_11
_atom_site_aniso_U_22
_atom_site_aniso_U_33
_atom_site_aniso_U_12
_atom_site_aniso_U_13
_atom_site_aniso_U_23
W1 W6+ 0.01363(9) 0.01020(10) 0.01466(10) 0.00008(4) 0.00046(4) 0.00033(4)
Na1 Na1+ 0.0215(6) 0.0170(7) 0.0245(7) -0.0023(6) 0.0010(5) -0.0016(7)
Na2 Na1+ 0.0212(7) 0.0212(7) 0.0217(7) -0.0016(6) 0.0015(5) -0.0014(6)
O1 O2- 0.0196(11) 0.0215(12) 0.0187(13) 0.0024(10) -0.0019(10) 0.0012(10)
O2 O2- 0.0183(11) 0.0111(11) 0.0242(12) 0.0000(10) 0.0008(10) 0.0013(10)
O3 O2- 0.0231(12) 0.0209(13) 0.0276(14) -0.0075(11) -0.0018(10) -0.0029(12)
O4 O2- 0.0224(12) 0.0199(12) 0.0221(13) 0.0061(10) 0.0039(10) 0.0016(11)
O5 O2- 0.0355(14) 0.0209(14) 0.0256(14) -0.0003(12) -0.0028(12) 0.0025(12)
O6 O2- 0.0241(13) 0.0234(14) 0.0258(14) -0.0027(11) -0.0052(11) 0.0050(12)
#End of TTdata_240882-ICSD