
#(C) 2019 by FIZ Karlsruhe - Leibniz Institute for Information Infrastructure.  All rights reserved.
data_240870-ICSD
_database_code_ICSD 240870
_audit_creation_date 2008-08-01
_chemical_name_systematic 'Disodium hexairon(II,III) hexasilicon icosaoxide'
_chemical_formula_structural 'Na2 Fe6 Si6 O20'
_chemical_formula_sum 'Fe6 Na2 O20 Si6'
_chemical_name_structure_type Aenigmatite-Na2TiFe5Si6O20
_chemical_name_mineral Wilkinsonite
_exptl_crystal_density_diffrn 3.91
_cell_measurement_temperature 296.
_publ_section_title
'Single-crystal X-ray refinement of wilkinsonite, Na2 Fe(II)4 Fe(III)2 Si6 O20'
loop_
_citation_id
_citation_journal_full
_citation_year
_citation_journal_volume
_citation_page_first
_citation_page_last
_citation_journal_id_ASTM
primary 'Acta Crystallographica, Section E: Structure Reports Online' 2007 63
i122 i124 ACSEBH
loop_
_publ_author_name
'Burt, J.B.'
'Downs, R.T.'
'Costin, G.'
_cell_length_a 10.3355(5)
_cell_length_b 10.7847(4)
_cell_length_c 8.9142(4)
_cell_angle_alpha 105.048(3)
_cell_angle_beta 96.461(3)
_cell_angle_gamma 125.302(2)
_cell_volume 738.37
_cell_formula_units_Z 2
_symmetry_space_group_name_H-M 'P -1'
_symmetry_Int_Tables_number 2
_refine_ls_R_factor_all 0.041
loop_
_symmetry_equiv_pos_site_id
_symmetry_equiv_pos_as_xyz
1 '-x, -y, -z'
2 'x, y, z'
loop_
_atom_type_symbol
_atom_type_oxidation_number
Fe3+ 3
Fe2+ 2
Fe3+ 3
Si4+ 4
Na1+ 1
O2- -2
loop_
_atom_site_label
_atom_site_type_symbol
_atom_site_symmetry_multiplicity
_atom_site_Wyckoff_symbol
_atom_site_fract_x
_atom_site_fract_y
_atom_site_fract_z
_atom_site_B_iso_or_equiv
_atom_site_occupancy
_atom_site_attached_hydrogens
Fe1 Fe3+ 1 b 0. 0. 0.5 0.0089(2) 1 0
Fe2 Fe3+ 1 c 0. 0.5 0. 0.0079(2) 1 0
Fe3 Fe2+ 2 i 0.31905(9) 0.85202(8) 0.17897(9) 0.00742(16) 1 0
Fe4 Fe2+ 2 i 0.76728(9) 0.82004(8) 0.15109(9) 0.00742(16) 1 0
Fe5 Fe2+ 2 i 0.09363(9) 0.93553(9) 0.05864(9) 0.01104(17) 1 0
Fe6 Fe2+ 2 i 0.59487(9) 0.94132(8) 0.06557(9) 0.00708(15) 1 0
Fe7 Fe3+ 2 i 0.99381(9) 0.73633(9) 0.26446(9) 0.00706(15) 1 0
Si1 Si4+ 2 i 0.47856(16) 1.23504(16) 0.33068(16) 0.0058(3) 1 0
Si2 Si4+ 2 i 0.98595(16) 1.23337(16) 0.34225(16) 0.0049(3) 1 0
Si3 Si4+ 2 i 0.79150(16) 0.33856(16) 0.24104(16) 0.0051(3) 1 0
Si4 Si4+ 2 i 0.72159(16) 0.66157(16) 0.77590(16) 0.0056(3) 1 0
Si5 Si4+ 2 i 0.64857(16) 0.94629(16) 0.44736(16) 0.0061(3) 1 0
Si6 Si4+ 2 i 0.35235(16) 0.55640(15) 0.04592(16) 0.0054(3) 1 0
Na1 Na1+ 2 i 0.2104(2) 0.6312(2) 0.3883(2) 0.0131(4) 1 0
Na2 Na1+ 2 i 0.6611(2) 0.6128(2) 0.3724(3) 0.0156(5) 1 0
O1 O2- 2 i 0.3582(4) 1.0689(4) 0.1649(4) 0.0079(7) 1 0
O2 O2- 2 i 0.8609(4) 1.0677(4) 0.1751(4) 0.0080(7) 1 0
O3 O2- 2 i 0.5558(4) 0.9532(4) 0.2956(4) 0.0079(7) 1 0
O4 O2- 2 i 0.0149(4) 0.9335(4) 0.2748(4) 0.0076(7) 1 0
O5 O2- 2 i 0.2403(4) 0.8763(4) 0.3957(4) 0.0095(7) 1 0
O6 O2- 2 i 0.7549(4) 0.8835(4) 0.3948(4) 0.0075(7) 1 0
O7 O2- 2 i 0.5073(4) 0.8026(4) 0.5056(4) 0.0081(7) 1 0
O8 O2- 2 i 0.9578(4) 0.7845(4) 0.4926(4) 0.0066(7) 1 0
O9 O2- 2 i 0.8992(4) 0.3213(4) 0.3738(4) 0.0074(7) 1 0
O10 O2- 2 i 0.5932(4) 0.6608(4) 0.6478(4) 0.0069(7) 1 0
O11 O2- 2 i 0.3356(4) 0.8275(4) 0.9256(4) 0.0078(7) 1 0
O12 O2- 2 i 0.8431(4) 0.8318(4) 0.9360(4) 0.0079(7) 1 0
O13 O2- 2 i 0.5255(4) 0.7119(4) 0.0394(4) 0.0086(7) 1 0
O14 O2- 2 i 0.0666(4) 0.7273(4) 0.0687(4) 0.0081(7) 1 0
O15 O2- 2 i 0.2405(4) 0.6058(4) 0.1112(4) 0.0072(7) 1 0
O16 O2- 2 i 0.7482(4) 0.6020(4) 0.1286(4) 0.0075(7) 1 0
O17 O2- 2 i 0.5995(4) 0.5003(4) 0.8143(4) 0.0079(7) 1 0
O18 O2- 2 i 0.9345(4) 0.5053(4) 0.2194(4) 0.0094(7) 1 0
O19 O2- 2 i 0.8336(4) 0.6335(4) 0.6807(4) 0.0076(7) 1 0
O20 O2- 2 i 0.6736(4) 0.3634(4) 0.3361(4) 0.0081(7) 1 0
loop_
_atom_site_aniso_label
_atom_site_aniso_type_symbol
_atom_site_aniso_U_11
_atom_site_aniso_U_22
_atom_site_aniso_U_33
_atom_site_aniso_U_12
_atom_site_aniso_U_13
_atom_site_aniso_U_23
Fe1 Fe3+ 0.0076(5) 0.0076(5) 0.0105(5) 0.0050(4) 0.0011(4) 0.0027(4)
Fe2 Fe3+ 0.0063(5) 0.0085(5) 0.0071(5) 0.0042(4) 0.0019(4) 0.0022(4)
Fe3 Fe2+ 0.0069(3) 0.0073(3) 0.0083(4) 0.0047(3) 0.0020(3) 0.0030(3)
Fe4 Fe2+ 0.0068(3) 0.0078(3) 0.0071(4) 0.0046(3) 0.0023(3) 0.0023(3)
Fe5 Fe2+ 0.0091(4) 0.0122(4) 0.0123(4) 0.0065(3) 0.0032(3) 0.0065(3)
Fe6 Fe2+ 0.0078(3) 0.0066(3) 0.0073(4) 0.0044(3) 0.0031(3) 0.0037(3)
Fe7 Fe3+ 0.0058(3) 0.0070(3) 0.0075(4) 0.0042(3) 0.0017(3) 0.0017(3)
Si1 Si4+ 0.0053(6) 0.0056(6) 0.0073(7) 0.0034(5) 0.0026(6) 0.0034(6)
Si2 Si4+ 0.0055(6) 0.0061(6) 0.0051(7) 0.0043(5) 0.0026(5) 0.0027(5)
Si3 Si4+ 0.0049(6) 0.0051(6) 0.0056(7) 0.0032(5) 0.0020(5) 0.0024(5)
Si4 Si4+ 0.0054(6) 0.0058(6) 0.0061(7) 0.0038(5) 0.0017(6) 0.0023(5)
Si5 Si4+ 0.0059(6) 0.0074(6) 0.0060(7) 0.0043(6) 0.0023(6) 0.0035(6)
Si6 Si4+ 0.0047(6) 0.0040(6) 0.0057(7) 0.0022(5) 0.0012(5) 0.0013(5)
Na1 Na1+ 0.0132(10) 0.0141(10) 0.0131(11) 0.0092(9) 0.0032(9) 0.0059(9)
Na2 Na1+ 0.0109(11) 0.0132(10) 0.0167(12) 0.0044(9) 0.0030(9) 0.0073(10)
O1 O2- 0.0091(17) 0.0084(16) 0.0072(18) 0.0062(15) 0.0030(15) 0.0025(15)
O2 O2- 0.0070(17) 0.0092(17) 0.0091(18) 0.0058(15) 0.0037(15) 0.0034(15)
O3 O2- 0.0045(16) 0.0093(16) 0.0094(18) 0.0039(14) 0.0027(15) 0.0043(15)
O4 O2- 0.0061(16) 0.0088(16) 0.0082(17) 0.0047(14) 0.0020(14) 0.0038(14)
O5 O2- 0.0110(18) 0.0080(17) 0.0116(18) 0.0073(15) 0.0055(16) 0.0028(15)
O6 O2- 0.0073(17) 0.0075(16) 0.0091(18) 0.0053(14) 0.0028(15) 0.0032(15)
O7 O2- 0.0056(16) 0.0084(16) 0.0081(18) 0.0032(14) 0.0023(14) 0.0038(14)
O8 O2- 0.0053(16) 0.0081(16) 0.0080(18) 0.0047(14) 0.0023(14) 0.0042(14)
O9 O2- 0.0084(17) 0.0093(16) 0.0084(17) 0.0072(15) 0.0030(14) 0.0045(15)
O10 O2- 0.0078(16) 0.0080(16) 0.0054(17) 0.0054(14) 0.0027(14) 0.0020(14)
O11 O2- 0.0050(16) 0.0058(16) 0.0075(18) 0.0021(14) -0.0007(15) 0.0007(14)
O12 O2- 0.0033(16) 0.0077(16) 0.0085(18) 0.0021(14) 0.0008(15) 0.0019(15)
O13 O2- 0.0078(17) 0.0085(17) 0.0099(18) 0.0050(15) 0.0036(15) 0.0045(15)
O14 O2- 0.0096(17) 0.0069(16) 0.0079(17) 0.0049(14) 0.0027(15) 0.0038(14)
O15 O2- 0.0078(17) 0.0085(16) 0.0070(18) 0.0069(15) 0.0016(15) 0.0012(14)
O16 O2- 0.0058(16) 0.0088(16) 0.0079(18) 0.0053(14) 0.0006(14) 0.0026(14)
O17 O2- 0.0077(17) 0.0095(17) 0.0113(18) 0.0072(15) 0.0031(15) 0.0056(15)
O18 O2- 0.0064(17) 0.0099(17) 0.0095(18) 0.0039(15) 0.0031(15) 0.0038(15)
O19 O2- 0.0062(16) 0.0046(15) 0.0098(18) 0.0023(14) 0.0038(14) 0.0025(14)
O20 O2- 0.0080(17) 0.0071(16) 0.0091(18) 0.0049(14) 0.0035(15) 0.0024(14)
#End of TTdata_240870-ICSD