
#(C) 2019 by FIZ Karlsruhe - Leibniz Institute for Information Infrastructure.  All rights reserved.
data_240939-ICSD
_database_code_ICSD 240939
_audit_creation_date 2008-08-01
_chemical_name_systematic 'Sodium iron(III) bis[trioxotellurate(IV)]'
_chemical_formula_structural 'Na Fe (Te O3)2'
_chemical_formula_sum 'Fe1 Na1 O6 Te2'
_chemical_name_structure_type NaGa(TeO3)2
_exptl_crystal_density_diffrn 5.18
_cell_measurement_temperature 293.
_publ_section_title 'Na Fe (Te O3)2'
loop_
_citation_id
_citation_journal_full
_citation_year
_citation_journal_volume
_citation_page_first
_citation_page_last
_citation_journal_id_ASTM
primary 'Acta Crystallographica, Section E: Structure Reports Online' 2008 64 i3
i3 ACSEBH
loop_
_publ_author_name
'Weil, M.'
'Stoeger, B.'
_cell_length_a 7.8530(15)
_cell_length_b 10.448(2)
_cell_length_c 13.438(3)
_cell_angle_alpha 90.
_cell_angle_beta 90.
_cell_angle_gamma 90.
_cell_volume 1102.56
_cell_formula_units_Z 8
_symmetry_space_group_name_H-M 'P c a b'
_symmetry_Int_Tables_number 61
_refine_ls_R_factor_all 0.027
loop_
_symmetry_equiv_pos_site_id
_symmetry_equiv_pos_as_xyz
1 'x+1/2, -y+1/2, z'
2 'x, y+1/2, -z+1/2'
3 '-x+1/2, y, z+1/2'
4 '-x, -y, -z'
5 '-x+1/2, y+1/2, -z'
6 '-x, -y+1/2, z+1/2'
7 'x+1/2, -y, -z+1/2'
8 'x, y, z'
loop_
_atom_type_symbol
_atom_type_oxidation_number
Te4+ 4
Fe3+ 3
Na1+ 1
O2- -2
loop_
_atom_site_label
_atom_site_type_symbol
_atom_site_symmetry_multiplicity
_atom_site_Wyckoff_symbol
_atom_site_fract_x
_atom_site_fract_y
_atom_site_fract_z
_atom_site_B_iso_or_equiv
_atom_site_occupancy
_atom_site_attached_hydrogens
Te1 Te4+ 8 c 0.54652(4) 0.28714(3) 0.42454(2) 0.00780(9) 1 0
Te2 Te4+ 8 c 0.08184(4) 0.00810(3) 0.76667(2) 0.00932(9) 1 0
Fe1 Fe3+ 8 c 0.30472(10) 0.49980(6) -0.02064(5) 0.00866(15) 1 0
Na1 Na1+ 8 c 0.8320(3) 0.2417(2) 0.64216(19) 0.0254(6) 1 0
O1 O2- 8 c 0.3210(4) 0.3435(3) 0.4480(3) 0.0122(7) 1 0
O2 O2- 8 c 0.4293(5) 0.1849(4) 0.2665(3) 0.0169(8) 1 0
O3 O2- 8 c 0.3696(4) 0.1292(3) 0.0402(3) 0.0106(7) 1 0
O4 O2- 8 c 0.4983(4) 0.1292(3) 0.4888(3) 0.0104(7) 1 0
O5 O2- 8 c 0.3769(5) 0.0296(3) 0.6643(3) 0.0107(7) 1 0
O6 O2- 8 c 0.2625(5) 0.4796(3) 0.1281(3) 0.0119(7) 1 0
loop_
_atom_site_aniso_label
_atom_site_aniso_type_symbol
_atom_site_aniso_U_11
_atom_site_aniso_U_22
_atom_site_aniso_U_33
_atom_site_aniso_U_12
_atom_site_aniso_U_13
_atom_site_aniso_U_23
Te1 Te4+ 0.00751(16) 0.00640(14) 0.00950(15) -0.00033(11) 0.00003(11)
0.00063(11)
Te2 Te4+ 0.00962(16) 0.00905(15) 0.00928(16) 0.00021(11) 0.00013(11)
-0.00144(11)
Fe1 Fe3+ 0.0085(3) 0.0069(3) 0.0106(4) 0.0000(3) -0.0002(3) -0.0005(2)
Na1 Na1+ 0.0326(15) 0.0142(11) 0.0294(13) -0.0056(10) -0.0082(11) 0.0034(10)
O1 O2- 0.0065(17) 0.0113(16) 0.0188(19) 0.0005(14) 0.0010(14) -0.0019(14)
O2 O2- 0.022(2) 0.0110(17) 0.0175(19) -0.0020(15) -0.0020(16) 0.0000(14)
O3 O2- 0.0087(17) 0.0094(16) 0.0138(17) -0.0030(14) -0.0017(14) 0.0023(13)
O4 O2- 0.0074(17) 0.0085(16) 0.0152(17) 0.0012(13) -0.0020(13) 0.0028(13)
O5 O2- 0.0096(17) 0.0156(17) 0.0071(17) 0.0007(14) -0.0014(13) -0.0017(14)
O6 O2- 0.0119(18) 0.0154(17) 0.0084(17) -0.0003(14) 0.0003(14) -0.0006(13)
#End of TTdata_240939-ICSD