
#(C) 2019 by FIZ Karlsruhe - Leibniz Institute for Information Infrastructure.  All rights reserved.
data_240942-ICSD
_database_code_ICSD 240942
_audit_creation_date 2008-08-01
_chemical_name_systematic
'Trisodium dihydroxidotetraoxidoneptunate(VII) dihydrate'
_chemical_formula_structural 'Na3 (Np O4 (O H)2) (H2 O)2'
_chemical_formula_sum 'H6 Na3 Np1 O8'
_chemical_name_structure_type K3PuO4(OH)2(H2O)2
_exptl_crystal_density_diffrn 3.83
_cell_measurement_temperature 100.
_publ_section_title
'Reinvestigation of trisodium dihydroxidotetraoxidoneptunate(VII) dihydrate'
loop_
_citation_id
_citation_journal_full
_citation_year
_citation_journal_volume
_citation_page_first
_citation_page_last
_citation_journal_id_ASTM
primary 'Acta Crystallographica, Section E: Structure Reports Online' 2008 64 i6
i6 ACSEBH
loop_
_publ_author_name
'Grigoriev, M.S.'
'Krot, N.N.'
_cell_length_a 7.8166(3)
_cell_length_b 7.7703(2)
_cell_length_c 6.8211(2)
_cell_angle_alpha 90.
_cell_angle_beta 112.9139(14)
_cell_angle_gamma 90.
_cell_volume 381.6
_cell_formula_units_Z 2
_symmetry_space_group_name_H-M 'P 1 21/c 1'
_symmetry_Int_Tables_number 14
_refine_ls_R_factor_all 0.0095
loop_
_symmetry_equiv_pos_site_id
_symmetry_equiv_pos_as_xyz
1 'x, -y+1/2, z+1/2'
2 '-x, -y, -z'
3 '-x, y+1/2, -z+1/2'
4 'x, y, z'
loop_
_atom_type_symbol
_atom_type_oxidation_number
Np7+ 7
Na1+ 1
O2- -2
H1+ 1
O2- -2
H1+ 1
loop_
_atom_site_label
_atom_site_type_symbol
_atom_site_symmetry_multiplicity
_atom_site_Wyckoff_symbol
_atom_site_fract_x
_atom_site_fract_y
_atom_site_fract_z
_atom_site_B_iso_or_equiv
_atom_site_occupancy
_atom_site_attached_hydrogens
Np1 Np7+ 2 b 0.5 0.5 0.5 0.004060(10) 1 0
Na1 Na1+ 2 d 0.5 0.5 0. 0.00859(9) 1 0
Na2 Na1+ 4 e 0.85815(7) 0.32123(6) 0.90540(8) 0.01157(8) 1 0
O1 O2- 4 e 0.65824(10) 0.56060(10) 0.78208(12) 0.00757(11) 1 0
O2 O2- 4 e 0.37890(10) 0.71543(9) 0.45784(12) 0.00792(11) 1 0
O3 O2- 4 e 0.72436(10) 0.59020(9) 0.37305(12) 0.00862(11) 1 0
H1 H1+ 4 e 0.715(3) 0.693(2) 0.349(4) 0.031(6) 1 0
O4 O2- 4 e 0.97126(12) 0.44316(15) 0.24784(14) 0.01657(15) 1 0
H2 H1+ 4 e 0.892(4) 0.493(2) 0.286(5) 0.021(6) 1 0
H3 H1+ 4 e 1.071(2) 0.428(3) 0.354(3) 0.029(5) 1 0
loop_
_atom_site_aniso_label
_atom_site_aniso_type_symbol
_atom_site_aniso_U_11
_atom_site_aniso_U_22
_atom_site_aniso_U_33
_atom_site_aniso_U_12
_atom_site_aniso_U_13
_atom_site_aniso_U_23
Np1 Np7+ 0.00487(2) 0.00387(2) 0.00377(2) 0.00001(2) 0.002050(10) -0.00008(1)
Na1 Na1+ 0.0114(2) 0.0080(2) 0.0080(2) 0.0013(2) 0.0056(2) 0.0006(2)
Na2 Na1+ 0.01207(18) 0.01314(18) 0.00847(17) 0.00321(15) 0.00287(14)
-0.00015(15)
O1 O2- 0.0084(3) 0.0080(3) 0.0059(3) -0.0006(2) 0.0023(2) -0.0011(2)
O2 O2- 0.0097(3) 0.0055(2) 0.0086(3) 0.0015(2) 0.0037(2) 0.0006(2)
O3 O2- 0.0091(3) 0.0075(3) 0.0102(3) 0.0010(2) 0.0049(2) 0.0020(2)
O4 O2- 0.0077(3) 0.0293(4) 0.0106(3) 0.0028(3) 0.0013(3) -0.0068(3)
#End of TTdata_240942-ICSD