
#(C) 2019 by FIZ Karlsruhe - Leibniz Institute for Information Infrastructure.  All rights reserved.
data_240975-ICSD
_database_code_ICSD 240975
_audit_creation_date 2008-08-01
_chemical_name_systematic 'Trisodium dicalcium bismuth hexaoxide'
_chemical_formula_structural 'Na3 Ca2 Bi O6'
_chemical_formula_sum 'Bi1 Ca2 Na3 O6'
_chemical_name_structure_type Li3Ni2TaO6
_exptl_crystal_density_diffrn 4.69
_cell_measurement_temperature 294.
_publ_section_title 'Trisodium dicalcium bismuth hexaoxide'
loop_
_citation_id
_citation_journal_full
_citation_year
_citation_journal_volume
_citation_page_first
_citation_page_last
_citation_journal_id_ASTM
primary 'Acta Crystallographica, Section E: Structure Reports Online' 2007 63
i95 i96 ACSEBH
loop_
_publ_author_name
'Puzdrjakova, I.V.'
'Macquart, R.B.'
'Smith, M.D.'
'zur Loye, H.C.'
_cell_length_a 6.7039(8)
_cell_length_b 9.6251(11)
_cell_length_c 19.947(2)
_cell_angle_alpha 90.
_cell_angle_beta 90.
_cell_angle_gamma 90.
_cell_volume 1287.09
_cell_formula_units_Z 8
_symmetry_space_group_name_H-M 'F d d d Z'
_symmetry_Int_Tables_number 70
_refine_ls_R_factor_all 0.0126
loop_
_symmetry_equiv_pos_site_id
_symmetry_equiv_pos_as_xyz
1 'x+3/4, y+3/4, -z'
2 'x+3/4, -y, z+3/4'
3 '-x, y+3/4, z+3/4'
4 '-x, -y, -z'
5 '-x+1/4, -y+1/4, z'
6 '-x+1/4, y, -z+1/4'
7 'x, -y+1/4, -z+1/4'
8 'x, y, z'
9 'x+3/4, y+1/4, -z+1/2'
10 'x+3/4, -y+1/2, z+1/4'
11 '-x, y+1/4, z+1/4'
12 '-x, -y+1/2, -z+1/2'
13 '-x+1/4, -y+3/4, z+1/2'
14 '-x+1/4, y+1/2, -z+3/4'
15 'x, -y+3/4, -z+3/4'
16 'x, y+1/2, z+1/2'
17 'x+1/4, y+3/4, -z+1/2'
18 'x+1/4, -y, z+1/4'
19 '-x+1/2, y+3/4, z+1/4'
20 '-x+1/2, -y, -z+1/2'
21 '-x+3/4, -y+1/4, z+1/2'
22 '-x+3/4, y, -z+3/4'
23 'x+1/2, -y+1/4, -z+3/4'
24 'x+1/2, y, z+1/2'
25 'x+1/4, y+1/4, -z'
26 'x+1/4, -y+1/2, z+3/4'
27 '-x+1/2, y+1/4, z+3/4'
28 '-x+1/2, -y+1/2, -z'
29 '-x+3/4, -y+3/4, z'
30 '-x+3/4, y+1/2, -z+1/4'
31 'x+1/2, -y+3/4, -z+1/4'
32 'x+1/2, y+1/2, z'
loop_
_atom_type_symbol
_atom_type_oxidation_number
Bi5+ 5
Ca2+ 2
Na1+ 1
O2- -2
loop_
_atom_site_label
_atom_site_type_symbol
_atom_site_symmetry_multiplicity
_atom_site_Wyckoff_symbol
_atom_site_fract_x
_atom_site_fract_y
_atom_site_fract_z
_atom_site_B_iso_or_equiv
_atom_site_occupancy
_atom_site_attached_hydrogens
Bi1 Bi5+ 8 b 0.125 0.125 0.625 0.00649(8) 1 0
Ca1 Ca2+ 16 g 0.125 0.125 0.45560(4) 0.00951(17) 1 0
Na1 Na1+ 8 a 0.125 0.125 0.125 0.0161(6) 1 0
Na2 Na1+ 16 g 0.125 0.125 0.28796(9) 0.0092(3) 1 0
O1 O2- 16 f 0.125 0.4051(3) 0.125 0.0108(6) 1 0
O2 O2- 32 h 0.4013(4) 0.1212(3) 0.04863(11) 0.0103(5) 1 0
loop_
_atom_site_aniso_label
_atom_site_aniso_type_symbol
_atom_site_aniso_U_11
_atom_site_aniso_U_22
_atom_site_aniso_U_33
_atom_site_aniso_U_12
_atom_site_aniso_U_13
_atom_site_aniso_U_23
Bi1 Bi5+ 0.00614(12) 0.00677(11) 0.00656(11) 0. 0. 0.
Ca1 Ca2+ 0.0095(4) 0.0099(4) 0.0092(4) -0.0007(9) 0. 0.
Na1 Na1+ 0.0072(13) 0.0288(15) 0.0122(12) 0. 0. 0.
Na2 Na1+ 0.0085(9) 0.0096(8) 0.0094(8) -0.0016(19) 0. 0.
O1 O2- 0.0122(16) 0.0089(13) 0.0113(14) 0. -0.0009(14) 0.
O2 O2- 0.0081(11) 0.0131(11) 0.0097(10) -0.0001(12) -0.0015(8) -0.0005(8)
#End of TTdata_240975-ICSD