
#(C) 2019 by FIZ Karlsruhe - Leibniz Institute for Information Infrastructure.  All rights reserved.
data_240922-ICSD
_database_code_ICSD 240922
_audit_creation_date 2008-08-01
_chemical_name_systematic 'Sodium tetragermanium(II) tris(phosphate)'
_chemical_formula_structural 'Na (Ge4 (P O4)3)'
_chemical_formula_sum 'Ge4 Na1 O12 P3'
_chemical_name_structure_type NaSn4(PO4)3
_exptl_crystal_density_diffrn 3.33
_cell_measurement_temperature 298.
_publ_section_title 'A quaternary germanium(II) phosphate, Na [Ge4 (P O4)3]'
loop_
_citation_id
_citation_journal_full
_citation_year
_citation_journal_volume
_citation_page_first
_citation_page_last
_citation_journal_id_ASTM
primary 'Acta Crystallographica, Section E: Structure Reports Online' 2008 64
i17 i17 ACSEBH
loop_
_publ_author_name
'Lee Chishen'
'Weng Shengfeng'
_cell_length_a 9.377(8)
_cell_length_b 9.377(8)
_cell_length_c 23.48(3)
_cell_angle_alpha 90.
_cell_angle_beta 90.
_cell_angle_gamma 120.
_cell_volume 1787.95
_cell_formula_units_Z 6
_symmetry_space_group_name_H-M 'R 3 c H'
_symmetry_Int_Tables_number 161
_refine_ls_R_factor_all 0.058
loop_
_symmetry_equiv_pos_site_id
_symmetry_equiv_pos_as_xyz
1 '-x+y, y, z+1/2'
2 'x, x-y, z+1/2'
3 '-y, -x, z+1/2'
4 '-x+y, -x, z'
5 '-y, x-y, z'
6 'x, y, z'
7 '-x+y+2/3, y+1/3, z+5/6'
8 'x+2/3, x-y+1/3, z+5/6'
9 '-y+2/3, -x+1/3, z+5/6'
10 '-x+y+2/3, -x+1/3, z+1/3'
11 '-y+2/3, x-y+1/3, z+1/3'
12 'x+2/3, y+1/3, z+1/3'
13 '-x+y+1/3, y+2/3, z+1/6'
14 'x+1/3, x-y+2/3, z+1/6'
15 '-y+1/3, -x+2/3, z+1/6'
16 '-x+y+1/3, -x+2/3, z+2/3'
17 '-y+1/3, x-y+2/3, z+2/3'
18 'x+1/3, y+2/3, z+2/3'
loop_
_atom_type_symbol
_atom_type_oxidation_number
Ge2+ 2
P5+ 5
Na1+ 1
O2- -2
loop_
_atom_site_label
_atom_site_type_symbol
_atom_site_symmetry_multiplicity
_atom_site_Wyckoff_symbol
_atom_site_fract_x
_atom_site_fract_y
_atom_site_fract_z
_atom_site_B_iso_or_equiv
_atom_site_occupancy
_atom_site_attached_hydrogens
Ge1 Ge2+ 6 a 1. 1. 0.07489(10) 0.0243(6) 1 0
Ge2 Ge2+ 18 b 1.41201(19) 1.47337(17) 0.10322(6) 0.0214(4) 1 0
P1 P5+ 18 b 1.3317(4) 1.1233(4) 0.14139(17) 0.0190(7) 1 0
Na1 Na1+ 6 a 0.6667 0.3333 0.0506(4) 0.025(2) 1 0
O1 O2- 18 b 1.4071(13) 1.2667(13) 0.0985(4) 0.024(2) 1 0
O2 O2- 18 b 1.1603(13) 0.9917(13) 0.1226(5) 0.032(2) 1 0
O3 O2- 18 b 1.6040(13) 1.5600(13) 0.1466(4) 0.027(2) 1 0
O4 O2- 18 b 1.5371(12) 1.5216(13) 0.0335(4) 0.026(2) 1 0
loop_
_atom_site_aniso_label
_atom_site_aniso_type_symbol
_atom_site_aniso_U_11
_atom_site_aniso_U_22
_atom_site_aniso_U_33
_atom_site_aniso_U_12
_atom_site_aniso_U_13
_atom_site_aniso_U_23
Ge1 Ge2+ 0.0271(9) 0.0271(9) 0.0187(11) 0.0136(4) 0. 0.
Ge2 Ge2+ 0.0170(8) 0.0212(8) 0.0242(6) 0.0083(6) -0.0022(5) -0.0022(6)
P1 P5+ 0.0169(17) 0.0186(17) 0.0205(14) 0.0082(14) 0.0026(12) 0.0008(12)
Na1 Na1+ 0.025(3) 0.025(3) 0.026(5) 0.0125(16) 0. 0.
O1 O2- 0.025(5) 0.027(6) 0.019(4) 0.012(5) -0.005(4) 0.000(4)
O2 O2- 0.019(5) 0.031(6) 0.050(6) 0.016(5) 0.002(4) 0.010(5)
O3 O2- 0.027(6) 0.028(5) 0.020(4) 0.009(5) 0.000(4) -0.004(4)
O4 O2- 0.018(5) 0.024(6) 0.019(4) -0.001(4) 0.002(4) 0.008(4)
#End of TTdata_240922-ICSD