
#(C) 2019 by FIZ Karlsruhe - Leibniz Institute for Information Infrastructure.  All rights reserved.
data_240928-ICSD
_database_code_ICSD 240928
_audit_creation_date 2008-08-01
_chemical_name_systematic 'Disodium tetraaquabis(sulfato) iron(II)'
_chemical_formula_structural 'Fe Na2 (S O4)2 (H2 O)4'
_chemical_formula_sum 'H8 Fe1 Na2 O12 S2'
_exptl_crystal_density_diffrn 2.42
_cell_measurement_temperature 301.
_publ_section_title 'Disodium tetraaquabis(sulfato)iron(II)'
loop_
_citation_id
_citation_journal_full
_citation_year
_citation_journal_volume
_citation_page_first
_citation_page_last
_citation_journal_id_ASTM
primary 'Acta Crystallographica, Section E: Structure Reports Online' 2008 64
i10 i10 ACSEBH
loop_
_publ_author_name
'Hudak, M.'
'Diaz, J.G.'
'Kozisek, J.'
_cell_length_a 5.5510(10)
_cell_length_b 8.2520(10)
_cell_length_c 11.1620(10)
_cell_angle_alpha 90.
_cell_angle_beta 100.200(10)
_cell_angle_gamma 90.
_cell_volume 503.22
_cell_formula_units_Z 2
_symmetry_space_group_name_H-M 'P 1 21/c 1'
_symmetry_Int_Tables_number 14
_refine_ls_R_factor_all 0.0176
loop_
_symmetry_equiv_pos_site_id
_symmetry_equiv_pos_as_xyz
1 'x, -y+1/2, z+1/2'
2 '-x, -y, -z'
3 '-x, y+1/2, -z+1/2'
4 'x, y, z'
loop_
_atom_type_symbol
_atom_type_oxidation_number
O2- -2
H1+ 1
O2- -2
H1+ 1
S6+ 6
Na1+ 1
Fe2+ 2
loop_
_atom_site_label
_atom_site_type_symbol
_atom_site_symmetry_multiplicity
_atom_site_Wyckoff_symbol
_atom_site_fract_x
_atom_site_fract_y
_atom_site_fract_z
_atom_site_B_iso_or_equiv
_atom_site_occupancy
_atom_site_attached_hydrogens
O1 O2- 4 e 0.81620(17) 0.63212(12) 0.56957(10) 0.0228(2) 1 0
O2 O2- 4 e 0.70650(19) 0.91424(13) 0.57758(9) 0.0234(2) 1 0
O3 O2- 4 e 1.12799(17) 0.82849(12) 0.63063(10) 0.0234(2) 1 0
O4 O2- 4 e 0.84525(19) 0.76778(12) 0.76330(9) 0.0224(2) 1 0
O5 O2- 4 e 0.37101(18) 0.53699(14) 0.66515(9) 0.01827(19) 1 0
H1 H1+ 4 e 0.294(4) 0.617(3) 0.660(2) 0.039(6) 1 0
H2 H1+ 4 e 0.290(4) 0.472(3) 0.679(2) 0.031(6) 1 0
O6 O2- 4 e 0.31917(19) 0.71528(13) 0.41612(10) 0.0201(2) 1 0
H3 H1+ 4 e 0.211(5) 0.707(3) 0.368(2) 0.039(6) 1 0
H4 H1+ 4 e 0.272(5) 0.771(3) 0.453(2) 0.040(7) 1 0
S1 S6+ 4 e 0.86989(5) 0.78740(3) 0.63455(3) 0.01276(9) 1 0
Na1 Na1+ 4 e 0.62761(10) 0.56900(7) 0.86236(5) 0.02189(13) 1 0
Fe1 Fe2+ 2 b 0.5 0.5 0.5 0.01297(9) 1 0
loop_
_atom_site_aniso_label
_atom_site_aniso_type_symbol
_atom_site_aniso_U_11
_atom_site_aniso_U_22
_atom_site_aniso_U_33
_atom_site_aniso_U_12
_atom_site_aniso_U_13
_atom_site_aniso_U_23
O1 O2- 0.0175(4) 0.0203(5) 0.0302(5) -0.0039(3) 0.0031(4) -0.0113(4)
O2 O2- 0.0263(5) 0.0248(5) 0.0183(4) 0.0113(4) 0.0017(4) 0.0034(4)
O3 O2- 0.0148(4) 0.0218(5) 0.0342(5) -0.0049(4) 0.0058(4) -0.0040(4)
O4 O2- 0.0292(5) 0.0243(5) 0.0142(4) 0.0024(4) 0.0054(4) 0.0024(4)
O5 O2- 0.0190(4) 0.0188(5) 0.0182(4) 0.0011(4) 0.0068(3) 0.0005(4)
O6 O2- 0.0203(5) 0.0178(5) 0.0198(5) 0.0025(4) -0.0030(4) -0.0015(4)
S1 S6+ 0.01181(14) 0.01334(15) 0.01272(15) 0.00036(9) 0.00107(10) -0.00092(10)
Na1 Na1+ 0.0242(3) 0.0222(3) 0.0185(3) -0.0010(2) 0.0018(2) 0.0011(2)
Fe1 Fe2+ 0.01386(13) 0.01298(13) 0.01206(13) -0.00055(8) 0.00225(8) -0.00057(8)
#End of TTdata_240928-ICSD