
#(C) 2019 by FIZ Karlsruhe - Leibniz Institute for Information Infrastructure.  All rights reserved.
data_241144-ICSD
_database_code_ICSD 241144
_audit_creation_date 2008-08-01
_chemical_name_systematic 'Sodium manganese(II) manganese(III) germanate *'
_chemical_formula_structural 'Na2 (Mn0.26 Na0.74) Mn5 Ge6 O20'
_chemical_formula_sum 'Ge6 Mn5.26 Na2.74 O20'
_chemical_name_structure_type Aenigmatite-Na2TiFe5Si6O20
_exptl_crystal_density_diffrn 4.56
_cell_measurement_temperature 295.
_publ_section_title

;
Synthetic aenigmatite analog Na2 (Mn5.26 Na0.74) Ge6 O20: structure and
crystal chemical considerations
;
loop_
_citation_id
_citation_journal_full
_citation_year
_citation_journal_volume
_citation_page_first
_citation_page_last
_citation_journal_id_ASTM
primary 'Acta Crystallographica, Section C: Crystal Structure Communications'
2008 64 i21 i26 ACSCEE
loop_
_publ_author_name
'Redhammer, G.J.'
'Roth, G.'
'Topa, D.'
'Amthauer, G.'
_cell_length_a 10.5578(9)
_cell_length_b 11.1532(7)
_cell_length_c 9.1833(7)
_cell_angle_alpha 106.707(2)
_cell_angle_beta 95.8090(10)
_cell_angle_gamma 124.367(5)
_cell_volume 806.04
_cell_formula_units_Z 2
_symmetry_space_group_name_H-M 'P -1'
_symmetry_Int_Tables_number 2
_refine_ls_R_factor_all 0.0423
loop_
_symmetry_equiv_pos_site_id
_symmetry_equiv_pos_as_xyz
1 '-x, -y, -z'
2 'x, y, z'
loop_
_atom_type_symbol
_atom_type_oxidation_number
Ge4+ 4
Mn3+ 3
Mn2+ 2
Mn2+ 2.8
Mn2+ 2
Na1+ 1
Mn2+ 2
Na1+ 1
O2- -2
loop_
_atom_site_label
_atom_site_type_symbol
_atom_site_symmetry_multiplicity
_atom_site_Wyckoff_symbol
_atom_site_fract_x
_atom_site_fract_y
_atom_site_fract_z
_atom_site_B_iso_or_equiv
_atom_site_occupancy
_atom_site_attached_hydrogens
Ge1 Ge4+ 2 i -0.28732(9) 0.65515(9) 0.75805(9) 0.00966(18) 1 0
Ge2 Ge4+ 2 i 0.02820(9) 0.76641(9) 0.66405(9) 0.01171(18) 1 0
Ge3 Ge4+ 2 i 0.22611(9) 0.65845(9) 0.77842(10) 0.01260(19) 1 0
Ge4 Ge4+ 2 i 0.52220(9) 0.76621(9) 0.65123(9) 0.00997(18) 1 0
Ge5 Ge4+ 2 i 0.14459(9) 0.94746(9) 0.44097(9) 0.00897(18) 1 0
Ge6 Ge4+ 2 i 0.13837(9) 0.43761(9) 0.95231(9) 0.00935(18) 1 0
Mn1 Mn3+ 1 f 0.5 1 0.5 0.0091(3) 1 0
Mn2 Mn3+ 1 e 0.5 0.5 1 0.0099(3) 1 0
Mn3 Mn3+ 2 i 0.80868(13) 0.84635(13) 0.17711(13) 0.0101(2) 1 0
Mn4 Mn2+ 2 i 0.09944(13) 0.94628(14) 0.06221(14) 0.0119(3) 1 0
Mn5 Mn2+ 2 i 0.27496(13) 0.82376(13) 0.15887(13) 0.0107(2) 1 0
Mn6 Mn2+ 2 i 0.5914(2) 0.9367(2) 0.0598(2) 0.0108(4) 0.26 0
Na1 Na1+ 2 i 0.5914(2) 0.9367(2) 0.0598(2) 0.0108(4) 0.74 0
Mn7 Mn2+ 2 i 0.48962(13) 0.72991(13) 0.26696(13) 0.0081(2) 1 0
Na2 Na1+ 2 i -0.2913(3) 0.6300(3) 0.3830(3) 0.0149(7) 1 0
Na3 Na1+ 2 i 0.1629(3) 0.6118(4) 0.3735(4) 0.0180(7) 1 0
O1 O2- 2 i -0.1603(6) 0.8260(6) 0.9343(6) 0.0129(12) 1 0
O2 O2- 2 i -0.4430(6) 0.4863(6) 0.7740(6) 0.0144(12) 1 0
O3 O2- 2 i -0.1672(5) 0.6197(6) 0.6601(6) 0.0109(11) 1 0
O4 O2- 2 i -0.3812(6) 0.6809(6) 0.6131(6) 0.0135(11) 1 0
O5 O2- 2 i 0.1456(5) 0.9424(6) 0.8332(6) 0.0119(11) 1 0
O6 O2- 2 i 0.1127(6) 0.6663(6) 0.6312(6) 0.0132(11) 1 0
O7 O2- 2 i -0.0049(5) 0.7949(5) 0.4918(6) 0.0099(11) 1 0
O8 O2- 2 i 0.3359(6) 0.8265(6) 0.9539(6) 0.0175(13) 1 0
O9 O2- 2 i 0.0851(6) 0.4857(6) 0.7990(6) 0.0132(12) 1 0
O10 O2- 2 i 0.3482(6) 0.6272(6) 0.6897(6) 0.0146(12) 1 0
O11 O2- 2 i 0.6506(6) 0.9432(6) 0.8198(6) 0.0156(12) 1 0
O12 O2- 2 i 0.4491(6) 0.7753(6) 0.4796(6) 0.0108(11) 1 0
O13 O2- 2 i 0.2601(6) 1.1278(6) 0.6108(6) 0.0150(12) 1 0
O14 O2- 2 i 0.2624(6) 0.8848(6) 0.3878(6) 0.0146(12) 1 0
O15 O2- 2 i 0.0458(6) 0.9541(6) 0.2858(6) 0.0147(12) 1 0
O16 O2- 2 i 0.2449(6) 0.6064(6) 1.1332(6) 0.0189(13) 1 0
O17 O2- 2 i -0.0447(6) 0.2791(6) 0.9562(6) 0.0185(13) 1 0
O18 O2- 2 i 0.2631(6) 0.3879(6) 0.8904(6) 0.0113(11) 1 0
O19 O2- 2 i 0.4982(6) 0.9240(6) 0.2855(6) 0.0171(12) 1 0
O20 O2- 2 i 0.5601(6) 0.7103(6) 0.0796(6) 0.0208(13) 1 0
loop_
_atom_site_aniso_label
_atom_site_aniso_type_symbol
_atom_site_aniso_U_11
_atom_site_aniso_U_22
_atom_site_aniso_U_33
_atom_site_aniso_U_12
_atom_site_aniso_U_13
_atom_site_aniso_U_23
Ge1 Ge4+ 0.0088(4) 0.0103(4) 0.0094(4) 0.0057(3) 0.0033(3) 0.0040(3)
Ge2 Ge4+ 0.0119(4) 0.0126(4) 0.0109(4) 0.0079(3) 0.0038(3) 0.0045(3)
Ge3 Ge4+ 0.0121(4) 0.0113(4) 0.0136(4) 0.0073(3) 0.0042(3) 0.0042(3)
Ge4 Ge4+ 0.0096(4) 0.0103(4) 0.0092(4) 0.0058(3) 0.0025(3) 0.0040(3)
Ge5 Ge4+ 0.0113(4) 0.0088(4) 0.0077(4) 0.0066(3) 0.0046(3) 0.0032(3)
Ge6 Ge4+ 0.0123(4) 0.0081(4) 0.0101(4) 0.0072(3) 0.0059(3) 0.0043(3)
Mn1 Mn3+ 0.0094(7) 0.0107(8) 0.0071(8) 0.0064(6) 0.0030(6) 0.0031(6)
Mn2 Mn3+ 0.0103(7) 0.0095(8) 0.0096(8) 0.0065(6) 0.0037(6) 0.0031(6)
Mn3 Mn3+ 0.0099(5) 0.0105(5) 0.0112(6) 0.0071(5) 0.0042(5) 0.0041(5)
Mn4 Mn2+ 0.0120(5) 0.0123(5) 0.0124(6) 0.0078(5) 0.0045(5) 0.0058(5)
Mn5 Mn2+ 0.0111(5) 0.0127(6) 0.0112(6) 0.0082(5) 0.0049(5) 0.0062(5)
Mn6 Mn2+ 0.0070(9) 0.0117(10) 0.0124(10) 0.0041(8) 0.0033(8) 0.0073(8)
Na1 Na1+ 0.0070(9) 0.0117(10) 0.0124(10) 0.0041(8) 0.0033(8) 0.0073(8)
Mn7 Mn2+ 0.0104(5) 0.0094(5) 0.0081(6) 0.0075(4) 0.0044(4) 0.0043(4)
Na2 Na1+ 0.0121(14) 0.0151(15) 0.0181(16) 0.0087(12) 0.0062(12) 0.0066(13)
Na3 Na1+ 0.0147(15) 0.0229(16) 0.0167(16) 0.0111(13) 0.0052(13) 0.0101(14)
O1 O2- 0.014(2) 0.012(3) 0.010(3) 0.009(2) 0.001(2) 0.001(2)
O2 O2- 0.011(2) 0.016(3) 0.019(3) 0.008(2) 0.007(2) 0.009(2)
O3 O2- 0.010(2) 0.009(2) 0.017(3) 0.008(2) 0.007(2) 0.004(2)
O4 O2- 0.017(2) 0.018(3) 0.013(3) 0.016(2) 0.005(2) 0.004(2)
O5 O2- 0.009(2) 0.013(3) 0.010(3) 0.006(2) 0.000(2) 0.003(2)
O6 O2- 0.017(3) 0.017(3) 0.016(3) 0.014(2) 0.006(2) 0.011(2)
O7 O2- 0.006(2) 0.006(2) 0.013(3) 0.001(2) 0.005(2) 0.004(2)
O8 O2- 0.014(3) 0.012(3) 0.016(3) 0.005(2) 0.001(2) 0.003(2)
O9 O2- 0.012(2) 0.009(2) 0.017(3) 0.006(2) 0.005(2) 0.005(2)
O10 O2- 0.011(2) 0.012(3) 0.017(3) 0.005(2) 0.007(2) 0.006(2)
O11 O2- 0.017(3) 0.007(3) 0.015(3) 0.005(2) -0.001(2) 0.002(2)
O12 O2- 0.016(2) 0.012(2) 0.014(3) 0.011(2) 0.007(2) 0.010(2)
O13 O2- 0.010(2) 0.011(3) 0.019(3) 0.005(2) 0.005(2) 0.006(2)
O14 O2- 0.018(3) 0.016(3) 0.012(3) 0.011(2) 0.007(2) 0.005(2)
O15 O2- 0.023(3) 0.015(3) 0.010(3) 0.014(2) 0.005(2) 0.006(2)
O16 O2- 0.022(3) 0.017(3) 0.016(3) 0.012(2) 0.005(2) 0.006(2)
O17 O2- 0.024(3) 0.011(3) 0.023(3) 0.012(2) 0.012(2) 0.007(2)
O18 O2- 0.015(3) 0.013(3) 0.006(3) 0.009(2) 0.003(2) 0.003(2)
O19 O2- 0.015(3) 0.017(3) 0.009(3) 0.006(2) 0.001(2) 0.004(2)
O20 O2- 0.026(3) 0.016(3) 0.015(3) 0.013(2) 0.000(2) 0.003(2)
#End of TTdata_241144-ICSD