
#(C) 2019 by FIZ Karlsruhe - Leibniz Institute for Information Infrastructure.  All rights reserved.
data_241445-ICSD
_database_code_ICSD 241445
_audit_creation_date 2017-08-01
_chemical_name_systematic 'Sodium tantalate(V)'
_chemical_formula_structural 'Na Ta O3'
_chemical_formula_sum 'Na1 O3 Ta1'
_chemical_name_structure_type Perovskite-NaTaO3
_exptl_crystal_density_diffrn 6.94
_cell_measurement_temperature 778.
_publ_section_title

;
Phase coexistence in Na Ta O3 at room temperature; a high resolution neutron
powder diffraction study
;
loop_
_citation_id
_citation_journal_full
_citation_year
_citation_journal_volume
_citation_page_first
_citation_page_last
_citation_journal_id_ASTM
primary 'Solid State Sciences' 2015 43 15 21 SSSCFJ
loop_
_publ_author_name
'Knight, Kevin S.'
'Kennedy, Brendan J.'
_cell_length_a 7.83216(3)
_cell_length_b 7.8463(1)
_cell_length_c 7.8526(1)
_cell_angle_alpha 90.
_cell_angle_beta 90.
_cell_angle_gamma 90.
_cell_volume 482.57
_cell_formula_units_Z 8
_symmetry_space_group_name_H-M 'C m c m'
_symmetry_Int_Tables_number 63
loop_
_symmetry_equiv_pos_site_id
_symmetry_equiv_pos_as_xyz
1 '-x, y, -z+1/2'
2 '-x, -y, z+1/2'
3 '-x, y, z'
4 '-x, -y, -z'
5 'x, -y, z+1/2'
6 'x, y, -z+1/2'
7 'x, -y, -z'
8 'x, y, z'
9 '-x+1/2, y+1/2, -z+1/2'
10 '-x+1/2, -y+1/2, z+1/2'
11 '-x+1/2, y+1/2, z'
12 '-x+1/2, -y+1/2, -z'
13 'x+1/2, -y+1/2, z+1/2'
14 'x+1/2, y+1/2, -z+1/2'
15 'x+1/2, -y+1/2, -z'
16 'x+1/2, y+1/2, z'
loop_
_atom_type_symbol
_atom_type_oxidation_number
Na1+ 1
Ta5+ 5
O2- -2
loop_
_atom_site_label
_atom_site_type_symbol
_atom_site_symmetry_multiplicity
_atom_site_Wyckoff_symbol
_atom_site_fract_x
_atom_site_fract_y
_atom_site_fract_z
_atom_site_B_iso_or_equiv
_atom_site_occupancy
_atom_site_attached_hydrogens
Na1 Na1+ 4 c 0 -0.004(2) 0.25 0.049(2) 1. 0
Na2 Na1+ 4 c 0 0.493(2) 0.25 0.041(2) 1. 0
Ta1 Ta5+ 8 d 0.25 0.25 0 0.0133(2) 1. 0
O1 O2- 8 g 0.2725(3) 0.2513(7) 0.25 0.034(4) 1. 0
O2 O2- 8 e 0.2775(4) 0 0 0.034(4) 1. 0
O3 O2- 8 f 0 0.2256(4) 0.0213(4) 0.029(3) 1. 0
loop_
_atom_site_aniso_label
_atom_site_aniso_type_symbol
_atom_site_aniso_U_11
_atom_site_aniso_U_22
_atom_site_aniso_U_33
_atom_site_aniso_U_12
_atom_site_aniso_U_13
_atom_site_aniso_U_23
O1 O2- 0.030(2) 0.052(3) 0.019(1) -0.008(2) 0 0
O2 O2- 0.030(2) 0.006(1) 0.067(3) 0 0 -0.003(2)
O3 O2- 0.0135(8) 0.044(2) 0.029(2) 0 0 0.006(1)
#End of TTdata_241445-ICSD