
#(C) 2019 by FIZ Karlsruhe - Leibniz Institute for Information Infrastructure.  All rights reserved.
data_241443-ICSD
_database_code_ICSD 241443
_audit_creation_date 2017-08-01
_chemical_name_systematic 'Sodium tantalate(V)'
_chemical_formula_structural 'Na Ta O3'
_chemical_formula_sum 'Na1 O3 Ta1'
_chemical_name_structure_type Perovskite-GdFeO3
_exptl_crystal_density_diffrn 7.1
_publ_section_title

;
Phase coexistence in Na Ta O3 at room temperature; a high resolution neutron
powder diffraction study
;
loop_
_citation_id
_citation_journal_full
_citation_year
_citation_journal_volume
_citation_page_first
_citation_page_last
_citation_journal_id_ASTM
primary 'Solid State Sciences' 2015 43 15 21 SSSCFJ
loop_
_publ_author_name
'Knight, Kevin S.'
'Kennedy, Brendan J.'
_cell_length_a 5.47832(3)
_cell_length_b 5.52269(4)
_cell_length_c 7.79159(5)
_cell_angle_alpha 90.
_cell_angle_beta 90.
_cell_angle_gamma 90.
_cell_volume 235.73
_cell_formula_units_Z 4
_symmetry_space_group_name_H-M 'P b n m'
_symmetry_Int_Tables_number 62
_refine_ls_R_factor_all 0.047
loop_
_symmetry_equiv_pos_site_id
_symmetry_equiv_pos_as_xyz
1 '-x+1/2, y+1/2, z'
2 'x, y, -z+1/2'
3 'x+1/2, -y+1/2, z+1/2'
4 '-x, -y, -z'
5 'x+1/2, -y+1/2, -z'
6 '-x, -y, z+1/2'
7 '-x+1/2, y+1/2, -z+1/2'
8 'x, y, z'
loop_
_atom_type_symbol
_atom_type_oxidation_number
Na1+ 1
Ta5+ 5
O2- -2
loop_
_atom_site_label
_atom_site_type_symbol
_atom_site_symmetry_multiplicity
_atom_site_Wyckoff_symbol
_atom_site_fract_x
_atom_site_fract_y
_atom_site_fract_z
_atom_site_B_iso_or_equiv
_atom_site_occupancy
_atom_site_attached_hydrogens
Na1 Na1+ 4 c 0.0041(3) 0.5177(4) 0.25 0.0166(4) 1. 0
Ta1 Ta5+ 4 a 0 0 0 0.0048(2) 1. 0
O1 O2- 4 c -0.0628(2) -0.0092(2) 0.25 0.008(1) 1. 0
O2 O2- 8 d 0.2152(1) 0.2836(1) 0.0316(1) 0.0108(6) 1. 0
loop_
_atom_site_aniso_label
_atom_site_aniso_type_symbol
_atom_site_aniso_U_11
_atom_site_aniso_U_22
_atom_site_aniso_U_33
_atom_site_aniso_U_12
_atom_site_aniso_U_13
_atom_site_aniso_U_23
O1 O2- 0.0078(5) 0.0112(6) 0.0051(6) 0.0014(5) 0 0
O2 O2- 0.0095(3) 0.0082(3) 0.0147(4) -0.0044(4) 0.0013(3) -0.0021(3)
#End of TTdata_241443-ICSD