
#(C) 2019 by FIZ Karlsruhe - Leibniz Institute for Information Infrastructure.  All rights reserved.
data_241546-ICSD
_database_code_ICSD 241546
_audit_creation_date 2017-08-01
_chemical_name_systematic 'Tetrasodium plutonate(VI) - beta'
_chemical_formula_structural 'Na4 Pu O5'
_chemical_formula_sum 'Na4 O5 Pu1'
_chemical_name_structure_type Na4UO5
_exptl_crystal_density_diffrn 5.29
_publ_section_title

;
Synthesis and crystal structure investigations of ternary oxides in the
Na-Pu-O system
;
loop_
_citation_id
_citation_journal_full
_citation_year
_citation_journal_volume
_citation_page_first
_citation_page_last
_citation_journal_id_ASTM
primary 'Journal of Nuclear Materials' 2015 457 54 62 JNUMAM
loop_
_publ_author_name
'Bykov, D.M.'
'Raison, P.E.'
'Konings, R.J.M.'
'Apostolidis, C.'
'Orlova, M.'
_cell_length_a 7.519(2)
_cell_length_b 7.519(2)
_cell_length_c 4.619(1)
_cell_angle_alpha 90.
_cell_angle_beta 90.
_cell_angle_gamma 90.
_cell_volume 261.14
_cell_formula_units_Z 2
_symmetry_space_group_name_H-M 'I 4/m'
_symmetry_Int_Tables_number 87
_refine_ls_R_factor_all 0.0206
loop_
_symmetry_equiv_pos_site_id
_symmetry_equiv_pos_as_xyz
1 '-y, x, -z'
2 'y, -x, -z'
3 'x, y, -z'
4 '-x, -y, -z'
5 'y, -x, z'
6 '-y, x, z'
7 '-x, -y, z'
8 'x, y, z'
9 '-y+1/2, x+1/2, -z+1/2'
10 'y+1/2, -x+1/2, -z+1/2'
11 'x+1/2, y+1/2, -z+1/2'
12 '-x+1/2, -y+1/2, -z+1/2'
13 'y+1/2, -x+1/2, z+1/2'
14 '-y+1/2, x+1/2, z+1/2'
15 '-x+1/2, -y+1/2, z+1/2'
16 'x+1/2, y+1/2, z+1/2'
loop_
_atom_type_symbol
_atom_type_oxidation_number
Pu6+ 6
Na1+ 1
O2- -2
loop_
_atom_site_label
_atom_site_type_symbol
_atom_site_symmetry_multiplicity
_atom_site_Wyckoff_symbol
_atom_site_fract_x
_atom_site_fract_y
_atom_site_fract_z
_atom_site_B_iso_or_equiv
_atom_site_occupancy
_atom_site_attached_hydrogens
Pu1 Pu6+ 2 a 0 0 0 0.266 1. 0
Na1 Na1+ 8 h 0.79847(89) 0.59773(87) 0 0.348 1. 0
O1 O2- 2 b 0 0 0.5 1.409 1. 0
O2 O2- 8 h 0.7317(13) 0.9145(14) 0 1.409 1. 0
#End of TTdata_241546-ICSD