
#(C) 2019 by FIZ Karlsruhe - Leibniz Institute for Information Infrastructure.  All rights reserved.
data_241674-ICSD
_database_code_ICSD 241674
_audit_creation_date 2017-08-01
_chemical_name_systematic 'Potassium sodium pentafluorooxoniobate(V)'
_chemical_formula_structural 'K Na (Nb O F5)'
_chemical_formula_sum 'F5 K1 Na1 Nb1 O1'
_chemical_name_structure_type KNaSnF6
_exptl_crystal_density_diffrn 3.31
_cell_measurement_temperature 15.
_publ_section_title
'Reconstructive transitions from rotations of rigid heteroanionic polyhedra'
loop_
_citation_id
_citation_journal_full
_citation_year
_citation_journal_volume
_citation_page_first
_citation_page_last
_citation_journal_id_ASTM
primary 'Journal of the American Chemical Society' 2016 138 11882 11889 JACSAT
loop_
_publ_author_name
'Holland, Michael'
'Charles, Nenian'
'Rondinelli, James M.'
'Poeppelmeier, Kenneth R.'
_cell_length_a 11.45950(10)
_cell_length_b 5.86820(10)
_cell_length_c 7.93370(10)
_cell_angle_alpha 90.
_cell_angle_beta 90.
_cell_angle_gamma 90.
_cell_volume 533.51
_cell_formula_units_Z 4
_symmetry_space_group_name_H-M 'P n a 21'
_symmetry_Int_Tables_number 33
_refine_ls_R_factor_all 0.072
loop_
_symmetry_equiv_pos_site_id
_symmetry_equiv_pos_as_xyz
1 'x+1/2, -y+1/2, z'
2 '-x+1/2, y+1/2, z+1/2'
3 '-x, -y, z+1/2'
4 'x, y, z'
loop_
_atom_type_symbol
_atom_type_oxidation_number
Nb5+ 5
F1- -1
K1+ 1
Na1+ 1
F1- -1
O2- -2
loop_
_atom_site_label
_atom_site_type_symbol
_atom_site_symmetry_multiplicity
_atom_site_Wyckoff_symbol
_atom_site_fract_x
_atom_site_fract_y
_atom_site_fract_z
_atom_site_B_iso_or_equiv
_atom_site_occupancy
_atom_site_attached_hydrogens
Nb1 Nb5+ 4 a 0.8410(3) 0.0441(5) 0.5785(4) 0.0085(9) 1 0
F1 F1- 4 a 0.865(2) 0.146(7) 0.807(4) 0.024(6) 1 0
F2 F1- 4 a 0.7903(17) 0.331(5) 0.506(3) 0.007(5) 1 0
F3 F1- 4 a 0.9441(17) -0.221(5) 0.627(2) 0.008(4) 1 0
F4 F1- 4 a 1.0032(19) 0.214(5) 0.537(2) 0.011(5) 1 0
K1 K1+ 4 a 0.9688(7) 0.5400(18) 0.3309(11) 0.0096(17) 1 0
Na1 Na1+ 4 a 0.8634(11) 0.051(3) 0.070(3) 0.009(3) 1 0
F5 F1- 4 a 0.855(2) -0.047(6) 0.345(4) 0.020(6) 1 0
O1 O2- 4 a 0.7064(18) -0.076(5) 0.619(2) 0.000(5) 1 0
#End of TTdata_241674-ICSD