
#(C) 2019 by FIZ Karlsruhe - Leibniz Institute for Information Infrastructure.  All rights reserved.
data_242240-ICSD
_database_code_ICSD 242240
_audit_creation_date 2017-08-01
_chemical_name_systematic 'Sodium selenate(VI) heptahemihydrate'
_chemical_formula_structural 'Na2 Se O4 (H2 O)7.5'
_chemical_formula_sum 'H15 Na2 O11.5 Se1'
_exptl_crystal_density_diffrn 1.75
_cell_measurement_temperature 120.
_publ_section_title

;
Similarities and peculiarities between the crystal structures of the hydrates
of sodium sulfate and selenate
;
loop_
_citation_id
_citation_journal_full
_citation_year
_citation_journal_volume
_citation_page_first
_citation_page_last
_citation_journal_id_ASTM
primary

;
Acta Crystallographica, Section B: Structural Science, Crystal Engineering and
Materials
; 2014 70 714 722 ACSBDA
loop_
_publ_author_name
'Kamburov, Stoyan'
'Schmidt, Horst'
'Voigt, Wolfgang'
'Balarew, Christo'
_cell_length_a 25.082(7)
_cell_length_b 7.2222(13)
_cell_length_c 14.148(5)
_cell_angle_alpha 90.
_cell_angle_beta 106.08(3)
_cell_angle_gamma 90.
_cell_volume 2462.6
_cell_formula_units_Z 8
_symmetry_space_group_name_H-M 'C 1 2/c 1'
_symmetry_Int_Tables_number 15
_refine_ls_R_factor_all 0.0263
loop_
_symmetry_equiv_pos_site_id
_symmetry_equiv_pos_as_xyz
1 'x, -y, z+1/2'
2 '-x, -y, -z'
3 '-x, y, -z+1/2'
4 'x, y, z'
5 'x+1/2, -y+1/2, z+1/2'
6 '-x+1/2, -y+1/2, -z'
7 '-x+1/2, y+1/2, -z+1/2'
8 'x+1/2, y+1/2, z'
loop_
_atom_type_symbol
_atom_type_oxidation_number
Se6+ 6
Na1+ 1
O2- -2
H1+ 1
loop_
_atom_site_label
_atom_site_type_symbol
_atom_site_symmetry_multiplicity
_atom_site_Wyckoff_symbol
_atom_site_fract_x
_atom_site_fract_y
_atom_site_fract_z
_atom_site_B_iso_or_equiv
_atom_site_occupancy
_atom_site_attached_hydrogens
Se1 Se6+ 8 f 0.12538(2) 0.50581(2) 0.43856(2) 0.00804(6) 1 0
Na1 Na1+ 8 f 0.25402(3) 0.48478(8) 0.25255(5) 0.01318(13) 1 0
Na2 Na1+ 8 f 0.48802(3) 0.50577(8) 0.12460(5) 0.01393(13) 1 0
O1 O2- 4 e 0.5 0.7533(2) 0.25 0.0169(3) 1 0
O2 O2- 8 f 0.49834(5) 0.27554(19) 0.00232(9) 0.0163(2) 1 0
O3 O2- 8 f 0.39327(6) 0.51391(17) 0.01325(10) 0.0168(2) 1 0
O4 O2- 8 f 0.43838(5) 0.38294(17) 0.24329(9) 0.0168(2) 1 0
O5 O2- 8 f 0.35257(5) 0.54197(19) 0.30729(10) 0.0176(2) 1 0
O6 O2- 8 f 0.25084(6) 0.23441(17) 0.36455(9) 0.0152(2) 1 0
O7 O2- 8 f 0.15405(5) 0.43353(18) 0.20215(9) 0.0173(2) 1 0
O8 O2- 8 f 0.24653(5) 0.73830(17) 0.36305(9) 0.0148(2) 1 0
O9 O2- 8 f 0.16577(5) 0.32150(15) 0.45515(8) 0.0139(2) 1 0
O10 O2- 8 f 0.08697(5) 0.51212(14) 0.32289(8) 0.0135(2) 1 0
O11 O2- 8 f 0.08559(5) 0.49515(14) 0.51372(9) 0.0132(2) 1 0
O12 O2- 8 f 0.16395(5) 0.69410(15) 0.46262(8) 0.0131(2) 1 0
H1 H1+ 8 f 0.4729(11) 0.824(4) 0.230(2) 0.037(7) 1 0
H2 H1+ 8 f 0.5245(12) 0.214(4) 0.008(2) 0.027(7) 1 0
H3 H1+ 8 f 0.4728(13) 0.204(4) -0.007(2) 0.038(8) 1 0
H4 H1+ 8 f 0.3766(13) 0.430(4) 0.024(2) 0.041(8) 1 0
H5 H1+ 8 f 0.3744(12) 0.601(4) 0.023(2) 0.043(8) 1 0
H6 H1+ 8 f 0.4325(11) 0.269(4) 0.2288(19) 0.035(7) 1 0
H7 H1+ 8 f 0.4092(14) 0.428(5) 0.255(2) 0.048(8) 1 0
H8 H1+ 8 f 0.3694(13) 0.519(3) 0.368(2) 0.026(7) 1 0
H9 H1+ 8 f 0.3521(11) 0.652(4) 0.3055(18) 0.032(7) 1 0
H10 H1+ 8 f 0.2217(12) 0.262(4) 0.3815(18) 0.025(6) 1 0
H11 H1+ 8 f 0.2746(12) 0.220(4) 0.409(2) 0.029(7) 1 0
H12 H1+ 8 f 0.1346(15) 0.462(4) 0.150(3) 0.042(9) 1 0
H13 H1+ 8 f 0.1350(12) 0.464(4) 0.243(2) 0.032(7) 1 0
H14 H1+ 8 f 0.2181(12) 0.728(4) 0.385(2) 0.033(7) 1 0
H15 H1+ 8 f 0.2721(13) 0.756(4) 0.406(2) 0.031(7) 1 0
loop_
_atom_site_aniso_label
_atom_site_aniso_type_symbol
_atom_site_aniso_U_11
_atom_site_aniso_U_22
_atom_site_aniso_U_33
_atom_site_aniso_U_12
_atom_site_aniso_U_13
_atom_site_aniso_U_23
Se1 Se6+ 0.00788(8) 0.00783(8) 0.00858(8) -0.00008(5) 0.00258(5) -0.00012(4)
Na1 Na1+ 0.0141(3) 0.0126(3) 0.0134(3) -0.0001(2) 0.0047(2) 0.0001(2)
Na2 Na1+ 0.0144(3) 0.0133(3) 0.0134(3) 0.0006(2) 0.0028(2) 0.0001(2)
O1 O2- 0.0165(8) 0.0115(7) 0.0194(8) 0. -0.0004(7) 0.
O2 O2- 0.0147(6) 0.0127(5) 0.0225(6) 0.0006(4) 0.0067(5) 0.0001(4)
O3 O2- 0.0157(6) 0.0129(5) 0.0214(6) 0.0003(4) 0.0046(5) 0.0004(4)
O4 O2- 0.0149(6) 0.0163(5) 0.0195(6) -0.0034(4) 0.0053(4) -0.0040(4)
O5 O2- 0.0155(6) 0.0186(5) 0.0185(6) 0.0012(5) 0.0041(5) 0.0001(5)
O6 O2- 0.0145(6) 0.0182(5) 0.0126(5) 0.0037(4) 0.0032(4) 0.0009(4)
O7 O2- 0.0153(6) 0.0247(6) 0.0121(5) 0.0026(5) 0.0038(4) -0.0001(4)
O8 O2- 0.0129(6) 0.0182(5) 0.0139(5) -0.0030(4) 0.0044(4) -0.0012(4)
O9 O2- 0.0138(5) 0.0110(5) 0.0169(5) 0.0044(4) 0.0043(4) 0.0018(4)
O10 O2- 0.0134(5) 0.0155(5) 0.0096(5) -0.0001(4) 0.0000(4) 0.0004(3)
O11 O2- 0.0126(5) 0.0157(5) 0.0138(5) -0.0013(4) 0.0079(4) -0.0002(4)
O12 O2- 0.0128(5) 0.0108(4) 0.0160(5) -0.0040(4) 0.0047(4) -0.0018(4)
#End of TTdata_242240-ICSD