
#(C) 2019 by FIZ Karlsruhe - Leibniz Institute for Information Infrastructure.  All rights reserved.
data_243395-ICSD
_database_code_ICSD 243395
_audit_creation_date 2017-08-01
_chemical_name_systematic 'Sodium iron tris(orthophosphate)'
_chemical_formula_structural 'Na1.86 L0.14 Fe3 (P O4)3'
_chemical_formula_sum 'Fe3 L0.14 Na1.86 O12 P3'
_chemical_name_structure_type Alluaudite
_exptl_crystal_density_diffrn 3.97
_cell_measurement_temperature 293.
_publ_section_title
'Unveiling the sodium intercalation properties in Na1.86.box.0.14Fe3(PO4)3'
loop_
_citation_id
_citation_journal_full
_citation_year
_citation_journal_volume
_citation_page_first
_citation_page_last
_citation_journal_id_ASTM
primary 'Journal of Power Sources' 2016 324 657 664 JPSODZ
loop_
_publ_author_name
'Essehli, R.'
'Ben Yahia, H.'
'Maher, K.'
'Sougrati, M.T.'
'Abouimrane, A.'
'Park, J.B.'
'Sun, Y.K.'
'Al-Maadeed, M.A.'
'Belharouak, I.'
_cell_length_a 11.8656(6)
_cell_length_b 12.5335(8)
_cell_length_c 6.4703(3)
_cell_angle_alpha 90
_cell_angle_beta 114.530(4)
_cell_angle_gamma 90
_cell_volume 875.39
_cell_formula_units_Z 4
_symmetry_space_group_name_H-M 'C 1 2/c 1'
_symmetry_Int_Tables_number 15
_refine_ls_R_factor_all 0.0378
loop_
_symmetry_equiv_pos_site_id
_symmetry_equiv_pos_as_xyz
1 'x, -y, z+1/2'
2 '-x, -y, -z'
3 '-x, y, -z+1/2'
4 'x, y, z'
5 'x+1/2, -y+1/2, z+1/2'
6 '-x+1/2, -y+1/2, -z'
7 '-x+1/2, y+1/2, -z+1/2'
8 'x+1/2, y+1/2, z'
loop_
_atom_type_symbol
_atom_type_oxidation_number
Na1+ 1
L1+ 1
Fe2+ 2.3
P5+ 5
O2- -2
loop_
_atom_site_label
_atom_site_type_symbol
_atom_site_symmetry_multiplicity
_atom_site_Wyckoff_symbol
_atom_site_fract_x
_atom_site_fract_y
_atom_site_fract_z
_atom_site_B_iso_or_equiv
_atom_site_occupancy
_atom_site_attached_hydrogens
Na1 Na1+ 4 e 0 0.4900(10) 0.25 0.038(3) 0.856(11) 0
Na2 Na1+ 4 a 0 0 0 0.038(3) 1 0
L1 L1+ 4 e 0 0.4900(10) 0.25 . 0.14 0
Fe1 Fe2+ 8 f 0.2809(4) 0.1570(2) 0.3656(6) 0.0156(12) 1 0
Fe2 Fe2+ 4 e 0 0.7680(4) 0.25 0.0156(12) 1 0
P1 P5+ 4 e 0 0.2090(7) 0.25 0.016(2) 1 0
P2 P5+ 8 f 0.2410(6) 0.3938(4) 0.1264(12) 0.016(2) 1 0
O1 O2- 8 f 0.0445(9) 0.2869(8) 0.4669(19) 0.0130(17) 1 0
O2 O2- 8 f 0.1020(11) 0.1395(6) 0.2487(17) 0.0130(17) 1 0
O3 O2- 8 f 0.3355(9) 0.1618(8) 0.0831(19) 0.0130(17) 1 0
O4 O2- 8 f 0.3787(10) 0.4090(7) 0.1835(15) 0.0130(17) 1 0
O5 O2- 8 f 0.2196(9) 0.3160(7) 0.3054(17) 0.0130(17) 1 0
O6 O2- 8 f 0.3212(7) -0.0009(10) 0.3907(14) 0.0130(17) 1 0
#End of TTdata_243395-ICSD