
#(C) 2019 by FIZ Karlsruhe - Leibniz Institute for Information Infrastructure.  All rights reserved.
data_243397-ICSD
_database_code_ICSD 243397
_audit_creation_date 2017-08-01
_chemical_name_systematic 'Disodium trimanganese tetrakis(sulfate(VI))'
_chemical_formula_structural 'Na2 Mn3 (S O4)4'
_chemical_formula_sum 'Mn3 Na2 O16 S4'
_chemical_name_structure_type Ca5(Al3O7)2
_exptl_crystal_density_diffrn 3.1
_cell_measurement_temperature 296.
_publ_section_title

;
Preparation, structure and properties of Na2Mn3(SO4)4: a new potential
candidate with high voltage for Na-ion batteries
;
loop_
_citation_id
_citation_journal_full
_citation_year
_citation_journal_volume
_citation_page_first
_citation_page_last
_citation_journal_id_ASTM
primary
'Journal of Materials Chemistry A: Materials for Energy and Sustainability' 2016 4 11870 11877 JMCAET
loop_
_publ_author_name
'Gao, Jianhua'
'Sha, Xunshan'
'Liu, Xi'
'Song, Limei'
'Zhao, Pan'
_cell_length_a 14.8307(18)
_cell_length_b 9.9107(18)
_cell_length_c 8.6845(12)
_cell_angle_alpha 90.
_cell_angle_beta 90.
_cell_angle_gamma 90.
_cell_volume 1276.47
_cell_formula_units_Z 4
_symmetry_space_group_name_H-M 'C m c 21'
_symmetry_Int_Tables_number 36
_refine_ls_R_factor_all 0.0264
loop_
_symmetry_equiv_pos_site_id
_symmetry_equiv_pos_as_xyz
1 'x, -y, z+1/2'
2 '-x, -y, z+1/2'
3 '-x, y, z'
4 'x, y, z'
5 'x+1/2, -y+1/2, z+1/2'
6 '-x+1/2, -y+1/2, z+1/2'
7 '-x+1/2, y+1/2, z'
8 'x+1/2, y+1/2, z'
loop_
_atom_type_symbol
_atom_type_oxidation_number
Mn2+ 2
S6+ 6
Na1+ 1
O2- -2
loop_
_atom_site_label
_atom_site_type_symbol
_atom_site_symmetry_multiplicity
_atom_site_Wyckoff_symbol
_atom_site_fract_x
_atom_site_fract_y
_atom_site_fract_z
_atom_site_B_iso_or_equiv
_atom_site_occupancy
_atom_site_attached_hydrogens
Mn1 Mn2+ 8 b 1.14207(5) 1.08799(6) 0.75643(8) 0.01468(17) 1 0
Mn2 Mn2+ 4 a 1. 0.56345(9) 1.09755(12) 0.0169(2) 1 0
S1 S6+ 4 a 1. 0.86965(14) 0.95527(15) 0.0110(3) 1 0
S2 S6+ 8 b 0.78174(7) 0.62214(10) 1.06111(11) 0.0118(2) 1 0
S3 S6+ 4 a 1. 0.30290(14) 0.93631(16) 0.0126(3) 1 0
Na1 Na1+ 8 b 1.36469(14) 1.2115(2) 0.7225(3) 0.0313(5) 1 0
O1 O2- 8 b 1.0818(2) 0.9212(3) 0.8817(4) 0.0197(7) 1 0
O2 O2- 4 a 1. 0.7208(4) 0.9387(5) 0.0191(10) 1 0
O3 O2- 8 b 0.85818(19) 0.5348(3) 1.1043(5) 0.0214(7) 1 0
O4 O2- 8 b 1.0818(2) 1.2262(3) 0.9072(4) 0.0267(8) 1 0
O5 O2- 8 b 1.2014(2) 1.2373(3) 0.6060(4) 0.0227(7) 1 0
O6 O2- 4 a 1. 1.0968(4) 0.6225(5) 0.0193(10) 1 0
O7 O2- 4 a 1. 0.3441(4) 1.1018(5) 0.0160(9) 1 0
O8 O2- 4 a 1. 0.4290(4) 0.8462(6) 0.0218(11) 1 0
O9 O2- 8 b 0.6999(2) 0.5765(3) 1.1412(4) 0.0197(8) 1 0
O10 O2- 8 b 0.7668(2) 0.6156(3) 0.8934(4) 0.0202(7) 1 0
loop_
_atom_site_aniso_label
_atom_site_aniso_type_symbol
_atom_site_aniso_U_11
_atom_site_aniso_U_22
_atom_site_aniso_U_33
_atom_site_aniso_U_12
_atom_site_aniso_U_13
_atom_site_aniso_U_23
Mn1 Mn2+ 0.0159(3) 0.0120(3) 0.0161(3) -0.0001(3) 0.0034(3) -0.0004(3)
Mn2 Mn2+ 0.0164(5) 0.0152(4) 0.0191(5) 0. 0. 0.0009(4)
S1 S6+ 0.0129(7) 0.0107(6) 0.0093(7) 0. 0. 0.0012(6)
S2 S6+ 0.0108(5) 0.0134(4) 0.0111(5) -0.0013(4) 0.0003(4) -0.0001(4)
S3 S6+ 0.0136(7) 0.0118(6) 0.0125(8) 0. 0. -0.0032(5)
Na1 Na1+ 0.0243(11) 0.0332(10) 0.0363(14) 0.0013(9) 0.0049(9) 0.0053(9)
O1 O2- 0.0151(16) 0.0241(17) 0.0200(17) -0.0026(12) 0.0050(14) 0.0074(14)
O2 O2- 0.028(3) 0.010(2) 0.019(3) 0. 0. 0.0024(17)
O3 O2- 0.0125(14) 0.0240(15) 0.0275(17) 0.0025(12) -0.0009(15) 0.0053(14)
O4 O2- 0.0236(18) 0.0300(17) 0.0264(19) 0.0129(14) -0.0004(16) -0.0111(15)
O5 O2- 0.0266(17) 0.0178(14) 0.0236(17) -0.0047(13) 0.0010(16) 0.0045(14)
O6 O2- 0.021(2) 0.026(2) 0.010(2) 0. 0. 0.0041(17)
O7 O2- 0.019(2) 0.0177(19) 0.011(2) 0. 0. -0.0041(17)
O8 O2- 0.024(3) 0.023(2) 0.019(3) 0. 0. 0.0058(18)
O9 O2- 0.0157(17) 0.0207(16) 0.0226(19) -0.0011(13) 0.0032(14) 0.0070(12)
O10 O2- 0.0206(18) 0.0306(16) 0.0094(16) 0.0025(14) -0.0014(14) -0.0037(13)
#End of TTdata_243397-ICSD