
#(C) 2019 by FIZ Karlsruhe - Leibniz Institute for Information Infrastructure.  All rights reserved.
data_243572-ICSD
_database_code_ICSD 243572
_audit_creation_date 2017-08-01
_chemical_name_systematic 'Sodium manganese molybdate(VI)'
_chemical_formula_structural 'Na2.67 Mn1.67 (Mo O4)3'
_chemical_formula_sum 'Mn1.67 Mo3 Na2.67 O12'
_chemical_name_structure_type Alluaudite
_exptl_crystal_density_diffrn 3.63
_cell_measurement_temperature 296.
_publ_section_title

;
Na2.67Mn1.67(MoO4)3: a 3.45 V alluaudite-type cathode candidate for sodium-ion
batteries
;
loop_
_citation_id
_citation_journal_full
_citation_year
_citation_journal_volume
_citation_page_first
_citation_page_last
_citation_journal_id_ASTM
primary 'Chemistry of Materials' 2017 29 940 944 CMATEX
loop_
_publ_author_name
'Gao, Jianhua'
'Zhao, Pan'
'Feng, Kai'
_cell_length_a 12.7445(16)
_cell_length_b 13.6694(17)
_cell_length_c 7.1892(9)
_cell_angle_alpha 90.
_cell_angle_beta 112.459(2)
_cell_angle_gamma 90.
_cell_volume 1157.43
_cell_formula_units_Z 4
_symmetry_space_group_name_H-M 'C 1 2/c 1'
_symmetry_Int_Tables_number 15
_refine_ls_R_factor_all 0.0205
loop_
_symmetry_equiv_pos_site_id
_symmetry_equiv_pos_as_xyz
1 'x, -y, z+1/2'
2 '-x, -y, -z'
3 '-x, y, -z+1/2'
4 'x, y, z'
5 'x+1/2, -y+1/2, z+1/2'
6 '-x+1/2, -y+1/2, -z'
7 '-x+1/2, y+1/2, -z+1/2'
8 'x+1/2, y+1/2, z'
loop_
_atom_type_symbol
_atom_type_oxidation_number
Mo6+ 6
Mn2+ 2
O2- -2
Na1+ 1
loop_
_atom_site_label
_atom_site_type_symbol
_atom_site_symmetry_multiplicity
_atom_site_Wyckoff_symbol
_atom_site_fract_x
_atom_site_fract_y
_atom_site_fract_z
_atom_site_B_iso_or_equiv
_atom_site_occupancy
_atom_site_attached_hydrogens
Mo1 Mo6+ 4 e 0. 0.28927(3) -0.25 0.01625(13) 1 0
Mo2 Mo6+ 8 f 0.26935(2) 0.38976(2) 0.37580(4) 0.01683(12) 1 0
Mn1 Mn2+ 8 f 0.28956(5) 0.34287(4) -0.12192(9) 0.01768(15) 0.83 0
O1 O2- 8 f 0.3300(2) 0.32976(19) 0.6100(4) 0.0262(5) 1 0
O2 O2- 8 f 0.1247(2) 0.4107(2) 0.3141(4) 0.0315(6) 1 0
O3 O2- 8 f 0.2831(2) 0.3184(2) 0.1793(4) 0.0281(6) 1 0
O4 O2- 8 f 0.3389(3) 0.5028(2) 0.3945(5) 0.0375(7) 1 0
O5 O2- 8 f 0.1083(2) 0.3704(2) -0.2469(4) 0.0331(6) 1 0
O6 O2- 8 f 0.0413(2) 0.21763(19) -0.0289(3) 0.0235(5) 1 0
Na1 Na1+ 4 e 0.5 0.23320(15) 0.75 0.0226(4) 1 0
Na2 Na1+ 4 b 0. 0.5 0. 0.0525(8) 1 0
Na3 Na1+ 4 e 0.5 0.5026(5) 0.75 0.0762(17) 0.67 0
loop_
_atom_site_aniso_label
_atom_site_aniso_type_symbol
_atom_site_aniso_U_11
_atom_site_aniso_U_22
_atom_site_aniso_U_33
_atom_site_aniso_U_12
_atom_site_aniso_U_13
_atom_site_aniso_U_23
Mo1 Mo6+ 0.0181(2) 0.0149(2) 0.01268(19) 0. 0.00252(15) 0.
Mo2 Mo6+ 0.01806(17) 0.01813(18) 0.01310(16) -0.00135(10) 0.00460(11)
0.00122(10)
Mn1 Mn2+ 0.0177(3) 0.0203(3) 0.0150(3) 0.0002(2) 0.0062(2) 0.0016(2)
O1 O2- 0.0327(14) 0.0269(13) 0.0179(12) 0.0044(11) 0.0084(10) 0.0012(10)
O2 O2- 0.0216(13) 0.0297(14) 0.0403(16) 0.0023(10) 0.0084(12) 0.0054(12)
O3 O2- 0.0304(14) 0.0367(14) 0.0167(12) -0.0028(11) 0.0085(10) -0.0024(11)
O4 O2- 0.0364(16) 0.0285(14) 0.0420(17) -0.0111(12) 0.0088(13) 0.0045(13)
O5 O2- 0.0258(13) 0.0253(13) 0.0386(16) -0.0049(11) 0.0015(12) 0.0074(12)
O6 O2- 0.0192(12) 0.0348(14) 0.0160(11) 0.0047(10) 0.0061(9) 0.0054(10)
Na1 Na1+ 0.0191(9) 0.0300(11) 0.0202(9) 0. 0.0092(8) 0.
Na2 Na1+ 0.0685(19) 0.0275(12) 0.0370(14) 0.0041(12) -0.0073(13) -0.0034(11)
Na3 Na1+ 0.022(2) 0.148(5) 0.049(3) 0. 0.0032(19) 0.
#End of TTdata_243572-ICSD