
#(C) 2019 by FIZ Karlsruhe - Leibniz Institute for Information Infrastructure.  All rights reserved.
data_243561-ICSD
_database_code_ICSD 243561
_audit_creation_date 2017-08-01
_chemical_name_systematic 'Tetrasodium octaindium disulfide dodecaselenide'
_chemical_formula_structural 'Na4 In8 S2 Se12'
_chemical_formula_sum 'In8 Na4 S2 Se12'
_chemical_name_structure_type (VO)2P2O7
_exptl_crystal_density_diffrn 4.57
_cell_measurement_temperature 293.
_publ_section_title

;
Superpolyhedron-built second harmonic generation materials exhibit large
mid-infrared conversion efficiencies and high laser-induced damage thresholds
;
loop_
_citation_id
_citation_journal_full
_citation_year
_citation_journal_volume
_citation_page_first
_citation_page_last
_citation_journal_id_ASTM
primary 'Chemistry of Materials' 2017 29 1796 1804 CMATEX
loop_
_publ_author_name
'Li, Shu-Fang'
'Jiang, Xiao-Ming'
'Liu, Bin-Wen'
'Yan, Dong'
'Lin, Chen-Sheng'
'Zeng, Hui-Yi'
'Guo, Guo-Cong'
_cell_length_a 14.8082(5)
_cell_length_b 15.8608(5)
_cell_length_c 12.5156(4)
_cell_angle_alpha 90.
_cell_angle_beta 90.
_cell_angle_gamma 90.
_cell_volume 2939.53
_cell_formula_units_Z 4
_symmetry_space_group_name_H-M 'P c a 21'
_symmetry_Int_Tables_number 29
_refine_ls_R_factor_all 0.0316
loop_
_symmetry_equiv_pos_site_id
_symmetry_equiv_pos_as_xyz
1 'x+1/2, -y, z'
2 '-x+1/2, y, z+1/2'
3 '-x, -y, z+1/2'
4 'x, y, z'
loop_
_atom_type_symbol
_atom_type_oxidation_number
In3+ 3
Se2- -2
S2- -2
Se2- -2
S2- -2
Se2- -2
S2- -2
Se2- -2
S2- -2
Se2- -2
S2- -2
Se2- -2
S2- -2
Se2- -2
S2- -2
Se2- -2
S2- -2
Se2- -2
S2- -2
Se2- -2
S2- -2
Se2- -2
S2- -2
Se2- -2
Na1+ 1
loop_
_atom_site_label
_atom_site_type_symbol
_atom_site_symmetry_multiplicity
_atom_site_Wyckoff_symbol
_atom_site_fract_x
_atom_site_fract_y
_atom_site_fract_z
_atom_site_B_iso_or_equiv
_atom_site_occupancy
_atom_site_attached_hydrogens
In1 In3+ 4 a 0.25590(6) 0.10007(5) 0.04026(6) 0.01287(18) 1 0
In2 In3+ 4 a 0.35184(5) 0.24382(5) 0.29152(7) 0.01232(17) 1 0
In3 In3+ 4 a 0.09942(5) 0.66152(5) 0.30669(6) 0.01248(17) 1 0
In4 In3+ 4 a 0.35111(5) -0.02857(5) 0.28928(6) 0.01253(17) 1 0
In5 In3+ 4 a 0.35877(5) 0.73414(5) 0.23694(6) 0.01234(18) 1 0
In6 In3+ 4 a 0.28638(5) 0.48850(5) 0.27327(6) 0.01211(18) 1 0
In7 In3+ 4 a 0.40903(5) 0.14612(5) -0.19184(6) 0.01424(18) 1 0
In8 In3+ 4 a 0.19386(5) 0.63001(5) 0.02192(6) 0.01272(17) 1 0
Se1 Se2- 4 a 0.51769(10) 0.70851(9) 0.28893(13) 0.0134(3) 0.55 0
S1 S2- 4 a 0.51769(10) 0.70851(9) 0.28893(13) 0.0134(3) 0.45 0
Se2 Se2- 4 a 0.29290(9) -0.00793(8) -0.10455(10) 0.0126(3) 0.7 0
S2 S2- 4 a 0.29290(9) -0.00793(8) -0.10455(10) 0.0126(3) 0.3 0
Se3 Se2- 4 a 0.31852(9) -0.13174(8) 0.13759(10) 0.0127(3) 0.75 0
S3 S2- 4 a 0.31852(9) -0.13174(8) 0.13759(10) 0.0127(3) 0.25 0
Se4 Se2- 4 a 0.47766(9) -0.06061(8) 0.41789(10) 0.0130(3) 0.75 0
S4 S2- 4 a 0.47766(9) -0.06061(8) 0.41789(10) 0.0130(3) 0.25 0
Se5 Se2- 4 a 0.10360(8) 0.07679(8) 0.12445(10) 0.0129(3) 0.85 0
S5 S2- 4 a 0.10360(8) 0.07679(8) 0.12445(10) 0.0129(3) 0.15 0
Se6 Se2- 4 a 0.07258(8) 0.71588(8) 0.11745(10) 0.0149(3) 0.9 0
S6 S2- 4 a 0.07258(8) 0.71588(8) 0.11745(10) 0.0149(3) 0.1 0
Se7 Se2- 4 a 0.47809(8) 0.27137(7) 0.42552(9) 0.0124(3) 0.9 0
S7 S2- 4 a 0.47809(8) 0.27137(7) 0.42552(9) 0.0124(3) 0.1 0
Se8 Se2- 4 a 0.38383(8) 0.50287(7) 0.44019(9) 0.0121(3) 0.9 0
S8 S2- 4 a 0.38383(8) 0.50287(7) 0.44019(9) 0.0121(3) 0.1 0
Se9 Se2- 4 a 0.24002(9) 0.73955(7) 0.38913(10) 0.0146(3) 0.9 0
S9 S2- 4 a 0.24002(9) 0.73955(7) 0.38913(10) 0.0146(3) 0.1 0
Se10 Se2- 4 a 0.11661(8) 0.50239(7) 0.30454(10) 0.0133(3) 0.9 0
S10 S2- 4 a 0.11661(8) 0.50239(7) 0.30454(10) 0.0133(3) 0.1 0
Se11 Se2- 4 a 0.28598(8) 0.23035(7) -0.08014(10) 0.0136(3) 0.9 0
S11 S2- 4 a 0.28598(8) 0.23035(7) -0.08014(10) 0.0136(3) 0.1 0
Se12 Se2- 4 a 0.30347(8) 0.35568(7) 0.15816(9) 0.0162(3) 1 0
Se13 Se2- 4 a 0.34104(8) 0.59600(7) 0.12504(9) 0.0159(3) 1 0
Se14 Se2- 4 a 0.39052(8) 0.10901(7) 0.17729(8) 0.0128(2) 1 0
Na1 Na1+ 4 a -0.0504(4) 0.1051(3) -0.0273(4) 0.0252(12) 1 0
Na2 Na1+ 4 a 0.5606(3) 0.6138(3) 0.4819(4) 0.0266(12) 1 0
Na3 Na1+ 4 a 0.6013(3) 0.6277(3) 0.1085(4) 0.0280(12) 1 0
Na4 Na1+ 4 a 0.3755(4) -0.1105(4) 0.6033(5) 0.0429(15) 1 0
loop_
_atom_site_aniso_label
_atom_site_aniso_type_symbol
_atom_site_aniso_U_11
_atom_site_aniso_U_22
_atom_site_aniso_U_33
_atom_site_aniso_U_12
_atom_site_aniso_U_13
_atom_site_aniso_U_23
In1 In3+ 0.0139(5) 0.0138(4) 0.0109(4) -0.0009(3) -0.0001(3) 0.0004(3)
In2 In3+ 0.0131(4) 0.0104(4) 0.0135(4) -0.0004(3) -0.0009(3) 0.0001(3)
In3 In3+ 0.0132(4) 0.0116(4) 0.0126(4) 0.0014(3) 0.0013(3) 0.0001(3)
In4 In3+ 0.0143(4) 0.0104(4) 0.0130(4) 0.0003(3) -0.0007(3) -0.0006(3)
In5 In3+ 0.0139(5) 0.0105(4) 0.0126(4) 0.0000(3) 0.0000(3) 0.0002(3)
In6 In3+ 0.0148(5) 0.0103(4) 0.0112(4) 0.0003(3) -0.0001(3) -0.0001(3)
In7 In3+ 0.0135(5) 0.0170(4) 0.0121(4) 0.0032(3) -0.0013(3) -0.0017(3)
In8 In3+ 0.0136(4) 0.0128(4) 0.0117(4) -0.0005(3) 0.0002(3) -0.0008(3)
Se1 Se2- 0.0111(8) 0.0126(7) 0.0165(8) 0.0010(6) -0.0022(6) -0.0005(6)
S1 S2- 0.0111(8) 0.0126(7) 0.0165(8) 0.0010(6) -0.0022(6) -0.0005(6)
Se2 Se2- 0.0129(8) 0.0128(7) 0.0121(7) 0.0037(6) -0.0032(5) -0.0033(5)
S2 S2- 0.0129(8) 0.0128(7) 0.0121(7) 0.0037(6) -0.0032(5) -0.0033(5)
Se3 Se2- 0.0186(8) 0.0085(6) 0.0111(7) 0.0008(6) 0.0003(5) 0.0010(5)
S3 S2- 0.0186(8) 0.0085(6) 0.0111(7) 0.0008(6) 0.0003(5) 0.0010(5)
Se4 Se2- 0.0132(7) 0.0144(7) 0.0115(7) 0.0020(6) 0.0000(5) -0.0019(5)
S4 S2- 0.0132(7) 0.0144(7) 0.0115(7) 0.0020(6) 0.0000(5) -0.0019(5)
Se5 Se2- 0.0124(7) 0.0154(6) 0.0109(6) -0.0016(5) 0.0016(5) -0.0027(5)
S5 S2- 0.0124(7) 0.0154(6) 0.0109(6) -0.0016(5) 0.0016(5) -0.0027(5)
Se6 Se2- 0.0153(7) 0.0156(6) 0.0139(6) 0.0026(5) -0.0002(5) -0.0005(5)
S6 S2- 0.0153(7) 0.0156(6) 0.0139(6) 0.0026(5) -0.0002(5) -0.0005(5)
Se7 Se2- 0.0119(7) 0.0128(6) 0.0126(6) -0.0016(5) 0.0007(5) 0.0006(5)
S7 S2- 0.0119(7) 0.0128(6) 0.0126(6) -0.0016(5) 0.0007(5) 0.0006(5)
Se8 Se2- 0.0142(7) 0.0110(6) 0.0110(6) 0.0033(5) -0.0014(5) -0.0008(4)
S8 S2- 0.0142(7) 0.0110(6) 0.0110(6) 0.0033(5) -0.0014(5) -0.0008(4)
Se9 Se2- 0.0151(7) 0.0148(6) 0.0139(6) 0.0001(5) -0.0003(5) 0.0011(5)
S9 S2- 0.0151(7) 0.0148(6) 0.0139(6) 0.0001(5) -0.0003(5) 0.0011(5)
Se10 Se2- 0.0133(7) 0.0102(6) 0.0164(6) -0.0001(5) 0.0025(5) -0.0004(5)
S10 S2- 0.0133(7) 0.0102(6) 0.0164(6) -0.0001(5) 0.0025(5) -0.0004(5)
Se11 Se2- 0.0141(7) 0.0130(6) 0.0138(6) -0.0003(5) -0.0006(5) -0.0002(5)
S11 S2- 0.0141(7) 0.0130(6) 0.0138(6) -0.0003(5) -0.0006(5) -0.0002(5)
Se12 Se2- 0.0206(7) 0.0134(6) 0.0147(6) 0.0023(5) 0.0003(5) 0.0003(5)
Se13 Se2- 0.0187(7) 0.0140(6) 0.0150(6) -0.0005(5) -0.0009(5) 0.0001(5)
Se14 Se2- 0.0138(6) 0.0118(6) 0.0129(6) 0.0006(5) -0.0001(5) 0.0000(4)
Na1 Na1+ 0.033(3) 0.020(3) 0.023(3) 0.001(2) 0.004(2) -0.001(2)
Na2 Na1+ 0.024(3) 0.035(3) 0.022(3) -0.001(2) -0.001(2) -0.005(2)
#End of TTdata_243561-ICSD