
#(C) 2019 by FIZ Karlsruhe - Leibniz Institute for Information Infrastructure.  All rights reserved.
data_243629-ICSD
_database_code_ICSD 243629
_audit_creation_date 2017-08-01
_chemical_name_systematic 'Tetrasodium tetracadmium hexaselenide hydrazine'
_chemical_formula_structural 'Na4 Cd4 Se6 (N2 H4)9.5'
_chemical_formula_sum 'H38 Cd4 N19 Na4 Se6'
_exptl_crystal_density_diffrn 2.79
_cell_measurement_temperature 100.
_publ_section_title
'New forms of CdSe: molecular wires, gels, and ordered mesoporous assemblies'
loop_
_citation_id
_citation_journal_full
_citation_year
_citation_journal_volume
_citation_page_first
_citation_page_last
_citation_journal_id_ASTM
primary 'Journal of the American Chemical Society' 2017 139 3368 3377 JACSAT
loop_
_publ_author_name
'Hudson, Margaret H.'
'Dolzhnikov, Dmitriy S.'
'Filatov, Alexander S.'
'Janke, Eric M.'
'Jang, Jaeyoung'
'Lee, Byeongdu'
'Sun, Chengjun'
'Talapin, Dmitri V.'
_cell_length_a 10.5623(10)
_cell_length_b 13.5662(12)
_cell_length_c 13.6038(11)
_cell_angle_alpha 104.728(3)
_cell_angle_beta 108.183(3)
_cell_angle_gamma 111.179(3)
_cell_volume 1571.73
_cell_formula_units_Z 2
_symmetry_space_group_name_H-M 'P -1'
_symmetry_Int_Tables_number 2
_refine_ls_R_factor_all 0.0368
loop_
_symmetry_equiv_pos_site_id
_symmetry_equiv_pos_as_xyz
1 '-x, -y, -z'
2 'x, y, z'
loop_
_atom_type_symbol
_atom_type_oxidation_number
Cd2+ 2
Se2- -2
Na1+ 1
N2- -2
H1+ 1
N2- -2
H1+ 1
N2- -2
H1+ 1
N2- -2
H1+ 1
N2- -2
H1+ 1
N2- -2
H1+ 1
N2- -2
H1+ 1
N2- -2
H1+ 1
N2- -2
H1+ 1
N2- -2
H1+ 1
N2- -2
H1+ 1
N2- -2
H1+ 1
N2- -2
H1+ 1
N2- -2
H1+ 1
N2- -2
H1+ 1
N2- -2
H1+ 1
N2- -2
H1+ 1
N2- -2
H1+ 1
loop_
_atom_site_label
_atom_site_type_symbol
_atom_site_symmetry_multiplicity
_atom_site_Wyckoff_symbol
_atom_site_fract_x
_atom_site_fract_y
_atom_site_fract_z
_atom_site_B_iso_or_equiv
_atom_site_occupancy
_atom_site_attached_hydrogens
Cd1 Cd2+ 2 i 0.13613(4) 0.64176(3) 0.81611(3) 0.00960(10) 1 0
Cd2 Cd2+ 2 i 0.12974(4) 0.63756(3) 0.56943(3) 0.00924(10) 1 0
Cd3 Cd2+ 2 i 0.14742(4) 0.63076(3) 0.32224(3) 0.00989(10) 1 0
Cd4 Cd2+ 2 i 0.14410(4) 0.62745(3) 0.06376(3) 0.00953(10) 1 0
Se1 Se2- 2 i 0.36479(6) 0.69779(5) 1.00542(5) 0.00984(12) 1 0
Se2 Se2- 2 i 0.10597(6) 0.46269(5) 0.64518(5) 0.00850(12) 1 0
Se3 Se2- 2 i 0.10628(6) 0.78259(5) 0.72236(5) 0.00961(12) 1 0
Se4 Se2- 2 i 0.35979(6) 0.68905(5) 0.52122(5) 0.00992(12) 1 0
Se5 Se2- 2 i 0.10865(6) 0.45461(5) 0.13671(5) 0.00849(12) 1 0
Se6 Se2- 2 i 0.17058(6) 0.78594(5) 0.23755(5) 0.01033(13) 1 0
Na1 Na1+ 2 i -0.0490(2) 0.85951(19) 0.13830(19) 0.0148(5) 1 0
Na2 Na1+ 2 i 0.3529(2) 0.91123(19) 0.12762(19) 0.0152(5) 1 0
Na3 Na1+ 2 i 0.7492(2) 0.90069(19) 0.44488(19) 0.0141(5) 1 0
Na4 Na1+ 2 i 0.5631(3) 0.4693(2) 0.35974(19) 0.0172(5) 1 0
N1 N2- 2 i -0.2694(6) 0.6504(4) 0.0511(4) 0.0172(11) 1 0
H1 H1+ 2 i -0.3612 0.6475 0.0206 0.021 1 0
H2 H1+ 2 i -0.2613 0.601 -0.003 0.021 1 0
N2 N2- 2 i -0.2472(6) 0.6240(5) 0.1497(4) 0.0202(12) 1 0
H3 H1+ 2 i -0.298(7) 0.5462(12) 0.129(5) 0.024 1 0
H4 H1+ 2 i -0.1449(13) 0.657(5) 0.191(5) 0.024 1 0
N3 N2- 2 i -0.2402(5) 0.9064(4) 0.1648(4) 0.0124(10) 1 0
H5 H1+ 2 i -0.2035 0.9847 0.1941 0.015 1 0
H6 H1+ 2 i -0.3241 0.8737 0.0972 0.015 1 0
N4 N2- 2 i -0.2780(5) 0.8598(4) 0.2434(4) 0.0149(11) 1 0
H7 H1+ 2 i -0.2483 0.8044 0.2334 0.018 1 0
H8 H1+ 2 i -0.381 0.8192 0.2033 0.018 1 0
N5 N2- 2 i -0.0228(5) 0.8440(4) -0.0365(4) 0.0134(10) 1 0
H9 H1+ 2 i -0.0517 0.7691 -0.0791 0.016 1 0
H10 H1+ 2 i -0.0829 0.867 -0.0782 0.016 1 0
N6 N2- 2 i 0.1346(5) 0.9179(4) -0.0053(4) 0.0163(11) 1 0
H11 H1+ 2 i 0.1516 0.9923 0.024 0.02 1 0
H12 H1+ 2 i 0.1426 0.9065 -0.0714 0.02 1 0
N7 N2- 2 i 0.5751(5) 1.0318(4) 0.3153(4) 0.0145(10) 1 0
H13 H1+ 2 i 0.6599 1.0423 0.3058 0.017 1 0
H14 H1+ 2 i 0.5811 1.1029 0.3416 0.017 1 0
N8 N2- 2 i 0.5776(6) 0.9872(4) 0.4028(4) 0.0173(11) 1 0
H15 H1+ 2 i 0.4815 0.9323 0.381 0.021 1 0
H16 H1+ 2 i 0.6054 1.0464 0.4683 0.021 1 0
N9 N2- 2 i 0.9317(6) 0.8257(4) 0.4675(4) 0.0182(11) 1 0
H17 H1+ 2 i 0.9775 0.8347 0.5404 0.022 1 0
H18 H1+ 2 i 0.8858 0.7494 0.4198 0.022 1 0
N10 N2- 2 i 1.0389(6) 0.8977(4) 0.4377(4) 0.0188(11) 1 0
H19 H1+ 2 i 0.9809 0.9001 0.3738 0.023 1 0
H20 H1+ 2 i 1.0827 0.8554 0.4152 0.023 1 0
N11 N2- 2 i 0.7356(5) 0.9216(4) 0.6288(4) 0.0137(10) 1 0
H21 H1+ 2 i 0.7241 0.9857 0.6514 0.016 1 0
H22 H1+ 2 i 0.647 0.8598 0.6113 0.016 1 0
N12 N2- 2 i 0.8498(6) 0.9311(4) 0.7294(4) 0.0183(11) 1 0
H23 H1+ 2 i 0.8962 0.8908 0.7077 0.022 1 0
H24 H1+ 2 i 0.8034 0.8982 0.7676 0.022 1 0
N13 N2- 2 i 0.5196(5) 0.7011(4) 0.3225(4) 0.0158(11) 1 0
H25 H1+ 2 i 0.4744 0.6849 0.3676 0.019 1 0
H26 H1+ 2 i 0.4548 0.7106 0.268 0.019 1 0
N14 N2- 2 i 0.5178(6) 0.5946(4) 0.2632(4) 0.0176(11) 1 0
H27 H1+ 2 i 0.5884 0.6144 0.2368 0.021 1 0
H28 H1+ 2 i 0.4257 0.5494 0.2012 0.021 1 0
N15 N2- 2 i 0.6979(5) 0.6316(4) 0.5439(4) 0.0154(11) 1 0
H29 H1+ 2 i 0.7976 0.6703 0.5605 0.018 1 0
H30 H1+ 2 i 0.6594 0.6816 0.5417 0.018 1 0
N16 N2- 2 i 0.6849(5) 0.5930(4) 0.6327(4) 0.0160(11) 1 0
H31 H1+ 2 i 0.7581 0.6519 0.701 0.019 1 0
H32 H1+ 2 i 0.7054 0.5326 0.6243 0.019 1 0
N17 N2- 2 i 0.4320(6) 0.3005(4) 0.1698(4) 0.0167(11) 1 0
H33 H1+ 2 i 0.3479 0.2998 0.1234 0.02 1 0
H34 H1+ 2 i 0.4954 0.3069 0.1365 0.02 1 0
N18 N2- 2 i 0.3891(6) 0.1939(4) 0.1865(4) 0.0176(11) 1 0
N19 N2- 2 i 0.5074(6) 1.0427(4) 0.0517(4) 0.0162(11) 1 0
H35 H1+ 2 i 0.399(7) 0.145(5) 0.134(4) 0.03(2) 1 0
H36 H1+ 2 i 0.456(6) 0.224(6) 0.2611(18) 0.04(2) 1 0
H37 H1+ 2 i 0.600(3) 1.069(5) 0.109(4) 0.021(18) 1 0
H38 H1+ 2 i 0.553(7) 1.106(3) 0.039(5) 0.024(18) 1 0
loop_
_atom_site_aniso_label
_atom_site_aniso_type_symbol
_atom_site_aniso_U_11
_atom_site_aniso_U_22
_atom_site_aniso_U_33
_atom_site_aniso_U_12
_atom_site_aniso_U_13
_atom_site_aniso_U_23
Cd1 Cd2+ 0.0099(2) 0.0094(2) 0.0090(2) 0.00383(16) 0.00443(17) 0.00407(16)
Cd2 Cd2+ 0.0097(2) 0.0094(2) 0.0088(2) 0.00390(16) 0.00498(17) 0.00393(16)
Cd3 Cd2+ 0.0097(2) 0.0106(2) 0.0095(2) 0.00425(16) 0.00484(17) 0.00462(17)
Cd4 Cd2+ 0.0097(2) 0.0091(2) 0.0092(2) 0.00316(16) 0.00489(17) 0.00411(17)
Se1 Se2- 0.0080(3) 0.0120(3) 0.0097(3) 0.0041(2) 0.0047(2) 0.0050(2)
Se2 Se2- 0.0084(3) 0.0089(3) 0.0088(3) 0.0042(2) 0.0043(2) 0.0039(2)
Se3 Se2- 0.0109(3) 0.0083(3) 0.0097(3) 0.0042(2) 0.0051(2) 0.0040(2)
Se4 Se2- 0.0078(3) 0.0118(3) 0.0089(3) 0.0041(2) 0.0036(2) 0.0035(2)
Se5 Se2- 0.0081(3) 0.0087(3) 0.0089(3) 0.0038(2) 0.0042(2) 0.0040(2)
Se6 Se2- 0.0124(3) 0.0087(3) 0.0104(3) 0.0046(2) 0.0059(2) 0.0043(2)
Na1 Na1+ 0.0151(12) 0.0156(12) 0.0135(12) 0.0079(10) 0.0063(10) 0.0050(10)
Na2 Na1+ 0.0147(11) 0.0137(11) 0.0166(12) 0.0053(10) 0.0072(10) 0.0073(10)
Na3 Na1+ 0.0134(11) 0.0143(11) 0.0136(12) 0.0069(9) 0.0054(10) 0.0048(10)
Na4 Na1+ 0.0183(12) 0.0163(12) 0.0155(12) 0.0084(10) 0.0068(10) 0.0053(10)
N1 N2- 0.020(3) 0.016(3) 0.015(3) 0.007(2) 0.009(2) 0.006(2)
N2 N2- 0.028(3) 0.020(3) 0.016(3) 0.013(3) 0.011(2) 0.010(2)
N3 N2- 0.013(2) 0.013(2) 0.016(3) 0.008(2) 0.008(2) 0.009(2)
N4 N2- 0.015(3) 0.015(3) 0.014(3) 0.007(2) 0.007(2) 0.006(2)
N5 N2- 0.014(2) 0.011(2) 0.017(3) 0.008(2) 0.008(2) 0.005(2)
N6 N2- 0.019(3) 0.010(2) 0.016(3) 0.006(2) 0.008(2) 0.002(2)
N7 N2- 0.018(3) 0.012(2) 0.013(3) 0.006(2) 0.007(2) 0.005(2)
N8 N2- 0.025(3) 0.013(3) 0.010(3) 0.002(2) 0.009(2) 0.007(2)
N9 N2- 0.019(3) 0.015(3) 0.019(3) 0.007(2) 0.009(2) 0.007(2)
N10 N2- 0.016(3) 0.017(3) 0.024(3) 0.007(2) 0.011(2) 0.006(2)
N11 N2- 0.012(2) 0.013(2) 0.012(2) 0.002(2) 0.004(2) 0.005(2)
N12 N2- 0.018(3) 0.018(3) 0.017(3) 0.010(2) 0.006(2) 0.005(2)
N13 N2- 0.014(3) 0.016(3) 0.019(3) 0.007(2) 0.010(2) 0.007(2)
N14 N2- 0.015(3) 0.017(3) 0.020(3) 0.006(2) 0.009(2) 0.008(2)
N15 N2- 0.014(2) 0.012(2) 0.020(3) 0.004(2) 0.008(2) 0.008(2)
N16 N2- 0.019(3) 0.015(3) 0.014(3) 0.009(2) 0.006(2) 0.006(2)
N17 N2- 0.017(3) 0.022(3) 0.016(3) 0.011(2) 0.008(2) 0.012(2)
N18 N2- 0.019(3) 0.012(3) 0.013(3) 0.003(2) 0.005(2) 0.001(2)
N19 N2- 0.013(3) 0.017(3) 0.015(3) 0.004(2) 0.006(2) 0.008(2)
#End of TTdata_243629-ICSD