
#(C) 2019 by FIZ Karlsruhe - Leibniz Institute for Information Infrastructure.  All rights reserved.
data_243600-ICSD
_database_code_ICSD 243600
_audit_creation_date 2017-08-01
_chemical_name_systematic 'Disodium iron(II) oxalate difluoride'
_chemical_formula_structural 'Na2 Fe (C2 O4) F2'
_chemical_formula_sum 'C2 F2 Fe1 Na2 O4'
_exptl_crystal_density_diffrn 2.82
_cell_measurement_temperature 173.
_publ_section_title
'Na2Fe(C2O4)F2: a new iron-based polyoxyanion cathode for Li/Na ion batteries'
loop_
_citation_id
_citation_journal_full
_citation_year
_citation_journal_volume
_citation_page_first
_citation_page_last
_citation_journal_id_ASTM
primary 'Chemistry of Materials' 2017 29 2167 2172 CMATEX
loop_
_publ_author_name
'Yao, Wenjiao'
'Sougrati, Moulay-Tahar'
'Hoang, Khang'
'Hui, Jianing'
'Lightfoot, Philip'
'Armstrong, A. Robert'
_cell_length_a 15.8349(11)
_cell_length_b 5.9620(4)
_cell_length_c 12.2784(8)
_cell_angle_alpha 90
_cell_angle_beta 111.968(7)
_cell_angle_gamma 90
_cell_volume 1075.01
_cell_formula_units_Z 8
_symmetry_space_group_name_H-M 'C 1 2/c 1'
_symmetry_Int_Tables_number 15
_refine_ls_R_factor_all 0.0217
loop_
_symmetry_equiv_pos_site_id
_symmetry_equiv_pos_as_xyz
1 'x, -y, z+1/2'
2 '-x, -y, -z'
3 '-x, y, -z+1/2'
4 'x, y, z'
5 'x+1/2, -y+1/2, z+1/2'
6 '-x+1/2, -y+1/2, -z'
7 '-x+1/2, y+1/2, -z+1/2'
8 'x+1/2, y+1/2, z'
loop_
_atom_type_symbol
_atom_type_oxidation_number
Fe2+ 2
Na1+ 1
F1- -1
O2- -2
C3+ 3
loop_
_atom_site_label
_atom_site_type_symbol
_atom_site_symmetry_multiplicity
_atom_site_Wyckoff_symbol
_atom_site_fract_x
_atom_site_fract_y
_atom_site_fract_z
_atom_site_B_iso_or_equiv
_atom_site_occupancy
_atom_site_attached_hydrogens
Fe1 Fe2+ 8 f 0.17403(2) 0.16083(5) 0.21291(2) 0.00759(14) 1 0
Na1 Na1+ 8 f 0.29790(6) 0.00423(16) 0.51447(8) 0.0121(2) 1 0
Na2 Na1+ 8 f 0.06659(6) -0.03217(16) 0.40099(9) 0.0166(2) 1 0
F1 F1- 8 f 0.18763(9) 0.1500(2) 0.06049(11) 0.0123(3) 1 0
F2 F1- 8 f 0.17823(9) 0.1726(2) 0.37587(11) 0.0122(3) 1 0
O1 O2- 8 f -0.05003(10) 0.5774(3) 0.10778(14) 0.0143(3) 1 0
O2 O2- 8 f 0.31304(10) 0.0289(3) 0.28934(13) 0.0116(3) 1 0
O3 O2- 8 f 0.39911(12) 0.3347(3) 0.31129(17) 0.0189(4) 1 0
O4 O2- 8 f 0.03640(10) 0.2707(3) 0.13864(14) 0.0114(3) 1 0
C1 C3+ 8 f 0.38838(15) 0.1302(4) 0.31611(19) 0.0098(4) 1 0
C2 C3+ 8 f 0.02406(15) 0.4791(4) 0.13964(18) 0.0093(4) 1 0
loop_
_atom_site_aniso_label
_atom_site_aniso_type_symbol
_atom_site_aniso_U_11
_atom_site_aniso_U_22
_atom_site_aniso_U_33
_atom_site_aniso_U_12
_atom_site_aniso_U_13
_atom_site_aniso_U_23
Fe1 Fe2+ 0.0072(2) 0.0074(2) 0.0080(2) 0.00054(10) 0.00269(14) 0.00008(10)
Na1 Na1+ 0.0088(4) 0.0098(4) 0.0165(5) 0.0003(3) 0.0033(4) 0.0004(3)
Na2 Na1+ 0.0102(4) 0.0105(5) 0.0259(5) -0.0002(3) 0.0032(4) 0.0018(4)
F1 F1- 0.0125(6) 0.0151(7) 0.0101(6) 0.0020(5) 0.0051(5) 0.0000(5)
F2 F1- 0.0117(6) 0.0151(7) 0.0097(6) 0.0011(5) 0.0039(5) 0.0010(5)
O1 O2- 0.0086(8) 0.0108(8) 0.0215(8) 0.0009(6) 0.0033(7) 0.0001(7)
O2 O2- 0.0064(7) 0.0087(7) 0.0176(8) 0.0013(6) 0.0023(6) 0.0015(6)
O3 O2- 0.0126(8) 0.0082(8) 0.0339(11) 0.0008(6) 0.0064(8) 0.0007(7)
O4 O2- 0.0086(7) 0.0073(7) 0.0173(8) 0.0004(6) 0.0037(6) 0.0001(6)
C1 C3+ 0.0098(10) 0.0093(10) 0.0103(10) 0.0018(8) 0.0037(8) -0.0010(7)
C2 C3+ 0.0104(9) 0.0113(10) 0.0061(9) -0.0007(8) 0.0031(8) 0.0007(8)
#End of TTdata_243600-ICSD