
#(C) 2019 by FIZ Karlsruhe - Leibniz Institute for Information Infrastructure.  All rights reserved.
data_243722-ICSD
_database_code_ICSD 243722
_audit_creation_date 2017-08-01
_chemical_name_systematic 'Disodium dodecaboride dodecachloride hexahydrate'
_chemical_formula_structural 'Na2 (B12 Cl12) (H2 O)6'
_chemical_formula_sum 'H12 B12 Cl12 Na2 O6'
_exptl_crystal_density_diffrn 1.83
_cell_measurement_temperature 100.
_publ_section_title

;
Comparison of the coordination of B12F122-, B12Cl122-, and B12H122- to Na+ in
the solid state: crystal structures and thermal behavior of Na2(B12F12),
Na2(H2O)4(B12F12), Na2(B12Cl12), and Na2(H2O)6(B12Cl12)
;
loop_
_citation_id
_citation_journal_full
_citation_year
_citation_journal_volume
_citation_page_first
_citation_page_last
_citation_journal_id_ASTM
primary 'Inorganic Chemistry' 2017 56 4369 4379 INOCAJ
loop_
_publ_author_name
'Bukovsky, Eric V.'
'Peryshkov, Dmitry V.'
'Wu, Hui'
'Zhou, Wei'
'Tang, Wan Si'
'Jones, W. Matthew'
'Stavila, Vitalie'
'Udovic, Terrence J.'
'Strauss, Steven H.'
_cell_length_a 16.1546(14)
_cell_length_b 8.9220(8)
_cell_length_c 17.9687(16)
_cell_angle_alpha 90
_cell_angle_beta 94.999(4)
_cell_angle_gamma 90
_cell_volume 2580.
_cell_formula_units_Z 4
_symmetry_space_group_name_H-M 'C 1 2/c 1'
_symmetry_Int_Tables_number 15
_refine_ls_R_factor_all 0.0225
loop_
_symmetry_equiv_pos_site_id
_symmetry_equiv_pos_as_xyz
1 'x, -y, z+1/2'
2 '-x, -y, -z'
3 '-x, y, -z+1/2'
4 'x, y, z'
5 'x+1/2, -y+1/2, z+1/2'
6 '-x+1/2, -y+1/2, -z'
7 '-x+1/2, y+1/2, -z+1/2'
8 'x+1/2, y+1/2, z'
loop_
_atom_type_symbol
_atom_type_oxidation_number
Cl1- -1
Na1+ 1
H1+ 1
O2- -2
H1+ 1
O2- -2
H1+ 1
O2- -2
B0+ 0.833
H1+ 1
loop_
_atom_site_label
_atom_site_type_symbol
_atom_site_symmetry_multiplicity
_atom_site_Wyckoff_symbol
_atom_site_fract_x
_atom_site_fract_y
_atom_site_fract_z
_atom_site_B_iso_or_equiv
_atom_site_occupancy
_atom_site_attached_hydrogens
Cl1 Cl1- 8 f 0.56172(2) 0.87730(3) 0.41204(2) 0.01273(5) 1 0
Cl2 Cl1- 8 f 0.76211(2) 1.03069(2) 0.36585(2) 0.01182(5) 1 0
Cl3 Cl1- 8 f 0.70599(2) 0.64409(3) 0.31329(2) 0.01328(5) 1 0
Cl4 Cl1- 8 f 0.90312(2) 1.02297(2) 0.53593(2) 0.01172(5) 1 0
Cl5 Cl1- 8 f 0.92043(2) 0.73234(3) 0.39370(2) 0.01183(5) 1 0
Cl6 Cl1- 8 f 0.81664(2) 0.39396(2) 0.45076(2) 0.01329(5) 1 0
Na1 Na1+ 4 e 0.5 0.79056(7) 0.25 0.02428(15) 1 0
Na2 Na1+ 4 e 0.5 0.39337(8) 0.25 0.0410(2) 1 0
H1 H1+ 8 f 0.3825(14) 0.248(2) 0.1575(12) 0.058(7) 1 0
O1 O2- 8 f 0.60827(6) 0.94947(10) 0.22704(5) 0.02131(17) 1 0
H2 H1+ 8 f 0.6146(13) 0.979(2) 0.1880(12) 0.061(6) 1 0
H3 H1+ 8 f 0.6514(14) 0.921(2) 0.2425(12) 0.057(6) 1 0
O2 O2- 8 f 0.54105(6) 0.58946(10) 0.17317(5) 0.02174(17) 1 0
H4 H1+ 8 f 0.5122(12) 0.588(2) 0.1334(11) 0.050(6) 1 0
H5 H1+ 8 f 0.5819(13) 0.584(2) 0.1653(11) 0.057(7) 1 0
O3 O2- 8 f 0.40644(7) 0.24109(13) 0.19240(6) 0.0331(2) 1 0
B1 B0+ 8 f 0.65844(6) 0.81067(11) 0.45647(6) 0.00896(17) 1 0
B2 B0+ 8 f 0.75583(6) 0.88666(11) 0.43510(6) 0.00873(17) 1 0
B3 B0+ 8 f 0.72907(6) 0.69849(11) 0.40931(5) 0.00878(17) 1 0
B4 B0+ 8 f 0.82501(6) 0.88195(11) 0.51804(6) 0.00871(17) 1 0
B5 B0+ 8 f 0.83224(6) 0.74217(11) 0.44730(5) 0.00877(17) 1 0
B6 B0+ 8 f 0.78240(6) 0.57574(11) 0.47613(6) 0.00890(17) 1 0
H6 H1+ 8 f 0.3989(12) 0.162(2) 0.2118(11) 0.053(6) 1 0
loop_
_atom_site_aniso_label
_atom_site_aniso_type_symbol
_atom_site_aniso_U_11
_atom_site_aniso_U_22
_atom_site_aniso_U_33
_atom_site_aniso_U_12
_atom_site_aniso_U_13
_atom_site_aniso_U_23
Cl1 Cl1- 0.00935(10) 0.01484(10) 0.01342(10) 0.00208(7) -0.00221(7) 0.00156(8)
Cl2 Cl1- 0.01305(10) 0.01163(9) 0.01080(10) -0.00060(7) 0.00115(7) 0.00461(7)
Cl3 Cl1- 0.01658(11) 0.01609(10) 0.00687(9) -0.00036(8) -0.00064(7) -0.00252(7)
Cl4 Cl1- 0.00994(10) 0.01072(9) 0.01432(10) -0.00345(7) -0.00005(7) -0.00054(7)
Cl5 Cl1- 0.01052(10) 0.01343(10) 0.01229(10) -0.00029(7) 0.00522(7) -0.00022(7)
Cl6 Cl1- 0.01582(11) 0.00824(9) 0.01621(11) 0.00180(7) 0.00366(8) -0.00172(7)
Na1 Na1+ 0.0328(4) 0.0125(3) 0.0304(4) 0. 0.0189(3) 0.
Na2 Na1+ 0.0578(6) 0.0131(3) 0.0487(5) 0. -0.0147(4) 0.
O1 O2- 0.0199(4) 0.0270(4) 0.0167(4) -0.0032(3) -0.0002(3) 0.0070(3)
O2 O2- 0.0164(4) 0.0246(4) 0.0231(4) 0.0078(3) -0.0050(3) -0.0076(3)
O3 O2- 0.0323(5) 0.0399(6) 0.0269(5) -0.0104(4) 0.0012(4) 0.0055(4)
B1 B0+ 0.0084(4) 0.0096(4) 0.0087(4) 0.0000(3) -0.0003(3) 0.0007(3)
B2 B0+ 0.0094(4) 0.0093(4) 0.0076(4) -0.0008(3) 0.0009(3) 0.0012(3)
B3 B0+ 0.0097(4) 0.0097(4) 0.0068(4) -0.0007(3) 0.0002(3) -0.0003(3)
B4 B0+ 0.0086(4) 0.0090(4) 0.0085(4) -0.0011(3) 0.0007(3) -0.0002(3)
B5 B0+ 0.0085(4) 0.0099(4) 0.0081(4) 0.0003(3) 0.0015(3) -0.0003(3)
B6 B0+ 0.0098(4) 0.0082(4) 0.0086(4) 0.0004(3) 0.0010(3) -0.0007(3)
#End of TTdata_243722-ICSD