
#(C) 2019 by FIZ Karlsruhe - Leibniz Institute for Information Infrastructure.  All rights reserved.
data_243847-ICSD
_database_code_ICSD 243847
_audit_creation_date 2017-08-01
_chemical_name_systematic
'Calcium sodium magnesium silicate (2.09/0.91/0.66/2.34)'
_chemical_formula_structural '(Ca2.09 Na0.91) Mg0.66 Si2.34 O8'
_chemical_formula_sum 'Ca2.09 Mg0.66 Na0.91 O8 Si2.34'
_chemical_name_structure_type Ca3Mg(SiO4)2
_chemical_name_mineral Merwinite
_exptl_crystal_density_diffrn 3.46
_publ_section_title

;
Merwinite-structured phases as a potential host of alkalis in the upper mantle
;
loop_
_citation_id
_citation_journal_full
_citation_year
_citation_journal_volume
_citation_page_first
_citation_page_last
_citation_journal_id_ASTM
primary 'Contributions to Mineralogy and Petrology' 2015 170 1 11 CMPEAP
loop_
_publ_author_name
'Bindi, Luca'
'Safonov, Oleg G.'
'Zedgenizov, Dmitriy A.'
_cell_length_a 12.987(2)
_cell_length_b 5.101(1)
_cell_length_c 9.130(2)
_cell_angle_alpha 90
_cell_angle_beta 92.36(1)
_cell_angle_gamma 90
_cell_volume 604.32
_cell_formula_units_Z 4
_symmetry_space_group_name_H-M 'P 1 21/a 1'
_symmetry_Int_Tables_number 14
_refine_ls_R_factor_all 0.0268
loop_
_symmetry_equiv_pos_site_id
_symmetry_equiv_pos_as_xyz
1 'x+1/2, -y+1/2, z'
2 '-x, -y, -z'
3 '-x+1/2, y+1/2, -z'
4 'x, y, z'
loop_
_atom_type_symbol
_atom_type_oxidation_number
Ca2+ 2
Na1+ 1
Ca2+ 2
Na1+ 1
Ca2+ 2
Na1+ 1
Mg2+ 2
Si4+ 4
O2- -2
loop_
_atom_site_label
_atom_site_type_symbol
_atom_site_symmetry_multiplicity
_atom_site_Wyckoff_symbol
_atom_site_fract_x
_atom_site_fract_y
_atom_site_fract_z
_atom_site_B_iso_or_equiv
_atom_site_occupancy
_atom_site_attached_hydrogens
Ca1 Ca2+ 4 e 0.25308(6) 0.1790(2) 0.22126(9) 0.0245(3) 0.79 0
Na1 Na1+ 4 e 0.25308(6) 0.1790(2) 0.22126(9) 0.0245(3) 0.21 0
Ca2 Ca2+ 4 e 0.07991(7) 0.2229(2) -0.0731(1) 0.0200(3) 0.5 0
Na2 Na1+ 4 e 0.07991(7) 0.2229(2) -0.0731(1) 0.0200(3) 0.5 0
Ca3 Ca2+ 4 e 0.10104(6) 0.7354(1) 0.42809(8) 0.0180(3) 0.8 0
Na3 Na1+ 4 e 0.10104(6) 0.7354(1) 0.42809(8) 0.0180(3) 0.2 0
Mg1 Mg2+ 4 e 0.00379(8) 0.2571(2) 0.2541(1) 0.0202(3) 0.66 0
Si1 Si4+ 4 e 0.00379(8) 0.2571(2) 0.2541(1) 0.0202(3) 0.34 0
Si2 Si4+ 4 e 0.13203(8) 0.2299(2) 0.5997(1) 0.0247(2) 1. 0
Si3 Si4+ 4 e 0.14241(9) 0.7267(2) 0.0912(1) 0.0252(2) 1. 0
O1 O2- 4 e 0.0707(2) 0.2125(5) 0.4359(3) 0.0286(5) 1. 0
O2 O2- 4 e 0.0475(2) 0.4192(5) 0.6811(3) 0.0317(6) 1. 0
O3 O2- 4 e 0.0998(2) -0.0415(5) 0.6771(3) 0.0294(5) 1. 0
O4 O2- 4 e 0.2412(2) 0.3892(5) 0.5929(3) 0.0319(6) 1. 0
O5 O2- 4 e 0.0711(2) 0.7115(5) -0.0612(3) 0.0326(6) 1. 0
O6 O2- 4 e 0.2411(2) 0.8837(5) 0.0389(3) 0.0320(5) 1. 0
O7 O2- 4 e 0.1200(2) 0.4531(5) 0.1858(3) 0.0291(5) 1. 0
O8 O2- 4 e 0.0831(2) -0.0428(5) 0.1748(3) 0.0282(5) 1. 0
loop_
_atom_site_aniso_label
_atom_site_aniso_type_symbol
_atom_site_aniso_U_11
_atom_site_aniso_U_22
_atom_site_aniso_U_33
_atom_site_aniso_U_12
_atom_site_aniso_U_13
_atom_site_aniso_U_23
Ca1 Ca2+ 0.0260(4) 0.0242(4) 0.0231(4) 0.0001(3) 0.0014(3) 0.0002(3)
Na1 Na1+ 0.0260(4) 0.0242(4) 0.0231(4) 0.0001(3) 0.0014(3) 0.0002(3)
Ca2 Ca2+ 0.0213(5) 0.0209(5) 0.0179(5) 0.0000(3) 0.0011(3) 0.0001(3)
Na2 Na1+ 0.0213(5) 0.0209(5) 0.0179(5) 0.0000(3) 0.0011(3) 0.0001(3)
Ca3 Ca2+ 0.0192(4) 0.0188(4) 0.0160(4) 0.0000(2) 0.0012(2) 0.0001(2)
Na3 Na1+ 0.0192(4) 0.0188(4) 0.0160(4) 0.0000(2) 0.0012(2) 0.0001(2)
Mg1 Mg2+ 0.0216(5) 0.0207(5) 0.0182(5) 0.0000(3) 0.0012(4) 0.0000(3)
Si1 Si4+ 0.0216(5) 0.0207(5) 0.0182(5) 0.0000(3) 0.0012(4) 0.0000(3)
Si2 Si4+ 0.0255(5) 0.0255(5) 0.0231(5) 0.0001(3) 0.0011(4) -0.0001(3)
Si3 Si4+ 0.0272(5) 0.0262(5) 0.0223(5) 0.0002(3) 0.0018(4) 0.0004(3)
O1 O2- 0.029(1) 0.030(1) 0.027(1) -0.0011(9) 0.001(1) -0.001(1)
O2 O2- 0.033(1) 0.032(1) 0.030(1) 0.001(1) 0.004(1) -0.001(1)
O3 O2- 0.030(1) 0.031(1) 0.027(1) -0.001(1) -0.0006(9) 0.001(1)
O4 O2- 0.034(1) 0.035(1) 0.026(1) -0.001(1) -0.0008(9) 0.001(1)
O5 O2- 0.035(2) 0.032(1) 0.031(1) 0.001(1) 0.004(1) 0.002(1)
O6 O2- 0.033(1) 0.034(1) 0.030(1) 0.002(1) -0.001(1) 0.001(1)
O7 O2- 0.030(1) 0.029(1) 0.028(1) -0.005(9) 0.027(9) 0.001(1)
O8 O2- 0.030(1) 0.028(1) 0.026(1) 0.0010(9) 0.0021(9) 0.001(1)
#End of TTdata_243847-ICSD