
#(C) 2019 by FIZ Karlsruhe - Leibniz Institute for Information Infrastructure.  All rights reserved.
data_243842-ICSD
_database_code_ICSD 243842
_audit_creation_date 2017-08-01
_chemical_name_systematic 'Sodium iron(II) tris(sulfate(VI))'
_chemical_formula_structural 'Na2.56 Fe1.72 (S O4)3'
_chemical_formula_sum 'Fe1.72 Na2.56 O12 S3'
_chemical_name_structure_type Alluaudite
_exptl_crystal_density_diffrn 3.1
_publ_section_title
'Polyanionic solid-solution cathodes for rechargeable batteries'
loop_
_citation_id
_citation_journal_full
_citation_year
_citation_journal_volume
_citation_page_first
_citation_page_last
_citation_journal_id_ASTM
primary 'Chemistry of Materials' 2017 29 3597 3602 CMATEX
loop_
_publ_author_name
'Lu, Jiechen'
'Nishimura, Shin-ichi'
'Yamada, Atsuo'
_cell_length_a 12.6556(8)
_cell_length_b 12.7726(7)
_cell_length_c 6.5144(4)
_cell_angle_alpha 90
_cell_angle_beta 115.5439(4)
_cell_angle_gamma 90
_cell_volume 950.09
_cell_formula_units_Z 4
_symmetry_space_group_name_H-M 'C 1 2/c 1'
_symmetry_Int_Tables_number 15
_refine_ls_R_factor_all 0.077
loop_
_symmetry_equiv_pos_site_id
_symmetry_equiv_pos_as_xyz
1 'x, -y, z+1/2'
2 '-x, -y, -z'
3 '-x, y, -z+1/2'
4 'x, y, z'
5 'x+1/2, -y+1/2, z+1/2'
6 '-x+1/2, -y+1/2, -z'
7 '-x+1/2, y+1/2, -z+1/2'
8 'x+1/2, y+1/2, z'
loop_
_atom_type_symbol
_atom_type_oxidation_number
Fe2+ 2
Na1+ 1
S6+ 6
O2- -2
loop_
_atom_site_label
_atom_site_type_symbol
_atom_site_symmetry_multiplicity
_atom_site_Wyckoff_symbol
_atom_site_fract_x
_atom_site_fract_y
_atom_site_fract_z
_atom_site_B_iso_or_equiv
_atom_site_occupancy
_atom_site_attached_hydrogens
Fe1 Fe2+ 8 f 0.26847 0.34144 0.35124 0.59 0.86 0
Na1 Na1+ 4 e 0 0.73497 0.25 1.57 1. 0
Na2 Na1+ 4 b 0 0.5 0 5.75 0.851 0
Na3 Na1+ 4 e 0 0.01422 0.25 4.98 0.709 0
S1 S6+ 4 e 0 0.27743 0.25 0.66 1. 0
S2 S6+ 8 f 0.23551 0.10336 0.12875 0.96 1. 0
O1 O2- 8 f 0.08736 0.34852 0.21941 1.43 1. 0
O2 O2- 8 f 0.05366 0.2085 0.45135 0.58 1. 0
O3 O2- 8 f 0.23454 0.17147 0.3213 0.55 1. 0
O4 O2- 8 f 0.1808 0.00352 0.12633 2.27 1. 0
O5 O2- 8 f 0.35634 0.08902 0.16083 1.59 1. 0
O6 O2- 8 f 0.32699 0.3397 0.08743 0.96 1. 0
#End of TTdata_243842-ICSD