
#(C) 2019 by FIZ Karlsruhe - Leibniz Institute for Information Infrastructure.  All rights reserved.
data_2438-ICSD
_database_code_ICSD 2438
_audit_creation_date 1980-01-01
_chemical_name_systematic 'Sodium Iron Titanium oxide (0.6/0.3/1.7/4)'
_chemical_formula_structural 'Na0.55 Fe0.28 Ti1.72 O4'
_chemical_formula_sum 'Fe0.28 Na0.55 O4 Ti1.72'
_chemical_name_structure_type NaMgTi3O7F
_exptl_crystal_density_diffrn 4.03
_publ_section_title 'Non-stoichiometric Sodium Iron(II) Titanium(IV) Oxide'
loop_
_citation_id
_citation_journal_full
_citation_year
_citation_journal_volume
_citation_page_first
_citation_page_last
_citation_journal_id_ASTM
primary

;
Acta Crystallographica, Section B: Structural Crystallography and Crystal
Chemistry
; 1978 34 3346 3348 ACBCAR
loop_
_publ_author_name
'Ishiguro, T.'
'Tanaka, K.'
'Marumo, F.'
'Ismail, M.G.M.U.'
'Hirano, S.'
'Somiya, S.'
_cell_length_a 9.083(6)
_cell_length_b 2.954(1)
_cell_length_c 10.718(3)
_cell_angle_alpha 90.
_cell_angle_beta 90.
_cell_angle_gamma 90.
_cell_volume 287.58
_cell_formula_units_Z 4
_symmetry_space_group_name_H-M 'P n m a'
_symmetry_Int_Tables_number 62
_refine_ls_R_factor_all 0.064
loop_
_symmetry_equiv_pos_site_id
_symmetry_equiv_pos_as_xyz
1 'x+1/2, y, -z+1/2'
2 'x, -y+1/2, z'
3 '-x+1/2, y+1/2, z+1/2'
4 '-x, -y, -z'
5 '-x+1/2, -y, z+1/2'
6 '-x, y+1/2, -z'
7 'x+1/2, -y+1/2, -z+1/2'
8 'x, y, z'
loop_
_atom_type_symbol
_atom_type_oxidation_number
Ti4+ 4
Fe2+ 2
Ti4+ 4
Fe2+ 2
Na1+ 1
O2- -2
loop_
_atom_site_label
_atom_site_type_symbol
_atom_site_symmetry_multiplicity
_atom_site_Wyckoff_symbol
_atom_site_fract_x
_atom_site_fract_y
_atom_site_fract_z
_atom_site_B_iso_or_equiv
_atom_site_occupancy
_atom_site_attached_hydrogens
Ti1 Ti4+ 4 c 0.0598(2) 0.25 0.1147(1) . 0.79(2) 0
Fe1 Fe2+ 4 c 0.0598(2) 0.25 0.1147(1) . 0.21(2) 0
Ti2 Ti4+ 4 c 0.4135(2) 0.75 0.1029(2) . 0.93(2) 0
Fe2 Fe2+ 4 c 0.4135(2) 0.75 0.1029(2) . 0.07(2) 0
Na1 Na1+ 4 c 0.2405(8) 0.25 0.3462(6) . 0.55(2) 0
O1 O2- 4 c 0.2045(7) 0.75 0.1458(6) . 1. 0
O2 O2- 4 c 0.1128(6) 0.75 0.4841(5) . 1. 0
O3 O2- 4 c 0.4231(7) 0.75 0.4280(5) . 1. 0
O4 O2- 4 c 0.4746(7) 0.25 0.2146(5) . 1. 0
loop_
_atom_site_aniso_label
_atom_site_aniso_type_symbol
_atom_site_aniso_U_11
_atom_site_aniso_U_22
_atom_site_aniso_U_33
_atom_site_aniso_U_12
_atom_site_aniso_U_13
_atom_site_aniso_U_23
Ti1 Ti4+ 0.0257(8) 0.0047(6) 0.0086(5) 0 0.0025(5) 0
Fe1 Fe2+ 0.0257(8) 0.0047(6) 0.0086(5) 0 0.0025(5) 0
Ti2 Ti4+ 0.0102(5) 0.0045(5) 0.0113(5) 0 0.0031(5) 0
Fe2 Fe2+ 0.0102(5) 0.0045(5) 0.0113(5) 0 0.0031(5) 0
Na1 Na1+ 0.0093(30) 0.0274(40) 0.0056(27) 0 0.0053(21) 0
O1 O2- 0.0061(24) 0.0107(23) 0.0149(24) 0 0.0002(19) 0
O2 O2- 0.0070(23) 0.0056(20) 0.0081(21) 0 -.0020(16) 0
O3 O2- 0.0072(23) 0.0078(21) 0.0108(21) 0 -.0016(19) 0
O4 O2- 0.0167(26) 0.0027(18) 0.0054(18) 0 0.0009(18) 0
#End of TTdata_2438-ICSD