
#(C) 2019 by FIZ Karlsruhe - Leibniz Institute for Information Infrastructure.  All rights reserved.
data_243837-ICSD
_database_code_ICSD 243837
_audit_creation_date 2017-08-01
_chemical_name_systematic 'Tetrasodium vanadium(IV) oxide bis(phosphate)'
_chemical_formula_structural 'Na4 V O (P O4)2'
_chemical_formula_sum 'Na4 O9 P2 V1'
_exptl_crystal_density_diffrn 2.87
_publ_section_title

;
High power cathode material Na4VO(PO4)2 with open framework for Na ion
batteries
;
loop_
_citation_id
_citation_journal_full
_citation_year
_citation_journal_volume
_citation_page_first
_citation_page_last
_citation_journal_id_ASTM
primary 'Chemistry of Materials' 2017 29 3363 3366 CMATEX
loop_
_publ_author_name
'Kim, Jongsoon'
'Kim, Hyungsub'
'Lee, Seongsu'
_cell_length_a 15.9491(6)
_cell_length_b 14.4620(12)
_cell_length_c 6.9989(3)
_cell_angle_alpha 90.
_cell_angle_beta 90.
_cell_angle_gamma 90.
_cell_volume 1614.34
_cell_formula_units_Z 8
_symmetry_space_group_name_H-M 'P b c a'
_symmetry_Int_Tables_number 61
_refine_ls_R_factor_all 0.0276
loop_
_symmetry_equiv_pos_site_id
_symmetry_equiv_pos_as_xyz
1 'x+1/2, y, -z+1/2'
2 'x, -y+1/2, z+1/2'
3 '-x+1/2, y+1/2, z'
4 '-x, -y, -z'
5 '-x+1/2, -y, z+1/2'
6 '-x, y+1/2, -z+1/2'
7 'x+1/2, -y+1/2, -z'
8 'x, y, z'
loop_
_atom_type_symbol
_atom_type_oxidation_number
V4+ 4
P5+ 5
Na1+ 1
O2- -2
loop_
_atom_site_label
_atom_site_type_symbol
_atom_site_symmetry_multiplicity
_atom_site_Wyckoff_symbol
_atom_site_fract_x
_atom_site_fract_y
_atom_site_fract_z
_atom_site_B_iso_or_equiv
_atom_site_occupancy
_atom_site_attached_hydrogens
V1 V4+ 8 c 0.7349(2) 0.2454(3) 0.755(2) 1.19(5) 1. 0
P1 P5+ 8 c 0.3715(3) 0.1413(3) 0.495(3) 0.76(4) 1. 0
P2 P5+ 8 c 0.1197(3) 0.1086(3) 0.4981(20) 0.76(4) 1. 0
Na1 Na1+ 8 c 0.8813(5) 0.1363(6) 0.501(4) 1.49(7) 1. 0
Na2 Na1+ 8 c 0.5237(6) 0.2396(9) 0.257(3) 1.49(7) 1. 0
Na3 Na1+ 8 c 0.5035(12) 0.0066(14) 0.2640(11) 1.49(7) 1. 0
Na4 Na1+ 8 c 0.7250(7) 0.0275(8) 0.3256(15) 1.49(7) 1. 0
O1 O2- 8 c 0.0246(3) 0.1031(3) 0.497(2) 1.009(14) 1. 0
O2 O2- 8 c 0.3193(7) 0.1525(6) 0.6834(17) 1.009(14) 1. 0
O3 O2- 8 c 0.3177(7) 0.1602(6) 0.3182(17) 1.009(14) 1. 0
O4 O2- 8 c 0.4021(3) 0.0374(3) 0.503(2) 1.009(14) 1. 0
O5 O2- 8 c 0.1596(3) 0.0133(3) 0.496(2) 1.009(14) 1. 0
O6 O2- 8 c 0.1461(7) 0.1661(7) 0.6865(17) 1.009(14) 1. 0
O7 O2- 8 c 0.1455(7) 0.1665(8) 0.3250(17) 1.009(14) 1. 0
O8 O2- 8 c 0.7385(3) 0.1991(3) 0.4942(19) 1.009(14) 1. 0
O9 O2- 8 c 0.4473(3) 0.2066(3) 0.5157(12) 1.009(14) 1. 0
#End of TTdata_243837-ICSD