
#(C) 2019 by FIZ Karlsruhe - Leibniz Institute for Information Infrastructure.  All rights reserved.
data_243977-ICSD
_database_code_ICSD 243977
_audit_creation_date 2018-02-01
_chemical_name_systematic 'Disodium diamine dodecahydro-closo-dodecaborate'
_chemical_formula_structural 'Na2 B12 H12 (N H3)2'
_chemical_formula_sum 'H18 B12 N2 Na2'
_exptl_crystal_density_diffrn 1.16
_cell_measurement_temperature 393.
_publ_section_title

;
Synthesis, structures and thermal decomposition of ammine MxB12H12 complexes
(M = Li, Na, Ca)
;
loop_
_citation_id
_citation_journal_full
_citation_year
_citation_journal_volume
_citation_page_first
_citation_page_last
_citation_journal_id_ASTM
primary 'Dalton Transactions' 2017 46 7770 7781 DTARAF
loop_
_publ_author_name
'Hansen, Bjarne R.S.'
'Tumanov, Nikolay'
'Santoru, Antonio'
'Pistidda, Claudio'
'Bednarcik, Jozef'
'Klassen, Thomas'
'Dornheim, Martin'
'Filinchuk, Yaroslav'
'Jensen, Torben R.'
_cell_length_a 7.16723(11)
_cell_length_b 7.16723(11)
_cell_length_c 7.15737(19)
_cell_angle_alpha 90.
_cell_angle_beta 90.
_cell_angle_gamma 120.
_cell_volume 318.4
_cell_formula_units_Z 1
_symmetry_space_group_name_H-M 'P -3 m 1'
_symmetry_Int_Tables_number 164
_refine_ls_R_factor_all 0.0192
loop_
_symmetry_equiv_pos_site_id
_symmetry_equiv_pos_as_xyz
1 'x-y, -y, -z'
2 '-x, -x+y, -z'
3 'y, x, -z'
4 'x-y, x, -z'
5 'y, -x+y, -z'
6 '-x, -y, -z'
7 '-x+y, y, z'
8 'x, x-y, z'
9 '-y, -x, z'
10 '-x+y, -x, z'
11 '-y, x-y, z'
12 'x, y, z'
loop_
_atom_type_symbol
_atom_type_oxidation_number
B0+ 0.83
H1- -1
N3- -3
H1+ 1
Na1+ 1
loop_
_atom_site_label
_atom_site_type_symbol
_atom_site_symmetry_multiplicity
_atom_site_Wyckoff_symbol
_atom_site_fract_x
_atom_site_fract_y
_atom_site_fract_z
_atom_site_B_iso_or_equiv
_atom_site_occupancy
_atom_site_attached_hydrogens
B1 B0+ 6 i 0.16741 0.0837 0.2034 0.0268(5) 1. 0
B2 B0+ 6 i 0.13981 0.27962 0.04485 0.0268(5) 1. 0
H1 H1- 6 i 0.2859 0.14294 0.34736 0.0268(5) 1. 0
H2 H1- 6 i 0.23876 0.47753 0.07659 0.0268(5) 1. 0
N1 N3- 2 d 0.33333 0.66667 0.4856(6) 0.171(2) 1. 0
H3 H1+ 6 i 0.2639(2) 0.7362(2) 0.4440(6) 0.171(2) 1. 0
Na1 Na1+ 2 d 0.33333 0.66667 0.8053(4) 0.1385(13) 1. 0
#End of TTdata_243977-ICSD