
#(C) 2019 by FIZ Karlsruhe - Leibniz Institute for Information Infrastructure.  All rights reserved.
data_243916-ICSD
_database_code_ICSD 243916
_audit_creation_date 2018-02-01
_chemical_name_systematic 'Disodium dimagnesium triphosphate nitride'
_chemical_formula_structural 'Na2 Mg2 P3 O9 N'
_chemical_formula_sum 'Mg2 N1 Na2 O9 P3'
_chemical_name_structure_type Na3AlN(PO3)3
_exptl_crystal_density_diffrn 2.9
_cell_measurement_temperature 300.
_publ_section_title

;
In situ neutron diffraction studies of the ion exchange synthesis mechanism of
Li2Mg2P3O9N: evidence for a hidden phase transition
;
loop_
_citation_id
_citation_journal_full
_citation_year
_citation_journal_volume
_citation_page_first
_citation_page_last
_citation_journal_id_ASTM
primary 'Journal of the American Chemical Society' 2017 139 9192 9202 JACSAT
loop_
_publ_author_name
'Liu, Jue'
'Whitfield, Pamela S.'
'Saccomanno, Michael R.'
'Bo, Shou-Hang'
'Hu, Enyuan'
'Yu, Xiqian'
'Bai, Jianming'
'Grey, Clare P.'
'Yang, Xiao-Qing'
'Khalifah, Peter G.'
_cell_length_a 9.24841(9)
_cell_length_b 9.24841(9)
_cell_length_c 9.24841(9)
_cell_angle_alpha 90
_cell_angle_beta 90
_cell_angle_gamma 90
_cell_volume 791.04
_cell_formula_units_Z 4
_symmetry_space_group_name_H-M 'P 21 3'
_symmetry_Int_Tables_number 198
loop_
_symmetry_equiv_pos_site_id
_symmetry_equiv_pos_as_xyz
1 '-z+1/2, -x, y+1/2'
2 '-y+1/2, -z, x+1/2'
3 '-x+1/2, -y, z+1/2'
4 '-z, x+1/2, -y+1/2'
5 '-y, z+1/2, -x+1/2'
6 '-x, y+1/2, -z+1/2'
7 'z+1/2, -x+1/2, -y'
8 'y+1/2, -z+1/2, -x'
9 'x+1/2, -y+1/2, -z'
10 'z, x, y'
11 'y, z, x'
12 'x, y, z'
loop_
_atom_type_symbol
_atom_type_oxidation_number
Na1+ 1
Mg2+ 2
P5+ 5
O2- -2
N3- -3
loop_
_atom_site_label
_atom_site_type_symbol
_atom_site_symmetry_multiplicity
_atom_site_Wyckoff_symbol
_atom_site_fract_x
_atom_site_fract_y
_atom_site_fract_z
_atom_site_B_iso_or_equiv
_atom_site_occupancy
_atom_site_attached_hydrogens
Na1 Na1+ 4 a 0.03785(20) 0.03785(20) 0.03785(20) 1.5 1 0
Na2 Na1+ 4 a 0.79197(23) 0.79197(23) 0.79197(23) 2.06 1 0
Mg1 Mg2+ 4 a 0.57742(12) 0.57742(12) 0.57742(12) 0.56 1 0
Mg2 Mg2+ 4 a 0.39877(14) 0.39877(14) 0.39877(14) 0.8 1 0
P1 P5+ 12 b 0.09104(15) 0.26109(14) 0.34149(15) 0.57 1 0
O1 O2- 12 b 0.01397(12) 0.86908(13) 0.22297(13) 0.88 1 0
O2 O2- 12 b 0.00529(13) 0.13300(11) 0.39951(13) 0.66 1 0
O3 O2- 12 b 0.19280(12) 0.32725(13) 0.45090(10) 0.89 1 0
N1 N3- 4 a 0.19994(8) 0.19994(8) 0.19994(8) 0.59 1 0
loop_
_atom_site_aniso_label
_atom_site_aniso_type_symbol
_atom_site_aniso_U_11
_atom_site_aniso_U_22
_atom_site_aniso_U_33
_atom_site_aniso_U_12
_atom_site_aniso_U_13
_atom_site_aniso_U_23
Na1 Na1+ 0.01912(74) 0.01912(74) 0.01912(74) 0.00152(58) 0.00152(58) 0.00152(58)
Na2 Na1+ 0.02623(95) 0.02623(95) 0.02623(95) -0.0007(10) -0.0007(10) -0.0007(10)
Mg1 Mg2+ 0.00723(38) 0.00723(38) 0.00723(38) 0.00053(39) 0.00053(39) 0.00053(39)
Mg2 Mg2+ 0.01030(47) 0.01030(47) 0.01030(47) -0.00271(45) -0.00271(45)
-0.00271(45)
P1 P5+ 0.00842(56) 0.00640(58) 0.00702(52) 0.00133(48) 0.00015(45) 0.00237(42)
O1 O2- 0.01309(55) 0.01133(59) 0.00912(59) -0.00680(47) -0.00253(42)
-0.00105(39)
O2 O2- 0.00793(55) 0.00820(54) 0.00904(53) -0.00194(41) 0.00203(39) 0.00206(40)
O3 O2- 0.01211(53) 0.01574(65) 0.00617(57) -0.00343(47) -0.00226(41)
-0.00266(40)
N1 N3- 0.00752(27) 0.00752(27) 0.00752(27) -0.00034(28) -0.00034(28) 0.00152(58)
#End of TTdata_243916-ICSD