
#(C) 2019 by FIZ Karlsruhe - Leibniz Institute for Information Infrastructure.  All rights reserved.
data_244005-ICSD
_database_code_ICSD 244005
_audit_creation_date 2018-02-01
_chemical_name_systematic 'Sodium cerium tetrakis(iodate)'
_chemical_formula_structural 'Na Ce (I O3)4'
_chemical_formula_sum 'Ce1 I4 Na1 O12'
_chemical_name_structure_type NaY(IO3)4
_exptl_crystal_density_diffrn 4.94
_cell_measurement_temperature 298.
_publ_section_title

;
Photoconversion mechanisms and the origin of second-harmonic generation in
metal iodates with wide transparency, NaLn(IO3)4 (Ln = La, Ce, Sm, and Eu) and
NaLa(IO3)4:Ln3+ (Ln = Sm and Eu)
;
loop_
_citation_id
_citation_journal_full
_citation_year
_citation_journal_volume
_citation_page_first
_citation_page_last
_citation_journal_id_ASTM
primary 'Inorganic Chemistry' 2017 56 6973 6981 INOCAJ
loop_
_publ_author_name
'Oh, Seung-Jin'
'Kim, Hyung-Gu'
'Jo, Hongil'
'Lim, Tae Gil'
'Yoo, Jae Soo'
'Ok, Kang Min'
_cell_length_a 31.7033(10)
_cell_length_b 5.6788(2)
_cell_length_c 12.8794(5)
_cell_angle_alpha 90
_cell_angle_beta 90.728(3)
_cell_angle_gamma 90
_cell_volume 2318.57
_cell_formula_units_Z 8
_symmetry_space_group_name_H-M 'C 1 c 1'
_symmetry_Int_Tables_number 9
_refine_ls_R_factor_all 0.0295
loop_
_symmetry_equiv_pos_site_id
_symmetry_equiv_pos_as_xyz
1 'x, -y, z+1/2'
2 'x, y, z'
3 'x+1/2, -y+1/2, z+1/2'
4 'x+1/2, y+1/2, z'
loop_
_atom_type_symbol
_atom_type_oxidation_number
Ce3+ 3
I5+ 5
Na1+ 1
O2- -2
loop_
_atom_site_label
_atom_site_type_symbol
_atom_site_symmetry_multiplicity
_atom_site_Wyckoff_symbol
_atom_site_fract_x
_atom_site_fract_y
_atom_site_fract_z
_atom_site_B_iso_or_equiv
_atom_site_occupancy
_atom_site_attached_hydrogens
Ce1 Ce3+ 4 a -0.12786(3) -0.19417(15) 0.96729(7) 0.0118(2) 1 0
Ce2 Ce3+ 4 a 0.08024(3) 0.20970(15) 0.96902(7) 0.0109(2) 1 0
I1 I5+ 4 a -0.14457(3) -0.29589(17) 1.26046(9) 0.0128(2) 1 0
I2 I5+ 4 a -0.20443(3) 0.26513(19) 1.06922(9) 0.0131(2) 1 0
I3 I5+ 4 a -0.24456(3) -0.17345(18) 0.83499(9) 0.0148(3) 1 0
I4 I5+ 4 a -0.06320(3) -0.19737(16) 0.66936(8) 0.0151(2) 1 0
I5 I5+ 4 a 0.09850(3) 0.30211(17) 0.67464(8) 0.0122(2) 1 0
I6 I5+ 4 a 0.15580(3) -0.2633(2) 0.87504(8) 0.0128(2) 1 0
I7 I5+ 4 a 0.19529(3) 0.18739(18) 1.10485(9) 0.0144(3) 1 0
I8 I5+ 4 a -0.00612(3) -0.26330(15) 1.00651(9) 0.0125(2) 1 0
Na1 Na1+ 4 a -0.0373(2) 0.2692(11) 0.8567(7) 0.0336(18) 1 0
Na2 Na1+ 4 a 0.0380(2) 0.7778(13) 0.7625(6) 0.0348(19) 1 0
O1 O2- 4 a -0.1140(4) -0.3237(19) 1.1422(10) 0.020(3) 1 0
O2 O2- 4 a -0.1223(4) -0.5562(19) 1.3186(10) 0.023(3) 1 0
O3 O2- 4 a -0.1616(4) 0.0584(19) 1.0954(11) 0.024(3) 1 0
O4 O2- 4 a -0.2004(4) 0.4387(19) 1.1852(10) 0.019(3) 1 0
O5 O2- 4 a -0.1767(4) 0.454(2) 0.9783(11) 0.025(3) 1 0
O6 O2- 4 a -0.1955(4) -0.0553(19) 0.8885(11) 0.021(3) 1 0
O7 O2- 4 a -0.2803(4) -0.010(2) 0.9170(11) 0.028(3) 1 0
O8 O2- 4 a -0.2478(4) -0.0062(19) 0.7172(11) 0.020(3) 1 0
O9 O2- 4 a -0.0676(4) -0.103(2) 0.5349(10) 0.028(3) 1 0
O10 O2- 4 a -0.0260(3) -0.4369(18) 0.6630(9) 0.027(3) 1 0
O11 O2- 4 a -0.0259(5) 0.0166(15) 0.7150(14) 0.024(2) 1 0
O12 O2- 4 a 0.0771(4) 0.5800(18) 0.6292(10) 0.016(3) 1 0
O13 O2- 4 a 0.0667(3) 0.310(2) 0.7897(9) 0.021(3) 1 0
O14 O2- 4 a 0.1095(4) -0.0815(19) 0.8437(10) 0.019(3) 1 0
O15 O2- 4 a 0.1512(4) -0.453(2) 0.7626(11) 0.026(3) 1 0
O16 O2- 4 a 0.1303(4) -0.4480(19) 0.9703(10) 0.021(3) 1 0
O17 O2- 4 a 0.1475(4) 0.0674(18) 1.0429(11) 0.019(3) 1 0
O18 O2- 4 a 0.2323(4) 0.036(2) 1.0268(12) 0.029(3) 1 0
O19 O2- 4 a 0.1945(3) 0.011(2) 1.2202(11) 0.024(3) 1 0
O20 O2- 4 a -0.0541(3) -0.3288(16) 0.9346(9) 0.020(3) 1 0
O21 O2- 4 a 0.0144(3) -0.0265(18) 0.9261(9) 0.016(3) 1 0
O22 O2- 4 a 0.0232(3) -0.4974(18) 0.9455(9) 0.021(3) 1 0
O23 O2- 4 a -0.1091(3) 0.0913(18) 0.8286(11) 0.019(3) 1 0
O24 O2- 4 a 0.0644(3) -0.1004(19) 1.1010(10) 0.015(3) 1 0
loop_
_atom_site_aniso_label
_atom_site_aniso_type_symbol
_atom_site_aniso_U_11
_atom_site_aniso_U_22
_atom_site_aniso_U_33
_atom_site_aniso_U_12
_atom_site_aniso_U_13
_atom_site_aniso_U_23
Ce1 Ce3+ 0.0106(5) 0.0150(5) 0.0097(5) 0.0007(4) -0.0003(4) -0.0001(4)
Ce2 Ce3+ 0.0107(5) 0.0126(4) 0.0094(5) 0.0008(4) -0.0011(4) -0.0001(4)
I1 I5+ 0.0121(6) 0.0131(5) 0.0130(6) 0.0004(4) -0.0004(5) -0.0014(5)
I2 I5+ 0.0112(5) 0.0140(5) 0.0142(6) 0.0001(5) -0.0002(4) -0.0014(5)
I3 I5+ 0.0120(5) 0.0187(5) 0.0136(6) 0.0007(4) -0.0010(5) -0.0003(5)
I4 I5+ 0.0142(5) 0.0162(5) 0.0148(5) 0.0005(4) 0.0025(4) 0.0020(4)
I5 I5+ 0.0120(5) 0.0137(6) 0.0109(6) 0.0014(4) -0.0017(5) -0.0015(4)
I6 I5+ 0.0108(5) 0.0130(5) 0.0146(6) -0.0006(5) 0.0001(4) -0.0019(5)
I7 I5+ 0.0118(5) 0.0182(6) 0.0132(6) -0.0002(5) -0.0019(5) -0.0005(5)
I8 I5+ 0.0108(4) 0.0130(4) 0.0136(5) -0.0004(4) 0.0009(4) -0.0015(4)
Na1 Na1+ 0.029(4) 0.024(4) 0.047(5) 0.005(3) -0.011(4) -0.012(4)
Na2 Na1+ 0.028(4) 0.048(4) 0.028(5) 0.009(3) 0.005(4) -0.012(4)
O1 O2- 0.026(7) 0.025(6) 0.010(7) 0.004(5) 0.009(6) 0.006(5)
O2 O2- 0.034(7) 0.022(6) 0.012(7) 0.013(5) 0.010(6) 0.005(5)
O3 O2- 0.021(7) 0.020(6) 0.032(9) 0.009(5) -0.004(6) -0.009(6)
O4 O2- 0.017(6) 0.020(6) 0.019(7) -0.008(5) 0.001(6) -0.007(5)
O5 O2- 0.028(7) 0.028(7) 0.018(7) -0.010(6) 0.002(6) 0.005(6)
O6 O2- 0.018(7) 0.020(6) 0.025(8) 0.003(5) -0.008(6) -0.001(6)
O7 O2- 0.026(8) 0.046(8) 0.013(8) 0.017(6) 0.005(6) -0.004(6)
O8 O2- 0.019(6) 0.019(6) 0.023(8) 0.003(5) 0.000(6) 0.003(5)
O9 O2- 0.038(8) 0.040(7) 0.016(6) 0.006(6) 0.003(5) 0.011(6)
O10 O2- 0.019(5) 0.024(6) 0.040(8) 0.007(5) 0.001(6) -0.001(5)
O11 O2- 0.016(5) 0.026(5) 0.029(6) 0.000(6) -0.003(4) 0.004(7)
O12 O2- 0.018(6) 0.017(6) 0.012(6) 0.003(5) -0.007(6) -0.001(5)
O13 O2- 0.015(6) 0.039(8) 0.009(7) 0.004(5) -0.002(5) 0.006(6)
O14 O2- 0.014(6) 0.020(6) 0.021(8) 0.009(5) -0.005(6) -0.004(5)
O15 O2- 0.018(7) 0.030(7) 0.031(9) 0.005(5) 0.001(6) -0.017(6)
O16 O2- 0.022(7) 0.016(6) 0.026(8) -0.010(5) 0.009(6) 0.001(6)
O17 O2- 0.017(6) 0.019(6) 0.021(7) -0.002(5) -0.014(6) -0.001(6)
O18 O2- 0.023(7) 0.040(8) 0.024(8) 0.018(6) 0.005(7) 0.007(7)
O19 O2- 0.013(6) 0.034(7) 0.026(9) 0.001(5) 0.001(6) -0.002(6)
O20 O2- 0.013(5) 0.014(5) 0.032(7) -0.002(4) -0.002(5) -0.004(5)
O21 O2- 0.015(5) 0.016(6) 0.016(7) -0.005(4) -0.003(5) 0.004(5)
O22 O2- 0.015(5) 0.021(6) 0.028(7) 0.010(4) -0.003(5) -0.005(5)
O23 O2- 0.016(6) 0.018(6) 0.024(8) 0.003(5) 0.004(6) 0.008(6)
O24 O2- 0.008(5) 0.022(6) 0.015(7) -0.003(4) -0.005(5) 0.009(5)
#End of TTdata_244005-ICSD