
#(C) 2019 by FIZ Karlsruhe - Leibniz Institute for Information Infrastructure.  All rights reserved.
data_244044-ICSD
_database_code_ICSD 244044
_audit_creation_date 2018-02-01
_chemical_name_systematic
'Strontium sodium niobium oxide nitride (1/0.2/0.8/2.82/0.18)'
_chemical_formula_structural 'Sr (Na0.20 Nb0.80) (O2.82 N0.18)'
_chemical_formula_sum 'N0.18 Na0.2 Nb0.8 O2.82 Sr1'
_chemical_name_structure_type Perovskite-SrTiO3
_exptl_crystal_density_diffrn 5.36
_publ_section_title

;
Crystal structure and optical property of complex perovskite oxynitrides
ALi0.2Nb0.8O2.8N0.2, ANa0.2Nb0.8O2.8N0.2, and AMg0.2Nb0.8O2.6N0.4 (A = Sr, Ba)
;
loop_
_citation_id
_citation_journal_full
_citation_year
_citation_journal_volume
_citation_page_first
_citation_page_last
_citation_journal_id_ASTM
primary 'Journal of Solid State Chemistry' 2017 254 1 8 JSSCBI
loop_
_publ_author_name
'Moon, Keon Ho'
'Avdeev, Maxim'
'Kim, Young-Il'
_cell_length_a 5.71841
_cell_length_b 5.71841
_cell_length_c 8.1222(7)
_cell_angle_alpha 90.
_cell_angle_beta 90.
_cell_angle_gamma 90.
_cell_volume 265.59
_cell_formula_units_Z 4
_symmetry_space_group_name_H-M 'I 4/m c m'
_symmetry_Int_Tables_number 140
_refine_ls_R_factor_all 0.0479
loop_
_symmetry_equiv_pos_site_id
_symmetry_equiv_pos_as_xyz
1 'y, x, -z+1/2'
2 '-y, -x, -z+1/2'
3 '-y, x, -z'
4 'y, -x, -z'
5 'x, -y, -z+1/2'
6 '-x, y, -z+1/2'
7 'x, y, -z'
8 '-x, -y, -z'
9 '-y, -x, z+1/2'
10 'y, x, z+1/2'
11 'y, -x, z'
12 '-y, x, z'
13 '-x, y, z+1/2'
14 'x, -y, z+1/2'
15 '-x, -y, z'
16 'x, y, z'
17 'y+1/2, x+1/2, -z'
18 '-y+1/2, -x+1/2, -z'
19 '-y+1/2, x+1/2, -z+1/2'
20 'y+1/2, -x+1/2, -z+1/2'
21 'x+1/2, -y+1/2, -z'
22 '-x+1/2, y+1/2, -z'
23 'x+1/2, y+1/2, -z+1/2'
24 '-x+1/2, -y+1/2, -z+1/2'
25 '-y+1/2, -x+1/2, z'
26 'y+1/2, x+1/2, z'
27 'y+1/2, -x+1/2, z+1/2'
28 '-y+1/2, x+1/2, z+1/2'
29 '-x+1/2, y+1/2, z'
30 'x+1/2, -y+1/2, z'
31 '-x+1/2, -y+1/2, z+1/2'
32 'x+1/2, y+1/2, z+1/2'
loop_
_atom_type_symbol
_atom_type_oxidation_number
Sr2+ 2
Na1+ 1
Nb5+ 5
O2- -2
N3- -3
O2- -2
loop_
_atom_site_label
_atom_site_type_symbol
_atom_site_symmetry_multiplicity
_atom_site_Wyckoff_symbol
_atom_site_fract_x
_atom_site_fract_y
_atom_site_fract_z
_atom_site_B_iso_or_equiv
_atom_site_occupancy
_atom_site_attached_hydrogens
Sr1 Sr2+ 4 b 0. 0.5 0.25 0.0192(5) 1. 0
Na1 Na1+ 4 c 0.5 0.5 0.5 0.0090(5) 0.196(5) 0
Nb1 Nb5+ 4 c 0.5 0.5 0.5 0.0090(5) 0.804(5) 0
O1 O2- 4 a 0. 0. 0.25 0.0279(13) 0.817(20) 0
N1 N3- 4 a 0. 0. 0.25 0.0279(13) 0.183(20) 0
O2 O2- 8 h 0.78123(32) 0.28123(32) 0. 0.0202(5) 1. 0
#End of TTdata_244044-ICSD