
#(C) 2019 by FIZ Karlsruhe - Leibniz Institute for Information Infrastructure.  All rights reserved.
data_244128-ICSD
_database_code_ICSD 244128
_audit_creation_date 2018-02-01
_chemical_name_systematic 'Sodium dihydrogen arsenate'
_chemical_formula_structural 'Na (H2 As O4)'
_chemical_formula_sum 'H2 As1 Na1 O4'
_exptl_crystal_density_diffrn 3.
_cell_measurement_temperature 100.
_publ_section_title 'Crystal structure of sodium dihydrogen arsenate'
loop_
_citation_id
_citation_journal_full
_citation_year
_citation_journal_volume
_citation_page_first
_citation_page_last
_citation_journal_id_ASTM
primary 'Acta Crystallographica, Section E: Crystallographic Communications'
2017 73 1520 1522 ACSECI
loop_
_publ_author_name
'Ring, Joseph'
'Lindenthal, Lorenz'
'Weil, Matthias'
'Stoeger, Berthold'
_cell_length_a 7.0528(14)
_cell_length_b 13.798(3)
_cell_length_c 7.4792(15)
_cell_angle_alpha 90
_cell_angle_beta 93.02(3)
_cell_angle_gamma 90
_cell_volume 726.82
_cell_formula_units_Z 8
_symmetry_space_group_name_H-M 'P 1 21/c 1'
_symmetry_Int_Tables_number 14
_refine_ls_R_factor_all 0.0298
loop_
_symmetry_equiv_pos_site_id
_symmetry_equiv_pos_as_xyz
1 'x, -y+1/2, z+1/2'
2 '-x, -y, -z'
3 '-x, y+1/2, -z+1/2'
4 'x, y, z'
loop_
_atom_type_symbol
_atom_type_oxidation_number
As5+ 5
Na1+ 1
O2- -2
H1+ 1
loop_
_atom_site_label
_atom_site_type_symbol
_atom_site_symmetry_multiplicity
_atom_site_Wyckoff_symbol
_atom_site_fract_x
_atom_site_fract_y
_atom_site_fract_z
_atom_site_B_iso_or_equiv
_atom_site_occupancy
_atom_site_attached_hydrogens
As1 As5+ 4 e 0.32467(4) 0.36827(2) 0.84669(4) 0.00611(7) 1 0
As2 As5+ 4 e 0.82170(4) 0.37010(2) 0.50756(4) 0.00595(7) 1 0
Na1 Na1+ 4 e 0.85834(16) 0.40338(8) -0.00598(15) 0.0091(2) 1 0
Na2 Na1+ 4 e 0.34819(17) 0.39825(9) 0.26282(16) 0.0134(3) 1 0
O1 O2- 4 e 0.2417(3) 0.26833(14) 0.7478(3) 0.0108(4) 1 0
O2 O2- 4 e 0.5315(3) 0.34069(15) 0.9726(3) 0.0099(4) 1 0
O3 O2- 4 e 0.1910(3) 0.42983(14) 0.9809(3) 0.0078(4) 1 0
O4 O2- 4 e 0.4015(3) 0.44833(15) 0.6878(3) 0.0124(4) 1 0
O5 O2- 4 e 0.9202(3) 0.26110(14) 0.5709(3) 0.0113(4) 1 0
O6 O2- 4 e 0.8540(3) 0.45079(14) 0.6715(3) 0.0098(4) 1 0
O7 O2- 4 e 0.9303(3) 0.40531(15) 0.3188(3) 0.0093(4) 1 0
O8 O2- 4 e 0.5931(3) 0.34459(14) 0.4613(3) 0.0082(4) 1 0
H1 H1+ 4 e 0.545(7) 0.2797(14) 0.970(6) 0.055(15) 1 0
H2 H1+ 4 e 0.462(5) 0.415(3) 0.619(5) 0.038(13) 1 0
H3 H1+ 4 e 1.026(4) 0.270(3) 0.627(6) 0.071(18) 1 0
H4 H1+ 4 e 0.995(5) 0.457(2) 0.332(6) 0.045(13) 1 0
loop_
_atom_site_aniso_label
_atom_site_aniso_type_symbol
_atom_site_aniso_U_11
_atom_site_aniso_U_22
_atom_site_aniso_U_33
_atom_site_aniso_U_12
_atom_site_aniso_U_13
_atom_site_aniso_U_23
As1 As5+ 0.00551(13) 0.00631(14) 0.00645(13) 0.00067(11) -0.00029(10)
-0.00017(11)
As2 As5+ 0.00609(13) 0.00599(14) 0.00564(13) -0.00119(11) -0.00081(10)
0.00025(11)
Na1 Na1+ 0.0087(6) 0.0086(5) 0.0099(6) 0.0004(4) -0.0002(4) 0.0003(4)
Na2 Na1+ 0.0161(6) 0.0132(6) 0.0106(6) 0.0027(5) -0.0038(5) -0.0001(5)
O1 O2- 0.0101(10) 0.0078(10) 0.0141(11) -0.0005(8) -0.0031(8) -0.0037(8)
O2 O2- 0.0077(10) 0.0068(9) 0.0147(11) 0.0005(8) -0.0044(8) 0.0006(8)
O3 O2- 0.0062(10) 0.0094(9) 0.0078(10) 0.0016(7) 0.0007(7) -0.0011(7)
O4 O2- 0.0150(11) 0.0112(10) 0.0114(11) 0.0040(9) 0.0059(9) 0.0033(8)
O5 O2- 0.0105(10) 0.0064(10) 0.0163(11) -0.0006(8) -0.0054(9) 0.0012(8)
O6 O2- 0.0101(10) 0.0110(10) 0.0083(10) -0.0033(8) 0.0012(8) -0.0034(8)
O7 O2- 0.0122(10) 0.0091(9) 0.0070(9) -0.0034(9) 0.0038(7) -0.0008(8)
O8 O2- 0.0058(9) 0.0078(9) 0.0108(10) -0.0011(7) -0.0013(7) 0.0011(8)
#End of TTdata_244128-ICSD