
#(C) 2019 by FIZ Karlsruhe - Leibniz Institute for Information Infrastructure.  All rights reserved.
data_244325-ICSD
_database_code_ICSD 244325
_audit_creation_date 2018-02-01
_chemical_name_systematic 'Polyoxoniobate - Nb114 nanocluster'
_chemical_formula_structural 'Li8 Na28 K16 Nb114 O331'
_chemical_formula_sum 'K16 Li8 Na28 Nb114 O331'
_exptl_crystal_density_diffrn 1.92
_cell_measurement_temperature 296.
_publ_section_title

;
Record high-nuclearity polyoxoniobates. Discrete nanoclusters Nb114, Nb81, and
Nb52, and extended frameworks based on Cu3Nb78 and Cu4Nb78
;
loop_
_citation_id
_citation_journal_full
_citation_year
_citation_journal_volume
_citation_page_first
_citation_page_last
_citation_journal_id_ASTM
primary 'Angewandte Chemie, International Edition' 2017 56 16288 16292 ACIEF5
loop_
_publ_author_name
'Jin, Lu'
'Zhu, Zeng-Kui'
'Wu, Yan-Lan'
'Qi, Yan-Jie'
'Li, Xin-Xiong'
'Zheng, Shou-Tian'
_cell_length_a 39.3436(16)
_cell_length_b 39.3436(16)
_cell_length_c 38.447(3)
_cell_angle_alpha 90
_cell_angle_beta 90
_cell_angle_gamma 90
_cell_volume 59512.83
_cell_formula_units_Z 4
_symmetry_space_group_name_H-M 'P 42/n b c Z'
_symmetry_Int_Tables_number 133
_refine_ls_R_factor_all 0.097
loop_
_symmetry_equiv_pos_site_id
_symmetry_equiv_pos_as_xyz
1 'y, x, -z+1/2'
2 '-y, x+1/2, -z+1/2'
3 'y+1/2, -x, -z+1/2'
4 '-y+1/2, -x+1/2, -z+1/2'
5 'x+1/2, y+1/2, -z'
6 '-x+1/2, y, -z'
7 'x, -y+1/2, -z'
8 '-x, -y, -z'
9 '-y, -x, z+1/2'
10 'y, -x+1/2, z+1/2'
11 '-y+1/2, x, z+1/2'
12 'y+1/2, x+1/2, z+1/2'
13 '-x+1/2, -y+1/2, z'
14 'x+1/2, -y, z'
15 '-x, y+1/2, z'
16 'x, y, z'
loop_
_atom_type_symbol
_atom_type_oxidation_number
Nb5+ 5
K1+ 1
Na1+ 1
Li1+ 1
O2- -2
loop_
_atom_site_label
_atom_site_type_symbol
_atom_site_symmetry_multiplicity
_atom_site_Wyckoff_symbol
_atom_site_fract_x
_atom_site_fract_y
_atom_site_fract_z
_atom_site_B_iso_or_equiv
_atom_site_occupancy
_atom_site_attached_hydrogens
Nb1 Nb5+ 16 k 0.72640(3) 0.15900(3) 0.17768(3) 0.0282(3) 1 0
Nb2 Nb5+ 16 k 0.81007(3) 0.19908(3) 0.17087(3) 0.0291(3) 1 0
Nb3 Nb5+ 16 k 0.67232(3) 0.16122(3) 0.24043(3) 0.0310(3) 1 0
Nb4 Nb5+ 16 k 0.70448(4) 0.13235(3) 0.08786(3) 0.0329(3) 1 0
Nb5 Nb5+ 16 k 0.66188(3) 0.21258(3) 0.17666(3) 0.0306(3) 1 0
Nb6 Nb5+ 8 g 0.75 0.25 0.18426(4) 0.0259(4) 1 0
Nb7 Nb5+ 16 k 0.63950(4) 0.18671(4) 0.08640(3) 0.0347(3) 1 0
Nb8 Nb5+ 16 k 0.65876(4) 0.06700(4) 0.22729(3) 0.0398(4) 1 0
Nb9 Nb5+ 16 k 0.69205(4) 0.04815(4) 0.08129(4) 0.0444(4) 1 0
Nb10 Nb5+ 16 k 0.57267(4) 0.18461(4) 0.16162(4) 0.0416(4) 1 0
Nb11 Nb5+ 16 k 0.58243(4) 0.12963(4) 0.22666(4) 0.0444(4) 1 0
Nb12 Nb5+ 16 k 0.55942(4) 0.15770(4) 0.07993(4) 0.0488(4) 1 0
Nb13 Nb5+ 16 k 0.71521(4) 0.06607(4) 0.16312(3) 0.0383(4) 1 0
Nb14 Nb5+ 16 k 0.57752(4) 0.04529(4) 0.21167(4) 0.0518(4) 1 0
Nb15 Nb5+ 16 k 0.60066(4) 0.13858(4) 0.00506(4) 0.0479(4) 1 0
Nb16 Nb5+ 16 k 0.68305(5) -0.02300(4) 0.12951(4) 0.0559(5) 1 0
Nb17 Nb5+ 16 k 0.51894(5) 0.09658(5) 0.04089(5) 0.0635(5) 1 0
Nb18 Nb5+ 16 k 0.49131(4) 0.13494(5) 0.12846(5) 0.0608(5) 1 0
Nb19 Nb5+ 16 k 0.58817(5) 0.05662(5) -0.01026(4) 0.0611(5) 1 0
Nb20 Nb5+ 16 k 0.64053(5) -0.00367(4) 0.04132(4) 0.0594(5) 1 0
Nb21 Nb5+ 16 k 0.50076(5) 0.07987(5) 0.19348(5) 0.0634(5) 1 0
Nb22 Nb5+ 16 k 0.66604(5) 0.08430(4) 0.00577(4) 0.0489(4) 1 0
Nb23 Nb5+ 16 k 0.62415(6) 0.10122(5) 0.07993(5) 0.0731(6) 1 0
Nb24 Nb5+ 16 k 0.62685(5) -0.02348(4) 0.19449(4) 0.0594(5) 1 0
Nb25 Nb5+ 16 k 0.53615(5) -0.00643(5) 0.16050(5) 0.0685(6) 1 0
Nb26 Nb5+ 16 k 0.47750(5) 0.05241(6) 0.11507(5) 0.0738(6) 1 0
Nb27 Nb5+ 16 k 0.60544(6) -0.05252(5) 0.11610(5) 0.0713(6) 1 0
Nb28 Nb5+ 16 k 0.56775(7) 0.09941(6) 0.14503(6) 0.0879(7) 1 0
Nb29 Nb5+ 16 k 0.63273(7) 0.04534(6) 0.14570(6) 0.0909(8) 1 0
K1 K1+ 8 j 0.49823(14) 0.00177(14) 0.25 0.0724(18) 1 0
K2 K1+ 8 i 0.75 0.02972(16) 0. 0.0735(19) 1 0
K3 K1+ 16 k 0.78488(14) 0.08017(13) 0.08805(12) 0.0736(13) 1 0
K4 K1+ 16 k 0.4548(3) -0.0591(3) 0.1829(3) 0.096(4) 0.5 0
K5 K1+ 16 k 0.74894(18) 0.10500(15) 0.25740(17) 0.106(2) 1 0
K6 K1+ 8 i 0.75 0.1274(2) 0. 0.101(3) 1 0
Na1 Na1+ 16 k 0.4015(5) -0.0825(6) 0.1764(7) 0.110(7) 0.5 0
Na2 Na1+ 16 k 0.54592(19) 0.00392(19) 0.0620(2) 0.067(2) 1 0
Na3 Na1+ 16 k 0.7759(2) 0.2758(2) 0.0960(2) 0.072(2) 1 0
Na4 Na1+ 16 k 0.7799(4) 0.1855(4) 0.0803(3) 0.060(4) 0.5 0
Na5 Na1+ 16 k 0.7070(4) 0.1745(4) -0.0022(3) 0.056(4) 0.5 0
Na6 Na1+ 16 k 0.6665(8) 0.0301(7) -0.0821(6) 0.145(12) 0.5 0
Na7 Na1+ 16 k 0.5163(4) -0.0895(4) 0.1118(4) 0.073(5) 0.5 0
Na8 Na1+ 16 k 0.5214(5) -0.0850(4) 0.2177(5) 0.078(5) 0.5 0
Na9 Na1+ 16 k 0.8352(8) 0.1306(6) 0.0783(7) 0.134(9) 0.5 0
Na10 Na1+ 16 k 0.4373(5) -0.0012(5) 0.1948(5) 0.086(5) 0.5 0
Na11 Na1+ 16 k 0.8021(4) 0.1025(4) 0.2075(6) 0.092(7) 0.5 0
Na12 Na1+ 16 k 0.8967(4) 0.1528(5) 0.1813(4) 0.076(5) 0.5 0
Li1 Li1+ 16 k 0.6475(5) 0.1279(5) 0.1590(5) 0.02 1 0
Li2 Li1+ 16 k 0.7532(4) 0.1924(4) 0.2499(4) 0.003(3) 1 0
O1 O2- 16 k 0.5003(4) 0.0618(4) 0.0718(3) 0.069(4) 1 0
O2 O2- 16 k 0.4842(3) 0.0768(4) 0.2372(4) 0.080(4) 1 0
O3 O2- 16 k 0.4412(4) 0.0317(4) 0.1018(5) 0.098(6) 1 0
O4 O2- 16 k 0.5900(4) -0.0923(3) 0.1020(4) 0.092(5) 1 0
O5 O2- 16 k 0.4867(4) 0.1062(4) 0.0102(4) 0.089(5) 1 0
O6 O2- 16 k 0.6030(4) 0.0180(3) 0.0197(4) 0.078(4) 1 0
O7 O2- 16 k 0.7262(2) 0.1115(2) 0.1795(2) 0.028(2) 1 0
O8 O2- 16 k 0.6662(2) 0.2089(2) 0.2291(2) 0.026(2) 1 0
O9 O2- 16 k 0.6745(2) 0.1098(3) 0.2379(2) 0.034(2) 1 0
O10 O2- 16 k 0.8392(2) 0.2411(2) 0.1785(2) 0.033(2) 1 0
O11 O2- 16 k 0.6589(3) 0.0798(3) 0.1685(2) 0.044(3) 1 0
O12 O2- 16 k 0.7091(3) 0.0866(3) 0.1143(2) 0.038(2) 1 0
O13 O2- 16 k 0.5698(4) 0.0344(3) -0.0461(3) 0.075(4) 1 0
O14 O2- 16 k 0.6099(5) -0.0605(3) 0.1679(4) 0.091(5) 1 0
O15 O2- 16 k 0.6731(2) 0.1616(2) 0.1833(3) 0.033(2) 1 0
O16 O2- 16 k 0.6482(3) 0.1308(3) -0.0049(3) 0.052(3) 1 0
O17 O2- 16 k 0.7012(3) 0.0481(3) 0.2075(3) 0.044(3) 1 0
O18 O2- 16 k 0.5076(4) 0.0150(4) 0.1265(4) 0.077(4) 1 0
O19 O2- 16 k 0.5480(3) 0.0644(4) 0.0183(4) 0.074(4) 1 0
O20 O2- 16 k 0.7215(2) 0.1622(2) 0.2296(2) 0.027(2) 1 0
O21 O2- 16 k 0.7732(2) 0.1642(2) 0.1786(2) 0.029(2) 1 0
O22 O2- 16 k 0.7198(2) 0.1565(3) 0.1276(2) 0.034(2) 1 0
O23 O2- 16 k 0.5950(2) 0.1816(3) 0.1127(3) 0.037(2) 1 0
O24 O2- 16 k 0.5669(3) 0.0338(3) 0.2551(4) 0.068(4) 1 0
O25 O2- 16 k 0.6905(3) 0.0298(3) 0.1335(3) 0.046(3) 1 0
O26 O2- 16 k 0.6294(3) -0.0024(3) 0.1376(2) 0.044(3) 1 0
O27 O2- 16 k 0.6561(4) -0.0322(3) 0.0126(3) 0.073(4) 1 0
O28 O2- 16 k 0.6137(3) 0.0882(3) 0.0326(3) 0.046(3) 1 0
O29 O2- 16 k 0.8346(2) 0.1765(2) 0.2121(2) 0.026(2) 1 0
O30 O2- 16 k 0.5508(3) 0.0927(3) 0.2019(3) 0.059(3) 1 0
O31 O2- 16 k 0.5119(4) -0.0381(4) 0.1804(3) 0.081(5) 1 0
O32 O2- 16 k 0.6821(3) 0.1719(3) 0.0655(3) 0.038(2) 1 0
O33 O2- 16 k 0.4681(3) 0.0561(3) 0.1662(4) 0.071(4) 1 0
O34 O2- 16 k 0.5823(3) 0.1055(3) -0.0265(3) 0.061(3) 1 0
O35 O2- 16 k 0.7168(2) 0.2116(2) 0.1761(2) 0.025(2) 1 0
O36 O2- 16 k 0.5970(3) 0.1314(3) 0.1683(3) 0.044(3) 1 0
O37 O2- 16 k 0.7411(3) 0.1318(2) 0.0614(3) 0.040(3) 1 0
O38 O2- 16 k 0.6367(3) 0.0611(3) -0.0259(3) 0.048(3) 1 0
O39 O2- 16 k 0.5475(3) 0.2214(3) 0.1583(3) 0.052(3) 1 0
O40 O2- 16 k 0.5637(4) -0.0298(3) 0.1243(4) 0.075(4) 1 0
O41 O2- 16 k 0.6114(5) -0.0276(3) 0.0707(3) 0.080(5) 1 0
O42 O2- 16 k 0.6540(4) -0.0607(3) 0.1150(3) 0.077(5) 1 0
O43 O2- 16 k 0.6104(3) 0.0853(3) 0.2254(2) 0.041(3) 1 0
O44 O2- 16 k 0.5609(3) 0.1289(4) 0.2677(3) 0.075(4) 1 0
O45 O2- 16 k 0.6136(3) 0.2046(3) 0.1787(3) 0.044(3) 1 0
O46 O2- 16 k 0.7247(4) -0.0382(3) 0.1257(3) 0.057(3) 1 0
O47 O2- 16 k 0.6224(3) 0.1526(2) 0.2379(2) 0.038(2) 1 0
O48 O2- 16 k 0.7319(3) 0.0408(3) 0.0667(3) 0.055(3) 1 0
O49 O2- 16 k 0.6747(4) -0.0016(3) 0.0804(3) 0.064(4) 1 0
O50 O2- 16 k 0.6314(3) 0.2243(3) 0.0609(3) 0.049(3) 1 0
O51 O2- 16 k 0.7056(3) 0.0849(3) -0.0137(3) 0.050(3) 1 0
O52 O2- 16 k 0.6686(4) 0.0388(3) 0.0328(2) 0.054(3) 1 0
O53 O2- 16 k 0.6599(3) 0.2071(3) 0.1257(2) 0.038(3) 1 0
O54 O2- 16 k 0.6603(3) 0.0485(3) 0.2695(3) 0.065(4) 1 0
O55 O2- 16 k 0.5575(3) 0.1686(3) 0.2070(3) 0.049(3) 1 0
O56 O2- 16 k 0.6504(3) 0.1324(3) 0.1090(3) 0.043(3) 1 0
O57 O2- 16 k 0.6274(4) -0.0403(3) 0.2357(4) 0.073(4) 1 0
O58 O2- 16 k 0.7776(2) 0.2270(2) 0.2153(2) 0.025(2) 1 0
O59 O2- 16 k 0.8326(3) 0.1787(3) 0.1372(3) 0.041(3) 1 0
O60 O2- 16 k 0.5436(3) 0.1970(4) 0.0641(3) 0.071(4) 1 0
O61 O2- 16 k 0.7570(3) 0.0495(3) 0.1593(3) 0.061(3) 1 0
O62 O2- 16 k 0.4605(3) 0.1008(4) 0.1137(4) 0.071(4) 1 0
O63 O2- 16 k 0.5557(3) 0.1318(4) 0.0329(3) 0.073(4) 1 0
O64 O2- 16 k 0.6373(3) 0.0591(3) 0.0990(3) 0.046(3) 1 0
O65 O2- 16 k 0.6783(3) 0.0966(3) 0.0561(2) 0.049(3) 1 0
O66 O2- 16 k 0.5764(3) -0.0042(3) 0.1923(3) 0.056(3) 1 0
O67 O2- 16 k 0.5807(3) 0.1047(3) 0.0971(3) 0.049(3) 1 0
O68 O2- 16 k 0.5933(4) 0.1778(3) -0.0176(3) 0.061(3) 1 0
O69 O2- 16 k 0.5880(3) 0.0570(3) 0.1533(3) 0.051(3) 1 0
O70 O2- 16 k 0.5225(3) 0.0857(3) 0.1382(3) 0.062(4) 1 0
O71 O2- 16 k 0.5290(3) 0.0343(3) 0.1912(3) 0.065(4) 1 0
O72 O2- 16 k 0.6750(3) -0.0276(3) 0.1791(3) 0.064(3) 1 0
O73 O2- 16 k 0.7777(3) 0.2257(3) 0.1459(2) 0.038(2) 1 0
O74 O2- 16 k 0.6101(3) 0.1552(3) 0.0563(3) 0.050(3) 1 0
O75 O2- 16 k 0.4875(3) 0.1256(4) 0.1791(3) 0.068(4) 1 0
O76 O2- 16 k 0.6285(3) 0.0275(3) 0.2037(3) 0.065(4) 1 0
O77 O2- 16 k 0.5134(3) 0.1305(3) 0.0807(4) 0.067(4) 1 0
O78 O2- 16 k 0.4671(3) 0.1743(4) 0.1253(4) 0.068(4) 1 0
O79 O2- 16 k 0.5413(3) 0.1538(3) 0.1327(3) 0.057(3) 1 0
O80 O2- 16 k 0.4578(6) -0.0481(6) 0.1171(6) 0.056(6) 0.5 0
O81 O2- 8 j 0.5485(4) -0.0485(4) 0.25 0.086(6) 1 0
O82 O2- 16 k 0.4817(7) -0.1139(7) 0.1857(7) 0.061(7) 0.5 0
O83 O2- 16 k 0.3685(10) -0.0581(10) 0.1318(10) 0.107(11) 0.5 0
O84 O2- 16 k 0.6162(11) 0.0762(11) -0.1011(12) 0.123(13) 0.5 0
O85 O2- 16 k 0.8305(14) 0.1039(14) 0.1393(14) 0.164(19) 0.5 0
O86 O2- 16 k 0.7001(14) 0.0018(14) -0.0289(15) 0.071(15) 0.25 0
O87 O2- 16 k 0.5214(12) -0.0988(12) 0.0510(12) 0.141(16) 0.5 0
loop_
_atom_site_aniso_label
_atom_site_aniso_type_symbol
_atom_site_aniso_U_11
_atom_site_aniso_U_22
_atom_site_aniso_U_33
_atom_site_aniso_U_12
_atom_site_aniso_U_13
_atom_site_aniso_U_23
Nb1 Nb5+ 0.0363(7) 0.0342(7) 0.0140(6) -0.0048(6) -0.0004(5) 0.0008(5)
Nb2 Nb5+ 0.0385(8) 0.0355(7) 0.0134(6) -0.0017(6) 0.0029(5) -0.0039(5)
Nb3 Nb5+ 0.0376(8) 0.0395(8) 0.0159(6) -0.0056(6) 0.0023(5) -0.0007(5)
Nb4 Nb5+ 0.0459(8) 0.0326(7) 0.0202(7) -0.0107(6) -0.0024(6) -0.0028(5)
Nb5 Nb5+ 0.0356(8) 0.0372(8) 0.0189(6) -0.0036(6) 0.0015(5) 0.0009(5)
Nb6 Nb5+ 0.0307(10) 0.0340(10) 0.0129(8) -0.0059(8) 0. 0.
Nb7 Nb5+ 0.0420(8) 0.0377(8) 0.0243(7) -0.0090(6) -0.0070(6) -0.0015(6)
Nb8 Nb5+ 0.0527(9) 0.0399(8) 0.0267(7) -0.0161(7) 0.0014(6) 0.0063(6)
Nb9 Nb5+ 0.0740(11) 0.0346(8) 0.0245(7) -0.0116(7) 0.0007(7) -0.0021(6)
Nb10 Nb5+ 0.0380(8) 0.0515(9) 0.0354(8) -0.0091(7) -0.0021(6) 0.0001(7)
Nb11 Nb5+ 0.0444(9) 0.0573(10) 0.0313(8) -0.0155(7) 0.0028(6) 0.0016(7)
Nb12 Nb5+ 0.0479(9) 0.0597(10) 0.0387(8) -0.0170(8) -0.0116(7) -0.0030(7)
Nb13 Nb5+ 0.0552(9) 0.0350(8) 0.0246(7) -0.0097(7) 0.0009(6) 0.0015(6)
Nb14 Nb5+ 0.0594(10) 0.0575(10) 0.0384(9) -0.0285(8) 0.0006(7) 0.0062(7)
Nb15 Nb5+ 0.0606(10) 0.0522(10) 0.0307(8) -0.0166(8) -0.0129(7) -0.0018(7)
Nb16 Nb5+ 0.0936(14) 0.0363(9) 0.0377(9) -0.0160(9) 0.0009(9) 0.0039(7)
Nb17 Nb5+ 0.0637(12) 0.0773(13) 0.0495(10) -0.0329(10) -0.0194(9) -0.0006(9)
Nb18 Nb5+ 0.0433(10) 0.0842(13) 0.0548(10) -0.0230(9) -0.0078(8) 0.0026(9)
Nb19 Nb5+ 0.0861(13) 0.0593(11) 0.0377(9) -0.0256(10) -0.0150(9) -0.0100(8)
Nb20 Nb5+ 0.0958(14) 0.0422(9) 0.0401(9) -0.0240(9) -0.0040(9) -0.0061(7)
Nb21 Nb5+ 0.0544(11) 0.0785(13) 0.0574(11) -0.0278(10) 0.0026(8) 0.0058(9)
Nb22 Nb5+ 0.0746(11) 0.0434(9) 0.0287(8) -0.0161(8) -0.0020(7) -0.0027(6)
Nb23 Nb5+ 0.1002(16) 0.0716(13) 0.0475(10) -0.0308(11) -0.0075(10) -0.0001(9)
Nb24 Nb5+ 0.0869(13) 0.0478(10) 0.0434(9) -0.0241(9) 0.0081(9) 0.0085(8)
Nb25 Nb5+ 0.0816(14) 0.0685(12) 0.0555(11) -0.0431(11) 0.0007(10) 0.0053(9)
Nb26 Nb5+ 0.0643(12) 0.0876(15) 0.0695(12) -0.0451(11) -0.0111(10) 0.0033(11)
Nb27 Nb5+ 0.1093(17) 0.0476(11) 0.0570(11) -0.0392(11) 0.0008(11) -0.0044(8)
Nb28 Nb5+ 0.0950(17) 0.0917(16) 0.0771(15) -0.0230(13) -0.0053(12) -0.0069(12)
Nb29 Nb5+ 0.118(2) 0.0811(15) 0.0735(14) -0.0324(14) -0.0134(13) 0.0048(12)
K1 K1+ 0.080(3) 0.080(3) 0.057(4) -0.029(4) 0.013(2) 0.013(2)
K2 K1+ 0.116(6) 0.053(4) 0.051(3) 0. -0.007(4) 0.
K3 K1+ 0.087(3) 0.079(3) 0.055(3) -0.003(3) -0.001(2) -0.007(2)
K4 K1+ 0.110(9) 0.099(8) 0.080(7) -0.043(7) 0.003(6) 0.002(6)
K5 K1+ 0.132(5) 0.082(4) 0.102(4) -0.006(4) -0.058(4) 0.003(3)
K6 K1+ 0.120(7) 0.115(7) 0.068(5) 0. -0.017(5) 0.
Na1 Na1+ 0.073(13) 0.129(18) 0.129(18) -0.015(12) 0.001(12) 0.043(15)
Na2 Na1+ 0.066(5) 0.057(4) 0.078(5) -0.024(4) 0.008(4) 0.023(4)
Na3 Na1+ 0.062(5) 0.083(6) 0.071(5) -0.019(4) 0.005(4) 0.048(4)
Na4 Na1+ 0.087(11) 0.060(9) 0.032(7) -0.024(8) 0.003(7) -0.019(6)
Na5 Na1+ 0.076(10) 0.058(8) 0.036(7) 0.000(7) -0.003(7) 0.009(6)
Na6 Na1+ 0.17(2) 0.16(2) 0.096(15) -0.11(2) 0.021(15) -0.050(15)
Na7 Na1+ 0.078(11) 0.079(11) 0.063(9) -0.049(9) -0.020(8) -0.006(8)
Na8 Na1+ 0.090(12) 0.057(10) 0.086(12) -0.023(9) 0.002(10) 0.007(9)
Na9 Na1+ 0.18(3) 0.081(15) 0.14(2) -0.028(15) -0.035(19) -0.014(14)
Na10 Na1+ 0.098(14) 0.092(13) 0.070(11) -0.029(11) 0.006(10) -0.014(10)
Na11 Na1+ 0.052(9) 0.041(8) 0.18(2) -0.006(7) -0.056(11) -0.013(10)
Na12 Na1+ 0.060(10) 0.100(13) 0.070(10) 0.013(9) 0.003(8) -0.008(9)
O1 O2- 0.070(9) 0.080(10) 0.055(8) -0.039(7) -0.009(7) -0.003(7)
O2 O2- 0.057(9) 0.123(13) 0.060(8) -0.030(8) 0.005(7) 0.007(8)
O3 O2- 0.098(12) 0.093(12) 0.104(12) -0.053(10) -0.039(10) -0.017(10)
O4 O2- 0.126(14) 0.049(8) 0.103(12) -0.055(9) -0.009(10) 0.000(8)
O5 O2- 0.060(9) 0.115(13) 0.092(11) -0.045(9) -0.041(8) 0.005(9)
O6 O2- 0.113(12) 0.038(7) 0.083(10) -0.023(8) -0.013(9) -0.003(7)
O7 O2- 0.029(5) 0.040(6) 0.016(4) 0.004(4) -0.001(4) -0.010(4)
O8 O2- 0.024(5) 0.039(6) 0.016(4) 0.004(4) 0.006(4) -0.014(4)
O9 O2- 0.039(6) 0.046(6) 0.018(5) 0.010(5) 0.012(4) 0.021(4)
O10 O2- 0.034(6) 0.035(6) 0.030(5) 0.000(4) 0.014(4) -0.010(4)
O11 O2- 0.035(6) 0.080(8) 0.015(5) 0.000(6) 0.008(4) 0.014(5)
O12 O2- 0.053(7) 0.048(6) 0.012(4) -0.012(5) 0.003(4) 0.009(4)
O13 O2- 0.110(11) 0.069(9) 0.046(7) -0.031(8) -0.032(7) -0.027(7)
O14 O2- 0.163(16) 0.045(8) 0.065(9) -0.046(9) 0.019(10) -0.013(7)
O15 O2- 0.032(5) 0.031(5) 0.036(6) -0.015(4) -0.007(4) -0.002(4)
O16 O2- 0.059(7) 0.074(8) 0.025(6) -0.034(6) -0.012(5) 0.012(5)
O17 O2- 0.060(7) 0.032(6) 0.040(6) 0.011(5) 0.019(5) 0.020(5)
O18 O2- 0.083(10) 0.082(10) 0.066(9) -0.062(8) -0.016(8) -0.001(7)
O19 O2- 0.064(9) 0.102(11) 0.057(8) -0.034(8) 0.001(7) -0.014(8)
O20 O2- 0.033(5) 0.036(5) 0.012(4) 0.011(4) -0.005(4) -0.001(4)
O21 O2- 0.044(6) 0.027(5) 0.017(5) -0.002(4) -0.003(4) 0.003(4)
O22 O2- 0.029(5) 0.050(6) 0.023(5) -0.013(5) -0.014(4) 0.017(4)
O23 O2- 0.029(5) 0.042(6) 0.040(6) -0.010(5) -0.008(5) -0.002(5)
O24 O2- 0.064(8) 0.059(8) 0.083(10) -0.033(7) -0.001(7) 0.026(7)
O25 O2- 0.075(8) 0.030(6) 0.033(6) -0.028(5) 0.000(5) -0.011(5)
O26 O2- 0.082(8) 0.032(6) 0.017(5) -0.033(6) -0.013(5) 0.006(4)
O27 O2- 0.155(14) 0.044(7) 0.021(6) -0.015(8) -0.004(7) -0.013(5)
O28 O2- 0.071(8) 0.031(6) 0.036(6) -0.018(5) -0.019(6) 0.000(5)
O29 O2- 0.038(5) 0.027(5) 0.012(4) -0.005(4) 0.004(4) 0.001(4)
O30 O2- 0.063(8) 0.056(8) 0.059(7) -0.026(6) 0.014(6) 0.036(6)
O31 O2- 0.099(11) 0.099(11) 0.046(7) -0.054(9) 0.003(7) 0.019(7)
O32 O2- 0.046(4) 0.038(4) 0.030(4) -0.014(4) 0.002(3) -0.011(3)
O33 O2- 0.055(8) 0.063(8) 0.095(10) -0.047(7) -0.018(7) 0.005(7)
O34 O2- 0.063(5) 0.065(5) 0.053(5) -0.005(4) -0.015(4) -0.013(4)
O35 O2- 0.026(4) 0.029(4) 0.020(4) 0.002(3) 0.008(3) 0.004(3)
O36 O2- 0.047(7) 0.047(7) 0.037(6) -0.001(5) 0.005(5) 0.001(5)
O37 O2- 0.062(7) 0.023(5) 0.034(6) -0.003(5) -0.011(5) -0.002(4)
O38 O2- 0.052(5) 0.048(4) 0.043(4) -0.016(4) -0.010(4) -0.011(4)
O39 O2- 0.049(7) 0.063(8) 0.045(6) 0.024(6) -0.010(5) -0.006(6)
O40 O2- 0.098(11) 0.064(9) 0.065(9) -0.043(8) -0.015(8) -0.003(7)
O41 O2- 0.163(15) 0.041(7) 0.035(7) -0.039(8) 0.002(8) -0.007(6)
O42 O2- 0.151(14) 0.031(7) 0.050(8) -0.037(8) 0.023(8) -0.008(6)
O43 O2- 0.057(7) 0.044(6) 0.022(5) -0.012(5) -0.002(5) -0.002(5)
O44 O2- 0.056(8) 0.118(12) 0.050(8) -0.007(8) 0.016(6) 0.017(8)
O45 O2- 0.031(6) 0.055(7) 0.047(6) -0.011(5) -0.001(5) 0.001(5)
O46 O2- 0.105(10) 0.030(6) 0.037(6) 0.009(6) 0.004(6) 0.004(5)
O47 O2- 0.051(7) 0.031(5) 0.032(5) -0.014(5) 0.018(5) -0.005(4)
O48 O2- 0.078(9) 0.042(7) 0.043(6) -0.008(6) 0.008(6) -0.018(5)
O49 O2- 0.098(10) 0.037(7) 0.056(7) -0.025(7) -0.009(7) -0.025(6)
O50 O2- 0.046(7) 0.047(7) 0.052(7) -0.005(5) -0.007(5) 0.005(6)
O51 O2- 0.075(8) 0.037(6) 0.039(6) -0.022(6) 0.014(6) -0.011(5)
O52 O2- 0.110(10) 0.042(7) 0.011(5) 0.009(7) -0.003(6) -0.005(4)
O53 O2- 0.056(7) 0.051(6) 0.008(4) -0.018(5) 0.001(4) 0.007(4)
O54 O2- 0.071(9) 0.069(9) 0.055(8) -0.010(7) -0.011(7) 0.021(7)
O55 O2- 0.038(6) 0.067(8) 0.041(6) -0.001(6) 0.005(5) 0.001(6)
O56 O2- 0.060(7) 0.035(6) 0.034(6) -0.018(5) -0.001(5) -0.003(5)
O57 O2- 0.087(10) 0.061(9) 0.072(9) -0.023(7) 0.009(8) 0.017(7)
O58 O2- 0.019(5) 0.023(5) 0.033(5) 0.002(4) -0.013(4) 0.005(4)
O59 O2- 0.045(6) 0.047(6) 0.032(6) 0.009(5) 0.009(5) -0.001(5)
O60 O2- 0.062(8) 0.114(12) 0.037(7) -0.007(8) -0.019(6) -0.017(7)
O61 O2- 0.080(9) 0.040(7) 0.064(8) -0.006(6) 0.004(7) -0.004(6)
O62 O2- 0.039(7) 0.088(10) 0.087(10) -0.021(7) -0.023(7) 0.009(8)
O63 O2- 0.062(8) 0.114(12) 0.043(7) -0.032(8) -0.012(6) -0.027(7)
O64 O2- 0.054(5) 0.042(4) 0.041(4) -0.001(4) -0.008(4) -0.012(4)
O65 O2- 0.075(8) 0.055(7) 0.016(5) -0.023(6) -0.014(5) -0.001(5)
O66 O2- 0.072(8) 0.046(7) 0.051(7) -0.029(6) 0.007(6) 0.014(6)
O67 O2- 0.047(4) 0.049(5) 0.049(4) -0.008(4) -0.006(4) -0.006(4)
O68 O2- 0.096(10) 0.052(7) 0.034(6) 0.000(7) -0.032(6) -0.009(5)
O69 O2- 0.075(8) 0.051(7) 0.026(5) -0.035(6) -0.004(5) 0.005(5)
O70 O2- 0.076(9) 0.070(9) 0.040(7) -0.040(7) -0.002(6) -0.002(6)
O71 O2- 0.069(9) 0.064(8) 0.063(8) -0.034(7) 0.008(7) 0.012(7)
O72 O2- 0.074(9) 0.066(8) 0.053(7) 0.000(7) -0.025(7) 0.005(6)
O73 O2- 0.042(6) 0.050(7) 0.022(5) 0.002(5) -0.004(4) -0.001(5)
O74 O2- 0.032(6) 0.065(8) 0.052(7) -0.025(5) -0.010(5) 0.001(6)
O75 O2- 0.030(6) 0.135(13) 0.039(7) -0.019(7) 0.007(5) -0.004(7)
O76 O2- 0.069(9) 0.068(9) 0.059(8) -0.019(7) -0.006(7) 0.011(7)
O77 O2- 0.051(8) 0.056(8) 0.095(10) 0.002(6) -0.024(7) -0.024(7)
O78 O2- 0.033(7) 0.098(10) 0.073(9) -0.019(7) -0.010(6) 0.033(8)
O79 O2- 0.053(7) 0.065(8) 0.054(7) -0.022(6) -0.004(6) 0.003(6)
#End of TTdata_244325-ICSD