
#(C) 2019 by FIZ Karlsruhe - Leibniz Institute for Information Infrastructure.  All rights reserved.
data_244326-ICSD
_database_code_ICSD 244326
_audit_creation_date 2018-02-01
_chemical_name_systematic 'Polyoxoniobate - nanocluster Nb52'
_chemical_formula_structural 'Cs4 K22 Na6 Nb52 O213'
_chemical_formula_sum 'Cs4 K22 Na6 Nb52 O213'
_exptl_crystal_density_diffrn 2.99
_cell_measurement_temperature 296.
_publ_section_title

;
Record high-nuclearity polyoxoniobates. Discrete nanoclusters Nb114, Nb81, and
Nb52, and extended frameworks based on Cu3Nb78 and Cu4Nb78
;
loop_
_citation_id
_citation_journal_full
_citation_year
_citation_journal_volume
_citation_page_first
_citation_page_last
_citation_journal_id_ASTM
primary 'Angewandte Chemie, International Edition' 2017 56 16288 16292 ACIEF5
loop_
_publ_author_name
'Jin, Lu'
'Zhu, Zeng-Kui'
'Wu, Yan-Lan'
'Qi, Yan-Jie'
'Li, Xin-Xiong'
'Zheng, Shou-Tian'
_cell_length_a 16.109(2)
_cell_length_b 25.476(3)
_cell_length_c 27.163(3)
_cell_angle_alpha 100.699(2)
_cell_angle_beta 96.451(2)
_cell_angle_gamma 92.925(2)
_cell_volume 10854.81
_cell_formula_units_Z 2
_symmetry_space_group_name_H-M 'P -1'
_symmetry_Int_Tables_number 2
_refine_ls_R_factor_all 0.052
loop_
_symmetry_equiv_pos_site_id
_symmetry_equiv_pos_as_xyz
1 '-x, -y, -z'
2 'x, y, z'
loop_
_atom_type_symbol
_atom_type_oxidation_number
Nb5+ 5
Cs1+ 1
K1+ 1
Na1+ 1
O2- -2
loop_
_atom_site_label
_atom_site_type_symbol
_atom_site_symmetry_multiplicity
_atom_site_Wyckoff_symbol
_atom_site_fract_x
_atom_site_fract_y
_atom_site_fract_z
_atom_site_B_iso_or_equiv
_atom_site_occupancy
_atom_site_attached_hydrogens
Nb1 Nb5+ 2 i 0.47244(7) 0.31738(4) 0.44750(4) 0.0155(2) 1 0
Nb2 Nb5+ 2 i 0.74123(6) 0.32747(4) 0.15226(3) 0.00810(19) 1 0
Nb3 Nb5+ 2 i 0.78189(6) 0.13831(4) 0.26689(4) 0.0104(2) 1 0
Nb4 Nb5+ 2 i 0.99593(6) 0.34954(4) 0.28465(4) 0.0102(2) 1 0
Nb5 Nb5+ 2 i 0.62460(6) 0.59907(4) 0.23044(4) 0.00834(19) 1 0
Nb6 Nb5+ 2 i 0.79370(6) 0.41360(4) 0.25728(3) 0.00727(19) 1 0
Nb7 Nb5+ 2 i 1.01999(6) 0.59153(4) 0.19221(4) 0.0099(2) 1 0
Nb8 Nb5+ 2 i 0.62098(6) 0.84794(4) 0.15293(4) 0.0106(2) 1 0
Nb9 Nb5+ 2 i 0.61540(6) 0.59948(4) 0.11019(4) 0.0091(2) 1 0
Nb10 Nb5+ 2 i 0.67835(6) 0.43262(4) 0.35434(3) 0.00845(19) 1 0
Nb11 Nb5+ 2 i 0.66147(6) 0.16764(4) 0.36117(4) 0.0108(2) 1 0
Nb12 Nb5+ 2 i 0.84824(6) 0.77595(4) 0.04056(4) 0.0120(2) 1 0
Nb13 Nb5+ 2 i 0.84558(6) 0.24311(4) 0.38990(4) 0.0098(2) 1 0
Nb14 Nb5+ 2 i 0.37842(6) 0.25371(4) 0.17409(4) 0.0100(2) 1 0
Nb15 Nb5+ 2 i 0.38116(6) 0.39788(4) 0.23540(4) 0.0099(2) 1 0
Nb16 Nb5+ 2 i 0.84567(6) 0.55257(4) 0.11257(4) 0.0094(2) 1 0
Nb17 Nb5+ 2 i 0.62731(6) 0.72808(4) 0.33422(4) 0.0099(2) 1 0
Nb18 Nb5+ 2 i 0.60809(6) 0.20896(4) 0.24705(4) 0.0092(2) 1 0
Nb19 Nb5+ 2 i 0.48003(6) 0.42091(4) 0.36831(4) 0.0118(2) 1 0
Nb20 Nb5+ 2 i 0.94062(6) 0.26042(4) 0.17759(4) 0.0102(2) 1 0
Nb21 Nb5+ 2 i 0.51291(6) 0.37269(4) 0.14931(3) 0.00832(19) 1 0
Nb22 Nb5+ 2 i 0.62763(6) 0.84423(4) 0.29542(4) 0.0105(2) 1 0
Nb23 Nb5+ 2 i 0.85416(6) 0.37247(4) 0.38740(4) 0.0090(2) 1 0
Nb24 Nb5+ 2 i 0.43421(6) 0.67869(4) 0.24285(4) 0.0106(2) 1 0
Nb25 Nb5+ 2 i 0.99307(6) 0.66420(4) 0.32130(4) 0.0095(2) 1 0
Nb26 Nb5+ 2 i 0.77856(6) 0.65780(4) 0.07023(4) 0.0093(2) 1 0
Nb27 Nb5+ 2 i 0.98758(6) 0.21870(4) 0.28796(4) 0.0106(2) 1 0
Nb28 Nb5+ 2 i 0.61304(6) 0.73621(4) 0.06801(4) 0.0103(2) 1 0
Nb29 Nb5+ 2 i 0.86313(6) 0.88150(4) 0.36087(4) 0.0119(2) 1 0
Nb30 Nb5+ 2 i 0.78885(6) 0.76926(4) 0.15226(4) 0.0092(2) 1 0
Nb31 Nb5+ 2 i 0.98305(6) 0.67386(4) 0.09409(4) 0.0113(2) 1 0
Nb32 Nb5+ 2 i 1.02319(6) 0.82171(4) 0.11694(4) 0.0133(2) 1 0
Nb33 Nb5+ 2 i 0.78947(6) 0.64927(4) 0.31677(4) 0.0088(2) 1 0
Nb34 Nb5+ 2 i 0.65336(6) 0.39028(4) 0.46451(4) 0.0117(2) 1 0
Nb35 Nb5+ 2 i 0.73690(6) 0.17592(4) 0.15714(4) 0.0104(2) 1 0
Nb36 Nb5+ 2 i 0.99376(6) 0.88093(4) 0.24875(4) 0.0121(2) 1 0
Nb37 Nb5+ 2 i 0.49331(6) 0.12321(4) 0.15384(4) 0.0117(2) 1 0
Nb38 Nb5+ 2 i 0.86587(6) 0.76439(4) 0.40003(4) 0.0114(2) 1 0
Nb39 Nb5+ 2 i 0.56614(6) 0.24726(4) 0.13896(4) 0.0090(2) 1 0
Nb40 Nb5+ 2 i 0.79432(6) 0.76464(4) 0.28000(3) 0.00821(19) 1 0
Nb41 Nb5+ 2 i 0.64955(6) 0.25907(4) 0.46767(4) 0.0133(2) 1 0
Nb42 Nb5+ 2 i 0.56937(6) 0.46316(4) 0.25308(3) 0.00766(19) 1 0
Nb43 Nb5+ 2 i 0.84826(6) 0.54860(4) 0.23350(3) 0.00776(19) 1 0
Nb44 Nb5+ 2 i 0.79064(6) 0.88635(4) 0.24022(4) 0.0099(2) 1 0
Nb45 Nb5+ 2 i 0.85226(6) 0.88938(4) 0.12527(4) 0.0126(2) 1 0
Nb46 Nb5+ 2 i 0.46435(6) 0.17821(4) 0.37581(4) 0.0146(2) 1 0
Nb47 Nb5+ 2 i 0.66501(6) 0.30382(4) 0.35758(4) 0.0089(2) 1 0
Nb48 Nb5+ 2 i 0.36515(6) 0.14076(4) 0.24218(4) 0.0142(2) 1 0
Nb49 Nb5+ 2 i 0.43186(6) 0.79550(4) 0.20400(4) 0.0113(2) 1 0
Nb50 Nb5+ 2 i 0.54302(6) 0.08489(4) 0.26368(4) 0.0132(2) 1 0
Nb51 Nb5+ 2 i 0.42755(6) 0.68086(4) 0.11973(4) 0.0109(2) 1 0
Nb52 Nb5+ 2 i 1.03251(6) 0.81299(4) 0.35677(4) 0.0118(2) 1 0
Cs1 Cs1+ 2 i 0.90282(6) 0.53411(4) 0.37779(3) 0.0308(2) 1 0
Cs2 Cs1+ 2 i 0.62936(7) 0.82964(4) -0.02943(4) 0.0370(2) 1 0
Cs3 Cs1+ 2 i 0.20704(7) 0.72921(5) 0.07815(5) 0.0505(3) 1 0
Cs4 Cs1+ 2 i 0.95935(5) 0.41941(3) 0.15732(3) 0.02145(17) 1 0
K1 K1+ 2 i 0.9409(3) 0.02574(19) 0.2400(2) 0.0326(11) 0.7 0
K2 K1+ 2 i 0.9361(6) 0.0225(4) 0.2631(4) 0.0195(19) 0.3 0
K3 K1+ 2 i 0.7131(4) 0.7836(3) 0.5249(3) 0.0373(16) 0.6 0
K4 K1+ 2 i 0.6993(7) 0.7651(6) 0.4980(5) 0.052(3) 0.4 0
K5 K1+ 2 i 0.3691(5) 0.5610(3) 0.4029(2) 0.0524(15) 0.7 0
K6 K1+ 2 i 0.3238(12) 0.5326(9) 0.3920(6) 0.076(6) 0.3 0
K7 K1+ 2 i 1.08816(18) 0.74255(11) 0.22721(10) 0.0234(6) 1 0
K8 K1+ 2 i 0.43399(19) 0.80364(12) 0.35009(11) 0.0290(7) 1 0
K9 K1+ 2 i 0.3124(2) 0.32639(12) 0.06946(10) 0.0283(7) 1 0
K10 K1+ 2 i 0.5736(2) 0.47051(13) -0.16132(11) 0.0311(7) 1 0
K11 K1+ 2 i 1.05907(18) 0.31387(13) 0.41352(11) 0.0274(6) 1 0
K12 K1+ 2 i 0.9050(2) 0.36268(13) 0.52687(11) 0.0320(7) 1 0
K13 K1+ 2 i 1.2045(2) 0.73249(15) 0.38191(13) 0.0378(8) 1 0
K14 K1+ 2 i 0.8881(2) 0.13854(16) 0.06902(13) 0.0419(8) 1 0
K15 K1+ 2 i 0.9000(2) 0.44289(15) -0.00424(14) 0.0439(8) 1 0
K16 K1+ 2 i 0.6016(3) 0.57609(19) 0.36994(15) 0.0363(9) 1 0
K17 K1+ 2 i 0.42331(17) 0.69056(11) -0.01768(10) 0.0196(6) 1 0
K18 K1+ 2 i 0.69390(17) 0.52200(11) -0.01641(10) 0.0199(6) 1 0
K19 K1+ 2 i 0.86510(18) 0.80720(13) -0.10023(11) 0.0278(6) 1 0
K20 K1+ 2 i 0.3682(2) 0.28607(12) 0.31265(11) 0.0305(7) 1 0
K21 K1+ 2 i 0.17796(19) 0.32530(15) 0.20551(14) 0.0401(8) 1 0
K22 K1+ 2 i 0.32704(16) 0.54589(11) -0.10633(10) 0.0195(6) 1 0
K23 K1+ 2 i 0.71465(18) 0.00708(11) 0.33934(11) 0.0242(6) 1 0
K24 K1+ 2 i 0.69307(18) 0.00983(11) 0.18587(11) 0.0237(6) 1 0
K25 K1+ 2 i 0.4725(3) 0.93596(15) 0.26760(19) 0.0595(12) 1 0
Na1 Na1+ 2 i 0.8102(4) 0.1307(3) 0.4942(2) 0.0521(18) 1 0
Na2 Na1+ 2 i 1.1580(3) 0.5742(2) 0.3493(2) 0.0304(12) 1 0
Na3 Na1+ 2 i 0.1470(3) 0.0551(2) 0.1641(2) 0.0337(14) 1 0
Na4 Na1+ 2 i 0.7129(4) 0.5335(2) 0.4794(2) 0.0327(13) 1 0
Na5 Na1+ 2 i 0.6595(4) 0.1661(3) 0.0168(2) 0.0379(14) 1 0
Na6 Na1+ 2 i 1.0948(7) 0.3870(5) 0.0404(4) 0.096(3) 1 0
O1 O2- 2 i 0.8087(5) 0.8486(3) 0.0580(3) 0.0156(17) 1 0
O2 O2- 2 i 0.8117(5) 0.7593(4) -0.0241(3) 0.0215(19) 1 0
O3 O2- 2 i 0.8352(5) 0.9457(3) 0.3874(3) 0.0224(19) 1 0
O4 O2- 2 i 0.6195(5) 0.9101(3) 0.3284(3) 0.0191(18) 1 0
O5 O2- 2 i 0.2934(5) 0.2443(3) 0.1276(3) 0.0187(18) 1 0
O6 O2- 2 i 0.3500(5) 0.6542(3) 0.0683(3) 0.0169(17) 1 0
O7 O2- 2 i 0.5603(5) 0.2276(3) 0.0736(3) 0.0177(18) 1 0
O8 O2- 2 i 0.4901(5) 0.0905(3) 0.0899(3) 0.0206(19) 1 0
O9 O2- 2 i 0.9651(5) 0.7982(3) 0.0452(3) 0.0150(17) 1 0
O10 O2- 2 i 0.8058(5) 0.5161(3) 0.1661(3) 0.0122(16) 1 0
O11 O2- 2 i 0.5443(5) 0.2754(3) 0.4899(3) 0.0176(18) 1 0
O12 O2- 2 i 0.5925(5) 0.5461(3) 0.0581(3) 0.0174(18) 1 0
O13 O2- 2 i 0.6979(5) 0.1168(3) 0.3907(3) 0.0191(18) 1 0
O14 O2- 2 i 0.5995(5) 0.7247(3) 0.0015(3) 0.0158(17) 1 0
O15 O2- 2 i 1.0113(4) 0.3248(3) 0.2138(3) 0.0111(16) 1 0
O16 O2- 2 i 0.5477(5) 0.3821(3) 0.4885(3) 0.0172(17) 1 0
O17 O2- 2 i 0.6206(5) 0.8056(3) 0.3523(3) 0.0150(17) 1 0
O18 O2- 2 i 0.7570(5) 0.6282(3) 0.0060(3) 0.0139(17) 1 0
O19 O2- 2 i 0.4363(5) 0.4742(4) 0.4039(3) 0.0227(19) 1 0
O20 O2- 2 i 0.5091(4) 0.7212(3) 0.1936(3) 0.0103(16) 1 0
O21 O2- 2 i 0.6105(5) 0.9159(3) 0.1461(3) 0.0189(18) 1 0
O22 O2- 2 i 0.3862(6) 0.3244(4) 0.4820(3) 0.028(2) 1 0
O23 O2- 2 i 0.3898(5) 0.1745(3) 0.3145(3) 0.0203(18) 1 0
O24 O2- 2 i 0.2586(5) 0.1189(4) 0.2390(3) 0.025(2) 1 0
O25 O2- 2 i 1.0690(5) 0.1793(3) 0.3069(3) 0.0169(17) 1 0
O26 O2- 2 i 0.7695(5) 0.9532(3) 0.2525(3) 0.0170(17) 1 0
O27 O2- 2 i 0.5199(4) 0.3783(3) 0.2351(3) 0.0094(15) 1 0
O28 O2- 2 i 0.7632(4) 0.7319(3) 0.3461(3) 0.0096(15) 1 0
O29 O2- 2 i 0.7449(4) 0.5959(3) 0.1056(3) 0.0118(16) 1 0
O30 O2- 2 i 0.8817(4) 0.6096(3) 0.1903(3) 0.0107(16) 1 0
O31 O2- 2 i 0.8982(5) 0.6928(3) 0.3585(3) 0.0101(15) 1 0
O32 O2- 2 i 0.6628(5) 0.6565(3) 0.2944(3) 0.0110(16) 1 0
O33 O2- 2 i 0.7772(5) 0.2982(3) 0.3441(3) 0.0095(15) 1 0
O34 O2- 2 i 0.7175(5) 0.2421(3) 0.4073(3) 0.0118(16) 1 0
O35 O2- 2 i 0.6127(5) 0.5553(3) 0.1642(3) 0.0116(16) 1 0
O36 O2- 2 i 0.6708(5) 0.7665(3) 0.1498(3) 0.0102(15) 1 0
O37 O2- 2 i 0.7234(5) 0.2088(3) 0.2397(3) 0.0113(16) 1 0
O38 O2- 2 i 0.6967(4) 0.2494(3) 0.1478(3) 0.0093(15) 1 0
O39 O2- 2 i 0.8850(5) 0.6170(3) 0.0841(3) 0.0118(16) 1 0
O40 O2- 2 i 0.6522(5) 0.1350(3) 0.2820(3) 0.0110(16) 1 0
O41 O2- 2 i 0.7181(5) 0.4952(3) 0.3873(3) 0.0146(17) 1 0
O42 O2- 2 i 0.6115(5) 0.3268(3) 0.1523(3) 0.0114(16) 1 0
O43 O2- 2 i 0.8513(4) 0.3069(3) 0.1583(3) 0.0111(16) 1 0
O44 O2- 2 i 0.7265(5) 0.3802(3) 0.4043(3) 0.0123(16) 1 0
O45 O2- 2 i 0.5067(5) 0.1620(3) 0.2384(3) 0.0140(17) 1 0
O46 O2- 2 i 0.7922(5) 0.4093(3) 0.3325(3) 0.0107(16) 1 0
O47 O2- 2 i 1.0522(5) 0.2908(3) 0.3069(3) 0.0131(16) 1 0
O48 O2- 2 i 0.5187(4) 0.7115(3) 0.3014(3) 0.0131(16) 1 0
O49 O2- 2 i 0.3589(5) 0.3193(3) 0.2187(3) 0.0155(17) 1 0
O50 O2- 2 i 0.6594(5) 0.6531(3) 0.1879(3) 0.0116(16) 1 0
O51 O2- 2 i 0.8243(5) 0.4915(3) 0.2658(3) 0.0113(16) 1 0
O52 O2- 2 i 0.9017(4) 0.3952(3) 0.2614(3) 0.0106(16) 1 0
O53 O2- 2 i 0.6033(5) 0.1751(3) 0.1657(3) 0.0096(15) 1 0
O54 O2- 2 i 0.4371(5) 0.2502(3) 0.4001(3) 0.0184(18) 1 0
O55 O2- 2 i 0.8175(5) 0.7017(3) 0.1500(3) 0.0136(17) 1 0
O56 O2- 2 i 0.4516(5) 0.4692(3) 0.2482(3) 0.0118(16) 1 0
O57 O2- 2 i 0.6204(5) 0.3481(3) 0.3192(3) 0.0100(15) 1 0
O58 O2- 2 i 0.7563(5) 0.8596(3) 0.1606(3) 0.0109(16) 1 0
O59 O2- 2 i 0.4640(5) 0.2951(3) 0.1429(3) 0.0110(16) 1 0
O60 O2- 2 i 0.8806(5) 0.8025(3) 0.1264(3) 0.0129(16) 1 0
O61 O2- 2 i 0.5174(5) 0.6200(3) 0.2319(3) 0.0114(16) 1 0
O62 O2- 2 i 0.9800(5) 0.8820(3) 0.3822(3) 0.0144(17) 1 0
O63 O2- 2 i 0.8248(5) 0.7973(3) 0.2241(3) 0.0128(16) 1 0
O64 O2- 2 i 0.8205(5) 0.6974(3) 0.2578(3) 0.0122(16) 1 0
O65 O2- 2 i 0.5618(4) 0.4551(3) 0.3279(3) 0.0094(15) 1 0
O66 O2- 2 i 0.3794(5) 0.6517(3) 0.1737(3) 0.0137(17) 1 0
O67 O2- 2 i 0.5146(5) 0.8278(3) 0.1670(3) 0.0162(17) 1 0
O68 O2- 2 i 0.8962(5) 0.4289(3) 0.4340(3) 0.0160(17) 1 0
O69 O2- 2 i 0.7541(5) 0.1156(3) 0.1930(3) 0.0135(16) 1 0
O70 O2- 2 i 0.6786(5) 0.4375(3) 0.2781(3) 0.0117(16) 1 0
O71 O2- 2 i 0.7680(5) 0.6170(3) 0.3657(3) 0.0166(17) 1 0
O72 O2- 2 i 0.7634(5) 0.8550(3) 0.3058(3) 0.0138(17) 1 0
O73 O2- 2 i 0.8150(5) 0.5012(3) 0.0600(3) 0.0176(18) 1 0
O74 O2- 2 i 0.5057(5) 0.7172(3) 0.0819(3) 0.0150(17) 1 0
O75 O2- 2 i 0.8999(5) 0.2778(3) 0.2575(3) 0.0098(15) 1 0
O76 O2- 2 i 0.5754(4) 0.4422(3) 0.1826(3) 0.0110(16) 1 0
O77 O2- 2 i 0.6654(5) 0.8582(3) 0.2283(3) 0.0124(16) 1 0
O78 O2- 2 i 0.8933(5) 0.6080(3) 0.2962(3) 0.0108(16) 1 0
O79 O2- 2 i 0.6114(5) 0.2353(3) 0.3200(3) 0.0109(16) 1 0
O80 O2- 2 i 0.9421(5) 0.3615(3) 0.3492(3) 0.0142(17) 1 0
O81 O2- 2 i 0.7501(4) 0.7411(3) 0.0709(3) 0.0102(15) 1 0
O82 O2- 2 i 0.5794(5) 0.0241(3) 0.2770(3) 0.0224(19) 1 0
O83 O2- 2 i 0.6761(4) 0.7621(3) 0.2704(3) 0.0082(15) 1 0
O84 O2- 2 i 0.9810(5) 0.7876(3) 0.4143(3) 0.0154(17) 1 0
O85 O2- 2 i 0.7292(5) 0.3376(3) 0.0886(3) 0.0154(17) 1 0
O86 O2- 2 i 0.9631(5) 0.5416(3) 0.1301(3) 0.0117(16) 1 0
O87 O2- 2 i 0.8479(5) 0.2011(3) 0.1600(3) 0.0148(17) 1 0
O88 O2- 2 i 0.5408(5) 0.1308(3) 0.3359(3) 0.0158(17) 1 0
O89 O2- 2 i 0.4450(5) 0.3604(4) 0.3958(3) 0.0210(19) 1 0
O90 O2- 2 i 1.0576(5) 0.9405(3) 0.2659(3) 0.0191(18) 1 0
O91 O2- 2 i 0.7417(5) 0.3350(3) 0.2376(3) 0.0112(16) 1 0
O92 O2- 2 i 0.5178(5) 0.8261(3) 0.2649(3) 0.0154(17) 1 0
O93 O2- 2 i 0.4237(5) 0.0768(3) 0.2589(3) 0.0188(18) 1 0
O94 O2- 2 i 0.7762(5) 0.1840(3) 0.3376(3) 0.0127(16) 1 0
O95 O2- 2 i 0.3623(5) 0.8474(3) 0.2114(3) 0.0188(18) 1 0
O96 O2- 2 i 0.6033(5) 0.5361(3) 0.2626(3) 0.0105(16) 1 0
O97 O2- 2 i 1.0777(5) 0.4013(3) 0.3044(3) 0.0188(18) 1 0
O98 O2- 2 i 0.7065(5) 0.3311(3) 0.4922(3) 0.0188(18) 1 0
O99 O2- 2 i 0.3556(5) 0.2105(3) 0.2229(3) 0.0150(17) 1 0
O100 O2- 2 i 0.4040(5) 0.3949(3) 0.1632(3) 0.0127(16) 1 0
O101 O2- 2 i 0.5816(5) 0.1976(3) 0.4135(3) 0.0154(17) 1 0
O102 O2- 2 i 1.0419(5) 0.7370(3) 0.3289(3) 0.0139(17) 1 0
O103 O2- 2 i 0.4584(5) 0.1993(3) 0.1453(3) 0.0122(16) 1 0
O104 O2- 2 i 0.3838(5) 0.1089(3) 0.1696(3) 0.0156(17) 1 0
O105 O2- 2 i 0.6203(5) 0.7114(3) 0.3945(3) 0.0188(18) 1 0
O106 O2- 2 i 0.8770(5) 0.2069(3) 0.4386(3) 0.0172(18) 1 0
O107 O2- 2 i 0.5953(5) 0.4240(3) 0.4075(3) 0.0122(16) 1 0
O108 O2- 2 i 0.5981(5) 0.3121(3) 0.4128(3) 0.0118(16) 1 0
O109 O2- 2 i 1.0058(5) 0.2141(3) 0.2172(3) 0.0136(16) 1 0
O110 O2- 2 i 0.9627(5) 0.5383(3) 0.2281(3) 0.0127(16) 1 0
O111 O2- 2 i 0.8232(6) 0.9547(3) 0.1224(3) 0.0222(19) 1 0
O112 O2- 2 i 0.3798(5) 0.7511(3) 0.1409(3) 0.0136(16) 1 0
O113 O2- 2 i 0.8901(4) 0.7950(3) 0.3278(3) 0.0108(16) 1 0
O114 O2- 2 i 0.8930(5) 0.1637(3) 0.2683(3) 0.0139(17) 1 0
O115 O2- 2 i 0.6942(5) 0.2223(4) 0.5116(3) 0.023(2) 1 0
O116 O2- 2 i 0.7059(5) 0.4466(3) 0.5062(3) 0.0191(18) 1 0
O117 O2- 2 i 0.6078(5) 0.8142(3) 0.0813(3) 0.0145(17) 1 0
O118 O2- 2 i 0.5700(5) 0.2667(3) 0.2248(3) 0.0124(16) 1 0
O119 O2- 2 i 0.4040(5) 0.3976(3) 0.3081(3) 0.0172(18) 1 0
O120 O2- 2 i 0.7187(5) 0.1386(3) 0.0943(3) 0.0211(19) 1 0
O121 O2- 2 i 1.0441(5) 0.6483(3) 0.0467(3) 0.0206(19) 1 0
O122 O2- 2 i 0.8950(5) 0.8983(3) 0.2026(3) 0.0129(16) 1 0
O123 O2- 2 i 0.7508(4) 0.5912(3) 0.2520(3) 0.0096(15) 1 0
O124 O2- 2 i 0.7672(5) 0.4043(3) 0.1855(3) 0.0117(16) 1 0
O125 O2- 2 i 0.9364(5) 0.2373(3) 0.3529(3) 0.0145(17) 1 0
O126 O2- 2 i 0.8845(5) 0.7036(3) 0.0572(3) 0.0134(16) 1 0
O127 O2- 2 i 1.0319(5) 0.7450(3) 0.1192(3) 0.0170(18) 1 0
O128 O2- 2 i 0.9885(5) 0.2455(3) 0.1210(3) 0.0192(18) 1 0
O129 O2- 2 i 0.3648(5) 0.6453(3) 0.2757(3) 0.0176(18) 1 0
O130 O2- 2 i 0.8763(5) 0.3169(3) 0.4275(3) 0.0128(16) 1 0
O131 O2- 2 i 0.9678(5) 0.8911(3) 0.1150(3) 0.0147(17) 1 0
O132 O2- 2 i 1.0370(5) 0.8340(3) 0.2918(3) 0.0172(18) 1 0
O133 O2- 2 i 0.8261(5) 0.8374(3) 0.4079(3) 0.0153(17) 1 0
O134 O2- 2 i 0.5070(5) 0.6241(3) 0.1147(3) 0.0149(17) 1 0
O135 O2- 2 i 0.3849(5) 0.7474(3) 0.2453(3) 0.0146(17) 1 0
O136 O2- 2 i 0.5096(5) 0.3799(3) 0.0861(3) 0.0145(17) 1 0
O137 O2- 2 i 0.8423(5) 0.7431(3) 0.4552(3) 0.0194(18) 1 0
O138 O2- 2 i 0.2783(5) 0.4190(4) 0.2324(3) 0.0203(19) 1 0
O139 O2- 2 i 1.0267(5) 0.6486(3) 0.1540(3) 0.0164(17) 1 0
O140 O2- 2 i 0.7927(5) 0.0745(3) 0.2821(3) 0.0210(19) 1 0
O141 O2- 2 i 1.1220(5) 0.5697(3) 0.1928(3) 0.0222(19) 1 0
O142 O2- 2 i 0.4147(6) 0.1381(4) 0.4108(4) 0.028(2) 1 0
O143 O2- 2 i 1.1239(6) 0.8390(4) 0.1034(3) 0.027(2) 1 0
O144 O2- 2 i 0.5487(5) 0.0722(3) 0.1900(3) 0.0144(17) 1 0
O145 O2- 2 i 1.1352(5) 0.8320(3) 0.3868(3) 0.0213(19) 1 0
O146 O2- 2 i 1.0374(5) 0.8414(3) 0.1912(3) 0.0164(17) 1 0
O147 O2- 2 i 0.8978(5) 0.8949(3) 0.2922(3) 0.0136(16) 1 0
O148 O2- 2 i 1.0335(5) 0.6432(3) 0.2570(3) 0.0135(16) 1 0
O149 O2- 2 i 0.6537(5) 0.6639(3) 0.0814(3) 0.0114(16) 1 0
O150 O2- 2 i 1.0541(5) 0.6358(3) 0.3653(3) 0.0164(17) 1 0
O151 O2- 2 i 0.2450(7) 0.7682(5) 0.2958(5) 0.050(3) 1 0
O152 O2- 2 i 0.3666(7) 0.7017(4) 0.3726(4) 0.038(3) 1 0
O153 O2- 2 i 0.8508(6) 0.4572(4) 0.5736(4) 0.030(2) 1 0
O154 O2- 2 i 0.7147(8) 0.5747(7) 0.5640(5) 0.067(4) 1 0
O155 O2- 2 i 0.4353(9) 0.5612(4) 0.3193(4) 0.048(3) 1 0
O156 O2- 2 i 0.5164(12) 0.7860(7) 0.4475(7) 0.099(6) 1 0
O157 O2- 2 i 1.0807(6) 0.3548(4) 0.5205(4) 0.037(2) 1 0
O158 O2- 2 i 0.7403(8) 0.3650(5) 0.5921(4) 0.050(3) 1 0
O159 O2- 2 i 0.5405(5) 0.5212(4) -0.0693(3) 0.0232(19) 1 0
O160 O2- 2 i 0.7638(8) 0.4309(5) -0.0697(6) 0.068(4) 1 0
O161 O2- 2 i 1.0535(8) 0.2216(5) 0.4543(4) 0.054(3) 1 0
O162 O2- 2 i 0.8616(7) 0.5287(4) 0.4853(4) 0.035(2) 1 0
O163 O2- 2 i 1.0622(7) 0.4426(5) 0.4126(4) 0.045(3) 1 0
O164 O2- 2 i 0.5689(5) 0.5433(3) 0.4678(4) 0.029(2) 1 0
O165 O2- 2 i 0.7280(7) 0.6210(4) 0.4617(4) 0.040(3) 1 0
O166 O2- 2 i 0.8743(7) 0.3658(4) 0.0478(4) 0.040(3) 1 0
O167 O2- 2 i 0.8923(6) 0.2619(4) 0.5388(3) 0.030(2) 1 0
O168 O2- 2 i 0.5859(8) 0.1866(5) -0.0609(5) 0.055(3) 1 0
O169 O2- 2 i 0.5606(10) 0.0905(6) 0.0012(5) 0.070(4) 1 0
O170 O2- 2 i 0.7512(8) 0.2445(5) 0.0218(5) 0.062(4) 1 0
O171 O2- 2 i 0.7156(7) 0.5575(4) -0.1085(4) 0.039(3) 1 0
O172 O2- 2 i 0.6545(12) 0.0343(5) 0.0883(6) 0.090(6) 1 0
O173 O2- 2 i 0.5991(7) 0.4270(4) 0.0007(3) 0.038(3) 1 0
O174 O2- 2 i 0.7870(10) 0.1258(6) -0.0294(5) 0.072(4) 1 0
O175 O2- 2 i 0.0699(7) 0.7488(5) -0.0244(4) 0.049(3) 1 0
O176 O2- 2 i 0.2315(8) 0.2033(10) 0.3496(7) 0.139(10) 1 0
O177 O2- 2 i 1.1487(6) 0.4573(4) 0.1741(4) 0.034(2) 1 0
O178 O2- 2 i 0.6006(11) 0.9312(5) 0.0488(5) 0.072(5) 1 0
O179 O2- 2 i 0.5705(8) 0.5917(4) 0.3794(5) 0.025(3) 1 0
O180 O2- 2 i 0.4595(8) 0.9574(5) 0.1670(5) 0.053(3) 1 0
O181 O2- 2 i 0.7636(8) 0.8894(5) -0.1014(5) 0.060(4) 1 0
O182 O2- 2 i 0.9700(7) 0.8728(4) -0.0198(4) 0.040(3) 1 0
O183 O2- 2 i 1.2073(7) 0.6857(5) 0.1751(4) 0.050(3) 1 0
O184 O2- 2 i 1.0481(7) 0.5097(4) 0.3116(4) 0.036(3) 1 0
O185 O2- 2 i 1.0408(10) 0.4898(7) 0.0540(4) 0.079(5) 1 0
O186 O2- 2 i 1.2054(6) 0.6364(6) 0.3007(4) 0.060(4) 1 0
O187 O2- 2 i 0.1692(6) 0.2154(5) 0.2043(4) 0.039(3) 1 0
O188 O2- 2 i 0.0164(7) 0.1195(4) 0.1488(4) 0.044(3) 1 0
O189 O2- 2 i 0.4919(8) 0.6505(5) 0.4149(4) 0.054(3) 1 0
O190 O2- 2 i 0.7213(12) 0.4375(8) -0.1678(7) 0.101(6) 1 0
O191 O2- 2 i 0.6572(12) 0.0959(8) 0.4786(7) 0.105(6) 1 0
O192 O2- 2 i 1.2256(12) 0.3079(7) 0.4189(7) 0.096(5) 1 0
O193 O2- 2 i 0.2167(12) 0.3247(8) 0.3086(7) 0.105(6) 1 0
O194 O2- 2 i 0.1095(18) 0.3262(11) 0.1174(10) 0.053(6) 0.5 0
O195 O2- 2 i 0.2371(17) 0.4303(11) 0.3415(10) 0.060(7) 0.5 0
O196 O2- 2 i 1.0940(16) 0.0753(10) 0.2662(9) 0.140(8) 1 0
O197 O2- 2 i 0.3283(17) 0.8787(11) 0.3121(10) 0.157(10) 1 0
O198 O2- 2 i 0.9817(15) 0.1153(10) 0.5023(9) 0.138(8) 1 0
O199 O2- 2 i 0.8912(14) 0.0877(9) 0.3815(8) 0.122(7) 1 0
O200 O2- 2 i 0.1867(15) -0.0303(10) 0.2140(9) 0.137(8) 1 0
O201 O2- 2 i 1.1545(16) 0.3235(10) 0.1042(9) 0.124(8) 1 0
O202 O2- 2 i 0.7710(14) 0.9397(9) 0.0033(8) 0.122(7) 1 0
O203 O2- 2 i 0.0344(14) -0.0153(9) 0.0908(8) 0.118(7) 1 0
O204 O2- 2 i 0.6739(7) 0.8626(5) 0.4472(4) 0.048(3) 1 0
O205 O2- 2 i 0.4719(10) 0.1072(5) 0.5032(4) 0.061(4) 1 0
O206 O2- 2 i 0.3709(9) 0.0069(6) 0.0407(6) 0.071(4) 1 0
O207 O2- 2 i 1.0639(10) 0.1273(7) 0.3865(6) 0.079(4) 1 0
O208 O2- 2 i 0.3172(11) 0.9006(7) 0.1358(6) 0.022(4) 0.5 0
O209 O2- 2 i 0.2673(13) 0.9013(8) 0.1533(8) 0.036(5) 0.5 0
O210 O2- 2 i 0.9178(17) 0.0268(11) 0.4555(10) 0.152(9) 1 0
O211 O2- 2 i 0.3203(16) 0.8411(10) 0.4183(10) 0.145(9) 1 0
O212 O2- 2 i 0.3276(15) 0.9936(10) 0.2738(9) 0.136(8) 1 0
O213 O2- 2 i 0.8809(15) 0.0558(10) 0.1586(9) 0.137(8) 1 0
O214 O2- 2 i 1.2014(12) 0.9194(8) 0.3438(7) 0.103(6) 1 0
O215 O2- 2 i 0.3648(15) 0.9185(9) 0.0950(9) 0.128(8) 1 0
loop_
_atom_site_aniso_label
_atom_site_aniso_type_symbol
_atom_site_aniso_U_11
_atom_site_aniso_U_22
_atom_site_aniso_U_33
_atom_site_aniso_U_12
_atom_site_aniso_U_13
_atom_site_aniso_U_23
Nb1 Nb5+ 0.0128(5) 0.0211(6) 0.0160(5) 0.0028(4) 0.0069(4) 0.0086(4)
Nb2 Nb5+ 0.0063(5) 0.0094(5) 0.0085(5) -0.0011(4) 0.0003(4) 0.0022(4)
Nb3 Nb5+ 0.0082(5) 0.0084(5) 0.0147(5) 0.0009(4) 0.0011(4) 0.0025(4)
Nb4 Nb5+ 0.0060(5) 0.0125(5) 0.0117(5) -0.0011(4) 0.0005(4) 0.0023(4)
Nb5 Nb5+ 0.0070(5) 0.0084(5) 0.0096(5) -0.0006(4) 0.0002(4) 0.0026(4)
Nb6 Nb5+ 0.0059(4) 0.0082(5) 0.0078(4) -0.0007(4) 0.0011(3) 0.0021(4)
Nb7 Nb5+ 0.0067(5) 0.0111(5) 0.0115(5) -0.0010(4) 0.0004(4) 0.0016(4)
Nb8 Nb5+ 0.0099(5) 0.0102(5) 0.0117(5) -0.0007(4) 0.0000(4) 0.0037(4)
Nb9 Nb5+ 0.0083(5) 0.0086(5) 0.0100(5) -0.0021(4) 0.0008(4) 0.0017(4)
Nb10 Nb5+ 0.0074(5) 0.0101(5) 0.0082(5) 0.0007(4) 0.0015(4) 0.0024(4)
Nb11 Nb5+ 0.0092(5) 0.0108(5) 0.0137(5) 0.0003(4) 0.0018(4) 0.0057(4)
Nb12 Nb5+ 0.0118(5) 0.0151(5) 0.0095(5) -0.0026(4) 0.0011(4) 0.0045(4)
Nb13 Nb5+ 0.0086(5) 0.0116(5) 0.0095(5) 0.0008(4) 0.0004(4) 0.0034(4)
Nb14 Nb5+ 0.0065(5) 0.0104(5) 0.0135(5) -0.0013(4) -0.0001(4) 0.0042(4)
Nb15 Nb5+ 0.0061(5) 0.0111(5) 0.0136(5) 0.0011(4) 0.0019(4) 0.0047(4)
Nb16 Nb5+ 0.0089(5) 0.0091(5) 0.0093(5) -0.0010(4) 0.0000(4) 0.0011(4)
Nb17 Nb5+ 0.0082(5) 0.0118(5) 0.0105(5) 0.0003(4) 0.0021(4) 0.0035(4)
Nb18 Nb5+ 0.0064(5) 0.0092(5) 0.0124(5) -0.0011(4) 0.0005(4) 0.0038(4)
Nb19 Nb5+ 0.0092(5) 0.0166(5) 0.0109(5) 0.0019(4) 0.0037(4) 0.0045(4)
Nb20 Nb5+ 0.0075(5) 0.0128(5) 0.0103(5) 0.0008(4) 0.0021(4) 0.0020(4)
Nb21 Nb5+ 0.0073(5) 0.0092(5) 0.0088(5) -0.0005(4) 0.0001(4) 0.0032(4)
Nb22 Nb5+ 0.0097(5) 0.0104(5) 0.0117(5) 0.0004(4) 0.0015(4) 0.0028(4)
Nb23 Nb5+ 0.0079(5) 0.0108(5) 0.0082(4) 0.0007(4) 0.0001(4) 0.0023(4)
Nb24 Nb5+ 0.0075(5) 0.0111(5) 0.0138(5) -0.0005(4) 0.0026(4) 0.0037(4)
Nb25 Nb5+ 0.0077(5) 0.0098(5) 0.0104(5) -0.0011(4) -0.0007(4) 0.0019(4)
Nb26 Nb5+ 0.0086(5) 0.0104(5) 0.0086(5) -0.0018(4) 0.0004(4) 0.0018(4)
Nb27 Nb5+ 0.0071(5) 0.0122(5) 0.0127(5) 0.0013(4) 0.0011(4) 0.0030(4)
Nb28 Nb5+ 0.0091(5) 0.0118(5) 0.0095(5) -0.0019(4) -0.0014(4) 0.0029(4)
Nb29 Nb5+ 0.0131(5) 0.0107(5) 0.0109(5) 0.0003(4) -0.0006(4) 0.0005(4)
Nb30 Nb5+ 0.0088(5) 0.0094(5) 0.0095(5) -0.0021(4) 0.0009(4) 0.0028(4)
Nb31 Nb5+ 0.0091(5) 0.0129(5) 0.0121(5) -0.0019(4) 0.0023(4) 0.0031(4)
Nb32 Nb5+ 0.0117(5) 0.0140(5) 0.0145(5) -0.0037(4) 0.0024(4) 0.0040(4)
Nb33 Nb5+ 0.0075(5) 0.0096(5) 0.0094(5) -0.0011(4) 0.0011(4) 0.0027(4)
Nb34 Nb5+ 0.0123(5) 0.0150(5) 0.0085(5) 0.0022(4) 0.0025(4) 0.0035(4)
Nb35 Nb5+ 0.0081(5) 0.0098(5) 0.0128(5) 0.0001(4) 0.0012(4) 0.0014(4)
Nb36 Nb5+ 0.0101(5) 0.0119(5) 0.0139(5) -0.0027(4) 0.0006(4) 0.0031(4)
Nb37 Nb5+ 0.0099(5) 0.0092(5) 0.0152(5) -0.0024(4) -0.0003(4) 0.0021(4)
Nb38 Nb5+ 0.0121(5) 0.0130(5) 0.0087(5) -0.0002(4) -0.0004(4) 0.0025(4)
Nb39 Nb5+ 0.0071(5) 0.0090(5) 0.0108(5) -0.0014(4) 0.0002(4) 0.0030(4)
Nb40 Nb5+ 0.0073(5) 0.0085(5) 0.0084(5) -0.0013(4) -0.0003(4) 0.0020(4)
Nb41 Nb5+ 0.0140(5) 0.0175(5) 0.0107(5) 0.0023(4) 0.0040(4) 0.0070(4)
Nb42 Nb5+ 0.0065(5) 0.0076(5) 0.0092(5) -0.0007(4) 0.0007(4) 0.0031(4)
Nb43 Nb5+ 0.0069(5) 0.0070(5) 0.0093(5) -0.0015(4) 0.0008(4) 0.0022(4)
Nb44 Nb5+ 0.0096(5) 0.0084(5) 0.0117(5) -0.0011(4) 0.0008(4) 0.0025(4)
Nb45 Nb5+ 0.0131(5) 0.0114(5) 0.0143(5) -0.0020(4) 0.0021(4) 0.0056(4)
Nb46 Nb5+ 0.0105(5) 0.0179(5) 0.0181(5) -0.0001(4) 0.0043(4) 0.0092(4)
Nb47 Nb5+ 0.0075(5) 0.0108(5) 0.0092(5) 0.0003(4) 0.0020(4) 0.0035(4)
Nb48 Nb5+ 0.0086(5) 0.0139(5) 0.0212(5) -0.0017(4) 0.0018(4) 0.0075(4)
Nb49 Nb5+ 0.0090(5) 0.0106(5) 0.0146(5) 0.0006(4) 0.0013(4) 0.0032(4)
Nb50 Nb5+ 0.0101(5) 0.0093(5) 0.0210(5) -0.0012(4) 0.0005(4) 0.0062(4)
Nb51 Nb5+ 0.0078(5) 0.0129(5) 0.0113(5) -0.0018(4) -0.0004(4) 0.0022(4)
Nb52 Nb5+ 0.0098(5) 0.0112(5) 0.0132(5) -0.0020(4) -0.0016(4) 0.0015(4)
Cs1 Cs1+ 0.0367(5) 0.0313(5) 0.0251(4) -0.0023(4) 0.0010(4) 0.0101(4)
Cs2 Cs1+ 0.0471(6) 0.0336(5) 0.0326(5) 0.0013(4) 0.0053(4) 0.0122(4)
Cs3 Cs1+ 0.0337(6) 0.0584(7) 0.0614(7) 0.0078(5) 0.0102(5) 0.0127(6)
Cs4 Cs1+ 0.0219(4) 0.0200(4) 0.0238(4) -0.0014(3) 0.0058(3) 0.0066(3)
K3 K1+ 0.029(3) 0.040(4) 0.043(4) -0.002(3) 0.024(3) -0.003(3)
K4 K1+ 0.033(6) 0.068(9) 0.068(8) 0.000(5) 0.028(6) 0.034(7)
K5 K1+ 0.067(4) 0.063(4) 0.038(3) 0.034(3) 0.024(3) 0.022(3)
K6 K1+ 0.062(11) 0.088(14) 0.060(10) 0.037(10) -0.024(8) -0.019(9)
K7 K1+ 0.0282(15) 0.0196(14) 0.0220(14) -0.0016(12) 0.0044(11) 0.0028(11)
K8 K1+ 0.0261(16) 0.0304(16) 0.0319(16) 0.0022(13) 0.0081(12) 0.0071(13)
K9 K1+ 0.0439(18) 0.0256(15) 0.0145(13) 0.0105(13) -0.0027(12) 0.0033(11)
K10 K1+ 0.0301(16) 0.0347(17) 0.0253(15) -0.0099(13) 0.0036(12) 0.0010(13)
K11 K1+ 0.0255(15) 0.0350(17) 0.0210(14) 0.0005(13) 0.0004(12) 0.0056(12)
K12 K1+ 0.0444(19) 0.0323(17) 0.0170(14) 0.0020(14) -0.0007(13) 0.0013(12)
K13 K1+ 0.0222(16) 0.053(2) 0.0437(19) 0.0097(15) 0.0087(14) 0.0198(16)
K14 K1+ 0.0316(18) 0.060(2) 0.0324(18) -0.0023(16) 0.0102(14) 0.0014(16)
K15 K1+ 0.048(2) 0.041(2) 0.043(2) 0.0100(17) 0.0110(16) 0.0038(16)
K16 K1+ 0.041(3) 0.040(3) 0.027(2) -0.0053(19) -0.0001(18) 0.0081(17)
K17 K1+ 0.0190(13) 0.0239(14) 0.0158(13) -0.0013(11) -0.0003(10) 0.0058(11)
K18 K1+ 0.0209(14) 0.0195(14) 0.0180(13) -0.0024(11) 0.0005(10) 0.0026(10)
K19 K1+ 0.0208(15) 0.0407(18) 0.0221(14) 0.0005(13) 0.0041(11) 0.0060(13)
K20 K1+ 0.049(2) 0.0213(15) 0.0208(14) 0.0009(14) -0.0011(13) 0.0066(12)
K21 K1+ 0.0147(15) 0.048(2) 0.057(2) -0.0049(14) 0.0067(14) 0.0115(17)
K22 K1+ 0.0167(13) 0.0207(14) 0.0212(13) -0.0058(11) 0.0016(10) 0.0069(11)
K23 K1+ 0.0292(15) 0.0184(14) 0.0239(14) 0.0028(12) 0.0000(12) 0.0029(11)
K24 K1+ 0.0263(15) 0.0136(13) 0.0296(15) -0.0016(11) -0.0025(12) 0.0046(11)
K25 K1+ 0.043(2) 0.0283(19) 0.103(3) -0.0049(16) -0.019(2) 0.021(2)
Na1 Na1+ 0.046(4) 0.083(5) 0.035(3) 0.012(4) 0.010(3) 0.025(3)
Na2 Na1+ 0.030(3) 0.036(3) 0.024(3) 0.001(2) 0.003(2) 0.005(2)
Na3 Na1+ 0.018(3) 0.024(3) 0.060(4) -0.010(2) -0.009(3) 0.022(3)
Na4 Na1+ 0.035(3) 0.031(3) 0.031(3) 0.001(2) 0.001(2) 0.006(2)
Na5 Na1+ 0.033(3) 0.045(4) 0.038(3) 0.003(3) -0.007(3) 0.022(3)
Na6 Na1+ 0.092(7) 0.118(9) 0.076(6) 0.007(6) 0.013(5) 0.013(6)
O1 O2- 0.013(4) 0.017(4) 0.016(4) -0.004(3) -0.003(3) 0.006(3)
O2 O2- 0.025(5) 0.027(5) 0.013(4) -0.010(4) 0.001(3) 0.009(4)
O3 O2- 0.023(5) 0.018(5) 0.022(5) 0.003(4) -0.001(4) -0.003(4)
O4 O2- 0.020(4) 0.012(4) 0.022(4) -0.002(3) 0.002(4) -0.001(3)
O5 O2- 0.009(4) 0.024(5) 0.023(4) -0.003(3) -0.002(3) 0.008(4)
O6 O2- 0.012(4) 0.020(4) 0.018(4) 0.000(3) -0.002(3) 0.005(3)
O7 O2- 0.020(4) 0.022(5) 0.009(4) 0.000(4) -0.002(3) 0.001(3)
O8 O2- 0.019(4) 0.020(5) 0.021(4) 0.000(4) 0.001(4) 0.001(4)
O9 O2- 0.015(4) 0.018(4) 0.014(4) -0.004(3) 0.007(3) 0.007(3)
O10 O2- 0.011(4) 0.010(4) 0.015(4) -0.002(3) 0.000(3) 0.003(3)
O11 O2- 0.022(5) 0.019(4) 0.013(4) 0.001(4) 0.008(3) 0.004(3)
O12 O2- 0.020(4) 0.017(4) 0.013(4) -0.008(3) -0.001(3) 0.001(3)
O13 O2- 0.013(4) 0.020(5) 0.029(5) 0.006(3) 0.003(3) 0.015(4)
O14 O2- 0.020(4) 0.018(4) 0.011(4) -0.004(3) 0.002(3) 0.006(3)
O15 O2- 0.005(4) 0.016(4) 0.012(4) 0.000(3) 0.000(3) 0.004(3)
O16 O2- 0.019(4) 0.019(4) 0.015(4) 0.005(3) 0.008(3) 0.003(3)
O17 O2- 0.016(4) 0.014(4) 0.014(4) -0.002(3) -0.001(3) 0.003(3)
O18 O2- 0.014(4) 0.021(4) 0.008(4) -0.001(3) 0.005(3) 0.005(3)
O19 O2- 0.017(4) 0.027(5) 0.023(5) 0.003(4) 0.005(4) -0.002(4)
O20 O2- 0.007(4) 0.015(4) 0.010(4) -0.004(3) 0.001(3) 0.003(3)
O21 O2- 0.021(4) 0.013(4) 0.022(4) -0.004(3) -0.002(4) 0.007(3)
O22 O2- 0.025(5) 0.039(6) 0.029(5) 0.013(4) 0.021(4) 0.013(4)
O23 O2- 0.017(4) 0.021(5) 0.025(5) 0.001(4) 0.004(4) 0.006(4)
O24 O2- 0.012(4) 0.032(5) 0.034(5) -0.005(4) 0.008(4) 0.011(4)
O25 O2- 0.010(4) 0.016(4) 0.026(5) 0.006(3) 0.003(3) 0.006(3)
O26 O2- 0.019(4) 0.012(4) 0.020(4) -0.001(3) 0.000(3) 0.006(3)
O27 O2- 0.006(4) 0.011(4) 0.012(4) 0.002(3) 0.001(3) 0.004(3)
O28 O2- 0.008(4) 0.012(4) 0.009(4) 0.003(3) -0.002(3) 0.002(3)
O29 O2- 0.004(4) 0.012(4) 0.021(4) 0.001(3) 0.003(3) 0.007(3)
O30 O2- 0.007(4) 0.014(4) 0.012(4) -0.002(3) 0.000(3) 0.006(3)
O31 O2- 0.011(4) 0.010(4) 0.007(4) -0.001(3) 0.000(3) -0.002(3)
O32 O2- 0.010(4) 0.009(4) 0.013(4) 0.000(3) 0.000(3) 0.002(3)
O33 O2- 0.009(4) 0.012(4) 0.007(4) -0.003(3) 0.002(3) 0.001(3)
O34 O2- 0.007(4) 0.016(4) 0.013(4) 0.000(3) 0.002(3) 0.005(3)
O35 O2- 0.010(4) 0.008(4) 0.016(4) -0.004(3) -0.001(3) 0.002(3)
O36 O2- 0.011(4) 0.007(4) 0.012(4) -0.002(3) -0.001(3) 0.003(3)
O37 O2- 0.007(4) 0.011(4) 0.017(4) 0.000(3) 0.003(3) 0.004(3)
O38 O2- 0.007(4) 0.011(4) 0.009(4) -0.001(3) 0.001(3) 0.003(3)
O39 O2- 0.010(4) 0.013(4) 0.013(4) -0.002(3) 0.001(3) 0.004(3)
O40 O2- 0.010(4) 0.011(4) 0.014(4) 0.004(3) 0.000(3) 0.007(3)
O41 O2- 0.019(4) 0.009(4) 0.014(4) 0.004(3) 0.001(3) -0.003(3)
O42 O2- 0.008(4) 0.011(4) 0.015(4) 0.000(3) 0.002(3) 0.003(3)
O43 O2- 0.005(4) 0.016(4) 0.013(4) -0.001(3) 0.004(3) 0.003(3)
O44 O2- 0.012(4) 0.016(4) 0.008(4) 0.002(3) 0.002(3) 0.001(3)
O45 O2- 0.010(4) 0.010(4) 0.022(4) -0.001(3) 0.000(3) 0.004(3)
O46 O2- 0.009(4) 0.007(4) 0.019(4) 0.001(3) 0.005(3) 0.006(3)
O47 O2- 0.008(4) 0.015(4) 0.015(4) -0.002(3) -0.005(3) 0.004(3)
O48 O2- 0.004(4) 0.015(4) 0.020(4) -0.002(3) 0.004(3) 0.001(3)
O49 O2- 0.011(4) 0.017(4) 0.020(4) -0.001(3) 0.002(3) 0.007(3)
O50 O2- 0.011(4) 0.010(4) 0.017(4) 0.004(3) 0.005(3) 0.006(3)
O51 O2- 0.014(4) 0.012(4) 0.009(4) 0.004(3) 0.006(3) 0.003(3)
O52 O2- 0.005(4) 0.012(4) 0.015(4) 0.001(3) 0.001(3) 0.003(3)
O53 O2- 0.010(4) 0.005(4) 0.012(4) -0.001(3) 0.000(3) 0.000(3)
O54 O2- 0.012(4) 0.023(5) 0.021(4) 0.007(3) 0.003(3) 0.006(4)
O55 O2- 0.018(4) 0.009(4) 0.012(4) -0.005(3) -0.002(3) 0.002(3)
O56 O2- 0.007(4) 0.014(4) 0.014(4) 0.003(3) -0.002(3) 0.001(3)
O57 O2- 0.008(4) 0.011(4) 0.010(4) 0.002(3) 0.000(3) 0.002(3)
O58 O2- 0.010(4) 0.012(4) 0.011(4) 0.000(3) 0.001(3) 0.003(3)
O59 O2- 0.007(4) 0.013(4) 0.012(4) -0.001(3) 0.000(3) 0.001(3)
O60 O2- 0.011(4) 0.016(4) 0.011(4) -0.002(3) 0.003(3) 0.000(3)
O61 O2- 0.008(4) 0.013(4) 0.014(4) -0.001(3) 0.000(3) 0.007(3)
O62 O2- 0.021(4) 0.012(4) 0.010(4) -0.002(3) 0.000(3) 0.003(3)
O63 O2- 0.015(4) 0.012(4) 0.010(4) -0.005(3) -0.002(3) 0.004(3)
O64 O2- 0.013(4) 0.013(4) 0.011(4) 0.000(3) 0.001(3) 0.004(3)
O65 O2- 0.004(4) 0.013(4) 0.013(4) 0.000(3) 0.001(3) 0.007(3)
O66 O2- 0.012(4) 0.015(4) 0.011(4) -0.004(3) -0.004(3) 0.001(3)
O67 O2- 0.013(4) 0.014(4) 0.019(4) -0.003(3) -0.003(3) 0.003(3)
O68 O2- 0.011(4) 0.018(4) 0.016(4) 0.001(3) -0.006(3) 0.000(3)
O69 O2- 0.017(4) 0.010(4) 0.015(4) 0.000(3) 0.004(3) 0.003(3)
O70 O2- 0.008(4) 0.013(4) 0.015(4) 0.002(3) 0.002(3) 0.006(3)
O71 O2- 0.020(4) 0.017(4) 0.015(4) 0.000(3) 0.002(3) 0.010(3)
O72 O2- 0.013(4) 0.012(4) 0.015(4) -0.004(3) 0.001(3) 0.004(3)
O73 O2- 0.020(4) 0.013(4) 0.016(4) -0.002(3) -0.003(3) -0.002(3)
O74 O2- 0.010(4) 0.019(4) 0.014(4) -0.002(3) -0.003(3) 0.004(3)
O75 O2- 0.011(4) 0.012(4) 0.007(4) -0.002(3) 0.000(3) 0.004(3)
O76 O2- 0.006(4) 0.014(4) 0.013(4) -0.003(3) 0.002(3) 0.003(3)
O77 O2- 0.009(4) 0.015(4) 0.014(4) 0.003(3) -0.001(3) 0.004(3)
O78 O2- 0.010(4) 0.010(4) 0.012(4) 0.003(3) 0.002(3) 0.002(3)
O79 O2- 0.014(4) 0.011(4) 0.007(4) -0.001(3) 0.000(3) 0.003(3)
O80 O2- 0.012(4) 0.020(4) 0.011(4) 0.000(3) 0.000(3) 0.005(3)
O81 O2- 0.008(4) 0.013(4) 0.010(4) 0.000(3) -0.001(3) 0.006(3)
O82 O2- 0.025(5) 0.011(4) 0.032(5) 0.001(4) -0.003(4) 0.009(4)
O83 O2- 0.001(3) 0.013(4) 0.011(4) 0.000(3) 0.002(3) 0.003(3)
O84 O2- 0.015(4) 0.017(4) 0.012(4) -0.003(3) -0.008(3) 0.002(3)
O85 O2- 0.016(4) 0.018(4) 0.013(4) -0.002(3) 0.003(3) 0.003(3)
O86 O2- 0.012(4) 0.008(4) 0.015(4) 0.000(3) 0.004(3) 0.001(3)
O87 O2- 0.013(4) 0.017(4) 0.014(4) 0.002(3) 0.001(3) 0.003(3)
O88 O2- 0.013(4) 0.012(4) 0.023(4) -0.004(3) 0.005(3) 0.007(3)
O89 O2- 0.015(4) 0.029(5) 0.023(5) 0.003(4) 0.000(3) 0.013(4)
O90 O2- 0.013(4) 0.016(4) 0.026(5) -0.006(3) 0.002(3) 0.000(4)
O91 O2- 0.012(4) 0.009(4) 0.015(4) 0.001(3) 0.003(3) 0.007(3)
O92 O2- 0.012(4) 0.019(4) 0.015(4) -0.003(3) 0.000(3) 0.004(3)
O93 O2- 0.014(4) 0.017(4) 0.028(5) -0.003(3) 0.004(3) 0.011(4)
O94 O2- 0.011(4) 0.017(4) 0.011(4) -0.001(3) 0.000(3) 0.006(3)
O95 O2- 0.015(4) 0.014(4) 0.029(5) 0.001(3) 0.002(4) 0.010(4)
O96 O2- 0.011(4) 0.010(4) 0.010(4) 0.001(3) -0.001(3) 0.002(3)
O97 O2- 0.011(4) 0.019(4) 0.024(4) -0.005(3) -0.004(3) 0.002(4)
O98 O2- 0.022(5) 0.023(5) 0.014(4) 0.002(4) 0.003(3) 0.006(3)
O99 O2- 0.013(4) 0.014(4) 0.018(4) -0.001(3) 0.002(3) 0.003(3)
O100 O2- 0.011(4) 0.016(4) 0.011(4) 0.001(3) -0.001(3) 0.005(3)
O101 O2- 0.013(4) 0.018(4) 0.019(4) 0.004(3) 0.007(3) 0.011(3)
O102 O2- 0.010(4) 0.016(4) 0.016(4) -0.002(3) -0.001(3) 0.004(3)
O104 O2- 0.010(4) 0.014(4) 0.021(4) -0.005(3) -0.001(3) 0.002(3)
O105 O2- 0.022(5) 0.025(5) 0.013(4) 0.002(4) 0.005(3) 0.011(3)
O106 O2- 0.018(4) 0.017(4) 0.018(4) 0.002(3) 0.000(3) 0.008(3)
O107 O2- 0.009(4) 0.017(4) 0.012(4) 0.002(3) 0.004(3) 0.005(3)
O108 O2- 0.012(4) 0.015(4) 0.011(4) -0.003(3) 0.001(3) 0.009(3)
O109 O2- 0.010(4) 0.015(4) 0.015(4) 0.003(3) -0.001(3) 0.000(3)
O110 O2- 0.011(4) 0.017(4) 0.010(4) 0.000(3) 0.002(3) 0.004(3)
O111 O2- 0.027(5) 0.016(4) 0.024(5) -0.004(4) -0.001(4) 0.009(4)
O112 O2- 0.011(4) 0.013(4) 0.016(4) -0.002(3) -0.002(3) 0.005(3)
O113 O2- 0.007(4) 0.010(4) 0.015(4) 0.000(3) 0.000(3) 0.000(3)
O114 O2- 0.011(4) 0.018(4) 0.014(4) 0.000(3) 0.001(3) 0.006(3)
O115 O2- 0.024(5) 0.028(5) 0.021(4) 0.002(4) 0.001(4) 0.013(4)
O116 O2- 0.023(5) 0.022(5) 0.011(4) 0.003(4) 0.002(3) -0.001(3)
O117 O2- 0.019(4) 0.013(4) 0.012(4) -0.002(3) 0.003(3) 0.003(3)
O118 O2- 0.015(4) 0.010(4) 0.014(4) -0.002(3) 0.005(3) 0.003(3)
O119 O2- 0.021(4) 0.016(4) 0.014(4) -0.005(3) 0.005(3) 0.002(3)
O120 O2- 0.022(5) 0.019(5) 0.018(4) -0.005(4) 0.000(4) -0.004(3)
O121 O2- 0.021(5) 0.019(5) 0.022(4) 0.002(4) 0.009(4) 0.000(4)
O122 O2- 0.011(4) 0.011(4) 0.015(4) -0.003(3) -0.001(3) 0.004(3)
O123 O2- 0.007(4) 0.008(4) 0.013(4) 0.002(3) 0.002(3) -0.001(3)
O124 O2- 0.014(4) 0.012(4) 0.011(4) 0.000(3) 0.003(3) 0.006(3)
O125 O2- 0.016(4) 0.016(4) 0.011(4) -0.001(3) 0.000(3) 0.004(3)
O126 O2- 0.012(4) 0.013(4) 0.017(4) -0.001(3) 0.002(3) 0.007(3)
O127 O2- 0.010(4) 0.020(4) 0.022(4) -0.007(3) 0.001(3) 0.008(3)
O128 O2- 0.019(4) 0.023(5) 0.017(4) 0.005(4) 0.010(3) 0.003(4)
O129 O2- 0.016(4) 0.019(4) 0.020(4) -0.001(3) 0.005(3) 0.008(3)
O130 O2- 0.010(4) 0.019(4) 0.010(4) 0.003(3) -0.002(3) 0.004(3)
O131 O2- 0.019(4) 0.010(4) 0.017(4) -0.002(3) 0.001(3) 0.008(3)
O132 O2- 0.017(4) 0.020(4) 0.014(4) 0.000(3) 0.003(3) 0.003(3)
O133 O2- 0.019(4) 0.018(4) 0.010(4) 0.005(3) 0.001(3) 0.004(3)
O134 O2- 0.008(4) 0.019(4) 0.018(4) -0.001(3) -0.002(3) 0.008(3)
O135 O2- 0.010(4) 0.017(4) 0.018(4) -0.002(3) 0.003(3) 0.005(3)
O136 O2- 0.019(4) 0.013(4) 0.013(4) 0.001(3) 0.001(3) 0.005(3)
O137 O2- 0.023(5) 0.023(5) 0.012(4) -0.001(4) 0.000(3) 0.005(3)
O138 O2- 0.012(4) 0.028(5) 0.023(5) 0.001(4) 0.004(3) 0.011(4)
O139 O2- 0.014(4) 0.020(4) 0.014(4) -0.002(3) 0.002(3) 0.002(3)
O140 O2- 0.025(5) 0.012(4) 0.029(5) 0.000(4) 0.008(4) 0.008(4)
O141 O2- 0.012(4) 0.019(5) 0.033(5) 0.000(3) 0.001(4) 0.001(4)
O142 O2- 0.022(5) 0.030(5) 0.038(5) -0.006(4) 0.010(4) 0.022(4)
O143 O2- 0.022(5) 0.030(5) 0.030(5) -0.009(4) 0.004(4) 0.012(4)
O144 O2- 0.012(4) 0.013(4) 0.019(4) 0.004(3) 0.001(3) 0.004(3)
O145 O2- 0.012(4) 0.021(5) 0.029(5) -0.005(3) -0.006(4) 0.005(4)
O146 O2- 0.016(4) 0.019(4) 0.015(4) -0.001(3) 0.002(3) 0.005(3)
O147 O2- 0.012(4) 0.012(4) 0.015(4) -0.003(3) 0.003(3) -0.002(3)
O148 O2- 0.012(4) 0.016(4) 0.013(4) -0.002(3) 0.002(3) 0.005(3)
O149 O2- 0.007(4) 0.012(4) 0.013(4) -0.001(3) -0.004(3) 0.001(3)
O150 O2- 0.015(4) 0.014(4) 0.021(4) 0.002(3) -0.001(3) 0.006(3)
O151 O2- 0.046(7) 0.059(8) 0.056(7) 0.019(6) 0.032(6) 0.021(6)
O152 O2- 0.035(6) 0.045(7) 0.036(6) 0.003(5) 0.015(5) 0.002(5)
O153 O2- 0.029(5) 0.027(5) 0.033(5) -0.001(4) -0.003(4) 0.011(4)
O154 O2- 0.043(7) 0.114(12) 0.046(7) 0.003(7) 0.031(6) 0.007(8)
O155 O2- 0.094(10) 0.029(6) 0.024(5) 0.023(6) 0.016(6) 0.003(4)
O156 O2- 0.129(16) 0.101(14) 0.088(12) 0.006(12) 0.061(11) 0.045(10)
O157 O2- 0.035(6) 0.045(6) 0.030(5) -0.004(5) -0.005(4) 0.010(5)
O158 O2- 0.059(8) 0.057(8) 0.029(6) -0.027(6) -0.011(5) 0.012(5)
O159 O2- 0.016(4) 0.027(5) 0.025(5) -0.001(4) -0.001(4) 0.005(4)
O160 O2- 0.049(8) 0.035(7) 0.106(11) -0.027(6) 0.027(8) -0.023(7)
O161 O2- 0.047(7) 0.079(9) 0.032(6) -0.008(6) -0.010(5) 0.015(6)
O162 O2- 0.045(6) 0.032(6) 0.026(5) 0.000(5) -0.001(4) 0.006(4)
O163 O2- 0.049(7) 0.048(7) 0.032(6) -0.023(6) -0.001(5) 0.000(5)
O164 O2- 0.017(5) 0.015(5) 0.052(6) 0.000(4) 0.016(4) -0.013(4)
O165 O2- 0.055(7) 0.042(6) 0.026(5) 0.002(5) 0.009(5) 0.008(5)
O166 O2- 0.040(6) 0.041(6) 0.040(6) -0.006(5) 0.022(5) 0.003(5)
O167 O2- 0.024(5) 0.042(6) 0.022(5) 0.001(4) -0.001(4) 0.006(4)
O168 O2- 0.049(7) 0.064(8) 0.053(7) -0.003(6) -0.014(6) 0.028(6)
O169 O2- 0.082(10) 0.087(11) 0.046(8) 0.012(8) 0.033(7) 0.013(7)
O170 O2- 0.062(9) 0.052(8) 0.058(8) 0.004(6) 0.011(7) -0.026(6)
O171 O2- 0.047(7) 0.051(7) 0.025(5) 0.024(5) 0.005(5) 0.017(5)
O172 O2- 0.162(17) 0.033(7) 0.063(9) -0.029(9) -0.022(10) 0.013(7)
O173 O2- 0.065(8) 0.029(6) 0.019(5) -0.005(5) 0.014(5) 0.000(4)
O174 O2- 0.081(10) 0.092(11) 0.050(8) -0.007(9) 0.026(7) 0.023(8)
O175 O2- 0.052(7) 0.081(9) 0.023(5) 0.039(6) 0.018(5) 0.015(6)
O176 O2- 0.014(7) 0.24(3) 0.118(15) 0.011(10) -0.013(8) -0.084(16)
O177 O2- 0.024(5) 0.029(6) 0.046(6) -0.003(4) -0.003(4) 0.007(5)
O178 O2- 0.139(14) 0.044(8) 0.034(7) -0.007(8) 0.004(8) 0.016(6)
O179 O2- 0.030(7) 0.012(6) 0.040(7) 0.008(5) 0.030(5) 0.009(5)
O180 O2- 0.067(8) 0.040(7) 0.059(8) 0.032(6) 0.027(6) 0.010(6)
O181 O2- 0.038(7) 0.053(8) 0.080(9) 0.011(6) -0.008(6) 0.001(7)
O182 O2- 0.045(7) 0.040(6) 0.036(6) -0.002(5) 0.008(5) 0.011(5)
O183 O2- 0.023(6) 0.074(9) 0.052(7) 0.000(6) 0.006(5) 0.013(6)
O184 O2- 0.051(7) 0.022(5) 0.030(5) -0.004(5) -0.016(5) 0.006(4)
O185 O2- 0.107(12) 0.108(12) 0.028(6) 0.070(10) 0.016(7) 0.006(7)
O186 O2- 0.016(5) 0.139(13) 0.030(6) -0.001(6) 0.001(4) 0.035(7)
O187 O2- 0.016(5) 0.065(8) 0.040(6) 0.008(5) 0.007(4) 0.018(5)
O188 O2- 0.049(7) 0.033(6) 0.046(7) 0.002(5) 0.005(5) -0.004(5)
O189 O2- 0.063(8) 0.065(8) 0.033(6) -0.011(7) 0.005(6) 0.010(6)
O205 O2- 0.114(12) 0.058(8) 0.018(5) 0.050(8) 0.002(6) 0.018(5)
O206 O2- 0.064(9) 0.054(9) 0.084(10) -0.019(7) 0.013(8) -0.015(7)
#End of TTdata_244326-ICSD