
#(C) 2019 by FIZ Karlsruhe - Leibniz Institute for Information Infrastructure.  All rights reserved.
data_244328-ICSD
_database_code_ICSD 244328
_audit_creation_date 2018-02-01
_chemical_name_systematic 'Polyoxoniobate nanocluster 81'
_chemical_formula_structural 'K13 Li3 Na17 Nb81 O259'
_chemical_formula_sum 'K13 Li3 Na17 Nb81 O259'
_exptl_crystal_density_diffrn 2.24
_cell_measurement_temperature 296.
_publ_section_title

;
Record high-nuclearity polyoxoniobates. Discrete nanoclusters Nb114, Nb81, and
Nb52, and extended frameworks based on Cu3Nb78 and Cu4Nb78
;
loop_
_citation_id
_citation_journal_full
_citation_year
_citation_journal_volume
_citation_page_first
_citation_page_last
_citation_journal_id_ASTM
primary 'Angewandte Chemie, International Edition' 2017 56 16288 16292 ACIEF5
loop_
_publ_author_name
'Jin, Lu'
'Zhu, Zeng-Kui'
'Wu, Yan-Lan'
'Qi, Yan-Jie'
'Li, Xin-Xiong'
'Zheng, Shou-Tian'
_cell_length_a 28.424(3)
_cell_length_b 28.424(3)
_cell_length_c 53.271(6)
_cell_angle_alpha 90
_cell_angle_beta 90
_cell_angle_gamma 120
_cell_volume 37272.78
_cell_formula_units_Z 4
_symmetry_space_group_name_H-M 'P -3'
_symmetry_Int_Tables_number 147
_refine_ls_R_factor_all 0.0872
loop_
_symmetry_equiv_pos_site_id
_symmetry_equiv_pos_as_xyz
1 'x-y, x, -z'
2 'y, -x+y, -z'
3 '-x, -y, -z'
4 '-x+y, -x, z'
5 '-y, x-y, z'
6 'x, y, z'
loop_
_atom_type_symbol
_atom_type_oxidation_number
Nb5+ 5
K1+ 1
Na1+ 1
Li1+ 1
O2- -2
loop_
_atom_site_label
_atom_site_type_symbol
_atom_site_symmetry_multiplicity
_atom_site_Wyckoff_symbol
_atom_site_fract_x
_atom_site_fract_y
_atom_site_fract_z
_atom_site_B_iso_or_equiv
_atom_site_occupancy
_atom_site_attached_hydrogens
Nb1 Nb5+ 6 g 0.54056(6) 0.79878(6) 0.42049(2) 0.0262(3) 1 0
Nb2 Nb5+ 6 g 0.54052(6) 0.79879(6) 0.07952(2) 0.0263(3) 1 0
Nb3 Nb5+ 6 g 0.47821(6) 0.87171(5) 0.07998(2) 0.0247(3) 1 0
Nb4 Nb5+ 6 g 0.47821(6) 0.87173(5) 0.41998(2) 0.0248(3) 1 0
Nb5 Nb5+ 6 g 0.47314(5) 0.73767(5) 0.14086(2) 0.0244(3) 1 0
Nb6 Nb5+ 6 g 0.41424(5) 0.80611(5) 0.35859(2) 0.0230(3) 1 0
Nb7 Nb5+ 6 g 0.55888(6) 0.95766(6) 0.31103(2) 0.0286(3) 1 0
Nb8 Nb5+ 6 g 0.41427(5) 0.80609(5) 0.14139(2) 0.0233(3) 1 0
Nb9 Nb5+ 6 g 0.55889(6) 0.95777(6) 0.18901(2) 0.0287(3) 1 0
Nb10 Nb5+ 6 g 0.47324(5) 0.73773(5) 0.35913(2) 0.0237(3) 1 0
Nb11 Nb5+ 6 g 0.55142(6) 1.00867(6) 0.41625(3) 0.0276(3) 1 0
Nb12 Nb5+ 6 g 0.47961(6) 0.80517(6) 0.19081(2) 0.0286(3) 1 0
Nb13 Nb5+ 6 g 0.55137(6) 1.00862(6) 0.08372(3) 0.0277(3) 1 0
Nb14 Nb5+ 6 g 0.63162(6) 0.87269(6) 0.18849(3) 0.0315(3) 1 0
Nb15 Nb5+ 6 g 0.63163(6) 0.87268(6) 0.31149(3) 0.0317(3) 1 0
Nb16 Nb5+ 6 g 0.47960(6) 0.80516(6) 0.30914(2) 0.0279(3) 1 0
Nb17 Nb5+ 6 g 0.59839(6) 1.11171(6) 0.12532(3) 0.0327(3) 1 0
Nb18 Nb5+ 6 g 0.48939(6) 0.95845(6) 0.36118(2) 0.0262(3) 1 0
Nb19 Nb5+ 6 g 0.59842(6) 1.11163(6) 0.37468(3) 0.0324(3) 1 0
Nb20 Nb5+ 6 g 0.48939(6) 0.95852(6) 0.13883(2) 0.0267(3) 1 0
Nb21 Nb5+ 6 g 0.61698(7) 0.93753(7) 0.08252(3) 0.0447(4) 1 0
Nb22 Nb5+ 6 g 0.66739(6) 1.10756(6) 0.43630(3) 0.0338(4) 1 0
Nb23 Nb5+ 6 g 0.61708(7) 0.93758(7) 0.41747(3) 0.0447(4) 1 0
Nb24 Nb5+ 6 g 0.66737(6) 1.10743(6) 0.06372(3) 0.0344(4) 1 0
Nb25 Nb5+ 6 g 0.58225(7) 0.97157(6) 0.02838(3) 0.0347(4) 1 0
Nb26 Nb5+ 6 g 0.58231(7) 0.97158(6) 0.47161(3) 0.0345(4) 1 0
Nb27 Nb5+ 6 g 0.66872(6) 1.11207(6) 0.32452(3) 0.0357(4) 1 0
Nb28 Nb5+ 6 g 0.62478(6) 0.80096(6) 0.13781(3) 0.0306(3) 1 0
Nb29 Nb5+ 6 g 0.62476(6) 0.80102(6) 0.36223(3) 0.0302(3) 1 0
Nb30 Nb5+ 6 g 0.67739(6) 0.86151(6) 0.08257(3) 0.0330(3) 1 0
Nb31 Nb5+ 6 g 0.67731(6) 0.86151(6) 0.41747(3) 0.0324(3) 1 0
Nb32 Nb5+ 6 g 0.66873(6) 1.11204(6) 0.17544(3) 0.0358(4) 1 0
Nb33 Nb5+ 6 g 0.73302(6) 1.17531(6) 0.12337(3) 0.0360(4) 1 0
Nb34 Nb5+ 6 g 0.73305(6) 1.17531(6) 0.37663(3) 0.0356(4) 1 0
Nb35 Nb5+ 6 g 0.69433(6) 1.00971(6) 0.31444(3) 0.0333(4) 1 0
Nb36 Nb5+ 6 g 0.77999(6) 0.89927(7) 0.37610(3) 0.0428(4) 1 0
Nb37 Nb5+ 6 g 0.69433(6) 1.00966(6) 0.18555(3) 0.0332(4) 1 0
Nb38 Nb5+ 6 g 0.78001(6) 0.89926(7) 0.12391(3) 0.0432(4) 1 0
Nb39 Nb5+ 6 g 0.64437(7) 0.89853(6) 0.47213(3) 0.0382(4) 1 0
Nb40 Nb5+ 6 g 0.64433(7) 0.89857(6) 0.02781(3) 0.0387(4) 1 0
Nb41 Nb5+ 6 g 0.78241(7) 0.97331(7) 0.43711(3) 0.0434(4) 1 0
Nb42 Nb5+ 6 g 0.78237(7) 0.97333(7) 0.06288(3) 0.0435(4) 1 0
Nb43 Nb5+ 6 g 0.71653(7) 1.03312(7) 0.02414(3) 0.0421(4) 1 0
Nb44 Nb5+ 6 g 0.78842(6) 0.97236(7) 0.17468(3) 0.0428(4) 1 0
Nb45 Nb5+ 6 g 0.71656(7) 1.03301(7) 0.47588(3) 0.0422(4) 1 0
Nb46 Nb5+ 6 g 0.78842(6) 0.97237(7) 0.32529(3) 0.0428(4) 1 0
Nb47 Nb5+ 6 g 0.79756(6) 1.10794(6) 0.15644(3) 0.0403(4) 1 0
Nb48 Nb5+ 6 g 0.85405(6) 1.03365(7) 0.12249(3) 0.0458(4) 1 0
Nb49 Nb5+ 6 g 0.85410(6) 1.03371(7) 0.37753(4) 0.0465(4) 1 0
Nb50 Nb5+ 6 g 0.79755(6) 1.10800(6) 0.34357(3) 0.0402(4) 1 0
Nb51 Nb5+ 6 g 0.68889(9) 0.94024(10) 0.36597(5) 0.0762(6) 1 0
Nb52 Nb5+ 6 g 0.68883(9) 0.94031(10) 0.13404(5) 0.0764(7) 1 0
Nb53 Nb5+ 6 g 0.62762(10) 1.01200(9) 0.36569(5) 0.0783(7) 1 0
Nb54 Nb5+ 6 g 0.62762(10) 1.01200(10) 0.13424(5) 0.0787(7) 1 0
K1 K1+ 6 g 0.7347(4) 0.9561(4) 0.24993(17) 0.069(2) 0.6 0
K2 K1+ 6 g 0.6827(7) 0.9415(7) 0.2498(3) 0.098(5) 0.4 0
K3 K1+ 6 g 0.6467(4) 1.0567(5) 0.25007(19) 0.086(3) 0.6 0
K4 K1+ 6 g 0.6283(6) 1.0032(6) 0.2496(3) 0.079(4) 0.4 0
K5 K1+ 2 d 0.3333 0.6667 0.17561(11) 0.0348(14) 1 0
K6 K1+ 6 g 0.7978(2) 1.1094(2) 0.08410(9) 0.0649(13) 1 0
K7 K1+ 6 g 0.7976(2) 1.1091(2) 0.41586(9) 0.0637(13) 1 0
K8 K1+ 6 g 0.54340(18) 0.65604(18) 0.14094(15) 0.094(2) 1 0
K9 K1+ 6 g 0.54330(19) 0.65596(18) 0.35896(15) 0.096(2) 1 0
K10 K1+ 2 d 0.3333 0.6667 0.38980(19) 0.079(3) 1 0
K11 K1+ 2 d 0.3333 0.6667 0.11026(19) 0.081(3) 1 0
K12 K1+ 2 d 0.3333 0.6667 0.32425(11) 0.0340(14) 1 0
K13 K1+ 6 g 0.4525(3) 0.6614(3) 0.03313(12) 0.105(2) 1 0
K14 K1+ 2 d 0.3333 0.6667 0.0529(3) 0.130(5) 1 0
Na1 Na1+ 6 g 0.8517(5) 1.0954(5) 0.5241(2) 0.112(4) 1 0
Na2 Na1+ 2 d 0.3333 0.6667 0.4471(3) 0.067(4) 1 0
Na3 Na1+ 6 g 0.4526(3) 0.6613(3) 0.46665(12) 0.0448(17) 1 0
Na4 Na1+ 6 g 0.3930(5) 0.7235(5) 0.2500(2) 0.122(5) 1 0
Na5 Na1+ 6 g 0.4856(3) 0.8847(3) 0.25000(12) 0.057(2) 1 0
Na6 Na1+ 6 g 0.5549(3) 0.8015(4) 0.24998(14) 0.069(2) 1 0
Na7 Na1+ 6 g 0.4338(4) 0.9564(4) 0.03081(15) 0.072(2) 1 0
Na8 Na1+ 6 g 0.9323(8) 0.9461(8) 0.3910(6) 0.251(12) 1 0
Na9 Na1+ 6 g 0.8522(5) 1.0956(5) -0.0240(2) 0.113(4) 1 0
Na10 Na1+ 6 g 0.4338(4) 0.9564(4) 0.46916(15) 0.073(3) 1 0
Na11 Na1+ 6 g 0.6104(4) 0.7487(4) 0.03108(19) 0.097(4) 1 0
Na12 Na1+ 6 g 0.6111(4) 0.7490(4) 0.46887(19) 0.105(4) 1 0
Li1 Li1+ 6 g 0.5535(10) 0.8759(10) 0.1366(5) 0.027 1 0
Li2 Li1+ 6 g 0.5532(11) 0.8755(11) 0.3635(5) 0.033 1 0
O1 O2- 6 g 0.4021(4) 0.7315(3) 0.13472(18) 0.023(2) 1 0
O2 O2- 6 g 0.6457(6) 1.0204(5) 0.0100(2) 0.053(3) 1 0
O3 O2- 6 g 0.7599(5) 1.0758(5) 0.4992(2) 0.062(4) 1 0
O4 O2- 6 g 0.7591(6) 1.0752(5) 0.0006(3) 0.064(4) 1 0
O5 O2- 6 g 0.3294(8) 0.5907(7) 0.4664(3) 0.089(6) 1 0
O6 O2- 6 g 0.2637(4) 0.6002(4) 0.08144(19) 0.035(3) 1 0
O7 O2- 6 g 0.3299(8) 0.5907(7) 0.0331(3) 0.092(6) 1 0
O8 O2- 6 g 0.2642(4) 0.6004(4) 0.4184(2) 0.038(3) 1 0
O9 O2- 6 g 0.8507(5) 1.1588(5) 0.1743(3) 0.068(4) 1 0
O10 O2- 6 g 0.7129(4) 1.0861(5) 0.4525(2) 0.045(3) 1 0
O11 O2- 6 g 0.5581(5) 0.8256(5) 0.30708(19) 0.041(3) 1 0
O12 O2- 6 g 0.6751(4) 0.9359(4) 0.40153(19) 0.028(2) 1 0
O13 O2- 6 g 0.4284(4) 0.8726(5) 0.4403(2) 0.042(3) 1 0
O14 O2- 6 g 0.4026(4) 0.7321(3) 0.36540(19) 0.023(2) 1 0
O15 O2- 6 g 0.6808(5) 0.8075(5) 0.4309(2) 0.049(3) 1 0
O16 O2- 6 g 0.6972(5) 0.9594(5) 0.4904(2) 0.049(3) 1 0
O17 O2- 6 g 0.8311(5) 0.9703(6) 0.4561(3) 0.066(4) 1 0
O18 O2- 6 g 0.6211(4) 0.8785(4) 0.14614(19) 0.026(2) 1 0
O19 O2- 6 g 0.4631(4) 0.7326(4) 0.32302(17) 0.030(2) 1 0
O20 O2- 6 g 0.8075(5) 0.9689(6) 0.2946(3) 0.066(4) 1 0
O21 O2- 6 g 0.6209(4) 0.8783(4) 0.35364(18) 0.026(2) 1 0
O22 O2- 6 g 0.4624(4) 0.7328(4) 0.17697(18) 0.028(2) 1 0
O23 O2- 6 g 0.6454(5) 1.0207(5) 0.4903(2) 0.050(3) 1 0
O24 O2- 6 g 0.3394(4) 0.7847(4) 0.36277(17) 0.029(2) 1 0
O25 O2- 6 g 0.3392(4) 0.7845(4) 0.13735(17) 0.027(2) 1 0
O26 O2- 6 g 0.5623(4) 0.9469(4) 0.14630(17) 0.025(2) 1 0
O27 O2- 6 g 0.5616(4) 0.9466(4) 0.35376(18) 0.025(2) 1 0
O28 O2- 6 g 0.6648(4) 1.0889(4) 0.13391(17) 0.028(2) 1 0
O29 O2- 6 g 0.6316(4) 1.0283(4) 0.3220(2) 0.043(3) 1 0
O30 O2- 6 g 0.6503(4) 0.8217(4) 0.1727(2) 0.037(3) 1 0
O31 O2- 6 g 0.5494(4) 0.7580(4) 0.35537(18) 0.028(2) 1 0
O32 O2- 6 g 0.6314(4) 1.0275(4) 0.1778(2) 0.041(3) 1 0
O33 O2- 6 g 0.4975(4) 0.9375(4) 0.10221(16) 0.021(2) 1 0
O34 O2- 6 g 0.4318(4) 0.8235(4) 0.39538(17) 0.023(2) 1 0
O35 O2- 6 g 0.6645(4) 1.0896(4) 0.36591(17) 0.029(2) 1 0
O36 O2- 6 g 0.6078(4) 1.0902(4) 0.08836(18) 0.032(2) 1 0
O37 O2- 6 g 0.4098(4) 0.7955(4) 0.17747(18) 0.028(2) 1 0
O38 O2- 6 g 0.7612(4) 0.9112(4) 0.4125(2) 0.039(3) 1 0
O39 O2- 6 g 0.6506(4) 0.8222(4) 0.3271(2) 0.035(3) 1 0
O40 O2- 6 g 0.4408(4) 0.8838(4) 0.35429(17) 0.027(2) 1 0
O41 O2- 6 g 0.8510(5) 1.1587(5) 0.3256(3) 0.067(4) 1 0
O42 O2- 6 g 0.6206(4) 0.9393(4) 0.18937(17) 0.032(3) 1 0
O43 O2- 6 g 0.8303(5) 1.0871(5) 0.1319(2) 0.051(3) 1 0
O44 O2- 6 g 0.4093(4) 0.7955(4) 0.32234(17) 0.026(2) 1 0
O45 O2- 6 g 0.5487(4) 0.7578(4) 0.14481(19) 0.033(3) 1 0
O46 O2- 6 g 0.6074(4) 1.0901(4) 0.41145(18) 0.033(3) 1 0
O47 O2- 6 g 0.7610(5) 0.9104(4) 0.0877(2) 0.040(3) 1 0
O48 O2- 6 g 0.6506(4) 0.9704(4) 0.44916(18) 0.034(3) 1 0
O49 O2- 6 g 0.6347(5) 0.8400(5) 0.4895(2) 0.051(3) 1 0
O50 O2- 6 g 0.4429(4) 0.9803(4) 0.36470(19) 0.031(2) 1 0
O51 O2- 6 g 0.6208(4) 0.9399(4) 0.31051(17) 0.032(3) 1 0
O52 O2- 6 g 0.4407(4) 0.8838(4) 0.14574(18) 0.029(2) 1 0
O53 O2- 6 g 0.4323(4) 0.8236(4) 0.10488(17) 0.024(2) 1 0
O54 O2- 6 g 0.7225(5) 1.1796(4) 0.1600(2) 0.041(3) 1 0
O55 O2- 6 g 0.4906(4) 0.7537(4) 0.39549(17) 0.024(2) 1 0
O56 O2- 6 g 0.6005(5) 1.0374(4) 0.05166(19) 0.036(3) 1 0
O57 O2- 6 g 0.6005(4) 1.0373(4) 0.4483(2) 0.037(3) 1 0
O58 O2- 6 g 0.7222(5) 1.1793(4) 0.3400(2) 0.041(3) 1 0
O59 O2- 6 g 0.7918(5) 0.8445(5) 0.1192(3) 0.059(4) 1 0
O60 O2- 6 g 0.4973(4) 0.9376(4) 0.39773(16) 0.025(2) 1 0
O61 O2- 6 g 0.4932(5) 0.8203(4) 0.06185(18) 0.035(3) 1 0
O62 O2- 6 g 0.4913(4) 0.8168(4) 0.14830(17) 0.026(2) 1 0
O63 O2- 6 g 0.6049(4) 0.8122(4) 0.10154(17) 0.025(2) 1 0
O64 O2- 6 g 0.7314(5) 1.0933(5) 0.1768(2) 0.048(3) 1 0
O65 O2- 6 g 0.5478(4) 1.1289(4) 0.3795(2) 0.037(3) 1 0
O66 O2- 6 g 0.4914(4) 0.8169(4) 0.35176(18) 0.026(2) 1 0
O67 O2- 6 g 0.7313(5) 1.0929(5) 0.3233(2) 0.049(3) 1 0
O68 O2- 6 g 0.4431(4) 0.9808(4) 0.1353(2) 0.034(3) 1 0
O69 O2- 6 g 0.4924(4) 0.8198(5) 0.43776(18) 0.034(3) 1 0
O70 O2- 6 g 0.7103(4) 0.9126(4) 0.0509(2) 0.037(3) 1 0
O71 O2- 6 g 0.6048(4) 0.8117(4) 0.39844(17) 0.028(2) 1 0
O72 O2- 6 g 0.6500(5) 0.9696(5) 0.05062(18) 0.039(3) 1 0
O73 O2- 6 g 0.9230(5) 1.0783(6) 0.1168(3) 0.069(4) 1 0
O74 O2- 6 g 0.4911(4) 0.7545(4) 0.10436(17) 0.026(2) 1 0
O75 O2- 6 g 0.5547(4) 1.0289(4) 0.37748(19) 0.034(3) 1 0
O76 O2- 6 g 0.7126(4) 1.0862(4) 0.04749(19) 0.041(3) 1 0
O77 O2- 6 g 0.8077(6) 0.9692(5) 0.2060(2) 0.065(4) 1 0
O78 O2- 6 g 0.7098(4) 0.9121(4) 0.4491(2) 0.039(3) 1 0
O79 O2- 6 g 0.7664(4) 0.9712(4) 0.13332(19) 0.029(2) 1 0
O80 O2- 6 g 0.5541(4) 0.8779(4) 0.40165(18) 0.025(2) 1 0
O81 O2- 6 g 0.5547(4) 1.0287(4) 0.12222(19) 0.035(3) 1 0
O82 O2- 6 g 0.5064(4) 0.8844(4) 0.19385(17) 0.033(3) 1 0
O83 O2- 6 g 0.7047(5) 1.0182(5) 0.2821(2) 0.046(3) 1 0
O84 O2- 6 g 0.6219(4) 0.9993(4) 0.40112(17) 0.025(2) 1 0
O85 O2- 6 g 0.7658(4) 0.9702(4) 0.36667(18) 0.029(2) 1 0
O86 O2- 6 g 0.7056(4) 0.9416(4) 0.1774(2) 0.043(3) 1 0
O87 O2- 6 g 0.5800(4) 0.9042(4) 0.01752(18) 0.034(3) 1 0
O88 O2- 6 g 0.7797(5) 1.1458(4) 0.3683(2) 0.043(3) 1 0
O89 O2- 6 g 0.7063(5) 0.9422(4) 0.3225(2) 0.042(3) 1 0
O90 O2- 6 g 0.5546(4) 0.8784(4) 0.09851(18) 0.025(2) 1 0
O91 O2- 6 g 0.5120(4) 0.9822(4) 0.32640(18) 0.031(2) 1 0
O92 O2- 6 g 0.8499(4) 0.9614(5) 0.1189(2) 0.045(3) 1 0
O93 O2- 6 g 0.8500(4) 0.9618(5) 0.3810(2) 0.045(3) 1 0
O94 O2- 6 g 0.5802(4) 0.9044(4) 0.48225(18) 0.035(3) 1 0
O95 O2- 6 g 0.5482(5) 1.1291(5) 0.1208(2) 0.046(3) 1 0
O96 O2- 6 g 0.7048(5) 1.0183(5) 0.2179(2) 0.047(3) 1 0
O97 O2- 6 g 0.5071(4) 0.8847(4) 0.30643(17) 0.034(3) 1 0
O98 O2- 6 g 0.5574(5) 0.8250(5) 0.19317(19) 0.044(3) 1 0
O99 O2- 6 g 0.4573(5) 0.7830(5) 0.27742(17) 0.040(3) 1 0
O100 O2- 6 g 0.6221(4) 0.9999(4) 0.09874(17) 0.028(2) 1 0
O101 O2- 6 g 0.8301(5) 0.9694(5) 0.0440(3) 0.064(4) 1 0
O102 O2- 6 g 0.6124(4) 0.8635(4) 0.4370(2) 0.037(3) 1 0
O103 O2- 6 g 0.6123(4) 0.8636(4) 0.0628(2) 0.038(3) 1 0
O104 O2- 6 g 0.7801(5) 1.1461(5) 0.1318(2) 0.045(3) 1 0
O105 O2- 6 g 0.5457(4) 0.9402(4) 0.06299(17) 0.027(2) 1 0
O106 O2- 6 g 0.6835(4) 1.0008(4) 0.14220(19) 0.034(3) 1 0
O107 O2- 6 g 0.6833(4) 1.0007(4) 0.35763(19) 0.035(3) 1 0
O108 O2- 6 g 0.6653(4) 1.1798(4) 0.3796(2) 0.034(3) 1 0
O109 O2- 6 g 0.4997(4) 1.0169(5) 0.0711(2) 0.038(3) 1 0
O110 O2- 6 g 0.6752(4) 0.9368(4) 0.09856(18) 0.027(2) 1 0
O111 O2- 6 g 0.4577(5) 0.7833(5) 0.22235(18) 0.045(3) 1 0
O112 O2- 6 g 0.7920(5) 0.8443(6) 0.3806(3) 0.060(4) 1 0
O113 O2- 6 g 0.7191(5) 1.1439(5) 0.4101(2) 0.044(3) 1 0
O114 O2- 6 g 0.6966(5) 0.8613(5) 0.3790(2) 0.049(3) 1 0
O115 O2- 6 g 0.6969(5) 0.8615(5) 0.1207(2) 0.047(3) 1 0
O116 O2- 6 g 0.5460(4) 0.9402(4) 0.43672(18) 0.030(2) 1 0
O117 O2- 6 g 0.8567(4) 1.0217(5) 0.3411(3) 0.052(3) 1 0
O118 O2- 6 g 0.6052(5) 1.1122(4) 0.3387(2) 0.043(3) 1 0
O119 O2- 6 g 0.4994(5) 1.0167(5) 0.4291(2) 0.040(3) 1 0
O120 O2- 6 g 0.5114(4) 0.9824(4) 0.17358(18) 0.035(3) 1 0
O121 O2- 6 g 0.7199(5) 1.1435(5) 0.0901(2) 0.045(3) 1 0
O122 O2- 6 g 0.6048(5) 1.1119(4) 0.1615(2) 0.045(3) 1 0
O123 O2- 6 g 0.6808(5) 0.8072(5) 0.0692(3) 0.058(4) 1 0
O124 O2- 6 g 0.5373(5) 0.7480(5) 0.0591(2) 0.050(3) 1 0
O125 O2- 6 g 0.6351(5) 0.8399(5) 0.0107(2) 0.052(3) 1 0
O126 O2- 6 g 0.7658(5) 1.0234(5) 0.4540(2) 0.046(3) 1 0
O127 O2- 6 g 0.6549(5) 0.8729(5) 0.2190(2) 0.045(3) 1 0
O128 O2- 6 g 0.8567(5) 1.0217(5) 0.1595(3) 0.055(3) 1 0
O129 O2- 6 g 0.7822(4) 0.9060(5) 0.3385(2) 0.049(3) 1 0
O130 O2- 6 g 0.5276(5) 0.9683(6) 0.0113(2) 0.057(4) 1 0
O131 O2- 6 g 0.6651(4) 1.1796(4) 0.1207(2) 0.040(3) 1 0
O132 O2- 6 g 0.7820(4) 0.9060(5) 0.1616(2) 0.050(3) 1 0
O133 O2- 6 g 0.7761(5) 1.0382(4) 0.1761(2) 0.045(3) 1 0
O134 O2- 6 g 0.8308(5) 1.0876(5) 0.3680(2) 0.051(3) 1 0
O135 O2- 6 g 0.5608(5) 0.9819(5) 0.28030(18) 0.039(3) 1 0
O136 O2- 6 g 0.7763(5) 1.0387(5) 0.3239(2) 0.045(3) 1 0
O137 O2- 6 g 0.7666(5) 1.0235(5) 0.0462(2) 0.044(3) 1 0
O138 O2- 6 g 0.5614(5) 0.9818(5) 0.21952(18) 0.037(3) 1 0
O139 O2- 6 g 0.6971(5) 0.9594(5) 0.0096(2) 0.051(3) 1 0
O140 O2- 6 g 0.6552(5) 0.8729(5) 0.28106(19) 0.046(3) 1 0
O141 O2- 6 g 0.4282(5) 0.8728(4) 0.0595(2) 0.041(3) 1 0
O142 O2- 6 g 0.5277(5) 0.9691(5) 0.4891(2) 0.052(3) 1 0
O143 O2- 6 g 0.7817(5) 1.2436(5) 0.1173(2) 0.052(3) 1 0
O144 O2- 6 g 0.6689(5) 1.1310(5) 0.2071(2) 0.052(4) 1 0
O145 O2- 6 g 0.6688(6) 1.1313(5) 0.2929(2) 0.058(4) 1 0
O146 O2- 6 g 0.7819(5) 1.2438(4) 0.3825(2) 0.050(3) 1 0
O147 O2- 6 g 0.6409(4) 0.7489(4) 0.1335(2) 0.042(3) 1 0
O148 O2- 6 g 0.6690(5) 1.1590(5) 0.0442(2) 0.051(3) 1 0
O149 O2- 6 g 0.8232(5) 1.0252(5) 0.4113(2) 0.054(3) 1 0
O150 O2- 6 g 0.9236(5) 1.0784(6) 0.3837(3) 0.069(4) 1 0
O151 O2- 6 g 0.5371(5) 0.7477(5) 0.4410(2) 0.049(3) 1 0
O152 O2- 6 g 0.6410(4) 0.7489(5) 0.3662(2) 0.046(3) 1 0
O153 O2- 6 g 0.6686(5) 1.1583(5) 0.4558(2) 0.047(3) 1 0
O154 O2- 6 g 0.8232(5) 1.0247(5) 0.0887(2) 0.051(3) 1 0
O155 O2- 6 g 0.5280(7) 0.6574(6) 0.0877(4) 0.105(7) 1 0
O156 O2- 6 g 0.5932(6) 0.9120(6) 0.2500(3) 0.070(4) 1 0
O157 O2- 6 g 0.5284(6) 0.6571(6) 0.4113(4) 0.106(7) 1 0
O158 O2- 6 g 0.7552(10) 1.0958(10) 0.2497(4) 0.142(8) 1 0
O159 O2- 6 g 0.3365(8) 0.7415(8) 0.2820(4) 0.118(7) 1 0
O160 O2- 6 g 0.3357(9) 0.7411(9) 0.2180(4) 0.128(8) 1 0
O161 O2- 6 g 0.8093(9) 1.0290(10) 0.5662(4) 0.136(8) 1 0
O162 O2- 6 g 0.8090(10) 1.0280(10) -0.0661(4) 0.144(8) 1 0
O163 O2- 6 g 0.5453(12) 0.7127(12) 0.3021(5) 0.184(11) 1 0
O164 O2- 6 g 0.5472(12) 0.7135(12) 0.1977(5) 0.177(11) 1 0
O165 O2- 6 g 0.8076(12) 1.1883(12) 0.0368(5) 0.174(10) 1 0
O166 O2- 6 g 0.5442(10) 0.6674(10) 0.0076(5) 0.154(9) 1 0
O167 O2- 6 g 0.6422(18) 0.8001(18) 0.2499(8) 0.125(14) 0.5 0
O168 O2- 6 g 0.7836(10) 1.0698(10) 0.2503(5) 0.052(7) 0.5 0
O169 O2- 2 c 1. 1. 0.4171(6) 0.088(10) 1 0
O170 O2- 6 g 0.5440(11) 0.6661(11) 0.4929(5) 0.161(10) 1 0
O171 O2- 6 g 0.8077(11) 1.1885(11) 0.4633(5) 0.166(10) 1 0
O172 O2- 2 c 1. 1. 0.3550(5) 0.073(8) 1 0
O173 O2- 6 g 0.5318(18) 1.0413(17) 0.2505(8) 0.123(14) 0.5 0
O174 O2- 6 g 0.8821(16) 1.0204(16) 0.5012(7) 0.107(12) 0.5 0
O175 O2- 6 g 0.6768(13) 1.0967(13) 0.2506(5) 0.177(11) 1 0
O176 O2- 6 g 0.7716(17) 0.9744(16) 0.2502(7) 0.101(12) 0.5 0
O177 O2- 6 g 0.8827(16) 1.0207(16) -0.0008(7) 0.106(12) 0.5 0
loop_
_atom_site_aniso_label
_atom_site_aniso_type_symbol
_atom_site_aniso_U_11
_atom_site_aniso_U_22
_atom_site_aniso_U_33
_atom_site_aniso_U_12
_atom_site_aniso_U_13
_atom_site_aniso_U_23
Nb1 Nb5+ 0.0338(8) 0.0262(7) 0.0197(7) 0.0158(6) -0.0051(6) -0.0013(6)
Nb2 Nb5+ 0.0338(8) 0.0274(8) 0.0194(7) 0.0165(7) 0.0043(6) 0.0009(6)
Nb3 Nb5+ 0.0303(8) 0.0275(7) 0.0180(7) 0.0157(6) 0.0012(6) 0.0016(6)
Nb4 Nb5+ 0.0307(8) 0.0281(8) 0.0172(7) 0.0159(6) -0.0010(6) -0.0013(6)
Nb5 Nb5+ 0.0254(7) 0.0233(7) 0.0221(7) 0.0105(6) 0.0014(6) 0.0021(5)
Nb6 Nb5+ 0.0239(7) 0.0244(7) 0.0181(7) 0.0101(6) -0.0015(5) -0.0017(5)
Nb7 Nb5+ 0.0300(8) 0.0305(8) 0.0182(7) 0.0098(7) -0.0008(6) 0.0016(6)
Nb8 Nb5+ 0.0232(7) 0.0244(7) 0.0195(7) 0.0100(6) 0.0017(5) 0.0013(5)
Nb9 Nb5+ 0.0304(8) 0.0313(8) 0.0182(7) 0.0107(7) 0.0003(6) -0.0013(6)
Nb10 Nb5+ 0.0256(7) 0.0236(7) 0.0199(7) 0.0108(6) -0.0021(5) -0.0023(5)
Nb11 Nb5+ 0.0329(8) 0.0279(8) 0.0239(7) 0.0167(7) -0.0026(6) -0.0038(6)
Nb12 Nb5+ 0.0319(8) 0.0309(8) 0.0164(7) 0.0108(7) 0.0003(6) 0.0027(6)
Nb13 Nb5+ 0.0332(8) 0.0281(8) 0.0236(7) 0.0168(7) 0.0040(6) 0.0040(6)
Nb14 Nb5+ 0.0330(8) 0.0291(8) 0.0266(8) 0.0112(7) -0.0042(6) 0.0042(6)
Nb15 Nb5+ 0.0336(8) 0.0302(8) 0.0262(8) 0.0122(7) 0.0056(6) -0.0030(6)
Nb16 Nb5+ 0.0315(8) 0.0305(8) 0.0147(7) 0.0104(7) -0.0001(6) -0.0023(6)
Nb17 Nb5+ 0.0362(9) 0.0266(8) 0.0377(9) 0.0176(7) 0.0045(7) -0.0009(6)
Nb18 Nb5+ 0.0266(7) 0.0287(8) 0.0226(7) 0.0135(6) -0.0028(6) 0.0002(6)
Nb19 Nb5+ 0.0362(9) 0.0264(8) 0.0371(9) 0.0175(7) -0.0041(7) 0.0009(6)
Nb20 Nb5+ 0.0269(8) 0.0290(8) 0.0240(7) 0.0137(6) 0.0032(6) -0.0001(6)
Nb21 Nb5+ 0.0437(10) 0.0426(10) 0.0378(9) 0.0141(8) 0.0066(8) 0.0061(7)
Nb22 Nb5+ 0.0395(9) 0.0285(8) 0.0310(8) 0.0153(7) -0.0087(7) -0.0084(6)
Nb23 Nb5+ 0.0438(10) 0.0435(10) 0.0372(9) 0.0146(8) -0.0056(8) -0.0039(7)
Nb24 Nb5+ 0.0395(9) 0.0284(8) 0.0328(8) 0.0152(7) 0.0094(7) 0.0085(6)
Nb25 Nb5+ 0.0487(10) 0.0350(9) 0.0211(8) 0.0215(8) 0.0061(7) 0.0067(6)
Nb26 Nb5+ 0.0483(10) 0.0352(9) 0.0210(8) 0.0216(8) -0.0049(7) -0.0056(6)
Nb27 Nb5+ 0.0393(9) 0.0290(8) 0.0324(8) 0.0122(7) -0.0038(7) 0.0040(6)
Nb28 Nb5+ 0.0318(8) 0.0259(8) 0.0346(8) 0.0147(7) -0.0003(6) 0.0049(6)
Nb29 Nb5+ 0.0321(8) 0.0263(8) 0.0332(8) 0.0153(7) -0.0003(6) -0.0047(6)
Nb30 Nb5+ 0.0344(8) 0.0293(8) 0.0371(9) 0.0173(7) 0.0107(7) 0.0052(7)
Nb31 Nb5+ 0.0342(8) 0.0290(8) 0.0361(8) 0.0172(7) -0.0103(7) -0.0056(6)
Nb32 Nb5+ 0.0379(9) 0.0291(8) 0.0329(9) 0.0112(7) 0.0038(7) -0.0032(6)
Nb33 Nb5+ 0.0367(9) 0.0236(8) 0.0434(9) 0.0118(7) 0.0056(7) 0.0024(7)
Nb34 Nb5+ 0.0364(9) 0.0239(8) 0.0425(9) 0.0121(7) -0.0053(7) -0.0023(7)
Nb35 Nb5+ 0.0324(8) 0.0318(8) 0.0280(8) 0.0102(7) 0.0050(6) -0.0010(6)
Nb36 Nb5+ 0.0298(9) 0.0378(9) 0.0643(11) 0.0195(7) -0.0067(8) -0.0097(8)
Nb37 Nb5+ 0.0314(8) 0.0314(8) 0.0287(8) 0.0097(7) -0.0045(6) 0.0007(6)
Nb38 Nb5+ 0.0301(9) 0.0387(9) 0.0637(11) 0.0195(8) 0.0061(8) 0.0097(8)
Nb39 Nb5+ 0.0513(10) 0.0373(9) 0.0283(8) 0.0238(8) -0.0147(7) -0.0010(7)
Nb40 Nb5+ 0.0517(10) 0.0380(9) 0.0285(8) 0.0240(8) 0.0154(7) 0.0028(7)
Nb41 Nb5+ 0.0365(9) 0.0385(9) 0.0559(11) 0.0192(8) -0.0191(8) -0.0086(8)
Nb42 Nb5+ 0.0374(9) 0.0382(9) 0.0562(11) 0.0198(8) 0.0200(8) 0.0082(8)
Nb43 Nb5+ 0.0505(10) 0.0400(9) 0.0358(9) 0.0225(8) 0.0201(8) 0.0098(7)
Nb44 Nb5+ 0.0328(9) 0.0407(10) 0.0524(10) 0.0165(8) -0.0073(8) 0.0076(8)
Nb45 Nb5+ 0.0490(10) 0.0405(9) 0.0362(9) 0.0217(8) -0.0207(8) -0.0100(7)
Nb46 Nb5+ 0.0327(9) 0.0409(10) 0.0529(10) 0.0169(8) 0.0062(8) -0.0085(8)
Nb47 Nb5+ 0.0310(9) 0.0351(9) 0.0480(10) 0.0114(7) -0.0019(7) 0.0029(7)
Nb48 Nb5+ 0.0266(8) 0.0407(10) 0.0686(12) 0.0157(8) 0.0045(8) 0.0076(8)
Nb49 Nb5+ 0.0271(9) 0.0420(10) 0.0701(12) 0.0172(8) -0.0046(8) -0.0067(9)
Nb50 Nb5+ 0.0315(9) 0.0345(9) 0.0473(10) 0.0111(7) 0.0017(7) -0.0029(7)
Nb51 Nb5+ 0.0615(14) 0.0713(15) 0.0895(16) 0.0285(12) -0.0048(12) -0.0133(12)
Nb52 Nb5+ 0.0612(14) 0.0705(15) 0.0892(16) 0.0266(12) 0.0048(12) 0.0133(12)
Nb53 Nb5+ 0.0752(16) 0.0620(14) 0.0870(17) 0.0264(12) -0.0096(13) 0.0034(12)
Nb54 Nb5+ 0.0764(16) 0.0636(14) 0.0853(16) 0.0270(12) 0.0117(13) -0.0018(12)
K5 K1+ 0.036(2) 0.036(2) 0.032(3) 0.0180(11) 0. 0.
K6 K1+ 0.070(3) 0.067(3) 0.069(3) 0.043(3) -0.004(3) -0.007(2)
K7 K1+ 0.071(3) 0.065(3) 0.065(3) 0.041(3) 0.002(2) 0.007(2)
K8 K1+ 0.033(2) 0.027(2) 0.219(7) 0.012(2) 0.003(3) 0.000(3)
K9 K1+ 0.035(3) 0.029(2) 0.223(8) 0.015(2) -0.004(3) 0.001(3)
K10 K1+ 0.071(4) 0.071(4) 0.094(7) 0.0356(19) 0. 0.
K11 K1+ 0.073(4) 0.073(4) 0.097(7) 0.0366(19) 0. 0.
K12 K1+ 0.035(2) 0.035(2) 0.033(3) 0.0173(11) 0. 0.
K13 K1+ 0.109(5) 0.104(5) 0.088(4) 0.044(4) 0.006(4) 0.003(4)
K14 K1+ 0.131(7) 0.131(7) 0.130(11) 0.065(4) 0. 0.
Na1 Na1+ 0.096(8) 0.112(9) 0.149(10) 0.067(7) -0.052(7) -0.066(8)
Na2 Na1+ 0.074(6) 0.074(6) 0.053(8) 0.037(3) 0. 0.
Na3 Na1+ 0.052(4) 0.046(4) 0.027(3) 0.017(4) -0.006(3) -0.001(3)
Na4 Na1+ 0.110(9) 0.126(10) 0.067(7) 0.011(8) 0.002(6) 0.011(6)
Na5 Na1+ 0.097(6) 0.043(4) 0.018(3) 0.025(4) 0.000(4) 0.003(3)
Na6 Na1+ 0.061(5) 0.120(8) 0.038(4) 0.056(5) -0.004(4) -0.003(4)
Na7 Na1+ 0.090(7) 0.068(6) 0.057(5) 0.040(5) 0.003(5) 0.027(4)
Na8 Na1+ 0.165(18) 0.123(14) 0.46(4) 0.068(13) -0.03(2) -0.008(19)
Na9 Na1+ 0.102(8) 0.121(9) 0.149(10) 0.080(8) 0.058(7) 0.071(8)
Na10 Na1+ 0.103(7) 0.071(6) 0.049(5) 0.046(5) -0.002(5) -0.024(4)
Na11 Na1+ 0.092(7) 0.093(7) 0.090(7) 0.033(6) 0.042(6) -0.026(6)
Na12 Na1+ 0.093(8) 0.099(8) 0.095(7) 0.028(6) -0.046(6) 0.029(6)
O1 O2- 0.020(5) 0.011(5) 0.030(6) 0.003(4) 0.009(4) 0.003(4)
O2 O2- 0.081(10) 0.055(8) 0.031(7) 0.041(8) 0.026(6) 0.023(6)
O3 O2- 0.060(9) 0.045(8) 0.071(9) 0.019(7) -0.048(7) -0.024(7)
O4 O2- 0.061(9) 0.046(8) 0.073(10) 0.018(7) 0.046(8) 0.019(7)
O5 O2- 0.141(16) 0.095(13) 0.053(10) 0.075(12) 0.008(9) -0.015(8)
O6 O2- 0.045(7) 0.043(7) 0.020(6) 0.023(6) -0.005(5) -0.001(5)
O7 O2- 0.151(17) 0.087(12) 0.058(10) 0.074(12) -0.024(10) 0.015(8)
O8 O2- 0.044(7) 0.037(7) 0.035(7) 0.023(6) 0.000(5) -0.001(5)
O9 O2- 0.040(8) 0.043(8) 0.098(11) 0.005(7) -0.028(8) -0.011(8)
O10 O2- 0.034(7) 0.042(7) 0.044(7) 0.008(6) -0.017(5) -0.004(6)
O11 O2- 0.061(8) 0.040(7) 0.027(6) 0.029(6) 0.006(5) -0.006(5)
O12 O2- 0.025(6) 0.016(5) 0.042(6) 0.009(5) -0.002(5) -0.005(4)
O13 O2- 0.038(7) 0.046(7) 0.043(7) 0.023(6) 0.016(5) -0.009(6)
O14 O2- 0.020(5) 0.011(5) 0.036(6) 0.006(4) -0.008(4) 0.001(4)
O15 O2- 0.054(8) 0.031(7) 0.066(8) 0.024(6) -0.011(7) -0.012(6)
O16 O2- 0.057(8) 0.048(8) 0.035(7) 0.022(7) -0.020(6) 0.003(6)
O17 O2- 0.044(8) 0.068(9) 0.094(11) 0.035(7) -0.055(8) -0.031(8)
O18 O2- 0.018(5) 0.017(5) 0.044(6) 0.010(4) 0.006(4) 0.010(4)
O19 O2- 0.036(6) 0.032(6) 0.012(5) 0.010(5) -0.014(4) -0.009(4)
O20 O2- 0.048(8) 0.059(9) 0.064(9) 0.007(7) 0.011(7) -0.023(7)
O21 O2- 0.025(6) 0.022(5) 0.034(6) 0.013(5) 0.005(5) -0.001(4)
O23 O2- 0.071(9) 0.059(8) 0.029(7) 0.038(7) -0.027(6) -0.024(6)
O24 O2- 0.025(6) 0.031(6) 0.022(5) 0.007(5) -0.008(4) -0.015(4)
O25 O2- 0.022(5) 0.026(6) 0.021(5) 0.002(5) -0.001(4) 0.006(4)
O26 O2- 0.019(5) 0.024(5) 0.023(5) 0.005(4) 0.007(4) -0.003(4)
O27 O2- 0.020(5) 0.017(5) 0.032(6) 0.004(4) -0.008(4) 0.000(4)
O28 O2- 0.037(6) 0.036(6) 0.011(5) 0.017(5) 0.004(4) 0.001(4)
O29 O2- 0.030(6) 0.033(7) 0.069(8) 0.017(6) -0.009(6) -0.005(6)
O30 O2- 0.029(6) 0.034(6) 0.046(7) 0.015(5) -0.019(5) -0.007(5)
O31 O2- 0.024(6) 0.023(5) 0.035(6) 0.011(5) 0.010(5) 0.001(5)
O32 O2- 0.027(6) 0.035(7) 0.057(8) 0.012(5) 0.006(5) 0.001(6)
O35 O2- 0.029(6) 0.037(6) 0.013(5) 0.011(5) -0.012(4) -0.004(4)
O36 O2- 0.038(6) 0.039(6) 0.021(6) 0.022(5) 0.011(5) 0.005(5)
O38 O2- 0.037(7) 0.035(7) 0.050(7) 0.021(6) -0.014(5) -0.018(5)
O39 O2- 0.030(6) 0.038(7) 0.040(7) 0.018(5) 0.015(5) 0.002(5)
O40 O2- 0.019(5) 0.030(6) 0.022(5) 0.005(5) -0.001(4) -0.002(4)
O41 O2- 0.030(7) 0.052(9) 0.106(12) 0.009(6) 0.023(7) 0.016(8)
O42 O2- 0.030(6) 0.030(6) 0.019(5) 0.003(5) -0.011(4) -0.008(4)
O43 O2- 0.068(9) 0.060(8) 0.038(7) 0.041(8) 0.007(6) 0.011(6)
O44 O2- 0.031(6) 0.026(6) 0.017(5) 0.011(5) -0.011(4) -0.013(4)
O45 O2- 0.037(6) 0.021(6) 0.042(7) 0.016(5) -0.010(5) -0.008(5)
O46 O2- 0.038(6) 0.043(7) 0.024(6) 0.025(6) -0.008(5) -0.003(5)
O47 O2- 0.041(7) 0.037(7) 0.052(7) 0.027(6) 0.007(6) 0.004(6)
O48 O2- 0.050(7) 0.042(7) 0.017(5) 0.028(6) -0.016(5) -0.009(5)
O49 O2- 0.074(9) 0.063(9) 0.032(7) 0.046(8) -0.017(6) -0.002(6)
O50 O2- 0.026(6) 0.031(6) 0.034(6) 0.014(5) -0.001(5) 0.002(5)
O51 O2- 0.026(6) 0.036(6) 0.017(5) 0.003(5) 0.007(4) 0.003(4)
O52 O2- 0.024(6) 0.032(6) 0.029(6) 0.012(5) 0.005(4) 0.009(5)
O54 O2- 0.042(7) 0.022(6) 0.045(7) 0.005(5) -0.001(5) -0.001(5)
O56 O2- 0.048(7) 0.033(6) 0.038(6) 0.027(6) 0.017(5) 0.014(5)
O57 O2- 0.042(7) 0.037(6) 0.041(7) 0.027(6) -0.010(5) -0.011(5)
O58 O2- 0.044(7) 0.022(6) 0.045(7) 0.008(5) -0.003(6) 0.004(5)
O59 O2- 0.050(8) 0.050(8) 0.084(10) 0.029(7) 0.026(7) 0.012(7)
O60 O2- 0.033(6) 0.024(5) 0.009(5) 0.008(5) -0.004(4) 0.001(4)
O61 O2- 0.048(7) 0.043(7) 0.021(6) 0.027(6) 0.013(5) 0.002(5)
O62 O2- 0.027(6) 0.022(5) 0.022(5) 0.008(5) -0.002(4) -0.001(4)
O63 O2- 0.029(6) 0.024(5) 0.016(5) 0.008(5) -0.006(4) -0.002(4)
O64 O2- 0.047(8) 0.050(8) 0.051(8) 0.027(7) -0.012(6) -0.009(6)
O65 O2- 0.041(7) 0.037(6) 0.043(7) 0.027(6) -0.004(5) -0.006(5)
O66 O2- 0.021(5) 0.021(5) 0.029(6) 0.006(4) 0.006(4) 0.003(4)
O67 O2- 0.043(7) 0.051(8) 0.050(8) 0.020(6) 0.003(6) 0.003(6)
O68 O2- 0.028(6) 0.029(6) 0.045(7) 0.013(5) -0.001(5) -0.003(5)
O69 O2- 0.043(7) 0.054(7) 0.016(5) 0.031(6) -0.006(5) -0.008(5)
O70 O2- 0.035(6) 0.036(6) 0.041(7) 0.019(5) 0.018(5) 0.012(5)
O71 O2- 0.032(6) 0.032(6) 0.017(5) 0.014(5) -0.003(4) -0.002(4)
O72 O2- 0.056(8) 0.054(8) 0.018(6) 0.035(7) 0.015(5) 0.011(5)
O73 O2- 0.033(7) 0.065(10) 0.113(12) 0.027(7) 0.006(8) -0.005(9)
O74 O2- 0.034(6) 0.026(6) 0.021(5) 0.016(5) 0.004(4) 0.014(4)
O75 O2- 0.041(7) 0.038(6) 0.028(6) 0.023(6) -0.013(5) 0.005(5)
O76 O2- 0.041(7) 0.035(7) 0.031(6) 0.009(6) 0.022(5) 0.003(5)
O77 O2- 0.061(9) 0.054(9) 0.052(8) 0.008(7) -0.017(7) 0.009(7)
O78 O2- 0.035(6) 0.036(7) 0.041(7) 0.014(5) -0.025(5) -0.012(5)
O79 O2- 0.021(5) 0.030(6) 0.040(6) 0.016(5) 0.003(5) 0.003(5)
O80 O2- 0.024(5) 0.024(5) 0.028(6) 0.013(5) -0.009(4) -0.011(4)
O81 O2- 0.038(7) 0.038(6) 0.029(6) 0.019(5) 0.016(5) 0.001(5)
O82 O2- 0.042(7) 0.042(7) 0.011(5) 0.019(6) 0.000(5) -0.003(5)
O83 O2- 0.044(7) 0.042(7) 0.028(6) 0.004(6) 0.012(5) 0.003(5)
O84 O2- 0.020(5) 0.021(5) 0.029(6) 0.006(4) 0.000(4) 0.000(4)
O85 O2- 0.036(6) 0.028(6) 0.032(6) 0.021(5) -0.001(5) -0.005(5)
O86 O2- 0.030(6) 0.036(7) 0.057(8) 0.014(5) 0.004(6) 0.025(6)
O87 O2- 0.037(6) 0.030(6) 0.021(6) 0.007(5) 0.013(5) 0.001(5)
O88 O2- 0.047(7) 0.033(7) 0.053(7) 0.023(6) -0.003(6) -0.008(6)
O89 O2- 0.045(7) 0.031(6) 0.051(7) 0.021(6) 0.001(6) -0.014(5)
O90 O2- 0.021(5) 0.019(5) 0.031(6) 0.007(4) 0.005(4) 0.009(4)
O91 O2- 0.031(6) 0.033(6) 0.023(6) 0.013(5) -0.004(5) 0.009(5)
O92 O2- 0.021(6) 0.039(7) 0.079(9) 0.019(5) 0.015(6) 0.014(6)
O93 O2- 0.023(6) 0.044(7) 0.078(9) 0.024(6) -0.021(6) -0.021(6)
O94 O2- 0.038(6) 0.031(6) 0.024(6) 0.008(5) -0.006(5) -0.004(5)
O95 O2- 0.054(8) 0.045(7) 0.050(8) 0.034(7) 0.001(6) 0.002(6)
O96 O2- 0.040(7) 0.041(7) 0.033(7) 0.000(6) -0.007(5) 0.000(5)
O97 O2- 0.043(7) 0.049(7) 0.008(5) 0.023(6) -0.009(5) -0.005(5)
O98 O2- 0.063(8) 0.040(7) 0.025(6) 0.023(6) -0.001(5) 0.011(5)
O99 O2- 0.048(7) 0.046(7) 0.007(5) 0.010(6) -0.005(5) -0.008(5)
O100 O2- 0.030(6) 0.022(5) 0.023(5) 0.006(5) 0.002(4) -0.001(4)
O101 O2- 0.046(8) 0.064(9) 0.097(11) 0.038(7) 0.054(8) 0.031(8)
O102 O2- 0.039(7) 0.024(6) 0.037(6) 0.008(5) -0.013(5) -0.008(5)
O103 O2- 0.040(7) 0.028(6) 0.038(7) 0.011(5) 0.016(5) 0.013(5)
O104 O2- 0.046(7) 0.041(7) 0.055(8) 0.027(6) -0.001(6) 0.014(6)
O105 O2- 0.028(6) 0.024(5) 0.020(5) 0.006(5) 0.006(4) 0.010(4)
O106 O2- 0.030(6) 0.038(6) 0.030(6) 0.013(5) 0.004(5) 0.014(5)
O107 O2- 0.025(6) 0.040(7) 0.031(6) 0.009(5) -0.003(5) -0.011(5)
O108 O2- 0.027(6) 0.019(6) 0.046(7) 0.004(5) -0.007(5) 0.002(5)
O109 O2- 0.040(7) 0.052(7) 0.035(6) 0.032(6) 0.007(5) 0.009(5)
O110 O2- 0.031(6) 0.017(5) 0.033(6) 0.012(5) 0.006(5) 0.007(4)
O111 O2- 0.053(8) 0.050(8) 0.012(5) 0.011(6) 0.009(5) 0.012(5)
O112 O2- 0.052(8) 0.062(9) 0.077(10) 0.035(8) -0.013(7) 0.003(7)
O113 O2- 0.058(8) 0.045(7) 0.028(6) 0.025(6) -0.014(6) -0.008(5)
O114 O2- 0.035(7) 0.047(8) 0.051(8) 0.011(6) 0.002(6) -0.006(6)
O115 O2- 0.035(7) 0.052(8) 0.043(7) 0.013(6) -0.002(6) 0.005(6)
O116 O2- 0.031(6) 0.025(6) 0.024(6) 0.007(5) -0.012(5) -0.012(4)
O117 O2- 0.025(6) 0.038(7) 0.082(10) 0.009(6) 0.001(6) 0.003(7)
O118 O2- 0.058(8) 0.037(7) 0.039(7) 0.028(6) -0.015(6) 0.003(5)
O119 O2- 0.040(7) 0.046(7) 0.039(7) 0.025(6) 0.001(5) -0.004(5)
O120 O2- 0.040(7) 0.036(6) 0.025(6) 0.016(5) 0.009(5) -0.010(5)
O121 O2- 0.047(7) 0.048(8) 0.034(7) 0.020(6) 0.014(5) 0.012(6)
O122 O2- 0.058(8) 0.034(7) 0.046(7) 0.025(6) 0.017(6) 0.000(5)
O123 O2- 0.059(9) 0.039(7) 0.085(10) 0.031(7) 0.018(7) 0.018(7)
O124 O2- 0.046(8) 0.042(7) 0.067(9) 0.026(6) -0.010(6) -0.029(6)
O125 O2- 0.078(10) 0.070(9) 0.027(6) 0.050(8) 0.025(6) 0.008(6)
O126 O2- 0.035(7) 0.041(7) 0.062(8) 0.020(6) -0.007(6) -0.009(6)
O127 O2- 0.048(7) 0.048(8) 0.032(7) 0.018(6) -0.013(5) 0.003(5)
O128 O2- 0.033(7) 0.039(7) 0.094(10) 0.018(6) -0.003(7) 0.005(7)
O129 O2- 0.020(6) 0.055(8) 0.062(8) 0.011(6) -0.006(6) -0.017(6)
O130 O2- 0.056(8) 0.069(9) 0.041(7) 0.028(7) -0.008(6) 0.019(6)
O131 O2- 0.031(6) 0.028(6) 0.048(7) 0.005(5) 0.006(5) 0.005(5)
O132 O2- 0.024(6) 0.059(8) 0.062(8) 0.016(6) 0.005(6) 0.019(7)
O133 O2- 0.039(7) 0.030(6) 0.052(8) 0.007(6) -0.018(6) -0.002(5)
O134 O2- 0.054(8) 0.063(9) 0.043(7) 0.034(7) -0.001(6) -0.005(6)
O135 O2- 0.050(7) 0.052(7) 0.018(6) 0.029(6) 0.001(5) 0.008(5)
O136 O2- 0.040(7) 0.036(7) 0.056(8) 0.017(6) 0.020(6) 0.009(6)
O137 O2- 0.035(7) 0.044(7) 0.060(8) 0.024(6) 0.007(6) -0.001(6)
O138 O2- 0.048(7) 0.047(7) 0.021(6) 0.027(6) -0.005(5) -0.010(5)
O139 O2- 0.062(9) 0.047(8) 0.043(7) 0.025(7) 0.033(6) 0.011(6)
O140 O2- 0.051(8) 0.053(8) 0.026(6) 0.022(6) 0.013(5) -0.009(5)
O141 O2- 0.044(7) 0.031(6) 0.048(7) 0.020(6) -0.014(6) 0.005(5)
O142 O2- 0.056(8) 0.058(8) 0.036(7) 0.022(7) 0.009(6) -0.018(6)
O143 O2- 0.039(7) 0.031(7) 0.078(9) 0.013(6) 0.007(7) -0.001(6)
O144 O2- 0.073(9) 0.042(7) 0.021(6) 0.014(7) 0.010(6) -0.010(5)
O145 O2- 0.092(11) 0.039(7) 0.027(7) 0.022(7) -0.016(6) 0.013(5)
O146 O2- 0.045(7) 0.025(6) 0.074(9) 0.012(6) -0.009(7) -0.008(6)
O147 O2- 0.034(7) 0.036(7) 0.061(8) 0.021(6) 0.010(6) 0.007(6)
O148 O2- 0.057(8) 0.047(8) 0.050(8) 0.026(7) 0.023(6) 0.023(6)
O149 O2- 0.055(8) 0.060(9) 0.054(8) 0.034(7) -0.003(7) -0.007(7)
O150 O2- 0.034(8) 0.073(10) 0.103(12) 0.030(7) -0.010(8) -0.010(9)
O151 O2- 0.044(7) 0.038(7) 0.067(8) 0.022(6) 0.014(6) 0.031(6)
O152 O2- 0.030(6) 0.039(7) 0.072(9) 0.020(6) -0.017(6) -0.010(6)
O153 O2- 0.057(8) 0.044(7) 0.041(7) 0.026(7) -0.012(6) -0.022(6)
O154 O2- 0.046(8) 0.046(8) 0.064(9) 0.026(7) 0.002(6) 0.001(6)
O155 O2- 0.077(12) 0.049(10) 0.20(2) 0.041(9) -0.008(13) -0.007(11)
O157 O2- 0.056(10) 0.049(10) 0.22(2) 0.031(8) 0.017(12) 0.015(11)
O169 O2- 0.031(8) 0.031(8) 0.20(3) 0.015(4) 0. 0.
O172 O2- 0.046(9) 0.046(9) 0.13(2) 0.023(4) 0. 0.
#End of TTdata_244328-ICSD