
#(C) 2019 by FIZ Karlsruhe - Leibniz Institute for Information Infrastructure.  All rights reserved.
data_244409-ICSD
_database_code_ICSD 244409
_audit_creation_date 2018-02-01
_chemical_name_systematic 'Sodium manganese silicate'
_chemical_formula_structural 'Na2 Mn Si O4'
_chemical_formula_sum 'Mn1 Na2 O4 Si1'
_chemical_name_structure_type Li2BeSiO4
_exptl_crystal_density_diffrn 3.05
_cell_measurement_temperature 298.
_publ_section_title

;
A2MnXO4 family (A = Li, Na, Ag; X = Si, Ge). Structural and magnetic
properties
;
loop_
_citation_id
_citation_journal_full
_citation_year
_citation_journal_volume
_citation_page_first
_citation_page_last
_citation_journal_id_ASTM
primary 'Inorganic Chemistry' 2017 56 14023 14039 INOCAJ
loop_
_publ_author_name
'Nalbandyan, Vladimir B.'
'Zvereva, Elena A.'
'Shukaev, Igor L.'
'Gordon, Elijah'
'Politaev, Vladimir V.'
'Whangbo, Myung-Hwan'
'Petrenko, Aleksandr A.'
'Denisov, Roman S.'
'Markina, Maria M.'
'Tzschoppe, Michael'
'Bukhteev, Kirill Yu.'
'Klingeler, Ruediger'
'Vasiliev, Alexander N.'
_cell_length_a 7.02857(7)
_cell_length_b 5.60957(5)
_cell_length_c 5.33391(5)
_cell_angle_alpha 90.
_cell_angle_beta 89.7949(13)
_cell_angle_gamma 90.
_cell_volume 210.3
_cell_formula_units_Z 2
_symmetry_space_group_name_H-M 'P 1 n 1'
_symmetry_Int_Tables_number 7
_refine_ls_R_factor_all 0.0513
loop_
_symmetry_equiv_pos_site_id
_symmetry_equiv_pos_as_xyz
1 'x+1/2, -y, z+1/2'
2 'x, y, z'
loop_
_atom_type_symbol
_atom_type_oxidation_number
Mn2+ 2
Si4+ 4
Na1+ 1
O2- -2
loop_
_atom_site_label
_atom_site_type_symbol
_atom_site_symmetry_multiplicity
_atom_site_Wyckoff_symbol
_atom_site_fract_x
_atom_site_fract_y
_atom_site_fract_z
_atom_site_B_iso_or_equiv
_atom_site_occupancy
_atom_site_attached_hydrogens
Mn1 Mn2+ 2 a 0.0018(6) 0.18285(19) -0.0125(10) 0.02177 1. 0
Si1 Si4+ 2 a 0.24927(20) 0.68845(34) -0.0164(4) 0.0155(5) 1. 0
Na1 Na1+ 2 a 0.75969(32) 0.6672(5) 0.9660(4) 0.0345(8) 1. 0
Na2 Na1+ 2 a 0.50243(22) 0.1880(4) 0.9699(4) 0.0166(6) 1. 0
O1 O2- 2 a 0.55595(24) 0.1737(8) 0.4080(4) 0.0172(16) 1. 0
O2 O2- 2 a 0.27034(26) 0.7036(9) 0.30351(33) 0.0030(13) 1. 0
O3 O2- 2 a 0.72240(27) 0.5770(7) 0.4180(4) 0.0178(13) 1. 0
O4 O2- 2 a 0.93143(26) 0.1998(9) 0.3665(4) 0.0193(16) 1. 0
loop_
_atom_site_aniso_label
_atom_site_aniso_type_symbol
_atom_site_aniso_U_11
_atom_site_aniso_U_22
_atom_site_aniso_U_33
_atom_site_aniso_U_12
_atom_site_aniso_U_13
_atom_site_aniso_U_23
Mn1 Mn2+ 0.0151(5) 0.0371(6) 0.0132(5) 0.0078(13) -0.0130(8) 0.0123(14)
#End of TTdata_244409-ICSD