
#(C) 2019 by FIZ Karlsruhe - Leibniz Institute for Information Infrastructure.  All rights reserved.
data_244407-ICSD
_database_code_ICSD 244407
_audit_creation_date 2018-02-01
_chemical_name_systematic 'Silver manganese silicate'
_chemical_formula_structural '(Ag1.91 Na0.09) Mn Si O4'
_chemical_formula_sum 'Ag1.91 Mn1 Na0.09 O4 Si1'
_chemical_name_structure_type Li2BeSiO4
_exptl_crystal_density_diffrn 5.46
_cell_measurement_temperature 298.
_publ_section_title

;
A2MnXO4 family (A = Li, Na, Ag; X = Si, Ge). Structural and magnetic
properties
;
loop_
_citation_id
_citation_journal_full
_citation_year
_citation_journal_volume
_citation_page_first
_citation_page_last
_citation_journal_id_ASTM
primary 'Inorganic Chemistry' 2017 56 14023 14039 INOCAJ
loop_
_publ_author_name
'Nalbandyan, Vladimir B.'
'Zvereva, Elena A.'
'Shukaev, Igor L.'
'Gordon, Elijah'
'Politaev, Vladimir V.'
'Whangbo, Myung-Hwan'
'Petrenko, Aleksandr A.'
'Denisov, Roman S.'
'Markina, Maria M.'
'Tzschoppe, Michael'
'Bukhteev, Kirill Yu.'
'Klingeler, Ruediger'
'Vasiliev, Alexander N.'
_cell_length_a 6.93888(8)
_cell_length_b 5.64791(7)
_cell_length_c 5.50969(7)
_cell_angle_alpha 90.
_cell_angle_beta 90.3942(13)
_cell_angle_gamma 90.
_cell_volume 215.92
_cell_formula_units_Z 2
_symmetry_space_group_name_H-M 'P 1 n 1'
_symmetry_Int_Tables_number 7
_refine_ls_R_factor_all 0.0488
loop_
_symmetry_equiv_pos_site_id
_symmetry_equiv_pos_as_xyz
1 'x+1/2, -y, z+1/2'
2 'x, y, z'
loop_
_atom_type_symbol
_atom_type_oxidation_number
Mn2+ 2
Ag1+ 1
O2- -2
Si4+ 4
Na1+ 1
loop_
_atom_site_label
_atom_site_type_symbol
_atom_site_symmetry_multiplicity
_atom_site_Wyckoff_symbol
_atom_site_fract_x
_atom_site_fract_y
_atom_site_fract_z
_atom_site_B_iso_or_equiv
_atom_site_occupancy
_atom_site_attached_hydrogens
Mn1 Mn2+ 2 a 0.0044(5) 0.1963(4) 0.0039(8) 0.0097(6) 1. 0
Ag1 Ag1+ 2 a 0.2583(4) 0.31137(21) 0.4948(6) 0.02479(24) 0.9757(17) 0
Ag2 Ag1+ 2 a 0.50466(27) 0.18833(25) -0.0044(5) 0.03333(31) 0.9328(21) 0
O1 O2- 2 a 0.5635(13) 0.1613(20) 0.4214(19) 0.027(4) 1. 0
O2 O2- 2 a 0.7840(15) 0.3015(21) -0.2105(14) 0.01 1. 0
O3 O2- 2 a 0.2356(18) 0.3956(15) 0.9317(19) 0.032(4) 1. 0
O4 O2- 2 a 0.9501(14) 0.1989(22) 0.3529(15) 0.018(4) 1. 0
Si1 Si4+ 2 a 0.2612(12) 0.6729(7) -0.0158(15) 0.0133(10) 1. 0
Na1 Na1+ 2 a 0.2583(4) 0.31137(21) 0.4948(6) 0.02479(24) 0.0243(17) 0
Na2 Na1+ 2 a 0.50466(27) 0.18833(25) -0.0044(5) 0.03333(31) 0.0672(21) 0
#End of TTdata_244407-ICSD