
#(C) 2019 by FIZ Karlsruhe - Leibniz Institute for Information Infrastructure.  All rights reserved.
data_244728-ICSD
_database_code_ICSD 244728
_audit_creation_date 2018-08-01
_chemical_name_systematic 'Sodium magnesium dideuteride fluoride'
_chemical_formula_structural 'Na Mg D2 F'
_chemical_formula_sum 'D2 F1 Mg1 Na1'
_chemical_name_structure_type Perovskite-GdFeO3
_exptl_crystal_density_diffrn 2.06
_cell_measurement_temperature 298.
_publ_section_title 'Crystal structure and europium luminescence of NaMgH3-xFx'
loop_
_citation_id
_citation_journal_full
_citation_year
_citation_journal_volume
_citation_page_first
_citation_page_last
_citation_journal_id_ASTM
primary 'Journal of Solid State Chemistry' 2018 258 391 396 JSSCBI
loop_
_publ_author_name
'Pflug, Christian'
'Franz, Alexandra'
'Kohlmann, Holger'
_cell_length_a 5.4658(3)
_cell_length_b 7.6820(4)
_cell_length_c 5.3921(3)
_cell_angle_alpha 90.
_cell_angle_beta 90.
_cell_angle_gamma 90.
_cell_volume 226.4
_cell_formula_units_Z 4
_symmetry_space_group_name_H-M 'P n m a'
_symmetry_Int_Tables_number 62
_refine_ls_R_factor_all 0.0556
loop_
_symmetry_equiv_pos_site_id
_symmetry_equiv_pos_as_xyz
1 'x+1/2, y, -z+1/2'
2 'x, -y+1/2, z'
3 '-x+1/2, y+1/2, z+1/2'
4 '-x, -y, -z'
5 '-x+1/2, -y, z+1/2'
6 '-x, y+1/2, -z'
7 'x+1/2, -y+1/2, -z+1/2'
8 'x, y, z'
loop_
_atom_type_symbol
_atom_type_oxidation_number
Na1+ 1
Mg2+ 2
F1- -1
D1- -1
F1- -1
D1- -1
loop_
_atom_site_label
_atom_site_type_symbol
_atom_site_symmetry_multiplicity
_atom_site_Wyckoff_symbol
_atom_site_fract_x
_atom_site_fract_y
_atom_site_fract_z
_atom_site_B_iso_or_equiv
_atom_site_occupancy
_atom_site_attached_hydrogens
Na1 Na1+ 4 c 0.0327(9) 0.25 -0.0055(11) 0.0218(9) 1. 0
Mg1 Mg2+ 4 b 0. 0. 0.5 0.0103(6) 1. 0
F1 F1- 4 c 0.4796(6) 0.25 0.0769(6) 0.0266(8) 0.33334 0
D1 D1- 4 c 0.4796(6) 0.25 0.0769(6) 0.0266(8) 0.66666 0
F2 F1- 8 d 0.2918(4) 0.0401(3) 0.7072(4) 0.0307(6) 0.33333 0
D2 D1- 8 d 0.2918(4) 0.0401(3) 0.7072(4) 0.0307(6) 0.66667 0
#End of TTdata_244728-ICSD