
#(C) 2019 by FIZ Karlsruhe - Leibniz Institute for Information Infrastructure.  All rights reserved.
data_244720-ICSD
_database_code_ICSD 244720
_audit_creation_date 2018-08-01
_chemical_name_systematic
'Lithium sodium octacadmium bis(orthophosphate) tetrakis(diphosphate)'
_chemical_formula_structural 'Li1.52 Na4.48 Cd8 (P O4)2 (P2 O7)4'
_chemical_formula_sum 'Cd8 Li1.52 Na4.48 O36 P10'
_exptl_crystal_density_diffrn 4.35
_cell_measurement_temperature 273.
_publ_section_title

;
Li1.52Na4.48Cd8(PO4)2(P2O7)4: A new mixed-anion diphosphate containing four
types of dimensions groups
;
loop_
_citation_id
_citation_journal_full
_citation_year
_citation_journal_volume
_citation_page_first
_citation_page_last
_citation_journal_id_ASTM
primary 'Inorganic Chemistry Communications' 2017 86 253 257 ICCOFP
loop_
_publ_author_name
'Fang, Yuan'
'Chen, Zhaohui'
'Shi, Yunjing'
'Zhang, Wenyao'
'Dong, Xiaoyu'
_cell_length_a 6.7330(3)
_cell_length_b 9.5603(4)
_cell_length_c 11.3838(5)
_cell_angle_alpha 98.5630(10)
_cell_angle_beta 92.3460(10)
_cell_angle_gamma 90.4500(10)
_cell_volume 723.92
_cell_formula_units_Z 1
_symmetry_space_group_name_H-M 'P -1'
_symmetry_Int_Tables_number 2
_refine_ls_R_factor_all 0.0438
loop_
_symmetry_equiv_pos_site_id
_symmetry_equiv_pos_as_xyz
1 '-x, -y, -z'
2 'x, y, z'
loop_
_atom_type_symbol
_atom_type_oxidation_number
Cd2+ 2
Na1+ 1
Li1+ 1
P5+ 5
O2- -2
loop_
_atom_site_label
_atom_site_type_symbol
_atom_site_symmetry_multiplicity
_atom_site_Wyckoff_symbol
_atom_site_fract_x
_atom_site_fract_y
_atom_site_fract_z
_atom_site_B_iso_or_equiv
_atom_site_occupancy
_atom_site_attached_hydrogens
Cd1 Cd2+ 2 i 0.82903(12) 0.40870(9) -0.11738(7) 0.0071(4) 0.802(5) 0
Cd2 Cd2+ 2 i 0.14708(13) 0.21483(9) 0.07214(7) 0.0090(4) 0.828(5) 0
Cd3 Cd2+ 2 i 0.5001(2) 0.06729(15) 0.86787(12) 0.0071(6) 0.372(5) 0
Cd4 Cd2+ 2 i 0.71866(11) 0.37248(8) 0.38897(6) 0.0113(3) 1 0
Cd5 Cd2+ 2 i 0.01619(13) 0.27794(9) 0.58922(8) 0.0202(3) 1 0
Na1 Na1+ 2 i 0.82903(12) 0.40870(9) -0.11738(7) 0.0071(4) 0.198(5) 0
Na2 Na1+ 2 i 0.14708(13) 0.21483(9) 0.07214(7) 0.0090(4) 0.172(5) 0
Na3 Na1+ 2 i 0.5001(2) 0.06729(15) 0.86787(12) 0.0071(6) 0.628(5) 0
Na4 Na1+ 2 i 0.4630(8) 0.7560(5) 0.3671(4) 0.0251(11) 1 0
Na5 Na1+ 2 i 0.3020(19) 0.1220(11) 0.3581(10) 0.023(4) 0.24(3) 0
Li1 Li1+ 2 i 0.3020(19) 0.1220(11) 0.3581(10) 0.023(4) 0.76(3) 0
P1 P5+ 2 i 0.6729(4) 0.5692(3) 0.1600(2) 0.0073(5) 1 0
P2 P5+ 2 i 0.6653(4) 0.2592(3) 0.1058(2) 0.0073(5) 1 0
P3 P5+ 2 i 0.2188(4) 0.4154(3) 0.3502(2) 0.0070(5) 1 0
P4 P5+ 2 i 0.2656(4) -0.0120(3) 0.5948(2) 0.0078(5) 1 0
P5 P5+ 2 i -0.0128(4) 0.0668(3) 0.7924(2) 0.0077(5) 1 0
O1 O2- 2 i 0.8258(11) 0.5835(8) 0.0675(7) 0.0121(15) 1 0
O2 O2- 2 i 0.8229(11) 0.2551(8) 0.0133(7) 0.0132(15) 1 0
O3 O2- 2 i 0.5706(10) 0.4159(7) 0.1206(6) 0.0097(14) 1 0
O4 O2- 2 i 0.4867(11) 0.1629(8) 0.0611(6) 0.0122(15) 1 0
O5 O2- 2 i 0.7616(11) 0.5720(7) 0.2870(6) 0.0107(15) 1 0
O6 O2- 2 i 0.5003(11) 0.6711(7) 0.1601(6) 0.0115(15) 1 0
O7 O2- 2 i 0.3981(11) 0.3248(8) 0.3720(8) 0.0176(17) 1 0
O8 O2- 2 i 0.1670(12) 0.4065(7) 0.2162(6) 0.0127(15) 1 0
O9 O2- 2 i 0.2617(12) 0.5714(8) 0.4019(7) 0.0139(16) 1 0
O10 O2- 2 i 0.0458(11) 0.3603(8) 0.4159(6) 0.0104(15) 1 0
O11 O2- 2 i 0.2401(11) 0.1139(8) 0.5272(7) 0.0150(16) 1 0
O12 O2- 2 i -0.0952(11) 0.2036(8) 0.7565(6) 0.0123(15) 1 0
O13 O2- 2 i 0.0743(11) -0.0144(8) 0.6733(6) 0.0126(15) 1 0
O14 O2- 2 i -0.1807(11) -0.0326(8) 0.8160(7) 0.0159(16) 1 0
O15 O2- 2 i 0.1525(11) 0.0873(8) 0.8879(6) 0.0122(15) 1 0
O16 O2- 2 i 0.4518(11) 0.0098(8) 0.6733(6) 0.0120(15) 1 0
O17 O2- 2 i 0.2585(11) -0.1528(7) 0.5156(6) 0.0104(15) 1 0
O18 O2- 2 i 0.7538(12) 0.2330(8) 0.2227(7) 0.0155(16) 1 0
loop_
_atom_site_aniso_label
_atom_site_aniso_type_symbol
_atom_site_aniso_U_11
_atom_site_aniso_U_22
_atom_site_aniso_U_33
_atom_site_aniso_U_12
_atom_site_aniso_U_13
_atom_site_aniso_U_23
Cd1 Cd2+ 0.0080(5) 0.0058(5) 0.0081(5) -0.0003(3) 0.0016(3) 0.0035(3)
Cd2 Cd2+ 0.0103(5) 0.0076(5) 0.0085(5) 0.0024(3) -0.0003(3) -0.0009(3)
Cd3 Cd2+ 0.0085(9) 0.0103(9) 0.0026(8) 0.0032(6) 0.0027(5) 0.0006(5)
Cd4 Cd2+ 0.0105(4) 0.0144(4) 0.0093(4) -0.0007(3) 0.0018(3) 0.0020(3)
Cd5 Cd2+ 0.0216(5) 0.0205(5) 0.0194(5) 0.0006(3) 0.0024(3) 0.0058(3)
Na1 Na1+ 0.0080(5) 0.0058(5) 0.0081(5) -0.0003(3) 0.0016(3) 0.0035(3)
Na2 Na1+ 0.0103(5) 0.0076(5) 0.0085(5) 0.0024(3) -0.0003(3) -0.0009(3)
Na3 Na1+ 0.0085(9) 0.0103(9) 0.0026(8) 0.0032(6) 0.0027(5) 0.0006(5)
Na4 Na1+ 0.033(3) 0.016(2) 0.025(3) -0.012(2) 0.020(2) -0.0065(19)
Na5 Na1+ 0.041(8) 0.012(6) 0.015(6) -0.004(5) 0.002(5) 0.002(4)
Li1 Li1+ 0.041(8) 0.012(6) 0.015(6) -0.004(5) 0.002(5) 0.002(4)
P1 P5+ 0.0069(12) 0.0072(12) 0.0081(12) 0.0003(10) 0.0019(10) 0.0018(9)
P2 P5+ 0.0079(12) 0.0072(12) 0.0071(12) -0.0014(10) 0.0027(10) 0.0014(9)
P3 P5+ 0.0074(12) 0.0076(12) 0.0065(12) -0.0003(10) 0.0018(9) 0.0026(9)
P4 P5+ 0.0104(13) 0.0059(12) 0.0074(12) 0.0001(9) 0.0016(10) 0.0013(9)
P5 P5+ 0.0081(12) 0.0069(12) 0.0089(13) -0.0006(10) 0.0032(10) 0.0028(9)
O1 O2- 0.010(4) 0.013(4) 0.013(4) 0.001(3) 0.006(3) 0.000(3)
O2 O2- 0.012(4) 0.012(4) 0.017(4) 0.006(3) 0.008(3) 0.006(3)
O3 O2- 0.006(3) 0.009(3) 0.014(4) 0.001(3) 0.001(3) 0.003(3)
O4 O2- 0.013(4) 0.012(4) 0.012(4) -0.004(3) 0.001(3) 0.002(3)
O5 O2- 0.013(3) 0.010(2) 0.010(2) -0.001(2) 0.000(2) 0.002(2)
O6 O2- 0.013(4) 0.010(3) 0.012(4) 0.004(3) 0.002(3) 0.003(3)
O7 O2- 0.008(4) 0.016(4) 0.032(5) 0.004(3) 0.003(3) 0.012(3)
O8 O2- 0.022(4) 0.007(3) 0.009(4) -0.003(3) 0.004(3) -0.001(3)
O9 O2- 0.023(4) 0.008(3) 0.011(4) -0.001(3) 0.003(3) -0.001(3)
O10 O2- 0.009(2) 0.012(2) 0.011(3) -0.002(2) 0.001(2) 0.004(2)
O11 O2- 0.016(4) 0.010(4) 0.021(4) 0.002(3) 0.002(3) 0.008(3)
O12 O2- 0.017(4) 0.010(4) 0.011(4) 0.002(3) 0.004(3) 0.005(3)
O13 O2- 0.013(4) 0.014(4) 0.011(4) 0.000(3) 0.002(3) -0.001(3)
O14 O2- 0.013(4) 0.017(4) 0.020(4) -0.001(3) 0.006(3) 0.008(3)
O15 O2- 0.010(4) 0.016(4) 0.010(4) 0.000(3) 0.000(3) 0.000(3)
O16 O2- 0.012(4) 0.012(4) 0.012(4) -0.003(3) -0.002(3) 0.001(3)
O17 O2- 0.013(3) 0.009(2) 0.010(2) 0.001(2) 0.002(2) 0.001(2)
O18 O2- 0.023(4) 0.015(4) 0.010(4) 0.002(3) -0.001(3) 0.004(3)
#End of TTdata_244720-ICSD