
#(C) 2019 by FIZ Karlsruhe - Leibniz Institute for Information Infrastructure.  All rights reserved.
data_245125-ICSD
_database_code_ICSD 245125
_audit_creation_date 2007-08-01
_chemical_name_systematic 'Sodium vanadium fluorophosphate'
_chemical_formula_structural 'Na3 V2 O2 (P O4)2 F'
_chemical_formula_sum 'F1 Na3 O10 P2 V2'
_chemical_name_structure_type Al2Na3-x(PO4)2F3
_exptl_crystal_density_diffrn 3.17
_publ_section_title

;
Crystal structure and electrochemical properties vs. Na+ of the sodium
fluorophosphate Na1.5 V O P O4 F0.5
;
loop_
_citation_id
_citation_journal_full
_citation_year
_citation_journal_volume
_citation_page_first
_citation_page_last
_citation_journal_id_ASTM
primary 'Solid State Sciences' 2006 8 1215 1221 SSSCFJ
loop_
_publ_author_name
'Sauvage, F.'
'Quarez, E.'
'Tarascon, J.M.'
'Baudrin, E.'
_cell_length_a 6.37028(8)
_cell_length_b 6.37028(8)
_cell_length_c 10.6365(2)
_cell_angle_alpha 90.
_cell_angle_beta 90.
_cell_angle_gamma 90.
_cell_volume 431.63
_cell_formula_units_Z 2
_symmetry_space_group_name_H-M 'I 4/m m m'
_symmetry_Int_Tables_number 139
_refine_ls_R_factor_all 0.055
loop_
_symmetry_equiv_pos_site_id
_symmetry_equiv_pos_as_xyz
1 'y, x, -z'
2 '-y, -x, -z'
3 '-y, x, -z'
4 'y, -x, -z'
5 '-x, y, -z'
6 'x, -y, -z'
7 'x, y, -z'
8 '-x, -y, -z'
9 '-y, -x, z'
10 'y, x, z'
11 'y, -x, z'
12 '-y, x, z'
13 'x, -y, z'
14 '-x, y, z'
15 '-x, -y, z'
16 'x, y, z'
17 'y+1/2, x+1/2, -z+1/2'
18 '-y+1/2, -x+1/2, -z+1/2'
19 '-y+1/2, x+1/2, -z+1/2'
20 'y+1/2, -x+1/2, -z+1/2'
21 '-x+1/2, y+1/2, -z+1/2'
22 'x+1/2, -y+1/2, -z+1/2'
23 'x+1/2, y+1/2, -z+1/2'
24 '-x+1/2, -y+1/2, -z+1/2'
25 '-y+1/2, -x+1/2, z+1/2'
26 'y+1/2, x+1/2, z+1/2'
27 'y+1/2, -x+1/2, z+1/2'
28 '-y+1/2, x+1/2, z+1/2'
29 'x+1/2, -y+1/2, z+1/2'
30 '-x+1/2, y+1/2, z+1/2'
31 '-x+1/2, -y+1/2, z+1/2'
32 'x+1/2, y+1/2, z+1/2'
loop_
_atom_type_symbol
_atom_type_oxidation_number
Na1+ 1
V4+ 4
P5+ 5
O2- -2
F1- -1
loop_
_atom_site_label
_atom_site_type_symbol
_atom_site_symmetry_multiplicity
_atom_site_Wyckoff_symbol
_atom_site_fract_x
_atom_site_fract_y
_atom_site_fract_z
_atom_site_B_iso_or_equiv
_atom_site_occupancy
_atom_site_attached_hydrogens
Na1 Na1+ 8 h 0.2706(6) 0.2706(6) 0 3.9471 0.6875 0
Na2 Na1+ 8 j 0.2193(5) 0.5 0 0.5 0.0625 0
V1 V4+ 4 e 0 0 0.1984(2) 0.88(5) 1. 0
P1 P5+ 4 d 0 0.5 0.25 0.69(8) 1. 0
O1 O2- 16 n 0 0.3085(5) 0.1648(3) 0.61(8) 1. 0
O2 O2- 4 e 0 0 0.3504(7) 1.5(2) 1. 0
F1 F1- 2 a 0 0 0 0.7(2) 1. 0
loop_
_atom_site_aniso_label
_atom_site_aniso_type_symbol
_atom_site_aniso_beta_11
_atom_site_aniso_beta_22
_atom_site_aniso_beta_33
_atom_site_aniso_beta_12
_atom_site_aniso_beta_13
_atom_site_aniso_beta_23
Na1 Na1+ 0.026(1) 0.026(1) 0.0077(9) -0.016(2) 0 0
#End of TTdata_245125-ICSD