
#(C) 2019 by FIZ Karlsruhe - Leibniz Institute for Information Infrastructure.  All rights reserved.
data_245256-ICSD
_database_code_ICSD 245256
_audit_creation_date 2007-08-01
_chemical_name_systematic 'Sodium lithium trivanadium octaoxide'
_chemical_formula_structural 'Na0.69 Li0.67 (V3 O8)'
_chemical_formula_sum 'Li0.67 Na0.69 O8 V3'
_exptl_crystal_density_diffrn 3.37
_publ_section_title
'Na-Li-[V3 O8] insertion electrodes: structure and diffusion pathways'
loop_
_citation_id
_citation_journal_full
_citation_year
_citation_journal_volume
_citation_page_first
_citation_page_last
_citation_journal_id_ASTM
primary 'Journal of Solid State Chemistry' 2006 179 2616 2628 JSSCBI
loop_
_publ_author_name
'Schindler, M.'
'Hawthorne, F.C.'
'Alexander, M.A.'
'Kutluoglu, R.A.'
'Mandaliev, P.'
'Halden, N.M.'
'Mitchell, R.H.'
_cell_length_a 7.101(2)
_cell_length_b 3.6106(9)
_cell_length_c 12.097(3)
_cell_angle_alpha 90
_cell_angle_beta 106.601(5)
_cell_angle_gamma 90
_cell_volume 297.23
_cell_formula_units_Z 2
_symmetry_space_group_name_H-M 'P 1 21/m 1'
_symmetry_Int_Tables_number 11
_refine_ls_R_factor_all 0.0556
loop_
_symmetry_equiv_pos_site_id
_symmetry_equiv_pos_as_xyz
1 'x, -y+1/2, z'
2 '-x, -y, -z'
3 '-x, y+1/2, -z'
4 'x, y, z'
loop_
_atom_type_symbol
_atom_type_oxidation_number
V4+ 4.88
O2- -2
Na1+ 1
Li1+ 1
loop_
_atom_site_label
_atom_site_type_symbol
_atom_site_symmetry_multiplicity
_atom_site_Wyckoff_symbol
_atom_site_fract_x
_atom_site_fract_y
_atom_site_fract_z
_atom_site_B_iso_or_equiv
_atom_site_occupancy
_atom_site_attached_hydrogens
V1 V4+ 2 e 0.1833(3) 0.25 0.0402(1) 0.0105(7) 1. 0
V2 V4+ 2 e 0.6132(3) 0.75 0.4220(1) 0.0111(7) 1. 0
V3 V4+ 2 e 0.2326(3) 0.25 0.3073(1) 0.0115(7) 1. 0
O1 O2- 2 e -0.103(1) 0.25 -0.0405(6) 0.017(2) 1. 0
O2 O2- 2 e 0.007(1) 0.25 0.2300(7) 0.018(2) 1. 0
O3 O2- 2 e 0.307(1) 0.75 0.3278(6) 0.014(2) 1. 0
O4 O2- 2 e 0.348(1) 0.25 0.1757(6) 0.011(2) 1. 0
O5 O2- 2 e 0.819(1) 0.75 0.5408(7) 0.019(2) 1. 0
O6 O2- 2 e 0.537(1) 0.25 0.4290(6) 0.016(2) 1. 0
O7 O2- 2 e 0.705(1) 0.75 0.3153(7) 0.028(2) 1. 0
O8 O2- 2 e 0.314(1) 0.25 -0.0476(7) 0.020(2) 1. 0
Na1 Na1+ 2 e 0.66970(9) 0.25 0.1755(5) 0.014(2) 0.69(2) 0
Li1 Li1+ 2 e 0.66970(9) 0.25 0.1755(5) 0.014(2) 0.31(2) 0
Li2 Li1+ 2 e 0.926(1) 0.75 0.532(8) 0.02(2) 0.21(6) 0
Li3 Li1+ 2 e 0.78(1) 0.25 0.49(1) 0.02(2) 0.15(6) 0
#End of TTdata_245256-ICSD