
#(C) 2019 by FIZ Karlsruhe - Leibniz Institute for Information Infrastructure.  All rights reserved.
data_245520-ICSD
_database_code_ICSD 245520
_audit_creation_date 2008-02-01
_audit_update_record 2013-02-01
_chemical_name_systematic 'Hemisodium hemiterbium trioxotitanate(IV)'
_chemical_formula_structural '(Na Tb)0.5 Ti O3'
_chemical_formula_sum 'Na0.5 O3 Tb0.5 Ti1'
_chemical_name_structure_type Perovskite-GdFeO3
_exptl_crystal_density_diffrn 5.57
_publ_section_title 'Crystal structures of Na1/2 Ln1/2 Ti O3 (Ln: La, Eu, Tb)'
loop_
_citation_id
_citation_journal_full
_citation_year
_citation_journal_volume
_citation_page_first
_citation_page_last
_citation_journal_id_ASTM
primary 'Journal of Solid State Chemistry' 2007 180 995 1001 JSSCBI
loop_
_publ_author_name
'Ranjan, R.'
'Senyshyn, A.'
'Boysen, H.'
'Baehtz, C.'
'Frey, F.'
_cell_length_a 5.3645(1)
_cell_length_b 5.43498(1)
_cell_length_c 7.6361(2)
_cell_angle_alpha 90.
_cell_angle_beta 90.
_cell_angle_gamma 90.
_cell_volume 222.64
_cell_formula_units_Z 4
_symmetry_space_group_name_H-M 'P b n m'
_symmetry_Int_Tables_number 62
loop_
_symmetry_equiv_pos_site_id
_symmetry_equiv_pos_as_xyz
1 '-x+1/2, y+1/2, z'
2 'x, y, -z+1/2'
3 'x+1/2, -y+1/2, z+1/2'
4 '-x, -y, -z'
5 'x+1/2, -y+1/2, -z'
6 '-x, -y, z+1/2'
7 '-x+1/2, y+1/2, -z+1/2'
8 'x, y, z'
loop_
_atom_type_symbol
_atom_type_oxidation_number
Na1+ 1
Tb3+ 3
Ti4+ 4
O2- -2
loop_
_atom_site_label
_atom_site_type_symbol
_atom_site_symmetry_multiplicity
_atom_site_Wyckoff_symbol
_atom_site_fract_x
_atom_site_fract_y
_atom_site_fract_z
_atom_site_B_iso_or_equiv
_atom_site_occupancy
_atom_site_attached_hydrogens
Na1 Na1+ 4 c 0.0067(5) 0.5362(3) 0.25 . 0.5 0
Tb1 Tb3+ 4 c 0.0067(5) 0.5362(3) 0.25 . 0.5 0
Ti1 Ti4+ 4 a 0 0 0 . 1. 0
O1 O2- 4 c -0.0750(4) -0.0184(4) 0.25 . 1. 0
O2 O2- 8 d 0.2098(3) 0.2902(2) 0.0385(2) . 1. 0
loop_
_atom_site_aniso_label
_atom_site_aniso_type_symbol
_atom_site_aniso_U_11
_atom_site_aniso_U_22
_atom_site_aniso_U_33
_atom_site_aniso_U_12
_atom_site_aniso_U_13
_atom_site_aniso_U_23
Na1 Na1+ 0.0080(8) 0.0092(6) 0.0020(3) 0.0018(6) 0. 0.
Tb1 Tb3+ 0.0080(8) 0.0092(6) 0.0020(3) 0.0018(6) 0. 0.
Ti1 Ti4+ 0.005(1) 0.005(1) 0.0018(5) -0.0013(8) -0.001(1) 0.0027(5)
O1 O2- 0.0121(7) 0.0097(7) 0.0010(3) 0.0018(6) 0. 0.
O2 O2- 0.0078(4) 0.0081(3) 0.0048(2) -0.0051(4) 0.0013(3) -0.0013(3)
#End of TTdata_245520-ICSD