
#(C) 2019 by FIZ Karlsruhe - Leibniz Institute for Information Infrastructure.  All rights reserved.
data_245529-ICSD
_database_code_ICSD 245529
_audit_creation_date 2008-02-01
_chemical_name_systematic 'Sodium titanate *'
_chemical_formula_structural 'Na0.912 Ti2 O4'
_chemical_formula_sum 'Na0.912 O4 Ti2'
_chemical_name_structure_type CaV2O4
_exptl_crystal_density_diffrn 4.08
_cell_measurement_temperature 300.
_publ_section_title

;
Single-crystal synthesis, structure analysis, and physical properties of the
calcium ferrite-type Na(x) Ti2 O4 with 0.558 < x < 1
;
loop_
_citation_id
_citation_journal_full
_citation_year
_citation_journal_volume
_citation_page_first
_citation_page_last
_citation_journal_id_ASTM
primary 'Journal of Solid State Chemistry' 2007 180 1020 1027 JSSCBI
loop_
_publ_author_name
'Takahashi, Y.'
'Kataoka, K.'
'Ohshima, K.I.'
'Kijima, N.'
'Awaka, J.'
'Kawaguchi, K.'
'Akimoto, J.'
_cell_length_a 9.2609(7)
_cell_length_b 10.7537(7)
_cell_length_c 2.9550(5)
_cell_angle_alpha 90.
_cell_angle_beta 90.
_cell_angle_gamma 90.
_cell_volume 294.29
_cell_formula_units_Z 4
_symmetry_space_group_name_H-M 'P n a m'
_symmetry_Int_Tables_number 62
_refine_ls_R_factor_all 0.0349
loop_
_symmetry_equiv_pos_site_id
_symmetry_equiv_pos_as_xyz
1 'x+1/2, -y+1/2, z'
2 'x, y, -z+1/2'
3 '-x+1/2, y+1/2, z+1/2'
4 '-x, -y, -z'
5 '-x+1/2, y+1/2, -z'
6 '-x, -y, z+1/2'
7 'x+1/2, -y+1/2, -z+1/2'
8 'x, y, z'
loop_
_atom_type_symbol
_atom_type_oxidation_number
Na1+ 1
Ti3+ 3.55
O2- -2
loop_
_atom_site_label
_atom_site_type_symbol
_atom_site_symmetry_multiplicity
_atom_site_Wyckoff_symbol
_atom_site_fract_x
_atom_site_fract_y
_atom_site_fract_z
_atom_site_B_iso_or_equiv
_atom_site_occupancy
_atom_site_attached_hydrogens
Na1 Na1+ 4 c 0.24376(12) 0.34701(10) 0.25 0.0111(3) 0.912 0
Ti1 Ti3+ 4 c 0.06559(4) 0.11012(3) 0.25 0.00689(7) 1. 0
Ti2 Ti3+ 4 c 0.08231(4) 0.60444(3) 0.25 0.00616(6) 1. 0
O1 O2- 4 c 0.28942(16) 0.65027(14) 0.25 0.0081(3) 1. 0
O2 O2- 4 c 0.38760(15) 0.98066(13) 0.25 0.0066(3) 1. 0
O3 O2- 4 c 0.47902(17) 0.21741(13) 0.25 0.0075(3) 1. 0
O4 O2- 4 c 0.07920(16) 0.92995(13) 0.25 0.0070(3) 1. 0
#End of TTdata_245529-ICSD