
#(C) 2019 by FIZ Karlsruhe - Leibniz Institute for Information Infrastructure.  All rights reserved.
data_245685-ICSD
_database_code_ICSD 245685
_audit_creation_date 2008-08-01
_chemical_name_systematic 'Disodium pentazinc tetraphosphate'
_chemical_formula_structural 'Na2 Zn5 (P O4)4'
_chemical_formula_sum 'Na2 O16 P4 Zn5'
_exptl_crystal_density_diffrn 3.42
_cell_measurement_temperature 293.
_publ_section_title
'A new structure type of phosphate: Crystal structure of Na2 Zn5 P4 O16'
loop_
_citation_id
_citation_journal_full
_citation_year
_citation_journal_volume
_citation_page_first
_citation_page_last
_citation_journal_id_ASTM
primary 'Journal of Solid State Chemistry' 2007 180 2256 2261 JSSCBI
loop_
_publ_author_name
'Ji, L.-N.'
'Ma, H.W.'
'Li, J.-B.'
'Liang, J.-K.'
'Sun, B.J.'
'Liu, Y.-H.'
'Zhang, J.-Y.'
'Rao, G.H.'
_cell_length_a 10.381(2)
_cell_length_b 8.507(1)
_cell_length_c 16.568(3)
_cell_angle_alpha 90.
_cell_angle_beta 90.
_cell_angle_gamma 90.
_cell_volume 1463.14
_cell_formula_units_Z 4
_symmetry_space_group_name_H-M 'P b c n'
_symmetry_Int_Tables_number 60
_refine_ls_R_factor_all 0.0288
loop_
_symmetry_equiv_pos_site_id
_symmetry_equiv_pos_as_xyz
1 'x, -y, z+1/2'
2 '-x+1/2, y+1/2, z'
3 'x+1/2, y+1/2, -z+1/2'
4 '-x, -y, -z'
5 '-x, y, -z+1/2'
6 'x+1/2, -y+1/2, -z'
7 '-x+1/2, -y+1/2, z+1/2'
8 'x, y, z'
loop_
_atom_type_symbol
_atom_type_oxidation_number
Zn2+ 2
P5+ 5
Na1+ 1
O2- -2
loop_
_atom_site_label
_atom_site_type_symbol
_atom_site_symmetry_multiplicity
_atom_site_Wyckoff_symbol
_atom_site_fract_x
_atom_site_fract_y
_atom_site_fract_z
_atom_site_B_iso_or_equiv
_atom_site_occupancy
_atom_site_attached_hydrogens
Zn1 Zn2+ 8 d 0.3393(1) 0.3887(1) 0.4204(1) 0.012(1) 1. 0
Zn2 Zn2+ 8 d 0.3344(1) 0.0802(1) 0.5539(1) 0.011(1) 1. 0
Zn3 Zn2+ 4 c 0 0.6949(1) 0.75 0.010(1) 1. 0
P1 P5+ 8 d 0.0882(1) 0.9049(1) 0.6057(1) 0.009(1) 1. 0
P2 P5+ 8 d 0.0943(1) 0.4460(1) 0.8672(1) 0.009(1) 1. 0
Na1 Na1+ 8 d 0.1672(1) 0.2606(2) 0.7057(1) 0.031(1) 1. 0
O1 O2- 8 d 0.3675(2) 0.3037(3) 0.5314(1) 0.014(1) 1. 0
O2 O2- 8 d 0.4453(2) 0.5650(3) 0.3976(2) 0.020(1) 1. 0
O3 O2- 8 d 0.1203(2) 0.8037(3) 0.6795(1) 0.016(1) 1. 0
O4 O2- 8 d 0.1677(2) 0.0563(2) 0.6055(1) 0.014(1) 1. 0
O5 O2- 8 d 0.1746(2) 0.4994(3) 0.4420(1) 0.013(1) 1. 0
O6 O2- 8 d 0.1291(2) 0.5530(3) 0.7971(1) 0.015(1) 1. 0
O7 O2- 8 d 0.4509(2) -0.0503(3) 0.6128(1) 0.015(1) 1. 0
O8 O2- 8 d 0.3696(2) 0.223(3) 0.3444(1) 0.015(1) 1. 0
loop_
_atom_site_aniso_label
_atom_site_aniso_type_symbol
_atom_site_aniso_U_11
_atom_site_aniso_U_22
_atom_site_aniso_U_33
_atom_site_aniso_U_12
_atom_site_aniso_U_13
_atom_site_aniso_U_23
Zn1 Zn2+ 0.014(1) 0.010(1) 0.011(1) 0.001(1) 0.002(1) 0.000(1)
Zn2 Zn2+ 0.011(1) 0.011(1) 0.011(1) -0.001(1) 0.001(1) 0.001(1)
Zn3 Zn2+ 0.011(1) 0.011(1) 0.010(1) 0. 0.001(1) 0.
P1 P5+ 0.009(1) 0.008(1) 0.010(1) 0.000(1) 0.001(1) 0.001(1)
P2 P5+ 0.009(1) 0.009(1) 0.008(1) 0.001(1) 0.000(1) 0.000(1)
Na1 Na1+ 0.025(1) 0.046(1) 0.022(1) -0.008(1) 0.010(1) -0.010(1)
O1 O2- 0.024(1) 0.010(1) 0.010(1) -0.002(1) -0.003(1) 0.000(1)
O2 O2- 0.010(1) 0.016(1) 0.032(1) -0.001(1) -0.001(1) 0.005(1)
O3 O2- 0.016(1) 0.019(1) 0.012(1) -0.001(1) 0.000(1) 0.008(1)
O4 O2- 0.014(1) 0.011(1) 0.017(1) -0.003(1) 0.004(1) -0.001(1)
O5 O2- 0.012(1) 0.016(1) 0.011(1) 0.002(1) -0.001(1) -0.001(1)
O6 O2- 0.014(1) 0.018(1) 0.013(1) 0.001(1) 0.000(1) 0.007(1)
O7 O2- 0.011(1) 0.018(1) 0.016(1) 0.001(1) -0.002(1) 0.003(1)
O8 O2- 0.022(1) 0.013(1) 0.011(1) 0.005(1) -0.002(1) -0.001(1)
#End of TTdata_245685-ICSD