
#(C) 2019 by FIZ Karlsruhe - Leibniz Institute for Information Infrastructure.  All rights reserved.
data_245609-ICSD
_database_code_ICSD 245609
_audit_creation_date 2008-08-01
_chemical_name_systematic 'Disodium palladium(IV) trioxide'
_chemical_formula_structural 'Na2 Pd O3'
_chemical_formula_sum 'Na2 O3 Pd1'
_chemical_name_structure_type Li2SnO3
_exptl_crystal_density_diffrn 4.97
_cell_measurement_temperature 295.
_publ_section_title

;
Synthesis and crystal structure of the palladium oxides Na Pd3 O4, Na2 Pd O3
and K3 Pd2 O4
;
loop_
_citation_id
_citation_journal_full
_citation_year
_citation_journal_volume
_citation_page_first
_citation_page_last
_citation_journal_id_ASTM
primary 'Journal of Solid State Chemistry' 2007 180 1566 1574 JSSCBI
loop_
_publ_author_name
'Panin, R.V.'
'Khasanova, N.R.'
'Abakumov, A.M.'
'Antipov, E.V.'
'van Tendeloo, G.'
'Schnelle, W.'
_cell_length_a 5.3857(1)
_cell_length_b 9.3297(1)
_cell_length_c 10.8136(2)
_cell_angle_alpha 90.
_cell_angle_beta 99.437(2)
_cell_angle_gamma 90.
_cell_volume 536.
_cell_formula_units_Z 8
_symmetry_space_group_name_H-M 'C 1 2/c 1'
_symmetry_Int_Tables_number 15
_refine_ls_R_factor_all 0.055
loop_
_symmetry_equiv_pos_site_id
_symmetry_equiv_pos_as_xyz
1 'x, -y, z+1/2'
2 '-x, -y, -z'
3 '-x, y, -z+1/2'
4 'x, y, z'
5 'x+1/2, -y+1/2, z+1/2'
6 '-x+1/2, -y+1/2, -z'
7 '-x+1/2, y+1/2, -z+1/2'
8 'x+1/2, y+1/2, z'
loop_
_atom_type_symbol
_atom_type_oxidation_number
Pd4+ 4
Na1+ 1
Pd4+ 4
Na1+ 1
O2- -2
loop_
_atom_site_label
_atom_site_type_symbol
_atom_site_symmetry_multiplicity
_atom_site_Wyckoff_symbol
_atom_site_fract_x
_atom_site_fract_y
_atom_site_fract_z
_atom_site_B_iso_or_equiv
_atom_site_occupancy
_atom_site_attached_hydrogens
Pd1 Pd4+ 8 f 0.2601(5) 0.0829(2) -0.0006(4) 0.0308(7) 0.874(7) 0
Na1 Na1+ 8 f 0.2601(5) 0.0829(2) -0.0006(4) 0.0308(7) 0.126(7) 0
Na2 Na1+ 4 d 0.75 0.25 0 0.0263(5) 0.748(7) 0
Pd2 Pd4+ 4 d 0.75 0.25 0 0.0263(5) 0.252(7) 0
Na3 Na1+ 4 e 0.5 0.5792(11) 0.25 0.0263(5) 1. 0
Na4 Na1+ 4 e 0 0.4159(3) 0.25 0.0263(5) 1. 0
Na5 Na1+ 4 e 0 0.75 0.25 0.0263(5) 1. 0
O1 O2- 8 f 0.3505(10) 0.2504(11) -0.1002(8) 0.0235(8) 1. 0
O2 O2- 8 f 0.5980(14) 0.0709(14) 0.1053(13) 0.0235(8) 1. 0
O3 O2- 8 f 0.593(2) 0.4299(14) 0.1013(13) 0.0235(8) 1. 0
#End of TTdata_245609-ICSD