
#(C) 2019 by FIZ Karlsruhe - Leibniz Institute for Information Infrastructure.  All rights reserved.
data_245878-ICSD
_database_code_ICSD 245878
_audit_creation_date 2009-02-01
_chemical_name_systematic 'Sodium cadmium iron phosphate(V) (1.6/1.47/1.49/3)'
_chemical_formula_structural 'Na1.6 Cd1.47 Fe1.49 (P O4)3'
_chemical_formula_sum 'Cd1.47 Fe1.49 Na1.6 O12 P3'
_chemical_name_structure_type Alluaudite
_chemical_name_mineral 'Alluaudite, Cd-bearing'
_exptl_crystal_density_diffrn 4.14
_publ_section_title

;
Crystal chemistry of the divalent cation in alluaudite-type phosphates: A
structural and infrared study of the Na1.5 (Mn(1-x) M(x))1.5 Fe1.5 (P O4)3
solid solutions (x = 0 to 1, M = Cd(2+), Zn(2+))
;
loop_
_citation_id
_citation_journal_full
_citation_year
_citation_journal_volume
_citation_page_first
_citation_page_last
_citation_journal_id_ASTM
primary 'Journal of Solid State Chemistry' 2008 181 1258 1272 JSSCBI
loop_
_publ_author_name
'Hatert, F.'
_cell_length_a 12.234(2)
_cell_length_b 12.696(2)
_cell_length_c 6.475(1)
_cell_angle_alpha 90
_cell_angle_beta 114.50(1)
_cell_angle_gamma 90
_cell_volume 915.16
_cell_formula_units_Z 4
_symmetry_space_group_name_H-M 'C 1 2/c 1'
_symmetry_Int_Tables_number 15
_refine_ls_R_factor_all 0.0325
loop_
_symmetry_equiv_pos_site_id
_symmetry_equiv_pos_as_xyz
1 'x, -y, z+1/2'
2 '-x, -y, -z'
3 '-x, y, -z+1/2'
4 'x, y, z'
5 'x+1/2, -y+1/2, z+1/2'
6 '-x+1/2, -y+1/2, -z'
7 '-x+1/2, y+1/2, -z+1/2'
8 'x+1/2, y+1/2, z'
loop_
_atom_type_symbol
_atom_type_oxidation_number
Na1+ 1
Cd2+ 2
Na1+ 1
Fe3+ 3
Cd2+ 2
P5+ 5
O2- -2
loop_
_atom_site_label
_atom_site_type_symbol
_atom_site_symmetry_multiplicity
_atom_site_Wyckoff_symbol
_atom_site_fract_x
_atom_site_fract_y
_atom_site_fract_z
_atom_site_B_iso_or_equiv
_atom_site_occupancy
_atom_site_attached_hydrogens
Na1 Na1+ 4 e 0 -0.014(1) 0.25 2.3(6) 0.56(1) 0
Na2 Na1+ 4 b 0.5 0 0 1.2(2) 0.832(4) 0
Cd1 Cd2+ 4 b 0.5 0 0 1.2(2) 0.168(4) 0
Cd2 Cd2+ 4 e 0 0.2666(2) 0.25 0.22(9) 0.792(8) 0
Na3 Na1+ 4 e 0 0.2666(2) 0.25 0.22(9) 0.208(8) 0
Fe1 Fe3+ 8 f 0.2759(2) 0.6521(1) 0.3592(4) 1.04(9) 0.746(9) 0
Cd3 Cd2+ 8 f 0.2759(2) 0.6521(1) 0.3592(4) 1.04(9) 0.254(9) 0
P1 P5+ 4 e 0 -0.2778(5) 0.25 0.2(1) 1. 0
P2 P5+ 8 f 0.2420(4) -0.1033(3) 0.1347(8) 0.2(1) 1. 0
O1 O2- 8 f 0.4533(7) 0.7121(6) 0.540(1) 0.5(2) 1. 0
O2 O2- 8 f 0.0929(7) 0.6472(6) 0.229(1) 0.5(2) 1. 0
O3 O2- 8 f 0.3246(7) 0.6577(6) 0.094(1) 0.5(2) 1. 0
O4 O2- 8 f 0.1267(7) 0.4065(6) 0.324(1) 0.5(2) 1. 0
O5 O2- 8 f 0.2304(7) 0.8305(6) 0.319(1) 0.5(2) 1. 0
O6 O2- 8 f 0.3183(7) 0.4980(7) 0.376(1) 0.5(2) 1. 0
#End of TTdata_245878-ICSD