
#(C) 2019 by FIZ Karlsruhe - Leibniz Institute for Information Infrastructure.  All rights reserved.
data_245846-ICSD
_database_code_ICSD 245846
_audit_creation_date 2008-08-01
_chemical_name_systematic 'Sodium dithorium(IV) fluoride'
_chemical_formula_structural 'Na (Th2 F9)'
_chemical_formula_sum 'F9 Na1 Th2'
_chemical_name_structure_type NaTh2F9
_exptl_crystal_density_diffrn 6.9
_cell_measurement_pressure 5000000.
_publ_section_title
'Twinned tetragonal structure and equation of state of Na Th2 F9'
loop_
_citation_id
_citation_journal_full
_citation_year
_citation_journal_volume
_citation_page_first
_citation_page_last
_citation_journal_id_ASTM
primary 'Journal of Solid State Chemistry' 2008 181 971 975 JSSCBI
loop_
_publ_author_name
'Grzechnik, A.'
'Morgenroth, W.'
'Friese, K.'
_cell_length_a 8.672(3)
_cell_length_b 8.672(3)
_cell_length_c 8.429(2)
_cell_angle_alpha 90.
_cell_angle_beta 90.
_cell_angle_gamma 90.
_cell_volume 633.89
_cell_formula_units_Z 4
_symmetry_space_group_name_H-M 'I -4 2 m'
_symmetry_Int_Tables_number 121
_refine_ls_R_factor_all 0.0628
loop_
_symmetry_equiv_pos_site_id
_symmetry_equiv_pos_as_xyz
1 '-y, -x, z'
2 'y, x, z'
3 'y, -x, -z'
4 '-y, x, -z'
5 'x, -y, -z'
6 '-x, y, -z'
7 '-x, -y, z'
8 'x, y, z'
9 '-y+1/2, -x+1/2, z+1/2'
10 'y+1/2, x+1/2, z+1/2'
11 'y+1/2, -x+1/2, -z+1/2'
12 '-y+1/2, x+1/2, -z+1/2'
13 'x+1/2, -y+1/2, -z+1/2'
14 '-x+1/2, y+1/2, -z+1/2'
15 '-x+1/2, -y+1/2, z+1/2'
16 'x+1/2, y+1/2, z+1/2'
loop_
_atom_type_symbol
_atom_type_oxidation_number
Th4+ 4
Na1+ 1
F1- -1
loop_
_atom_site_label
_atom_site_type_symbol
_atom_site_symmetry_multiplicity
_atom_site_Wyckoff_symbol
_atom_site_fract_x
_atom_site_fract_y
_atom_site_fract_z
_atom_site_B_iso_or_equiv
_atom_site_occupancy
_atom_site_attached_hydrogens
Th1 Th4+ 8 i 0.1862(6) 0.1862(6) 0.8041(9) 0.0200(8) 1. 0
Na1 Na1+ 4 c 0 0.5 0 . 1. 0
F1 F1- 8 f 0.272(5) 0 0 . 1. 0
F2 F1- 4 e 0 0 0.182(9) . 1. 0
F3 F1- 16 j 0.460(4) 0.174(5) 0.789(4) . 1. 0
F4 F1- 8 i 0.217(5) 0.217(5) 0.546(6) . 1. 0
#End of TTdata_245846-ICSD