
#(C) 2019 by FIZ Karlsruhe - Leibniz Institute for Information Infrastructure.  All rights reserved.
data_245928-ICSD
_database_code_ICSD 245928
_audit_creation_date 2009-02-01
_chemical_name_systematic
'Barium sodium bismuth titanium oxide (0.2/0.4/4.4/4/15)'
_chemical_formula_structural 'Ba0.2 Na0.4 Bi4.4 Ti4 O15'
_chemical_formula_sum 'Ba0.2 Bi4.4 Na0.4 O15 Ti4'
_chemical_name_structure_type SrBi4Ti4O15
_exptl_crystal_density_diffrn 7.59
_cell_measurement_temperature 295.
_publ_section_title

;
Structural evolution in three and four-layer Aurivillius solid solutions: A
comparative study versus relaxor properties
;
loop_
_citation_id
_citation_journal_full
_citation_year
_citation_journal_volume
_citation_page_first
_citation_page_last
_citation_journal_id_ASTM
primary 'Solid State Sciences' 2008 10 177 185 SSSCFJ
loop_
_publ_author_name
'Tellier, J.'
'Boullay, P.'
'Ben Jennet, D.'
'Mercurio, D.'
_cell_length_a 5.4530(2)
_cell_length_b 5.4269(2)
_cell_length_c 41.013(2)
_cell_angle_alpha 90.
_cell_angle_beta 90.
_cell_angle_gamma 90.
_cell_volume 1213.69
_cell_formula_units_Z 4
_symmetry_space_group_name_H-M 'A 21 a m'
_symmetry_Int_Tables_number 36
_refine_ls_R_factor_all 0.0227
loop_
_symmetry_equiv_pos_site_id
_symmetry_equiv_pos_as_xyz
1 'x+1/2, -y, z'
2 'x+1/2, -y, -z'
3 'x, y, -z'
4 'x, y, z'
5 'x+1/2, -y+1/2, z+1/2'
6 'x+1/2, -y+1/2, -z+1/2'
7 'x, y+1/2, -z+1/2'
8 'x, y+1/2, z+1/2'
loop_
_atom_type_symbol
_atom_type_oxidation_number
Bi3+ 3
Ba2+ 2
Na1+ 1
Bi3+ 3
Ba2+ 2
Na1+ 1
Ti4+ 4
O2- -2
loop_
_atom_site_label
_atom_site_type_symbol
_atom_site_symmetry_multiplicity
_atom_site_Wyckoff_symbol
_atom_site_fract_x
_atom_site_fract_y
_atom_site_fract_z
_atom_site_B_iso_or_equiv
_atom_site_occupancy
_atom_site_attached_hydrogens
Bi1 Bi3+ 8 b 0 0.2627(12) -0.21906(4) 0.0230(7) 1. 0
Bi2 Bi3+ 4 a 0 0.255(2) 0 0.0178(10) 0.8 0
Ba1 Ba2+ 4 a 0 0.255(2) 0 0.0178(10) 0.066 0
Na1 Na1+ 4 a 0 0.255(2) 0 0.0178(10) 0.133 0
Bi3 Bi3+ 8 b 0 -0.2566(15) 0.39500(4) 0.0168(8) 0.8 0
Ba2 Ba2+ 8 b 0 -0.2566(15) 0.39500(4) 0.0168(8) 0.066 0
Na2 Na1+ 8 b 0 -0.2566(15) 0.39500(4) 0.0168(8) 0.133 0
Ti1 Ti4+ 8 b 0.030(3) 0.242(7) 0.54906(14) 0.01 1. 0
Ti2 Ti4+ 8 b 0.022(4) 0.25 0.34644(15) 0.01 1. 0
O1 O2- 4 a 0.069(5) -0.307(6) 0 0.02 1. 0
O2 O2- 8 b 0.352(4) 0.547(4) -0.0525(5) 0.02 1. 0
O3 O2- 8 b 0.267(7) 0.538(6) 0.5431(4) 0.02 1. 0
O4 O2- 8 b 0.239(12) 0.5 -0.25 0.02 1. 0
O5 O2- 8 b 0.048(4) 0.292(4) 0.4030(3) 0.02 1. 0
O6 O2- 8 b 0.292(5) 0.5 0.1430(5) 0.02 1. 0
O7 O2- 8 b 0.282(6) 0.508(5) 0.3515(5) 0.02 1. 0
O8 O2- 8 b 0.040(6) -0.274(5) -0.1953(3) 0.02 1. 0
#End of TTdata_245928-ICSD