
#(C) 2019 by FIZ Karlsruhe - Leibniz Institute for Information Infrastructure.  All rights reserved.
data_247318-ICSD
_database_code_ICSD 247318
_audit_creation_date 2011-02-01
_audit_update_record 2014-08-01
_chemical_name_systematic 'Sodium niobate(V)'
_chemical_formula_structural 'Na (Nb O3)'
_chemical_formula_sum 'Na1 Nb1 O3'
_chemical_name_structure_type NaNbO3
_exptl_crystal_density_diffrn 4.57
_cell_measurement_temperature 293.
_publ_section_title

;
The polar phase of Na Nb O3: A combined study by powder diffraction,
solid-state NMR, and first-principles calculations
;
loop_
_citation_id
_citation_journal_full
_citation_year
_citation_journal_volume
_citation_page_first
_citation_page_last
_citation_journal_id_ASTM
primary 'Journal of the American Chemical Society' 2010 132 8732 8746 JACSAT
loop_
_publ_author_name
'Johnston, K.E.'
'Tang, C.C.'
'Parker, J.E.'
'Knight, K.S.'
'Lightfoot, P.'
'Ashbrook, S.E.'
_cell_length_a 5.570(1)
_cell_length_b 7.766(1)
_cell_length_c 5.513(1)
_cell_angle_alpha 90.
_cell_angle_beta 90.
_cell_angle_gamma 90.
_cell_volume 238.47
_cell_formula_units_Z 4
_symmetry_space_group_name_H-M 'P 1 m 1'
_symmetry_Int_Tables_number 6
_refine_ls_R_factor_all 0.057
loop_
_symmetry_equiv_pos_site_id
_symmetry_equiv_pos_as_xyz
1 'x, -y, z'
2 'x, y, z'
loop_
_atom_type_symbol
_atom_type_oxidation_number
Nb5+ 5
Na1+ 1
O2- -2
loop_
_atom_site_label
_atom_site_type_symbol
_atom_site_symmetry_multiplicity
_atom_site_Wyckoff_symbol
_atom_site_fract_x
_atom_site_fract_y
_atom_site_fract_z
_atom_site_B_iso_or_equiv
_atom_site_occupancy
_atom_site_attached_hydrogens
Nb1 Nb5+ 2 c 0.26246 0.25 0.2466 0.002 1. 0
Nb2 Nb5+ 2 c 0.76246 -0.25 -0.2466 0.002 1. 0
Na1 Na1+ 1 a 0.2596 0 0.7481 0.005 1. 0
Na2 Na1+ 1 a 0.7596 0 -0.7481 0.005 1. 0
Na3 Na1+ 1 b 0.2915 0.5 0.7327 0.0224 1. 0
Na4 Na1+ 1 b 0.7915 -0.5 -0.7327 0.0224 1. 0
O1 O2- 1 a 0.2409 0 0.3124 0.0053 1. 0
O2 O2- 1 a 0.7409 0 -0.3124 0.0053 1. 0
O3 O2- 1 b 0.2257 0.5 0.1928 0.0037 1. 0
O4 O2- 1 b 0.7257 -0.5 -0.1928 0.0037 1. 0
O5 O2- 2 c 0.0131 0.279 0.5272 0.0184 1. 0
O6 O2- 2 c 0.5131 -0.279 -0.5272 0.0184 1. 0
O7 O2- 2 c -0.049 0.2197 0.036 0.0061 1. 0
O8 O2- 2 c 0.451 -0.2197 -0.036 0.0061 1. 0
#End of TTdata_247318-ICSD