
#(C) 2019 by FIZ Karlsruhe - Leibniz Institute for Information Infrastructure.  All rights reserved.
data_248087-ICSD
_database_code_ICSD 248087
_audit_creation_date 2010-08-01
_chemical_name_systematic 'Disodium osmate(VI)'
_chemical_formula_structural 'Na2 (Os O4)'
_chemical_formula_sum 'Na2 O4 Os1'
_chemical_name_structure_type Ca2IrO4
_exptl_crystal_density_diffrn 5.92
_cell_measurement_temperature 290.
_publ_section_title

;
High-pressure crystal growth and magnetic and electrical properties of the
quasi-one dimensional osmium oxide Na2 Os O4
;
loop_
_citation_id
_citation_journal_full
_citation_year
_citation_journal_volume
_citation_page_first
_citation_page_last
_citation_journal_id_ASTM
primary 'Journal of Solid State Chemistry' 2010 183 402 407 JSSCBI
loop_
_publ_author_name
'Shi, Y.G.'
'Guo, Y.F.'
'Yu, S.'
'Arai, M.'
'Belik, A.A.'
'Sato, A.'
'Yamaura, K.'
'Takayama Muromachi, E.'
'Varga, T.'
'Mitchell, J.F.'
_cell_length_a 9.6133(3)
_cell_length_b 9.6133(3)
_cell_length_c 3.1567(3)
_cell_angle_alpha 90.
_cell_angle_beta 90.
_cell_angle_gamma 120.
_cell_volume 252.64
_cell_formula_units_Z 3
_symmetry_space_group_name_H-M 'P -6 2 m'
_symmetry_Int_Tables_number 189
_refine_ls_R_factor_all 0.03
loop_
_symmetry_equiv_pos_site_id
_symmetry_equiv_pos_as_xyz
1 '-x, -x+y, -z'
2 'x-y, -y, -z'
3 'y, x, -z'
4 '-x, -x+y, z'
5 'x-y, -y, z'
6 'y, x, z'
7 '-x+y, -x, -z'
8 '-y, x-y, -z'
9 'x, y, -z'
10 '-x+y, -x, z'
11 '-y, x-y, z'
12 'x, y, z'
loop_
_atom_type_symbol
_atom_type_oxidation_number
Os6+ 6
Na1+ 1
O2- -2
loop_
_atom_site_label
_atom_site_type_symbol
_atom_site_symmetry_multiplicity
_atom_site_Wyckoff_symbol
_atom_site_fract_x
_atom_site_fract_y
_atom_site_fract_z
_atom_site_B_iso_or_equiv
_atom_site_occupancy
_atom_site_attached_hydrogens
Os1 Os6+ 3 f 0.3296(0) 0. 0. 0.01290(8) 1. 0
Na1 Na1+ 1 a 0. 0. 0. 0.0200(12) 1. 0
Na2 Na1+ 2 d 0.3333 0.6667 0.5 0.0253(13) 1. 0
Na3 Na1+ 3 g 0.6943(4) 0. 0.5 0.0202(8) 1. 0
O1 O2- 3 g 0.1935(5) 0. 0.5 0.0184(12) 1. 0
O2 O2- 3 g 0.4580(5) 0. 0.5 0.0176(10) 1. 0
O3 O2- 6 j 0.4308(5) 0.2127(4) 0. 0.0310(11) 1. 0
loop_
_atom_site_aniso_label
_atom_site_aniso_type_symbol
_atom_site_aniso_U_11
_atom_site_aniso_U_22
_atom_site_aniso_U_33
_atom_site_aniso_U_12
_atom_site_aniso_U_13
_atom_site_aniso_U_23
Os1 Os6+ 0.01341(10) 0.01360(12) 0.01176(12) 0.00680(6) 0. 0.
Na1 Na1+ 0.0215(16) 0.0215(16) 0.017(3) 0.0107(8) 0. 0.
Na2 Na1+ 0.0265(17) 0.0265(17) 0.023(3) 0.0133(8) 0. 0.
Na3 Na1+ 0.0205(10) 0.0229(19) 0.018(2) 0.0115(10) 0. 0.
O1 O2- 0.0151(15) 0.020(3) 0.022(4) 0.0099(13) 0. 0.
O2 O2- 0.0164(15) 0.026(3) 0.014(3) 0.0129(13) 0. 0.
O3 O2- 0.049(3) 0.0147(14) 0.0131(19) 0.004(2) 0. 0.
#End of TTdata_248087-ICSD