
#(C) 2019 by FIZ Karlsruhe - Leibniz Institute for Information Infrastructure.  All rights reserved.
data_248140-ICSD
_database_code_ICSD 248140
_audit_creation_date 2010-08-01
_chemical_name_systematic 'Trisodium divanadium(III) tris(orthophosphate)'
_chemical_formula_structural 'Na3 V2 (P O4)3'
_chemical_formula_sum 'Na3 O12 P3 V2'
_chemical_name_structure_type 'Nasicon high'
_exptl_crystal_density_diffrn 3.16
_cell_measurement_temperature 293.
_publ_section_title 'NASICON-type Na3 V2 (P O4)3'
loop_
_citation_id
_citation_journal_full
_citation_year
_citation_journal_volume
_citation_page_first
_citation_page_last
_citation_journal_id_ASTM
primary 'Acta Crystallographica, Section E: Structure Reports Online' 2010 66
i12 i12 ACSEBH
loop_
_publ_author_name
'Zatovsky, I.V.'
_cell_length_a 8.7288(2)
_cell_length_b 8.7288(2)
_cell_length_c 21.8042(7)
_cell_angle_alpha 90
_cell_angle_beta 90
_cell_angle_gamma 120
_cell_volume 1438.73
_cell_formula_units_Z 6
_symmetry_space_group_name_H-M 'R -3 c H'
_symmetry_Int_Tables_number 167
_refine_ls_R_factor_all 0.0316
loop_
_symmetry_equiv_pos_site_id
_symmetry_equiv_pos_as_xyz
1 'x-y, -y, -z+1/2'
2 '-x, -x+y, -z+1/2'
3 'y, x, -z+1/2'
4 'x-y, x, -z'
5 'y, -x+y, -z'
6 '-x, -y, -z'
7 '-x+y, y, z+1/2'
8 'x, x-y, z+1/2'
9 '-y, -x, z+1/2'
10 '-x+y, -x, z'
11 '-y, x-y, z'
12 'x, y, z'
13 'x-y+2/3, -y+1/3, -z+5/6'
14 '-x+2/3, -x+y+1/3, -z+5/6'
15 'y+2/3, x+1/3, -z+5/6'
16 'x-y+2/3, x+1/3, -z+1/3'
17 'y+2/3, -x+y+1/3, -z+1/3'
18 '-x+2/3, -y+1/3, -z+1/3'
19 '-x+y+2/3, y+1/3, z+5/6'
20 'x+2/3, x-y+1/3, z+5/6'
21 '-y+2/3, -x+1/3, z+5/6'
22 '-x+y+2/3, -x+1/3, z+1/3'
23 '-y+2/3, x-y+1/3, z+1/3'
24 'x+2/3, y+1/3, z+1/3'
25 'x-y+1/3, -y+2/3, -z+1/6'
26 '-x+1/3, -x+y+2/3, -z+1/6'
27 'y+1/3, x+2/3, -z+1/6'
28 'x-y+1/3, x+2/3, -z+2/3'
29 'y+1/3, -x+y+2/3, -z+2/3'
30 '-x+1/3, -y+2/3, -z+2/3'
31 '-x+y+1/3, y+2/3, z+1/6'
32 'x+1/3, x-y+2/3, z+1/6'
33 '-y+1/3, -x+2/3, z+1/6'
34 '-x+y+1/3, -x+2/3, z+2/3'
35 '-y+1/3, x-y+2/3, z+2/3'
36 'x+1/3, y+2/3, z+2/3'
loop_
_atom_type_symbol
_atom_type_oxidation_number
V3+ 3
Na1+ 1
P5+ 5
O2- -2
loop_
_atom_site_label
_atom_site_type_symbol
_atom_site_symmetry_multiplicity
_atom_site_Wyckoff_symbol
_atom_site_fract_x
_atom_site_fract_y
_atom_site_fract_z
_atom_site_B_iso_or_equiv
_atom_site_occupancy
_atom_site_attached_hydrogens
V1 V3+ 12 c 0.3333 0.6667 0.019498(13) 0.00690(6) 1 0
Na1 Na1+ 6 b 0.3333 0.6667 0.1667 0.149(5) 0.805(18) 0
Na2 Na1+ 18 e 0.6667 0.96726(19) 0.0833 0.0522(10) 0.731(7) 0
P1 P5+ 18 e -0.04273(5) 0.3333 0.0833 0.00866(8) 1 0
O1 O2- 36 f 0.14193(13) 0.49765(14) 0.07762(5) 0.01643(16) 1 0
O2 O2- 36 f 0.54047(16) 0.84480(17) -0.02643(7) 0.0259(2) 1 0
loop_
_atom_site_aniso_label
_atom_site_aniso_type_symbol
_atom_site_aniso_U_11
_atom_site_aniso_U_22
_atom_site_aniso_U_33
_atom_site_aniso_U_12
_atom_site_aniso_U_13
_atom_site_aniso_U_23
V1 V3+ 0.00643(7) 0.00643(7) 0.00784(10) 0.00321(4) 0 0
Na1 Na1+ 0.218(8) 0.218(8) 0.0111(14) 0.109(4) 0 0
Na2 Na1+ 0.0224(8) 0.0170(5) 0.119(2) 0.0112(4) -0.0354(11) -0.0177(5)
P1 P5+ 0.00635(10) 0.00714(14) 0.01276(15) 0.00357(7) 0.00152(5) 0.00305(11)
O1 O2- 0.0089(3) 0.0130(3) 0.0220(4) 0.0015(3) 0.0048(3) 0.0057(3)
O2 O2- 0.0185(4) 0.0223(5) 0.0322(6) 0.0067(4) 0.0143(4) 0.0151(4)
#End of TTdata_248140-ICSD