
#(C) 2019 by FIZ Karlsruhe - Leibniz Institute for Information Infrastructure.  All rights reserved.
data_24817-ICSD
_database_code_ICSD 24817
_audit_creation_date 1982-12-31
_chemical_name_systematic 'Trisodium silver oxide'
_chemical_formula_structural 'Na3 Ag O2'
_chemical_formula_sum 'Ag1 Na3 O2'
_chemical_name_structure_type Na3AgO2
_exptl_crystal_density_diffrn 3.92
_publ_section_title 'Alkalioxoargentate(I). Ueber Na3 Ag O2'
loop_
_citation_id
_citation_journal_full
_citation_year
_citation_journal_volume
_citation_page_first
_citation_page_last
_citation_journal_id_ASTM
primary 'Zeitschrift fuer Anorganische und Allgemeine Chemie (1950) (DE)' 1982
485 92 100 ZAACAB
loop_
_publ_author_name
'Klassen, H.'
'Hoppe, R.'
_cell_length_a 5.463(1)
_cell_length_b 10.926(1)
_cell_length_c 5.926(1)
_cell_angle_alpha 90.
_cell_angle_beta 90.
_cell_angle_gamma 90.
_cell_volume 353.72
_cell_formula_units_Z 4
_symmetry_space_group_name_H-M 'I b a m'
_symmetry_Int_Tables_number 72
_refine_ls_R_factor_all 0.0294
loop_
_symmetry_equiv_pos_site_id
_symmetry_equiv_pos_as_xyz
1 '-x, y, z+1/2'
2 'x, -y, z+1/2'
3 'x, y, -z'
4 '-x, -y, -z'
5 'x, -y, -z+1/2'
6 '-x, y, -z+1/2'
7 '-x, -y, z'
8 'x, y, z'
9 '-x+1/2, y+1/2, z'
10 'x+1/2, -y+1/2, z'
11 'x+1/2, y+1/2, -z+1/2'
12 '-x+1/2, -y+1/2, -z+1/2'
13 'x+1/2, -y+1/2, -z'
14 '-x+1/2, y+1/2, -z'
15 '-x+1/2, -y+1/2, z+1/2'
16 'x+1/2, y+1/2, z+1/2'
loop_
_atom_type_symbol
_atom_type_oxidation_number
Na1+ 1
Ag1+ 1
O2- -2
loop_
_atom_site_label
_atom_site_type_symbol
_atom_site_symmetry_multiplicity
_atom_site_Wyckoff_symbol
_atom_site_fract_x
_atom_site_fract_y
_atom_site_fract_z
_atom_site_B_iso_or_equiv
_atom_site_occupancy
_atom_site_attached_hydrogens
Na1 Na1+ 8 g 0 0.2405(3) 0.25 . 1. 0
Na2 Na1+ 4 b 0.5 0 0.25 . 1. 0
Ag1 Ag1+ 4 c 0 0 0 . 1. 0
O1 O2- 8 j 0.2735(5) 0.1344(3) 0 . 1. 0
loop_
_atom_site_aniso_label
_atom_site_aniso_type_symbol
_atom_site_aniso_U_11
_atom_site_aniso_U_22
_atom_site_aniso_U_33
_atom_site_aniso_U_12
_atom_site_aniso_U_13
_atom_site_aniso_U_23
Na1 Na1+ 0.0107(12) 0.0148(12) 0.0133(12) 0 -.0005(7) 0
Na2 Na1+ 0.0142(22) 0.0138(20) 0.0137(19) 0.0099(25) 0 0
Ag1 Ag1+ 0.0060(4) 0.0075(4) 0.0079(4) -.0020(2) 0 0
O1 O2- 0.0030(12) 0.0064(13) 0.0097(12) -.0030(15) 0 0
#End of TTdata_24817-ICSD