
#(C) 2019 by FIZ Karlsruhe - Leibniz Institute for Information Infrastructure.  All rights reserved.
data_248729-ICSD
_database_code_ICSD 248729
_audit_creation_date 2015-02-01
_chemical_name_systematic 'Tetrasodium cobalt(II) tris[molybdate(VI)]'
_chemical_formula_structural 'Na4 Co (Mo O4)3'
_chemical_formula_sum 'Co1 Mo3 Na4 O12'
_chemical_name_structure_type Alluaudite
_exptl_crystal_density_diffrn 3.66
_cell_measurement_temperature 298.
_publ_section_title 'Crystal structure of alluaudite-type Na4Co(MoO4)3'
loop_
_citation_id
_citation_journal_full
_citation_year
_citation_journal_volume
_citation_page_first
_citation_page_last
_citation_journal_id_ASTM
primary 'Acta Crystallographica, Section E: Structure Reports Online' 2014 70
i47 i47 ACSEBH
loop_
_publ_author_name
'Nasri, Rawia'
'Bourguiba, Fakhar Noura'
'Zid, Mohamed Faouzi'
'Driss, Ahmed'
_cell_length_a 12.8770(8)
_cell_length_b 13.4384(9)
_cell_length_c 7.1292(7)
_cell_angle_alpha 90.
_cell_angle_beta 112.072(6)
_cell_angle_gamma 90.
_cell_volume 1143.26
_cell_formula_units_Z 4
_symmetry_space_group_name_H-M 'C 1 2/c 1'
_symmetry_Int_Tables_number 15
_refine_ls_R_factor_all 0.0254
loop_
_symmetry_equiv_pos_site_id
_symmetry_equiv_pos_as_xyz
1 'x, -y, z+1/2'
2 '-x, -y, -z'
3 '-x, y, -z+1/2'
4 'x, y, z'
5 'x+1/2, -y+1/2, z+1/2'
6 '-x+1/2, -y+1/2, -z'
7 '-x+1/2, y+1/2, -z+1/2'
8 'x+1/2, y+1/2, z'
loop_
_atom_type_symbol
_atom_type_oxidation_number
Mo6+ 6
Co2+ 2
Na1+ 1
O2- -2
loop_
_atom_site_label
_atom_site_type_symbol
_atom_site_symmetry_multiplicity
_atom_site_Wyckoff_symbol
_atom_site_fract_x
_atom_site_fract_y
_atom_site_fract_z
_atom_site_B_iso_or_equiv
_atom_site_occupancy
_atom_site_attached_hydrogens
Mo1 Mo6+ 4 e 0. 0.21721(3) 0.25 0.01688(16) 1 0
Mo2 Mo6+ 8 f 0.26106(3) 0.89054(2) 0.37349(4) 0.01710(15) 1 0
Co1 Co2+ 8 f 0.28417(6) 0.16208(6) 0.37580(10) 0.01443(19) 0.503(5) 0
Na1 Na1+ 8 f 0.28417(6) 0.16208(6) 0.37580(10) 0.01443(19) 0.497(6) 0
Na2 Na1+ 4 e 0. 0.23993(19) 0.75 0.0245(5) 1 0
Na3 Na1+ 4 a 0. 0. 0. 0.0372(6) 1 0
Na4 Na1+ 4 e 0.5 0.0060(3) 0.75 0.0454(7) 1 0
O1 O2- 8 f 0.2761(3) 0.8197(2) 0.1715(4) 0.0283(7) 1 0
O2 O2- 8 f 0.3244(3) 0.8298(2) 0.6100(4) 0.0264(6) 1 0
O3 O2- 8 f 0.1067(3) 0.1352(2) 0.2466(5) 0.0324(7) 1 0
O4 O2- 8 f 0.3248(3) 0.0080(3) 0.3900(5) 0.0345(7) 1 0
O5 O2- 8 f 0.1179(3) 0.9099(2) 0.3156(5) 0.0290(7) 1 0
O6 O2- 8 f 0.0439(2) 0.2916(2) 0.4718(4) 0.0238(6) 1 0
loop_
_atom_site_aniso_label
_atom_site_aniso_type_symbol
_atom_site_aniso_U_11
_atom_site_aniso_U_22
_atom_site_aniso_U_33
_atom_site_aniso_U_12
_atom_site_aniso_U_13
_atom_site_aniso_U_23
Mo1 Mo6+ 0.0256(3) 0.0134(2) 0.0097(2) 0. 0.00436(17) 0.
Mo2 Mo6+ 0.0212(2) 0.0184(2) 0.0106(2) -0.00135(12) 0.00467(13) 0.00017(11)
Co1 Co2+ 0.0183(4) 0.0159(4) 0.0092(3) 0.0006(3) 0.0054(3) -0.0009(3)
Na1 Na1+ 0.0183(4) 0.0159(4) 0.0092(3) 0.0006(3) 0.0054(3) -0.0009(3)
Na2 Na1+ 0.0248(11) 0.0317(12) 0.0208(11) 0. 0.0131(9) 0.
Na3 Na1+ 0.0506(16) 0.0234(12) 0.0239(13) 0.0014(12) -0.0018(11) -0.0011(11)
Na4 Na1+ 0.0233(12) 0.0505(18) 0.0527(19) 0. 0.0031(12) 0.
O1 O2- 0.0368(16) 0.0338(17) 0.0165(13) -0.0011(14) 0.0124(12) -0.0011(12)
O2 O2- 0.0339(15) 0.0267(15) 0.0142(13) 0.0072(13) 0.0041(11) 0.0009(11)
O3 O2- 0.0363(16) 0.0248(15) 0.0289(16) 0.0052(13) 0.0042(13) -0.0075(13)
O4 O2- 0.0416(18) 0.0309(17) 0.0294(16) -0.0123(15) 0.0114(14) 0.0030(14)
O5 O2- 0.0266(15) 0.0268(15) 0.0329(16) 0.0042(12) 0.0104(13) 0.0043(13)
O6 O2- 0.0306(15) 0.0293(15) 0.0127(12) -0.0020(12) 0.0094(11) -0.0047(11)
#End of TTdata_248729-ICSD