
#(C) 2019 by FIZ Karlsruhe - Leibniz Institute for Information Infrastructure.  All rights reserved.
data_24878-ICSD
_database_code_ICSD 24878
_audit_creation_date 1980-01-01
_audit_update_record 2019-02-01
_chemical_name_systematic
'Sodium vanadium molybdenum oxide (0.33/1.67/0.33/5) - beta'
_chemical_formula_structural 'Na0.33 V1.67 Mo0.33 O5'
_chemical_formula_sum 'Mo0.33 Na0.33 O5 V1.67'
_chemical_name_structure_type NaxV2O5
_exptl_crystal_density_diffrn 3.75
_publ_section_title 'Les bronzes oxygenes mixtes Mx V2-y Ty O5 (T = Mo, W)'
loop_
_citation_id
_citation_journal_full
_citation_year
_citation_journal_volume
_citation_page_first
_citation_page_last
_citation_journal_id_ASTM
primary 'Journal of Solid State Chemistry' 1971 3 604 613 JSSCBI
loop_
_publ_author_name
'Darriet, J.'
'Galy, J.'
'Hagenmuller, P.'
_cell_length_a 15.475(10)
_cell_length_b 3.655(10)
_cell_length_c 10.15(1)
_cell_angle_alpha 90.
_cell_angle_beta 108.8(1)
_cell_angle_gamma 90.
_cell_volume 543.47
_cell_formula_units_Z 6
_symmetry_space_group_name_H-M 'C 1 2/m 1'
_symmetry_Int_Tables_number 12
_refine_ls_R_factor_all 0.057
loop_
_symmetry_equiv_pos_site_id
_symmetry_equiv_pos_as_xyz
1 '-x, y, -z'
2 '-x, -y, -z'
3 'x, -y, z'
4 'x, y, z'
5 '-x+1/2, y+1/2, -z'
6 '-x+1/2, -y+1/2, -z'
7 'x+1/2, -y+1/2, z'
8 'x+1/2, y+1/2, z'
loop_
_atom_type_symbol
_atom_type_oxidation_number
Na1+ 1
V4+ 4.83
Mo4+ 4.83
V4+ 4.83
O2- -2
loop_
_atom_site_label
_atom_site_type_symbol
_atom_site_symmetry_multiplicity
_atom_site_Wyckoff_symbol
_atom_site_fract_x
_atom_site_fract_y
_atom_site_fract_z
_atom_site_B_iso_or_equiv
_atom_site_occupancy
_atom_site_attached_hydrogens
Na1 Na1+ 4 i 0.009 0 0.402 1. 0.5 0
V1 V4+ 4 i 0.335 0 0.1051 0.5 1. 0
V2 V4+ 4 i 0.1195 0 0.1197 0.5 0.5 0
Mo1 Mo4+ 4 i 0.1195 0 0.1197 0.5 0.5 0
V3 V4+ 4 i 0.2874 0 0.4221 0.5 1. 0
O1 O2- 2 a 0 0 0 1. 1. 0
O2 O2- 4 i 0.191 0 -.046 1. 1. 0
O3 O2- 4 i 0.625 0 0.067 1. 1. 0
O4 O2- 4 i 0.428 0 0.213 1. 1. 0
O5 O2- 4 i 0.263 0 0.233 1. 1. 0
O6 O2- 4 i 0.113 0 0.286 1. 1. 0
O7 O2- 4 i 0.236 0 0.569 1. 1. 0
O8 O2- 4 i 0.399 0 0.46 1. 1. 0
#End of TTdata_24878-ICSD