
#(C) 2019 by FIZ Karlsruhe - Leibniz Institute for Information Infrastructure.  All rights reserved.
data_248715-ICSD
_database_code_ICSD 248715
_audit_creation_date 2015-02-01
_chemical_name_systematic 'Tetrasodium pentadecamolybdenum nonadecasulfide'
_chemical_formula_structural 'Na4.25 Mo15 S19'
_chemical_formula_sum 'Mo15 Na4.25 S19'
_chemical_name_structure_type Mo15In3Se19
_exptl_crystal_density_diffrn 4.77
_cell_measurement_temperature 293.
_publ_section_title

;
Na4.25Mo15S19: a novel ternary reduced molybdenum sulfide containing Mo6 and
Mo9 clusters
;
loop_
_citation_id
_citation_journal_full
_citation_year
_citation_journal_volume
_citation_page_first
_citation_page_last
_citation_journal_id_ASTM
primary 'Acta Crystallographica, Section E: Structure Reports Online' 2014 70
i30 i30 ACSEBH
loop_
_publ_author_name
'Salloum, D.'
'Gougeon, P.'
'Gall, P.'
_cell_length_a 9.53400(10)
_cell_length_b 9.53400(10)
_cell_length_c 18.9803(3)
_cell_angle_alpha 90.
_cell_angle_beta 90.
_cell_angle_gamma 120.
_cell_volume 1494.11
_cell_formula_units_Z 2
_symmetry_space_group_name_H-M 'P 63/m'
_symmetry_Int_Tables_number 176
_refine_ls_R_factor_all 0.0304
loop_
_symmetry_equiv_pos_site_id
_symmetry_equiv_pos_as_xyz
1 '-x+y, -x, -z+1/2'
2 '-y, x-y, -z+1/2'
3 'x, y, -z+1/2'
4 'x-y, x, -z'
5 'y, -x+y, -z'
6 '-x, -y, -z'
7 'x-y, x, z+1/2'
8 'y, -x+y, z+1/2'
9 '-x, -y, z+1/2'
10 '-x+y, -x, z'
11 '-y, x-y, z'
12 'x, y, z'
loop_
_atom_type_symbol
_atom_type_oxidation_number
Mo0+ 0
S0+ 0
Na0+ 0
loop_
_atom_site_label
_atom_site_type_symbol
_atom_site_symmetry_multiplicity
_atom_site_Wyckoff_symbol
_atom_site_fract_x
_atom_site_fract_y
_atom_site_fract_z
_atom_site_B_iso_or_equiv
_atom_site_occupancy
_atom_site_attached_hydrogens
Mo1 Mo0+ 12 i 0.84424(3) 0.01344(3) -0.058496(18) 0.01072(12) 1 0
Mo2 Mo0+ 12 i 0.50077(4) -0.18303(4) 0.131678(19) 0.01177(12) 1 0
Mo3 Mo0+ 6 h 0.34797(5) -0.16448(5) 0.25 0.01301(13) 1 0
S1 S0+ 12 i 0.71650(10) 0.02755(11) 0.05118(5) 0.01268(18) 1 0
S2 S0+ 12 i 0.36949(11) -0.01601(11) 0.13948(5) 0.01344(19) 1 0
S3 S0+ 6 h 0.05126(16) -0.30754(17) 0.25 0.0171(3) 1 0
S4 S0+ 4 e 0. 0. -0.15617(9) 0.0184(3) 1 0
S5 S0+ 4 f 0.3333 -0.3333 0.03365(9) 0.0156(3) 1 0
Na1 Na0+ 6 h 0.7703(5) -0.0623(4) -0.25 0.0283(12) 0.751(12) 0
Na2 Na0+ 4 f 0.3333 -0.3333 -0.1085(3) 0.0789(17) 1 0
loop_
_atom_site_aniso_label
_atom_site_aniso_type_symbol
_atom_site_aniso_U_11
_atom_site_aniso_U_22
_atom_site_aniso_U_33
_atom_site_aniso_U_12
_atom_site_aniso_U_13
_atom_site_aniso_U_23
Mo1 Mo0+ 0.01252(16) 0.01051(16) 0.00816(19) 0.00505(11) 0.00061(10) -0.00031(9)
Mo2 Mo0+ 0.01434(17) 0.01410(17) 0.00778(19) 0.00778(12) -0.00017(10)
-0.00005(10)
Mo3 Mo0+ 0.0153(2) 0.0159(2) 0.0075(2) 0.00754(17) 0. 0.
S1 S0+ 0.0121(4) 0.0138(4) 0.0121(4) 0.0064(3) 0.0013(3) 0.0005(3)
S2 S0+ 0.0154(4) 0.0143(4) 0.0112(4) 0.0079(3) 0.0001(3) 0.0008(3)
S3 S0+ 0.0185(6) 0.0198(6) 0.0133(7) 0.0098(5) 0. 0.
S4 S0+ 0.0228(5) 0.0228(5) 0.0095(8) 0.0114(2) 0. 0.
S5 S0+ 0.0187(4) 0.0187(4) 0.0093(7) 0.0094(2) 0. 0.
Na1 Na0+ 0.040(2) 0.0256(19) 0.026(2) 0.0218(16) 0. 0.
Na2 Na0+ 0.109(3) 0.109(3) 0.018(2) 0.0547(14) 0. 0.
#End of TTdata_248715-ICSD