
#(C) 2019 by FIZ Karlsruhe - Leibniz Institute for Information Infrastructure.  All rights reserved.
data_248839-ICSD
_database_code_ICSD 248839
_audit_creation_date 2015-02-01
_chemical_name_systematic 'Trisodium tricadmium borophosphate'
_chemical_formula_structural 'Na3 Cd3 B (P O4)4'
_chemical_formula_sum 'B1 Cd3 Na3 O16 P4'
_exptl_crystal_density_diffrn 3.98
_cell_measurement_temperature 296.
_publ_section_title

;
Na3Cd3B(PO4)4: A new noncentrosymmetric borophosphate with zero-dimensional
anion units
;
loop_
_citation_id
_citation_journal_full
_citation_year
_citation_journal_volume
_citation_page_first
_citation_page_last
_citation_journal_id_ASTM
primary 'Inorganic Chemistry' 2012 51 10870 10875 INOCAJ
loop_
_publ_author_name
'Shi, Yunjing'
'Pan, Shilie'
'Dong, Xiaoyu'
'Wang, Ying'
'Zhang, Min'
'Zhang, Fangfang'
'Zhou, Zhongxiang'
_cell_length_a 13.685(3)
_cell_length_b 5.3346(11)
_cell_length_c 18.217(4)
_cell_angle_alpha 90.
_cell_angle_beta 90.
_cell_angle_gamma 90.
_cell_volume 1329.91
_cell_formula_units_Z 4
_symmetry_space_group_name_H-M 'P m c 21'
_symmetry_Int_Tables_number 26
_refine_ls_R_factor_all 0.0389
loop_
_symmetry_equiv_pos_site_id
_symmetry_equiv_pos_as_xyz
1 'x, -y, z+1/2'
2 '-x, -y, z+1/2'
3 '-x, y, z'
4 'x, y, z'
loop_
_atom_type_symbol
_atom_type_oxidation_number
Na1+ 1
Cd2+ 2
B3+ 3
P5+ 5
O2- -2
loop_
_atom_site_label
_atom_site_type_symbol
_atom_site_symmetry_multiplicity
_atom_site_Wyckoff_symbol
_atom_site_fract_x
_atom_site_fract_y
_atom_site_fract_z
_atom_site_B_iso_or_equiv
_atom_site_occupancy
_atom_site_attached_hydrogens
Na1 Na1+ 4 c 0.75349(11) 0.5551(3) 0.56902(9) 0.0221(4) 0.660(3) 0
Na2 Na1+ 4 c 0.87795(14) 0.4781(4) 0.88009(13) 0.0329(7) 0.747(3) 0
Na3 Na1+ 4 c 0.62366(17) 0.0308(5) 0.62917(19) 0.0454(10) 0.806(4) 0
Na4 Na1+ 4 c 0.74683(15) 0.0113(5) 0.81530(12) 0.0300(7) 0.787(4) 0
Cd1 Cd2+ 4 c 0.75349(11) 0.5551(3) 0.56902(9) 0.0221(4) 0.340(3) 0
Cd2 Cd2+ 4 c 0.87795(14) 0.4781(4) 0.88009(13) 0.0329(7) 0.253(3) 0
Cd3 Cd2+ 4 c 0.62366(17) 0.0308(5) 0.62917(19) 0.0454(10) 0.194(4) 0
Cd4 Cd2+ 4 c 0.74683(15) 0.0113(5) 0.81530(12) 0.0300(7) 0.213(4) 0
Cd5 Cd2+ 4 c 0.63536(4) 0.55896(11) 0.41036(3) 0.01771(18) 1 0
Cd6 Cd2+ 4 c 0.86872(4) 0.09948(14) 0.65911(3) 0.02135(19) 1 0
B1 B3+ 2 b 0.5 0.369(2) 0.2210(7) 0.006(2) 1 0
B2 B3+ 2 a 1. -0.072(2) 0.4673(7) 0.008(2) 1 0
P1 P5+ 2 b 0.5 0.5457(5) 0.56914(16) 0.0071(5) 1 0
P2 P5+ 2 b 0.5 0.0746(5) 0.34583(16) 0.0076(5) 1 0
P3 P5+ 2 a 1. -0.3753(5) 0.59046(16) 0.0087(5) 1 0
P4 P5+ 2 a 1. -0.0031(6) 0.81511(16) 0.0082(5) 1 0
P5 P5+ 4 c 0.69638(14) 0.5283(4) 0.73414(11) 0.0082(4) 1 0
P6 P5+ 4 c 0.80398(15) 0.0416(3) 0.48381(11) 0.0084(4) 1 0
O1 O2- 2 a 1. -0.3073(16) 0.5060(4) 0.0202(19) 1 0
O2 O2- 2 b 0.5 0.2705(15) 0.5904(5) 0.0178(18) 1 0
O3 O2- 2 b 0.5 0.1265(15) 0.2611(4) 0.0147(17) 1 0
O4 O2- 2 a 1. -0.2778(15) 0.8343(5) 0.0164(17) 1 0
O5 O2- 4 c 0.9075(4) 0.0810(12) 0.7761(3) 0.0191(13) 1 0
O6 O2- 2 a 1. -0.1264(14) 0.6328(4) 0.0121(16) 1 0
O7 O2- 4 c 0.5921(4) 0.6270(12) 0.5288(3) 0.0185(13) 1 0
O8 O2- 4 c 0.7329(5) 0.3189(12) 0.6856(4) 0.0311(17) 1 0
O9 O2- 2 a 1. 0.1599(14) 0.8887(4) 0.0088(15) 1 0
O10 O2- 2 b 0.5 0.3281(15) 0.3862(4) 0.0121(16) 1 0
O11 O2- 4 c 0.7775(4) 0.8198(12) 0.4370(3) 0.0190(13) 1 0
O12 O2- 2 b 0.5 0.7130(14) 0.6418(4) 0.0098(15) 1 0
O13 O2- 4 c 0.9080(4) -0.5213(11) 0.6071(4) 0.0181(13) 1 0
O14 O2- 4 c 0.4070(4) -0.0669(11) 0.3638(3) 0.0179(13) 1 0
O15 O2- 4 c 0.4158(4) 0.5204(11) 0.2380(4) 0.0150(12) 1 0
O16 O2- 4 c 0.7565(5) 0.2806(12) 0.4587(5) 0.0358(19) 1 0
O17 O2- 4 c 0.7199(5) 0.7824(11) 0.7032(4) 0.0221(14) 1 0
O18 O2- 4 c 0.7348(5) 0.5040(16) 0.8112(4) 0.0312(17) 1 0
O19 O2- 4 c 0.7768(5) -0.0088(13) 0.5622(4) 0.0257(14) 1 0
O20 O2- 4 c 0.9157(4) 0.0902(10) 0.4810(3) 0.0142(12) 1 0
loop_
_atom_site_aniso_label
_atom_site_aniso_type_symbol
_atom_site_aniso_U_11
_atom_site_aniso_U_22
_atom_site_aniso_U_33
_atom_site_aniso_U_12
_atom_site_aniso_U_13
_atom_site_aniso_U_23
Na1 Na1+ 0.0163(7) 0.0274(8) 0.0225(8) -0.0024(6) -0.0035(6) 0.0012(6)
Na2 Na1+ 0.0192(9) 0.0248(10) 0.0548(14) 0.0001(7) 0.0103(8) 0.0116(9)
Na3 Na1+ 0.0275(13) 0.0314(14) 0.077(2) -0.0060(10) -0.0204(12) 0.0217(12)
Na4 Na1+ 0.0209(11) 0.0364(12) 0.0327(13) -0.0032(8) 0.0017(9) -0.0070(9)
Cd1 Cd2+ 0.0163(7) 0.0274(8) 0.0225(8) -0.0024(6) -0.0035(6) 0.0012(6)
Cd2 Cd2+ 0.0192(9) 0.0248(10) 0.0548(14) 0.0001(7) 0.0103(8) 0.0116(9)
Cd3 Cd2+ 0.0275(13) 0.0314(14) 0.077(2) -0.0060(10) -0.0204(12) 0.0217(12)
Cd4 Cd2+ 0.0209(11) 0.0364(12) 0.0327(13) -0.0032(8) 0.0017(9) -0.0070(9)
Cd5 Cd2+ 0.0123(3) 0.0265(3) 0.0143(3) 0.0004(2) 0.0012(3) -0.0001(3)
Cd6 Cd2+ 0.0163(3) 0.0347(4) 0.0130(3) 0.0132(2) -0.0048(3) -0.0067(3)
B1 B3+ 0.002(5) 0.007(5) 0.008(6) 0. 0. 0.006(4)
B2 B3+ 0.012(5) 0.010(6) 0.004(6) 0. 0. 0.000(4)
P1 P5+ 0.0070(12) 0.0099(12) 0.0045(13) 0. 0. -0.0018(10)
P2 P5+ 0.0081(13) 0.0077(12) 0.0071(13) 0. 0. 0.0010(10)
P3 P5+ 0.0072(12) 0.0095(12) 0.0094(13) 0. 0. 0.0006(10)
P4 P5+ 0.0076(12) 0.0116(12) 0.0055(14) 0. 0. -0.0022(10)
P5 P5+ 0.0078(9) 0.0086(9) 0.0082(9) 0.0021(7) 0.0021(7) 0.0013(7)
P6 P5+ 0.0068(9) 0.0103(9) 0.0081(9) 0.0006(7) -0.0005(7) -0.0009(7)
O1 O2- 0.040(5) 0.016(4) 0.005(4) 0. 0. 0.001(3)
O2 O2- 0.027(5) 0.013(4) 0.014(4) 0. 0. 0.007(3)
O3 O2- 0.027(4) 0.010(4) 0.007(4) 0. 0. 0.006(3)
O4 O2- 0.019(4) 0.015(4) 0.015(4) 0. 0. -0.001(3)
O5 O2- 0.011(3) 0.034(3) 0.012(3) 0.004(2) -0.004(2) -0.004(2)
O6 O2- 0.008(3) 0.011(4) 0.017(4) 0. 0. -0.001(3)
O7 O2- 0.010(3) 0.036(4) 0.009(3) -0.004(3) 0.006(2) -0.005(2)
O8 O2- 0.016(3) 0.018(3) 0.060(5) -0.001(2) 0.013(3) -0.020(3)
O9 O2- 0.011(4) 0.015(4) 0.001(3) 0. 0. -0.002(3)
O10 O2- 0.014(4) 0.011(4) 0.012(4) 0. 0. 0.000(3)
O11 O2- 0.008(3) 0.026(3) 0.022(3) -0.002(2) 0.003(2) -0.011(2)
O12 O2- 0.012(3) 0.012(4) 0.006(4) 0. 0. -0.002(3)
O13 O2- 0.010(3) 0.016(3) 0.029(4) -0.002(2) 0.005(2) -0.005(2)
O14 O2- 0.008(3) 0.022(3) 0.023(3) -0.004(2) 0.001(2) 0.001(2)
O15 O2- 0.002(2) 0.014(3) 0.029(3) 0.002(2) 0.000(2) -0.003(2)
O16 O2- 0.026(4) 0.018(3) 0.063(5) 0.003(3) -0.010(4) 0.020(3)
O17 O2- 0.020(3) 0.016(3) 0.031(4) 0.000(2) -0.003(3) 0.012(2)
O18 O2- 0.016(3) 0.065(5) 0.013(4) -0.005(3) 0.001(3) 0.014(3)
O19 O2- 0.0253(17) 0.0276(16) 0.0241(17) -0.0018(10) -0.0003(10) -0.0003(10)
O20 O2- 0.006(3) 0.015(3) 0.022(3) -0.001(2) 0.001(2) -0.006(2)
#End of TTdata_248839-ICSD