
#(C) 2019 by FIZ Karlsruhe - Leibniz Institute for Information Infrastructure.  All rights reserved.
data_24882-ICSD
_database_code_ICSD 24882
_audit_creation_date 1980-01-01
_audit_update_record 2012-08-01
_chemical_name_systematic 'Sodium niobium oxide (13/35/94)'
_chemical_formula_structural 'Na13 Nb35 O94'
_chemical_formula_sum 'Na13 Nb35 O94'
_exptl_crystal_density_diffrn 4.64
_publ_section_title

;
The structure of the bronze Na13 Nb35 O94 and the geometry of ferroelectric
domains
;
loop_
_citation_id
_citation_journal_full
_citation_year
_citation_journal_volume
_citation_page_first
_citation_page_last
_citation_journal_id_ASTM
primary 'Journal of Solid State Chemistry' 1971 3 89 100 JSSCBI
loop_
_publ_author_name
'Craig, D.C.'
'Stephenson, N.C.'
_cell_length_a 12.364(1)
_cell_length_b 36.992(4)
_cell_length_c 3.955(1)
_cell_angle_alpha 90.
_cell_angle_beta 90.
_cell_angle_gamma 90.
_cell_volume 1808.89
_cell_formula_units_Z 1
_symmetry_space_group_name_H-M 'P b a 2'
_symmetry_Int_Tables_number 32
_refine_ls_R_factor_all 0.045
loop_
_symmetry_equiv_pos_site_id
_symmetry_equiv_pos_as_xyz
1 'x+1/2, -y+1/2, z'
2 '-x+1/2, y+1/2, z'
3 '-x, -y, z'
4 'x, y, z'
loop_
_atom_type_symbol
_atom_type_oxidation_number
Na1+ 1
Nb5+ 5
O2- -2
loop_
_atom_site_label
_atom_site_type_symbol
_atom_site_symmetry_multiplicity
_atom_site_Wyckoff_symbol
_atom_site_fract_x
_atom_site_fract_y
_atom_site_fract_z
_atom_site_B_iso_or_equiv
_atom_site_occupancy
_atom_site_attached_hydrogens
Na1 Na1+ 2 a 0 0 0.0092(71) . 1. 0
Na2 Na1+ 4 c 0.0061(11) 0.3330(3) 0.0069(72) . 1. 0
Na3 Na1+ 4 c 0.3333(14) 0.0553(4) 0.0102(80) . 1. 0
Na4 Na1+ 4 c 0.1843(20) 0.2261(7) -.0051(86) . 0.75 0
Nb1 Nb5+ 2 b 0.5 0 0.5 . 1. 0
Nb2 Nb5+ 4 c 0.07993(12) 0.07091(4) 0.5315(18) . 1. 0
Nb3 Nb5+ 4 c 0.02141(12) 0.17327(4) 0.5020(18) . 1. 0
Nb4 Nb5+ 4 c 0.21835(13) 0.30877(4) 0.5131(18) . 1. 0
Nb5 Nb5+ 4 c 0.07520(13) 0.40313(4) 0.5189(19) . 1. 0
Nb6 Nb5+ 4 c 0.29842(14) 0.13814(4) 0.5012(19) . 1. 0
Nb7 Nb5+ 4 c 0.42699(15) 0.23379(4) 0.4971(19) . 1. 0
Nb8 Nb5+ 4 c 0.29553(14) 0.47814(4) 0.5285(19) . 1. 0
Nb9 Nb5+ 4 c 0.33769(13) 0.39054(4) 0.4318(17) . 1. 0
Nb10 Nb5+ 4 c 0.2910(11) 0.1910(4) -.0053(77) . 0.125 0
Nb11 Nb5+ 4 c 0.0861(14) 0.2660(4) -.0009(81) . 0.125 0
O1 O2- 4 c 0.11002(78) 0.01893(27) 0.5113(57) . 1. 0
O2 O2- 4 c 0.22175(84) 0.09106(28) 0.4929(57) . 1. 0
O3 O2- 4 c 0.00288(83) 0.11800(29) 0.4813(54) . 1. 0
O4 O2- 4 c 0.16783(88) 0.16500(27) 0.4732(52) . 1. 0
O5 O2- 4 c 0.02142(85) 0.22341(28) 0.4806(55) . 1. 0
O6 O2- 4 c 0.34026(83) 0.00307(28) 0.4947(55) . 1. 0
O7 O2- 4 c 0.44762(84) 0.12411(28) 0.4973(51) . 1. 0
O8 O2- 4 c 0.35678(81) 0.18945(28) 0.4922(51) . 1. 0
O9 O2- 4 c 0.29241(84) 0.26259(28) 0.4885(56) . 1. 0
O10 O2- 4 c 0.0709(12) 0.29340(39) 0.4687(99) . 1. 0
O11 O2- 4 c 0.3645(11) 0.33481(36) 0.492(12) . 1. 0
O12 O2- 4 c 0.18622(81) 0.36325(26) 0.4752(49) . 1. 0
O13 O2- 4 c 0.2192(10) 0.42935(34) 0.4875(76) . 1. 0
O14 O2- 4 c 0.00106(87) 0.44776(28) 0.4573(56) . 1. 0
O15 O2- 4 c 0.41717(80) 0.44088(26) 0.5028(54) . 1. 0
O16 O2- 2 b 0 0.5 -0.021(13) . 1. 0
O17 O2- 4 c 0.08318(84) 0.06973(29) -.0064(80) . 1. 0
O18 O2- 4 c 0.02819(86) 0.17620(28) -.0126(71) . 1. 0
O19 O2- 4 c 0.21431(83) 0.30788(28) -.0208(74) . 1. 0
O20 O2- 4 c 0.07566(83) 0.40260(28) 0.0036(73) . 1. 0
O21 O2- 4 c 0.30313(89) 0.14759(28) -.0211(61) . 1. 0
O22 O2- 4 c 0.43238(84) 0.23397(28) -.0168(70) . 1. 0
O23 O2- 4 c 0.3005(14) 0.47944(45) -0.011(10) . 1. 0
O24 O2- 4 c 0.33867(88) 0.39005(29) -.0297(74) . 1. 0
loop_
_atom_site_aniso_label
_atom_site_aniso_type_symbol
_atom_site_aniso_beta_11
_atom_site_aniso_beta_22
_atom_site_aniso_beta_33
_atom_site_aniso_beta_12
_atom_site_aniso_beta_13
_atom_site_aniso_beta_23
Na1 Na1+ 0.00331(84) 0.00061(10) 0.028(15) -.00024(23) 0 0
Na2 Na1+ 0.00774(91) 0.00064(8) 0.077(14) 0.00015(23) 0.0098(52) 0.0045(15)
Na3 Na1+ 0.0106(14) 0.00112(16) 0.088(21) 0.00137(35) -.0068(76) -.0007(21)
Na4 Na1+ 0.0184(27) 0.00276(40) 0.085(22) 0.00564(88) -.0071(96) -.0004(34)
Nb1 Nb5+ 0.00163(15) 0.00016(1) 0.0629(36) 0.00001(3) 0 0
Nb2 Nb5+ 0.00122(9) 0.00011(1) 0.0258(16) 0.00005(2) -.00015(47) 0.00008(14)
Nb3 Nb5+ 0.00092(9) 0.00013(1) 0.1005(21) -.00005(2) -.00061(61) -.00067(19)
Nb4 Nb5+ 0.00136(9) 0.00015(1) 0.0361(18) -.00004(2) -.00086(53) 0.00032(16)
Nb5 Nb5+ 0.00099(8) 0.00016(1) 0.0591(22) 0.00001(2) 0.00050(68) 0.00008(19)
Nb6 Nb5+ 0.00114(9) 0.00020(1) 0.0657(24) 0.00004(2) -.00058(70) 0.00040(23)
Nb7 Nb5+ 0.00294(12) 0.00014(1) 0.0428(23) -.00004(3) -.00017(70) 0.00012(19)
Nb8 Nb5+ 0.00123(8) 0.00011(1) 0.0356(18) -.00001(2) -.00023(52) -.00006(15)
Nb9 Nb5+ 0.00101(8) 0.00012(1) 0.0125(12) 0.00002(2) -.00001(30) -.00001(10)
Nb10 Nb5+ 0.00067(93) 0.00009(10) 0.0009(13) 0.00023(21) -.00089(43) -0.0006(14)
Nb11 Nb5+ 0.0015(12) 0.00019(13) 0.036(18) 0.00029(26) 0.0045(54) 0.0005(18)
O1 O2- 0.00115(59) 0.00008(6) 0.0457(95) 0.00008(15) -0.0009(32) -.00026(98)
O2 O2- 0.00086(60) 0.00013(7) 0.0428(99) -.00001(16) 0.0027(32) 0.0018(10)
O3 O2- 0.00121(63) 0.00012(6) 0.021(11) -.00002(16) 0.0059(29) 0.00111(95)
O4 O2- 0.00148(58) 0.00022(6) 0.102(10) 0.00013(16) -0.0037(33) 0.0004(9)
O5 O2- 0.00189(57) 0.00017(6) 0.059(10) 0.00027(16) 0.0054(31) -.00033(95)
O6 O2- 0.00138(66) 0.00022(7) 0.0460(98) 0.00020(16) -0.0037(37) 0.00025(92)
O7 O2- 0.00140(61) 0.00013(6) 0.0629(95) 0.00025(15) -0.0004(32) -.00163(97)
O8 O2- 0.00129(59) 0.00014(6) 0.0629(91) -.00003(16) 0.0013(31) -.00006(95)
O9 O2- 0.00230(58) 0.00023(6) 0.024(10) 0.00017(16) 0.0028(31) -0.0006(10)
O10 O2- 0.00156(85) 0.00027(10) 0.062(23) -.00017(24) 0.0054(60) 0.0017(19)
O11 O2- 0.00104(72) 0.00018(9) 0.100(25) -.00001(22) -.0048(65) 0.0036(22)
O12 O2- 0.00014(64) 0.00007(7) 0.035(10) 0.00001(16) 0.0011(29) -.00131(92)
O13 O2- 0.00081(79) 0.00011(9) 0.048(16) -.00008(20) -0.0009(44) -0.0015(15)
O14 O2- 0.00232(64) 0.00014(7) 0.082(11) 0.00012(16) -0.0012(29) 0.00011(92)
O15 O2- 0.00086(60) 0.00010(6) 0.0391(91) -.00006(16) 0.0014(33) 0.0001(11)
O16 O2- 0.0064(23) 0.00226(45) 0.070(26) 0.00201(79) 0 0
O17 O2- 0.00204(67) 0.00034(6) 0.026(20) -.00007(16) 0.0015(32) -0.0004(10)
O18 O2- 0.00710(59) 0.00053(6) 0.009(11) 0.00017(15) 0.0046(32) 0.0001(10)
O19 O2- 0.00321(58) 0.00035(6) 0.016(12) 0.00008(17) -.0038(31) 0.00086(99)
O20 O2- 0.00314(58) 0.00069(6) 0.0323(98) 0.00045(17) -0.0004(34) -.00065(97)
O21 O2- 0.00545(63) 0.00069(7) 0.010(12) -.00059(16) -0.0026(29) 0.00073(86)
O22 O2- 0.00411(63) 0.00055(6) 0.004(12) 0.00051(16) -0.0056(33) 0.0005(10)
O23 O2- 0.0050(11) 0.00047(13) 0.035(17) -.00033(31) -0.0023(50) -0.0004(16)
O24 O2- 0.00139(58) 0.00028(6) 0.026(13) 0.00011(16) 0.0001(17) -.00082(86)
#End of TTdata_24882-ICSD