
#(C) 2019 by FIZ Karlsruhe - Leibniz Institute for Information Infrastructure.  All rights reserved.
data_249323-ICSD
_database_code_ICSD 249323
_audit_creation_date 2008-02-01
_chemical_name_systematic

;
Poly((octa-aqua-dodecaaqua-octacosaoxidodecavanadato-hexasodium) tetrahydrate)
;
_chemical_formula_structural 'Na6 (H2 O)20 (V10 O28) (H2 O)4'
_chemical_formula_sum 'H48 Na6 O52 V10'
_exptl_crystal_density_diffrn 2.25
_cell_measurement_temperature 223.
_publ_section_title

;
Na6 (H2O)20 (V10 O28) * 4 H2O, a novel polyvanadate(V) with a
three-dimensional framework
;
loop_
_citation_id
_citation_journal_full
_citation_year
_citation_journal_volume
_citation_page_first
_citation_page_last
_citation_journal_id_ASTM
primary 'Acta Crystallographica, Section C: Crystal Structure Communications'
2007 63 i51 i53 ACSCEE
loop_
_publ_author_name
'Guo Hongxu'
'Yao Zhongliang'
_cell_length_a 10.5834(3)
_cell_length_b 11.3803(3)
_cell_length_c 11.6367(3)
_cell_angle_alpha 108.682(4)
_cell_angle_beta 103.775(2)
_cell_angle_gamma 111.674(3)
_cell_volume 1128.19
_cell_formula_units_Z 1
_symmetry_space_group_name_H-M 'P -1'
_symmetry_Int_Tables_number 2
_refine_ls_R_factor_all 0.0415
loop_
_symmetry_equiv_pos_site_id
_symmetry_equiv_pos_as_xyz
1 '-x, -y, -z'
2 'x, y, z'
loop_
_atom_type_symbol
_atom_type_oxidation_number
V5+ 5
Na1+ 1
O2- -2
H1+ 1
O2- -2
H1+ 1
O2- -2
H1+ 1
O2- -2
H1+ 1
O2- -2
H1+ 1
O2- -2
H1+ 1
O2- -2
H1+ 1
O2- -2
H1+ 1
O2- -2
H1+ 1
O2- -2
H1+ 1
O2- -2
H1+ 1
O2- -2
H1+ 1
loop_
_atom_site_label
_atom_site_type_symbol
_atom_site_symmetry_multiplicity
_atom_site_Wyckoff_symbol
_atom_site_fract_x
_atom_site_fract_y
_atom_site_fract_z
_atom_site_B_iso_or_equiv
_atom_site_occupancy
_atom_site_attached_hydrogens
V1 V5+ 2 i -0.13667(6) 0.00678(6) 0.70287(5) 0.01648(18) 1 0
V2 V5+ 2 i 0.11146(6) 0.02394(5) 0.92289(5) 0.01133(16) 1 0
V3 V5+ 2 i 0.34146(6) 0.03813(6) 1.15233(6) 0.01602(17) 1 0
V4 V5+ 2 i 0.20972(6) 0.24151(5) 1.22011(5) 0.01235(17) 1 0
V5 V5+ 2 i -0.02637(6) 0.22625(5) 0.99442(5) 0.01259(17) 1 0
Na1 Na1+ 2 i -0.19844(16) 0.09634(15) 0.39963(15) 0.0308(4) 1 0
Na2 Na1+ 2 i 0.36612(15) 0.52124(14) 0.89519(13) 0.0235(3) 1 0
Na3 Na1+ 2 i 0.11756(14) 0.50494(13) 0.62998(13) 0.0229(3) 1 0
O1 O2- 2 i -0.1418(3) 0.0162(3) 0.5682(2) 0.0257(6) 1 0
O2 O2- 2 i 0.0067(2) -0.1797(2) 0.8522(2) 0.0135(5) 1 0
O3 O2- 2 i 0.0430(3) 0.3962(2) 1.0724(2) 0.0197(5) 1 0
O4 O2- 2 i 0.3182(2) 0.0216(2) 1.2985(2) 0.0192(5) 1 0
O5 O2- 2 i 0.1942(2) 0.1864(2) 1.3486(2) 0.0160(5) 1 0
O6 O2- 2 i 0.2755(3) 0.4111(2) 1.2974(2) 0.0192(5) 1 0
O7 O2- 2 i 0.1036(2) 0.0068(2) 1.0977(2) 0.0133(5) 1 0
O8 O2- 2 i 0.3737(2) 0.2237(2) 1.2220(2) 0.0159(5) 1 0
O9 O2- 2 i 0.5064(3) 0.0620(2) 1.1742(2) 0.0242(6) 1 0
O10 O2- 2 i -0.0410(2) 0.1976(2) 0.8272(2) 0.0168(5) 1 0
O11 O2- 2 i 0.1619(2) 0.2148(2) 1.0325(2) 0.0125(5) 1 0
O12 O2- 2 i 0.0738(2) 0.0279(2) 0.7751(2) 0.0166(5) 1 0
O13 O2- 2 i 0.2850(2) 0.0441(2) 0.9744(2) 0.0152(5) 1 0
O14 O2- 2 i -0.2245(2) 0.1595(2) 0.9525(2) 0.0168(5) 1 0
O15 O2- 2 i 0.1828(3) 0.7554(3) 0.7216(2) 0.0233(6) 1 0
H1 H1+ 2 i 0.126(3) 0.763(4) 0.762(3) 0.028 1 0
H2 H1+ 2 i 0.2723(14) 0.815(3) 0.776(3) 0.028 1 0
O16 O2- 2 i 0.1082(3) 0.4662(3) 0.8234(3) 0.0251(6) 1 0
H3 H1+ 2 i 0.074(4) 0.389(2) 0.829(4) 0.03 1 0
H4 H1+ 2 i 0.080(4) 0.520(3) 0.868(3) 0.03 1 0
O17 O2- 2 i 0.3951(3) 0.4729(3) 1.0801(3) 0.0259(6) 1 0
H5 H1+ 2 i 0.330(3) 0.3915(15) 1.062(3) 0.031 1 0
H6 H1+ 2 i 0.395(4) 0.536(2) 1.143(3) 0.031 1 0
O18 O2- 2 i 0.3619(3) 0.5449(3) 0.6982(3) 0.0252(6) 1 0
H7 H1+ 2 i 0.375(4) 0.479(2) 0.652(3) 0.03 1 0
H8 H1+ 2 i 0.437(3) 0.6246(17) 0.724(3) 0.03 1 0
O19 O2- 2 i 0.2325(3) 0.2764(3) 0.7523(3) 0.0274(6) 1 0
H9 H1+ 2 i 0.176(3) 0.235(4) 0.783(4) 0.033 1 0
H10 H1+ 2 i 0.284(4) 0.239(4) 0.734(4) 0.033 1 0
O20 O2- 2 i 0.0561(3) 0.2605(2) 0.5176(2) 0.0229(6) 1 0
H11 H1+ 2 i 0.1046 0.2522 0.4556 0.027 1 0
H12 H1+ 2 i 0.0984 0.2342 0.5836 0.027 1 0
O21 O2- 2 i 0.4387(3) 0.7589(3) 1.0145(3) 0.0276(6) 1 0
H13 H1+ 2 i 0.365(2) 0.774(4) 1.008(4) 0.033 1 0
H14 H1+ 2 i 0.509(3) 0.828(3) 1.017(4) 0.033 1 0
O22 O2- 2 i -0.1307(3) 0.4616(3) 0.5609(3) 0.0265(6) 1 0
H15 H1+ 2 i -0.201(3) 0.3763(14) 0.525(3) 0.032 1 0
H16 H1+ 2 i -0.152(4) 0.515(3) 0.614(3) 0.032 1 0
O23 O2- 2 i -0.3455(3) 0.1806(3) 0.4916(3) 0.0387(7) 1 0
H17 H1+ 2 i -0.339(4) 0.211(4) 0.5703(14) 0.046 1 0
H18 H1+ 2 i -0.4360(19) 0.139(4) 0.437(3) 0.046 1 0
O24 O2- 2 i -0.3936(3) -0.1357(3) 0.2880(3) 0.0340(7) 1 0
H19 H1+ 2 i -0.439(3) -0.169(4) 0.329(3) 0.041 1 0
H20 H1+ 2 i -0.451(3) -0.168(4) 0.2079(15) 0.041 1 0
O25 O2- 2 i -0.2809(3) 0.3030(3) 0.7664(3) 0.0340(7) 1 0
H21 H1+ 2 i -0.261(5) 0.245(3) 0.787(4) 0.061(17) 1 0
H22 H1+ 2 i -0.212(4) 0.3870(16) 0.817(4) 0.058(16) 1 0
O26 O2- 2 i 0.4468(3) 0.3331(3) 1.5892(3) 0.0333(7) 1 0
H23 H1+ 2 i 0.387(3) 0.297(4) 1.5090(17) 0.043(13) 1 0
H24 H1+ 2 i 0.5351(17) 0.378(5) 1.598(4) 0.077(19) 1 0
loop_
_atom_site_aniso_label
_atom_site_aniso_type_symbol
_atom_site_aniso_U_11
_atom_site_aniso_U_22
_atom_site_aniso_U_33
_atom_site_aniso_U_12
_atom_site_aniso_U_13
_atom_site_aniso_U_23
V1 V5+ 0.0162(3) 0.0168(3) 0.0144(3) 0.0054(3) 0.0051(2) 0.0085(2)
V2 V5+ 0.0107(3) 0.0106(3) 0.0125(3) 0.0042(2) 0.0062(2) 0.0051(2)
V3 V5+ 0.0109(3) 0.0156(3) 0.0198(3) 0.0055(2) 0.0053(2) 0.0078(3)
V4 V5+ 0.0114(3) 0.0097(3) 0.0115(3) 0.0026(2) 0.0038(2) 0.0034(2)
V5 V5+ 0.0117(3) 0.0097(3) 0.0155(3) 0.0049(2) 0.0049(2) 0.0055(2)
Na1 Na1+ 0.0305(8) 0.0241(8) 0.0307(8) 0.0068(7) 0.0096(7) 0.0140(7)
Na2 Na1+ 0.0222(7) 0.0212(7) 0.0259(8) 0.0089(6) 0.0081(6) 0.0122(6)
Na3 Na1+ 0.0218(8) 0.0234(8) 0.0255(8) 0.0120(6) 0.0101(6) 0.0117(6)
O1 O2- 0.0289(14) 0.0281(14) 0.0175(13) 0.0091(12) 0.0077(11) 0.0142(11)
O2 O2- 0.0126(11) 0.0102(11) 0.0159(12) 0.0045(9) 0.0069(9) 0.0044(9)
O3 O2- 0.0205(13) 0.0097(11) 0.0269(13) 0.0064(10) 0.0091(11) 0.0075(10)
O4 O2- 0.0161(12) 0.0181(12) 0.0193(12) 0.0053(10) 0.0030(10) 0.0105(10)
O5 O2- 0.0158(12) 0.0150(12) 0.0126(11) 0.0044(10) 0.0053(9) 0.0050(9)
O6 O2- 0.0189(12) 0.0127(12) 0.0197(12) 0.0043(10) 0.0078(10) 0.0041(10)
O7 O2- 0.0099(11) 0.0133(12) 0.0149(12) 0.0043(10) 0.0041(9) 0.0068(10)
O8 O2- 0.0119(11) 0.0134(12) 0.0184(12) 0.0038(9) 0.0040(10) 0.0068(10)
O9 O2- 0.0141(12) 0.0233(13) 0.0306(14) 0.0085(11) 0.0068(11) 0.0093(11)
O10 O2- 0.0160(12) 0.0151(12) 0.0199(12) 0.0055(10) 0.0071(10) 0.0110(10)
O11 O2- 0.0111(11) 0.0111(11) 0.0134(11) 0.0035(9) 0.0049(9) 0.0055(9)
O12 O2- 0.0162(12) 0.0161(12) 0.0147(12) 0.0038(10) 0.0077(10) 0.0076(10)
O13 O2- 0.0132(12) 0.0125(11) 0.0178(12) 0.0045(9) 0.0081(10) 0.0052(9)
O14 O2- 0.0130(11) 0.0148(12) 0.0223(13) 0.0077(10) 0.0068(10) 0.0070(10)
O15 O2- 0.0176(13) 0.0226(14) 0.0222(13) 0.0066(11) 0.0081(11) 0.0053(11)
O16 O2- 0.0286(14) 0.0253(14) 0.0355(15) 0.0169(12) 0.0216(12) 0.0188(12)
O17 O2- 0.0230(14) 0.0236(14) 0.0276(15) 0.0059(12) 0.0131(12) 0.0118(12)
O18 O2- 0.0175(13) 0.0175(13) 0.0311(15) 0.0028(11) 0.0079(11) 0.0086(12)
O19 O2- 0.0239(15) 0.0217(14) 0.0384(16) 0.0092(12) 0.0156(12) 0.0155(12)
O20 O2- 0.0259(14) 0.0230(13) 0.0230(13) 0.0125(11) 0.0122(11) 0.0114(11)
O21 O2- 0.0216(14) 0.0191(14) 0.0412(16) 0.0084(11) 0.0186(13) 0.0102(12)
O22 O2- 0.0255(14) 0.0256(14) 0.0294(15) 0.0127(12) 0.0135(12) 0.0117(12)
O23 O2- 0.0327(16) 0.0407(17) 0.0342(16) 0.0131(14) 0.0134(13) 0.0131(14)
O24 O2- 0.0271(15) 0.0320(16) 0.0362(16) 0.0095(13) 0.0093(13) 0.0162(14)
O25 O2- 0.0244(15) 0.0340(17) 0.0385(17) 0.0107(14) 0.0067(13) 0.0190(15)
O26 O2- 0.0217(15) 0.0347(16) 0.0259(16) 0.0037(13) 0.0022(12) 0.0111(13)
#End of TTdata_249323-ICSD