
#(C) 2019 by FIZ Karlsruhe - Leibniz Institute for Information Infrastructure.  All rights reserved.
data_249383-ICSD
_database_code_ICSD 249383
_audit_creation_date 2008-02-01
_audit_update_record 2015-02-01
_chemical_name_systematic 'Praseodymium sodium ruthenium oxide (14/3/6/36)'
_chemical_formula_structural 'Pr14 Na3 Ru6 O36'
_chemical_formula_sum 'Na3 O36 Pr14 Ru6'
_chemical_name_structure_type Pr14Na3Ru6O36
_exptl_crystal_density_diffrn 7.04
_cell_measurement_temperature 294.
_publ_section_title

;
Ln14 Na3 Ru6 O36 (Ln=Pr,Nd): Two new complex lanthanide-containing oxides of
ruthenium
;
loop_
_citation_id
_citation_journal_full
_citation_year
_citation_journal_volume
_citation_page_first
_citation_page_last
_citation_journal_id_ASTM
primary 'Inorganic Chemistry' 2007 46 2132 2138 INOCAJ
loop_
_publ_author_name
'Gemmill, W.R.'
'Smith, M.D.'
'zur Loye, H.C.'
_cell_length_a 9.7380(2)
_cell_length_b 9.7380(2)
_cell_length_c 55.5716(15)
_cell_angle_alpha 90.
_cell_angle_beta 90.
_cell_angle_gamma 120.
_cell_volume 4563.76
_cell_formula_units_Z 6
_symmetry_space_group_name_H-M 'R -3 c H'
_symmetry_Int_Tables_number 167
_refine_ls_R_factor_all 0.0417
loop_
_symmetry_equiv_pos_site_id
_symmetry_equiv_pos_as_xyz
1 'x-y, -y, -z+1/2'
2 '-x, -x+y, -z+1/2'
3 'y, x, -z+1/2'
4 'x-y, x, -z'
5 'y, -x+y, -z'
6 '-x, -y, -z'
7 '-x+y, y, z+1/2'
8 'x, x-y, z+1/2'
9 '-y, -x, z+1/2'
10 '-x+y, -x, z'
11 '-y, x-y, z'
12 'x, y, z'
13 'x-y+2/3, -y+1/3, -z+5/6'
14 '-x+2/3, -x+y+1/3, -z+5/6'
15 'y+2/3, x+1/3, -z+5/6'
16 'x-y+2/3, x+1/3, -z+1/3'
17 'y+2/3, -x+y+1/3, -z+1/3'
18 '-x+2/3, -y+1/3, -z+1/3'
19 '-x+y+2/3, y+1/3, z+5/6'
20 'x+2/3, x-y+1/3, z+5/6'
21 '-y+2/3, -x+1/3, z+5/6'
22 '-x+y+2/3, -x+1/3, z+1/3'
23 '-y+2/3, x-y+1/3, z+1/3'
24 'x+2/3, y+1/3, z+1/3'
25 'x-y+1/3, -y+2/3, -z+1/6'
26 '-x+1/3, -x+y+2/3, -z+1/6'
27 'y+1/3, x+2/3, -z+1/6'
28 'x-y+1/3, x+2/3, -z+2/3'
29 'y+1/3, -x+y+2/3, -z+2/3'
30 '-x+1/3, -y+2/3, -z+2/3'
31 '-x+y+1/3, y+2/3, z+1/6'
32 'x+1/3, x-y+2/3, z+1/6'
33 '-y+1/3, -x+2/3, z+1/6'
34 '-x+y+1/3, -x+2/3, z+2/3'
35 '-y+1/3, x-y+2/3, z+2/3'
36 'x+1/3, y+2/3, z+2/3'
loop_
_atom_type_symbol
_atom_type_oxidation_number
Pr3+ 3
Ru4+ 4.5
Na1+ 1
O2- -2
loop_
_atom_site_label
_atom_site_type_symbol
_atom_site_symmetry_multiplicity
_atom_site_Wyckoff_symbol
_atom_site_fract_x
_atom_site_fract_y
_atom_site_fract_z
_atom_site_B_iso_or_equiv
_atom_site_occupancy
_atom_site_attached_hydrogens
Pr1 Pr3+ 36 f 0.00471(5) 0.28850(5) 0.216615(7) 0.00525(9) 1 0
Pr2 Pr3+ 36 f 0.02893(5) 0.34290(5) 0.147833(8) 0.00642(10) 1 0
Pr3 Pr3+ 12 c 0. 0. 0.107956(13) 0.00587(14) 1 0
Ru1 Ru4+ 18 e -0.00050(8) 0.3333 0.0833 0.00193(14) 1 0
Ru2 Ru4+ 6 b 0. 0. 0. 0.0032(2) 1 0
Ru3 Ru4+ 12 c 0. 0. 0.162491(17) 0.00280(17) 1 0
Na1 Na1+ 6 a 0. 0. 0.25 0.0087(15) 1 0
Na2 Na1+ 12 c 0. 0. 0.05338(11) 0.0125(11) 1 0
O1 O2- 36 f 0.1976(7) 0.1916(7) 0.22402(10) 0.0068(10) 1 0
O2 O2- 36 f 0.1954(7) 0.1296(7) 0.14128(10) 0.0094(10) 1 0
O3 O2- 36 f 0.0655(7) 0.1983(7) 0.17956(10) 0.0076(10) 1 0
O4 O2- 36 f 0.2338(7) 0.1349(7) 0.08171(10) 0.0074(10) 1 0
O5 O2- 36 f 0.1443(7) 0.3554(7) 0.05777(10) 0.0072(10) 1 0
O6 O2- 36 f 0.1660(7) 0.1703(7) 0.02056(11) 0.0097(11) 1 0
loop_
_atom_site_aniso_label
_atom_site_aniso_type_symbol
_atom_site_aniso_U_11
_atom_site_aniso_U_22
_atom_site_aniso_U_33
_atom_site_aniso_U_12
_atom_site_aniso_U_13
_atom_site_aniso_U_23
Pr1 Pr3+ 0.00464(17) 0.00555(18) 0.00548(17) 0.00249(14) -0.00022(13)
0.00020(13)
Pr2 Pr3+ 0.00706(18) 0.00469(18) 0.00727(18) 0.00276(14) -0.00100(14)
-0.00030(13)
Pr3 Pr3+ 0.00574(19) 0.00574(19) 0.0061(3) 0.00287(9) 0. 0.
Ru1 Ru4+ 0.0020(2) 0.0015(3) 0.0022(3) 0.00073(15) 0.00028(12) 0.0006(2)
Ru2 Ru4+ 0.0029(3) 0.0029(3) 0.0038(5) 0.00147(17) 0. 0.
Ru3 Ru4+ 0.0026(2) 0.0026(2) 0.0032(4) 0.00129(12) 0. 0.
Na1 Na1+ 0.009(2) 0.009(2) 0.008(3) 0.0045(11) 0. 0.
Na2 Na1+ 0.0147(17) 0.0147(17) 0.008(3) 0.0073(9) 0. 0.
O1 O2- 0.006(2) 0.006(2) 0.007(2) 0.003(2) -0.0014(19) -0.0019(19)
O2 O2- 0.009(2) 0.011(3) 0.010(2) 0.007(2) 0.001(2) 0.000(2)
O3 O2- 0.008(2) 0.005(2) 0.009(2) 0.002(2) 0.0006(19) -0.0013(19)
O4 O2- 0.006(2) 0.011(3) 0.008(2) 0.006(2) 0.0043(19) 0.006(2)
O5 O2- 0.006(2) 0.010(3) 0.006(2) 0.004(2) 0.0031(19) 0.000(2)
O6 O2- 0.009(3) 0.006(2) 0.012(3) 0.003(2) -0.004(2) -0.002(2)
#End of TTdata_249383-ICSD