
#(C) 2019 by FIZ Karlsruhe - Leibniz Institute for Information Infrastructure.  All rights reserved.
data_249567-ICSD
_database_code_ICSD 249567
_audit_creation_date 2008-08-01
_chemical_name_systematic 'Sodium magnesium borate'
_chemical_formula_structural 'Na Mg (B O3)'
_chemical_formula_sum 'B1 Mg1 Na1 O3'
_chemical_name_structure_type K2CO3(C2/c)
_exptl_crystal_density_diffrn 2.93
_cell_measurement_temperature 295.
_publ_section_title

;
Structure determination of novel orthoborate Na Mg B O3: A promising
birefringent crystal
;
loop_
_citation_id
_citation_journal_full
_citation_year
_citation_journal_volume
_citation_page_first
_citation_page_last
_citation_journal_id_ASTM
primary 'Inorganic Chemistry' 2007 46 5207 5211 INOCAJ
loop_
_publ_author_name
'Wu, L.'
'Zhang, Y.'
'Kong, Y.-F.'
'Sun, T.Q.'
'Xu, J.-J.'
'Chen, X.-L.'
_cell_length_a 5.01313(6)
_cell_length_b 8.8007(1)
_cell_length_c 5.52831(7)
_cell_angle_alpha 90.
_cell_angle_beta 99.6962(6)
_cell_angle_gamma 90.
_cell_volume 240.42
_cell_formula_units_Z 4
_symmetry_space_group_name_H-M 'C 1 2/c 1'
_symmetry_Int_Tables_number 15
_refine_ls_R_factor_all 0.0257
loop_
_symmetry_equiv_pos_site_id
_symmetry_equiv_pos_as_xyz
1 'x, -y, z+1/2'
2 '-x, -y, -z'
3 '-x, y, -z+1/2'
4 'x, y, z'
5 'x+1/2, -y+1/2, z+1/2'
6 '-x+1/2, -y+1/2, -z'
7 '-x+1/2, y+1/2, -z+1/2'
8 'x+1/2, y+1/2, z'
loop_
_atom_type_symbol
_atom_type_oxidation_number
Mg2+ 2
Na1+ 1
O2- -2
B3+ 3
loop_
_atom_site_label
_atom_site_type_symbol
_atom_site_symmetry_multiplicity
_atom_site_Wyckoff_symbol
_atom_site_fract_x
_atom_site_fract_y
_atom_site_fract_z
_atom_site_B_iso_or_equiv
_atom_site_occupancy
_atom_site_attached_hydrogens
Mg1 Mg2+ 4 a 0 0 0 0.0080(1) 1 0
Na1 Na1+ 4 e 0 0.33600(6) 0.25 0.0135(1) 1 0
O1 O2- 8 f 0.22659(7) 0.58874(3) 0.20604(7) 0.0098(1) 1 0
O2 O2- 4 e 0 -0.17940(6) 0.25 0.0103(1) 1 0
B1 B3+ 4 e 0 -0.3302(1) 0.25 0.0149(2) 1 0
#End of TTdata_249567-ICSD