
#(C) 2019 by FIZ Karlsruhe - Leibniz Institute for Information Infrastructure.  All rights reserved.
data_249742-ICSD
_database_code_ICSD 249742
_audit_creation_date 2009-02-01
_chemical_name_systematic 'Hexabarium disodium diphosphodiniobate(V)'
_chemical_formula_structural 'Ba6 Na2 Nb2 P2 O17'
_chemical_formula_sum 'Ba6 Na2 Nb2 O17 P2'
_exptl_crystal_density_diffrn 5.42
_publ_section_title

;
Isolation of two-dimensional 2.1 cation-ordered perovskite units by anion
vacancy ordering in Ba6 Na2 Nb2 P2 O17
;
loop_
_citation_id
_citation_journal_full
_citation_year
_citation_journal_volume
_citation_page_first
_citation_page_last
_citation_journal_id_ASTM
primary 'Inorganic Chemistry' 2008 47 8444 8450 INOCAJ
loop_
_publ_author_name
'Kuang Xiaojun'
'Claridge, J.B.'
'Price, T.'
'Iddles, D.M.'
'Rosseinsky, M.J.'
_cell_length_a 5.81810(2)
_cell_length_b 5.81810(2)
_cell_length_c 14.53262(6)
_cell_angle_alpha 90.
_cell_angle_beta 90.
_cell_angle_gamma 120.
_cell_volume 426.03
_cell_formula_units_Z 1
_symmetry_space_group_name_H-M 'P -3 m 1'
_symmetry_Int_Tables_number 164
_refine_ls_R_factor_all 0.0367
loop_
_symmetry_equiv_pos_site_id
_symmetry_equiv_pos_as_xyz
1 'x-y, -y, -z'
2 '-x, -x+y, -z'
3 'y, x, -z'
4 'x-y, x, -z'
5 'y, -x+y, -z'
6 '-x, -y, -z'
7 '-x+y, y, z'
8 'x, x-y, z'
9 '-y, -x, z'
10 '-x+y, -x, z'
11 '-y, x-y, z'
12 'x, y, z'
loop_
_atom_type_symbol
_atom_type_oxidation_number
Ba2+ 2
Na1+ 1
Nb5+ 5
P5+ 5
O2- -2
loop_
_atom_site_label
_atom_site_type_symbol
_atom_site_symmetry_multiplicity
_atom_site_Wyckoff_symbol
_atom_site_fract_x
_atom_site_fract_y
_atom_site_fract_z
_atom_site_B_iso_or_equiv
_atom_site_occupancy
_atom_site_attached_hydrogens
Ba1 Ba2+ 1 a 0. 0. 0. 0.0184(6) 1. 0
Ba2 Ba2+ 2 d 0.66667 0.33333 0.17950(7) 0.0068(4) 1. 0
Ba3 Ba2+ 2 d 0.33333 0.66667 0.34294(8) 0.00333(34) 1. 0
Ba4 Ba2+ 1 b 0. 0. 0.5 0.0057(5) 1. 0
Na1 Na1+ 2 c 0. 0. 0.24758(18) 0.0054(5) 1. 0
Nb1 Nb5+ 2 d 0.66667 0.33333 0.41254(10) 0.00208(22) 1. 0
P1 P5+ 2 d 0.33333 0.66667 0.10507(10) 0.00269(28) 1. 0
O1 O2- 2 d 0.33333 0.66667 -0.00018(13) 0.0168(4) 1. 0
O2 O2- 6 i 0.18862(11) 0.81139(11) 0.14322(6) 0.01228(21) 1. 0
O3 O2- 6 i 0.82204(12) 0.17796(12) 0.33963(6) 0.00793(21) 1. 0
O4 O2- 3 f 0.5 0.5 0.5 0.00763(31) 1. 0
#End of TTdata_249742-ICSD