
#(C) 2019 by FIZ Karlsruhe - Leibniz Institute for Information Infrastructure.  All rights reserved.
data_250006-ICSD
_database_code_ICSD 250006
_audit_creation_date 2003-10-01
_audit_update_record 2013-08-01
_chemical_name_systematic 'Sodium tetrairon triiron(III) hexakis(phosphate(V))'
_chemical_formula_structural 'Na Fe4 Fe3 (P O4)6'
_chemical_formula_sum 'Fe7 Na1 O24 P6'
_exptl_crystal_density_diffrn 3.85
_publ_section_title
'Synthesis and crystal structure of new phosphate Na Fe4 Fe3 (P O4)6'
loop_
_citation_id
_citation_journal_full
_citation_year
_citation_journal_volume
_citation_page_first
_citation_page_last
_citation_journal_id_ASTM
primary Kristallografiya 2003 48 54 58 KRISAJ
loop_
_publ_author_name
'Belokoneva, E.L.'
'Ruchkina, E.A.'
'Dimitrova, O.V.'
_cell_length_a 6.495(4)
_cell_length_b 9.718(8)
_cell_length_c 8.014(5)
_cell_angle_alpha 115.55(5)
_cell_angle_beta 101.55(5)
_cell_angle_gamma 101.12(5)
_cell_volume 424.23
_cell_formula_units_Z 1
_symmetry_space_group_name_H-M 'P -1'
_symmetry_Int_Tables_number 2
_refine_ls_R_factor_all 0.0492
loop_
_symmetry_equiv_pos_site_id
_symmetry_equiv_pos_as_xyz
1 '-x, -y, -z'
2 'x, y, z'
loop_
_atom_type_symbol
_atom_type_oxidation_number
Na1+ 1
Fe2+ 2
Fe2+ 2.5
Fe3+ 3
P5+ 5
O2- -2
loop_
_atom_site_label
_atom_site_type_symbol
_atom_site_symmetry_multiplicity
_atom_site_Wyckoff_symbol
_atom_site_fract_x
_atom_site_fract_y
_atom_site_fract_z
_atom_site_B_iso_or_equiv
_atom_site_occupancy
_atom_site_attached_hydrogens
Na1 Na1+ 1 d 0.5 0. 0. 4.6(3) 1. 0
Fe1 Fe2+ 1 a 0. 0. 0. 0.66(3) 1. 0
Fe2 Fe2+ 2 i 0.9936(1) 0.71407(9) 0.5255(1) 0.64(2) 1. 0
Fe3 Fe2+ 2 i 0.5205(10) 0.47556(9) 0.1942(1) 0.69(2) 1. 0
Fe4 Fe3+ 2 i 0.2740(1) 0.88843(9) 0.3444(1) 0.56(2) 1. 0
P1 P5+ 2 i 0.5395(2) 0.7662(1) 0.6196(2) 0.38(3) 1. 0
P2 P5+ 2 i 0.7420(2) 0.8323(2) 0.2423(2) 0.45(3) 1. 0
P3 P5+ 2 i 0.0336(2) 0.6274(2) 0.8607(2) 0.60(4) 1. 0
O1 O2- 2 i 0.6096(7) 0.9139(5) 0.3752(6) 0.8(1) 1. 0
O2 O2- 2 i 0.7971(7) 0.8664(5) 0.0863(6) 1.0(1) 1. 0
O3 O2- 2 i 0.9640(7) 0.2415(5) 0.1969(6) 1.0(1) 1. 0
O4 O2- 2 i 0.9576(6) 0.8342(5) 0.3682(6) 0.8(1) 1. 0
O5 O2- 2 i 0.7941(8) 0.5347(5) 0.8252(8) 1.8(1) 1. 0
O6 O2- 2 i 0.8639(7) 0.4940(5) 0.2616(6) 1.1(1) 1. 0
O7 O2- 2 i 0.4087(7) 0.3468(4) 0.8956(6) 0.8(1) 1. 0
O8 O2- 2 i 0.1659(8) 0.7055(6) 0.0759(7) 1.7(2) 1. 0
O9 O2- 2 i 0.6830(6) 0.2299(4) 0.4914(5) 0.6(1) 1. 0
O10 O2- 2 i 0.2929(6) 0.0608(4) 0.2530(5) 0.7(1) 1. 0
O11 O2- 2 i 0.5041(7) 0.2951(5) 0.2407(6) 0.9(1) 1. 0
O12 O2- 2 i 0.3603(6) 0.3418(5) 0.5256(6) 0.7(1) 1. 0
#End of TTdata_250006-ICSD