
#(C) 2019 by FIZ Karlsruhe - Leibniz Institute for Information Infrastructure.  All rights reserved.
data_250067-ICSD
_database_code_ICSD 250067
_audit_creation_date 2004-04-01
_chemical_name_systematic 'Sodium zirconium closo-tetrasilicate (1.72/1/1)'
_chemical_formula_structural 'Na1.72 Zr (Si4 O11)'
_chemical_formula_sum 'Na1.72 O11 Si4 Zr1'
_chemical_name_mineral Vlasovite
_exptl_crystal_density_diffrn 2.93
_publ_section_title

;
New data on vlasovite: refinement of the crystal structure and the radiation
damage of the crystal during the X-ray diffraction experiment
;
loop_
_citation_id
_citation_journal_full
_citation_year
_citation_journal_volume
_citation_page_first
_citation_page_last
_citation_journal_id_ASTM
primary Kristallografiya 2003 48 808 812 KRISAJ
loop_
_publ_author_name
'Gobechiya, E.R.'
'Pekov, I.V.'
'Pushcharovskii, D.Yu.'
'Ferraris, G.'
'Gula, A.'
'Zubkova, N.V.'
'Chukanov, N.V.'
_cell_length_a 11.063(1)
_cell_length_b 10.15(1)
_cell_length_c 8.60(1)
_cell_angle_alpha 90
_cell_angle_beta 100.3(1)
_cell_angle_gamma 90
_cell_volume 950.13
_cell_formula_units_Z 4
_symmetry_space_group_name_H-M 'C 1 2/c 1'
_symmetry_Int_Tables_number 15
_refine_ls_R_factor_all 0.053
loop_
_symmetry_equiv_pos_site_id
_symmetry_equiv_pos_as_xyz
1 'x, -y, z+1/2'
2 '-x, -y, -z'
3 '-x, y, -z+1/2'
4 'x, y, z'
5 'x+1/2, -y+1/2, z+1/2'
6 '-x+1/2, -y+1/2, -z'
7 '-x+1/2, y+1/2, -z+1/2'
8 'x+1/2, y+1/2, z'
loop_
_atom_type_symbol
_atom_type_oxidation_number
Zr4+ 4
Na1+ 1
Si4+ 4
O2- -2
loop_
_atom_site_label
_atom_site_type_symbol
_atom_site_symmetry_multiplicity
_atom_site_Wyckoff_symbol
_atom_site_fract_x
_atom_site_fract_y
_atom_site_fract_z
_atom_site_B_iso_or_equiv
_atom_site_occupancy
_atom_site_attached_hydrogens
Zr1 Zr4+ 4 c 0.25 0.25 0. 0.0161(2) 1. 0
Na1 Na1+ 4 e 0. 0.0746(1) 0.75 0.0321(3) 0.940(2) 0
Na2 Na1+ 4 e 0. 0.3996(2) 0.75 0.0531(6) 0.780(3) 0
Si1 Si4+ 8 f 0.26433(3) 0.07226(4) 0.63854(5) 0.01768(9) 1. 0
Si2 Si4+ 8 f 0.04980(3) 0.21662(4) 0.42722(5) 0.01846(9) 1. 0
O1 O2- 4 e 0. 0.1604(2) 0.25 0.0244(4) 1. 0
O2 O2- 8 f 0.1439(1) 0.1022(1) 0.5053(2) 0.0333(3) 1. 0
O3 O2- 8 f 0.1160(1) 0.3581(1) 0.4162(2) 0.0322(3) 1. 0
O4 O2- 8 f 0.0568(1) 0.2305(1) 0.9704(1) 0.0240(3) 1. 0
O5 O2- 8 f 0.2389(1) 0.1356(1) 0.7998(1) 0.0293(3) 1. 0
O6 O2- 8 f 0.2880(1) 0.0830(1) 0.1431(1) 0.0218(2) 1. 0
#End of TTdata_250067-ICSD