
#(C) 2019 by FIZ Karlsruhe - Leibniz Institute for Information Infrastructure.  All rights reserved.
data_250194-ICSD
_database_code_ICSD 250194
_audit_creation_date 2005-04-01
_chemical_name_systematic 'Disodium tetraborate - gamma'
_chemical_formula_structural 'Na2 (B4 O7)'
_chemical_formula_sum 'B4 Na2 O7'
_chemical_name_structure_type Tl2B4O7
_exptl_crystal_density_diffrn 2.54
_publ_section_title
'Crystal structure of the metastable polymorph gamma-Na2 (B2 O3)2'
loop_
_citation_id
_citation_journal_full
_citation_year
_citation_journal_volume
_citation_page_first
_citation_page_last
_citation_journal_id_ASTM
primary 'Zhurnal Neorganicheskoi Khimii' 2004 49 1006 1011 ZNOKAQ
loop_
_publ_author_name
'Kanishcheva, A.S.'
'Egorysheva, A.V.'
'Gorbunova, Yu.E.'
'Kargin, Yu.F.'
'Mikhailov, Yu.N.'
'Skorikov, V.M.'
_cell_length_a 6.705(1)
_cell_length_b 9.601(2)
_cell_length_c 13.272(3)
_cell_angle_alpha 104.21(3)
_cell_angle_beta 91.58(3)
_cell_angle_gamma 106.40(3)
_cell_volume 790.22
_cell_formula_units_Z 6
_symmetry_space_group_name_H-M 'P -1'
_symmetry_Int_Tables_number 2
_refine_ls_R_factor_all 0.0272
loop_
_symmetry_equiv_pos_site_id
_symmetry_equiv_pos_as_xyz
1 '-x, -y, -z'
2 'x, y, z'
loop_
_atom_type_symbol
_atom_type_oxidation_number
Na1+ 1
O2- -2
B3+ 3
loop_
_atom_site_label
_atom_site_type_symbol
_atom_site_symmetry_multiplicity
_atom_site_Wyckoff_symbol
_atom_site_fract_x
_atom_site_fract_y
_atom_site_fract_z
_atom_site_B_iso_or_equiv
_atom_site_occupancy
_atom_site_attached_hydrogens
Na1 Na1+ 2 i 0.06899(8) 0.89613(6) 0.79897(4) 0.0162(1) 1. 0
Na2 Na1+ 2 i 0.13480(8) 0.90601(6) 0.30309(4) 0.0178(1) 1. 0
Na3 Na1+ 2 i 0.32548(9) 0.59873(6) 0.97025(4) 0.0178(1) 1. 0
Na4 Na1+ 2 i 0.28958(9) 0.59015(6) 0.47595(4) 0.0178(1) 1. 0
Na5 Na1+ 2 i 0.4609(1) 0.14818(7) 0.11242(5) 0.0230(2) 1. 0
Na6 Na1+ 2 i 0.5688(1) 0.82390(6) 0.38043(5) 0.0263(2) 1. 0
O1 O2- 2 i 0.0925(1) 0.13870(9) 0.37844(6) 0.0103(2) 1. 0
O2 O2- 2 i -0.0048(1) 0.85724(9) 0.11844(6) 0.0104(2) 1. 0
O3 O2- 2 i 0.6973(1) 0.68628(9) 0.46710(6) 0.0092(2) 1. 0
O4 O2- 2 i 0.7196(1) 0.63959(9) 0.13473(6) 0.0116(2) 1. 0
O5 O2- 2 i 0.6953(1) 0.72891(9) -0.01457(6) 0.0086(2) 1. 0
O6 O2- 2 i -0.0469(1) 0.2637(1) 0.05549(6) 0.0125(2) 1. 0
O7 O2- 2 i -0.2885(1) 0.24930(9) 0.28367(7) 0.0117(2) 1. 0
O8 O2- 2 i 0.3485(1) 0.75410(9) 0.21709(7) 0.0109(2) 1. 0
O9 O2- 2 i 0.3275(1) 0.55422(9) 0.28723(6) 0.0121(2) 1. 0
O10 O2- 2 i 0.3411(1) 0.37334(9) 0.37096(6) 0.0126(2) 1. 0
O11 O2- 2 i 0.7750(1) 0.50009(9) -0.10544(6) 0.0117(2) 1. 0
O12 O2- 2 i -0.3329(1) 0.88656(9) 0.15287(6) 0.0091(2) 1. 0
O13 O2- 2 i 0.2214(1) 0.29635(9) 0.18827(6) 0.0096(2) 1. 0
O14 O2- 2 i 0.4389(1) 0.01656(8) 0.24125(6) 0.0081(2) 1. 0
O15 O2- 2 i 0.6633(1) 0.14146(9) -0.06538(6) 0.0096(2) 1. 0
O16 O2- 2 i 0.0746(1) 0.75737(9) 0.47550(6) 0.0106(2) 1. 0
O17 O2- 2 i -0.2860(1) 0.45280(9) 0.21673(7) 0.0120(2) 1. 0
O18 O2- 2 i 0.1373(1) 0.70908(9) 0.31463(6) 0.0098(2) 1. 0
O19 O2- 2 i 0.1308(1) 0.49782(9) 0.60952(6) 0.0101(2) 1. 0
O20 O2- 2 i 0.4678(1) 0.17981(9) 0.41372(6) 0.0098(2) 1. 0
O21 O2- 2 i -0.2708(1) 0.06051(9) 0.37146(6) 0.0090(2) 1. 0
B1 B3+ 2 i 0.2962(2) 0.4017(1) 0.28069(9) 0.0087(2) 1. 0
B2 B3+ 2 i 0.4563(2) 0.8805(1) 0.16951(9) 0.0066(2) 1. 0
B3 B3+ 2 i 0.7004(2) 0.3977(1) -0.19836(9) 0.0083(2) 1. 0
B4 B3+ 2 i 0.1272(2) 0.3365(1) 0.58520(9) 0.0081(2) 1. 0
B5 B3+ 2 i 0.1779(2) 0.3328(1) 0.08840(9) 0.0083(2) 1. 0
B6 B3+ 2 i 0.5778(2) 0.1250(1) 0.32906(9) 0.0066(2) 1. 0
B7 B3+ 2 i 0.3014(2) 0.2482(1) 0.42228(9) 0.0070(2) 1. 0
B8 B3+ 2 i 0.2352(2) 0.5991(1) 0.69917(9) 0.0082(2) 1. 0
B9 B3+ 2 i -0.2303(2) 0.6075(1) 0.22379(9) 0.0083(2) 1. 0
B10 B3+ 2 i -0.0836(2) 0.1502(1) 0.42644(9) 0.0078(2) 1. 0
B11 B3+ 2 i -0.7631(2) 0.2203(1) -0.09753(9) 0.0073(2) 1. 0
B12 B3+ 2 i -0.1224(2) 0.1813(1) -0.04494(9) 0.0085(2) 1. 0
#End of TTdata_250194-ICSD