
#(C) 2019 by FIZ Karlsruhe - Leibniz Institute for Information Infrastructure.  All rights reserved.
data_250376-ICSD
_database_code_ICSD 250376
_audit_creation_date 2007-04-01
_audit_update_record 2013-08-01
_chemical_name_systematic 'Sodium iron(III) niobium tris(phosphate(V))'
_chemical_formula_structural 'Na Fe Nb (P O4)3'
_chemical_formula_sum 'Fe1 Na1 Nb1 O12 P3'
_exptl_crystal_density_diffrn 3.23
_publ_section_title

;
Structure and polymotphism of complex phosphates prepared from fluxes of the
Na2 O - P2 O5 - Fe2 O3 - Nb2 O5 system
;
loop_
_citation_id
_citation_journal_full
_citation_year
_citation_journal_volume
_citation_page_first
_citation_page_last
_citation_journal_id_ASTM
primary 'Zhurnal Neorganicheskoi Khimii' 2006 51 41 46 ZNOKAQ
loop_
_publ_author_name
'Zatovskii, I.V.'
'Ushchapovskaya, T.I.'
'Slobodyanik, N.S.'
'Ogorodnik, I.V.'
_cell_length_a 8.590(5)
_cell_length_b 8.590(5)
_cell_length_c 22.013(10)
_cell_angle_alpha 90.
_cell_angle_beta 90.
_cell_angle_gamma 120.
_cell_volume 1406.68
_cell_formula_units_Z 6
_symmetry_space_group_name_H-M 'R 3 c H'
_symmetry_Int_Tables_number 161
_refine_ls_R_factor_all 0.0269
loop_
_symmetry_equiv_pos_site_id
_symmetry_equiv_pos_as_xyz
1 '-x+y, y, z+1/2'
2 'x, x-y, z+1/2'
3 '-y, -x, z+1/2'
4 '-x+y, -x, z'
5 '-y, x-y, z'
6 'x, y, z'
7 '-x+y+2/3, y+1/3, z+5/6'
8 'x+2/3, x-y+1/3, z+5/6'
9 '-y+2/3, -x+1/3, z+5/6'
10 '-x+y+2/3, -x+1/3, z+1/3'
11 '-y+2/3, x-y+1/3, z+1/3'
12 'x+2/3, y+1/3, z+1/3'
13 '-x+y+1/3, y+2/3, z+1/6'
14 'x+1/3, x-y+2/3, z+1/6'
15 '-y+1/3, -x+2/3, z+1/6'
16 '-x+y+1/3, -x+2/3, z+2/3'
17 '-y+1/3, x-y+2/3, z+2/3'
18 'x+1/3, y+2/3, z+2/3'
loop_
_atom_type_symbol
_atom_type_oxidation_number
Fe3+ 3
Nb5+ 5
Fe3+ 3
Nb5+ 5
P5+ 5
Na1+ 1
O2- -2
loop_
_atom_site_label
_atom_site_type_symbol
_atom_site_symmetry_multiplicity
_atom_site_Wyckoff_symbol
_atom_site_fract_x
_atom_site_fract_y
_atom_site_fract_z
_atom_site_B_iso_or_equiv
_atom_site_occupancy
_atom_site_attached_hydrogens
Fe1 Fe3+ 6 a 0 0 0.2611(1) 0.004(1) 0.5 0
Nb1 Nb5+ 6 a 0 0 0.2611(1) 0.004(1) 0.5 0
Fe2 Fe3+ 6 a 0.33333 0.66667 0.1412(1) 0.008(1) 0.5 0
Nb2 Nb5+ 6 a 0.33333 0.66667 0.1412(1) 0.008(1) 0.5 0
P1 P5+ 18 b 0.3814(2) 0.0471(2) 0.2006(1) 0.008(1) 1 0
Na1 Na1+ 6 a 0 0 0.1202(7) 0.094(3) 1 0
O1 O2- 18 b 0.4964(8) 0.1378(3) 0.2562(4) 0.019(8) 1 0
O2 O2- 18 b 0.1913(8) 0.0242(4) 0.2057(1) 0.018(6) 1 0
O3 O2- 18 b 0.4650(7) 0.1573(2) 0.1432(2) 0.008(1) 1 0
O4 O2- 18 b 0.3642(7) -0.1347(8) 0.1928(2) 0.020(8) 1 0
#End of TTdata_250376-ICSD