
#(C) 2019 by FIZ Karlsruhe - Leibniz Institute for Information Infrastructure.  All rights reserved.
data_250380-ICSD
_database_code_ICSD 250380
_audit_creation_date 2007-04-01
_chemical_name_systematic 'Disodium ytterbium phosphate(V) molybdate'
_chemical_formula_structural 'Na2 Yb (P O4) (Mo O4)'
_chemical_formula_sum 'Mo1 Na2 O8 P1 Yb1'
_chemical_name_structure_type Na2YMoO4PO4
_exptl_crystal_density_diffrn 4.29
_publ_section_title
'New complex ytterbium molybdophosphates M2 Yb (P O4) (Mo O4) (M= K, Na)'
loop_
_citation_id
_citation_journal_full
_citation_year
_citation_journal_volume
_citation_page_first
_citation_page_last
_citation_journal_id_ASTM
primary 'Zhurnal Neorganicheskoi Khimii' 2006 51 397 403 ZNOKAQ
loop_
_publ_author_name
'Komissarova, L.N.'
'Ryumin, M.A.'
'Bobylev, A.P.'
'Zhizhin, M.G.'
'Danilov, V.P.'
_cell_length_a 18.0086(1)
_cell_length_b 12.0266(1)
_cell_length_c 6.7742(1)
_cell_angle_alpha 90.
_cell_angle_beta 90.
_cell_angle_gamma 90.
_cell_volume 1467.17
_cell_formula_units_Z 8
_symmetry_space_group_name_H-M 'I b c a'
_symmetry_Int_Tables_number 73
_refine_ls_R_factor_all 0.0652
loop_
_symmetry_equiv_pos_site_id
_symmetry_equiv_pos_as_xyz
1 'x, y+1/2, -z'
2 'x+1/2, -y, z'
3 '-x, y, z+1/2'
4 '-x, -y, -z'
5 '-x, -y+1/2, z'
6 '-x+1/2, y, -z'
7 'x, -y, -z+1/2'
8 'x, y, z'
9 'x+1/2, y, -z+1/2'
10 'x, -y+1/2, z+1/2'
11 '-x+1/2, y+1/2, z'
12 '-x+1/2, -y+1/2, -z+1/2'
13 '-x+1/2, -y, z+1/2'
14 '-x, y+1/2, -z+1/2'
15 'x+1/2, -y+1/2, -z'
16 'x+1/2, y+1/2, z+1/2'
loop_
_atom_type_symbol
_atom_type_oxidation_number
Na1+ 1
Yb3+ 3
Mo6+ 6
P5+ 5
O2- -2
loop_
_atom_site_label
_atom_site_type_symbol
_atom_site_symmetry_multiplicity
_atom_site_Wyckoff_symbol
_atom_site_fract_x
_atom_site_fract_y
_atom_site_fract_z
_atom_site_B_iso_or_equiv
_atom_site_occupancy
_atom_site_attached_hydrogens
Na1 Na1+ 16 f 0.5965(1) 0.1837(2) 0.2591(3) 2.61 1 0
Yb1 Yb3+ 8 d 0.75 0.07183(4) 0 2.54(1) 1 0
Mo1 Mo6+ 8 c 0.42708(4) 0 0.25 1.11(1) 1 0
P1 P5+ 8 d 0.25 0.1800(2) 0 0.62(3) 1 0
O1 O2- 16 f 0.3833(2) 0.0223(3) 0.4438(5) 3.3(1) 1 0
O2 O2- 16 f 0.4787(2) 0.1140(2) 0.2165(6) 2.5(1) 1 0
O3 O2- 16 f 0.1828(2) 0.2529(2) -0.0244(7) 0.11(4) 1 0
O4 O2- 16 f 0.2409(2) 0.1025(2) 0.1588(4) 0.11(4) 1 0
#End of TTdata_250380-ICSD