
#(C) 2019 by FIZ Karlsruhe - Leibniz Institute for Information Infrastructure.  All rights reserved.
data_250359-ICSD
_database_code_ICSD 250359
_audit_creation_date 2007-04-01
_chemical_name_systematic 'Sodium vanadium molybdenum oxide (0.68/0.68/1.32/6)'
_chemical_formula_structural 'Na0.68 V0.68 Mo1.32 O6'
_chemical_formula_sum 'Mo1.32 Na0.68 O6 V0.68'
_exptl_crystal_density_diffrn 3.87
_publ_section_title
'Crystal structures of Na0.98 V0.98 Mo1.02 O6 and Na0.68 V0.68 Mo1.32 O6'
loop_
_citation_id
_citation_journal_full
_citation_year
_citation_journal_volume
_citation_page_first
_citation_page_last
_citation_journal_id_ASTM
primary 'Zhurnal Neorganicheskoi Khimii' 2005 50 1473 1476 ZNOKAQ
loop_
_publ_author_name
'Alekseev, E.V.'
'Suleimanov, E.V.'
'Chuprunov, E.V.'
'Serezhkin, V.N.'
'Fukin, G.K.'
_cell_length_a 9.455(2)
_cell_length_b 3.6721(9)
_cell_length_c 7.193(2)
_cell_angle_alpha 90
_cell_angle_beta 110.402(3)
_cell_angle_gamma 90
_cell_volume 234.07
_cell_formula_units_Z 2
_symmetry_space_group_name_H-M 'C 1 2/m 1'
_symmetry_Int_Tables_number 12
_refine_ls_R_factor_all 0.0212
loop_
_symmetry_equiv_pos_site_id
_symmetry_equiv_pos_as_xyz
1 '-x, y, -z'
2 '-x, -y, -z'
3 'x, -y, z'
4 'x, y, z'
5 '-x+1/2, y+1/2, -z'
6 '-x+1/2, -y+1/2, -z'
7 'x+1/2, -y+1/2, z'
8 'x+1/2, y+1/2, z'
loop_
_atom_type_symbol
_atom_type_oxidation_number
Mo6+ 6
V5+ 5
Na1+ 1
O2- -2
loop_
_atom_site_label
_atom_site_type_symbol
_atom_site_symmetry_multiplicity
_atom_site_Wyckoff_symbol
_atom_site_fract_x
_atom_site_fract_y
_atom_site_fract_z
_atom_site_B_iso_or_equiv
_atom_site_occupancy
_atom_site_attached_hydrogens
Mo1 Mo6+ 4 i 0.3160(1) 0 0.8582(2) 0.0088(7) 0.66(1) 0
V1 V5+ 4 i 0.3170(5) 0 0.8590(9) 0.024(5) 0.34(1) 0
Na1 Na1+ 2 d 0.5 0 0.5 0.0336(11) 0.68(1) 0
O1 O2- 4 i 0.1805(2) 0 0.6378(3) 0.0221(7) 1 0
O2 O2- 4 i 0.3078(2) 0.5 0.9393(3) 0.0122(5) 1 0
O3 O2- 4 i 0.4787(3) 0 0.8101(5) 0.0239(6) 1 0
#End of TTdata_250359-ICSD