
#(C) 2019 by FIZ Karlsruhe - Leibniz Institute for Information Infrastructure.  All rights reserved.
data_250441-ICSD
_database_code_ICSD 250441
_audit_creation_date 2008-02-01
_chemical_name_systematic 'Disodium lutetium molybdate phosphate(V)'
_chemical_formula_structural 'Na2 Lu (Mo O4) (P O4)'
_chemical_formula_sum 'Lu1 Mo1 Na2 O8 P1'
_chemical_name_structure_type Na2YMoO4PO4
_exptl_crystal_density_diffrn 4.33
_publ_section_title

;
Synthesis and crystal structures of new complex sodium lanthanide phosphate
molybdates Na2 M(III) (Mo O4) (P O4) (M(III)= Tb, Dy, Ho, Er, Tm, Lu)
;
loop_
_citation_id
_citation_journal_full
_citation_year
_citation_journal_volume
_citation_page_first
_citation_page_last
_citation_journal_id_ASTM
primary 'Zhurnal Neorganicheskoi Khimii' 2007 52 717 724 ZNOKAQ
loop_
_publ_author_name
'Ryumin, M.A.'
'Komissarova, L.N.'
'Rusakov, D.A.'
'Bobylev, A.P.'
'Zhizhin, M.G.'
_cell_length_a 18.0186(2)
_cell_length_b 11.9973(1)
_cell_length_c 6.7537(1)
_cell_angle_alpha 90.
_cell_angle_beta 90.
_cell_angle_gamma 90.
_cell_volume 1459.98
_cell_formula_units_Z 8
_symmetry_space_group_name_H-M 'I b c a'
_symmetry_Int_Tables_number 73
_refine_ls_R_factor_all 0.0703
loop_
_symmetry_equiv_pos_site_id
_symmetry_equiv_pos_as_xyz
1 'x, y+1/2, -z'
2 'x+1/2, -y, z'
3 '-x, y, z+1/2'
4 '-x, -y, -z'
5 '-x, -y+1/2, z'
6 '-x+1/2, y, -z'
7 'x, -y, -z+1/2'
8 'x, y, z'
9 'x+1/2, y, -z+1/2'
10 'x, -y+1/2, z+1/2'
11 '-x+1/2, y+1/2, z'
12 '-x+1/2, -y+1/2, -z+1/2'
13 '-x+1/2, -y, z+1/2'
14 '-x, y+1/2, -z+1/2'
15 'x+1/2, -y+1/2, -z'
16 'x+1/2, y+1/2, z+1/2'
loop_
_atom_type_symbol
_atom_type_oxidation_number
Na1+ 1
Lu3+ 3
Mo6+ 6
P5+ 5
O2- -2
loop_
_atom_site_label
_atom_site_type_symbol
_atom_site_symmetry_multiplicity
_atom_site_Wyckoff_symbol
_atom_site_fract_x
_atom_site_fract_y
_atom_site_fract_z
_atom_site_B_iso_or_equiv
_atom_site_occupancy
_atom_site_attached_hydrogens
Na1 Na1+ 16 f 0.5904(3) 0.1904(6) 0.262(1) 0.031(2) 1 0
Lu1 Lu3+ 8 d 0.75 0.0715(1) 0 0.0063(4) 1 0
Mo1 Mo6+ 8 c 0.4290(1) 0 0.25 0.0112(6) 1 0
P1 P5+ 8 d 0.25 0.1898(6) 0 0.008(2) 1 0
O1 O2- 16 f 0.3845(4) 0.0247(7) 0.4732(9) 0.017(2) 1 0
O2 O2- 16 f 0.4827(4) 0.1210(6) 0.212(2) 0.017(2) 1 0
O3 O2- 16 f 0.1754(3) 0.2510(5) -0.007(4) 0.012(2) 1 0
O4 O2- 16 f 0.2351(5) 0.1089(6) 0.162(1) 0.012(2) 1 0
#End of TTdata_250441-ICSD