
#(C) 2019 by FIZ Karlsruhe - Leibniz Institute for Information Infrastructure.  All rights reserved.
data_250438-ICSD
_database_code_ICSD 250438
_audit_creation_date 2008-02-01
_chemical_name_systematic 'Disodium dysprosium molybdate phosphate(V)'
_chemical_formula_structural 'Na2 Dy (Mo O4) (P O4)'
_chemical_formula_sum 'Dy1 Mo1 Na2 O8 P1'
_chemical_name_structure_type Na2YMoO4PO4
_exptl_crystal_density_diffrn 4.09
_publ_section_title

;
Synthesis and crystal structures of new complex sodium lanthanide phosphate
molybdates Na2 M(III) (Mo O4) (P O4) (M(III)= Tb, Dy, Ho, Er, Tm, Lu)
;
loop_
_citation_id
_citation_journal_full
_citation_year
_citation_journal_volume
_citation_page_first
_citation_page_last
_citation_journal_id_ASTM
primary 'Zhurnal Neorganicheskoi Khimii' 2007 52 717 724 ZNOKAQ
loop_
_publ_author_name
'Ryumin, M.A.'
'Komissarova, L.N.'
'Rusakov, D.A.'
'Bobylev, A.P.'
'Zhizhin, M.G.'
_cell_length_a 17.9927(2)
_cell_length_b 12.1553(1)
_cell_length_c 6.8775(1)
_cell_angle_alpha 90.
_cell_angle_beta 90.
_cell_angle_gamma 90.
_cell_volume 1504.16
_cell_formula_units_Z 8
_symmetry_space_group_name_H-M 'I b c a'
_symmetry_Int_Tables_number 73
_refine_ls_R_factor_all 0.0543
loop_
_symmetry_equiv_pos_site_id
_symmetry_equiv_pos_as_xyz
1 'x, y+1/2, -z'
2 'x+1/2, -y, z'
3 '-x, y, z+1/2'
4 '-x, -y, -z'
5 '-x, -y+1/2, z'
6 '-x+1/2, y, -z'
7 'x, -y, -z+1/2'
8 'x, y, z'
9 'x+1/2, y, -z+1/2'
10 'x, -y+1/2, z+1/2'
11 '-x+1/2, y+1/2, z'
12 '-x+1/2, -y+1/2, -z+1/2'
13 '-x+1/2, -y, z+1/2'
14 '-x, y+1/2, -z+1/2'
15 'x+1/2, -y+1/2, -z'
16 'x+1/2, y+1/2, z+1/2'
loop_
_atom_type_symbol
_atom_type_oxidation_number
Na1+ 1
Dy3+ 3
Mo6+ 6
P5+ 5
O2- -2
loop_
_atom_site_label
_atom_site_type_symbol
_atom_site_symmetry_multiplicity
_atom_site_Wyckoff_symbol
_atom_site_fract_x
_atom_site_fract_y
_atom_site_fract_z
_atom_site_B_iso_or_equiv
_atom_site_occupancy
_atom_site_attached_hydrogens
Na1 Na1+ 16 f 0.5992(3) 0.1886(5) 0.2719(9) 0.043(2) 1 0
Dy1 Dy3+ 8 d 0.75 0.0719(1) 0 0.0096(4) 1 0
Mo1 Mo6+ 8 c 0.4290(1) 0 0.25 0.0176(7) 1 0
P1 P5+ 8 d 0.25 0.1771(5) 0 0.008(1) 1 0
O1 O2- 16 f 0.3759(3) 0.0256(5) 0.4605(8) 0.013(2) 1 0
O2 O2- 16 f 0.4805(4) 0.1195(5) 0.198(1) 0.013(2) 1 0
O3 O2- 16 f 0.1851(3) 0.2540(4) -0.004(2) 0.013(2) 1 0
O4 O2- 16 f 0.2424(5) 0.1057(5) 0.1775(9) 0.013(2) 1 0
#End of TTdata_250438-ICSD