
#(C) 2019 by FIZ Karlsruhe - Leibniz Institute for Information Infrastructure.  All rights reserved.
data_250587-ICSD
_database_code_ICSD 250587
_audit_creation_date 2015-02-01
_chemical_name_systematic
'Lithium manganese sodium silicon oxide (0.725/3.92/0.27/5/15)'
_chemical_formula_structural 'Li0.725 Mn3.92 Na0.27 Si5 O15'
_chemical_formula_sum 'Li0.725 Mn3.92 Na0.27 O15 Si5'
_chemical_name_structure_type MnSiO3(aP50)
_chemical_name_mineral Nambulite
_exptl_crystal_density_diffrn 3.56
_cell_measurement_temperature 296.
_publ_section_title

;
The relation between Li <-> Na substitution and hydrogen bonding in
five-periodic single-chain silicates nambulite and marsturite: A
single-crystal X-ray study
;
loop_
_citation_id
_citation_journal_full
_citation_year
_citation_journal_volume
_citation_page_first
_citation_page_last
_citation_journal_id_ASTM
primary 'American Mineralogist' 2014 99 1462 1470 AMMIAY
loop_
_publ_author_name
'Nagashima, Mariko'
'Armbruster, Thomas'
'Kolitsch, Uwe'
'Pettke, Thomas'
_cell_length_a 7.5391(2)
_cell_length_b 11.7475(3)
_cell_length_c 6.7137(2)
_cell_angle_alpha 93.024(2)
_cell_angle_beta 95.147(2)
_cell_angle_gamma 106.266(2)
_cell_volume 566.61
_cell_formula_units_Z 2
_symmetry_space_group_name_H-M 'P -1'
_symmetry_Int_Tables_number 2
_refine_ls_R_factor_all 0.039
loop_
_symmetry_equiv_pos_site_id
_symmetry_equiv_pos_as_xyz
1 '-x, -y, -z'
2 'x, y, z'
loop_
_atom_type_symbol
_atom_type_oxidation_number
Na1+ 1
Li1+ 1
Mn2+ 2.3
Si4+ 4
O2- -2
loop_
_atom_site_label
_atom_site_type_symbol
_atom_site_symmetry_multiplicity
_atom_site_Wyckoff_symbol
_atom_site_fract_x
_atom_site_fract_y
_atom_site_fract_z
_atom_site_B_iso_or_equiv
_atom_site_occupancy
_atom_site_attached_hydrogens
Na1 Na1+ 2 i 0.6726(8) 0.1108(5) 0.3628(9) 0.055(2) 0.275(11) 0
Li1 Li1+ 2 i 0.6726(8) 0.1108(5) 0.3628(9) 0.055(2) 0.725(11) 0
Mn1 Mn2+ 2 i 0.59457(7) 0.65350(4) 0.06068(7) 0.00995(12) 1 0
Mn2 Mn2+ 2 i 0.81481(7) 0.94088(4) 0.12908(7) 0.01211(13) 1 0
Mn3 Mn2+ 2 i 0.03859(7) 0.23512(5) 0.18048(8) 0.00978(17) 0.927(3) 0
Mn4 Mn2+ 2 i 0.24687(7) 0.51374(5) 0.26525(7) 0.01218(16) 0.988(3) 0
Si1 Si4+ 2 i 0.28019(12) 0.05957(8) 0.35765(13) 0.00960(18) 1 0
Si2 Si4+ 2 i 0.47475(11) 0.32697(7) 0.42820(12) 0.00699(16) 1 0
Si3 Si4+ 2 i 0.81894(11) 0.45595(7) 0.22172(12) 0.00653(16) 1 0
Si4 Si4+ 2 i 0.00894(12) 0.72550(7) 0.30111(12) 0.00798(17) 1 0
Si5 Si4+ 2 i 0.35105(11) 0.85360(7) 0.11409(12) 0.00694(17) 1 0
O1 O2- 2 i 0.1991(3) 0.0096(2) 0.5608(3) 0.0149(5) 1 0
O2 O2- 2 i 0.1205(3) 0.0682(2) 0.1861(3) 0.0120(4) 1 0
O3 O2- 2 i 0.4468(3) 0.1830(2) 0.4173(3) 0.0127(4) 1 0
O4 O2- 2 i 0.3288(3) 0.3497(2) 0.2544(3) 0.0093(4) 1 0
O5 O2- 2 i 0.5290(3) 0.6165(2) 0.3520(3) 0.0117(4) 1 0
O6 O2- 2 i 0.6941(3) 0.3839(2) 0.3879(4) 0.0132(4) 1 0
O7 O2- 2 i 0.9797(3) 0.3976(2) 0.1737(3) 0.0124(4) 1 0
O8 O2- 2 i 0.6806(3) 0.4708(2) 0.0339(3) 0.0098(4) 1 0
O9 O2- 2 i 0.9330(4) 0.5859(2) 0.3363(3) 0.0138(5) 1 0
O10 O2- 2 i 0.8813(3) 0.7671(2) 0.1307(3) 0.0103(4) 1 0
O11 O2- 2 i -0.0241(4) 0.2026(2) 0.4827(3) 0.0157(5) 1 0
O12 O2- 2 i 0.2178(3) 0.7457(2) 0.2282(4) 0.0143(5) 1 0
O13 O2- 2 i 0.5376(3) 0.8233(2) 0.0693(4) 0.0120(4) 1 0
O14 O2- 2 i 0.7653(3) 0.1196(2) 0.0847(3) 0.0109(4) 1 0
O15 O2- 2 i 0.3996(3) 0.9728(2) 0.2753(4) 0.0137(5) 1 0
loop_
_atom_site_aniso_label
_atom_site_aniso_type_symbol
_atom_site_aniso_U_11
_atom_site_aniso_U_22
_atom_site_aniso_U_33
_atom_site_aniso_U_12
_atom_site_aniso_U_13
_atom_site_aniso_U_23
Na1 Na1+ 0.051(3) 0.050(3) 0.058(4) -0.001(3) 0.042(3) -0.007(2)
Li1 Li1+ 0.051(3) 0.050(3) 0.058(4) -0.001(3) 0.042(3) -0.007(2)
Mn1 Mn2+ 0.0078(2) 0.0104(2) 0.0102(2) 0.00042(17) 0.00033(15) 0.00035(15)
Mn2 Mn2+ 0.0117(2) 0.0104(2) 0.0133(2) 0.00242(18) -0.00005(17) -0.00034(16)
Mn3 Mn2+ 0.0081(3) 0.0082(3) 0.0117(3) 0.00076(18) -0.00016(17) -0.00025(16)
Mn4 Mn2+ 0.0087(3) 0.0118(3) 0.0131(3) -0.00067(18) -0.00134(17) -0.00137(16)
Si1 Si4+ 0.0087(4) 0.0073(4) 0.0108(4) 0.0002(3) -0.0015(3) -0.0002(3)
Si2 Si4+ 0.0063(4) 0.0054(4) 0.0078(3) -0.0002(3) -0.0004(3) 0.0002(2)
Si3 Si4+ 0.0041(3) 0.0057(3) 0.0086(3) -0.0004(3) -0.0002(3) 0.0012(3)
Si4 Si4+ 0.0067(4) 0.0063(4) 0.0096(3) 0.0003(3) -0.0007(3) -0.0001(3)
Si5 Si4+ 0.0048(3) 0.0071(4) 0.0082(3) 0.0012(3) -0.0006(3) -0.0009(3)
O1 O2- 0.0146(11) 0.0150(11) 0.0123(10) -0.0007(9) 0.0013(8) 0.0030(8)
O2 O2- 0.0092(10) 0.0115(10) 0.0134(10) 0.0021(8) -0.0039(8) -0.0011(8)
O3 O2- 0.0124(11) 0.0058(10) 0.0167(10) -0.0008(8) -0.0032(8) -0.0008(7)
O4 O2- 0.0074(10) 0.0097(10) 0.0101(9) 0.0017(8) -0.0011(7) 0.0003(7)
O5 O2- 0.0111(10) 0.0137(11) 0.0082(9) 0.0008(8) 0.0005(7) -0.0021(7)
O6 O2- 0.0064(10) 0.0155(11) 0.0158(10) -0.0006(8) 0.0013(8) 0.0069(8)
O7 O2- 0.0099(10) 0.0129(11) 0.0156(10) 0.0053(9) 0.0024(8) 0.0004(8)
O8 O2- 0.0066(10) 0.0108(10) 0.0099(9) 0.0001(8) -0.0025(7) 0.0004(7)
O9 O2- 0.0168(12) 0.0055(10) 0.0138(10) -0.0032(8) -0.0056(8) 0.0008(7)
O10 O2- 0.0076(10) 0.0100(10) 0.0134(10) 0.0030(8) -0.0010(8) 0.0018(7)
O11 O2- 0.0249(13) 0.0090(11) 0.0121(10) 0.0031(9) 0.0025(9) -0.0006(8)
O12 O2- 0.0077(10) 0.0184(12) 0.0161(10) 0.0020(9) 0.0015(8) 0.0058(8)
O13 O2- 0.0081(10) 0.0100(10) 0.0178(11) 0.0021(8) 0.0020(8) 0.0019(8)
O14 O2- 0.0084(10) 0.0116(10) 0.0112(9) 0.0013(8) -0.0030(7) 0.0017(7)
O15 O2- 0.0120(11) 0.0107(11) 0.0167(10) 0.0036(9) -0.0041(8) -0.0065(8)
#End of TTdata_250587-ICSD