
#(C) 2019 by FIZ Karlsruhe - Leibniz Institute for Information Infrastructure.  All rights reserved.
data_250527-ICSD
_database_code_ICSD 250527
_audit_creation_date 2014-08-01
_chemical_name_systematic 'Trisodium nickel triphosphate dodecahydrate'
_chemical_formula_structural 'Na3 Ni P3 O10 (H2 O)12'
_chemical_formula_sum 'H24 Na3 Ni1 O22 P3'
_chemical_name_structure_type CdNa3P3O10(H2O)12
_exptl_crystal_density_diffrn 1.97
_cell_measurement_temperature 120.
_publ_section_title
'Na3 M P3 O10 * 12 H2 O (M = Co, Ni): crystal structure and IR spectra'
loop_
_citation_id
_citation_journal_full
_citation_year
_citation_journal_volume
_citation_page_first
_citation_page_last
_citation_journal_id_ASTM
primary 'International Journal of Inorganic Chemistry' 2012 2012 702471-1
702471-6 IJICBU
loop_
_publ_author_name
'Azzaoui, Khalil'
'Essehli, Rachid'
'El Miloud, Mejdoubi'
'El Bali, Brahim'
'Dusek, Michal'
'Fejfarova, Karla'
_cell_length_a 14.9906(4)
_cell_length_b 9.1628(2)
_cell_length_c 14.6660(4)
_cell_angle_alpha 90
_cell_angle_beta 90.098(2)
_cell_angle_gamma 90
_cell_volume 2014.45
_cell_formula_units_Z 4
_symmetry_space_group_name_H-M 'P 1 21/n 1'
_symmetry_Int_Tables_number 14
_refine_ls_R_factor_all 0.0277
loop_
_symmetry_equiv_pos_site_id
_symmetry_equiv_pos_as_xyz
1 '-x+1/2, y+1/2, -z+1/2'
2 '-x, -y, -z'
3 'x+1/2, -y+1/2, z+1/2'
4 'x, y, z'
loop_
_atom_type_symbol
_atom_type_oxidation_number
Ni2+ 2
P5+ 5
Na1+ 1
O2- -2
H1+ 1
loop_
_atom_site_label
_atom_site_type_symbol
_atom_site_symmetry_multiplicity
_atom_site_Wyckoff_symbol
_atom_site_fract_x
_atom_site_fract_y
_atom_site_fract_z
_atom_site_B_iso_or_equiv
_atom_site_occupancy
_atom_site_attached_hydrogens
Ni1 Ni2+ 4 e 0.17775(3) 0.04210(5) 0.25232(4) 0.01031(16) 1 0
P1 P5+ 4 e 0.09240(6) 0.27923(9) 0.38998(6) 0.0103(2) 1 0
P2 P5+ 4 e 0.98306(5) 0.15633(8) 0.24160(6) 0.0109(2) 1 0
P3 P5+ 4 e 0.09811(6) 0.26945(9) 0.09629(6) 0.0107(3) 1 0
Na1 Na1+ 4 e 0.43639(8) 0.26593(12) 0.24625(10) 0.0150(4) 1 0
Na2 Na1+ 4 e 0.29135(8) 0.46685(13) 0.85810(9) 0.0148(4) 1 0
Na3 Na1+ 4 e 0.29708(9) 0.30831(15) 0.61397(9) 0.0198(4) 1 0
O1 O2- 4 e 0.05305(16) 0.2084(2) 0.47298(17) 0.0155(7) 1 0
O2 O2- 4 e 0.17274(16) 0.1961(2) 0.35321(16) 0.0134(7) 1 0
O3 O2- 4 e 0.11233(16) 0.4401(2) 0.40118(16) 0.0133(7) 1 0
O4 O2- 4 e 0.01573(16) 0.2775(3) 0.31162(16) 0.0151(7) 1 0
O5 O2- 4 e 0.38472(13) 0.3561(2) 0.74647(17) 0.0133(6) 1 0
O6 O2- 4 e 0.03945(13) 0.0225(2) 0.25347(19) 0.0140(6) 1 0
O7 O2- 4 e 0.50413(15) 0.2660(3) 0.64694(16) 0.0142(7) 1 0
O8 O2- 4 e 0.10774(15) 0.4333(2) 0.09759(16) 0.0136(7) 1 0
O9 O2- 4 e 0.17189(16) 0.1940(2) 0.14967(16) 0.0134(7) 1 0
O10 O2- 4 e 0.08271(16) 0.2083(3) 0.00149(15) 0.0144(7) 1 0
O11 O2- 4 e 0.18463(13) 0.5555(2) 0.24870(17) 0.0122(6) 1 0
O12 O2- 4 e 0.32216(16) 0.3705(3) 0.33892(17) 0.0138(7) 1 0
O13 O2- 4 e 0.51641(17) 0.1322(3) 0.35582(18) 0.0174(7) 1 0
O14 O2- 4 e 0.39039(17) 0.4334(3) 0.98347(17) 0.0163(7) 1 0
O15 O2- 4 e 0.28246(17) 0.1076(3) 0.51223(17) 0.0180(7) 1 0
O16 O2- 4 e 0.17442(16) 0.2053(3) 0.69696(18) 0.0177(8) 1 0
O17 O2- 4 e 0.51583(17) 0.1489(3) 0.12885(17) 0.0151(7) 1 0
O18 O2- 4 e 0.22272(17) 0.2371(3) 0.87927(17) 0.0177(8) 1 0
O19 O2- 4 e 0.32148(16) 0.3724(3) 0.15174(17) 0.0137(7) 1 0
O20 O2- 4 e 0.39309(16) 0.4166(3) 0.50536(17) 0.0169(7) 1 0
O21 O2- 4 e 0.18750(17) 0.4887(3) 0.56962(17) 0.0201(8) 1 0
O22 O2- 4 e 0.34199(17) 0.0311(3) 0.7215(2) 0.0254(9) 1 0
H1 H1+ 4 e 0.161(3) 0.515(4) 0.2048(19) 0.0147 1 0
H2 H1+ 4 e 0.169(3) 0.524(4) 0.2989(14) 0.0147 1 0
H3 H1+ 4 e 0.2757(16) 0.324(4) 0.341(3) 0.0166 1 0
H4 H1+ 4 e 0.340(3) 0.389(4) 0.3906(13) 0.0166 1 0
H5 H1+ 4 e 0.488(3) 0.062(3) 0.376(3) 0.0209 1 0
H6 H1+ 4 e 0.529(3) 0.183(4) 0.4001(18) 0.0209 1 0
H7 H1+ 4 e 0.4338(18) 0.380(4) 0.979(3) 0.0196 1 0
H8 H1+ 4 e 0.411(3) 0.516(2) 0.988(3) 0.0196 1 0
H9 H1+ 4 e 0.245(2) 0.139(4) 0.476(2) 0.0216 1 0
H10 H1+ 4 e 0.322(2) 0.059(4) 0.488(3) 0.0216 1 0
H11 H1+ 4 e 0.186(3) 0.211(4) 0.7516(9) 0.0213 1 0
H12 H1+ 4 e 0.1263(15) 0.245(4) 0.686(3) 0.0213 1 0
H13 H1+ 4 e 0.485(2) 0.077(3) 0.117(3) 0.0181 1 0
H14 H1+ 4 e 0.520(3) 0.189(4) 0.0790(14) 0.0181 1 0
H15 H1+ 4 e 0.255(2) 0.169(3) 0.895(3) 0.0213 1 0
H16 H1+ 4 e 0.182(2) 0.231(5) 0.916(2) 0.0213 1 0
H17 H1+ 4 e 0.2782(18) 0.319(4) 0.145(3) 0.0165 1 0
H18 H1+ 4 e 0.339(3) 0.387(4) 0.0999(12) 0.0165 1 0
H19 H1+ 4 e 0.4433(13) 0.382(4) 0.510(3) 0.0202 1 0
H20 H1+ 4 e 0.407(3) 0.5032(17) 0.504(3) 0.0202 1 0
H21 H1+ 4 e 0.1440(19) 0.473(4) 0.602(2) 0.0241 1 0
H22 H1+ 4 e 0.161(3) 0.487(5) 0.5208(17) 0.0241 1 0
H23 H1+ 4 e 0.359(3) 0.112(2) 0.738(3) 0.0305 1 0
H24 H1+ 4 e 0.383(2) -0.016(4) 0.699(3) 0.0305 1 0
loop_
_atom_site_aniso_label
_atom_site_aniso_type_symbol
_atom_site_aniso_U_11
_atom_site_aniso_U_22
_atom_site_aniso_U_33
_atom_site_aniso_U_12
_atom_site_aniso_U_13
_atom_site_aniso_U_23
Ni1 Ni2+ 0.0078(3) 0.0086(3) 0.0146(3) 0.00032(17) 0.0017(3) -0.0002(2)
P1 P5+ 0.0082(4) 0.0097(4) 0.0131(4) 0.0000(3) 0.0019(4) -0.0003(3)
P2 P5+ 0.0077(4) 0.0106(4) 0.0145(4) 0.0004(3) 0.0018(4) -0.0006(4)
P3 P5+ 0.0091(4) 0.0093(4) 0.0137(4) 0.0004(3) 0.0019(4) 0.0008(3)
Na1 Na1+ 0.0132(6) 0.0126(6) 0.0192(6) 0.0030(4) 0.0012(6) 0.0005(6)
Na2 Na1+ 0.0123(7) 0.0139(7) 0.0182(7) 0.0014(5) 0.0026(6) -0.0001(5)
Na3 Na1+ 0.0169(7) 0.0237(7) 0.0188(7) -0.0062(6) 0.0006(6) -0.0010(5)
O1 O2- 0.0141(12) 0.0119(12) 0.0203(12) -0.0021(9) 0.0071(10) 0.0011(10)
O2 O2- 0.0089(12) 0.0118(12) 0.0193(13) 0.0002(9) 0.0019(10) -0.0021(10)
O3 O2- 0.0107(12) 0.0096(11) 0.0196(12) 0.0003(9) 0.0046(10) -0.0010(9)
O4 O2- 0.0130(12) 0.0151(12) 0.0173(13) 0.0039(9) -0.0054(10) -0.0060(9)
O5 O2- 0.0086(10) 0.0179(11) 0.0135(11) 0.0003(8) 0.0000(11) -0.0033(10)
O6 O2- 0.0087(10) 0.0115(10) 0.0218(12) -0.0008(8) 0.0050(12) 0.0001(11)
O7 O2- 0.0082(12) 0.0185(13) 0.0159(13) -0.0005(9) 0.0016(10) -0.0036(9)
O8 O2- 0.0122(12) 0.0118(12) 0.0168(12) -0.0008(9) 0.0008(10) -0.0017(10)
O9 O2- 0.0110(12) 0.0130(12) 0.0161(12) -0.0003(10) 0.0017(10) 0.0032(9)
O10 O2- 0.0167(13) 0.0130(12) 0.0133(12) 0.0011(9) 0.0018(10) -0.0007(9)
O11 O2- 0.0112(10) 0.0137(10) 0.0117(11) -0.0021(8) -0.0003(12) -0.0010(10)
O12 O2- 0.0103(12) 0.0117(12) 0.0195(12) -0.0017(10) -0.0004(10) -0.0001(10)
O13 O2- 0.0166(12) 0.0144(13) 0.0212(13) -0.0035(10) -0.0002(11) -0.0006(10)
O14 O2- 0.0142(13) 0.0147(13) 0.0201(12) 0.0007(10) -0.0013(10) -0.0022(11)
O15 O2- 0.0143(13) 0.0196(13) 0.0202(13) 0.0013(10) 0.0036(10) -0.0017(11)
O16 O2- 0.0149(13) 0.0173(13) 0.0210(13) 0.0022(10) 0.0035(11) -0.0004(10)
O17 O2- 0.0139(12) 0.0188(14) 0.0125(11) -0.0040(10) 0.0002(10) 0.0011(9)
O18 O2- 0.0155(14) 0.0155(12) 0.0223(13) 0.0020(10) 0.0050(11) 0.0027(10)
O19 O2- 0.0109(12) 0.0128(12) 0.0175(12) -0.0047(10) 0.0018(10) -0.0028(10)
O20 O2- 0.0148(13) 0.0123(13) 0.0235(12) -0.0011(10) -0.0010(10) 0.0024(11)
O21 O2- 0.0185(13) 0.0233(13) 0.0184(14) -0.0076(11) 0.0019(10) -0.0008(11)
O22 O2- 0.0140(13) 0.0197(14) 0.0425(18) -0.0015(10) 0.0030(11) -0.0089(11)
#End of TTdata_250527-ICSD