
#(C) 2019 by FIZ Karlsruhe - Leibniz Institute for Information Infrastructure.  All rights reserved.
data_250772-ICSD
_database_code_ICSD 250772
_audit_creation_date 2015-02-01
_chemical_name_systematic 'Lithium-0.05 sodium-0.95 niobate(V)'
_chemical_formula_structural '(Li0.05 Na0.95) Nb O3'
_chemical_formula_sum 'Li0.05 Na0.95 Nb1 O3'
_chemical_name_structure_type NaNbO3(oP20)
_exptl_crystal_density_diffrn 4.44
_publ_section_title
'Unusual phase behavior in the piezoelectric perovskite system, LixNa1-xNbO3'
loop_
_citation_id
_citation_journal_full
_citation_year
_citation_journal_volume
_citation_page_first
_citation_page_last
_citation_journal_id_ASTM
primary 'Inorganic Chemistry' 2013 52 8872 8880 INOCAJ
loop_
_publ_author_name
'Peel, Martin D.'
'Ashbrook, Sharon E.'
'Lightfoot, Philip'
_cell_length_a 5.7110(4)
_cell_length_b 7.75521(5)
_cell_length_c 5.50660(4)
_cell_angle_alpha 90.
_cell_angle_beta 90.
_cell_angle_gamma 90.
_cell_volume 243.89
_cell_formula_units_Z 4
_symmetry_space_group_name_H-M 'P 21 m a'
_symmetry_Int_Tables_number 26
_refine_ls_R_factor_all 0.0437
loop_
_symmetry_equiv_pos_site_id
_symmetry_equiv_pos_as_xyz
1 'x+1/2, y, -z'
2 'x+1/2, -y, -z'
3 'x, -y, z'
4 'x, y, z'
loop_
_atom_type_symbol
_atom_type_oxidation_number
Nb5+ 5
Na1+ 1
O2- -2
Li1+ 1
loop_
_atom_site_label
_atom_site_type_symbol
_atom_site_symmetry_multiplicity
_atom_site_Wyckoff_symbol
_atom_site_fract_x
_atom_site_fract_y
_atom_site_fract_z
_atom_site_B_iso_or_equiv
_atom_site_occupancy
_atom_site_attached_hydrogens
Nb1 Nb5+ 4 c 0.26789 0.2496(3) 0.2452(3) 0.0006(2) 1. 0
Na1 Na1+ 2 a 0.2577(8) 0 0.7459(9) 0.0056(12) 0.9 0
Na2 Na1+ 2 b 0.2830(10) 0.5 0.7341(8) 0.0178(13) 1. 0
O1 O2- 2 a 0.2392(4) 0 0.3154(8) 0.0064(9) 1. 0
O2 O2- 2 b 0.2223(4) 0.5 0.1915(8) 0.0045(8) 1. 0
O3 O2- 4 c 0.0226(4) 0.2826(3) 0.5367(4) 0.0088(5) 1. 0
O4 O2- 4 c -0.0471(4) 0.2210(3) 0.0363(4) 0.0074(5) 1. 0
Li1 Li1+ 2 a 0.2577(8) 0 0.7459(9) 0.0056(12) 0.1 0
#End of TTdata_250772-ICSD