
#(C) 2019 by FIZ Karlsruhe - Leibniz Institute for Information Infrastructure.  All rights reserved.
data_250771-ICSD
_database_code_ICSD 250771
_audit_creation_date 2015-02-01
_audit_update_record 2016-02-01
_chemical_name_systematic 'Sodium iron orthophosphate'
_chemical_formula_structural 'Na Fe P O4'
_chemical_formula_sum 'Fe1 Na1 O4 P1'
_chemical_name_structure_type Olivine-Mg2SiO4
_exptl_crystal_density_diffrn 3.74
_cell_measurement_temperature 3.
_publ_section_title

;
Magnetic structures of NaFePO4 maricite and triphylite polymorphs for
sodium-ion batteries
;
loop_
_citation_id
_citation_journal_full
_citation_year
_citation_journal_volume
_citation_page_first
_citation_page_last
_citation_journal_id_ASTM
primary 'Inorganic Chemistry' 2013 52 8685 8693 INOCAJ
loop_
_publ_author_name
'Avdeev, Maxim'
'Mohamed, Zakiah'
'Ling, Chris D.'
'Lu, Jiechen'
'Tamaru, Mao'
'Yamada, Atsuo'
'Barpanda, Prabeer'
_cell_length_a 8.96278(9)
_cell_length_b 6.84285(11)
_cell_length_c 5.02827(7)
_cell_angle_alpha 90.
_cell_angle_beta 90.
_cell_angle_gamma 90.
_cell_volume 308.39
_cell_formula_units_Z 4
_symmetry_space_group_name_H-M 'P n m a'
_symmetry_Int_Tables_number 62
_refine_ls_R_factor_all 0.0372
loop_
_symmetry_equiv_pos_site_id
_symmetry_equiv_pos_as_xyz
1 'x+1/2, y, -z+1/2'
2 'x, -y+1/2, z'
3 '-x+1/2, y+1/2, z+1/2'
4 '-x, -y, -z'
5 '-x+1/2, -y, z+1/2'
6 '-x, y+1/2, -z'
7 'x+1/2, -y+1/2, -z+1/2'
8 'x, y, z'
loop_
_atom_type_symbol
_atom_type_oxidation_number
Fe2+ 2
P5+ 5
Na1+ 1
O2- -2
loop_
_atom_site_label
_atom_site_type_symbol
_atom_site_symmetry_multiplicity
_atom_site_Wyckoff_symbol
_atom_site_fract_x
_atom_site_fract_y
_atom_site_fract_z
_atom_site_B_iso_or_equiv
_atom_site_occupancy
_atom_site_attached_hydrogens
Fe1 Fe2+ 4 a 0 0 0 0.10(3) 1. 0
P1 P5+ 4 c 0.1760(3) 0.25 0.4635(7) 0.10(3) 1. 0
Na1 Na1+ 4 c 0.3492(5) 0.25 0.9726(10) 0.10(3) 1. 0
O1 O2- 8 d 0.1205(5) 0.0665(3) 0.3204(4) 0.10(3) 1. 0
O2 O2- 4 c 0.3493(3) 0.25 0.4590(6) 0.10(3) 1. 0
O3 O2- 4 c 0.1151(5) 0.25 0.7549(6) 0.10(3) 1. 0
#End of TTdata_250771-ICSD