
#(C) 2019 by FIZ Karlsruhe - Leibniz Institute for Information Infrastructure.  All rights reserved.
data_250869-ICSD
_database_code_ICSD 250869
_audit_creation_date 2015-02-01
_chemical_name_systematic 'Sodium gallium bis(selenate(IV))'
_chemical_formula_structural 'Na Ga (Se O3)2'
_chemical_formula_sum 'Ga1 Na1 O6 Se2'
_chemical_name_structure_type KFe(SeO3)2
_exptl_crystal_density_diffrn 4.47
_cell_measurement_temperature 173.
_publ_section_title

;
New alkali-metal gallium selenites, AGa(SeO3)2 (A = Li, Na, K, and Cs). Effect
of cation size on the framework structures and macroscopic centricities
;
loop_
_citation_id
_citation_journal_full
_citation_year
_citation_journal_volume
_citation_page_first
_citation_page_last
_citation_journal_id_ASTM
primary 'Inorganic Chemistry' 2013 52 5176 5184 INOCAJ
loop_
_publ_author_name
'Lee, Dong Woo'
'Ok, Kang Min'
_cell_length_a 12.4545(2)
_cell_length_b 5.29670(10)
_cell_length_c 7.80440(10)
_cell_angle_alpha 90
_cell_angle_beta 90
_cell_angle_gamma 90
_cell_volume 514.83
_cell_formula_units_Z 4
_symmetry_space_group_name_H-M 'P n m a'
_symmetry_Int_Tables_number 62
_refine_ls_R_factor_all 0.0292
loop_
_symmetry_equiv_pos_site_id
_symmetry_equiv_pos_as_xyz
1 'x+1/2, y, -z+1/2'
2 'x, -y+1/2, z'
3 '-x+1/2, y+1/2, z+1/2'
4 '-x, -y, -z'
5 '-x+1/2, -y, z+1/2'
6 '-x, y+1/2, -z'
7 'x+1/2, -y+1/2, -z+1/2'
8 'x, y, z'
loop_
_atom_type_symbol
_atom_type_oxidation_number
Se4+ 4
Ga3+ 3
Na1+ 1
O2- -2
loop_
_atom_site_label
_atom_site_type_symbol
_atom_site_symmetry_multiplicity
_atom_site_Wyckoff_symbol
_atom_site_fract_x
_atom_site_fract_y
_atom_site_fract_z
_atom_site_B_iso_or_equiv
_atom_site_occupancy
_atom_site_attached_hydrogens
Se1 Se4+ 4 c 0.06633(5) 0.25 0.71063(7) 0.01025(19) 1 0
Se2 Se4+ 4 c -0.29355(5) -0.25 0.99076(7) 0.01134(19) 1 0
Ga1 Ga3+ 4 c -0.10154(5) -0.25 0.70091(8) 0.0099(2) 1 0
Na1 Na1+ 4 c -0.1149(2) 0.25 1.0104(3) 0.0220(6) 1 0
O1 O2- 4 c 0.0201(4) 0.25 0.5086(4) 0.0135(9) 1 0
O2 O2- 8 d -0.0018(3) 0.0057(5) 0.7987(4) 0.0165(7) 1 0
O3 O2- 4 c -0.1622(4) -0.25 0.9338(5) 0.0175(9) 1 0
O4 O2- 8 d -0.2888(3) -0.0014(6) 1.1269(4) 0.0233(8) 1 0
loop_
_atom_site_aniso_label
_atom_site_aniso_type_symbol
_atom_site_aniso_U_11
_atom_site_aniso_U_22
_atom_site_aniso_U_33
_atom_site_aniso_U_12
_atom_site_aniso_U_13
_atom_site_aniso_U_23
Se1 Se4+ 0.0100(3) 0.0105(3) 0.0102(3) 0 0.0000(2) 0
Se2 Se4+ 0.0099(3) 0.0133(3) 0.0108(3) 0 0.0001(2) 0
Ga1 Ga3+ 0.0109(4) 0.0106(3) 0.0081(3) 0 0.0007(2) 0
Na1 Na1+ 0.0249(15) 0.0226(15) 0.0185(14) 0 0.0008(11) 0
O1 O2- 0.017(2) 0.016(2) 0.0077(19) 0 -0.0011(16) 0
O2 O2- 0.0244(18) 0.0133(15) 0.0119(15) -0.0083(14) 0.0004(12) 0.0039(11)
O3 O2- 0.008(2) 0.031(3) 0.013(2) 0 -0.0015(18) 0
O4 O2- 0.0178(17) 0.0253(18) 0.0267(18) 0.0090(14) -0.0033(15) -0.0142(14)
#End of TTdata_250869-ICSD