
#(C) 2019 by FIZ Karlsruhe - Leibniz Institute for Information Infrastructure.  All rights reserved.
data_251075-ICSD
_database_code_ICSD 251075
_audit_creation_date 2015-02-01
_chemical_name_systematic 'Sodium hafnium fluoride (5/2/13)'
_chemical_formula_structural 'Na5 Hf2 F13'
_chemical_formula_sum 'F13 Hf2 Na5'
_exptl_crystal_density_diffrn 4.45
_cell_measurement_temperature 293.
_publ_section_title

;
Hydrothermal chemistry, structures, and luminescence studies of alkali hafnium
fluorides
;
loop_
_citation_id
_citation_journal_full
_citation_year
_citation_journal_volume
_citation_page_first
_citation_page_last
_citation_journal_id_ASTM
primary 'Inorganic Chemistry' 2013 52 237 244 INOCAJ
loop_
_publ_author_name
'Underwood, Christopher C.'
'McMillen, Colin D.'
'Chen, Hongyu'
'Anker, Jeffery N.'
'Kolis, Joseph W.'
_cell_length_a 11.627(2)
_cell_length_b 5.5159(11)
_cell_length_c 8.4317(17)
_cell_angle_alpha 90.
_cell_angle_beta 97.46(3)
_cell_angle_gamma 90.
_cell_volume 536.17
_cell_formula_units_Z 2
_symmetry_space_group_name_H-M 'C 1 2/m 1'
_symmetry_Int_Tables_number 12
_refine_ls_R_factor_all 0.0181
loop_
_symmetry_equiv_pos_site_id
_symmetry_equiv_pos_as_xyz
1 '-x, y, -z'
2 '-x, -y, -z'
3 'x, -y, z'
4 'x, y, z'
5 '-x+1/2, y+1/2, -z'
6 '-x+1/2, -y+1/2, -z'
7 'x+1/2, -y+1/2, z'
8 'x+1/2, y+1/2, z'
loop_
_atom_type_symbol
_atom_type_oxidation_number
Hf4+ 4
Na1+ 1
F1- -1
loop_
_atom_site_label
_atom_site_type_symbol
_atom_site_symmetry_multiplicity
_atom_site_Wyckoff_symbol
_atom_site_fract_x
_atom_site_fract_y
_atom_site_fract_z
_atom_site_B_iso_or_equiv
_atom_site_occupancy
_atom_site_attached_hydrogens
Hf1 Hf4+ 4 i 0.42742(2) 0.5 0.25766(3) 0.0101(2) 1 0
Na1 Na1+ 4 i 0.2230(2) 0. 0.1544(4) 0.0185(6) 1 0
Na2 Na1+ 2 b 0. 0.5 0. 0.0226(10) 1 0
Na3 Na1+ 4 i 0.1623(3) 0.5 0.4302(3) 0.0170(6) 1 0
F1 F1- 8 j 0.3195(3) 0.2644(6) 0.3570(3) 0.0186(6) 1 0
F2 F1- 8 j 0.3677(2) 0.7233(6) 0.0715(3) 0.0191(6) 1 0
F3 F1- 8 j 0.5610(2) 0.2640(7) 0.2524(3) 0.0236(8) 1 0
F4 F1- 2 c 0.5 0.5 0.5 0.0306(16) 1 0
loop_
_atom_site_aniso_label
_atom_site_aniso_type_symbol
_atom_site_aniso_U_11
_atom_site_aniso_U_22
_atom_site_aniso_U_33
_atom_site_aniso_U_12
_atom_site_aniso_U_13
_atom_site_aniso_U_23
Hf1 Hf4+ 0.0085(2) 0.0137(2) 0.0081(2) 0. 0.00105(11) 0.
Na1 Na1+ 0.0121(13) 0.0175(15) 0.0253(16) 0. -0.0008(11) 0.
Na2 Na1+ 0.019(2) 0.018(2) 0.034(3) 0. 0.0115(18) 0.
Na3 Na1+ 0.0171(14) 0.0188(15) 0.0149(13) 0. 0.0014(11) 0.
F1 F1- 0.0187(14) 0.0188(15) 0.0193(14) -0.0032(12) 0.0062(11) 0.0024(12)
F2 F1- 0.0217(15) 0.0181(16) 0.0167(13) 0.0005(12) -0.0007(11) 0.0036(12)
F3 F1- 0.0183(15) 0.0279(19) 0.0240(17) 0.0098(13) 0.0007(13) 0.0004(13)
F4 F1- 0.024(3) 0.057(5) 0.009(3) 0. -0.003(2) 0.
#End of TTdata_251075-ICSD