
#(C) 2019 by FIZ Karlsruhe - Leibniz Institute for Information Infrastructure.  All rights reserved.
data_251538-ICSD
_database_code_ICSD 251538
_audit_creation_date 2015-08-01
_chemical_name_systematic 'Rubidium disodium decaoxo-bromo-hexaborate'
_chemical_formula_structural 'Rb Na2 B6 O10 Br'
_chemical_formula_sum 'B6 Br1 Na2 O10 Rb1'
_exptl_crystal_density_diffrn 2.81
_cell_measurement_temperature 296.
_publ_section_title

;
Effect of halogen (Cl, Br) on the symmetry of flexible perovskite-related
framework
;
loop_
_citation_id
_citation_journal_full
_citation_year
_citation_journal_volume
_citation_page_first
_citation_page_last
_citation_journal_id_ASTM
primary 'Inorganic Chemistry' 2014 53 11213 11220 INOCAJ
loop_
_publ_author_name
'Bai, Chunyan'
'Yu, Hongwei'
'Han, Shujuan'
'Pan, Shilie'
'Zhang, Bingbing'
'Wang, Ying'
'Wu, Hongping'
'Yang, Zhihua'
_cell_length_a 12.769(8)
_cell_length_b 9.611(6)
_cell_length_c 8.390(5)
_cell_angle_alpha 90.
_cell_angle_beta 90.
_cell_angle_gamma 90.
_cell_volume 1029.64
_cell_formula_units_Z 4
_symmetry_space_group_name_H-M 'P n m a'
_symmetry_Int_Tables_number 62
_refine_ls_R_factor_all 0.0478
loop_
_symmetry_equiv_pos_site_id
_symmetry_equiv_pos_as_xyz
1 'x+1/2, y, -z+1/2'
2 'x, -y+1/2, z'
3 '-x+1/2, y+1/2, z+1/2'
4 '-x, -y, -z'
5 '-x+1/2, -y, z+1/2'
6 '-x, y+1/2, -z'
7 'x+1/2, -y+1/2, -z+1/2'
8 'x, y, z'
loop_
_atom_type_symbol
_atom_type_oxidation_number
Rb1+ 1
Na1+ 1
B3+ 3
O2- -2
Br1- -1
loop_
_atom_site_label
_atom_site_type_symbol
_atom_site_symmetry_multiplicity
_atom_site_Wyckoff_symbol
_atom_site_fract_x
_atom_site_fract_y
_atom_site_fract_z
_atom_site_B_iso_or_equiv
_atom_site_occupancy
_atom_site_attached_hydrogens
Rb1 Rb1+ 4 b 0.5 1. 0. 0.0429(3) 1 0
Na1 Na1+ 4 c 0.2048(3) 1.25 0.2675(5) 0.0353(10) 1 0
Na2 Na1+ 4 a 0.5 1. 0.5 0.0337(10) 1 0
B1 B3+ 4 c 0.3288(7) 0.75 0.3884(10) 0.0112(18) 1 0
B2 B3+ 8 d 0.2669(5) 0.9875(7) 0.4620(7) 0.0145(13) 1 0
B3 B3+ 8 d 0.1901(4) 0.8855(6) 0.2162(7) 0.0093(12) 1 0
B4 B3+ 4 c 0.5242(6) 0.75 0.3015(11) 0.0108(17) 1 0
O1 O2- 8 d 0.2076(3) 0.9981(4) 0.3264(4) 0.0138(8) 1 0
O2 O2- 8 d 0.1735(3) 1.1273(4) -0.0066(5) 0.0167(9) 1 0
O3 O2- 4 c 0.2297(4) 0.75 0.2890(6) 0.0091(11) 1 0
O4 O2- 4 c 0.4190(4) 0.75 0.2861(7) 0.0212(14) 1 0
O5 O2- 8 d 0.0758(3) 0.8728(4) 0.1977(5) 0.0133(8) 1 0
O6 O2- 8 d 0.2575(3) 1.0950(4) 0.5649(4) 0.0162(9) 1 0
Br1 Br1- 4 c 0.44685(8) 1.25 0.26219(13) 0.0347(3) 1 0
loop_
_atom_site_aniso_label
_atom_site_aniso_type_symbol
_atom_site_aniso_U_11
_atom_site_aniso_U_22
_atom_site_aniso_U_33
_atom_site_aniso_U_12
_atom_site_aniso_U_13
_atom_site_aniso_U_23
Rb1 Rb1+ 0.0480(7) 0.0445(7) 0.0362(6) 0.0203(5) -0.0203(5) -0.0108(5)
Na1 Na1+ 0.035(2) 0.0190(19) 0.052(3) 0. 0.010(2) 0.
Na2 Na1+ 0.0219(19) 0.038(2) 0.042(2) -0.0013(16) 0.0104(16) -0.023(2)
B1 B3+ 0.011(2) 0.011(2) 0.012(2) 0. -0.0002(10) 0.
B2 B3+ 0.014(3) 0.017(4) 0.013(3) -0.004(3) -0.001(2) 0.002(3)
B3 B3+ 0.007(3) 0.010(3) 0.011(3) 0.001(2) 0.003(2) 0.001(2)
B4 B3+ 0.005(4) 0.014(5) 0.014(4) 0. -0.005(3) 0.
O1 O2- 0.0182(19) 0.010(2) 0.0129(19) 0.0009(17) -0.0037(16) -0.0031(16)
O2 O2- 0.0127(19) 0.014(2) 0.023(2) 0.0039(15) 0.0115(17) 0.0033(17)
O3 O2- 0.008(2) 0.009(3) 0.010(3) 0. 0.002(2) 0.
O4 O2- 0.014(3) 0.031(4) 0.018(3) 0. 0.000(2) 0.
O5 O2- 0.0099(19) 0.012(2) 0.018(2) 0.0011(15) -0.0021(15) 0.0009(16)
O6 O2- 0.026(2) 0.011(2) 0.0122(19) 0.0039(17) -0.0018(17) -0.0020(16)
Br1 Br1- 0.0314(5) 0.0321(6) 0.0406(6) 0. 0.0022(5) 0.
#End of TTdata_251538-ICSD