
#(C) 2019 by FIZ Karlsruhe - Leibniz Institute for Information Infrastructure.  All rights reserved.
data_251542-ICSD
_database_code_ICSD 251542
_audit_creation_date 2015-08-01
_chemical_name_systematic 'Disodium thorium(IV) bis(arsenate(V))'
_chemical_formula_structural 'Na2 Th (As O4)2'
_chemical_formula_sum 'As2 Na2 O8 Th1'
_exptl_crystal_density_diffrn 4.67
_cell_measurement_temperature 293.
_publ_section_title

;
Morphotropy and temperature-driven polymorphism in A2 Th (As O4)2 (A = Li, Na,
K, Rb, Cs) series
;
loop_
_citation_id
_citation_journal_full
_citation_year
_citation_journal_volume
_citation_page_first
_citation_page_last
_citation_journal_id_ASTM
primary 'Inorganic Chemistry' 2014 53 11231 11241 INOCAJ
loop_
_publ_author_name
'Yu, Na'
'Klepov, Vladislav V.'
'Modolo, Giuseppe'
'Bosbach, Dirk'
'Suleimanov, Evgeny V.'
'Gesing, Thorsten M.'
'Robben, Lars'
'Alekseev, Evgeny V.'
_cell_length_a 7.0425(3)
_cell_length_b 12.3268(4)
_cell_length_c 18.2185(5)
_cell_angle_alpha 90.
_cell_angle_beta 90.
_cell_angle_gamma 90.
_cell_volume 1581.57
_cell_formula_units_Z 8
_symmetry_space_group_name_H-M 'F d d d Z'
_symmetry_Int_Tables_number 70
_refine_ls_R_factor_all 0.0144
loop_
_symmetry_equiv_pos_site_id
_symmetry_equiv_pos_as_xyz
1 'x+3/4, y+3/4, -z'
2 'x+3/4, -y, z+3/4'
3 '-x, y+3/4, z+3/4'
4 '-x, -y, -z'
5 '-x+1/4, -y+1/4, z'
6 '-x+1/4, y, -z+1/4'
7 'x, -y+1/4, -z+1/4'
8 'x, y, z'
9 'x+3/4, y+1/4, -z+1/2'
10 'x+3/4, -y+1/2, z+1/4'
11 '-x, y+1/4, z+1/4'
12 '-x, -y+1/2, -z+1/2'
13 '-x+1/4, -y+3/4, z+1/2'
14 '-x+1/4, y+1/2, -z+3/4'
15 'x, -y+3/4, -z+3/4'
16 'x, y+1/2, z+1/2'
17 'x+1/4, y+3/4, -z+1/2'
18 'x+1/4, -y, z+1/4'
19 '-x+1/2, y+3/4, z+1/4'
20 '-x+1/2, -y, -z+1/2'
21 '-x+3/4, -y+1/4, z+1/2'
22 '-x+3/4, y, -z+3/4'
23 'x+1/2, -y+1/4, -z+3/4'
24 'x+1/2, y, z+1/2'
25 'x+1/4, y+1/4, -z'
26 'x+1/4, -y+1/2, z+3/4'
27 '-x+1/2, y+1/4, z+3/4'
28 '-x+1/2, -y+1/2, -z'
29 '-x+3/4, -y+3/4, z'
30 '-x+3/4, y+1/2, -z+1/4'
31 'x+1/2, -y+3/4, -z+1/4'
32 'x+1/2, y+1/2, z'
loop_
_atom_type_symbol
_atom_type_oxidation_number
Th4+ 4
As5+ 5
Na1+ 1
O2- -2
loop_
_atom_site_label
_atom_site_type_symbol
_atom_site_symmetry_multiplicity
_atom_site_Wyckoff_symbol
_atom_site_fract_x
_atom_site_fract_y
_atom_site_fract_z
_atom_site_B_iso_or_equiv
_atom_site_occupancy
_atom_site_attached_hydrogens
Th1 Th4+ 8 b 0.375 0.375 0.375 0.00749(4) 1 0
As1 As5+ 16 g 0.375 0.375 0.554210(14) 0.00937(5) 1 0
Na1 Na1+ 16 g 0.375 0.375 0.73249(8) 0.0242(3) 1 0
O1 O2- 32 h 0.2005(2) 0.40931(13) 0.49513(8) 0.0158(3) 1 0
O2 O2- 32 h 0.4213(3) 0.47844(13) 0.61089(8) 0.0199(3) 1 0
loop_
_atom_site_aniso_label
_atom_site_aniso_type_symbol
_atom_site_aniso_U_11
_atom_site_aniso_U_22
_atom_site_aniso_U_33
_atom_site_aniso_U_12
_atom_site_aniso_U_13
_atom_site_aniso_U_23
Th1 Th4+ 0.00890(6) 0.00634(6) 0.00724(5) 0. 0. 0.
As1 As5+ 0.01136(12) 0.00986(11) 0.00690(10) -0.00433(10) 0. 0.
Na1 Na1+ 0.0132(6) 0.0369(8) 0.0224(6) 0.0035(6) 0. 0.
O1 O2- 0.0120(7) 0.0246(7) 0.0107(6) 0.0010(6) -0.0004(5) 0.0002(6)
O2 O2- 0.0289(9) 0.0145(7) 0.0162(7) -0.0112(6) -0.0001(6) -0.0050(6)
#End of TTdata_251542-ICSD