
#(C) 2019 by FIZ Karlsruhe - Leibniz Institute for Information Infrastructure.  All rights reserved.
data_251509-ICSD
_database_code_ICSD 251509
_audit_creation_date 2015-08-01
_chemical_name_systematic 'Sodium nickel bismuth oxide (1/2/1/5.66)'
_chemical_formula_structural 'Na Ni2 Bi O5.66'
_chemical_formula_sum 'Bi1 Na1 Ni2 O5.66'
_exptl_crystal_density_diffrn 5.43
_cell_measurement_temperature 100.
_publ_section_title

;
Structure and magnetic properties of the spin-1/2-based honeycomb
NaNi2BiO6-delta and its hydrate NaNi2BiO6-delta.1.7H2O
;
loop_
_citation_id
_citation_journal_full
_citation_year
_citation_journal_volume
_citation_page_first
_citation_page_last
_citation_journal_id_ASTM
primary 'Inorganic Chemistry' 2014 53 10989 10995 INOCAJ
loop_
_publ_author_name
'Seibel, Elizabeth M.'
'Roudebush, John H.'
'Ali, Mazhar N.'
'Ross, K.A.'
'Cava, R.J.'
_cell_length_a 5.220(3)
_cell_length_b 5.220(3)
_cell_length_c 5.705(5)
_cell_angle_alpha 90
_cell_angle_beta 90
_cell_angle_gamma 120
_cell_volume 134.62
_cell_formula_units_Z 1
_symmetry_space_group_name_H-M 'P -3 1 m'
_symmetry_Int_Tables_number 162
_refine_ls_R_factor_all 0.0229
loop_
_symmetry_equiv_pos_site_id
_symmetry_equiv_pos_as_xyz
1 '-x+y, y, -z'
2 'x, x-y, -z'
3 '-y, -x, -z'
4 'x-y, x, -z'
5 'y, -x+y, -z'
6 '-x, -y, -z'
7 'x-y, -y, z'
8 '-x, -x+y, z'
9 'y, x, z'
10 '-x+y, -x, z'
11 '-y, x-y, z'
12 'x, y, z'
loop_
_atom_type_symbol
_atom_type_oxidation_number
Bi3+ 3
Ni2+ 2
Na1+ 1
O2- -2
loop_
_atom_site_label
_atom_site_type_symbol
_atom_site_symmetry_multiplicity
_atom_site_Wyckoff_symbol
_atom_site_fract_x
_atom_site_fract_y
_atom_site_fract_z
_atom_site_B_iso_or_equiv
_atom_site_occupancy
_atom_site_attached_hydrogens
Bi1 Bi3+ 1 a 0 0 0 0.0064(3) 0.919(5) 0
Bi2 Bi3+ 2 e 0 0 0.114(5) 0.0064(3) 0.040(2) 0
Ni1 Ni2+ 2 c 0.3333 0.6667 0 0.0093(6) 1 0
Na1 Na1+ 2 d 0.3333 0.6667 0.5 0.016(4) 0.5 0
O1 O2- 6 k 0.3525(12) 0 0.1795(19) 0.0146(19) 0.94 0
loop_
_atom_site_aniso_label
_atom_site_aniso_type_symbol
_atom_site_aniso_U_11
_atom_site_aniso_U_22
_atom_site_aniso_U_33
_atom_site_aniso_U_12
_atom_site_aniso_U_13
_atom_site_aniso_U_23
Ni1 Ni2+ 0.0055(6) 0.0055(6) 0.0168(18) 0.0028(3) 0 0
Na1 Na1+ 0.015(4) 0.015(4) 0.019(13) 0.007(2) 0 0
O1 O2- 0.007(2) 0.015(4) 0.024(6) 0.0073(18) -0.001(3) 0
#End of TTdata_251509-ICSD