
#(C) 2019 by FIZ Karlsruhe - Leibniz Institute for Information Infrastructure.  All rights reserved.
data_251539-ICSD
_database_code_ICSD 251539
_audit_creation_date 2015-08-01
_chemical_name_systematic 'Rubidium disodium decaoxo-chloro-hexaborate'
_chemical_formula_structural 'Rb Na2 B6 O10 Cl'
_chemical_formula_sum 'B6 Cl1 Na2 O10 Rb1'
_chemical_name_structure_type Te2Se4(SbF6)2
_exptl_crystal_density_diffrn 2.54
_cell_measurement_temperature 296.
_publ_section_title

;
Effect of halogen (Cl, Br) on the symmetry of flexible perovskite-related
framework
;
loop_
_citation_id
_citation_journal_full
_citation_year
_citation_journal_volume
_citation_page_first
_citation_page_last
_citation_journal_id_ASTM
primary 'Inorganic Chemistry' 2014 53 11213 11220 INOCAJ
loop_
_publ_author_name
'Bai, Chunyan'
'Yu, Hongwei'
'Han, Shujuan'
'Pan, Shilie'
'Zhang, Bingbing'
'Wang, Ying'
'Wu, Hongping'
'Yang, Zhihua'
_cell_length_a 8.3251(3)
_cell_length_b 9.6543(3)
_cell_length_c 12.7544(4)
_cell_angle_alpha 90.
_cell_angle_beta 90.
_cell_angle_gamma 90.
_cell_volume 1025.1
_cell_formula_units_Z 4
_symmetry_space_group_name_H-M 'P 21 21 21'
_symmetry_Int_Tables_number 19
_refine_ls_R_factor_all 0.0286
loop_
_symmetry_equiv_pos_site_id
_symmetry_equiv_pos_as_xyz
1 '-x, y+1/2, -z+1/2'
2 'x+1/2, -y+1/2, -z'
3 '-x+1/2, -y, z+1/2'
4 'x, y, z'
loop_
_atom_type_symbol
_atom_type_oxidation_number
Rb1+ 1
Na1+ 1
B3+ 3
O2- -2
Cl1- -1
loop_
_atom_site_label
_atom_site_type_symbol
_atom_site_symmetry_multiplicity
_atom_site_Wyckoff_symbol
_atom_site_fract_x
_atom_site_fract_y
_atom_site_fract_z
_atom_site_B_iso_or_equiv
_atom_site_occupancy
_atom_site_attached_hydrogens
Rb1 Rb1+ 4 a 0.48002(4) 0.75221(4) 0.26203(3) 0.03761(12) 1 0
Na1 Na1+ 4 a 0.27079(19) 0.50330(18) 0.03538(15) 0.0420(4) 1 0
Na2 Na1+ 4 a 0.46055(18) 0.72025(14) -0.24235(10) 0.0350(3) 1 0
B1 B3+ 4 a 0.5484(4) 0.7383(4) 0.5221(2) 0.0121(6) 1 0
B2 B3+ 4 a 0.4585(4) 0.7655(3) -0.0129(2) 0.0117(6) 1 0
B3 B3+ 4 a 0.1996(3) 1.0047(4) 0.2270(2) 0.0125(6) 1 0
B4 B3+ 4 a 0.2085(4) 0.8672(3) 0.0609(2) 0.0097(6) 1 0
B5 B3+ 4 a 0.1170(3) 1.0007(3) 0.4218(2) 0.0104(5) 1 0
B6 B3+ 4 a 0.7916(4) 0.6355(3) 0.4402(3) 0.0096(6) 1 0
O1 O2- 4 a 0.28121(18) 1.0010(2) 0.02006(14) 0.0081(4) 1 0
O2 O2- 4 a 0.2210(2) 1.0044(3) 0.33224(17) 0.0231(5) 1 0
O3 O2- 4 a 0.6872(2) 0.7508(2) 0.46637(14) 0.0149(4) 1 0
O4 O2- 4 a 0.3221(2) 0.7555(2) 0.04591(15) 0.0146(4) 1 0
O5 O2- 4 a 0.5140(3) 0.62289(19) 0.57978(15) 0.0161(4) 1 0
O6 O2- 4 a 0.4494(3) 0.84927(19) 0.51501(16) 0.0156(5) 1 0
O7 O2- 4 a 0.1864(2) 0.88241(19) 0.17459(16) 0.0140(4) 1 0
O8 O2- 4 a 0.5581(2) 0.6556(2) -0.00802(16) 0.0148(4) 1 0
O9 O2- 4 a 0.2040(3) 1.12756(19) 0.17437(16) 0.0143(4) 1 0
O10 O2- 4 a 0.4890(3) 0.87842(19) -0.07482(16) 0.0200(5) 1 0
Cl1 Cl1- 4 a 0.74153(12) 0.98720(12) 0.19576(9) 0.0437(3) 1 0
loop_
_atom_site_aniso_label
_atom_site_aniso_type_symbol
_atom_site_aniso_U_11
_atom_site_aniso_U_22
_atom_site_aniso_U_33
_atom_site_aniso_U_12
_atom_site_aniso_U_13
_atom_site_aniso_U_23
Rb1 Rb1+ 0.03218(17) 0.03701(19) 0.0436(2) -0.00490(17) -0.01858(15) 0.01625(17)
Na1 Na1+ 0.0532(9) 0.0177(7) 0.0551(10) 0.0000(8) -0.0131(7) 0.0004(9)
Na2 Na1+ 0.0427(7) 0.0396(8) 0.0227(6) 0.0250(6) -0.0079(6) -0.0008(5)
B1 B3+ 0.0123(14) 0.0137(15) 0.0104(13) 0.0018(15) -0.0020(10) -0.0016(12)
B2 B3+ 0.0132(13) 0.0113(15) 0.0107(12) 0.0002(14) 0.0022(11) -0.0036(11)
B3 B3+ 0.0076(11) 0.0195(15) 0.0102(13) 0.0006(12) 0.0020(10) 0.0003(15)
B4 B3+ 0.0096(14) 0.0087(14) 0.0108(16) 0.0017(11) 0.0039(12) -0.0012(12)
B5 B3+ 0.0158(13) 0.0085(12) 0.0069(13) -0.0002(14) -0.0028(10) -0.0010(13)
B6 B3+ 0.0086(13) 0.0075(14) 0.0128(16) -0.0002(11) -0.0004(12) 0.0008(12)
O1 O2- 0.0089(8) 0.0078(8) 0.0076(8) -0.0006(10) -0.0006(7) 0.0009(8)
O2 O2- 0.0229(10) 0.0354(12) 0.0109(10) -0.0045(11) -0.0002(8) 0.0000(10)
O3 O2- 0.0153(9) 0.0083(8) 0.0211(10) 0.0036(10) 0.0065(7) 0.0014(10)
O4 O2- 0.0134(8) 0.0102(9) 0.0202(10) 0.0003(10) 0.0054(7) 0.0028(10)
O5 O2- 0.0190(11) 0.0127(9) 0.0164(9) 0.0050(8) 0.0081(9) 0.0046(7)
O6 O2- 0.0125(11) 0.0100(10) 0.0244(12) 0.0027(8) 0.0053(9) 0.0037(8)
O7 O2- 0.0211(11) 0.0102(9) 0.0108(10) -0.0027(8) 0.0038(9) 0.0018(8)
O8 O2- 0.0136(11) 0.0107(10) 0.0200(10) 0.0047(8) 0.0055(8) 0.0042(8)
O9 O2- 0.0233(11) 0.0111(9) 0.0086(10) -0.0003(8) 0.0040(9) -0.0015(8)
O10 O2- 0.0238(13) 0.0125(9) 0.0237(11) 0.0097(9) 0.0135(10) 0.0065(8)
Cl1 Cl1- 0.0480(5) 0.0333(5) 0.0497(7) 0.0100(5) 0.0114(4) 0.0107(5)
#End of TTdata_251539-ICSD