
#(C) 2019 by FIZ Karlsruhe - Leibniz Institute for Information Infrastructure.  All rights reserved.
data_251550-ICSD
_database_code_ICSD 251550
_audit_creation_date 2015-08-01
_chemical_name_systematic 'Sodium manganese iron oxide (1/0.5/0.5/2)'
_chemical_formula_structural 'Na (Mn0.5 Fe0.5) O2'
_chemical_formula_sum 'Fe0.5 Mn0.5 Na1 O2'
_exptl_crystal_density_diffrn 4.27
_publ_section_title

;
P2-NaxMn1/2Fe1/2O2 phase used as positive electrode in Na batteries:
structural changes induced by the electrochemical (de)intercalation process
;
loop_
_citation_id
_citation_journal_full
_citation_year
_citation_journal_volume
_citation_page_first
_citation_page_last
_citation_journal_id_ASTM
primary 'Inorganic Chemistry' 2014 53 11197 11205 INOCAJ
loop_
_publ_author_name
'Mortemard de Boisse, Benoit'
'Carlier, Dany'
'Guignard, Marie'
'Bourgeois, Lydie'
'Delmas, Claude'
_cell_length_a 2.9367(2)
_cell_length_b 5.4015(5)
_cell_length_c 10.8248(8)
_cell_angle_alpha 90.
_cell_angle_beta 90.
_cell_angle_gamma 90.
_cell_volume 171.71
_cell_formula_units_Z 4
_symmetry_space_group_name_H-M 'C m c m'
_symmetry_Int_Tables_number 63
_refine_ls_R_factor_all 0.0713
loop_
_symmetry_equiv_pos_site_id
_symmetry_equiv_pos_as_xyz
1 '-x, y, -z+1/2'
2 '-x, -y, z+1/2'
3 '-x, y, z'
4 '-x, -y, -z'
5 'x, -y, z+1/2'
6 'x, y, -z+1/2'
7 'x, -y, -z'
8 'x, y, z'
9 '-x+1/2, y+1/2, -z+1/2'
10 '-x+1/2, -y+1/2, z+1/2'
11 '-x+1/2, y+1/2, z'
12 '-x+1/2, -y+1/2, -z'
13 'x+1/2, -y+1/2, z+1/2'
14 'x+1/2, y+1/2, -z+1/2'
15 'x+1/2, -y+1/2, -z'
16 'x+1/2, y+1/2, z'
loop_
_atom_type_symbol
_atom_type_oxidation_number
Na1+ 1
Mn3+ 3
Fe3+ 3
O2- -2
loop_
_atom_site_label
_atom_site_type_symbol
_atom_site_symmetry_multiplicity
_atom_site_Wyckoff_symbol
_atom_site_fract_x
_atom_site_fract_y
_atom_site_fract_z
_atom_site_B_iso_or_equiv
_atom_site_occupancy
_atom_site_attached_hydrogens
Na1 Na1+ 4 c 0 0.683(2) 0.25 0.7(2) 1.0(2) 0
Mn1 Mn3+ 4 a 0 0 0 0.60(5) 0.5 0
Fe1 Fe3+ 4 a 0 0 0 0.60(5) 0.5 0
O1 O2- 8 f 0 0.648(2) 0.901(1) 0.5(2) 1. 0
#End of TTdata_251550-ICSD