
#(C) 2019 by FIZ Karlsruhe - Leibniz Institute for Information Infrastructure.  All rights reserved.
data_251575-ICSD
_database_code_ICSD 251575
_audit_creation_date 2015-08-01
_chemical_name_systematic 'Sodium trifluoroferrate(II)'
_chemical_formula_structural 'Na Fe F3'
_chemical_formula_sum 'F3 Fe1 Na1'
_chemical_name_structure_type Pyroxene-CaIrO3
_exptl_crystal_density_diffrn 3.78
_cell_measurement_temperature 298.
_publ_section_title 'Perovskite to postperovskite transition in NaFeF3'
loop_
_citation_id
_citation_journal_full
_citation_year
_citation_journal_volume
_citation_page_first
_citation_page_last
_citation_journal_id_ASTM
primary 'Inorganic Chemistry' 2014 53 12205 12214 INOCAJ
loop_
_publ_author_name
'Bernal, Fabian L.'
'Yusenko, Kirill V.'
'Sottmann, Jonas'
'Drathen, Christina'
'Guignard, Jeremy'
'Loevvik, Ole Martin'
'Crichton, Wilson A.'
'Margadonna, Serena'
_cell_length_a 3.13774(4)
_cell_length_b 10.20870(10)
_cell_length_c 7.45875(9)
_cell_angle_alpha 90.
_cell_angle_beta 90.
_cell_angle_gamma 90.
_cell_volume 238.91
_cell_formula_units_Z 4
_symmetry_space_group_name_H-M 'C m c m'
_symmetry_Int_Tables_number 63
_refine_ls_R_factor_all 0.0774
loop_
_symmetry_equiv_pos_site_id
_symmetry_equiv_pos_as_xyz
1 '-x, y, -z+1/2'
2 '-x, -y, z+1/2'
3 '-x, y, z'
4 '-x, -y, -z'
5 'x, -y, z+1/2'
6 'x, y, -z+1/2'
7 'x, -y, -z'
8 'x, y, z'
9 '-x+1/2, y+1/2, -z+1/2'
10 '-x+1/2, -y+1/2, z+1/2'
11 '-x+1/2, y+1/2, z'
12 '-x+1/2, -y+1/2, -z'
13 'x+1/2, -y+1/2, z+1/2'
14 'x+1/2, y+1/2, -z+1/2'
15 'x+1/2, -y+1/2, -z'
16 'x+1/2, y+1/2, z'
loop_
_atom_type_symbol
_atom_type_oxidation_number
Na1+ 1
Fe2+ 2
F1- -1
loop_
_atom_site_label
_atom_site_type_symbol
_atom_site_symmetry_multiplicity
_atom_site_Wyckoff_symbol
_atom_site_fract_x
_atom_site_fract_y
_atom_site_fract_z
_atom_site_B_iso_or_equiv
_atom_site_occupancy
_atom_site_attached_hydrogens
Na1 Na1+ 4 c 0. 0.7457 0.25 0.01658 1. 0
Fe1 Fe2+ 4 a 0. 0. 0. 0.00792 1. 0
F1 F1- 4 c 0. 0.0842 0.25 0.01837 1. 0
F2 F1- 8 f 0. 0.6278 0.9437 0.02025 1. 0
#End of TTdata_251575-ICSD