
#(C) 2019 by FIZ Karlsruhe - Leibniz Institute for Information Infrastructure.  All rights reserved.
data_251633-ICSD
_database_code_ICSD 251633
_audit_creation_date 2016-02-01
_chemical_name_systematic 'Sodium holmium tellurium boron oxide (2/2/1/2/10)'
_chemical_formula_structural 'Na2 Ho2 Te B2 O10'
_chemical_formula_sum 'B2 Ho2 Na2 O10 Te1'
_chemical_name_structure_type Na2Y2TeB2O10
_exptl_crystal_density_diffrn 5.56
_cell_measurement_temperature 293.
_publ_section_title

;
Na2 RE2 Te O4 (B O3)2 (RE = Y, Dy-Lu): luminescent and structural studies on a
series of mixed metal borotellurates
;
loop_
_citation_id
_citation_journal_full
_citation_year
_citation_journal_volume
_citation_page_first
_citation_page_last
_citation_journal_id_ASTM
primary 'Inorganic Chemistry' 2015 54 2447 2454 INOCAJ
loop_
_publ_author_name
'Feng, Jiang-He'
'Hu, Chun-Li'
'Xu, Xiang'
'Kong, Fang'
'Mao, Jiang-Gao'
_cell_length_a 6.3060(5)
_cell_length_b 9.9360(7)
_cell_length_c 6.7339(6)
_cell_angle_alpha 90.
_cell_angle_beta 104.230(8)
_cell_angle_gamma 90.
_cell_volume 408.97
_cell_formula_units_Z 2
_symmetry_space_group_name_H-M 'P 1 21/c 1'
_symmetry_Int_Tables_number 14
_refine_ls_R_factor_all 0.0278
loop_
_symmetry_equiv_pos_site_id
_symmetry_equiv_pos_as_xyz
1 'x, -y+1/2, z+1/2'
2 '-x, -y, -z'
3 '-x, y+1/2, -z+1/2'
4 'x, y, z'
loop_
_atom_type_symbol
_atom_type_oxidation_number
Ho3+ 3
Te6+ 6
Na1+ 1
O2- -2
B3+ 3
loop_
_atom_site_label
_atom_site_type_symbol
_atom_site_symmetry_multiplicity
_atom_site_Wyckoff_symbol
_atom_site_fract_x
_atom_site_fract_y
_atom_site_fract_z
_atom_site_B_iso_or_equiv
_atom_site_occupancy
_atom_site_attached_hydrogens
Ho1 Ho3+ 4 e 0.12675(6) 0.83337(5) 0.02379(6) 0.0056(2) 1 0
Te1 Te6+ 2 c 0. 0.5 0. 0.0051(3) 1 0
Na1 Na1+ 4 e -0.4161(6) 0.6115(5) 0.1656(6) 0.0184(10) 1 0
O1 O2- 4 e 0.4832(9) 0.8267(6) 0.0555(10) 0.0095(15) 1 0
O2 O2- 4 e -0.0048(10) 0.6506(7) 0.1768(10) 0.0093(15) 1 0
O3 O2- 4 e 0.2873(10) 0.4389(7) 0.1651(9) 0.0091(15) 1 0
O4 O2- 4 e -0.1995(9) 0.9393(7) 0.0106(9) 0.0083(15) 1 0
O5 O2- 4 e -0.1594(10) 0.3856(7) 0.1356(10) 0.0109(15) 1 0
B1 B3+ 4 e 0.3351(16) 0.3989(12) 0.3729(16) 0.008(2) 1 0
loop_
_atom_site_aniso_label
_atom_site_aniso_type_symbol
_atom_site_aniso_U_11
_atom_site_aniso_U_22
_atom_site_aniso_U_33
_atom_site_aniso_U_12
_atom_site_aniso_U_13
_atom_site_aniso_U_23
Ho1 Ho3+ 0.0040(3) 0.0057(3) 0.0065(3) -0.00021(16) 0.00015(18) 0.00032(17)
Te1 Te6+ 0.0042(4) 0.0051(5) 0.0049(4) -0.0003(3) -0.0007(3) 0.0003(4)
Na1 Na1+ 0.0139(19) 0.016(2) 0.023(2) 0.0001(18) 0.0010(18) 0.001(2)
O1 O2- 0.005(3) 0.007(4) 0.015(4) 0.002(3) 0.000(3) -0.002(3)
O2 O2- 0.011(3) 0.008(4) 0.008(3) 0.000(3) 0.000(3) -0.003(3)
O3 O2- 0.007(3) 0.007(4) 0.011(3) -0.002(3) -0.003(3) 0.000(3)
O4 O2- 0.003(3) 0.011(4) 0.009(3) -0.002(3) -0.002(3) 0.002(3)
O5 O2- 0.014(3) 0.009(4) 0.009(3) 0.002(3) 0.002(3) -0.004(3)
B1 B3+ 0.006(3) 0.007(3) 0.009(3) -0.001(3) -0.001(2) 0.000(3)
#End of TTdata_251633-ICSD