
#(C) 2019 by FIZ Karlsruhe - Leibniz Institute for Information Infrastructure.  All rights reserved.
data_251636-ICSD
_database_code_ICSD 251636
_audit_creation_date 2016-02-01
_chemical_name_systematic 'Sodium ytterbium tellurium boron oxide (2/2/1/2/10)'
_chemical_formula_structural 'Na2 Yb2 Te B2 O10'
_chemical_formula_sum 'B2 Na2 O10 Te1 Yb2'
_chemical_name_structure_type Na2Y2TeB2O10
_exptl_crystal_density_diffrn 5.84
_cell_measurement_temperature 293.
_publ_section_title

;
Na2 RE2 Te O4 (B O3)2 (RE = Y, Dy-Lu): luminescent and structural studies on a
series of mixed metal borotellurates
;
loop_
_citation_id
_citation_journal_full
_citation_year
_citation_journal_volume
_citation_page_first
_citation_page_last
_citation_journal_id_ASTM
primary 'Inorganic Chemistry' 2015 54 2447 2454 INOCAJ
loop_
_publ_author_name
'Feng, Jiang-He'
'Hu, Chun-Li'
'Xu, Xiang'
'Kong, Fang'
'Mao, Jiang-Gao'
_cell_length_a 6.2631(6)
_cell_length_b 9.8269(9)
_cell_length_c 6.6741(7)
_cell_angle_alpha 90.
_cell_angle_beta 103.972(10)
_cell_angle_gamma 90.
_cell_volume 398.61
_cell_formula_units_Z 2
_symmetry_space_group_name_H-M 'P 1 21/c 1'
_symmetry_Int_Tables_number 14
_refine_ls_R_factor_all 0.0373
loop_
_symmetry_equiv_pos_site_id
_symmetry_equiv_pos_as_xyz
1 'x, -y+1/2, z+1/2'
2 '-x, -y, -z'
3 '-x, y+1/2, -z+1/2'
4 'x, y, z'
loop_
_atom_type_symbol
_atom_type_oxidation_number
Yb3+ 3
Te6+ 6
Na1+ 1
O2- -2
B3+ 3
loop_
_atom_site_label
_atom_site_type_symbol
_atom_site_symmetry_multiplicity
_atom_site_Wyckoff_symbol
_atom_site_fract_x
_atom_site_fract_y
_atom_site_fract_z
_atom_site_B_iso_or_equiv
_atom_site_occupancy
_atom_site_attached_hydrogens
Yb1 Yb3+ 4 e 0.12674(8) 0.83415(5) 0.02377(8) 0.0056(3) 1 0
Te1 Te6+ 2 c 0. 0.5 0. 0.0047(3) 1 0
Na1 Na1+ 4 e -0.4180(10) 0.6106(5) 0.1665(8) 0.0173(12) 1 0
O1 O2- 4 e 0.4800(14) 0.8287(7) 0.0525(13) 0.0058(18) 1 0
O2 O2- 4 e -0.0021(14) 0.6503(8) 0.1789(13) 0.0072(19) 1 0
O3 O2- 4 e 0.2885(15) 0.4348(9) 0.1653(14) 0.011(2) 1 0
O4 O2- 4 e -0.1971(14) 0.9381(8) 0.0074(13) 0.0070(18) 1 0
O5 O2- 4 e -0.1635(15) 0.3838(9) 0.1362(14) 0.011(2) 1 0
B1 B3+ 4 e 0.337(2) 0.3984(14) 0.374(2) 0.007(3) 1 0
loop_
_atom_site_aniso_label
_atom_site_aniso_type_symbol
_atom_site_aniso_U_11
_atom_site_aniso_U_22
_atom_site_aniso_U_33
_atom_site_aniso_U_12
_atom_site_aniso_U_13
_atom_site_aniso_U_23
Yb1 Yb3+ 0.0047(4) 0.0085(4) 0.0034(4) -0.0002(2) 0.0007(2) 0.0002(2)
Te1 Te6+ 0.0046(6) 0.0078(6) 0.0013(6) -0.0006(5) -0.0003(5) -0.0006(4)
Na1 Na1+ 0.023(3) 0.014(3) 0.016(3) -0.002(2) 0.007(3) 0.003(2)
O1 O2- 0.003(3) 0.009(3) 0.006(3) -0.002(2) 0.001(2) 0.001(2)
O2 O2- 0.009(5) 0.009(4) 0.004(5) -0.001(4) 0.001(4) -0.005(3)
O3 O2- 0.008(5) 0.019(5) 0.006(5) 0.002(4) 0.002(4) 0.001(4)
O4 O2- 0.008(3) 0.008(3) 0.005(3) 0.002(2) 0.001(2) 0.002(2)
O5 O2- 0.010(5) 0.010(4) 0.012(5) 0.000(4) 0.001(4) -0.004(4)
B1 B3+ 0.007(4) 0.007(4) 0.005(4) -0.002(3) 0.000(3) -0.001(3)
#End of TTdata_251636-ICSD